G6NPncore-PETIM in water
197845
    1aaa     N1    1  11.948  12.307   6.396  0.0554 -0.5037 -0.8928
    1aaa     C1    2  11.998  12.289   6.255  0.2966  0.1812 -0.1207
    1aaa     H1    3  11.923  12.237   6.194 -0.7610  0.1311  1.1808
    1aaa     H2    4  12.009  12.387   6.209  1.1359  0.4875  0.6971
    1aaa     C2    5  11.837  12.405   6.421  0.0771 -0.6195 -0.4233
    1aaa     H3    6  11.786  12.390   6.517  0.3023  1.1044  0.0014
    1aaa     H4    7  11.879  12.505   6.435 -1.1508 -0.3420  1.7865
    1aaa     C3    8  11.928  12.185   6.466  0.1799 -0.1938 -0.6674
    1aaa     H5    9  11.831  12.143   6.437  0.6172 -1.6320 -0.1365
    1aaa     H6   10  11.997  12.103   6.441 -2.0060 -1.7615 -1.8844
    1aaa     C4   11  11.921  12.190   6.619  0.8072  0.1228  0.1984
    1aaa     H7   12  11.856  12.269   6.657 -0.5419  0.6486 -2.8684
    1aaa     H8   13  11.879  12.099   6.663  0.5905 -0.4392 -1.1124
    1aaa     C5   14  12.134  12.215   6.238 -0.9053 -0.4073 -0.2884
    1aaa     H9   15  12.111  12.113   6.272 -0.6653 -1.2565 -2.4777
    1aaa    H10   16  12.176  12.219   6.137  0.9589 -0.5106  0.4401
    1aaa     C6   17  11.736  12.430   6.301 -0.2641  0.0077 -0.0164
    1aaa    H11   18  11.683  12.524   6.326  1.1860  0.8127  0.1312
    1aaa    H12   19  11.786  12.451   6.206 -1.0137  2.3718  0.0311
    1aaa     C7   20  11.637  12.311   6.286 -0.1059  0.3797  0.3989
    1aaa    H13   21  11.581  12.340   6.197  3.5645  0.5954 -2.0305
    1aaa    H14   22  11.694  12.222   6.257 -1.4372 -0.0790 -0.9278
    1aaa     C8   23  12.062  12.198   6.689  0.9100 -0.4062  0.6954
    1aaa    H15   24  12.124  12.111   6.663  1.7040  0.6201 -1.0154
    1aaa    H16   25  12.113  12.283   6.644  0.5690 -0.4145  0.2882
    1aaa     C9   26  12.243  12.260   6.345  0.0627 -0.1862 -0.5960
    1aaa    H17   27  12.263  12.367   6.329  2.4113  0.0653  3.0294
    1aaa    H18   28  12.203  12.264   6.447  1.9769 -2.8144  0.3629
    2bbb     N1   29  11.511  12.004   6.724 -0.7745  0.0167 -0.3611
    2bbb     C1   30  11.397  11.904   6.729  0.4727 -0.3521  0.1202
    2bbb     H1   31  11.310  11.956   6.687  1.1465  1.4735  0.8930
    2bbb     H2   32  11.366  11.874   6.830 -0.7204  1.8072  0.4591
    2bbb     C2   33  11.630  11.964   6.801  0.3149  0.8608  0.1930
    2bbb     H3   34  11.694  12.052   6.817  2.2112 -0.5312  0.6588
    2bbb     H4   35  11.688  11.894   6.739 -1.1427  1.7722 -2.3686
    2bbb     C3   36  11.547  12.047   6.590 -0.6865 -0.1728 -0.7229
    2bbb     H5   37  11.562  11.959   6.527 -0.5511 -1.5424  1.1474
    2bbb     H6   38  11.633  12.116   6.596 -1.2644  0.4357  1.2926
    2bbb     C4   39  11.428  12.119   6.530 -0.5730  0.0730 -0.4619
    2bbb     H7   40  11.393  12.194   6.602  0.5766 -0.5032  0.7441
    2bbb     H8   41  11.347  12.046   6.516 -0.6772  0.6084 -3.0887
    2bbb     C5   42  11.423  11.776   6.646 -0.3074  0.6469 -0.2195
    2bbb     H9   43  11.523  11.731   6.642 -1.5688 -2.5916  1.1777
    2bbb    H10   44  11.406  11.802   6.541 -2.3281  0.4664  0.0287
    2bbb     C6   45  11.610  11.900   6.939 -0.3086  0.3033 -1.2381
    2bbb    H11   46  11.705  11.850   6.960 -0.1583  0.3119 -1.8888
    2bbb    H12   47  11.541  11.815   6.928 -0.3359  0.2044 -0.3824
    2bbb     C7   48  11.465  12.180   6.396  0.2490 -0.0580  0.3172
    2bbb    H13   49  11.378  12.233   6.354 -0.1676 -0.1695  1.0173
    2bbb    H14   50  11.487  12.102   6.322 -1.0921  1.4766 -1.8318
    2bbb     C8   51  11.561  12.004   7.045  0.1294 -0.0606 -0.9290
    2bbb    H15   52  11.479  12.061   6.998  0.2339 -0.5720 -1.7458
    2bbb    H16   53  11.639  12.075   7.076 -1.5924  0.8512  1.6015
    2bbb     C9   54  11.303  11.676   6.681  0.0938 -0.1212  0.1101
    2bbb    H17   55  11.230  11.687   6.600  1.7452  1.5494 -1.2309
    2bbb    H18   56  11.257  11.705   6.777  3.3171  1.5550  1.2873
    2bbb     O1   57  11.573  12.279   6.409  0.4124 -0.2641  0.3552
    3bbb     N1   58  12.161  12.340   7.215 -0.1351  0.1493 -0.8267
    3bbb     C1   59  12.115  12.469   7.279  0.2567  0.0142  0.1589
    3bbb     H1   60  12.006  12.480   7.271  0.1610  0.2076  1.5526
    3bbb     H2   61  12.166  12.547   7.221  1.5422 -1.2728 -0.5442
    3bbb     C2   62  12.291  12.286   7.257  0.2870 -0.1857 -0.4418
    3bbb     H3   63  12.297  12.179   7.230 -1.9965 -0.5860  0.4544
    3bbb     H4   64  12.312  12.280   7.365  0.1183 -0.9907 -0.4483
    3bbb     C3   65  12.134  12.330   7.075  0.3843 -0.2166  0.5833
    3bbb     H5   66  12.184  12.240   7.039  0.7754  0.0985  0.3336
    3bbb     H6   67  12.169  12.418   7.019  1.1713 -0.6354  0.4049
    3bbb     C4   68  11.987  12.323   7.033 -0.1091  0.0348 -0.4298
    3bbb     H7   69  11.934  12.411   7.071 -0.6661  0.4630 -2.0981
    3bbb     H8   70  11.943  12.240   7.089  1.6283 -0.7365 -0.1562
    3bbb     C5   71  12.147  12.485   7.433  0.5073 -0.2360 -0.0281
    3bbb     H9   72  12.250  12.523   7.429  0.2173  0.5503 -0.3703
    3bbb    H10   73  12.136  12.394   7.493  0.4012 -0.4899 -0.4258
    3bbb     C6   74  12.419  12.358   7.205 -0.2120  0.0635  0.3053
    3bbb    H11   75  12.503  12.329   7.268 -0.8830  1.4204  1.8971
    3bbb    H12   76  12.400  12.464   7.225 -0.3302  0.2815 -0.8942
    3bbb     C7   77  11.967  12.312   6.876 -0.0070 -0.2324 -1.1249
    3bbb    H13   78  11.971  12.409   6.824 -2.0133 -0.5242 -1.9216
    3bbb    H14   79  11.861  12.287   6.879  0.0481 -0.3852  0.2181
    3bbb     C8   80  12.457  12.319   7.063 -0.4727 -0.2579 -0.2948
    3bbb    H15   81  12.373  12.322   6.993 -0.3730  1.0570 -0.3766
    3bbb    H16   82  12.501  12.219   7.062  1.6305  0.5951  0.4313
    3bbb     C9   83  12.067  12.604   7.495 -0.5336  0.5701 -0.3461
    3bbb    H17   84  12.081  12.697   7.437 -2.6418  1.7567  0.9104
    3bbb    H18   85  12.115  12.636   7.588  1.0373  1.6439 -1.4615
    3bbb     O1   86  12.051  12.212   6.831  0.2495  1.1630 -0.0361
    4bbb     N1   87  12.539  11.751   6.554 -0.7690 -0.2302 -0.6750
    4bbb     C1   88  12.654  11.816   6.626 -0.4015 -0.0715  0.5940
    4bbb     H1   89  12.694  11.900   6.569  0.5063 -1.2444 -0.5607
    4bbb     H2   90  12.741  11.749   6.633 -1.0469 -1.0512 -0.3920
    4bbb     C2   91  12.487  11.626   6.611 -0.1562 -0.4240  0.4239
    4bbb     H3   92  12.399  11.597   6.553  0.8117 -0.2210 -1.1979
    4bbb     H4   93  12.453  11.639   6.715 -0.3712 -1.5647  0.5094
    4bbb     C3   94  12.433  11.846   6.509  0.5841  0.8243 -0.2225
    4bbb     H5   95  12.363  11.883   6.585 -1.2163 -0.9998 -0.9118
    4bbb     H6   96  12.378  11.784   6.438 -0.7026  0.2914  1.1758
    4bbb     C4   97  12.471  11.980   6.437 -0.8437 -0.2320 -0.1198
    4bbb     H7   98  12.539  11.965   6.352  0.5075  0.9157  0.7111
    4bbb     H8   99  12.520  12.053   6.503 -1.0410  1.3286 -1.6539
    4bbb     C5  100  12.622  11.861   6.778 -0.1904  0.3857 -0.5223
    4bbb     H9  101  12.564  11.786   6.832 -0.6741 -0.0482 -1.6201
    4bbb    H10  102  12.560  11.951   6.775  0.8406  1.1006 -1.1768
    4bbb     C6  103  12.603  11.518   6.613  0.3623  0.5803 -0.1388
    4bbb    H11  104  12.667  11.535   6.700  0.4090 -1.5779  0.2937
    4bbb    H12  105  12.675  11.524   6.530  1.8231  0.5675  1.0797
    4bbb     C7  106  12.347  12.050   6.380 -0.2022  0.1619 -0.1773
    4bbb    H13  107  12.269  12.035   6.454 -0.9823 -1.0943 -1.2055
    4bbb    H14  108  12.322  11.999   6.286 -0.4022  1.0998 -0.6503
    4bbb     C8  109  12.542  11.380   6.633 -0.0839 -0.0690  0.5940
    4bbb    H15  110  12.616  11.301   6.615 -0.7086 -0.4012 -0.6634
    4bbb    H16  111  12.465  11.353   6.559  1.0213 -0.4259 -0.4687
    4bbb     C9  112  12.743  11.898   6.861 -0.1861  0.5452 -0.0486
    4bbb    H17  113  12.814  11.954   6.799  1.0855 -1.0104 -0.0749
    4bbb    H18  114  12.801  11.811   6.895 -0.0783  0.5227 -0.2870
    4bbb     O1  115  12.366  12.190   6.352 -0.7156 -0.1548  0.0742
    5bbb     N1  116  11.088  12.038   7.127  0.2718  0.2576 -0.2553
    5bbb     C1  117  10.982  11.938   7.099  0.0804 -0.0578  0.1695
    5bbb     H1  118  10.995  11.864   7.179  0.0210  0.7230  0.9096
    5bbb     H2  119  10.999  11.892   7.001 -1.4013  0.9863 -0.6208
    5bbb     C2  120  11.088  12.157   7.040 -0.1552 -0.6791 -0.6940
    5bbb     H3  121  11.152  12.235   7.083  0.3779 -1.3874 -0.1540
    5bbb     H4  122  10.990  12.205   7.047 -0.4610 -1.2306 -1.0796
    5bbb     C3  123  11.219  11.977   7.160  0.2741  0.3893  0.1945
    5bbb     H5  124  11.260  11.933   7.068 -0.2208  0.2620  0.0318
    5bbb     H6  125  11.207  11.898   7.234  1.1966 -0.2948 -0.3624
    5bbb     C4  126  11.320  12.078   7.220  0.0035 -0.5972  0.0063
    5bbb     H7  127  11.266  12.134   7.297 -0.7713  0.9506 -1.6073
    5bbb     H8  128  11.342  12.153   7.144  0.8530  0.9127  1.6497
    5bbb     C5  129  10.837  11.985   7.104  0.1822  0.2902 -0.3508
    5bbb     H9  130  10.770  11.899   7.092 -0.9125  0.9345  0.8015
    5bbb    H10  131  10.825  12.060   7.025  1.0982  1.1506  0.2882
    5bbb     C6  132  11.144  12.135   6.898  0.0434 -0.1954 -0.1097
    5bbb    H11  133  11.121  12.031   6.874 -1.4031 -0.3541  1.7408
    5bbb    H12  134  11.252  12.150   6.892 -0.0103  0.0076 -0.6565
    5bbb     C7  135  11.452  12.014   7.264 -0.6141 -0.1415 -0.2596
    5bbb    H13  136  11.437  11.956   7.356  0.4095  0.6338  0.4152
    5bbb    H14  137  11.520  12.097   7.286 -2.1811  2.0088 -2.8564
    5bbb     C8  138  11.073  12.233   6.795  0.1200  1.2076 -0.2456
    5bbb    H15  139  11.069  12.333   6.839  0.4591  0.6697  1.0404
    5bbb    H16  140  10.966  12.207   6.797  0.5087 -0.6271 -1.1763
    5bbb     C9  141  10.804  12.073   7.234 -0.1281  0.5101 -0.2263
    5bbb    H17  142  10.883  12.148   7.244  3.0644 -2.3609 -1.9435
    5bbb    H18  143  10.814  12.003   7.318  2.2681  1.6093  0.4759
    5bbb     O1  144  11.513  11.933   7.158  0.2403 -0.0419 -0.1074
    6bbb     N1  145  11.327  11.113   6.550 -0.3628  0.1342  0.9340
    6bbb     C1  146  11.379  11.032   6.662 -0.8215 -0.5294  0.2333
    6bbb     H1  147  11.343  11.059   6.762 -3.5185 -3.1057  0.0902
    6bbb     H2  148  11.486  11.057   6.668 -1.2297  1.6346 -0.5507
    6bbb     C2  149  11.387  11.090   6.419 -0.3818  0.1850  0.3405
    6bbb     H3  150  11.400  10.983   6.394 -0.2095  0.2256  0.2510
    6bbb     H4  151  11.492  11.123   6.416  0.2106 -1.5907 -1.7425
    6bbb     C3  152  11.327  11.261   6.577  0.4174  0.3370 -0.0025
    6bbb     H5  153  11.267  11.314   6.503 -0.5912  0.6538  0.9991
    6bbb     H6  154  11.432  11.290   6.575  0.8701 -1.2162  0.1312
    6bbb     C4  155  11.270  11.302   6.716 -0.3809 -0.5155  0.7508
    6bbb     H7  156  11.340  11.285   6.799  0.1466  0.7033  0.5924
    6bbb     H8  157  11.188  11.238   6.748  0.1220 -1.7674 -0.3700
    6bbb     C5  158  11.341  10.882   6.642  0.2276 -0.1591 -0.5023
    6bbb     H9  159  11.341  10.853   6.536 -1.7715 -0.4614 -0.4669
    6bbb    H10  160  11.238  10.885   6.679  0.5582  2.8791  0.4927
    6bbb     C6  161  11.336  11.149   6.289 -0.6234 -0.3299  0.4934
    6bbb    H11  162  11.344  11.259   6.296 -1.2415 -0.2527  0.0198
    6bbb    H12  163  11.233  11.117   6.275 -0.2117 -2.5630  2.1440
    6bbb     C7  164  11.232  11.450   6.712 -0.4676 -0.0877 -0.0096
    6bbb    H13  165  11.170  11.478   6.798 -0.5820 -0.6511  0.0976
    6bbb    H14  166  11.154  11.478   6.640 -2.0036 -1.0281  1.2246
    6bbb     C8  167  11.417  11.107   6.169  0.8503  0.0434 -0.2435
    6bbb    H15  168  11.366  11.152   6.083 -0.1557 -0.1171  0.2542
    6bbb    H16  169  11.407  11.001   6.145 -2.7440  0.7478 -2.5402
    6bbb     C9  170  11.419  10.785   6.728 -0.8584 -0.0861  0.1120
    6bbb    H17  171  11.441  10.830   6.825 -0.2153 -0.3384  0.0851
    6bbb    H18  172  11.521  10.777   6.688 -0.5216  2.6729  0.2022
    6bbb     O1  173  11.346  11.536   6.687 -0.1307  0.0132  0.0015
    7bbb     N1  174  12.785  12.731   6.813 -0.3316 -0.3239 -0.3485
    7bbb     C1  175  12.861  12.771   6.935  0.3060  0.6444 -0.4214
    7bbb     H1  176  12.910  12.867   6.914  3.0916 -0.7645 -0.8607
    7bbb     H2  177  12.943  12.701   6.954 -0.6662 -0.1354  1.0314
    7bbb     C2  178  12.860  12.735   6.682  0.3115  0.3869  0.1841
    7bbb     H3  179  12.797  12.719   6.594  0.3256  0.5297  0.1488
    7bbb     H4  180  12.930  12.650   6.683 -0.5423 -0.3540  1.4750
    7bbb     C3  181  12.690  12.618   6.829  0.7310  0.1784 -0.5403
    7bbb     H5  182  12.648  12.594   6.731 -0.6584 -1.3056  0.3752
    7bbb     H6  183  12.614  12.653   6.900  1.3183  0.3621  0.0018
    7bbb     C4  184  12.747  12.487   6.880 -0.3028 -0.0986 -0.1523
    7bbb     H7  185  12.805  12.501   6.972  1.4353  2.5937 -1.5381
    7bbb     H8  186  12.813  12.452   6.800  2.0760 -1.0068  2.0588
    7bbb     C5  187  12.775  12.793   7.062  0.2984  0.2243  0.1966
    7bbb     H9  188  12.708  12.709   7.082 -1.1658  0.9628 -1.3438
    7bbb    H10  189  12.708  12.877   7.039  0.3838  0.1804 -0.2335
    7bbb     C6  190  12.943  12.854   6.648  0.5251 -0.1674 -0.1341
    7bbb    H11  191  12.970  12.835   6.544 -1.8953 -3.4156 -0.3208
    7bbb    H12  192  13.029  12.853   6.716 -0.2112 -0.2106  0.8315
    7bbb     C7  193  12.639  12.375   6.905 -0.3673  0.0875  0.1434
    7bbb    H13  194  12.693  12.280   6.912  1.2747  1.0659  2.1147
    7bbb    H14  195  12.562  12.374   6.828 -0.0306 -0.8670 -0.1920
    7bbb     C8  196  12.876  12.994   6.651  0.7101  0.2033 -0.0746
    7bbb    H15  197  12.962  13.063   6.646  0.9671 -0.2173 -2.2799
    7bbb    H16  198  12.832  13.016   6.749  1.8132 -1.2418  0.7871
    7bbb     C9  199  12.851  12.844   7.185 -0.0029  0.1470 -0.3713
    7bbb    H17  200  12.928  12.767   7.198  0.3249  0.2592 -1.5137
    7bbb    H18  201  12.777  12.858   7.264 -1.9752  1.7062 -2.3538
    7bbb     O1  202  12.563  12.410   7.025 -0.3177  0.0070 -0.0133
    8bbb     N1  203  11.644  12.785   7.361  0.4285 -0.1600  0.1030
    8bbb     C1  204  11.576  12.903   7.425  0.2119 -0.4553 -0.0514
    8bbb     H1  205  11.623  12.921   7.523  2.9069 -0.6247 -1.2282
    8bbb     H2  206  11.469  12.886   7.444 -0.3374  0.4004 -2.1758
    8bbb     C2  207  11.605  12.779   7.210  0.8880  0.1934  0.0763
    8bbb     H3  208  11.618  12.877   7.163  1.6274  0.0520 -0.0301
    8bbb     H4  209  11.498  12.759   7.201  0.7173 -0.0085  2.1512
    8bbb     C3  210  11.629  12.656   7.434  0.3143  1.0217 -0.7046
    8bbb     H5  211  11.669  12.575   7.371 -0.3840 -0.0935  0.2543
    8bbb     H6  212  11.523  12.637   7.454  0.6506 -0.7659 -0.4821
    8bbb     C4  213  11.712  12.654   7.564  0.0961  0.1139  0.2548
    8bbb     H7  214  11.704  12.557   7.615 -0.2135 -0.1308 -0.2553
    8bbb     H8  215  11.680  12.737   7.628  1.8906  2.2017 -1.3923
    8bbb     C5  216  11.581  13.044   7.355 -0.0186 -0.4826 -0.9979
    8bbb     H9  217  11.495  13.051   7.288 -0.1661  0.2124 -0.7416
    8bbb    H10  218  11.679  13.044   7.307  0.6844  1.0121  0.3413
    8bbb     C6  219  11.693  12.682   7.127  0.2162  0.2791 -0.1038
    8bbb    H11  220  11.663  12.582   7.159 -1.2341  0.8449  0.4190
    8bbb    H12  221  11.802  12.692   7.136  0.8198 -4.1901 -0.0868
    8bbb     C7  222  11.859  12.691   7.544  0.0062 -0.2017 -0.4321
    8bbb    H13  223  11.881  12.736   7.642  0.0312 -0.6363 -0.2385
    8bbb    H14  224  11.864  12.766   7.464 -0.7924  0.2615 -0.0677
    8bbb     C8  225  11.648  12.701   6.979  0.1591  0.5434  0.8097
    8bbb    H15  226  11.695  12.620   6.921  1.7183  0.5114  2.0355
    8bbb    H16  227  11.680  12.801   6.945  0.9584 -0.0251 -0.2143
    8bbb     C9  228  11.572  13.163   7.454 -0.3524  0.2906  0.2868
    8bbb    H17  229  11.613  13.252   7.406  1.2877  1.2878  3.2406
    8bbb    H18  230  11.631  13.124   7.538 -0.4589 -0.8872 -0.1551
    8bbb     O1  231  11.928  12.571   7.515 -0.9443 -0.2508 -0.7732
    9bbb     N1  232  12.653  10.973   6.886  0.4776  0.6013 -0.6700
    9bbb     C1  233  12.613  10.835   6.938 -0.3165 -0.1388 -0.4081
    9bbb     H1  234  12.630  10.753   6.868 -1.7798 -0.0987 -0.8331
    9bbb     H2  235  12.505  10.829   6.954 -0.4404 -0.3968 -1.3388
    9bbb     C2  236  12.671  10.982   6.738 -0.0167  0.1550 -1.5574
    9bbb     H3  237  12.700  11.083   6.707  0.4564  0.3578 -0.5083
    9bbb     H4  238  12.578  10.960   6.685  0.8767 -0.8934 -2.7534
    9bbb     C3  239  12.577  11.076   6.956  0.0054 -0.0685  0.1971
    9bbb     H5  240  12.604  11.069   7.062 -0.3285 -0.8594  0.2361
    9bbb     H6  241  12.471  11.048   6.943  0.4080 -0.7533 -2.0499
    9bbb     C4  242  12.586  11.219   6.902 -0.0604 -0.1879  0.6649
    9bbb     H7  243  12.685  11.234   6.857 -0.4736  0.9315  0.1146
    9bbb     H8  244  12.569  11.294   6.980 -2.2194  0.1520 -0.0694
    9bbb     C5  245  12.685  10.785   7.072  0.3158 -0.4175 -0.0739
    9bbb     H9  246  12.646  10.842   7.157 -1.4670  0.3185 -1.3138
    9bbb    H10  247  12.793  10.799   7.062  0.5192 -1.5819  0.2787
    9bbb     C6  248  12.782  10.889   6.679 -0.2796 -0.7363 -0.2975
    9bbb    H11  249  12.741  10.790   6.654 -0.9700 -1.8151  4.2006
    9bbb    H12  250  12.843  10.861   6.767 -0.4921 -1.6499 -0.4274
    9bbb     C7  251  12.460  11.248   6.813  0.2842  0.1329 -0.7988
    9bbb    H13  252  12.368  11.247   6.874  0.1276 -3.4745 -0.8984
    9bbb    H14  253  12.441  11.176   6.733 -1.5946  0.4155 -0.6637
    9bbb     C8  254  12.864  10.946   6.563 -0.6599  0.3404  0.0177
    9bbb    H15  255  12.798  10.930   6.477  0.3035 -0.2410 -0.6245
    9bbb    H16  256  12.951  10.884   6.540  0.6454  1.8790  0.6178
    9bbb     C9  257  12.662  10.629   7.097 -0.2960 -0.0096 -0.2676
    9bbb    H17  258  12.708  10.587   7.187 -6.4926 -3.0854  1.9905
    9bbb    H18  259  12.716  10.577   7.017 -1.8222  0.1702 -1.4637
    9bbb     O1  260  12.490  11.377   6.767  0.0408 -0.0510 -0.0589
   10bbb     N1  261  12.982  12.204   7.253 -0.3907 -0.2365 -0.3592
   10bbb     C1  262  13.107  12.170   7.323  0.6662 -0.1664  0.7867
   10bbb     H1  263  13.095  12.166   7.432  0.2335  0.4541  0.7669
   10bbb     H2  264  13.187  12.240   7.295  0.7646 -1.3085 -2.1077
   10bbb     C2  265  12.947  12.349   7.226 -0.1891  0.3236 -0.2670
   10bbb     H3  266  12.939  12.405   7.320  0.2414 -1.6265  0.9902
   10bbb     H4  267  12.850  12.371   7.180 -1.7925  2.5002  3.6516
   10bbb     C3  268  12.877  12.110   7.289 -0.3168 -0.5767  0.2012
   10bbb     H5  269  12.845  12.148   7.387 -0.3262 -1.3560  0.5008
   10bbb     H6  270  12.915  12.010   7.313  0.1867 -0.6635 -0.9102
   10bbb     C4  271  12.761  12.093   7.184 -0.7359 -0.1053  0.0909
   10bbb     H7  272  12.724  12.185   7.135 -0.0284  0.9696  1.5150
   10bbb     H8  273  12.683  12.034   7.233 -0.3698  0.0905  0.9342
   10bbb     C5  274  13.179  12.035   7.286  0.3313 -0.7742 -0.2368
   10bbb     H9  275  13.113  11.953   7.318  0.6873 -0.7411  0.6022
   10bbb    H10  276  13.269  12.029   7.348  0.8361 -0.8039 -0.9534
   10bbb     C6  277  13.056  12.416   7.142 -0.2448  0.0641 -0.1563
   10bbb    H11  278  13.152  12.414   7.196  0.0357  3.9053 -0.2187
   10bbb    H12  279  13.038  12.522   7.123 -0.9022 -0.0936 -0.4189
   10bbb     C7  280  12.819  12.010   7.068 -0.1536 -0.2740 -0.9067
   10bbb    H13  281  12.864  11.917   7.106  1.1964  0.1099 -1.5043
   10bbb    H14  282  12.902  12.062   7.019 -0.1361  0.1147 -0.4753
   10bbb     C8  283  13.075  12.358   7.001  0.3819 -0.1447 -0.4057
   10bbb    H15  284  12.985  12.309   6.962  0.8276 -0.9968 -0.3825
   10bbb    H16  285  13.140  12.272   7.018  0.7984 -0.1328 -1.8430
   10bbb     C9  286  13.223  12.035   7.138 -0.1840  0.8146  0.0438
   10bbb    H17  287  13.290  12.118   7.112 -0.8766  0.8595 -1.7328
   10bbb    H18  288  13.128  12.049   7.085  0.3228  0.6870 -0.9192
   10bbb     O1  289  12.712  11.976   6.977  0.8013  0.2446 -0.4460
   11bbb     N1  290  11.213  12.487   6.250  0.1036  0.0083  0.1465
   11bbb     C1  291  11.355  12.515   6.285 -0.0559  0.3089 -0.1560
   11bbb     H1  292  11.407  12.564   6.201  1.1415  1.6757  1.3190
   11bbb     H2  293  11.400  12.425   6.329 -3.0983 -0.5734  1.4189
   11bbb     C2  294  11.187  12.390   6.136  0.3788 -0.7405  0.2504
   11bbb     H3  295  11.078  12.375   6.128 -0.1326  1.1084  2.5561
   11bbb     H4  296  11.234  12.296   6.167  1.0848 -0.1153  1.1281
   11bbb     C3  297  11.118  12.455   6.360  0.3878  0.6935 -0.0495
   11bbb     H5  298  11.026  12.417   6.314  1.4717  0.7233 -2.3717
   11bbb     H6  299  11.076  12.540   6.415  0.6066  2.2620 -2.1798
   11bbb     C4  300  11.162  12.340   6.455  0.2669 -0.1447  0.3579
   11bbb     H7  301  11.266  12.363   6.483  0.0742  0.9212  0.2429
   11bbb     H8  302  11.168  12.250   6.394  0.3546  1.6519 -2.4820
   11bbb     C5  303  11.362  12.633   6.392  0.6657 -0.5473  0.0830
   11bbb     H9  304  11.466  12.638   6.426 -0.2946  0.4187  3.2131
   11bbb    H10  305  11.309  12.595   6.480  2.7512 -2.9900  0.4043
   11bbb     C6  306  11.249  12.444   6.004  0.6313  0.4205  0.3035
   11bbb    H11  307  11.237  12.553   6.001  2.8553  0.6963  0.1089
   11bbb    H12  308  11.183  12.418   5.920 -1.5191  3.8014  0.7330
   11bbb     C7  309  11.072  12.312   6.573  0.1608  0.1351  0.2299
   11bbb    H13  310  10.987  12.255   6.534  1.0991 -0.7008 -0.6665
   11bbb    H14  311  11.027  12.400   6.622 -0.5656  0.5018 -1.0509
   11bbb     C8  312  11.395  12.393   5.970  0.3882  0.4299  0.0931
   11bbb    H15  313  11.404  12.284   5.971 -1.4938  0.2521  0.6744
   11bbb    H16  314  11.463  12.437   6.044  0.7091 -1.1952  0.7866
   11bbb     C9  315  11.305  12.766   6.339  0.2791 -0.4082  0.1917
   11bbb    H17  316  11.254  12.812   6.424  0.4904  1.7283 -0.7826
   11bbb    H18  317  11.220  12.737   6.277 -0.9853  0.6701  1.3668
   11bbb     O1  318  11.141  12.233   6.671  0.1268 -0.6088  0.1291
   12bbb     N1  319  10.303  12.439   7.333 -0.3021 -0.2285 -0.0675
   12bbb     C1  320  10.314  12.502   7.203  0.1298 -0.2684 -0.0093
   12bbb     H1  321  10.221  12.558   7.187  1.3721  1.8313 -0.3035
   12bbb     H2  322  10.318  12.432   7.119 -1.5540  0.0160 -0.3608
   12bbb     C2  323  10.185  12.348   7.355 -0.5559 -0.1718  1.1302
   12bbb     H3  324  10.206  12.284   7.442 -1.0169 -1.5876  0.2294
   12bbb     H4  325  10.188  12.268   7.280 -0.4156  0.4912  0.4117
   12bbb     C3  326  10.434  12.374   7.394 -0.0165 -0.4440  0.7356
   12bbb     H5  327  10.408  12.342   7.495 -1.8998  1.0773  0.7758
   12bbb     H6  328  10.518  12.443   7.406 -0.9384  0.6659  0.9676
   12bbb     C4  329  10.486  12.255   7.300  0.5020 -0.6538 -0.0284
   12bbb     H7  330  10.490  12.302   7.201 -1.3580  0.7591  0.5247
   12bbb     H8  331  10.417  12.170   7.306 -0.1315 -0.0827  1.1871
   12bbb     C5  332  10.417  12.612   7.179  0.2128 -0.3789 -0.3443
   12bbb     H9  333  10.510  12.556   7.194 -0.3429 -0.8816  1.4128
   12bbb    H10  334  10.422  12.699   7.245  2.9361 -0.3829 -0.4100
   12bbb     C6  335  10.049  12.427   7.360 -0.0334  0.3648  0.1600
   12bbb    H11  336   9.973  12.358   7.321 -0.7791  1.9049 -1.2233
   12bbb    H12  337  10.049  12.509   7.287  1.2478 -0.1693 -0.4621
   12bbb     C7  338  10.629  12.211   7.336  0.0866  0.4509  0.4915
   12bbb    H13  339  10.620  12.141   7.420 -0.3802  1.6230  1.4292
   12bbb    H14  340  10.695  12.296   7.355  1.9845 -0.4650 -1.5569
   12bbb     C8  341  10.021  12.489   7.501 -0.2050 -0.5112 -0.3481
   12bbb    H15  342   9.950  12.573   7.497  0.9083  0.4515 -0.3745
   12bbb    H16  343  10.115  12.520   7.550 -1.2349 -0.4898  1.7313
   12bbb     C9  344  10.424  12.663   7.034 -0.5572  0.0222  0.2563
   12bbb    H17  345  10.345  12.735   7.011  0.0844  0.5001 -0.4784
   12bbb    H18  346  10.425  12.581   6.961 -0.8982  1.3927 -1.3546
   12bbb     O1  347  10.669  12.130   7.224 -0.3262  0.1363 -0.0072
   13bbb     N1  348  11.977  11.173   6.231  0.3533 -0.2323 -0.3948
   13bbb     C1  349  12.072  11.173   6.124 -0.3541  0.1889  0.1270
   13bbb     H1  350  12.163  11.224   6.161 -0.5356  1.2913 -0.8748
   13bbb     H2  351  12.032  11.229   6.039 -0.5675 -1.1987 -0.6995
   13bbb     C2  352  12.032  11.133   6.361  0.2176 -0.3800  0.5403
   13bbb     H3  353  12.071  11.031   6.348  1.8256  0.2313  0.3604
   13bbb     H4  354  11.952  11.151   6.434 -0.4228 -0.9696 -0.0086
   13bbb     C3  355  11.836  11.130   6.208 -0.0517 -0.2041  0.1080
   13bbb     H5  356  11.779  11.119   6.301  0.8571 -0.1994  0.6864
   13bbb     H6  357  11.834  11.037   6.151  1.6358 -1.3218  1.7355
   13bbb     C4  358  11.760  11.239   6.128  0.0984  0.5541 -0.2090
   13bbb     H7  359  11.830  11.271   6.051  1.8219 -3.8169 -0.7554
   13bbb     H8  360  11.748  11.327   6.193  0.6990  0.9049 -0.5723
   13bbb     C5  361  12.121  11.035   6.077 -0.4368 -0.6884  0.3143
   13bbb     H9  362  12.044  10.970   6.034  1.1667 -3.7624  1.7627
   13bbb    H10  363  12.167  10.981   6.160 -0.0165  0.6260  0.9596
   13bbb     C6  364  12.152  11.220   6.406  0.2789  0.2998 -1.3444
   13bbb    H11  365  12.134  11.327   6.390  0.9298  0.3401 -1.8371
   13bbb    H12  366  12.241  11.194   6.348  0.5536 -0.2607 -0.6902
   13bbb     C7  367  11.624  11.197   6.076  0.0322 -0.5300 -0.3194
   13bbb    H13  368  11.628  11.110   6.008  0.5912 -1.1302  0.4709
   13bbb    H14  369  11.582  11.281   6.018 -0.3382  0.2886  1.0973
   13bbb     C8  370  12.179  11.193   6.564  0.0679  0.0973  0.2241
   13bbb    H15  371  12.089  11.204   6.626 -0.0762 -3.0132  0.7237
   13bbb    H16  372  12.253  11.266   6.600 -1.2407  0.4973  2.3085
   13bbb     C9  373  12.220  11.059   5.964 -0.7689  0.6234  0.0318
   13bbb    H17  374  12.317  11.089   6.007 -1.3776  4.7225 -1.0321
   13bbb    H18  375  12.181  11.141   5.902  0.1233  1.9958  1.2016
   13bbb     O1  376  11.545  11.172   6.189 -0.2897 -0.4251 -0.1608
   14bbb     N1  377  11.187  10.258   6.850 -0.2213  0.1722  0.5047
   14bbb     C1  378  11.052  10.262   6.804  0.4572  0.3007  0.4027
   14bbb     H1  379  11.051  10.301   6.701 -2.7920 -1.2825 -0.3094
   14bbb     H2  380  10.993  10.333   6.863 -1.2517 -0.4027 -0.3845
   14bbb     C2  381  11.226  10.191   6.978 -0.0534  0.1810 -0.2281
   14bbb     H3  382  11.333  10.166   6.973  0.5521  2.6725 -1.1206
   14bbb     H4  383  11.163  10.103   6.995  0.1346  0.1187  0.1692
   14bbb     C3  384  11.264  10.378   6.817 -0.9123 -0.5965 -0.0434
   14bbb     H5  385  11.372  10.360   6.828 -0.3373  0.9164 -2.4071
   14bbb     H6  386  11.240  10.458   6.888  0.7172  0.4011 -0.5578
   14bbb     C4  387  11.249  10.441   6.678 -0.0353 -0.0665 -0.5251
   14bbb     H7  388  11.148  10.482   6.666 -0.3697 -0.5025  0.6272
   14bbb     H8  389  11.262  10.360   6.606 -0.2966 -1.0278  0.4660
   14bbb     C5  390  10.979  10.123   6.782  0.0195 -0.1041  0.5034
   14bbb     H9  391  10.956  10.076   6.878 -1.9060 -2.1973 -0.8931
   14bbb    H10  392  11.043  10.051   6.728 -1.8002 -2.1204  0.9023
   14bbb     C6  393  11.211  10.268   7.101  0.7831 -0.4543 -0.1879
   14bbb    H11  394  11.269  10.361   7.100  0.5644 -0.2653 -3.2273
   14bbb    H12  395  11.256  10.217   7.187  2.9724  2.2962  0.4270
   14bbb     C7  396  11.360  10.550   6.644 -1.0545  0.9588 -0.3814
   14bbb    H13  397  11.354  10.572   6.537  0.7116  0.8630 -0.5285
   14bbb    H14  398  11.456  10.498   6.651 -1.5825  0.0088 -0.0023
   14bbb     C8  399  11.067  10.305   7.136 -0.8292  0.5105 -0.1984
   14bbb    H15  400  10.999  10.220   7.129  1.6121 -1.9051  2.6457
   14bbb    H16  401  11.029  10.376   7.061 -1.8627  0.0625 -0.1124
   14bbb     C9  402  10.843  10.124   6.710  0.1111 -0.0501  0.3836
   14bbb    H17  403  10.788  10.032   6.731  0.0484 -0.1520 -0.2084
   14bbb    H18  404  10.863  10.140   6.604  1.3081 -0.1780  0.5738
   14bbb     O1  405  11.349  10.657   6.742 -0.5201  0.5832  0.3912
   15bbb     N1  406  12.498  13.311   6.264  0.5650 -0.4815 -0.4966
   15bbb     C1  407  12.439  13.198   6.186  0.1812  0.3254 -0.2543
   15bbb     H1  408  12.507  13.119   6.152 -0.0018  0.3941 -0.7977
   15bbb     H2  409  12.406  13.241   6.090  1.4905  1.1165 -0.3857
   15bbb     C2  410  12.424  13.440   6.271 -1.0157 -0.3980 -0.2505
   15bbb     H3  411  12.358  13.451   6.357  0.4429 -1.9665  1.1523
   15bbb     H4  412  12.358  13.459   6.186 -1.6703 -2.1673 -0.1738
   15bbb     C3  413  12.560  13.280   6.393  0.4783 -0.3295 -0.4986
   15bbb     H5  414  12.484  13.290   6.472  2.8638 -0.4443  1.9512
   15bbb     H6  415  12.636  13.358   6.406 -1.1800  0.9512  2.4655
   15bbb     C4  416  12.637  13.144   6.399  0.3369 -0.0642  0.5231
   15bbb     H7  417  12.702  13.140   6.310 -0.4072  1.5772 -0.1334
   15bbb     H8  418  12.569  13.060   6.381  0.8361 -0.4100  0.2055
   15bbb     C5  419  12.314  13.129   6.241  0.7171 -0.3842 -0.7072
   15bbb     H9  420  12.260  13.199   6.307  1.6606 -0.0371 -0.2883
   15bbb    H10  421  12.353  13.051   6.307  0.1589  0.7056  0.9816
   15bbb     C6  422  12.521  13.566   6.260  0.0797 -0.5400  0.6084
   15bbb    H11  423  12.588  13.566   6.347  0.6804  0.5920  0.1648
   15bbb    H12  424  12.455  13.654   6.253 -1.2959 -1.4806  1.1688
   15bbb     C7  425  12.716  13.130   6.532  0.3437 -0.1412  0.8814
   15bbb    H13  426  12.639  13.128   6.610 -2.2283 -2.7802 -1.5093
   15bbb    H14  427  12.782  13.216   6.551  1.4693 -1.1913  1.8769
   15bbb     C8  428  12.601  13.560   6.118  0.2236  0.3162 -0.7645
   15bbb    H15  429  12.524  13.533   6.044 -0.8291  0.0061  0.4016
   15bbb    H16  430  12.680  13.486   6.135  0.1788  0.5152  0.3923
   15bbb     C9  431  12.219  13.061   6.137  0.3501  0.1754  0.0313
   15bbb    H17  432  12.183  13.131   6.060 -0.7738  0.3941  0.7281
   15bbb    H18  433  12.129  13.030   6.191 -0.7733  2.3594 -0.4436
   15bbb     O1  434  12.787  13.010   6.538  0.8281 -0.1364 -0.1404
   16bbb     N1  435  13.158  13.261   7.410  0.0831  0.1220 -0.1083
   16bbb     C1  436  13.285  13.272   7.483  0.2760 -0.1810 -0.5612
   16bbb     H1  437  13.270  13.321   7.580  1.4214  0.6855 -0.8060
   16bbb     H2  438  13.351  13.337   7.426 -1.4642  1.3402 -0.9465
   16bbb     C2  439  13.076  13.385   7.425  0.0480  0.2033 -0.2996
   16bbb     H3  440  13.009  13.402   7.340  1.3885  1.0952 -1.2226
   16bbb     H4  441  13.144  13.471   7.422 -0.5444  0.6891  0.0768
   16bbb     C3  442  13.178  13.212   7.267 -0.1220  0.1372  0.3440
   16bbb     H5  443  13.249  13.129   7.260  1.0269  0.9039  2.2470
   16bbb     H6  444  13.233  13.288   7.210 -0.7390  1.6898  1.7158
   16bbb     C4  445  13.046  13.177   7.193  0.7516 -0.0291  0.2347
   16bbb     H7  446  13.061  13.170   7.085  2.7814  0.2852  0.4676
   16bbb     H8  447  12.978  13.263   7.195  0.4835 -0.2354  0.1097
   16bbb     C5  448  13.354  13.140   7.515  0.5059  0.0467 -0.4743
   16bbb     H9  449  13.439  13.168   7.579  0.6227 -0.3244 -0.4659
   16bbb    H10  450  13.410  13.103   7.428  0.2738 -1.2449 -0.0964
   16bbb     C6  451  13.006  13.386   7.559 -0.3962  0.3643  0.3372
   16bbb    H11  452  12.952  13.481   7.562 -0.4207  0.3341  1.6886
   16bbb    H12  453  13.077  13.390   7.643  1.8889 -1.1972 -1.4179
   16bbb     C7  454  12.982  13.049   7.255  0.2533 -0.1520  0.3754
   16bbb    H13  455  12.902  13.072   7.325 -1.3806 -2.9875 -0.4045
   16bbb    H14  456  13.059  12.997   7.313  0.9161 -1.1465 -1.3197
   16bbb     C8  457  12.902  13.276   7.583 -0.2506 -0.0137  0.5967
   16bbb    H15  458  12.959  13.182   7.581 -0.3760 -0.0800 -0.2151
   16bbb    H16  459  12.838  13.261   7.495  2.7773 -1.4861 -1.5245
   16bbb     C9  460  13.260  13.026   7.570  0.0140  0.4920  0.3773
   16bbb    H17  461  13.163  13.067   7.601 -0.8321 -0.2624 -1.1659
   16bbb    H18  462  13.315  12.971   7.647  0.2646 -1.7267 -1.3061
   16bbb     O1  463  12.917  12.968   7.152 -0.0969  0.2072 -0.3210
   17bbb     N1  464  11.079  12.788   6.828 -0.0949  0.1742  0.3927
   17bbb     C1  465  11.070  12.853   6.693  0.4070  0.7291 -0.6975
   17bbb     H1  466  10.963  12.873   6.680  0.2523 -1.0125 -2.4216
   17bbb     H2  467  11.104  12.788   6.612  0.5182 -0.6099  0.4028
   17bbb     C2  468  10.979  12.673   6.843  0.4622  0.0417  0.1553
   17bbb     H3  469  11.009  12.591   6.777  1.7084  0.8678 -0.3545
   17bbb     H4  470  10.883  12.706   6.802 -0.1098 -2.0066 -0.2561
   17bbb     C3  471  11.214  12.767   6.894 -0.2531  0.3617  0.0971
   17bbb     H5  472  11.215  12.737   6.999  0.8456  0.4270  0.1172
   17bbb     H6  473  11.260  12.866   6.885  0.3622 -0.0103 -1.0619
   17bbb     C4  474  11.306  12.666   6.817  0.6734  0.0054  0.0343
   17bbb     H7  475  11.277  12.664   6.711 -2.0796  3.3266  0.5770
   17bbb     H8  476  11.284  12.565   6.853  1.1129  0.3468  1.3041
   17bbb     C5  477  11.148  12.986   6.693  0.1813 -0.4789 -0.6736
   17bbb     H9  478  11.251  12.976   6.657  0.4403 -1.8851  0.3901
   17bbb    H10  479  11.155  13.021   6.797 -0.0099  2.1782 -1.4630
   17bbb     C6  480  10.963  12.634   6.994  0.1865  0.4680 -0.4617
   17bbb    H11  481  10.971  12.723   7.056  1.3101 -1.1457  1.8514
   17bbb    H12  482  11.041  12.565   7.028  0.6815  0.9116 -0.6870
   17bbb     C7  483  11.462  12.679   6.823  0.6841  0.2309  1.3211
   17bbb    H13  484  11.484  12.772   6.769  0.5782  0.3640  1.5068
   17bbb    H14  485  11.518  12.598   6.776 -2.7404 -1.7797  0.3993
   17bbb     C8  486  10.828  12.560   7.012 -0.1491 -0.7487 -0.3411
   17bbb    H15  487  10.739  12.609   6.970 -0.9423 -1.2162  0.7601
   17bbb    H16  488  10.801  12.567   7.118  1.3078 -0.5485  0.0268
   17bbb     C9  489  11.077  13.088   6.599 -0.1420 -0.5028  1.1078
   17bbb    H17  490  11.107  13.191   6.619  1.6944 -0.2838 -2.0811
   17bbb    H18  491  10.972  13.087   6.631 -0.2223 -0.9823  0.8400
   17bbb     O1  492  11.509  12.689   6.959  1.1119 -0.4046  0.2325
   18bbb     N1  493  11.369  13.171   7.883  0.6908 -0.0967  0.2060
   18bbb     C1  494  11.321  13.281   7.968  0.1941 -0.0145 -0.0177
   18bbb     H1  495  11.302  13.373   7.911  0.2880  1.6941  2.5381
   18bbb     H2  496  11.401  13.304   8.040 -0.1275  3.1060 -0.5044
   18bbb     C2  497  11.397  13.051   7.960  0.8087 -0.4561  0.0892
   18bbb     H3  498  11.306  13.002   7.997 -1.6516  1.6781 -2.6257
   18bbb     H4  499  11.459  13.073   8.047  1.3452 -0.5853 -0.2532
   18bbb     C3  500  11.291  13.147   7.756 -0.4128 -0.7761  0.3532
   18bbb     H5  501  11.185  13.126   7.777 -1.3735  1.7280 -1.5051
   18bbb     H6  502  11.339  13.064   7.702  0.0072  0.2774 -0.9553
   18bbb     C4  503  11.287  13.269   7.652  0.1162  0.4520  0.0152
   18bbb     H7  504  11.276  13.363   7.707 -0.3888 -0.9133  2.4388
   18bbb     H8  505  11.201  13.256   7.584  0.4419  0.9390 -0.4865
   18bbb     C5  506  11.204  13.244   8.058  0.3436 -0.1902  0.0873
   18bbb     H9  507  11.235  13.167   8.129 -0.7151  0.3927  1.2270
   18bbb    H10  508  11.132  13.186   8.000  2.4535 -2.0937 -0.7616
   18bbb     C6  509  11.482  12.948   7.884 -0.0129  0.4285  0.3362
   18bbb    H11  510  11.565  12.997   7.831 -1.3191  0.3855 -1.8754
   18bbb    H12  511  11.418  12.903   7.807  1.2740  0.1966 -0.6472
   18bbb     C7  512  11.420  13.288   7.580 -0.1735 -0.2623  0.6465
   18bbb    H13  513  11.500  13.304   7.653 -0.4934  1.0713  0.7269
   18bbb    H14  514  11.418  13.368   7.505  0.5276 -0.9031 -0.0753
   18bbb     C8  515  11.532  12.829   7.970 -0.3307  0.1270 -1.2659
   18bbb    H15  516  11.452  12.759   7.996 -0.1085 -1.6414 -4.7713
   18bbb    H16  517  11.572  12.850   8.070 -1.8086  0.4233 -0.7090
   18bbb     C9  518  11.147  13.374   8.128 -0.4515  0.2367  0.7694
   18bbb    H17  519  11.224  13.417   8.192  0.4171 -1.4880  0.9487
   18bbb    H18  520  11.073  13.347   8.204  0.2294 -1.2735  0.9461
   18bbb     O1  521  11.439  13.166   7.506 -0.3430  0.3058  0.0695
   19bbb     N1  522  12.690  11.164   6.215  0.2113  0.5108  0.3712
   19bbb     C1  523  12.546  11.217   6.213  0.3369  1.3688 -0.3644
   19bbb     H1  524  12.494  11.181   6.303  0.9192  0.7054 -0.2906
   19bbb     H2  525  12.490  11.180   6.126 -0.1127  0.9909  0.0767
   19bbb     C2  526  12.685  11.033   6.147  0.3012  0.4852 -0.3585
   19bbb     H3  527  12.785  10.996   6.124 -0.0861 -0.2234 -0.9629
   19bbb     H4  528  12.639  11.036   6.047  1.7400 -2.1105 -1.2134
   19bbb     C3  529  12.761  11.176   6.348  0.4851 -0.2302  1.3087
   19bbb     H5  530  12.706  11.098   6.401 -3.5714  0.1626 -1.7983
   19bbb     H6  531  12.746  11.278   6.385 -0.6814  0.3179 -0.5575
   19bbb     C4  532  12.905  11.136   6.337 -0.5345  0.0688 -0.6809
   19bbb     H7  533  12.950  11.208   6.268 -1.6880  1.6193  0.1386
   19bbb     H8  534  12.926  11.035   6.299  0.2352  0.8127 -2.3167
   19bbb     C5  535  12.542  11.371   6.209  0.2461  0.7381 -0.5538
   19bbb     H9  536  12.617  11.404   6.137  3.0333  1.6758  2.5459
   19bbb    H10  537  12.578  11.416   6.303  1.4783  1.6613 -1.4359
   19bbb     C6  538  12.609  10.918   6.228  0.3038  0.2654 -0.5052
   19bbb    H11  539  12.538  10.962   6.299  0.1649 -0.6535 -0.0586
   19bbb    H12  540  12.676  10.867   6.298 -1.0635 -0.5908  0.2248
   19bbb     C7  541  12.974  11.146   6.475 -0.9279 -0.0061 -0.7142
   19bbb    H13  542  12.989  11.251   6.502 -1.1530  0.1495 -1.1852
   19bbb    H14  543  13.075  11.105   6.484 -0.7933  0.4186 -0.2289
   19bbb     C8  544  12.548  10.802   6.131 -0.0350  0.7511  0.2644
   19bbb    H15  545  12.460  10.832   6.073  0.4142  0.2525 -0.7054
   19bbb    H16  546  12.505  10.719   6.188 -1.2437  0.7499 -0.6047
   19bbb     C9  547  12.390  11.427   6.186 -0.0551 -0.1969 -0.1670
   19bbb    H17  548  12.386  11.534   6.210 -0.4256 -0.5223  1.3968
   19bbb    H18  549  12.324  11.379   6.259 -0.2247 -0.8467 -0.7364
   19bbb     O1  550  12.893  11.085   6.584 -0.1477  0.1434 -0.2836
   20bbb     N1  551  12.200  10.387   6.903  0.1567  0.8458  0.5680
   20bbb     C1  552  12.073  10.449   6.949  0.1864  0.5394  0.5940
   20bbb     H1  553  12.062  10.449   7.059  2.9233 -1.2086  0.9708
   20bbb     H2  554  11.988  10.393   6.908 -0.5173  0.0003  2.6339
   20bbb     C2  555  12.195  10.242   6.904 -0.3380  0.3223  0.0654
   20bbb     H3  556  12.145  10.217   6.999 -1.0803  1.0057 -0.1354
   20bbb     H4  557  12.296  10.200   6.906 -0.8183 -0.9215 -0.3202
   20bbb     C3  558  12.322  10.439   6.962  0.4042 -0.0704 -0.3504
   20bbb     H5  559  12.326  10.544   6.933 -1.4826  0.3929  0.8733
   20bbb     H6  560  12.406  10.392   6.909  0.8417  0.8271 -0.4736
   20bbb     C4  561  12.350  10.420   7.111 -0.0960  0.1133 -0.0027
   20bbb     H7  562  12.322  10.319   7.143  1.5793 -0.9483 -1.6884
   20bbb     H8  563  12.287  10.479   7.178  1.0860  1.4140  0.0110
   20bbb     C5  564  12.063  10.596   6.899  0.5360  0.3837  1.1316
   20bbb     H9  565  12.070  10.603   6.790  2.5267 -0.9954  1.1120
   20bbb    H10  566  12.148  10.650   6.944  1.4367 -0.5791  0.6234
   20bbb     C6  567  12.115  10.181   6.781  0.6025  0.4696 -0.3875
   20bbb    H11  568  12.123  10.254   6.699  0.7492  2.1116  1.0260
   20bbb    H12  569  12.011  10.185   6.816  1.5326 -1.1511  2.9375
   20bbb     C7  570  12.497  10.464   7.139 -0.3527  0.1685 -0.6672
   20bbb    H13  571  12.567  10.404   7.079 -0.9200 -0.0139 -1.1550
   20bbb    H14  572  12.518  10.451   7.246 -0.1070 -1.8819 -0.9333
   20bbb     C8  573  12.153  10.036   6.744 -0.5811  0.1644  0.4839
   20bbb    H15  574  12.105  10.016   6.647 -0.5118  1.3170  0.2012
   20bbb    H16  575  12.122   9.962   6.819 -1.0703 -1.1962 -0.9879
   20bbb     C9  576  11.935  10.665   6.952 -0.4059 -0.1042 -0.8428
   20bbb    H17  577  11.947  10.771   6.925  3.9323 -0.8066 -2.6415
   20bbb    H18  578  11.932  10.658   7.061 -1.4408  0.6506 -0.8054
   20bbb     O1  579  12.522  10.604   7.103  0.2846  0.5442 -0.3020
   21bbb     N1  580  13.441  12.570   6.546  0.1849  0.4982  0.0729
   21bbb     C1  581  13.402  12.716   6.517 -0.3849  0.1262  0.1741
   21bbb     H1  582  13.404  12.777   6.608  1.4772 -0.9010  0.8700
   21bbb     H2  583  13.307  12.736   6.465 -0.6227 -1.8630 -0.2593
   21bbb     C2  584  13.565  12.564   6.625  0.1626  0.8100  0.3469
   21bbb     H3  585  13.531  12.574   6.728 -3.1117 -0.1262 -0.5188
   21bbb     H4  586  13.636  12.636   6.582 -0.3991  0.3552 -1.4354
   21bbb     C3  587  13.326  12.493   6.593  0.3242  0.4070 -0.3705
   21bbb     H5  588  13.366  12.397   6.627 -0.9402 -0.3043 -0.8129
   21bbb     H6  589  13.256  12.473   6.511  0.3183 -2.4354  0.2181
   21bbb     C4  590  13.254  12.542   6.724  0.0324 -0.5913 -0.0747
   21bbb     H7  591  13.170  12.609   6.700  0.6003  0.2795  0.3531
   21bbb     H8  592  13.317  12.586   6.802 -2.3807  1.7819  0.7013
   21bbb     C5  593  13.504  12.785   6.419 -0.7788  0.7486  0.6113
   21bbb     H9  594  13.498  12.707   6.341  0.7714 -0.1753  1.3774
   21bbb    H10  595  13.608  12.779   6.454 -0.8387  0.0775  0.6874
   21bbb     C6  596  13.636  12.427   6.605  0.5487 -0.3814 -0.2899
   21bbb    H11  597  13.720  12.436   6.535  0.5749 -1.9633 -0.4990
   21bbb    H12  598  13.581  12.352   6.546  1.3473  0.7437 -2.5985
   21bbb     C7  599  13.183  12.424   6.788  0.3322  0.3120 -0.3495
   21bbb    H13  600  13.251  12.340   6.800  0.9973  0.8710 -0.1194
   21bbb    H14  601  13.104  12.394   6.718  1.9635 -2.7456 -1.0209
   21bbb     C8  602  13.696  12.372   6.734  0.6325  0.0960  0.4218
   21bbb    H15  603  13.767  12.452   6.758 -0.3756  0.6784  1.5412
   21bbb    H16  604  13.748  12.277   6.714  2.8868  1.3204  0.1222
   21bbb     C9  605  13.462  12.933   6.374 -0.0845  0.3860  0.0435
   21bbb    H17  606  13.543  12.958   6.304  0.3240  1.7263  0.9502
   21bbb    H18  607  13.471  13.008   6.453 -0.2169 -0.4916  0.9009
   21bbb     O1  608  13.133  12.462   6.922  0.1213  0.2573 -0.1424
   22bbb     N1  609  13.454  11.501   7.134 -0.1960 -0.1101 -0.0284
   22bbb     C1  610  13.605  11.475   7.136  0.0905 -0.7568  0.5403
   22bbb     H1  611  13.634  11.419   7.226  3.6261  1.9411  1.3346
   22bbb     H2  612  13.659  11.568   7.157  0.9372 -1.4646  1.6939
   22bbb     C2  613  13.378  11.393   7.191  0.6242  0.7516  0.0605
   22bbb     H3  614  13.414  11.300   7.144  0.9197 -0.0158  1.7372
   22bbb     H4  615  13.273  11.409   7.165  1.0460  0.0608 -2.3504
   22bbb     C3  616  13.416  11.635   7.171  0.1790  0.1512  0.0493
   22bbb     H5  617  13.451  11.655   7.273  2.3584 -1.6731 -0.2500
   22bbb     H6  618  13.307  11.641   7.174  0.1596 -0.4776  1.9249
   22bbb     C4  619  13.448  11.750   7.071  0.5100  0.3265  0.0105
   22bbb     H7  620  13.403  11.736   6.973 -0.0995  1.8623  0.0371
   22bbb     H8  621  13.554  11.728   7.052  0.6305 -0.4951  1.4819
   22bbb     C5  622  13.651  11.412   7.004  0.0375  0.0689  0.5017
   22bbb     H9  623  13.620  11.471   6.917 -0.2141  0.6143  0.9523
   22bbb    H10  624  13.598  11.316   6.998 -1.7279  0.9824  0.8153
   22bbb     C6  625  13.389  11.379   7.343  0.4947 -0.4264 -0.3899
   22bbb    H11  626  13.344  11.469   7.387  0.2256  0.3298 -2.1323
   22bbb    H12  627  13.489  11.385   7.387  0.5482 -1.6694 -0.3089
   22bbb     C7  628  13.419  11.894   7.125 -0.3868 -0.2152  0.1346
   22bbb    H13  629  13.486  11.959   7.066  0.3856 -0.0659  1.1496
   22bbb    H14  630  13.440  11.913   7.231 -0.0913  0.9003 -0.1109
   22bbb     C8  631  13.326  11.247   7.398 -0.6480 -0.4193  0.3500
   22bbb    H15  632  13.395  11.166   7.371  0.8025 -0.0947  2.7715
   22bbb    H16  633  13.224  11.235   7.358 -0.9908 -0.5806  1.2480
   22bbb     C9  634  13.803  11.386   6.994 -0.5129 -0.7702 -0.1272
   22bbb    H17  635  13.851  11.469   6.940  1.3326 -1.7461 -0.0781
   22bbb    H18  636  13.824  11.292   6.940 -2.0295  0.1463 -2.4854
   22bbb     O1  637  13.282  11.913   7.098  0.4242 -0.2275  0.0584
   23bbb     N1  638  11.465  12.031   5.664 -0.6797 -0.4315  0.2687
   23bbb     C1  639  11.599  11.966   5.664  0.2939  0.1049 -0.0908
   23bbb     H1  640  11.579  11.859   5.681  1.9132 -0.1842  0.1694
   23bbb     H2  641  11.658  11.992   5.752  0.5606 -1.6052  0.2754
   23bbb     C2  642  11.351  11.990   5.589 -0.1015 -0.4334  0.1047
   23bbb     H3  643  11.359  12.042   5.492  0.5276  0.7419  0.7740
   23bbb     H4  644  11.256  12.022   5.633 -0.8207 -0.0687 -1.5983
   23bbb     C3  645  11.464  12.183   5.669  0.6261 -0.5823 -0.5100
   23bbb     H5  646  11.361  12.211   5.694  0.6741 -0.1388 -0.7950
   23bbb     H6  647  11.495  12.228   5.574  1.2052  3.1099  1.2464
   23bbb     C4  648  11.568  12.243   5.765  0.0649 -0.0785 -0.3040
   23bbb     H7  649  11.671  12.232   5.731  0.6622  1.3622  0.9336
   23bbb     H8  650  11.563  12.192   5.862 -0.9093 -0.8701 -0.7507
   23bbb     C5  651  11.693  11.977   5.537  1.3706  0.3644  0.1531
   23bbb     H9  652  11.732  12.079   5.524  1.3152  0.2591 -1.0320
   23bbb    H10  653  11.630  11.971   5.446 -1.4391  2.0092  1.8404
   23bbb     C6  654  11.345  11.838   5.557  0.7241 -0.7755 -0.8434
   23bbb    H11  655  11.353  11.783   5.652  0.3920 -0.5149 -0.6645
   23bbb    H12  656  11.429  11.814   5.491  2.1344  3.9148 -1.1633
   23bbb     C7  657  11.549  12.405   5.785 -0.1534 -0.5745  0.2038
   23bbb    H13  658  11.569  12.458   5.692 -0.9628 -0.9068 -0.1670
   23bbb    H14  659  11.624  12.438   5.858 -1.2128 -0.3497  1.2253
   23bbb     C8  660  11.221  11.792   5.488  0.4101  0.6084  0.8372
   23bbb    H15  661  11.138  11.830   5.549 -1.6219 -2.3191  0.1210
   23bbb    H16  662  11.221  11.682   5.492  1.6682  0.6093  1.2665
   23bbb     C9  663  11.817  11.884   5.519 -0.4736  0.1166 -0.8293
   23bbb    H17  664  11.890  11.909   5.597 -0.5100 -0.6979 -0.5259
   23bbb    H18  665  11.867  11.900   5.422  1.0225  0.0894 -0.0973
   23bbb     O1  666  11.422  12.449   5.837 -0.3670 -0.0839 -0.3845
   24bbb     N1  667  11.509  13.276   6.049 -0.4369  0.0555 -0.3441
   24bbb     C1  668  11.432  13.382   5.985  0.5764 -0.7344  0.0003
   24bbb     H1  669  11.505  13.452   5.944  1.7966 -2.5611 -1.0651
   24bbb     H2  670  11.369  13.433   6.060  1.9315  0.0454  0.6330
   24bbb     C2  671  11.614  13.326   6.142 -0.7802  0.2948 -0.3319
   24bbb     H3  672  11.687  13.392   6.094  2.4077  0.0152  3.6388
   24bbb     H4  673  11.682  13.247   6.176 -0.7521  1.3825  2.3568
   24bbb     C3  674  11.404  13.181   6.106 -0.1354 -0.5615  0.0518
   24bbb     H5  675  11.347  13.129   6.027 -0.3866  1.1242 -0.9357
   24bbb     H6  676  11.331  13.240   6.163 -0.7615 -0.4646 -0.8208
   24bbb     C4  677  11.463  13.065   6.189  0.2255 -0.0240 -0.7838
   24bbb     H7  678  11.503  13.097   6.286 -0.7048 -5.0809  1.5995
   24bbb     H8  679  11.545  13.006   6.147  0.0839  1.0154 -2.5952
   24bbb     C5  680  11.346  13.348   5.859  0.9084 -0.8314  0.7342
   24bbb     H9  681  11.286  13.259   5.878 -0.5968 -0.1345 -0.4755
   24bbb    H10  682  11.408  13.315   5.775 -3.3128 -0.7623 -2.8061
   24bbb     C6  683  11.574  13.395   6.276 -0.4842 -0.2915  0.0851
   24bbb    H11  684  11.648  13.383   6.356 -0.3264 -0.0122 -0.0186
   24bbb    H12  685  11.476  13.362   6.313 -0.3800  0.4763  1.1023
   24bbb     C7  686  11.347  12.969   6.233  0.4412  0.1373  0.4470
   24bbb    H13  687  11.275  12.959   6.151 -0.0765  0.8912  0.7968
   24bbb    H14  688  11.298  13.024   6.314  2.7542  2.5560  0.2998
   24bbb     C8  689  11.561  13.549   6.256  0.3812 -0.0277 -0.2695
   24bbb    H15  690  11.478  13.574   6.190  0.8057  2.1187 -0.0597
   24bbb    H16  691  11.652  13.587   6.208 -0.5841  0.7002 -1.5503
   24bbb     C9  692  11.257  13.465   5.813  0.1742 -0.2429  0.2703
   24bbb    H17  693  11.306  13.559   5.842  0.0519 -0.5786  1.6382
   24bbb    H18  694  11.162  13.467   5.868  0.5973  1.3380  0.9940
   24bbb     O1  695  11.405  12.847   6.271 -0.1736 -0.3677  0.1115
   25bbb     N1  696   9.950  12.086   7.879  0.1550  0.2380 -0.2861
   25bbb     C1  697  10.063  11.995   7.895  0.3549  0.0482 -0.3680
   25bbb     H1  698  10.108  11.986   7.795  0.5776  3.0539 -0.6367
   25bbb     H2  699  10.032  11.895   7.928 -2.5529  0.8991 -0.1766
   25bbb     C2  700   9.818  12.012   7.851 -0.0419  1.3649 -0.4265
   25bbb     H3  701   9.726  12.071   7.859 -0.3121  0.8754  0.1538
   25bbb     H4  702   9.805  11.942   7.935 -1.1344  3.3473  1.1480
   25bbb     C3  703   9.977  12.212   7.811  0.3159 -0.0604 -0.8279
   25bbb     H5  704  10.030  12.186   7.719  0.9745  0.4693 -0.6044
   25bbb     H6  705  10.054  12.267   7.866  1.2664 -1.3565 -0.8313
   25bbb     C4  706   9.856  12.306   7.781  0.4728 -0.0329  0.2305
   25bbb     H7  707   9.808  12.331   7.876  0.0414  0.9682 -0.2346
   25bbb     H8  708   9.779  12.250   7.726  0.4982  0.8238 -0.7076
   25bbb     C5  709  10.162  12.046   7.992 -0.1588  0.4355  0.1356
   25bbb     H9  710  10.126  12.040   8.096 -0.1066  2.7644  0.3286
   25bbb    H10  711  10.173  12.155   7.982 -0.9498  0.5704  0.6862
   25bbb     C6  712   9.826  11.921   7.723 -0.3226 -0.9439  0.2782
   25bbb    H11  713   9.903  11.843   7.725 -3.2340 -4.1206 -0.9943
   25bbb    H12  714   9.858  11.984   7.639 -2.0485 -0.0262  0.2582
   25bbb     C7  715   9.897  12.433   7.704 -0.9682  0.3468  0.4627
   25bbb    H13  716   9.975  12.485   7.760  0.0179  0.6602 -1.1274
   25bbb    H14  717   9.812  12.496   7.675  0.0351  0.8956 -1.4753
   25bbb     C8  718   9.700  11.840   7.694 -0.0670 -0.6097  0.2711
   25bbb    H15  719   9.617  11.908   7.669  0.6044 -0.2845 -1.1991
   25bbb    H16  720   9.670  11.774   7.776  0.7357 -0.3007  0.8161
   25bbb     C9  721  10.300  11.960   7.982 -0.5313 -0.1045 -0.0990
   25bbb    H17  722  10.274  11.855   7.966  0.3177 -0.1336 -1.5007
   25bbb    H18  723  10.345  11.965   8.082  0.2351  1.1846 -0.4723
   25bbb     O1  724   9.954  12.386   7.575 -0.1598  0.2344  0.6126
   26bbb     N1  725  10.757  13.140   6.956  0.4716  0.3843 -0.4545
   26bbb     C1  726  10.726  13.199   6.825 -0.2572 -0.6480  0.6231
   26bbb     H1  727  10.618  13.205   6.807 -0.1383 -0.3383 -0.0316
   26bbb     H2  728  10.773  13.146   6.741 -0.7966 -0.6906  0.3472
   26bbb     C2  729  10.896  13.100   6.982  0.1395 -0.0602 -0.1182
   26bbb     H3  730  10.962  13.185   6.958 -0.7544  0.8258  0.4845
   26bbb     H4  731  10.910  13.009   6.922  0.5978  0.3201 -0.6024
   26bbb     C3  732  10.654  13.039   6.988  0.4390  0.6837  0.2834
   26bbb     H5  733  10.558  13.075   6.950  1.2371  0.9195 -1.6015
   26bbb     H6  734  10.648  13.017   7.095  1.4209 -0.2870  0.1643
   26bbb     C4  735  10.673  12.900   6.922 -0.1647  0.0664  0.0688
   26bbb     H7  736  10.751  12.840   6.969 -0.2916  0.5817  0.9510
   26bbb     H8  737  10.706  12.921   6.819  1.6895 -1.7765  0.2139
   26bbb     C5  738  10.773  13.349   6.811 -0.8082 -0.3141  0.5011
   26bbb     H9  739  10.882  13.341   6.795 -1.0157  0.6148 -1.8941
   26bbb    H10  740  10.752  13.416   6.895  0.7010  0.2536  0.4617
   26bbb     C6  741  10.933  13.054   7.130 -0.1718 -0.1248  0.2176
   26bbb    H11  742  10.863  12.973   7.155 -0.6904 -0.1051 -1.0479
   26bbb    H12  743  10.900  13.138   7.192 -1.8652  0.6328 -1.5757
   26bbb     C7  744  10.552  12.808   6.910 -0.0200 -0.4871  0.3229
   26bbb    H13  745  10.563  12.734   6.830  0.8110 -1.0627  0.9496
   26bbb    H14  746  10.456  12.858   6.891 -1.2344 -2.3627  1.2221
   26bbb     C8  747  11.084  13.020   7.144 -0.2687  0.0210 -0.0866
   26bbb    H15  748  11.152  13.106   7.147 -0.3595  0.1302 -0.8785
   26bbb    H16  749  11.103  12.947   7.064  0.7060 -0.3887  0.5083
   26bbb     C9  750  10.721  13.421   6.686  0.7080  0.3265 -0.0596
   26bbb    H17  751  10.741  13.528   6.695  0.5688  0.6196 -2.5790
   26bbb    H18  752  10.614  13.397   6.683  0.7127  0.1215  0.8660
   26bbb     O1  753  10.546  12.735   7.028 -0.4870 -0.1760  0.4335
   27bbb     N1  754  12.294  10.668   6.502  0.8608 -0.6325  0.2746
   27bbb     C1  755  12.314  10.558   6.598  0.0487 -0.9824 -0.2781
   27bbb     H1  756  12.220  10.503   6.612 -1.3397  1.4101  0.3040
   27bbb     H2  757  12.343  10.601   6.695  1.5471  1.2287 -1.6144
   27bbb     C2  758  12.239  10.618   6.374  0.0573 -0.1965  0.6934
   27bbb     H3  759  12.146  10.561   6.384 -0.2343  0.3947  1.3879
   27bbb     H4  760  12.319  10.556   6.330 -0.9284  0.1327 -1.7012
   27bbb     C3  761  12.207  10.775   6.558 -0.1187  0.0762  0.7289
   27bbb     H5  762  12.116  10.732   6.600  0.4889  1.0653  3.2734
   27bbb     H6  763  12.188  10.853   6.483  1.2252 -1.0944 -0.9086
   27bbb     C4  764  12.284  10.851   6.676 -0.1853  0.8486  0.5528
   27bbb     H7  765  12.388  10.866   6.645 -0.7182  2.0060 -0.7919
   27bbb     H8  766  12.276  10.799   6.772 -2.9707  1.6771  0.8693
   27bbb     C5  767  12.438  10.469   6.580 -0.1138 -0.1882  0.6234
   27bbb     H9  768  12.445  10.419   6.483  1.2094  1.1280  0.0102
   27bbb    H10  769  12.422  10.384   6.648 -1.6648 -1.3563 -1.0912
   27bbb     C6  770  12.216  10.727   6.268  0.0922 -0.6099 -0.0907
   27bbb    H11  771  12.303  10.793   6.273 -0.2024 -0.0328 -1.9083
   27bbb    H12  772  12.119  10.770   6.295 -0.5572 -1.8934 -0.2857
   27bbb     C7  773  12.222  10.986   6.690  0.4342  0.0606  0.5413
   27bbb    H13  774  12.275  11.038   6.771  2.3106  0.1197 -0.6499
   27bbb    H14  775  12.117  10.964   6.712  0.2107  0.2380 -0.3187
   27bbb     C8  776  12.194  10.674   6.121 -0.3571 -0.4761 -0.2760
   27bbb    H15  777  12.277  10.607   6.098  1.3116  1.3124  0.2421
   27bbb    H16  778  12.214  10.762   6.058  1.2261 -2.2647 -2.4278
   27bbb     C9  779  12.574  10.545   6.613  0.1802  0.0491 -0.1564
   27bbb    H17  780  12.564  10.585   6.714 -2.1329  1.1557 -0.7712
   27bbb    H18  781  12.591  10.627   6.542  3.4786 -0.5746 -0.2692
   27bbb     O1  782  12.239  11.063   6.568 -0.0453  0.6945 -0.2001
   28bbb     N1  783  12.206  10.672   5.552  0.2969  0.2787 -0.1167
   28bbb     C1  784  12.276  10.695   5.420 -0.1952  0.4364 -0.4745
   28bbb     H1  785  12.264  10.600   5.367 -1.1319 -0.1906  0.8128
   28bbb     H2  786  12.383  10.712   5.437 -0.0356 -0.2750 -0.7736
   28bbb     C2  787  12.078  10.605   5.541  0.0124 -0.4806  0.5784
   28bbb     H3  788  12.018  10.687   5.499  0.3114 -0.1794  0.7317
   28bbb     H4  789  12.041  10.573   5.639 -2.2434 -0.3391 -0.1717
   28bbb     C3  790  12.197  10.794   5.639  0.8549  0.1174  0.6793
   28bbb     H5  791  12.131  10.779   5.725 -2.7257  0.1487 -1.8548
   28bbb     H6  792  12.152  10.876   5.581  2.7620  0.1619 -0.8804
   28bbb     C4  793  12.340  10.839   5.690  0.4380  0.8597  0.5869
   28bbb     H7  794  12.399  10.861   5.600  1.0795  1.2882  1.1036
   28bbb     H8  795  12.389  10.759   5.747  1.1457  1.4243  0.7834
   28bbb     C5  796  12.229  10.820   5.332  0.2081  0.5333 -0.1669
   28bbb     H9  797  12.257  10.918   5.374  0.7987  0.3274 -0.0789
   28bbb    H10  798  12.121  10.824   5.313  0.0265  2.8701  0.9501
   28bbb     C6  799  12.064  10.482   5.455  0.2718  0.1979 -0.1757
   28bbb    H11  800  12.129  10.397   5.477 -1.5217 -1.4200 -0.8326
   28bbb    H12  801  12.076  10.495   5.347  1.2241 -3.2290 -0.5965
   28bbb     C7  802  12.338  10.966   5.777 -0.5125 -0.6396 -0.1461
   28bbb    H13  803  12.301  11.049   5.716  0.7272 -0.6589 -0.9673
   28bbb    H14  804  12.440  10.978   5.817 -1.1840  0.9324  1.2015
   28bbb     C8  805  11.914  10.440   5.465  0.6901  0.0169 -0.4986
   28bbb    H15  806  11.891  10.399   5.564  0.7857 -1.8517 -1.2081
   28bbb    H16  807  11.887  10.359   5.396 -1.8880  0.8966 -0.6320
   28bbb     C9  808  12.308  10.799   5.192 -0.5525  0.4875 -0.2473
   28bbb    H17  809  12.284  10.884   5.127  0.5551  0.3172 -0.9105
   28bbb    H18  810  12.417  10.788   5.204 -1.0351 -4.3123  2.5300
   28bbb     O1  811  12.241  10.943   5.882  0.4339 -0.1602  0.1111
   29bbb     N1  812  10.811  10.656   7.565 -0.0794 -0.8279  0.1394
   29bbb     C1  813  10.883  10.653   7.693  0.1031  0.8349  0.0670
   29bbb     H1  814  10.887  10.756   7.731  1.3386  0.3854  1.2390
   29bbb     H2  815  10.987  10.621   7.682 -0.4267 -0.6879 -0.8302
   29bbb     C2  816  10.681  10.726   7.553  0.0785 -0.1720  0.6670
   29bbb     H3  817  10.610  10.686   7.627  0.0770  2.0966  2.0026
   29bbb     H4  818  10.632  10.705   7.457 -3.0333 -1.0042  2.3007
   29bbb     C3  819  10.807  10.535   7.481 -0.5064  0.0633 -0.1366
   29bbb     H5  820  10.747  10.550   7.390  0.4433  1.6352 -0.5201
   29bbb     H6  821  10.754  10.451   7.529 -0.5153  0.9121  1.3921
   29bbb     C4  822  10.955  10.491   7.439 -0.0541  0.0943  0.5560
   29bbb     H7  823  11.011  10.431   7.512  0.7497 -0.1344 -0.2361
   29bbb     H8  824  11.008  10.587   7.436 -1.4897  0.9202  0.6040
   29bbb     C5  825  10.806  10.558   7.790  0.2977  0.5005  0.4970
   29bbb     H9  826  10.791  10.461   7.741  2.6642 -0.5369  1.7266
   29bbb    H10  827  10.708  10.606   7.804  0.4491  1.4631 -1.4466
   29bbb     C6  828  10.687  10.876   7.561 -0.9592  0.0415 -0.0228
   29bbb    H11  829  10.733  10.908   7.655 -0.1345 -1.9094  0.2931
   29bbb    H12  830  10.588  10.923   7.567 -1.1965 -0.4042 -0.4286
   29bbb     C7  831  10.945  10.412   7.310  0.1818 -0.3596 -0.5768
   29bbb    H13  832  10.907  10.482   7.235  0.2263 -0.5471 -0.7750
   29bbb    H14  833  10.875  10.329   7.322  0.0988 -0.0698  1.2103
   29bbb     C8  834  10.750  10.941   7.434  0.4795 -0.0935 -0.2660
   29bbb    H15  835  10.698  10.917   7.341  2.7462 -2.0806 -1.1393
   29bbb    H16  836  10.856  10.916   7.416  1.1435  1.8310  0.6466
   29bbb     C9  837  10.899  10.547   7.908  0.2320  0.0766 -0.6087
   29bbb    H17  838  10.987  10.506   7.856  0.8252 -2.3903  2.1057
   29bbb    H18  839  10.872  10.472   7.983  1.0218  1.4426  1.0979
   29bbb     O1  840  11.068  10.358   7.266 -0.5284 -0.4175 -0.1094
   30bbb     N1  841  10.543  10.472   7.036  0.4889  0.3794 -0.0996
   30bbb     C1  842  10.529  10.452   7.180 -0.1408  0.1394  0.2529
   30bbb     H1  843  10.628  10.437   7.226  0.0916  1.0559  0.0699
   30bbb     H2  844  10.477  10.356   7.195 -1.6618  0.2062 -3.5477
   30bbb     C2  845  10.607  10.600   6.992  0.6046  0.7606 -0.2256
   30bbb     H3  846  10.540  10.680   7.024 -1.0233 -1.0042  0.9780
   30bbb     H4  847  10.600  10.614   6.883 -0.7431  0.7137 -0.1646
   30bbb     C3  848  10.587  10.344   6.971 -0.0171  0.1431 -0.4698
   30bbb     H5  849  10.527  10.258   7.004  1.3944 -0.8496 -0.3998
   30bbb     H6  850  10.692  10.331   7.001 -0.4154  0.5250  1.1911
   30bbb     C4  851  10.579  10.357   6.819  0.2604  1.1289 -0.3893
   30bbb     H7  852  10.629  10.448   6.784 -0.6857  1.5425 -0.6884
   30bbb     H8  853  10.474  10.366   6.791  0.2921 -1.3331 -1.6420
   30bbb     C5  854  10.457  10.562   7.256  0.9074 -0.5266  0.4754
   30bbb     H9  855  10.361  10.584   7.208  1.7249  2.3972  0.0270
   30bbb    H10  856  10.519  10.652   7.252 -0.0463  0.2194 -4.6564
   30bbb     C6  857  10.761  10.620   7.031  0.2576 -0.3043 -0.2144
   30bbb    H11  858  10.817  10.526   7.040  1.5159  0.4985  0.7563
   30bbb    H12  859  10.777  10.662   7.131 -0.4836  0.0906 -0.2582
   30bbb     C7  860  10.629  10.237   6.737  0.5638  0.0727  0.2099
   30bbb    H13  861  10.615  10.247   6.629 -0.5800 -0.2671  0.3118
   30bbb    H14  862  10.580  10.144   6.767 -2.0516  1.4023  0.3443
   30bbb     C8  863  10.842  10.708   6.926  0.5485  1.0134  0.4617
   30bbb    H15  864  10.940  10.726   6.972  0.0492 -0.7785  2.3956
   30bbb    H16  865  10.799  10.807   6.910  3.5669  1.9565 -3.0431
   30bbb     C9  866  10.436  10.531   7.410 -0.4429  0.2575  0.4000
   30bbb    H17  867  10.532  10.506   7.458  1.5065  2.7180 -1.8807
   30bbb    H18  868  10.371  10.444   7.425  0.0571 -0.2182 -0.1269
   30bbb     O1  869  10.769  10.232   6.768  1.0373 -0.0240  0.1878
   31bbb     N1  870  12.428  13.868   5.736 -0.0108 -0.1026 -0.1602
   31bbb     C1  871  12.343  13.989   5.772 -0.8757  0.2793  0.8919
   31bbb     H1  872  12.409  14.070   5.805 -0.0045 -0.5063  1.1018
   31bbb     H2  873  12.271  13.964   5.852 -0.4197 -1.3730  0.8154
   31bbb     C2  874  12.354  13.751   5.686  0.3348  0.0292 -0.8793
   31bbb     H3  875  12.430  13.676   5.658  1.2214  0.2000  0.9626
   31bbb     H4  876  12.302  13.784   5.595 -0.3752  1.3357 -0.0236
   31bbb     C3  877  12.518  13.835   5.855  0.4625 -0.3744  0.1931
   31bbb     H5  878  12.456  13.828   5.946  2.1798  0.7916  1.5414
   31bbb     H6  879  12.582  13.920   5.884  0.1309 -0.0892  0.0987
   31bbb     C4  880  12.607  13.713   5.840 -0.4228  0.6053 -0.5604
   31bbb     H7  881  12.663  13.721   5.746  1.7765 -0.8537  0.5091
   31bbb     H8  882  12.549  13.620   5.837  0.0230  0.0863  2.8597
   31bbb     C5  883  12.267  14.048   5.649 -0.1965 -0.4758 -0.0539
   31bbb     H9  884  12.203  13.971   5.605 -0.8196 -1.1694  1.9588
   31bbb    H10  885  12.348  14.057   5.575  3.5902 -1.7205  3.5732
   31bbb     C6  886  12.239  13.696   5.778 -0.6618  0.8277 -0.1213
   31bbb    H11  887  12.159  13.771   5.787 -2.2819 -0.6716 -1.4172
   31bbb    H12  888  12.291  13.671   5.871 -0.8588 -1.2425 -0.5161
   31bbb     C7  889  12.715  13.699   5.951  0.6572  0.4022 -0.1164
   31bbb    H13  890  12.786  13.783   5.952  0.5895  0.4663 -0.4290
   31bbb    H14  891  12.780  13.614   5.927  0.9112 -0.1758  2.3617
   31bbb     C8  892  12.161  13.562   5.744 -0.2755 -0.6829  0.8766
   31bbb    H15  893  12.068  13.560   5.803 -2.3309 -0.3955 -2.1019
   31bbb    H16  894  12.219  13.470   5.757 -1.0751 -1.1075  1.5031
   31bbb     C9  895  12.181  14.171   5.685 -0.1444  0.3533 -0.3001
   31bbb    H17  896  12.134  14.200   5.590  0.8690 -2.9983 -1.9765
   31bbb    H18  897  12.242  14.246   5.737 -0.3411 -0.5831  1.3342
   31bbb     O1  898  12.658  13.694   6.085 -0.0203 -0.1071  0.1242
   32bbb     N1  899  12.478  12.513   5.998 -0.5992  0.0805 -0.0477
   32bbb     C1  900  12.467  12.526   5.855 -0.2491 -0.4763  0.2689
   32bbb     H1  901  12.533  12.455   5.804  0.5833  0.3553  0.1581
   32bbb     H2  902  12.495  12.627   5.821 -0.9470 -0.5557 -0.5854
   32bbb     C2  903  12.485  12.373   6.049 -0.2951  0.4142  0.1158
   32bbb     H3  904  12.398  12.306   6.044 -0.1330  0.1752  0.4443
   32bbb     H4  905  12.497  12.374   6.158 -4.5576 -2.8265  0.9138
   32bbb     C3  906  12.388  12.602   6.079  0.0321 -0.7817  0.4337
   32bbb     H5  907  12.434  12.601   6.179 -0.3187  0.7854  0.6370
   32bbb     H6  908  12.285  12.565   6.086  0.7811 -3.5453 -1.4292
   32bbb     C4  909  12.389  12.749   6.035  0.1747  0.7734 -0.3180
   32bbb     H7  910  12.351  12.764   5.933  1.2205  1.1002 -0.6763
   32bbb     H8  911  12.493  12.785   6.031  0.4063  0.3421  1.2775
   32bbb     C5  912  12.325  12.515   5.804 -0.4690  0.4968  0.1153
   32bbb     H9  913  12.323  12.562   5.705 -0.0968  0.5386  0.1265
   32bbb    H10  914  12.263  12.576   5.870 -2.8698  0.1291 -1.6404
   32bbb     C6  915  12.607  12.296   5.997 -0.1982  0.0979  0.2398
   32bbb    H11  916  12.697  12.357   5.981  0.0155 -0.1388  0.5330
   32bbb    H12  917  12.569  12.253   5.903  1.8188  1.4114 -1.2703
   32bbb     C7  918  12.305  12.835   6.126  0.3839 -0.0405 -1.0389
   32bbb    H13  919  12.350  12.850   6.226  1.3502 -0.2030 -1.4359
   32bbb    H14  920  12.208  12.787   6.144 -0.4255  0.6768 -3.2341
   32bbb     C8  921  12.653  12.182   6.085  0.6674  0.2791  0.2350
   32bbb    H15  922  12.575  12.106   6.101 -1.7433  2.5155 -0.1687
   32bbb    H16  923  12.677  12.223   6.184 -1.2811 -2.6011  2.0601
   32bbb     C9  924  12.262  12.365   5.810  0.0772 -0.3184  0.4612
   32bbb    H17  925  12.227  12.332   5.908 -0.1777 -0.1029  0.4412
   32bbb    H18  926  12.352  12.302   5.798  0.3025  0.1958 -0.6727
   32bbb     O1  927  12.281  12.956   6.064 -0.2768 -0.5895 -0.2925
   33bbb     N1  928  12.398  13.391   7.750 -0.1061  0.1124 -0.3346
   33bbb     C1  929  12.309  13.505   7.732  0.3984 -0.2326 -0.0902
   33bbb     H1  930  12.373  13.591   7.709  0.6719 -0.7117 -1.1489
   33bbb     H2  931  12.252  13.517   7.825 -0.8445  2.2493 -1.0582
   33bbb     C2  932  12.330  13.263   7.770  0.0199 -0.3958 -0.0607
   33bbb     H3  933  12.222  13.277   7.762  0.1303 -0.6299 -3.4174
   33bbb     H4  934  12.351  13.221   7.869 -0.1613 -0.0324  0.1346
   33bbb     C3  935  12.510  13.427   7.841  0.0839 -0.3044 -0.5432
   33bbb     H5  936  12.471  13.430   7.944  0.5392 -1.7569 -0.3122
   33bbb     H6  937  12.553  13.525   7.815 -3.5368  1.6453  0.1526
   33bbb     C4  938  12.625  13.326   7.830 -0.2029 -0.1552  0.2425
   33bbb     H7  939  12.575  13.229   7.819 -3.6827  1.4469  0.5436
   33bbb     H8  940  12.679  13.333   7.925 -0.7240 -2.7727  0.8102
   33bbb     C5  941  12.216  13.485   7.619 -0.5235 -0.4169  0.1349
   33bbb     H9  942  12.134  13.417   7.645 -2.2562  1.9074  1.0726
   33bbb    H10  943  12.276  13.446   7.536 -0.3824  3.1613 -1.6698
   33bbb     C6  944  12.356  13.172   7.652 -0.1555  0.8869 -0.3168
   33bbb    H11  945  12.459  13.158   7.617 -0.9902 -3.4727 -1.6022
   33bbb    H12  946  12.300  13.199   7.562  0.6777  1.5248 -0.6576
   33bbb     C7  947  12.716  13.359   7.708  0.6030  0.4328  0.3366
   33bbb    H13  948  12.742  13.464   7.691 -0.3511  0.5718 -0.3713
   33bbb    H14  949  12.661  13.327   7.618  1.8386  0.3667 -0.4097
   33bbb     C8  950  12.309  13.034   7.703 -0.7709 -0.5269  0.5990
   33bbb    H15  951  12.296  12.961   7.622 -0.2854  0.8335 -0.7647
   33bbb    H16  952  12.208  13.033   7.745 -1.2920 -0.8530 -0.6028
   33bbb     C9  953  12.154  13.621   7.578 -0.4486  0.8516  0.2414
   33bbb    H17  954  12.093  13.616   7.487 -1.1262 -0.1263  0.7318
   33bbb    H18  955  12.233  13.692   7.548  1.4448 -1.4303 -0.4762
   33bbb     O1  956  12.839  13.285   7.719 -0.1454  0.1348 -0.0277
   34bbb     N1  957  13.190  12.455   7.606  0.2738  0.1747  0.2198
   34bbb     C1  958  13.325  12.405   7.561  0.3775 -0.1032 -1.1417
   34bbb     H1  959  13.410  12.472   7.574 -0.0231  0.3144 -0.6564
   34bbb     H2  960  13.318  12.390   7.452  2.5724  1.9127 -1.6420
   34bbb     C2  961  13.169  12.459   7.750 -0.4762 -0.3853  0.7408
   34bbb     H3  962  13.235  12.537   7.789 -1.1251  1.2749 -1.2962
   34bbb     H4  963  13.199  12.360   7.788  1.5489 -0.7126 -1.4246
   34bbb     C3  964  13.149  12.577   7.524  0.5371  0.3851  0.2276
   34bbb     H5  965  13.040  12.590   7.523  0.5842  0.8196  0.0689
   34bbb     H6  966  13.180  12.554   7.421  2.3283  1.4946  0.4638
   34bbb     C4  967  13.202  12.719   7.566 -0.0779  0.3500 -0.5599
   34bbb     H7  968  13.312  12.722   7.567  0.0415  0.4812  3.5850
   34bbb     H8  969  13.169  12.732   7.670 -1.1784 -1.9324 -0.5697
   34bbb     C5  970  13.370  12.259   7.624 -0.5581  0.1429  0.7134
   34bbb     H9  971  13.293  12.183   7.607 -0.5517  0.6384 -1.9480
   34bbb    H10  972  13.397  12.271   7.730 -2.2993  1.9318  1.0254
   34bbb     C6  973  13.022  12.476   7.774 -0.2519  0.3515 -0.0873
   34bbb    H11  974  12.955  12.423   7.704 -2.3786  1.6079  0.8907
   34bbb    H12  975  13.002  12.582   7.756 -1.2025 -0.1009 -1.9429
   34bbb     C7  976  13.141  12.826   7.481  0.3981 -0.4396 -1.0781
   34bbb    H13  977  13.046  12.853   7.529  0.7125 -0.6425 -0.3242
   34bbb    H14  978  13.122  12.788   7.380 -2.1648  0.1044 -0.8830
   34bbb     C8  979  12.982  12.441   7.922  0.0189 -0.8516  0.0305
   34bbb    H15  980  12.873  12.439   7.931  0.1792 -1.9990  2.6925
   34bbb    H16  981  13.010  12.514   7.998  0.4100  0.8801 -1.7011
   34bbb     C9  982  13.494  12.216   7.537  1.3190  0.5414  0.1617
   34bbb    H17  983  13.456  12.207   7.435  0.0695  1.7177  0.4918
   34bbb    H18  984  13.528  12.117   7.570  0.3393  0.0576 -0.2759
   34bbb     O1  985  13.227  12.938   7.462  0.7150 -0.0531  0.1327
   35bbb     N1  986  10.663  12.362   6.558 -0.2119 -0.0982  0.3396
   35bbb     C1  987  10.686  12.265   6.445  0.4777  0.0240 -0.1221
   35bbb     H1  988  10.791  12.265   6.412  0.7113  3.1212  0.2708
   35bbb     H2  989  10.619  12.293   6.363  1.3446 -2.2957 -1.7313
   35bbb     C2  990  10.666  12.505   6.515  1.2089  0.3863  0.2863
   35bbb     H3  991  10.598  12.567   6.576 -1.9006  0.8421 -3.2428
   35bbb     H4  992  10.616  12.510   6.417  0.5528  1.2643  0.6416
   35bbb     C3  993  10.722  12.331   6.688 -0.6022 -0.2903  0.2522
   35bbb     H5  994  10.822  12.376   6.694 -0.4135 -0.7169  0.3485
   35bbb     H6  995  10.741  12.223   6.695 -1.2599 -0.4986 -0.8986
   35bbb     C4  996  10.637  12.388   6.809  0.2735 -0.1045  0.6271
   35bbb     H7  997  10.537  12.344   6.801  0.7805 -1.0915 -0.7762
   35bbb     H8  998  10.616  12.495   6.799 -2.3827 -0.6538 -0.3976
   35bbb     C5  999  10.650  12.120   6.476  1.2894 -0.1253  0.2221
   35bbb     H9 1000  10.554  12.122   6.529  2.3313  0.9477  2.1677
   35bbb    H10 1001  10.718  12.069   6.545  0.9710 -0.7921  0.0458
   35bbb     C6 1002  10.804  12.577   6.506 -0.4358 -0.1933 -0.0216
   35bbb    H11 1003  10.872  12.525   6.438 -0.2140  0.5200 -0.3524
   35bbb    H12 1004  10.846  12.590   6.607  3.5954 -1.9003 -1.2927
   35bbb     C7 1005  10.706  12.356   6.944 -0.5311 -0.5035  0.8050
   35bbb    H13 1006  10.718  12.247   6.950  0.3705 -0.3843  1.3713
   35bbb    H14 1007  10.639  12.381   7.026 -0.2087 -0.8890  1.1878
   35bbb     C8 1008  10.794  12.716   6.439  0.1593  0.3388 -0.0847
   35bbb    H15 1009  10.735  12.717   6.347  0.5905 -1.2175 -0.4141
   35bbb    H16 1010  10.892  12.755   6.408 -1.1162  2.7278 -1.4052
   35bbb     C9 1011  10.630  12.028   6.354  0.2804 -0.4839 -0.1790
   35bbb    H17 1012  10.550  12.066   6.290 -0.3657 -2.9308 -0.9485
   35bbb    H18 1013  10.599  11.934   6.401 -0.5497 -0.0639  0.1469
   35bbb     O1 1014  10.828  12.430   6.957 -0.6128  0.2739 -0.0022
   36bbb     N1 1015  11.042  12.995   6.029  0.1907 -0.0874  0.6219
   36bbb     C1 1016  11.029  12.851   5.985  0.1262 -0.8338 -0.0812
   36bbb     H1 1017  11.061  12.794   6.073 -0.1728  1.0016  1.2699
   36bbb     H2 1018  11.091  12.827   5.898  0.9161 -0.5141  0.3811
   36bbb     C2 1019  10.993  13.103   5.943  0.6748 -0.6713  0.3999
   36bbb     H3 1020  11.050  13.187   5.983  1.1377  0.2951 -2.1160
   36bbb     H4 1021  10.888  13.134   5.945 -0.1679 -3.2426  0.2972
   36bbb     C3 1022  11.006  13.004   6.173  0.7260  0.2928  0.3609
   36bbb     H5 1023  11.047  12.924   6.235 -0.1003 -0.6123 -0.2439
   36bbb     H6 1024  10.896  13.002   6.177  0.6771  1.0271  4.3087
   36bbb     C4 1025  11.042  13.147   6.236 -0.6740 -0.0480  0.2651
   36bbb     H7 1026  10.991  13.231   6.189 -0.0342  1.5558  2.2760
   36bbb     H8 1027  11.150  13.162   6.226 -0.6619  0.6163  1.2737
   36bbb     C5 1028  10.883  12.805   5.961  0.8314 -0.0996 -0.9841
   36bbb     H9 1029  10.827  12.865   5.887  0.9380  0.7965 -0.3587
   36bbb    H10 1030  10.825  12.821   6.053  0.5510  0.4210 -1.2475
   36bbb     C6 1031  11.026  13.088   5.796 -0.1953  0.1479  0.0831
   36bbb    H11 1032  10.984  12.991   5.769 -2.3419  1.0328  0.0721
   36bbb    H12 1033  11.135  13.079   5.793 -0.1831  0.4521 -0.8564
   36bbb     C7 1034  11.002  13.157   6.387 -0.0664  0.7277 -0.0669
   36bbb    H13 1035  10.894  13.137   6.388  0.3545 -2.1803  2.3827
   36bbb    H14 1036  11.023  13.257   6.427 -1.6341  0.5419  1.3674
   36bbb     C8 1037  10.983  13.201   5.698 -0.4986  0.7485 -0.6499
   36bbb    H15 1038  11.009  13.169   5.596  1.2661 -0.2956  0.0833
   36bbb    H16 1039  11.042  13.289   5.725  0.0184  1.0880 -2.6799
   36bbb     C9 1040  10.874  12.659   5.918 -0.6888 -0.6919 -0.0347
   36bbb    H17 1041  10.939  12.606   5.988 -0.9258  0.1507  0.8422
   36bbb    H18 1042  10.770  12.625   5.921 -0.6918 -0.5860  2.3898
   36bbb     O1 1043  11.080  13.052   6.457  0.3495  0.0639  0.9961
   37bbb     N1 1044  11.992  12.545   7.934 -0.5100 -0.0928 -0.6296
   37bbb     C1 1045  11.976  12.437   8.035  0.3249 -0.0608  0.1531
   37bbb     H1 1046  11.997  12.347   7.977 -0.5013  0.2015 -0.5705
   37bbb     H2 1047  11.871  12.420   8.060  0.4757 -0.0460  0.8355
   37bbb     C2 1048  12.132  12.566   7.885  0.3548  0.3554  0.6103
   37bbb     H3 1049  12.201  12.600   7.963  2.1832 -1.7481 -0.0092
   37bbb     H4 1050  12.123  12.640   7.804 -0.4574  0.8367  1.1271
   37bbb     C3 1051  11.932  12.674   7.973 -0.5418  0.8886  0.3787
   37bbb     H5 1052  11.916  12.726   7.877 -0.3387  0.1536 -0.0670
   37bbb     H6 1053  12.006  12.726   8.035  1.0222  0.5484 -1.1298
   37bbb     C4 1054  11.802  12.678   8.055 -0.3247 -0.3321  0.2344
   37bbb     H7 1055  11.789  12.780   8.093  3.0024 -0.0336  0.8177
   37bbb     H8 1056  11.817  12.609   8.139  0.4747  0.1847  0.5296
   37bbb     C5 1057  12.067  12.455   8.161  0.4961 -0.1623 -0.2428
   37bbb     H9 1058  12.050  12.550   8.213  2.2045  0.4857 -0.8130
   37bbb    H10 1059  12.173  12.449   8.134  0.6116 -0.9725  0.3564
   37bbb     C6 1060  12.193  12.441   7.824  0.4381 -0.4797 -0.0884
   37bbb    H11 1061  12.128  12.395   7.749  1.5934  0.9081 -2.0458
   37bbb    H12 1062  12.211  12.369   7.905  0.0043  0.1791  0.6018
   37bbb     C7 1063  11.683  12.641   7.962 -0.0491 -0.1444  0.6041
   37bbb    H13 1064  11.602  12.588   8.014 -2.3140  3.2973  0.9120
   37bbb    H14 1065  11.711  12.573   7.881 -0.7127  0.3779 -0.0834
   37bbb     C8 1066  12.332  12.475   7.755 -0.2251 -0.1027  0.1078
   37bbb    H15 1067  12.335  12.565   7.692 -0.5458  0.6562  1.1531
   37bbb    H16 1068  12.366  12.386   7.700 -0.3106 -0.6613  0.9441
   37bbb     C9 1069  12.039  12.341   8.252 -0.0889 -0.0707  0.0544
   37bbb    H17 1070  12.126  12.318   8.315  1.2253 -0.2107 -1.7424
   37bbb    H18 1071  12.023  12.249   8.195 -0.5054  1.2210 -1.9872
   37bbb     O1 1072  11.634  12.754   7.898  0.1877  0.5001  0.6372
   38bbb     N1 1073  11.143  13.788   7.725  0.1752  0.3920 -0.5575
   38bbb     C1 1074  11.032  13.725   7.639  0.4256 -0.4214 -0.2388
   38bbb     H1 1075  10.934  13.710   7.685 -0.9681 -1.1469 -3.1944
   38bbb     H2 1076  11.060  13.620   7.622  0.9910 -0.3665  0.3239
   38bbb     C2 1077  11.271  13.824   7.665  0.1244 -0.0305 -0.2371
   38bbb     H3 1078  11.326  13.871   7.748 -0.7852  0.6983 -0.0381
   38bbb     H4 1079  11.254  13.903   7.591 -0.5214 -0.9222 -1.0675
   38bbb     C3 1080  11.162  13.709   7.851  0.1848  0.6691 -0.4434
   38bbb     H5 1081  11.243  13.748   7.914 -2.0589 -0.4519  3.4538
   38bbb     H6 1082  11.194  13.608   7.822  0.3894  0.5178  0.2879
   38bbb     C4 1083  11.043  13.696   7.953  0.8283  0.4544  0.1272
   38bbb     H7 1084  10.950  13.661   7.907 -0.1113  1.9808  0.7964
   38bbb     H8 1085  11.023  13.798   7.989 -2.2250  0.2877 -0.7907
   38bbb     C5 1086  10.991  13.794   7.509  0.3062 -0.1750  0.3270
   38bbb     H9 1087  10.905  13.743   7.464  0.1331  0.8205 -0.5059
   38bbb    H10 1088  11.073  13.773   7.440 -0.1120 -4.7796  0.9309
   38bbb     C6 1089  11.344  13.705   7.598  0.1608  0.3247  0.3097
   38bbb    H11 1090  11.274  13.641   7.543 -0.7238  2.1348 -0.7648
   38bbb    H12 1091  11.395  13.645   7.674 -0.2323 -0.6695 -0.1997
   38bbb     C7 1092  11.074  13.610   8.073 -0.0855 -0.0959  0.3828
   38bbb    H13 1093  11.006  13.629   8.157 -2.2254 -1.2243 -1.0100
   38bbb    H14 1094  11.174  13.639   8.106 -0.7108  1.3107  1.1204
   38bbb     C8 1095  11.456  13.756   7.511  0.9051 -0.5027 -0.5979
   38bbb    H15 1096  11.519  13.825   7.569 -0.8973  1.8439 -1.2798
   38bbb    H16 1097  11.410  13.808   7.427 -1.8262 -1.0735  0.4139
   38bbb     C9 1098  10.968  13.945   7.528 -0.1645  0.2731  0.4178
   38bbb    H17 1099  11.055  13.992   7.575 -2.2791  0.7371  4.3237
   38bbb    H18 1100  10.886  13.954   7.600 -0.4636 -0.0041  0.1172
   38bbb     O1 1101  11.087  13.471   8.028 -0.6341 -0.0630 -0.6488
   39bbb     N1 1102  12.790  10.714   5.697 -0.7388 -0.1614 -0.0193
   39bbb     C1 1103  12.700  10.835   5.716 -0.1106 -0.0398  0.1375
   39bbb     H1 1104  12.606  10.799   5.761 -0.0021 -1.7855 -0.9556
   39bbb     H2 1105  12.693  10.887   5.620  1.3910  0.1681  0.1270
   39bbb     C2 1106  12.742  10.615   5.599 -0.0001 -0.7152  0.4152
   39bbb     H3 1107  12.647  10.574   5.636 -0.7090  0.8052  0.3689
   39bbb     H4 1108  12.812  10.533   5.581 -0.0076 -0.7294  0.4478
   39bbb     C3 1109  12.830  10.643   5.826 -0.2073 -0.0382 -0.6767
   39bbb     H5 1110  12.878  10.716   5.892  1.3843 -1.4319 -0.2059
   39bbb     H6 1111  12.899  10.559   5.810 -0.6334 -1.0852  2.2604
   39bbb     C4 1112  12.727  10.566   5.918 -0.7766 -0.5219  0.1368
   39bbb     H7 1113  12.774  10.511   6.000 -1.4732 -1.9330 -0.3796
   39bbb     H8 1114  12.693  10.480   5.859 -0.2259 -0.6000 -0.0768
   39bbb     C5 1115  12.775  10.938   5.801 -0.0776  0.0306  0.2490
   39bbb     H9 1116  12.875  10.946   5.758 -0.5698 -1.5674 -1.2924
   39bbb    H10 1117  12.788  10.911   5.907 -1.3051  1.8884  0.9387
   39bbb     C6 1118  12.703  10.687   5.462 -0.2674 -0.0493 -0.1836
   39bbb    H11 1119  12.788  10.748   5.433 -0.2791  0.4331  0.7555
   39bbb    H12 1120  12.616  10.753   5.476 -0.5311  0.1263 -2.3781
   39bbb     C7 1121  12.605  10.640   5.974  0.8808 -0.0750  0.5068
   39bbb    H13 1122  12.534  10.581   6.034 -1.4498  2.3232  0.2542
   39bbb    H14 1123  12.547  10.685   5.893  2.3889  1.2750  0.1272
   39bbb     C8 1124  12.677  10.597   5.341  0.3556 -0.2013  0.2649
   39bbb    H15 1125  12.692  10.657   5.251  1.1310 -1.5824 -0.5610
   39bbb    H16 1126  12.571  10.571   5.352 -0.0414  1.1340 -0.1562
   39bbb     C9 1127  12.718  11.080   5.810 -1.0062 -0.1083 -0.0539
   39bbb    H17 1128  12.777  11.136   5.885  1.8131 -1.0739 -1.3976
   39bbb    H18 1129  12.614  11.069   5.843 -0.4349 -2.7815  1.0822
   39bbb     O1 1130  12.648  10.750   6.056 -0.0843  0.2113 -0.2300
   40bbb     N1 1131  12.210  11.382   5.630  0.4478  0.1665 -0.2242
   40bbb     C1 1132  12.286  11.422   5.509  0.4288  0.0956  0.4093
   40bbb     H1 1133  12.384  11.373   5.505  1.0802  1.3296  0.8386
   40bbb     H2 1134  12.290  11.531   5.512 -0.7888  0.2804 -1.9475
   40bbb     C2 1135  12.079  11.442   5.664  0.8366  0.1124  0.1414
   40bbb     H3 1136  12.027  11.443   5.568  1.0653  1.1366  0.0093
   40bbb     H4 1137  12.074  11.543   5.706  1.4952 -0.0554  0.6390
   40bbb     C3 1138  12.296  11.358   5.747 -0.3499 -0.1115  0.3751
   40bbb     H5 1139  12.390  11.309   5.719 -0.2382  0.5678 -0.5102
   40bbb     H6 1140  12.247  11.290   5.818 -0.6444  1.8678  2.1407
   40bbb     C4 1141  12.322  11.490   5.824 -0.1425 -0.3770  0.3820
   40bbb     H7 1142  12.230  11.531   5.866 -0.0629 -0.4136  0.5938
   40bbb     H8 1143  12.358  11.563   5.751  1.8257 -1.8747 -0.2294
   40bbb     C5 1144  12.208  11.392   5.378  0.0019 -0.2415 -0.7633
   40bbb     H9 1145  12.260  11.439   5.294  1.3451  0.6946  0.5545
   40bbb    H10 1146  12.108  11.436   5.388  1.5758  3.1005  2.5565
   40bbb     C6 1147  11.985  11.365   5.754  0.5107  0.1779  0.1373
   40bbb    H11 1148  11.889  11.418   5.747  0.7712  0.5406 -0.9133
   40bbb    H12 1149  12.013  11.379   5.859  0.3938  0.5540  0.1204
   40bbb     C7 1150  12.420  11.484   5.940  0.0882  0.5884  1.5565
   40bbb    H13 1151  12.441  11.585   5.978 -2.6490  1.6682  0.4610
   40bbb    H14 1152  12.514  11.439   5.907  0.4338  2.2530  0.1491
   40bbb     C8 1153  11.984  11.215   5.731  0.0215 -1.0361  0.0882
   40bbb    H15 1154  12.086  11.176   5.716  0.4734  0.2474 -0.2685
   40bbb    H16 1155  11.932  11.204   5.636  0.1136  3.4652 -0.6585
   40bbb     C9 1156  12.187  11.243   5.344  0.7271  0.7176  0.3739
   40bbb    H17 1157  12.161  11.199   5.441  3.4145  0.3374  1.0008
   40bbb    H18 1158  12.274  11.194   5.298 -0.1702 -1.2597  0.6452
   40bbb     O1 1159  12.352  11.403   6.045 -0.6055  0.4782  0.5391
   41bbb     N1 1160  12.700  10.061   6.725  0.1238 -0.2211 -0.6057
   41bbb     C1 1161  12.676   9.945   6.822  0.7937 -0.0416  0.9521
   41bbb     H1 1162  12.611   9.871   6.774  0.2573  0.7662  0.4068
   41bbb     H2 1163  12.624   9.989   6.908 -2.1564 -0.6864 -0.3785
   41bbb     C2 1164  12.792  10.172   6.778  0.2496  0.1293  0.2948
   41bbb     H3 1165  12.817  10.241   6.696 -0.6361  0.7604  0.5321
   41bbb     H4 1166  12.890  10.130   6.800  0.3153 -0.4232 -0.9508
   41bbb     C3 1167  12.570  10.129   6.689  0.1946 -0.0849  0.6039
   41bbb     H5 1168  12.596  10.228   6.649  0.4332  0.1819  1.3805
   41bbb     H6 1169  12.516  10.147   6.783 -0.9036 -0.5238  0.0720
   41bbb     C4 1170  12.491  10.043   6.582 -0.2721  0.2737 -1.0156
   41bbb     H7 1171  12.510   9.937   6.601  1.0774  0.5776 -0.5578
   41bbb     H8 1172  12.545  10.059   6.488  1.5522 -2.9556 -0.6454
   41bbb     C5 1173  12.805   9.878   6.868 -0.1787 -0.7562  0.1151
   41bbb     H9 1174  12.852   9.948   6.939  0.9948 -0.8367 -0.5573
   41bbb    H10 1175  12.873   9.866   6.783  0.1532 -4.2481  0.7478
   41bbb     C6 1176  12.733  10.256   6.899  0.2269 -0.0324  0.4355
   41bbb    H11 1177  12.676  10.183   6.957  1.6416 -2.9722 -1.6112
   41bbb    H12 1178  12.671  10.337   6.859 -0.2732 -1.2307 -1.3115
   41bbb     C7 1179  12.339  10.070   6.593  0.1342  0.1987 -0.5491
   41bbb    H13 1180  12.290  10.005   6.520  0.5689 -1.8630  0.8862
   41bbb    H14 1181  12.318  10.176   6.575 -0.1475 -0.2002 -2.9279
   41bbb     C8 1182  12.862  10.293   6.988  0.1418  0.1812 -0.3823
   41bbb    H15 1183  12.927  10.205   6.991  0.1502  0.1424 -1.3634
   41bbb    H16 1184  12.830  10.319   7.090 -0.7829  1.6256 -1.0045
   41bbb     C9 1185  12.794   9.743   6.932 -0.3121  0.7138  0.1171
   41bbb    H17 1186  12.694   9.724   6.971 -0.3960  0.9713  0.0338
   41bbb    H18 1187  12.856   9.737   7.023 -2.3767 -1.9895  1.4673
   41bbb     O1 1188  12.296  10.036   6.727 -0.4092  0.2440  0.3474
   42bbb     N1 1189  11.653  10.211   7.024  0.1067 -0.2521 -0.4324
   42bbb     C1 1190  11.749  10.097   7.017  0.2021  0.2997  0.1841
   42bbb     H1 1191  11.816  10.092   7.104  0.6403  1.6754 -0.0439
   42bbb     H2 1192  11.812  10.111   6.928  2.5648  0.1812  1.7503
   42bbb     C2 1193  11.553  10.194   7.135 -0.1776 -0.1663 -0.2691
   42bbb     H3 1194  11.484  10.111   7.112 -2.8214  1.9559 -0.4346
   42bbb     H4 1195  11.477  10.272   7.124 -1.0069 -1.0041 -0.6444
   42bbb     C3 1196  11.726  10.337   7.031  0.6150  0.6134  0.8052
   42bbb     H5 1197  11.815  10.326   6.968  0.7681  0.3430  1.0626
   42bbb     H6 1198  11.763  10.359   7.132  1.8335 -0.1415  0.5434
   42bbb     C4 1199  11.640  10.453   6.977  0.2592  0.0099  0.0118
   42bbb     H7 1200  11.551  10.459   7.041  0.1906  0.3515 -0.1133
   42bbb     H8 1201  11.588  10.436   6.882 -0.4180  0.8968  0.2178
   42bbb     C5 1202  11.688   9.955   6.999  0.3222 -0.3135 -0.1890
   42bbb     H9 1203  11.648   9.959   6.897 -2.2663 -0.9917  0.7069
   42bbb    H10 1204  11.607   9.944   7.073 -1.5592  1.9450 -1.7947
   42bbb     C6 1205  11.599  10.189   7.285 -0.3344  0.8198  0.6579
   42bbb    H11 1206  11.681  10.258   7.307  1.7980 -1.0610 -1.0033
   42bbb    H12 1207  11.642  10.088   7.287 -1.2895  0.3629 -0.6394
   42bbb     C7 1208  11.705  10.594   6.976  0.4217  0.5322 -0.3081
   42bbb    H13 1209  11.726  10.622   7.080 -0.6575  1.3023 -0.2836
   42bbb    H14 1210  11.637  10.671   6.937 -0.9092  0.7016  2.1611
   42bbb     C8 1211  11.479  10.206   7.387 -0.3318  0.3522  0.2589
   42bbb    H15 1212  11.509  10.173   7.487  0.5457 -1.4940 -0.5688
   42bbb    H16 1213  11.397  10.139   7.358 -1.5388  1.9366 -0.1251
   42bbb     C9 1214  11.792   9.837   7.024  0.3824 -0.2220  0.4523
   42bbb    H17 1215  11.730   9.750   7.047  0.2545  0.1433  1.5731
   42bbb    H18 1216  11.843   9.859   7.118 -0.6851  0.2830  0.9350
   42bbb     O1 1217  11.820  10.594   6.897 -0.6589 -0.6556  0.0245
   43bbb     N1 1218  13.513  12.562   7.190  0.2084 -0.5079  0.4803
   43bbb     C1 1219  13.435  12.644   7.096  0.0888 -0.1097 -0.3598
   43bbb     H1 1220  13.405  12.599   7.001  0.0937 -1.2053  0.1402
   43bbb     H2 1221  13.502  12.725   7.064  0.3270 -0.5489 -0.9925
   43bbb     C2 1222  13.529  12.612   7.325  0.0915 -0.2779  0.3701
   43bbb     H3 1223  13.598  12.539   7.370  0.2003  0.0313  0.7074
   43bbb     H4 1224  13.442  12.613   7.393 -0.7015 -2.2608 -0.5313
   43bbb     C3 1225  13.470  12.421   7.183  0.2206  0.6967  0.0252
   43bbb     H5 1226  13.365  12.423   7.217  0.2473  0.0664  0.1669
   43bbb     H6 1227  13.510  12.358   7.264  0.0730  0.6461  0.0596
   43bbb     C4 1228  13.491  12.346   7.056  1.1169  0.3278  0.9466
   43bbb     H7 1229  13.401  12.362   6.996 -0.1741 -1.6644  2.2481
   43bbb     H8 1230  13.503  12.240   7.081 -0.1881  0.3557  1.7912
   43bbb     C5 1231  13.307  12.708   7.146  0.0840 -0.2635  0.7905
   43bbb     H9 1232  13.330  12.794   7.210  0.2891  0.5837 -0.3931
   43bbb    H10 1233  13.257  12.632   7.208  0.8723  0.3537  2.2465
   43bbb     C6 1234  13.593  12.757   7.334 -0.6415 -0.2171 -0.2278
   43bbb    H11 1235  13.547  12.815   7.253 -2.3035 -4.0293 -2.2852
   43bbb    H12 1236  13.696  12.745   7.299  0.3638 -0.7115  2.6417
   43bbb     C7 1237  13.610  12.394   6.969 -0.5371 -0.4858 -0.2459
   43bbb    H13 1238  13.706  12.352   6.999  0.2426 -0.0070 -1.9663
   43bbb    H14 1239  13.600  12.503   6.977 -1.4683 -0.6965  2.5738
   43bbb     C8 1240  13.580  12.820   7.473  0.4882  0.9392 -0.3321
   43bbb    H15 1241  13.476  12.842   7.498 -0.0093 -0.4881 -1.0043
   43bbb    H16 1242  13.636  12.914   7.475 -0.8760  1.7914 -0.6393
   43bbb     C9 1243  13.225  12.768   7.030 -0.9666  0.1002 -0.0587
   43bbb    H17 1244  13.135  12.814   7.074 -0.6135 -0.2049  1.0151
   43bbb    H18 1245  13.205  12.698   6.949 -1.3490  1.1023 -0.8524
   43bbb     O1 1246  13.589  12.363   6.830  0.0314  0.4033 -0.6142
   44bbb     N1 1247  12.936  12.894   6.119  0.3596  0.1927 -0.0892
   44bbb     C1 1248  12.907  12.859   5.973  0.9772  0.3677  0.2719
   44bbb     H1 1249  12.938  12.942   5.909  1.4072  0.5875  0.7554
   44bbb     H2 1250  12.799  12.845   5.963  0.9484 -1.1485  2.0202
   44bbb     C2 1251  12.864  12.821   6.234  0.8955 -0.2921 -0.4484
   44bbb     H3 1252  12.887  12.876   6.327 -0.3386 -2.0319  0.9577
   44bbb     H4 1253  12.901  12.720   6.252 -0.0076 -0.8047 -1.4152
   44bbb     C3 1254  13.079  12.917   6.132 -0.3605  0.2795 -0.1389
   44bbb     H5 1255  13.114  12.975   6.047 -1.7361 -0.2343 -1.1022
   44bbb     H6 1256  13.140  12.826   6.132  2.0610  1.7188  2.5344
   44bbb     C4 1257  13.114  12.997   6.264  0.0129  0.1746  0.8693
   44bbb     H7 1258  13.081  12.941   6.353  1.2443 -0.1683  1.1228
   44bbb     H8 1259  13.054  13.089   6.270  1.1312  0.9111  0.9792
   44bbb     C5 1260  12.974  12.723   5.939  0.5332  0.2173  0.9316
   44bbb     H9 1261  12.965  12.647   6.018 -0.6293 -0.2557  0.3768
   44bbb    H10 1262  13.079  12.738   5.911  0.0560  1.1283 -0.4634
   44bbb     C6 1263  12.716  12.802   6.211 -0.0346  0.1813  0.1185
   44bbb    H11 1264  12.704  12.722   6.137 -0.0082 -0.8593  1.2041
   44bbb    H12 1265  12.667  12.894   6.177  1.1110  0.0807 -1.9270
   44bbb     C7 1266  13.265  13.039   6.274  0.3132 -0.1835  0.0645
   44bbb    H13 1267  13.276  13.115   6.353 -0.1484 -0.7382  0.6763
   44bbb    H14 1268  13.301  13.071   6.176 -2.2854  1.4577 -0.4552
   44bbb     C8 1269  12.637  12.764   6.343 -0.2071  0.1553 -0.6638
   44bbb    H15 1270  12.529  12.775   6.327 -0.0586 -0.8958 -2.6132
   44bbb    H16 1271  12.660  12.826   6.431  1.2302 -1.7008  0.3440
   44bbb     C9 1272  12.905  12.666   5.809 -0.8690 -0.3682 -0.3629
   44bbb    H17 1273  12.938  12.564   5.783  0.5254  0.3158 -1.4024
   44bbb    H18 1274  12.799  12.656   5.835 -0.2837 -0.6424  2.1746
   44bbb     O1 1275  13.334  12.915   6.302 -0.0282  0.3204  0.5021
   45bbb     N1 1276  13.404  11.368   7.926 -0.2366  0.1943 -0.2095
   45bbb     C1 1277  13.533  11.437   7.957  0.0821  0.7837 -0.3512
   45bbb     H1 1278  13.614  11.383   7.906  1.3664  0.6501  1.7209
   45bbb     H2 1279  13.560  11.427   8.063  0.3753  1.0689 -0.3984
   45bbb     C2 1280  13.418  11.223   7.971 -0.1072 -0.2882  0.0014
   45bbb     H3 1281  13.456  11.156   7.894 -2.4686 -0.0695 -1.4443
   45bbb     H4 1282  13.314  11.188   7.965 -0.0788 -0.1496 -4.0486
   45bbb     C3 1283  13.362  11.389   7.786 -0.3803 -0.1644 -0.1212
   45bbb     H5 1284  13.440  11.353   7.718  1.3570  0.7541  1.3164
   45bbb     H6 1285  13.356  11.497   7.768  0.4012 -0.2045 -0.6605
   45bbb     C4 1286  13.228  11.325   7.749  0.3406  0.8291 -0.0010
   45bbb     H7 1287  13.148  11.369   7.809  0.0197  0.2712 -0.0144
   45bbb     H8 1288  13.232  11.218   7.771  2.4481  0.1745 -2.9343
   45bbb     C5 1289  13.534  11.587   7.922  0.2379  0.2181 -0.3843
   45bbb     H9 1290  13.445  11.640   7.959 -0.7251 -0.6879 -1.3011
   45bbb    H10 1291  13.540  11.610   7.814 -1.3087  3.6016  0.1258
   45bbb     C6 1292  13.469  11.199   8.119 -0.4970  0.2192 -0.5738
   45bbb    H11 1293  13.450  11.284   8.186  0.9499  3.7095 -4.1369
   45bbb    H12 1294  13.578  11.188   8.116 -0.4997  0.2945 -1.6970
   45bbb     C7 1295  13.207  11.323   7.596 -0.1548 -0.5052 -0.1094
   45bbb    H13 1296  13.212  11.428   7.564 -0.3579 -0.6533 -0.6386
   45bbb    H14 1297  13.116  11.271   7.564  0.0431 -0.3339 -0.9845
   45bbb     C8 1298  13.418  11.062   8.175  0.0592 -0.2656 -0.9944
   45bbb    H15 1299  13.309  11.049   8.177  0.0630 -0.2669 -0.7646
   45bbb    H16 1300  13.456  11.053   8.277  1.7740 -0.8561 -1.6526
   45bbb     C9 1301  13.661  11.664   7.971  0.2640  0.0001 -0.4013
   45bbb    H17 1302  13.666  11.667   8.080  0.8070  0.1054 -0.4292
   45bbb    H18 1303  13.650  11.771   7.949  2.1962  0.3232  0.0233
   45bbb     O1 1304  13.317  11.246   7.538 -0.3933 -0.1207 -0.5170
   46bbb     N1 1305  14.284  11.251   7.187 -0.4640 -0.2499 -0.2348
   46bbb     C1 1306  14.432  11.294   7.183  0.2672 -0.2688  0.0909
   46bbb     H1 1307  14.493  11.213   7.143  0.7676  0.8754 -1.5823
   46bbb     H2 1308  14.461  11.323   7.285 -0.8737 -0.1320  0.3927
   46bbb     C2 1309  14.261  11.121   7.242  0.4429 -0.4101 -0.5900
   46bbb     H3 1310  14.153  11.109   7.227  0.1256  1.4023 -0.0150
   46bbb     H4 1311  14.288  11.117   7.348 -0.4374 -1.0406 -0.3763
   46bbb     C3 1312  14.209  11.353   7.261 -0.6601  0.1995  0.1410
   46bbb     H5 1313  14.239  11.456   7.240  1.0179 -0.2534  0.1155
   46bbb     H6 1314  14.236  11.338   7.367  2.8229  3.0352 -0.1563
   46bbb     C4 1315  14.056  11.344   7.257  0.6198  0.2362 -0.8691
   46bbb     H7 1316  14.020  11.429   7.316  0.9315  0.2821 -0.7412
   46bbb     H8 1317  14.024  11.254   7.312 -0.8093  1.5286  0.4972
   46bbb     C5 1318  14.459  11.409   7.088 -0.3621 -0.3251 -0.6470
   46bbb     H9 1319  14.566  11.426   7.075 -0.2533 -1.8192 -1.9393
   46bbb    H10 1320  14.411  11.501   7.123 -0.4372 -0.7335  0.3798
   46bbb     C6 1321  14.331  11.002   7.182  0.6014  0.4175  0.0337
   46bbb    H11 1322  14.439  11.004   7.204  0.2484 -0.6388  2.2389
   46bbb    H12 1323  14.330  10.997   7.073  4.2181 -2.7160 -0.0770
   46bbb     C7 1324  14.003  11.337   7.113 -0.2748  0.3972  0.4825
   46bbb    H13 1325  14.019  11.233   7.083 -0.1395 -0.0145  1.8982
   46bbb    H14 1326  14.066  11.404   7.054  0.4684 -0.3655  0.3875
   46bbb     C8 1327  14.272  10.866   7.229 -0.1098  0.2231  0.0132
   46bbb    H15 1328  14.267  10.849   7.338 -0.6880 -0.7545 -0.1552
   46bbb    H16 1329  14.334  10.784   7.194  0.1904  0.2180  0.5474
   46bbb     C9 1330  14.422  11.371   6.935 -0.0366  0.4322 -0.6388
   46bbb    H17 1331  14.314  11.348   6.930  0.3290 -2.0744  0.9956
   46bbb    H18 1332  14.461  11.271   6.910 -2.2355 -0.0756 -2.4667
   46bbb     O1 1333  13.860  11.370   7.120  0.1840 -0.5600  0.2105
   47bbb     N1 1334  10.960  12.197   5.366 -0.5863 -0.1914 -0.4026
   47bbb     C1 1335  10.892  12.177   5.498  0.2365  0.0867 -0.4585
   47bbb     H1 1336  10.816  12.099   5.482 -1.1246  0.8056  1.9344
   47bbb     H2 1337  10.832  12.265   5.522  2.4734  1.3314  0.8342
   47bbb     C2 1338  10.876  12.230   5.248  0.0230 -0.6887 -0.1163
   47bbb     H3 1339  10.795  12.156   5.253  0.5707 -1.2803  0.0822
   47bbb     H4 1340  10.922  12.209   5.151 -0.7246 -2.0163 -0.2176
   47bbb     C3 1341  11.059  12.099   5.339 -0.3978  0.3673  0.4505
   47bbb     H5 1342  11.143  12.107   5.409 -1.5110  1.6511  1.7054
   47bbb     H6 1343  11.094  12.113   5.236 -1.0239 -0.9859  0.0238
   47bbb     C4 1344  10.999  11.955   5.323 -0.0676  0.4473 -0.3567
   47bbb     H7 1345  10.916  11.955   5.252 -1.2869 -1.5101  0.9579
   47bbb     H8 1346  10.951  11.925   5.417 -2.4920  1.7837 -1.0883
   47bbb     C5 1347  10.977  12.133   5.625 -0.5292 -0.4825 -0.2058
   47bbb     H9 1348  11.058  12.205   5.645 -0.8972  0.5184 -2.0702
   47bbb    H10 1349  11.024  12.034   5.627 -1.1169 -0.7615  2.2001
   47bbb     C6 1350  10.812  12.373   5.246 -0.4923  0.4532 -0.0936
   47bbb    H11 1351  10.885  12.450   5.215  0.0971  1.0523  2.4794
   47bbb    H12 1352  10.781  12.402   5.347 -0.1437 -0.8095  0.3871
   47bbb     C7 1353  11.101  11.846   5.272 -0.0466  0.1473 -0.8331
   47bbb    H13 1354  11.118  11.860   5.165  2.0510 -0.7891 -0.6903
   47bbb    H14 1355  11.062  11.744   5.283 -0.6110  0.3893 -0.5524
   47bbb     C8 1356  10.687  12.372   5.151  0.2635 -0.6767 -0.8291
   47bbb    H15 1357  10.654  12.474   5.130 -2.7770 -1.3372  0.1891
   47bbb    H16 1358  10.603  12.315   5.192  0.1661 -0.8483 -1.2642
   47bbb     C9 1359  10.893  12.136   5.752  0.2522  0.5669  0.2192
   47bbb    H17 1360  10.849  12.236   5.753 -0.7857  0.1236  0.1543
   47bbb    H18 1361  10.944  12.117   5.847 -2.7605 -2.7852  1.3835
   47bbb     O1 1362  11.226  11.849   5.349 -0.2212 -0.5917 -0.2576
   48bbb     N1 1363  11.632  11.489   5.216  0.7222 -0.2115 -0.3745
   48bbb     C1 1364  11.488  11.516   5.244 -0.5162  0.0448 -0.4039
   48bbb     H1 1365  11.437  11.579   5.169 -1.3768  1.7395  1.4987
   48bbb     H2 1366  11.485  11.562   5.343  1.2424 -2.0053  0.6706
   48bbb     C2 1367  11.671  11.422   5.090  0.5986  0.2479  0.0733
   48bbb     H3 1368  11.628  11.321   5.091 -1.9840  1.2051  2.7805
   48bbb     H4 1369  11.781  11.424   5.085  0.6569 -1.5879 -0.2025
   48bbb     C3 1370  11.709  11.438   5.327  0.1321  0.0197  0.0203
   48bbb     H5 1371  11.813  11.422   5.297  0.7538 -0.1833  2.1672
   48bbb     H6 1372  11.678  11.341   5.370  1.6588 -0.4413  0.1271
   48bbb     C4 1373  11.708  11.530   5.452 -0.2198  0.2846  0.2886
   48bbb     H7 1374  11.785  11.487   5.517  2.7848  2.0450 -1.8485
   48bbb     H8 1375  11.615  11.524   5.508 -0.6991 -1.2235 -0.6075
   48bbb     C5 1376  11.394  11.396   5.265 -0.2235 -0.3654 -0.0412
   48bbb     H9 1377  11.437  11.328   5.339  2.8061 -0.7482 -1.9590
   48bbb    H10 1378  11.402  11.346   5.168 -1.9541  0.6382 -0.7626
   48bbb     C6 1379  11.623  11.492   4.963  1.3380 -0.0762 -0.4861
   48bbb    H11 1380  11.514  11.497   4.975  1.3664 -2.8118  2.1341
   48bbb    H12 1381  11.641  11.441   4.867  0.7876  0.3284 -0.8133
   48bbb     C7 1382  11.749  11.674   5.415  0.2853  0.0998 -0.4573
   48bbb    H13 1383  11.670  11.720   5.354 -0.4904 -1.9230 -1.0449
   48bbb    H14 1384  11.833  11.676   5.344  1.1176  1.5360  0.5135
   48bbb     C8 1385  11.675  11.639   4.957  0.4801 -0.1489  0.0185
   48bbb    H15 1386  11.778  11.651   4.993  0.8000  0.9066 -1.1698
   48bbb    H16 1387  11.628  11.705   5.030 -0.5496 -0.8338 -0.0101
   48bbb     C9 1388  11.249  11.434   5.291  0.1547 -0.1224 -0.0817
   48bbb    H17 1389  11.209  11.516   5.230  0.6635  0.9301  0.9356
   48bbb    H18 1390  11.226  11.467   5.393 -0.1507 -1.4530  0.3014
   48bbb     O1 1391  11.782  11.749   5.530  0.2807  0.6588 -0.0657
   49bbb     N1 1392  11.459  14.041   6.625 -0.0056 -0.5315  0.4611
   49bbb     C1 1393  11.398  13.966   6.741 -0.7158 -0.1948 -0.0586
   49bbb     H1 1394  11.462  13.884   6.776  1.7258  1.7686  0.3489
   49bbb     H2 1395  11.298  13.920   6.734 -0.7078 -0.6660  2.0834
   49bbb     C2 1396  11.424  14.188   6.614  0.1650 -0.0579  0.0622
   49bbb     H3 1397  11.478  14.237   6.697 -2.3658  0.1028  1.7163
   49bbb     H4 1398  11.317  14.208   6.622  0.0408 -0.7177  0.0304
   49bbb     C3 1399  11.459  13.966   6.498  0.0165  0.2718 -0.1602
   49bbb     H5 1400  11.522  14.014   6.423  1.5588 -1.1939  0.1234
   49bbb     H6 1401  11.359  13.959   6.454  0.3604  1.5148 -1.1727
   49bbb     C4 1402  11.514  13.822   6.512  0.1505 -0.4044 -0.3699
   49bbb     H7 1403  11.434  13.776   6.571 -0.8233  1.9758  0.2802
   49bbb     H8 1404  11.605  13.823   6.574  0.8555  0.2517 -1.3946
   49bbb     C5 1405  11.407  14.054   6.868 -0.1358 -0.0118 -0.5843
   49bbb     H9 1406  11.338  14.139   6.857  1.0362  0.8612 -1.5733
   49bbb    H10 1407  11.509  14.095   6.867 -0.0027 -0.3332 -0.2455
   49bbb     C6 1408  11.468  14.261   6.484 -0.2137  0.2942  0.3671
   49bbb    H11 1409  11.413  14.217   6.399 -1.1733  3.2527 -0.6490
   49bbb    H12 1410  11.572  14.236   6.459 -0.5306 -0.3591 -0.3682
   49bbb     C7 1411  11.525  13.752   6.374  0.0324  0.4612  0.0897
   49bbb    H13 1412  11.594  13.814   6.316  1.0389  0.5396  1.3298
   49bbb    H14 1413  11.421  13.758   6.339 -0.5423  0.4903  1.6737
   49bbb     C8 1414  11.439  14.411   6.471 -0.1189 -0.1456 -0.3940
   49bbb    H15 1415  11.434  14.435   6.364  0.1360 -0.0577 -0.3870
   49bbb    H16 1416  11.531  14.461   6.503 -0.3115  0.2947 -0.5203
   49bbb     C9 1417  11.395  13.978   7.005 -0.0263  0.2482  0.0288
   49bbb    H17 1418  11.424  14.051   7.082  0.1915  0.3275 -0.1272
   49bbb    H18 1419  11.475  13.903   6.997 -0.8023 -0.5758 -0.2310
   49bbb     O1 1420  11.551  13.613   6.385  0.0341 -0.2581 -0.3791
   50bbb     N1 1421  11.077  13.403   5.278  0.4997  0.4870 -0.1420
   50bbb     C1 1422  10.970  13.488   5.226  0.1015 -1.1281  0.1236
   50bbb     H1 1423  10.948  13.461   5.122  0.8983 -0.3760 -0.2475
   50bbb     H2 1424  11.017  13.587   5.224  1.3323 -1.6949 -1.9174
   50bbb     C2 1425  11.198  13.385   5.200 -0.0227  0.4615 -0.0638
   50bbb     H3 1426  11.269  13.335   5.267  1.3377 -0.0362 -1.8052
   50bbb     H4 1427  11.253  13.478   5.184 -1.9063  1.9094  1.3475
   50bbb     C3 1428  11.100  13.418   5.422 -0.7615 -0.4217 -0.8420
   50bbb     H5 1429  11.168  13.341   5.459 -2.5108 -0.8458  1.7095
   50bbb     H6 1430  11.014  13.409   5.490 -0.5090  0.3170 -0.4149
   50bbb     C4 1431  11.169  13.552   5.452  0.4233 -0.3288 -0.0553
   50bbb     H7 1432  11.125  13.639   5.401  0.2798 -1.1572 -1.3820
   50bbb     H8 1433  11.272  13.546   5.415  0.8910 -0.7667  1.2488
   50bbb     C5 1434  10.838  13.501   5.294 -0.0462 -0.0801  0.6052
   50bbb     H9 1435  10.793  13.585   5.240  0.7386  0.3028  0.5394
   50bbb    H10 1436  10.853  13.528   5.399 -0.7725 -1.9923  1.2538
   50bbb     C6 1437  11.181  13.316   5.060 -0.2779  0.1822 -0.7061
   50bbb    H11 1438  11.269  13.351   5.004  0.0704  1.9309  0.8146
   50bbb    H12 1439  11.102  13.373   5.010 -2.9777 -1.9327  0.8518
   50bbb     C7 1440  11.171  13.569   5.604 -0.3599  0.5638 -0.0850
   50bbb    H13 1441  11.071  13.587   5.644 -0.2263  1.6760 -0.2016
   50bbb    H14 1442  11.219  13.666   5.625  0.3515  0.4431 -1.0673
   50bbb     C8 1443  11.158  13.163   5.049 -0.4950 -0.0564 -0.1846
   50bbb    H15 1444  11.122  13.147   4.947 -1.9845  0.2616  0.2661
   50bbb    H16 1445  11.072  13.146   5.115 -0.3329 -0.0207  0.0384
   50bbb     C9 1446  10.766  13.363   5.287  0.0014  0.9596  0.0434
   50bbb    H17 1447  10.813  13.287   5.351 -0.9024 -0.6274 -1.1341
   50bbb    H18 1448  10.759  13.315   5.189 -3.0597  2.2896 -0.4835
   50bbb     O1 1449  11.249  13.461   5.667  0.7125  0.2853 -0.6228
   51bbb     N1 1450   9.837  11.589   7.201  0.0279  0.5263  0.2142
   51bbb     C1 1451   9.888  11.455   7.251 -0.3242  0.1624  0.0516
   51bbb     H1 1452   9.898  11.389   7.164  0.7413 -0.7084  0.8008
   51bbb     H2 1453   9.811  11.396   7.302  0.1161  0.1911  0.7546
   51bbb     C2 1454   9.741  11.577   7.080 -0.3212 -0.4330 -0.4046
   51bbb     H3 1455   9.645  11.540   7.118 -2.2539  2.2389 -2.3289
   51bbb     H4 1456   9.783  11.505   7.008 -0.7108 -1.0083 -0.0679
   51bbb     C3 1457   9.783  11.672   7.311 -0.2320  0.1427 -0.2295
   51bbb     H5 1458   9.744  11.767   7.272 -0.3224  0.6284  1.0116
   51bbb     H6 1459   9.871  11.696   7.371 -1.9338 -0.0365  2.4735
   51bbb     C4 1460   9.673  11.608   7.404 -0.2002 -0.3297 -0.3554
   51bbb     H7 1461   9.719  11.526   7.460  1.4190 -0.3980 -1.6917
   51bbb     H8 1462   9.592  11.566   7.344 -1.6990 -0.2521  1.5311
   51bbb     C5 1463  10.022  11.456   7.317  0.3495  1.1421  0.3179
   51bbb     H9 1464  10.094  11.517   7.262  0.1293 -0.3101 -1.7165
   51bbb    H10 1465  10.061  11.353   7.319 -1.6146  0.3505  0.4710
   51bbb     C6 1466   9.699  11.712   7.019 -0.0045  0.7971  0.3688
   51bbb    H11 1467   9.719  11.706   6.911  2.8842  2.5648  0.6901
   51bbb    H12 1468   9.770  11.789   7.051 -0.0756  0.7733  0.5856
   51bbb     C7 1469   9.626  11.700   7.510 -0.3187 -0.2586 -0.2235
   51bbb    H13 1470   9.560  11.645   7.578 -1.2754 -0.5875 -1.3986
   51bbb    H14 1471   9.565  11.781   7.469 -0.3419 -0.9797 -1.6728
   51bbb     C8 1472   9.546  11.749   7.033 -0.0575  0.3258 -0.0848
   51bbb    H15 1473   9.526  11.749   7.140  2.9838  1.4204  0.5911
   51bbb    H16 1474   9.499  11.670   6.973  0.0655  0.4275 -0.3163
   51bbb     C9 1475  10.029  11.498   7.466 -0.8042  0.1090 -0.1100
   51bbb    H17 1476   9.946  11.460   7.526  0.4203 -0.0315  1.5881
   51bbb    H18 1477  10.026  11.607   7.483 -0.2741  0.1501 -0.2711
   51bbb     O1 1478   9.739  11.751   7.585 -0.4660  0.1159 -0.2981
   52bbb     N1 1479  10.361  11.842   7.492 -0.3419 -0.5161  0.4437
   52bbb     C1 1480  10.365  11.718   7.411  0.2507 -0.2354  0.0193
   52bbb     H1 1481  10.275  11.656   7.425  0.6712 -0.8754 -0.0749
   52bbb     H2 1482  10.437  11.654   7.464  1.0270  1.4924  1.1333
   52bbb     C2 1483  10.262  11.940   7.447 -0.0677 -0.1101 -0.0133
   52bbb     H3 1484  10.290  11.973   7.346 -0.7468 -0.5097 -0.3363
   52bbb     H4 1485  10.260  12.030   7.510 -1.7814  0.7436 -1.1988
   52bbb     C3 1486  10.489  11.900   7.524  0.1900 -0.6074  0.0565
   52bbb     H5 1487  10.544  11.954   7.445  0.2726  2.0811  1.8355
   52bbb     H6 1488  10.558  11.825   7.563  0.2260 -0.0607  1.0883
   52bbb     C4 1489  10.471  11.992   7.651 -0.0522 -0.1395 -0.5202
   52bbb     H7 1490  10.433  12.093   7.630  0.8224  0.5978  1.2242
   52bbb     H8 1491  10.573  12.014   7.683  0.2088 -1.2770 -0.5430
   52bbb     C5 1492  10.400  11.730   7.262  0.1614 -0.3925  0.2541
   52bbb     H9 1493  10.499  11.778   7.260  0.3351 -0.4960  2.8337
   52bbb    H10 1494  10.324  11.792   7.213 -1.3917  0.1329  3.0992
   52bbb     C6 1495  10.121  11.892   7.436  0.1635 -0.3994 -0.9998
   52bbb    H11 1496  10.090  11.843   7.529  0.2608 -1.6693 -1.6098
   52bbb    H12 1497  10.117  11.809   7.364  2.5119 -0.6078 -0.9819
   52bbb     C7 1498  10.382  11.929   7.762  0.0224 -0.0231  0.6979
   52bbb    H13 1499  10.418  11.831   7.797 -0.4634 -0.2605  0.5478
   52bbb    H14 1500  10.281  11.918   7.722 -0.5752 -1.1461  2.3573
   52bbb     C8 1501  10.028  12.014   7.396  0.1019 -0.0129  0.4730
   52bbb    H15 1502  10.045  12.108   7.451 -0.5787 -0.8857  2.2630
   52bbb    H16 1503   9.925  11.988   7.422 -1.9631  2.6128 -3.8065
   52bbb     C9 1504  10.408  11.590   7.189  0.0978 -0.2773 -0.1044
   52bbb    H17 1505  10.308  11.552   7.209 -0.5716  2.1542  1.7184
   52bbb    H18 1506  10.473  11.515   7.235 -0.6693  0.3551  2.1389
   52bbb     O1 1507  10.374  12.018   7.869 -0.5998  0.0114 -0.0957
   53bbb     N1 1508  11.108  12.774   7.634  0.5703  0.6804 -0.0859
   53bbb     C1 1509  11.175  12.644   7.650 -0.3136  0.7367  0.3856
   53bbb     H1 1510  11.193  12.597   7.553 -0.6900  1.1552  0.1105
   53bbb     H2 1511  11.116  12.570   7.705  0.3467 -1.2043 -1.3811
   53bbb     C2 1512  11.064  12.828   7.767  0.4095 -0.8222  0.9685
   53bbb     H3 1513  11.146  12.888   7.808 -0.1272  0.3356  0.3698
   53bbb     H4 1514  11.039  12.741   7.830 -0.0016 -1.6318 -0.2854
   53bbb     C3 1515  11.157  12.864   7.526 -0.6274 -0.7691 -0.2416
   53bbb     H5 1516  11.239  12.929   7.558 -0.9659 -0.0119 -0.8687
   53bbb     H6 1517  11.080  12.941   7.515  0.4366  0.6119  1.5285
   53bbb     C4 1518  11.204  12.791   7.399 -0.0846 -0.1229 -0.3337
   53bbb     H7 1519  11.126  12.716   7.386 -1.0447  0.4599  1.5917
   53bbb     H8 1520  11.306  12.752   7.409 -0.1210 -1.0021 -2.8882
   53bbb     C5 1521  11.311  12.669   7.714 -0.8076 -0.9267 -0.0044
   53bbb     H9 1522  11.291  12.707   7.815  1.2647 -0.2053  0.1679
   53bbb    H10 1523  11.364  12.741   7.650 -0.6000  0.0499  1.2215
   53bbb     C6 1524  10.944  12.921   7.762  0.0034 -0.2422  0.0065
   53bbb    H11 1525  10.894  12.897   7.668 -1.8508  1.3456  0.5391
   53bbb    H12 1526  10.990  13.017   7.735  0.7033 -1.0778 -1.9072
   53bbb     C7 1527  11.220  12.876   7.274 -0.0253  0.6854  0.3386
   53bbb    H13 1528  11.245  12.826   7.180  1.1703  1.0164  0.4626
   53bbb    H14 1529  11.299  12.952   7.282  1.0731 -0.5821  2.0011
   53bbb     C8 1530  10.851  12.922   7.882  0.0503  0.4776 -0.3206
   53bbb    H15 1531  10.823  12.819   7.906  2.2250 -0.7673 -2.6260
   53bbb    H16 1532  10.764  12.975   7.842 -0.7304  0.6762  1.5658
   53bbb     C9 1533  11.386  12.532   7.729  0.3454  0.3836 -0.6438
   53bbb    H17 1534  11.489  12.556   7.760  1.4125 -2.8406 -1.3719
   53bbb    H18 1535  11.391  12.480   7.632  0.3854 -0.4445 -0.2041
   53bbb     O1 1536  11.094  12.946   7.260 -0.2276  0.3419  0.3479
   54bbb     N1 1537  10.498  13.267   6.203 -0.1496 -0.0238  0.0015
   54bbb     C1 1538  10.360  13.318   6.230  0.2473  0.6613  0.3594
   54bbb     H1 1539  10.337  13.389   6.149  1.2410  0.3438 -0.2117
   54bbb     H2 1540  10.368  13.376   6.323 -0.8848  0.4311  0.6121
   54bbb     C2 1541  10.514  13.237   6.059  0.0996 -0.0921 -0.3114
   54bbb     H3 1542  10.555  13.330   6.016 -0.5467  0.3500  0.0024
   54bbb     H4 1543  10.423  13.201   6.011 -1.0222  0.0089  1.6204
   54bbb     C3 1544  10.607  13.354   6.258  0.1018  0.0521  0.3467
   54bbb     H5 1545  10.589  13.462   6.250 -1.7913 -0.0817  2.0938
   54bbb     H6 1546  10.699  13.328   6.205  0.1840  0.4727  0.2807
   54bbb     C4 1547  10.636  13.321   6.399  0.9294 -0.6062 -0.2478
   54bbb     H7 1548  10.677  13.219   6.405  0.4431 -0.7457  1.2152
   54bbb     H8 1549  10.547  13.330   6.462  0.4151  0.4404 -1.0886
   54bbb     C5 1550  10.265  13.198   6.242  0.4117  0.0982 -0.0552
   54bbb     H9 1551  10.316  13.129   6.310  1.1125  1.2020  0.5623
   54bbb    H10 1552  10.262  13.141   6.148  1.2944  0.4415 -0.2948
   54bbb     C6 1553  10.624  13.130   6.037  0.2970  0.2851  0.5647
   54bbb    H11 1554  10.602  13.039   6.094  2.6569 -0.1016  0.9320
   54bbb    H12 1555  10.726  13.162   6.059  1.5599 -0.7875 -3.0815
   54bbb     C7 1556  10.743  13.416   6.451 -0.4775 -0.2134 -0.5213
   54bbb    H13 1557  10.704  13.518   6.462 -0.2998 -0.0282 -1.5235
   54bbb    H14 1558  10.830  13.413   6.384  1.0345 -0.3414  1.3453
   54bbb     C8 1559  10.630  13.077   5.891  0.6485 -0.0070 -0.3014
   54bbb    H15 1560  10.720  13.025   5.856  0.2904 -0.9567  0.1526
   54bbb    H16 1561  10.608  13.165   5.830 -0.5621  1.2133  1.7635
   54bbb     C9 1562  10.125  13.232   6.299  0.0094 -0.0247 -0.1374
   54bbb    H17 1563  10.082  13.307   6.232  1.7841  0.4254 -0.8480
   54bbb    H18 1564  10.151  13.283   6.392 -0.4570 -0.9222  0.4952
   54bbb     O1 1565  10.794  13.366   6.576  0.3337  0.2321  0.1517
   55bbb     N1 1566  11.907  10.307   6.017 -0.0958  0.3149 -0.2421
   55bbb     C1 1567  11.908  10.243   6.154  0.0833 -0.6437  0.2534
   55bbb     H1 1568  11.924  10.134   6.148  0.8770 -0.6698  2.1899
   55bbb     H2 1569  11.804  10.246   6.189 -0.1528 -1.4955 -0.3183
   55bbb     C2 1570  11.861  10.216   5.912 -0.4526  0.6340  0.2574
   55bbb     H3 1571  11.834  10.270   5.820 -1.7110 -0.6617 -0.1663
   55bbb     H4 1572  11.760  10.185   5.940 -2.0804  2.0233 -3.3888
   55bbb     C3 1573  11.835  10.437   6.019  0.0909  0.6150 -0.3163
   55bbb     H5 1574  11.826  10.479   6.120 -3.2072 -3.5353  1.4311
   55bbb     H6 1575  11.731  10.422   5.987  0.0714 -0.7056  0.2932
   55bbb     C4 1576  11.901  10.551   5.938  0.0231 -0.1529  0.4043
   55bbb     H7 1577  11.846  10.643   5.963  0.1295 -0.3441  1.3583
   55bbb     H8 1578  11.891  10.529   5.831  2.1945 -0.9927  0.3258
   55bbb     C5 1579  12.004  10.303   6.257 -0.1244 -0.2855 -0.3454
   55bbb     H9 1580  11.970  10.275   6.357  1.5689  0.3710  0.4468
   55bbb    H10 1581  11.989  10.412   6.254 -1.4589 -0.3825  1.0893
   55bbb     C6 1582  11.948  10.101   5.875  0.0915 -0.1903  0.1280
   55bbb    H11 1583  11.886  10.037   5.811  0.4603  0.3344 -0.7607
   55bbb    H12 1584  11.963  10.039   5.964 -3.0337 -0.4161  0.6294
   55bbb     C7 1585  12.052  10.573   5.965  0.5063 -0.2098 -0.6863
   55bbb    H13 1586  12.096  10.655   5.908  0.3253  1.1414  1.0344
   55bbb    H14 1587  12.112  10.481   5.957 -1.0056 -1.2899 -0.1786
   55bbb     C8 1588  12.080  10.133   5.807  0.2206  0.5351  0.3220
   55bbb    H15 1589  12.130  10.189   5.887 -2.1744  2.2529  0.7186
   55bbb    H16 1590  12.072  10.206   5.726 -0.6865  1.2659  1.0480
   55bbb     C9 1591  12.153  10.260   6.230 -0.1304 -0.3887  0.0944
   55bbb    H17 1592  12.223  10.327   6.280  0.0485 -1.6319  1.5835
   55bbb    H18 1593  12.168  10.273   6.122 -1.2531  1.0829  0.0832
   55bbb     O1 1594  12.064  10.628   6.097  0.1456  0.4787  0.0378
   56bbb     N1 1595  13.044  10.627   6.347 -0.5429 -0.3848  0.0158
   56bbb     C1 1596  12.969  10.739   6.278  0.1093  0.3592 -0.1072
   56bbb     H1 1597  12.959  10.816   6.356  1.6343  0.7537 -0.2702
   56bbb     H2 1598  12.870  10.705   6.247  0.2052  0.9231 -1.0590
   56bbb     C2 1599  13.051  10.507   6.263 -0.8088  0.0308 -0.3160
   56bbb     H3 1600  13.097  10.539   6.168 -1.1346 -2.1074 -1.2365
   56bbb     H4 1601  12.955  10.461   6.240 -1.0812  0.1003  0.6250
   56bbb     C3 1602  13.001  10.594   6.484 -0.4182  0.0922  0.0520
   56bbb     H5 1603  12.992  10.685   6.545 -1.0600  0.5031 -0.6339
   56bbb     H6 1604  13.066  10.514   6.521 -0.7711 -0.1232  0.2063
   56bbb     C4 1605  12.855  10.548   6.487  0.2006 -0.7524  0.3738
   56bbb     H7 1606  12.828  10.467   6.418 -2.1997 -0.4134  0.8546
   56bbb     H8 1607  12.791  10.629   6.452 -0.7887 -1.3191  0.8128
   56bbb     C5 1608  13.026  10.803   6.154  0.1785  0.5235 -0.1363
   56bbb     H9 1609  12.967  10.890   6.125 -0.9851  0.3289  1.5650
   56bbb    H10 1610  13.020  10.730   6.072 -0.8461 -1.8915  1.9701
   56bbb     C6 1611  13.146  10.388   6.304 -0.3977 -0.0197 -0.3826
   56bbb    H11 1612  13.151  10.365   6.411  0.6722 -2.4043 -0.8855
   56bbb    H12 1613  13.249  10.421   6.287 -0.6403  0.9491 -0.0046
   56bbb     C7 1614  12.808  10.511   6.627 -0.3534 -0.4643  0.1448
   56bbb    H13 1615  12.804  10.604   6.685  1.3723  0.3246 -0.9115
   56bbb    H14 1616  12.883  10.448   6.675 -0.5013 -0.4857  0.3464
   56bbb     C8 1617  13.113  10.253   6.229 -0.0120  0.7932 -0.1583
   56bbb    H15 1618  13.031  10.201   6.281 -1.8978  0.8752 -2.8458
   56bbb    H16 1619  13.196  10.182   6.241 -1.5482 -1.0388  0.2029
   56bbb     C9 1620  13.173  10.851   6.178 -0.0722 -0.5405 -0.5392
   56bbb    H17 1621  13.243  10.834   6.096 -0.8655  1.0030 -1.5866
   56bbb    H18 1622  13.210  10.804   6.270  0.0660  1.0394  0.2407
   56bbb     O1 1623  12.682  10.447   6.612 -0.4117 -0.0742  0.3078
   57bbb     N1 1624  11.423  10.591   5.610  0.3549 -0.1314 -0.7132
   57bbb     C1 1625  11.286  10.540   5.643  0.4282  0.3435 -0.0325
   57bbb     H1 1626  11.212  10.619   5.627 -1.1530 -1.1001 -0.0080
   57bbb     H2 1627  11.280  10.527   5.752  0.7749 -3.2257 -0.3189
   57bbb     C2 1628  11.462  10.700   5.701 -0.6027  0.3833  0.0538
   57bbb     H3 1629  11.400  10.790   5.695  1.4492  1.8923  0.0945
   57bbb     H4 1630  11.566  10.732   5.684 -0.6691 -0.3285 -1.8460
   57bbb     C3 1631  11.434  10.614   5.467  0.1162  0.1450  0.0849
   57bbb     H5 1632  11.399  10.712   5.432  1.4140 -0.0342 -1.8583
   57bbb     H6 1633  11.377  10.540   5.410 -0.7634  2.1628 -1.8075
   57bbb     C4 1634  11.583  10.626   5.421  0.3625 -0.5071  0.3224
   57bbb     H7 1635  11.625  10.722   5.454  0.2524 -0.2820 -0.1889
   57bbb     H8 1636  11.597  10.628   5.312 -1.7237 -2.1854 -0.0649
   57bbb     C5 1637  11.246  10.408   5.579  0.1171 -0.5282  0.3749
   57bbb     H9 1638  11.328  10.341   5.550 -0.9645 -1.7245  0.0029
   57bbb    H10 1639  11.192  10.435   5.487 -2.4025 -4.6673  0.3890
   57bbb     C6 1640  11.477  10.657   5.852  0.9485 -0.4445  0.2078
   57bbb    H11 1641  11.534  10.564   5.858  2.2011  0.2909 -0.0665
   57bbb    H12 1642  11.376  10.641   5.893  0.9954  0.3689  0.6624
   57bbb     C7 1643  11.680  10.521   5.469 -0.7624  0.3539 -0.4516
   57bbb    H13 1644  11.664  10.427   5.415  1.0544  1.0060 -2.2480
   57bbb    H14 1645  11.665  10.507   5.577  3.0025 -1.5369 -0.0116
   57bbb     C8 1646  11.552  10.764   5.941 -0.2001  0.9223  0.2898
   57bbb    H15 1647  11.484  10.851   5.938 -1.7285 -0.1061  2.5082
   57bbb    H16 1648  11.652  10.788   5.901  0.1009 -1.9673 -0.9105
   57bbb     C9 1649  11.134  10.339   5.652  0.3090 -0.5139  0.4007
   57bbb    H17 1650  11.166  10.316   5.754 -0.9998 -1.3611  0.6479
   57bbb    H18 1651  11.109  10.244   5.604 -3.1584 -0.2856  1.4764
   57bbb     O1 1652  11.824  10.557   5.452  0.1601  0.0607  0.9232
   58bbb     N1 1653  12.373  10.240   5.145 -0.5431 -0.1727 -0.1976
   58bbb     C1 1654  12.248  10.168   5.117 -0.6758 -0.1362  0.3283
   58bbb     H1 1655  12.272  10.063   5.094  0.0455 -0.3986  2.1147
   58bbb     H2 1656  12.199  10.213   5.029  1.6237  0.2074 -0.8567
   58bbb     C2 1657  12.476  10.212   5.045  0.1699 -0.4200 -0.4097
   58bbb     H3 1658  12.452  10.255   4.947 -0.0746  1.2309  0.3549
   58bbb     H4 1659  12.459  10.106   5.019 -0.8317 -0.3444 -0.1144
   58bbb     C3 1660  12.364  10.392   5.178  0.6210  0.0375  0.3664
   58bbb     H5 1661  12.457  10.443   5.203  0.6579  0.5300 -0.7094
   58bbb     H6 1662  12.286  10.411   5.253 -1.9020  0.7815 -2.2410
   58bbb     C4 1663  12.313  10.466   5.049  1.2102 -0.9558 -0.4579
   58bbb     H7 1664  12.204  10.473   5.061  1.3827  3.6899  0.2179
   58bbb     H8 1665  12.340  10.414   4.956  1.8936 -0.6421 -0.4403
   58bbb     C5 1666  12.162  10.165   5.241  0.1596 -0.5728 -0.3845
   58bbb     H9 1667  12.114  10.264   5.250  1.3643 -0.1252  1.9690
   58bbb    H10 1668  12.221  10.166   5.333 -0.6678  0.6362  0.1639
   58bbb     C6 1669  12.617  10.250   5.093  0.6228  0.3066 -0.1431
   58bbb    H11 1670  12.635  10.189   5.182 -0.5784 -0.1866 -0.2235
   58bbb    H12 1671  12.624  10.356   5.122 -0.7385  0.5425 -0.6203
   58bbb     C7 1672  12.362  10.614   5.050 -0.1564 -0.7445  0.2647
   58bbb    H13 1673  12.362  10.669   4.956 -2.4129 -0.6723  0.2641
   58bbb    H14 1674  12.464  10.611   5.093 -1.1445 -1.3739  2.7885
   58bbb     C8 1675  12.718  10.222   4.978 -0.2586  0.1157 -0.0867
   58bbb    H15 1676  12.817  10.260   5.005  0.5460 -1.2143 -1.0225
   58bbb    H16 1677  12.682  10.274   4.888 -1.1509  0.6487  0.5611
   58bbb     C9 1678  12.042  10.072   5.245 -0.5676  0.1681  0.4758
   58bbb    H17 1679  12.069   9.970   5.216 -2.2308 -0.0494 -0.4631
   58bbb    H18 1680  11.963  10.106   5.176 -0.2948  0.2012  0.1768
   58bbb     O1 1681  12.262  10.674   5.138 -0.4625  0.0863  0.0546
   59bbb     N1 1682  10.791  11.528   7.524  0.1827  0.1029 -0.4815
   59bbb     C1 1683  10.742  11.570   7.660  0.4163  0.1910  0.1003
   59bbb     H1 1684  10.735  11.481   7.724 -1.9424  0.3347  0.1487
   59bbb     H2 1685  10.639  11.607   7.657 -0.3898 -1.4176  3.2956
   59bbb     C2 1686  10.762  11.632   7.430  0.5616 -0.4099 -0.3076
   59bbb     H3 1687  10.781  11.728   7.480 -0.7232 -0.4230  0.2241
   59bbb     H4 1688  10.656  11.629   7.404 -0.2311 -1.3885  2.6388
   59bbb     C3 1689  10.763  11.389   7.470 -0.0208 -0.3140 -0.2355
   59bbb     H5 1690  10.838  11.367   7.394 -0.3247  1.1133 -0.9854
   59bbb     H6 1691  10.660  11.378   7.433 -0.2945 -0.2488  0.4736
   59bbb     C4 1692  10.797  11.277   7.576  0.6368 -0.7973  0.0581
   59bbb     H7 1693  10.705  11.260   7.633  2.2033 -1.1507  2.6854
   59bbb     H8 1694  10.882  11.314   7.636  1.0121  0.7106 -1.3138
   59bbb     C5 1695  10.846  11.665   7.733 -0.8012  1.1613 -0.0921
   59bbb     H9 1696  10.866  11.757   7.678  0.2138  0.0860 -1.5999
   59bbb    H10 1697  10.948  11.627   7.727 -0.7996  0.9506  1.0744
   59bbb     C6 1698  10.853  11.625   7.301 -0.1893  0.1830  0.4398
   59bbb    H11 1699  10.826  11.718   7.251 -1.1533 -1.0933 -1.5496
   59bbb    H12 1700  10.814  11.545   7.236  0.8257  1.1972 -1.5167
   59bbb     C7 1701  10.851  11.150   7.508  0.4148  0.1141  0.5431
   59bbb    H13 1702  10.890  11.085   7.587 -1.7431  1.0442  2.5197
   59bbb    H14 1703  10.932  11.158   7.435 -0.0695 -1.4092 -0.2073
   59bbb     C8 1704  11.009  11.613   7.329 -0.2552  1.1550 -0.2559
   59bbb    H15 1705  11.027  11.515   7.374 -0.7387  1.7009  1.1893
   59bbb    H16 1706  11.037  11.684   7.408  0.1831 -0.0516  0.7013
   59bbb     C9 1707  10.810  11.696   7.878 -1.0348 -0.2855 -0.0436
   59bbb    H17 1708  10.711  11.744   7.884 -0.0238  1.7775  1.0678
   59bbb    H18 1709  10.886  11.766   7.913  0.4148 -1.5893 -0.4831
   59bbb     O1 1710  10.736  11.083   7.458 -0.0068 -1.1039 -0.2754
   60bbb     N1 1711  11.068  11.075   8.020  0.0126 -0.2212 -0.0876
   60bbb     C1 1712  11.209  11.103   8.052 -0.4520  0.2473 -0.1602
   60bbb     H1 1713  11.245  11.013   8.104 -0.6930 -0.4507 -1.1822
   60bbb     H2 1714  11.205  11.190   8.119  1.0149 -0.1590  0.4856
   60bbb     C2 1715  10.990  11.191   7.961 -0.3462  0.4143 -0.3641
   60bbb     H3 1716  11.035  11.227   7.868  1.5442  0.3124  0.4631
   60bbb     H4 1717  11.008  11.270   8.036  2.7413 -1.2265  0.7864
   60bbb     C3 1718  11.038  10.938   7.960 -0.7818  1.1038 -0.0729
   60bbb     H5 1719  11.113  10.910   7.885 -1.4862 -1.6012  0.1522
   60bbb     H6 1720  10.935  10.930   7.923 -1.0254  1.3507  0.5305
   60bbb     C4 1721  11.056  10.829   8.069  0.6259 -0.5215 -0.1013
   60bbb     H7 1722  10.974  10.836   8.143  1.3672  0.5002  0.6546
   60bbb     H8 1723  11.157  10.842   8.110  0.2235  0.5882  0.6105
   60bbb     C5 1724  11.292  11.132   7.922 -0.1141  0.1867 -0.0478
   60bbb     H9 1725  11.267  11.233   7.886  1.9494  0.5588 -0.6327
   60bbb    H10 1726  11.288  11.047   7.853  0.9595 -0.6412  0.8596
   60bbb     C6 1727  10.841  11.178   7.937  0.7215  0.8385 -0.7655
   60bbb    H11 1728  10.818  11.104   7.859  2.4249  1.3218 -1.7852
   60bbb    H12 1729  10.795  11.274   7.911 -1.2355  0.1146 -0.1335
   60bbb     C7 1730  11.049  10.688   8.018 -0.1084 -0.3809  0.2123
   60bbb    H13 1731  11.066  10.606   8.089  0.0217  0.0141  0.6430
   60bbb    H14 1732  11.126  10.665   7.942  1.0345 -1.1571  1.5554
   60bbb     C8 1733  10.765  11.127   8.061  0.0760 -0.0245  0.6287
   60bbb    H15 1734  10.821  11.041   8.100  2.4401  1.4033  0.5586
   60bbb    H16 1735  10.667  11.085   8.035  0.6857 -1.0336 -0.1004
   60bbb     C9 1736  11.441  11.143   7.963  0.0932 -0.4776  0.3300
   60bbb    H17 1737  11.498  11.111   7.876  0.3882 -0.6066  0.5694
   60bbb    H18 1738  11.478  11.069   8.035  0.3941 -2.2682 -1.5835
   60bbb     O1 1739  10.920  10.679   7.966  0.0985 -0.6076  0.3046
   61bbb     N1 1740  10.879  11.032   6.516 -0.5757  0.6703  0.3512
   61bbb     C1 1741  10.731  11.031   6.472  0.2732 -0.2187 -0.3186
   61bbb     H1 1742  10.713  11.128   6.424  1.4681  1.8091  2.9792
   61bbb     H2 1743  10.661  11.025   6.555 -0.0264  0.9306 -0.4660
   61bbb     C2 1744  10.927  11.132   6.613 -1.0165  0.5836 -0.9384
   61bbb     H3 1745  11.032  11.119   6.640 -1.1564 -0.9236 -1.0122
   61bbb     H4 1746  10.889  11.121   6.715  2.4115 -0.1960  0.4024
   61bbb     C3 1747  10.943  10.892   6.534 -0.5890 -0.1960  0.3006
   61bbb     H5 1748  11.053  10.895   6.534 -0.5407 -0.1669  2.2975
   61bbb     H6 1749  10.899  10.818   6.466 -0.0198 -0.7650  0.5402
   61bbb     C4 1750  10.914  10.843   6.678  0.1166  0.6781  0.7217
   61bbb     H7 1751  10.810  10.865   6.702  0.0433  3.2836 -1.5159
   61bbb     H8 1752  10.969  10.904   6.750  0.4888  0.1362  0.9014
   61bbb     C5 1753  10.694  10.922   6.370  0.4334 -1.4527  0.0413
   61bbb     H9 1754  10.705  10.817   6.399  1.3204 -1.8235 -1.4888
   61bbb    H10 1755  10.759  10.933   6.282  3.1856 -0.9879  2.0260
   61bbb     C6 1756  10.892  11.278   6.567  0.3097 -0.7754 -0.2426
   61bbb    H11 1757  10.943  11.349   6.635  0.5712  2.3151 -3.3733
   61bbb    H12 1758  10.788  11.304   6.590  0.6612  0.2995  0.2195
   61bbb     C7 1759  10.947  10.694   6.712 -0.4234 -0.8900  0.4493
   61bbb    H13 1760  11.049  10.692   6.753 -0.0942  1.8745 -0.0105
   61bbb    H14 1761  10.967  10.640   6.619  0.9425 -0.8262  0.6912
   61bbb     C8 1762  10.932  11.307   6.420  0.0687  0.9269  0.3165
   61bbb    H15 1763  10.893  11.224   6.361  0.3793 -1.5709  3.3488
   61bbb    H16 1764  11.040  11.285   6.416  0.1854  1.6642 -1.1416
   61bbb     C9 1765  10.551  10.931   6.318  0.1517  0.4635 -0.1946
   61bbb    H17 1766  10.485  10.916   6.404 -1.4486 -3.3806 -1.8265
   61bbb    H18 1767  10.528  10.856   6.241 -0.0805  0.8376 -0.4915
   61bbb     O1 1768  10.850  10.640   6.801  0.1417  0.0790 -0.1440
   62bbb     N1 1769  10.137  10.966   7.623 -0.8259 -0.0815 -0.0328
   62bbb     C1 1770  10.000  11.020   7.606  0.1896 -0.0882  0.4299
   62bbb     H1 1771   9.926  10.957   7.658 -0.1086  2.0641  2.8339
   62bbb     H2 1772   9.964  11.011   7.503 -0.2489  1.4296  0.4171
   62bbb     C2 1773  10.249  11.057   7.573 -0.4043 -0.6216 -0.6209
   62bbb     H3 1774  10.345  11.007   7.591 -0.0390  0.3518  0.2414
   62bbb     H4 1775  10.262  11.144   7.639 -2.2545 -0.2920 -0.6322
   62bbb     C3 1776  10.156  10.827   7.578 -0.4292  0.2868  0.2501
   62bbb     H5 1777  10.162  10.827   7.468 -0.7920 -0.3335  0.2256
   62bbb     H6 1778  10.063  10.769   7.591 -0.2360  0.2531  1.5189
   62bbb     C4 1779  10.274  10.762   7.660  0.8326  0.2530 -0.4390
   62bbb     H7 1780  10.247  10.745   7.765  0.0835  1.8691 -0.3426
   62bbb     H8 1781  10.363  10.825   7.662  1.3027 -0.4242  0.4257
   62bbb     C5 1782   9.987  11.165   7.650 -0.1467 -0.4657  0.0933
   62bbb     H9 1783  10.050  11.226   7.584 -0.1752  0.0762  0.5611
   62bbb    H10 1784  10.036  11.172   7.747 -2.0343 -2.4351  1.2952
   62bbb     C6 1785  10.238  11.101   7.428  0.1478  0.1542  0.1949
   62bbb    H11 1786  10.142  11.149   7.407  0.1991  0.2463  0.1704
   62bbb    H12 1787  10.254  11.011   7.366  2.6718  0.6745 -0.0470
   62bbb     C7 1788  10.300  10.618   7.605  0.2871  0.1268 -0.2901
   62bbb    H13 1789  10.210  10.556   7.598  1.5786 -1.9383  0.5047
   62bbb    H14 1790  10.376  10.571   7.668  1.4555  2.0596 -0.1799
   62bbb     C8 1791  10.355  11.197   7.384  0.5160  0.5845 -0.3789
   62bbb    H15 1792  10.453  11.148   7.379  0.6901  1.0425 -1.7395
   62bbb    H16 1793  10.366  11.278   7.458  1.5375  0.6836 -0.6282
   62bbb     C9 1794   9.839  11.217   7.670  0.2231 -0.0390  0.5900
   62bbb    H17 1795   9.765  11.144   7.704 -0.5447  0.3682 -0.1769
   62bbb    H18 1796   9.816  11.258   7.571 -1.3283  0.7409  1.2451
   62bbb     O1 1797  10.367  10.640   7.476  0.0485 -0.6938  0.0821
   63bbb     N1 1798  12.043  13.117   5.408 -1.1173 -0.1822  0.1574
   63bbb     C1 1799  12.139  13.044   5.495  0.0345  0.3617  0.5727
   63bbb     H1 1800  12.107  13.040   5.600 -0.9508 -0.6230  0.2499
   63bbb     H2 1801  12.237  13.092   5.497  2.2572 -3.7388  0.4975
   63bbb     C2 1802  11.927  13.034   5.360  0.3173  0.1016  0.1455
   63bbb     H3 1803  11.866  13.003   5.446  0.6521  1.7076  1.0033
   63bbb     H4 1804  11.960  12.936   5.323  2.2278  0.9435 -0.4745
   63bbb     C3 1805  12.000  13.246   5.471 -0.2607  0.0504  0.0002
   63bbb     H5 1806  11.930  13.228   5.553  0.9967 -0.9715  0.8794
   63bbb     H6 1807  11.944  13.297   5.391 -0.9183  0.3286  0.6251
   63bbb     C4 1808  12.102  13.347   5.520 -0.0660  0.0416 -0.7459
   63bbb     H7 1809  12.175  13.362   5.440  0.9261  3.4044  0.6138
   63bbb     H8 1810  12.155  13.300   5.604 -2.6993 -0.9859  0.4368
   63bbb     C5 1811  12.182  12.896   5.452  0.5569 -0.5119  0.1451
   63bbb     H9 1812  12.211  12.907   5.347 -0.0176  0.2251  0.0541
   63bbb    H10 1813  12.090  12.838   5.458  0.4695 -0.3463  0.4581
   63bbb     C6 1814  11.842  13.102   5.252  0.0960  0.5448  0.1302
   63bbb    H11 1815  11.783  13.181   5.299 -1.4964 -0.7625  0.4469
   63bbb    H12 1816  11.766  13.034   5.210  0.8680 -1.8280  2.3029
   63bbb     C7 1817  12.031  13.480   5.550 -0.5161 -0.1943  0.7052
   63bbb    H13 1818  11.947  13.464   5.619 -0.0756 -0.9514  1.0784
   63bbb    H14 1819  11.998  13.524   5.455  1.1983 -0.1497  0.0832
   63bbb     C8 1820  11.932  13.164   5.148 -0.6556 -0.1223  0.0446
   63bbb    H15 1821  12.023  13.103   5.140  0.0213  0.9861 -1.0266
   63bbb    H16 1822  11.961  13.261   5.190 -0.9303 -0.0258  0.0180
   63bbb     C9 1823  12.294  12.829   5.535 -0.0105  0.2650 -0.3273
   63bbb    H17 1824  12.325  12.740   5.479  1.7503  0.6692 -0.0480
   63bbb    H18 1825  12.263  12.801   5.636 -0.1610  2.1893  0.1852
   63bbb     O1 1826  12.128  13.574   5.606  0.0573  0.3435  0.8955
   64bbb     N1 1827  11.805  13.971   6.068  0.0620  0.2479  0.5945
   64bbb     C1 1828  11.688  14.045   6.111  0.4932  0.2287 -0.7271
   64bbb     H1 1829  11.637  13.980   6.182  2.2336  0.7273  1.0918
   64bbb     H2 1830  11.630  14.076   6.023  2.0338  2.0644 -1.1814
   64bbb     C2 1831  11.779  13.828   6.040 -0.2311  0.6305 -0.1925
   64bbb     H3 1832  11.708  13.794   6.117 -0.9967  0.1205 -1.0905
   64bbb     H4 1833  11.872  13.772   6.056 -0.2290  0.5749 -0.3974
   64bbb     C3 1834  11.912  14.040   5.990  0.2896  0.2043 -0.6900
   64bbb     H5 1835  11.981  13.959   5.966  0.4665  0.3171 -0.5592
   64bbb     H6 1836  11.958  14.115   6.055 -2.0825  1.4957 -0.3702
   64bbb     C4 1837  11.858  14.122   5.868  0.0533  0.2517 -0.0187
   64bbb     H7 1838  11.775  14.188   5.896 -0.2447  0.0435 -0.4037
   64bbb     H8 1839  11.824  14.055   5.788  1.4841  1.0414 -1.3538
   64bbb     C5 1840  11.720  14.177   6.193  0.5722  0.1720  0.1291
   64bbb     H9 1841  11.622  14.219   6.218  0.0955  0.1965 -1.6479
   64bbb    H10 1842  11.780  14.240   6.126 -0.2589  0.3155 -0.4942
   64bbb     C6 1843  11.720  13.806   5.901 -0.0896 -0.0377 -0.6941
   64bbb    H11 1844  11.799  13.819   5.825  0.5055  0.5542  0.0106
   64bbb    H12 1845  11.640  13.880   5.885  1.0691  1.5063  0.3537
   64bbb     C7 1846  11.974  14.209   5.797  0.0047 -0.0680 -0.0585
   64bbb    H13 1847  12.004  14.282   5.873 -1.3025  2.6672 -1.9987
   64bbb    H14 1848  11.940  14.266   5.710  0.5206 -0.5240 -0.5670
   64bbb     C8 1849  11.666  13.661   5.892  0.9293  0.5444 -0.4001
   64bbb    H15 1850  11.597  13.663   5.977  0.9065  0.6833 -0.4221
   64bbb    H16 1851  11.744  13.591   5.924 -0.3390  0.3406  2.5967
   64bbb     C9 1852  11.794  14.154   6.327 -0.8219  0.0871  0.0494
   64bbb    H17 1853  11.891  14.106   6.309 -1.1144 -0.3087 -0.5363
   64bbb    H18 1854  11.737  14.085   6.390 -1.7833 -0.2452 -1.1458
   64bbb     O1 1855  12.075  14.118   5.764 -0.3107 -0.1867  0.1568
   65bbb     N1 1856  13.164  11.816   6.166 -0.2526  0.4021  0.5302
   65bbb     C1 1857  13.271  11.919   6.179 -0.1732  0.6978 -0.5041
   65bbb     H1 1858  13.284  11.982   6.091 -2.3730  2.1415  0.0970
   65bbb     H2 1859  13.369  11.870   6.183 -0.5026  0.0656 -0.0286
   65bbb     C2 1860  13.186  11.721   6.046 -0.4160  0.2411  0.1406
   65bbb     H3 1861  13.213  11.772   5.953  0.1643 -0.8690 -0.3155
   65bbb     H4 1862  13.101  11.654   6.030 -1.0759  0.6659  1.6995
   65bbb     C3 1863  13.024  11.862   6.179  0.4372  0.8251 -0.2246
   65bbb     H5 1864  12.999  11.896   6.280  0.7108  2.0858 -0.5629
   65bbb     H6 1865  12.953  11.780   6.161  0.3088  1.0881 -0.9539
   65bbb     C4 1866  12.970  11.981   6.089 -0.1758  0.0058  0.1328
   65bbb     H7 1867  12.983  11.956   5.983  2.0855 -0.9329  0.5740
   65bbb     H8 1868  13.029  12.073   6.099  2.3005 -1.6318  1.3709
   65bbb     C5 1869  13.261  12.012   6.304  0.6948 -0.4460 -0.1935
   65bbb     H9 1870  13.234  11.957   6.395 -0.8752  2.0114  0.9269
   65bbb    H10 1871  13.177  12.082   6.297 -0.9992 -2.3581 -0.0821
   65bbb     C6 1872  13.309  11.626   6.070  0.1038 -0.2042 -0.3244
   65bbb    H11 1873  13.293  11.577   6.167  0.6642  1.0446  0.4170
   65bbb    H12 1874  13.396  11.692   6.059  0.5437 -1.0115 -2.0098
   65bbb     C7 1875  12.826  12.024   6.122 -0.5741  0.0030  0.3168
   65bbb    H13 1876  12.830  12.064   6.224 -0.0329  0.8137 -0.0187
   65bbb    H14 1877  12.762  11.936   6.135  0.7687 -0.8017  1.8007
   65bbb     C8 1878  13.307  11.525   5.959  0.2955 -0.4503  0.0574
   65bbb    H15 1879  13.291  11.572   5.861  1.1085  0.6036  0.4059
   65bbb    H16 1880  13.234  11.448   5.985 -0.2390  0.5722  1.7223
   65bbb     C9 1881  13.397  12.083   6.334  0.1282 -0.1676  0.4869
   65bbb    H17 1882  13.486  12.019   6.333  0.5676  0.3042 -3.1114
   65bbb    H18 1883  13.388  12.131   6.432 -0.1491  0.7154  0.0396
   65bbb     O1 1884  12.778  12.124   6.034 -0.0356 -0.5819 -0.0302
   66bbb     N1 1885  11.948  12.187   5.300 -0.0716  0.0524 -0.7749
   66bbb     C1 1886  11.872  12.315   5.262  0.1044  0.1108  0.2461
   66bbb     H1 1887  11.844  12.369   5.354  1.4954  0.6554  0.3703
   66bbb     H2 1888  11.771  12.291   5.226 -0.4437  0.4490  1.4891
   66bbb     C2 1889  11.984  12.103   5.179  0.4454  0.6815 -0.3761
   66bbb     H3 1890  12.019  12.004   5.211 -1.9159  0.3510  1.4737
   66bbb     H4 1891  12.064  12.152   5.121 -1.4307  0.4390 -3.3576
   66bbb     C3 1892  12.060  12.205   5.396  0.0590  0.5755 -0.2848
   66bbb     H5 1893  12.139  12.266   5.350  0.8266 -0.5509 -0.5309
   66bbb     H6 1894  12.109  12.106   5.394 -1.7918 -0.3825 -0.3250
   66bbb     C4 1895  12.024  12.240   5.546 -0.3699 -0.7154 -0.5999
   66bbb     H7 1896  11.958  12.165   5.591  0.7988 -0.9016  0.8869
   66bbb     H8 1897  11.980  12.339   5.560  0.5723 -0.6566  2.7183
   66bbb     C5 1898  11.930  12.411   5.152 -0.0358 -0.2562 -0.8705
   66bbb     H9 1899  11.854  12.488   5.132 -1.5763 -1.3462  0.4305
   66bbb    H10 1900  11.938  12.368   5.052  0.2099  1.5586 -1.6725
   66bbb     C6 1901  11.869  12.070   5.081 -0.4025 -0.4434  0.6179
   66bbb    H11 1902  11.916  12.008   5.005 -2.0260  0.4771 -1.2240
   66bbb    H12 1903  11.820  12.157   5.035 -1.9554 -1.7185 -0.2483
   66bbb     C7 1904  12.145  12.230   5.645 -0.2100 -0.2852  0.5503
   66bbb    H13 1905  12.236  12.207   5.588  0.7386  0.8713  1.5364
   66bbb    H14 1906  12.135  12.156   5.725  0.2875 -1.0286 -0.0622
   66bbb     C8 1907  11.755  11.993   5.161  0.6569  0.3044 -0.1450
   66bbb    H15 1908  11.748  12.042   5.259 -3.3921 -0.0606 -0.0748
   66bbb    H16 1909  11.796  11.892   5.173  2.5776  0.9203 -1.0741
   66bbb     C9 1910  12.065  12.476   5.195 -0.3308 -0.3746 -0.7184
   66bbb    H17 1911  12.147  12.403   5.180  1.9599  1.9223 -0.1430
   66bbb    H18 1912  12.080  12.492   5.302  1.5895 -1.7499 -0.7123
   66bbb     O1 1913  12.166  12.363   5.702 -0.2181  0.3575 -0.1138
   67bbb     N1 1914  12.505  12.863   8.201 -0.2616 -0.3443 -0.5010
   67bbb     C1 1915  12.421  12.757   8.262  0.2237 -0.0852  0.2574
   67bbb     H1 1916  12.474  12.729   8.353 -0.0474  0.5507  0.6168
   67bbb     H2 1917  12.418  12.669   8.197  1.7094 -1.3497  1.8115
   67bbb     C2 1918  12.659  12.867   8.215 -0.0157 -0.4575 -0.3355
   67bbb     H3 1919  12.707  12.946   8.156 -0.0722 -0.2059 -0.0461
   67bbb     H4 1920  12.706  12.778   8.172  0.8928 -0.3645  0.4486
   67bbb     C3 1921  12.453  12.915   8.077 -0.5486 -0.6485 -0.3042
   67bbb     H5 1922  12.507  13.008   8.055  0.1891 -0.7785  0.8648
   67bbb     H6 1923  12.344  12.929   8.076 -0.7598 -1.8317 -2.3797
   67bbb     C4 1924  12.478  12.821   7.963  0.0913 -0.2595  0.4762
   67bbb     H7 1925  12.466  12.715   7.991  3.0231 -1.4104 -1.9868
   67bbb     H8 1926  12.582  12.831   7.929 -0.6496  0.2084 -1.7848
   67bbb     C5 1927  12.277  12.808   8.307 -0.0784  0.5838  0.1401
   67bbb     H9 1928  12.214  12.723   8.337  1.4320  0.5010  3.5263
   67bbb    H10 1929  12.222  12.842   8.219  1.0709 -1.4141 -1.4439
   67bbb     C6 1930  12.710  12.867   8.358 -0.2329  0.3080  0.6548
   67bbb    H11 1931  12.817  12.843   8.360 -0.4408 -1.2945 -2.1980
   67bbb    H12 1932  12.670  12.788   8.424  0.4276 -1.4766 -0.9800
   67bbb     C7 1933  12.384  12.849   7.846  0.1395  0.5544 -0.2497
   67bbb    H13 1934  12.279  12.830   7.873  0.2009  1.0313  0.3450
   67bbb    H14 1935  12.412  12.780   7.765  2.0348 -1.8188  2.2455
   67bbb     C8 1936  12.680  13.000   8.432 -0.1318 -0.3557  0.0919
   67bbb    H15 1937  12.571  13.006   8.444 -0.4362 -0.1801 -2.1352
   67bbb    H16 1938  12.705  13.097   8.386  0.2658  0.4694  1.9825
   67bbb     C9 1939  12.279  12.918   8.418 -0.0320 -0.2709  0.0922
   67bbb    H17 1940  12.293  13.015   8.368 -0.3911 -0.2342  0.0591
   67bbb    H18 1941  12.356  12.901   8.494  0.0802 -0.0498  0.0283
   67bbb     O1 1942  12.398  12.982   7.801 -0.1786 -0.1868 -0.2344
   68bbb     N1 1943  11.906  14.054   7.863 -0.1649  0.0903  0.0791
   68bbb     C1 1944  11.761  14.076   7.883 -0.6405  0.8300  0.2275
   68bbb     H1 1945  11.764  14.167   7.944 -0.9850  1.1052 -0.1612
   68bbb     H2 1946  11.722  13.994   7.946  0.0312  0.5781  0.3215
   68bbb     C2 1947  11.981  14.029   7.988 -0.0566  0.0963  0.1393
   68bbb     H3 1948  12.077  13.980   7.966 -0.5971  0.1854 -2.8063
   68bbb     H4 1949  11.926  13.958   8.051 -1.1087 -0.3267 -1.1899
   68bbb     C3 1950  11.939  13.963   7.748  0.3417 -0.1383 -0.0800
   68bbb     H5 1951  12.049  13.957   7.747  0.5223  2.0963 -0.8965
   68bbb     H6 1952  11.898  14.003   7.654 -2.1401  1.7501  1.6586
   68bbb     C4 1953  11.898  13.815   7.761 -0.1565  0.3353  0.1697
   68bbb     H7 1954  11.789  13.805   7.769  0.0866 -1.8129  1.4451
   68bbb     H8 1955  11.929  13.778   7.860 -1.9663  0.5130  0.8545
   68bbb     C5 1956  11.663  14.085   7.764  0.8409 -0.1265  0.5906
   68bbb     H9 1957  11.663  13.991   7.709 -0.3428  0.1829  0.0360
   68bbb    H10 1958  11.710  14.165   7.705  2.7635 -0.9946  0.8610
   68bbb     C6 1959  12.005  14.161   8.074 -0.1703  0.1106 -0.0562
   68bbb    H11 1960  11.913  14.202   8.118 -0.1862 -0.3241  0.3257
   68bbb    H12 1961  12.042  14.237   8.004  1.3881 -3.4855 -3.4975
   68bbb     C7 1962  11.950  13.724   7.645 -0.0373  0.2417 -0.5407
   68bbb    H13 1963  11.947  13.779   7.550 -0.9599  0.5404 -0.3546
   68bbb    H14 1964  11.885  13.636   7.640 -0.6570  0.5947  0.6596
   68bbb     C8 1965  12.108  14.135   8.187  0.1507 -0.3198  0.3528
   68bbb    H15 1966  12.113  14.225   8.248 -1.7848  0.5078 -0.6039
   68bbb    H16 1967  12.205  14.117   8.140 -0.3745 -1.8000 -0.2563
   68bbb     C9 1968  11.519  14.131   7.804 -0.5630  0.6836  0.5163
   68bbb    H17 1969  11.524  14.213   7.877  1.1947  0.5791  0.5745
   68bbb    H18 1970  11.469  14.039   7.837  1.1076 -0.9890 -1.2692
   68bbb     O1 1971  12.082  13.670   7.687  0.4068 -0.7983  0.3115
   69bbb     N1 1972  13.258  11.923   8.000 -0.5247 -0.2392 -0.9747
   69bbb     C1 1973  13.381  11.928   8.075 -0.4509 -0.1661 -0.2121
   69bbb     H1 1974  13.424  11.827   8.083 -0.1087 -0.0658 -0.7227
   69bbb     H2 1975  13.353  11.955   8.177 -0.5607 -0.2933 -0.2098
   69bbb     C2 1976  13.162  11.827   8.062 -0.2448 -0.6047 -0.4332
   69bbb     H3 1977  13.088  11.868   8.132 -0.6426  0.0112 -1.2045
   69bbb     H4 1978  13.220  11.741   8.097 -0.2701 -0.3320  0.3130
   69bbb     C3 1979  13.194  12.053   7.964 -0.4132  0.5370  0.1925
   69bbb     H5 1980  13.099  12.032   7.913 -0.0480 -2.7720  0.6451
   69bbb     H6 1981  13.262  12.105   7.896  0.5913 -0.4608  0.4068
   69bbb     C4 1982  13.163  12.144   8.085 -0.4876 -0.2065  0.2803
   69bbb     H7 1983  13.235  12.146   8.167  0.3193 -1.7959 -0.3641
   69bbb     H8 1984  13.066  12.115   8.127 -1.8495  3.1244 -0.2410
   69bbb     C5 1985  13.492  12.021   8.021 -0.2527 -0.4775  0.3958
   69bbb     H9 1986  13.467  12.127   8.008  3.1420  0.5454  1.2775
   69bbb    H10 1987  13.518  11.977   7.924  0.7923  0.4360  0.2568
   69bbb     C6 1988  13.067  11.754   7.958  0.6935 -0.5971 -0.7991
   69bbb    H11 1989  13.012  11.826   7.896  0.3264  2.2818  2.5638
   69bbb    H12 1990  12.994  11.694   8.013 -0.2755 -0.6232 -2.0716
   69bbb     C7 1991  13.138  12.295   8.048  0.0130  0.5047  0.4981
   69bbb    H13 1992  13.233  12.333   8.009  0.1754 -1.1931 -0.8698
   69bbb    H14 1993  13.108  12.352   8.137 -1.0305 -0.8787  1.0830
   69bbb     C8 1994  13.142  11.654   7.871 -0.1601  0.0421  0.1920
   69bbb    H15 1995  13.131  11.553   7.912 -1.0303 -0.8731 -2.1138
   69bbb    H16 1996  13.248  11.682   7.863 -0.9461  3.2580 -0.5264
   69bbb     C9 1997  13.626  12.022   8.097 -0.6360  0.0706 -0.1748
   69bbb    H17 1998  13.687  12.108   8.065  0.0563 -0.0110  0.8682
   69bbb    H18 1999  13.679  11.927   8.082 -2.4868 -1.1918  0.9277
   69bbb     O1 2000  13.038  12.312   7.948  0.3028  1.2222  0.0171
   70bbb     N1 2001  14.066  12.489   7.441 -0.2669  0.4596 -0.3231
   70bbb     C1 2002  14.138  12.440   7.555  0.2819  0.1462 -0.1918
   70bbb     H1 2003  14.158  12.332   7.551  1.2723  0.1733  2.2002
   70bbb     H2 2004  14.072  12.474   7.635 -0.8978  0.6020 -1.3124
   70bbb     C2 2005  14.042  12.640   7.446 -0.1533  0.0740 -0.1581
   70bbb     H3 2006  14.138  12.687   7.470  0.1567 -1.1032  1.0487
   70bbb     H4 2007  13.974  12.657   7.531 -0.9615 -0.7522 -0.6238
   70bbb     C3 2008  13.952  12.396   7.407 -0.1021 -0.6913  0.3480
   70bbb     H5 2009  13.982  12.291   7.413  0.6895 -0.4830  0.1663
   70bbb     H6 2010  13.928  12.423   7.303  0.0410 -0.9472  0.2493
   70bbb     C4 2011  13.827  12.417   7.493 -0.0984 -0.3908 -0.2333
   70bbb     H7 2012  13.775  12.511   7.471  1.3018  0.3416 -0.5359
   70bbb     H8 2013  13.857  12.407   7.598 -0.5848  1.1726  0.0798
   70bbb     C5 2014  14.283  12.499   7.581 -0.2191 -0.1472  0.2415
   70bbb     H9 2015  14.270  12.605   7.607 -2.7389  0.2284 -2.0899
   70bbb    H10 2016  14.339  12.505   7.487 -1.5706 -0.9252 -0.6376
   70bbb     C6 2017  13.976  12.689   7.314 -0.1569 -0.3473  0.3973
   70bbb    H11 2018  13.981  12.798   7.326  3.7351 -0.3606  0.2279
   70bbb    H12 2019  13.872  12.656   7.308  0.0310 -0.6863 -3.2843
   70bbb     C7 2020  13.727  12.296   7.478  0.1122 -0.7619 -0.3151
   70bbb    H13 2021  13.767  12.204   7.521  0.4926 -0.4057  0.1013
   70bbb    H14 2022  13.717  12.277   7.370 -1.5260 -1.0657 -0.1347
   70bbb     C8 2023  14.056  12.658   7.185 -0.8723  0.1857  0.4198
   70bbb    H15 2024  14.024  12.558   7.153  0.7712  0.2504 -1.6292
   70bbb    H16 2025  14.162  12.649   7.210 -1.2730  0.1070  2.2483
   70bbb     C9 2026  14.358  12.416   7.691 -0.3908 -0.0975  0.2502
   70bbb    H17 2027  14.453  12.470   7.697 -1.1758  1.3241  0.5725
   70bbb    H18 2028  14.382  12.315   7.658 -1.2328 -0.2231 -0.0186
   70bbb     O1 2029  13.605  12.318   7.547 -0.6073  0.2506  0.4435
   71bbb     N1 2030  10.350  13.020   6.627 -0.4583 -0.2096  0.1424
   71bbb     C1 2031  10.290  13.069   6.758  0.1648 -0.3066  0.6081
   71bbb     H1 2032  10.369  13.101   6.826 -1.2271  0.2707  2.0152
   71bbb     H2 2033  10.235  12.983   6.800 -1.2646  1.3066  2.2481
   71bbb     C2 2034  10.268  12.919   6.553  0.2815 -0.7466  1.0034
   71bbb     H3 2035  10.291  12.928   6.446 -1.3922  0.3211  0.7005
   71bbb     H4 2036  10.160  12.936   6.556  0.0958 -0.4623 -2.8073
   71bbb     C3 2037  10.500  13.002   6.613  0.5822 -0.1737  0.3387
   71bbb     H5 2038  10.539  12.929   6.685  1.9175 -0.3880 -0.5796
   71bbb     H6 2039  10.535  13.100   6.647 -1.5788  0.8757 -0.2273
   71bbb     C4 2040  10.555  12.959   6.473  0.2605 -0.4117 -1.0873
   71bbb     H7 2041  10.527  13.040   6.404  0.6029 -0.4745 -1.3012
   71bbb     H8 2042  10.502  12.874   6.429 -2.1392  0.5424 -0.2087
   71bbb     C5 2043  10.195  13.186   6.732 -0.3616  0.0867  0.6295
   71bbb     H9 2044  10.152  13.215   6.828  0.5816  1.9035  0.5499
   71bbb    H10 2045  10.112  13.150   6.670 -0.8010  1.4448  0.3891
   71bbb     C6 2046  10.282  12.772   6.592  0.1783 -0.6696 -0.0872
   71bbb    H11 2047  10.243  12.757   6.693  1.4539  2.7546  1.0476
   71bbb    H12 2048  10.390  12.753   6.591  0.6340  1.6923 -1.1910
   71bbb     C7 2049  10.702  12.936   6.484 -0.3052 -0.1588 -0.7120
   71bbb    H13 2050  10.744  13.012   6.550 -1.1865  2.0859 -2.6200
   71bbb    H14 2051  10.746  12.943   6.384 -1.1529 -2.2333 -1.2872
   71bbb     C8 2052  10.204  12.677   6.505  0.0024 -0.1311 -0.7102
   71bbb    H15 2053  10.213  12.574   6.541  2.1260 -1.1922 -3.8611
   71bbb    H16 2054  10.247  12.680   6.404  2.3658 -0.6066  0.2352
   71bbb     C9 2055  10.265  13.305   6.660 -1.4442 -0.1850 -0.7122
   71bbb    H17 2056  10.303  13.270   6.563  0.9250 -0.4551  0.2469
   71bbb    H18 2057  10.350  13.333   6.724 -1.6226  0.7430 -0.8663
   71bbb     O1 2058  10.729  12.802   6.535  0.1641  0.1250 -0.5849
   72bbb     N1 2059  11.112  11.890   6.063  0.2056 -0.8095 -0.4924
   72bbb     C1 2060  11.199  12.001   6.013 -0.0684 -0.2643  0.1215
   72bbb     H1 2061  11.184  12.090   6.075 -4.0752 -1.1328  0.7108
   72bbb     H2 2062  11.157  12.035   5.918  1.8266 -1.5806 -1.2571
   72bbb     C2 2063  11.116  11.772   5.970 -0.0688 -0.2613 -0.0114
   72bbb     H3 2064  11.085  11.684   6.028 -0.6655  0.3412  0.6046
   72bbb     H4 2065  11.221  11.747   5.954  0.1846  1.5986 -1.6493
   72bbb     C3 2066  10.981  11.944   6.107  0.1400  0.1912  0.2170
   72bbb     H5 2067  10.921  11.983   6.024  0.5598 -2.1301 -1.2723
   72bbb     H6 2068  11.001  12.020   6.183  2.0133  0.6968 -0.7217
   72bbb     C4 2069  10.886  11.836   6.163 -0.1966 -0.1566 -0.4377
   72bbb     H7 2070  10.934  11.792   6.250  1.5698  0.4092 -1.0769
   72bbb     H8 2071  10.885  11.751   6.094  1.5291 -1.7726  1.4441
   72bbb     C5 2072  11.347  11.962   6.003 -0.1425 -0.1949  0.7518
   72bbb     H9 2073  11.399  12.057   5.987  0.4997 -0.4298  1.3852
   72bbb    H10 2074  11.371  11.894   5.921  3.3503 -1.1250  2.3727
   72bbb     C6 2075  11.036  11.792   5.834 -0.1839 -0.2637  0.2092
   72bbb    H11 2076  11.082  11.876   5.782 -1.0286  1.2539  1.7991
   72bbb    H12 2077  10.935  11.829   5.857 -0.4565 -0.1751 -1.0636
   72bbb     C7 2078  10.743  11.893   6.200 -0.0853  0.8416 -0.0481
   72bbb    H13 2079  10.684  11.810   6.239  0.8215  0.1322 -0.1448
   72bbb    H14 2080  10.691  11.934   6.112  0.2668  0.5712 -0.3879
   72bbb     C8 2081  11.022  11.661   5.746  0.0288 -0.5835 -0.3964
   72bbb    H15 2082  10.956  11.595   5.804  0.4109 -0.7800 -0.1728
   72bbb    H16 2083  11.122  11.616   5.750  1.2129  1.8232 -1.1397
   72bbb     C9 2084  11.400  11.894   6.134 -0.3206  0.3904  0.7466
   72bbb    H17 2085  11.369  11.789   6.133  1.1740 -0.0966 -1.8951
   72bbb    H18 2086  11.367  11.946   6.226  1.7799  2.8204  0.2489
   72bbb     O1 2087  10.757  11.996   6.295  0.1396 -0.2108  0.4706
   73bbb     N1 2088  10.748  13.613   5.910  0.1152  0.4227 -0.4226
   73bbb     C1 2089  10.645  13.658   6.007 -0.0246 -0.2941 -0.1837
   73bbb     H1 2090  10.673  13.739   6.075 -2.0845  0.1627  0.1699
   73bbb     H2 2091  10.625  13.567   6.065  1.8163 -0.0497  0.9099
   73bbb     C2 2092  10.886  13.622   5.971 -0.4458  0.0774  0.2784
   73bbb     H3 2093  10.905  13.721   6.013  0.4058 -0.5158  1.3340
   73bbb     H4 2094  10.955  13.606   5.887  0.7220  3.3808  0.4566
   73bbb     C3 2095  10.716  13.486   5.833 -0.3637  0.1951  0.2413
   73bbb     H5 2096  10.614  13.482   5.792 -0.5245  1.5866  0.4525
   73bbb     H6 2097  10.730  13.397   5.895 -0.7291  1.0521  1.6006
   73bbb     C4 2098  10.813  13.465   5.717 -0.6101 -0.3324 -0.2962
   73bbb     H7 2099  10.917  13.469   5.750 -1.0269 -1.1759  1.2118
   73bbb     H8 2100  10.792  13.543   5.643 -0.1998  0.7767  0.7356
   73bbb     C5 2101  10.524  13.711   5.940  0.6358 -0.0738  0.0375
   73bbb     H9 2102  10.506  13.635   5.863  1.3615  0.1579 -0.3694
   73bbb    H10 2103  10.552  13.805   5.890 -1.0082 -0.2381 -1.2594
   73bbb     C6 2104  10.919  13.516   6.077  0.5009  0.6406  0.4477
   73bbb    H11 2105  10.919  13.420   6.025  3.0917  0.3519  0.8520
   73bbb    H12 2106  10.844  13.515   6.157  0.2129  2.1534  0.2264
   73bbb     C7 2107  10.788  13.335   5.644  0.6000  0.1777  0.5468
   73bbb    H13 2108  10.828  13.339   5.542  0.3858  0.4574  0.4715
   73bbb    H14 2109  10.679  13.325   5.637  0.7095 -1.4388  0.7039
   73bbb     C8 2110  11.060  13.537   6.135  0.3674  0.4530  0.0131
   73bbb    H15 2111  11.062  13.640   6.172 -0.6346  1.1850 -1.8806
   73bbb    H16 2112  11.137  13.524   6.059 -1.2559 -2.5732 -1.2782
   73bbb     C9 2113  10.405  13.743   6.034 -0.2313 -0.2348  0.1111
   73bbb    H17 2114  10.355  13.652   6.069  0.2861 -0.3593  0.5401
   73bbb    H18 2115  10.326  13.797   5.981  0.1118  0.3668  0.1927
   73bbb     O1 2116  10.842  13.222   5.720 -0.5362  0.2198  0.1598
   74bbb     N1 2117  11.170  12.647   5.427  0.0829 -0.2859 -0.0452
   74bbb     C1 2118  11.187  12.518   5.349 -0.4774  0.1110  0.0900
   74bbb     H1 2119  11.224  12.543   5.248 -1.6076  1.2579 -0.0619
   74bbb     H2 2120  11.092  12.467   5.327 -2.3166  3.1155  0.5860
   74bbb     C2 2121  11.068  12.738   5.372 -0.4992 -0.4650 -0.1120
   74bbb     H3 2122  10.966  12.698   5.382 -0.0598 -1.3350  1.0827
   74bbb     H4 2123  11.084  12.747   5.264 -4.0979  0.4459 -0.7203
   74bbb     C3 2124  11.129  12.617   5.566  0.1256  0.6078  1.0454
   74bbb     H5 2125  11.128  12.710   5.624  0.7361  1.6286 -0.5189
   74bbb     H6 2126  11.203  12.551   5.612 -0.2875  0.2613  1.2188
   74bbb     C4 2127  10.988  12.540   5.590  0.2558  0.0160  0.3520
   74bbb     H7 2128  10.997  12.435   5.558  2.3417 -0.0507  1.0530
   74bbb     H8 2129  10.899  12.588   5.548  0.2580  2.9140  3.3194
   74bbb     C5 2130  11.293  12.415   5.403 -0.5305  0.4596 -0.1176
   74bbb     H9 2131  11.255  12.372   5.497  2.1852  0.9567  1.3443
   74bbb    H10 2132  11.388  12.455   5.441  0.5812 -3.4953  1.8699
   74bbb     C6 2133  11.073  12.883   5.429 -0.0607 -0.1402  0.5333
   74bbb    H11 2134  11.172  12.928   5.418 -0.3820  0.4550  0.0076
   74bbb    H12 2135  11.052  12.879   5.537 -1.7171  1.4524  0.3208
   74bbb     C7 2136  10.953  12.533   5.738  0.1121  0.2561  1.0795
   74bbb    H13 2137  11.039  12.493   5.795 -0.4467 -1.0607  1.0394
   74bbb    H14 2138  10.863  12.472   5.752  0.1055 -0.5138 -1.6664
   74bbb     C8 2139  10.964  12.968   5.357  0.1477 -0.5224  0.4534
   74bbb    H15 2140  10.987  12.965   5.250 -0.6369 -0.1967  0.2716
   74bbb    H16 2141  10.975  13.071   5.394  0.8355 -0.6259  0.5482
   74bbb     C9 2142  11.322  12.308   5.295 -0.1789  0.3830  0.3010
   74bbb    H17 2143  11.221  12.276   5.266 -0.1184  0.5476 -0.0946
   74bbb    H18 2144  11.379  12.221   5.329  2.5973  2.2140  0.6456
   74bbb     O1 2145  10.925  12.661   5.783  0.0664 -0.3531  0.5594
   75bbb     N1 2146  12.710  12.361   8.250 -0.1538 -0.2012  0.1438
   75bbb     C1 2147  12.602  12.391   8.357  0.3250 -0.5330 -0.8164
   75bbb     H1 2148  12.565  12.494   8.347  0.8139 -0.4568 -2.0430
   75bbb     H2 2149  12.647  12.385   8.456 -1.1563 -1.3186 -0.1529
   75bbb     C2 2150  12.809  12.463   8.230  0.9635 -0.2467  0.6523
   75bbb     H3 2151  12.758  12.547   8.183  0.1305 -1.0582  0.0646
   75bbb     H4 2152  12.888  12.418   8.169  3.1470  0.6229  2.6639
   75bbb     C3 2153  12.658  12.325   8.113  0.2981  0.3134 -0.1822
   75bbb     H5 2154  12.582  12.246   8.124  1.6150 -0.6937  2.5365
   75bbb     H6 2155  12.740  12.284   8.052  2.2083 -1.8162  3.5146
   75bbb     C4 2156  12.574  12.435   8.050 -0.2457  0.1997  0.8562
   75bbb     H7 2157  12.627  12.527   8.024 -2.1338  0.7767 -1.2804
   75bbb     H8 2158  12.489  12.472   8.109 -1.7878 -0.4718 -0.8337
   75bbb     C5 2159  12.492  12.278   8.366 -0.4233  0.5442 -0.1012
   75bbb     H9 2160  12.545  12.183   8.382  0.0374  0.1980 -3.1007
   75bbb    H10 2161  12.445  12.275   8.267 -0.8844 -2.2616  0.1200
   75bbb     C6 2162  12.875  12.511   8.357  0.1644  0.1936 -0.1138
   75bbb    H11 2163  12.896  12.431   8.429  0.8549 -0.4282 -0.9703
   75bbb    H12 2164  12.809  12.580   8.410  1.2518 -0.1972  1.8246
   75bbb     C7 2165  12.513  12.392   7.911  0.9045  0.4513  0.2427
   75bbb    H13 2166  12.457  12.299   7.923  2.6239 -0.4394  1.9286
   75bbb    H14 2167  12.595  12.384   7.838  1.4512  0.5143  0.8396
   75bbb     C8 2168  13.014  12.576   8.341 -0.1112 -0.2774  0.2881
   75bbb    H15 2169  13.090  12.502   8.312  0.7032 -0.5500  2.9030
   75bbb    H16 2170  13.046  12.616   8.438 -1.2166  1.8143 -0.1601
   75bbb     C9 2171  12.385  12.311   8.475  0.0745 -0.9845  0.2158
   75bbb    H17 2172  12.415  12.315   8.580 -1.2795 -1.4923  0.6419
   75bbb    H18 2173  12.313  12.229   8.470 -0.4690 -0.4530 -1.1738
   75bbb     O1 2174  12.425  12.501   7.862 -0.3381 -0.4706  0.2591
   76bbb     N1 2175  11.592  12.539   8.527 -0.0958 -0.5861  0.0966
   76bbb     C1 2176  11.473  12.574   8.437 -0.0113 -0.5535 -0.1010
   76bbb     H1 2177  11.385  12.591   8.500  0.3500  0.3005  0.1867
   76bbb     H2 2178  11.440  12.493   8.370  0.2391  0.5347 -1.5939
   76bbb     C2 2179  11.619  12.638   8.632  0.4332 -0.2437  0.3855
   76bbb     H3 2180  11.660  12.728   8.585 -0.1827 -0.5274 -0.7276
   76bbb     H4 2181  11.696  12.601   8.700  1.6862  1.1610 -0.2265
   76bbb     C3 2182  11.705  12.487   8.449 -0.1073 -0.3288  0.0796
   76bbb     H5 2183  11.766  12.567   8.405 -1.9682  0.8620 -0.4461
   76bbb     H6 2184  11.662  12.426   8.369  0.3636  1.0229 -1.2461
   76bbb     C4 2185  11.797  12.400   8.533 -0.2523  0.3225 -1.0278
   76bbb     H7 2186  11.735  12.341   8.602  1.2900  2.1437  2.1573
   76bbb     H8 2187  11.876  12.451   8.589  0.8927 -2.7844  0.4170
   76bbb     C5 2188  11.500  12.699   8.350 -0.1892 -0.5894 -0.2706
   76bbb     H9 2189  11.577  12.668   8.279  2.9894 -1.8029  3.3891
   76bbb    H10 2190  11.531  12.782   8.415 -2.0818 -0.7636  0.9690
   76bbb     C6 2191  11.506  12.680   8.728 -0.5629  0.7055  0.9569
   76bbb    H11 2192  11.552  12.682   8.827  0.0152 -0.4191  0.7337
   76bbb    H12 2193  11.431  12.599   8.728  2.3978 -2.2362  0.4886
   76bbb     C7 2194  11.871  12.299   8.439 -0.3544  0.0125 -1.1339
   76bbb    H13 2195  11.801  12.223   8.403  0.6497 -1.6658  0.2918
   76bbb    H14 2196  11.953  12.251   8.495 -1.9566 -0.4564  0.9377
   76bbb     C8 2197  11.448  12.817   8.692 -0.4276  0.3585 -0.0696
   76bbb    H15 2198  11.384  12.791   8.606 -0.1289 -0.5045 -0.0403
   76bbb    H16 2199  11.518  12.897   8.666 -2.3939  1.5158 -2.2544
   76bbb     C9 2200  11.365  12.749   8.281  0.2028 -0.3645  0.7514
   76bbb    H17 2201  11.380  12.851   8.244 -1.9341  1.1573  3.6432
   76bbb    H18 2202  11.285  12.768   8.354 -0.4871  2.5540 -0.6025
   76bbb     O1 2203  11.927  12.373   8.333  0.1388 -0.5516  0.1081
   77bbb     N1 2204  11.973  13.455   7.296 -0.6176  0.3551 -0.4011
   77bbb     C1 2205  11.923  13.316   7.338  1.0435  0.0557  0.2257
   77bbb     H1 2206  11.840  13.286   7.274  1.8799 -1.6366 -0.1434
   77bbb     H2 2207  11.869  13.324   7.433  1.0011  2.4252  0.0472
   77bbb     C2 2208  12.049  13.461   7.172 -0.5743  0.4574 -0.3333
   77bbb     H3 2209  11.975  13.446   7.092  0.1489  1.5252 -1.2415
   77bbb     H4 2210  12.124  13.382   7.165  0.4836  1.5518 -2.1185
   77bbb     C3 2211  11.868  13.563   7.302  0.0534 -0.0748 -0.1232
   77bbb     H5 2212  11.853  13.613   7.206  1.3030  1.0801  0.2580
   77bbb     H6 2213  11.903  13.653   7.354 -1.8941  0.4683  0.3153
   77bbb     C4 2214  11.732  13.531   7.362 -0.0720 -0.2107 -0.4845
   77bbb     H7 2215  11.740  13.507   7.469 -3.7671  1.5379  0.3364
   77bbb     H8 2216  11.682  13.446   7.314 -0.3894  0.7792 -1.9649
   77bbb     C5 2217  12.031  13.204   7.355  0.7632 -0.0340 -0.2007
   77bbb     H9 2218  12.115  13.243   7.414  0.5039  1.6118 -0.8527
   77bbb    H10 2219  12.073  13.168   7.261  1.2930  2.9351 -1.2064
   77bbb     C6 2220  12.132  13.596   7.148  0.3076  0.1295  0.1684
   77bbb    H11 2221  12.205  13.607   7.228 -0.0577  1.9968  0.2968
   77bbb    H12 2222  12.070  13.687   7.153  1.6666  1.1556 -0.8638
   77bbb     C7 2223  11.630  13.654   7.378 -0.5783  0.2659  0.3594
   77bbb    H13 2224  11.597  13.681   7.277  0.8565 -0.0026 -0.2086
   77bbb    H14 2225  11.683  13.737   7.426 -0.7574 -0.2265  1.4388
   77bbb     C8 2226  12.219  13.603   7.023  0.2241  0.2756  0.1044
   77bbb    H15 2227  12.287  13.518   7.028 -0.7466 -0.8063 -2.8418
   77bbb    H16 2228  12.281  13.694   7.016  2.2550 -1.0773 -0.3077
   77bbb     C9 2229  11.976  13.082   7.425 -0.0104  0.3267 -0.0302
   77bbb    H17 2230  12.052  13.006   7.445  0.5399  1.6247  3.3610
   77bbb    H18 2231  11.896  13.032   7.369 -0.2533  0.3558  0.2853
   77bbb     O1 2232  11.527  13.635   7.472  0.6770 -0.2568  0.5122
   78bbb     N1 2233  10.895  14.261   7.046  0.4989  0.3825 -0.3823
   78bbb     C1 2234  11.001  14.234   6.950  0.1348  0.4492  0.2939
   78bbb     H1 2235  10.987  14.129   6.924  1.3876 -0.3585  2.6906
   78bbb     H2 2236  11.101  14.234   6.993  1.4345 -1.5842 -2.3925
   78bbb     C2 2237  10.751  14.273   6.998  0.4559  0.1738  0.3055
   78bbb     H3 2238  10.733  14.343   6.916 -2.3848 -2.2647 -1.3606
   78bbb     H4 2239  10.685  14.313   7.076  0.2317 -1.8717  1.2401
   78bbb     C3 2240  10.922  14.174   7.166 -0.5992  0.3240  0.6613
   78bbb     H5 2241  11.025  14.198   7.196  0.2569  0.4359 -2.0979
   78bbb     H6 2242  10.936  14.069   7.139 -0.8645  0.8065 -1.5221
   78bbb     C4 2243  10.818  14.192   7.277  0.7177 -0.2331 -0.4277
   78bbb     H7 2244  10.735  14.121   7.265 -0.1601  0.7302 -0.1676
   78bbb     H8 2245  10.777  14.293   7.282 -0.6438 -0.8108  0.4518
   78bbb     C5 2246  11.004  14.321   6.822 -0.0901  0.2812 -0.5460
   78bbb     H9 2247  11.106  14.312   6.782  1.4472 -3.0976  3.4910
   78bbb    H10 2248  10.991  14.426   6.853 -1.9723  0.4564 -1.7623
   78bbb     C6 2249  10.686  14.132   6.947 -0.1122 -0.3359  0.1264
   78bbb    H11 2250  10.714  14.052   7.017  1.3224 -0.6096 -0.7438
   78bbb    H12 2251  10.740  14.112   6.854  1.1004 -0.4647  0.8473
   78bbb     C7 2252  10.875  14.140   7.410 -0.1295  0.5326 -0.5837
   78bbb    H13 2253  10.807  14.151   7.496  0.8373  5.0309 -0.1381
   78bbb    H14 2254  10.960  14.205   7.435  0.8504 -1.5470  1.9828
   78bbb     C8 2255  10.532  14.133   6.946  0.2554  0.4900  0.7394
   78bbb    H15 2256  10.503  14.181   7.041  0.6345 -1.4623  1.8885
   78bbb    H16 2257  10.492  14.032   6.936 -1.2898  1.3285 -3.5516
   78bbb     C9 2258  10.898  14.276   6.713 -0.1465 -0.3273  0.6883
   78bbb    H17 2259  10.801  14.318   6.743 -1.0010 -1.7057 -0.0192
   78bbb    H18 2260  10.885  14.168   6.703 -1.6366 -0.2025  1.0030
   78bbb     O1 2261  10.922  14.008   7.410 -0.1541  0.4486  0.9921
   79bbb     N1 2262  13.128  10.217   5.366  0.0154 -0.0172  0.4089
   79bbb     C1 2263  13.044  10.091   5.387 -0.2960 -0.7181  0.6460
   79bbb     H1 2264  12.983  10.068   5.298 -1.0371  0.2068  0.9015
   79bbb     H2 2265  12.973  10.108   5.468 -0.5902  1.2425  0.0209
   79bbb     C2 2266  13.218  10.217   5.253 -0.3441 -0.0817 -0.4375
   79bbb     H3 2267  13.172  10.203   5.154 -0.5049  2.6797 -0.8229
   79bbb     H4 2268  13.278  10.128   5.279  0.5586  0.9864  1.3204
   79bbb     C3 2269  13.048  10.347   5.382  0.7688  0.2349  0.6026
   79bbb     H5 2270  13.114  10.434   5.388  1.9998 -0.6856  0.7205
   79bbb     H6 2271  12.994  10.327   5.475  0.0580 -1.8720 -0.1897
   79bbb     C4 2272  12.953  10.358   5.258  0.3131 -1.3566  0.2978
   79bbb     H7 2273  12.884  10.274   5.246  0.5704 -1.4020 -0.9307
   79bbb     H8 2274  13.004  10.357   5.161  0.5969  1.0067  0.3633
   79bbb     C5 2275  13.120   9.967   5.427  0.0610 -0.4460  0.8450
   79bbb     H9 2276  13.192   9.939   5.349 -0.0388 -1.1637  1.0088
   79bbb    H10 2277  13.047   9.886   5.433  0.4453 -1.1077 -1.9431
   79bbb     C6 2278  13.315  10.335   5.244 -0.7918  0.5963 -0.6759
   79bbb    H11 2279  13.253  10.423   5.225 -2.7405 -0.3898  0.7628
   79bbb    H12 2280  13.384  10.318   5.160 -0.2180  1.8580 -0.4937
   79bbb     C7 2281  12.880  10.499   5.266 -0.4857 -0.1451 -0.4963
   79bbb    H13 2282  12.854  10.525   5.163 -1.3027  0.1949 -0.2056
   79bbb    H14 2283  12.941  10.580   5.308 -0.5291 -0.1581 -0.4092
   79bbb     C8 2284  13.402  10.350   5.373  0.4122  0.8429  0.4445
   79bbb    H15 2285  13.335  10.363   5.458 -1.2024  1.9141 -0.9126
   79bbb    H16 2286  13.460  10.443   5.373  1.0643  0.4534 -0.4248
   79bbb     C9 2287  13.194   9.993   5.563  0.4663  0.5528  0.0074
   79bbb    H17 2288  13.130  10.034   5.643 -0.4250 -0.5121 -0.1471
   79bbb    H18 2289  13.282  10.055   5.541  1.1278 -0.8427 -1.3965
   79bbb     O1 2290  12.761  10.481   5.347  0.3708 -0.2348 -0.3802
   80bbb     N1 2291  13.060  11.321   5.504  0.0781  0.4860 -0.5163
   80bbb     C1 2292  13.082  11.463   5.462  0.1179 -0.6586 -0.4919
   80bbb     H1 2293  12.993  11.514   5.422 -0.3998 -1.1172  0.0776
   80bbb     H2 2294  13.163  11.471   5.388  0.0080  1.0622 -0.4679
   80bbb     C2 2295  13.042  11.236   5.384 -0.0028  0.3189  0.0662
   80bbb     H3 2296  13.121  11.268   5.315  0.7829 -0.5733  0.5241
   80bbb     H4 2297  12.947  11.263   5.336 -1.0430 -0.7858  1.4004
   80bbb     C3 2298  12.953  11.290   5.600  0.3543 -0.4116 -0.3009
   80bbb     H5 2299  12.977  11.346   5.691  0.9590 -0.1003 -0.6429
   80bbb     H6 2300  12.961  11.188   5.637 -2.6239 -0.5841  0.1267
   80bbb     C4 2301  12.806  11.342   5.570  0.0920  0.1303 -0.6615
   80bbb     H7 2302  12.779  11.301   5.471  0.3930 -1.9286  0.0703
   80bbb     H8 2303  12.794  11.451   5.579  1.7370  0.3071 -0.3641
   80bbb     C5 2304  13.133  11.547   5.586  0.0549  0.3837  0.1043
   80bbb     H9 2305  13.232  11.510   5.619  1.2262  1.8647 -1.5603
   80bbb    H10 2306  13.067  11.540   5.673  0.1230  3.1972  0.4616
   80bbb     C6 2307  13.043  11.083   5.401  0.4058 -0.3559  0.5587
   80bbb    H11 2308  12.968  11.053   5.475  1.0092  0.0408  1.3507
   80bbb    H12 2309  13.138  11.047   5.443  1.8721  0.5542 -1.7470
   80bbb     C7 2310  12.710  11.281   5.677 -0.0806  0.0528 -0.5506
   80bbb    H13 2311  12.604  11.309   5.669 -0.4632 -1.1915 -0.1304
   80bbb    H14 2312  12.736  11.325   5.773 -0.0345  0.5784 -0.8007
   80bbb     C8 2313  13.022  11.003   5.266 -0.1785 -1.0076  0.0602
   80bbb    H15 2314  13.027  10.896   5.291  0.8621 -0.4588  2.5438
   80bbb    H16 2315  13.107  11.008   5.196  0.2388 -0.1621  0.6088
   80bbb     C9 2316  13.149  11.697   5.564  0.1858  0.5722  0.1697
   80bbb    H17 2317  13.062  11.738   5.511 -0.2275 -0.0108  0.3869
   80bbb    H18 2318  13.234  11.708   5.495  0.2590 -0.7397  0.0216
   80bbb     O1 2319  12.723  11.140   5.677  0.3023  0.5458 -0.0895
   81bbb     N1 2320  11.575  11.015   5.595 -0.5237 -0.5262 -0.0166
   81bbb     C1 2321  11.634  11.043   5.457  0.2356 -0.1683  0.8891
   81bbb     H1 2322  11.731  10.995   5.441  0.7905  0.5119  2.0694
   81bbb     H2 2323  11.656  11.150   5.464  1.2968 -0.3806  0.9589
   81bbb     C2 2324  11.431  11.048   5.613 -0.1009  0.2406 -0.0567
   81bbb     H3 2325  11.399  10.992   5.702  1.6576  1.1844  1.2162
   81bbb     H4 2326  11.363  11.014   5.534  2.1027  0.1130 -1.9867
   81bbb     C3 2327  11.676  11.055   5.705  0.0241  0.5037  0.8393
   81bbb     H5 2328  11.627  11.030   5.800  1.5654 -2.0920  1.0512
   81bbb     H6 2329  11.690  11.163   5.692 -3.1542  0.9301  0.0555
   81bbb     C4 2330  11.810  10.968   5.700  0.0375 -0.5115 -0.1908
   81bbb     H7 2331  11.859  10.989   5.605  1.2537 -0.3574  0.4559
   81bbb     H8 2332  11.791  10.860   5.707 -0.6785 -0.3955 -0.2246
   81bbb     C5 2333  11.540  11.014   5.341  0.1335  0.4912  0.0350
   81bbb     H9 2334  11.456  11.084   5.346  0.4587  0.7737  2.0428
   81bbb    H10 2335  11.496  10.914   5.347  0.0097  0.4360 -1.4101
   81bbb     C6 2336  11.405  11.203   5.642 -0.7635  0.7430 -0.1924
   81bbb    H11 2337  11.481  11.255   5.582  0.1901 -0.2887  0.0734
   81bbb    H12 2338  11.442  11.227   5.743 -0.2766  1.7469 -0.6012
   81bbb     C7 2339  11.888  11.004   5.821  0.0301 -0.8095  0.1591
   81bbb    H13 2340  11.979  10.944   5.824  0.6365 -0.2066 -2.9847
   81bbb    H14 2341  11.828  10.971   5.907 -1.8209  1.5487 -0.1117
   81bbb     C8 2342  11.260  11.254   5.615 -0.3237 -0.2071 -0.1972
   81bbb    H15 2343  11.235  11.229   5.512 -1.0467  0.2797 -0.1480
   81bbb    H16 2344  11.263  11.362   5.634  2.9095 -0.0699 -0.8906
   81bbb     C9 2345  11.617  11.031   5.204 -0.4894  0.2700 -0.1233
   81bbb    H17 2346  11.684  10.944   5.196  0.1144  0.2546  3.4407
   81bbb    H18 2347  11.675  11.123   5.214 -0.9717  0.3511  2.5428
   81bbb     O1 2348  11.922  11.138   5.838 -0.3452 -0.8996  0.4947
   82bbb     N1 2349  11.925  11.221   4.833  0.1516 -0.6334  0.3059
   82bbb     C1 2350  11.918  11.088   4.771 -0.3621  0.2812 -0.2260
   82bbb     H1 2351  11.872  11.086   4.672  1.2962 -0.1250 -1.0258
   82bbb     H2 2352  11.844  11.032   4.831  0.7827 -2.3747 -1.1507
   82bbb     C2 2353  11.982  11.325   4.746 -1.1513 -0.2431  0.2050
   82bbb     H3 2354  12.073  11.285   4.698 -1.5780  0.5851 -1.3505
   82bbb     H4 2355  12.008  11.411   4.808 -0.1467 -1.2969  1.3096
   82bbb     C3 2356  11.995  11.223   4.964 -0.8911 -0.0481  0.1659
   82bbb     H5 2357  11.994  11.330   4.990 -3.0691 -0.1925  0.8243
   82bbb     H6 2358  12.099  11.186   4.964 -0.8313  0.1114  0.4640
   82bbb     C4 2359  11.924  11.151   5.079  0.6871  0.0311  0.6272
   82bbb     H7 2360  11.879  11.059   5.041  0.4918  0.3297  0.1289
   82bbb     H8 2361  11.846  11.219   5.118  2.8097  1.8281  1.9667
   82bbb     C5 2362  12.050  11.003   4.768  0.3523 -0.0438 -0.7573
   82bbb     H9 2363  12.109  11.009   4.860  1.5135 -1.1919 -1.3919
   82bbb    H10 2364  12.116  11.057   4.699 -0.4950  2.9860  0.6265
   82bbb     C6 2365  11.889  11.368   4.632  0.0472  0.3550  0.2736
   82bbb    H11 2366  11.803  11.409   4.687 -0.4352  2.3920 -1.8446
   82bbb    H12 2367  11.852  11.290   4.565  1.6149  0.7178 -1.0735
   82bbb     C7 2368  12.022  11.118   5.194  0.0949 -0.5437  0.1353
   82bbb    H13 2369  12.105  11.069   5.141  3.4172  1.3796  3.0913
   82bbb    H14 2370  11.980  11.050   5.268  0.6756 -0.5895  0.4235
   82bbb     C8 2371  11.952  11.484   4.544 -0.5483 -0.6082 -0.5234
   82bbb    H15 2372  11.870  11.526   4.485  1.0274  2.2854 -0.8245
   82bbb    H16 2373  12.036  11.453   4.481 -0.9985 -0.0605 -1.4137
   82bbb     C9 2374  12.028  10.849   4.759  0.3424 -0.3081  0.1386
   82bbb    H17 2375  12.125  10.797   4.757  0.4060 -0.1648 -1.1593
   82bbb    H18 2376  11.978  10.818   4.667  0.3257  1.2471 -0.4151
   82bbb     O1 2377  12.069  11.239   5.260 -0.4119  0.2422  0.6102
   83bbb     N1 2378  13.275  10.710   7.036  0.3185  0.0130  0.1981
   83bbb     C1 2379  13.344  10.591   7.088 -0.0359 -0.1761 -0.8187
   83bbb     H1 2380  13.448  10.594   7.055 -0.3050  0.2129 -1.6693
   83bbb     H2 2381  13.312  10.496   7.043 -0.9209 -1.2056  1.7589
   83bbb     C2 2382  13.330  10.849   7.072  0.7164  0.4882 -0.0867
   83bbb     H3 2383  13.334  10.858   7.182 -1.8737 -2.0718  0.3317
   83bbb     H4 2384  13.265  10.926   7.029 -0.8244 -0.2325  0.8458
   83bbb     C3 2385  13.125  10.704   7.047 -0.0734 -0.4202 -0.2648
   83bbb     H5 2386  13.093  10.805   7.017  0.3805 -0.3517 -0.5235
   83bbb     H6 2387  13.094  10.693   7.152 -1.9802 -1.5241 -0.9038
   83bbb     C4 2388  13.055  10.607   6.950 -0.4695  0.7003 -0.4354
   83bbb     H7 2389  13.119  10.599   6.861  0.0108 -0.4178 -0.0026
   83bbb     H8 2390  12.960  10.651   6.915 -1.3651 -1.7444 -1.2996
   83bbb     C5 2391  13.330  10.582   7.248  0.2206 -0.2676  0.1880
   83bbb     H9 2392  13.292  10.483   7.274  2.2846 -1.2136 -0.2342
   83bbb    H10 2393  13.248  10.650   7.274 -0.1189 -0.4561 -0.3759
   83bbb     C6 2394  13.469  10.878   7.020  0.2561  0.0800 -0.0725
   83bbb    H11 2395  13.461  10.863   6.911 -0.4756  1.4829 -0.2370
   83bbb    H12 2396  13.538  10.805   7.065 -0.7760 -1.1464 -0.4180
   83bbb     C7 2397  13.024  10.472   7.014  0.3173  0.4285 -0.1647
   83bbb    H13 2398  12.967  10.482   7.107 -0.8130 -2.2838 -0.4783
   83bbb    H14 2399  13.116  10.423   7.048  0.1209  1.2818  1.7378
   83bbb     C8 2400  13.529  11.021   7.058  0.4663  0.0792 -0.2541
   83bbb    H15 2401  13.441  11.086   7.068 -1.2649 -1.9169 -1.3605
   83bbb    H16 2402  13.596  11.057   6.979  0.3736 -0.5493 -0.6338
   83bbb     C9 2403  13.455  10.613   7.335 -0.0242  0.2509 -0.1502
   83bbb    H17 2404  13.431  10.635   7.440 -2.2913  0.8421 -0.7528
   83bbb    H18 2405  13.504  10.704   7.297  0.0763 -0.7226 -2.5140
   83bbb     O1 2406  12.942  10.395   6.934  0.2025 -0.1644  0.0718
   84bbb     N1 2407  12.868   9.318   6.543 -0.3761  0.0317 -0.2926
   84bbb     C1 2408  13.007   9.370   6.497 -0.5658 -0.5869 -0.4001
   84bbb     H1 2409  12.992   9.470   6.454 -0.5857  0.7646  2.5544
   84bbb     H2 2410  13.043   9.304   6.417 -1.5990 -1.9102  0.1989
   84bbb     C2 2411  12.772   9.276   6.440 -0.3636 -0.2663 -0.5737
   84bbb     H3 2412  12.725   9.362   6.390 -2.6265 -0.1342  1.5920
   84bbb     H4 2413  12.689   9.231   6.496 -2.5075  3.2604 -0.6237
   84bbb     C3 2414  12.804   9.375   6.658  0.7851 -0.4267 -0.7712
   84bbb     H5 2415  12.883   9.368   6.733 -0.2767  0.5488  0.4805
   84bbb     H6 2416  12.722   9.309   6.688  0.0072  0.0751 -1.7224
   84bbb     C4 2417  12.746   9.522   6.644 -0.0181  0.1058  0.2653
   84bbb     H7 2418  12.663   9.525   6.572  0.7446 -0.2145 -0.6593
   84bbb     H8 2419  12.821   9.582   6.590 -1.1434  2.3884  1.1205
   84bbb     C5 2420  13.113   9.385   6.612 -0.0370 -0.3368  0.4257
   84bbb     H9 2421  13.107   9.295   6.674  1.2753 -1.9815 -1.7118
   84bbb    H10 2422  13.080   9.465   6.680 -1.6839 -0.5594 -0.0665
   84bbb     C6 2423  12.826   9.181   6.335  0.2411  0.4489  0.5982
   84bbb    H11 2424  12.867   9.095   6.389 -1.1047 -0.1444  0.7202
   84bbb    H12 2425  12.905   9.231   6.276 -0.7054  0.4878 -0.6882
   84bbb     C7 2426  12.710   9.587   6.776  0.5232  0.0608  0.0974
   84bbb    H13 2427  12.660   9.522   6.849  2.2267 -2.5052 -0.8679
   84bbb    H14 2428  12.631   9.659   6.753  0.1167 -0.3997  0.0248
   84bbb     C8 2429  12.713   9.137   6.232 -0.8493  0.2501 -0.5674
   84bbb    H15 2430  12.633   9.090   6.290 -1.1141 -1.4659 -2.2393
   84bbb    H16 2431  12.738   9.048   6.173 -0.3610 -0.1933  0.2989
   84bbb     C9 2432  13.256   9.408   6.563 -0.2712 -0.0450  0.4103
   84bbb    H17 2433  13.261   9.331   6.485 -1.2405  0.0522  0.2428
   84bbb    H18 2434  13.326   9.392   6.646  1.4606  0.2990 -0.9267
   84bbb     O1 2435  12.825   9.648   6.827  0.0285 -0.9704  0.3744
   85bbb     N1 2436  11.347  10.755   7.464 -0.4440 -0.5208 -0.4371
   85bbb     C1 2437  11.282  10.797   7.595  0.7934  0.4725  0.7470
   85bbb     H1 2438  11.338  10.779   7.688 -0.5672 -0.4897  1.4216
   85bbb     H2 2439  11.189  10.739   7.601  0.6422  0.7399  1.0040
   85bbb     C2 2440  11.258  10.783   7.349 -0.4087 -0.6947  0.2291
   85bbb     H3 2441  11.231  10.888   7.335  1.1589 -0.2287  0.5399
   85bbb     H4 2442  11.162  10.732   7.367 -1.2875  0.5352 -0.7678
   85bbb     C3 2443  11.409  10.621   7.479 -0.5850 -0.9237  0.1369
   85bbb     H5 2444  11.476  10.620   7.566 -1.5478 -1.6604  0.8953
   85bbb     H6 2445  11.469  10.600   7.389 -1.0426  1.4261 -0.7912
   85bbb     C4 2446  11.304  10.509   7.486 -0.4601 -0.4326  0.2069
   85bbb     H7 2447  11.245  10.512   7.394 -0.7409 -2.6022  0.2574
   85bbb     H8 2448  11.233  10.524   7.569  0.5301 -1.8339  1.3567
   85bbb     C5 2449  11.230  10.946   7.599 -0.0306  0.4184  0.3190
   85bbb     H9 2450  11.174  10.965   7.691  0.0216 -1.0879  0.6935
   85bbb    H10 2451  11.154  10.955   7.521  1.0777 -0.1425 -0.8699
   85bbb     C6 2452  11.320  10.737   7.209  0.1396 -0.4872  0.2228
   85bbb    H11 2453  11.354  10.633   7.213 -0.1045 -0.6297 -1.0644
   85bbb    H12 2454  11.407  10.798   7.182 -0.4794  0.5571  0.5247
   85bbb     C7 2455  11.367  10.373   7.512 -0.2241 -1.2369 -0.7032
   85bbb    H13 2456  11.283  10.303   7.526  0.8947 -2.3810  0.5959
   85bbb    H14 2457  11.432  10.385   7.599  0.3790 -0.3588 -1.2564
   85bbb     C8 2458  11.214  10.742   7.100  0.3054  0.0216 -0.1838
   85bbb    H15 2459  11.143  10.664   7.131  0.3381  0.1592  0.2355
   85bbb    H16 2460  11.252  10.713   7.001  1.6354 -3.0416  1.1108
   85bbb     C9 2461  11.348  11.042   7.576 -0.7180 -0.0933  0.1610
   85bbb    H17 2462  11.374  11.038   7.470  0.1852 -0.0716  0.3723
   85bbb    H18 2463  11.430  11.004   7.638 -0.4675 -0.4979 -0.4098
   85bbb     O1 2464  11.448  10.347   7.391 -0.7881  0.1195  0.3727
   86bbb     N1 2465  11.823   9.584   6.515 -0.2092  0.2859  0.0357
   86bbb     C1 2466  11.835   9.457   6.433  0.0685  0.1402 -0.6097
   86bbb     H1 2467  11.849   9.367   6.494 -0.3985 -0.0858 -0.8337
   86bbb     H2 2468  11.918   9.461   6.360 -1.0293 -1.0396 -2.0011
   86bbb     C2 2469  11.780   9.709   6.442 -0.5490 -0.1265  0.3566
   86bbb     H3 2470  11.759   9.788   6.516 -1.1493  0.0293  0.0296
   86bbb     H4 2471  11.682   9.686   6.398 -1.1558 -1.5105  2.3109
   86bbb     C3 2472  11.935   9.600   6.604  0.6303 -0.7428 -0.7767
   86bbb     H5 2473  12.018   9.625   6.536  1.0862 -3.7839 -1.4716
   86bbb     H6 2474  11.964   9.512   6.662  0.4242 -0.3665 -0.0961
   86bbb     C4 2475  11.944   9.723   6.703 -0.5277 -0.7750  0.0439
   86bbb     H7 2476  11.954   9.821   6.655 -0.9579 -0.6401  0.2268
   86bbb     H8 2477  12.046   9.715   6.743  0.2717 -0.0495 -1.7350
   86bbb     C5 2478  11.709   9.437   6.347  0.2920  0.1871  0.1248
   86bbb     H9 2479  11.732   9.502   6.262  1.0284  0.8084  0.7790
   86bbb    H10 2480  11.622   9.468   6.406 -0.0794 -1.3917  0.4563
   86bbb     C6 2481  11.880   9.760   6.336  0.1185 -0.0527 -1.0543
   86bbb    H11 2482  11.908   9.667   6.284  0.3252 -0.5223 -0.1299
   86bbb    H12 2483  11.967   9.794   6.394  0.7800 -2.3337 -0.5930
   86bbb     C7 2484  11.839   9.728   6.815 -0.7758  0.4359  0.0685
   86bbb    H13 2485  11.851   9.627   6.857 -0.2435  0.6156  0.3679
   86bbb    H14 2486  11.739   9.742   6.774 -0.9981  0.6769  0.6936
   86bbb     C8 2487  11.838   9.877   6.248 -0.1516  0.6189 -0.5181
   86bbb    H15 2488  11.915   9.901   6.174  0.0032  0.3031 -0.4621
   86bbb    H16 2489  11.830   9.972   6.303  0.4955  0.8756 -0.8562
   86bbb     C9 2490  11.695   9.289   6.311 -0.2840 -0.3312  0.0058
   86bbb    H17 2491  11.614   9.262   6.242 -1.2262  0.1792  0.8845
   86bbb    H18 2492  11.670   9.244   6.408 -0.4799 -1.9551 -0.7562
   86bbb     O1 2493  11.876   9.832   6.908 -0.3371  0.5093  0.4777
   87bbb     N1 2494  13.661  12.947   7.978  0.6287 -0.0369  0.0607
   87bbb     C1 2495  13.609  12.924   8.119  0.3105  0.0831 -0.1440
   87bbb     H1 2496  13.682  12.940   8.199  1.0366 -0.5809 -0.6616
   87bbb     H2 2497  13.573  12.821   8.131  1.2561 -0.3662 -0.9705
   87bbb     C2 2498  13.689  13.085   7.930 -0.7573  0.4227  0.8985
   87bbb     H3 2499  13.604  13.153   7.917 -0.5958  0.3671 -0.6196
   87bbb     H4 2500  13.728  13.081   7.828  0.3252  2.5002  1.1801
   87bbb     C3 2501  13.754  12.847   7.928 -0.1877  0.1267 -0.5204
   87bbb     H5 2502  13.730  12.749   7.971  2.9429 -0.9975 -1.0889
   87bbb     H6 2503  13.854  12.879   7.961 -1.4314  1.7091  2.0012
   87bbb     C4 2504  13.756  12.821   7.778  0.5070  0.2577  0.2547
   87bbb     H7 2505  13.821  12.735   7.756 -1.2887 -0.9289 -0.6482
   87bbb     H8 2506  13.804  12.899   7.717 -2.2461  1.1505 -0.9085
   87bbb     C5 2507  13.484  13.008   8.153 -0.5985  0.6447 -0.5431
   87bbb     H9 2508  13.441  12.949   8.235  1.5922  0.1306  0.3063
   87bbb    H10 2509  13.407  13.009   8.074  0.0530 -0.6083 -1.2273
   87bbb     C6 2510  13.791  13.162   8.024  0.6086  0.5714  0.2021
   87bbb    H11 2511  13.889  13.113   8.029  0.3218  0.0094  0.3783
   87bbb    H12 2512  13.756  13.160   8.128 -0.5215  0.4253 -0.1647
   87bbb     C7 2513  13.620  12.787   7.724 -0.2334 -0.1784  0.1530
   87bbb    H13 2514  13.547  12.868   7.737  1.0690  0.8528  1.5120
   87bbb    H14 2515  13.579  12.705   7.785  0.6227 -0.2321  0.6723
   87bbb     C8 2516  13.800  13.313   7.987  0.1461 -0.2119 -0.6066
   87bbb    H15 2517  13.848  13.376   8.063  0.8379  0.0457 -1.2545
   87bbb    H16 2518  13.705  13.364   7.964  0.2138 -0.3090 -1.1161
   87bbb     C9 2519  13.508  13.150   8.208  0.5746  0.0799 -0.0565
   87bbb    H17 2520  13.543  13.210   8.123 -0.0555 -0.4636 -0.7109
   87bbb    H18 2521  13.573  13.158   8.296  1.3731 -2.0838 -0.3825
   87bbb     O1 2522  13.635  12.743   7.583  0.6527  0.4992  0.3512
   88bbb     N1 2523  13.196  13.208   6.713  0.2074 -0.9645  0.3286
   88bbb     C1 2524  13.192  13.305   6.827  0.1532 -0.9680  0.3957
   88bbb     H1 2525  13.264  13.385   6.807 -0.5608  0.0604  1.7139
   88bbb     H2 2526  13.235  13.262   6.919 -0.5314 -1.6873  0.3819
   88bbb     C2 2527  13.136  13.247   6.585  0.8159  0.1165  0.5405
   88bbb     H3 2528  13.031  13.277   6.595 -0.0198 -1.7922 -1.6126
   88bbb     H4 2529  13.124  13.164   6.514  0.5781 -0.1182  0.8517
   88bbb     C3 2530  13.328  13.132   6.700  0.0856  0.8503 -0.9831
   88bbb     H5 2531  13.411  13.192   6.661 -0.1641  1.4335 -0.6417
   88bbb     H6 2532  13.325  13.054   6.623  2.1836 -0.2623 -0.0242
   88bbb     C4 2533  13.366  13.052   6.831  0.4374 -0.4281 -0.0214
   88bbb     H7 2534  13.388  13.128   6.907 -0.3120 -0.7517  0.5398
   88bbb     H8 2535  13.464  13.004   6.821  1.5315  1.0892  2.4332
   88bbb     C5 2536  13.049  13.372   6.850  0.3158  0.0648 -0.5678
   88bbb     H9 2537  12.971  13.298   6.871  0.8935 -0.4934 -0.3410
   88bbb    H10 2538  13.007  13.427   6.765  1.2278  1.1818 -0.3238
   88bbb     C6 2539  13.205  13.355   6.515 -0.2528  0.0564  0.0150
   88bbb    H11 2540  13.304  13.317   6.488  0.6901  0.9189  2.0648
   88bbb    H12 2541  13.221  13.432   6.591  0.2615 -1.7739  1.8355
   88bbb     C7 2542  13.258  12.943   6.875  0.8247  0.0617  0.3648
   88bbb    H13 2543  13.245  12.877   6.789 -0.6580  2.9496 -1.8201
   88bbb    H14 2544  13.161  12.990   6.898  1.7666  1.1069  2.5850
   88bbb     C8 2545  13.135  13.398   6.388 -0.5408 -0.0886  0.6456
   88bbb    H15 2546  13.132  13.321   6.310  0.9071  0.8448 -0.4023
   88bbb    H16 2547  13.195  13.469   6.329 -1.1098 -1.0241 -1.1433
   88bbb     C9 2548  13.066  13.473   6.967  0.0735  1.2324  0.2792
   88bbb    H17 2549  13.127  13.553   6.923  0.1291  2.1208  1.8589
   88bbb    H18 2550  13.123  13.421   7.046 -0.7980 -0.4795 -0.1849
   88bbb     O1 2551  13.312  12.871   6.980  0.1095  0.2566  0.1922
   89bbb     N1 2552  12.856  12.261   6.478  0.1946  0.2948  0.0398
   89bbb     C1 2553  12.919  12.274   6.345 -0.2846  0.1963 -0.7325
   89bbb     H1 2554  12.847  12.272   6.261 -1.0304  1.2881 -0.1482
   89bbb     H2 2555  12.992  12.194   6.333  0.5231  0.9698 -1.0886
   89bbb     C2 2556  12.828  12.124   6.526  0.7949 -0.0356  0.2568
   89bbb     H3 2557  12.764  12.081   6.447 -0.5737  0.4583  1.0590
   89bbb     H4 2558  12.768  12.137   6.617  1.1077  0.9264  0.3392
   89bbb     C3 2559  12.766  12.369   6.522  0.4520 -0.1894 -0.2303
   89bbb     H5 2560  12.817  12.466   6.530 -0.6413  0.3745  0.1648
   89bbb     H6 2561  12.730  12.344   6.623 -1.3577  2.4251 -0.1420
   89bbb     C4 2562  12.645  12.387   6.422  0.7274  1.1798  0.0240
   89bbb     H7 2563  12.561  12.319   6.438  1.0884  1.3650  3.6170
   89bbb     H8 2564  12.674  12.370   6.318  0.4770  1.2511 -0.0569
   89bbb     C5 2565  13.004  12.406   6.329  0.5063 -0.1539 -0.8579
   89bbb     H9 2566  13.065  12.426   6.418  1.5860 -1.5007 -1.2743
   89bbb    H10 2567  12.930  12.487   6.321  0.9516  0.3327 -0.1653
   89bbb     C6 2568  12.956  12.039   6.543 -0.2227  0.2120  0.4866
   89bbb    H11 2569  13.014  12.022   6.451 -1.0472  1.3899 -0.2811
   89bbb    H12 2570  12.920  11.943   6.582 -1.1709  0.0695 -0.6860
   89bbb     C7 2571  12.590  12.533   6.431 -0.2508 -0.2726  0.5400
   89bbb    H13 2572  12.603  12.559   6.536 -1.8466 -0.4812  0.8160
   89bbb    H14 2573  12.485  12.547   6.401 -0.1126 -1.7829 -0.7759
   89bbb     C8 2574  13.048  12.115   6.639  0.3847  0.9386 -0.8254
   89bbb    H15 2575  12.993  12.134   6.732 -0.4252 -0.2568 -1.0421
   89bbb    H16 2576  13.080  12.216   6.608 -1.0988  1.8533  0.5217
   89bbb     C9 2577  13.093  12.419   6.202 -1.0427 -0.3195  0.1680
   89bbb    H17 2578  13.195  12.380   6.217 -0.9198  0.3690  1.2904
   89bbb    H18 2579  13.103  12.528   6.190  0.2942 -0.4610 -0.2631
   89bbb     O1 2580  12.670  12.622   6.345 -0.1248  0.6255  0.1111
   90bbb     N1 2581  12.759  12.848   5.233  0.3178  0.0067 -0.7805
   90bbb     C1 2582  12.863  12.934   5.169 -0.2543 -0.7739 -0.0515
   90bbb     H1 2583  12.904  12.991   5.253 -0.6217 -2.4519  1.3255
   90bbb     H2 2584  12.821  13.011   5.104 -1.7497 -1.3512  0.1876
   90bbb     C2 2585  12.640  12.926   5.268 -0.4090 -0.1965  0.1302
   90bbb     H3 2586  12.674  13.011   5.328  0.0163 -0.5237  0.3622
   90bbb     H4 2587  12.571  12.854   5.315  0.3231 -1.5553 -0.7915
   90bbb     C3 2588  12.798  12.756   5.339 -0.2506  1.0719 -0.1023
   90bbb     H5 2589  12.873  12.687   5.298 -3.1016 -1.1695 -1.9255
   90bbb     H6 2590  12.713  12.691   5.364  0.0355  0.7010 -0.0912
   90bbb     C4 2591  12.858  12.814   5.462 -0.2734  0.0012 -0.2306
   90bbb     H7 2592  12.791  12.888   5.508 -1.1551 -1.2452  0.5683
   90bbb     H8 2593  12.948  12.870   5.433 -0.1948  0.0014  0.0160
   90bbb     C5 2594  12.986  12.868   5.104  0.3603 -0.0735  0.5479
   90bbb     H9 2595  12.951  12.808   5.020 -0.7993  0.4267  0.6533
   90bbb    H10 2596  13.026  12.795   5.175 -0.6537 -2.2387 -1.0228
   90bbb     C6 2597  12.561  12.991   5.151 -0.4271  0.2595  0.2186
   90bbb    H11 2598  12.513  12.904   5.104 -1.5175  1.2263 -0.5332
   90bbb    H12 2599  12.619  13.039   5.072  0.7827 -1.3671  0.0801
   90bbb     C7 2600  12.880  12.703   5.570  0.5248 -0.1335  0.0810
   90bbb    H13 2601  12.932  12.618   5.526  2.2815  1.8793 -2.0014
   90bbb    H14 2602  12.779  12.670   5.594  1.1400 -2.0264  0.2418
   90bbb     C8 2603  12.449  13.089   5.194 -0.4474 -0.1124 -0.0420
   90bbb    H15 2604  12.494  13.155   5.268 -0.1820 -0.6234  0.2550
   90bbb    H16 2605  12.385  13.017   5.245  2.3350 -1.2809  2.0254
   90bbb     C9 2606  13.090  12.980   5.069  0.4781 -0.1069 -0.0998
   90bbb    H17 2607  13.041  13.051   5.001 -1.8921 -2.0640 -0.5799
   90bbb    H18 2608  13.177  12.934   5.022  0.8328 -0.2780  0.7114
   90bbb     O1 2609  12.933  12.758   5.691 -0.4126 -0.0014 -0.7739
   91bbb     N1 2610  13.144  10.824   7.863 -0.4573  0.4441  0.5617
   91bbb     C1 2611  13.150  10.902   7.732 -0.4967  0.2621  0.1272
   91bbb     H1 2612  13.219  10.987   7.744 -0.1768 -0.0179  0.3054
   91bbb     H2 2613  13.052  10.941   7.703 -0.7274 -0.8049 -0.5587
   91bbb     C2 2614  13.055  10.706   7.865  0.6183  0.1506  0.7627
   91bbb     H3 2615  13.073  10.655   7.961  0.2966 -0.6691  0.4015
   91bbb     H4 2616  13.078  10.640   7.781  2.5339  0.9797  0.5724
   91bbb     C3 2617  13.283  10.792   7.911  0.1436  0.5220 -0.7000
   91bbb     H5 2618  13.353  10.866   7.872 -0.2282  1.1144 -0.2657
   91bbb     H6 2619  13.302  10.690   7.875  0.9176  0.4464 -0.0923
   91bbb     C4 2620  13.296  10.790   8.061  0.1875  0.3040  0.6316
   91bbb     H7 2621  13.269  10.689   8.095 -0.6254  0.0712 -0.6531
   91bbb     H8 2622  13.221  10.861   8.098 -1.1518 -0.0995 -1.2108
   91bbb     C5 2623  13.205  10.817   7.611 -1.0446  0.0773 -0.1841
   91bbb     H9 2624  13.158  10.719   7.599 -2.1376  0.8431 -3.1049
   91bbb    H10 2625  13.311  10.791   7.614 -1.7058 -2.8150  0.7887
   91bbb     C6 2626  12.904  10.730   7.848 -0.0779 -0.0397 -0.0667
   91bbb    H11 2627  12.885  10.833   7.879 -1.7007 -0.6774  1.1486
   91bbb    H12 2628  12.848  10.672   7.922 -0.5350 -0.3355 -0.6305
   91bbb     C7 2629  13.431  10.827   8.123 -0.2106  0.0031  0.9726
   91bbb    H13 2630  13.514  10.759   8.097 -0.5293 -0.5907  1.4943
   91bbb    H14 2631  13.436  10.822   8.232  0.9899  1.5886  1.0288
   91bbb     C8 2632  12.847  10.695   7.709 -0.1217  0.7224  0.7892
   91bbb    H15 2633  12.878  10.592   7.691  1.8028  1.0583  1.9129
   91bbb    H16 2634  12.896  10.757   7.633 -3.0563  3.2841  0.7626
   91bbb     C9 2635  13.189  10.877   7.472  0.1334 -0.8489  0.6268
   91bbb    H17 2636  13.243  10.823   7.392 -1.4051 -1.8992  0.2503
   91bbb    H18 2637  13.234  10.976   7.464  0.3587 -1.1045 -2.1717
   91bbb     O1 2638  13.468  10.962   8.089 -0.2587 -0.2191  0.4194
   92bbb     N1 2639  14.038  12.023   7.760  0.5213  0.0680  0.6308
   92bbb     C1 2640  13.926  12.120   7.732  0.1046  0.3444 -0.0415
   92bbb     H1 2641  13.848  12.056   7.689 -1.0376  0.2887  2.0026
   92bbb     H2 2642  13.951  12.199   7.660  0.7838  1.0400  0.9286
   92bbb     C2 2643  14.171  12.082   7.772 -0.1543  0.7833  0.3529
   92bbb     H3 2644  14.217  12.075   7.871  0.4540  0.1059  0.0339
   92bbb     H4 2645  14.167  12.190   7.759 -2.2122  0.8007  0.7999
   92bbb     C3 2646  14.017  11.911   7.849  0.6566  0.2183 -0.0077
   92bbb     H5 2647  14.024  11.957   7.949  0.0469  2.4052 -0.9215
   92bbb     H6 2648  14.101  11.840   7.848 -0.6841 -1.4547 -0.0477
   92bbb     C4 2649  13.883  11.831   7.838 -0.3783 -0.2440 -0.6294
   92bbb     H7 2650  13.866  11.795   7.736  0.6786 -0.1582 -0.8519
   92bbb     H8 2651  13.802  11.890   7.881 -0.6642 -1.3262  0.3544
   92bbb     C5 2652  13.878  12.199   7.855  0.4777  0.8654 -0.5551
   92bbb     H9 2653  13.954  12.277   7.871  0.9086  0.5195 -0.9001
   92bbb    H10 2654  13.888  12.141   7.948  1.9064 -0.2836 -1.3682
   92bbb     C6 2655  14.262  12.026   7.665 -0.2163  0.8925 -0.0810
   92bbb    H11 2656  14.287  11.924   7.694  1.8100  0.6894 -2.2521
   92bbb    H12 2657  14.356  12.083   7.676  0.3281 -0.2310  1.3555
   92bbb     C7 2658  13.898  11.709   7.927 -0.1790  0.1996 -0.2012
   92bbb    H13 2659  13.897  11.733   8.033  2.4352 -0.0019 -0.0595
   92bbb    H14 2660  13.988  11.646   7.914 -0.9192 -0.9525  0.1123
   92bbb     C8 2661  14.214  12.029   7.511  0.4324  0.2785 -0.1212
   92bbb    H15 2662  14.227  12.128   7.465  0.5895  0.4281  0.2383
   92bbb    H16 2663  14.108  12.002   7.507  0.6406 -0.6515  0.2121
   92bbb     C9 2664  13.740  12.269   7.851 -0.6446  0.9566 -0.3401
   92bbb    H17 2665  13.661  12.199   7.822  0.8194 -1.1781  0.5431
   92bbb    H18 2666  13.746  12.331   7.761 -0.8267 -1.5991 -2.2186
   92bbb     O1 2667  13.788  11.613   7.917 -0.0703  0.3149  0.1305
   93bbb     N1 2668  13.883  10.700   6.933 -0.1196  0.3382  0.0663
   93bbb     C1 2669  13.854  10.561   6.935  0.3673 -0.1367  0.2873
   93bbb     H1 2670  13.887  10.505   7.023 -2.8831 -0.0785  1.6947
   93bbb     H2 2671  13.911  10.515   6.853  0.9294 -0.3050  0.7733
   93bbb     C2 2672  13.835  10.780   6.820 -0.2630  0.4619 -0.2822
   93bbb     H3 2673  13.907  10.863   6.820  0.0176  0.2216  0.3336
   93bbb     H4 2674  13.732  10.814   6.838  0.4697  1.4285  2.5092
   93bbb     C3 2675  13.870  10.778   7.054  0.1259 -0.7189 -0.1184
   93bbb     H5 2676  13.762  10.781   7.072  0.1551 -0.6182  0.0405
   93bbb     H6 2677  13.898  10.883   7.041  0.0435 -0.6430  0.2976
   93bbb     C4 2678  13.925  10.725   7.188 -0.6153 -0.0089 -0.9192
   93bbb     H7 2679  13.886  10.624   7.204 -0.1125 -0.0184  0.2879
   93bbb     H8 2680  13.894  10.783   7.275  0.8466  3.4597 -2.4803
   93bbb     C5 2681  13.699  10.539   6.924 -0.2613  0.8152  0.0253
   93bbb     H9 2682  13.664  10.575   6.826  0.1250  1.0043 -0.0465
   93bbb    H10 2683  13.660  10.602   7.004  0.0773 -0.7497  1.4657
   93bbb     C6 2684  13.860  10.719   6.679 -0.1905 -0.4197 -0.7118
   93bbb    H11 2685  13.788  10.638   6.662  1.2628 -1.8508 -0.3755
   93bbb    H12 2686  13.959  10.671   6.680 -0.5580 -1.2212  1.5284
   93bbb     C7 2687  14.078  10.725   7.173  0.1903  0.5442 -0.5501
   93bbb    H13 2688  14.106  10.663   7.087 -1.5834 -0.8099 -0.1988
   93bbb    H14 2689  14.105  10.677   7.268  0.2509 -0.0974 -0.8873
   93bbb     C8 2690  13.842  10.832   6.571 -1.0219 -0.3712  0.4401
   93bbb    H15 2691  13.870  10.930   6.611  2.6634 -0.5613 -1.2775
   93bbb    H16 2692  13.735  10.851   6.555 -0.8704  0.3551  0.2458
   93bbb     C9 2693  13.668  10.388   6.927 -0.0875 -0.6153 -0.4737
   93bbb    H17 2694  13.558  10.378   6.930 -0.0599 -0.7742  0.0506
   93bbb    H18 2695  13.702  10.348   7.023 -4.1928 -0.1280  1.3868
   93bbb     O1 2696  14.145  10.859   7.158  0.3147  0.3607 -0.0387
   94bbb     N1 2697  14.214  11.525   6.483 -0.0716  0.3323  0.7913
   94bbb     C1 2698  14.107  11.629   6.454  0.3474  0.3691  0.0316
   94bbb     H1 2699  14.024  11.567   6.419 -0.0150 -0.1317  1.7180
   94bbb     H2 2700  14.141  11.705   6.382  0.0650  0.4637 -0.0011
   94bbb     C2 2701  14.215  11.406   6.392  0.1229 -0.3755 -0.3507
   94bbb     H3 2702  14.233  11.441   6.290  2.6859  0.3317  0.2556
   94bbb     H4 2703  14.123  11.347   6.396 -1.5689  2.1854  1.0522
   94bbb     C3 2704  14.343  11.591   6.504  0.1545  0.0045 -0.2560
   94bbb     H5 2705  14.334  11.697   6.478 -1.5882  0.3289  1.4455
   94bbb     H6 2706  14.427  11.545   6.450 -0.3662 -1.5525  0.2194
   94bbb     C4 2707  14.385  11.594   6.649  0.3766  0.0316 -0.3709
   94bbb     H7 2708  14.324  11.664   6.706  1.9564  3.8829 -2.9790
   94bbb     H8 2709  14.487  11.634   6.662  0.1482  1.0510 -1.5595
   94bbb     C5 2710  14.056  11.703   6.581  0.2417  0.5548 -0.2573
   94bbb     H9 2711  13.967  11.747   6.536 -0.5248 -0.7170 -0.0222
   94bbb    H10 2712  14.123  11.783   6.618 -0.0132  0.3694  0.6386
   94bbb     C6 2713  14.320  11.297   6.414 -0.4338 -0.1602  0.4014
   94bbb    H11 2714  14.322  11.267   6.520 -0.1082 -1.8128 -0.0302
   94bbb    H12 2715  14.419  11.338   6.390 -0.2631  0.0574  1.4359
   94bbb     C7 2716  14.381  11.459   6.718 -0.3834  0.0488 -0.2734
   94bbb    H13 2717  14.431  11.390   6.649  1.8991  1.5078 -0.1936
   94bbb    H14 2718  14.277  11.433   6.742 -1.1831  2.7802 -0.4966
   94bbb     C8 2719  14.295  11.168   6.322  0.1862  0.0753  0.0274
   94bbb    H15 2720  14.191  11.138   6.339  0.3125 -0.7634 -0.5917
   94bbb    H16 2721  14.353  11.079   6.352  2.3209  1.5851  0.6224
   94bbb     C9 2722  14.013  11.611   6.701  1.1903 -0.2490 -0.6073
   94bbb    H17 2723  14.087  11.535   6.730  0.8912 -0.7661 -1.1815
   94bbb    H18 2724  13.942  11.539   6.659  0.7695 -0.3800  0.3080
   94bbb     O1 2725  14.451  11.476   6.848  0.1651  0.4415  0.3534
   95bbb     N1 2726  10.814  12.320   4.567  0.1442 -0.0305 -0.1347
   95bbb     C1 2727  10.937  12.390   4.518 -0.3154  0.2066 -0.0279
   95bbb     H1 2728  10.970  12.352   4.421  0.9442  1.1057  0.0169
   95bbb     H2 2729  11.025  12.370   4.581  0.6743 -1.8154 -1.9356
   95bbb     C2 2730  10.824  12.175   4.540  0.3573 -0.1959 -0.6015
   95bbb     H3 2731  10.724  12.141   4.570  0.2223  0.3153 -0.4547
   95bbb     H4 2732  10.891  12.125   4.611 -1.7250 -1.2362  0.7400
   95bbb     C3 2733  10.780  12.356   4.708  0.4768  0.3052 -0.4678
   95bbb     H5 2734  10.758  12.463   4.714  1.1441  0.5884 -2.3496
   95bbb     H6 2735  10.866  12.349   4.776 -0.2622  2.8662  0.8691
   95bbb     C4 2736  10.669  12.273   4.782 -0.2152  0.4837  0.3347
   95bbb     H7 2737  10.694  12.167   4.798 -0.0014  0.1785 -1.6578
   95bbb     H8 2738  10.586  12.280   4.711  2.1811 -2.2407 -3.1023
   95bbb     C5 2739  10.922  12.540   4.506 -0.4562  0.0131 -0.4927
   95bbb     H9 2740  11.020  12.579   4.479 -0.0135 -0.2329  0.7119
   95bbb    H10 2741  10.909  12.585   4.605 -2.7416  2.7275 -1.8845
   95bbb     C6 2742  10.846  12.127   4.400  0.2636 -0.3678 -0.0982
   95bbb    H11 2743  10.952  12.144   4.374  0.0680  0.6653 -0.2380
   95bbb    H12 2744  10.782  12.189   4.336 -0.6933 -0.5683  0.6468
   95bbb     C7 2745  10.618  12.331   4.918  0.0262  0.6119  0.2475
   95bbb    H13 2746  10.519  12.298   4.952 -1.0170 -0.1346 -3.1355
   95bbb    H14 2747  10.605  12.439   4.900  3.0565  0.8870 -0.9224
   95bbb     C8 2748  10.816  11.979   4.374  0.6377  0.7564 -0.2337
   95bbb    H15 2749  10.836  11.953   4.269 -0.3498  1.9509 -0.7415
   95bbb    H16 2750  10.708  11.968   4.386  0.5516  0.1969 -1.3806
   95bbb     C9 2751  10.806  12.597   4.428 -0.3568 -0.3176  0.0775
   95bbb    H17 2752  10.790  12.702   4.454  1.5534 -0.3003  1.3180
   95bbb    H18 2753  10.716  12.541   4.457  0.6326 -2.1378 -0.1960
   95bbb     O1 2754  10.725  12.322   5.016  0.3195  0.1329 -0.4702
   96bbb     N1 2755  10.371  12.061   5.932  0.1758  0.4118  0.0780
   96bbb     C1 2756  10.330  12.130   5.808 -0.3053 -0.1261  0.2516
   96bbb     H1 2757  10.421  12.158   5.755 -0.4080  1.4356  0.8424
   96bbb     H2 2758  10.282  12.225   5.837 -0.1858 -0.8588  3.2421
   96bbb     C2 2759  10.267  12.043   6.039  0.4993 -0.0091  0.4769
   96bbb     H3 2760  10.204  11.955   6.023 -0.2950  0.2990  1.7811
   96bbb     H4 2761  10.191  12.122   6.029 -0.1948 -0.6769  0.4007
   96bbb     C3 2762  10.467  11.942   5.915 -0.2308 -0.4344  0.0662
   96bbb     H5 2763  10.411  11.849   5.896  1.0333 -1.0058 -1.0776
   96bbb     H6 2764  10.519  11.920   6.009  1.0100  2.6024  0.2011
   96bbb     C4 2765  10.570  11.947   5.808 -0.1995 -0.4227  1.2384
   96bbb     H7 2766  10.516  11.982   5.719 -0.6346 -2.2580  0.7458
   96bbb     H8 2767  10.614  11.848   5.793  1.4766  0.4593 -0.1051
   96bbb     C5 2768  10.247  12.045   5.712  0.1628 -0.7170 -0.2652
   96bbb     H9 2769  10.159  12.000   5.759 -0.0673 -0.5467 -0.5315
   96bbb    H10 2770  10.316  11.966   5.679  1.2702  0.4594 -0.8717
   96bbb     C6 2771  10.319  12.048   6.187 -0.6394 -0.2446 -0.4273
   96bbb    H11 2772  10.369  12.143   6.207  0.0133 -0.3319 -1.5112
   96bbb    H12 2773  10.393  11.967   6.196 -2.9279 -2.8453 -2.9223
   96bbb     C7 2774  10.676  12.054   5.835 -0.2601  0.1738  0.3329
   96bbb    H13 2775  10.718  12.059   5.936  0.3297 -0.3133  0.1116
   96bbb    H14 2776  10.637  12.154   5.812 -0.4125  0.0412  0.0033
   96bbb     C8 2777  10.211  12.037   6.298  0.4868 -0.2223 -0.3401
   96bbb    H15 2778  10.149  12.127   6.289 -0.9053 -1.2399 -1.4715
   96bbb    H16 2779  10.249  12.033   6.401 -1.1528  1.6659  0.3943
   96bbb     C9 2780  10.205  12.115   5.584 -0.2748 -0.0850 -0.1540
   96bbb    H17 2781  10.137  12.051   5.527 -1.6131  0.9127  0.2700
   96bbb    H18 2782  10.292  12.134   5.520 -0.3135  2.1025  0.3569
   96bbb     O1 2783  10.782  12.041   5.739 -0.4814 -0.0314  0.2327
   97bbb     N1 2784  11.635  12.045   4.490 -0.7178  0.2967  0.2902
   97bbb     C1 2785  11.709  11.991   4.372 -0.1210  0.4272 -0.5343
   97bbb     H1 2786  11.670  11.892   4.348 -0.2507 -0.0744  1.5829
   97bbb     H2 2787  11.816  11.975   4.391 -0.6795 -0.7441  1.9918
   97bbb     C2 2788  11.490  12.042   4.479  0.2807  0.0143  0.3611
   97bbb     H3 2789  11.437  11.948   4.498  3.6478 -2.5311 -1.7302
   97bbb     H4 2790  11.460  12.075   4.379  1.7975  0.1133 -0.0834
   97bbb     C3 2791  11.685  11.999   4.623 -0.4757 -0.4222 -0.4183
   97bbb     H5 2792  11.637  12.063   4.698 -0.1895 -0.1762 -0.4398
   97bbb     H6 2793  11.792  12.023   4.629 -0.4138 -0.7334 -0.2717
   97bbb     C4 2794  11.673  11.844   4.651 -0.3459  0.6261 -0.7682
   97bbb     H7 2795  11.740  11.790   4.583  0.9197  0.8688  0.2434
   97bbb     H8 2796  11.566  11.820   4.644 -1.2423  3.4734  1.4073
   97bbb     C5 2797  11.694  12.081   4.256  0.0014 -0.2378  0.4985
   97bbb     H9 2798  11.598  12.067   4.205  0.4649  1.9878 -1.2052
   97bbb    H10 2799  11.756  12.044   4.173 -1.5040 -1.4853 -0.1112
   97bbb     C6 2800  11.421  12.141   4.572 -0.1147 -0.2411 -0.0518
   97bbb    H11 2801  11.475  12.237   4.576  0.5630 -0.6443  0.9956
   97bbb    H12 2802  11.434  12.098   4.672 -0.3985  0.8461  0.4664
   97bbb     C7 2803  11.724  11.803   4.790 -0.1910 -0.4102  0.3142
   97bbb    H13 2804  11.682  11.871   4.865 -1.2130 -0.8514  0.1619
   97bbb    H14 2805  11.834  11.800   4.798 -0.0711 -2.3507 -1.3460
   97bbb     C8 2806  11.271  12.162   4.528 -0.2588 -0.1545  0.6628
   97bbb    H15 2807  11.216  12.242   4.579  0.7832  0.1474  1.3281
   97bbb    H16 2808  11.219  12.066   4.540  1.9225 -1.6266 -0.8521
   97bbb     C9 2809  11.728  12.232   4.289  0.2686 -0.4651 -0.3569
   97bbb    H17 2810  11.836  12.239   4.307 -0.1165  0.6840  1.7705
   97bbb    H18 2811  11.674  12.268   4.377  2.3415  1.0547  0.3605
   97bbb     O1 2812  11.662  11.681   4.819  0.4506 -0.9167 -0.3388
   98bbb     N1 2813  11.050  10.920   5.353 -0.0333  0.4024  0.5391
   98bbb     C1 2814  11.091  10.865   5.215  0.4281  0.2123  0.2128
   98bbb     H1 2815  11.048  10.912   5.126  4.4228 -0.1371 -2.1813
   98bbb     H2 2816  11.059  10.761   5.198 -0.9305  0.8871 -1.6792
   98bbb     C2 2817  11.078  10.822   5.463  0.3061 -0.1745 -0.2506
   98bbb     H3 2818  11.174  10.838   5.515  0.0793 -1.6727  0.6950
   98bbb     H4 2819  11.089  10.721   5.420 -2.1814 -0.5173 -0.1972
   98bbb     C3 2820  11.095  11.060   5.374  0.0017  0.4900  0.1886
   98bbb     H5 2821  11.201  11.075   5.351 -0.2526  1.6160 -0.3767
   98bbb     H6 2822  11.080  11.090   5.479 -1.4017 -1.1508  0.4986
   98bbb     C4 2823  11.002  11.155   5.291  0.6367 -0.2733 -0.4526
   98bbb     H7 2824  10.896  11.149   5.321  0.5529  0.2886 -0.6022
   98bbb     H8 2825  11.014  11.133   5.184  2.4350  1.2570 -0.6135
   98bbb     C5 2826  11.243  10.873   5.180 -0.3306  0.5856 -0.1065
   98bbb     H9 2827  11.295  10.886   5.276  0.1763 -2.2510  0.1013
   98bbb    H10 2828  11.260  10.964   5.122  2.0525  0.8043  0.8207
   98bbb     C6 2829  10.955  10.806   5.560  0.0412  0.2193 -0.1661
   98bbb    H11 2830  10.956  10.899   5.619  1.6335  0.8415 -1.1035
   98bbb    H12 2831  10.981  10.723   5.627  1.7875 -2.0217 -3.3413
   98bbb     C7 2832  11.047  11.299   5.317  0.2056  0.0499 -0.0899
   98bbb    H13 2833  11.050  11.331   5.423 -1.8126  0.3428 -0.0852
   98bbb    H14 2834  10.974  11.371   5.279 -0.9588 -0.4862  1.0718
   98bbb     C8 2835  10.817  10.775   5.481  0.3556 -0.1412 -0.3456
   98bbb    H15 2836  10.827  10.677   5.433 -0.7077 -0.1229 -0.6178
   98bbb    H16 2837  10.807  10.852   5.403  0.9507  0.8916  0.5561
   98bbb     C9 2838  11.294  10.750   5.102 -0.4938  0.0779  0.0942
   98bbb    H17 2839  11.282  10.659   5.162  1.3319  0.7824  1.6066
   98bbb    H18 2840  11.402  10.762   5.089 -0.5175  0.5481  0.3276
   98bbb     O1 2841  11.174  11.319   5.253  0.3312  0.2106 -0.4567
   99bbb     N1 2842  10.993  14.806   6.654 -0.4832  0.5432 -0.3801
   99bbb     C1 2843  11.006  14.803   6.802  0.9163  0.1071  0.9777
   99bbb     H1 2844  11.064  14.893   6.821 -0.8072  1.7889 -1.2343
   99bbb     H2 2845  11.061  14.713   6.833  2.0925 -0.3709 -2.1554
   99bbb     C2 2846  10.921  14.920   6.596  0.4286  0.1075  0.2930
   99bbb     H3 2847  10.831  14.953   6.649 -0.7168 -1.6501 -0.4413
   99bbb     H4 2848  10.893  14.894   6.493 -2.3316  0.5766  0.8490
   99bbb     C3 2849  11.114  14.766   6.586  0.5296  0.1484 -0.4168
   99bbb     H5 2850  11.199  14.815   6.636  2.7952 -2.6959 -1.1655
   99bbb     H6 2851  11.109  14.797   6.481 -0.6765  0.5776 -0.2398
   99bbb     C4 2852  11.150  14.614   6.587 -1.1336 -0.2976  0.0849
   99bbb     H7 2853  11.081  14.568   6.516  0.9890 -1.3007 -1.4277
   99bbb     H8 2854  11.149  14.571   6.688 -0.7833 -0.8461 -0.1418
   99bbb     C5 2855  10.870  14.803   6.881 -0.6373 -0.1127  1.0302
   99bbb     H9 2856  10.809  14.886   6.845 -1.1433 -1.8760 -2.6720
   99bbb    H10 2857  10.891  14.813   6.988  0.9701  2.3170  0.5713
   99bbb     C6 2858  11.006  15.044   6.587 -0.5282 -0.9109 -0.4370
   99bbb    H11 2859  11.110  15.019   6.563  0.2182  1.4155  0.0962
   99bbb    H12 2860  11.001  15.097   6.684 -1.0711  0.0758 -0.9885
   99bbb     C7 2861  11.290  14.594   6.533  0.0520 -0.7711  0.1263
   99bbb    H13 2862  11.361  14.655   6.589 -0.5346 -0.0343  0.0819
   99bbb    H14 2863  11.297  14.638   6.433  1.2338 -1.5191 -0.1402
   99bbb     C8 2864  10.969  15.143   6.476 -0.3333 -0.4520  0.2755
   99bbb    H15 2865  10.976  15.085   6.383  1.5858 -0.9321  0.6538
   99bbb    H16 2866  11.050  15.217   6.470 -1.1283  0.3203 -1.6836
   99bbb     C9 2867  10.796  14.666   6.874  0.0727 -0.2083  0.3186
   99bbb    H17 2868  10.845  14.581   6.923  1.4421 -0.7501 -1.8500
   99bbb    H18 2869  10.797  14.646   6.766  0.7259  0.7003  0.1462
   99bbb     O1 2870  11.320  14.457   6.541 -0.0896  0.7674  0.5844
  100bbb     N1 2871  11.260  13.508   7.255 -0.6188  0.0633  0.2989
  100bbb     C1 2872  11.178  13.429   7.352  1.2144  0.1401  0.5075
  100bbb     H1 2873  11.154  13.496   7.436  0.4368  0.1167  0.3170
  100bbb     H2 2874  11.227  13.336   7.382  0.7916 -0.6694 -1.1862
  100bbb     C2 2875  11.309  13.423   7.142  0.1628 -1.0242 -0.0816
  100bbb     H3 2876  11.338  13.482   7.054  0.4129  0.7688  1.1258
  100bbb     H4 2877  11.228  13.361   7.103 -2.2340  2.2204 -0.7357
  100bbb     C3 2878  11.191  13.633   7.213 -0.0889 -0.5324 -0.3045
  100bbb     H5 2879  11.159  13.685   7.304  1.0608 -0.5890  0.1477
  100bbb     H6 2880  11.107  13.626   7.142  0.5129  1.8484 -1.3430
  100bbb     C4 2881  11.278  13.731   7.146 -0.0820  0.2903 -0.2538
  100bbb     H7 2882  11.312  13.698   7.047 -0.3006 -0.5148 -0.0742
  100bbb     H8 2883  11.361  13.738   7.218 -1.0734  1.0701  0.8483
  100bbb     C5 2884  11.048  13.380   7.291  0.6809 -1.3676 -0.3716
  100bbb     H9 2885  11.068  13.322   7.201  0.9874 -0.4165 -0.9341
  100bbb    H10 2886  10.981  13.466   7.275  2.8845  0.9867  2.0670
  100bbb     C6 2887  11.427  13.333   7.186  0.2925 -0.7085  0.4397
  100bbb    H11 2888  11.380  13.248   7.236 -0.9329  0.0109  0.5550
  100bbb    H12 2889  11.497  13.380   7.257  0.4734  0.0617 -0.2280
  100bbb     C7 2890  11.218  13.873   7.138  0.1875  0.2655 -0.6805
  100bbb    H13 2891  11.253  13.933   7.223  0.4393 -1.3875  0.4263
  100bbb    H14 2892  11.110  13.861   7.143  0.3016 -1.0541 -1.0815
  100bbb     C8 2893  11.505  13.273   7.068  0.4410 -0.3004  0.0221
  100bbb    H15 2894  11.508  13.345   6.985  3.8131  1.2207  1.2793
  100bbb    H16 2895  11.446  13.193   7.022  0.7517 -1.4707  1.5888
  100bbb     C9 2896  10.958  13.292   7.382  0.2291 -0.4539  1.1907
  100bbb    H17 2897  10.983  13.185   7.387 -0.0621 -0.5738  0.3210
  100bbb    H18 2898  10.857  13.300   7.340 -0.0993  0.4959  2.1283
  100bbb     O1 2899  11.261  13.935   7.016  0.0321 -0.1667  0.3909
  101bbb     N1 2900  11.570  12.749   5.216 -0.1751  0.2718 -0.0750
  101bbb     C1 2901  11.556  12.633   5.317 -0.1789  0.4369  0.3444
  101bbb     H1 2902  11.549  12.553   5.243  3.3460  1.2017 -1.0070
  101bbb     H2 2903  11.458  12.643   5.366  0.1611  1.5739  0.8140
  101bbb     C2 2904  11.692  12.741   5.130  0.0108 -0.3047  0.0298
  101bbb     H3 2905  11.774  12.702   5.190 -0.7210 -0.9630  0.6233
  101bbb     H4 2906  11.715  12.847   5.112  1.2909 -0.7768 -1.3087
  101bbb     C3 2907  11.444  12.787   5.157  0.0246  0.4829  0.0805
  101bbb     H5 2908  11.374  12.759   5.236 -0.3268 -0.4773 -0.5538
  101bbb     H6 2909  11.430  12.720   5.072 -0.8814 -1.6679  1.8316
  101bbb     C4 2910  11.444  12.934   5.125  0.6490 -0.3448 -0.1289
  101bbb     H7 2911  11.493  12.953   5.028  1.6330 -3.0377 -0.2386
  101bbb     H8 2912  11.486  12.994   5.207 -0.8092 -0.7247  0.9290
  101bbb     C5 2913  11.670  12.595   5.415 -0.4895  1.1499 -0.2993
  101bbb     H9 2914  11.760  12.549   5.372 -0.9358 -3.5550  2.9233
  101bbb    H10 2915  11.638  12.506   5.472 -0.4168 -0.4356 -2.5826
  101bbb     C6 2916  11.668  12.680   4.986 -0.3698 -0.2498 -0.2333
  101bbb    H11 2917  11.597  12.744   4.933  0.8612  1.0737 -0.3468
  101bbb    H12 2918  11.624  12.580   4.994 -1.0062 -0.0911 -1.5639
  101bbb     C7 2919  11.299  12.976   5.105  0.2547  0.8300  0.5590
  101bbb    H13 2920  11.238  12.931   5.184  1.4501 -2.0642 -0.0309
  101bbb    H14 2921  11.260  12.930   5.013  0.1522 -1.3747  1.6198
  101bbb     C8 2922  11.793  12.665   4.897 -0.4023  0.8619  0.0669
  101bbb    H15 2923  11.867  12.620   4.965 -1.4621  1.0717  1.3959
  101bbb    H16 2924  11.838  12.752   4.848  1.0122  0.2744  0.2790
  101bbb     C9 2925  11.711  12.717   5.495 -0.2013  0.2288 -0.4725
  101bbb    H17 2926  11.621  12.767   5.533  0.2143 -0.2285  1.1866
  101bbb    H18 2927  11.761  12.790   5.430  1.2734 -0.9177 -0.6882
  101bbb     O1 2928  11.288  13.110   5.093  0.2896 -0.0621  0.4292
  102bbb     N1 2929  10.274  13.311   5.640 -0.3207  0.6329 -0.3038
  102bbb     C1 2930  10.198  13.193   5.601 -0.1036  0.5285  0.5534
  102bbb     H1 2931  10.183  13.196   5.492  0.1873 -0.1813  0.4886
  102bbb     H2 2932  10.099  13.183   5.647  0.1580  0.3778  1.0833
  102bbb     C2 2933  10.298  13.317   5.786  0.6210 -0.4594  0.2383
  102bbb     H3 2934  10.366  13.400   5.808  1.2509 -0.9720  0.2450
  102bbb     H4 2935  10.353  13.227   5.816  0.2965 -1.1256 -1.0652
  102bbb     C3 2936  10.405  13.318   5.571 -1.0440  0.7546  0.6854
  102bbb     H5 2937  10.478  13.244   5.605 -0.0091  0.8711 -1.1264
  102bbb     H6 2938  10.454  13.412   5.597  0.1209  0.3402  0.0416
  102bbb     C4 2939  10.416  13.304   5.414  0.8460  0.5115  0.4447
  102bbb     H7 2940  10.372  13.388   5.359 -2.1361 -2.1516 -1.6116
  102bbb     H8 2941  10.351  13.225   5.375 -0.2714  1.8425 -0.4810
  102bbb     C5 2942  10.256  13.057   5.616  0.2478  0.3315 -0.2849
  102bbb     H9 2943  10.265  13.046   5.724 -1.8361  0.6825 -0.0261
  102bbb    H10 2944  10.349  13.052   5.558  0.2921  0.5760 -0.2370
  102bbb     C6 2945  10.170  13.333   5.874 -0.4036 -0.1209  1.2378
  102bbb    H11 2946  10.209  13.349   5.975  2.0648  0.9907  0.1902
  102bbb    H12 2947  10.113  13.239   5.877  1.6771 -1.7752 -3.0989
  102bbb     C7 2948  10.546  13.259   5.352 -0.2893 -0.0054  0.3239
  102bbb    H13 2949  10.526  13.215   5.253  0.8427 -1.6544  0.7814
  102bbb    H14 2950  10.586  13.183   5.420 -1.1102 -1.6519 -0.9557
  102bbb     C8 2951  10.078  13.442   5.827  0.2753  0.3002 -0.2706
  102bbb    H15 2952  10.068  13.442   5.717  2.0454  0.2613 -0.4633
  102bbb    H16 2953  10.114  13.542   5.852  1.6579 -0.1602 -0.2974
  102bbb     C9 2954  10.154  12.951   5.561 -0.0908  0.5946 -0.3905
  102bbb    H17 2955  10.067  12.945   5.627  0.2883 -0.0421  0.0517
  102bbb    H18 2956  10.209  12.857   5.568 -1.6808 -0.5422 -2.2212
  102bbb     O1 2957  10.631  13.382   5.331 -0.0534 -0.5566 -0.4521
  103bbb     N1 2958   9.592  12.234   7.236 -0.0420  0.4749 -0.5951
  103bbb     C1 2959   9.668  12.324   7.138 -0.4640  0.2441 -0.5545
  103bbb     H1 2960   9.703  12.409   7.198  0.6094  0.3980 -1.3766
  103bbb     H2 2961   9.607  12.356   7.053 -1.8492 -2.5395 -0.7218
  103bbb     C2 2962   9.666  12.233   7.368 -0.4605  0.6152 -0.3871
  103bbb     H3 2963   9.680  12.337   7.401 -0.6636  1.1544 -1.8921
  103bbb     H4 2964   9.768  12.196   7.354  1.0882  4.1748  0.3974
  103bbb     C3 2965   9.563  12.101   7.174 -0.0991  0.0370  0.1161
  103bbb     H5 2966   9.513  12.036   7.247 -0.5984 -1.1784 -1.2504
  103bbb     H6 2967   9.651  12.040   7.152 -0.1758  0.2562 -0.8655
  103bbb     C4 2968   9.467  12.102   7.057 -0.1434 -0.0399 -0.2581
  103bbb     H7 2969   9.521  12.149   6.974 -0.7510  2.8203  0.8511
  103bbb     H8 2970   9.381  12.166   7.080  1.3686  2.1697 -0.4031
  103bbb     C5 2971   9.796  12.262   7.076  0.0660  0.2213 -1.0273
  103bbb     H9 2972   9.778  12.179   7.006  0.4027 -0.4954 -0.2825
  103bbb    H10 2973   9.857  12.224   7.158 -2.3914  1.1994  1.4187
  103bbb     C6 2974   9.602  12.143   7.481  0.8606 -0.7659  0.0034
  103bbb    H11 2975   9.653  12.161   7.577  1.4400 -1.7537 -0.1090
  103bbb    H12 2976   9.617  12.038   7.454 -1.5149 -1.0221 -0.5776
  103bbb     C7 2977   9.420  11.963   7.007 -0.2564  0.1235  0.0955
  103bbb    H13 2978   9.349  11.969   6.923 -1.4310 -0.5758  0.9958
  103bbb    H14 2979   9.364  11.912   7.086  1.2002 -0.2748  0.9112
  103bbb     C8 2980   9.456  12.171   7.507  0.2000  0.7461 -0.1131
  103bbb    H15 2981   9.402  12.191   7.414  0.7049  0.2491 -0.5208
  103bbb    H16 2982   9.448  12.268   7.558 -1.8583  0.1333  0.8427
  103bbb     C9 2983   9.864  12.376   6.985  0.7441  0.0333  0.0641
  103bbb    H17 2984   9.851  12.468   7.043  1.7235  0.4447 -0.3546
  103bbb    H18 2985   9.809  12.379   6.890  2.7656  1.4719 -1.1518
  103bbb     O1 2986   9.538  11.883   6.987  0.0894  0.0557  0.1283
  104bbb     N1 2987  10.312  11.388   7.926 -0.2977  0.5420 -0.1320
  104bbb     C1 2988  10.370  11.249   7.908 -0.2990  0.7135 -0.3341
  104bbb     H1 2989  10.465  11.238   7.962 -0.5856 -0.6031 -0.0544
  104bbb     H2 2990  10.398  11.226   7.804  0.1618  0.3759 -0.1415
  104bbb     C2 2991  10.296  11.422   8.072  0.0458 -0.3847 -0.2406
  104bbb     H3 2992  10.393  11.441   8.120 -1.4785  0.4875  2.7352
  104bbb     H4 2993  10.248  11.342   8.130  0.6190 -0.8556 -0.4127
  104bbb     C3 2994  10.370  11.492   7.832 -0.6928 -0.0025  0.3679
  104bbb     H5 2995  10.477  11.510   7.847 -0.4545  0.4570 -1.6383
  104bbb     H6 2996  10.328  11.590   7.859  0.0153 -0.3869  3.2108
  104bbb     C4 2997  10.340  11.465   7.683 -1.0005 -0.3935  0.5284
  104bbb     H7 2998  10.363  11.361   7.658 -0.1013  0.4998 -2.7781
  104bbb     H8 2999  10.402  11.523   7.613 -2.4407 -1.7118 -1.9471
  104bbb     C5 3000  10.282  11.134   7.953  0.8232  0.2011  0.2723
  104bbb     H9 3001  10.189  11.144   7.895  0.5078 -1.3553  0.4662
  104bbb    H10 3002  10.260  11.145   8.060 -0.2606  0.5084  0.0349
  104bbb     C6 3003  10.220  11.550   8.094  0.7099 -0.5147  0.3607
  104bbb    H11 3004  10.271  11.634   8.046 -1.8847  0.6799 -0.4856
  104bbb    H12 3005  10.230  11.570   8.201  2.1006  0.4635  0.0681
  104bbb     C7 3006  10.191  11.491   7.651 -0.5610  0.1434 -0.7950
  104bbb    H13 3007  10.173  11.599   7.655  0.2073  0.2678 -0.4551
  104bbb    H14 3008  10.132  11.427   7.719 -0.7129 -0.2992 -1.3369
  104bbb     C8 3009  10.066  11.551   8.057 -0.0523 -0.2286  0.0011
  104bbb    H15 3010  10.028  11.458   8.102 -1.9171  0.0761 -0.8502
  104bbb    H16 3011  10.052  11.535   7.950 -0.4663  0.9060 -0.1245
  104bbb     C9 3012  10.336  10.997   7.921  0.2901  0.1927  0.4160
  104bbb    H17 3013  10.368  10.988   7.816  3.2166  1.2202  1.1361
  104bbb    H18 3014  10.256  10.923   7.935  0.4703 -0.1940 -0.5035
  104bbb     O1 3015  10.156  11.450   7.520  0.6378  0.2975  0.0606
  105bbb     N1 3016   9.979  11.823   6.864  0.0195 -0.8360  0.0469
  105bbb     C1 3017   9.939  11.936   6.768  0.3351  0.8915 -0.3877
  105bbb     H1 3018  10.027  11.959   6.707  0.5047 -0.1213 -0.5502
  105bbb     H2 3019   9.898  12.018   6.828 -0.9912 -1.6471  2.4728
  105bbb     C2 3020   9.978  11.688   6.808 -0.2870  0.5783 -0.2454
  105bbb     H3 3021   9.877  11.655   6.778  0.1525 -1.5595  0.4520
  105bbb     H4 3022   9.992  11.617   6.890  1.1102 -0.3919 -1.2825
  105bbb     C3 3023  10.109  11.848   6.940 -0.3520 -0.9185 -0.6336
  105bbb     H5 3024  10.193  11.853   6.869 -0.1603 -1.5668 -0.4624
  105bbb     H6 3025  10.124  11.768   7.013  1.1817 -0.4918 -0.4234
  105bbb     C4 3026  10.090  11.971   7.033 -0.8661  0.3883  0.2124
  105bbb     H7 3027  10.056  12.060   6.979  0.6301  0.0888 -1.3162
  105bbb     H8 3028  10.187  12.000   7.076 -1.5893  0.8563  1.6005
  105bbb     C5 3029   9.818  11.898   6.680  0.5085 -0.6865 -0.1745
  105bbb     H9 3030   9.742  11.867   6.753  2.3580 -2.1317  1.2115
  105bbb    H10 3031   9.832  11.813   6.612 -1.1565 -1.2227  0.0918
  105bbb     C6 3032  10.083  11.670   6.694 -0.4981 -0.7535 -0.4409
  105bbb    H11 3033  10.180  11.652   6.742  0.0252  0.2706 -1.0850
  105bbb    H12 3034  10.104  11.760   6.635 -0.5121  0.5735  1.4764
  105bbb     C7 3035   9.997  11.945   7.158 -0.9142 -0.1921  0.2600
  105bbb    H13 3036  10.007  11.840   7.189 -0.0130 -0.6173 -1.3657
  105bbb    H14 3037   9.892  11.963   7.130 -0.2030  1.4028 -1.6497
  105bbb     C8 3038  10.063  11.550   6.596 -0.1202 -0.1772 -0.4504
  105bbb    H15 3039  10.083  11.459   6.653  0.3827  0.8005  1.0015
  105bbb    H16 3040  10.142  11.566   6.521  2.1722  0.5871  1.9705
  105bbb     C9 3041   9.762  12.029   6.606 -1.0360  0.1853  0.0848
  105bbb    H17 3042   9.854  12.080   6.574 -1.4324  1.1564  0.4457
  105bbb    H18 3043   9.707  12.096   6.674 -2.2449 -0.1244 -0.5670
  105bbb     O1 3044  10.043  12.041   7.254  0.4736 -0.6503 -1.0678
  106bbb     N1 3045  10.428  11.442   6.581  0.3191 -0.4973  0.0368
  106bbb     C1 3046  10.553  11.506   6.524  0.0070  0.3093  0.3246
  106bbb     H1 3047  10.601  11.431   6.460  0.1336 -0.1823  0.9903
  106bbb     H2 3048  10.623  11.524   6.606 -0.3862  0.7877  0.5616
  106bbb     C2 3049  10.390  11.317   6.497 -0.6123 -0.2031  0.0739
  106bbb     H3 3050  10.471  11.243   6.504 -0.2728  0.1432 -0.1063
  106bbb     H4 3051  10.392  11.347   6.391  0.9167  1.8539  0.6154
  106bbb     C3 3052  10.422  11.422   6.725 -0.2654 -0.3876 -0.0729
  106bbb     H5 3053  10.499  11.352   6.758  1.4018 -0.0120 -2.9194
  106bbb     H6 3054  10.329  11.371   6.755  0.1349 -1.3086 -0.3842
  106bbb     C4 3055  10.449  11.543   6.822  0.0886  0.1847  1.3216
  106bbb     H7 3056  10.391  11.630   6.789  0.7643  0.2265  0.2232
  106bbb     H8 3057  10.557  11.562   6.820  0.7210 -2.8556 -0.1853
  106bbb     C5 3058  10.520  11.636   6.452  0.0449  0.4164  0.4588
  106bbb     H9 3059  10.464  11.613   6.360  0.9233  1.4776 -0.3702
  106bbb    H10 3060  10.615  11.678   6.416  0.1620 -1.4463 -1.6722
  106bbb     C6 3061  10.253  11.247   6.528 -0.0749  0.3147  0.0649
  106bbb    H11 3062  10.169  11.315   6.513 -0.4945 -0.1539  0.2737
  106bbb    H12 3063  10.255  11.221   6.635  1.4997  0.4189  0.0880
  106bbb     C7 3064  10.408  11.510   6.964  0.3043  0.5437 -0.4187
  106bbb    H13 3065  10.474  11.427   6.991  0.5412  0.2278 -1.8588
  106bbb    H14 3066  10.301  11.488   6.976  0.2058  1.4515  0.4839
  106bbb     C8 3067  10.232  11.115   6.447 -0.3035  0.0365 -0.1337
  106bbb    H15 3068  10.294  11.032   6.484 -2.1926 -0.6185  1.7283
  106bbb    H16 3069  10.260  11.148   6.346 -0.8000  0.8154 -0.0238
  106bbb     C9 3070  10.446  11.740   6.543 -0.2065 -0.0051  0.0768
  106bbb    H17 3071  10.358  11.696   6.592  0.4601 -1.2188  0.2117
  106bbb    H18 3072  10.410  11.820   6.477 -3.8937  0.4660  2.4080
  106bbb     O1 3073  10.435  11.628   7.046 -0.5973  0.5161 -0.2939
  107bbb     N1 3074  11.034  12.987   8.428  0.2749 -0.1597 -0.2594
  107bbb     C1 3075  11.049  12.877   8.531  0.5176 -0.0768  0.0403
  107bbb     H1 3076  11.083  12.915   8.628  0.3974 -1.2819  0.5757
  107bbb     H2 3077  11.116  12.794   8.503  2.2163  0.7213  1.5011
  107bbb     C2 3078  11.162  13.050   8.396 -0.2209 -0.2781  0.4804
  107bbb     H3 3079  11.138  13.136   8.332 -1.5212 -1.9034 -1.3574
  107bbb     H4 3080  11.230  12.984   8.340  0.0106  0.2718  0.1093
  107bbb     C3 3081  10.969  12.943   8.301  0.1358 -0.1159  0.0962
  107bbb     H5 3082  10.888  12.874   8.329 -0.4596  0.5261 -0.0283
  107bbb     H6 3083  11.036  12.886   8.236 -0.5613 -0.2202 -0.5450
  107bbb     C4 3084  10.902  13.062   8.229  0.0199 -0.0702 -0.1835
  107bbb     H7 3085  10.971  13.138   8.191 -0.6102  0.0208 -1.1991
  107bbb     H8 3086  10.827  13.105   8.297 -0.7828  1.1074 -1.7400
  107bbb     C5 3087  10.909  12.823   8.552 -0.2814  0.5937  0.0874
  107bbb     H9 3088  10.893  12.744   8.477  3.4362 -0.9186  0.6350
  107bbb    H10 3089  10.831  12.894   8.524 -0.2709  0.3948 -0.4630
  107bbb     C6 3090  11.252  13.101   8.516  0.4902  0.0012 -0.6187
  107bbb    H11 3091  11.295  13.018   8.574 -2.3292  0.9678  3.2362
  107bbb    H12 3092  11.179  13.143   8.586  0.9430 -0.6731  0.2751
  107bbb     C7 3093  10.825  13.008   8.103 -0.6701  0.3964  0.1885
  107bbb    H13 3094  10.764  13.092   8.068 -0.0800  0.8523  0.2262
  107bbb    H14 3095  10.772  12.915   8.125 -1.8325  1.0480  0.2219
  107bbb     C8 3096  11.342  13.223   8.472 -0.3386  0.0208  0.4357
  107bbb    H15 3097  11.383  13.285   8.553  3.7951  0.9746 -2.0866
  107bbb    H16 3098  11.272  13.284   8.413  0.4765  0.5908  0.0293
  107bbb     C9 3099  10.888  12.767   8.699  0.1952  0.6089  0.2709
  107bbb    H17 3100  10.784  12.734   8.695  0.9881 -2.1170 -0.1622
  107bbb    H18 3101  10.891  12.859   8.759  2.4106  1.5622 -1.1462
  107bbb     O1 3102  10.921  12.979   7.995  0.4551  0.0685  0.3252
  108bbb     N1 3103  11.099  12.155   8.016 -0.2036  0.6031  0.2344
  108bbb     C1 3104  11.153  12.051   8.105 -0.9583 -0.2532  0.4536
  108bbb     H1 3105  11.262  12.045   8.113 -0.9477 -0.3503  0.2319
  108bbb     H2 3106  11.128  11.950   8.069  0.7653 -0.3103 -0.7097
  108bbb     C2 3107  10.966  12.113   7.951 -0.4509 -0.1678  0.2369
  108bbb     H3 3108  10.903  12.043   8.007 -1.5806  2.3015  2.2632
  108bbb     H4 3109  10.979  12.080   7.847 -2.1032 -0.1414 -0.0053
  108bbb     C3 3110  11.199  12.213   7.922  0.1334 -0.1375 -1.0171
  108bbb     H5 3111  11.148  12.293   7.866  1.3185  1.7598  0.5033
  108bbb     H6 3112  11.247  12.135   7.861 -1.6644 -2.2840  0.1531
  108bbb     C4 3113  11.312  12.289   7.998 -0.6554 -0.3186 -0.2547
  108bbb     H7 3114  11.386  12.224   8.046  1.1840  1.9877  0.2774
  108bbb     H8 3115  11.269  12.359   8.071 -0.5529  0.5428 -0.9899
  108bbb     C5 3116  11.101  12.068   8.249 -0.2057 -0.4697 -0.6042
  108bbb     H9 3117  11.000  12.108   8.256  0.7906  1.8317  3.4867
  108bbb    H10 3118  11.164  12.144   8.296 -0.1874 -0.2462 -0.9854
  108bbb     C6 3119  10.882  12.237   7.913 -0.1087  0.4988 -0.5789
  108bbb    H11 3120  10.924  12.314   7.848  2.2018  0.4616  0.7771
  108bbb    H12 3121  10.870  12.302   8.000 -0.5956  0.8466 -0.8994
  108bbb     C7 3122  11.397  12.378   7.915 -0.2991 -0.4578 -0.1456
  108bbb    H13 3123  11.445  12.317   7.838  1.7235  0.8366 -0.0020
  108bbb    H14 3124  11.472  12.436   7.971 -2.0325  1.5702  0.2052
  108bbb     C8 3125  10.740  12.198   7.869 -0.2369  0.5196  0.2017
  108bbb    H15 3126  10.687  12.121   7.926 -1.8463  0.7324 -0.9356
  108bbb    H16 3127  10.738  12.163   7.765  0.1584 -0.7254  0.6021
  108bbb     C9 3128  11.096  11.939   8.340  0.1467  0.0798 -0.5669
  108bbb    H17 3129  11.191  11.886   8.328  0.5141  0.5193  0.3524
  108bbb    H18 3130  11.017  11.873   8.303 -0.6665  0.7921 -0.1491
  108bbb     O1 3131  11.316  12.467   7.839 -0.6393  0.0059  0.4764
  109bbb     N1 3132  10.169  12.781   6.021 -0.0987 -0.3630 -0.2929
  109bbb     C1 3133  10.180  12.635   6.056 -0.1290 -0.4597  0.4127
  109bbb     H1 3134  10.167  12.620   6.164  0.9416 -1.7124  0.3876
  109bbb     H2 3135  10.278  12.592   6.033 -0.1920 -0.8488  0.8513
  109bbb     C2 3136  10.072  12.860   6.107  0.2079 -0.3733 -0.7805
  109bbb     H3 3137  10.121  12.898   6.198 -0.1344 -2.1880  0.2192
  109bbb     H4 3138   9.987  12.804   6.147  1.0257  0.2374  2.0293
  109bbb     C3 3139  10.300  12.848   6.007  0.3509  0.5432 -0.0979
  109bbb     H5 3140  10.347  12.828   6.104 -0.4240  3.1166  0.9036
  109bbb     H6 3141  10.291  12.958   6.003 -0.5791  0.4397 -1.2225
  109bbb     C4 3142  10.387  12.792   5.894 -0.5260  0.4117 -0.1817
  109bbb     H7 3143  10.343  12.817   5.796  0.6681  0.6921 -0.6699
  109bbb     H8 3144  10.401  12.683   5.903  0.1776  0.5539  0.4555
  109bbb     C5 3145  10.080  12.541   5.989  0.5179  0.1709  0.6832
  109bbb     H9 3146  10.111  12.543   5.884  1.8165 -1.1273  1.0166
  109bbb    H10 3147   9.983  12.591   5.999 -0.9281 -2.1183 -0.7884
  109bbb     C6 3148  10.014  12.977   6.025 -0.1853 -0.2914 -0.5357
  109bbb    H11 3149  10.083  13.062   6.019  0.9931 -1.0471  1.5355
  109bbb    H12 3150   9.943  13.021   6.095  1.3123  1.1433  0.1398
  109bbb     C7 3151  10.533  12.846   5.895  0.0986 -0.7856  1.1442
  109bbb    H13 3152  10.601  12.798   5.823  3.1047  3.2731  0.9119
  109bbb    H14 3153  10.566  12.827   5.997  0.5953 -1.2572  0.8986
  109bbb     C8 3154   9.961  12.947   5.883 -0.1076  0.0541  0.1819
  109bbb    H15 3155  10.043  12.896   5.831  0.9047  1.2706  0.5449
  109bbb    H16 3156   9.930  13.037   5.830 -0.5683 -0.0166  0.3292
  109bbb     C9 3157  10.070  12.396   6.032 -0.1699  0.1181  0.2636
  109bbb    H17 3158  10.033  12.389   6.135 -0.8952  1.0641  0.0812
  109bbb    H18 3159  10.170  12.350   6.035 -0.7276 -1.3631 -1.6162
  109bbb     O1 3160  10.517  12.992   5.876  0.0310  0.0796 -0.6025
  110bbb     N1 3161   9.775  13.023   6.659 -0.2686  0.4803 -0.0974
  110bbb     C1 3162   9.650  13.043   6.740  0.4747 -0.1387 -0.4585
  110bbb     H1 3163   9.613  12.949   6.784  0.5498 -1.3387 -2.7981
  110bbb     H2 3164   9.568  13.077   6.675 -0.1420 -1.4092 -0.3875
  110bbb     C2 3165   9.865  12.933   6.734 -0.1503 -0.0631  0.0309
  110bbb     H3 3166   9.877  12.979   6.833 -2.0710 -0.6291  0.5681
  110bbb     H4 3167   9.960  12.953   6.684  0.4788 -2.1427  0.3298
  110bbb     C3 3168   9.742  12.998   6.516  0.4503 -0.6532  0.2330
  110bbb     H5 3169   9.681  13.084   6.487  2.4155  0.6976 -0.1039
  110bbb     H6 3170   9.677  12.910   6.507  0.9251 -0.9050 -0.9637
  110bbb     C4 3171   9.864  12.989   6.426  0.2089 -0.8137 -0.0575
  110bbb     H7 3172   9.830  12.953   6.328 -1.3773  0.2854  0.0582
  110bbb     H8 3173   9.938  12.927   6.478 -0.2874  0.9472  2.9716
  110bbb     C5 3174   9.670  13.136   6.863  0.0693  0.0407  0.3669
  110bbb     H9 3175   9.718  13.089   6.950 -0.5201  0.0198  0.6827
  110bbb    H10 3176   9.565  13.150   6.891 -0.6688 -1.7153 -1.3088
  110bbb     C6 3177   9.837  12.789   6.762 -0.1781  0.8966  0.4012
  110bbb    H11 3178   9.832  12.736   6.666  2.3780 -1.1789  1.2935
  110bbb    H12 3179   9.740  12.767   6.808 -0.3543  0.5344 -0.1317
  110bbb     C7 3180   9.930  13.130   6.411 -0.1697  0.3302 -0.1628
  110bbb    H13 3181   9.962  13.184   6.502  1.3936 -0.4165 -0.2449
  110bbb    H14 3182   9.863  13.198   6.357  0.2418  0.7896 -0.0991
  110bbb     C8 3183   9.944  12.715   6.852 -0.0879  0.1508 -0.3032
  110bbb    H15 3184  10.028  12.693   6.786 -0.8188  0.1394 -1.2530
  110bbb    H16 3185   9.913  12.614   6.881 -2.3552  0.6587 -0.7641
  110bbb     C9 3186   9.746  13.264   6.831  0.1717  0.1460 -0.0551
  110bbb    H17 3187   9.679  13.329   6.773 -1.7778 -1.4839  0.2204
  110bbb    H18 3188   9.828  13.228   6.768 -0.8554  1.2224 -2.1134
  110bbb     O1 3189  10.046  13.113   6.323 -0.0887 -0.3049  0.1425
  111bbb     N1 3190  12.272   9.703   5.497 -0.0963  0.2883  0.2142
  111bbb     C1 3191  12.176   9.597   5.458 -0.0487 -0.1903  0.6695
  111bbb     H1 3192  12.225   9.520   5.398 -1.2874  0.3740 -1.1701
  111bbb     H2 3193  12.093   9.626   5.392 -0.2803 -0.8698  0.6538
  111bbb     C2 3194  12.394   9.718   5.413  0.2499 -0.3141  0.1219
  111bbb     H3 3195  12.429   9.623   5.373  1.8696  0.0057  0.6757
  111bbb     H4 3196  12.483   9.754   5.467  1.1105 -1.5565 -0.4202
  111bbb     C3 3197  12.223   9.828   5.563 -0.5762 -0.4103 -0.7989
  111bbb     H5 3198  12.140   9.804   5.631 -0.1924  0.1220 -0.1474
  111bbb     H6 3199  12.183   9.899   5.490 -1.7294 -0.0208  0.1791
  111bbb     C4 3200  12.326   9.896   5.650  0.4813 -0.6038 -0.1770
  111bbb     H7 3201  12.417   9.929   5.598  0.7623 -0.5786  0.3180
  111bbb     H8 3202  12.351   9.831   5.735  2.9619  1.4459  0.7937
  111bbb     C5 3203  12.115   9.529   5.575  0.8647  0.1374  0.1240
  111bbb     H9 3204  12.049   9.595   5.634 -2.3153 -1.1895 -1.7053
  111bbb    H10 3205  12.196   9.508   5.646  0.0506  1.2144  1.4273
  111bbb     C6 3206  12.374   9.822   5.302 -0.7334  0.2237  0.0377
  111bbb    H11 3207  12.361   9.921   5.348 -1.0728  0.1505  0.1034
  111bbb    H12 3208  12.283   9.794   5.247  0.6508 -1.1129 -1.6996
  111bbb     C7 3209  12.263  10.031   5.702  0.6695  0.2428 -0.5429
  111bbb    H13 3210  12.233  10.087   5.612 -0.7457 -1.1415 -0.9785
  111bbb    H14 3211  12.335  10.090   5.760  0.6300  0.6635 -0.9108
  111bbb     C8 3212  12.497   9.811   5.208  0.0732  0.4538 -0.0296
  111bbb    H15 3213  12.581   9.809   5.279 -0.0225 -1.3622  0.0883
  111bbb    H16 3214  12.507   9.898   5.142  1.1386  0.7603  0.5048
  111bbb     C9 3215  12.028   9.404   5.531  0.5638 -0.1367 -0.5225
  111bbb    H17 3216  11.940   9.455   5.491  2.1105  0.6674 -3.1647
  111bbb    H18 3217  12.004   9.340   5.617  0.0968 -0.2640 -0.7425
  111bbb     O1 3218  12.138  10.011   5.773 -0.0674  0.0655 -0.7183
  112bbb     N1 3219  12.344   9.775   6.136  0.0372  0.2374 -0.1851
  112bbb     C1 3220  12.205   9.722   6.138 -0.0902 -0.1953 -0.7372
  112bbb     H1 3221  12.126   9.796   6.152  1.0748  0.7111  1.6343
  112bbb     H2 3222  12.205   9.661   6.229 -2.5861  0.7576 -0.0233
  112bbb     C2 3223  12.457   9.681   6.160 -0.1932  0.0294 -0.5531
  112bbb     H3 3224  12.552   9.735   6.173 -0.2646  0.1161 -0.3939
  112bbb     H4 3225  12.479   9.621   6.071  3.4383 -1.4007  1.0732
  112bbb     C3 3226  12.368   9.889   6.054  0.3987 -0.7243  0.0981
  112bbb     H5 3227  12.350   9.857   5.950  1.4319 -0.8626 -0.0433
  112bbb     H6 3228  12.463   9.943   6.059 -0.0088  0.1055 -0.7279
  112bbb     C4 3229  12.266  10.007   6.087 -0.5987  0.4722 -0.0589
  112bbb     H7 3230  12.162   9.977   6.069  0.4919 -3.2553 -0.7865
  112bbb     H8 3231  12.303  10.088   6.023  1.2312 -2.2285 -2.6399
  112bbb     C5 3232  12.179   9.627   6.015 -0.1173 -0.1567 -0.0107
  112bbb     H9 3233  12.271   9.573   5.988  1.4296  1.4414  1.6949
  112bbb    H10 3234  12.163   9.692   5.928 -0.0194 -0.7338 -0.4632
  112bbb     C6 3235  12.454   9.594   6.289 -0.3200  0.1806 -0.2899
  112bbb    H11 3236  12.554   9.550   6.303 -0.4306  0.6989  2.8412
  112bbb    H12 3237  12.385   9.510   6.277 -0.8172  0.5156  0.2177
  112bbb     C7 3238  12.283  10.054   6.235 -0.1164  0.2126  0.3007
  112bbb    H13 3239  12.376  10.109   6.255  0.2266 -0.8079  1.6108
  112bbb    H14 3240  12.281   9.962   6.295 -0.3308  0.2388  0.3327
  112bbb     C8 3241  12.434   9.678   6.415 -0.5233  0.6433 -0.0109
  112bbb    H15 3242  12.353   9.745   6.384 -0.5560 -0.6646 -3.0503
  112bbb    H16 3243  12.526   9.738   6.423  1.9546 -2.7946 -0.4165
  112bbb     C9 3244  12.051   9.546   6.038  0.7240 -0.0511 -0.2765
  112bbb    H17 3245  11.967   9.607   6.071  0.1349 -1.4108  0.8076
  112bbb    H18 3246  12.077   9.485   6.125 -0.5658 -1.1820 -0.6516
  112bbb     O1 3247  12.171  10.126   6.275  0.2800 -0.3917 -0.2113
  113bbb     N1 3248  13.350  10.452   5.808  0.2576  0.0644 -0.2381
  113bbb     C1 3249  13.500  10.453   5.775  0.2754  0.2858 -0.1578
  113bbb     H1 3250  13.541  10.551   5.806 -1.2684  0.6940  0.6858
  113bbb     H2 3251  13.511  10.437   5.667 -0.1522 -1.1060 -0.0067
  113bbb     C2 3252  13.280  10.575   5.778  0.4955  0.1299  0.5659
  113bbb     H3 3253  13.348  10.653   5.813  1.7257 -1.1313  1.0737
  113bbb     H4 3254  13.187  10.576   5.838 -0.1896  0.4060 -0.4786
  113bbb     C3 3255  13.286  10.319   5.784 -0.6051 -1.0992  0.2980
  113bbb     H5 3256  13.346  10.235   5.821  1.2245  0.7748  1.8658
  113bbb     H6 3257  13.274  10.306   5.676 -1.2982  0.8739  0.0970
  113bbb     C4 3258  13.155  10.302   5.865  0.0084  0.3529  0.0249
  113bbb     H7 3259  13.118  10.199   5.850  1.4664 -0.0513 -0.9702
  113bbb     H8 3260  13.072  10.368   5.838  0.3930 -0.3660 -3.3905
  113bbb     C5 3261  13.586  10.347   5.857  0.6179 -0.2571 -0.3343
  113bbb     H9 3262  13.690  10.350   5.823  0.4337  0.8872 -0.8619
  113bbb    H10 3263  13.558  10.245   5.828  1.4341 -0.6333  0.1880
  113bbb     C6 3264  13.243  10.608   5.631  0.3309 -0.8606  0.3387
  113bbb    H11 3265  13.181  10.527   5.591  0.4780 -0.4134 -0.8608
  113bbb    H12 3266  13.337  10.622   5.575  0.5049  0.8471  0.9933
  113bbb     C7 3267  13.187  10.313   6.018  0.2791  0.5448  0.0286
  113bbb    H13 3268  13.220  10.412   6.052  1.3223  0.0078  0.6191
  113bbb    H14 3269  13.267  10.240   6.035  0.4071  0.3864 -1.1343
  113bbb     C8 3270  13.158  10.735   5.608 -0.1009 -0.5708  0.0842
  113bbb    H15 3271  13.056  10.723   5.647 -0.3742 -0.3678 -0.5465
  113bbb    H16 3272  13.153  10.767   5.503  1.8862  0.2406  0.2062
  113bbb     C9 3273  13.571  10.371   6.017 -0.2345  0.2262  0.9090
  113bbb    H17 3274  13.465  10.388   6.042 -0.3623  0.7672  0.0701
  113bbb    H18 3275  13.619  10.464   6.051 -1.4641  0.4184  2.2266
  113bbb     O1 3276  13.077  10.278   6.094 -0.0485  0.3004  0.2157
  114bbb     N1 3277  13.491  11.215   6.459 -0.3084 -0.0395  0.0482
  114bbb     C1 3278  13.400  11.216   6.581 -0.1978  0.1387  0.2699
  114bbb     H1 3279  13.444  11.158   6.663  2.3644 -3.0372 -2.9883
  114bbb     H2 3280  13.302  11.170   6.565 -0.1912  0.6079 -1.3343
  114bbb     C2 3281  13.628  11.268   6.473  0.0509  0.3469  0.3950
  114bbb     H3 3282  13.634  11.377   6.480  2.8389  0.1996  1.8018
  114bbb     H4 3283  13.682  11.236   6.382  0.1776 -4.7520  1.9102
  114bbb     C3 3284  13.428  11.247   6.332  0.7322  1.0661 -0.2613
  114bbb     H5 3285  13.502  11.207   6.262  1.5066  1.0296  0.5660
  114bbb     H6 3286  13.428  11.356   6.327  0.2143  1.1813  1.4221
  114bbb     C4 3287  13.285  11.193   6.308 -0.6888 -0.6038  0.0392
  114bbb     H7 3288  13.246  11.243   6.219 -0.3321  0.7474  0.6163
  114bbb     H8 3289  13.216  11.228   6.385 -1.6949 -1.7127 -0.3246
  114bbb     C5 3290  13.388  11.363   6.627  0.9616 -0.2903 -0.2787
  114bbb     H9 3291  13.331  11.423   6.555  2.1523  1.4851  0.1832
  114bbb    H10 3292  13.483  11.417   6.637  0.4707  0.8414 -1.3676
  114bbb     C6 3293  13.706  11.205   6.600 -0.4553  0.1595  1.4815
  114bbb    H11 3294  13.709  11.095   6.598  0.9844  0.1777 -0.9589
  114bbb    H12 3295  13.652  11.226   6.693  0.5753  2.2690  1.6486
  114bbb     C7 3296  13.286  11.038   6.295  0.6281  0.0324  0.3505
  114bbb    H13 3297  13.280  10.990   6.393 -1.3603  0.1201  0.3121
  114bbb    H14 3298  13.385  11.019   6.252  0.9568  2.2769 -0.0093
  114bbb     C8 3299  13.856  11.255   6.613 -0.6623  0.1725  0.6116
  114bbb    H15 3300  13.853  11.346   6.674  2.8736 -0.7846  2.4794
  114bbb    H16 3301  13.903  11.280   6.517 -2.5140 -0.8250 -0.6005
  114bbb     C9 3302  13.316  11.373   6.770 -0.3322  0.7094 -0.1506
  114bbb    H17 3303  13.294  11.477   6.800 -0.4119  0.4719  0.6301
  114bbb    H18 3304  13.386  11.333   6.844  0.3787  0.0691 -1.1556
  114bbb     O1 3305  13.171  10.996   6.214  0.2389  0.4853 -0.2173
  115bbb     N1 3306  11.730  10.739   6.535  0.2667 -0.1974  0.3819
  115bbb     C1 3307  11.798  10.808   6.646  0.6813 -0.2846  0.0172
  115bbb     H1 3308  11.907  10.814   6.633  0.4887  0.5312 -1.4892
  115bbb     H2 3309  11.771  10.767   6.744  0.2261  0.0825  0.0519
  115bbb     C2 3310  11.717  10.590   6.552 -0.5755  0.5301  0.8753
  115bbb     H3 3311  11.621  10.556   6.512  0.3465 -0.6028 -0.4425
  115bbb     H4 3312  11.709  10.566   6.659 -1.9836  0.1297  0.6983
  115bbb     C3 3313  11.747  10.789   6.395  0.2526 -0.0506  0.5223
  115bbb     H5 3314  11.843  10.746   6.363  0.0712 -0.0641 -0.0276
  115bbb     H6 3315  11.744  10.898   6.390 -0.8360 -0.0395 -4.4809
  115bbb     C4 3316  11.636  10.732   6.305 -0.2096  0.3343 -0.6754
  115bbb     H7 3317  11.536  10.756   6.344  0.3409 -0.8868  1.6709
  115bbb     H8 3318  11.651  10.624   6.298 -0.0634  0.2293  0.9917
  115bbb     C5 3319  11.751  10.953   6.662 -0.3423 -0.3370  1.1950
  115bbb     H9 3320  11.661  10.979   6.605 -0.6456 -0.6742  1.5141
  115bbb    H10 3321  11.830  11.011   6.613  0.0163 -1.9654 -0.2418
  115bbb     C6 3322  11.839  10.505   6.508 -0.2935  0.0844  0.4995
  115bbb    H11 3323  11.932  10.561   6.524 -0.0519 -0.2913  0.4230
  115bbb    H12 3324  11.828  10.484   6.400  0.6692  0.4256  0.3315
  115bbb     C7 3325  11.646  10.786   6.166 -0.7196 -0.3065  0.7375
  115bbb    H13 3326  11.747  10.770   6.125 -0.2817  0.7524  1.3589
  115bbb    H14 3327  11.616  10.891   6.155 -3.1245 -0.9635  0.6249
  115bbb     C8 3328  11.838  10.376   6.594 -0.4407  0.0668 -0.4813
  115bbb    H15 3329  11.820  10.402   6.699  0.7054 -2.7815  0.5008
  115bbb    H16 3330  11.935  10.329   6.576 -1.8101 -2.1466 -2.7566
  115bbb     C9 3331  11.736  11.009   6.809 -0.1203 -0.4805  0.3290
  115bbb    H17 3332  11.826  10.989   6.868 -0.8870  0.4224  1.8723
  115bbb    H18 3333  11.649  10.967   6.859 -0.3738  0.6500  0.8858
  115bbb     O1 3334  11.558  10.707   6.075 -0.3256 -0.0316  0.5221
  116bbb     N1 3335  10.696  10.261   5.418 -0.2347 -1.0979  0.0719
  116bbb     C1 3336  10.590  10.170   5.467 -0.8014 -0.2087  1.0189
  116bbb     H1 3337  10.619  10.127   5.564 -3.0426  0.5232  2.0795
  116bbb     H2 3338  10.572  10.087   5.398  0.2267 -0.7167  1.3365
  116bbb     C2 3339  10.796  10.188   5.333  0.1339  0.3723 -0.4393
  116bbb     H3 3340  10.743  10.117   5.269 -0.7156 -0.1456  0.7962
  116bbb     H4 3341  10.856  10.126   5.400 -2.5098  0.4245  2.1899
  116bbb     C3 3342  10.751  10.369   5.512  0.0090  0.3072  0.6741
  116bbb     H5 3343  10.674  10.446   5.520  1.5672  1.7767  2.3187
  116bbb     H6 3344  10.832  10.423   5.463  0.2829 -1.4801 -0.9769
  116bbb     C4 3345  10.794  10.310   5.647 -0.7257  0.8216 -0.3536
  116bbb     H7 3346  10.844  10.213   5.631  0.4080  1.2667  0.3552
  116bbb     H8 3347  10.710  10.286   5.714 -2.2062  0.5727 -2.2248
  116bbb     C5 3348  10.455  10.245   5.482  0.0161 -0.1675 -0.1032
  116bbb     H9 3349  10.426  10.287   5.385 -2.4826 -4.0986 -1.2792
  116bbb    H10 3350  10.464  10.324   5.558 -0.3488 -0.9197  0.7563
  116bbb     C6 3351  10.893  10.275   5.247  0.1601 -0.0300 -0.1329
  116bbb    H11 3352  10.959  10.209   5.190 -0.4838 -0.5224 -0.3112
  116bbb    H12 3353  10.953  10.333   5.319 -1.6538  1.4464  0.2807
  116bbb     C7 3354  10.898  10.398   5.722  0.2270 -0.0318  0.1889
  116bbb    H13 3355  10.940  10.346   5.809  1.2212  1.5581  0.7101
  116bbb    H14 3356  10.839  10.486   5.753  0.4137  0.2360 -0.2063
  116bbb     C8 3357  10.813  10.375   5.154 -0.1710 -0.0531 -0.0139
  116bbb    H15 3358  10.862  10.472   5.140  1.4651 -0.7408  0.7022
  116bbb    H16 3359  10.717  10.403   5.200  0.9598  2.7712  0.8370
  116bbb     C9 3360  10.343  10.142   5.523  0.2464  0.4820  0.5031
  116bbb    H17 3361  10.259  10.191   5.574  0.4327  1.2615  0.0722
  116bbb    H18 3362  10.381  10.067   5.594 -0.0476 -0.5394 -0.3737
  116bbb     O1 3363  11.015  10.437   5.652 -0.0955  0.0168  0.2950
  117bbb     N1 3364  12.901   9.698   5.063  0.4143  0.0001 -0.6664
  117bbb     C1 3365  12.817   9.595   5.009  0.0678 -0.3518  0.3812
  117bbb     H1 3366  12.781   9.623   4.909  4.7332 -0.6707 -1.6510
  117bbb     H2 3367  12.727   9.584   5.069  0.7278 -1.6399  1.1934
  117bbb     C2 3368  12.966   9.670   5.192  0.6164 -0.1457 -0.0645
  117bbb     H3 3369  13.028   9.755   5.223  2.3114 -0.7118 -1.7084
  117bbb     H4 3370  13.039   9.590   5.178  0.0412 -0.5193 -1.0502
  117bbb     C3 3371  12.853   9.837   5.046 -1.0746  0.3390  0.5630
  117bbb     H5 3372  12.922   9.907   5.095 -1.4656  0.8122  0.4437
  117bbb     H6 3373  12.753   9.846   5.091 -1.7751 -0.7474 -0.6985
  117bbb     C4 3374  12.847   9.878   4.898  0.5142 -0.2159  0.4876
  117bbb     H7 3375  12.760   9.827   4.856 -0.2717  2.5216 -1.4335
  117bbb     H8 3376  12.925   9.841   4.831 -0.4643 -3.4350  0.9837
  117bbb     C5 3377  12.869   9.448   5.018  0.0979 -0.5080  0.6973
  117bbb     H9 3378  12.787   9.382   4.986 -0.7737  0.5711  0.6064
  117bbb    H10 3379  12.905   9.422   5.118 -1.0509 -0.0862  1.2334
  117bbb     C6 3380  12.858   9.635   5.304 -0.1723 -0.5871 -0.3928
  117bbb    H11 3381  12.817   9.540   5.268 -0.1800 -0.1687 -1.5414
  117bbb    H12 3382  12.783   9.715   5.305 -0.6117 -0.9717  1.8183
  117bbb     C7 3383  12.844  10.031   4.884  0.0031 -0.5338 -0.2676
  117bbb    H13 3384  12.832  10.065   4.781 -1.2050 -2.1919 -0.7071
  117bbb    H14 3385  12.934  10.084   4.917 -1.4698  2.2235 -0.3488
  117bbb     C8 3386  12.926   9.602   5.442  0.5332  0.0179  0.3360
  117bbb    H15 3387  12.840   9.560   5.497 -1.6302  0.5377 -2.4452
  117bbb    H16 3388  12.957   9.696   5.488 -2.0135  1.5296 -0.8006
  117bbb     C9 3389  12.982   9.427   4.912 -0.6601  0.6000 -1.0428
  117bbb    H17 3390  13.037   9.335   4.935 -1.7562  0.2512  0.2473
  117bbb    H18 3391  13.048   9.515   4.920 -3.1295  2.3765  1.8658
  117bbb     O1 3392  12.717  10.079   4.947 -0.2637 -0.0946 -0.8493
  118bbb     N1 3393  11.608  10.061   5.543  0.8159  0.1177 -0.4313
  118bbb     C1 3394  11.597  10.171   5.651  1.0344  1.1066 -1.2438
  118bbb     H1 3395  11.539  10.255   5.610 -2.5439 -0.5308  0.0328
  118bbb     H2 3396  11.694  10.213   5.679 -0.4544  2.3538  2.6634
  118bbb     C2 3397  11.477  10.000   5.492 -0.0497  0.0996  1.1039
  118bbb     H3 3398  11.397  10.075   5.484 -0.1583 -0.1303 -0.1205
  118bbb     H4 3399  11.442   9.922   5.560  0.5753 -1.5524 -0.3947
  118bbb     C3 3400  11.708   9.954   5.586  1.3586 -0.4479  0.0765
  118bbb     H5 3401  11.686   9.863   5.527 -0.1641  0.4624 -0.8247
  118bbb     H6 3402  11.712   9.923   5.691  0.4483 -0.7120  0.0409
  118bbb     C4 3403  11.850  10.001   5.557 -0.3681  0.0071 -0.2765
  118bbb     H7 3404  11.923   9.931   5.601 -1.0761 -2.0052 -2.1216
  118bbb     H8 3405  11.878  10.100   5.594  2.3811 -0.3279 -1.2029
  118bbb     C5 3406  11.532  10.127   5.784  0.5826 -1.1993  0.9288
  118bbb     H9 3407  11.603  10.067   5.843  1.8627 -1.0696 -0.4122
  118bbb    H10 3408  11.444  10.069   5.755 -0.9047  0.8929  1.0174
  118bbb     C6 3409  11.501   9.937   5.351  0.6565 -0.7373  0.2340
  118bbb    H11 3410  11.523   9.830   5.355  0.6536 -0.8615 -1.8647
  118bbb    H12 3411  11.592   9.977   5.305 -0.5360  0.2388 -1.3879
  118bbb     C7 3412  11.870  10.011   5.407 -0.4624  0.3239  0.0418
  118bbb    H13 3413  11.795  10.072   5.356  0.6028  0.9905 -0.7821
  118bbb    H14 3414  11.856   9.911   5.363  1.9373 -0.3691  0.6701
  118bbb     C8 3415  11.393   9.949   5.241 -0.3582 -0.0253 -0.4177
  118bbb    H15 3416  11.430   9.899   5.150  0.2368  1.3862 -0.9830
  118bbb    H16 3417  11.384  10.056   5.217  0.0571 -0.2038 -1.4437
  118bbb     C9 3418  11.481  10.253   5.866 -0.6418 -0.5398  0.3424
  118bbb    H17 3419  11.390  10.287   5.815  0.3022  1.4941 -0.0965
  118bbb    H18 3420  11.554  10.333   5.849 -0.9501 -0.5953 -1.5130
  118bbb     O1 3421  12.000  10.073   5.379  0.2256 -0.1186  0.1717
  119bbb     N1 3422  11.476  11.490   7.112 -0.7397  0.1476 -0.3914
  119bbb     C1 3423  11.460  11.365   7.018  0.1636 -0.5127 -0.5299
  119bbb     H1 3424  11.505  11.390   6.922  1.5274  0.7672  0.3910
  119bbb     H2 3425  11.352  11.348   7.008  0.2006 -0.9100 -0.3014
  119bbb     C2 3426  11.615  11.522   7.160  0.0433 -0.4533  0.1677
  119bbb     H3 3427  11.680  11.581   7.095 -1.9921  0.8138 -0.8007
  119bbb     H4 3428  11.672  11.434   7.192 -0.8594 -0.4375  1.9914
  119bbb     C3 3429  11.421  11.608   7.051 -0.5081  0.5364 -0.4112
  119bbb     H5 3430  11.446  11.624   6.946 -1.0489  2.6116 -0.2656
  119bbb     H6 3431  11.454  11.700   7.101 -1.3457 -0.4657  2.1361
  119bbb     C4 3432  11.268  11.622   7.060  0.0770  0.7132  0.5304
  119bbb     H7 3433  11.233  11.535   7.002  3.0371  0.1836 -0.6419
  119bbb     H8 3434  11.233  11.705   6.997 -1.0471  0.1231  0.3420
  119bbb     C5 3435  11.526  11.234   7.067  0.3976 -0.2456  0.1638
  119bbb     H9 3436  11.636  11.232   7.073  0.3443 -0.3161  1.3706
  119bbb    H10 3437  11.497  11.165   6.987  0.6319  1.0460 -1.0761
  119bbb     C6 3438  11.606  11.610   7.290 -0.4455  0.4603  0.0181
  119bbb    H11 3439  11.530  11.689   7.279 -1.8962 -0.6611  1.5411
  119bbb    H12 3440  11.700  11.665   7.302 -1.6629  2.4224  1.1231
  119bbb     C7 3441  11.224  11.610   7.204  0.2888 -0.5841 -0.1136
  119bbb    H13 3442  11.271  11.689   7.264  0.3236 -0.4656 -0.2955
  119bbb    H14 3443  11.245  11.510   7.242 -1.9939 -1.7260 -1.6104
  119bbb     C8 3444  11.574  11.517   7.417 -0.5482 -0.7755  0.4238
  119bbb    H15 3445  11.491  11.452   7.387  0.2025 -1.3866 -0.3569
  119bbb    H16 3446  11.543  11.582   7.500  0.2917  0.5700 -0.2876
  119bbb     C9 3447  11.484  11.184   7.209 -0.7984 -0.8130  0.4946
  119bbb    H17 3448  11.374  11.188   7.209 -0.7667  1.0908  1.5618
  119bbb    H18 3449  11.515  11.241   7.297  1.0077 -0.0886 -0.5361
  119bbb     O1 3450  11.077  11.635   7.206 -0.3364 -0.2277 -0.4059
  120bbb     N1 3451  10.631  11.722   8.332  0.0395  0.5513 -0.0842
  120bbb     C1 3452  10.558  11.847   8.307 -0.5971  0.3566  0.2823
  120bbb     H1 3453  10.477  11.873   8.377 -1.4834 -1.0988 -0.1631
  120bbb     H2 3454  10.502  11.824   8.216 -1.4777 -0.9582  1.1173
  120bbb     C2 3455  10.660  11.716   8.480 -0.2779 -0.0715 -0.4859
  120bbb     H3 3456  10.574  11.686   8.541 -1.1103  3.5175  0.3127
  120bbb     H4 3457  10.691  11.815   8.515 -0.1703 -0.7069  1.2944
  120bbb     C3 3458  10.586  11.599   8.259 -0.9483  0.1947  0.5585
  120bbb     H5 3459  10.477  11.610   8.253 -0.9672 -0.6906 -1.2875
  120bbb     H6 3460  10.615  11.508   8.314  0.5646  1.3535  1.7861
  120bbb     C4 3461  10.638  11.580   8.112  0.4890 -0.7781  0.1342
  120bbb     H7 3462  10.582  11.645   8.043  0.6792 -0.4517  0.2880
  120bbb     H8 3463  10.620  11.477   8.078 -0.5018 -0.6604  0.2643
  120bbb     C5 3464  10.652  11.970   8.296  0.6113  0.2972 -0.3162
  120bbb     H9 3465  10.749  11.928   8.264  0.5442 -1.6856  1.8916
  120bbb    H10 3466  10.671  12.015   8.394 -1.6151  0.2550  0.1854
  120bbb     C6 3467  10.791  11.627   8.503  0.5407  0.1978 -0.3975
  120bbb    H11 3468  10.874  11.660   8.439 -1.3365 -0.0257 -3.1374
  120bbb    H12 3469  10.759  11.527   8.471 -0.7728  0.1224  1.0093
  120bbb     C7 3470  10.790  11.595   8.102 -0.1377  0.7487 -0.0661
  120bbb    H13 3471  10.833  11.510   8.155  1.9668 -0.5417 -3.4859
  120bbb    H14 3472  10.829  11.690   8.140 -0.8710  0.4896  1.4190
  120bbb     C8 3473  10.833  11.625   8.654  0.4944  0.4558  0.2268
  120bbb    H15 3474  10.761  11.562   8.707 -0.0836 -1.2292 -2.4248
  120bbb    H16 3475  10.832  11.724   8.701 -1.0179  0.4816  0.1700
  120bbb     C9 3476  10.610  12.084   8.198 -0.5723 -0.8300 -0.6035
  120bbb    H17 3477  10.586  12.036   8.102 -1.6428  0.1211 -0.8266
  120bbb    H18 3478  10.685  12.164   8.193 -1.7516  0.4379  0.9187
  120bbb     O1 3479  10.822  11.579   7.963 -0.6336  0.4005  0.4620
  121bbb     N1 3480  10.374  11.164   8.477 -0.5924  0.1454  0.3361
  121bbb     C1 3481  10.316  11.301   8.483 -0.8893 -0.0075 -0.1680
  121bbb     H1 3482  10.212  11.291   8.517 -1.1405  1.6630 -0.3662
  121bbb     H2 3483  10.319  11.347   8.383  0.9420  3.1025  1.1777
  121bbb     C2 3484  10.288  11.079   8.387  0.3209 -0.2503  0.2427
  121bbb     H3 3485  10.275  11.131   8.291 -1.9343  1.0488  1.1793
  121bbb     H4 3486  10.185  11.084   8.422  0.4750  0.3453  0.6395
  121bbb     C3 3487  10.521  11.163   8.447 -0.0380  1.0055  0.0086
  121bbb     H5 3488  10.564  11.066   8.478 -1.6410 -0.4804 -2.1047
  121bbb     H6 3489  10.562  11.232   8.521 -0.8012  0.0197  1.4072
  121bbb     C4 3490  10.556  11.209   8.309  0.3444  0.5986  0.0387
  121bbb     H7 3491  10.525  11.313   8.297 -0.7605  0.3191  0.3524
  121bbb     H8 3492  10.509  11.145   8.234  0.9603  1.1414 -0.8231
  121bbb     C5 3493  10.390  11.394   8.585  0.0325 -0.2621  0.5493
  121bbb     H9 3494  10.493  11.423   8.557 -0.4629  1.8801  0.7196
  121bbb    H10 3495  10.395  11.331   8.674 -1.8187  0.2962  1.0936
  121bbb     C6 3496  10.331  10.926   8.382  0.6264 -0.4958  0.0853
  121bbb    H11 3497  10.362  10.901   8.484  0.4242 -0.4119  0.1686
  121bbb    H12 3498  10.419  10.917   8.317 -0.8416  0.7275 -2.2210
  121bbb     C7 3499  10.706  11.198   8.290 -0.6576  0.0132 -0.2364
  121bbb    H13 3500  10.752  11.103   8.317 -1.5007 -0.2922  0.1643
  121bbb    H14 3501  10.759  11.273   8.349 -0.5696 -0.8715  0.8259
  121bbb     C8 3502  10.206  10.837   8.339 -0.0255  0.1758 -0.0322
  121bbb    H15 3503  10.191  10.848   8.231  0.2550  0.0989 -0.0781
  121bbb    H16 3504  10.117  10.863   8.398 -0.1802  1.2071 -0.6966
  121bbb     C9 3505  10.320  11.527   8.614  0.4617  0.5407  0.0820
  121bbb    H17 3506  10.387  11.586   8.678  0.5680 -0.5838  1.0598
  121bbb    H18 3507  10.227  11.512   8.671  0.4487  2.6442  0.7032
  121bbb     O1 3508  10.738  11.233   8.155  0.5616 -0.0933 -0.3316
  122bbb     N1 3509  11.687  11.687   7.958 -0.7141  0.5244  0.5904
  122bbb     C1 3510  11.680  11.785   7.847 -0.2375 -0.3270  0.3034
  122bbb     H1 3511  11.741  11.872   7.872 -0.8382 -0.0150  0.7344
  122bbb     H2 3512  11.579  11.824   7.829  0.3973  0.9570 -0.5887
  122bbb     C2 3513  11.693  11.750   8.093  1.3349  0.0413  0.5596
  122bbb     H3 3514  11.783  11.812   8.095  0.6773  1.0345  0.1517
  122bbb     H4 3515  11.710  11.666   8.162 -0.1855 -0.9702 -0.2345
  122bbb     C3 3516  11.598  11.571   7.954  0.0576  0.0734 -0.2720
  122bbb     H5 3517  11.582  11.539   7.850  0.4925  0.0489 -0.3349
  122bbb     H6 3518  11.499  11.599   7.992  0.1228 -0.3625  0.2353
  122bbb     C4 3519  11.653  11.453   8.043  0.0309  0.1815 -0.5592
  122bbb     H7 3520  11.611  11.464   8.143  1.3268  1.5049 -0.1271
  122bbb     H8 3521  11.762  11.462   8.047 -0.0901  2.4351 -0.8522
  122bbb     C5 3522  11.743  11.736   7.718  0.3415 -0.2644  0.1250
  122bbb     H9 3523  11.746  11.821   7.649  1.2280 -1.9947 -2.1180
  122bbb    H10 3524  11.686  11.658   7.665 -0.4745  1.0247 -0.9513
  122bbb     C6 3525  11.570  11.824   8.141  0.1491  0.2095  0.4976
  122bbb    H11 3526  11.535  11.765   8.227  0.0426 -0.7534 -0.1882
  122bbb    H12 3527  11.482  11.824   8.075  0.5338  1.8772 -0.0609
  122bbb     C7 3528  11.618  11.313   7.986  0.8352 -0.4048 -0.5662
  122bbb    H13 3529  11.672  11.245   8.054  1.8978 -0.8774 -1.8429
  122bbb    H14 3530  11.656  11.291   7.886  0.0820 -1.7193 -0.5961
  122bbb     C8 3531  11.603  11.970   8.170  0.8737 -0.0107  0.0563
  122bbb    H15 3532  11.623  12.023   8.076  0.0554 -0.3972 -0.3406
  122bbb    H16 3533  11.700  11.962   8.221  1.7208 -3.6733 -1.7883
  122bbb     C9 3534  11.898  11.698   7.742  0.0480 -0.0739 -0.1632
  122bbb    H17 3535  11.910  11.619   7.817 -0.2968 -2.2595 -2.2807
  122bbb    H18 3536  11.959  11.787   7.764  0.4095 -0.7294  1.6984
  122bbb     O1 3537  11.476  11.277   8.003 -0.2381 -0.2457  0.4418
  123bbb     N1 3538  10.698  11.390   5.948  0.3787  0.0155  0.9026
  123bbb     C1 3539  10.546  11.416   5.961 -0.8873 -0.5398 -0.4993
  123bbb     H1 3540  10.531  11.418   6.070  1.2012 -0.6718 -0.1654
  123bbb     H2 3541  10.482  11.338   5.919 -2.0527 -0.8857  1.7560
  123bbb     C2 3542  10.737  11.377   5.807 -0.0406  0.6104  0.2977
  123bbb     H3 3543  10.838  11.415   5.789  0.0229 -0.5883 -2.3108
  123bbb     H4 3544  10.674  11.432   5.736  0.5780 -1.8094 -2.3039
  123bbb     C3 3545  10.786  11.476   6.025 -0.8131  0.2232 -0.5036
  123bbb     H5 3546  10.754  11.580   6.015 -0.6828  0.1031 -2.8499
  123bbb     H6 3547  10.888  11.468   5.985  0.4212 -0.2965  2.5371
  123bbb     C4 3548  10.797  11.420   6.169  0.5021  0.4845  0.1329
  123bbb     H7 3549  10.791  11.310   6.165 -1.1156  0.5336  0.2949
  123bbb     H8 3550  10.711  11.456   6.226 -0.1155  1.1767 -1.1812
  123bbb     C5 3551  10.501  11.556   5.913  0.5339 -0.4625  0.0459
  123bbb     H9 3552  10.506  11.566   5.803 -0.0004  0.9161  0.1188
  123bbb    H10 3553  10.573  11.636   5.937  0.0867  0.4364 -1.4539
  123bbb     C6 3554  10.734  11.224   5.766  0.2788  0.2111 -0.7985
  123bbb    H11 3555  10.625  11.212   5.773  0.0460  1.7451 -1.4746
  123bbb    H12 3556  10.781  11.162   5.843 -1.9409  0.3028  0.7169
  123bbb     C7 3557  10.923  11.469   6.247  0.1269 -0.3623  0.4310
  123bbb    H13 3558  10.926  11.577   6.231 -0.5269 -0.2770  0.8479
  123bbb    H14 3559  11.017  11.422   6.214 -0.7000 -1.5889 -0.2485
  123bbb     C8 3560  10.783  11.189   5.624 -0.0263  0.9857  0.5434
  123bbb    H15 3561  10.769  11.082   5.603  0.9784  1.0912 -0.8411
  123bbb    H16 3562  10.890  11.212   5.628 -0.3578  2.7008  0.0879
  123bbb     C9 3563  10.350  11.582   5.956  0.1648 -0.2974 -0.5708
  123bbb    H17 3564  10.286  11.513   5.900 -1.2528 -0.0127  0.6554
  123bbb    H18 3565  10.317  11.684   5.931  1.0813 -0.0641 -0.8949
  123bbb     O1 3566  10.909  11.445   6.388  0.1471 -0.4783 -0.0132
  124bbb     N1 3567  10.242  10.976   5.948  0.1125  0.4314  0.0738
  124bbb     C1 3568  10.243  10.827   5.952 -0.4316  0.3590 -0.9841
  124bbb     H1 3569  10.345  10.791   5.932 -0.4837 -0.2920 -0.1325
  124bbb     H2 3570  10.186  10.775   5.875  0.1276  0.4495 -1.4677
  124bbb     C2 3571  10.236  11.030   5.815 -0.1943 -0.1774  0.0188
  124bbb     H3 3572  10.134  11.006   5.784 -1.7784  1.2605  3.6054
  124bbb     H4 3573  10.311  10.982   5.750  0.8769 -0.1620  1.2169
  124bbb     C3 3574  10.334  11.040   6.047  0.1075  0.2478  0.4367
  124bbb     H5 3575  10.306  11.010   6.148 -0.3052  0.1544  0.2950
  124bbb     H6 3576  10.314  11.146   6.065 -1.9087 -0.1150  0.5007
  124bbb     C4 3577  10.486  11.029   6.019  0.3813  0.3809 -0.4021
  124bbb     H7 3578  10.510  11.082   5.926  0.4498 -2.0214 -1.8340
  124bbb     H8 3579  10.513  10.923   6.010 -0.7207  0.1573 -1.4224
  124bbb     C5 3580  10.200  10.765   6.089 -0.7032  0.3839  0.2670
  124bbb     H9 3581  10.289  10.783   6.152 -1.0386  1.0663  0.5651
  124bbb    H10 3582  10.190  10.657   6.074  0.3498  0.2979  0.1184
  124bbb     C6 3583  10.248  11.188   5.783  0.4244 -0.1948 -0.0865
  124bbb    H11 3584  10.350  11.214   5.813  1.0669  0.8949 -2.8941
  124bbb    H12 3585  10.185  11.260   5.838 -1.2899 -0.5618 -1.4758
  124bbb     C7 3586  10.577  11.093   6.136  0.2954 -0.0791  0.2753
  124bbb    H13 3587  10.579  11.199   6.108  0.0796  0.1026  0.9239
  124bbb    H14 3588  10.676  11.047   6.130  0.3178  0.1548 -1.3949
  124bbb     C8 3589  10.235  11.217   5.629 -0.5441  0.5842  0.2689
  124bbb    H15 3590  10.275  11.138   5.565  1.0531 -0.6767  2.7079
  124bbb    H16 3591  10.289  11.309   5.603  1.9046 -0.8788 -0.0771
  124bbb     C9 3592  10.067  10.811   6.142 -0.1300 -0.1516  0.3152
  124bbb    H17 3593  10.086  10.907   6.191 -1.7354  0.5637 -0.3883
  124bbb    H18 3594  10.027  10.741   6.216  0.7969 -3.8197 -2.3661
  124bbb     O1 3595  10.520  11.060   6.263  0.0499 -0.7268 -0.3803
  125bbb     N1 3596  10.001  11.064   7.022 -0.1450 -0.6263 -1.0683
  125bbb     C1 3597   9.954  11.175   6.932 -0.2620 -0.1203  0.1950
  125bbb     H1 3598  10.033  11.206   6.863  0.6000 -0.3155  1.0657
  125bbb     H2 3599   9.930  11.263   6.994 -0.8571 -0.8572  1.0400
  125bbb     C2 3600   9.906  10.984   7.101  0.2279 -0.4964  0.3103
  125bbb     H3 3601   9.959  10.905   7.157  1.2679 -1.8310 -2.3990
  125bbb     H4 3602   9.842  10.933   7.028 -0.2694 -0.5117  0.7475
  125bbb     C3 3603  10.105  11.108   7.115 -0.8457  0.0470 -0.5195
  125bbb     H5 3604  10.140  11.024   7.176 -0.8178 -0.2563 -0.9435
  125bbb     H6 3605  10.071  11.185   7.185  1.1322  0.3101  0.2119
  125bbb     C4 3606  10.225  11.169   7.043 -0.4588 -0.6248  0.1698
  125bbb     H7 3607  10.205  11.272   7.009  0.2595 -0.5900 -0.1759
  125bbb     H8 3608  10.242  11.109   6.953 -2.4214  0.4193 -0.9959
  125bbb     C5 3609   9.828  11.147   6.852 -0.3399  0.2334 -0.5718
  125bbb     H9 3610   9.763  11.078   6.908 -0.4850  0.4517 -0.4709
  125bbb    H10 3611   9.856  11.080   6.769 -0.8695  0.2858 -0.8039
  125bbb     C6 3612   9.817  11.076   7.196 -0.1223  0.4101  0.2733
  125bbb    H11 3613   9.781  11.156   7.130 -0.6481 -1.2412 -1.5539
  125bbb    H12 3614   9.874  11.113   7.281 -2.3017  0.0339  1.9945
  125bbb     C7 3615  10.347  11.166   7.143 -0.2248  0.5193  0.3575
  125bbb    H13 3616  10.434  11.194   7.083 -0.6564 -0.2859 -0.6737
  125bbb    H14 3617  10.359  11.063   7.177  1.3159  0.5882  0.0955
  125bbb     C8 3618   9.699  11.007   7.267 -0.0986  0.2928 -0.1150
  125bbb    H15 3619   9.746  10.933   7.333 -1.4381  0.6775  1.3498
  125bbb    H16 3620   9.631  10.966   7.191 -0.4040  1.5797 -0.5524
  125bbb     C9 3621   9.753  11.271   6.802  0.5399 -0.0972 -0.3179
  125bbb    H17 3622   9.698  11.241   6.712  1.7199 -3.2181 -0.1329
  125bbb    H18 3623   9.825  11.351   6.782 -0.9406  1.1704 -0.7795
  125bbb     O1 3624  10.330  11.262   7.249  0.0503 -0.1678  0.0761
  126bbb     N1 3625   9.847  11.157   8.151  0.3334  0.0983 -0.0371
  126bbb     C1 3626   9.819  11.018   8.099 -0.3231 -0.4081  0.0534
  126bbb     H1 3627   9.720  11.012   8.052 -1.9121  0.3900  3.0194
  126bbb     H2 3628   9.826  10.955   8.188 -0.8968  1.5243  1.5512
  126bbb     C2 3629   9.970  11.161   8.243 -0.1269  0.2793  0.1812
  126bbb     H3 3630  10.064  11.176   8.189  0.5254 -1.9234  0.5792
  126bbb     H4 3631   9.987  11.061   8.285 -0.6509  0.5519  1.0567
  126bbb     C3 3632   9.843  11.266   8.043 -0.0847 -0.5406  0.1722
  126bbb     H5 3633   9.934  11.251   7.984 -0.8721 -1.5828 -0.8018
  126bbb     H6 3634   9.856  11.354   8.108 -0.7080 -2.2749  2.8075
  126bbb     C4 3635   9.719  11.277   7.952  0.0022 -0.0805 -0.6932
  126bbb     H7 3636   9.629  11.303   8.009 -0.9464 -2.8160 -0.8101
  126bbb     H8 3637   9.684  11.182   7.910 -1.2540 -0.8967  1.9810
  126bbb     C5 3638   9.913  10.957   7.995 -0.1636 -0.9796 -0.2367
  126bbb     H9 3639  10.015  10.981   8.027 -0.6116  2.0830 -0.7916
  126bbb    H10 3640   9.894  11.021   7.908 -0.9437 -0.1923  0.4804
  126bbb     C6 3641   9.935  11.232   8.373  0.0645 -0.3697 -0.0741
  126bbb    H11 3642  10.023  11.208   8.433  2.0087  3.4018 -1.0838
  126bbb    H12 3643   9.841  11.195   8.418 -0.3408 -0.4406 -0.9659
  126bbb     C7 3644   9.738  11.367   7.832  0.1685  0.6921 -0.5332
  126bbb    H13 3645   9.745  11.472   7.863  1.6939  0.3811  0.3091
  126bbb    H14 3646   9.651  11.356   7.767  1.1535 -0.3858 -1.7316
  126bbb     C8 3647   9.944  11.389   8.376 -0.1291 -0.8177  0.2757
  126bbb    H15 3648   9.876  11.433   8.302  1.2532 -0.0951 -0.6028
  126bbb    H16 3649  10.047  11.423   8.361 -0.3831 -0.4268 -0.6259
  126bbb     C9 3650   9.888  10.812   7.965  0.0049  0.1805 -0.2747
  126bbb    H17 3651   9.948  10.786   7.877 -0.8531  1.5679 -1.3103
  126bbb    H18 3652   9.786  10.792   7.933  0.3030  0.2049 -1.2594
  126bbb     O1 3653   9.852  11.328   7.755 -0.2358  0.0925 -0.5560
  127bbb     N1 3654  11.611  13.217   4.663  0.4099 -0.2775 -0.4508
  127bbb     C1 3655  11.594  13.345   4.584  0.4239 -0.2807 -0.4188
  127bbb     H1 3656  11.517  13.327   4.508 -1.5151 -3.4209  2.0695
  127bbb     H2 3657  11.691  13.370   4.539  0.6085  1.3329  0.7920
  127bbb     C2 3658  11.495  13.148   4.712  0.6074 -0.4354  0.1889
  127bbb     H3 3659  11.468  13.177   4.814 -1.4008 -2.4482  0.3005
  127bbb     H4 3660  11.529  13.044   4.705  0.3237 -0.4255 -1.9776
  127bbb     C3 3661  11.717  13.214   4.765 -0.3108 -0.2573 -0.2036
  127bbb     H5 3662  11.703  13.288   4.845  0.3177 -0.2563 -0.0838
  127bbb     H6 3663  11.803  13.248   4.706 -0.9094  0.2693 -0.7893
  127bbb     C4 3664  11.762  13.074   4.824  0.1791 -0.8731 -0.5996
  127bbb     H7 3665  11.811  13.022   4.741 -0.7481  0.1058 -1.7983
  127bbb     H8 3666  11.687  13.018   4.882 -0.4192 -0.4580 -0.9677
  127bbb     C5 3667  11.559  13.455   4.676  0.1397  0.5302 -0.1976
  127bbb     H9 3668  11.640  13.470   4.749  0.4398  1.9116 -0.7700
  127bbb    H10 3669  11.470  13.425   4.732  0.5539  1.7894  1.2121
  127bbb     C6 3670  11.368  13.146   4.621  0.2020 -0.2165  0.5294
  127bbb    H11 3671  11.381  13.109   4.519  0.4146  0.0383  0.4640
  127bbb    H12 3672  11.317  13.243   4.615  0.5585 -0.0904 -0.5779
  127bbb     C7 3673  11.878  13.089   4.927  0.6120  0.2422  0.3207
  127bbb    H13 3674  11.956  13.148   4.878 -1.0566  0.4975 -2.2419
  127bbb    H14 3675  11.901  12.991   4.969 -2.7070 -0.2745  1.2005
  127bbb     C8 3676  11.270  13.047   4.687  0.0305  0.0709 -0.0920
  127bbb    H15 3677  11.275  13.041   4.796  2.9420 -0.9460 -0.2049
  127bbb    H16 3678  11.302  12.947   4.654  2.5673  0.4199  1.1192
  127bbb     C9 3679  11.510  13.591   4.609  0.1271  0.1594 -0.0311
  127bbb    H17 3680  11.591  13.635   4.550 -0.2157 -1.2553 -1.6199
  127bbb    H18 3681  11.496  13.668   4.686 -0.7820  1.5403 -1.5007
  127bbb     O1 3682  11.847  13.175   5.034 -0.6800 -0.2036  0.6139
  128bbb     N1 3683  12.597  13.272   5.687  0.3114 -0.4795  0.0556
  128bbb     C1 3684  12.533  13.394   5.634  0.0879 -0.0144 -0.4973
  128bbb     H1 3685  12.605  13.474   5.653 -1.2065  1.1226 -0.2155
  128bbb     H2 3686  12.440  13.410   5.690  0.3519  0.0124 -0.0697
  128bbb     C2 3687  12.654  13.309   5.819  0.2750  0.1379  0.4778
  128bbb     H3 3688  12.574  13.323   5.893 -1.5925 -0.0202 -1.4017
  128bbb     H4 3689  12.710  13.403   5.812 -0.1536  0.3797  0.1770
  128bbb     C3 3690  12.508  13.150   5.691 -0.3191  0.3395  0.2359
  128bbb     H5 3691  12.445  13.153   5.601  1.4678 -1.5946 -1.1628
  128bbb     H6 3692  12.453  13.143   5.786  0.5657  0.0978  0.7345
  128bbb     C4 3693  12.591  13.019   5.669 -0.2737  0.0511  0.1210
  128bbb     H7 3694  12.660  12.990   5.749  0.1900 -1.1118 -0.6673
  128bbb     H8 3695  12.654  13.035   5.580 -1.1244  1.8131 -0.1940
  128bbb     C5 3696  12.515  13.388   5.478  0.4762 -0.3525  0.1772
  128bbb     H9 3697  12.469  13.484   5.452  1.1245  0.0853  0.6010
  128bbb    H10 3698  12.449  13.305   5.453  0.3627 -0.0691 -0.4732
  128bbb     C6 3699  12.743  13.198   5.887 -0.8357  0.3947  0.9636
  128bbb    H11 3700  12.809  13.155   5.812 -2.2910  0.4326 -0.3882
  128bbb    H12 3701  12.675  13.120   5.925 -0.2080 -1.1896 -1.0045
  128bbb     C7 3702  12.503  12.893   5.639  0.7324 -0.7201  0.1032
  128bbb    H13 3703  12.467  12.870   5.741  3.7979  1.6341  1.8855
  128bbb    H14 3704  12.564  12.816   5.590  2.2342  0.0068  0.7550
  128bbb     C8 3705  12.816  13.243   6.019 -0.1863  0.8931  0.4167
  128bbb    H15 3706  12.863  13.152   6.057 -0.6722  0.6304  0.4000
  128bbb    H16 3707  12.744  13.275   6.095  1.0042 -1.1108  2.5207
  128bbb     C9 3708  12.647  13.377   5.392  0.4009  0.1572 -0.1858
  128bbb    H17 3709  12.696  13.283   5.419 -1.1946 -0.7032 -0.1833
  128bbb    H18 3710  12.715  13.459   5.419  1.1354 -0.9200  1.3520
  128bbb     O1 3711  12.397  12.926   5.546 -0.2097  0.1474 -0.3531
  129bbb     N1 3712  11.602  13.353   5.361  0.5732 -0.0830 -0.8166
  129bbb     C1 3713  11.571  13.443   5.249  0.9698  0.1203  0.6741
  129bbb     H1 3714  11.508  13.522   5.291 -0.1727  0.4987 -1.5802
  129bbb     H2 3715  11.519  13.386   5.171  1.6972  0.0131  0.2601
  129bbb     C2 3716  11.490  13.262   5.394  0.9700 -0.6903 -0.0682
  129bbb     H3 3717  11.461  13.218   5.298  2.1436  0.0160 -0.7537
  129bbb     H4 3718  11.400  13.313   5.432 -0.3110 -2.3987 -0.6277
  129bbb     C3 3719  11.682  13.415   5.473 -0.3812  0.8381  0.8434
  129bbb     H5 3720  11.778  13.447   5.432  0.1998 -0.6507  1.0026
  129bbb     H6 3721  11.699  13.337   5.549  2.9456  0.7443  0.1463
  129bbb     C4 3722  11.616  13.529   5.549  0.2232 -0.5581 -0.2408
  129bbb     H7 3723  11.517  13.490   5.576  0.0929 -1.2583 -1.6290
  129bbb     H8 3724  11.584  13.617   5.491 -3.9836 -1.2589  0.6796
  129bbb     C5 3725  11.689  13.515   5.186  0.0143  0.5687  0.0101
  129bbb     H9 3726  11.777  13.450   5.180  0.9002  1.7591 -0.2960
  129bbb    H10 3727  11.716  13.602   5.246  2.1310  0.8010 -1.1742
  129bbb     C6 3728  11.518  13.151   5.498 -0.0822 -0.1576 -0.5332
  129bbb    H11 3729  11.546  13.207   5.588  1.4190  1.3022 -1.8494
  129bbb    H12 3730  11.601  13.088   5.466  1.4664  1.3062  0.4274
  129bbb     C7 3731  11.688  13.559   5.673 -0.3432  0.6461 -0.0920
  129bbb    H13 3732  11.781  13.615   5.656 -0.4163  0.6458 -0.5064
  129bbb    H14 3733  11.732  13.470   5.718  0.4238  1.0628 -0.0020
  129bbb     C8 3734  11.392  13.068   5.535  0.2980 -0.3667  0.0137
  129bbb    H15 3735  11.314  13.137   5.571 -1.7015 -1.5806 -1.7352
  129bbb    H16 3736  11.351  13.015   5.448 -0.6710  0.4502 -0.0479
  129bbb     C9 3737  11.663  13.575   5.041  0.2442  0.0986 -0.2642
  129bbb    H17 3738  11.653  13.494   4.967  0.3495 -0.3153  0.1633
  129bbb    H18 3739  11.734  13.647   5.000 -1.2452  1.7131 -0.1349
  129bbb     O1 3740  11.607  13.638   5.759 -0.3156  0.2156 -0.6489
  130bbb     N1 3741  11.865  14.244   6.883  0.2239  0.6663  0.5975
  130bbb     C1 3742  11.811  14.106   6.899  0.4332  0.0505  0.0847
  130bbb     H1 3743  11.723  14.099   6.834  0.8468  2.0418 -0.7281
  130bbb     H2 3744  11.755  14.106   6.993  1.7079 -0.3040  0.8743
  130bbb     C2 3745  11.772  14.347   6.932  0.1676 -0.1322  0.3104
  130bbb     H3 3746  11.745  14.331   7.037  1.4548  1.4920  0.9225
  130bbb     H4 3747  11.680  14.352   6.872 -0.1037  0.8434  0.7974
  130bbb     C3 3748  11.924  14.265   6.743  0.2604  0.0493 -0.4305
  130bbb     H5 3749  11.978  14.174   6.715 -1.3364 -0.9886 -0.2169
  130bbb     H6 3750  11.998  14.346   6.750  0.3545 -0.1430  1.3031
  130bbb     C4 3751  11.827  14.289   6.629 -0.5011 -0.6814  0.4348
  130bbb     H7 3752  11.761  14.374   6.649 -0.2176  0.0516 -1.5485
  130bbb     H8 3753  11.761  14.201   6.624 -1.5229  0.0032  1.4594
  130bbb     C5 3754  11.907  13.979   6.890 -0.1903  0.6454  0.2319
  130bbb     H9 3755  12.008  14.017   6.909  0.2710 -0.8128  0.8441
  130bbb    H10 3756  11.905  13.948   6.785 -1.1886  0.0045  0.4250
  130bbb     C6 3757  11.829  14.494   6.952 -0.2095 -0.5535 -0.4451
  130bbb    H11 3758  11.827  14.547   6.856 -1.0809  2.0927  0.9282
  130bbb    H12 3759  11.930  14.486   6.993  0.2262  0.1723 -1.3435
  130bbb     C7 3760  11.904  14.300   6.494  0.4411 -0.2830  0.4069
  130bbb    H13 3761  11.974  14.216   6.485 -0.5228 -1.1210  0.6818
  130bbb    H14 3762  11.952  14.399   6.492  0.5274 -0.2993  1.3989
  130bbb     C8 3763  11.740  14.572   7.046 -0.1224 -0.7780 -0.9678
  130bbb    H15 3764  11.637  14.564   7.010 -1.1213  1.8671  0.9411
  130bbb    H16 3765  11.778  14.675   7.043 -1.2677 -0.3322 -0.4655
  130bbb     C9 3766  11.856  13.862   6.975  0.5834 -0.2796  0.4728
  130bbb    H17 3767  11.811  13.901   7.067 -0.1233 -0.7577  0.3399
  130bbb    H18 3768  11.932  13.788   7.004 -0.1487 -1.0346  0.5011
  130bbb     O1 3769  11.808  14.287   6.388  0.5422  0.1625  0.5156
  131bbb     N1 3770  13.680  11.090   5.965 -0.0327  0.0979 -0.6871
  131bbb     C1 3771  13.664  10.976   6.064 -0.0569 -1.0671  0.3512
  131bbb     H1 3772  13.642  11.009   6.166  0.7740 -0.1360  0.2457
  131bbb     H2 3773  13.760  10.923   6.075  0.8058  0.8327  2.9934
  131bbb     C2 3774  13.807  11.162   5.990  0.0134  0.5221  0.3883
  131bbb     H3 3775  13.828  11.226   5.904  1.2364  0.7352  0.8262
  131bbb     H4 3776  13.891  11.093   5.999 -0.0963  0.6007  2.6935
  131bbb     C3 3777  13.563  11.183   5.956  0.0523 -0.1512 -0.1351
  131bbb     H5 3778  13.550  11.239   6.050 -1.0800 -0.8283  0.1289
  131bbb     H6 3779  13.478  11.119   5.933 -0.9484  0.2644  2.1181
  131bbb     C4 3780  13.572  11.288   5.845 -0.0806 -0.3774  0.1606
  131bbb     H7 3781  13.586  11.231   5.752  0.9755 -0.0551  0.1188
  131bbb     H8 3782  13.662  11.348   5.855 -0.1193 -0.5656  1.9821
  131bbb     C5 3783  13.563  10.872   6.015 -0.3938 -0.0676  0.0597
  131bbb     H9 3784  13.596  10.848   5.913 -0.5232 -1.7877  0.3857
  131bbb    H10 3785  13.467  10.925   6.012 -0.6845 -0.6232 -1.8112
  131bbb     C6 3786  13.808  11.238   6.126  0.1848 -0.0528  0.0532
  131bbb    H11 3787  13.790  11.163   6.204  1.4779 -0.5476 -0.0941
  131bbb    H12 3788  13.729  11.314   6.136  0.8981  0.4822  2.2307
  131bbb     C7 3789  13.450  11.385   5.836 -0.2592  0.6518 -0.3539
  131bbb    H13 3790  13.363  11.322   5.813 -1.3101  1.8688  0.1763
  131bbb    H14 3791  13.477  11.455   5.756  0.9915  0.7193  0.0909
  131bbb     C8 3792  13.936  11.311   6.149 -0.5906 -0.1141  0.4608
  131bbb    H15 3793  14.021  11.242   6.148 -1.0098 -0.6436  0.8081
  131bbb    H16 3794  13.951  11.362   6.245 -1.4196  0.1908  0.4381
  131bbb     C9 3795  13.552  10.738   6.095  0.0310  0.1273 -0.6134
  131bbb    H17 3796  13.654  10.699   6.111 -1.1219 -2.0455  2.4653
  131bbb    H18 3797  13.487  10.662   6.051 -2.7897  1.4167  1.0523
  131bbb     O1 3798  13.431  11.458   5.954  0.3430  0.0812 -0.0620
  132bbb     N1 3799  13.517  12.491   5.948  0.7471 -0.0065 -0.3426
  132bbb     C1 3800  13.654  12.561   5.945  0.3982  0.5994 -0.3219
  132bbb     H1 3801  13.685  12.591   5.844  1.3295  3.0711  0.6268
  132bbb     H2 3802  13.733  12.494   5.981 -1.0543 -0.0252  1.9349
  132bbb     C2 3803  13.405  12.563   5.889  0.1801  0.2150 -0.2861
  132bbb     H3 3804  13.395  12.664   5.930 -1.2279 -0.2754  0.6785
  132bbb     H4 3805  13.308  12.521   5.919  0.7105 -0.8539 -0.0370
  132bbb     C3 3806  13.476  12.428   6.074 -1.0424  0.1459 -0.1482
  132bbb     H5 3807  13.411  12.345   6.044  1.8428 -1.2671 -3.1725
  132bbb     H6 3808  13.417  12.500   6.133 -0.2402 -0.6164  1.6572
  132bbb     C4 3809  13.588  12.359   6.154  0.5677  0.7072  0.2158
  132bbb     H7 3810  13.650  12.438   6.199  0.6321  1.0556 -0.4733
  132bbb     H8 3811  13.657  12.297   6.096  0.9464  2.6407 -1.5323
  132bbb     C5 3812  13.660  12.690   6.046  0.5689 -0.3361 -0.1210
  132bbb     H9 3813  13.648  12.655   6.149 -0.6226 -1.9272 -0.7639
  132bbb    H10 3814  13.578  12.757   6.017 -0.3001 -2.3170 -2.7194
  132bbb     C6 3815  13.411  12.578   5.737 -0.1957  0.4705 -0.3775
  132bbb    H11 3816  13.404  12.478   5.694  0.1488 -0.7367  2.2004
  132bbb    H12 3817  13.511  12.612   5.707  0.1855 -2.0742 -2.3273
  132bbb     C7 3818  13.517  12.276   6.265 -0.0346 -0.1137  0.0387
  132bbb    H13 3819  13.471  12.342   6.340 -0.7573  1.3896 -1.6506
  132bbb    H14 3820  13.602  12.229   6.316 -0.3753 -0.4037  0.3449
  132bbb     C8 3821  13.299  12.664   5.682  0.7509 -0.1276  0.2922
  132bbb    H15 3822  13.322  12.757   5.735  1.1888 -0.1006  0.0576
  132bbb    H16 3823  13.199  12.631   5.713  0.0392  1.9566  0.3828
  132bbb     C9 3824  13.794  12.768   6.026 -0.2477  0.0822 -0.7059
  132bbb    H17 3825  13.799  12.805   5.923 -0.4510 -1.8614 -1.4573
  132bbb    H18 3826  13.889  12.718   6.049 -0.2034 -0.1809 -1.4568
  132bbb     O1 3827  13.429  12.179   6.218 -0.2306  0.4733  0.3632
  133bbb     N1 3828  11.246  11.896   4.890  0.0080  0.0780 -0.1955
  133bbb     C1 3829  11.184  12.028   4.869  0.4245  0.0825  0.2237
  133bbb     H1 3830  11.222  12.081   4.781  1.1776  0.0754  0.5448
  133bbb     H2 3831  11.203  12.092   4.955 -2.0833  0.4651  0.5796
  133bbb     C2 3832  11.250  11.818   4.766  0.0974 -0.4395  0.0635
  133bbb     H3 3833  11.321  11.859   4.693 -0.2593  0.5036  0.2312
  133bbb     H4 3834  11.150  11.826   4.723 -0.3085  0.2891  1.1037
  133bbb     C3 3835  11.384  11.916   4.946 -0.1168  0.7674  0.1401
  133bbb     H5 3836  11.424  12.012   4.912  0.2310  0.4893 -0.2355
  133bbb     H6 3837  11.452  11.835   4.919  0.4750  0.1372  3.1485
  133bbb     C4 3838  11.387  11.926   5.098  0.3639  0.2619 -0.0546
  133bbb     H7 3839  11.325  11.840   5.127 -0.1775 -0.6608 -3.4560
  133bbb     H8 3840  11.330  12.011   5.137  0.7548  0.5443 -0.0995
  133bbb     C5 3841  11.029  12.024   4.844  0.4817 -0.0898 -0.1492
  133bbb     H9 3842  11.020  11.994   4.739 -2.2759 -0.0400  0.0127
  133bbb    H10 3843  10.990  12.126   4.836  1.3688  0.3117  0.4753
  133bbb     C6 3844  11.271  11.668   4.784 -0.1228 -0.0492  0.2810
  133bbb    H11 3845  11.381  11.662   4.789 -0.0781 -0.7092 -1.1889
  133bbb    H12 3846  11.254  11.620   4.687 -0.6491 -0.9557  0.8037
  133bbb     C7 3847  11.518  11.918   5.178 -0.2052 -0.3023  0.2089
  133bbb    H13 3848  11.539  11.811   5.192 -1.2982 -0.5184  0.3026
  133bbb    H14 3849  11.499  11.969   5.273 -1.4730 -0.6770  0.1801
  133bbb     C8 3850  11.196  11.606   4.907  0.0815 -0.0370 -0.0295
  133bbb    H15 3851  11.236  11.658   4.994 -1.3412  0.2458  0.4847
  133bbb    H16 3852  11.226  11.500   4.908  0.4306  0.0561 -0.3604
  133bbb     C9 3853  10.947  11.942   4.943 -1.2577 -0.4660 -0.3780
  133bbb    H17 3854  10.972  11.990   5.038  1.2960  1.2994 -1.8392
  133bbb    H18 3855  10.983  11.840   4.962  2.0419  0.6812  0.1620
  133bbb     O1 3856  11.622  11.993   5.101 -0.0121 -0.1445 -0.2496
  134bbb     N1 3857  12.195  12.898   4.839  0.0206  0.5655 -0.3057
  134bbb     C1 3858  12.336  12.934   4.847 -0.7348  0.3658  0.2278
  134bbb     H1 3859  12.396  12.847   4.816 -1.1207  0.1042  0.2110
  134bbb     H2 3860  12.365  12.965   4.948  1.6642  0.7849 -0.5263
  134bbb     C2 3861  12.134  12.890   4.703  0.4450 -0.1053 -0.2751
  134bbb     H3 3862  12.142  12.986   4.649  0.0498  0.3632  0.4800
  134bbb     H4 3863  12.025  12.887   4.714  0.4974  0.2282  0.4206
  134bbb     C3 3864  12.164  12.785   4.927  0.0233 -0.1947  0.2818
  134bbb     H5 3865  12.222  12.699   4.890 -0.8012 -0.6391  0.0045
  134bbb     H6 3866  12.060  12.754   4.913  0.4250 -1.1509 -0.7853
  134bbb     C4 3867  12.184  12.803   5.078  0.9826  0.2475 -0.2453
  134bbb     H7 3868  12.092  12.855   5.110 -0.9005 -1.7199 -2.0761
  134bbb     H8 3869  12.262  12.874   5.107  0.4212  0.6857  0.2009
  134bbb     C5 3870  12.371  13.056   4.767 -0.1929 -0.1561 -0.0975
  134bbb     H9 3871  12.304  13.140   4.788  1.1645  1.0475 -0.3837
  134bbb    H10 3872  12.372  13.044   4.658 -1.4524 -0.4602 -0.0816
  134bbb     C6 3873  12.174  12.775   4.613  0.3803  0.5967  0.3303
  134bbb    H11 3874  12.170  12.678   4.664 -2.8515 -0.1184 -1.0206
  134bbb    H12 3875  12.280  12.786   4.587  1.0607 -0.3209  2.5074
  134bbb     C7 3876  12.203  12.668   5.152 -0.0445 -0.2191  0.1205
  134bbb    H13 3877  12.212  12.706   5.255 -0.8958  0.5509 -0.0723
  134bbb    H14 3878  12.296  12.623   5.116  0.1776 -0.8459  1.4001
  134bbb     C8 3879  12.086  12.753   4.492  0.6240 -0.5148  0.0279
  134bbb    H15 3880  12.118  12.664   4.438  1.8495 -0.6915  0.9755
  134bbb    H16 3881  12.108  12.835   4.423 -0.4487 -0.8061 -0.6841
  134bbb     C9 3882  12.512  13.114   4.798  0.0902  0.1734 -0.1408
  134bbb    H17 3883  12.526  13.116   4.906 -0.4287  0.1951 -0.0704
  134bbb    H18 3884  12.511  13.219   4.765  1.3447 -0.1153 -1.1884
  134bbb     O1 3885  12.087  12.593   5.117  0.6318  0.7320  0.1996
  135bbb     N1 3886  13.134  13.027   8.684 -0.0441 -0.8647  0.2826
  135bbb     C1 3887  13.254  13.040   8.599 -0.2137  0.2656  0.5014
  135bbb     H1 3888  13.214  13.077   8.503 -0.2842  0.7786  0.7227
  135bbb     H2 3889  13.303  12.943   8.585  2.7454  1.8632 -1.2818
  135bbb     C2 3890  13.118  12.899   8.752  0.4640 -0.3225 -0.6536
  135bbb     H3 3891  13.038  12.910   8.827  1.3740 -2.4403  0.7002
  135bbb     H4 3892  13.207  12.878   8.813  0.4296  2.2103  0.3988
  135bbb     C3 3893  13.004  13.068   8.613 -0.0455 -0.7292  0.3208
  135bbb     H5 3894  12.973  13.010   8.524 -1.7927  3.2907 -1.9314
  135bbb     H6 3895  13.021  13.167   8.569  1.6047 -1.9685 -2.1183
  135bbb     C4 3896  12.876  13.103   8.702 -0.4359  0.4185 -0.0868
  135bbb     H7 3897  12.905  13.191   8.761  1.2206 -0.3852  0.3545
  135bbb     H8 3898  12.853  13.019   8.768  0.6151 -0.0909 -0.3536
  135bbb     C5 3899  13.356  13.145   8.655 -0.1785  0.4945 -0.1216
  135bbb     H9 3900  13.303  13.241   8.651  0.7424  1.0762  0.9505
  135bbb    H10 3901  13.429  13.159   8.575 -0.2219  1.8601  0.0504
  135bbb     C6 3902  13.070  12.787   8.652 -0.0851  0.2017 -1.1444
  135bbb    H11 3903  13.138  12.778   8.566  0.7634 -1.2716 -0.3549
  135bbb    H12 3904  12.965  12.798   8.623 -0.6068 -2.5160 -0.5595
  135bbb     C7 3905  12.752  13.126   8.618  0.6261  0.0469 -0.0141
  135bbb    H13 3906  12.773  13.206   8.547  1.8547  0.1202  0.4044
  135bbb    H14 3907  12.662  13.146   8.678  0.8494  0.7653  0.0950
  135bbb     C8 3908  13.081  12.647   8.719  0.4416 -0.0294 -0.2009
  135bbb    H15 3909  13.045  12.565   8.655 -0.8827  1.7495 -1.8372
  135bbb    H16 3910  13.019  12.651   8.810  0.6535 -0.7814 -0.0144
  135bbb     C9 3911  13.418  13.122   8.796  0.5029  0.0057 -0.0014
  135bbb    H17 3912  13.492  13.042   8.803 -1.0008 -1.3702  0.6884
  135bbb    H18 3913  13.339  13.088   8.864  0.4866  0.5273  0.2492
  135bbb     O1 3914  12.738  12.999   8.557  0.1628 -0.0770 -0.4144
  136bbb     N1 3915  11.808  13.058   8.819  0.0920  0.5239 -0.0302
  136bbb     C1 3916  11.716  13.118   8.719 -0.8953 -0.5730 -0.0209
  136bbb     H1 3917  11.679  13.042   8.649 -0.3627  0.3536 -1.3574
  136bbb     H2 3918  11.756  13.205   8.665 -2.3844 -0.8017 -1.5883
  136bbb     C2 3919  11.767  12.923   8.875 -0.7731  0.0053  0.3794
  136bbb     H3 3920  11.758  12.844   8.800  1.9249  0.0226 -0.0530
  136bbb     H4 3921  11.661  12.932   8.901 -1.7292  1.0550 -3.2709
  136bbb     C3 3922  11.957  13.062   8.776  0.0517  0.2804 -0.2916
  136bbb     H5 3923  12.026  13.050   8.861  1.3174 -1.6961 -1.5066
  136bbb     H6 3924  11.975  13.165   8.743 -0.8590  0.6549  0.3420
  136bbb     C4 3925  11.994  12.965   8.656  0.3795  0.1665  0.6166
  136bbb     H7 3926  11.924  12.979   8.573  0.7053  0.8200  0.4460
  136bbb     H8 3927  11.989  12.861   8.691 -2.3104  0.1234  0.3513
  136bbb     C5 3928  11.581  13.163   8.783  0.0148 -0.4502  0.1673
  136bbb     H9 3929  11.534  13.074   8.827  1.3967 -0.7403  1.0873
  136bbb    H10 3930  11.513  13.204   8.707 -1.4332 -0.3033  1.4968
  136bbb     C6 3931  11.847  12.885   9.003  0.0696 -0.5146 -0.0542
  136bbb    H11 3932  11.823  12.959   9.079 -1.3680  1.8468 -2.6425
  136bbb    H12 3933  11.955  12.884   8.983  0.2062 -0.8738  0.6818
  136bbb     C7 3934  12.130  12.986   8.598  0.0419  0.8649 -0.1738
  136bbb    H13 3935  12.204  12.947   8.669  0.1631  1.5175  0.0636
  136bbb    H14 3936  12.143  13.094   8.587  1.0504  0.8381  0.5676
  136bbb     C8 3937  11.797  12.747   9.053  0.6249  0.4007 -0.2799
  136bbb    H15 3938  11.872  12.709   9.124 -1.2165 -2.5734  0.2384
  136bbb    H16 3939  11.799  12.675   8.970  1.4646  0.0944 -0.0124
  136bbb     C9 3940  11.586  13.283   8.882  1.0928 -0.6343  0.5088
  136bbb    H17 3941  11.618  13.372   8.827 -0.3665 -0.1682  0.3628
  136bbb    H18 3942  11.658  13.257   8.961  1.6174 -1.5899 -0.2582
  136bbb     O1 3943  12.149  12.908   8.477  0.0075  0.2534 -0.1715
  137bbb     N1 3944  12.274  13.754   8.206 -0.2571 -0.3951  0.2279
  137bbb     C1 3945  12.388  13.684   8.276  0.3107  0.8196  0.2480
  137bbb     H1 3946  12.423  13.594   8.224  2.2678  1.1371  0.9081
  137bbb     H2 3947  12.363  13.660   8.380 -0.4315 -1.2096 -0.3548
  137bbb     C2 3948  12.271  13.721   8.064 -0.5000 -0.4610  0.0522
  137bbb     H3 3949  12.179  13.763   8.021 -0.3819 -1.6141 -1.3686
  137bbb     H4 3950  12.262  13.613   8.051 -0.6785 -0.4796  0.3175
  137bbb     C3 3951  12.140  13.737   8.274 -0.2379  0.1051 -0.3247
  137bbb     H5 3952  12.116  13.638   8.313 -0.5283  0.8887  1.6277
  137bbb     H6 3953  12.055  13.756   8.208 -0.9100 -1.7240 -0.0469
  137bbb     C4 3954  12.129  13.828   8.395  0.6509  0.8466  0.2001
  137bbb     H7 3955  12.201  13.794   8.471  0.3547  0.3501  0.2614
  137bbb     H8 3956  12.030  13.815   8.439 -0.6706  0.3111 -2.7269
  137bbb     C5 3957  12.504  13.782   8.295 -0.1010 -0.3591  0.2197
  137bbb     H9 3958  12.468  13.885   8.312  0.6417 -0.3830  2.1804
  137bbb    H10 3959  12.562  13.791   8.203 -1.4846 -1.1109 -0.7706
  137bbb     C6 3960  12.385  13.774   7.974  0.8041  0.2457  0.1628
  137bbb    H11 3961  12.358  13.743   7.873  2.3251  1.5456 -0.7003
  137bbb    H12 3962  12.474  13.714   7.998  1.0318 -1.3125 -3.9288
  137bbb     C7 3963  12.154  13.973   8.360 -0.0001  0.3029  0.1099
  137bbb    H13 3964  12.256  13.979   8.320 -0.2684  1.0747 -0.4923
  137bbb    H14 3965  12.154  14.045   8.443  0.9126 -1.1737  1.4264
  137bbb     C8 3966  12.382  13.934   7.988  0.1260  0.1313  0.4893
  137bbb    H15 3967  12.390  13.956   8.095 -2.2728  0.3959  0.6605
  137bbb    H16 3968  12.288  13.968   7.943  0.0256 -0.3552  0.3214
  137bbb     C9 3969  12.594  13.760   8.420 -0.0358 -0.1686 -0.3294
  137bbb    H17 3970  12.679  13.829   8.418 -0.3671  0.3814  1.7494
  137bbb    H18 3971  12.632  13.657   8.421  0.4476  0.0105 -0.0303
  137bbb     O1 3972  12.064  14.018   8.256 -0.0511  0.1355 -0.0561
  138bbb     N1 3973  11.391  14.191   7.318  0.8694 -0.5397 -0.2111
  138bbb     C1 3974  11.340  14.311   7.240  0.4533  0.0424 -0.1472
  138bbb     H1 3975  11.340  14.403   7.299 -0.0255  0.2011 -0.3814
  138bbb     H2 3976  11.234  14.298   7.212  0.3258  1.3672 -0.3353
  138bbb     C2 3977  11.536  14.186   7.341 -0.0674 -0.1039  0.6368
  138bbb     H3 3978  11.559  14.256   7.422  0.7263 -1.1137  1.2983
  138bbb     H4 3979  11.589  14.214   7.249  0.3460 -2.0028  0.2641
  138bbb     C3 3980  11.298  14.149   7.430 -0.4224 -0.4815  0.3507
  138bbb     H5 3981  11.328  14.054   7.476 -1.0411 -0.3737  0.9926
  138bbb     H6 3982  11.195  14.134   7.397 -1.2835  2.0000  1.6417
  138bbb     C4 3983  11.283  14.244   7.548  0.4075 -0.2436 -0.2986
  138bbb     H7 3984  11.179  14.277   7.543 -0.3620 -2.6493 -2.8583
  138bbb     H8 3985  11.346  14.332   7.528 -0.8668  0.3466 -1.9153
  138bbb     C5 3986  11.414  14.341   7.106 -0.3907  0.5878 -0.0661
  138bbb     H9 3987  11.444  14.252   7.049  0.4298  1.2696 -0.7521
  138bbb    H10 3988  11.509  14.386   7.138 -0.6227  0.8935  0.1999
  138bbb     C6 3989  11.585  14.042   7.391  0.1439  0.8512  0.5610
  138bbb    H11 3990  11.533  13.972   7.325  3.5746 -0.7482 -0.6608
  138bbb    H12 3991  11.531  14.031   7.486 -0.4665  1.4925  0.3028
  138bbb     C7 3992  11.322  14.189   7.684 -0.8101 -0.0482  0.1583
  138bbb    H13 3993  11.269  14.094   7.694 -1.8949  0.0663 -3.2824
  138bbb    H14 3994  11.282  14.238   7.773  1.2970 -1.0633  1.7517
  138bbb     C8 3995  11.734  14.017   7.425  0.3499  0.2854 -0.0133
  138bbb    H15 3996  11.746  13.918   7.470  0.8716  0.3058 -0.0984
  138bbb    H16 3997  11.769  14.087   7.503  2.9270 -1.7690  0.8441
  138bbb     C9 3998  11.349  14.445   7.009 -0.4928 -0.5824  0.6710
  138bbb    H17 3999  11.250  14.410   6.977 -0.4458 -1.5682  1.5480
  138bbb    H18 4000  11.411  14.444   6.919  0.6963  0.4902  1.4468
  138bbb     O1 4001  11.465  14.183   7.680 -0.1713  0.3203 -0.7343
  139bbb     N1 4002  12.924  11.613   7.339 -0.7241 -0.1486 -0.1228
  139bbb     C1 4003  12.996  11.683   7.229  0.3621 -0.4591  0.6291
  139bbb     H1 4004  13.103  11.659   7.238  0.6391  0.4768 -0.0055
  139bbb     H2 4005  12.996  11.792   7.241 -1.2661 -0.4753  1.0306
  139bbb     C2 4006  12.777  11.620   7.314  0.5890 -0.6690  0.6196
  139bbb     H3 4007  12.722  11.557   7.385 -0.3052 -1.5305 -0.7940
  139bbb     H4 4008  12.747  11.575   7.219 -1.3844  3.2266 -0.8388
  139bbb     C3 4009  12.984  11.654   7.470  0.1879 -0.2138 -0.8361
  139bbb     H5 4010  12.945  11.754   7.496 -2.0189 -0.9409 -1.1676
  139bbb     H6 4011  13.093  11.655   7.467  0.2451 -1.9112 -0.5048
  139bbb     C4 4012  12.924  11.550   7.577 -0.1724  0.0478  0.0224
  139bbb     H7 4013  12.966  11.450   7.562  1.7904  0.7707  0.4067
  139bbb     H8 4014  12.816  11.541   7.560 -0.2850  0.4115  0.5152
  139bbb     C5 4015  12.955  11.654   7.081  0.1502 -0.7252 -0.0388
  139bbb     H9 4016  12.856  11.693   7.056  1.6457  2.8156 -0.9590
  139bbb    H10 4017  12.952  11.544   7.085  1.0326 -0.7996 -1.0272
  139bbb     C6 4018  12.712  11.764   7.305  0.7909  0.5162  0.2802
  139bbb    H11 4019  12.704  11.796   7.201 -3.5010  0.1922  0.3503
  139bbb    H12 4020  12.759  11.847   7.360  0.4336  1.4363 -0.7784
  139bbb     C7 4021  12.946  11.602   7.723 -0.2920 -0.0351  0.0842
  139bbb    H13 4022  12.918  11.516   7.785  1.3435 -2.2044 -1.9797
  139bbb    H14 4023  12.880  11.688   7.739 -1.3812 -0.7758 -0.3106
  139bbb     C8 4024  12.569  11.757   7.349  0.0285  0.4198 -1.0838
  139bbb    H15 4025  12.535  11.862   7.352  0.3430  0.4912  0.3481
  139bbb    H16 4026  12.565  11.713   7.449 -1.3289  1.6804 -0.5477
  139bbb     C9 4027  13.058  11.684   6.972 -0.5085  0.7195  0.4426
  139bbb    H17 4028  13.149  11.625   6.990  0.5079  1.1569 -2.7470
  139bbb    H18 4029  13.088  11.789   6.971  2.1855  0.0783  2.3811
  139bbb     O1 4030  13.081  11.642   7.737 -0.1043 -0.5399 -0.5468
  140bbb     N1 4031  13.726  11.665   8.357 -0.7190 -0.5231 -0.0415
  140bbb     C1 4032  13.615  11.564   8.373  0.6029 -0.0675  0.2680
  140bbb     H1 4033  13.644  11.462   8.347 -0.6168 -0.7863  1.5444
  140bbb     H2 4034  13.551  11.607   8.295  0.0996  0.7642  1.1142
  140bbb     C2 4035  13.858  11.628   8.420 -0.0675 -0.7466  0.1339
  140bbb     H3 4036  13.847  11.622   8.529  0.7225 -2.3278  0.1555
  140bbb     H4 4037  13.940  11.697   8.398 -0.3674 -0.8778 -1.5958
  140bbb     C3 4038  13.678  11.807   8.371 -0.2952  0.4432  0.1128
  140bbb     H5 4039  13.664  11.811   8.479 -1.2857 -1.0147  0.0634
  140bbb     H6 4040  13.583  11.822   8.318 -1.4597  1.9783  2.4643
  140bbb     C4 4041  13.782  11.911   8.329  0.1437 -0.1313  0.1838
  140bbb     H7 4042  13.834  11.886   8.235  0.4392  1.5947 -0.1517
  140bbb     H8 4043  13.854  11.929   8.410  0.4307  1.9611 -0.4782
  140bbb     C5 4044  13.532  11.565   8.510 -0.2419 -0.0471  0.2655
  140bbb     H9 4045  13.474  11.657   8.523 -1.4757 -0.8133  0.3458
  140bbb    H10 4046  13.598  11.557   8.598  1.2709 -0.9511 -0.9004
  140bbb     C6 4047  13.915  11.497   8.377  0.2788  0.8158 -0.0055
  140bbb    H11 4048  13.851  11.409   8.388  0.0920  0.9000 -0.3928
  140bbb    H12 4049  14.007  11.484   8.436 -0.3485  0.3285  0.8890
  140bbb     C7 4050  13.714  12.051   8.310  0.1408  0.4809  0.1376
  140bbb    H13 4051  13.789  12.118   8.265  2.4145 -3.0292 -1.8875
  140bbb    H14 4052  13.687  12.081   8.412  0.5249 -0.4435  0.5224
  140bbb     C8 4053  13.951  11.501   8.229  0.6019 -0.0171 -0.0781
  140bbb    H15 4054  13.992  11.599   8.201 -1.4779  0.6730 -0.9085
  140bbb    H16 4055  13.857  11.477   8.179 -0.7387 -1.0003  2.6981
  140bbb     C9 4056  13.438  11.445   8.514  0.1651  0.0710 -0.0947
  140bbb    H17 4057  13.404  11.422   8.615  0.2551 -0.0711 -0.0958
  140bbb    H18 4058  13.491  11.355   8.480  1.4176  0.7617 -0.0585
  140bbb     O1 4059  13.597  12.042   8.231  0.1970 -0.3210 -0.1951
  141bbb     N1 4060  13.867  12.870   6.666 -0.1746  0.4195  0.9848
  141bbb     C1 4061  13.828  13.014   6.686 -0.3102  0.1140  0.0699
  141bbb     H1 4062  13.917  13.075   6.665 -0.2176 -0.5442 -1.6237
  141bbb     H2 4063  13.791  13.027   6.788  1.3470 -0.6763  0.8151
  141bbb     C2 4064  13.947  12.838   6.541 -0.4106  0.2643  0.3878
  141bbb     H3 4065  14.042  12.893   6.537 -0.7403  0.9040  1.1199
  141bbb     H4 4066  13.889  12.878   6.457  1.1607 -0.1310 -0.9445
  141bbb     C3 4067  13.911  12.795   6.786 -0.6959  0.2541 -0.1230
  141bbb     H5 4068  13.897  12.687   6.770 -0.2827 -0.2220  2.4327
  141bbb     H6 4069  13.850  12.807   6.875 -0.2731 -0.6108  0.2974
  141bbb     C4 4070  14.050  12.823   6.842  0.2685  0.2882  0.6615
  141bbb     H7 4071  14.053  12.928   6.875  0.0091 -0.0031  1.6361
  141bbb     H8 4072  14.121  12.811   6.760 -0.3440 -0.6337  0.2574
  141bbb     C5 4073  13.718  13.064   6.593  0.0994  0.2367  0.3979
  141bbb     H9 4074  13.628  13.006   6.614  1.6357 -1.7266  1.9037
  141bbb    H10 4075  13.739  13.032   6.490 -0.5997  0.1788  0.2690
  141bbb     C6 4076  13.963  12.686   6.504  0.1220 -0.2985  0.3308
  141bbb    H11 4077  13.875  12.632   6.541  1.3853 -1.8775  1.1353
  141bbb    H12 4078  14.049  12.642   6.556  0.5705 -3.1336 -2.5037
  141bbb     C7 4079  14.099  12.719   6.949 -0.5712 -0.2498  0.1124
  141bbb    H13 4080  14.208  12.729   6.957 -0.6351  0.8755 -0.2494
  141bbb    H14 4081  14.075  12.618   6.915  0.3893 -0.1567 -0.9019
  141bbb     C8 4082  13.982  12.650   6.349  0.6204 -0.1732 -0.4084
  141bbb    H15 4083  14.067  12.708   6.312  2.2000 -0.8167  1.9302
  141bbb    H16 4084  13.898  12.686   6.290  1.4252  1.6586 -0.5130
  141bbb     C9 4085  13.692  13.216   6.603 -0.0324  0.1882 -0.2002
  141bbb    H17 4086  13.619  13.255   6.531  0.6766  1.5081 -0.2395
  141bbb    H18 4087  13.783  13.270   6.574  0.1194  0.5467  0.8762
  141bbb     O1 4088  14.031  12.747   7.073  0.0356  0.1971  0.5732
  142bbb     N1 4089  14.104  12.464   8.203 -0.1031 -0.6225 -0.0711
  142bbb     C1 4090  13.968  12.416   8.167  0.7289  0.0251 -0.2188
  142bbb     H1 4091  13.971  12.314   8.126 -2.1953 -0.9596  1.6690
  142bbb     H2 4092  13.917  12.472   8.088  1.1494  2.5825  1.2184
  142bbb     C2 4093  14.101  12.590   8.283 -0.2121 -0.6831  0.2861
  142bbb     H3 4094  14.198  12.593   8.334 -1.2674  0.8160  2.3244
  142bbb     H4 4095  14.035  12.596   8.369 -0.5956  2.4896 -0.1036
  142bbb     C3 4096  14.203  12.462   8.093  0.5472  0.1446  0.0647
  142bbb     H5 4097  14.299  12.501   8.132  1.8351 -2.1068 -0.6665
  142bbb     H6 4098  14.166  12.521   8.009  1.3236  0.5144 -0.0274
  142bbb     C4 4099  14.240  12.331   8.034 -0.6174 -0.2470  0.0363
  142bbb     H7 4100  14.157  12.274   7.990 -0.4525 -0.4114 -0.0628
  142bbb     H8 4101  14.271  12.272   8.120 -0.7958 -1.3408 -0.6254
  142bbb     C5 4102  13.872  12.410   8.281 -0.1217  0.3348 -0.5556
  142bbb     H9 4103  13.785  12.347   8.258  0.1254  0.5009 -2.0403
  142bbb    H10 4104  13.832  12.512   8.286 -0.4266  0.2102 -0.3880
  142bbb     C6 4105  14.070  12.709   8.192  0.2860  0.9524  0.0364
  142bbb    H11 4106  13.976  12.691   8.138  0.5634  2.6397 -1.1160
  142bbb    H12 4107  14.153  12.731   8.124  0.5341  1.2357  0.4309
  142bbb     C7 4108  14.346  12.340   7.920 -0.6256  0.0809 -0.1050
  142bbb    H13 4109  14.375  12.237   7.894  0.1364  0.3505 -0.3451
  142bbb    H14 4110  14.434  12.401   7.942 -0.7519 -0.1992  1.2797
  142bbb     C8 4111  14.055  12.834   8.278  0.2759 -0.4815 -0.1023
  142bbb    H15 4112  14.127  12.843   8.360 -1.0652 -0.6303  1.1324
  142bbb    H16 4113  13.957  12.831   8.328  0.6035  1.4367  0.7550
  142bbb     C9 4114  13.920  12.359   8.421 -0.6311  0.8067 -0.0834
  142bbb    H17 4115  13.983  12.421   8.485  0.5631 -1.7946  1.4432
  142bbb    H18 4116  13.986  12.273   8.402  1.1169  2.1477 -0.2910
  142bbb     O1 4117  14.285  12.413   7.812  0.5523  0.4127 -0.7355
  143bbb     N1 4118   9.715  12.460   6.405  0.4199  0.1089  0.2784
  143bbb     C1 4119   9.654  12.461   6.541  0.5858 -0.2306  0.3185
  143bbb     H1 4120   9.730  12.452   6.619  2.5904  2.0335 -1.2285
  143bbb     H2 4121   9.589  12.373   6.553 -0.7910  0.6664 -0.3383
  143bbb     C2 4122   9.616  12.456   6.291 -0.9283  0.7685 -0.5895
  143bbb     H3 4123   9.516  12.486   6.327 -1.3182 -0.7623 -0.3188
  143bbb     H4 4124   9.617  12.354   6.253  2.3510 -0.4561  2.2071
  143bbb     C3 4125   9.846  12.392   6.407  0.1465 -0.4109  0.2919
  143bbb     H5 4126   9.866  12.368   6.302 -0.0242  0.0266  0.1586
  143bbb     H6 4127   9.837  12.289   6.443 -0.5570 -0.1064  1.0065
  143bbb     C4 4128   9.963  12.471   6.470  0.1807  0.0262  0.2097
  143bbb     H7 4129  10.057  12.415   6.469 -0.0216 -0.3189  0.4060
  143bbb     H8 4130   9.932  12.491   6.573 -0.6382  0.3057 -0.0826
  143bbb     C5 4131   9.580  12.591   6.579  0.1222 -0.0597 -0.0448
  143bbb     H9 4132   9.510  12.605   6.495 -0.9874  0.4429  0.9241
  143bbb    H10 4133   9.651  12.674   6.566 -0.0067 -0.1914 -2.0151
  143bbb     C6 4134   9.649  12.550   6.171 -0.3374 -0.8369 -0.1128
  143bbb    H11 4135   9.590  12.523   6.082  0.0552  0.8130 -0.9156
  143bbb    H12 4136   9.754  12.551   6.140 -0.3052  0.6885 -0.0292
  143bbb     C7 4137   9.986  12.613   6.405 -0.3380  0.6728 -0.2956
  143bbb    H13 4138   9.887  12.655   6.382 -1.2822 -0.5316  1.3202
  143bbb    H14 4139  10.037  12.591   6.311 -0.8015 -0.0930 -0.3796
  143bbb     C8 4140   9.619  12.701   6.213  0.0206 -0.1502  0.3753
  143bbb    H15 4141   9.651  12.773   6.137  1.2868  0.5867  1.5416
  143bbb    H16 4142   9.676  12.719   6.306 -2.5477  0.0132  2.0111
  143bbb     C9 4143   9.498  12.592   6.707  0.4689 -0.2375 -0.2769
  143bbb    H17 4144   9.465  12.696   6.720  2.4453  0.9811 -3.7523
  143bbb    H18 4145   9.583  12.584   6.776  1.6868 -0.2418 -1.7266
  143bbb     O1 4146  10.062  12.705   6.495  0.3448  0.7117  0.1237
  144bbb     N1 4147   9.936  13.631   6.386 -0.1024  0.0873  0.3193
  144bbb     C1 4148   9.821  13.546   6.350 -0.3602  0.5929 -1.0335
  144bbb     H1 4149   9.857  13.472   6.277  2.9511  1.6864 -0.7093
  144bbb     H2 4150   9.749  13.611   6.298 -1.5994 -0.4192 -0.6275
  144bbb     C2 4151   9.951  13.753   6.303  0.3606  0.4041 -0.6913
  144bbb     H3 4152  10.039  13.807   6.340  0.2472  0.5249 -0.5933
  144bbb     H4 4153   9.866  13.822   6.314  1.8916  2.2769  0.0251
  144bbb     C3 4154  10.052  13.546   6.425  0.5928 -0.3857 -0.1326
  144bbb     H5 4155  10.109  13.527   6.333 -1.4782  0.5089 -1.6779
  144bbb     H6 4156  10.022  13.447   6.460 -0.0313 -0.0682  0.2385
  144bbb     C4 4157  10.131  13.623   6.533 -0.3075  0.3441  0.7188
  144bbb     H7 4158  10.059  13.653   6.611 -0.2658  0.4948  0.6999
  144bbb     H8 4159  10.168  13.719   6.494  2.3100 -0.2639  1.4517
  144bbb     C5 4160   9.755  13.487   6.479  0.0047 -0.0733 -0.9448
  144bbb     H9 4161   9.737  13.567   6.552 -1.3501 -0.5207 -0.7568
  144bbb    H10 4162   9.828  13.412   6.512  2.8840  3.2414  0.8883
  144bbb     C6 4163   9.972  13.723   6.157  0.3071  0.1367  0.3840
  144bbb    H11 4164   9.897  13.650   6.124  2.6556 -3.0635  1.6276
  144bbb    H12 4165  10.060  13.662   6.135  1.5419  1.9314  0.0964
  144bbb     C7 4166  10.241  13.534   6.588  0.0164 -0.5818 -0.3005
  144bbb    H13 4167  10.297  13.593   6.662 -0.5301  0.1375 -0.4474
  144bbb    H14 4168  10.306  13.509   6.503  0.5887  0.9424 -0.3397
  144bbb     C8 4169   9.994  13.852   6.066  0.3455 -0.0625  0.0733
  144bbb    H15 4170  10.053  13.922   6.128 -1.1710 -0.2009  1.7595
  144bbb    H16 4171   9.901  13.907   6.048 -1.1149 -2.5320 -0.4228
  144bbb     C9 4172   9.614  13.427   6.453  0.2423  0.0138 -0.6463
  144bbb    H17 4173   9.536  13.502   6.469  0.2709  0.8760 -3.7937
  144bbb    H18 4174   9.591  13.356   6.533  0.6780  1.4075  0.7536
  144bbb     O1 4175  10.177  13.418   6.644 -0.4282 -0.3385 -0.3599
  145bbb     N1 4176  10.558  11.690   5.441 -0.0603  0.4423  0.3114
  145bbb     C1 4177  10.576  11.768   5.319 -0.1601  0.1557  0.1597
  145bbb     H1 4178  10.489  11.763   5.254  0.4057  1.2009 -0.7007
  145bbb     H2 4179  10.656  11.723   5.258 -1.9395 -0.3770 -1.8920
  145bbb     C2 4180  10.432  11.712   5.521 -0.0734 -0.6346 -0.8123
  145bbb     H3 4181  10.423  11.817   5.550  0.4562 -0.2340 -2.0177
  145bbb     H4 4182  10.435  11.652   5.613  0.8132  1.6881  0.7656
  145bbb     C3 4183  10.673  11.685   5.528  0.0022 -0.6095 -0.0683
  145bbb     H5 4184  10.653  11.605   5.601 -0.9497  0.2460  0.6438
  145bbb     H6 4185  10.691  11.781   5.579  2.4976 -0.3114 -1.3946
  145bbb     C4 4186  10.803  11.657   5.455  0.1440 -0.5208  0.5302
  145bbb     H7 4187  10.836  11.745   5.397 -0.1316 -0.5227  0.3680
  145bbb     H8 4188  10.778  11.589   5.373 -0.9505  0.3951  0.0626
  145bbb     C5 4189  10.605  11.911   5.353 -0.2093 -0.1575  0.3894
  145bbb     H9 4190  10.706  11.932   5.389  0.1387  0.4845 -0.9154
  145bbb    H10 4191  10.541  11.952   5.432 -1.4271  0.1302 -0.7137
  145bbb     C6 4192  10.301  11.683   5.444 -0.5962 -0.0958 -0.0457
  145bbb    H11 4193  10.321  11.614   5.361  3.3681  0.2205  0.4381
  145bbb    H12 4194  10.268  11.770   5.385 -1.7294  0.8780  1.9496
  145bbb     C7 4195  10.922  11.604   5.532 -0.4031  0.1876 -0.5284
  145bbb    H13 4196  11.002  11.563   5.469 -1.6996 -2.6710 -0.5192
  145bbb    H14 4197  10.895  11.519   5.596  1.3897  0.6766  0.9593
  145bbb     C8 4198  10.189  11.631   5.536  0.4791 -0.2691 -0.5616
  145bbb    H15 4199  10.211  11.537   5.587  0.9206 -0.0021 -0.2549
  145bbb    H16 4200  10.101  11.612   5.472  2.1187  0.9023 -3.3470
  145bbb     C9 4201  10.579  11.996   5.223  0.1486 -0.0776 -0.0811
  145bbb    H17 4202  10.647  11.972   5.141 -0.1875  1.8218 -0.9576
  145bbb    H18 4203  10.580  12.104   5.244 -3.3056 -0.0797  0.6548
  145bbb     O1 4204  10.980  11.705   5.618 -0.5507 -0.0778 -0.2481
  146bbb     N1 4205  11.973  11.776   6.334  0.1435 -0.5225  0.1772
  146bbb     C1 4206  12.049  11.753   6.210  0.0448 -0.8437  0.1901
  146bbb     H1 4207  12.144  11.807   6.222 -0.5819  0.1100  1.0361
  146bbb     H2 4208  12.007  11.800   6.120  2.0265  0.0949 -0.3158
  146bbb     C2 4209  12.029  11.711   6.454 -1.0166  0.1658 -0.3222
  146bbb     H3 4210  12.138  11.700   6.443 -1.1341 -0.2281 -1.2220
  146bbb     H4 4211  11.993  11.607   6.460  1.0570 -0.5077  2.5361
  146bbb     C3 4212  11.822  11.765   6.324 -0.1963  0.8287  0.6516
  146bbb     H5 4213  11.774  11.791   6.419 -0.3712  0.5920  0.6298
  146bbb     H6 4214  11.792  11.664   6.295  2.1651  0.6698 -1.7077
  146bbb     C4 4215  11.760  11.855   6.218 -0.2829 -0.2781  0.6999
  146bbb     H7 4216  11.796  11.834   6.117 -1.4108 -0.3354  0.3001
  146bbb     H8 4217  11.780  11.961   6.242 -0.2242 -0.4333  1.3613
  146bbb     C5 4218  12.083  11.611   6.167 -0.0609 -0.5260 -0.1375
  146bbb     H9 4219  12.125  11.550   6.248 -0.7696 -0.8904 -0.0306
  146bbb    H10 4220  12.159  11.624   6.090  1.7322  2.4003  1.9365
  146bbb     C6 4221  12.009  11.782   6.589  0.1841  1.1060 -0.0318
  146bbb    H11 4222  11.906  11.817   6.603  0.0059  1.7721 -2.5157
  146bbb    H12 4223  12.073  11.871   6.586  3.5213 -1.0981 -0.1562
  146bbb     C7 4224  11.609  11.826   6.231 -0.0088 -0.1038 -0.4032
  146bbb    H13 4225  11.576  11.864   6.329 -0.6328  1.8679 -1.3477
  146bbb    H14 4226  11.591  11.718   6.219  0.2483 -0.2825  0.6694
  146bbb     C8 4227  12.066  11.686   6.696 -0.0433  0.4077  0.7012
  146bbb    H15 4228  12.168  11.657   6.667 -0.3782  1.0116 -1.2255
  146bbb    H16 4229  11.999  11.599   6.696  1.0220 -0.4674 -1.0974
  146bbb     C9 4230  11.969  11.534   6.107  0.2369  0.4880 -0.1170
  146bbb    H17 4231  11.892  11.530   6.186 -0.8803  1.0800 -1.1490
  146bbb    H18 4232  12.001  11.434   6.075  1.0717 -0.2326  2.6721
  146bbb     O1 4233  11.544  11.902   6.130 -0.7155  0.5519 -0.1211
  147bbb     N1 4234  11.113  13.588   6.675 -0.4894 -0.4751 -0.3805
  147bbb     C1 4235  11.238  13.556   6.750  1.0988  0.3987  0.2365
  147bbb     H1 4236  11.223  13.600   6.849 -2.4933  0.7469 -0.3133
  147bbb     H2 4237  11.315  13.617   6.701 -0.0513  1.1748 -0.6820
  147bbb     C2 4238  11.076  13.733   6.679  0.3111 -0.5241  0.0978
  147bbb     H3 4239  10.998  13.744   6.602  0.1946 -2.5069 -0.1369
  147bbb     H4 4240  11.159  13.796   6.647  0.8686  0.5951  3.4272
  147bbb     C3 4241  11.095  13.528   6.537 -0.2762 -0.4760  0.0577
  147bbb     H5 4242  10.993  13.556   6.508  0.7194  2.4288 -0.9689
  147bbb     H6 4243  11.100  13.420   6.553  0.2489 -0.8106 -2.0117
  147bbb     C4 4244  11.192  13.567   6.426 -0.2997  0.4039 -0.3387
  147bbb     H7 4245  11.284  13.575   6.486 -1.7669 -0.1602  2.1007
  147bbb     H8 4246  11.172  13.663   6.377 -2.7196 -0.5846 -1.4174
  147bbb     C5 4247  11.270  13.404   6.760  0.0790 -0.3794 -0.3600
  147bbb     H9 4248  11.174  13.350   6.771 -0.3399 -0.2125 -2.6177
  147bbb    H10 4249  11.325  13.389   6.853 -0.7665 -1.0064  0.0536
  147bbb     C6 4250  11.029  13.782   6.814 -0.5613  0.6111 -0.7554
  147bbb    H11 4251  10.978  13.878   6.800 -0.2879  0.9724  0.6048
  147bbb    H12 4252  11.117  13.802   6.876  0.5380 -2.7938 -1.0220
  147bbb     C7 4253  11.204  13.456   6.320 -0.0884 -0.4463  1.1413
  147bbb    H13 4254  11.229  13.359   6.364  0.6661 -0.4875  0.6465
  147bbb    H14 4255  11.284  13.489   6.251 -1.8814 -0.6175 -1.1542
  147bbb     C8 4256  10.929  13.679   6.876 -0.9051  0.4850  0.0286
  147bbb    H15 4257  10.954  13.573   6.876 -0.4175  0.5624  2.1443
  147bbb    H16 4258  10.837  13.691   6.816 -1.5155  0.8483  1.0043
  147bbb     C9 4259  11.350  13.347   6.639 -0.2920 -0.2727 -0.1287
  147bbb    H17 4260  11.413  13.432   6.611  0.4620 -0.2685  1.4907
  147bbb    H18 4261  11.277  13.314   6.564 -0.6773  0.8369 -0.2666
  147bbb     O1 4262  11.084  13.444   6.245  0.3567 -0.0269 -0.4445
  148bbb     N1 4263  10.654  13.840   6.538  0.2418 -0.0219 -0.2234
  148bbb     C1 4264  10.583  13.904   6.648 -0.4301 -0.3934 -0.3801
  148bbb     H1 4265  10.542  13.993   6.597  1.2991  1.4934  1.3348
  148bbb     H2 4266  10.646  13.947   6.726 -0.0736  0.9775 -1.3808
  148bbb     C2 4267  10.777  13.916   6.495  0.1174  0.4789 -0.0466
  148bbb     H3 4268  10.833  13.928   6.589  1.0069 -2.4462 -0.0917
  148bbb     H4 4269  10.748  14.017   6.465  0.7690  2.4427  4.9518
  148bbb     C3 4270  10.572  13.783   6.431  0.5996 -0.6119 -0.2250
  148bbb     H5 4271  10.508  13.710   6.483 -0.7145 -0.2914 -1.3110
  148bbb     H6 4272  10.635  13.735   6.355 -0.7948 -1.2218 -1.0448
  148bbb     C4 4273  10.473  13.893   6.373  0.0892 -0.3646 -0.2065
  148bbb     H7 4274  10.535  13.972   6.328 -1.0906  0.5667 -0.2512
  148bbb     H8 4275  10.404  13.939   6.445  1.5332 -0.2751  1.1588
  148bbb     C5 4276  10.459  13.832   6.716  0.5947  0.7845 -0.3664
  148bbb     H9 4277  10.385  13.811   6.637 -0.7527  3.1276  0.1648
  148bbb    H10 4278  10.396  13.898   6.777  1.6117  2.8206 -1.4297
  148bbb     C6 4279  10.876  13.854   6.388  0.4578  0.6836 -0.0195
  148bbb    H11 4280  10.827  13.834   6.292  2.5536 -2.2819 -0.6259
  148bbb    H12 4281  10.908  13.754   6.421 -1.4635  0.5546  1.6635
  148bbb     C7 4282  10.380  13.838   6.257  0.5917 -0.1238 -0.0761
  148bbb    H13 4283  10.299  13.908   6.232  1.9624  1.9853  1.0439
  148bbb    H14 4284  10.337  13.739   6.272  0.4135 -0.4616 -2.4450
  148bbb     C8 4285  11.007  13.938   6.364 -0.3818  0.1329  0.9148
  148bbb    H15 4286  11.068  13.921   6.454 -1.4277  0.6000  1.7461
  148bbb    H16 4287  10.994  14.044   6.338  1.8032 -0.4218 -3.2521
  148bbb     C9 4288  10.491  13.714   6.804 -0.4186  0.4835  0.7150
  148bbb    H17 4289  10.580  13.728   6.867  0.7582  0.5453 -0.8903
  148bbb    H18 4290  10.524  13.636   6.734 -0.9834  1.0991 -0.2453
  148bbb     O1 4291  10.459  13.831   6.138  0.5545 -0.1098  0.1027
  149bbb     N1 4292  10.492  12.682   5.482  0.3405  0.3604 -0.2054
  149bbb     C1 4293  10.470  12.542   5.480  0.1906 -0.4215  0.2098
  149bbb     H1 4294  10.506  12.505   5.383 -1.6676 -0.4600 -0.5206
  149bbb     H2 4295  10.361  12.526   5.476 -0.1121  1.6074 -1.1619
  149bbb     C2 4296  10.396  12.759   5.407  0.0134  0.8929  0.0044
  149bbb     H3 4297  10.401  12.858   5.454  0.0860  0.8157  0.1609
  149bbb     H4 4298  10.292  12.727   5.419 -0.1860  1.4673 -0.1164
  149bbb     C3 4299  10.630  12.727   5.472 -0.3381  0.2849 -0.0402
  149bbb     H5 4300  10.670  12.712   5.371 -1.8445  1.7035 -0.9022
  149bbb     H6 4301  10.675  12.677   5.558  1.8319  0.1908 -1.1606
  149bbb     C4 4302  10.640  12.881   5.509 -0.8087 -0.0701 -0.4376
  149bbb     H7 4303  10.585  12.908   5.600 -1.4109  1.1174 -1.1303
  149bbb     H8 4304  10.584  12.941   5.436 -1.0256  1.4813  0.9498
  149bbb     C5 4305  10.528  12.454   5.586 -0.0977  0.0940 -0.0131
  149bbb     H9 4306  10.637  12.443   5.577 -0.1830  0.8777 -3.4076
  149bbb    H10 4307  10.485  12.354   5.580  3.0703 -1.4049 -0.0944
  149bbb     C6 4308  10.425  12.789   5.256  0.1208 -0.5173  0.0940
  149bbb    H11 4309  10.513  12.853   5.243 -1.0831  1.6040  1.5887
  149bbb    H12 4310  10.340  12.855   5.233  0.1912 -0.4778 -0.0543
  149bbb     C7 4311  10.786  12.930   5.513  0.2573  0.9185  0.4268
  149bbb    H13 4312  10.842  12.855   5.571 -0.7613 -0.5748 -0.4462
  149bbb    H14 4313  10.795  13.030   5.555  0.5133  1.9121 -1.8340
  149bbb     C8 4314  10.421  12.664   5.173 -0.2479 -0.0444 -0.3069
  149bbb    H15 4315  10.488  12.587   5.214 -1.9777 -1.1138  0.6424
  149bbb    H16 4316  10.462  12.695   5.076 -0.6487  3.7163  0.5898
  149bbb     C9 4317  10.499  12.505   5.734 -0.4727  0.3851  0.6062
  149bbb    H17 4318  10.392  12.492   5.754 -0.3659  0.2842  1.1157
  149bbb    H18 4319  10.531  12.608   5.756 -0.7836  0.5168  0.4588
  149bbb     O1 4320  10.834  12.927   5.377 -0.3877 -0.1786 -0.2373
  150bbb     N1 4321  11.185  12.517   4.837 -0.0458 -0.7367  0.4631
  150bbb     C1 4322  11.225  12.607   4.726  0.0491 -0.3477 -0.3717
  150bbb     H1 4323  11.257  12.706   4.762  0.3218 -0.2489 -0.8757
  150bbb     H2 4324  11.143  12.620   4.654  2.2584  0.3763 -2.9353
  150bbb     C2 4325  11.049  12.530   4.889 -0.1466 -0.6705 -0.2051
  150bbb     H3 4326  11.026  12.467   4.975 -0.4614 -0.0635  0.1689
  150bbb     H4 4327  10.982  12.511   4.804  0.1398 -0.3059 -0.5164
  150bbb     C3 4328  11.292  12.496   4.933 -0.6092  0.1581 -0.1338
  150bbb     H5 4329  11.270  12.556   5.023 -2.6655 -1.9376  0.8429
  150bbb     H6 4330  11.392  12.519   4.895 -0.2445  1.0349  1.2430
  150bbb     C4 4331  11.280  12.356   4.977  0.0791 -0.1045  0.5171
  150bbb     H7 4332  11.270  12.298   4.884 -1.8510  0.1784  0.5177
  150bbb     H8 4333  11.189  12.333   5.032 -0.2142  0.7016  0.3794
  150bbb     C5 4334  11.327  12.549   4.627  0.8725 -0.4460  0.0687
  150bbb     H9 4335  11.272  12.473   4.571  1.8044 -0.5840 -0.7040
  150bbb    H10 4336  11.415  12.498   4.669  1.5429 -0.9190 -1.8146
  150bbb     C6 4337  11.011  12.679   4.924  0.2066  0.3364  0.4884
  150bbb    H11 4338  11.022  12.737   4.832  0.5657  1.0721  0.9847
  150bbb    H12 4339  11.082  12.723   4.995  0.0187  1.9898 -0.3025
  150bbb     C7 4340  11.397  12.312   5.063  0.5731  0.6865  0.8375
  150bbb    H13 4341  11.493  12.326   5.013  0.2810 -1.0392 -0.2790
  150bbb    H14 4342  11.383  12.206   5.087  0.3046  0.0896 -1.6756
  150bbb     C8 4343  10.861  12.690   4.966  0.3361  0.2233  0.3352
  150bbb    H15 4344  10.838  12.633   5.056 -0.7215 -2.3831 -1.4494
  150bbb    H16 4345  10.803  12.649   4.881 -0.7285  1.0557  0.6347
  150bbb     C9 4346  11.365  12.642   4.517  0.8149 -0.4135  0.2289
  150bbb    H17 4347  11.420  12.590   4.437  0.0024  2.5750 -2.4706
  150bbb    H18 4348  11.437  12.711   4.563  1.4351 -0.2655 -0.8934
  150bbb     O1 4349  11.392  12.380   5.189 -0.6115  0.1534 -0.5451
  151bbb     N1 4350  13.059  13.030   7.984  0.1821 -0.3065 -0.3289
  151bbb     C1 4351  13.176  13.109   7.979 -0.0754 -0.3077 -0.0809
  151bbb     H1 4352  13.255  13.053   7.928  1.3766  0.7805  0.8691
  151bbb     H2 4353  13.203  13.129   8.084 -0.6755  0.4613 -0.0640
  151bbb     C2 4354  13.003  12.973   7.857  0.3511  0.0629 -0.5227
  151bbb     H3 4355  13.072  12.896   7.821  2.9464  2.0693 -0.2037
  151bbb     H4 4356  13.004  13.043   7.772  0.5457  0.3140 -0.3164
  151bbb     C3 4357  13.056  12.939   8.102 -0.1620 -0.4090 -0.0402
  151bbb     H5 4358  12.955  12.902   8.124 -0.0666 -1.6213 -1.4718
  151bbb     H6 4359  13.099  12.992   8.188 -1.9064  0.2388  0.4630
  151bbb     C4 4360  13.137  12.808   8.085  0.2483  0.7877  0.3948
  151bbb     H7 4361  13.243  12.824   8.058  0.1053  1.1548  0.0384
  151bbb     H8 4362  13.094  12.748   8.004 -0.6344  1.1427  0.5949
  151bbb     C5 4363  13.173  13.235   7.901  0.4134  0.1597 -0.1628
  151bbb     H9 4364  13.092  13.303   7.931 -0.4899 -0.5004 -1.0247
  151bbb    H10 4365  13.132  13.220   7.800 -0.9484 -1.6664  0.6120
  151bbb     C6 4366  12.856  12.925   7.852  0.5074  0.0786  0.0496
  151bbb    H11 4367  12.799  12.992   7.917  0.8117  1.0377 -0.6457
  151bbb    H12 4368  12.856  12.824   7.894  0.3177 -0.2648 -0.7510
  151bbb     C7 4369  13.144  12.743   8.222 -0.4377  0.1467 -0.3922
  151bbb    H13 4370  13.159  12.811   8.308 -1.4806  0.8129 -0.7081
  151bbb    H14 4371  13.220  12.665   8.228  1.1180  1.6812  1.6534
  151bbb     C8 4372  12.792  12.922   7.715  0.4449  0.0351 -0.6446
  151bbb    H15 4373  12.811  13.020   7.672 -0.7738  1.2435  1.3735
  151bbb    H16 4374  12.685  12.915   7.740  0.9020  1.3317  2.0077
  151bbb     C9 4375  13.313  13.305   7.892  0.6649  0.0666 -0.4331
  151bbb    H17 4376  13.386  13.233   7.851 -3.5050 -3.9728 -1.5967
  151bbb    H18 4377  13.338  13.323   7.997 -3.3831  0.2567  0.6552
  151bbb     O1 4378  13.005  12.679   8.242  0.0169 -0.6882  0.2020
  152bbb     N1 4379  12.335  12.712   8.805  0.4918 -0.4257 -0.0585
  152bbb     C1 4380  12.436  12.830   8.812 -0.5034  0.3355  0.3003
  152bbb     H1 4381  12.451  12.854   8.918 -0.9165 -0.9673  0.6799
  152bbb     H2 4382  12.394  12.920   8.765 -0.3415 -0.4247 -1.4035
  152bbb     C2 4383  12.210  12.729   8.884  0.2060  0.4983  0.5009
  152bbb     H3 4384  12.161  12.630   8.892  0.6855  0.2442  0.3360
  152bbb     H4 4385  12.145  12.803   8.836 -1.9817 -1.0334  0.9547
  152bbb     C3 4386  12.313  12.656   8.671 -0.4398 -0.1042  1.0136
  152bbb     H5 4387  12.409  12.636   8.622 -0.7928  0.3419  0.1261
  152bbb     H6 4388  12.261  12.736   8.617 -0.8544 -1.6668 -1.0131
  152bbb     C4 4389  12.224  12.524   8.664 -0.4658 -0.4971  0.6026
  152bbb     H7 4390  12.127  12.531   8.716  0.3655 -1.6317  2.4318
  152bbb     H8 4391  12.272  12.441   8.718 -1.3836 -0.5401  1.3815
  152bbb     C5 4392  12.578  12.801   8.754  0.2744 -0.0576 -0.0635
  152bbb     H9 4393  12.653  12.879   8.767 -0.3224  0.3199  1.4197
  152bbb    H10 4394  12.562  12.789   8.647 -2.3919 -2.2532  0.4564
  152bbb     C6 4395  12.238  12.777   9.036 -0.6367  0.6102  0.3488
  152bbb    H11 4396  12.141  12.755   9.083 -0.9931  1.0979 -0.1600
  152bbb    H12 4397  12.258  12.884   9.043  1.0516  0.2782  1.1660
  152bbb     C7 4398  12.192  12.470   8.525  0.1952  0.4250  0.3339
  152bbb    H13 4399  12.142  12.551   8.469  1.8377 -1.2920 -4.0436
  152bbb    H14 4400  12.126  12.383   8.516  0.6685  0.2732 -3.1938
  152bbb     C8 4401  12.352  12.701   9.118  0.3226  0.0586 -0.1665
  152bbb    H15 4402  12.394  12.772   9.190 -1.1965  0.0771  0.7489
  152bbb    H16 4403  12.430  12.657   9.055  0.0371  1.6163 -1.6722
  152bbb     C9 4404  12.645  12.671   8.806  0.1609 -0.9755 -0.6647
  152bbb    H17 4405  12.724  12.648   8.733  1.5807  1.2271  0.0703
  152bbb    H18 4406  12.571  12.591   8.819  1.3104 -1.9692  0.0468
  152bbb     O1 4407  12.321  12.438   8.449 -0.5982 -0.1078  0.3771
  153bbb     N1 4408  11.055  13.066   9.048  0.0761  0.0690 -0.1850
  153bbb     C1 4409  10.953  12.989   9.129 -0.2342 -0.0670  0.0723
  153bbb     H1 4410  10.914  13.057   9.205 -0.0527  0.8130 -0.5996
  153bbb     H2 4411  11.007  12.914   9.189  0.5014  0.0222 -0.4560
  153bbb     C2 4412  10.996  13.189   8.984 -0.0320  0.3170  0.2697
  153bbb     H3 4413  10.951  13.237   9.072  0.4736 -1.3232  1.4519
  153bbb     H4 4414  10.919  13.160   8.911 -0.9108  0.8521  0.9619
  153bbb     C3 4415  11.125  12.973   8.941  0.7115 -0.3272 -0.0479
  153bbb     H5 4416  11.206  13.026   8.891  1.2054 -2.4143 -1.5735
  153bbb     H6 4417  11.048  12.947   8.867  1.5162 -2.6658 -0.1408
  153bbb     C4 4418  11.207  12.854   8.996  0.0944 -0.1608 -0.1221
  153bbb     H7 4419  11.140  12.786   9.049 -0.6431  0.7227  0.0951
  153bbb     H8 4420  11.279  12.890   9.071 -0.7405  2.8620 -0.6107
  153bbb     C5 4421  10.829  12.936   9.054 -0.1300 -1.1972 -0.1146
  153bbb     H9 4422  10.864  12.895   8.959  2.1346  1.6605 -0.6653
  153bbb    H10 4423  10.766  13.024   9.034 -1.6759 -2.0836  0.6330
  153bbb     C6 4424  11.109  13.272   8.914 -0.0284  0.3285 -0.1125
  153bbb    H11 4425  11.152  13.211   8.834 -0.8330 -0.4495  0.0316
  153bbb    H12 4426  11.189  13.282   8.989  0.3091 -3.7927  0.2687
  153bbb     C7 4427  11.266  12.774   8.876 -1.3986 -0.8327  0.0926
  153bbb    H13 4428  11.181  12.758   8.810 -1.1232  2.0336 -1.1029
  153bbb    H14 4429  11.308  12.681   8.917 -0.5258  0.4269  2.2764
  153bbb     C8 4430  11.069  13.411   8.850 -0.1594  0.0048 -0.3462
  153bbb    H15 4431  11.154  13.445   8.791 -0.8207  0.5146 -1.0193
  153bbb    H16 4432  11.056  13.487   8.928  1.7956  0.9946 -0.9268
  153bbb     C9 4433  10.751  12.842   9.144  0.1148 -0.1342  0.0317
  153bbb    H17 4434  10.649  12.812   9.116  0.5130 -0.6099 -0.9609
  153bbb    H18 4435  10.741  12.903   9.234  0.9530  1.7095 -1.0750
  153bbb     O1 4436  11.365  12.858   8.809 -0.3145  0.3516  0.3832
  154bbb     N1 4437  10.849  12.541   8.212 -0.6972 -0.2434  0.2262
  154bbb     C1 4438  10.883  12.418   8.298 -0.2486 -0.5967  0.4266
  154bbb     H1 4439  10.977  12.430   8.353 -1.1148  1.3524  1.5872
  154bbb     H2 4440  10.884  12.331   8.230  2.0326 -0.0563 -0.3181
  154bbb     C2 4441  10.716  12.533   8.148 -0.2261  0.1305  0.0174
  154bbb     H3 4442  10.652  12.463   8.203 -0.4774 -0.9602 -1.6001
  154bbb     H4 4443  10.735  12.500   8.045 -0.7384  0.2683 -0.1227
  154bbb     C3 4444  10.960  12.578   8.125  0.2158 -0.2683  0.4508
  154bbb     H5 4445  10.931  12.670   8.071 -0.1501 -0.3046  0.5793
  154bbb     H6 4446  10.984  12.509   8.043  1.7774 -0.7458  1.2815
  154bbb     C4 4447  11.090  12.606   8.197 -0.0234 -0.0794 -0.5137
  154bbb     H7 4448  11.130  12.507   8.225  0.5739  0.6300  1.3499
  154bbb     H8 4449  11.064  12.666   8.285 -2.9850  0.3005 -1.5554
  154bbb     C5 4450  10.781  12.383   8.407  0.7104  0.1886  0.3000
  154bbb     H9 4451  10.695  12.337   8.358  0.2867  1.1932  0.0659
  154bbb    H10 4452  10.742  12.478   8.448 -0.3855  0.1600 -0.6365
  154bbb     C6 4453  10.628  12.661   8.146  0.1973 -0.0840 -0.6725
  154bbb    H11 4454  10.528  12.624   8.117  0.7803 -1.2628 -1.2325
  154bbb    H12 4455  10.668  12.735   8.075  0.7735 -0.0793 -0.3410
  154bbb     C7 4456  11.204  12.671   8.111 -0.0696  0.5300 -0.6319
  154bbb    H13 4457  11.175  12.776   8.102  1.4572  1.3911  2.6029
  154bbb    H14 4458  11.206  12.620   8.015 -1.5596  1.1123 -0.9923
  154bbb     C8 4459  10.617  12.728   8.286 -0.6088 -0.3143  0.4172
  154bbb    H15 4460  10.714  12.763   8.322 -0.2595 -1.8561  1.0593
  154bbb    H16 4461  10.579  12.646   8.348 -0.6697 -1.1657 -0.7067
  154bbb     C9 4462  10.845  12.293   8.508  0.6821 -0.2334  0.1739
  154bbb    H17 4463  10.903  12.358   8.574  1.7590 -0.5875 -0.4045
  154bbb    H18 4464  10.912  12.226   8.453 -0.4036 -0.7577 -0.5499
  154bbb     O1 4465  11.332  12.650   8.182  0.2319 -0.0426  0.3606
  155bbb     N1 4466  12.085  13.584   6.420  0.2400  0.1818 -0.4585
  155bbb     C1 4467  12.020  13.448   6.402 -0.6358  0.4255  0.0638
  155bbb     H1 4468  11.939  13.444   6.476 -1.1281  2.7489 -0.2735
  155bbb     H2 4469  12.097  13.374   6.427 -1.9226 -0.5682  1.2582
  155bbb     C2 4470  11.994  13.697   6.400  0.5307 -0.2275  0.5787
  155bbb     H3 4471  11.925  13.698   6.485 -0.0573  1.9438  0.1393
  155bbb     H4 4472  11.929  13.702   6.311  1.4002  0.8066 -0.0299
  155bbb     C3 4473  12.176  13.590   6.536  0.0229 -0.1600 -0.0390
  155bbb     H5 4474  12.245  13.673   6.521 -1.3114  0.9716 -0.1464
  155bbb     H6 4475  12.244  13.504   6.540  0.2259  0.0306  0.8248
  155bbb     C4 4476  12.101  13.589   6.669 -0.2552  0.3429  0.1332
  155bbb     H7 4477  12.035  13.502   6.682  0.1136  0.1619  0.8558
  155bbb     H8 4478  12.039  13.679   6.678 -1.1794 -0.0676 -1.6688
  155bbb     C5 4479  11.943  13.427   6.266 -0.4191 -0.6093 -0.1374
  155bbb     H9 4480  11.858  13.494   6.252  0.4506  0.4355 -0.5803
  155bbb    H10 4481  11.903  13.325   6.267 -0.2547 -0.7130 -1.4187
  155bbb     C6 4482  12.071  13.827   6.390 -1.0940 -0.3569 -0.9874
  155bbb    H11 4483  12.137  13.844   6.476 -1.3886  0.3708 -0.8993
  155bbb    H12 4484  11.999  13.910   6.394 -0.0921  0.5157 -0.7351
  155bbb     C7 4485  12.211  13.593   6.776 -0.2189  0.6269 -0.2839
  155bbb    H13 4486  12.264  13.685   6.748 -1.6324  2.2828  2.0658
  155bbb    H14 4487  12.267  13.499   6.783 -1.6857 -0.1813  1.8851
  155bbb     C8 4488  12.162  13.838   6.262 -0.1741 -0.1861 -0.8238
  155bbb    H15 4489  12.105  13.832   6.169 -2.3581  1.3303  0.3196
  155bbb    H16 4490  12.242  13.763   6.270  0.1616  0.2067 -0.4286
  155bbb     C9 4491  12.034  13.452   6.142  1.0209 -0.1858 -0.2114
  155bbb    H17 4492  12.120  13.383   6.147 -0.5651 -2.5064 -2.4800
  155bbb    H18 4493  12.053  13.560   6.144  1.2143 -0.2234  0.0550
  155bbb     O1 4494  12.138  13.603   6.900 -0.2652 -0.1985 -0.6714
  156bbb     N1 4495  11.902  13.270   7.957 -0.4190  0.5110 -0.8925
  156bbb     C1 4496  12.010  13.357   8.000 -0.1163  0.2297  0.3623
  156bbb     H1 4497  11.977  13.439   8.064 -1.2725  0.7505 -0.8666
  156bbb     H2 4498  12.049  13.411   7.913 -1.4048  0.5650 -0.0206
  156bbb     C2 4499  11.776  13.340   7.951  0.0505  0.2607  0.7442
  156bbb     H3 4500  11.758  13.394   8.045 -1.1776  1.6069 -0.2166
  156bbb     H4 4501  11.698  13.266   7.934  0.8429 -0.4797  0.2349
  156bbb     C3 4502  11.947  13.181   7.844  0.7271 -0.7671  0.7708
  156bbb     H5 4503  12.027  13.123   7.892 -0.0332 -0.4164  2.5441
  156bbb     H6 4504  11.995  13.241   7.765  1.8301 -0.8099  1.3836
  156bbb     C4 4505  11.844  13.086   7.780  0.0886 -0.9083 -0.4765
  156bbb     H7 4506  11.745  13.133   7.778  0.3725 -0.3242 -1.9052
  156bbb     H8 4507  11.838  12.994   7.840 -0.5425 -1.6284 -1.6111
  156bbb     C5 4508  12.137  13.287   8.068  0.9010  0.2259  0.2126
  156bbb     H9 4509  12.213  13.365   8.068  0.7819  0.3451  0.4440
  156bbb    H10 4510  12.167  13.202   8.005  1.7162  0.0076  0.8834
  156bbb     C6 4511  11.765  13.429   7.825 -0.1165 -0.1662 -0.2772
  156bbb    H11 4512  11.776  13.365   7.737 -1.6332 -0.7336 -0.0889
  156bbb    H12 4513  11.851  13.497   7.814 -0.8849  0.4559 -3.3629
  156bbb     C7 4514  11.889  13.023   7.648 -0.0297  0.1121  0.5356
  156bbb    H13 4515  11.810  12.959   7.608  0.5117  0.2353 -0.7694
  156bbb    H14 4516  11.977  12.960   7.668 -0.1840 -1.0552 -2.0192
  156bbb     C8 4517  11.635  13.510   7.829 -0.5152 -0.7267 -0.2124
  156bbb    H15 4518  11.547  13.445   7.830 -0.6060 -0.6006  0.8938
  156bbb    H16 4519  11.639  13.565   7.734  1.7673  1.7125  1.1772
  156bbb     C9 4520  12.116  13.232   8.210 -0.0861 -0.0347 -0.1479
  156bbb    H17 4521  12.206  13.184   8.250  0.3006  1.3294  0.6830
  156bbb    H18 4522  12.032  13.162   8.203 -1.0690  1.2147 -1.5392
  156bbb     O1 4523  11.929  13.127   7.557 -0.0849 -0.5318  0.6173
  157bbb     N1 4524  10.400  14.377   6.431  0.0770 -0.0770 -0.4784
  157bbb     C1 4525  10.447  14.512   6.465  0.0646 -0.2265 -0.0506
  157bbb     H1 4526  10.382  14.558   6.541  0.2236  0.8577 -0.5538
  157bbb     H2 4527  10.437  14.578   6.378  0.8421 -1.1402 -0.8415
  157bbb     C2 4528  10.446  14.337   6.298 -0.8507 -0.2047 -0.7988
  157bbb     H3 4529  10.541  14.284   6.310 -0.2985  0.7900 -0.6733
  157bbb     H4 4530  10.464  14.427   6.237 -0.7899  1.1585  1.1050
  157bbb     C3 4531  10.411  14.273   6.537 -0.0020  0.4019  0.3754
  157bbb     H5 4532  10.512  14.232   6.548  0.0490  0.0732 -1.1139
  157bbb     H6 4533  10.351  14.184   6.516 -1.0719  1.2356 -0.1976
  157bbb     C4 4534  10.355  14.329   6.669  0.8447  0.2991  0.4442
  157bbb     H7 4535  10.248  14.354   6.659  1.5510  2.8179 -1.8456
  157bbb     H8 4536  10.402  14.423   6.701  4.3725 -1.5806  1.2014
  157bbb     C5 4537  10.591  14.524   6.518 -0.7111 -0.2503 -0.1701
  157bbb     H9 4538  10.665  14.496   6.442  1.2428 -1.5522  2.0659
  157bbb    H10 4539  10.602  14.459   6.606  3.1642 -0.8338 -0.9039
  157bbb     C6 4540  10.342  14.244   6.232 -0.3183  0.1708 -0.0079
  157bbb    H11 4541  10.250  14.301   6.218 -2.2088 -3.3007 -3.8181
  157bbb    H12 4542  10.323  14.163   6.304  0.2305  0.0594  0.0156
  157bbb     C7 4543  10.364  14.225   6.782 -0.5368 -0.0242  0.0763
  157bbb    H13 4544  10.325  14.128   6.748  0.6059 -1.1201  1.7557
  157bbb    H14 4545  10.298  14.251   6.866 -0.0538  0.7192  0.2326
  157bbb     C8 4546  10.385  14.189   6.091  0.6680 -0.7542 -0.9257
  157bbb    H15 4547  10.385  14.278   6.027  2.1388  0.7743  1.0470
  157bbb    H16 4548  10.311  14.117   6.055 -2.1113  1.1353  0.5826
  157bbb     C9 4549  10.631  14.670   6.557  0.2234  0.0316 -0.4331
  157bbb    H17 4550  10.740  14.681   6.553  0.2383  0.7728  1.3998
  157bbb    H18 4551  10.603  14.686   6.661  2.7100  0.1473  0.2734
  157bbb     O1 4552  10.498  14.215   6.831 -0.6835  0.9438  0.4965
  158bbb     N1 4553  10.935  14.517   6.189  0.3634  0.3788  0.1112
  158bbb     C1 4554  10.813  14.570   6.128 -0.3454 -0.0913 -0.7802
  158bbb     H1 4555  10.734  14.496   6.117 -1.6724  1.0794  0.4432
  158bbb     H2 4556  10.840  14.604   6.028  0.6328  1.8033  0.0632
  158bbb     C2 4557  11.067  14.593   6.185 -0.2735 -0.0958  0.6598
  158bbb     H3 4558  11.148  14.519   6.198 -0.2530 -0.4345 -1.1251
  158bbb     H4 4559  11.069  14.668   6.264  0.7044  1.5241 -0.8166
  158bbb     C3 4560  10.919  14.443   6.321 -0.4723 -0.6111  0.3730
  158bbb     H5 4561  10.829  14.381   6.324 -0.6940 -0.4384 -1.5272
  158bbb     H6 4562  10.912  14.524   6.395  0.1875  1.4990 -1.7052
  158bbb     C4 4563  11.027  14.348   6.363 -0.3716  0.1526 -0.4148
  158bbb     H7 4564  11.123  14.397   6.382  0.0999 -0.8560 -0.1324
  158bbb     H8 4565  11.035  14.282   6.275  0.3635  0.2453 -0.4193
  158bbb     C5 4566  10.766  14.700   6.203  0.3950 -0.0476 -0.4172
  158bbb     H9 4567  10.848  14.770   6.223  0.1692  0.2352 -0.4801
  158bbb    H10 4568  10.732  14.680   6.305 -0.3216  2.8153 -0.0146
  158bbb     C6 4569  11.093  14.675   6.060  0.0576  0.2213 -0.3471
  158bbb    H11 4570  11.018  14.755   6.056 -2.4316 -1.9905 -0.2459
  158bbb    H12 4571  11.074  14.624   5.965  1.0225  0.6543 -0.7910
  158bbb     C7 4572  10.981  14.257   6.478  1.0479 -0.5126  0.4365
  158bbb    H13 4573  11.064  14.193   6.511  1.1036 -0.5457  0.2308
  158bbb    H14 4574  10.898  14.194   6.444  2.2991 -1.0270 -1.8433
  158bbb     C8 4575  11.239  14.725   6.046  0.3030  0.3251 -0.2570
  158bbb    H15 4576  11.258  14.755   5.942  1.4009 -3.5106 -1.3232
  158bbb    H16 4577  11.309  14.642   6.061 -1.5950 -1.7646 -2.1181
  158bbb     C9 4578  10.657  14.783   6.126  0.1342 -0.4045  0.1948
  158bbb    H17 4579  10.700  14.809   6.028  1.2476 -1.3989  0.3913
  158bbb    H18 4580  10.638  14.869   6.192  1.6486 -0.1263  0.3002
  158bbb     O1 4581  10.937  14.341   6.586  0.6752  0.4506 -0.1360
  159bbb     N1 4582  13.867  10.008   5.591  0.6175  0.5832  0.1064
  159bbb     C1 4583  13.972  10.020   5.695  0.2529 -0.6492  0.0116
  159bbb     H1 4584  13.953   9.977   5.794  0.6560  0.8547  0.7706
  159bbb     H2 4585  13.988  10.125   5.720  0.4929 -1.0774  1.8143
  159bbb     C2 4586  13.834   9.865   5.563  0.1084 -0.3462  0.3436
  159bbb     H3 4587  13.931   9.813   5.554  1.3277  1.1451  3.4037
  159bbb     H4 4588  13.779   9.861   5.468  0.4430  0.1612  0.1208
  159bbb     C3 4589  13.757  10.104   5.609  1.0188 -0.5714 -0.3284
  159bbb     H5 4590  13.795  10.206   5.590  1.0865 -0.6194 -0.4470
  159bbb     H6 4591  13.714  10.097   5.709 -2.5866 -3.8140 -1.8847
  159bbb     C4 4592  13.638  10.089   5.505 -0.6497  0.1878 -0.1393
  159bbb     H7 4593  13.573  10.002   5.518  1.0636 -1.2663 -0.9056
  159bbb     H8 4594  13.689  10.064   5.412 -0.2027  0.0501  0.1373
  159bbb     C5 4595  14.116   9.981   5.650 -0.5930 -0.5243  0.0457
  159bbb     H9 4596  14.137   9.999   5.544 -0.7100  2.4682  0.4490
  159bbb    H10 4597  14.115   9.871   5.658 -0.3570 -0.6023 -0.8098
  159bbb     C6 4598  13.755   9.789   5.675  0.1981 -0.5343 -0.7984
  159bbb    H11 4599  13.666   9.841   5.713 -0.4092 -3.0653  1.5109
  159bbb    H12 4600  13.816   9.802   5.765 -1.6200  0.6492  0.3222
  159bbb     C7 4601  13.553  10.220   5.506  0.3458 -0.4269  1.2537
  159bbb    H13 4602  13.612  10.312   5.507 -1.1326  0.5702  1.4820
  159bbb    H14 4603  13.485  10.218   5.592  0.1617 -1.4489  1.1005
  159bbb     C8 4604  13.731   9.633   5.648 -0.0754  0.1479 -0.0864
  159bbb    H15 4605  13.823   9.584   5.615 -0.7541 -0.7340 -0.7111
  159bbb    H16 4606  13.655   9.623   5.570 -0.2186 -0.0867  0.0810
  159bbb     C9 4607  14.225  10.054   5.734  0.1447  0.1483 -0.5063
  159bbb    H17 4608  14.314   9.992   5.750  1.1081  1.0441 -2.1492
  159bbb    H18 4609  14.184  10.085   5.831  1.4210 -1.3972  0.5887
  159bbb     O1 4610  13.483  10.234   5.381 -0.8740  0.6920 -0.2301
  160bbb     N1 4611  13.128   9.707   5.996  0.3827  0.1265 -0.2215
  160bbb     C1 4612  13.147   9.560   5.976 -0.3461 -1.3067  0.4647
  160bbb     H1 4613  13.247   9.533   5.940 -1.0720 -0.0106 -2.8365
  160bbb     H2 4614  13.073   9.529   5.901  0.3001 -1.3989 -0.1440
  160bbb     C2 4615  12.992   9.728   6.052 -0.0107 -0.3642 -0.4605
  160bbb     H3 4616  12.986   9.686   6.154 -2.3995 -1.6421 -1.0443
  160bbb     H4 4617  12.909   9.676   6.002 -1.1866  0.2768  0.7743
  160bbb     C3 4618  13.164   9.792   5.882  0.0832 -0.2320 -0.1063
  160bbb     H5 4619  13.177   9.896   5.916 -0.1007 -0.9275  2.3163
  160bbb     H6 4620  13.084   9.804   5.807  0.4106  3.6734 -0.0639
  160bbb     C4 4621  13.303   9.760   5.811  0.3338  0.6470  0.4854
  160bbb     H7 4622  13.296   9.666   5.754  1.4108  1.2311 -0.6513
  160bbb     H8 4623  13.380   9.750   5.888  1.6636  0.9682 -0.7707
  160bbb     C5 4624  13.140   9.474   6.106 -0.1009  0.0980 -0.0657
  160bbb     H9 4625  13.037   9.471   6.143  0.4485  3.0734  2.1079
  160bbb    H10 4626  13.186   9.534   6.185  2.1266 -1.3960 -0.1334
  160bbb     C6 4627  12.952   9.872   6.072  0.1677 -0.4571  0.1095
  160bbb    H11 4628  12.941   9.917   5.973 -0.5286  0.1244  0.4490
  160bbb    H12 4629  13.043   9.922   6.108  1.0001 -2.8215  1.5748
  160bbb     C7 4630  13.325   9.879   5.714  0.0188 -0.1827 -0.2730
  160bbb    H13 4631  13.427   9.885   5.675  0.3790 -0.8741  0.5283
  160bbb    H14 4632  13.306   9.975   5.764  0.1089  0.1842 -0.9315
  160bbb     C8 4633  12.824   9.898   6.161  0.2417  0.5122  0.0678
  160bbb    H15 4634  12.746   9.838   6.112  2.1309  0.2086 -2.8052
  160bbb    H16 4635  12.799  10.004   6.153 -0.5928  0.4008  0.9450
  160bbb     C9 4636  13.201   9.335   6.103  0.0092 -0.1897 -0.6570
  160bbb    H17 4637  13.187   9.297   6.205 -0.6000  3.8120  0.9574
  160bbb    H18 4638  13.309   9.342   6.083  0.1598 -0.9996 -0.1624
  160bbb     O1 4639  13.240   9.864   5.608  0.5568 -0.4314  0.5233
  161bbb     N1 4640  12.527  11.290   5.157 -0.8533 -0.0990 -0.2124
  161bbb     C1 4641  12.550  11.438   5.157  0.4807  0.8106  0.3552
  161bbb     H1 4642  12.462  11.493   5.120  0.3348 -1.7407 -3.6477
  161bbb     H2 4643  12.636  11.465   5.095 -0.9490  0.6702 -1.8179
  161bbb     C2 4644  12.425  11.252   5.054  0.8430 -0.1701 -0.3526
  161bbb     H3 4645  12.338  11.317   5.072  1.1211 -0.2623  1.5527
  161bbb     H4 4646  12.381  11.155   5.080  3.5924 -1.2102  0.8410
  161bbb     C3 4647  12.659  11.214   5.159 -0.0786 -0.4392  0.1472
  161bbb     H5 4648  12.703  11.256   5.251 -0.9539 -1.5580  1.1139
  161bbb     H6 4649  12.724  11.237   5.074  2.7700 -0.4189  2.2023
  161bbb     C4 4650  12.652  11.056   5.181  0.3806  0.7569  0.3713
  161bbb     H7 4651  12.643  11.001   5.086 -0.6273 -0.8829  1.3676
  161bbb     H8 4652  12.564  11.023   5.237 -2.2496  0.2254 -3.6591
  161bbb     C5 4653  12.577  11.502   5.296  0.0316  0.7493 -0.1250
  161bbb     H9 4654  12.587  11.418   5.366  0.9679  0.0179 -1.0905
  161bbb    H10 4655  12.491  11.563   5.324  0.8118  1.0676  1.7035
  161bbb     C6 4656  12.466  11.251   4.903  0.2205 -0.4528 -0.0582
  161bbb    H11 4657  12.556  11.189   4.893  0.8209  0.4939 -0.7173
  161bbb    H12 4658  12.510  11.349   4.879  0.1850 -0.7299 -1.3729
  161bbb     C7 4659  12.766  11.000   5.266  0.0986  0.2906  0.0605
  161bbb    H13 4660  12.756  10.891   5.267 -1.1665  0.3873 -0.2726
  161bbb    H14 4661  12.756  11.048   5.364  2.3017 -0.9905  0.9918
  161bbb     C8 4662  12.357  11.214   4.799 -0.1793 -0.2769 -0.7777
  161bbb    H15 4663  12.338  11.106   4.796  0.6005 -0.4719  0.5759
  161bbb    H16 4664  12.258  11.253   4.826 -0.1533 -0.6941 -0.0696
  161bbb     C9 4665  12.703  11.590   5.301 -0.2304  0.0882  0.1500
  161bbb    H17 4666  12.686  11.673   5.231 -2.1905  0.3498  0.8841
  161bbb    H18 4667  12.787  11.530   5.264 -1.0848  0.1447 -2.0222
  161bbb     O1 4668  12.894  11.040   5.205  0.1679 -0.8688 -0.1951
  162bbb     N1 4669  13.493  11.971   5.760 -0.0934  0.4519 -0.0933
  162bbb     C1 4670  13.521  12.112   5.797 -0.3134  0.2591 -0.3746
  162bbb     H1 4671  13.482  12.137   5.896 -2.3691  1.2440 -1.3712
  162bbb     H2 4672  13.472  12.186   5.732  0.2469  2.4184  1.5484
  162bbb     C2 4673  13.501  11.946   5.610  0.3278 -0.3754 -0.0314
  162bbb     H3 4674  13.585  11.995   5.559  0.2917  0.9517  1.1038
  162bbb     H4 4675  13.411  11.988   5.563 -0.2114 -2.4907 -0.9946
  162bbb     C3 4676  13.379  11.901   5.831  0.6273 -0.6724  0.1515
  162bbb     H5 4677  13.400  11.910   5.938  0.9719  1.0206 -0.0361
  162bbb     H6 4678  13.381  11.792   5.824  0.1220 -0.5943 -1.6237
  162bbb     C4 4679  13.245  11.969   5.782  0.1594 -1.0463  0.3683
  162bbb     H7 4680  13.255  12.074   5.754  0.4070 -0.8825  1.0613
  162bbb     H8 4681  13.182  11.962   5.872 -0.3266 -0.0137  0.1143
  162bbb     C5 4682  13.673  12.156   5.772  0.0308 -0.4983 -0.3103
  162bbb     H9 4683  13.729  12.085   5.710  2.4682 -0.1453  1.3387
  162bbb    H10 4684  13.712  12.162   5.874 -2.3829 -0.5249  0.6696
  162bbb     C6 4685  13.512  11.798   5.570 -0.8896 -0.7828 -0.3902
  162bbb    H11 4686  13.414  11.749   5.568 -0.9980 -0.6059  0.3955
  162bbb    H12 4687  13.571  11.744   5.645 -2.2542 -1.9769 -0.1432
  162bbb     C7 4688  13.156  11.906   5.674  0.0622 -0.0766 -0.0535
  162bbb    H13 4689  13.184  11.937   5.573 -2.5959  1.6144 -0.3804
  162bbb    H14 4690  13.054  11.941   5.692 -0.6461 -2.0450 -0.0211
  162bbb     C8 4691  13.586  11.776   5.433 -1.1901 -0.2016 -0.1594
  162bbb    H15 4692  13.641  11.681   5.431 -1.1079 -0.1953  0.9240
  162bbb    H16 4693  13.661  11.855   5.421 -1.0527  0.1488  2.4181
  162bbb     C9 4694  13.677  12.294   5.711 -0.2001 -0.7372  0.3876
  162bbb    H17 4695  13.630  12.369   5.776  1.4724  0.9324 -0.2021
  162bbb    H18 4696  13.617  12.285   5.619  1.0107  0.5960 -0.5784
  162bbb     O1 4697  13.171  11.758   5.689 -0.6311 -0.1008  0.1839
  163bbb     N1 4698  11.057  10.885   5.990  0.4472  0.7311 -0.1897
  163bbb     C1 4699  11.079  10.873   6.132  0.7111  0.1566  0.0113
  163bbb     H1 4700  10.998  10.813   6.175 -0.3179 -1.1253 -3.3854
  163bbb     H2 4701  11.067  10.971   6.180 -2.2303 -0.1647  0.1213
  163bbb     C2 4702  10.918  10.888   5.951  0.2476  0.3363 -0.6526
  163bbb     H3 4703  10.917  10.907   5.843  1.4559  1.5332 -0.4882
  163bbb     H4 4704  10.876  10.974   6.003 -2.2552 -2.0744  1.6314
  163bbb     C3 4705  11.143  10.985   5.918  0.4779  0.4615  0.0802
  163bbb     H5 4706  11.143  10.960   5.812  1.1315  1.8084 -0.2635
  163bbb     H6 4707  11.244  10.989   5.962 -0.1985  0.8746  1.6964
  163bbb     C4 4708  11.099  11.138   5.937 -0.1782  0.5939  0.8039
  163bbb     H7 4709  11.109  11.166   6.043 -1.0611 -1.4555  1.4726
  163bbb     H8 4710  10.992  11.142   5.914 -0.2439 -1.0419  0.7451
  163bbb     C5 4711  11.216  10.796   6.169 -0.6418  0.3832 -0.2648
  163bbb     H9 4712  11.251  10.821   6.270 -2.7759  0.0659  0.6136
  163bbb    H10 4713  11.301  10.816   6.103 -0.1028 -0.8114  0.0371
  163bbb     C6 4714  10.832  10.762   5.984  0.4925 -0.3026  0.3894
  163bbb    H11 4715  10.809  10.770   6.091  2.5289 -1.5317  0.9842
  163bbb    H12 4716  10.887  10.670   5.963 -0.9683 -0.8677 -1.2235
  163bbb     C7 4717  11.174  11.232   5.845  0.0035  0.4283  0.0731
  163bbb    H13 4718  11.278  11.234   5.878  0.1853 -0.3253 -0.4459
  163bbb    H14 4719  11.132  11.334   5.846  0.9907  0.8660  2.0652
  163bbb     C8 4720  10.704  10.756   5.897 -0.0127  0.5166  0.2479
  163bbb    H15 4721  10.727  10.700   5.805 -1.3623 -1.3341  0.9711
  163bbb    H16 4722  10.668  10.856   5.869 -3.2607 -0.7904 -0.7631
  163bbb     C9 4723  11.191  10.643   6.173  0.0904  0.0893  0.6830
  163bbb    H17 4724  11.287  10.590   6.184 -0.3632 -1.0754 -0.7427
  163bbb    H18 4725  11.155  10.609   6.075 -1.0660  0.8346  0.8425
  163bbb     O1 4726  11.174  11.180   5.712 -0.2058 -0.1083 -0.0660
  164bbb     N1 4727  11.286  11.209   4.787  0.1800 -0.2019  0.2331
  164bbb     C1 4728  11.147  11.218   4.834 -0.3039 -0.0134  0.5393
  164bbb     H1 4729  11.103  11.276   4.753  0.5435 -2.1864 -1.6116
  164bbb     H2 4730  11.153  11.280   4.924 -0.7282  0.1680  0.4447
  164bbb     C2 4731  11.322  11.331   4.706  0.1326 -0.3459  0.5288
  164bbb     H3 4732  11.338  11.417   4.773 -1.7767 -0.5811  1.3640
  164bbb     H4 4733  11.243  11.372   4.643 -1.0472  0.5743  2.5013
  164bbb     C3 4734  11.386  11.176   4.894  0.4943  0.4968  0.3193
  164bbb     H5 4735  11.329  11.161   4.986 -3.5138 -3.9828 -2.4675
  164bbb     H6 4736  11.452  11.262   4.913  1.0901  0.8947 -2.9565
  164bbb     C4 4737  11.464  11.046   4.868 -0.0601  0.1519  0.4530
  164bbb     H7 4738  11.500  11.043   4.764 -2.0734 -0.3247 -0.2753
  164bbb     H8 4739  11.405  10.955   4.887  0.2549 -0.4595 -1.2986
  164bbb     C5 4740  11.082  11.085   4.860  0.0752  0.6135  0.0362
  164bbb     H9 4741  11.139  11.038   4.941  0.5584 -0.0337 -0.6588
  164bbb    H10 4742  11.100  11.035   4.764 -0.2311  1.9782 -0.7581
  164bbb     C6 4743  11.450  11.312   4.624 -0.3806 -0.3524 -0.6823
  164bbb    H11 4744  11.426  11.235   4.550 -0.8642 -0.0106 -0.8919
  164bbb    H12 4745  11.528  11.273   4.690 -1.5883 -1.8518 -0.0816
  164bbb     C7 4746  11.580  11.046   4.962  0.1635  0.0078  0.0806
  164bbb    H13 4747  11.632  11.142   4.949 -0.9441  0.3517 -2.1707
  164bbb    H14 4748  11.653  10.967   4.942  0.5683  0.1272  1.0402
  164bbb     C8 4749  11.499  11.446   4.569 -0.4043 -0.0986 -0.0447
  164bbb    H15 4750  11.597  11.438   4.520 -0.8213  0.3005 -0.9640
  164bbb    H16 4751  11.506  11.525   4.646 -3.5858  1.1116 -0.8647
  164bbb     C9 4752  10.935  11.100   4.887  0.1785  0.5155 -0.0131
  164bbb    H17 4753  10.879  11.115   4.794 -0.8574 -0.9521  0.3545
  164bbb    H18 4754  10.916  11.182   4.958  0.5132 -1.1042  2.0408
  164bbb     O1 4755  11.525  11.039   5.099 -0.2387 -0.1611  0.4121
  165bbb     N1 4756  12.240  11.843   4.852 -0.0039 -0.7517  0.0395
  165bbb     C1 4757  12.231  11.954   4.958 -0.4971  0.1732  0.5494
  165bbb     H1 4758  12.201  11.927   5.060 -0.3169  0.5194  0.6948
  165bbb     H2 4759  12.167  12.031   4.914 -0.9476 -1.6737 -2.3120
  165bbb     C2 4760  12.315  11.722   4.900  0.8500 -0.4372  0.5460
  165bbb     H3 4761  12.387  11.743   4.980  2.5768 -0.6401 -0.8972
  165bbb     H4 4762  12.371  11.675   4.819  0.4377 -3.4346  1.8551
  165bbb     C3 4763  12.122  11.830   4.765  0.0148 -0.1166  0.4489
  165bbb     H5 4764  12.084  11.931   4.744  0.1514  0.3906  2.5167
  165bbb     H6 4765  12.047  11.762   4.808  1.4507 -1.1970  1.3229
  165bbb     C4 4766  12.159  11.772   4.628  0.2465  0.1091  0.0622
  165bbb     H7 4767  12.246  11.706   4.633 -0.1310 -0.4870 -0.8951
  165bbb     H8 4768  12.197  11.851   4.562 -1.4591  1.7259  0.9094
  165bbb     C5 4769  12.366  12.024   4.970  0.0950 -0.3544 -0.4560
  165bbb     H9 4770  12.374  12.083   4.878  1.3271  0.9267  0.4186
  165bbb    H10 4771  12.447  11.950   4.973  0.2073 -0.4339 -3.1528
  165bbb     C6 4772  12.216  11.607   4.946  0.2223  0.1230  0.7385
  165bbb    H11 4773  12.266  11.510   4.959 -2.1712 -1.6547 -2.1541
  165bbb    H12 4774  12.155  11.578   4.860 -0.0877  0.8705  0.7019
  165bbb     C7 4775  12.036  11.710   4.553  0.5571 -0.6621 -0.9632
  165bbb    H13 4776  12.068  11.679   4.453  0.3411  1.9773 -1.9139
  165bbb    H14 4777  11.956  11.784   4.542  0.8500  0.0083  1.0028
  165bbb     C8 4778  12.122  11.638   5.066  0.2368 -0.7899  0.5163
  165bbb    H15 4779  12.069  11.546   5.092  1.1273 -2.0846 -1.8752
  165bbb    H16 4780  12.056  11.718   5.032  2.7225  1.1927 -0.0099
  165bbb     C9 4781  12.375  12.129   5.091  0.4078  0.6477  0.0584
  165bbb    H17 4782  12.422  12.076   5.175  0.6175  0.4267 -0.1961
  165bbb    H18 4783  12.270  12.146   5.117 -0.2916  0.2960 -2.3127
  165bbb     O1 4784  11.992  11.594   4.632 -0.4341  0.4830 -0.2148
  166bbb     N1 4785  11.778  10.425   4.971  0.1251  0.0452 -0.1749
  166bbb     C1 4786  11.631  10.436   5.007 -0.3011  0.6789 -0.1053
  166bbb     H1 4787  11.574  10.409   4.917 -0.8171  1.2366  0.0443
  166bbb     H2 4788  11.602  10.540   5.028 -0.4041  0.6967 -0.3390
  166bbb     C2 4789  11.822  10.289   4.945  0.0907  0.0546  0.0965
  166bbb     H3 4790  11.746  10.228   4.895  0.9189 -1.2077  0.3218
  166bbb     H4 4791  11.842  10.229   5.035  2.5344 -2.8969 -2.1671
  166bbb     C3 4792  11.871  10.491   5.066  0.0117 -0.0852 -0.6821
  166bbb     H5 4793  11.965  10.437   5.081 -0.1046 -0.1458 -0.1416
  166bbb     H6 4794  11.833  10.480   5.169  0.9205 -1.7995 -0.4795
  166bbb     C4 4795  11.892  10.641   5.038  0.0377  0.6345  0.2594
  166bbb     H7 4796  11.950  10.690   5.118  0.1230 -0.2375  0.7448
  166bbb     H8 4797  11.791  10.684   5.039 -0.2417 -0.0068  0.7013
  166bbb     C5 4798  11.592  10.347   5.124 -0.7793 -0.3382  0.2199
  166bbb     H9 4799  11.658  10.372   5.208  0.3164 -0.6448 -0.5314
  166bbb    H10 4800  11.613  10.244   5.094  0.6489  1.0965 -4.6732
  166bbb     C6 4801  11.952  10.284   4.855  0.5031  0.4603 -0.9449
  166bbb    H11 4802  12.025  10.323   4.927 -1.4708 -1.4321  2.3592
  166bbb    H12 4803  11.944  10.346   4.765  1.8044  0.3457 -1.1603
  166bbb     C7 4804  11.958  10.664   4.903 -0.2433 -0.0474  0.3755
  166bbb    H13 4805  11.897  10.621   4.822  0.5696  0.3370 -0.4619
  166bbb    H14 4806  12.056  10.613   4.906  0.8797  2.0548  1.2040
  166bbb     C8 4807  11.985  10.131   4.823  0.7893 -0.7015  0.2454
  166bbb    H15 4808  11.904  10.082   4.768  1.3920 -2.7564  1.0995
  166bbb    H16 4809  11.976  10.070   4.913  2.5287 -0.7687  0.4078
  166bbb     C9 4810  11.440  10.344   5.170 -0.2792 -0.3117 -0.5056
  166bbb    H17 4811  11.418  10.442   5.215  2.5348  0.4104 -0.5106
  166bbb    H18 4812  11.436  10.267   5.248  0.5941 -0.1540 -0.2940
  166bbb     O1 4813  11.964  10.808   4.884  0.9120  0.5690  0.4511
  167bbb     N1 4814  13.778  11.145   7.581  0.2661  0.2000  0.1259
  167bbb     C1 4815  13.693  11.134   7.695 -0.4240 -0.4705 -0.0226
  167bbb     H1 4816  13.624  11.219   7.708  1.1592  0.9199 -0.3503
  167bbb     H2 4817  13.757  11.130   7.784 -1.5109 -0.7052  0.7741
  167bbb     C2 4818  13.885  11.247   7.605 -0.1634 -0.3128  0.6376
  167bbb     H3 4819  13.964  11.220   7.534  0.2895 -2.3955  1.8324
  167bbb     H4 4820  13.938  11.239   7.701  0.9503  1.3020  0.2047
  167bbb     C3 4821  13.717  11.151   7.448  0.3350 -0.4497 -0.5033
  167bbb     H5 4822  13.723  11.250   7.402 -0.6944  0.7215  1.7699
  167bbb     H6 4823  13.609  11.131   7.445  0.2494 -0.0015 -3.1941
  167bbb     C4 4824  13.776  11.053   7.345  0.3191  0.3972 -0.1816
  167bbb     H7 4825  13.753  10.949   7.371  0.9182  0.2064 -0.3973
  167bbb     H8 4826  13.885  11.066   7.345  0.3578  0.0734 -0.4159
  167bbb     C5 4827  13.605  11.010   7.694 -0.4293 -0.3913  0.6061
  167bbb     H9 4828  13.525  11.005   7.619 -2.9474 -0.1647  3.1344
  167bbb    H10 4829  13.547  11.012   7.786 -0.6178  2.8029  0.5140
  167bbb     C6 4830  13.847  11.401   7.573  0.1254  1.1400  0.3616
  167bbb    H11 4831  13.749  11.411   7.622  0.5880  1.9813  1.1380
  167bbb    H12 4832  13.836  11.422   7.466  0.4254 -0.0622  0.0824
  167bbb     C7 4833  13.729  11.082   7.196 -0.3101 -0.0244 -0.3885
  167bbb    H13 4834  13.793  11.050   7.114  1.2911 -0.9067  1.1311
  167bbb    H14 4835  13.722  11.191   7.190  2.6923  0.2919  0.4686
  167bbb     C8 4836  13.943  11.489   7.651  0.0756  0.3233 -0.4309
  167bbb    H15 4837  13.962  11.457   7.754 -2.9822 -1.5619 -0.3273
  167bbb    H16 4838  13.890  11.585   7.652 -0.1998  0.2297 -2.2958
  167bbb     C9 4839  13.688  10.880   7.688 -0.1430  0.7178  0.0591
  167bbb    H17 4840  13.760  10.874   7.771 -0.6657 -0.5261  0.4426
  167bbb    H18 4841  13.746  10.883   7.595  0.6521 -1.5921  0.4178
  167bbb     O1 4842  13.596  11.011   7.187 -0.2439 -0.6850  0.5030
  168bbb     N1 4843  13.862  10.233   7.313  0.2885 -0.1723  0.5195
  168bbb     C1 4844  13.939  10.261   7.187  0.4741 -0.6623  0.4438
  168bbb     H1 4845  13.949  10.369   7.172 -3.8857  0.2525  2.7137
  168bbb     H2 4846  13.872  10.241   7.102 -0.0323 -1.7003  1.0728
  168bbb     C2 4847  13.936  10.255   7.439  0.0278 -0.3098 -0.7011
  168bbb     H3 4848  14.018  10.183   7.446  0.1143 -0.3420 -1.8977
  168bbb     H4 4849  13.874  10.233   7.527 -0.5233  2.0596 -0.4162
  168bbb     C3 4850  13.734  10.303   7.298  0.2817 -0.3200 -0.4319
  168bbb     H5 4851  13.676  10.250   7.222 -0.7167  1.1985 -0.7857
  168bbb     H6 4852  13.752  10.404   7.259 -0.0922  0.2377  0.7949
  168bbb     C4 4853  13.645  10.313   7.425  0.0683 -0.2313  0.5280
  168bbb     H7 4854  13.690  10.380   7.499 -0.8857 -0.9670  1.8370
  168bbb     H8 4855  13.637  10.212   7.469 -0.7210 -0.2388  0.3721
  168bbb     C5 4856  14.074  10.193   7.162 -0.4631 -0.3566 -0.1326
  168bbb     H9 4857  14.044  10.087   7.168 -1.5879 -0.0433  0.1189
  168bbb    H10 4858  14.158  10.213   7.229  1.8420 -4.3466 -1.4722
  168bbb     C6 4859  13.985  10.407   7.462  0.7597 -0.0701  0.0745
  168bbb    H11 4860  13.893  10.467   7.470 -0.1059 -1.2884 -0.4863
  168bbb    H12 4861  14.038  10.434   7.369 -0.9542 -0.5130 -1.0775
  168bbb     C7 4862  13.513  10.377   7.389 -0.2706  0.6168 -0.3050
  168bbb    H13 4863  13.452  10.384   7.479  0.3672 -4.1548  0.7689
  168bbb    H14 4864  13.460  10.316   7.315 -2.9388  1.8456  0.5052
  168bbb     C8 4865  14.077  10.421   7.579  0.4324 -0.7269 -0.2704
  168bbb    H15 4866  14.180  10.388   7.561  0.7805 -0.6093  1.2881
  168bbb    H16 4867  14.042  10.356   7.660  1.1263 -1.4195 -0.5133
  168bbb     C9 4868  14.128  10.213   7.021 -0.4194 -0.0778  0.2886
  168bbb    H17 4869  14.072  10.167   6.939 -1.1920  0.3174  0.5850
  168bbb    H18 4870  14.224  10.159   7.021 -0.3864 -0.0906  2.2619
  168bbb     O1 4871  13.551  10.506   7.346 -0.0976  0.0352 -0.9076
  169bbb     N1 4872  12.692   9.494   5.722 -0.1967 -0.1343  0.1817
  169bbb     C1 4873  12.551   9.480   5.676  0.5371  0.7914 -0.2409
  169bbb     H1 4874  12.519   9.553   5.600 -0.8713 -0.1686 -0.6069
  169bbb     H2 4875  12.474   9.477   5.754  1.2891 -3.5794  0.5896
  169bbb     C2 4876  12.725   9.626   5.781  0.6078  0.6422  0.5325
  169bbb     H3 4877  12.834   9.627   5.779  0.6205  2.5429  0.0664
  169bbb     H4 4878  12.689   9.631   5.885  0.1594 -2.1241  0.5800
  169bbb     C3 4879  12.749   9.387   5.802  0.3766 -0.1552 -0.2990
  169bbb     H5 4880  12.852   9.418   5.825  0.6928 -0.6781 -0.9553
  169bbb     H6 4881  12.745   9.296   5.742  2.8464 -0.9095  0.5414
  169bbb     C4 4882  12.672   9.368   5.937  0.0286 -0.8848 -0.5371
  169bbb     H7 4883  12.571   9.332   5.914  0.1000 -1.0787 -0.5459
  169bbb     H8 4884  12.663   9.463   5.992  0.3767 -1.4992  0.6187
  169bbb     C5 4885  12.522   9.351   5.591 -0.2495 -0.4722 -0.7342
  169bbb     H9 4886  12.414   9.351   5.569 -0.4423  0.3795  0.1200
  169bbb    H10 4887  12.544   9.259   5.645 -0.4209 -1.2330 -1.9288
  169bbb     C6 4888  12.671   9.742   5.692 -0.0276 -0.5408  0.3357
  169bbb    H11 4889  12.562   9.749   5.699 -0.0492 -0.3042 -0.1930
  169bbb    H12 4890  12.703   9.720   5.589  0.4731 -2.4572  0.8649
  169bbb     C7 4891  12.742   9.267   6.030  0.2826  0.3787  0.2803
  169bbb    H13 4892  12.848   9.293   6.039  0.7830 -1.1536 -0.6568
  169bbb    H14 4893  12.732   9.175   5.971 -1.5717  0.5345  0.2710
  169bbb     C8 4894  12.742   9.871   5.736  0.3389 -0.0009  1.1549
  169bbb    H15 4895  12.850   9.868   5.759  1.0842  4.3067 -0.6965
  169bbb    H16 4896  12.689   9.903   5.826  0.0450  0.5054  0.8044
  169bbb     C9 4897  12.592   9.351   5.447  0.2193  0.2460  0.4854
  169bbb    H17 4898  12.698   9.374   5.461  0.1703  0.4877  0.4695
  169bbb    H18 4899  12.542   9.431   5.390  0.7693  0.4143  0.2268
  169bbb     O1 4900  12.677   9.257   6.162 -0.0043 -0.6596  0.6386
  170bbb     N1 4901  13.543   9.904   6.288  0.1504 -0.4304  0.2452
  170bbb     C1 4902  13.479  10.024   6.350  0.1881 -0.0441 -0.6361
  170bbb     H1 4903  13.370  10.015   6.355  0.1561 -0.9362 -2.1875
  170bbb     H2 4904  13.500  10.110   6.286  1.0839 -1.5368 -2.4445
  170bbb     C2 4905  13.521   9.889   6.137 -0.2091 -0.2888  0.0499
  170bbb     H3 4906  13.536   9.989   6.094 -0.4028  0.3851  1.4882
  170bbb     H4 4907  13.418   9.857   6.119 -0.2432 -0.3068  0.2683
  170bbb     C3 4908  13.528   9.774   6.365 -0.3617 -0.7847  0.2267
  170bbb     H5 4909  13.576   9.805   6.459 -2.4508  2.5723  0.3581
  170bbb     H6 4910  13.587   9.694   6.320 -0.1117 -0.1010 -0.6959
  170bbb     C4 4911  13.388   9.723   6.388 -0.1841 -0.7659 -0.6441
  170bbb     H7 4912  13.331   9.725   6.294  0.3944  0.7636 -0.9896
  170bbb     H8 4913  13.339   9.787   6.462 -1.2615  0.0666 -2.0415
  170bbb     C5 4914  13.531  10.053   6.491  0.1712  0.4439 -0.0803
  170bbb     H9 4915  13.638  10.029   6.481 -0.2468 -1.4368 -0.5989
  170bbb    H10 4916  13.504   9.973   6.560 -0.1625 -1.1654 -1.9662
  170bbb     C6 4917  13.634   9.805   6.067  0.3063 -0.4314 -0.7309
  170bbb    H11 4918  13.615   9.794   5.959  0.1225  0.1216 -0.7543
  170bbb    H12 4919  13.636   9.698   6.093  3.2144 -0.5316 -1.0092
  170bbb     C7 4920  13.391   9.583   6.447  0.3824  0.4204 -0.0333
  170bbb    H13 4921  13.462   9.583   6.530  1.9792  2.3368 -1.3191
  170bbb    H14 4922  13.423   9.510   6.371 -1.0762 -1.2034  0.8491
  170bbb     C8 4923  13.776   9.865   6.082  0.2028 -0.2822  0.3795
  170bbb    H15 4924  13.781   9.887   6.190  0.3197  1.9139 -0.0220
  170bbb    H16 4925  13.790   9.959   6.028 -0.7771 -0.0489  0.5092
  170bbb     C9 4926  13.487  10.184   6.544 -0.2272  0.1847  0.3585
  170bbb    H17 4927  13.522  10.257   6.469  1.0177  1.0325  1.7014
  170bbb    H18 4928  13.548  10.212   6.631  2.1184  2.1093 -1.7272
  170bbb     O1 4929  13.259   9.543   6.504 -0.1710 -0.0663  0.2546
  171bbb     N1 4930  10.874  11.187   6.968  0.0502 -0.4445 -0.4277
  171bbb     C1 4931  10.925  11.323   6.950  0.3477  0.3971  1.1762
  171bbb     H1 4932  11.008  11.326   6.878 -0.2125  2.4452  0.5441
  171bbb     H2 4933  10.970  11.351   7.046  0.4564 -0.7980  1.4890
  171bbb     C2 4934  10.778  11.171   7.084  0.2741  0.0948 -0.1877
  171bbb     H3 4935  10.727  11.268   7.082  0.0151 -0.0114  0.7119
  171bbb     H4 4936  10.838  11.163   7.176 -0.7010  0.3840  0.4852
  171bbb     C3 4937  10.979  11.082   6.969 -0.2117 -0.1746 -0.2611
  171bbb     H5 4938  11.026  11.102   6.872  0.6340  0.6822  0.2943
  171bbb     H6 4939  10.944  10.979   6.957 -1.3976  0.2594 -0.6125
  171bbb     C4 4940  11.081  11.098   7.077 -0.1858 -0.1756 -0.0776
  171bbb     H7 4941  11.043  11.093   7.180  0.1181  0.3021  0.0561
  171bbb     H8 4942  11.124  11.199   7.080  1.9127 -1.0031 -0.8334
  171bbb     C5 4943  10.826  11.440   6.911  0.7546 -0.9386 -0.0214
  171bbb     H9 4944  10.748  11.442   6.988  0.4028 -0.2913 -0.3795
  171bbb    H10 4945  10.775  11.418   6.816  2.4905 -0.7598 -1.0349
  171bbb     C6 4946  10.684  11.053   7.066 -0.1678 -0.2619 -0.2634
  171bbb    H11 4947  10.599  11.069   7.134 -0.8194 -2.7866 -0.4045
  171bbb    H12 4948  10.721  10.954   7.094 -0.3858 -0.0730  0.7558
  171bbb     C7 4949  11.192  10.985   7.059  0.2476  0.1668  0.0390
  171bbb    H13 4950  11.276  11.008   7.126  0.4798  1.0279 -0.5274
  171bbb    H14 4951  11.228  10.978   6.956 -1.3945  1.2471 -0.6444
  171bbb     C8 4952  10.626  11.042   6.921  0.6439  0.2945 -1.1813
  171bbb    H15 4953  10.698  10.988   6.858  1.1865  0.0185 -0.3426
  171bbb    H16 4954  10.626  11.146   6.885  1.2869  0.7463  0.0379
  171bbb     C9 4955  10.890  11.579   6.909 -0.0067 -0.4503 -0.1065
  171bbb    H17 4956  10.970  11.580   6.984  1.1422  2.9879 -1.1853
  171bbb    H18 4957  10.813  11.647   6.944 -1.0725 -2.5303  1.8244
  171bbb     O1 4958  11.139  10.865   7.110 -0.1805 -0.4895  0.0573
  172bbb     N1 4959  11.244  11.580   7.734 -0.2446 -0.2138  0.4313
  172bbb     C1 4960  11.344  11.696   7.728 -0.2099 -0.0538  0.1224
  172bbb     H1 4961  11.448  11.660   7.731 -0.0421  0.3433 -0.6766
  172bbb     H2 4962  11.330  11.756   7.819 -0.1489 -0.4241  0.3799
  172bbb     C2 4963  11.237  11.524   7.867 -0.1747  0.0993 -0.2872
  172bbb     H3 4964  11.336  11.483   7.886  0.1164  0.8015 -0.2597
  172bbb     H4 4965  11.155  11.451   7.862 -0.7643  0.7192  0.2391
  172bbb     C3 4966  11.277  11.479   7.628 -0.1884 -0.0396 -0.3512
  172bbb     H5 4967  11.361  11.415   7.657 -0.5098 -0.4780 -0.3812
  172bbb     H6 4968  11.300  11.509   7.525  1.5626 -0.7257 -0.2054
  172bbb     C4 4969  11.164  11.373   7.609  0.2352 -0.0948  0.0397
  172bbb     H7 4970  11.080  11.409   7.549  0.5329  1.9243  0.7743
  172bbb     H8 4971  11.116  11.339   7.702  2.2467 -1.4247  0.6605
  172bbb     C5 4972  11.320  11.796   7.610 -0.3517  1.3119  0.6017
  172bbb     H9 4973  11.351  11.758   7.511  0.5363  1.9450  0.6283
  172bbb    H10 4974  11.400  11.867   7.633  4.0856 -3.3622  1.5106
  172bbb     C6 4975  11.199  11.617   7.986 -0.5786 -0.0752 -0.2474
  172bbb    H11 4976  11.116  11.687   7.971 -1.1366 -0.0383  2.4580
  172bbb    H12 4977  11.281  11.682   8.017  0.0372 -0.0462 -1.8273
  172bbb     C7 4978  11.219  11.245   7.530 -0.2282 -0.5340  0.4532
  172bbb    H13 4979  11.269  11.293   7.445  1.1608 -0.3732  1.3393
  172bbb    H14 4980  11.141  11.177   7.493  0.2166  0.1900 -2.0114
  172bbb     C8 4981  11.146  11.515   8.105  0.0434 -0.8819  0.1647
  172bbb    H15 4982  11.217  11.434   8.123  0.0524 -0.8516  0.2670
  172bbb    H16 4983  11.054  11.472   8.064 -0.7493  2.3242 -1.8458
  172bbb     C9 4984  11.176  11.849   7.609  0.7580 -0.0936 -0.5226
  172bbb    H17 4985  11.155  11.893   7.707 -1.2618 -0.9188 -0.5252
  172bbb    H18 4986  11.106  11.770   7.577 -2.2648  2.3555 -0.4838
  172bbb     O1 4987  11.316  11.175   7.614 -0.3753 -0.4924  0.0831
  173bbb     N1 4988  11.382   9.719   5.952 -0.5989  0.7760  0.3222
  173bbb     C1 4989  11.390   9.608   5.850 -0.2327 -0.3534 -0.3039
  173bbb     H1 4990  11.450   9.522   5.882  1.0736  0.4481 -0.5271
  173bbb     H2 4991  11.457   9.650   5.774  0.4891 -1.3628 -0.2445
  173bbb     C2 4992  11.311   9.673   6.079 -0.3093  0.2917 -1.0065
  173bbb     H3 4993  11.228   9.605   6.056  0.3753 -1.0680  0.3775
  173bbb     H4 4994  11.276   9.765   6.127 -0.8401 -0.2312 -0.3696
  173bbb     C3 4995  11.510   9.795   5.966 -0.0893 -0.6500  0.5153
  173bbb     H5 4996  11.536   9.843   5.871 -2.4265 -1.2797 -0.4978
  173bbb     H6 4997  11.589   9.722   5.988  0.3924 -0.6230 -1.0406
  173bbb     C4 4998  11.503   9.904   6.075 -0.4486  0.4014 -0.0553
  173bbb     H7 4999  11.467   9.875   6.174  2.5926  1.6798  1.5457
  173bbb     H8 5000  11.442   9.985   6.031  1.9993  1.7822 -1.1266
  173bbb     C5 5001  11.263   9.570   5.775  0.0379 -0.2071 -0.4065
  173bbb     H9 5002  11.193   9.522   5.845  0.0008  1.1086  0.4863
  173bbb    H10 5003  11.295   9.491   5.705  2.8921  0.4777 -0.0052
  173bbb     C6 5004  11.412   9.583   6.172 -0.2507  0.1714  0.0795
  173bbb    H11 5005  11.478   9.656   6.221 -0.1046  0.2889 -0.2877
  173bbb    H12 5006  11.481   9.522   6.113 -0.7815 -1.4978  1.1066
  173bbb     C7 5007  11.648   9.949   6.100 -0.4868 -0.4925 -0.2718
  173bbb    H13 5008  11.624  10.038   6.158 -0.2127 -0.6245  0.0520
  173bbb    H14 5009  11.703   9.970   6.008 -1.8786 -3.0523 -1.8174
  173bbb     C8 5010  11.320   9.488   6.257  0.2214  0.3682 -1.0847
  173bbb    H15 5011  11.384   9.425   6.319 -0.3801  0.7127 -0.0861
  173bbb    H16 5012  11.262   9.424   6.190  1.5723 -2.8599  0.6357
  173bbb     C9 5013  11.189   9.678   5.697  0.2423 -0.0117  0.2547
  173bbb    H17 5014  11.095   9.629   5.671 -0.0805  0.6745  0.0963
  173bbb    H18 5015  11.247   9.714   5.612  0.8320 -1.7509 -0.1107
  173bbb     O1 5016  11.711   9.845   6.185 -0.2994  0.0752 -0.8780
  174bbb     N1 5017  12.227   9.122   6.199 -0.4280 -0.1215 -0.0135
  174bbb     C1 5018  12.238   9.082   6.056  0.4342 -0.7087 -0.2455
  174bbb     H1 5019  12.154   9.019   6.024  1.6735 -1.9362 -1.1789
  174bbb     H2 5020  12.332   9.027   6.048  0.3612 -0.7118 -1.1894
  174bbb     C2 5021  12.342   9.207   6.233  0.7537  0.8491 -0.7767
  174bbb     H3 5022  12.328   9.306   6.188 -0.4089  1.7654  1.4620
  174bbb     H4 5023  12.436   9.164   6.196  1.2536  0.6929  0.6261
  174bbb     C3 5024  12.093   9.177   6.240  1.3334 -0.1665  0.3506
  174bbb     H5 5025  12.080   9.278   6.199  1.5828  0.3837  1.5520
  174bbb     H6 5026  12.096   9.191   6.349  1.3072 -1.6901  0.5632
  174bbb     C4 5027  11.976   9.078   6.202 -1.3450  0.1968  0.1116
  174bbb     H7 5028  12.004   8.974   6.226  2.0459  0.7383 -0.9777
  174bbb     H8 5029  11.967   9.077   6.093 -0.8077  0.8343  0.0592
  174bbb     C5 5030  12.231   9.189   5.946  0.0726 -0.2698 -0.2061
  174bbb     H9 5031  12.327   9.241   5.954 -0.5861  1.1966 -1.1947
  174bbb    H10 5032  12.165   9.274   5.968  0.9493  0.4452 -0.2894
  174bbb     C6 5033  12.375   9.235   6.390  0.0887  0.1944 -0.2343
  174bbb    H11 5034  12.302   9.304   6.434  0.5341 -0.0617  0.9445
  174bbb    H12 5035  12.467   9.294   6.399  1.3614 -1.3122 -2.4486
  174bbb     C7 5036  11.858   9.113   6.283  0.1454  0.1196  0.7435
  174bbb    H13 5037  11.872   9.109   6.392  3.6826  0.3613  0.4230
  174bbb    H14 5038  11.784   9.034   6.267  0.5268  0.1426 -1.3379
  174bbb     C8 5039  12.377   9.107   6.475 -0.6900  0.0096 -0.0060
  174bbb    H15 5040  12.468   9.055   6.443 -0.9181  0.2678 -1.1148
  174bbb    H16 5041  12.285   9.053   6.448 -1.4345  1.0636  0.3260
  174bbb     C9 5042  12.218   9.132   5.804 -0.1702 -0.0930  1.0759
  174bbb    H17 5043  12.188   9.207   5.729 -0.7984 -2.2864 -0.9740
  174bbb    H18 5044  12.149   9.048   5.803 -1.6094  1.0365 -0.5348
  174bbb     O1 5045  11.820   9.245   6.251 -0.2334 -0.6094 -0.1554
  175bbb     N1 5046  13.895  13.289   7.433  0.1367 -0.2511  0.0961
  175bbb     C1 5047  14.027  13.227   7.439 -0.1028  0.0989  0.4385
  175bbb     H1 5048  14.101  13.304   7.463 -0.9472  0.6460  1.3822
  175bbb     H2 5049  14.053  13.188   7.340  1.8763 -1.5691  1.5104
  175bbb     C2 5050  13.883  13.399   7.327 -0.7903  0.6807 -0.2770
  175bbb     H3 5051  13.907  13.352   7.230 -3.2844 -0.9621 -0.2014
  175bbb     H4 5052  13.958  13.475   7.350  0.4129 -0.5840  0.1605
  175bbb     C3 5053  13.831  13.324   7.568 -0.0992  0.7136 -0.2121
  175bbb     H5 5054  13.836  13.235   7.632 -0.0472  1.7260  1.2377
  175bbb     H6 5055  13.724  13.345   7.581 -0.6038 -1.0139 -1.2109
  175bbb     C4 5056  13.905  13.439   7.643  0.5220  0.7228 -0.9662
  175bbb     H7 5057  13.891  13.536   7.595  0.1554  2.3921  2.2801
  175bbb     H8 5058  14.012  13.411   7.649  0.0592 -1.2421 -1.0178
  175bbb     C5 5059  14.050  13.110   7.538 -0.6459 -0.3787 -0.1956
  175bbb     H9 5060  13.975  13.030   7.537 -0.8287 -0.2138 -0.0014
  175bbb    H10 5061  14.051  13.145   7.642  2.3020  0.2755 -0.3700
  175bbb     C6 5062  13.740  13.449   7.297 -0.4291  0.5519 -0.5082
  175bbb    H11 5063  13.743  13.523   7.215 -1.9644 -1.8779 -2.9416
  175bbb    H12 5064  13.703  13.494   7.389 -2.1960  0.1009 -0.9654
  175bbb     C7 5065  13.866  13.458   7.790 -0.9554  0.8638 -0.1459
  175bbb    H13 5066  13.762  13.492   7.801 -1.1143  0.0701  0.9241
  175bbb    H14 5067  13.930  13.537   7.832  1.7461 -0.7481 -0.9849
  175bbb     C8 5068  13.632  13.344   7.281 -0.2893 -0.9691 -0.6717
  175bbb    H15 5069  13.532  13.388   7.274  0.2616  0.5529  0.3770
  175bbb    H16 5070  13.644  13.280   7.369  0.6203  1.1115  0.8146
  175bbb     C9 5071  14.186  13.041   7.507 -0.6394  0.0370 -0.3580
  175bbb    H17 5072  14.268  13.114   7.517  0.2254 -0.7518 -1.4087
  175bbb    H18 5073  14.184  13.005   7.404 -0.1703 -0.5061 -0.1907
  175bbb     O1 5074  13.880  13.325   7.867  0.2443 -0.0073 -0.0183
  176bbb     N1 5075  13.015  13.451   8.278  0.0218 -0.3520  0.3611
  176bbb     C1 5076  12.890  13.373   8.281  0.6885 -0.0195  0.3127
  176bbb     H1 5077  12.868  13.351   8.386 -0.6080  1.6176  0.4129
  176bbb     H2 5078  12.902  13.281   8.223  0.8179 -2.2635  3.6310
  176bbb     C2 5079  13.004  13.587   8.353 -1.1570  0.5621 -0.1693
  176bbb     H3 5080  12.916  13.636   8.309 -0.3365  1.6806 -0.5844
  176bbb     H4 5081  13.090  13.652   8.335 -0.4787 -0.3783 -0.3847
  176bbb     C3 5082  13.121  13.358   8.309 -0.0573  0.4084  0.0726
  176bbb     H5 5083  13.106  13.273   8.240 -0.1343  0.4657  0.0194
  176bbb     H6 5084  13.104  13.318   8.409  0.0495 -1.2780 -0.5365
  176bbb     C4 5085  13.261  13.414   8.289  1.1535 -1.0013  0.5283
  176bbb     H7 5086  13.271  13.506   8.348 -0.6784  0.2530 -0.9629
  176bbb     H8 5087  13.268  13.444   8.183 -0.6224 -1.1086  0.3493
  176bbb     C5 5088  12.764  13.435   8.211 -0.3110 -0.5312  0.0437
  176bbb     H9 5089  12.785  13.457   8.105  1.6359 -3.5475 -0.3174
  176bbb    H10 5090  12.738  13.531   8.257  0.9344 -1.2937  2.5165
  176bbb     C6 5091  12.979  13.580   8.505  0.9028  0.3544  0.3230
  176bbb    H11 5092  12.888  13.522   8.528  0.4412  1.2542  0.8260
  176bbb    H12 5093  12.950  13.678   8.545  2.2362  0.1594  1.8257
  176bbb     C7 5094  13.376  13.318   8.321  0.6877 -0.4289 -0.1284
  176bbb    H13 5095  13.363  13.287   8.426  1.7379 -1.7750 -0.3721
  176bbb    H14 5096  13.467  13.379   8.317 -0.5460  1.8446  2.9592
  176bbb     C8 5097  13.099  13.532   8.586  0.2310 -0.3488 -0.1825
  176bbb    H15 5098  13.173  13.613   8.586  0.4592 -0.3563 -4.1823
  176bbb    H16 5099  13.150  13.445   8.543  0.0266  0.7189 -2.7861
  176bbb     C9 5100  12.642  13.344   8.224  0.0222  0.0932  0.7027
  176bbb    H17 5101  12.665  13.241   8.192 -0.3910 -0.0996  1.0252
  176bbb    H18 5102  12.562  13.381   8.159 -0.8326 -0.3668  1.4709
  176bbb     O1 5103  13.377  13.208   8.230 -0.1107 -0.1442 -0.3805
  177bbb     N1 5104  12.684  13.635   6.636 -0.2431 -0.2003 -0.4456
  177bbb     C1 5105  12.653  13.780   6.609  0.6923  0.2356 -0.0687
  177bbb     H1 5106  12.544  13.788   6.616  0.7031 -0.0124  0.4500
  177bbb     H2 5107  12.677  13.820   6.510 -1.0461 -0.0049 -0.6187
  177bbb     C2 5108  12.624  13.573   6.759 -0.4706  0.1944  0.6352
  177bbb     H3 5109  12.518  13.590   6.738  0.2496  1.2070 -2.8938
  177bbb     H4 5110  12.656  13.625   6.851  1.8037  1.2786 -0.6828
  177bbb     C3 5111  12.828  13.604   6.623  0.1905 -0.2307  0.2066
  177bbb     H5 5112  12.852  13.498   6.612  2.9114  0.2005  1.1506
  177bbb     H6 5113  12.890  13.642   6.705 -0.1070 -0.5842  0.5974
  177bbb     C4 5114  12.884  13.662   6.488 -0.0089  0.5443  0.5164
  177bbb     H7 5115  12.890  13.771   6.487 -4.2230  0.9090 -0.3982
  177bbb     H8 5116  12.818  13.628   6.408  1.3254 -1.2616  0.1084
  177bbb     C5 5117  12.712  13.879   6.710  0.2459  0.1471 -0.2562
  177bbb     H9 5118  12.819  13.893   6.686 -0.3932  0.7139 -3.1653
  177bbb    H10 5119  12.707  13.838   6.812  0.5551 -1.4103 -0.8293
  177bbb     C6 5120  12.660  13.422   6.777 -0.6460 -0.1782 -0.0552
  177bbb    H11 5121  12.767  13.409   6.797 -0.8750 -0.5565  0.9352
  177bbb    H12 5122  12.629  13.358   6.693  0.6391  1.6711 -2.0405
  177bbb     C7 5123  13.020  13.600   6.452 -0.4935  0.3963 -0.9047
  177bbb    H13 5124  13.072  13.607   6.549 -0.6019  2.5407 -0.9448
  177bbb    H14 5125  13.086  13.657   6.385  0.7624 -0.6996 -0.6513
  177bbb     C8 5126  12.606  13.365   6.907  0.4281 -0.4982 -0.4955
  177bbb    H15 5127  12.623  13.448   6.977 -0.1381  0.2959 -1.2657
  177bbb    H16 5128  12.669  13.279   6.930  1.1894 -0.1050 -1.0710
  177bbb     C9 5129  12.644  14.018   6.718  0.1897  0.6308 -0.1942
  177bbb    H17 5130  12.688  14.079   6.638 -1.2485  2.1354  0.1355
  177bbb    H18 5131  12.680  14.076   6.804 -0.1262  0.0601  0.3307
  177bbb     O1 5132  13.009  13.465   6.406 -0.0426  0.1180  0.1360
  178bbb     N1 5133  12.635  13.673   7.360  0.2171 -0.4440  0.5340
  178bbb     C1 5134  12.529  13.585   7.308  0.2184 -0.5949 -0.6689
  178bbb     H1 5135  12.543  13.587   7.199  0.5702  0.2335 -0.6159
  178bbb     H2 5136  12.431  13.632   7.326  1.2528  1.2202  0.5239
  178bbb     C2 5137  12.623  13.704   7.506  0.0628 -0.1714 -0.1880
  178bbb     H3 5138  12.660  13.617   7.563  0.2830  0.4788  0.6749
  178bbb     H4 5139  12.518  13.712   7.534  0.0868  0.4929 -0.2694
  178bbb     C3 5140  12.773  13.647   7.322 -0.2780  0.0861  0.1360
  178bbb     H5 5141  12.826  13.575   7.385  0.3232  0.3747 -0.0395
  178bbb     H6 5142  12.828  13.740   7.334  0.6385 -0.4880  0.4973
  178bbb     C4 5143  12.784  13.606   7.174 -0.3224 -0.7877 -0.1109
  178bbb     H7 5144  12.730  13.675   7.109  0.3431  0.8083  0.9761
  178bbb     H8 5145  12.740  13.511   7.140 -0.5043 -0.4257 -0.9045
  178bbb     C5 5146  12.536  13.445   7.367 -0.2175  0.1468  0.4098
  178bbb     H9 5147  12.517  13.441   7.475 -0.3261 -3.1151  0.3676
  178bbb    H10 5148  12.642  13.414   7.369 -0.6612 -1.5166 -0.3441
  178bbb     C6 5149  12.702  13.835   7.547 -0.0879  0.3403  1.6253
  178bbb    H11 5150  12.642  13.915   7.503 -1.3297 -0.8226  1.1183
  178bbb    H12 5151  12.808  13.831   7.517 -0.1846  0.4419  1.2583
  178bbb     C7 5152  12.933  13.602   7.126  0.3590  0.1197  0.5987
  178bbb    H13 5153  13.003  13.574   7.205  0.9385  1.1556  0.4568
  178bbb    H14 5154  12.971  13.700   7.096  1.2540 -0.7656 -1.3397
  178bbb     C8 5155  12.706  13.861   7.696  0.2668  0.3905  0.4147
  178bbb    H15 5156  12.600  13.863   7.723  0.0320 -0.3145 -0.4164
  178bbb    H16 5157  12.744  13.961   7.720  0.2158  1.4750 -3.3659
  178bbb     C9 5158  12.461  13.332   7.296  1.2045 -0.1761  0.0936
  178bbb    H17 5159  12.499  13.332   7.193 -0.2547  2.0702 -0.5232
  178bbb    H18 5160  12.354  13.356   7.295  1.1630 -0.2450  1.2234
  178bbb     O1 5161  12.942  13.519   7.010 -0.4480 -0.1784  0.5296
  179bbb     N1 5162  13.620  11.919   6.700 -0.4603  0.7002  0.0803
  179bbb     C1 5163  13.609  11.779   6.749  0.7195 -0.1459 -0.1383
  179bbb     H1 5164  13.503  11.758   6.765 -0.2369  4.8646  1.7630
  179bbb     H2 5165  13.665  11.771   6.843  0.7370 -0.5120 -0.1790
  179bbb     C2 5166  13.751  11.973   6.669  0.2550  0.4745  0.5333
  179bbb     H3 5167  13.834  11.902   6.669 -1.5213 -1.7804 -0.9470
  179bbb     H4 5168  13.778  12.051   6.741 -2.1092  0.3236  1.7067
  179bbb     C3 5169  13.519  12.013   6.743 -0.4671  0.1742  0.1577
  179bbb     H5 5170  13.556  12.114   6.724 -0.1320  0.0052 -0.1194
  179bbb     H6 5171  13.510  12.013   6.852 -4.1660  0.4337 -0.0409
  179bbb     C4 5172  13.381  11.985   6.686  0.5054  0.6409 -0.7901
  179bbb     H7 5173  13.342  11.903   6.748  3.6626  1.2769  2.3799
  179bbb     H8 5174  13.383  11.959   6.580  0.0921 -1.0920 -0.4183
  179bbb     C5 5175  13.664  11.677   6.642  0.0428  0.2921  0.2472
  179bbb     H9 5176  13.668  11.578   6.689 -2.0479 -0.6183 -1.3558
  179bbb    H10 5177  13.761  11.709   6.603 -0.3248 -0.8605 -1.7508
  179bbb     C6 5178  13.753  12.020   6.531 -0.1676 -0.3507  0.7100
  179bbb    H11 5179  13.662  12.074   6.503  0.2499  0.1716  0.3100
  179bbb    H12 5180  13.733  11.933   6.469  0.9820  0.9671 -1.6630
  179bbb     C7 5181  13.286  12.096   6.700 -0.6481 -0.5873  0.5004
  179bbb    H13 5182  13.323  12.176   6.635 -2.7483 -0.6571 -0.8959
  179bbb    H14 5183  13.276  12.128   6.805  0.8016 -0.0383  0.5003
  179bbb     C8 5184  13.884  12.077   6.478  0.9891 -0.0451  0.0375
  179bbb    H15 5185  13.880  12.088   6.369  1.8899  0.6345  0.0590
  179bbb    H16 5186  13.964  12.004   6.494  1.1747  0.1574  0.0427
  179bbb     C9 5187  13.575  11.675   6.510  0.1307 -0.4044  0.1356
  179bbb    H17 5188  13.540  11.779   6.500 -0.5928 -0.5157  1.3360
  179bbb    H18 5189  13.478  11.624   6.515 -0.1094  0.0173 -0.1450
  179bbb     O1 5190  13.166  12.037   6.657 -0.1484  0.0108 -0.1077
  180bbb     N1 5191  13.039  12.257   5.611 -0.0851 -0.6724  0.1348
  180bbb     C1 5192  12.901  12.283   5.577 -0.3587 -0.0141 -0.0465
  180bbb     H1 5193  12.889  12.382   5.532 -0.8511  0.3434  0.8457
  180bbb     H2 5194  12.838  12.290   5.666  0.2304  0.8927  0.3129
  180bbb     C2 5195  13.123  12.235   5.494  0.9516 -0.5203 -0.5533
  180bbb     H3 5196  13.091  12.152   5.430 -0.2108  0.0089 -0.6857
  180bbb     H4 5197  13.222  12.204   5.529  0.4766 -0.9350  0.4630
  180bbb     C3 5198  13.098  12.332   5.719  0.0012 -1.0007  0.0837
  180bbb     H5 5199  13.103  12.441   5.702  2.4145 -0.8261  1.4164
  180bbb     H6 5200  13.203  12.306   5.739  0.6507  1.2800 -0.0004
  180bbb     C4 5201  13.029  12.309   5.854 -0.1442 -0.5083 -0.4026
  180bbb     H7 5202  13.027  12.202   5.874  1.5326 -0.6725 -0.9507
  180bbb     H8 5203  12.923  12.336   5.862  0.0925 -0.1050  2.3064
  180bbb     C5 5204  12.840  12.163   5.493  0.6926 -0.0590  0.4683
  180bbb     H9 5205  12.888  12.073   5.531 -0.0261 -1.1679 -1.1290
  180bbb    H10 5206  12.851  12.184   5.386  0.3086  1.2995  0.6650
  180bbb     C6 5207  13.133  12.356   5.407 -0.0507 -0.2951  0.1773
  180bbb    H11 5208  13.172  12.439   5.467 -1.6858 -0.0875  0.9806
  180bbb    H12 5209  13.037  12.391   5.368 -0.6628 -1.3289  0.7261
  180bbb     C7 5210  13.104  12.362   5.973 -0.1141 -0.4218  0.3964
  180bbb    H13 5211  13.125  12.468   5.954  0.6671 -0.7576 -0.7243
  180bbb    H14 5212  13.201  12.313   5.984 -0.3844 -0.8945  0.6940
  180bbb     C8 5213  13.222  12.341   5.283 -0.4080  0.1271  0.3345
  180bbb    H15 5214  13.196  12.420   5.210  0.1888 -0.8766 -1.0014
  180bbb    H16 5215  13.202  12.245   5.234 -0.0579  0.0815  0.2792
  180bbb     C9 5216  12.690  12.152   5.509  0.5241  0.2929  0.8362
  180bbb    H17 5217  12.657  12.136   5.612 -0.6150  0.6585  0.5439
  180bbb    H18 5218  12.662  12.074   5.437  0.6578  0.4465  0.6201
  180bbb     O1 5219  13.027  12.348   6.096 -0.3250 -0.0211  0.6294
  181bbb     N1 5220  12.145  13.592   4.996  0.3736 -0.2179  0.3246
  181bbb     C1 5221  12.065  13.712   5.040  0.3763 -0.1788 -0.2038
  181bbb     H1 5222  11.958  13.690   5.049  0.2609  1.1397  3.0571
  181bbb     H2 5223  12.082  13.792   4.966 -2.4047  2.0138  1.3222
  181bbb     C2 5224  12.127  13.567   4.850 -0.2134 -0.1844 -0.0257
  181bbb     H3 5225  12.205  13.500   4.810  0.7587  2.0038 -2.0496
  181bbb     H4 5226  12.143  13.662   4.797  1.1487  0.3386  1.2517
  181bbb     C3 5227  12.144  13.469   5.087 -0.0060 -0.9813 -0.2544
  181bbb     H5 5228  12.046  13.424   5.104 -0.2939 -1.3497 -2.6007
  181bbb     H6 5229  12.190  13.498   5.182 -1.9419  0.8503  0.1960
  181bbb     C4 5230  12.235  13.359   5.028 -0.4138  0.0743  0.1885
  181bbb     H7 5231  12.325  13.399   4.980  0.1863 -2.2450 -0.7699
  181bbb     H8 5232  12.180  13.299   4.954  1.4335 -1.5670  0.0363
  181bbb     C5 5233  12.103  13.764   5.180  0.4850 -0.8820  0.0530
  181bbb     H9 5234  12.095  13.873   5.171 -1.5494 -0.8092  1.9198
  181bbb    H10 5235  12.208  13.744   5.202  1.3843  1.5817 -1.5212
  181bbb     C6 5236  11.984  13.513   4.815 -0.1339 -0.5002  0.0774
  181bbb    H11 5237  11.912  13.594   4.829  0.0036  0.3427 -3.1546
  181bbb    H12 5238  11.956  13.423   4.873  0.3924  0.0931  1.2807
  181bbb     C7 5239  12.299  13.269   5.136 -0.0694  0.4429  0.2012
  181bbb    H13 5240  12.229  13.234   5.213 -0.2850 -0.2046 -0.2774
  181bbb    H14 5241  12.376  13.333   5.179  1.6738 -1.0245 -0.6030
  181bbb     C8 5242  11.965  13.497   4.663 -0.3873  0.8379  0.3520
  181bbb    H15 5243  11.991  13.588   4.610  0.8070  0.3544  0.0848
  181bbb    H16 5244  11.862  13.465   4.643  0.5582 -1.6416 -1.0527
  181bbb     C9 5245  12.009  13.730   5.290 -0.8012 -0.5591  0.1300
  181bbb    H17 5246  12.076  13.715   5.375 -1.0550  1.5248  0.7590
  181bbb    H18 5247  11.944  13.644   5.267 -1.1766  0.1308 -1.5411
  181bbb     O1 5248  12.374  13.158   5.085  0.1238 -0.1888 -0.3899
  182bbb     N1 5249  13.096  13.357   5.497 -0.3166  0.4471 -0.8551
  182bbb     C1 5250  12.961  13.414   5.526 -0.1905 -0.5744 -0.5174
  182bbb     H1 5251  12.898  13.329   5.555  1.6444 -2.4855 -1.8171
  182bbb     H2 5252  12.924  13.462   5.435 -3.5544 -0.8811  0.5618
  182bbb     C2 5253  13.158  13.275   5.610  0.7419 -0.0998  0.0596
  182bbb     H3 5254  13.150  13.325   5.707 -1.1051  0.1563 -0.1826
  182bbb     H4 5255  13.262  13.258   5.582  0.3196  0.4601 -2.0295
  182bbb     C3 5256  13.098  13.295   5.358  0.3209  0.0162 -0.5001
  182bbb     H5 5257  13.053  13.365   5.287 -0.5358 -0.4474 -0.4361
  182bbb     H6 5258  13.031  13.208   5.358 -1.5000  1.2282 -4.0766
  182bbb     C4 5259  13.237  13.242   5.312 -0.0332  0.8115  0.6654
  182bbb     H7 5260  13.290  13.184   5.388 -1.0712 -0.5708  0.3629
  182bbb     H8 5261  13.292  13.331   5.278 -1.3338  1.1120 -0.7460
  182bbb     C5 5262  12.969  13.525   5.632  0.3346 -1.3730  0.4549
  182bbb     H9 5263  13.059  13.517   5.695  0.8991 -1.1773 -0.3143
  182bbb    H10 5264  12.898  13.482   5.704  0.1034 -1.5209  0.1419
  182bbb     C6 5265  13.089  13.131   5.640  0.2131 -0.4543 -0.0910
  182bbb    H11 5266  13.092  13.062   5.554  0.7010 -0.6772  0.1045
  182bbb    H12 5267  12.985  13.157   5.660  0.7219  1.0363  0.7395
  182bbb     C7 5268  13.227  13.152   5.178  0.6246  0.4747  0.0185
  182bbb    H13 5269  13.329  13.118   5.158  1.2234  1.7730  0.7282
  182bbb    H14 5270  13.193  13.217   5.096 -2.0440  1.0490  1.4539
  182bbb     C8 5271  13.147  13.054   5.765  0.7333  0.4038  0.1919
  182bbb    H15 5272  13.082  12.965   5.768  0.5789  0.3688 -2.3834
  182bbb    H16 5273  13.130  13.116   5.854 -0.0157  1.1733 -0.4640
  182bbb     C9 5274  12.940  13.671   5.596  0.2428 -0.1071 -0.1283
  182bbb    H17 5275  13.033  13.720   5.563  1.3547 -1.8220  0.3069
  182bbb    H18 5276  12.912  13.729   5.685  0.4715 -0.0679 -0.0817
  182bbb     O1 5277  13.125  13.048   5.192 -0.0340 -0.3637  0.1487
  183bbb     N1 5278  12.312  10.692   7.411  0.5279 -0.8096  0.7496
  183bbb     C1 5279  12.202  10.684   7.513 -0.8764  0.2380 -0.1202
  183bbb     H1 5280  12.115  10.742   7.481 -0.6360  1.2801  1.0381
  183bbb     H2 5281  12.240  10.721   7.609  0.7338  0.8983 -0.9740
  183bbb     C2 5282  12.301  10.813   7.320  0.9144 -0.0521 -0.0508
  183bbb     H3 5283  12.403  10.848   7.298  0.4244  0.0988 -2.3452
  183bbb     H4 5284  12.249  10.886   7.383  1.4222 -1.2550  1.8490
  183bbb     C3 5285  12.445  10.645   7.457  0.1860  0.0486  0.3339
  183bbb     H5 5286  12.522  10.654   7.379  0.6684 -1.4692  0.5840
  183bbb     H6 5287  12.434  10.538   7.478  0.5347 -0.1745 -0.5704
  183bbb     C4 5288  12.504  10.705   7.583  0.4054  0.1230  0.5167
  183bbb     H7 5289  12.449  10.669   7.672 -1.6222 -2.0369 -1.4710
  183bbb     H8 5290  12.492  10.814   7.587 -1.9243 -0.1001  1.2772
  183bbb     C5 5291  12.149  10.543   7.537  0.1534  0.5358  0.0320
  183bbb     H9 5292  12.085  10.537   7.626  0.8478 -0.4941  0.4905
  183bbb    H10 5293  12.237  10.485   7.568 -0.0973  0.4616  0.6261
  183bbb     C6 5294  12.217  10.788   7.189  0.4564 -0.0744 -0.7527
  183bbb    H11 5295  12.119  10.760   7.229  0.9951 -3.0305 -1.2458
  183bbb    H12 5296  12.245  10.702   7.127  2.2914  0.0393 -0.1471
  183bbb     C7 5297  12.654  10.674   7.584  0.4562  0.6290 -0.2575
  183bbb    H13 5298  12.708  10.711   7.495 -0.3193 -0.8978 -1.4112
  183bbb    H14 5299  12.665  10.565   7.582 -0.8457  0.4595  0.5145
  183bbb     C8 5300  12.200  10.905   7.088  0.2325 -0.6045 -0.4274
  183bbb    H15 5301  12.109  10.895   7.027 -0.2476 -0.5910  0.2801
  183bbb    H16 5302  12.288  10.893   7.023  0.4537 -3.1322  0.2350
  183bbb     C9 5303  12.082  10.484   7.408 -0.1287  0.1539  0.6380
  183bbb    H17 5304  12.128  10.512   7.313 -0.4212  2.0133  1.0210
  183bbb    H18 5305  11.980  10.521   7.398 -1.9744 -4.6127 -1.0461
  183bbb     O1 5306  12.708  10.721   7.709  0.1694 -0.6146 -0.1170
  184bbb     N1 5307  12.744  11.137   7.436  0.3963  0.1743 -0.5353
  184bbb     C1 5308  12.709  11.161   7.577 -0.0741 -0.6466 -0.1602
  184bbb     H1 5309  12.645  11.077   7.608  1.3295 -1.6083  0.2606
  184bbb     H2 5310  12.667  11.261   7.591  3.4742  1.0925 -0.9924
  184bbb     C2 5311  12.642  11.194   7.349  0.5946 -0.2813 -0.0991
  184bbb     H3 5312  12.681  11.188   7.247  0.9908 -2.2310  0.1263
  184bbb     H4 5313  12.626  11.301   7.367  0.1334  0.1610 -2.7094
  184bbb     C3 5314  12.772  10.992   7.409 -0.1712  0.5652  0.7089
  184bbb     H5 5315  12.685  10.931   7.380 -0.3626  0.5381  1.3191
  184bbb     H6 5316  12.809  10.951   7.504 -2.2734 -2.2684  0.4470
  184bbb     C4 5317  12.874  10.964   7.292 -0.8480  0.0840 -0.0384
  184bbb     H7 5318  12.848  11.025   7.204 -0.8723  2.4187  1.5102
  184bbb     H8 5319  12.863  10.860   7.257 -1.4487  0.0080  0.3556
  184bbb     C5 5320  12.827  11.152   7.667  0.2734  0.0455  0.2431
  184bbb     H9 5321  12.859  11.250   7.706  1.0585 -0.2898  0.4562
  184bbb    H10 5322  12.922  11.116   7.625 -0.9288 -1.2278 -1.5646
  184bbb     C6 5323  12.500  11.142   7.337  0.2439  0.0324  0.4834
  184bbb    H11 5324  12.507  11.035   7.314  0.1783  0.1104  0.0942
  184bbb    H12 5325  12.457  11.196   7.252  1.2616  2.6359  1.5162
  184bbb     C7 5326  13.022  10.976   7.334  0.1462  0.2846  0.1510
  184bbb    H13 5327  13.049  11.073   7.378  2.6082 -0.5559  0.6455
  184bbb    H14 5328  13.087  10.971   7.246  1.1375 -1.0642  0.9097
  184bbb     C8 5329  12.417  11.155   7.466  0.3000  0.4041  0.4366
  184bbb    H15 5330  12.454  11.103   7.556  1.5291 -0.4283 -0.5147
  184bbb    H16 5331  12.320  11.107   7.445 -0.4993  1.7769  0.9004
  184bbb     C9 5332  12.793  11.079   7.798 -0.0149 -0.0514  0.1486
  184bbb    H17 5333  12.883  11.061   7.857  1.3635  2.0043 -1.1924
  184bbb    H18 5334  12.748  10.983   7.770  1.1029 -0.3910 -0.5248
  184bbb     O1 5335  13.052  10.878   7.433  0.0971 -0.3083  0.2182
  185bbb     N1 5336  14.505  11.893   7.068  0.3775 -0.2481  0.1095
  185bbb     C1 5337  14.547  11.888   6.927  0.3072  0.1067  0.1660
  185bbb     H1 5338  14.582  11.788   6.899 -0.3200  0.0514 -0.4672
  185bbb     H2 5339  14.634  11.951   6.908  1.4542 -1.8017 -1.3340
  185bbb     C2 5340  14.617  11.866   7.164 -0.5315 -0.2338 -0.0140
  185bbb     H3 5341  14.682  11.786   7.127  0.6142  0.4064  0.5235
  185bbb     H4 5342  14.584  11.836   7.264  0.2359 -0.3592  0.2057
  185bbb     C3 5343  14.380  11.811   7.095 -0.4997 -0.0633 -0.6285
  185bbb     H5 5344  14.402  11.707   7.065  0.6709  0.5796 -2.1252
  185bbb     H6 5345  14.295  11.840   7.033 -1.9352 -1.7064  0.4537
  185bbb     C4 5346  14.323  11.810   7.245  0.6355 -0.1799  0.0338
  185bbb     H7 5347  14.402  11.764   7.306 -0.9960 -1.5106  1.2372
  185bbb     H8 5348  14.240  11.739   7.255  1.0255 -0.4506  1.7507
  185bbb     C5 5349  14.439  11.920   6.821 -0.0338 -0.1826  0.4122
  185bbb     H9 5350  14.387  12.012   6.850  0.6636 -0.1002  1.4767
  185bbb    H10 5351  14.366  11.838   6.829 -1.0268  0.2640 -2.7727
  185bbb     C6 5352  14.707  11.993   7.172 -0.4500 -0.5443 -0.3872
  185bbb    H11 5353  14.773  12.000   7.084 -0.5613  0.6250 -0.3988
  185bbb    H12 5354  14.780  11.989   7.253 -0.7887 -0.7187 -0.0855
  185bbb     C7 5355  14.270  11.940   7.301  0.1971  0.0043  0.1391
  185bbb    H13 5356  14.164  11.953   7.275 -0.3152 -0.4382  1.8540
  185bbb    H14 5357  14.325  12.032   7.279 -1.9271  2.1652  2.9721
  185bbb     C8 5358  14.630  12.124   7.215  0.2667  0.2654  0.5780
  185bbb    H15 5359  14.539  12.128   7.154  1.7139  1.0411 -1.6506
  185bbb    H16 5360  14.686  12.214   7.190  2.5180 -1.0564  0.5833
  185bbb     C9 5361  14.504  11.931   6.680  0.5402  0.2781  0.2106
  185bbb    H17 5362  14.552  11.837   6.650  2.2612  1.5127 -1.1196
  185bbb    H18 5363  14.584  12.005   6.668  1.9046 -0.9810  1.1369
  185bbb     O1 5364  14.274  11.918   7.437  0.2905 -0.4859 -0.0071
  186bbb     N1 5365  13.430  12.522   8.288  0.2793  0.0220 -0.6319
  186bbb     C1 5366  13.522  12.606   8.367 -0.0816  0.2982  0.4094
  186bbb     H1 5367  13.580  12.672   8.303  1.2788 -1.1031  0.1433
  186bbb     H2 5368  13.593  12.540   8.420  0.1290  0.2397  0.0537
  186bbb     C2 5369  13.346  12.434   8.382 -0.1884  0.1325  0.1229
  186bbb     H3 5370  13.262  12.395   8.323  0.2843  1.0153 -1.1569
  186bbb     H4 5371  13.307  12.498   8.463  2.4504 -3.2353  4.5466
  186bbb     C3 5372  13.491  12.445   8.181 -0.8584  0.4704 -0.0539
  186bbb     H5 5373  13.413  12.378   8.144  0.3513 -0.1525 -1.5736
  186bbb     H6 5374  13.560  12.369   8.219  0.3538  2.0295  0.9996
  186bbb     C4 5375  13.553  12.530   8.062 -0.9018  0.1435  0.0775
  186bbb     H7 5376  13.639  12.579   8.110 -1.5474 -0.7349  2.2834
  186bbb     H8 5377  13.486  12.610   8.030 -0.2523  0.1145 -1.4534
  186bbb     C5 5378  13.459  12.710   8.462 -0.6121  0.2114  0.3294
  186bbb     H9 5379  13.419  12.666   8.554 -0.5378 -1.3155 -0.3406
  186bbb    H10 5380  13.371  12.756   8.415 -1.6766 -0.5239  1.5363
  186bbb     C6 5381  13.419  12.322   8.457 -0.0079 -0.3984  0.3237
  186bbb    H11 5382  13.494  12.358   8.528  0.8344 -2.7861  0.7268
  186bbb    H12 5383  13.472  12.246   8.397 -2.0174 -0.3837 -1.6069
  186bbb     C7 5384  13.586  12.433   7.940 -0.5647 -0.3899 -0.0984
  186bbb    H13 5385  13.605  12.483   7.844  1.3157 -1.6365 -0.4388
  186bbb    H14 5386  13.497  12.375   7.914 -1.1453  0.5649 -0.2857
  186bbb     C8 5387  13.311  12.251   8.547 -0.0946 -1.2989 -1.4251
  186bbb    H15 5388  13.252  12.333   8.589 -0.0292 -1.3565 -1.2202
  186bbb    H16 5389  13.367  12.192   8.621 -1.0173  1.0574  1.3334
  186bbb     C9 5390  13.551  12.835   8.503 -0.0450  0.2405 -0.0244
  186bbb    H17 5391  13.518  12.877   8.599 -1.4397  0.1645 -0.4563
  186bbb    H18 5392  13.542  12.919   8.433 -0.7783 -1.0074 -1.4742
  186bbb     O1 5393  13.707  12.352   7.965 -0.8563 -0.1209  0.1703
  187bbb     N1 5394  14.071  10.707   6.040  0.3020 -0.0801 -0.0039
  187bbb     C1 5395  14.030  10.594   5.943 -0.3414 -0.3268 -0.3240
  187bbb     H1 5396  14.029  10.499   5.998  1.1602 -1.1157 -1.5924
  187bbb     H2 5397  14.099  10.583   5.858 -1.9143  0.0734 -1.6988
  187bbb     C2 5398  14.209  10.692   6.096 -0.1287 -0.2403 -0.4668
  187bbb     H3 5399  14.211  10.609   6.168  0.8199  0.5669  0.4817
  187bbb     H4 5400  14.242  10.790   6.134  0.0669  0.1841 -1.6761
  187bbb     C3 5401  13.967  10.721   6.151 -0.3001 -0.9285  0.0965
  187bbb     H5 5402  13.977  10.639   6.222 -2.5431 -1.3364 -0.0131
  187bbb     H6 5403  13.863  10.720   6.117  0.1488 -0.4226 -1.4244
  187bbb     C4 5404  13.987  10.851   6.222  0.2595 -0.9111 -0.2571
  187bbb     H7 5405  13.970  10.935   6.154  0.0694  0.8131  1.8200
  187bbb     H8 5406  14.088  10.858   6.263 -0.1411 -1.2434  0.8291
  187bbb     C5 5407  13.889  10.610   5.883 -0.1480 -0.0735 -0.1770
  187bbb     H9 5408  13.818  10.579   5.961 -0.3234 -0.3239 -0.4324
  187bbb    H10 5409  13.882  10.528   5.809 -0.0207 -0.0528 -0.2127
  187bbb     C6 5410  14.314  10.655   5.988  0.1300 -0.1207  0.8548
  187bbb    H11 5411  14.304  10.732   5.911  1.3288 -0.3100  0.4842
  187bbb    H12 5412  14.297  10.555   5.948  0.5711 -0.3240  1.1580
  187bbb     C7 5413  13.893  10.882   6.341 -0.3836  0.1263 -0.7054
  187bbb    H13 5414  13.787  10.879   6.314 -0.3618  1.0682 -0.9418
  187bbb    H14 5415  13.914  10.986   6.369  4.2540 -0.7631 -0.1513
  187bbb     C8 5416  14.460  10.669   6.033 -0.2681 -1.0908  0.2976
  187bbb    H15 5417  14.521  10.639   5.947 -1.8537 -2.6646 -0.3567
  187bbb    H16 5418  14.485  10.597   6.111  1.1366 -1.5497 -0.5334
  187bbb     C9 5419  13.855  10.750   5.817 -1.2193  0.7651 -0.0931
  187bbb    H17 5420  13.932  10.771   5.742 -0.8870 -2.5196 -0.8262
  187bbb    H18 5421  13.868  10.832   5.889 -1.4817 -1.4448  2.6366
  187bbb     O1 5422  13.914  10.796   6.451 -0.5751 -0.0262 -0.1006
  188bbb     N1 5423  13.890   9.948   6.564  0.2876  0.0295  0.5091
  188bbb     C1 5424  13.928  10.020   6.439 -0.0452  0.2323  0.2042
  188bbb     H1 5425  13.909  10.128   6.445  2.4004  0.6540  2.2541
  188bbb     H2 5426  13.880   9.969   6.354  2.0184 -2.7314  0.6447
  188bbb     C2 5427  13.933   9.812   6.558 -0.3363  0.1104  0.2393
  188bbb     H3 5428  13.930   9.774   6.661  1.2067  1.6217  0.8929
  188bbb     H4 5429  14.041   9.808   6.537  0.0437  1.5062  1.6815
  188bbb     C3 5430  13.919  10.030   6.685 -0.2221 -0.3387 -0.1976
  188bbb     H5 5431  14.027  10.051   6.680 -0.2745 -0.2483 -1.0728
  188bbb     H6 5432  13.900   9.974   6.777 -2.8767  1.0531  0.2110
  188bbb     C4 5433  13.839  10.160   6.688 -0.0268  0.0808  0.2187
  188bbb     H7 5434  13.757  10.157   6.615  0.9636 -2.3095 -0.9042
  188bbb     H8 5435  13.902  10.248   6.670 -0.2577  0.1575 -0.2484
  188bbb     C5 5436  14.084  10.034   6.410  0.7561 -0.1095  0.2177
  188bbb     H9 5437  14.112   9.946   6.351 -0.6469 -0.2078 -0.3521
  188bbb    H10 5438  14.140  10.030   6.504 -0.6685 -0.2856  1.0928
  188bbb     C6 5439  13.865   9.725   6.452 -0.0844 -0.3485  0.6643
  188bbb    H11 5440  13.868   9.783   6.359 -0.1580 -1.5329 -0.0884
  188bbb    H12 5441  13.761   9.708   6.484  0.7967 -1.3545  3.3015
  188bbb     C7 5442  13.768  10.183   6.821  0.2013  0.0625  0.6304
  188bbb    H13 5443  13.828  10.174   6.913  0.0501 -0.7523  0.6514
  188bbb    H14 5444  13.685  10.113   6.836  1.6483 -1.3665  2.4990
  188bbb     C8 5445  13.940   9.590   6.443 -0.1047  0.4257 -0.8842
  188bbb    H15 5446  14.047   9.609   6.427 -0.0162  1.6692  0.9129
  188bbb    H16 5447  13.896   9.522   6.369  0.7039 -0.2093 -0.8004
  188bbb     C9 5448  14.134  10.167   6.348  0.2297  0.0972 -0.2521
  188bbb    H17 5449  14.240  10.175   6.378 -0.0097 -0.7005  0.8427
  188bbb    H18 5450  14.068  10.249   6.378  3.2222  1.8287  2.2571
  188bbb     O1 5451  13.722  10.321   6.811  0.4789  0.1547 -0.0425
  189bbb     N1 5452  14.282  11.071   5.693 -0.0628  0.0015  0.2418
  189bbb     C1 5453  14.210  10.990   5.594 -0.4401  0.0722  1.2050
  189bbb     H1 5454  14.235  10.883   5.591  3.3611  0.8345 -1.3057
  189bbb     H2 5455  14.235  11.019   5.491  1.1858 -2.9706  0.6142
  189bbb     C2 5456  14.428  11.071   5.666  0.4308  0.2976 -0.0660
  189bbb     H3 5457  14.479  11.148   5.726 -2.1547  0.4159  2.1858
  189bbb     H4 5458  14.448  11.105   5.564  3.3112 -1.2601 -0.1529
  189bbb     C3 5459  14.250  11.045   5.835 -0.0264 -0.0519 -0.3587
  189bbb     H5 5460  14.292  10.946   5.855 -0.5853 -0.1490  0.3773
  189bbb     H6 5461  14.142  11.041   5.855  0.3214 -1.1816  1.4846
  189bbb     C4 5462  14.312  11.138   5.946 -0.5478  0.0027 -0.5728
  189bbb     H7 5463  14.266  11.237   5.931 -3.8287 -1.2903  0.0653
  189bbb     H8 5464  14.419  11.159   5.935 -1.1428  2.8573 -1.8482
  189bbb     C5 5465  14.057  11.011   5.591 -0.1933 -0.1791  0.2331
  189bbb     H9 5466  14.009  10.966   5.679 -1.2274 -1.1824 -0.8085
  189bbb    H10 5467  14.031  10.971   5.492  1.0736  1.5106 -0.8428
  189bbb     C6 5468  14.503  10.937   5.690 -0.5556  0.1168 -0.0589
  189bbb    H11 5469  14.452  10.851   5.644  1.9757 -1.4006 -0.2176
  189bbb    H12 5470  14.519  10.922   5.797 -2.1485  0.2689  0.2267
  189bbb     C7 5471  14.274  11.089   6.087  0.2787  0.2665  0.4702
  189bbb    H13 5472  14.329  10.997   6.110  0.2351  0.0015 -0.4481
  189bbb    H14 5473  14.165  11.083   6.078  0.3226  0.1481  0.0323
  189bbb     C8 5474  14.630  10.941   5.615 -0.6174  0.5896 -0.3127
  189bbb    H15 5475  14.704  10.872   5.659 -1.5159 -0.9063 -1.0724
  189bbb    H16 5476  14.671  11.042   5.620 -0.1704  0.3963  0.1097
  189bbb     C9 5477  14.016  11.157   5.587  0.5162 -0.2624 -0.1345
  189bbb    H17 5478  14.101  11.218   5.554 -0.3106  1.0028  0.0024
  189bbb    H18 5479  13.992  11.192   5.688 -0.8174 -0.0639 -0.4905
  189bbb     O1 5480  14.310  11.198   6.181 -0.0704 -0.4503  0.1681
  190bbb     N1 5481  13.869  11.995   7.138  0.4608 -0.1894 -0.1236
  190bbb     C1 5482  13.831  12.135   7.128 -0.5771  0.9148  0.0070
  190bbb     H1 5483  13.802  12.170   7.227 -0.0784  1.2314  0.0457
  190bbb     H2 5484  13.743  12.142   7.063 -1.3092 -0.8418  0.7530
  190bbb     C2 5485  13.772  11.913   7.220  0.0766  0.1328 -0.4998
  190bbb     H3 5486  13.714  11.842   7.160 -0.2462  0.5482 -0.6861
  190bbb     H4 5487  13.699  11.975   7.274 -3.0074 -2.1517 -1.7523
  190bbb     C3 5488  13.902  11.936   7.007 -0.1845  0.1524 -0.1961
  190bbb     H5 5489  13.971  12.005   6.958 -0.4239  0.6385  0.1385
  190bbb     H6 5490  13.813  11.928   6.943  0.5224  0.0026 -1.1706
  190bbb     C4 5491  13.975  11.799   7.017  0.2553 -0.4320 -0.2486
  190bbb     H7 5492  13.918  11.717   7.062 -0.1268  0.1761  0.4000
  190bbb     H8 5493  14.055  11.823   7.089 -0.8880  0.6528  0.7238
  190bbb     C5 5494  13.944  12.233   7.072 -0.0026 -0.0880  0.0680
  190bbb     H9 5495  13.924  12.338   7.097 -0.9921 -0.2792  0.1229
  190bbb    H10 5496  13.950  12.229   6.963  2.1431  1.4077  0.0771
  190bbb     C6 5497  13.842  11.847   7.338 -0.6353 -1.4103 -0.2526
  190bbb    H11 5498  13.858  11.931   7.408  1.3839 -0.6220 -1.5707
  190bbb    H12 5499  13.941  11.812   7.306 -0.1092  1.2592 -1.8562
  190bbb     C7 5500  14.045  11.757   6.893 -0.6929  0.0962  0.5413
  190bbb    H13 5501  14.120  11.688   6.932 -1.3128 -0.3906  0.9013
  190bbb    H14 5502  14.095  11.841   6.843  0.7035 -0.6846  0.5886
  190bbb     C8 5503  13.759  11.741   7.411 -0.2459 -0.0990 -0.4861
  190bbb    H15 5504  13.816  11.712   7.500  1.5524  0.0097 -1.5678
  190bbb    H16 5505  13.749  11.650   7.350  0.8468 -1.1070  0.7673
  190bbb     C9 5506  14.080  12.209   7.130 -0.7196  0.7074 -0.3102
  190bbb    H17 5507  14.106  12.102   7.129  0.6776  1.0101  0.4231
  190bbb    H18 5508  14.076  12.251   7.231 -0.9308  1.1919 -0.5222
  190bbb     O1 5509  13.954  11.684   6.813  0.4309 -0.0797 -0.0533
  191ccc     C1 5510  11.010  11.518   4.441  0.7623  0.2236 -1.0110
  191ccc     H1 5511  11.013  11.523   4.332 -0.0984  0.2932 -1.0396
  191ccc     H2 5512  11.096  11.472   4.490 -1.2697 -1.3448  1.3580
  191ccc     C2 5513  10.989  11.663   4.494  0.0759 -0.7171  0.2602
  191ccc     H3 5514  10.972  11.655   4.602 -2.4983 -3.3901 -0.2208
  191ccc     H4 5515  11.084  11.714   4.471 -2.0049  2.2314 -2.5502
  191ccc     C3 5516  10.883  11.744   4.422  0.5040 -0.5838 -0.6447
  191ccc     H5 5517  10.781  11.715   4.449  0.1178  1.8060  0.7871
  191ccc     H6 5518  10.907  11.733   4.316  1.6013 -0.6984 -0.3943
  191ccc     N1 5519  10.894  11.436   4.472  0.5024  0.3283 -0.3957
  191ccc     H7 5520  10.859  11.468   4.563 -1.2856 -3.0639  0.2908
  191ccc     H8 5521  10.822  11.457   4.403  0.0509  1.8749  0.5079
  191ccc     O1 5522  10.897  11.894   4.454  0.1682 -0.0441  0.6010
  192ccc     C1 5523  10.852  12.480   4.035 -0.2281 -0.3486  0.5263
  192ccc     H1 5524  10.921  12.450   4.114  0.0886  0.7741  0.6828
  192ccc     H2 5525  10.751  12.436   4.032 -0.1785 -0.4211 -1.4605
  192ccc     C2 5526  10.827  12.632   4.051 -0.3319 -0.5468 -0.7164
  192ccc     H3 5527  10.918  12.692   4.040 -0.9273  0.4450 -0.4418
  192ccc     H4 5528  10.769  12.666   3.964 -0.3430  0.1426 -0.4512
  192ccc     C3 5529  10.761  12.651   4.187 -0.5732  1.1106  0.3218
  192ccc     H5 5530  10.662  12.606   4.174 -0.0281  0.1489 -0.5631
  192ccc     H6 5531  10.750  12.757   4.213  1.4443  1.3819  0.2178
  192ccc     N1 5532  10.918  12.453   3.905  0.3663  0.1861 -0.3263
  192ccc     H7 5533  10.927  12.351   3.900 -1.4302 -0.2473  2.6648
  192ccc     H8 5534  10.833  12.469   3.851 -1.3330  0.8257  2.3377
  192ccc     O1 5535  10.847  12.585   4.288 -0.3305 -0.4840 -0.7352
  193ccc     C1 5536   9.878  11.831   6.130  0.0348  0.6389 -0.9680
  193ccc     H1 5537   9.854  11.936   6.106  0.2264  0.7783 -0.5551
  193ccc     H2 5538   9.957  11.794   6.065 -0.3100 -0.9925 -0.4953
  193ccc     C2 5539   9.915  11.811   6.284  1.2133 -0.9574 -0.3890
  193ccc     H3 5540   9.824  11.809   6.345  0.1373  0.7389 -1.8311
  193ccc     H4 5541   9.958  11.711   6.293  1.6836 -0.8127 -0.9574
  193ccc     C3 5542  10.006  11.927   6.338 -0.5834  0.5726  0.7305
  193ccc     H5 5543  10.024  11.919   6.446 -1.2511 -0.6262  0.7813
  193ccc     H6 5544   9.946  12.017   6.319 -0.2941  0.6485  0.1751
  193ccc     N1 5545   9.758  11.766   6.096 -0.3986  0.6713 -0.7302
  193ccc     H7 5546   9.753  11.796   5.999  2.7052  1.0090 -0.8681
  193ccc     H8 5547   9.783  11.668   6.084  1.2077  1.1429 -1.4724
  193ccc     O1 5548  10.127  11.931   6.262  0.5044  0.3666 -0.5826
  194ccc     C1 5549   9.962  12.494   5.591 -0.0034 -0.0218 -0.4912
  194ccc     H1 5550   9.942  12.432   5.679  0.0076 -0.1705 -0.5920
  194ccc     H2 5551   9.970  12.599   5.620  1.6622 -0.3569  0.3719
  194ccc     C2 5552  10.099  12.466   5.525 -0.0881  0.1304  0.7713
  194ccc     H3 5553  10.106  12.526   5.433 -0.9526 -1.3396 -0.2754
  194ccc     H4 5554  10.177  12.511   5.589 -1.1408  1.7665  0.9745
  194ccc     C3 5555  10.138  12.323   5.490 -0.1240  0.0790 -0.4596
  194ccc     H5 5556  10.230  12.321   5.429  1.0209 -1.0499  1.2346
  194ccc     H6 5557  10.058  12.273   5.435 -0.6055 -0.4081  0.6816
  194ccc     N1 5558   9.853  12.474   5.497 -0.2464 -0.0400  0.1016
  194ccc     H7 5559   9.771  12.497   5.552  0.1648 -1.7946  1.5249
  194ccc     H8 5560   9.863  12.539   5.418 -0.8720 -2.5718 -2.1892
  194ccc     O1 5561  10.155  12.244   5.608  0.1946 -0.0836  0.0096
  195ccc     C1 5562  11.183  12.315   4.123 -0.2060 -0.1389 -0.2593
  195ccc     H1 5563  11.137  12.216   4.131  0.6105 -0.4148  1.6030
  195ccc     H2 5564  11.131  12.391   4.182 -0.3715 -1.2351  1.0668
  195ccc     C2 5565  11.325  12.293   4.175  0.0713 -0.4397  0.0674
  195ccc     H3 5566  11.343  12.192   4.136 -1.1934 -0.3149 -0.9001
  195ccc     H4 5567  11.400  12.359   4.131 -0.2004 -0.5121 -0.5155
  195ccc     C3 5568  11.346  12.297   4.326 -0.9514  0.5553 -0.4088
  195ccc     H5 5569  11.323  12.393   4.374 -0.4451  0.3176  0.3249
  195ccc     H6 5570  11.454  12.283   4.339 -1.0612 -0.0801 -0.1746
  195ccc     N1 5571  11.192  12.356   3.985  0.4247 -0.2704  0.2459
  195ccc     H7 5572  11.225  12.273   3.936  0.5284  0.2093 -0.5174
  195ccc     H8 5573  11.099  12.372   3.947  0.6347  0.5331  0.0470
  195ccc     O1 5574  11.267  12.190   4.382  0.1618  0.4136 -0.2251
  196ccc     C1 5575  11.695  12.665   4.071 -0.5856 -0.1864 -0.1329
  196ccc     H1 5576  11.606  12.676   4.135  1.0339 -0.5073  2.2931
  196ccc     H2 5577  11.785  12.698   4.123 -0.8169 -1.2048  0.9674
  196ccc     C2 5578  11.700  12.514   4.062 -0.1025  0.8490 -1.0620
  196ccc     H3 5579  11.619  12.486   3.993 -1.1798 -0.1174  0.5415
  196ccc     H4 5580  11.795  12.480   4.019  0.7806 -0.9321  1.9972
  196ccc     C3 5581  11.684  12.442   4.198 -0.0579 -0.2378 -0.6263
  196ccc     H5 5582  11.601  12.490   4.252  2.2386  2.4878  0.7531
  196ccc     H6 5583  11.767  12.470   4.264 -0.3567  0.7573 -0.6470
  196ccc     N1 5584  11.687  12.730   3.945 -0.0712  0.2486  0.3526
  196ccc     H7 5585  11.679  12.829   3.965  0.9892  0.3867  0.1567
  196ccc     H8 5586  11.777  12.724   3.896 -0.3280 -0.7466 -0.0370
  196ccc     O1 5587  11.683  12.299   4.175  0.1462 -0.1789 -0.1945
  197ccc     C1 5588  10.326  10.717   5.595 -0.2495 -0.4180 -0.6354
  197ccc     H1 5589  10.256  10.721   5.680 -1.2654 -2.1691 -1.3480
  197ccc     H2 5590  10.293  10.788   5.518  1.5596  2.1463  0.7925
  197ccc     C2 5591  10.470  10.759   5.634 -0.1170 -0.3490  0.6628
  197ccc     H3 5592  10.474  10.864   5.667 -1.3858  0.1418 -0.6244
  197ccc     H4 5593  10.505  10.696   5.717 -2.0507  0.5988  2.2851
  197ccc     C3 5594  10.578  10.738   5.525  0.1870  0.6902 -0.2583
  197ccc     H5 5595  10.555  10.793   5.433  0.0204  1.4096  0.2019
  197ccc     H6 5596  10.580  10.631   5.502  0.1534  0.5686  0.2823
  197ccc     N1 5597  10.314  10.585   5.547  0.4806  0.1052  0.3212
  197ccc     H7 5598  10.233  10.572   5.487  1.1920 -0.1093 -0.6256
  197ccc     H8 5599  10.377  10.574   5.467  0.5925 -0.4679  0.4878
  197ccc     O1 5600  10.710  10.769   5.576 -0.5586  0.3890  0.2432
  198ccc     C1 5601  11.083  10.682   4.727  0.1542 -0.2206 -0.3712
  198ccc     H1 5602  11.046  10.773   4.777  0.0576 -0.1759 -0.5234
  198ccc     H2 5603  11.054  10.680   4.621  0.3362 -1.0088 -0.4060
  198ccc     C2 5604  11.231  10.655   4.744  0.0625  0.3020  0.0584
  198ccc     H3 5605  11.256  10.565   4.685  0.1838 -1.2315  2.3246
  198ccc     H4 5606  11.282  10.739   4.696  0.6598 -0.6913 -1.1122
  198ccc     C3 5607  11.279  10.630   4.896 -0.4163 -0.8418  0.4936
  198ccc     H5 5608  11.389  10.623   4.895 -0.1921  1.2769  2.3236
  198ccc     H6 5609  11.238  10.531   4.920 -0.3013 -0.7891  0.9152
  198ccc     N1 5610  11.015  10.565   4.780  0.0185 -0.8864  0.0561
  198ccc     H7 5611  11.048  10.545   4.874 -0.9382 -0.6763  0.4529
  198ccc     H8 5612  10.916  10.583   4.764  0.6016  1.2313 -1.6292
  198ccc     O1 5613  11.235  10.741   4.973  0.1271 -0.0134 -0.1899
  199ccc     C1 5614  10.671  15.473   6.466 -0.4224 -0.1310  0.3507
  199ccc     H1 5615  10.744  15.513   6.394 -0.5367 -0.8908 -0.2018
  199ccc     H2 5616  10.581  15.536   6.466 -0.3742 -0.0540  0.9952
  199ccc     C2 5617  10.643  15.332   6.422 -0.6982 -0.2951  0.3449
  199ccc     H3 5618  10.592  15.271   6.497  0.6877 -2.1373 -0.1325
  199ccc     H4 5619  10.592  15.328   6.325  1.6754 -0.9131 -0.9556
  199ccc     C3 5620  10.770  15.255   6.384  0.9110  0.1506  0.3529
  199ccc     H5 5621  10.840  15.327   6.340  2.3514  1.4589  4.3359
  199ccc     H6 5622  10.750  15.171   6.317 -1.6665  1.0998 -0.1614
  199ccc     N1 5623  10.732  15.475   6.596  0.0909  0.6098 -0.0202
  199ccc     H7 5624  10.752  15.573   6.611  1.2140  0.6921 -1.7086
  199ccc     H8 5625  10.651  15.464   6.657 -0.7912  1.2300 -1.0361
  199ccc     O1 5626  10.838  15.196   6.497  0.6275  0.0432 -0.2849
  200ccc     C1 5627  10.379  14.710   6.833  0.2810  0.0190 -0.2583
  200ccc     H1 5628  10.444  14.798   6.837  3.0458 -1.8897 -0.2978
  200ccc     H2 5629  10.375  14.667   6.732  0.8837  0.0287 -0.2868
  200ccc     C2 5630  10.430  14.604   6.930  0.1681 -0.0244  0.3048
  200ccc     H3 5631  10.434  14.641   7.033  2.1213 -2.2401  1.1004
  200ccc     H4 5632  10.367  14.514   6.928 -0.5850  0.4605  0.9960
  200ccc     C3 5633  10.580  14.563   6.904 -0.0307 -0.0865 -0.1279
  200ccc     H5 5634  10.593  14.512   6.808 -2.6843  0.1899 -0.7067
  200ccc     H6 5635  10.624  14.505   6.985  1.2639  2.3685  1.0460
  200ccc     N1 5636  10.248  14.760   6.870 -0.2553 -0.3466 -0.8006
  200ccc     H7 5637  10.260  14.833   6.940  0.1550 -0.5855 -0.6162
  200ccc     H8 5638  10.221  14.811   6.786 -0.1683 -0.8075 -1.1109
  200ccc     O1 5639  10.662  14.683   6.905  0.2530  0.0206  0.2445
  201ccc     C1 5640  11.901  13.005   6.943 -0.3282 -0.7511  0.3934
  201ccc     H1 5641  11.992  12.972   6.993  0.1952  0.9903  0.6776
  201ccc     H2 5642  11.836  12.919   6.926  0.5910 -1.5550  0.8922
  201ccc     C2 5643  11.833  13.102   7.041 -0.5061 -0.3480 -0.3978
  201ccc     H3 5644  11.805  13.042   7.129 -2.0694  1.1130  0.1690
  201ccc     H4 5645  11.898  13.186   7.066 -0.5171 -0.5106  0.1854
  201ccc     C3 5646  11.701  13.167   6.988 -0.1597  0.3048  0.0441
  201ccc     H5 5647  11.634  13.085   6.960  0.0075 -0.8439  2.6951
  201ccc     H6 5648  11.732  13.239   6.911 -0.2213 -0.3806 -0.6319
  201ccc     N1 5649  11.932  13.060   6.814  0.1351 -0.3331  0.1879
  201ccc     H7 5650  12.023  13.103   6.826 -0.7434  1.2669  1.5335
  201ccc     H8 5651  11.952  12.976   6.761 -2.4846 -0.6459 -0.4745
  201ccc     O1 5652  11.639  13.234   7.100 -0.9999  0.1921 -0.4715
  202ccc     C1 5653  10.801  13.317   7.858  0.6825  0.3193 -0.3476
  202ccc     H1 5654  10.727  13.383   7.810  1.8169  1.3221 -0.7658
  202ccc     H2 5655  10.766  13.214   7.847  0.2652  0.5363 -1.1836
  202ccc     C2 5656  10.916  13.339   7.758 -0.3959 -0.6282  0.0504
  202ccc     H3 5657  10.948  13.444   7.755 -2.4266  0.0141 -0.7567
  202ccc     H4 5658  10.999  13.279   7.799 -0.6743  0.4935  2.4459
  202ccc     C3 5659  10.863  13.304   7.610 -0.3784  0.2032 -0.8432
  202ccc     H5 5660  10.776  13.371   7.603 -1.7089 -0.7191  3.7441
  202ccc     H6 5661  10.839  13.197   7.600 -0.5973  0.1742 -0.0771
  202ccc     N1 5662  10.835  13.358   7.999  0.1807  0.1468 -0.3002
  202ccc     H7 5663  10.935  13.342   7.998  0.3458  0.5596  2.3800
  202ccc     H8 5664  10.825  13.459   7.999 -2.8595  0.0130 -3.4602
  202ccc     O1 5665  10.969  13.347   7.517  0.0104  0.3808 -0.0803
  203ccc     C1 5666  11.917  12.283   4.603 -0.1258 -0.6569  0.4356
  203ccc     H1 5667  11.976  12.234   4.681  1.8818 -0.5858 -0.9567
  203ccc     H2 5668  11.863  12.209   4.544 -1.3024  2.2650 -2.5089
  203ccc     C2 5669  11.805  12.376   4.661  0.1733 -0.3469  0.3376
  203ccc     H3 5670  11.754  12.398   4.566  0.7734 -1.6084 -0.3068
  203ccc     H4 5671  11.749  12.308   4.726 -2.8325 -0.5048 -2.1467
  203ccc     C3 5672  11.868  12.496   4.737 -0.4046 -0.9930 -0.3612
  203ccc     H5 5673  11.928  12.564   4.676 -0.4743  0.2090  0.8712
  203ccc     H6 5674  11.933  12.447   4.811  0.7427  0.5546 -0.2940
  203ccc     N1 5675  12.017  12.354   4.520 -0.1798  0.2353 -0.2913
  203ccc     H7 5676  11.959  12.389   4.444 -0.6727 -0.0364 -0.0459
  203ccc     H8 5677  12.052  12.431   4.577  0.6861 -0.7524  0.5874
  203ccc     O1 5678  11.760  12.569   4.802  0.2869  0.3672  0.3161
  204ccc     C1 5679  11.878  12.599   5.868  0.0394 -0.3291  0.6026
  204ccc     H1 5680  11.787  12.639   5.913  0.1320  2.0489 -1.1502
  204ccc     H2 5681  11.845  12.517   5.804  0.6984 -0.1392  0.0033
  204ccc     C2 5682  11.940  12.710   5.790  0.9060  0.7096  1.1672
  204ccc     H3 5683  11.968  12.789   5.861 -2.6628  3.2717 -0.0021
  204ccc     H4 5684  12.031  12.669   5.745 -0.2621 -0.2336 -0.4305
  204ccc     C3 5685  11.847  12.772   5.680  0.1855 -0.1383  0.0279
  204ccc     H5 5686  11.912  12.834   5.617  0.6732  0.4233  1.0439
  204ccc     H6 5687  11.773  12.830   5.736  0.9981 -0.0421  1.0517
  204ccc     N1 5688  11.959  12.542   5.977  0.1899 -0.5616 -0.6324
  204ccc     H7 5689  11.926  12.446   5.986  1.5032 -1.0142 -0.4224
  204ccc     H8 5690  12.046  12.503   5.941  1.1799  0.8599  0.1128
  204ccc     O1 5691  11.784  12.672   5.606  0.3925 -0.1355 -0.4607
  205ccc     C1 5692   9.625  13.407   5.843  0.2752 -0.0116  0.3077
  205ccc     H1 5693   9.549  13.373   5.914 -1.8446  0.5332 -1.6080
  205ccc     H2 5694   9.578  13.477   5.774 -1.1486  0.6358  1.8703
  205ccc     C2 5695   9.732  13.477   5.930 -0.3014  0.2327  0.0401
  205ccc     H3 5696   9.695  13.571   5.972 -1.9121 -0.2672 -0.2028
  205ccc     H4 5697   9.749  13.408   6.014 -2.5977 -2.3799 -1.4743
  205ccc     C3 5698   9.854  13.515   5.848 -0.1410 -0.0142  0.4654
  205ccc     H5 5699   9.888  13.617   5.873 -0.1140  0.4318 -1.2799
  205ccc     H6 5700   9.835  13.501   5.741  1.3492 -0.9560  0.3052
  205ccc     N1 5701   9.669  13.278   5.781  0.1001 -0.2588  0.1856
  205ccc     H7 5702   9.751  13.299   5.725 -1.1200  0.5849 -1.3972
  205ccc     H8 5703   9.727  13.229   5.848 -0.6998  0.1052  1.1773
  205ccc     O1 5704   9.953  13.423   5.890  0.1788 -0.5062 -0.6423
  206ccc     C1 5705  10.050  12.944   5.154  0.3677 -0.2632  1.2461
  206ccc     H1 5706  10.108  13.034   5.178  2.1401 -0.1563 -2.6061
  206ccc     H2 5707  10.118  12.858   5.149 -1.7827 -2.1162  2.3077
  206ccc     C2 5708   9.945  12.913   5.263 -0.1193  0.0574 -0.2431
  206ccc     H3 5709   9.894  13.003   5.300 -0.9696 -1.1283  1.6280
  206ccc     H4 5710   9.874  12.839   5.227  2.8270 -2.2896 -1.7050
  206ccc     C3 5711  10.023  12.865   5.388  0.8684  0.5118  0.7862
  206ccc     H5 5712  10.071  12.768   5.371  1.2621  0.8827 -0.2902
  206ccc     H6 5713   9.966  12.835   5.477  1.0811 -2.2647  0.0986
  206ccc     N1 5714   9.968  12.959   5.027 -0.1881  0.0429 -0.1538
  206ccc     H7 5715   9.910  13.041   5.041 -0.3275 -0.1150  0.1924
  206ccc     H8 5716  10.030  12.993   4.953  2.2443  0.3908  1.8929
  206ccc     O1 5717  10.117  12.965   5.422 -0.8168 -0.0220 -0.2717
  207ccc     C1 5718   9.295  11.865   7.791 -0.2534 -0.2784 -0.0191
  207ccc     H1 5719   9.367  11.905   7.864 -2.2719  2.8730  0.4516
  207ccc     H2 5720   9.226  11.796   7.841  0.0512  0.3143  1.2538
  207ccc     C2 5721   9.205  11.972   7.727 -0.3340  0.5375 -0.3097
  207ccc     H3 5722   9.144  11.917   7.654 -1.3696 -1.5001  1.9657
  207ccc     H4 5723   9.131  12.010   7.797  0.7659  0.0315  1.1901
  207ccc     C3 5724   9.276  12.090   7.660  0.0813 -0.1273 -0.1662
  207ccc     H5 5725   9.306  12.162   7.738 -2.0512 -1.9047  2.5046
  207ccc     H6 5726   9.213  12.149   7.591  1.3291  2.6642  0.9059
  207ccc     N1 5727   9.369  11.769   7.702  0.0028 -0.7880 -0.3390
  207ccc     H7 5728   9.289  11.725   7.657 -2.0457  0.4106  1.8699
  207ccc     H8 5729   9.419  11.827   7.635  2.3019 -3.3078 -0.9628
  207ccc     O1 5730   9.394  12.060   7.583 -1.0988  0.1969 -0.8427
  208ccc     C1 5731  10.171  12.208   6.740 -0.5976  0.3081  0.4147
  208ccc     H1 5732  10.167  12.128   6.815  2.6662 -0.2760  0.1230
  208ccc     H2 5733  10.080  12.197   6.681 -0.5760  0.9276  0.2655
  208ccc     C2 5734  10.203  12.335   6.821 -0.5008  0.2346  0.5096
  208ccc     H3 5735  10.273  12.313   6.903  1.6218 -1.4361 -1.5874
  208ccc     H4 5736  10.259  12.399   6.751 -0.5476 -0.7763 -0.4914
  208ccc     C3 5737  10.079  12.416   6.870  0.4112  0.0177  0.0198
  208ccc     H5 5738  10.023  12.447   6.781 -2.2814 -1.3607  1.1237
  208ccc     H6 5739  10.119  12.502   6.925  1.4618 -0.3041 -0.2273
  208ccc     N1 5740  10.286  12.163   6.654 -0.1955  0.2193 -0.1082
  208ccc     H7 5741  10.357  12.159   6.727  2.1527 -0.3991 -2.2740
  208ccc     H8 5742  10.278  12.067   6.620 -0.3464  0.1927  0.0023
  208ccc     O1 5743  10.001  12.336   6.955 -0.2265  0.4540 -0.0426
  209ccc     C1 5744   9.639  11.778   8.097  0.2233 -0.1802  0.7128
  209ccc     H1 5745   9.639  11.806   7.991 -2.0260  2.9603  1.3820
  209ccc     H2 5746   9.586  11.683   8.115 -0.5266  0.4860  2.2205
  209ccc     C2 5747   9.780  11.767   8.157 -0.1220  0.2247  0.3250
  209ccc     H3 5748   9.822  11.868   8.152 -2.7877  1.5712  2.5816
  209ccc     H4 5749   9.780  11.735   8.261  0.4134 -1.0299 -0.0356
  209ccc     C3 5750   9.860  11.661   8.071 -0.3225  0.0612  0.4821
  209ccc     H5 5751   9.846  11.685   7.965  3.0504 -0.5817 -0.2339
  209ccc     H6 5752   9.818  11.561   8.088  1.2427 -0.5505  0.9937
  209ccc     N1 5753   9.563  11.877   8.175  0.3077 -0.2266 -0.2360
  209ccc     H7 5754   9.600  11.865   8.269  1.2404  1.1354 -0.3932
  209ccc     H8 5755   9.604  11.966   8.145 -0.7998  0.0987 -0.8710
  209ccc     O1 5756   9.993  11.666   8.107 -0.3572  0.3985  0.8739
  210ccc     C1 5757  10.649  10.683   8.133 -0.0742 -0.1419 -0.0117
  210ccc     H1 5758  10.569  10.679   8.208  0.9599  0.1403  1.1383
  210ccc     H2 5759  10.636  10.607   8.055 -0.6322  1.1589 -1.2321
  210ccc     C2 5760  10.632  10.830   8.079 -0.6796 -0.1816 -0.3855
  210ccc     H3 5761  10.653  10.895   8.165  0.7002 -0.8862 -0.1550
  210ccc     H4 5762  10.711  10.845   8.004 -1.5084  3.2554 -0.7399
  210ccc     C3 5763  10.491  10.840   8.021  0.2551 -0.7920  0.1631
  210ccc     H5 5764  10.412  10.795   8.082 -0.8203 -0.4203 -0.9186
  210ccc     H6 5765  10.493  10.787   7.925 -4.6226  0.0768 -0.6529
  210ccc     N1 5766  10.776  10.665   8.195 -0.3308 -0.1853 -0.8164
  210ccc     H7 5767  10.845  10.662   8.119  2.8364  1.2002  1.7626
  210ccc     H8 5768  10.782  10.571   8.234  0.5541 -0.3212 -1.2561
  210ccc     O1 5769  10.454  10.977   8.000 -0.6795  0.7378  1.1431
  211ccc     C1 5770   9.655  11.559   6.381 -0.0760  0.7222 -0.4608
  211ccc     H1 5771   9.684  11.663   6.396 -1.9314  1.3559 -1.0388
  211ccc     H2 5772   9.684  11.535   6.278  0.9633 -3.3717  0.5854
  211ccc     C2 5773   9.726  11.458   6.468  0.3961  0.1388  0.0697
  211ccc     H3 5774   9.690  11.471   6.571 -0.7288 -1.2624 -0.1203
  211ccc     H4 5775   9.702  11.355   6.439 -0.7479 -0.1170  1.8090
  211ccc     C3 5776   9.875  11.464   6.465  0.6526  0.0712 -0.3951
  211ccc     H5 5777   9.915  11.476   6.363  2.0172  0.7300  0.1959
  211ccc     H6 5778   9.909  11.370   6.509  0.4218  0.0078 -0.3522
  211ccc     N1 5779   9.503  11.536   6.376  0.0030 -0.2723 -0.1580
  211ccc     H7 5780   9.483  11.585   6.289  2.3590  1.0048 -0.0895
  211ccc     H8 5781   9.481  11.441   6.347 -2.2044  0.1355  0.0289
  211ccc     O1 5782   9.928  11.568   6.545 -0.0936  0.0476  0.0713
  212ccc     C1 5783   9.427  11.951   6.366 -0.1478 -0.2783  0.1024
  212ccc     H1 5784   9.374  11.904   6.283 -1.6013  0.3876  0.6291
  212ccc     H2 5785   9.457  11.869   6.433  0.2749 -0.3284 -0.1474
  212ccc     C2 5786   9.549  12.025   6.312  0.2083  0.0531  0.7226
  212ccc     H3 5787   9.607  11.954   6.252  0.9362  0.0072  1.4702
  212ccc     H4 5788   9.510  12.105   6.248  0.6180 -0.0196  0.3755
  212ccc     C3 5789   9.638  12.091   6.426 -0.2045 -0.4773  0.6629
  212ccc     H5 5790   9.579  12.159   6.489 -0.1327  2.1613 -1.9426
  212ccc     H6 5791   9.719  12.141   6.373  1.6571 -2.7657  1.1792
  212ccc     N1 5792   9.329  12.040   6.437 -1.0894 -0.2479  0.1502
  212ccc     H7 5793   9.391  12.081   6.506 -1.5989  1.2022 -0.2234
  212ccc     H8 5794   9.317  12.106   6.360  1.0390  0.0431 -0.0042
  212ccc     O1 5795   9.686  11.982   6.498 -0.2770 -0.1681  0.3266
  213ccc     C1 5796   9.821  11.049   6.466 -0.1151 -0.2751 -0.5241
  213ccc     H1 5797   9.831  11.136   6.533  1.4057 -0.0733 -0.9779
  213ccc     H2 5798   9.860  11.088   6.371  0.2786  2.9619  0.8218
  213ccc     C2 5799   9.902  10.935   6.526  0.5184  0.3475 -0.3316
  213ccc     H3 5800   9.861  10.895   6.619  2.7301  0.8109  0.9172
  213ccc     H4 5801   9.902  10.855   6.451  0.8456 -2.1726  2.1854
  213ccc     C3 5802  10.047  10.986   6.554  0.0204  0.5889  0.5525
  213ccc     H5 5803  10.115  10.901   6.541  0.1581  0.6015  1.1526
  213ccc     H6 5804  10.048  11.039   6.650 -0.6546  2.3293 -0.3587
  213ccc     N1 5805   9.679  11.025   6.460  0.3248 -0.1109  0.2468
  213ccc     H7 5806   9.644  11.107   6.411 -0.1464  0.4905  1.5490
  213ccc     H8 5807   9.675  10.950   6.391 -0.0515  0.8976 -0.8548
  213ccc     O1 5808  10.090  11.082   6.450  0.3137  0.3302 -0.5578
  214ccc     C1 5809  10.520  12.007   6.960  0.3393 -0.2412  1.1356
  214ccc     H1 5810  10.476  11.924   7.016 -0.9374 -0.3790 -0.0087
  214ccc     H2 5811  10.597  12.066   7.011 -1.1746 -0.1984  3.5144
  214ccc     C2 5812  10.584  11.945   6.827  0.0951  0.2224 -0.3943
  214ccc     H3 5813  10.652  12.013   6.774  0.1625 -0.4894 -1.2465
  214ccc     H4 5814  10.649  11.866   6.867  2.1336  1.3642 -1.2768
  214ccc     C3 5815  10.485  11.887   6.730  0.2432 -0.4705  0.7212
  214ccc     H5 5816  10.433  11.971   6.683  0.3981 -1.2254 -0.8692
  214ccc     H6 5817  10.409  11.828   6.782  1.3285 -3.1313 -0.5196
  214ccc     N1 5818  10.401  12.097   6.934 -0.2931  0.1615 -0.1068
  214ccc     H7 5819  10.316  12.044   6.952 -0.0242 -0.8228 -1.5458
  214ccc     H8 5820  10.406  12.151   7.020  0.5581  0.2056 -0.1685
  214ccc     O1 5821  10.543  11.798   6.638  0.6599  0.4802  0.4731
  215ccc     C1 5822  11.673  13.100   8.245  0.3033 -0.0816  0.3918
  215ccc     H1 5823  11.648  13.017   8.313  0.9808  0.9255  1.9236
  215ccc     H2 5824  11.598  13.104   8.165  1.4977 -3.5417 -1.0960
  215ccc     C2 5825  11.676  13.219   8.339  0.3134 -0.3305  0.5717
  215ccc     H3 5826  11.711  13.188   8.439  1.0133  1.2560  0.8542
  215ccc     H4 5827  11.735  13.302   8.298 -0.4480 -0.7396 -1.4645
  215ccc     C3 5828  11.542  13.278   8.351 -0.3870 -0.4781  0.1242
  215ccc     H5 5829  11.514  13.318   8.252  0.7279 -2.2495 -0.9663
  215ccc     H6 5830  11.547  13.352   8.431  0.4358 -0.8966  0.4707
  215ccc     N1 5831  11.796  13.074   8.182  0.6288  1.0058 -0.0963
  215ccc     H7 5832  11.785  12.995   8.118 -2.5136  2.2068 -1.2276
  215ccc     H8 5833  11.816  13.150   8.117  0.4692  1.0114 -0.1391
  215ccc     O1 5834  11.453  13.173   8.392  0.3947  0.7322  0.4295
  216ccc     C1 5835  11.113  12.417   8.813  0.6154 -0.2298 -0.0208
  216ccc     H1 5836  11.069  12.348   8.739 -0.2278  0.3761 -0.1062
  216ccc     H2 5837  11.167  12.504   8.777  0.9553  1.1674  3.4703
  216ccc     C2 5838  11.001  12.479   8.896 -0.3110  0.1074  0.0374
  216ccc     H3 5839  10.952  12.393   8.944 -0.9524 -0.0066 -0.8070
  216ccc     H4 5840  11.046  12.537   8.977  0.5849  0.9713 -1.0542
  216ccc     C3 5841  10.900  12.555   8.821 -0.0935 -0.0993  0.0986
  216ccc     H5 5842  10.825  12.610   8.880 -0.7104 -0.0746 -0.6888
  216ccc     H6 5843  10.844  12.499   8.745 -0.4459 -1.5811  1.4074
  216ccc     N1 5844  11.207  12.350   8.895  0.6085  0.3640 -0.4361
  216ccc     H7 5845  11.278  12.323   8.828 -0.1703  1.0020 -1.5706
  216ccc     H8 5846  11.242  12.427   8.952  0.4277  0.0476  0.1057
  216ccc     O1 5847  10.973  12.656   8.749  1.2261  0.4022  0.0631
  217ccc     C1 5848  10.533  12.571   7.796 -0.0167 -0.0897 -0.2600
  217ccc     H1 5849  10.635  12.581   7.835 -0.4162 -1.5404  1.2748
  217ccc     H2 5850  10.540  12.550   7.688 -0.6971 -0.0819 -0.3103
  217ccc     C2 5851  10.461  12.454   7.861 -0.1089  0.1757 -0.6422
  217ccc     H3 5852  10.458  12.462   7.971 -1.1817 -1.4499 -0.5305
  217ccc     H4 5853  10.356  12.450   7.830 -0.2357  2.6862 -0.7814
  217ccc     C3 5854  10.525  12.315   7.830  0.5013 -0.3595 -0.3200
  217ccc     H5 5855  10.516  12.281   7.726  0.8224 -1.5404  0.0199
  217ccc     H6 5856  10.479  12.242   7.898  1.4176 -0.4135  0.2512
  217ccc     N1 5857  10.473  12.701   7.811 -0.0259  0.2859 -0.4384
  217ccc     H7 5858  10.388  12.685   7.757 -0.1419 -0.4101 -0.0587
  217ccc     H8 5859  10.530  12.755   7.746  0.0916  3.5957  2.1597
  217ccc     O1 5860  10.661  12.322   7.877 -0.3057 -0.0798 -0.5046
  218ccc     C1 5861  11.077  12.076   8.762  0.3799 -0.3099  0.2709
  218ccc     H1 5862  11.182  12.054   8.742  0.2147 -2.8766  1.7939
  218ccc     H2 5863  11.043  12.158   8.697  0.7029 -0.1481  0.3055
  218ccc     C2 5864  11.009  11.950   8.720 -0.1701  0.4087  0.1839
  218ccc     H3 5865  11.005  11.870   8.795  0.5205  0.0353 -0.1693
  218ccc     H4 5866  10.900  11.965   8.714 -0.4240 -0.5609  1.7400
  218ccc     C3 5867  11.077  11.890   8.592 -0.7931  0.5020 -0.0048
  218ccc     H5 5868  11.024  11.800   8.558 -0.1704  0.7063 -1.6206
  218ccc     H6 5869  11.183  11.872   8.613 -0.5706  1.2235 -0.4873
  218ccc     N1 5870  11.056  12.102   8.903 -0.0219  0.6198  0.0355
  218ccc     H7 5871  11.117  12.034   8.948  1.1733  2.4615  1.3187
  218ccc     H8 5872  11.113  12.182   8.930 -0.5915  0.7175  0.9826
  218ccc     O1 5873  11.069  11.980   8.478  0.4681 -0.5608 -0.0737
  219ccc     C1 5874   9.556  12.796   5.863  0.2359  0.2737  0.5416
  219ccc     H1 5875   9.474  12.723   5.868 -1.2715  2.0067  2.4235
  219ccc     H2 5876   9.586  12.823   5.965 -2.4286  1.0965  1.1671
  219ccc     C2 5877   9.668  12.730   5.785 -0.4016  0.3230 -0.1145
  219ccc     H3 5878   9.696  12.639   5.840  0.1598 -0.5111 -1.7204
  219ccc     H4 5879   9.640  12.693   5.686  2.9455 -0.3766 -0.9331
  219ccc     C3 5880   9.799  12.815   5.769 -0.1781 -0.7125  0.5811
  219ccc     H5 5881   9.770  12.903   5.710  2.3063 -1.7721 -2.4957
  219ccc     H6 5882   9.885  12.770   5.717 -0.8181 -0.9827 -0.2685
  219ccc     N1 5883   9.503  12.902   5.791 -0.5387  0.1501  1.0613
  219ccc     H7 5884   9.422  12.921   5.850 -0.1994  0.3377  1.4674
  219ccc     H8 5885   9.464  12.861   5.706  0.2239  2.3170 -0.4225
  219ccc     O1 5886   9.846  12.856   5.894 -0.4858  0.1612 -0.1149
  220ccc     C1 5887   9.711  12.220   5.921 -0.1362  0.9645 -0.3954
  220ccc     H1 5888   9.622  12.170   5.883  0.5724 -0.6252 -0.0605
  220ccc     H2 5889   9.709  12.224   6.031 -0.2589  1.4524 -0.4112
  220ccc     C2 5890   9.835  12.147   5.873 -0.3249  0.1943 -0.7807
  220ccc     H3 5891   9.825  12.038   5.880 -3.2796  0.4573  0.2897
  220ccc     H4 5892   9.845  12.167   5.766 -2.3769 -0.5667 -1.1538
  220ccc     C3 5893   9.961  12.181   5.955 -0.2710  0.0325 -0.1673
  220ccc     H5 5894  10.033  12.115   5.906 -0.1228  0.9281 -1.2147
  220ccc     H6 5895   9.954  12.162   6.062  0.7355  0.8317  0.0584
  220ccc     N1 5896   9.700  12.362   5.875  0.4975  0.4933 -0.5819
  220ccc     H7 5897   9.794  12.400   5.867  0.4682  0.5287 -0.7680
  220ccc     H8 5898   9.671  12.357   5.777  0.7215  0.7171 -0.6623
  220ccc     O1 5899   9.990  12.325   5.939  0.5108  0.5174 -0.5288
  221ccc     C1 5900   9.909  12.838   7.256 -0.7656  0.4017  0.3277
  221ccc     H1 5901   9.871  12.911   7.185 -0.1944 -1.1239 -1.6512
  221ccc     H2 5902   9.842  12.751   7.253 -0.8384  0.4595  0.2745
  221ccc     C2 5903  10.048  12.794   7.205 -0.6265  0.1354  0.3072
  221ccc     H3 5904  10.111  12.883   7.191 -0.2030 -0.2880 -0.5316
  221ccc     H4 5905  10.092  12.727   7.281 -3.1119 -2.4026 -0.3129
  221ccc     C3 5906  10.038  12.720   7.076 -0.4955 -0.1325  0.0375
  221ccc     H5 5907   9.972  12.633   7.087  0.8598 -1.1701  0.2896
  221ccc     H6 5908  10.138  12.690   7.042 -0.0969 -0.3713  1.3716
  221ccc     N1 5909   9.906  12.892   7.388 -0.3095  0.1646  0.3036
  221ccc     H7 5910   9.916  12.991   7.367 -3.5182  0.6467  0.5396
  221ccc     H8 5911   9.807  12.887   7.413 -0.8150 -0.0286 -1.6036
  221ccc     O1 5912   9.977  12.800   6.972 -0.3262  0.0234  0.6013
  222ccc     C1 5913   9.747  13.634   6.911 -0.3869 -0.9016  0.0578
  222ccc     H1 5914   9.652  13.579   6.900 -2.0032  1.4951  1.2026
  222ccc     H2 5915   9.767  13.647   7.018  2.3926  0.0634 -0.5031
  222ccc     C2 5916   9.855  13.547   6.844  0.2008 -0.1018  0.5328
  222ccc     H3 5917   9.827  13.530   6.739  3.0502  0.8935 -0.4909
  222ccc     H4 5918   9.940  13.617   6.840 -1.2242  1.6715 -0.0809
  222ccc     C3 5919   9.902  13.426   6.917 -0.2620 -0.5025 -0.3789
  222ccc     H5 5920   9.943  13.456   7.014 -2.7943 -0.4656  0.7588
  222ccc     H6 5921   9.986  13.375   6.867  0.8207  0.5895  0.2633
  222ccc     N1 5922   9.731  13.765   6.849  0.2841  0.1374 -0.0814
  222ccc     H7 5923   9.821  13.806   6.874  0.8182  0.1974 -1.9325
  222ccc     H8 5924   9.755  13.741   6.752  2.4709  0.1385  0.3962
  222ccc     O1 5925   9.796  13.329   6.944 -0.0283  0.0540 -0.7037
  223ccc     C1 5926  12.348   9.428   5.119  0.5695  0.1427 -0.3528
  223ccc     H1 5927  12.418   9.345   5.134  0.3769 -0.5518 -2.8602
  223ccc     H2 5928  12.341   9.489   5.210 -0.0440  0.6127 -0.7033
  223ccc     C2 5929  12.392   9.520   4.993  0.0864 -0.2820  0.3505
  223ccc     H3 5930  12.491   9.480   4.967 -0.0534 -2.2111  2.4355
  223ccc     H4 5931  12.325   9.486   4.913  0.7051 -1.2641  0.2312
  223ccc     C3 5932  12.408   9.666   5.031  0.5817 -0.4079  0.4953
  223ccc     H5 5933  12.314   9.714   5.062  0.8594 -0.5403  1.6181
  223ccc     H6 5934  12.453   9.717   4.945  2.2861  0.5645  1.9051
  223ccc     N1 5935  12.221   9.352   5.096  0.2059 -0.1664 -0.9095
  223ccc     H7 5936  12.201   9.297   5.180 -1.1408  0.6903 -0.6350
  223ccc     H8 5937  12.145   9.418   5.089 -0.0909 -0.2377  1.0399
  223ccc     O1 5938  12.499   9.685   5.138  0.0666 -0.0480 -0.5779
  224ccc     C1 5939  12.010   8.967   5.308 -0.2672  0.1710 -0.3260
  224ccc     H1 5940  12.061   8.894   5.244 -1.5080  0.7410 -2.0484
  224ccc     H2 5941  12.010   8.923   5.408  0.0818  1.8485  0.4448
  224ccc     C2 5942  12.083   9.105   5.310  0.3892  0.1090  0.3678
  224ccc     H3 5943  12.183   9.098   5.354  0.0693 -0.2708  1.0614
  224ccc     H4 5944  12.088   9.143   5.207  0.6007 -1.3099 -0.1644
  224ccc     C3 5945  12.011   9.197   5.407  0.0394  0.5440  0.4247
  224ccc     H5 5946  12.000   9.150   5.506 -0.1609  1.0353  0.6429
  224ccc     H6 5947  11.910   9.225   5.374  0.8886  2.8794 -0.4307
  224ccc     N1 5948  11.870   8.979   5.267 -0.0004 -0.2736  0.1676
  224ccc     H7 5949  11.856   8.967   5.167 -0.0369  0.4807  0.0785
  224ccc     H8 5950  11.830   8.891   5.300 -0.0431 -0.6950 -0.9622
  224ccc     O1 5951  12.083   9.323   5.425  0.1709 -0.6743  0.0887
  225ccc     C1 5952  12.360   9.457   6.766 -0.4844  0.5507  0.4166
  225ccc     H1 5953  12.357   9.395   6.676  0.3783  2.3143 -0.8818
  225ccc     H2 5954  12.464   9.475   6.796 -0.0672 -2.0369  0.7856
  225ccc     C2 5955  12.275   9.580   6.740  0.4348 -0.0109  0.5319
  225ccc     H3 5956  12.178   9.549   6.700 -0.8562  1.9099  1.9648
  225ccc     H4 5957  12.257   9.639   6.831 -1.3517 -2.5117  1.9294
  225ccc     C3 5958  12.349   9.668   6.636  0.2471  0.3203  0.4460
  225ccc     H5 5959  12.429   9.734   6.673  0.7017  0.3302 -0.5428
  225ccc     H6 5960  12.276   9.742   6.602  1.0831  1.2195  0.5711
  225ccc     N1 5961  12.315   9.389   6.889  0.3175  0.0804  0.6540
  225ccc     H7 5962  12.372   9.305   6.898 -0.7564 -0.7887 -0.4055
  225ccc     H8 5963  12.346   9.449   6.966  3.2870 -2.5197  1.7296
  225ccc     O1 5964  12.402   9.592   6.527  0.5129 -0.8403  0.6428
  226ccc     C1 5965  11.731   9.533   5.803 -0.0680  0.3878  0.6769
  226ccc     H1 5966  11.633   9.581   5.793 -0.8136 -1.0189  0.8871
  226ccc     H2 5967  11.799   9.613   5.772 -1.8583  1.0609 -1.8641
  226ccc     C2 5968  11.775   9.473   5.942 -0.2932  0.0294  0.1584
  226ccc     H3 5969  11.790   9.559   6.007  3.2617  0.1071 -0.5769
  226ccc     H4 5970  11.689   9.412   5.974 -2.3877  2.0333 -1.3592
  226ccc     C3 5971  11.908   9.389   5.940 -0.1946 -0.1917 -0.3152
  226ccc     H5 5972  11.915   9.315   5.858 -0.2330 -0.5979  0.0464
  226ccc     H6 5973  11.913   9.345   6.040  0.8554  2.8876  1.1105
  226ccc     N1 5974  11.744   9.432   5.696 -0.0234  0.7480 -0.3113
  226ccc     H7 5975  11.738   9.487   5.611 -0.9011  1.1092 -0.0260
  226ccc     H8 5976  11.842   9.406   5.697  0.0947  0.7645 -3.3898
  226ccc     O1 5977  12.026   9.472   5.924  0.3472  0.3004 -0.2050
  227ccc     C1 5978  13.176  11.150   5.885 -0.1592 -0.2850  0.4518
  227ccc     H1 5979  13.241  11.207   5.952 -0.3723  2.9631 -1.8580
  227ccc     H2 5980  13.149  11.221   5.806  3.1745  1.3471  0.6221
  227ccc     C2 5981  13.242  11.015   5.836  0.1518  0.5379  0.0946
  227ccc     H3 5982  13.346  11.033   5.804  0.4525 -1.6532 -0.2718
  227ccc     H4 5983  13.265  10.943   5.915  1.9305  0.4251 -0.4775
  227ccc     C3 5984  13.167  10.950   5.727  0.1282 -0.0548 -0.0467
  227ccc     H5 5985  13.143  11.022   5.648  0.5346 -0.8191 -0.8838
  227ccc     H6 5986  13.070  10.921   5.770  0.6197 -1.6317  0.0998
  227ccc     N1 5987  13.052  11.122   5.948  0.5128 -0.2617 -0.2121
  227ccc     H7 5988  13.002  11.073   5.875  0.6110  1.1697 -1.2922
  227ccc     H8 5989  13.079  11.051   6.016  2.0256 -1.1025 -1.6336
  227ccc     O1 5990  13.232  10.826   5.681  0.1825 -0.8533 -0.1363
  228ccc     C1 5991  13.760  10.355   6.325  0.1712 -0.6361  0.0750
  228ccc     H1 5992  13.653  10.379   6.317  0.1005 -0.4561  1.3331
  228ccc     H2 5993  13.771  10.252   6.363  1.2188 -0.2902  0.7334
  228ccc     C2 5994  13.827  10.376   6.188 -0.0353  0.0850 -0.3329
  228ccc     H3 5995  13.792  10.475   6.155 -0.8072 -0.1578 -0.2623
  228ccc     H4 5996  13.936  10.369   6.201 -0.0947  0.4174  0.4427
  228ccc     C3 5997  13.775  10.261   6.095  0.1704 -0.2195  0.8154
  228ccc     H5 5998  13.800  10.158   6.125 -0.3060 -0.4617  0.4138
  228ccc     H6 5999  13.813  10.286   5.995 -0.7140  1.1847  0.8117
  228ccc     N1 6000  13.808  10.452   6.417  0.6811  0.2059  0.4376
  228ccc     H7 6001  13.777  10.545   6.388  0.9898 -0.2575 -1.4799
  228ccc     H8 6002  13.740  10.433   6.491 -1.1433  1.2973 -0.8760
  228ccc     O1 6003  13.629  10.261   6.090  0.0233  0.3210 -0.1599
  229ccc     C1 6004  14.170  10.990   6.746  0.2873  0.5034 -0.4320
  229ccc     H1 6005  14.087  10.944   6.689  0.1837  1.4832 -1.1029
  229ccc     H2 6006  14.248  11.020   6.674  1.8079 -2.2589 -0.0690
  229ccc     C2 6007  14.122  11.115   6.830 -0.8487 -0.1899  0.1656
  229ccc     H3 6008  14.059  11.089   6.916  0.6412 -0.4981  1.2008
  229ccc     H4 6009  14.201  11.170   6.881  0.3837 -0.5454 -1.2912
  229ccc     C3 6010  14.051  11.208   6.734  0.5366 -0.6952  0.0183
  229ccc     H5 6011  14.118  11.222   6.648  1.4047  0.9477  0.9219
  229ccc     H6 6012  14.023  11.303   6.780 -1.1668 -0.1227 -2.0201
  229ccc     N1 6013  14.221  10.884   6.842 -0.0186 -0.9595  0.6976
  229ccc     H7 6014  14.227  10.797   6.790  1.1954 -1.5193  1.7371
  229ccc     H8 6015  14.136  10.855   6.891 -0.7605 -2.3543 -1.2856
  229ccc     O1 6016  13.925  11.157   6.689 -0.5828 -0.3468  0.0646
  230ccc     C1 6017  13.019  11.098   6.937 -0.4656 -0.7203  0.1857
  230ccc     H1 6018  13.108  11.089   7.001 -1.1660  0.3642  1.3694
  230ccc     H2 6019  12.932  11.061   6.993 -0.0722 -0.1096  1.2381
  230ccc     C2 6020  12.986  11.248   6.893  0.1385  0.6894  0.1179
  230ccc     H3 6021  12.925  11.236   6.802  0.8719 -1.3120 -0.1734
  230ccc     H4 6022  12.925  11.298   6.969  0.7530  1.1607  0.3061
  230ccc     C3 6023  13.114  11.335   6.881 -0.5652  0.7259  1.1262
  230ccc     H5 6024  13.179  11.351   6.967 -0.4646 -1.7931  1.6033
  230ccc     H6 6025  13.081  11.435   6.852  1.2903  1.1854  0.5240
  230ccc     N1 6026  13.064  11.022   6.824 -0.1193 -0.3299  0.8237
  230ccc     H7 6027  12.989  11.020   6.755 -0.0731  2.2039  0.6003
  230ccc     H8 6028  13.134  11.078   6.775  0.5560 -1.9828 -0.1711
  230ccc     O1 6029  13.196  11.295   6.772 -0.3519 -0.0248 -0.9565
  231ccc     C1 6030  11.488  10.151   6.628 -0.0874  0.1651  0.0173
  231ccc     H1 6031  11.515  10.179   6.731  0.6812 -0.7945  0.0943
  231ccc     H2 6032  11.454  10.244   6.582  2.1234  0.9780 -0.0943
  231ccc     C2 6033  11.605  10.078   6.560 -0.1167 -0.4965 -0.3124
  231ccc     H3 6034  11.603   9.975   6.598  0.9207 -0.0120  1.1882
  231ccc     H4 6035  11.595  10.075   6.451  1.7620  0.5619 -0.5656
  231ccc     C3 6036  11.740  10.152   6.591 -0.3422 -0.1548  0.3643
  231ccc     H5 6037  11.816  10.088   6.545 -0.2164  0.0728  0.2509
  231ccc     H6 6038  11.772  10.156   6.696 -0.4754  0.7016  0.3863
  231ccc     N1 6039  11.375  10.063   6.638 -0.2609 -0.2437 -0.9574
  231ccc     H7 6040  11.304  10.116   6.690  1.3375  3.0733 -1.8878
  231ccc     H8 6041  11.404   9.996   6.709 -0.8299  0.0163 -0.4651
  231ccc     O1 6042  11.734  10.289   6.538 -0.2623  0.5666 -0.4000
  232ccc     C1 6043  11.706  11.356   6.600  0.0595 -0.1509  0.2441
  232ccc     H1 6044  11.782  11.346   6.522  0.6269  0.8386  0.6555
  232ccc     H2 6045  11.646  11.266   6.586  1.5884 -1.1755 -0.0011
  232ccc     C2 6046  11.768  11.372   6.739  0.5170 -0.5045 -0.3354
  232ccc     H3 6047  11.856  11.438   6.741 -1.8344  2.9652 -1.8367
  232ccc     H4 6048  11.699  11.427   6.804 -0.0833 -1.7760  0.1235
  232ccc     C3 6049  11.819  11.240   6.806  0.8649 -0.1338  0.3701
  232ccc     H5 6050  11.848  11.261   6.909 -1.5957  0.5297  0.9745
  232ccc     H6 6051  11.906  11.198   6.753  1.5858  1.1701  0.4989
  232ccc     N1 6052  11.633  11.471   6.560 -1.1057  0.1947 -0.7838
  232ccc     H7 6053  11.540  11.464   6.602 -1.5904  0.1430 -1.8321
  232ccc     H8 6054  11.692  11.549   6.589  0.8553 -1.0809 -1.1492
  232ccc     O1 6055  11.706  11.156   6.804 -0.6066 -0.1805 -0.6715
  233ccc     C1 6056  10.510  10.252   5.078 -0.1234 -0.0085 -0.6660
  233ccc     H1 6057  10.573  10.213   5.160  1.5167  0.0932 -1.8248
  233ccc     H2 6058  10.486  10.359   5.085 -0.1881  0.0179 -1.2670
  233ccc     C2 6059  10.589  10.245   4.947 -0.5135 -0.2452 -0.4195
  233ccc     H3 6060  10.637  10.147   4.936  0.8492  0.2818  0.5525
  233ccc     H4 6061  10.515  10.258   4.867  0.0856  0.5134 -0.8644
  233ccc     C3 6062  10.703  10.347   4.935  0.1868  0.2322 -0.4031
  233ccc     H5 6063  10.673  10.448   4.965 -3.4018 -1.3487  2.1118
  233ccc     H6 6064  10.735  10.339   4.831 -1.9873 -3.2037 -0.9834
  233ccc     N1 6065  10.379  10.184   5.077 -0.6464 -0.0721 -0.2852
  233ccc     H7 6066  10.394  10.086   5.052  3.0205  0.1067  0.6852
  233ccc     H8 6067  10.362  10.176   5.177 -1.6761  0.2516 -0.4205
  233ccc     O1 6068  10.798  10.303   5.032  0.3168  0.1319  0.1977
  234ccc     C1 6069   9.991   9.896   5.291  0.3203  0.2257 -0.1373
  234ccc     H1 6070   9.991   9.808   5.357 -0.2055 -0.0032 -0.4354
  234ccc     H2 6071   9.920   9.958   5.348 -0.4425 -0.5582 -0.2055
  234ccc     C2 6072  10.130   9.964   5.280 -0.4328  0.0046  1.0698
  234ccc     H3 6073  10.199   9.894   5.231  0.2366  0.8408  0.7831
  234ccc     H4 6074  10.126  10.054   5.217  0.7109 -1.4652 -1.2378
  234ccc     C3 6075  10.192   9.982   5.417 -0.0575 -0.1641 -0.3208
  234ccc     H5 6076  10.235   9.888   5.454 -0.4251  0.6311  2.3404
  234ccc     H6 6077  10.121  10.014   5.494 -0.5984  0.3405 -1.0133
  234ccc     N1 6078   9.940   9.852   5.161  0.3117 -0.4488 -0.9609
  234ccc     H7 6079   9.929   9.933   5.101 -1.7439  0.1900  0.1847
  234ccc     H8 6080  10.016   9.793   5.128 -0.0673 -2.6284  1.6239
  234ccc     O1 6081  10.296  10.085   5.401  0.6128 -0.0706  0.2383
  235ccc     C1 6082  13.110   9.226   5.467 -0.1332 -0.1801  0.4045
  235ccc     H1 6083  13.051   9.140   5.431  0.2770 -1.0103  1.6362
  235ccc     H2 6084  13.130   9.274   5.371  0.1921 -0.9008  0.1080
  235ccc     C2 6085  13.017   9.304   5.565 -0.4315  0.2155  0.1994
  235ccc     H3 6086  12.913   9.304   5.530  0.1161  1.7268 -1.5606
  235ccc     H4 6087  13.016   9.255   5.664 -1.7677 -1.9466 -0.7927
  235ccc     C3 6088  13.055   9.453   5.562 -0.2640 -0.5168 -0.5010
  235ccc     H5 6089  13.157   9.464   5.602 -0.5025 -0.0345 -0.0160
  235ccc     H6 6090  12.978   9.493   5.629  0.3173  0.3068 -0.3088
  235ccc     N1 6091  13.237   9.170   5.521 -1.2193  0.3391 -0.0501
  235ccc     H7 6092  13.220   9.113   5.604  2.5602  2.5422  2.5300
  235ccc     H8 6093  13.258   9.104   5.446  0.1200 -0.0459  0.6266
  235ccc     O1 6094  13.040   9.521   5.431 -0.1950  0.1810  0.4219
  236ccc     C1 6095  12.831   9.242   4.536  0.0730  0.0465 -0.3901
  236ccc     H1 6096  12.885   9.146   4.538 -1.7129 -1.0217 -1.1075
  236ccc     H2 6097  12.773   9.242   4.629 -0.8582 -1.0091 -0.9453
  236ccc     C2 6098  12.926   9.361   4.534 -0.4297  0.5768  0.8219
  236ccc     H3 6099  12.992   9.365   4.447 -1.7365  2.3951 -0.1434
  236ccc     H4 6100  12.858   9.448   4.532  0.8511  1.6624  2.0007
  236ccc     C3 6101  13.010   9.376   4.665  0.2793 -0.4656  0.1897
  236ccc     H5 6102  13.081   9.452   4.629  0.5017 -0.6714  0.1977
  236ccc     H6 6103  13.060   9.281   4.687  0.0720 -0.0881  2.5194
  236ccc     N1 6104  12.749   9.235   4.417 -0.3047  0.0025  0.5742
  236ccc     H7 6105  12.809   9.220   4.336  1.2260 -0.0853  1.6898
  236ccc     H8 6106  12.717   9.331   4.401 -2.3666 -1.0394 -2.5348
  236ccc     O1 6107  12.926   9.420   4.774  0.9026  0.3354  0.2595
  237ccc     C1 6108  11.104   9.668   5.327 -0.2938 -0.4045  0.2911
  237ccc     H1 6109  11.180   9.633   5.256 -0.5113  1.1588 -0.7935
  237ccc     H2 6110  11.164   9.675   5.418  1.5885 -0.7808 -0.8574
  237ccc     C2 6111  11.040   9.795   5.270  0.5924 -0.2470 -0.8618
  237ccc     H3 6112  10.969   9.770   5.189  0.0849  0.3331 -0.6042
  237ccc     H4 6113  10.971   9.837   5.344  1.0139 -1.4010  0.2081
  237ccc     C3 6114  11.145   9.895   5.217  0.2567  0.3552 -0.4615
  237ccc     H5 6115  11.107   9.997   5.209  0.8648  0.6113 -0.1764
  237ccc     H6 6116  11.163   9.862   5.114 -3.6611 -1.0094 -0.8896
  237ccc     N1 6117  11.012   9.556   5.339  0.2405  0.1703  0.9571
  237ccc     H7 6118  11.005   9.541   5.238 -2.6441  0.9625  0.9510
  237ccc     H8 6119  11.079   9.485   5.370  1.2979  0.7531  0.0726
  237ccc     O1 6120  11.272   9.888   5.296  0.1637 -0.4975 -0.3634
  238ccc     C1 6121  11.295  10.210   6.288 -0.6951 -0.4542  0.2054
  238ccc     H1 6122  11.303  10.196   6.397  1.0022 -1.6790 -0.0355
  238ccc     H2 6123  11.217  10.286   6.277  0.7322  0.9044 -1.0725
  238ccc     C2 6124  11.420  10.278   6.239  0.2247 -0.5779  0.9147
  238ccc     H3 6125  11.421  10.372   6.296 -0.7328  0.0175 -0.0260
  238ccc     H4 6126  11.509  10.221   6.268  1.4856  1.0966  0.5080
  238ccc     C3 6127  11.424  10.331   6.094  0.3003  0.3628  0.7482
  238ccc     H5 6128  11.507  10.401   6.077  1.2081 -0.6718  0.8229
  238ccc     H6 6129  11.324  10.374   6.080  0.1803 -0.3597 -0.8717
  238ccc     N1 6130  11.280  10.084   6.225  0.1296 -0.1614 -0.0079
  238ccc     H7 6131  11.311  10.100   6.130  1.5730  1.6093  0.6919
  238ccc     H8 6132  11.349  10.028   6.274  0.7039  1.6391  1.3494
  238ccc     O1 6133  11.442  10.219   6.002  0.0326  0.0699  0.6600
  239ccc     C1 6134  11.878  11.319   7.667  0.4372 -0.2067 -0.2101
  239ccc     H1 6135  11.921  11.380   7.587  1.8412 -1.1569 -0.2091
  239ccc     H2 6136  11.864  11.378   7.758  0.7692 -1.2535  0.5462
  239ccc     C2 6137  11.752  11.252   7.621  0.7563 -0.0585 -0.2197
  239ccc     H3 6138  11.769  11.183   7.537  0.9649  1.3037 -1.3418
  239ccc     H4 6139  11.712  11.196   7.706  0.5077  3.3621  2.1542
  239ccc     C3 6140  11.646  11.352   7.573 -0.1834 -0.4702 -0.0622
  239ccc     H5 6141  11.611  11.417   7.654 -0.7698  1.3335 -1.7118
  239ccc     H6 6142  11.565  11.285   7.541  0.0696 -0.2679 -1.1436
  239ccc     N1 6143  11.974  11.213   7.697 -0.4978  0.2291 -0.4961
  239ccc     H7 6144  12.045  11.269   7.744 -0.9554  0.0923  0.3708
  239ccc     H8 6145  11.929  11.158   7.770  0.1821  0.0006 -0.2443
  239ccc     O1 6146  11.678  11.435   7.462 -0.1340 -0.4503  0.0991
  240ccc     C1 6147  11.789  10.825   7.384 -0.1945 -0.2709  0.4433
  240ccc     H1 6148  11.858  10.752   7.340 -1.0239 -1.8483  1.6404
  240ccc     H2 6149  11.843  10.916   7.412  1.1275 -0.7376 -0.4953
  240ccc     C2 6150  11.688  10.874   7.288  0.5237  0.9026  0.4772
  240ccc     H3 6151  11.727  10.859   7.187  1.6094  2.9670  0.5187
  240ccc     H4 6152  11.600  10.809   7.292  1.1719  0.0455  1.3027
  240ccc     C3 6153  11.639  11.023   7.306 -0.4987  0.1687  0.7233
  240ccc     H5 6154  11.725  11.081   7.270 -1.4291  0.2743 -1.5439
  240ccc     H6 6155  11.619  11.040   7.412 -2.0197  0.9244  0.3430
  240ccc     N1 6156  11.741  10.754   7.500  0.9284 -0.7483 -0.6702
  240ccc     H7 6157  11.665  10.809   7.539 -0.6985 -2.9906 -0.4645
  240ccc     H8 6158  11.694  10.669   7.468 -1.9668  0.5427 -0.2041
  240ccc     O1 6159  11.528  11.044   7.224  0.1925 -0.0872  0.4207
  241ccc     C1 6160  11.224  11.593   8.782 -0.2389 -0.5752  0.0964
  241ccc     H1 6161  11.215  11.641   8.683 -1.3421  1.5798  1.1589
  241ccc     H2 6162  11.190  11.670   8.853  0.6466 -1.1077  1.1164
  241ccc     C2 6163  11.138  11.472   8.799  0.3250 -1.0814  0.1982
  241ccc     H3 6164  11.174  11.403   8.722  2.0629  0.7089 -0.7040
  241ccc     H4 6165  11.152  11.433   8.901  1.2713  2.3940  1.5580
  241ccc     C3 6166  10.991  11.514   8.786 -0.3834  0.5665  0.2432
  241ccc     H5 6167  10.965  11.596   8.854 -0.6619 -1.2212  2.4530
  241ccc     H6 6168  10.928  11.428   8.811  0.7716 -0.7593 -1.2011
  241ccc     N1 6169  11.363  11.558   8.808  0.4121  0.5689 -0.0098
  241ccc     H7 6170  11.421  11.642   8.807  0.0376  0.8496 -1.9864
  241ccc     H8 6171  11.366  11.528   8.905  0.1515  0.0116 -0.1699
  241ccc     O1 6172  10.954  11.557   8.655 -0.1121 -0.6631 -0.4424
  242ccc     C1 6173  10.370  12.385   8.371  0.1507 -0.1842 -0.4772
  242ccc     H1 6174  10.406  12.305   8.437 -0.3490  1.0452  1.3671
  242ccc     H2 6175  10.450  12.459   8.357 -1.1436  0.7485 -3.9538
  242ccc     C2 6176  10.334  12.327   8.232  0.0894 -0.4815  0.0997
  242ccc     H3 6177  10.241  12.268   8.232  0.7722 -1.5732 -0.5227
  242ccc     H4 6178  10.311  12.416   8.172  2.3242  0.8442  1.0664
  242ccc     C3 6179  10.442  12.245   8.168  0.0317 -0.2214 -0.3778
  242ccc     H5 6180  10.526  12.310   8.141 -0.3051  1.1010  1.5381
  242ccc     H6 6181  10.396  12.188   8.086 -0.8032 -0.4106  0.2069
  242ccc     N1 6182  10.255  12.462   8.430 -0.0288  0.5017  0.3861
  242ccc     H7 6183  10.191  12.397   8.475  1.0352 -1.5497 -0.8884
  242ccc     H8 6184  10.291  12.501   8.517  0.5955 -1.2974  0.9782
  242ccc     O1 6185  10.495  12.142   8.254  0.2866  0.0579 -0.0494
  243ccc     C1 6186  10.159  10.409   8.342 -0.4102 -0.5846  0.2554
  243ccc     H1 6187  10.137  10.458   8.437  1.2314 -0.2613  0.4919
  243ccc     H2 6188  10.081  10.422   8.265  1.2775  0.3197 -1.3906
  243ccc     C2 6189  10.279  10.473   8.278 -0.0501 -0.2230 -0.2277
  243ccc     H3 6190  10.371  10.466   8.338  0.2591  0.0107 -0.6684
  243ccc     H4 6191  10.292  10.419   8.183 -0.6328 -0.0030 -0.4335
  243ccc     C3 6192  10.266  10.622   8.240 -0.0046  0.2779 -0.8182
  243ccc     H5 6193  10.192  10.636   8.160 -0.0803  0.3682 -0.7322
  243ccc     H6 6194  10.363  10.651   8.199 -0.4220  1.5483 -0.9470
  243ccc     N1 6195  10.189  10.268   8.357  0.3550  0.2085  0.1346
  243ccc     H7 6196  10.264  10.280   8.426  0.2100 -0.3819  0.4015
  243ccc     H8 6197  10.110  10.250   8.419 -0.0615  1.5015  0.0121
  243ccc     O1 6198  10.240  10.696   8.357  0.3214 -0.6113 -0.0150
  244ccc     C1 6199  10.212  11.950   8.406  0.6647  1.0019  0.2421
  244ccc     H1 6200  10.314  11.985   8.427  1.0768  0.4612 -0.7791
  244ccc     H2 6201  10.186  11.994   8.309 -0.2409  0.2830  0.1525
  244ccc     C2 6202  10.203  11.796   8.397 -0.4341 -0.4831  0.4408
  244ccc     H3 6203  10.104  11.752   8.378  0.2034 -1.8619  0.1925
  244ccc     H4 6204  10.261  11.752   8.315 -1.1412 -0.5707 -0.0203
  244ccc     C3 6205  10.269  11.732   8.516 -0.5416  0.2014  0.1074
  244ccc     H5 6206  10.210  11.740   8.609  0.0120 -1.8316  0.6872
  244ccc     H6 6207  10.362  11.787   8.532 -0.5861  0.2992  0.0237
  244ccc     N1 6208  10.124  12.000   8.505 -0.2103 -0.6919 -0.5126
  244ccc     H7 6209  10.128  12.099   8.481 -1.0007 -0.8626 -1.4108
  244ccc     H8 6210  10.033  11.976   8.467 -1.2165  1.3035  0.4567
  244ccc     O1 6211  10.290  11.595   8.493  0.1637  0.6673 -0.1834
  245ccc     C1 6212  11.407  12.079   8.532  0.8843 -0.2565  0.4607
  245ccc     H1 6213  11.321  12.109   8.594  0.1578  1.8190 -1.4040
  245ccc     H2 6214  11.384  11.987   8.476  1.1486 -0.2766  0.3859
  245ccc     C2 6215  11.449  12.194   8.433  0.3717  0.1209  0.1650
  245ccc     H3 6216  11.358  12.223   8.378  1.2323 -1.7583 -2.5032
  245ccc     H4 6217  11.483  12.280   8.491  1.1693 -0.5401  0.6932
  245ccc     C3 6218  11.552  12.149   8.324  0.4715  0.0415 -0.1613
  245ccc     H5 6219  11.637  12.113   8.383 -0.4402  0.6754  1.6348
  245ccc     H6 6220  11.574  12.232   8.256  1.5933  0.2732  0.4723
  245ccc     N1 6221  11.512  12.055   8.620  0.1048 -0.5167  0.1546
  245ccc     H7 6222  11.492  11.979   8.685 -0.1234 -0.2699  0.3690
  245ccc     H8 6223  11.585  12.024   8.556 -1.0121  0.7650 -1.8377
  245ccc     O1 6224  11.504  12.035   8.247  0.0247 -0.2610 -0.0090
  246ccc     C1 6225  12.121  11.830   7.506 -1.0151 -0.0999  0.2133
  246ccc     H1 6226  12.075  11.788   7.415 -1.8550 -0.5765  0.8375
  246ccc     H2 6227  12.043  11.898   7.545 -1.2280  0.7087 -1.5315
  246ccc     C2 6228  12.166  11.722   7.604  0.0619 -0.7116  0.2473
  246ccc     H3 6229  12.258  11.671   7.575 -0.4825 -1.4664 -0.1983
  246ccc     H4 6230  12.180  11.768   7.703 -1.5867 -0.6725  0.5041
  246ccc     C3 6231  12.074  11.595   7.612  0.0108 -0.4387 -1.1091
  246ccc     H5 6232  12.111  11.541   7.700 -1.1898  3.3713  2.0780
  246ccc     H6 6233  12.106  11.528   7.532 -1.3275 -2.1145 -0.2926
  246ccc     N1 6234  12.232  11.912   7.459  0.6883 -0.8868 -0.7661
  246ccc     H7 6235  12.299  11.847   7.418  0.5975 -2.3078  1.1746
  246ccc     H8 6236  12.187  11.956   7.379 -0.9765 -1.6100 -0.2760
  246ccc     O1 6237  11.937  11.640   7.613 -0.2978  0.5819  0.6269
  247ccc     C1 6238  10.574  11.341   5.277  0.8466  0.0593 -0.0002
  247ccc     H1 6239  10.677  11.377   5.283  0.5100  0.7284  2.9896
  247ccc     H2 6240  10.577  11.250   5.215  0.7165  0.3454 -0.4297
  247ccc     C2 6241  10.504  11.316   5.410 -0.7667 -0.1929 -0.2790
  247ccc     H3 6242  10.483  11.403   5.473  0.9551 -1.4263  2.1419
  247ccc     H4 6243  10.405  11.278   5.385 -2.3668  2.3120  1.7850
  247ccc     C3 6244  10.580  11.215   5.494  0.0475 -0.1291 -0.1125
  247ccc     H5 6245  10.580  11.118   5.444 -0.2845 -0.0746 -0.2180
  247ccc     H6 6246  10.533  11.207   5.592 -0.8134  1.3020 -0.3721
  247ccc     N1 6247  10.503  11.442   5.201 -0.3976 -0.4073 -0.3444
  247ccc     H7 6248  10.504  11.529   5.253  3.9854  0.2502 -1.1637
  247ccc     H8 6249  10.541  11.460   5.108 -0.8911  1.8761 -0.1625
  247ccc     O1 6250  10.712  11.264   5.527  0.5972  0.1907 -0.0650
  248ccc     C1 6251  10.108  11.369   6.208 -0.1081  0.2610 -0.0583
  248ccc     H1 6252  10.214  11.343   6.216  0.0643  0.4958 -1.3397
  248ccc     H2 6253  10.068  11.408   6.302 -2.8591 -1.2600 -0.5049
  248ccc     C2 6254  10.103  11.481   6.108  0.2386  0.0058  0.0995
  248ccc     H3 6255  10.112  11.443   6.005 -1.5330 -0.1552 -0.0335
  248ccc     H4 6256  10.008  11.535   6.119  0.2759  0.1906 -0.4775
  248ccc     C3 6257  10.200  11.592   6.149  0.1329 -0.6974  0.5794
  248ccc     H5 6258  10.211  11.600   6.257 -0.1905 -1.4756  0.6801
  248ccc     H6 6259  10.157  11.684   6.107  0.6860 -1.5908 -2.1442
  248ccc     N1 6260  10.028  11.247   6.168  0.0230 -0.7049  0.0849
  248ccc     H7 6261  10.087  11.201   6.099  1.3619  0.3256  0.4943
  248ccc     H8 6262  10.042  11.189   6.250 -0.4657 -0.7988  0.1069
  248ccc     O1 6263  10.331  11.571   6.097 -0.2809 -0.2960  0.3091
  249ccc     C1 6264   9.903  11.075   5.458  0.4384 -0.5173  0.1140
  249ccc     H1 6265   9.976  10.999   5.426 -1.1748 -2.0216 -0.1317
  249ccc     H2 6266   9.894  11.090   5.567  0.9990  0.0394  0.0886
  249ccc     C2 6267   9.937  11.216   5.407 -0.4683 -0.1726  0.2119
  249ccc     H3 6268   9.936  11.218   5.298 -0.0241  0.0690  0.2125
  249ccc     H4 6269   9.857  11.281   5.445 -1.7437 -0.4889 -1.7923
  249ccc     C3 6270  10.072  11.267   5.464 -0.2186  0.3702  0.3214
  249ccc     H5 6271  10.085  11.371   5.432 -0.1478 -0.0128 -0.9537
  249ccc     H6 6272  10.147  11.209   5.409 -0.8543  0.6437 -0.8973
  249ccc     N1 6273   9.767  11.021   5.425 -0.7299  0.0946 -0.0679
  249ccc     H7 6274   9.767  10.945   5.493 -0.7641  0.2223  0.0757
  249ccc     H8 6275   9.702  11.083   5.473  0.0308  1.7284 -1.0475
  249ccc     O1 6276  10.095  11.239   5.599 -0.1336 -0.4769  0.2131
  250ccc     C1 6277   9.845  10.908   5.774 -0.1910  0.0086 -0.1662
  250ccc     H1 6278   9.873  11.009   5.743  1.9047 -0.3534  0.3408
  250ccc     H2 6279   9.935  10.845   5.783 -0.9323 -1.1279 -0.4755
  250ccc     C2 6280   9.784  10.911   5.913 -0.0825 -0.1747 -0.9228
  250ccc     H3 6281   9.716  10.997   5.913  0.1474  0.0380  0.9113
  250ccc     H4 6282   9.729  10.819   5.934  0.3654 -0.5027 -1.1716
  250ccc     C3 6283   9.896  10.929   6.019  0.5754 -0.0210  0.1187
  250ccc     H5 6284   9.851  10.955   6.116 -0.2567 -1.7371  0.2229
  250ccc     H6 6285   9.948  11.017   5.978  1.2803 -1.5563 -2.5121
  250ccc     N1 6286   9.749  10.851   5.679 -0.3159 -0.0210 -0.1755
  250ccc     H7 6287   9.748  10.753   5.708  2.6060  0.4564  1.9503
  250ccc     H8 6288   9.657  10.889   5.701 -0.9050 -0.0064 -2.4014
  250ccc     O1 6289   9.975  10.812   6.032  0.4208 -0.0183  0.4358
  251ccc     C1 6290   9.463  11.304   7.445  0.0872  0.3786 -0.0523
  251ccc     H1 6291   9.564  11.348   7.437 -0.2721  1.7043  1.9990
  251ccc     H2 6292   9.432  11.286   7.341  0.2367 -0.9134  0.1171
  251ccc     C2 6293   9.482  11.177   7.532  0.3751  0.6728  0.1066
  251ccc     H3 6294   9.536  11.198   7.625  1.3003 -0.0823 -0.2367
  251ccc     H4 6295   9.380  11.153   7.565 -0.0119  2.2651  0.1366
  251ccc     C3 6296   9.547  11.057   7.452 -0.0544 -0.3359  0.6038
  251ccc     H5 6297   9.472  10.995   7.402 -2.8211  2.8088  0.4469
  251ccc     H6 6298   9.604  11.004   7.528  2.0834  1.2500  0.2045
  251ccc     N1 6299   9.389  11.412   7.510 -0.0948  0.3573  0.3113
  251ccc     H7 6300   9.425  11.430   7.603 -0.8374  0.1100  0.6532
  251ccc     H8 6301   9.396  11.496   7.452 -3.1895  0.1126 -0.6256
  251ccc     O1 6302   9.636  11.112   7.353 -0.2087 -0.0919  0.1943
  252ccc     C1 6303   9.424  11.202   7.003  0.2769 -0.0285 -0.8981
  252ccc     H1 6304   9.404  11.138   6.916 -2.3181 -0.8903  0.2340
  252ccc     H2 6305   9.514  11.155   7.044 -0.1348 -2.3327 -2.4299
  252ccc     C2 6306   9.449  11.353   6.991 -0.1733 -0.3757  0.4142
  252ccc     H3 6307   9.354  11.403   6.969  0.2254  0.4230  0.4575
  252ccc     H4 6308   9.493  11.397   7.081 -0.0850 -0.8841  0.6241
  252ccc     C3 6309   9.538  11.369   6.861 -0.5654 -0.2883 -0.6138
  252ccc     H5 6310   9.563  11.469   6.824 -0.4490  0.2666  0.8967
  252ccc     H6 6311   9.494  11.324   6.771 -2.2339 -0.1341  0.0895
  252ccc     N1 6312   9.313  11.173   7.094 -0.1034  0.9290  0.1674
  252ccc     H7 6313   9.311  11.071   7.099 -1.1439  0.8835 -0.8642
  252ccc     H8 6314   9.336  11.205   7.189  1.0746 -0.0505  0.2353
  252ccc     O1 6315   9.657  11.304   6.905  0.0202 -0.3764  0.3965
  253ccc     C1 6316   9.840  11.783   8.662  0.1859  0.1664 -0.5272
  253ccc     H1 6317   9.946  11.799   8.637  0.3224 -1.1363 -0.8452
  253ccc     H2 6318   9.778  11.848   8.599  0.0437  0.6142  0.0609
  253ccc     C2 6319   9.818  11.633   8.635  0.2928  0.3109 -0.2633
  253ccc     H3 6320   9.860  11.572   8.716  0.7041  0.0143 -0.6863
  253ccc     H4 6321   9.712  11.605   8.640  0.9193 -2.5057 -0.9161
  253ccc     C3 6322   9.893  11.584   8.510  0.0017  0.1302  0.1852
  253ccc     H5 6323  10.000  11.609   8.515  0.0692 -0.3779  3.6276
  253ccc     H6 6324   9.846  11.626   8.420  0.6987 -0.9577 -0.7063
  253ccc     N1 6325   9.811  11.829   8.805 -0.1146  0.6573  0.3940
  253ccc     H7 6326   9.818  11.930   8.803 -0.4739  0.6796 -1.4035
  253ccc     H8 6327   9.710  11.818   8.819  0.0256  0.7078  1.5202
  253ccc     O1 6328   9.891  11.436   8.504  0.5605 -0.2396 -0.2838
  254ccc     C1 6329   9.781  10.629   8.288  0.5103 -0.5521  0.2892
  254ccc     H1 6330   9.855  10.570   8.344  1.1001  0.9537  1.1524
  254ccc     H2 6331   9.806  10.736   8.286  0.8200 -0.5993  1.2738
  254ccc     C2 6332   9.762  10.587   8.142 -0.6714  0.0800 -1.0841
  254ccc     H3 6333   9.730  10.482   8.134 -0.7263 -0.1924  1.7626
  254ccc     H4 6334   9.689  10.649   8.088 -0.7785 -0.7311 -1.8980
  254ccc     C3 6335   9.898  10.598   8.065  0.0530 -0.3101  0.3169
  254ccc     H5 6336   9.879  10.568   7.962  3.5694  1.0199 -0.8533
  254ccc     H6 6337   9.974  10.531   8.108  0.9768 -0.7276 -1.8506
  254ccc     N1 6338   9.647  10.639   8.357 -0.6222  0.1651 -0.2196
  254ccc     H7 6339   9.594  10.678   8.280 -0.9520 -1.5140 -0.8807
  254ccc     H8 6340   9.605  10.547   8.345 -1.3814  0.7128 -2.0969
  254ccc     O1 6341   9.944  10.733   8.070 -0.3557  0.6344  0.2029
  255ccc     C1 6342  10.920  13.011   4.476  0.4024 -0.1902 -0.3406
  255ccc     H1 6343  10.980  13.092   4.433 -2.3887 -0.2126 -4.9966
  255ccc     H2 6344  10.965  12.916   4.444 -0.4191 -0.6960 -0.0394
  255ccc     C2 6345  10.905  13.010   4.627 -0.4353  0.2199  0.2678
  255ccc     H3 6346  10.869  13.107   4.662 -0.1152  0.4994 -0.1646
  255ccc     H4 6347  10.831  12.940   4.667 -0.8222  0.4406 -0.0605
  255ccc     C3 6348  11.045  12.982   4.695  0.7017 -0.3098  0.2561
  255ccc     H5 6349  11.080  12.884   4.660 -0.8743 -0.2165 -1.7309
  255ccc     H6 6350  11.041  12.987   4.805  0.6786  0.6161  0.2215
  255ccc     N1 6351  10.790  13.019   4.412 -0.1227 -0.2208  0.2257
  255ccc     H7 6352  10.748  13.110   4.430  0.2800  0.5525 -2.4022
  255ccc     H8 6353  10.813  13.037   4.315  0.2687  0.0737  0.3673
  255ccc     O1 6354  11.136  13.077   4.644 -0.0072 -0.1904  0.1944
  256ccc     C1 6355  11.401  13.605   4.222 -0.5575  1.0598 -0.1164
  256ccc     H1 6356  11.481  13.603   4.147 -0.2746  0.3561  0.2001
  256ccc     H2 6357  11.411  13.507   4.272  0.3646  1.9127  1.4576
  256ccc     C2 6358  11.431  13.715   4.325  0.6820  0.7364 -0.4422
  256ccc     H3 6359  11.540  13.716   4.342  0.8785 -1.6135 -1.2314
  256ccc     H4 6360  11.403  13.815   4.290  2.1975  0.5065 -2.5247
  256ccc     C3 6361  11.354  13.695   4.462  0.0033  0.7069  0.5707
  256ccc     H5 6362  11.250  13.690   4.429  0.2129 -0.5822  0.0346
  256ccc     H6 6363  11.358  13.780   4.531  0.5251  0.3137  1.0379
  256ccc     N1 6364  11.276  13.618   4.155 -0.2888 -0.3303 -0.2184
  256ccc     H7 6365  11.288  13.700   4.095 -1.3834  0.0753  0.1018
  256ccc     H8 6366  11.282  13.538   4.092  0.0252 -1.6400  1.4109
  256ccc     O1 6367  11.390  13.574   4.537  0.1723  0.1899 -0.0063
  257ccc     C1 6368  13.050  13.603   6.059  0.3408  0.0578  0.0864
  257ccc     H1 6369  12.941  13.595   6.049  0.5192 -2.8738 -0.5339
  257ccc     H2 6370  13.079  13.613   6.164  0.0358 -0.4918  0.2310
  257ccc     C2 6371  13.109  13.469   6.010 -0.2143  0.8774 -0.2830
  257ccc     H3 6372  13.121  13.471   5.901 -2.2473  0.0996 -0.5668
  257ccc     H4 6373  13.205  13.451   6.061 -1.3149 -2.2007  0.9512
  257ccc     C3 6374  13.029  13.355   6.060  0.6226  0.5540  0.3445
  257ccc     H5 6375  12.993  13.365   6.163  0.3266 -0.7530  0.3859
  257ccc     H6 6376  13.089  13.263   6.051  0.1955  0.1656  1.3172
  257ccc     N1 6377  13.099  13.715   5.979  0.4978  0.1235 -0.4799
  257ccc     H7 6378  13.194  13.725   6.015  1.2681  1.8959 -2.7756
  257ccc     H8 6379  13.108  13.673   5.887 -0.0551 -1.0100 -0.0409
  257ccc     O1 6380  12.915  13.341   5.976  0.2587 -0.0356  0.9206
  258ccc     C1 6381  12.621  13.493   5.001  0.7698  0.8838  0.2163
  258ccc     H1 6382  12.536  13.504   5.070  0.2682  0.7601 -0.3741
  258ccc     H2 6383  12.690  13.578   5.008 -0.5529  2.0583 -0.4800
  258ccc     C2 6384  12.691  13.364   5.029 -0.1418  0.4102  0.2593
  258ccc     H3 6385  12.623  13.280   5.011 -1.5489  1.2952  1.3092
  258ccc     H4 6386  12.778  13.353   4.963 -1.1030 -0.0989 -0.9722
  258ccc     C3 6387  12.728  13.349   5.173  0.6113  0.0465  0.5074
  258ccc     H5 6388  12.800  13.431   5.190  1.8835 -0.7555 -0.7500
  258ccc     H6 6389  12.781  13.255   5.189 -1.2446 -1.5549 -1.9934
  258ccc     N1 6390  12.551  13.490   4.878  0.2395 -0.6844 -0.4128
  258ccc     H7 6391  12.491  13.408   4.888 -2.2191  1.1388  0.9623
  258ccc     H8 6392  12.493  13.573   4.890 -0.3876 -1.0325 -0.9482
  258ccc     O1 6393  12.616  13.371   5.254  0.1245  0.3248 -0.1466
  259ccc     C1 6394  11.457  12.812   5.891  0.3467 -0.8873 -0.3515
  259ccc     H1 6395  11.547  12.874   5.884  0.9468 -1.5808  0.7873
  259ccc     H2 6396  11.389  12.889   5.929  1.7639  0.6625 -0.8361
  259ccc     C2 6397  11.404  12.757   5.750 -0.0632 -0.5480 -0.0663
  259ccc     H3 6398  11.491  12.714   5.699  0.9474  0.1586  1.0074
  259ccc     H4 6399  11.334  12.675   5.767  2.7017 -3.0341  0.1271
  259ccc     C3 6400  11.345  12.867   5.664 -0.2091 -0.0203  0.1333
  259ccc     H5 6401  11.246  12.905   5.691 -0.4891 -1.4063  1.1276
  259ccc     H6 6402  11.337  12.831   5.561  0.3285 -1.2217  0.5061
  259ccc     N1 6403  11.488  12.705   5.990  0.2558 -0.6968 -0.1723
  259ccc     H7 6404  11.438  12.733   6.074  2.5452  1.4173  0.5767
  259ccc     H8 6405  11.441  12.621   5.956  0.1079 -0.2016 -1.2368
  259ccc     O1 6406  11.431  12.983   5.650 -0.2405  0.0215  0.1732
  260ccc     C1 6407  11.397  13.902   4.896  0.1148  0.0863  0.4384
  260ccc     H1 6408  11.469  13.985   4.894  0.4511 -0.2069  0.3765
  260ccc     H2 6409  11.437  13.834   4.821 -0.4058  1.3043 -1.0041
  260ccc     C2 6410  11.394  13.843   5.036 -0.7010  0.1979 -0.4906
  260ccc     H3 6411  11.359  13.926   5.099 -0.3417 -0.1138  0.1326
  260ccc     H4 6412  11.314  13.768   5.035 -0.0194 -0.5446 -0.1552
  260ccc     C3 6413  11.525  13.775   5.083  0.1500 -0.1453  0.0919
  260ccc     H5 6414  11.538  13.765   5.191 -0.2560 -0.6704  0.0971
  260ccc     H6 6415  11.609  13.834   5.044 -1.9259  1.5610 -2.0530
  260ccc     N1 6416  11.264  13.944   4.852  0.6902 -0.1976 -0.4443
  260ccc     H7 6417  11.203  13.862   4.856 -0.1685  0.3860 -1.2477
  260ccc     H8 6418  11.229  14.009   4.922 -0.5540 -0.7205 -0.5551
  260ccc     O1 6419  11.536  13.643   5.031  0.1363 -0.7225  0.7600
  261ccc     C1 6420  11.621  14.671   7.515  0.6287 -0.2273 -0.1988
  261ccc     H1 6421  11.661  14.772   7.501  0.3645  0.1140  1.3438
  261ccc     H2 6422  11.513  14.689   7.505  0.5273 -0.0824  0.9626
  261ccc     C2 6423  11.667  14.570   7.417  0.4681  0.7325 -0.4109
  261ccc     H3 6424  11.771  14.539   7.434 -0.0583 -1.2625 -0.6387
  261ccc     H4 6425  11.613  14.475   7.415  1.6535  0.0356 -0.4657
  261ccc     C3 6426  11.656  14.609   7.270 -0.3331  0.6560 -0.5151
  261ccc     H5 6427  11.668  14.717   7.256  1.8843  0.6850  0.9849
  261ccc     H6 6428  11.555  14.579   7.242  0.8076 -3.5450 -0.8554
  261ccc     N1 6429  11.649  14.633   7.656 -0.0919 -0.2590 -0.5138
  261ccc     H7 6430  11.749  14.642   7.675 -0.2116  2.7656 -0.7855
  261ccc     H8 6431  11.610  14.705   7.716  2.3919 -0.0440  0.9766
  261ccc     O1 6432  11.747  14.524   7.186  0.0490  0.5058 -0.2816
  262ccc     C1 6433  11.717  13.529   6.797 -0.4301  0.4815  0.9061
  262ccc     H1 6434  11.794  13.596   6.757 -0.5636 -0.3819 -0.8615
  262ccc     H2 6435  11.765  13.467   6.874  1.9731 -0.1573 -0.9912
  262ccc     C2 6436  11.612  13.620   6.857 -0.0173 -0.5852  0.8342
  262ccc     H3 6437  11.562  13.683   6.782  1.4547  2.1552  2.0473
  262ccc     H4 6438  11.535  13.554   6.900 -1.4397  0.4418 -0.0268
  262ccc     C3 6439  11.673  13.708   6.966 -0.5288  0.2494 -0.4575
  262ccc     H5 6440  11.728  13.637   7.029 -1.5114 -1.8616 -1.9064
  262ccc     H6 6441  11.594  13.753   7.027 -0.8038 -1.3696  0.4337
  262ccc     N1 6442  11.666  13.443   6.681 -0.8007  0.6560  0.1627
  262ccc     H7 6443  11.572  13.409   6.705  0.5409 -2.9551  1.1091
  262ccc     H8 6444  11.658  13.515   6.610  0.5730  0.9293  0.2682
  262ccc     O1 6445  11.757  13.804   6.898  0.3338  0.3102 -0.0350
  263ccc     C1 6446  14.042  11.457   5.775 -0.1067 -0.0857 -0.4775
  263ccc     H1 6447  14.091  11.359   5.779  2.0547  0.8621 -2.0274
  263ccc     H2 6448  13.933  11.445   5.777  0.0460 -2.5814 -2.2162
  263ccc     C2 6449  14.096  11.541   5.895  0.2768 -1.0125  0.2275
  263ccc     H3 6450  14.200  11.576   5.898 -0.0894  0.0964  0.5169
  263ccc     H4 6451  14.035  11.632   5.889 -0.5741 -1.6317 -1.2605
  263ccc     C3 6452  14.083  11.468   6.031  0.3695  0.0450  0.4625
  263ccc     H5 6453  14.097  11.542   6.110  1.4470  0.5966 -0.2190
  263ccc     H6 6454  14.162  11.395   6.052  1.1152  0.5907 -0.3452
  263ccc     N1 6455  14.070  11.520   5.643 -0.5202  1.0455 -0.4182
  263ccc     H7 6456  14.172  11.521   5.637 -0.0940  2.0779  3.7960
  263ccc     H8 6457  14.016  11.471   5.572 -0.9793  3.0824 -1.5648
  263ccc     O1 6458  13.951  11.409   6.036  0.0523 -0.0308 -0.1872
  264ccc     C1 6459  13.519  10.677   6.555 -0.9751 -0.0343 -0.0905
  264ccc     H1 6460  13.618  10.715   6.527  0.1277  0.0621  3.5159
  264ccc     H2 6461  13.485  10.725   6.647 -0.8227 -0.9964  0.4870
  264ccc     C2 6462  13.421  10.700   6.447  0.6731  0.3280  0.1081
  264ccc     H3 6463  13.328  10.649   6.478  2.0743 -1.1297  2.1847
  264ccc     H4 6464  13.401  10.808   6.439  1.4817  0.3817 -1.3553
  264ccc     C3 6465  13.464  10.658   6.308  0.2072  0.0380  0.1163
  264ccc     H5 6466  13.391  10.588   6.263  0.3433  0.3395 -0.5846
  264ccc     H6 6467  13.557  10.601   6.319  0.6061  1.0075  2.2842
  264ccc     N1 6468  13.539  10.533   6.571  0.1998  0.3353  0.2069
  264ccc     H7 6469  13.594  10.506   6.652 -1.1320  0.0755  1.0515
  264ccc     H8 6470  13.447  10.506   6.602 -0.3846  1.5877 -0.3531
  264ccc     O1 6471  13.494  10.767   6.221  0.2805  0.3163 -0.2428
  265ccc     C1 6472  13.440  12.795   5.319  0.4212  0.4132 -0.3186
  265ccc     H1 6473  13.467  12.821   5.216 -0.4818  2.3565 -0.1006
  265ccc     H2 6474  13.454  12.882   5.384 -0.0424  1.3939 -1.4992
  265ccc     C2 6475  13.295  12.751   5.328  0.1261  0.2293 -0.4729
  265ccc     H3 6476  13.231  12.821   5.272  0.4020 -0.8104 -2.1823
  265ccc     H4 6477  13.280  12.655   5.277  0.4543  0.7433 -1.5594
  265ccc     C3 6478  13.236  12.757   5.466 -0.1063 -0.8034 -1.1422
  265ccc     H5 6479  13.131  12.726   5.466 -0.5881  0.7541 -0.7268
  265ccc     H6 6480  13.256  12.854   5.512  0.2965 -0.5738 -1.7937
  265ccc     N1 6481  13.531  12.691   5.367  0.3438 -0.2175  0.3562
  265ccc     H7 6482  13.472  12.643   5.435  0.9660 -0.1138  0.9805
  265ccc     H8 6483  13.535  12.622   5.293 -0.7459 -1.2574  1.2198
  265ccc     O1 6484  13.314  12.660   5.539  0.1193  0.4674  0.1812
  266ccc     C1 6485  13.755  13.178   6.151  0.2344 -0.4782  0.8853
  266ccc     H1 6486  13.667  13.119   6.179  0.4248 -1.4207 -0.4059
  266ccc     H2 6487  13.756  13.258   6.226  0.5566  1.1355 -0.7805
  266ccc     C2 6488  13.890  13.096   6.154  0.3319  0.6469  0.0710
  266ccc     H3 6489  13.975  13.159   6.127  0.0672  0.2220 -1.9189
  266ccc     H4 6490  13.905  13.058   6.255 -1.0774  0.8050  0.3642
  266ccc     C3 6491  13.895  12.973   6.066 -0.0816  0.0960 -0.2054
  266ccc     H5 6492  13.997  12.932   6.074  1.0757  1.9555 -3.3759
  266ccc     H6 6493  13.879  13.003   5.962 -2.1951  0.5002  0.2007
  266ccc     N1 6494  13.722  13.235   6.021  0.3306 -0.5800 -0.5924
  266ccc     H7 6495  13.798  13.298   5.998  0.7621 -0.8999 -0.0754
  266ccc     H8 6496  13.739  13.158   5.957  1.2763 -0.5300 -0.4304
  266ccc     O1 6497  13.791  12.887   6.115  0.1539  0.0624  0.7471
  267ccc     C1 6498  10.753  11.530   4.921 -0.5240  0.5049  1.2454
  267ccc     H1 6499  10.789  11.579   4.830 -1.3518 -0.1057  0.5691
  267ccc     H2 6500  10.753  11.425   4.888  0.3907  1.0570 -0.6930
  267ccc     C2 6501  10.843  11.547   5.041  0.1749 -0.0778 -1.0140
  267ccc     H3 6502  10.825  11.649   5.077 -1.3201  0.3795 -2.8743
  267ccc     H4 6503  10.817  11.471   5.115  1.4041 -0.5209 -1.0119
  267ccc     C3 6504  10.996  11.540   5.018  0.7382  0.1696 -0.2461
  267ccc     H5 6505  11.033  11.436   5.014 -0.4314 -0.2211 -2.0594
  267ccc     H6 6506  11.045  11.597   5.098  2.9072 -0.9173 -0.7211
  267ccc     N1 6507  10.615  11.574   4.941  0.1599 -0.1148  0.1348
  267ccc     H7 6508  10.601  11.669   4.908  1.6898  0.0261 -0.1501
  267ccc     H8 6509  10.559  11.527   4.870  0.2757  1.7134 -1.2426
  267ccc     O1 6510  11.050  11.609   4.896 -0.0810 -0.0512 -0.4100
  268ccc     C1 6511  10.563  11.810   4.678 -0.6987  0.8012 -0.9956
  268ccc     H1 6512  10.516  11.865   4.596 -0.8167  1.6797 -0.3428
  268ccc     H2 6513  10.643  11.751   4.630 -0.6886  1.0858 -1.3267
  268ccc     C2 6514  10.615  11.908   4.788  1.2875 -0.0780  0.0321
  268ccc     H3 6515  10.588  12.007   4.749  2.5783 -0.4754 -2.0093
  268ccc     H4 6516  10.569  11.894   4.886  3.2142  2.7626  1.4865
  268ccc     C3 6517  10.768  11.892   4.803 -0.6676 -0.0624  0.1883
  268ccc     H5 6518  10.808  11.944   4.716 -2.6071  0.4568 -0.4599
  268ccc     H6 6519  10.797  11.786   4.806  2.7997  0.7841  0.9387
  268ccc     N1 6520  10.473  11.713   4.737 -0.4823 -0.9167 -1.2188
  268ccc     H7 6521  10.398  11.774   4.770 -0.8854 -1.3386 -1.3504
  268ccc     H8 6522  10.438  11.657   4.659 -0.9865 -0.9759 -0.9563
  268ccc     O1 6523  10.808  11.951   4.929  0.7219 -0.3439  0.3147
  269ccc     C1 6524  11.685  12.874   4.511 -0.1054 -0.0842 -0.1454
  269ccc     H1 6525  11.580  12.897   4.537  0.4766  4.7944 -1.1186
  269ccc     H2 6526  11.733  12.882   4.610 -2.5977  0.1036  1.1378
  269ccc     C2 6527  11.712  12.734   4.457 -0.4029  0.0329  0.9128
  269ccc     H3 6528  11.669  12.664   4.529 -0.0674 -1.0203  0.1084
  269ccc     H4 6529  11.649  12.713   4.370 -0.8867 -0.6932  1.4335
  269ccc     C3 6530  11.864  12.707   4.416 -0.3525  0.4720 -0.3332
  269ccc     H5 6531  11.883  12.754   4.318 -0.0109  0.6912 -0.1636
  269ccc     H6 6532  11.881  12.600   4.403 -1.4240  0.4580 -1.9969
  269ccc     N1 6533  11.728  12.988   4.431 -0.0217 -0.2959 -0.5222
  269ccc     H7 6534  11.752  13.050   4.509  1.3510 -2.4214  0.8373
  269ccc     H8 6535  11.821  12.954   4.407  0.6520  0.9825  0.1476
  269ccc     O1 6536  11.942  12.758   4.524 -0.8257 -0.0652  0.1749
  270ccc     C1 6537  12.860  12.960   4.562  0.2851 -0.1806  0.8407
  270ccc     H1 6538  12.769  12.980   4.504  2.5589  2.2470 -2.1599
  270ccc     H2 6539  12.913  13.056   4.551 -0.9258  0.3207 -1.0696
  270ccc     C2 6540  12.830  12.924   4.712 -0.5842  0.8973 -0.2389
  270ccc     H3 6541  12.774  12.830   4.709 -0.7024  0.9716 -0.3491
  270ccc     H4 6542  12.922  12.905   4.769 -1.4060 -0.1750  0.7516
  270ccc     C3 6543  12.752  13.032   4.784 -0.0934  0.2530  0.4984
  270ccc     H5 6544  12.806  13.128   4.785  0.7325 -0.2038  0.0155
  270ccc     H6 6545  12.746  12.980   4.881 -1.6529 -1.2999 -0.3831
  270ccc     N1 6546  12.933  12.856   4.496 -0.5272  0.1319  0.8743
  270ccc     H7 6547  12.864  12.781   4.498 -0.0299 -0.4375 -1.1234
  270ccc     H8 6548  12.939  12.887   4.399  0.1056  0.4542  1.0113
  270ccc     O1 6549  12.619  13.039   4.729  0.1599 -0.3529  0.0414
  271ccc     C1 6550  13.483  12.614   8.855 -0.2063 -0.1161 -0.5912
  271ccc     H1 6551  13.498  12.656   8.755 -0.5970  2.0128  0.2047
  271ccc     H2 6552  13.434  12.696   8.909 -0.4238 -0.5678 -0.0893
  271ccc     C2 6553  13.389  12.486   8.855 -0.0113 -0.3065 -0.3400
  271ccc     H3 6554  13.423  12.414   8.779 -0.2064  0.7283 -1.4504
  271ccc     H4 6555  13.397  12.436   8.952 -0.4348  2.7247  1.3883
  271ccc     C3 6556  13.237  12.521   8.843  0.3447  0.7963 -0.2478
  271ccc     H5 6557  13.201  12.566   8.936 -0.8040  0.1931 -0.3911
  271ccc     H6 6558  13.183  12.430   8.817 -2.5442  2.0923  0.8386
  271ccc     N1 6559  13.601  12.575   8.926 -0.1327 -0.1452  0.3374
  271ccc     H7 6560  13.672  12.561   8.854  0.0271  2.7261 -0.1704
  271ccc     H8 6561  13.635  12.661   8.968  0.2995  0.5242 -1.3205
  271ccc     O1 6562  13.222  12.622   8.750 -0.1512 -0.5879 -0.6842
  272ccc     C1 6563  13.690  13.438   8.896  0.4111 -0.4461  0.0715
  272ccc     H1 6564  13.778  13.373   8.888  0.2250 -0.5713 -1.1691
  272ccc     H2 6565  13.657  13.423   8.792 -1.4027 -0.4043  0.6035
  272ccc     C2 6566  13.581  13.386   8.988 -0.0136 -0.6000 -0.5740
  272ccc     H3 6567  13.631  13.391   9.086 -0.0202 -0.5429 -0.5741
  272ccc     H4 6568  13.493  13.452   8.993  0.5094  0.0584  0.4698
  272ccc     C3 6569  13.532  13.244   8.961 -0.3793 -0.3142  0.1583
  272ccc     H5 6570  13.467  13.210   9.044  1.0481  0.7842  1.8049
  272ccc     H6 6571  13.622  13.181   8.968  0.6128  0.7525 -2.1337
  272ccc     N1 6572  13.727  13.574   8.928 -0.2055 -0.1818 -0.0553
  272ccc     H7 6573  13.649  13.636   8.910  0.4694  0.4100 -1.0586
  272ccc     H8 6574  13.731  13.578   9.030 -0.8183  1.1903 -0.0710
  272ccc     O1 6575  13.466  13.244   8.838  0.3247  0.3482 -0.4427
  273ccc     C1 6576  11.517  12.697   9.387  0.2135  0.0905  0.4683
  273ccc     H1 6577  11.424  12.689   9.445 -0.1879  0.2092 -0.1491
  273ccc     H2 6578  11.576  12.612   9.422 -0.4719 -0.1466  1.0724
  273ccc     C2 6579  11.477  12.671   9.238 -0.0565  0.7742  0.9506
  273ccc     H3 6580  11.406  12.587   9.227 -0.1122  0.8370  0.8344
  273ccc     H4 6581  11.426  12.760   9.198  0.7725  0.9681  0.3127
  273ccc     C3 6582  11.604  12.642   9.156 -0.5251 -1.0290 -0.1902
  273ccc     H5 6583  11.573  12.601   9.059  3.6445 -1.0305 -1.7305
  273ccc     H6 6584  11.673  12.583   9.217  0.6735  1.8581  1.4179
  273ccc     N1 6585  11.597  12.823   9.417  0.1922 -0.5542 -0.2522
  273ccc     H7 6586  11.543  12.896   9.372  2.7079  0.8278 -1.2718
  273ccc     H8 6587  11.598  12.835   9.518 -0.0928 -3.6041  0.2115
  273ccc     O1 6588  11.669  12.761   9.123  0.2565  0.0045  0.1678
  274ccc     C1 6589  11.469  13.212   9.199 -0.4637 -0.0488 -0.1673
  274ccc     H1 6590  11.499  13.149   9.115  1.9724  1.1484 -0.2813
  274ccc     H2 6591  11.521  13.180   9.290 -3.2474  0.5911  1.8079
  274ccc     C2 6592  11.503  13.361   9.165 -0.5130  0.6005 -0.0109
  274ccc     H3 6593  11.475  13.423   9.251 -1.7647  1.3092 -0.9077
  274ccc     H4 6594  11.613  13.361   9.170 -0.4615 -0.3676 -0.8493
  274ccc     C3 6595  11.452  13.421   9.034 -0.2204  0.8055  0.9496
  274ccc     H5 6596  11.509  13.510   9.003 -0.5681  0.8933  0.5558
  274ccc     H6 6597  11.350  13.457   9.049 -0.6054  1.1904 -2.0111
  274ccc     N1 6598  11.323  13.206   9.231  0.2728  0.7131  0.0320
  274ccc     H7 6599  11.268  13.177   9.150  0.6773 -1.7557  0.5497
  274ccc     H8 6600  11.317  13.120   9.286 -0.3563 -0.0635 -1.2080
  274ccc     O1 6601  11.453  13.312   8.928 -0.2718  0.2301 -0.3299
  275ccc     C1 6602  12.693  14.239   7.858  0.3803  0.1821  0.2417
  275ccc     H1 6603  12.790  14.266   7.815  1.2601 -0.8801  1.4722
  275ccc     H2 6604  12.647  14.171   7.785 -0.1571  0.4993  0.2826
  275ccc     C2 6605  12.705  14.146   7.985  0.3591  0.0523 -0.7762
  275ccc     H3 6606  12.782  14.076   7.951  0.8146  0.6592 -1.0235
  275ccc     H4 6607  12.741  14.202   8.072  0.4074 -1.6350  0.3245
  275ccc     C3 6608  12.575  14.068   8.038  0.0404 -0.1007 -0.4020
  275ccc     H5 6609  12.516  14.143   8.093 -0.7856  0.0888 -1.5225
  275ccc     H6 6610  12.612  13.997   8.113  1.1857  0.4790 -0.3875
  275ccc     N1 6611  12.584  14.329   7.873 -0.8210  0.7295 -0.4441
  275ccc     H7 6612  12.523  14.274   7.933 -0.1155 -1.9983 -2.0412
  275ccc     H8 6613  12.634  14.397   7.929 -0.5538  1.0080 -1.0074
  275ccc     O1 6614  12.499  14.001   7.937 -0.0579  0.4637 -0.1041
  276ccc     C1 6615  12.733  13.690   8.837  0.0747 -0.0610  0.5918
  276ccc     H1 6616  12.681  13.748   8.915 -0.7363  0.2695 -0.1767
  276ccc     H2 6617  12.748  13.586   8.870  0.8050 -0.3654 -0.6336
  276ccc     C2 6618  12.634  13.682   8.716  0.0410  0.1744 -0.2036
  276ccc     H3 6619  12.684  13.627   8.635  1.0290  0.8824 -0.0961
  276ccc     H4 6620  12.542  13.631   8.748 -0.5841  1.3839 -0.0349
  276ccc     C3 6621  12.589  13.813   8.663  0.3756  1.2266  0.0503
  276ccc     H5 6622  12.663  13.890   8.641  1.3784  0.5989  1.1296
  276ccc     H6 6623  12.514  13.856   8.732 -0.6786 -0.0422 -0.2621
  276ccc     N1 6624  12.864  13.753   8.815  0.2219 -0.2311 -0.2161
  276ccc     H7 6625  12.911  13.699   8.742 -0.5157 -0.1648 -0.7454
  276ccc     H8 6626  12.847  13.844   8.773  1.0544  0.8372  1.6209
  276ccc     O1 6627  12.515  13.788   8.542  0.7278 -0.1071  0.2397
  277ccc     C1 6628  11.939  14.270   7.247  0.8509 -0.3878 -0.0193
  277ccc     H1 6629  11.920  14.231   7.146 -0.6517 -3.3703  1.2788
  277ccc     H2 6630  11.841  14.303   7.284  1.9420  2.4292  0.6239
  277ccc     C2 6631  12.002  14.164   7.337 -0.0389 -0.1695  0.3012
  277ccc     H3 6632  12.109  14.152   7.319 -0.1275 -2.3185  0.9396
  277ccc     H4 6633  11.988  14.188   7.443 -1.4630 -0.4646  0.1971
  277ccc     C3 6634  11.948  14.020   7.306 -0.0536 -0.3527  0.3235
  277ccc     H5 6635  11.983  13.952   7.385  2.9836  0.4204 -0.2374
  277ccc     H6 6636  11.983  13.988   7.207 -1.9363  0.2048 -0.5780
  277ccc     N1 6637  12.014  14.396   7.249 -0.0947 -0.2555 -0.1520
  277ccc     H7 6638  12.070  14.387   7.164  1.5206 -0.3603  0.8649
  277ccc     H8 6639  11.943  14.464   7.222 -0.4727 -0.0909  1.1988
  277ccc     O1 6640  11.803  14.031   7.299  0.0006  0.0561 -0.1086
  278ccc     C1 6641  11.323  14.951   6.996 -0.2649  0.0535 -0.1368
  278ccc     H1 6642  11.217  14.935   6.972  0.3863 -0.1487 -3.2869
  278ccc     H2 6643  11.347  15.025   7.073  2.1883  0.4134 -1.1785
  278ccc     C2 6644  11.382  14.817   7.043 -0.0768  0.2847 -0.7016
  278ccc     H3 6645  11.491  14.817   7.026  0.1001 -3.1480 -0.3070
  278ccc     H4 6646  11.381  14.817   7.152  2.8435 -1.3470 -0.5681
  278ccc     C3 6647  11.319  14.687   6.983  0.2157  0.3971  0.0874
  278ccc     H5 6648  11.353  14.666   6.881  1.7041 -1.1006  0.8241
  278ccc     H6 6649  11.211  14.701   6.985  0.0397 -0.8294  2.0230
  278ccc     N1 6650  11.391  14.994   6.874 -0.3893  0.8950 -0.0897
  278ccc     H7 6651  11.490  14.994   6.898  0.0520  1.4382 -1.7867
  278ccc     H8 6652  11.377  14.909   6.819 -0.9565  2.1536 -2.0159
  278ccc     O1 6653  11.349  14.574   7.070  0.2245 -0.1615 -0.5092
  279ccc     C1 6654  12.354  11.543   7.040 -0.2922  0.4480  0.5253
  279ccc     H1 6655  12.460  11.522   7.060 -0.4533  0.7841  1.8563
  279ccc     H2 6656  12.323  11.456   6.981  0.8719  0.8764 -0.7694
  279ccc     C2 6657  12.288  11.561   7.175  0.0130 -0.2870 -0.4668
  279ccc     H3 6658  12.184  11.595   7.171  0.6694  1.9107 -0.0059
  279ccc     H4 6659  12.291  11.469   7.234  0.4890  0.2613  0.3927
  279ccc     C3 6660  12.355  11.675   7.256 -0.4859 -0.1304  0.0090
  279ccc     H5 6661  12.334  11.647   7.360 -1.7557 -0.8921 -0.4295
  279ccc     H6 6662  12.318  11.773   7.224 -0.5762 -0.0915  0.2322
  279ccc     N1 6663  12.343  11.661   6.963 -0.2176 -0.3930  0.5360
  279ccc     H7 6664  12.390  11.648   6.874 -0.6040 -0.9902  0.4158
  279ccc     H8 6665  12.243  11.660   6.943 -0.0463 -2.5190 -0.4257
  279ccc     O1 6666  12.496  11.667   7.257 -0.2408  0.0952  0.0047
  280ccc     C1 6667  13.092  11.676   6.473 -0.1428  0.2886 -0.0744
  280ccc     H1 6668  13.069  11.781   6.452 -4.3056 -0.5080 -0.3146
  280ccc     H2 6669  13.201  11.667   6.483  0.0572  1.5837 -0.8417
  280ccc     C2 6670  13.027  11.618   6.602 -0.5798 -0.4649 -0.1744
  280ccc     H3 6671  12.917  11.623   6.604 -0.5899 -0.9132  0.4334
  280ccc     H4 6672  13.036  11.509   6.601 -0.0386 -0.4215 -0.5544
  280ccc     C3 6673  13.084  11.687   6.731  0.6949  0.1474  0.1463
  280ccc     H5 6674  13.095  11.795   6.711  1.8509  0.2142  1.0658
  280ccc     H6 6675  13.183  11.646   6.754  0.6317 -0.7343 -1.0360
  280ccc     N1 6676  13.056  11.604   6.349 -0.3882 -0.2655 -0.5224
  280ccc     H7 6677  13.088  11.669   6.277  0.4896 -0.6959 -0.5335
  280ccc     H8 6678  13.120  11.526   6.353 -0.7863 -0.5591  0.3130
  280ccc     O1 6679  12.993  11.660   6.847 -0.4466 -0.2494 -0.2052
  281ccc     C1 6680  14.306  11.245   8.136  0.0410 -0.5213 -0.0538
  281ccc     H1 6681  14.355  11.333   8.095 -0.4834 -0.6888 -1.0623
  281ccc     H2 6682  14.311  11.239   8.246 -1.9366 -0.7976  0.0595
  281ccc     C2 6683  14.162  11.225   8.076  0.5851 -0.5094  0.8129
  281ccc     H3 6684  14.167  11.183   7.975  0.6662  1.7295 -0.1678
  281ccc     H4 6685  14.099  11.155   8.133 -1.9760 -1.3159 -2.6723
  281ccc     C3 6686  14.072  11.360   8.080  0.7420  0.1239  0.1373
  281ccc     H5 6687  13.977  11.348   8.027  1.1090 -2.2225 -0.1190
  281ccc     H6 6688  14.136  11.430   8.026 -1.3608  3.0046  1.1633
  281ccc     N1 6689  14.392  11.136   8.095  0.3202 -0.2633 -0.1010
  281ccc     H7 6690  14.417  11.161   7.999 -2.7761 -0.2227 -1.0093
  281ccc     H8 6691  14.472  11.154   8.155  0.3799 -1.4870  0.2214
  281ccc     O1 6692  14.050  11.395   8.214 -0.4247  0.0138 -0.0434
  282ccc     C1 6693  13.099  11.531   8.276  0.7404  0.1731 -0.2165
  282ccc     H1 6694  13.179  11.592   8.232  1.1621  0.6100  1.0925
  282ccc     H2 6695  13.019  11.524   8.202  0.2727  0.6104  0.2427
  282ccc     C2 6696  13.136  11.385   8.315 -0.3665  0.8410  0.6513
  282ccc     H3 6697  13.046  11.323   8.327  1.3769 -1.8354  0.8190
  282ccc     H4 6698  13.171  11.344   8.219 -1.4386 -0.0588  0.6206
  282ccc     C3 6699  13.235  11.366   8.430  0.1781 -0.3546  0.5660
  282ccc     H5 6700  13.281  11.267   8.414 -0.4854 -0.6264  0.3114
  282ccc     H6 6701  13.191  11.381   8.530  3.9526  0.7700  2.2599
  282ccc     N1 6702  13.040  11.601   8.387 -0.2018 -0.3689  0.2170
  282ccc     H7 6703  13.113  11.625   8.454  0.5292 -0.5368 -0.5058
  282ccc     H8 6704  12.999  11.684   8.343  1.0484  0.2602  0.2205
  282ccc     O1 6705  13.326  11.472   8.424 -0.3670  0.0010 -0.0291
  283ccc     C1 6706  13.968  12.271   6.046  0.0549  0.1842 -1.0027
  283ccc     H1 6707  13.876  12.310   6.000 -0.1765  1.8447  0.7411
  283ccc     H2 6708  14.053  12.299   5.983  1.7114  2.7831  2.0759
  283ccc     C2 6709  13.990  12.321   6.188 -0.2105 -0.2315 -0.0856
  283ccc     H3 6710  13.921  12.270   6.257  1.2147  1.3824  2.7090
  283ccc     H4 6711  14.096  12.303   6.211  0.5497  2.9571 -0.7020
  283ccc     C3 6712  13.977  12.470   6.195  0.2881  0.4230  0.6196
  283ccc     H5 6713  13.876  12.488   6.157  0.7929  0.0426 -0.9643
  283ccc     H6 6714  14.052  12.514   6.128 -0.1577  3.1975  1.8131
  283ccc     N1 6715  13.950  12.125   6.043  0.1280  0.2265  0.1999
  283ccc     H7 6716  13.863  12.110   6.094  1.0732  1.2038  2.2180
  283ccc     H8 6717  13.912  12.104   5.951 -1.0336  2.5400  0.0934
  283ccc     O1 6718  14.004  12.507   6.334  0.7420  0.3993 -0.3465
  284ccc     C1 6719  13.808  13.426   6.923 -0.7078 -0.0026  0.4939
  284ccc     H1 6720  13.816  13.447   7.030 -1.6463  1.3960  0.3092
  284ccc     H2 6721  13.835  13.320   6.914 -0.1493  0.0576  1.3702
  284ccc     C2 6722  13.662  13.450   6.887 -0.3824  0.3902 -0.3182
  284ccc     H3 6723  13.585  13.407   6.952 -2.1668  1.3697 -1.6962
  284ccc     H4 6724  13.634  13.557   6.889 -0.1655  0.4564  1.9764
  284ccc     C3 6725  13.621  13.390   6.747  0.4809  0.1953  0.0981
  284ccc     H5 6726  13.675  13.450   6.674  1.8808 -1.5474 -0.3707
  284ccc     H6 6727  13.514  13.413   6.739  0.5553  0.4090 -0.2409
  284ccc     N1 6728  13.897  13.500   6.841  0.1179  0.5622 -0.0096
  284ccc     H7 6729  13.873  13.599   6.847 -1.0681  0.2766  0.1536
  284ccc     H8 6730  13.983  13.488   6.894 -0.3427 -1.4981  0.3691
  284ccc     O1 6731  13.647  13.249   6.734  0.0950  1.0410 -0.6220
  285ccc     C1 6732  14.160  13.263   8.162  0.1894  0.9435 -0.4659
  285ccc     H1 6733  14.052  13.256   8.183  0.6136 -0.2965  1.4699
  285ccc     H2 6734  14.217  13.274   8.255  3.6138  1.9517 -2.5039
  285ccc     C2 6735  14.209  13.130   8.082  0.0508 -1.5108  0.1093
  285ccc     H3 6736  14.138  13.121   7.998 -0.7178  2.4576  0.1445
  285ccc     H4 6737  14.309  13.148   8.041  0.4622 -2.4517  0.6656
  285ccc     C3 6738  14.215  13.000   8.173 -0.1788 -0.6223 -0.2196
  285ccc     H5 6739  14.271  13.024   8.264 -0.4264  0.4614 -0.3307
  285ccc     H6 6740  14.267  12.927   8.110 -0.1174 -0.7135 -0.0632
  285ccc     N1 6741  14.186  13.388   8.089 -0.7984 -0.1813 -0.4652
  285ccc     H7 6742  14.129  13.378   8.005 -0.7687 -0.6798 -0.4298
  285ccc     H8 6743  14.139  13.459   8.145  0.4586  0.0767  0.2901
  285ccc     O1 6744  14.080  12.959   8.198 -0.1659 -0.0000  0.0212
  286ccc     C1 6745  13.755  12.202   8.851 -0.1237 -0.2211  0.3976
  286ccc     H1 6746  13.857  12.237   8.873  0.0390 -0.0313 -0.6207
  286ccc     H2 6747  13.689  12.252   8.922 -1.0185  0.8502 -1.1324
  286ccc     C2 6748  13.707  12.240   8.703 -0.4425  0.6068 -0.4689
  286ccc     H3 6749  13.639  12.163   8.664  0.1065 -1.9602  3.1959
  286ccc     H4 6750  13.660  12.339   8.710 -0.4438  0.6533 -1.0477
  286ccc     C3 6751  13.828  12.248   8.612  0.2775 -0.4574  0.3600
  286ccc     H5 6752  13.868  12.150   8.584  2.2743  0.3881  0.0089
  286ccc     H6 6753  13.904  12.305   8.667  0.9114  0.0411 -0.9795
  286ccc     N1 6754  13.744  12.063   8.880  0.4760  0.2677 -0.9685
  286ccc     H7 6755  13.815  12.026   8.817 -0.5165  0.0293 -1.9822
  286ccc     H8 6756  13.788  12.053   8.971 -0.0916 -0.7265 -0.7893
  286ccc     O1 6757  13.798  12.320   8.490 -0.1378 -0.0824  0.0731
  287ccc     C1 6758   9.214  12.834   6.168  0.5968  0.1171  0.4871
  287ccc     H1 6759   9.263  12.774   6.090  0.8660 -0.7835  1.3203
  287ccc     H2 6760   9.120  12.779   6.182  1.3785 -1.2299  0.6721
  287ccc     C2 6761   9.286  12.846   6.302 -0.0536 -0.0315 -0.6410
  287ccc     H3 6762   9.250  12.935   6.355 -1.7639 -0.5576 -0.8775
  287ccc     H4 6763   9.267  12.769   6.379  1.1616  1.1275  0.8757
  287ccc     C3 6764   9.444  12.843   6.287 -0.6692 -0.1455 -0.7192
  287ccc     H5 6765   9.480  12.862   6.388  0.0098 -3.2029 -0.2930
  287ccc     H6 6766   9.472  12.920   6.214 -1.1312  0.1460 -0.5963
  287ccc     N1 6767   9.178  12.959   6.108 -0.1181  0.0194 -0.5833
  287ccc     H7 6768   9.104  12.935   6.042  0.7840 -2.3552 -0.8568
  287ccc     H8 6769   9.133  13.005   6.187  3.3395  2.7022  0.1104
  287ccc     O1 6770   9.488  12.711   6.249 -0.0977 -0.3853 -0.0884
  288ccc     C1 6771   9.272  12.225   6.776  0.4282 -0.2358 -0.1350
  288ccc     H1 6772   9.251  12.252   6.671 -0.4455  0.9475  0.3234
  288ccc     H2 6773   9.370  12.180   6.797  0.4675 -0.5913 -1.0359
  288ccc     C2 6774   9.266  12.350   6.860  0.1337 -0.1081 -0.0592
  288ccc     H3 6775   9.175  12.405   6.833  0.6510  0.7459 -0.0967
  288ccc     H4 6776   9.266  12.321   6.966 -0.9321  2.0704  0.6028
  288ccc     C3 6777   9.393  12.441   6.840 -0.0602  0.0120  0.8016
  288ccc     H5 6778   9.485  12.394   6.876 -0.0941 -2.1637 -1.6455
  288ccc     H6 6779   9.372  12.532   6.898 -1.1955  0.5306 -0.3540
  288ccc     N1 6780   9.170  12.129   6.816  0.0272  0.2885  0.1845
  288ccc     H7 6781   9.084  12.157   6.770  0.3938  0.1676 -0.5865
  288ccc     H8 6782   9.197  12.035   6.785  1.6691  0.2598  1.5175
  288ccc     O1 6783   9.402  12.486   6.704 -0.0041  0.3432  0.3168
  289ccc     C1 6784  10.290  13.978   5.680 -0.0880  1.1556  0.2149
  289ccc     H1 6785  10.246  14.078   5.674 -0.3252  1.0716  0.5595
  289ccc     H2 6786  10.369  13.979   5.756 -0.5566  0.4281  0.7196
  289ccc     C2 6787  10.184  13.879   5.733 -0.0847 -0.0540 -0.1919
  289ccc     H3 6788  10.115  13.849   5.653 -0.9844  1.8896 -0.1919
  289ccc     H4 6789  10.232  13.782   5.752  0.3122 -0.4047 -2.6741
  289ccc     C3 6790  10.109  13.933   5.857 -0.3761 -0.4421  0.6839
  289ccc     H5 6791  10.023  13.992   5.826 -0.3783 -0.6647  0.2575
  289ccc     H6 6792  10.180  13.998   5.910 -0.9241 -0.8454  1.9612
  289ccc     N1 6793  10.363  13.928   5.565 -0.0344  0.1019 -0.4348
  289ccc     H7 6794  10.388  13.831   5.581 -0.3322 -0.2642 -2.0796
  289ccc     H8 6795  10.286  13.905   5.503 -0.2481  0.5201 -0.3359
  289ccc     O1 6796  10.061  13.823   5.940  0.1044  0.5189 -0.4266
  290ccc     C1 6797   9.633  13.148   6.134 -0.5318  0.4582  0.4976
  290ccc     H1 6798   9.717  13.218   6.143 -0.7804  0.6364  1.6631
  290ccc     H2 6799   9.650  13.064   6.202  0.6841 -0.9592 -1.4691
  290ccc     C2 6800   9.502  13.221   6.158 -0.3306 -0.3913  0.1542
  290ccc     H3 6801   9.473  13.301   6.089  0.8828 -0.4525 -0.4605
  290ccc     H4 6802   9.415  13.155   6.151 -1.7301  1.3609  0.3742
  290ccc     C3 6803   9.494  13.290   6.294  0.1888  0.1384 -0.8080
  290ccc     H5 6804   9.467  13.224   6.378 -0.8361  0.3737 -0.9334
  290ccc     H6 6805   9.405  13.355   6.292 -0.1873 -0.3323 -0.0014
  290ccc     N1 6806   9.638  13.088   6.003  0.1185  0.3792 -0.1197
  290ccc     H7 6807   9.726  13.038   5.997 -0.4646 -0.8680  1.1629
  290ccc     H8 6808   9.565  13.020   5.985  0.6098  0.3274 -2.0793
  290ccc     O1 6809   9.613  13.363   6.322  0.4051  0.3080 -0.3332
  291ccc     C1 6810   9.895  11.849   5.632 -0.7951 -0.0978  0.5072
  291ccc     H1 6811   9.906  11.920   5.715 -2.5471 -0.4525  1.0998
  291ccc     H2 6812   9.961  11.879   5.550  0.5134 -2.0249  0.8087
  291ccc     C2 6813   9.918  11.699   5.669  0.0515  0.3081  0.8613
  291ccc     H3 6814   9.849  11.651   5.739  1.4151 -2.5847  0.4140
  291ccc     H4 6815   9.904  11.631   5.584  1.1825  0.0753  0.8475
  291ccc     C3 6816  10.054  11.674   5.723 -0.8726 -0.5925 -0.4952
  291ccc     H5 6817  10.062  11.569   5.754  1.9109 -0.0429  1.0503
  291ccc     H6 6818  10.066  11.727   5.818  2.9299 -1.3787 -0.3792
  291ccc     N1 6819   9.755  11.876   5.573  0.0776  0.4361  0.1081
  291ccc     H7 6820   9.758  11.976   5.556  0.8064  0.5450  0.8349
  291ccc     H8 6821   9.767  11.840   5.478 -0.1613 -0.0072  0.2409
  291ccc     O1 6822  10.154  11.721   5.635 -0.0830 -0.7617  0.7357
  292ccc     C1 6823  10.164  12.052   5.129  0.2929  0.6248 -0.2059
  292ccc     H1 6824  10.177  11.976   5.208  0.9817  1.1761  0.2168
  292ccc     H2 6825  10.169  12.149   5.179  0.8922  0.1999  0.5906
  292ccc     C2 6826  10.275  12.041   5.024  0.3175  0.6692  0.9482
  292ccc     H3 6827  10.284  11.947   4.968  1.0754  0.4765  1.3780
  292ccc     H4 6828  10.243  12.116   4.950  0.7874 -0.0945 -0.0559
  292ccc     C3 6829  10.408  12.080   5.086  0.2537 -0.3083  0.5803
  292ccc     H5 6830  10.403  12.176   5.139 -0.4291 -0.1879  0.3132
  292ccc     H6 6831  10.478  12.092   5.002 -0.0215  0.0240  0.3943
  292ccc     N1 6832  10.031  12.032   5.083 -0.5009  0.1536  0.6432
  292ccc     H7 6833  10.008  12.085   4.999 -0.1169 -1.1396 -0.3063
  292ccc     H8 6834  10.025  11.936   5.049  1.1452  0.5627 -0.9485
  292ccc     O1 6835  10.448  11.971   5.171  0.4443 -0.1793 -0.0473
  293ccc     C1 6836  12.046  11.981   7.030 -0.2508  0.4699 -0.0345
  293ccc     H1 6837  12.134  11.988   6.965 -0.5078 -0.3716 -0.4912
  293ccc     H2 6838  11.961  12.044   7.000  1.9425  2.6502 -2.0992
  293ccc     C2 6839  11.982  11.843   7.034 -0.3415  0.8073 -0.7568
  293ccc     H3 6840  12.053  11.777   7.086  0.9594  1.0418 -2.1487
  293ccc     H4 6841  11.889  11.840   7.091  0.0359  2.6028  0.0198
  293ccc     C3 6842  11.948  11.792   6.891 -0.4321 -0.1039  0.0800
  293ccc     H5 6843  11.896  11.872   6.837 -0.3009  1.2165  1.8216
  293ccc     H6 6844  11.875  11.711   6.902 -1.0511  0.3874 -0.3687
  293ccc     N1 6845  12.087  12.017   7.159  0.4355 -0.4954  0.3826
  293ccc     H7 6846  12.181  11.980   7.148 -0.0807 -1.7515  0.0903
  293ccc     H8 6847  12.119  12.114   7.164 -0.0978 -0.2032 -1.2352
  293ccc     O1 6848  12.072  11.753   6.824  0.1198  0.3249  0.3865
  294ccc     C1 6849  11.569  11.623   5.838  0.0268  0.4986 -0.0128
  294ccc     H1 6850  11.526  11.689   5.762  2.0612  0.2214 -1.4702
  294ccc     H2 6851  11.555  11.516   5.815 -0.6921  0.4619  0.5247
  294ccc     C2 6852  11.720  11.641   5.852  0.9940 -0.1647 -0.1367
  294ccc     H3 6853  11.774  11.610   5.762  1.4734 -0.8099  0.3591
  294ccc     H4 6854  11.746  11.746   5.871 -0.3170  0.8108 -3.2022
  294ccc     C3 6855  11.772  11.562   5.968  0.1694  0.2181  0.2613
  294ccc     H5 6856  11.757  11.456   5.942 -2.9430  1.1019 -2.1008
  294ccc     H6 6857  11.715  11.597   6.055  2.2225  1.2207  1.2936
  294ccc     N1 6858  11.487  11.646   5.960 -0.5501  0.1599 -0.4208
  294ccc     H7 6859  11.503  11.573   6.030 -1.4619 -0.4742 -0.8540
  294ccc     H8 6860  11.524  11.732   6.000  1.3555 -1.3085  1.2776
  294ccc     O1 6861  11.910  11.596   5.996  0.0847 -0.6479  0.3972
  295ccc     C1 6862  10.675  13.678   7.289 -0.0224 -0.4749 -0.5706
  295ccc     H1 6863  10.587  13.634   7.241 -0.5100 -0.4373  0.2711
  295ccc     H2 6864  10.744  13.602   7.328 -2.2807 -2.1568  0.3571
  295ccc     C2 6865  10.757  13.759   7.188  0.5678  0.1419  0.7078
  295ccc     H3 6866  10.696  13.841   7.149  0.2467  0.4624  1.8467
  295ccc     H4 6867  10.842  13.810   7.235  2.6293 -0.1870 -2.4208
  295ccc     C3 6868  10.794  13.667   7.071  0.3578  1.1705 -0.2667
  295ccc     H5 6869  10.707  13.657   7.005 -0.7896 -2.1218  1.5435
  295ccc     H6 6870  10.816  13.563   7.094 -1.3922  0.9697  0.6947
  295ccc     N1 6871  10.635  13.778   7.396 -0.0647 -0.1541  0.1591
  295ccc     H7 6872  10.692  13.861   7.382 -0.5537 -0.2245 -2.9076
  295ccc     H8 6873  10.556  13.827   7.354  2.1400  0.8899 -3.1610
  295ccc     O1 6874  10.905  13.725   7.010 -0.0383  0.3037  0.4642
  296ccc     C1 6875  11.652  12.969   6.527  0.0060  0.2110  0.2255
  296ccc     H1 6876  11.586  12.898   6.475  2.0435 -0.7323 -1.1865
  296ccc     H2 6877  11.708  13.035   6.459  0.5417 -1.1852 -0.7237
  296ccc     C2 6878  11.560  13.050   6.632  0.3740 -0.4655  0.2770
  296ccc     H3 6879  11.483  12.994   6.687  0.8781  0.7138  2.2928
  296ccc     H4 6880  11.629  13.100   6.701 -1.4008  2.7538 -0.0687
  296ccc     C3 6881  11.480  13.167   6.569 -0.4455 -0.0451 -0.1307
  296ccc     H5 6882  11.397  13.131   6.508 -0.3677 -0.7851  0.1900
  296ccc     H6 6883  11.545  13.240   6.518  1.0415 -1.0001  0.3164
  296ccc     N1 6884  11.747  12.888   6.586 -0.0878 -0.0229  0.4738
  296ccc     H7 6885  11.799  12.850   6.508 -0.4023  0.6416 -0.0704
  296ccc     H8 6886  11.809  12.965   6.613  0.2032  1.0690 -2.8518
  296ccc     O1 6887  11.433  13.242   6.682  0.3535  0.0609 -0.4200
  297ccc     C1 6888  11.180  13.852   5.968  0.2189  0.0871  0.1841
  297ccc     H1 6889  11.211  13.754   5.930  1.1679  1.1671 -1.9633
  297ccc     H2 6890  11.073  13.856   5.994  0.3898 -0.9845  1.1426
  297ccc     C2 6891  11.259  13.877   6.102 -0.6924 -0.3683  0.3867
  297ccc     H3 6892  11.286  13.778   6.142 -0.1520 -0.3413  0.0973
  297ccc     H4 6893  11.355  13.928   6.089 -1.0454  0.5884  1.3805
  297ccc     C3 6894  11.182  13.966   6.205 -0.2058  0.2611  1.1436
  297ccc     H5 6895  11.158  14.066   6.166  0.7691  0.3225  0.6686
  297ccc     H6 6896  11.240  13.984   6.296  0.3965 -1.2976  1.0874
  297ccc     N1 6897  11.195  13.958   5.870 -0.1432 -0.0107 -0.7611
  297ccc     H7 6898  11.151  13.909   5.792  0.2184  0.1178 -1.0543
  297ccc     H8 6899  11.123  14.028   5.888  1.1526  1.5355 -1.2420
  297ccc     O1 6900  11.066  13.892   6.245  0.4916  0.2292 -0.6345
  298ccc     C1 6901  10.273  13.373   7.070  0.0243 -0.0552 -0.6323
  298ccc     H1 6902  10.169  13.346   7.092  0.7598 -2.3345  0.3196
  298ccc     H2 6903  10.312  13.291   7.009 -0.8720 -0.7352 -0.3119
  298ccc     C2 6904  10.261  13.505   6.995 -0.1933 -1.1932  0.2207
  298ccc     H3 6905  10.189  13.507   6.912  1.1588  1.9461 -1.0459
  298ccc     H4 6906  10.228  13.584   7.064 -0.1954 -0.2294 -0.8565
  298ccc     C3 6907  10.398  13.553   6.948  0.5275  0.6897 -0.3062
  298ccc     H5 6908  10.450  13.476   6.891 -0.8202 -0.4653 -0.0330
  298ccc     H6 6909  10.464  13.579   7.032 -1.8608 -0.3657  2.0535
  298ccc     N1 6910  10.343  13.374   7.197 -0.3752 -0.1672  0.1990
  298ccc     H7 6911  10.304  13.436   7.268  0.7946  1.0622 -0.2008
  298ccc     H8 6912  10.329  13.284   7.241 -1.5415  0.8163  1.9893
  298ccc     O1 6913  10.374  13.673   6.870  0.0590  0.3223  0.0137
  299ccc     C1 6914  10.030  12.549   5.043  0.4963  0.0184  0.0572
  299ccc     H1 6915  10.044  12.640   5.103 -2.4724  1.0964 -0.7411
  299ccc     H2 6916  10.049  12.570   4.937 -0.7162  3.2398  0.3968
  299ccc     C2 6917  10.127  12.441   5.096 -0.4586  0.4193 -0.3408
  299ccc     H3 6918  10.108  12.412   5.200 -0.9409 -1.6589 -0.9477
  299ccc     H4 6919  10.122  12.350   5.035 -0.0795  0.0866  0.1216
  299ccc     C3 6920  10.277  12.493   5.101  0.1995  0.4995  0.3109
  299ccc     H5 6921  10.316  12.496   4.999  0.6776 -4.3533  0.0925
  299ccc     H6 6922  10.336  12.419   5.157  0.2301  0.1777 -0.1471
  299ccc     N1 6923   9.890  12.507   5.059  0.3167 -0.1221  0.1699
  299ccc     H7 6924   9.872  12.424   5.003  0.8811 -0.1939  0.0884
  299ccc     H8 6925   9.867  12.471   5.152  1.4986 -0.2014  0.4458
  299ccc     O1 6926  10.286  12.615   5.176  0.2137 -0.5902  0.2945
  300ccc     C1 6927  10.761  12.358   6.046  0.4369 -0.5399  0.6996
  300ccc     H1 6928  10.797  12.378   5.944 -1.4150  0.2664  0.1554
  300ccc     H2 6929  10.782  12.438   6.118 -0.9581  0.2480  0.2699
  300ccc     C2 6930  10.607  12.338   6.040 -0.4385  0.3901 -0.6599
  300ccc     H3 6931  10.588  12.236   6.003  0.8462 -0.1181  0.0370
  300ccc     H4 6932  10.560  12.337   6.139  0.2740  1.3724 -0.2985
  300ccc     C3 6933  10.535  12.447   5.954  0.2445 -0.2305 -0.1997
  300ccc     H5 6934  10.584  12.541   5.985  0.2514 -0.2395 -0.1812
  300ccc     H6 6935  10.429  12.435   5.977  0.3439  0.1170  0.4813
  300ccc     N1 6936  10.829  12.234   6.086 -0.2499 -0.4422 -0.2105
  300ccc     H7 6937  10.792  12.174   6.012  0.0232  1.0667 -1.6370
  300ccc     H8 6938  10.808  12.201   6.180 -3.1671  0.3744 -0.4787
  300ccc     O1 6939  10.564  12.409   5.820  0.2954 -0.0894 -0.7128
  301ccc     C1 6940  10.667  13.098   4.952 -0.2694  1.0236  0.2058
  301ccc     H1 6941  10.665  13.202   4.985 -0.6386  1.4624 -1.1600
  301ccc     H2 6942  10.739  13.072   4.874 -0.2649 -0.9686  0.8159
  301ccc     C2 6943  10.696  13.018   5.080  0.0622  0.9859 -0.4562
  301ccc     H3 6944  10.790  13.044   5.129  1.0095 -3.2213  0.3036
  301ccc     H4 6945  10.619  13.035   5.156 -0.4283 -0.3513 -0.6314
  301ccc     C3 6946  10.712  12.864   5.052  0.6359  0.1468 -0.8770
  301ccc     H5 6947  10.627  12.824   4.994 -0.5140  1.2778 -0.0438
  301ccc     H6 6948  10.707  12.820   5.152 -1.8620  1.2034 -0.4415
  301ccc     N1 6949  10.535  13.067   4.903 -0.2003  0.4807  0.7198
  301ccc     H7 6950  10.535  13.128   4.821  0.1639  0.3177  0.5941
  301ccc     H8 6951  10.542  12.969   4.874 -0.7535  0.5067  0.4980
  301ccc     O1 6952  10.839  12.828   4.992 -0.2235 -0.1929 -0.3762
  302ccc     C1 6953  11.200  12.656   4.172  0.3564  0.3362  0.1796
  302ccc     H1 6954  11.191  12.573   4.243 -0.0127 -0.1331 -0.4086
  302ccc     H2 6955  11.121  12.641   4.098 -0.7408 -0.4223  1.4553
  302ccc     C2 6956  11.169  12.782   4.250 -0.3394 -0.6153 -0.1135
  302ccc     H3 6957  11.179  12.872   4.188  2.9093 -0.4439  0.4414
  302ccc     H4 6958  11.064  12.786   4.280 -0.3634  1.4985 -0.3766
  302ccc     C3 6959  11.278  12.805   4.351  0.5871 -0.0471 -0.1324
  302ccc     H5 6960  11.265  12.908   4.387 -2.1796 -0.2890 -0.2348
  302ccc     H6 6961  11.375  12.804   4.300  0.3980  2.2722 -0.6428
  302ccc     N1 6962  11.327  12.661   4.103 -0.0450  0.3766  0.3575
  302ccc     H7 6963  11.332  12.749   4.051  1.2655 -0.7984 -1.6306
  302ccc     H8 6964  11.402  12.671   4.171  0.4582  1.6619 -0.3508
  302ccc     O1 6965  11.256  12.710   4.460  0.5862 -0.2458 -0.0670
  303ccc     C1 6966  12.653  12.520   7.500  0.6845  0.3384 -0.4536
  303ccc     H1 6967  12.586  12.533   7.587  1.7764  0.8168  0.3360
  303ccc     H2 6968  12.593  12.533   7.409  0.5282  2.8295 -0.0823
  303ccc     C2 6969  12.773  12.616   7.517 -0.7898 -0.7823 -0.8308
  303ccc     H3 6970  12.846  12.575   7.588 -0.4905 -3.4009 -2.4976
  303ccc     H4 6971  12.826  12.607   7.421  0.6273  0.4080 -0.1971
  303ccc     C3 6972  12.735  12.758   7.546  0.0450 -0.0521 -0.4678
  303ccc     H5 6973  12.640  12.764   7.600 -0.1045 -1.5018 -0.5218
  303ccc     H6 6974  12.728  12.821   7.457  0.3290 -1.0876 -1.2335
  303ccc     N1 6975  12.702  12.383   7.502 -0.3441  0.2139 -0.6072
  303ccc     H7 6976  12.738  12.375   7.407  1.2065  1.2508 -0.1429
  303ccc     H8 6977  12.781  12.373   7.565 -0.4596 -2.4943 -0.7983
  303ccc     O1 6978  12.841  12.813   7.635  0.2325  0.4155  0.1224
  304ccc     C1 6979  13.323  13.677   7.663  0.2546 -0.9710  0.6208
  304ccc     H1 6980  13.324  13.709   7.558  0.8918 -0.9697  0.6258
  304ccc     H2 6981  13.226  13.630   7.681 -1.0276  0.9619 -0.8739
  304ccc     C2 6982  13.441  13.583   7.692 -0.0181  0.1176 -0.1271
  304ccc     H3 6983  13.446  13.506   7.614 -1.7891 -0.0212 -0.1596
  304ccc     H4 6984  13.537  13.635   7.685  0.2629 -0.3864 -0.0752
  304ccc     C3 6985  13.428  13.501   7.823  0.0835 -1.0231 -0.5254
  304ccc     H5 6986  13.422  13.554   7.919  1.3726 -1.7420 -0.0198
  304ccc     H6 6987  13.515  13.435   7.831  0.2301 -0.8687 -0.8188
  304ccc     N1 6988  13.331  13.789   7.754 -0.0700  0.0248 -0.0015
  304ccc     H7 6989  13.255  13.846   7.717  0.6538  1.5204  0.7592
  304ccc     H8 6990  13.296  13.757   7.844  1.3545 -0.4330  0.4179
  304ccc     O1 6991  13.306  13.424   7.812 -0.3754  0.5731 -0.8165
  305ccc     C1 6992  12.389  12.302   9.405  0.2218  0.3944  0.3303
  305ccc     H1 6993  12.444  12.232   9.342 -2.3156 -0.7693 -0.7113
  305ccc     H2 6994  12.454  12.362   9.470 -3.1010  4.6580  0.1627
  305ccc     C2 6995  12.304  12.406   9.334  0.0853  0.8549  0.2178
  305ccc     H3 6996  12.251  12.349   9.256 -0.0742 -1.3322  1.8315
  305ccc     H4 6997  12.224  12.432   9.404 -0.8903 -1.7092  0.1445
  305ccc     C3 6998  12.384  12.524   9.283 -0.6863 -0.2591  0.8264
  305ccc     H5 6999  12.471  12.498   9.222 -0.1350 -1.2841  2.0010
  305ccc     H6 7000  12.428  12.578   9.368 -0.1973  0.6792  0.0034
  305ccc     N1 7001  12.306  12.221   9.488  0.1444 -0.1205  0.1932
  305ccc     H7 7002  12.369  12.145   9.513  0.2288 -1.2896 -3.0773
  305ccc     H8 7003  12.297  12.275   9.574  1.3772 -3.8760  2.9754
  305ccc     O1 7004  12.292  12.599   9.199 -0.4405  0.3661  0.0585
  306ccc     C1 7005  12.712  12.697   9.220  0.2938 -0.1410  0.7907
  306ccc     H1 7006  12.665  12.788   9.183  1.3838 -0.7329 -2.3945
  306ccc     H2 7007  12.648  12.610   9.240  3.1053 -2.3522  0.9659
  306ccc     C2 7008  12.827  12.654   9.124 -0.4062 -0.0477  0.0542
  306ccc     H3 7009  12.889  12.742   9.104  0.6078 -0.7914 -0.1636
  306ccc     H4 7010  12.898  12.580   9.163 -0.7941 -1.4410 -1.7333
  306ccc     C3 7011  12.774  12.597   8.990  0.5554  0.1676 -1.4272
  306ccc     H5 7012  12.700  12.518   9.006  1.3577 -0.1326  1.3900
  306ccc     H6 7013  12.857  12.578   8.920 -0.9701 -1.2159 -2.9417
  306ccc     N1 7014  12.763  12.730   9.351  0.9355 -0.4874 -0.0568
  306ccc     H7 7015  12.685  12.733   9.417 -0.1183  0.7760 -1.2816
  306ccc     H8 7016  12.836  12.665   9.378  1.6969  0.5349  0.4596
  306ccc     O1 7017  12.709  12.708   8.930 -0.2638  0.2647  0.2046
  307ccc     C1 7018  10.731  13.199   8.637 -0.5017 -0.6135  0.1006
  307ccc     H1 7019  10.781  13.113   8.590  1.3617  1.2141 -1.4096
  307ccc     H2 7020  10.745  13.184   8.745  1.2047  1.0190  0.1506
  307ccc     C2 7021  10.819  13.321   8.593 -0.2528 -0.4411  0.1251
  307ccc     H3 7022  10.829  13.310   8.484  1.3381  1.6009  0.0162
  307ccc     H4 7023  10.766  13.416   8.610 -0.7883 -1.0946  2.4602
  307ccc     C3 7024  10.956  13.325   8.658 -0.3734 -0.1449  0.4080
  307ccc     H5 7025  11.020  13.379   8.587 -0.7392  1.0141  0.9484
  307ccc     H6 7026  11.000  13.225   8.672  0.9199  0.7604  3.3688
  307ccc     N1 7027  10.593  13.216   8.593  0.0395  0.4683  0.2989
  307ccc     H7 7028  10.596  13.209   8.491 -2.1134  0.2587  0.1943
  307ccc     H8 7029  10.548  13.128   8.616 -0.6592  0.1724 -1.9252
  307ccc     O1 7030  10.951  13.398   8.775  0.0465 -0.3586 -0.0099
  308ccc     C1 7031  11.002  12.523   9.300  0.2479  0.6866 -0.3580
  308ccc     H1 7032  11.038  12.419   9.310  0.2473  0.8245  1.3557
  308ccc     H2 7033  11.056  12.567   9.215  0.0273 -0.7677 -1.3003
  308ccc     C2 7034  10.849  12.507   9.269  0.1644 -0.6695  0.0085
  308ccc     H3 7035  10.840  12.456   9.173  2.9012  0.2731 -0.8463
  308ccc     H4 7036  10.803  12.446   9.348 -0.3712  1.5645  1.5250
  308ccc     C3 7037  10.767  12.634   9.260  0.0823 -0.5135  0.5371
  308ccc     H5 7038  10.755  12.687   9.355  0.1780 -0.3093  0.4341
  308ccc     H6 7039  10.669  12.609   9.217 -1.8063  3.1870  2.2087
  308ccc     N1 7040  11.030  12.592   9.423 -0.5665 -0.4945 -0.3766
  308ccc     H7 7041  11.128  12.571   9.441 -0.4770 -0.2335 -0.5592
  308ccc     H8 7042  11.024  12.691   9.397  0.7959 -0.7555 -1.8376
  308ccc     O1 7043  10.832  12.723   9.170 -0.0263 -0.2355 -0.1938
  309ccc     C1 7044  10.401  13.095   8.310  0.3977  0.7034  0.2401
  309ccc     H1 7045  10.475  13.138   8.378 -1.4912  3.2794  0.7849
  309ccc     H2 7046  10.451  13.073   8.215 -2.9425  0.1379 -1.5571
  309ccc     C2 7047  10.347  12.962   8.371 -0.1617 -0.3935  0.1357
  309ccc     H3 7048  10.284  12.977   8.459 -0.9814 -1.8411 -0.1705
  309ccc     H4 7049  10.281  12.908   8.301 -1.1635  0.5372  0.3378
  309ccc     C3 7050  10.464  12.878   8.406  0.8285  0.2458 -0.0125
  309ccc     H5 7051  10.428  12.797   8.471 -1.5327 -0.1718 -1.6862
  309ccc     H6 7052  10.546  12.931   8.457  3.0388 -2.3008 -0.6647
  309ccc     N1 7053  10.292  13.195   8.297  0.8253 -0.5344 -0.7325
  309ccc     H7 7054  10.325  13.267   8.231  2.1404 -0.1204  0.3330
  309ccc     H8 7055  10.225  13.147   8.238  0.6701 -0.7949 -0.3433
  309ccc     O1 7056  10.519  12.828   8.283  0.2632 -0.0422 -0.0923
  310ccc     C1 7057  10.595  12.072   8.792 -0.1834 -0.4505  0.3204
  310ccc     H1 7058  10.508  12.044   8.853 -1.5054 -0.0809 -1.3129
  310ccc     H2 7059  10.641  11.994   8.731  0.5741  0.7143 -0.6300
  310ccc     C2 7060  10.548  12.199   8.712  0.5210  0.0769 -0.2047
  310ccc     H3 7061  10.483  12.161   8.632 -0.0705 -0.7837  0.6575
  310ccc     H4 7062  10.476  12.270   8.757  0.2150  1.0424 -2.1064
  310ccc     C3 7063  10.659  12.298   8.661  0.5350 -0.3920 -0.3952
  310ccc     H5 7064  10.704  12.354   8.744 -1.2198  1.3294 -0.5276
  310ccc     H6 7065  10.619  12.378   8.598 -1.1219 -0.6084  0.3036
  310ccc     N1 7066  10.698  12.118   8.889  0.2196 -0.0793  0.6169
  310ccc     H7 7067  10.751  12.189   8.839  0.5428 -2.2959 -2.4932
  310ccc     H8 7068  10.636  12.168   8.953  1.5909  1.1930  1.0081
  310ccc     O1 7069  10.746  12.224   8.579  0.4229  0.2573  0.5196
  311ccc     C1 7070  12.487  14.110   6.284  0.2015 -0.0021  0.2640
  311ccc     H1 7071  12.446  14.055   6.369  1.9800 -3.7056 -1.0477
  311ccc     H2 7072  12.577  14.058   6.249 -0.4827 -0.2581 -1.1834
  311ccc     C2 7073  12.385  14.127   6.168 -0.4240 -0.2872  0.0144
  311ccc     H3 7074  12.317  14.210   6.192  0.0744 -0.2054  1.1944
  311ccc     H4 7075  12.444  14.146   6.077  1.9513 -1.0877  1.3090
  311ccc     C3 7076  12.299  13.998   6.146  0.7851  0.3273  0.3005
  311ccc     H5 7077  12.366  13.912   6.145 -1.3489 -1.4267 -1.2571
  311ccc     H6 7078  12.238  14.006   6.056  1.5633  4.0111 -0.0499
  311ccc     N1 7079  12.537  14.241   6.325 -0.0692 -0.9969 -0.0027
  311ccc     H7 7080  12.626  14.217   6.369  0.2362  0.8554  0.4847
  311ccc     H8 7081  12.563  14.298   6.245  0.7618  0.9555  1.5585
  311ccc     O1 7082  12.216  13.975   6.266 -0.6352  0.8098  0.1610
  312ccc     C1 7083  11.804  13.128   5.835 -0.3161 -0.3292  0.3896
  312ccc     H1 7084  11.734  13.141   5.751  1.0640  3.0937 -0.3964
  312ccc     H2 7085  11.889  13.067   5.803 -1.0399 -1.0837 -0.1517
  312ccc     C2 7086  11.847  13.270   5.871  0.1564  1.3946 -0.2255
  312ccc     H3 7087  11.901  13.324   5.793  1.8236 -0.3970 -0.3935
  312ccc     H4 7088  11.757  13.330   5.890 -1.5619 -0.8133 -0.9127
  312ccc     C3 7089  11.935  13.280   5.995 -0.3989 -0.5832  0.1472
  312ccc     H5 7090  12.021  13.212   5.983 -0.0950 -0.4163  1.2587
  312ccc     H6 7091  11.879  13.246   6.083 -0.4551  2.1722  1.2515
  312ccc     N1 7092  11.747  13.072   5.959 -0.4312  0.0172  0.4163
  312ccc     H7 7093  11.658  13.121   5.965 -0.9066 -0.8697  0.6971
  312ccc     H8 7094  11.726  12.978   5.926 -0.9956  1.2089 -3.0396
  312ccc     O1 7095  11.970  13.424   6.013  0.2623  0.2953 -0.3438
  313ccc     C1 7096  11.497  13.603   8.203  0.0132 -1.1451 -0.6862
  313ccc     H1 7097  11.413  13.533   8.192 -1.4917  0.2027  1.4018
  313ccc     H2 7098  11.587  13.541   8.193  0.3162 -0.8251 -0.0784
  313ccc     C2 7099  11.483  13.720   8.098 -0.4012  0.5140  0.4485
  313ccc     H3 7100  11.383  13.764   8.108 -0.8005 -0.4742  1.0162
  313ccc     H4 7101  11.559  13.794   8.127  1.9168 -1.9904  1.2254
  313ccc     C3 7102  11.502  13.666   7.954  0.4440  0.0403 -0.4412
  313ccc     H5 7103  11.501  13.739   7.872 -0.7190  0.1321 -0.3667
  313ccc     H6 7104  11.425  13.589   7.940  1.7061 -1.4464  0.4037
  313ccc     N1 7105  11.493  13.664   8.345  0.5082  0.1928  0.5485
  313ccc     H7 7106  11.521  13.588   8.406 -0.0116 -0.1294  0.3892
  313ccc     H8 7107  11.574  13.725   8.356 -0.3144  1.1910  1.3556
  313ccc     O1 7108  11.631  13.600   7.945  0.1331  0.2461  0.1639
  314ccc     C1 7109  11.928  13.427   8.637  0.4362 -0.0873 -0.1248
  314ccc     H1 7110  11.828  13.389   8.660  1.0320 -1.9752 -0.4495
  314ccc     H2 7111  12.000  13.358   8.684  2.0420 -0.0700 -2.3837
  314ccc     C2 7112  11.973  13.445   8.492  0.0545  0.1520 -0.2423
  314ccc     H3 7113  11.897  13.489   8.426  0.5231 -0.5851 -1.3029
  314ccc     H4 7114  12.051  13.522   8.496  0.3028 -0.1141  0.0949
  314ccc     C3 7115  12.029  13.307   8.427  0.2873 -1.0254  0.3800
  314ccc     H5 7116  11.952  13.229   8.431 -1.0780  0.3023  1.3795
  314ccc     H6 7117  12.111  13.265   8.485  0.5320 -0.8291  0.1788
  314ccc     N1 7118  11.921  13.551   8.712  0.9487  0.4027 -0.0551
  314ccc     H7 7119  12.013  13.595   8.705 -0.5068  3.5793 -1.0642
  314ccc     H8 7120  11.870  13.620   8.657  0.3914 -0.7143 -0.9714
  314ccc     O1 7121  12.085  13.340   8.298 -0.0920  0.5908  0.0319
  315ccc     C1 7122  10.813  14.131   6.110 -0.6437 -0.6012  1.0054
  315ccc     H1 7123  10.787  14.135   6.216 -0.7466 -1.5414  1.0174
  315ccc     H2 7124  10.915  14.100   6.088 -0.8531 -0.6660  0.0745
  315ccc     C2 7125  10.726  14.037   6.030 -0.3842 -0.0022 -0.5233
  315ccc     H3 7126  10.790  14.014   5.943  3.8602  0.9151  2.0549
  315ccc     H4 7127  10.711  13.944   6.086  0.9175  1.3035  2.1785
  315ccc     C3 7128  10.586  14.088   5.985  0.8145 -0.6485 -0.2095
  315ccc     H5 7129  10.517  14.009   5.954 -0.4107 -0.6978  2.3567
  315ccc     H6 7130  10.595  14.161   5.903  0.3196  1.2457  1.3437
  315ccc     N1 7131  10.800  14.270   6.062  0.0107 -0.1507  0.2261
  315ccc     H7 7132  10.700  14.286   6.072 -0.1196 -1.2791  0.9337
  315ccc     H8 7133  10.845  14.330   6.131  0.1284  0.3744 -0.2969
  315ccc     O1 7134  10.519  14.141   6.104 -0.5393  0.0066 -0.4394
  316ccc     C1 7135  10.407  15.017   6.345  0.5174 -0.5469  0.3517
  316ccc     H1 7136  10.482  15.054   6.273  0.1006 -1.2319 -0.4482
  316ccc     H2 7137  10.364  14.928   6.299  1.4320 -1.6171  1.5214
  316ccc     C2 7138  10.456  14.994   6.489  0.0518 -0.7768 -1.0363
  316ccc     H3 7139  10.463  15.094   6.532  2.0654 -1.2782 -0.1092
  316ccc     H4 7140  10.376  14.943   6.545  0.5705  1.0509  1.5424
  316ccc     C3 7141  10.583  14.906   6.511  0.2721 -0.1535  0.0626
  316ccc     H5 7142  10.617  14.919   6.615  0.4013 -0.7630  0.1028
  316ccc     H6 7143  10.664  14.939   6.445  2.4565 -3.5840  0.7409
  316ccc     N1 7144  10.307  15.121   6.358  0.9541  0.0174 -0.0091
  316ccc     H7 7145  10.246  15.075   6.426 -0.3230 -1.4081 -2.0161
  316ccc     H8 7146  10.340  15.191   6.425 -1.4452 -1.5299  3.0808
  316ccc     O1 7147  10.549  14.766   6.481 -0.4447  0.7712 -0.4320
  317ccc     C1 7148  11.256  15.120   6.235 -0.0223  0.5239  0.3362
  317ccc     H1 7149  11.247  15.134   6.127 -0.5397 -0.0520  0.3003
  317ccc     H2 7150  11.160  15.083   6.275  0.7181 -0.2921  1.4056
  317ccc     C2 7151  11.357  15.011   6.267  0.4326  0.5474 -0.3827
  317ccc     H3 7152  11.454  15.050   6.300 -0.2603  1.3175  0.7909
  317ccc     H4 7153  11.318  14.967   6.359 -1.6894  3.9021  0.4750
  317ccc     C3 7154  11.377  14.910   6.156  0.7272  0.0156  0.8726
  317ccc     H5 7155  11.454  14.839   6.189  1.3139  1.1972  2.1760
  317ccc     H6 7156  11.410  14.955   6.061 -0.7672 -1.8386 -0.5811
  317ccc     N1 7157  11.281  15.248   6.309 -0.0257 -0.3574  0.4166
  317ccc     H7 7158  11.375  15.266   6.273 -0.3615 -0.6524 -0.6578
  317ccc     H8 7159  11.222  15.320   6.267  0.9400  0.3955  0.3232
  317ccc     O1 7160  11.249  14.839   6.136 -0.1632  0.8595 -0.6581
  318ccc     C1 7161  10.235  14.689   6.136 -0.5812  0.0741  0.0441
  318ccc     H1 7162  10.298  14.670   6.224 -1.2685 -1.5758  0.2220
  318ccc     H2 7163  10.190  14.788   6.143 -0.1021  0.1931  2.7412
  318ccc     C2 7164  10.324  14.659   6.013 -0.2064 -0.5947 -0.1817
  318ccc     H3 7165  10.365  14.557   6.015  1.9169  0.1992 -0.1893
  318ccc     H4 7166  10.262  14.678   5.925  0.7012  0.9459 -0.5253
  318ccc     C3 7167  10.444  14.754   6.006  0.1660  0.1550 -0.8496
  318ccc     H5 7168  10.420  14.861   6.003 -0.4726  0.0866  0.6978
  318ccc     H6 7169  10.501  14.733   5.915  0.2095 -0.7350 -0.6313
  318ccc     N1 7170  10.120  14.601   6.133  0.4008  0.3727 -0.5675
  318ccc     H7 7171  10.055  14.634   6.204  0.0988  3.8360 -2.2115
  318ccc     H8 7172  10.068  14.634   6.051 -1.1089  0.8289  0.5458
  318ccc     O1 7173  10.525  14.712   6.119 -0.4743  0.1528  1.2656
  319ccc     C1 7174  13.628   9.398   6.011 -0.6188  0.1367 -0.5248
  319ccc     H1 7175  13.690   9.487   6.028 -0.7410 -0.2216  2.2953
  319ccc     H2 7176  13.578   9.369   6.104 -0.9591  1.1906 -0.3673
  319ccc     C2 7177  13.536   9.419   5.891  0.1461 -0.1963  0.1225
  319ccc     H3 7178  13.480   9.327   5.873 -1.1030  0.6942 -0.7293
  319ccc     H4 7179  13.457   9.494   5.905 -1.3406 -1.1651 -2.3514
  319ccc     C3 7180  13.612   9.457   5.754  0.4156  0.1176  0.4315
  319ccc     H5 7181  13.548   9.469   5.666  1.4605  1.9185 -0.1314
  319ccc     H6 7182  13.695   9.387   5.734  0.4478  0.3042 -0.1054
  319ccc     N1 7183  13.727   9.285   5.997  0.0032 -0.0402  0.4305
  319ccc     H7 7184  13.806   9.322   5.943 -0.6532 -1.6197 -1.7502
  319ccc     H8 7185  13.764   9.272   6.091 -0.7393 -2.3536  0.4500
  319ccc     O1 7186  13.669   9.587   5.762 -0.2789  0.5131 -0.0822
  320ccc     C1 7187  14.417  10.406   5.546 -1.1516 -0.4226 -0.7822
  320ccc     H1 7188  14.520  10.378   5.572 -1.3660  0.2187  0.9197
  320ccc     H2 7189  14.389  10.325   5.478 -3.4256 -0.1884 -0.2365
  320ccc     C2 7190  14.334  10.407   5.673 -0.4319 -0.4360 -0.4374
  320ccc     H3 7191  14.376  10.474   5.749 -1.3693  1.3357 -1.4027
  320ccc     H4 7192  14.233  10.435   5.641 -1.0041 -1.2504  0.6177
  320ccc     C3 7193  14.330  10.266   5.744 -0.0008  0.7058 -0.2592
  320ccc     H5 7194  14.272  10.281   5.836 -1.4229  1.2942 -1.2069
  320ccc     H6 7195  14.430  10.233   5.773 -0.5909 -0.6327  0.3492
  320ccc     N1 7196  14.437  10.533   5.485 -0.3319 -0.0939 -0.1082
  320ccc     H7 7197  14.467  10.522   5.388  1.0530  0.7898  0.1872
  320ccc     H8 7198  14.339  10.556   5.470 -0.5079 -0.4939  0.4103
  320ccc     O1 7199  14.269  10.168   5.660  0.1912 -0.6750 -0.0062
  321ccc     C1 7200  13.050   9.813   6.497 -0.3105 -0.2632 -0.8216
  321ccc     H1 7201  13.003   9.722   6.457 -0.4516  0.0411 -1.3560
  321ccc     H2 7202  13.125   9.849   6.426  0.1841  0.3523 -0.0053
  321ccc     C2 7203  12.942   9.921   6.510 -0.6394  1.0028  0.2026
  321ccc     H3 7204  12.868   9.867   6.570 -1.5901  1.5217 -0.4725
  321ccc     H4 7205  12.978  10.009   6.565 -2.8022  1.0642  1.6476
  321ccc     C3 7206  12.893   9.960   6.372  0.0788 -0.2221 -0.1377
  321ccc     H5 7207  12.984   9.998   6.323 -0.5928 -0.0833 -1.3143
  321ccc     H6 7208  12.826  10.044   6.395  2.2646  1.1392  1.7160
  321ccc     N1 7209  13.110   9.782   6.630 -0.2767 -0.7303  0.3866
  321ccc     H7 7210  13.038   9.749   6.695 -1.4783 -1.4893 -1.2413
  321ccc     H8 7211  13.155   9.696   6.601 -1.1476 -0.9350 -0.4346
  321ccc     O1 7212  12.847   9.856   6.295  0.5120 -0.0499 -0.1705
  322ccc     C1 7213  13.216   9.000   5.813 -0.7296  0.1876 -0.5041
  322ccc     H1 7214  13.270   9.091   5.783  0.2564  0.3200  1.5141
  322ccc     H2 7215  13.288   8.936   5.865 -1.8371 -0.0364  0.7920
  322ccc     C2 7216  13.097   9.034   5.901 -1.5292  0.5668 -0.4182
  322ccc     H3 7217  13.027   9.101   5.848 -0.3392  1.7317 -0.5695
  322ccc     H4 7218  13.041   8.945   5.934 -1.8144  0.8452 -0.1477
  322ccc     C3 7219  13.142   9.105   6.031  0.8722 -1.1892 -0.5767
  322ccc     H5 7220  13.242   9.065   6.052  0.8601  0.1480  2.6532
  322ccc     H6 7221  13.070   9.073   6.107 -0.2589 -1.0836 -1.5778
  322ccc     N1 7222  13.175   8.923   5.698 -0.4471 -0.1869 -0.1420
  322ccc     H7 7223  13.260   8.910   5.643  1.1705 -0.8492  2.3795
  322ccc     H8 7224  13.164   8.825   5.723  0.8611 -0.0179  1.1895
  322ccc     O1 7225  13.136   9.244   6.007  0.0908 -0.2033 -0.2090
  323ccc     C1 7226  12.574  11.395   4.485  0.2931 -0.1228 -0.2963
  323ccc     H1 7227  12.630  11.326   4.551 -0.7034 -0.6336  0.0326
  323ccc     H2 7228  12.530  11.341   4.401 -0.1599  0.0004 -0.1419
  323ccc     C2 7229  12.468  11.470   4.564  0.4188  0.3995  0.2682
  323ccc     H3 7230  12.518  11.531   4.641 -2.4565  0.4811  2.2203
  323ccc     H4 7231  12.422  11.549   4.504  0.3860 -0.7061 -1.1996
  323ccc     C3 7232  12.358  11.385   4.617  0.6596 -0.0261 -0.0811
  323ccc     H5 7233  12.286  11.368   4.536 -1.3658 -0.3841  1.7105
  323ccc     H6 7234  12.301  11.439   4.694  0.4579  0.3647 -0.5028
  323ccc     N1 7235  12.666  11.494   4.427  0.0365 -1.0837 -0.1467
  323ccc     H7 7236  12.710  11.555   4.496  2.4446 -2.4742 -0.3787
  323ccc     H8 7237  12.746  11.448   4.385  0.6323 -0.5114  0.3440
  323ccc     O1 7238  12.404  11.258   4.677  0.8430 -0.1345  0.3380
  324ccc     C1 7239  12.814  11.786   5.663  0.1468 -0.1338  0.1592
  324ccc     H1 7240  12.851  11.682   5.662  1.6259  0.2704  2.5403
  324ccc     H2 7241  12.880  11.846   5.600  0.5028 -1.6790 -1.0105
  324ccc     C2 7242  12.666  11.787   5.618  0.0046 -0.1719 -0.1929
  324ccc     H3 7243  12.603  11.712   5.666  0.8216 -0.6548  0.1491
  324ccc     H4 7244  12.618  11.885   5.634 -0.0049  0.0525 -1.4940
  324ccc     C3 7245  12.664  11.770   5.464  0.1334  0.1496  0.0678
  324ccc     H5 7246  12.723  11.849   5.416 -0.5330 -0.0690 -1.1518
  324ccc     H6 7247  12.561  11.768   5.426  0.6938 -0.0083 -1.5284
  324ccc     N1 7248  12.820  11.831   5.800  0.0577 -0.0386  0.4410
  324ccc     H7 7249  12.920  11.843   5.813  0.0269  0.7997  0.0054
  324ccc     H8 7250  12.799  11.746   5.852 -0.8332  0.8090  1.5301
  324ccc     O1 7251  12.725  11.649   5.431 -0.6626  0.4023 -1.3838
  325ccc     C1 7252  13.415  11.845   5.031  0.2741 -0.2078  0.5390
  325ccc     H1 7253  13.364  11.890   5.118  1.4964  0.1793  1.0809
  325ccc     H2 7254  13.507  11.898   5.003 -1.4681  2.0411 -1.3230
  325ccc     C2 7255  13.455  11.708   5.084 -0.1048  0.3000  0.1417
  325ccc     H3 7256  13.366  11.660   5.126 -0.0438  3.3574  4.4092
  325ccc     H4 7257  13.497  11.637   5.011 -1.9682 -1.0010  0.2567
  325ccc     C3 7258  13.551  11.714   5.202  0.0341 -0.6068  0.1403
  325ccc     H5 7259  13.626  11.788   5.169 -1.5113  1.4057  0.9322
  325ccc     H6 7260  13.599  11.617   5.217 -0.3682 -0.6841  0.9529
  325ccc     N1 7261  13.343  11.845   4.908  0.2143  0.2383 -0.1115
  325ccc     H7 7262  13.286  11.930   4.907 -1.4277 -0.8180  0.0605
  325ccc     H8 7263  13.402  11.845   4.825  0.4536  0.0516  0.0579
  325ccc     O1 7264  13.491  11.773   5.324 -0.0447 -0.1730 -0.0777
  326ccc     C1 7265  14.051  12.425   5.483 -0.0945 -0.5179 -0.5153
  326ccc     H1 7266  14.045  12.316   5.496  0.5932 -0.4547  0.3644
  326ccc     H2 7267  14.000  12.448   5.388 -1.2887 -0.0463  0.2149
  326ccc     C2 7268  13.980  12.509   5.595  0.3199  0.1614  0.1431
  326ccc     H3 7269  14.033  12.510   5.691  1.0934  0.8828 -0.2821
  326ccc     H4 7270  13.991  12.614   5.567 -0.5767  0.1044 -0.4544
  326ccc     C3 7271  13.827  12.468   5.607  0.5033 -0.3402  0.0072
  326ccc     H5 7272  13.764  12.478   5.518  0.5204  1.6199  0.1663
  326ccc     H6 7273  13.785  12.547   5.670 -2.4944 -1.1001 -0.8921
  326ccc     N1 7274  14.193  12.452   5.470  0.1290  0.3494  0.4499
  326ccc     H7 7275  14.227  12.406   5.554 -2.1294  1.5296  2.1296
  326ccc     H8 7276  14.226  12.389   5.398 -1.0811 -1.1595  1.1690
  326ccc     O1 7277  13.806  12.342   5.676  0.2200 -0.1141  0.2979
  327ccc     C1 7278  10.473  10.338   5.916 -1.1200 -0.4963 -0.0070
  327ccc     H1 7279  10.512  10.313   5.817  0.9349 -0.1461  0.6718
  327ccc     H2 7280  10.529  10.284   5.993 -0.5174 -0.1948 -0.2338
  327ccc     C2 7281  10.466  10.485   5.954 -0.8554 -0.7074 -0.1889
  327ccc     H3 7282  10.402  10.537   5.881 -1.6072 -1.8255 -0.3527
  327ccc     H4 7283  10.423  10.499   6.054  2.7459  1.1988  1.2641
  327ccc     C3 7284  10.611  10.541   5.944  0.2906 -0.5792 -0.3719
  327ccc     H5 7285  10.629  10.528   5.836  0.7512 -0.3462 -0.3245
  327ccc     H6 7286  10.677  10.481   6.007  0.1199 -0.8730 -0.4689
  327ccc     N1 7287  10.340  10.275   5.926 -0.0664  0.5296  0.3858
  327ccc     H7 7288  10.298  10.330   6.000  1.7306  2.1328  0.2802
  327ccc     H8 7289  10.294  10.299   5.838 -0.2490 -0.2729  0.2495
  327ccc     O1 7290  10.612  10.680   5.972  1.2404 -0.4179  0.4395
  328ccc     C1 7291  10.884  10.401   6.451  0.9440  0.1145 -0.6967
  328ccc     H1 7292  10.984  10.372   6.486 -0.2934 -0.8017  2.4506
  328ccc     H2 7293  10.825  10.428   6.539 -0.1339 -1.7495 -0.7796
  328ccc     C2 7294  10.877  10.511   6.347 -0.2693 -0.2986  0.1636
  328ccc     H3 7295  10.779  10.524   6.299 -0.1561 -0.8525 -0.2413
  328ccc     H4 7296  10.890  10.605   6.402  1.2215  0.0900 -0.7857
  328ccc     C3 7297  10.991  10.514   6.238  0.4033  0.1548 -0.0875
  328ccc     H5 7298  10.947  10.554   6.147  1.7580 -1.3684 -1.4701
  328ccc     H6 7299  11.032  10.413   6.225  1.4187  0.5780 -0.2804
  328ccc     N1 7300  10.810  10.290   6.388 -0.2573 -0.4473 -0.5392
  328ccc     H7 7301  10.777  10.234   6.466  0.2580  1.3402  1.0193
  328ccc     H8 7302  10.723  10.338   6.367  0.7565  1.7496 -0.0923
  328ccc     O1 7303  11.095  10.607   6.272 -0.1854 -0.7299  0.0393
  329ccc     C1 7304  11.388  11.561   4.205 -0.6392 -0.0800 -0.2399
  329ccc     H1 7305  11.496  11.544   4.205 -0.5960  0.1751 -0.8393
  329ccc     H2 7306  11.336  11.466   4.223 -1.1026  0.3245  0.5948
  329ccc     C2 7307  11.351  11.660   4.313  0.4419  0.2793 -0.1873
  329ccc     H3 7308  11.371  11.761   4.276  1.7873 -0.5517 -1.8635
  329ccc     H4 7309  11.243  11.663   4.336  0.8325  0.6845  1.7659
  329ccc     C3 7310  11.433  11.634   4.440  0.3881 -0.7453 -0.1337
  329ccc     H5 7311  11.410  11.710   4.515 -0.2425 -0.3032 -0.7663
  329ccc     H6 7312  11.540  11.639   4.417  0.7409 -2.2010  1.0189
  329ccc     N1 7313  11.354  11.603   4.068  0.0283 -0.1343  0.4662
  329ccc     H7 7314  11.419  11.678   4.045 -1.1652  0.4791 -1.0595
  329ccc     H8 7315  11.400  11.532   4.012 -2.6315 -0.0567 -2.0336
  329ccc     O1 7316  11.405  11.500   4.482  1.0361  0.0094  0.6020
  330ccc     C1 7317  10.760  10.780   5.138  0.9972 -0.3294 -0.1121
  330ccc     H1 7318  10.869  10.774   5.129  1.2652  2.3519  0.5087
  330ccc     H2 7319  10.720  10.737   5.231 -2.1092 -1.9820 -2.0442
  330ccc     C2 7320  10.728  10.925   5.133  0.1280  0.0426  0.4189
  330ccc     H3 7321  10.621  10.933   5.157  0.2887 -0.6651  1.4268
  330ccc     H4 7322  10.786  10.984   5.205  0.9374 -2.2756  1.7634
  330ccc     C3 7323  10.747  11.002   5.006 -0.2303 -0.0827  0.1831
  330ccc     H5 7324  10.739  11.108   5.032  2.1368  0.9093 -2.5356
  330ccc     H6 7325  10.685  10.978   4.919  2.9240  0.5333 -2.4462
  330ccc     N1 7326  10.692  10.705   5.035  0.2783  0.0001 -0.3596
  330ccc     H7 7327  10.734  10.748   4.953 -0.9643  0.6338 -0.6921
  330ccc     H8 7328  10.731  10.611   5.026  0.6512  0.0490  0.5902
  330ccc     O1 7329  10.880  10.983   4.958  1.1710 -0.4010 -0.9753
  331ccc     C1 7330  12.178  11.823   5.527  0.1751 -0.0886  0.7107
  331ccc     H1 7331  12.103  11.903   5.536  0.8816  0.8951 -1.3534
  331ccc     H2 7332  12.115  11.736   5.549 -0.4125  0.0829 -0.2322
  331ccc     C2 7333  12.233  11.803   5.379 -0.2213 -0.5245  0.3910
  331ccc     H3 7334  12.248  11.905   5.341 -3.3096 -0.7890 -1.9102
  331ccc     H4 7335  12.335  11.763   5.380 -0.1749 -0.4875  2.7746
  331ccc     C3 7336  12.132  11.726   5.296  0.2860 -0.3875  0.0533
  331ccc     H5 7337  12.044  11.789   5.275 -1.2024 -1.6686  2.1750
  331ccc     H6 7338  12.091  11.647   5.359 -1.0377  0.4930  0.3394
  331ccc     N1 7339  12.282  11.845   5.629  0.3112 -0.3380  0.1927
  331ccc     H7 7340  12.224  11.865   5.711 -0.6612 -2.6552  0.1663
  331ccc     H8 7341  12.322  11.754   5.652 -1.3612 -1.8403 -2.2409
  331ccc     O1 7342  12.202  11.673   5.177  0.1921 -0.0225 -0.1710
  332ccc     C1 7343  12.598  12.403   4.855 -0.1987 -0.8823 -0.0708
  332ccc     H1 7344  12.670  12.374   4.933 -1.6786 -0.9552  1.2980
  332ccc     H2 7345  12.585  12.313   4.794  0.1706 -1.0290  0.0624
  332ccc     C2 7346  12.462  12.455   4.915  0.1292 -0.3135  0.5073
  332ccc     H3 7347  12.480  12.531   4.992  1.3010  0.9337 -0.9337
  332ccc     H4 7348  12.408  12.500   4.831 -1.1653 -1.5692  0.6287
  332ccc     C3 7349  12.381  12.335   4.962  0.0786 -0.9616  0.0078
  332ccc     H5 7350  12.346  12.279   4.875  1.3159 -0.6756 -0.6917
  332ccc     H6 7351  12.288  12.370   5.009 -0.5114 -0.8548 -1.2095
  332ccc     N1 7352  12.678  12.490   4.773 -0.7886 -0.0841 -0.4598
  332ccc     H7 7353  12.711  12.558   4.842  4.4254 -2.2256 -0.4424
  332ccc     H8 7354  12.766  12.440   4.762 -1.9544 -2.1705 -0.7202
  332ccc     O1 7355  12.442  12.251   5.059 -0.1669  0.1794 -0.3763
  333ccc     C1 7356  12.369   9.994   4.742  0.8275  0.2544 -0.8266
  333ccc     H1 7357  12.369  10.095   4.784  0.2303 -0.3389  0.7218
  333ccc     H2 7358  12.347   9.919   4.819 -0.3022  0.1721 -1.2084
  333ccc     C2 7359  12.264   9.984   4.626 -0.4000 -0.3541 -0.2689
  333ccc     H3 7360  12.290  10.061   4.553 -0.6680  0.9429  0.9490
  333ccc     H4 7361  12.280   9.886   4.581 -1.8739 -1.1587  0.8629
  333ccc     C3 7362  12.121   9.998   4.679 -0.2140  0.1001  0.8678
  333ccc     H5 7363  12.105   9.923   4.758  1.9421  0.2575  1.5199
  333ccc     H6 7364  12.048   9.988   4.598  1.4820  0.5588 -0.7810
  333ccc     N1 7365  12.504   9.976   4.695  0.1433 -0.2305 -0.1426
  333ccc     H7 7366  12.521  10.060   4.640 -0.0930 -0.7904 -1.1018
  333ccc     H8 7367  12.556  10.002   4.778 -0.4260  1.5827 -0.3181
  333ccc     O1 7368  12.111  10.119   4.757 -0.2666 -0.7750  0.3514
  334ccc     C1 7369  11.105  10.233   4.938 -0.3158  0.2423  0.3723
  334ccc     H1 7370  11.095  10.154   5.014 -0.4678  0.1701  0.2782
  334ccc     H2 7371  11.076  10.329   4.982 -1.4488  1.0308 -1.9388
  334ccc     C2 7372  11.246  10.248   4.870  0.1460  0.0204 -0.1175
  334ccc     H3 7373  11.254  10.172   4.791 -0.9769  1.5774 -1.8206
  334ccc     H4 7374  11.242  10.347   4.821 -1.0062 -0.6030 -1.3643
  334ccc     C3 7375  11.357  10.228   4.971 -0.3770  0.9999  0.1865
  334ccc     H5 7376  11.452  10.233   4.917  0.3166 -1.0742  1.0994
  334ccc     H6 7377  11.349  10.126   5.012 -4.2594  0.2700 -1.8872
  334ccc     N1 7378  11.003  10.208   4.829 -0.0448  0.1149  0.3858
  334ccc     H7 7379  10.908  10.212   4.867  0.2993 -1.9560  1.6053
  334ccc     H8 7380  11.015  10.293   4.773 -0.6010  0.1935  0.3848
  334ccc     O1 7381  11.344  10.326   5.064 -0.1016 -0.0703  0.5108
  335ccc     C1 7382  14.330  11.456   7.642 -0.2372 -0.4292  0.1627
  335ccc     H1 7383  14.284  11.366   7.599  1.9800 -1.7008  0.3295
  335ccc     H2 7384  14.439  11.455   7.637 -0.2819  0.6783 -2.8372
  335ccc     C2 7385  14.291  11.595   7.567 -0.1923 -0.0078 -0.5843
  335ccc     H3 7386  14.351  11.682   7.595 -0.3197  0.9465 -3.0294
  335ccc     H4 7387  14.308  11.583   7.459 -0.4933 -2.0681 -0.4470
  335ccc     C3 7388  14.136  11.623   7.592 -0.7167  0.4291 -0.2497
  335ccc     H5 7389  14.092  11.705   7.533 -3.2796 -0.1250  0.7564
  335ccc     H6 7390  14.112  11.648   7.696 -0.3862  2.7619 -0.6771
  335ccc     N1 7391  14.307  11.461   7.790  0.4781 -0.1183  0.2920
  335ccc     H7 7392  14.335  11.551   7.828  0.3282 -0.5266  1.3997
  335ccc     H8 7393  14.205  11.460   7.802  0.3261  0.0891 -0.8480
  335ccc     O1 7394  14.069  11.497   7.574  0.2307 -0.0155  0.4768
  336ccc     C1 7395  13.607  10.524   7.853 -0.4508  0.8578 -0.0977
  336ccc     H1 7396  13.561  10.620   7.880  2.5446  2.4240 -0.1343
  336ccc     H2 7397  13.538  10.471   7.786 -0.9071  1.8341 -0.4245
  336ccc     C2 7398  13.723  10.556   7.758  0.0010 -0.2904 -0.7165
  336ccc     H3 7399  13.795  10.611   7.821 -0.4464 -1.9572  1.3243
  336ccc     H4 7400  13.779  10.470   7.719  1.3416  0.4904 -0.5779
  336ccc     C3 7401  13.674  10.638   7.643 -0.2951 -0.2444  0.1109
  336ccc     H5 7402  13.608  10.582   7.576 -0.1973 -0.5976  0.3077
  336ccc     H6 7403  13.764  10.652   7.582  1.1477 -2.8643  1.4319
  336ccc     N1 7404  13.650  10.430   7.958  0.2616  0.4519 -0.4954
  336ccc     H7 7405  13.713  10.362   7.916  0.1664 -0.0130  0.1103
  336ccc     H8 7406  13.707  10.496   8.012 -1.4873 -0.0686  2.2090
  336ccc     O1 7407  13.605  10.762   7.676  0.4760  0.1462 -0.3622
  337ccc     C1 7408  14.053  10.853   7.618 -0.3652 -0.6934 -0.1552
  337ccc     H1 7409  14.102  10.880   7.524 -0.0356 -0.7847 -0.0136
  337ccc     H2 7410  13.952  10.813   7.611 -1.5557  2.2944 -1.9910
  337ccc     C2 7411  14.149  10.760   7.696 -1.0602  0.0471 -0.5339
  337ccc     H3 7412  14.241  10.819   7.695 -0.6199 -0.3936  2.8373
  337ccc     H4 7413  14.121  10.758   7.802 -0.3877  5.1640 -0.0315
  337ccc     C3 7414  14.183  10.625   7.637 -0.4675  1.2093 -0.1590
  337ccc     H5 7415  14.241  10.569   7.710 -1.2224 -2.2350 -1.9826
  337ccc     H6 7416  14.240  10.635   7.543  2.0131  2.6652  1.3927
  337ccc     N1 7417  14.034  10.979   7.683 -0.0077  0.1812 -0.2667
  337ccc     H7 7418  13.947  11.010   7.641 -0.8129  0.5876  1.5875
  337ccc     H8 7419  14.009  10.947   7.776 -0.9753 -0.1816 -0.6353
  337ccc     O1 7420  14.060  10.557   7.619 -0.8885 -0.0787 -0.5792
  338ccc     C1 7421  14.362  10.546   6.759  0.5780 -0.3705 -0.1118
  338ccc     H1 7422  14.359  10.480   6.671  1.0639  2.5250 -2.4400
  338ccc     H2 7423  14.355  10.649   6.724 -0.3710 -0.5238 -0.4022
  338ccc     C2 7424  14.239  10.525   6.849  0.4261 -0.0928  0.2821
  338ccc     H3 7425  14.259  10.568   6.947  0.6631  3.1980 -1.0896
  338ccc     H4 7426  14.151  10.585   6.826  1.3986  2.4895  2.7463
  338ccc     C3 7427  14.200  10.373   6.859  0.0921  0.1452  0.6027
  338ccc     H5 7428  14.286  10.308   6.837 -0.7687 -1.8683  2.7631
  338ccc     H6 7429  14.126  10.342   6.784  2.0834 -0.8573 -1.0605
  338ccc     N1 7430  14.483  10.532   6.834  0.3538 -0.4956  0.0947
  338ccc     H7 7431  14.484  10.612   6.896 -0.2444 -0.2374 -0.2227
  338ccc     H8 7432  14.545  10.566   6.760  0.7212 -0.0806  0.5854
  338ccc     O1 7433  14.146  10.354   6.993 -0.1011 -0.7164  0.2324
  339ccc     C1 7434  12.553  10.221   5.579 -0.2923 -1.1953 -0.0824
  339ccc     H1 7435  12.493  10.129   5.587 -3.0743  0.6520  1.4539
  339ccc     H2 7436  12.536  10.277   5.671  0.6208 -0.0828 -0.5655
  339ccc     C2 7437  12.707  10.204   5.564  0.5057  0.8623 -0.3829
  339ccc     H3 7438  12.737  10.171   5.464  2.3958 -1.0630  0.7512
  339ccc     H4 7439  12.750  10.301   5.591  2.0922 -0.0996  0.7582
  339ccc     C3 7440  12.757  10.097   5.671  0.3525  0.8078 -0.4276
  339ccc     H5 7441  12.712  10.127   5.766 -0.5766 -2.9339  0.4601
  339ccc     H6 7442  12.866  10.101   5.688  0.5208  0.1587 -1.2976
  339ccc     N1 7443  12.500  10.306   5.475 -0.3492  0.7916 -0.3517
  339ccc     H7 7444  12.560  10.387   5.459 -2.1672  2.3540  0.3705
  339ccc     H8 7445  12.491  10.258   5.386 -0.7683  0.7385 -0.2827
  339ccc     O1 7446  12.719   9.970   5.632  0.1900 -0.5996  0.0126
  340ccc     C1 7447  12.554   9.035   5.159  0.5943 -0.3768 -0.4689
  340ccc     H1 7448  12.478   9.048   5.237 -0.4438 -3.7007 -0.7577
  340ccc     H2 7449  12.528   9.092   5.069 -1.1819 -0.3362  0.0273
  340ccc     C2 7450  12.691   9.077   5.210  0.5034  1.1980 -0.4014
  340ccc     H3 7451  12.714   9.014   5.297 -2.3501  0.7002  0.1033
  340ccc     H4 7452  12.772   9.067   5.136  1.5440  0.9659  0.7403
  340ccc     C3 7453  12.684   9.221   5.259  0.0361  0.4724 -0.0181
  340ccc     H5 7454  12.652   9.283   5.174 -1.0630 -0.7458 -0.5298
  340ccc     H6 7455  12.781   9.255   5.298 -0.3320  0.5667  0.8269
  340ccc     N1 7456  12.543   8.898   5.122  0.9091  0.0844 -0.1031
  340ccc     H7 7457  12.510   8.863   5.212 -1.7153 -1.1762 -1.4243
  340ccc     H8 7458  12.453   8.886   5.075  0.6829 -2.2029  0.7955
  340ccc     O1 7459  12.591   9.231   5.372  0.1855  0.0161  0.0745
  341ccc     C1 7460  14.039   9.611   5.904 -0.3593  0.4469 -0.6013
  341ccc     H1 7461  13.936   9.572   5.901 -0.4966  0.7076  0.2580
  341ccc     H2 7462  14.045   9.689   5.828  1.0025 -0.7952 -1.8151
  341ccc     C2 7463  14.073   9.650   6.051 -0.7484  0.0929 -0.1862
  341ccc     H3 7464  14.040   9.573   6.122  0.3946  0.5143  0.8467
  341ccc     H4 7465  14.178   9.674   6.070 -0.7574  1.0727 -1.2564
  341ccc     C3 7466  13.995   9.772   6.096 -0.2682 -0.0334 -0.1383
  341ccc     H5 7467  14.049   9.856   6.052  0.1095 -1.4868 -2.6452
  341ccc     H6 7468  13.998   9.785   6.205  0.0198  0.0537 -0.1564
  341ccc     N1 7469  14.126   9.504   5.858 -0.3532  0.0155 -0.7866
  341ccc     H7 7470  14.094   9.419   5.904  0.6097  0.2184  0.3112
  341ccc     H8 7471  14.111   9.491   5.758 -0.2818 -1.1371 -0.6654
  341ccc     O1 7472  13.870   9.770   6.035 -0.0339 -0.0231  0.0653
  342ccc     C1 7473  13.188  10.134   6.828 -0.3038 -0.6060  0.1706
  342ccc     H1 7474  13.244  10.182   6.908 -1.4578 -1.5813  1.6353
  342ccc     H2 7475  13.103  10.083   6.875 -1.4573 -0.2283 -1.3893
  342ccc     C2 7476  13.164  10.230   6.717  1.0766 -0.0892  0.9499
  342ccc     H3 7477  13.119  10.187   6.627  2.5592  1.5605 -0.6685
  342ccc     H4 7478  13.101  10.315   6.746 -0.5376 -0.6873 -0.5882
  342ccc     C3 7479  13.293  10.288   6.666 -0.1943  0.5974  0.6032
  342ccc     H5 7480  13.361  10.307   6.750 -2.9884  4.2557  2.2857
  342ccc     H6 7481  13.284  10.385   6.616 -0.9394 -0.0678 -0.6207
  342ccc     N1 7482  13.258  10.011   6.785 -0.3163  0.0931  0.3696
  342ccc     H7 7483  13.209   9.972   6.704  1.9612 -1.8845 -0.1651
  342ccc     H8 7484  13.344  10.039   6.738 -0.7170 -0.1370 -0.5392
  342ccc     O1 7485  13.347  10.192   6.565  0.2762 -0.6228  0.0587
  343ccc     C1 7486  10.342  10.739   6.758  0.3488 -0.5178  0.2515
  343ccc     H1 7487  10.421  10.686   6.703  1.2012  0.4724  0.4716
  343ccc     H2 7488  10.358  10.722   6.866  1.4918 -0.7350  0.0675
  343ccc     C2 7489  10.337  10.890   6.748 -0.1907 -0.0788 -0.3694
  343ccc     H3 7490  10.295  10.912   6.649 -1.9046 -1.1113  0.0813
  343ccc     H4 7491  10.265  10.926   6.822 -1.2690 -0.7293 -1.0809
  343ccc     C3 7492  10.478  10.947   6.765  0.6866 -0.1741  0.1069
  343ccc     H5 7493  10.480  11.043   6.711  0.3394  0.0933  0.5665
  343ccc     H6 7494  10.547  10.883   6.708 -0.1077 -0.6764 -0.3179
  343ccc     N1 7495  10.212  10.674   6.717  0.1301  0.3994 -0.8378
  343ccc     H7 7496  10.198  10.593   6.777  0.0381  0.5567 -0.6462
  343ccc     H8 7497  10.134  10.733   6.748  1.6536  1.2483  1.7025
  343ccc     O1 7498  10.503  10.976   6.912 -0.1808  0.6188  0.1065
  344ccc     C1 7499  10.958  11.882   6.618  0.5621 -0.2357 -0.2897
  344ccc     H1 7500  10.864  11.921   6.657  1.9788  0.5031  2.6580
  344ccc     H2 7501  11.030  11.877   6.701 -0.2012  0.7944  0.4588
  344ccc     C2 7502  10.931  11.734   6.563  0.1882 -0.2653 -0.2624
  344ccc     H3 7503  10.861  11.751   6.480 -2.2803  0.2286  1.7839
  344ccc     H4 7504  11.022  11.687   6.525  1.4391  1.0583  0.9538
  344ccc     C3 7505  10.867  11.641   6.671 -0.1076  0.0256  0.1785
  344ccc     H5 7506  10.845  11.541   6.633  1.2688 -0.4114  0.4941
  344ccc     H6 7507  10.771  11.680   6.708 -0.8092 -0.5305 -0.9651
  344ccc     N1 7508  11.026  11.968   6.519  0.3674 -0.3060  0.0509
  344ccc     H7 7509  10.950  12.004   6.463 -0.5741 -1.6891  0.3986
  344ccc     H8 7510  11.081  12.047   6.554 -0.8348  0.5889 -0.0085
  344ccc     O1 7511  10.948  11.628   6.787  0.0899 -0.0453 -0.3122
  345ccc     C1 7512  11.346  11.608   8.431 -0.3245 -0.2137 -0.1569
  345ccc     H1 7513  11.391  11.642   8.336  2.0027 -1.8990  0.2481
  345ccc     H2 7514  11.285  11.693   8.463  1.2218  0.5263  0.9589
  345ccc     C2 7515  11.256  11.489   8.412  0.0054  0.4249  0.0925
  345ccc     H3 7516  11.312  11.419   8.348 -0.5075 -2.0329  2.1538
  345ccc     H4 7517  11.235  11.428   8.501 -1.1357 -1.1098 -1.1594
  345ccc     C3 7518  11.120  11.532   8.351 -0.1825 -0.3604 -0.5445
  345ccc     H5 7519  11.078  11.599   8.426 -1.2877 -0.4570 -1.0498
  345ccc     H6 7520  11.045  11.451   8.344 -1.8221  1.1181 -0.9227
  345ccc     N1 7521  11.463  11.582   8.521  0.1575  1.1808 -0.3814
  345ccc     H7 7522  11.414  11.552   8.606  0.0894  2.0749 -0.1000
  345ccc     H8 7523  11.504  11.497   8.483  0.1025  1.5195 -1.2082
  345ccc     O1 7524  11.140  11.595   8.228  0.3012  0.2444 -0.1139
  346ccc     C1 7525  11.143  12.251   7.549  0.5194  0.2641  0.5559
  346ccc     H1 7526  11.144  12.333   7.623  1.3238  0.9801 -0.2286
  346ccc     H2 7527  11.242  12.206   7.538  1.3255  2.1262 -0.2372
  346ccc     C2 7528  11.041  12.145   7.587 -0.0841  0.2478  0.0556
  346ccc     H3 7529  11.079  12.103   7.681  1.5905  1.4430 -0.0429
  346ccc     H4 7530  10.935  12.173   7.588 -0.0126  0.8064 -2.1353
  346ccc     C3 7531  11.042  12.018   7.493 -0.1074 -0.2972  0.3094
  346ccc     H5 7532  11.018  12.035   7.388 -1.6286  0.2447  0.7174
  346ccc     H6 7533  10.955  11.958   7.521  0.8555 -0.7709  2.5328
  346ccc     N1 7534  11.100  12.314   7.420  0.2929  0.3311 -0.4210
  346ccc     H7 7535  11.181  12.373   7.404  3.6098 -2.8751  2.5940
  346ccc     H8 7536  11.111  12.245   7.346 -0.0019  1.2941 -1.3803
  346ccc     O1 7537  11.172  11.953   7.510  0.0101 -0.3579  0.3842
  347ccc     C1 7538  11.160   9.850   6.422 -0.3107 -0.0678  0.0466
  347ccc     H1 7539  11.113   9.936   6.471 -2.8150 -1.3425  0.0498
  347ccc     H2 7540  11.260   9.875   6.386  0.5628 -2.0290  0.9802
  347ccc     C2 7541  11.181   9.733   6.517 -0.5108 -1.1235 -0.1453
  347ccc     H3 7542  11.240   9.766   6.603  0.2735 -0.3476 -0.9504
  347ccc     H4 7543  11.080   9.702   6.547 -0.4171 -0.3299  1.0665
  347ccc     C3 7544  11.272   9.614   6.469 -0.5702 -0.7930 -0.3906
  347ccc     H5 7545  11.285   9.536   6.544 -0.0158 -2.8023 -2.4548
  347ccc     H6 7546  11.376   9.650   6.466 -0.6594  0.0481  2.7829
  347ccc     N1 7547  11.066   9.816   6.319 -0.1191  0.8012 -0.4861
  347ccc     H7 7548  11.112   9.737   6.275  1.2106  0.3654  1.5442
  347ccc     H8 7549  10.991   9.772   6.372  1.8616 -0.4059  1.4836
  347ccc     O1 7550  11.224   9.556   6.346  0.2713 -0.4082  0.2266
  348ccc     C1 7551  11.083  10.047   5.902 -0.3843  0.3000  0.5137
  348ccc     H1 7552  11.179  10.094   5.877 -0.2774 -0.4238 -0.4924
  348ccc     H2 7553  11.025  10.129   5.947  1.3033  1.1044  1.3234
  348ccc     C2 7554  11.014   9.988   5.780  0.2005 -0.0828  0.0140
  348ccc     H3 7555  10.915   9.955   5.812  0.1451  2.1554  2.4450
  348ccc     H4 7556  10.990  10.063   5.704  0.5072 -1.2039 -1.2386
  348ccc     C3 7557  11.097   9.884   5.704 -0.5045  0.0946  0.0085
  348ccc     H5 7558  11.173   9.946   5.654 -0.1493  1.7662  2.4422
  348ccc     H6 7559  11.030   9.837   5.631  0.3065 -1.7132  0.3795
  348ccc     N1 7560  11.117   9.950   6.009 -0.1989  0.2886  0.3324
  348ccc     H7 7561  11.045   9.880   5.994  0.3643  0.2235 -2.6475
  348ccc     H8 7562  11.181   9.886   5.962  0.0228 -0.4204  1.5614
  348ccc     O1 7563  11.156   9.788   5.787  0.0114 -0.0526  0.3925
  349ccc     C1 7564  12.575   8.859   6.751  0.3611  0.0715 -0.0129
  349ccc     H1 7565  12.604   8.816   6.655  0.8757 -1.0328  0.6112
  349ccc     H2 7566  12.667   8.855   6.812 -0.0836 -0.8966  0.6302
  349ccc     C2 7567  12.518   9.004   6.749 -0.1756 -0.1686 -0.2811
  349ccc     H3 7568  12.532   9.049   6.848  0.2682  0.9072 -0.8163
  349ccc     H4 7569  12.595   9.062   6.697  0.7217  0.7775  1.9921
  349ccc     C3 7570  12.378   9.024   6.694 -0.0601  0.2543  0.2170
  349ccc     H5 7571  12.308   9.031   6.778 -1.3762  0.1018 -0.8186
  349ccc     H6 7572  12.340   8.937   6.638  0.9353 -0.4837  0.6511
  349ccc     N1 7573  12.483   8.764   6.815  0.0475 -0.4134 -0.0523
  349ccc     H7 7574  12.397   8.760   6.760 -1.2531  1.6923  1.6440
  349ccc     H8 7575  12.529   8.674   6.806  1.8492  0.2675  1.7435
  349ccc     O1 7576  12.377   9.140   6.610  0.4912  0.1084 -0.2004
  350ccc     C1 7577  12.471   8.864   5.507 -0.0575 -0.0650  0.3543
  350ccc     H1 7578  12.383   8.799   5.518  0.2415 -0.5037  0.1708
  350ccc     H2 7579  12.447   8.925   5.419 -1.8171 -0.2947  0.6275
  350ccc     C2 7580  12.477   8.960   5.632  0.5710  0.4206 -0.5901
  350ccc     H3 7581  12.496   8.888   5.713 -1.5573  0.7543  0.2457
  350ccc     H4 7582  12.553   9.038   5.618  1.6392 -0.8432 -2.2863
  350ccc     C3 7583  12.346   9.029   5.649  0.3023 -0.5840 -0.2041
  350ccc     H5 7584  12.255   8.974   5.624 -0.0199 -0.4757  0.6936
  350ccc     H6 7585  12.330   9.114   5.582  0.7280 -1.6598 -1.7141
  350ccc     N1 7586  12.593   8.792   5.482 -0.4526 -0.3487 -0.5494
  350ccc     H7 7587  12.665   8.860   5.461  0.1988 -1.0812 -0.7451
  350ccc     H8 7588  12.614   8.751   5.573  0.9196  0.2547 -0.5660
  350ccc     O1 7589  12.348   9.074   5.779 -0.2193 -0.3975 -0.3791
  351ccc     C1 7590  13.817  13.016   7.094 -0.3089  0.8535 -0.2784
  351ccc     H1 7591  13.810  12.960   7.188 -0.4946  1.1211 -0.1315
  351ccc     H2 7592  13.871  12.944   7.031 -2.0420 -0.9191  0.1788
  351ccc     C2 7593  13.670  13.045   7.050 -0.6490 -0.1730  0.1917
  351ccc     H3 7594  13.660  13.089   6.951  2.5255  1.0667  0.3067
  351ccc     H4 7595  13.616  12.950   7.040 -1.2444  0.1824  0.0160
  351ccc     C3 7596  13.590  13.142   7.139  0.8304 -0.4449  0.1700
  351ccc     H5 7597  13.571  13.096   7.236 -0.4154  1.8605  1.0904
  351ccc     H6 7598  13.489  13.154   7.099  0.0548 -1.5926  1.6814
  351ccc     N1 7599  13.904  13.135   7.105  0.5887 -0.0514 -0.1388
  351ccc     H7 7600  13.883  13.187   7.019  2.1871  1.0903  0.1173
  351ccc     H8 7601  13.859  13.190   7.178  1.1672 -0.3455  0.4458
  351ccc     O1 7602  13.651  13.267   7.155 -0.0732  0.1319 -0.6083
  352ccc     C1 7603  14.414  12.793   7.790  0.6673 -0.0866 -0.4076
  352ccc     H1 7604  14.424  12.765   7.685  1.8331  0.9749 -0.6065
  352ccc     H2 7605  14.480  12.880   7.802 -0.5908  0.8714 -0.2199
  352ccc     C2 7606  14.271  12.844   7.814  0.5720  0.3527  0.1286
  352ccc     H3 7607  14.192  12.768   7.807  0.8039  0.2199 -1.3559
  352ccc     H4 7608  14.266  12.889   7.914 -0.9535  0.6515 -0.0588
  352ccc     C3 7609  14.229  12.964   7.727  0.3196 -0.6015 -0.3850
  352ccc     H5 7610  14.299  13.048   7.734 -2.0554  1.3776  1.0629
  352ccc     H6 7611  14.133  12.998   7.768 -0.5550 -2.0923 -1.1140
  352ccc     N1 7612  14.446  12.678   7.872 -0.2818  0.1041  0.0910
  352ccc     H7 7613  14.391  12.599   7.839  0.8333 -1.2741  1.3864
  352ccc     H8 7614  14.542  12.661   7.842 -0.0260 -1.0636  1.4608
  352ccc     O1 7615  14.215  12.923   7.589  0.8144 -0.4609  0.4129
  353ccc     C1 7616  13.135  13.385   9.058 -0.1452  0.1051  0.0552
  353ccc     H1 7617  13.062  13.351   9.133  0.0119  0.1847  0.2446
  353ccc     H2 7618  13.212  13.308   9.043 -0.0527  0.4391 -1.3553
  353ccc     C2 7619  13.049  13.423   8.939  0.1260 -0.6551  0.1316
  353ccc     H3 7620  13.003  13.326   8.915 -0.4884 -1.0097  2.4886
  353ccc     H4 7621  12.964  13.488   8.964  0.0844 -0.1737 -1.1573
  353ccc     C3 7622  13.130  13.482   8.819  0.5463  0.3843  0.9280
  353ccc     H5 7623  13.205  13.406   8.798 -0.3689  0.2596 -2.3980
  353ccc     H6 7624  13.188  13.572   8.843  0.7142  1.3666 -2.5934
  353ccc     N1 7625  13.198  13.503   9.121 -0.0571 -0.1721  0.0745
  353ccc     H7 7626  13.285  13.527   9.073 -0.3733  2.6006  0.7168
  353ccc     H8 7627  13.138  13.582   9.098 -0.4445 -0.2124  0.9199
  353ccc     O1 7628  13.040  13.506   8.717 -0.4912  0.3380  0.1090
  354ccc     C1 7629  12.360  13.422   8.554  0.2711  0.2780  0.2569
  354ccc     H1 7630  12.433  13.504   8.548 -1.2884  1.7004 -0.1360
  354ccc     H2 7631  12.283  13.444   8.479  0.6032 -1.4867 -0.6596
  354ccc     C2 7632  12.432  13.290   8.515  0.3336  0.3227 -0.0904
  354ccc     H3 7633  12.518  13.276   8.582 -0.8580  1.2029  1.7061
  354ccc     H4 7634  12.367  13.205   8.541  0.0829  0.7180  0.6106
  354ccc     C3 7635  12.471  13.284   8.364  0.2248  1.2644 -0.0464
  354ccc     H5 7636  12.389  13.328   8.307 -0.0163 -0.6119 -1.2383
  354ccc     H6 7637  12.490  13.179   8.340 -0.1084  1.1214  0.3011
  354ccc     N1 7638  12.303  13.411   8.685 -0.1724 -0.2367 -0.1410
  354ccc     H7 7639  12.377  13.435   8.751 -0.4343  0.1456  0.0158
  354ccc     H8 7640  12.248  13.497   8.677  0.4707 -0.0189 -4.3889
  354ccc     O1 7641  12.594  13.344   8.355 -0.6150  0.0519 -0.8471
  355ccc     C1 7642  12.296  13.075   6.687  0.2979 -0.0589  0.0371
  355ccc     H1 7643  12.204  13.081   6.627 -1.0780 -0.0104  2.0551
  355ccc     H2 7644  12.374  13.107   6.616  0.2439 -0.0497 -0.0176
  355ccc     C2 7645  12.301  13.173   6.803 -0.2455 -0.9265  0.3640
  355ccc     H3 7646  12.272  13.270   6.761  0.5191 -0.3326  1.1783
  355ccc     H4 7647  12.227  13.143   6.878 -0.8960 -2.0689 -0.6952
  355ccc     C3 7648  12.441  13.196   6.855 -0.3155 -0.2158  0.4527
  355ccc     H5 7649  12.515  13.172   6.778  0.7814 -0.1700  1.4677
  355ccc     H6 7650  12.467  13.125   6.934 -3.1442 -0.8636  0.9174
  355ccc     N1 7651  12.305  12.940   6.736  0.1931 -0.1623  0.4916
  355ccc     H7 7652  12.318  12.886   6.650 -2.0245  0.8480 -0.5564
  355ccc     H8 7653  12.401  12.934   6.771 -0.2846 -1.1084  1.7294
  355ccc     O1 7654  12.464  13.331   6.891 -0.1944  0.1308  0.6527
  356ccc     C1 7655  12.229  14.111   6.582 -0.0665  0.2124  0.5462
  356ccc     H1 7656  12.273  14.017   6.547 -0.0210  0.8477 -1.2311
  356ccc     H2 7657  12.121  14.104   6.601 -0.4467 -1.3525 -1.7380
  356ccc     C2 7658  12.287  14.149   6.716 -0.1543 -0.6955 -0.5857
  356ccc     H3 7659  12.253  14.249   6.748  1.8057  0.0807 -0.7749
  356ccc     H4 7660  12.238  14.088   6.793 -2.3262  0.3824 -1.0227
  356ccc     C3 7661  12.440  14.151   6.722 -0.3204 -0.5088 -0.0142
  356ccc     H5 7662  12.473  14.194   6.817  0.6502 -0.5069 -0.3376
  356ccc     H6 7663  12.469  14.212   6.635  2.9465 -0.4172  0.9955
  356ccc     N1 7664  12.256  14.215   6.487  0.6470 -0.5194  0.2495
  356ccc     H7 7665  12.355  14.216   6.464  0.4008  1.4996 -0.9771
  356ccc     H8 7666  12.214  14.179   6.401 -2.2753 -2.4598  2.3217
  356ccc     O1 7667  12.500  14.022   6.709  0.9002  0.8312 -0.4160
  357ccc     C1 7668  12.985  13.599   7.907  0.3218  0.0757 -0.0834
  357ccc     H1 7669  12.929  13.505   7.913  2.2351 -1.1065  0.1199
  357ccc     H2 7670  13.013  13.620   7.803  1.3199  1.6357  0.4589
  357ccc     C2 7671  12.913  13.722   7.966 -0.2295  0.4738  0.2363
  357ccc     H3 7672  12.891  13.707   8.073 -1.0292  1.5767  0.2452
  357ccc     H4 7673  12.977  13.811   7.970 -0.5442  0.7004  0.2376
  357ccc     C3 7674  12.779  13.753   7.896  0.4626 -0.2795  0.2723
  357ccc     H5 7675  12.739  13.848   7.933  0.2179 -0.1161 -0.4081
  357ccc     H6 7676  12.705  13.674   7.914 -0.2638  0.5973  1.2792
  357ccc     N1 7677  13.108  13.581   7.986  0.3917  0.5028  1.1676
  357ccc     H7 7678  13.074  13.543   8.074 -1.0615 -1.4367 -0.1479
  357ccc     H8 7679  13.154  13.495   7.955  2.0442  1.6161  0.3895
  357ccc     O1 7680  12.796  13.763   7.758 -0.1947 -0.2679  0.1477
  358ccc     C1 7681  12.402  12.890   7.216 -0.3799  0.7698  0.0974
  358ccc     H1 7682  12.426  12.880   7.109 -1.3475  1.9168 -0.2530
  358ccc     H2 7683  12.476  12.845   7.283 -3.6120 -2.0003  2.1264
  358ccc     C2 7684  12.390  13.036   7.245  0.3193  0.2678 -0.4234
  358ccc     H3 7685  12.347  13.097   7.165  1.2483  1.0776 -0.3206
  358ccc     H4 7686  12.317  13.044   7.326 -0.4916 -0.4282 -1.0667
  358ccc     C3 7687  12.519  13.096   7.296  0.0187  0.6159  0.3619
  358ccc     H5 7688  12.589  13.127   7.217  0.8171  0.2867  0.9245
  358ccc     H6 7689  12.565  13.024   7.364  2.2662  0.8897 -0.7561
  358ccc     N1 7690  12.270  12.823   7.251  0.5766  0.1311 -0.2404
  358ccc     H7 7691  12.208  12.859   7.179 -0.9651 -0.2000  0.8606
  358ccc     H8 7692  12.292  12.734   7.207 -1.1330  0.2378 -1.3728
  358ccc     O1 7693  12.489  13.212   7.373 -0.2642  0.2369 -0.2854
  359ccc     C1 7694  14.247  12.254   6.691 -0.2450 -0.7092  0.1089
  359ccc     H1 7695  14.219  12.356   6.717  2.2887  0.5639 -1.7374
  359ccc     H2 7696  14.298  12.201   6.772 -0.3693 -0.3904  0.3965
  359ccc     C2 7697  14.118  12.180   6.661 -0.0268  0.2301 -0.0445
  359ccc     H3 7698  14.129  12.072   6.647  0.4951 -0.0535  2.2865
  359ccc     H4 7699  14.050  12.206   6.743 -1.2969 -1.5370 -0.4585
  359ccc     C3 7700  14.051  12.240   6.537 -0.1432  0.3079  0.1079
  359ccc     H5 7701  14.096  12.234   6.437  0.2087  0.4747  0.2572
  359ccc     H6 7702  14.052  12.349   6.550  1.1669  0.2896  0.2752
  359ccc     N1 7703  14.340  12.273   6.580 -0.0756 -0.2377 -0.0568
  359ccc     H7 7704  14.420  12.330   6.607  0.8761  1.1132 -4.7530
  359ccc     H8 7705  14.358  12.174   6.566 -0.5454 -0.7033  2.3398
  359ccc     O1 7706  13.911  12.199   6.539 -0.4601  0.2311  0.0186
  360ccc     C1 7707  13.687  11.665   6.025  0.7662 -0.1630 -0.3137
  360ccc     H1 7708  13.762  11.620   5.957  0.0906 -0.6053 -0.7788
  360ccc     H2 7709  13.599  11.604   6.002  1.0325 -1.4705  1.8559
  360ccc     C2 7710  13.725  11.648   6.173  0.4245 -0.3878 -0.5220
  360ccc     H3 7711  13.760  11.546   6.191  0.3248 -0.3422 -0.0270
  360ccc     H4 7712  13.808  11.716   6.196 -1.1224  0.6654  2.6585
  360ccc     C3 7713  13.610  11.678   6.273 -0.3579  0.0801 -1.4624
  360ccc     H5 7714  13.527  11.615   6.239  0.0273 -0.9103 -0.5987
  360ccc     H6 7715  13.573  11.781   6.275  0.1637  0.2962  1.2169
  360ccc     N1 7716  13.668  11.811   6.004  0.6677  0.5584 -0.2734
  360ccc     H7 7717  13.762  11.830   5.970  1.2308 -0.2281  0.7955
  360ccc     H8 7718  13.619  11.820   5.914  0.8266 -2.8410 -0.8241
  360ccc     O1 7719  13.656  11.635   6.404  0.3172 -0.0901 -0.4660
  361ccc     C1 7720  13.586  12.145   5.269 -0.3112 -0.3853  0.2065
  361ccc     H1 7721  13.535  12.128   5.364  0.3592 -1.9032  0.3220
  361ccc     H2 7722  13.545  12.079   5.191 -1.1388  1.9229 -1.4198
  361ccc     C2 7723  13.598  12.300   5.241  0.3828  0.2065 -0.8036
  361ccc     H3 7724  13.642  12.359   5.322 -0.5975 -0.7511  0.4743
  361ccc     H4 7725  13.654  12.313   5.147  1.8433  3.2192  0.3583
  361ccc     C3 7726  13.458  12.353   5.207  0.4235  0.5621  0.3285
  361ccc     H5 7727  13.417  12.282   5.133  1.8535  0.5202 -0.4667
  361ccc     H6 7728  13.455  12.449   5.154 -2.5628 -0.0437 -0.8414
  361ccc     N1 7729  13.729  12.109   5.292 -1.0418  0.4440  0.7994
  361ccc     H7 7730  13.755  12.137   5.386  1.8580  2.7122 -0.5017
  361ccc     H8 7731  13.729  12.007   5.298  0.4503  0.4629  1.8296
  361ccc     O1 7732  13.371  12.356   5.317  0.1586  0.1577  0.2048
  362ccc     C1 7733  12.492  12.455   5.313 -0.1235 -0.1378 -0.7666
  362ccc     H1 7734  12.589  12.420   5.277 -1.2464 -1.9733 -2.2302
  362ccc     H2 7735  12.398  12.417   5.271 -0.7191 -0.5923  0.8980
  362ccc     C2 7736  12.470  12.452   5.467  0.1547  0.7088  0.2713
  362ccc     H3 7737  12.530  12.528   5.520  0.5678 -0.1814  1.1112
  362ccc     H4 7738  12.367  12.475   5.495 -0.6434  1.0231 -2.6825
  362ccc     C3 7739  12.503  12.311   5.516  0.0996 -0.4548  0.6296
  362ccc     H5 7740  12.420  12.250   5.477 -0.1623 -0.4767  1.2021
  362ccc     H6 7741  12.503  12.312   5.626  0.6574 -0.8251  0.6385
  362ccc     N1 7742  12.496  12.595   5.273 -0.0101  0.2859 -1.2881
  362ccc     H7 7743  12.578  12.643   5.307 -2.1451  2.9897  0.5012
  362ccc     H8 7744  12.491  12.593   5.171  0.5131  0.7803 -1.3238
  362ccc     O1 7745  12.638  12.281   5.471 -0.0933  0.1919 -0.6464
  363ccc     C1 7746  12.230  13.218   4.464 -0.1726 -0.5290 -0.8958
  363ccc     H1 7747  12.250  13.220   4.571 -2.2685  0.8164 -0.4812
  363ccc     H2 7748  12.267  13.116   4.446 -0.9255 -1.1242  0.8009
  363ccc     C2 7749  12.076  13.221   4.441 -0.6943 -0.8289  0.1615
  363ccc     H3 7750  12.047  13.194   4.338 -2.2998 -1.9441  0.8620
  363ccc     H4 7751  12.035  13.133   4.492 -0.3728 -1.4743 -0.6710
  363ccc     C3 7752  12.009  13.355   4.477  0.7268 -0.0209 -0.2365
  363ccc     H5 7753  11.899  13.354   4.472  0.6661  3.0204 -1.8077
  363ccc     H6 7754  12.044  13.432   4.407  1.4661 -0.0230  0.1190
  363ccc     N1 7755  12.309  13.307   4.377 -0.5421 -0.2849 -0.2805
  363ccc     H7 7756  12.403  13.271   4.392 -0.7236 -0.1838  1.3660
  363ccc     H8 7757  12.291  13.294   4.278 -2.7648  2.3194 -0.3429
  363ccc     O1 7758  12.043  13.393   4.611 -0.0158 -0.5472 -0.5594
  364ccc     C1 7759  11.825  14.066   5.505  0.1227 -0.5523 -0.5521
  364ccc     H1 7760  11.760  14.145   5.545  0.5496  0.8929 -2.5547
  364ccc     H2 7761  11.908  14.045   5.574 -1.4625 -2.3108  0.9187
  364ccc     C2 7762  11.755  13.934   5.495  0.1037  0.1988  0.1875
  364ccc     H3 7763  11.714  13.918   5.596  1.2124  1.3872  0.8551
  364ccc     H4 7764  11.670  13.948   5.427 -0.4838 -0.6697  0.7212
  364ccc     C3 7765  11.848  13.812   5.462 -0.0156 -0.0242  0.3936
  364ccc     H5 7766  11.798  13.715   5.460  0.3383 -0.2029  0.3401
  364ccc     H6 7767  11.919  13.804   5.545 -1.6141 -1.7437  1.6796
  364ccc     N1 7768  11.864  14.110   5.371  0.1362  0.3670 -0.4238
  364ccc     H7 7769  11.902  14.205   5.375 -0.1774  0.4615  1.4831
  364ccc     H8 7770  11.940  14.047   5.348  0.1587  0.4114 -0.4705
  364ccc     O1 7771  11.920  13.833   5.332 -0.1914 -0.1888  0.3070
  365ccc     C1 7772  13.571  13.073   5.753 -1.1999 -0.8330 -0.0113
  365ccc     H1 7773  13.568  13.172   5.801  0.5318 -0.1591 -1.2011
  365ccc     H2 7774  13.676  13.044   5.737 -0.9195 -0.7166  1.4444
  365ccc     C2 7775  13.508  12.970   5.851 -1.0742  0.1096 -0.2509
  365ccc     H3 7776  13.515  12.868   5.810 -0.2437  0.2358 -0.4516
  365ccc     H4 7777  13.557  12.972   5.949  0.5758  1.0103 -1.0524
  365ccc     C3 7778  13.359  12.996   5.871  0.1885 -0.7860 -0.2953
  365ccc     H5 7779  13.340  13.082   5.936  1.1322 -2.1166  1.8312
  365ccc     H6 7780  13.316  12.912   5.926 -0.4201 -0.2140  0.1076
  365ccc     N1 7781  13.518  13.071   5.617 -0.2909  0.3730  0.4904
  365ccc     H7 7782  13.527  12.970   5.600 -1.8096  0.2919 -0.0332
  365ccc     H8 7783  13.419  13.081   5.642 -0.9379 -0.9777 -1.3024
  365ccc     O1 7784  13.286  13.016   5.746 -0.2021 -0.8739 -0.5182
  366ccc     C1 7785  12.601  13.853   5.421 -0.3350  0.3137  0.1203
  366ccc     H1 7786  12.525  13.891   5.351  0.5118  1.8153 -0.0379
  366ccc     H2 7787  12.569  13.761   5.471 -1.3061 -0.8753 -2.5084
  366ccc     C2 7788  12.727  13.825   5.338  0.3728 -0.3209 -0.2400
  366ccc     H3 7789  12.685  13.757   5.263 -0.0941  0.4773 -0.7114
  366ccc     H4 7790  12.746  13.919   5.286  0.3595 -0.3979 -0.3840
  366ccc     C3 7791  12.857  13.783   5.406 -0.8094 -0.1979  0.4446
  366ccc     H5 7792  12.903  13.874   5.447 -2.3014  0.8736 -0.1237
  366ccc     H6 7793  12.932  13.755   5.331 -0.9715 -0.7934  0.4993
  366ccc     N1 7794  12.622  13.952   5.529 -0.6821  0.1964 -0.3396
  366ccc     H7 7795  12.540  13.937   5.588  0.5011 -2.2686  0.7973
  366ccc     H8 7796  12.686  13.901   5.589 -0.6663  1.4720  0.7616
  366ccc     O1 7797  12.843  13.677   5.497  0.4072  0.0876  0.0798
  367ccc     C1 7798  11.940  11.297   7.267 -0.3081  0.4983  0.1812
  367ccc     H1 7799  11.863  11.264   7.197  0.1301 -0.8920  0.3288
  367ccc     H2 7800  11.928  11.278   7.374 -1.2811 -0.8542 -0.1393
  367ccc     C2 7801  12.068  11.235   7.219  0.5446 -0.2924 -0.0812
  367ccc     H3 7802  12.101  11.283   7.127  2.0016  0.8719  0.9979
  367ccc     H4 7803  12.148  11.267   7.287  2.3052 -2.0108 -1.2402
  367ccc     C3 7804  12.067  11.078   7.211  0.2476 -0.6875  0.4081
  367ccc     H5 7805  11.989  11.047   7.140  1.6439  0.9144 -1.9543
  367ccc     H6 7806  12.045  11.041   7.312 -0.5006 -0.0296  0.4898
  367ccc     N1 7807  11.950  11.447   7.252 -0.5294  0.6937  0.0534
  367ccc     H7 7808  11.874  11.481   7.310 -1.0020  1.1492 -0.8053
  367ccc     H8 7809  12.033  11.483   7.300 -0.5315 -0.2471  0.7783
  367ccc     O1 7810  12.192  11.034   7.165 -0.2501  0.2440  0.2637
  368ccc     C1 7811  12.143  10.072   7.326 -0.1522 -0.0619  0.0466
  368ccc     H1 7812  12.135   9.963   7.321 -2.4695  0.0203  0.6067
  368ccc     H2 7813  12.199  10.113   7.242 -4.4160  1.7398 -2.2207
  368ccc     C2 7814  12.003  10.135   7.323  0.1444 -0.3290  1.0128
  368ccc     H3 7815  11.940  10.073   7.258 -0.5182 -0.4600  1.7581
  368ccc     H4 7816  11.955  10.116   7.420  0.5529 -2.0829  0.9084
  368ccc     C3 7817  12.016  10.287   7.298 -0.5632  0.6190  0.3234
  368ccc     H5 7818  11.921  10.339   7.286 -0.6873  0.3818  0.2624
  368ccc     H6 7819  12.080  10.296   7.209 -0.9686  0.1837 -0.0152
  368ccc     N1 7820  12.206  10.097   7.455 -0.2889  0.7072 -0.0001
  368ccc     H7 7821  12.304  10.075   7.435  0.1509  1.1470  1.5386
  368ccc     H8 7822  12.201  10.199   7.462 -1.1677  0.8289 -1.8188
  368ccc     O1 7823  12.082  10.343   7.419  0.5849 -1.0592  0.0442
  369ccc     C1 7824  12.474  11.457   7.750 -0.4692  0.5473  0.0073
  369ccc     H1 7825  12.521  11.470   7.652  1.1135 -1.1623  0.4542
  369ccc     H2 7826  12.401  11.535   7.771  1.2250  1.9197  1.1259
  369ccc     C2 7827  12.397  11.322   7.740 -0.2259 -0.7871  0.3691
  369ccc     H3 7828  12.470  11.240   7.748 -0.7218 -1.1332  1.5787
  369ccc     H4 7829  12.326  11.316   7.824 -0.3378 -1.3118  0.2417
  369ccc     C3 7830  12.310  11.318   7.611 -0.0017  0.0220 -0.2300
  369ccc     H5 7831  12.259  11.414   7.599  1.0808  0.7135  0.5350
  369ccc     H6 7832  12.238  11.239   7.636  1.1324 -0.8813  0.2921
  369ccc     N1 7833  12.573  11.460   7.862  0.1946 -0.7868 -0.0456
  369ccc     H7 7834  12.515  11.443   7.944 -0.3239 -0.4016 -0.3220
  369ccc     H8 7835  12.641  11.385   7.855  0.9951 -0.1611  0.8661
  369ccc     O1 7836  12.398  11.293   7.494 -0.1408 -0.3956 -0.4310
  370ccc     C1 7837  12.485  10.964   7.900  0.3271 -0.3486  0.4388
  370ccc     H1 7838  12.422  11.047   7.933  0.0832 -0.5122  0.3917
  370ccc     H2 7839  12.525  10.974   7.798  0.0172 -0.8314  0.2613
  370ccc     C2 7840  12.602  10.954   7.991 -0.2353  0.4036  0.5970
  370ccc     H3 7841  12.577  10.911   8.089  2.0754 -0.1752  0.9801
  370ccc     H4 7842  12.671  10.883   7.945 -2.5034 -0.9932 -0.8438
  370ccc     C3 7843  12.664  11.095   8.005 -0.3581 -0.5960 -0.5319
  370ccc     H5 7844  12.756  11.090   8.065 -0.7974  2.7408  0.5780
  370ccc     H6 7845  12.593  11.162   8.053  1.0663  0.6699 -0.1096
  370ccc     N1 7846  12.400  10.839   7.902 -0.2145 -0.2610  0.3742
  370ccc     H7 7847  12.469  10.764   7.904 -1.0259 -1.0472 -0.1979
  370ccc     H8 7848  12.372  10.844   8.000  0.0575  0.1032  0.4340
  370ccc     O1 7849  12.698  11.149   7.878  0.5649  0.2854 -0.1823
  371ccc     C1 7850  14.700  12.304   7.553  0.0066  0.0390  0.2803
  371ccc     H1 7851  14.661  12.280   7.653 -0.0310 -2.5683 -0.3079
  371ccc     H2 7852  14.761  12.219   7.519  2.9996  2.1537 -0.0582
  371ccc     C2 7853  14.590  12.322   7.448  0.4474  0.1211  0.5110
  371ccc     H3 7854  14.519  12.403   7.470 -0.8227 -0.8542  0.1429
  371ccc     H4 7855  14.642  12.352   7.357  0.8606 -2.6899 -0.2670
  371ccc     C3 7856  14.510  12.195   7.423  0.4882  0.4985 -0.5985
  371ccc     H5 7857  14.416  12.210   7.369  0.5206  1.3853 -0.4340
  371ccc     H6 7858  14.483  12.154   7.521 -1.4731 -0.6273 -1.5537
  371ccc     N1 7859  14.779  12.426   7.575  0.5816 -0.5628  0.4931
  371ccc     H7 7860  14.851  12.391   7.639  0.7328 -0.8614  0.1612
  371ccc     H8 7861  14.826  12.446   7.487 -1.8221  2.4512 -0.2611
  371ccc     O1 7862  14.598  12.108   7.358 -0.2579  0.2574  0.4051
  372ccc     C1 7863  14.395  12.074   6.227 -0.6408 -0.1571 -0.1441
  372ccc     H1 7864  14.315  12.103   6.157  1.6041  6.0675 -0.7176
  372ccc     H2 7865  14.439  12.169   6.258 -1.9293  0.0448  1.1454
  372ccc     C2 7866  14.342  12.002   6.349 -0.1145  0.5339  0.8318
  372ccc     H3 7867  14.262  12.069   6.383 -0.5051  0.1250  0.7378
  372ccc     H4 7868  14.288  11.913   6.314 -1.4869  1.2437  1.0766
  372ccc     C3 7869  14.452  11.970   6.456  0.0837  0.1730 -0.2441
  372ccc     H5 7870  14.524  12.052   6.457 -1.4207  1.5782  1.6829
  372ccc     H6 7871  14.509  11.880   6.431  1.2953  0.8279  0.1067
  372ccc     N1 7872  14.486  11.993   6.147 -0.6599 -0.4076  0.0094
  372ccc     H7 7873  14.560  11.961   6.209 -1.2196 -1.7589  0.0062
  372ccc     H8 7874  14.441  11.904   6.127  0.6326 -1.1775  0.4260
  372ccc     O1 7875  14.399  11.949   6.588 -0.0518 -0.5885  0.3262
  373ccc     C1 7876  12.942  12.144   8.418  0.4850  0.6182  0.1784
  373ccc     H1 7877  12.891  12.200   8.497 -1.2782  1.0566 -1.2093
  373ccc     H2 7878  13.008  12.203   8.352 -0.2575 -0.5351 -1.6932
  373ccc     C2 7879  13.027  12.029   8.470  0.2198  0.0850 -0.1899
  373ccc     H3 7880  12.965  11.956   8.523  0.8853 -2.3796 -2.5484
  373ccc     H4 7881  13.051  11.971   8.380 -0.9520  1.0752 -1.1891
  373ccc     C3 7882  13.151  12.074   8.544 -0.3681 -0.7709  0.2046
  373ccc     H5 7883  13.213  11.993   8.584 -2.1437 -1.0287  2.6654
  373ccc     H6 7884  13.117  12.115   8.640 -1.5777 -1.1094 -0.0552
  373ccc     N1 7885  12.834  12.087   8.338 -0.1096 -0.4093  0.1973
  373ccc     H7 7886  12.775  12.162   8.301  0.8744  0.6093  0.6604
  373ccc     H8 7887  12.877  12.051   8.252 -3.0695  0.4173 -1.7891
  373ccc     O1 7888  13.227  12.174   8.470  0.1595 -0.1243  0.2565
  374ccc     C1 7889  13.942  12.677   8.755  0.5798  0.0178  0.2766
  374ccc     H1 7890  14.052  12.671   8.758  0.7893  2.1979 -1.0010
  374ccc     H2 7891  13.915  12.752   8.830  0.1266  0.0204  0.1108
  374ccc     C2 7892  13.886  12.715   8.617 -0.0372  0.2681  0.6328
  374ccc     H3 7893  13.925  12.810   8.579  3.8381 -1.5225 -0.4463
  374ccc     H4 7894  13.914  12.637   8.546  1.0662 -0.2088  1.5501
  374ccc     C3 7895  13.729  12.727   8.617 -0.1537  0.8293 -0.1758
  374ccc     H5 7896  13.693  12.776   8.708 -3.0017  0.1784 -0.8599
  374ccc     H6 7897  13.687  12.625   8.611 -0.0121  0.7657 -0.0891
  374ccc     N1 7898  13.883  12.551   8.793  0.1488 -0.1092 -0.4319
  374ccc     H7 7899  13.930  12.483   8.733  1.7873  0.2868  0.3525
  374ccc     H8 7900  13.926  12.522   8.881 -2.1074 -0.8204  0.5005
  374ccc     O1 7901  13.687  12.806   8.504  0.1790 -0.4898  0.1015
  375ccc     C1 7902  14.768  11.049   6.140 -0.3216  0.3180 -0.3052
  375ccc     H1 7903  14.795  11.148   6.101  0.1040  0.5225  0.4780
  375ccc     H2 7904  14.770  11.062   6.249  0.8426 -1.5722 -0.0674
  375ccc     C2 7905  14.635  10.991   6.093 -0.2294  0.7795  0.3513
  375ccc     H3 7906  14.548  11.033   6.145 -2.0809 -2.3919  0.1083
  375ccc     H4 7907  14.627  11.012   5.986  2.6666  1.6281  0.2111
  375ccc     C3 7908  14.617  10.840   6.115 -0.2216  0.0807  0.1078
  375ccc     H5 7909  14.607  10.826   6.223  0.1841  1.5774  0.3514
  375ccc     H6 7910  14.696  10.776   6.072 -2.2909 -1.2757 -1.9031
  375ccc     N1 7911  14.885  10.960   6.101 -0.3059 -0.2742 -0.3185
  375ccc     H7 7912  14.971  11.011   6.122 -0.0492  0.3728 -2.6154
  375ccc     H8 7913  14.884  10.888   6.172  0.7569  0.6911  0.7137
  375ccc     O1 7914  14.492  10.803   6.050  0.1185  0.3732 -0.2341
  376ccc     C1 7915  13.523  10.945   5.508  0.1281 -0.3136  0.3242
  376ccc     H1 7916  13.485  11.010   5.589 -1.4739  0.9427 -1.3543
  376ccc     H2 7917  13.598  10.995   5.446 -1.1303 -0.5456 -1.4513
  376ccc     C2 7918  13.589  10.819   5.565  0.1122 -0.0544  0.0796
  376ccc     H3 7919  13.515  10.760   5.620  1.2853  0.0827  1.8989
  376ccc     H4 7920  13.631  10.763   5.481  0.1691  1.5215 -0.9745
  376ccc     C3 7921  13.702  10.853   5.661  0.1273 -0.3911 -0.6740
  376ccc     H5 7922  13.660  10.935   5.720 -0.0092 -0.8596 -0.1065
  376ccc     H6 7923  13.794  10.878   5.607 -0.3600 -2.5121 -2.6395
  376ccc     N1 7924  13.431  10.900   5.408 -0.5343  0.1183 -0.0321
  376ccc     H7 7925  13.347  10.881   5.464 -0.5510  2.7604  0.9999
  376ccc     H8 7926  13.409  10.973   5.341 -0.6010  0.1116 -0.0181
  376ccc     O1 7927  13.729  10.743   5.748 -0.4421 -1.1056  0.1659
  377ccc     C1 7928  14.139   9.492   6.795 -0.1365  0.1266 -0.6905
  377ccc     H1 7929  14.108   9.596   6.776  0.1868  0.2645 -0.4725
  377ccc     H2 7930  14.154   9.478   6.903 -1.9312 -0.2084 -0.4517
  377ccc     C2 7931  14.035   9.387   6.748 -0.6405  0.1818 -0.5642
  377ccc     H3 7932  14.080   9.288   6.761  0.3530  0.5695 -0.9210
  377ccc     H4 7933  13.950   9.398   6.815 -0.4568 -5.4947  1.1168
  377ccc     C3 7934  13.992   9.409   6.592  0.4731  0.1254 -0.6393
  377ccc     H5 7935  13.924   9.328   6.564 -2.2978  2.3919 -0.9615
  377ccc     H6 7936  14.083   9.407   6.530  1.0536 -0.6954  0.2089
  377ccc     N1 7937  14.277   9.492   6.737  0.4385  0.2357  0.1567
  377ccc     H7 7938  14.315   9.403   6.707  0.3261  0.4744 -0.7067
  377ccc     H8 7939  14.269   9.556   6.658  3.2305  1.7216  0.8990
  377ccc     O1 7940  13.926   9.532   6.572  0.5389 -0.0527  0.2423
  378ccc     C1 7941  14.393  10.100   6.087  0.7869  0.5243 -0.0488
  378ccc     H1 7942  14.346  10.062   5.995 -0.8705  0.4716  0.7742
  378ccc     H2 7943  14.500  10.119   6.075  0.9615  0.1198  0.7934
  378ccc     C2 7944  14.334  10.236   6.131  0.5083 -0.8711 -0.1366
  378ccc     H3 7945  14.370  10.265   6.231  2.9542 -1.6688 -0.7172
  378ccc     H4 7946  14.380  10.311   6.066  2.2880 -1.8801 -0.0839
  378ccc     C3 7947  14.179  10.247   6.121  0.7252 -0.1184 -0.2295
  378ccc     H5 7948  14.154  10.212   6.021 -0.2748  0.3490 -0.1498
  378ccc     H6 7949  14.147  10.352   6.129 -2.4338 -0.9524 -0.6246
  378ccc     N1 7950  14.372   9.992   6.190  0.0964 -0.1602 -0.1916
  378ccc     H7 7951  14.436  10.018   6.265  1.3147 -1.9999 -0.5282
  378ccc     H8 7952  14.276  10.016   6.213  0.8135  2.0039  0.8149
  378ccc     O1 7953  14.117  10.148   6.208  0.3228  0.7187 -0.2146
  379ccc     C1 7954  14.578  10.986   5.192 -0.3660  0.0616 -0.8521
  379ccc     H1 7955  14.615  11.084   5.224  0.9238 -0.1274 -1.6753
  379ccc     H2 7956  14.562  10.993   5.084 -0.7438 -1.0441 -0.8745
  379ccc     C2 7957  14.673  10.879   5.241 -0.2670  0.4340  0.0317
  379ccc     H3 7958  14.621  10.783   5.233 -0.7389  0.7781 -1.2803
  379ccc     H4 7959  14.760  10.873   5.174  0.6382 -1.3772  1.2668
  379ccc     C3 7960  14.715  10.907   5.388 -1.2399 -0.8695 -0.6968
  379ccc     H5 7961  14.753  11.010   5.385 -0.3471 -1.2115 -1.4017
  379ccc     H6 7962  14.790  10.836   5.426 -2.1157 -0.5374  1.8567
  379ccc     N1 7963  14.443  10.981   5.248  0.2612  1.1672  0.0729
  379ccc     H7 7964  14.463  10.957   5.345  0.6924  1.9003  0.1718
  379ccc     H8 7965  14.407  11.075   5.266  2.0329  1.7193  0.9499
  379ccc     O1 7966  14.605  10.900   5.483  0.2820 -0.2202  0.1121
  380ccc     C1 7967  13.591  11.387   5.452 -0.0295 -0.3124 -0.4562
  380ccc     H1 7968  13.560  11.411   5.555  1.4575 -0.7735  0.1342
  380ccc     H2 7969  13.649  11.465   5.402  0.9796 -2.1549 -2.2877
  380ccc     C2 7970  13.675  11.264   5.465  0.0879 -0.2500 -0.8317
  380ccc     H3 7971  13.621  11.186   5.519 -0.9884  1.7586  1.1135
  380ccc     H4 7972  13.686  11.214   5.367 -0.5506  0.5779 -1.3428
  380ccc     C3 7973  13.813  11.288   5.526  0.1524  0.1713 -0.1750
  380ccc     H5 7974  13.803  11.319   5.631  0.6746  0.4294 -0.1993
  380ccc     H6 7975  13.854  11.380   5.483 -1.0631  1.0475  0.4658
  380ccc     N1 7976  13.464  11.355   5.383 -0.2281  0.4392  0.5798
  380ccc     H7 7977  13.415  11.444   5.374  3.6431  2.6489 -1.1168
  380ccc     H8 7978  13.493  11.329   5.289  1.7289  0.9582  0.9849
  380ccc     O1 7979  13.894  11.175   5.509 -0.0386 -0.2870 -0.0104
  381ccc     C1 7980  13.411  11.844   7.673 -0.2460 -0.4296 -0.6728
  381ccc     H1 7981  13.447  11.808   7.770 -0.1870 -1.4863 -1.0703
  381ccc     H2 7982  13.466  11.935   7.645  0.3639 -0.3805  0.6150
  381ccc     C2 7983  13.422  11.740   7.563 -0.3757 -0.2530 -0.1787
  381ccc     H3 7984  13.366  11.653   7.598 -0.6361  1.0863  3.0035
  381ccc     H4 7985  13.373  11.776   7.472  2.5513  2.1451 -1.0028
  381ccc     C3 7986  13.565  11.699   7.527  0.2962 -0.1166 -0.2261
  381ccc     H5 7987  13.562  11.602   7.475  0.3834  0.3504 -1.1123
  381ccc     H6 7988  13.626  11.686   7.618  0.9053  2.3530 -0.2210
  381ccc     N1 7989  13.271  11.885   7.698 -0.9048 -0.2597 -0.1491
  381ccc     H7 7990  13.222  11.797   7.713 -0.8734  0.0159  1.8727
  381ccc     H8 7991  13.270  11.926   7.791  0.1293 -2.1958  0.7561
  381ccc     O1 7992  13.637  11.797   7.452  0.3408  0.2014 -0.1887
  382ccc     C1 7993  14.410  12.470   7.149  0.1959 -0.0943  0.5273
  382ccc     H1 7994  14.320  12.532   7.151  1.2611  1.5838 -0.3097
  382ccc     H2 7995  14.417  12.419   7.245  0.7630  0.9422  1.0507
  382ccc     C2 7996  14.388  12.360   7.038  0.3953 -0.1370  0.2808
  382ccc     H3 7997  14.337  12.398   6.948 -0.7567 -1.0431  0.5314
  382ccc     H4 7998  14.490  12.326   7.017  0.6872 -0.2837  1.8288
  382ccc     C3 7999  14.305  12.245   7.088  0.2547  0.1294 -0.2417
  382ccc     H5 8000  14.310  12.237   7.197 -0.3362 -0.4021 -0.2489
  382ccc     H6 8001  14.331  12.150   7.040 -0.5748 -1.4126  2.1495
  382ccc     N1 8002  14.534  12.549   7.123  0.3381  0.4214  0.2726
  382ccc     H7 8003  14.616  12.489   7.116  0.8635  1.3170 -3.1816
  382ccc     H8 8004  14.526  12.586   7.028  2.1335  0.4228  0.0755
  382ccc     O1 8005  14.175  12.282   7.058 -0.2729 -0.4906 -0.0216
  383SOL     OW 8006   6.331   2.528   0.855  0.3601  0.3750 -0.0504
  383SOL    HW1 8007   6.335   2.603   0.915 -0.1142 -0.0408  0.5112
  383SOL    HW2 8008   6.421   2.520   0.822  0.8683  0.0329  1.3341
  384SOL     OW 8009   9.698   8.100   8.109  0.0056  0.1066 -0.6836
  384SOL    HW1 8010   9.723   8.163   8.042 -1.5146  2.3687  0.7157
  384SOL    HW2 8011   9.605   8.086   8.095 -0.7273  1.8468  1.7542
  385SOL     OW 8012   8.437   5.488   6.045 -0.0441  0.5899 -0.6205
  385SOL    HW1 8013   8.506   5.455   6.102 -0.8914  0.4020  0.3226
  385SOL    HW2 8014   8.356   5.460   6.086 -0.7038  1.0398 -1.5618
  386SOL     OW 8015  10.861   3.102   2.000  0.1801  0.6923  0.0790
  386SOL    HW1 8016  10.911   3.156   1.939  0.0575  0.2181 -0.4559
  386SOL    HW2 8017  10.892   3.013   1.982  0.4766  0.5915  1.0318
  387SOL     OW 8018  10.503   6.286   0.653  0.3975  0.3646 -0.0153
  387SOL    HW1 8019  10.490   6.338   0.574 -0.2768  1.2313  0.6437
  387SOL    HW2 8020  10.418   6.287   0.697  0.6079 -0.5779  0.4481
  388SOL     OW 8021   2.848   5.867   9.277 -0.4853 -0.0323  0.6368
  388SOL    HW1 8022   2.913   5.934   9.295  0.1697 -0.1515 -1.0779
  388SOL    HW2 8023   2.880   5.789   9.322  0.0859  0.1487  0.5538
  389SOL     OW 8024   8.680   4.303   1.187 -0.1502 -0.3144  0.2034
  389SOL    HW1 8025   8.681   4.392   1.151  0.0111  0.0608  1.1162
  389SOL    HW2 8026   8.638   4.312   1.272 -0.4801 -1.1832  0.1384
  390SOL     OW 8027   1.950   0.935  12.304 -0.0361 -0.5250  0.3063
  390SOL    HW1 8028   1.896   0.984  12.242  0.5871 -0.5128 -0.2395
  390SOL    HW2 8029   1.915   0.846  12.300  1.0585 -0.9322 -1.3694
  391SOL     OW 8030  11.850   1.593   9.614 -0.5696  0.5247  0.3299
  391SOL    HW1 8031  11.904   1.568   9.539 -2.1307 -0.0210 -0.6653
  391SOL    HW2 8032  11.912   1.600   9.687  0.8425  0.0319 -0.7686
  392SOL     OW 8033  11.491   6.860   3.170  0.5148  0.6101 -0.2304
  392SOL    HW1 8034  11.426   6.803   3.211  0.2406  1.2212  0.2029
  392SOL    HW2 8035  11.454   6.948   3.176  0.3501  0.6963 -2.0573
  393SOL     OW 8036  11.631   6.453  11.190  0.3094  0.3496  0.4754
  393SOL    HW1 8037  11.700   6.501  11.235  0.6685 -0.9046  1.3091
  393SOL    HW2 8038  11.557   6.455  11.251 -0.5541  2.0054 -0.5663
  394SOL     OW 8039   9.815   5.899   4.684 -0.1311 -0.9635 -0.5958
  394SOL    HW1 8040   9.909   5.915   4.677 -0.0446 -2.0361 -3.2061
  394SOL    HW2 8041   9.806   5.804   4.677 -1.4183 -0.8160 -1.3033
  395SOL     OW 8042   5.234   9.361   6.615  0.0159 -0.2860  0.0135
  395SOL    HW1 8043   5.317   9.323   6.587  0.8766  0.7447  1.0910
  395SOL    HW2 8044   5.192   9.293   6.667 -0.1083 -1.0204 -1.0157
  396SOL     OW 8045   0.822  11.518  10.763  0.2969 -0.7854  0.7024
  396SOL    HW1 8046   0.776  11.599  10.787  0.1984 -0.6196 -0.0009
  396SOL    HW2 8047   0.867  11.491  10.843  1.6738  0.8620  0.5376
  397SOL     OW 8048   9.246  10.977   3.258 -0.0265 -0.2868 -0.1931
  397SOL    HW1 8049   9.161  10.995   3.217 -0.3105  0.2889  0.6306
  397SOL    HW2 8050   9.273  11.061   3.296  0.8979 -0.4728 -0.3998
  398SOL     OW 8051   7.572   3.729   3.827 -0.4331 -0.3543  0.4072
  398SOL    HW1 8052   7.634   3.697   3.893  0.2763  0.5210  0.1829
  398SOL    HW2 8053   7.541   3.813   3.861 -0.1804  0.0317 -0.2805
  399SOL     OW 8054   2.240   6.016  10.417 -0.3676 -0.1630  0.3147
  399SOL    HW1 8055   2.223   5.922  10.410  0.0645 -0.3780  1.7150
  399SOL    HW2 8056   2.245   6.032  10.512  1.1546  0.9806  0.0729
  400SOL     OW 8057   0.605   7.018  10.002  0.7981 -0.1802  0.5516
  400SOL    HW1 8058   0.613   7.101  10.048 -1.1588 -0.4706  1.5622
  400SOL    HW2 8059   0.634   6.952  10.066 -0.2205 -0.4486  0.7602
  401SOL     OW 8060   9.541   8.564   3.148  0.1210  0.3669  0.7851
  401SOL    HW1 8061   9.557   8.616   3.226  0.6401 -0.1296  1.0153
  401SOL    HW2 8062   9.628   8.549   3.111  0.1118 -1.3399  1.3780
  402SOL     OW 8063   2.440   8.871   3.534  0.4397 -0.5536 -0.2640
  402SOL    HW1 8064   2.520   8.869   3.481  0.4628 -0.9883 -0.2155
  402SOL    HW2 8065   2.470   8.891   3.623  0.4518 -0.3411 -0.3135
  403SOL     OW 8066   4.833   8.622   0.431  0.2743  0.0959 -0.7194
  403SOL    HW1 8067   4.741   8.597   0.442 -0.0076 -0.0616 -2.9919
  403SOL    HW2 8068   4.880   8.568   0.494 -1.1374 -0.1062  0.2171
  404SOL     OW 8069   2.317   6.740   6.054  0.1013 -0.4941 -0.6536
  404SOL    HW1 8070   2.316   6.722   5.960  0.1164  1.6342 -1.1133
  404SOL    HW2 8071   2.225   6.756   6.076  0.0321 -1.4870 -0.1819
  405SOL     OW 8072   3.400   4.471   4.878 -0.2497  0.1459 -0.1513
  405SOL    HW1 8073   3.337   4.399   4.878 -0.5239  0.3840  0.0139
  405SOL    HW2 8074   3.408   4.496   4.970 -2.1578  2.0641 -0.4266
  406SOL     OW 8075   3.329   3.111   2.253 -0.0161  0.1474 -0.2013
  406SOL    HW1 8076   3.384   3.033   2.243 -0.2893 -0.0145 -0.4502
  406SOL    HW2 8077   3.260   3.084   2.313 -0.7099 -0.1247 -1.1121
  407SOL     OW 8078  11.786   1.933   5.929 -0.0073 -0.4576 -0.2949
  407SOL    HW1 8079  11.759   1.982   5.851  1.7545  1.2698  0.1112
  407SOL    HW2 8080  11.881   1.935   5.927  0.0876 -0.2725  1.9525
  408SOL     OW 8081   9.195   2.406   6.799  0.4437 -0.1136  0.4540
  408SOL    HW1 8082   9.207   2.312   6.812  0.3334 -0.0458  1.0374
  408SOL    HW2 8083   9.101   2.419   6.795  0.4524 -0.3037 -1.7255
  409SOL     OW 8084   8.077   2.462   0.065  0.2113 -0.0024 -0.1700
  409SOL    HW1 8085   7.983   2.447   0.077  0.4596 -0.5930  1.2061
  409SOL    HW2 8086   8.116   2.374   0.064  0.9104  0.2821  0.7856
  410SOL     OW 8087  12.204   3.045   9.986 -0.3126 -0.6054 -0.1392
  410SOL    HW1 8088  12.150   2.982  10.034  0.1554  0.6056  2.1028
  410SOL    HW2 8089  12.151   3.124   9.983 -0.9574 -1.0591 -3.0611
  411SOL     OW 8090   2.454   0.461  10.954 -0.1549  0.0873  0.3202
  411SOL    HW1 8091   2.497   0.534  10.997  0.4183 -0.5402  0.8283
  411SOL    HW2 8092   2.465   0.387  11.014  0.8166 -0.8545 -0.9549
  412SOL     OW 8093  10.298   4.836   1.890 -0.0887  0.3150  0.2866
  412SOL    HW1 8094  10.382   4.835   1.936 -0.0064 -0.3817  0.1288
  412SOL    HW2 8095  10.246   4.903   1.936  0.5708  0.7918  0.3458
  413SOL     OW 8096   5.310   8.531   1.947  0.0175  0.9373 -0.0978
  413SOL    HW1 8097   5.383   8.494   1.997  0.9971 -0.2745 -2.2812
  413SOL    HW2 8098   5.297   8.469   1.875 -1.2672  2.6167 -1.3942
  414SOL     OW 8099  11.888   3.450   6.349  0.3642  0.6688 -0.3331
  414SOL    HW1 8100  11.859   3.363   6.377  0.0488  0.5737 -0.9289
  414SOL    HW2 8101  11.808   3.497   6.330  0.5563  0.1694 -2.6872
  415SOL     OW 8102   1.196   7.571   3.930 -0.0879 -0.0219 -0.2694
  415SOL    HW1 8103   1.255   7.582   3.856 -0.6827 -0.2262 -0.7767
  415SOL    HW2 8104   1.254   7.559   4.005  0.5535  1.7120 -0.4359
  416SOL     OW 8105   8.373   5.292   9.356 -0.0396 -0.7477 -0.0782
  416SOL    HW1 8106   8.281   5.273   9.374 -0.0978  0.6638  1.3081
  416SOL    HW2 8107   8.420   5.216   9.390 -0.5418 -0.3819  1.5184
  417SOL     OW 8108  10.376   8.009   9.700  0.2569  0.3673 -0.1817
  417SOL    HW1 8109  10.291   8.000   9.744  0.2768  0.9482 -0.0225
  417SOL    HW2 8110  10.356   8.050   9.616  0.4358  0.9747  0.0677
  418SOL     OW 8111   6.697   5.280   4.031 -0.6550  0.1544 -0.6101
  418SOL    HW1 8112   6.708   5.198   4.079 -0.8773 -0.2357 -1.2244
  418SOL    HW2 8113   6.783   5.322   4.035 -0.4810 -0.2104 -0.4839
  419SOL     OW 8114   2.193   3.356   5.176 -0.3224  0.2002 -0.5722
  419SOL    HW1 8115   2.142   3.299   5.118 -1.5332  0.5468  0.1109
  419SOL    HW2 8116   2.225   3.426   5.119 -0.2481 -0.2557 -1.0948
  420SOL     OW 8117   2.594   3.517   3.253 -0.4909  0.1849  1.0414
  420SOL    HW1 8118   2.532   3.510   3.326  0.0554 -0.4469  1.4605
  420SOL    HW2 8119   2.671   3.559   3.291 -0.4542  0.4651  0.6599
  421SOL     OW 8120   8.873   6.167   8.372 -0.4441 -0.0262 -0.2000
  421SOL    HW1 8121   8.833   6.242   8.329  0.3939  1.8634  2.1310
  421SOL    HW2 8122   8.966   6.173   8.350 -0.6118 -1.6192 -1.6206
  422SOL     OW 8123   9.256   5.316   5.218 -0.1984 -0.1700  0.0594
  422SOL    HW1 8124   9.309   5.293   5.142 -0.2646 -2.1656  0.5547
  422SOL    HW2 8125   9.166   5.298   5.191 -0.2415 -0.6691  0.5008
  423SOL     OW 8126   2.461  12.317   4.591  0.0839  0.3862  0.3955
  423SOL    HW1 8127   2.422  12.320   4.503  0.2953 -0.5568  0.2611
  423SOL    HW2 8128   2.474  12.224   4.608  1.8085  0.6387  0.6515
  424SOL     OW 8129   3.684   1.436   2.583 -0.2231  0.2502  0.4126
  424SOL    HW1 8130   3.716   1.345   2.583 -0.4255  0.1732  0.9271
  424SOL    HW2 8131   3.755   1.486   2.622 -0.9376 -0.0157  2.1723
  425SOL     OW 8132   1.982   6.752   3.089 -0.3346 -0.3084  0.1482
  425SOL    HW1 8133   1.984   6.658   3.105 -1.3679 -0.5938 -1.2625
  425SOL    HW2 8134   1.967   6.761   2.995  1.0746  1.2778  0.0071
  426SOL     OW 8135   8.738   1.797   8.485  0.3725  0.1317 -0.1806
  426SOL    HW1 8136   8.816   1.853   8.488 -0.4659  1.2756  1.4588
  426SOL    HW2 8137   8.754   1.731   8.551 -0.1599  0.5408  0.3640
  427SOL     OW 8138   8.475   8.218   8.499 -0.1304  0.6842  0.2644
  427SOL    HW1 8139   8.570   8.212   8.494 -0.1172  1.3819 -0.6273
  427SOL    HW2 8140   8.458   8.294   8.554 -0.2085 -0.4239  1.8372
  428SOL     OW 8141   2.591   3.672   6.773  0.0912  0.3613  0.3310
  428SOL    HW1 8142   2.545   3.588   6.770  0.2854  0.2592  0.2462
  428SOL    HW2 8143   2.631   3.674   6.860  0.0238  0.4011  0.3616
  429SOL     OW 8144   5.652   8.006   7.469 -0.3352  0.1087  0.7494
  429SOL    HW1 8145   5.669   7.916   7.442 -1.0060 -0.1519  1.1579
  429SOL    HW2 8146   5.642   8.001   7.564  0.9566  0.8331  0.9452
  430SOL     OW 8147   6.353   1.488   0.351 -0.2792  0.8665 -0.3458
  430SOL    HW1 8148   6.373   1.487   0.444  0.4570 -0.1232 -0.4993
  430SOL    HW2 8149   6.280   1.426   0.342 -1.5295  2.2786 -0.1972
  431SOL     OW 8150   4.532   4.201   7.100  0.8704  0.3417 -0.1729
  431SOL    HW1 8151   4.471   4.138   7.138  1.3437  0.9808  1.8050
  431SOL    HW2 8152   4.490   4.230   7.019 -0.9121 -0.0904  0.5409
  432SOL     OW 8153   4.002   0.613   7.612  0.3358  0.0176 -0.4281
  432SOL    HW1 8154   4.025   0.611   7.519 -2.1087 -0.0112 -1.1045
  432SOL    HW2 8155   4.062   0.678   7.650  1.4848 -0.0941 -1.9576
  433SOL     OW 8156   3.705   6.940  10.277 -0.2802 -0.0295 -0.1774
  433SOL    HW1 8157   3.645   6.996  10.228  0.3736  1.1505  0.3419
  433SOL    HW2 8158   3.757   6.896  10.210  0.0383  0.9309 -0.5774
  434SOL     OW 8159  12.565   2.834   2.146  0.5429  0.8789  0.1862
  434SOL    HW1 8160  12.625   2.906   2.127  0.7748  0.8362  0.7355
  434SOL    HW2 8161  12.522   2.859   2.228  0.4559  0.5018  0.2603
  435SOL     OW 8162   4.380   5.883   7.142  0.4382  0.6024 -0.4302
  435SOL    HW1 8163   4.428   5.961   7.168  3.2991 -1.1052 -0.1610
  435SOL    HW2 8164   4.446   5.814   7.140 -1.6444 -1.4993 -2.2217
  436SOL     OW 8165   9.205   7.178   1.264 -0.6488 -0.8623 -0.3914
  436SOL    HW1 8166   9.126   7.126   1.248 -0.9236 -0.0852 -1.6787
  436SOL    HW2 8167   9.200   7.249   1.200 -0.6391  1.1856  1.7520
  437SOL     OW 8168   8.459   3.629   1.521  0.2245  0.3747 -0.2000
  437SOL    HW1 8169   8.390   3.692   1.500  1.0489  1.4249  0.1283
  437SOL    HW2 8170   8.496   3.661   1.603  1.1831 -0.1012 -0.4345
  438SOL     OW 8171   7.741   0.785   5.002 -0.1114  0.2175 -0.5223
  438SOL    HW1 8172   7.830   0.756   5.024 -0.1863  0.4276  0.0951
  438SOL    HW2 8173   7.703   0.712   4.954  0.9488  0.7778 -2.2798
  439SOL     OW 8174  10.395   7.374  12.173  0.2666 -0.4983 -0.0981
  439SOL    HW1 8175  10.406   7.385  12.267  0.3048  0.0203 -0.1622
  439SOL    HW2 8176  10.483   7.383  12.137  0.6530 -3.0046  0.0155
  440SOL     OW 8177   2.092   6.734   0.461  0.2974 -0.3440 -0.6046
  440SOL    HW1 8178   2.118   6.784   0.384 -0.1026  0.2246 -0.3756
  440SOL    HW2 8179   2.009   6.773   0.488  0.2202 -0.8205 -0.1406
  441SOL     OW 8180   7.525   1.901  10.990  0.6312  0.2523  0.2017
  441SOL    HW1 8181   7.491   1.952  10.917 -0.8756 -1.4144 -0.3495
  441SOL    HW2 8182   7.458   1.834  11.006  0.7843  0.6456  3.2551
  442SOL     OW 8183   8.845   9.172   7.843  0.7499 -0.2209  0.8632
  442SOL    HW1 8184   8.761   9.212   7.866 -1.0894 -1.8521 -2.3614
  442SOL    HW2 8185   8.898   9.245   7.812 -0.0620  0.6460  1.4707
  443SOL     OW 8186   9.324   8.256   2.158  0.0948  0.5055 -0.0727
  443SOL    HW1 8187   9.328   8.328   2.221  2.2222  0.4361 -0.0305
  443SOL    HW2 8188   9.249   8.204   2.186 -2.5451  3.4362 -1.0229
  444SOL     OW 8189   4.177   0.564   8.238 -0.1140  0.6084  0.1473
  444SOL    HW1 8190   4.109   0.497   8.238  0.3753  0.1043  0.0565
  444SOL    HW2 8191   4.204   0.571   8.147  1.1335 -0.4225  0.4063
  445SOL     OW 8192   6.027   1.821   8.857 -0.0036 -0.5023 -0.4270
  445SOL    HW1 8193   5.959   1.861   8.803  0.2032 -0.1691 -0.4412
  445SOL    HW2 8194   6.079   1.769   8.795 -0.4393 -1.0199 -0.3605
  446SOL     OW 8195   8.996  10.479  11.033  1.1811  0.0849 -0.2346
  446SOL    HW1 8196   8.953  10.562  11.054 -1.3615 -1.0935 -0.4139
  446SOL    HW2 8197   9.085  10.503  11.006  0.5716  2.6922 -0.1017
  447SOL     OW 8198   1.182   2.709   5.409  0.4787 -0.4093 -0.6560
  447SOL    HW1 8199   1.269   2.749   5.416  0.2783 -0.0573 -0.1613
  447SOL    HW2 8200   1.172   2.692   5.315  0.5249  0.8152 -0.9096
  448SOL     OW 8201   3.971   8.059   3.721  0.0425  0.2719 -0.0256
  448SOL    HW1 8202   3.921   8.107   3.786  0.0462  0.5492 -0.2252
  448SOL    HW2 8203   3.947   8.099   3.637 -0.5665 -0.5979 -0.2836
  449SOL     OW 8204   7.682   8.310  11.728 -0.0624  0.0721 -0.4891
  449SOL    HW1 8205   7.748   8.378  11.742 -1.7031  2.3470 -2.8428
  449SOL    HW2 8206   7.639   8.302  11.813  0.5937  1.5734  0.0255
  450SOL     OW 8207   4.808   3.824   3.345  0.3503 -0.0947  0.3993
  450SOL    HW1 8208   4.882   3.882   3.325  0.8931 -0.7962  0.3570
  450SOL    HW2 8209   4.811   3.758   3.276 -1.0310  0.5187 -0.3020
  451SOL     OW 8210   9.243   8.642   9.921 -0.0785  0.4551  0.0154
  451SOL    HW1 8211   9.274   8.649  10.011  3.6787  0.5259 -1.1326
  451SOL    HW2 8212   9.233   8.548   9.905 -0.6763  0.4401  0.4422
  452SOL     OW 8213   6.918   2.984   8.678  0.7590 -0.0293  0.3112
  452SOL    HW1 8214   6.897   3.073   8.704  1.8128 -0.0873  1.4387
  452SOL    HW2 8215   7.006   2.969   8.712  0.6736 -1.4364 -0.0231
  453SOL     OW 8216   2.793   9.370   9.948 -0.5871 -0.6190  0.3560
  453SOL    HW1 8217   2.849   9.352   9.872 -0.7932  0.9827 -0.2095
  453SOL    HW2 8218   2.741   9.290   9.958 -1.4150 -0.4508 -1.9564
  454SOL     OW 8219   0.345  11.936   1.194  0.3211 -0.5938  0.1425
  454SOL    HW1 8220   0.397  11.887   1.257  1.4237 -0.8706 -0.9519
  454SOL    HW2 8221   0.336  11.876   1.120  2.6848  1.1948 -1.7137
  455SOL     OW 8222   3.449   1.513   0.768 -0.5152 -0.3110  0.2961
  455SOL    HW1 8223   3.513   1.569   0.813 -2.1315  2.2740 -0.3916
  455SOL    HW2 8224   3.489   1.494   0.683 -0.5129  1.0876 -0.0380
  456SOL     OW 8225   9.899   7.914   0.152 -0.0034 -0.1016 -0.2092
  456SOL    HW1 8226   9.973   7.972   0.134  0.7325 -0.7547  0.6345
  456SOL    HW2 8227   9.924   7.867   0.232 -1.9467  0.6925  0.9427
  457SOL     OW 8228   5.328   5.140   1.985 -0.2001 -0.5302 -0.4449
  457SOL    HW1 8229   5.256   5.131   1.922 -0.0250 -0.5747 -0.6374
  457SOL    HW2 8230   5.330   5.056   2.031 -1.9252  0.2966  1.3338
  458SOL     OW 8231   1.317  10.097   1.767 -0.5145 -0.1840 -0.0407
  458SOL    HW1 8232   1.282  10.060   1.685  1.2664 -1.6274 -0.2269
  458SOL    HW2 8233   1.397  10.142   1.740 -0.8891  0.9475  0.6855
  459SOL     OW 8234   4.325  12.088   9.462  0.2318  0.3686 -0.4108
  459SOL    HW1 8235   4.373  12.170   9.476 -0.6911  1.1007 -1.3633
  459SOL    HW2 8236   4.247  12.114   9.413  0.5459 -1.2338 -1.8878
  460SOL     OW 8237   0.967   0.565   9.345 -0.1307  0.5790 -0.4088
  460SOL    HW1 8238   1.060   0.541   9.348 -0.1811  0.1414 -1.5125
  460SOL    HW2 8239   0.929   0.502   9.283 -1.0751  1.0221 -0.2913
  461SOL     OW 8240   2.189   8.504   8.259 -0.5478  0.0529  0.2628
  461SOL    HW1 8241   2.178   8.555   8.339  0.2507  0.4503  0.1270
  461SOL    HW2 8242   2.101   8.501   8.221 -0.9953 -0.3473  1.2662
  462SOL     OW 8243   9.029   8.922  10.100 -0.5349  0.7651  0.4959
  462SOL    HW1 8244   9.008   8.942  10.191  0.0195  0.4248  0.7014
  462SOL    HW2 8245   9.118   8.887  10.103 -1.0255 -0.5812  0.0014
  463SOL     OW 8246   1.140   7.060   2.496  0.3245  0.2106 -0.1171
  463SOL    HW1 8247   1.082   7.080   2.570  0.0446 -2.4467  0.4707
  463SOL    HW2 8248   1.145   7.143   2.447 -1.6189  1.3212  1.3890
  464SOL     OW 8249   5.078  11.709   7.055  0.5622  0.0179  0.8544
  464SOL    HW1 8250   5.053  11.800   7.070 -4.4161 -0.3336 -2.9685
  464SOL    HW2 8251   5.030  11.659   7.121 -2.3015 -0.0793 -1.1582
  465SOL     OW 8252  11.139   2.507  12.338 -0.5187  0.1574  0.1116
  465SOL    HW1 8253  11.129   2.600  12.358 -1.5223  0.2182 -0.5699
  465SOL    HW2 8254  11.193   2.473  12.409 -0.7761  1.1130  0.7904
  466SOL     OW 8255  10.023   2.415   0.041  0.0407 -0.7888  0.1256
  466SOL    HW1 8256  10.099   2.383  -0.007 -1.5762 -0.8060 -2.6363
  466SOL    HW2 8257  10.036   2.384   0.131  2.4420 -2.2083 -0.6253
  467SOL     OW 8258   9.033   2.841   8.470  0.7495 -0.1467 -0.6212
  467SOL    HW1 8259   9.115   2.796   8.491  0.3480 -0.7782 -0.4003
  467SOL    HW2 8260   8.988   2.850   8.554  1.4895  2.0463 -0.3855
  468SOL     OW 8261   1.006   3.762   1.246  0.8701  0.4714  0.4121
  468SOL    HW1 8262   0.951   3.796   1.176 -0.6111 -3.6903 -0.7666
  468SOL    HW2 8263   1.095   3.772   1.214  0.2447 -0.8827 -1.9329
  469SOL     OW 8264   0.866   6.602   9.379  0.0418  0.2583 -0.1517
  469SOL    HW1 8265   0.821   6.531   9.331  0.5555 -0.3793  0.2906
  469SOL    HW2 8266   0.798   6.641   9.434  0.0984 -0.9708  0.8267
  470SOL     OW 8267   4.802   8.407   8.288  0.1769  0.3263 -0.4032
  470SOL    HW1 8268   4.805   8.456   8.205 -0.5131 -0.8787 -1.1748
  470SOL    HW2 8269   4.735   8.451   8.340 -0.2425  0.3823 -0.9814
  471SOL     OW 8270   5.448   6.123   6.412  0.1538 -0.7744  0.1006
  471SOL    HW1 8271   5.447   6.205   6.363  0.7970  0.1300  1.5580
  471SOL    HW2 8272   5.445   6.055   6.344 -2.8271  0.3726 -1.0996
  472SOL     OW 8273   4.636   9.628   0.642 -0.1718 -0.4495  0.4697
  472SOL    HW1 8274   4.659   9.535   0.634 -1.2677 -0.9150  2.2963
  472SOL    HW2 8275   4.607   9.638   0.732 -2.5608  1.1230 -0.3851
  473SOL     OW 8276  11.123   3.522   9.817  0.5110  0.1770  0.6105
  473SOL    HW1 8277  11.033   3.507   9.843  0.8074 -0.0211  1.5544
  473SOL    HW2 8278  11.176   3.479   9.884  1.3211 -1.7369 -1.1501
  474SOL     OW 8279   2.593   3.255   8.096  0.0800  0.0740  0.3990
  474SOL    HW1 8280   2.682   3.221   8.092  0.3987  0.8080  1.0783
  474SOL    HW2 8281   2.550   3.201   8.163  0.2211  0.1764  0.5737
  475SOL     OW 8282   1.009  11.325   0.271 -0.0750  0.1250  0.3957
  475SOL    HW1 8283   1.020  11.392   0.338 -0.7163 -0.8784  1.5494
  475SOL    HW2 8284   1.040  11.244   0.312 -0.0954 -0.4401 -0.6585
  476SOL     OW 8285  12.335   7.327   9.487 -0.4088 -0.2152 -0.6443
  476SOL    HW1 8286  12.390   7.255   9.454 -2.5306 -0.7459 -3.3535
  476SOL    HW2 8287  12.254   7.284   9.514 -0.4989  0.8351  0.8329
  477SOL     OW 8288   1.686  10.184   9.553  0.1873  0.1157 -0.0377
  477SOL    HW1 8289   1.592  10.182   9.539  0.3654 -1.7984 -1.3275
  477SOL    HW2 8290   1.698  10.147   9.641 -0.2733  0.9521  0.3869
  478SOL     OW 8291   4.137   2.103   5.891 -0.2490 -0.2043  0.4157
  478SOL    HW1 8292   4.052   2.100   5.936  0.2809 -1.5227  1.4298
  478SOL    HW2 8293   4.135   2.027   5.833 -0.7932  1.3068 -1.6413
  479SOL     OW 8294   0.391  11.917   9.311 -0.5888 -0.4583  0.0532
  479SOL    HW1 8295   0.370  11.925   9.404 -1.9472 -1.1913 -0.1634
  479SOL    HW2 8296   0.439  11.835   9.305  0.7359  0.2774  0.2828
  480SOL     OW 8297   0.462   7.797  12.248 -0.2425  0.0284 -0.4021
  480SOL    HW1 8298   0.492   7.755  12.167  1.5868 -1.5725  1.0277
  480SOL    HW2 8299   0.368   7.779  12.251 -0.2027 -0.5625 -1.7697
  481SOL     OW 8300   7.191   1.442   8.197  0.4546 -0.0785  0.2759
  481SOL    HW1 8301   7.146   1.491   8.266  2.1272  2.4758 -0.3219
  481SOL    HW2 8302   7.236   1.509   8.146 -0.2795 -1.9085 -3.0240
  482SOL     OW 8303   1.427   5.424   9.871  0.2061  0.8434 -0.1569
  482SOL    HW1 8304   1.474   5.507   9.876 -0.5317  1.2539  0.3339
  482SOL    HW2 8305   1.341   5.444   9.909  0.6608 -0.6124  1.8316
  483SOL     OW 8306   4.362   6.033   2.124 -0.0722 -0.1057 -0.4595
  483SOL    HW1 8307   4.390   5.967   2.188  0.7333 -0.1759 -0.8751
  483SOL    HW2 8308   4.293   5.989   2.074  0.2972 -0.5582 -0.5814
  484SOL     OW 8309   9.886  10.990   3.195 -0.7774 -0.3732 -0.5603
  484SOL    HW1 8310   9.794  11.010   3.182 -1.0599  0.2164  1.9500
  484SOL    HW2 8311   9.890  10.948   3.281  1.5886  2.4234  0.8728
  485SOL     OW 8312   0.295   1.530   2.706  0.2641 -0.2428 -0.0174
  485SOL    HW1 8313   0.340   1.613   2.693  1.4224 -0.9272 -0.5052
  485SOL    HW2 8314   0.203   1.550   2.689  0.6157  0.7872 -0.8374
  486SOL     OW 8315  10.029   4.562   9.324 -0.2575  0.5702  0.4410
  486SOL    HW1 8316  10.009   4.500   9.254 -1.0483  0.6543  0.5824
  486SOL    HW2 8317   9.971   4.636   9.308  0.4743  1.1542  0.4460
  487SOL     OW 8318   4.040   7.505  12.351  0.0593  0.0849 -0.5007
  487SOL    HW1 8319   4.078   7.418  12.342 -1.3080 -0.4302 -1.8282
  487SOL    HW2 8320   4.063   7.549  12.269 -0.6759  0.3755 -0.5557
  488SOL     OW 8321  10.265   0.073   7.996 -0.1281  0.0943  0.1881
  488SOL    HW1 8322  10.347   0.099   7.955 -1.1715  2.4539 -0.5563
  488SOL    HW2 8323  10.202   0.069   7.925 -0.9952 -0.2341  0.9479
  489SOL     OW 8324   8.900  12.242   5.273 -0.4559 -0.0608  0.7520
  489SOL    HW1 8325   8.932  12.326   5.241 -1.0453  1.6207  4.1008
  489SOL    HW2 8326   8.816  12.231   5.229 -0.4178  1.1679  0.3196
  490SOL     OW 8327  10.421  11.747   9.796  0.1512  0.0637  0.2266
  490SOL    HW1 8328  10.414  11.662   9.840  0.7079 -0.2896 -0.3499
  490SOL    HW2 8329  10.462  11.727   9.711  0.7893  0.9731  0.3022
  491SOL     OW 8330   6.155   1.077  11.007  0.1025 -0.2092  0.0588
  491SOL    HW1 8331   6.199   1.067  11.091 -1.0851  1.9045  1.0155
  491SOL    HW2 8332   6.063   1.061  11.025 -0.1025 -0.2759 -0.9639
  492SOL     OW 8333   1.201  11.187   4.967 -0.4361  1.2011  0.6594
  492SOL    HW1 8334   1.296  11.182   4.969 -0.3367  1.9016 -0.7776
  492SOL    HW2 8335   1.175  11.124   4.899 -0.9105  1.7711  0.3017
  493SOL     OW 8336   0.358   9.265   2.030 -0.2384  0.1368  1.0879
  493SOL    HW1 8337   0.321   9.177   2.043 -0.7646  0.3932  1.3733
  493SOL    HW2 8338   0.446   9.260   2.067 -0.5275 -0.0749  1.7580
  494SOL     OW 8339   1.098   8.623   2.593 -0.0536  0.0978  0.4349
  494SOL    HW1 8340   1.058   8.709   2.600  0.4693  0.5497 -1.6506
  494SOL    HW2 8341   1.091   8.599   2.501 -1.0118 -2.5308  1.0852
  495SOL     OW 8342   5.907   9.607   3.837  0.7771  0.1027 -0.0158
  495SOL    HW1 8343   5.866   9.540   3.891 -0.8311 -0.6810 -2.1023
  495SOL    HW2 8344   6.001   9.588   3.842  0.6885  0.0365  2.3731
  496SOL     OW 8345  10.912   4.594   3.205  0.1341  0.2653 -0.0701
  496SOL    HW1 8346  10.888   4.682   3.232  1.4521  0.6727 -0.1727
  496SOL    HW2 8347  10.934   4.602   3.112 -1.0487 -0.4521 -0.4345
  497SOL     OW 8348   9.141  12.290   9.392  0.4833  0.2564  0.1796
  497SOL    HW1 8349   9.160  12.253   9.306 -0.1587  0.1564  0.0770
  497SOL    HW2 8350   9.046  12.282   9.401  0.6681 -0.9179  1.4298
  498SOL     OW 8351  10.219   2.248   7.192 -0.2741 -0.4366  0.1763
  498SOL    HW1 8352  10.125   2.259   7.198 -0.1515  0.4335  0.7409
  498SOL    HW2 8353  10.241   2.185   7.260 -0.2316  0.8458  1.3928
  499SOL     OW 8354   6.457   5.688   6.194  0.4472  0.5134 -0.3036
  499SOL    HW1 8355   6.468   5.774   6.235 -0.7668  1.5713 -2.0999
  499SOL    HW2 8356   6.388   5.646   6.245  1.0498  0.5727  0.5864
  500SOL     OW 8357   3.133   2.170   9.480  0.2632  0.0391 -0.2720
  500SOL    HW1 8358   3.116   2.243   9.539  0.0540 -0.3192  0.1204
  500SOL    HW2 8359   3.168   2.101   9.537 -1.1013 -0.7494 -0.3277
  501SOL     OW 8360  11.992   0.518   9.481 -0.0422  0.3245 -0.2027
  501SOL    HW1 8361  11.953   0.435   9.454 -1.3071  1.0977 -0.8161
  501SOL    HW2 8362  12.082   0.514   9.447 -0.3815 -0.3870 -1.0655
  502SOL     OW 8363   6.454   1.116  10.268 -0.2196  0.1880 -0.0587
  502SOL    HW1 8364   6.450   1.212  10.274  1.1233  0.3492 -1.3761
  502SOL    HW2 8365   6.364   1.088  10.288 -1.2879  1.8720 -2.0555
  503SOL     OW 8366   0.599  10.938  10.128  0.1979  0.8437 -0.0257
  503SOL    HW1 8367   0.635  10.859  10.169 -0.1075  1.0113  0.5802
  503SOL    HW2 8368   0.506  10.937  10.152  0.1209  1.2071 -0.3014
  504SOL     OW 8369   9.426   2.579  10.787  0.7250  0.5297 -0.2713
  504SOL    HW1 8370   9.429   2.604  10.695  0.1640  1.1132 -0.1427
  504SOL    HW2 8371   9.444   2.485  10.788  2.1882  0.7785 -0.8351
  505SOL     OW 8372   1.254   4.198   3.882 -0.0846  0.5686 -0.1750
  505SOL    HW1 8373   1.174   4.207   3.830 -1.0156 -1.0837  0.9109
  505SOL    HW2 8374   1.241   4.119   3.934  1.6092  1.1222  1.1902
  506SOL     OW 8375  10.396   5.928   6.670  0.0300  0.4833 -0.4599
  506SOL    HW1 8376  10.463   5.930   6.602 -0.2577  1.3619 -0.7345
  506SOL    HW2 8377  10.355   6.014   6.666 -1.6249 -0.2763 -0.8215
  507SOL     OW 8378  10.032   8.530   5.753  0.1745 -0.5023 -0.4681
  507SOL    HW1 8379  10.098   8.465   5.777 -0.5986 -0.3067  2.5853
  507SOL    HW2 8380  10.066   8.612   5.790  0.4826  0.6438 -3.0865
  508SOL     OW 8381   0.052   1.592  12.349  0.3113 -0.3634  0.0746
  508SOL    HW1 8382   0.119   1.611  12.415 -0.2307 -1.3086  0.9403
  508SOL    HW2 8383  -0.029   1.624  12.388 -0.2099 -2.0054  0.4381
  509SOL     OW 8384   0.139   2.951   7.192 -0.3970  0.4934  0.0997
  509SOL    HW1 8385   0.129   3.041   7.160  0.1419  0.4543 -0.2003
  509SOL    HW2 8386   0.086   2.898   7.133  0.4448  0.4449 -0.6385
  510SOL     OW 8387   6.772   0.383   8.640  0.4606  0.1940 -0.2466
  510SOL    HW1 8388   6.830   0.455   8.667  1.3463 -0.6345  0.1129
  510SOL    HW2 8389   6.695   0.427   8.604  0.2475  1.3438  1.4785
  511SOL     OW 8390   0.220   4.782   2.586  0.1490  0.3612 -0.2739
  511SOL    HW1 8391   0.254   4.770   2.675 -0.8935  0.5482  0.1611
  511SOL    HW2 8392   0.264   4.861   2.554 -0.1828  0.8497  0.4408
  512SOL     OW 8393   5.773   2.645   0.666 -0.0355  0.1902  0.3404
  512SOL    HW1 8394   5.762   2.732   0.704  0.1315 -0.1918  1.3056
  512SOL    HW2 8395   5.868   2.636   0.654 -0.1919  1.1406 -2.2724
  513SOL     OW 8396   5.738   7.310  10.755  0.2184 -0.0028 -0.6700
  513SOL    HW1 8397   5.671   7.379  10.754  1.0718  0.9243  0.9735
  513SOL    HW2 8398   5.691   7.230  10.731 -1.4165  0.6560  0.1741
  514SOL     OW 8399   0.676   7.065  11.333 -0.1721 -0.6455  0.3756
  514SOL    HW1 8400   0.650   7.039  11.245  3.1440  1.3674 -1.4097
  514SOL    HW2 8401   0.766   7.033  11.343  0.3789  1.1464  2.0328
  515SOL     OW 8402   5.388   9.515  11.390  0.5934 -0.0117  0.1803
  515SOL    HW1 8403   5.338   9.442  11.353  0.2569  0.2893  0.0251
  515SOL    HW2 8404   5.362   9.518  11.482  0.3482  0.1173  0.1100
  516SOL     OW 8405   0.801   7.709  11.924 -0.2462 -0.2009 -1.0034
  516SOL    HW1 8406   0.833   7.623  11.953 -0.5175  0.5044  1.6198
  516SOL    HW2 8407   0.849   7.726  11.843  0.7205 -2.2726 -0.9414
  517SOL     OW 8408   4.694  11.311  12.118 -0.5007 -0.7278 -0.2034
  517SOL    HW1 8409   4.693  11.342  12.027 -0.2760  2.3740  0.7362
  517SOL    HW2 8410   4.604  11.322  12.149 -0.2401 -0.2070  0.3969
  518SOL     OW 8411   7.484   7.812   0.174  0.1064 -0.1368  0.3239
  518SOL    HW1 8412   7.521   7.884   0.225  0.5425 -0.4748  0.4923
  518SOL    HW2 8413   7.394   7.806   0.203 -0.8140  2.1549 -1.6624
  519SOL     OW 8414  10.642   8.768   1.603  0.2789 -0.3097 -0.0798
  519SOL    HW1 8415  10.708   8.834   1.580  1.4697 -1.6069 -0.4709
  519SOL    HW2 8416  10.628   8.780   1.697 -2.6150  3.2230 -0.7305
  520SOL     OW 8417   5.667   9.657  12.354 -0.4992  1.2750  0.3165
  520SOL    HW1 8418   5.732   9.600  12.314  0.1232  1.6686  0.7352
  520SOL    HW2 8419   5.619   9.600  12.414  0.7446  1.3656  1.4402
  521SOL     OW 8420   2.444   8.340   3.152 -0.2421  0.4278 -0.1406
  521SOL    HW1 8421   2.461   8.247   3.136 -1.7163  0.0037  0.5576
  521SOL    HW2 8422   2.418   8.344   3.244  0.3279  1.6193 -0.0142
  522SOL     OW 8423   7.150   7.765   3.590 -0.2831 -0.2294  0.1457
  522SOL    HW1 8424   7.092   7.696   3.623  0.6826 -0.5623  1.2089
  522SOL    HW2 8425   7.120   7.781   3.500 -1.9644 -0.4294  0.6485
  523SOL     OW 8426  12.058   6.203   8.114  0.1694  0.2963  0.3265
  523SOL    HW1 8427  12.016   6.277   8.071  1.4083  1.5163  1.1540
  523SOL    HW2 8428  12.100   6.154   8.043 -0.6535  0.3602 -0.2216
  524SOL     OW 8429   4.794   7.414   8.200 -0.3775 -0.4492 -0.0850
  524SOL    HW1 8430   4.837   7.492   8.164  1.1909 -0.7656  1.0017
  524SOL    HW2 8431   4.845   7.340   8.166 -1.3785 -0.9850 -0.4823
  525SOL     OW 8432   2.623   5.362  10.261 -0.5140  0.1034 -0.2450
  525SOL    HW1 8433   2.700   5.410  10.230 -0.1803  0.4850  1.1099
  525SOL    HW2 8434   2.659   5.296  10.321 -1.1176 -0.7539 -0.7973
  526SOL     OW 8435   9.404   0.706   0.043  0.0645 -0.8239 -0.2691
  526SOL    HW1 8436   9.335   0.759   0.003  1.5046  0.4493 -1.1958
  526SOL    HW2 8437   9.397   0.724   0.137 -0.8553 -0.7093 -0.3589
  527SOL     OW 8438   5.081   1.500   5.324 -0.0780  0.0047  0.1519
  527SOL    HW1 8439   4.999   1.522   5.280  0.4620 -0.0813 -0.9474
  527SOL    HW2 8440   5.121   1.434   5.267  0.9344  0.3443  0.4501
  528SOL     OW 8441   5.335  10.993   4.782 -0.4759 -0.1892 -0.5382
  528SOL    HW1 8442   5.283  11.073   4.787  1.2600  0.9433  0.2081
  528SOL    HW2 8443   5.302  10.939   4.854 -0.7725  0.4138 -0.2134
  529SOL     OW 8444   0.479   5.337   7.099  0.3870  0.7402 -0.3514
  529SOL    HW1 8445   0.388   5.364   7.092 -0.3542 -1.7597 -1.4174
  529SOL    HW2 8446   0.509   5.330   7.008  0.9619 -0.4898 -0.0825
  530SOL     OW 8447  10.977  12.272  11.577 -0.0490 -0.1168  0.3685
  530SOL    HW1 8448  10.925  12.350  11.598  0.8021  0.4931  0.2663
  530SOL    HW2 8449  11.063  12.289  11.615  1.0961  0.3786 -2.1912
  531SOL     OW 8450  10.575   3.768  11.149  0.6667 -0.4223 -0.1901
  531SOL    HW1 8451  10.577   3.736  11.059 -2.5998 -2.2804  0.2602
  531SOL    HW2 8452  10.586   3.689  11.203  1.2541  0.4728  1.0565
  532SOL     OW 8453   1.395   4.459   5.881 -0.2751  0.3365 -0.0272
  532SOL    HW1 8454   1.420   4.546   5.850 -2.4802  0.7252 -0.9106
  532SOL    HW2 8455   1.427   4.399   5.814  0.3323  0.5618  0.0546
  533SOL     OW 8456  12.406   4.459   7.007  0.1753  0.4439  0.0719
  533SOL    HW1 8457  12.481   4.426   7.057 -0.2787 -0.5419  0.1247
  533SOL    HW2 8458  12.445   4.515   6.940  0.9871 -0.3235 -0.1133
  534SOL     OW 8459  10.538   0.635   9.147 -0.1325 -0.1852  0.1301
  534SOL    HW1 8460  10.454   0.663   9.183  0.1627 -0.3815  1.0069
  534SOL    HW2 8461  10.519   0.552   9.104 -0.7027  0.5639 -1.1280
  535SOL     OW 8462  11.634  10.867   8.957 -0.2566  0.4009 -0.4311
  535SOL    HW1 8463  11.591  10.949   8.980  1.1917  1.0866 -0.0762
  535SOL    HW2 8464  11.588  10.837   8.878 -1.0332  1.3563 -0.3590
  536SOL     OW 8465   1.128   1.238   7.358 -0.4181  0.3840  0.0870
  536SOL    HW1 8466   1.193   1.209   7.423  0.8098 -0.5308 -1.4873
  536SOL    HW2 8467   1.072   1.299   7.406  0.6069 -0.0552  1.9321
  537SOL     OW 8468  12.069  12.450  10.675  0.3048  0.2880  0.0134
  537SOL    HW1 8469  12.033  12.377  10.726 -0.0342  0.8755  0.6425
  537SOL    HW2 8470  12.015  12.525  10.701 -0.6504  0.3893 -2.1150
  538SOL     OW 8471   4.461   7.838   2.317  0.3146  0.4353  0.1516
  538SOL    HW1 8472   4.467   7.744   2.338  0.9933  0.3822 -0.2337
  538SOL    HW2 8473   4.446   7.880   2.402 -1.2368 -0.1104  0.1808
  539SOL     OW 8474  11.433   0.993   1.385 -0.2027 -0.1711 -0.6075
  539SOL    HW1 8475  11.377   0.919   1.360  0.5421 -0.3552 -1.7939
  539SOL    HW2 8476  11.489   0.957   1.455 -2.2138  0.3158  1.3537
  540SOL     OW 8477   8.303   4.500   7.858  0.6822  0.1647  0.3419
  540SOL    HW1 8478   8.298   4.545   7.943 -3.0756  0.4251  0.1527
  540SOL    HW2 8479   8.266   4.563   7.796  1.4016 -0.8152 -1.1212
  541SOL     OW 8480   7.686   8.654   9.511  0.0251  0.0636 -0.1529
  541SOL    HW1 8481   7.613   8.705   9.546  0.6289  1.0966 -0.3721
  541SOL    HW2 8482   7.647   8.603   9.440 -0.7916 -0.5478  0.7177
  542SOL     OW 8483   6.137   2.026   9.059  0.0033 -0.1532 -0.7933
  542SOL    HW1 8484   6.077   1.975   9.005  0.7268  0.0757 -1.8265
  542SOL    HW2 8485   6.192   1.961   9.103  0.2466 -0.2973 -1.3114
  543SOL     OW 8486  11.899   5.776   5.272  0.7775  0.1283  0.1218
  543SOL    HW1 8487  11.835   5.847   5.262 -0.9259 -1.0908  1.7058
  543SOL    HW2 8488  11.964   5.810   5.333  0.4603  0.6363  0.1848
  544SOL     OW 8489  11.629   2.885   5.435 -0.4245 -0.1674 -0.1771
  544SOL    HW1 8490  11.608   2.820   5.502 -1.5396 -0.2266 -0.5644
  544SOL    HW2 8491  11.611   2.969   5.477  1.1225 -0.0738  0.3611
  545SOL     OW 8492   1.103   2.121   2.032 -0.1164  0.3075  0.2334
  545SOL    HW1 8493   1.020   2.117   1.985 -0.6307  2.2854  0.8568
  545SOL    HW2 8494   1.079   2.139   2.123  0.9580  3.1601  0.0613
  546SOL     OW 8495   3.662   5.369   7.238 -0.2008  0.1128 -0.2609
  546SOL    HW1 8496   3.642   5.317   7.160 -1.7475  2.0739 -1.2894
  546SOL    HW2 8497   3.614   5.451   7.224  1.1468  1.3363  1.8215
  547SOL     OW 8498   4.850  10.089   3.473  0.0683  0.3709 -0.0762
  547SOL    HW1 8499   4.876  10.035   3.398  0.6040 -0.7129  0.8600
  547SOL    HW2 8500   4.793  10.033   3.525  1.3772  0.3315  1.3968
  548SOL     OW 8501  10.878   7.803   6.373  0.4565 -0.0198  0.0759
  548SOL    HW1 8502  10.893   7.849   6.290  2.4627  1.1095  1.0122
  548SOL    HW2 8503  10.786   7.775   6.368 -0.0980  1.8578 -1.6273
  549SOL     OW 8504   6.046   6.114   0.001 -0.3331 -0.1483  0.0956
  549SOL    HW1 8505   6.111   6.057  -0.039 -1.0597 -0.4566 -0.6739
  549SOL    HW2 8506   5.985   6.054   0.045 -0.8148  0.0538 -0.2837
  550SOL     OW 8507   7.651   4.646   3.485 -0.0173 -0.1604  0.2828
  550SOL    HW1 8508   7.573   4.594   3.465 -0.5332  0.3355  1.0013
  550SOL    HW2 8509   7.680   4.616   3.571  1.6080 -1.5526 -0.6751
  551SOL     OW 8510   6.060   1.088   5.826  0.6956 -0.1303 -0.2452
  551SOL    HW1 8511   6.095   1.158   5.882 -0.5599 -1.0445  1.7847
  551SOL    HW2 8512   5.968   1.112   5.813  0.4048 -1.0980 -0.0166
  552SOL     OW 8513   9.079   8.716   2.949 -0.6611 -0.2731  0.2852
  552SOL    HW1 8514   9.071   8.661   2.871  0.0012  0.4055 -0.2833
  552SOL    HW2 8515   9.063   8.805   2.917  1.2667  0.2218  0.5548
  553SOL     OW 8516   7.630  12.448   1.573 -0.2957 -0.2790 -0.4551
  553SOL    HW1 8517   7.666  12.380   1.631  0.3621  0.8557  0.4941
  553SOL    HW2 8518   7.582  12.398   1.506 -0.2550 -1.6594  0.4937
  554SOL     OW 8519   9.672  10.043   6.809  0.2557  0.2735  0.2052
  554SOL    HW1 8520   9.655  10.048   6.715  0.0690 -1.6988  0.1072
  554SOL    HW2 8521   9.599   9.992   6.844  0.2851  1.0351  1.4566
  555SOL     OW 8522   3.206   3.464   9.437  0.4693 -0.4565  0.3958
  555SOL    HW1 8523   3.212   3.492   9.346  2.3091 -0.9844  0.3140
  555SOL    HW2 8524   3.179   3.372   9.432 -2.0000  0.1774  0.5359
  556SOL     OW 8525   0.987   2.460   9.760  0.4346 -0.5288 -0.6646
  556SOL    HW1 8526   1.002   2.434   9.851 -0.5391  0.8568 -0.0674
  556SOL    HW2 8527   0.932   2.390   9.724  2.7941 -2.3231 -0.9567
  557SOL     OW 8528   1.057   4.256   5.244 -0.1365  0.3589  0.2930
  557SOL    HW1 8529   1.141   4.237   5.201  0.4452  0.1657  1.4877
  557SOL    HW2 8530   1.004   4.179   5.227  0.0386  0.3391 -0.1868
  558SOL     OW 8531   4.388   3.987   7.165 -0.7409 -0.4283  0.4162
  558SOL    HW1 8532   4.408   3.904   7.122  0.1502 -1.2316  2.2867
  558SOL    HW2 8533   4.343   3.962   7.246 -2.2270  1.0225  0.0753
  559SOL     OW 8534   4.668   7.563   2.835 -0.0357  0.9452 -0.2868
  559SOL    HW1 8535   4.720   7.609   2.769  1.5019  0.3226  0.4320
  559SOL    HW2 8536   4.725   7.492   2.864 -1.3558  0.1717  0.4791
  560SOL     OW 8537   2.062   6.401   3.734  0.1672  0.2261  0.0699
  560SOL    HW1 8538   2.019   6.363   3.658 -0.3243  0.0932  0.4119
  560SOL    HW2 8539   2.149   6.361   3.735  0.8110  1.4674 -1.3898
  561SOL     OW 8540   8.553   7.435   4.869 -0.0880 -0.3063  0.2867
  561SOL    HW1 8541   8.499   7.371   4.823 -0.0865  0.3735 -0.7170
  561SOL    HW2 8542   8.492   7.483   4.924 -0.5338  0.3994 -0.7766
  562SOL     OW 8543  11.539   2.183   1.021 -0.3338  0.5804 -0.1963
  562SOL    HW1 8544  11.575   2.137   0.945 -0.9551  0.4546 -0.4201
  562SOL    HW2 8545  11.445   2.170   1.015 -0.3615  0.2218  0.8347
  563SOL     OW 8546   6.875   0.698   9.480 -0.7077 -0.1529 -0.1126
  563SOL    HW1 8547   6.894   0.710   9.573 -0.3653  0.0208 -0.2005
  563SOL    HW2 8548   6.847   0.607   9.472  1.9740 -1.0725 -0.2420
  564SOL     OW 8549   4.233   3.303   6.071  0.2265  0.2047 -0.0161
  564SOL    HW1 8550   4.229   3.348   5.986  0.8800  0.5247  0.1171
  564SOL    HW2 8551   4.226   3.210   6.049 -0.1133  0.3125 -0.3800
  565SOL     OW 8552  10.614  10.966   2.702 -0.0037 -0.5108  0.4888
  565SOL    HW1 8553  10.556  10.936   2.772 -1.1981  1.4201  0.4224
  565SOL    HW2 8554  10.626  11.060   2.720  0.4346 -0.1819 -1.3299
  566SOL     OW 8555   6.842   0.444   6.734 -0.0119  0.5346  0.0070
  566SOL    HW1 8556   6.851   0.406   6.647  2.2402 -1.0923  0.8497
  566SOL    HW2 8557   6.922   0.494   6.747 -0.6435  1.3621  0.8930
  567SOL     OW 8558   2.413   2.240   0.081 -0.5179  0.0494 -0.3502
  567SOL    HW1 8559   2.375   2.301   0.144  0.3923  0.5085 -0.2349
  567SOL    HW2 8560   2.376   2.155   0.104  0.3690  0.0810  1.2877
  568SOL     OW 8561   8.787   3.080   7.795 -0.2150  0.5399  0.2040
  568SOL    HW1 8562   8.732   3.007   7.766  2.2008 -1.0473 -0.8074
  568SOL    HW2 8563   8.752   3.105   7.880 -3.6445  1.0275 -1.2053
  569SOL     OW 8564   3.372  11.468   0.678 -0.4234 -0.0114  0.4265
  569SOL    HW1 8565   3.418  11.415   0.613  0.6892 -1.1575  2.0701
  569SOL    HW2 8566   3.412  11.444   0.762 -2.4126  0.7306  1.6688
  570SOL     OW 8567   2.359   3.387   8.293 -0.2775 -0.2338  0.3051
  570SOL    HW1 8568   2.385   3.330   8.365  0.7656 -0.2780 -0.0776
  570SOL    HW2 8569   2.415   3.464   8.303 -0.9816  0.2958  0.2438
  571SOL     OW 8570   0.684   1.145   0.149  0.1694  0.0330 -0.7101
  571SOL    HW1 8571   0.618   1.197   0.196 -0.0930  0.5418 -1.5939
  571SOL    HW2 8572   0.768   1.180   0.178  0.0524 -0.3917  0.1760
  572SOL     OW 8573   4.385   6.916   3.418 -0.5831 -0.1917  0.1589
  572SOL    HW1 8574   4.433   6.837   3.394  1.0853  0.4372  1.2895
  572SOL    HW2 8575   4.335   6.890   3.496 -0.6694 -0.3296  0.0602
  573SOL     OW 8576   5.049   0.535   7.250 -0.1477  0.2487 -0.0577
  573SOL    HW1 8577   5.047   0.463   7.312 -1.2048  1.4062  1.3184
  573SOL    HW2 8578   5.129   0.521   7.199 -0.1620 -1.6848  0.3756
  574SOL     OW 8579  10.482   7.384   5.990 -0.2997 -0.3608  0.0359
  574SOL    HW1 8580  10.450   7.295   6.004 -1.4462 -0.0553 -0.5496
  574SOL    HW2 8581  10.559   7.391   6.047 -1.1479 -1.1932  1.3336
  575SOL     OW 8582   0.249   8.367   3.364  0.4785  0.1448 -0.1319
  575SOL    HW1 8583   0.330   8.417   3.361  0.4003  0.2091 -2.0158
  575SOL    HW2 8584   0.185   8.421   3.318 -0.2480 -0.5904 -0.0164
  576SOL     OW 8585   6.707  10.303  10.104  0.0575 -0.1649  0.1367
  576SOL    HW1 8586   6.751  10.280  10.185 -0.0874 -4.5069 -0.7675
  576SOL    HW2 8587   6.771  10.284  10.035 -0.8003  0.5403 -0.8877
  577SOL     OW 8588  10.053   2.213   4.896 -0.2660  0.2338 -0.6694
  577SOL    HW1 8589  10.022   2.277   4.959  0.0435 -0.7122  0.4787
  577SOL    HW2 8590  10.144   2.238   4.878  1.3922 -2.2269  3.1088
  578SOL     OW 8591   8.240   2.677   0.426  0.0876  0.0017 -0.1144
  578SOL    HW1 8592   8.221   2.709   0.339 -0.5648  1.7946  0.6544
  578SOL    HW2 8593   8.163   2.626   0.451 -0.7064  1.3317  0.2397
  579SOL     OW 8594  11.402   7.538   7.564 -0.2842 -0.6613 -0.2259
  579SOL    HW1 8595  11.407   7.472   7.495  2.5646  0.4711 -1.2154
  579SOL    HW2 8596  11.492   7.552   7.591 -0.7191  2.9366 -0.1704
  580SOL     OW 8597  11.248   5.514   4.595  0.1484 -0.3681 -0.1828
  580SOL    HW1 8598  11.327   5.562   4.569 -0.2978  0.6159  0.2077
  580SOL    HW2 8599  11.211   5.483   4.512  0.8838 -0.7593 -0.3768
  581SOL     OW 8600  10.573   2.480   1.436  0.0293 -0.1300  0.0554
  581SOL    HW1 8601  10.493   2.482   1.384  2.2504  0.0924 -3.6887
  581SOL    HW2 8602  10.600   2.388   1.436  0.2229 -0.0782  0.5730
  582SOL     OW 8603   5.812   3.663   1.035 -0.6824  0.1068  0.3231
  582SOL    HW1 8604   5.896   3.624   1.011 -1.5175 -2.1836  0.8792
  582SOL    HW2 8605   5.754   3.644   0.961 -0.9797  0.8452  0.3518
  583SOL     OW 8606   8.771   8.354   0.459 -0.1592  0.3160  0.7057
  583SOL    HW1 8607   8.784   8.445   0.435  0.0240  0.6592  2.0054
  583SOL    HW2 8608   8.836   8.338   0.528  1.2779 -1.4144 -0.9217
  584SOL     OW 8609   1.677  10.960   4.247  0.2109 -0.2963 -0.0664
  584SOL    HW1 8610   1.611  11.014   4.204  1.1976 -0.2501 -1.5963
  584SOL    HW2 8611   1.726  10.920   4.175  0.2291 -2.3617  1.0208
  585SOL     OW 8612  10.774   2.439  10.370 -0.1150 -0.3514 -0.3787
  585SOL    HW1 8613  10.793   2.473  10.458 -1.4011 -0.1594 -0.1614
  585SOL    HW2 8614  10.861   2.422  10.332  0.4547 -1.4760  1.3213
  586SOL     OW 8615  11.311  10.828   1.265  0.7226  0.2421 -0.1552
  586SOL    HW1 8616  11.393  10.876   1.258 -0.5265  2.4366 -0.6312
  586SOL    HW2 8617  11.264  10.850   1.184  0.1497 -1.9805 -0.4869
  587SOL     OW 8618   0.406  11.026   4.889  0.1336 -0.0609  0.2025
  587SOL    HW1 8619   0.487  10.987   4.858  0.1269 -0.2096  0.3650
  587SOL    HW2 8620   0.433  11.087   4.958  0.2673  1.2735 -0.9899
  588SOL     OW 8621   5.075  12.013   9.886  0.0720  0.0294  0.6342
  588SOL    HW1 8622   5.022  12.092   9.875  1.7588  1.3069  1.2698
  588SOL    HW2 8623   5.143  12.020   9.819 -0.3115 -1.4042  0.0605
  589SOL     OW 8624  10.468   1.210   2.719 -0.0047  0.2091 -0.0133
  589SOL    HW1 8625  10.429   1.123   2.707  0.4763 -0.3100  1.8221
  589SOL    HW2 8626  10.401   1.260   2.766  0.1835  0.4269  0.0243
  590SOL     OW 8627  10.117   5.763   9.693 -0.0501 -0.0851 -0.1498
  590SOL    HW1 8628  10.086   5.848   9.660  0.9676  1.3747  2.3395
  590SOL    HW2 8629  10.085   5.760   9.784  1.5684 -1.4833  0.4308
  591SOL     OW 8630   6.965  12.109  12.258  0.4245  0.0261 -0.5047
  591SOL    HW1 8631   7.000  12.153  12.336  0.1768 -0.2014 -0.2627
  591SOL    HW2 8632   7.030  12.041  12.238  1.3144  1.1064 -1.4655
  592SOL     OW 8633   4.129  10.138   2.929  0.6081  0.3096 -0.0297
  592SOL    HW1 8634   4.080  10.088   2.995  1.9036 -2.7043 -1.1653
  592SOL    HW2 8635   4.104  10.229   2.945 -4.0988 -0.7886  0.4656
  593SOL     OW 8636   1.506   5.166  11.676  0.5368  0.5317  0.2040
  593SOL    HW1 8637   1.426   5.211  11.702  0.7109 -0.3802  2.6317
  593SOL    HW2 8638   1.482   5.073  11.673  0.9875  0.4396 -1.3046
  594SOL     OW 8639  10.673   8.390   7.111 -0.2121  0.6102 -0.1741
  594SOL    HW1 8640  10.663   8.467   7.054 -0.5512  1.0572  0.4809
  594SOL    HW2 8641  10.732   8.419   7.180  0.6465 -0.1036 -0.5842
  595SOL     OW 8642   1.514   8.547   5.481  0.3271 -0.6099 -0.4734
  595SOL    HW1 8643   1.469   8.553   5.397 -0.1530  2.9179 -0.0918
  595SOL    HW2 8644   1.606   8.536   5.458  0.0826 -0.8087 -1.3981
  596SOL     OW 8645   1.726   9.859   1.231  0.1017 -0.0958  0.5540
  596SOL    HW1 8646   1.669   9.799   1.279  0.8041 -0.1331  1.3871
  596SOL    HW2 8647   1.720   9.942   1.279  0.9680 -0.1911  0.8508
  597SOL     OW 8648  10.655   5.286  12.111 -0.0400  0.4200 -0.3770
  597SOL    HW1 8649  10.609   5.220  12.059 -2.1371 -0.1727  1.9829
  597SOL    HW2 8650  10.624   5.370  12.077  0.3439  0.1273 -1.4795
  598SOL     OW 8651   0.613   4.499   3.667  0.2495  0.0525  0.2099
  598SOL    HW1 8652   0.668   4.577   3.674  1.8833 -0.9505 -0.9247
  598SOL    HW2 8653   0.568   4.509   3.583 -1.1205  0.6997  0.9754
  599SOL     OW 8654   7.137  10.952   1.966 -0.2634 -0.3938  0.3790
  599SOL    HW1 8655   7.055  10.926   1.924 -0.8137 -0.0337  1.2187
  599SOL    HW2 8656   7.199  10.961   1.893 -1.0684 -0.2723 -0.3053
  600SOL     OW 8657   6.909   9.971   5.246 -0.0643 -0.3080  0.2147
  600SOL    HW1 8658   6.937  10.037   5.309  0.1084  0.5660 -0.7504
  600SOL    HW2 8659   6.814   9.983   5.239  0.1272  0.7957 -0.9644
  601SOL     OW 8660   0.808   7.405   8.582 -0.0332 -0.1617  0.5651
  601SOL    HW1 8661   0.797   7.338   8.650 -0.6086  1.2292  1.9074
  601SOL    HW2 8662   0.723   7.450   8.579  0.3225  0.4758 -0.3383
  602SOL     OW 8663   8.404   3.253   9.540 -0.0795  0.2928 -0.1108
  602SOL    HW1 8664   8.367   3.322   9.596  1.4817  2.0005 -1.0898
  602SOL    HW2 8665   8.497   3.275   9.534  0.0675 -0.7240 -2.1310
  603SOL     OW 8666   9.232   2.390  10.983 -0.3875 -0.3990 -0.3285
  603SOL    HW1 8667   9.277   2.426  11.060  0.4899  1.3259 -1.5537
  603SOL    HW2 8668   9.219   2.298  11.003  1.4883 -0.4103  1.1236
  604SOL     OW 8669   2.073   1.758   4.095 -0.2327 -0.3975  0.4589
  604SOL    HW1 8670   2.087   1.684   4.036 -0.0858 -0.1226  0.1504
  604SOL    HW2 8671   2.146   1.754   4.156 -0.9485 -1.3217  1.2999
  605SOL     OW 8672  10.497   4.159   3.066  0.4728  0.0927  0.5148
  605SOL    HW1 8673  10.552   4.220   3.018 -2.1180  1.8700 -0.3719
  605SOL    HW2 8674  10.493   4.081   3.010  0.3024  0.8018 -0.4825
  606SOL     OW 8675   6.493   5.071   6.745 -0.1884  0.5603 -0.1715
  606SOL    HW1 8676   6.447   5.030   6.819  0.6421 -0.8552 -0.4070
  606SOL    HW2 8677   6.531   4.998   6.697 -0.0256  1.5232 -1.5515
  607SOL     OW 8678   9.033   3.537   6.613 -0.2542 -0.4489  0.3215
  607SOL    HW1 8679   9.099   3.478   6.651 -0.2722 -0.7389 -0.0940
  607SOL    HW2 8680   9.016   3.501   6.526 -0.0713  0.3245 -0.0414
  608SOL     OW 8681  10.474   6.829   2.634 -0.2195 -0.1732  0.2181
  608SOL    HW1 8682  10.385   6.836   2.669 -0.2130  0.8446  0.0523
  608SOL    HW2 8683  10.531   6.851   2.708 -0.1745  0.9076 -0.1171
  609SOL     OW 8684   9.122   4.116   8.160 -0.0330  0.6443 -0.5739
  609SOL    HW1 8685   9.134   4.107   8.254 -1.7545  0.4705 -0.3429
  609SOL    HW2 8686   9.134   4.209   8.143  0.0797  0.7068 -0.1615
  610SOL     OW 8687   6.693  10.972   7.090 -0.2019  0.3189 -0.8805
  610SOL    HW1 8688   6.766  10.936   7.141  0.6098  2.0337 -0.7552
  610SOL    HW2 8689   6.735  11.010   7.013 -1.3289 -1.4346 -2.4268
  611SOL     OW 8690   6.501  10.253   2.336  0.4861 -0.0873  0.0062
  611SOL    HW1 8691   6.470  10.339   2.365 -1.0282 -1.4891  3.0363
  611SOL    HW2 8692   6.432  10.222   2.278 -0.6173 -0.4522  1.4291
  612SOL     OW 8693   6.685   1.949   0.853 -0.1065  0.0279 -0.0667
  612SOL    HW1 8694   6.612   1.983   0.905  1.0871  1.4164  0.7830
  612SOL    HW2 8695   6.762   1.964   0.908  0.8898 -0.9157 -1.1604
  613SOL     OW 8696   6.183  12.324   1.140 -0.4849 -0.1176 -0.3707
  613SOL    HW1 8697   6.232  12.261   1.088 -1.0026 -0.6383 -0.2445
  613SOL    HW2 8698   6.098  12.282   1.156 -0.8993  0.6672 -0.4075
  614SOL     OW 8699   8.716   0.200   8.920  0.7288  0.8974  0.2184
  614SOL    HW1 8700   8.732   0.116   8.963  0.7239  0.4599 -0.6194
  614SOL    HW2 8701   8.734   0.184   8.828  1.7882  2.1053  0.1952
  615SOL     OW 8702   3.423   2.113   1.510  0.1631 -0.7237  0.1446
  615SOL    HW1 8703   3.444   2.155   1.593  0.1646 -0.3322 -0.0516
  615SOL    HW2 8704   3.374   2.034   1.535 -1.1916  0.1759  0.4799
  616SOL     OW 8705  10.015   3.839   1.276  0.2443 -0.0506  0.4036
  616SOL    HW1 8706   9.952   3.814   1.344  0.6344 -0.8394  0.4827
  616SOL    HW2 8707  10.066   3.911   1.315  0.0340 -0.0571  0.6940
  617SOL     OW 8708   2.870   4.900   4.478  0.6765  0.5161 -0.5449
  617SOL    HW1 8709   2.926   4.976   4.460  0.7069  1.0106  1.3585
  617SOL    HW2 8710   2.920   4.825   4.446  0.4878  1.2738 -2.8097
  618SOL     OW 8711  10.747  11.755  10.810 -0.0110 -0.3182  0.3928
  618SOL    HW1 8712  10.819  11.816  10.796 -0.6724  0.3798 -0.0272
  618SOL    HW2 8713  10.768  11.680  10.754  0.9663 -0.6400  1.1533
  619SOL     OW 8714   8.949   0.884   9.735 -0.0464  0.2309  0.0136
  619SOL    HW1 8715   8.926   0.858   9.646  0.9287  1.3779 -0.6023
  619SOL    HW2 8716   8.866   0.881   9.783 -0.5498 -0.6106 -0.8657
  620SOL     OW 8717   6.673   1.773   1.233  0.1587  0.0977 -0.2085
  620SOL    HW1 8718   6.626   1.704   1.279  2.0267  0.3751  2.3871
  620SOL    HW2 8719   6.610   1.844   1.224 -0.8490 -0.7369  0.0469
  621SOL     OW 8720   3.282   0.231   5.930 -0.1579 -0.6804 -0.2135
  621SOL    HW1 8721   3.265   0.263   5.842  3.5822  1.2981 -0.4125
  621SOL    HW2 8722   3.298   0.309   5.982 -2.2686 -1.7897  2.3578
  622SOL     OW 8723   8.042   2.668   3.556 -0.6464  0.2899 -0.2066
  622SOL    HW1 8724   8.099   2.617   3.614 -0.9573 -0.2737 -0.3986
  622SOL    HW2 8725   8.085   2.754   3.552 -0.3117  0.1633  0.3992
  623SOL     OW 8726   9.462   6.187   4.874 -0.2688 -0.1668  0.6442
  623SOL    HW1 8727   9.452   6.202   4.780  0.2645 -0.3192  0.5606
  623SOL    HW2 8728   9.554   6.164   4.885  0.1655  1.7439  1.4478
  624SOL     OW 8729  11.851   8.825   9.829  0.7325  0.0210 -0.4128
  624SOL    HW1 8730  11.828   8.812   9.921  0.2309  0.5047 -0.4681
  624SOL    HW2 8731  11.873   8.737   9.797 -3.3015 -0.9775 -0.9627
  625SOL     OW 8732   6.575   2.966   7.954 -0.2991  0.4272  0.2627
  625SOL    HW1 8733   6.637   2.941   7.886 -2.1430 -1.2798 -0.8977
  625SOL    HW2 8734   6.612   2.930   8.034  0.0058 -0.9643 -0.4691
  626SOL     OW 8735   4.760   1.822   4.291 -0.2519  0.4490  0.0370
  626SOL    HW1 8736   4.771   1.753   4.357  2.0832 -0.2701 -1.0342
  626SOL    HW2 8737   4.811   1.896   4.325  0.7563  0.1587 -0.8091
  627SOL     OW 8738   5.130  11.765   5.843  0.0155  0.0410 -0.0611
  627SOL    HW1 8739   5.060  11.701   5.839  0.3575 -0.3810 -4.3907
  627SOL    HW2 8740   5.205  11.722   5.801  1.5420  1.9038  0.5872
  628SOL     OW 8741   1.515   6.391   1.557  0.1597 -0.4281  1.2202
  628SOL    HW1 8742   1.523   6.327   1.487  0.5712  1.3113 -0.4129
  628SOL    HW2 8743   1.447   6.357   1.614 -0.6947 -1.5678 -0.4194
  629SOL     OW 8744  11.417   6.327   8.333 -0.0099 -0.3679 -0.8726
  629SOL    HW1 8745  11.477   6.394   8.301  0.1507 -0.5660 -0.9911
  629SOL    HW2 8746  11.455   6.245   8.302  0.8518 -0.6818  0.9066
  630SOL     OW 8747   5.394   1.898   6.796  0.1900 -0.0253 -0.3991
  630SOL    HW1 8748   5.347   1.884   6.878 -0.8300  0.5099 -0.8663
  630SOL    HW2 8749   5.438   1.815   6.778  0.4559 -0.1360  0.6953
  631SOL     OW 8750   9.892   4.929   3.311 -0.4626 -0.1389  0.2217
  631SOL    HW1 8751   9.946   4.850   3.307  0.0901  0.1410  1.5527
  631SOL    HW2 8752   9.840   4.927   3.231 -0.0466 -1.5492 -0.0352
  632SOL     OW 8753   3.067   3.890  12.123  0.2163  0.2790 -0.3523
  632SOL    HW1 8754   3.059   3.955  12.054  0.4932  1.1152  0.3839
  632SOL    HW2 8755   2.978   3.882  12.158  0.4400  1.3516  0.5085
  633SOL     OW 8756  10.453   8.780   4.559  0.0358 -0.1124 -0.7422
  633SOL    HW1 8757  10.476   8.719   4.489  0.5907  0.2647 -0.9004
  633SOL    HW2 8758  10.532   8.785   4.613 -0.3012 -0.1975 -0.2375
  634SOL     OW 8759   8.845   7.505   6.646  0.1798 -0.0685  0.0048
  634SOL    HW1 8760   8.872   7.586   6.690  2.2945 -1.3410  1.2816
  634SOL    HW2 8761   8.916   7.487   6.584 -0.4599 -0.7332 -0.5541
  635SOL     OW 8762   6.116  11.661  10.937 -0.9265  0.2687  0.2005
  635SOL    HW1 8763   6.139  11.754  10.933  0.5686 -0.1161 -1.4556
  635SOL    HW2 8764   6.200  11.616  10.948 -1.2973 -0.9897 -1.5997
  636SOL     OW 8765   5.844  12.405  12.139 -0.6130 -0.0685 -0.5540
  636SOL    HW1 8766   5.793  12.481  12.111  0.1645 -0.0290 -1.9946
  636SOL    HW2 8767   5.805  12.331  12.091 -0.6457 -0.3956 -0.0338
  637SOL     OW 8768   3.450   0.374   3.454  0.0481  0.6400 -0.1548
  637SOL    HW1 8769   3.386   0.306   3.432 -1.0716  1.2778  1.0207
  637SOL    HW2 8770   3.492   0.396   3.371 -1.3502  0.2881 -0.9776
  638SOL     OW 8771   6.850   3.239   8.734 -0.1339  0.2818 -0.2641
  638SOL    HW1 8772   6.814   3.298   8.800 -0.8678  0.5615 -0.9018
  638SOL    HW2 8773   6.860   3.293   8.656 -0.3559 -0.3116 -0.7140
  639SOL     OW 8774   1.925   4.115   3.535 -0.2874  0.5152 -0.0285
  639SOL    HW1 8775   1.932   4.105   3.440  0.1529 -0.7817  0.1289
  639SOL    HW2 8776   2.008   4.082   3.569 -0.5373  0.7497  0.8312
  640SOL     OW 8777   7.350   1.809   3.128 -0.3478 -0.1990 -0.4373
  640SOL    HW1 8778   7.295   1.870   3.079 -0.7854 -0.3276 -0.1176
  640SOL    HW2 8779   7.327   1.723   3.093  0.0461 -0.2114 -0.6751
  641SOL     OW 8780   7.478   7.523  10.239 -0.2796 -0.0406  0.0129
  641SOL    HW1 8781   7.555   7.471  10.218  0.3476  0.9523 -0.2263
  641SOL    HW2 8782   7.474   7.589  10.170 -0.8280  0.4586  0.5049
  642SOL     OW 8783   4.469   9.654   1.700  0.2738 -0.3029 -0.0634
  642SOL    HW1 8784   4.504   9.713   1.632  1.1638 -0.2600  0.4181
  642SOL    HW2 8785   4.529   9.580   1.700  0.6367 -0.0249  1.0877
  643SOL     OW 8786   1.235   4.920   4.551  0.1752 -0.2352  0.5351
  643SOL    HW1 8787   1.178   4.862   4.600  0.6221  0.1828  1.5842
  643SOL    HW2 8788   1.318   4.917   4.598  0.7115 -0.0568 -0.3821
  644SOL     OW 8789   1.033   7.443   1.220 -0.5243 -0.3380  0.1568
  644SOL    HW1 8790   1.098   7.512   1.231 -0.1454 -0.4391 -1.2340
  644SOL    HW2 8791   1.076   7.378   1.165 -1.8604 -0.3070 -0.9765
  645SOL     OW 8792  11.221   2.646   3.684 -0.6448 -0.1998  0.6579
  645SOL    HW1 8793  11.190   2.560   3.654  0.1079  0.0639 -1.0415
  645SOL    HW2 8794  11.203   2.704   3.610  5.4043 -0.3944 -1.5798
  646SOL     OW 8795   6.894  11.614   5.126 -0.6597  0.1352 -0.0029
  646SOL    HW1 8796   6.800  11.599   5.135 -0.5268 -1.6932 -1.1602
  646SOL    HW2 8797   6.929  11.604   5.215 -1.1694 -2.5577 -0.0357
  647SOL     OW 8798  12.330   5.521   9.970  0.2432  0.2731  0.2722
  647SOL    HW1 8799  12.349   5.513  10.063 -0.4638  0.6238  0.4540
  647SOL    HW2 8800  12.384   5.594   9.940  0.0780  0.4996  0.5253
  648SOL     OW 8801  12.524   3.168   5.312 -0.2596 -0.2874  0.1507
  648SOL    HW1 8802  12.454   3.176   5.248 -0.5758 -1.0333  0.3898
  648SOL    HW2 8803  12.557   3.257   5.324 -0.0200 -0.1752 -1.2271
  649SOL     OW 8804  11.615   2.397   2.917  0.3073  0.2395 -0.0808
  649SOL    HW1 8805  11.558   2.451   2.862 -0.2592  1.3184  1.4850
  649SOL    HW2 8806  11.701   2.438   2.910  0.1082  0.7290  0.2680
  650SOL     OW 8807   6.644   1.251   3.769  0.4204  0.7161 -0.4046
  650SOL    HW1 8808   6.581   1.323   3.762  0.5337  0.8445 -0.1368
  650SOL    HW2 8809   6.656   1.221   3.679 -0.2589  0.4852 -0.4254
  651SOL     OW 8810   0.844   3.526   3.815 -0.5852  0.0285  0.2896
  651SOL    HW1 8811   0.877   3.601   3.766 -1.0412  0.2981  0.3931
  651SOL    HW2 8812   0.911   3.508   3.880  0.4880 -0.9211 -1.0160
  652SOL     OW 8813   7.526   7.208   4.202 -0.1623 -0.2451 -0.2552
  652SOL    HW1 8814   7.604   7.234   4.153  0.1875 -1.3129 -0.2929
  652SOL    HW2 8815   7.523   7.113   4.193 -1.5404 -0.2136 -0.3498
  653SOL     OW 8816   9.073   3.101   5.655 -0.0327  0.0907 -0.3333
  653SOL    HW1 8817   9.122   3.035   5.606  0.1238  1.1146 -1.6058
  653SOL    HW2 8818   9.138   3.140   5.713 -0.4078 -1.7252  1.4019
  654SOL     OW 8819   8.091   1.234   4.157  0.1333 -0.1698  0.1811
  654SOL    HW1 8820   8.016   1.180   4.137  1.1851 -0.9466 -1.8690
  654SOL    HW2 8821   8.145   1.233   4.078  1.2733  2.1045  0.8148
  655SOL     OW 8822   2.722   4.667  11.253 -0.2219 -0.0326 -0.2908
  655SOL    HW1 8823   2.749   4.665  11.344  0.1160 -0.9231 -0.3988
  655SOL    HW2 8824   2.636   4.709  11.254 -0.0618  0.2869  0.3874
  656SOL     OW 8825   7.839   7.502   8.692  0.3054 -0.0879 -0.1292
  656SOL    HW1 8826   7.754   7.487   8.732 -0.5736 -0.1858 -1.9499
  656SOL    HW2 8827   7.894   7.535   8.763 -1.4648  0.7418  0.8907
  657SOL     OW 8828   8.452   9.030   9.084  0.2749  0.1722 -0.3280
  657SOL    HW1 8829   8.442   9.037   8.989 -0.2484  1.9439 -0.1802
  657SOL    HW2 8830   8.545   9.009   9.096  0.3919  0.1120 -1.2233
  658SOL     OW 8831  10.785   6.854   8.285 -0.3339  0.0001  0.1639
  658SOL    HW1 8832  10.792   6.883   8.376 -2.0064 -0.3617  0.4361
  658SOL    HW2 8833  10.812   6.762   8.287 -0.9675 -0.1899  0.4335
  659SOL     OW 8834   4.915  12.095   8.226  0.3812  0.0880  0.1254
  659SOL    HW1 8835   4.910  12.122   8.134  0.5838  0.2053  0.1500
  659SOL    HW2 8836   4.857  12.155   8.272  0.4355  0.1551  0.1052
  660SOL     OW 8837   7.434   2.617   7.911 -0.6573 -0.3525  0.5223
  660SOL    HW1 8838   7.501   2.570   7.960  2.0452  0.9042 -1.6634
  660SOL    HW2 8839   7.444   2.709   7.938  0.5291  0.2847 -1.8346
  661SOL     OW 8840   6.607   6.320   7.528 -0.0093  0.7225  0.1429
  661SOL    HW1 8841   6.658   6.302   7.449  1.0459  0.3456  0.8770
  661SOL    HW2 8842   6.594   6.234   7.568 -0.6492  0.8935  0.3077
  662SOL     OW 8843   5.879   1.256   6.244  0.3696  0.2471  0.4416
  662SOL    HW1 8844   5.804   1.280   6.298 -1.4604  0.5326 -2.0091
  662SOL    HW2 8845   5.912   1.340   6.211  0.9434  0.0455  0.5026
  663SOL     OW 8846   5.291   1.718   9.720 -0.1494 -0.5994 -0.1845
  663SOL    HW1 8847   5.211   1.747   9.763 -0.5932 -0.6754 -0.9483
  663SOL    HW2 8848   5.261   1.668   9.645  0.6199 -1.5337  0.1196
  664SOL     OW 8849   8.404   6.705   6.680 -0.2570 -0.7141  0.0947
  664SOL    HW1 8850   8.364   6.737   6.761  0.3396  0.5427 -0.0832
  664SOL    HW2 8851   8.496   6.691   6.703  0.1885  0.8159 -0.6516
  665SOL     OW 8852  11.300   7.349  11.638 -0.1437  0.1676 -0.2993
  665SOL    HW1 8853  11.328   7.440  11.641 -1.8554  0.7150  0.5166
  665SOL    HW2 8854  11.326   7.313  11.723  2.8886 -0.9401 -1.5503
  666SOL     OW 8855  11.955  11.707   8.332 -0.4693  0.1980 -0.2915
  666SOL    HW1 8856  11.975  11.798   8.351 -0.5590 -0.0724  1.2424
  666SOL    HW2 8857  11.869  11.692   8.373  0.0758 -0.8608  0.5325
  667SOL     OW 8858   5.958   3.115   1.198 -0.2503 -0.7169 -0.5305
  667SOL    HW1 8859   5.962   3.122   1.293 -2.0623 -0.2521 -0.4396
  667SOL    HW2 8860   6.037   3.067   1.173  0.2658 -0.8143  1.1938
  668SOL     OW 8861   7.473   2.149   8.211 -0.6532  0.3316 -0.1327
  668SOL    HW1 8862   7.529   2.080   8.176 -1.4721 -0.3546 -0.1111
  668SOL    HW2 8863   7.407   2.103   8.264 -0.4022  1.2229  1.0127
  669SOL     OW 8864   2.767   4.670   7.835 -0.3096 -0.7792 -0.0695
  669SOL    HW1 8865   2.829   4.636   7.770 -0.9414  1.0047 -1.6822
  669SOL    HW2 8866   2.793   4.627   7.917  3.0738 -0.1387 -0.6365
  670SOL     OW 8867  11.677   8.500   4.396  0.3028  0.0931  0.5163
  670SOL    HW1 8868  11.723   8.417   4.383  0.7435  0.4998 -0.6770
  670SOL    HW2 8869  11.674   8.511   4.491  0.2526 -1.2740  0.6847
  671SOL     OW 8870   8.893   3.604   5.780  0.1779  0.2619 -0.3119
  671SOL    HW1 8871   8.848   3.523   5.803  2.3239 -0.3179  2.2640
  671SOL    HW2 8872   8.937   3.584   5.697 -0.7213 -0.5780 -0.6110
  672SOL     OW 8873   8.438   0.949   3.763  0.0799 -0.6527 -0.8922
  672SOL    HW1 8874   8.444   1.039   3.795 -0.9342 -0.6466 -0.7072
  672SOL    HW2 8875   8.361   0.912   3.806  1.3406 -2.1105  0.2484
  673SOL     OW 8876   5.811   8.086   0.575 -0.5012  0.5570 -0.0191
  673SOL    HW1 8877   5.795   8.162   0.519 -0.5269  1.2617  0.9255
  673SOL    HW2 8878   5.724   8.050   0.591 -0.7632  1.7668  1.4878
  674SOL     OW 8879   1.314   5.131   5.484 -0.3219 -0.1167 -0.2730
  674SOL    HW1 8880   1.324   5.036   5.487 -0.1293 -0.0915 -0.0869
  674SOL    HW2 8881   1.262   5.148   5.405  2.5929 -0.1163 -2.3224
  675SOL     OW 8882   5.648   5.890   6.639  0.4568  0.1333  0.2122
  675SOL    HW1 8883   5.705   5.905   6.564 -0.9807 -1.4710 -1.2873
  675SOL    HW2 8884   5.609   5.804   6.623 -1.8754  0.8570  1.4571
  676SOL     OW 8885   2.585   4.304  10.599  0.2800  1.6770  0.0152
  676SOL    HW1 8886   2.502   4.274  10.636  0.3863  1.5300  0.1382
  676SOL    HW2 8887   2.561   4.378  10.544 -0.0676  0.9692 -0.8041
  677SOL     OW 8888  12.309   8.303   8.074 -0.3742 -0.0362 -0.1325
  677SOL    HW1 8889  12.379   8.267   8.129 -0.5867  1.0392  0.8977
  677SOL    HW2 8890  12.349   8.312   7.988  0.2835 -0.8512  0.0734
  678SOL     OW 8891   6.339   0.262   7.555  0.4644  0.0552 -0.2283
  678SOL    HW1 8892   6.324   0.342   7.506 -2.4758  0.0181  0.4391
  678SOL    HW2 8893   6.390   0.291   7.632 -1.2564  1.5104  0.4417
  679SOL     OW 8894   7.845   8.488   3.434 -0.0851 -0.3788  0.7215
  679SOL    HW1 8895   7.912   8.434   3.393 -0.4831 -0.8811  0.7218
  679SOL    HW2 8896   7.767   8.474   3.381  0.0691  1.0485  0.0649
  680SOL     OW 8897   6.913   9.400   7.965  0.4016  0.1112 -0.5343
  680SOL    HW1 8898   7.004   9.373   7.948  0.6370  1.0105 -0.7327
  680SOL    HW2 8899   6.880   9.334   8.026  1.0923 -0.3906 -0.6818
  681SOL     OW 8900  10.922  10.911   2.320  0.3732  0.4350 -0.0404
  681SOL    HW1 8901  10.943  10.852   2.247  1.0120  0.2009  0.3218
  681SOL    HW2 8902  10.971  10.991   2.300  0.4601  0.4111  0.0782
  682SOL     OW 8903   2.948  12.111   8.916 -0.2463  0.4863 -0.1838
  682SOL    HW1 8904   3.015  12.075   8.974 -0.2964 -1.2273 -1.1140
  682SOL    HW2 8905   2.989  12.111   8.829 -1.4126 -0.5880 -0.7681
  683SOL     OW 8906   7.254   9.273  11.578  0.3698  0.0654  0.0779
  683SOL    HW1 8907   7.173   9.278  11.528  0.1347  0.7051  0.5160
  683SOL    HW2 8908   7.268   9.362  11.611 -0.8754 -0.7917  3.3323
  684SOL     OW 8909  11.730   4.307  11.826  0.1310  0.4243 -0.1644
  684SOL    HW1 8910  11.805   4.348  11.783 -1.0617  2.1533 -0.6992
  684SOL    HW2 8911  11.741   4.328  11.919  0.2362  0.7850 -0.2584
  685SOL     OW 8912   9.496   3.935   3.055  0.6396  1.0116  0.2220
  685SOL    HW1 8913   9.461   3.855   3.016  1.4836 -0.5646  2.4904
  685SOL    HW2 8914   9.459   4.006   3.002 -0.3014 -0.8460 -1.7433
  686SOL     OW 8915   5.938  11.606   0.583 -0.5893 -0.3362  0.0473
  686SOL    HW1 8916   5.927  11.522   0.537 -0.4979  0.3835 -1.3311
  686SOL    HW2 8917   5.889  11.595   0.665 -2.1551 -1.1028 -0.9433
  687SOL     OW 8918   7.862  11.722   0.216 -0.0522  0.1259 -0.1613
  687SOL    HW1 8919   7.950  11.693   0.191  0.6141  1.5173  0.4210
  687SOL    HW2 8920   7.844  11.676   0.298  0.4291  0.3393  0.0702
  688SOL     OW 8921   2.777  10.818   5.450  0.0779 -0.1920 -0.4098
  688SOL    HW1 8922   2.762  10.887   5.515  0.0853 -0.7234  0.1632
  688SOL    HW2 8923   2.689  10.784   5.431 -0.1089  0.9045 -1.7661
  689SOL     OW 8924   4.357   8.048   6.918  0.8292 -0.3297  0.5258
  689SOL    HW1 8925   4.341   7.964   6.874  1.2356 -0.2073  0.1427
  689SOL    HW2 8926   4.395   8.023   7.002  0.2566 -0.5553  0.7281
  690SOL     OW 8927   4.710   8.117   1.991 -0.2414  0.3241 -0.0147
  690SOL    HW1 8928   4.618   8.119   1.964  0.0742 -0.0546 -1.2149
  690SOL    HW2 8929   4.754   8.068   1.921  0.7848  0.0119  0.8159
  691SOL     OW 8930   7.656   4.841   2.988  1.1206  0.3636 -0.3528
  691SOL    HW1 8931   7.609   4.908   3.037 -0.2331  0.3551 -1.5758
  691SOL    HW2 8932   7.625   4.758   3.024  0.2247  0.3597 -1.0947
  692SOL     OW 8933   2.220   9.534   7.717  0.4545  0.1359 -0.0523
  692SOL    HW1 8934   2.217   9.465   7.651 -0.1669 -0.4328  0.5637
  692SOL    HW2 8935   2.150   9.594   7.693 -0.3177 -0.5114  0.5640
  693SOL     OW 8936   6.186   7.758   7.654  0.1062  0.1763  0.3869
  693SOL    HW1 8937   6.262   7.758   7.712 -0.7458  0.5244  1.5405
  693SOL    HW2 8938   6.221   7.786   7.569  2.1291 -3.9979 -0.3858
  694SOL     OW 8939   3.233   1.512  11.755  0.4884  0.1822 -0.2615
  694SOL    HW1 8940   3.248   1.442  11.818  0.6756  1.1069  0.7453
  694SOL    HW2 8941   3.207   1.467  11.675  1.2596 -1.0693  0.1636
  695SOL     OW 8942   2.282   0.108   8.757  0.0253  0.3658  0.3179
  695SOL    HW1 8943   2.296   0.135   8.848  0.8315  0.0463  0.3029
  695SOL    HW2 8944   2.367   0.122   8.715 -0.5083  1.1067 -0.5528
  696SOL     OW 8945   9.137   7.800   4.353 -0.2435  0.0675 -0.8071
  696SOL    HW1 8946   9.209   7.781   4.412 -0.4102 -0.4066 -0.7538
  696SOL    HW2 8947   9.080   7.859   4.403 -1.1766 -1.5491  0.1057
  697SOL     OW 8948   8.554   0.725  11.395  0.1927  0.3568  0.0867
  697SOL    HW1 8949   8.604   0.804  11.371  0.5162  0.2859  0.5326
  697SOL    HW2 8950   8.569   0.665  11.322 -0.2822  0.8036 -0.3974
  698SOL     OW 8951   4.263   9.442  10.902 -0.2964  0.5372  0.1100
  698SOL    HW1 8952   4.178   9.486  10.914 -0.3143  0.9697 -1.4211
  698SOL    HW2 8953   4.276   9.440  10.808 -0.1977 -2.6029  0.0827
  699SOL     OW 8954   9.271   1.943  10.183  0.2841 -0.2641  0.0565
  699SOL    HW1 8955   9.315   1.952  10.098  0.1492 -0.1536 -0.0021
  699SOL    HW2 8956   9.183   1.914  10.161  0.6384 -1.5335  0.2248
  700SOL     OW 8957   5.592  10.244   3.452 -0.5837  0.1457 -0.1918
  700SOL    HW1 8958   5.557  10.189   3.383  0.4225 -1.5920  0.6279
  700SOL    HW2 8959   5.629  10.183   3.516 -3.5758  1.4373  3.1365
  701SOL     OW 8960   6.353   4.887  11.293  0.2664 -0.5201 -0.2242
  701SOL    HW1 8961   6.430   4.944  11.289  0.4540 -0.8559 -1.6968
  701SOL    HW2 8962   6.285   4.943  11.331  0.9185  0.1245  0.0383
  702SOL     OW 8963   2.431   4.020   0.249  0.5083 -0.8797  0.0830
  702SOL    HW1 8964   2.499   3.955   0.228  2.2702  0.2385  1.9089
  702SOL    HW2 8965   2.476   4.104   0.246 -1.5009  0.2098 -1.2810
  703SOL     OW 8966   9.460  10.478   0.448  0.1441 -0.0879  0.2436
  703SOL    HW1 8967   9.486  10.392   0.482  0.3178  0.0553  0.4758
  703SOL    HW2 8968   9.490  10.477   0.357  1.2060  0.1579  0.5682
  704SOL     OW 8969   9.666   8.125   4.883  0.0037 -0.5102  0.1430
  704SOL    HW1 8970   9.583   8.111   4.929  0.2702 -1.5155  0.3432
  704SOL    HW2 8971   9.641   8.167   4.801 -0.7189 -0.8820  0.1599
  705SOL     OW 8972   1.408   9.052   8.689 -0.2891  0.3924 -0.4893
  705SOL    HW1 8973   1.343   9.112   8.725 -0.2353  0.8652 -1.1463
  705SOL    HW2 8974   1.366   8.966   8.693 -0.9016  0.6646 -0.7446
  706SOL     OW 8975   2.436   5.386   2.053 -0.3497 -0.6566  0.6450
  706SOL    HW1 8976   2.524   5.416   2.028  0.1113 -1.7488  0.8948
  706SOL    HW2 8977   2.449   5.343   2.137 -0.8807 -2.0252  0.0518
  707SOL     OW 8978  11.198   6.758   2.566  0.0063  0.1502  0.0649
  707SOL    HW1 8979  11.110   6.739   2.535 -0.2146 -0.4108  1.0086
  707SOL    HW2 8980  11.198   6.852   2.585 -0.1936  0.2713 -0.5302
  708SOL     OW 8981   5.187   2.795   8.403  0.1780  0.2456 -0.6046
  708SOL    HW1 8982   5.247   2.848   8.456  0.7265 -0.1733 -0.8052
  708SOL    HW2 8983   5.239   2.720   8.375 -0.9802 -1.1565  0.8507
  709SOL     OW 8984  11.499   7.114   6.402 -0.3306 -0.3148  0.3364
  709SOL    HW1 8985  11.586   7.146   6.428  0.8042 -1.2928 -1.9797
  709SOL    HW2 8986  11.510   7.020   6.392 -1.7041 -0.4676  0.0378
  710SOL     OW 8987   2.569   0.582   4.548 -0.3357  0.1107 -0.1914
  710SOL    HW1 8988   2.631   0.626   4.605 -0.3419 -1.7195  1.3694
  710SOL    HW2 8989   2.602   0.596   4.459  0.9826  1.1113  0.4281
  711SOL     OW 8990  11.614   5.649   7.813  0.7868 -0.5327  0.3919
  711SOL    HW1 8991  11.528   5.690   7.814  0.8577 -0.3162 -0.8215
  711SOL    HW2 8992  11.666   5.702   7.873  0.8121  1.0732 -0.9531
  712SOL     OW 8993   9.924   5.392   8.784 -0.1020 -0.2107 -0.4154
  712SOL    HW1 8994   9.967   5.476   8.797 -2.6779  1.1886 -0.3027
  712SOL    HW2 8995   9.911   5.386   8.689 -0.4764 -0.1829 -0.3670
  713SOL     OW 8996   1.835   2.262   9.580 -0.0054  0.3611  0.1422
  713SOL    HW1 8997   1.810   2.176   9.615  0.7578 -0.1119 -0.4313
  713SOL    HW2 8998   1.847   2.317   9.657 -0.8357  0.0576  0.5060
  714SOL     OW 8999   7.916   0.643  10.030  0.9240  0.3470  0.0533
  714SOL    HW1 9000   7.970   0.647   9.951 -0.8577  1.4388 -1.1704
  714SOL    HW2 9001   7.886   0.552  10.035  0.2545  0.4826 -1.1205
  715SOL     OW 9002   0.523   4.696   5.624 -0.3967 -0.3330 -0.3210
  715SOL    HW1 9003   0.618   4.690   5.618 -0.3423 -0.7584  0.7889
  715SOL    HW2 9004   0.496   4.732   5.539  0.4076 -3.7436 -2.2456
  716SOL     OW 9005   9.549   0.991   7.778 -0.2014 -0.4192 -0.1819
  716SOL    HW1 9006   9.632   1.017   7.818 -0.6766  2.2400 -0.7842
  716SOL    HW2 9007   9.517   0.920   7.835  1.6008 -0.2929  1.0832
  717SOL     OW 9008   5.114   9.533   4.129  0.2150  0.4769  0.4028
  717SOL    HW1 9009   5.141   9.618   4.163 -1.1768  1.2239 -0.2611
  717SOL    HW2 9010   5.145   9.470   4.194 -0.8052  1.7084  2.1559
  718SOL     OW 9011   4.584   1.371   2.168  0.1719 -0.4586  0.1704
  718SOL    HW1 9012   4.529   1.293   2.172 -1.2214  0.5479  2.3375
  718SOL    HW2 9013   4.524   1.442   2.147  0.5542  0.6434  2.4703
  719SOL     OW 9014   1.809   6.203  12.382  0.4073  0.0415 -0.0361
  719SOL    HW1 9015   1.739   6.233  12.323  0.6544 -0.4417 -0.5872
  719SOL    HW2 9016   1.821   6.110  12.359  0.7646 -0.0519  0.5218
  720SOL     OW 9017   2.355   7.459   3.049 -0.2199  0.4741  0.2382
  720SOL    HW1 9018   2.444   7.425   3.037 -0.3693  0.4945 -1.0302
  720SOL    HW2 9019   2.356   7.546   3.011 -0.6537  0.6765  0.6743
  721SOL     OW 9020   9.901  10.514   2.342  0.6120  0.3230 -0.0158
  721SOL    HW1 9021   9.895  10.421   2.364  0.0580  0.4443  0.3669
  721SOL    HW2 9022   9.883  10.518   2.248 -1.0703  0.2047  0.2649
  722SOL     OW 9023   9.077   5.866   4.484  0.3012  0.2805  0.2816
  722SOL    HW1 9024   9.163   5.902   4.464  1.5658 -1.8874  1.4182
  722SOL    HW2 9025   9.016   5.918   4.432  2.3621  1.4056 -1.1327
  723SOL     OW 9026   3.307   6.300  10.564 -0.1679  0.3113 -0.8382
  723SOL    HW1 9027   3.266   6.374  10.520 -1.0843 -0.1212 -0.7406
  723SOL    HW2 9028   3.394   6.294  10.525  0.8368  2.8560  0.7512
  724SOL     OW 9029  12.500  10.438   3.621 -0.6472  0.0536 -0.3661
  724SOL    HW1 9030  12.433  10.409   3.559 -0.0137 -0.7047 -0.7150
  724SOL    HW2 9031  12.478  10.393   3.703 -0.5777 -0.1765 -0.4734
  725SOL     OW 9032   3.855   4.426   1.412 -0.2442 -0.4819 -0.3741
  725SOL    HW1 9033   3.808   4.344   1.400 -1.1407 -0.0990  0.3435
  725SOL    HW2 9034   3.788   4.494   1.400  0.0115  0.0718  1.0730
  726SOL     OW 9035  10.515   8.254   9.436 -0.6181 -0.2718  0.0087
  726SOL    HW1 9036  10.435   8.201   9.428 -0.9382 -0.1710  1.9859
  726SOL    HW2 9037  10.519   8.277   9.529  0.6151  1.4703 -0.4263
  727SOL     OW 9038   4.258   0.121   9.030 -0.2818  0.1090 -0.1836
  727SOL    HW1 9039   4.348   0.155   9.027  0.4095 -1.3197  2.2133
  727SOL    HW2 9040   4.252   0.075   9.113 -2.3656 -2.3139 -1.5329
  728SOL     OW 9041   2.726   9.184   3.377 -0.0388  0.5257 -0.0126
  728SOL    HW1 9042   2.667   9.257   3.361  0.1859  0.5483 -0.7749
  728SOL    HW2 9043   2.805   9.224   3.411  0.6440  0.8261 -1.8212
  729SOL     OW 9044   0.585   7.435  12.447 -0.2610  0.1119  0.4539
  729SOL    HW1 9045   0.578   7.471  12.535  0.0275 -1.5391  1.1825
  729SOL    HW2 9046   0.497   7.400  12.428 -0.1138 -0.2468  0.4171
  730SOL     OW 9047   9.386   0.893   7.312  0.3441  0.2917 -0.5175
  730SOL    HW1 9048   9.452   0.897   7.243 -0.4589 -1.4340 -1.4744
  730SOL    HW2 9049   9.357   0.983   7.323  2.9070  1.1266  0.0540
  731SOL     OW 9050   0.003   8.462   6.293  0.0744 -0.1129 -0.6451
  731SOL    HW1 9051   0.049   8.463   6.209  0.0639 -1.0556 -0.6683
  731SOL    HW2 9052  -0.072   8.519   6.280 -0.3081 -0.7951 -1.4990
  732SOL     OW 9053  11.646   1.919   3.665 -0.1296 -0.2675  0.3182
  732SOL    HW1 9054  11.725   1.877   3.631  0.2520  1.2916 -0.8221
  732SOL    HW2 9055  11.604   1.851   3.718  1.6020 -1.3461  0.3837
  733SOL     OW 9056   2.485  10.964   7.312 -0.1922 -0.2401 -0.2985
  733SOL    HW1 9057   2.565  11.011   7.289 -0.1837  0.1637  0.5429
  733SOL    HW2 9058   2.444  10.944   7.227  1.6338 -1.9840 -0.8582
  734SOL     OW 9059   0.154  10.367   8.924 -0.2982  0.7682  0.6292
  734SOL    HW1 9060   0.225  10.307   8.902 -1.7384 -0.9873  0.4998
  734SOL    HW2 9061   0.190  10.424   8.992  1.3798  0.3028  0.1687
  735SOL     OW 9062   5.582  10.398   1.359  0.0370 -0.2181 -0.7167
  735SOL    HW1 9063   5.610  10.489   1.364 -0.1880 -0.0887 -1.6480
  735SOL    HW2 9064   5.658  10.348   1.389  0.7218  0.2035 -1.7250
  736SOL     OW 9065   2.630  12.437   0.890 -0.3194 -0.3495 -0.0270
  736SOL    HW1 9066   2.591  12.352   0.872 -0.1074 -0.6487  0.8840
  736SOL    HW2 9067   2.673  12.427   0.975 -2.0452  1.2399  1.1128
  737SOL     OW 9068   1.743   5.672   1.253  0.2677 -0.1417 -0.1915
  737SOL    HW1 9069   1.655   5.635   1.263  0.6774 -1.2625 -0.5241
  737SOL    HW2 9070   1.748   5.740   1.320 -0.0324 -1.6434  1.4296
  738SOL     OW 9071   3.540   1.023   6.416 -0.0401 -0.2528  0.1674
  738SOL    HW1 9072   3.476   1.076   6.463  0.6797  1.1388 -0.3847
  738SOL    HW2 9073   3.625   1.060   6.441  0.4104 -0.2195 -1.3176
  739SOL     OW 9074   1.423   6.609   7.355 -0.2895 -0.3232  0.2673
  739SOL    HW1 9075   1.414   6.534   7.298  0.5872  1.5600 -2.5641
  739SOL    HW2 9076   1.381   6.681   7.308  2.0442  1.7245  1.0598
  740SOL     OW 9077   8.324   2.153   8.820 -0.4501  0.1031 -0.5983
  740SOL    HW1 9078   8.277   2.141   8.738  0.4182  0.4431 -1.1621
  740SOL    HW2 9079   8.294   2.239   8.851 -1.1993 -0.2704 -0.2628
  741SOL     OW 9080   5.310   9.321  11.855  0.1858 -0.1332 -0.2450
  741SOL    HW1 9081   5.263   9.404  11.850  0.2940 -0.0153  0.5423
  741SOL    HW2 9082   5.279   9.271  11.779 -0.7196  0.1920 -0.1022
  742SOL     OW 9083   7.533  10.750   5.733 -0.0001  0.5468 -0.0422
  742SOL    HW1 9084   7.505  10.781   5.819 -1.0078 -0.6772  0.1007
  742SOL    HW2 9085   7.453  10.742   5.682  0.6195  1.5675 -1.2389
  743SOL     OW 9086  11.823  12.189  11.063 -0.1941 -0.3546  0.4307
  743SOL    HW1 9087  11.820  12.228  11.150 -0.8402 -0.8588  0.6466
  743SOL    HW2 9088  11.788  12.100  11.076 -0.7967 -0.2534 -0.4308
  744SOL     OW 9089   8.377  11.421   3.621 -0.0015  0.1239  0.5213
  744SOL    HW1 9090   8.306  11.466   3.575 -0.1620 -0.3225  0.3184
  744SOL    HW2 9091   8.446  11.411   3.555  0.9390  2.0394  1.1709
  745SOL     OW 9092   2.419   7.511   0.692  0.1380  0.0365 -0.2269
  745SOL    HW1 9093   2.465   7.465   0.621 -0.3781 -0.9139  0.0552
  745SOL    HW2 9094   2.333   7.532   0.655  0.9124  2.3441 -0.9670
  746SOL     OW 9095   6.802   4.993   3.673 -0.6327  0.4281  0.0961
  746SOL    HW1 9096   6.863   5.038   3.615  3.5213 -2.2820  1.9153
  746SOL    HW2 9097   6.776   4.914   3.626 -2.7450  1.4304 -0.5578
  747SOL     OW 9098  11.417   3.681   0.435 -0.2294  0.6512 -0.6098
  747SOL    HW1 9099  11.426   3.609   0.373 -0.5883  0.9152 -0.9678
  747SOL    HW2 9100  11.408   3.637   0.520  4.5491  0.2664 -0.0467
  748SOL     OW 9101   0.761  10.111   1.877  0.1112 -0.1193 -0.3758
  748SOL    HW1 9102   0.836  10.140   1.929  0.8671 -1.6295 -0.5453
  748SOL    HW2 9103   0.797  10.043   1.820 -1.3687 -0.8257 -0.5185
  749SOL     OW 9104   6.917  12.136   1.289  0.2299 -0.1771  0.2426
  749SOL    HW1 9105   7.004  12.156   1.323  0.0944  0.6361  0.1185
  749SOL    HW2 9106   6.883  12.069   1.348  0.8651 -0.3646  0.4036
  750SOL     OW 9107   3.598  10.639   3.919  0.3953  0.0358 -0.9876
  750SOL    HW1 9108   3.530  10.706   3.908 -2.1189 -1.5945  2.4837
  750SOL    HW2 9109   3.650  10.670   3.992  0.2326 -1.0170 -0.4176
  751SOL     OW 9110  11.430   0.697   0.890 -0.0033  0.1312  0.4270
  751SOL    HW1 9111  11.357   0.635   0.892  0.1705 -0.1171 -0.4188
  751SOL    HW2 9112  11.508   0.643   0.906  0.3559 -0.2429 -2.1495
  752SOL     OW 9113   9.904  12.343   2.664 -0.8996 -0.1905  0.2871
  752SOL    HW1 9114   9.846  12.288   2.718 -0.5288 -0.8102  0.0593
  752SOL    HW2 9115   9.845  12.387   2.603 -1.2759  0.1959  0.9207
  753SOL     OW 9116   9.163   8.814   5.810  0.4640 -0.1648 -0.0232
  753SOL    HW1 9117   9.185   8.855   5.727  2.9947 -0.1950  0.5471
  753SOL    HW2 9118   9.134   8.726   5.787 -2.0372  0.8402 -1.0348
  754SOL     OW 9119   1.958   3.938   3.931 -0.0911 -0.3777 -0.3624
  754SOL    HW1 9120   2.036   3.919   3.983  1.0557  0.8116 -1.5840
  754SOL    HW2 9121   1.889   3.886   3.972  0.7748  0.3826  2.2316
  755SOL     OW 9122   8.636  10.580   7.460  0.5798 -0.4599  0.2572
  755SOL    HW1 9123   8.688  10.503   7.483 -1.2423 -1.7254  0.3928
  755SOL    HW2 9124   8.642  10.637   7.537  1.9373 -0.4546  0.1637
  756SOL     OW 9125   2.140   4.624   6.484 -0.4690 -0.1538 -0.7550
  756SOL    HW1 9126   2.213   4.654   6.429 -0.9352  1.3468 -0.6028
  756SOL    HW2 9127   2.175   4.547   6.530  1.5460  1.3552  0.3978
  757SOL     OW 9128  12.132   8.746   8.928  0.0667  0.2533  0.5431
  757SOL    HW1 9129  12.158   8.696   9.005 -1.4901 -1.4446  0.0511
  757SOL    HW2 9130  12.211   8.749   8.874  0.6659 -0.1735  1.3788
  758SOL     OW 9131   5.716   2.949   4.895  0.1395  0.1851  0.0212
  758SOL    HW1 9132   5.783   2.881   4.898  0.9932  0.9299 -1.5232
  758SOL    HW2 9133   5.725   2.995   4.979  0.7782 -0.4326  0.3011
  759SOL     OW 9134   3.803   0.322   2.217  0.2973  0.1222  0.1163
  759SOL    HW1 9135   3.840   0.391   2.272  0.8498  0.1139 -0.2417
  759SOL    HW2 9136   3.837   0.240   2.254 -1.0316 -0.0376  1.0679
  760SOL     OW 9137   0.746   3.600   2.269  0.3053 -0.1441  0.2303
  760SOL    HW1 9138   0.711   3.606   2.180  1.4250 -0.0489 -0.2148
  760SOL    HW2 9139   0.696   3.529   2.309  0.1874 -0.5865 -0.6656
  761SOL     OW 9140   5.790   7.820   6.080 -0.1781 -0.1251 -0.2245
  761SOL    HW1 9141   5.811   7.763   6.154 -0.3087  2.1430  1.6813
  761SOL    HW2 9142   5.874   7.853   6.049 -0.2346  1.6785  1.3265
  762SOL     OW 9143   1.132   6.015   7.370 -0.2240  0.3096  0.2185
  762SOL    HW1 9144   1.212   5.964   7.354  0.0964  0.8794 -0.0283
  762SOL    HW2 9145   1.093   5.975   7.448 -1.0039 -1.5467 -1.0495
  763SOL     OW 9146   5.209   1.226   0.119  0.0621 -0.1366  0.2033
  763SOL    HW1 9147   5.301   1.254   0.121  0.3181 -0.9079 -0.3993
  763SOL    HW2 9148   5.213   1.133   0.098 -0.8236 -0.3894  1.1281
  764SOL     OW 9149   8.768   0.060  11.689 -0.3581 -0.9316 -0.4166
  764SOL    HW1 9150   8.792  -0.026  11.724  2.9742  0.3029  0.6610
  764SOL    HW2 9151   8.725   0.104  11.763  0.6744 -0.6461  0.0278
  765SOL     OW 9152   2.441   2.775   6.561  0.1457  0.2238  0.2537
  765SOL    HW1 9153   2.504   2.709   6.535 -0.1490 -0.1982  0.6066
  765SOL    HW2 9154   2.426   2.760   6.654 -0.0175  0.7076  0.3117
  766SOL     OW 9155   5.813   5.978   6.435  0.5526 -0.1967  0.6170
  766SOL    HW1 9156   5.861   6.060   6.450  2.2035 -0.6564 -1.5754
  766SOL    HW2 9157   5.774   5.989   6.348  2.2250 -2.3202 -0.4766
  767SOL     OW 9158   4.943   4.078   1.331 -0.4726 -0.6884  0.0063
  767SOL    HW1 9159   4.996   4.148   1.369  0.7397  0.2425 -3.1241
  767SOL    HW2 9160   4.963   4.001   1.385  3.1077 -0.0902 -0.2113
  768SOL     OW 9161   1.089   3.270  12.275 -0.1469 -0.1891  0.6555
  768SOL    HW1 9162   1.067   3.177  12.282  0.9309 -0.5504 -0.3767
  768SOL    HW2 9163   1.010   3.316  12.303 -1.3236 -1.4166 -0.5297
  769SOL     OW 9164  10.783   7.591   0.663 -0.3419  0.1047 -0.6732
  769SOL    HW1 9165  10.874   7.588   0.690 -0.1353  0.8368 -1.2346
  769SOL    HW2 9166  10.769   7.681   0.634 -0.9682 -0.2353 -1.5015
  770SOL     OW 9167   5.289   2.381  11.471 -0.2058 -0.6251 -0.3699
  770SOL    HW1 9168   5.342   2.457  11.491  0.7291 -0.9038 -1.7146
  770SOL    HW2 9169   5.343   2.306  11.496 -0.6114 -0.8788 -0.2336
  771SOL     OW 9170   9.602  12.120   8.920  0.0254 -0.0393  0.4470
  771SOL    HW1 9171   9.646  12.148   8.839 -1.7164 -0.6904 -0.7736
  771SOL    HW2 9172   9.643  12.036   8.941 -0.6013 -0.6598 -0.7015
  772SOL     OW 9173   8.228   0.723  10.054  0.2099 -0.3158 -0.0996
  772SOL    HW1 9174   8.190   0.700  10.138  0.1184 -0.2236 -0.1160
  772SOL    HW2 9175   8.200   0.653   9.995 -1.3030  0.5842 -0.5048
  773SOL     OW 9176   6.734   6.875   2.749  0.0745 -0.8493  0.7154
  773SOL    HW1 9177   6.773   6.866   2.662  1.1797 -1.6577  1.2707
  773SOL    HW2 9178   6.655   6.927   2.734  0.3555 -0.7836 -0.7340
  774SOL     OW 9179   7.773   7.435  12.065  0.1020  0.0490  0.0666
  774SOL    HW1 9180   7.841   7.501  12.060 -0.6882  0.8387 -0.8006
  774SOL    HW2 9181   7.704   7.475  12.118 -0.6165  0.1689 -0.9252
  775SOL     OW 9182   4.566  10.798   4.798 -0.2953  0.3076 -0.2836
  775SOL    HW1 9183   4.591  10.722   4.850 -0.2095  1.2593  1.1305
  775SOL    HW2 9184   4.488  10.770   4.750 -0.3072 -0.6345  0.2720
  776SOL     OW 9185   4.761   3.520   8.074 -1.0647  0.0083  0.2991
  776SOL    HW1 9186   4.701   3.507   8.001  1.0195  0.6371 -1.6390
  776SOL    HW2 9187   4.805   3.436   8.084  0.7699  0.7227 -1.2507
  777SOL     OW 9188   8.246  10.477   3.433 -0.1824  0.1567  0.3479
  777SOL    HW1 9189   8.221  10.563   3.400 -0.1762 -0.2902 -0.8926
  777SOL    HW2 9190   8.202  10.469   3.517  1.3581  2.1486  1.4438
  778SOL     OW 9191   7.405   0.062   2.753  0.1049  0.3946 -0.3097
  778SOL    HW1 9192   7.477   0.121   2.776 -0.2361  0.3537  0.9731
  778SOL    HW2 9193   7.363   0.102   2.678  0.6636  1.1106 -0.2460
  779SOL     OW 9194   5.261  10.152   2.570 -0.2067 -0.2187  0.3247
  779SOL    HW1 9195   5.186  10.168   2.513  0.0350  0.4097  0.1721
  779SOL    HW2 9196   5.294  10.240   2.591 -0.0947 -0.4512  1.1621
  780SOL     OW 9197  10.244   8.138   2.883 -0.5528 -0.0232  0.1343
  780SOL    HW1 9198  10.215   8.124   2.792  0.2014 -1.2007  0.0648
  780SOL    HW2 9199  10.197   8.072   2.934  0.0135 -0.2186  0.4069
  781SOL     OW 9200  12.133   2.736  11.793 -0.4157 -0.1885  0.1885
  781SOL    HW1 9201  12.177   2.681  11.728  0.9200 -0.0698  0.9588
  781SOL    HW2 9202  12.067   2.784  11.742 -2.4647 -3.2615 -0.3478
  782SOL     OW 9203   6.825  11.168   7.888  0.1620 -0.2421  0.0392
  782SOL    HW1 9204   6.762  11.105   7.853 -0.9527  1.0266 -0.2757
  782SOL    HW2 9205   6.908  11.143   7.847 -0.4224 -0.9723 -0.7437
  783SOL     OW 9206   8.529   3.166   8.629  0.2639 -0.1951 -0.3175
  783SOL    HW1 9207   8.535   3.110   8.552  0.0310  0.9389 -1.1972
  783SOL    HW2 9208   8.581   3.243   8.607  0.0907  0.2040  0.6154
  784SOL     OW 9209   8.940   2.994   8.078 -0.5121 -0.0427  0.2610
  784SOL    HW1 9210   8.949   2.904   8.107 -1.6304 -0.7688 -1.4688
  784SOL    HW2 9211   8.854   2.998   8.035 -0.4293  1.7988  0.1599
  785SOL     OW 9212   2.898   8.607  10.667 -1.1374 -0.0031  0.3955
  785SOL    HW1 9213   2.919   8.539  10.604 -0.4546 -0.7786  1.4276
  785SOL    HW2 9214   2.810   8.584  10.699 -1.9842  1.0296 -1.0490
  786SOL     OW 9215   9.210  12.180  11.934  0.2749  0.0417 -0.4319
  786SOL    HW1 9216   9.152  12.250  11.966  0.0612 -1.0061  1.6147
  786SOL    HW2 9217   9.252  12.218  11.857 -0.4569  2.1208  0.1174
  787SOL     OW 9218  10.137   9.271   7.167  0.0625  0.0693  0.1528
  787SOL    HW1 9219  10.136   9.277   7.072  0.2501  0.7080  0.1861
  787SOL    HW2 9220  10.082   9.344   7.196  2.0590  1.4543  0.5951
  788SOL     OW 9221   8.658   5.166   6.169  0.1499 -0.0149 -0.2495
  788SOL    HW1 9222   8.700   5.138   6.251  0.3775  0.4943 -0.1875
  788SOL    HW2 9223   8.729   5.170   6.105 -0.5260 -3.9873 -1.5017
  789SOL     OW 9224  11.728   1.088   8.886 -0.0426  0.4250 -0.0366
  789SOL    HW1 9225  11.806   1.140   8.908  0.6601 -0.4878 -0.3133
  789SOL    HW2 9226  11.762   1.010   8.842 -0.9410 -0.9895  1.6183
  790SOL     OW 9227   2.380   1.054   5.132 -0.4834  0.0119 -0.2821
  790SOL    HW1 9228   2.294   1.050   5.090  0.7024 -2.9827 -2.8352
  790SOL    HW2 9229   2.417   0.967   5.119  2.6251  0.9071  1.4980
  791SOL     OW 9230  10.585   8.026  10.224 -0.3300  0.5977 -0.1821
  791SOL    HW1 9231  10.622   7.993  10.306  1.4741  0.9156 -0.8185
  791SOL    HW2 9232  10.551   7.948  10.180 -0.8920  0.3622  0.6391
  792SOL     OW 9233   7.857   6.758  10.187 -0.1848  0.0924  0.2296
  792SOL    HW1 9234   7.889   6.846  10.204  1.0740  0.0734 -1.7493
  792SOL    HW2 9235   7.903   6.730  10.107 -2.4801 -1.3416 -0.7107
  793SOL     OW 9236   7.380   8.574  10.747 -0.7439 -0.2663 -0.1876
  793SOL    HW1 9237   7.366   8.602  10.656  1.6690 -1.4411 -1.0303
  793SOL    HW2 9238   7.453   8.627  10.777 -1.9548  0.5944  1.3692
  794SOL     OW 9239   8.948  11.146   4.649  0.5644  0.3031 -0.2996
  794SOL    HW1 9240   8.903  11.090   4.586  0.9520 -0.2588 -0.0866
  794SOL    HW2 9241   9.030  11.169   4.606  0.8061 -0.0382 -0.0283
  795SOL     OW 9242  11.230   0.330  10.324  0.2577 -0.7565 -0.1524
  795SOL    HW1 9243  11.244   0.294  10.411  0.1252 -0.4737 -0.0123
  795SOL    HW2 9244  11.175   0.407  10.339 -0.1605 -0.9755 -0.5295
  796SOL     OW 9245  11.915  10.647  12.549  0.8364  0.2733 -0.0406
  796SOL    HW1 9246  11.974  10.614  12.482 -0.4168  0.4983 -1.2978
  796SOL    HW2 9247  11.855  10.705  12.503  1.4132  2.3974  1.6944
  797SOL     OW 9248   1.997   1.894  11.979  0.0440 -0.0122  0.0513
  797SOL    HW1 9249   1.949   1.812  11.970 -3.4110  1.6688  1.3856
  797SOL    HW2 9250   1.987   1.937  11.894  3.3353 -1.4910 -1.2661
  798SOL     OW 9251   4.151   0.609  11.150  0.2438  0.4492 -0.0550
  798SOL    HW1 9252   4.171   0.592  11.058  2.7381  1.5494  0.2175
  798SOL    HW2 9253   4.071   0.558  11.166  1.3130 -2.0975 -2.0544
  799SOL     OW 9254  10.132   0.370   1.828  0.1129  0.2437  0.5456
  799SOL    HW1 9255  10.213   0.420   1.833  0.9351 -1.0928  1.3396
  799SOL    HW2 9256  10.129   0.322   1.910 -0.0251 -1.8900 -0.6370
  800SOL     OW 9257   4.307   0.125  10.530 -0.3974 -0.1745 -0.0110
  800SOL    HW1 9258   4.243   0.185  10.493 -0.2498 -0.3477 -0.5569
  800SOL    HW2 9259   4.264   0.089  10.607 -0.0028  1.6175  1.1217
  801SOL     OW 9260   7.827   4.082  11.543  0.5031  0.0403 -0.1206
  801SOL    HW1 9261   7.762   4.152  11.542 -0.1241 -0.4095  2.1663
  801SOL    HW2 9262   7.806   4.029  11.466  0.0844  1.5408 -1.0805
  802SOL     OW 9263   9.208   7.709   0.504  0.2374  0.1224 -0.0134
  802SOL    HW1 9264   9.160   7.627   0.499  1.5880 -0.6543 -0.9743
  802SOL    HW2 9265   9.271   7.695   0.574 -0.3763  0.8326  0.6948
  803SOL     OW 9266  12.510   6.582   3.698  0.6525 -0.0454 -0.2393
  803SOL    HW1 9267  12.455   6.520   3.745 -0.4100  1.1598  0.1812
  803SOL    HW2 9268  12.462   6.600   3.617  0.9294  0.2453 -0.3421
  804SOL     OW 9269   2.878   5.433   6.978  0.4293  0.0271  0.3802
  804SOL    HW1 9270   2.835   5.497   7.034  1.1448  0.7593  0.1054
  804SOL    HW2 9271   2.888   5.356   7.033 -0.4140  0.1506  0.7193
  805SOL     OW 9272   1.304   2.545   3.640 -0.1496  0.0431  0.2551
  805SOL    HW1 9273   1.383   2.599   3.629 -0.7621  0.5980 -1.7816
  805SOL    HW2 9274   1.330   2.458   3.608 -0.3305  0.2219 -0.4010
  806SOL     OW 9275   9.489   3.735   7.565 -0.3151  0.2184  0.4825
  806SOL    HW1 9276   9.415   3.727   7.626  1.4707 -1.3714  2.6152
  806SOL    HW2 9277   9.498   3.648   7.527  1.2626 -0.0303  1.3356
  807SOL     OW 9278   1.972   5.772  11.801 -0.4200  0.1918  0.5046
  807SOL    HW1 9279   1.976   5.697  11.860  1.4545 -1.0713 -1.0901
  807SOL    HW2 9280   1.886   5.766  11.759 -0.7982 -0.2982  1.3421
  808SOL     OW 9281  12.045   9.229   0.732  0.0364 -0.0131 -0.8901
  808SOL    HW1 9282  12.063   9.185   0.648 -1.1239 -0.4360 -0.9356
  808SOL    HW2 9283  11.965   9.188   0.764  0.8922 -0.4371  0.8461
  809SOL     OW 9284   1.377   1.814   2.578 -0.0054 -0.0917  0.0665
  809SOL    HW1 9285   1.342   1.764   2.651 -1.3773  0.7294  0.0033
  809SOL    HW2 9286   1.470   1.824   2.598 -0.3573  0.1384  1.7290
  810SOL     OW 9287   7.370   8.019  11.540 -0.2748  0.1970  0.1823
  810SOL    HW1 9288   7.433   8.018  11.468  1.1270  0.0139  1.3589
  810SOL    HW2 9289   7.287   7.994  11.500  0.3454  0.6307 -1.4560
  811SOL     OW 9290   0.051   6.186   6.831  0.0523  0.1972 -0.0101
  811SOL    HW1 9291  -0.003   6.228   6.899 -2.3004 -1.0950 -0.9675
  811SOL    HW2 9292   0.004   6.106   6.809  1.0078  0.3094 -2.7973
  812SOL     OW 9293   7.021   8.356   9.792 -0.2727 -0.1151 -0.0880
  812SOL    HW1 9294   7.003   8.444   9.759 -0.3056 -0.5218 -1.2002
  812SOL    HW2 9295   7.092   8.369   9.855 -1.5663  0.9390  1.1946
  813SOL     OW 9296   5.849   8.892   8.654 -0.1396  1.1951 -0.1261
  813SOL    HW1 9297   5.852   8.833   8.579 -0.6859 -1.0669  1.4855
  813SOL    HW2 9298   5.936   8.884   8.694 -0.0719  1.8414 -0.1438
  814SOL     OW 9299   9.960   5.013  10.721 -0.1811 -0.2640  0.1251
  814SOL    HW1 9300   9.886   5.063  10.686 -0.5647 -1.7838 -1.3340
  814SOL    HW2 9301   9.980   4.948  10.653  3.4079  0.9307 -0.2015
  815SOL     OW 9302   4.495   5.123   9.690 -0.0442  0.3433  0.0728
  815SOL    HW1 9303   4.433   5.196   9.685  1.1759  1.4081 -0.3338
  815SOL    HW2 9304   4.464   5.070   9.763 -0.7657  1.4957  0.6417
  816SOL     OW 9305   4.429   4.813   9.111  0.3968  0.1752 -0.4112
  816SOL    HW1 9306   4.353   4.770   9.073  0.1460  0.5446 -0.3314
  816SOL    HW2 9307   4.400   4.842   9.197 -0.1997  2.5671 -1.3387
  817SOL     OW 9308   2.093   9.301   0.138 -0.0968 -0.2520 -0.0291
  817SOL    HW1 9309   2.064   9.211   0.127  0.2698 -0.3337 -0.3664
  817SOL    HW2 9310   2.188   9.295   0.148 -0.0590  0.1004 -0.1359
  818SOL     OW 9311   4.204   0.279   1.107 -0.1236 -0.1836 -0.1067
  818SOL    HW1 9312   4.278   0.222   1.125 -1.2605 -1.2380  1.4212
  818SOL    HW2 9313   4.240   0.368   1.112  0.9821 -0.6666  0.8422
  819SOL     OW 9314   7.365  10.285   8.825  0.1203 -0.2077 -0.6799
  819SOL    HW1 9315   7.291  10.341   8.802 -0.7880 -0.9638  0.3098
  819SOL    HW2 9316   7.365  10.218   8.757 -1.7684 -1.7003  0.6854
  820SOL     OW 9317   6.291   4.028   8.592  0.0429  0.1832  0.2994
  820SOL    HW1 9318   6.323   4.103   8.643 -0.2073 -0.6786  1.7741
  820SOL    HW2 9319   6.207   4.058   8.556 -0.1849  0.5254  1.0913
  821SOL     OW 9320   4.107   7.057   3.731  0.5305 -0.1025  0.2021
  821SOL    HW1 9321   4.046   6.994   3.768 -1.4170  0.9161 -1.0694
  821SOL    HW2 9322   4.094   7.137   3.782  0.4427  0.2668 -0.3895
  822SOL     OW 9323   6.076   1.143   9.730  0.4039  0.3349  0.6634
  822SOL    HW1 9324   5.994   1.112   9.692  0.7857 -0.3584  0.3901
  822SOL    HW2 9325   6.114   1.199   9.661  0.1380  0.6999  0.8110
  823SOL     OW 9326   7.783   4.128   7.551  0.2098 -0.4475 -1.3497
  823SOL    HW1 9327   7.854   4.166   7.499  1.1364 -0.0689  0.1571
  823SOL    HW2 9328   7.794   4.033   7.540  1.5993 -0.4356 -0.3495
  824SOL     OW 9329   1.474   9.371  11.559 -0.3742  0.0551 -1.1668
  824SOL    HW1 9330   1.550   9.314  11.566 -0.8183 -0.3872  2.8134
  824SOL    HW2 9331   1.505   9.448  11.512  1.9605 -0.9196 -1.3630
  825SOL     OW 9332   9.282   2.752   4.386 -0.5515 -0.1476  0.3329
  825SOL    HW1 9333   9.218   2.822   4.379  0.5947  1.0315  1.2209
  825SOL    HW2 9334   9.255   2.703   4.464 -1.4816 -0.8675 -0.4146
  826SOL     OW 9335   6.157   0.158   0.500 -0.1348 -0.2877 -0.2120
  826SOL    HW1 9336   6.157   0.141   0.406  1.9955 -2.2211  0.0603
  826SOL    HW2 9337   6.249   0.162   0.524 -0.6365  0.3885  1.7929
  827SOL     OW 9338   9.239   0.548  10.396 -0.4686 -0.4886 -0.2989
  827SOL    HW1 9339   9.203   0.516  10.478 -0.2435 -0.4879 -0.1971
  827SOL    HW2 9340   9.326   0.581  10.420  0.1915 -1.8134 -0.7863
  828SOL     OW 9341  11.530   0.936  12.045 -0.0501 -0.5697 -0.5687
  828SOL    HW1 9342  11.572   0.984  12.116  1.3388 -1.0924 -1.0030
  828SOL    HW2 9343  11.448   0.903  12.083 -0.3410  0.9045  0.1478
  829SOL     OW 9344   4.409  10.418   1.303  0.9052  0.1978 -0.0159
  829SOL    HW1 9345   4.412  10.380   1.216  3.2664  1.1457 -0.4453
  829SOL    HW2 9346   4.501  10.432   1.326  0.2816  2.0200  1.7018
  830SOL     OW 9347  10.898   7.305   6.727 -0.6516  0.1304  0.3495
  830SOL    HW1 9348  10.992   7.292   6.714  0.1141  1.6365  3.3752
  830SOL    HW2 9349  10.884   7.398   6.710 -2.5384 -0.7000 -3.9540
  831SOL     OW 9350   9.098   7.199   5.478  0.1794 -0.0276 -0.3683
  831SOL    HW1 9351   9.067   7.163   5.561  0.8800 -1.0285 -0.5174
  831SOL    HW2 9352   9.037   7.270   5.458  0.9157  1.3427  1.8262
  832SOL     OW 9353   2.997   9.157  10.552  0.9376 -0.0357 -0.1369
  832SOL    HW1 9354   2.942   9.234  10.568  1.5360  0.4914 -0.5709
  832SOL    HW2 9355   2.936   9.083  10.552  0.3162  0.4726 -0.0096
  833SOL     OW 9356   8.321   3.324   8.442  0.4587  0.9530 -0.2056
  833SOL    HW1 9357   8.289   3.411   8.464 -0.6968  0.1420  1.5750
  833SOL    HW2 9358   8.401   3.339   8.393  0.3201  3.0082  0.1283
  834SOL     OW 9359   4.676   9.310  10.717 -0.4808 -0.1479  0.2416
  834SOL    HW1 9360   4.731   9.384  10.690  1.4152 -1.9413 -1.1977
  834SOL    HW2 9361   4.738   9.248  10.756 -1.9911 -1.0162  1.3453
  835SOL     OW 9362  10.076   9.293   8.867 -0.4594  0.3457 -0.6653
  835SOL    HW1 9363  10.022   9.348   8.811  1.0251  0.5873 -1.9159
  835SOL    HW2 9364  10.100   9.218   8.813 -0.8198 -0.5569  0.3744
  836SOL     OW 9365  12.508   0.712   2.007 -0.6111 -1.0045 -0.4843
  836SOL    HW1 9366  12.457   0.633   2.023 -1.2745 -0.2168  1.5350
  836SOL    HW2 9367  12.470   0.778   2.065  0.3173  0.6553 -1.6615
  837SOL     OW 9368  11.654   0.403   3.592  0.3354 -0.8718 -0.6821
  837SOL    HW1 9369  11.669   0.308   3.590 -1.1740 -1.1585 -0.3413
  837SOL    HW2 9370  11.727   0.441   3.545  1.0965 -2.1990 -0.6084
  838SOL     OW 9371   2.681   3.776   6.199 -0.1399 -0.3912 -0.2013
  838SOL    HW1 9372   2.685   3.817   6.112 -1.2439 -1.7754 -0.9431
  838SOL    HW2 9373   2.633   3.694   6.185  1.6603 -1.8104  1.2603
  839SOL     OW 9374  12.400   6.502  10.862 -0.2010  0.3046  0.0996
  839SOL    HW1 9375  12.307   6.503  10.837 -1.0266 -2.0394  2.5870
  839SOL    HW2 9376  12.447   6.496  10.779 -2.1093  2.8137 -1.3357
  840SOL     OW 9377   2.232   9.263   4.187  0.3849  0.5317 -0.1745
  840SOL    HW1 9378   2.209   9.338   4.243 -0.6801  1.2538 -1.5151
  840SOL    HW2 9379   2.220   9.187   4.243  1.2308  1.3228  1.1471
  841SOL     OW 9380   9.841   3.914   3.232  0.6231  0.0239  0.0429
  841SOL    HW1 9381   9.875   3.998   3.261  0.0883  0.4303 -0.4690
  841SOL    HW2 9382   9.812   3.870   3.312 -0.2951  0.8797  0.1981
  842SOL     OW 9383   0.223   2.295   2.526 -0.0050 -0.0238  0.0767
  842SOL    HW1 9384   0.271   2.320   2.605 -0.7897  1.5725  0.0852
  842SOL    HW2 9385   0.292   2.265   2.466  0.7548  0.0735  0.8731
  843SOL     OW 9386   4.870   9.094   2.196 -0.4830 -0.0266 -0.5720
  843SOL    HW1 9387   4.959   9.116   2.222 -0.7985  1.4626 -0.6039
  843SOL    HW2 9388   4.878   9.010   2.151  0.5866 -0.8930  1.1286
  844SOL     OW 9389   8.266  12.329  11.373  0.2143 -0.5428 -0.8278
  844SOL    HW1 9390   8.314  12.263  11.323 -0.3176 -0.5479 -1.3416
  844SOL    HW2 9391   8.223  12.384  11.307 -0.1445 -0.2816 -0.3902
  845SOL     OW 9392   4.059  12.555   3.182 -0.2598  0.2404 -0.4993
  845SOL    HW1 9393   4.093  12.626   3.236  0.5534 -0.2276 -0.3780
  845SOL    HW2 9394   4.116  12.553   3.105 -0.8472  0.3099 -0.9431
  846SOL     OW 9395   3.018   7.801   6.690  0.0927 -0.0139 -0.9571
  846SOL    HW1 9396   3.099   7.762   6.657  1.4392 -0.0541  2.1140
  846SOL    HW2 9397   2.978   7.731   6.743 -0.2550  1.0128  0.1748
  847SOL     OW 9398   8.014   5.954   0.473 -0.0159 -0.2932  0.1571
  847SOL    HW1 9399   8.002   5.861   0.453  0.9468 -0.4336  0.2036
  847SOL    HW2 9400   8.069   5.955   0.551  0.7359  0.3166 -0.3667
  848SOL     OW 9401   7.975  11.913   7.640 -0.3504 -0.4201 -0.0751
  848SOL    HW1 9402   8.053  11.963   7.666 -0.3738 -0.4263  0.0077
  848SOL    HW2 9403   7.985  11.829   7.685 -0.1538 -0.6071 -0.4608
  849SOL     OW 9404   8.086   7.879   3.312 -0.4322  0.2979 -0.2833
  849SOL    HW1 9405   8.080   7.905   3.220  2.2301  1.1837 -0.2758
  849SOL    HW2 9406   8.179   7.869   3.328 -0.9309 -1.9963  1.7812
  850SOL     OW 9407   3.352   3.403  11.971  0.1493 -0.3885  0.1622
  850SOL    HW1 9408   3.266   3.446  11.977  0.9559  1.1218  1.5914
  850SOL    HW2 9409   3.340   3.320  12.017 -0.3764  0.1226  0.9714
  851SOL     OW 9410   8.134   6.227   4.675  0.0768 -0.3795  0.7217
  851SOL    HW1 9411   8.077   6.269   4.740 -0.9257  0.4504 -0.6450
  851SOL    HW2 9412   8.076   6.167   4.628  0.6066 -0.4249  0.1173
  852SOL     OW 9413   2.280   8.367   9.043  0.5029  0.3443 -0.4862
  852SOL    HW1 9414   2.263   8.428   8.971 -1.6165 -0.6186 -0.8715
  852SOL    HW2 9415   2.282   8.281   9.002  0.2148 -0.1358  0.4707
  853SOL     OW 9416  10.076   7.855   4.285  0.0334 -0.0580  0.2603
  853SOL    HW1 9417  10.171   7.858   4.272 -0.1660 -1.1387 -2.1422
  853SOL    HW2 9418  10.056   7.931   4.339  2.3052 -0.0271  1.1437
  854SOL     OW 9419   6.647  11.220   1.135  0.7668 -0.0657 -0.0148
  854SOL    HW1 9420   6.596  11.193   1.212  0.2860  0.6348 -0.0767
  854SOL    HW2 9421   6.621  11.158   1.067  0.3017  0.0372  0.0657
  855SOL     OW 9422   6.664   0.598   1.291  0.0498 -0.4124 -0.2198
  855SOL    HW1 9423   6.749   0.602   1.336 -0.1012  0.9621  0.0038
  855SOL    HW2 9424   6.601   0.576   1.359 -0.1230  1.2742  0.2208
  856SOL     OW 9425  10.326   7.957   6.861 -0.2697  0.1190 -0.2399
  856SOL    HW1 9426  10.345   8.044   6.826 -0.5723 -0.0808 -0.9209
  856SOL    HW2 9427  10.230   7.951   6.856 -0.1763 -0.7198 -1.3573
  857SOL     OW 9428   2.740   7.551   2.894  0.3316 -0.0565 -0.1060
  857SOL    HW1 9429   2.720   7.644   2.902  1.3201  0.0391  1.7308
  857SOL    HW2 9430   2.821   7.539   2.943 -0.2365 -2.0500  0.4596
  858SOL     OW 9431   4.293   3.503   1.005  0.2418 -0.0116  0.7128
  858SOL    HW1 9432   4.375   3.454   1.020  0.7101  0.8710  1.1064
  858SOL    HW2 9433   4.270   3.484   0.914  0.2165 -1.2455  0.9579
  859SOL     OW 9434   3.226   1.085   3.734 -0.1414  0.1604 -0.3554
  859SOL    HW1 9435   3.240   1.110   3.825 -0.9737  1.6161 -0.6098
  859SOL    HW2 9436   3.235   0.989   3.734 -0.2529  0.1278  1.2686
  860SOL     OW 9437   0.471   3.066   3.781  0.4163 -0.1389 -0.4044
  860SOL    HW1 9438   0.550   3.099   3.737 -0.5488  1.1693 -1.2250
  860SOL    HW2 9439   0.444   3.137   3.839 -0.6985 -0.1732 -0.8574
  861SOL     OW 9440   3.519   7.286   0.336  0.0823 -0.4429 -0.2059
  861SOL    HW1 9441   3.470   7.260   0.414  0.4928  0.5336  0.3830
  861SOL    HW2 9442   3.458   7.340   0.286 -0.0347 -0.7160 -0.3645
  862SOL     OW 9443  12.036   5.752  10.833  0.6021  0.1277  0.1476
  862SOL    HW1 9444  12.030   5.847  10.834 -2.4627  0.0568 -1.8911
  862SOL    HW2 9445  11.948   5.721  10.811  1.0748 -3.2787  2.1959
  863SOL     OW 9446   4.626  12.345   0.896 -0.0804  0.1826  0.4614
  863SOL    HW1 9447   4.657  12.311   0.980  0.2643  0.1885  0.3353
  863SOL    HW2 9448   4.532  12.326   0.896  0.0068 -0.2617  0.6349
  864SOL     OW 9449   7.913   4.187  12.384 -0.4969  0.1839 -0.4466
  864SOL    HW1 9450   7.913   4.281  12.399 -1.8650  0.0616  0.5598
  864SOL    HW2 9451   7.821   4.161  12.396 -0.2602 -1.1812 -1.3272
  865SOL     OW 9452   6.174  11.157   1.264  0.7010 -0.5790  0.1898
  865SOL    HW1 9453   6.125  11.076   1.277 -0.7781  0.1244 -0.7490
  865SOL    HW2 9454   6.141  11.217   1.331  1.6512 -0.6689  0.7571
  866SOL     OW 9455   2.976  11.596   7.305 -0.5035  0.4323 -0.0403
  866SOL    HW1 9456   2.923  11.629   7.378 -0.5482 -0.8197  0.5290
  866SOL    HW2 9457   2.914  11.591   7.232 -0.7886  0.4811  0.1935
  867SOL     OW 9458  12.269   1.529  12.296 -0.2325  0.3221  0.5814
  867SOL    HW1 9459  12.295   1.440  12.273 -1.4124 -0.0751  0.6992
  867SOL    HW2 9460  12.313   1.584  12.232 -1.4448 -0.5561 -1.0852
  868SOL     OW 9461  12.507   1.743  10.522 -0.3377 -0.2531 -0.4119
  868SOL    HW1 9462  12.429   1.741  10.466 -1.1671  0.5789  0.6655
  868SOL    HW2 9463  12.491   1.815  10.584  1.0728 -0.3751  0.1420
  869SOL     OW 9464  11.617   9.082   1.890 -0.0468 -0.6238 -0.0423
  869SOL    HW1 9465  11.561   9.146   1.933 -0.0692  0.0418 -1.0217
  869SOL    HW2 9466  11.557   9.013   1.861 -0.6443  0.7324 -2.2981
  870SOL     OW 9467   4.601   6.550  11.625 -0.5571 -0.1337  0.1233
  870SOL    HW1 9468   4.640   6.485  11.684  1.0416  0.7211  0.0641
  870SOL    HW2 9469   4.507   6.532  11.628 -0.3475 -1.1626  1.6481
  871SOL     OW 9470   4.048   3.987   6.201  0.3413 -0.0238  0.5844
  871SOL    HW1 9471   4.039   3.937   6.120 -1.7097  0.0283  0.7260
  871SOL    HW2 9472   4.071   3.922   6.267 -0.8769 -0.5761  0.4921
  872SOL     OW 9473   1.985  12.571   6.261  0.3291  0.3206  0.0566
  872SOL    HW1 9474   1.938  12.576   6.344 -0.3182 -2.1922 -0.0702
  872SOL    HW2 9475   2.041  12.494   6.269  3.1936  2.1995 -0.4773
  873SOL     OW 9476   5.315  11.919  11.500 -0.0423  0.4536 -0.6940
  873SOL    HW1 9477   5.328  11.832  11.536 -0.5734  0.6326 -0.0532
  873SOL    HW2 9478   5.311  11.906  11.405  2.4612  0.0987 -0.8117
  874SOL     OW 9479   3.287   6.122   3.123  0.1923  0.0600  0.0839
  874SOL    HW1 9480   3.192   6.123   3.117  0.0808  0.4262  1.5129
  874SOL    HW2 9481   3.317   6.114   3.033 -1.1669  1.3235 -0.5189
  875SOL     OW 9482   1.989   4.679   0.096 -0.0943 -0.0036  0.5114
  875SOL    HW1 9483   1.968   4.604   0.152 -1.9247  1.2012  1.5494
  875SOL    HW2 9484   2.083   4.673   0.082  0.0265 -1.6757  1.7668
  876SOL     OW 9485   9.336   2.258   7.368 -0.2480 -0.2288 -0.6388
  876SOL    HW1 9486   9.421   2.301   7.355 -0.2905 -0.0288 -0.2614
  876SOL    HW2 9487   9.356   2.164   7.363  0.4234 -0.2901  1.7651
  877SOL     OW 9488  11.626   3.892   9.272  0.1491  0.5740  0.6439
  877SOL    HW1 9489  11.653   3.808   9.233 -0.5395  0.3493  0.6407
  877SOL    HW2 9490  11.679   3.899   9.352  0.1943  0.1264  0.6558
  878SOL     OW 9491   6.651   6.391   2.284  0.0236  0.2045  0.3242
  878SOL    HW1 9492   6.604   6.474   2.273  1.3107  1.1502  1.5167
  878SOL    HW2 9493   6.582   6.326   2.300 -1.0199  1.0020 -0.7530
  879SOL     OW 9494   5.343   4.538   3.208  0.2950  0.3666 -0.8312
  879SOL    HW1 9495   5.309   4.586   3.132 -2.4906 -0.4698 -0.2629
  879SOL    HW2 9496   5.437   4.554   3.207 -0.1393  3.7101 -2.1097
  880SOL     OW 9497   5.653  11.984   0.091  0.0770 -0.0937  0.5540
  880SOL    HW1 9498   5.674  11.939   0.173  0.6905  0.2675  0.5991
  880SOL    HW2 9499   5.728  12.041   0.074 -0.1872  0.0765 -0.0936
  881SOL     OW 9500   5.269   8.524   8.187  0.1576  0.4369 -1.2563
  881SOL    HW1 9501   5.209   8.482   8.249  0.4718  1.4694 -0.2389
  881SOL    HW2 9502   5.242   8.615   8.185  0.6439  0.5733 -2.0640
  882SOL     OW 9503   6.060   1.961   2.804 -0.9439 -0.6271 -0.2936
  882SOL    HW1 9504   6.074   1.982   2.896 -1.9161  1.6700 -0.6161
  882SOL    HW2 9505   6.127   2.011   2.758 -1.6521 -0.2645 -0.9420
  883SOL     OW 9506   5.980   9.337   5.813  0.3938 -0.0786  0.1535
  883SOL    HW1 9507   6.029   9.259   5.841 -0.6233 -0.1573  1.8339
  883SOL    HW2 9508   6.037   9.411   5.835  0.0444 -0.2015  1.5545
  884SOL     OW 9509   3.136   6.928   5.272 -0.3727 -0.1775 -0.2453
  884SOL    HW1 9510   3.103   6.891   5.190 -0.6733 -1.4630  0.4274
  884SOL    HW2 9511   3.138   6.854   5.333  2.3861  0.1474  0.1794
  885SOL     OW 9512   9.810   7.273   9.311  0.4874 -0.2389  0.5204
  885SOL    HW1 9513   9.780   7.190   9.346  0.9009 -0.8529 -0.5256
  885SOL    HW2 9514   9.750   7.338   9.348 -1.3184 -1.2671 -0.4632
  886SOL     OW 9515   6.961   0.232  10.315 -0.1522  0.3404  0.6721
  886SOL    HW1 9516   6.981   0.155  10.261 -0.2246  0.4599  0.4762
  886SOL    HW2 9517   6.866   0.240  10.312 -0.3604 -0.7892  2.3639
  887SOL     OW 9518   3.083  10.339   4.609  0.2896 -0.2804 -0.0716
  887SOL    HW1 9519   3.089  10.354   4.703  0.7020  0.2484 -0.1794
  887SOL    HW2 9520   3.051  10.421   4.574  0.4518 -0.3695 -0.4316
  888SOL     OW 9521   5.520   3.893   7.031  0.7693  0.0240 -0.0733
  888SOL    HW1 9522   5.536   3.801   7.052 -2.1696 -0.4036  0.7441
  888SOL    HW2 9523   5.600   3.922   6.988  2.5609 -2.3455  1.3908
  889SOL     OW 9524  11.151  10.408   2.995 -0.6371  0.3350 -0.1803
  889SOL    HW1 9525  11.077  10.468   2.986  1.9882  3.7074 -1.4624
  889SOL    HW2 9526  11.214  10.455   3.050  1.4603 -1.3537 -0.9925
  890SOL     OW 9527   8.248  10.633   2.724  0.3205 -0.0131 -0.1846
  890SOL    HW1 9528   8.291  10.570   2.782  1.5577  0.6746 -0.3138
  890SOL    HW2 9529   8.301  10.630   2.644 -2.1197 -1.9461 -1.8582
  891SOL     OW 9530   4.018  10.356   3.208 -0.1063 -0.0214 -0.1120
  891SOL    HW1 9531   4.094  10.414   3.210  0.7326 -1.0765  0.3109
  891SOL    HW2 9532   3.953  10.399   3.263  0.6862  0.2802  0.6131
  892SOL     OW 9533   3.760  11.867   3.379 -0.3070  0.3871 -0.0728
  892SOL    HW1 9534   3.830  11.821   3.426 -1.1428  1.3532  2.2957
  892SOL    HW2 9535   3.700  11.798   3.352 -1.3021 -0.0960  2.9879
  893SOL     OW 9536   6.174  10.690   3.253 -0.1142 -0.0575 -0.3999
  893SOL    HW1 9537   6.139  10.775   3.224 -0.3721 -0.4269 -1.2346
  893SOL    HW2 9538   6.233  10.664   3.182 -0.4880 -0.8346 -0.4328
  894SOL     OW 9539   8.004   4.584  10.581 -0.0464 -0.1384 -0.4745
  894SOL    HW1 9540   8.061   4.546  10.514 -1.0194  0.4694 -1.6806
  894SOL    HW2 9541   7.940   4.635  10.532 -0.3671  0.8984  0.9723
  895SOL     OW 9542   5.214   0.883  10.802  0.0970  0.3399  0.5602
  895SOL    HW1 9543   5.177   0.969  10.785  0.8927  0.9669  1.8541
  895SOL    HW2 9544   5.249   0.854  10.718 -2.0815  0.2931 -0.4168
  896SOL     OW 9545   1.159   5.004   2.644 -0.2514 -0.5945  0.3165
  896SOL    HW1 9546   1.181   5.050   2.563 -1.1409 -0.0771  0.3548
  896SOL    HW2 9547   1.242   4.994   2.689  0.1387 -0.1655 -0.2897
  897SOL     OW 9548   5.430   2.314   5.142  0.0849  0.3602 -0.2089
  897SOL    HW1 9549   5.358   2.257   5.169 -0.0578  0.9596  0.7403
  897SOL    HW2 9550   5.508   2.272   5.176  0.2121 -0.3072 -1.2657
  898SOL     OW 9551  12.005  12.045  11.429  0.1810  0.6867 -0.2780
  898SOL    HW1 9552  12.015  12.110  11.499 -2.0856  0.8837 -0.0498
  898SOL    HW2 9553  12.062  11.973  11.455  1.1519  1.7223  0.5577
  899SOL     OW 9554   9.361   4.202   4.120 -0.5911 -0.2649 -0.0386
  899SOL    HW1 9555   9.317   4.121   4.096 -0.7637 -0.5691  1.2134
  899SOL    HW2 9556   9.443   4.174   4.160  0.9622  0.3120 -2.6600
  900SOL     OW 9557   3.744  11.007  11.566  0.2550  0.1094  0.0103
  900SOL    HW1 9558   3.683  11.049  11.505 -0.8871 -2.9523 -1.1653
  900SOL    HW2 9559   3.827  11.006  11.520  0.2843  0.8965  0.0198
  901SOL     OW 9560   0.052   9.689   2.909 -0.3290  0.4002  0.0049
  901SOL    HW1 9561   0.077   9.624   2.975 -0.7838 -1.0142 -1.1805
  901SOL    HW2 9562   0.135   9.721   2.874 -0.0125  2.1447  2.0878
  902SOL     OW 9563  12.185   4.912   9.581 -0.0370 -0.4797  0.2245
  902SOL    HW1 9564  12.090   4.923   9.578 -0.1149 -1.1086  0.2959
  902SOL    HW2 9565  12.203   4.882   9.671  0.1715 -0.8831  0.0519
  903SOL     OW 9566   0.894   1.351   3.036 -0.1557 -0.0843 -0.2172
  903SOL    HW1 9567   0.905   1.385   3.124 -0.0838  0.4294 -0.4190
  903SOL    HW2 9568   0.926   1.261   3.040  1.0455  0.3327 -0.0199
  904SOL     OW 9569   9.578   6.415   7.005 -0.4523 -0.6808 -0.2538
  904SOL    HW1 9570   9.517   6.477   7.044  0.6876  1.5665 -1.8387
  904SOL    HW2 9571   9.562   6.423   6.911  2.2033 -0.0407 -0.7184
  905SOL     OW 9572  11.670   6.227   6.518  0.5722  0.6512 -0.2501
  905SOL    HW1 9573  11.606   6.182   6.463  0.0472 -0.3960  1.1511
  905SOL    HW2 9574  11.740   6.163   6.531  0.4806  0.7192  0.6383
  906SOL     OW 9575   2.571   8.989  11.012  0.4164 -0.4100 -0.6902
  906SOL    HW1 9576   2.588   8.915  10.953  0.2602 -1.0692  0.0742
  906SOL    HW2 9577   2.477   9.004  11.006  0.4115 -0.4315 -0.6686
  907SOL     OW 9578   6.774   7.634   7.113 -0.0306 -0.3251 -0.3135
  907SOL    HW1 9579   6.761   7.727   7.134  1.2275 -0.5108  1.4946
  907SOL    HW2 9580   6.855   7.610   7.158  0.2481 -2.0469 -1.6367
  908SOL     OW 9581   1.104   7.066   0.168 -0.4963 -0.4444  0.6438
  908SOL    HW1 9582   1.076   7.132   0.103  0.3653 -0.3756  0.3220
  908SOL    HW2 9583   1.171   7.015   0.122  0.7271  0.1265  1.7312
  909SOL     OW 9584   5.135  11.419   2.236  0.3142 -0.8935 -0.6960
  909SOL    HW1 9585   5.052  11.452   2.271  1.8589  1.2640  1.2796
  909SOL    HW2 9586   5.164  11.355   2.301  0.9649 -0.3543 -0.4385
  910SOL     OW 9587   3.427   1.330   7.856 -0.3425  0.0290 -0.8094
  910SOL    HW1 9588   3.410   1.421   7.883 -1.2059 -0.0680 -0.9739
  910SOL    HW2 9589   3.513   1.310   7.892 -1.4138 -0.0859  1.8988
  911SOL     OW 9590   5.118   6.363   5.373  0.1065 -0.0159  0.4576
  911SOL    HW1 9591   5.140   6.287   5.320  0.7475  0.5010 -0.0484
  911SOL    HW2 9592   5.096   6.328   5.459 -0.5948 -0.8411 -0.0471
  912SOL     OW 9593  11.560   7.075   9.211 -0.0881 -0.0399  0.7309
  912SOL    HW1 9594  11.528   7.050   9.298 -0.4471  0.6800  0.8135
  912SOL    HW2 9595  11.480   7.098   9.163  0.1282 -0.2443  0.2696
  913SOL     OW 9596   8.790   3.440   6.861  0.4998 -0.2186  0.3383
  913SOL    HW1 9597   8.845   3.430   6.939  0.4266 -1.7147  0.2282
  913SOL    HW2 9598   8.844   3.409   6.789  0.2544  0.3185 -0.0856
  914SOL     OW 9599   5.719   3.405   4.355  0.0743 -0.1092 -0.1383
  914SOL    HW1 9600   5.628   3.380   4.370 -0.5678  0.8914 -2.0786
  914SOL    HW2 9601   5.718   3.453   4.273  2.2985  0.3601  0.0381
  915SOL     OW 9602   2.457   6.799   7.895  0.5167 -0.1573 -0.2074
  915SOL    HW1 9603   2.504   6.734   7.947 -0.6053 -0.5591  0.3461
  915SOL    HW2 9604   2.506   6.880   7.907  1.9200 -0.8690 -0.8870
  916SOL     OW 9605   3.905   4.012   0.602  0.4080 -0.0725 -0.0699
  916SOL    HW1 9606   3.998   4.008   0.626  0.5178 -0.6814 -0.5728
  916SOL    HW2 9607   3.859   4.016   0.686  0.8139 -1.3253  0.2275
  917SOL     OW 9608   6.416   0.811   5.769  0.6928 -0.3339  0.0818
  917SOL    HW1 9609   6.424   0.878   5.837  2.0597 -1.5335  1.1306
  917SOL    HW2 9610   6.482   0.835   5.704 -1.0790  1.2173 -1.2611
  918SOL     OW 9611   7.096  10.624   7.931  0.0310 -0.3194 -0.1615
  918SOL    HW1 9612   7.147  10.548   7.956 -0.7987 -0.3499  1.5468
  918SOL    HW2 9613   7.005  10.598   7.946 -0.2524  1.1023  0.7376
  919SOL     OW 9614   5.897   0.565  11.442  0.8821  0.0894 -0.5986
  919SOL    HW1 9615   5.881   0.616  11.521  0.8066 -0.4774 -0.2427
  919SOL    HW2 9616   5.969   0.610  11.398  0.1775  1.0615 -0.7961
  920SOL     OW 9617   7.012   5.669   2.861  0.1874 -0.0817  0.0531
  920SOL    HW1 9618   7.076   5.640   2.797 -0.1330  0.4802 -0.5325
  920SOL    HW2 9619   6.950   5.597   2.868  0.0943 -0.0517 -0.4406
  921SOL     OW 9620   3.604  10.760   1.709  0.0357  0.1256  0.3185
  921SOL    HW1 9621   3.597  10.684   1.767 -1.6519  0.6831  0.8941
  921SOL    HW2 9622   3.523  10.757   1.657  1.3918 -0.2539 -1.9346
  922SOL     OW 9623   6.174   3.513   6.691  0.1570 -0.2852 -0.0376
  922SOL    HW1 9624   6.249   3.517   6.632  0.0915  1.0051 -0.0687
  922SOL    HW2 9625   6.098   3.500   6.634  0.0159  1.6257 -0.3569
  923SOL     OW 9626   0.080   5.518   7.968 -0.2652 -0.2005 -0.7459
  923SOL    HW1 9627   0.080   5.428   8.002  1.6516 -0.1413 -0.4857
  923SOL    HW2 9628   0.091   5.573   8.045 -0.6358  0.2039 -0.9829
  924SOL     OW 9629   8.839   3.226   8.269  0.1606 -0.2110  0.0267
  924SOL    HW1 9630   8.851   3.249   8.177 -1.3501  2.7524  0.4305
  924SOL    HW2 9631   8.927   3.235   8.308  0.2741  1.9608 -0.5591
  925SOL     OW 9632   2.649   0.551   0.715 -0.5734 -0.0364  0.7159
  925SOL    HW1 9633   2.735   0.534   0.753 -0.8677  2.3158  2.7372
  925SOL    HW2 9634   2.668   0.584   0.627  0.4987 -0.7012  0.6780
  926SOL     OW 9635   9.943  11.045   8.752 -0.0674 -0.5671 -0.0056
  926SOL    HW1 9636  10.019  11.099   8.733 -1.8789  2.0219 -0.4262
  926SOL    HW2 9637   9.961  11.007   8.837  0.6005  2.1840  1.1855
  927SOL     OW 9638   4.768  10.178   8.833 -0.0246  0.5846 -0.0104
  927SOL    HW1 9639   4.731  10.091   8.847 -0.3856  0.8369  0.6023
  927SOL    HW2 9640   4.863  10.163   8.829  0.0437  0.3682  1.7470
  928SOL     OW 9641   7.832   7.619  12.561 -0.4569 -0.2717 -0.2614
  928SOL    HW1 9642   7.780   7.602  12.639 -0.6656  1.2091 -0.0542
  928SOL    HW2 9643   7.862   7.532  12.533 -1.8529 -1.0132  0.4182
  929SOL     OW 9644   0.880   7.495   0.974  0.2842  0.5364  0.4601
  929SOL    HW1 9645   0.790   7.480   1.002  0.4933  0.7811  1.3036
  929SOL    HW2 9646   0.931   7.488   1.055  0.8395  1.8852  0.2508
  930SOL     OW 9647  11.202   1.758   0.302 -0.1180 -0.1394 -0.1636
  930SOL    HW1 9648  11.270   1.821   0.327  1.3825 -2.3990  1.9217
  930SOL    HW2 9649  11.221   1.737   0.211  2.4262 -1.0642  0.4728
  931SOL     OW 9650   9.721   8.941   2.206 -0.1173 -0.1478  0.4916
  931SOL    HW1 9651   9.692   8.966   2.118 -0.7271 -0.6802  0.5309
  931SOL    HW2 9652   9.741   8.847   2.199  0.4770 -0.0418  0.7573
  932SOL     OW 9653   9.302   9.081   2.807 -0.1523  0.1624 -0.4299
  932SOL    HW1 9654   9.217   9.126   2.811 -0.3578  0.3058 -3.8528
  932SOL    HW2 9655   9.366   9.152   2.795  0.2729 -0.0710  0.4011
  933SOL     OW 9656  10.976  11.471   1.737 -0.0671 -0.2178  0.3101
  933SOL    HW1 9657  10.941  11.547   1.690  0.6575 -0.7487 -1.1721
  933SOL    HW2 9658  10.989  11.502   1.827 -1.6633  0.7968  0.2327
  934SOL     OW 9659   8.032   8.052   2.373 -0.1175 -0.0123  0.1517
  934SOL    HW1 9660   8.017   8.014   2.459 -1.0162 -1.0416 -0.4418
  934SOL    HW2 9661   8.097   8.121   2.388  1.8032 -1.9461  1.2191
  935SOL     OW 9662   9.221   3.543   2.054  0.0389 -0.0577  0.3614
  935SOL    HW1 9663   9.168   3.613   2.091 -0.9361 -0.7189  0.2517
  935SOL    HW2 9664   9.159   3.487   2.008  1.0190 -0.0803 -1.0119
  936SOL     OW 9665   7.662   8.064   2.539 -0.2481 -0.1482  0.4172
  936SOL    HW1 9666   7.732   8.120   2.573 -1.6686  1.3384  1.0577
  936SOL    HW2 9667   7.617   8.033   2.618  0.6821 -2.5235  0.0889
  937SOL     OW 9668   7.465   4.537   0.338  0.4931  0.1112 -0.1596
  937SOL    HW1 9669   7.429   4.464   0.389  0.8791 -0.0955 -0.1782
  937SOL    HW2 9670   7.551   4.507   0.311 -0.1010 -0.1922 -1.8255
  938SOL     OW 9671  10.043   0.181   8.749 -0.2318  0.3626 -0.1334
  938SOL    HW1 9672   9.960   0.211   8.786  0.2595  0.0238  1.2958
  938SOL    HW2 9673  10.019   0.143   8.665 -1.6181 -0.2452  0.5055
  939SOL     OW 9674   4.544   8.105   5.975 -0.4411 -0.0940 -0.2913
  939SOL    HW1 9675   4.583   8.039   5.918 -0.9878  0.2373 -1.0620
  939SOL    HW2 9676   4.599   8.182   5.965  0.5355 -0.5725  1.0466
  940SOL     OW 9677   5.340  10.179   7.463  0.4544 -0.2457  0.0633
  940SOL    HW1 9678   5.348  10.145   7.552  0.4185  0.1364  0.2147
  940SOL    HW2 9679   5.260  10.137   7.429 -0.1343  0.4152  0.5878
  941SOL     OW 9680  11.675  11.346   0.295 -0.4474  0.7505  0.0312
  941SOL    HW1 9681  11.700  11.311   0.209 -1.2521  0.3191 -0.0396
  941SOL    HW2 9682  11.614  11.281   0.330  0.9683  0.2061  1.5725
  942SOL     OW 9683  10.843   8.070  11.145 -0.5679  0.2717  0.4094
  942SOL    HW1 9684  10.873   8.032  11.227  2.6421 -1.4110 -1.3861
  942SOL    HW2 9685  10.877   8.159  11.146  0.1333  0.0068  0.5988
  943SOL     OW 9686   2.273   4.097   4.233  0.3889  0.1860  0.1702
  943SOL    HW1 9687   2.295   4.182   4.197 -1.2329  0.7394  0.4347
  943SOL    HW2 9688   2.267   4.112   4.328  2.9604 -0.8906  0.6034
  944SOL     OW 9689   4.710   6.991   4.505 -0.5726 -0.4241  0.3956
  944SOL    HW1 9690   4.665   7.064   4.463  0.9642  0.6200  0.5281
  944SOL    HW2 9691   4.788   6.977   4.452  0.1872 -0.6277  1.5461
  945SOL     OW 9692   1.810  11.214   4.921 -0.2725 -0.0713  0.0095
  945SOL    HW1 9693   1.823  11.176   5.008 -2.8215  0.2448  0.6241
  945SOL    HW2 9694   1.883  11.274   4.910  0.7157 -0.9529  1.4531
  946SOL     OW 9695   8.297   4.862   9.733 -0.3105 -0.3216  0.0025
  946SOL    HW1 9696   8.269   4.918   9.806 -1.2786  0.7583 -1.1705
  946SOL    HW2 9697   8.262   4.776   9.755 -1.3936  0.1989  0.3858
  947SOL     OW 9698   2.707   9.792   0.190  0.5637  0.1572  0.1386
  947SOL    HW1 9699   2.626   9.749   0.220  0.5760  0.0582  0.0312
  947SOL    HW2 9700   2.732   9.849   0.262  1.0245 -0.6645  0.6383
  948SOL     OW 9701   0.995  12.427   4.615 -0.1912  0.0967 -0.3135
  948SOL    HW1 9702   1.066  12.377   4.655  0.1752  0.8776  0.0318
  948SOL    HW2 9703   0.923  12.365   4.609  0.6218 -0.8129 -0.9946
  949SOL     OW 9704   0.211   4.899  12.291 -0.1207 -0.2156  0.1310
  949SOL    HW1 9705   0.246   4.835  12.354 -0.6406 -0.6957 -0.0541
  949SOL    HW2 9706   0.182   4.846  12.217  0.1366  0.3132 -0.3526
  950SOL     OW 9707   7.734   9.991   2.345 -0.3994  1.0593  0.0768
  950SOL    HW1 9708   7.768   9.903   2.356  0.2358  1.4693  1.6562
  950SOL    HW2 9709   7.785  10.028   2.272  1.0545  0.9142  0.9787
  951SOL     OW 9710  10.147   6.612   6.191 -0.0633  0.7836  0.5804
  951SOL    HW1 9711  10.242   6.621   6.191 -0.0322  0.5519 -0.1105
  951SOL    HW2 9712  10.121   6.634   6.101 -0.4642 -1.0549  0.2083
  952SOL     OW 9713   5.528   6.671   4.611  0.2801  0.1657 -0.1289
  952SOL    HW1 9714   5.509   6.762   4.635  2.4648  1.5259 -2.8470
  952SOL    HW2 9715   5.605   6.648   4.662  0.1802  0.1371  0.0075
  953SOL     OW 9716   6.154   9.412   0.781 -0.2372  0.0032 -0.0545
  953SOL    HW1 9717   6.088   9.471   0.817  0.6234  0.1633  1.2966
  953SOL    HW2 9718   6.109   9.368   0.709 -1.6680  0.4643  0.5231
  954SOL     OW 9719   7.370   3.004   1.539  0.1315  0.0521 -0.4897
  954SOL    HW1 9720   7.302   3.022   1.474  0.0148 -0.0180 -0.3888
  954SOL    HW2 9721   7.350   3.063   1.612  0.7921  0.7815 -0.8818
  955SOL     OW 9722   2.294  11.848  10.326 -0.0298 -0.3347  0.0614
  955SOL    HW1 9723   2.282  11.792  10.403 -1.8588 -3.9660 -2.5545
  955SOL    HW2 9724   2.379  11.822  10.291  0.1393  0.2529  0.0218
  956SOL     OW 9725  11.540  10.536  10.214  0.0904 -0.1982  0.1303
  956SOL    HW1 9726  11.509  10.623  10.238  0.7117 -0.1478  0.7955
  956SOL    HW2 9727  11.628  10.551  10.179  0.7686 -0.6875  1.5540
  957SOL     OW 9728  11.559   9.682   2.306  0.2205  0.0397  0.3994
  957SOL    HW1 9729  11.653   9.687   2.289  0.3197 -1.4101  0.4004
  957SOL    HW2 9730  11.528   9.772   2.296  1.4588  0.3983 -0.4424
  958SOL     OW 9731   3.060   1.254   4.588 -0.1402 -0.4376  0.0626
  958SOL    HW1 9732   3.019   1.321   4.642 -0.3014 -0.4643 -0.0272
  958SOL    HW2 9733   2.996   1.183   4.585  0.9528 -1.5890  2.0832
  959SOL     OW 9734   0.720   7.886   4.108  0.4336  0.2954  0.5291
  959SOL    HW1 9735   0.701   7.943   4.034  1.8078 -0.2576 -0.2793
  959SOL    HW2 9736   0.809   7.911   4.136 -0.6250  1.6274  3.0689
  960SOL     OW 9737   1.485   3.194   1.735 -0.4459  0.0202 -1.0948
  960SOL    HW1 9738   1.484   3.221   1.643 -0.1941 -0.4448 -1.2401
  960SOL    HW2 9739   1.424   3.120   1.739  1.0857 -1.3171 -1.3397
  961SOL     OW 9740   3.340   7.720   6.541 -0.2907 -0.2792 -0.0567
  961SOL    HW1 9741   3.401   7.790   6.518 -0.1952 -0.2155  0.3812
  961SOL    HW2 9742   3.375   7.685   6.623 -1.3868  0.3932  0.7151
  962SOL     OW 9743   1.699  12.048   1.474 -0.7313  0.3938 -0.4099
  962SOL    HW1 9744   1.706  12.004   1.390  0.4862 -0.7254  0.2362
  962SOL    HW2 9745   1.670  12.137   1.453  3.1960  1.4172 -2.4198
  963SOL     OW 9746  10.755   9.174   6.635  0.5843  0.6340  0.6037
  963SOL    HW1 9747  10.847   9.148   6.649  0.0218 -1.5570  0.6473
  963SOL    HW2 9748  10.713   9.157   6.720 -0.4166 -1.2182 -0.2000
  964SOL     OW 9749  12.354   7.980   6.819 -0.0514 -0.4173  0.4270
  964SOL    HW1 9750  12.394   7.932   6.891  0.5090 -0.4926  0.0735
  964SOL    HW2 9751  12.413   8.054   6.804  1.0347 -1.5448 -1.3269
  965SOL     OW 9752   8.073  11.217  11.071  0.0446  0.3643 -0.6209
  965SOL    HW1 9753   8.032  11.287  11.021  0.4635 -0.1585 -1.7250
  965SOL    HW2 9754   8.066  11.140  11.014 -0.0767 -0.4077  0.4075
  966SOL     OW 9755  10.119   3.308  12.320  0.0029  0.4119 -0.1271
  966SOL    HW1 9756  10.101   3.400  12.301  0.2432  0.3728 -0.5660
  966SOL    HW2 9757  10.207   3.309  12.358  0.1097  0.3409 -0.3678
  967SOL     OW 9758  10.997   1.777   2.965 -0.1569  0.1456 -0.3154
  967SOL    HW1 9759  10.935   1.749   3.032  1.3275  0.6355  1.3435
  967SOL    HW2 9760  11.015   1.869   2.986  1.3174 -0.0613 -0.6066
  968SOL     OW 9761   9.481   5.949  11.875  0.1098  0.5760 -0.1706
  968SOL    HW1 9762   9.478   6.024  11.934  0.8721 -0.6556  1.5254
  968SOL    HW2 9763   9.471   5.987  11.788  0.4549  2.6349  0.6185
  969SOL     OW 9764  10.044  10.453  10.910 -0.2528  0.0721 -0.0475
  969SOL    HW1 9765   9.957  10.481  10.882 -0.9004  0.2723  2.0265
  969SOL    HW2 9766  10.035  10.435  11.003  1.4111 -2.0018 -0.1919
  970SOL     OW 9767  12.354   5.294   1.807  0.4801  0.2047  0.5762
  970SOL    HW1 9768  12.403   5.358   1.858  1.1201  0.7484 -0.6776
  970SOL    HW2 9769  12.418   5.256   1.747 -0.0603 -1.0700  0.7715
  971SOL     OW 9770   9.286   3.684   7.744 -0.4099 -0.5195 -0.4331
  971SOL    HW1 9771   9.228   3.608   7.738 -0.5561 -0.3705 -1.0438
  971SOL    HW2 9772   9.315   3.686   7.835  0.1047 -1.6939 -0.5446
  972SOL     OW 9773  10.079   6.663  12.437 -0.3096  0.0154  0.0788
  972SOL    HW1 9774  10.025   6.715  12.496  0.2160  0.5857  0.0566
  972SOL    HW2 9775  10.035   6.668  12.352  0.4632  1.5765 -0.2610
  973SOL     OW 9776   9.546   5.059   2.838  0.4733 -0.1215  0.2554
  973SOL    HW1 9777   9.579   5.129   2.781 -0.8679  0.9126  0.6876
  973SOL    HW2 9778   9.594   4.981   2.811 -0.0981  0.3277 -2.2847
  974SOL     OW 9779  12.407   3.045  12.197  0.1578 -0.0299 -0.2811
  974SOL    HW1 9780  12.364   3.056  12.113 -0.1744  0.9363  0.0016
  974SOL    HW2 9781  12.356   3.099  12.258  0.4001 -0.6928  0.5350
  975SOL     OW 9782   1.751   5.430   8.416  0.1450  0.2892 -0.3698
  975SOL    HW1 9783   1.772   5.437   8.322  0.9979 -1.1847 -0.3247
  975SOL    HW2 9784   1.779   5.342   8.440 -2.0527 -0.1673  0.8004
  976SOL     OW 9785   5.829   8.637   5.484 -0.5212 -0.4646  0.1165
  976SOL    HW1 9786   5.809   8.544   5.493 -1.1007 -0.3956 -0.3877
  976SOL    HW2 9787   5.816   8.674   5.571 -1.8867 -0.5696 -0.0181
  977SOL     OW 9788  11.240   2.989   5.865 -0.0840  0.2271  0.0008
  977SOL    HW1 9789  11.274   2.940   5.790  0.9672  0.8442  0.0582
  977SOL    HW2 9790  11.200   2.922   5.920  1.8402 -0.7076  0.3672
  978SOL     OW 9791  12.527   3.128   1.181 -0.2323 -0.4431 -0.0967
  978SOL    HW1 9792  12.594   3.136   1.248 -0.8278 -0.2360  0.4798
  978SOL    HW2 9793  12.564   3.066   1.117  1.1957  0.9078 -0.6421
  979SOL     OW 9794   8.572   9.361   0.176 -0.1741  0.4824  0.1800
  979SOL    HW1 9795   8.595   9.415   0.252  2.3602  1.2485 -1.0323
  979SOL    HW2 9796   8.611   9.406   0.101  1.5824 -2.6104 -0.9862
  980SOL     OW 9797   1.610   2.536   5.262 -0.3030 -0.1082 -0.6247
  980SOL    HW1 9798   1.653   2.508   5.342 -1.9724  0.7947  0.6600
  980SOL    HW2 9799   1.671   2.598   5.222  1.0109 -1.3710 -0.6646
  981SOL     OW 9800  12.028   7.507  10.412 -0.6693  0.0636  0.1205
  981SOL    HW1 9801  12.120   7.505  10.439 -0.3275 -0.0626 -1.0112
  981SOL    HW2 9802  12.008   7.600  10.404  0.3948  0.1698 -2.8575
  982SOL     OW 9803   6.480   8.580   0.832 -0.2960 -0.3169 -0.5230
  982SOL    HW1 9804   6.400   8.603   0.879  0.1795  0.9116 -0.2522
  982SOL    HW2 9805   6.464   8.607   0.741 -0.6339 -1.2169 -0.7355
  983SOL     OW 9806   2.657   6.030   8.059 -0.0665 -0.3589 -0.4588
  983SOL    HW1 9807   2.581   6.007   8.113 -1.2934 -0.5752 -2.1933
  983SOL    HW2 9808   2.708   5.949   8.055 -0.9521 -0.8941 -1.1576
  984SOL     OW 9809   9.758   6.335  11.972  0.8666  0.2360  0.3885
  984SOL    HW1 9810   9.771   6.381  11.889 -0.2480 -1.3422 -0.7205
  984SOL    HW2 9811   9.831   6.273  11.977  0.2817 -0.5189 -0.0650
  985SOL     OW 9812  10.230   0.806   0.798  0.0397  0.1839 -0.2024
  985SOL    HW1 9813  10.269   0.863   0.733 -1.2487 -0.2261 -1.3781
  985SOL    HW2 9814  10.246   0.717   0.765 -0.3677 -0.0367  0.1819
  986SOL     OW 9815   3.071   3.287   0.590  0.2768 -0.0522 -0.7567
  986SOL    HW1 9816   3.159   3.323   0.579  0.4290 -0.5838 -1.2721
  986SOL    HW2 9817   3.029   3.300   0.505  0.6248 -1.8724 -1.2449
  987SOL     OW 9818   4.689   5.402   6.232 -0.3483  0.4351 -0.1694
  987SOL    HW1 9819   4.614   5.358   6.271 -0.4949 -0.8483 -1.8053
  987SOL    HW2 9820   4.651   5.471   6.177 -0.3251 -0.0291 -0.7733
  988SOL     OW 9821   7.854   6.495   9.374 -0.3572 -0.0183 -0.1338
  988SOL    HW1 9822   7.781   6.476   9.433 -0.9440 -1.4543 -1.2548
  988SOL    HW2 9823   7.863   6.590   9.376 -0.7552  0.0264  1.7593
  989SOL     OW 9824   5.121   1.975   9.065  0.2426  0.0787 -0.3444
  989SOL    HW1 9825   5.215   1.963   9.052  0.1732 -0.5180 -0.3047
  989SOL    HW2 9826   5.101   2.058   9.021  0.9314  0.6297  0.3617
  990SOL     OW 9827  10.803   4.038  11.662  0.0178 -0.2826 -0.1229
  990SOL    HW1 9828  10.772   4.129  11.664 -0.4806 -0.4548  0.4475
  990SOL    HW2 9829  10.786   4.009  11.573 -0.9225 -0.1756  0.0104
  991SOL     OW 9830   5.433   4.568  11.471 -0.1095 -0.5583 -0.3285
  991SOL    HW1 9831   5.441   4.621  11.392  0.8433  0.3825  0.3634
  991SOL    HW2 9832   5.458   4.628  11.542  0.4520 -1.7703  0.5303
  992SOL     OW 9833   5.876   0.964   6.179 -0.0854 -0.4809 -0.3729
  992SOL    HW1 9834   5.863   0.886   6.124  0.0139 -0.7542 -0.0132
  992SOL    HW2 9835   5.836   1.035   6.129 -0.6321 -0.8513 -0.4741
  993SOL     OW 9836   5.805   4.274   1.431  0.0490  0.6234  0.2615
  993SOL    HW1 9837   5.815   4.308   1.342 -0.1539 -1.6510 -0.7062
  993SOL    HW2 9838   5.710   4.262   1.441  0.1969 -0.8152  0.0708
  994SOL     OW 9839   1.983   0.630   1.823 -0.2736  0.0371 -0.2395
  994SOL    HW1 9840   1.937   0.586   1.895  0.8019 -1.6404 -0.5288
  994SOL    HW2 9841   1.917   0.637   1.753 -0.6928 -0.3690  0.1078
  995SOL     OW 9842  11.193  11.932   1.943  0.2555 -0.1021  0.0698
  995SOL    HW1 9843  11.242  11.879   1.879  0.0008 -0.4490  0.1594
  995SOL    HW2 9844  11.195  12.020   1.907  0.2569 -0.2634 -0.3373
  996SOL     OW 9845   6.509   9.216   5.984  0.1065  0.2929  0.1038
  996SOL    HW1 9846   6.510   9.243   5.892  1.4788 -1.5176 -0.4924
  996SOL    HW2 9847   6.500   9.297   6.033  0.1834  1.3964 -1.6141
  997SOL     OW 9848  10.630   3.394  11.695  0.0244  0.2673  0.3821
  997SOL    HW1 9849  10.587   3.474  11.665  0.0948 -0.0994 -0.7224
  997SOL    HW2 9850  10.661   3.352  11.616  3.0157  0.8094  1.1486
  998SOL     OW 9851   5.416   5.727   8.211  0.1808 -0.3542 -0.3523
  998SOL    HW1 9852   5.333   5.771   8.191  1.1454  0.8574 -2.0013
  998SOL    HW2 9853   5.466   5.792   8.261  1.0179 -0.1043 -1.4573
  999SOL     OW 9854   1.572   8.206   4.751  0.1767 -0.2590 -0.8022
  999SOL    HW1 9855   1.645   8.144   4.751 -1.0134 -1.7320 -2.0258
  999SOL    HW2 9856   1.548   8.214   4.843 -0.7447 -3.0938 -0.6689
 1000SOL     OW 9857   9.683  11.267   3.452 -0.0318  0.2437  0.2762
 1000SOL    HW1 9858   9.620  11.262   3.524  0.8608  1.6119  1.1964
 1000SOL    HW2 9859   9.729  11.183   3.454 -2.0323 -0.9590 -0.6746
 1001SOL     OW 9860   5.031   5.462   6.293 -0.5563 -0.1276 -0.1940
 1001SOL    HW1 9861   5.041   5.525   6.364  0.0234 -0.7933  0.3220
 1001SOL    HW2 9862   5.092   5.492   6.226 -1.9496  1.1896 -0.9416
 1002SOL     OW 9863  10.637   6.405   3.104 -0.5656 -0.1664  0.2987
 1002SOL    HW1 9864  10.732   6.407   3.118 -0.5018  2.8702  0.0259
 1002SOL    HW2 9865  10.624   6.335   3.041  1.3254 -1.4258  1.1874
 1003SOL     OW 9866   3.432  11.602   9.245 -0.7195  0.1791  0.2725
 1003SOL    HW1 9867   3.402  11.691   9.264 -1.2168  0.3233 -1.0865
 1003SOL    HW2 9868   3.380  11.546   9.303 -0.2687  0.7698  1.2715
 1004SOL     OW 9869   0.215   8.400   0.560  0.0601  0.3537  0.0694
 1004SOL    HW1 9870   0.173   8.443   0.635  0.6159 -0.0944  0.6392
 1004SOL    HW2 9871   0.148   8.403   0.492 -2.2385 -3.2044  1.8635
 1005SOL     OW 9872  10.188   7.382   5.358  0.0918  0.2383  0.7913
 1005SOL    HW1 9873  10.094   7.398   5.372 -0.0195 -0.3631  0.7776
 1005SOL    HW2 9874  10.220   7.461   5.315 -0.5644  0.1728  0.1520
 1006SOL     OW 9875   9.766   6.413   6.215  0.9371 -0.4530 -0.2229
 1006SOL    HW1 9876   9.773   6.467   6.136  0.3163 -0.2547 -0.1454
 1006SOL    HW2 9877   9.856   6.403   6.245  1.2082 -0.7714 -1.1171
 1007SOL     OW 9878   1.192   2.091  10.852  0.3192  0.1143 -0.4870
 1007SOL    HW1 9879   1.133   2.166  10.846 -0.8763 -0.8010 -0.5813
 1007SOL    HW2 9880   1.185   2.047  10.768 -0.1315 -0.8973  0.0497
 1008SOL     OW 9881   5.136   7.178   1.074  0.1139 -0.0127  0.2179
 1008SOL    HW1 9882   5.046   7.168   1.044 -0.0767 -1.5682  1.1934
 1008SOL    HW2 9883   5.141   7.267   1.107 -0.4352  0.8147 -1.7994
 1009SOL     OW 9884   0.272   8.956  10.788 -0.0316  0.8032  0.5146
 1009SOL    HW1 9885   0.253   8.923  10.701 -1.0870 -0.3849  1.1677
 1009SOL    HW2 9886   0.264   9.051  10.780 -2.8754  0.5858 -0.0711
 1010SOL     OW 9887  10.182   7.721   8.185  0.6646 -0.4599  0.0141
 1010SOL    HW1 9888  10.205   7.794   8.243  0.9386 -0.5222 -0.0131
 1010SOL    HW2 9889  10.093   7.697   8.210  0.2480  0.4241 -0.5311
 1011SOL     OW 9890   0.162   3.433   6.805  0.2705 -0.0586 -0.0580
 1011SOL    HW1 9891   0.093   3.497   6.788 -1.3664 -1.8677 -0.4712
 1011SOL    HW2 9892   0.140   3.396   6.890  1.9023  0.7334  0.7543
 1012SOL     OW 9893  11.877   6.766  11.058  0.5728  0.3097  0.6011
 1012SOL    HW1 9894  11.913   6.845  11.017  1.0896 -1.1434 -2.0014
 1012SOL    HW2 9895  11.797   6.795  11.101  0.2154  2.1019 -1.1556
 1013SOL     OW 9896   1.866   3.663  10.156  0.0517 -0.5906 -0.2390
 1013SOL    HW1 9897   1.879   3.748  10.199 -1.6235  0.6725 -2.0190
 1013SOL    HW2 9898   1.915   3.601  10.209 -0.9618  0.9966  2.7839
 1014SOL     OW 9899  11.211   5.547   7.094 -0.1732 -0.1624 -0.3469
 1014SOL    HW1 9900  11.295   5.591   7.098 -0.3088  0.1449 -0.8906
 1014SOL    HW2 9901  11.148   5.616   7.072 -0.1317 -0.9159 -3.1364
 1015SOL     OW 9902   6.093   5.885   0.824  0.4131 -0.1807  0.2257
 1015SOL    HW1 9903   6.081   5.978   0.803 -1.2002 -0.1284  1.2849
 1015SOL    HW2 9904   6.188   5.872   0.817  0.4183  0.6944 -3.3199
 1016SOL     OW 9905   9.433   3.748   9.020 -0.4049  0.4476 -0.4242
 1016SOL    HW1 9906   9.376   3.704   9.083  1.2378 -1.8144 -0.4286
 1016SOL    HW2 9907   9.436   3.689   8.945  0.3895  1.4706 -1.2281
 1017SOL     OW 9908   7.797   9.736  11.801 -0.2920  0.2416 -0.0213
 1017SOL    HW1 9909   7.729   9.670  11.816  0.8510 -0.9836 -0.1235
 1017SOL    HW2 9910   7.778   9.771  11.714  0.0360 -1.1364 -0.6743
 1018SOL     OW 9911   9.701   1.615   4.581 -0.5858 -0.6444  0.5166
 1018SOL    HW1 9912   9.779   1.620   4.525 -0.3655  0.8055  0.9026
 1018SOL    HW2 9913   9.719   1.677   4.652 -1.4256 -1.4768  1.4885
 1019SOL     OW 9914  11.251   2.603  11.466  0.2659  0.3693 -0.3014
 1019SOL    HW1 9915  11.253   2.579  11.373  0.6783  1.7037 -0.6535
 1019SOL    HW2 9916  11.307   2.538  11.508 -1.7113 -1.6707 -0.5991
 1020SOL     OW 9917   0.052   5.732  11.588  0.3171 -0.1603 -0.0401
 1020SOL    HW1 9918  -0.022   5.785  11.560 -0.0212 -0.4618  0.2656
 1020SOL    HW2 9919   0.043   5.726  11.683 -0.0508 -1.3294 -0.1297
 1021SOL     OW 9920   9.926   7.510   1.936  0.2638  0.1399 -0.0114
 1021SOL    HW1 9921  10.017   7.490   1.956  0.5934  1.1694 -0.4172
 1021SOL    HW2 9922   9.883   7.425   1.930  1.5072 -0.4267 -1.2775
 1022SOL     OW 9923   8.936   0.827   3.055 -0.3785 -0.3854 -0.1833
 1022SOL    HW1 9924   8.910   0.834   3.147  0.8550 -0.4170  0.1870
 1022SOL    HW2 9925   8.892   0.899   3.012  0.5546  0.8247  0.8176
 1023SOL     OW 9926   6.396  10.526   2.311 -0.5203 -0.0951 -1.1057
 1023SOL    HW1 9927   6.427  10.594   2.251 -0.3566  0.7733 -0.0780
 1023SOL    HW2 9928   6.307  10.506   2.281  0.7442 -2.3107 -3.8252
 1024SOL     OW 9929   6.259   2.507   1.828 -0.6665 -0.2708  0.3937
 1024SOL    HW1 9930   6.220   2.490   1.914 -0.1456 -0.1102  0.6677
 1024SOL    HW2 9931   6.325   2.573   1.845 -0.3190 -0.4937 -0.0738
 1025SOL     OW 9932   9.322   0.607   6.598 -0.0475 -0.0724  0.5796
 1025SOL    HW1 9933   9.247   0.658   6.570 -0.3707 -0.1647  1.2525
 1025SOL    HW2 9934   9.285   0.525   6.631  0.3713 -0.2330  0.6642
 1026SOL     OW 9935   6.285   5.651  10.473 -0.5405 -0.4640  0.5363
 1026SOL    HW1 9936   6.256   5.560  10.474 -0.4361 -0.4963  1.3976
 1026SOL    HW2 9937   6.210   5.700  10.440 -1.1936 -0.6777  1.6634
 1027SOL     OW 9938   9.489   3.412   8.073  0.3059  0.2650  0.4776
 1027SOL    HW1 9939   9.529   3.441   7.990  1.3129  1.7708  1.4461
 1027SOL    HW2 9940   9.563   3.392   8.129 -0.3762 -0.8508  1.0116
 1028SOL     OW 9941   2.284   1.275   1.795  0.0566 -0.0221  0.4587
 1028SOL    HW1 9942   2.345   1.202   1.780  0.3140  0.3098 -0.1547
 1028SOL    HW2 9943   2.339   1.353   1.794  0.0109  0.1010  2.6975
 1029SOL     OW 9944  11.713   1.260  10.726 -0.1087  0.1218  0.4086
 1029SOL    HW1 9945  11.622   1.228  10.725  0.2919 -1.2022  2.0343
 1029SOL    HW2 9946  11.744   1.246  10.637 -1.6320  1.1145 -0.3419
 1030SOL     OW 9947   1.681   7.310   8.631  0.0416  0.2769  0.0706
 1030SOL    HW1 9948   1.749   7.373   8.607 -1.3096  2.2665  1.1482
 1030SOL    HW2 9949   1.694   7.295   8.725 -0.3908 -0.1226  0.0714
 1031SOL     OW 9950  10.213   0.533  11.976  0.2336  0.0961  0.0931
 1031SOL    HW1 9951  10.121   0.533  11.951 -0.1395 -2.5524  1.1533
 1031SOL    HW2 9952  10.249   0.612  11.934 -2.4477  1.1652 -0.4147
 1032SOL     OW 9953  11.752   5.948   0.701 -0.4445  0.4087  0.1148
 1032SOL    HW1 9954  11.750   5.989   0.614  0.1458 -2.3661 -1.3352
 1032SOL    HW2 9955  11.835   5.975   0.739 -0.4648  1.2255 -0.4096
 1033SOL     OW 9956   3.877  10.290   6.824 -0.0964  0.2129 -0.2181
 1033SOL    HW1 9957   3.938  10.326   6.760 -0.2643  0.6603 -0.1329
 1033SOL    HW2 9958   3.902  10.198   6.832  0.6144  0.4045 -0.1281
 1034SOL     OW 9959   5.646   0.856   6.394  0.5777  0.4095  0.1533
 1034SOL    HW1 9960   5.722   0.847   6.451 -0.5593 -3.6476  1.3768
 1034SOL    HW2 9961   5.680   0.839   6.306  1.5826  2.2021  0.1489
 1035SOL     OW 9962   2.209   2.784   6.934 -0.0586  0.2542  0.8258
 1035SOL    HW1 9963   2.301   2.802   6.956  0.6181 -1.0694 -0.6544
 1035SOL    HW2 9964   2.187   2.850   6.868 -0.9217  1.9401  2.7085
 1036SOL     OW 9965   7.391   5.567   1.733  0.3149 -0.4219  0.1910
 1036SOL    HW1 9966   7.310   5.517   1.743 -0.8697  1.4114  0.1989
 1036SOL    HW2 9967   7.413   5.592   1.823  0.2296  0.0868  0.0683
 1037SOL     OW 9968  11.514   7.833  11.141  0.2368 -0.3633 -0.0726
 1037SOL    HW1 9969  11.490   7.890  11.068  0.9637 -0.5136 -0.4367
 1037SOL    HW2 9970  11.603   7.861  11.165  0.1521 -0.5744  0.5020
 1038SOL     OW 9971   3.494   1.057   9.250  0.3565  0.3459  0.2477
 1038SOL    HW1 9972   3.498   1.153   9.250  1.8999  0.3775  2.8075
 1038SOL    HW2 9973   3.447   1.034   9.330 -1.8549 -1.1005 -1.3492
 1039SOL     OW 9974   4.267  11.650  11.000  0.4105 -0.1662  0.7463
 1039SOL    HW1 9975   4.360  11.658  10.979  0.5031 -0.5581  0.9887
 1039SOL    HW2 9976   4.262  11.667  11.094 -0.0138  1.6794  0.4330
 1040SOL     OW 9977   7.998   7.131   3.791 -0.0456 -0.1634  0.1371
 1040SOL    HW1 9978   7.940   7.192   3.836 -0.1969  0.6366 -1.0940
 1040SOL    HW2 9979   8.069   7.114   3.853  0.5440  2.0588  0.1617
 1041SOL     OW 9980  12.482  10.284   7.621 -0.2890  0.3625  0.6767
 1041SOL    HW1 9981  12.441  10.349   7.679  0.4620 -0.5547  2.3131
 1041SOL    HW2 9982  12.451  10.200   7.653  0.8173 -0.2126  0.2940
 1042SOL     OW 9983   5.071   0.421  11.226 -0.9625  0.5551  0.1576
 1042SOL    HW1 9984   5.060   0.350  11.163  0.3731 -0.3556  0.9049
 1042SOL    HW2 9985   5.160   0.454  11.210 -1.0389  1.0873  0.7758
 1043SOL     OW 9986   8.599  10.099   4.919 -0.1565  0.1715 -0.1337
 1043SOL    HW1 9987   8.560  10.051   4.992  1.0512  0.9457  1.0626
 1043SOL    HW2 9988   8.543  10.078   4.844  1.2566 -4.6322 -0.1994
 1044SOL     OW 9989   3.180   3.584  10.614  0.0057 -0.3796  0.3195
 1044SOL    HW1 9990   3.107   3.646  10.609 -0.6979 -1.2799 -1.8344
 1044SOL    HW2 9991   3.143   3.501  10.586  1.9459 -0.7303 -1.4724
 1045SOL     OW 9992   3.827   9.337   7.781  0.0320  0.2271  0.2684
 1045SOL    HW1 9993   3.746   9.380   7.751 -0.2958  0.3322  1.2498
 1045SOL    HW2 9994   3.813   9.324   7.875  0.8895 -0.3680  0.3219
 1046SOL     OW 9995   1.022   6.719   5.412  0.6127  0.0422 -0.1536
 1046SOL    HW1 9996   0.954   6.669   5.456 -0.2251 -1.7615 -3.2097
 1046SOL    HW2 9997   1.094   6.656   5.400  0.7560  0.4129 -1.3954
 1047SOL     OW 9998  10.175   5.525   6.995  0.3610  0.0483  0.2655
 1047SOL    HW1 9999  10.207   5.442   7.029  2.1308  0.8511  0.6395
 1047SOL    HW210000  10.128   5.501   6.915  0.5641 -1.3344  0.5365
 1048SOL     OW10001   2.824   4.174   0.894  0.1311 -0.2875 -0.4045
 1048SOL    HW110002   2.887   4.118   0.938  0.4273 -0.5445 -1.1371
 1048SOL    HW210003   2.791   4.121   0.821 -0.6187 -0.0047 -0.2832
 1049SOL     OW10004  11.917   1.697  11.751  0.4806 -0.0829 -0.2489
 1049SOL    HW110005  11.878   1.776  11.713  0.5091 -0.5975 -1.3899
 1049SOL    HW210006  11.853   1.628  11.735  1.2113 -0.6402 -0.8248
 1050SOL     OW10007   5.690   4.194   2.111 -0.1502  0.1406 -0.0349
 1050SOL    HW110008   5.628   4.122   2.104  1.3796 -1.2330 -0.2535
 1050SOL    HW210009   5.657   4.261   2.051 -2.2138  0.1317  1.0299
 1051SOL     OW10010   3.642   5.653   2.967  0.1241 -0.1322  0.1500
 1051SOL    HW110011   3.650   5.613   2.880  0.1700 -0.1805  0.1759
 1051SOL    HW210012   3.732   5.679   2.989  0.4405 -1.7474  0.9531
 1052SOL     OW10013   4.107   0.653   8.906  0.6239 -0.0802  0.0047
 1052SOL    HW110014   4.058   0.635   8.826  1.0600  0.1176 -0.3146
 1052SOL    HW210015   4.177   0.588   8.907  1.0329  0.3445 -0.1432
 1053SOL     OW10016   4.173   5.378   0.156 -0.4723  0.2056  0.7025
 1053SOL    HW110017   4.267   5.386   0.141 -0.6110 -0.1512 -0.4878
 1053SOL    HW210018   4.147   5.300   0.106 -1.6551  1.2332 -0.3937
 1054SOL     OW10019   9.193   6.372   2.947 -0.3776 -0.2850  0.4566
 1054SOL    HW110020   9.257   6.393   2.879 -0.1711 -1.3633  0.3007
 1054SOL    HW210021   9.235   6.398   3.028 -1.1433  2.2419  0.1224
 1055SOL     OW10022   0.782   8.424   1.759 -0.0895 -0.6462  0.2822
 1055SOL    HW110023   0.843   8.377   1.702  1.1699  0.3697  0.7523
 1055SOL    HW210024   0.746   8.356   1.817  0.7239 -1.2303  0.1199
 1056SOL     OW10025   4.893   5.217   3.539  0.8482  0.0398  0.0241
 1056SOL    HW110026   4.827   5.255   3.597 -0.5553 -2.3376  0.1223
 1056SOL    HW210027   4.871   5.250   3.452 -0.4502 -0.6568  0.0699
 1057SOL     OW10028   7.897  11.999   4.762 -0.3541 -0.5117 -0.0767
 1057SOL    HW110029   7.828  12.055   4.728  0.0660  1.0311  1.4602
 1057SOL    HW210030   7.970  12.012   4.701 -0.5191  0.0025 -0.1712
 1058SOL     OW10031   3.627   2.338   0.001  0.0175 -0.2657  0.5448
 1058SOL    HW110032   3.532   2.349  -0.004  0.1154  0.2287 -1.4808
 1058SOL    HW210033   3.643   2.296   0.085 -2.1555 -1.9184  0.2177
 1059SOL     OW10034   5.853   6.555  11.601  0.3691 -0.1944  0.3059
 1059SOL    HW110035   5.832   6.531  11.691 -0.5517 -1.3289 -0.1889
 1059SOL    HW210036   5.931   6.504  11.579 -1.0470 -2.1578 -0.4366
 1060SOL     OW10037   6.140  10.086   3.377 -0.0121  0.1551 -0.3010
 1060SOL    HW110038   6.132  10.060   3.469  0.0169  1.1606 -0.0026
 1060SOL    HW210039   6.158  10.004   3.331  0.6823 -0.2662  0.6758
 1061SOL     OW10040   5.890   8.685   8.946  0.6912  0.4133 -0.0857
 1061SOL    HW110041   5.809   8.681   8.996  1.2251 -1.2664  0.6994
 1061SOL    HW210042   5.862   8.689   8.854 -0.2754 -0.0768  0.1817
 1062SOL     OW10043   7.666   3.267   7.187  0.0725 -0.0529  0.0893
 1062SOL    HW110044   7.664   3.322   7.265  0.0510 -0.5254  0.4211
 1062SOL    HW210045   7.722   3.316   7.126 -1.1810  1.0905 -0.1978
 1063SOL     OW10046  12.003   5.531   0.636 -0.0581  0.5555  0.5872
 1063SOL    HW110047  11.948   5.592   0.685  0.8294  2.2907 -0.4807
 1063SOL    HW210048  12.092   5.564   0.648  0.0682  2.5874 -3.9786
 1064SOL     OW10049   2.637   3.390   2.507  0.5027  0.0411  0.0033
 1064SOL    HW110050   2.647   3.388   2.412 -1.0827  0.3732 -0.2126
 1064SOL    HW210051   2.673   3.307   2.538 -0.4770 -0.8305 -1.0853
 1065SOL     OW10052  10.126   6.644  10.903  0.1087 -0.0479 -0.8515
 1065SOL    HW110053  10.086   6.563  10.871  0.6488 -0.7243  0.1529
 1065SOL    HW210054  10.056   6.687  10.954  0.1872 -0.4693 -0.3872
 1066SOL     OW10055   9.578   0.381   7.412  0.1023 -0.3440 -0.4479
 1066SOL    HW110056   9.641   0.439   7.455  0.6311 -0.2495 -1.3250
 1066SOL    HW210057   9.526   0.440   7.356 -1.4537 -0.2637  1.0098
 1067SOL     OW10058   1.318  10.682   1.200  0.1419  0.6303  0.0591
 1067SOL    HW110059   1.242  10.627   1.183  1.0011 -0.4536 -0.4058
 1067SOL    HW210060   1.308  10.757   1.142 -0.4726  0.3992 -0.1353
 1068SOL     OW10061   1.983   4.600   8.833  0.3210  0.1380 -0.2794
 1068SOL    HW110062   1.998   4.681   8.784 -1.2361  0.7863  0.2508
 1068SOL    HW210063   1.946   4.629   8.916  0.8528 -1.0739  0.4091
 1069SOL     OW10064   0.383   5.075   8.234  0.2997  0.4926  0.5358
 1069SOL    HW110065   0.337   5.086   8.317 -0.7508  3.3018 -0.2786
 1069SOL    HW210066   0.346   4.996   8.195 -1.8036  1.0935  1.2001
 1070SOL     OW10067   9.622   0.191  10.297  0.1761  0.4599  0.2273
 1070SOL    HW110068   9.641   0.267  10.353 -0.0882  0.7475 -0.0670
 1070SOL    HW210069   9.682   0.200  10.224  0.2405  0.3070  0.2623
 1071SOL     OW10070   3.874   4.849   5.838 -0.6793  0.2525 -0.0473
 1071SOL    HW110071   3.891   4.939   5.866 -0.6534  0.6855 -1.3896
 1071SOL    HW210072   3.781   4.834   5.857 -0.8784  0.8397 -0.5611
 1072SOL     OW10073  10.699   1.512   0.609 -0.3689  0.4812  0.4726
 1072SOL    HW110074  10.636   1.540   0.542  1.5633 -0.5655 -1.9459
 1072SOL    HW210075  10.693   1.416   0.608  0.5623  0.4111  0.9198
 1073SOL     OW10076   3.546   2.429   7.093 -0.2529  0.3705  0.2524
 1073SOL    HW110077   3.582   2.499   7.040 -1.3254  0.8493  0.1231
 1073SOL    HW210078   3.586   2.349   7.058 -1.7572  0.5317 -2.1122
 1074SOL     OW10079  11.854   5.288   1.684  0.1943 -0.2818  0.3876
 1074SOL    HW110080  11.862   5.232   1.761 -1.5509 -2.1703 -0.6878
 1074SOL    HW210081  11.922   5.257   1.624  0.2111 -0.2155  0.3717
 1075SOL     OW10082   6.711   1.560   2.020  0.4431 -0.4077  0.2324
 1075SOL    HW110083   6.729   1.610   1.941  0.4817 -0.1282  0.4181
 1075SOL    HW210084   6.736   1.618   2.092 -0.0290 -0.4854  0.4639
 1076SOL     OW10085   8.305   3.840   5.210 -0.1686 -0.2018 -0.1304
 1076SOL    HW110086   8.395   3.839   5.177  0.0725 -0.1666  0.5068
 1076SOL    HW210087   8.311   3.798   5.295 -0.6026  0.5799  0.2981
 1077SOL     OW10088  10.931  12.407   0.695 -0.9116 -0.2002  0.0883
 1077SOL    HW110089  10.857  12.404   0.755 -1.6778  2.1946 -0.6163
 1077SOL    HW210090  10.898  12.453   0.618  0.5535 -1.5522 -1.4624
 1078SOL     OW10091   4.081   3.078   9.870  0.1050  0.1590  0.8676
 1078SOL    HW110092   4.147   3.012   9.851 -0.5850 -0.1368 -0.7421
 1078SOL    HW210093   4.037   3.092   9.786 -0.6375  1.7089  1.4735
 1079SOL     OW10094   6.321   6.958  10.168  0.0393 -0.1179 -0.0347
 1079SOL    HW110095   6.271   6.877  10.174 -0.9574  0.5671  2.4462
 1079SOL    HW210096   6.411   6.930  10.153 -0.6506 -1.4969 -2.0856
 1080SOL     OW10097   0.579   9.014   7.999  0.5272  0.4901  0.5971
 1080SOL    HW110098   0.568   8.937   8.055 -0.9416 -0.9341 -1.4538
 1080SOL    HW210099   0.491   9.051   7.992  0.0609 -0.8430 -2.5571
 1081SOL     OW10100   5.674   3.506  10.180 -0.2923  0.0824 -0.3394
 1081SOL    HW110101   5.709   3.554  10.106 -0.2397  1.8646  0.7966
 1081SOL    HW210102   5.582   3.491  10.157  0.0649 -0.7132 -1.3741
 1082SOL     OW10103   5.433  11.219   5.366 -0.4381 -0.4436 -0.1618
 1082SOL    HW110104   5.342  11.195   5.384 -0.3908 -0.7718 -0.3533
 1082SOL    HW210105   5.454  11.172   5.285  0.3721 -1.5438  0.6602
 1083SOL     OW10106   6.640   3.404  10.345 -0.4212  0.3344 -0.7056
 1083SOL    HW110107   6.633   3.415  10.440 -4.8436 -0.1758 -0.7518
 1083SOL    HW210108   6.710   3.464  10.318  0.2972  1.2193  2.7349
 1084SOL     OW10109   7.295   7.232  10.954  0.1562  0.0031 -0.1070
 1084SOL    HW110110   7.345   7.193  10.882 -0.2154 -0.8720  0.0949
 1084SOL    HW210111   7.231   7.289  10.911  0.0430 -0.3899 -0.4659
 1085SOL     OW10112   9.779   7.241  10.477  0.5710 -0.5876  0.3259
 1085SOL    HW110113   9.738   7.175  10.533  0.4562 -0.3311  0.5425
 1085SOL    HW210114   9.765   7.208  10.388 -1.9953  0.5324  0.2288
 1086SOL     OW10115   7.135   2.364  11.076 -0.4946 -0.0342  0.8255
 1086SOL    HW110116   7.198   2.295  11.053  0.7688  1.1262  0.6751
 1086SOL    HW210117   7.114   2.407  10.993 -2.5814 -1.2463  0.6599
 1087SOL     OW10118   5.678   6.335   7.559 -0.4667 -0.1222  0.1269
 1087SOL    HW110119   5.695   6.263   7.498  0.2097  0.2938 -0.1835
 1087SOL    HW210120   5.638   6.403   7.505 -1.8669 -0.5502  0.5753
 1088SOL     OW10121   7.460   8.680   5.755  0.6248  0.1080 -0.3860
 1088SOL    HW110122   7.508   8.728   5.823  1.4692 -1.1862 -0.0445
 1088SOL    HW210123   7.490   8.720   5.673 -1.1645  2.3872 -0.0593
 1089SOL     OW10124   0.172   2.093   0.724  0.1125 -0.4485  0.1174
 1089SOL    HW110125   0.242   2.063   0.783 -0.4483 -0.0263  1.0105
 1089SOL    HW210126   0.140   2.174   0.763 -0.8470 -0.6046 -0.3196
 1090SOL     OW10127  10.955   3.707   6.468 -0.3228 -1.0625 -0.8097
 1090SOL    HW110128  10.989   3.789   6.504 -0.4011 -1.1524 -0.5231
 1090SOL    HW210129  11.007   3.639   6.511 -1.3478 -1.2391  0.1943
 1091SOL     OW10130  12.006   1.541   9.820 -0.0584 -0.2382 -0.2355
 1091SOL    HW110131  11.976   1.508   9.905  1.3140 -0.8744  0.0333
 1091SOL    HW210132  12.099   1.520   9.818  0.6729  2.6000 -0.5542
 1092SOL     OW10133   8.764   3.060   6.579  0.3418 -0.0266  0.6409
 1092SOL    HW110134   8.809   3.106   6.507 -1.4349  0.7960  0.0166
 1092SOL    HW210135   8.676   3.095   6.579 -0.3797 -1.7057  1.7509
 1093SOL     OW10136   4.684   6.396   6.892  0.0456 -0.4703  0.5380
 1093SOL    HW110137   4.717   6.307   6.893 -1.8195 -1.2419  2.6524
 1093SOL    HW210138   4.731   6.440   6.963  0.2002 -0.0768  0.1969
 1094SOL     OW10139   3.210  11.284   0.323  0.1841  0.0549  0.4867
 1094SOL    HW110140   3.161  11.358   0.360 -1.0593 -0.0132 -0.9264
 1094SOL    HW210141   3.299  11.318   0.313 -0.4359  1.5391 -0.4703
 1095SOL     OW10142  10.831   2.537   4.943 -0.3969 -0.5877  1.1299
 1095SOL    HW110143  10.784   2.520   4.861  0.0942 -0.6721  0.8595
 1095SOL    HW210144  10.795   2.620   4.974  0.4186  0.2126  0.0624
 1096SOL     OW10145   4.014   3.597   7.933  0.0057  0.1437  0.3019
 1096SOL    HW110146   4.060   3.513   7.926 -1.1450 -0.3343 -2.5060
 1096SOL    HW210147   4.009   3.630   7.844 -2.2844  1.7219  0.9187
 1097SOL     OW10148   1.612  10.439   3.594 -0.2095 -0.2109  0.2700
 1097SOL    HW110149   1.563  10.364   3.560 -0.0909 -0.2361  0.1560
 1097SOL    HW210150   1.612  10.426   3.689  1.5429 -1.4566  0.1482
 1098SOL     OW10151   8.140   0.745   0.266  0.0872  0.0536 -0.4831
 1098SOL    HW110152   8.110   0.791   0.345  0.9242 -1.5501  0.8214
 1098SOL    HW210153   8.064   0.744   0.208 -0.4489  1.5636  0.1404
 1099SOL     OW10154  12.351  12.138   9.119  0.5251  0.7599  0.1923
 1099SOL    HW110155  12.402  12.083   9.060  2.0183  1.1051  1.1025
 1099SOL    HW210156  12.334  12.218   9.069 -0.9562 -0.1580 -0.8428
 1100SOL     OW10157   2.845   8.380   6.606 -0.1699  0.3388  0.6190
 1100SOL    HW110158   2.848   8.353   6.514 -2.7704 -0.2777  0.6403
 1100SOL    HW210159   2.884   8.307   6.654 -0.6764 -0.2677  0.1303
 1101SOL     OW10160  12.337   2.129   4.342  0.0472  0.1218 -0.5620
 1101SOL    HW110161  12.389   2.061   4.299  4.3266  2.1434  0.8861
 1101SOL    HW210162  12.323   2.095   4.431  4.7100  1.8974  1.1445
 1102SOL     OW10163   8.900   4.420  12.301  0.0826  0.0932 -0.0479
 1102SOL    HW110164   8.929   4.468  12.224  2.9814  1.1774  1.5587
 1102SOL    HW210165   8.927   4.329  12.285  0.9117  0.3650 -0.2278
 1103SOL     OW10166   6.544   9.742   3.960  0.3633 -0.1916 -0.2405
 1103SOL    HW110167   6.618   9.695   3.998  0.9514  0.4846 -0.5212
 1103SOL    HW210168   6.582   9.822   3.924 -0.4227 -0.0885 -0.8813
 1104SOL     OW10169  10.116   8.507   0.241 -0.1375 -0.4100 -0.1973
 1104SOL    HW110170  10.171   8.568   0.290 -1.9405  0.7099  0.5532
 1104SOL    HW210171  10.127   8.534   0.149  2.7418 -2.0929 -0.4440
 1105SOL     OW10172   4.246   0.497  10.921 -0.2335  0.4064  0.0937
 1105SOL    HW110173   4.332   0.483  10.881  1.1995  2.5650  2.1251
 1105SOL    HW210174   4.237   0.425  10.984 -1.1080 -1.2342 -1.8205
 1106SOL     OW10175   6.741   5.997   4.144 -0.7412 -0.0361  0.9930
 1106SOL    HW110176   6.698   5.937   4.204 -1.6181 -0.6487 -0.1878
 1106SOL    HW210177   6.833   5.972   4.146 -0.9570 -0.8337  1.1975
 1107SOL     OW10178  12.234   6.271   2.312  0.0853  0.0774  0.6588
 1107SOL    HW110179  12.235   6.366   2.310  0.4410  0.0736  0.6723
 1107SOL    HW210180  12.243   6.245   2.220 -0.3229  0.0570  0.6210
 1108SOL     OW10181   7.623   7.076   0.247  0.1071  0.3352 -0.2563
 1108SOL    HW110182   7.618   6.980   0.250  0.5199  0.3383  1.6813
 1108SOL    HW210183   7.716   7.096   0.256 -0.0111  0.9291 -0.2907
 1109SOL     OW10184   9.676  11.239   5.665 -0.5592 -0.5657  0.0667
 1109SOL    HW110185   9.586  11.208   5.669 -0.4661 -0.8970 -0.2700
 1109SOL    HW210186   9.670  11.325   5.624 -0.7116 -0.6546 -0.1019
 1110SOL     OW10187   8.561   9.043  10.305  0.8901  0.0064  0.3021
 1110SOL    HW110188   8.613   8.992  10.367  0.6402 -2.6192 -1.5007
 1110SOL    HW210189   8.612   9.044  10.225 -0.8887 -0.9576 -0.9238
 1111SOL     OW10190   3.273   0.273   5.070 -0.2488 -0.6671  0.1788
 1111SOL    HW110191   3.278   0.181   5.045 -1.1116 -0.6306 -0.1772
 1111SOL    HW210192   3.180   0.296   5.058  0.3877  0.9597 -2.2266
 1112SOL     OW10193   7.779   0.649   0.482 -0.1123  0.3154  0.0197
 1112SOL    HW110194   7.761   0.742   0.495 -2.6258 -0.0625 -0.3184
 1112SOL    HW210195   7.703   0.604   0.519  1.0762 -1.6370  0.2521
 1113SOL     OW10196   1.199   9.777   7.021 -0.0380  0.8143 -0.3879
 1113SOL    HW110197   1.277   9.825   7.050  0.6060 -0.2752 -0.2597
 1113SOL    HW210198   1.215   9.687   7.048 -0.9886  0.4202 -1.0825
 1114SOL     OW10199   8.631   5.831  11.749 -0.1445 -0.0660  0.3412
 1114SOL    HW110200   8.669   5.789  11.827 -0.2360 -1.1688 -0.1924
 1114SOL    HW210201   8.631   5.924  11.770  0.4889 -0.2830  1.3830
 1115SOL     OW10202   8.439   9.117   0.189  0.0885  0.7749 -0.0457
 1115SOL    HW110203   8.508   9.050   0.184 -0.0666  0.4642  1.5315
 1115SOL    HW210204   8.485   9.200   0.181  0.7904  0.6074  1.8588
 1116SOL     OW10205   6.475   5.911   5.684 -0.0364  0.5319  0.0219
 1116SOL    HW110206   6.462   5.873   5.771 -0.5463 -1.5535 -0.9020
 1116SOL    HW210207   6.451   6.003   5.694  0.1245  0.3832  2.1263
 1117SOL     OW10208  12.049   0.600   0.898 -0.6115  0.2511  0.2814
 1117SOL    HW110209  11.996   0.585   0.976 -1.6615  0.0209 -0.4615
 1117SOL    HW210210  12.019   0.535   0.835  0.3048  0.3563 -0.2879
 1118SOL     OW10211   6.650   4.605  12.346 -0.4308 -0.1199  0.2219
 1118SOL    HW110212   6.687   4.579  12.430 -1.2177 -0.3168  0.5086
 1118SOL    HW210213   6.557   4.583  12.352 -0.7307  0.9645 -0.2551
 1119SOL     OW10214   8.426   5.451  10.970  0.2314 -0.1030  0.5142
 1119SOL    HW110215   8.508   5.487  10.937 -1.3174  1.7273 -1.6882
 1119SOL    HW210216   8.400   5.510  11.040  0.9210 -0.8947  1.4634
 1120SOL     OW10217   7.893   8.729   6.672 -0.1783 -0.4116  0.6244
 1120SOL    HW110218   7.944   8.790   6.620  0.4272 -0.4285  1.1891
 1120SOL    HW210219   7.919   8.642   6.640  0.1206 -0.4186  0.8762
 1121SOL     OW10220   3.335   1.288   9.330  1.1916 -0.1913 -1.0729
 1121SOL    HW110221   3.354   1.359   9.391 -0.0930  0.2656 -1.1825
 1121SOL    HW210222   3.341   1.328   9.243 -1.5377  0.3783 -1.1005
 1122SOL     OW10223  10.225  11.249   1.476  0.1703  0.5931  0.1572
 1122SOL    HW110224  10.273  11.183   1.526  0.7113 -0.1946 -1.3272
 1122SOL    HW210225  10.285  11.323   1.468  0.4820  0.2970 -0.2320
 1123SOL     OW10226   6.470   5.731  10.941 -0.0998 -0.0485  0.0939
 1123SOL    HW110227   6.413   5.773  10.876 -1.2838  0.8369  1.6588
 1123SOL    HW210228   6.529   5.676  10.888 -1.2659  0.3259 -1.6930
 1124SOL     OW10229   1.917   8.658   7.926  0.2681 -0.9783  0.4786
 1124SOL    HW110230   1.845   8.658   7.862  0.1563  0.8647  0.5254
 1124SOL    HW210231   1.874   8.643   8.010  0.0872 -1.0813  0.3687
 1125SOL     OW10232   9.939   6.239   4.796 -0.0431  0.3690 -0.2693
 1125SOL    HW110233  10.011   6.239   4.858  0.8937 -0.4022 -1.3009
 1125SOL    HW210234   9.884   6.312   4.822 -0.2904 -0.5722  2.1297
 1126SOL     OW10235   9.395   8.529   7.330 -0.2582  0.4394 -0.0379
 1126SOL    HW110236   9.479   8.559   7.364 -0.7723  0.7803  0.9581
 1126SOL    HW210237   9.340   8.607   7.328 -0.6499  0.1592 -0.3775
 1127SOL     OW10238   8.148   2.803   4.298 -0.5260  0.7895 -0.1791
 1127SOL    HW110239   8.108   2.837   4.218 -1.8570  2.9668  1.3045
 1127SOL    HW210240   8.074   2.779   4.354  0.3796 -0.9586  0.3631
 1128SOL     OW10241   8.620   1.060   8.711  0.2433  0.7630 -0.3733
 1128SOL    HW110242   8.589   1.096   8.794  0.1941  0.3542 -0.2151
 1128SOL    HW210243   8.714   1.048   8.723  0.0738 -0.2571 -0.0176
 1129SOL     OW10244   9.315   4.594   9.284  0.3532 -0.1640 -0.5828
 1129SOL    HW110245   9.381   4.571   9.218  1.3998 -0.7939  0.6277
 1129SOL    HW210246   9.344   4.678   9.318  0.9539 -0.7595  0.4309
 1130SOL     OW10247   7.268   6.077  11.855 -0.3172  0.2010  0.1672
 1130SOL    HW110248   7.321   6.149  11.889  0.1312  0.1845 -0.4858
 1130SOL    HW210249   7.234   6.110  11.772  0.0175 -0.3980 -0.2116
 1131SOL     OW10250   7.744  10.919  10.930  0.1108  0.3667 -0.9256
 1131SOL    HW110251   7.751  10.976  11.007 -0.5502  0.0578 -0.6354
 1131SOL    HW210252   7.803  10.846  10.950 -2.3012 -1.2798  0.6914
 1132SOL     OW10253  11.172   2.191  10.989 -0.3213  0.3915 -0.4419
 1132SOL    HW110254  11.201   2.190  10.898  1.3525 -0.4338  0.0495
 1132SOL    HW210255  11.220   2.263  11.029 -0.4422  0.2567 -0.0416
 1133SOL     OW10256   6.952   3.862   2.606 -0.2461 -0.2815  0.2148
 1133SOL    HW110257   6.929   3.955   2.599  0.1308 -0.2822 -1.4191
 1133SOL    HW210258   6.898   3.830   2.677  0.1530  1.3525  1.3229
 1134SOL     OW10259   2.838   8.173   4.961 -0.3501  0.3729  0.3616
 1134SOL    HW110260   2.881   8.088   4.960  0.2217  0.5928  2.2389
 1134SOL    HW210261   2.802   8.183   4.873 -0.8431 -1.9942  0.2488
 1135SOL     OW10262   1.337   5.078   3.321 -0.3710 -0.0074  0.0387
 1135SOL    HW110263   1.299   5.070   3.234  1.6327 -0.5330 -0.8369
 1135SOL    HW210264   1.291   5.013   3.374 -0.6098 -0.7163 -1.0158
 1136SOL     OW10265   1.153   4.237   8.124 -0.4543 -0.7033  0.2979
 1136SOL    HW110266   1.183   4.216   8.035  0.2565  0.5506  0.2197
 1136SOL    HW210267   1.077   4.180   8.137  0.2250 -1.8741 -0.6025
 1137SOL     OW10268   0.859   1.075   2.221 -0.4094  0.0399  0.1308
 1137SOL    HW110269   0.895   1.144   2.276 -0.9331 -1.0305  1.8789
 1137SOL    HW210270   0.935   1.031   2.184 -0.0587  1.8890 -1.5635
 1138SOL     OW10271   3.294  11.973   6.567  0.7351 -0.0696 -0.4891
 1138SOL    HW110272   3.389  11.975   6.580  0.4000 -0.1818  2.8567
 1138SOL    HW210273   3.263  12.054   6.607 -0.7221 -1.0702  0.4931
 1139SOL     OW10274  11.269   6.018   1.986  0.1224 -0.2218  0.5841
 1139SOL    HW110275  11.306   5.973   1.910  0.0941 -0.8693  0.9476
 1139SOL    HW210276  11.320   6.098   1.993 -0.0690 -0.0040 -0.2935
 1140SOL     OW10277   6.680  10.986   7.760  0.5967 -0.4572  0.0706
 1140SOL    HW110278   6.591  10.961   7.785  1.5968 -2.7378  1.7380
 1140SOL    HW210279   6.685  10.966   7.667 -0.1860 -1.8537  0.3006
 1141SOL     OW10280   3.314   1.236   8.845 -0.6031 -0.1471  0.2000
 1141SOL    HW110281   3.331   1.142   8.849 -1.2530 -0.2388  1.2983
 1141SOL    HW210282   3.298   1.261   8.936 -0.4420  1.0327 -0.0771
 1142SOL     OW10283   5.401   1.481   7.548 -0.3149  0.1512 -0.1456
 1142SOL    HW110284   5.325   1.508   7.496 -0.6474 -1.4860 -0.5704
 1142SOL    HW210285   5.365   1.425   7.617  0.4034  0.1093  0.2083
 1143SOL     OW10286   1.528  10.040   8.104  0.2089  0.3229  0.5847
 1143SOL    HW110287   1.491   9.991   8.031  0.8349  0.5518  0.1063
 1143SOL    HW210288   1.516  10.132   8.080 -1.1398  0.4481  1.5653
 1144SOL     OW10289   0.367   2.857   2.547  0.1137  0.4220  0.0385
 1144SOL    HW110290   0.327   2.821   2.626 -1.8405  2.4856  0.1053
 1144SOL    HW210291   0.422   2.928   2.579 -0.3281  0.9697 -0.4021
 1145SOL     OW10292   1.687   1.803   4.250  0.0428 -0.3167  0.0269
 1145SOL    HW110293   1.639   1.759   4.320  0.6767 -0.1874  0.5430
 1145SOL    HW210294   1.724   1.732   4.198  2.3016 -0.4446  1.7000
 1146SOL     OW10295   4.142   1.751   8.140 -0.5380 -0.8276 -0.6232
 1146SOL    HW110296   4.114   1.721   8.227  0.0595  0.0320 -0.1146
 1146SOL    HW210297   4.171   1.671   8.096  1.2687 -1.0416  0.8001
 1147SOL     OW10298   4.039   5.067   0.467  0.1833  0.1724 -0.4608
 1147SOL    HW110299   4.039   5.017   0.385 -2.8842  0.5627 -0.8382
 1147SOL    HW210300   4.028   5.158   0.439 -2.0603  0.2025  0.3168
 1148SOL     OW10301   1.285   6.333  11.254 -0.7451 -0.1328  0.0541
 1148SOL    HW110302   1.320   6.269  11.316 -1.4838 -0.8949 -0.2949
 1148SOL    HW210303   1.270   6.283  11.174  0.3360  0.8764 -0.8009
 1149SOL     OW10304   4.175   3.716   6.969  0.2572 -0.1649 -0.3086
 1149SOL    HW110305   4.250   3.677   6.926  0.3870 -0.3026  0.0392
 1149SOL    HW210306   4.167   3.668   7.052  1.2145  1.3854  0.7299
 1150SOL     OW10307  10.686   1.355  11.927  0.7419 -0.1054 -0.5756
 1150SOL    HW110308  10.776   1.332  11.905  0.7891 -0.2536 -0.2372
 1150SOL    HW210309  10.645   1.373  11.843  0.4189 -2.4430 -0.9964
 1151SOL     OW10310   7.727   6.216  10.925 -0.0095 -0.1505 -0.4029
 1151SOL    HW110311   7.771   6.149  10.872  0.1233 -0.9990  0.7458
 1151SOL    HW210312   7.799   6.265  10.965 -0.1001 -0.4416  0.1235
 1152SOL     OW10313   5.965   6.696   5.365  0.3842  0.0304 -0.0707
 1152SOL    HW110314   6.037   6.648   5.323 -0.5811 -0.7490 -0.8811
 1152SOL    HW210315   5.951   6.772   5.310  0.0542 -0.2551 -0.3912
 1153SOL     OW10316  11.025   8.158   9.336  0.1909 -0.2610  0.1286
 1153SOL    HW110317  10.952   8.104   9.365  0.1051 -0.6214 -0.7071
 1153SOL    HW210318  11.050   8.209   9.413 -1.3041  0.2932  0.2824
 1154SOL     OW10319   6.973   5.740   1.641  0.1335  0.3484 -0.5304
 1154SOL    HW110320   7.052   5.767   1.686  0.7733 -2.8697  0.5296
 1154SOL    HW210321   6.996   5.741   1.548  0.4221  2.2059 -0.4711
 1155SOL     OW10322   9.308   0.179   3.745 -0.5723  0.6781  0.7918
 1155SOL    HW110323   9.366   0.139   3.680  0.8175  1.0460  1.7684
 1155SOL    HW210324   9.283   0.106   3.803 -0.4210  0.6684  0.8454
 1156SOL     OW10325   9.012   0.297   7.181 -0.0200 -0.0597 -0.0387
 1156SOL    HW110326   9.023   0.389   7.203 -0.8058 -0.2402  1.1729
 1156SOL    HW210327   9.097   0.257   7.203  0.3879  0.3868 -0.7490
 1157SOL     OW10328   2.942   5.083   3.927  0.8503 -0.0053  0.3547
 1157SOL    HW110329   2.935   5.116   4.016  1.0425 -1.1608  0.8209
 1157SOL    HW210330   3.029   5.043   3.922  0.3633 -1.0798  0.0714
 1158SOL     OW10331   7.218   9.592   9.201  0.7053  0.2983 -0.4563
 1158SOL    HW110332   7.239   9.530   9.131  1.2535  2.0327 -1.8822
 1158SOL    HW210333   7.255   9.551   9.280 -0.1492 -1.8178 -1.0680
 1159SOL     OW10334   2.361   9.838  10.146  0.2328 -0.0223 -0.0291
 1159SOL    HW110335   2.411   9.914  10.115  1.1086 -0.6326 -0.1568
 1159SOL    HW210336   2.427   9.780  10.185 -0.5381 -0.3146  0.9037
 1160SOL     OW10337   7.761   2.028   5.682  0.3878 -0.3298  0.7529
 1160SOL    HW110338   7.836   1.972   5.661  1.0773  0.1251  1.9197
 1160SOL    HW210339   7.759   2.031   5.778 -0.7494  0.1622  0.7261
 1161SOL     OW10340   0.798   4.194   7.824 -0.8984 -0.0736  0.0548
 1161SOL    HW110341   0.841   4.116   7.857 -0.6539 -1.1710 -2.6127
 1161SOL    HW210342   0.704   4.173   7.826 -1.3306  1.4943  3.8125
 1162SOL     OW10343   9.370   4.022  12.318 -0.0281  0.4726 -0.3195
 1162SOL    HW110344   9.305   4.027  12.248 -0.2663  0.0479 -0.1337
 1162SOL    HW210345   9.380   3.928  12.335 -0.5167  0.5871  0.7080
 1163SOL     OW10346  10.708   1.158  11.367  0.3624  0.1161 -0.9353
 1163SOL    HW110347  10.731   1.226  11.431  0.3200 -2.1647  1.6605
 1163SOL    HW210348  10.614   1.168  11.354  0.5800  1.4373 -1.7813
 1164SOL     OW10349   6.901   4.422   7.893 -0.3860 -0.0178  0.6694
 1164SOL    HW110350   6.883   4.328   7.894 -1.9974  0.2583  0.5916
 1164SOL    HW210351   6.996   4.428   7.883  0.0579 -1.6411  3.0364
 1165SOL     OW10352  10.772   7.376   1.776  0.3177  0.0885 -0.4235
 1165SOL    HW110353  10.722   7.340   1.702 -0.9984  1.4321 -0.2459
 1165SOL    HW210354  10.795   7.299   1.829 -2.9323 -0.5458  0.2922
 1166SOL     OW10355   3.116   9.159   8.589 -0.3377  0.0829  0.4934
 1166SOL    HW110356   3.193   9.150   8.645  0.1279  0.3167 -0.0924
 1166SOL    HW210357   3.046   9.188   8.648  0.2733  0.8392  0.8539
 1167SOL     OW10358  10.471   4.530   3.457  0.1855 -0.3907  0.1251
 1167SOL    HW110359  10.421   4.453   3.433 -1.6131  0.9189 -0.5830
 1167SOL    HW210360  10.444   4.550   3.546 -0.5526  0.2695 -0.2286
 1168SOL     OW10361  12.503   3.260   0.072 -0.2761 -0.4090 -0.3467
 1168SOL    HW110362  12.527   3.253   0.164 -1.4399  0.8720  0.0912
 1168SOL    HW210363  12.586   3.258   0.025  0.6521  2.1922  0.9738
 1169SOL     OW10364   0.298  12.573   3.438  0.1136  0.0014 -0.9920
 1169SOL    HW110365   0.380  12.582   3.486 -0.0275  0.2988 -0.8038
 1169SOL    HW210366   0.267  12.663   3.428 -0.3979 -0.1411 -0.6989
 1170SOL     OW10367  11.298  10.414   9.221 -0.3672 -0.3548  0.7059
 1170SOL    HW110368  11.278  10.362   9.143  1.0954  0.0150  0.0493
 1170SOL    HW210369  11.231  10.389   9.285 -1.4673 -0.8218 -0.5905
 1171SOL     OW10370   5.316  11.549  10.368  0.0982  0.6373  0.3169
 1171SOL    HW110371   5.234  11.500  10.377 -0.2338  1.0438 -0.3919
 1171SOL    HW210372   5.312  11.613  10.439  0.6795 -0.5317  1.4383
 1172SOL     OW10373   8.581  10.381  11.745 -0.3319 -0.5150 -0.0587
 1172SOL    HW110374   8.614  10.401  11.833  0.4875  0.2176 -0.5136
 1172SOL    HW210375   8.633  10.306  11.716  0.4027  0.1351 -0.4608
 1173SOL     OW10376  11.298   3.319   9.386  0.5100 -0.0303  0.1675
 1173SOL    HW110377  11.338   3.394   9.343  0.1851 -0.4990 -0.9973
 1173SOL    HW210378  11.371   3.259   9.402  0.8396  0.6790  1.4890
 1174SOL     OW10379  12.405   6.531   8.682 -0.3333 -0.1034  0.1143
 1174SOL    HW110380  12.347   6.476   8.629 -1.0572  1.1891 -0.4836
 1174SOL    HW210381  12.362   6.616   8.683  2.9367  1.8109 -2.8569
 1175SOL     OW10382  11.233   5.374   4.038  0.0922 -0.3238  0.1433
 1175SOL    HW110383  11.198   5.433   3.971 -0.5856  0.1029  0.8630
 1175SOL    HW210384  11.157   5.328   4.072  0.0734  1.1928  2.2956
 1176SOL     OW10385   4.772   3.666   7.088  0.2486  0.0867 -0.4115
 1176SOL    HW110386   4.759   3.591   7.031  1.3541 -0.9995  0.6900
 1176SOL    HW210387   4.863   3.691   7.074  0.1083  0.7226 -0.1934
 1177SOL     OW10388   0.647   4.707   8.558 -0.3812 -0.5373 -0.0104
 1177SOL    HW110389   0.625   4.797   8.534 -1.4496 -0.2720  1.7111
 1177SOL    HW210390   0.691   4.715   8.642  0.0393 -1.5930 -0.1166
 1178SOL     OW10391  10.875   2.853   7.946  0.2334 -0.3507  0.7352
 1178SOL    HW110392  10.822   2.906   8.004  0.3768 -1.5643  2.0314
 1178SOL    HW210393  10.833   2.861   7.860 -0.0622  1.3576  1.0179
 1179SOL     OW10394   7.501   1.692   2.572 -0.6090 -0.1078 -0.4877
 1179SOL    HW110395   7.416   1.735   2.582 -1.4919 -1.6832 -0.7882
 1179SOL    HW210396   7.548   1.714   2.652 -1.2205  0.9296 -0.3889
 1180SOL     OW10397   6.212  11.872  10.431  0.2187 -0.0060 -0.6158
 1180SOL    HW110398   6.141  11.877  10.494 -0.0804  0.1754 -0.9653
 1180SOL    HW210399   6.277  11.815  10.472  0.0387  0.1336 -0.1358
 1181SOL     OW10400   1.799   0.615   1.624  0.4804  0.1193  0.2930
 1181SOL    HW110401   1.721   0.670   1.621  0.3909 -0.0186  0.0695
 1181SOL    HW210402   1.765   0.525   1.627  0.6182  0.0828  0.9597
 1182SOL     OW10403  10.994   7.877   0.475  0.2034  0.1227  0.4454
 1182SOL    HW110404  10.980   7.929   0.396  0.4782  1.5049  1.2831
 1182SOL    HW210405  10.911   7.882   0.522  0.3718  0.1772  0.7396
 1183SOL     OW10406   8.019   2.624   4.946  1.0158 -0.4786  0.0019
 1183SOL    HW110407   8.058   2.575   4.874 -0.4192 -0.1994 -1.0077
 1183SOL    HW210408   8.077   2.699   4.957  2.2276 -1.4330  0.3568
 1184SOL     OW10409   9.817   8.284  10.917 -0.2491  0.2499  0.4230
 1184SOL    HW110410   9.900   8.313  10.955  0.4577 -0.1057 -0.7729
 1184SOL    HW210411   9.791   8.209  10.971  1.1125 -0.7056 -0.1760
 1185SOL     OW10412   7.954   0.343   2.793 -0.1491  0.0387 -0.0506
 1185SOL    HW110413   7.911   0.426   2.775 -1.3195 -0.1439  1.6196
 1185SOL    HW210414   7.953   0.297   2.709  2.5812  2.5140 -1.6163
 1186SOL     OW10415   3.727   5.264   8.466 -0.4451  0.3229 -0.5159
 1186SOL    HW110416   3.763   5.344   8.429 -0.0538  0.3140 -0.1681
 1186SOL    HW210417   3.654   5.241   8.409  1.1487 -0.6118 -2.2862
 1187SOL     OW10418  11.504  10.636   3.589 -0.0195 -0.7685  1.0678
 1187SOL    HW110419  11.417  10.601   3.572  0.1068 -0.5393 -0.1421
 1187SOL    HW210420  11.492  10.697   3.661 -1.0796  0.0792  0.2129
 1188SOL     OW10421   1.974   0.465   1.057 -0.2493  0.1366  0.1837
 1188SOL    HW110422   1.976   0.493   1.148 -0.8962 -2.6272  1.1444
 1188SOL    HW210423   2.066   0.458   1.032 -0.0626  0.6725  0.6978
 1189SOL     OW10424   3.084  12.173  11.249 -0.4873 -0.4322  0.3003
 1189SOL    HW110425   3.161  12.207  11.294  0.1710 -2.0034  0.4381
 1189SOL    HW210426   3.097  12.078  11.248 -2.4806 -0.7451  0.4122
 1190SOL     OW10427   1.002   4.836   8.710  0.5284 -0.3561 -0.0580
 1190SOL    HW110428   0.925   4.858   8.761  1.3016  2.4363  0.0777
 1190SOL    HW210429   0.985   4.872   8.623  0.3518 -2.6973 -1.0814
 1191SOL     OW10430  11.175   1.911  10.400  0.4213 -0.0790  0.6589
 1191SOL    HW110431  11.105   1.969  10.369 -1.2299 -1.7010  1.1259
 1191SOL    HW210432  11.239   1.969  10.439 -0.0701  1.5818 -0.8862
 1192SOL     OW10433  10.588   0.022  11.726 -0.5878 -0.1462  0.1580
 1192SOL    HW110434  10.562   0.003  11.636 -0.4381  1.2419 -0.2059
 1192SOL    HW210435  10.522  -0.020  11.780 -0.9019 -0.6582 -0.6083
 1193SOL     OW10436  11.246   6.757   1.863  0.5911 -0.5022 -0.6165
 1193SOL    HW110437  11.323   6.812   1.848 -1.0471  2.0201 -0.4011
 1193SOL    HW210438  11.241   6.748   1.959 -0.4731  1.1247 -0.4818
 1194SOL     OW10439   8.292   7.071   0.618 -0.0993  0.3633 -0.5241
 1194SOL    HW110440   8.312   7.087   0.710  1.4381 -1.4481 -0.4838
 1194SOL    HW210441   8.203   7.105   0.606  0.3342  2.2401  1.1497
 1195SOL     OW10442   7.939   6.312   7.332 -0.2224  0.0830 -0.1899
 1195SOL    HW110443   7.861   6.269   7.367 -1.1978  0.5416 -1.6784
 1195SOL    HW210444   7.992   6.332   7.409 -1.2068 -0.9260  0.8006
 1196SOL     OW10445   9.287   8.314  12.478 -0.1714  0.1772  0.1219
 1196SOL    HW110446   9.256   8.293  12.390  1.4520 -1.0057 -0.2277
 1196SOL    HW210447   9.324   8.402  12.471  0.5604 -0.1701 -0.5822
 1197SOL     OW10448  12.352   7.161   7.718 -0.5308  0.0951  0.1882
 1197SOL    HW110449  12.426   7.163   7.658 -0.3652  0.8905  0.3966
 1197SOL    HW210450  12.289   7.103   7.677 -0.3557  0.4980 -0.6781
 1198SOL     OW10451   6.923   1.942   2.632 -0.4233 -0.2881 -0.2835
 1198SOL    HW110452   6.893   1.886   2.560 -0.6435  1.3124 -1.4870
 1198SOL    HW210453   6.943   2.026   2.590 -1.0743  0.8572  1.6209
 1199SOL     OW10454   8.037  10.444   5.377  0.1023 -0.2606  0.1141
 1199SOL    HW110455   7.958  10.494   5.399 -0.8052 -0.4304 -2.4515
 1199SOL    HW210456   8.033  10.367   5.435  0.0522  1.1951  2.1542
 1200SOL     OW10457   2.990   2.553   1.103 -1.0447 -0.0252  0.5125
 1200SOL    HW110458   2.947   2.496   1.166 -1.4920  0.1069  0.3296
 1200SOL    HW210459   2.972   2.513   1.018 -2.3217  0.9678  0.2783
 1201SOL     OW10460   9.122   5.178   4.372  0.0625  0.0047  0.0931
 1201SOL    HW110461   9.148   5.268   4.352  1.1936 -0.0442  1.2044
 1201SOL    HW210462   9.170   5.124   4.308  1.5934  0.0288  1.1535
 1202SOL     OW10463  11.081   2.176   3.963 -0.2899 -0.7853 -0.3366
 1202SOL    HW110464  11.134   2.126   3.902 -0.0788 -0.8838 -0.0731
 1202SOL    HW210465  11.104   2.268   3.944 -1.0869 -0.7469 -1.1962
 1203SOL     OW10466   0.164   4.649   1.674 -0.3382  0.2786 -0.3682
 1203SOL    HW110467   0.175   4.641   1.769  2.0972  3.3009 -0.2265
 1203SOL    HW210468   0.091   4.590   1.654 -2.2457  0.8578  3.6531
 1204SOL     OW10469  10.429   3.004   0.820 -0.1090  0.6415 -0.0855
 1204SOL    HW110470  10.460   2.954   0.896  0.8000 -0.1983 -0.9828
 1204SOL    HW210471  10.409   3.091   0.855 -0.9414 -0.0871  1.3594
 1205SOL     OW10472   2.829   9.186   6.886 -0.8625  0.3722 -0.6053
 1205SOL    HW110473   2.751   9.164   6.834 -1.4657  1.3274 -0.1248
 1205SOL    HW210474   2.886   9.109   6.876 -1.8179 -0.3056 -1.0449
 1206SOL     OW10475   8.380   4.586  11.002 -0.2961  0.4025  0.2510
 1206SOL    HW110476   8.382   4.492  10.984  0.2537  0.4704 -0.0821
 1206SOL    HW210477   8.403   4.626  10.918  0.2135  0.8029  0.5789
 1207SOL     OW10478   6.146   7.687   1.679 -0.2829 -0.3714 -0.2632
 1207SOL    HW110479   6.105   7.761   1.634 -0.0463 -0.3444 -0.4325
 1207SOL    HW210480   6.117   7.610   1.630  1.4194 -0.2235 -1.5808
 1208SOL     OW10481   5.040  10.000  10.657  0.3617  0.0124  0.1893
 1208SOL    HW110482   5.100   9.940  10.612  1.7651  0.7344  1.0404
 1208SOL    HW210483   5.050   9.980  10.750  0.8320  1.5371  0.4829
 1209SOL     OW10484   3.892   4.511   4.827  0.1530  0.1381 -0.0812
 1209SOL    HW110485   3.860   4.507   4.917  0.3671 -1.5572 -0.0425
 1209SOL    HW210486   3.978   4.468   4.830  0.4871  0.7200 -0.9657
 1210SOL     OW10487  10.475   9.616   1.136  0.1637 -0.1945  0.1518
 1210SOL    HW110488  10.396   9.617   1.190 -0.0937 -0.3826 -0.2111
 1210SOL    HW210489  10.466   9.692   1.079  0.2735 -0.1801  0.1536
 1211SOL     OW10490   9.754   6.765  10.008 -0.0187  0.2985  0.4561
 1211SOL    HW110491   9.832   6.729   9.965 -1.1378  0.4833 -1.9113
 1211SOL    HW210492   9.764   6.860  10.000 -0.5145  0.3217  0.0057
 1212SOL     OW10493  10.519   3.450  12.176 -0.4061 -0.4333 -0.4742
 1212SOL    HW110494  10.552   3.426  12.089  0.3612  0.4224 -0.4260
 1212SOL    HW210495  10.596   3.475  12.225 -0.7745 -1.4061  0.6425
 1213SOL     OW10496   8.241   2.622   6.730  0.2403  0.3666 -0.2247
 1213SOL    HW110497   8.279   2.668   6.655 -1.7511 -0.8665 -2.1045
 1213SOL    HW210498   8.153   2.659   6.737  0.0283 -0.3321  0.8140
 1214SOL     OW10499   7.053   5.545   5.016  0.2037  0.3640  0.2819
 1214SOL    HW110500   7.021   5.635   5.028 -1.3107  0.0525 -0.9716
 1214SOL    HW210501   7.005   5.514   4.939  0.7341 -1.5120  0.6748
 1215SOL     OW10502  12.323   0.266   0.107  0.7706  0.1921  0.6788
 1215SOL    HW110503  12.264   0.231   0.040  0.7228  0.5003  0.5582
 1215SOL    HW210504  12.352   0.189   0.156  2.3373 -0.3168 -0.9163
 1216SOL     OW10505   7.242   1.318  10.940  0.0944  0.5905  0.0737
 1216SOL    HW110506   7.194   1.324  11.022  1.4560 -1.7232  1.1478
 1216SOL    HW210507   7.330   1.350  10.961  0.5833 -0.4451 -0.3394
 1217SOL     OW10508   8.266   9.057   7.431 -0.7223  0.1876 -0.1530
 1217SOL    HW110509   8.229   9.016   7.353 -1.1638  0.8903 -0.3182
 1217SOL    HW210510   8.225   9.011   7.504  0.9952 -1.6996 -0.2708
 1218SOL     OW10511   4.269   7.792   6.660 -0.3632 -0.0100 -0.4998
 1218SOL    HW110512   4.237   7.708   6.628 -0.1999  0.4219 -1.8686
 1218SOL    HW210513   4.337   7.769   6.723 -3.2766 -0.9658  2.5893
 1219SOL     OW10514   5.363   3.716   5.107  0.0268  0.1792 -0.0808
 1219SOL    HW110515   5.383   3.809   5.100  0.5347  0.0065 -1.2499
 1219SOL    HW210516   5.312   3.696   5.028 -0.4493 -0.4488  0.3673
 1220SOL     OW10517   8.473   8.538   2.544  0.0002  0.4157 -0.0935
 1220SOL    HW110518   8.463   8.473   2.474 -1.8520 -2.6429  2.7523
 1220SOL    HW210519   8.399   8.598   2.532 -1.0146 -0.7999 -0.0901
 1221SOL     OW10520   9.363   3.643   6.364 -0.0562  0.1269  0.2899
 1221SOL    HW110521   9.379   3.667   6.456  1.1644  1.2935 -0.1935
 1221SOL    HW210522   9.304   3.711   6.332 -0.9444 -0.5965  0.3315
 1222SOL     OW10523   0.851   9.046  10.270 -0.0910 -0.3680 -0.1881
 1222SOL    HW110524   0.895   9.001  10.198  0.1557 -2.4012  1.1459
 1222SOL    HW210525   0.760   9.056  10.240  0.1927 -0.4577 -1.0908
 1223SOL     OW10526   1.382   6.741   4.701 -0.3245 -0.6345 -0.0102
 1223SOL    HW110527   1.366   6.655   4.741 -0.8887  0.1147  1.4742
 1223SOL    HW210528   1.313   6.750   4.636  0.0600 -1.5190 -0.5574
 1224SOL     OW10529   3.920   4.306   2.433  0.0877 -0.2341 -0.5755
 1224SOL    HW110530   3.962   4.344   2.356 -1.7026 -0.2089 -1.5997
 1224SOL    HW210531   3.856   4.244   2.397  1.4963 -2.7442  0.9842
 1225SOL     OW10532   3.173   9.305   1.717 -0.5382  0.3465  0.3843
 1225SOL    HW110533   3.226   9.335   1.643 -1.9380  1.4584 -0.2218
 1225SOL    HW210534   3.192   9.212   1.724  0.6543  0.4982 -0.5000
 1226SOL     OW10535   7.189   6.107   6.190 -0.1503 -0.1400 -0.0035
 1226SOL    HW110536   7.123   6.083   6.255 -0.6713  0.5738 -0.2618
 1226SOL    HW210537   7.180   6.201   6.180 -0.4808 -0.3104 -1.5366
 1227SOL     OW10538   4.996   5.348   2.896  0.0269 -0.1803 -0.3186
 1227SOL    HW110539   4.907   5.314   2.881 -0.5112  0.4156  1.3478
 1227SOL    HW210540   5.019   5.390   2.813 -1.4449  0.0866 -0.6314
 1228SOL     OW10541   0.870   6.229   9.194  0.0977  0.0742  0.3496
 1228SOL    HW110542   0.866   6.133   9.200 -0.8667  0.0872  0.1713
 1228SOL    HW210543   0.947   6.253   9.245  0.6038 -0.8275  0.0310
 1229SOL     OW10544   1.154   3.696   5.718  0.1135  0.3773 -0.2408
 1229SOL    HW110545   1.152   3.777   5.667  0.4698  0.2598 -0.4475
 1229SOL    HW210546   1.071   3.653   5.699  0.7262 -0.2290 -1.6592
 1230SOL     OW10547   6.970  10.154   5.417 -0.4577 -0.3583 -0.4704
 1230SOL    HW110548   6.989  10.133   5.508  1.5611 -1.1735 -1.0284
 1230SOL    HW210549   7.027  10.228   5.397 -0.2065 -0.7674 -1.3143
 1231SOL     OW10550   2.452   5.493   5.914  0.1361 -0.2581 -0.0204
 1231SOL    HW110551   2.423   5.583   5.928 -3.8719 -1.2458 -0.6144
 1231SOL    HW210552   2.448   5.481   5.820 -0.5482 -1.3529  0.1338
 1232SOL     OW10553  11.810   2.239   0.086  0.1164 -0.4546 -0.2923
 1232SOL    HW110554  11.827   2.293   0.163  0.6688  0.9176 -1.3244
 1232SOL    HW210555  11.896   2.203   0.064 -0.0012 -0.6717 -0.3941
 1233SOL     OW10556   1.977   0.321   4.682 -0.3295 -0.0968  0.1585
 1233SOL    HW110557   1.933   0.403   4.661 -1.3896 -1.0657 -1.5450
 1233SOL    HW210558   1.944   0.298   4.769 -0.3804  1.0151  0.4487
 1234SOL     OW10559  10.771   8.025   5.243 -0.2379 -0.0786  0.0169
 1234SOL    HW110560  10.684   8.026   5.204 -1.4718 -1.3862  2.4869
 1234SOL    HW210561  10.812   7.945   5.210 -0.5309 -0.1952 -0.0650
 1235SOL     OW10562  10.020  11.629   9.820 -0.8162  0.3929  0.4365
 1235SOL    HW110563  10.036  11.710   9.771 -0.8480 -0.0818 -0.3590
 1235SOL    HW210564  10.107  11.597   9.842 -0.7550 -0.1114 -0.4975
 1236SOL     OW10565   9.082   6.885   3.840  0.1589 -0.3013 -0.0956
 1236SOL    HW110566   9.157   6.932   3.805 -0.0978  0.0855 -0.1376
 1236SOL    HW210567   9.099   6.793   3.819  0.5787 -0.2072 -0.1722
 1237SOL     OW10568   9.731   3.022   6.957 -0.0746  0.3167  0.6945
 1237SOL    HW110569   9.658   2.984   6.908 -1.0108  0.9473  1.5511
 1237SOL    HW210570   9.689   3.077   7.024  1.1053 -1.5503  3.1127
 1238SOL     OW10571   5.793  10.359   4.288  0.7957  0.9031  0.2259
 1238SOL    HW110572   5.781  10.281   4.343 -0.4504 -2.2487 -3.9166
 1238SOL    HW210573   5.723  10.418   4.315  0.1760 -0.4906  1.8780
 1239SOL     OW10574  11.059   2.719   4.163 -0.0704 -0.0791  0.0260
 1239SOL    HW110575  10.991   2.660   4.130  0.9797 -1.1152 -0.3523
 1239SOL    HW210576  11.121   2.726   4.090  0.6702  0.1491  0.6656
 1240SOL     OW10577   2.223   5.105   3.366 -0.0517  0.2765  0.2081
 1240SOL    HW110578   2.315   5.102   3.390  0.3939 -2.1712 -1.4208
 1240SOL    HW210579   2.176   5.100   3.449  1.3643 -2.9121  0.9784
 1241SOL     OW10580   8.203   9.880   8.606  0.0433  0.1912  0.2913
 1241SOL    HW110581   8.121   9.831   8.595  0.5728 -1.0318  1.4752
 1241SOL    HW210582   8.268   9.813   8.628  0.5780  1.4741  3.0530
 1242SOL     OW10583   4.022   1.986  10.642  0.4141 -0.0165 -0.0262
 1242SOL    HW110584   4.075   2.056  10.678  1.3571 -1.4332  1.5113
 1242SOL    HW210585   3.997   1.934  10.719 -0.0706 -1.4679 -1.1264
 1243SOL     OW10586   9.096   4.922   5.379  0.1907 -0.3653  0.4172
 1243SOL    HW110587   9.064   4.863   5.311  0.4624 -0.0109 -0.0238
 1243SOL    HW210588   9.038   4.998   5.375 -0.8232 -1.0338  1.6937
 1244SOL     OW10589  10.416  10.770   9.586  0.3752 -0.4190  0.2982
 1244SOL    HW110590  10.450  10.853   9.552 -1.1305  0.1685  0.1587
 1244SOL    HW210591  10.393  10.789   9.677  0.8710 -0.9474  0.5377
 1245SOL     OW10592   6.292   8.338  10.733 -0.6768 -0.7884  0.1330
 1245SOL    HW110593   6.289   8.258  10.680  1.2614 -1.7279  1.3267
 1245SOL    HW210594   6.230   8.321  10.804  1.1290 -2.1393  1.4750
 1246SOL     OW10595   9.960   2.689   7.594 -0.0608 -0.1861  0.8261
 1246SOL    HW110596  10.001   2.769   7.627 -1.0808  0.6310  0.1797
 1246SOL    HW210597   9.912   2.717   7.516  0.8615 -1.7376 -0.3596
 1247SOL     OW10598   0.590   0.287   4.625 -0.1876 -0.0947  0.5822
 1247SOL    HW110599   0.659   0.279   4.559 -0.2210  0.6317  0.4481
 1247SOL    HW210600   0.508   0.281   4.576 -0.2167 -0.5354  0.6857
 1248SOL     OW10601   6.153   3.190   3.242  0.0005  0.7957 -0.5923
 1248SOL    HW110602   6.103   3.248   3.299 -0.2592  1.5012 -1.4983
 1248SOL    HW210603   6.244   3.214   3.257 -0.0927  1.2952 -0.7875
 1249SOL     OW10604   8.639  11.346   3.104 -0.1504  0.1241  0.5005
 1249SOL    HW110605   8.553  11.383   3.125  0.0836  1.2411 -0.3697
 1249SOL    HW210606   8.688  11.420   3.066  1.1983 -0.4883  0.9875
 1250SOL     OW10607   4.116   8.597  11.996  0.1561 -0.5540 -0.4181
 1250SOL    HW110608   4.035   8.554  12.023  0.3828 -0.0637  1.1429
 1250SOL    HW210609   4.185   8.534  12.016  0.2910 -0.3760 -0.3224
 1251SOL     OW10610   3.129   6.934   6.071  0.3779 -0.0590  0.8407
 1251SOL    HW110611   3.166   6.969   6.152  0.9775  3.8286 -0.8657
 1251SOL    HW210612   3.035   6.925   6.090  0.3718  1.5384  1.8054
 1252SOL     OW10613   9.913   4.379   3.522  0.1124  0.1498  0.1490
 1252SOL    HW110614   9.856   4.454   3.509 -0.5017 -0.2474  0.4975
 1252SOL    HW210615   9.970   4.405   3.594 -2.0027 -0.7559  2.2814
 1253SOL     OW10616   6.776   2.412   5.383  0.2389  0.3791 -0.4896
 1253SOL    HW110617   6.797   2.370   5.300  0.6735 -1.6589  0.5918
 1253SOL    HW210618   6.779   2.341   5.447 -0.3264  1.8498  1.2383
 1254SOL     OW10619  10.872   3.986   4.970  0.2798  0.2369  0.3654
 1254SOL    HW110620  10.859   4.054   4.904  1.9179 -1.3295 -1.7053
 1254SOL    HW210621  10.917   3.916   4.923  0.3575 -1.5003  2.8773
 1255SOL     OW10622   5.417  12.278  11.432  0.6953  0.5635  0.1005
 1255SOL    HW110623   5.384  12.198  11.393  1.3616 -0.1675  0.9944
 1255SOL    HW210624   5.468  12.320  11.363 -0.8956  1.0168 -0.8540
 1256SOL     OW10625   7.207  12.193   3.127  0.2236 -0.0084  0.0994
 1256SOL    HW110626   7.230  12.132   3.197 -1.3628  1.3104  1.8854
 1256SOL    HW210627   7.198  12.278   3.171 -1.1865  0.8139 -1.6127
 1257SOL     OW10628   8.477   6.460  11.981  0.0591  0.5419 -0.1829
 1257SOL    HW110629   8.474   6.416  12.066  0.2166  0.0599 -0.4200
 1257SOL    HW210630   8.549   6.417  11.935 -0.8732 -0.1352 -1.0636
 1258SOL     OW10631   2.443   6.601   9.565  0.0210 -0.1384  0.6364
 1258SOL    HW110632   2.412   6.627   9.478 -1.0351  0.7847  1.2613
 1258SOL    HW210633   2.531   6.566   9.550 -0.2098 -0.1473 -0.8186
 1259SOL     OW10634  12.356   4.796   5.981  0.2766  0.1649  0.5601
 1259SOL    HW110635  12.315   4.791   6.067  2.0673 -3.4294  1.4189
 1259SOL    HW210636  12.439   4.749   5.991  1.2917  0.9680 -2.7725
 1260SOL     OW10637  12.126   0.169   3.617 -0.6399  0.0518  0.5181
 1260SOL    HW110638  12.195   0.211   3.668 -0.5659 -0.4829  0.8678
 1260SOL    HW210639  12.102   0.234   3.551  0.2424  0.2198  0.3493
 1261SOL     OW10640   6.973   9.319   9.205  0.4402 -0.1537 -0.2981
 1261SOL    HW110641   7.047   9.355   9.157  0.7229  0.5426  0.6234
 1261SOL    HW210642   6.930   9.261   9.143  0.9042  0.5620 -1.3227
 1262SOL     OW10643   1.726   3.562   6.266  0.1774 -0.2606  0.1290
 1262SOL    HW110644   1.660   3.519   6.319  0.7775 -1.8216 -0.3125
 1262SOL    HW210645   1.695   3.652   6.256 -0.7261 -0.3508  1.7764
 1263SOL     OW10646   0.417   6.449   7.184 -0.5380 -0.3054  0.5480
 1263SOL    HW110647   0.482   6.502   7.138  0.3787 -1.6049  0.2890
 1263SOL    HW210648   0.422   6.478   7.275 -0.4360  0.4207  0.3154
 1264SOL     OW10649   9.351   5.910   2.126 -0.2668  0.0099  0.2880
 1264SOL    HW110650   9.286   5.840   2.118 -0.9880  0.7763 -0.8048
 1264SOL    HW210651   9.432   5.871   2.092 -0.5446 -0.4352  0.1192
 1265SOL     OW10652  11.511   6.787   0.002 -0.1550 -0.0578  0.5727
 1265SOL    HW110653  11.542   6.800  -0.088 -0.0906  0.4205  0.6627
 1265SOL    HW210654  11.579   6.733   0.042 -1.3528 -2.3629 -0.3478
 1266SOL     OW10655   0.961   8.966   0.247 -0.1384  0.1107 -0.4854
 1266SOL    HW110656   0.873   8.963   0.210 -0.3867 -2.1626  0.1434
 1266SOL    HW210657   0.947   8.957   0.341  0.6861  2.1040 -0.1260
 1267SOL     OW10658   1.550   5.543   2.154 -0.6109  0.5026 -0.5174
 1267SOL    HW110659   1.631   5.507   2.118 -0.0692  0.2765  0.8571
 1267SOL    HW210660   1.486   5.534   2.083  0.3345 -0.1351 -1.3220
 1268SOL     OW10661   6.009   3.365   1.839  0.7424 -0.3887  0.4141
 1268SOL    HW110662   6.041   3.314   1.764 -0.1285 -0.3192 -0.0201
 1268SOL    HW210663   6.087   3.383   1.891  1.0760 -2.1728  0.5967
 1269SOL     OW10664   8.965   0.986   1.830  0.4355  0.7602 -0.6320
 1269SOL    HW110665   9.033   0.921   1.846  1.3144  1.9058  0.6461
 1269SOL    HW210666   8.892   0.959   1.886  1.4021  1.6797  1.1772
 1270SOL     OW10667   0.074  11.723   8.664 -0.2311  0.2738 -0.1811
 1270SOL    HW110668   0.012  11.658   8.632  0.5580 -1.0752  0.8958
 1270SOL    HW210669   0.043  11.806   8.628 -2.7101 -0.3227  0.3861
 1271SOL     OW10670   2.016   8.855   0.570  0.1661 -0.2489 -0.5919
 1271SOL    HW110671   1.945   8.815   0.621  1.1199 -0.4433  0.6219
 1271SOL    HW210672   2.029   8.941   0.610  0.4888 -0.1402 -0.9275
 1272SOL     OW10673   4.509   4.368   3.426  0.3539  0.4112 -0.5494
 1272SOL    HW110674   4.454   4.440   3.456  0.8489 -0.5239  3.1736
 1272SOL    HW210675   4.453   4.291   3.431  1.0053 -0.0492 -0.1463
 1273SOL     OW10676   3.419   0.090   9.396  0.0243 -0.3815  0.0480
 1273SOL    HW110677   3.335   0.065   9.358  0.7620 -2.5418 -0.3165
 1273SOL    HW210678   3.397   0.127   9.481 -1.3200 -0.6871 -0.1431
 1274SOL     OW10679   0.478   8.573   8.380 -0.1126 -0.7461  0.0727
 1274SOL    HW110680   0.414   8.571   8.452 -1.1497 -0.3995 -0.8046
 1274SOL    HW210681   0.560   8.598   8.421 -0.2767 -2.2409  1.4183
 1275SOL     OW10682   2.645   6.310  10.388 -0.4341  0.0456 -0.4766
 1275SOL    HW110683   2.599   6.350  10.314 -1.7750  0.7493  0.6813
 1275SOL    HW210684   2.618   6.219  10.387  0.1052 -0.1190 -1.2374
 1276SOL     OW10685   4.682   5.825   3.907  0.0285  0.0200  0.4499
 1276SOL    HW110686   4.594   5.845   3.938 -0.0283 -0.4163  0.5710
 1276SOL    HW210687   4.679   5.733   3.883  0.3211  0.1210 -0.0013
 1277SOL     OW10688  12.200  12.135   3.895 -0.0018  0.2493 -0.0946
 1277SOL    HW110689  12.147  12.145   3.817 -0.7067  1.2118  0.4904
 1277SOL    HW210690  12.210  12.040   3.906  1.4332  0.0996 -2.1950
 1278SOL     OW10691   8.489   1.079   9.365  0.0722  0.0348  0.0867
 1278SOL    HW110692   8.527   1.146   9.308 -1.1764  1.5857  1.0051
 1278SOL    HW210693   8.398   1.105   9.376 -0.1238 -1.1101  1.5228
 1279SOL     OW10694   1.645   0.020   0.687 -0.2082  0.2980  0.5319
 1279SOL    HW110695   1.719  -0.040   0.700  0.1920  0.5390 -0.5274
 1279SOL    HW210696   1.572  -0.037   0.664  0.0919  0.1878 -0.1587
 1280SOL     OW10697   5.147   3.352   7.223 -0.4337  0.0223 -0.3144
 1280SOL    HW110698   5.058   3.375   7.249 -0.1255 -0.2605  1.0457
 1280SOL    HW210699   5.165   3.270   7.269  0.1648 -0.4814 -1.4101
 1281SOL     OW10700   0.701   4.501   8.265 -0.4867  0.2295 -0.0473
 1281SOL    HW110701   0.746   4.482   8.182 -0.7573  0.8816 -0.3461
 1281SOL    HW210702   0.678   4.414   8.299  0.3815 -0.0808 -0.2298
 1282SOL     OW10703   2.860  10.995   9.857 -0.3975  0.4485  0.0956
 1282SOL    HW110704   2.817  11.030   9.935  1.3364  1.1881  0.7819
 1282SOL    HW210705   2.832  11.052   9.786  0.7410  1.9977  0.8363
 1283SOL     OW10706   3.321   4.937   6.034  0.0002  0.2494 -0.1126
 1283SOL    HW110707   3.253   4.931   5.967 -0.5456 -1.1117  0.5370
 1283SOL    HW210708   3.379   5.007   6.002 -0.5243  0.0001 -1.7267
 1284SOL     OW10709  10.237   1.013   4.785 -0.5962  0.1836 -0.1389
 1284SOL    HW110710  10.217   1.105   4.805  2.4283  0.2967  3.5075
 1284SOL    HW210711  10.317   0.995   4.834  1.1926 -3.3888 -3.7957
 1285SOL     OW10712   8.504  11.900   8.560  0.7179 -0.0012 -0.2215
 1285SOL    HW110713   8.436  11.852   8.513  0.1588  0.0004  0.5473
 1285SOL    HW210714   8.463  11.984   8.582  0.8232 -0.1485  0.5876
 1286SOL     OW10715   0.544   7.229   4.918  0.8412 -0.4846  0.2877
 1286SOL    HW110716   0.490   7.150   4.920 -1.3438  0.9570  1.0316
 1286SOL    HW210717   0.515   7.276   4.840  0.1847  0.8346  1.2970
 1287SOL     OW10718   1.807   3.476   8.926 -0.3288 -0.4756 -0.2637
 1287SOL    HW110719   1.724   3.442   8.893 -0.7561  1.4079 -1.2762
 1287SOL    HW210720   1.854   3.505   8.848  1.3165 -1.5312  0.2927
 1288SOL     OW10721  11.368   6.397   6.041  0.1646  0.5771  0.2556
 1288SOL    HW110722  11.354   6.356   6.127  0.7205 -1.0986 -0.4217
 1288SOL    HW210723  11.395   6.326   5.984  1.2435  1.9069 -0.9834
 1289SOL     OW10724   1.500   8.896   6.892  0.2627  0.4439  0.5897
 1289SOL    HW110725   1.472   8.933   6.809  1.5859 -0.8851 -0.5108
 1289SOL    HW210726   1.575   8.950   6.918  1.0892 -0.3239 -0.1224
 1290SOL     OW10727   2.777   6.981   9.273  0.2480  0.0114  0.2530
 1290SOL    HW110728   2.847   6.923   9.244 -0.6265 -1.2074  0.4994
 1290SOL    HW210729   2.822   7.057   9.308  1.4559 -0.7262  0.3604
 1291SOL     OW10730   9.400   2.942   6.521  0.1437  0.0269  0.2874
 1291SOL    HW110731   9.310   2.955   6.491 -0.7114 -1.4385  2.0248
 1291SOL    HW210732   9.429   2.863   6.477 -0.1018 -0.5393  1.1234
 1292SOL     OW10733   5.814   4.989   7.851  0.0396 -0.2342 -0.2076
 1292SOL    HW110734   5.826   4.901   7.888 -0.7062 -0.2709 -0.0308
 1292SOL    HW210735   5.879   5.043   7.896  0.8316 -0.7806 -0.6568
 1293SOL     OW10736  11.813   9.451   8.641  0.2826  0.1806 -0.4059
 1293SOL    HW110737  11.790   9.507   8.714 -0.8164 -0.6942 -0.0509
 1293SOL    HW210738  11.758   9.480   8.569  1.4730  1.1437 -0.9737
 1294SOL     OW10739   5.034   6.770   6.592 -0.4917 -0.7037  0.1469
 1294SOL    HW110740   5.116   6.724   6.611 -0.8967 -0.6914  2.1414
 1294SOL    HW210741   5.013   6.816   6.673 -2.0681 -0.0479 -0.5888
 1295SOL     OW10742  10.475   6.165   0.292  0.4203  0.1672  0.1461
 1295SOL    HW110743  10.531   6.100   0.336  0.8752  0.3036 -0.2317
 1295SOL    HW210744  10.464   6.131   0.204 -1.2036 -0.5440  0.5953
 1296SOL     OW10745   3.655   6.960   9.791  0.0556 -0.0567 -0.2535
 1296SOL    HW110746   3.654   7.021   9.718  0.5541 -0.3515 -0.5090
 1296SOL    HW210747   3.613   7.008   9.863  0.0143  0.4100 -0.5852
 1297SOL     OW10748  12.563   5.263   6.649 -0.1392 -0.7083 -0.4050
 1297SOL    HW110749  12.545   5.171   6.628 -0.8327 -0.4203 -1.0898
 1297SOL    HW210750  12.652   5.277   6.616  0.2037 -1.2846  0.2312
 1298SOL     OW10751   0.312   8.788   6.547  0.1988  0.3566  0.0384
 1298SOL    HW110752   0.352   8.866   6.508  0.7625 -0.7033 -1.6627
 1298SOL    HW210753   0.386   8.729   6.563 -0.4124 -0.6749 -0.8200
 1299SOL     OW10754   7.243   1.184   4.754 -0.0413  0.1825  0.2580
 1299SOL    HW110755   7.212   1.102   4.715 -1.1080 -0.3993  2.2077
 1299SOL    HW210756   7.338   1.182   4.741 -0.1479 -0.9081 -0.5313
 1300SOL     OW10757  10.808   3.108  12.038 -0.1321 -0.4239  0.3912
 1300SOL    HW110758  10.826   3.055  11.961  0.8111 -0.2044  0.4455
 1300SOL    HW210759  10.895   3.133  12.071 -0.5188  1.6606  0.0009
 1301SOL     OW10760   9.999  11.438   5.146  0.1569  0.7556  0.3901
 1301SOL    HW110761   9.917  11.461   5.189 -0.3575  0.7234 -0.5506
 1301SOL    HW210762   9.982  11.452   5.053  0.8526 -0.3266  0.0827
 1302SOL     OW10763  10.498   1.251   4.300 -0.3674 -0.2110  0.0870
 1302SOL    HW110764  10.518   1.248   4.206  0.4480  1.6820  0.1560
 1302SOL    HW210765  10.582   1.239   4.343 -0.5721  0.0429  0.5571
 1303SOL     OW10766  10.093   7.016   3.247 -0.5949  0.0034  0.3061
 1303SOL    HW110767  10.165   7.003   3.185 -1.6859 -0.9261 -0.8074
 1303SOL    HW210768  10.078   6.930   3.285 -0.6363  0.3500  1.0809
 1304SOL     OW10769   8.137   6.920   6.622 -0.4805 -0.5411 -0.2394
 1304SOL    HW110770   8.175   7.005   6.642 -0.7722  0.0074 -1.8264
 1304SOL    HW210771   8.096   6.891   6.703  0.0773  0.5915  0.4581
 1305SOL     OW10772   4.360  10.386   5.921  0.0548 -0.6979  0.1283
 1305SOL    HW110773   4.385  10.297   5.945 -0.6277 -1.0700 -0.4965
 1305SOL    HW210774   4.281  10.375   5.867  0.7338  0.1855 -1.0935
 1306SOL     OW10775   4.176   3.446   3.744 -0.6222  0.4217 -0.3670
 1306SOL    HW110776   4.132   3.491   3.672 -0.7547 -0.4002 -0.8069
 1306SOL    HW210777   4.257   3.495   3.757 -0.2714  0.1820 -1.5323
 1307SOL     OW10778   6.209   2.780  11.570  0.2152 -0.6326  0.2931
 1307SOL    HW110779   6.236   2.866  11.602 -1.0957 -0.2760  0.5152
 1307SOL    HW210780   6.205   2.725  11.648 -0.0398 -0.5771  0.3228
 1308SOL     OW10781   8.171   7.435  12.066  0.2012  0.0648 -0.1787
 1308SOL    HW110782   8.182   7.518  12.113  2.9505  0.1322 -0.8067
 1308SOL    HW210783   8.111   7.457  11.994 -1.7106  0.6566  1.5006
 1309SOL     OW10784   4.317   0.914  10.811  0.1208  0.1928 -0.3639
 1309SOL    HW110785   4.398   0.962  10.825  0.2804 -0.6385  2.2056
 1309SOL    HW210786   4.344   0.833  10.767  1.3377 -1.4714  3.0350
 1310SOL     OW10787  11.918   6.027   3.500  0.5011 -0.1019  0.1082
 1310SOL    HW110788  11.911   6.090   3.428  1.3768 -0.1711 -0.0474
 1310SOL    HW210789  11.841   5.971   3.490 -1.6195  2.3352  1.6605
 1311SOL     OW10790   8.184  11.085   0.501 -0.3426  0.1328 -0.2577
 1311SOL    HW110791   8.202  11.047   0.415  0.7964  0.4764 -0.1927
 1311SOL    HW210792   8.164  11.009   0.557  0.9367 -0.3097 -0.3634
 1312SOL     OW10793   5.512   8.246   0.610  0.4090  0.0685  0.2510
 1312SOL    HW110794   5.430   8.296   0.618  0.3908  0.0136  0.4076
 1312SOL    HW210795   5.485   8.155   0.607  0.4724  0.0439  0.4281
 1313SOL     OW10796  12.546   0.209   9.909  0.2711  0.0488 -0.0379
 1313SOL    HW110797  12.623   0.182   9.960 -0.0289 -1.9121 -0.5429
 1313SOL    HW210798  12.472   0.174   9.958 -0.1975  0.5527 -0.3791
 1314SOL     OW10799   6.505   0.283   9.404 -0.0787  0.4063 -0.3147
 1314SOL    HW110800   6.505   0.366   9.356 -0.3094 -0.1804 -1.3700
 1314SOL    HW210801   6.419   0.281   9.447  0.2798  1.1114  0.4501
 1315SOL     OW10802   5.395   4.793  11.299  0.2319 -0.2201 -0.5444
 1315SOL    HW110803   5.428   4.757  11.216  1.3012 -1.1121  0.2378
 1315SOL    HW210804   5.300   4.787  11.291  0.2913  0.2002 -1.9090
 1316SOL     OW10805   2.636   4.172   0.150 -0.0436 -0.1289 -0.1443
 1316SOL    HW110806   2.657   4.263   0.128  0.7961 -0.1901  0.3844
 1316SOL    HW210807   2.650   4.124   0.069  1.4647 -0.0927  0.0655
 1317SOL     OW10808   5.522   0.468   5.661 -0.1312  0.2705 -0.4842
 1317SOL    HW110809   5.494   0.559   5.673 -0.5097  0.5348 -2.8485
 1317SOL    HW210810   5.444   0.416   5.681 -1.2184  0.7725 -2.9354
 1318SOL     OW10811  11.856   6.437   9.267 -0.2118  0.2698 -0.0711
 1318SOL    HW110812  11.773   6.390   9.261 -0.4777  0.5169  1.3022
 1318SOL    HW210813  11.857   6.494   9.190 -0.9870 -0.2356 -0.4683
 1319SOL     OW10814   7.816   3.169   3.115 -0.3028 -0.1061  0.3110
 1319SOL    HW110815   7.777   3.152   3.201 -0.6590 -1.3000 -0.0787
 1319SOL    HW210816   7.884   3.234   3.133  0.3007 -1.0617  1.6737
 1320SOL     OW10817   1.443   5.530  12.494  0.2550 -0.4029  0.0301
 1320SOL    HW110818   1.435   5.576  12.410 -1.3867  1.1164  0.9572
 1320SOL    HW210819   1.535   5.501  12.496  0.4845 -0.0220 -2.0254
 1321SOL     OW10820   7.189  10.861   2.565  0.0630 -0.0462 -0.3675
 1321SOL    HW110821   7.127  10.788   2.558  0.2576 -0.3770  1.0547
 1321SOL    HW210822   7.275  10.818   2.562  0.1894 -0.1431  2.2918
 1322SOL     OW10823   6.196   0.560   3.862  0.0567  0.4930  0.6459
 1322SOL    HW110824   6.140   0.565   3.784  0.5093 -1.4068  0.1524
 1322SOL    HW210825   6.273   0.511   3.833  1.2174  1.5702  1.7749
 1323SOL     OW10826   6.223   2.308  12.192  0.3432 -0.2993  0.4343
 1323SOL    HW110827   6.210   2.323  12.098 -0.7766 -1.5133  0.3701
 1323SOL    HW210828   6.312   2.275  12.199  0.3605 -0.4027 -0.2259
 1324SOL     OW10829   4.518  10.641   8.028 -0.2564  0.0698 -0.0558
 1324SOL    HW110830   4.472  10.662   7.947 -0.6619 -0.4322  0.0375
 1324SOL    HW210831   4.516  10.546   8.033 -1.4356  0.1283  1.2230
 1325SOL     OW10832   3.691   6.252   3.393 -0.3444  0.3923  0.8318
 1325SOL    HW110833   3.691   6.241   3.489 -1.7040 -1.0117  0.7085
 1325SOL    HW210834   3.601   6.234   3.367  0.5241 -1.8903 -0.9741
 1326SOL     OW10835   3.369   4.482   6.478 -0.3080 -0.6636  0.1066
 1326SOL    HW110836   3.428   4.440   6.415  0.9104  1.1762 -0.0653
 1326SOL    HW210837   3.426   4.510   6.550 -0.8597  1.4149 -0.1810
 1327SOL     OW10838  11.186  11.265   4.095 -0.5331 -0.2764  0.1203
 1327SOL    HW110839  11.241  11.343   4.089  1.5270 -1.7357 -3.4783
 1327SOL    HW210840  11.243  11.198   4.133 -0.3935 -1.2702 -1.6864
 1328SOL     OW10841  11.260   7.703   3.669 -0.0678  0.2820 -0.2359
 1328SOL    HW110842  11.304   7.787   3.656  0.9505  0.0063  1.1969
 1328SOL    HW210843  11.172   7.716   3.633  0.6972  1.3201 -1.8382
 1329SOL     OW10844  11.527   4.420   3.808 -0.1684  0.0230 -0.9117
 1329SOL    HW110845  11.622   4.422   3.805 -0.1021  1.8567  0.7572
 1329SOL    HW210846  11.502   4.504   3.844 -2.3746 -1.0135  0.1778
 1330SOL     OW10847   7.795   9.323   9.808 -0.3297 -0.3129 -0.0820
 1330SOL    HW110848   7.841   9.246   9.775 -1.5205 -0.9428 -0.3562
 1330SOL    HW210849   7.703   9.307   9.784 -0.9882 -0.0134  2.0416
 1331SOL     OW10850   9.082  10.381   6.168 -0.2625 -0.1201 -0.3232
 1331SOL    HW110851   9.019  10.349   6.103 -1.4162 -2.2570  1.6593
 1331SOL    HW210852   9.037  10.454   6.210 -2.7346 -2.9789  2.6109
 1332SOL     OW10853   8.786  11.002  10.414  0.0895  0.4566 -0.4272
 1332SOL    HW110854   8.727  10.941  10.458  2.1810 -0.8259  0.7633
 1332SOL    HW210855   8.777  10.983  10.321 -0.6322 -0.3801 -0.1910
 1333SOL     OW10856   4.871   8.213   0.395 -0.0697  0.5476  1.1690
 1333SOL    HW110857   4.831   8.198   0.481 -2.4175  0.0980  0.1028
 1333SOL    HW210858   4.921   8.133   0.377  0.4807  0.6698  2.1143
 1334SOL     OW10859   4.345   9.185   0.800  0.1599  0.3844  0.2631
 1334SOL    HW110860   4.336   9.195   0.895 -1.7833 -0.8574  0.2561
 1334SOL    HW210861   4.269   9.230   0.764 -1.3567 -2.4967 -0.4376
 1335SOL     OW10862   5.836   1.460  10.847  0.1420  0.2574 -0.2719
 1335SOL    HW110863   5.898   1.392  10.872 -0.1007  0.4282  0.8507
 1335SOL    HW210864   5.859   1.535  10.901 -1.9457 -0.1259  1.2999
 1336SOL     OW10865   2.445   1.578   9.165  0.0790  0.0054 -0.3082
 1336SOL    HW110866   2.413   1.495   9.200 -0.7739 -0.2220 -1.5549
 1336SOL    HW210867   2.458   1.633   9.242  0.0268 -1.0640  0.4898
 1337SOL     OW10868   2.499   3.491   0.495  0.1180 -0.0657  0.0038
 1337SOL    HW110869   2.522   3.582   0.514  1.6101 -0.3557 -0.2970
 1337SOL    HW210870   2.406   3.494   0.472  0.4315  1.5779 -1.1942
 1338SOL     OW10871   8.970   3.762   4.622 -0.6182  0.0130 -0.2546
 1338SOL    HW110872   9.060   3.751   4.652  1.1042 -0.7097 -4.9380
 1338SOL    HW210873   8.942   3.674   4.597 -1.6026  0.5995 -1.3395
 1339SOL     OW10874   0.387   4.987   7.056  0.6442 -0.9283  0.3107
 1339SOL    HW110875   0.463   4.946   7.016  0.9847 -1.7536  1.7304
 1339SOL    HW210876   0.423   5.059   7.107  0.4311 -1.0077  0.5764
 1340SOL     OW10877   1.296   7.308   8.850 -0.8676 -0.3931 -0.1279
 1340SOL    HW110878   1.288   7.312   8.755  1.5596  1.6548 -0.3522
 1340SOL    HW210879   1.223   7.361   8.883 -0.5338  0.6215 -0.9742
 1341SOL     OW10880   2.354   6.062   5.660 -0.3929 -0.3329 -0.4499
 1341SOL    HW110881   2.403   6.026   5.585  0.5554 -1.8140  0.8161
 1341SOL    HW210882   2.316   5.985   5.703 -0.5208  0.4336  0.8545
 1342SOL     OW10883  10.578  10.122   2.570  0.6117 -0.0389 -0.5760
 1342SOL    HW110884  10.632  10.195   2.538 -0.0334 -0.1952 -2.1397
 1342SOL    HW210885  10.518  10.162   2.633  1.6914  0.3675  0.2093
 1343SOL     OW10886   3.038   3.460   5.681  0.0217 -0.4110 -0.0020
 1343SOL    HW110887   3.079   3.438   5.764 -0.5861 -2.7717 -0.2651
 1343SOL    HW210888   2.950   3.423   5.687 -1.4406  2.6920 -0.2753
 1344SOL     OW10889   4.555   6.791   0.834  0.1271 -0.1009  0.2351
 1344SOL    HW110890   4.570   6.755   0.747  1.5053  0.8099  0.0706
 1344SOL    HW210891   4.584   6.723   0.895 -1.5031 -1.0280  0.0334
 1345SOL     OW10892  10.142   4.569  10.216  0.1559  0.1968  0.2415
 1345SOL    HW110893  10.162   4.563  10.310  0.9152 -0.7178  0.0445
 1345SOL    HW210894  10.073   4.634  10.210 -0.5060 -0.3409  1.5309
 1346SOL     OW10895   2.723   9.135  11.525  0.3092  0.4002  0.3889
 1346SOL    HW110896   2.700   9.121  11.433  1.5848 -0.1456  0.1261
 1346SOL    HW210897   2.774   9.058  11.548 -0.1006  0.4745  1.6055
 1347SOL     OW10898   2.240   4.189   7.943  0.1783  0.5325  0.0480
 1347SOL    HW110899   2.250   4.100   7.976  0.4702  0.7613  0.5822
 1347SOL    HW210900   2.244   4.245   8.021 -1.2361  0.9320 -0.1334
 1348SOL     OW10901   9.703   6.054   3.052 -0.1473 -0.0544 -0.7649
 1348SOL    HW110902   9.691   6.008   3.135  2.3329  0.1765 -0.2074
 1348SOL    HW210903   9.771   6.005   3.007  2.1938  2.5729 -0.4034
 1349SOL     OW10904   1.885  10.445   3.241 -1.0897  0.2855 -0.0740
 1349SOL    HW110905   1.951  10.376   3.230 -1.7864 -0.5256  0.5897
 1349SOL    HW210906   1.907  10.485   3.326 -0.8080  0.7517 -0.3635
 1350SOL     OW10907   3.969   2.850  11.450  0.1529 -0.3311 -0.3350
 1350SOL    HW110908   3.906   2.812  11.511 -0.3064  3.8013  2.1215
 1350SOL    HW210909   4.047   2.796  11.458 -0.5741 -1.1026  2.4788
 1351SOL     OW10910  11.371   5.209   9.983 -0.2705 -0.1331 -0.5059
 1351SOL    HW110911  11.328   5.130   9.950  0.8372 -0.6350 -0.7929
 1351SOL    HW210912  11.344   5.215  10.075 -0.1034 -1.0225 -0.3959
 1352SOL     OW10913   9.299   7.357   5.329  0.1020  0.3168 -0.0357
 1352SOL    HW110914   9.257   7.289   5.382  0.3137 -1.0387 -1.5156
 1352SOL    HW210915   9.363   7.398   5.387  1.9189 -2.6060  0.2505
 1353SOL     OW10916   9.479   3.093   2.317  0.2092 -0.1332 -0.3417
 1353SOL    HW110917   9.528   3.153   2.373  1.6229 -1.5632  0.0228
 1353SOL    HW210918   9.462   3.144   2.237  1.1602  0.8320  0.0405
 1354SOL     OW10919   0.671   6.120   6.753  0.3478  0.3559  0.0759
 1354SOL    HW110920   0.697   6.037   6.713 -0.7797 -0.1816  0.3990
 1354SOL    HW210921   0.580   6.131   6.725  0.2936  1.1718  0.5605
 1355SOL     OW10922   7.657   9.867  12.223 -0.5695 -0.4532  0.2898
 1355SOL    HW110923   7.643   9.797  12.160 -0.2536  0.5559 -0.9623
 1355SOL    HW210924   7.736   9.912  12.191 -2.9624  3.0151 -1.4538
 1356SOL     OW10925   7.738  12.277   0.185 -0.1421 -0.2148  0.0323
 1356SOL    HW110926   7.812  12.308   0.132  0.0712 -1.9059 -0.7491
 1356SOL    HW210927   7.661  12.295   0.132 -0.2281  0.7637  0.4688
 1357SOL     OW10928   6.039   9.034   5.644 -0.1443 -0.0286 -0.4395
 1357SOL    HW110929   5.982   8.963   5.672 -1.7220  2.1582  2.3967
 1357SOL    HW210930   6.103   9.044   5.714  0.9648  0.4452 -1.4793
 1358SOL     OW10931  10.233   4.857   3.000 -0.0824  0.4545 -0.0780
 1358SOL    HW110932  10.171   4.930   2.999 -0.7687 -0.1188  0.1847
 1358SOL    HW210933  10.279   4.866   3.084 -0.5309  0.2836  0.1872
 1359SOL     OW10934   7.599  11.181  10.426 -0.1789  0.3099  0.6918
 1359SOL    HW110935   7.512  11.210  10.399  1.2748  2.2037 -2.6002
 1359SOL    HW210936   7.632  11.252  10.481 -0.2106  0.2703  0.7613
 1360SOL     OW10937   0.965  10.910  10.712 -0.1300  0.2224 -0.4127
 1360SOL    HW110938   0.886  10.938  10.666 -0.1533  1.2148  0.2058
 1360SOL    HW210939   1.009  10.852  10.651 -2.0756 -1.5676 -0.2076
 1361SOL     OW10940   7.633   8.413   6.477 -0.2459 -0.0719 -1.0898
 1361SOL    HW110941   7.651   8.360   6.555 -1.5199  1.0895  0.0374
 1361SOL    HW210942   7.538   8.410   6.467 -0.4441  2.4457 -0.6272
 1362SOL     OW10943   9.141   9.899   0.004 -0.4425  0.0153 -0.3887
 1362SOL    HW110944   9.082   9.865  -0.064 -2.3144 -2.5936  2.2535
 1362SOL    HW210945   9.221   9.847  -0.005 -0.6062 -0.1790 -0.7142
 1363SOL     OW10946   7.535   0.993  10.721  0.1649  0.3640 -0.4575
 1363SOL    HW110947   7.535   0.898  10.719  2.1259  0.3188 -0.1576
 1363SOL    HW210948   7.512   1.020  10.632  0.0844 -0.3833 -0.6666
 1364SOL     OW10949   6.047   3.271  10.682  0.1969  0.0876  0.0346
 1364SOL    HW110950   6.121   3.212  10.668  0.4097  0.1530  0.8052
 1364SOL    HW210951   6.087   3.352  10.716  0.0032  1.0106 -1.8092
 1365SOL     OW10952  10.366   1.561   3.064  0.7342  0.3036  0.6441
 1365SOL    HW110953  10.347   1.634   3.124 -1.2652  0.0760  0.3661
 1365SOL    HW210954  10.407   1.603   2.988  0.0168  1.1013  0.6748
 1366SOL     OW10955   6.508  12.407   3.061 -0.0228 -0.8062  0.1402
 1366SOL    HW110956   6.458  12.339   3.106 -1.5653  1.1503  1.5530
 1366SOL    HW210957   6.561  12.447   3.130  0.3867 -0.1586 -0.5301
 1367SOL     OW10958   0.859  10.577   2.263 -0.1353 -0.4261 -0.0465
 1367SOL    HW110959   0.932  10.524   2.297 -1.0795 -0.5488  1.9560
 1367SOL    HW210960   0.894  10.666   2.259  1.0527 -0.9154 -2.1659
 1368SOL     OW10961   7.378   5.619   8.163 -0.4528 -0.5040 -0.5829
 1368SOL    HW110962   7.296   5.666   8.148 -0.1232  0.5998  0.9412
 1368SOL    HW210963   7.383   5.608   8.258  1.4992  0.0697 -0.5794
 1369SOL     OW10964   1.902   5.285   2.552  0.2495 -0.0480 -0.1973
 1369SOL    HW110965   1.958   5.321   2.483 -1.5639  2.0774 -0.7026
 1369SOL    HW210966   1.814   5.287   2.514 -0.7551  0.8302  2.0103
 1370SOL     OW10967   5.472   0.686   0.284 -0.4204  0.0455  0.4967
 1370SOL    HW110968   5.499   0.746   0.215 -0.6920  2.6111  2.4617
 1370SOL    HW210969   5.554   0.660   0.327 -0.4451  1.0558  1.1869
 1371SOL     OW10970   4.277  11.548  11.735 -0.0749  0.7472  0.1900
 1371SOL    HW110971   4.343  11.615  11.723 -1.2851  1.9460 -0.0432
 1371SOL    HW210972   4.196  11.597  11.752 -0.8091 -0.6687  0.9819
 1372SOL     OW10973  10.787   9.344   5.678 -0.2700 -0.2713 -0.0154
 1372SOL    HW110974  10.881   9.360   5.673 -0.1931 -0.4521  0.7042
 1372SOL    HW210975  10.769   9.336   5.772 -1.4835  2.7520  0.1268
 1373SOL     OW10976   9.898   0.364   9.127 -0.5382 -0.0162 -0.3444
 1373SOL    HW110977   9.914   0.432   9.193 -1.0875 -0.6178  0.4241
 1373SOL    HW210978   9.824   0.314   9.162  0.2087 -1.3528 -0.6327
 1374SOL     OW10979   2.535   2.151   4.553 -0.3203  0.5283 -0.4700
 1374SOL    HW110980   2.482   2.189   4.483  1.6097  1.8049 -1.3171
 1374SOL    HW210981   2.610   2.113   4.509  0.6490  0.8117  0.8686
 1375SOL     OW10982   3.708   3.163   9.622 -0.2934 -0.3561  0.1092
 1375SOL    HW110983   3.661   3.099   9.569  1.2164 -2.1062  0.7660
 1375SOL    HW210984   3.800   3.138   9.613  0.0459 -1.0093  3.7825
 1376SOL     OW10985   0.635   7.757   4.314 -0.0431  0.4766  0.3039
 1376SOL    HW110986   0.594   7.675   4.287 -2.6429  0.9504  2.4472
 1376SOL    HW210987   0.635   7.811   4.235 -1.1081 -0.5192 -0.4087
 1377SOL     OW10988  12.226   6.301   6.719 -0.2486 -0.4177  0.0234
 1377SOL    HW110989  12.184   6.351   6.790  0.8213 -1.3751  1.3860
 1377SOL    HW210990  12.309   6.346   6.704  1.1119 -2.1627  1.8487
 1378SOL     OW10991   7.794   4.213  11.150 -0.3276  0.2620 -0.5529
 1378SOL    HW110992   7.764   4.129  11.183 -0.3308  0.3927 -0.2204
 1378SOL    HW210993   7.846   4.250  11.222 -1.0623  0.9389 -0.3549
 1379SOL     OW10994   4.735   8.038   2.913  0.3260  0.0858 -0.1864
 1379SOL    HW110995   4.788   7.984   2.972  1.3994 -0.2888 -1.4580
 1379SOL    HW210996   4.674   7.977   2.872  1.3529 -0.1384 -1.4155
 1380SOL     OW10997  11.570   1.861   4.948  0.0727  0.4248 -0.3141
 1380SOL    HW110998  11.592   1.875   5.040  0.7576  1.5159 -0.6282
 1380SOL    HW210999  11.476   1.843   4.949 -0.2151  1.7629  0.4930
 1381SOL     OW11000   3.910   8.070  11.267  0.2204  0.1573  0.2222
 1381SOL    HW111001   3.815   8.078  11.254 -0.0304 -0.8033  1.3643
 1381SOL    HW211002   3.941   8.026  11.188 -0.2043  0.8368 -0.3439
 1382SOL     OW11003   0.730   9.339   3.222 -0.5111 -0.1076 -0.0281
 1382SOL    HW111004   0.669   9.278   3.180  0.1618  0.1032 -1.3871
 1382SOL    HW211005   0.784   9.284   3.279 -0.7737 -0.5736 -0.2228
 1383SOL     OW11006   0.332   6.134   6.785  0.5113 -0.3364  0.4090
 1383SOL    HW111007   0.243   6.164   6.766  0.8905  0.1274 -0.6642
 1383SOL    HW211008   0.341   6.146   6.880 -0.8802 -1.2454  0.6922
 1384SOL     OW11009  11.938   5.479  11.405  0.2396  0.1230 -0.0847
 1384SOL    HW111010  12.004   5.422  11.443  0.9261  1.1963  0.3764
 1384SOL    HW211011  11.979   5.515  11.326  0.2308  0.7934  0.2018
 1385SOL     OW11012   9.718   6.179   9.248 -0.5376 -0.4080  0.0521
 1385SOL    HW111013   9.678   6.266   9.248  1.6000  0.6403 -0.2993
 1385SOL    HW211014   9.804   6.192   9.286  0.4321 -2.0694 -1.4113
 1386SOL     OW11015   6.395   6.842   3.792 -0.0283  0.2259  0.1897
 1386SOL    HW111016   6.418   6.914   3.733  0.2609  0.8636  1.0496
 1386SOL    HW211017   6.428   6.870   3.877  0.9650 -1.3715  0.3634
 1387SOL     OW11018   0.926  11.876  10.970 -0.2183  0.3924 -0.6405
 1387SOL    HW111019   0.946  11.848  10.881 -0.3492  1.0029 -0.8667
 1387SOL    HW211020   1.009  11.910  11.004 -0.9058  3.4818 -1.7849
 1388SOL     OW11021   6.183   4.447   3.293  0.5226  0.0798 -0.4187
 1388SOL    HW111022   6.112   4.442   3.230 -0.7087  0.3843  0.8901
 1388SOL    HW211023   6.263   4.449   3.240 -0.4029 -0.8098 -1.9026
 1389SOL     OW11024  11.173   9.357  10.585 -0.1171  0.0282 -0.1307
 1389SOL    HW111025  11.176   9.442  10.541 -0.1327 -0.0927 -0.3701
 1389SOL    HW211026  11.107   9.307  10.536 -1.0779  0.3294  0.8367
 1390SOL     OW11027   8.476   2.578   6.540  0.3764 -0.4219 -0.8539
 1390SOL    HW111028   8.486   2.663   6.496  1.0558 -0.3018 -0.4846
 1390SOL    HW211029   8.561   2.562   6.580  0.0574 -0.9817 -0.3852
 1391SOL     OW11030   5.032  12.082   1.504 -0.4332 -0.0568 -0.5622
 1391SOL    HW111031   5.071  12.079   1.591 -0.5907  0.0695 -0.4844
 1391SOL    HW211032   5.106  12.093   1.444 -0.1932 -1.5148 -0.5680
 1392SOL     OW11033   3.081   0.871   8.234  0.0223  0.6967 -0.6723
 1392SOL    HW111034   3.074   0.782   8.199  0.1580  1.0100 -1.5454
 1392SOL    HW211035   3.063   0.862   8.327 -0.3339 -0.1922 -0.8119
 1393SOL     OW11036   1.550   9.749   7.436  0.1048  0.1116  0.8526
 1393SOL    HW111037   1.498   9.741   7.516 -1.0738  0.6399  0.1710
 1393SOL    HW211038   1.490   9.722   7.366  0.8545  0.4222  0.0699
 1394SOL     OW11039   3.393   6.061   9.863  0.4022 -0.7035  0.8770
 1394SOL    HW111040   3.470   6.106   9.898 -0.3125  0.5154  0.9602
 1394SOL    HW211041   3.425   6.013   9.787  0.8500  1.7607 -0.5988
 1395SOL     OW11042   9.636  10.265   4.579 -0.7491  0.9988 -0.3598
 1395SOL    HW111043   9.600  10.218   4.654 -0.4783  1.3431 -0.0144
 1395SOL    HW211044   9.654  10.197   4.515  1.4029  0.3753  0.8212
 1396SOL     OW11045   9.412   6.592   9.539 -0.1965  0.2417 -0.6117
 1396SOL    HW111046   9.450   6.595   9.627 -0.8401  1.7654 -0.3347
 1396SOL    HW211047   9.477   6.633   9.483 -0.4123  0.6710 -0.5564
 1397SOL     OW11048   5.177   2.928   2.663 -0.2633  0.3493 -0.2040
 1397SOL    HW111049   5.230   2.865   2.615 -1.1145  0.3334 -1.1304
 1397SOL    HW211050   5.116   2.964   2.599 -1.2075  0.5703  0.7746
 1398SOL     OW11051   8.523   0.838  10.790 -0.2306  0.3643 -0.5079
 1398SOL    HW111052   8.476   0.775  10.735 -0.6127  0.2315 -0.0350
 1398SOL    HW211053   8.458   0.870  10.852  0.2667  0.2523  0.0946
 1399SOL     OW11054  11.759   2.416  10.552 -0.5631 -0.2850  0.0799
 1399SOL    HW111055  11.839   2.453  10.516 -0.2439  0.4120  1.4595
 1399SOL    HW211056  11.689   2.471  10.518 -0.1353  1.3641  1.7249
 1400SOL     OW11057   0.840   4.386   4.983 -0.5028  0.2523 -0.4563
 1400SOL    HW111058   0.804   4.364   5.069 -0.9315  0.3828 -0.6004
 1400SOL    HW211059   0.839   4.303   4.935  0.5037  0.0004 -0.0704
 1401SOL     OW11060   1.735   4.898  10.390  0.4955  0.0552  0.0347
 1401SOL    HW111061   1.744   4.837  10.463  1.3719 -0.5003 -0.5197
 1401SOL    HW211062   1.814   4.951  10.392  0.7883 -0.3336 -0.8317
 1402SOL     OW11063   6.626   4.076   8.249 -0.0086  0.1704 -0.2795
 1402SOL    HW111064   6.709   4.037   8.277  1.0037  1.1166 -1.8263
 1402SOL    HW211065   6.595   4.125   8.326  0.9457 -0.0619  0.2669
 1403SOL     OW11066   2.097  10.763   3.810  0.3517 -0.3657  0.2160
 1403SOL    HW111067   2.044  10.771   3.731 -0.6048 -3.0802  0.4805
 1403SOL    HW211068   2.187  10.761   3.779  0.0154 -0.7568 -0.7448
 1404SOL     OW11069   7.165   6.969  10.323  0.6031  0.2843  0.1398
 1404SOL    HW111070   7.255   6.999  10.312  1.0572 -1.1658 -0.3879
 1404SOL    HW211071   7.143   6.928  10.239 -0.4144  0.2700  0.4012
 1405SOL     OW11072  10.880   4.130   2.677 -0.6641  0.4630  0.4249
 1405SOL    HW111073  10.792   4.134   2.639 -0.8099 -1.1548  0.5172
 1405SOL    HW211074  10.904   4.038   2.671  2.0940  1.2164 -1.9759
 1406SOL     OW11075   9.652   7.086  10.672 -0.2924 -0.4076 -0.0004
 1406SOL    HW111076   9.586   7.128  10.728  0.4296 -0.0147  0.5653
 1406SOL    HW211077   9.641   6.993  10.688 -0.8391 -0.3559 -0.0548
 1407SOL     OW11078   4.286   9.606   6.175  0.1262 -0.0209 -0.1652
 1407SOL    HW111079   4.306   9.646   6.260 -0.3746 -0.5636  0.2151
 1407SOL    HW211080   4.344   9.530   6.170 -0.8139 -0.8001  0.3295
 1408SOL     OW11081   1.411  10.866  11.128  0.8101  0.2593  0.5789
 1408SOL    HW111082   1.476  10.862  11.058 -1.2635 -0.9030 -1.4130
 1408SOL    HW211083   1.404  10.776  11.159 -2.4540 -0.5454 -1.9345
 1409SOL     OW11084   8.788   9.658   2.541 -0.4663 -0.4962 -0.2881
 1409SOL    HW111085   8.717   9.720   2.563 -0.0080 -0.3087  0.7234
 1409SOL    HW211086   8.854   9.712   2.498 -0.7402 -0.5890 -0.8362
 1410SOL     OW11087   2.830   4.218   2.170  0.1253 -0.1890 -0.0665
 1410SOL    HW111088   2.757   4.177   2.125  0.1680 -1.0110  0.5814
 1410SOL    HW211089   2.897   4.231   2.103  0.0012 -0.9391 -0.3315
 1411SOL     OW11090   7.185   7.750  11.289 -0.0340 -0.4053  0.2095
 1411SOL    HW111091   7.140   7.780  11.210 -0.3431 -1.4518 -0.0250
 1411SOL    HW211092   7.221   7.665  11.265  0.6505 -0.3258  0.9186
 1412SOL     OW11093  11.610   6.294   9.996 -0.0456  0.3090  0.2482
 1412SOL    HW111094  11.571   6.244   9.924 -0.1723  2.1801 -1.0658
 1412SOL    HW211095  11.685   6.339   9.956  1.6605 -0.8320  2.0028
 1413SOL     OW11096   1.065   5.685   5.359  0.1283 -0.3612  0.1233
 1413SOL    HW111097   0.982   5.691   5.407  0.7921  0.6817  1.2046
 1413SOL    HW211098   1.098   5.775   5.359  0.7087 -0.5568 -1.3230
 1414SOL     OW11099   9.536  12.344   9.329 -0.4084 -0.0865 -0.5781
 1414SOL    HW111100   9.552  12.279   9.261 -0.0161  1.0218 -1.5618
 1414SOL    HW211101   9.515  12.424   9.282 -1.2972  0.4194  0.6178
 1415SOL     OW11102   8.424   1.764   3.737 -0.7047  0.4256 -0.2027
 1415SOL    HW111103   8.490   1.759   3.668 -1.8798  0.9449 -1.3828
 1415SOL    HW211104   8.421   1.675   3.774 -0.4984 -0.0120 -1.2166
 1416SOL     OW11105   5.981   8.093   4.804 -0.0325 -0.2349 -0.6416
 1416SOL    HW111106   6.069   8.131   4.807 -0.3438  0.5118 -0.9084
 1416SOL    HW211107   5.926   8.161   4.766 -1.0708 -0.0103  1.1161
 1417SOL     OW11108   2.894   2.477   5.529 -0.3348 -0.2902 -0.0622
 1417SOL    HW111109   2.951   2.460   5.604  1.1416 -2.9591 -1.6186
 1417SOL    HW211110   2.907   2.570   5.510  2.9215 -0.5716  0.2171
 1418SOL     OW11111   1.438   1.427   0.320 -0.0514  0.5600  0.3885
 1418SOL    HW111112   1.450   1.354   0.259 -0.6733  0.6543  0.1363
 1418SOL    HW211113   1.467   1.393   0.404  0.0562  0.1564  0.1939
 1419SOL     OW11114   5.244  11.349   6.967 -0.2597 -0.0427  0.0908
 1419SOL    HW111115   5.229  11.431   7.014 -0.2206  1.3638 -2.1681
 1419SOL    HW211116   5.324  11.363   6.918 -1.4722 -0.4787 -2.1689
 1420SOL     OW11117   4.386   8.954  11.800  0.6974 -0.3263  0.4910
 1420SOL    HW111118   4.316   8.971  11.737 -0.0146 -1.1942  1.0308
 1420SOL    HW211119   4.416   8.865  11.778  0.6823 -0.4949  1.1480
 1421SOL     OW11120   8.585   6.218  10.269 -0.1385 -0.1804  0.0652
 1421SOL    HW111121   8.608   6.300  10.313  0.2005 -0.2821  0.0843
 1421SOL    HW211122   8.494   6.228  10.243  0.2072  0.6303 -0.8848
 1422SOL     OW11123   9.026   7.559  12.499 -0.3590 -0.5666  0.0790
 1422SOL    HW111124   8.972   7.529  12.426 -1.6068 -0.4652  0.9117
 1422SOL    HW211125   9.114   7.529  12.479 -0.4627  0.3863 -1.9624
 1423SOL     OW11126   5.701   9.130  11.304  0.7206  0.0550  0.2458
 1423SOL    HW111127   5.772   9.143  11.241 -0.6097 -0.9751 -1.5680
 1423SOL    HW211128   5.722   9.046  11.346  0.9501  0.1183  0.2601
 1424SOL     OW11129   7.520  11.546   3.714  0.2938  0.1716 -0.5394
 1424SOL    HW111130   7.429  11.553   3.743  0.3565 -1.4066  0.1608
 1424SOL    HW211131   7.515  11.511   3.625  0.1943  1.7537 -1.1837
 1425SOL     OW11132   4.362   5.481   5.373  0.0978 -0.1580  0.1865
 1425SOL    HW111133   4.307   5.558   5.388  1.6080  1.0930 -0.4324
 1425SOL    HW211134   4.450   5.516   5.357  0.8430 -2.0137 -0.1260
 1426SOL     OW11135  11.355   7.861   8.737  0.2824 -0.2579 -0.1799
 1426SOL    HW111136  11.281   7.850   8.677  0.1151 -0.4587  0.0579
 1426SOL    HW211137  11.346   7.951   8.770 -0.9210 -0.8424  1.2216
 1427SOL     OW11138  12.442   9.284   9.419 -0.4248 -0.3759 -0.1679
 1427SOL    HW111139  12.435   9.214   9.354  0.7709  0.3669 -1.1352
 1427SOL    HW211140  12.385   9.353   9.385 -0.5310 -0.3503  0.0653
 1428SOL     OW11141   2.954   7.349  11.352 -0.1927 -0.6353 -0.2116
 1428SOL    HW111142   2.893   7.421  11.334  1.0098  0.3809 -0.4063
 1428SOL    HW211143   2.925   7.278  11.296 -1.7624 -0.5212  0.3970
 1429SOL     OW11144   7.147   6.052   6.602 -0.3381  0.0940 -0.4825
 1429SOL    HW111145   7.222   6.089   6.556 -1.0524  0.2948 -1.5164
 1429SOL    HW211146   7.156   6.082   6.692  1.2179 -0.4930 -0.4241
 1430SOL     OW11147  11.023  12.252   9.881 -0.2646 -0.0290 -0.2119
 1430SOL    HW111148  10.992  12.168   9.847 -0.7929  0.6765 -1.5541
 1430SOL    HW211149  10.945  12.306   9.886  0.2523  0.7756 -0.5895
 1431SOL     OW11150  11.827   2.077   8.166  0.1335 -0.5753  0.5247
 1431SOL    HW111151  11.825   1.997   8.218  2.2294  0.3091  2.1235
 1431SOL    HW211152  11.903   2.067   8.109 -1.1216 -0.7746 -1.2020
 1432SOL     OW11153   5.529  11.301   0.452 -0.4497  0.1154  0.0045
 1432SOL    HW111154   5.577  11.381   0.430 -0.3558  0.5648  1.6608
 1432SOL    HW211155   5.478  11.281   0.374 -2.5015  3.2604  0.3537
 1433SOL     OW11156   5.247   4.258   1.914  0.4311  0.4443  0.5032
 1433SOL    HW111157   5.215   4.174   1.947  0.3604  0.6957  1.0932
 1433SOL    HW211158   5.269   4.241   1.823 -0.5128  0.0368  0.3400
 1434SOL     OW11159  10.769   4.177   4.746 -0.5952 -0.0150 -0.7381
 1434SOL    HW111160  10.694   4.123   4.723 -0.3049 -0.7770  0.0359
 1434SOL    HW211161  10.744   4.220   4.828  0.3365 -1.4241  0.3325
 1435SOL     OW11162   6.523   1.662   7.409 -0.1480 -0.1513  0.3621
 1435SOL    HW111163   6.509   1.669   7.315  0.3856 -1.0741  0.2071
 1435SOL    HW211164   6.490   1.575   7.432 -1.8387  0.6951  1.3263
 1436SOL     OW11165   5.423   2.854   3.689 -0.2903  0.3760  0.0774
 1436SOL    HW111166   5.404   2.816   3.775  0.7759 -0.3492  0.0051
 1436SOL    HW211167   5.347   2.910   3.671 -0.7480  0.1813  1.2776
 1437SOL     OW11168   8.930  10.635  11.358  0.2288  0.9049  0.0351
 1437SOL    HW111169   8.887  10.693  11.421  1.1371  1.7996 -0.1390
 1437SOL    HW211170   8.881  10.648  11.276  0.4568  1.4782 -0.0159
 1438SOL     OW11171   7.159   6.852  10.069 -0.3393  0.2481 -0.5524
 1438SOL    HW111172   7.229   6.867  10.006 -0.6590  1.7017 -0.5847
 1438SOL    HW211173   7.185   6.773  10.116  2.1322  1.5945  0.5009
 1439SOL     OW11174   4.835   0.732   6.754 -0.3879  0.0045  0.5266
 1439SOL    HW111175   4.850   0.670   6.683  0.9714 -0.0677  0.8519
 1439SOL    HW211176   4.851   0.818   6.715 -3.7780  0.3786 -0.3463
 1440SOL     OW11177   1.444   9.504   3.233 -0.0523  0.2195 -0.0752
 1440SOL    HW111178   1.513   9.533   3.174  1.1192  2.4392  2.2114
 1440SOL    HW211179   1.373   9.567   3.219 -0.7889 -0.7611 -0.8698
 1441SOL     OW11180   6.046   3.701  10.998  0.3216  0.4895 -0.0383
 1441SOL    HW111181   6.003   3.617  10.980  0.1103  0.7027 -0.5409
 1441SOL    HW211182   5.988   3.766  10.960 -1.7176  1.2937  3.8477
 1442SOL     OW11183   5.474   5.264   1.215  0.3289 -0.2336 -0.2366
 1442SOL    HW111184   5.549   5.323   1.219  1.0641 -1.1980  1.5788
 1442SOL    HW211185   5.400   5.318   1.243  0.3697  0.6235 -1.6679
 1443SOL     OW11186   3.338   4.118  11.963  0.3858 -0.1195 -0.1307
 1443SOL    HW111187   3.273   4.081  11.904 -0.0336 -2.0886  1.4875
 1443SOL    HW211188   3.294   4.193  12.003  0.3483  0.6455 -1.5055
 1444SOL     OW11189   2.083   2.781  11.808 -0.2740 -0.0193 -0.3809
 1444SOL    HW111190   2.177   2.769  11.792 -0.4556  1.8660 -3.8494
 1444SOL    HW211191   2.043   2.702  11.771 -0.1689 -0.1855 -0.1504
 1445SOL     OW11192   2.351   4.299   5.187  0.1806  0.3248 -0.5263
 1445SOL    HW111193   2.315   4.358   5.254  0.2106 -0.6042  0.3401
 1445SOL    HW211194   2.399   4.233   5.237  1.2261  0.2762 -1.5416
 1446SOL     OW11195   6.287   3.447   1.960 -0.1462 -0.3350  0.2271
 1446SOL    HW111196   6.348   3.427   1.889 -0.4967 -2.3794  0.4352
 1446SOL    HW211197   6.322   3.399   2.035 -2.1190 -1.8529  0.2678
 1447SOL     OW11198   6.788   6.723   8.109 -0.3345 -0.4292 -0.5230
 1447SOL    HW111199   6.841   6.645   8.127 -2.5143 -1.9072 -0.1345
 1447SOL    HW211200   6.738   6.701   8.030 -1.4795  0.2893 -0.0316
 1448SOL     OW11201   3.292  11.472   4.168  0.5069  0.7591 -0.2808
 1448SOL    HW111202   3.266  11.427   4.248 -0.4993  0.0546 -0.9859
 1448SOL    HW211203   3.385  11.450   4.158  0.5420  0.5349  0.4735
 1449SOL     OW11204   6.732   0.084  12.326 -0.3864 -0.1276 -0.2209
 1449SOL    HW111205   6.816   0.129  12.329 -0.2913 -0.2930 -0.3827
 1449SOL    HW211206   6.755  -0.008  12.315 -0.5088 -0.4777  1.9914
 1450SOL     OW11207  10.664  10.871  10.923 -0.7149 -0.2127  0.3424
 1450SOL    HW111208  10.641  10.887  10.831 -1.5286 -1.8909  0.2157
 1450SOL    HW211209  10.638  10.780  10.938  2.2930 -1.0199  1.3261
 1451SOL     OW11210   2.214  10.291   0.647 -0.1614 -0.5752  0.2841
 1451SOL    HW111211   2.289  10.313   0.702  0.8047 -1.0434 -0.8143
 1451SOL    HW211212   2.231  10.202   0.617 -1.7729 -1.1641  0.9777
 1452SOL     OW11213   5.502   8.377   4.836 -0.6534  0.2993  0.5592
 1452SOL    HW111214   5.430   8.428   4.798  0.3496  0.6081 -1.0115
 1452SOL    HW211215   5.464   8.291   4.852 -1.6547  0.7570  0.7385
 1453SOL     OW11216  10.756   0.218   1.012  0.1760 -0.2344  0.3183
 1453SOL    HW111217  10.836   0.166   1.009  0.7462  0.4992  1.7218
 1453SOL    HW211218  10.773   0.291   0.952  1.6136  1.2568  2.3973
 1454SOL     OW11219  10.010   1.812   2.564  0.4091  0.0209 -0.3591
 1454SOL    HW111220  10.092   1.768   2.543  0.4795  0.3597 -0.7974
 1454SOL    HW211221  10.022   1.844   2.654  1.3032  1.3055 -0.9034
 1455SOL     OW11222   4.586  10.521   4.577 -0.1885  0.1430 -0.3466
 1455SOL    HW111223   4.587  10.526   4.672  0.4339 -1.1445 -0.2699
 1455SOL    HW211224   4.596  10.612   4.548  1.5586  0.3675  0.8092
 1456SOL     OW11225   8.830   8.917   3.678  0.3428  0.2158  0.6797
 1456SOL    HW111226   8.844   8.962   3.594  0.7628  1.3314  1.3241
 1456SOL    HW211227   8.909   8.936   3.728  1.0666 -2.2575  0.5677
 1457SOL     OW11228   5.991   6.370  12.425  0.0077  0.1859 -0.1910
 1457SOL    HW111229   5.940   6.431  12.479  1.0339  2.1290 -1.2955
 1457SOL    HW211230   6.017   6.301  12.485 -0.6536  1.1928  1.3156
 1458SOL     OW11231   2.449  10.476  10.302  0.0203  0.1292 -0.0023
 1458SOL    HW111232   2.451  10.565  10.338  0.5876  0.0881  0.0893
 1458SOL    HW211233   2.531  10.437  10.333 -0.3415 -0.5064  0.1597
 1459SOL     OW11234  11.710   5.016   9.129  0.0155  0.1017 -0.1247
 1459SOL    HW111235  11.616   5.009   9.108 -0.0154  1.2890 -0.4699
 1459SOL    HW211236  11.727   4.942   9.187 -0.5011 -1.8009 -2.2391
 1460SOL     OW11237   5.458   6.341   5.524  0.1648  0.3432 -0.6610
 1460SOL    HW111238   5.393   6.404   5.554  0.5630 -0.9096  3.4539
 1460SOL    HW211239   5.540   6.390   5.524  0.1481  0.3863  0.3736
 1461SOL     OW11240  11.471  12.066  10.660 -0.7855 -0.5969  0.3392
 1461SOL    HW111241  11.422  12.139  10.620  0.5904 -1.0707 -2.4818
 1461SOL    HW211242  11.530  12.108  10.722 -0.7920  0.5843 -0.4189
 1462SOL     OW11243   4.983   3.210  11.344  0.4810 -0.0079  0.5892
 1462SOL    HW111244   5.014   3.120  11.350 -2.1440 -1.0156  0.1801
 1462SOL    HW211245   4.989   3.231  11.251 -0.1478 -0.2419  0.4944
 1463SOL     OW11246   6.847   6.232  10.933 -0.1961  0.3743  0.5743
 1463SOL    HW111247   6.876   6.312  10.888 -0.5383  0.9265  1.3096
 1463SOL    HW211248   6.919   6.211  10.992 -0.2596  0.3499  0.6428
 1464SOL     OW11249   7.445  11.171   6.045 -0.4751  0.1053  0.3542
 1464SOL    HW111250   7.453  11.232   5.973  0.5374 -2.5855 -2.0105
 1464SOL    HW211251   7.353  11.177   6.072 -1.2485  0.2724 -2.1146
 1465SOL     OW11252   5.321   4.528   2.912  0.8614  0.0815 -0.5927
 1465SOL    HW111253   5.335   4.434   2.924  1.5637  0.3442  0.9768
 1465SOL    HW211254   5.395   4.556   2.859 -0.0399 -0.4360 -2.1830
 1466SOL     OW11255   4.456   2.563   4.754  0.4339 -0.0513  0.0643
 1466SOL    HW111256   4.400   2.486   4.748  1.0893 -0.4861 -0.7562
 1466SOL    HW211257   4.543   2.529   4.773  0.6720  0.5067  0.0080
 1467SOL     OW11258   8.140   9.995  11.714 -0.5069  0.1531  0.2782
 1467SOL    HW111259   8.210   9.996  11.648 -2.2728  1.1843 -1.7100
 1467SOL    HW211260   8.079  10.062  11.684 -3.1282 -1.7515  1.0595
 1468SOL     OW11261   8.374  10.994   7.969 -0.4171 -0.2294  0.3132
 1468SOL    HW111262   8.350  10.920   8.025 -0.1672 -0.4203  0.1749
 1468SOL    HW211263   8.458  10.968   7.931 -0.0432  0.3735  0.7074
 1469SOL     OW11264   6.084  10.975   6.214  0.2727 -0.0228 -0.2578
 1469SOL    HW111265   6.160  11.028   6.190  1.5784 -1.2376  1.0163
 1469SOL    HW211266   6.098  10.891   6.170 -0.1201 -0.3907  0.3100
 1470SOL     OW11267   9.771   7.862  12.303 -0.0771 -0.1355  0.0037
 1470SOL    HW111268   9.831   7.897  12.368 -0.2521 -0.5230  0.3782
 1470SOL    HW211269   9.688   7.908  12.319 -0.1966 -0.4291  0.2379
 1471SOL     OW11270  10.776   3.468   0.823 -0.1368 -0.4326  0.3323
 1471SOL    HW111271  10.771   3.391   0.880 -2.2079  0.8430  2.0167
 1471SOL    HW211272  10.702   3.457   0.763  2.4013 -2.1136 -2.8017
 1472SOL     OW11273   2.073   3.667   4.303  0.1218  0.1722 -0.7712
 1472SOL    HW111274   1.990   3.689   4.346  0.8009  0.0187  0.6705
 1472SOL    HW211275   2.120   3.614   4.367  1.3046  0.1820 -1.5991
 1473SOL     OW11276  11.663   9.356   7.976  0.1862 -0.2838 -0.1650
 1473SOL    HW111277  11.755   9.384   7.976  0.5751 -1.4712 -0.2385
 1473SOL    HW211278  11.658   9.292   8.047 -0.8939  0.6674  0.6342
 1474SOL     OW11279   9.635  10.260   5.077 -0.4914  0.0615  0.1022
 1474SOL    HW111280   9.610  10.322   5.009  0.4763  1.2135  0.7354
 1474SOL    HW211281   9.569  10.271   5.146  0.0623  0.9396  0.5144
 1475SOL     OW11282  10.699   5.402   6.288  0.2216  0.4402 -0.3166
 1475SOL    HW111283  10.765   5.427   6.353  0.4329  1.7102 -1.0005
 1475SOL    HW211284  10.622   5.454   6.311 -0.5318 -0.9134  0.3782
 1476SOL     OW11285   8.126   3.036  11.429  0.0280  0.1127  0.2740
 1476SOL    HW111286   8.143   3.128  11.448  1.1216 -0.3076  1.4491
 1476SOL    HW211287   8.198   2.989  11.472 -0.4631 -1.2833 -0.3814
 1477SOL     OW11288   0.529   8.432   3.288  0.5190 -0.0586 -0.3021
 1477SOL    HW111289   0.578   8.453   3.367 -1.1136  0.5432  0.5860
 1477SOL    HW211290   0.511   8.517   3.247 -1.7401 -0.0182  0.6274
 1478SOL     OW11291   8.953   4.800   4.831 -0.0469  0.4524 -0.6174
 1478SOL    HW111292   8.985   4.796   4.741  0.4091 -0.4602 -0.4270
 1478SOL    HW211293   8.878   4.740   4.832 -0.6359  1.1725 -0.6074
 1479SOL     OW11294   6.002   9.558   2.728 -0.4047  0.0820  0.4733
 1479SOL    HW111295   6.061   9.509   2.786 -0.4485  0.3167  0.7145
 1479SOL    HW211296   5.969   9.630   2.782 -0.8311  0.0149  0.3098
 1480SOL     OW11297   4.627  10.103   1.530 -0.2091  0.3290 -0.7885
 1480SOL    HW111298   4.550  10.047   1.542  0.6721 -0.8248 -0.2862
 1480SOL    HW211299   4.666  10.073   1.448  1.9243 -1.9603  0.9082
 1481SOL     OW11300   5.822   1.626   9.103 -0.2744 -0.5823 -0.2026
 1481SOL    HW111301   5.818   1.637   9.198 -1.3233  0.2375 -0.3171
 1481SOL    HW211302   5.915   1.618   9.083  0.0531  0.5738  0.7607
 1482SOL     OW11303   0.615   9.584   3.269  0.0539  0.3054  0.3296
 1482SOL    HW111304   0.663   9.502   3.269 -0.2487  0.0920  1.6629
 1482SOL    HW211305   0.677   9.649   3.303  0.0782  0.4782 -0.0451
 1483SOL     OW11306   3.396  10.992  11.287 -0.0919  0.2708 -0.3410
 1483SOL    HW111307   3.460  10.921  11.298 -1.0923 -0.3681  2.3147
 1483SOL    HW211308   3.422  11.058  11.351 -0.1809  1.5765 -1.5923
 1484SOL     OW11309   1.887   9.958   5.524  0.6941 -0.1818 -0.0867
 1484SOL    HW111310   1.847  10.045   5.526 -0.7968 -0.8609  0.8860
 1484SOL    HW211311   1.870   9.926   5.435 -0.3720 -0.1906  0.1101
 1485SOL     OW11312   6.741   4.115   1.186 -0.3056  0.3913 -0.4493
 1485SOL    HW111313   6.772   4.036   1.230  0.6602  1.1469  0.2818
 1485SOL    HW211314   6.647   4.101   1.175 -0.1842 -0.7682 -0.1689
 1486SOL     OW11315   4.012   7.870  10.441 -0.3441  0.1690 -0.1223
 1486SOL    HW111316   3.979   7.904  10.524 -0.4920 -0.8279  0.2395
 1486SOL    HW211317   3.936   7.827  10.401  0.7441 -3.5735  1.4428
 1487SOL     OW11318   8.514   3.992  12.080  0.9195  0.7474 -0.1712
 1487SOL    HW111319   8.569   3.930  12.127  0.3107 -0.6700 -1.2574
 1487SOL    HW211320   8.426   3.975  12.112  0.6602  0.6045 -0.9506
 1488SOL     OW11321   6.107   5.365   7.017  0.7014 -0.3300 -0.0515
 1488SOL    HW111322   6.163   5.328   6.949 -0.6255 -0.1342 -1.3048
 1488SOL    HW211323   6.163   5.426   7.065  1.1026  1.4207 -2.5504
 1489SOL     OW11324   3.726  11.658   5.502  0.4138 -0.2378 -0.2418
 1489SOL    HW111325   3.768  11.714   5.567 -3.6859  0.3952  2.1975
 1489SOL    HW211326   3.706  11.718   5.430  0.2006  0.3561  0.2983
 1490SOL     OW11327   5.805   9.333   0.820  0.1074  0.9959 -0.0178
 1490SOL    HW111328   5.780   9.249   0.859  1.2959  0.8834  0.5636
 1490SOL    HW211329   5.750   9.398   0.863  1.4457  0.8877  1.9782
 1491SOL     OW11330   0.537   7.537   8.978 -0.2508 -0.3191  0.6939
 1491SOL    HW111331   0.632   7.528   8.979 -0.2218 -0.1687  2.5067
 1491SOL    HW211332   0.521   7.631   8.984 -0.5499 -0.1925 -1.3878
 1492SOL     OW11333  11.410   9.961  10.343  0.5851 -0.9623 -0.2027
 1492SOL    HW111334  11.378   9.927  10.260 -1.4793 -0.2846  0.2519
 1492SOL    HW211335  11.463  10.037  10.319 -0.5857 -0.3354 -0.9155
 1493SOL     OW11336  11.311   2.876   7.479 -0.2244  0.2598 -0.3195
 1493SOL    HW111337  11.258   2.915   7.549  0.3122 -0.5978  0.5803
 1493SOL    HW211338  11.247   2.830   7.425 -0.4232 -0.8840  0.8364
 1494SOL     OW11339   8.952  12.551   9.490  0.0144 -0.2537  0.2418
 1494SOL    HW111340   8.975  12.592   9.406  1.0631  0.3386  0.7893
 1494SOL    HW211341   8.862  12.522   9.478 -0.4088  1.2434 -0.5692
 1495SOL     OW11342   2.797   6.795  12.091  0.0539  0.0124 -0.1052
 1495SOL    HW111343   2.726   6.733  12.081 -0.9177  1.2033 -0.9482
 1495SOL    HW211344   2.805   6.836  12.004  0.5329  1.1756  0.4646
 1496SOL     OW11345   4.991   1.484   5.583  0.0229 -0.0401  0.0040
 1496SOL    HW111346   5.039   1.494   5.501 -0.1490  2.0272  0.1007
 1496SOL    HW211347   5.037   1.414   5.629  1.4471  0.2154 -0.9502
 1497SOL     OW11348   7.694   8.627   7.060 -0.0513 -0.2392  0.0282
 1497SOL    HW111349   7.666   8.676   7.137  1.7035 -0.9799  1.2008
 1497SOL    HW211350   7.726   8.694   6.999 -0.5023  0.2781  0.3526
 1498SOL     OW11351   9.248   3.208   5.834 -0.6567 -0.5740 -0.1900
 1498SOL    HW111352   9.307   3.161   5.892 -1.2050 -1.2351 -0.1513
 1498SOL    HW211353   9.305   3.256   5.775 -0.0673 -1.4163 -0.3296
 1499SOL     OW11354   9.876   2.190   2.867 -0.3856  0.9047  0.7202
 1499SOL    HW111355   9.938   2.198   2.939  0.2516  2.2841  0.0643
 1499SOL    HW211356   9.815   2.122   2.894  1.6670 -0.8346  1.2055
 1500SOL     OW11357   7.404  11.171   5.385 -0.1827 -0.4172 -0.3558
 1500SOL    HW111358   7.344  11.096   5.378  0.4952 -0.9832 -0.1685
 1500SOL    HW211359   7.359  11.232   5.443 -1.1362 -0.2859 -1.1982
 1501SOL     OW11360   7.162   4.255   3.600 -0.9054  0.5228 -0.6852
 1501SOL    HW111361   7.127   4.325   3.546  1.2792  0.9060 -1.7219
 1501SOL    HW211362   7.151   4.286   3.690 -0.0514  2.2038 -1.1137
 1502SOL     OW11363   7.473   0.391  10.815  0.1938 -0.1716 -0.6185
 1502SOL    HW111364   7.480   0.486  10.806 -1.3227  0.1360  0.9199
 1502SOL    HW211365   7.466   0.358  10.726  2.8235  0.9184 -1.3175
 1503SOL     OW11366   9.302   9.266   3.804  0.2312 -0.4538 -0.3671
 1503SOL    HW111367   9.208   9.276   3.812  0.1443  1.6082 -2.7068
 1503SOL    HW211368   9.323   9.189   3.857 -2.9244 -1.7869 -0.8498
 1504SOL     OW11369   7.816   6.921   4.388 -0.2632 -0.9740  0.9518
 1504SOL    HW111370   7.837   6.886   4.474  0.2673  0.1526  1.2952
 1504SOL    HW211371   7.788   7.011   4.405  0.5083 -0.5154 -0.1045
 1505SOL     OW11372   5.572   7.233   9.547 -0.4617  0.2406 -0.2803
 1505SOL    HW111373   5.491   7.268   9.510 -0.7923 -1.1114 -0.9226
 1505SOL    HW211374   5.561   7.241   9.642 -1.8673 -0.9122 -0.2944
 1506SOL     OW11375   4.726   2.623   3.225  0.5036  0.2437 -0.0695
 1506SOL    HW111376   4.704   2.677   3.300 -2.0283  1.3097 -1.4640
 1506SOL    HW211377   4.733   2.534   3.261 -0.0535  0.8036  1.4966
 1507SOL     OW11378   3.146   3.957   7.942 -0.1051 -0.2817  0.1208
 1507SOL    HW111379   3.221   4.015   7.928 -0.5683  0.0616 -1.1125
 1507SOL    HW211380   3.183   3.880   7.984  0.7665  0.3066  0.4674
 1508SOL     OW11381   3.785  12.160   0.637 -0.1354 -0.4192  0.2747
 1508SOL    HW111382   3.790  12.235   0.578 -0.2487 -0.7549 -0.1636
 1508SOL    HW211383   3.876  12.136   0.654 -0.0991 -1.3666 -1.1101
 1509SOL     OW11384   2.404  11.610   1.973 -0.5807  0.5970 -0.3611
 1509SOL    HW111385   2.487  11.658   1.982 -0.0152 -0.1217 -1.4425
 1509SOL    HW211386   2.343  11.674   1.937 -0.3748  1.0133  0.0187
 1510SOL     OW11387   4.522  10.182  11.490 -0.3661 -0.6886 -0.2153
 1510SOL    HW111388   4.451  10.133  11.450  0.4213 -0.5360 -1.9095
 1510SOL    HW211389   4.481  10.232  11.560 -1.8888 -0.7539 -1.0256
 1511SOL     OW11390   5.855   8.875   5.767  0.3717  0.3729  0.8345
 1511SOL    HW111391   5.878   8.911   5.853  1.6857  1.0288  0.2297
 1511SOL    HW211392   5.857   8.780   5.780  0.8066  0.4618  1.4761
 1512SOL     OW11393   0.132   8.063  12.302 -0.2512 -0.6373  0.1255
 1512SOL    HW111394   0.048   8.073  12.348  0.6320 -0.0663  1.6816
 1512SOL    HW211395   0.189   8.129  12.341  1.2823 -1.7794 -0.0878
 1513SOL     OW11396   0.968   3.728   8.141 -0.1242  0.1145  0.2230
 1513SOL    HW111397   0.879   3.700   8.164 -0.2259 -0.2481 -0.5922
 1513SOL    HW211398   0.991   3.793   8.208 -0.8416 -0.0981  0.6802
 1514SOL     OW11399   6.943  12.143   9.459  0.3377 -0.1636  0.8064
 1514SOL    HW111400   6.961  12.237   9.456  0.4033 -0.1792  0.7205
 1514SOL    HW211401   7.002  12.104   9.395  0.0878 -0.2290  0.6123
 1515SOL     OW11402  12.355   6.340   1.370  0.5821 -0.1518 -0.2954
 1515SOL    HW111403  12.285   6.275   1.382  1.4251 -1.0249 -0.0262
 1515SOL    HW211404  12.339   6.405   1.439 -1.2134  0.8290 -1.5378
 1516SOL     OW11405   2.529   1.716  11.309  0.2265  0.2008  0.6865
 1516SOL    HW111406   2.507   1.767  11.231  0.0064 -0.1032  0.5452
 1516SOL    HW211407   2.479   1.757  11.379 -1.4998 -0.9839  0.2159
 1517SOL     OW11408   6.021  10.737  11.421 -0.2651 -0.1537 -0.3535
 1517SOL    HW111409   6.112  10.718  11.401  0.2674  1.3213  0.5086
 1517SOL    HW211410   5.971  10.683  11.359  1.1162 -2.4177  0.3754
 1518SOL     OW11411   4.582   8.548  11.469  0.0353 -0.1687 -0.5754
 1518SOL    HW111412   4.649   8.508  11.415 -0.8460 -0.2785 -1.6164
 1518SOL    HW211413   4.535   8.607  11.410 -1.5898 -1.0375 -0.2144
 1519SOL     OW11414   4.931   6.241   2.498  0.7624  0.1217 -0.6255
 1519SOL    HW111415   4.864   6.310   2.498  0.5987 -0.0308 -1.1108
 1519SOL    HW211416   4.897   6.176   2.437  0.8909 -0.4167 -0.1300
 1520SOL     OW11417   2.643   9.437   7.458  0.1712 -0.1547  0.4455
 1520SOL    HW111418   2.581   9.383   7.505  2.6320 -2.3124  1.4610
 1520SOL    HW211419   2.677   9.498   7.524 -1.1722  1.3856 -0.2304
 1521SOL     OW11420   9.836   3.533   0.611 -0.6307 -0.4950 -0.5090
 1521SOL    HW111421   9.785   3.612   0.591 -2.2739 -1.0225  1.2921
 1521SOL    HW211422   9.798   3.466   0.555 -0.5048 -0.4342 -0.6692
 1522SOL     OW11423   3.157   6.498   0.261  0.4722 -0.2141 -0.0963
 1522SOL    HW111424   3.082   6.545   0.296  1.2310  1.2200 -0.3129
 1522SOL    HW211425   3.219   6.493   0.333  0.5908 -0.4834 -0.2121
 1523SOL     OW11426   1.349   9.803   2.215  0.8651 -0.1768 -0.0003
 1523SOL    HW111427   1.443   9.824   2.206  1.2517 -0.5281  2.6149
 1523SOL    HW211428   1.347   9.708   2.228  0.2828 -0.0080  1.2399
 1524SOL     OW11429   8.412  12.531   7.001  0.5479  0.6430  0.0965
 1524SOL    HW111430   8.478  12.488   7.055  1.2135  0.4185 -0.8497
 1524SOL    HW211431   8.422  12.490   6.915 -1.5439 -0.1348  0.1681
 1525SOL     OW11432   1.718   3.300   3.161  0.4349 -0.3774 -0.1538
 1525SOL    HW111433   1.648   3.343   3.210  0.7909  0.0715 -0.0295
 1525SOL    HW211434   1.696   3.207   3.164  0.5836 -0.3890  1.0975
 1526SOL     OW11435   5.334  10.738   7.581  0.4836  0.2828 -0.2285
 1526SOL    HW111436   5.290  10.812   7.622 -0.0475  0.2460 -0.7299
 1526SOL    HW211437   5.427  10.763   7.581  0.1943  1.4495 -1.4174
 1527SOL     OW11438   6.019   1.226   0.590  0.2562 -0.1261  0.1098
 1527SOL    HW111439   5.953   1.169   0.549 -1.3626  0.7756  1.3302
 1527SOL    HW211440   6.009   1.211   0.684  0.7172  1.1754  0.3898
 1528SOL     OW11441   9.337  10.611   4.721  0.1473 -0.4388  0.0731
 1528SOL    HW111442   9.290  10.669   4.660  0.4688  0.6323  0.8026
 1528SOL    HW211443   9.273  10.593   4.790 -0.4607 -2.2623 -0.9163
 1529SOL     OW11444   2.774  11.108  10.124 -0.3899 -0.0733 -0.8134
 1529SOL    HW111445   2.709  11.068  10.181 -0.0695  1.2662  0.5404
 1529SOL    HW211446   2.747  11.200  10.117 -0.1508 -0.0934 -2.4563
 1530SOL     OW11447   7.056   4.785   4.273  0.4366  0.2328 -0.0311
 1530SOL    HW111448   7.109   4.859   4.302  0.3704  0.2464  0.0540
 1530SOL    HW211449   6.966   4.811   4.292  0.4192  0.1001  0.0693
 1531SOL     OW11450   2.777  11.343   7.755 -0.2786  0.2973 -0.2448
 1531SOL    HW111451   2.851  11.322   7.812 -1.1938  1.4442  1.4823
 1531SOL    HW211452   2.817  11.378   7.676  1.0699  1.5031  0.8982
 1532SOL     OW11453   1.914   8.000   6.882  0.4100 -0.5993 -1.0936
 1532SOL    HW111454   1.883   8.089   6.899  0.9845 -0.5246 -0.4052
 1532SOL    HW211455   2.009   8.007   6.884  0.5264 -1.7012  1.7807
 1533SOL     OW11456   9.981  10.345   5.590  0.0817  0.4513 -0.3923
 1533SOL    HW111457   9.922  10.271   5.575 -1.2542  1.2213  0.7530
 1533SOL    HW211458  10.000  10.379   5.503  0.8073 -1.2866 -0.9470
 1534SOL     OW11459   7.414   8.594  11.649 -0.7249  0.0263  0.0376
 1534SOL    HW111460   7.464   8.513  11.652  0.5032  0.6430 -1.8216
 1534SOL    HW211461   7.336   8.572  11.598 -0.0883  0.1117 -1.0152
 1535SOL     OW11462  10.544  11.714   0.674  0.0396  0.1795 -0.1971
 1535SOL    HW111463  10.457  11.754   0.662 -0.7685 -1.2410  0.5947
 1535SOL    HW211464  10.596  11.749   0.601 -1.3642  0.6110 -1.0530
 1536SOL     OW11465   7.415   1.288   0.991 -0.2010  0.2004  0.5546
 1536SOL    HW111466   7.339   1.328   1.033 -0.2036 -0.2582  0.9958
 1536SOL    HW211467   7.406   1.194   1.008  0.0065  0.0473 -0.1347
 1537SOL     OW11468   2.760   8.684   1.870  0.0633 -0.4182 -0.1894
 1537SOL    HW111469   2.706   8.608   1.851  1.6372 -2.2000  1.9504
 1537SOL    HW211470   2.792   8.712   1.784 -1.6353 -1.3088 -1.1573
 1538SOL     OW11471   4.230   2.427  11.061  0.0305 -0.3722  0.8480
 1538SOL    HW111472   4.206   2.431  11.153 -1.0995 -2.0935  0.6685
 1538SOL    HW211473   4.289   2.352  11.054 -1.6948 -1.7080 -0.1436
 1539SOL     OW11474  12.172  10.712   7.879  0.2580 -0.2321  0.1587
 1539SOL    HW111475  12.106  10.767   7.837  0.2331 -0.7645 -0.5179
 1539SOL    HW211476  12.247  10.769   7.893  0.2521 -0.0436 -0.5896
 1540SOL     OW11477   9.587   8.568  11.597 -0.2146  0.3379  0.1046
 1540SOL    HW111478   9.675   8.573  11.633 -0.8128 -1.2424  1.9322
 1540SOL    HW211479   9.532   8.542  11.670 -2.1075  0.6372 -1.1428
 1541SOL     OW11480   5.886   1.611  11.955  0.0828 -0.1023 -0.5684
 1541SOL    HW111481   5.837   1.615  11.873 -0.1493  1.0218 -0.3965
 1541SOL    HW211482   5.865   1.694  11.999  1.2749 -0.0818  0.0011
 1542SOL     OW11483   5.932  11.217  10.271  0.2287 -0.1955  0.2910
 1542SOL    HW111484   5.877  11.150  10.230 -0.8530  0.4188  0.7011
 1542SOL    HW211485   5.897  11.228  10.359  0.7698  0.4792  0.4387
 1543SOL     OW11486   2.187  12.412   8.727 -0.2297 -0.3472  0.0706
 1543SOL    HW111487   2.249  12.363   8.672 -0.6235  0.8441 -1.5111
 1543SOL    HW211488   2.226  12.499   8.736 -0.1516 -0.5161  1.7902
 1544SOL     OW11489  11.820   5.678   0.742  0.4801  0.0518  0.5465
 1544SOL    HW111490  11.817   5.769   0.773  2.6843  0.3092  0.1857
 1544SOL    HW211491  11.781   5.627   0.813 -1.2549  1.2874  0.5472
 1545SOL     OW11492   9.043   8.130   7.525  0.2747 -0.1728 -0.1327
 1545SOL    HW111493   9.085   8.209   7.490  3.6210 -1.1816  1.2159
 1545SOL    HW211494   9.031   8.073   7.449 -1.1014  1.1038 -0.9295
 1546SOL     OW11495   3.116   8.237  12.022 -0.0307 -0.1653  0.4166
 1546SOL    HW111496   3.080   8.305  11.966 -0.3214 -0.6488  0.0049
 1546SOL    HW211497   3.180   8.192  11.968  0.9306  0.4457  1.0264
 1547SOL     OW11498  11.197   2.294  11.303 -0.1492 -0.0956 -0.3163
 1547SOL    HW111499  11.185   2.202  11.278  0.9999 -0.4409  0.3205
 1547SOL    HW211500  11.290   2.311  11.286  0.3644  0.0739  2.2344
 1548SOL     OW11501   6.862   6.584   3.513  0.4901 -0.2956 -0.6512
 1548SOL    HW111502   6.851   6.671   3.474 -0.8444  0.1697  0.6734
 1548SOL    HW211503   6.910   6.599   3.594  1.5175 -1.0077 -1.0997
 1549SOL     OW11504   2.398  10.529   9.221  0.0598 -0.3476 -0.0874
 1549SOL    HW111505   2.312  10.567   9.207 -0.1720 -1.3148 -1.5905
 1549SOL    HW211506   2.440  10.533   9.135  1.2530 -0.5200  0.4645
 1550SOL     OW11507   6.710   4.624   6.275 -0.1436  0.4737  0.3379
 1550SOL    HW111508   6.761   4.687   6.325 -1.3685  1.3361  0.5393
 1550SOL    HW211509   6.733   4.641   6.184  1.8052 -0.8474  0.5369
 1551SOL     OW11510   5.306   4.133   6.773  0.2805  0.2368 -0.2568
 1551SOL    HW111511   5.232   4.081   6.740 -0.0794  1.1048 -0.8395
 1551SOL    HW211512   5.311   4.110   6.866 -1.4187  0.9725  0.0552
 1552SOL     OW11513   7.535   5.821   5.980  0.3752 -0.0659  0.3528
 1552SOL    HW111514   7.510   5.794   6.069  0.2393  2.1544  1.0673
 1552SOL    HW211515   7.524   5.916   5.981 -0.8620 -0.0815 -2.4481
 1553SOL     OW11516   2.820   6.528   5.583 -0.3688  0.7275  0.6248
 1553SOL    HW111517   2.861   6.585   5.518 -0.4640 -2.2888 -2.3639
 1553SOL    HW211518   2.893   6.493   5.633  0.1161  0.4411 -0.2484
 1554SOL     OW11519   2.250   2.675   0.928 -0.4373  0.0721 -1.0870
 1554SOL    HW111520   2.196   2.601   0.955  1.3628 -1.0406 -0.3509
 1554SOL    HW211521   2.323   2.675   0.990 -1.1259  3.4428 -0.0598
 1555SOL     OW11522  10.189   5.784   8.763  0.3776 -0.4042 -0.3498
 1555SOL    HW111523  10.209   5.801   8.855 -1.8106 -0.8057  0.2493
 1555SOL    HW211524  10.179   5.871   8.724 -0.7051 -0.2324  0.2891
 1556SOL     OW11525   1.200   0.305  12.384  0.3216 -0.2097 -0.1989
 1556SOL    HW111526   1.169   0.395  12.399 -0.0693 -0.6464  2.0022
 1556SOL    HW211527   1.282   0.316  12.336 -0.1704  1.2652 -0.7661
 1557SOL     OW11528   6.358  10.546   5.252 -0.4943  0.1205 -0.2017
 1557SOL    HW111529   6.416  10.593   5.312 -0.9356 -0.5297  0.7396
 1557SOL    HW211530   6.276  10.538   5.299 -0.7299 -0.7344 -0.7424
 1558SOL     OW11531   0.928   6.050   7.775 -0.3558 -0.7781 -0.1710
 1558SOL    HW111532   0.915   6.145   7.779 -0.9373 -0.8574 -0.1919
 1558SOL    HW211533   0.941   6.024   7.866  1.0029 -0.5154 -0.2713
 1559SOL     OW11534   1.728   0.850   9.310 -0.1098  0.5585  0.8372
 1559SOL    HW111535   1.773   0.916   9.256  0.0914  0.5864  1.0413
 1559SOL    HW211536   1.636   0.857   9.283  0.3514 -1.3559 -1.5475
 1560SOL     OW11537   7.427  12.118   0.151  0.4017  0.0448  0.0974
 1560SOL    HW111538   7.506  12.068   0.127  2.9138  2.3424  2.8312
 1560SOL    HW211539   7.427  12.118   0.246 -4.6583 -2.1790  0.3747
 1561SOL     OW11540   8.314   2.667   5.569 -0.1309 -0.3064 -0.0187
 1561SOL    HW111541   8.373   2.630   5.635  1.0577  1.3558 -0.0854
 1561SOL    HW211542   8.269   2.738   5.614  1.7347  1.8004 -1.2468
 1562SOL     OW11543   0.052   0.555   0.235  0.7693 -0.2866  0.2836
 1562SOL    HW111544  -0.038   0.521   0.236  0.5822  0.2058  0.3269
 1562SOL    HW211545   0.084   0.542   0.324  0.5915 -0.0724  0.3793
 1563SOL     OW11546  12.129  11.472   0.557  0.8196  0.0317 -0.1880
 1563SOL    HW111547  12.045  11.495   0.596  0.4008 -3.0956  1.0454
 1563SOL    HW211548  12.192  11.528   0.603 -0.1047 -0.9502  2.4985
 1564SOL     OW11549   6.264   7.961   3.891 -0.2077 -0.4911 -0.2973
 1564SOL    HW111550   6.305   7.889   3.939 -1.1614 -1.7828 -1.3448
 1564SOL    HW211551   6.330   7.989   3.828  0.0939 -0.6061 -0.0318
 1565SOL     OW11552  11.116  12.424   2.001  0.4024 -0.8174 -0.1879
 1565SOL    HW111553  11.047  12.475   2.045 -0.4213  0.0723 -2.3725
 1565SOL    HW211554  11.192  12.482   2.002  0.0144 -0.2776 -1.0054
 1566SOL     OW11555  10.790   8.210  12.195  0.0587  0.2207  0.3958
 1566SOL    HW111556  10.804   8.305  12.200 -1.7724  0.5473 -0.0001
 1566SOL    HW211557  10.816   8.177  12.281 -0.0015  1.1997  0.8028
 1567SOL     OW11558  11.320   8.596   4.958  0.4544 -0.4366 -0.2532
 1567SOL    HW111559  11.313   8.651   4.879  0.3616  1.8482  1.2394
 1567SOL    HW211560  11.392   8.635   5.007 -1.4315  0.1775  2.2035
 1568SOL     OW11561   6.130   4.368   5.041 -0.3235 -0.8769  0.2938
 1568SOL    HW111562   6.076   4.297   5.076 -0.3258 -0.9500  0.1446
 1568SOL    HW211563   6.188   4.392   5.113 -0.1334 -1.2213  0.2619
 1569SOL     OW11564  10.173  10.157  10.014 -0.2045  0.1726  1.1083
 1569SOL    HW111565  10.251  10.151  10.069  0.2060 -2.4537  0.3902
 1569SOL    HW211566  10.199  10.214   9.941  0.7739 -0.0107  1.2976
 1570SOL     OW11567  11.499   4.214   2.031 -0.0352  0.1855  0.3870
 1570SOL    HW111568  11.590   4.206   2.003  0.0135  0.8325  0.3422
 1570SOL    HW211569  11.486   4.308   2.043 -0.5840  0.0635  0.7723
 1571SOL     OW11570   1.516   3.411  10.638  0.8054  0.3457  0.4746
 1571SOL    HW111571   1.487   3.492  10.595 -0.8225 -0.8719 -0.8981
 1571SOL    HW211572   1.598   3.389  10.595  0.3963  0.4156 -0.3750
 1572SOL     OW11573   9.760   2.937  10.373 -0.2418 -0.0391  0.3337
 1572SOL    HW111574   9.759   2.988  10.292  0.9614 -1.7685 -0.8402
 1572SOL    HW211575   9.736   3.000  10.441 -0.9333  1.5585 -1.2957
 1573SOL     OW11576   2.401  12.467   1.187  0.3401  0.2214  0.5777
 1573SOL    HW111577   2.382  12.515   1.106 -0.5003  0.8842  1.1574
 1573SOL    HW211578   2.471  12.518   1.228 -0.7230  1.1341  1.3162
 1574SOL     OW11579   0.073   1.327   1.911 -0.3338  0.3927 -0.3126
 1574SOL    HW111580   0.013   1.265   1.953 -0.6883  1.1949  0.4028
 1574SOL    HW211581   0.149   1.274   1.888 -1.7207 -0.8948 -2.2480
 1575SOL     OW11582   6.905  11.938   7.813  0.1642 -0.3233  0.3671
 1575SOL    HW111583   6.899  11.843   7.801  0.7975 -0.1211 -2.1785
 1575SOL    HW211584   6.840  11.974   7.752  1.6720  0.8907 -0.5989
 1576SOL     OW11585  11.536  10.087   3.985 -0.5438  0.1371 -0.1596
 1576SOL    HW111586  11.486  10.092   3.904 -1.2960  0.9990  0.3375
 1576SOL    HW211587  11.538  10.177   4.017 -1.2675 -0.3580  1.3742
 1577SOL     OW11588   9.680   1.210   3.601 -0.3169  0.0630  0.0539
 1577SOL    HW111589   9.685   1.166   3.516 -0.0316 -1.0696  0.6332
 1577SOL    HW211590   9.604   1.172   3.644 -0.1741  0.2691  0.4971
 1578SOL     OW11591   3.883   1.825  10.482  0.5842  0.2711  0.7053
 1578SOL    HW111592   3.952   1.888  10.501  3.9594 -2.4043 -1.3624
 1578SOL    HW211593   3.908   1.747  10.532  0.5281 -1.5124 -1.8358
 1579SOL     OW11594   4.416   3.112   9.445  0.1790 -0.4011  0.1388
 1579SOL    HW111595   4.455   3.068   9.521 -0.3248 -0.2227  0.5003
 1579SOL    HW211596   4.370   3.042   9.398  0.7466 -0.5734 -0.1819
 1580SOL     OW11597   5.173   9.119   8.094  0.1287  0.0896 -0.2240
 1580SOL    HW111598   5.146   9.211   8.101 -1.7041 -0.4037 -0.2689
 1580SOL    HW211599   5.103   9.078   8.043  2.3598 -0.7588 -2.8739
 1581SOL     OW11600   9.929   6.833   0.030  0.4173 -0.1427  0.3045
 1581SOL    HW111601   9.891   6.862   0.113  2.9471  0.0580  1.4787
 1581SOL    HW211602   9.911   6.904  -0.031 -1.2466 -0.1736  0.6997
 1582SOL     OW11603   0.197   7.777   3.207  0.3415  0.5432  0.2053
 1582SOL    HW111604   0.159   7.689   3.207 -0.6341  0.9530  0.3258
 1582SOL    HW211605   0.164   7.818   3.127  2.1712  0.2515 -0.7698
 1583SOL     OW11606   3.631  12.170   9.060  0.9423  0.2187  0.2267
 1583SOL    HW111607   3.579  12.249   9.043 -1.0217 -0.4478  2.5321
 1583SOL    HW211608   3.693  12.196   9.128  0.4899 -0.0969  0.7759
 1584SOL     OW11609   1.174   7.369  10.863  0.1372 -0.4197 -0.5461
 1584SOL    HW111610   1.127   7.288  10.881 -0.8606  0.1156 -0.6856
 1584SOL    HW211611   1.173   7.417  10.946 -0.2568 -0.0563 -0.7604
 1585SOL     OW11612   9.203   0.077   0.881 -0.0536  0.2679  0.3906
 1585SOL    HW111613   9.273   0.137   0.904 -0.2904  0.7969 -0.2394
 1585SOL    HW211614   9.224   0.048   0.792 -0.9404  0.9105 -0.0448
 1586SOL     OW11615   6.176   9.163   6.478 -0.5777 -0.0197 -0.3070
 1586SOL    HW111616   6.132   9.226   6.536 -1.3221 -1.0944  0.3314
 1586SOL    HW211617   6.207   9.095   6.537  2.6402  1.0172 -0.6311
 1587SOL     OW11618   9.381   4.368   5.452 -0.2423 -0.2104  0.0334
 1587SOL    HW111619   9.455   4.343   5.396 -0.2189 -0.3000  0.1023
 1587SOL    HW211620   9.331   4.431   5.400  1.1917  1.7183  0.8996
 1588SOL     OW11621   9.056   8.793  11.310  0.4840  0.0248  0.5231
 1588SOL    HW111622   9.027   8.770  11.222 -1.8010  0.6460  1.0404
 1588SOL    HW211623   9.066   8.888  11.308 -1.1645  0.2604  1.2876
 1589SOL     OW11624   0.991   4.162   6.622 -0.0549 -0.5804 -0.2162
 1589SOL    HW111625   0.895   4.158   6.630 -0.0691 -2.3414 -0.7591
 1589SOL    HW211626   1.023   4.104   6.691  0.6879  0.8158  0.6400
 1590SOL     OW11627  10.092   7.351   7.290  0.2483  0.1970 -0.1861
 1590SOL    HW111628  10.140   7.283   7.244 -0.4754  0.0066 -0.6807
 1590SOL    HW211629  10.010   7.309   7.316 -0.0178  0.7477 -0.1094
 1591SOL     OW11630   6.366   6.151   5.715 -0.4150 -0.1618  0.1007
 1591SOL    HW111631   6.394   6.242   5.706 -1.0174 -0.0565 -0.8384
 1591SOL    HW211632   6.273   6.156   5.734 -0.2410 -0.5637  1.1247
 1592SOL     OW11633  12.315   3.607   7.877 -0.0742 -0.1345 -0.2567
 1592SOL    HW111634  12.248   3.675   7.873  1.9675  2.1591  1.4912
 1592SOL    HW211635  12.377   3.631   7.808  0.5321 -0.3609  0.2081
 1593SOL     OW11636   1.655   1.005  11.436  0.0930  0.2364  0.5092
 1593SOL    HW111637   1.632   1.038  11.349 -1.6229 -0.5019  0.6290
 1593SOL    HW211638   1.679   1.082  11.486  1.0336  0.6785 -0.5899
 1594SOL     OW11639   2.402   9.746   6.456 -0.6177 -0.3389 -0.0019
 1594SOL    HW111640   2.436   9.732   6.544  0.0292  0.8973 -0.0286
 1594SOL    HW211641   2.321   9.796   6.469 -1.2630 -1.3582 -0.0487
 1595SOL     OW11642   8.724   4.403   0.175 -0.6036 -0.5210 -0.1138
 1595SOL    HW111643   8.731   4.342   0.101 -1.0514  0.4636 -0.9940
 1595SOL    HW211644   8.646   4.373   0.223 -0.1941 -1.2876  0.1010
 1596SOL     OW11645   4.910   8.774   3.093  0.8734 -0.4816 -0.0522
 1596SOL    HW111646   4.842   8.747   3.155  0.6436  0.8333  0.2999
 1596SOL    HW211647   4.863   8.795   3.013  1.0231 -0.8771 -0.2465
 1597SOL     OW11648   4.986   0.559   6.931  0.1062  0.7035 -0.4780
 1597SOL    HW111649   4.982   0.587   7.023  0.4510  0.4894 -0.3975
 1597SOL    HW211650   4.909   0.600   6.891  0.5262  1.6604 -0.3296
 1598SOL     OW11651   2.290   6.434   8.110 -0.2963 -0.2194 -0.2031
 1598SOL    HW111652   2.236   6.370   8.156  1.2712  0.0031  2.0926
 1598SOL    HW211653   2.237   6.515   8.110  0.3170  0.2805  2.9021
 1599SOL     OW11654   6.344   0.861   6.589  0.3611 -0.5386 -0.0495
 1599SOL    HW111655   6.333   0.817   6.505  0.3335 -0.4762 -0.0785
 1599SOL    HW211656   6.319   0.951   6.572  0.8494 -0.4116 -0.0985
 1600SOL     OW11657   2.163  10.372   2.184 -0.0341  0.3831  0.1468
 1600SOL    HW111658   2.116  10.388   2.102  0.9499 -0.1925 -0.5527
 1600SOL    HW211659   2.121  10.295   2.221  0.1982  0.0009 -0.3662
 1601SOL     OW11660  11.300  10.875  10.477 -0.0354 -0.2664 -0.3540
 1601SOL    HW111661  11.204  10.873  10.476 -0.0804  0.2271  1.2851
 1601SOL    HW211662  11.325  10.832  10.395 -1.6309 -1.4923 -0.2498
 1602SOL     OW11663   4.504   3.304   3.268  0.2712  0.3600  0.3804
 1602SOL    HW111664   4.445   3.339   3.201 -0.1569 -0.4732  0.3066
 1602SOL    HW211665   4.483   3.211   3.272 -0.1291  0.4795  2.0814
 1603SOL     OW11666  11.839   8.133   6.441 -0.1619 -0.3789 -0.2825
 1603SOL    HW111667  11.772   8.085   6.392 -1.1603  1.3999 -0.7439
 1603SOL    HW211668  11.905   8.155   6.376 -0.6879  0.5748 -0.5058
 1604SOL     OW11669  11.608   6.866   0.298  0.3894  0.1889 -0.4749
 1604SOL    HW111670  11.576   6.806   0.231 -0.1657 -1.8492  1.5044
 1604SOL    HW211671  11.682   6.911   0.257 -2.3289  2.1257 -3.8428
 1605SOL     OW11672   9.458   7.805  10.080 -0.1913  0.2568  0.0207
 1605SOL    HW111673   9.539   7.833  10.121 -1.2819  0.8150  1.9571
 1605SOL    HW211674   9.455   7.711  10.094  0.1936  0.2096 -0.2074
 1606SOL     OW11675  12.368   6.907  11.965 -0.4912 -0.5906 -0.6344
 1606SOL    HW111676  12.461   6.910  11.943  0.1673  0.0437  1.8853
 1606SOL    HW211677  12.327   6.973  11.909  0.6049 -0.7183 -1.6080
 1607SOL     OW11678  10.381   2.857   7.071  0.0281  0.6403  0.0100
 1607SOL    HW111679  10.307   2.886   7.018  0.4816  0.5940 -0.6652
 1607SOL    HW211680  10.351   2.777   7.113 -0.1631  0.3870 -0.5989
 1608SOL     OW11681   1.348   0.494  10.681  0.4954  0.1691 -0.6212
 1608SOL    HW111682   1.444   0.496  10.683  0.4741  0.4212  0.4374
 1608SOL    HW211683   1.327   0.503  10.588  1.4385  3.1106 -0.6639
 1609SOL     OW11684   3.829   0.085   8.130  0.1139 -0.1620 -0.3096
 1609SOL    HW111685   3.741   0.118   8.151  0.1871 -0.0138 -0.2392
 1609SOL    HW211686   3.818   0.042   8.045 -0.1919 -0.7997  0.0427
 1610SOL     OW11687   5.086   4.386  10.286  0.2639  0.4114 -0.3995
 1610SOL    HW111688   5.123   4.411  10.202  0.1745  0.2356 -0.4916
 1610SOL    HW211689   5.010   4.442  10.298  1.2647  1.6609  0.3673
 1611SOL     OW11690   5.231   8.094   3.761  0.7300 -0.9668  0.2123
 1611SOL    HW111691   5.232   8.141   3.844 -1.8432  1.3810 -0.9140
 1611SOL    HW211692   5.277   8.153   3.700  1.2159 -1.9276 -0.3731
 1612SOL     OW11693   5.356   6.908   0.086 -0.3950 -0.2029 -0.1668
 1612SOL    HW111694   5.386   6.968   0.153  0.8829 -0.9299 -0.0469
 1612SOL    HW211695   5.350   6.961   0.006 -3.2715  0.9942  0.7303
 1613SOL     OW11696  11.330   2.811   0.928 -0.0272  0.0361  0.4729
 1613SOL    HW111697  11.342   2.840   0.838 -1.2656  0.5077  0.4355
 1613SOL    HW211698  11.236   2.796   0.936  0.4095 -3.4056  0.7007
 1614SOL     OW11699   0.776   9.222   9.460  0.0752  0.2900 -0.1642
 1614SOL    HW111700   0.787   9.167   9.382  0.3105 -0.5724  0.4715
 1614SOL    HW211701   0.847   9.195   9.519  1.4848  2.6513 -0.6080
 1615SOL     OW11702   9.069   0.155  10.413 -0.3791 -0.2755  0.0001
 1615SOL    HW111703   9.044   0.081  10.358 -1.8215  0.7586 -0.7922
 1615SOL    HW211704   9.067   0.230  10.355  1.5841  0.3568  0.6692
 1616SOL     OW11705  10.515   5.994   7.642  0.0329  0.2736 -0.2587
 1616SOL    HW111706  10.606   5.970   7.657  0.2801 -0.3161 -2.3262
 1616SOL    HW211707  10.466   5.945   7.708  1.1445  0.1418  0.4997
 1617SOL     OW11708   2.858  11.029   7.900 -0.0859 -0.0792 -0.1067
 1617SOL    HW111709   2.770  10.993   7.893  0.0315 -0.2395 -0.8159
 1617SOL    HW211710   2.916  10.954   7.886  0.1636  0.0584  0.1794
 1618SOL     OW11711   7.582  10.129   1.937 -0.3381  0.2822 -0.3606
 1618SOL    HW111712   7.628  10.081   1.868 -2.0628  0.5808 -1.7996
 1618SOL    HW211713   7.607  10.220   1.924 -0.2102  0.2638 -0.2364
 1619SOL     OW11714  11.884   3.208  12.366  0.5756 -0.0915  1.0959
 1619SOL    HW111715  11.971   3.168  12.355  0.4933 -0.1411  0.5728
 1619SOL    HW211716  11.843   3.198  12.280  0.1782  0.2341  1.2472
 1620SOL     OW11717   8.394   8.620   1.630 -0.1498 -0.1636 -1.0871
 1620SOL    HW111718   8.376   8.612   1.536  0.9145  0.3779 -1.3544
 1620SOL    HW211719   8.488   8.603   1.638 -0.3838 -1.0739  0.0006
 1621SOL     OW11720   5.888   5.137   3.599  0.3318  0.2774 -0.2498
 1621SOL    HW111721   5.847   5.060   3.559 -0.4452  0.9043 -0.6764
 1621SOL    HW211722   5.903   5.197   3.526  2.3428 -0.0593 -0.1653
 1622SOL     OW11723   0.950   1.169   0.237 -0.3931 -0.0226  0.2542
 1622SOL    HW111724   0.961   1.127   0.322 -2.5856  0.6030  0.8998
 1622SOL    HW211725   0.992   1.109   0.175 -0.3727 -1.3986  1.5484
 1623SOL     OW11726   1.558   2.507   0.315 -0.1228 -0.0935 -0.7486
 1623SOL    HW111727   1.645   2.548   0.318  0.0720 -0.0329 -3.8844
 1623SOL    HW211728   1.566   2.430   0.372  1.3233  0.9757  0.5963
 1624SOL     OW11729   8.468  12.117   3.495  0.3469 -0.1832 -0.0510
 1624SOL    HW111730   8.538  12.156   3.547  0.2273 -0.1010  0.0519
 1624SOL    HW211731   8.392  12.173   3.512  0.2904 -0.1950 -0.2643
 1625SOL     OW11732   2.399   2.122   2.281 -0.7912 -0.4945 -0.2895
 1625SOL    HW111733   2.419   2.126   2.188  0.7144  1.2727  0.0408
 1625SOL    HW211734   2.436   2.039   2.310 -0.8997 -0.8642 -1.1895
 1626SOL     OW11735   9.659   0.727   2.879 -0.7184  0.1106 -0.2667
 1626SOL    HW111736   9.685   0.774   2.800 -1.8396  0.1678 -0.6195
 1626SOL    HW211737   9.734   0.735   2.937  0.6083 -0.9012 -1.7368
 1627SOL     OW11738  10.026  11.600  10.093  1.1066  0.9564 -0.1627
 1627SOL    HW111739  10.004  11.614  10.001 -0.5246 -0.4526 -0.0359
 1627SOL    HW211740  10.024  11.688  10.131 -4.1904  1.2598 -0.3222
 1628SOL     OW11741   1.659   6.509   4.670 -0.4632  0.2575  0.0226
 1628SOL    HW111742   1.678   6.530   4.762 -0.3003  0.0303  0.0427
 1628SOL    HW211743   1.663   6.594   4.625 -1.5426  0.5103  0.3870
 1629SOL     OW11744   0.363   2.387   7.890 -0.3620  0.0133  0.0082
 1629SOL    HW111745   0.312   2.334   7.829 -1.4960  1.0736 -0.0146
 1629SOL    HW211746   0.297   2.425   7.949  0.4462  1.0976  0.2430
 1630SOL     OW11747   8.186   7.225   8.541 -0.0031 -0.3940  0.3932
 1630SOL    HW111748   8.175   7.293   8.475 -0.5216 -2.4020 -1.7184
 1630SOL    HW211749   8.233   7.268   8.613  1.6645  1.6403 -1.7675
 1631SOL     OW11750   2.706   9.117   1.117 -0.5091 -0.2107  0.5148
 1631SOL    HW111751   2.738   9.109   1.027 -1.2945  0.9107  0.1082
 1631SOL    HW211752   2.784   9.108   1.172  0.3383  1.3115 -0.3920
 1632SOL     OW11753  10.231   0.615   2.421 -0.4217  0.1579  0.8465
 1632SOL    HW111754  10.310   0.568   2.448  0.9233  0.9611 -1.3843
 1632SOL    HW211755  10.208   0.577   2.336  0.2478  2.8398 -0.6683
 1633SOL     OW11756   2.770   4.909  11.503 -0.4157  0.5406  0.4590
 1633SOL    HW111757   2.751   4.863  11.586 -0.6566  0.4794  0.3726
 1633SOL    HW211758   2.712   4.985  11.504  0.2818  1.0793  0.7905
 1634SOL     OW11759  11.965   4.388   1.961 -0.1030  0.7474 -0.2846
 1634SOL    HW111760  11.987   4.299   1.933 -0.9297  0.5767 -0.4175
 1634SOL    HW211761  11.956   4.381   2.056  0.3109  0.7956 -0.2415
 1635SOL     OW11762  10.271   3.487   3.666 -0.2258 -0.4154  0.2130
 1635SOL    HW111763  10.302   3.572   3.635 -2.0533  1.0221  2.0822
 1635SOL    HW211764  10.323   3.469   3.744 -1.7372  0.4262  1.4636
 1636SOL     OW11765   3.727   3.599  10.705 -0.0741  0.1286  0.0508
 1636SOL    HW111766   3.737   3.694  10.699 -2.0755  0.4290  0.8279
 1636SOL    HW211767   3.633   3.584  10.696 -0.0246 -1.6183  1.7997
 1637SOL     OW11768   1.365   3.934   8.080  0.3030  0.3694 -0.2694
 1637SOL    HW111769   1.328   3.944   7.993 -1.3209  1.3455  0.4803
 1637SOL    HW211770   1.453   3.973   8.073  0.9152 -1.1880 -1.8690
 1638SOL     OW11771  11.523   8.786   8.836 -0.0836  0.1364  0.5083
 1638SOL    HW111772  11.566   8.800   8.920  0.8894 -3.6785  0.8310
 1638SOL    HW211773  11.596   8.774   8.774 -0.7018 -1.2491  0.0172
 1639SOL     OW11774   2.356  10.031   3.469 -0.2293 -0.7243  0.1623
 1639SOL    HW111775   2.442   9.989   3.465 -0.3440 -0.9602  0.1443
 1639SOL    HW211776   2.371  10.114   3.513 -0.0260 -0.8499  0.3274
 1640SOL     OW11777   0.492  11.070   0.390 -0.0589 -0.2485 -0.0134
 1640SOL    HW111778   0.546  11.148   0.392 -0.1564 -0.1908  1.4744
 1640SOL    HW211779   0.522  11.022   0.313  1.7461  0.0495  0.4431
 1641SOL     OW11780   9.552   6.896   8.949  0.3155 -0.4947  0.4570
 1641SOL    HW111781   9.645   6.916   8.938  0.3978  1.1227  3.2035
 1641SOL    HW211782   9.551   6.809   8.990  0.5056 -1.0605 -0.6861
 1642SOL     OW11783  11.664   6.974   9.856  0.5969  0.2875  0.1500
 1642SOL    HW111784  11.694   7.016   9.774  1.1145 -0.8516 -0.2670
 1642SOL    HW211785  11.592   7.029   9.886  2.5066  2.6837  0.7198
 1643SOL     OW11786  10.877  10.606   0.830  0.2263 -0.1495 -0.1073
 1643SOL    HW111787  10.831  10.523   0.839  0.5198 -0.3296 -0.2296
 1643SOL    HW211788  10.811  10.667   0.796  0.2604 -0.5929 -1.0048
 1644SOL     OW11789   4.085   6.865   6.778 -0.1735 -0.4665 -0.0182
 1644SOL    HW111790   4.066   6.895   6.867  0.9361 -2.7034  1.0547
 1644SOL    HW211791   4.165   6.912   6.754 -0.0768 -0.3844  0.4479
 1645SOL     OW11792   3.888  10.936   8.459  0.3193  0.5030  0.0123
 1645SOL    HW111793   3.843  11.012   8.495  0.8618  0.9746 -0.2907
 1645SOL    HW211794   3.911  10.961   8.369 -0.5950 -0.4772 -0.5181
 1646SOL     OW11795   9.249  11.459   9.873  0.1982 -0.2091  0.1357
 1646SOL    HW111796   9.184  11.389   9.887  2.5808 -2.4524  0.6690
 1646SOL    HW211797   9.258  11.463   9.778 -0.5298 -0.0219  0.0629
 1647SOL     OW11798   2.188   7.077   5.747  0.6105 -0.4264  0.5223
 1647SOL    HW111799   2.168   6.994   5.703 -0.5518 -0.5930  1.3097
 1647SOL    HW211800   2.250   7.053   5.816 -0.5259 -0.8490  1.4252
 1648SOL     OW11801   0.731   3.397   3.400 -0.2252  0.3249 -0.7298
 1648SOL    HW111802   0.713   3.446   3.480  0.2392  2.0697 -1.6489
 1648SOL    HW211803   0.827   3.392   3.397 -0.2584 -2.1940  0.2081
 1649SOL     OW11804   7.000   6.579   5.746 -0.1043  0.3358  0.1248
 1649SOL    HW111805   7.030   6.654   5.798 -1.0142  0.2751  0.7576
 1649SOL    HW211806   6.990   6.508   5.810 -1.2762  0.2701 -0.1113
 1650SOL     OW11807   2.332   5.588   7.874 -0.5923 -0.2761  0.0059
 1650SOL    HW111808   2.392   5.570   7.946  0.6605 -0.5256 -1.0703
 1650SOL    HW211809   2.380   5.645   7.815 -0.9222 -1.4466 -1.4769
 1651SOL     OW11810   8.786   9.764   0.735 -0.0926  0.1378  0.6337
 1651SOL    HW111811   8.801   9.788   0.643  1.0239 -0.1492  0.7205
 1651SOL    HW211812   8.793   9.847   0.783 -0.1301  0.2075  0.5200
 1652SOL     OW11813   3.438  12.410   8.771 -0.0343  0.1312  0.1772
 1652SOL    HW111814   3.436  12.505   8.776  2.0114  0.2638 -0.4079
 1652SOL    HW211815   3.434  12.381   8.863 -0.0697  0.8109  0.3900
 1653SOL     OW11816   7.522   9.637   6.818 -0.0895 -0.1509 -0.3312
 1653SOL    HW111817   7.577   9.622   6.895 -0.6290 -0.8470 -0.0698
 1653SOL    HW211818   7.473   9.555   6.807 -1.8103  0.7936  0.0443
 1654SOL     OW11819   6.905   3.796   5.779 -0.4754 -0.5858 -0.2149
 1654SOL    HW111820   6.896   3.822   5.687 -0.5242 -0.2960 -0.1295
 1654SOL    HW211821   6.980   3.847   5.811 -0.6556 -0.4507 -0.0088
 1655SOL     OW11822  11.289  12.084   3.867  0.0473  0.4314  0.0155
 1655SOL    HW111823  11.382  12.107   3.858  0.1400  0.1542  0.2372
 1655SOL    HW211824  11.249  12.110   3.784  0.4972 -0.2947 -0.4373
 1656SOL     OW11825   7.733   8.321   8.210  0.0055  0.4573 -0.4970
 1656SOL    HW111826   7.774   8.386   8.267  0.4517 -0.4059  0.1961
 1656SOL    HW211827   7.804   8.292   8.152  0.2542 -0.6317  0.3294
 1657SOL     OW11828   2.090  11.216  12.289  0.1653  0.0904 -0.3751
 1657SOL    HW111829   2.000  11.220  12.321 -0.4843  0.1866 -2.1440
 1657SOL    HW211830   2.103  11.299  12.243  1.0086 -0.1172 -0.5339
 1658SOL     OW11831   1.552   5.348   6.250 -0.6507 -0.5086  0.0490
 1658SOL    HW111832   1.581   5.394   6.329  0.9777 -1.0421 -0.2029
 1658SOL    HW211833   1.582   5.403   6.178 -0.8226 -0.7700 -0.2263
 1659SOL     OW11834   9.723   5.144  11.058  0.2110  0.1317  0.1250
 1659SOL    HW111835   9.670   5.219  11.086  1.4503  0.8707  0.5831
 1659SOL    HW211836   9.662   5.070  11.058 -0.5650  0.7167  1.7487
 1660SOL     OW11837   5.193   1.324   2.422 -0.8097 -0.2443  0.1572
 1660SOL    HW111838   5.139   1.401   2.440 -1.1654 -0.0338 -1.5485
 1660SOL    HW211839   5.214   1.287   2.508 -1.2870  1.3063  0.9667
 1661SOL     OW11840   8.067   6.660   8.160 -0.0944  0.5021 -0.1724
 1661SOL    HW111841   8.059   6.748   8.196  1.9041  1.2327 -1.3213
 1661SOL    HW211842   8.149   6.627   8.198 -2.3963 -2.3255  2.9884
 1662SOL     OW11843  12.175   7.422   4.098 -0.0279 -0.3371  0.2306
 1662SOL    HW111844  12.152   7.336   4.063  0.3118  0.3680 -1.8837
 1662SOL    HW211845  12.267   7.433   4.075 -0.3313  0.9860 -0.4438
 1663SOL     OW11846   8.062   6.337   7.581 -0.2325 -0.0378  0.2853
 1663SOL    HW111847   8.022   6.422   7.560 -0.0055 -0.2633 -1.1206
 1663SOL    HW211848   8.113   6.355   7.661  0.3362  1.3249 -0.3434
 1664SOL     OW11849   2.135   5.447   4.461 -0.0236 -0.8373 -0.0525
 1664SOL    HW111850   2.192   5.388   4.413 -0.7945 -0.2749 -1.7223
 1664SOL    HW211851   2.085   5.494   4.394 -0.0232  1.1417  1.2331
 1665SOL     OW11852  10.332   5.599  10.224 -0.2872  0.2433 -0.0867
 1665SOL    HW111853  10.394   5.647  10.169  0.5497 -0.3970  0.2762
 1665SOL    HW211854  10.312   5.519  10.174  0.8777 -0.5917  0.7378
 1666SOL     OW11855  12.406   7.123   3.047  0.0203  0.3609 -0.0014
 1666SOL    HW111856  12.330   7.158   3.093 -1.0573 -1.8421  0.0479
 1666SOL    HW211857  12.425   7.040   3.092 -1.1225 -1.9771 -3.3855
 1667SOL     OW11858  10.410  10.701   3.157 -0.3136  0.7426 -0.6345
 1667SOL    HW111859  10.382  10.692   3.248  1.8455 -1.5154 -0.0750
 1667SOL    HW211860  10.339  10.660   3.106 -1.2667  1.5058  0.0394
 1668SOL     OW11861   4.047  10.019   7.609 -0.0343 -0.1899  0.1501
 1668SOL    HW111862   4.032  10.088   7.543 -1.0458  0.0609  0.6195
 1668SOL    HW211863   4.053  10.067   7.692 -1.1987 -0.6831  0.5406
 1669SOL     OW11864   2.331   5.076  12.449  0.1197  0.0079  0.1419
 1669SOL    HW111865   2.259   5.034  12.496 -2.7321  1.9242 -2.1952
 1669SOL    HW211866   2.348   5.016  12.376  0.0947  0.1180  0.0469
 1670SOL     OW11867   9.308  10.770   3.047 -0.0441  0.7807 -0.3525
 1670SOL    HW111868   9.218  10.761   3.016  0.1464  1.0014 -0.9785
 1670SOL    HW211869   9.299  10.803   3.136 -0.6479 -1.3836  0.4518
 1671SOL     OW11870   8.857   1.025   6.182 -0.1847 -0.1421 -0.2714
 1671SOL    HW111871   8.864   0.934   6.153  0.0724 -0.1992 -0.0398
 1671SOL    HW211872   8.946   1.059   6.175  0.4800 -0.8781  2.7512
 1672SOL     OW11873   0.765   9.409  12.247 -0.2641 -0.4896  0.9124
 1672SOL    HW111874   0.693   9.364  12.203 -1.3165  2.1234 -0.2926
 1672SOL    HW211875   0.844   9.380  12.201 -0.9432 -0.7751 -0.1104
 1673SOL     OW11876   0.343   1.488   8.250  0.2327  0.3677  0.0907
 1673SOL    HW111877   0.397   1.529   8.182 -0.2230  1.0736  0.1443
 1673SOL    HW211878   0.298   1.561   8.293 -1.4554 -0.2520 -0.5385
 1674SOL     OW11879   0.652   0.663   0.000  0.3982 -1.2754 -0.4813
 1674SOL    HW111880   0.694   0.673  -0.085 -0.2171  0.6008 -0.6137
 1674SOL    HW211881   0.653   0.752   0.037 -4.9877 -0.5912 -1.2610
 1675SOL     OW11882  11.904   0.323  10.236  0.4059 -0.2153 -0.1065
 1675SOL    HW111883  11.932   0.243  10.282  0.3220 -0.4199 -0.4055
 1675SOL    HW211884  11.973   0.386  10.253 -0.6923  0.4620  2.2304
 1676SOL     OW11885   8.552   8.480   9.286 -0.3782  0.1091 -0.1970
 1676SOL    HW111886   8.594   8.518   9.208 -0.8765 -2.7232 -1.9958
 1676SOL    HW211887   8.536   8.389   9.262 -1.5816 -0.5975  2.8794
 1677SOL     OW11888   2.314   2.225   9.813  0.2205  0.0433  0.0462
 1677SOL    HW111889   2.230   2.271   9.815 -0.9433 -1.9721  0.3249
 1677SOL    HW211890   2.357   2.258   9.734 -1.3209  0.3352 -0.7162
 1678SOL     OW11891   9.064   3.916   5.483  0.0743 -0.0717  0.1101
 1678SOL    HW111892   9.067   3.823   5.508  0.8366  0.2389  1.2728
 1678SOL    HW211893   8.978   3.945   5.512 -0.4104 -0.5443 -0.8080
 1679SOL     OW11894   4.001   7.129  12.031  0.3248  0.6637 -0.0409
 1679SOL    HW111895   3.956   7.208  12.062 -3.1379 -0.9655 -0.3535
 1679SOL    HW211896   4.013   7.076  12.109 -1.6476 -0.3271 -0.3190
 1680SOL     OW11897   3.592   8.218   7.865  0.2841  0.1284 -0.6964
 1680SOL    HW111898   3.582   8.310   7.889  1.3485  0.0454  0.1367
 1680SOL    HW211899   3.679   8.214   7.824  0.6793 -0.6791  0.1917
 1681SOL     OW11900   8.965   3.885   5.858  0.0327 -0.0089 -0.2254
 1681SOL    HW111901   8.961   3.938   5.779 -1.7321  1.2987  0.6992
 1681SOL    HW211902   8.944   3.796   5.829 -0.0977  0.3620 -1.2840
 1682SOL     OW11903   9.135   1.042  11.392  0.4582 -0.1981 -0.0581
 1682SOL    HW111904   9.082   0.973  11.432  0.5219 -0.6854 -0.7993
 1682SOL    HW211905   9.220   1.037  11.437  0.8183 -1.3123 -0.8265
 1683SOL     OW11906  10.677   2.566   7.683  0.3720 -0.8368 -0.3029
 1683SOL    HW111907  10.643   2.477   7.697 -3.4337  0.4719  0.1228
 1683SOL    HW211908  10.614   2.623   7.728  2.8934  2.1222 -0.1556
 1684SOL     OW11909   9.186   3.429   7.407  0.0143  0.1584 -0.6605
 1684SOL    HW111910   9.192   3.425   7.502  2.2948 -2.3506 -0.7866
 1684SOL    HW211911   9.136   3.351   7.382 -0.1182  0.5121 -1.5635
 1685SOL     OW11912   0.296   8.183  11.116 -0.1618  0.1331 -0.5109
 1685SOL    HW111913   0.362   8.249  11.097  0.6939 -0.5719 -0.0388
 1685SOL    HW211914   0.285   8.135  11.034  0.6459 -0.3820 -0.3253
 1686SOL     OW11915   7.102   0.708  10.083 -0.3308  0.5720  0.2545
 1686SOL    HW111916   7.090   0.722  10.177 -2.9705  2.1491 -0.2159
 1686SOL    HW211917   7.028   0.652  10.058  0.3693  0.1370 -0.8847
 1687SOL     OW11918   1.962   5.393   7.385  0.0775 -0.1190 -0.5994
 1687SOL    HW111919   2.025   5.326   7.358  0.6220  0.7232 -1.4852
 1687SOL    HW211920   1.979   5.467   7.326 -0.8321  0.6231  0.0435
 1688SOL     OW11921  10.531  10.609  10.907 -0.0793 -0.2904  0.1595
 1688SOL    HW111922  10.439  10.612  10.879 -0.3287  2.3985  0.9626
 1688SOL    HW211923  10.578  10.571  10.833 -1.5691  0.2994 -1.1399
 1689SOL     OW11924   8.135   2.862  10.301  0.1774  0.1110 -0.0265
 1689SOL    HW111925   8.069   2.864  10.369 -0.2843 -1.1102 -0.4038
 1689SOL    HW211926   8.144   2.769  10.279  0.5864  0.4330 -1.3483
 1690SOL     OW11927   5.089   6.926   7.930  0.1893 -0.0028  0.1077
 1690SOL    HW111928   5.162   6.870   7.905 -0.5360 -0.3820 -1.2661
 1690SOL    HW211929   5.019   6.865   7.953 -0.2271  0.3379 -0.2396
 1691SOL     OW11930   0.513   6.103   4.673  0.0226  0.2105 -0.3207
 1691SOL    HW111931   0.490   6.021   4.629  2.3255 -0.9669  0.4777
 1691SOL    HW211932   0.556   6.155   4.606 -1.8818  1.0374 -0.9605
 1692SOL     OW11933   1.076   1.221   3.652  0.0777 -0.3956  0.3136
 1692SOL    HW111934   1.071   1.307   3.693  0.6202 -0.6004  0.8045
 1692SOL    HW211935   0.985   1.190   3.652  0.1310 -0.6484  1.9104
 1693SOL     OW11936   8.225   9.537   4.223 -0.0130 -0.5832  0.0476
 1693SOL    HW111937   8.288   9.481   4.179  0.4123  0.5925 -0.8734
 1693SOL    HW211938   8.278   9.594   4.278 -0.4097 -0.7299  0.5948
 1694SOL     OW11939   6.450   4.111   4.815 -0.3586 -0.7264 -0.4225
 1694SOL    HW111940   6.532   4.062   4.821 -0.3067 -0.5571  0.3510
 1694SOL    HW211941   6.422   4.123   4.906  0.0514  1.3673 -0.5177
 1695SOL     OW11942   6.300   3.236   4.380  0.2989  0.4682  0.4322
 1695SOL    HW111943   6.218   3.224   4.332  0.8857  0.1961 -0.5194
 1695SOL    HW211944   6.315   3.152   4.424  0.6224  0.1360 -0.2899
 1696SOL     OW11945   6.607   0.844   9.730 -0.5726 -0.8789 -0.0097
 1696SOL    HW111946   6.601   0.934   9.698 -0.8216 -1.0904 -0.5767
 1696SOL    HW211947   6.700   0.832   9.751 -0.7658 -0.0418  1.4426
 1697SOL     OW11948   4.024   7.506   7.074  0.2018  0.0018  0.3172
 1697SOL    HW111949   3.979   7.578   7.030 -1.9964 -0.9877  0.8174
 1697SOL    HW211950   4.078   7.466   7.006  0.0047  0.9606 -0.4261
 1698SOL     OW11951   7.997   0.553   2.524  0.4519  0.0748 -0.2863
 1698SOL    HW111952   8.033   0.641   2.523  0.5600  0.0603  0.8639
 1698SOL    HW211953   7.957   0.544   2.611 -0.7912 -0.5160 -0.8902
 1699SOL     OW11954   1.200   0.856   4.531  0.2355 -0.3389 -0.4125
 1699SOL    HW111955   1.118   0.864   4.580  0.4982  2.1367 -0.2465
 1699SOL    HW211956   1.175   0.810   4.450 -2.2498  3.5890 -2.1528
 1700SOL     OW11957   7.904   2.446   1.912  0.0924 -0.0766 -0.1627
 1700SOL    HW111958   7.898   2.378   1.979  0.1651 -0.2809 -0.3658
 1700SOL    HW211959   7.995   2.474   1.914 -0.2783  1.2031  1.0981
 1701SOL     OW11960   1.159  11.688  11.044  0.1267 -0.0170  0.3534
 1701SOL    HW111961   1.085  11.638  11.080  0.4119  0.5164  1.7650
 1701SOL    HW211962   1.134  11.707  10.954 -0.0222 -2.6230 -0.2454
 1702SOL     OW11963   1.819   1.675   9.683 -0.7273  0.1739 -0.0466
 1702SOL    HW111964   1.757   1.710   9.747 -0.4289  2.3204 -0.8574
 1702SOL    HW211965   1.902   1.669   9.730 -0.8154  0.4176  0.1398
 1703SOL     OW11966   1.562   5.823   7.256  0.2037 -0.3069  0.1793
 1703SOL    HW111967   1.537   5.912   7.232  1.0397 -0.7132 -2.5307
 1703SOL    HW211968   1.641   5.806   7.205  0.4912 -2.3668  1.2116
 1704SOL     OW11969   9.245   5.278   3.914 -0.7193 -0.3798  0.5445
 1704SOL    HW111970   9.230   5.372   3.907  1.1234  0.0579  1.8439
 1704SOL    HW211971   9.226   5.244   3.827 -0.3015  1.3594 -0.2636
 1705SOL     OW11972   7.033   7.445   1.210  0.0491 -0.0894 -0.2305
 1705SOL    HW111973   7.125   7.432   1.235 -0.4932  0.0158  2.0343
 1705SOL    HW211974   7.010   7.365   1.162  0.7871 -1.0408  0.9383
 1706SOL     OW11975   9.927   7.762   6.086 -0.3302  0.1862  1.0855
 1706SOL    HW111976   9.869   7.804   6.022  0.1246 -0.6015  0.1356
 1706SOL    HW211977   9.889   7.675   6.098  0.8847 -0.5160  0.0960
 1707SOL     OW11978   8.305   6.843   4.840  0.1851  0.1366  0.3064
 1707SOL    HW111979   8.282   6.753   4.819 -0.1476  0.0710  0.9362
 1707SOL    HW211980   8.229   6.877   4.888  0.7352  0.4215  0.9929
 1708SOL     OW11981   5.606   0.525   7.905  0.2934 -0.0845  0.1105
 1708SOL    HW111982   5.526   0.566   7.872  0.4304 -0.4929 -0.7768
 1708SOL    HW211983   5.619   0.450   7.847  2.0061  0.6924 -0.5760
 1709SOL     OW11984  11.333   4.483   1.726 -0.2708  0.0177  0.2687
 1709SOL    HW111985  11.284   4.551   1.680 -1.4873 -2.9779 -3.4306
 1709SOL    HW211986  11.420   4.485   1.686 -0.2506 -0.4569  0.2867
 1710SOL     OW11987   8.724   0.982  11.598  0.5448  0.4206 -0.3100
 1710SOL    HW111988   8.637   0.980  11.638  1.1646  0.7831  1.1098
 1710SOL    HW211989   8.776   0.921  11.649  1.3772  0.9119 -0.5451
 1711SOL     OW11990   7.838   9.708   9.325 -0.4474 -0.3793  0.0908
 1711SOL    HW111991   7.747   9.715   9.297 -0.5245 -1.7961 -0.0693
 1711SOL    HW211992   7.841   9.629   9.378  0.4132  0.4052  1.2559
 1712SOL     OW11993   4.323   1.640   4.046 -0.0256  0.5164 -0.7561
 1712SOL    HW111994   4.372   1.559   4.059  0.7839  0.7174 -2.2998
 1712SOL    HW211995   4.234   1.611   4.024  0.2078  0.0394 -1.0876
 1713SOL     OW11996   5.540   2.498   6.591  0.0435 -0.2642 -0.0114
 1713SOL    HW111997   5.499   2.572   6.545 -1.7254 -1.9178 -1.2573
 1713SOL    HW211998   5.507   2.421   6.546  1.1611 -1.8768  1.7870
 1714SOL     OW11999  12.292   8.970   2.461  0.4804 -0.2346  0.4597
 1714SOL    HW112000  12.203   9.006   2.464  0.4982  0.0935 -1.4450
 1714SOL    HW212001  12.342   9.024   2.521 -0.4876 -0.0777  1.1555
 1715SOL     OW12002   7.882   1.808   8.214 -0.3955 -0.1882  0.3487
 1715SOL    HW112003   7.796   1.767   8.217 -1.1960  1.3194 -0.5472
 1715SOL    HW212004   7.924   1.771   8.136  0.3131 -1.8624  1.4742
 1716SOL     OW12005   2.629   5.478   9.307  0.0812  0.1978 -0.4925
 1716SOL    HW112006   2.536   5.497   9.309  0.0902  0.1935  0.3712
 1716SOL    HW212007   2.666   5.533   9.376  0.4541 -1.1584  0.4132
 1717SOL     OW12008   1.921   2.984   6.870  0.6522  0.2285  0.1141
 1717SOL    HW112009   1.999   2.960   6.820  1.6656 -0.6650  2.0296
 1717SOL    HW212010   1.854   2.922   6.842  1.5584 -1.0582  0.7024
 1718SOL     OW12011   9.274   8.164   4.847 -0.2483 -0.0243  0.6272
 1718SOL    HW112012   9.292   8.213   4.767  1.6685 -1.7316 -0.0569
 1718SOL    HW212013   9.201   8.106   4.824  0.5448 -0.7868 -0.0510
 1719SOL     OW12014   9.132   2.460   2.413  0.7541  0.1474 -0.8935
 1719SOL    HW112015   9.057   2.424   2.461  1.6636 -1.1922 -0.4188
 1719SOL    HW212016   9.103   2.547   2.386 -0.5714  0.1068  0.2448
 1720SOL     OW12017   9.678   4.786  10.585 -0.4930  0.5214 -0.0474
 1720SOL    HW112018   9.599   4.835  10.610  0.3278  1.2836  1.1008
 1720SOL    HW212019   9.740   4.802  10.655  0.6461 -0.2114 -0.8556
 1721SOL     OW12020   6.617   5.522  10.745  0.1321 -0.7481 -0.0436
 1721SOL    HW112021   6.564   5.453  10.704 -0.1346  0.3106 -1.5541
 1721SOL    HW212022   6.578   5.604  10.714  2.1595  0.0694 -0.5915
 1722SOL     OW12023   3.942   1.970  12.286 -0.3298 -0.4021  0.0106
 1722SOL    HW112024   3.974   1.881  12.270 -0.1852 -0.1363 -1.2775
 1722SOL    HW212025   3.938   2.010  12.200  0.5949  1.1891  0.6642
 1723SOL     OW12026   9.996   1.446   6.506  0.6866 -0.4846 -0.3954
 1723SOL    HW112027  10.011   1.440   6.412 -2.3320 -4.3700 -0.9010
 1723SOL    HW212028   9.976   1.538   6.522  1.4933  0.3298 -3.4733
 1724SOL     OW12029   6.237   8.575  11.469 -1.1839 -0.0720 -0.3645
 1724SOL    HW112030   6.291   8.500  11.445 -1.2798 -0.4170  0.4902
 1724SOL    HW212031   6.274   8.607  11.551 -1.0799  0.8858 -0.7738
 1725SOL     OW12032  10.492   5.038   6.870  0.0387 -0.3849 -0.4574
 1725SOL    HW112033  10.468   5.130   6.874 -0.9898 -0.6795  0.7516
 1725SOL    HW212034  10.551   5.032   6.795 -1.5295  0.8675 -1.8678
 1726SOL     OW12035   0.197  11.619   9.354  0.7200 -0.1879  0.6635
 1726SOL    HW112036   0.227  11.637   9.265 -0.3267  0.1011  0.3484
 1726SOL    HW212037   0.106  11.650   9.355  1.0900  1.0075  2.1972
 1727SOL     OW12038   0.587   3.165   4.148 -0.2299  0.0532 -0.3141
 1727SOL    HW112039   0.543   3.188   4.066  0.4232 -0.9073 -0.9589
 1727SOL    HW212040   0.562   3.074   4.163 -1.3237  0.5654  1.2262
 1728SOL     OW12041   4.904   8.339  11.833  0.2917 -0.0857  0.6796
 1728SOL    HW112042   4.922   8.249  11.858 -1.0163 -0.2809  0.9745
 1728SOL    HW212043   4.924   8.390  11.912  1.0957 -0.0950  0.4908
 1729SOL     OW12044   2.807  12.239  11.381  0.4793  0.3030  0.6271
 1729SOL    HW112045   2.789  12.145  11.374  1.9008  0.0413  0.0262
 1729SOL    HW212046   2.901  12.246  11.362  0.2917  1.9024  0.1724
 1730SOL     OW12047   9.632  12.173   8.641  0.1205  0.1479 -0.3507
 1730SOL    HW112048   9.622  12.183   8.547  0.2560  0.7391 -0.3026
 1730SOL    HW212049   9.725  12.152   8.654 -0.1710 -1.3841 -0.4592
 1731SOL     OW12050  10.521   7.136  11.069  0.8230 -0.0170  0.3186
 1731SOL    HW112051  10.566   7.206  11.020  0.2956  2.0105  2.5640
 1731SOL    HW212052  10.566   7.056  11.042  1.4706  1.1318 -2.3722
 1732SOL     OW12053   0.606  11.949   2.800 -0.4652 -0.1398 -0.4149
 1732SOL    HW112054   0.627  11.901   2.880 -0.3986 -0.8056 -0.8266
 1732SOL    HW212055   0.526  11.909   2.768  0.2559 -0.7987 -1.4176
 1733SOL     OW12056   9.055   4.924   2.894  0.1829  0.3924 -0.2275
 1733SOL    HW112057   9.066   4.841   2.940  0.1565  0.7789  0.4865
 1733SOL    HW212058   8.965   4.921   2.862  0.7256 -0.6191 -1.7737
 1734SOL     OW12059  10.436   9.594   9.279 -0.0503 -0.0791  0.0866
 1734SOL    HW112060  10.418   9.571   9.370  0.9712  0.9142  0.5673
 1734SOL    HW212061  10.525   9.629   9.281 -0.6228  1.5711 -0.9808
 1735SOL     OW12062   3.830  11.831   7.160  0.1256  0.1174  0.3409
 1735SOL    HW112063   3.801  11.806   7.248  1.6535  1.6529  1.3338
 1735SOL    HW212064   3.807  11.756   7.105  1.4756 -1.9991  2.5158
 1736SOL     OW12065   7.364   1.650   9.541 -0.7624 -0.5079 -0.4313
 1736SOL    HW112066   7.434   1.668   9.603 -1.3270 -2.1946  0.7842
 1736SOL    HW212067   7.407   1.646   9.455 -0.3354  4.5562 -0.7439
 1737SOL     OW12068   1.943   4.213   4.356 -0.1858 -0.2486  0.0085
 1737SOL    HW112069   1.910   4.302   4.341  1.7484  0.3437 -1.0094
 1737SOL    HW212070   1.864   4.158   4.352 -1.2883  1.2895 -0.4048
 1738SOL     OW12071   8.638  11.248   4.336  0.4670 -0.2520 -0.0696
 1738SOL    HW112072   8.578  11.287   4.400  0.4729 -1.3214  0.6139
 1738SOL    HW212073   8.633  11.154   4.353 -0.3550 -0.6844 -2.3745
 1739SOL     OW12074   9.148   1.046   0.115  0.1302 -0.4795  0.5702
 1739SOL    HW112075   9.067   1.038   0.165 -0.0511  0.1066  0.3756
 1739SOL    HW212076   9.174   1.137   0.126 -0.2723 -0.1515 -0.9286
 1740SOL     OW12077  10.017  10.013   7.740 -0.5228 -0.0635 -0.0210
 1740SOL    HW112078  10.096  10.015   7.687 -0.1473  2.0232  0.5469
 1740SOL    HW212079   9.946   9.996   7.677  0.1138  0.5018 -0.9037
 1741SOL     OW12080  11.724  11.153   8.835 -0.1515 -0.3571 -0.4603
 1741SOL    HW112081  11.656  11.215   8.812  0.7943  0.6046 -0.7547
 1741SOL    HW212082  11.756  11.119   8.751  0.1780 -0.3035 -0.3588
 1742SOL     OW12083  12.367  10.548  11.482 -0.4005 -0.2888 -0.1306
 1742SOL    HW112084  12.304  10.540  11.553  0.7355  0.1970  0.9828
 1742SOL    HW212085  12.315  10.545  11.402 -1.6164 -1.8867  0.6798
 1743SOL     OW12086   3.907   2.806   8.056  0.3086 -0.0749 -0.2736
 1743SOL    HW112087   3.919   2.901   8.051  1.6833 -0.1322  1.4263
 1743SOL    HW212088   3.823   2.795   8.101  0.9296  0.3654  1.0397
 1744SOL     OW12089   0.070   2.893   9.897  0.1490  0.1568 -0.0898
 1744SOL    HW112090   0.019   2.848   9.830 -1.2170  0.5474  0.6386
 1744SOL    HW212091   0.111   2.823   9.948 -0.5725 -0.2155 -0.0112
 1745SOL     OW12092   4.796   3.405   9.973 -0.1778 -0.0343 -0.6275
 1745SOL    HW112093   4.800   3.404  10.068 -1.5313 -0.4553 -0.5549
 1745SOL    HW212094   4.785   3.497   9.950  3.7891  0.5984 -0.6318
 1746SOL     OW12095  10.491   1.972   8.065 -0.2948  0.6871  0.0169
 1746SOL    HW112096  10.571   1.945   8.020 -0.0674 -0.3941  0.9944
 1746SOL    HW212097  10.514   2.052   8.111  0.0562  0.7029 -0.1878
 1747SOL     OW12098   9.983   6.603  12.154  0.3987  0.0317  0.0469
 1747SOL    HW112099   9.917   6.656  12.108  0.6294  0.2890  0.0110
 1747SOL    HW212100  10.044   6.576  12.085  0.1102 -0.5436  0.0130
 1748SOL     OW12101   9.788   3.390   5.032  0.0476  0.3327 -0.3712
 1748SOL    HW112102   9.801   3.484   5.044  2.3833  0.2792 -1.9188
 1748SOL    HW212103   9.850   3.349   5.092  0.1506 -0.1789 -0.8194
 1749SOL     OW12104   1.857   8.207  11.729  0.3325 -0.1332 -0.3632
 1749SOL    HW112105   1.819   8.259  11.800 -1.0566  0.9379 -1.8298
 1749SOL    HW212106   1.950   8.229  11.730  0.3460 -0.1699  1.1182
 1750SOL     OW12107   0.993  12.110   0.485 -0.1880  0.9476  0.6193
 1750SOL    HW112108   0.994  12.015   0.470 -0.1492  1.0213  0.1213
 1750SOL    HW212109   1.073  12.142   0.443  0.4537  1.0561  1.8658
 1751SOL     OW12110   8.699   1.117   7.617  0.1692  0.2055  0.0173
 1751SOL    HW112111   8.776   1.146   7.666 -0.3576  1.8694 -0.0893
 1751SOL    HW212112   8.689   1.182   7.547 -1.2096 -0.1000 -0.0935
 1752SOL     OW12113   8.160   2.385   5.733 -0.0740  0.1519 -0.1648
 1752SOL    HW112114   8.087   2.359   5.789 -0.1906 -0.4584 -0.5869
 1752SOL    HW212115   8.129   2.369   5.644  0.7031 -0.4854 -0.3386
 1753SOL     OW12116   9.041  11.942   6.276  1.0419 -0.5524 -0.1710
 1753SOL    HW112117   9.075  11.946   6.187  3.4105 -0.5658  0.6745
 1753SOL    HW212118   8.960  11.993   6.273  1.0580 -0.5603 -2.3051
 1754SOL     OW12119   8.827   4.086   6.383 -0.0322 -0.1028 -0.6495
 1754SOL    HW112120   8.784   4.158   6.337  1.1683  0.0370 -1.6170
 1754SOL    HW212121   8.883   4.046   6.317 -0.2913 -1.6209  0.0149
 1755SOL     OW12122   3.547   5.459   5.862  0.0530 -0.1762  0.4375
 1755SOL    HW112123   3.465   5.509   5.864 -0.0840 -0.2680 -1.3380
 1755SOL    HW212124   3.568   5.452   5.769  2.1587 -0.0417  0.8570
 1756SOL     OW12125   2.452   3.093  11.899  0.0303  0.3092 -0.1899
 1756SOL    HW112126   2.440   3.188  11.899 -1.3132  0.2203  1.9625
 1756SOL    HW212127   2.525   3.078  11.840  0.2428  2.6724 -0.6376
 1757SOL     OW12128   7.423   7.705  11.579  0.2665 -0.1220  0.1813
 1757SOL    HW112129   7.354   7.674  11.638  1.1774 -1.0324  0.8081
 1757SOL    HW212130   7.391   7.686  11.491 -0.7462  0.4743  0.4086
 1758SOL     OW12131   7.134  10.366   8.421  0.5130 -0.0878 -1.1469
 1758SOL    HW112132   7.188  10.402   8.351  0.4541  0.8676 -0.7171
 1758SOL    HW212133   7.151  10.424   8.496 -0.8652  0.0472 -0.9169
 1759SOL     OW12134   4.091   5.305  10.566  0.1393  0.2094  0.2877
 1759SOL    HW112135   4.063   5.308  10.474 -0.1555 -0.5293  0.3453
 1759SOL    HW212136   4.165   5.366  10.571 -1.3717  2.1660  0.1096
 1760SOL     OW12137   5.087  11.312   8.725 -0.4392 -0.3861  0.0648
 1760SOL    HW112138   5.131  11.262   8.793 -0.3146 -0.4607 -0.0685
 1760SOL    HW212139   4.995  11.313   8.751 -0.1837  0.7994  0.9689
 1761SOL     OW12140   6.082   8.736   2.746  0.8270  0.5461  0.0860
 1761SOL    HW112141   6.008   8.699   2.699  0.2490  2.6820 -0.7652
 1761SOL    HW212142   6.065   8.830   2.749  1.9459  0.7535  2.6533
 1762SOL     OW12143   2.091   4.556   8.196  0.1058  0.5539  0.6212
 1762SOL    HW112144   2.108   4.576   8.288 -0.8704  0.3459  0.8706
 1762SOL    HW212145   1.997   4.573   8.185 -0.6978 -3.0359  0.6894
 1763SOL     OW12146  12.124   8.774   4.436  0.0708 -0.5870 -0.6371
 1763SOL    HW112147  12.195   8.752   4.497 -0.7916  0.2575  0.7368
 1763SOL    HW212148  12.075   8.843   4.481 -1.0127 -0.4213 -2.0140
 1764SOL     OW12149   1.629  12.007   3.202 -0.3382 -0.1713 -0.2333
 1764SOL    HW112150   1.559  11.988   3.265  0.5601  0.4067  0.9635
 1764SOL    HW212151   1.698  12.047   3.254  1.0838 -1.1329 -1.3012
 1765SOL     OW12152   4.258   3.610   8.232  0.2619  0.1384  0.2437
 1765SOL    HW112153   4.173   3.577   8.258 -0.1063  0.9258  0.0618
 1765SOL    HW212154   4.305   3.533   8.200 -1.1028 -0.0102 -1.5690
 1766SOL     OW12155   6.598   2.013  10.501 -0.0576  0.2162  0.0429
 1766SOL    HW112156   6.613   1.957  10.424  0.4501  1.6874 -0.9693
 1766SOL    HW212157   6.665   1.986  10.564  0.1913 -0.3036 -0.4338
 1767SOL     OW12158   1.431   5.573   7.758  0.2350  0.4518  0.8741
 1767SOL    HW112159   1.366   5.643   7.763  1.8506  2.1744 -0.6735
 1767SOL    HW212160   1.459   5.572   7.667  2.5104 -0.0490  1.4911
 1768SOL     OW12161   7.360  11.955   6.026  0.2111 -0.1394  0.3658
 1768SOL    HW112162   7.351  11.880   5.967  0.7652  0.7079 -0.8449
 1768SOL    HW212163   7.326  11.924   6.110 -2.9909 -0.6379 -0.9824
 1769SOL     OW12164   7.371   9.097   1.215 -0.5762 -0.6581  0.1492
 1769SOL    HW112165   7.315   9.122   1.142 -0.0039  0.2995  0.0133
 1769SOL    HW212166   7.443   9.049   1.175 -0.0733  0.1761  0.0086
 1770SOL     OW12167   4.968  12.474   8.210 -0.4480 -0.6363 -0.3403
 1770SOL    HW112168   5.021  12.530   8.153 -0.5339 -0.4978 -0.2838
 1770SOL    HW212169   5.030  12.412   8.248 -0.3010 -0.3698 -0.1468
 1771SOL     OW12170   1.989   9.602   2.293  0.2179 -0.3823  0.0715
 1771SOL    HW112171   2.009   9.565   2.207  0.9697 -1.8401  0.8299
 1771SOL    HW212172   1.907   9.560   2.319  0.4922 -0.6829  0.4635
 1772SOL     OW12173   5.314   1.246   2.124 -0.1504 -0.3101 -0.0158
 1772SOL    HW112174   5.358   1.329   2.106 -0.0248 -0.2338  0.6180
 1772SOL    HW212175   5.269   1.260   2.207  0.0000 -0.9220  0.1769
 1773SOL     OW12176   4.882   4.863   7.066 -0.1054 -0.1500  0.2685
 1773SOL    HW112177   4.792   4.896   7.070 -0.3569 -0.6500 -0.8807
 1773SOL    HW212178   4.889   4.823   6.979  0.4088 -2.4580  1.3010
 1774SOL     OW12179   8.823   7.760   5.115 -0.1710 -0.9053  0.2438
 1774SOL    HW112180   8.770   7.838   5.099  0.9511  0.0660  1.1321
 1774SOL    HW212181   8.830   7.717   5.029  0.5273  0.8341 -0.6106
 1775SOL     OW12182   1.438  11.317   0.384 -0.0054 -0.1159  0.1631
 1775SOL    HW112183   1.485  11.312   0.468 -0.7271 -0.2744  0.5606
 1775SOL    HW212184   1.387  11.398   0.390 -3.0128 -1.9360  1.4683
 1776SOL     OW12185  12.519   7.273   0.204 -0.2674 -0.9068 -0.1015
 1776SOL    HW112186  12.440   7.254   0.255 -0.0633 -2.7394 -0.3928
 1776SOL    HW212187  12.591   7.256   0.266 -0.0560 -1.9861 -0.6088
 1777SOL     OW12188   9.707   4.320   6.524 -0.4895 -0.6632 -0.1528
 1777SOL    HW112189   9.744   4.256   6.584 -0.3225 -0.1984  0.2525
 1777SOL    HW212190   9.687   4.396   6.579  0.3924  0.0712 -0.8163
 1778SOL     OW12191   8.217  11.761  12.095  0.3738  0.1793 -0.1248
 1778SOL    HW112192   8.274  11.684  12.088  0.4267  0.1065  0.9369
 1778SOL    HW212193   8.138  11.737  12.046 -0.3024 -1.2415  1.5462
 1779SOL     OW12194  10.908   4.892   4.592  0.2866 -0.4022 -0.0276
 1779SOL    HW112195  10.828   4.872   4.640 -0.0959  0.8561 -0.0961
 1779SOL    HW212196  10.973   4.907   4.661  0.7586 -2.4245  0.0200
 1780SOL     OW12197   0.803   1.669  10.595  0.0463 -0.0980 -0.5199
 1780SOL    HW112198   0.838   1.580  10.599 -0.9874 -0.4839  0.4098
 1780SOL    HW212199   0.711   1.660  10.619 -0.5267  0.9971 -2.1017
 1781SOL     OW12200   4.687   5.043  10.097  0.0415  0.1605  0.3427
 1781SOL    HW112201   4.614   5.022  10.039  1.3447 -0.2929 -1.2198
 1781SOL    HW212202   4.765   5.019  10.047  1.2412 -0.6887  2.4933
 1782SOL     OW12203   1.136   5.783  11.896  0.2265  0.3321 -0.0020
 1782SOL    HW112204   1.063   5.756  11.952  0.5703  1.8168  1.2216
 1782SOL    HW212205   1.146   5.876  11.913 -0.0018  1.0047 -2.9872
 1783SOL     OW12206  12.230   8.322   6.841  0.2412 -0.0708 -0.3778
 1783SOL    HW112207  12.275   8.397   6.881  1.0120 -0.7605  0.0646
 1783SOL    HW212208  12.301   8.265   6.811 -0.2915 -1.7502  1.3902
 1784SOL     OW12209   8.391   3.102   6.938 -0.0815 -0.0878 -0.4490
 1784SOL    HW112210   8.366   3.181   6.986 -0.6957 -0.8619  0.5455
 1784SOL    HW212211   8.313   3.048   6.938  0.9110 -1.5958  0.7382
 1785SOL     OW12212   4.174   3.245   7.167  0.2662  0.2081  0.5558
 1785SOL    HW112213   4.113   3.195   7.114  0.9070 -0.8617  0.7950
 1785SOL    HW212214   4.256   3.197   7.161  0.9985  1.4102  0.5405
 1786SOL     OW12215   8.802   3.191   2.500 -0.8872 -0.1652  0.4453
 1786SOL    HW112216   8.849   3.253   2.557 -0.1147 -1.3029  1.0825
 1786SOL    HW212217   8.854   3.111   2.504 -0.4533 -0.1097 -2.3933
 1787SOL     OW12218  10.755   7.459   4.600  0.0468  0.0404  0.5768
 1787SOL    HW112219  10.820   7.480   4.533 -1.0697 -0.7231 -0.8199
 1787SOL    HW212220  10.671   7.475   4.557 -0.7148 -1.2047  1.5404
 1788SOL     OW12221   7.434   6.050   8.408  0.2203 -0.0713  0.3859
 1788SOL    HW112222   7.381   6.096   8.472  0.0155  0.4429 -0.1423
 1788SOL    HW212223   7.370   6.014   8.346  0.3611 -1.2339  0.8889
 1789SOL     OW12224  11.230   0.759   9.761 -0.1763 -0.7162 -0.3946
 1789SOL    HW112225  11.223   0.671   9.797 -1.6300  0.0245  1.2946
 1789SOL    HW212226  11.251   0.745   9.669  1.2527 -2.7601  0.1764
 1790SOL     OW12227   5.726   0.151   1.983  0.5966  0.4883  0.1713
 1790SOL    HW112228   5.701   0.239   1.955  0.4503  0.6866  0.8994
 1790SOL    HW212229   5.818   0.142   1.956  0.4715  0.6778 -0.3271
 1791SOL     OW12230   3.568   3.575  11.622  0.2863 -0.1497 -0.0456
 1791SOL    HW112231   3.525   3.658  11.642 -1.4371 -0.9378 -0.3078
 1791SOL    HW212232   3.661   3.598  11.614 -0.3170  2.0257 -1.6956
 1792SOL     OW12233   1.592  12.389  11.907 -0.3736 -0.6273  0.0600
 1792SOL    HW112234   1.574  12.468  11.857  1.1015  0.1623  0.7176
 1792SOL    HW212235   1.509  12.341  11.906 -0.9839  0.3893 -1.2756
 1793SOL     OW12236   9.425  10.921   4.891  0.5306  0.2692 -0.0077
 1793SOL    HW112237   9.390  10.980   4.824  1.3636  0.5232 -0.2279
 1793SOL    HW212238   9.474  10.855   4.843 -0.5403 -0.7242  0.2286
 1794SOL     OW12239   2.359   6.362   8.534 -0.0403 -0.3675 -0.6324
 1794SOL    HW112240   2.333   6.399   8.618 -0.0581  0.7222 -1.1002
 1794SOL    HW212241   2.455   6.360   8.537 -0.0273  0.0132 -0.7189
 1795SOL     OW12242   2.396   4.268   2.653  0.2556  0.0674  0.2360
 1795SOL    HW112243   2.441   4.347   2.681  1.3420 -1.0905  1.9735
 1795SOL    HW212244   2.449   4.196   2.688 -0.2464 -1.4784 -1.9181
 1796SOL     OW12245  11.538   7.773   8.500 -0.1272 -0.2050 -0.2061
 1796SOL    HW112246  11.587   7.770   8.418 -1.1044  1.0875 -0.8843
 1796SOL    HW212247  11.593   7.824   8.559  0.5396 -1.0660 -0.0602
 1797SOL     OW12248   4.684   2.536   7.863 -0.3018  0.1414  0.1505
 1797SOL    HW112249   4.779   2.532   7.878 -0.5110 -2.3848  1.3386
 1797SOL    HW212250   4.648   2.567   7.946 -0.5850  0.4303 -0.0757
 1798SOL     OW12251   4.850   5.922   4.509  0.1555  0.0342 -0.3145
 1798SOL    HW112252   4.886   6.008   4.531  2.0130 -0.5663 -0.8438
 1798SOL    HW212253   4.832   5.881   4.593  0.4734  0.4591 -0.0366
 1799SOL     OW12254   8.409   6.423   4.793 -0.0165  0.7243  0.3419
 1799SOL    HW112255   8.334   6.481   4.787  0.1825  0.9733  0.2348
 1799SOL    HW212256   8.446   6.421   4.705 -0.9479 -0.8298 -0.0483
 1800SOL     OW12257   9.223   8.289   4.509 -0.6488  0.6144 -0.1069
 1800SOL    HW112258   9.304   8.279   4.459 -0.6732  1.7338 -0.4087
 1800SOL    HW212259   9.165   8.338   4.451 -0.4625  2.5177  1.2195
 1801SOL     OW12260   1.790   1.457   0.994  0.8237  0.0628 -0.2459
 1801SOL    HW112261   1.772   1.470   1.087 -1.1757 -0.1954 -0.5559
 1801SOL    HW212262   1.732   1.520   0.949  0.0448 -1.3830 -1.3606
 1802SOL     OW12263   2.958   2.382   5.073  0.1777  1.0103 -0.3063
 1802SOL    HW112264   2.946   2.358   4.981 -0.2764 -0.7699  0.1785
 1802SOL    HW212265   3.036   2.333   5.101  1.0358  2.4535 -0.0104
 1803SOL     OW12266   5.865   2.763   0.372  0.0999  0.2586 -0.0576
 1803SOL    HW112267   5.815   2.795   0.447 -0.5780  1.8061 -1.1034
 1803SOL    HW212268   5.908   2.684   0.403 -0.2615  0.7883  1.9078
 1804SOL     OW12269  11.450   0.351  11.478 -0.0484 -0.0192  0.1058
 1804SOL    HW112270  11.517   0.377  11.415 -1.6002 -0.0006 -1.5860
 1804SOL    HW212271  11.474   0.262  11.504 -0.6790 -0.9830 -2.3877
 1805SOL     OW12272   5.994   2.537   8.985 -0.5952  0.2269  0.9911
 1805SOL    HW112273   5.986   2.441   8.986 -1.4952  0.2825  0.3460
 1805SOL    HW212274   6.029   2.559   9.071  2.1449 -0.8852  0.2741
 1806SOL     OW12275   7.215   9.716   5.133 -0.3889  0.0021 -0.3077
 1806SOL    HW112276   7.228   9.786   5.197 -0.7242 -1.1652  1.0849
 1806SOL    HW212277   7.121   9.698   5.136 -0.5241  0.3919 -1.6590
 1807SOL     OW12278   5.623   8.247   7.130  0.5681  0.3948  0.2458
 1807SOL    HW112279   5.589   8.171   7.084  0.7882 -0.1392  0.9578
 1807SOL    HW212280   5.705   8.217   7.170 -0.1233  0.5314  1.8553
 1808SOL     OW12281  11.016   9.613  10.088  0.0798  0.0278 -0.6000
 1808SOL    HW112282  11.053   9.686  10.137  1.0369 -0.9551  0.1906
 1808SOL    HW212283  11.027   9.537  10.145 -2.7844 -0.4449 -0.4956
 1809SOL     OW12284   7.311   1.263   3.905 -0.3080 -0.2342  0.2716
 1809SOL    HW112285   7.359   1.309   3.837 -0.9315  0.5159  0.3240
 1809SOL    HW212286   7.376   1.246   3.973  0.3515 -1.1208 -0.5566
 1810SOL     OW12287   5.263   2.793  11.701  0.3437  0.0094 -0.2383
 1810SOL    HW112288   5.235   2.882  11.679  0.9921 -0.2881 -2.4705
 1810SOL    HW212289   5.200   2.737  11.656  0.2945 -0.6705  0.6641
 1811SOL     OW12290   7.039   3.797   4.109 -0.5731  0.6557  0.0558
 1811SOL    HW112291   7.054   3.804   4.203 -0.4222  1.5322 -0.0283
 1811SOL    HW212292   7.088   3.720   4.083 -1.1495  0.0111  0.8026
 1812SOL     OW12293  12.547  12.504  10.523  0.4152  0.0986  0.3058
 1812SOL    HW112294  12.469  12.499  10.579 -0.7108 -1.0119 -1.2735
 1812SOL    HW212295  12.600  12.428  10.547  1.0788  0.8923  1.4292
 1813SOL     OW12296   0.856   6.395  11.825 -0.5367  0.1194  0.2186
 1813SOL    HW112297   0.810   6.330  11.879 -1.1836  0.8755  0.6121
 1813SOL    HW212298   0.826   6.378  11.736 -0.2424 -0.4993  0.2356
 1814SOL     OW12299   6.851   6.564   6.092 -0.2017 -0.4560 -0.2699
 1814SOL    HW112300   6.915   6.512   6.043 -0.1998 -2.1013  1.3534
 1814SOL    HW212301   6.875   6.551   6.184 -0.7044  1.8386  0.2334
 1815SOL     OW12302   7.992   1.182   3.698  0.6756 -0.3463  0.1935
 1815SOL    HW112303   7.956   1.268   3.720  0.5823 -0.6837  1.4403
 1815SOL    HW212304   8.070   1.201   3.647 -0.8846  0.4238 -2.0721
 1816SOL     OW12305   1.852   5.580   8.901 -0.0810 -0.0945 -0.2261
 1816SOL    HW112306   1.825   5.547   8.987 -0.7902  0.0001 -0.4054
 1816SOL    HW212307   1.939   5.543   8.887 -0.1216 -0.4224  0.3625
 1817SOL     OW12308   9.443   8.474  11.803 -0.1024 -0.8447  0.1166
 1817SOL    HW112309   9.462   8.529  11.879  0.6339  0.0764 -0.7040
 1817SOL    HW212310   9.423   8.388  11.840  0.0511 -0.3675  1.3563
 1818SOL     OW12311   1.613   3.044   3.172  0.2608 -0.4456  0.4984
 1818SOL    HW112312   1.574   3.013   3.254 -2.4537 -0.2850 -0.6089
 1818SOL    HW212313   1.591   2.976   3.108  0.9958  0.1587 -0.4204
 1819SOL     OW12314   5.467   9.572   7.231 -0.0272  0.3277 -0.5917
 1819SOL    HW112315   5.550   9.597   7.270 -1.0468  1.6051  0.8956
 1819SOL    HW212316   5.436   9.499   7.284 -0.6295  0.9822 -0.0086
 1820SOL     OW12317   7.014   2.241  11.679 -0.0267 -0.1809  0.0848
 1820SOL    HW112318   7.093   2.187  11.672  0.4896  0.4787  0.6669
 1820SOL    HW212319   6.970   2.230  11.595  0.9220 -0.2081 -0.4268
 1821SOL     OW12320   2.012   4.483   6.212  0.2060 -0.0575 -0.2127
 1821SOL    HW112321   1.923   4.504   6.240 -0.4412 -0.7406 -1.6595
 1821SOL    HW212322   2.051   4.568   6.193 -1.3810  0.1608 -3.0680
 1822SOL     OW12323   4.032   7.721   5.749  0.3208  0.0063  0.0067
 1822SOL    HW112324   4.109   7.773   5.726 -0.4013  1.3152  0.4416
 1822SOL    HW212325   4.040   7.641   5.698  0.8520  1.0727 -1.6356
 1823SOL     OW12326   3.793   0.798   2.245  0.2617  0.0950  0.0670
 1823SOL    HW112327   3.781   0.890   2.268  1.6725  0.2739  0.1884
 1823SOL    HW212328   3.771   0.794   2.151  1.7947  0.9226 -0.3607
 1824SOL     OW12329  11.091   8.651   1.889  0.6443  0.5607  0.2027
 1824SOL    HW112330  11.129   8.577   1.935  0.0404 -0.0506 -0.2598
 1824SOL    HW212331  11.127   8.645   1.800  0.1338  0.4585 -0.0049
 1825SOL     OW12332   7.708   1.329   3.730 -0.2809 -0.1353 -0.4690
 1825SOL    HW112333   7.631   1.367   3.771 -1.0358 -2.5395  0.5242
 1825SOL    HW212334   7.781   1.379   3.765 -1.2580  1.0924 -0.1176
 1826SOL     OW12335  11.112   5.079   7.612 -0.1177  0.1181  0.1461
 1826SOL    HW112336  11.069   5.060   7.529 -0.1251 -1.1469  0.4078
 1826SOL    HW212337  11.202   5.099   7.589  0.1753 -1.3862 -0.1002
 1827SOL     OW12338   0.629   8.679   1.403  0.1417  0.0753 -0.6604
 1827SOL    HW112339   0.605   8.587   1.415 -1.8580  0.8479  3.0915
 1827SOL    HW212340   0.723   8.682   1.418 -0.0878 -1.2029  1.5217
 1828SOL     OW12341   6.419   6.071   6.653  0.0843  0.8042 -0.8717
 1828SOL    HW112342   6.422   6.097   6.745  0.6310  1.7295 -1.1403
 1828SOL    HW212343   6.487   6.123   6.611 -1.2566  1.6102 -2.1190
 1829SOL     OW12344  11.069   5.391   2.881  0.2017  0.0661 -0.4117
 1829SOL    HW112345  11.035   5.346   2.804  0.4627 -1.3574  0.2787
 1829SOL    HW212346  11.009   5.366   2.952  1.0920 -0.2373  0.2485
 1830SOL     OW12347   4.640  11.323   4.655  0.0692 -0.4461  1.0855
 1830SOL    HW112348   4.715  11.383   4.655  0.6100 -1.1076  1.2021
 1830SOL    HW212349   4.647  11.277   4.739 -1.4642  0.6885  1.8816
 1831SOL     OW12350   3.482   7.706   9.756 -0.1598  0.8063  0.2408
 1831SOL    HW112351   3.548   7.731   9.691  0.1729  0.1515  0.3246
 1831SOL    HW212352   3.510   7.751   9.836 -1.0751  2.3644 -0.2630
 1832SOL     OW12353   6.451   2.699   9.194  0.0813 -0.2348  0.1874
 1832SOL    HW112354   6.492   2.655   9.269  0.4141  0.4049  0.3914
 1832SOL    HW212355   6.494   2.661   9.117 -0.4125 -1.0513  0.2990
 1833SOL     OW12356   6.602   7.821   3.001  0.4678  0.1192  0.3706
 1833SOL    HW112357   6.548   7.887   3.044  0.1952  1.2341 -1.5274
 1833SOL    HW212358   6.644   7.868   2.928  3.0921 -0.9736  1.0459
 1834SOL     OW12359   3.243  11.363   2.609  0.1761  0.2587 -0.2801
 1834SOL    HW112360   3.195  11.281   2.616  1.2356 -0.3297  0.4902
 1834SOL    HW212361   3.191  11.427   2.658  0.2550 -0.4130  0.7122
 1835SOL     OW12362   4.245   1.061   7.203  0.2844 -0.3422 -0.3438
 1835SOL    HW112363   4.216   1.141   7.160 -1.1071 -1.0064 -0.6831
 1835SOL    HW212364   4.299   1.092   7.276 -1.0194  0.9393  0.1301
 1836SOL     OW12365  12.410   1.185   4.934  0.3600  0.0948 -0.7025
 1836SOL    HW112366  12.339   1.125   4.955  1.0573 -0.2043  0.9763
 1836SOL    HW212367  12.372   1.272   4.943  0.6389 -0.0010  2.2021
 1837SOL     OW12368  12.142  10.560  10.257 -0.1631 -0.6252  0.0461
 1837SOL    HW112369  12.208  10.532  10.321  1.1859  0.5013 -0.7798
 1837SOL    HW212370  12.161  10.507  10.179 -0.6768 -0.7707  0.0178
 1838SOL     OW12371   7.800   6.842   3.169 -0.4934  0.0451  0.0191
 1838SOL    HW112372   7.885   6.811   3.201 -0.4819  1.5195  1.5550
 1838SOL    HW212373   7.742   6.837   3.245 -1.2764  0.8918 -0.5016
 1839SOL     OW12374   3.608   0.716   8.220  0.0055 -0.3967  0.4656
 1839SOL    HW112375   3.639   0.692   8.307  1.5759 -0.2862 -0.0343
 1839SOL    HW212376   3.594   0.633   8.175  0.7693 -0.4507  0.3113
 1840SOL     OW12377   2.911   4.457  12.476  0.2672  0.3712  0.2367
 1840SOL    HW112378   2.864   4.420  12.400  1.6977 -1.5135  0.1902
 1840SOL    HW212379   2.852   4.442  12.550 -0.2469  0.2824 -0.1812
 1841SOL     OW12380   4.218   6.799   5.374 -0.0046 -0.6850  0.6143
 1841SOL    HW112381   4.259   6.738   5.312 -0.4442  1.5500 -2.1014
 1841SOL    HW212382   4.290   6.856   5.402 -0.2516 -0.0569  0.0139
 1842SOL     OW12383   3.612   8.894   5.548  0.0629 -0.2522  0.1880
 1842SOL    HW112384   3.597   8.986   5.525 -1.5983 -0.0635  1.8222
 1842SOL    HW212385   3.704   8.891   5.575  0.2328  0.8375 -0.2042
 1843SOL     OW12386  12.195   4.456   4.801  0.2710 -0.2783  0.1967
 1843SOL    HW112387  12.103   4.477   4.819  0.2628  0.1471 -0.3348
 1843SOL    HW212388  12.227   4.529   4.750  0.6354 -0.9080 -0.4939
 1844SOL     OW12389   8.145  12.105   7.363 -0.1448 -0.1430  0.0253
 1844SOL    HW112390   8.114  12.016   7.379 -2.5952  0.7306  0.6500
 1844SOL    HW212391   8.069  12.160   7.382  0.7876  1.9799 -1.9130
 1845SOL     OW12392   2.801  11.409   0.905 -0.6686  0.1677 -0.4228
 1845SOL    HW112393   2.734  11.383   0.968  0.5826  0.5568  1.1643
 1845SOL    HW212394   2.779  11.500   0.884 -0.1279  0.6229  0.8615
 1846SOL     OW12395   2.246   3.149   4.337  0.3637 -0.2072 -0.3113
 1846SOL    HW112396   2.265   3.172   4.246 -1.4909  0.5926 -0.5467
 1846SOL    HW212397   2.220   3.232   4.378  1.9425 -0.3984  1.1932
 1847SOL     OW12398  10.040   9.257   0.195 -0.2217  0.5260  0.4338
 1847SOL    HW112399  10.054   9.193   0.126  1.5243  0.2976  0.9338
 1847SOL    HW212400  10.031   9.340   0.149 -0.7347  0.1589 -0.1405
 1848SOL     OW12401   2.319  11.545  11.139 -0.0503 -0.2249 -0.3325
 1848SOL    HW112402   2.284  11.565  11.225 -1.7132 -1.4938 -0.6775
 1848SOL    HW212403   2.323  11.630  11.095 -0.0269  0.3087  0.6676
 1849SOL     OW12404  11.487  10.662   8.536 -0.2363  0.0499 -0.3969
 1849SOL    HW112405  11.438  10.737   8.571  1.4777  0.9838  0.1244
 1849SOL    HW212406  11.547  10.638   8.606  1.2212  0.0369 -1.5972
 1850SOL     OW12407   7.305   8.663  10.489 -0.3538 -0.0190 -0.1119
 1850SOL    HW112408   7.234   8.610  10.453  0.3309 -0.5953 -0.6486
 1850SOL    HW212409   7.365   8.677  10.416  0.4357 -0.1406  0.4951
 1851SOL     OW12410   1.202   3.351   1.451  0.4868 -0.2773  0.1118
 1851SOL    HW112411   1.292   3.321   1.463  1.3039  1.1984 -1.8233
 1851SOL    HW212412   1.187   3.412   1.524  0.8322 -0.9304  0.7472
 1852SOL     OW12413   5.814  11.495   8.955 -0.1669  0.2122 -0.7226
 1852SOL    HW112414   5.790  11.516   8.864 -0.8336 -0.6783 -0.7564
 1852SOL    HW212415   5.756  11.424   8.980  0.1554  0.3060  0.3469
 1853SOL     OW12416   6.183   7.980   9.038  0.0384  0.1229  0.4569
 1853SOL    HW112417   6.195   7.888   9.063 -0.2355  0.2001  0.8758
 1853SOL    HW212418   6.269   8.008   9.006  0.7672  0.4031  2.5416
 1854SOL     OW12419   4.968   6.203   2.769  0.2974  0.3871  0.5574
 1854SOL    HW112420   4.948   6.197   2.676 -0.8625 -0.6117  0.8381
 1854SOL    HW212421   5.063   6.209   2.774  0.3123  1.5401 -0.7215
 1855SOL     OW12422   6.657   2.797   6.970 -0.0118 -0.1331  0.1304
 1855SOL    HW112423   6.673   2.769   6.880 -0.5790 -0.1785  0.0338
 1855SOL    HW212424   6.645   2.892   6.964 -0.0776 -0.1397  0.1521
 1856SOL     OW12425   9.792   1.968   1.352 -0.3401  0.3348  0.3922
 1856SOL    HW112426   9.752   1.899   1.300 -1.5070  0.6097  0.8893
 1856SOL    HW212427   9.794   1.934   1.441 -0.0540  0.5750  0.4817
 1857SOL     OW12428  10.216   5.812   9.989  0.7469  0.3128  0.7961
 1857SOL    HW112429  10.186   5.721   9.991 -0.4560  0.7060  2.1803
 1857SOL    HW212430  10.311   5.805   9.974  0.7644 -1.1940  1.3866
 1858SOL     OW12431   7.816  12.489   9.293  0.1891  0.1561 -0.0292
 1858SOL    HW112432   7.730  12.515   9.261 -0.1382  0.5143  1.1201
 1858SOL    HW212433   7.860  12.453   9.216 -1.8291 -2.2999 -0.1499
 1859SOL     OW12434   9.487   6.236  10.376  0.3046  0.0265  0.2359
 1859SOL    HW112435   9.570   6.234  10.423  1.2392 -0.6160 -1.3427
 1859SOL    HW212436   9.504   6.188  10.295 -1.5018  0.2206 -0.3119
 1860SOL     OW12437   0.054   3.290   9.747 -0.0675 -0.0626 -0.4894
 1860SOL    HW112438   0.062   3.211   9.694 -1.2020 -0.3268 -0.2885
 1860SOL    HW212439   0.019   3.259   9.831  1.6406  0.3583  0.4082
 1861SOL     OW12440   5.458   6.859   7.561  0.0816  0.4302 -0.0176
 1861SOL    HW112441   5.471   6.943   7.519 -1.3851 -0.5962 -2.7464
 1861SOL    HW212442   5.364   6.846   7.562  0.2246 -0.8635  1.0760
 1862SOL     OW12443   2.199   2.829   3.124 -0.3830 -0.2384  0.5836
 1862SOL    HW112444   2.185   2.836   3.219 -0.6774 -0.3583  0.5502
 1862SOL    HW212445   2.130   2.769   3.094 -1.3849  1.1427  0.0352
 1863SOL     OW12446  10.857  11.180   3.250 -0.8573 -0.2207  0.2957
 1863SOL    HW112447  10.847  11.159   3.343 -0.8440 -1.0631  0.1191
 1863SOL    HW212448  10.795  11.122   3.206 -0.2313 -0.4621 -0.2889
 1864SOL     OW12449   7.672   7.988   1.471  0.2192 -0.4417  0.4357
 1864SOL    HW112450   7.755   7.973   1.517 -0.5149  0.9185  2.3697
 1864SOL    HW212451   7.670   8.082   1.454 -1.3115 -0.2639  1.3318
 1865SOL     OW12452  11.384   9.641  11.882 -0.3170  0.2640  0.2133
 1865SOL    HW112453  11.308   9.665  11.829  0.5446  2.1662 -0.2693
 1865SOL    HW212454  11.439   9.589  11.824  0.2137  1.6046 -0.5322
 1866SOL     OW12455   0.595   3.903   6.093 -0.0567  0.5429  0.1182
 1866SOL    HW112456   0.560   3.815   6.101  0.3370  0.2932 -0.7890
 1866SOL    HW212457   0.685   3.896   6.123  0.6920  0.1085 -2.0245
 1867SOL     OW12458   8.172   8.794   8.876  0.5710  0.0460  0.1790
 1867SOL    HW112459   8.093   8.760   8.835  1.2129  0.0351 -1.0996
 1867SOL    HW212460   8.140   8.851   8.946 -0.6383  1.8129 -1.7165
 1868SOL     OW12461   9.696  11.431   3.720  0.3258 -0.4458  0.2953
 1868SOL    HW112462   9.679  11.453   3.628  1.5287  3.0650  0.7541
 1868SOL    HW212463   9.783  11.391   3.719  1.4213  1.7677  0.0193
 1869SOL     OW12464   3.779   3.752   0.636  0.7342  0.2838  0.3993
 1869SOL    HW112465   3.859   3.735   0.585  0.4708  2.3195 -0.8027
 1869SOL    HW212466   3.795   3.838   0.676 -1.1927  1.1307 -0.5766
 1870SOL     OW12467   7.505   5.499   2.948  0.0142 -0.1235  0.3113
 1870SOL    HW112468   7.543   5.438   2.885  3.1309  1.3699  0.5644
 1870SOL    HW212469   7.489   5.579   2.898  1.8648  0.8435  1.1499
 1871SOL     OW12470  11.596   0.805   0.682  0.0259  0.2876 -0.6244
 1871SOL    HW112471  11.676   0.758   0.705  1.0234  2.3780  0.5098
 1871SOL    HW212472  11.528   0.768   0.739  0.7067  0.0091  0.0162
 1872SOL     OW12473   5.133  11.536   1.620 -0.2524  0.0229  0.7927
 1872SOL    HW112474   5.219  11.495   1.631 -0.8244 -1.1223  1.2238
 1872SOL    HW212475   5.145  11.599   1.549  0.6033 -1.1464 -0.1572
 1873SOL     OW12476   1.975   7.960   0.889  0.5317  0.2321  0.4652
 1873SOL    HW112477   1.986   7.866   0.875  0.7765  0.4138 -0.6401
 1873SOL    HW212478   2.020   7.977   0.972  0.3182 -0.6568  0.7663
 1874SOL     OW12479   9.600  11.377   8.534  0.1291 -0.5844  0.2032
 1874SOL    HW112480   9.676  11.397   8.480 -0.0414  1.5798  0.6820
 1874SOL    HW212481   9.531  11.434   8.500 -1.2005 -2.2047  0.0536
 1875SOL     OW12482   6.253   7.784   0.378 -0.1047 -0.1013  0.0368
 1875SOL    HW112483   6.216   7.696   0.382 -2.0261  0.3871 -3.2887
 1875SOL    HW212484   6.341   7.772   0.344 -0.1340 -0.7523  0.1772
 1876SOL     OW12485  12.009  10.439   2.809 -0.9773 -0.2088 -0.0864
 1876SOL    HW112486  12.045  10.414   2.724  1.2223 -1.3361  1.0981
 1876SOL    HW212487  11.914  10.443   2.794 -0.6510 -0.1250 -2.6206
 1877SOL     OW12488   9.832  10.861   2.468 -0.3769 -0.7234 -0.1904
 1877SOL    HW112489   9.916  10.817   2.458  0.1980  0.3374 -0.1949
 1877SOL    HW212490   9.781  10.804   2.525  0.9793 -0.5489  1.2648
 1878SOL     OW12491   1.046   1.543   6.412  0.6284  0.2528  0.9353
 1878SOL    HW112492   1.007   1.541   6.325  1.7233 -0.0423  0.4367
 1878SOL    HW212493   1.040   1.634   6.440 -0.9963  0.1063  1.1583
 1879SOL     OW12494  11.532   4.959   4.476  0.0064  0.2731  0.2952
 1879SOL    HW112495  11.489   5.030   4.429 -0.1831 -0.3491 -0.4964
 1879SOL    HW212496  11.510   4.880   4.426  2.3217 -0.0380 -0.3608
 1880SOL     OW12497  10.602   3.074   9.877 -0.2557  0.1193 -0.1274
 1880SOL    HW112498  10.624   3.028   9.959  1.7531 -1.4213 -1.4444
 1880SOL    HW212499  10.513   3.043   9.857 -0.5437  0.0454  1.1331
 1881SOL     OW12500   5.897   5.150   3.196 -0.0720 -0.0283 -0.6889
 1881SOL    HW112501   5.818   5.112   3.233 -1.6268  1.4211 -2.3364
 1881SOL    HW212502   5.869   5.186   3.112  2.6338 -0.5985 -1.9508
 1882SOL     OW12503   3.376   3.204   9.898 -0.2656 -0.0459  0.4999
 1882SOL    HW112504   3.372   3.292   9.858  2.3199  0.2435  0.7155
 1882SOL    HW212505   3.364   3.144   9.824  1.0442  0.5068 -0.1987
 1883SOL     OW12506   2.141   9.456   9.913 -0.5899 -0.2404 -0.6622
 1883SOL    HW112507   2.107   9.528   9.966 -0.6294  0.4681 -1.6170
 1883SOL    HW212508   2.072   9.390   9.914 -0.8947  0.0799 -0.4448
 1884SOL     OW12509   4.559   1.138  11.519  0.1537  0.5812  0.4800
 1884SOL    HW112510   4.471   1.118  11.487  0.4773  0.0936 -0.1170
 1884SOL    HW212511   4.610   1.059  11.501  1.2868  1.6365 -1.2650
 1885SOL     OW12512   0.641  11.747   9.149 -0.4628  0.5064 -0.1799
 1885SOL    HW112513   0.639  11.655   9.121 -0.6245  0.1424  0.9495
 1885SOL    HW212514   0.579  11.791   9.091 -0.3512 -0.0899 -0.7639
 1886SOL     OW12515   2.099   1.065   9.870  0.4246  0.6203 -0.5636
 1886SOL    HW112516   2.174   1.102   9.916  0.5889 -1.1981  0.7560
 1886SOL    HW212517   2.135   0.992   9.821 -0.3085  0.3827 -0.7627
 1887SOL     OW12518   3.832   4.793  10.457 -0.4502 -0.5248  0.4578
 1887SOL    HW112519   3.813   4.760  10.369 -0.0219  0.1144  0.1175
 1887SOL    HW212520   3.922   4.826  10.451 -0.8451  0.6524  0.7942
 1888SOL     OW12521  10.313   3.319   5.418 -0.9138 -0.1515  0.2727
 1888SOL    HW112522  10.319   3.246   5.357  3.4777 -0.0678  0.2922
 1888SOL    HW212523  10.316   3.278   5.505 -1.3597 -0.0170  0.3574
 1889SOL     OW12524  11.341   7.718   9.829  0.3664  0.6743 -0.6449
 1889SOL    HW112525  11.357   7.808   9.799 -0.3556  0.5435 -1.4442
 1889SOL    HW212526  11.300   7.674   9.754  0.9574 -0.4031 -0.3498
 1890SOL     OW12527  11.244   0.749  10.070  0.9514 -0.0469 -0.4041
 1890SOL    HW112528  11.254   0.675  10.009  0.0547 -0.4134 -0.1229
 1890SOL    HW212529  11.150   0.766  10.071  0.8830 -0.3901  1.2642
 1891SOL     OW12530   5.892   3.940  10.927 -0.5654 -0.0461  0.1683
 1891SOL    HW112531   5.846   4.024  10.935  2.1616  1.4462  1.6466
 1891SOL    HW212532   5.969   3.961  10.875 -0.7907 -2.1534 -1.1040
 1892SOL     OW12533  11.221   0.776  11.334  0.5638  0.4743  0.1821
 1892SOL    HW112534  11.311   0.746  11.350  0.8917  1.2876 -0.0994
 1892SOL    HW212535  11.200   0.744  11.247  0.4341 -0.0563  0.4057
 1893SOL     OW12536   2.319   3.404   8.635  0.3299 -0.4656  0.1199
 1893SOL    HW112537   2.298   3.491   8.600  0.4138 -0.6038 -0.2729
 1893SOL    HW212538   2.415   3.404   8.641  0.3688 -0.7761 -0.5091
 1894SOL     OW12539   9.898  10.255   8.123  0.0499  0.2184  0.0845
 1894SOL    HW112540   9.868  10.266   8.033  0.5900 -0.4049 -0.1817
 1894SOL    HW212541   9.993  10.242   8.115 -0.0651 -1.0490  0.6341
 1895SOL     OW12542  11.494  11.294   9.458  0.2292 -0.7029 -0.1460
 1895SOL    HW112543  11.566  11.276   9.397  0.8349  0.5121  0.1941
 1895SOL    HW212544  11.537  11.314   9.541 -0.4395  0.9837 -0.1723
 1896SOL     OW12545   0.150   0.100   4.991 -0.2722 -0.2768  0.3721
 1896SOL    HW112546   0.128   0.129   5.079  2.1535  3.0023  0.1255
 1896SOL    HW212547   0.242   0.073   4.997 -0.7984 -2.4815 -0.7050
 1897SOL     OW12548   4.609   4.947   5.826  0.1304 -0.8619  0.0204
 1897SOL    HW112549   4.663   5.023   5.806  1.1783 -1.6336 -0.1364
 1897SOL    HW212550   4.556   4.975   5.901  1.0094 -0.2124  0.4226
 1898SOL     OW12551   4.820   7.647   1.140  0.4825 -0.4463  0.6105
 1898SOL    HW112552   4.859   7.665   1.054  0.0060  0.3827  0.5543
 1898SOL    HW212553   4.797   7.734   1.174 -3.3735 -0.9087 -0.3315
 1899SOL     OW12554   7.872  11.977   3.685  0.4347 -0.4058  0.3434
 1899SOL    HW112555   7.939  12.009   3.625 -0.3304  1.5855  0.4758
 1899SOL    HW212556   7.870  12.041   3.757  0.1300 -1.7933  1.6327
 1900SOL     OW12557   6.056   5.719   3.216  0.1487 -0.2471  0.6021
 1900SOL    HW112558   6.121   5.650   3.202  0.8780 -0.0069  2.5220
 1900SOL    HW212559   6.052   5.766   3.133  0.3669 -1.9773 -0.4356
 1901SOL     OW12560   2.291   1.099   8.277  0.0314 -0.1590 -0.2691
 1901SOL    HW112561   2.271   1.011   8.308  1.8559  0.0376  1.6445
 1901SOL    HW212562   2.215   1.152   8.303  0.0493 -0.6745  0.8596
 1902SOL     OW12563  11.149   0.544   1.460 -0.0772  0.0263  0.4673
 1902SOL    HW112564  11.147   0.448   1.453  0.2727  0.0916 -0.5824
 1902SOL    HW212565  11.070   0.566   1.509  0.1474 -0.8398  1.2617
 1903SOL     OW12566  12.119   5.255   3.416 -0.2513  0.4166 -0.9451
 1903SOL    HW112567  12.208   5.240   3.449  0.5075  1.7296 -2.2943
 1903SOL    HW212568  12.117   5.212   3.331 -1.7116 -1.6261  0.0344
 1904SOL     OW12569  11.560   7.695   8.816 -0.3758 -0.1983 -0.6089
 1904SOL    HW112570  11.482   7.745   8.793 -0.3725 -0.4317 -1.1402
 1904SOL    HW212571  11.602   7.675   8.732  0.4676  0.2642 -0.3017
 1905SOL     OW12572   3.312   5.962   5.409 -0.1255 -0.5498  0.3292
 1905SOL    HW112573   3.279   6.006   5.488  1.7180  0.1144  0.7877
 1905SOL    HW212574   3.283   5.872   5.418  0.1165 -0.5109  1.8371
 1906SOL     OW12575   1.078  10.280   5.090  0.4702  0.6734 -0.4663
 1906SOL    HW112576   0.998  10.268   5.142  0.4504 -1.5722 -0.9080
 1906SOL    HW212577   1.121  10.194   5.093  2.8687  1.7978 -0.2906
 1907SOL     OW12578   3.543   9.384   3.939 -0.1341 -0.8363  0.1116
 1907SOL    HW112579   3.576   9.392   3.850 -1.4718  0.6918 -0.3008
 1907SOL    HW212580   3.516   9.473   3.962 -0.8506 -1.4157  1.6260
 1908SOL     OW12581  10.583   4.216   5.568 -0.1903  0.1490 -0.0103
 1908SOL    HW112582  10.651   4.267   5.523  1.1232 -2.5239 -1.2393
 1908SOL    HW212583  10.595   4.236   5.661  0.1865  2.0767 -0.4137
 1909SOL     OW12584  12.235  10.352   8.517 -0.6208  0.3098 -0.2741
 1909SOL    HW112585  12.304  10.388   8.461  1.0674 -1.4232  0.5844
 1909SOL    HW212586  12.189  10.429   8.550  1.7065  1.6181  0.1047
 1910SOL     OW12587   1.737   3.873   9.957  0.1224 -0.0627 -0.4955
 1910SOL    HW112588   1.687   3.825   9.891 -0.1327  0.7681 -0.9212
 1910SOL    HW212589   1.770   3.805  10.017 -1.7038 -0.6142 -0.0687
 1911SOL     OW12590   1.374   5.195   7.499 -0.0064 -0.4873  0.2782
 1911SOL    HW112591   1.433   5.228   7.567  3.7612  0.2052 -2.9469
 1911SOL    HW212592   1.332   5.273   7.464 -2.1553 -0.8700  1.8427
 1912SOL     OW12593   2.634   9.756   5.932  0.3620  0.2202  0.3824
 1912SOL    HW112594   2.555   9.808   5.919  0.2149  0.3319  1.6003
 1912SOL    HW212595   2.613   9.698   6.005  0.9628 -0.6710 -0.1402
 1913SOL     OW12596   3.466   5.057   3.785  0.0443 -0.2714 -0.1551
 1913SOL    HW112597   3.560   5.066   3.799 -0.1946  1.2395  0.7202
 1913SOL    HW212598   3.447   5.115   3.711 -0.4622  1.0171  0.9342
 1914SOL     OW12599   7.416   6.252   6.731  0.2490 -0.6206 -0.4682
 1914SOL    HW112600   7.383   6.278   6.645  0.0774  0.5370 -0.0644
 1914SOL    HW212601   7.340   6.256   6.789  0.5638 -0.4385 -0.0574
 1915SOL     OW12602   7.802   0.992   8.362  0.0486  0.3604  0.1046
 1915SOL    HW112603   7.715   0.979   8.399 -1.0523  1.0201 -2.0817
 1915SOL    HW212604   7.847   0.909   8.378 -1.7880 -0.8696 -0.7219
 1916SOL     OW12605   1.997  10.133   8.102  0.5829  0.2421 -0.2864
 1916SOL    HW112606   1.934  10.071   8.140 -0.4905  1.2686 -0.3132
 1916SOL    HW212607   1.947  10.179   8.035  1.8279  0.0135 -1.3997
 1917SOL     OW12608   9.111  12.522   3.131  0.0922 -0.5532 -0.2624
 1917SOL    HW112609   9.094  12.446   3.187 -1.6775  0.9093  1.3030
 1917SOL    HW212610   9.064  12.502   3.049 -0.3712 -1.1490  0.1402
 1918SOL     OW12611   4.069   4.979   9.873  0.1839  0.5560  0.3285
 1918SOL    HW112612   4.011   5.048   9.907 -2.5289 -0.9688 -0.9092
 1918SOL    HW212613   4.034   4.898   9.909  2.2895 -0.3572  0.4265
 1919SOL     OW12614   4.641   8.029   1.526  0.2045  0.4826  0.1902
 1919SOL    HW112615   4.657   7.972   1.451  0.2026  2.0125 -1.0242
 1919SOL    HW212616   4.570   8.087   1.498  1.7435  2.6103  0.4401
 1920SOL     OW12617   4.627   5.439   5.032  0.4863  0.4897  0.2175
 1920SOL    HW112618   4.598   5.352   5.004  0.4300  0.6802 -0.3385
 1920SOL    HW212619   4.723   5.434   5.028  0.4732  0.7965 -0.9502
 1921SOL     OW12620   4.996   7.511   6.992 -0.6954  0.4092  0.0496
 1921SOL    HW112621   5.041   7.551   6.918  0.8210  0.0793  0.7408
 1921SOL    HW212622   4.967   7.584   7.045 -1.6754  0.6450 -0.7860
 1922SOL     OW12623  10.713  10.670   4.731 -0.5263  0.1420  0.0543
 1922SOL    HW112624  10.620  10.651   4.741 -0.7813  1.7524  1.1006
 1922SOL    HW212625  10.717  10.761   4.704  0.7529  0.7634  2.0759
 1923SOL     OW12626   8.174  11.486   9.138  0.5609  0.1558 -0.1751
 1923SOL    HW112627   8.225  11.411   9.107  0.2706 -0.5691  1.0375
 1923SOL    HW212628   8.083  11.464   9.118  0.6091  0.9474 -1.3220
 1924SOL     OW12629   2.946   8.035   1.181  0.0991 -0.6023 -0.2016
 1924SOL    HW112630   2.974   8.114   1.227  0.4846  1.0172 -2.9854
 1924SOL    HW212631   3.023   7.978   1.181 -0.2481 -1.1403  2.0162
 1925SOL     OW12632   9.036   4.309  10.686  0.5560  0.3852 -0.1417
 1925SOL    HW112633   9.023   4.324  10.592 -1.8254 -0.0867  0.0533
 1925SOL    HW212634   9.006   4.219  10.699  1.0033  0.4031  1.0729
 1926SOL     OW12635   6.579   2.002   5.793  0.2988  0.1111  0.6001
 1926SOL    HW112636   6.599   1.920   5.839 -0.2699 -1.8614 -2.3266
 1926SOL    HW212637   6.664   2.044   5.781  0.9412 -1.2491  0.1700
 1927SOL     OW12638  11.873   8.240  12.215  0.0862 -0.1358 -0.4206
 1927SOL    HW112639  11.847   8.156  12.252  0.7798 -0.8099 -1.4083
 1927SOL    HW212640  11.864   8.228  12.121 -1.6762  1.5468 -0.5245
 1928SOL     OW12641   8.397   5.651   2.584  0.3969 -0.9292  0.3831
 1928SOL    HW112642   8.420   5.702   2.506 -0.0987  0.6121  1.1965
 1928SOL    HW212643   8.320   5.601   2.557 -0.4594  0.4425  0.1666
 1929SOL     OW12644  11.863   1.679   4.496  0.3514  0.6980 -0.0744
 1929SOL    HW112645  11.802   1.679   4.423  0.7964  4.4481 -0.6348
 1929SOL    HW212646  11.817   1.724   4.567  1.4155  1.0023  0.4563
 1930SOL     OW12647   3.393  10.098   0.640 -0.3185  0.2099 -0.1435
 1930SOL    HW112648   3.466  10.160   0.647 -1.6477  1.7702  0.4120
 1930SOL    HW212649   3.404  10.059   0.553  0.0256  1.9301 -0.9063
 1931SOL     OW12650   1.695   9.649   1.610 -0.0947  0.1217 -0.4426
 1931SOL    HW112651   1.716   9.610   1.525  0.0425 -2.0728  0.5296
 1931SOL    HW212652   1.626   9.593   1.645  0.3640  0.5400  1.1951
 1932SOL     OW12653   0.100   2.019  10.942  0.3308  0.4136  0.0916
 1932SOL    HW112654   0.132   1.967  11.016 -1.7627 -0.5574  0.4028
 1932SOL    HW212655   0.097   2.109  10.975  1.3233  0.3057  0.4992
 1933SOL     OW12656   9.232   3.909   5.747 -0.7455  0.1126  0.4153
 1933SOL    HW112657   9.180   3.929   5.825  1.2069  2.0368  1.3397
 1933SOL    HW212658   9.248   3.994   5.706  1.2481 -0.4287 -0.0523
 1934SOL     OW12659   6.452   0.508  11.121 -0.4001 -0.3186 -0.4900
 1934SOL    HW112660   6.433   0.422  11.084  2.1048 -1.0527 -0.2835
 1934SOL    HW212661   6.548   0.513  11.120 -0.4774  2.4526 -0.4312
 1935SOL     OW12662   5.854   8.841   0.154  0.2022 -0.3302  0.1612
 1935SOL    HW112663   5.823   8.931   0.153 -1.7127 -0.8702  2.6476
 1935SOL    HW212664   5.818   8.803   0.073  0.2142  0.8723 -0.4245
 1936SOL     OW12665  10.262  10.323   6.634 -0.2831  0.3350 -0.5671
 1936SOL    HW112666  10.277  10.276   6.551  3.0296  0.9140 -0.4288
 1936SOL    HW212667  10.230  10.409   6.607  1.4680  0.7848 -1.3894
 1937SOL     OW12668   6.183   3.027   2.527 -0.4017 -0.8441 -0.1363
 1937SOL    HW112669   6.205   3.025   2.620  0.9538 -3.0850 -0.4443
 1937SOL    HW212670   6.088   3.037   2.526 -0.4085 -0.3913  1.4589
 1938SOL     OW12671   6.669   0.788   4.767 -0.4330 -0.1937 -0.3716
 1938SOL    HW112672   6.616   0.765   4.843 -1.5195  1.5908 -0.5344
 1938SOL    HW212673   6.633   0.872   4.737  2.3552  1.0586 -0.5900
 1939SOL     OW12674   7.020   9.676  10.861 -0.0149 -0.5720 -0.2357
 1939SOL    HW112675   7.098   9.625  10.882 -0.6476 -0.9045  1.4716
 1939SOL    HW212676   6.955   9.611  10.833 -0.7764 -0.7757  1.8040
 1940SOL     OW12677   9.601   5.716   6.771 -0.9799  0.5377 -0.7141
 1940SOL    HW112678   9.560   5.640   6.728 -1.1185  0.0179  0.3121
 1940SOL    HW212679   9.591   5.787   6.707 -2.9016  0.2696 -0.7895
 1941SOL     OW12680   4.326   5.813   9.283  0.0392  0.6092  0.8201
 1941SOL    HW112681   4.408   5.792   9.238 -0.0010  3.3866 -0.8090
 1941SOL    HW212682   4.350   5.884   9.342 -1.4544  2.9670 -1.2276
 1942SOL     OW12683  12.391  10.623   9.919 -0.0954  0.3964  0.2606
 1942SOL    HW112684  12.396  10.611   9.825  0.0901 -0.1088  0.3303
 1942SOL    HW212685  12.305  10.589   9.943 -0.4554  1.2255  0.1784
 1943SOL     OW12686   2.233   0.177   1.383 -0.8850 -0.1822  0.7370
 1943SOL    HW112687   2.258   0.094   1.342 -1.5333 -1.0031  1.9281
 1943SOL    HW212688   2.308   0.235   1.367 -0.2843 -1.0949  0.1415
 1944SOL     OW12689  11.151   7.716   6.215  0.5188 -0.2851  0.4555
 1944SOL    HW112690  11.146   7.700   6.309 -0.9136  0.5641  0.5531
 1944SOL    HW212691  11.199   7.799   6.208 -0.8446  0.5358  0.5617
 1945SOL     OW12692   7.597   8.230  10.134 -0.0186 -0.3212 -0.1790
 1945SOL    HW112693   7.599   8.190  10.221 -0.9223 -0.3127 -0.1484
 1945SOL    HW212694   7.511   8.207  10.098 -0.3426  1.0957 -0.3854
 1946SOL     OW12695   7.407   3.128  10.730 -0.2849  0.3136 -0.4785
 1946SOL    HW112696   7.403   3.050  10.784  1.3335  1.2188  1.0322
 1946SOL    HW212697   7.483   3.115  10.673 -0.0006  0.7664 -0.2139
 1947SOL     OW12698   4.307  11.864   1.922 -0.2909  0.0381  0.1972
 1947SOL    HW112699   4.357  11.926   1.869 -1.6146  0.8658 -0.1266
 1947SOL    HW212700   4.274  11.800   1.858 -1.0720  0.4834  0.1405
 1948SOL     OW12701   0.862   6.517  10.361  0.0719  0.3833 -0.2471
 1948SOL    HW112702   0.940   6.572  10.362  1.4590 -1.4738 -0.8101
 1948SOL    HW212703   0.804   6.557  10.297  0.4484  1.9097  0.3310
 1949SOL     OW12704   8.528  11.161   6.186 -0.4291  0.0593  0.1606
 1949SOL    HW112705   8.511  11.073   6.217  0.8122 -0.2665 -0.0169
 1949SOL    HW212706   8.450  11.184   6.135 -1.0925 -0.6247  0.8453
 1950SOL     OW12707   4.121   5.186   2.429 -0.0961 -0.1391  0.1197
 1950SOL    HW112708   4.051   5.158   2.370 -1.4094  1.8270  0.6581
 1950SOL    HW212709   4.079   5.247   2.489  1.6811 -0.3884  1.7100
 1951SOL     OW12710   1.428   9.172  10.795  0.7892 -0.2569 -0.7946
 1951SOL    HW112711   1.385   9.091  10.765 -3.2368  1.0741  0.7484
 1951SOL    HW212712   1.441   9.222  10.714 -1.1531 -0.5519 -1.3592
 1952SOL     OW12713   7.470   8.119   9.247  0.2087 -0.5064 -0.1267
 1952SOL    HW112714   7.493   8.161   9.164 -1.1873 -0.4134 -0.5042
 1952SOL    HW212715   7.526   8.161   9.312 -0.3049  1.1131 -0.6830
 1953SOL     OW12716   6.415  10.454  11.142  0.3396 -0.4009 -0.4445
 1953SOL    HW112717   6.510  10.446  11.128  0.6231 -3.0958  2.0658
 1953SOL    HW212718   6.378  10.378  11.098 -0.8382  1.0699 -2.1153
 1954SOL     OW12719   7.072   7.200   0.894  0.0211  0.2687  0.2393
 1954SOL    HW112720   7.132   7.271   0.870  1.6429 -1.2946 -0.5516
 1954SOL    HW212721   7.029   7.176   0.812 -1.6310  1.2647  0.7718
 1955SOL     OW12722  10.852   6.026   4.730 -0.3677 -0.2532 -0.1878
 1955SOL    HW112723  10.847   6.122   4.734  0.4318 -0.2440  0.7903
 1955SOL    HW212724  10.934   6.008   4.685 -0.5332 -0.4919 -0.3986
 1956SOL     OW12725   3.467  10.232   8.225 -0.9707 -0.4679  0.5567
 1956SOL    HW112726   3.477  10.316   8.178 -2.2346 -0.5338  0.1069
 1956SOL    HW212727   3.373  10.226   8.241 -0.5985 -0.4946  3.0861
 1957SOL     OW12728  10.053   2.214   7.880  0.4981  0.3663  0.0370
 1957SOL    HW112729  10.018   2.229   7.968 -0.6115 -0.3280 -0.2770
 1957SOL    HW212730  10.147   2.201   7.894  0.3472  0.3509  1.1075
 1958SOL     OW12731   8.288   3.509   0.978 -0.0215  0.0231  0.0268
 1958SOL    HW112732   8.247   3.467   0.902  0.5073  1.3473 -1.0326
 1958SOL    HW212733   8.364   3.555   0.942  0.7629 -0.0517  1.5102
 1959SOL     OW12734  11.559   3.699   9.666  0.0573  0.1720  0.1852
 1959SOL    HW112735  11.618   3.763   9.626  0.4433 -0.0724  0.3681
 1959SOL    HW212736  11.577   3.617   9.620  0.4234 -0.0839  0.7878
 1960SOL     OW12737  12.133   3.277   9.853  0.6425 -0.0879  0.0302
 1960SOL    HW112738  12.191   3.345   9.820 -0.0177 -0.2625 -1.5787
 1960SOL    HW212739  12.057   3.280   9.795  0.5226 -2.0882  0.0183
 1961SOL     OW12740   6.757   4.966   4.599  0.1676  0.2488 -0.2522
 1961SOL    HW112741   6.711   4.959   4.683 -0.6423  1.6661 -0.5369
 1961SOL    HW212742   6.850   4.967   4.623 -0.0480  0.5608  0.6404
 1962SOL     OW12743  12.505   0.765  10.789 -0.5198 -0.2423 -0.5178
 1962SOL    HW112744  12.570   0.822  10.748 -0.3079 -1.4454 -1.9372
 1962SOL    HW212745  12.421   0.793  10.750 -0.6217  0.1117 -0.0487
 1963SOL     OW12746   7.267  11.779   4.379  0.5433 -0.4554  0.8228
 1963SOL    HW112747   7.202  11.711   4.363  0.4261  0.0303 -0.9663
 1963SOL    HW212748   7.345  11.750   4.331  1.7320 -1.0608  2.9857
 1964SOL     OW12749   1.218   8.384   5.724 -0.3381 -0.3387 -0.3160
 1964SOL    HW112750   1.155   8.324   5.762 -1.4604  0.7740 -0.3822
 1964SOL    HW212751   1.249   8.437   5.797 -0.6597  0.1605 -0.5370
 1965SOL     OW12752  10.941   9.541   6.816  0.0391 -0.1507 -0.0939
 1965SOL    HW112753  10.873   9.484   6.853  1.5302 -1.2631  1.0640
 1965SOL    HW212754  10.901   9.628   6.814 -1.1702 -0.6352  1.2862
 1966SOL     OW12755   7.157  11.336   5.501  0.4285  0.1232  0.0970
 1966SOL    HW112756   7.151  11.410   5.561  2.3375  0.1764  0.2877
 1966SOL    HW212757   7.133  11.260   5.554 -1.1808  0.5316 -0.0036
 1967SOL     OW12758   6.423  10.638   8.495  0.1339 -0.1613 -0.5570
 1967SOL    HW112759   6.449  10.665   8.407  0.7416  0.8478 -0.0857
 1967SOL    HW212760   6.381  10.716   8.532 -0.5349 -0.7224 -0.1091
 1968SOL     OW12761   8.684   3.514   8.932  0.1539  0.1455 -0.1794
 1968SOL    HW112762   8.624   3.453   8.890 -0.7943  0.6232  0.4588
 1968SOL    HW212763   8.678   3.593   8.878  0.2428  0.1811 -0.1365
 1969SOL     OW12764   3.627   8.450  10.935 -0.2766 -0.0712  0.3413
 1969SOL    HW112765   3.569   8.419  11.004 -1.7306  0.7275 -0.4728
 1969SOL    HW212766   3.619   8.546  10.937 -0.1226 -0.0182 -0.7343
 1970SOL     OW12767   0.987   1.365   2.471  0.0649  0.9981  0.2447
 1970SOL    HW112768   0.944   1.434   2.522  0.4558  1.9598 -0.6848
 1970SOL    HW212769   0.948   1.284   2.502 -0.7547  1.6759  1.0286
 1971SOL     OW12770  12.076   7.162   4.185  0.1717 -0.0990  0.2192
 1971SOL    HW112771  12.066   7.215   4.264 -0.2221 -0.0120  0.1140
 1971SOL    HW212772  12.169   7.170   4.162 -0.0350  1.2346 -0.2653
 1972SOL     OW12773   4.865  11.195   6.127 -0.1729 -0.1454 -0.2371
 1972SOL    HW112774   4.847  11.287   6.103 -1.3186 -0.3803 -0.3687
 1972SOL    HW212775   4.955  11.195   6.158 -0.6045  1.3101  1.1735
 1973SOL     OW12776   5.663   0.118   5.459  0.0887 -0.3428 -0.3033
 1973SOL    HW112777   5.714   0.178   5.514  0.3947 -0.7760 -0.1068
 1973SOL    HW212778   5.707   0.034   5.468  1.3330 -0.0434 -2.7685
 1974SOL     OW12779  11.626  10.678   1.596 -0.4412 -0.1007 -0.6011
 1974SOL    HW112780  11.656  10.748   1.655 -0.3158  1.4417 -2.4082
 1974SOL    HW212781  11.537  10.659   1.627 -0.5641  1.0200 -0.1969
 1975SOL     OW12782   4.320   6.963   2.204 -0.6063  0.2564 -0.1289
 1975SOL    HW112783   4.339   6.871   2.182  0.1289  0.6675 -1.3130
 1975SOL    HW212784   4.403   6.996   2.239 -0.2751  0.9619 -1.5014
 1976SOL     OW12785   5.127  10.843   5.905  0.3018  0.1328 -0.5053
 1976SOL    HW112786   5.183  10.920   5.897  0.1579  0.0955 -2.6781
 1976SOL    HW212787   5.066  10.851   5.831 -3.0193  0.4715  2.0558
 1977SOL     OW12788   2.434  10.897  12.311 -0.4579 -0.2988 -0.7842
 1977SOL    HW112789   2.355  10.927  12.357  1.0977  1.1599  1.1096
 1977SOL    HW212790   2.422  10.803  12.302 -1.5745 -0.4089  1.2314
 1978SOL     OW12791   8.668  11.302   1.225 -0.5367  0.4657 -0.2448
 1978SOL    HW112792   8.711  11.358   1.160  0.2884 -0.3188 -0.4014
 1978SOL    HW212793   8.679  11.213   1.191 -1.1762  0.1461  0.3618
 1979SOL     OW12794   3.277   1.507   6.767 -0.4735 -0.2813 -0.6289
 1979SOL    HW112795   3.195   1.514   6.718 -0.8211 -0.3644 -0.0659
 1979SOL    HW212796   3.267   1.427   6.819  0.2991 -0.7392 -1.1664
 1980SOL     OW12797  12.274   5.633   3.281 -0.2343 -0.0061 -0.0176
 1980SOL    HW112798  12.274   5.538   3.291 -2.4007 -0.2660 -1.6212
 1980SOL    HW212799  12.282   5.646   3.186  0.2987  1.4197  0.2099
 1981SOL     OW12800   6.383   9.270   7.949 -0.5769 -0.2789 -0.3715
 1981SOL    HW112801   6.430   9.249   8.030  0.4858  1.9757 -0.3264
 1981SOL    HW212802   6.386   9.189   7.898  2.0568 -0.6827  0.2922
 1982SOL     OW12803  10.622   5.059  11.617 -0.6185  0.0662  0.0846
 1982SOL    HW112804  10.612   5.141  11.570 -1.1517 -0.5114 -0.8388
 1982SOL    HW212805  10.716   5.043  11.618 -0.2515  1.8079  2.3013
 1983SOL     OW12806   9.639   2.770   0.911  0.3934  0.9436  0.4809
 1983SOL    HW112807   9.693   2.822   0.852 -1.3870  1.0239 -1.1506
 1983SOL    HW212808   9.701   2.707   0.950  1.3648 -0.6229 -3.1663
 1984SOL     OW12809   4.939   8.617   1.070 -0.2121  0.3125  0.3791
 1984SOL    HW112810   4.953   8.710   1.085 -1.0162  0.3712  0.7994
 1984SOL    HW212811   4.927   8.580   1.157  1.6840 -0.4712  0.3600
 1985SOL     OW12812   0.828   8.817   5.525 -0.1013  0.1087 -0.0485
 1985SOL    HW112813   0.826   8.850   5.435  1.4660  0.8357  0.1506
 1985SOL    HW212814   0.765   8.745   5.525  1.4442 -1.4157 -2.3641
 1986SOL     OW12815   8.098   4.719   3.165  0.1528  0.3840  0.2594
 1986SOL    HW112816   8.058   4.687   3.246  0.5688 -0.8069  0.0163
 1986SOL    HW212817   8.071   4.811   3.159 -1.3162  0.0171  0.8562
 1987SOL     OW12818   6.599   4.776   5.793 -0.0655  0.1458  0.2309
 1987SOL    HW112819   6.622   4.836   5.864  0.9927 -1.2232  1.0975
 1987SOL    HW212820   6.681   4.763   5.745 -0.6821  0.7385 -1.0260
 1988SOL     OW12821   5.940  12.195   0.247  0.1416 -0.0772  0.2353
 1988SOL    HW112822   5.964  12.190   0.155 -0.7233 -0.8472  0.0316
 1988SOL    HW212823   6.009  12.247   0.288  0.1082  0.9637 -0.9883
 1989SOL     OW12824   3.940   0.157   9.666  0.0774  0.0426  0.2757
 1989SOL    HW112825   3.958   0.232   9.608  0.4744 -1.1968 -1.2597
 1989SOL    HW212826   3.932   0.082   9.607 -0.4358 -1.1267  1.7691
 1990SOL     OW12827   9.425   9.432   2.757  0.1087  0.2094  0.7230
 1990SOL    HW112828   9.482   9.359   2.781 -0.3707 -0.8479 -1.2021
 1990SOL    HW212829   9.485   9.497   2.720  0.0638 -1.4216 -2.5208
 1991SOL     OW12830   6.313   1.456   6.790 -0.1263  0.2232 -0.0407
 1991SOL    HW112831   6.342   1.535   6.834 -2.4856  0.7383  0.7539
 1991SOL    HW212832   6.283   1.399   6.861  0.6316 -1.0210 -0.6726
 1992SOL     OW12833   4.397   5.599   3.215  0.3695 -0.3154 -0.1450
 1992SOL    HW112834   4.456   5.631   3.283 -0.6597  0.8249  0.2300
 1992SOL    HW212835   4.415   5.655   3.140 -0.0780 -0.1112 -0.0999
 1993SOL     OW12836   8.762   4.794   5.795  0.2486  0.4482 -0.4632
 1993SOL    HW112837   8.759   4.791   5.890 -0.6619  1.3491 -0.4512
 1993SOL    HW212838   8.856   4.800   5.775  0.3854  3.7105  0.5486
 1994SOL     OW12839   6.657   8.158   2.598 -0.5820  0.3978  0.2596
 1994SOL    HW112840   6.742   8.127   2.566 -0.8577  1.2745 -1.4230
 1994SOL    HW212841   6.595   8.131   2.530 -0.9691  3.7157 -0.8962
 1995SOL     OW12842   8.600  10.785   9.397 -0.6001 -0.4323  0.2685
 1995SOL    HW112843   8.638  10.873   9.404  0.8634 -0.9684 -0.3842
 1995SOL    HW212844   8.508  10.797   9.418 -0.0721  0.9427  2.0408
 1996SOL     OW12845  10.288   6.846  12.371  0.4514 -0.4370  0.5835
 1996SOL    HW112846  10.236   6.766  12.359  1.4739 -0.8322 -1.7338
 1996SOL    HW212847  10.225   6.917  12.358  0.1006 -0.9067 -0.4472
 1997SOL     OW12848   7.021   6.618   0.781 -0.2320  0.3329  0.5437
 1997SOL    HW112849   7.073   6.561   0.838 -0.9017  1.2931  2.2006
 1997SOL    HW212850   6.971   6.673   0.842 -1.0279  1.3856 -0.9955
 1998SOL     OW12851   6.112   0.233   5.866 -0.5338 -0.0340 -0.2476
 1998SOL    HW112852   6.038   0.258   5.922  0.3030  0.4653  0.6566
 1998SOL    HW212853   6.071   0.206   5.784 -1.7079  0.4583  0.1518
 1999SOL     OW12854   0.890   8.128   5.984  0.3837  0.2946 -0.3053
 1999SOL    HW112855   0.801   8.109   5.953  0.4808 -0.0486 -0.3741
 1999SOL    HW212856   0.877   8.176   6.065  0.1220 -1.1614  0.5616
 2000SOL     OW12857   2.233  10.334   7.831 -0.0998  0.1446  0.3588
 2000SOL    HW112858   2.142  10.357   7.850  0.2263  2.2103 -0.2924
 2000SOL    HW212859   2.280  10.418   7.837  1.5863 -0.7148 -0.3004
 2001SOL     OW12860   9.373   6.479  11.018  0.5291  0.5610 -0.0948
 2001SOL    HW112861   9.284   6.512  11.030 -0.1390 -0.5953 -1.5691
 2001SOL    HW212862   9.369   6.388  11.048  1.1574  0.4513 -0.3308
 2002SOL     OW12863   7.577   0.549   6.754 -0.2735  0.0047  0.0001
 2002SOL    HW112864   7.522   0.603   6.811 -0.4594  0.6364 -0.7673
 2002SOL    HW212865   7.618   0.486   6.814  1.9331  2.5439  1.3474
 2003SOL     OW12866   8.954   9.811   8.632  0.4001 -0.1715  0.4889
 2003SOL    HW112867   8.939   9.902   8.604 -1.5107 -0.8355 -0.7986
 2003SOL    HW212868   9.043   9.791   8.601 -0.0970  0.4779 -1.4649
 2004SOL     OW12869   1.920   0.951   8.468  0.2645  0.0659 -0.0363
 2004SOL    HW112870   1.998   1.007   8.475 -0.2300  0.8411 -0.6719
 2004SOL    HW212871   1.941   0.875   8.524  1.2526  0.5121  0.2283
 2005SOL     OW12872   3.939   4.426   2.686  0.4426  0.1779 -0.4017
 2005SOL    HW112873   3.945   4.364   2.612  1.2602  0.1886 -0.3568
 2005SOL    HW212874   4.030   4.446   2.707  0.1895  1.7873 -0.7258
 2006SOL     OW12875   9.843   4.758   9.720  0.3002  0.3613  0.1521
 2006SOL    HW112876   9.822   4.687   9.659 -4.4246  2.4153 -1.0881
 2006SOL    HW212877   9.934   4.780   9.701  0.0824 -1.3383 -3.8275
 2007SOL     OW12878   7.554  11.935   0.335 -0.1943 -0.1525  0.2857
 2007SOL    HW112879   7.534  11.846   0.364  0.6852 -1.5221 -2.8298
 2007SOL    HW212880   7.604  11.973   0.407 -1.2747 -1.8806  2.0439
 2008SOL     OW12881   2.751   2.056   2.371  0.0154 -0.3409  0.5626
 2008SOL    HW112882   2.846   2.062   2.361  0.1668  0.7077  2.2371
 2008SOL    HW212883   2.734   1.963   2.378  1.0083 -0.5211  0.7961
 2009SOL     OW12884   2.916   4.045   8.481 -0.1233 -0.2394  0.2649
 2009SOL    HW112885   2.963   4.052   8.564 -2.7228  0.0714  1.8167
 2009SOL    HW212886   2.851   3.976   8.497  0.3883 -1.3633 -2.1131
 2010SOL     OW12887   9.805  10.019   3.581 -0.1370 -0.0852  0.4229
 2010SOL    HW112888   9.728   9.975   3.544  0.3569 -1.7537  1.2506
 2010SOL    HW212889   9.849  10.059   3.506 -1.7093  0.7879 -0.0849
 2011SOL     OW12890  11.791  10.679  10.069  0.2568  0.1063  0.4105
 2011SOL    HW112891  11.777  10.770  10.093  1.2623  0.3123  0.2684
 2011SOL    HW212892  11.875  10.656  10.110  0.6073 -0.3831 -0.5459
 2012SOL     OW12893   3.947   7.085   8.492 -0.4526 -0.1024  0.2205
 2012SOL    HW112894   3.878   7.018   8.493 -0.8514  0.3096  1.0238
 2012SOL    HW212895   3.982   7.086   8.580  1.9283 -1.6229 -0.6326
 2013SOL     OW12896  10.576   0.982   5.085 -0.2329  0.5037  0.0404
 2013SOL    HW112897  10.652   1.039   5.072 -0.7440  0.8906 -1.4907
 2013SOL    HW212898  10.601   0.926   5.158  0.5435  2.2667  1.2050
 2014SOL     OW12899   5.104   7.405   4.540  0.4115  0.1856  0.3253
 2014SOL    HW112900   5.063   7.322   4.564  0.1324  0.0220 -0.6693
 2014SOL    HW212901   5.078   7.420   4.449  2.3842  0.1709 -0.2998
 2015SOL     OW12902   5.724   3.861   1.202 -0.0763  0.3088  0.2734
 2015SOL    HW112903   5.747   3.799   1.133  1.5870  0.8717  0.2928
 2015SOL    HW212904   5.648   3.908   1.168  1.5515  1.5628 -1.8209
 2016SOL     OW12905   9.741   2.340   0.369 -0.5884 -0.5020  0.2785
 2016SOL    HW112906   9.760   2.278   0.298  0.5545  0.1283  0.0058
 2016SOL    HW212907   9.661   2.306   0.410 -1.8004 -0.3976 -1.8528
 2017SOL     OW12908   3.077   3.356   8.988 -0.3088 -0.0687 -0.4078
 2017SOL    HW112909   3.040   3.368   8.901 -2.0857 -0.6219  0.2309
 2017SOL    HW212910   3.113   3.267   8.986  1.1609  0.5026 -1.0573
 2018SOL     OW12911   3.272  10.503   9.034 -0.2998 -0.3721  0.0423
 2018SOL    HW112912   3.317  10.587   9.038 -0.4659 -0.3299  2.6687
 2018SOL    HW212913   3.198  10.519   8.975  0.4610  0.8880 -0.6272
 2019SOL     OW12914   6.763   8.418   3.557 -0.3963 -0.3449  0.0044
 2019SOL    HW112915   6.843   8.469   3.560 -1.0285  0.6302  1.8848
 2019SOL    HW212916   6.724   8.439   3.472 -0.0330  1.3337  0.2287
 2020SOL     OW12917   5.938   1.600   3.937 -0.0050  0.0217 -0.3019
 2020SOL    HW112918   6.020   1.634   3.973  0.0548  0.4203 -0.8044
 2020SOL    HW212919   5.957   1.509   3.914 -0.3340 -0.5781  1.6183
 2021SOL     OW12920   6.238   3.089   1.103  0.2310 -0.8321  0.1860
 2021SOL    HW112921   6.277   3.120   1.021  0.0038 -0.2164  0.3134
 2021SOL    HW212922   6.303   3.027   1.137  0.2192 -1.2844 -0.5781
 2022SOL     OW12923  11.721  10.120   2.142 -0.1949  0.1433  0.4730
 2022SOL    HW112924  11.801  10.119   2.090  0.4573 -2.2873  1.3982
 2022SOL    HW212925  11.651  10.109   2.078  0.4530 -0.7958 -0.1004
 2023SOL     OW12926   3.213   1.141   2.573  0.2653  0.1454  0.6484
 2023SOL    HW112927   3.186   1.080   2.641  4.0597 -1.4708  0.9444
 2023SOL    HW212928   3.156   1.121   2.498 -1.1858 -0.9703  1.9886
 2024SOL     OW12929   0.041  10.062  10.733  0.1886 -0.4071 -0.3865
 2024SOL    HW112930  -0.027   9.996  10.722  0.2701 -0.2949 -1.6870
 2024SOL    HW212931   0.014  10.133  10.675  1.2572 -0.2429 -0.6918
 2025SOL     OW12932   5.642   8.275   3.067 -0.0051  0.1510 -0.1754
 2025SOL    HW112933   5.548   8.293   3.074  0.3873  1.7528  2.2711
 2025SOL    HW212934   5.680   8.357   3.034  0.7131  0.1478  0.6052
 2026SOL     OW12935   1.167   2.650   1.851  0.5750 -0.5080  0.4433
 2026SOL    HW112936   1.114   2.572   1.871  0.2834 -0.5805 -0.5363
 2026SOL    HW212937   1.176   2.648   1.756  2.4398 -0.5441  0.5857
 2027SOL     OW12938   2.281   9.036   8.763  0.4342 -0.0090 -0.2739
 2027SOL    HW112939   2.337   9.086   8.823  2.2865 -2.2447  0.0335
 2027SOL    HW212940   2.210   9.004   8.818  0.6387  0.1975  0.1178
 2028SOL     OW12941   5.607   5.549   9.093 -0.3708 -0.2102  0.4757
 2028SOL    HW112942   5.690   5.588   9.064  0.3816 -1.7952  0.3709
 2028SOL    HW212943   5.632   5.463   9.127 -2.0958 -1.0935 -0.3974
 2029SOL     OW12944   4.588   0.421  11.204  0.2379 -0.4253  0.6543
 2029SOL    HW112945   4.510   0.467  11.236  0.5215  0.1684  0.5042
 2029SOL    HW212946   4.609   0.360  11.274  0.2516  0.1491  1.1645
 2030SOL     OW12947   6.226   2.701   1.308 -0.4448 -0.1252 -0.0839
 2030SOL    HW112948   6.193   2.611   1.301  0.3619 -0.4600  0.3437
 2030SOL    HW212949   6.320   2.693   1.294 -0.1811  0.4835  1.2322
 2031SOL     OW12950   9.927   4.870  11.201  0.5275  0.1723  0.4281
 2031SOL    HW112951   9.939   4.935  11.131  0.1173  0.2977  0.4705
 2031SOL    HW212952   9.866   4.806  11.165  1.2569 -0.4299  0.2340
 2032SOL     OW12953   1.944   3.836   8.593  0.2950 -0.0782  0.4467
 2032SOL    HW112954   2.019   3.868   8.543 -1.7926  0.1666 -2.7783
 2032SOL    HW212955   1.953   3.741   8.592  0.2335 -0.0832 -0.5534
 2033SOL     OW12956  11.292   6.804   6.506 -0.1549  0.4262  0.0613
 2033SOL    HW112957  11.310   6.748   6.581 -1.3836  0.9618  0.7913
 2033SOL    HW212958  11.225   6.866   6.538  0.0934  1.3548 -1.1485
 2034SOL     OW12959   6.372   2.001   4.167  0.2496 -0.7087 -0.5354
 2034SOL    HW112960   6.459   2.036   4.184  0.4545 -1.4306 -0.0488
 2034SOL    HW212961   6.362   1.928   4.228 -0.8676 -0.3684 -0.2789
 2035SOL     OW12962  12.303   6.317   4.206  0.0343  0.3290  0.2463
 2035SOL    HW112963  12.290   6.391   4.146  0.2030  1.2436  1.3025
 2035SOL    HW212964  12.326   6.244   4.149 -1.3482  0.7632 -0.9432
 2036SOL     OW12965   3.757   7.177   5.591 -0.3577 -0.1612  0.6925
 2036SOL    HW112966   3.713   7.235   5.529  0.0827  1.2030  1.6143
 2036SOL    HW212967   3.746   7.089   5.553 -0.6526  0.5462 -0.9690
 2037SOL     OW12968   4.072   5.358   5.990 -0.2444 -0.0515  0.0467
 2037SOL    HW112969   4.092   5.379   5.898  1.5838  0.0394  0.4240
 2037SOL    HW212970   3.979   5.379   6.000 -1.4675 -3.2194 -2.6938
 2038SOL     OW12971   0.286   8.481  12.251  0.0323  0.3789 -0.0104
 2038SOL    HW112972   0.240   8.496  12.169 -0.2841 -1.0329 -0.1164
 2038SOL    HW212973   0.352   8.416  12.230 -0.7937 -0.8621  1.0719
 2039SOL     OW12974  10.049   5.374   7.459  0.2238  0.3799 -0.3396
 2039SOL    HW112975  10.061   5.291   7.505 -0.1604 -0.5495 -1.8454
 2039SOL    HW212976  10.112   5.370   7.387 -1.7386  0.0821 -2.1282
 2040SOL     OW12977  10.132  11.989   9.139  0.0490 -0.2914  0.2660
 2040SOL    HW112978  10.102  11.930   9.207  2.7849 -0.1674  1.7114
 2040SOL    HW212979  10.140  12.074   9.182  1.2225 -0.0653 -0.3633
 2041SOL     OW12980   8.274   5.139   9.139 -0.0968  0.0655  0.0395
 2041SOL    HW112981   8.208   5.194   9.098  1.3949  1.1914 -0.9887
 2041SOL    HW212982   8.324   5.199   9.194  0.1025 -0.7485  0.7650
 2042SOL     OW12983   2.143   9.740   9.985 -0.3593 -0.0360 -0.0218
 2042SOL    HW112984   2.214   9.774  10.040 -0.1239  2.5074 -1.7296
 2042SOL    HW212985   2.169   9.763   9.895 -2.1985 -1.2649 -0.9385
 2043SOL     OW12986  12.520   3.815   2.889  0.1470  0.3404 -0.4842
 2043SOL    HW112987  12.472   3.852   2.963 -1.9120 -0.7963 -1.1676
 2043SOL    HW212988  12.572   3.888   2.855  0.4040  1.1249  1.4576
 2044SOL     OW12989   4.754   0.774  10.823 -0.1472  0.1374 -0.1208
 2044SOL    HW112990   4.819   0.824  10.872  0.3172  0.4900 -1.0543
 2044SOL    HW212991   4.751   0.689  10.865  3.5213 -1.1754 -2.0415
 2045SOL     OW12992   5.456   3.037   9.499  0.8235  0.2417 -0.3481
 2045SOL    HW112993   5.496   3.116   9.463 -0.6064  1.3090  0.3489
 2045SOL    HW212994   5.444   3.055   9.592  1.1268 -1.0830 -0.0272
 2046SOL     OW12995  11.448   3.524   1.530  0.3598  0.6670 -0.0176
 2046SOL    HW112996  11.362   3.566   1.529 -1.6796 -2.9548  1.8578
 2046SOL    HW212997  11.459   3.490   1.441 -0.0601  1.3304 -0.3300
 2047SOL     OW12998   7.724   3.231   3.950 -0.4736  0.5233 -0.9998
 2047SOL    HW112999   7.653   3.287   3.919  0.4186  1.2070 -1.8458
 2047SOL    HW213000   7.680   3.154   3.985 -1.7602  1.9252  0.6394
 2048SOL     OW13001   4.235   6.788   9.077  1.2322  0.2313  0.2012
 2048SOL    HW113002   4.176   6.830   9.139  1.3495 -0.6949  0.9518
 2048SOL    HW213003   4.227   6.695   9.096  1.0607 -0.0990 -1.3551
 2049SOL     OW13004   7.273   7.310   0.745 -0.2014 -0.5406  0.9391
 2049SOL    HW113005   7.365   7.337   0.739 -0.5094  0.8700  2.0688
 2049SOL    HW213006   7.232   7.346   0.666  0.0945 -0.6844  0.7171
 2050SOL     OW13007   7.103   1.708  10.683  0.3616  0.2840  0.0277
 2050SOL    HW113008   7.146   1.794  10.678 -1.0245  1.0622  0.8578
 2050SOL    HW213009   7.015   1.724  10.648  0.5484 -1.1449 -1.1503
 2051SOL     OW13010   1.533   1.134   5.824 -0.0604  0.6849  0.3710
 2051SOL    HW113011   1.576   1.185   5.893  0.1084 -1.7013  2.1596
 2051SOL    HW213012   1.446   1.115   5.858 -0.4941  0.6237 -0.7170
 2052SOL     OW13013   3.040   3.066   6.676  0.2894 -0.5619  0.2691
 2052SOL    HW113014   3.128   3.043   6.703  1.5581  0.8555 -2.2604
 2052SOL    HW213015   3.014   2.995   6.616  0.6622  0.1090 -0.7170
 2053SOL     OW13016   9.702  12.390   0.377  0.1621  0.1207 -0.2594
 2053SOL    HW113017   9.788  12.348   0.380  0.5790  0.9798  0.5176
 2053SOL    HW213018   9.640  12.318   0.388  0.8690 -0.3037  1.3337
 2054SOL     OW13019   3.133   1.441   7.541 -0.0010 -0.0595  0.3488
 2054SOL    HW113020   3.110   1.366   7.597 -1.5901 -0.2220 -0.4566
 2054SOL    HW213021   3.102   1.517   7.590 -2.0501 -0.2505 -0.5523
 2055SOL     OW13022   7.771   5.615   4.004 -0.6677 -0.3104  0.3433
 2055SOL    HW113023   7.811   5.650   3.925 -2.2595  0.4982 -0.1429
 2055SOL    HW213024   7.704   5.679   4.028 -0.1450 -0.4709  2.4330
 2056SOL     OW13025   5.889   0.787   4.086  0.2538 -0.3025  0.5376
 2056SOL    HW113026   5.828   0.812   4.157 -0.9881 -3.3079  0.7039
 2056SOL    HW213027   5.930   0.707   4.118 -0.4921 -1.8884 -2.1380
 2057SOL     OW13028  10.095   7.633  10.276  0.6909  0.1008 -0.3695
 2057SOL    HW113029  10.032   7.567  10.305 -0.3428  0.1301 -2.3844
 2057SOL    HW213030  10.051   7.717  10.292  0.5247  0.1513 -1.0755
 2058SOL     OW13031   5.764   5.773   6.875  0.2111 -0.4089 -0.4426
 2058SOL    HW113032   5.819   5.698   6.851  1.6598  1.0438 -1.8853
 2058SOL    HW213033   5.742   5.814   6.792 -1.7418  0.0095  0.2280
 2059SOL     OW13034   6.223   3.609   7.311  0.6357 -0.0957 -0.1275
 2059SOL    HW113035   6.155   3.674   7.293 -0.2530 -0.6050  1.2410
 2059SOL    HW213036   6.290   3.657   7.360 -0.3632 -0.3027  1.5415
 2060SOL     OW13037  11.354   7.966   5.282 -0.3761 -0.0214  0.2361
 2060SOL    HW113038  11.266   7.998   5.264 -0.2319  0.1546 -0.1528
 2060SOL    HW213039  11.401   8.043   5.313  0.0390  0.2078 -0.9294
 2061SOL     OW13040   7.846  10.818   3.723 -0.1421  0.2470 -0.0124
 2061SOL    HW113041   7.806  10.868   3.794  1.8059  2.2606 -0.2328
 2061SOL    HW213042   7.849  10.728   3.756 -0.0970  0.9605  2.0894
 2062SOL     OW13043   2.543  12.327   0.492  0.0887 -0.0412  0.4501
 2062SOL    HW113044   2.592  12.394   0.445 -0.3734 -0.4798 -0.6930
 2062SOL    HW213045   2.610  12.272   0.534  0.4957  0.4981  0.5187
 2063SOL     OW13046   5.844  10.786   7.818 -0.5341 -0.2161  0.3642
 2063SOL    HW113047   5.860  10.780   7.724 -0.6460  0.8510  0.2700
 2063SOL    HW213048   5.749  10.796   7.825 -0.4576  0.3654  0.5554
 2064SOL     OW13049   7.566   5.946  10.900  0.4654 -0.3560 -0.2283
 2064SOL    HW113050   7.497   5.921  10.961  1.2339 -2.6888 -0.1914
 2064SOL    HW213051   7.617   6.011  10.947 -0.7426  0.1735  0.3862
 2065SOL     OW13052  11.919   5.529  12.140  0.2511 -0.5480  0.0049
 2065SOL    HW113053  11.858   5.540  12.213  0.0865  1.4601 -0.3927
 2065SOL    HW213054  11.882   5.457  12.089 -2.4452  1.2678 -0.7974
 2066SOL     OW13055   8.142   0.458   0.527 -0.0540 -0.0883  0.1273
 2066SOL    HW113056   8.155   0.382   0.583  1.9617 -1.0681 -1.5083
 2066SOL    HW213057   8.072   0.508   0.569  2.2744  0.0951  4.3659
 2067SOL     OW13058   6.097   6.186   4.562 -0.3375 -0.0462  0.0252
 2067SOL    HW113059   6.072   6.279   4.564 -0.1828  0.0213 -0.8930
 2067SOL    HW213060   6.015   6.139   4.578 -1.1435  0.1754 -2.7929
 2068SOL     OW13061  11.281   8.867   7.346 -0.3429 -0.1386  0.8959
 2068SOL    HW113062  11.206   8.892   7.292  0.6931 -0.7458 -0.8762
 2068SOL    HW213063  11.305   8.948   7.392 -0.6159  0.6661 -0.3304
 2069SOL     OW13064   4.341   1.570   2.051 -0.0449  0.0702 -0.4659
 2069SOL    HW113065   4.402   1.643   2.056 -0.7444  0.6038  0.7739
 2069SOL    HW213066   4.254   1.611   2.053 -0.4660 -0.7916  1.0863
 2070SOL     OW13067   2.063   0.666   4.531 -0.3101 -0.2060  0.1543
 2070SOL    HW113068   2.045   0.666   4.437  0.5466 -0.5317 -0.0149
 2070SOL    HW213069   2.024   0.585   4.563  1.4371 -1.2763 -0.3359
 2071SOL     OW13070  10.109   8.556   1.942 -0.1519 -0.2805  0.5457
 2071SOL    HW113071  10.034   8.536   1.886 -0.1037 -0.6449  0.6079
 2071SOL    HW213072  10.167   8.607   1.886  0.5596 -1.8487 -0.2231
 2072SOL     OW13073   5.594  11.841   9.622 -0.4294  0.6644 -0.2910
 2072SOL    HW113074   5.499  11.838   9.617 -0.4422  1.6891 -1.0070
 2072SOL    HW213075   5.618  11.924   9.580  0.6612  1.5599  1.9660
 2073SOL     OW13076  11.358   4.236   9.042  0.3198 -0.1277  0.1746
 2073SOL    HW113077  11.405   4.317   9.022 -0.1144  0.1203  0.1478
 2073SOL    HW213078  11.405   4.169   8.992  1.3370 -0.0767  1.0323
 2074SOL     OW13079   5.631   4.958   9.979 -0.3795 -0.5843 -0.0852
 2074SOL    HW113080   5.665   5.024  10.039  2.3331 -0.9994 -1.0349
 2074SOL    HW213081   5.637   4.876  10.028 -1.3903 -0.5061  0.2071
 2075SOL     OW13082   8.700   9.819   2.278 -0.0388  0.4201 -0.0299
 2075SOL    HW113083   8.780   9.850   2.236  0.0220  0.5341  0.1700
 2075SOL    HW213084   8.644   9.897   2.282 -1.1788 -0.1681 -2.4895
 2076SOL     OW13085   3.475  11.269   5.412 -0.1229  0.6336  0.0457
 2076SOL    HW113086   3.566  11.295   5.425 -0.4712  1.9097  0.1420
 2076SOL    HW213087   3.427  11.352   5.413 -1.0730  0.1606 -1.8416
 2077SOL     OW13088  12.327  10.090   7.720  0.4978  0.1192 -0.2730
 2077SOL    HW113089  12.359  10.034   7.791  0.0044  1.3485  0.9777
 2077SOL    HW213090  12.232  10.084   7.726  0.4500 -0.7090 -1.6387
 2078SOL     OW13091   9.318   1.472   5.436 -0.2007 -0.2403  0.4422
 2078SOL    HW113092   9.289   1.547   5.487 -0.1094  0.4354 -0.4661
 2078SOL    HW213093   9.329   1.506   5.347 -2.6172 -1.8659 -0.5950
 2079SOL     OW13094   2.597   6.052   9.632 -0.2294 -0.1282 -0.3859
 2079SOL    HW113095   2.664   6.014   9.575 -1.3214 -1.1448 -1.0412
 2079SOL    HW213096   2.551   5.977   9.668 -1.8151  0.5322 -0.9335
 2080SOL     OW13097   4.864   7.795   8.358  0.3542 -0.3248  0.1911
 2080SOL    HW113098   4.914   7.793   8.439 -0.3935  1.1086  0.7167
 2080SOL    HW213099   4.772   7.796   8.386  0.0607 -0.6435 -0.7004
 2081SOL     OW13100  10.841   3.749   5.515  0.6754 -0.3096  0.1064
 2081SOL    HW113101  10.810   3.659   5.513 -0.6930  0.0987  1.2168
 2081SOL    HW213102  10.927   3.746   5.472  0.4603 -2.0385 -0.2773
 2082SOL     OW13103   1.883   6.541   8.331 -0.2282 -0.4111  0.2920
 2082SOL    HW113104   1.962   6.508   8.374  2.5939  2.1413 -2.3893
 2082SOL    HW213105   1.871   6.484   8.255 -0.8080 -0.6385  0.5547
 2083SOL     OW13106   5.458   8.997   9.247 -0.1326  0.2491 -0.3854
 2083SOL    HW113107   5.437   9.089   9.230 -1.9980  0.0494  0.5451
 2083SOL    HW213108   5.528   9.000   9.312  1.3848  0.9672 -1.9606
 2084SOL     OW13109   9.323   4.259   2.564 -0.4223 -0.2093  0.1566
 2084SOL    HW113110   9.375   4.196   2.614 -1.2633 -2.7311 -1.9417
 2084SOL    HW213111   9.246   4.276   2.618 -0.7970 -2.0267  0.2513
 2085SOL     OW13112   7.817   1.613   9.421  0.4085  0.9686  0.2551
 2085SOL    HW113113   7.900   1.601   9.466  0.5665 -1.6263 -0.5125
 2085SOL    HW213114   7.841   1.647   9.335  0.4401  2.3706  0.8019
 2086SOL     OW13115   0.419   2.172  12.177 -0.4226  0.2641 -0.1778
 2086SOL    HW113116   0.420   2.133  12.265  0.0403  1.6345  0.4552
 2086SOL    HW213117   0.511   2.173  12.150 -0.0825  2.8676  0.7720
 2087SOL     OW13118   1.971  11.280   7.873 -0.1520 -0.1606 -0.3282
 2087SOL    HW113119   1.902  11.346   7.872 -0.6215 -0.6556 -1.1250
 2087SOL    HW213120   2.017  11.291   7.790 -1.2711 -1.8899 -1.2346
 2088SOL     OW13121   5.287   8.199  11.816 -0.1936 -0.2318 -0.1386
 2088SOL    HW113122   5.301   8.184  11.910  2.5902 -1.0096 -0.5733
 2088SOL    HW213123   5.293   8.294  11.806 -1.1320 -0.0857  0.5192
 2089SOL     OW13124   3.693   8.016   2.058  0.2950  0.3405  0.1243
 2089SOL    HW113125   3.786   8.018   2.034  0.3489 -0.4495  0.2413
 2089SOL    HW213126   3.647   8.032   1.976  0.5032 -1.2246 -0.3286
 2090SOL     OW13127   8.723  10.344  12.242 -0.0104  0.7377 -0.0862
 2090SOL    HW113128   8.647  10.357  12.299  0.0873 -0.8470  0.4395
 2090SOL    HW213129   8.715  10.254  12.211  1.5483  0.6021 -0.1666
 2091SOL     OW13130   3.986  12.537   1.471 -0.3637 -0.6897  0.1165
 2091SOL    HW113131   3.929  12.486   1.414 -0.4409  1.0536 -1.4644
 2091SOL    HW213132   3.926  12.587   1.526 -0.3749  0.1269 -0.6136
 2092SOL     OW13133   0.182   4.674  12.483 -0.4477 -0.6592  0.0085
 2092SOL    HW113134   0.105   4.622  12.459 -0.3121 -0.8680  0.0293
 2092SOL    HW213135   0.255   4.613  12.477 -0.4607 -0.8315  1.3673
 2093SOL     OW13136   3.243   5.510  12.270  0.2573  0.2773 -0.0714
 2093SOL    HW113137   3.153   5.539  12.283  0.1113 -0.6757  1.3408
 2093SOL    HW213138   3.294   5.591  12.266 -0.6420  0.8261 -0.8295
 2094SOL     OW13139   8.675   9.053   9.566 -0.2423 -0.2362 -0.2706
 2094SOL    HW113140   8.643   9.143   9.577 -0.5732 -0.5627  1.7107
 2094SOL    HW213141   8.596   8.999   9.576  0.5185 -0.9427  2.6613
 2095SOL     OW13142   2.813   1.597   9.124  0.2918  0.3095  0.2941
 2095SOL    HW113143   2.764   1.546   9.060 -2.3946 -1.2122  3.2795
 2095SOL    HW213144   2.777   1.685   9.117  0.1739  0.2117 -0.3948
 2096SOL     OW13145   4.593   1.616   4.817 -0.0474  0.8524 -0.4650
 2096SOL    HW113146   4.518   1.670   4.841 -0.8641 -0.5764  0.3120
 2096SOL    HW213147   4.591   1.543   4.879  1.4931  0.3425 -0.9713
 2097SOL     OW13148   9.962   9.659   9.874 -0.2477  0.1437 -0.3054
 2097SOL    HW113149  10.038   9.691   9.825  0.9864  0.5629  1.7998
 2097SOL    HW213150   9.941   9.729   9.935 -0.7157 -0.9911  0.8803
 2098SOL     OW13151   3.498   7.568   1.454 -0.3287 -0.1707  0.2517
 2098SOL    HW113152   3.551   7.637   1.414  0.5963 -0.9176  0.1388
 2098SOL    HW213153   3.432   7.547   1.388 -1.0168  1.0188  0.5352
 2099SOL     OW13154   3.932  11.998   2.535 -0.0413 -0.4301  0.0485
 2099SOL    HW113155   3.993  11.966   2.469 -1.4862 -0.4410 -1.3477
 2099SOL    HW213156   3.985  12.054   2.592  1.1795 -0.0747 -1.3834
 2100SOL     OW13157  11.613   3.022  10.556  0.3978  0.1409  0.6284
 2100SOL    HW113158  11.522   3.002  10.575  0.5361 -0.4465  0.7009
 2100SOL    HW213159  11.627   3.110  10.592 -0.1704  0.2828  0.4990
 2101SOL     OW13160  11.280   6.212  11.494  0.1283 -0.1957 -0.0255
 2101SOL    HW113161  11.373   6.225  11.514  0.4360  0.2963 -1.6098
 2101SOL    HW213162  11.242   6.299  11.500 -0.9257 -0.7764  3.5526
 2102SOL     OW13163   7.457   6.097   4.942  0.3400  0.2929 -0.2589
 2102SOL    HW113164   7.542   6.099   4.986  1.1578  1.2666 -1.7642
 2102SOL    HW213165   7.474   6.052   4.859 -0.4132  1.1296 -0.8985
 2103SOL     OW13166  11.614   6.363   2.259  0.4296 -0.4324 -0.3502
 2103SOL    HW113167  11.708   6.366   2.241  0.5670  0.5054  0.4442
 2103SOL    HW213168  11.605   6.399   2.347 -0.8938  2.0220 -1.3715
 2104SOL     OW13169   3.098   5.886   1.229  0.5428 -0.0754  0.0880
 2104SOL    HW113170   3.150   5.813   1.196 -0.5015 -0.7746 -0.0520
 2104SOL    HW213171   3.157   5.962   1.222  0.4599 -0.1456 -3.3877
 2105SOL     OW13172   0.568   4.141   7.584 -0.3118  0.2646  0.3928
 2105SOL    HW113173   0.568   4.089   7.665 -0.0195 -0.4002 -0.0307
 2105SOL    HW213174   0.491   4.197   7.592 -1.5190 -1.3061  0.1857
 2106SOL     OW13175  11.925   0.141  10.707 -0.0658  0.3756 -0.4007
 2106SOL    HW113176  11.974   0.223  10.705  1.0497 -0.1251  2.1839
 2106SOL    HW213177  11.871   0.147  10.786 -2.0666 -0.2997 -1.6404
 2107SOL     OW13178   9.951   9.801  10.640 -0.7511 -0.1922  0.7265
 2107SOL    HW113179  10.047   9.800  10.645 -0.4525  1.0787 -2.2467
 2107SOL    HW213180   9.928   9.718  10.600 -0.9268 -0.6210  1.7125
 2108SOL     OW13181   4.358   5.590  12.226 -0.1533 -0.1203 -0.7025
 2108SOL    HW113182   4.286   5.653  12.220  0.2723  0.3778 -0.5788
 2108SOL    HW213183   4.435   5.642  12.249 -0.0716 -0.8588  0.8394
 2109SOL     OW13184  12.047   5.206   3.699 -0.4312 -0.2575  0.2947
 2109SOL    HW113185  12.047   5.157   3.616  2.0510 -2.5963  1.5354
 2109SOL    HW213186  12.138   5.229   3.713 -1.0167  1.3521  1.7563
 2110SOL     OW13187   3.944   0.447   1.128  0.0207  0.8684 -0.2214
 2110SOL    HW113188   3.857   0.407   1.133 -0.8828  2.7998  3.3261
 2110SOL    HW213189   4.001   0.378   1.095 -2.5476 -0.9980 -1.0922
 2111SOL     OW13190   6.685   4.470   0.254  0.3645  0.2100 -0.4053
 2111SOL    HW113191   6.612   4.411   0.233  0.2494  0.2304 -0.0684
 2111SOL    HW213192   6.755   4.412   0.283 -0.5764  0.3295  2.4494
 2112SOL     OW13193   8.266   9.556  11.802  0.1891  0.1327 -0.4183
 2112SOL    HW113194   8.242   9.520  11.887  0.8747 -0.5932 -0.5142
 2112SOL    HW213195   8.185   9.594  11.768 -0.4823 -0.9646 -0.1211
 2113SOL     OW13196   9.146   4.653   6.171 -0.0188 -0.0942 -0.2507
 2113SOL    HW113197   9.089   4.600   6.116 -0.4214 -0.0588  0.1246
 2113SOL    HW213198   9.177   4.723   6.113  0.2275 -0.5371 -0.6490
 2114SOL     OW13199  12.376   2.999   3.708  1.1069 -0.6543 -0.7053
 2114SOL    HW113200  12.318   3.051   3.764  0.7538 -0.0419 -1.6197
 2114SOL    HW213201  12.426   3.064   3.659  2.3624 -1.1721 -0.1658
 2115SOL     OW13202  12.556   7.391   8.895  0.1534  0.5140 -0.1064
 2115SOL    HW113203  12.610   7.332   8.948 -0.7308 -0.0871  0.1478
 2115SOL    HW213204  12.597   7.477   8.906  0.5247  0.2343  0.8036
 2116SOL     OW13205   4.778   7.895   6.132  0.3561  0.1620  0.4144
 2116SOL    HW113206   4.818   7.982   6.138 -0.7226  0.7343 -0.3429
 2116SOL    HW213207   4.784   7.872   6.039  0.4297 -0.4794  0.5731
 2117SOL     OW13208   7.998   8.722   1.409 -0.5459 -0.4304 -1.0669
 2117SOL    HW113209   8.051   8.695   1.483 -0.8872  0.6072 -0.4229
 2117SOL    HW213210   8.051   8.788   1.363 -1.5069  1.1564 -0.0030
 2118SOL     OW13211   6.394   1.033   3.661 -0.1663 -0.8239  0.3757
 2118SOL    HW113212   6.342   0.979   3.602  0.0871 -0.7511  0.0824
 2118SOL    HW213213   6.485   1.016   3.635 -0.0850 -0.2097  0.2377
 2119SOL     OW13214   8.036   7.714   1.529 -0.0627  0.3246 -0.4268
 2119SOL    HW113215   7.995   7.628   1.538 -1.1152  0.8677  0.1220
 2119SOL    HW213216   8.019   7.738   1.438  0.2651 -0.0646 -0.5919
 2120SOL     OW13217   0.145   8.565   7.638  0.6695 -0.2344 -0.2055
 2120SOL    HW113218   0.073   8.520   7.594  1.8840 -2.3577 -0.1996
 2120SOL    HW213219   0.111   8.587   7.724 -0.4300  0.1917 -0.7324
 2121SOL     OW13220   9.329   3.501   0.362 -0.2310 -0.1898  0.2672
 2121SOL    HW113221   9.418   3.486   0.331  0.0986  0.2978  0.9372
 2121SOL    HW213222   9.303   3.418   0.401  0.1072 -0.2066  0.4677
 2122SOL     OW13223  12.086   3.310   2.645 -0.0305 -0.4438 -0.5441
 2122SOL    HW113224  12.041   3.235   2.683  0.0780 -0.2233  0.0307
 2122SOL    HW213225  12.074   3.380   2.709 -2.0829  0.7134 -2.0495
 2123SOL     OW13226  10.246   9.767  12.557 -0.2178  0.3112  0.0226
 2123SOL    HW113227  10.269   9.721  12.638 -1.1661  2.3031  1.5233
 2123SOL    HW213228  10.168   9.817  12.579 -0.5942  0.8246 -2.1985
 2124SOL     OW13229  10.481   8.544   1.942 -0.1634  0.2525  0.3447
 2124SOL    HW113230  10.447   8.615   1.889  1.0779 -0.2278 -1.1685
 2124SOL    HW213231  10.465   8.465   1.891 -0.7054 -0.4810  1.5935
 2125SOL     OW13232   9.390   6.257   1.764  0.1965  1.0723 -0.3518
 2125SOL    HW113233   9.458   6.277   1.700 -0.3594  1.7036 -0.7559
 2125SOL    HW213234   9.324   6.326   1.752 -1.2277 -0.3538 -0.9881
 2126SOL     OW13235   3.735   5.300   4.595 -0.3028 -0.2922  0.3205
 2126SOL    HW113236   3.695   5.385   4.610  0.0148 -0.0962  0.0627
 2126SOL    HW213237   3.728   5.287   4.500  0.2515 -0.2507  0.2707
 2127SOL     OW13238   5.715   5.802   9.771  0.6203  0.1715  0.9100
 2127SOL    HW113239   5.645   5.845   9.821 -0.7906 -1.8753  0.7988
 2127SOL    HW213240   5.795   5.847   9.799 -0.5512  1.5877  2.1748
 2128SOL     OW13241   9.284   9.600  11.901  0.2173 -0.2832 -0.1611
 2128SOL    HW113242   9.306   9.666  11.835  0.0198  1.2055  1.1831
 2128SOL    HW213243   9.197   9.626  11.932  0.4540 -0.7193  0.9253
 2129SOL     OW13244  11.701   2.757   9.273 -0.2875  0.6211  0.2057
 2129SOL    HW113245  11.662   2.807   9.201  0.0190  1.0122  0.3073
 2129SOL    HW213246  11.631   2.699   9.302  0.1277 -0.8766 -1.6164
 2130SOL     OW13247   6.915   7.732   7.875  0.4549  0.5880 -0.0415
 2130SOL    HW113248   6.827   7.694   7.879  1.6488 -3.0680 -3.0614
 2130SOL    HW213249   6.905   7.810   7.821 -0.6421 -1.6061 -3.3451
 2131SOL     OW13250   2.198   0.421   7.445  0.9820  1.0041 -0.2089
 2131SOL    HW113251   2.228   0.361   7.514  0.2545  1.6704  0.7196
 2131SOL    HW213252   2.265   0.490   7.442  0.7956  1.2038  0.1472
 2132SOL     OW13253  11.254   8.988   6.963  0.3596 -0.1083 -0.0427
 2132SOL    HW113254  11.327   8.943   7.005 -0.4287 -0.0152  1.5280
 2132SOL    HW213255  11.192   9.005   7.035 -1.9190 -1.5667 -1.5294
 2133SOL     OW13256  10.190   2.271   9.852  0.1160  0.1391 -0.3541
 2133SOL    HW113257  10.152   2.240   9.934  2.1430 -0.0855  0.5597
 2133SOL    HW213258  10.116   2.310   9.805 -0.9225  1.4499  2.1306
 2134SOL     OW13259  10.428   8.547   4.097 -0.0024 -0.0817 -0.7266
 2134SOL    HW113260  10.430   8.580   4.007 -1.5252  0.7649 -0.4662
 2134SOL    HW213261  10.408   8.454   4.087  0.8769 -0.2228 -1.2991
 2135SOL     OW13262   2.487  10.232  10.736 -0.2951  0.2394  0.4929
 2135SOL    HW113263   2.423  10.298  10.763 -0.3059  0.2056  0.5508
 2135SOL    HW213264   2.462  10.209  10.647 -0.4439  0.1300  0.5614
 2136SOL     OW13265   8.896   7.684   1.270  0.4408 -0.3099 -0.2279
 2136SOL    HW113266   8.843   7.678   1.350  3.6004  0.9090  2.1280
 2136SOL    HW213267   8.881   7.600   1.226 -1.4972 -0.9972  1.5641
 2137SOL     OW13268   9.799   1.719   4.320  0.0480  0.0283  0.3523
 2137SOL    HW113269   9.704   1.729   4.325 -0.3475 -0.0682 -3.5064
 2137SOL    HW213270   9.813   1.627   4.300  0.9001  0.1200  0.4575
 2138SOL     OW13271   2.512   3.638   6.504  0.3436  0.1177 -0.1126
 2138SOL    HW113272   2.550   3.634   6.592 -0.1128  0.2718  0.0962
 2138SOL    HW213273   2.529   3.552   6.466 -0.1800 -0.2384  0.4333
 2139SOL     OW13274   5.022   1.512  10.692 -0.0324 -0.5450  0.1411
 2139SOL    HW113275   4.958   1.561  10.744 -0.4481  0.3602 -1.1459
 2139SOL    HW213276   5.101   1.512  10.745 -1.0782 -1.7285  1.7894
 2140SOL     OW13277   3.907   1.198   8.179  0.0346 -0.2652 -0.6363
 2140SOL    HW113278   3.939   1.286   8.161  2.7883 -1.0640 -0.0790
 2140SOL    HW213279   3.874   1.202   8.269  2.1715 -0.2641  0.1867
 2141SOL     OW13280   8.939   6.896   9.577 -0.4122 -0.0984  0.1666
 2141SOL    HW113281   8.885   6.904   9.499  0.1541 -0.5356 -0.2718
 2141SOL    HW213282   9.023   6.864   9.546  0.3394  1.2153  0.7492
 2142SOL     OW13283   4.655   1.276   5.525 -0.1301  0.3090  0.1680
 2142SOL    HW113284   4.584   1.303   5.583 -0.0162  1.2990 -0.1385
 2142SOL    HW213285   4.650   1.337   5.451  2.1684  1.5896  0.9860
 2143SOL     OW13286  11.672   8.848   9.063  0.3130 -0.0635  0.3002
 2143SOL    HW113287  11.699   8.919   9.005 -0.7692 -0.4774 -0.7309
 2143SOL    HW213288  11.738   8.779   9.049  0.1576 -0.0920 -0.3193
 2144SOL     OW13289   8.399   6.180   0.984 -0.6597  0.6421  0.0120
 2144SOL    HW113290   8.442   6.179   1.070  3.4200  0.1164 -1.7707
 2144SOL    HW213291   8.399   6.088   0.957 -0.8820  0.9276 -0.9898
 2145SOL     OW13292   6.042   8.629   7.530 -0.7420  0.1417 -0.6473
 2145SOL    HW113293   6.022   8.610   7.621 -0.6792 -0.0504 -0.6711
 2145SOL    HW213294   6.053   8.542   7.490  0.7362  0.2296 -0.5023
 2146SOL     OW13295   5.519   5.631   6.605 -0.0279  0.1779 -0.3334
 2146SOL    HW113296   5.489   5.642   6.695  0.9134  0.6061 -0.0528
 2146SOL    HW213297   5.556   5.543   6.603  1.1116  0.6181  0.0778
 2147SOL     OW13298   3.133   0.177   1.474 -0.1754  0.5175 -0.6502
 2147SOL    HW113299   3.227   0.183   1.453  0.5492  2.8570  2.4207
 2147SOL    HW213300   3.097   0.261   1.446 -0.8865  0.4584  0.0554
 2148SOL     OW13301   4.185   7.967   6.469 -0.6030 -0.3518  0.0542
 2148SOL    HW113302   4.104   8.004   6.501  0.1185  0.9447  0.4543
 2148SOL    HW213303   4.231   7.936   6.547 -0.4752 -0.6021 -0.1151
 2149SOL     OW13304   4.578   7.990  11.116 -0.2395  0.2604 -0.7342
 2149SOL    HW113305   4.492   8.033  11.115 -1.4070 -1.9196 -2.3573
 2149SOL    HW213306   4.581   7.947  11.201  0.5206  2.5628  0.4968
 2150SOL     OW13307   7.796   9.939   0.713 -0.0433  0.0523  0.4924
 2150SOL    HW113308   7.809   9.987   0.631  3.1733 -1.3962 -0.0067
 2150SOL    HW213309   7.738   9.867   0.690 -0.0672  0.2905 -0.2266
 2151SOL     OW13310   7.914   5.188   5.914  0.0634  0.4284 -0.4947
 2151SOL    HW113311   7.840   5.226   5.866 -2.9279 -1.3934  2.2760
 2151SOL    HW213312   7.916   5.096   5.888  0.2199  0.0699  0.7152
 2152SOL     OW13313  11.054   9.492   8.357  0.5619 -0.4744  0.1074
 2152SOL    HW113314  11.041   9.585   8.339 -0.0593 -0.7856 -1.1508
 2152SOL    HW213315  11.127   9.467   8.301 -0.6848 -1.2124 -1.2623
 2153SOL     OW13316   9.369   2.121   9.424  0.1981  0.2436  0.4516
 2153SOL    HW113317   9.416   2.154   9.348  0.1882  1.0141  0.7655
 2153SOL    HW213318   9.379   2.190   9.490 -2.2168  0.9328  0.2008
 2154SOL     OW13319   0.453   4.947   2.523 -0.3185  0.0977 -0.0657
 2154SOL    HW113320   0.509   4.885   2.569 -0.4890 -0.1047 -0.1275
 2154SOL    HW213321   0.479   5.033   2.556  1.1042  0.1448 -1.2361
 2155SOL     OW13322   3.361   2.972   5.156  0.2747  0.1082  0.4760
 2155SOL    HW113323   3.317   2.956   5.072 -0.7685 -2.9531  1.4645
 2155SOL    HW213324   3.306   3.037   5.199 -0.2343  0.3216 -0.4594
 2156SOL     OW13325   3.593   1.701   2.716  0.6933  0.4011  0.4403
 2156SOL    HW113326   3.535   1.727   2.645  2.2856  1.4693 -0.5419
 2156SOL    HW213327   3.545   1.633   2.763 -0.8674  0.4670 -0.9741
 2157SOL     OW13328   5.385   1.972   2.982  0.0756 -0.7245 -0.0472
 2157SOL    HW113329   5.463   2.019   2.951 -0.1677  0.1989  0.6762
 2157SOL    HW213330   5.312   2.022   2.947 -0.1957 -0.1351  1.2951
 2158SOL     OW13331  11.527  11.793   0.126 -0.6045  0.0912 -0.1899
 2158SOL    HW113332  11.524  11.840   0.209 -1.0472  1.2729 -0.8423
 2158SOL    HW213333  11.602  11.734   0.134 -0.8770 -0.0961  1.1802
 2159SOL     OW13334   8.360   0.354   2.824  0.1486  0.0281 -0.2833
 2159SOL    HW113335   8.415   0.303   2.764  0.0370  0.7119 -0.9769
 2159SOL    HW213336   8.422   0.404   2.876  0.2709 -0.9720  0.5661
 2160SOL     OW13337   0.374   9.411  11.302  0.4428  0.5030  1.0327
 2160SOL    HW113338   0.363   9.494  11.257 -0.5055 -0.4234 -0.5300
 2160SOL    HW213339   0.434   9.361  11.247 -0.3832 -0.4833  0.9944
 2161SOL     OW13340  11.446   7.884   9.483  0.2013  0.0954  0.5023
 2161SOL    HW113341  11.426   7.919   9.396  1.1935 -0.8454 -0.1232
 2161SOL    HW213342  11.456   7.790   9.470 -3.5230 -0.7658  2.3280
 2162SOL     OW13343   2.781   9.158   2.596 -0.2365 -0.0538  0.1509
 2162SOL    HW113344   2.857   9.146   2.653  2.1533  2.6722 -2.1655
 2162SOL    HW213345   2.818   9.186   2.513 -3.7526 -0.5480 -1.7530
 2163SOL     OW13346   2.861   7.954   1.683  0.5162 -0.0976  0.0593
 2163SOL    HW113347   2.895   7.984   1.599  0.7386  0.4375  0.3344
 2163SOL    HW213348   2.932   7.904   1.722  1.1488  1.3226  0.7926
 2164SOL     OW13349   5.537   2.265   9.827  0.0704 -0.1576 -0.3692
 2164SOL    HW113350   5.543   2.356   9.855 -0.8351  0.0208 -0.7344
 2164SOL    HW213351   5.541   2.268   9.731 -1.3812 -0.3646 -0.4550
 2165SOL     OW13352   8.070   4.834   2.320 -0.0045 -0.3286 -0.4272
 2165SOL    HW113353   8.112   4.783   2.251  1.6785 -1.6741  1.4786
 2165SOL    HW213354   8.140   4.888   2.356 -0.1771 -1.4390  1.7675
 2166SOL     OW13355   6.019   8.628   4.371 -0.2406 -0.0404 -0.2707
 2166SOL    HW113356   5.979   8.575   4.440 -0.5568 -0.3786 -0.7036
 2166SOL    HW213357   6.035   8.713   4.412 -0.0751 -0.3557  0.3229
 2167SOL     OW13358   0.638   5.616   0.179  0.1012 -0.9274 -0.2673
 2167SOL    HW113359   0.603   5.643   0.263  0.1959 -0.2408 -0.4432
 2167SOL    HW213360   0.566   5.569   0.137 -0.8133  0.8682 -0.8174
 2168SOL     OW13361  11.830   7.504   8.339  0.2672 -0.2914 -0.1894
 2168SOL    HW113362  11.884   7.579   8.311 -1.0878  0.3475 -1.2000
 2168SOL    HW213363  11.768   7.491   8.267 -1.7127 -0.2166  1.4096
 2169SOL     OW13364   6.779   9.295   7.157 -0.4413  0.8911 -0.7580
 2169SOL    HW113365   6.693   9.312   7.119 -0.5232 -0.6947 -1.3432
 2169SOL    HW213366   6.792   9.201   7.146  0.6718  0.8264  0.7971
 2170SOL     OW13367   9.214   4.760   3.866 -0.0904  0.1542 -0.0094
 2170SOL    HW113368   9.156   4.789   3.796  0.4823 -1.4451 -1.1961
 2170SOL    HW213369   9.157   4.743   3.940 -0.9479 -0.0268 -0.7048
 2171SOL     OW13370  10.195   0.778   5.180 -0.0468  0.5215 -0.1899
 2171SOL    HW113371  10.109   0.766   5.140 -0.6548 -1.0376  1.4637
 2171SOL    HW213372  10.250   0.711   5.139  0.1416  0.8797 -0.5358
 2172SOL     OW13373   8.184   3.737   1.929  0.6994 -0.2531 -0.9933
 2172SOL    HW113374   8.205   3.760   2.020 -1.3914 -1.0150 -0.2780
 2172SOL    HW213375   8.090   3.753   1.921  0.8351 -0.2423 -3.0300
 2173SOL     OW13376   8.758  10.026   8.934 -0.0800  0.1441 -0.0203
 2173SOL    HW113377   8.803  10.050   9.015  2.5353  0.8302 -1.5386
 2173SOL    HW213378   8.777   9.933   8.923  0.6974  0.3457 -0.4654
 2174SOL     OW13379  11.064  10.355  11.952 -0.4599 -0.0535 -0.0419
 2174SOL    HW113380  11.000  10.340  11.882 -1.1597 -0.7248  0.7179
 2174SOL    HW213381  11.060  10.276  12.005  1.1795 -0.1957 -0.0980
 2175SOL     OW13382   2.437   5.941   8.753 -0.6266 -0.4618 -0.6345
 2175SOL    HW113383   2.450   5.848   8.736 -1.0833 -0.2128 -2.5191
 2175SOL    HW213384   2.369   5.943   8.821 -1.3783 -1.5089 -1.3082
 2176SOL     OW13385   5.820   9.459   9.635 -0.9955  0.3792 -0.0427
 2176SOL    HW113386   5.775   9.453   9.550  0.3250 -0.2274 -0.7243
 2176SOL    HW213387   5.912   9.448   9.614 -0.6524  0.0907  1.5042
 2177SOL     OW13388   2.205   7.114  10.138  0.0990 -0.3229 -0.2246
 2177SOL    HW113389   2.194   7.125  10.232 -0.0763 -0.1035 -0.2694
 2177SOL    HW213390   2.162   7.191  10.100  0.6635 -0.1179 -0.4594
 2178SOL     OW13391   5.163   1.187   9.844  0.0816  0.4343  0.4278
 2178SOL    HW113392   5.226   1.115   9.838  1.2383  1.5459 -2.7705
 2178SOL    HW213393   5.082   1.146   9.873  1.0652 -1.8912  0.1129
 2179SOL     OW13394   7.477   9.734  12.022  0.5147  0.1453  0.2117
 2179SOL    HW113395   7.410   9.785  12.068 -0.0789  0.9793 -1.5058
 2179SOL    HW213396   7.486   9.654  12.074 -0.6541  0.7207  1.3479
 2180SOL     OW13397   3.186   4.653   9.358  0.2717 -0.0638 -0.5751
 2180SOL    HW113398   3.259   4.605   9.396  1.5063  1.4364 -0.9426
 2180SOL    HW213399   3.110   4.598   9.374  1.3225 -1.1991  0.7431
 2181SOL     OW13400   1.186   4.457   3.342 -0.1738 -0.2934  0.1099
 2181SOL    HW113401   1.246   4.518   3.300 -0.0123  1.6539  2.8866
 2181SOL    HW213402   1.114   4.448   3.280  0.0229  2.4101 -0.6331
 2182SOL     OW13403  12.279   5.473   5.238  0.3751 -0.0221  0.3618
 2182SOL    HW113404  12.331   5.397   5.210 -0.0011 -0.3428  0.5215
 2182SOL    HW213405  12.234   5.443   5.317 -2.6500 -0.9005 -1.5639
 2183SOL     OW13406   4.108   4.349   5.607 -0.6671  0.1662  0.6083
 2183SOL    HW113407   4.087   4.289   5.678 -0.6226  0.4165  0.8347
 2183SOL    HW213408   4.081   4.435   5.639 -0.5999  0.2880  0.3435
 2184SOL     OW13409   8.240   5.834   4.591 -0.0295  0.2032 -0.1382
 2184SOL    HW113410   8.166   5.822   4.532 -0.4292 -0.0274  0.4060
 2184SOL    HW213411   8.232   5.764   4.655 -0.2221  1.0836  0.8276
 2185SOL     OW13412   0.290   2.917   0.880  0.0665 -0.0264 -0.5700
 2185SOL    HW113413   0.273   2.892   0.789 -1.5006  0.7087 -0.5257
 2185SOL    HW213414   0.234   2.993   0.894  0.2878 -0.1218  1.0178
 2186SOL     OW13415   1.688   7.114   2.809  0.5459  0.3182  0.1295
 2186SOL    HW113416   1.729   7.103   2.895  1.9649  0.4748 -0.4870
 2186SOL    HW213417   1.606   7.066   2.815  1.4732 -1.2597  1.0046
 2187SOL     OW13418   0.005   9.643   1.466 -0.2798 -0.6947  0.3811
 2187SOL    HW113419  -0.090   9.646   1.451 -0.1306 -1.5027 -0.8455
 2187SOL    HW213420   0.037   9.577   1.405  1.0615 -0.5546  0.9007
 2188SOL     OW13421   0.245   7.603   8.319  0.2577  0.1269 -0.5405
 2188SOL    HW113422   0.151   7.607   8.330  0.1018 -0.5150 -1.4780
 2188SOL    HW213423   0.272   7.694   8.307 -0.0793  0.4264  0.7929
 2189SOL     OW13424   7.736   7.668   1.539  0.1583  0.2019  0.1587
 2189SOL    HW113425   7.800   7.735   1.565 -0.0849  0.1361  0.9444
 2189SOL    HW213426   7.743   7.601   1.606 -1.6722  0.8182  1.0297
 2190SOL     OW13427  12.311   1.786   8.042  0.4256  0.4246  0.2587
 2190SOL    HW113428  12.277   1.755   7.958  0.5597 -1.5236  0.8684
 2190SOL    HW213429  12.234   1.819   8.088 -0.3304 -1.7331  0.6832
 2191SOL     OW13430   9.579   5.519  11.293  0.4792 -0.7523  0.4388
 2191SOL    HW113431   9.661   5.480  11.326  2.3076  0.0359 -2.7591
 2191SOL    HW213432   9.606   5.603  11.256 -1.7911 -0.4718 -0.7538
 2192SOL     OW13433   4.651   0.071  10.816 -0.5154 -0.2123 -0.1777
 2192SOL    HW113434   4.724   0.012  10.840  1.2227  0.7713 -2.6230
 2192SOL    HW213435   4.656   0.142  10.880  1.7219  0.5799 -1.1117
 2193SOL     OW13436   0.368   0.845   4.659 -0.0843 -0.5687 -0.0799
 2193SOL    HW113437   0.371   0.891   4.575  1.3538 -0.0372  0.2304
 2193SOL    HW213438   0.295   0.886   4.706 -1.1942 -1.1709 -1.2019
 2194SOL     OW13439  11.162   4.652   9.362 -0.1860 -0.1605  0.3671
 2194SOL    HW113440  11.154   4.606   9.279 -1.4987  2.8383 -1.3171
 2194SOL    HW213441  11.076   4.693   9.375  1.0409  2.3076  1.3521
 2195SOL     OW13442   9.867   8.319   4.349 -0.4898  0.3745  0.2689
 2195SOL    HW113443   9.821   8.316   4.266  0.0327 -0.1870  0.0002
 2195SOL    HW213444   9.851   8.234   4.389 -1.5084  0.9565  1.1746
 2196SOL     OW13445   9.136  10.226  10.920  0.3102 -0.0618  0.8120
 2196SOL    HW113446   9.227  10.200  10.903 -0.2125 -2.2781  1.0958
 2196SOL    HW213447   9.135  10.251  11.012  0.6757  0.1940  0.7489
 2197SOL     OW13448   8.771   0.421   4.315  0.7140 -0.5169  0.3614
 2197SOL    HW113449   8.684   0.385   4.294  1.2384 -1.5987 -0.0290
 2197SOL    HW213450   8.779   0.498   4.259  0.0112 -0.4128  0.3933
 2198SOL     OW13451   5.920   1.227   6.856  0.0766 -0.5206 -0.0253
 2198SOL    HW113452   6.001   1.266   6.890 -0.1043 -1.5808  1.7316
 2198SOL    HW213453   5.853   1.294   6.870  0.3560 -0.2441  0.0025
 2199SOL     OW13454   6.465   0.094   0.224  0.0938  0.1854 -0.7080
 2199SOL    HW113455   6.389   0.050   0.261 -0.8649  1.4625 -1.0738
 2199SOL    HW213456   6.529   0.095   0.295 -0.2850 -0.7455 -0.3327
 2200SOL     OW13457   6.013   1.999   0.168 -0.1683 -0.4527 -0.1563
 2200SOL    HW113458   5.920   2.002   0.193  0.3571  1.5253  1.9073
 2200SOL    HW213459   6.042   1.912   0.193 -1.1250 -0.5544  0.6599
 2201SOL     OW13460   1.902  11.342   5.229 -0.0026  0.6653 -0.0276
 2201SOL    HW113461   1.890  11.422   5.177  1.9416 -0.1306 -1.8663
 2201SOL    HW213462   1.992  11.346   5.260  0.2387 -0.8957 -0.4029
 2202SOL     OW13463  12.304   9.182   2.959 -0.2920  0.3417  0.0704
 2202SOL    HW113464  12.337   9.100   2.994 -0.3988  0.5490  0.6725
 2202SOL    HW213465  12.364   9.249   2.991  0.9099  0.3263 -1.9646
 2203SOL     OW13466   7.688   5.983  11.169 -0.7690  0.0317 -0.0454
 2203SOL    HW113467   7.783   5.985  11.158 -0.8851  0.9071 -1.0466
 2203SOL    HW213468   7.670   5.896  11.202  0.4069 -0.0725  0.3825
 2204SOL     OW13469   5.286   6.483   1.914  0.0215  0.2199  0.0277
 2204SOL    HW113470   5.204   6.436   1.901  0.6399 -1.3545  1.4388
 2204SOL    HW213471   5.277   6.522   2.001  1.9999 -2.9223  1.8396
 2205SOL     OW13472   0.240  11.361   1.432  0.4268 -0.8354 -0.2110
 2205SOL    HW113473   0.174  11.426   1.457  2.7683  1.1589  1.3055
 2205SOL    HW213474   0.253  11.374   1.338 -0.9566 -0.9497 -0.4396
 2206SOL     OW13475   3.751   4.271   1.686  0.1052  0.0189  0.1656
 2206SOL    HW113476   3.728   4.292   1.595  0.9028  2.4923  0.4416
 2206SOL    HW213477   3.778   4.180   1.684  0.3519  0.0877 -2.1407
 2207SOL     OW13478   3.893  11.862  11.932  0.1347  0.0432 -0.7106
 2207SOL    HW113479   3.798  11.868  11.923  0.1355 -0.0101 -0.7543
 2207SOL    HW213480   3.907  11.851  12.026  0.0508 -0.7806 -0.7864
 2208SOL     OW13481   1.393   0.621  12.160 -0.2605  0.5207 -0.0152
 2208SOL    HW113482   1.440   0.698  12.128 -1.8299  1.1784 -0.8513
 2208SOL    HW213483   1.341   0.592  12.085  1.9683 -2.7869 -0.4647
 2209SOL     OW13484   9.431   3.230   3.219  0.2086 -0.0511 -0.3819
 2209SOL    HW113485   9.501   3.292   3.238 -0.5790  0.3880  1.3613
 2209SOL    HW213486   9.354   3.285   3.205 -0.3540 -0.5886  0.4999
 2210SOL     OW13487  11.077   3.013   2.832 -0.0048  0.2233  0.3137
 2210SOL    HW113488  11.044   2.996   2.920  1.0236  0.5456  0.7773
 2210SOL    HW213489  11.001   3.002   2.775 -0.5079 -0.7821  1.1494
 2211SOL     OW13490  12.535   9.172   4.269  0.0514  0.7032  0.1396
 2211SOL    HW113491  12.498   9.257   4.245  0.2680  1.0323  0.9501
 2211SOL    HW213492  12.617   9.193   4.313  1.6287 -0.0315 -2.2547
 2212SOL     OW13493   5.992   9.157  10.665 -0.0749  0.3634 -0.1869
 2212SOL    HW113494   5.982   9.131  10.757  1.3181 -1.6030 -0.5313
 2212SOL    HW213495   6.086   9.157  10.650 -0.3117 -1.0576 -2.0487
 2213SOL     OW13496   6.023   8.158  12.195  0.4105  0.3122  0.3115
 2213SOL    HW113497   6.059   8.084  12.145  2.1699 -0.7640  2.9221
 2213SOL    HW213498   6.009   8.226  12.130  1.5198 -1.3365 -1.7950
 2214SOL     OW13499   9.930   3.456   7.464 -0.7253 -0.2282  0.4455
 2214SOL    HW113500   9.933   3.404   7.384 -0.8640  0.1870  0.1678
 2214SOL    HW213501   9.989   3.530   7.447  0.6499 -1.0689  1.3974
 2215SOL     OW13502   8.376   7.854   1.205 -0.4615  0.3133 -0.0234
 2215SOL    HW113503   8.351   7.826   1.293 -1.9288  0.8383 -0.2497
 2215SOL    HW213504   8.471   7.852   1.206 -0.4527 -1.4672  0.9965
 2216SOL     OW13505   5.959   3.470   6.512  0.1708  0.5412  0.1442
 2216SOL    HW113506   5.941   3.385   6.473 -3.2304  1.4104 -0.4922
 2216SOL    HW213507   6.023   3.510   6.454 -0.4280 -0.4345 -1.2355
 2217SOL     OW13508   5.749   9.729   3.175 -0.4405  0.4739 -0.3774
 2217SOL    HW113509   5.805   9.790   3.221  0.4996 -0.1012 -0.7242
 2217SOL    HW213510   5.680   9.706   3.238  0.7185 -0.1760  0.6974
 2218SOL     OW13511   8.683   8.045   2.703  0.1440 -0.3138 -0.6308
 2218SOL    HW113512   8.725   7.973   2.750  1.7339  0.3133 -1.0354
 2218SOL    HW213513   8.697   8.025   2.611  0.2233  0.2921 -0.7559
 2219SOL     OW13514  10.752  11.341  11.650 -0.4213 -0.2537  0.2516
 2219SOL    HW113515  10.835  11.298  11.672 -1.8652 -2.3416  1.9894
 2219SOL    HW213516  10.770  11.434  11.662  1.7005 -0.6389  0.4719
 2220SOL     OW13517   1.954  10.983   0.580  0.0156 -0.0057 -0.5647
 2220SOL    HW113518   2.023  10.919   0.558  1.2727  1.1378 -0.0684
 2220SOL    HW213519   1.915  11.006   0.495 -0.0493 -0.9677 -0.8096
 2221SOL     OW13520   2.600   5.528  11.334 -0.0596  0.0909  0.2003
 2221SOL    HW113521   2.526   5.529  11.273 -0.1696 -0.5004  0.3214
 2221SOL    HW213522   2.628   5.619  11.338 -0.2438  0.1885 -0.5005
 2222SOL     OW13523   3.901   0.302   4.772  0.2596  0.0225  0.2065
 2222SOL    HW113524   3.835   0.302   4.841  1.0385  0.3427  0.9664
 2222SOL    HW213525   3.963   0.233   4.798  0.2064 -0.3039 -0.5146
 2223SOL     OW13526   4.898   6.387   0.804 -0.2531 -0.1120 -0.1338
 2223SOL    HW113527   4.861   6.323   0.743  0.9874 -1.2413  0.2538
 2223SOL    HW213528   4.983   6.350   0.830  1.8380  2.9263 -1.9824
 2224SOL     OW13529   5.614   0.360  10.967 -0.6944  0.2225 -0.3262
 2224SOL    HW113530   5.574   0.376  10.881 -0.8822  2.4338  0.1089
 2224SOL    HW213531   5.587   0.435  11.020  0.1899 -0.6253  1.3994
 2225SOL     OW13532   8.678   0.848   9.766  0.2554  0.0893 -0.6122
 2225SOL    HW113533   8.655   0.871   9.856  1.6839  1.3126 -0.5083
 2225SOL    HW213534   8.639   0.916   9.713 -1.8711 -1.4475 -1.1285
 2226SOL     OW13535  12.187   2.784  10.599 -0.1590 -0.4684 -0.0899
 2226SOL    HW113536  12.265   2.735  10.571 -0.0303 -0.2862 -0.0551
 2226SOL    HW213537  12.221   2.871  10.621 -0.4035 -0.3281 -0.2663
 2227SOL     OW13538   0.022   6.832   4.935 -0.4095 -0.4617 -0.2296
 2227SOL    HW113539   0.017   6.836   4.840  2.0661 -0.1852 -0.4164
 2227SOL    HW213540  -0.035   6.759   4.959  0.6284 -1.9857 -2.1214
 2228SOL     OW13541   4.036   9.574   6.440  0.0645 -0.1338  0.0141
 2228SOL    HW113542   3.964   9.617   6.393 -0.7407 -0.5429  0.8306
 2228SOL    HW213543   4.114   9.622   6.413 -0.5834  0.6750 -0.4885
 2229SOL     OW13544   3.407   2.251   7.283  0.0170  0.0379  0.4887
 2229SOL    HW113545   3.426   2.316   7.215 -2.7114 -0.2849 -0.7140
 2229SOL    HW213546   3.380   2.304   7.358 -0.4115  0.3462  0.1257
 2230SOL     OW13547   6.675   7.197   3.440 -0.3866 -0.5244  0.2626
 2230SOL    HW113548   6.609   7.179   3.372 -2.7031 -1.7869  2.6416
 2230SOL    HW213549   6.634   7.262   3.496  0.6446 -0.9315  1.5218
 2231SOL     OW13550   6.722   6.515   9.076 -0.2271  0.3638  0.1455
 2231SOL    HW113551   6.809   6.477   9.089 -0.2684 -0.0312 -0.7097
 2231SOL    HW213552   6.669   6.444   9.042 -0.7985  0.6990  0.3185
 2232SOL     OW13553   6.061   9.578   5.891 -0.0524  1.0142 -0.2193
 2232SOL    HW113554   6.153   9.578   5.864 -0.7269 -0.3397 -2.8065
 2232SOL    HW213555   6.032   9.668   5.877  0.1924  0.8255 -2.1890
 2233SOL     OW13556   5.244   3.886   7.207  0.4297 -0.3152 -0.1314
 2233SOL    HW113557   5.333   3.920   7.206  0.7012 -1.0154 -1.0478
 2233SOL    HW213558   5.228   3.864   7.299  1.1908 -0.1490  0.0419
 2234SOL     OW13559   2.240   0.608   3.816 -0.0417 -0.1176 -0.0439
 2234SOL    HW113560   2.320   0.600   3.867  0.8053 -0.0052 -1.3160
 2234SOL    HW213561   2.261   0.568   3.732 -1.0013  0.7744 -0.7285
 2235SOL     OW13562   6.336   8.144   5.513  0.0398  0.1018 -0.1722
 2235SOL    HW113563   6.251   8.178   5.484  0.2540 -0.0954 -1.0622
 2235SOL    HW213564   6.370   8.210   5.573 -0.0915  0.8884 -0.9480
 2236SOL     OW13565   8.612   7.655   8.466  0.5000 -0.3642  0.9636
 2236SOL    HW113566   8.520   7.630   8.472  0.6718 -1.4246 -0.3250
 2236SOL    HW213567   8.642   7.615   8.384  1.4932  1.9389  0.1115
 2237SOL     OW13568   4.478   5.073  11.804  0.6223  0.0169  0.2786
 2237SOL    HW113569   4.467   5.127  11.882  2.9582  1.0270  0.0067
 2237SOL    HW213570   4.410   5.104  11.743 -0.6928 -0.2275  1.5814
 2238SOL     OW13571  11.936   9.416   7.956  0.4706 -0.4596 -0.0406
 2238SOL    HW113572  11.972   9.394   7.870 -0.6444  0.8571 -0.8806
 2238SOL    HW213573  11.975   9.500   7.978 -2.2866  1.2597 -1.2010
 2239SOL     OW13574   7.452  12.078   9.738 -0.2268  0.2556 -0.1267
 2239SOL    HW113575   7.518  12.135   9.777  1.4025 -1.8689  0.3848
 2239SOL    HW213576   7.436  12.011   9.804 -2.0391  0.0475 -0.7264
 2240SOL     OW13577   6.505  12.282   5.232 -0.3292 -0.1270 -0.1822
 2240SOL    HW113578   6.485  12.363   5.279  0.2324  0.9777 -1.7326
 2240SOL    HW213579   6.420  12.245   5.211 -0.6553  1.0021 -0.9583
 2241SOL     OW13580   6.220   1.181   9.184 -0.1806 -0.2611  0.3048
 2241SOL    HW113581   6.285   1.150   9.246 -0.4165 -2.4809 -0.4744
 2241SOL    HW213582   6.159   1.233   9.236  0.2341 -1.1482  1.7167
 2242SOL     OW13583   0.768   0.241  12.323  0.0089  0.8281 -0.2654
 2242SOL    HW113584   0.846   0.194  12.293  0.7088  2.1310 -0.5671
 2242SOL    HW213585   0.793   0.333  12.318 -1.5591  1.2665 -0.3517
 2243SOL     OW13586   7.140  11.105  12.109 -0.0237  0.1562 -0.4078
 2243SOL    HW113587   7.087  11.117  12.031 -0.8238 -1.5018 -0.1736
 2243SOL    HW213588   7.230  11.120  12.080 -0.4117  0.7772 -1.3403
 2244SOL     OW13589   8.808  11.577  10.764  0.0181 -0.8541  0.2215
 2244SOL    HW113590   8.861  11.596  10.686 -0.3495 -2.6147 -0.5077
 2244SOL    HW213591   8.722  11.554  10.729 -0.5578 -0.3018  1.2499
 2245SOL     OW13592   0.611   6.788   5.955 -0.2009 -0.7428  0.2296
 2245SOL    HW113593   0.554   6.723   5.912 -2.5004  0.3891  1.3991
 2245SOL    HW213594   0.654   6.740   6.025 -0.8487 -1.3272  0.2376
 2246SOL     OW13595   0.211  10.685  12.010 -0.4854  0.1413  0.1115
 2246SOL    HW113596   0.169  10.763  11.974  0.4091  0.4723 -0.2197
 2246SOL    HW213597   0.142  10.619  12.009 -1.6554  1.2538  1.5806
 2247SOL     OW13598   0.623   3.637   8.523  0.4946 -0.1218 -0.0662
 2247SOL    HW113599   0.679   3.627   8.445  0.5165  1.5380 -0.2873
 2247SOL    HW213600   0.544   3.680   8.491  1.4330  2.7209  1.1509
 2248SOL     OW13601  10.272   8.399   5.779  0.2026  0.1637  0.2639
 2248SOL    HW113602  10.316   8.438   5.854 -0.1349  1.2255 -0.0669
 2248SOL    HW213603  10.332   8.413   5.706  1.1701 -2.1120  0.5461
 2249SOL     OW13604   4.250   4.322   9.901 -0.4432 -0.3656  0.0155
 2249SOL    HW113605   4.266   4.415   9.888  0.6879 -0.3421  1.3457
 2249SOL    HW213606   4.235   4.313   9.995  1.0182 -1.7001  0.1707
 2250SOL     OW13607   4.144   7.254  12.294 -0.1894 -0.0899 -0.6649
 2250SOL    HW113608   4.107   7.183  12.345 -3.7333  1.2797 -1.0541
 2250SOL    HW213609   4.232   7.224  12.270  0.1711 -2.3759  2.8574
 2251SOL     OW13610   3.933   5.131  12.014  0.1242  0.0555  0.2870
 2251SOL    HW113611   3.978   5.104  11.934 -0.7774  0.6288 -0.4376
 2251SOL    HW213612   3.996   5.115  12.084  0.4641 -1.7282 -0.3704
 2252SOL     OW13613   7.462   1.100   0.064  0.5388  0.3079 -0.5828
 2252SOL    HW113614   7.471   1.109  -0.031  0.5038  0.3295 -0.5844
 2252SOL    HW213615   7.436   1.008   0.077  1.1059  0.1463 -0.5560
 2253SOL     OW13616   3.103   0.992   4.777 -0.3165  0.2821  0.1879
 2253SOL    HW113617   3.025   1.047   4.786 -0.5899  0.2125 -1.4870
 2253SOL    HW213618   3.160   1.040   4.717 -0.0109 -0.6865 -0.3103
 2254SOL     OW13619   5.085   3.091   6.539  0.0571 -0.3682 -0.2949
 2254SOL    HW113620   5.092   3.061   6.630  0.2571 -0.4927 -0.3506
 2254SOL    HW213621   5.098   3.186   6.544  1.0775 -0.4968 -0.3053
 2255SOL     OW13622  12.197   0.099   0.382  0.0757  0.2636  0.3467
 2255SOL    HW113623  12.225   0.160   0.449 -0.4514 -0.6977  1.4785
 2255SOL    HW213624  12.127   0.144   0.335  2.0887  1.9204 -1.2424
 2256SOL     OW13625   5.216  11.659   6.131  0.2957 -0.3462  0.3381
 2256SOL    HW113626   5.170  11.711   6.065  1.0729 -0.8878 -0.6648
 2256SOL    HW213627   5.149  11.636   6.196  0.1184  2.8288  1.4505
 2257SOL     OW13628  10.710   6.530   5.922  0.3650  0.0360 -0.3294
 2257SOL    HW113629  10.697   6.601   5.859  1.0530 -0.8621 -1.5496
 2257SOL    HW213630  10.717   6.573   6.007 -1.3850  1.2304 -0.7435
 2258SOL     OW13631   5.630   0.484   8.991 -0.0382 -0.2183 -0.1684
 2258SOL    HW113632   5.551   0.442   8.958 -0.9428 -0.4730  2.1105
 2258SOL    HW213633   5.641   0.561   8.936 -2.0916  0.0166 -0.3160
 2259SOL     OW13634   9.439   1.181  12.320  0.4284  0.2341 -0.5228
 2259SOL    HW113635   9.464   1.130  12.243  1.6186  0.6188 -0.4048
 2259SOL    HW213636   9.369   1.238  12.288 -0.3459 -0.8658 -0.8612
 2260SOL     OW13637   3.467   6.551   3.615 -0.5017  0.0432 -0.3295
 2260SOL    HW113638   3.490   6.558   3.708 -1.0108 -0.9028 -0.1253
 2260SOL    HW213639   3.551   6.556   3.570 -0.2604  0.6352  0.1717
 2261SOL     OW13640   1.001  11.429   4.076  0.2751  0.5731 -0.1691
 2261SOL    HW113641   1.096  11.434   4.064  0.2398  0.9212 -0.3508
 2261SOL    HW213642   0.983  11.338   4.100  0.7627  0.7430  0.8862
 2262SOL     OW13643   8.482  10.570  10.156 -0.0180  0.2852 -0.0477
 2262SOL    HW113644   8.469  10.557  10.250 -0.0703  0.1494 -0.0730
 2262SOL    HW213645   8.397  10.546  10.117  0.3588 -0.8158 -0.2330
 2263SOL     OW13646   8.802   2.409   7.598  0.3950  0.1731  0.3747
 2263SOL    HW113647   8.874   2.371   7.547  0.5517 -1.5249  1.7648
 2263SOL    HW213648   8.811   2.370   7.685 -1.4030  0.9835  0.9677
 2264SOL     OW13649  10.696   5.395   8.525 -0.3780  0.5008  0.2444
 2264SOL    HW113650  10.663   5.418   8.438 -1.1590 -2.2774 -0.2942
 2264SOL    HW213651  10.787   5.424   8.525  0.3894 -1.5862 -2.4764
 2265SOL     OW13652   0.786   9.627   6.791 -0.4591 -0.1928  0.0059
 2265SOL    HW113653   0.758   9.579   6.713  1.4209  1.0190 -1.5125
 2265SOL    HW213654   0.732   9.706   6.791  1.2679  1.0791 -1.6619
 2266SOL     OW13655   1.092   6.381  11.545  0.6951  0.0205 -0.5134
 2266SOL    HW113656   1.184   6.391  11.568  0.3479  0.7837  0.5649
 2266SOL    HW213657   1.067   6.464  11.506  0.5954 -0.3799 -1.3348
 2267SOL     OW13658   8.175   8.334   0.869  0.0054 -0.2964  0.3716
 2267SOL    HW113659   8.082   8.319   0.853 -0.0286 -0.1161  0.4046
 2267SOL    HW213660   8.197   8.407   0.811  0.3090 -0.8587 -0.2418
 2268SOL     OW13661   6.551   9.661   5.894  0.1933  0.4023 -0.2376
 2268SOL    HW113662   6.632   9.614   5.872  1.5125  1.5062  1.9123
 2268SOL    HW213663   6.523   9.622   5.977 -1.6177 -0.0622 -1.0298
 2269SOL     OW13664  12.263   1.933   8.636  0.2981  0.3202 -0.3070
 2269SOL    HW113665  12.311   1.953   8.555 -1.2559 -0.1678 -1.4130
 2269SOL    HW213666  12.223   2.016   8.661  1.1954  0.5925  0.2889
 2270SOL     OW13667   5.297   8.600   4.453  0.1339 -0.4576 -0.1672
 2270SOL    HW113668   5.277   8.693   4.444  0.6433 -0.2009  1.1990
 2270SOL    HW213669   5.343   8.578   4.371  1.1373  0.8049  0.0298
 2271SOL     OW13670  11.290   2.373   8.993 -0.0216  0.2303  0.0682
 2271SOL    HW113671  11.297   2.332   8.907 -2.4529 -0.4855  0.1411
 2271SOL    HW213672  11.255   2.304   9.050  1.6794  0.6341  1.7331
 2272SOL     OW13673  11.654  10.074   4.701 -0.9108  0.9975  0.0042
 2272SOL    HW113674  11.684  10.007   4.639 -1.3522  1.2932 -0.5416
 2272SOL    HW213675  11.589  10.124   4.652  0.8402  3.1182 -0.3376
 2273SOL     OW13676   8.434  10.665   8.819 -0.7030 -0.0433  0.3175
 2273SOL    HW113677   8.400  10.619   8.896 -2.5446  1.5149  0.5094
 2273SOL    HW213678   8.497  10.604   8.781 -0.7265 -1.4029  2.2951
 2274SOL     OW13679   0.198   5.142  11.729  0.1804  0.4003 -0.0144
 2274SOL    HW113680   0.168   5.100  11.811  1.2601  0.9425  0.6767
 2274SOL    HW213681   0.130   5.206  11.709  0.5979  1.3061  1.2970
 2275SOL     OW13682   3.382  11.544   1.249  0.4029  0.2601  0.3090
 2275SOL    HW113683   3.352  11.631   1.225  1.5225  0.7866  0.7603
 2275SOL    HW213684   3.476  11.545   1.232  0.3331 -1.0592 -0.2531
 2276SOL     OW13685   5.052  12.327   2.644 -0.4617 -0.0362  0.4625
 2276SOL    HW113686   4.984  12.296   2.704  1.0783 -0.3501  2.1393
 2276SOL    HW213687   5.005  12.378   2.578 -2.1077  2.0355  3.0312
 2277SOL     OW13688  12.519   5.120   9.053 -0.7406 -0.1257 -0.3331
 2277SOL    HW113689  12.488   5.130   8.963  0.6356  1.0679 -0.7073
 2277SOL    HW213690  12.519   5.208   9.089  0.6100 -0.3045  0.1827
 2278SOL     OW13691  12.178   4.944   6.871 -0.5845  0.2825  0.3409
 2278SOL    HW113692  12.252   4.937   6.932  0.4001  0.7940 -0.7566
 2278SOL    HW213693  12.212   4.994   6.797 -1.9489  0.2579 -0.3433
 2279SOL     OW13694  12.277   3.440   0.794 -0.0200 -0.1387 -0.2284
 2279SOL    HW113695  12.275   3.485   0.878 -2.0816 -2.5309  1.1365
 2279SOL    HW213696  12.207   3.480   0.744  0.1595  0.1995 -0.2154
 2280SOL     OW13697   8.705   2.945   4.227 -0.1210 -0.4949  0.4010
 2280SOL    HW113698   8.614   2.949   4.258 -0.2917 -0.4504 -0.0932
 2280SOL    HW213699   8.724   2.852   4.221 -0.3836 -0.5167 -0.1922
 2281SOL     OW13700  10.365   5.520   3.288  0.5299 -0.5122  0.5279
 2281SOL    HW113701  10.443   5.512   3.343  0.5007  2.6119  1.1929
 2281SOL    HW213702  10.292   5.521   3.350  0.2484  0.0936  0.1894
 2282SOL     OW13703  11.751   4.717  12.165  0.3365 -0.1372 -0.1047
 2282SOL    HW113704  11.687   4.784  12.141  0.8801  0.0917 -0.9644
 2282SOL    HW213705  11.732   4.644  12.106  1.7229  0.4491 -1.3355
 2283SOL     OW13706   5.278   2.005   5.913  0.0100 -0.3908  0.1522
 2283SOL    HW113707   5.200   1.949   5.907  0.7229 -1.2499 -2.0312
 2283SOL    HW213708   5.350   1.944   5.932  0.2728  0.3063  1.5117
 2284SOL     OW13709   3.472   2.886   2.217  0.0030 -0.0824 -0.5507
 2284SOL    HW113710   3.553   2.841   2.194  0.8168  0.8811  0.3492
 2284SOL    HW213711   3.412   2.865   2.145  0.0691 -3.2018  0.1740
 2285SOL     OW13712   9.436   2.795  11.624 -0.2703 -0.9466 -0.1436
 2285SOL    HW113713   9.403   2.812  11.536 -1.8885  0.5121  0.6713
 2285SOL    HW213714   9.434   2.700  11.632  1.4590 -1.2303 -2.1943
 2286SOL     OW13715   3.505   5.388   5.258  0.0731  0.0253  0.6473
 2286SOL    HW113716   3.459   5.309   5.231  0.1982  0.1629  0.0002
 2286SOL    HW213717   3.591   5.357   5.287  0.4460 -0.0026 -0.4385
 2287SOL     OW13718   8.342   4.110   6.803  0.5592  0.3059  0.0707
 2287SOL    HW113719   8.365   4.200   6.826  0.8021  0.6356 -1.3412
 2287SOL    HW213720   8.250   4.115   6.777  0.6102  0.1858 -0.1401
 2288SOL     OW13721   5.595   1.329  12.210 -0.5616  0.2500  0.2225
 2288SOL    HW113722   5.668   1.343  12.271 -0.2329 -0.2445 -0.0460
 2288SOL    HW213723   5.555   1.415  12.200 -1.1425  0.1933  1.7735
 2289SOL     OW13724   9.483   1.858   9.538 -0.0940 -0.4450 -0.2210
 2289SOL    HW113725   9.416   1.874   9.471 -2.7608  0.0509  2.3147
 2289SOL    HW213726   9.547   1.928   9.525 -0.9794  0.1480 -1.7053
 2290SOL     OW13727   1.793   8.098   3.746 -0.7830  0.4400 -0.5009
 2290SOL    HW113728   1.753   8.114   3.832  0.5077  1.2681 -0.0118
 2290SOL    HW213729   1.884   8.075   3.766 -0.7732 -0.5496 -1.6057
 2291SOL     OW13730  12.307   3.241   5.126  0.4431 -0.7914  0.1996
 2291SOL    HW113731  12.214   3.221   5.124  0.6790 -1.9860  0.2643
 2291SOL    HW213732  12.343   3.193   5.050  1.1413 -1.1867  0.7650
 2292SOL     OW13733   4.774   9.365   5.182 -0.4103  0.5274  0.1478
 2292SOL    HW113734   4.778   9.460   5.193  3.5044  0.5413  0.0201
 2292SOL    HW213735   4.733   9.333   5.263  1.2845  2.1892  1.7563
 2293SOL     OW13736   9.362  10.551   0.941  0.0673 -0.3596 -0.0941
 2293SOL    HW113737   9.314  10.470   0.925 -1.6599  0.6997 -0.5542
 2293SOL    HW213738   9.306  10.620   0.904  0.8057  1.1821  1.5216
 2294SOL     OW13739   6.783   2.346   9.875  0.1105 -0.2553  0.4611
 2294SOL    HW113740   6.794   2.329   9.781 -1.8455  1.2545 -0.0901
 2294SOL    HW213741   6.873   2.351   9.908  0.8396 -1.9591 -1.0768
 2295SOL     OW13742   1.340   7.627   2.016  1.1643  0.8922 -0.3529
 2295SOL    HW113743   1.325   7.683   1.940 -0.3639 -0.5080 -1.1287
 2295SOL    HW213744   1.253   7.593   2.038  2.2042 -2.5769 -1.0384
 2296SOL     OW13745   7.923   3.155  10.492 -0.0834 -0.1313 -0.5754
 2296SOL    HW113746   7.984   3.083  10.478 -0.4861 -0.6137  0.0764
 2296SOL    HW213747   7.940   3.217  10.421  2.4226  0.6232  0.5893
 2297SOL     OW13748   8.815  12.503   4.542 -0.1132 -0.0534 -0.1405
 2297SOL    HW113749   8.726  12.481   4.516 -2.3169  2.9105  3.7467
 2297SOL    HW213750   8.829  12.456   4.624  1.4535  0.4078 -0.1092
 2298SOL     OW13751   5.835   8.927  11.858 -0.0219 -0.1777 -0.7413
 2298SOL    HW113752   5.832   8.902  11.766  0.1312  1.6649 -1.2793
 2298SOL    HW213753   5.748   8.904  11.892 -0.4516  0.0912 -1.6273
 2299SOL     OW13754   1.734   5.414   1.994  0.1762 -0.2657 -0.9858
 2299SOL    HW113755   1.750   5.322   1.975  0.5525 -0.5335  0.5236
 2299SOL    HW213756   1.715   5.453   1.908 -0.5699 -1.8396 -1.5684
 2300SOL     OW13757  10.520   0.481  11.566  0.2372  0.0924  0.0202
 2300SOL    HW113758  10.435   0.438  11.558 -0.0314  0.7279 -0.6463
 2300SOL    HW213759  10.511   0.563  11.517  1.7396 -0.6156 -1.5811
 2301SOL     OW13760   9.428   1.137   6.740  0.3197  0.1611  0.5185
 2301SOL    HW113761   9.338   1.168   6.731  0.4508  1.1402  2.1347
 2301SOL    HW213762   9.420   1.045   6.763 -0.1977 -0.1842 -0.9434
 2302SOL     OW13763   7.514   8.317  11.101  0.9101  0.4629 -0.1134
 2302SOL    HW113764   7.544   8.358  11.182 -0.7587  0.3952  0.5731
 2302SOL    HW213765   7.423   8.347  11.091  1.1629  0.6927 -2.1183
 2303SOL     OW13766   5.356   5.583   3.264 -0.0170  0.6768 -0.0160
 2303SOL    HW113767   5.318   5.515   3.208 -0.2827  1.4679 -0.8230
 2303SOL    HW213768   5.287   5.648   3.272 -0.3101  0.1548  2.0147
 2304SOL     OW13769  12.019   4.810   4.012  0.2489  0.3685 -0.0832
 2304SOL    HW113770  11.976   4.763   3.941 -0.2823 -0.0098  0.4770
 2304SOL    HW213771  11.979   4.774   4.092  2.0970 -0.5210  0.4972
 2305SOL     OW13772   1.171   5.882   9.528  0.0978  0.1939 -0.3054
 2305SOL    HW113773   1.258   5.859   9.561  1.5223  2.9302 -1.8064
 2305SOL    HW213774   1.132   5.935   9.597  0.7453  1.1631 -0.6633
 2306SOL     OW13775   4.991   8.614   6.581 -0.1842 -0.4581  0.4497
 2306SOL    HW113776   4.910   8.659   6.559  0.7979  0.4937 -1.4841
 2306SOL    HW213777   4.969   8.521   6.572 -0.4189 -0.1882 -2.9509
 2307SOL     OW13778   8.300   2.166   2.858  0.7883 -0.2799 -0.0961
 2307SOL    HW113779   8.326   2.229   2.791 -0.8172 -0.0955 -0.5882
 2307SOL    HW213780   8.285   2.084   2.810 -0.5730 -0.0920 -0.0286
 2308SOL     OW13781   1.543  10.343  12.176 -0.3164 -0.8247  0.3847
 2308SOL    HW113782   1.461  10.315  12.216 -2.0061 -0.2722 -2.4215
 2308SOL    HW213783   1.521  10.424  12.129  1.6364 -1.0475 -1.0496
 2309SOL     OW13784  11.592   9.265   2.290 -0.0967  0.1671 -0.4843
 2309SOL    HW113785  11.661   9.309   2.239  2.1070 -0.0783  2.0407
 2309SOL    HW213786  11.604   9.172   2.270 -0.2533  0.1905 -0.6870
 2310SOL     OW13787   6.202   4.272   7.364 -0.0969  0.7555  0.2559
 2310SOL    HW113788   6.128   4.292   7.420  1.1458  1.7226  1.6219
 2310SOL    HW213789   6.279   4.295   7.416  1.3074 -2.5300 -0.1331
 2311SOL     OW13790   9.685   5.131   3.694  0.2306  0.3567  0.1655
 2311SOL    HW113791   9.611   5.177   3.654 -1.0212 -0.7244  1.1468
 2311SOL    HW213792   9.757   5.145   3.633 -1.6465 -1.5884 -2.8438
 2312SOL     OW13793   1.561   0.239   1.912 -0.5355  0.5945  0.0964
 2312SOL    HW113794   1.552   0.269   2.003 -0.3444  1.6220 -0.2018
 2312SOL    HW213795   1.503   0.297   1.862 -0.8714 -0.1584 -0.4103
 2313SOL     OW13796  10.335   1.043   1.338  0.3869  0.1692 -0.1754
 2313SOL    HW113797  10.332   0.948   1.323 -0.3125  0.1786 -0.1396
 2313SOL    HW213798  10.255   1.076   1.297  0.9323  0.8310 -0.7456
 2314SOL     OW13799   6.759   1.895   6.204 -0.6314 -0.0388  0.2172
 2314SOL    HW113800   6.675   1.930   6.232 -2.3524 -3.8891  0.5111
 2314SOL    HW213801   6.742   1.855   6.119  1.6658  1.3400 -1.0197
 2315SOL     OW13802   6.098   0.130   7.544 -0.1072 -0.6232 -0.4761
 2315SOL    HW113803   6.185   0.168   7.532 -0.0152 -0.4796  0.5358
 2315SOL    HW213804   6.049   0.156   7.466 -0.0970  1.7264  0.2325
 2316SOL     OW13805   3.895   6.227   5.418 -0.5715 -0.0356 -0.3760
 2316SOL    HW113806   3.817   6.261   5.462 -0.7980 -0.0801 -0.7356
 2316SOL    HW213807   3.861   6.178   5.343 -0.3336 -2.0824  0.7624
 2317SOL     OW13808   7.241   2.592   9.096  0.0461 -0.2368  0.0828
 2317SOL    HW113809   7.256   2.527   9.165 -1.1286 -1.6194 -0.9056
 2317SOL    HW213810   7.150   2.620   9.109  0.2834  0.6150 -0.0139
 2318SOL     OW13811   7.193   4.499  12.145 -0.4665  0.0915 -0.4498
 2318SOL    HW113812   7.283   4.510  12.114 -0.4353  0.8827 -0.1092
 2318SOL    HW213813   7.202   4.458  12.231 -0.2573  2.4929  0.7497
 2319SOL     OW13814   5.652   5.306   4.416 -0.3273  0.7563  0.2123
 2319SOL    HW113815   5.644   5.272   4.326 -0.2898 -0.0860  0.5206
 2319SOL    HW213816   5.744   5.331   4.423  1.5851 -5.1279  1.9726
 2320SOL     OW13817   9.610  10.698  10.971 -0.0689  0.2490  0.5986
 2320SOL    HW113818   9.566  10.614  10.977 -0.1317  0.3018  0.8943
 2320SOL    HW213819   9.682  10.683  10.910 -0.4823  0.1610  0.1283
 2321SOL     OW13820   3.271   8.593   8.492 -0.1082 -0.1531  0.1129
 2321SOL    HW113821   3.357   8.622   8.522  0.5967 -0.9911 -1.0011
 2321SOL    HW213822   3.218   8.673   8.489  0.9730  0.5641 -0.3042
 2322SOL     OW13823   4.023   2.346   4.102 -0.1115 -0.1027 -0.1416
 2322SOL    HW113824   3.931   2.323   4.091 -0.1716  0.3168 -0.5747
 2322SOL    HW213825   4.039   2.338   4.196 -0.7361  0.3475  0.0088
 2323SOL     OW13826   7.355   2.972   4.959 -0.1947 -0.0280  0.1810
 2323SOL    HW113827   7.443   2.999   4.933 -0.4202 -0.6730 -1.3377
 2323SOL    HW213828   7.370   2.902   5.023  0.4198 -0.6120 -0.5811
 2324SOL     OW13829   9.583   4.263   5.311  0.3134 -0.0208 -0.3343
 2324SOL    HW113830   9.630   4.193   5.265 -1.3872 -1.2934 -0.2483
 2324SOL    HW213831   9.612   4.344   5.268  0.4412 -0.9828 -2.1735
 2325SOL     OW13832   3.053   8.155   6.638  0.0334 -0.4153 -0.2999
 2325SOL    HW113833   3.121   8.161   6.571  0.2912  0.6540  0.0481
 2325SOL    HW213834   3.101   8.138   6.719 -0.1301  0.1400 -0.0864
 2326SOL     OW13835   4.499   9.890   6.184 -0.1003  0.0829  0.1400
 2326SOL    HW113836   4.491   9.870   6.277  2.1558  0.4549  0.4574
 2326SOL    HW213837   4.586   9.928   6.174 -1.1162  2.1328 -1.7825
 2327SOL     OW13838  11.931   2.569   2.284 -0.1299  0.1933 -0.4802
 2327SOL    HW113839  11.916   2.585   2.377  1.1846  0.5391 -0.3122
 2327SOL    HW213840  11.896   2.481   2.269  3.1163 -1.5948  1.2722
 2328SOL     OW13841   6.448   1.793   7.149 -0.6394  0.3306  0.2041
 2328SOL    HW113842   6.383   1.863   7.139  1.1119  2.0209  0.1837
 2328SOL    HW213843   6.532   1.836   7.136  0.5630 -1.6326  1.0386
 2329SOL     OW13844   5.048  10.018   1.243 -0.2308  0.2481  0.6219
 2329SOL    HW113845   5.087  10.096   1.203  0.3515  0.3901  1.4440
 2329SOL    HW213846   5.095  10.008   1.326 -1.1223 -0.2937  1.0667
 2330SOL     OW13847   2.833   0.232   8.449  0.0141  0.4667  0.2671
 2330SOL    HW113848   2.827   0.137   8.445 -2.0164  0.5270  0.6941
 2330SOL    HW213849   2.801   0.262   8.364 -0.8798  0.7926  0.7126
 2331SOL     OW13850   0.713   6.362  11.551  0.7410 -0.2954  0.4065
 2331SOL    HW113851   0.695   6.273  11.522  0.6097  0.1057 -0.8229
 2331SOL    HW213852   0.626   6.402  11.561  0.7969 -0.3147  1.0188
 2332SOL     OW13853   6.748  11.383   1.370 -0.2001  0.3254  0.0006
 2332SOL    HW113854   6.752  11.327   1.293 -0.6812 -0.3885  0.4855
 2332SOL    HW213855   6.658  11.416   1.372 -0.1817  0.3629  0.2442
 2333SOL     OW13856   4.586   9.076   6.897 -0.3226 -0.2998  0.0387
 2333SOL    HW113857   4.527   9.150   6.886 -0.5929 -0.6664 -1.0535
 2333SOL    HW213858   4.566   9.043   6.985 -1.8927 -0.5516 -0.3848
 2334SOL     OW13859   7.512   6.129   9.873 -0.3978  0.3826  0.4221
 2334SOL    HW113860   7.475   6.112   9.960  0.0235  0.4411  0.6163
 2334SOL    HW213861   7.444   6.100   9.812  0.2764 -2.0168  0.7271
 2335SOL     OW13862   6.629  10.727   7.299  0.2082  0.0969  1.0961
 2335SOL    HW113863   6.618  10.634   7.280  2.6366  0.0253 -0.4753
 2335SOL    HW213864   6.607  10.771   7.217  2.1813  0.5827  0.7754
 2336SOL     OW13865   5.393   7.474   3.143 -0.1915  0.7407  0.2861
 2336SOL    HW113866   5.436   7.537   3.200  0.6856  0.6585 -0.2604
 2336SOL    HW213867   5.368   7.402   3.201 -0.5722  1.2723  0.7925
 2337SOL     OW13868   9.964   4.002   9.214 -0.1396 -0.0998  0.2011
 2337SOL    HW113869  10.026   4.012   9.142 -0.5860  0.0133 -0.1743
 2337SOL    HW213870   9.915   3.923   9.192 -1.4052  0.8291 -0.4977
 2338SOL     OW13871   3.037   3.412   4.691 -0.0110 -0.3900 -0.2520
 2338SOL    HW113872   2.974   3.343   4.669 -0.9923  0.5516 -0.5060
 2338SOL    HW213873   2.993   3.465   4.758 -0.0636  1.0349 -1.3481
 2339SOL     OW13874  11.468   9.955   2.194  0.5242  0.3930 -0.0143
 2339SOL    HW113875  11.409  10.030   2.205  0.0288 -0.2156  1.8898
 2339SOL    HW213876  11.536   9.968   2.260  0.9965 -0.3167 -0.3481
 2340SOL     OW13877   7.794   9.025   6.288  0.1248  0.6950  0.3972
 2340SOL    HW113878   7.873   8.972   6.299  1.2796  2.3562  0.6028
 2340SOL    HW213879   7.754   9.027   6.375 -0.6494 -0.8408  0.1090
 2341SOL     OW13880   9.914   0.241   0.422  0.2030  0.1153 -0.1017
 2341SOL    HW113881   9.996   0.257   0.468  0.5786  1.7873 -1.2598
 2341SOL    HW213882   9.931   0.269   0.332 -0.9809 -1.5768 -0.9157
 2342SOL     OW13883  10.308  11.763  11.762  0.2830  0.1941  0.3724
 2342SOL    HW113884  10.222  11.757  11.721  0.3291  0.7972  0.1922
 2342SOL    HW213885  10.366  11.715  11.703  0.4152  1.3392 -0.4590
 2343SOL     OW13886   4.560  10.271   0.614  0.2484 -0.6071 -0.2248
 2343SOL    HW113887   4.474  10.310   0.598  1.4612  0.8041 -4.3269
 2343SOL    HW213888   4.602  10.331   0.677 -0.2408  1.2649 -1.5879
 2344SOL     OW13889   9.586   1.993  12.353 -0.0797  0.4492 -0.3902
 2344SOL    HW113890   9.628   2.074  12.323  1.1469  0.9161  2.2489
 2344SOL    HW213891   9.647   1.924  12.328 -1.1283  0.2643 -2.6504
 2345SOL     OW13892   0.741   6.017  11.722 -0.0508 -0.1801  0.2914
 2345SOL    HW113893   0.694   6.051  11.646  1.1664  0.1158 -0.3550
 2345SOL    HW213894   0.823   5.983  11.686  1.1177  1.1080  1.6234
 2346SOL     OW13895   1.978  11.587  10.939  0.6599 -0.0277  0.2357
 2346SOL    HW113896   1.964  11.596  11.033  0.8180 -1.5923  0.4350
 2346SOL    HW213897   1.928  11.658  10.900 -0.8335 -0.3828  1.4194
 2347SOL     OW13898  10.995   6.551   1.942  0.3525 -0.6324  0.0291
 2347SOL    HW113899  11.046   6.543   2.022  0.7271  0.1281 -0.1207
 2347SOL    HW213900  11.025   6.633   1.903  0.4531 -1.1741 -1.0808
 2348SOL     OW13901  10.162   3.664   1.720 -0.1782 -0.2371  0.1242
 2348SOL    HW113902  10.075   3.689   1.752 -0.4744  0.7920 -1.3844
 2348SOL    HW213903  10.153   3.572   1.697 -0.2882 -0.6817  1.7786
 2349SOL     OW13904  10.220  11.441  12.022 -0.0055  0.0622  0.5261
 2349SOL    HW113905  10.308  11.422  11.990 -0.5705 -1.2926 -0.3288
 2349SOL    HW213906  10.172  11.470  11.944 -0.7106 -0.7211  0.6548
 2350SOL     OW13907  12.434   6.292  12.042 -0.3010 -0.2960 -0.1580
 2350SOL    HW113908  12.404   6.263  12.128  0.1241 -2.9628 -0.8183
 2350SOL    HW213909  12.530   6.287  12.047 -0.0136  3.0804  0.2709
 2351SOL     OW13910  10.929   6.397   9.698  0.2258 -0.2271 -0.3967
 2351SOL    HW113911  10.938   6.320   9.641  0.7503 -0.2436 -0.2972
 2351SOL    HW213912  10.858   6.375   9.757  1.4317 -1.3305  0.7129
 2352SOL     OW13913   6.181   0.873   5.354  0.0976  0.0077 -1.0325
 2352SOL    HW113914   6.172   0.888   5.448  0.7472 -0.3851 -0.9069
 2352SOL    HW213915   6.195   0.961   5.317 -1.3792  0.3204 -0.9242
 2353SOL     OW13916   5.679   3.505   6.549  0.0689  0.3704 -0.7791
 2353SOL    HW113917   5.768   3.473   6.562 -0.7731 -1.8357  0.1177
 2353SOL    HW213918   5.670   3.575   6.614  0.4974 -0.8607  0.6777
 2354SOL     OW13919   8.649   4.590   5.149 -0.7141 -0.2553  0.2627
 2354SOL    HW113920   8.560   4.555   5.154 -1.0561  0.3641 -1.0149
 2354SOL    HW213921   8.657   4.644   5.228 -1.8747  0.5389 -0.1252
 2355SOL     OW13922   8.755   3.619  11.855 -0.6093 -0.3604 -0.7062
 2355SOL    HW113923   8.711   3.535  11.841 -0.7842 -0.3947  0.0086
 2355SOL    HW213924   8.687   3.677  11.889 -0.4697  0.0487 -1.1137
 2356SOL     OW13925   1.649   0.264  10.034  0.2639 -0.3615 -0.5781
 2356SOL    HW113926   1.724   0.213  10.066 -0.9894 -1.7285  0.3141
 2356SOL    HW213927   1.594   0.199   9.990 -0.3963  0.6256 -1.2359
 2357SOL     OW13928   4.221   8.471   3.224 -0.4359 -0.3495  0.2999
 2357SOL    HW113929   4.207   8.383   3.189 -1.1728  0.5217 -1.7633
 2357SOL    HW213930   4.309   8.495   3.195  0.4655 -0.9773  2.3080
 2358SOL     OW13931   4.430   1.375   4.361  0.2021  0.1843 -0.6032
 2358SOL    HW113932   4.491   1.416   4.423  0.0017  0.2174 -0.4240
 2358SOL    HW213933   4.470   1.390   4.276 -0.1729  1.3318 -0.6026
 2359SOL     OW13934   9.430   3.384   5.744  0.1309  0.2743 -0.6461
 2359SOL    HW113935   9.435   3.450   5.813 -1.9866  0.8147 -0.9432
 2359SOL    HW213936   9.503   3.405   5.685  2.3282 -0.5158  1.5892
 2360SOL     OW13937  10.802   2.455   3.054  0.1959 -0.5013  0.0508
 2360SOL    HW113938  10.744   2.478   3.126 -1.3986 -2.0693 -0.6518
 2360SOL    HW213939  10.890   2.465   3.090 -0.4221  2.1968  1.0826
 2361SOL     OW13940   9.758   2.651   3.717 -0.7524 -0.3467 -0.7644
 2361SOL    HW113941   9.672   2.673   3.681 -0.7335 -0.5462 -0.9344
 2361SOL    HW213942   9.755   2.555   3.727 -0.8158 -0.2808 -0.0957
 2362SOL     OW13943   0.780   4.559   6.067 -0.1862 -0.0455 -0.1454
 2362SOL    HW113944   0.857   4.558   6.011 -1.3360 -2.1851 -1.8630
 2362SOL    HW213945   0.812   4.525   6.151  1.0235  0.5015 -0.3610
 2363SOL     OW13946   2.801  12.207   9.208  0.0870  0.1970  0.5196
 2363SOL    HW113947   2.732  12.261   9.247 -0.3900 -0.3258  0.4215
 2363SOL    HW213948   2.759  12.166   9.132  1.3112  2.1302 -1.3076
 2364SOL     OW13949   0.714   1.464   6.447 -0.4775 -0.0225 -0.6022
 2364SOL    HW113950   0.748   1.440   6.361  2.5634  0.1583  0.4386
 2364SOL    HW213951   0.694   1.381   6.489 -1.0035 -0.1578 -1.1083
 2365SOL     OW13952   7.377   6.591   7.527  0.1551 -0.0176  0.0584
 2365SOL    HW113953   7.341   6.533   7.459 -0.4380 -0.3486  0.6450
 2365SOL    HW213954   7.434   6.651   7.479 -0.6692  0.1026 -0.8137
 2366SOL     OW13955  12.102   9.940   7.057 -0.1352  0.4845 -0.3244
 2366SOL    HW113956  12.023   9.906   7.016 -0.0404 -1.1334  0.7194
 2366SOL    HW213957  12.151   9.862   7.083  0.5655  1.4212  1.3728
 2367SOL     OW13958   6.103   9.638   3.502  0.4802 -0.3912  0.2342
 2367SOL    HW113959   6.078   9.554   3.542 -2.6151 -0.2938 -1.2683
 2367SOL    HW213960   6.131   9.615   3.413 -2.6388  0.2440 -1.0282
 2368SOL     OW13961   7.164  12.460   8.481 -0.2434  0.1310 -0.3950
 2368SOL    HW113962   7.201  12.392   8.425 -0.7231 -0.0942 -0.4404
 2368SOL    HW213963   7.189  12.542   8.439  0.4621 -0.0095 -0.2643
 2369SOL     OW13964   7.102   2.236   0.991  0.3693  0.2007  0.0569
 2369SOL    HW113965   7.126   2.323   0.958 -0.0743  0.1503 -0.4048
 2369SOL    HW213966   7.006   2.232   0.982  0.3481 -0.2042  0.3993
 2370SOL     OW13967   6.241   3.723   6.975  0.5495  0.1673  0.2068
 2370SOL    HW113968   6.260   3.728   6.881 -0.5792 -0.7882 -0.0954
 2370SOL    HW213969   6.180   3.649   6.983 -0.9053  1.4494  1.4349
 2371SOL     OW13970   9.413   4.736   6.967  0.1613  0.1222  0.5485
 2371SOL    HW113971   9.395   4.745   7.061 -2.0127  0.5908  0.1386
 2371SOL    HW213972   9.348   4.675   6.935  1.1778 -0.4116 -0.6072
 2372SOL     OW13973   7.563   1.528   7.961  0.0242 -0.0162  0.0121
 2372SOL    HW113974   7.609   1.540   8.044  0.0563  1.6939 -0.2127
 2372SOL    HW213975   7.500   1.600   7.958 -0.6654 -0.6424 -0.9997
 2373SOL     OW13976   6.645   5.866   0.128  0.3157 -0.1074 -0.4283
 2373SOL    HW113977   6.597   5.875   0.046 -0.3641  0.7605  0.0576
 2373SOL    HW213978   6.585   5.820   0.187  0.5555 -0.1484 -0.2112
 2374SOL     OW13979   1.977   1.788   8.689  0.4048  0.1325  0.0901
 2374SOL    HW113980   1.946   1.866   8.734  1.6494  1.0536 -0.5837
 2374SOL    HW213981   1.941   1.794   8.601 -0.3062 -0.5859  0.3177
 2375SOL     OW13982   7.645   3.214  12.340  0.1412 -0.1235 -0.5281
 2375SOL    HW113983   7.693   3.156  12.399 -0.4358 -0.5987 -0.5240
 2375SOL    HW213984   7.618   3.287  12.396  0.0363 -0.3243 -0.3132
 2376SOL     OW13985   0.692   4.730  10.822  0.3179 -0.2361  0.3590
 2376SOL    HW113986   0.668   4.704  10.911 -0.7085 -0.1908  0.1049
 2376SOL    HW213987   0.680   4.651  10.770  0.4214 -0.1268  0.1677
 2377SOL     OW13988   6.712   3.672   2.492  0.0719 -0.5856  0.3742
 2377SOL    HW113989   6.727   3.731   2.565  0.6020 -1.6569  1.1497
 2377SOL    HW213990   6.627   3.631   2.510 -1.1600  1.1795 -1.0555
 2378SOL     OW13991   2.929   4.480  11.174 -0.3991  0.1185  0.0596
 2378SOL    HW113992   2.852   4.536  11.168 -1.2457 -0.7072  2.2508
 2378SOL    HW213993   2.944   4.450  11.084 -0.3128  3.2138 -1.0551
 2379SOL     OW13994   2.919   9.715  12.110 -0.2657  0.3759 -0.1374
 2379SOL    HW113995   2.927   9.625  12.141 -0.1539 -0.3125 -2.0493
 2379SOL    HW213996   2.943   9.711  12.017 -1.2875  2.1765 -0.5281
 2380SOL     OW13997   5.338   3.534   5.298 -0.3333  0.0205  0.0216
 2380SOL    HW113998   5.258   3.554   5.346  0.3241  1.5225  0.5495
 2380SOL    HW213999   5.340   3.598   5.227  0.2382 -0.2287 -0.1943
 2381SOL     OW14000   0.387   3.936   2.091  0.2125  0.1920  0.4571
 2381SOL    HW114001   0.433   3.926   2.175 -0.5146 -0.7664  0.7617
 2381SOL    HW214002   0.360   4.028   2.090 -0.3532  0.0622  1.5902
 2382SOL     OW14003  10.698   6.022   9.450 -0.0451 -0.1384 -0.0072
 2382SOL    HW114004  10.779   5.972   9.443  0.3041 -0.0344  2.5152
 2382SOL    HW214005  10.715   6.101   9.398  0.6676 -1.0216 -1.1891
 2383SOL     OW14006   9.200  10.921   2.358  0.3539 -0.1736 -0.1014
 2383SOL    HW114007   9.202  10.896   2.451  1.1905  0.2623  0.0124
 2383SOL    HW214008   9.137  10.993   2.354  0.1277 -0.3585  0.0822
 2384SOL     OW14009   7.013   8.755  10.228 -0.3382 -0.0964 -0.1245
 2384SOL    HW114010   7.065   8.835  10.223  0.0100 -0.2075  1.2647
 2384SOL    HW214011   7.075   8.688  10.258 -0.8523 -0.6589 -0.2855
 2385SOL     OW14012   0.248   2.823   4.809  0.2438  0.2877  0.7135
 2385SOL    HW114013   0.189   2.883   4.764  0.7230  0.7612  0.6949
 2385SOL    HW214014   0.197   2.788   4.882 -0.2367  0.2455  0.3537
 2386SOL     OW14015  11.228   3.201   5.333 -0.1965  0.0051 -0.8117
 2386SOL    HW114016  11.291   3.266   5.364 -1.6035  1.1455 -0.2491
 2386SOL    HW214017  11.208   3.228   5.244 -0.6349  0.2425 -0.6441
 2387SOL     OW14018   1.737   7.675   0.954  0.3347 -0.3931  0.0529
 2387SOL    HW114019   1.689   7.678   0.872  1.2271 -0.5760 -0.4877
 2387SOL    HW214020   1.824   7.709   0.933  0.6603 -0.6975  0.8553
 2388SOL     OW14021  12.556   1.335   7.218 -0.0609  0.1186  0.4241
 2388SOL    HW114022  12.490   1.380   7.271  0.2297  0.0446  0.8552
 2388SOL    HW214023  12.582   1.260   7.271 -2.7207 -2.3938 -1.5166
 2389SOL     OW14024   6.911   5.529   3.184 -0.4029 -0.4320  0.2767
 2389SOL    HW114025   6.936   5.511   3.094 -0.0100  0.1790  0.2627
 2389SOL    HW214026   6.977   5.590   3.216 -1.6556  0.9556  0.3404
 2390SOL     OW14027   2.572   9.664  10.208 -0.3213  0.2334 -0.5173
 2390SOL    HW114028   2.649   9.663  10.152 -0.0161 -0.6777 -0.1033
 2390SOL    HW214029   2.553   9.572  10.224 -0.7749  0.4692  0.3649
 2391SOL     OW14030   1.652  10.668   0.123  0.4238  0.1720  0.1918
 2391SOL    HW114031   1.740  10.640   0.098 -0.2767 -3.9642  1.5067
 2391SOL    HW214032   1.601  10.666   0.042  0.9942  0.1044 -0.1668
 2392SOL     OW14033   1.816   4.597   9.072  0.3849 -0.5846  0.2884
 2392SOL    HW114034   1.729   4.613   9.035  0.5289 -1.3684 -0.4114
 2392SOL    HW214035   1.806   4.517   9.123  0.7867 -0.9173 -0.1442
 2393SOL     OW14036  10.603   4.503   4.343 -0.2721 -0.0209 -0.1108
 2393SOL    HW114037  10.593   4.430   4.282  0.7166  1.3126 -1.9973
 2393SOL    HW214038  10.513   4.532   4.360 -0.5936 -0.6293 -0.7129
 2394SOL     OW14039   9.592   1.349  10.555  0.1190 -0.0885 -0.2301
 2394SOL    HW114040   9.590   1.253  10.559 -0.0698 -0.0498  0.6755
 2394SOL    HW214041   9.520   1.377  10.610 -1.4390  0.5618 -2.4496
 2395SOL     OW14042   5.256  12.345   3.203  0.2468  0.4961  0.1193
 2395SOL    HW114043   5.294  12.274   3.151  2.7056  2.1150 -0.4510
 2395SOL    HW214044   5.319  12.416   3.196 -1.2447  2.1342  2.1775
 2396SOL     OW14045   0.909   8.009   4.763 -0.4708  0.8388 -0.5538
 2396SOL    HW114046   0.882   7.934   4.709  0.4639 -0.4098  0.6310
 2396SOL    HW214047   0.870   7.993   4.848 -0.7066  2.0109 -0.4277
 2397SOL     OW14048   9.109  12.023   9.925  0.2599  0.3400  0.1196
 2397SOL    HW114049   9.081  11.931   9.917  1.5367 -0.3655  2.5205
 2397SOL    HW214050   9.112  12.056   9.836 -0.4241 -1.9079 -0.7991
 2398SOL     OW14051   0.079   8.813   3.662 -0.0743  0.2730 -0.1729
 2398SOL    HW114052   0.046   8.725   3.644 -2.7246  1.3226 -0.7196
 2398SOL    HW214053   0.049   8.832   3.751 -1.1632  1.3231 -0.7455
 2399SOL     OW14054   3.149   7.982   8.328 -0.2527 -0.3777  0.0319
 2399SOL    HW114055   3.134   8.064   8.281 -1.8139 -0.5834  0.1088
 2399SOL    HW214056   3.239   7.958   8.306 -0.0383  0.9280 -0.6411
 2400SOL     OW14057   0.256   4.081  11.304 -0.1105  0.1086  0.2575
 2400SOL    HW114058   0.253   3.986  11.291  0.7192 -0.0074  0.8598
 2400SOL    HW214059   0.317   4.113  11.238 -1.5082  0.4258 -0.9325
 2401SOL     OW14060   6.488   8.733   2.699 -0.0954  0.4792 -0.3378
 2401SOL    HW114061   6.446   8.653   2.729 -0.7410  0.9583  0.0596
 2401SOL    HW214062   6.459   8.744   2.609 -0.2133  0.4090 -0.3078
 2402SOL     OW14063   9.053   1.623   7.163 -0.4727 -0.1484  0.3363
 2402SOL    HW114064   9.101   1.547   7.130 -0.7656  0.1570 -0.8125
 2402SOL    HW214065   8.965   1.614   7.127 -1.6374 -1.1774  3.1322
 2403SOL     OW14066   8.315   9.278   2.039  0.0874 -0.5905 -0.3728
 2403SOL    HW114067   8.356   9.192   2.032  1.5686  0.1695 -1.7679
 2403SOL    HW214068   8.332   9.319   1.955 -1.5739  0.6682 -0.1388
 2404SOL     OW14069   4.216   2.542   4.989 -0.3157 -0.5485  0.3411
 2404SOL    HW114070   4.192   2.450   5.001 -0.1948 -0.5574  0.5164
 2404SOL    HW214071   4.246   2.547   4.898  1.9300 -1.1865  1.0028
 2405SOL     OW14072   5.092   4.357  11.257  0.1883 -0.0843  0.3190
 2405SOL    HW114073   5.035   4.366  11.333 -1.0000 -0.5778 -0.4863
 2405SOL    HW214074   5.180   4.376  11.290 -0.6103  2.3116  1.2723
 2406SOL     OW14075   0.481   2.090   6.733  0.1083  0.6265  0.0500
 2406SOL    HW114076   0.516   2.052   6.652  0.0987 -0.1248  0.3921
 2406SOL    HW214077   0.558   2.121   6.781  0.1852  0.2870  0.1461
 2407SOL     OW14078  11.839   1.424   1.572  0.3690  0.0160 -0.0455
 2407SOL    HW114079  11.795   1.488   1.628  1.9681  1.2527 -0.1571
 2407SOL    HW214080  11.844   1.465   1.486 -2.0829 -1.8743 -1.2311
 2408SOL     OW14081  11.365   1.871   5.483 -0.2470 -0.4648  0.5745
 2408SOL    HW114082  11.395   1.944   5.429  0.8011 -2.1204 -1.2264
 2408SOL    HW214083  11.346   1.910   5.568  1.7306  1.6497  0.1420
 2409SOL     OW14084   7.381   8.316  11.734  0.3285 -0.8848 -0.4620
 2409SOL    HW114085   7.391   8.279  11.822 -0.8658 -0.7607 -0.2599
 2409SOL    HW214086   7.437   8.262  11.679  2.1473 -0.1441  0.5775
 2410SOL     OW14087   7.602   4.713   0.887  0.0189  0.4145  0.1545
 2410SOL    HW114088   7.604   4.783   0.821 -2.0800 -0.3116 -0.7747
 2410SOL    HW214089   7.522   4.730   0.938 -0.6963 -1.4143 -0.2753
 2411SOL     OW14090  12.273   4.694   2.515 -0.5146  0.3794 -0.5231
 2411SOL    HW114091  12.278   4.599   2.505 -3.4139  0.1441 -0.4244
 2411SOL    HW214092  12.351   4.717   2.565 -0.0990 -2.0282  0.0435
 2412SOL     OW14093  10.899   0.781   3.787  0.0495  0.0228 -0.1609
 2412SOL    HW114094  10.964   0.762   3.855  0.2565  1.5255  0.0825
 2412SOL    HW214095  10.887   0.876   3.791 -0.7151  0.0004 -1.5302
 2413SOL     OW14096   6.469   4.899  12.408 -0.1061  0.2563  0.9118
 2413SOL    HW114097   6.409   4.828  12.384 -2.3918  2.0828  0.9623
 2413SOL    HW214098   6.468   4.900  12.504  2.1951 -1.3852  1.0534
 2414SOL     OW14099  11.004   5.799   0.052 -0.1203 -0.1779 -0.3229
 2414SOL    HW114100  10.912   5.826   0.052 -0.1622 -0.3048  0.2552
 2414SOL    HW214101  11.052   5.879   0.074 -0.3605 -0.8499  3.1945
 2415SOL     OW14102   1.986  10.552   7.948 -0.3791  0.7513 -0.5889
 2415SOL    HW114103   2.037  10.591   8.019  1.0599 -2.1520  0.1490
 2415SOL    HW214104   1.993  10.614   7.876  2.8228  1.3339  0.0528
 2416SOL     OW14105   9.867  10.391  10.385 -1.2181  0.4666  0.7931
 2416SOL    HW114106   9.908  10.317  10.339 -0.6222  0.1704  1.7618
 2416SOL    HW214107   9.940  10.449  10.406 -1.7307  1.5108 -0.2579
 2417SOL     OW14108   1.910   8.252  10.234  0.0520  0.2639  0.0093
 2417SOL    HW114109   1.936   8.161  10.216 -0.4447  0.0271  0.4566
 2417SOL    HW214110   1.992   8.301  10.233  0.4193 -0.3255  0.5698
 2418SOL     OW14111   3.948   2.923  10.148 -0.2319  0.1320 -0.0567
 2418SOL    HW114112   3.974   2.838  10.111  0.2649  0.4834 -0.5249
 2418SOL    HW214113   3.898   2.965  10.078 -3.0894 -0.9524  1.1541
 2419SOL     OW14114   2.275   1.521  12.206  0.5783 -0.5864  0.3776
 2419SOL    HW114115   2.258   1.427  12.206  0.6900 -0.6211 -0.8559
 2419SOL    HW214116   2.188   1.561  12.206  0.5300 -0.6761  1.0121
 2420SOL     OW14117   1.593   2.281   8.319 -0.5329 -0.1318  0.5586
 2420SOL    HW114118   1.639   2.301   8.400  0.8479  1.6787 -0.5763
 2420SOL    HW214119   1.640   2.206   8.283 -0.5758 -0.3692  0.9884
 2421SOL     OW14120   1.621   2.861  10.302  0.0245  0.3861 -0.0644
 2421SOL    HW114121   1.609   2.785  10.359  1.3175 -1.3637 -1.9768
 2421SOL    HW214122   1.701   2.842  10.254  0.6373  3.2282 -0.3021
 2422SOL     OW14123   3.806   3.079   4.084 -0.0827 -0.3445 -0.2338
 2422SOL    HW114124   3.852   3.066   4.001 -0.4432 -1.7634 -0.2256
 2422SOL    HW214125   3.726   3.028   4.076 -0.6841  0.4467  0.5503
 2423SOL     OW14126   0.109   7.232   9.042  0.1757 -0.1843 -0.6203
 2423SOL    HW114127   0.193   7.277   9.038 -0.5851  1.4215  0.3581
 2423SOL    HW214128   0.108   7.191   9.129  0.8892 -2.2587 -1.5221
 2424SOL     OW14129   2.242   5.460   4.706 -0.1583  0.1087  0.4148
 2424SOL    HW114130   2.302   5.385   4.709  1.1349  0.9806 -1.5460
 2424SOL    HW214131   2.202   5.454   4.619 -0.2059  1.5634  0.3240
 2425SOL     OW14132   7.950  11.300  12.557  0.1318 -0.6840  0.1422
 2425SOL    HW114133   7.863  11.292  12.519  0.1569 -2.1273  0.3108
 2425SOL    HW214134   7.935  11.311  12.651  0.1261 -0.2553  0.0928
 2426SOL     OW14135   9.938   5.581   6.444 -0.4761 -0.1183  0.4012
 2426SOL    HW114136  10.014   5.549   6.394 -0.7358  0.1867 -0.1936
 2426SOL    HW214137   9.972   5.653   6.496 -0.7504  1.3243 -1.3349
 2427SOL     OW14138   7.267  10.080   3.906 -0.1309 -0.3526 -0.1721
 2427SOL    HW114139   7.258  10.100   3.999 -2.8366  0.9133 -0.5907
 2427SOL    HW214140   7.228   9.994   3.896  0.5265 -0.6651 -0.1014
 2428SOL     OW14141  11.128  10.729   0.751 -0.0914  0.5707  0.6011
 2428SOL    HW114142  11.059  10.668   0.777 -0.1132  0.8314  1.1551
 2428SOL    HW214143  11.132  10.721   0.655  1.9449 -2.5392  0.8209
 2429SOL     OW14144   9.751   5.187   1.872 -0.0297 -0.3791 -0.7861
 2429SOL    HW114145   9.837   5.189   1.832  0.5194  1.4086  0.3707
 2429SOL    HW214146   9.766   5.153   1.960 -0.3151  0.9644 -0.2054
 2430SOL     OW14147  11.885  11.719   0.783  0.2912 -0.0595 -0.0717
 2430SOL    HW114148  11.862  11.626   0.790  1.9174 -0.4734  0.1163
 2430SOL    HW214149  11.843  11.760   0.859  2.9274 -1.3998  2.2965
 2431SOL     OW14150   7.435   7.995   4.531  0.3653  0.4655  0.0753
 2431SOL    HW114151   7.345   7.967   4.514 -0.0573  1.7329  0.1365
 2431SOL    HW214152   7.451   7.968   4.622  0.8082 -1.6363 -0.5794
 2432SOL     OW14153   7.028   2.213   3.183 -0.3360  0.0426 -0.4836
 2432SOL    HW114154   7.038   2.152   3.256  1.2886  1.4228  0.5067
 2432SOL    HW214155   6.958   2.272   3.211 -3.1820 -2.2229 -2.1724
 2433SOL     OW14156   8.576   8.388   9.866 -0.6089  0.7655  0.3125
 2433SOL    HW114157   8.578   8.424   9.778  1.7195 -1.0734 -0.5108
 2433SOL    HW214158   8.668   8.366   9.885 -1.3961 -1.3855  2.0797
 2434SOL     OW14159   5.069   6.819   1.513  0.0253  0.3605  0.1343
 2434SOL    HW114160   5.087   6.878   1.440 -2.1934  1.4869  0.3993
 2434SOL    HW214161   5.154   6.807   1.556  0.6119  3.4230  0.0703
 2435SOL     OW14162   5.592   3.854  11.584  0.8346  0.1329  0.4589
 2435SOL    HW114163   5.640   3.926  11.544 -1.5054  1.7259  0.3068
 2435SOL    HW214164   5.555   3.892  11.664 -0.9903 -0.6564  0.0374
 2436SOL     OW14165   1.177   7.696   8.816 -0.0867  0.0887 -0.2970
 2436SOL    HW114166   1.206   7.784   8.790 -1.7900  0.8182  0.1102
 2436SOL    HW214167   1.149   7.656   8.733 -0.2124  0.2959 -0.3574
 2437SOL     OW14168  10.727   1.676   9.455  0.2131 -0.0074  0.1516
 2437SOL    HW114169  10.647   1.693   9.505  0.1603  0.8523 -0.1965
 2437SOL    HW214170  10.795   1.666   9.522  0.2173  1.5175  0.4315
 2438SOL     OW14171   8.489   3.137   9.975 -0.2121  0.1071  0.1964
 2438SOL    HW114172   8.456   3.052  10.005  0.9436 -0.1759  0.7174
 2438SOL    HW214173   8.545   3.116   9.900 -0.3181  0.4626  0.0162
 2439SOL     OW14174   1.110  10.509   0.398  0.2150 -0.2157  0.4083
 2439SOL    HW114175   1.161  10.489   0.320  0.1427 -1.3144  0.6360
 2439SOL    HW214176   1.020  10.521   0.365  0.4290  0.8001  0.1395
 2440SOL     OW14177  11.099  11.974  11.017  0.1783  0.2110 -0.2201
 2440SOL    HW114178  11.057  11.970  10.931 -0.4452 -0.2127  0.0926
 2440SOL    HW214179  11.175  11.916  11.009 -0.7200 -1.0448 -0.0521
 2441SOL     OW14180   0.929   3.630   2.939 -0.7366  0.0392 -0.0237
 2441SOL    HW114181   0.971   3.716   2.942 -0.6755  0.0221 -0.3261
 2441SOL    HW214182   0.851   3.639   2.992  0.5637 -0.4327  2.0951
 2442SOL     OW14183   1.553   6.264   5.595 -0.2303 -0.2879  0.1322
 2442SOL    HW114184   1.601   6.182   5.583  3.4105  1.6674 -0.1572
 2442SOL    HW214185   1.582   6.296   5.680 -2.9589 -0.0121  1.0542
 2443SOL     OW14186   7.242   1.661  12.563  0.3770 -0.2444 -0.5279
 2443SOL    HW114187   7.263   1.568  12.548  1.4344 -0.1468  0.2623
 2443SOL    HW214188   7.149   1.661  12.585  0.7918 -1.3773  1.4339
 2444SOL     OW14189   9.151   9.859   8.851  0.1052 -0.0230  0.1354
 2444SOL    HW114190   9.133   9.776   8.807  1.9543 -0.7249  0.6262
 2444SOL    HW214191   9.171   9.921   8.780 -1.2451  0.0237 -0.2268
 2445SOL     OW14192  11.702   6.222  10.242 -0.4209  0.2172 -0.1313
 2445SOL    HW114193  11.690   6.247  10.150 -0.9111 -1.3889 -0.5233
 2445SOL    HW214194  11.758   6.144  10.238 -1.4264 -0.5753  0.8519
 2446SOL     OW14195   4.827   1.549   9.408 -0.2365 -0.1683  0.0160
 2446SOL    HW114196   4.839   1.644   9.403  3.6642 -0.5782 -2.2076
 2446SOL    HW214197   4.751   1.531   9.353 -0.6149  1.5744 -0.0846
 2447SOL     OW14198  10.601   4.505   8.609  0.0034  0.7310  0.0315
 2447SOL    HW114199  10.609   4.543   8.697  0.9524  0.6047  0.0154
 2447SOL    HW214200  10.691   4.478   8.587 -0.5423 -1.0905 -0.1519
 2448SOL     OW14201   3.979   9.568   7.360 -0.0413  0.0186 -0.3770
 2448SOL    HW114202   4.021   9.647   7.327 -0.9250  1.8852  2.5190
 2448SOL    HW214203   3.890   9.572   7.326  0.7132 -1.5270 -2.7941
 2449SOL     OW14204   4.645   4.269   6.433 -0.1844 -0.0923  0.2357
 2449SOL    HW114205   4.699   4.349   6.433  0.3112 -0.3927  1.7585
 2449SOL    HW214206   4.563   4.296   6.392 -0.1390  1.3067  0.9671
 2450SOL     OW14207   4.982   3.822   2.779 -0.6579  0.1081  0.4933
 2450SOL    HW114208   4.924   3.823   2.703 -0.2097 -3.0274 -0.0287
 2450SOL    HW214209   5.007   3.913   2.791 -2.0872  0.9432 -2.0522
 2451SOL     OW14210   5.971   3.704   5.675  0.2985 -0.1212 -0.5587
 2451SOL    HW114211   5.906   3.633   5.676 -0.8372  0.8044  2.4247
 2451SOL    HW214212   6.052   3.661   5.647 -0.8704 -2.0485 -1.2344
 2452SOL     OW14213   7.236   6.849   7.590  0.9043  0.0375  0.1379
 2452SOL    HW114214   7.275   6.810   7.668 -0.6587  1.2633  1.6056
 2452SOL    HW214215   7.181   6.779   7.554 -2.2177  0.7314  2.9850
 2453SOL     OW14216  10.724   2.573   9.317 -0.0468  0.1299  0.2899
 2453SOL    HW114217  10.657   2.510   9.290 -0.9631  0.8443  0.8421
 2453SOL    HW214218  10.731   2.634   9.244 -0.7334  0.6348  0.6418
 2454SOL     OW14219   3.184   9.838  10.673 -0.0888 -0.1752 -0.1478
 2454SOL    HW114220   3.158   9.804  10.587 -0.5113  0.5994 -0.3325
 2454SOL    HW214221   3.102   9.858  10.716  0.1537  1.2288 -0.2971
 2455SOL     OW14222   9.487   5.821   0.160  0.0202  0.0803  0.4744
 2455SOL    HW114223   9.444   5.762   0.222 -0.6901  0.6788  0.5753
 2455SOL    HW214224   9.547   5.874   0.214 -1.7491  1.7029  0.9838
 2456SOL     OW14225   6.689   5.785   4.870  0.3939  0.2110 -0.1759
 2456SOL    HW114226   6.725   5.856   4.817 -0.2501  0.6876  0.0224
 2456SOL    HW214227   6.598   5.778   4.844  0.6125 -1.0470 -0.7252
 2457SOL     OW14228   2.853   1.463   0.754  0.4182  0.4091 -0.0870
 2457SOL    HW114229   2.784   1.399   0.734  0.2566  0.4552  0.3200
 2457SOL    HW214230   2.920   1.413   0.799  1.9418 -0.2547 -2.8501
 2458SOL     OW14231   1.429   9.741   4.955  0.0620 -0.0565  0.1569
 2458SOL    HW114232   1.401   9.711   5.042  0.5805 -4.3056 -0.9334
 2458SOL    HW214233   1.496   9.806   4.973 -1.1745  0.6419  2.8774
 2459SOL     OW14234   0.223   9.731   8.552 -0.0577 -0.1015 -0.0949
 2459SOL    HW114235   0.300   9.760   8.600 -0.9434  2.2379  0.0451
 2459SOL    HW214236   0.211   9.639   8.577  2.9207 -0.7076 -0.5160
 2460SOL     OW14237   2.198   5.707  10.433 -0.4978 -0.0398  0.1585
 2460SOL    HW114238   2.128   5.707  10.368 -2.0532 -0.6971  1.7358
 2460SOL    HW214239   2.270   5.659  10.391 -0.4449  1.7452 -1.9762
 2461SOL     OW14240   4.885   9.460   6.602 -0.2191 -0.1322 -0.0312
 2461SOL    HW114241   4.835   9.539   6.620 -0.3118 -0.5661  1.8083
 2461SOL    HW214242   4.859   9.399   6.671  0.3545 -1.5410 -1.0079
 2462SOL     OW14243   9.667   4.277   9.708 -0.3419 -0.3455 -0.5047
 2462SOL    HW114244   9.732   4.237   9.650 -0.3090 -0.3682 -0.4528
 2462SOL    HW214245   9.582   4.253   9.670 -0.3188 -0.2263 -0.6345
 2463SOL     OW14246   0.618   8.275   1.980 -0.1908  0.0081  0.0558
 2463SOL    HW114247   0.539   8.297   1.932 -0.1504 -0.8548 -0.4282
 2463SOL    HW214248   0.588   8.261   2.070 -0.6733 -0.7668 -0.2168
 2464SOL     OW14249  11.741   1.656   0.047 -0.2194 -0.3037  0.1392
 2464SOL    HW114250  11.747   1.582  -0.014  0.3868 -0.0654 -0.0946
 2464SOL    HW214251  11.654   1.646   0.087 -1.1519  0.1847 -1.6158
 2465SOL     OW14252  11.187   1.101  10.118  0.7368  0.1209  0.1429
 2465SOL    HW114253  11.146   1.170  10.169 -2.6941 -2.2877  0.9470
 2465SOL    HW214254  11.190   1.026  10.176  0.7575 -1.5107 -1.8511
 2466SOL     OW14255   5.189   8.552   1.380 -0.1119 -0.0922 -0.0221
 2466SOL    HW114256   5.143   8.617   1.434  2.8445  0.9014  1.5592
 2466SOL    HW214257   5.196   8.592   1.294  0.5679  1.2050  0.6042
 2467SOL     OW14258   7.282   0.905  11.432 -0.1494 -0.7087 -0.2380
 2467SOL    HW114259   7.322   0.958  11.362 -2.5613  1.2849 -0.2436
 2467SOL    HW214260   7.295   0.815  11.404  2.1622 -0.1098 -1.3859
 2468SOL     OW14261   6.895  11.200   5.846 -0.1940  0.1692  0.2656
 2468SOL    HW114262   6.918  11.132   5.909  1.1471 -0.3506 -0.7591
 2468SOL    HW214263   6.934  11.172   5.764 -1.0205  1.3624 -0.5700
 2469SOL     OW14264   4.916   7.238   2.680  0.0822 -0.7389  0.2004
 2469SOL    HW114265   4.965   7.279   2.610  0.3901 -1.4673 -0.0104
 2469SOL    HW214266   4.828   7.227   2.645 -0.1628  0.2558  0.4620
 2470SOL     OW14267   8.901   3.980   4.777 -1.5818 -0.5536 -0.2190
 2470SOL    HW114268   8.849   4.047   4.734 -1.4959 -0.3946 -0.0760
 2470SOL    HW214269   8.939   3.929   4.705 -0.0361  0.7596 -0.3892
 2471SOL     OW14270   7.035   8.576   4.974  0.2132 -0.1202  0.2516
 2471SOL    HW114271   6.966   8.641   4.961 -0.6277 -1.1101 -0.3650
 2471SOL    HW214272   7.039   8.529   4.891  1.8433  0.1017  0.1696
 2472SOL     OW14273  11.633   8.368   9.188  0.6889  0.2979  0.3065
 2472SOL    HW114274  11.582   8.429   9.135  0.4270  0.4430  0.7173
 2472SOL    HW214275  11.574   8.343   9.260 -0.0035 -2.1395 -0.9980
 2473SOL     OW14276   2.495   6.956   3.361 -0.2155 -0.3487 -0.2468
 2473SOL    HW114277   2.524   7.009   3.435 -0.4756 -1.5852  0.7729
 2473SOL    HW214278   2.458   7.020   3.300  0.8174  0.7952  0.2638
 2474SOL     OW14279   1.101   6.045  10.286 -0.6039 -0.0020  0.4381
 2474SOL    HW114280   1.055   6.120  10.321 -2.0968 -1.1228  0.9592
 2474SOL    HW214281   1.046   5.969  10.308  0.9791 -1.2913  0.2004
 2475SOL     OW14282  11.419   4.160   1.713 -0.4758  0.3565  0.1469
 2475SOL    HW114283  11.498   4.159   1.768 -0.0107  0.8870 -0.4930
 2475SOL    HW214284  11.375   4.241   1.738 -0.4044  0.4602 -0.0569
 2476SOL     OW14285   9.399   8.737   8.213  0.0021  0.2654 -0.7011
 2476SOL    HW114286   9.306   8.744   8.233  0.4077 -2.5995  3.3792
 2476SOL    HW214287   9.442   8.789   8.281  1.4327 -0.6344 -0.8909
 2477SOL     OW14288   8.337   1.259   4.329 -0.3348  0.6163 -0.0461
 2477SOL    HW114289   8.371   1.185   4.279 -0.0410  0.9749 -0.3858
 2477SOL    HW214290   8.242   1.251   4.322 -0.3111  0.0518  0.2481
 2478SOL     OW14291   2.805   3.191   8.337  0.5014 -0.1881  0.2735
 2478SOL    HW114292   2.781   3.284   8.342 -2.4198 -0.9205  1.6159
 2478SOL    HW214293   2.823   3.177   8.244  0.1365  1.5386 -0.1012
 2479SOL     OW14294   2.232   7.892   2.441 -0.2906 -0.4578  0.4986
 2479SOL    HW114295   2.326   7.892   2.459 -0.5954 -2.4741  2.6204
 2479SOL    HW214296   2.225   7.917   2.350  2.3004 -0.0353  0.3387
 2480SOL     OW14297   1.831   1.435   0.504  0.6892  0.5373  0.2043
 2480SOL    HW114298   1.821   1.359   0.561 -1.3257  1.4458  1.1581
 2480SOL    HW214299   1.845   1.398   0.417 -1.1719 -0.9637  0.4907
 2481SOL     OW14300   0.939   3.014  12.075 -0.1812  0.6806  0.5258
 2481SOL    HW114301   0.908   2.928  12.046  1.7278 -0.0860  0.5746
 2481SOL    HW214302   0.907   3.075  12.009  0.5962 -0.4572 -0.9783
 2482SOL     OW14303   4.546  10.931   7.610  0.3396  0.3826 -0.3503
 2482SOL    HW114304   4.640  10.947   7.606  0.5663 -0.9018 -0.8547
 2482SOL    HW214305   4.506  11.018   7.610  1.4329  1.0129 -3.3210
 2483SOL     OW14306   1.117   3.874   1.830 -0.1193 -0.6498  0.3330
 2483SOL    HW114307   1.122   3.824   1.749  0.0931 -0.4359  0.2116
 2483SOL    HW214308   1.156   3.959   1.808  0.6956 -0.8671  0.8714
 2484SOL     OW14309   7.699   8.592   3.016  0.3877  0.5392  1.0475
 2484SOL    HW114310   7.627   8.584   2.954  0.6406  0.9933  0.6811
 2484SOL    HW214311   7.727   8.502   3.032  1.3069  0.4616 -0.7078
 2485SOL     OW14312   6.661   1.613   9.738 -0.0826  0.1960 -0.1268
 2485SOL    HW114313   6.608   1.669   9.682 -1.0799  0.7553  1.3064
 2485SOL    HW214314   6.707   1.674   9.796  0.7993 -0.3693 -0.2089
 2486SOL     OW14315   1.457   5.702   0.346  0.0137 -0.6596 -0.2827
 2486SOL    HW114316   1.437   5.702   0.253  0.4687 -1.4478 -0.3881
 2486SOL    HW214317   1.408   5.776   0.381  0.3965  0.0829 -1.2648
 2487SOL     OW14318   1.388   2.581   2.833  0.0476  0.4153 -0.0351
 2487SOL    HW114319   1.380   2.667   2.792 -0.1267  0.1725 -0.5153
 2487SOL    HW214320   1.414   2.522   2.762 -0.1491  0.0100  0.2215
 2488SOL     OW14321   3.497   8.128   8.108 -0.3023 -0.6384  0.1330
 2488SOL    HW114322   3.513   8.155   8.018  1.6086  0.5920  0.7819
 2488SOL    HW214323   3.488   8.033   8.104  5.4970 -1.5036 -0.7777
 2489SOL     OW14324   0.851   9.749   5.383 -0.7281 -0.2301 -0.0220
 2489SOL    HW114325   0.774   9.774   5.434  0.0347  1.1772  0.4950
 2489SOL    HW214326   0.824   9.759   5.292 -0.2901  3.3387  0.1187
 2490SOL     OW14327   3.698   7.135   7.804  0.1989 -0.5268  0.2110
 2490SOL    HW114328   3.623   7.075   7.810 -1.7592  1.7325  0.0655
 2490SOL    HW214329   3.719   7.155   7.895  0.5702 -1.0739  0.2499
 2491SOL     OW14330   9.227  11.960   4.392  0.5874 -0.0839 -0.2459
 2491SOL    HW114331   9.299  11.909   4.353 -0.4210 -1.3950 -0.4664
 2491SOL    HW214332   9.270  12.019   4.453  2.1880  1.4483 -2.6476
 2492SOL     OW14333   9.699   2.643   2.660  0.7649 -0.3851 -0.2901
 2492SOL    HW114334   9.656   2.656   2.744 -0.1838 -0.2478 -0.7861
 2492SOL    HW214335   9.792   2.633   2.682  1.0951  3.1261  0.5119
 2493SOL     OW14336  11.997   4.780   7.025 -0.5176  0.4385  0.5646
 2493SOL    HW114337  11.931   4.775   6.955  0.0791 -0.9969  0.0750
 2493SOL    HW214338  12.071   4.825   6.984 -0.1121 -0.5350  0.2127
 2494SOL     OW14339   0.264   2.387   0.044  0.3352  0.2902  0.0131
 2494SOL    HW114340   0.256   2.306  -0.006  1.2753  1.0118 -1.3754
 2494SOL    HW214341   0.187   2.388   0.101 -0.0452 -1.2312 -0.4230
 2495SOL     OW14342   9.440   8.892   7.457  0.4328  0.1999 -0.8371
 2495SOL    HW114343   9.424   8.938   7.539 -0.4059  1.2504 -1.5554
 2495SOL    HW214344   9.534   8.873   7.457  0.2375 -1.0074  0.9348
 2496SOL     OW14345   3.441   3.498   5.111  0.7919  0.1363  0.6044
 2496SOL    HW114346   3.520   3.504   5.058  0.5730  2.4604  0.4518
 2496SOL    HW214347   3.369   3.504   5.047  0.4687 -0.8533  0.8491
 2497SOL     OW14348   3.746   7.927   7.308 -0.0321 -0.6274 -0.1137
 2497SOL    HW114349   3.746   7.962   7.219  0.9765 -0.0109  0.1067
 2497SOL    HW214350   3.829   7.957   7.345 -1.2347  0.7397  1.6496
 2498SOL     OW14351   5.529   2.612   2.318  0.5333 -0.4466  0.2064
 2498SOL    HW114352   5.604   2.585   2.266  0.9762 -0.4845  0.8530
 2498SOL    HW214353   5.557   2.599   2.409 -0.6054 -1.4046  0.4469
 2499SOL     OW14354   3.253   5.380  11.354  0.3748 -0.6336  0.2807
 2499SOL    HW114355   3.292   5.309  11.405  0.1384 -0.4219  0.7570
 2499SOL    HW214356   3.318   5.399  11.286  0.4716 -1.2532  0.1956
 2500SOL     OW14357   2.560   9.744   6.236 -0.1433  1.0016 -0.2868
 2500SOL    HW114358   2.501   9.732   6.310  1.6067  0.5721  1.0893
 2500SOL    HW214359   2.581   9.837   6.238 -0.2751  1.0350 -0.4051
 2501SOL     OW14360   3.583   7.216   5.281  0.4091 -0.5104 -0.1398
 2501SOL    HW114361   3.532   7.236   5.359  1.6427 -0.7428  0.7670
 2501SOL    HW214362   3.561   7.285   5.219 -0.2651 -0.0724  0.5675
 2502SOL     OW14363   6.133   6.906   5.992 -0.1594 -0.1652 -0.5757
 2502SOL    HW114364   6.080   6.865   6.060  0.3107  0.0918 -0.0551
 2502SOL    HW214365   6.069   6.933   5.925 -0.8602  1.4007  0.6621
 2503SOL     OW14366   2.063   6.556   9.333  0.5492 -0.4599  0.4113
 2503SOL    HW114367   2.146   6.510   9.342  0.4368 -0.5205  1.1628
 2503SOL    HW214368   2.073   6.607   9.252  1.3544 -0.3785  0.5503
 2504SOL     OW14369   0.081   7.648   6.710  0.7268 -0.1623  0.4138
 2504SOL    HW114370   0.056   7.558   6.690  0.5359 -0.1159  0.4352
 2504SOL    HW214371   0.101   7.647   6.804  3.1452 -0.7221 -0.0600
 2505SOL     OW14372   7.815   0.044  11.858 -0.3726 -0.3652 -0.9205
 2505SOL    HW114373   7.871   0.120  11.866 -0.8284 -0.2001  1.3994
 2505SOL    HW214374   7.867  -0.020  11.809  0.6650  0.8029 -1.3767
 2506SOL     OW14375   0.741   0.066   0.803  0.4460 -0.7476 -0.1711
 2506SOL    HW114376   0.666   0.127   0.805 -0.1187 -1.3586 -1.5180
 2506SOL    HW214377   0.702  -0.018   0.781  1.5180 -1.1051 -0.7589
 2507SOL     OW14378   3.357   6.944   2.056 -0.0522 -0.3086  0.5300
 2507SOL    HW114379   3.280   6.998   2.038 -0.3828 -0.7628  0.5756
 2507SOL    HW214380   3.364   6.943   2.151 -0.2482 -0.6244  0.5428
 2508SOL     OW14381   5.741   0.142   9.051  0.3231 -0.4438 -0.3409
 2508SOL    HW114382   5.783   0.222   9.021 -0.6885 -0.0186 -0.6788
 2508SOL    HW214383   5.804   0.102   9.111  0.1883  1.4472  1.1265
 2509SOL     OW14384   7.290   8.079   7.026  0.5931 -0.4103  0.0830
 2509SOL    HW114385   7.225   8.079   6.956 -0.0009 -0.5076  0.6235
 2509SOL    HW214386   7.362   8.132   6.992  0.3041 -0.4347 -0.5861
 2510SOL     OW14387   7.481   8.097   4.101  0.1583  0.3136 -0.6415
 2510SOL    HW114388   7.513   8.106   4.011  0.0681 -0.9851 -0.8150
 2510SOL    HW214389   7.549   8.138   4.155  0.4681  0.6212 -1.2516
 2511SOL     OW14390   4.851   5.997  10.871 -0.4890  0.5084  0.3235
 2511SOL    HW114391   4.896   6.021  10.790  1.1029 -1.4249  0.5370
 2511SOL    HW214392   4.914   6.017  10.940 -0.9356  0.0710  0.8689
 2512SOL     OW14393   7.615   7.237   2.678  0.2080  0.0277 -0.2272
 2512SOL    HW114394   7.555   7.279   2.616  0.2253  0.4667  0.0491
 2512SOL    HW214395   7.665   7.175   2.625 -0.0039  0.1653 -0.5910
 2513SOL     OW14396   0.047   6.757  12.090  0.1833 -0.0285 -0.2821
 2513SOL    HW114397   0.097   6.689  12.134 -0.2876  0.5570  1.2404
 2513SOL    HW214398   0.021   6.817  12.161 -1.4117  0.4563 -1.2229
 2514SOL     OW14399   2.712  11.670   7.856 -0.6050  0.3712  0.2129
 2514SOL    HW114400   2.705  11.692   7.948 -0.9715  0.9536  0.0488
 2514SOL    HW214401   2.801  11.636   7.846 -1.0953 -1.2595  1.0957
 2515SOL     OW14402   0.860   1.861   4.970 -0.3886  0.4638  0.1138
 2515SOL    HW114403   0.833   1.948   4.998 -0.4130  0.6367 -0.4500
 2515SOL    HW214404   0.777   1.813   4.958 -0.3899  0.4910  0.0130
 2516SOL     OW14405  11.995   5.490   4.834  0.1666 -0.6657 -0.7085
 2516SOL    HW114406  12.032   5.573   4.804  0.5025 -0.7597 -0.5563
 2516SOL    HW214407  12.071   5.436   4.854 -0.0504 -0.4246  0.8488
 2517SOL     OW14408  12.026   2.617  12.020  0.2272 -0.2888 -0.1222
 2517SOL    HW114409  12.047   2.674  11.946 -0.6542  1.1265  0.6642
 2517SOL    HW214410  12.006   2.677  12.092 -0.6659 -1.5988  0.7772
 2518SOL     OW14411   8.758   3.116   5.401 -0.1006 -0.2347 -0.3285
 2518SOL    HW114412   8.755   3.020   5.405 -1.3557 -0.1885  0.2701
 2518SOL    HW214413   8.850   3.136   5.386  0.2886 -1.5205  0.1797
 2519SOL     OW14414   8.236   4.021   1.365 -0.4543  0.4213 -0.0859
 2519SOL    HW114415   8.198   4.003   1.279  2.0069 -1.4727 -0.9138
 2519SOL    HW214416   8.177   3.979   1.427 -1.1418 -0.0874 -1.0605
 2520SOL     OW14417   6.605   9.065   8.004 -0.4062  0.6509  0.5233
 2520SOL    HW114418   6.669   9.132   8.026 -1.0967  1.4792  0.0752
 2520SOL    HW214419   6.565   9.096   7.923 -0.6312 -0.3886  0.2181
 2521SOL     OW14420   9.518   6.305   5.487 -0.0546 -0.3554 -0.4620
 2521SOL    HW114421   9.486   6.245   5.554 -1.1468  0.8670  0.1646
 2521SOL    HW214422   9.444   6.316   5.427 -1.5586  3.6012  1.7681
 2522SOL     OW14423  10.668   3.923   1.133 -0.1967 -0.0387 -0.1107
 2522SOL    HW114424  10.622   3.928   1.049 -2.3596  0.8236  1.0437
 2522SOL    HW214425  10.697   4.013   1.149  2.0459 -0.5764 -0.8370
 2523SOL     OW14426   9.843   4.204   8.660 -0.1742  0.0925  0.2367
 2523SOL    HW114427   9.755   4.221   8.695 -0.4066  0.9000 -0.7052
 2523SOL    HW214428   9.841   4.111   8.636 -0.6693  0.0282  0.5045
 2524SOL     OW14429   5.720   2.743  10.720  0.2313  0.0955  0.1413
 2524SOL    HW114430   5.733   2.650  10.741 -1.7754 -0.6892 -1.6167
 2524SOL    HW214431   5.768   2.756  10.638  1.3454  0.9227  0.9012
 2525SOL     OW14432   4.211   0.708   4.737 -0.4405 -0.1186 -0.2996
 2525SOL    HW114433   4.132   0.660   4.712  0.7166 -1.2267 -2.0999
 2525SOL    HW214434   4.283   0.650   4.714  0.9586  1.4192 -0.0411
 2526SOL     OW14435   7.100   4.460   0.172  0.2130  0.5708 -0.8302
 2526SOL    HW114436   7.049   4.538   0.193 -1.7268 -0.6210 -0.8706
 2526SOL    HW214437   7.176   4.494   0.124 -0.9348  2.3832 -1.4988
 2527SOL     OW14438  10.530   1.271   8.436 -0.6015 -0.6134  0.4116
 2527SOL    HW114439  10.491   1.185   8.451  1.6624 -1.5582  1.2972
 2527SOL    HW214440  10.536   1.311   8.522  2.2012 -1.4114  0.7096
 2528SOL     OW14441   9.183   5.610   1.059 -0.1010 -0.2263  0.1613
 2528SOL    HW114442   9.091   5.621   1.082  0.1167  0.0155  0.9399
 2528SOL    HW214443   9.183   5.606   0.963 -0.9011 -0.0759  0.1459
 2529SOL     OW14444   6.250   3.427   7.744  0.3722 -0.6707 -0.1525
 2529SOL    HW114445   6.334   3.407   7.702  0.7106  1.1505 -0.4061
 2529SOL    HW214446   6.249   3.522   7.751 -2.2101 -0.5363 -1.3004
 2530SOL     OW14447   8.109   3.793   6.165  0.0080  0.0946 -0.9835
 2530SOL    HW114448   8.116   3.719   6.226  0.6604  0.7647 -0.2072
 2530SOL    HW214449   8.185   3.783   6.107 -1.3792 -1.3431 -2.6650
 2531SOL     OW14450   3.950  12.208  12.209 -0.2285 -0.0012 -0.3378
 2531SOL    HW114451   3.860  12.242  12.211 -0.0688  0.3951  0.6070
 2531SOL    HW214452   3.999  12.267  12.266  0.9834  0.7055 -2.0134
 2532SOL     OW14453   3.615   9.127   2.469 -0.6186  0.7791 -0.0544
 2532SOL    HW114454   3.573   9.086   2.543 -0.6869  0.1170 -0.4517
 2532SOL    HW214455   3.567   9.095   2.392 -1.0904  2.1045 -0.3411
 2533SOL     OW14456   3.012   8.460   5.689  0.2913  0.0620  0.2035
 2533SOL    HW114457   2.985   8.530   5.749 -0.2307 -0.5684  0.7092
 2533SOL    HW214458   2.985   8.491   5.603 -1.7527 -0.3751  0.6341
 2534SOL     OW14459   8.790   7.939   2.476  0.0809  0.6583  0.2719
 2534SOL    HW114460   8.771   7.846   2.473 -3.2401  1.1333  1.5158
 2534SOL    HW214461   8.760   7.973   2.392 -1.4412  0.9100  0.8735
 2535SOL     OW14462   3.680   8.500   5.183 -0.2535 -0.3104 -0.1451
 2535SOL    HW114463   3.751   8.465   5.237 -2.1242 -0.5979  2.3051
 2535SOL    HW214464   3.695   8.462   5.096  1.2995 -2.1985  0.8753
 2536SOL     OW14465   7.339   6.344   4.821 -0.0411  0.3260  0.0689
 2536SOL    HW114466   7.274   6.291   4.776  0.3328 -0.0661 -0.0118
 2536SOL    HW214467   7.393   6.281   4.869  1.2255  0.5015 -1.0587
 2537SOL     OW14468   4.008  12.055  11.708  0.1869  0.4817  0.0734
 2537SOL    HW114469   3.977  11.995  11.776  2.1472 -1.4416 -0.5987
 2537SOL    HW214470   4.091  12.089  11.742  1.2037 -0.5176 -1.2913
 2538SOL     OW14471   3.013   8.151  10.458  0.1057  0.1433  0.6575
 2538SOL    HW114472   3.092   8.096  10.458  0.7968  1.0903  2.1768
 2538SOL    HW214473   2.982   8.147  10.367  1.7617 -0.4331  0.0757
 2539SOL     OW14474   7.693   0.931  12.382 -1.0194 -0.1858  0.9193
 2539SOL    HW114475   7.692   0.917  12.288 -1.0059 -0.5633  0.9746
 2539SOL    HW214476   7.770   0.883  12.413 -0.4439  0.7648  0.9985
 2540SOL     OW14477   8.794   0.588   3.371  0.3896 -0.1595  0.6040
 2540SOL    HW114478   8.711   0.606   3.327  2.4286  3.0673 -2.4216
 2540SOL    HW214479   8.815   0.498   3.346 -0.5533  0.1747 -1.6676
 2541SOL     OW14480   3.785   0.765   4.073 -0.4711 -0.0835 -0.0570
 2541SOL    HW114481   3.755   0.677   4.048 -0.0954  0.1122 -1.3128
 2541SOL    HW214482   3.788   0.764   4.168 -0.8527 -1.3074 -0.0431
 2542SOL     OW14483   6.239   4.299   3.028 -0.3021 -0.4510 -0.4193
 2542SOL    HW114484   6.167   4.361   3.018 -1.1252 -1.4895 -1.1600
 2542SOL    HW214485   6.209   4.237   3.095  0.7024  0.1902  0.6561
 2543SOL     OW14486   8.119  11.833   7.397 -0.0297 -0.2811  0.6399
 2543SOL    HW114487   8.113  11.770   7.325 -0.0213  1.2962 -0.8324
 2543SOL    HW214488   8.072  11.792   7.470 -1.6230 -1.2294 -0.8282
 2544SOL     OW14489   0.869   3.917   6.098  0.0327  0.0615 -0.3851
 2544SOL    HW114490   0.948   3.880   6.058 -0.2786 -1.1343  0.0390
 2544SOL    HW214491   0.864   4.006   6.065  2.3896  0.6964  0.7552
 2545SOL     OW14492   1.136   2.890   5.807  0.0602  0.4138 -0.2952
 2545SOL    HW114493   1.083   2.968   5.789 -2.3187 -0.5781  1.7530
 2545SOL    HW214494   1.101   2.823   5.749 -0.4652 -0.0451  0.5261
 2546SOL     OW14495  12.526  11.340   0.528 -0.6120 -0.0945  0.2222
 2546SOL    HW114496  12.492  11.418   0.484  1.1200  0.5280 -0.0754
 2546SOL    HW214497  12.527  11.272   0.461  2.1761  0.8928 -0.8502
 2547SOL     OW14498   2.268   2.226   7.410 -0.6086  0.2672 -0.0455
 2547SOL    HW114499   2.302   2.200   7.324 -0.0204 -0.9697  0.5349
 2547SOL    HW214500   2.317   2.306   7.432 -3.5299  3.0103 -2.5420
 2548SOL     OW14501   3.949   3.587   1.573  0.1325  0.1566 -0.0249
 2548SOL    HW114502   3.878   3.530   1.604  1.3193 -0.5580  1.4925
 2548SOL    HW214503   3.962   3.649   1.645  1.3375 -0.0062 -0.0979
 2549SOL     OW14504   9.394   7.011   9.288 -0.5214  0.4193  0.2830
 2549SOL    HW114505   9.399   7.104   9.267 -0.7099 -0.0065 -1.9256
 2549SOL    HW214506   9.406   7.007   9.382 -0.6120  2.6830  0.4481
 2550SOL     OW14507   2.716   3.905  10.798  0.2012  0.0659  0.0462
 2550SOL    HW114508   2.708   3.957  10.718  0.0207  0.7561  0.5013
 2550SOL    HW214509   2.800   3.933  10.835  0.5270 -0.6242 -0.1544
 2551SOL     OW14510   2.475   2.715   9.730 -0.5358 -0.4883  0.3104
 2551SOL    HW114511   2.441   2.774   9.663 -0.3568 -0.1121  0.5481
 2551SOL    HW214512   2.521   2.647   9.680 -2.0372 -1.2927 -0.0440
 2552SOL     OW14513  10.461   1.542  10.878  0.3671  0.3517  0.2023
 2552SOL    HW114514  10.413   1.479  10.824 -0.9672  0.4272  1.2374
 2552SOL    HW214515  10.396   1.609  10.899  1.2258  1.0162  0.8005
 2553SOL     OW14516   2.960   8.629   2.067 -0.0155  0.1581 -0.7999
 2553SOL    HW114517   2.885   8.642   2.009 -0.0894  0.4960 -0.6300
 2553SOL    HW214518   2.970   8.713   2.112  0.5368  0.1504 -0.9072
 2554SOL     OW14519   6.347  11.868   2.497  0.1059  0.0365  0.1981
 2554SOL    HW114520   6.401  11.791   2.477  0.5387  0.2415  0.5455
 2554SOL    HW214521   6.370  11.932   2.429  2.5528  1.2134  1.9693
 2555SOL     OW14522   4.690  10.493  10.481 -0.1427  0.6518  0.3691
 2555SOL    HW114523   4.599  10.522  10.472 -0.0759  0.7979  0.1548
 2555SOL    HW214524   4.735  10.533  10.407 -0.1249 -0.3007 -0.1574
 2556SOL     OW14525   9.974   1.660   8.435  0.0761 -0.1056 -0.4420
 2556SOL    HW114526   9.954   1.727   8.500 -0.4985  0.4919 -1.2146
 2556SOL    HW214527  10.065   1.675   8.410 -0.1372  0.5819 -0.8245
 2557SOL     OW14528   3.787   7.518   5.259 -1.1893 -0.3589  0.0098
 2557SOL    HW114529   3.862   7.525   5.200 -0.2827 -1.1672  1.0260
 2557SOL    HW214530   3.810   7.576   5.332 -1.7485 -0.2906  0.1317
 2558SOL     OW14531   5.232   2.123   1.364  0.2287  0.1295  0.0024
 2558SOL    HW114532   5.183   2.126   1.446 -0.1782  0.4488 -0.2497
 2558SOL    HW214533   5.226   2.212   1.329 -0.7006 -0.3161 -1.0180
 2559SOL     OW14534   3.478   9.102   1.480  0.6404  0.0002  0.2064
 2559SOL    HW114535   3.527   9.141   1.409  1.9946 -2.6018 -0.4086
 2559SOL    HW214536   3.511   9.145   1.559  0.6376  1.4273 -0.5465
 2560SOL     OW14537   3.701  12.458  11.145  0.3536 -0.3124 -0.0996
 2560SOL    HW114538   3.655  12.510  11.211 -2.1715 -0.5263 -1.5411
 2560SOL    HW214539   3.758  12.400  11.195  1.8626  2.4501  1.6397
 2561SOL     OW14540   5.218   7.974   9.153 -0.3736 -0.1544 -0.6127
 2561SOL    HW114541   5.264   7.947   9.232 -0.0108  0.5831 -0.5608
 2561SOL    HW214542   5.136   8.012   9.184  0.0912  0.8127 -0.5232
 2562SOL     OW14543  12.470   2.920  12.510  0.2023  0.1249  0.3495
 2562SOL    HW114544  12.395   2.964  12.471  0.0702  0.0741  0.5455
 2562SOL    HW214545  12.476   2.837  12.464  0.6327  0.4647 -0.2295
 2563SOL     OW14546   3.724   5.517   4.214  0.2356 -0.1093  0.5262
 2563SOL    HW114547   3.630   5.512   4.232  0.3678  0.0985  1.3438
 2563SOL    HW214548   3.747   5.609   4.233  0.4263  0.0858 -0.6021
 2564SOL     OW14549   2.902  10.509   7.323 -0.4693 -0.3784  0.5063
 2564SOL    HW114550   2.813  10.479   7.346 -0.9369  1.1771  0.8164
 2564SOL    HW214551   2.891  10.554   7.239 -0.1933  0.8133  1.0949
 2565SOL     OW14552   6.698   8.816   8.305  0.4230 -0.4892  0.2073
 2565SOL    HW114553   6.687   8.863   8.388  2.1147  0.8241 -0.2660
 2565SOL    HW214554   6.640   8.862   8.244  0.7903 -0.0842  0.1576
 2566SOL     OW14555   5.719   2.555   4.959 -0.2168 -0.3045 -0.1004
 2566SOL    HW114556   5.715   2.501   4.880 -0.9811 -2.1227  1.0945
 2566SOL    HW214557   5.791   2.616   4.943 -0.1393 -0.8353 -2.0434
 2567SOL     OW14558   0.440  10.437   3.025  0.3071  0.6187 -0.5141
 2567SOL    HW114559   0.526  10.478   3.037  0.4623 -0.0449  0.9673
 2567SOL    HW214560   0.455  10.345   3.049 -0.8260  0.5193 -0.1387
 2568SOL     OW14561  10.954   9.142   7.347 -0.0218 -0.1695  0.0396
 2568SOL    HW114562  10.890   9.164   7.414 -0.0076  0.2279 -0.0750
 2568SOL    HW214563  10.953   9.217   7.287  0.4650 -0.2096 -0.0229
 2569SOL     OW14564   6.402   3.350   5.052 -0.1160  0.0712 -0.0509
 2569SOL    HW114565   6.379   3.302   5.132 -0.6606  1.9578  0.9776
 2569SOL    HW214566   6.325   3.403   5.032  0.0252 -0.3135 -1.8400
 2570SOL     OW14567  10.806   5.018   7.753  0.1222 -0.2343 -0.3178
 2570SOL    HW114568  10.845   4.943   7.708  1.0711  1.6419 -2.8235
 2570SOL    HW214569  10.871   5.087   7.746 -1.1357  1.1684  1.0568
 2571SOL     OW14570   7.231  11.948   7.352  0.0470 -0.0906 -0.2648
 2571SOL    HW114571   7.217  11.855   7.368 -0.4877  0.0546  0.1639
 2571SOL    HW214572   7.325  11.957   7.339  0.2767 -0.5169  0.9665
 2572SOL     OW14573   9.271   4.965   0.985  0.1415  0.1487 -0.1503
 2572SOL    HW114574   9.341   4.900   0.984  0.3598  0.3200  1.3445
 2572SOL    HW214575   9.282   5.014   0.904  1.1049 -0.4929 -0.4251
 2573SOL     OW14576   9.033   6.205   7.667  0.5073  0.2789  0.3021
 2573SOL    HW114577   9.085   6.216   7.746  1.8771  0.4510 -0.5953
 2573SOL    HW214578   9.080   6.138   7.616  0.1656  0.8401 -0.7852
 2574SOL     OW14579  10.167   3.938   5.745  0.0808 -0.4600  0.5962
 2574SOL    HW114580  10.078   3.964   5.768  0.4301  1.0992  0.3348
 2574SOL    HW214581  10.209   4.020   5.718  1.2438 -1.3508 -0.4323
 2575SOL     OW14582   2.061  11.768   3.545  0.1851  0.1446  0.1460
 2575SOL    HW114583   2.102  11.684   3.524  0.0815  0.1497 -0.0788
 2575SOL    HW214584   1.970  11.747   3.564  0.0443  0.2662 -0.3842
 2576SOL     OW14585   7.491   9.232   2.022  0.1182 -0.2782 -0.2654
 2576SOL    HW114586   7.398   9.223   2.044 -0.0092 -1.1782 -1.0990
 2576SOL    HW214587   7.536   9.170   2.081  0.1640 -0.0154 -0.0238
 2577SOL     OW14588   1.443  11.945   9.507  0.2539 -0.3161 -0.0659
 2577SOL    HW114589   1.498  11.962   9.583 -1.1700  1.6456  0.6162
 2577SOL    HW214590   1.397  11.864   9.528 -2.4058  1.6749  2.7113
 2578SOL     OW14591   9.358   5.438   7.606  0.6679 -0.2275  0.3798
 2578SOL    HW114592   9.371   5.518   7.555 -0.8058  1.2940  2.2333
 2578SOL    HW214593   9.281   5.456   7.661  1.2720 -2.2978  2.0762
 2579SOL     OW14594   5.312   2.112  11.205  0.1439 -0.0447  0.9340
 2579SOL    HW114595   5.375   2.136  11.138 -0.1156  0.9163  1.0288
 2579SOL    HW214596   5.362   2.061  11.269  0.7631  0.4926  0.8799
 2580SOL     OW14597  12.390   4.374   6.080  0.3992 -0.1237  0.1876
 2580SOL    HW114598  12.443   4.398   6.004 -1.3385 -0.5930 -1.2193
 2580SOL    HW214599  12.342   4.454   6.102  2.5500  0.6999  2.2938
 2581SOL     OW14600   9.358   7.706   9.772 -0.3174 -0.1444  0.0339
 2581SOL    HW114601   9.366   7.613   9.750 -1.6656 -0.4120  0.6286
 2581SOL    HW214602   9.308   7.708   9.853  2.2452  0.9724  1.7074
 2582SOL     OW14603   6.171   8.274   6.634  0.2903  0.6511 -0.3897
 2582SOL    HW114604   6.182   8.358   6.679 -0.0053 -0.5046  1.9937
 2582SOL    HW214605   6.076   8.264   6.626  0.1400 -0.6348  1.9348
 2583SOL     OW14606  12.028   5.006   8.330  0.6315  0.1506  0.1110
 2583SOL    HW114607  12.121   5.028   8.343  1.2143 -1.4819 -0.9245
 2583SOL    HW214608  12.002   4.962   8.410  0.6777  0.8162  0.4975
 2584SOL     OW14609  10.642   9.719   7.438 -0.7990 -0.3129  0.0655
 2584SOL    HW114610  10.623   9.625   7.438 -2.1454 -0.0645 -0.7965
 2584SOL    HW214611  10.696   9.733   7.360 -1.8306 -0.1624 -0.6391
 2585SOL     OW14612  12.539   7.156   1.440 -0.7145  0.2237 -0.1296
 2585SOL    HW114613  12.527   7.135   1.533 -0.8234 -0.6859 -0.3427
 2585SOL    HW214614  12.620   7.207   1.438 -1.1091  0.8952  0.5503
 2586SOL     OW14615   1.296   6.593   6.203 -0.1727 -0.3044  0.0064
 2586SOL    HW114616   1.336   6.520   6.156 -1.7518 -0.7325 -0.7182
 2586SOL    HW214617   1.365   6.623   6.263  0.8284 -1.7544 -0.3611
 2587SOL     OW14618  12.490   7.503  12.136  0.1193 -0.1746  0.1672
 2587SOL    HW114619  12.488   7.591  12.099  1.3616  0.5988  1.8242
 2587SOL    HW214620  12.582   7.477  12.130  0.2522 -0.2451  2.1288
 2588SOL     OW14621   5.068   9.512   7.732 -0.1500  0.3791  0.0227
 2588SOL    HW114622   5.130   9.549   7.796  0.7555 -0.6411 -0.2299
 2588SOL    HW214623   4.983   9.548   7.758  0.3176  0.6371  1.3000
 2589SOL     OW14624   5.331   3.594  10.738  1.1622 -0.0401 -0.3089
 2589SOL    HW114625   5.320   3.677  10.784  0.0712 -0.5642  0.4130
 2589SOL    HW214626   5.307   3.527  10.802  0.6293 -0.8387 -1.3039
 2590SOL     OW14627   1.964   8.349   7.120 -0.0482  0.0440 -0.2469
 2590SOL    HW114628   1.961   8.406   7.197  0.3523 -1.7017  1.1255
 2590SOL    HW214629   2.016   8.398   7.056  1.9652  0.4214  1.5762
 2591SOL     OW14630  12.549  11.584   0.174 -0.4369 -0.4747  0.3567
 2591SOL    HW114631  12.481  11.571   0.240 -0.0227 -0.4327  0.7960
 2591SOL    HW214632  12.546  11.505   0.120 -1.5305 -0.0292 -0.2711
 2592SOL     OW14633   9.593   8.372   8.860 -0.2879  0.2196 -0.0029
 2592SOL    HW114634   9.533   8.396   8.931  0.0088  0.3475  0.2069
 2592SOL    HW214635   9.669   8.335   8.905 -0.0725  0.3622 -0.2534
 2593SOL     OW14636   7.707   8.401   1.672 -0.1909 -0.4003  0.3412
 2593SOL    HW114637   7.792   8.391   1.630 -0.0557  2.6074 -0.3269
 2593SOL    HW214638   7.727   8.424   1.763 -0.4155 -2.3737  0.9447
 2594SOL     OW14639  10.207   8.339   7.957  0.1074 -0.2360  0.2144
 2594SOL    HW114640  10.127   8.302   7.994 -0.7829  0.7589 -0.6148
 2594SOL    HW214641  10.175   8.407   7.896  1.6071  0.7906  0.5202
 2595SOL     OW14642   1.372   6.178   7.824  0.1147 -0.3222 -0.4630
 2595SOL    HW114643   1.386   6.214   7.737  0.9101 -0.7076 -0.5037
 2595SOL    HW214644   1.459   6.179   7.865 -0.1264 -0.7715  0.0800
 2596SOL     OW14645   0.694   7.257   4.036  0.1797  0.2828  0.8332
 2596SOL    HW114646   0.621   7.312   4.064  0.5001  1.0323  0.2398
 2596SOL    HW214647   0.759   7.266   4.105  0.4084  1.0130  0.5298
 2597SOL     OW14648   9.496   3.943   0.645  0.1066 -0.7878 -0.0240
 2597SOL    HW114649   9.451   3.951   0.729  1.0358 -1.2429  0.5419
 2597SOL    HW214650   9.465   3.861   0.608 -0.5175 -0.4470 -0.2609
 2598SOL     OW14651   3.140   7.813   0.179 -0.3702 -0.0687 -0.2358
 2598SOL    HW114652   3.149   7.728   0.135  0.8904  0.2116 -0.5469
 2598SOL    HW214653   3.055   7.808   0.223 -0.6125 -1.2372 -0.7965
 2599SOL     OW14654   9.728  10.426   6.313 -0.1977 -0.4189 -0.0562
 2599SOL    HW114655   9.795  10.374   6.356 -0.1124  0.1126  0.4760
 2599SOL    HW214656   9.673  10.363   6.267 -1.2610 -1.2083  2.1487
 2600SOL     OW14657   2.043   2.729   7.150 -0.0038  0.0712  0.4185
 2600SOL    HW114658   2.090   2.767   7.075 -0.2138 -0.6390 -0.0829
 2600SOL    HW214659   2.106   2.668   7.189  0.0685  0.3634  0.7547
 2601SOL     OW14660   7.886   3.885   6.839  0.4168  0.0998  0.2698
 2601SOL    HW114661   7.906   3.793   6.857 -2.3094 -0.2918  1.8497
 2601SOL    HW214662   7.823   3.882   6.766 -0.1261  0.6331  0.6988
 2602SOL     OW14663   2.828   0.691   0.181 -0.5738 -0.2841 -0.0770
 2602SOL    HW114664   2.772   0.769   0.182 -0.3639 -0.1344  0.1012
 2602SOL    HW214665   2.909   0.719   0.224  0.3846  0.0659 -2.0069
 2603SOL     OW14666   5.748   7.913   8.622  0.1694 -0.2049  0.1966
 2603SOL    HW114667   5.801   7.861   8.561 -0.1050 -0.2784  0.0199
 2603SOL    HW214668   5.724   7.851   8.691 -0.2463 -0.3446 -0.0684
 2604SOL     OW14669   5.220   2.954  12.573  0.1226  0.0365 -0.1455
 2604SOL    HW114670   5.213   2.940  12.668  0.5442  1.5254  0.1359
 2604SOL    HW214671   5.142   2.913  12.537  0.9383 -2.3274  0.6111
 2605SOL     OW14672   9.542   7.704   5.270  0.7816  0.0117 -0.3733
 2605SOL    HW114673   9.566   7.787   5.228  0.9838 -0.6117 -1.5130
 2605SOL    HW214674   9.623   7.653   5.271  0.1007 -1.1692 -2.0576
 2606SOL     OW14675  10.212   9.364  10.557 -0.3094 -0.2793  0.6844
 2606SOL    HW114676  10.230   9.408  10.640 -0.6996 -0.1973  0.7273
 2606SOL    HW214677  10.159   9.426  10.508  1.0518  0.2527 -0.1914
 2607SOL     OW14678  12.395   1.484  11.656 -0.3758 -0.0846  0.5670
 2607SOL    HW114679  12.427   1.490  11.746 -1.3136 -1.0586  0.9888
 2607SOL    HW214680  12.324   1.549  11.652  2.1130  2.7966 -0.6527
 2608SOL     OW14681   6.964   2.371   8.698  0.2504 -0.3151 -0.6496
 2608SOL    HW114682   7.000   2.302   8.643  0.9950 -1.3593  1.0767
 2608SOL    HW214683   6.881   2.336   8.729  0.2570 -0.1079 -0.3923
 2609SOL     OW14684   5.848  11.569   5.798  0.4652  0.3489  0.3326
 2609SOL    HW114685   5.886  11.652   5.769  0.6362  0.7371  1.6064
 2609SOL    HW214686   5.813  11.588   5.885  1.1619 -1.1000  0.9646
 2610SOL     OW14687   6.453   4.653   8.296  0.5630  0.0370  0.0427
 2610SOL    HW114688   6.496   4.739   8.293 -0.3379  0.5193  0.2719
 2610SOL    HW214689   6.382   4.665   8.360  0.9216 -1.1177  0.6774
 2611SOL     OW14690  12.020   4.521  10.085  0.0018  0.2064 -0.2033
 2611SOL    HW114691  11.938   4.570  10.085  0.1641  0.4832  0.2979
 2611SOL    HW214692  12.012   4.460  10.011 -0.6833  0.1813 -0.1110
 2612SOL     OW14693  11.524   5.114  12.266  0.0681 -0.5454  0.0445
 2612SOL    HW114694  11.476   5.164  12.332 -0.6710 -2.1662  0.7884
 2612SOL    HW214695  11.609   5.157  12.261  0.2294 -0.4665  2.2343
 2613SOL     OW14696   2.980   5.046   5.515 -0.2647 -0.2081 -0.1934
 2613SOL    HW114697   2.916   5.107   5.481  0.2239 -0.4868 -1.6787
 2613SOL    HW214698   3.065   5.084   5.491  0.0486 -1.3877 -1.0451
 2614SOL     OW14699   2.028   9.467   0.908 -0.6210  0.4379  0.4363
 2614SOL    HW114700   2.031   9.562   0.916  0.2508  0.3670  1.1728
 2614SOL    HW214701   1.979   9.437   0.985 -0.9212  0.2878  0.1904
 2615SOL     OW14702   6.116   0.355  10.583  0.0401 -0.0949  0.2870
 2615SOL    HW114703   6.047   0.418  10.603 -0.7030 -0.7904 -0.0521
 2615SOL    HW214704   6.178   0.364  10.656 -0.1889  0.8255  0.3792
 2616SOL     OW14705   5.471   1.753   8.753 -0.3783  0.0116  0.2370
 2616SOL    HW114706   5.491   1.745   8.847  0.4000  0.2762  0.1045
 2616SOL    HW214707   5.556   1.750   8.710 -0.8327 -1.7325 -0.6128
 2617SOL     OW14708   6.676   8.198   8.960 -0.2066  0.0514 -0.0014
 2617SOL    HW114709   6.729   8.255   9.014 -1.7343  3.5187 -1.8566
 2617SOL    HW214710   6.653   8.251   8.883 -4.2688 -1.9895 -0.4976
 2618SOL     OW14711  12.423   6.654   2.239  0.3574  0.1335  0.1978
 2618SOL    HW114712  12.350   6.604   2.277 -0.3824  0.2340 -1.0403
 2618SOL    HW214713  12.455   6.709   2.311 -0.4160 -0.3260  0.9085
 2619SOL     OW14714   5.951   5.912   9.263 -0.2334 -0.1745 -0.1640
 2619SOL    HW114715   6.030   5.908   9.210 -0.3341  1.0938 -0.4311
 2619SOL    HW214716   5.885   5.863   9.213 -0.0561  0.1547 -0.7254
 2620SOL     OW14717  11.433  12.287   3.350  0.1890  0.1539  0.3546
 2620SOL    HW114718  11.517  12.259   3.385  1.6862  1.7948 -1.6766
 2620SOL    HW214719  11.385  12.320   3.426  1.7014 -0.0327  1.4349
 2621SOL     OW14720   2.743  10.909   3.542  0.3420 -0.2694 -0.8691
 2621SOL    HW114721   2.822  10.958   3.521  0.2010  0.4852  0.2605
 2621SOL    HW214722   2.706  10.954   3.618 -0.4513 -1.4074 -0.5459
 2622SOL     OW14723   8.479   2.740   8.266  0.0230 -0.0912  0.2431
 2622SOL    HW114724   8.386   2.719   8.264  0.1503 -0.7265  0.6922
 2622SOL    HW214725   8.504   2.747   8.174 -0.0637 -1.8136  0.0524
 2623SOL     OW14726   8.491   1.691   4.158 -0.0277 -0.2201  0.0108
 2623SOL    HW114727   8.529   1.777   4.178  2.0209 -1.2839  0.9348
 2623SOL    HW214728   8.488   1.646   4.242 -0.8347 -1.1709 -0.5033
 2624SOL     OW14729   1.086   2.252   8.217 -0.1949 -0.1246 -0.3488
 2624SOL    HW114730   1.034   2.173   8.212  1.4342 -1.4254  1.5043
 2624SOL    HW214731   1.123   2.262   8.129  0.3839 -2.0448 -0.3738
 2625SOL     OW14732   3.252   6.028   7.565  0.2774 -0.1396  0.5152
 2625SOL    HW114733   3.219   6.079   7.491  0.5310  0.3263  0.7229
 2625SOL    HW214734   3.312   5.965   7.526  0.0453 -0.2108  0.2708
 2626SOL     OW14735   7.448   9.952   4.819 -0.2021 -0.5260  0.2539
 2626SOL    HW114736   7.419   9.990   4.735 -1.1942  0.3085  0.9445
 2626SOL    HW214737   7.534   9.914   4.799 -0.2579 -0.0438 -1.0652
 2627SOL     OW14738   3.261   0.986   9.822 -0.4189  0.4533  0.4431
 2627SOL    HW114739   3.176   1.029   9.832 -0.2322  0.7572  0.7558
 2627SOL    HW214740   3.315   1.051   9.778 -0.5539 -0.0122 -0.4376
 2628SOL     OW14741   1.682   6.809   7.773 -0.2881  0.1012 -0.1550
 2628SOL    HW114742   1.712   6.893   7.806  0.5085 -0.6237  1.0348
 2628SOL    HW214743   1.762   6.766   7.741 -0.9392  0.5294 -2.5399
 2629SOL     OW14744   3.710  10.665   6.703 -0.1783  0.2391  0.0080
 2629SOL    HW114745   3.636  10.650   6.762 -1.6303  0.5301 -1.6275
 2629SOL    HW214746   3.721  10.582   6.657 -1.0208  0.8287 -1.3377
 2630SOL     OW14747   3.877   6.785   1.528  0.1510  0.8882  0.2592
 2630SOL    HW114748   3.828   6.837   1.464 -0.7447  1.4501  1.3664
 2630SOL    HW214749   3.917   6.850   1.585  2.4711  0.4484 -0.7767
 2631SOL     OW14750   9.362   0.115   2.617 -0.3334 -0.0551 -0.4136
 2631SOL    HW114751   9.283   0.165   2.637 -0.8995 -1.0452 -0.0847
 2631SOL    HW214752   9.384   0.071   2.699 -0.4317 -1.1219 -0.9434
 2632SOL     OW14753   4.993  11.825  12.063 -0.5135  0.3809 -0.4408
 2632SOL    HW114754   5.034  11.898  12.017  0.8485 -0.8448 -1.2813
 2632SOL    HW214755   4.919  11.799  12.008  0.1851 -0.0958 -1.1819
 2633SOL     OW14756   6.484  10.813   1.125 -0.4640 -0.0697  0.0008
 2633SOL    HW114757   6.420  10.815   1.196  1.3313 -0.6177  1.7090
 2633SOL    HW214758   6.452  10.880   1.063 -1.6681  1.0088  1.6840
 2634SOL     OW14759   4.953  10.931   3.753 -0.5117 -0.5715  0.2279
 2634SOL    HW114760   4.883  10.869   3.770 -0.1673 -0.9459  0.2883
 2634SOL    HW214761   4.971  10.922   3.659 -0.8071 -0.1947  0.1315
 2635SOL     OW14762  10.579   7.713   4.905 -0.2390  0.1901  0.4535
 2635SOL    HW114763  10.507   7.649   4.902 -0.2004  0.1872 -0.9484
 2635SOL    HW214764  10.658   7.660   4.891 -0.3250  0.6702 -2.3931
 2636SOL     OW14765   6.063   0.223   1.033  0.0151  0.2500  0.0467
 2636SOL    HW114766   6.036   0.193   0.946  0.4356  0.6013 -0.2101
 2636SOL    HW214767   5.981   0.232   1.082 -0.2890  0.7328 -0.5383
 2637SOL     OW14768   4.679   0.273   6.525  0.3580 -0.1858  0.1307
 2637SOL    HW114769   4.655   0.365   6.515  1.8659  0.3265  0.9617
 2637SOL    HW214770   4.645   0.231   6.445  1.0798  1.4022 -1.0672
 2638SOL     OW14771   4.213   3.214   9.651 -0.4307 -0.0118  0.3695
 2638SOL    HW114772   4.223   3.264   9.569 -2.6190  0.7622  0.5007
 2638SOL    HW214773   4.151   3.266   9.702 -1.5369 -2.0607  1.1950
 2639SOL     OW14774   0.362  10.062  11.451 -0.6953  0.3820 -0.5611
 2639SOL    HW114775   0.431  10.013  11.406 -1.3689 -1.2324  0.1078
 2639SOL    HW214776   0.374  10.041  11.544 -1.0475  1.4463 -0.2635
 2640SOL     OW14777   4.573   7.160   4.033 -0.0633 -0.2528 -0.2240
 2640SOL    HW114778   4.604   7.087   3.979 -0.1470  0.3774 -1.1505
 2640SOL    HW214779   4.505   7.202   3.980  0.2597  0.7384  0.1156
 2641SOL     OW14780   2.226   8.825   4.529 -0.1437  0.2473  0.0238
 2641SOL    HW114781   2.288   8.759   4.560  0.4592  1.8718  2.5388
 2641SOL    HW214782   2.141   8.781   4.531  0.5893 -1.3573 -1.4155
 2642SOL     OW14783   8.661   9.831  12.159 -0.4502  0.1888 -0.0761
 2642SOL    HW114784   8.613   9.752  12.133  0.7714 -1.4243  2.1745
 2642SOL    HW214785   8.601   9.878  12.216 -0.2080 -0.6804  0.9369
 2643SOL     OW14786   1.414  12.233   0.540 -0.4463  0.0535  0.0699
 2643SOL    HW114787   1.478  12.273   0.481  0.4829 -0.6408  0.5771
 2643SOL    HW214788   1.361  12.177   0.484  1.0638 -1.3894 -0.0091
 2644SOL     OW14789   3.867   4.071   9.530 -0.2087 -0.7004  0.0164
 2644SOL    HW114790   3.938   4.007   9.525 -0.4787 -1.1134  1.2015
 2644SOL    HW214791   3.900   4.147   9.482  1.0047 -0.9190  0.4628
 2645SOL     OW14792   2.029   8.285   0.041  0.1947 -0.2031  0.4298
 2645SOL    HW114793   2.057   8.282   0.133  0.8774  0.3073  0.2488
 2645SOL    HW214794   1.935   8.267   0.044 -0.1205  1.4019  1.3985
 2646SOL     OW14795  11.106   3.308   4.750 -0.3007  0.2003 -0.0985
 2646SOL    HW114796  11.046   3.369   4.794 -1.2415 -0.3786 -0.5364
 2646SOL    HW214797  11.155   3.268   4.822  0.5597  1.6730  0.1774
 2647SOL     OW14798   0.809  10.027   4.271 -0.4922 -0.2288 -0.3906
 2647SOL    HW114799   0.836   9.976   4.348 -1.0043  1.8124  1.2133
 2647SOL    HW214800   0.716  10.008   4.262  0.1569 -3.0927 -2.6799
 2648SOL     OW14801   6.293   1.543  12.576  0.4014  0.5735  0.1063
 2648SOL    HW114802   6.370   1.555  12.520  0.5404 -2.8086 -0.6733
 2648SOL    HW214803   6.327   1.501  12.654 -0.4842  0.3448  0.3807
 2649SOL     OW14804   9.823   3.223   3.532 -0.0921  0.0643 -0.0680
 2649SOL    HW114805   9.863   3.287   3.592 -1.1480  0.2849  0.4168
 2649SOL    HW214806   9.887   3.214   3.461  1.0849 -0.0288  0.9708
 2650SOL     OW14807   6.042  11.115   1.927 -0.0674 -0.4788 -0.2252
 2650SOL    HW114808   6.093  11.168   1.988 -0.6430 -0.5829  0.3530
 2650SOL    HW214809   5.968  11.084   1.978  0.2060 -1.7727 -0.5827
 2651SOL     OW14810   8.946   4.106   6.911  0.5378 -0.5074 -0.1052
 2651SOL    HW114811   8.966   4.016   6.936  1.6806 -1.1050 -2.7982
 2651SOL    HW214812   8.927   4.101   6.817 -0.9913  1.8497 -0.0092
 2652SOL     OW14813   2.313  12.480   0.530 -0.6956  0.0681  0.2310
 2652SOL    HW114814   2.400  12.444   0.510 -0.1494  1.8143 -0.7999
 2652SOL    HW214815   2.332  12.557   0.584 -1.7333 -0.3421  1.2193
 2653SOL     OW14816   7.177  12.030   7.787 -0.2363  0.4267 -0.2613
 2653SOL    HW114817   7.089  11.993   7.786  0.0609 -0.3265 -1.7443
 2653SOL    HW214818   7.235  11.955   7.799  0.2790  0.6667 -1.1296
 2654SOL     OW14819   9.057   9.117   9.889 -0.0770  0.2838 -0.1747
 2654SOL    HW114820   9.049   9.066   9.970 -0.1798  0.5888  0.0096
 2654SOL    HW214821   9.031   9.056   9.820  1.0015 -0.2947 -0.0928
 2655SOL     OW14822  10.539   6.328   6.018 -0.0971 -0.6903 -0.2489
 2655SOL    HW114823  10.593   6.382   5.960  0.6203  0.8754  1.7437
 2655SOL    HW214824  10.579   6.241   6.014  1.8231  0.1242  0.1740
 2656SOL     OW14825   8.858   2.386   9.755 -0.1570 -0.0095  0.3074
 2656SOL    HW114826   8.938   2.420   9.715 -0.3617  0.0414 -0.0619
 2656SOL    HW214827   8.888   2.343   9.835  0.0641  1.4499  1.0527
 2657SOL     OW14828   5.517   7.660  11.080 -0.0910  0.0676 -0.1629
 2657SOL    HW114829   5.556   7.623  11.001 -2.2568  0.4264 -1.4830
 2657SOL    HW214830   5.510   7.753  11.062 -1.0152  0.0909  0.2331
 2658SOL     OW14831   4.568   1.841   3.134 -0.3435  0.2040 -0.0335
 2658SOL    HW114832   4.538   1.756   3.167 -3.0424  0.5955 -1.2233
 2658SOL    HW214833   4.588   1.825   3.042  0.5251  0.5657  0.0885
 2659SOL     OW14834   8.313   9.317  12.445  0.3953  0.1012 -0.0464
 2659SOL    HW114835   8.227   9.307  12.403  0.2506 -1.8269  0.5786
 2659SOL    HW214836   8.326   9.411  12.451 -0.7879  0.4500 -1.9297
 2660SOL     OW14837   9.635   7.493   3.474  0.3328 -0.2790  0.2554
 2660SOL    HW114838   9.644   7.453   3.561 -0.7581 -2.0364 -0.3845
 2660SOL    HW214839   9.542   7.486   3.455 -0.0007  2.9309  0.1929
 2661SOL     OW14840   1.034   5.367  12.006 -0.1241 -0.2947  0.0005
 2661SOL    HW114841   0.961   5.379  11.944  0.2941 -0.5837 -0.5593
 2661SOL    HW214842   1.003   5.406  12.087  0.4485  3.0014 -1.2028
 2662SOL     OW14843   1.443  11.997   1.271 -0.2361 -0.6291 -0.4772
 2662SOL    HW114844   1.453  12.010   1.176  0.3168 -0.7738 -0.4401
 2662SOL    HW214845   1.408  12.080   1.302 -2.4227 -1.2335 -1.0902
 2663SOL     OW14846   7.350   0.435   5.690 -0.2875 -0.1175 -0.3034
 2663SOL    HW114847   7.263   0.463   5.717 -0.0393 -0.4535  0.8850
 2663SOL    HW214848   7.352   0.452   5.596 -2.3772 -2.0281 -0.7867
 2664SOL     OW14849  10.936   7.763   1.765  0.8653 -0.5001  0.0205
 2664SOL    HW114850  10.955   7.755   1.858 -0.8240 -1.1511  0.3484
 2664SOL    HW214851  10.853   7.716   1.754  1.1883 -0.6876 -1.8623
 2665SOL     OW14852   7.233   7.892  10.753  0.1679 -0.1129 -0.0110
 2665SOL    HW114853   7.295   7.956  10.718  1.4700  0.1495  2.5451
 2665SOL    HW214854   7.147   7.934  10.744  0.6599  0.6778 -1.1590
 2666SOL     OW14855   8.887   0.493  10.589  0.0377 -0.3287 -0.2837
 2666SOL    HW114856   8.956   0.429  10.605  0.2856  0.2154  0.9230
 2666SOL    HW214857   8.880   0.542  10.671 -2.7969 -1.3231  0.1851
 2667SOL     OW14858   7.805   2.998   8.826 -0.2319 -0.0095  0.2753
 2667SOL    HW114859   7.743   3.067   8.801  0.5109  0.7467  0.4892
 2667SOL    HW214860   7.885   3.044   8.849 -0.1400 -0.8350  1.7687
 2668SOL     OW14861  11.543   1.756   5.231  0.3032 -0.3511  0.1914
 2668SOL    HW114862  11.463   1.747   5.179  1.1438  1.3235 -1.5577
 2668SOL    HW214863  11.595   1.678   5.210  0.5078  0.1654 -1.3525
 2669SOL     OW14864   4.455   8.507   6.951  0.1799 -0.0112  0.0000
 2669SOL    HW114865   4.397   8.434   6.929  1.2712 -1.1844  0.8724
 2669SOL    HW214866   4.543   8.475   6.932  0.7618  0.7093  1.3391
 2670SOL     OW14867   8.717   8.322  12.213  0.4094 -0.2154  0.0012
 2670SOL    HW114868   8.651   8.262  12.177 -0.5857  1.4595 -1.1015
 2670SOL    HW214869   8.706   8.315  12.308 -0.3481 -1.0361 -0.1290
 2671SOL     OW14870   6.983   9.126   2.110  0.6478 -0.0646  0.3644
 2671SOL    HW114871   6.897   9.127   2.153  0.0633 -0.7737 -0.7446
 2671SOL    HW214872   6.963   9.130   2.017  1.8456  0.1058  0.0995
 2672SOL     OW14873   8.666   8.293   0.958  0.5498  0.0858 -0.0649
 2672SOL    HW114874   8.678   8.337   1.042 -0.8124 -1.0121  0.7593
 2672SOL    HW214875   8.750   8.303   0.913  1.3449  0.6196  1.4644
 2673SOL     OW14876   4.194   3.601   8.791  0.1031  0.0725  0.3077
 2673SOL    HW114877   4.108   3.619   8.830  0.5121 -0.0685  1.3068
 2673SOL    HW214878   4.240   3.550   8.857  0.6425 -0.6264 -0.5875
 2674SOL     OW14879  10.328  11.148  11.430 -0.0740 -0.2333 -0.1604
 2674SOL    HW114880  10.323  11.113  11.519 -0.7423  2.3761  0.9137
 2674SOL    HW214881  10.418  11.179  11.422 -0.5336  1.3360  0.3976
 2675SOL     OW14882   2.894   8.041  11.381  0.7497  0.8601  0.3814
 2675SOL    HW114883   2.907   8.128  11.418 -1.7502  0.3818  2.6835
 2675SOL    HW214884   2.932   7.982  11.446 -0.0058  0.1453  0.1834
 2676SOL     OW14885   1.932   3.548   8.667 -0.0079  0.3721 -0.0961
 2676SOL    HW114886   2.010   3.495   8.675  0.9283  1.6068 -0.6609
 2676SOL    HW214887   1.881   3.506   8.598  1.2662  0.7963 -1.3619
 2677SOL     OW14888   3.343  10.761   3.974  0.4660  0.1309 -0.1279
 2677SOL    HW114889   3.288  10.727   4.045  0.5236  0.7952  0.2367
 2677SOL    HW214890   3.289  10.751   3.896  1.1832 -2.6125 -0.3839
 2678SOL     OW14891   9.658   1.876   5.508  0.0602 -0.3151 -0.0881
 2678SOL    HW114892   9.745   1.848   5.482  0.8459  0.5023  1.5083
 2678SOL    HW214893   9.663   1.972   5.509 -0.2699 -0.2669  1.7187
 2679SOL     OW14894   8.439  11.839   5.314  0.5101  0.3682 -0.2493
 2679SOL    HW114895   8.380  11.772   5.348  0.8319  0.6466  0.8870
 2679SOL    HW214896   8.463  11.891   5.390  0.0314  1.9775 -1.1476
 2680SOL     OW14897  11.981   4.214   9.203 -0.0989  0.0658  0.4347
 2680SOL    HW114898  11.938   4.233   9.286 -0.8819  0.3302 -0.0148
 2680SOL    HW214899  12.074   4.215   9.223 -0.2936 -2.0125  1.7724
 2681SOL     OW14900   9.621   6.381   5.977 -0.2458  0.0673  0.2518
 2681SOL    HW114901   9.587   6.428   6.053 -0.5004 -0.2806  0.3539
 2681SOL    HW214902   9.558   6.398   5.907 -0.7832 -0.7897  0.5108
 2682SOL     OW14903   5.397   5.104  12.102 -0.2802  0.0696  0.5818
 2682SOL    HW114904   5.398   5.084  12.196 -0.1657  1.6097  0.9262
 2682SOL    HW214905   5.312   5.143  12.086 -0.2287 -0.0196  0.0643
 2683SOL     OW14906   1.179  11.033  12.042 -0.4148  0.3044 -0.0704
 2683SOL    HW114907   1.119  11.013  11.969 -0.0894  0.1484 -0.2959
 2683SOL    HW214908   1.219  11.117  12.018  0.1668 -0.0576 -0.3790
 2684SOL     OW14909   4.674   0.970   1.292  0.5469  0.4374  0.3407
 2684SOL    HW114910   4.748   0.914   1.317 -0.1272 -0.2539  0.8301
 2684SOL    HW214911   4.597   0.927   1.330 -0.1483  0.9862 -0.4102
 2685SOL     OW14912   4.937   4.303   8.185  0.0644  0.3112 -0.0350
 2685SOL    HW114913   4.885   4.224   8.168  0.0648  0.3750 -0.3315
 2685SOL    HW214914   4.872   4.371   8.201  0.0012  0.8071 -2.1880
 2686SOL     OW14915   8.771  10.571   0.701  0.2115  0.1217 -0.6795
 2686SOL    HW114916   8.711  10.580   0.776  0.0874 -0.1617 -0.7442
 2686SOL    HW214917   8.721  10.519   0.637  0.0144  1.0214 -1.2763
 2687SOL     OW14918   1.474   0.120   2.583  0.0862 -0.2577  0.1242
 2687SOL    HW114919   1.482   0.215   2.591 -1.2311 -0.1970  1.0732
 2687SOL    HW214920   1.547   0.095   2.528  0.5019  1.3027 -0.0979
 2688SOL     OW14921   7.359   8.999   3.159  0.1367 -0.0680  0.4435
 2688SOL    HW114922   7.438   9.024   3.110  0.8716 -1.5810  0.7856
 2688SOL    HW214923   7.317   9.082   3.180  1.0104  0.7226 -0.7768
 2689SOL     OW14924   0.456   9.009   1.694  0.1974  0.5101 -0.0600
 2689SOL    HW114925   0.376   9.038   1.649 -0.4862  0.1896  0.9187
 2689SOL    HW214926   0.500   9.091   1.718  0.8439  0.6922 -1.7290
 2690SOL     OW14927   6.457   6.481   7.233 -0.2201 -0.7732 -0.1813
 2690SOL    HW114928   6.458   6.536   7.312  1.3721 -0.6286 -0.2670
 2690SOL    HW214929   6.385   6.516   7.180 -0.5960 -0.1596  0.7148
 2691SOL     OW14930   3.425  10.961  10.590  0.5140  0.5615 -0.0970
 2691SOL    HW114931   3.491  10.954  10.659  0.9082 -2.0673 -0.6513
 2691SOL    HW214932   3.387  11.048  10.602  3.4983  1.8583  0.7314
 2692SOL     OW14933  11.488   7.716   0.030 -0.0537  0.3800  0.2558
 2692SOL    HW114934  11.549   7.754   0.093  0.3644  2.1284 -1.1033
 2692SOL    HW214935  11.451   7.792  -0.016 -1.7537 -0.7365 -0.3260
 2693SOL     OW14936   4.084   2.663   0.613 -0.2595  0.2586  0.9892
 2693SOL    HW114937   4.128   2.581   0.639 -1.2140 -0.4062  0.5696
 2693SOL    HW214938   4.069   2.654   0.519 -0.5493  0.8300  0.9750
 2694SOL     OW14939   8.463   7.955  10.847 -0.2351 -0.3901 -0.0741
 2694SOL    HW114940   8.462   7.870  10.892  0.1512 -0.0503  0.5772
 2694SOL    HW214941   8.382   7.955  10.795 -0.0664 -1.3026 -0.3579
 2695SOL     OW14942  10.957  11.541   1.345 -0.6910  0.0140  0.0647
 2695SOL    HW114943  11.008  11.461   1.352 -0.8494 -0.0603  0.3575
 2695SOL    HW214944  10.866  11.512   1.348 -0.7492  0.2374  0.5739
 2696SOL     OW14945   2.907   5.302  12.005  0.7582  0.3619 -0.6220
 2696SOL    HW114946   2.922   5.218  12.048  1.2095  0.9908  0.4981
 2696SOL    HW214947   2.911   5.367  12.076  0.4004  1.3338 -1.4518
 2697SOL     OW14948   5.194   6.247   9.775  0.5969  0.4712 -0.1315
 2697SOL    HW114949   5.154   6.232   9.861 -0.7483  0.7979 -0.6763
 2697SOL    HW214950   5.250   6.171   9.761 -0.0288 -0.1233  0.5521
 2698SOL     OW14951   3.307  10.959   4.506  0.2478 -0.5300  0.0035
 2698SOL    HW114952   3.295  10.914   4.423  0.1369 -0.1631 -0.1782
 2698SOL    HW214953   3.230  10.935   4.558 -0.4087  0.3993 -0.5213
 2699SOL     OW14954   4.041   9.912   8.935  0.0487 -0.4622  0.4258
 2699SOL    HW114955   4.134   9.908   8.913 -0.4450 -0.1405 -2.0148
 2699SOL    HW214956   4.000   9.845   8.879 -1.1662 -0.7699  1.6284
 2700SOL     OW14957   2.323  10.360   5.352 -0.3762 -0.1035 -0.0753
 2700SOL    HW114958   2.381  10.284   5.353 -1.5570 -1.0204  1.0033
 2700SOL    HW214959   2.310  10.382   5.444  2.5270  3.5144 -0.2721
 2701SOL     OW14960   2.224   5.734   3.053 -0.3690  0.1539  0.1685
 2701SOL    HW114961   2.312   5.762   3.026 -0.4709  0.9014  0.5859
 2701SOL    HW214962   2.185   5.699   2.973  1.2834 -2.8777  0.5359
 2702SOL     OW14963   2.425   0.405   7.733 -0.3269 -0.2121 -0.0447
 2702SOL    HW114964   2.389   0.318   7.719  0.3488 -0.6866  1.0751
 2702SOL    HW214965   2.422   0.446   7.646 -0.9091 -1.2426 -0.5277
 2703SOL     OW14966   2.643   3.309  10.873 -0.4394  0.1634 -0.0011
 2703SOL    HW114967   2.645   3.348  10.960  1.7128  0.6468 -0.2123
 2703SOL    HW214968   2.731   3.323  10.838 -0.5101 -2.1218 -1.3201
 2704SOL     OW14969   7.712  11.865   7.534 -0.0593 -0.6566 -0.4306
 2704SOL    HW114970   7.777  11.924   7.573 -0.3304  0.9363 -2.1913
 2704SOL    HW214971   7.671  11.821   7.608 -0.7134  2.3233  1.1340
 2705SOL     OW14972  10.994   7.091   4.722  0.6083  0.3912  0.8002
 2705SOL    HW114973  10.996   7.127   4.811 -0.3796  2.7308 -0.0442
 2705SOL    HW214974  11.082   7.106   4.688  0.0169  2.9484  0.1908
 2706SOL     OW14975   7.444  10.324   9.471  0.2586  0.4099  0.5274
 2706SOL    HW114976   7.443  10.300   9.378 -1.2233 -0.8353  0.8268
 2706SOL    HW214977   7.537  10.323   9.495  0.7713  1.8913 -1.1812
 2707SOL     OW14978  11.143   0.698   3.923 -0.2573  0.0902 -0.4088
 2707SOL    HW114979  11.181   0.688   4.011 -1.3602 -0.2893  0.0484
 2707SOL    HW214980  11.214   0.734   3.870  0.6815 -0.4481  0.4412
 2708SOL     OW14981   1.226   0.341   3.819 -0.0274 -0.0607 -0.1577
 2708SOL    HW114982   1.293   0.394   3.863  0.3063  0.1010 -0.8475
 2708SOL    HW214983   1.259   0.330   3.730 -0.7037 -0.3686 -0.3773
 2709SOL     OW14984   2.468   4.198   9.560  0.0739 -0.9926 -0.0150
 2709SOL    HW114985   2.487   4.122   9.616  0.7063 -0.9375 -0.1472
 2709SOL    HW214986   2.546   4.254   9.569 -0.1230 -0.6540 -0.4060
 2710SOL     OW14987   6.283  11.038   9.001 -0.4092 -0.0851 -0.2156
 2710SOL    HW114988   6.304  11.131   8.994  2.3960 -0.6873 -1.1212
 2710SOL    HW214989   6.261  11.011   8.912 -1.2345 -0.3136  0.0449
 2711SOL     OW14990   9.210   1.889   5.317  0.5443  0.0102 -0.5599
 2711SOL    HW114991   9.182   1.831   5.247  1.3055 -2.3777  0.9827
 2711SOL    HW214992   9.148   1.962   5.314 -2.8463 -2.6131 -0.4018
 2712SOL     OW14993   9.710   7.810  10.164 -0.3101  0.2974  0.0083
 2712SOL    HW114994   9.776   7.747  10.135  1.1794  1.9231 -0.3181
 2712SOL    HW214995   9.722   7.814  10.259 -0.0752  0.4355 -0.0261
 2713SOL     OW14996   3.201  11.291  11.366 -0.2276 -0.0229  0.6659
 2713SOL    HW114997   3.256  11.364  11.337  0.0924 -0.5316 -0.0226
 2713SOL    HW214998   3.262  11.220  11.384 -0.4932  0.0476  1.8859
 2714SOL     OW14999  12.061   5.135   6.123  0.1689 -0.2880  0.2422
 2714SOL    HW115000  12.128   5.068   6.137  0.5029 -0.0109 -0.0317
 2714SOL    HW215001  12.087   5.180   6.043  1.8663  2.4514  2.1715
 2715SOL     OW15002   9.166   6.393   6.853 -0.5908 -0.1772 -0.0888
 2715SOL    HW115003   9.172   6.341   6.773  0.3062 -0.0492 -0.1107
 2715SOL    HW215004   9.183   6.331   6.924 -0.2684 -0.0670 -0.0689
 2716SOL     OW15005   4.868  11.755   5.248 -0.1830  0.3079  0.2320
 2716SOL    HW115006   4.889  11.845   5.223  0.0190  0.6638  1.5760
 2716SOL    HW215007   4.792  11.764   5.306 -0.8553 -0.4998 -0.5036
 2717SOL     OW15008   5.020   9.688   5.765 -0.2545 -0.0801 -0.1905
 2717SOL    HW115009   5.015   9.775   5.806 -1.8620 -0.6011  0.8516
 2717SOL    HW215010   5.037   9.706   5.673  1.4676  1.2307  0.3238
 2718SOL     OW15011  11.919   2.282  10.143  0.1420 -0.1897 -0.4602
 2718SOL    HW115012  11.908   2.200  10.095 -0.1047 -1.8663  2.2847
 2718SOL    HW215013  12.001   2.272  10.190 -0.8428  0.2835  1.4504
 2719SOL     OW15014  11.061   9.382   5.602 -0.0294  0.6176 -0.0588
 2719SOL    HW115015  11.083   9.309   5.660 -0.4214  0.8467  0.3796
 2719SOL    HW215016  11.091   9.353   5.516  0.7406  0.3592  0.2821
 2720SOL     OW15017   8.535   1.142   2.642  0.3312 -0.0971 -0.4076
 2720SOL    HW115018   8.552   1.164   2.551 -2.3775 -0.2498 -1.0337
 2720SOL    HW215019   8.493   1.220   2.679 -0.3364 -0.7054  0.1578
 2721SOL     OW15020  12.105   4.854   9.846  0.8609  0.1167  0.0393
 2721SOL    HW115021  12.010   4.840   9.841  0.9468 -0.0159 -2.1977
 2721SOL    HW215022  12.115   4.930   9.903 -0.4830 -0.6060  1.3118
 2722SOL     OW15023   2.752  10.124   5.658 -0.2643 -0.6991 -0.8988
 2722SOL    HW115024   2.835  10.089   5.689  0.5124  2.2702  0.7676
 2722SOL    HW215025   2.748  10.213   5.694 -4.3784 -0.8390 -0.4880
 2723SOL     OW15026   4.898   4.140   4.543  0.0138  0.4431 -0.9591
 2723SOL    HW115027   4.813   4.164   4.507 -0.2639  0.7180 -0.1244
 2723SOL    HW215028   4.913   4.202   4.614  0.0445 -0.7957  0.1528
 2724SOL     OW15029  10.252   1.649   2.673  0.3352  0.1263 -0.4327
 2724SOL    HW115030  10.227   1.643   2.581 -0.1179 -1.6286 -0.2240
 2724SOL    HW215031  10.348   1.659   2.670  0.3933 -0.5148 -1.0869
 2725SOL     OW15032   9.990   1.448   7.915  0.0324  0.4371 -0.4783
 2725SOL    HW115033   9.994   1.517   7.850  1.9459  0.0758 -0.8039
 2725SOL    HW215034  10.081   1.420   7.926 -0.0373  1.1364  3.0674
 2726SOL     OW15035   6.543   5.147   0.574 -0.2744  0.0392 -0.6930
 2726SOL    HW115036   6.571   5.109   0.657 -0.1094  1.7078  0.0586
 2726SOL    HW215037   6.453   5.117   0.562 -0.2810 -0.2580  0.0772
 2727SOL     OW15038   8.722  11.257   3.498 -0.9477 -0.0573 -0.0962
 2727SOL    HW115039   8.810  11.294   3.502 -0.7832 -0.4936  0.6883
 2727SOL    HW215040   8.663  11.330   3.518 -0.8202  0.3871 -1.2882
 2728SOL     OW15041   0.497   8.101   0.253 -0.2844 -0.2154  0.1534
 2728SOL    HW115042   0.405   8.120   0.237  0.1732  1.0829 -1.2758
 2728SOL    HW215043   0.524   8.049   0.177  0.5636  1.0251 -0.4419
 2729SOL     OW15044   2.826  11.560   6.685 -0.2390 -0.3636  0.0126
 2729SOL    HW115045   2.825  11.596   6.774 -0.2598  0.1834 -0.2055
 2729SOL    HW215046   2.843  11.467   6.697  3.4453  0.2212  0.4592
 2730SOL     OW15047   5.080  10.225   2.818 -0.0067 -0.4994 -0.4113
 2730SOL    HW115048   5.168  10.243   2.786 -0.2962  0.2937 -0.7823
 2730SOL    HW215049   5.024  10.286   2.770 -0.7684 -1.0437 -0.2286
 2731SOL     OW15050   3.253   7.925   8.896 -0.0267 -0.5192  0.0949
 2731SOL    HW115051   3.265   7.864   8.823 -3.2440 -3.1894  1.5528
 2731SOL    HW215052   3.227   8.007   8.855 -0.5934 -1.6084 -1.8441
 2732SOL     OW15053   0.862   3.038   5.970  0.6192  0.1789 -0.1268
 2732SOL    HW115054   0.834   3.028   5.879  0.5278  0.6565 -0.1538
 2732SOL    HW215055   0.948   3.079   5.965  0.9949 -0.5656 -0.0158
 2733SOL     OW15056   9.339   2.626   3.042 -0.4476 -0.3949  0.2606
 2733SOL    HW115057   9.244   2.621   3.033 -0.5608 -2.6258  1.7699
 2733SOL    HW215058   9.373   2.563   2.978 -0.1743 -1.4111  1.3595
 2734SOL     OW15059  11.626   5.938   9.859  0.2299  0.0374  0.3131
 2734SOL    HW115060  11.586   5.943   9.772  2.9786  2.5627 -0.9850
 2734SOL    HW215061  11.553   5.949   9.920 -1.9146 -2.6674 -1.5241
 2735SOL     OW15062   7.599  11.025   2.593  0.3076  0.0369  0.5581
 2735SOL    HW115063   7.688  10.989   2.590  0.4351  0.3829 -2.0433
 2735SOL    HW215064   7.543  10.952   2.570  0.4339  0.9272 -3.0776
 2736SOL     OW15065   9.767   7.605   9.264 -0.5825 -0.3756  0.4135
 2736SOL    HW115066   9.753   7.629   9.355 -1.6148  0.6323  0.0083
 2736SOL    HW215067   9.851   7.557   9.264  0.0286  0.6478  1.6968
 2737SOL     OW15068  10.957   1.088   8.570 -0.3201  0.6092  0.4545
 2737SOL    HW115069  11.003   1.168   8.545  1.7239 -0.7711 -0.4844
 2737SOL    HW215070  11.021   1.039   8.622 -1.0018 -1.0189 -0.1802
 2738SOL     OW15071   6.736   6.758   2.084 -0.0182  0.1370 -0.1936
 2738SOL    HW115072   6.685   6.837   2.065 -0.4081  0.0587  0.5427
 2738SOL    HW215073   6.684   6.686   2.049  0.5883  0.2350 -1.3584
 2739SOL     OW15074  11.276   6.294   9.461 -0.3515 -0.0308 -0.3995
 2739SOL    HW115075  11.336   6.312   9.533 -0.6407 -1.7112  0.3036
 2739SOL    HW215076  11.324   6.320   9.382  1.8351 -2.4196  0.0337
 2740SOL     OW15077  10.269   6.806   8.631 -0.0158  0.1027  0.4050
 2740SOL    HW115078  10.293   6.732   8.686  0.1057 -1.4046 -1.5473
 2740SOL    HW215079  10.352   6.840   8.598 -0.1592 -0.0059 -0.0747
 2741SOL     OW15080   7.176  12.480  11.681  0.1140 -0.2246 -0.2625
 2741SOL    HW115081   7.198  12.395  11.720 -2.0028 -1.6181 -1.8275
 2741SOL    HW215082   7.080  12.482  11.684 -0.1407  0.0614 -4.2150
 2742SOL     OW15083   2.460  12.027   6.480 -0.0623 -0.2768  0.2875
 2742SOL    HW115084   2.526  11.992   6.540  1.8157  1.8178 -0.3925
 2742SOL    HW215085   2.443  12.116   6.512 -2.0395 -0.5183  0.0029
 2743SOL     OW15086   3.623   2.988  11.392  0.0591 -0.2535 -0.3185
 2743SOL    HW115087   3.626   2.906  11.441  0.8466 -0.1247 -0.1348
 2743SOL    HW215088   3.660   3.053  11.451  2.1798 -0.3201 -1.4610
 2744SOL     OW15089  12.100   6.193   2.734 -0.1691  0.1102  0.0433
 2744SOL    HW115090  12.099   6.151   2.820 -0.2916 -0.7782 -0.3830
 2744SOL    HW215091  12.024   6.156   2.688 -0.8502  1.5109 -0.0175
 2745SOL     OW15092  11.673   7.109   8.458  0.5042  0.4696  0.4859
 2745SOL    HW115093  11.614   7.108   8.383  2.0352 -1.4749 -0.8078
 2745SOL    HW215094  11.654   7.191   8.503 -0.8266  1.4633 -1.7396
 2746SOL     OW15095   1.669   6.056  10.260  0.1360  0.5148  0.0739
 2746SOL    HW115096   1.684   6.074  10.352  0.3346 -0.3312  0.2121
 2746SOL    HW215097   1.757   6.053  10.221  0.0250  1.7664 -0.3327
 2747SOL     OW15098   2.820   9.618   1.542  0.3842  0.7349  0.1710
 2747SOL    HW115099   2.904   9.572   1.539  0.1963  0.4088 -1.3812
 2747SOL    HW215100   2.840   9.707   1.515  0.0397  0.2357 -1.9439
 2748SOL     OW15101   2.824   7.299   3.123 -0.8388  0.5178 -0.0815
 2748SOL    HW115102   2.897   7.268   3.069 -0.8648 -0.2559  0.3087
 2748SOL    HW215103   2.804   7.225   3.181 -1.8299  0.7741 -0.0743
 2749SOL     OW15104   5.447   0.219   6.655  0.1888 -0.6951 -0.1326
 2749SOL    HW115105   5.425   0.311   6.675  2.6747 -0.3665  1.5335
 2749SOL    HW215106   5.393   0.169   6.717 -0.1370 -0.2747 -0.0667
 2750SOL     OW15107   8.151   7.581   6.049 -0.0073 -0.0298  0.3048
 2750SOL    HW115108   8.080   7.589   5.985  0.9863  1.7837 -0.6565
 2750SOL    HW215109   8.108   7.557   6.131 -1.6636  0.5073 -0.3796
 2751SOL     OW15110   0.019  10.731   8.817 -0.1845  0.3419  0.1757
 2751SOL    HW115111   0.073  10.742   8.739  0.5438 -0.1518  0.6005
 2751SOL    HW215112  -0.041  10.659   8.796  0.5899 -0.3735  0.3733
 2752SOL     OW15113  10.944   4.572   1.651 -0.3036 -0.2781 -0.4740
 2752SOL    HW115114  10.937   4.477   1.648  0.6880 -0.3416 -1.6876
 2752SOL    HW215115  10.868   4.601   1.702 -0.7177 -1.6974 -0.2584
 2753SOL     OW15116  10.961   9.346   7.892  0.0641  0.3181  0.9240
 2753SOL    HW115117  10.895   9.282   7.919  0.1489 -1.0936 -1.7956
 2753SOL    HW215118  11.039   9.294   7.874  0.3065  1.2053 -0.8281
 2754SOL     OW15119   9.802   9.975   1.638  0.0310  0.2616 -0.1955
 2754SOL    HW115120   9.773  10.061   1.609  0.5686  0.2492 -0.7721
 2754SOL    HW215121   9.894   9.970   1.613  0.9571  0.7904  2.6918
 2755SOL     OW15122   8.415   2.352  11.907 -0.1419 -0.2133  0.0547
 2755SOL    HW115123   8.360   2.343  11.984 -0.9367  0.9721 -0.3360
 2755SOL    HW215124   8.386   2.282  11.848 -1.4144  0.5025 -0.2204
 2756SOL     OW15125  11.101   7.149   4.344 -0.3047  0.9105  0.0510
 2756SOL    HW115126  11.084   7.239   4.315  1.4026  1.6924  1.3138
 2756SOL    HW215127  11.018   7.121   4.384 -0.8125  1.9836 -0.2013
 2757SOL     OW15128   6.740   3.499   0.999  0.1602 -0.6098 -0.0474
 2757SOL    HW115129   6.694   3.421   1.028 -0.5571 -0.1329  0.1301
 2757SOL    HW215130   6.801   3.468   0.932 -0.7760 -1.1950 -0.6476
 2758SOL     OW15131   4.381  11.531   4.785  0.9088  0.3431 -0.1726
 2758SOL    HW115132   4.325  11.604   4.760  1.4529  0.5824 -0.7178
 2758SOL    HW215133   4.432  11.512   4.706 -0.4738 -1.7993 -0.6424
 2759SOL     OW15134   5.946  11.751  11.207  0.2655  0.1046 -0.4461
 2759SOL    HW115135   5.986  11.689  11.147  1.1382 -0.6391  0.8713
 2759SOL    HW215136   6.003  11.828  11.203  0.0201  0.2658 -0.9562
 2760SOL     OW15137   6.472   2.915  11.413  0.1625  0.0824  0.1742
 2760SOL    HW115138   6.483   2.873  11.328 -1.1953 -0.4527  0.2355
 2760SOL    HW215139   6.466   2.842  11.475  1.0065  0.4621  0.7295
 2761SOL     OW15140   3.656   6.858   8.354  0.0142 -0.2045  0.7217
 2761SOL    HW115141   3.574   6.809   8.366 -0.8512  1.0616  0.2097
 2761SOL    HW215142   3.706   6.807   8.292 -1.1771 -0.1090 -0.3554
 2762SOL     OW15143   8.748   4.405   1.664  0.4665  0.0548 -0.1331
 2762SOL    HW115144   8.662   4.370   1.689  0.2743  1.4125  1.2100
 2762SOL    HW215145   8.728   4.470   1.597  0.6848 -1.2181 -1.4804
 2763SOL     OW15146   8.762   6.067   1.507 -0.3183  0.0206  0.2088
 2763SOL    HW115147   8.736   6.123   1.434 -1.0521 -0.3242  0.1916
 2763SOL    HW215148   8.736   6.117   1.585  1.2848  0.7949  0.2905
 2764SOL     OW15149   4.868   7.367   0.753  0.4394  0.3918  0.5244
 2764SOL    HW115150   4.940   7.305   0.740  0.4543  0.6281 -0.6127
 2764SOL    HW215151   4.795   7.313   0.784  0.4660 -0.1998 -0.3961
 2765SOL     OW15152   0.228   1.234  12.276 -0.4033 -0.4778 -0.1749
 2765SOL    HW115153   0.248   1.168  12.343  1.3979  1.4626  1.3028
 2765SOL    HW215154   0.140   1.211  12.246 -1.4851 -1.2089  3.1871
 2766SOL     OW15155   3.189   7.131   2.583 -0.2056  0.3405  0.3689
 2766SOL    HW115156   3.171   7.041   2.612  1.6358 -0.4258 -0.6866
 2766SOL    HW215157   3.244   7.168   2.652  0.4507  0.0418  0.0226
 2767SOL     OW15158   4.940   0.383   4.113  0.3375  0.3306  0.0294
 2767SOL    HW115159   5.001   0.362   4.042 -0.6893 -0.6357 -0.5897
 2767SOL    HW215160   4.901   0.467   4.087  0.5274  0.3595 -0.1678
 2768SOL     OW15161  10.054   5.034   1.258 -0.4781  0.2109 -0.4135
 2768SOL    HW115162  10.066   5.124   1.228 -0.1143  0.4243  0.3544
 2768SOL    HW215163  10.142   5.000   1.267 -0.5650 -1.3622 -3.9273
 2769SOL     OW15164   1.004   0.618   4.511 -0.3418  0.5373 -0.6128
 2769SOL    HW115165   1.065   0.551   4.541 -2.0417 -0.3843  0.9892
 2769SOL    HW215166   0.942   0.570   4.456  1.2256  1.7611 -3.7188
 2770SOL     OW15167  10.157   0.554  10.677 -0.5017  0.2514 -0.0372
 2770SOL    HW115168  10.166   0.569  10.772 -1.4575  1.0439 -0.0590
 2770SOL    HW215169  10.203   0.471  10.662  0.5447  0.6209  0.9523
 2771SOL     OW15170   3.639   2.156   3.889 -0.1829 -0.4337 -0.3862
 2771SOL    HW115171   3.688   2.194   3.962  1.2178 -1.7419 -0.5869
 2771SOL    HW215172   3.665   2.208   3.813 -1.0023  0.4046 -0.1048
 2772SOL     OW15173  12.351   2.680   3.695  0.1977  0.1980 -0.2059
 2772SOL    HW115174  12.342   2.774   3.679  1.2607  0.4349  0.5118
 2772SOL    HW215175  12.274   2.642   3.652 -0.9772  1.5024  0.6279
 2773SOL     OW15176  10.292   2.721  11.677  0.0672  0.0461  0.0761
 2773SOL    HW115177  10.383   2.752  11.673  0.4708 -1.1973 -1.1466
 2773SOL    HW215178  10.279   2.676  11.593 -1.2334 -1.0174  0.8202
 2774SOL     OW15179   9.857  11.765  11.939 -0.5682  0.1202  0.2439
 2774SOL    HW115180   9.875  11.831  11.872  0.1741  0.9691  1.2594
 2774SOL    HW215181   9.822  11.814  12.013  0.8773 -0.4709  1.3751
 2775SOL     OW15182   8.502  10.355  12.044  0.3068 -0.0546  0.3067
 2775SOL    HW115183   8.517  10.413  11.970 -0.9680  0.6175  0.5462
 2775SOL    HW215184   8.580  10.364  12.098  0.8905  0.0692 -0.5467
 2776SOL     OW15185   1.951   5.861   4.833  0.0912  0.1556  0.1877
 2776SOL    HW115186   1.939   5.869   4.928 -0.8130  0.1333  0.0907
 2776SOL    HW215187   1.871   5.816   4.803  2.0099 -3.4844 -0.1022
 2777SOL     OW15188   3.443   0.243   3.149 -0.1813 -0.3710 -0.2832
 2777SOL    HW115189   3.350   0.227   3.130 -0.4972  1.5989 -0.6405
 2777SOL    HW215190   3.490   0.191   3.084 -1.1075  0.1388 -1.4137
 2778SOL     OW15191   4.190   1.955   5.664  0.1594 -0.1687  0.1981
 2778SOL    HW115192   4.125   2.007   5.616 -0.2920 -1.0315 -0.1432
 2778SOL    HW215193   4.250   1.923   5.596  1.3895  1.2136  0.5876
 2779SOL     OW15194   3.329   9.913   0.867  0.4424  0.2546 -0.4154
 2779SOL    HW115195   3.382   9.840   0.836  0.3788  0.1626 -0.3061
 2779SOL    HW215196   3.339   9.980   0.799 -1.0863 -0.5796 -1.5157
 2780SOL     OW15197   1.959   3.548   1.075 -0.0814  0.2732 -0.0279
 2780SOL    HW115198   1.992   3.483   1.136 -0.7506  0.3674  0.4529
 2780SOL    HW215199   2.034   3.605   1.057  0.1280  0.2394  0.7004
 2781SOL     OW15200   0.432   7.863   7.037  0.2244  0.1250  0.1450
 2781SOL    HW115201   0.462   7.780   6.999  0.7074 -0.2025  1.1981
 2781SOL    HW215202   0.512   7.911   7.057 -0.0619  1.4274 -1.6310
 2782SOL     OW15203   5.391   2.462   3.649  0.3380 -0.3033  0.0697
 2782SOL    HW115204   5.440   2.394   3.696 -0.7493 -0.4176  1.0745
 2782SOL    HW215205   5.423   2.455   3.559  1.8209 -0.6767  0.5847
 2783SOL     OW15206  10.273   2.295   8.611  0.3908 -0.0248 -0.7925
 2783SOL    HW115207  10.259   2.347   8.690 -0.0306  0.2822 -1.0625
 2783SOL    HW215208  10.363   2.314   8.585  0.7555 -0.6436 -0.0185
 2784SOL     OW15209   8.461   2.539   4.515  0.4008  0.0890  0.3268
 2784SOL    HW115210   8.432   2.628   4.492 -0.2609 -0.0110  0.7659
 2784SOL    HW215211   8.478   2.497   4.430 -0.0033  0.3955  0.0883
 2785SOL     OW15212   5.614   1.913   6.533  0.2513  0.7754  0.1180
 2785SOL    HW115213   5.642   1.863   6.456 -3.2798  1.5275 -1.8902
 2785SOL    HW215214   5.577   1.848   6.592 -0.9419  0.5868 -0.8099
 2786SOL     OW15215   0.940   4.741   7.758  0.5511  0.2372 -0.2924
 2786SOL    HW115216   0.929   4.647   7.747  1.1618  0.1571 -0.2695
 2786SOL    HW215217   0.886   4.780   7.689 -2.0269 -0.0202  1.4446
 2787SOL     OW15218   5.749   8.021  11.911  0.3129 -0.0828 -0.2542
 2787SOL    HW115219   5.768   7.928  11.925 -1.6348 -0.8262 -1.9443
 2787SOL    HW215220   5.778   8.038  11.822 -0.0733  0.7061 -0.2364
 2788SOL     OW15221  12.375   9.194  10.772  0.2362  0.2619 -0.2508
 2788SOL    HW115222  12.461   9.179  10.810  0.3548 -0.0833 -0.6457
 2788SOL    HW215223  12.349   9.281  10.803  0.5471  0.1951  0.1997
 2789SOL     OW15224  11.776   5.430  10.582  0.1898 -0.2723  0.1648
 2789SOL    HW115225  11.738   5.456  10.666 -1.1489  0.7590 -0.7064
 2789SOL    HW215226  11.711   5.371  10.544  0.3894 -0.0913 -0.4753
 2790SOL     OW15227   6.944   0.759   0.529 -0.1843  0.3165 -0.3948
 2790SOL    HW115228   6.989   0.732   0.609  0.0108 -1.6108 -1.0882
 2790SOL    HW215229   6.875   0.819   0.558  1.1647  1.2846  0.9624
 2791SOL     OW15230   1.975   1.815   9.493  0.0912 -0.3279 -0.1745
 2791SOL    HW115231   1.997   1.811   9.586  1.7433 -1.8102 -0.5769
 2791SOL    HW215232   1.909   1.747   9.481  0.9021 -1.1138 -0.3053
 2792SOL     OW15233   3.641   2.174   6.968  0.2438  0.3639  0.4564
 2792SOL    HW115234   3.706   2.164   6.899 -0.6377 -3.0898 -0.0333
 2792SOL    HW215235   3.687   2.147   7.048 -0.3968 -1.7471  0.1618
 2793SOL     OW15236   0.235   1.414   9.959 -0.3770 -0.0522 -0.8329
 2793SOL    HW115237   0.215   1.325   9.986  0.1224 -1.0285 -3.4021
 2793SOL    HW215238   0.299   1.404   9.888 -0.3817  2.3436 -1.2599
 2794SOL     OW15239   3.329   5.504   2.249 -0.0812  0.1414  0.0320
 2794SOL    HW115240   3.407   5.556   2.228  0.3506 -1.8262 -4.3569
 2794SOL    HW215241   3.260   5.569   2.263  1.4043  1.9237 -0.5271
 2795SOL     OW15242   1.139   5.227   9.275 -0.6108 -0.1536 -0.4384
 2795SOL    HW115243   1.174   5.151   9.323 -1.1297  0.5049  1.0609
 2795SOL    HW215244   1.202   5.242   9.205  0.3632 -0.9946  0.2158
 2796SOL     OW15245   2.809   4.029   9.441 -0.0878 -0.1845  0.0511
 2796SOL    HW115246   2.764   3.982   9.371 -0.9743 -1.9409  1.7072
 2796SOL    HW215247   2.780   3.986   9.521  1.4542  1.2719  1.4674
 2797SOL     OW15248   3.640  12.418   9.854 -0.2685  0.6071 -0.0315
 2797SOL    HW115249   3.730  12.385   9.854 -0.3601  0.3360  0.4483
 2797SOL    HW215250   3.587  12.341   9.878 -0.6813  0.6329 -0.8351
 2798SOL     OW15251   1.655   4.861   3.166  0.4283  0.4514  0.0077
 2798SOL    HW115252   1.739   4.838   3.204  0.4135  0.1098 -0.1640
 2798SOL    HW215253   1.675   4.894   3.079  0.3980  0.5206  0.0269
 2799SOL     OW15254  12.469   7.885   8.743 -0.1479 -0.0034 -0.0350
 2799SOL    HW115255  12.444   7.932   8.822 -0.7256  1.7206 -1.1891
 2799SOL    HW215256  12.512   7.805   8.775  0.1904  0.9313  1.9908
 2800SOL     OW15257   0.397   8.527  11.782  0.1532 -0.7033  0.0092
 2800SOL    HW115258   0.442   8.479  11.851 -0.0366 -0.6466  0.1753
 2800SOL    HW215259   0.451   8.604  11.766  0.1103 -0.6286  0.2165
 2801SOL     OW15260   5.381   4.716   6.883 -0.4023 -0.1534 -0.0440
 2801SOL    HW115261   5.339   4.802   6.893 -0.0548 -0.2357  3.2768
 2801SOL    HW215262   5.318   4.654   6.921 -0.1056 -1.2245 -1.2338
 2802SOL     OW15263  11.680   4.189   1.770 -0.6401  0.4659  0.5601
 2802SOL    HW115264  11.674   4.159   1.679 -2.4120  2.9179 -0.2266
 2802SOL    HW215265  11.751   4.136   1.808  0.5473 -0.2348 -2.3695
 2803SOL     OW15266  10.494   3.884   7.269 -0.5986  0.3140  0.4029
 2803SOL    HW115267  10.549   3.887   7.190 -0.4959  2.7710  0.4750
 2803SOL    HW215268  10.404   3.876   7.235 -0.3550 -3.2917  0.2731
 2804SOL     OW15269   1.092  10.064   2.987 -0.3747  0.4386 -0.0379
 2804SOL    HW115270   1.041  10.009   2.927 -0.3608  0.2888  0.0879
 2804SOL    HW215271   1.034  10.137   3.008 -0.7106  0.0324  0.4683
 2805SOL     OW15272   3.050   2.976   6.362  0.1115  0.4441 -0.9936
 2805SOL    HW115273   3.091   3.050   6.318  0.7565 -0.0380 -1.2149
 2805SOL    HW215274   3.062   2.902   6.303 -2.0014  0.4753 -1.5529
 2806SOL     OW15275   8.243   4.570   2.692 -0.4674  0.7012 -0.3245
 2806SOL    HW115276   8.297   4.648   2.695 -0.2801  0.5943 -0.8921
 2806SOL    HW215277   8.163   4.598   2.648 -1.2379  1.0666  1.2231
 2807SOL     OW15278   1.463   2.938   9.622 -0.5646 -0.1032 -0.2263
 2807SOL    HW115279   1.442   3.030   9.606  0.8418  0.2678 -0.0394
 2807SOL    HW215280   1.414   2.915   9.701 -0.9847  0.4696 -0.3182
 2808SOL     OW15281   0.103  11.113   8.594 -0.8001 -0.6761  0.7587
 2808SOL    HW115282   0.073  11.204   8.588  2.0736  0.2846 -0.7427
 2808SOL    HW215283   0.127  11.101   8.686 -0.3245  0.4185  0.7864
 2809SOL     OW15284   8.129   2.955   0.477 -0.1051 -0.4972  0.1195
 2809SOL    HW115285   8.169   2.869   0.465  1.1816  0.0975 -0.0952
 2809SOL    HW215286   8.058   2.941   0.539  2.0965 -1.1863  2.6599
 2810SOL     OW15287   1.406   3.104   6.192 -0.2140  0.3358 -0.1257
 2810SOL    HW115288   1.483   3.049   6.179 -0.1607 -0.0326  1.5225
 2810SOL    HW215289   1.440   3.192   6.201 -0.2116  0.5300 -1.6740
 2811SOL     OW15290   2.297   1.985   4.065 -0.1355 -0.2804  0.5142
 2811SOL    HW115291   2.207   1.965   4.039 -0.0887 -1.0398  0.9160
 2811SOL    HW215292   2.308   2.077   4.042 -1.2066 -0.0101  0.9989
 2812SOL     OW15293  10.642   8.679   5.111 -0.3883  0.0458 -0.1569
 2812SOL    HW115294  10.729   8.641   5.097  0.3135  0.4150  2.6733
 2812SOL    HW215295  10.586   8.604   5.132  0.4650  0.1551  3.0319
 2813SOL     OW15296  11.291   4.323   6.266 -0.8048  0.0877 -0.5251
 2813SOL    HW115297  11.313   4.231   6.252  1.7246  0.8275 -1.9225
 2813SOL    HW215298  11.215   4.338   6.209 -1.4329 -1.1565 -0.0691
 2814SOL     OW15299   6.955   7.282   6.164  0.2258  0.3862  0.1881
 2814SOL    HW115300   6.933   7.364   6.209 -2.0227 -0.5935  1.0235
 2814SOL    HW215301   6.886   7.221   6.191 -1.3456 -0.3443 -4.5448
 2815SOL     OW15302   1.726   5.975   0.672  0.4077  0.2920  0.6712
 2815SOL    HW115303   1.743   5.881   0.667 -0.9008 -0.0088  1.2395
 2815SOL    HW215304   1.787   6.015   0.609 -1.0311 -1.2222 -1.8603
 2816SOL     OW15305   7.746   4.427   9.753  0.7054 -0.1856 -0.0446
 2816SOL    HW115306   7.695   4.495   9.709  0.8004  0.0610  0.2231
 2816SOL    HW215307   7.837   4.452   9.738  0.7409  0.2518  0.8196
 2817SOL     OW15308   8.641   3.687   9.870 -0.1689 -0.3501 -0.1267
 2817SOL    HW115309   8.557   3.731   9.855 -0.7498  0.0335  3.2849
 2817SOL    HW215310   8.677   3.732   9.947  1.6405 -2.5765  0.4235
 2818SOL     OW15311   4.494   1.345   0.536  0.3370 -0.5020 -0.3795
 2818SOL    HW115312   4.560   1.276   0.534  0.4497 -0.4188  0.3729
 2818SOL    HW215313   4.544   1.426   0.543  0.3066 -0.1555 -3.0635
 2819SOL     OW15314  10.662   7.682   4.226 -0.2546 -0.8593 -0.2867
 2819SOL    HW115315  10.633   7.728   4.304 -1.7799  0.5110 -1.5956
 2819SOL    HW215316  10.581   7.657   4.181  0.5770 -1.4417 -1.5270
 2820SOL     OW15317   5.522   7.229   2.457 -0.0378  0.4042  0.4583
 2820SOL    HW115318   5.438   7.264   2.427  0.7820  1.5478 -0.5658
 2820SOL    HW215319   5.551   7.290   2.525  0.5088  0.6781 -0.0136
 2821SOL     OW15320  12.521  12.130   2.819  0.2648  0.2432 -0.1309
 2821SOL    HW115321  12.531  12.221   2.792 -1.6927  0.5682  0.0903
 2821SOL    HW215322  12.607  12.091   2.803  0.7339  1.7486 -1.6517
 2822SOL     OW15323   3.777   1.755   9.656 -0.2602 -0.2066  0.0769
 2822SOL    HW115324   3.788   1.840   9.698  1.4959 -1.3479  2.0732
 2822SOL    HW215325   3.866   1.722   9.644 -0.9154 -2.0088 -0.1458
 2823SOL     OW15326  12.246   8.318   0.073 -0.5235  0.4963 -0.4325
 2823SOL    HW115327  12.339   8.340   0.078 -0.1912 -0.8986 -0.2646
 2823SOL    HW215328  12.202   8.401   0.092  0.6935  0.8253  1.1847
 2824SOL     OW15329   6.885   6.388   1.429 -0.1716  0.2095  0.1464
 2824SOL    HW115330   6.943   6.362   1.357 -0.5740 -0.1163 -0.0680
 2824SOL    HW215331   6.939   6.442   1.485  0.4452 -0.3995  0.1503
 2825SOL     OW15332   3.445  11.612   3.659  0.1573  0.5858  0.0206
 2825SOL    HW115333   3.502  11.689   3.656  1.0755 -0.0663  0.2699
 2825SOL    HW215334   3.464  11.564   3.579 -0.5030  0.6782 -0.1964
 2826SOL     OW15335   3.562   4.809  12.250 -0.0425 -0.0820  0.9039
 2826SOL    HW115336   3.484   4.761  12.277 -0.9585  1.4983  1.1933
 2826SOL    HW215337   3.596   4.848  12.330 -1.8646  3.3119  0.2135
 2827SOL     OW15338   2.678   7.030   8.745  0.0258  0.4896  0.8074
 2827SOL    HW115339   2.706   7.052   8.833  0.5182  0.5714  0.6344
 2827SOL    HW215340   2.734   7.082   8.688  1.5418 -1.4979  0.3649
 2828SOL     OW15341   1.509   4.312   3.512  0.3275  0.4537  0.0461
 2828SOL    HW115342   1.573   4.341   3.576 -0.0421 -1.6539  1.4876
 2828SOL    HW215343   1.435   4.372   3.523  0.7213  0.8053  0.8389
 2829SOL     OW15344   8.450  10.545  10.450 -0.4175 -0.0756 -0.1109
 2829SOL    HW115345   8.501  10.477  10.494 -1.3041 -0.1580  0.8239
 2829SOL    HW215346   8.368  10.548  10.498 -0.4565  1.5727 -0.2134
 2830SOL     OW15347   4.479  10.886   7.211  0.0282  0.3779  0.1957
 2830SOL    HW115348   4.571  10.859   7.205 -0.2817 -1.0333  1.3536
 2830SOL    HW215349   4.456  10.873   7.303 -1.6361 -0.3615 -0.2787
 2831SOL     OW15350  11.079   4.832   1.871 -0.0054  0.2103  0.0959
 2831SOL    HW115351  11.019   4.849   1.798  1.2559  0.6884 -0.8551
 2831SOL    HW215352  11.022   4.802   1.942 -1.1059 -1.7488 -1.5299
 2832SOL     OW15353   4.509   8.068   9.656  0.1843  0.4536  0.4543
 2832SOL    HW115354   4.428   8.104   9.692 -1.0180 -0.8459 -0.8146
 2832SOL    HW215355   4.512   8.101   9.566  0.0313 -1.0205 -0.1250
 2833SOL     OW15356   7.977   9.495   9.701  0.6278 -0.0410  0.0125
 2833SOL    HW115357   7.928   9.431   9.753  0.9233 -0.0927  0.2245
 2833SOL    HW215358   7.927   9.502   9.620  0.3957 -0.2724  0.1316
 2834SOL     OW15359   2.750   3.136   2.505 -0.8794 -0.0045 -0.3279
 2834SOL    HW115360   2.780   3.100   2.421 -0.9755  0.4498 -0.5600
 2834SOL    HW215361   2.827   3.130   2.562 -0.6071  0.3177 -0.6543
 2835SOL     OW15362  11.895   7.180   6.850 -0.4167 -0.4628 -0.3110
 2835SOL    HW115363  11.914   7.158   6.759 -0.9589 -0.8554 -0.3305
 2835SOL    HW215364  11.981   7.193   6.890 -0.1672 -0.5699 -0.8082
 2836SOL     OW15365   3.331   2.984   6.745  0.2715  0.2771  0.4193
 2836SOL    HW115366   3.354   2.903   6.790 -0.3704 -0.0556  0.1597
 2836SOL    HW215367   3.374   3.053   6.796 -1.0233 -0.0071  1.9691
 2837SOL     OW15368  12.472   7.564   7.194 -0.3065  0.2720 -0.0837
 2837SOL    HW115369  12.470   7.474   7.225  0.3257 -0.3288 -1.6667
 2837SOL    HW215370  12.382   7.595   7.201 -0.5821 -0.5840  0.1830
 2838SOL     OW15371   5.257   8.003   4.251  0.2884 -0.1566 -0.1514
 2838SOL    HW115372   5.166   8.030   4.243  0.4630  2.1477  3.3598
 2838SOL    HW215373   5.254   7.927   4.310  0.6320 -0.4511 -0.5073
 2839SOL     OW15374   2.314   4.075   3.944 -0.5337 -0.3554  0.6502
 2839SOL    HW115375   2.271   4.053   4.026  0.8944 -0.2788  1.4575
 2839SOL    HW215376   2.337   4.167   3.952 -0.0989 -0.4275  0.3088
 2840SOL     OW15377   2.871   8.055   6.445  0.5888 -0.1039 -0.0914
 2840SOL    HW115378   2.921   7.982   6.407  0.0809 -1.2404  1.3258
 2840SOL    HW215379   2.926   8.086   6.517  0.8784  1.0597 -0.7890
 2841SOL     OW15380   5.256   7.197  12.194  0.2257 -0.1179  0.1286
 2841SOL    HW115381   5.297   7.248  12.123  1.1147  0.5659  1.1073
 2841SOL    HW215382   5.166   7.183  12.163  0.3424  0.8990 -0.7700
 2842SOL     OW15383   4.298   5.053   5.333  0.3082 -0.0482  0.0531
 2842SOL    HW115384   4.269   4.988   5.268 -1.9236  0.3687  0.5407
 2842SOL    HW215385   4.355   5.004   5.392  0.4527 -1.0122 -0.8533
 2843SOL     OW15386   9.700   0.890  10.545 -0.1621 -0.3426 -0.1099
 2843SOL    HW115387   9.737   0.914  10.629  2.0916  2.4111 -1.7099
 2843SOL    HW215388   9.639   0.961  10.523  1.3070  0.4696 -1.8760
 2844SOL     OW15389   4.877  12.090  10.846  0.1036  0.1846 -0.5046
 2844SOL    HW115390   4.819  12.076  10.772 -0.2472 -2.6760  0.2059
 2844SOL    HW215391   4.821  12.123  10.916 -0.1643 -0.1450 -0.5662
 2845SOL     OW15392   4.468   3.208   7.798 -0.0174  0.4251  0.2814
 2845SOL    HW115393   4.397   3.242   7.743  1.1066  0.2846 -1.3466
 2845SOL    HW215394   4.424   3.158   7.866 -1.5149  1.2105 -0.0628
 2846SOL     OW15395  10.410   0.906   8.955  0.2577  0.0621 -0.0818
 2846SOL    HW115396  10.490   0.890   9.003  1.3781  2.2339 -1.0700
 2846SOL    HW215397  10.427   0.874   8.867 -0.2169 -0.0941 -0.1219
 2847SOL     OW15398  10.352   5.198   0.695  0.1601 -0.1209 -0.1868
 2847SOL    HW115399  10.338   5.133   0.764 -0.6724  0.3699  0.1251
 2847SOL    HW215400  10.436   5.238   0.717  0.1055 -0.2640  0.3104
 2848SOL     OW15401   7.339   5.526   4.202  0.0760 -0.4937 -0.0345
 2848SOL    HW115402   7.354   5.453   4.142 -0.2183 -0.6336  0.0586
 2848SOL    HW215403   7.426   5.559   4.223  0.2583 -1.3995  0.6431
 2849SOL     OW15404   5.291   5.544  11.984 -0.3678  0.1029  0.5663
 2849SOL    HW115405   5.197   5.543  11.968 -0.4214  0.5059  0.8424
 2849SOL    HW215406   5.316   5.636  11.975  0.1125 -0.0919 -0.1545
 2850SOL     OW15407  11.987   0.050   9.499 -0.3811 -0.0349 -0.2336
 2850SOL    HW115408  11.942   0.125   9.462  1.8637  1.8070  0.5415
 2850SOL    HW215409  12.071   0.085   9.531 -0.0855 -2.4519  2.0179
 2851SOL     OW15410   6.956   1.700   0.184 -0.0227 -0.0151 -0.4099
 2851SOL    HW115411   6.916   1.766   0.241  1.4058  1.9082 -1.5133
 2851SOL    HW215412   7.024   1.660   0.237  0.5206  0.9352 -0.3645
 2852SOL     OW15413   3.784   6.025  11.912 -0.0138  0.0123  0.2409
 2852SOL    HW115414   3.799   6.085  11.838 -0.6483 -0.6565 -0.4485
 2852SOL    HW215415   3.761   5.942  11.871  0.6635 -0.6690  1.1889
 2853SOL     OW15416   3.340   5.766  11.664  0.3673  0.2388  0.2981
 2853SOL    HW115417   3.354   5.831  11.733  0.5155  0.0165  0.4825
 2853SOL    HW215418   3.280   5.702  11.703 -0.2053  0.5500 -0.0709
 2854SOL     OW15419  11.909  11.804   3.144  0.6062 -0.2706  0.3245
 2854SOL    HW115420  11.845  11.875   3.147 -0.6392 -1.3367  0.0396
 2854SOL    HW215421  11.986  11.842   3.102 -0.5337  0.5248 -1.1192
 2855SOL     OW15422   4.072   8.587   7.846 -0.0235  0.6232 -0.0472
 2855SOL    HW115423   4.065   8.493   7.863  0.5779  0.3729 -1.1052
 2855SOL    HW215424   4.034   8.629   7.924 -0.2736 -0.4897  0.4393
 2856SOL     OW15425   8.681   3.986   6.045  0.5375 -0.0459 -0.6732
 2856SOL    HW115426   8.674   4.065   5.990 -0.5632  2.4714  2.7807
 2856SOL    HW215427   8.767   3.995   6.088  1.0799 -1.6141 -1.3512
 2857SOL     OW15428  10.701   7.288  10.634  0.5416  0.1929 -0.0670
 2857SOL    HW115429  10.635   7.297  10.566 -0.3789  0.4437  0.8341
 2857SOL    HW215430  10.784   7.289  10.587 -0.1131 -1.7558 -1.3937
 2858SOL     OW15431  11.410   5.645   0.298  0.0443 -0.2614 -0.6729
 2858SOL    HW115432  11.391   5.552   0.291  1.8288 -0.6886 -0.4638
 2858SOL    HW215433  11.452   5.667   0.215  1.7937 -0.2521  0.1563
 2859SOL     OW15434  10.489   7.789   1.825  0.0378 -0.3325  0.7544
 2859SOL    HW115435  10.513   7.820   1.913  0.0407 -0.9462  0.9747
 2859SOL    HW215436  10.554   7.723   1.804  0.0399 -0.1814  0.2836
 2860SOL     OW15437  12.576   6.616   0.663  0.0080 -0.2038  0.6631
 2860SOL    HW115438  12.555   6.530   0.699 -1.5273  0.1918  0.8066
 2860SOL    HW215439  12.666   6.632   0.690 -0.0498 -1.2844  1.6063
 2861SOL     OW15440  10.727   0.895   9.684 -0.2030 -0.3030 -0.3175
 2861SOL    HW115441  10.785   0.944   9.626  0.8316  0.8464  1.5681
 2861SOL    HW215442  10.773   0.811   9.698  1.1613  0.6196  1.2110
 2862SOL     OW15443  11.819   7.104   3.294  0.2124  0.3798 -0.5261
 2862SOL    HW115444  11.766   7.054   3.356 -0.2884 -0.0751 -1.3055
 2862SOL    HW215445  11.806   7.060   3.210  1.1287  0.7980 -0.9034
 2863SOL     OW15446   1.748  11.260   2.045 -0.2688  0.1427 -0.1544
 2863SOL    HW115447   1.719  11.209   2.122  3.2588  0.3508  1.5053
 2863SOL    HW215448   1.773  11.194   1.981  1.2023 -0.2057  0.7403
 2864SOL     OW15449   6.371   0.834  12.388 -0.1237 -0.3360  0.3113
 2864SOL    HW115450   6.284   0.868  12.408  1.0414  3.0892  0.2008
 2864SOL    HW215451   6.420   0.844  12.469  0.3557 -1.8185  0.2465
 2865SOL     OW15452   5.001   9.337   1.603  0.4897 -0.4247 -0.1441
 2865SOL    HW115453   5.074   9.294   1.648  0.6128  0.7277  0.8259
 2865SOL    HW215454   4.990   9.420   1.650 -0.1794  0.2952 -1.5111
 2866SOL     OW15455   5.396  10.904   2.846  0.4709 -0.2718 -0.0793
 2866SOL    HW115456   5.413  10.945   2.761  0.2836  1.8216  0.8125
 2866SOL    HW215457   5.483  10.884   2.880  0.8827  2.8312  0.9774
 2867SOL     OW15458   7.953   6.782   1.862 -0.2718 -0.4182 -0.5678
 2867SOL    HW115459   7.879   6.777   1.801 -0.0983 -0.3424 -0.7849
 2867SOL    HW215460   7.972   6.875   1.869 -0.0555 -0.4532 -0.6834
 2868SOL     OW15461   6.765   1.842   3.121  0.3706 -0.6585  0.0281
 2868SOL    HW115462   6.781   1.833   3.028  0.0725 -0.3636 -0.0535
 2868SOL    HW215463   6.684   1.794   3.137  0.5765 -0.9531  0.1855
 2869SOL     OW15464   9.753  10.445   8.981  0.1947  0.6590  0.0984
 2869SOL    HW115465   9.735  10.353   8.994  1.4844  0.3678  0.0140
 2869SOL    HW215466   9.754  10.483   9.069 -1.1166  0.7649  0.0788
 2870SOL     OW15467   8.377   7.947   2.856  0.1094  0.6285 -0.1419
 2870SOL    HW115468   8.319   7.948   2.932  0.4020 -0.2807  0.1046
 2870SOL    HW215469   8.415   8.035   2.854 -0.0497  0.7234  0.6484
 2871SOL     OW15470   3.120  10.062   4.166  1.2187 -0.7395  0.2021
 2871SOL    HW115471   3.169  10.129   4.119 -0.9062  0.9377  0.2088
 2871SOL    HW215472   3.141  10.077   4.258  0.0889  0.5773  0.2817
 2872SOL     OW15473  10.350   6.979   2.998 -0.0134 -0.0709  0.4313
 2872SOL    HW115474  10.300   6.915   2.947 -0.0950  1.4463 -1.5442
 2872SOL    HW215475  10.440   6.947   2.996 -0.1122 -0.3272 -0.2306
 2873SOL     OW15476   0.933   7.521   5.124 -0.0753 -0.3158  0.0944
 2873SOL    HW115477   0.962   7.589   5.062  1.5151 -1.4135 -0.4189
 2873SOL    HW215478   0.999   7.522   5.193 -0.2387 -1.0821  0.2659
 2874SOL     OW15479   3.121   7.563   0.076 -0.2304  0.5319  0.0851
 2874SOL    HW115480   3.144   7.578  -0.016 -0.9566  0.9237 -0.0436
 2874SOL    HW215481   3.050   7.500   0.073  0.9370 -0.8493  0.4913
 2875SOL     OW15482   1.774  10.124  10.604  0.3679  0.0369 -0.0549
 2875SOL    HW115483   1.691  10.171  10.615  0.9933  1.4743 -1.1955
 2875SOL    HW215484   1.757  10.061  10.535  0.0141 -0.2012  0.2479
 2876SOL     OW15485   3.012   2.002   6.152  0.0091 -0.1824  0.5966
 2876SOL    HW115486   3.026   1.957   6.068 -1.0219  0.1296  0.2433
 2876SOL    HW215487   2.930   1.966   6.185 -0.5680  1.0484  0.5532
 2877SOL     OW15488   6.950   4.177   5.767  0.5441 -0.7441 -0.2885
 2877SOL    HW115489   6.953   4.272   5.752  0.2660 -0.5926  0.5500
 2877SOL    HW215490   6.894   4.143   5.697  1.2336 -0.3879 -1.0268
 2878SOL     OW15491   6.077   6.249   0.255  0.4839 -0.4002  0.6142
 2878SOL    HW115492   5.986   6.281   0.257  0.7101  0.3459 -0.0888
 2878SOL    HW215493   6.070   6.157   0.228 -0.1307 -0.7140  1.7918
 2879SOL     OW15494  12.150  10.529   3.383  0.2018  0.3096  0.3981
 2879SOL    HW115495  12.201  10.590   3.435  0.9782 -1.9884  2.5363
 2879SOL    HW215496  12.059  10.546   3.406  0.4380  0.3968  1.2928
 2880SOL     OW15497   3.456   8.196   4.497 -0.3544  0.4108  0.1145
 2880SOL    HW115498   3.509   8.252   4.554 -1.0555  0.8853  0.3254
 2880SOL    HW215499   3.376   8.247   4.482  0.2003  0.7306 -2.0844
 2881SOL     OW15500   0.289   5.853   6.557 -0.1565  0.1799  0.2900
 2881SOL    HW115501   0.268   5.933   6.606  0.3233 -0.1524  1.0599
 2881SOL    HW215502   0.372   5.871   6.515 -0.0283  0.0760  0.4962
 2882SOL     OW15503   5.713   1.018   1.218  0.4317  0.0671  0.4293
 2882SOL    HW115504   5.684   0.929   1.197 -2.5826  0.4676  2.2061
 2882SOL    HW215505   5.661   1.074   1.160  0.9081  0.7181  0.6183
 2883SOL     OW15506  10.595  10.284   9.635  0.1392 -0.0807  0.6657
 2883SOL    HW115507  10.623  10.338   9.708 -0.7179  1.1452  0.1206
 2883SOL    HW215508  10.582  10.346   9.563  0.1649 -1.1507 -0.2888
 2884SOL     OW15509  11.297   8.150  11.781  0.2840  0.4973 -0.3959
 2884SOL    HW115510  11.246   8.211  11.728  0.3727  1.3198  0.4462
 2884SOL    HW215511  11.308   8.194  11.865 -2.6979 -2.1130  1.5616
 2885SOL     OW15512   7.193   5.324   2.777  0.0003 -0.8073 -0.1950
 2885SOL    HW115513   7.162   5.281   2.857 -0.2347 -0.3509 -0.0337
 2885SOL    HW215514   7.220   5.252   2.720 -0.4223 -1.1700  0.0515
 2886SOL     OW15515   3.541   7.016   3.429  0.1532 -0.2924 -0.2425
 2886SOL    HW115516   3.558   7.096   3.478  0.4180  0.1151 -0.9683
 2886SOL    HW215517   3.566   7.038   3.339  1.1187 -1.4761 -0.2958
 2887SOL     OW15518   1.576   6.056   3.410  0.1671  0.0087  0.1501
 2887SOL    HW115519   1.659   6.030   3.449 -0.0030 -1.7484 -0.5614
 2887SOL    HW215520   1.510   6.018   3.468 -0.1329  0.3521  0.0373
 2888SOL     OW15521   8.830   9.819   9.196 -0.7193  0.3300 -0.1839
 2888SOL    HW115522   8.884   9.741   9.182 -0.4388  0.4016  0.4806
 2888SOL    HW215523   8.882   9.891   9.161  0.5353  0.6879  2.2038
 2889SOL     OW15524   8.081   7.530   9.669 -0.1026  0.1044  0.3326
 2889SOL    HW115525   8.147   7.599   9.680  0.2490 -0.1444 -0.1725
 2889SOL    HW215526   8.038   7.525   9.754  0.2799  0.5255  0.5608
 2890SOL     OW15527   7.999  11.947   2.266  0.0863  0.3115 -0.0154
 2890SOL    HW115528   8.013  11.984   2.178 -0.7047  1.3791  0.2878
 2890SOL    HW215529   8.062  11.875   2.271  1.4556  1.3817 -0.7796
 2891SOL     OW15530   5.452   7.016   8.132  0.0523 -0.8021 -0.4893
 2891SOL    HW115531   5.477   6.990   8.043 -0.8101  0.2563 -1.0647
 2891SOL    HW215532   5.459   6.936   8.184  0.8286 -1.3753 -1.4501
 2892SOL     OW15533   4.551   7.884   2.805 -0.6664 -0.1093 -0.3242
 2892SOL    HW115534   4.574   7.806   2.755 -1.9797 -0.0660 -1.0305
 2892SOL    HW215535   4.478   7.857   2.861  0.0695  0.1344  0.7817
 2893SOL     OW15536   4.869  12.108   4.361 -0.2277  0.0564  0.3840
 2893SOL    HW115537   4.835  12.156   4.437  1.1231  1.8008 -0.0509
 2893SOL    HW215538   4.920  12.037   4.400 -0.3254  0.3570  1.0909
 2894SOL     OW15539   2.662  12.480   0.217 -0.2329 -0.4815 -0.0541
 2894SOL    HW115540   2.616  12.407   0.177 -2.5551 -1.3403  3.7228
 2894SOL    HW215541   2.734  12.440   0.266  2.3248  0.5084 -2.6811
 2895SOL     OW15542   8.902   3.825   9.046  0.3781  0.5074  0.1028
 2895SOL    HW115543   8.934   3.789   8.963 -1.7997  0.0049 -0.6026
 2895SOL    HW215544   8.930   3.916   9.045  1.1681  0.2747 -0.7480
 2896SOL     OW15545   2.482   7.868   9.557 -0.4231  0.0211  0.5288
 2896SOL    HW115546   2.569   7.867   9.518 -0.0168 -0.9475  1.4210
 2896SOL    HW215547   2.447   7.780   9.540 -1.7123  0.7605 -0.8454
 2897SOL     OW15548   0.836   4.290   7.289 -0.0872  0.4385 -0.4551
 2897SOL    HW115549   0.797   4.216   7.242 -1.1829  0.2196  0.7598
 2897SOL    HW215550   0.830   4.266   7.381  4.5236 -0.4066 -0.1291
 2898SOL     OW15551   8.192   8.493   2.750  0.1504 -0.3696 -0.2756
 2898SOL    HW115552   8.156   8.405   2.757 -3.2016  0.6839 -2.1549
 2898SOL    HW215553   8.170   8.535   2.834  1.9646 -1.2735  0.7190
 2899SOL     OW15554   1.675   0.988  12.485 -0.1353 -0.0023  0.2127
 2899SOL    HW115555   1.752   0.934  12.502  1.1574  1.6704  0.0043
 2899SOL    HW215556   1.651   1.024  12.571  0.5350  0.9942 -0.0034
 2900SOL     OW15557   2.010   4.139   0.964  0.5598  0.6578 -0.4617
 2900SOL    HW115558   2.007   4.148   1.059 -0.2023  2.3513 -0.6182
 2900SOL    HW215559   1.954   4.064   0.945 -2.6474  2.6925  0.2063
 2901SOL     OW15560   6.627   0.333   1.133 -0.0200 -1.3150  0.3093
 2901SOL    HW115561   6.548   0.341   1.079 -0.1250 -1.3821  0.4516
 2901SOL    HW215562   6.634   0.418   1.176  1.2867 -0.4617 -1.4540
 2902SOL     OW15563   6.012   2.776  12.558 -0.3745 -0.2884 -0.3396
 2902SOL    HW115564   6.066   2.852  12.578 -0.3317 -0.7905  1.7759
 2902SOL    HW215565   6.063   2.701  12.590 -0.9635 -1.0813 -1.1923
 2903SOL     OW15566   0.716   7.053   0.774  0.4542 -0.4480 -0.0663
 2903SOL    HW115567   0.793   7.103   0.800  0.9589 -0.9620 -0.5339
 2903SOL    HW215568   0.690   7.005   0.853 -0.6635  1.3132  0.6831
 2904SOL     OW15569   3.691   1.186   7.810  0.0201  0.6650 -0.4146
 2904SOL    HW115570   3.774   1.161   7.851  0.3941  1.8211 -0.4077
 2904SOL    HW215571   3.714   1.260   7.754 -1.0107  1.0276 -0.3795
 2905SOL     OW15572   3.240   1.241   8.272  0.4519 -0.2703 -0.1002
 2905SOL    HW115573   3.169   1.293   8.234  0.8446  0.3803  0.0397
 2905SOL    HW215574   3.309   1.242   8.205  1.4124  1.4475  0.8487
 2906SOL     OW15575   9.484   8.716   6.291  0.0830 -0.0408  0.2276
 2906SOL    HW115576   9.398   8.720   6.332  0.5614 -0.2513  1.2878
 2906SOL    HW215577   9.517   8.806   6.295 -1.0409  0.6016 -2.4088
 2907SOL     OW15578   1.557   7.992   5.524  0.3636  0.5164 -0.2759
 2907SOL    HW115579   1.618   8.065   5.522 -0.5458  1.3649  0.9807
 2907SOL    HW215580   1.526   7.990   5.614  0.6731 -1.7104 -0.1664
 2908SOL     OW15581   3.332  12.412   3.371 -0.4526 -0.1239 -0.2197
 2908SOL    HW115582   3.420  12.423   3.406  0.2282 -0.5857 -1.7125
 2908SOL    HW215583   3.337  12.443   3.281 -2.8444  3.7904  0.7082
 2909SOL     OW15584   3.060  10.689   8.077  0.5125 -0.7421 -0.6998
 2909SOL    HW115585   3.076  10.645   7.994 -0.5618 -1.2383 -0.6615
 2909SOL    HW215586   2.964  10.700   8.081  0.5622 -0.5013  0.3505
 2910SOL     OW15587   3.302  11.338  12.090 -0.4551 -0.3347 -0.1095
 2910SOL    HW115588   3.273  11.249  12.109  1.7357 -1.2120 -0.5881
 2910SOL    HW215589   3.318  11.339  11.996 -1.3221  0.8736 -0.2779
 2911SOL     OW15590   5.834   5.903   7.400  0.1340 -0.2357  0.3054
 2911SOL    HW115591   5.801   5.869   7.317 -3.2712  1.1015  0.9433
 2911SOL    HW215592   5.828   5.829   7.460  3.3643 -1.4473 -0.6384
 2912SOL     OW15593  10.541   9.775   8.002  0.3546 -0.6843  0.0085
 2912SOL    HW115594  10.477   9.717   8.044  0.3588  0.0134  1.0209
 2912SOL    HW215595  10.494   9.812   7.928 -0.3795 -0.2944  0.6488
 2913SOL     OW15596   6.682   2.872   6.452  0.2559 -0.0653 -0.0775
 2913SOL    HW115597   6.748   2.823   6.404  0.3430 -0.3768  0.3471
 2913SOL    HW215598   6.683   2.959   6.413  0.7613 -0.1302 -0.2179
 2914SOL     OW15599   5.651   4.974   0.959 -0.3300  0.0394  0.5549
 2914SOL    HW115600   5.672   5.009   1.046 -1.0600 -1.8919  1.5723
 2914SOL    HW215601   5.736   4.961   0.918  0.3544 -2.7440  2.5793
 2915SOL     OW15602   9.461   7.142   5.686 -0.4054 -0.4015  0.6824
 2915SOL    HW115603   9.518   7.217   5.671 -0.0514 -0.9470 -0.8842
 2915SOL    HW215604   9.508   7.088   5.750 -0.3090  0.3322  1.2354
 2916SOL     OW15605   3.283   3.989   8.555 -0.0280  0.0754 -0.0608
 2916SOL    HW115606   3.379   3.988   8.561 -0.0576  0.5026  0.6271
 2916SOL    HW215607   3.265   4.007   8.462  0.5466 -0.6304 -0.3197
 2917SOL     OW15608   7.301   1.238   2.293 -0.2925  0.1573 -0.0546
 2917SOL    HW115609   7.353   1.298   2.348 -1.2436  0.7211  0.2559
 2917SOL    HW215610   7.236   1.201   2.353 -0.6932 -0.0056 -0.5841
 2918SOL     OW15611   5.539   4.134   9.267 -0.0639  0.1358 -0.1233
 2918SOL    HW115612   5.499   4.073   9.206  0.0181  1.0820 -1.1502
 2918SOL    HW215613   5.614   4.171   9.220  0.0292  0.8428  0.5505
 2919SOL     OW15614   6.743  12.225   4.459  0.3567  0.2379  0.3552
 2919SOL    HW115615   6.679  12.177   4.512  0.1847  0.3302  0.2330
 2919SOL    HW215616   6.825  12.178   4.471 -0.1244 -1.0284 -0.9753
 2920SOL     OW15617   3.789   6.883   9.435 -0.1344 -0.3730 -0.2451
 2920SOL    HW115618   3.769   6.956   9.494  0.5991 -1.2117  1.0815
 2920SOL    HW215619   3.710   6.830   9.434  0.0198 -0.6250  0.4122
 2921SOL     OW15620   5.762   9.949   6.873  0.3496 -0.0153 -0.0513
 2921SOL    HW115621   5.825   9.934   6.943  0.1373 -1.0629 -0.0606
 2921SOL    HW215622   5.692  10.001   6.914  0.5506 -0.0389  0.3268
 2922SOL     OW15623   4.897   9.671  11.168  0.2128  0.3719  0.4904
 2922SOL    HW115624   4.883   9.608  11.239  2.4331 -0.3388  0.3826
 2922SOL    HW215625   4.849   9.634  11.093  0.3480 -0.4612  0.8091
 2923SOL     OW15626   3.439   4.753   6.217 -0.4921  0.0298  0.4700
 2923SOL    HW115627   3.412   4.810   6.145  0.7037 -0.8400 -0.7328
 2923SOL    HW215628   3.360   4.741   6.269 -1.3617  0.8197 -0.6167
 2924SOL     OW15629   0.250   7.526   4.113 -0.4523 -0.6160  0.3750
 2924SOL    HW115630   0.167   7.553   4.150 -0.1851  0.5829  0.1371
 2924SOL    HW215631   0.281   7.603   4.065 -0.3445 -1.8000 -1.5457
 2925SOL     OW15632   5.566   5.803   5.364  0.3119  0.3046  0.5960
 2925SOL    HW115633   5.538   5.876   5.309 -1.7598 -1.4770 -0.8736
 2925SOL    HW215634   5.591   5.734   5.302 -0.7497 -1.2770  1.8457
 2926SOL     OW15635   5.993   9.460   4.853  0.4582  0.5301 -0.5335
 2926SOL    HW115636   5.982   9.365   4.866  1.3400  0.5070  0.0937
 2926SOL    HW215637   6.086   9.475   4.867 -0.1038  1.9446  2.4692
 2927SOL     OW15638  10.046   2.855  12.574  0.0983 -0.4593 -0.1901
 2927SOL    HW115639  10.006   2.778  12.535 -1.0107 -0.6394  1.2366
 2927SOL    HW215640  10.122   2.821  12.622  0.5765 -0.4283 -0.9074
 2928SOL     OW15641   0.186   0.774   4.319  0.0549 -0.1160 -0.3145
 2928SOL    HW115642   0.155   0.863   4.302  1.4198  0.5173  0.3379
 2928SOL    HW215643   0.118   0.735   4.374 -0.3362  0.6951 -0.2098
 2929SOL     OW15644   4.879   5.460   1.417 -0.6190  0.0633 -0.2722
 2929SOL    HW115645   4.808   5.397   1.405 -0.8890 -0.1530  1.9009
 2929SOL    HW215646   4.941   5.416   1.475  0.6653  0.7271 -1.1052
 2930SOL     OW15647   6.502   8.751   3.554  0.5010 -0.0430  0.6376
 2930SOL    HW115648   6.429   8.790   3.603 -0.8227 -0.6665 -0.7315
 2930SOL    HW215649   6.570   8.818   3.555 -1.0402  1.6328 -0.1410
 2931SOL     OW15650   3.586   0.278   7.416 -0.1325 -0.7345  0.4760
 2931SOL    HW115651   3.649   0.319   7.475  1.8662  1.5224 -2.8626
 2931SOL    HW215652   3.610   0.186   7.416  2.3004 -0.1797  0.4577
 2932SOL     OW15653   3.169  12.482   6.354  0.6784  0.5516  0.0737
 2932SOL    HW115654   3.112  12.475   6.431  0.4936  1.5308  0.0412
 2932SOL    HW215655   3.143  12.564   6.312  2.5847  1.4139  0.4588
 2933SOL     OW15656  11.729  11.748   2.614  0.6461  0.1973 -0.2374
 2933SOL    HW115657  11.717  11.696   2.694  2.4690  0.9619  0.5953
 2933SOL    HW215658  11.814  11.721   2.580  0.0550  0.1450 -1.7540
 2934SOL     OW15659   6.565   1.424   7.203  0.2658 -0.8265  0.5063
 2934SOL    HW115660   6.634   1.487   7.181 -1.7990  1.3616 -0.2179
 2934SOL    HW215661   6.610   1.354   7.250  3.0063  0.2588 -0.3093
 2935SOL     OW15662   2.785   8.237   2.073  0.3109 -0.8222 -0.1125
 2935SOL    HW115663   2.791   8.191   2.157 -1.8345  1.3705  1.3767
 2935SOL    HW215664   2.693   8.226   2.047  0.2051  1.0267 -0.6193
 2936SOL     OW15665   0.025   7.153  10.315  1.0784  0.0774 -0.3940
 2936SOL    HW115666  -0.052   7.171  10.261 -0.2715 -0.6128  1.2341
 2936SOL    HW215667   0.037   7.058  10.309  0.9565  0.0037  0.4657
 2937SOL     OW15668   1.117  10.586   8.442 -0.0620  0.0002 -0.3861
 2937SOL    HW115669   1.165  10.627   8.514 -0.2080 -1.3772  0.5400
 2937SOL    HW215670   1.179  10.525   8.404 -0.4419 -0.3148 -0.5027
 2938SOL     OW15671  11.649  11.376  10.494  0.3063 -0.0096  1.1602
 2938SOL    HW115672  11.745  11.378  10.498  0.4499 -1.7166 -0.5839
 2938SOL    HW215673  11.627  11.427  10.416 -0.1776 -0.2778  1.1200
 2939SOL     OW15674  11.411  11.758   9.993 -0.5588  0.4478 -0.2843
 2939SOL    HW115675  11.360  11.700  10.048  0.3537 -0.6005 -0.5070
 2939SOL    HW215676  11.482  11.704   9.960  0.8610  1.9125  0.2205
 2940SOL     OW15677   5.176   4.123   2.205  0.4920  0.8684 -0.3538
 2940SOL    HW115678   5.100   4.065   2.208  1.1321  0.0339  0.4066
 2940SOL    HW215679   5.239   4.077   2.149  1.1267  0.6536  0.5167
 2941SOL     OW15680   0.319   3.581   8.159 -0.0144 -0.1178 -0.6092
 2941SOL    HW115681   0.388   3.519   8.183  1.2017  0.9246 -1.2759
 2941SOL    HW215682   0.316   3.642   8.233 -1.0673 -0.8467 -0.0438
 2942SOL     OW15683   3.073   8.419   9.510  0.8571 -0.0088 -0.2762
 2942SOL    HW115684   3.087   8.384   9.598 -0.1849  3.1748  1.3029
 2942SOL    HW215685   2.987   8.387   9.484  0.0892  1.0034  0.9618
 2943SOL     OW15686   3.845   2.367   5.594 -0.1305  0.0807  0.5131
 2943SOL    HW115687   3.754   2.382   5.620 -0.6805  0.4875 -1.5100
 2943SOL    HW215688   3.891   2.350   5.677 -2.0555 -0.2920  1.5645
 2944SOL     OW15689   1.585   4.123   2.964 -0.0020  0.2004  0.5750
 2944SOL    HW115690   1.607   4.078   3.045  0.6711  1.5318  1.1563
 2944SOL    HW215691   1.588   4.054   2.897  0.1997 -0.7630  1.5514
 2945SOL     OW15692   6.940   8.903   0.396  0.4163 -0.3080  0.8604
 2945SOL    HW115693   6.976   8.950   0.320 -2.4528  0.7263  0.0225
 2945SOL    HW215694   6.988   8.939   0.470  2.5007 -0.5112 -0.3001
 2946SOL     OW15695   6.629   2.917   2.419  0.3471  0.3322 -0.0117
 2946SOL    HW115696   6.693   2.984   2.445 -2.0052  2.1584  1.4986
 2946SOL    HW215697   6.597   2.881   2.501 -0.8591 -0.2375 -0.7037
 2947SOL     OW15698   3.653   6.527   1.610  0.1995 -0.5254 -0.4297
 2947SOL    HW115699   3.625   6.612   1.577 -0.1588 -0.3450  0.3039
 2947SOL    HW215700   3.658   6.471   1.533 -0.1703 -0.0024 -0.8392
 2948SOL     OW15701   4.375   8.786   9.283 -0.0930  0.3865 -0.5346
 2948SOL    HW115702   4.428   8.810   9.358 -1.1188 -1.1715  0.7764
 2948SOL    HW215703   4.285   8.781   9.318 -0.3985 -1.7716 -1.4705
 2949SOL     OW15704   5.375   6.405  12.499  0.2666 -0.0796  0.6071
 2949SOL    HW115705   5.391   6.498  12.514 -1.1987  0.6048 -1.5430
 2949SOL    HW215706   5.455   6.362  12.527  0.7282  1.7429  2.2732
 2950SOL     OW15707   9.164   6.609   1.400 -0.2847  0.4269  0.2393
 2950SOL    HW115708   9.107   6.632   1.473  0.2446 -0.5905  1.0020
 2950SOL    HW215709   9.230   6.551   1.439  0.0828 -0.0304 -1.0224
 2951SOL     OW15710  11.244   3.505   3.354  0.1124  0.3909 -0.1225
 2951SOL    HW115711  11.328   3.534   3.318  0.4046 -1.0800 -0.7149
 2951SOL    HW215712  11.198   3.468   3.278 -0.6713  0.2857  0.3940
 2952SOL     OW15713   8.248   9.078   9.988 -0.0588  0.1565 -0.3287
 2952SOL    HW115714   8.180   9.013  10.006 -0.2650  0.1839 -0.9801
 2952SOL    HW215715   8.246   9.088   9.893 -0.4223  1.5637 -0.1835
 2953SOL     OW15716   0.592   5.909   0.995 -0.6259  0.2777 -0.6503
 2953SOL    HW115717   0.551   5.823   0.983 -1.6998  0.7841 -0.7662
 2953SOL    HW215718   0.674   5.891   1.040 -0.4325 -0.8858 -1.4434
 2954SOL     OW15719   1.817   4.177   7.557  0.0005  0.3916  0.7128
 2954SOL    HW115720   1.787   4.265   7.582 -1.6168  0.2259 -0.5410
 2954SOL    HW215721   1.907   4.173   7.590 -0.2533  2.1143  1.7472
 2955SOL     OW15722   9.672   9.253   3.198  0.2754 -0.3369  0.1252
 2955SOL    HW115723   9.765   9.246   3.220 -0.0517 -1.5721  1.2180
 2955SOL    HW215724   9.661   9.193   3.124  0.6858  1.2153 -1.2469
 2956SOL     OW15725  11.272   5.745   8.201  0.4249 -0.3494  0.1712
 2956SOL    HW115726  11.184   5.779   8.210 -0.1003 -1.5994  0.0264
 2956SOL    HW215727  11.327   5.802   8.256 -0.5849 -0.0163  0.8513
 2957SOL     OW15728   7.050   9.250   5.861 -0.1415  0.0182 -0.5286
 2957SOL    HW115729   7.037   9.312   5.934  0.4367 -0.2238 -0.2167
 2957SOL    HW215730   7.062   9.165   5.904  0.8066 -0.0308 -0.8824
 2958SOL     OW15731   8.058   6.301   3.175  0.0331 -0.0971  0.1268
 2958SOL    HW115732   8.066   6.259   3.261  0.8659  0.7426  0.4763
 2958SOL    HW215733   8.129   6.365   3.173 -1.1999  1.3104 -0.3889
 2959SOL     OW15734  10.048   5.646   3.324  0.5837 -1.1281  0.0696
 2959SOL    HW115735   9.993   5.586   3.373 -1.4512  0.7342  0.2383
 2959SOL    HW215736  10.063   5.602   3.240 -1.4800 -1.6127 -0.1084
 2960SOL     OW15737  11.722   9.558  11.922 -0.1077 -0.4985  0.0823
 2960SOL    HW115738  11.734   9.472  11.881 -2.4781 -0.3752 -1.0567
 2960SOL    HW215739  11.686   9.613  11.853 -1.0411  0.6979  1.4512
 2961SOL     OW15740  11.793   1.627   1.775  0.0588  0.1160  0.3787
 2961SOL    HW115741  11.886   1.650   1.763 -0.6025  1.8686 -2.2817
 2961SOL    HW215742  11.783   1.617   1.869  2.9613 -0.2578  0.7607
 2962SOL     OW15743  11.273   8.307   3.088  0.2564  0.2266 -0.1920
 2962SOL    HW115744  11.334   8.266   3.150 -0.5440 -1.7338 -0.6096
 2962SOL    HW215745  11.325   8.326   3.011  0.4749 -0.9473 -0.3476
 2963SOL     OW15746   5.938   0.473   2.230  0.0305  0.3072 -0.0843
 2963SOL    HW115747   5.870   0.434   2.284  0.4439  1.0044  0.9693
 2963SOL    HW215748   5.894   0.543   2.183 -0.3522 -0.3642 -0.7474
 2964SOL     OW15749   6.517   3.868   4.417  0.1606 -0.6534 -0.1361
 2964SOL    HW115750   6.516   3.851   4.322  0.6597  0.8178 -0.4229
 2964SOL    HW215751   6.603   3.908   4.433 -0.9156  1.5778  0.4497
 2965SOL     OW15752   7.534   9.809  10.294  0.2382  0.1784 -0.0355
 2965SOL    HW115753   7.497   9.893  10.322 -1.9082  0.1499 -2.3964
 2965SOL    HW215754   7.564   9.825  10.204  0.9718 -1.2569 -0.0759
 2966SOL     OW15755  11.941   7.102   3.775  0.4921  0.0140  0.2686
 2966SOL    HW115756  11.967   7.044   3.704  0.2138  0.7023 -0.4138
 2966SOL    HW215757  12.018   7.106   3.833  0.7281 -0.5264 -0.0011
 2967SOL     OW15758   9.045   0.313   3.041 -0.1724  0.8825  0.2413
 2967SOL    HW115759   9.028   0.398   3.001 -0.5637  0.0902 -1.3596
 2967SOL    HW215760   8.969   0.260   3.019  0.6241 -0.2502  0.1200
 2968SOL     OW15761  10.380   9.540   7.024  0.2540 -0.3176  0.0800
 2968SOL    HW115762  10.294   9.579   7.005 -0.6110 -1.7506  0.8635
 2968SOL    HW215763  10.371   9.502   7.111  1.5542 -0.8742 -0.0018
 2969SOL     OW15764   1.908  11.550  10.392  0.0643 -0.4651 -0.3973
 2969SOL    HW115765   1.942  11.476  10.341 -1.6315 -0.6087 -1.3967
 2969SOL    HW215766   1.814  11.550  10.375  0.0055  1.9367 -0.4543
 2970SOL     OW15767   9.368   6.476   3.843 -0.0570 -0.3621 -0.0784
 2970SOL    HW115768   9.286   6.526   3.839  0.2150  0.0412 -0.8236
 2970SOL    HW215769   9.352   6.400   3.787  0.7051  0.6965 -1.8289
 2971SOL     OW15770  12.349   2.444  12.070 -0.8100  0.2387  0.6267
 2971SOL    HW115771  12.339   2.536  12.093  0.9457  0.4763  0.5482
 2971SOL    HW215772  12.261   2.416  12.046 -1.2961  2.0306  0.1332
 2972SOL     OW15773   8.940   6.278   9.400 -1.0110  0.1065 -0.2697
 2972SOL    HW115774   9.000   6.345   9.431 -0.8908 -1.0223  2.1855
 2972SOL    HW215775   8.861   6.326   9.373  0.0754  1.4062 -1.2351
 2973SOL     OW15776   6.341   6.122  10.889 -0.0819  0.2547  0.1854
 2973SOL    HW115777   6.360   6.191  10.952 -0.5864  0.7682 -0.2155
 2973SOL    HW215778   6.307   6.050  10.942  1.0912  0.0507  0.6863
 2974SOL     OW15779  11.556   0.187   0.237  0.1700 -0.2608 -0.0129
 2974SOL    HW115780  11.599   0.268   0.210  0.9310 -0.4969  0.4745
 2974SOL    HW215781  11.489   0.172   0.170  0.2375  0.5938 -0.2838
 2975SOL     OW15782   2.767  11.393   5.749 -0.1965 -0.1522  0.1276
 2975SOL    HW115783   2.727  11.434   5.673  0.9620 -0.9346 -0.9553
 2975SOL    HW215784   2.706  11.409   5.820 -1.5962  0.1160 -1.0869
 2976SOL     OW15785   1.127   3.333   4.587  0.2272  0.6202 -0.9204
 2976SOL    HW115786   1.099   3.242   4.578  0.2585  0.4744  0.2386
 2976SOL    HW215787   1.124   3.369   4.498 -0.3425 -0.3441 -1.3026
 2977SOL     OW15788   9.451   7.077   6.336 -0.0471 -0.2054  0.2057
 2977SOL    HW115789   9.385   7.055   6.270  0.8955  1.4220 -1.3696
 2977SOL    HW215790   9.409   7.143   6.391 -0.6258 -1.1180  0.8788
 2978SOL     OW15791   1.588   4.470   5.048 -0.1115 -0.5864  0.1327
 2978SOL    HW115792   1.565   4.384   5.084 -1.4018 -0.1007  0.4934
 2978SOL    HW215793   1.556   4.533   5.112  1.9824  0.1653  0.5160
 2979SOL     OW15794   5.989  11.378   2.768  0.0857 -0.0914 -0.0406
 2979SOL    HW115795   6.059  11.430   2.729 -1.6538  2.0797 -0.4742
 2979SOL    HW215796   5.989  11.297   2.718  1.4313  0.3993 -0.8917
 2980SOL     OW15797   3.087   8.408   9.792 -0.1213 -0.0069 -0.2842
 2980SOL    HW115798   3.095   8.418   9.887  0.6662 -0.1095 -0.3378
 2980SOL    HW215799   3.131   8.326   9.772  1.2543  0.8382 -0.9346
 2981SOL     OW15800  10.641   6.065   6.015 -0.5084 -0.1449  0.1888
 2981SOL    HW115801  10.680   6.015   6.086  1.0135 -0.6811 -0.9641
 2981SOL    HW215802  10.670   6.020   5.935 -3.6413 -0.6628 -0.7947
 2982SOL     OW15803   8.715   4.849   8.947  0.9508 -0.9004 -0.3176
 2982SOL    HW115804   8.790   4.901   8.916  1.3798 -0.8394  0.7752
 2982SOL    HW215805   8.651   4.915   8.977  0.8761 -0.9686 -0.3259
 2983SOL     OW15806  12.171  11.069   9.849 -0.3349 -0.2562  0.2067
 2983SOL    HW115807  12.142  11.149   9.893  1.4514  0.4360  0.1911
 2983SOL    HW215808  12.174  11.092   9.757  1.6329  0.1769  0.3410
 2984SOL     OW15809   5.079   1.534   9.133  0.3204 -0.2218 -0.1556
 2984SOL    HW115810   5.011   1.478   9.096 -0.2039 -1.2859  2.2472
 2984SOL    HW215811   5.033   1.615   9.156  0.2398 -0.2797 -0.1128
 2985SOL     OW15812  10.995   0.231   0.650 -0.0993  0.1741  0.1881
 2985SOL    HW115813  11.042   0.291   0.593 -1.2155  0.8124 -0.0941
 2985SOL    HW215814  10.924   0.197   0.596  0.9776 -2.0716  0.0857
 2986SOL     OW15815   0.930   0.897   0.501  0.5624 -0.2963 -0.5164
 2986SOL    HW115816   0.835   0.904   0.498  0.3622 -1.6232  1.2636
 2986SOL    HW215817   0.949   0.813   0.458  0.6836 -1.1527  1.1105
 2987SOL     OW15818   9.517   8.005  10.433  0.2994 -0.3225  0.4074
 2987SOL    HW115819   9.441   7.954  10.405 -1.4496  2.2156  0.2176
 2987SOL    HW215820   9.592   7.960  10.393 -1.5124 -0.3417 -3.4279
 2988SOL     OW15821  11.201   4.372   8.396  0.1988 -0.2802  0.9555
 2988SOL    HW115822  11.267   4.355   8.464  1.2728 -2.3726 -0.4885
 2988SOL    HW215823  11.184   4.466   8.402  0.0530 -0.3939  4.2310
 2989SOL     OW15824   3.697  10.271  10.492 -0.1313 -0.0938  0.0808
 2989SOL    HW115825   3.672  10.198  10.549 -0.4007  0.3721  0.5687
 2989SOL    HW215826   3.662  10.247  10.406 -3.4103  1.0287  0.9272
 2990SOL     OW15827   2.568   3.661   5.088  0.3913  0.8991  0.4957
 2990SOL    HW115828   2.612   3.629   5.009  0.2188  0.7914  0.4423
 2990SOL    HW215829   2.622   3.630   5.160  0.1832  0.4260  0.4474
 2991SOL     OW15830  11.942   8.296   2.506 -0.5529  0.1642 -0.1912
 2991SOL    HW115831  11.908   8.242   2.434  0.8988 -1.8889  0.5468
 2991SOL    HW215832  12.015   8.344   2.468 -0.6394  0.1085 -0.4262
 2992SOL     OW15833   7.451   2.683  10.486 -0.3012  0.2084 -0.2637
 2992SOL    HW115834   7.395   2.724  10.420  0.2563  0.4047 -0.6273
 2992SOL    HW215835   7.535   2.728  10.477  0.1701 -0.6611 -0.3162
 2993SOL     OW15836  10.244   3.017   0.200  0.1539 -0.5041 -0.2934
 2993SOL    HW115837  10.245   2.922   0.213 -0.7446 -0.4433  0.3220
 2993SOL    HW215838  10.302   3.031   0.125 -0.4587 -1.6384 -1.0156
 2994SOL     OW15839   6.391  10.743   6.905 -0.7521  0.0552 -0.1032
 2994SOL    HW115840   6.375  10.661   6.951  0.9053 -0.3999 -0.2754
 2994SOL    HW215841   6.343  10.808   6.956  0.7684 -0.4579  2.1776
 2995SOL     OW15842   4.029   7.159   9.162  0.1457 -0.2102 -0.1671
 2995SOL    HW115843   3.948   7.205   9.183  0.1567 -0.7345  1.1304
 2995SOL    HW215844   4.096   7.227   9.163 -0.1464  0.0875 -0.4263
 2996SOL     OW15845   9.474   5.634   4.755  0.0301 -0.5547 -0.9743
 2996SOL    HW115846   9.500   5.542   4.760 -0.0202 -0.6188 -1.8238
 2996SOL    HW215847   9.518   5.675   4.830  0.0193 -1.2728 -0.5665
 2997SOL     OW15848   2.995   7.187   6.520 -0.0360  0.2831  0.1368
 2997SOL    HW115849   2.929   7.256   6.504 -0.0047  0.0104 -1.3403
 2997SOL    HW215850   3.003   7.184   6.615  0.8807  3.2100  0.2609
 2998SOL     OW15851   7.111  10.055   2.190  0.0137 -0.3060 -0.4035
 2998SOL    HW115852   7.127   9.985   2.253  0.1958 -1.0855 -1.2859
 2998SOL    HW215853   7.185  10.050   2.130 -1.0279 -0.7628 -1.7057
 2999SOL     OW15854   3.637   8.307   3.768 -0.6285 -0.1791 -0.3175
 2999SOL    HW115855   3.680   8.393   3.771 -1.6077  0.2945  0.8363
 2999SOL    HW215856   3.613   8.289   3.858 -1.3240 -1.2145 -0.6962
 3000SOL     OW15857   4.475   7.114  11.570 -0.1920  0.2656 -0.3273
 3000SOL    HW115858   4.549   7.056  11.553 -0.0582  0.4999 -0.5470
 3000SOL    HW215859   4.475   7.176  11.498  0.2937  1.1819  0.4410
 3001SOL     OW15860   9.053   7.626   0.292  0.8957 -0.2114 -0.1621
 3001SOL    HW115861   8.977   7.639   0.235  2.5654  1.2714 -2.2176
 3001SOL    HW215862   9.050   7.700   0.353  0.9408  0.1542 -0.5917
 3002SOL     OW15863   6.917   0.204   4.314 -0.1458 -0.1215 -0.5623
 3002SOL    HW115864   6.844   0.192   4.376  0.5111  1.1150  0.4927
 3002SOL    HW215865   6.875   0.238   4.235 -0.9823 -1.5859 -0.7773
 3003SOL     OW15866  11.202   7.715   5.519 -0.4535  0.3548  0.1370
 3003SOL    HW115867  11.171   7.806   5.517 -1.9732 -0.0793  1.6192
 3003SOL    HW215868  11.253   7.705   5.438 -3.3035  1.4793 -1.9689
 3004SOL     OW15869   7.538   9.533  12.196  0.3877 -0.6114 -0.3383
 3004SOL    HW115870   7.603   9.466  12.175 -0.2142 -1.2928 -0.0665
 3004SOL    HW215871   7.572   9.576  12.275 -0.3340 -2.1633  0.8644
 3005SOL     OW15872   4.776   0.441   9.719 -0.2014  0.5984  0.2529
 3005SOL    HW115873   4.822   0.359   9.737 -0.0658  0.1574 -1.7898
 3005SOL    HW215874   4.807   0.502   9.786 -1.0392 -1.2316  2.4445
 3006SOL     OW15875  12.499  10.319   8.805  0.1273  0.4790 -0.1223
 3006SOL    HW115876  12.581  10.312   8.854 -0.0063 -1.1061 -0.0754
 3006SOL    HW215877  12.523  10.360   8.722  0.6241  1.7433  0.6209
 3007SOL     OW15878   3.200  10.201   3.371  0.1539  0.0264  0.2502
 3007SOL    HW115879   3.228  10.282   3.329  0.5455  1.2063  2.6488
 3007SOL    HW215880   3.108  10.216   3.392  0.4923  0.2629  1.6020
 3008SOL     OW15881   3.695   2.777   8.232 -0.0783 -0.0442  0.0225
 3008SOL    HW115882   3.730   2.812   8.314 -1.8379 -0.3130  0.9302
 3008SOL    HW215883   3.681   2.684   8.250 -2.0412  0.2041  0.0296
 3009SOL     OW15884  11.881   7.035   6.043 -0.0879 -0.0097  0.0337
 3009SOL    HW115885  11.963   7.009   6.085  0.5716 -0.4544 -1.4513
 3009SOL    HW215886  11.835   7.086   6.109  1.4842  0.4357  0.8280
 3010SOL     OW15887   3.329   5.679   7.838 -0.4991  0.1314  0.2938
 3010SOL    HW115888   3.319   5.772   7.857  0.8808  0.2449  0.5683
 3010SOL    HW215889   3.264   5.662   7.770 -0.1732  1.5176 -0.4230
 3011SOL     OW15890   8.926   5.702   6.271 -0.1872 -0.1318 -0.1866
 3011SOL    HW115891   9.020   5.718   6.262 -0.3905  0.5361 -1.2476
 3011SOL    HW215892   8.914   5.679   6.363  1.1071 -0.8598 -0.1836
 3012SOL     OW15893   4.918   8.540   8.681  0.0159 -0.4116  0.0763
 3012SOL    HW115894   4.949   8.610   8.624  0.3553 -0.0869  0.6456
 3012SOL    HW215895   4.864   8.584   8.746 -0.4631 -0.7935 -0.0623
 3013SOL     OW15896   8.539  10.591   1.286 -0.0713 -0.2759 -0.3858
 3013SOL    HW115897   8.518  10.671   1.334 -1.3948  0.4216 -2.0279
 3013SOL    HW215898   8.476  10.589   1.214  1.5004 -1.4983 -1.8162
 3014SOL     OW15899   4.237  11.592   8.615 -0.4735 -0.1208 -0.4057
 3014SOL    HW115900   4.280  11.529   8.557 -1.4107 -2.2480  1.0616
 3014SOL    HW215901   4.301  11.607   8.685 -0.6035 -0.1635 -0.2771
 3015SOL     OW15902   4.598   4.167   3.239  0.1336 -0.3730 -0.0248
 3015SOL    HW115903   4.631   4.089   3.283  1.0879 -0.5707 -1.0396
 3015SOL    HW215904   4.574   4.226   3.310  0.8947 -0.9767  0.7643
 3016SOL     OW15905  10.345   7.798   3.828  0.1817  0.3421  0.2621
 3016SOL    HW115906  10.389   7.882   3.812  0.2760  0.5760  1.5957
 3016SOL    HW215907  10.374   7.741   3.757  0.9934  1.1212 -0.0426
 3017SOL     OW15908   1.634   4.214   4.585  0.6073  1.0864 -0.4230
 3017SOL    HW115909   1.658   4.136   4.636 -1.3836  0.3529 -0.4847
 3017SOL    HW215910   1.619   4.281   4.651  0.7747  0.9418 -0.2373
 3018SOL     OW15911   6.565   8.895   4.123  0.0606 -0.2780  0.1104
 3018SOL    HW115912   6.515   8.952   4.064  0.1550 -1.6364 -1.3665
 3018SOL    HW215913   6.500   8.864   4.187 -1.1731 -2.1563 -1.8849
 3019SOL     OW15914  11.533   6.800   2.681  0.1029 -0.0542  0.2683
 3019SOL    HW115915  11.502   6.710   2.690  1.2152 -0.5592 -0.6857
 3019SOL    HW215916  11.599   6.795   2.612  0.6535  1.3789  0.6759
 3020SOL     OW15917   9.714   2.906   6.590  0.2958  0.0644 -0.4150
 3020SOL    HW115918   9.704   2.874   6.501 -0.3941  2.0986 -1.1194
 3020SOL    HW215919   9.673   2.992   6.590 -2.0596 -0.8910  2.5489
 3021SOL     OW15920   7.954  11.465   8.249  0.0092 -0.0628 -0.3712
 3021SOL    HW115921   7.899  11.542   8.236 -1.5215 -1.2271 -1.0822
 3021SOL    HW215922   7.957  11.453   8.344  0.0298  0.6838 -0.2710
 3022SOL     OW15923   5.110   3.668  11.019 -0.0669 -0.6126 -0.4899
 3022SOL    HW115924   5.160   3.601  11.066  0.1107 -0.8925 -1.0606
 3022SOL    HW215925   5.021   3.632  11.013 -0.3229 -0.1503  0.4557
 3023SOL     OW15926   9.857   1.743   3.771  0.2544 -0.2576  0.1517
 3023SOL    HW115927   9.900   1.792   3.701 -0.9657 -0.7131 -0.9568
 3023SOL    HW215928   9.831   1.661   3.730 -1.6713  0.0043  0.7478
 3024SOL     OW15929   1.680  10.022   7.465  0.3891 -0.3332  0.0106
 3024SOL    HW115930   1.647   9.951   7.520  0.1547 -0.0822  0.1980
 3024SOL    HW215931   1.690  10.096   7.526 -0.0388 -0.0027 -0.3174
 3025SOL     OW15932   1.867   2.734  10.506  0.2337  0.0227 -0.1782
 3025SOL    HW115933   1.804   2.678  10.551 -1.6330  1.1980 -1.2360
 3025SOL    HW215934   1.873   2.697  10.418  0.8050  0.1130 -0.1806
 3026SOL     OW15935   8.125  12.395   6.736  0.4816 -0.3435 -0.1238
 3026SOL    HW115936   8.059  12.455   6.770 -0.1843 -0.9363 -0.3402
 3026SOL    HW215937   8.181  12.449   6.680 -2.8290 -0.6381 -4.1675
 3027SOL     OW15938   7.979   2.492   7.658 -0.4714 -0.1516  0.2423
 3027SOL    HW115939   7.884   2.496   7.671 -0.4741  2.6778 -0.0102
 3027SOL    HW215940   8.015   2.506   7.746 -0.3092 -0.1946  0.1826
 3028SOL     OW15941   4.485   8.476   5.198  0.0105  0.8547  0.3241
 3028SOL    HW115942   4.408   8.419   5.194  0.9419 -0.3953 -0.5268
 3028SOL    HW215943   4.482   8.526   5.116  0.6557  0.0407 -0.2072
 3029SOL     OW15944   6.872   9.182   8.149  0.9165 -0.2322  0.1706
 3029SOL    HW115945   6.840   9.191   8.239  1.8549 -0.9583  0.5929
 3029SOL    HW215946   6.934   9.110   8.153  0.5512 -0.6444 -1.1906
 3030SOL     OW15947   0.752  11.797   0.180  0.1281 -0.4249  0.4144
 3030SOL    HW115948   0.823  11.861   0.169 -1.2570  1.1984  0.6058
 3030SOL    HW215949   0.700  11.804   0.101 -0.4020 -0.8639  0.7148
 3031SOL     OW15950  11.501   7.309   1.369 -0.2351  0.4911  0.3794
 3031SOL    HW115951  11.441   7.306   1.295 -0.9088  1.0062  0.8798
 3031SOL    HW215952  11.531   7.219   1.380  0.6197  0.5588 -1.0899
 3032SOL     OW15953   2.639   9.975   5.268  0.0608  0.2881  0.0518
 3032SOL    HW115954   2.622   9.890   5.307  0.3134 -0.4025 -1.2781
 3032SOL    HW215955   2.589  10.037   5.320 -0.2905 -0.7013  0.9082
 3033SOL     OW15956   2.838   0.734   2.582  0.5128 -0.3465 -0.1409
 3033SOL    HW115957   2.901   0.698   2.644 -0.2283 -0.6692  0.4383
 3033SOL    HW215958   2.754   0.696   2.608 -0.3844  2.0148  0.7416
 3034SOL     OW15959   9.218   1.621   7.770  0.3876 -0.7656  0.2352
 3034SOL    HW115960   9.294   1.669   7.802  0.4434 -0.3944 -0.4323
 3034SOL    HW215961   9.252   1.566   7.700  0.1418 -1.0379  0.3271
 3035SOL     OW15962   7.122   7.982   6.182  0.6521 -0.0592  0.0605
 3035SOL    HW115963   7.199   7.941   6.142  0.8072 -2.5907  2.6243
 3035SOL    HW215964   7.148   8.001   6.272 -1.4897 -0.4292  0.8389
 3036SOL     OW15965   6.115   3.215  11.384 -0.1683 -0.1831 -0.6593
 3036SOL    HW115966   6.023   3.195  11.364 -0.3715  0.7929 -0.7531
 3036SOL    HW215967   6.116   3.310  11.395  0.8268 -0.1988 -0.6105
 3037SOL     OW15968  11.264   6.906   8.587  0.3623 -0.7285 -0.5025
 3037SOL    HW115969  11.284   6.979   8.646  1.4781 -1.4718  0.0740
 3037SOL    HW215970  11.206   6.944   8.521 -1.6019 -0.0538  1.4955
 3038SOL     OW15971   9.480  11.397   1.441  0.2015  0.2361 -0.7826
 3038SOL    HW115972   9.450  11.486   1.423  0.9867  0.8061  0.6031
 3038SOL    HW215973   9.433  11.371   1.520  1.3729  0.1604 -0.0841
 3039SOL     OW15974   0.460  11.958   9.038  0.1106 -0.3570  0.1754
 3039SOL    HW115975   0.442  11.965   9.132 -2.9932  0.9617 -0.4118
 3039SOL    HW215976   0.521  12.029   9.020  1.3062 -1.0617  1.2619
 3040SOL     OW15977   3.868   9.171   5.852  0.7899 -0.7178  0.0900
 3040SOL    HW115978   3.929   9.141   5.919  0.5124 -0.0084  0.6637
 3040SOL    HW215979   3.784   9.178   5.897  1.2549  3.2358  0.6725
 3041SOL     OW15980   8.022   1.661   1.109  0.1952  0.0674  0.2604
 3041SOL    HW115981   7.988   1.619   1.188 -0.7837  1.3239  0.5241
 3041SOL    HW215982   7.993   1.604   1.037 -1.5582  0.5133  0.5742
 3042SOL     OW15983  11.450   9.184   6.052 -0.1529 -0.0027  0.1889
 3042SOL    HW115984  11.371   9.131   6.042 -0.2626  0.1314  0.3503
 3042SOL    HW215985  11.443   9.251   5.984  0.3077 -0.5926 -0.4563
 3043SOL     OW15986   8.011   3.342   3.191  0.2973  0.1476  0.2007
 3043SOL    HW115987   8.014   3.438   3.186  0.1739  0.0959 -1.7238
 3043SOL    HW215988   8.102   3.317   3.209  0.1522  0.6268  1.7870
 3044SOL     OW15989   9.367   7.331   2.971  0.7887 -0.2172  0.4479
 3044SOL    HW115990   9.385   7.333   2.877  0.0405  0.5502  0.3067
 3044SOL    HW215991   9.354   7.423   2.994 -2.6674 -0.6326  0.5718
 3045SOL     OW15992   5.999   7.189   4.623 -0.1240 -0.0891 -0.1207
 3045SOL    HW115993   6.041   7.162   4.704  0.9567 -3.1147 -1.5539
 3045SOL    HW215994   6.017   7.283   4.617 -0.3856  0.2931  3.1380
 3046SOL     OW15995   2.731   6.175   2.935 -0.0847 -0.3477 -0.2451
 3046SOL    HW115996   2.640   6.201   2.948  0.2852  0.4524  0.9283
 3046SOL    HW215997   2.761   6.225   2.860 -0.2327  0.4128  0.1970
 3047SOL     OW15998   6.648   5.164   8.699 -0.6083 -0.2509 -0.0051
 3047SOL    HW115999   6.604   5.091   8.744 -0.1542 -0.3952  0.2092
 3047SOL    HW216000   6.706   5.121   8.636 -0.1484 -0.0773  0.3008
 3048SOL     OW16001   3.754  11.528   8.047 -0.0116 -0.2911  0.2085
 3048SOL    HW116002   3.757  11.622   8.029 -1.4167  0.0257  1.3481
 3048SOL    HW216003   3.731  11.488   7.964  0.9823  0.3251 -0.3801
 3049SOL     OW16004   4.478   8.323   9.933 -0.0338 -0.4734 -0.5634
 3049SOL    HW116005   4.406   8.373   9.970  0.4496 -0.4370  0.3579
 3049SOL    HW216006   4.442   8.235   9.921 -0.6224 -0.1310 -1.3610
 3050SOL     OW16007   3.648   4.633  11.433  0.7601  0.5243  0.2563
 3050SOL    HW116008   3.591   4.670  11.501  0.1330  2.8721 -1.4158
 3050SOL    HW216009   3.623   4.541  11.428 -1.7602  1.1019  0.7256
 3051SOL     OW16010   0.227   9.449   1.856  0.1548  0.0892 -0.0031
 3051SOL    HW116011   0.284   9.385   1.899 -0.0363 -0.2163 -0.1998
 3051SOL    HW216012   0.140   9.431   1.891  0.2522  0.8712  0.6582
 3052SOL     OW16013   9.002   4.597   4.325  0.1122  0.2937 -0.2774
 3052SOL    HW116014   8.916   4.631   4.303 -1.4663 -2.1801  1.5825
 3052SOL    HW216015   9.037   4.564   4.242 -1.2181  0.2843 -0.8544
 3053SOL     OW16016   4.989   4.639   2.083  0.1375  0.2607  0.4168
 3053SOL    HW116017   5.055   4.571   2.097  0.1398  0.1065 -0.3032
 3053SOL    HW216018   4.905   4.594   2.092  0.1252  0.4116  1.1109
 3054SOL     OW16019   4.508   5.871  10.702  0.2683 -0.5547 -0.8104
 3054SOL    HW116020   4.524   5.904  10.614 -1.9687  0.1312 -1.0121
 3054SOL    HW216021   4.559   5.928  10.759 -1.0001  1.2753 -1.4202
 3055SOL     OW16022   6.250   8.341   7.889  0.1583 -0.0959  0.4586
 3055SOL    HW116023   6.333   8.378   7.919 -0.0295  1.1908 -0.5011
 3055SOL    HW216024   6.212   8.299   7.966  1.9933 -1.2817  0.7649
 3056SOL     OW16025  10.210   5.070   3.743 -0.0475  0.2073  0.3647
 3056SOL    HW116026  10.293   5.024   3.750  0.2903  0.7920  0.3130
 3056SOL    HW216027  10.149   5.005   3.709  0.7817  0.2050 -1.1951
 3057SOL     OW16028   5.838   9.197   8.677  0.0824 -0.4985 -0.3076
 3057SOL    HW116029   5.811   9.105   8.682 -0.0611 -0.5375 -1.5743
 3057SOL    HW216030   5.799   9.237   8.755 -1.1568 -1.1860 -0.5458
 3058SOL     OW16031   4.330   5.065   4.305 -0.1685 -0.4113  0.5004
 3058SOL    HW116032   4.353   5.061   4.212 -4.0485  1.0020 -0.6925
 3058SOL    HW216033   4.365   5.150   4.334  1.2695 -0.9654  0.4627
 3059SOL     OW16034   5.461   2.793   9.375  0.4776  0.2394 -0.4789
 3059SOL    HW116035   5.415   2.819   9.295 -1.0329  0.3797  0.3786
 3059SOL    HW216036   5.469   2.874   9.425 -1.4071 -0.2852  0.8210
 3060SOL     OW16037   4.593   3.704   7.357  0.0171 -0.3149  0.0538
 3060SOL    HW116038   4.625   3.683   7.269 -0.4066  0.8078 -0.3895
 3060SOL    HW216039   4.595   3.799   7.361 -2.0633 -0.2390  0.4525
 3061SOL     OW16040   0.369   4.590   2.796 -0.6626 -0.0840  0.1605
 3061SOL    HW116041   0.423   4.552   2.866 -1.7711  1.6388  2.0928
 3061SOL    HW216042   0.308   4.521   2.772 -0.0285 -0.8309  0.6673
 3062SOL     OW16043   2.788   6.726   5.786 -0.6768 -0.5943 -0.2506
 3062SOL    HW116044   2.857   6.695   5.846  0.7544  1.4186 -0.7511
 3062SOL    HW216045   2.775   6.653   5.726 -0.1364 -1.6210  0.8205
 3063SOL     OW16046   8.281   8.137   8.829 -0.3279 -0.3524 -0.6457
 3063SOL    HW116047   8.213   8.201   8.808 -0.9322  0.0963  2.1993
 3063SOL    HW216048   8.344   8.187   8.882 -0.1484 -1.7850  0.5508
 3064SOL     OW16049  11.459  10.077   3.062 -0.0184  0.1311 -0.2447
 3064SOL    HW116050  11.456  10.101   3.155  0.6215 -0.9020  0.0565
 3064SOL    HW216051  11.527  10.010   3.056 -0.0392  0.1903 -1.4680
 3065SOL     OW16052   4.933   2.309   6.824 -0.0102 -0.3838 -0.4000
 3065SOL    HW116053   4.958   2.402   6.819 -0.0448 -0.1898  1.7960
 3065SOL    HW216054   5.007   2.262   6.786  1.4704  0.4289  1.3107
 3066SOL     OW16055   1.871   6.786   9.051  0.3569  0.0919 -0.2838
 3066SOL    HW116056   1.778   6.766   9.049  0.0573  0.4263  3.5412
 3066SOL    HW216057   1.875   6.880   9.066  1.2475 -0.1479  1.0925
 3067SOL     OW16058   3.104   5.655   7.667  0.2845 -0.0353  0.1068
 3067SOL    HW116059   3.125   5.659   7.574  0.3281 -3.9518 -0.2286
 3067SOL    HW216060   3.011   5.631   7.670  0.8051 -2.2107  0.8849
 3068SOL     OW16061  12.494   3.737  10.810  0.0914 -0.4595  0.0744
 3068SOL    HW116062  12.413   3.711  10.766  0.1711  0.8173 -0.8929
 3068SOL    HW216063  12.489   3.833  10.815  2.2948 -0.1643 -1.5829
 3069SOL     OW16064   8.875   1.267   0.412 -0.1138  0.0449 -0.6757
 3069SOL    HW116065   8.887   1.359   0.388  0.2071  0.1100 -0.2700
 3069SOL    HW216066   8.884   1.219   0.330 -0.5858  0.3981 -0.9429
 3070SOL     OW16067  10.175  10.655   4.137  0.6770  0.1863 -0.2185
 3070SOL    HW116068  10.179  10.719   4.067 -2.2571  1.0502  0.2812
 3070SOL    HW216069  10.241  10.684   4.201  2.5198  0.0672 -1.9755
 3071SOL     OW16070   5.988   5.004  11.696 -0.1344 -0.6419 -0.0481
 3071SOL    HW116071   6.034   5.030  11.776 -1.6317  0.5759  0.4825
 3071SOL    HW216072   5.992   4.909  11.695  1.1037 -0.6130  0.7375
 3072SOL     OW16073   2.327   6.768  12.198 -0.4491 -0.3284 -0.1716
 3072SOL    HW116074   2.413   6.770  12.157  0.0320 -2.0460  0.6806
 3072SOL    HW216075   2.340   6.813  12.282 -0.2424 -1.0692  0.1955
 3073SOL     OW16076  12.109   3.554  11.457 -0.0817  0.2042  0.1462
 3073SOL    HW116077  12.087   3.500  11.532 -1.8061  1.5431  0.6630
 3073SOL    HW216078  12.187   3.603  11.483 -0.0042 -0.1818  0.6282
 3074SOL     OW16079   7.312   0.583   4.660 -0.0780 -0.2773  0.0302
 3074SOL    HW116080   7.347   0.624   4.581  0.3811  1.8496  1.2665
 3074SOL    HW216081   7.218   0.603   4.657  0.2104  1.3678  0.8477
 3075SOL     OW16082   6.661   1.623   0.544 -0.1288 -0.6743  0.0313
 3075SOL    HW116083   6.739   1.589   0.500 -0.3583 -0.4667 -0.5436
 3075SOL    HW216084   6.617   1.675   0.477  0.3921  1.0520  0.9744
 3076SOL     OW16085   8.423  12.351   6.286 -0.3321  0.6659 -0.2863
 3076SOL    HW116086   8.348  12.333   6.341 -1.3015  3.2739 -0.6389
 3076SOL    HW216087   8.479  12.407   6.339  0.3093  0.5448 -0.8194
 3077SOL     OW16088   8.538   1.677   0.438  0.0744 -0.4793 -0.0126
 3077SOL    HW116089   8.490   1.756   0.414 -1.2869 -1.0011  0.8525
 3077SOL    HW216090   8.619   1.708   0.478 -0.6844  0.5080  0.8123
 3078SOL     OW16091   9.707   7.351   5.044  0.2297 -0.0323  0.1378
 3078SOL    HW116092   9.616   7.329   5.066 -0.6928  2.0591 -1.2192
 3078SOL    HW216093   9.728   7.295   4.970  0.0163 -0.4222  0.3666
 3079SOL     OW16094   6.019   2.218   4.918 -0.0859  0.2013 -0.6487
 3079SOL    HW116095   5.977   2.160   4.981  1.1870  1.7234  1.7491
 3079SOL    HW216096   6.107   2.180   4.906  0.9721  1.7947  1.3962
 3080SOL     OW16097  11.718   5.887  10.335 -0.5429 -0.4337  0.6394
 3080SOL    HW116098  11.728   5.902  10.241 -1.8218 -0.2977  0.5052
 3080SOL    HW216099  11.751   5.798  10.349 -0.5430 -0.5323  0.0248
 3081SOL     OW16100   9.965   3.652  10.757  0.0005 -0.0596  0.1335
 3081SOL    HW116101   9.924   3.571  10.788 -0.6461  0.8421  1.8068
 3081SOL    HW216102   9.911   3.721  10.795  0.0042  1.1858 -1.9830
 3082SOL     OW16103   1.498   4.591  11.831 -0.1143 -0.2363  0.2153
 3082SOL    HW116104   1.421   4.537  11.847 -0.6573  0.2309 -0.7567
 3082SOL    HW216105   1.541   4.597  11.916 -1.5671  0.1366  0.9427
 3083SOL     OW16106   2.943   5.325   6.080 -0.0705  0.2831 -0.0622
 3083SOL    HW116107   3.010   5.377   6.036  0.2455 -0.9201 -1.0709
 3083SOL    HW216108   2.861   5.347   6.035  0.6600 -3.2431 -3.6598
 3084SOL     OW16109   2.347   3.790   5.085  0.6517 -0.3272  0.2754
 3084SOL    HW116110   2.430   3.741   5.091  0.5378 -0.3692  2.6139
 3084SOL    HW216111   2.280   3.722   5.086  0.5172 -0.3254 -2.2130
 3085SOL     OW16112   7.301   1.137  10.746  0.1986 -0.1262  0.3065
 3085SOL    HW116113   7.301   1.197  10.820  1.8279  0.4197 -0.1134
 3085SOL    HW216114   7.393   1.123  10.724 -0.2263 -0.0766 -1.7783
 3086SOL     OW16115   9.463   9.641   4.362  0.7759 -0.3217  0.4685
 3086SOL    HW116116   9.368   9.645   4.372  0.7946 -0.7810  0.8535
 3086SOL    HW216117   9.484   9.718   4.308  0.3047  0.3380  1.1945
 3087SOL     OW16118   4.258   1.935  10.440 -0.2849 -0.5602  0.1920
 3087SOL    HW116119   4.279   1.975  10.524 -1.0609 -0.8479  0.5338
 3087SOL    HW216120   4.315   1.857  10.436 -0.9057 -1.0614  0.8793
 3088SOL     OW16121   2.051  10.114   6.330  0.0390 -0.0489 -0.2695
 3088SOL    HW116122   2.043  10.018   6.330  0.0579 -0.2130  3.5671
 3088SOL    HW216123   2.146  10.129   6.335  0.0316  0.2117 -0.8035
 3089SOL     OW16124  10.932   6.761   6.428 -0.3243 -0.3712  0.1599
 3089SOL    HW116125  11.002   6.721   6.377  0.8034  0.0256  1.3378
 3089SOL    HW216126  10.975   6.791   6.508 -1.8242  0.0166  0.8526
 3090SOL     OW16127  12.102   2.220   1.506  0.6723 -0.0393 -0.3438
 3090SOL    HW116128  12.179   2.205   1.561  0.4144 -1.4282 -0.3300
 3090SOL    HW216129  12.065   2.302   1.539  1.9052  0.4341 -0.0791
 3091SOL     OW16130   1.302   3.422   7.856  0.6343  0.0209 -0.0482
 3091SOL    HW116131   1.235   3.465   7.910  0.4327 -0.7542  0.3332
 3091SOL    HW216132   1.256   3.397   7.776  0.2407 -1.2318  0.5433
 3092SOL     OW16133   9.902   7.367   5.304  0.1073 -0.1809 -0.8181
 3092SOL    HW116134   9.843   7.367   5.228 -0.6816  0.7382 -0.2284
 3092SOL    HW216135   9.861   7.307   5.366  1.5237 -2.1112 -1.6534
 3093SOL     OW16136   9.107   7.088   0.424 -0.0537  0.0848 -0.3670
 3093SOL    HW116137   9.174   7.099   0.357 -1.4272  2.4237 -1.4998
 3093SOL    HW216138   9.026   7.074   0.374 -0.5946 -1.7619  0.9400
 3094SOL     OW16139  10.104   7.058   8.360  0.3023  0.2173  0.0192
 3094SOL    HW116140  10.170   7.123   8.382  0.3014  0.6328 -1.1181
 3094SOL    HW216141  10.025   7.086   8.405  0.2313  1.1727 -0.6781
 3095SOL     OW16142   3.015   1.880   3.676  0.5331 -0.1756  0.0601
 3095SOL    HW116143   3.060   1.827   3.741 -0.1560 -0.5119  0.2675
 3095SOL    HW216144   3.060   1.965   3.680 -0.2297  0.1979  1.8112
 3096SOL     OW16145   9.841   6.445  11.734 -0.2230  0.1537 -0.3449
 3096SOL    HW116146   9.904   6.409  11.671  0.2008 -0.1812  0.2599
 3096SOL    HW216147   9.772   6.482  11.680  0.5331  0.5976 -1.0325
 3097SOL     OW16148   9.418  11.792   4.296 -0.3804  0.0655  0.0767
 3097SOL    HW116149   9.384  11.707   4.323 -2.4825  1.0884  0.8546
 3097SOL    HW216150   9.512  11.777   4.281 -0.9783 -2.7002 -1.3535
 3098SOL     OW16151   5.817   4.081   3.628 -0.3276 -0.1683  0.3565
 3098SOL    HW116152   5.876   4.101   3.555 -0.1144  0.1729  0.6212
 3098SOL    HW216153   5.790   3.990   3.612 -0.3231 -0.0813 -0.1760
 3099SOL     OW16154   8.743   8.738   9.604 -0.2685 -0.0694 -0.0870
 3099SOL    HW116155   8.797   8.768   9.530  1.2255  1.4340  1.5028
 3099SOL    HW216156   8.799   8.751   9.681 -2.3178 -0.0742  1.4948
 3100SOL     OW16157  11.821   0.039  10.451 -0.2795 -0.4780  0.1897
 3100SOL    HW116158  11.885   0.078  10.511 -0.7989  0.0359  0.4151
 3100SOL    HW216159  11.828  -0.055  10.467 -1.1043 -0.3079  1.8008
 3101SOL     OW16160   3.527   5.978   4.526 -0.1873  0.2722  0.0871
 3101SOL    HW116161   3.532   6.010   4.435 -0.6760  1.6047  0.5031
 3101SOL    HW216162   3.596   6.027   4.572  0.7157 -1.1150  0.2516
 3102SOL     OW16163   8.904  10.673   9.091 -0.0222  0.3644 -0.4130
 3102SOL    HW116164   8.861  10.611   9.032 -1.3087  0.3171  0.5349
 3102SOL    HW216165   8.838  10.741   9.107 -0.3150 -0.4074  2.1569
 3103SOL     OW16166  11.824  10.408  11.513 -0.1259  0.2777 -0.1663
 3103SOL    HW116167  11.739  10.446  11.490  0.0274  1.4165  0.9687
 3103SOL    HW216168  11.824  10.322  11.472 -0.2288  1.6999 -3.4934
 3104SOL     OW16169   3.620   5.016   6.791  0.2926  0.6623 -0.0580
 3104SOL    HW116170   3.542   4.985   6.746 -0.1375  3.5536 -1.5026
 3104SOL    HW216171   3.669   5.065   6.725  2.8711 -0.1725  1.0694
 3105SOL     OW16172   7.382   0.657   3.159  0.4731  0.3987 -0.8547
 3105SOL    HW116173   7.327   0.735   3.164  0.1987  0.2057 -0.8307
 3105SOL    HW216174   7.472   0.690   3.160  0.3759  0.6487  0.2297
 3106SOL     OW16175   3.665   8.843   1.009  0.1435 -0.3241 -0.1084
 3106SOL    HW116176   3.594   8.784   0.981 -0.8687  0.5439  0.5755
 3106SOL    HW216177   3.621   8.913   1.056  1.4722  0.2560  0.3106
 3107SOL     OW16178   1.690   6.639   2.609 -0.1916 -0.6394  0.4877
 3107SOL    HW116179   1.602   6.646   2.645 -0.2946 -0.0247  0.1348
 3107SOL    HW216180   1.717   6.730   2.595  0.0124 -0.8497 -0.5775
 3108SOL     OW16181  10.662  10.963  10.629  0.1346 -0.2307  0.3210
 3108SOL    HW116182  10.619  11.006  10.555  2.2246 -0.8613 -1.3634
 3108SOL    HW216183  10.718  11.031  10.668 -0.4270 -0.0916  0.9034
 3109SOL     OW16184   0.239  12.249   0.727 -0.3500  0.3729 -0.1280
 3109SOL    HW116185   0.232  12.226   0.634 -0.2405  0.4334 -0.1512
 3109SOL    HW216186   0.310  12.193   0.759 -0.5913  0.1307 -0.0098
 3110SOL     OW16187   8.722   4.687  10.492 -0.6027 -0.4984  0.1940
 3110SOL    HW116188   8.670   4.631  10.549 -0.5327  2.8625  4.0430
 3110SOL    HW216189   8.807   4.643  10.488 -1.7759 -2.8699 -0.8977
 3111SOL     OW16190   4.076  11.237   7.581  0.3881  0.5120  0.4689
 3111SOL    HW116191   3.981  11.229   7.569  0.1365  2.4326  0.9166
 3111SOL    HW216192   4.113  11.214   7.495 -0.4209 -0.6756  0.4108
 3112SOL     OW16193   8.978   1.375   1.553 -0.2694 -0.5228  0.3359
 3112SOL    HW116194   9.039   1.420   1.612  0.0066 -2.1797  1.3729
 3112SOL    HW216195   8.923   1.322   1.611 -1.8784 -0.0599 -0.6857
 3113SOL     OW16196   6.944   2.231   9.434  0.2172 -0.2292 -0.2499
 3113SOL    HW116197   6.899   2.155   9.396  1.6996 -0.8751 -0.8001
 3113SOL    HW216198   6.876   2.276   9.485 -1.5819  0.0415 -2.6909
 3114SOL     OW16199   6.776   4.849   1.707  0.7578  0.1239  0.1006
 3114SOL    HW116200   6.847   4.798   1.667  0.9227 -0.2850  0.8926
 3114SOL    HW216201   6.805   4.940   1.699  1.8111 -0.0923  1.2113
 3115SOL     OW16202   9.268  11.914   7.369 -0.0238  0.4434 -0.3440
 3115SOL    HW116203   9.303  11.981   7.427  1.7526 -0.9240  0.2713
 3115SOL    HW216204   9.174  11.910   7.390  0.3992  0.6036  1.8313
 3116SOL     OW16205   6.556   5.073  11.565 -0.4872  0.7335 -0.5114
 3116SOL    HW116206   6.494   5.133  11.524 -0.1229  1.5011  0.0441
 3116SOL    HW216207   6.563   5.103  11.655  2.6291  2.2965 -1.1467
 3117SOL     OW16208   2.529   3.939  11.711  0.0919 -0.3251  0.2605
 3117SOL    HW116209   2.595   3.929  11.643  1.7245 -1.5873  1.9341
 3117SOL    HW216210   2.482   3.855  11.712 -0.2683 -0.1269  0.3509
 3118SOL     OW16211   2.456  10.942   6.347  0.3728 -0.0062  0.1814
 3118SOL    HW116212   2.409  11.015   6.388 -1.7500 -0.7353 -0.8298
 3118SOL    HW216213   2.509  10.984   6.280 -2.3214  0.5842 -1.7674
 3119SOL     OW16214   9.554   4.505  10.207 -0.3644 -0.2147  0.2858
 3119SOL    HW116215   9.562   4.429  10.264 -0.0084 -0.7150 -0.4150
 3119SOL    HW216216   9.620   4.491  10.140 -1.6372 -0.2997 -0.9944
 3120SOL     OW16217   7.327   0.841  12.431  0.0944 -0.4213 -0.3168
 3120SOL    HW116218   7.336   0.842  12.526  1.0642  0.0968 -0.4029
 3120SOL    HW216219   7.297   0.929  12.408  0.4275 -0.3665 -0.5409
 3121SOL     OW16220   1.788   1.216   0.856  1.0902 -0.1481  0.1174
 3121SOL    HW116221   1.790   1.306   0.888  1.3588 -0.3544  0.7031
 3121SOL    HW216222   1.852   1.213   0.785  2.5582 -0.3447  1.4002
 3122SOL     OW16223   4.140   1.132   2.307 -0.2510 -0.1077  0.0305
 3122SOL    HW116224   4.169   1.106   2.394  2.8759 -1.5417 -1.2914
 3122SOL    HW216225   4.127   1.050   2.260  1.8498  0.5480 -1.8928
 3123SOL     OW16226   7.469   4.623  12.178 -0.0386 -0.1155  0.2311
 3123SOL    HW116227   7.495   4.682  12.249 -0.4666 -0.0850  0.3683
 3123SOL    HW216228   7.548   4.574  12.158  0.8519  1.7790 -1.1762
 3124SOL     OW16229   7.036   2.275   3.991  0.8371 -0.0547  0.4256
 3124SOL    HW116230   6.949   2.234   3.990  0.1222  1.3346  2.0992
 3124SOL    HW216231   7.035   2.334   3.915  0.6668 -0.6794 -0.0713
 3125SOL     OW16232   3.970  12.077   7.097 -0.4204  0.4451 -0.2843
 3125SOL    HW116233   4.010  12.091   7.183 -1.8178  2.2617  0.1212
 3125SOL    HW216234   3.922  11.995   7.106  2.2781 -1.2857 -0.4946
 3126SOL     OW16235   9.091   3.949   3.160 -0.3123  0.8747 -0.2436
 3126SOL    HW116236   9.018   3.889   3.151  0.5900 -0.1081 -1.3359
 3126SOL    HW216237   9.051   4.036   3.163 -1.5356  0.3347 -0.4970
 3127SOL     OW16238  12.115  12.523  10.410  0.3521  0.1253  0.4599
 3127SOL    HW116239  12.082  12.612  10.402  0.7459  0.1048 -2.9575
 3127SOL    HW216240  12.110  12.504  10.504  1.4536  4.1503  1.5367
 3128SOL     OW16241  11.491   8.422   7.451 -0.6179 -0.1368  0.4466
 3128SOL    HW116242  11.586   8.411   7.445 -0.6396  0.0240 -0.3188
 3128SOL    HW216243  11.456   8.333   7.453 -0.5426 -0.2241 -1.0974
 3129SOL     OW16244   0.435  12.094   2.115 -0.0659  0.6834 -0.0913
 3129SOL    HW116245   0.462  12.186   2.122  2.3283  0.0492  0.0688
 3129SOL    HW216246   0.464  12.068   2.027 -0.2675 -0.0447  0.0523
 3130SOL     OW16247   1.585   4.239   9.250 -0.0525  0.0342 -0.1225
 3130SOL    HW116248   1.661   4.277   9.294 -0.1980 -0.7475  0.8387
 3130SOL    HW216249   1.606   4.146   9.242 -0.3099  0.0541 -1.1533
 3131SOL     OW16250  10.243   8.577   4.805 -0.4109  0.1613  0.7138
 3131SOL    HW116251  10.266   8.569   4.897  1.0814  1.5249  0.4945
 3131SOL    HW216252  10.324   8.559   4.757 -0.8909  0.5534 -0.2913
 3132SOL     OW16253  10.083   4.053   2.584  0.5980  0.0870 -0.0853
 3132SOL    HW116254  10.089   4.030   2.677  0.6573  0.7372  0.0744
 3132SOL    HW216255   9.993   4.029   2.560  1.1442 -1.8505 -0.3566
 3133SOL     OW16256   0.385  11.696  10.206  0.1277 -0.2771 -0.3887
 3133SOL    HW116257   0.326  11.658  10.141  0.7923  0.3979 -1.3950
 3133SOL    HW216258   0.436  11.621  10.237 -0.4202 -0.6597 -0.3800
 3134SOL     OW16259   4.947   0.715   9.231  0.0101 -0.2887  0.4766
 3134SOL    HW116260   4.950   0.809   9.215  1.1149 -0.1848  1.1520
 3134SOL    HW216261   4.911   0.707   9.320 -0.0065 -0.4940  0.4522
 3135SOL     OW16262   5.372   5.907   3.350  0.1636 -0.0407 -0.7304
 3135SOL    HW116263   5.317   5.943   3.420  2.4641  1.8717  0.2059
 3135SOL    HW216264   5.324   5.829   3.320 -1.2239 -0.6225  2.5481
 3136SOL     OW16265   2.822  10.439  12.491 -0.3546 -0.3277 -0.4649
 3136SOL    HW116266   2.731  10.464  12.509 -0.1265  1.1621 -1.2286
 3136SOL    HW216267   2.862  10.432  12.578 -1.3065 -1.4963 -0.0962
 3137SOL     OW16268  10.588   3.785   6.258 -0.1796  0.0239  0.0712
 3137SOL    HW116269  10.587   3.695   6.224  0.5042  0.0728 -0.1028
 3137SOL    HW216270  10.514   3.828   6.215 -0.4189 -0.4146  0.0385
 3138SOL     OW16271   6.956   4.826  12.568 -0.6103  0.4918  0.0664
 3138SOL    HW116272   6.909   4.757  12.521 -0.6223 -0.1006  0.9118
 3138SOL    HW216273   6.973   4.788  12.654  2.2557  0.2861 -0.4768
 3139SOL     OW16274   3.616   5.979   5.913 -0.0509  0.0073  0.0539
 3139SOL    HW116275   3.633   6.059   5.863  0.5736  0.2031  0.5808
 3139SOL    HW216276   3.701   5.953   5.948 -0.2788 -0.7937  0.0379
 3140SOL     OW16277   9.026   1.131   9.800  0.0833 -0.0320 -0.7127
 3140SOL    HW116278   8.939   1.150   9.837 -0.1476  1.0922 -1.7757
 3140SOL    HW216279   9.023   1.038   9.779 -1.0704  0.1113 -1.2576
 3141SOL     OW16280   0.308   2.247   7.600 -0.7835 -0.5386  0.2484
 3141SOL    HW116281   0.231   2.285   7.558  0.4284  2.0961  0.1770
 3141SOL    HW216282   0.279   2.162   7.633 -3.2436 -0.3316 -1.1611
 3142SOL     OW16283   3.085  11.637  10.119  1.0720  0.2256  0.7679
 3142SOL    HW116284   3.136  11.706  10.078 -1.5701  1.6648 -0.3524
 3142SOL    HW216285   3.002  11.636  10.071  0.5211 -2.9293  1.5429
 3143SOL     OW16286   1.418   5.329   0.588  0.5287 -0.5657 -0.3891
 3143SOL    HW116287   1.449   5.363   0.504 -0.4190 -1.2057 -1.0143
 3143SOL    HW216288   1.432   5.235   0.583  0.1382 -0.6486  0.0324
 3144SOL     OW16289   8.606   7.938   5.636 -0.1427  0.3517 -0.0279
 3144SOL    HW116290   8.616   8.017   5.689  3.4972  0.1689 -0.2087
 3144SOL    HW216291   8.596   7.868   5.700  2.4074  0.3582  0.4926
 3145SOL     OW16292  10.538  11.510   9.168  0.0124 -0.1844  0.0406
 3145SOL    HW116293  10.584  11.592   9.151  2.6619 -1.4467  0.4882
 3145SOL    HW216294  10.535  11.467   9.082 -0.6068  0.0195 -0.0402
 3146SOL     OW16295  12.459   8.544  10.811  0.0578  0.1415  0.8369
 3146SOL    HW116296  12.454   8.607  10.883 -0.0913 -0.8398  1.7006
 3146SOL    HW216297  12.368   8.516  10.797 -0.1065  1.2569 -0.6096
 3147SOL     OW16298   7.042   0.215   1.582 -0.2392 -0.0408 -0.0560
 3147SOL    HW116299   7.078   0.159   1.514 -1.2457  0.0557 -0.6824
 3147SOL    HW216300   6.974   0.162   1.624 -0.9740  0.5699 -0.4374
 3148SOL     OW16301   6.690   8.031   5.916 -0.3866  0.4439  0.3774
 3148SOL    HW116302   6.732   8.031   6.002  0.3863  0.7819  0.0100
 3148SOL    HW216303   6.664   7.940   5.902 -0.5076  0.3833  0.9591
 3149SOL     OW16304   0.419   7.028   8.940 -0.2485 -0.1570 -0.2167
 3149SOL    HW116305   0.393   7.072   9.021 -1.1561  0.6304 -0.9092
 3149SOL    HW216306   0.365   6.949   8.938  0.9421 -1.0365  0.7243
 3150SOL     OW16307   3.522   5.323   3.104 -0.4893 -0.5013 -0.7651
 3150SOL    HW116308   3.510   5.417   3.121  1.4369 -0.5511  1.4874
 3150SOL    HW216309   3.439   5.294   3.068 -2.1272  1.5605  1.0410
 3151SOL     OW16310   3.059   6.543   5.186  0.4547 -0.4488  0.2098
 3151SOL    HW116311   3.037   6.618   5.130  0.8557  0.0127  0.6661
 3151SOL    HW216312   3.032   6.569   5.274  1.0884 -0.6146  0.4619
 3152SOL     OW16313   6.791   2.828   0.398  0.1806 -0.0538  0.4794
 3152SOL    HW116314   6.818   2.738   0.380  0.1431 -0.0596  0.4531
 3152SOL    HW216315   6.717   2.819   0.458  0.3531 -0.0330  0.6973
 3153SOL     OW16316   6.193   8.978  10.492 -0.2650 -0.7287  0.4589
 3153SOL    HW116317   6.209   9.021  10.408  0.2225  1.2463  1.4902
 3153SOL    HW216318   6.125   8.913  10.474  0.2364 -0.7439 -1.5507
 3154SOL     OW16319   2.545   1.608  12.256  0.5519  0.3166  0.0617
 3154SOL    HW116320   2.583   1.603  12.344 -1.0035 -0.3486  0.7332
 3154SOL    HW216321   2.456   1.572  12.266  0.0197  1.0646 -1.5946
 3155SOL     OW16322   9.946  12.564   0.315  0.7963  0.0476 -0.1256
 3155SOL    HW116323  10.028  12.563   0.265  2.3218  0.4342  2.2281
 3155SOL    HW216324   9.934  12.656   0.338 -1.9569  0.5205 -2.8597
 3156SOL     OW16325   8.176  12.306   5.855 -0.1723  0.4340  0.3833
 3156SOL    HW116326   8.098  12.251   5.852  0.0191 -0.0016  2.1970
 3156SOL    HW216327   8.142  12.394   5.873 -0.2509  0.1501  1.7475
 3157SOL     OW16328   8.216   8.403   2.263  0.0518  0.2390 -0.5673
 3157SOL    HW116329   8.123   8.396   2.242 -0.1465  1.8284 -0.3366
 3157SOL    HW216330   8.231   8.497   2.277  1.3233 -0.1567  1.0755
 3158SOL     OW16331   5.046   6.315   5.640 -0.6716 -0.2635  0.2596
 3158SOL    HW116332   5.046   6.388   5.702 -2.5992 -0.7042  0.8572
 3158SOL    HW216333   5.089   6.244   5.687  0.6371  0.2715 -0.0872
 3159SOL     OW16334   3.951  10.688   8.799 -0.0316 -0.2879 -0.1145
 3159SOL    HW116335   3.912  10.744   8.866  1.5616 -0.0686  0.6883
 3159SOL    HW216336   3.972  10.606   8.845  1.7305  0.1193 -0.1074
 3160SOL     OW16337   8.584   5.310   5.806  0.4394  0.1970 -0.0063
 3160SOL    HW116338   8.567   5.392   5.853 -2.6637 -0.5413  0.3971
 3160SOL    HW216339   8.552   5.327   5.717  0.9466 -0.2238 -0.2747
 3161SOL     OW16340  12.189   2.433   9.419 -0.4070 -0.0666 -0.5986
 3161SOL    HW116341  12.111   2.423   9.474 -0.9921  0.1559 -1.3686
 3161SOL    HW216342  12.262   2.429   9.480 -1.0281 -0.1731  0.1529
 3162SOL     OW16343   1.439  11.435   4.242  0.5627 -0.4052 -0.1121
 3162SOL    HW116344   1.520  11.396   4.275 -0.6040 -0.8895  2.4204
 3162SOL    HW216345   1.380  11.436   4.318 -1.6874  0.2616 -1.7585
 3163SOL     OW16346   4.357   6.908   7.717 -0.1752 -0.8997 -0.2398
 3163SOL    HW116347   4.270   6.947   7.710 -0.2062 -0.2752  2.4216
 3163SOL    HW216348   4.402   6.963   7.782  0.5518 -3.9206  2.0503
 3164SOL     OW16349  11.511  10.178   1.011 -0.1510  0.3974  0.4236
 3164SOL    HW116350  11.497  10.267   0.979  1.2317  0.5816  0.2510
 3164SOL    HW216351  11.601  10.178   1.044  0.4395 -1.3531 -1.0257
 3165SOL     OW16352   8.619   5.299   1.559 -0.0249  0.8118  0.4678
 3165SOL    HW116353   8.644   5.316   1.650  1.6404  0.5497  0.0987
 3165SOL    HW216354   8.607   5.387   1.521  0.2271  0.9540  0.7103
 3166SOL     OW16355  10.331   2.344  10.748  0.0364 -0.2410  0.1245
 3166SOL    HW116356  10.281   2.372  10.824  1.3158 -1.6531  1.5418
 3166SOL    HW216357  10.420   2.331  10.780  0.9780  0.5087 -1.9417
 3167SOL     OW16358   7.605  11.104   2.060  0.7316  0.0137 -0.1830
 3167SOL    HW116359   7.662  11.141   1.993 -0.5148  1.8893 -0.2629
 3167SOL    HW216360   7.586  11.177   2.119 -1.2314 -0.6572  0.0749
 3168SOL     OW16361   3.370   8.467   8.051 -0.3883  0.1196  0.1132
 3168SOL    HW116362   3.397   8.545   8.003  0.3255  0.3782  0.9078
 3168SOL    HW216363   3.452   8.426   8.077 -0.7635 -0.0038  1.1194
 3169SOL     OW16364  12.565   4.858   0.677  0.4348  0.2391  0.4305
 3169SOL    HW116365  12.617   4.932   0.709 -1.9249  1.6301  1.3275
 3169SOL    HW216366  12.482   4.865   0.725  0.5437 -3.8307  1.5765
 3170SOL     OW16367   7.991   8.584   2.568  0.2804 -0.1023 -0.0724
 3170SOL    HW116368   8.054   8.554   2.633  0.7740 -0.8970 -0.9050
 3170SOL    HW216369   8.004   8.678   2.563  0.8973 -0.1660  0.2959
 3171SOL     OW16370   4.050   4.756   2.581  0.0970  0.4984  0.4324
 3171SOL    HW116371   3.984   4.819   2.550 -0.1367  0.4988  0.9293
 3171SOL    HW216372   4.119   4.809   2.619  0.6915  0.5293 -0.6552
 3172SOL     OW16373  12.087  11.803  11.894 -0.6183  0.6101 -0.3491
 3172SOL    HW116374  12.064  11.896  11.899 -0.3292  0.6789 -0.2399
 3172SOL    HW216375  12.182  11.802  11.906 -0.4298  0.4264 -1.7423
 3173SOL     OW16376   7.878   0.030   1.532 -0.1902  0.5026  0.4193
 3173SOL    HW116377   7.966  -0.002   1.552  0.2263  1.0899 -0.3878
 3173SOL    HW216378   7.820  -0.022   1.586  0.5462 -0.8918 -0.0899
 3174SOL     OW16379   3.254  12.012   0.723  0.1956  0.2731 -0.1158
 3174SOL    HW116380   3.293  11.997   0.637  0.8942  1.1819  0.0234
 3174SOL    HW216381   3.303  12.086   0.759 -0.4362  0.2448  0.8487
 3175SOL     OW16382  11.422   9.515   6.766 -0.0975  0.5468  0.5024
 3175SOL    HW116383  11.328   9.504   6.754 -0.1173  1.8979 -0.8234
 3175SOL    HW216384  11.460   9.438   6.723 -0.5437  0.9228 -0.5977
 3176SOL     OW16385  11.069  12.460  11.059  0.7190  0.8930  0.0389
 3176SOL    HW116386  11.063  12.542  11.010  0.4338  0.7873 -0.1054
 3176SOL    HW216387  11.034  12.393  11.000  1.7241  0.5265 -0.1560
 3177SOL     OW16388   1.079   6.429   9.656 -0.2188 -1.2724 -0.2466
 3177SOL    HW116389   1.092   6.398   9.745 -2.8731  1.0988  1.1297
 3177SOL    HW216390   1.032   6.512   9.666  1.4488  0.3319 -3.7963
 3178SOL     OW16391   0.496   1.712   6.735  0.0349  0.6155 -0.0047
 3178SOL    HW116392   0.488   1.618   6.749 -2.4664  0.6473 -0.7396
 3178SOL    HW216393   0.540   1.721   6.651 -0.0572  0.0947 -0.1082
 3179SOL     OW16394   3.584   3.908   2.284 -0.4590  0.2302 -0.3355
 3179SOL    HW116395   3.581   3.871   2.196  1.0706 -0.0300 -0.2944
 3179SOL    HW216396   3.528   3.850   2.336 -0.7398 -0.0748 -0.9669
 3180SOL     OW16397   5.481   3.543   3.028 -0.1218 -0.4396  0.3514
 3180SOL    HW116398   5.422   3.559   2.955  0.0641 -0.4138  0.2071
 3180SOL    HW216399   5.540   3.619   3.028 -0.0739 -0.4774  0.4799
 3181SOL     OW16400  10.091   8.777   6.571  0.0475 -0.0360 -1.0685
 3181SOL    HW116401  10.155   8.740   6.632 -0.4475  0.1967 -0.3938
 3181SOL    HW216402  10.016   8.718   6.576 -0.0657  0.0824 -1.3247
 3182SOL     OW16403   6.396   7.388   2.446 -0.2679 -0.2611 -0.4537
 3182SOL    HW116404   6.423   7.444   2.520  1.4597  1.6618 -2.3926
 3182SOL    HW216405   6.479   7.361   2.406 -1.1454 -2.2352 -1.0476
 3183SOL     OW16406   5.140   8.379   5.952  0.1805 -0.3103 -0.1615
 3183SOL    HW116407   5.073   8.446   5.961 -1.1686 -1.5561 -0.6168
 3183SOL    HW216408   5.129   8.346   5.863  0.4394 -1.5353  0.2492
 3184SOL     OW16409   6.010   0.053  11.071  0.4902  0.2352 -0.4088
 3184SOL    HW116410   5.934   0.111  11.064 -0.3624 -0.6636  0.9867
 3184SOL    HW216411   6.082   0.112  11.094  0.5940  1.3075 -3.1593
 3185SOL     OW16412   6.940   7.852   8.426 -0.2916  0.7226  0.1259
 3185SOL    HW116413   6.954   7.945   8.406 -1.6310  0.6968 -1.1687
 3185SOL    HW216414   6.936   7.810   8.340  1.2490 -0.7277  0.7015
 3186SOL     OW16415   4.959   6.923   9.112 -0.0149 -0.1861 -0.8026
 3186SOL    HW116416   5.009   6.955   9.187  0.7684  0.0618 -1.4207
 3186SOL    HW216417   4.966   6.993   9.047 -3.0906  0.9376 -0.1354
 3187SOL     OW16418   1.416   9.300  10.208 -0.0127 -0.5471 -0.3237
 3187SOL    HW116419   1.493   9.350  10.234 -1.4725  0.5554  2.2487
 3187SOL    HW216420   1.366   9.359  10.152 -0.7363  0.1790  1.0412
 3188SOL     OW16421   5.255   1.097   6.464 -0.0289  0.0413 -0.4485
 3188SOL    HW116422   5.341   1.079   6.503  0.0871 -0.0676 -0.7494
 3188SOL    HW216423   5.209   1.150   6.529  1.0478  1.9548 -1.1806
 3189SOL     OW16424   9.452   5.950   7.573 -0.2348  0.2574 -0.1454
 3189SOL    HW116425   9.541   5.929   7.543 -0.0058  0.0432  0.6748
 3189SOL    HW216426   9.465   5.988   7.660 -0.9345  0.4376 -0.1183
 3190SOL     OW16427   0.091   1.639   5.506 -0.1145  0.4613  0.2492
 3190SOL    HW116428   0.066   1.551   5.535  0.7212  0.2340  0.2924
 3190SOL    HW216429   0.009   1.689   5.509 -0.5473 -0.2447  0.4673
 3191SOL     OW16430   0.463  11.836   3.874 -0.3125  0.3655 -0.3594
 3191SOL    HW116431   0.370  11.819   3.865 -0.3006  0.1349 -0.0717
 3191SOL    HW216432   0.495  11.845   3.784 -0.4659 -0.3540 -0.4927
 3192SOL     OW16433   9.069   6.314   6.153 -0.8480  0.0815  0.9012
 3192SOL    HW116434   9.082   6.329   6.247 -0.8053 -1.0557  1.0919
 3192SOL    HW216435   9.013   6.237   6.149  0.2336 -0.6853 -0.0103
 3193SOL     OW16436   3.648   0.912  10.054 -0.1694  0.5961  0.4051
 3193SOL    HW116437   3.641   0.835   9.997  1.4732  2.0463 -1.9321
 3193SOL    HW216438   3.559   0.923  10.089 -0.8447 -1.3517 -0.5165
 3194SOL     OW16439   5.593   8.835   6.626 -0.0421  0.4902 -0.0008
 3194SOL    HW116440   5.529   8.906   6.634 -1.5621 -0.5331 -1.9655
 3194SOL    HW216441   5.606   8.804   6.716 -0.9742  1.8735  0.6427
 3195SOL     OW16442   3.113   4.158   3.988  0.1145 -0.3869  0.5756
 3195SOL    HW116443   3.045   4.225   3.987  0.5878  0.1343 -1.1958
 3195SOL    HW216444   3.072   4.082   4.029 -0.8618  0.5562  1.3999
 3196SOL     OW16445   8.204  11.208   0.200  0.0056  0.1151 -0.6502
 3196SOL    HW116446   8.131  11.254   0.242  0.6999  1.3209 -0.7145
 3196SOL    HW216447   8.194  11.117   0.228 -1.0867  0.3928 -0.0557
 3197SOL     OW16448  11.243   6.812   9.231  0.3728 -0.0993  0.0080
 3197SOL    HW116449  11.329   6.807   9.188  0.2962  0.3000 -0.1966
 3197SOL    HW216450  11.200   6.729   9.209  0.2858  0.1482 -0.7940
 3198SOL     OW16451   5.288   0.224   1.602  0.0426  0.2685  0.0306
 3198SOL    HW116452   5.304   0.288   1.672 -0.6993  0.6544 -0.1368
 3198SOL    HW216453   5.321   0.141   1.637 -0.1841  0.4854  0.7781
 3199SOL     OW16454   8.624   0.372   0.550 -0.2645  0.3795  0.2505
 3199SOL    HW116455   8.691   0.422   0.504  0.3279 -0.5962  0.0090
 3199SOL    HW216456   8.546   0.427   0.547  1.0948  2.7014  2.7306
 3200SOL     OW16457   2.186   1.803   2.737 -0.1240  0.0408  0.6347
 3200SOL    HW116458   2.229   1.885   2.762 -1.1352  0.5646  0.6636
 3200SOL    HW216459   2.125   1.786   2.808  0.8197 -1.3129  1.1679
 3201SOL     OW16460   6.398  12.230   3.268  0.5674 -0.1691  0.3910
 3201SOL    HW116461   6.459  12.159   3.290 -0.0503 -1.3897 -1.6332
 3201SOL    HW216462   6.326  12.187   3.222 -1.1826  1.4329  1.4891
 3202SOL     OW16463   4.386   6.935   3.714 -0.1746 -0.7842 -0.1225
 3202SOL    HW116464   4.325   7.004   3.741 -0.1244 -1.1499  0.9958
 3202SOL    HW216465   4.436   6.974   3.642  0.6853  0.8002  1.2526
 3203SOL     OW16466   9.017  11.891   5.071  0.0327  0.4052  0.0101
 3203SOL    HW116467   9.007  11.845   5.154  0.8209  1.1750  0.5378
 3203SOL    HW216468   8.927  11.904   5.040 -0.4138  2.0726  1.8387
 3204SOL     OW16469   4.242   2.065  11.914  0.3796  0.7413  0.5793
 3204SOL    HW116470   4.298   2.057  11.991  0.9192  0.6484  0.1798
 3204SOL    HW216471   4.301   2.091  11.843  0.2129 -0.8318 -0.1998
 3205SOL     OW16472  12.243   8.397   6.337  0.1055  0.0579 -0.4217
 3205SOL    HW116473  12.252   8.319   6.391  2.5173 -0.8465 -1.9885
 3205SOL    HW216474  12.275   8.468   6.393 -2.2742  0.0566  1.0727
 3206SOL     OW16475   0.248   7.273  10.779 -0.1276  0.1654  0.0609
 3206SOL    HW116476   0.327   7.245  10.826  0.1722  0.6136 -0.1653
 3206SOL    HW216477   0.211   7.193  10.742 -0.4924 -0.2302  1.2483
 3207SOL     OW16478   0.810   0.290   4.472  0.2976  1.1720  0.0558
 3207SOL    HW116479   0.873   0.223   4.496  0.2786  1.0096 -0.3476
 3207SOL    HW216480   0.851   0.338   4.400  0.0137  1.1393 -0.1307
 3208SOL     OW16481   9.427  10.412   1.712  0.5108  0.2180 -0.3847
 3208SOL    HW116482   9.484  10.422   1.636  0.2397 -0.3563 -0.6730
 3208SOL    HW216483   9.352  10.364   1.679  0.6136 -0.4722  0.3538
 3209SOL     OW16484   6.746   1.345   9.943  0.0740 -0.1730 -0.1095
 3209SOL    HW116485   6.724   1.415   9.881 -2.7965 -0.0535  0.8823
 3209SOL    HW216486   6.684   1.275   9.923  0.4093 -0.9246  1.3592
 3210SOL     OW16487  11.152   7.315   2.241 -0.0401  0.1160 -0.0535
 3210SOL    HW116488  11.218   7.384   2.237  0.5089 -0.4395 -1.1995
 3210SOL    HW216489  11.199   7.238   2.272 -0.0501 -0.3599 -1.1600
 3211SOL     OW16490   9.996   5.833   2.636 -0.0818  0.0262  0.3877
 3211SOL    HW116491  10.024   5.825   2.544  0.8300  0.2798  0.6353
 3211SOL    HW216492  10.071   5.804   2.686 -0.8239 -0.7887  1.0575
 3212SOL     OW16493  10.536   1.668   5.704 -0.4124  0.2518 -0.0401
 3212SOL    HW116494  10.608   1.606   5.695 -0.5341  0.0632  0.2713
 3212SOL    HW216495  10.486   1.659   5.623 -0.6037 -0.2851  0.1267
 3213SOL     OW16496   7.313   4.090   1.503 -0.1383 -0.4841  0.1152
 3213SOL    HW116497   7.276   4.158   1.446  0.3043  1.0118  1.5400
 3213SOL    HW216498   7.358   4.031   1.443 -1.7978 -0.3977 -1.3160
 3214SOL     OW16499   9.708   0.050   3.148 -0.6595  0.2226  0.4520
 3214SOL    HW116500   9.756   0.058   3.066 -0.3464 -0.8650  0.5067
 3214SOL    HW216501   9.628   0.101   3.135  0.3890  1.9075  0.2807
 3215SOL     OW16502   1.416   0.475  11.349  0.6706  0.0343 -0.0376
 3215SOL    HW116503   1.357   0.549  11.332  1.9308  0.8695 -0.9594
 3215SOL    HW216504   1.495   0.515  11.385  1.1827 -0.9169 -0.0673
 3216SOL     OW16505   7.036   7.835  11.013 -0.0865 -0.5810  0.0657
 3216SOL    HW116506   7.027   7.875  10.927  0.9834 -2.2701 -0.9051
 3216SOL    HW216507   7.061   7.744  10.995  3.4403 -0.2073  2.1334
 3217SOL     OW16508   3.088   0.570   9.555  0.1767  0.0619 -0.2165
 3217SOL    HW116509   3.179   0.554   9.582  0.3678 -0.6987 -1.2401
 3217SOL    HW216510   3.048   0.483   9.554  0.0099  0.1254 -1.6896
 3218SOL     OW16511   3.310   2.590   4.712  0.2556  0.2347 -0.4223
 3218SOL    HW116512   3.374   2.567   4.644 -1.4875  0.5906 -2.2730
 3218SOL    HW216513   3.264   2.508   4.730 -0.2932  0.4676 -0.7718
 3219SOL     OW16514  10.044   9.705   3.404  0.3581  0.1323 -0.1581
 3219SOL    HW116515  10.119   9.680   3.458  0.2921  2.4817  1.1497
 3219SOL    HW216516  10.056   9.657   3.322  3.8755  1.1488 -0.3864
 3220SOL     OW16517  12.558   9.890   2.270  0.2096  0.3010 -0.4578
 3220SOL    HW116518  12.582   9.799   2.253  1.9875  0.9781 -1.9678
 3220SOL    HW216519  12.492   9.885   2.339 -0.0721 -2.1402 -0.8029
 3221SOL     OW16520   6.660   0.037   3.313 -0.0574 -0.1400  0.1971
 3221SOL    HW116521   6.589  -0.019   3.343  2.2199 -2.1253  2.1901
 3221SOL    HW216522   6.732  -0.022   3.293  1.8011  1.9295  0.3600
 3222SOL     OW16523  11.673   6.416   4.005  0.2569 -0.0159  0.3661
 3222SOL    HW116524  11.679   6.466   3.924  0.9382 -1.0098 -0.2234
 3222SOL    HW216525  11.583   6.385   4.008 -0.0609  0.9198  0.5400
 3223SOL     OW16526   9.513   0.452   8.843 -0.1200  0.2504 -0.0735
 3223SOL    HW116527   9.539   0.464   8.935 -1.8050  0.4616  0.4138
 3223SOL    HW216528   9.580   0.499   8.793  0.4996  0.6510  1.0797
 3224SOL     OW16529   4.205  10.810   8.721  0.2476 -0.6245  0.1776
 3224SOL    HW116530   4.210  10.833   8.628 -0.3301  1.6995  0.6636
 3224SOL    HW216531   4.114  10.787   8.736  0.8903 -4.0962 -0.3965
 3225SOL     OW16532  12.080   2.212   9.255 -0.3526  0.2035 -0.0105
 3225SOL    HW116533  12.067   2.234   9.163 -0.8951 -0.5783 -0.1236
 3225SOL    HW216534  12.149   2.273   9.285  1.0344 -0.6429 -1.3512
 3226SOL     OW16535   9.818  12.098  11.540 -0.1338 -0.3416  0.3331
 3226SOL    HW116536   9.900  12.133  11.576 -1.3272  1.6034  1.3397
 3226SOL    HW216537   9.827  12.105  11.445  0.5553  0.6284  0.4639
 3227SOL     OW16538   3.743   9.633   1.387  0.0777 -0.2651 -0.3066
 3227SOL    HW116539   3.812   9.672   1.333 -0.0051 -1.1524 -1.0696
 3227SOL    HW216540   3.676   9.701   1.393  1.1231  0.7370  0.7103
 3228SOL     OW16541   6.653   4.948   4.866  0.0445  0.0769 -0.2450
 3228SOL    HW116542   6.566   4.944   4.905  0.2620  1.1426  0.3803
 3228SOL    HW216543   6.713   4.954   4.941  0.5573  0.7769 -0.7036
 3229SOL     OW16544   0.864   1.461  10.788 -0.0084  0.0994  0.4640
 3229SOL    HW116545   0.830   1.445  10.876  1.0369  0.8759  1.0252
 3229SOL    HW216546   0.874   1.373  10.750  0.0118 -0.2649  1.2940
 3230SOL     OW16547   9.821   8.415  11.985  0.1840  0.2558  0.2927
 3230SOL    HW116548   9.731   8.438  12.009 -0.2430 -0.1448 -0.8583
 3230SOL    HW216549   9.811   8.346  11.919  1.3574 -0.3497  0.7316
 3231SOL     OW16550   0.212   8.552   6.984  0.3817  0.0397 -0.0116
 3231SOL    HW116551   0.265   8.537   7.062 -0.4090 -0.1268  0.5008
 3231SOL    HW216552   0.127   8.580   7.017  0.1340  0.2958 -0.8251
 3232SOL     OW16553   9.083   3.339   8.371 -0.1468 -0.5677 -0.7240
 3232SOL    HW116554   9.119   3.393   8.302 -0.6253 -0.5133 -0.9326
 3232SOL    HW216555   9.131   3.256   8.364  0.1646 -0.3854 -0.7843
 3233SOL     OW16556   6.320   6.549  10.801  0.3567  0.3142 -0.0343
 3233SOL    HW116557   6.246   6.566  10.859  0.8446  0.8675  0.4337
 3233SOL    HW216558   6.363   6.472  10.840 -0.9993 -1.1681 -1.3288
 3234SOL     OW16559   9.646  10.783   8.592  0.0335 -0.1266  0.0462
 3234SOL    HW116560   9.661  10.736   8.510 -1.3717 -0.6619  0.0561
 3234SOL    HW216561   9.732  10.788   8.634  0.5526 -0.9381 -0.8876
 3235SOL     OW16562   8.182   2.211   3.857 -0.4176  0.3136 -0.0630
 3235SOL    HW116563   8.194   2.116   3.854  1.8333  0.4787  1.2741
 3235SOL    HW216564   8.270   2.246   3.859 -1.2029  2.3917  0.7176
 3236SOL     OW16565   2.919  11.670  12.324 -0.2380  0.2483 -0.3508
 3236SOL    HW116566   2.857  11.650  12.254 -1.1090  0.2721  0.3867
 3236SOL    HW216567   2.902  11.603  12.391 -0.4113  1.0479  0.4317
 3237SOL     OW16568   8.895   9.334   5.029 -0.1993 -0.0576  0.3759
 3237SOL    HW116569   8.959   9.320   4.960 -0.4060  0.1682  0.1356
 3237SOL    HW216570   8.815   9.292   4.997  0.1195 -1.2979  1.1524
 3238SOL     OW16571   5.735   8.782  12.488 -0.0447  0.0902  0.1116
 3238SOL    HW116572   5.687   8.725  12.429 -0.5705 -0.6568  1.2180
 3238SOL    HW216573   5.683   8.863  12.491 -0.1946  0.0038 -0.1830
 3239SOL     OW16574   9.450   5.225   9.255 -0.1927  0.5353  0.2750
 3239SOL    HW116575   9.486   5.158   9.314 -1.5564  0.2099  0.7673
 3239SOL    HW216576   9.524   5.250   9.200  0.4526 -1.1254  0.3175
 3240SOL     OW16577   6.666   5.778   8.484 -0.5533  0.2313 -0.3929
 3240SOL    HW116578   6.672   5.872   8.469  0.0556  0.2124 -0.2901
 3240SOL    HW216579   6.648   5.741   8.398 -1.3368  0.4822 -0.3450
 3241SOL     OW16580   1.407   6.712   3.668 -0.0332 -0.3103 -0.0117
 3241SOL    HW116581   1.494   6.740   3.697 -0.0199  0.7718 -1.0344
 3241SOL    HW216582   1.348   6.742   3.737  0.2389  0.3139 -0.0405
 3242SOL     OW16583   2.267   9.358   2.817 -0.0024 -0.0783 -0.2427
 3242SOL    HW116584   2.236   9.426   2.756 -1.3149  0.1372  0.6170
 3242SOL    HW216585   2.205   9.362   2.889  1.2448 -0.6646  0.8895
 3243SOL     OW16586   2.731  11.940  11.935  0.3472  0.2077 -0.5286
 3243SOL    HW116587   2.646  11.912  11.969 -0.0114  0.8802 -0.8532
 3243SOL    HW216588   2.734  11.905  11.846  0.1120  0.7450 -0.7563
 3244SOL     OW16589   0.918  11.699   1.425  0.4891 -0.1439  0.4713
 3244SOL    HW116590   0.899  11.748   1.345  1.7170 -2.7886 -1.5749
 3244SOL    HW216591   0.833  11.690   1.468 -0.0367  2.2318  0.1186
 3245SOL     OW16592   8.687   1.047   5.430 -0.1401 -0.2541  0.5336
 3245SOL    HW116593   8.666   0.993   5.506 -1.8060  0.9635  0.9872
 3245SOL    HW216594   8.613   1.107   5.421  0.4163  0.2280 -1.5309
 3246SOL     OW16595   6.036   1.854  10.262  0.4087 -0.5404  0.2555
 3246SOL    HW116596   5.999   1.767  10.252 -1.3134  0.3336 -1.8321
 3246SOL    HW216597   5.971   1.912  10.222  2.3911  1.5057 -0.2095
 3247SOL     OW16598   7.355   0.213   5.868  0.0548  0.0422 -0.1370
 3247SOL    HW116599   7.358   0.296   5.821 -1.2282  0.2709  0.1594
 3247SOL    HW216600   7.358   0.239   5.961  1.7395 -0.3637 -0.0405
 3248SOL     OW16601  10.294  10.971   0.624 -0.5065  0.0623  0.5703
 3248SOL    HW116602  10.308  10.965   0.530  0.2867  0.6933  0.6327
 3248SOL    HW216603  10.276  10.881   0.652 -1.3587 -0.0372 -0.2622
 3249SOL     OW16604  10.661   7.550   5.803 -0.1599  0.4504  0.0665
 3249SOL    HW116605  10.725   7.482   5.784  1.5249  2.3099 -1.3165
 3249SOL    HW216606  10.713   7.624   5.834 -1.9036  1.2095  1.3557
 3250SOL     OW16607   2.338   4.073   0.700  0.2255 -0.1158 -0.2217
 3250SOL    HW116608   2.354   4.006   0.633  1.3256  0.2276 -0.3265
 3250SOL    HW216609   2.398   4.049   0.771 -2.1309 -1.5029  1.4450
 3251SOL     OW16610   1.322   3.057   0.387  0.2889 -0.0370 -0.0853
 3251SOL    HW116611   1.242   3.088   0.430  0.8991  2.4389 -0.5412
 3251SOL    HW216612   1.386   3.049   0.458  0.0250 -0.5990  0.0887
 3252SOL     OW16613   0.820  11.933  10.347  0.1382  0.3785  0.0779
 3252SOL    HW116614   0.764  11.911  10.272 -0.2727  1.0481  0.1842
 3252SOL    HW216615   0.824  12.029  10.347 -0.1043  0.3975  1.0877
 3253SOL     OW16616   8.947   3.702   7.398  0.0457  0.3027  0.3066
 3253SOL    HW116617   8.939   3.784   7.446 -0.5845 -0.6410  1.9306
 3253SOL    HW216618   8.942   3.634   7.466 -1.0055 -1.1216 -1.0937
 3254SOL     OW16619   8.528  10.856   0.585 -0.1814 -0.5534  0.3277
 3254SOL    HW116620   8.443  10.810   0.583 -0.9581  0.8262  0.4313
 3254SOL    HW216621   8.583  10.806   0.525 -2.1299  0.4934 -2.5435
 3255SOL     OW16622   5.627   2.869   8.849 -0.1649  0.2618 -0.4513
 3255SOL    HW116623   5.692   2.802   8.826  0.7553  0.7122  0.7481
 3255SOL    HW216624   5.543   2.829   8.826  0.4987 -0.3611 -1.9835
 3256SOL     OW16625   0.487   0.274  12.268  0.5182 -0.0881  0.7373
 3256SOL    HW116626   0.574   0.240  12.286  0.1486 -1.1196  0.6616
 3256SOL    HW216627   0.462   0.321  12.347  0.6931 -0.7660  1.2084
 3257SOL     OW16628   9.424   3.976   7.427 -0.1874 -0.2409 -0.0019
 3257SOL    HW116629   9.456   3.895   7.467  0.9329 -0.0261 -0.4502
 3257SOL    HW216630   9.385   4.025   7.500  0.6297 -0.4440  0.5846
 3258SOL     OW16631   3.949   7.491  10.567 -0.0205 -0.0999  0.0004
 3258SOL    HW116632   3.933   7.431  10.640 -1.0011  0.7162  0.4738
 3258SOL    HW216633   3.935   7.437  10.489 -0.4387 -0.6105  0.4144
 3259SOL     OW16634  11.839   9.352   0.078 -0.2378  0.1532  0.2574
 3259SOL    HW116635  11.898   9.276   0.076  3.2402  2.5967 -2.0095
 3259SOL    HW216636  11.853   9.391   0.165 -1.5930 -1.3686  1.2050
 3260SOL     OW16637   7.537   2.916  11.188  0.0091 -0.2551 -0.0679
 3260SOL    HW116638   7.589   2.991  11.216 -1.3024  0.9488 -0.7765
 3260SOL    HW216639   7.454   2.926  11.234 -0.4258 -0.9167 -0.6958
 3261SOL     OW16640   3.759  12.446   8.481 -0.5751  0.2196  0.4300
 3261SOL    HW116641   3.802  12.511   8.425  0.9729 -1.6402 -0.6750
 3261SOL    HW216642   3.685  12.493   8.520  0.7640  2.7580  0.1185
 3262SOL     OW16643   0.423   1.270   4.121  0.2678 -0.8615 -0.2047
 3262SOL    HW116644   0.439   1.269   4.215  0.9552 -1.0125 -0.3202
 3262SOL    HW216645   0.333   1.302   4.112  0.0090 -1.3662  0.5227
 3263SOL     OW16646  10.705   0.303  11.676  0.0967  0.2399 -0.3705
 3263SOL    HW116647  10.644   0.360  11.629  1.3385  0.6432 -1.5834
 3263SOL    HW216648  10.653   0.228  11.702 -0.8806  0.4694 -1.5569
 3264SOL     OW16649  12.330  10.987   3.068  0.1005  0.5098 -0.6192
 3264SOL    HW116650  12.282  10.915   3.110  0.9161 -0.0961 -0.6833
 3264SOL    HW216651  12.399  11.009   3.131  0.9379  0.0316 -1.3350
 3265SOL     OW16652   0.923   6.063   4.275 -0.0559 -0.1412  0.2755
 3265SOL    HW116653   0.871   6.098   4.347 -1.9370 -0.9647 -0.6062
 3265SOL    HW216654   0.962   6.140   4.234  0.5046  0.3883  1.7485
 3266SOL     OW16655  11.361   8.627  12.513 -0.5494 -0.4804  0.5349
 3266SOL    HW116656  11.411   8.655  12.437  2.1157 -1.2737  1.8770
 3266SOL    HW216657  11.411   8.659  12.588 -2.8610 -0.0762  2.0057
 3267SOL     OW16658   0.401   7.500  11.373  0.4806 -0.1805 -0.5005
 3267SOL    HW116659   0.389   7.504  11.468  0.6471 -0.9883 -0.4353
 3267SOL    HW216660   0.359   7.418  11.348  0.8053 -0.1714 -1.0697
 3268SOL     OW16661   3.044   7.318   2.430  0.4971  0.2077  0.4366
 3268SOL    HW116662   3.071   7.274   2.511 -1.5149  2.0635  2.2545
 3268SOL    HW216663   2.952   7.296   2.421  0.7208 -0.0830 -1.5095
 3269SOL     OW16664   1.603   7.619   1.970  0.0464  0.2290  0.2624
 3269SOL    HW116665   1.587   7.612   1.876  1.2210  1.7873 -0.1095
 3269SOL    HW216666   1.517   7.637   2.008 -0.0242  3.2093 -1.0024
 3270SOL     OW16667   5.467   4.704   8.450 -0.5356  0.3125 -0.2986
 3270SOL    HW116668   5.406   4.767   8.413 -0.2208  0.4036 -0.6666
 3270SOL    HW216669   5.553   4.732   8.419 -0.3550 -0.0806 -0.1628
 3271SOL     OW16670   6.249  11.598   7.933 -0.0932  0.0573 -0.2655
 3271SOL    HW116671   6.286  11.561   7.853  1.7108 -0.6156  0.7928
 3271SOL    HW216672   6.320  11.589   7.997 -0.8330  2.2255  0.9467
 3272SOL     OW16673  10.167   2.224   3.587 -0.4332 -0.3703  0.1605
 3272SOL    HW116674  10.115   2.297   3.555 -2.2065 -0.5699  2.3785
 3272SOL    HW216675  10.230   2.264   3.648 -0.1836 -0.5022 -0.0063
 3273SOL     OW16676   4.926   2.398   1.163 -0.3519 -0.4904  0.3955
 3273SOL    HW116677   4.879   2.426   1.084 -1.1465 -2.0384  0.2800
 3273SOL    HW216678   4.953   2.308   1.144  2.3106  0.1628  0.6532
 3274SOL     OW16679  12.214  11.526   3.289 -0.1632  0.0502 -0.4358
 3274SOL    HW116680  12.280  11.577   3.242  0.1790 -0.6219 -0.7017
 3274SOL    HW216681  12.226  11.437   3.258  1.3362 -0.8147  2.2486
 3275SOL     OW16682   0.257   5.376   6.401 -0.0040  0.4467 -0.2249
 3275SOL    HW116683   0.313   5.440   6.357 -0.9560 -0.1356 -2.3792
 3275SOL    HW216684   0.261   5.298   6.346  0.1820 -0.9879  1.7210
 3276SOL     OW16685   6.437  11.060   4.689 -0.2330  0.5138 -0.2040
 3276SOL    HW116686   6.529  11.075   4.709 -0.3662 -0.4371  1.2429
 3276SOL    HW216687   6.411  10.988   4.746 -1.8854  0.7591 -0.5907
 3277SOL     OW16688   6.558   3.140   8.742 -0.0340  0.2492  0.1095
 3277SOL    HW116689   6.497   3.153   8.815  0.3647  0.6837  0.3781
 3277SOL    HW216690   6.628   3.204   8.759  0.6965 -0.5175  0.0322
 3278SOL     OW16691   7.165   5.873   7.988 -0.2897  0.2032 -0.3495
 3278SOL    HW116692   7.121   5.789   7.996 -3.0649  1.6558  1.2341
 3278SOL    HW216693   7.100   5.931   7.948  0.3363  2.3422  1.5183
 3279SOL     OW16694   7.338   2.749   8.772 -0.7702  0.6391 -0.1187
 3279SOL    HW116695   7.333   2.718   8.681 -1.7575 -1.3057  0.5445
 3279SOL    HW216696   7.344   2.669   8.824  2.3396  1.7425  1.4660
 3280SOL     OW16697   6.214  11.724  12.161  0.2274  0.4557 -0.2735
 3280SOL    HW116698   6.153  11.680  12.220  1.4212 -0.0912  0.6146
 3280SOL    HW216699   6.161  11.752  12.087 -1.0346 -0.2431  0.3362
 3281SOL     OW16700   5.965  10.009   4.442 -0.4398 -0.1726  0.4020
 3281SOL    HW116701   5.965  10.100   4.474 -0.1185 -0.2419  0.6034
 3281SOL    HW216702   6.007  10.014   4.357 -1.2083 -0.0022  0.0227
 3282SOL     OW16703   8.346   8.054   9.786  0.1638  0.1256 -0.2603
 3282SOL    HW116704   8.334   8.064   9.691 -0.7957 -0.7428 -0.2420
 3282SOL    HW216705   8.266   8.090   9.824 -0.7894 -2.1875  0.0548
 3283SOL     OW16706   7.899  10.138   8.690  0.1063 -0.3070  0.2860
 3283SOL    HW116707   7.967  10.182   8.639 -1.1077  2.1486  0.6330
 3283SOL    HW216708   7.918  10.161   8.781 -0.9399  0.1182  0.4144
 3284SOL     OW16709  12.376   5.438  11.481  0.2206 -0.1949 -0.3694
 3284SOL    HW116710  12.431   5.425  11.404 -1.8424 -0.1265 -1.9484
 3284SOL    HW216711  12.339   5.526  11.469 -0.9416 -0.5986  0.1486
 3285SOL     OW16712   6.547  10.648  12.297  0.5290 -0.2039  0.5929
 3285SOL    HW116713   6.560  10.557  12.270  1.7001 -0.0910  0.7060
 3285SOL    HW216714   6.462  10.649  12.339  0.6202 -1.3141  0.8408
 3286SOL     OW16715   7.188   8.769   9.320 -0.3646  0.1145  0.2144
 3286SOL    HW116716   7.192   8.841   9.382 -1.3571  0.0567  0.3504
 3286SOL    HW216717   7.218   8.807   9.237  3.2090 -0.3252  1.1100
 3287SOL     OW16718   1.283  11.975   2.875  0.5302  0.4175  0.9139
 3287SOL    HW116719   1.367  11.990   2.920  2.3694  0.3786 -2.2344
 3287SOL    HW216720   1.256  12.061   2.844  0.3902  0.1703  0.3304
 3288SOL     OW16721   9.197   1.729   0.607 -0.4461  0.0701 -0.1288
 3288SOL    HW116722   9.208   1.822   0.589 -0.4839  0.0927 -0.0356
 3288SOL    HW216723   9.236   1.716   0.693  0.7395 -0.2546 -0.7015
 3289SOL     OW16724   5.367  11.427   0.698 -0.0716 -0.3451 -0.3268
 3289SOL    HW116725   5.386  11.456   0.609  0.2766  1.9244  0.4261
 3289SOL    HW216726   5.275  11.450   0.711  0.2961  0.7996  0.3922
 3290SOL     OW16727  10.540   8.595   6.353 -0.2467 -0.1944  0.2741
 3290SOL    HW116728  10.626   8.634   6.336  0.2541 -0.9569  1.0109
 3290SOL    HW216729  10.479   8.648   6.301  0.5548  0.8823  0.4108
 3291SOL     OW16730   8.837  12.483   6.156 -0.0750 -0.5013  0.6514
 3291SOL    HW116731   8.787  12.404   6.136 -0.6927 -0.1823  0.9253
 3291SOL    HW216732   8.771  12.550   6.174  0.3849  0.5104 -1.1048
 3292SOL     OW16733   8.247  11.231   2.085 -0.3220  0.1417  0.1368
 3292SOL    HW116734   8.332  11.239   2.129 -1.5433  2.0609  2.3566
 3292SOL    HW216735   8.239  11.138   2.065  1.3555 -0.4522  1.9363
 3293SOL     OW16736   3.774   0.428   2.688 -0.1534  0.4370  0.2109
 3293SOL    HW116737   3.731   0.501   2.642  2.3908  0.6764 -2.0394
 3293SOL    HW216738   3.863   0.428   2.655  0.8055 -1.8731  2.4338
 3294SOL     OW16739   6.690   3.366   0.563  0.6942 -0.2203 -0.0303
 3294SOL    HW116740   6.747   3.377   0.639 -0.7904 -0.0965  1.1141
 3294SOL    HW216741   6.716   3.282   0.525 -0.1328 -1.4920  2.0733
 3295SOL     OW16742  11.365  10.085   0.103  1.1974 -0.2235 -0.2297
 3295SOL    HW116743  11.387   9.993   0.116  3.9540  0.2307 -0.8615
 3295SOL    HW216744  11.358  10.122   0.191 -0.9801 -1.1703  0.0569
 3296SOL     OW16745   0.003   5.294   8.124  0.0658  0.2054 -0.4416
 3296SOL    HW116746  -0.006   5.342   8.206  0.5795  0.0408 -0.2887
 3296SOL    HW216747  -0.065   5.227   8.128  2.0006 -1.8327  1.2573
 3297SOL     OW16748  12.501   6.809   0.055 -0.0893 -0.1038  0.4798
 3297SOL    HW116749  12.530   6.726   0.017 -0.3433 -1.9228  3.8970
 3297SOL    HW216750  12.406   6.812   0.037  0.3922  1.2457 -2.5299
 3298SOL     OW16751   4.583   9.385   7.795  0.3642 -0.0173 -0.0477
 3298SOL    HW116752   4.533   9.463   7.768  0.5195  0.6892  1.5878
 3298SOL    HW216753   4.669   9.396   7.753  1.1118  1.8253  1.7831
 3299SOL     OW16754  11.628   8.885   3.442  0.0440  0.1304  0.4702
 3299SOL    HW116755  11.604   8.977   3.458  0.1057  0.3528 -0.6722
 3299SOL    HW216756  11.545   8.843   3.419 -0.0826 -0.2431  1.5288
 3300SOL     OW16757  11.764   9.165   8.232  0.3911 -0.5749  0.3935
 3300SOL    HW116758  11.805   9.193   8.314  0.1399 -3.1727  1.4810
 3300SOL    HW216759  11.670   9.178   8.247  0.2601 -2.0815  0.9704
 3301SOL     OW16760   0.428   5.614   8.769  0.5485 -0.2041  0.5897
 3301SOL    HW116761   0.498   5.637   8.830 -0.6712  0.9074  1.6146
 3301SOL    HW216762   0.429   5.685   8.705 -0.8150  0.8334  1.6648
 3302SOL     OW16763   3.415   7.260   3.181  0.2409  0.1017 -0.2558
 3302SOL    HW116764   3.467   7.183   3.205 -0.5554 -0.4758 -0.3781
 3302SOL    HW216765   3.473   7.334   3.200  1.1996 -0.5416 -0.6149
 3303SOL     OW16766  12.531   5.369   6.387 -0.2574  0.0655 -0.5213
 3303SOL    HW116767  12.518   5.364   6.482 -0.3189 -0.0101 -0.5343
 3303SOL    HW216768  12.565   5.283   6.363  0.3517  0.2883 -0.4749
 3304SOL     OW16769   9.912   7.770   7.693 -0.4540  0.2612  0.1398
 3304SOL    HW116770   9.996   7.724   7.689  0.4915  1.9773 -1.5407
 3304SOL    HW216771   9.854   7.721   7.634 -0.2508 -0.1842  0.3065
 3305SOL     OW16772   8.837  10.508   4.711  0.0023  0.3038 -0.2531
 3305SOL    HW116773   8.907  10.449   4.740  0.3457  0.1881 -1.2654
 3305SOL    HW216774   8.767  10.495   4.774  0.1799 -0.9858 -0.2879
 3306SOL     OW16775  11.807  10.379   8.009 -0.2931  0.5644 -0.5007
 3306SOL    HW116776  11.827  10.445   8.076 -2.6444  1.5989 -0.7114
 3306SOL    HW216777  11.732  10.415   7.961  1.4015 -0.0210 -3.8946
 3307SOL     OW16778   1.387   5.729  11.074  0.4678 -0.1318  0.6192
 3307SOL    HW116779   1.469   5.684  11.094 -0.3639 -1.7438  0.5418
 3307SOL    HW216780   1.322   5.659  11.067 -1.3309  1.2168  2.5764
 3308SOL     OW16781   7.489  10.262  12.278 -0.3603  0.5256  0.5135
 3308SOL    HW116782   7.531  10.225  12.356 -0.3311  0.2636  0.3758
 3308SOL    HW216783   7.492  10.191  12.213 -2.6460 -0.1752  1.0586
 3309SOL     OW16784   5.065  10.938   0.519 -0.2503 -0.4685  0.0238
 3309SOL    HW116785   4.982  10.894   0.501 -0.3824  0.4934 -2.0466
 3309SOL    HW216786   5.130  10.868   0.516 -0.8134 -1.0088  0.1795
 3310SOL     OW16787   1.930   3.500   5.864 -0.3838  0.5886  0.4296
 3310SOL    HW116788   1.873   3.424   5.866 -0.5879  0.6855 -0.7775
 3310SOL    HW216789   1.872   3.574   5.880 -0.7414  0.7363 -1.3066
 3311SOL     OW16790  10.256   2.908  11.283 -0.2349 -0.0428  0.1238
 3311SOL    HW116791  10.194   2.935  11.216 -0.8613  0.6779  0.9718
 3311SOL    HW216792  10.247   2.974  11.352 -0.1478 -1.1688  1.2425
 3312SOL     OW16793   5.816   7.116   1.993 -0.1917 -0.0409  0.0844
 3312SOL    HW116794   5.800   7.206   2.020 -1.1070 -0.3993  0.7703
 3312SOL    HW216795   5.748   7.065   2.037  0.2619 -1.0567 -0.3637
 3313SOL     OW16796   6.319   0.703   6.315  0.0385  0.0229  0.1950
 3313SOL    HW116797   6.226   0.683   6.304 -0.2805  1.3121  0.4073
 3313SOL    HW216798   6.342   0.753   6.237  0.6408 -0.5357  0.0073
 3314SOL     OW16799   0.501   2.904   4.153  0.1999 -0.3918 -0.1204
 3314SOL    HW116800   0.417   2.882   4.195  0.6516 -1.4164  0.2814
 3314SOL    HW216801   0.497   2.860   4.068  0.0138  0.2155 -0.4309
 3315SOL     OW16802   3.133  11.159  10.080  0.1525 -0.2272  0.5192
 3315SOL    HW116803   3.107  11.067  10.083  1.0949 -0.5341 -0.0839
 3315SOL    HW216804   3.206  11.165  10.143  0.4440 -0.0234  0.1651
 3316SOL     OW16805   9.744   8.080   5.330 -0.0748 -0.0871  0.2645
 3316SOL    HW116806   9.751   8.169   5.294 -0.3464  0.2817  1.1111
 3316SOL    HW216807   9.678   8.037   5.275  0.6044 -0.0144 -0.6265
 3317SOL     OW16808  10.455   3.552   5.393  0.2352  0.5418  0.4110
 3317SOL    HW116809  10.391   3.492   5.432  0.5852  0.0739  0.2781
 3317SOL    HW216810  10.431   3.638   5.427  1.5438 -0.0198  3.0982
 3318SOL     OW16811   6.837   5.243   5.997  0.2731 -0.1725  0.2049
 3318SOL    HW116812   6.859   5.269   5.908  1.5825 -0.3225  0.4619
 3318SOL    HW216813   6.743   5.262   6.006 -0.0485 -0.8803 -1.4327
 3319SOL     OW16814  10.219   1.717   8.601  0.1740  0.0933 -0.2219
 3319SOL    HW116815  10.241   1.661   8.527  0.2056  1.2426 -1.1071
 3319SOL    HW216816  10.180   1.657   8.665  1.3289 -1.1447 -0.6157
 3320SOL     OW16817   8.492  11.387   6.880 -0.1538 -0.5774 -0.1818
 3320SOL    HW116818   8.468  11.403   6.972 -1.0236 -1.4995 -0.2272
 3320SOL    HW216819   8.527  11.471   6.850 -0.7728  0.0312  0.7154
 3321SOL     OW16820   1.620  10.842  12.226 -0.1307  0.1027 -0.2505
 3321SOL    HW116821   1.651  10.928  12.196  0.0321  0.4952  0.9577
 3321SOL    HW216822   1.659  10.780  12.164 -1.1371  0.9556 -1.7943
 3322SOL     OW16823   7.565   1.533   4.884 -0.2280 -0.2629  0.2036
 3322SOL    HW116824   7.646   1.579   4.863 -0.7907  0.0634 -1.3886
 3322SOL    HW216825   7.509   1.600   4.925 -0.4021  0.0517 -0.5201
 3323SOL     OW16826  10.458   3.997   6.866 -0.0927 -0.1143 -0.0694
 3323SOL    HW116827  10.376   3.947   6.867 -0.3692  0.3222 -0.5156
 3323SOL    HW216828  10.475   4.012   6.773  1.7655 -2.2605 -0.1777
 3324SOL     OW16829  11.656   2.648   5.915 -0.5253  0.1838 -0.0077
 3324SOL    HW116830  11.673   2.738   5.940  1.5906  0.0337 -0.6896
 3324SOL    HW216831  11.564   2.633   5.938 -0.5362  2.0604  1.3669
 3325SOL     OW16832  11.281   0.907   3.455 -0.0651 -0.3482  0.4118
 3325SOL    HW116833  11.216   0.910   3.526 -0.7951  0.7312 -0.2774
 3325SOL    HW216834  11.356   0.955   3.490 -0.0393 -0.6864  0.8247
 3326SOL     OW16835   1.312   0.290   9.454 -0.4392 -0.3635  0.4338
 3326SOL    HW116836   1.341   0.349   9.384  0.7724 -1.8141 -0.3326
 3326SOL    HW216837   1.321   0.342   9.534 -1.2465  1.1120 -0.3873
 3327SOL     OW16838   9.272   7.419   1.141  0.3531  0.1316  0.0272
 3327SOL    HW116839   9.249   7.480   1.211  0.0459  0.3344 -0.2457
 3327SOL    HW216840   9.246   7.464   1.060  1.8851  0.4363 -0.3165
 3328SOL     OW16841   4.907   5.249   1.104 -0.2495 -0.0465 -0.3737
 3328SOL    HW116842   4.877   5.249   1.013  0.4806 -0.9852 -0.6289
 3328SOL    HW216843   4.831   5.219   1.154 -0.4701 -0.1091 -0.7433
 3329SOL     OW16844   9.308  11.208   3.380 -0.2413 -0.0378  0.3711
 3329SOL    HW116845   9.282  11.253   3.460  0.9423 -3.0365  2.6170
 3329SOL    HW216846   9.371  11.268   3.338 -0.5133  1.3906  1.9132
 3330SOL     OW16847   1.289  10.030   9.203 -0.0263  0.2867 -0.5064
 3330SOL    HW116848   1.197  10.042   9.226  0.0570  0.1271 -0.0856
 3330SOL    HW216849   1.337  10.070   9.275  0.2692 -2.1856  0.7962
 3331SOL     OW16850   4.861   7.425   6.141 -0.2387  0.6789  0.0421
 3331SOL    HW116851   4.921   7.497   6.123  1.3272 -1.0644 -2.3312
 3331SOL    HW216852   4.794   7.431   6.072  0.8188 -0.9619 -1.2201
 3332SOL     OW16853  11.770   5.106   9.896  0.2658 -0.0023  0.3368
 3332SOL    HW116854  11.764   5.098   9.991 -0.8280 -0.2734  0.2528
 3332SOL    HW216855  11.848   5.160   9.881  0.2721  0.2931  1.3929
 3333SOL     OW16856   9.881   3.368  10.206  0.0750  0.1599 -0.1686
 3333SOL    HW116857   9.841   3.401  10.125 -2.0824 -0.5938  0.5048
 3333SOL    HW216858   9.834   3.413  10.276  1.3280  0.1644  0.7057
 3334SOL     OW16859   6.729   8.720  10.576 -0.5297  0.0751 -0.0908
 3334SOL    HW116860   6.808   8.724  10.629 -0.2855  1.4352 -0.5225
 3334SOL    HW216861   6.701   8.629  10.581  0.6470 -0.2591  0.6662
 3335SOL     OW16862   1.852   0.384  10.198 -0.4143  0.2069 -0.0827
 3335SOL    HW116863   1.894   0.469  10.187  0.0176  0.3796  2.4399
 3335SOL    HW216864   1.771   0.390  10.146 -0.9759  2.6069  0.9542
 3336SOL     OW16865  11.214   2.315   5.629  0.2670 -0.2354  0.2002
 3336SOL    HW116866  11.148   2.352   5.570  0.1480 -0.5604  0.1312
 3336SOL    HW216867  11.180   2.230   5.654  0.1212  0.0650  1.0730
 3337SOL     OW16868   9.566   1.363   9.912 -0.4601  0.0707  0.0203
 3337SOL    HW116869   9.573   1.371   9.817 -2.5635 -0.1201 -0.1999
 3337SOL    HW216870   9.588   1.271   9.930 -1.3712 -0.2552 -0.4622
 3338SOL     OW16871   9.824   0.551   2.509  0.0823 -0.4661  0.1934
 3338SOL    HW116872   9.729   0.544   2.522  0.1939  0.4467  1.7187
 3338SOL    HW216873   9.844   0.644   2.521  1.1212 -0.5731 -0.5565
 3339SOL     OW16874   1.261  11.988   2.440 -0.1366  0.5589 -0.0829
 3339SOL    HW116875   1.331  11.927   2.463  1.5176  1.9332 -1.1153
 3339SOL    HW216876   1.260  12.052   2.511 -1.6644 -0.4712  0.8546
 3340SOL     OW16877   5.790   2.469   8.603  0.5118  0.1904  0.2324
 3340SOL    HW116878   5.806   2.540   8.664  0.9746  0.8257 -0.6129
 3340SOL    HW216879   5.875   2.452   8.562  0.0669  0.2717 -0.7561
 3341SOL     OW16880  12.515   3.808  11.796  0.0976  0.2950  0.3157
 3341SOL    HW116881  12.487   3.853  11.717  0.9817 -0.2859 -0.3432
 3341SOL    HW216882  12.559   3.875  11.848  0.0188  0.5473  0.0612
 3342SOL     OW16883  11.016  10.944  10.538 -0.5752 -0.0988 -0.3911
 3342SOL    HW116884  10.952  10.980  10.477  0.9859 -0.0324 -2.0609
 3342SOL    HW216885  11.044  11.019  10.591 -1.4631 -0.0297 -0.0060
 3343SOL     OW16886   6.881   9.472   9.826  0.8335 -0.6854 -0.3589
 3343SOL    HW116887   6.957   9.467   9.884  0.5966 -0.9043 -0.0706
 3343SOL    HW216888   6.864   9.565   9.817 -0.1333 -0.6947  1.2186
 3344SOL     OW16889   8.440  10.046   7.294 -0.0795  0.3818  0.0919
 3344SOL    HW116890   8.516  10.070   7.346 -0.9333  0.9110  1.1284
 3344SOL    HW216891   8.384  10.123   7.295  0.6766  1.1525 -3.2288
 3345SOL     OW16892  12.254  10.914  10.384  0.1186 -0.6270  0.1643
 3345SOL    HW116893  12.336  10.878  10.350  0.4004 -0.9401  1.1405
 3345SOL    HW216894  12.239  10.994  10.333  0.7146 -0.8836 -0.4202
 3346SOL     OW16895   6.045   4.412   1.786  0.3383  0.0301 -0.2614
 3346SOL    HW116896   6.029   4.456   1.702 -1.6950 -2.7763 -1.5197
 3346SOL    HW216897   5.971   4.438   1.841 -1.0148 -1.7837 -1.0971
 3347SOL     OW16898  12.351   3.316   6.391  0.1600 -0.5352  0.4334
 3347SOL    HW116899  12.289   3.388   6.395 -0.1002 -0.7334  0.0413
 3347SOL    HW216900  12.437   3.358   6.393  0.0093 -0.2238  0.3716
 3348SOL     OW16901  10.202   2.427  10.971  0.3890  0.2631 -0.1584
 3348SOL    HW116902  10.163   2.513  10.986  1.5210  0.8751 -0.6208
 3348SOL    HW216903  10.174   2.374  11.047 -1.3692  0.6321 -0.5120
 3349SOL     OW16904   1.708   8.156   3.506 -0.4323  1.0407 -0.1674
 3349SOL    HW116905   1.736   8.135   3.595  0.3939 -0.2948 -0.6957
 3349SOL    HW216906   1.617   8.183   3.515 -0.5846  0.2227  1.0104
 3350SOL     OW16907   8.059   9.197   8.904 -0.5865  0.2022 -0.0680
 3350SOL    HW116908   8.057   9.140   8.981  0.2920 -0.7001 -0.6810
 3350SOL    HW216909   8.131   9.257   8.922 -0.3448 -0.0446 -0.2007
 3351SOL     OW16910  10.786   6.937   8.538 -0.6559 -0.0897  0.0424
 3351SOL    HW116911  10.817   7.027   8.529 -2.2864  0.4085 -1.1963
 3351SOL    HW216912  10.846   6.897   8.600 -0.7513  2.2729  1.7983
 3352SOL     OW16913  10.914   8.820   9.494 -0.1996 -0.3966 -0.4137
 3352SOL    HW116914  10.864   8.797   9.415 -0.3691  0.9307 -0.7082
 3352SOL    HW216915  11.005   8.824   9.464 -0.3631  1.0226 -0.7770
 3353SOL     OW16916   7.398  11.565   6.395 -0.6424  0.1994 -0.1316
 3353SOL    HW116917   7.411  11.505   6.468 -1.0476  0.8710  0.5064
 3353SOL    HW216918   7.340  11.633   6.429 -0.1404  0.9937 -0.8124
 3354SOL     OW16919   1.163   3.078   1.213  0.1843 -0.1896 -0.8934
 3354SOL    HW116920   1.150   3.172   1.207 -1.8447 -0.4404 -0.9341
 3354SOL    HW216921   1.227   3.067   1.284  1.2809  1.2381 -1.6027
 3355SOL     OW16922   0.668   3.983   6.844  0.0827  0.5411  0.4308
 3355SOL    HW116923   0.599   4.039   6.809 -2.1559 -1.4888  1.2713
 3355SOL    HW216924   0.696   3.930   6.770  1.0570  1.6351 -0.0021
 3356SOL     OW16925   6.480   4.329  10.918  0.7437  0.1589  0.2439
 3356SOL    HW116926   6.438   4.266  10.976  2.2865 -1.3787 -0.2022
 3356SOL    HW216927   6.419   4.403  10.913 -0.0367 -0.2284  2.7178
 3357SOL     OW16928   3.704   1.357   2.303 -0.0087  0.0259  0.4586
 3357SOL    HW116929   3.708   1.418   2.376  0.4947 -0.3025  0.7087
 3357SOL    HW216930   3.792   1.356   2.266 -0.1022 -0.2773  0.2343
 3358SOL     OW16931   0.840   9.924   1.695  0.1645  0.2001 -0.0597
 3358SOL    HW116932   0.755   9.883   1.677 -0.5717  2.3815 -1.9317
 3358SOL    HW216933   0.903   9.853   1.684 -1.3627 -1.6284  1.9301
 3359SOL     OW16934   6.632   1.463  10.915  0.7703 -0.4853 -0.1258
 3359SOL    HW116935   6.552   1.432  10.959  1.3590  0.2688  1.5841
 3359SOL    HW216936   6.687   1.385  10.908  0.3841 -0.7588 -0.1408
 3360SOL     OW16937   5.042   7.772   4.247  0.5596  0.9081  0.0010
 3360SOL    HW116938   5.117   7.715   4.267 -0.5788 -0.5606  0.2750
 3360SOL    HW216939   5.015   7.806   4.332  0.1917  0.4766  0.0608
 3361SOL     OW16940   8.883  10.077   4.943 -0.4382 -0.0837 -0.3867
 3361SOL    HW116941   8.928  10.156   4.911 -1.0927  1.0011  1.2059
 3361SOL    HW216942   8.796  10.082   4.905 -0.0663 -0.7911 -1.3710
 3362SOL     OW16943   7.626  11.563   8.622  0.3771  0.0992 -0.1178
 3362SOL    HW116944   7.590  11.652   8.615  1.6920  0.6533 -0.0012
 3362SOL    HW216945   7.549  11.506   8.615 -0.3149  1.1710 -1.9469
 3363SOL     OW16946   3.501   2.823   5.689 -0.1034  0.7087 -0.4946
 3363SOL    HW116947   3.457   2.859   5.612 -1.8149  1.0950  0.6116
 3363SOL    HW216948   3.594   2.821   5.665 -0.6983 -0.4517 -3.0583
 3364SOL     OW16949  12.403   2.118   5.600 -0.5487 -0.2595  0.1399
 3364SOL    HW116950  12.404   2.071   5.683 -0.2134 -0.3199  0.1050
 3364SOL    HW216951  12.466   2.189   5.612 -0.0007 -0.6623 -0.2827
 3365SOL     OW16952   5.402   8.811   4.214 -0.3197  0.1599  0.3561
 3365SOL    HW116953   5.317   8.825   4.255 -0.5164 -0.5989  0.2190
 3365SOL    HW216954   5.421   8.894   4.169 -0.1772  0.9520  1.8196
 3366SOL     OW16955  10.238   8.832   6.836  0.3042  0.4971  0.4460
 3366SOL    HW116956  10.204   8.899   6.777  1.3308  0.1444 -0.5651
 3366SOL    HW216957  10.199   8.854   6.921 -1.7735  0.5989 -0.4721
 3367SOL     OW16958   5.124   1.783  12.494  0.1511  0.0997  0.1817
 3367SOL    HW116959   5.081   1.720  12.436  0.0599 -0.0732  0.4349
 3367SOL    HW216960   5.193   1.731  12.537  2.1105  0.8357 -1.8204
 3368SOL     OW16961   0.242   0.810   9.769 -0.2366 -0.0807 -0.4177
 3368SOL    HW116962   0.265   0.717   9.774  0.2352  0.0614  0.0039
 3368SOL    HW216963   0.325   0.856   9.774 -0.5765  0.4230  0.8465
 3369SOL     OW16964   5.096  12.335  10.284 -0.0496  0.3188  0.4808
 3369SOL    HW116965   5.056  12.348  10.370 -0.7378  2.8167 -0.1286
 3369SOL    HW216966   5.189  12.325  10.303 -0.1440  1.1478  1.5286
 3370SOL     OW16967   1.270  10.178   0.468  0.4427  0.4437 -0.6679
 3370SOL    HW116968   1.271  10.269   0.499 -1.1784  0.9091 -1.8310
 3370SOL    HW216969   1.184  10.145   0.495  0.2839 -0.1596 -1.8564
 3371SOL     OW16970   6.968  11.056  10.072  0.2772 -0.1460  0.2564
 3371SOL    HW116971   6.978  10.997   9.997  1.2310 -0.3148  0.5008
 3371SOL    HW216972   7.055  11.060  10.111 -0.2169 -0.1283  1.4104
 3372SOL     OW16973   9.198   1.149  10.966 -0.4055 -0.1094 -0.2524
 3372SOL    HW116974   9.134   1.079  10.983  2.0918 -2.5389 -0.2443
 3372SOL    HW216975   9.237   1.167  11.052  2.0992 -2.0532 -0.8670
 3373SOL     OW16976   1.339  11.440   1.457  0.0830 -0.2253  0.4111
 3373SOL    HW116977   1.288  11.383   1.515 -1.6143 -1.0091 -1.7158
 3373SOL    HW216978   1.274  11.490   1.409  1.3099 -0.6306 -1.8089
 3374SOL     OW16979   7.811  10.282   0.085 -0.2675  0.2353  1.0025
 3374SOL    HW116980   7.892  10.239   0.056 -0.6699 -1.0711  1.7361
 3374SOL    HW216981   7.785  10.335   0.010 -0.4539 -1.8661 -0.5202
 3375SOL     OW16982   4.466   0.110   3.137 -0.6239  0.8186 -0.4841
 3375SOL    HW116983   4.469   0.143   3.048  0.8668  2.1915  0.0313
 3375SOL    HW216984   4.430   0.182   3.189 -0.5108  0.4193  0.1694
 3376SOL     OW16985   6.543   1.490   3.397  0.1866  0.0153  0.2481
 3376SOL    HW116986   6.503   1.561   3.347  0.0556 -0.0489  0.2611
 3376SOL    HW216987   6.637   1.510   3.398 -0.1072  1.8360  2.7630
 3377SOL     OW16988   1.945   3.258   2.766  0.2139  0.0475  0.1964
 3377SOL    HW116989   2.031   3.299   2.777 -0.0666  0.7614 -0.1907
 3377SOL    HW216990   1.885   3.314   2.815 -0.5173  1.3864 -2.0635
 3378SOL     OW16991   6.017   5.223  10.657  0.2888  0.6066 -0.3887
 3378SOL    HW116992   6.067   5.265  10.727 -1.1896  0.2065  0.9713
 3378SOL    HW216993   5.984   5.142  10.697 -0.2557  0.1622 -1.6880
 3379SOL     OW16994   7.566   5.953   0.319 -0.2541  0.0437 -0.0863
 3379SOL    HW116995   7.507   6.018   0.280 -1.4536 -1.4725 -0.9465
 3379SOL    HW216996   7.618   5.922   0.245 -0.6244 -0.8955  0.0318
 3380SOL     OW16997   9.924   2.244   1.604  0.7453 -0.2157  0.4992
 3380SOL    HW116998   9.962   2.157   1.609  0.5914 -0.2482  1.2142
 3380SOL    HW216999   9.917   2.262   1.510  0.2853 -1.1911  0.3337
 3381SOL     OW17000   9.782  11.050   4.751 -0.2593  0.1846  0.2823
 3381SOL    HW117001   9.801  11.056   4.657  0.5699  0.9984  0.4773
 3381SOL    HW217002   9.833  10.975   4.782  0.6775  0.8287  0.3398
 3382SOL     OW17003   1.612   8.413   5.783  0.6073  0.2516 -0.1325
 3382SOL    HW117004   1.592   8.495   5.738 -1.7046  0.5756  1.3135
 3382SOL    HW217005   1.707   8.415   5.795  0.6320  2.7137 -0.2224
 3383SOL     OW17006   4.869   4.575   1.735  0.2202 -0.2493 -0.0310
 3383SOL    HW117007   4.865   4.500   1.793 -0.4883 -0.3357 -0.1846
 3383SOL    HW217008   4.886   4.538   1.648 -2.1116 -0.4454 -0.4701
 3384SOL     OW17009   9.172   1.871   2.913  0.6582 -1.0520  0.3078
 3384SOL    HW117010   9.088   1.905   2.883  0.7007 -0.1648  1.1265
 3384SOL    HW217011   9.237   1.917   2.860  0.6460 -1.3356  0.0470
 3385SOL     OW17012   1.655   6.818   3.870  0.2792  0.0656 -0.0249
 3385SOL    HW117013   1.721   6.822   3.939  1.0798  0.9152 -0.7948
 3385SOL    HW217014   1.653   6.907   3.834  0.5603 -0.5561 -1.6814
 3386SOL     OW17015  11.514   8.561  11.717  0.4329  0.2513 -0.4144
 3386SOL    HW117016  11.423   8.553  11.687  0.4944  0.4042 -0.6515
 3386SOL    HW217017  11.508   8.559  11.813  0.1814  0.2469 -0.4288
 3387SOL     OW17018   2.151   7.008   2.452  0.5913 -0.0339  0.5514
 3387SOL    HW117019   2.106   7.088   2.480 -0.0360 -0.4220  0.6707
 3387SOL    HW217020   2.234   7.009   2.499  1.1255  1.1725 -0.3902
 3388SOL     OW17021   2.929   1.246   9.124  0.0539  0.3760  0.1404
 3388SOL    HW117022   2.995   1.181   9.100 -0.8819 -0.6561  0.2563
 3388SOL    HW217023   2.869   1.199   9.182  0.0643  1.7209  1.3007
 3389SOL     OW17024   0.648   4.530  12.303 -0.3791 -0.0792  0.2666
 3389SOL    HW117025   0.621   4.452  12.351  0.3649 -0.7745 -0.4209
 3389SOL    HW217026   0.743   4.534  12.313 -0.5729  2.0929  2.2836
 3390SOL     OW17027   3.957   4.107   8.972 -0.0135 -0.7259  0.5129
 3390SOL    HW117028   3.914   4.192   8.978  1.0283 -0.0071 -1.5379
 3390SOL    HW217029   4.037   4.116   9.024 -0.8204 -1.1281  1.8917
 3391SOL     OW17030  11.497   3.646   7.120  0.5646  0.3575 -0.4499
 3391SOL    HW117031  11.547   3.725   7.141  0.1098  1.2338 -2.4094
 3391SOL    HW217032  11.416   3.679   7.082 -0.8536 -1.0622  1.2053
 3392SOL     OW17033   5.574   0.992  11.567  0.6548 -0.0725 -0.5634
 3392SOL    HW117034   5.499   0.993  11.508  1.2906  0.6132 -1.3895
 3392SOL    HW217035   5.556   0.920  11.628 -0.9282  0.4377 -0.3906
 3393SOL     OW17036   3.060  10.627   0.341 -0.0073  0.1136  0.2472
 3393SOL    HW117037   3.038  10.712   0.379  0.1272  0.3117 -0.1201
 3393SOL    HW217038   2.996  10.567   0.380  0.1758  0.2999  0.8432
 3394SOL     OW17039  10.313   8.949   1.769  0.3219  0.0102  0.4492
 3394SOL    HW117040  10.284   8.864   1.737  1.0988 -0.5484  1.1724
 3394SOL    HW217041  10.393   8.930   1.819  1.5194  1.3717 -0.8347
 3395SOL     OW17042  10.902   2.687   0.837  0.0855  0.3010 -0.0283
 3395SOL    HW117043  10.935   2.704   0.926  1.3169  1.6790 -0.7070
 3395SOL    HW217044  10.971   2.634   0.796 -0.7278 -0.8006 -0.0198
 3396SOL     OW17045   3.183   4.023  11.204  0.4332 -0.7555 -0.2331
 3396SOL    HW117046   3.271   4.056  11.218  1.0352 -1.7683 -1.3690
 3396SOL    HW217047   3.181   3.939  11.251 -0.7171  0.2820  1.7203
 3397SOL     OW17048   0.976   9.302   5.184  0.8129  0.1975 -0.1920
 3397SOL    HW117049   0.999   9.380   5.235 -0.8053  0.6584 -0.1074
 3397SOL    HW217050   0.885   9.316   5.158  0.5721 -1.5325 -0.4353
 3398SOL     OW17051   6.074  10.398   3.978 -0.0273  0.0683  0.3716
 3398SOL    HW117052   6.081  10.305   3.957 -4.9150 -0.1638 -1.6457
 3398SOL    HW217053   6.110  10.442   3.901  0.7860 -0.1736  0.6046
 3399SOL     OW17054  11.507   9.245  11.527 -0.1064  0.3915  0.5317
 3399SOL    HW117055  11.566   9.312  11.560  2.4457 -1.3563 -0.2243
 3399SOL    HW217056  11.514   9.251  11.432 -2.4030  1.1095  0.3257
 3400SOL     OW17057   8.121   8.529   4.465  0.1949 -0.0963 -0.0330
 3400SOL    HW117058   8.204   8.528   4.514  0.0688 -1.4625  0.2029
 3400SOL    HW217059   8.107   8.621   4.443  0.8493  0.4056  1.4946
 3401SOL     OW17060  11.002   8.144   6.393 -0.1968 -0.7355 -0.3451
 3401SOL    HW117061  10.977   8.059   6.356 -0.7757 -1.2237  1.0954
 3401SOL    HW217062  11.095   8.154   6.372 -0.7566 -0.3593 -3.0403
 3402SOL     OW17063  10.609  10.159   4.342  0.7858 -0.9285  0.1381
 3402SOL    HW117064  10.599  10.068   4.313  0.9780 -1.1822  0.8552
 3402SOL    HW217065  10.580  10.159   4.433  0.2880 -0.1578 -0.0080
 3403SOL     OW17066  12.016   2.474   7.561  0.2440 -0.2590 -0.6061
 3403SOL    HW117067  11.937   2.464   7.614 -0.5342 -0.2693 -1.7312
 3403SOL    HW217068  12.081   2.511   7.621 -0.5183 -0.5255  0.4113
 3404SOL     OW17069   9.400   2.155   9.124 -0.2305 -0.5140 -0.2191
 3404SOL    HW117070   9.432   2.149   9.034  0.1032  0.4070 -0.1755
 3404SOL    HW217071   9.313   2.116   9.122  0.2493 -1.5935 -0.6828
 3405SOL     OW17072  11.335   3.294   4.122 -0.3587  0.1295  0.0155
 3405SOL    HW117073  11.302   3.244   4.196 -0.0375 -0.9079 -0.5334
 3405SOL    HW217074  11.429   3.278   4.122 -0.1479  1.2326  0.1903
 3406SOL     OW17075   3.839   8.819   7.010  0.5181 -0.2822  0.0358
 3406SOL    HW117076   3.812   8.907   7.036 -0.8596 -1.1925  2.0124
 3406SOL    HW217077   3.891   8.832   6.931 -2.1692  2.0667 -1.5753
 3407SOL     OW17078   3.652   8.263   2.414  0.3340 -0.4484  0.5886
 3407SOL    HW117079   3.742   8.293   2.402  0.2177 -0.4522 -0.3232
 3407SOL    HW217080   3.653   8.171   2.388  0.6317 -1.2431  3.1260
 3408SOL     OW17081  10.994   9.947  11.015  0.0089 -0.2385 -0.2063
 3408SOL    HW117082  10.918   9.892  11.032 -1.5438  1.6695 -0.6488
 3408SOL    HW217083  11.005   9.997  11.096  2.2634 -2.0289  0.7240
 3409SOL     OW17084  11.181   0.517   9.917  0.3097 -0.1258  0.5982
 3409SOL    HW117085  11.206   0.436   9.872  0.8780 -0.4849  1.5320
 3409SOL    HW217086  11.106   0.492   9.971  1.4676 -0.4643  2.1256
 3410SOL     OW17087  11.326   5.215   0.124  0.0649 -0.2019  0.0020
 3410SOL    HW117088  11.242   5.185   0.159  1.1662 -3.2292  0.3056
 3410SOL    HW217089  11.355   5.282   0.186 -2.3813  1.5315 -0.5348
 3411SOL     OW17090   1.586   3.328   7.017 -0.6134  0.1394  0.2169
 3411SOL    HW117091   1.611   3.394   6.952 -1.9981  0.0050 -0.5058
 3411SOL    HW217092   1.490   3.323   7.010 -0.9171  0.7635  2.9316
 3412SOL     OW17093   6.003   0.105   1.330 -0.0541 -0.5040 -0.4539
 3412SOL    HW117094   5.948   0.060   1.265 -1.2323  0.8886 -0.4739
 3412SOL    HW217095   6.007   0.196   1.299  1.8894 -0.4621 -0.1781
 3413SOL     OW17096  11.794   3.298  11.542  0.4871  0.2591 -0.0706
 3413SOL    HW117097  11.777   3.204  11.537 -1.4112  0.5122  0.7042
 3413SOL    HW217098  11.836   3.320  11.459 -0.1209 -1.0766 -0.7527
 3414SOL     OW17099   0.513   7.954  10.218  1.0191  0.1130  0.2074
 3414SOL    HW117100   0.499   7.864  10.192  2.4154  0.2177 -1.0331
 3414SOL    HW217101   0.455   8.006  10.162  1.3195  0.0797 -0.1383
 3415SOL     OW17102   3.452   2.586   3.257  0.1952  0.3268 -0.4293
 3415SOL    HW117103   3.523   2.606   3.319 -0.6418  0.8609  0.3859
 3415SOL    HW217104   3.435   2.493   3.270  2.5812 -0.5455 -2.6260
 3416SOL     OW17105   6.059   7.663   6.716 -0.5848  0.8597  0.0868
 3416SOL    HW117106   6.089   7.662   6.625 -3.1253  1.3541 -0.8368
 3416SOL    HW217107   6.139   7.678   6.767  0.9266  0.5007 -2.0273
 3417SOL     OW17108   8.111   8.682   9.159 -0.4566 -0.0552 -0.0812
 3417SOL    HW117109   8.077   8.726   9.237 -1.2120 -0.1869 -0.3326
 3417SOL    HW217110   8.137   8.596   9.190 -0.4893 -0.0074  0.0809
 3418SOL     OW17111   6.575   9.609   6.950 -0.3974 -0.2817 -0.5026
 3418SOL    HW117112   6.534   9.591   7.035 -1.2039 -0.9615 -1.0176
 3418SOL    HW217113   6.509   9.661   6.903  0.1245  0.2598 -0.6402
 3419SOL     OW17114   2.002  10.409   0.260 -0.3623  0.7397  0.0794
 3419SOL    HW117115   1.999  10.360   0.342  0.1648  2.0231  0.8987
 3419SOL    HW217116   2.091  10.446   0.258 -0.0989  0.1233 -1.4517
 3420SOL     OW17117   5.071   8.644  11.745  0.7545 -0.5881 -0.4388
 3420SOL    HW117118   5.006   8.586  11.785 -0.1510  0.5976 -0.1325
 3420SOL    HW217119   5.073   8.618  11.653  0.0976 -0.8828 -0.3759
 3421SOL     OW17120  11.607   8.935   7.772 -0.4139 -0.3503 -1.1311
 3421SOL    HW117121  11.681   8.949   7.712 -1.1455  2.3212 -1.5211
 3421SOL    HW217122  11.600   8.839   7.779  2.2937 -0.7114 -2.0170
 3422SOL     OW17123  11.103  10.283   7.734  0.2739 -0.6109  0.1001
 3422SOL    HW117124  11.109  10.235   7.652  1.5423 -0.6750  0.2031
 3422SOL    HW217125  11.011  10.277   7.759 -0.0761 -0.8142 -1.1750
 3423SOL     OW17126   0.999  11.185  10.711 -0.4384 -0.3094 -0.5122
 3423SOL    HW117127   1.014  11.092  10.694 -0.1381 -0.3919  0.1671
 3423SOL    HW217128   0.926  11.187  10.772 -0.0968 -0.1240 -0.1063
 3424SOL     OW17129  12.405   3.868   6.635  0.3389  0.2752  0.1055
 3424SOL    HW117130  12.322   3.834   6.603  0.0301  0.3041  0.8593
 3424SOL    HW217131  12.451   3.896   6.556 -0.5144  0.6033 -0.2859
 3425SOL     OW17132   4.720   4.267   1.487 -0.0154  0.3045  0.0889
 3425SOL    HW117133   4.626   4.251   1.491  0.0789 -0.5173 -0.7183
 3425SOL    HW217134   4.758   4.201   1.545  0.1663 -0.4868 -0.9028
 3426SOL     OW17135   0.644   8.699   8.903  0.3928  0.2972  0.8796
 3426SOL    HW117136   0.553   8.692   8.931  0.6547 -0.4638  1.5867
 3426SOL    HW217137   0.661   8.793   8.901  0.0988  0.4233  2.4810
 3427SOL     OW17138   3.671   6.706   7.803  0.2024  0.3501 -0.0988
 3427SOL    HW117139   3.766   6.702   7.810  0.0923 -0.0452  1.9250
 3427SOL    HW217140   3.648   6.629   7.750  1.0653  1.4272 -2.1381
 3428SOL     OW17141   3.382  12.220  12.062  0.4250 -0.2468  0.1225
 3428SOL    HW117142   3.325  12.255  12.130  0.1616  0.6584 -0.5475
 3428SOL    HW217143   3.404  12.132  12.092  1.9496  0.8211  2.3822
 3429SOL     OW17144   1.160  10.387  11.058 -0.5090 -0.6749 -0.4428
 3429SOL    HW117145   1.140  10.354  11.145  1.8722 -0.3603  0.2770
 3429SOL    HW217146   1.222  10.324  11.021 -1.6924 -0.9652 -2.0774
 3430SOL     OW17147   3.228   5.285   1.294  0.3834 -0.2571  0.5440
 3430SOL    HW117148   3.233   5.381   1.298  0.2609 -0.2021 -0.4961
 3430SOL    HW217149   3.145   5.264   1.337 -0.2909  0.2078 -0.5012
 3431SOL     OW17150   5.578   0.055   8.317  0.2398 -0.6114  0.1348
 3431SOL    HW117151   5.542   0.117   8.255  0.6602 -0.5079 -0.0110
 3431SOL    HW217152   5.619   0.109   8.385  1.3072 -0.7052 -0.4037
 3432SOL     OW17153   1.042   4.481  10.578  0.4590  0.7659 -0.1570
 3432SOL    HW117154   0.982   4.439  10.517  1.1446 -1.4193  0.5747
 3432SOL    HW217155   1.123   4.492  10.528  0.6821 -0.0232  0.0165
 3433SOL     OW17156   3.323  11.759  11.097  0.5025 -0.4524  0.5702
 3433SOL    HW117157   3.380  11.805  11.036 -0.5733 -0.3266 -0.3720
 3433SOL    HW217158   3.349  11.667  11.091  1.5069 -0.2125  1.1724
 3434SOL     OW17159  11.489   8.990   1.459  0.0772  0.0062 -0.0855
 3434SOL    HW117160  11.569   8.960   1.502  0.2156  1.2982  0.6251
 3434SOL    HW217161  11.484   9.083   1.482 -2.4687 -0.3688  1.2782
 3435SOL     OW17162   4.106   4.886   7.835 -0.0820  0.1661 -0.2747
 3435SOL    HW117163   4.018   4.850   7.845 -0.4644  0.7894 -1.2687
 3435SOL    HW217164   4.149   4.866   7.918 -0.4327 -2.0798 -0.5805
 3436SOL     OW17165   2.851  10.132   0.187  0.0860 -0.2742  0.0354
 3436SOL    HW117166   2.830  10.067   0.255  1.0708 -0.3103  0.3180
 3436SOL    HW217167   2.790  10.112   0.116  0.2897 -1.4379  0.1604
 3437SOL     OW17168   8.626   9.209   5.311 -0.3641  0.2204  0.2977
 3437SOL    HW117169   8.691   9.158   5.360 -1.2193 -1.9987 -0.7162
 3437SOL    HW217170   8.545   9.196   5.359 -1.1630 -1.7938 -1.4416
 3438SOL     OW17171   4.591  11.021   5.443 -0.3788 -0.6483 -0.0159
 3438SOL    HW117172   4.568  11.085   5.375 -0.6988 -2.3930 -1.6517
 3438SOL    HW217173   4.545  11.052   5.521 -1.4131  0.5339 -1.0374
 3439SOL     OW17174   4.853  10.626  10.234  0.4940 -0.2825  0.1241
 3439SOL    HW117175   4.948  10.637  10.229  0.4893 -0.4204 -0.2525
 3439SOL    HW217176   4.818  10.680  10.164  0.3960 -1.5151 -0.8045
 3440SOL     OW17177   7.302   9.152   7.674  0.0210 -0.2121 -0.1598
 3440SOL    HW117178   7.284   9.181   7.763  0.1777  0.2320 -0.2715
 3440SOL    HW217179   7.215   9.142   7.634 -0.0299  0.7198 -0.3126
 3441SOL     OW17180   3.297   3.991   0.122  0.0786 -0.4187 -0.5157
 3441SOL    HW117181   3.309   3.951   0.208  1.8014  1.3872  0.1559
 3441SOL    HW217182   3.386   3.998   0.086 -0.1494  2.3084 -0.7606
 3442SOL     OW17183   3.572  12.557  10.756 -0.4731 -0.4403 -0.0932
 3442SOL    HW117184   3.658  12.593  10.733 -0.7749  0.7652  0.5676
 3442SOL    HW217185   3.553  12.495  10.686  1.6993 -2.0627  0.6281
 3443SOL     OW17186   5.009   1.483   8.598  1.0126 -0.1983 -0.1596
 3443SOL    HW117187   5.018   1.459   8.690  1.0935  0.8376  0.1217
 3443SOL    HW217188   5.045   1.572   8.594  0.8068 -0.1579 -1.1499
 3444SOL     OW17189   9.599  11.727  11.789 -0.2084  0.0234 -0.1568
 3444SOL    HW117190   9.663  11.722  11.860  0.5958 -0.8362 -0.9388
 3444SOL    HW217191   9.637  11.787  11.725 -1.2420  1.3550  0.4027
 3445SOL     OW17192   1.265   3.395   5.935  0.3161  0.3765  0.4711
 3445SOL    HW117193   1.325   3.336   5.980  1.3073  0.4934 -0.6677
 3445SOL    HW217194   1.273   3.478   5.983  1.9342  0.7218 -0.3265
 3446SOL     OW17195  10.926   9.590  12.336 -0.4134 -0.2443 -0.4069
 3446SOL    HW117196  10.917   9.524  12.267  3.0578 -0.7262 -0.5534
 3446SOL    HW217197  10.860   9.565  12.401 -3.0982 -0.3787 -2.9622
 3447SOL     OW17198   3.634   8.577   3.548  0.1795  0.5216  0.4902
 3447SOL    HW117199   3.617   8.636   3.476  0.0851 -1.1187 -0.8922
 3447SOL    HW217200   3.640   8.490   3.508  0.7226 -0.3772  2.3689
 3448SOL     OW17201   3.280  11.811   1.185 -0.5657  0.0018  0.3174
 3448SOL    HW117202   3.189  11.829   1.205 -0.5229 -1.7997  2.5066
 3448SOL    HW217203   3.278  11.763   1.102 -1.4355  1.0861 -0.3185
 3449SOL     OW17204   4.685  10.748   2.560  0.0017  0.1341  0.4842
 3449SOL    HW117205   4.673  10.822   2.619  0.0841 -1.4247  2.5469
 3449SOL    HW217206   4.690  10.672   2.617  0.8801 -1.3882 -1.4964
 3450SOL     OW17207   3.027   5.004   1.119 -0.4127  0.5395  0.4325
 3450SOL    HW117208   3.110   4.961   1.140 -0.4399  0.8770  1.2894
 3450SOL    HW217209   3.052   5.092   1.091 -0.4813  0.6459  0.7046
 3451SOL     OW17210   2.371   3.833   4.780  0.4046  0.3364 -0.5997
 3451SOL    HW117211   2.455   3.876   4.793  0.8186  0.1555 -2.4326
 3451SOL    HW217212   2.334   3.826   4.868  1.6074  1.7956  0.0636
 3452SOL     OW17213   2.242   3.287   1.030 -0.0638 -0.1306  0.3113
 3452SOL    HW117214   2.174   3.299   1.097 -0.0988  2.1735 -0.0334
 3452SOL    HW217215   2.287   3.207   1.055  1.6158  1.8753  4.6704
 3453SOL     OW17216   6.479  12.183  10.179  0.4860  1.0576  0.0600
 3453SOL    HW117217   6.499  12.089  10.174  0.9733  1.1110  0.8919
 3453SOL    HW217218   6.496  12.215  10.090  3.1016  0.8856  0.4005
 3454SOL     OW17219   0.141   8.820   8.638 -0.6626 -0.3009 -0.0452
 3454SOL    HW117220   0.137   8.878   8.562 -2.5351  0.1233  0.3070
 3454SOL    HW217221   0.210   8.856   8.693 -0.1059  0.0976 -0.9949
 3455SOL     OW17222   6.667   7.825   8.539  0.2796 -0.7103  0.4942
 3455SOL    HW117223   6.756   7.831   8.503  0.1872 -0.8718  0.2312
 3455SOL    HW217224   6.656   7.905   8.590 -0.1127  0.2559 -1.0562
 3456SOL     OW17225   2.908   0.311   2.332 -0.2933  0.5979 -0.9550
 3456SOL    HW117226   2.838   0.352   2.384 -1.5896 -1.3955 -1.0339
 3456SOL    HW217227   2.874   0.309   2.243 -0.0828 -0.2397 -1.0256
 3457SOL     OW17228  11.919  10.851   0.192  0.1259  0.3372  0.7992
 3457SOL    HW117229  11.995  10.852   0.250  1.4146  1.7622 -0.8008
 3457SOL    HW217230  11.944  10.791   0.121 -0.3789  0.5540  0.4314
 3458SOL     OW17231   0.442   5.581   5.174 -0.0164  0.1522  0.2544
 3458SOL    HW117232   0.379   5.653   5.167  0.0168  0.0500 -1.5023
 3458SOL    HW217233   0.410   5.515   5.111  0.6482 -0.8392  0.9237
 3459SOL     OW17234   0.754   9.411   2.645 -0.0115 -0.0528 -0.0905
 3459SOL    HW117235   0.752   9.506   2.633 -0.5669  0.3219  2.4586
 3459SOL    HW217236   0.662   9.387   2.659  0.2116 -0.8478  0.0542
 3460SOL     OW17237  10.023   6.387   6.311 -0.2538 -0.5435 -0.0473
 3460SOL    HW117238  10.090   6.454   6.307 -1.1850  0.4016 -0.2767
 3460SOL    HW217239  10.060   6.319   6.367  0.7081  0.1477  0.1843
 3461SOL     OW17240   4.584   0.945   6.213 -0.7601 -0.7651  0.4418
 3461SOL    HW117241   4.646   0.953   6.141 -1.7526 -0.6708 -0.4235
 3461SOL    HW217242   4.634   0.970   6.291  0.2883 -0.7371 -0.2279
 3462SOL     OW17243   3.228   4.715   7.449 -0.3825  0.0539  0.3776
 3462SOL    HW117244   3.226   4.620   7.459  1.3809  0.0969  1.5344
 3462SOL    HW217245   3.260   4.729   7.359  1.2401 -0.4852  0.8475
 3463SOL     OW17246   8.476   8.498   4.445  0.3021  0.1933  0.0739
 3463SOL    HW117247   8.439   8.506   4.533  2.3653 -0.3105  1.0490
 3463SOL    HW217248   8.412   8.446   4.396 -1.3595  1.3372  0.9398
 3464SOL     OW17249  12.483   5.859   8.686 -0.4520  0.0655 -0.1973
 3464SOL    HW117250  12.454   5.951   8.687  0.2859  0.3300  2.2027
 3464SOL    HW217251  12.417   5.813   8.737 -0.3759 -0.6259 -0.7056
 3465SOL     OW17252  10.215   1.656  10.161  0.4284  0.1829  0.5296
 3465SOL    HW117253  10.175   1.678  10.245  0.2996 -0.8881  0.7717
 3465SOL    HW217254  10.151   1.600  10.118 -0.1520  1.9312 -0.9582
 3466SOL     OW17255   6.778  12.165   3.568 -0.0237 -0.0587  0.8421
 3466SOL    HW117256   6.778  12.204   3.481  0.7565 -0.7242  0.5282
 3466SOL    HW217257   6.871  12.155   3.589 -0.1850  1.0585  2.1973
 3467SOL     OW17258   7.011   4.752   7.916 -0.4500  0.4346 -0.1184
 3467SOL    HW117259   6.927   4.780   7.880 -0.1218  0.6426 -0.7192
 3467SOL    HW217260   7.072   4.758   7.843 -0.0999 -0.6079  0.0635
 3468SOL     OW17261   1.851   8.906   8.413 -0.1646  0.4382  0.1644
 3468SOL    HW117262   1.899   8.944   8.487  1.5866 -1.5474  0.1647
 3468SOL    HW217263   1.795   8.976   8.381 -0.6393  1.5002  3.0733
 3469SOL     OW17264   7.386  11.954   6.932  0.2565 -0.1871  0.1130
 3469SOL    HW117265   7.432  11.912   6.859  0.7819 -0.0249  0.3462
 3469SOL    HW217266   7.324  11.887   6.963  2.1614 -1.4171  1.4989
 3470SOL     OW17267  11.091   9.561   4.635 -0.2011  0.0322  0.2725
 3470SOL    HW117268  11.000   9.545   4.659  0.4303  1.1951  4.1072
 3470SOL    HW217269  11.131   9.474   4.630 -0.7812 -0.3916  2.2874
 3471SOL     OW17270  11.933   8.419  12.513 -0.4520 -0.1489 -0.3239
 3471SOL    HW117271  11.934   8.324  12.499 -1.4583 -0.4812  1.5758
 3471SOL    HW217272  11.954   8.430  12.606 -1.1858  1.4357 -0.3144
 3472SOL     OW17273   4.972   7.909  10.138  0.3984  0.1815 -0.0407
 3472SOL    HW117274   4.919   7.966  10.193  1.0304  0.1401  0.6214
 3472SOL    HW217275   4.924   7.826  10.136 -0.9850  0.9338 -1.7172
 3473SOL     OW17276   5.010   6.083   8.184 -0.5154  0.3202 -0.0406
 3473SOL    HW117277   5.042   6.157   8.235 -2.3818  0.7362  0.6120
 3473SOL    HW217278   5.022   6.109   8.093  3.3902 -0.6553 -0.0053
 3474SOL     OW17279   2.064   1.649  10.099  0.1351 -0.7424 -0.7162
 3474SOL    HW117280   1.994   1.613  10.153  1.2808 -0.1468  1.2601
 3474SOL    HW217281   2.143   1.640  10.152  1.4064 -0.4110 -2.4371
 3475SOL     OW17282  10.304  10.305   7.936  0.3603  0.1375 -0.1350
 3475SOL    HW117283  10.239  10.266   7.993 -0.1661  2.1645  0.7495
 3475SOL    HW217284  10.255  10.333   7.859  0.8336 -1.3995 -1.0219
 3476SOL     OW17285   6.148   0.050  10.062 -0.1632  0.2409 -0.4029
 3476SOL    HW117286   6.167   0.117   9.997 -1.0248  1.2053  0.2851
 3476SOL    HW217287   6.165   0.092  10.146  0.5111 -0.8328  0.0227
 3477SOL     OW17288   3.375   2.204   6.290 -0.0951  0.0670  0.0608
 3477SOL    HW117289   3.321   2.277   6.262  2.8019  1.9041 -1.2460
 3477SOL    HW217290   3.347   2.131   6.234 -0.1249  1.4312 -1.8258
 3478SOL     OW17291  12.306   2.172  12.368 -0.8888 -0.0637 -0.2694
 3478SOL    HW117292  12.361   2.229  12.314  0.0196 -1.0105 -0.3573
 3478SOL    HW217293  12.308   2.087  12.324 -2.9229  0.0116 -0.6152
 3479SOL     OW17294   6.410   8.165   5.780 -0.7691  0.0948 -0.2964
 3479SOL    HW117295   6.501   8.149   5.807 -0.6739 -0.4112 -0.9067
 3479SOL    HW217296   6.371   8.077   5.775 -0.4073 -0.0009 -3.1214
 3480SOL     OW17297   5.742   2.883   6.929  0.1065 -0.6123 -0.4388
 3480SOL    HW117298   5.827   2.850   6.958  0.5648  1.8408  1.3145
 3480SOL    HW217299   5.761   2.969   6.893 -1.7265  0.3718  0.8305
 3481SOL     OW17300   2.930  12.534   6.462  0.1126 -0.5954 -0.2342
 3481SOL    HW117301   2.892  12.611   6.421  1.3746  0.1973  0.0193
 3481SOL    HW217302   2.931  12.555   6.555 -0.0987 -1.1731 -0.1017
 3482SOL     OW17303   7.812   8.589   6.113  0.1607 -0.4769 -0.1482
 3482SOL    HW117304   7.847   8.676   6.130  0.8690 -0.7056 -0.3988
 3482SOL    HW217305   7.860   8.557   6.037 -1.0193 -0.5737 -0.8792
 3483SOL     OW17306   9.065  10.600   0.763  0.0542 -0.2554  0.4129
 3483SOL    HW117307   9.108  10.523   0.725  0.9193  0.0683  0.7172
 3483SOL    HW217308   8.973  10.590   0.739  0.4539 -0.4231 -1.1757
 3484SOL     OW17309   4.591  11.376   1.382 -0.2236 -0.0254 -0.5779
 3484SOL    HW117310   4.523  11.346   1.443 -0.7989 -2.5698 -2.3036
 3484SOL    HW217311   4.672  11.339   1.417 -0.4863 -1.0960 -1.0511
 3485SOL     OW17312   5.449   5.346   9.867 -0.1955  0.2353  0.0879
 3485SOL    HW117313   5.542   5.341   9.891 -0.2868  1.4478  0.8173
 3485SOL    HW217314   5.403   5.323   9.948 -0.5799 -2.1027 -0.7200
 3486SOL     OW17315   5.095   5.475   3.384  0.4384 -0.7083 -0.4730
 3486SOL    HW117316   5.083   5.441   3.295 -0.8258 -0.6013 -0.3554
 3486SOL    HW217317   5.006   5.489   3.417  0.9028  0.5340  0.3226
 3487SOL     OW17318   3.685   8.700   6.315  0.2469  0.0105  0.1480
 3487SOL    HW117319   3.600   8.660   6.296  0.4699  0.1837 -1.3585
 3487SOL    HW217320   3.746   8.626   6.319  0.5451  0.0625 -1.9918
 3488SOL     OW17321   2.554   2.042   8.263 -0.4415 -0.4574  0.4661
 3488SOL    HW117322   2.610   1.966   8.280 -1.4673 -1.3094  0.1582
 3488SOL    HW217323   2.500   2.014   8.189 -1.3876  0.2845  0.8726
 3489SOL     OW17324   3.131   9.399   9.471 -0.2171  0.4591  0.1177
 3489SOL    HW117325   3.208   9.415   9.526 -0.3735  2.1502 -0.0931
 3489SOL    HW217326   3.157   9.328   9.413  2.1678  2.6590 -1.7122
 3490SOL     OW17327   8.260   5.197   7.366  0.1209  0.1586 -0.2298
 3490SOL    HW117328   8.259   5.201   7.270 -0.0393 -1.8077 -0.3420
 3490SOL    HW217329   8.168   5.193   7.390  0.0903  2.0302  0.1315
 3491SOL     OW17330   5.219   2.482  10.673 -0.6160  0.4583  0.2619
 3491SOL    HW117331   5.154   2.419  10.704 -1.7229  1.9185  1.0791
 3491SOL    HW217332   5.168   2.560  10.651  0.9210  2.0732  2.0565
 3492SOL     OW17333   5.041   0.090   2.139 -0.1663 -0.1409  0.3978
 3492SOL    HW117334   5.019   0.010   2.186  0.9286 -0.4980  0.3239
 3492SOL    HW217335   4.962   0.143   2.144 -1.0387 -1.3694  0.1427
 3493SOL     OW17336  10.393   4.838   7.984  0.5664  0.4128 -0.4019
 3493SOL    HW117337  10.487   4.822   7.992  0.5588  0.5042 -0.1376
 3493SOL    HW217338  10.386   4.930   7.958  0.5051  0.7576  0.7989
 3494SOL     OW17339   6.283   9.504   8.773 -0.4319  0.3721  0.1404
 3494SOL    HW117340   6.346   9.529   8.841 -0.4367 -1.6381  0.9456
 3494SOL    HW217341   6.214   9.458   8.820 -0.7910 -0.4442 -1.1390
 3495SOL     OW17342  12.398   4.800   1.042  0.6723  0.1089  0.2355
 3495SOL    HW117343  12.493   4.798   1.034  0.7518 -2.4522  0.8810
 3495SOL    HW217344  12.382   4.832   1.131  0.9240  0.4332  0.1670
 3496SOL     OW17345   3.158   4.060   5.277  0.1601 -0.7281 -0.3390
 3496SOL    HW117346   3.079   4.006   5.270 -1.0654  1.0802 -1.1563
 3496SOL    HW217347   3.208   4.040   5.197 -0.0491 -1.0154 -0.3982
 3497SOL     OW17348   2.211   3.919   5.311  0.4190  0.5044 -0.2171
 3497SOL    HW117349   2.153   3.868   5.368 -0.9629 -0.0104 -1.9831
 3497SOL    HW217350   2.254   3.854   5.256  0.1915  1.0911 -1.1180
 3498SOL     OW17351   6.150   9.490   7.954 -0.2124 -0.5663  0.0952
 3498SOL    HW117352   6.182   9.525   8.037  1.6910  3.2186 -1.9669
 3498SOL    HW217353   6.223   9.439   7.918 -1.2076 -2.6264  0.8576
 3499SOL     OW17354   1.540   4.074  11.161 -0.1617 -0.1321 -0.5073
 3499SOL    HW117355   1.512   4.164  11.182 -1.0614 -0.5402  0.1471
 3499SOL    HW217356   1.625   4.066  11.203  1.0510  1.1641 -2.5844
 3500SOL     OW17357   6.015   9.583   0.984 -0.3469 -0.2607  0.4137
 3500SOL    HW117358   5.929   9.563   1.019 -1.2205  2.7588  0.3204
 3500SOL    HW217359   6.038   9.667   1.024  0.9830  0.7044 -2.1469
 3501SOL     OW17360   8.785   8.453   7.400 -0.5531 -0.2754  0.0753
 3501SOL    HW117361   8.788   8.390   7.472  0.0559 -1.0752 -0.6319
 3501SOL    HW217362   8.819   8.405   7.324 -0.7142  0.7004 -0.6369
 3502SOL     OW17363   3.652   1.377   9.593 -0.2781 -0.2261 -0.6415
 3502SOL    HW117364   3.632   1.283   9.584  0.0744 -0.3618 -0.0569
 3502SOL    HW217365   3.738   1.379   9.634 -0.5452  0.3564 -0.0955
 3503SOL     OW17366   9.698   5.742   6.470 -0.1773 -0.0959 -0.0419
 3503SOL    HW117367   9.745   5.798   6.532  0.3439  0.7819 -1.1937
 3503SOL    HW217368   9.756   5.668   6.454 -1.1552 -1.3981  2.0178
 3504SOL     OW17369  11.316   9.016   8.378  0.1637 -0.1399  0.0746
 3504SOL    HW117370  11.269   9.062   8.309  1.3639  0.8413 -0.1326
 3504SOL    HW217371  11.281   9.051   8.459  0.5393  0.6189 -0.0787
 3505SOL     OW17372   7.030   9.447   6.064 -0.1110 -0.2870 -0.0805
 3505SOL    HW117373   6.992   9.535   6.068 -1.6646 -0.8515 -1.3839
 3505SOL    HW217374   7.026   9.416   6.154 -1.2985  0.2816  0.0856
 3506SOL     OW17375   5.016  11.405   0.969 -0.3119 -0.3689 -0.5549
 3506SOL    HW117376   4.988  11.316   0.949 -1.4996 -0.8201  2.6510
 3506SOL    HW217377   4.951  11.439   1.030 -0.4679  3.1313 -2.3747
 3507SOL     OW17378   9.739   4.361   4.034 -0.0366 -0.1029 -0.4637
 3507SOL    HW117379   9.774   4.296   3.973 -0.9199 -1.2397  0.1886
 3507SOL    HW217380   9.812   4.381   4.093  0.3351 -0.2427 -0.8699
 3508SOL     OW17381   9.941   5.888  11.891 -0.0640 -0.6554 -0.4428
 3508SOL    HW117382   9.932   5.884  11.796 -3.4541 -0.8456 -0.2296
 3508SOL    HW217383   9.997   5.813  11.912 -0.2120 -1.3308 -2.2277
 3509SOL     OW17384   1.970   8.065   4.621 -0.2595  0.2112  0.6519
 3509SOL    HW117385   2.035   8.054   4.551  0.1836 -0.2691  1.1275
 3509SOL    HW217386   2.002   8.137   4.674 -1.1149  1.2432 -0.1976
 3510SOL     OW17387   1.640   0.022   0.333 -0.3996  0.5113  0.3938
 3510SOL    HW117388   1.558   0.040   0.286 -0.1938 -0.9214 -0.5802
 3510SOL    HW217389   1.677   0.109   0.348 -1.1720  1.1073 -0.8724
 3511SOL     OW17390   9.234  12.053  12.435 -0.7913 -0.2381 -0.3663
 3511SOL    HW117391   9.272  11.968  12.453 -1.7700 -0.3416  1.4204
 3511SOL    HW217392   9.177  12.038  12.359 -2.0284 -1.5354  0.7701
 3512SOL     OW17393   7.396   9.472  10.746 -0.0405  0.1013 -0.1660
 3512SOL    HW117394   7.381   9.538  10.678  2.2231 -0.4697 -1.3173
 3512SOL    HW217395   7.488   9.483  10.771  0.2355 -2.1950  0.0260
 3513SOL     OW17396  12.532   5.804   3.306  0.1246 -0.0689  0.3369
 3513SOL    HW117397  12.482   5.886   3.312  0.4892  0.4905 -2.5319
 3513SOL    HW217398  12.465   5.736   3.304 -0.5303  0.5405 -1.6165
 3514SOL     OW17399   4.263   3.170   3.655  0.3754 -0.1053  0.2609
 3514SOL    HW117400   4.350   3.190   3.622  0.2994 -0.7923 -0.3855
 3514SOL    HW217401   4.246   3.080   3.626 -1.0129  0.4070 -0.6309
 3515SOL     OW17402   1.622   7.442   8.922 -0.2116  0.0815 -0.2386
 3515SOL    HW117403   1.528   7.454   8.906 -0.6585 -2.5163  0.0170
 3515SOL    HW217404   1.627   7.408   9.011  0.9838  0.1899 -0.2540
 3516SOL     OW17405   6.494  11.890  10.157  0.6597 -0.5848 -0.2156
 3516SOL    HW117406   6.409  11.855  10.131 -0.2182  0.7304  0.7419
 3516SOL    HW217407   6.516  11.842  10.236 -0.6658  1.0647  1.2447
 3517SOL     OW17408   5.789   6.006  10.125  0.5755  0.6251  0.4631
 3517SOL    HW117409   5.781   5.948  10.201  1.2153 -1.2471 -0.8287
 3517SOL    HW217410   5.818   6.089  10.162  0.6676 -0.1673  2.3030
 3518SOL     OW17411   0.040   6.282   3.259  0.0539 -0.7261 -0.1568
 3518SOL    HW117412   0.055   6.376   3.272 -3.8751 -0.0053  0.3925
 3518SOL    HW217413   0.071   6.242   3.340 -0.2333  0.4055  0.5409
 3519SOL     OW17414  10.408   5.252   1.607  0.2371 -0.1279 -0.6991
 3519SOL    HW117415  10.401   5.165   1.646  1.0587 -0.4743 -1.3125
 3519SOL    HW217416  10.321   5.290   1.619  0.3611 -0.3244  1.2004
 3520SOL     OW17417   0.379   1.793   0.434 -0.0613 -0.4418  0.2865
 3520SOL    HW117418   0.373   1.886   0.455  1.3556 -0.3724  0.4425
 3520SOL    HW217419   0.353   1.788   0.342 -0.5234  0.0474  0.3814
 3521SOL     OW17420   2.095   8.326  11.240  0.0534  0.4939  0.2654
 3521SOL    HW117421   2.174   8.287  11.202 -0.1344  0.0594  0.3154
 3521SOL    HW217422   2.097   8.300  11.332 -0.5101 -0.1223  0.1123
 3522SOL     OW17423   9.865   4.672   0.370 -0.8113 -0.2540  0.9923
 3522SOL    HW117424   9.772   4.689   0.357 -0.4640  1.0298 -0.0252
 3522SOL    HW217425   9.899   4.653   0.282  0.0989  0.5035  1.1553
 3523SOL     OW17426   3.136   4.671   6.552  0.1591 -0.1585  0.2337
 3523SOL    HW117427   3.179   4.711   6.476 -1.1637  0.4061 -0.2560
 3523SOL    HW217428   3.180   4.587   6.564  0.3187 -0.2989 -1.2208
 3524SOL     OW17429   4.290   1.863   2.325  0.1986 -0.4565 -0.3099
 3524SOL    HW117430   4.324   1.952   2.312 -0.1055 -0.1613  0.7521
 3524SOL    HW217431   4.206   1.862   2.278 -0.5440  0.3412  0.9407
 3525SOL     OW17432   2.722   3.446   8.398  0.1680 -0.1907  0.0748
 3525SOL    HW117433   2.669   3.440   8.478  0.8653  1.9085  0.7451
 3525SOL    HW217434   2.672   3.504   8.341  0.6973  0.0279 -0.1691
 3526SOL     OW17435   0.621   7.422   6.188 -0.0013 -0.1519 -0.5201
 3526SOL    HW117436   0.571   7.346   6.157  0.9581 -0.4407 -1.4314
 3526SOL    HW217437   0.609   7.488   6.119 -0.7243  0.4997  0.2047
 3527SOL     OW17438   1.977   7.112   2.758  0.0590 -0.5078 -0.0034
 3527SOL    HW117439   2.036   7.163   2.701  0.3753 -1.0412 -0.1661
 3527SOL    HW217440   1.890   7.132   2.725  0.2203 -0.5740 -0.4922
 3528SOL     OW17441   9.108  10.655   2.324 -0.3919  0.4273  0.2594
 3528SOL    HW117442   9.079  10.710   2.251 -0.3889  0.3737  0.2173
 3528SOL    HW217443   9.196  10.686   2.345 -0.0994 -0.0386 -0.2412
 3529SOL     OW17444  11.673   4.353   0.833  0.3118  0.1274  0.3102
 3529SOL    HW117445  11.600   4.392   0.881  0.7578  1.7833 -0.3051
 3529SOL    HW217446  11.659   4.259   0.842 -1.0491  0.3963  1.4796
 3530SOL     OW17447   1.716   5.691   0.669 -0.7685  0.2996 -0.5773
 3530SOL    HW117448   1.750   5.620   0.723  0.1899  0.5429 -0.8258
 3530SOL    HW217449   1.624   5.698   0.692 -0.7666 -0.7089 -0.2073
 3531SOL     OW17450  10.864   8.501   3.962 -0.4692  0.1374 -0.3554
 3531SOL    HW117451  10.808   8.565   4.008  1.8908  2.1644 -0.1020
 3531SOL    HW217452  10.892   8.440   4.030  0.5090  1.2944  0.3166
 3532SOL     OW17453   3.606   4.274  10.158  0.0951  0.1293 -0.3994
 3532SOL    HW117454   3.582   4.186  10.187 -0.3030  0.6415  0.8749
 3532SOL    HW217455   3.524   4.315  10.133  0.3514 -0.0519 -1.6049
 3533SOL     OW17456   6.850   7.528   8.620 -0.0646 -0.4425  0.5283
 3533SOL    HW117457   6.890   7.550   8.704 -0.2672  1.8093  0.0996
 3533SOL    HW217458   6.902   7.576   8.555  0.4228 -2.5478 -0.7495
 3534SOL     OW17459  10.668   8.612   3.181 -0.1129 -0.2461 -0.1965
 3534SOL    HW117460  10.759   8.584   3.167 -0.4078 -0.8283 -1.0330
 3534SOL    HW217461  10.631   8.545   3.238 -0.1403 -0.2499 -0.2183
 3535SOL     OW17462   5.946   0.279   5.030 -0.2222  0.3037  0.1504
 3535SOL    HW117463   5.945   0.197   5.080 -1.8711  0.2616  0.1040
 3535SOL    HW217464   5.961   0.252   4.939 -0.1091  0.1129  0.2256
 3536SOL     OW17465   9.781   3.674   2.564  0.7173 -0.0103  0.8622
 3536SOL    HW117466   9.858   3.640   2.519  0.6363 -0.4867  1.0753
 3536SOL    HW217467   9.816   3.715   2.643  0.8167  0.4377  0.5949
 3537SOL     OW17468   7.354  10.683   4.631  0.0676 -0.0888  0.4767
 3537SOL    HW117469   7.361  10.748   4.561 -0.3468 -1.1557 -0.5979
 3537SOL    HW217470   7.378  10.600   4.590 -0.3661 -0.7784  1.5499
 3538SOL     OW17471   6.856   9.274   6.828  0.0494 -0.7478  0.0705
 3538SOL    HW117472   6.779   9.240   6.783  0.5252 -0.9660 -0.5897
 3538SOL    HW217473   6.828   9.359   6.862 -0.9569 -1.5087  1.2091
 3539SOL     OW17474  11.539   1.289   0.833  0.1265  0.2174 -0.2578
 3539SOL    HW117475  11.483   1.366   0.841  1.6776  1.4353 -0.5953
 3539SOL    HW217476  11.628   1.322   0.849  0.9806 -1.2609 -1.6331
 3540SOL     OW17477   6.835   3.279   0.070  0.4871  0.2003 -0.3634
 3540SOL    HW117478   6.900   3.286   0.139  0.1836 -0.2421 -0.0289
 3540SOL    HW217479   6.823   3.369   0.039  1.6154  0.2247 -0.7681
 3541SOL     OW17480   5.174   8.246  10.586 -0.1211 -0.0750  0.0421
 3541SOL    HW117481   5.157   8.340  10.599  0.9223  0.0614  0.5284
 3541SOL    HW217482   5.164   8.233  10.492  0.4113  0.6721 -0.1262
 3542SOL     OW17483   5.075   1.008   8.115 -0.2901 -0.0232 -0.1789
 3542SOL    HW117484   4.992   0.977   8.152 -0.9267  0.5578 -1.0916
 3542SOL    HW217485   5.090   0.953   8.039  0.1507 -0.1068 -0.0342
 3543SOL     OW17486  12.485   6.209   3.573 -0.1033 -0.3501  0.2352
 3543SOL    HW117487  12.488   6.217   3.668  1.5293  1.0888  0.0982
 3543SOL    HW217488  12.413   6.266   3.546  1.2760  1.5565  0.4390
 3544SOL     OW17489   7.751   3.858   7.549 -0.1381  0.7059 -0.3679
 3544SOL    HW117490   7.679   3.844   7.488 -0.6958  1.0962  0.1875
 3544SOL    HW217491   7.799   3.774   7.549 -0.0994  0.7196 -1.3564
 3545SOL     OW17492   6.507   1.048   5.211 -0.3247  0.1732  0.6802
 3545SOL    HW117493   6.472   1.125   5.165  0.3566 -0.2501 -0.5950
 3545SOL    HW217494   6.468   0.973   5.166  0.0045 -0.2528  1.0966
 3546SOL     OW17495   9.315  11.330  10.479  0.3429  0.2339  0.2725
 3546SOL    HW117496   9.411  11.331  10.482  0.3203  0.9862  0.8237
 3546SOL    HW217497   9.293  11.372  10.396  0.4852 -0.0780  0.0724
 3547SOL     OW17498   1.921   4.279   6.020 -0.0626  0.4006 -0.0012
 3547SOL    HW117499   1.872   4.227   6.083  0.4978  0.8475  0.8210
 3547SOL    HW217500   1.963   4.347   6.072  1.9220 -0.3082 -0.5868
 3548SOL     OW17501   9.439   0.959   7.040 -0.4235 -0.4909 -0.1235
 3548SOL    HW117502   9.479   0.906   6.970 -0.7846 -1.4758  0.4028
 3548SOL    HW217503   9.348   0.929   7.044 -1.0734  1.2558 -0.8477
 3549SOL     OW17504  10.820   6.448  12.417 -0.1922 -0.6712  0.0454
 3549SOL    HW117505  10.727   6.472  12.419 -0.0259  0.1239 -0.7990
 3549SOL    HW217506  10.859   6.512  12.357  1.3565  0.6148  2.3045
 3550SOL     OW17507   5.274   1.775   4.643  0.3123 -0.6205 -0.0143
 3550SOL    HW117508   5.355   1.762   4.594  0.2385 -1.7547  0.1272
 3550SOL    HW217509   5.243   1.862   4.616  2.0330  0.2263  0.6251
 3551SOL     OW17510   9.082   6.271   4.336 -0.1475 -0.0830 -0.0451
 3551SOL    HW117511   9.090   6.334   4.408  1.5335 -0.0268 -0.2471
 3551SOL    HW217512   9.034   6.319   4.268  1.1683  1.0569 -0.2202
 3552SOL     OW17513   1.355   0.128  10.617  0.3955  0.8218 -0.2482
 3552SOL    HW117514   1.440   0.124  10.574  1.3992 -1.7043  1.6863
 3552SOL    HW217515   1.309   0.050  10.586  0.7823 -0.5385  2.3400
 3553SOL     OW17516   8.790   8.052   1.568  0.2751  0.2676 -0.1336
 3553SOL    HW117517   8.861   8.107   1.533 -0.1190 -0.8947 -3.0015
 3553SOL    HW217518   8.728   8.044   1.496 -0.2862 -2.9100  0.5525
 3554SOL     OW17519   3.906   3.133  10.485 -0.1881 -0.2932 -0.1002
 3554SOL    HW117520   3.833   3.112  10.427 -0.8409  1.3591  0.0691
 3554SOL    HW217521   3.868   3.193  10.550  1.2211  0.2448  0.2516
 3555SOL     OW17522   1.102   5.436   3.578  0.2076  0.0812 -0.7725
 3555SOL    HW117523   1.052   5.383   3.639  0.9909 -1.4675 -1.4200
 3555SOL    HW217524   1.157   5.373   3.531  1.4198  1.5068 -1.3479
 3556SOL     OW17525   4.654   8.693   7.837 -0.1360 -0.4391  0.3254
 3556SOL    HW117526   4.691   8.616   7.880  0.0749 -0.4828  0.0646
 3556SOL    HW217527   4.565   8.699   7.872 -0.2159 -0.9074  0.2057
 3557SOL     OW17528   4.266   8.280   6.788  0.1113 -0.1820  0.6115
 3557SOL    HW117529   4.201   8.304   6.853  0.5466 -0.4514  1.1526
 3557SOL    HW217530   4.304   8.198   6.821 -1.2496 -1.5903 -1.1009
 3558SOL     OW17531  12.311   5.743   1.588 -0.2919 -0.3206  0.4354
 3558SOL    HW117532  12.391   5.746   1.536 -0.0553 -0.2026  0.7958
 3558SOL    HW217533  12.291   5.835   1.607 -0.1708 -0.3766  0.8538
 3559SOL     OW17534   3.729   7.293   9.160 -0.3395  0.2018 -0.1161
 3559SOL    HW117535   3.695   7.314   9.073  2.3492 -0.0308 -1.3475
 3559SOL    HW217536   3.697   7.205   9.178 -0.2412 -0.0870 -1.2776
 3560SOL     OW17537   0.676   2.171   6.874 -0.2537  0.4383  0.2765
 3560SOL    HW117538   0.733   2.143   6.946 -0.1945  0.3748  0.2059
 3560SOL    HW217539   0.686   2.266   6.871  1.7234  0.2553 -1.2675
 3561SOL     OW17540   4.912  11.615   3.981 -0.1928 -0.2334  0.1392
 3561SOL    HW117541   4.818  11.628   3.979 -0.1930 -0.3078 -0.5492
 3561SOL    HW217542   4.949  11.697   3.948 -0.1056 -0.9874 -1.7554
 3562SOL     OW17543   0.460   5.353   8.948  0.1639  0.4173  0.4956
 3562SOL    HW117544   0.423   5.438   8.924  0.4403  0.6299  0.7887
 3562SOL    HW217545   0.407   5.324   9.022  0.6770  0.8044  1.0272
 3563SOL     OW17546   0.150   2.692   7.324 -0.6390  0.0888 -0.0601
 3563SOL    HW117547   0.055   2.688   7.332 -0.5674 -0.2241  0.7935
 3563SOL    HW217548   0.169   2.783   7.302 -1.2896 -0.3928 -3.0437
 3564SOL     OW17549  10.727   0.463   1.973 -0.0307 -0.2330 -0.4624
 3564SOL    HW117550  10.768   0.520   1.908  0.0482  1.3950  0.9678
 3564SOL    HW217551  10.778   0.382   1.969  0.1459 -0.0819 -2.1977
 3565SOL     OW17552   7.021   9.052  10.445  0.0268  0.5110 -0.4519
 3565SOL    HW117553   6.955   9.089  10.386  2.0845  3.7839 -0.9981
 3565SOL    HW217554   7.103   9.060  10.396  1.1335 -1.6732  0.8998
 3566SOL     OW17555   4.079   3.473   8.524 -0.0495  0.1032  0.2219
 3566SOL    HW117556   4.084   3.552   8.577  1.2268  0.2126 -0.0352
 3566SOL    HW217557   4.016   3.495   8.454  0.7604  1.1317 -0.2166
 3567SOL     OW17558   1.790  10.645  11.050  0.4770  0.5326  0.3531
 3567SOL    HW117559   1.716  10.689  11.009  0.9137  0.4496 -0.5522
 3567SOL    HW217560   1.751  10.577  11.104 -0.1295  0.9460  0.4515
 3568SOL     OW17561  11.129   5.451   7.412 -0.2645  0.2010 -0.6193
 3568SOL    HW117562  11.178   5.442   7.494 -0.2151  0.6941 -0.5865
 3568SOL    HW217563  11.195   5.441   7.344 -0.0621  1.0871 -0.5718
 3569SOL     OW17564   7.871   8.671   3.632  0.5476  0.0412 -0.0827
 3569SOL    HW117565   7.843   8.608   3.566 -0.0583 -1.5488  1.6132
 3569SOL    HW217566   7.870   8.755   3.586 -0.7826 -0.8564 -1.8322
 3570SOL     OW17567  12.064  10.444   8.863  0.2649  0.5818  0.2695
 3570SOL    HW117568  11.970  10.445   8.845  0.3944  0.8519 -0.4432
 3570SOL    HW217569  12.078  10.366   8.916 -0.2687  0.2013 -0.1405
 3571SOL     OW17570   0.052  10.807   4.565  0.1399 -0.3683  0.1189
 3571SOL    HW117571   0.017  10.784   4.479  0.5899 -0.2338 -0.1030
 3571SOL    HW217572   0.078  10.899   4.557  0.3357 -0.4024  0.3473
 3572SOL     OW17573   5.475  10.580   9.028 -0.3953 -0.1435 -0.1793
 3572SOL    HW117574   5.386  10.610   9.012 -0.8506 -0.8070  0.9820
 3572SOL    HW217575   5.476  10.554   9.120  0.6369 -1.3221 -0.4811
 3573SOL     OW17576  12.038   5.072  11.722  0.5888 -0.7270 -0.7150
 3573SOL    HW117577  11.954   5.098  11.684 -0.8826 -0.3019  2.5252
 3573SOL    HW217578  12.017   4.996  11.776  2.4317 -0.9569 -0.2835
 3574SOL     OW17579  11.873  10.804   3.279  0.5232 -0.5517 -0.0377
 3574SOL    HW117580  11.896  10.731   3.337  3.3617  0.7054  0.6362
 3574SOL    HW217581  11.885  10.882   3.334  0.4777  0.5339 -1.5190
 3575SOL     OW17582   1.475  11.669   3.055 -0.5575  0.1380  0.1742
 3575SOL    HW117583   1.512  11.670   2.967 -1.2032 -0.5830 -0.1116
 3575SOL    HW217584   1.552  11.661   3.112 -0.1393  0.5368 -0.3147
 3576SOL     OW17585   8.123   7.292   7.897 -0.8400 -0.1637 -0.2831
 3576SOL    HW117586   8.118   7.384   7.923 -0.1162 -0.2657  0.2264
 3576SOL    HW217587   8.214   7.279   7.871 -1.1980 -0.4514 -1.4536
 3577SOL     OW17588  10.428   8.250   1.875 -0.1642 -0.6670 -0.1882
 3577SOL    HW117589  10.498   8.217   1.932 -0.0647 -0.7742 -0.3697
 3577SOL    HW217590  10.347   8.234   1.924 -0.1713 -1.7390 -0.5175
 3578SOL     OW17591   9.480   4.113   3.768 -0.3931  0.3952  0.1557
 3578SOL    HW117592   9.470   4.078   3.680  1.1667  0.3608 -0.0500
 3578SOL    HW217593   9.476   4.037   3.826 -2.5789  0.5357  0.2695
 3579SOL     OW17594   1.328   5.234  10.418  0.7796 -0.0308  0.3589
 3579SOL    HW117595   1.417   5.229  10.452  0.7291  0.2932  0.5442
 3579SOL    HW217596   1.282   5.289  10.481  0.2932 -0.6919  0.5930
 3580SOL     OW17597   3.189   8.174   2.776  0.3849  0.2397  0.2600
 3580SOL    HW117598   3.168   8.181   2.869  0.1476  1.5882  0.1230
 3580SOL    HW217599   3.187   8.264   2.744  0.6072 -0.1911 -1.0264
 3581SOL     OW17600   8.673   4.942   8.271 -0.3715 -0.0142  0.6222
 3581SOL    HW117601   8.710   4.866   8.225 -1.8400 -0.0263 -0.5937
 3581SOL    HW217602   8.629   4.905   8.347 -0.1464 -0.2538  0.6392
 3582SOL     OW17603  12.152   2.542   5.166  0.2822  0.0525 -0.5738
 3582SOL    HW117604  12.165   2.504   5.253 -1.3453  0.0592 -0.2797
 3582SOL    HW217605  12.127   2.633   5.183  1.8524  0.6245 -1.1654
 3583SOL     OW17606  10.391   4.341  12.000 -0.0624 -0.2603 -0.0752
 3583SOL    HW117607  10.344   4.357  11.919 -1.3202 -0.7931  0.5208
 3583SOL    HW217608  10.483   4.359  11.979 -0.4252  0.0512 -1.4754
 3584SOL     OW17609   7.174  10.982   7.670 -0.0325 -0.1164  0.4691
 3584SOL    HW117610   7.114  11.009   7.600 -0.8383  0.0076  1.1914
 3584SOL    HW217611   7.261  10.984   7.629 -0.5025 -0.1995 -0.5688
 3585SOL     OW17612   9.375   3.306   9.861 -0.2144  0.5767  0.0616
 3585SOL    HW117613   9.431   3.380   9.884  1.2665 -0.2248 -0.7733
 3585SOL    HW217614   9.437   3.236   9.838 -1.5752 -0.7460  0.3133
 3586SOL     OW17615   0.553  10.292   3.793  0.0485  0.0009 -0.1214
 3586SOL    HW117616   0.604  10.298   3.874  1.5446 -1.9235 -0.8268
 3586SOL    HW217617   0.597  10.353   3.733 -0.0833  0.2656  0.0515
 3587SOL     OW17618   8.382  11.266  12.082  0.1221 -0.0039 -0.5131
 3587SOL    HW117619   8.426  11.265  12.166  0.3872 -0.8008 -0.6553
 3587SOL    HW217620   8.432  11.206  12.027 -0.1446  0.3713 -1.1882
 3588SOL     OW17621  12.453   9.147   7.133 -0.1872 -0.1860 -0.0654
 3588SOL    HW117622  12.494   9.116   7.214 -1.2055 -0.1255  0.4970
 3588SOL    HW217623  12.373   9.094   7.125  0.8666 -1.5913 -2.1125
 3589SOL     OW17624   6.473   0.495   0.441 -0.0781  0.3078 -0.0871
 3589SOL    HW117625   6.389   0.479   0.397 -0.0534  0.8975 -0.3668
 3589SOL    HW217626   6.538   0.466   0.378 -0.0335  1.4177 -0.5871
 3590SOL     OW17627   0.009  11.513   3.909 -0.4934 -0.2271 -0.0234
 3590SOL    HW117628   0.092  11.502   3.861  0.1283 -0.6095  1.0984
 3590SOL    HW217629  -0.016  11.603   3.892  1.6065  0.7804  1.7993
 3591SOL     OW17630  11.742   6.624   5.700  0.1192 -0.0466 -0.9105
 3591SOL    HW117631  11.750   6.649   5.793 -0.3175  2.0481 -1.3910
 3591SOL    HW217632  11.682   6.549   5.700 -1.3950  1.1119  0.3544
 3592SOL     OW17633   8.251   5.889  10.595 -0.0649 -0.3400  0.2716
 3592SOL    HW117634   8.317   5.955  10.572  0.5683 -0.4263  1.7536
 3592SOL    HW217635   8.224   5.912  10.683  1.6738 -3.1921  1.7026
 3593SOL     OW17636  10.344   4.354   7.363  0.1021  0.3210 -0.0958
 3593SOL    HW117637  10.436   4.382   7.365  0.2823 -0.2167  1.4013
 3593SOL    HW217638  10.339   4.293   7.290  1.1392 -0.1705  0.2182
 3594SOL     OW17639  10.068   8.880   5.619 -0.1470 -0.1649 -0.0601
 3594SOL    HW117640  10.051   8.838   5.703  1.0619  0.9882  0.8136
 3594SOL    HW217641  10.158   8.856   5.597  0.3099  1.3082  0.0944
 3595SOL     OW17642   0.346   6.655   0.983  0.0302  0.0924  0.2956
 3595SOL    HW117643   0.386   6.654   1.070 -0.4765 -1.9965  0.5533
 3595SOL    HW217644   0.253   6.674   1.000 -0.0550 -0.2447  0.2182
 3596SOL     OW17645   1.788   7.083  11.582  0.0359 -0.4229  0.0652
 3596SOL    HW117646   1.695   7.069  11.600  0.0677 -0.1983  0.4007
 3596SOL    HW217647   1.792   7.167  11.537  0.0954 -0.3377  0.2272
 3597SOL     OW17648   1.815   9.215   9.355 -0.1662 -0.5203 -0.0203
 3597SOL    HW117649   1.883   9.216   9.289 -0.0896 -1.9466  0.0127
 3597SOL    HW217650   1.804   9.307   9.380  3.1737 -0.4051  1.4542
 3598SOL     OW17651   9.510   9.539   5.873 -0.3085  0.4609  0.3501
 3598SOL    HW117652   9.523   9.611   5.811 -0.5587  0.5663  0.4183
 3598SOL    HW217653   9.415   9.531   5.881 -0.4559 -2.0318 -2.1541
 3599SOL     OW17654   7.143   7.317   4.182  0.0896 -0.3187 -0.1388
 3599SOL    HW117655   7.221   7.313   4.127  0.7576 -1.6931  0.8541
 3599SOL    HW217656   7.170   7.363   4.261 -0.0184 -0.9905  0.3037
 3600SOL     OW17657   0.405   8.214   1.218 -0.0451 -0.1947  0.3170
 3600SOL    HW117658   0.406   8.178   1.129  0.1988  1.9051 -0.5834
 3600SOL    HW217659   0.495   8.202   1.249  0.4666  1.0889 -0.6127
 3601SOL     OW17660   9.171   5.774   0.578  0.0135 -0.3990 -0.3251
 3601SOL    HW117661   9.262   5.761   0.604 -0.0989 -1.9195 -0.6168
 3601SOL    HW217662   9.120   5.720   0.638 -0.5817 -0.6276 -1.0194
 3602SOL     OW17663   0.583   9.240   0.317  0.5007  0.4023 -0.0849
 3602SOL    HW117664   0.644   9.306   0.284 -0.2717  0.3465 -1.7057
 3602SOL    HW217665   0.497   9.283   0.311 -0.2289 -1.2333 -2.6953
 3603SOL     OW17666   9.737   6.184   2.790  0.0520  0.2015 -0.5909
 3603SOL    HW117667   9.695   6.125   2.727  2.4363 -1.5780 -0.6229
 3603SOL    HW217668   9.828   6.190   2.760  0.6412  1.3140  1.2848
 3604SOL     OW17669   4.706   3.808   2.281  0.5095 -0.4346 -0.2378
 3604SOL    HW117670   4.723   3.714   2.275  0.2062 -0.4464 -1.0521
 3604SOL    HW217671   4.628   3.822   2.227 -1.2688 -0.1597  2.1852
 3605SOL     OW17672   4.459   9.621   3.645 -0.2261 -0.0316  0.0699
 3605SOL    HW117673   4.478   9.709   3.677 -0.9557  0.4663 -0.8112
 3605SOL    HW217674   4.426   9.635   3.556  1.7119 -1.3413 -0.9314
 3606SOL     OW17675   2.547   4.826   5.904  0.2082 -0.2953 -0.5137
 3606SOL    HW117676   2.642   4.837   5.905 -0.0023  2.1306  0.8640
 3606SOL    HW217677   2.523   4.835   5.812  1.2478 -0.1572 -0.7882
 3607SOL     OW17678   6.697  11.333   9.821 -0.1281 -0.7388 -0.8323
 3607SOL    HW117679   6.638  11.377   9.761  0.1620  0.8252 -0.0060
 3607SOL    HW217680   6.749  11.274   9.765 -0.6141 -0.1383 -1.9352
 3608SOL     OW17681   7.331  12.076   1.942 -0.0826 -0.1729  0.0407
 3608SOL    HW117682   7.250  12.104   1.985 -0.1461  1.1516 -0.8770
 3608SOL    HW217683   7.302  12.029   1.864  0.0445 -1.1225  0.5493
 3609SOL     OW17684   1.923   0.976   6.552  0.3750 -0.1756  0.0026
 3609SOL    HW117685   1.899   1.039   6.619  1.2171 -1.4180  1.5416
 3609SOL    HW217686   1.959   1.028   6.480  1.0839  1.0883  1.2423
 3610SOL     OW17687   9.210   1.483   6.141 -0.1529  0.0042 -0.3705
 3610SOL    HW117688   9.167   1.435   6.212  0.6375 -1.0079 -0.5503
 3610SOL    HW217689   9.151   1.556   6.123 -0.7752 -0.1829  0.7643
 3611SOL     OW17690   1.857   1.442   7.471 -0.2507  0.7025  0.6115
 3611SOL    HW117691   1.920   1.377   7.437  0.1224 -0.0505  2.5840
 3611SOL    HW217692   1.911   1.517   7.496 -0.6852  1.8661 -1.6830
 3612SOL     OW17693   8.405   4.568   5.820 -0.5557  0.5695  0.2160
 3612SOL    HW117694   8.404   4.640   5.757 -0.1754  0.5697  0.2073
 3612SOL    HW217695   8.314   4.540   5.826 -0.7973  1.4243  0.6481
 3613SOL     OW17696   2.417  11.010  10.090 -0.3934 -0.0475  0.1816
 3613SOL    HW117697   2.497  10.972  10.126  1.2991  1.7675 -1.3844
 3613SOL    HW217698   2.394  10.952  10.017  0.6172  0.3824 -0.5137
 3614SOL     OW17699   0.976   3.091   1.792  0.0107 -0.1461  0.1024
 3614SOL    HW117700   0.921   3.118   1.718  1.3567  1.6411 -0.2854
 3614SOL    HW217701   0.985   3.169   1.846  0.1341 -1.0895  1.5037
 3615SOL     OW17702   7.657   9.649  12.424  0.3168 -0.2987  0.5632
 3615SOL    HW117703   7.752   9.646  12.410  0.1670 -2.7459 -0.3641
 3615SOL    HW217704   7.639   9.577  12.484 -0.8739  0.8678  1.6792
 3616SOL     OW17705   6.827   5.436   2.605 -0.4665 -0.0485 -0.4642
 3616SOL    HW117706   6.762   5.503   2.626  1.1098  1.6046 -0.6063
 3616SOL    HW217707   6.778   5.370   2.556 -2.1289  0.9018 -0.1517
 3617SOL     OW17708   0.669   5.174  10.832  0.3901  0.1268 -0.2450
 3617SOL    HW117709   0.705   5.106  10.774  3.5126  1.3681  0.0374
 3617SOL    HW217710   0.653   5.248  10.774  2.5244  1.0158  0.2135
 3618SOL     OW17711   3.564   8.190   2.907 -0.2767  0.3234  0.0900
 3618SOL    HW117712   3.647   8.226   2.876 -0.1514  0.1197  0.1926
 3618SOL    HW217713   3.553   8.108   2.859 -1.2039  1.1184 -1.1276
 3619SOL     OW17714   1.502   4.622   7.437  0.1844  0.6087 -0.3646
 3619SOL    HW117715   1.530   4.586   7.353 -0.6362 -2.5486  0.5923
 3619SOL    HW217716   1.407   4.610   7.438  0.0672  1.4380  0.6931
 3620SOL     OW17717   9.529   6.815  10.643 -0.2196  0.0862 -0.3329
 3620SOL    HW117718   9.490   6.763  10.713 -0.0924 -0.7080 -0.8276
 3620SOL    HW217719   9.582   6.752  10.594  0.8279  0.9192 -0.3071
 3621SOL     OW17720   8.528  11.922  11.040  0.4004 -0.8182  0.2708
 3621SOL    HW117721   8.592  11.918  11.112 -1.2126  0.6196  1.9037
 3621SOL    HW217722   8.578  11.957  10.966  1.4366  0.8000  1.6420
 3622SOL     OW17723   3.339   4.068   7.733 -0.9362 -0.2310 -0.0851
 3622SOL    HW117724   3.306   4.002   7.672  0.3720 -1.5945  0.6010
 3622SOL    HW217725   3.403   4.118   7.683 -0.2192 -1.0322  0.0147
 3623SOL     OW17726  11.161   2.168   9.207  0.0387  0.2245  0.0156
 3623SOL    HW117727  11.147   2.210   9.293 -1.3878 -0.4110  0.1253
 3623SOL    HW217728  11.073   2.154   9.173  0.5602 -0.5563 -1.0654
 3624SOL     OW17729   7.423  10.816  11.505 -0.0796 -0.7118 -0.7688
 3624SOL    HW117730   7.512  10.791  11.529  0.5272  0.1116 -2.0925
 3624SOL    HW217731   7.413  10.785  11.415 -0.5406  0.6496 -1.2021
 3625SOL     OW17732   5.046   1.579  10.035 -0.0366 -0.1757 -0.0220
 3625SOL    HW117733   5.043   1.487  10.061 -1.0981  0.2191  1.3991
 3625SOL    HW217734   5.137   1.605  10.049  0.2986 -1.0273 -0.5525
 3626SOL     OW17735   0.748   7.326   7.935 -0.1139 -0.2600 -0.0674
 3626SOL    HW117736   0.717   7.293   7.851  0.3803 -0.7285 -0.0662
 3626SOL    HW217737   0.675   7.379   7.968 -0.8743 -1.2489 -0.1222
 3627SOL     OW17738  12.125   5.451   6.012 -0.4702 -0.1407  0.9079
 3627SOL    HW117739  12.189   5.453   6.083  0.8989 -0.6806 -0.2621
 3627SOL    HW217740  12.151   5.377   5.958 -0.4920  1.1755 -1.0163
 3628SOL     OW17741   7.950   6.864  11.157  0.6715 -0.3445  0.2047
 3628SOL    HW117742   8.014   6.880  11.227  2.2166 -1.0520 -0.9660
 3628SOL    HW217743   7.911   6.780  11.179  2.2178 -1.2803 -0.5018
 3629SOL     OW17744   4.003   2.703   0.999  0.2054  0.4614  0.1902
 3629SOL    HW117745   3.961   2.653   0.929 -0.9710  0.4711  0.8635
 3629SOL    HW217746   3.949   2.782   1.008  0.2499  0.3920  1.1979
 3630SOL     OW17747  11.230  11.891   3.508  0.2662  0.0750  0.1493
 3630SOL    HW117748  11.186  11.843   3.577 -0.5944 -0.1729 -0.5515
 3630SOL    HW217749  11.287  11.826   3.466  1.3628  0.4030  1.0745
 3631SOL     OW17750   4.826   1.330   3.846 -0.2629 -0.0219 -0.6618
 3631SOL    HW117751   4.854   1.379   3.923 -1.6972 -1.4750  0.8632
 3631SOL    HW217752   4.877   1.367   3.774  3.4688 -0.6488  1.4297
 3632SOL     OW17753  11.254   0.758   2.464  0.0946  0.2507 -0.1475
 3632SOL    HW117754  11.327   0.755   2.527  1.8300  0.2777 -2.0621
 3632SOL    HW217755  11.294   0.735   2.380 -2.5432 -1.9129 -0.9622
 3633SOL     OW17756   0.377   3.254   6.086  0.2641 -1.0140 -0.4095
 3633SOL    HW117757   0.371   3.158   6.081 -1.3194 -1.0328  0.9465
 3633SOL    HW217758   0.293   3.285   6.052  0.5481 -0.1263 -0.3215
 3634SOL     OW17759   6.874   0.177   0.392 -0.4031 -0.0987 -0.4125
 3634SOL    HW117760   6.783   0.152   0.402  0.1172 -1.3982  1.6557
 3634SOL    HW217761   6.917   0.098   0.360  0.2495  0.0254  0.1364
 3635SOL     OW17762   7.196  10.974   9.238  0.0361 -0.2586  0.0762
 3635SOL    HW117763   7.113  10.933   9.261  0.1238  0.0718  1.0101
 3635SOL    HW217764   7.239  10.990   9.322  0.6371  0.4155 -0.3509
 3636SOL     OW17765   4.093   2.529  11.396 -0.0118 -0.5822 -0.3446
 3636SOL    HW117766   4.152   2.480  11.452 -0.5801  0.6235  1.3725
 3636SOL    HW217767   4.017   2.472  11.385  0.6591 -1.3638 -1.0096
 3637SOL     OW17768   9.986   5.249   2.075 -0.3457 -0.8122 -0.1438
 3637SOL    HW117769   9.895   5.220   2.077 -0.7441  0.3292 -0.9597
 3637SOL    HW217770   9.983   5.339   2.107  0.8838 -1.5952  2.5019
 3638SOL     OW17771   1.194   4.669   3.574  0.5099  0.6405  0.0007
 3638SOL    HW117772   1.163   4.579   3.583 -0.8603  1.1343  0.5057
 3638SOL    HW217773   1.288   4.663   3.587  0.4516 -0.7156  0.0079
 3639SOL     OW17774   0.255   9.009   7.378  0.5710 -0.3121  0.3674
 3639SOL    HW117775   0.322   8.948   7.349  1.1662  1.1793 -1.6226
 3639SOL    HW217776   0.303   9.089   7.400 -0.5373  1.5030 -3.0428
 3640SOL     OW17777   9.479   1.422   7.308 -0.1380 -0.1580 -0.2333
 3640SOL    HW117778   9.452   1.512   7.288 -2.1524 -0.5653  0.4086
 3640SOL    HW217779   9.516   1.389   7.227 -0.7963  0.7739 -0.9347
 3641SOL     OW17780   8.558   4.933   7.203 -0.7052 -0.4705  0.1500
 3641SOL    HW117781   8.477   4.978   7.179 -0.9465 -0.1729  1.4713
 3641SOL    HW217782   8.554   4.924   7.298  1.0913  0.0855  0.3208
 3642SOL     OW17783  11.198   5.426   3.436  0.0533 -0.1510  0.2130
 3642SOL    HW117784  11.103   5.429   3.444  0.1199  0.7870  0.7737
 3642SOL    HW217785  11.223   5.514   3.407  0.8101 -0.1282  0.8913
 3643SOL     OW17786   6.811   4.374   9.419  0.3407 -0.3496  0.0394
 3643SOL    HW117787   6.760   4.340   9.345  1.1885 -0.6603 -0.4188
 3643SOL    HW217788   6.862   4.299   9.449  0.6660 -0.0020  0.3699
 3644SOL     OW17789   3.551   8.206  10.235 -0.2802 -0.7031 -0.2413
 3644SOL    HW117790   3.598   8.281  10.200  0.7425 -1.9358 -1.6769
 3644SOL    HW217791   3.492   8.242  10.301  0.3607  1.2974 -0.7057
 3645SOL     OW17792   0.529   4.889   9.303  0.3673  0.0052  0.4541
 3645SOL    HW117793   0.566   4.864   9.387  0.4948 -0.6653  0.1996
 3645SOL    HW217794   0.444   4.846   9.300 -0.8947  2.2751  1.4375
 3646SOL     OW17795   4.266   7.985  10.316 -0.7480 -0.2881 -0.3503
 3646SOL    HW117796   4.329   8.015  10.381  0.3021 -3.1135  0.0961
 3646SOL    HW217797   4.181   7.987  10.361 -0.5985  1.1001 -0.1000
 3647SOL     OW17798   1.692   2.371  11.345 -0.1621  0.4230 -0.0784
 3647SOL    HW117799   1.608   2.377  11.299 -0.0514  2.9626 -0.1248
 3647SOL    HW217800   1.746   2.437  11.302  1.6289 -0.6379  0.4616
 3648SOL     OW17801   9.991  10.653   2.777  0.2330 -0.3579 -0.7179
 3648SOL    HW117802   9.919  10.687   2.830 -0.8710 -0.9709 -1.7792
 3648SOL    HW217803   9.949  10.624   2.696  1.4055 -2.4464 -0.6244
 3649SOL     OW17804   0.100   7.977   6.475 -0.0967  0.0643  0.0404
 3649SOL    HW117805   0.063   8.059   6.441 -0.1849  0.6884  1.5860
 3649SOL    HW217806   0.195   7.991   6.472 -0.0844 -0.1081 -0.4695
 3650SOL     OW17807   3.747   6.769   8.609  0.2216 -0.5454  0.1112
 3650SOL    HW117808   3.713   6.788   8.521 -0.3620  0.4816  0.5543
 3650SOL    HW217809   3.837   6.740   8.593 -0.0886 -1.0250 -0.8782
 3651SOL     OW17810   7.185   9.260  10.164 -0.1158 -0.0220  0.0370
 3651SOL    HW117811   7.268   9.279  10.209 -0.4810 -0.6824  1.0323
 3651SOL    HW217812   7.157   9.177  10.201 -0.7925 -0.2402 -0.9422
 3652SOL     OW17813   6.272   4.930   2.706  0.3171 -0.0426 -0.3553
 3652SOL    HW117814   6.356   4.937   2.753  0.7896 -0.9307 -1.0438
 3652SOL    HW217815   6.264   4.838   2.684 -1.2330 -0.0975  0.3599
 3653SOL     OW17816   9.285  11.733   8.266  0.7163 -0.9746 -0.3519
 3653SOL    HW117817   9.308  11.676   8.339  0.0385 -0.8473 -0.0309
 3653SOL    HW217818   9.349  11.804   8.270  0.4758 -0.7855  0.3351
 3654SOL     OW17819  11.461   2.304   7.770  0.1945 -0.2357 -0.1429
 3654SOL    HW117820  11.431   2.259   7.849 -0.2192 -0.8606 -0.6473
 3654SOL    HW217821  11.525   2.368   7.801  0.9595 -1.3228  0.5573
 3655SOL     OW17822  10.208   6.472  11.399 -0.6011  0.4362  0.2936
 3655SOL    HW117823  10.236   6.552  11.356  1.3493 -0.4923 -0.2658
 3655SOL    HW217824  10.152   6.428  11.335 -0.4485  0.6457  0.0190
 3656SOL     OW17825   7.044   5.256  12.238 -0.3050  0.2547  0.0225
 3656SOL    HW117826   6.991   5.314  12.183 -2.0060  1.5702  2.8218
 3656SOL    HW217827   6.989   5.179  12.252 -0.4147  0.4770  0.8494
 3657SOL     OW17828   3.099   0.747   9.939  0.0333 -0.0679 -0.4501
 3657SOL    HW117829   3.175   0.768   9.885  0.5335 -1.0406 -0.1360
 3657SOL    HW217830   3.133   0.745  10.028 -0.5202  0.2239 -0.2244
 3658SOL     OW17831   1.163   9.428   9.596 -0.5585 -0.3894  0.2166
 3658SOL    HW117832   1.110   9.389   9.665  0.6192  0.0301  1.4005
 3658SOL    HW217833   1.164   9.362   9.526  0.1794 -1.8692  1.5742
 3659SOL     OW17834   2.217   1.410   3.133  0.1712 -0.4163 -0.0618
 3659SOL    HW117835   2.153   1.481   3.123  2.0712  1.4193  0.1621
 3659SOL    HW217836   2.193   1.368   3.216 -0.3251  0.6804  0.3719
 3660SOL     OW17837   4.066   4.888  10.470 -0.3497  0.4651  0.4708
 3660SOL    HW117838   4.108   4.928  10.547  1.3160 -0.7705  0.2608
 3660SOL    HW217839   4.138   4.876  10.408 -1.3303 -0.3038 -0.5445
 3661SOL     OW17840  11.219   8.125   8.241  0.4614 -0.3084 -0.6313
 3661SOL    HW117841  11.207   8.210   8.283  0.3755 -0.4428 -0.3802
 3661SOL    HW217842  11.234   8.145   8.149  1.2015  0.0225 -0.4481
 3662SOL     OW17843  12.301  10.552   4.662 -0.1673  0.6394 -0.0727
 3662SOL    HW117844  12.240  10.483   4.633  1.1587 -0.9176  0.6689
 3662SOL    HW217845  12.267  10.632   4.622 -1.4260 -0.5335 -1.5019
 3663SOL     OW17846   4.737  12.530   8.377  0.0982 -0.0165  0.1521
 3663SOL    HW117847   4.804  12.502   8.315  0.6326 -0.8295  1.0707
 3663SOL    HW217848   4.762  12.619   8.401  0.8479 -0.2975  0.4571
 3664SOL     OW17849   7.214   2.965  12.556  0.2051 -0.5645  0.9537
 3664SOL    HW117850   7.297   3.008  12.578  1.1284 -1.4006 -0.6840
 3664SOL    HW217851   7.155   3.037  12.533  1.2522 -0.0320 -0.2248
 3665SOL     OW17852  11.420  11.397   0.029  0.0480 -0.1911  0.1546
 3665SOL    HW117853  11.404  11.482  -0.012  1.8640  0.2854  0.3129
 3665SOL    HW217854  11.404  11.413   0.122  1.7038  0.4159  0.3803
 3666SOL     OW17855   4.031  10.254   1.761  0.0915  0.1898  0.1965
 3666SOL    HW117856   4.079  10.311   1.820  2.0493 -0.6676 -0.4993
 3666SOL    HW217857   3.999  10.312   1.692  2.9666  0.3918 -1.0810
 3667SOL     OW17858   2.876   1.208  10.012  0.0904 -0.6747 -0.4626
 3667SOL    HW117859   2.928   1.142   9.966 -1.3561 -1.6112 -0.8275
 3667SOL    HW217860   2.789   1.202   9.973 -1.2038 -1.4481  2.2638
 3668SOL     OW17861   8.988   5.341   6.169 -0.4731 -0.1926  0.4618
 3668SOL    HW117862   9.082   5.357   6.181 -0.3585  2.9282 -2.8190
 3668SOL    HW217863   8.950   5.354   6.255  1.9350  0.0333  1.5682
 3669SOL     OW17864  10.149   2.734   5.019 -0.4362  0.3147 -0.1790
 3669SOL    HW117865  10.174   2.728   4.927 -0.4900 -1.5968 -0.0913
 3669SOL    HW217866  10.068   2.785   5.019 -0.9311 -0.4557 -1.2860
 3670SOL     OW17867   2.019   2.354   7.302 -0.2943 -0.1225 -0.5380
 3670SOL    HW117868   2.101   2.338   7.348 -0.9595  1.4815  1.3695
 3670SOL    HW217869   2.044   2.358   7.210  1.6659 -0.2895 -0.0704
 3671SOL     OW17870   3.521   5.974   8.062  0.0697 -0.4402  0.1090
 3671SOL    HW117871   3.552   5.887   8.036 -0.9208 -1.1213  1.1376
 3671SOL    HW217872   3.551   6.031   7.992 -0.4772 -1.8293 -1.3199
 3672SOL     OW17873   4.933  12.398  10.771 -0.0505  0.2278 -0.2683
 3672SOL    HW117874   4.858  12.340  10.786 -0.1728  0.6164  0.7111
 3672SOL    HW217875   4.953  12.435  10.857 -0.2128  1.9350 -0.9096
 3673SOL     OW17876   3.900   5.729   2.979 -0.0837  0.3748  0.3843
 3673SOL    HW117877   3.986   5.716   2.941  0.4840  1.1315  1.3473
 3673SOL    HW217878   3.882   5.822   2.965 -0.5975  0.2908  0.4787
 3674SOL     OW17879  11.078   6.289  11.794 -0.2109 -0.3260 -0.2995
 3674SOL    HW117880  11.086   6.197  11.771 -0.8051 -0.4184 -0.1398
 3674SOL    HW217881  10.994   6.296  11.839 -1.1504  0.6269 -2.0818
 3675SOL     OW17882   9.836   8.532  11.717  0.3742  0.5885  0.8551
 3675SOL    HW117883   9.890   8.527  11.796  0.9930  0.4942  0.4312
 3675SOL    HW217884   9.899   8.540  11.645 -0.1852  0.7921  0.3770
 3676SOL     OW17885  10.184   6.317   4.906 -0.2683  0.4330  0.2486
 3676SOL    HW117886  10.169   6.411   4.915 -0.1531  0.4039  0.7603
 3676SOL    HW217887  10.279   6.309   4.893 -0.2184  0.3639  0.6216
 3677SOL     OW17888   0.050   3.954   4.291 -0.0961  0.0901 -0.3684
 3677SOL    HW117889   0.036   3.973   4.383 -2.1723  0.0141 -0.6377
 3677SOL    HW217890   0.097   3.870   4.291  1.0893  0.7122  0.6043
 3678SOL     OW17891   5.141   4.368   8.584 -0.2000  0.2301 -0.7386
 3678SOL    HW117892   5.049   4.392   8.596 -0.1841  0.0881 -0.3398
 3678SOL    HW217893   5.189   4.446   8.610 -0.0599 -0.7687  2.3757
 3679SOL     OW17894   0.571   4.628   2.297 -0.0428 -0.2329 -0.6819
 3679SOL    HW117895   0.654   4.599   2.333  0.2057  1.1064 -0.1323
 3679SOL    HW217896   0.591   4.709   2.250 -0.6269 -1.1233 -2.5881
 3680SOL     OW17897   5.657   7.914  11.052 -0.2437 -0.5709 -0.3960
 3680SOL    HW117898   5.566   7.937  11.068  0.4843  1.4136  1.3788
 3680SOL    HW217899   5.704   7.997  11.055  1.8703 -1.7174  0.5654
 3681SOL     OW17900   3.968   1.267  10.712 -0.1939 -0.3842  0.5712
 3681SOL    HW117901   4.027   1.199  10.744 -0.2171 -0.3893  0.6030
 3681SOL    HW217902   3.881   1.229  10.722 -0.2229 -0.2515  0.8229
 3682SOL     OW17903   0.305   2.944   1.920 -0.1412  0.1633 -0.1753
 3682SOL    HW117904   0.382   2.994   1.893 -1.0883  1.6998 -0.1539
 3682SOL    HW217905   0.305   2.951   2.016  0.3594 -0.8994 -0.0828
 3683SOL     OW17906   0.287  11.682   9.084  0.3818  0.3174 -0.1605
 3683SOL    HW117907   0.309  11.642   9.000 -0.3391  1.3957 -0.8875
 3683SOL    HW217908   0.285  11.776   9.066  2.7117  0.8059  1.6479
 3684SOL     OW17909   3.948   1.074  11.474 -0.1944  0.5856  0.0546
 3684SOL    HW117910   3.954   1.164  11.506  2.1368  0.5266 -0.0319
 3684SOL    HW217911   3.999   1.074  11.393 -0.7376 -0.6716 -0.3166
 3685SOL     OW17912  10.797   8.634   7.524  0.8241 -0.5391 -0.5420
 3685SOL    HW117913  10.782   8.726   7.499 -0.6144 -0.3508  0.8339
 3685SOL    HW217914  10.786   8.634   7.619 -0.5486 -2.3741 -0.6667
 3686SOL     OW17915   6.183   0.305   3.003 -0.4013 -0.3765 -0.2376
 3686SOL    HW117916   6.235   0.291   3.083  2.2429  0.8737 -1.6046
 3686SOL    HW217917   6.122   0.231   3.001  0.1841 -1.0446  2.3402
 3687SOL     OW17918   4.152  11.992   6.108 -0.6202 -0.4648 -0.3480
 3687SOL    HW117919   4.139  12.045   6.029 -0.2919  0.8343  0.4426
 3687SOL    HW217920   4.247  11.977   6.111 -0.6228 -0.4433 -0.1569
 3688SOL     OW17921  12.257  10.679   1.086 -0.0834 -0.1252 -0.5149
 3688SOL    HW117922  12.293  10.696   1.173  0.9464 -1.0799 -0.7415
 3688SOL    HW217923  12.168  10.649   1.102 -0.5904  1.5492  0.0895
 3689SOL     OW17924  10.951  11.297  11.305  0.3422 -0.8799 -0.0597
 3689SOL    HW117925  10.987  11.285  11.217  1.1435 -1.6753  0.3646
 3689SOL    HW217926  10.889  11.225  11.316 -1.4409  0.4718 -0.7810
 3690SOL     OW17927  12.001   5.127   3.957  0.2563 -0.4302 -0.1100
 3690SOL    HW117928  12.004   5.032   3.964 -0.5571 -0.5203 -0.8396
 3690SOL    HW217929  12.038   5.146   3.871  2.9081  0.1261  1.0452
 3691SOL     OW17930   2.773   9.956   1.345 -0.0325 -0.0187 -0.0874
 3691SOL    HW117931   2.845   9.927   1.401  1.3499  2.4503 -0.4299
 3691SOL    HW217932   2.816   9.993   1.268 -1.5198  2.7968  0.2982
 3692SOL     OW17933   4.448   6.590  11.882  0.1855  0.4250  0.2030
 3692SOL    HW117934   4.378   6.627  11.936 -0.7263 -1.6376  0.5367
 3692SOL    HW217935   4.404   6.565  11.800  0.7174 -0.0809  0.0629
 3693SOL     OW17936   0.417   4.636   6.963  0.4150  0.1958  0.1070
 3693SOL    HW117937   0.377   4.669   7.043  0.4100 -0.1316  0.2452
 3693SOL    HW217938   0.387   4.694   6.894  0.6214  0.6327  0.3826
 3694SOL     OW17939   3.873   4.512   9.852  0.5672  0.2451 -0.3987
 3694SOL    HW117940   3.876   4.462   9.771 -1.6746 -0.1270 -0.3296
 3694SOL    HW217941   3.908   4.453   9.919  1.4133  0.1620 -0.9087
 3695SOL     OW17942   9.038   6.802   6.194  0.6715  0.2799 -0.3557
 3695SOL    HW117943   9.127   6.833   6.175  0.5632  0.6262 -0.2913
 3695SOL    HW217944   9.038   6.711   6.163  1.4839 -0.1879  0.8955
 3696SOL     OW17945   3.106   0.556   5.954 -0.1811  0.0713  0.2787
 3696SOL    HW117946   3.073   0.615   6.023  2.0203  1.3358  0.3343
 3696SOL    HW217947   3.126   0.614   5.881 -0.0397 -0.9270 -0.4859
 3697SOL     OW17948   3.553   4.125  10.969 -0.8592  0.0960  0.1799
 3697SOL    HW117949   3.607   4.060  10.924  0.0955  0.7024  0.4350
 3697SOL    HW217950   3.463   4.100  10.947 -0.4458 -0.2128 -1.2490
 3698SOL     OW17951   4.417   0.885  10.249  0.3551  0.3563 -0.4211
 3698SOL    HW117952   4.376   0.906  10.333  1.1736 -0.3115  0.1687
 3698SOL    HW217953   4.362   0.927  10.183 -1.2365 -0.4709  0.3379
 3699SOL     OW17954  10.728   8.055   3.440 -0.2420  0.7206 -0.3187
 3699SOL    HW117955  10.701   7.967   3.412  2.1324  0.5219 -2.2985
 3699SOL    HW217956  10.710   8.110   3.365 -1.4991  1.9581  0.8335
 3700SOL     OW17957   2.001   7.809   2.549  0.0220 -0.0264  0.6263
 3700SOL    HW117958   2.093   7.810   2.522 -0.4498  0.8708 -1.0941
 3700SOL    HW217959   1.973   7.718   2.533 -0.1272  0.3654 -1.7335
 3701SOL     OW17960   7.738   5.245   6.706 -0.4320 -0.0828 -0.1600
 3701SOL    HW117961   7.673   5.287   6.762 -1.3824 -0.6288 -0.8153
 3701SOL    HW217962   7.720   5.280   6.619  1.0743  0.8127 -0.1462
 3702SOL     OW17963   7.153  12.240   1.309  0.7821  0.0047  0.3538
 3702SOL    HW117964   7.207  12.253   1.232  0.1073 -0.3635 -0.1921
 3702SOL    HW217965   7.143  12.327   1.347  2.1377  0.0149  0.7409
 3703SOL     OW17966   4.538   8.388   2.042 -0.5160  0.1075 -0.2314
 3703SOL    HW117967   4.554   8.421   1.954 -0.3565  0.5600 -0.0313
 3703SOL    HW217968   4.519   8.295   2.029  1.5622 -0.3133 -0.5536
 3704SOL     OW17969  10.163   7.852   5.968  0.6492 -0.2779  0.0283
 3704SOL    HW117970  10.204   7.772   5.937  0.3530 -0.5757  0.3892
 3704SOL    HW217971  10.096   7.822   6.030  0.8035  0.2705  0.4648
 3705SOL     OW17972   3.728   4.732   1.495  0.1366  0.1923 -0.0523
 3705SOL    HW117973   3.712   4.654   1.548  1.8533  0.1586  0.4822
 3705SOL    HW217974   3.820   4.753   1.511  0.4055  0.8246 -2.1975
 3706SOL     OW17975  10.083  10.298   2.648 -0.0419  0.2843 -0.0166
 3706SOL    HW117976  10.111  10.325   2.736 -0.1740  0.3187  0.0152
 3706SOL    HW217977   9.993  10.269   2.660  0.6490 -1.9113  0.3076
 3707SOL     OW17978   4.917   4.404   0.142 -0.1481  0.1594  0.5372
 3707SOL    HW117979   4.864   4.378   0.067  0.4342 -1.0328  0.5062
 3707SOL    HW217980   4.856   4.409   0.215 -0.6482  0.9200  0.0741
 3708SOL     OW17981   9.066   9.624   4.164  0.0202 -0.4913  0.0829
 3708SOL    HW117982   9.108   9.564   4.102  0.1785 -1.3053  0.9532
 3708SOL    HW217983   9.135   9.686   4.187  0.0632 -0.4029 -0.2715
 3709SOL     OW17984   9.716   6.499  10.111 -0.7214  0.4071  0.1559
 3709SOL    HW117985   9.687   6.589  10.098  0.1774  0.5788 -0.8140
 3709SOL    HW217986   9.768   6.502  10.192 -0.1333  0.9120 -0.2324
 3710SOL     OW17987   4.469   6.931   6.282  0.0948  0.2789  0.1168
 3710SOL    HW117988   4.464   6.847   6.236 -1.5174  0.6290 -0.3819
 3710SOL    HW217989   4.499   6.993   6.216 -1.4475  0.6251 -0.2874
 3711SOL     OW17990   0.817   4.976   4.536 -0.7900 -0.7474  0.5730
 3711SOL    HW117991   0.854   4.948   4.619  0.1655 -3.1292 -0.5657
 3711SOL    HW217992   0.722   4.971   4.548 -0.6794 -0.1949  1.7602
 3712SOL     OW17993   1.901   9.438   1.477  0.0096  0.0049 -0.3079
 3712SOL    HW117994   1.877   9.408   1.565 -1.3939  1.6969 -0.0478
 3712SOL    HW217995   1.827   9.413   1.422  0.7545 -0.7854 -0.9634
 3713SOL     OW17996   1.517   6.762   9.934  0.5575  0.0057 -0.6875
 3713SOL    HW117997   1.479   6.771   9.847 -0.8737 -0.0864 -0.1069
 3713SOL    HW217998   1.547   6.850   9.957  0.0900  0.2292 -0.9144
 3714SOL     OW17999   7.033   3.735  10.876 -0.3799  0.3168 -0.1340
 3714SOL    HW118000   7.020   3.641  10.863 -0.3648  0.5368 -2.0605
 3714SOL    HW218001   6.958   3.763  10.929 -0.7142 -0.6801 -0.0756
 3715SOL     OW18002   5.921   6.209   2.424 -0.0153  0.7157  0.5408
 3715SOL    HW118003   5.992   6.189   2.364  0.7376  3.0400  0.5822
 3715SOL    HW218004   5.846   6.160   2.390  1.1044 -0.2394 -0.6230
 3716SOL     OW18005   5.314   4.409   0.757  0.0412  0.0108 -0.5394
 3716SOL    HW118006   5.248   4.408   0.826  0.0757 -2.1866 -0.4724
 3716SOL    HW218007   5.337   4.502   0.748 -1.2907  0.5665  1.0911
 3717SOL     OW18008   8.732   7.620   4.635  0.0087  0.0753  0.1336
 3717SOL    HW118009   8.716   7.713   4.618 -0.5188 -0.3100 -1.8069
 3717SOL    HW218010   8.660   7.592   4.690 -0.4060  0.5965 -0.1402
 3718SOL     OW18011   0.598   8.978   3.176  0.1283 -0.0642 -0.3280
 3718SOL    HW118012   0.556   8.955   3.093  0.0055  1.8729 -0.8403
 3718SOL    HW218013   0.688   8.945   3.167  0.2461  0.5079 -1.4274
 3719SOL     OW18014   5.567   7.633  11.931  0.5107  0.4068 -0.0897
 3719SOL    HW118015   5.504   7.698  11.898  1.3582  1.0750 -0.4556
 3719SOL    HW218016   5.625   7.617  11.856  2.0483  1.4142  0.8228
 3720SOL     OW18017   3.525   9.606   6.610 -0.0709 -0.1909  0.0097
 3720SOL    HW118018   3.592   9.670   6.588 -0.4959  0.5917  0.9135
 3720SOL    HW218019   3.465   9.653   6.669  0.1729 -1.7048  1.5354
 3721SOL     OW18020  10.137  11.228   9.815  0.5758  0.9576 -0.1959
 3721SOL    HW118021  10.066  11.245   9.754  1.1371  0.8614 -0.8934
 3721SOL    HW218022  10.109  11.152   9.865 -0.0478  1.2591 -0.0849
 3722SOL     OW18023   1.424   8.052   1.921  0.4926  0.3696  0.3200
 3722SOL    HW118024   1.364   8.069   1.849 -1.6508 -1.7223  1.4694
 3722SOL    HW218025   1.493   7.997   1.882  0.2321  0.5754 -0.4545
 3723SOL     OW18026   3.424   3.079   5.562 -0.4517 -0.1035  0.1725
 3723SOL    HW118027   3.467   3.161   5.539  0.6330 -0.7464 -0.1570
 3723SOL    HW218028   3.332   3.103   5.572 -0.0264  1.3287  0.9869
 3724SOL     OW18029  11.267   0.442   2.648 -0.2118  0.3014  0.2321
 3724SOL    HW118030  11.286   0.528   2.687  1.0767 -0.7977  2.1751
 3724SOL    HW218031  11.242   0.387   2.722  2.5064 -1.9493 -0.3496
 3725SOL     OW18032   8.040   0.598  11.176 -0.3476  0.5779  0.1810
 3725SOL    HW118033   8.018   0.510  11.205 -0.0621 -0.3656 -2.2216
 3725SOL    HW218034   8.134   0.607  11.191 -0.1607  0.0184 -0.6210
 3726SOL     OW18035  11.647  11.503   0.989  0.3294 -0.1105  0.0227
 3726SOL    HW118036  11.684  11.471   0.907  0.0813  2.7335 -1.3133
 3726SOL    HW218037  11.555  11.477   0.986  0.0589  0.8891 -1.1750
 3727SOL     OW18038   9.193  10.255   6.792  0.3922  0.1625 -0.1694
 3727SOL    HW118039   9.135  10.218   6.726 -0.8133  1.5112  0.0665
 3727SOL    HW218040   9.230  10.333   6.750  0.9927  0.0548  0.1498
 3728SOL     OW18041   2.472   3.882   7.666  0.0135  0.0940 -0.1271
 3728SOL    HW118042   2.504   3.922   7.747 -1.5304  1.0370  0.0489
 3728SOL    HW218043   2.402   3.823   7.694  0.4971 -0.7512 -0.6514
 3729SOL     OW18044   1.507   7.120  11.322 -0.0707 -0.1627  0.0928
 3729SOL    HW118045   1.578   7.056  11.314 -0.3384 -0.4526 -0.0272
 3729SOL    HW218046   1.505   7.143  11.415 -0.3297 -0.7553  0.2413
 3730SOL     OW18047   4.913  10.204   3.152  0.2650 -0.3215 -0.7157
 3730SOL    HW118048   4.978  10.157   3.101  0.1401  0.5381 -1.7234
 3730SOL    HW218049   4.943  10.198   3.242  0.0317 -2.6338 -0.7349
 3731SOL     OW18050   7.442   2.811   9.057 -0.2153  0.5398  0.5586
 3731SOL    HW118051   7.382   2.739   9.079  1.5877 -1.2717 -0.0791
 3731SOL    HW218052   7.450   2.808   8.962 -0.4928  1.9424  0.4720
 3732SOL     OW18053   6.890   7.428   4.102 -0.2032 -0.0025 -0.1272
 3732SOL    HW118054   6.979   7.405   4.127  0.1193  1.3914  0.0904
 3732SOL    HW218055   6.888   7.524   4.103 -1.3218  0.0326 -1.4619
 3733SOL     OW18056   2.878   1.868   8.807  0.0402 -0.0709  0.2076
 3733SOL    HW118057   2.955   1.820   8.779  0.2535 -0.3627  1.2469
 3733SOL    HW218058   2.805   1.824   8.763  0.2369 -1.3464  1.0986
 3734SOL     OW18059   4.741   3.186   7.216 -0.0754 -0.7230  0.3635
 3734SOL    HW118060   4.833   3.170   7.237 -0.1038 -2.4008 -0.6298
 3734SOL    HW218061   4.717   3.115   7.157 -1.4657  0.7886 -1.0197
 3735SOL     OW18062   9.164   6.036   4.217  0.4053 -0.8458  0.4535
 3735SOL    HW118063   9.257   6.056   4.219  0.8252 -1.6086 -3.2368
 3735SOL    HW218064   9.121   6.120   4.233  1.8135  0.0890 -0.4558
 3736SOL     OW18065   7.594   2.216   2.117 -0.0364 -0.1874 -0.0312
 3736SOL    HW118066   7.665   2.205   2.053  0.5044  2.2100  0.0463
 3736SOL    HW218067   7.581   2.129   2.154  2.9128 -0.7156 -0.0257
 3737SOL     OW18068   3.127   9.760   8.866  0.1454  0.6965  0.1317
 3737SOL    HW118069   3.056   9.705   8.834  0.5783  0.2667 -0.1025
 3737SOL    HW218070   3.176   9.703   8.925  0.4871  0.8919  0.0385
 3738SOL     OW18071   2.806  11.891   5.644 -0.5856 -0.3380  0.0822
 3738SOL    HW118072   2.877  11.893   5.709 -0.5090  1.3015 -0.0269
 3738SOL    HW218073   2.737  11.841   5.687  0.3188 -1.2728  0.5106
 3739SOL     OW18074   9.095   4.913   3.238 -0.7123  0.8984  0.1769
 3739SOL    HW118075   9.189   4.900   3.223 -0.6090 -0.3592  1.5940
 3739SOL    HW218076   9.054   4.895   3.154  0.1505 -0.9272  0.1030
 3740SOL     OW18077   8.360  11.950   1.556 -0.4962 -0.3832 -0.0574
 3740SOL    HW118078   8.291  11.996   1.603  0.5156 -0.9412  2.1561
 3740SOL    HW218079   8.320  11.868   1.529 -0.9336 -0.3684  0.5173
 3741SOL     OW18080  10.536   7.467   0.670  0.5135 -0.0064 -0.2894
 3741SOL    HW118081  10.610   7.528   0.672  0.8277 -0.3956  0.2257
 3741SOL    HW218082  10.508   7.466   0.578  0.4212  1.0050 -0.2805
 3742SOL     OW18083   5.399   8.041   7.384 -0.1556 -0.9131  0.4528
 3742SOL    HW118084   5.479   8.049   7.436 -1.1373  0.2199  1.8582
 3742SOL    HW218085   5.343   8.112   7.414 -1.4691 -1.2986 -0.9396
 3743SOL     OW18086  10.870   8.635   5.506 -0.8697 -0.2662  0.2780
 3743SOL    HW118087  10.960   8.612   5.527 -0.3213  1.0460 -0.4826
 3743SOL    HW218088  10.875   8.673   5.418 -2.3475 -1.2135 -0.2440
 3744SOL     OW18089   5.432   9.262   9.249  0.3294 -0.5412 -0.0142
 3744SOL    HW118090   5.479   9.327   9.302 -2.8267  1.3991  0.6566
 3744SOL    HW218091   5.421   9.304   9.164  0.5407 -1.3292 -0.4370
 3745SOL     OW18092   2.878  10.594   4.287  0.0107 -0.3669 -0.4432
 3745SOL    HW118093   2.794  10.609   4.329 -0.6797 -1.1508 -1.4886
 3745SOL    HW218094   2.884  10.499   4.278  0.4065 -0.2534 -1.5370
 3746SOL     OW18095   6.950  10.339  10.974 -0.5592 -0.2358  0.2151
 3746SOL    HW118096   7.003  10.305  11.046 -2.2045  0.3517  1.7829
 3746SOL    HW218097   6.996  10.418  10.946  0.1468 -0.5102  0.5652
 3747SOL     OW18098  12.225   3.268   6.862 -0.0055  0.2722 -0.0239
 3747SOL    HW118099  12.310   3.227   6.875  0.5068  1.5840  0.9684
 3747SOL    HW218100  12.242   3.342   6.804 -1.0365 -1.1771 -2.3635
 3748SOL     OW18101  12.387   2.166   7.227  0.2981  0.1694  0.1748
 3748SOL    HW118102  12.370   2.256   7.197  0.8489  0.1105 -0.3326
 3748SOL    HW218103  12.461   2.175   7.287  2.7986 -0.3360 -2.6100
 3749SOL     OW18104   8.930   5.903  12.062 -0.3650  0.1735 -0.0381
 3749SOL    HW118105   8.868   5.844  12.020  0.2879 -1.1659  0.8283
 3749SOL    HW218106   8.913   5.988  12.021 -2.3530 -0.2741 -0.2567
 3750SOL     OW18107  12.417  11.818   6.063  0.4832  0.5325  0.1709
 3750SOL    HW118108  12.470  11.864   5.997  0.0990  0.2469 -0.3492
 3750SOL    HW218109  12.481  11.780   6.123  0.9583 -0.7741 -1.0920
 3751SOL     OW18110  10.396   1.083   9.718 -0.2243 -0.6586  0.6258
 3751SOL    HW118111  10.471   1.134   9.750 -1.0775  1.0361  0.0498
 3751SOL    HW218112  10.323   1.146   9.718 -0.8171 -1.2139 -2.3599
 3752SOL     OW18113   2.048  12.288   2.004  0.0506 -0.0544 -0.1461
 3752SOL    HW118114   2.007  12.325   2.083  0.0243 -0.5554  0.0782
 3752SOL    HW218115   1.991  12.316   1.932 -0.6845 -0.7210  0.1578
 3753SOL     OW18116   0.204   4.250   0.226  0.2468  0.3238  0.5812
 3753SOL    HW118117   0.298   4.236   0.217  0.0316  0.2325 -3.3995
 3753SOL    HW218118   0.190   4.339   0.193 -1.1980 -0.3429 -0.7453
 3754SOL     OW18119   8.565  10.553   4.298  0.0874  1.2420 -0.3318
 3754SOL    HW118120   8.636  10.595   4.346  0.4898  0.0467  0.1639
 3754SOL    HW218121   8.607  10.481   4.250 -1.1383 -1.6176  2.5248
 3755SOL     OW18122  11.595  11.060   2.801 -0.1106 -0.2586 -0.3273
 3755SOL    HW118123  11.549  10.989   2.846  2.6973 -2.1154 -0.1379
 3755SOL    HW218124  11.661  11.016   2.749 -0.1080  2.1339 -2.5305
 3756SOL     OW18125   5.456  11.292  11.275  0.3489 -0.5073 -0.1022
 3756SOL    HW118126   5.529  11.340  11.313  1.5120 -0.5846 -2.0823
 3756SOL    HW218127   5.383  11.354  11.277  0.1019 -0.7708  2.8268
 3757SOL     OW18128  11.704   0.302   1.477 -0.2608  0.5196  0.1040
 3757SOL    HW118129  11.685   0.394   1.494  1.3949  1.2107 -1.5360
 3757SOL    HW218130  11.729   0.267   1.563 -1.5418  1.3988  0.8742
 3758SOL     OW18131   9.089   9.410   6.267  0.3484  0.1164 -0.1005
 3758SOL    HW118132   9.120   9.340   6.210 -2.1680  1.3901 -3.3443
 3758SOL    HW218133   9.022   9.369   6.322 -0.9410 -0.1775 -1.8160
 3759SOL     OW18134   0.364   1.757   0.139  0.3989 -0.1268 -0.3253
 3759SOL    HW118135   0.357   1.792   0.050  1.2100  2.6697  0.5995
 3759SOL    HW218136   0.276   1.767   0.176  0.2615 -0.5212 -0.5406
 3760SOL     OW18137   9.560   7.862   3.205  0.0140 -0.3835  0.8372
 3760SOL    HW118138   9.543   7.864   3.111  0.6282  1.8460  0.7403
 3760SOL    HW218139   9.638   7.806   3.214  0.5149  0.1495 -0.0819
 3761SOL     OW18140   9.012  12.352   9.674  0.4279 -0.1173  0.1202
 3761SOL    HW118141   8.973  12.426   9.628  0.3775  0.3120  0.8351
 3761SOL    HW218142   8.956  12.278   9.653  0.6391 -0.0235 -0.8334
 3762SOL     OW18143   7.339   4.882   2.121 -0.1603 -0.1396  0.2319
 3762SOL    HW118144   7.316   4.953   2.060 -0.3129  0.4128  0.9160
 3762SOL    HW218145   7.403   4.830   2.073  0.1956  0.6424 -0.1740
 3763SOL     OW18146   0.740  10.466   3.623  0.5856  0.5966 -0.1637
 3763SOL    HW118147   0.718  10.531   3.691 -1.6851 -0.3202  0.0684
 3763SOL    HW218148   0.790  10.516   3.559 -0.3295  2.4090  0.4288
 3764SOL     OW18149   3.989   0.225   5.258  0.3773 -0.0807  0.6940
 3764SOL    HW118150   3.919   0.163   5.280  0.6946 -0.6197  0.2122
 3764SOL    HW218151   3.945   0.309   5.246 -0.2721 -0.5453 -0.2175
 3765SOL     OW18152   9.741   8.408   3.871  1.0218  0.1621  0.2179
 3765SOL    HW118153   9.731   8.331   3.814  4.0175 -2.0019  2.2716
 3765SOL    HW218154   9.680   8.392   3.943  1.0857  0.0629  0.2518
 3766SOL     OW18155  11.821   3.752   5.588 -0.0780  0.4433  0.1757
 3766SOL    HW118156  11.871   3.763   5.507 -1.7533  0.5283 -0.8961
 3766SOL    HW218157  11.835   3.834   5.635  1.7111  0.0183  0.4863
 3767SOL     OW18158   1.045  10.040  12.244 -0.4237 -0.0764  0.4339
 3767SOL    HW118159   1.039  10.038  12.339 -0.0978 -1.3450  0.4423
 3767SOL    HW218160   1.040   9.948  12.217  0.7525  0.1575 -0.6899
 3768SOL     OW18161   4.541   3.383   7.185 -0.2977  0.0435  0.3141
 3768SOL    HW118162   4.623   3.333   7.192  0.2363  0.9118  0.3933
 3768SOL    HW218163   4.530   3.396   7.091 -0.0330  0.4294  0.3360
 3769SOL     OW18164   3.552   5.933   6.830 -0.4785  0.5945  0.3706
 3769SOL    HW118165   3.642   5.964   6.841 -0.7273  1.7327 -0.6494
 3769SOL    HW218166   3.497   6.006   6.859 -1.0732  0.4563 -0.3666
 3770SOL     OW18167   3.036   6.345   8.665  0.4576  0.1153 -0.0004
 3770SOL    HW118168   2.945   6.329   8.688  1.0262 -0.2909  2.1687
 3770SOL    HW218169   3.034   6.425   8.612 -0.9071  2.0259  2.7362
 3771SOL     OW18170  11.742  12.122   2.371 -0.3079 -0.4145  0.2057
 3771SOL    HW118171  11.746  12.218   2.379 -1.7986 -0.1568 -1.4178
 3771SOL    HW218172  11.658  12.099   2.412 -0.1595 -0.9713  0.1985
 3772SOL     OW18173   3.920   1.720   6.803  0.2642 -0.1725  0.3278
 3772SOL    HW118174   3.921   1.686   6.892  0.1349 -0.4197  0.2344
 3772SOL    HW218175   4.011   1.717   6.775  0.2115 -0.7299  0.2078
 3773SOL     OW18176   6.233  12.439  12.388 -0.4932  0.0618  0.5375
 3773SOL    HW118177   6.307  12.497  12.405 -1.0306  1.5130 -1.6483
 3773SOL    HW218178   6.273  12.354  12.369  0.6298  0.7797 -0.4381
 3774SOL     OW18179   0.787   4.039   2.288 -0.1502 -0.4268  0.3534
 3774SOL    HW118180   0.851   4.097   2.330  0.9656 -0.8615 -0.6561
 3774SOL    HW218181   0.768   4.082   2.205 -1.2839 -0.2459  0.6964
 3775SOL     OW18182   4.935  10.304   0.896 -0.1115 -0.6054  0.1256
 3775SOL    HW118183   4.899  10.333   0.980 -0.4096  1.3962 -0.6359
 3775SOL    HW218184   5.026  10.332   0.899 -0.3809  0.3968 -0.5907
 3776SOL     OW18185  11.627   4.111   9.659  0.2725  0.4719  0.0671
 3776SOL    HW118186  11.560   4.140   9.598 -2.0533 -0.7310  1.8996
 3776SOL    HW218187  11.659   4.029   9.623 -1.7374 -0.7000  0.8029
 3777SOL     OW18188   8.269  11.945  10.775  0.0469  0.1521 -0.2319
 3777SOL    HW118189   8.197  11.973  10.719 -1.4764 -2.5631  0.2283
 3777SOL    HW218190   8.340  11.923  10.714 -0.9782 -1.0863 -1.0168
 3778SOL     OW18191   4.849   6.557   1.641 -0.0047 -0.3052  0.0383
 3778SOL    HW118192   4.825   6.647   1.662 -0.8269 -0.0459 -1.8228
 3778SOL    HW218193   4.767   6.508   1.646  0.4421 -1.0114  1.0929
 3779SOL     OW18194   9.807   3.799  10.538  0.1418 -0.1729  0.2387
 3779SOL    HW118195   9.894   3.779  10.503  0.1636  1.0833 -0.4933
 3779SOL    HW218196   9.820   3.877  10.591 -0.6769  0.6227 -0.6773
 3780SOL     OW18197   1.933   0.844  10.758 -0.2283  0.1182 -0.1804
 3780SOL    HW118198   1.953   0.908  10.690 -1.0160  2.0479  1.2893
 3780SOL    HW218199   1.857   0.797  10.724  0.8246 -0.6300 -1.6190
 3781SOL     OW18200   6.558   8.618   0.316  0.1676  0.4381  0.0657
 3781SOL    HW118201   6.584   8.652   0.231 -0.9475 -0.6702 -0.7550
 3781SOL    HW218202   6.469   8.652   0.330 -1.0037 -2.0390 -0.8094
 3782SOL     OW18203   7.424  10.530   9.745 -0.2064 -0.4948 -0.2645
 3782SOL    HW118204   7.518  10.516   9.757 -0.0999 -1.3880 -1.8810
 3782SOL    HW218205   7.416  10.572   9.659 -1.0323  3.7106  1.5693
 3783SOL     OW18206   6.779   8.331  10.342  0.6105  0.0175 -0.0937
 3783SOL    HW118207   6.858   8.332  10.396 -0.8469 -1.3844  2.2265
 3783SOL    HW218208   6.728   8.257  10.374 -1.2808  0.3300 -2.1045
 3784SOL     OW18209  10.269   9.800   9.119 -0.3643  0.2287 -0.2964
 3784SOL    HW118210  10.324   9.847   9.182 -2.1119 -0.7810  2.1432
 3784SOL    HW218211  10.329   9.741   9.074  0.7120 -0.3309  1.7727
 3785SOL     OW18212   7.967  12.439  11.713 -0.6802  0.4305  0.0245
 3785SOL    HW118213   8.050  12.451  11.666 -0.4037 -0.4886  0.2595
 3785SOL    HW218214   7.916  12.381  11.656 -0.2628 -0.8590  0.9389
 3786SOL     OW18215  10.518  10.805  12.360  0.2994 -0.1768  0.4126
 3786SOL    HW118216  10.493  10.830  12.271  1.0707  0.2991  0.3273
 3786SOL    HW218217  10.552  10.885  12.399 -0.8095 -0.1742  1.4320
 3787SOL     OW18218  12.419   4.369   4.371 -0.5239  0.6541  0.1386
 3787SOL    HW118219  12.357   4.361   4.299  0.2718  1.0492 -0.6144
 3787SOL    HW218220  12.467   4.450   4.352  0.8251 -0.0979  0.1980
 3788SOL     OW18221   7.796   0.010  10.710 -0.3802  0.4348 -0.1754
 3788SOL    HW118222   7.727   0.067  10.675  0.4318  1.0540 -0.7899
 3788SOL    HW218223   7.846   0.066  10.770 -0.5047 -0.0598  0.4073
 3789SOL     OW18224   7.724   2.751   8.660 -0.1426  0.3792  0.0027
 3789SOL    HW118225   7.748   2.664   8.690  0.1365  0.2993 -0.4412
 3789SOL    HW218226   7.759   2.810   8.727  2.1108  0.3349 -1.0305
 3790SOL     OW18227  12.063   2.684   0.489 -0.1585 -0.1026 -0.5302
 3790SOL    HW118228  12.156   2.698   0.508 -0.5427  1.1921  0.5567
 3790SOL    HW218229  12.020   2.692   0.574 -1.4495  0.9754 -1.2484
 3791SOL     OW18230   8.038   6.154   1.963 -0.0848 -0.0091  0.2464
 3791SOL    HW118231   8.005   6.227   1.910 -0.3323 -1.2553 -1.3982
 3791SOL    HW218232   7.961   6.101   1.981  0.2755 -0.4639  0.4537
 3792SOL     OW18233   3.225   6.556   9.163 -0.3100  0.0145 -0.0234
 3792SOL    HW118234   3.309   6.601   9.162 -1.2145  1.9916  2.5990
 3792SOL    HW218235   3.179   6.590   9.086 -0.3743  2.5766  1.0314
 3793SOL     OW18236   6.461   9.142   8.426 -0.7816 -0.1167 -0.2805
 3793SOL    HW118237   6.413   9.067   8.392 -3.4844  1.7274 -0.9335
 3793SOL    HW218238   6.402   9.180   8.492  1.4706  0.1935  1.6816
 3794SOL     OW18239   4.441   4.250   6.818 -0.2105 -0.0722  0.5938
 3794SOL    HW118240   4.479   4.172   6.778 -1.1864 -0.4729  0.3987
 3794SOL    HW218241   4.353   4.223   6.844 -0.6047  0.9856  0.4336
 3795SOL     OW18242   2.038   7.554   2.989 -0.2213  0.0814 -0.1188
 3795SOL    HW118243   2.113   7.524   2.937  0.1603  1.8170 -0.6513
 3795SOL    HW218244   2.023   7.644   2.958 -0.9808  0.6162  1.6959
 3796SOL     OW18245  12.127   6.497   4.763 -0.3587  0.6413 -0.3109
 3796SOL    HW118246  12.052   6.452   4.722 -1.8884 -0.2135  3.0836
 3796SOL    HW218247  12.177   6.427   4.804  0.2022  1.5537  0.5998
 3797SOL     OW18248   4.010  10.381   3.898 -0.9666  0.6055  0.3427
 3797SOL    HW118249   4.068  10.306   3.910 -1.8068 -0.3513 -1.1441
 3797SOL    HW218250   4.039  10.421   3.816 -1.8042  0.6813  0.0744
 3798SOL     OW18251   8.153   4.942   0.622 -0.4114  0.1914  0.4109
 3798SOL    HW118252   8.147   4.852   0.652 -0.1328  0.0499  0.0488
 3798SOL    HW218253   8.221   4.982   0.676  1.9294 -0.7509 -1.6543
 3799SOL     OW18254   8.135  11.035   5.200 -0.1283  0.6354 -0.3615
 3799SOL    HW118255   8.046  11.057   5.171 -0.8042  0.5283  1.5354
 3799SOL    HW218256   8.165  10.971   5.136 -1.9023 -0.2837 -0.3401
 3800SOL     OW18257   5.032   0.766   3.957  0.2198 -0.5692  0.0824
 3800SOL    HW118258   4.982   0.692   3.992  1.8890 -1.2572  1.1506
 3800SOL    HW218259   5.045   0.745   3.865  1.1575 -1.9576  0.4842
 3801SOL     OW18260   2.760  10.040   8.624  0.0313  0.0313  0.2998
 3801SOL    HW118261   2.759   9.955   8.580 -1.1329 -0.6071  1.4579
 3801SOL    HW218262   2.821  10.029   8.696 -1.7773 -0.6295  1.8188
 3802SOL     OW18263   4.384  10.271   8.245  0.2874  0.0983 -0.6850
 3802SOL    HW118264   4.365  10.184   8.209  2.8172 -0.8009 -0.0802
 3802SOL    HW218265   4.412  10.322   8.169 -2.2407  0.7907 -1.2247
 3803SOL     OW18266   2.748   9.279  11.160  0.3280  0.7194  0.1074
 3803SOL    HW118267   2.738   9.193  11.200 -2.2402  0.4065 -1.0058
 3803SOL    HW218268   2.767   9.337  11.234 -1.9080 -0.2102  1.5348
 3804SOL     OW18269   8.046  11.046  10.877 -0.8029  0.1285 -0.0453
 3804SOL    HW118270   7.970  11.076  10.828  0.2052  2.6601 -0.2047
 3804SOL    HW218271   8.042  10.950  10.872 -2.1382  0.2535 -2.8359
 3805SOL     OW18272   6.063   3.710   4.023 -0.5828 -0.0327 -0.6785
 3805SOL    HW118273   6.091   3.629   4.066  1.1750  1.0737  0.3658
 3805SOL    HW218274   5.993   3.744   4.078  1.2654  1.0815  1.0914
 3806SOL     OW18275   4.940   7.916   5.853  0.3282 -0.5572  0.8950
 3806SOL    HW118276   5.021   7.942   5.896  0.6741 -3.0007  1.9095
 3806SOL    HW218277   4.955   7.826   5.825 -1.2708 -0.3208 -0.9638
 3807SOL     OW18278   9.501   8.769   1.029 -0.9518 -0.1314  0.5678
 3807SOL    HW118279   9.516   8.820   0.949 -0.0912  0.2999  0.9872
 3807SOL    HW218280   9.588   8.738   1.053 -1.2696 -0.6141  1.1012
 3808SOL     OW18281   4.631   1.070   9.018  0.0170 -0.4057 -0.1008
 3808SOL    HW118282   4.684   1.095   9.094  0.3437 -0.4999 -0.2964
 3808SOL    HW218283   4.564   1.139   9.012  2.9408  2.5779 -2.7496
 3809SOL     OW18284   6.380   2.013   2.964  0.0379  0.0109 -0.2342
 3809SOL    HW118285   6.435   1.998   2.887  0.8113  0.6469  0.1778
 3809SOL    HW218286   6.326   1.934   2.971  0.6848 -0.4958 -0.8291
 3810SOL     OW18287  12.344   8.259   9.531  0.3807 -0.2393  0.2754
 3810SOL    HW118288  12.411   8.192   9.544  0.2612 -0.0582  2.1397
 3810SOL    HW218289  12.374   8.333   9.584 -0.5908  0.3739 -0.0072
 3811SOL     OW18290   6.877  10.636   5.378  0.1978  0.2187 -0.0692
 3811SOL    HW118291   6.798  10.595   5.342 -2.7173  2.2402  3.4373
 3811SOL    HW218292   6.867  10.729   5.359  0.8762  0.7179  1.8046
 3812SOL     OW18293   1.608   4.708   7.657  0.1137 -0.1559 -0.0447
 3812SOL    HW118294   1.567   4.675   7.577 -1.2333  0.8707  0.2005
 3812SOL    HW218295   1.572   4.796   7.669  1.5704  0.3629  0.7902
 3813SOL     OW18296   9.633   1.886   2.054  0.0400 -0.3230 -0.2947
 3813SOL    HW118297   9.710   1.921   2.009 -0.1394 -2.0029 -2.0693
 3813SOL    HW218298   9.657   1.888   2.147  1.4894  0.8518 -0.6508
 3814SOL     OW18299  11.904   7.577   9.152 -0.0150  0.2101 -0.0527
 3814SOL    HW118300  11.988   7.588   9.107 -0.8534  0.6393 -1.6029
 3814SOL    HW218301  11.845   7.544   9.085 -2.0693  3.5622 -0.1506
 3815SOL     OW18302   2.914   2.097   8.464 -0.3307 -0.4376 -0.5047
 3815SOL    HW118303   2.956   2.171   8.421 -1.9240  0.5776 -0.3709
 3815SOL    HW218304   2.974   2.074   8.536  1.2938 -0.7897 -1.9015
 3816SOL     OW18305   6.645   0.486   9.915  0.1013  0.3540  0.0018
 3816SOL    HW118306   6.733   0.469   9.883  0.0658 -0.5392  0.3524
 3816SOL    HW218307   6.599   0.525   9.840  0.2620 -0.9025 -0.7865
 3817SOL     OW18308   3.359  12.532   5.142  0.1538 -0.0639 -0.4175
 3817SOL    HW118309   3.388  12.445   5.169  0.5491  0.3142  0.4355
 3817SOL    HW218310   3.421  12.592   5.185 -0.1548  0.6339 -0.9341
 3818SOL     OW18311   7.656   5.294   2.305  0.2064  0.3700  0.4170
 3818SOL    HW118312   7.751   5.308   2.309  0.1509  0.7139  0.5104
 3818SOL    HW218313   7.627   5.349   2.233 -0.0528  0.9725  0.9748
 3819SOL     OW18314  10.188  10.120   4.155 -0.6282 -0.1303  0.2180
 3819SOL    HW118315  10.164  10.203   4.197 -3.2058 -1.1383  0.9751
 3819SOL    HW218316  10.110  10.096   4.104  0.3803 -1.6856 -0.6590
 3820SOL     OW18317   4.544   6.809  11.279  0.0256 -0.0091  0.0160
 3820SOL    HW118318   4.637   6.791  11.267 -0.2816 -2.1960  0.5470
 3820SOL    HW218319   4.499   6.733  11.242 -1.5388  0.8222  0.1203
 3821SOL     OW18320   2.136  11.654   8.471 -0.2329  0.0376  0.0780
 3821SOL    HW118321   2.210  11.691   8.423 -0.5003 -1.0691 -1.2489
 3821SOL    HW218322   2.157  11.671   8.563  1.3393  0.3454 -0.2974
 3822SOL     OW18323  11.550   8.298   5.632 -0.5464 -0.1363 -0.4221
 3822SOL    HW118324  11.480   8.311   5.695  0.8488 -0.7098  1.3227
 3822SOL    HW218325  11.573   8.386   5.603 -1.2034  0.1365 -0.1435
 3823SOL     OW18326   2.384   6.504   4.267  0.4155 -0.1904  0.2906
 3823SOL    HW118327   2.405   6.414   4.293 -0.2815 -0.3811  0.2232
 3823SOL    HW218328   2.413   6.557   4.341  1.4064 -0.3992  0.0692
 3824SOL     OW18329   2.568   6.462   5.664 -0.0336 -0.0919  0.4500
 3824SOL    HW118330   2.531   6.550   5.674 -0.9005 -0.4711  0.5945
 3824SOL    HW218331   2.655   6.477   5.625  0.5828  0.9567  2.1362
 3825SOL     OW18332   0.592   2.086   9.032 -0.3162  0.4656 -0.4445
 3825SOL    HW118333   0.522   2.051   8.978 -1.6432  0.6029  1.1090
 3825SOL    HW218334   0.551   2.102   9.117  1.3820  1.4253  0.2433
 3826SOL     OW18335   1.453   7.356   1.933 -0.3124  0.0781 -0.0021
 3826SOL    HW118336   1.420   7.446   1.943 -1.7680 -0.5340  0.9819
 3826SOL    HW218337   1.525   7.364   1.870 -0.1146  2.0012  0.4025
 3827SOL     OW18338   5.248   6.043   7.427  0.1020  0.1081  0.4227
 3827SOL    HW118339   5.231   6.062   7.520 -0.7715 -1.3680  0.5938
 3827SOL    HW218340   5.327   5.988   7.429  0.9452  1.2710  0.1521
 3828SOL     OW18341   6.036   0.797   1.381 -0.1193  0.2002 -0.1893
 3828SOL    HW118342   6.089   0.876   1.370 -0.4741  0.3830 -0.5928
 3828SOL    HW218343   5.954   0.828   1.420  0.5004 -0.2322  1.5589
 3829SOL     OW18344   8.140  10.544   6.788  0.9281 -0.0705  0.2790
 3829SOL    HW118345   8.197  10.611   6.752  1.2028 -0.6174 -0.3165
 3829SOL    HW218346   8.076  10.527   6.719  2.2468 -2.0751 -0.5534
 3830SOL     OW18347   0.725   5.031   1.176 -0.6372  0.3483 -0.4369
 3830SOL    HW118348   0.816   5.058   1.166 -0.2335 -1.3481 -1.8622
 3830SOL    HW218349   0.710   5.029   1.271  1.2579 -0.6927 -0.1265
 3831SOL     OW18350   5.866  11.380   3.170  0.1453 -0.3979 -0.0922
 3831SOL    HW118351   5.953  11.349   3.148  0.3066  0.0167 -0.0622
 3831SOL    HW218352   5.862  11.468   3.132  0.3035  0.1964  1.2113
 3832SOL     OW18353   2.984   9.165  12.077 -0.1522 -0.1884 -0.0906
 3832SOL    HW118354   3.079   9.175  12.089 -0.4526  0.3182  2.6471
 3832SOL    HW218355   2.946   9.242  12.119 -1.8047 -0.3336 -1.2296
 3833SOL     OW18356  10.670  10.366   2.479 -0.2119 -0.3808  0.7056
 3833SOL    HW118357  10.760  10.394   2.463  0.3700 -2.6065 -0.4226
 3833SOL    HW218358  10.629  10.439   2.526  2.0028  0.9097  0.7491
 3834SOL     OW18359  12.043   4.076   5.123 -0.3954  0.0400  0.0290
 3834SOL    HW118360  12.007   4.037   5.203  2.0233 -0.0930  1.1258
 3834SOL    HW218361  11.995   4.159   5.113  0.1442  0.7184  2.4237
 3835SOL     OW18362   5.006   5.778  12.338 -0.1463 -0.0358  0.5197
 3835SOL    HW118363   5.015   5.683  12.329 -1.4068 -0.2170  0.8683
 3835SOL    HW218364   5.092   5.808  12.365  0.4238 -1.0094 -0.1431
 3836SOL     OW18365   9.243   5.915   6.141  0.2361  0.0351 -0.6123
 3836SOL    HW118366   9.204   5.901   6.227  0.6908  0.8884 -0.2550
 3836SOL    HW218367   9.297   5.993   6.151  0.1469  0.2589 -1.7247
 3837SOL     OW18368  11.152   3.442   8.466  0.0158 -0.2271 -0.0349
 3837SOL    HW118369  11.136   3.456   8.559  0.1837  0.6597 -0.1292
 3837SOL    HW218370  11.147   3.530   8.427  1.5995 -0.3475 -0.5966
 3838SOL     OW18371   5.181   9.005   5.613 -0.0851 -0.1190  0.7094
 3838SOL    HW118372   5.159   9.056   5.691  0.5039 -0.2832  0.9834
 3838SOL    HW218373   5.132   8.923   5.624 -0.4753  0.0926  0.6063
 3839SOL     OW18374   1.568   6.056   9.843 -0.2111 -0.1803  0.4430
 3839SOL    HW118375   1.534   6.023   9.926  1.2555  0.3393  1.2928
 3839SOL    HW218376   1.602   6.143   9.865  0.1061  0.0051 -0.7362
 3840SOL     OW18377   9.368   3.216   2.076 -0.3449 -0.5564  0.5290
 3840SOL    HW118378   9.351   3.242   1.986 -2.1536  1.7728  1.4540
 3840SOL    HW218379   9.300   3.152   2.097 -1.5334  0.8314  0.9941
 3841SOL     OW18380  12.013  11.178  10.654  0.5082 -0.2771  0.0626
 3841SOL    HW118381  12.073  11.250  10.672  0.4078 -0.4238  1.0196
 3841SOL    HW218382  11.967  11.205  10.575  0.1525  0.9181  0.6529
 3842SOL     OW18383   2.432   1.395   1.507 -0.3980 -0.3449 -0.1610
 3842SOL    HW118384   2.419   1.452   1.583  1.5041 -0.8743  0.6167
 3842SOL    HW218385   2.387   1.439   1.435  0.3000  1.7122  0.5994
 3843SOL     OW18386  10.295   7.470  10.427  0.3460  0.0751 -0.1940
 3843SOL    HW118387  10.212   7.424  10.415  1.0603 -1.7190  1.3938
 3843SOL    HW218388  10.295   7.536  10.357 -0.9156 -2.0263 -2.3539
 3844SOL     OW18389  11.384  11.953   4.098  0.1832  0.5423 -0.0565
 3844SOL    HW118390  11.346  11.989   4.018  0.4494 -0.2265 -0.5423
 3844SOL    HW218391  11.314  11.958   4.162 -1.2835 -2.0916 -1.2711
 3845SOL     OW18392   3.905   8.342   3.130  0.2895 -0.2414 -0.3531
 3845SOL    HW118393   3.971   8.319   3.064  1.0131  0.2976  0.1788
 3845SOL    HW218394   3.926   8.287   3.205  1.3001  1.2282  0.4942
 3846SOL     OW18395   3.575   5.644  10.170  0.3479  0.3983 -0.1594
 3846SOL    HW118396   3.662   5.653  10.133  0.3659 -0.3960 -0.3380
 3846SOL    HW218397   3.522   5.607  10.099 -0.0963  0.7215 -0.0051
 3847SOL     OW18398  10.117   7.822  12.005  0.0847 -0.8005 -0.3650
 3847SOL    HW118399  10.094   7.729  12.003 -2.7440 -0.1947 -2.5008
 3847SOL    HW218400  10.182   7.833  11.936  0.0297 -1.1287 -0.4678
 3848SOL     OW18401   0.978   0.382   1.273  0.4010  0.8215  0.0432
 3848SOL    HW118402   1.014   0.411   1.357 -0.1967  0.2009  0.5268
 3848SOL    HW218403   0.903   0.440   1.259  0.0505  0.4469  0.3198
 3849SOL     OW18404   1.581   6.583   6.656  0.2418  0.2376 -0.1209
 3849SOL    HW118405   1.583   6.616   6.746 -0.8431 -1.8649  0.7444
 3849SOL    HW218406   1.490   6.560   6.641  0.6329 -0.6642 -1.2875
 3850SOL     OW18407   5.769   0.008   0.478 -0.0874 -0.4390 -0.0601
 3850SOL    HW118408   5.693   0.026   0.532 -0.4710  1.8458 -1.2293
 3850SOL    HW218409   5.833   0.075   0.502  0.9790 -1.3577 -0.2079
 3851SOL     OW18410   3.815   5.845   9.092  0.4001 -0.2454  0.6685
 3851SOL    HW118411   3.868   5.903   9.038  1.3494 -1.9585 -0.3111
 3851SOL    HW218412   3.774   5.785   9.030 -2.5654  0.8345  1.4027
 3852SOL     OW18413   2.424   5.238   2.284  0.0695 -0.0098  0.0087
 3852SOL    HW118414   2.365   5.164   2.299  1.4795 -1.0917  0.4291
 3852SOL    HW218415   2.394   5.306   2.344 -2.0589  0.2895 -1.2938
 3853SOL     OW18416   1.563  10.704   4.316 -0.5212  0.0426 -0.6109
 3853SOL    HW118417   1.489  10.706   4.377 -0.0503  2.0047 -0.0323
 3853SOL    HW218418   1.595  10.794   4.314  2.5064 -0.8861 -0.0410
 3854SOL     OW18419   9.199   0.574  12.406 -0.1914  0.2027 -0.6820
 3854SOL    HW118420   9.150   0.654  12.386 -0.4320 -0.7170 -4.7130
 3854SOL    HW218421   9.136   0.504  12.390  0.3687 -0.9051  1.6256
 3855SOL     OW18422   4.019   9.296  12.203  0.6572 -0.0947 -0.2752
 3855SOL    HW118423   4.099   9.348  12.206  0.1578  0.7318 -0.7924
 3855SOL    HW218424   3.950   9.359  12.183  0.1201 -1.0465 -1.5712
 3856SOL     OW18425   4.554  12.183   8.659  0.0212  0.0179  0.2183
 3856SOL    HW118426   4.615  12.184   8.732 -1.7129  1.9217  1.7744
 3856SOL    HW218427   4.487  12.120   8.684 -0.4222  0.4536  0.1560
 3857SOL     OW18428  11.287   1.733   0.067  0.4266  0.0231  0.7389
 3857SOL    HW118429  11.332   1.649   0.078  0.6461  0.0436  0.0294
 3857SOL    HW218430  11.306   1.760  -0.022 -2.0802 -0.6075 -0.0789
 3858SOL     OW18431   3.246   4.286   9.330  0.4822 -0.4635  0.4191
 3858SOL    HW118432   3.271   4.361   9.383 -1.3617 -0.3900  1.2694
 3858SOL    HW218433   3.231   4.322   9.243 -0.9580  0.3125  0.9501
 3859SOL     OW18434  11.366   5.440   0.671  0.2326 -0.2173  0.3003
 3859SOL    HW118435  11.295   5.477   0.619  1.8247  0.4520 -1.5621
 3859SOL    HW218436  11.333   5.356   0.703 -0.1901 -1.7193 -3.6088
 3860SOL     OW18437   3.826   8.312   2.762 -0.1210 -0.1617  0.1551
 3860SOL    HW118438   3.825   8.300   2.667 -1.3615 -1.3053  0.2871
 3860SOL    HW218439   3.819   8.406   2.775 -1.0789 -0.0802 -0.8851
 3861SOL     OW18440   1.821   3.592   3.916 -0.8265 -0.0486 -0.4041
 3861SOL    HW118441   1.802   3.498   3.919  0.6309 -0.3325  0.9158
 3861SOL    HW218442   1.758   3.631   3.977  1.1087 -0.6990  2.1448
 3862SOL     OW18443   2.295   8.919   7.074 -0.1570 -0.1331  0.0415
 3862SOL    HW118444   2.276   9.013   7.079 -0.5140 -0.2447  1.2989
 3862SOL    HW218445   2.320   8.904   6.983  1.1376  1.4072  0.1066
 3863SOL     OW18446   0.837   6.132   2.542  0.1772  0.3191  0.1241
 3863SOL    HW118447   0.800   6.212   2.580 -0.1851 -0.3852  1.3017
 3863SOL    HW218448   0.763   6.088   2.501 -0.2105 -0.6783  1.7639
 3864SOL     OW18449   6.882   3.416   5.909  0.6340 -0.3837 -0.1903
 3864SOL    HW118450   6.904   3.495   5.959  0.6168  0.5363 -1.5954
 3864SOL    HW218451   6.960   3.397   5.858  0.3153 -0.7497 -0.5491
 3865SOL     OW18452   2.317   0.110  11.278  0.2130  0.2196  0.0023
 3865SOL    HW118453   2.271   0.026  11.272  0.9557 -0.1809 -0.1740
 3865SOL    HW218454   2.259   0.172  11.234  0.2023 -0.4395 -0.9442
 3866SOL     OW18455   3.777   0.448   7.703 -0.3875 -0.2343  0.0658
 3866SOL    HW118456   3.839   0.481   7.638  0.8556  1.0504  1.7936
 3866SOL    HW218457   3.731   0.527   7.734 -2.1100 -1.0227 -0.3670
 3867SOL     OW18458  10.670   3.150   6.949  0.2693  0.4994 -0.2641
 3867SOL    HW118459  10.647   3.164   6.857 -0.1780  0.1272 -0.2141
 3867SOL    HW218460  10.753   3.102   6.945 -1.0009 -1.8354 -0.5585
 3868SOL     OW18461  12.202   1.479   0.627 -0.0527  0.1761 -0.5703
 3868SOL    HW118462  12.183   1.541   0.697 -0.6974  0.9255 -1.3717
 3868SOL    HW218463  12.242   1.532   0.558 -2.1567  0.0986 -1.9645
 3869SOL     OW18464   1.927   5.852   5.124 -0.2587  0.4479 -0.1044
 3869SOL    HW118465   1.880   5.828   5.204 -0.1617 -0.9909 -0.4634
 3869SOL    HW218466   2.018   5.826   5.140 -0.0879  0.8229 -0.4194
 3870SOL     OW18467   2.441   6.086   0.530  0.2207  0.1237  0.0795
 3870SOL    HW118468   2.507   6.155   0.523  0.5654 -0.4035 -3.5488
 3870SOL    HW218469   2.367   6.118   0.478  0.1097 -1.8593 -1.0811
 3871SOL     OW18470   4.095   0.555   6.543 -0.0260  0.3132  0.6685
 3871SOL    HW118471   4.021   0.511   6.585  0.7850 -0.0791  1.7320
 3871SOL    HW218472   4.070   0.561   6.451 -2.0571  1.6105  1.2473
 3872SOL     OW18473   3.410   7.172  12.301 -0.0620 -0.5745  0.5696
 3872SOL    HW118474   3.432   7.251  12.352  0.1035 -0.5646  0.4838
 3872SOL    HW218475   3.465   7.103  12.340  1.8532 -0.0865 -1.1067
 3873SOL     OW18476  11.602   4.570   7.046 -0.7722 -0.1574  0.2433
 3873SOL    HW118477  11.663   4.612   6.985 -0.0723  0.6881  1.5032
 3873SOL    HW218478  11.653   4.498   7.085 -0.6869  0.3126  1.0151
 3874SOL     OW18479  10.015   0.467   7.780 -0.3724  0.0137  0.1732
 3874SOL    HW118480   9.929   0.465   7.823 -0.5477 -0.0871 -0.1715
 3874SOL    HW218481  10.026   0.378   7.746  0.3629 -0.2888  1.1562
 3875SOL     OW18482   1.088   2.017   0.543 -0.2513 -0.8851 -0.7085
 3875SOL    HW118483   1.149   1.944   0.540  3.0283  1.6497 -2.4838
 3875SOL    HW218484   1.081   2.047   0.452  1.3143  2.9739  0.2259
 3876SOL     OW18485  10.043   6.376   2.158 -0.0636  0.0986  0.0187
 3876SOL    HW118486   9.971   6.360   2.098  1.7545  0.0817 -2.2967
 3876SOL    HW218487  10.040   6.471   2.173 -0.9859 -0.0022  0.5577
 3877SOL     OW18488   9.721   5.028   0.126 -0.2374  0.1432 -0.5536
 3877SOL    HW118489   9.682   4.955   0.173  0.9566  1.1061  2.1634
 3877SOL    HW218490   9.683   5.106   0.167  1.8126  1.0394 -0.2184
 3878SOL     OW18491   5.613   7.980   3.382  0.3185  0.3679 -0.1242
 3878SOL    HW118492   5.533   7.929   3.369 -1.0543  2.5339 -0.8513
 3878SOL    HW218493   5.609   8.009   3.473  1.5023 -1.3441  0.5322
 3879SOL     OW18494   8.775  10.961   8.967 -0.3589  0.0616 -0.2437
 3879SOL    HW118495   8.855  10.942   8.919 -0.6645  0.6181 -0.9981
 3879SOL    HW218496   8.705  10.950   8.902 -0.7916  0.7133  0.1018
 3880SOL     OW18497   2.668  12.335   5.131  0.2302 -0.1498 -0.3739
 3880SOL    HW118498   2.615  12.315   5.054 -0.9027  0.3891  0.2404
 3880SOL    HW218499   2.614  12.308   5.205  1.6798 -1.5026  0.2299
 3881SOL     OW18500   5.370   5.739   3.769 -0.7174 -0.2609  0.0719
 3881SOL    HW118501   5.407   5.657   3.737  0.0997  0.6043 -1.2837
 3881SOL    HW218502   5.399   5.744   3.860  1.1156 -0.4129 -0.4707
 3882SOL     OW18503   3.349   0.565   4.091 -0.3241  0.6000 -0.1988
 3882SOL    HW118504   3.294   0.580   4.168 -1.9103 -2.2717 -0.6268
 3882SOL    HW218505   3.349   0.649   4.045 -2.1591  1.4540  1.2128
 3883SOL     OW18506   1.754  11.794   7.903  0.2429  0.0958  0.2418
 3883SOL    HW118507   1.835  11.792   7.852  0.9874 -0.6540  1.4126
 3883SOL    HW218508   1.770  11.859   7.971 -1.1162  1.8412 -0.9984
 3884SOL     OW18509   1.461   3.239   8.330 -0.2737 -0.5726 -0.6905
 3884SOL    HW118510   1.493   3.160   8.286  1.2636 -0.1339 -0.4375
 3884SOL    HW218511   1.517   3.309   8.297 -1.8476  0.4897 -1.1825
 3885SOL     OW18512   4.380  11.595   3.018  0.3998  0.4645  0.1446
 3885SOL    HW118513   4.319  11.652   3.064  0.0337  0.3921 -0.2427
 3885SOL    HW218514   4.411  11.647   2.944  1.0144  0.5929  0.4838
 3886SOL     OW18515   5.172  12.063   1.740  0.0282  0.0506  0.3159
 3886SOL    HW118516   5.255  12.017   1.756  0.2531 -0.5110 -2.1317
 3886SOL    HW218517   5.196  12.156   1.739  0.6670 -0.1131 -0.4874
 3887SOL     OW18518   8.880  11.743   7.686 -0.0595 -0.2539 -0.7548
 3887SOL    HW118519   8.938  11.780   7.752 -1.6076 -2.6851  2.2880
 3887SOL    HW218520   8.938  11.691   7.630  0.9938 -1.1928  1.0887
 3888SOL     OW18521   4.264   0.991   8.553 -0.6416 -0.6334 -0.2231
 3888SOL    HW118522   4.291   0.914   8.503 -0.5040 -0.7001 -0.0475
 3888SOL    HW218523   4.169   0.995   8.542 -0.4543  0.3054 -1.8573
 3889SOL     OW18524   9.342   0.505   7.060 -0.2201  0.4804  0.3058
 3889SOL    HW118525   9.399   0.541   7.127  0.1202 -0.2462  0.4128
 3889SOL    HW218526   9.377   0.418   7.042 -0.2955  0.6602 -0.8171
 3890SOL     OW18527  11.377   4.004   9.266 -0.6647 -0.1092 -0.2589
 3890SOL    HW118528  11.357   4.055   9.345 -0.0994  0.8923 -0.7449
 3890SOL    HW218529  11.466   3.971   9.281 -0.6915 -0.2164 -0.3368
 3891SOL     OW18530   9.616   1.094   0.645 -0.3033  0.0872  0.2522
 3891SOL    HW118531   9.693   1.110   0.590 -0.2546  0.3258  0.3908
 3891SOL    HW218532   9.595   1.179   0.684 -0.4625 -0.0372  0.4433
 3892SOL     OW18533   5.491   6.505  11.788  0.2592  0.1673  0.1469
 3892SOL    HW118534   5.502   6.549  11.703 -1.6343 -0.7375 -0.6349
 3892SOL    HW218535   5.576   6.512  11.830  1.0909  1.1535 -1.5886
 3893SOL     OW18536   9.879  12.570   3.589 -0.5755  0.0646 -0.1199
 3893SOL    HW118537   9.897  12.626   3.515  1.4052  0.5057  0.6394
 3893SOL    HW218538   9.944  12.594   3.655 -1.7212 -0.8889  1.4569
 3894SOL     OW18539   7.915  11.997   6.399 -0.4911  0.1094 -0.6679
 3894SOL    HW118540   8.001  11.998   6.442 -0.9488  0.8196  0.2547
 3894SOL    HW218541   7.934  11.971   6.309  0.6447 -0.1491 -0.3687
 3895SOL     OW18542   6.651   5.379  12.307 -0.2072  0.1906  0.1384
 3895SOL    HW118543   6.660   5.284  12.303 -2.5929 -0.0612 -1.2652
 3895SOL    HW218544   6.558   5.395  12.292 -0.1457  2.7087  1.7787
 3896SOL     OW18545   4.209   5.608  11.199  0.2479  0.3862  0.3521
 3896SOL    HW118546   4.146   5.679  11.189  0.1218  0.0130 -2.4574
 3896SOL    HW218547   4.287   5.638  11.152  1.3254 -0.1462  1.7165
 3897SOL     OW18548  10.230   7.455   1.060  0.0492  0.6056 -0.2197
 3897SOL    HW118549  10.318   7.492   1.049  0.8747 -0.9659  0.7637
 3897SOL    HW218550  10.221   7.442   1.154 -0.5113 -0.9118 -0.4587
 3898SOL     OW18551   5.096   2.583   6.901 -0.4685  0.1731 -0.1873
 3898SOL    HW118552   5.056   2.629   6.827 -1.5501 -0.1693  0.1665
 3898SOL    HW218553   5.180   2.627   6.914 -1.0167  1.3686 -0.5242
 3899SOL     OW18554   7.643   0.413   9.961 -0.3107 -0.3858  0.6463
 3899SOL    HW118555   7.613   0.487   9.907  1.6705  0.0941  0.1244
 3899SOL    HW218556   7.627   0.441  10.051 -0.7887  0.1167  0.4125
 3900SOL     OW18557  11.096   6.304   3.568 -0.4133  0.7799 -0.4050
 3900SOL    HW118558  11.166   6.294   3.503 -1.3161  2.2931 -1.6695
 3900SOL    HW218559  11.062   6.392   3.553 -3.0151 -0.1267 -0.2537
 3901SOL     OW18560   3.579   7.331  11.171 -0.4001 -0.7597  0.3171
 3901SOL    HW118561   3.646   7.378  11.220 -0.7923  2.2784 -1.7366
 3901SOL    HW218562   3.622   7.305  11.090 -0.6902 -2.4722  0.6781
 3902SOL     OW18563   8.351  12.498   1.656  0.3049  0.2794  0.0425
 3902SOL    HW118564   8.431  12.507   1.604 -0.6679  0.9426 -1.4069
 3902SOL    HW218565   8.348  12.577   1.709  0.2668  0.5689 -0.3920
 3903SOL     OW18566  11.601  11.372   9.707  0.2740 -1.2330  0.4714
 3903SOL    HW118567  11.630  11.440   9.767 -0.2881 -0.3302 -0.2644
 3903SOL    HW218568  11.681  11.328   9.679  0.9442  0.8795 -1.1452
 3904SOL     OW18569   2.932   9.668   0.081  0.1076 -0.1225 -0.4444
 3904SOL    HW118570   2.872   9.729   0.126 -0.8685 -1.1468 -0.3147
 3904SOL    HW218571   2.933   9.698  -0.010  0.4958  0.7281 -0.1778
 3905SOL     OW18572  11.534   8.380   8.817  0.8770  0.4734  0.0341
 3905SOL    HW118573  11.558   8.292   8.846 -0.2158  0.2538  0.3426
 3905SOL    HW218574  11.493   8.420   8.894  1.5267  1.3195 -0.0551
 3906SOL     OW18575   2.493   3.453   7.219 -0.1754  0.3574  0.2027
 3906SOL    HW118576   2.400   3.439   7.240  0.0390  0.2865  1.1514
 3906SOL    HW218577   2.494   3.469   7.124 -1.0269 -0.7855 -0.0223
 3907SOL     OW18578   1.410   2.938   3.645  0.5171 -0.3896  0.0754
 3907SOL    HW118579   1.333   2.942   3.701 -0.3810 -1.2037 -1.0484
 3907SOL    HW218580   1.453   2.856   3.669 -0.7540 -1.5761 -1.4606
 3908SOL     OW18581   2.362   6.817   9.007  0.0019 -0.2813  0.6196
 3908SOL    HW118582   2.269   6.799   9.025 -0.9557  2.6988 -0.6386
 3908SOL    HW218583   2.378   6.779   8.921 -0.8777  1.2885 -0.3013
 3909SOL     OW18584   6.798   1.521   7.182  0.2493 -0.1875  0.0429
 3909SOL    HW118585   6.811   1.589   7.115 -0.0024 -0.3766 -0.2018
 3909SOL    HW218586   6.883   1.513   7.225  0.6898 -0.7392 -0.8873
 3910SOL     OW18587   2.163   6.867   6.575  0.9202 -0.0799  0.2551
 3910SOL    HW118588   2.166   6.901   6.485  0.2998  2.7925  1.2254
 3910SOL    HW218589   2.070   6.846   6.589  0.7388  0.9870  0.7123
 3911SOL     OW18590   6.771  11.632   6.503  0.1106 -0.1592 -0.5570
 3911SOL    HW118591   6.693  11.685   6.521  0.6078 -0.6239  4.1889
 3911SOL    HW218592   6.738  11.542   6.495 -0.0759 -0.0087 -1.5766
 3912SOL     OW18593   4.418   3.387   9.439 -0.1063 -0.1035  0.1914
 3912SOL    HW118594   4.419   3.292   9.433 -3.2897 -0.1875 -1.2160
 3912SOL    HW218595   4.326   3.411   9.425  0.7190  3.2346 -0.4656
 3913SOL     OW18596   3.419  10.800   2.740  0.0657  0.3912  0.1656
 3913SOL    HW118597   3.463  10.779   2.658 -1.3147  1.2623 -0.8354
 3913SOL    HW218598   3.490  10.812   2.803  1.0920 -2.2583 -0.3599
 3914SOL     OW18599   1.668   7.765   2.966  0.3173  0.2188  0.1101
 3914SOL    HW118600   1.730   7.762   2.893 -0.0342  0.8691 -0.2312
 3914SOL    HW218601   1.599   7.704   2.941  0.7231 -0.3627  0.4011
 3915SOL     OW18602   8.407   4.237   5.174  0.8913  0.6143 -0.0273
 3915SOL    HW118603   8.421   4.327   5.204  0.8265  0.5029  0.3392
 3915SOL    HW218604   8.316   4.235   5.145  1.4891  1.2611 -2.1343
 3916SOL     OW18605   1.459   8.617   6.933 -0.2721  0.2316 -0.0564
 3916SOL    HW118606   1.423   8.570   6.858  4.0209 -0.3019 -2.1177
 3916SOL    HW218607   1.470   8.707   6.902  0.5366  0.2648  0.3055
 3917SOL     OW18608   1.216   8.184   3.755 -0.2044  0.6096  0.0232
 3917SOL    HW118609   1.252   8.096   3.762 -0.4143  0.3201 -1.9293
 3917SOL    HW218610   1.122   8.172   3.754 -0.2507  0.9210  0.2497
 3918SOL     OW18611   6.079   8.942   0.720  0.4918 -0.0289  0.1019
 3918SOL    HW118612   6.069   8.917   0.628 -1.6884  0.3923  0.1778
 3918SOL    HW218613   6.098   9.036   0.717  2.5123 -0.3974  0.0490
 3919SOL     OW18614   8.994   3.233   5.426 -0.2486  0.1134  0.3735
 3919SOL    HW118615   9.062   3.178   5.388 -0.0435  0.5357  0.1277
 3919SOL    HW218616   9.020   3.243   5.518  0.4711  0.9694  0.0770
 3920SOL     OW18617   7.288   2.907   7.222 -0.0820  0.6576 -0.3710
 3920SOL    HW118618   7.352   2.844   7.254  0.9820  1.5531 -0.7066
 3920SOL    HW218619   7.280   2.972   7.292  0.6740  1.4758 -1.0227
 3921SOL     OW18620  11.069   5.634  12.365 -0.2122  0.3004 -0.5896
 3921SOL    HW118621  11.018   5.715  12.371  0.8235  1.1375 -2.3649
 3921SOL    HW218622  11.109   5.625  12.451  1.2438  2.8110 -0.9192
 3922SOL     OW18623  10.385  12.449   2.898 -0.6151  0.0736 -0.2081
 3922SOL    HW118624  10.309  12.394   2.880 -1.6266  1.3722 -0.1241
 3922SOL    HW218625  10.351  12.539   2.893  1.6417  0.9756 -4.0414
 3923SOL     OW18626   6.369   8.034  10.033  0.0165 -0.4212 -0.7495
 3923SOL    HW118627   6.391   8.056   9.943  0.4482  0.8332 -0.3549
 3923SOL    HW218628   6.377   7.938  10.038  2.9822 -0.2704 -1.2620
 3924SOL     OW18629  11.067   7.496  10.927  0.0562 -0.0279 -0.3677
 3924SOL    HW118630  11.162   7.510  10.918  0.4029 -1.6780  0.3112
 3924SOL    HW218631  11.031   7.583  10.942  1.6583  0.4738  0.8745
 3925SOL     OW18632  12.321   5.149   8.626 -0.4640  0.7824  0.1927
 3925SOL    HW118633  12.300   5.200   8.548 -0.1872  1.4528  0.5394
 3925SOL    HW218634  12.295   5.205   8.699 -2.5389 -0.6164  0.6025
 3926SOL     OW18635   6.452   6.830   8.996 -0.0715 -0.0959 -0.0510
 3926SOL    HW118636   6.459   6.919   9.033  0.9008 -0.9915  2.1065
 3926SOL    HW218637   6.359   6.808   9.007 -0.3983  0.7572 -0.9315
 3927SOL     OW18638   4.159   0.625   0.925  0.0186  0.4132 -0.4831
 3927SOL    HW118639   4.085   0.660   0.975 -0.5702 -1.7647  0.3089
 3927SOL    HW218640   4.237   0.661   0.967 -0.5325  0.1045  0.8528
 3928SOL     OW18641   2.062   0.678   6.059 -0.0974 -0.3695 -0.3232
 3928SOL    HW118642   2.014   0.746   6.013  1.2108 -0.3746 -1.7623
 3928SOL    HW218643   2.086   0.615   5.992  2.1753 -0.2055  0.2652
 3929SOL     OW18644   8.229   8.773   7.868  0.1415 -0.1702  0.0811
 3929SOL    HW118645   8.156   8.712   7.854 -0.6477  0.7947 -0.1231
 3929SOL    HW218646   8.221   8.837   7.797  1.2609 -0.1039 -0.0017
 3930SOL     OW18647   4.348   4.349  10.635  0.5711 -0.9275  0.3016
 3930SOL    HW118648   4.318   4.383  10.719  0.7687  0.2179 -0.0861
 3930SOL    HW218649   4.267   4.321  10.591  0.3360 -0.2764  0.3193
 3931SOL     OW18650   9.824   3.571   9.697 -0.4059  0.0852 -0.7128
 3931SOL    HW118651   9.908   3.590   9.739 -0.1376 -2.6110  0.1620
 3931SOL    HW218652   9.845   3.505   9.631 -1.9481 -1.3876  0.2109
 3932SOL     OW18653   3.870   3.423   9.562  0.4269 -0.6875 -0.1971
 3932SOL    HW118654   3.852   3.496   9.621 -1.7387 -0.6272 -0.8581
 3932SOL    HW218655   3.815   3.352   9.595  2.3143 -2.0111  0.2836
 3933SOL     OW18656   5.265   5.208   5.743  0.3531 -0.6106 -0.0454
 3933SOL    HW118657   5.197   5.152   5.782  0.1504 -0.0802  0.3892
 3933SOL    HW218658   5.295   5.263   5.816  1.0657 -0.6592 -0.2973
 3934SOL     OW18659   1.996   6.658   3.490 -0.0608  0.0917 -0.3533
 3934SOL    HW118660   1.986   6.745   3.451 -0.9884 -0.0589 -0.4749
 3934SOL    HW218661   1.920   6.648   3.547  0.0297 -0.6440 -0.3499
 3935SOL     OW18662   1.481   1.219   5.474 -0.3893  0.2662  0.1917
 3935SOL    HW118663   1.449   1.298   5.518  1.2042  0.5649  0.8532
 3935SOL    HW218664   1.556   1.249   5.423 -0.3329 -0.6604 -0.2773
 3936SOL     OW18665   2.469  11.426  12.515  0.7413 -0.5744  0.6039
 3936SOL    HW118666   2.387  11.466  12.545  0.4849  0.3333 -1.2025
 3936SOL    HW218667   2.455  11.332  12.530 -1.9883 -0.8444 -2.4643
 3937SOL     OW18668   4.692   1.985  10.158  0.5414  0.1940  0.2711
 3937SOL    HW118669   4.733   2.055  10.208  0.7967 -0.3445  0.8401
 3937SOL    HW218670   4.755   1.913  10.161 -0.1163 -0.3943  0.5442
 3938SOL     OW18671  10.773   8.911  12.433 -0.5041  0.5104  0.0597
 3938SOL    HW118672  10.843   8.895  12.369 -1.1382 -0.0282 -0.5165
 3938SOL    HW218673  10.800   8.861  12.510 -0.7318 -0.5127 -0.5072
 3939SOL     OW18674   7.263   5.178   3.459 -0.2978  0.4008  0.1564
 3939SOL    HW118675   7.290   5.150   3.547 -1.1797  1.8546  0.9273
 3939SOL    HW218676   7.333   5.236   3.430  0.1404 -0.3147 -0.2501
 3940SOL     OW18677  10.233   1.084   8.829  0.2151  0.1989 -0.2047
 3940SOL    HW118678  10.160   1.024   8.820  0.5938 -0.2078 -0.6078
 3940SOL    HW218679  10.302   1.033   8.871  0.5407  0.3396 -0.5546
 3941SOL     OW18680   8.604   3.137   7.505 -0.7880  0.3101  0.0984
 3941SOL    HW118681   8.689   3.095   7.517 -0.3029  1.2683  0.1362
 3941SOL    HW218682   8.615   3.191   7.426 -1.5616 -0.0472 -0.2613
 3942SOL     OW18683   4.147   5.166   1.970  0.0573 -0.2595  0.0955
 3942SOL    HW118684   4.135   5.221   1.892 -0.2559 -1.1066 -0.4644
 3942SOL    HW218685   4.184   5.225   2.035 -4.6380  2.0105  1.1607
 3943SOL     OW18686   1.593   9.304  12.427 -0.3467  0.0576 -0.7763
 3943SOL    HW118687   1.555   9.329  12.343 -0.1481  0.0287 -0.8734
 3943SOL    HW218688   1.627   9.386  12.464 -0.1043  0.0056 -0.8891
 3944SOL     OW18689  12.411   2.782   3.245  0.4196  0.3941 -0.1185
 3944SOL    HW118690  12.326   2.788   3.289  0.1889 -0.4754 -0.4413
 3944SOL    HW218691  12.469   2.747   3.312 -0.1940 -2.0787 -0.8053
 3945SOL     OW18692   9.842   5.307   9.916  0.5181 -0.5490  0.0956
 3945SOL    HW118693   9.868   5.300  10.007 -0.4889 -2.3387  0.2890
 3945SOL    HW218694   9.840   5.216   9.884 -0.8726 -0.1255 -1.1805
 3946SOL     OW18695   9.003   3.442  11.913  0.3409  0.1513 -0.7125
 3946SOL    HW118696   8.926   3.469  11.863  1.3909 -0.2180 -2.6016
 3946SOL    HW218697   9.053   3.387  11.853  0.7717 -1.8857  1.3526
 3947SOL     OW18698  10.909   7.139  12.487  0.3334  0.4988 -0.3685
 3947SOL    HW118699  10.875   7.228  12.485 -0.1437  0.3644  0.8677
 3947SOL    HW218700  10.995   7.147  12.528  0.0296  0.3262  0.3184
 3948SOL     OW18701   6.010  12.066  11.539  0.7196 -0.1760 -0.1921
 3948SOL    HW118702   5.991  12.050  11.631 -2.2943 -1.3337 -0.9149
 3948SOL    HW218703   5.969  12.151  11.520  1.1605 -0.0342 -0.5442
 3949SOL     OW18704   2.455   3.613   3.778 -0.1415 -0.0315  0.2332
 3949SOL    HW118705   2.522   3.675   3.750 -0.2017 -0.4299 -0.8548
 3949SOL    HW218706   2.476   3.594   3.869  0.1033  1.2752  0.4744
 3950SOL     OW18707   8.953   6.231   1.065 -0.3076  0.1294  0.3147
 3950SOL    HW118708   8.871   6.208   1.021  0.6161 -0.9712 -0.9165
 3950SOL    HW218709   8.935   6.316   1.105 -1.5220  0.7388 -1.3895
 3951SOL     OW18710  11.157   7.661   4.440 -0.1062 -0.2818 -0.0460
 3951SOL    HW118711  11.176   7.668   4.534 -1.4866  0.4948  0.2115
 3951SOL    HW218712  11.235   7.620   4.402  1.0431  0.6200  1.2406
 3952SOL     OW18713   6.713   8.861  10.875  0.2187  0.8843 -0.4087
 3952SOL    HW118714   6.724   8.798  10.947  2.0616  0.4288 -1.0223
 3952SOL    HW218715   6.635   8.830  10.828  2.3281 -2.5066 -2.0806
 3953SOL     OW18716   8.709  11.504   7.762 -0.1544  0.5161  0.2067
 3953SOL    HW118717   8.710  11.478   7.854 -0.1746  0.1328  0.0987
 3953SOL    HW218718   8.763  11.583   7.759 -0.8005  0.9911  0.6852
 3954SOL     OW18719   9.800   3.856  12.509 -0.1979 -0.6289  0.2376
 3954SOL    HW118720   9.891   3.857  12.537 -0.7394 -1.6076  2.2345
 3954SOL    HW218721   9.769   3.945  12.526  0.7002  0.1292 -1.7940
 3955SOL     OW18722   6.161  11.954   6.500 -0.3467 -0.0266 -0.4085
 3955SOL    HW118723   6.079  11.999   6.521 -1.2772 -1.6473 -0.4673
 3955SOL    HW218724   6.191  11.918   6.583  1.5696  2.4603  0.0924
 3956SOL     OW18725   3.567   3.397   7.627 -0.1624  0.0141 -0.2252
 3956SOL    HW118726   3.563   3.366   7.536  1.3606 -0.7979 -0.0382
 3956SOL    HW218727   3.478   3.387   7.660 -0.7486  0.3623 -1.6332
 3957SOL     OW18728   6.117   8.815  11.345  0.4606 -0.3577 -0.5734
 3957SOL    HW118729   6.136   8.901  11.383  0.0972 -1.0697  1.3195
 3957SOL    HW218730   6.148   8.753  11.411  1.9147 -1.7561 -2.4418
 3958SOL     OW18731   6.653   4.697   3.808 -0.4047  0.6504  0.0658
 3958SOL    HW118732   6.596   4.748   3.865 -0.9675  1.4883 -1.2042
 3958SOL    HW218733   6.600   4.681   3.730 -0.4321 -2.2797  0.5345
 3959SOL     OW18734   2.470  10.802  10.880  0.0121  0.3794  0.1459
 3959SOL    HW118735   2.492  10.710  10.893  0.6565  0.1460 -2.1204
 3959SOL    HW218736   2.546  10.838  10.835 -1.3005  1.3295 -1.4012
 3960SOL     OW18737   6.960   7.113   0.670  0.5037 -0.0807 -0.0346
 3960SOL    HW118738   6.919   7.035   0.707  0.2771 -0.5440 -1.2173
 3960SOL    HW218739   6.894   7.182   0.682  0.5343 -0.1567  0.6323
 3961SOL     OW18740   8.951   1.587   5.008 -0.3159  0.5405  0.5636
 3961SOL    HW118741   8.861   1.555   4.997 -0.6085  1.4644  0.1805
 3961SOL    HW218742   8.948   1.677   4.977  0.6633  0.7020  0.9175
 3962SOL     OW18743   7.902   7.004   5.762 -0.1398 -0.1152  0.3078
 3962SOL    HW118744   7.863   6.919   5.779 -0.2844  0.1228  1.2673
 3962SOL    HW218745   7.944   7.028   5.845 -1.7622  1.6052  0.7054
 3963SOL     OW18746   6.171   5.940   6.166 -0.2667  0.0955 -0.5892
 3963SOL    HW118747   6.255   5.935   6.121 -0.3924 -1.0041 -0.7201
 3963SOL    HW218748   6.183   6.011   6.230  0.6457  0.1668 -0.8217
 3964SOL     OW18749   2.467   5.296   3.722 -0.6506  0.5015 -0.0404
 3964SOL    HW118750   2.436   5.331   3.806  0.3849 -0.3366  0.7190
 3964SOL    HW218751   2.517   5.218   3.746 -1.4780 -0.5303 -1.5556
 3965SOL     OW18752  11.660   7.436   8.135  1.0519 -0.0251 -0.1915
 3965SOL    HW118753  11.589   7.372   8.130  0.6007  0.3988  0.7050
 3965SOL    HW218754  11.630   7.510   8.082  1.2266 -0.2050 -0.5531
 3966SOL     OW18755   2.340   2.555   2.631 -0.5405 -0.0712  0.6694
 3966SOL    HW118756   2.431   2.567   2.656 -0.3302 -1.7190  0.8035
 3966SOL    HW218757   2.325   2.460   2.639 -1.3149 -0.3312 -2.5426
 3967SOL     OW18758   0.807  12.061   9.187  0.3439  0.3074  0.3578
 3967SOL    HW118759   0.884  12.004   9.189  0.3340  0.2477 -0.4178
 3967SOL    HW218760   0.734  12.003   9.169  0.3117  0.5290 -0.2745
 3968SOL     OW18761  10.174   1.420   2.283  0.5114  0.3680 -0.5112
 3968SOL    HW118762  10.149   1.368   2.206 -1.7728 -2.5487  1.9165
 3968SOL    HW218763  10.235   1.364   2.330 -1.2371  0.1625  1.7064
 3969SOL     OW18764  12.086   2.690   3.555  0.0912  0.3981 -0.7886
 3969SOL    HW118765  12.077   2.763   3.617  0.9747 -0.1352 -0.0064
 3969SOL    HW218766  12.011   2.699   3.496 -1.8372 -0.1306  1.4479
 3970SOL     OW18767  10.227   1.535   4.120  0.6622 -0.1137  0.1631
 3970SOL    HW118768  10.310   1.558   4.161  1.2465  1.8330 -1.9422
 3970SOL    HW218769  10.224   1.587   4.040 -2.8257  0.2503  0.3902
 3971SOL     OW18770   2.591   7.947   7.836 -0.1280 -0.1461  0.1476
 3971SOL    HW118771   2.528   7.882   7.805  1.9390 -2.4263  0.3447
 3971SOL    HW218772   2.597   7.932   7.930  1.0705 -0.4104  0.0579
 3972SOL     OW18773   0.768   8.365   8.697 -0.1443 -0.4378 -0.0603
 3972SOL    HW118774   0.793   8.288   8.749 -2.2898 -0.0688  1.6451
 3972SOL    HW218775   0.685   8.341   8.656 -0.2888  0.5797 -0.3932
 3973SOL     OW18776   9.894   1.927  11.138 -0.5551 -0.0100 -0.2225
 3973SOL    HW118777   9.967   1.886  11.184 -1.0542  0.0106  0.6096
 3973SOL    HW218778   9.909   1.906  11.046 -0.8336 -2.1586  0.1720
 3974SOL     OW18779   2.835  11.965  10.596 -0.8263 -0.6854 -0.0531
 3974SOL    HW118780   2.780  12.017  10.654  1.8315 -0.6998  2.7379
 3974SOL    HW218781   2.873  12.029  10.536  0.1149  0.1973  1.4214
 3975SOL     OW18782   6.199  11.681   8.991  0.0356  0.4046 -0.5924
 3975SOL    HW118783   6.124  11.620   8.986  0.2188  0.2442 -1.8843
 3975SOL    HW218784   6.247  11.664   8.910  0.6494  1.5677 -0.4754
 3976SOL     OW18785   7.992   3.905   3.536  0.3214  0.2026 -0.0499
 3976SOL    HW118786   8.081   3.939   3.548  1.0502 -0.9380 -1.7376
 3976SOL    HW218787   7.957   3.956   3.463 -1.0644  1.7211  1.5753
 3977SOL     OW18788   6.030  10.305   8.760 -0.5217 -0.1040  0.0051
 3977SOL    HW118789   5.970  10.295   8.834 -1.9360 -1.4801 -1.2490
 3977SOL    HW218790   6.117  10.300   8.799 -1.2149 -1.6456  1.5079
 3978SOL     OW18791   4.051  12.525  10.576  0.1009  0.0100 -0.0115
 3978SOL    HW118792   3.970  12.474  10.573  0.6502 -0.8534 -1.0773
 3978SOL    HW218793   4.056  12.568  10.491 -1.4755  3.8033  1.5999
 3979SOL     OW18794   6.896  11.202   9.352 -0.3216  0.2373  0.4229
 3979SOL    HW118795   6.852  11.125   9.315 -1.9020  0.7136  1.2499
 3979SOL    HW218796   6.986  11.173   9.368 -0.4401 -0.9125 -0.8497
 3980SOL     OW18797   3.267   6.640  11.795  0.0331 -0.1416 -0.4085
 3980SOL    HW118798   3.261   6.712  11.732  0.8586  1.9498  1.7066
 3980SOL    HW218799   3.178   6.627  11.826 -0.6922 -2.3417 -3.0227
 3981SOL     OW18800   6.428   7.246  11.822  0.0632  0.0336 -0.0837
 3981SOL    HW118801   6.334   7.260  11.839 -0.3172 -2.1843 -0.1164
 3981SOL    HW218802   6.459   7.197  11.898  1.4046  1.3864  0.2718
 3982SOL     OW18803   9.262   7.338  11.282  0.3862 -0.2191  0.2060
 3982SOL    HW118804   9.329   7.331  11.350 -0.8256 -1.9345  1.2904
 3982SOL    HW218805   9.241   7.248  11.260 -2.6396  0.2057  1.0033
 3983SOL     OW18806   6.872   8.163   0.682  0.0338  0.1042  0.0361
 3983SOL    HW118807   6.931   8.209   0.623  0.0880  0.3372  0.2736
 3983SOL    HW218808   6.893   8.197   0.769  1.5063 -1.8096  0.5052
 3984SOL     OW18809   2.164   2.869   4.958  0.1123  0.9079 -0.0834
 3984SOL    HW118810   2.231   2.905   4.899 -0.1702 -0.4106 -1.2752
 3984SOL    HW218811   2.089   2.853   4.901  0.5177 -2.3551  0.1192
 3985SOL     OW18812   5.796   1.165   9.767 -0.1947  0.0567 -0.4937
 3985SOL    HW118813   5.768   1.093   9.711  2.4646  0.2660 -2.3013
 3985SOL    HW218814   5.791   1.242   9.711  0.1297  0.7161  0.3670
 3986SOL     OW18815   6.135   0.590   9.631  0.2064  0.8050  0.5113
 3986SOL    HW118816   6.044   0.610   9.656 -0.2918 -1.2033  0.4901
 3986SOL    HW218817   6.166   0.532   9.701  0.6179 -0.5297 -0.7375
 3987SOL     OW18818  11.825   6.644   3.793 -1.0031  0.4275  0.1467
 3987SOL    HW118819  11.857   6.630   3.704 -0.8979  0.5329  0.1679
 3987SOL    HW218820  11.739   6.602   3.794 -2.1784  2.6428 -0.7776
 3988SOL     OW18821   4.237   4.070   2.196  0.2030 -0.4224  0.2362
 3988SOL    HW118822   4.252   4.160   2.226 -1.9459  0.8116 -1.9869
 3988SOL    HW218823   4.167   4.037   2.253 -0.3133  0.0350 -0.1210
 3989SOL     OW18824   9.825   2.877   2.577  0.4007 -0.3869 -0.0365
 3989SOL    HW118825   9.739   2.918   2.577 -0.3310 -1.8516  0.3892
 3989SOL    HW218826   9.810   2.789   2.611  1.4884 -1.9160 -3.1575
 3990SOL     OW18827   0.111   4.587   8.200 -0.0098 -0.6214 -0.4237
 3990SOL    HW118828   0.141   4.564   8.112 -0.1828 -0.9233 -0.4055
 3990SOL    HW218829   0.055   4.514   8.226 -0.4324 -0.2528 -0.2963
 3991SOL     OW18830   3.003   0.466   0.074  0.1537 -0.7864 -0.3892
 3991SOL    HW118831   3.079   0.482   0.129 -0.0097 -1.3013 -0.0105
 3991SOL    HW218832   2.963   0.552   0.062 -0.4016 -0.8029  1.1521
 3992SOL     OW18833   8.959   9.992  11.470  0.1199 -0.2246 -0.7847
 3992SOL    HW118834   8.892   9.931  11.440  0.5651 -0.1314 -1.9957
 3992SOL    HW218835   8.997  10.029  11.390  0.3234  1.1410 -0.0881
 3993SOL     OW18836   8.211  10.318  11.818 -0.2982 -0.5621 -0.4080
 3993SOL    HW118837   8.242  10.228  11.830  0.2881 -0.1633  1.2846
 3993SOL    HW218838   8.117  10.309  11.802 -0.0499 -1.5322 -1.4868
 3994SOL     OW18839   2.663   3.866   8.214  0.1610 -0.3872 -0.3221
 3994SOL    HW118840   2.678   3.942   8.159 -0.4968  0.6719  0.9031
 3994SOL    HW218841   2.590   3.891   8.271  1.3946 -1.0277  1.6760
 3995SOL     OW18842  12.527   3.143   9.047 -0.1215  0.3070 -0.1973
 3995SOL    HW118843  12.574   3.139   9.130 -0.5600  0.6370  0.0762
 3995SOL    HW218844  12.561   3.221   9.004 -1.5067  1.4948  0.7102
 3996SOL     OW18845   8.981   6.378   7.445 -0.0264  0.8064 -0.1742
 3996SOL    HW118846   8.895   6.401   7.480 -1.2949 -1.4453 -1.6255
 3996SOL    HW218847   9.020   6.322   7.512 -1.4538 -1.5079 -1.1565
 3997SOL     OW18848   2.641   4.983   9.976 -0.6140 -0.7811  0.4345
 3997SOL    HW118849   2.608   5.044  10.041  2.5132  1.0780  0.4921
 3997SOL    HW218850   2.617   5.021   9.892  3.4241  2.2838  0.3424
 3998SOL     OW18851   6.877   0.638  10.872 -0.3451  0.4103  0.2540
 3998SOL    HW118852   6.958   0.674  10.834 -0.8942  1.5988  0.1682
 3998SOL    HW218853   6.846   0.706  10.931 -1.1311 -0.1617  0.5129
 3999SOL     OW18854   3.634   0.718   3.325  0.1510 -0.1721 -0.1523
 3999SOL    HW118855   3.585   0.643   3.291 -2.0298  0.4453  1.4380
 3999SOL    HW218856   3.706   0.679   3.374 -0.3249 -1.2143 -0.2454
 4000SOL     OW18857   2.597   5.869  10.866  0.2811  0.2777 -0.1805
 4000SOL    HW118858   2.618   5.787  10.912 -0.1985 -0.3634 -1.0705
 4000SOL    HW218859   2.536   5.914  10.924  1.2041  0.4216  0.7121
 4001SOL     OW18860  10.370   7.786  10.889  0.8072 -0.7128  0.1541
 4001SOL    HW118861  10.323   7.790  10.973  0.1661 -0.6827 -0.1980
 4001SOL    HW218862  10.310   7.827  10.826  2.0229  0.9071 -0.0030
 4002SOL     OW18863   9.521  12.147  11.996  0.0455 -0.4495 -0.0190
 4002SOL    HW118864   9.561  12.225  11.958  0.2590 -0.6842 -0.2891
 4002SOL    HW218865   9.428  12.168  12.004  0.0016 -0.3880 -0.6578
 4003SOL     OW18866   5.309   3.579   3.608 -0.1103 -0.0290 -0.6717
 4003SOL    HW118867   5.379   3.550   3.550 -1.0167 -1.1291 -1.2535
 4003SOL    HW218868   5.233   3.590   3.551 -0.9691 -0.9303  0.2444
 4004SOL     OW18869   8.464  11.476   0.982 -0.2398 -0.0429  0.3159
 4004SOL    HW118870   8.491  11.558   1.024  0.1232 -0.1758  0.3457
 4004SOL    HW218871   8.484  11.489   0.889 -0.2869 -0.0584  0.3033
 4005SOL     OW18872  11.481   7.117   8.719  0.2143 -0.3545  0.1400
 4005SOL    HW118873  11.511   7.045   8.663  0.4564 -0.0788 -0.0875
 4005SOL    HW218874  11.485   7.194   8.662 -0.8168 -0.2937  0.1420
 4006SOL     OW18875  10.932   2.122  10.522  0.0896  0.0093  0.5197
 4006SOL    HW118876  10.843   2.139  10.552 -0.2262 -0.7977  0.0746
 4006SOL    HW218877  10.972   2.069  10.592 -0.6606 -1.9092 -0.4242
 4007SOL     OW18878   9.078   5.454   7.723  0.0460 -0.7905  0.1140
 4007SOL    HW118879   9.042   5.478   7.638  0.8409 -0.4921 -0.1487
 4007SOL    HW218880   9.013   5.394   7.760 -1.3676  0.7332  0.2324
 4008SOL     OW18881   1.610   9.698   5.382  0.1439  0.1120 -0.1974
 4008SOL    HW118882   1.672   9.738   5.321  0.4245  1.9668  1.1969
 4008SOL    HW218883   1.665   9.661   5.451 -0.2332 -0.3896 -0.1578
 4009SOL     OW18884   6.709   7.180  11.331 -0.0653  0.6358  0.1721
 4009SOL    HW118885   6.620   7.146  11.339 -0.2060  0.3311 -2.1189
 4009SOL    HW218886   6.700   7.274  11.350 -0.9846  0.6951 -0.4834
 4010SOL     OW18887  11.813   4.149   0.563  0.1007 -1.0360 -0.1114
 4010SOL    HW118888  11.898   4.173   0.524 -1.1047  2.5859 -0.8826
 4010SOL    HW218889  11.822   4.173   0.656 -0.1489 -0.3221 -0.2644
 4011SOL     OW18890   1.470   7.665  10.984  0.2983 -0.1613 -0.0831
 4011SOL    HW118891   1.420   7.695  10.908 -0.6177 -0.5532  0.3368
 4011SOL    HW218892   1.481   7.743  11.037 -0.8370 -0.2531  0.3296
 4012SOL     OW18893   4.654   4.327   7.684  0.0492 -0.6402 -0.1933
 4012SOL    HW118894   4.621   4.337   7.594  2.1083 -1.1055 -1.0496
 4012SOL    HW218895   4.613   4.399   7.732 -1.7197 -0.8473 -1.3002
 4013SOL     OW18896   9.430   7.026   9.570 -0.0038  0.2538  0.0316
 4013SOL    HW118897   9.340   7.054   9.584 -0.6338 -1.0198 -1.2960
 4013SOL    HW218898   9.451   6.972   9.646 -0.6727 -0.1938 -0.1017
 4014SOL     OW18899   1.172   3.652   1.429 -0.0475  0.6480 -0.1492
 4014SOL    HW118900   1.148   3.640   1.521 -1.8987 -1.4232 -0.8154
 4014SOL    HW218901   1.091   3.682   1.387  0.6022  0.9369 -1.2288
 4015SOL     OW18902   3.234   8.281   0.585 -0.1361 -0.0382 -0.8376
 4015SOL    HW118903   3.214   8.190   0.567 -1.9011  0.2908 -0.6688
 4015SOL    HW218904   3.195   8.299   0.670  0.0208  0.9280 -0.9524
 4016SOL     OW18905   6.818   3.988  11.402 -0.0057 -0.2711 -0.3663
 4016SOL    HW118906   6.765   3.909  11.403 -0.0304 -0.3285 -2.2155
 4016SOL    HW218907   6.823   4.012  11.309  1.1942  1.0884  0.0152
 4017SOL     OW18908   7.829   7.666   7.332  0.4011 -0.0886  0.1328
 4017SOL    HW118909   7.905   7.651   7.276  1.2120  0.0129  1.1810
 4017SOL    HW218910   7.774   7.727   7.282  1.5996  0.8177 -0.1313
 4018SOL     OW18911   2.691  10.582   2.491  0.6149 -0.2153 -0.3223
 4018SOL    HW118912   2.691  10.496   2.449  0.2540 -0.3280 -0.0928
 4018SOL    HW218913   2.644  10.569   2.574  0.2909  0.2702 -0.4264
 4019SOL     OW18914  10.665  12.271   2.021  0.5672  0.1755 -0.5587
 4019SOL    HW118915  10.700  12.289   2.108  0.5844  2.0014 -0.9112
 4019SOL    HW218916  10.730  12.308   1.961  0.2689 -0.5335 -1.3343
 4020SOL     OW18917   1.394   9.233   3.179  0.2347  0.4284  0.1955
 4020SOL    HW118918   1.398   9.326   3.203  1.0514  0.8668 -1.4405
 4020SOL    HW218919   1.453   9.226   3.103  1.9549 -1.8861  1.6270
 4021SOL     OW18920   7.477   9.354  11.920 -0.0054 -0.1207 -0.3680
 4021SOL    HW118921   7.462   9.346  12.014 -1.0466 -2.1486 -0.6558
 4021SOL    HW218922   7.462   9.266  11.886 -0.7046  0.7937 -2.5768
 4022SOL     OW18923   3.158  10.934   1.564 -0.2262 -0.0693  0.3502
 4022SOL    HW118924   3.128  10.979   1.643 -1.8217  1.3923 -0.9934
 4022SOL    HW218925   3.087  10.946   1.501  1.0697 -1.0021 -1.4003
 4023SOL     OW18926   8.050   6.751   7.403  0.0533 -0.0119  0.3985
 4023SOL    HW118927   7.961   6.720   7.419  0.3078 -0.8846  0.2136
 4023SOL    HW218928   8.084   6.771   7.490 -0.4538  0.7079  0.4335
 4024SOL     OW18929   2.725   5.610   2.633 -0.3925 -0.3441 -0.2179
 4024SOL    HW118930   2.780   5.625   2.710  0.9081 -1.3185 -0.9134
 4024SOL    HW218931   2.650   5.561   2.667 -0.2907  0.0209  0.5677
 4025SOL     OW18932  11.624  10.498   3.041 -0.3252  0.1002  0.0457
 4025SOL    HW118933  11.600  10.502   3.133  2.1099 -2.3533  0.9299
 4025SOL    HW218934  11.715  10.529   3.038 -0.2905 -0.0372 -1.4793
 4026SOL     OW18935   7.377  11.174  11.439  0.9042  0.0475  0.1312
 4026SOL    HW118936   7.316  11.244  11.417 -0.0551 -0.1664  1.9212
 4026SOL    HW218937   7.326  11.094  11.431  1.6364 -0.3604 -0.6527
 4027SOL     OW18938   4.534  12.454  10.233  0.0113 -0.1875  0.6162
 4027SOL    HW118939   4.550  12.361  10.218 -0.0534 -0.0887 -0.1104
 4027SOL    HW218940   4.618  12.496  10.218  0.0565 -0.1325  1.0090
 4028SOL     OW18941   1.711   6.453   1.833  0.5834 -0.0199 -0.1647
 4028SOL    HW118942   1.680   6.536   1.870  0.6112  0.4068 -1.0819
 4028SOL    HW218943   1.736   6.475   1.743  0.0475 -1.1418 -0.6004
 4029SOL     OW18944  10.997   5.746   7.208  0.2168 -0.1018 -0.1025
 4029SOL    HW118945  11.087   5.777   7.218 -0.3252  0.9780  2.1002
 4029SOL    HW218946  10.950   5.821   7.171 -0.1233 -0.0427  0.4451
 4030SOL     OW18947   8.577   2.201   2.986 -0.1286  0.2927 -0.3969
 4030SOL    HW118948   8.529   2.236   3.062  1.4313  2.3841 -0.2790
 4030SOL    HW218949   8.548   2.255   2.913 -1.3165 -1.4515 -1.2772
 4031SOL     OW18950   7.729   4.993   5.060 -0.0784 -0.1457  0.1560
 4031SOL    HW118951   7.695   5.049   5.130  0.4016  3.1974 -2.0791
 4031SOL    HW218952   7.812   4.960   5.094 -0.8061 -0.2974  1.8917
 4032SOL     OW18953   2.092   6.695   4.046  0.3207 -0.1475  0.3252
 4032SOL    HW118954   2.057   6.606   4.051 -0.2486  0.1006  1.0264
 4032SOL    HW218955   2.136   6.700   3.961  0.6862 -1.2143  0.4394
 4033SOL     OW18956   1.788   4.718   4.311 -0.1916  0.5709 -0.0338
 4033SOL    HW118957   1.766   4.711   4.218  0.4831  1.3270 -0.2584
 4033SOL    HW218958   1.787   4.812   4.329  0.8688  0.5060  0.4289
 4034SOL     OW18959   7.130   0.519  10.320 -0.1846  0.1717  0.3887
 4034SOL    HW118960   7.111   0.444  10.263 -0.4209  0.4638  0.0844
 4034SOL    HW218961   7.046   0.541  10.360 -0.9736  2.5903 -2.2962
 4035SOL     OW18962   3.767   1.868   2.614 -0.2638 -0.1361  0.0954
 4035SOL    HW118963   3.718   1.943   2.580 -0.4073  0.3069  1.2223
 4035SOL    HW218964   3.700   1.812   2.653 -0.0043 -0.0862  0.6269
 4036SOL     OW18965  10.611   2.188   8.192  0.6068  0.3754 -0.2161
 4036SOL    HW118966  10.546   2.259   8.186 -0.7111 -0.6363  1.3165
 4036SOL    HW218967  10.643   2.192   8.282  1.6244 -0.0702 -0.5395
 4037SOL     OW18968  11.053   9.655   0.469 -0.4829  0.1363  0.2045
 4037SOL    HW118969  10.963   9.651   0.437 -0.1641 -1.4519 -0.5504
 4037SOL    HW218970  11.070   9.569   0.507  0.5665  0.5734  0.7924
 4038SOL     OW18971   1.886   2.304   4.803  0.2362 -0.5058  0.2443
 4038SOL    HW118972   1.865   2.383   4.853  0.1123 -1.5729  1.9565
 4038SOL    HW218973   1.952   2.259   4.855  0.6194 -1.3456 -0.9110
 4039SOL     OW18974   2.032  12.568   5.010 -1.2974  0.7974 -0.0480
 4039SOL    HW118975   2.087  12.575   4.932 -1.5471  2.7752 -0.0816
 4039SOL    HW218976   2.066  12.491   5.056  1.0484  1.5253 -0.4229
 4040SOL     OW18977   5.131  11.151   6.082  0.4302  0.4343 -0.0640
 4040SOL    HW118978   5.185  11.102   6.020  0.2946 -0.2326  0.3288
 4040SOL    HW218979   5.182  11.229   6.102  0.8662  0.2261 -0.3437
 4041SOL     OW18980   2.315   3.751   3.429 -0.2083 -0.0298 -0.1163
 4041SOL    HW118981   2.385   3.806   3.463 -1.8653  1.2080  1.4553
 4041SOL    HW218982   2.296   3.787   3.342  0.5534  0.1103 -0.2311
 4042SOL     OW18983   7.973   4.096   5.184  0.0590 -0.0263 -0.0954
 4042SOL    HW118984   8.064   4.114   5.206 -0.3204  1.2000  0.5934
 4042SOL    HW218985   7.977   4.029   5.116  1.4627 -0.0704  0.0054
 4043SOL     OW18986   6.007  10.746   2.477  0.1683 -0.0936  0.3553
 4043SOL    HW118987   5.938  10.812   2.465  0.6614  0.6021  1.2657
 4043SOL    HW218988   5.959  10.664   2.491 -0.4519  0.1524 -0.2504
 4044SOL     OW18989   6.834   2.043   5.360  0.2122 -0.0287  0.2411
 4044SOL    HW118990   6.895   2.064   5.289 -1.3708  1.1738 -0.8374
 4044SOL    HW218991   6.859   2.102   5.432  0.2084  0.6122 -0.2722
 4045SOL     OW18992   7.960   5.149   7.320 -0.0096  0.0473 -0.1011
 4045SOL    HW118993   7.991   5.083   7.258  0.7510  1.3144 -1.1437
 4045SOL    HW218994   7.890   5.194   7.273  1.1166  1.5575 -0.4176
 4046SOL     OW18995   5.346   1.215   1.656 -0.3212  0.3709 -0.5359
 4046SOL    HW118996   5.292   1.219   1.577 -1.9955 -1.2474  0.4401
 4046SOL    HW218997   5.285   1.231   1.728  1.0389  1.1274  0.5022
 4047SOL     OW18998   3.482  12.162   9.926 -0.2482 -0.0008 -0.2842
 4047SOL    HW118999   3.431  12.081   9.921 -0.3880  0.1652 -1.7890
 4047SOL    HW219000   3.566  12.140   9.884  0.6392 -0.0220  1.4105
 4048SOL     OW19001   9.586   5.819   2.030  0.2806  0.1919  0.1920
 4048SOL    HW119002   9.654   5.752   2.028  0.7435  0.6580 -1.2193
 4048SOL    HW219003   9.572   5.842   1.938 -2.6242 -0.7036  0.2973
 4049SOL     OW19004  12.137   1.483   2.485  0.0754 -0.2207  0.6180
 4049SOL    HW119005  12.166   1.528   2.406  0.3773 -0.6853  0.4565
 4049SOL    HW219006  12.103   1.552   2.542  1.0198  0.2882  0.5927
 4050SOL     OW19007   8.129   0.136   9.097  0.0832  0.5480 -0.0800
 4050SOL    HW119008   8.198   0.183   9.052  1.2585 -0.4722  0.5959
 4050SOL    HW219009   8.147   0.043   9.080 -1.1290  0.2562  0.0930
 4051SOL     OW19010   0.536  11.802   1.996  0.1487 -0.1394  0.2230
 4051SOL    HW119011   0.526  11.865   2.067  0.3033 -1.1514  1.1742
 4051SOL    HW219012   0.500  11.721   2.031  2.8235 -1.4261  0.2666
 4052SOL     OW19013   5.478   0.464  12.090 -0.2629 -0.1772  0.3978
 4052SOL    HW119014   5.528   0.535  12.050  1.1190 -1.0570  0.4645
 4052SOL    HW219015   5.392   0.468  12.048  0.1035  0.9261 -0.2866
 4053SOL     OW19016   6.521   9.676   7.703 -0.3111 -0.4580 -0.4650
 4053SOL    HW119017   6.603   9.655   7.748 -0.0802  1.1817 -0.0239
 4053SOL    HW219018   6.534   9.648   7.613  0.4392 -0.9059 -0.2231
 4054SOL     OW19019  10.653   0.289   3.798 -0.2376  0.8273 -0.7435
 4054SOL    HW119020  10.701   0.370   3.776 -0.1134  1.1753  0.6986
 4054SOL    HW219021  10.719   0.220   3.791 -0.2539  0.8786 -1.6060
 4055SOL     OW19022   8.169   4.843   5.262 -0.1164  0.1376 -0.1551
 4055SOL    HW119023   8.236   4.880   5.205  0.8271 -3.3223 -1.5647
 4055SOL    HW219024   8.097   4.822   5.203 -0.3032 -0.8731  0.4099
 4056SOL     OW19025   6.832   1.069  12.198  0.2294  0.1423  0.0878
 4056SOL    HW119026   6.857   1.018  12.275 -0.4560 -0.3974 -0.0388
 4056SOL    HW219027   6.796   1.150  12.234 -1.0613 -0.5390  0.3961
 4057SOL     OW19028   8.193   0.039  12.542 -0.5279  0.2789 -0.2425
 4057SOL    HW119029   8.282   0.050  12.576  0.1677 -2.3614 -0.9349
 4057SOL    HW219030   8.138   0.090  12.601  1.1744 -0.0785  1.7620
 4058SOL     OW19031   1.432   2.096   0.351  0.5559  0.0604 -0.1158
 4058SOL    HW119032   1.418   2.114   0.444  0.1706 -1.9017  0.2466
 4058SOL    HW219033   1.498   2.027   0.350  0.6079  0.1137 -1.3117
 4059SOL     OW19034   4.816   1.018   5.228  0.5945 -0.4075 -0.0489
 4059SOL    HW119035   4.872   1.010   5.305 -2.4115 -1.1866  2.2951
 4059SOL    HW219036   4.764   0.937   5.229 -1.3538  0.7391 -1.2862
 4060SOL     OW19037   1.152   4.545   2.015 -0.4595 -0.0607 -0.1918
 4060SOL    HW119038   1.179   4.576   1.929  1.0869  0.9519  0.6107
 4060SOL    HW219039   1.233   4.542   2.066 -1.3341 -0.6531  1.2209
 4061SOL     OW19040   4.595  11.728   5.500  0.8024 -0.7014  0.3762
 4061SOL    HW119041   4.529  11.660   5.515  0.1332 -0.3381 -0.8286
 4061SOL    HW219042   4.677  11.680   5.493  0.4794 -1.2946  0.5523
 4062SOL     OW19043   8.338   5.926   8.228  0.3129  0.1492  0.0510
 4062SOL    HW119044   8.393   5.975   8.167  2.1035 -0.9559  0.6865
 4062SOL    HW219045   8.251   5.966   8.221  1.3608  2.4701 -0.4294
 4063SOL     OW19046   4.588   1.080  12.336 -0.4124 -0.4815 -0.6233
 4063SOL    HW119047   4.678   1.068  12.305 -0.6368 -1.2207 -1.0236
 4063SOL    HW219048   4.588   1.165  12.379  0.5150 -0.5471 -0.4845
 4064SOL     OW19049   2.156   9.172   6.554 -0.1624  0.0322 -0.3216
 4064SOL    HW119050   2.104   9.148   6.477 -0.1560  0.5027 -0.4735
 4064SOL    HW219051   2.108   9.134   6.628  0.5367 -1.5971 -0.6547
 4065SOL     OW19052   2.725   0.845  11.378 -0.2232  0.4326 -0.0625
 4065SOL    HW119053   2.632   0.853  11.399  0.2181  1.5678  1.6284
 4065SOL    HW219054   2.747   0.755  11.399 -1.3912 -0.5960 -2.6973
 4066SOL     OW19055   6.544  11.854   7.173 -0.7545 -0.6524 -0.6358
 4066SOL    HW119056   6.541  11.911   7.250 -1.3560  0.1471 -1.2314
 4066SOL    HW219057   6.582  11.909   7.104  0.0232 -1.4398 -0.8571
 4067SOL     OW19058   1.491   3.555   8.502 -0.3881 -1.0701  0.1010
 4067SOL    HW119059   1.585   3.562   8.521 -0.3862 -1.2787  0.1613
 4067SOL    HW219060   1.481   3.600   8.418 -0.4158 -0.0206  0.6480
 4068SOL     OW19061   2.261   5.317   8.729 -0.0773  0.3714  0.1153
 4068SOL    HW119062   2.341   5.279   8.693  0.6578  0.5065  1.5155
 4068SOL    HW219063   2.247   5.397   8.679 -1.0864 -1.1610 -2.2058
 4069SOL     OW19064   3.513   5.865   1.223  0.4158  0.2381 -0.0040
 4069SOL    HW119065   3.524   5.804   1.150  0.5215 -0.7195  0.7800
 4069SOL    HW219066   3.590   5.922   1.219  2.2479 -1.9567  1.3054
 4070SOL     OW19067   4.629  11.321   2.881  0.0223  0.3163  0.3748
 4070SOL    HW119068   4.544  11.333   2.924  0.2189  0.4582  0.7339
 4070SOL    HW219069   4.690  11.370   2.937  0.3604  0.1008  0.1945
 4071SOL     OW19070   1.872  11.102   4.640  0.9337  0.6277 -0.4459
 4071SOL    HW119071   1.885  11.193   4.612  0.1789  0.9356  0.1761
 4071SOL    HW219072   1.804  11.107   4.707  1.8334 -0.2521  0.5565
 4072SOL     OW19073  11.016   6.770   3.212 -0.0690  0.6800  0.3352
 4072SOL    HW119074  10.966   6.838   3.258 -0.7552  0.2438  0.2456
 4072SOL    HW219075  10.974   6.764   3.126 -0.9900 -0.8803  0.8495
 4073SOL     OW19076   3.198   8.529   7.680 -0.3629 -0.0029 -0.0388
 4073SOL    HW119077   3.286   8.565   7.671  0.2926 -1.6361 -0.5098
 4073SOL    HW219078   3.150   8.562   7.603  0.3086 -0.3460 -0.6180
 4074SOL     OW19079   8.073   9.517   0.814  0.6116 -0.0840 -0.2094
 4074SOL    HW119080   8.000   9.573   0.839 -0.5106 -1.4525 -0.3133
 4074SOL    HW219081   8.150   9.574   0.820 -0.6571  1.9923 -2.1349
 4075SOL     OW19082   6.534   4.830   1.067  0.0739  0.4814  0.3271
 4075SOL    HW119083   6.609   4.773   1.082 -0.8399 -0.2973  2.3107
 4075SOL    HW219084   6.474   4.777   1.015  0.1578  0.4543  0.2574
 4076SOL     OW19085  10.468   5.006   3.741 -0.4118  0.5481 -0.0103
 4076SOL    HW119086  10.445   4.914   3.745  0.1674  0.2868 -1.9550
 4076SOL    HW219087  10.561   5.009   3.766  0.2514  0.2517 -2.2529
 4077SOL     OW19088   7.503  10.449   7.988 -0.3173 -1.1000 -0.2658
 4077SOL    HW119089   7.568  10.486   8.048 -0.1972  0.0235 -1.0708
 4077SOL    HW219090   7.550  10.377   7.944  0.3858 -0.3068 -0.8364
 4078SOL     OW19091   8.893   1.238   1.754 -0.1207  0.1262 -0.4851
 4078SOL    HW119092   8.940   1.154   1.753  0.2150  0.3047 -0.0978
 4078SOL    HW219093   8.805   1.216   1.784  0.1172 -0.0155  0.1257
 4079SOL     OW19094  12.332   5.558  10.217  0.2920 -0.0741  0.3026
 4079SOL    HW119095  12.390   5.626  10.252  0.5493 -0.0040 -0.2423
 4079SOL    HW219096  12.283   5.527  10.292 -0.3547  1.2305  0.4543
 4080SOL     OW19097   2.466   5.840   7.877  0.0581 -0.2464 -0.1274
 4080SOL    HW119098   2.455   5.801   7.964  0.7945 -1.0677 -0.3839
 4080SOL    HW219099   2.550   5.886   7.882  0.6026 -1.1512 -0.6985
 4081SOL     OW19100   5.876  12.512   4.676 -0.1345  0.8489 -0.0421
 4081SOL    HW119101   5.829  12.585   4.636  0.2662  0.8443 -0.5295
 4081SOL    HW219102   5.837  12.434   4.635  0.4942  0.8568 -0.6772
 4082SOL     OW19103   0.959   7.334   3.932  0.2720  0.7320  0.5790
 4082SOL    HW119104   1.033   7.357   3.988  0.1501 -1.8671  1.9847
 4082SOL    HW219105   0.886   7.320   3.994 -1.0325  1.8865 -0.6446
 4083SOL     OW19106   1.898   9.752   6.128  0.2417  0.7809 -0.0549
 4083SOL    HW119107   1.842   9.826   6.154 -2.1627 -0.8246 -0.2822
 4083SOL    HW219108   1.894   9.753   6.032 -1.0172 -0.4149 -0.0519
 4084SOL     OW19109   3.508   8.921   1.745 -0.3734  0.2443  0.4297
 4084SOL    HW119110   3.525   9.015   1.744  1.6345 -0.0331  2.0643
 4084SOL    HW219111   3.593   8.881   1.760 -1.5345 -1.7042  2.5011
 4085SOL     OW19112   2.417   1.190   6.364  0.0798 -0.3912  0.1119
 4085SOL    HW119113   2.490   1.136   6.335  1.5017  0.3150  2.1275
 4085SOL    HW219114   2.398   1.159   6.453 -1.0194  0.4715  0.2067
 4086SOL     OW19115   7.913  10.977   8.742 -0.4810  0.4446  0.7549
 4086SOL    HW119116   7.916  10.893   8.790 -3.2225 -0.8119 -0.9947
 4086SOL    HW219117   7.823  11.007   8.754 -0.8124  0.8965 -2.1612
 4087SOL     OW19118   6.873   0.424  12.380 -0.2714  0.1793  0.0500
 4087SOL    HW119119   6.943   0.468  12.331 -0.9276  0.2850 -0.8098
 4087SOL    HW219120   6.913   0.342  12.409  0.6869  0.9203  0.9086
 4088SOL     OW19121   8.574   3.470  10.022  0.1919 -0.2218 -0.8416
 4088SOL    HW119122   8.610   3.399   9.969 -0.8219  0.3827 -2.4166
 4088SOL    HW219123   8.599   3.550   9.975 -0.2103  0.3640 -0.0768
 4089SOL     OW19124   7.396   0.069  10.099 -0.4511 -0.5546 -0.7421
 4089SOL    HW119125   7.399   0.015  10.020  0.5203 -0.2559 -0.9119
 4089SOL    HW219126   7.308   0.053  10.134  0.0127 -2.7614 -0.4290
 4090SOL     OW19127   1.203   8.010   0.389  0.0167  0.2099 -0.0545
 4090SOL    HW119128   1.170   7.920   0.383  1.2810 -0.2327 -0.7772
 4090SOL    HW219129   1.180   8.038   0.477 -0.9167 -0.6151 -0.0211
 4091SOL     OW19130   1.970  10.896  11.974  0.5590  0.0635  0.5532
 4091SOL    HW119131   2.033  10.924  12.040 -0.0052 -0.0912  1.1682
 4091SOL    HW219132   1.968  10.801  11.980  0.4849  0.0483  0.3259
 4092SOL     OW19133   3.584  11.722   4.346  0.2797  0.8283 -0.6232
 4092SOL    HW119134   3.620  11.694   4.261 -0.0614  0.1088 -0.5361
 4092SOL    HW219135   3.535  11.646   4.377 -0.0733  1.2911 -0.0431
 4093SOL     OW19136   5.577  12.429   4.313 -0.0830 -0.7767 -0.1102
 4093SOL    HW119137   5.646  12.378   4.269  0.3762 -0.3019  0.0465
 4093SOL    HW219138   5.496  12.383   4.292  0.2785 -1.3210 -0.3367
 4094SOL     OW19139   8.659   0.580   1.548  0.3796  0.0726 -0.1167
 4094SOL    HW119140   8.565   0.583   1.565  0.4242 -0.8919  0.3204
 4094SOL    HW219141   8.667   0.580   1.452 -0.1143 -1.1012 -0.1659
 4095SOL     OW19142   6.334   5.840   9.655 -0.4239 -0.2698 -0.1311
 4095SOL    HW119143   6.256   5.807   9.610  1.2426 -0.7160 -2.8785
 4095SOL    HW219144   6.364   5.912   9.600  1.0670 -0.0617  0.9196
 4096SOL     OW19145  11.581   9.169   8.796 -0.1966  0.1117 -0.1413
 4096SOL    HW119146  11.656   9.114   8.818  0.3749  0.8119 -0.2839
 4096SOL    HW219147  11.600   9.253   8.839 -0.1890  0.7596 -1.3531
 4097SOL     OW19148   7.428   4.229   7.884  0.0229 -0.1003  0.3542
 4097SOL    HW119149   7.504   4.175   7.863  1.2302  2.1844 -1.5686
 4097SOL    HW219150   7.367   4.212   7.813 -0.5617 -0.5936  0.9582
 4098SOL     OW19151   0.710   9.227  11.183  0.5397 -0.0199  0.0118
 4098SOL    HW119152   0.712   9.203  11.090 -2.0409 -0.1746 -0.0603
 4098SOL    HW219153   0.713   9.322  11.184  0.0598 -0.0007 -0.2711
 4099SOL     OW19154   9.486   8.007   0.509 -0.0350 -0.1756 -0.0042
 4099SOL    HW119155   9.481   8.072   0.579 -1.4548 -1.2669  0.9812
 4099SOL    HW219156   9.536   7.934   0.547 -1.1245 -0.9249  0.0398
 4100SOL     OW19157   2.295   0.087   2.532  0.0790  0.0633 -0.1668
 4100SOL    HW119158   2.388   0.082   2.514  0.2983  2.7183 -0.1567
 4100SOL    HW219159   2.286   0.050   2.620  1.0364 -0.5635 -0.3188
 4101SOL     OW19160   0.519  10.192   7.299  0.1592  0.1884 -0.6743
 4101SOL    HW119161   0.433  10.154   7.315 -0.1894 -0.3917 -3.3762
 4101SOL    HW219162   0.516  10.276   7.344 -1.9659  0.3240 -0.9382
 4102SOL     OW19163   5.336   3.352   5.089  0.1840  0.9354  0.1147
 4102SOL    HW119164   5.372   3.383   5.006  3.6995 -0.0559  1.1176
 4102SOL    HW219165   5.331   3.430   5.144  1.2637  1.0351  0.0804
 4103SOL     OW19166   3.708   8.408   4.931  0.8707  0.3625  0.1268
 4103SOL    HW119167   3.656   8.474   4.885 -0.9206 -1.0282  0.0721
 4103SOL    HW219168   3.748   8.356   4.861 -0.1306 -0.4179  0.1024
 4104SOL     OW19169   1.415  12.381   2.313  0.2860  0.4889  0.4999
 4104SOL    HW119170   1.381  12.455   2.262 -1.3644 -0.4468  0.1984
 4104SOL    HW219171   1.369  12.305   2.279  0.5995 -0.4356  2.0836
 4105SOL     OW19172   1.741   4.289   1.663 -0.2235  0.1578 -0.0496
 4105SOL    HW119173   1.732   4.341   1.583 -1.2998 -0.7612 -0.5478
 4105SOL    HW219174   1.831   4.306   1.693  0.4704 -0.1166 -1.8875
 4106SOL     OW19175   7.179   9.773   4.861  0.2446 -0.5912  0.6179
 4106SOL    HW119176   7.148   9.751   4.949 -2.2906  1.0743  0.2203
 4106SOL    HW219177   7.123   9.723   4.802 -0.8233  1.3401 -0.0964
 4107SOL     OW19178   0.941   7.300   1.430  0.0812 -0.2317 -0.5314
 4107SOL    HW119179   0.993   7.225   1.461 -0.3815 -0.9517 -1.4445
 4107SOL    HW219180   0.998   7.343   1.366 -0.3028 -0.8461 -1.3090
 4108SOL     OW19181   9.551   5.041   9.693 -0.5600  0.5845 -0.6635
 4108SOL    HW119182   9.467   4.995   9.694  0.2001 -0.9189 -2.0472
 4108SOL    HW219183   9.597   5.007   9.769 -0.4837  0.0049 -0.9688
 4109SOL     OW19184   0.470  10.093   4.247  0.5525  0.8389  0.0008
 4109SOL    HW119185   0.475  10.010   4.199  0.4547  0.5527  0.4813
 4109SOL    HW219186   0.378  10.101   4.272  0.9998 -0.2617  2.2875
 4110SOL     OW19187   9.684  10.249  10.900 -0.3508 -0.1608  0.3197
 4110SOL    HW119188   9.654  10.284  10.816 -0.4905  1.4836  1.0110
 4110SOL    HW219189   9.751  10.185  10.877  0.4772  1.1176 -1.0465
 4111SOL     OW19190   9.968   7.251   3.150 -0.0767 -0.0153 -0.7689
 4111SOL    HW119191   9.876   7.224   3.158  0.0490 -1.1423 -2.7120
 4111SOL    HW219192  10.016   7.189   3.203 -0.4428  0.8738  0.6610
 4112SOL     OW19193   7.613  11.072   7.534 -0.0110 -0.1793  0.3333
 4112SOL    HW119194   7.530  11.075   7.487 -0.6479  0.7507  1.4610
 4112SOL    HW219195   7.671  11.130   7.485 -0.6573  0.7544  0.6559
 4113SOL     OW19196  10.093   1.096   5.328  0.3825 -0.0783  0.1590
 4113SOL    HW119197  10.171   1.067   5.281 -0.0072  1.6451 -1.6802
 4113SOL    HW219198  10.086   1.189   5.309 -1.5148  0.0448  1.1918
 4114SOL     OW19199   9.223   2.054   6.512  0.8505  0.4260 -0.0872
 4114SOL    HW119200   9.234   2.058   6.417 -0.4463  0.5829 -0.2500
 4114SOL    HW219201   9.312   2.045   6.546  1.2328 -1.0473 -1.3766
 4115SOL     OW19202   0.509   2.401  11.200  0.1683 -0.4717  0.6040
 4115SOL    HW119203   0.562   2.329  11.235 -0.6786 -1.4505 -0.0499
 4115SOL    HW219204   0.448   2.358  11.140  0.8034  1.0136 -1.1852
 4116SOL     OW19205   9.552  12.170   2.662  0.1372 -0.2127  0.0667
 4116SOL    HW119206   9.493  12.228   2.614 -0.0403  0.5418  1.1468
 4116SOL    HW219207   9.495  12.099   2.693 -0.0268  0.0191  0.3060
 4117SOL     OW19208   3.807   3.419   0.779 -0.4593 -0.1523  0.0465
 4117SOL    HW119209   3.820   3.485   0.710 -0.5105  0.8473  0.9760
 4117SOL    HW219210   3.888   3.368   0.778 -0.0045  0.5558 -0.0130
 4118SOL     OW19211   6.451   4.773   8.561  0.2501 -0.0413 -0.4041
 4118SOL    HW119212   6.499   4.718   8.623 -0.2816 -0.5473 -0.4236
 4118SOL    HW219213   6.371   4.722   8.542 -2.0603  2.2208  2.3085
 4119SOL     OW19214   4.993   1.808   6.531  0.3679 -0.3438 -0.0565
 4119SOL    HW119215   5.001   1.718   6.563 -0.0346 -0.6332 -0.7461
 4119SOL    HW219216   4.924   1.846   6.585 -1.0181 -1.1378 -1.2048
 4120SOL     OW19217   0.432  10.543   0.843 -0.3239  0.1671  0.2854
 4120SOL    HW119218   0.453  10.451   0.861  0.8296  0.0526 -1.4654
 4120SOL    HW219219   0.349  10.557   0.889 -1.2839 -2.1494 -0.5433
 4121SOL     OW19220  10.486   7.815   1.011 -0.9487 -0.6630  0.6798
 4121SOL    HW119221  10.568   7.820   0.963 -0.5732 -0.4189  1.3321
 4121SOL    HW219222  10.451   7.904   1.009 -1.7160 -0.9676 -0.4649
 4122SOL     OW19223  11.618   8.133   2.895 -0.0363  0.0320  0.2358
 4122SOL    HW119224  11.685   8.098   2.836  0.4713  2.4032 -0.7329
 4122SOL    HW219225  11.655   8.215   2.928 -1.1395 -0.2490  2.3372
 4123SOL     OW19226   1.825   7.084   3.039  0.1411  0.3495  0.4745
 4123SOL    HW119227   1.903   7.049   2.995  0.5003 -0.3445  1.6054
 4123SOL    HW219228   1.846   7.176   3.054  0.3281  0.4068 -0.1133
 4124SOL     OW19229   3.054   3.987   2.041 -0.0490 -0.1142  0.0782
 4124SOL    HW119230   3.148   3.991   2.022 -0.0150 -1.3848 -0.0585
 4124SOL    HW219231   3.014   4.035   1.969  0.4537 -0.0884 -0.1926
 4125SOL     OW19232   9.191   6.503   5.974  0.8951  0.1672 -0.5874
 4125SOL    HW119233   9.167   6.428   6.029 -0.0845  0.4303 -0.6370
 4125SOL    HW219234   9.200   6.466   5.886 -0.3843  0.2365 -0.7596
 4126SOL     OW19235   4.012   1.270   4.813 -0.3395  0.3271 -0.5153
 4126SOL    HW119236   3.996   1.260   4.907 -0.4554  0.1402 -0.5550
 4126SOL    HW219237   3.945   1.332   4.784 -0.2394  0.4631 -0.4549
 4127SOL     OW19238  10.882   4.972   0.735 -0.0499 -0.1693 -0.2032
 4127SOL    HW119239  10.863   4.879   0.732  2.7710 -0.8163 -2.1896
 4127SOL    HW219240  10.959   4.980   0.791  0.5810  0.7454 -1.1581
 4128SOL     OW19241  10.700  10.265   3.032 -0.4534  0.8448 -0.0189
 4128SOL    HW119242  10.745  10.193   3.076 -1.1253 -0.3000 -1.1387
 4128SOL    HW219243  10.646  10.305   3.101  1.9122  2.0509  1.2788
 4129SOL     OW19244   2.986  12.466   5.587 -0.2063  0.4281 -0.3111
 4129SOL    HW119245   2.985  12.560   5.604  1.3211  0.4808 -0.3601
 4129SOL    HW219246   2.911  12.451   5.530 -0.7667  1.5273  0.1193
 4130SOL     OW19247   3.135   7.182  12.178  0.1671 -0.4054 -0.0545
 4130SOL    HW119248   3.229   7.188  12.198  0.0555  0.3428  0.2838
 4130SOL    HW219249   3.115   7.089  12.185  0.7828 -0.5153  0.3527
 4131SOL     OW19250   7.950   2.555   1.450 -0.2414 -0.0244  0.1446
 4131SOL    HW119251   8.035   2.519   1.473  0.1535  0.7919 -0.0007
 4131SOL    HW219252   7.920   2.600   1.529 -0.5487 -0.3037  0.1949
 4132SOL     OW19253   0.673  12.370   2.717 -0.1225 -0.5436 -0.3336
 4132SOL    HW119254   0.721  12.293   2.747 -0.6668 -0.9547 -0.5059
 4132SOL    HW219255   0.632  12.343   2.635 -1.6064 -0.5811  0.3880
 4133SOL     OW19256  11.213  12.495   0.720  0.1298 -0.6231 -0.6497
 4133SOL    HW119257  11.252  12.499   0.633  0.1166 -0.8820 -0.6689
 4133SOL    HW219258  11.119  12.489   0.703  0.1057 -0.3550 -0.6105
 4134SOL     OW19259   5.200   1.574   3.225  0.3142 -0.3906 -0.3149
 4134SOL    HW119260   5.266   1.623   3.176  1.4232 -1.8033 -0.3089
 4134SOL    HW219261   5.180   1.498   3.170 -0.0398 -0.8583  0.4393
 4135SOL     OW19262  12.051   8.449   9.491 -0.3806  0.3743 -0.0881
 4135SOL    HW119263  12.010   8.413   9.412 -1.4375  2.1262 -0.3859
 4135SOL    HW219264  12.112   8.381   9.519  0.1961 -0.2228 -2.5358
 4136SOL     OW19265  12.479   2.777   7.125 -0.2522 -0.3641 -0.8161
 4136SOL    HW119266  12.449   2.809   7.210 -1.6989  0.0293 -1.4415
 4136SOL    HW219267  12.428   2.698   7.110  1.0235 -1.2338 -0.7044
 4137SOL     OW19268   6.747   2.938   6.156 -0.3235  0.4798  0.0787
 4137SOL    HW119269   6.733   2.855   6.109  1.2563  1.2624 -1.9638
 4137SOL    HW219270   6.665   2.986   6.146 -0.8791 -0.3972  0.3387
 4138SOL     OW19271   4.501  11.497   9.724 -0.9817 -0.3871  0.5934
 4138SOL    HW119272   4.410  11.479   9.748 -1.4428  0.6061 -0.2995
 4138SOL    HW219273   4.516  11.588   9.751 -0.3863 -0.4092  0.3652
 4139SOL     OW19274  10.549   2.360   5.107 -0.1959  0.0405 -0.2294
 4139SOL    HW119275  10.519   2.440   5.065  0.3772  0.8643  0.8820
 4139SOL    HW219276  10.590   2.389   5.189  0.4819 -1.3354 -0.0438
 4140SOL     OW19277   9.021   0.379  12.365 -0.2347 -0.5083 -0.1506
 4140SOL    HW119278   9.001   0.303  12.420 -2.3046 -0.5634 -0.9021
 4140SOL    HW219279   9.071   0.343  12.292  2.7656 -0.4039  1.6644
 4141SOL     OW19280   7.062   1.830   5.636 -0.1890 -0.2570  0.4412
 4141SOL    HW119281   7.067   1.900   5.701 -1.9680  1.3627 -1.0374
 4141SOL    HW219282   6.972   1.798   5.643  0.2379 -1.5727  0.2224
 4142SOL     OW19283   6.315   2.615   6.099 -0.0142 -0.0821 -0.2723
 4142SOL    HW119284   6.374   2.666   6.154 -0.9731  0.3762  0.3609
 4142SOL    HW219285   6.301   2.534   6.147  1.2274 -0.8222 -1.1115
 4143SOL     OW19286   6.298   1.222   1.653  0.0564  0.6662 -0.5130
 4143SOL    HW119287   6.229   1.155   1.651 -0.0990  0.7825  0.4617
 4143SOL    HW219288   6.331   1.225   1.563 -0.0242 -0.6203 -0.5968
 4144SOL     OW19289   5.265   3.213   8.332  0.2321 -0.2403  0.3199
 4144SOL    HW119290   5.318   3.264   8.394 -0.4712  2.0474 -0.8622
 4144SOL    HW219291   5.195   3.175   8.385  0.5851  0.3058  1.1884
 4145SOL     OW19292  10.541   5.947   4.905 -0.0187  0.6978  0.1782
 4145SOL    HW119293  10.460   5.896   4.901 -0.3013  1.0315  1.3322
 4145SOL    HW219294  10.533   5.999   4.985  0.0617  2.9370 -1.1977
 4146SOL     OW19295   7.268  10.372   3.863  0.0277  0.5594 -0.3705
 4146SOL    HW119296   7.328  10.317   3.913 -0.8470  1.4378  1.7745
 4146SOL    HW219297   7.296  10.361   3.772  3.1807  0.6299  0.4563
 4147SOL     OW19298  11.072   9.202   4.873 -0.5296 -0.3019  0.8739
 4147SOL    HW119299  11.131   9.164   4.938 -0.1832  0.2279  0.8713
 4147SOL    HW219300  11.031   9.126   4.830  1.8648 -0.7903 -0.7435
 4148SOL     OW19301   2.103   1.436   8.225 -0.1071 -0.8239  0.6080
 4148SOL    HW119302   2.052   1.450   8.305  1.5889 -0.9399  1.7550
 4148SOL    HW219303   2.194   1.442   8.253  0.5501  0.4156 -1.5590
 4149SOL     OW19304   2.233   5.772   1.289  0.8675  0.3281  0.9166
 4149SOL    HW119305   2.272   5.826   1.220 -0.0350  1.1000  1.0000
 4149SOL    HW219306   2.151   5.741   1.251  1.1287 -0.5905  1.0630
 4150SOL     OW19307   2.653   2.507   0.712  0.4877 -0.2133 -0.1748
 4150SOL    HW119308   2.666   2.415   0.689 -0.6066 -0.3922 -0.1527
 4150SOL    HW219309   2.730   2.552   0.679  0.5389 -0.9803 -1.1331
 4151SOL     OW19310  11.583   8.916   2.795  0.3113  0.3302  0.0677
 4151SOL    HW119311  11.558   8.826   2.817 -2.8968  1.0487 -0.1846
 4151SOL    HW219312  11.577   8.920   2.700  0.9085  0.7266  0.0390
 4152SOL     OW19313  10.550  10.309  12.331  0.5022  0.0856 -0.0536
 4152SOL    HW119314  10.634  10.353  12.321  0.4045  0.5648  0.9833
 4152SOL    HW219315  10.540  10.300  12.426 -0.8720  0.5823 -0.1285
 4153SOL     OW19316  11.120  10.800   8.400  0.2145  0.3647 -0.0950
 4153SOL    HW119317  11.119  10.866   8.469 -0.8455 -0.5391  0.7871
 4153SOL    HW219318  11.212  10.794   8.374  0.3379  2.1470 -0.1790
 4154SOL     OW19319   3.297   4.953   1.841  0.3030 -0.2159  0.2459
 4154SOL    HW119320   3.392   4.950   1.849  0.1822 -0.8145  2.1081
 4154SOL    HW219321   3.273   5.043   1.860  0.5574  0.2861 -1.6519
 4155SOL     OW19322  11.925   3.549   8.007  0.5107 -0.1482  0.0979
 4155SOL    HW119323  11.949   3.534   7.916  2.9448 -2.6658  0.9702
 4155SOL    HW219324  11.879   3.469   8.033  1.1405 -0.1100  1.4182
 4156SOL     OW19325   6.228   6.692  10.129  0.1161 -0.4721  0.1588
 4156SOL    HW119326   6.258   6.695  10.039  1.7920 -1.4802  0.6237
 4156SOL    HW219327   6.152   6.634  10.127 -0.6274  0.5035 -0.7635
 4157SOL     OW19328   5.773   0.957   7.086 -0.1377  0.7626  0.0571
 4157SOL    HW119329   5.837   0.958   7.015  0.4220  0.5906  0.5533
 4157SOL    HW219330   5.724   1.039   7.076  0.7039  1.2852  0.1680
 4158SOL     OW19331   0.331   8.768   0.790  0.0277  0.6137  0.2058
 4158SOL    HW119332   0.336   8.834   0.859  0.7572  1.2886 -0.4699
 4158SOL    HW219333   0.353   8.815   0.710  0.5120 -0.4423 -0.3044
 4159SOL     OW19334   1.532   2.599   2.321  0.3978  0.0774 -0.6192
 4159SOL    HW119335   1.572   2.682   2.350 -0.1303  0.6970 -1.6232
 4159SOL    HW219336   1.474   2.624   2.250 -0.8902 -0.9780  0.0151
 4160SOL     OW19337   7.147   2.967   4.769 -0.8213  0.1538  0.1998
 4160SOL    HW119338   7.239   2.977   4.793 -0.6736  1.2881 -0.7628
 4160SOL    HW219339   7.099   2.998   4.846 -0.3804  0.9522  0.1643
 4161SOL     OW19340   1.096   4.905   2.264  0.8223 -0.0281  0.3825
 4161SOL    HW119341   1.033   4.945   2.203  1.7532  0.7638 -0.0751
 4161SOL    HW219342   1.045   4.891   2.344 -0.4764 -1.2567 -0.6153
 4162SOL     OW19343   8.902   9.125   5.700 -0.6213  0.6248 -0.3799
 4162SOL    HW119344   8.874   9.041   5.737  2.1193 -0.0930  0.2533
 4162SOL    HW219345   8.953   9.166   5.770  2.8443  0.2492 -2.4758
 4163SOL     OW19346   4.528   8.189  11.425  0.2819  0.1090 -0.6595
 4163SOL    HW119347   4.484   8.105  11.439  1.9874 -0.7035  0.2969
 4163SOL    HW219348   4.578   8.203  11.506  2.4601  0.4730 -1.9687
 4164SOL     OW19349   0.557   5.428   7.725  0.0412 -0.3656 -0.0725
 4164SOL    HW119350   0.620   5.360   7.700  0.2591  0.5383 -2.1869
 4164SOL    HW219351   0.495   5.431   7.653 -0.3424  1.2389  0.2832
 4165SOL     OW19352   9.389   9.371   1.211  0.1558  0.0896  0.1024
 4165SOL    HW119353   9.302   9.372   1.250  0.5313  0.3224  0.9563
 4165SOL    HW219354   9.380   9.423   1.131 -0.9214 -1.4362 -0.8204
 4166SOL     OW19355  12.443   0.554  10.443 -0.1741 -0.3372  0.3267
 4166SOL    HW119356  12.420   0.637  10.403  0.0082 -0.4347  0.0201
 4166SOL    HW219357  12.372   0.495  10.419 -0.4943 -0.1769  0.8554
 4167SOL     OW19358   1.879   9.708   9.239 -0.4510 -0.8253 -0.3715
 4167SOL    HW119359   1.837   9.789   9.211 -0.3858 -0.4719  0.5197
 4167SOL    HW219360   1.929   9.680   9.163 -1.6947 -0.8575 -1.2019
 4168SOL     OW19361  11.820   4.226   8.108 -0.0982  0.5930  0.0779
 4168SOL    HW119362  11.793   4.172   8.183 -0.3420  0.8845  0.2002
 4168SOL    HW219363  11.911   4.201   8.092 -0.1557  0.2702  0.2446
 4169SOL     OW19364  11.647   4.146   9.175 -0.2466 -0.5874 -0.3576
 4169SOL    HW119365  11.637   4.059   9.213 -0.3997 -0.5040 -0.2098
 4169SOL    HW219366  11.589   4.202   9.226  0.3395 -0.2663 -0.0221
 4170SOL     OW19367   0.526   2.413   5.308 -0.4637  0.7934 -0.2964
 4170SOL    HW119368   0.578   2.377   5.236 -2.1403 -1.7197 -0.3713
 4170SOL    HW219369   0.452   2.456   5.265 -0.7161  0.5448 -0.1144
 4171SOL     OW19370   8.056   5.129  10.892  0.4954 -0.1392  0.3449
 4171SOL    HW119371   8.129   5.138  10.831  0.7553  2.0084  0.8812
 4171SOL    HW219372   7.978   5.131  10.836  0.7788  0.1628 -0.0437
 4172SOL     OW19373  12.299   6.791   8.295  0.3575  0.0121  0.0889
 4172SOL    HW119374  12.319   6.883   8.310 -0.7818  0.4600 -1.0200
 4172SOL    HW219375  12.215   6.777   8.339 -2.6996  1.1750 -4.6635
 4173SOL     OW19376   0.014   7.489   1.449  0.2816 -0.1112  0.2758
 4173SOL    HW119377  -0.026   7.504   1.364 -0.5975  2.5743  1.0668
 4173SOL    HW219378   0.108   7.491   1.432  0.1145  0.1434 -0.6751
 4174SOL     OW19379   2.993   7.913   8.041  0.3941  0.4188  0.0217
 4174SOL    HW119380   3.022   7.994   8.083 -0.8241  1.3202 -0.8035
 4174SOL    HW219381   2.899   7.909   8.059  0.7601 -2.0523  2.0280
 4175SOL     OW19382  11.488   1.441   1.999  0.3164 -0.4387  0.1768
 4175SOL    HW119383  11.581   1.430   2.016  0.0251 -0.0662  2.2961
 4175SOL    HW219384  11.445   1.379   2.059 -0.8338  0.6325  0.5074
 4176SOL     OW19385  11.424   4.934   9.155 -0.4398 -0.2061  0.0169
 4176SOL    HW119386  11.365   4.976   9.093  0.5413  0.6593 -0.3613
 4176SOL    HW219387  11.446   5.004   9.217 -0.6012 -0.7909  0.7537
 4177SOL     OW19388   3.748   9.895  10.839 -0.8094  0.7248 -0.2343
 4177SOL    HW119389   3.753   9.864  10.929  0.2807 -1.7457 -1.0755
 4177SOL    HW219390   3.671   9.851  10.803  0.1588 -0.2710 -1.1597
 4178SOL     OW19391   6.231  10.461   6.097  0.2474  0.3128  0.2732
 4178SOL    HW119392   6.205  10.550   6.122  0.3879 -0.1602  2.2820
 4178SOL    HW219393   6.312  10.445   6.145 -0.1578 -1.1451  0.5324
 4179SOL     OW19394   5.073  11.741   3.600  0.6503 -0.0032  0.1759
 4179SOL    HW119395   5.072  11.646   3.616  0.5333 -0.1531 -0.6859
 4179SOL    HW219396   5.140  11.774   3.659 -0.3094 -0.4178  1.5586
 4180SOL     OW19397   1.640   3.538   6.834  0.2015 -0.3758 -0.3443
 4180SOL    HW119398   1.583   3.611   6.811  1.0902 -0.0271 -1.5491
 4180SOL    HW219399   1.707   3.577   6.890  0.6008 -0.2997 -0.8783
 4181SOL     OW19400   2.038  10.337   9.401  0.5146  0.0906 -0.2726
 4181SOL    HW119401   2.117  10.297   9.365  0.6279  2.1800 -2.6424
 4181SOL    HW219402   2.070  10.410   9.455  0.2236 -0.1139  0.1867
 4182SOL     OW19403  12.013   6.893  11.680  0.1215  0.5424 -0.1180
 4182SOL    HW119404  11.934   6.840  11.667  0.3781 -0.1553  0.9836
 4182SOL    HW219405  12.084   6.838  11.649  0.5098 -0.2810  2.0492
 4183SOL     OW19406  10.120   9.755   9.365  0.0317  0.1031 -0.1973
 4183SOL    HW119407  10.068   9.831   9.391 -0.6165  0.1397 -1.5233
 4183SOL    HW219408  10.142   9.771   9.273  1.2050 -0.5945 -0.0678
 4184SOL     OW19409  10.753   9.337   9.731  0.3727  0.6066  0.0660
 4184SOL    HW119410  10.765   9.330   9.826  1.1320 -0.7172 -0.0949
 4184SOL    HW219411  10.691   9.267   9.710 -0.4184  1.4121 -0.3256
 4185SOL     OW19412   2.056   9.783   1.750 -0.4298  0.0964  0.1727
 4185SOL    HW119413   1.983   9.723   1.768 -0.0064 -0.1092  1.2560
 4185SOL    HW219414   2.120   9.728   1.704 -0.9432  0.2828 -0.8030
 4186SOL     OW19415  11.526   5.116  11.445  0.5098  0.8722 -0.1948
 4186SOL    HW119416  11.488   5.096  11.530 -2.3791 -0.4857 -1.6825
 4186SOL    HW219417  11.528   5.212  11.441  3.2730  1.0670  2.3344
 4187SOL     OW19418   9.963   6.892   5.894  0.3974  0.3254  0.0171
 4187SOL    HW119419   9.949   6.893   5.800 -0.9000  0.0015  0.1809
 4187SOL    HW219420   9.897   6.951   5.929 -0.1798 -0.7422  0.8219
 4188SOL     OW19421   8.775   1.997   9.132  0.1427  0.1847  0.0641
 4188SOL    HW119422   8.703   2.010   9.194  1.0181 -1.1848  1.4092
 4188SOL    HW219423   8.851   2.037   9.174  0.9092 -1.4061  0.2497
 4189SOL     OW19424  12.386  11.052   3.492 -0.6596  0.4231  0.2494
 4189SOL    HW119425  12.302  11.060   3.448 -0.7630  0.5423  0.4696
 4189SOL    HW219426  12.375  10.976   3.551 -0.0601 -0.6574 -0.9801
 4190SOL     OW19427   3.259   1.631   2.370 -0.1088  0.1150 -0.9212
 4190SOL    HW119428   3.205   1.608   2.294 -1.5532  1.1942 -0.2916
 4190SOL    HW219429   3.344   1.654   2.334  1.0780 -4.5789 -1.7325
 4191SOL     OW19430   5.261   8.700  12.350  0.0853  0.1050  0.1922
 4191SOL    HW119431   5.202   8.636  12.309 -1.5711  1.8481 -0.2807
 4191SOL    HW219432   5.273   8.668  12.439 -3.1095  0.5466  0.9143
 4192SOL     OW19433   7.935   2.119  11.319 -0.4665 -0.3926  0.6326
 4192SOL    HW119434   7.920   2.034  11.278  1.5125 -0.4563 -0.0835
 4192SOL    HW219435   7.917   2.183  11.251  0.5984 -0.3973  0.3168
 4193SOL     OW19436   6.725   0.040   4.129 -0.7537  0.2476  0.0176
 4193SOL    HW119437   6.700  -0.052   4.141 -1.2658  0.5571  1.4558
 4193SOL    HW219438   6.653   0.090   4.167  0.8972  1.1896  2.1217
 4194SOL     OW19439   4.686  10.931   8.444  0.2940 -0.0888 -0.3967
 4194SOL    HW119440   4.637  10.865   8.394  1.4795 -1.3403  0.0478
 4194SOL    HW219441   4.740  10.976   8.379 -0.9345  0.8942 -0.7938
 4195SOL     OW19442   8.499   8.409   6.753  0.0996  0.1729  0.2063
 4195SOL    HW119443   8.430   8.475   6.752 -1.4923 -1.4083 -0.0014
 4195SOL    HW219444   8.475   8.351   6.825  2.0558  0.3830  1.0806
 4196SOL     OW19445   3.459   8.821   6.901 -0.0756 -0.4514 -0.4061
 4196SOL    HW119446   3.445   8.726   6.908 -1.9857 -0.2170 -0.4763
 4196SOL    HW219447   3.385   8.852   6.849 -0.6101  1.3202  1.2762
 4197SOL     OW19448  12.554   9.965   1.757  0.5345 -0.1127  0.2176
 4197SOL    HW119449  12.598   9.898   1.808  1.7200  0.3340 -0.1918
 4197SOL    HW219450  12.595   9.960   1.670  1.1452  1.5849  0.3695
 4198SOL     OW19451  11.635   9.221   4.359 -0.4934  0.3508 -0.2951
 4198SOL    HW119452  11.677   9.135   4.372 -0.6652  0.2336 -0.5121
 4198SOL    HW219453  11.668   9.275   4.431 -0.3633  0.1097 -0.1731
 4199SOL     OW19454   4.876   2.463   0.686  0.2278  0.2340 -0.2476
 4199SOL    HW119455   4.903   2.524   0.617 -2.2083  1.6622 -0.0598
 4199SOL    HW219456   4.854   2.382   0.639  0.6590  0.4857 -0.8938
 4200SOL     OW19457  11.361   0.814  10.322 -0.5938  0.3354  0.6653
 4200SOL    HW119458  11.286   0.801  10.380 -0.2070 -0.1719  1.0586
 4200SOL    HW219459  11.327   0.795  10.235 -0.2883 -2.7337  1.0936
 4201SOL     OW19460  10.159   1.689   0.548 -0.4971  0.1130  0.3564
 4201SOL    HW119461  10.207   1.752   0.495 -1.8632 -0.7989 -2.1125
 4201SOL    HW219462  10.200   1.694   0.634  1.2497  2.3094 -0.5117
 4202SOL     OW19463   6.200   1.296   4.894 -0.0140  0.2083 -0.4441
 4202SOL    HW119464   6.254   1.289   4.815 -0.5283  0.6111 -0.8386
 4202SOL    HW219465   6.116   1.256   4.869 -0.2230  0.4543 -0.1440
 4203SOL     OW19466   6.879   4.653   9.367  0.6030  0.5394  0.6694
 4203SOL    HW119467   6.974   4.640   9.361  0.5632 -0.0863  1.2644
 4203SOL    HW219468   6.844   4.565   9.377 -0.0825  0.7357  0.0621
 4204SOL     OW19469   0.289   7.792   2.524 -0.4327 -0.1815 -0.0113
 4204SOL    HW119470   0.324   7.786   2.613 -0.5846 -0.5458  0.0253
 4204SOL    HW219471   0.194   7.789   2.535 -0.4391 -0.8946 -0.2304
 4205SOL     OW19472   5.024  11.672  10.643  0.3913  0.1219  0.3981
 4205SOL    HW119473   5.015  11.745  10.704  0.7896  0.8499 -0.3921
 4205SOL    HW219474   5.118  11.657  10.637  0.3339 -0.1849  0.2368
 4206SOL     OW19475  10.796   9.014   7.688  0.1992 -0.1879  0.3899
 4206SOL    HW119476  10.800   9.101   7.647  1.0946  0.2799  1.4205
 4206SOL    HW219477  10.803   9.032   7.781 -0.6199 -1.3168  0.6835
 4207SOL     OW19478  11.303   6.867   1.181  0.4572 -0.4325 -0.0390
 4207SOL    HW119479  11.250   6.807   1.234 -0.1751 -0.5486 -0.7891
 4207SOL    HW219480  11.278   6.848   1.091  0.8371  0.4152 -0.3330
 4208SOL     OW19481   3.799   5.688   0.076 -0.7948 -0.0536  0.0150
 4208SOL    HW119482   3.800   5.711  -0.017 -0.0628 -1.0065 -0.2156
 4208SOL    HW219483   3.788   5.593   0.078  0.0857 -0.1537  0.8834
 4209SOL     OW19484   1.219   5.352   5.889  0.2961  0.2933  0.1148
 4209SOL    HW119485   1.294   5.309   5.848  0.7305 -0.0314  1.2185
 4209SOL    HW219486   1.254   5.390   5.970 -0.7741 -0.1060  0.7899
 4210SOL     OW19487   3.173   6.025   4.143 -0.0588 -0.0574 -0.2069
 4210SOL    HW119488   3.239   5.966   4.106  1.4436  0.8372  0.9098
 4210SOL    HW219489   3.109   6.037   4.073  1.5570 -0.0794 -1.7437
 4211SOL     OW19490   3.345   5.911   2.049 -0.2504  0.4720  0.3038
 4211SOL    HW119491   3.353   5.978   1.981  1.1412 -0.8024 -0.8648
 4211SOL    HW219492   3.272   5.856   2.021  1.7800 -1.4606 -1.5574
 4212SOL     OW19493  11.289   6.226   4.228  0.7130 -0.3474 -0.2114
 4212SOL    HW119494  11.289   6.289   4.157  0.6156 -0.3024 -0.1720
 4212SOL    HW219495  11.311   6.142   4.187  1.0286 -0.2534 -0.2308
 4213SOL     OW19496   3.846  12.438   3.500  0.3172  0.0991  0.3581
 4213SOL    HW119497   3.870  12.518   3.548  1.2366  2.4075 -3.4656
 4213SOL    HW219498   3.918  12.425   3.439 -2.0480 -0.6450 -2.5095
 4214SOL     OW19499   4.166   5.817   4.980 -0.0323  1.0169 -0.3606
 4214SOL    HW119500   4.250   5.776   4.999 -0.6243  0.3293  0.9508
 4214SOL    HW219501   4.110   5.791   5.053 -1.3967  1.4282 -1.2173
 4215SOL     OW19502   4.599   3.751   5.267 -0.2091  0.4290  0.4084
 4215SOL    HW119503   4.694   3.743   5.277 -0.2968  0.7161  1.5253
 4215SOL    HW219504   4.577   3.686   5.201  0.6049 -0.4558  0.9857
 4216SOL     OW19505   0.097   5.158  12.273 -0.1285 -0.8767  0.3302
 4216SOL    HW119506   0.102   5.071  12.314  2.5146 -1.4355 -0.9784
 4216SOL    HW219507   0.114   5.142  12.180 -1.1918  0.9020 -0.2173
 4217SOL     OW19508   2.471  11.127   2.655  0.6532 -0.1279  0.2884
 4217SOL    HW119509   2.489  11.190   2.725  2.0760  0.7355 -0.7991
 4217SOL    HW219510   2.503  11.043   2.689 -0.2084 -0.0454  1.3117
 4218SOL     OW19511   5.745   4.473   5.478 -0.0048 -0.1900  0.5426
 4218SOL    HW119512   5.827   4.518   5.496  0.1831 -0.6528  0.8346
 4218SOL    HW219513   5.694   4.482   5.558  0.2144 -0.8893  0.7674
 4219SOL     OW19514   5.128   1.325  10.153 -0.3704 -0.0918  0.1709
 4219SOL    HW119515   5.213   1.353  10.186 -0.8874  1.3034  0.4055
 4219SOL    HW219516   5.148   1.261  10.085  0.8113 -0.7234  1.0846
 4220SOL     OW19517   3.273  12.362   1.662 -0.4899 -0.1914 -0.0318
 4220SOL    HW119518   3.355  12.343   1.708  0.4062  1.5323 -0.7981
 4220SOL    HW219519   3.248  12.280   1.621  1.2634 -0.5998 -0.3659
 4221SOL     OW19520  11.556  11.640  12.288  0.2275 -0.1935 -0.4663
 4221SOL    HW119521  11.561  11.726  12.247  1.0671  1.4076  2.6248
 4221SOL    HW219522  11.463  11.627  12.307  0.0487 -0.1664 -1.3172
 4222SOL     OW19523  11.095   5.824  11.343 -0.0912  0.1126  0.8211
 4222SOL    HW119524  11.139   5.857  11.421 -1.6995 -0.1960  1.9150
 4222SOL    HW219525  11.160   5.767  11.301  2.0226  2.9135 -0.0087
 4223SOL     OW19526   2.299   5.291   5.091 -0.2861 -0.2884  0.3495
 4223SOL    HW119527   2.369   5.227   5.078 -0.0583 -0.0537  0.4220
 4223SOL    HW219528   2.244   5.282   5.013  1.9462  2.2339 -1.7178
 4224SOL     OW19529   1.945   2.796   4.809  0.4063 -0.5341  0.4224
 4224SOL    HW119530   1.900   2.865   4.761  0.7381  0.3269  1.3243
 4224SOL    HW219531   1.875   2.738   4.839  0.1001 -0.4343 -0.0826
 4225SOL     OW19532   8.801   5.830   1.814 -0.3103  0.0540 -0.1884
 4225SOL    HW119533   8.871   5.895   1.824 -1.7502  1.7069 -0.4152
 4225SOL    HW219534   8.821   5.787   1.731  0.2361  0.7786 -0.4422
 4226SOL     OW19535   5.979   5.665   1.627  0.7387 -0.1848 -0.2252
 4226SOL    HW119536   5.932   5.685   1.708  2.6061 -0.5468  1.0119
 4226SOL    HW219537   5.986   5.749   1.581 -2.6873 -0.4001 -1.4474
 4227SOL     OW19538   1.115   4.394   4.197  0.8127  0.5202  0.4595
 4227SOL    HW119539   1.065   4.472   4.222 -0.7993  0.1818 -1.5110
 4227SOL    HW219540   1.193   4.428   4.153  0.0129  1.0351 -0.5778
 4228SOL     OW19541   4.181   6.743   1.649 -0.3961  0.4823 -0.7097
 4228SOL    HW119542   4.263   6.722   1.604  0.8684  0.9633  1.2462
 4228SOL    HW219543   4.173   6.839   1.641 -0.5780  0.4788 -0.5974
 4229SOL     OW19544  12.513   3.619   4.403 -0.2030  0.1501 -0.0152
 4229SOL    HW119545  12.490   3.552   4.339  0.3626  0.4069 -0.5032
 4229SOL    HW219546  12.596   3.655   4.371  0.4654 -0.1973  1.2491
 4230SOL     OW19547   2.360   3.207  10.027  0.3621 -0.1248 -0.0513
 4230SOL    HW119548   2.289   3.146  10.005 -0.0874  0.5659 -0.5557
 4230SOL    HW219549   2.440   3.154  10.019 -0.0617 -0.8022  0.1139
 4231SOL     OW19550   1.727   2.253   1.978 -0.1818 -0.0395  0.0897
 4231SOL    HW119551   1.792   2.314   1.943  0.2593  0.1381  1.1814
 4231SOL    HW219552   1.645   2.302   1.979 -1.1095 -1.1201 -4.0018
 4232SOL     OW19553   3.077  10.901   9.982 -0.0654 -0.0753  0.3111
 4232SOL    HW119554   3.020  10.952   9.924  2.6497  1.2774 -1.3927
 4232SOL    HW219555   3.048  10.811   9.972 -1.5577  0.5071 -0.8606
 4233SOL     OW19556   5.385   2.219   1.749 -0.0344  0.2343 -0.3829
 4233SOL    HW119557   5.403   2.241   1.840 -0.7672 -1.7936  0.3246
 4233SOL    HW219558   5.466   2.240   1.703  1.0134 -0.3811  1.0819
 4234SOL     OW19559   0.463  11.030   1.133  0.7037  0.3059 -0.0474
 4234SOL    HW119560   0.439  11.060   1.046 -0.8411  0.2668  0.3308
 4234SOL    HW219561   0.555  11.054   1.143  1.0050 -0.0049 -1.8070
 4235SOL     OW19562   2.075   7.800   7.816  0.1335  0.3581 -0.4321
 4235SOL    HW119563   2.150   7.851   7.787 -1.1810  3.8187  1.6534
 4235SOL    HW219564   2.018   7.795   7.739  0.1315  2.5305 -0.6356
 4236SOL     OW19565   1.712   7.948   1.441 -0.2322 -0.4507  0.4909
 4236SOL    HW119566   1.732   7.857   1.463  3.0744 -0.1663 -0.8317
 4236SOL    HW219567   1.679   7.945   1.352  1.5911 -0.2597 -0.2225
 4237SOL     OW19568   2.335   1.497   7.049 -0.0154 -0.3166 -0.3381
 4237SOL    HW119569   2.254   1.546   7.035 -0.5868 -1.2271 -0.3395
 4237SOL    HW219570   2.405   1.560   7.034 -0.7300  0.5106 -0.2372
 4238SOL     OW19571   1.953   4.726   2.472  0.1833  0.2931  0.4179
 4238SOL    HW119572   1.958   4.683   2.387 -1.6352  1.2749 -0.2371
 4238SOL    HW219573   1.935   4.818   2.452 -1.8600  0.2689  1.8417
 4239SOL     OW19574   3.972   5.202   0.810 -0.1947 -0.8518 -0.2691
 4239SOL    HW119575   3.958   5.146   0.734  0.0389  0.7424 -1.5533
 4239SOL    HW219576   3.898   5.262   0.809  0.5339  0.0696 -0.0651
 4240SOL     OW19577   6.464  10.351   6.196  0.4951 -0.2862  0.1563
 4240SOL    HW119578   6.517  10.333   6.119 -0.2883  1.9463 -0.9852
 4240SOL    HW219579   6.527  10.366   6.266  1.4162  1.5652 -0.9942
 4241SOL     OW19580   8.755  10.727   4.909 -0.7775 -0.0155 -0.7091
 4241SOL    HW119581   8.772  10.665   4.980  0.3314  1.9777  0.8610
 4241SOL    HW219582   8.666  10.706   4.880 -0.7591 -1.7463  0.3275
 4242SOL     OW19583   2.900   5.981   7.359  0.0237  0.0902 -0.1835
 4242SOL    HW119584   2.820   6.035   7.358  0.5227  0.9480  1.6482
 4242SOL    HW219585   2.971   6.044   7.364  0.5706 -0.5931  3.8424
 4243SOL     OW19586   5.268   6.487   1.025 -0.3278  0.0206  0.1374
 4243SOL    HW119587   5.246   6.448   1.109  0.1756 -1.2520 -0.2838
 4243SOL    HW219588   5.335   6.552   1.044  0.8854 -1.3001  0.5878
 4244SOL     OW19589   5.424   9.582   4.176 -0.1627  0.3723  0.1010
 4244SOL    HW119590   5.481   9.550   4.246  0.6633  1.8105  0.1163
 4244SOL    HW219591   5.430   9.515   4.108  4.2634  1.8559 -1.3589
 4245SOL     OW19592   0.748   4.468   1.487 -0.3381 -1.0069 -0.2977
 4245SOL    HW119593   0.758   4.422   1.570  1.1990  0.4454  0.3765
 4245SOL    HW219594   0.772   4.559   1.506 -1.2308 -0.3542 -2.0464
 4246SOL     OW19595   3.822   4.179  10.380  1.0093  0.3503  0.6565
 4246SOL    HW119596   3.775   4.173  10.463  1.1476 -0.7025  0.6669
 4246SOL    HW219597   3.752   4.187  10.314  0.8126 -0.7835  0.7086
 4247SOL     OW19598   4.160  11.728   0.506  0.4407 -0.2693 -0.3088
 4247SOL    HW119599   4.182  11.752   0.416  0.3079 -1.2876 -0.6343
 4247SOL    HW219600   4.239  11.748   0.555  0.7997 -0.4313 -0.8034
 4248SOL     OW19601   1.010   9.561   1.897  0.1305  0.4280  0.5836
 4248SOL    HW119602   0.928   9.527   1.934 -0.2696  0.0850 -0.5631
 4248SOL    HW219603   1.078   9.502   1.929 -0.4705 -1.1206 -0.8524
 4249SOL     OW19604   4.378   8.856   3.228  0.4401  0.0167 -0.4322
 4249SOL    HW119605   4.451   8.915   3.251  0.6529  0.0810 -1.2387
 4249SOL    HW219606   4.385   8.846   3.133  1.3285 -2.5332 -0.1655
 4250SOL     OW19607   4.635   1.429   5.293 -0.0668 -0.2222  0.6728
 4250SOL    HW119608   4.715   1.449   5.245  0.2156  0.8566  1.5495
 4250SOL    HW219609   4.580   1.383   5.230 -0.0061  1.7512 -0.9203
 4251SOL     OW19610   6.352  10.637   0.452  0.2282 -0.1279  0.2187
 4251SOL    HW119611   6.432  10.608   0.495  0.1827 -0.0224  0.3759
 4251SOL    HW219612   6.367  10.731   0.435 -0.3510  0.1856  1.3677
 4252SOL     OW19613  12.403  10.131   1.480  0.0270 -0.0006  0.4981
 4252SOL    HW119614  12.411  10.042   1.514 -1.2477 -0.3288 -0.0164
 4252SOL    HW219615  12.401  10.121   1.385 -1.0869  0.4692  0.4519
 4253SOL     OW19616  10.348   8.821   0.643  0.6286 -0.4484 -0.1998
 4253SOL    HW119617  10.424   8.856   0.689 -0.5951  2.2120  0.0379
 4253SOL    HW219618  10.286   8.894   0.642 -0.9295 -1.6732 -2.6232
 4254SOL     OW19619   3.690   1.951  10.102 -0.0956  0.3106 -0.2964
 4254SOL    HW119620   3.607   1.948  10.053 -0.8134  0.5108  0.8584
 4254SOL    HW219621   3.758   1.953  10.035 -1.0684  1.4452 -1.3029
 4255SOL     OW19622  12.512  10.849   2.607 -0.3821  0.3605  0.3539
 4255SOL    HW119623  12.579  10.798   2.652 -1.7114 -0.8767  0.9992
 4255SOL    HW219624  12.437  10.789   2.599 -0.7857  1.0625 -2.0402
 4256SOL     OW19625   5.504   1.651   5.113  0.0166 -0.3689 -0.6857
 4256SOL    HW119626   5.507   1.563   5.150 -0.2386  0.0390  0.3460
 4256SOL    HW219627   5.424   1.689   5.149 -0.2151  0.0661 -1.6392
 4257SOL     OW19628   8.153   4.533  10.341 -0.3340  0.0444 -0.0779
 4257SOL    HW119629   8.100   4.473  10.287  1.0212 -0.6549 -0.6769
 4257SOL    HW219630   8.141   4.619  10.300 -2.0551  0.1878  0.6076
 4258SOL     OW19631  10.910   6.431   9.340  0.6091  0.2904  0.2808
 4258SOL    HW119632  10.823   6.392   9.337  0.9323 -0.3785 -1.1149
 4258SOL    HW219633  10.959   6.376   9.402  0.8839 -1.2505 -1.2116
 4259SOL     OW19634  11.039   8.298   9.890 -0.2331 -0.4296 -0.3295
 4259SOL    HW119635  10.993   8.223   9.853 -1.3088  1.4376 -3.1773
 4259SOL    HW219636  11.128   8.291   9.856  0.0726 -1.1050  0.5717
 4260SOL     OW19637  10.120   5.705  11.977  0.0981  0.4200  0.1703
 4260SOL    HW119638  10.197   5.707  12.035  0.9890 -2.2572 -0.7708
 4260SOL    HW219639  10.083   5.617  11.990  0.8952 -0.6985 -3.9144
 4261SOL     OW19640   3.904   2.496   7.087  0.0882  0.1782  0.4338
 4261SOL    HW119641   3.839   2.459   7.147  0.1412  1.5931  1.4150
 4261SOL    HW219642   3.878   2.587   7.076  2.5669  1.1609  1.8870
 4262SOL     OW19643  10.917  12.074   2.191  0.9140 -0.0094 -0.1707
 4262SOL    HW119644  10.993  12.114   2.233 -0.0174  1.0160  0.5851
 4262SOL    HW219645  10.951  11.992   2.154  2.6874  1.0418 -1.0121
 4263SOL     OW19646  12.386   6.889   3.219 -0.2303 -0.1107  0.0662
 4263SOL    HW119647  12.375   6.905   3.313 -0.3140  2.4064 -0.2929
 4263SOL    HW219648  12.467   6.838   3.213  0.6131  0.9742  1.4619
 4264SOL     OW19649   4.789   6.241   0.595 -0.0521 -0.2657  0.1495
 4264SOL    HW119650   4.724   6.302   0.561 -0.0503 -0.4775 -0.2325
 4264SOL    HW219651   4.825   6.198   0.518 -0.2745 -0.9762  0.4393
 4265SOL     OW19652   9.777   9.658   8.532 -0.2470  0.2716 -0.5592
 4265SOL    HW119653   9.792   9.588   8.469  0.4571  0.2955 -0.4241
 4265SOL    HW219654   9.744   9.614   8.610  0.4699  0.0475 -0.3729
 4266SOL     OW19655   4.538   1.135   9.569 -0.3024 -0.2794 -0.3777
 4266SOL    HW119656   4.562   1.194   9.640 -1.2713 -0.3624  0.0387
 4266SOL    HW219657   4.507   1.055   9.613 -0.3685 -0.5487 -0.9001
 4267SOL     OW19658   2.663  11.067   4.018 -0.3618  0.2648 -0.2834
 4267SOL    HW119659   2.627  11.144   4.062  1.2523  0.2045  1.2970
 4267SOL    HW219660   2.594  11.037   3.959 -1.9424  1.4736  0.8794
 4268SOL     OW19661   3.197   5.688   8.268  0.8710 -0.3752 -0.3034
 4268SOL    HW119662   3.243   5.617   8.224  1.1291 -0.8959  0.7704
 4268SOL    HW219663   3.248   5.766   8.249  0.7611 -0.5269 -1.2358
 4269SOL     OW19664  10.541   2.795  11.721  0.0725  0.4383 -0.2192
 4269SOL    HW119665  10.589   2.713  11.729 -1.6278 -0.5063  0.8447
 4269SOL    HW219666  10.573   2.849  11.794  0.1202  0.1291 -0.0084
 4270SOL     OW19667   0.480   1.743   1.595  0.2357  0.3397  0.1994
 4270SOL    HW119668   0.440   1.830   1.588  0.3301  0.2944 -1.1577
 4270SOL    HW219669   0.410   1.683   1.567  1.0149  0.2137 -1.5982
 4271SOL     OW19670  10.005   7.376   4.525  0.1468  0.0998  0.3539
 4271SOL    HW119671  10.048   7.378   4.610  1.3747  0.5586 -0.2502
 4271SOL    HW219672   9.933   7.314   4.535 -1.2183  1.8643  2.3964
 4272SOL     OW19673   8.348   4.107   9.759 -0.3851  0.0826  0.0725
 4272SOL    HW119674   8.379   4.118   9.849  1.1941  1.0301 -0.5518
 4272SOL    HW219675   8.266   4.157   9.756  0.6563  1.9259  0.4569
 4273SOL     OW19676   8.545  11.211   8.571  0.0733 -0.1704 -0.4808
 4273SOL    HW119677   8.622  11.251   8.612  0.8253  0.1572 -2.1667
 4273SOL    HW219678   8.574  11.124   8.545 -1.0773 -1.2643  1.6623
 4274SOL     OW19679   6.138   2.496   2.716  0.4131 -0.0456  0.4485
 4274SOL    HW119680   6.179   2.418   2.753  0.9817  0.0568  0.0568
 4274SOL    HW219681   6.184   2.569   2.757  1.1483  0.0697 -0.5382
 4275SOL     OW19682  10.220  11.170  10.509 -0.2168  0.1922  0.0462
 4275SOL    HW119683  10.144  11.203  10.460  0.6002  1.3393 -0.4821
 4275SOL    HW219684  10.238  11.238  10.574  1.0175  0.4372 -0.5380
 4276SOL     OW19685   3.626   3.675   0.063 -0.2474 -0.1666 -0.0520
 4276SOL    HW119686   3.560   3.638   0.122 -1.2316 -0.4821 -1.2913
 4276SOL    HW219687   3.617   3.624  -0.018  2.2012 -0.8562  0.0419
 4277SOL     OW19688   9.870   0.729   9.123  0.0847  0.4631 -0.4083
 4277SOL    HW119689   9.929   0.656   9.141 -0.7180 -0.2302 -0.4912
 4277SOL    HW219690   9.913   0.805   9.162  0.0868 -0.3713  1.3157
 4278SOL     OW19691   1.119   9.358  12.523  0.2803  0.0893  0.2067
 4278SOL    HW119692   1.153   9.437  12.481 -1.0694  0.8934  0.5481
 4278SOL    HW219693   1.180   9.341  12.595  0.3227  1.1193  0.4324
 4279SOL     OW19694   5.305   4.059   8.910  0.3495  0.7774  0.1262
 4279SOL    HW119695   5.271   4.049   8.998  0.1605 -0.0010 -0.0346
 4279SOL    HW219696   5.376   4.124   8.919  0.7182  0.2690  0.9472
 4280SOL     OW19697   7.783   5.645   6.593  0.4813  0.8837 -0.0864
 4280SOL    HW119698   7.840   5.721   6.604  0.9555  0.5959 -0.4551
 4280SOL    HW219699   7.727   5.667   6.519 -0.3011  1.4081  0.6564
 4281SOL     OW19700  11.879   7.438   3.278 -0.0347  0.2227  0.1027
 4281SOL    HW119701  11.790   7.444   3.312 -0.2042  0.5338 -0.3861
 4281SOL    HW219702  11.894   7.344   3.266  0.0104  0.1046  0.9629
 4282SOL     OW19703   0.940   6.732   6.428 -0.1269 -1.1771  0.1866
 4282SOL    HW119704   0.920   6.781   6.508 -0.4949 -0.3177 -0.4212
 4282SOL    HW219705   0.877   6.660   6.428 -1.3443 -0.1340 -0.2458
 4283SOL     OW19706   0.337  12.139   0.099  0.1381 -0.0945 -0.4915
 4283SOL    HW119707   0.353  12.208   0.035 -0.6945  2.1590  1.5645
 4283SOL    HW219708   0.246  12.113   0.083 -0.2274  0.8068  0.0198
 4284SOL     OW19709   2.775   2.956  12.517 -0.2815  0.2023 -0.3962
 4284SOL    HW119710   2.770   2.868  12.557 -1.5538 -0.5786 -2.1661
 4284SOL    HW219711   2.779   3.015  12.592 -2.1872 -1.2085  0.9306
 4285SOL     OW19712   5.353   4.736   4.478 -0.4903 -0.3831  0.3205
 4285SOL    HW119713   5.425   4.795   4.500 -2.0069  0.7935  2.5341
 4285SOL    HW219714   5.379   4.652   4.517  0.5373 -0.5562 -0.6635
 4286SOL     OW19715   4.048   7.577   0.970 -0.0893  0.0796 -0.2393
 4286SOL    HW119716   4.003   7.649   1.013  0.6047  0.9949 -1.0053
 4286SOL    HW219717   4.096   7.533   1.039 -1.0533 -0.0717  0.3492
 4287SOL     OW19718   9.528   8.221   1.947  0.2908  0.1024  0.1699
 4287SOL    HW119719   9.548   8.128   1.938 -3.7947 -0.7579 -2.8887
 4287SOL    HW219720   9.469   8.226   2.022 -0.2179  0.0083 -0.2141
 4288SOL     OW19721   2.602   3.126   5.747 -0.1831 -0.0723 -0.1812
 4288SOL    HW119722   2.541   3.064   5.708  1.3320 -0.9814 -1.2021
 4288SOL    HW219723   2.580   3.210   5.708 -1.6838 -0.1008  0.5498
 4289SOL     OW19724   6.933  10.360   1.046  0.2116  0.2027 -0.3094
 4289SOL    HW119725   6.876  10.283   1.044 -1.1353  1.1869 -0.8126
 4289SOL    HW219726   6.949  10.375   1.140  1.2514 -1.2053 -0.2291
 4290SOL     OW19727  11.533   7.492  11.218 -0.2964 -0.0513 -0.0106
 4290SOL    HW119728  11.551   7.586  11.213 -1.2682  0.2735  1.9396
 4290SOL    HW219729  11.606   7.452  11.169  1.0505  1.6125  0.5100
 4291SOL     OW19730   0.551   8.151   4.746  0.5796  0.1500 -0.1075
 4291SOL    HW119731   0.514   8.077   4.699 -0.6401  1.9459 -2.1830
 4291SOL    HW219732   0.642   8.156   4.715  0.2071  0.4362 -1.2051
 4292SOL     OW19733   6.058   0.832   4.715  0.4160  0.1212 -0.6563
 4292SOL    HW119734   5.989   0.773   4.743  0.8858  0.6891  1.9918
 4292SOL    HW219735   6.024   0.872   4.635 -2.6808  0.8779  0.8543
 4293SOL     OW19736   4.500   6.498   8.144 -0.4247 -0.3574  0.0101
 4293SOL    HW119737   4.516   6.428   8.080 -0.5875  1.1893 -1.8091
 4293SOL    HW219738   4.583   6.507   8.191  0.5064  0.0175 -1.6085
 4294SOL     OW19739   1.092   8.349   2.403  0.1140  0.4271 -0.6261
 4294SOL    HW119740   1.140   8.287   2.348 -0.3391 -1.2858  0.8216
 4294SOL    HW219741   1.141   8.431   2.395  2.0043 -0.6662 -0.9163
 4295SOL     OW19742   0.852  11.764   9.365  0.4304 -0.1129  0.0344
 4295SOL    HW119743   0.803  11.727   9.292  0.5109  1.1002 -0.6660
 4295SOL    HW219744   0.904  11.834   9.326  1.1758 -0.0381  1.1044
 4296SOL     OW19745   0.045   6.861   8.905 -0.1239  0.8363 -0.0164
 4296SOL    HW119746   0.047   6.770   8.877  0.2477  1.5402 -2.5296
 4296SOL    HW219747   0.107   6.866   8.978  0.2327 -0.7861 -0.1751
 4297SOL     OW19748   3.670   2.191   2.025  0.0547 -0.3988 -0.3870
 4297SOL    HW119749   3.665   2.096   2.033  0.2306 -0.3817 -0.0473
 4297SOL    HW219750   3.752   2.215   2.069  1.6638 -0.3811 -3.1646
 4298SOL     OW19751   4.081   8.220   9.893 -0.0375 -0.2311  0.5181
 4298SOL    HW119752   4.077   8.213   9.988 -1.3450  1.3340  0.6076
 4298SOL    HW219753   4.119   8.306   9.877 -1.3013  0.1797 -0.3553
 4299SOL     OW19754   6.372   3.818   2.269  0.4415  0.6487  0.0000
 4299SOL    HW119755   6.416   3.779   2.345  1.2836  0.9635 -0.3177
 4299SOL    HW219756   6.421   3.787   2.194  0.8304  1.8936 -0.2940
 4300SOL     OW19757   7.951   3.076   1.118  0.1845 -0.0177 -0.5256
 4300SOL    HW119758   7.981   3.117   1.037  1.3446 -0.6293 -0.4319
 4300SOL    HW219759   7.978   2.984   1.110  1.5321  0.1753  1.1001
 4301SOL     OW19760   4.332   2.157  10.981 -0.4474 -0.5752 -0.2021
 4301SOL    HW119761   4.288   2.080  11.018 -0.2862 -1.0695 -1.0282
 4301SOL    HW219762   4.400   2.121  10.924 -0.4781  0.1811 -0.7293
 4302SOL     OW19763   7.766   6.504   5.769 -0.0208 -0.4823 -0.1718
 4302SOL    HW119764   7.731   6.424   5.730 -1.2627  1.3744 -3.2107
 4302SOL    HW219765   7.806   6.551   5.696  2.5281  0.8009  1.9001
 4303SOL     OW19766   6.630   9.264  10.645  0.4552  0.2322 -0.2298
 4303SOL    HW119767   6.631   9.359  10.640  1.8021  0.1982 -3.4907
 4303SOL    HW219768   6.721   9.241  10.665  0.1368 -0.4005  0.5422
 4304SOL     OW19769   3.486   3.966   5.215  0.0074  0.3764  0.2181
 4304SOL    HW119770   3.392   3.951   5.203  0.5949 -2.4360 -1.7352
 4304SOL    HW219771   3.505   4.043   5.161 -0.7189 -0.8859 -1.9642
 4305SOL     OW19772   3.177   6.319   8.418  0.0602 -0.0648  0.1847
 4305SOL    HW119773   3.252   6.375   8.438  0.8512 -1.6178  1.9049
 4305SOL    HW219774   3.131   6.310   8.501 -0.7763 -0.9336 -0.3493
 4306SOL     OW19775  11.646  10.690  11.435 -0.1053 -0.1078  0.0559
 4306SOL    HW119776  11.741  10.701  11.445 -0.3765  2.4817  0.4671
 4306SOL    HW219777  11.624  10.746  11.360 -1.3862 -0.2489  0.3117
 4307SOL     OW19778   7.676   0.902  12.066 -0.1778 -0.0096  0.5543
 4307SOL    HW119779   7.750   0.875  12.011 -0.5935  0.1312 -0.0960
 4307SOL    HW219780   7.603   0.911  12.004  0.2680  4.3046  0.3425
 4308SOL     OW19781   8.920   5.943   2.339 -0.2086 -0.2221 -0.6974
 4308SOL    HW119782   8.999   5.931   2.287  0.3439  1.0668 -0.2025
 4308SOL    HW219783   8.937   5.897   2.421  0.8161  1.5292  0.1375
 4309SOL     OW19784   4.830   6.234   9.368 -0.0652  0.4416 -0.3242
 4309SOL    HW119785   4.911   6.184   9.375 -0.1998  0.4234  2.2071
 4309SOL    HW219786   4.762   6.168   9.351  0.1731  0.1656 -0.2120
 4310SOL     OW19787  10.067   4.452   4.785 -0.2672  0.8552  0.5429
 4310SOL    HW119788  10.152   4.417   4.758  0.3222  1.8903  1.0136
 4310SOL    HW219789  10.020   4.467   4.703 -0.4075 -0.6792  0.3158
 4311SOL     OW19790   1.145   9.399   8.170 -0.6983  0.4404 -0.1436
 4311SOL    HW119791   1.202   9.476   8.170  0.4619 -0.3051 -2.6864
 4311SOL    HW219792   1.079   9.418   8.237  1.0729  2.4466  1.1672
 4312SOL     OW19793   2.478   4.607   8.430 -0.0057 -0.0273  0.6623
 4312SOL    HW119794   2.387   4.577   8.434  0.0713 -0.4961 -0.7323
 4312SOL    HW219795   2.471   4.701   8.414 -0.2778 -0.3124 -1.0918
 4313SOL     OW19796   4.876  11.485   6.065  0.4200 -0.0394 -0.2899
 4313SOL    HW119797   4.893  11.520   5.978  1.5164  0.3080  0.0523
 4313SOL    HW219798   4.807  11.541   6.100  0.4542  0.2462 -0.6726
 4314SOL     OW19799   0.738   6.877   7.160 -0.4549 -0.3187  0.6352
 4314SOL    HW119800   0.730   6.903   7.068  0.0655 -0.5032  0.5333
 4314SOL    HW219801   0.653   6.896   7.198  0.1048  2.2397  0.7579
 4315SOL     OW19802  10.882   7.738   5.839 -0.0806  0.0178 -0.2525
 4315SOL    HW119803  10.861   7.806   5.776 -0.0010 -0.7531 -1.1250
 4315SOL    HW219804  10.938   7.677   5.791  0.9961  0.0388  0.9066
 4316SOL     OW19805   8.299   5.663   8.745 -0.0441 -0.0078  0.0554
 4316SOL    HW119806   8.244   5.729   8.788  0.7198  0.7091 -0.0318
 4316SOL    HW219807   8.336   5.612   8.817 -0.1668  0.0488  0.1590
 4317SOL     OW19808   6.575   0.419   7.905 -0.2906  0.4672 -0.2573
 4317SOL    HW119809   6.499   0.451   7.954  0.1584 -0.2972  0.9923
 4317SOL    HW219810   6.541   0.399   7.818 -1.5569  0.0318  0.3130
 4318SOL     OW19811   1.050   2.448  12.073  0.7105 -0.0733 -0.5189
 4318SOL    HW119812   1.119   2.384  12.088 -0.2181 -1.7592 -2.9324
 4318SOL    HW219813   1.081   2.501  12.000 -0.0539 -0.1498 -0.9147
 4319SOL     OW19814   2.068   4.359  12.063  0.0597 -0.2687 -0.4845
 4319SOL    HW119815   2.135   4.417  12.027 -1.7802  0.9670 -2.1545
 4319SOL    HW219816   2.027   4.318  11.987 -1.9298  0.0187  0.3454
 4320SOL     OW19817   8.442   6.026   3.593  0.0050 -0.1766  0.1130
 4320SOL    HW119818   8.359   6.061   3.562  0.3554  1.0660  0.5098
 4320SOL    HW219819   8.421   5.940   3.629 -1.2264  0.4339  0.8906
 4321SOL     OW19820   7.978  10.506   0.451  0.1972 -0.0694  0.3546
 4321SOL    HW119821   7.901  10.465   0.491  1.0543 -0.0468  2.0880
 4321SOL    HW219822   8.027  10.433   0.414 -0.5255 -0.1064 -0.5739
 4322SOL     OW19823  10.214   6.271   8.872  0.1250  0.0323 -0.5256
 4322SOL    HW119824  10.308   6.265   8.883  0.2170 -1.1962 -1.6711
 4322SOL    HW219825  10.177   6.221   8.945  0.4068 -0.5589 -0.7866
 4323SOL     OW19826  10.580   9.304   3.027 -0.1699 -1.1083  0.4539
 4323SOL    HW119827  10.559   9.394   3.053  0.1730 -0.8590 -0.0976
 4323SOL    HW219828  10.542   9.249   3.096 -2.0260 -0.6502 -0.1345
 4324SOL     OW19829   8.886  10.196   2.067  0.0677 -0.2682 -0.5154
 4324SOL    HW119830   8.922  10.277   2.102  0.8851 -0.4188 -0.9810
 4324SOL    HW219831   8.925  10.127   2.121  1.1536 -0.4874 -1.5297
 4325SOL     OW19832  11.265   2.869   2.696 -0.6040  0.4757 -0.2659
 4325SOL    HW119833  11.300   2.945   2.649  1.0310 -0.5285 -0.7779
 4325SOL    HW219834  11.207   2.906   2.763  0.5692  2.1863 -0.1351
 4326SOL     OW19835   2.983   0.519   7.733 -0.2922 -0.0646  0.1992
 4326SOL    HW119836   2.997   0.437   7.781  1.3606  0.8091  1.2889
 4326SOL    HW219837   2.926   0.571   7.789 -0.0891  0.1307  0.2243
 4327SOL     OW19838  11.330   4.108   0.091 -1.0522  0.0678  0.0212
 4327SOL    HW119839  11.342   4.180   0.029 -1.1945  0.5596  0.5522
 4327SOL    HW219840  11.415   4.063   0.092 -0.2459  1.5070  1.2579
 4328SOL     OW19841   7.244   0.655   8.100 -0.1645  0.4890  0.5304
 4328SOL    HW119842   7.260   0.744   8.067  0.3251 -0.4252 -1.8742
 4328SOL    HW219843   7.158   0.660   8.141 -0.4359  1.9369 -0.1507
 4329SOL     OW19844   3.632   0.754   7.329  0.0238 -0.0259 -0.2668
 4329SOL    HW119845   3.586   0.675   7.300  0.2625 -0.5509  0.7499
 4329SOL    HW219846   3.705   0.763   7.268  0.8099 -1.4030  0.4237
 4330SOL     OW19847   0.500   7.599   2.547 -0.5356  0.3525 -0.0697
 4330SOL    HW119848   0.437   7.672   2.549 -1.0491 -0.0202 -1.4848
 4330SOL    HW219849   0.558   7.620   2.474 -2.4970 -2.0145 -2.5540
 4331SOL     OW19850   0.676   6.739   9.532 -0.2700  0.0798 -0.2893
 4331SOL    HW119851   0.691   6.698   9.617 -1.2827  0.6802  0.1969
 4331SOL    HW219852   0.606   6.802   9.548 -0.4126  0.2627 -1.5581
 4332SOL     OW19853   5.957   3.288   5.572 -1.2415 -1.1588  0.4611
 4332SOL    HW119854   5.924   3.225   5.636 -0.6127  0.3296  2.3836
 4332SOL    HW219855   6.045   3.258   5.551 -0.8363 -0.8293  1.5911
 4333SOL     OW19856  11.936  11.862   4.119  0.3711 -0.8820 -0.6788
 4333SOL    HW119857  11.990  11.924   4.168  1.6661 -2.5659  0.1620
 4333SOL    HW219858  11.891  11.915   4.054  0.7417  1.0414  0.5394
 4334SOL     OW19859   8.143  11.794   5.919 -0.3882 -0.0353 -0.4349
 4334SOL    HW119860   8.097  11.720   5.880 -1.4818  0.2514  0.2416
 4334SOL    HW219861   8.187  11.837   5.846 -1.8019  0.0884 -1.2484
 4335SOL     OW19862   2.058  12.180   9.750 -0.1808  0.6537  0.0478
 4335SOL    HW119863   2.051  12.268   9.711  1.0262  0.8311  0.1972
 4335SOL    HW219864   1.994  12.181   9.821 -0.6787  1.1628 -0.3912
 4336SOL     OW19865  12.010   2.802   5.232  0.0759  0.1940 -0.4284
 4336SOL    HW119866  11.962   2.794   5.314 -0.0653 -1.3801 -0.6340
 4336SOL    HW219867  11.961   2.748   5.170 -0.5791  2.3830 -1.9430
 4337SOL     OW19868   0.883   7.318   4.627  0.3501 -0.6079 -0.1422
 4337SOL    HW119869   0.931   7.391   4.666  1.0840 -0.1192 -1.8328
 4337SOL    HW219870   0.934   7.240   4.650  0.8941 -0.3042 -0.2932
 4338SOL     OW19871   4.733   0.653   0.949 -0.3866 -0.3248 -0.6889
 4338SOL    HW119872   4.706   0.718   0.884 -1.4889 -1.9315 -1.9379
 4338SOL    HW219873   4.756   0.576   0.897  1.4000 -0.8070  0.7021
 4339SOL     OW19874  11.061   3.011  10.262 -0.3207  0.7357  0.5895
 4339SOL    HW119875  11.132   3.060  10.304  1.4552  0.8601 -2.2662
 4339SOL    HW219876  11.058   2.928  10.309  1.0548  1.1162  1.4055
 4340SOL     OW19877  10.592   1.177   1.307 -0.2731  0.1820 -0.3911
 4340SOL    HW119878  10.512   1.135   1.339 -1.0542  1.6994 -0.2565
 4340SOL    HW219879  10.643   1.106   1.268 -1.6519 -0.8243 -0.4175
 4341SOL     OW19880  10.207   7.241   0.835  0.2489  0.3583 -0.0195
 4341SOL    HW119881  10.283   7.275   0.883 -0.8607  0.1731  1.9761
 4341SOL    HW219882  10.178   7.167   0.888 -0.1336 -0.8481 -1.8493
 4342SOL     OW19883   2.203   0.098  10.758  0.1315 -0.0511 -0.2107
 4342SOL    HW119884   2.241   0.146  10.684 -1.0011  0.2809 -0.6001
 4342SOL    HW219885   2.200   0.007  10.729 -0.1738  0.0555 -0.5111
 4343SOL     OW19886  12.352   7.739   2.439  0.0841 -0.3323  0.1749
 4343SOL    HW119887  12.268   7.695   2.429 -0.0212 -0.1093  0.0611
 4343SOL    HW219888  12.331   7.823   2.480  0.4162 -0.8586  1.4507
 4344SOL     OW19889  10.593   5.963   8.111 -0.3441 -0.0956  0.4165
 4344SOL    HW119890  10.671   5.908   8.118  0.0611  0.6131  1.8143
 4344SOL    HW219891  10.532   5.927   8.175 -0.2215  0.8207  1.0715
 4345SOL     OW19892   2.986   0.948   4.405  0.2246 -0.0875  0.5515
 4345SOL    HW119893   2.941   0.952   4.320 -0.8611  0.1805  1.1260
 4345SOL    HW219894   2.922   0.981   4.468  1.2201  0.2649  1.4034
 4346SOL     OW19895   9.684   3.851   1.755  0.3940 -0.3856 -0.0672
 4346SOL    HW119896   9.651   3.894   1.676  1.1099  0.2688 -0.0189
 4346SOL    HW219897   9.777   3.836   1.737  0.4607 -0.6322  0.4746
 4347SOL     OW19898  11.325   1.310  12.255 -0.9665  0.1397 -0.1441
 4347SOL    HW119899  11.310   1.258  12.333  1.2553  0.7525  0.7760
 4347SOL    HW219900  11.394   1.372  12.280  0.4444 -0.1856 -2.8138
 4348SOL     OW19901  12.477   6.521   0.175  0.3361  0.1280 -0.1236
 4348SOL    HW119902  12.476   6.509   0.080  2.1120  1.2457 -0.3336
 4348SOL    HW219903  12.384   6.521   0.200 -0.2399  1.0085 -2.0232
 4349SOL     OW19904   3.084   5.670   2.574 -0.1182 -0.0859  0.6230
 4349SOL    HW119905   3.154   5.707   2.628  0.9744  0.1882 -0.9013
 4349SOL    HW219906   3.089   5.576   2.590  0.5065 -0.0500  0.6772
 4350SOL     OW19907  11.212   5.102   9.052  0.2693  0.0835  0.0838
 4350SOL    HW119908  11.171   5.083   9.136 -0.7962  2.0170  0.0657
 4350SOL    HW219909  11.167   5.044   8.990 -1.5940  1.2349  0.2881
 4351SOL     OW19910   4.115   3.721   9.545 -0.2337 -0.2640  0.3394
 4351SOL    HW119911   4.122   3.767   9.628 -0.9535  2.2672 -0.9205
 4351SOL    HW219912   4.030   3.748   9.509  0.7280 -0.0274 -1.9213
 4352SOL     OW19913   7.624   8.772   5.275 -0.3132 -0.3586  0.0269
 4352SOL    HW119914   7.644   8.863   5.252  1.9760 -0.0115  2.9332
 4352SOL    HW219915   7.703   8.723   5.254 -0.4835 -1.1518  1.1534
 4353SOL     OW19916   9.182  11.803   4.643 -0.6846 -0.0599 -0.3555
 4353SOL    HW119917   9.185  11.810   4.547 -1.8264 -0.6316 -0.4625
 4353SOL    HW219918   9.111  11.861   4.669 -1.9892 -1.6649 -0.1172
 4354SOL     OW19919  12.401   0.450   1.966  0.7470  0.2643  0.3087
 4354SOL    HW119920  12.395   0.373   1.910  0.4286  1.5474 -1.5152
 4354SOL    HW219921  12.470   0.428   2.029  0.8739 -1.3754 -0.3424
 4355SOL     OW19922   1.845   6.038   3.093  0.0923  0.1946 -0.0474
 4355SOL    HW119923   1.839   6.080   3.008  2.5042 -1.7199 -1.3034
 4355SOL    HW219924   1.773   6.075   3.144  0.2343  3.4717 -1.9711
 4356SOL     OW19925  10.458   6.625   6.084  0.1111  0.4475 -0.5060
 4356SOL    HW119926  10.439   6.531   6.073 -1.0242  0.7252 -1.0383
 4356SOL    HW219927  10.544   6.627   6.125 -0.6254 -0.8845  1.2466
 4357SOL     OW19928   8.542   0.795   5.279 -0.1786  0.1742  0.2099
 4357SOL    HW119929   8.565   0.869   5.223 -0.0262 -0.4885 -0.6198
 4357SOL    HW219930   8.610   0.730   5.261 -1.1818 -0.7747 -0.2461
 4358SOL     OW19931  12.458   6.905   6.601  0.6316  0.3271 -0.1916
 4358SOL    HW119932  12.384   6.929   6.656  0.5133  1.3527 -0.7632
 4358SOL    HW219933  12.487   6.987   6.562  2.3782  0.0206  0.3701
 4359SOL     OW19934   2.965  10.050   3.577 -0.2926 -0.3810  0.2287
 4359SOL    HW119935   2.927  10.123   3.529  0.8036 -0.0285 -0.1452
 4359SOL    HW219936   2.975   9.980   3.512 -1.4231 -0.9081  0.6060
 4360SOL     OW19937   6.095   0.798  10.464  0.6012  0.3137  0.3672
 4360SOL    HW119938   6.087   0.888  10.493  0.7602  0.3834  0.1973
 4360SOL    HW219939   6.181   0.794  10.422 -0.0245  0.4585 -0.9636
 4361SOL     OW19940   9.099   7.756   6.911 -0.1310 -0.0462 -0.2697
 4361SOL    HW119941   9.077   7.675   6.958  0.4707 -0.1203 -0.1124
 4361SOL    HW219942   9.194   7.760   6.914 -0.1634  0.6922 -0.2454
 4362SOL     OW19943   3.573   4.467  12.407  0.8509 -0.4992 -0.4196
 4362SOL    HW119944   3.634   4.473  12.481 -0.8752  1.8626  0.9515
 4362SOL    HW219945   3.517   4.392  12.428  0.9230 -0.3797  0.2444
 4363SOL     OW19946   6.811   9.071  10.095  0.2791 -0.3571  0.1645
 4363SOL    HW119947   6.837   9.126  10.168  0.7470  1.4232 -1.2798
 4363SOL    HW219948   6.746   9.011  10.132 -1.9918  2.6256  1.3816
 4364SOL     OW19949   1.480   7.244   5.432  0.2852 -0.6835  0.4211
 4364SOL    HW119950   1.519   7.319   5.387 -0.3069  0.2615  1.4032
 4364SOL    HW219951   1.399   7.280   5.469  0.2419 -1.6934  1.3264
 4365SOL     OW19952   5.100  11.773   4.954 -0.1191  0.8039 -0.8504
 4365SOL    HW119953   5.085  11.838   5.022 -0.3730  0.4089 -0.5250
 4365SOL    HW219954   5.108  11.824   4.873 -0.5945  1.2194 -0.6385
 4366SOL     OW19955   2.631   1.750  10.597 -0.1173 -0.3207  0.0639
 4366SOL    HW119956   2.711   1.696  10.601 -1.5217 -2.6147 -0.7698
 4366SOL    HW219957   2.612   1.772  10.688  0.8950 -0.6229  0.3587
 4367SOL     OW19958   2.346  10.826   0.354 -0.0775  0.5630  0.3531
 4367SOL    HW119959   2.276  10.794   0.412 -0.8750  0.1728 -0.7875
 4367SOL    HW219960   2.306  10.899   0.307 -0.1958 -0.5054 -1.2863
 4368SOL     OW19961   2.411  11.506   6.713 -0.0427 -0.2374  0.0649
 4368SOL    HW119962   2.336  11.515   6.654 -0.5905  0.3782  0.8180
 4368SOL    HW219963   2.373  11.521   6.800  1.1757  1.3628  0.3615
 4369SOL     OW19964   0.958  12.552   9.506  0.2317 -0.6321 -0.2954
 4369SOL    HW119965   0.897  12.480   9.498  0.2880 -0.7119 -0.0085
 4369SOL    HW219966   1.008  12.533   9.585  1.1870 -0.9949 -0.9662
 4370SOL     OW19967  10.216   6.807   2.293 -0.2822 -0.2896  0.1266
 4370SOL    HW119968  10.169   6.739   2.245  1.1996 -1.7073  0.5807
 4370SOL    HW219969  10.185   6.889   2.255 -2.0426 -1.2019 -0.5235
 4371SOL     OW19970   6.831   3.836   3.330  0.2855 -0.0179  0.0930
 4371SOL    HW119971   6.819   3.930   3.321 -1.8376 -0.2241  0.0739
 4371SOL    HW219972   6.754   3.807   3.379  2.0648 -1.4482  2.2472
 4372SOL     OW19973   4.352  10.172   6.848  0.6329 -0.1649  0.2144
 4372SOL    HW119974   4.324  10.166   6.757 -0.4357 -1.9812  0.5937
 4372SOL    HW219975   4.297  10.108   6.894  0.2062  1.6291  2.3811
 4373SOL     OW19976  10.179   4.295   4.521  0.0127  0.1018 -0.2770
 4373SOL    HW119977  10.104   4.353   4.528 -0.3466 -0.1144 -1.8468
 4373SOL    HW219978  10.200   4.271   4.611 -1.3047  0.7861  0.2372
 4374SOL     OW19979   6.915   1.710  12.306  0.4644  0.8200  0.5499
 4374SOL    HW119980   6.825   1.739  12.288 -0.0494  0.1045  1.8086
 4374SOL    HW219981   6.939   1.658  12.230  0.3017  2.0598 -0.3865
 4375SOL     OW19982   2.188   9.252   8.904  0.1380 -0.1531  0.1237
 4375SOL    HW119983   2.106   9.226   8.946 -0.1724  0.0203 -0.3814
 4375SOL    HW219984   2.255   9.203   8.953  0.0244  1.7069  2.3132
 4376SOL     OW19985   6.565   1.084   5.481  0.0231 -0.1345 -0.1526
 4376SOL    HW119986   6.483   1.125   5.510  1.6611  3.0110  0.5286
 4376SOL    HW219987   6.548   1.058   5.390 -1.9610 -0.3160  0.2323
 4377SOL     OW19988   7.785   0.836   7.237 -0.0626 -0.1563  0.1076
 4377SOL    HW119989   7.878   0.855   7.225 -0.3649  2.3126  1.2255
 4377SOL    HW219990   7.783   0.775   7.311  0.6090  1.3040  1.3907
 4378SOL     OW19991   3.088   0.410   4.740  0.0153  0.0169  0.2744
 4378SOL    HW119992   3.136   0.475   4.791  0.3600 -1.1098  1.4357
 4378SOL    HW219993   3.077   0.336   4.800 -0.8263 -0.7943 -0.8404
 4379SOL     OW19994  10.342   8.132   2.141  0.0792  0.4609  0.0709
 4379SOL    HW119995  10.287   8.208   2.162  0.6322  0.3719  1.9482
 4379SOL    HW219996  10.302   8.060   2.189  1.5280  0.2931  1.0621
 4380SOL     OW19997   6.728  10.901   2.386 -0.7568  0.1811 -0.0143
 4380SOL    HW119998   6.796  10.927   2.324 -0.5503  1.7880  0.8268
 4380SOL    HW219999   6.750  10.810   2.409 -0.3340 -0.1368 -1.5863
 4381SOL     OW20000  11.873   0.168   3.714  0.0625  0.0093  0.2433
 4381SOL    HW120001  11.960   0.173   3.675  0.0364  0.7695  0.2759
 4381SOL    HW220002  11.813   0.162   3.640  0.1550 -0.8032  0.2269
 4382SOL     OW20003   7.716   3.257   1.313  0.4159 -0.2111 -0.1477
 4382SOL    HW120004   7.772   3.334   1.303  1.2122 -0.8572 -0.7996
 4382SOL    HW220005   7.728   3.230   1.404 -0.8303  1.1359  0.4606
 4383SOL     OW20006   4.413   1.084   5.723 -0.5431 -0.0657 -0.0203
 4383SOL    HW120007   4.442   1.166   5.682  0.3045 -1.0287 -1.3972
 4383SOL    HW220008   4.330   1.108   5.766 -1.9507  0.8794 -2.9486
 4384SOL     OW20009  11.614   9.534  11.482 -0.1980 -0.0595 -0.2260
 4384SOL    HW120010  11.588   9.599  11.417 -0.2572 -0.2338 -0.3762
 4384SOL    HW220011  11.710   9.535  11.480 -0.1697 -1.5248 -1.7937
 4385SOL     OW20012   5.857  12.094   8.549  0.3223 -0.4873 -0.3071
 4385SOL    HW120013   5.795  12.024   8.528  0.9243 -0.8761 -0.8283
 4385SOL    HW220014   5.850  12.105   8.644  1.3361 -2.3485  0.0266
 4386SOL     OW20015   8.218   1.474  11.594 -0.1538  0.1352 -0.2588
 4386SOL    HW120016   8.135   1.479  11.547 -0.8126 -1.6102  0.6196
 4386SOL    HW220017   8.200   1.516  11.679 -0.1947 -0.3937 -0.0033
 4387SOL     OW20018   6.633   4.123   6.866 -0.3439  0.1073 -0.3295
 4387SOL    HW120019   6.683   4.164   6.937 -0.4462  1.0885 -0.8115
 4387SOL    HW220020   6.648   4.179   6.790 -1.0642 -0.3618 -0.8289
 4388SOL     OW20021   7.079   8.459   4.745 -0.0786  0.6770  0.0157
 4388SOL    HW120022   7.104   8.525   4.680  0.9697  0.2388 -0.0491
 4388SOL    HW220023   7.136   8.384   4.727 -1.9860 -0.7194 -0.6341
 4389SOL     OW20024  11.794   1.091   3.490  0.1132  0.1932  0.3075
 4389SOL    HW120025  11.883   1.125   3.493 -0.0587  0.6547  0.2343
 4389SOL    HW220026  11.744   1.150   3.545 -0.2341  0.1912 -0.0017
 4390SOL     OW20027   7.470   1.737  12.421  0.4315 -0.5816 -0.0792
 4390SOL    HW120028   7.393   1.706  12.467  0.9893 -1.8319  0.0464
 4390SOL    HW220029   7.439   1.812  12.370 -0.1097  1.3201  2.7684
 4391SOL     OW20030   3.901   0.427   8.783  0.3216  0.1533 -0.4604
 4391SOL    HW120031   3.884   0.364   8.714 -2.3667  0.5009 -0.2049
 4391SOL    HW220032   3.857   0.391   8.861  0.8729  1.1278  0.3326
 4392SOL     OW20033   9.636   6.448  10.942  0.2242 -0.5822  0.0048
 4392SOL    HW120034   9.544   6.453  10.965  0.5042  0.0555  1.0447
 4392SOL    HW220035   9.640   6.383  10.872 -0.9518 -0.9141  0.2320
 4393SOL     OW20036   2.788   4.899   7.533 -0.0719 -0.2723  0.2660
 4393SOL    HW120037   2.766   4.904   7.626  1.0156 -0.7005  0.5589
 4393SOL    HW220038   2.774   4.807   7.509  0.5015 -0.3510  0.2280
 4394SOL     OW20039   4.762   3.551   8.341  0.3633  0.2395  0.5542
 4394SOL    HW120040   4.729   3.567   8.253  1.2044  3.9240  0.7601
 4394SOL    HW220041   4.855   3.531   8.329  0.3494  0.1556  0.5838
 4395SOL     OW20042  10.866   6.607   1.609  0.2073  0.9814 -0.5769
 4395SOL    HW120043  10.844   6.559   1.689  0.8989  0.0331 -0.9361
 4395SOL    HW220044  10.931   6.672   1.638 -0.0351  1.0859 -0.2569
 4396SOL     OW20045   0.918   4.840   5.963  0.2048 -0.1285 -0.0651
 4396SOL    HW120046   1.012   4.847   5.950  0.1734  0.7396  0.0668
 4396SOL    HW220047   0.907   4.772   6.029  0.6210 -1.4358 -1.3066
 4397SOL     OW20048   8.499  10.179   0.825  0.2884 -0.3163  0.0303
 4397SOL    HW120049   8.479  10.114   0.757  0.8858 -2.3924  1.7022
 4397SOL    HW220050   8.418  10.187   0.875 -0.4925  2.0238 -1.4338
 4398SOL     OW20051   3.106   6.255   5.832  0.2772 -0.6966  0.6148
 4398SOL    HW120052   3.083   6.330   5.777  2.3324 -0.5903 -0.1714
 4398SOL    HW220053   3.053   6.183   5.798 -0.5501  0.0275  0.3490
 4399SOL     OW20054   0.830   4.626  11.380 -0.6624  0.7015 -0.1976
 4399SOL    HW120055   0.800   4.713  11.409  2.7063  1.1186  2.7034
 4399SOL    HW220056   0.907   4.643  11.326 -0.4303 -0.4689 -0.2696
 4400SOL     OW20057   2.575   5.167   9.780 -0.3012 -0.4363  0.5157
 4400SOL    HW120058   2.528   5.225   9.840  0.3181  0.8292 -0.1891
 4400SOL    HW220059   2.518   5.162   9.703  0.2713  0.3701  0.0242
 4401SOL     OW20060   8.873   6.504   3.421  0.0614 -0.2510 -0.0461
 4401SOL    HW120061   8.833   6.462   3.497 -1.0929 -0.6165 -0.8215
 4401SOL    HW220062   8.799   6.522   3.362  0.5195  2.5684  0.0767
 4402SOL     OW20063  10.307   2.388   9.051 -0.5613  0.1077  0.0089
 4402SOL    HW120064  10.293   2.309   8.999  1.7315 -0.3180 -0.0677
 4402SOL    HW220065  10.225   2.400   9.099 -0.8502 -2.5661  0.3498
 4403SOL     OW20066   7.673  10.329   3.085  0.1075  0.2599 -0.5065
 4403SOL    HW120067   7.710  10.250   3.123  0.3876 -0.3927 -2.0511
 4403SOL    HW220068   7.599  10.351   3.142  0.9280 -0.2439  0.7914
 4404SOL     OW20069   7.471   6.793   5.154  0.0451 -0.0968 -0.0146
 4404SOL    HW120070   7.426   6.775   5.236 -1.4977 -1.6513 -1.1109
 4404SOL    HW220071   7.517   6.875   5.169 -1.8612  0.7434  1.7378
 4405SOL     OW20072   6.922   7.389   0.432 -0.6825 -0.5119  0.0759
 4405SOL    HW120073   6.926   7.416   0.340 -1.5414 -1.4845 -0.2557
 4405SOL    HW220074   6.838   7.345   0.441 -0.7845 -0.0732  1.4367
 4406SOL     OW20075   2.489   5.390   7.165  0.0343  0.4578  0.3860
 4406SOL    HW120076   2.545   5.393   7.242 -0.5916 -0.2640  0.8802
 4406SOL    HW220077   2.434   5.313   7.177  1.0854 -0.6770 -1.6240
 4407SOL     OW20078  11.077   7.736   7.480  0.5858 -0.2494  0.5082
 4407SOL    HW120079  11.137   7.677   7.435  0.9692  0.3544  0.2292
 4407SOL    HW220080  11.064   7.695   7.566 -1.0065 -1.9933 -0.4723
 4408SOL     OW20081   9.071   3.465   5.287 -0.1188  0.3213  0.4549
 4408SOL    HW120082   9.052   3.378   5.322 -2.2306  0.3407 -0.5044
 4408SOL    HW220083   9.027   3.467   5.202  0.9525  1.9058 -0.1172
 4409SOL     OW20084   1.199   6.721  11.849 -0.2626  0.1965  0.2283
 4409SOL    HW120085   1.185   6.626  11.842  3.7163 -0.6974  1.7597
 4409SOL    HW220086   1.201   6.751  11.758  0.4136 -1.5948 -0.3943
 4410SOL     OW20087   4.604   3.905   3.763 -0.5376  0.0277  0.0683
 4410SOL    HW120088   4.589   3.817   3.729  0.1915  0.2321 -0.7899
 4410SOL    HW220089   4.692   3.928   3.735 -1.9445  2.4618 -2.9750
 4411SOL     OW20090  11.801   4.444   3.840  1.1708 -0.3902 -0.1104
 4411SOL    HW120091  11.808   4.483   3.927  0.4370  1.2790 -0.7601
 4411SOL    HW220092  11.823   4.515   3.780 -0.8803 -0.7604 -1.3801
 4412SOL     OW20093  10.681  10.221   1.409  0.5310 -0.2145  0.3046
 4412SOL    HW120094  10.772  10.222   1.440  0.4912  1.7845  0.4809
 4412SOL    HW220095  10.629  10.236   1.487  0.1191 -0.1932  0.0276
 4413SOL     OW20096   7.915   0.465  10.331  0.1205 -0.5343  0.0562
 4413SOL    HW120097   7.932   0.424  10.246 -0.6915 -1.8724  0.5174
 4413SOL    HW220098   7.899   0.391  10.390 -0.6136  0.4347  1.0885
 4414SOL     OW20099   4.069   6.407  11.146 -0.2320  0.2926  0.3764
 4414SOL    HW120100   4.007   6.474  11.114 -0.2873  0.7360  1.3881
 4414SOL    HW220101   4.101   6.442  11.229  2.0955  0.5065 -0.5485
 4415SOL     OW20102   0.609   4.677   7.337 -0.3220 -0.4308 -0.5639
 4415SOL    HW120103   0.554   4.603   7.309 -2.2273  0.8104 -0.3074
 4415SOL    HW220104   0.673   4.687   7.267 -0.5072 -1.8222 -0.9822
 4416SOL     OW20105   5.399   0.398   2.951 -0.2045 -0.1106  0.7522
 4416SOL    HW120106   5.394   0.494   2.959 -0.3295 -0.1598  1.2598
 4416SOL    HW220107   5.310   0.370   2.933 -0.5131 -0.2976  2.4481
 4417SOL     OW20108   2.650   2.930   2.916  0.5451 -0.0733  0.0241
 4417SOL    HW120109   2.604   2.930   2.832 -3.1997 -0.4418  1.8631
 4417SOL    HW220110   2.628   3.016   2.954  5.0584  1.6200 -0.5888
 4418SOL     OW20111   3.241   7.799  11.114  0.5314 -0.2814  0.1919
 4418SOL    HW120112   3.265   7.706  11.108 -1.6631 -0.8610 -0.9024
 4418SOL    HW220113   3.240   7.829  11.023  0.1556  0.5122  0.4481
 4419SOL     OW20114  10.445   3.098   7.557 -0.0626  0.3116 -0.0228
 4419SOL    HW120115  10.508   3.055   7.616 -0.3071 -0.7935 -0.5364
 4419SOL    HW220116  10.390   3.026   7.525 -0.0016  0.8952 -1.5151
 4420SOL     OW20117   1.045   9.805   1.361  0.3960  0.2629  0.7274
 4420SOL    HW120118   0.982   9.801   1.290 -1.0348 -2.3862  2.0050
 4420SOL    HW220119   1.099   9.727   1.350  2.1546  1.3973  0.8741
 4421SOL     OW20120  12.471  12.029   9.626 -0.4550  0.3280  0.5775
 4421SOL    HW120121  12.453  11.982   9.544 -0.2773  0.8796  0.2143
 4421SOL    HW220122  12.436  11.972   9.694 -0.0980 -0.4114  0.1624
 4422SOL     OW20123   6.236  10.347   9.664  0.1668  0.3895 -0.0657
 4422SOL    HW120124   6.263  10.362   9.573 -1.0473  0.2668 -0.4602
 4422SOL    HW220125   6.162  10.406   9.677 -0.3283 -0.3385  0.5067
 4423SOL     OW20126   2.798   6.207  10.980 -0.5233  0.1735  0.4526
 4423SOL    HW120127   2.864   6.141  11.004 -0.5289 -0.4921 -1.1905
 4423SOL    HW220128   2.771   6.182  10.892 -0.3579  2.5362 -0.3397
 4424SOL     OW20129  11.997   1.463   1.055 -0.0829  0.2657  0.2055
 4424SOL    HW120130  12.008   1.385   1.108 -0.3915  1.6006  2.3431
 4424SOL    HW220131  12.084   1.503   1.053 -0.0033  0.0687 -0.5894
 4425SOL     OW20132   3.723   1.341   7.447  0.1473  0.0463 -0.0183
 4425SOL    HW120133   3.670   1.414   7.416  0.4587  0.7389  1.0414
 4425SOL    HW220134   3.692   1.266   7.396 -0.6787  0.7666 -0.6064
 4426SOL     OW20135   7.921  11.559   7.931 -0.0685 -0.1746 -0.1042
 4426SOL    HW120136   7.989  11.622   7.907 -1.3261  1.3339  0.1196
 4426SOL    HW220137   7.870  11.604   7.999 -1.9007 -0.8014 -0.9855
 4427SOL     OW20138   5.122   9.363   0.225 -0.0314  0.0944  0.1537
 4427SOL    HW120139   5.028   9.377   0.223  0.2925  2.7600  0.7436
 4427SOL    HW220140   5.146   9.349   0.133 -0.9946 -0.9173  0.0277
 4428SOL     OW20141   9.076   9.814   5.717 -0.5956  0.3800  0.4451
 4428SOL    HW120142   9.108   9.903   5.729  1.6428  0.1282 -2.4154
 4428SOL    HW220143   9.055   9.808   5.624  0.0495 -2.2411  0.3830
 4429SOL     OW20144   6.014   4.505  10.427 -0.1686  0.5520 -0.2130
 4429SOL    HW120145   5.990   4.469  10.512 -0.8962 -0.7968 -0.9650
 4429SOL    HW220146   6.023   4.429  10.370  0.4820  1.4186 -1.3091
 4430SOL     OW20147   9.466   4.060   5.949  0.0048  0.2967  0.4527
 4430SOL    HW120148   9.444   3.972   5.979  0.3071  0.6114  1.7065
 4430SOL    HW220149   9.542   4.047   5.892 -1.4881 -0.4777 -1.4504
 4431SOL     OW20150   7.878   8.657  11.192  0.4229 -0.6364 -0.2733
 4431SOL    HW120151   7.962   8.631  11.153  0.2198 -2.7644  0.5931
 4431SOL    HW220152   7.885   8.633  11.284 -1.0476 -0.6229 -0.1279
 4432SOL     OW20153   7.867   5.297   0.319 -0.0439  0.7770  0.3914
 4432SOL    HW120154   7.831   5.385   0.329  0.3835  0.9202  0.6758
 4432SOL    HW220155   7.824   5.263   0.241  1.4558  2.0683 -1.0818
 4433SOL     OW20156   5.005   4.059   0.210  0.0108  0.0914 -0.2198
 4433SOL    HW120157   5.100   4.073   0.208 -0.2264  1.7506 -1.1832
 4433SOL    HW220158   4.979   4.086   0.298  0.3628  0.1403 -0.1288
 4434SOL     OW20159  11.390  10.827   8.318 -0.8728 -0.0335 -0.9212
 4434SOL    HW120160  11.356  10.751   8.271 -2.7174 -0.2699  0.6757
 4434SOL    HW220161  11.456  10.791   8.378 -0.9281 -0.2043 -0.9635
 4435SOL     OW20162   0.190   3.205   2.763 -0.0749  0.6793 -0.1731
 4435SOL    HW120163   0.276   3.175   2.733  0.1769 -0.1982  1.3540
 4435SOL    HW220164   0.198   3.300   2.768  0.9166  0.5728  0.2951
 4436SOL     OW20165   1.198  12.083   2.003  0.3682 -0.1502  0.4882
 4436SOL    HW120166   1.117  12.053   1.962  0.7325 -1.7985  0.9279
 4436SOL    HW220167   1.201  12.177   1.982 -1.2077 -0.2249 -0.2533
 4437SOL     OW20168   6.875  11.462   4.865  0.0702 -0.1432 -0.0443
 4437SOL    HW120169   6.959  11.491   4.830  1.2309 -0.2165  2.4450
 4437SOL    HW220170   6.858  11.522   4.938 -2.4087  0.2726 -0.8742
 4438SOL     OW20171   5.682  12.260   4.961 -0.3372  0.1659  0.1012
 4438SOL    HW120172   5.650  12.196   5.024  0.4794 -1.9033 -1.4517
 4438SOL    HW220173   5.604  12.305   4.929 -0.7407  1.3958  2.6390
 4439SOL     OW20174   8.086   9.950   4.269  0.7457 -0.5844  0.2191
 4439SOL    HW120175   8.134  10.031   4.288 -0.4575  0.2609 -0.2242
 4439SOL    HW220176   8.047   9.965   4.183 -0.0667 -1.3620  0.4421
 4440SOL     OW20177   8.883   3.854  11.239 -0.0413 -0.2934 -0.0178
 4440SOL    HW120178   8.965   3.904  11.236  0.1541 -0.5137  1.2214
 4440SOL    HW220179   8.819   3.916  11.274  0.0903 -0.7502  1.0588
 4441SOL     OW20180   3.749   3.246   2.967 -0.1453  0.4375  0.2163
 4441SOL    HW120181   3.805   3.324   2.960  0.7337 -0.0317  1.5469
 4441SOL    HW220182   3.661   3.282   2.977  0.1533  1.2497  0.0583
 4442SOL     OW20183   6.129   5.536   2.538 -0.5494  0.0616 -0.5329
 4442SOL    HW120184   6.219   5.507   2.553 -0.1706  1.0477 -0.8769
 4442SOL    HW220185   6.076   5.475   2.590  0.4365  0.7103  1.3494
 4443SOL     OW20186   6.599  10.105   8.866 -0.3825  0.2090  0.2116
 4443SOL    HW120187   6.638  10.117   8.780 -0.3656  0.9861  0.3245
 4443SOL    HW220188   6.607  10.190   8.909 -0.6846 -0.0795  0.8606
 4444SOL     OW20189   7.960   1.164   3.356  0.6574 -0.4093  0.0149
 4444SOL    HW120190   7.969   1.253   3.389  2.5186 -0.4555 -0.2387
 4444SOL    HW220191   7.914   1.117   3.425  0.2415  0.5889  0.4351
 4445SOL     OW20192   3.102   0.710   0.269  0.2491 -0.2206 -0.0571
 4445SOL    HW120193   3.178   0.764   0.288  0.5342 -0.5417 -0.2712
 4445SOL    HW220194   3.121   0.626   0.310  0.3295 -0.5262 -0.7008
 4446SOL     OW20195   6.964   8.586   1.603  0.0548 -0.7490 -0.5083
 4446SOL    HW120196   6.901   8.532   1.651 -1.1564  1.1345  0.1087
 4446SOL    HW220197   7.034   8.602   1.666  1.5200 -3.2936 -1.3607
 4447SOL     OW20198   7.177   4.167   1.009  0.7355  0.2833 -0.6161
 4447SOL    HW120199   7.224   4.194   0.930 -0.7256  0.3910 -1.4686
 4447SOL    HW220200   7.177   4.071   1.004  0.2837  0.2995 -0.9705
 4448SOL     OW20201   1.347   5.843   7.662 -0.1182  0.3591  0.2480
 4448SOL    HW120202   1.332   5.875   7.751  0.4749 -0.9479  0.8473
 4448SOL    HW220203   1.431   5.881   7.636  0.5487 -0.6012  0.9289
 4449SOL     OW20204  11.933   6.147   1.067  0.1032  0.0987  0.2096
 4449SOL    HW120205  11.845   6.109   1.067  0.4620 -0.7669  1.2405
 4449SOL    HW220206  11.931   6.211   1.138  0.5089 -0.4094  0.6773
 4450SOL     OW20207  11.772   5.734   6.380  0.7599  0.2950 -0.2982
 4450SOL    HW120208  11.849   5.768   6.426  0.9501  1.3547 -1.3531
 4450SOL    HW220209  11.767   5.642   6.408  0.6427  0.9555  2.0727
 4451SOL     OW20210   2.858  10.458   1.231  0.5676  0.8359 -0.1704
 4451SOL    HW120211   2.771  10.457   1.192  0.8250  0.0487 -0.7387
 4451SOL    HW220212   2.866  10.546   1.269  0.1678  1.5083 -1.5770
 4452SOL     OW20213   6.274  10.462  12.378  0.4789  0.1949 -0.1103
 4452SOL    HW120214   6.271  10.557  12.390  0.2985  0.2118 -0.2789
 4452SOL    HW220215   6.335  10.431  12.445 -0.1199  0.3369  0.5197
 4453SOL     OW20216   3.228   3.091   0.745  0.1790 -0.2159  0.2732
 4453SOL    HW120217   3.307   3.103   0.692  0.9961 -0.2232  1.4671
 4453SOL    HW220218   3.160   3.138   0.696  0.6504 -1.0974 -1.3199
 4454SOL     OW20219   2.887  10.436   6.778  0.1932  0.6960  0.1979
 4454SOL    HW120220   2.823  10.507   6.774  0.3317  0.8481  0.6393
 4454SOL    HW220221   2.891  10.403   6.689 -0.1596  0.9895  0.0691
 4455SOL     OW20222   3.671   6.944   1.418 -0.0389 -0.1073 -0.1077
 4455SOL    HW120223   3.644   7.035   1.406  0.7705  0.1928  0.3095
 4455SOL    HW220224   3.612   6.894   1.361 -0.7690  0.6279 -0.0208
 4456SOL     OW20225   4.127   8.449   1.207  0.1872 -0.1200 -0.1836
 4456SOL    HW120226   4.147   8.362   1.171 -2.7864 -0.0352 -2.4765
 4456SOL    HW220227   4.034   8.446   1.226  0.2914  2.1660  1.0356
 4457SOL     OW20228   9.597   7.774   6.281  0.5417  0.0486  0.3740
 4457SOL    HW120229   9.610   7.687   6.317  2.2201  0.7166  1.5043
 4457SOL    HW220230   9.663   7.828   6.324 -0.0842  1.7675 -0.7122
 4458SOL     OW20231   5.275   6.276   7.258  0.0216  0.2536  0.1980
 4458SOL    HW120232   5.365   6.308   7.259 -0.0850  0.6941 -1.4568
 4458SOL    HW220233   5.279   6.191   7.302  1.5508 -0.4419 -1.2081
 4459SOL     OW20234   7.550   3.949  11.869  0.3018 -0.4624  0.2858
 4459SOL    HW120235   7.505   3.918  11.948 -0.0656  0.7695  0.5880
 4459SOL    HW220236   7.488   3.934  11.798 -1.4325  2.7592  0.9155
 4460SOL     OW20237   4.949   8.777   4.509 -0.0998  0.3307 -0.4226
 4460SOL    HW120238   4.940   8.689   4.547 -2.8990 -0.5438 -2.7904
 4460SOL    HW220239   4.934   8.836   4.583 -1.0978 -1.2230  0.6706
 4461SOL     OW20240   9.337   7.847   6.283 -0.1149 -0.2938 -0.6449
 4461SOL    HW120241   9.328   7.880   6.193 -3.0466  0.9522  0.0043
 4461SOL    HW220242   9.431   7.853   6.301  0.7526 -1.5661 -3.9193
 4462SOL     OW20243   2.324   7.621   7.009  0.1022 -0.6694 -0.0216
 4462SOL    HW120244   2.304   7.713   6.990 -0.8309 -1.0487 -0.9987
 4462SOL    HW220245   2.408   7.606   6.965  1.3056  0.2120  1.8235
 4463SOL     OW20246   5.200   7.753   6.343 -0.0353 -0.0676  0.4374
 4463SOL    HW120247   5.111   7.763   6.375 -0.2746 -0.1353 -0.1847
 4463SOL    HW220248   5.220   7.836   6.299 -0.1864 -0.4261 -0.3362
 4464SOL     OW20249   5.122   7.997   5.341 -0.0568 -0.1905 -0.1185
 4464SOL    HW120250   5.176   8.006   5.263  0.0264 -1.3381 -0.2056
 4464SOL    HW220251   5.172   8.041   5.410  2.0971 -3.0475  0.2961
 4465SOL     OW20252   2.122  11.376   6.842  0.1272  0.2564  0.1422
 4465SOL    HW120253   2.032  11.393   6.869 -0.3628 -1.2979 -0.3703
 4465SOL    HW220254   2.114  11.324   6.762  1.4711 -0.0805  0.1978
 4466SOL     OW20255  12.007   6.479  12.079 -0.3967  0.1092  0.5867
 4466SOL    HW120256  12.073   6.545  12.058 -0.4534 -0.3414 -1.1341
 4466SOL    HW220257  12.040   6.398  12.040 -0.5090 -0.8219  2.3461
 4467SOL     OW20258   1.392   7.925   2.170  0.4720  0.2204  0.2113
 4467SOL    HW120259   1.418   7.991   2.235  0.2279  0.6898 -0.1578
 4467SOL    HW220260   1.396   7.972   2.086 -1.1814  0.2058  0.0979
 4468SOL     OW20261  10.342   1.356   3.558  0.8105  0.5219  0.0541
 4468SOL    HW120262  10.403   1.412   3.605  0.8943 -1.8674  3.1689
 4468SOL    HW220263  10.271   1.414   3.531  1.9717  2.4752  0.9951
 4469SOL     OW20264   2.182   3.994   3.562  0.4036  0.1601 -0.3944
 4469SOL    HW120265   2.214   3.931   3.498  1.7534 -0.1222  0.5106
 4469SOL    HW220266   2.220   3.965   3.645 -0.8416  0.8418  0.4448
 4470SOL     OW20267  10.680   3.191  10.228 -0.2687  0.2727  0.2063
 4470SOL    HW120268  10.727   3.249  10.288 -0.9636  0.8874  0.1611
 4470SOL    HW220269  10.591   3.186  10.264 -0.3297 -0.4256 -0.0290
 4471SOL     OW20270   4.215   3.260   7.632  0.0630 -0.0005 -0.1168
 4471SOL    HW120271   4.228   3.291   7.543  0.2135 -0.5436 -0.2881
 4471SOL    HW220272   4.132   3.299   7.660  1.0016  1.8537  0.2526
 4472SOL     OW20273   0.272   8.530   0.168  0.6424  0.0248 -0.9653
 4472SOL    HW120274   0.310   8.520   0.081 -0.6928  1.0426 -1.6986
 4472SOL    HW220275   0.213   8.456   0.177 -2.7589  2.2296 -2.9150
 4473SOL     OW20276   6.855  11.894   1.425  0.3034 -0.3207  0.0722
 4473SOL    HW120277   6.877  11.801   1.431 -0.4689 -0.4800  0.4696
 4473SOL    HW220278   6.777  11.904   1.480 -1.4606 -0.0149 -2.3593
 4474SOL     OW20279   0.531   1.868   3.823 -0.5749  0.1530 -0.3144
 4474SOL    HW120280   0.622   1.844   3.843  0.2478  0.6515 -3.0634
 4474SOL    HW220281   0.503   1.919   3.899  1.1754 -0.6510  0.9361
 4475SOL     OW20282   5.462   2.123   1.171 -0.0738 -0.1995  0.0452
 4475SOL    HW120283   5.459   2.098   1.263  1.7587  0.0202  0.1975
 4475SOL    HW220284   5.390   2.074   1.130 -0.5495 -0.7295  1.4772
 4476SOL     OW20285   6.589   1.734   4.442 -0.0163  0.2079  0.0954
 4476SOL    HW120286   6.641   1.769   4.513 -0.0419 -0.5338  0.4886
 4476SOL    HW220287   6.530   1.805   4.417 -0.1225  0.4151  0.9251
 4477SOL     OW20288   9.948   3.217   9.291 -0.0388 -0.3812  0.2351
 4477SOL    HW120289  10.030   3.231   9.244  0.2398 -1.3023  0.4423
 4477SOL    HW220290   9.889   3.180   9.226 -0.2133  0.0180  0.1602
 4478SOL     OW20291   6.020   1.463   5.292 -0.1733  0.3496 -0.7728
 4478SOL    HW120292   5.978   1.547   5.279  1.6701  1.3546 -0.6123
 4478SOL    HW220293   6.104   1.471   5.247  0.8030 -0.7313  0.7352
 4479SOL     OW20294   6.159   7.404   6.892 -0.1785 -0.5023 -0.1539
 4479SOL    HW120295   6.235   7.452   6.857 -0.6101 -0.7176 -1.4479
 4479SOL    HW220296   6.192   7.362   6.972  0.8223  0.1147 -0.2204
 4480SOL     OW20297   9.220   3.900   1.632 -0.0962 -0.0147  0.0128
 4480SOL    HW120298   9.269   3.979   1.655 -0.2944  0.2869 -0.5822
 4480SOL    HW220299   9.212   3.852   1.714  1.9600 -0.5206 -0.0304
 4481SOL     OW20300   0.260   6.755  10.761 -0.0883 -0.4157 -0.3174
 4481SOL    HW120301   0.350   6.766  10.730  1.0615 -2.1328  2.0573
 4481SOL    HW220302   0.250   6.819  10.832 -1.6375  1.4096 -2.0701
 4482SOL     OW20303  10.834   5.085   6.505  0.3001  0.1845 -0.1516
 4482SOL    HW120304  10.856   5.076   6.413  0.7980 -2.6523  0.1793
 4482SOL    HW220305  10.918   5.090   6.550  0.0629  2.0158  0.1697
 4483SOL     OW20306  12.401   5.622  10.951  0.6739 -0.5334  0.0779
 4483SOL    HW120307  12.457   5.547  10.970  2.2481  0.6563  0.3107
 4483SOL    HW220308  12.458   5.684  10.906 -0.1407  1.2020  1.3376
 4484SOL     OW20309  12.568   7.369   5.072  0.2283 -0.6072 -0.0046
 4484SOL    HW120310  12.662   7.354   5.083  0.5309  1.0855  0.0439
 4484SOL    HW220311  12.536   7.291   5.026  1.4674 -1.6375  0.8163
 4485SOL     OW20312   6.206   0.367   5.428 -0.3618  0.2793  0.1219
 4485SOL    HW120313   6.114   0.389   5.416 -0.6916 -0.0373  1.8361
 4485SOL    HW220314   6.243   0.442   5.475 -0.0225 -0.1050  0.4742
 4486SOL     OW20315   3.129   4.223   0.123 -0.0091 -0.2068 -0.0149
 4486SOL    HW120316   3.066   4.211   0.052 -1.2509  0.6832  0.8950
 4486SOL    HW220317   3.178   4.140   0.126 -0.0401 -0.3109 -1.7790
 4487SOL     OW20318   5.585   8.849  11.905 -0.1720 -0.1655 -0.0901
 4487SOL    HW120319   5.542   8.767  11.880 -1.9318  0.4027  0.8597
 4487SOL    HW220320   5.538   8.917  11.857  0.1501  0.4227  0.4002
 4488SOL     OW20321  12.503   3.327   1.518 -0.4240 -0.6459 -0.0813
 4488SOL    HW120322  12.571   3.321   1.584 -0.0674 -1.1578 -0.4856
 4488SOL    HW220323  12.463   3.240   1.517 -0.3855 -0.6646 -0.5732
 4489SOL     OW20324   9.525   4.320   2.902 -0.1716 -0.2758  0.3070
 4489SOL    HW120325   9.447   4.268   2.881  0.5737 -0.2364 -3.1306
 4489SOL    HW220326   9.594   4.284   2.847  2.1574  0.1379  2.7438
 4490SOL     OW20327  12.015   3.123   2.843 -0.7241  0.2614 -0.0998
 4490SOL    HW120328  12.059   3.152   2.923  1.1067  1.5679 -1.4891
 4490SOL    HW220329  12.083   3.082   2.791 -1.7250  0.0184 -1.2688
 4491SOL     OW20330   5.330   0.928   6.136  0.5358  1.0471 -0.3962
 4491SOL    HW120331   5.411   0.918   6.086  0.1967 -1.2721 -0.5607
 4491SOL    HW220332   5.331   0.856   6.199 -2.1539 -0.0424 -1.4880
 4492SOL     OW20333   0.176   6.712   5.893 -0.0007 -0.7059  0.4948
 4492SOL    HW120334   0.175   6.627   5.849  1.2016  0.2203 -1.4509
 4492SOL    HW220335   0.266   6.744   5.883 -0.2074  0.4400  1.9178
 4493SOL     OW20336  11.999   8.816  10.934  0.7201  0.4223 -0.2236
 4493SOL    HW120337  11.931   8.820  10.868  1.3984 -0.8319 -1.0416
 4493SOL    HW220338  12.037   8.904  10.935  0.9327  0.3752 -1.7690
 4494SOL     OW20339   7.633   9.496   7.927  0.1430 -0.1874  0.4997
 4494SOL    HW120340   7.582   9.573   7.952  1.2700  0.5079  0.7307
 4494SOL    HW220341   7.636   9.499   7.832  0.7982  0.4968  0.5252
 4495SOL     OW20342   8.830  11.801   0.903  0.0670 -0.3306  0.8060
 4495SOL    HW120343   8.752  11.781   0.851 -0.9672 -1.6506  2.7435
 4495SOL    HW220344   8.856  11.889   0.875 -2.5577  0.4545  0.6053
 4496SOL     OW20345   8.620   8.307   8.185  0.3590 -0.2879  0.1667
 4496SOL    HW120346   8.587   8.290   8.097 -0.3885 -2.3516  0.7844
 4496SOL    HW220347   8.545   8.342   8.232  1.1476  2.3046 -0.3331
 4497SOL     OW20348   2.352   3.603   1.705  0.3748  0.3929  0.1405
 4497SOL    HW120349   2.439   3.641   1.721  0.6580 -0.0207 -0.3585
 4497SOL    HW220350   2.297   3.678   1.681  0.9801  0.4835 -1.0424
 4498SOL     OW20351  11.251   7.119   0.866  0.1521 -0.3057 -0.2461
 4498SOL    HW120352  11.177   7.179   0.872  0.8411  0.4915  0.5348
 4498SOL    HW220353  11.212   7.032   0.868 -0.7909  0.1085 -0.3093
 4499SOL     OW20354   2.284  12.439   3.000 -0.2236  0.8977  0.2150
 4499SOL    HW120355   2.334  12.395   3.069  1.3190  2.4818  0.1798
 4499SOL    HW220356   2.337  12.515   2.977 -1.1364  0.9202 -2.0883
 4500SOL     OW20357   7.323   9.363   8.490  0.3187  0.1516  0.2651
 4500SOL    HW120358   7.378   9.314   8.552  0.5744  1.7871  1.4002
 4500SOL    HW220359   7.385   9.412   8.437  0.0303 -0.0625 -0.2760
 4501SOL     OW20360   6.611   1.268   5.714 -0.4688 -0.6991 -0.0569
 4501SOL    HW120361   6.676   1.309   5.658  0.1047  1.9681  2.3208
 4501SOL    HW220362   6.527   1.294   5.678 -0.2765 -2.3271 -1.8552
 4502SOL     OW20363   6.926   8.629  12.438  0.7549 -0.5156  0.6558
 4502SOL    HW120364   7.014   8.655  12.465  1.1644 -1.4307  0.2517
 4502SOL    HW220365   6.940   8.575  12.360 -0.1126 -1.1468  0.9176
 4503SOL     OW20366   4.674  12.494   5.877 -0.9551  0.3790 -0.2105
 4503SOL    HW120367   4.713  12.412   5.848 -2.6010 -1.1508  1.5784
 4503SOL    HW220368   4.652  12.541   5.797  0.5068 -0.6484 -1.2626
 4504SOL     OW20369  11.129  11.924   4.257  0.3612 -0.0367 -0.3910
 4504SOL    HW120370  11.112  11.866   4.183  0.0642 -0.9435  0.3711
 4504SOL    HW220371  11.069  11.895   4.326  1.2937  0.1523  0.5410
 4505SOL     OW20372   8.608   9.913   2.610  0.1732  0.5643  0.2818
 4505SOL    HW120373   8.595   9.972   2.536  0.9754  2.0349  1.2548
 4505SOL    HW220374   8.673   9.958   2.665 -1.1631  0.0362  2.4015
 4506SOL     OW20375   6.081   2.749   8.686 -0.2470 -0.1592  0.1194
 4506SOL    HW120376   5.993   2.784   8.697 -0.6234 -1.1115  0.1988
 4506SOL    HW220377   6.103   2.712   8.771  0.1842 -0.0504  0.0605
 4507SOL     OW20378   2.774   1.271   5.251  0.1692  0.0129 -0.1943
 4507SOL    HW120379   2.714   1.221   5.305 -0.2548  1.3283  0.6115
 4507SOL    HW220380   2.861   1.252   5.287  0.0805 -0.6421 -0.3242
 4508SOL     OW20381   9.767   1.842   6.244 -0.4927  0.3046 -0.0850
 4508SOL    HW120382   9.724   1.912   6.195 -1.0154  0.6785  0.8758
 4508SOL    HW220383   9.723   1.762   6.214 -0.1712  0.4229 -0.8888
 4509SOL     OW20384  10.878  10.545   1.728 -0.5083  0.3751  0.6128
 4509SOL    HW120385  10.793  10.508   1.752 -0.3834  0.6143  1.4819
 4509SOL    HW220386  10.869  10.639   1.744 -1.1885  0.9825 -2.6395
 4510SOL     OW20387   9.792   0.802   2.444  0.4536  0.2700  0.4141
 4510SOL    HW120388   9.727   0.744   2.405  0.3703 -0.2027  1.2316
 4510SOL    HW220389   9.837   0.842   2.369  0.1490 -0.4384 -0.1559
 4511SOL     OW20390   1.144   4.760   8.292 -0.0839  0.2437 -1.0976
 4511SOL    HW120391   1.118   4.839   8.246 -2.5753 -1.2661 -2.4831
 4511SOL    HW220392   1.140   4.691   8.226  2.2606 -1.0717 -0.0026
 4512SOL     OW20393   5.349   8.588  10.873  0.2974 -0.2478 -0.0369
 4512SOL    HW120394   5.388   8.545  10.797  0.9474 -0.2256  0.2839
 4512SOL    HW220395   5.420   8.595  10.936 -0.4582 -1.0556  0.9190
 4513SOL     OW20396   5.784   1.781   5.961  0.3347 -0.1128  0.0140
 4513SOL    HW120397   5.787   1.730   5.880 -0.2096  0.2014 -0.2097
 4513SOL    HW220398   5.846   1.737   6.019 -1.7554 -2.4198  0.6404
 4514SOL     OW20399  12.050   6.710   9.298 -0.1211  0.1956  0.2115
 4514SOL    HW120400  12.000   6.712   9.215 -0.8633  0.6604  0.6588
 4514SOL    HW220401  11.999   6.652   9.354  1.4568 -1.8068 -0.2998
 4515SOL     OW20402   8.624   1.645   5.374  0.5142 -0.4390 -0.3517
 4515SOL    HW120403   8.594   1.631   5.463 -0.7292 -1.6424 -0.9301
 4515SOL    HW220404   8.560   1.706   5.336  0.9579 -0.0413 -0.4748
 4516SOL     OW20405   0.143   2.927  11.212 -0.2000 -0.1252 -0.5015
 4516SOL    HW120406   0.084   2.983  11.161 -1.4814  0.0279  1.0502
 4516SOL    HW220407   0.171   2.983  11.285 -1.0042 -1.2743  0.7367
 4517SOL     OW20408  12.319   6.011   3.767 -0.7657  0.6357  0.1818
 4517SOL    HW120409  12.282   5.986   3.852  0.1480  0.0311  0.4251
 4517SOL    HW220410  12.254   5.982   3.703 -0.4618 -1.0146  0.5619
 4518SOL     OW20411   6.918   0.225   9.974 -0.0848  0.1944  0.0368
 4518SOL    HW120412   7.009   0.218  10.003  0.2687  3.9448  0.3326
 4518SOL    HW220413   6.871   0.159  10.025  2.2740 -1.1025  0.6636
 4519SOL     OW20414   2.234   0.703   5.424  0.6094 -0.6740 -0.0270
 4519SOL    HW120415   2.257   0.611   5.406  3.7733  0.0629 -0.3388
 4519SOL    HW220416   2.316   0.742   5.454 -0.6910  2.0586  0.2056
 4520SOL     OW20417   6.491   7.716   8.773  0.0117  0.2096 -0.4501
 4520SOL    HW120418   6.519   7.634   8.731 -2.4707 -1.4449  0.8268
 4520SOL    HW220419   6.566   7.744   8.825  1.4104 -0.4282 -2.0373
 4521SOL     OW20420   8.619  10.462   8.682  0.8714  0.2252  0.1287
 4521SOL    HW120421   8.608  10.413   8.601  2.8928  1.8635 -1.2559
 4521SOL    HW220422   8.662  10.400   8.742 -1.0944 -1.1549  0.1940
 4522SOL     OW20423   8.839   5.081   1.172  0.5404  0.6747 -0.0871
 4522SOL    HW120424   8.904   5.014   1.149 -0.5605 -0.2539 -0.5818
 4522SOL    HW220425   8.848   5.090   1.267  0.4062 -0.5167  0.0534
 4523SOL     OW20426   5.281   1.854   2.313  0.0207  0.2661  0.3499
 4523SOL    HW120427   5.258   1.850   2.406  1.2169  0.4822  0.6701
 4523SOL    HW220428   5.211   1.806   2.269 -1.5183  1.6320  1.1687
 4524SOL     OW20429   4.597   6.252   5.330  0.4769 -0.4557  0.3649
 4524SOL    HW120430   4.594   6.165   5.289  0.0190 -0.1092 -0.3472
 4524SOL    HW220431   4.516   6.257   5.382  0.3699 -0.3469  0.1870
 4525SOL     OW20432   5.590  10.873   7.808 -0.0048  0.6397 -0.4196
 4525SOL    HW120433   5.609  10.936   7.739  3.4647  0.2476  0.0031
 4525SOL    HW220434   5.588  10.925   7.888  2.0044  0.4208 -0.1758
 4526SOL     OW20435   1.401  10.129  12.442  0.1059  0.2533 -0.1103
 4526SOL    HW120436   1.404  10.043  12.485  2.3878 -1.1040 -2.6411
 4526SOL    HW220437   1.364  10.111  12.356 -1.2071  2.2512 -0.0262
 4527SOL     OW20438  12.014  11.288   2.595  0.2422 -0.5360 -0.2901
 4527SOL    HW120439  12.051  11.354   2.536 -0.6788  0.8274  0.5948
 4527SOL    HW220440  12.040  11.318   2.683 -3.1755  0.7622  0.4315
 4528SOL     OW20441   2.107   3.296  10.817 -0.2007 -0.6199  0.4634
 4528SOL    HW120442   2.161   3.345  10.756 -1.0037 -1.2437 -0.8033
 4528SOL    HW220443   2.081   3.360  10.883 -1.1160  0.6788 -1.0679
 4529SOL     OW20444   9.548   8.495   7.656 -0.1889 -0.0796 -0.4576
 4529SOL    HW120445   9.514   8.406   7.659 -0.5980  0.0127 -1.6984
 4529SOL    HW220446   9.488   8.546   7.711 -0.8121 -0.3194 -0.8996
 4530SOL     OW20447   0.116   8.904  11.136 -0.4773  0.0113  0.1455
 4530SOL    HW120448   0.161   8.906  11.221  0.9051 -0.0258 -0.5556
 4530SOL    HW220449   0.143   8.821  11.097 -1.8749 -0.4156  0.0528
 4531SOL     OW20450   0.101   2.682   1.537 -0.0286  0.0237  0.0002
 4531SOL    HW120451   0.152   2.697   1.616 -1.0856  1.0274  0.5185
 4531SOL    HW220452   0.058   2.766   1.519  0.6172 -0.0003 -1.9612
 4532SOL     OW20453  11.402   5.786  10.178 -0.0043  0.3698  0.7371
 4532SOL    HW120454  11.326   5.780  10.120 -0.5776  1.5760  1.3387
 4532SOL    HW220455  11.440   5.872  10.160 -0.5890  1.0625  2.5985
 4533SOL     OW20456   7.156   2.260   5.326 -0.1500 -0.0750 -0.5166
 4533SOL    HW120457   7.251   2.251   5.319  0.1555  0.3444  2.1036
 4533SOL    HW220458   7.120   2.182   5.283  1.3383 -0.1631 -1.6696
 4534SOL     OW20459  11.050   6.175   1.949  0.2197 -0.0653  0.6658
 4534SOL    HW120460  11.102   6.095   1.946 -0.2432 -0.3774  0.8122
 4534SOL    HW220461  11.035   6.191   2.042  0.4315  0.2756  0.6443
 4535SOL     OW20462  11.096   2.235   3.417 -0.3433 -0.3874  0.1182
 4535SOL    HW120463  11.096   2.141   3.402 -2.4019 -0.2406 -1.1068
 4535SOL    HW220464  11.177   2.265   3.375  0.8975 -1.6642  1.4401
 4536SOL     OW20465   4.824  11.542   7.525  0.5244 -0.3797 -0.1956
 4536SOL    HW120466   4.865  11.503   7.602  1.9846 -1.1097 -1.2810
 4536SOL    HW220467   4.889  11.531   7.455 -0.2498  1.3338 -1.2617
 4537SOL     OW20468   4.823   7.460   3.062 -0.4042  0.1391 -0.4769
 4537SOL    HW120469   4.884   7.476   2.990 -0.1753 -1.5799 -0.7086
 4537SOL    HW220470   4.839   7.531   3.124  3.8218 -1.5695  0.7528
 4538SOL     OW20471   9.840   2.922   8.302  0.7629 -0.3898  0.1281
 4538SOL    HW120472   9.789   2.861   8.249  1.0509 -0.6346  0.1263
 4538SOL    HW220473   9.775   2.975   8.347  0.5143 -0.2979 -0.3359
 4539SOL     OW20474   4.126   7.821   2.603 -0.3900 -0.1815  0.2341
 4539SOL    HW120475   4.081   7.886   2.550  0.2111 -0.2250 -0.3422
 4539SOL    HW220476   4.115   7.739   2.555  1.9381  0.1197 -0.9880
 4540SOL     OW20477  10.639   7.416   0.204 -0.5126  0.1042 -0.1646
 4540SOL    HW120478  10.700   7.417   0.278 -1.5592  0.8546  0.7155
 4540SOL    HW220479  10.553   7.401   0.243 -0.9708 -0.4991 -1.3399
 4541SOL     OW20480  12.256   5.335   8.432  0.0579  0.0898  0.0122
 4541SOL    HW120481  12.174   5.385   8.429  0.1803  0.2968  0.0609
 4541SOL    HW220482  12.294   5.346   8.345  0.1590  0.2106  0.0710
 4542SOL     OW20483   6.625  11.834   0.430 -0.0964  0.2547  0.0384
 4542SOL    HW120484   6.690  11.791   0.485 -0.8678  1.3023  1.8424
 4542SOL    HW220485   6.541  11.806   0.466 -0.6133  1.7837  0.0987
 4543SOL     OW20486   3.245   6.305   2.429 -0.6255 -0.0589 -0.4165
 4543SOL    HW120487   3.215   6.377   2.485 -1.5041  0.0061 -0.9405
 4543SOL    HW220488   3.192   6.313   2.349 -0.1349 -0.7764 -0.8307
 4544SOL     OW20489   0.026   8.444   1.638 -0.2932 -0.3857 -0.6631
 4544SOL    HW120490   0.106   8.490   1.612 -0.6784  1.3750  1.0024
 4544SOL    HW220491  -0.031   8.448   1.562  0.4385  0.1330 -1.1943
 4545SOL     OW20492  11.319   1.699   2.224  0.1812 -0.0583  0.0413
 4545SOL    HW120493  11.402   1.715   2.179 -0.3969  1.3394 -0.5891
 4545SOL    HW220494  11.262   1.662   2.157  0.6588 -2.3457  0.8111
 4546SOL     OW20495   9.642   3.459   7.853  0.2343 -1.1288  0.0441
 4546SOL    HW120496   9.725   3.482   7.896  0.9478 -1.1685 -1.2394
 4546SOL    HW220497   9.664   3.385   7.796 -0.3466 -0.2974 -1.3171
 4547SOL     OW20498   7.496   5.476   5.146  0.1284  0.0479 -0.2020
 4547SOL    HW120499   7.570   5.418   5.130  0.2225 -0.1392  0.8155
 4547SOL    HW220500   7.419   5.426   5.119  0.3281  0.0500 -0.7872
 4548SOL     OW20501   1.365   6.201   5.127 -0.6848  0.0090 -0.0184
 4548SOL    HW120502   1.431   6.210   5.195  0.8586 -2.2928 -1.0702
 4548SOL    HW220503   1.390   6.266   5.061 -1.0325  0.9070  0.7183
 4549SOL     OW20504   8.905  12.330   4.790  0.3882  0.1731  0.3587
 4549SOL    HW120505   9.000  12.339   4.783  0.7240  0.2577  3.4982
 4549SOL    HW220506   8.882  12.263   4.726  2.2871  1.2862 -1.5947
 4550SOL     OW20507   7.217   1.383   6.797  0.8138  0.1999 -0.1665
 4550SOL    HW120508   7.201   1.460   6.742 -0.1836  2.0565  2.4672
 4550SOL    HW220509   7.296   1.343   6.761  0.1523  1.1581 -2.9468
 4551SOL     OW20510  10.707   5.235   4.567  0.5658 -0.0330 -0.4285
 4551SOL    HW120511  10.692   5.217   4.474 -1.2459  0.8998 -0.3589
 4551SOL    HW220512  10.701   5.149   4.609  0.0964 -0.3040 -1.0318
 4552SOL     OW20513  10.147   9.758   1.069 -0.3983 -0.2599  0.2334
 4552SOL    HW120514  10.209   9.806   1.124 -0.5380  0.1622  0.0268
 4552SOL    HW220515  10.064   9.804   1.081 -0.1014  0.8320 -1.5405
 4553SOL     OW20516   0.948   1.745   9.698 -0.3009  0.3645  0.4186
 4553SOL    HW120517   0.995   1.763   9.780 -0.4764 -1.6469  1.0159
 4553SOL    HW220518   1.010   1.772   9.630  1.5943 -1.6849  1.1844
 4554SOL     OW20519   8.677   7.988   5.093 -0.0072 -0.1661 -0.1487
 4554SOL    HW120520   8.588   7.960   5.116 -0.3730 -1.7821 -3.0442
 4554SOL    HW220521   8.664   8.070   5.045 -0.0511 -0.7343 -1.1376
 4555SOL     OW20522   3.236  10.087   1.258 -0.0245 -0.7679 -0.2703
 4555SOL    HW120523   3.325  10.116   1.239 -0.7196  0.5209 -1.8585
 4555SOL    HW220524   3.204  10.148   1.324 -0.0153 -0.6392 -0.3826
 4556SOL     OW20525  12.228   9.360  11.117  0.3315 -1.1201 -0.1283
 4556SOL    HW120526  12.148   9.318  11.148  1.1044 -2.1692  0.5485
 4556SOL    HW220527  12.279   9.375  11.197  1.8041 -2.6406 -0.7217
 4557SOL     OW20528   0.987   5.743   5.753 -0.5479 -0.4156  0.7726
 4557SOL    HW120529   0.916   5.699   5.800  0.3114 -2.7049  0.0684
 4557SOL    HW220530   1.048   5.673   5.731  0.4444  0.9931 -1.3036
 4558SOL     OW20531   3.333   7.924  12.426  0.2601  0.7243 -0.0306
 4558SOL    HW120532   3.409   7.936  12.369  1.2526 -1.4332  0.7488
 4558SOL    HW220533   3.330   7.830  12.442 -1.7658  0.9375  1.0997
 4559SOL     OW20534   8.416   6.056   9.069  0.3301 -0.0004 -0.0085
 4559SOL    HW120535   8.336   6.086   9.026  0.9090  0.0020 -1.1109
 4559SOL    HW220536   8.480   6.126   9.053  1.8765 -1.8984 -3.0818
 4560SOL     OW20537   2.029   4.850   9.298  0.4642  0.4829 -0.2458
 4560SOL    HW120538   2.030   4.849   9.202 -1.6307 -0.0298 -0.2955
 4560SOL    HW220539   1.967   4.782   9.322  1.3633  0.2398  1.5145
 4561SOL     OW20540   1.738   5.574   2.874 -0.1090  0.0242  0.0252
 4561SOL    HW120541   1.647   5.592   2.899 -0.4696 -0.8196 -0.6159
 4561SOL    HW220542   1.770   5.513   2.941 -1.3401 -2.9096 -1.8335
 4562SOL     OW20543   4.492  11.882   3.834  0.5087  0.6288  0.1535
 4562SOL    HW120544   4.498  11.916   3.745  0.3938 -0.8095 -0.4310
 4562SOL    HW220545   4.527  11.952   3.889  0.4952  1.5761 -1.0004
 4563SOL     OW20546   3.849   8.946  11.944 -0.3658  0.3397  0.0372
 4563SOL    HW120547   3.883   8.932  11.855 -2.4450  0.7202 -0.8746
 4563SOL    HW220548   3.920   8.989  11.991 -0.0352  2.4192 -2.1847
 4564SOL     OW20549   8.646   2.383   9.589  0.0555 -0.1997  0.5304
 4564SOL    HW120550   8.712   2.352   9.651  0.6828  0.4563  0.2027
 4564SOL    HW220551   8.668   2.474   9.574 -0.1606 -0.3119 -0.5674
 4565SOL     OW20552  11.345   7.366   4.858  0.3153 -0.7127  0.1395
 4565SOL    HW120553  11.293   7.286   4.869 -0.1358 -0.1527  2.6860
 4565SOL    HW220554  11.432   7.342   4.888  0.7806 -0.8020 -1.2042
 4566SOL     OW20555   6.833   6.277   9.598  0.1624 -0.1512 -0.0561
 4566SOL    HW120556   6.760   6.235   9.642  0.8619 -1.8238 -0.4168
 4566SOL    HW220557   6.796   6.356   9.559 -1.0511 -0.0703  1.1981
 4567SOL     OW20558   7.399  12.303   0.842  0.0162 -0.2231 -0.3427
 4567SOL    HW120559   7.426  12.212   0.859 -2.5510 -0.9424  0.4523
 4567SOL    HW220560   7.337  12.296   0.769  1.0739  1.1615 -1.4186
 4568SOL     OW20561   4.796   9.058   1.015 -0.2512  0.6031 -0.1112
 4568SOL    HW120562   4.761   9.086   1.100 -0.7349 -0.5385  0.0825
 4568SOL    HW220563   4.728   9.083   0.952 -0.6427 -0.0262  0.0502
 4569SOL     OW20564   2.955   7.076   3.646 -0.3693 -0.4090  0.0243
 4569SOL    HW120565   3.001   6.993   3.662  0.4970  0.2105  0.8428
 4569SOL    HW220566   2.990   7.136   3.711 -1.7376  0.3383  0.1116
 4570SOL     OW20567   3.585  10.870   4.759 -0.2087 -0.6634  0.1039
 4570SOL    HW120568   3.680  10.862   4.771 -0.0558 -1.0346 -1.1690
 4570SOL    HW220569   3.575  10.944   4.700 -0.4957 -2.2253 -1.9169
 4571SOL     OW20570   0.278   8.000   8.616 -0.6159 -0.5298 -0.0271
 4571SOL    HW120571   0.372   7.986   8.605 -0.2388  0.6630  1.2465
 4571SOL    HW220572   0.242   7.995   8.528  0.7102 -0.5935 -0.5876
 4572SOL     OW20573   8.957  10.016  10.869  0.8029 -0.3526 -0.1981
 4572SOL    HW120574   9.004  10.096  10.847 -0.8271  0.7757  0.1805
 4572SOL    HW220575   8.945  10.021  10.964 -0.3529 -0.4056 -0.3189
 4573SOL     OW20576   8.994   1.551  10.442 -0.4745 -0.3087 -0.4403
 4573SOL    HW120577   9.028   1.634  10.475 -1.3132  0.1196 -0.6293
 4573SOL    HW220578   8.980   1.566  10.349  1.0115 -1.2254 -0.8357
 4574SOL     OW20579   4.238   3.589  10.638 -0.3567  0.5443 -0.2811
 4574SOL    HW120580   4.204   3.525  10.701 -1.5784  2.1855  0.8228
 4574SOL    HW220581   4.160   3.618  10.590  0.2103  1.0162 -0.9218
 4575SOL     OW20582   2.780  12.049   2.107 -0.6476 -0.0164  0.5791
 4575SOL    HW120583   2.869  12.022   2.125 -0.8933 -0.4631  1.1548
 4575SOL    HW220584   2.789  12.124   2.048  0.1087  0.1555  0.9041
 4576SOL     OW20585   9.839   1.421   5.053  0.1757 -0.0455 -0.1261
 4576SOL    HW120586   9.745   1.427   5.039  0.2116  1.6373  0.2312
 4576SOL    HW220587   9.858   1.327   5.046 -1.9225 -0.7520  2.3137
 4577SOL     OW20588   9.626   7.993   0.987  0.1795  0.3705  0.2055
 4577SOL    HW120589   9.706   7.940   0.978  1.4109  2.2365 -0.4807
 4577SOL    HW220590   9.647   8.057   1.055 -0.2592  1.6240 -0.7870
 4578SOL     OW20591   9.297   5.135   7.951  0.6101 -0.0152  0.3630
 4578SOL    HW120592   9.232   5.073   7.916 -0.7732  1.1398  0.7734
 4578SOL    HW220593   9.345   5.164   7.874  0.8740 -1.1176  0.0846
 4579SOL     OW20594   5.366  11.960   0.711 -0.0927  0.4098  0.5427
 4579SOL    HW120595   5.312  12.038   0.725  0.4026  0.9912 -0.6728
 4579SOL    HW220596   5.309  11.887   0.735 -1.8709  0.9205 -1.7615
 4580SOL     OW20597   7.450   6.653   2.988  0.5807  0.3680 -0.4342
 4580SOL    HW120598   7.544   6.643   2.972  0.4372 -0.4971 -0.8432
 4580SOL    HW220599   7.435   6.609   3.071  0.7167  1.5652  0.2468
 4581SOL     OW20600   6.494   7.277   4.558  0.5596  0.4290 -0.0124
 4581SOL    HW120601   6.504   7.203   4.498  1.2820 -1.5316  2.3839
 4581SOL    HW220602   6.584   7.306   4.575  0.3565  1.0229  0.0784
 4582SOL     OW20603   7.276   4.778   7.044 -0.3776 -1.2226  0.3539
 4582SOL    HW120604   7.267   4.841   6.972 -1.7669 -0.9512  0.7285
 4582SOL    HW220605   7.200   4.720   7.035 -1.1456 -0.5812  2.1395
 4583SOL     OW20606   6.888   1.263   5.171 -0.1437  0.1070 -0.4738
 4583SOL    HW120607   6.919   1.252   5.081 -0.3856 -1.3931 -0.4023
 4583SOL    HW220608   6.959   1.308   5.216  0.7324 -0.7395 -0.9870
 4584SOL     OW20609  12.561  10.243  12.371 -0.2964  0.4815 -0.3528
 4584SOL    HW120610  12.562  10.189  12.293  3.2475  1.6986 -1.3129
 4584SOL    HW220611  12.605  10.190  12.438  1.5178  1.3677 -0.7822
 4585SOL     OW20612   2.319  10.024   0.575 -0.0204  0.1518 -0.2824
 4585SOL    HW120613   2.314   9.947   0.517 -0.3142  0.8221 -1.1710
 4585SOL    HW220614   2.370   9.994   0.650 -1.2104 -1.2843 -0.0028
 4586SOL     OW20615   5.530   2.276   0.961  0.2430  0.6348  0.2915
 4586SOL    HW120616   5.533   2.205   1.025 -0.6517 -0.6997 -1.0847
 4586SOL    HW220617   5.467   2.247   0.895  1.4932  1.7410 -1.4707
 4587SOL     OW20618   6.482   6.309  12.484  0.0960 -0.0965  0.8726
 4587SOL    HW120619   6.403   6.351  12.519 -0.9457 -0.4239 -0.9438
 4587SOL    HW220620   6.514   6.255  12.556 -1.5600 -0.2504  1.5409
 4588SOL     OW20621   4.670   7.784   6.607  0.1499  0.2206  0.1666
 4588SOL    HW120622   4.712   7.700   6.589  1.6856  0.7170  1.2673
 4588SOL    HW220623   4.652   7.821   6.521  1.0093 -0.4950 -0.3375
 4589SOL     OW20624   7.539  12.278   9.257  0.0243 -0.5125 -0.1746
 4589SOL    HW120625   7.529  12.229   9.339 -0.6264 -0.1020 -0.0070
 4589SOL    HW220626   7.611  12.233   9.211  0.7892 -0.3961  0.8674
 4590SOL     OW20627   3.842   2.418   3.474 -0.5178 -0.5559  0.1833
 4590SOL    HW120628   3.936   2.419   3.458 -0.4055  0.2008  0.7982
 4590SOL    HW220629   3.804   2.379   3.396  0.3082 -0.8686 -0.0673
 4591SOL     OW20630   6.701  10.414   8.289 -0.2704  0.2053 -0.2491
 4591SOL    HW120631   6.616  10.371   8.293  0.1836 -0.8561 -1.3343
 4591SOL    HW220632   6.688  10.498   8.334 -1.9483  0.1728 -0.6041
 4592SOL     OW20633   3.935  12.013   7.884 -0.3239  0.1087  0.2422
 4592SOL    HW120634   4.007  11.973   7.934  0.4882  2.2365  0.8642
 4592SOL    HW220635   3.953  11.988   7.793  0.4553 -0.4765  0.5446
 4593SOL     OW20636   1.232  12.209   4.558  0.5150 -0.8774 -0.4488
 4593SOL    HW120637   1.287  12.271   4.606  0.5103  1.2904 -3.0247
 4593SOL    HW220638   1.284  12.129   4.554  2.0972  0.0816 -0.0047
 4594SOL     OW20639   8.091   3.702  11.468  0.1660 -0.0629  0.4546
 4594SOL    HW120640   8.008   3.689  11.422  0.4415 -1.0040  0.2120
 4594SOL    HW220641   8.095   3.797  11.484  0.7432  0.5763 -2.8000
 4595SOL     OW20642  11.292   7.195   7.900 -0.0671  0.9475 -0.3992
 4595SOL    HW120643  11.272   7.213   7.808 -0.5032  1.6413 -0.1754
 4595SOL    HW220644  11.384   7.217   7.909  0.1577  0.2277 -0.8216
 4596SOL     OW20645   1.360  10.624   5.071  0.5743  0.0667  0.3655
 4596SOL    HW120646   1.400  10.599   5.154  0.5621  1.6514  0.8876
 4596SOL    HW220647   1.266  10.627   5.089  0.5916  0.6867  0.3937
 4597SOL     OW20648   6.809   7.651   5.894  0.1154 -0.4622  0.2378
 4597SOL    HW120649   6.774   7.593   5.827 -0.0268  1.8042 -1.7613
 4597SOL    HW220650   6.742   7.718   5.906  2.0116  1.7334 -0.7649
 4598SOL     OW20651   6.361   1.962  12.489 -0.0950  0.1578  0.4469
 4598SOL    HW120652   6.304   1.908  12.543 -0.6530 -0.2341 -0.5036
 4598SOL    HW220653   6.449   1.948  12.525 -0.2670 -1.1965  0.3783
 4599SOL     OW20654   1.926  11.648  11.210  0.1058  0.0163  0.0206
 4599SOL    HW120655   1.888  11.560  11.204  0.8744 -0.4419  1.5486
 4599SOL    HW220656   1.891  11.684  11.291  1.3574  0.3483  0.4337
 4600SOL     OW20657   9.300   1.070   1.699 -0.0609 -0.0116 -0.1769
 4600SOL    HW120658   9.353   1.048   1.776  1.3836 -0.1216 -1.1645
 4600SOL    HW220659   9.301   1.165   1.695 -0.2577 -0.0014  0.0259
 4601SOL     OW20660   8.456   2.315   8.561  0.2502 -0.2656 -0.0831
 4601SOL    HW120661   8.437   2.259   8.486  2.0380  0.1486 -0.9140
 4601SOL    HW220662   8.551   2.306   8.574 -0.2386 -1.7657  3.3307
 4602SOL     OW20663   3.422   1.678   3.891  0.0383 -0.0493  0.1150
 4602SOL    HW120664   3.407   1.744   3.958  0.3088  3.0512 -2.6530
 4602SOL    HW220665   3.338   1.667   3.847  0.1789 -1.0176  0.0571
 4603SOL     OW20666  10.405   4.019   9.213 -0.1554  0.2325 -0.2578
 4603SOL    HW120667  10.378   3.994   9.301 -0.7865  0.6931 -0.3133
 4603SOL    HW220668  10.481   4.075   9.226 -0.2682  0.3260 -0.0083
 4604SOL     OW20669   6.805   9.897   4.183  0.5961  0.5700  0.3269
 4604SOL    HW120670   6.823   9.803   4.171 -0.3691  0.5521 -1.1284
 4604SOL    HW220671   6.750   9.900   4.262 -1.0691 -0.3313 -0.7381
 4605SOL     OW20672   5.504   4.038   1.938 -0.3186  0.0399  0.2052
 4605SOL    HW120673   5.572   4.098   1.908  0.4057 -0.4626  0.7780
 4605SOL    HW220674   5.514   3.960   1.883 -1.6796  0.6636 -0.9742
 4606SOL     OW20675  10.663  11.156   8.809  0.2446 -0.2750 -0.1071
 4606SOL    HW120676  10.670  11.085   8.746  0.9733  0.7573 -1.2453
 4606SOL    HW220677  10.746  11.155   8.857  0.6522  0.3877 -0.7834
 4607SOL     OW20678   6.404   7.322  11.205 -0.0588  0.3127 -0.3879
 4607SOL    HW120679   6.315   7.289  11.192  0.0679  0.4040 -1.6149
 4607SOL    HW220680   6.427   7.364  11.122  1.5978 -0.8163 -0.5624
 4608SOL     OW20681   0.683   3.838   4.910  0.0082  0.2239  0.1466
 4608SOL    HW120682   0.715   3.761   4.862 -2.0751  0.4797 -1.8151
 4608SOL    HW220683   0.619   3.878   4.851 -1.5160  1.5063  2.5259
 4609SOL     OW20684   0.342   6.617  11.038  0.1806  0.3875 -0.5669
 4609SOL    HW120685   0.284   6.643  10.966  0.4222  0.4518 -0.7425
 4609SOL    HW220686   0.320   6.676  11.109 -0.9305 -0.4807 -0.1581
 4610SOL     OW20687   5.432   5.828   8.801 -0.3566 -0.1649  0.1629
 4610SOL    HW120688   5.368   5.876   8.748 -1.6581 -0.0465  1.7539
 4610SOL    HW220689   5.385   5.808   8.882  0.9417 -2.0147  0.5119
 4611SOL     OW20690   6.680   0.303  12.551 -0.1061 -0.0190  0.1467
 4611SOL    HW120691   6.742   0.363  12.509  0.9033  0.5316  2.2575
 4611SOL    HW220692   6.696   0.218  12.510 -2.0612  1.1282 -3.4354
 4612SOL     OW20693   3.977   1.398   3.549 -0.4037 -0.0865 -0.0540
 4612SOL    HW120694   3.963   1.327   3.486  2.1406 -0.3430 -0.4284
 4612SOL    HW220695   4.016   1.355   3.625  3.6532  1.0687 -1.2527
 4613SOL     OW20696   7.079  12.376   7.391 -0.1927  0.2939  0.5167
 4613SOL    HW120697   6.994  12.347   7.424  0.9135 -2.1479  1.4898
 4613SOL    HW220698   7.142  12.322   7.438  1.8615  1.3469 -0.8847
 4614SOL     OW20699   6.880   9.742  12.349  0.7626  0.0841  0.3730
 4614SOL    HW120700   6.949   9.732  12.284  0.8097 -1.4236  0.6162
 4614SOL    HW220701   6.800   9.717  12.303  0.4626  1.1222  0.2998
 4615SOL     OW20702   1.575   2.201   2.507 -0.0531  0.1028 -0.1480
 4615SOL    HW120703   1.481   2.218   2.515 -0.4178 -1.9221  0.4736
 4615SOL    HW220704   1.596   2.223   2.416 -1.3105 -0.1301 -0.5139
 4616SOL     OW20705   8.746  10.550   7.065 -0.2581  0.0769  0.3088
 4616SOL    HW120706   8.752  10.642   7.039  1.3231  0.7823  2.7867
 4616SOL    HW220707   8.836  10.518   7.062 -0.1686 -0.1971  3.1022
 4617SOL     OW20708   7.284   5.723   9.670  0.2412 -0.1593 -0.3588
 4617SOL    HW120709   7.337   5.668   9.612 -0.0165 -2.7657  1.6844
 4617SOL    HW220710   7.245   5.662   9.732  0.9547  2.4065  2.9630
 4618SOL     OW20711  10.386   9.070   6.357  0.0453 -0.3652 -0.6427
 4618SOL    HW120712  10.434   9.046   6.278  1.5255 -1.9656  0.6553
 4618SOL    HW220713  10.331   9.143   6.330  0.1165 -1.1658 -3.2612
 4619SOL     OW20714   8.827   5.751   7.821  0.2410  0.2845  0.1175
 4619SOL    HW120715   8.758   5.818   7.817 -0.0768 -0.0837 -0.9317
 4619SOL    HW220716   8.894   5.782   7.760 -0.0832 -0.5191 -0.6788
 4620SOL     OW20717   3.234   7.240   5.149  0.6260 -0.2506 -0.4588
 4620SOL    HW120718   3.141   7.262   5.156  0.9681  1.0456  0.1327
 4620SOL    HW220719   3.255   7.196   5.231  1.1624  1.9413  0.6502
 4621SOL     OW20720   1.270  10.228   3.107 -0.4873  0.7093 -0.1462
 4621SOL    HW120721   1.275  10.314   3.065 -1.1272  1.2888  0.9230
 4621SOL    HW220722   1.234  10.170   3.040  0.7560  1.0540 -1.1622
 4622SOL     OW20723   5.502   2.357   1.971  0.0296  0.2305 -0.3623
 4622SOL    HW120724   5.525   2.347   2.064 -1.5399  2.5944  0.3735
 4622SOL    HW220725   5.559   2.427   1.940  1.3503 -1.3002 -1.5861
 4623SOL     OW20726  10.865   8.388   0.326 -0.3141 -0.4974 -0.2425
 4623SOL    HW120727  10.825   8.303   0.348  2.1526 -1.5548  0.4286
 4623SOL    HW220728  10.957   8.368   0.311  0.1562  1.9583 -0.9737
 4624SOL     OW20729   1.670   0.154   4.248  0.8647 -0.0629  0.3198
 4624SOL    HW120730   1.710   0.172   4.334  0.4748 -1.8111  0.9020
 4624SOL    HW220731   1.633   0.238   4.221 -0.5799  0.1473  2.7106
 4625SOL     OW20732   7.159   5.548   2.644  0.0916 -0.1012 -0.1677
 4625SOL    HW120733   7.159   5.462   2.686 -1.1768 -1.0079 -1.9204
 4625SOL    HW220734   7.252   5.569   2.632  0.4170 -1.5766 -0.3881
 4626SOL     OW20735   6.375  10.210   7.737 -0.0505 -0.1841  0.3803
 4626SOL    HW120736   6.286  10.193   7.705  0.2547  1.6849 -1.6919
 4626SOL    HW220737   6.363  10.249   7.823 -1.2100 -0.2142  0.2499
 4627SOL     OW20738   3.493  11.836   1.509 -0.6601  0.1533  0.3102
 4627SOL    HW120739   3.567  11.780   1.488 -0.5561 -0.6211  2.4519
 4627SOL    HW220740   3.440  11.837   1.430  1.1584 -0.0157 -0.9650
 4628SOL     OW20741   7.921   1.978   7.434 -0.0408 -0.3761 -0.5576
 4628SOL    HW120742   7.989   2.009   7.494 -0.2190 -1.7345  0.3939
 4628SOL    HW220743   7.928   2.035   7.358  1.9141 -0.2400 -0.3286
 4629SOL     OW20744   0.890   1.384   9.941  0.0056  0.3588 -0.1895
 4629SOL    HW120745   0.807   1.377   9.988  0.1619 -0.8960 -0.0742
 4629SOL    HW220746   0.866   1.371   9.849  0.1772 -0.9598 -0.0649
 4630SOL     OW20747  10.097   5.837  10.805  0.2999 -0.8137  0.0707
 4630SOL    HW120748  10.144   5.898  10.748  0.4407 -0.9206  0.0722
 4630SOL    HW220749  10.155   5.761  10.812 -0.6795 -1.7562 -1.4615
 4631SOL     OW20750   8.001   1.447   2.246 -0.0647  0.0937  0.5709
 4631SOL    HW120751   8.004   1.382   2.316  0.5234 -0.0286  0.4343
 4631SOL    HW220752   7.916   1.491   2.258 -0.6957 -1.0357  0.3461
 4632SOL     OW20753   2.515   2.304   6.843 -0.0150 -0.0465  0.0686
 4632SOL    HW120754   2.515   2.229   6.902 -3.7652 -0.0818  0.2651
 4632SOL    HW220755   2.433   2.296   6.794  1.1735  2.0330 -2.4864
 4633SOL     OW20756   1.196   3.468   3.621  0.0909  0.3828 -0.2300
 4633SOL    HW120757   1.210   3.527   3.695 -1.1921 -1.1926  1.3382
 4633SOL    HW220758   1.283   3.458   3.582  0.9855  0.5502  1.6127
 4634SOL     OW20759   2.253   5.748   7.355 -0.2497  0.0077 -1.3596
 4634SOL    HW120760   2.331   5.785   7.312 -0.5570  0.7380 -1.2933
 4634SOL    HW220761   2.285   5.668   7.397  0.6040  0.6060 -0.8362
 4635SOL     OW20762  11.133  11.090   1.015 -0.1247  0.2453  0.1168
 4635SOL    HW120763  11.206  11.044   0.974 -0.3714  0.2575 -0.3516
 4635SOL    HW220764  11.080  11.021   1.055  0.9684  0.3711  1.8313
 4636SOL     OW20765   9.517   4.990   0.697 -0.5095  0.1711 -0.4031
 4636SOL    HW120766   9.540   4.897   0.700 -0.9751  0.0361 -0.8400
 4636SOL    HW220767   9.509   5.010   0.604 -0.8333  0.5361 -0.2995
 4637SOL     OW20768   5.898   6.772   2.255 -0.3011 -0.3837  0.4430
 4637SOL    HW120769   5.973   6.816   2.295 -0.3221  0.7718 -0.7068
 4637SOL    HW220770   5.925   6.680   2.247  1.4478  0.1848 -0.9089
 4638SOL     OW20771   3.469   8.474   4.582 -0.0289 -0.3020  0.3792
 4638SOL    HW120772   3.516   8.523   4.514 -3.0047 -0.9656 -2.3552
 4638SOL    HW220773   3.486   8.523   4.662  1.1394  2.3554 -1.3602
 4639SOL     OW20774   6.810   8.327   8.650  0.2999 -0.0525 -0.0069
 4639SOL    HW120775   6.882   8.336   8.713 -0.4814 -2.3806  1.3585
 4639SOL    HW220776   6.751   8.400   8.670  2.6763  2.5854 -1.9100
 4640SOL     OW20777   1.926   8.281  10.651  0.1022 -0.4255  0.0709
 4640SOL    HW120778   1.857   8.344  10.671 -0.2643 -0.6207 -0.5525
 4640SOL    HW220779   1.929   8.224  10.727 -1.6853 -1.5345 -0.6111
 4641SOL     OW20780  12.030   3.646   7.505  0.1983 -0.4026  0.3274
 4641SOL    HW120781  12.086   3.724   7.506  1.0348 -0.9876 -0.3067
 4641SOL    HW220782  12.086   3.576   7.472 -0.6266 -1.2234  0.6240
 4642SOL     OW20783   2.377   7.895   3.231 -0.3592 -0.0019 -0.3002
 4642SOL    HW120784   2.423   7.812   3.219 -0.0098  0.2861 -0.9779
 4642SOL    HW220785   2.356   7.896   3.325 -1.0246 -1.1839 -0.4063
 4643SOL     OW20786  11.163   4.181   3.603  0.3282  0.0463 -0.6017
 4643SOL    HW120787  11.148   4.108   3.543 -0.2588  0.5747 -1.1002
 4643SOL    HW220788  11.245   4.220   3.574 -0.9831  1.6251 -2.4599
 4644SOL     OW20789   4.969   1.858  12.057  0.3974 -0.2574  0.8858
 4644SOL    HW120790   5.020   1.938  12.045 -0.1420  0.0179  0.3075
 4644SOL    HW220791   4.925   1.845  11.972  2.3974 -2.5629  0.0791
 4645SOL     OW20792   1.303   3.476   0.382  0.1342 -0.3701  0.2026
 4645SOL    HW120793   1.239   3.405   0.387 -0.5012  0.2051  0.4015
 4645SOL    HW220794   1.365   3.448   0.316 -0.7937 -0.5732 -0.6104
 4646SOL     OW20795   1.030   2.473   2.024  0.2149  0.2640  0.2880
 4646SOL    HW120796   0.962   2.425   1.976 -0.6390 -0.5418  2.2264
 4646SOL    HW220797   0.982   2.541   2.072  0.2480 -1.9589  3.8259
 4647SOL     OW20798   0.614   6.523   1.523 -0.2071 -0.4336 -0.3829
 4647SOL    HW120799   0.540   6.579   1.499  0.2055  0.1532 -0.2891
 4647SOL    HW220800   0.576   6.459   1.584 -0.8770 -0.8417 -1.2016
 4648SOL     OW20801   1.998   5.299   8.209  0.1582 -0.2037 -0.6131
 4648SOL    HW120802   1.929   5.342   8.158  0.6674  0.5418 -0.6791
 4648SOL    HW220803   2.078   5.314   8.158  0.4867 -0.4432 -0.1694
 4649SOL     OW20804  10.768   7.090  11.790 -0.5273  0.4770  0.3899
 4649SOL    HW120805  10.798   7.142  11.865  0.4912  0.0528  0.3004
 4649SOL    HW220806  10.746   7.005  11.826 -0.0065  0.2627  0.2137
 4650SOL     OW20807   3.404   7.560   1.950 -0.0930  0.0341  0.0417
 4650SOL    HW120808   3.388   7.576   1.857 -0.5984  1.9345  0.4168
 4650SOL    HW220809   3.478   7.616   1.972 -0.8154  0.6211  1.0612
 4651SOL     OW20810  11.483   8.760   5.807  0.4960  0.2278 -0.5215
 4651SOL    HW120811  11.493   8.807   5.890  2.1098  0.0569 -0.5911
 4651SOL    HW220812  11.504   8.669   5.829 -0.9809 -0.1949 -0.7355
 4652SOL     OW20813   9.083   6.708   1.635 -0.0800 -0.5365 -0.0279
 4652SOL    HW120814   9.139   6.784   1.625 -0.5048  0.0294  1.5583
 4652SOL    HW220815   9.140   6.641   1.673 -0.5644  0.2557  2.2381
 4653SOL     OW20816   5.031  10.062   6.575 -0.1071  0.0743  0.1495
 4653SOL    HW120817   4.982  10.117   6.635  1.4552 -0.5730  2.1411
 4653SOL    HW220818   5.002   9.973   6.595 -0.3674 -0.0730 -0.8461
 4654SOL     OW20819   6.214   0.093   8.316 -0.0647 -0.2436  0.0933
 4654SOL    HW120820   6.130   0.058   8.343 -0.9180  0.6853 -1.2223
 4654SOL    HW220821   6.278   0.026   8.341 -0.9503 -0.2261  2.6649
 4655SOL     OW20822   4.529   3.536   4.878  0.0606 -0.0811  0.3709
 4655SOL    HW120823   4.539   3.548   4.784 -0.1544 -1.6133  0.1226
 4655SOL    HW220824   4.467   3.464   4.886 -1.7223  1.4925  1.7280
 4656SOL     OW20825   7.884  10.990  10.543  0.0586  0.2731  0.3079
 4656SOL    HW120826   7.903  11.047  10.618 -0.0968 -0.1353  0.6653
 4656SOL    HW220827   7.789  10.983  10.543 -0.0230  1.2304 -0.6575
 4657SOL     OW20828   1.422   8.131   1.427  0.0524  0.2898  0.0875
 4657SOL    HW120829   1.431   8.051   1.375 -1.9622 -0.5379  0.9016
 4657SOL    HW220830   1.371   8.189   1.371 -0.4205  0.1446  0.3651
 4658SOL     OW20831   2.939   3.553   4.923  0.8652  0.0336  0.4071
 4658SOL    HW120832   2.972   3.623   4.979  2.0759 -0.7924  0.7610
 4658SOL    HW220833   2.846   3.573   4.913  1.0126  1.2366  1.1625
 4659SOL     OW20834   2.623   9.156   0.755  0.0684 -0.0308  0.4548
 4659SOL    HW120835   2.652   9.201   0.675 -3.1250  2.9558  0.7126
 4659SOL    HW220836   2.580   9.076   0.723 -2.2790  1.7084 -1.1446
 4660SOL     OW20837   4.792  10.209   9.710 -0.1500  0.0292 -0.5496
 4660SOL    HW120838   4.710  10.179   9.671 -0.1792  0.5767 -0.9047
 4660SOL    HW220839   4.858  10.149   9.676 -0.5964 -1.3423  0.8781
 4661SOL     OW20840   5.038   8.426   4.350  0.4850  0.2986  0.1378
 4661SOL    HW120841   5.030   8.332   4.335 -1.3309  0.6765 -1.5858
 4661SOL    HW220842   5.091   8.458   4.277  0.6929  0.6808  0.4508
 4662SOL     OW20843   3.427   4.666   0.649  0.3449 -0.6510  0.4244
 4662SOL    HW120844   3.511   4.645   0.608 -0.5089 -0.6949 -1.3819
 4662SOL    HW220845   3.363   4.655   0.579 -1.2050 -0.8304  1.8316
 4663SOL     OW20846  11.460   5.145   4.288 -0.7673 -0.3681 -0.5954
 4663SOL    HW120847  11.484   5.236   4.276 -0.7418 -0.2922  0.0012
 4663SOL    HW220848  11.400   5.126   4.216  1.1345 -0.5939 -2.1773
 4664SOL     OW20849   4.408  10.698   6.744 -0.0362 -0.3363  0.0560
 4664SOL    HW120850   4.340  10.632   6.730 -0.2041  0.0701 -1.0812
 4664SOL    HW220851   4.425  10.694   6.839 -0.6728 -1.3774  0.1465
 4665SOL     OW20852   4.213   3.089   5.775  0.7762  0.6395 -0.2075
 4665SOL    HW120853   4.171   3.174   5.759 -1.0964  0.0747  1.3835
 4665SOL    HW220854   4.305   3.104   5.752 -0.0131  2.2741 -2.6711
 4666SOL     OW20855  10.752   9.443   3.300  0.0413  0.5612 -0.0157
 4666SOL    HW120856  10.813   9.414   3.232  0.0785  0.5491  0.0221
 4666SOL    HW220857  10.754   9.538   3.296  0.0154  0.5595 -0.0567
 4667SOL     OW20858   9.983   4.926   2.842  0.0447 -0.0496  0.1462
 4667SOL    HW120859   9.924   4.987   2.886  0.3137 -1.3164  2.3803
 4667SOL    HW220860   9.960   4.840   2.878  3.1314 -0.6174  1.0197
 4668SOL     OW20861  11.794  10.722   7.974  0.1626 -0.9820  0.2627
 4668SOL    HW120862  11.813  10.703   7.882 -0.0377 -2.4131  0.4965
 4668SOL    HW220863  11.702  10.698   7.985 -0.4170  1.0697  0.3886
 4669SOL     OW20864  11.674   5.977   2.443 -0.2581 -0.0083 -0.3584
 4669SOL    HW120865  11.594   5.994   2.493  0.4793  2.8005  0.0335
 4669SOL    HW220866  11.745   5.995   2.505  0.6530  0.9915 -1.6315
 4670SOL     OW20867   6.070   1.553   7.204 -0.3967  0.1429 -0.0033
 4670SOL    HW120868   6.151   1.509   7.229 -0.8321  0.1227  1.4741
 4670SOL    HW220869   6.066   1.629   7.262 -1.9489 -0.4404  0.7063
 4671SOL     OW20870   4.494   0.638   0.728 -0.2720 -0.1951  0.3054
 4671SOL    HW120871   4.479   0.650   0.822  1.7405  0.4387  0.5848
 4671SOL    HW220872   4.442   0.561   0.705 -1.6434  0.2553  1.6903
 4672SOL     OW20873   6.360   5.250   4.782  0.2361 -0.1354 -0.1673
 4672SOL    HW120874   6.454   5.254   4.768  0.5532  0.4036  1.8199
 4672SOL    HW220875   6.349   5.258   4.876 -1.9714  3.0020 -0.5354
 4673SOL     OW20876   5.342   3.217   4.176 -0.9038  0.1882  0.2630
 4673SOL    HW120877   5.275   3.171   4.226 -0.9223  1.3626  1.3722
 4673SOL    HW220878   5.391   3.266   4.241  0.4249  0.1227 -0.6482
 4674SOL     OW20879   8.615   2.695   0.857 -0.2929  0.0945 -0.2282
 4674SOL    HW120880   8.665   2.775   0.875 -1.9684  0.9489  0.9033
 4674SOL    HW220881   8.557   2.720   0.784 -1.6848  0.3592  0.9211
 4675SOL     OW20882   0.181  10.872   4.830 -0.2608  0.4912  0.4597
 4675SOL    HW120883   0.248  10.927   4.870 -1.3156  2.0918  0.1536
 4675SOL    HW220884   0.146  10.926   4.759 -0.0006 -1.3749 -1.1586
 4676SOL     OW20885   6.742   0.527   4.611 -0.5248  0.3238  0.4049
 4676SOL    HW120886   6.723   0.593   4.677  0.6404  2.5261 -1.3253
 4676SOL    HW220887   6.722   0.444   4.653 -0.8885  1.6931  3.1128
 4677SOL     OW20888   5.281   3.945   0.190  0.5083  0.1229 -1.3982
 4677SOL    HW120889   5.361   3.904   0.155 -0.4637 -1.8957 -1.3976
 4677SOL    HW220890   5.239   3.876   0.241 -0.1746  1.8047  0.4297
 4678SOL     OW20891   6.811   6.616   9.532 -0.3559 -0.7285  0.1650
 4678SOL    HW120892   6.720   6.586   9.540  0.0712 -1.8339  1.3063
 4678SOL    HW220893   6.845   6.613   9.622  0.5971  0.4050 -0.1375
 4679SOL     OW20894   2.829   4.347   6.406 -0.2968 -0.3860  0.4228
 4679SOL    HW120895   2.802   4.382   6.322  0.1457  0.3051  0.5559
 4679SOL    HW220896   2.777   4.395   6.471  0.2598 -0.0093  0.6026
 4680SOL     OW20897   6.207   5.514   3.606  0.1521 -0.6422  0.4112
 4680SOL    HW120898   6.206   5.459   3.685  0.0480  1.0918  1.6764
 4680SOL    HW220899   6.281   5.573   3.620 -0.4003  0.2542 -0.3894
 4681SOL     OW20900   4.065   9.693   9.751 -0.1022 -0.7156  0.0467
 4681SOL    HW120901   4.090   9.660   9.837  0.0013 -0.5102  0.0973
 4681SOL    HW220902   4.136   9.666   9.693  0.6050  0.4648  0.3246
 4682SOL     OW20903   8.617  11.620   2.529  0.4728  0.1494 -0.0522
 4682SOL    HW120904   8.681  11.599   2.461 -0.9335 -1.9332 -0.8394
 4682SOL    HW220905   8.640  11.709   2.556  1.8358  0.6200 -2.3997
 4683SOL     OW20906   7.243   6.390   7.096 -0.1656  0.2887  0.6868
 4683SOL    HW120907   7.335   6.406   7.119  0.0187  1.2883 -0.6605
 4683SOL    HW220908   7.230   6.297   7.117  1.5339 -0.2275 -0.3219
 4684SOL     OW20909   6.485   6.608   1.893  0.6977 -0.8085 -0.1469
 4684SOL    HW120910   6.551   6.556   1.939  1.2527 -0.7348 -0.8380
 4684SOL    HW220911   6.409   6.606   1.950  1.4742 -0.4383  0.9429
 4685SOL     OW20912   6.085   4.631   7.265 -0.3653 -0.3511  0.8040
 4685SOL    HW120913   6.055   4.668   7.182 -1.5234 -1.7936  0.5219
 4685SOL    HW220914   6.148   4.694   7.299 -0.4698  0.6532 -0.7826
 4686SOL     OW20915   2.592   8.950   6.897 -0.1482 -0.4963 -0.1834
 4686SOL    HW120916   2.641   8.903   6.965  0.7253  0.2317 -0.2789
 4686SOL    HW220917   2.513   8.898   6.884  0.2187 -1.2775  0.5631
 4687SOL     OW20918   2.922   1.625   3.577  0.5160 -0.1836  0.2060
 4687SOL    HW120919   2.948   1.713   3.605 -0.2400 -0.4186  1.7081
 4687SOL    HW220920   2.826   1.626   3.581  0.2363  0.0460 -3.3193
 4688SOL     OW20921   2.372  12.181   2.692 -0.3895  0.1416  0.3262
 4688SOL    HW120922   2.416  12.107   2.652 -1.6527 -0.5267  0.1245
 4688SOL    HW220923   2.350  12.239   2.619  1.3136  1.1521  0.5603
 4689SOL     OW20924   2.076   5.033   2.946  0.7770  0.2493  0.9226
 4689SOL    HW120925   2.020   5.034   2.869  0.7761 -1.3106  0.8657
 4689SOL    HW220926   2.083   5.125   2.972  0.9402  0.8362 -1.0302
 4690SOL     OW20927   4.345   9.489   5.113  0.3521  0.1395  0.5090
 4690SOL    HW120928   4.424   9.542   5.108  0.2298  0.2854  0.0389
 4690SOL    HW220929   4.376   9.400   5.129  0.7111 -0.0696 -1.1597
 4691SOL     OW20930   1.821   7.787   8.995  0.1157 -0.3027  0.1655
 4691SOL    HW120931   1.803   7.735   9.074 -1.3933  0.8511  0.6406
 4691SOL    HW220932   1.741   7.777   8.942  0.1710  0.7888 -0.1385
 4692SOL     OW20933  11.923   8.285   7.639  0.3185 -0.3996  0.0067
 4692SOL    HW120934  11.961   8.293   7.726  2.1586 -0.3377 -0.7502
 4692SOL    HW220935  11.923   8.191   7.621 -0.4337 -0.4453  0.2142
 4693SOL     OW20936   7.977   0.115   0.468  0.0082  0.0224  0.1183
 4693SOL    HW120937   7.917   0.148   0.534 -0.3320  0.1204 -0.2400
 4693SOL    HW220938   7.934   0.038   0.432  0.3273 -0.2041  0.2156
 4694SOL     OW20939  10.435   9.116  10.266 -0.2611  0.2658  0.0314
 4694SOL    HW120940  10.416   9.206  10.293  0.2335  0.4256 -0.1291
 4694SOL    HW220941  10.400   9.111  10.177 -0.5176  0.2183  0.1339
 4695SOL     OW20942   3.000  10.271  10.761  0.0971  0.0009  0.7982
 4695SOL    HW120943   2.951  10.353  10.769 -1.4048 -0.6208 -1.0289
 4695SOL    HW220944   2.935  10.208  10.729  1.8182 -1.1900 -0.5667
 4696SOL     OW20945   8.797   7.084  10.499  0.4476  0.4204 -0.0295
 4696SOL    HW120946   8.774   7.174  10.474  0.2062  0.1886 -0.6650
 4696SOL    HW220947   8.832   7.045  10.418  1.1365  0.1299  0.4011
 4697SOL     OW20948   5.196  11.418   8.405 -0.6074 -0.3802 -0.2229
 4697SOL    HW120949   5.188  11.333   8.449  0.0116  0.2650  1.2253
 4697SOL    HW220950   5.148  11.408   8.323  0.2485 -2.4212 -0.5358
 4698SOL     OW20951   6.757   1.653   3.975 -0.3479 -0.2366 -0.1861
 4698SOL    HW120952   6.791   1.570   3.943 -0.3479 -0.3648  0.1428
 4698SOL    HW220953   6.763   1.647   4.070  0.0111  0.2913 -0.1653
 4699SOL     OW20954   9.795   5.079   2.123  0.5846 -0.4674 -0.3130
 4699SOL    HW120955   9.809   4.992   2.085  1.0711 -0.2932 -0.5465
 4699SOL    HW220956   9.777   5.062   2.216  0.0712 -0.8534 -0.4781
 4700SOL     OW20957   7.451   1.793   1.314 -0.5877  0.0082  0.6004
 4700SOL    HW120958   7.466   1.729   1.384 -0.9877 -0.2529  0.4552
 4700SOL    HW220959   7.539   1.817   1.284 -0.4288 -0.8241  0.3511
 4701SOL     OW20960  12.061   6.098   0.507 -0.0240 -0.2979 -0.1545
 4701SOL    HW120961  12.050   6.174   0.565 -0.4600 -0.5870  0.1418
 4701SOL    HW220962  12.095   6.135   0.426 -1.3507  0.3640 -0.4206
 4702SOL     OW20963   9.633   8.513   4.502  0.3201  0.0489 -0.2425
 4702SOL    HW120964   9.571   8.487   4.434 -0.6523  1.2645  0.1341
 4702SOL    HW220965   9.662   8.600   4.476 -0.0247  0.5089  0.8434
 4703SOL     OW20966   8.096  10.251   0.725 -0.0471 -0.5752  0.2674
 4703SOL    HW120967   8.001  10.252   0.740 -0.2731  0.8945 -1.0501
 4703SOL    HW220968   8.117  10.158   0.716 -1.2305 -0.9682  1.2813
 4704SOL     OW20969   0.318   4.192   9.421  0.5977  0.1414 -0.0245
 4704SOL    HW120970   0.325   4.226   9.332 -1.9545 -2.3123 -1.3072
 4704SOL    HW220971   0.286   4.266   9.473 -0.2196  0.9672 -1.6530
 4705SOL     OW20972  11.837  12.376   1.895  0.2362  0.1288  0.1051
 4705SOL    HW120973  11.764  12.321   1.924  1.1735 -0.8905  0.5731
 4705SOL    HW220974  11.849  12.439   1.967  0.7086 -0.5864  0.6631
 4706SOL     OW20975  11.608   6.001   5.975 -0.2419  0.2432 -0.0717
 4706SOL    HW120976  11.619   6.057   5.899  0.4795  0.2528  0.0289
 4706SOL    HW220977  11.692   5.956   5.984 -0.7222 -0.6711 -0.0038
 4707SOL     OW20978   6.512   3.685   9.925  0.2089 -0.3133 -0.1368
 4707SOL    HW120979   6.593   3.664   9.971 -0.2118 -0.0840  0.7420
 4707SOL    HW220980   6.455   3.723   9.993 -0.3188  0.3411 -0.9204
 4708SOL     OW20981   2.006   5.100  11.918 -0.1278  0.0413  0.6085
 4708SOL    HW120982   2.000   5.153  11.998 -0.7240 -1.1141  1.3633
 4708SOL    HW220983   2.089   5.125  11.879 -1.3512  3.2038 -0.2961
 4709SOL     OW20984   2.320   2.407   3.576 -0.3114  0.2133  0.0605
 4709SOL    HW120985   2.358   2.320   3.568  0.7021  0.7035 -0.8253
 4709SOL    HW220986   2.373   2.450   3.644  0.1624  0.5999 -0.5369
 4710SOL     OW20987   7.860   2.420  11.938 -0.3197 -0.3142  0.0729
 4710SOL    HW120988   7.798   2.347  11.939  0.4217 -0.9943 -1.3955
 4710SOL    HW220989   7.808   2.495  11.908 -0.5845 -0.7437 -0.5647
 4711SOL     OW20990   7.898   4.344   1.941  0.6033 -0.2383  0.2715
 4711SOL    HW120991   7.983   4.378   1.912 -0.3539  0.5938 -1.7895
 4711SOL    HW220992   7.886   4.381   2.028  1.4538  1.3317 -0.2368
 4712SOL     OW20993   6.629   3.311   8.968  0.0126 -0.0610  0.0906
 4712SOL    HW120994   6.687   3.370   9.016 -0.4198 -0.4499  1.1027
 4712SOL    HW220995   6.667   3.224   8.979 -0.7768 -0.3295  0.8208
 4713SOL     OW20996   8.985   6.570   3.984  0.3588 -0.3963 -0.2524
 4713SOL    HW120997   8.982   6.595   3.892 -0.6184  1.1829  0.1739
 4713SOL    HW220998   9.060   6.617   4.019 -2.0752  3.1233  0.7852
 4714SOL     OW20999   9.761  11.809   2.354  0.4440 -0.4298 -0.2972
 4714SOL    HW121000   9.731  11.899   2.363 -0.0546 -0.2694 -2.7462
 4714SOL    HW221001   9.808  11.791   2.434 -1.2738  1.2754  1.1987
 4715SOL     OW21002   1.292   0.759   5.670 -0.1691  0.0555  0.4748
 4715SOL    HW121003   1.354   0.828   5.647 -0.9067  0.1106 -1.5583
 4715SOL    HW221004   1.220   0.805   5.713  0.0045  0.3484  0.4532
 4716SOL     OW21005   8.434   4.068   0.856 -0.2459  0.1462 -0.2038
 4716SOL    HW121006   8.491   4.059   0.933  1.6292  0.0716 -1.5458
 4716SOL    HW221007   8.354   4.022   0.881 -0.1124  1.0222  2.0861
 4717SOL     OW21008   1.474   3.042   5.281 -0.1801 -0.4319  0.4234
 4717SOL    HW121009   1.513   2.979   5.220  0.2268  0.1252  0.1115
 4717SOL    HW221010   1.515   3.125   5.261 -1.1977  0.0859  0.3913
 4718SOL     OW21011   8.139  11.001   6.445  0.0100  0.1258  0.3587
 4718SOL    HW121012   8.095  11.018   6.528 -0.4810 -0.2522  0.1771
 4718SOL    HW221013   8.143  11.086   6.401  0.0244  0.2744  0.6482
 4719SOL     OW21014   2.692   1.940   3.103 -0.8647 -0.1579 -0.6476
 4719SOL    HW121015   2.723   1.877   3.038  0.5130  0.2849 -0.4504
 4719SOL    HW221016   2.748   1.926   3.179 -4.0588 -2.4561  1.5549
 4720SOL     OW21017   9.367   7.214   2.700 -0.6003  0.1042 -0.1605
 4720SOL    HW121018   9.410   7.179   2.622  0.5495  2.2074 -0.5403
 4720SOL    HW221019   9.273   7.206   2.681 -0.3497 -0.4913 -1.2344
 4721SOL     OW21020  11.484   5.601   7.146 -0.5923  0.3358  0.2572
 4721SOL    HW121021  11.554   5.607   7.211  1.8078 -1.4493 -1.9862
 4721SOL    HW221022  11.529   5.599   7.062 -3.4232 -0.1250 -1.3640
 4722SOL     OW21023   2.200   1.742   5.563  0.4330 -0.6865 -0.0790
 4722SOL    HW121024   2.254   1.663   5.560  1.6044  0.1225 -0.7583
 4722SOL    HW221025   2.258   1.810   5.597  0.7817  0.8470 -3.3676
 4723SOL     OW21026   8.815   5.421   4.790 -0.6032  0.1335  0.3030
 4723SOL    HW121027   8.890   5.371   4.759 -1.5819 -0.3233 -1.4535
 4723SOL    HW221028   8.754   5.355   4.823 -1.6471  0.1489 -1.4745
 4724SOL     OW21029   3.810   8.877  11.460 -0.1613 -0.9522  0.1405
 4724SOL    HW121030   3.858   8.812  11.409 -1.2379 -1.8895  0.3014
 4724SOL    HW221031   3.870   8.900  11.530 -0.3137 -2.9315  0.9870
 4725SOL     OW21032   3.954   0.546   5.477  0.2880 -0.0447  0.0834
 4725SOL    HW121033   3.984   0.626   5.433 -0.9161 -0.6672 -1.9801
 4725SOL    HW221034   4.035   0.500   5.499  1.0143  1.6775  1.3041
 4726SOL     OW21035   3.092   6.130   9.673  0.4185  0.3024  0.2039
 4726SOL    HW121036   3.047   6.156   9.753 -1.7378  1.8831 -1.3780
 4726SOL    HW221037   3.174   6.179   9.674 -0.1834  1.3295  0.8576
 4727SOL     OW21038  11.551   1.708   3.830  0.0401 -0.3545  0.3532
 4727SOL    HW121039  11.527   1.627   3.874  0.9983  0.1019  1.8261
 4727SOL    HW221040  11.642   1.723   3.857 -0.0221  1.0455 -0.1316
 4728SOL     OW21041   8.908   9.237   9.045 -0.7923 -0.0085  0.6307
 4728SOL    HW121042   8.948   9.241   9.132 -0.3630  0.9156  0.4064
 4728SOL    HW221043   8.851   9.160   9.048  0.2812 -0.8048  1.2687
 4729SOL     OW21044   5.499  11.363   4.245 -0.2160 -0.0301 -0.1197
 4729SOL    HW121045   5.520  11.393   4.156  3.1011 -0.4252  0.4124
 4729SOL    HW221046   5.537  11.429   4.302  1.6100 -1.9525  1.0031
 4730SOL     OW21047   6.821   1.515   1.274  0.2686  0.2918  0.2895
 4730SOL    HW121048   6.785   1.435   1.236 -2.4720  0.8087  1.5228
 4730SOL    HW221049   6.785   1.585   1.219  0.2776  0.7948  0.9158
 4731SOL     OW21050  11.788   7.055   1.783 -0.6761 -0.2890 -0.0231
 4731SOL    HW121051  11.749   7.143   1.780  0.4002  0.2495  0.8675
 4731SOL    HW221052  11.780   7.029   1.875  0.5179 -0.4025  0.0573
 4732SOL     OW21053   0.234   3.998   1.631  0.0434  0.6275 -0.5331
 4732SOL    HW121054   0.217   4.062   1.701  1.9314  0.3158  0.2785
 4732SOL    HW221055   0.147   3.969   1.603 -0.8227 -0.2489  2.6590
 4733SOL     OW21056   8.207   8.119   0.680 -0.2554 -0.0010  0.3252
 4733SOL    HW121057   8.210   8.184   0.750 -1.5542  1.2344 -0.7004
 4733SOL    HW221058   8.159   8.045   0.718 -0.9686  0.6657  0.7460
 4734SOL     OW21059   8.058   3.932  12.360 -0.2170  0.4352  0.4314
 4734SOL    HW121060   8.029   3.869  12.425 -2.6203 -1.0552 -1.8894
 4734SOL    HW221061   8.031   4.017  12.395 -1.3038 -0.3054  1.4509
 4735SOL     OW21062   4.600  10.279  11.148 -0.6958  0.3910 -0.0037
 4735SOL    HW121063   4.568  10.347  11.090  0.1046  1.3008  0.5891
 4735SOL    HW221064   4.596  10.318  11.236  0.8348  0.1084  0.2170
 4736SOL     OW21065   8.015   7.915   5.430  0.3143  0.1347  0.7026
 4736SOL    HW121066   7.970   8.000   5.433 -0.3376 -0.1955  0.4617
 4736SOL    HW221067   8.046   7.901   5.519 -2.0333 -0.6674  1.4610
 4737SOL     OW21068  11.476   0.546   9.633 -0.2559 -0.1134 -0.2504
 4737SOL    HW121069  11.446   0.598   9.558 -0.1709 -1.4462 -1.2529
 4737SOL    HW221070  11.399   0.496   9.660 -0.4879  0.9158  1.0669
 4738SOL     OW21071   1.582   7.671  11.625 -0.2160  0.0061  0.0684
 4738SOL    HW121072   1.548   7.605  11.564  0.3540  0.9769 -1.3534
 4738SOL    HW221073   1.504   7.713  11.660 -0.5674 -0.9451  0.4664
 4739SOL     OW21074   5.910   9.977   2.861 -0.1243 -0.2790  0.0589
 4739SOL    HW121075   5.875   9.892   2.890  0.0676 -0.3819 -0.0104
 4739SOL    HW221076   5.832  10.027   2.836 -0.2438 -0.4089  0.1657
 4740SOL     OW21077   2.851   1.309   4.376 -0.3758  0.0215  0.2813
 4740SOL    HW121078   2.792   1.384   4.378  0.6508  0.9880 -2.0775
 4740SOL    HW221079   2.920   1.331   4.439 -0.1986  0.9884 -0.2332
 4741SOL     OW21080   6.420  10.182   1.526 -0.0348 -0.3569 -0.3711
 4741SOL    HW121081   6.386  10.264   1.561  2.0926  0.1967  0.5728
 4741SOL    HW221082   6.431  10.125   1.602  0.4181 -0.7750 -0.7376
 4742SOL     OW21083   3.385   2.655  10.260  0.2604  0.2065 -0.1702
 4742SOL    HW121084   3.293   2.664  10.233 -0.8626 -1.5078  2.6824
 4742SOL    HW221085   3.406   2.563  10.242  1.4810  0.5861 -0.8123
 4743SOL     OW21086   0.641   4.989   3.239  0.9279  0.2078  0.3570
 4743SOL    HW121087   0.652   5.062   3.178  0.8127 -0.5545 -0.6040
 4743SOL    HW221088   0.691   4.918   3.200  0.0618 -0.5828  0.6542
 4744SOL     OW21089   1.715   3.763   8.458 -0.2213  0.2981 -0.2370
 4744SOL    HW121090   1.645   3.824   8.482  0.3866  0.7617  0.3934
 4744SOL    HW221091   1.796   3.810   8.477  0.2619 -0.9228  0.9034
 4745SOL     OW21092   6.065   7.698  11.060 -0.3843  0.3421  0.5382
 4745SOL    HW121093   6.114   7.777  11.038 -0.0103  0.1062  0.5189
 4745SOL    HW221094   5.980   7.711  11.019  0.1294  0.1382 -0.6378
 4746SOL     OW21095   1.407  10.900   5.052 -0.1051 -0.6143 -0.2543
 4746SOL    HW121096   1.386  10.807   5.049 -2.2509 -0.1838 -0.3565
 4746SOL    HW221097   1.368  10.931   5.133  0.6789  0.1906 -0.1673
 4747SOL     OW21098  10.027  12.343  10.339 -0.0202  0.3595 -0.4228
 4747SOL    HW121099   9.968  12.271  10.319  0.6381 -0.0345 -1.0360
 4747SOL    HW221100   9.981  12.395  10.404  0.0577 -1.3671  1.0866
 4748SOL     OW21101   0.520  11.670   0.231  0.1287  0.7966  0.5082
 4748SOL    HW121102   0.606  11.699   0.198  0.4086 -0.7151 -0.1743
 4748SOL    HW221103   0.470  11.751   0.239 -0.1888  1.4118 -4.2707
 4749SOL     OW21104   2.662   5.948   5.342 -0.0878  0.5132 -0.0075
 4749SOL    HW121105   2.744   5.900   5.355  0.6047  1.7911  0.5076
 4749SOL    HW221106   2.670   5.988   5.256 -1.0366 -0.9255 -0.8260
 4750SOL     OW21107   8.636   9.138  11.517  0.2796  0.2632  0.4975
 4750SOL    HW121108   8.587   9.127  11.598  1.8734  1.3180  1.6692
 4750SOL    HW221109   8.702   9.204  11.538  0.2941  1.0915 -1.8770
 4751SOL     OW21110  11.147   6.449   5.106 -0.2022  0.1078 -0.2119
 4751SOL    HW121111  11.160   6.427   5.014 -1.5040 -1.9594  0.0153
 4751SOL    HW221112  11.155   6.365   5.152 -0.4950  0.9366  1.4384
 4752SOL     OW21113   0.759   9.844  11.632  0.5645  0.1556 -0.1863
 4752SOL    HW121114   0.708   9.816  11.556  1.1667 -0.4052 -0.3921
 4752SOL    HW221115   0.700   9.901  11.681  0.2482  0.7322 -1.2051
 4753SOL     OW21116   4.330  10.493  12.149  0.4956  0.1694  0.3770
 4753SOL    HW121117   4.419  10.460  12.152  0.4113 -0.0404  0.6056
 4753SOL    HW221118   4.334  10.578  12.194  0.3240 -0.4442  1.5900
 4754SOL     OW21119  12.027   8.038   8.184  0.1782  0.2429 -0.2209
 4754SOL    HW121120  12.008   8.114   8.129 -1.1701  0.2422  0.2005
 4754SOL    HW221121  12.120   8.021   8.171  0.5069  1.9598 -0.3221
 4755SOL     OW21122   4.504  10.527   9.888 -0.4205  0.1299 -0.2983
 4755SOL    HW121123   4.528  10.435   9.892 -1.2819 -0.1139 -0.6724
 4755SOL    HW221124   4.409  10.528   9.886 -0.5799  1.1322  2.5349
 4756SOL     OW21125  11.862   6.672   8.602  0.1559  0.4199  0.0248
 4756SOL    HW121126  11.955   6.674   8.622  0.2254  0.1958 -0.2760
 4756SOL    HW221127  11.832   6.761   8.618  0.1169  0.1642  1.5855
 4757SOL     OW21128   3.486   7.151   9.896 -0.1177 -0.2356 -0.4211
 4757SOL    HW121129   3.555   7.218   9.896 -0.5533  0.2279  0.6318
 4757SOL    HW221130   3.419   7.185   9.837 -0.4226  0.3635  0.2565
 4758SOL     OW21131   6.432   7.528   7.740  0.4593  0.2614  0.3646
 4758SOL    HW121132   6.407   7.522   7.648  3.0280  1.2750 -0.4989
 4758SOL    HW221133   6.423   7.621   7.761  2.6320  0.5554  0.1973
 4759SOL     OW21134   1.137   7.709  11.383 -0.1467 -0.3220  0.1594
 4759SOL    HW121135   1.082   7.652  11.330 -0.8198 -0.2619  0.7804
 4759SOL    HW221136   1.162   7.655  11.458  2.0935 -0.9249 -0.9560
 4760SOL     OW21137   5.752  11.968   2.482  0.7665 -0.2071 -0.1683
 4760SOL    HW121138   5.756  11.874   2.496  0.3024 -0.1799  0.1945
 4760SOL    HW221139   5.662  11.992   2.506  0.2972  0.0441 -2.0692
 4761SOL     OW21140   1.480   8.881   7.767  0.3642  0.2576 -0.3340
 4761SOL    HW121141   1.434   8.797   7.772  2.7038 -1.1015 -0.1003
 4761SOL    HW221142   1.445   8.932   7.841 -1.9223  0.0089 -1.1536
 4762SOL     OW21143   7.288   7.327   5.937  0.0078 -0.1907 -0.2302
 4762SOL    HW121144   7.272   7.418   5.963  0.6403 -0.0062 -0.4480
 4762SOL    HW221145   7.372   7.306   5.979 -0.4114 -0.8617  0.2806
 4763SOL     OW21146  10.666   9.366   4.676 -0.1144 -0.0957  0.7121
 4763SOL    HW121147  10.614   9.410   4.609  0.5020 -0.3806  0.0288
 4763SOL    HW221148  10.705   9.291   4.631 -0.3030 -0.7415  1.5904
 4764SOL     OW21149   7.631  11.739   7.762 -0.0408 -0.2318  0.4488
 4764SOL    HW121150   7.589  11.677   7.822 -1.1367 -0.0419 -0.0946
 4764SOL    HW221151   7.680  11.798   7.820  1.5218 -1.9275  0.9361
 4765SOL     OW21152   9.993  11.475   9.565  0.7910  0.2256 -0.0557
 4765SOL    HW121153   9.980  11.563   9.530  1.0034 -0.2185 -1.2868
 4765SOL    HW221154   9.964  11.481   9.656  0.5465  1.4958 -0.2019
 4766SOL     OW21155   6.201   1.518  11.182  0.2124 -0.3598 -0.5302
 4766SOL    HW121156   6.267   1.560  11.238 -2.7355  5.6117 -0.7492
 4766SOL    HW221157   6.150   1.464  11.242  1.9628 -0.6874  0.7526
 4767SOL     OW21158   3.348   7.275   6.653 -0.1319  0.0989  0.2845
 4767SOL    HW121159   3.364   7.254   6.561  0.5366 -1.1782  0.6692
 4767SOL    HW221160   3.261   7.315   6.654  0.3600  1.2793 -1.0426
 4768SOL     OW21161  12.331   9.493   2.347  0.1558 -0.5747  0.0925
 4768SOL    HW121162  12.314   9.519   2.257  1.1518 -0.4497 -0.0744
 4768SOL    HW221163  12.375   9.408   2.339  0.1052 -0.6357  0.4683
 4769SOL     OW21164   9.873   5.699  10.730  0.4011 -0.1786  0.4669
 4769SOL    HW121165   9.943   5.745  10.775  1.4262  0.1055 -1.2900
 4769SOL    HW221166   9.913   5.671  10.647 -1.0576 -1.6014  0.1859
 4770SOL     OW21167   2.097   5.989   2.994 -0.6447 -0.4107 -0.2851
 4770SOL    HW121168   2.110   5.898   3.019 -0.8868 -0.3263  0.1513
 4770SOL    HW221169   2.027   6.020   3.051 -1.3437 -0.2733 -1.1862
 4771SOL     OW21170   1.719  11.657   2.852 -0.6627 -0.1780  0.1035
 4771SOL    HW121171   1.755  11.577   2.889  0.6580  1.1715  1.8423
 4771SOL    HW221172   1.692  11.631   2.763 -1.5463 -2.8565  1.0456
 4772SOL     OW21173   2.570   2.087   9.210  0.4631 -0.0289 -0.4139
 4772SOL    HW121174   2.623   2.165   9.227  1.6381 -0.8133 -0.3215
 4772SOL    HW221175   2.536   2.062   9.296  0.7525 -0.0725 -0.3104
 4773SOL     OW21176   2.048   0.104   4.232  0.0663  0.1141  0.9366
 4773SOL    HW121177   2.069   0.167   4.162 -0.3243 -0.9657 -0.1826
 4773SOL    HW221178   1.953   0.107   4.240  0.1443  0.6251  1.8222
 4774SOL     OW21179   8.863   8.739   1.876  0.2079 -0.2700 -0.7865
 4774SOL    HW121180   8.835   8.652   1.848 -1.2458  0.2614 -1.0564
 4774SOL    HW221181   8.891   8.727   1.967 -1.9267 -0.6750 -0.1222
 4775SOL     OW21182   7.657  11.015   4.573  0.1705 -0.1256 -0.2468
 4775SOL    HW121183   7.679  11.027   4.480 -0.1378  1.1556 -0.1698
 4775SOL    HW221184   7.708  11.083   4.618 -1.0477  0.4192  0.3323
 4776SOL     OW21185   3.282   7.203  10.491 -0.4438 -0.6719  0.0099
 4776SOL    HW121186   3.203   7.227  10.443 -1.7627 -1.2194  1.8104
 4776SOL    HW221187   3.289   7.108  10.482 -0.6947 -0.7791  0.8488
 4777SOL     OW21188   0.524  10.878   1.617 -0.2434 -0.3558 -0.0932
 4777SOL    HW121189   0.431  10.861   1.600 -0.6103  2.1898 -1.0145
 4777SOL    HW221190   0.564  10.881   1.531 -0.0959  2.3286 -0.0053
 4778SOL     OW21191   9.080   3.404   7.977 -0.5954 -0.1666  0.4032
 4778SOL    HW121192   9.133   3.441   8.047 -0.5421 -2.4480  1.6656
 4778SOL    HW221193   8.999   3.455   7.978 -0.2891  0.3336  1.6092
 4779SOL     OW21194   4.350   2.101   8.677 -0.0404  1.0657 -0.4596
 4779SOL    HW121195   4.326   2.014   8.709  2.1053  0.3267 -0.6565
 4779SOL    HW221196   4.316   2.105   8.588  3.1401 -1.3014 -2.0148
 4780SOL     OW21197   0.193   8.009   0.084 -0.8112 -0.1394  0.3168
 4780SOL    HW121198   0.231   8.091   0.053 -0.6834 -0.9828 -1.9307
 4780SOL    HW221199   0.144   8.033   0.162  0.3300  1.8223  0.4890
 4781SOL     OW21200   1.046   8.571  11.119  0.4468 -0.3387  0.4241
 4781SOL    HW121201   1.003   8.574  11.204  0.2152  0.2038  0.2882
 4781SOL    HW221202   1.028   8.482  11.087 -0.7476 -0.0596  0.2815
 4782SOL     OW21203   2.697   1.377   3.998  0.2537  0.2142  0.4299
 4782SOL    HW121204   2.747   1.443   3.949  1.8100 -1.4209 -0.3027
 4782SOL    HW221205   2.673   1.312   3.932  0.1412 -0.7562  1.4167
 4783SOL     OW21206   4.131  11.547   0.710  0.4223 -0.4341  0.1302
 4783SOL    HW121207   4.130  11.604   0.632  2.0543  0.9305  1.0388
 4783SOL    HW221208   4.115  11.459   0.675  0.1514  0.2658 -1.6272
 4784SOL     OW21209   3.336   5.133   2.602 -0.4527  0.2226  0.1848
 4784SOL    HW121210   3.367   5.219   2.571  0.7074  1.6526  4.6103
 4784SOL    HW221211   3.414   5.079   2.605 -0.5972  0.0230  0.3516
 4785SOL     OW21212   4.835   0.945  11.870  0.2507  0.0745  0.0029
 4785SOL    HW121213   4.767   0.949  11.802 -0.2924 -0.5593  0.4980
 4785SOL    HW221214   4.870   1.034  11.873 -0.8223  0.5120 -0.0019
 4786SOL     OW21215   9.538  10.194   9.105  0.5392  0.1288  0.1406
 4786SOL    HW121216   9.451  10.216   9.072  1.4942  4.1114 -0.2215
 4786SOL    HW221217   9.545  10.241   9.188  1.3953 -2.5004  1.6787
 4787SOL     OW21218   3.763   8.613   9.855  0.1101 -0.2892 -0.2643
 4787SOL    HW121219   3.710   8.681   9.813  2.8840  0.5414 -2.7354
 4787SOL    HW221220   3.765   8.542   9.791  0.1609 -1.2531  0.7833
 4788SOL     OW21221   2.772   0.709   5.833  0.0325  0.2612 -0.1445
 4788SOL    HW121222   2.704   0.776   5.836 -1.9859 -1.5711 -1.5459
 4788SOL    HW221223   2.749   0.648   5.903 -0.4315 -0.9033 -1.2660
 4789SOL     OW21224  11.251   9.428   5.116  0.9022 -0.4361  0.5250
 4789SOL    HW121225  11.330   9.377   5.096 -0.2333 -1.4457 -1.8527
 4789SOL    HW221226  11.253   9.499   5.052  0.4026  0.1333  1.1402
 4790SOL     OW21227   0.040   4.347   2.989 -0.1656  0.0112 -0.7191
 4790SOL    HW121228   0.116   4.334   3.046 -0.2694  0.3230 -0.5084
 4790SOL    HW221229  -0.012   4.267   3.001 -0.1114  0.0090 -0.4911
 4791SOL     OW21230   5.619   0.188   6.304  0.3691 -0.5614  0.0637
 4791SOL    HW121231   5.568   0.139   6.369  0.3179  0.3843  0.7707
 4791SOL    HW221232   5.561   0.194   6.228  0.5748 -2.0153 -0.2254
 4792SOL     OW21233  10.268   5.336   1.956 -0.3279  0.0541 -0.1592
 4792SOL    HW121234  10.297   5.381   2.035  0.9256 -1.2987  0.1961
 4792SOL    HW221235  10.178   5.365   1.944  1.2016  5.0622 -1.7449
 4793SOL     OW21236   7.573   0.359   9.368 -0.5483  0.2275 -0.2201
 4793SOL    HW121237   7.484   0.337   9.341  0.1208 -1.7476 -0.9588
 4793SOL    HW221238   7.621   0.370   9.286  0.4528 -1.2936  0.1283
 4794SOL     OW21239   3.255   3.547   7.894  0.2549  0.7323  0.1847
 4794SOL    HW121240   3.185   3.576   7.952 -0.3834  2.6009 -1.3954
 4794SOL    HW221241   3.219   3.469   7.851 -0.3734  0.9531  0.2899
 4795SOL     OW21242   4.986  11.801  12.333 -0.4123  0.1507  0.2048
 4795SOL    HW121243   5.002  11.845  12.250 -1.7889  1.1807  0.4439
 4795SOL    HW221244   4.911  11.744  12.316  0.4113 -0.9842  0.2971
 4796SOL     OW21245  12.443   2.383   2.320  0.4369  0.4022 -0.0199
 4796SOL    HW121246  12.487   2.438   2.255 -1.2241  0.4366 -1.1814
 4796SOL    HW221247  12.477   2.413   2.404  0.4635  2.4083 -0.6945
 4797SOL     OW21248   4.152   5.796   1.466 -0.0586  0.0268 -0.3138
 4797SOL    HW121249   4.175   5.857   1.536  0.0235 -0.1122 -0.2189
 4797SOL    HW221250   4.084   5.842   1.416 -2.0668 -0.9302  1.4180
 4798SOL     OW21251   9.000  10.932  12.383  0.7557 -0.1281  0.4299
 4798SOL    HW121252   8.992  10.920  12.288  1.1935 -1.4909  0.5389
 4798SOL    HW221253   9.094  10.934  12.399  0.6855 -0.0776  0.8434
 4799SOL     OW21254   9.765   9.893   2.927  0.0026  0.2632 -0.5525
 4799SOL    HW121255   9.787   9.935   2.844 -0.6720  0.0873 -0.8240
 4799SOL    HW221256   9.850   9.876   2.968  0.4045 -0.7775 -1.7601
 4800SOL     OW21257   2.380   6.677   2.389  0.5737  0.1939  0.1478
 4800SOL    HW121258   2.443   6.747   2.373  1.9322 -1.2947 -1.4841
 4800SOL    HW221259   2.344   6.657   2.302 -1.4112  0.2868  0.8939
 4801SOL     OW21260  10.460  11.485  11.360  0.0067  0.2393  0.3896
 4801SOL    HW121261  10.465  11.447  11.272 -1.1590  0.4803  0.1981
 4801SOL    HW221262  10.504  11.570  11.351 -3.0572  1.8559 -0.9399
 4802SOL     OW21263   1.906   4.656   1.944 -0.3560 -0.4564 -0.4638
 4802SOL    HW121264   1.954   4.615   1.872  0.8575  0.7876 -0.3982
 4802SOL    HW221265   1.864   4.583   1.989  3.1328 -1.9267  0.7207
 4803SOL     OW21266   3.204  10.939  11.095  0.3697 -0.6141 -0.4019
 4803SOL    HW121267   3.267  10.937  11.167 -0.0096 -0.4761 -0.0622
 4803SOL    HW221268   3.213  11.027  11.058  0.9802 -0.8790 -0.9031
 4804SOL     OW21269   7.151   9.009  11.985 -0.5169 -0.9052 -0.2166
 4804SOL    HW121270   7.135   9.044  11.897 -0.5383 -2.8018 -1.0134
 4804SOL    HW221271   7.147   8.914  11.974 -0.6536 -1.1881  1.8721
 4805SOL     OW21272  10.677   6.974   6.211 -0.2440  0.1817 -0.0655
 4805SOL    HW121273  10.592   6.985   6.168  0.5120 -0.6078 -1.8303
 4805SOL    HW221274  10.732   7.044   6.174  0.2932 -0.2249 -0.0436
 4806SOL     OW21275   3.821   0.623   6.983  0.2835  0.2197 -0.0408
 4806SOL    HW121276   3.879   0.629   7.059  0.4054  1.2988 -0.2135
 4806SOL    HW221277   3.808   0.713   6.954 -1.3631 -0.0025 -0.1121
 4807SOL     OW21278  12.435   5.511   6.645 -0.0192  0.3193 -0.1121
 4807SOL    HW121279  12.411   5.557   6.726  1.4206 -0.5295  0.8560
 4807SOL    HW221280  12.469   5.426   6.676  1.7118  0.4467 -1.5060
 4808SOL     OW21281   7.410   4.044   6.022 -0.0696 -0.5087 -0.0201
 4808SOL    HW121282   7.482   4.012   5.969  0.6031 -2.6281  2.0207
 4808SOL    HW221283   7.436   4.133   6.047  1.1406 -0.7131 -0.4904
 4809SOL     OW21284   3.503  12.258   4.289 -0.9760  0.3505  0.0207
 4809SOL    HW121285   3.521  12.196   4.361 -3.5251 -1.6125 -0.8661
 4809SOL    HW221286   3.493  12.203   4.212  0.7189  2.3312 -1.7258
 4810SOL     OW21287  12.215   6.074  11.171 -0.2279 -0.4173 -0.4205
 4810SOL    HW121288  12.166   6.137  11.119  1.2662  0.4894 -0.7998
 4810SOL    HW221289  12.199   5.990  11.127 -0.5441  0.0282 -1.1858
 4811SOL     OW21290   9.608   2.570   4.086  0.4045 -0.0965 -0.0576
 4811SOL    HW121291   9.560   2.518   4.022  2.0058 -0.7376 -0.8070
 4811SOL    HW221292   9.699   2.567   4.055  0.8805  1.3300  1.1093
 4812SOL     OW21293   3.720   3.326   9.891 -0.0910 -0.3739  0.2495
 4812SOL    HW121294   3.667   3.280   9.825  1.0380  0.8047 -1.5730
 4812SOL    HW221295   3.703   3.419   9.875  0.2925 -0.0559  1.5751
 4813SOL     OW21296   6.157   8.664   6.100  0.7389  0.4101  1.5001
 4813SOL    HW121297   6.175   8.650   6.193  0.6674  0.6235  1.5463
 4813SOL    HW221298   6.165   8.759   6.088 -1.4431  0.6927  1.7597
 4814SOL     OW21299   7.346   9.380   4.950  0.3607  0.4700 -0.3558
 4814SOL    HW121300   7.369   9.446   4.884 -2.1751  1.8080 -0.0450
 4814SOL    HW221301   7.359   9.424   5.034 -2.2573  1.0647 -0.1555
 4815SOL     OW21302   8.565  10.066  11.191  0.1097 -0.1339  0.3192
 4815SOL    HW121303   8.581  10.149  11.235 -0.0584  0.0436  0.0523
 4815SOL    HW221304   8.640  10.055  11.133 -0.3603  0.3372 -0.3947
 4816SOL     OW21305  10.311   5.600   7.893 -0.4243  0.3064 -0.4551
 4816SOL    HW121306  10.316   5.529   7.828 -0.9635  0.6562 -0.8918
 4816SOL    HW221307  10.351   5.675   7.849  0.0898  0.2948 -0.0152
 4817SOL     OW21308   5.300   7.766  10.857 -0.2430  0.6967  0.3025
 4817SOL    HW121309   5.206   7.762  10.836  0.0549  0.2407 -1.0583
 4817SOL    HW221310   5.332   7.843  10.809 -0.2397  1.9936  2.2727
 4818SOL     OW21311   4.689   6.593   7.093 -0.3489  0.0324  0.4425
 4818SOL    HW121312   4.709   6.598   7.187  0.0091  1.7990  0.3064
 4818SOL    HW221313   4.772   6.615   7.050 -0.8132  0.4787 -0.2502
 4819SOL     OW21314   8.958   9.279   6.677  0.0429  0.0002  0.2883
 4819SOL    HW121315   9.031   9.342   6.682 -1.0049  1.1750  1.5264
 4819SOL    HW221316   8.880   9.333   6.681 -0.9225 -1.4056  2.7085
 4820SOL     OW21317   3.087   4.960   2.366 -0.9990  0.2160 -0.2058
 4820SOL    HW121318   3.131   5.034   2.324  0.3434 -0.0978  0.6006
 4820SOL    HW221319   3.015   4.938   2.306 -0.7776  1.4915 -0.9779
 4821SOL     OW21320  10.043   4.529   0.820 -0.3485  0.0446 -0.5000
 4821SOL    HW121321   9.988   4.564   0.750 -1.3415  0.3531  0.4211
 4821SOL    HW221322  10.038   4.595   0.889  0.1843 -0.5216  0.0823
 4822SOL     OW21323   0.832   2.448   4.518  0.4231 -0.0805  0.1422
 4822SOL    HW121324   0.803   2.505   4.446 -0.6040  0.6651  1.1220
 4822SOL    HW221325   0.799   2.491   4.597 -0.1566 -1.9189  0.9306
 4823SOL     OW21326  10.564  12.349   9.039  0.2586 -0.2750  0.3802
 4823SOL    HW121327  10.470  12.348   9.060  0.6299  0.3193  2.3177
 4823SOL    HW221328  10.584  12.442   9.026  0.7280 -0.3230  0.7545
 4824SOL     OW21329   8.393  10.903   1.232 -1.3076 -0.6765  0.1338
 4824SOL    HW121330   8.332  10.876   1.163 -3.2662  1.8894  0.7037
 4824SOL    HW221331   8.347  10.882   1.313 -0.9442  0.2829  0.5949
 4825SOL     OW21332   9.695   5.319  10.415 -0.1454  0.0745 -0.4482
 4825SOL    HW121333   9.647   5.251  10.367 -1.5857  0.4122  0.4395
 4825SOL    HW221334   9.669   5.400  10.372  0.3039  0.1912 -0.4964
 4826SOL     OW21335   2.873   7.533   8.864  0.0608  0.3899 -0.2778
 4826SOL    HW121336   2.786   7.500   8.884  0.4590  0.3135  1.4793
 4826SOL    HW221337   2.859   7.598   8.795 -1.2891 -0.0776 -0.4620
 4827SOL     OW21338   7.355   8.989   0.511 -0.0902 -0.2890  0.5195
 4827SOL    HW121339   7.268   9.018   0.539 -0.2273  0.3801 -0.5369
 4827SOL    HW221340   7.359   9.014   0.418  1.0040 -0.8504  0.4091
 4828SOL     OW21341   7.432   2.961   4.337  0.0683  0.1103  0.0065
 4828SOL    HW121342   7.454   2.873   4.369  1.2732  0.9771  1.7492
 4828SOL    HW221343   7.337   2.966   4.343  0.0488 -0.7940  0.7016
 4829SOL     OW21344   9.511   5.658  12.489  0.0890 -0.0335  0.6930
 4829SOL    HW121345   9.525   5.726  12.555 -0.0407  0.4171  0.2602
 4829SOL    HW221346   9.425   5.621  12.510 -0.0408  0.2451  0.6609
 4830SOL     OW21347   9.427  10.651   9.818  0.4981  0.2140 -0.6723
 4830SOL    HW121348   9.465  10.635   9.904 -0.0666  1.0046 -0.2728
 4830SOL    HW221349   9.366  10.578   9.804  1.1742 -0.3539 -0.7644
 4831SOL     OW21350  11.906   2.117  11.322 -0.0549  0.5706  0.3865
 4831SOL    HW121351  11.819   2.155  11.307 -0.4555 -1.0964 -2.0566
 4831SOL    HW221352  11.962   2.161  11.259  0.4310  0.1590  0.5274
 4832SOL     OW21353   8.868   5.994   4.397 -0.8210  0.0380 -0.1565
 4832SOL    HW121354   8.843   6.047   4.473  0.4644  0.6681 -0.1537
 4832SOL    HW221355   8.859   6.053   4.323 -0.9146 -0.2234 -0.3545
 4833SOL     OW21356   7.121   7.618   6.545  0.1030  0.1400  0.5007
 4833SOL    HW121357   7.144   7.699   6.500 -1.5628  0.6107  0.4421
 4833SOL    HW221358   7.204   7.587   6.583  0.7887  1.7897  0.4235
 4834SOL     OW21359   8.460  10.089   6.899  0.2640  0.3526  0.3071
 4834SOL    HW121360   8.515  10.159   6.936 -0.0658 -0.0826  1.6462
 4834SOL    HW221361   8.408  10.134   6.832  0.7601  1.1929  0.4612
 4835SOL     OW21362   5.903   7.724   2.881 -0.5105 -0.1223 -0.1516
 4835SOL    HW121363   5.851   7.767   2.949 -0.2863  1.6442 -1.0496
 4835SOL    HW221364   5.847   7.726   2.803 -0.2271 -0.8855 -0.3800
 4836SOL     OW21365   5.593  11.482   2.654  0.1089 -0.4454 -0.2210
 4836SOL    HW121366   5.498  11.495   2.655  0.0659 -0.5597 -1.2223
 4836SOL    HW221367   5.614  11.452   2.742 -0.3130  2.6969  1.0819
 4837SOL     OW21368   0.164   5.414   2.282  0.4891 -0.1775 -0.2276
 4837SOL    HW121369   0.246   5.460   2.301  0.9759 -0.6353 -1.1368
 4837SOL    HW221370   0.095   5.474   2.311  1.1400  0.0068  1.0110
 4838SOL     OW21371   0.017   5.217   6.948 -0.4829 -0.9590 -0.3180
 4838SOL    HW121372   0.099   5.259   6.975 -0.5577 -1.1273  0.1760
 4838SOL    HW221373   0.026   5.206   6.853  0.2158 -1.3064 -0.2171
 4839SOL     OW21374   1.451   8.573   9.989 -0.3356 -0.0931 -0.4145
 4839SOL    HW121375   1.479   8.522  10.064  0.2035  0.9506  0.1121
 4839SOL    HW221376   1.505   8.542   9.917 -2.4608 -2.8147 -1.0384
 4840SOL     OW21377   5.425   2.601   8.016 -0.2103  0.6425 -0.3569
 4840SOL    HW121378   5.375   2.639   7.944  1.1603  1.8862 -0.6927
 4840SOL    HW221379   5.515   2.597   7.984  0.7942  2.8632  1.8245
 4841SOL     OW21380   7.984   3.866   9.924 -0.5342  0.4038  0.0407
 4841SOL    HW121381   7.964   3.947   9.877  0.9946  1.0416  0.4315
 4841SOL    HW221382   7.950   3.880  10.012 -1.7969 -0.0833 -0.3465
 4842SOL     OW21383   8.088   9.315  10.254 -0.7170  0.1172  0.3623
 4842SOL    HW121384   8.042   9.359  10.183  0.7783  1.5206  0.1987
 4842SOL    HW221385   8.175   9.297  10.218 -0.6987 -1.3424  1.0635
 4843SOL     OW21386   5.008   3.255   1.836 -0.4916  0.0338  0.2628
 4843SOL    HW121387   4.922   3.255   1.793  0.2655  0.2574 -1.3285
 4843SOL    HW221388   5.069   3.282   1.768  1.1092 -1.9109  0.8098
 4844SOL     OW21389   2.451  12.433   2.334 -0.4734  0.0980  0.4232
 4844SOL    HW121390   2.462  12.423   2.239  1.0098 -2.0894  0.7654
 4844SOL    HW221391   2.407  12.353   2.362 -2.8171  1.6198  1.3790
 4845SOL     OW21392   4.768   5.973   4.270  0.0153 -0.2122  0.5737
 4845SOL    HW121393   4.676   5.950   4.281  0.4100 -2.5658 -0.4867
 4845SOL    HW221394   4.811   5.941   4.349 -0.1147  1.4241  1.3469
 4846SOL     OW21395   2.823   3.981   2.880 -0.3179  0.3820 -0.4890
 4846SOL    HW121396   2.728   3.965   2.874 -0.2614  0.5455 -2.6121
 4846SOL    HW221397   2.836   4.011   2.969 -2.5936  2.2777 -0.6859
 4847SOL     OW21398   6.316  11.612   8.316 -0.2626 -0.1177 -0.8736
 4847SOL    HW121399   6.378  11.593   8.245  0.3252 -0.0695 -0.3805
 4847SOL    HW221400   6.342  11.700   8.346 -0.1251 -0.3862 -0.2029
 4848SOL     OW21401   7.058  11.862  11.521 -0.0269 -0.0316  0.5790
 4848SOL    HW121402   7.128  11.917  11.486 -0.8542  2.3503  2.3101
 4848SOL    HW221403   6.993  11.858  11.450  0.1113  1.1858  0.3598
 4849SOL     OW21404   1.217   4.650   0.950 -0.7869  0.4153  0.6814
 4849SOL    HW121405   1.281   4.579   0.946 -0.3111  0.8032  1.2667
 4849SOL    HW221406   1.139   4.610   0.989 -0.3058  0.3732  1.6072
 4850SOL     OW21407   1.949   9.498   5.870 -0.3009  0.2870 -1.2227
 4850SOL    HW121408   1.952   9.403   5.875  1.8853  0.3489 -0.2809
 4850SOL    HW221409   2.040   9.526   5.883 -1.0625  2.5570 -0.2824
 4851SOL     OW21410   0.324   5.756   4.351  0.6826 -0.0626 -0.1588
 4851SOL    HW121411   0.399   5.736   4.295  0.1447  1.3173 -1.4304
 4851SOL    HW221412   0.257   5.694   4.324  0.1054  1.2042 -1.7810
 4852SOL     OW21413  11.254   1.848   2.467 -0.1556  0.1582  0.3090
 4852SOL    HW121414  11.312   1.814   2.399  0.6129  0.9989  0.5061
 4852SOL    HW221415  11.244   1.776   2.529 -1.5981 -0.9176 -1.1221
 4853SOL     OW21416   3.600   7.695  11.414 -0.2295 -0.1894 -0.9143
 4853SOL    HW121417   3.530   7.721  11.473 -0.8376  0.0484 -1.7187
 4853SOL    HW221418   3.631   7.777  11.375 -0.2024 -0.3928 -1.3281
 4854SOL     OW21419   7.031   1.652   8.830  0.0806  0.3379  0.1626
 4854SOL    HW121420   7.034   1.613   8.917  0.9991 -0.3863 -0.1699
 4854SOL    HW221421   7.121   1.682   8.814 -0.1067  0.5827 -0.4831
 4855SOL     OW21422   3.995   7.232   1.268 -0.0392  0.4154 -0.2458
 4855SOL    HW121423   4.017   7.232   1.361  0.1396  0.9081 -0.2837
 4855SOL    HW221424   3.900   7.222   1.265  0.1756 -2.7916 -0.0957
 4856SOL     OW21425   0.669  10.962   9.417  0.1423 -0.2980  0.4075
 4856SOL    HW121426   0.752  10.939   9.375 -0.3252 -0.0666 -0.6607
 4856SOL    HW221427   0.660  10.897   9.487  1.2088 -0.3380  0.5283
 4857SOL     OW21428   5.772   8.466   6.742 -0.0015 -0.2606  0.4940
 4857SOL    HW121429   5.774   8.402   6.813 -1.2526 -1.1136 -0.2029
 4857SOL    HW221430   5.714   8.535   6.773  0.0504 -0.2651  0.6004
 4858SOL     OW21431   8.996   1.030   7.441  0.3604  0.0732  0.0024
 4858SOL    HW121432   8.952   0.948   7.460 -1.1827  0.6827 -0.7354
 4858SOL    HW221433   9.007   1.072   7.526  1.8580 -1.1767  0.4814
 4859SOL     OW21434   3.161   2.727  10.495 -0.0612  0.6604 -0.5291
 4859SOL    HW121435   3.247   2.705  10.530 -0.2340  0.5588 -0.1632
 4859SOL    HW221436   3.100   2.674  10.546 -0.2250 -0.5056 -1.8750
 4860SOL     OW21437   7.931  10.269   4.369 -0.1919 -0.2310 -0.3177
 4860SOL    HW121438   7.910  10.338   4.307  0.5347  0.1148 -0.1973
 4860SOL    HW221439   8.024  10.251   4.355 -0.2155 -0.7253  0.1024
 4861SOL     OW21440   6.941   6.821   5.566  0.5918  0.3329 -0.3458
 4861SOL    HW121441   6.996   6.894   5.593  1.5295 -0.1323 -0.9261
 4861SOL    HW221442   6.972   6.747   5.619 -1.0672  0.5734  1.0113
 4862SOL     OW21443  11.811   6.887  12.487 -0.5311  0.2664  0.0124
 4862SOL    HW121444  11.809   6.791  12.482 -0.3367  0.3159 -2.9692
 4862SOL    HW221445  11.897   6.910  12.451 -1.6977  1.5877 -2.1073
 4863SOL     OW21446   5.284   8.512   4.713  0.1077  0.7198  0.5342
 4863SOL    HW121447   5.279   8.605   4.735  0.7280  1.1243 -0.8783
 4863SOL    HW221448   5.283   8.510   4.617  0.2864 -0.7169  0.5347
 4864SOL     OW21449   8.420   8.197   4.011  0.6765 -0.3136  0.1258
 4864SOL    HW121450   8.335   8.156   4.029 -0.0110  1.1358  0.3289
 4864SOL    HW221451   8.464   8.135   3.953 -0.4984 -1.1174  0.0389
 4865SOL     OW21452   1.597  12.343  12.311 -0.4168  0.0378 -0.5007
 4865SOL    HW121453   1.678  12.314  12.269 -0.4857  0.0231 -0.6236
 4865SOL    HW221454   1.529  12.288  12.272 -0.3082 -0.9491  0.6312
 4866SOL     OW21455   6.132   0.734   0.783 -0.2384  0.4963 -0.0411
 4866SOL    HW121456   6.141   0.799   0.712  1.1338 -0.3699 -0.7156
 4866SOL    HW221457   6.201   0.758   0.845  0.5067 -0.4928 -0.4647
 4867SOL     OW21458   5.622   8.285  11.878 -0.6567 -0.7394 -0.5381
 4867SOL    HW121459   5.587   8.340  11.948  0.2318  0.2467 -0.8322
 4867SOL    HW221460   5.651   8.206  11.923  0.5592  0.1708  0.3626
 4868SOL     OW21461   5.301   1.700   3.518 -0.5612 -0.0848 -0.0894
 4868SOL    HW121462   5.369   1.652   3.470 -1.0918  0.3529 -1.3096
 4868SOL    HW221463   5.220   1.677   3.473 -0.9374  1.2262 -0.1192
 4869SOL     OW21464   7.318   5.435   4.953 -0.2181  0.6313  0.6023
 4869SOL    HW121465   7.242   5.445   5.011 -1.6629  1.0665 -1.2722
 4869SOL    HW221466   7.282   5.446   4.865  2.0447  0.8244 -0.3495
 4870SOL     OW21467   2.981   7.834   5.279 -0.0484 -0.5222 -0.0886
 4870SOL    HW121468   2.965   7.758   5.223  1.8209  0.3234 -1.8907
 4870SOL    HW221469   3.027   7.896   5.223 -2.0611  2.2601  1.1295
 4871SOL     OW21470   2.649  12.490   1.331 -0.0300  0.3356 -0.3254
 4871SOL    HW121471   2.700  12.458   1.405 -0.0300 -2.4185 -1.4246
 4871SOL    HW221472   2.713  12.501   1.261 -0.4700 -0.0556 -0.7954
 4872SOL     OW21473  11.948   9.993  11.622 -0.1125  0.5110 -0.2320
 4872SOL    HW121474  11.860  10.017  11.594 -0.6123  1.2718  1.8200
 4872SOL    HW221475  11.980   9.935  11.553 -2.6627 -0.7297 -0.4805
 4873SOL     OW21476   8.284   5.308   5.404 -0.3042  0.0206 -0.7477
 4873SOL    HW121477   8.247   5.387   5.444  0.4661  0.7166 -1.3740
 4873SOL    HW221478   8.373   5.303   5.438  0.1045  0.1897 -1.7535
 4874SOL     OW21479   7.564   3.657   8.735 -0.4379 -0.0891 -0.3751
 4874SOL    HW121480   7.471   3.649   8.755  0.0106  0.0564  1.9746
 4874SOL    HW221481   7.602   3.573   8.759  0.5830  1.0484  2.3035
 4875SOL     OW21482   1.539   3.040   9.243  0.2184 -0.0018  0.2506
 4875SOL    HW121483   1.575   3.074   9.161  1.0733 -1.5503 -0.0399
 4875SOL    HW221484   1.446   3.028   9.224  0.5918 -1.4243 -0.9176
 4876SOL     OW21485   7.449   1.912   1.975 -0.6409 -0.0089 -0.1396
 4876SOL    HW121486   7.395   1.873   2.044 -1.1565 -0.6692 -0.8999
 4876SOL    HW221487   7.386   1.952   1.916 -0.1178  2.3309  0.7885
 4877SOL     OW21488   7.322   0.323   6.120  0.6156  0.3960  0.7809
 4877SOL    HW121489   7.235   0.321   6.160  0.9625  2.4882  1.7704
 4877SOL    HW221490   7.380   0.290   6.189  0.9029  1.5567  1.1133
 4878SOL     OW21491   6.722  10.683  11.235 -0.3914 -0.1076 -0.3733
 4878SOL    HW121492   6.730  10.609  11.175 -2.1185 -1.1893  0.6454
 4878SOL    HW221493   6.640  10.667  11.282 -0.3181  1.9643  0.5620
 4879SOL     OW21494   0.186   5.573   0.616 -0.1279  0.0303 -0.1474
 4879SOL    HW121495   0.205   5.607   0.529  0.2009  0.6487  0.1577
 4879SOL    HW221496   0.267   5.586   0.666 -0.8068  1.2052  0.7077
 4880SOL     OW21497   4.210   3.810  10.376 -0.2203  0.2647 -0.0810
 4880SOL    HW121498   4.292   3.791  10.423 -0.6525  1.5086  1.2643
 4880SOL    HW221499   4.164   3.726  10.373  0.8801 -0.3495 -0.4343
 4881SOL     OW21500   3.280   2.617   4.064 -0.2284 -0.7278  0.4638
 4881SOL    HW121501   3.252   2.704   4.090  0.3837 -0.4710  0.2793
 4881SOL    HW221502   3.200   2.564   4.066 -0.8848  0.1662 -0.8550
 4882SOL     OW21503   2.386   8.042  11.604  0.0060 -0.3387  0.0793
 4882SOL    HW121504   2.449   8.076  11.541 -1.0229 -0.5378 -1.0942
 4882SOL    HW221505   2.386   8.106  11.675  0.0005  0.7398 -0.8688
 4883SOL     OW21506   4.452   0.527   7.776 -0.1438 -0.0076  0.8303
 4883SOL    HW121507   4.422   0.459   7.715  0.1439 -0.0164  0.6968
 4883SOL    HW221508   4.498   0.590   7.720 -0.9285  0.6069  0.8641
 4884SOL     OW21509   5.453   4.339   5.255 -0.0157 -0.1011  0.5174
 4884SOL    HW121510   5.520   4.406   5.244  1.1162 -1.4223 -1.4852
 4884SOL    HW221511   5.373   4.379   5.220  0.5293  0.3744 -0.2115
 4885SOL     OW21512   7.952   3.383   1.842 -0.0449  0.3314  0.2475
 4885SOL    HW121513   7.915   3.437   1.912 -0.2836  0.0008  0.3770
 4885SOL    HW221514   7.890   3.392   1.770 -1.6742 -2.0522  1.2147
 4886SOL     OW21515   3.949   9.156   4.738 -0.2950 -0.4071 -0.3486
 4886SOL    HW121516   4.016   9.099   4.775  0.1008 -0.6039 -1.3408
 4886SOL    HW221517   3.872   9.101   4.729 -0.3886 -0.3621  0.1593
 4887SOL     OW21518   4.360   2.583   5.429 -0.4046 -0.1495 -0.2667
 4887SOL    HW121519   4.334   2.603   5.339  1.1419 -1.0128 -0.9524
 4887SOL    HW221520   4.354   2.667   5.476 -0.8085  0.3940 -1.2641
 4888SOL     OW21521   2.362   1.402   8.312  0.2510 -0.6320 -0.0678
 4888SOL    HW121522   2.404   1.391   8.227  1.4118 -0.2490  0.4377
 4888SOL    HW221523   2.362   1.314   8.350 -1.3218 -1.0345 -0.9069
 4889SOL     OW21524   4.254   4.227   5.208  0.2900 -0.7299 -0.0086
 4889SOL    HW121525   4.244   4.322   5.194  1.7520 -0.7361 -1.3409
 4889SOL    HW221526   4.344   4.217   5.238 -0.7494 -1.4497  3.2370
 4890SOL     OW21527   4.362   9.284   7.286 -0.1836  0.2313  0.0499
 4890SOL    HW121528   4.271   9.303   7.308  0.1876  2.2378  0.0806
 4890SOL    HW221529   4.387   9.353   7.224  1.0362 -0.8743 -0.7662
 4891SOL     OW21530  11.003   4.687   2.295 -0.0594  0.1773  0.5017
 4891SOL    HW121531  11.088   4.697   2.338  1.0807 -1.0729 -1.3231
 4891SOL    HW221532  10.939   4.692   2.367  1.2115  4.2288  1.6476
 4892SOL     OW21533   8.410   3.906   3.011 -0.1184  0.3665 -0.3174
 4892SOL    HW121534   8.403   3.999   2.991 -0.9201  0.6810  1.2339
 4892SOL    HW221535   8.434   3.903   3.104  1.9224 -0.9720 -0.8254
 4893SOL     OW21536  11.466  12.159   0.445 -0.2964 -0.0919  0.3163
 4893SOL    HW121537  11.392  12.160   0.384 -1.4331  0.1334  1.6518
 4893SOL    HW221538  11.520  12.085   0.416 -1.1935 -0.4342 -0.5264
 4894SOL     OW21539   9.227  10.166   6.084 -0.3441 -0.3535 -0.3786
 4894SOL    HW121540   9.199  10.255   6.107  0.3803 -0.4612  1.0166
 4894SOL    HW221541   9.169  10.141   6.012 -0.9421  1.0278 -0.4162
 4895SOL     OW21542   6.054   6.282   8.944  0.4109  0.4696  1.0444
 4895SOL    HW121543   5.996   6.264   9.017  1.8298 -2.6887  1.5691
 4895SOL    HW221544   5.996   6.285   8.867 -0.7127  0.0496  1.8551
 4896SOL     OW21545   0.590   6.056   7.218  0.0859  0.5578  0.0331
 4896SOL    HW121546   0.600   6.140   7.262  0.5111 -0.1255  1.3083
 4896SOL    HW221547   0.626   6.070   7.131 -1.6893  2.2305 -0.4920
 4897SOL     OW21548  11.777   8.415  11.717  0.3241  0.5543  0.0255
 4897SOL    HW121549  11.838   8.398  11.645  0.4019  0.4706  0.1100
 4897SOL    HW221550  11.713   8.477  11.681  1.7861  2.5139  0.6201
 4898SOL     OW21551   6.344   4.538   2.899 -0.3420  0.0261  0.3776
 4898SOL    HW121552   6.385   4.601   2.959  3.0219  0.3869 -2.0017
 4898SOL    HW221553   6.336   4.458   2.951  1.0645  0.7191  1.7666
 4899SOL     OW21554   4.566   6.625   6.706  0.3942 -0.4547  0.0292
 4899SOL    HW121555   4.603   6.580   6.782  0.9104 -1.0112 -0.5496
 4899SOL    HW221556   4.640   6.645   6.650  0.2489  1.6389  0.5205
 4900SOL     OW21557   8.328   8.513   4.668 -0.7753  0.6164 -0.3213
 4900SOL    HW121558   8.354   8.574   4.736  0.2847  0.6551 -0.7483
 4900SOL    HW221559   8.287   8.440   4.715 -0.6860  0.9629  0.2924
 4901SOL     OW21560   6.839   8.528   6.217  0.4254  0.2831  0.0601
 4901SOL    HW121561   6.894   8.453   6.194 -0.2857 -0.1240 -0.3632
 4901SOL    HW221562   6.782   8.496   6.287  1.3450  0.9841  1.1705
 4902SOL     OW21563   9.810  11.135   9.095  0.1073  0.6998 -0.2827
 4902SOL    HW121564   9.751  11.113   9.167  0.3716  0.2407 -0.2025
 4902SOL    HW221565   9.897  11.126   9.133  0.2368  1.2281 -0.4422
 4903SOL     OW21566   8.291   3.543   3.405  0.2646  0.1545 -0.4872
 4903SOL    HW121567   8.253   3.526   3.491 -0.4236  1.0949 -0.5928
 4903SOL    HW221568   8.351   3.616   3.420  2.0814 -1.2933 -0.3218
 4904SOL     OW21569   1.753   6.193   1.879 -0.3205  0.0179 -0.4075
 4904SOL    HW121570   1.770   6.175   1.971  2.8062 -0.4472 -0.9463
 4904SOL    HW221571   1.737   6.287   1.875  1.5919  0.4288  0.4532
 4905SOL     OW21572  12.532   1.771   1.476 -0.6360  0.3767 -0.2731
 4905SOL    HW121573  12.605   1.812   1.429 -1.5937  2.3341 -0.1636
 4905SOL    HW221574  12.571   1.741   1.558 -0.2235  3.0907  0.6233
 4906SOL     OW21575  12.486   2.204   0.136  0.4855  0.1796 -0.0541
 4906SOL    HW121576  12.526   2.198   0.049 -0.4524 -1.1007 -0.4377
 4906SOL    HW221577  12.440   2.288   0.136  0.8122  0.3643 -0.6402
 4907SOL     OW21578  10.504   0.362   7.970 -0.5886  0.2199  0.6103
 4907SOL    HW121579  10.488   0.274   7.938 -1.7258  0.0555  1.5851
 4907SOL    HW221580  10.597   0.377   7.954 -0.6604 -0.6568 -0.7512
 4908SOL     OW21581  10.618   4.819   0.679 -0.1060  0.2678 -0.2985
 4908SOL    HW121582  10.613   4.869   0.760  0.4682  0.0147 -0.1018
 4908SOL    HW221583  10.549   4.753   0.687 -0.6404  0.8105 -0.4127
 4909SOL     OW21584  11.467  11.119  10.359  0.0327 -0.2797 -0.1048
 4909SOL    HW121585  11.498  11.175  10.431 -1.7060  1.0737 -0.3336
 4909SOL    HW221586  11.468  11.031  10.396 -1.8440  0.4822  2.0559
 4910SOL     OW21587   7.669   6.969   5.972  0.3195  0.2200 -0.4006
 4910SOL    HW121588   7.703   7.019   6.047 -0.1206 -0.0646 -0.0058
 4910SOL    HW221589   7.734   6.901   5.957 -0.9966 -1.6382  1.6805
 4911SOL     OW21590   4.838   3.177  10.557 -0.2854  0.3262  0.3518
 4911SOL    HW121591   4.916   3.159  10.609 -1.2686 -1.9157  1.1822
 4911SOL    HW221592   4.864   3.248  10.498  1.7238  1.0463  1.9682
 4912SOL     OW21593  10.358   4.960   1.659 -0.5962  0.1176 -0.0937
 4912SOL    HW121594  10.338   4.901   1.586  0.4714 -1.5973  0.9424
 4912SOL    HW221595  10.314   4.921   1.735 -1.8138  1.9596  0.2271
 4913SOL     OW21596   1.860   3.180   3.569 -0.0976 -0.0255 -0.4322
 4913SOL    HW121597   1.879   3.270   3.597 -2.1534 -0.3487  2.3063
 4913SOL    HW221598   1.765   3.174   3.570  0.0033 -2.5631  0.6344
 4914SOL     OW21599  11.019   4.424   9.086 -0.3697 -0.3156  0.1554
 4914SOL    HW121600  10.990   4.513   9.062  0.8554  0.1665  0.4097
 4914SOL    HW221601  11.064   4.393   9.007  0.8589  0.0361  0.6967
 4915SOL     OW21602   5.846   2.498  10.715  0.4952  0.2654 -0.0158
 4915SOL    HW121603   5.931   2.541  10.713  1.7504 -2.0495 -0.1106
 4915SOL    HW221604   5.838   2.464  10.804  0.0277 -0.1948 -0.2274
 4916SOL     OW21605   1.641  11.178   1.423  0.1719  0.2379  0.0559
 4916SOL    HW121606   1.649  11.086   1.400  0.7610  0.3333 -0.1531
 4916SOL    HW221607   1.587  11.216   1.353  2.1043  0.5624 -1.3331
 4917SOL     OW21608   3.319  12.162   0.476  0.0777  0.6681  0.0239
 4917SOL    HW121609   3.383  12.104   0.436  0.2521  0.5008  0.5356
 4917SOL    HW221610   3.280  12.210   0.403  1.6024  1.6226 -0.2100
 4918SOL     OW21611   7.322   0.250   6.703  0.1075  0.0337  0.2624
 4918SOL    HW121612   7.263   0.205   6.764  0.3789 -0.7428 -0.0301
 4918SOL    HW221613   7.289   0.225   6.616  0.8253 -0.3611  0.0975
 4919SOL     OW21614   7.773  10.157  10.968 -0.2859  0.1258 -0.0625
 4919SOL    HW121615   7.701  10.124  10.915  2.0387  0.0372 -3.4874
 4919SOL    HW221616   7.801  10.082  11.020  0.2161 -1.2777 -2.2214
 4920SOL     OW21617   7.073   9.399   7.614  0.1933  0.0274 -0.2513
 4920SOL    HW121618   7.061   9.344   7.537  0.5729  0.9606 -0.9967
 4920SOL    HW221619   7.104   9.339   7.682  1.3973 -0.5415 -1.2654
 4921SOL     OW21620   3.343   4.539   8.140  0.1622 -0.0281  0.6713
 4921SOL    HW121621   3.369   4.449   8.119  2.3772  0.8341 -0.5112
 4921SOL    HW221622   3.286   4.565   8.068  0.4126 -0.1023  0.4471
 4922SOL     OW21623   4.234  11.242  11.045 -0.3529  0.4195 -0.0253
 4922SOL    HW121624   4.268  11.185  10.976  2.0363  1.3448  0.2890
 4922SOL    HW221625   4.167  11.295  11.001 -0.4745 -0.5534 -1.0479
 4923SOL     OW21626   8.800   9.359   3.098  0.2749 -0.1570 -0.2322
 4923SOL    HW121627   8.738   9.383   3.028  0.0227  1.2484  0.4334
 4923SOL    HW221628   8.765   9.278   3.135 -1.2028  0.6274  0.1476
 4924SOL     OW21629   4.390  10.786   9.195 -0.1180  0.0550 -0.9312
 4924SOL    HW121630   4.356  10.704   9.160  0.5423  0.3987 -2.4618
 4924SOL    HW221631   4.311  10.836   9.218 -0.5378 -0.7522 -0.5807
 4925SOL     OW21632   0.156   4.362  10.557 -0.1080  0.1125  0.3198
 4925SOL    HW121633   0.093   4.424  10.518  0.3266 -0.3474 -1.1625
 4925SOL    HW221634   0.103   4.285  10.577 -0.7772  1.0842  2.7094
 4926SOL     OW21635   3.977   8.992   2.793  0.2225  0.2956  0.6245
 4926SOL    HW121636   3.911   8.957   2.853  1.7131 -0.6339  1.7967
 4926SOL    HW221637   3.940   9.075   2.762 -1.1581  0.1579  1.8063
 4927SOL     OW21638   0.555   7.472   6.946  0.1774 -0.6815  0.2164
 4927SOL    HW121639   0.574   7.453   6.855 -0.4610 -2.9499  0.5041
 4927SOL    HW221640   0.606   7.551   6.965 -0.0967  0.1482 -2.2066
 4928SOL     OW21641   1.890   5.293   6.808  0.3450  0.4599 -0.8073
 4928SOL    HW121642   1.947   5.297   6.885  0.5625 -1.3323 -0.8331
 4928SOL    HW221643   1.950   5.290   6.734  0.3106 -1.9320 -0.8132
 4929SOL     OW21644  12.192   2.001  11.957 -0.0308 -0.2784 -0.4722
 4929SOL    HW121645  12.245   1.972  11.882 -0.2026 -0.9879 -0.3256
 4929SOL    HW221646  12.134   1.927  11.975  1.3461 -0.9237  1.6242
 4930SOL     OW21647   6.019  12.457   3.564  0.3205  0.4299  0.6151
 4930SOL    HW121648   5.970  12.401   3.503 -2.1296  1.8796  1.0898
 4930SOL    HW221649   5.966  12.456   3.644  1.6462  1.2852  1.5416
 4931SOL     OW21650   9.903   0.586   4.348 -0.0506  0.1556  0.9015
 4931SOL    HW121651   9.816   0.582   4.309 -0.0456  1.2030  0.7503
 4931SOL    HW221652   9.950   0.649   4.294  0.5984  0.0909  1.3832
 4932SOL     OW21653   4.768  11.936   4.177 -0.2366 -0.2065 -0.1332
 4932SOL    HW121654   4.790  12.013   4.230  1.9617 -0.8667  0.0261
 4932SOL    HW221655   4.735  11.872   4.240 -0.6731  0.1000 -0.0488
 4933SOL     OW21656   6.711   4.054   9.132 -0.4410  0.0651 -0.2112
 4933SOL    HW121657   6.776   4.066   9.063  0.0276 -0.1915  0.1742
 4933SOL    HW221658   6.627   4.070   9.090 -0.0475  1.9199 -0.3724
 4934SOL     OW21659   7.181  11.542   7.060 -0.3685 -0.2832  0.1008
 4934SOL    HW121660   7.257  11.600   7.071 -0.6959  0.2186 -0.2334
 4934SOL    HW221661   7.105  11.600   7.069 -0.7075 -0.6791 -0.1620
 4935SOL     OW21662   3.694   8.959  10.234  0.2257  0.3096  0.2831
 4935SOL    HW121663   3.668   9.046  10.207 -1.4856 -0.3569 -0.3376
 4935SOL    HW221664   3.628   8.932  10.298  0.8960 -0.4260  0.6999
 4936SOL     OW21665   6.045   0.677   6.431 -0.7702 -0.2853 -0.0161
 4936SOL    HW121666   6.092   0.649   6.510  0.6876  0.4876 -0.5723
 4936SOL    HW221667   6.003   0.759   6.456 -0.0495  0.1218 -0.1180
 4937SOL     OW21668  10.120   5.135   6.276 -0.5906 -0.0839 -0.1265
 4937SOL    HW121669  10.191   5.200   6.279  0.3101 -1.0412 -0.2063
 4937SOL    HW221670  10.139   5.076   6.349 -0.3062 -1.3569 -1.2037
 4938SOL     OW21671   8.155  11.234   6.288  0.4034  0.8458 -0.2734
 4938SOL    HW121672   8.061  11.235   6.276  0.1384 -2.7437  0.3713
 4938SOL    HW221673   8.191  11.206   6.204  0.7304  0.5502 -0.0430
 4939SOL     OW21674   5.482   2.186   4.818 -0.1946 -0.3117 -0.1009
 4939SOL    HW121675   5.473   2.271   4.774  0.9373  0.7921  1.6938
 4939SOL    HW221676   5.545   2.201   4.888  1.0358 -2.9684 -0.5038
 4940SOL     OW21677   1.809   8.657  12.051 -0.3759 -0.2232  0.1209
 4940SOL    HW121678   1.846   8.725  11.994 -0.7960 -0.4146 -0.3933
 4940SOL    HW221679   1.796   8.582  11.994  0.0731 -0.7392  0.6888
 4941SOL     OW21680  10.252   6.015  12.020 -0.1092 -0.5220  0.6002
 4941SOL    HW121681  10.294   6.049  11.940  0.0098 -2.1690 -0.0747
 4941SOL    HW221682  10.242   5.922  12.004 -2.6459 -0.4483  1.4043
 4942SOL     OW21683   4.812  10.564   8.747 -0.4272 -0.2593 -0.5968
 4942SOL    HW121684   4.842  10.517   8.670 -0.1391  0.5380 -0.9864
 4942SOL    HW221685   4.736  10.514   8.778 -0.0504 -1.0387 -0.9077
 4943SOL     OW21686   8.890   8.843   9.884 -0.2751 -0.1368  0.6610
 4943SOL    HW121687   8.947   8.874   9.954 -1.5363  1.4446  1.0445
 4943SOL    HW221688   8.856   8.759   9.916  1.9981 -1.2769  0.2855
 4944SOL     OW21689   2.163   2.001   5.865 -0.4904  0.3302 -0.5399
 4944SOL    HW121690   2.249   2.028   5.834 -0.2365 -0.7845 -0.8675
 4944SOL    HW221691   2.101   2.054   5.814 -0.0155  0.3223 -1.1294
 4945SOL     OW21692   6.182   0.146  12.333  0.3538 -0.8672  0.0638
 4945SOL    HW121693   6.199   0.240  12.341 -1.3817 -0.4799 -0.5176
 4945SOL    HW221694   6.179   0.115  12.424  3.5243 -0.9367  0.2763
 4946SOL     OW21695   1.918   1.009   1.831  0.0335  0.5721  0.1709
 4946SOL    HW121696   1.861   0.946   1.876  0.6222 -0.4806 -0.5296
 4946SOL    HW221697   1.858   1.068   1.787 -0.5694 -0.8469 -1.0087
 4947SOL     OW21698   8.742   6.663   3.720 -0.1161 -0.0358  0.4026
 4947SOL    HW121699   8.697   6.651   3.636  0.5260 -0.8903  0.1690
 4947SOL    HW221700   8.778   6.576   3.741  0.1083  0.2707  1.3467
 4948SOL     OW21701   6.614   2.164   1.810  0.0926 -0.0662 -0.2112
 4948SOL    HW121702   6.567   2.081   1.815  2.3629 -1.5636 -1.6300
 4948SOL    HW221703   6.549   2.227   1.780 -1.6251 -1.3728  0.5654
 4949SOL     OW21704   5.619   5.873   5.818  0.4624  0.0619  0.4745
 4949SOL    HW121705   5.564   5.859   5.741  1.0004  0.4453  0.0099
 4949SOL    HW221706   5.629   5.968   5.823 -0.3805  0.1167  1.6111
 4950SOL     OW21707  10.154   6.254  11.727  0.0342 -0.1158 -0.7585
 4950SOL    HW121708  10.211   6.215  11.661 -0.5994 -0.0132 -1.3779
 4950SOL    HW221709  10.089   6.303  11.676 -1.5342 -1.4817 -0.1434
 4951SOL     OW21710   8.598  10.851   7.888  0.6639 -0.9453 -0.7754
 4951SOL    HW121711   8.558  10.795   7.821 -1.0031  0.0522 -0.6763
 4951SOL    HW221712   8.601  10.796   7.966 -0.5611 -1.0635 -0.7846
 4952SOL     OW21713   1.156   3.819  12.176  0.0123 -0.5656 -0.2393
 4952SOL    HW121714   1.212   3.742  12.177 -0.0895 -0.6544 -0.8801
 4952SOL    HW221715   1.073   3.788  12.140  0.3577  0.0847 -1.6740
 4953SOL     OW21716  11.322   0.509  10.696 -0.0314 -0.3943 -0.1539
 4953SOL    HW121717  11.329   0.539  10.787  0.6450 -1.6101  0.2151
 4953SOL    HW221718  11.330   0.588  10.644 -1.6612  0.5000  0.8631
 4954SOL     OW21719   0.225  12.196   1.197 -0.3161  0.7079 -0.0467
 4954SOL    HW121720   0.258  12.106   1.201 -0.1545  0.7697 -0.0030
 4954SOL    HW221721   0.303  12.251   1.210 -0.7331  0.8403  2.3383
 4955SOL     OW21722  12.246   0.760   2.774 -0.0611 -0.3587  0.1432
 4955SOL    HW121723  12.341   0.747   2.771 -0.3419 -3.1379  0.4278
 4955SOL    HW221724  12.225   0.803   2.692  1.4071  0.0924 -0.0328
 4956SOL     OW21725   0.074  11.500  10.664 -0.1898 -0.1766 -0.1554
 4956SOL    HW121726   0.140  11.554  10.708 -0.1369  0.7931 -1.3930
 4956SOL    HW221727   0.121  11.420  10.641  0.3323  0.1505 -0.2470
 4957SOL     OW21728   5.111   7.832   1.797  0.3938  0.5408 -0.2911
 4957SOL    HW121729   5.075   7.743   1.792  1.0527  0.1484  1.1898
 4957SOL    HW221730   5.156   7.845   1.714 -1.6607  0.3877 -1.4648
 4958SOL     OW21731   9.177   8.532   9.122 -0.1954 -0.8116 -0.2736
 4958SOL    HW121732   9.123   8.555   9.198 -1.7312  1.3186 -1.8985
 4958SOL    HW221733   9.239   8.604   9.115 -0.3521 -0.7679 -1.2839
 4959SOL     OW21734  11.887  10.758   4.128 -0.3752 -0.0179  0.1122
 4959SOL    HW121735  11.916  10.805   4.207  0.4302 -1.0719  0.4708
 4959SOL    HW221736  11.794  10.744   4.141 -0.3171  0.1258  0.7178
 4960SOL     OW21737   5.758   6.483   4.515  0.6093 -0.0177 -0.1565
 4960SOL    HW121738   5.732   6.443   4.432  0.4952  2.5427 -1.4207
 4960SOL    HW221739   5.707   6.436   4.581  2.3366 -3.6851 -1.1368
 4961SOL     OW21740   8.912   8.227  10.246  0.1672 -0.2683  0.5494
 4961SOL    HW121741   8.881   8.308  10.285  0.9627  0.1461  0.3357
 4961SOL    HW221742   8.931   8.170  10.321 -1.9297 -0.8681  0.6754
 4962SOL     OW21743   9.672  10.629   7.252  0.0244 -0.2325  0.1774
 4962SOL    HW121744   9.602  10.567   7.271  1.0160 -1.5866 -0.3732
 4962SOL    HW221745   9.636  10.686   7.183 -0.7364 -0.5026  0.3440
 4963SOL     OW21746   1.994   8.384   9.089 -0.8590  0.0688 -0.0466
 4963SOL    HW121747   1.996   8.314   9.024 -0.5602  0.5066 -0.5180
 4963SOL    HW221748   2.085   8.390   9.121 -0.6409  0.9380 -0.7800
 4964SOL     OW21749   3.043  12.250  10.082 -0.2430 -0.4926  0.2463
 4964SOL    HW121750   2.950  12.262  10.061 -0.3468  1.1841  1.4722
 4964SOL    HW221751   3.088  12.273  10.001 -0.8538  0.1581  0.0786
 4965SOL     OW21752   6.300   1.889  10.310  0.2977 -0.6954  0.6896
 4965SOL    HW121753   6.296   1.929  10.397 -0.1399 -0.5912  0.6248
 4965SOL    HW221754   6.211   1.900  10.274  0.7481  0.2176 -0.1894
 4966SOL     OW21755   0.696  10.756  11.978  0.0907  0.7180 -0.0562
 4966SOL    HW121756   0.618  10.705  12.000 -2.1624  3.8597  0.0503
 4966SOL    HW221757   0.760  10.734  12.046 -1.8075  0.1948  1.6620
 4967SOL     OW21758   3.998   0.200   5.810  0.2170 -0.1107  0.4813
 4967SOL    HW121759   3.997   0.184   5.905  0.3806 -1.3397  0.2888
 4967SOL    HW221760   4.086   0.173   5.783 -0.6012 -2.1111 -0.3824
 4968SOL     OW21761   7.438   9.421   7.247 -0.4555 -0.0788 -0.2754
 4968SOL    HW121762   7.380   9.469   7.307 -1.1318 -0.1310 -0.8717
 4968SOL    HW221763   7.379   9.388   7.179  0.2662 -0.2460 -0.8226
 4969SOL     OW21764   1.690   3.964   9.293  0.7341 -0.2876  0.7085
 4969SOL    HW121765   1.699   3.877   9.252  2.0972 -0.9010  2.2213
 4969SOL    HW221766   1.630   3.949   9.366 -2.3430  0.9664 -1.3300
 4970SOL     OW21767  11.412   1.525   0.196 -0.8420 -0.1459  0.0255
 4970SOL    HW121768  11.347   1.491   0.258 -0.2476 -3.8319 -1.1333
 4970SOL    HW221769  11.455   1.596   0.244 -3.5662  0.3881  1.9728
 4971SOL     OW21770   1.179  12.085   4.978 -0.2630  0.3229 -0.0460
 4971SOL    HW121771   1.224  12.141   5.041 -1.8488 -0.5445  1.9845
 4971SOL    HW221772   1.109  12.140   4.944  1.1874  1.1173 -1.9096
 4972SOL     OW21773   8.338   3.896   9.985 -0.0007  0.3540 -0.2740
 4972SOL    HW121774   8.361   3.829  10.049  1.9503 -1.3937 -2.5941
 4972SOL    HW221775   8.398   3.969  10.004  0.2262  0.0476  0.1914
 4973SOL     OW21776   3.448   1.694   6.886 -0.1342 -0.0805 -0.2077
 4973SOL    HW121777   3.494   1.731   6.810 -0.4484  1.1874  0.1828
 4973SOL    HW221778   3.366   1.660   6.850  0.3963 -0.8832 -0.6638
 4974SOL     OW21779   3.513  10.095   5.835 -0.4023  0.0350 -0.2037
 4974SOL    HW121780   3.441  10.090   5.773 -0.9225  1.1402  0.2879
 4974SOL    HW221781   3.585  10.049   5.792 -0.5889  1.1923 -1.8518
 4975SOL     OW21782   4.016   4.413   7.407 -0.5477  0.2692 -0.4474
 4975SOL    HW121783   4.101   4.436   7.370 -1.0659 -1.2061 -2.8075
 4975SOL    HW221784   3.962   4.491   7.393 -0.1931  0.4149 -1.0491
 4976SOL     OW21785   3.806  10.687   8.586  0.3081 -0.1214 -0.1096
 4976SOL    HW121786   3.858  10.672   8.665 -0.4368 -1.4616  0.1610
 4976SOL    HW221787   3.840  10.768   8.549  1.2552  0.0577  1.1171
 4977SOL     OW21788   7.167   5.836   6.318 -0.0284 -0.7932  0.5257
 4977SOL    HW121789   7.093   5.776   6.329 -0.8067  0.2705  1.2694
 4977SOL    HW221790   7.132   5.922   6.339  1.0053 -0.0149 -0.7778
 4978SOL     OW21791   5.342   2.722   6.867  0.1574 -0.0112  0.2079
 4978SOL    HW121792   5.400   2.647   6.886  0.9939 -0.0474 -2.1593
 4978SOL    HW221793   5.396   2.780   6.814 -0.9430  1.6273  0.8316
 4979SOL     OW21794   6.360   2.227  10.364  0.3056 -1.0118 -0.2611
 4979SOL    HW121795   6.277   2.203  10.405 -0.7104  0.5000 -1.3501
 4979SOL    HW221796   6.418   2.154  10.385 -1.0959 -1.8182  1.0589
 4980SOL     OW21797   9.356   0.651   2.363  0.0605 -0.0064 -0.1513
 4980SOL    HW121798   9.306   0.662   2.282  0.7999 -2.8854 -1.1058
 4980SOL    HW221799   9.446   0.674   2.339  0.2765 -0.8387 -0.1595
 4981SOL     OW21800  11.963   5.625   7.334  0.3118  0.2969 -0.0826
 4981SOL    HW121801  11.920   5.588   7.411  1.0695 -0.7035 -0.1262
 4981SOL    HW221802  11.923   5.580   7.260  1.8187 -1.0924 -0.0953
 4982SOL     OW21803   8.736   4.713   0.510 -1.0542  0.0009  0.3849
 4982SOL    HW121804   8.790   4.666   0.445  0.5637 -0.0613  1.7040
 4982SOL    HW221805   8.738   4.804   0.480  1.7586  0.4261  1.5762
 4983SOL     OW21806   8.003   2.322   2.894  0.6345 -0.6350  0.6007
 4983SOL    HW121807   8.043   2.355   2.974  0.7264 -1.5871  0.9654
 4983SOL    HW221808   8.019   2.228   2.897  0.4442 -0.7075 -0.4310
 4984SOL     OW21809   4.714  11.428   6.599  0.3518 -0.2464  0.0505
 4984SOL    HW121810   4.628  11.391   6.577  0.2574  0.1494 -0.2466
 4984SOL    HW221811   4.693  11.505   6.652  0.5087  0.1021 -0.3920
 4985SOL     OW21812   4.941   2.532   6.341 -0.1944  0.1100  0.6197
 4985SOL    HW121813   4.910   2.549   6.252 -1.0534  2.2478  1.2663
 4985SOL    HW221814   4.884   2.463   6.374 -0.5542  0.0350 -0.1373
 4986SOL     OW21815   1.723  10.899   8.254  0.6114  0.0772 -0.5147
 4986SOL    HW121816   1.768  10.969   8.206  1.6137 -0.7162 -0.7562
 4986SOL    HW221817   1.769  10.893   8.338  0.1056  0.1442 -0.2255
 4987SOL     OW21818   5.435   9.984  11.668 -0.0843  0.9715 -0.5535
 4987SOL    HW121819   5.473  10.067  11.640 -1.3316  1.1391 -1.8773
 4987SOL    HW221820   5.409   9.941  11.587  0.4120 -0.6752  0.1113
 4988SOL     OW21821   5.010   4.926   2.231  0.2895 -0.3621  0.9856
 4988SOL    HW121822   5.012   4.840   2.188 -2.0377 -0.4796  1.0063
 4988SOL    HW221823   4.967   4.910   2.315  0.0387  0.7742  1.0931
 4989SOL     OW21824   6.585   6.384   5.497 -0.4209 -0.6371 -0.1405
 4989SOL    HW121825   6.527   6.317   5.461 -0.1949 -0.0466 -1.6883
 4989SOL    HW221826   6.657   6.334   5.537 -0.3765 -1.3227 -1.0478
 4990SOL     OW21827   2.221   6.533   6.720  0.1478  0.1540 -0.4483
 4990SOL    HW121828   2.137   6.578   6.736 -0.3260 -0.1109 -2.0258
 4990SOL    HW221829   2.233   6.477   6.797 -0.5899  0.9618  0.2892
 4991SOL     OW21830   5.855   4.684   8.773 -0.5769 -0.5210 -0.1275
 4991SOL    HW121831   5.808   4.768   8.776 -0.6475 -0.5802  1.1841
 4991SOL    HW221832   5.788   4.620   8.748 -0.3308 -0.0932 -2.0280
 4992SOL     OW21833  10.731  11.190   1.071  0.2449  0.5924  0.2836
 4992SOL    HW121834  10.726  11.095   1.070  0.4556  0.5773  0.4532
 4992SOL    HW221835  10.658  11.219   1.017  0.4083  0.3268 -0.0836
 4993SOL     OW21836   9.337   6.232  11.902  0.3626  0.0923  0.0594
 4993SOL    HW121837   9.307   6.318  11.873  0.5466 -0.5425 -2.1742
 4993SOL    HW221838   9.406   6.251  11.966 -0.1151  1.5896  0.1561
 4994SOL     OW21839   3.454   2.846   8.099  0.1722 -0.1822  0.0812
 4994SOL    HW121840   3.398   2.895   8.159  1.1837  3.6554 -1.8063
 4994SOL    HW221841   3.534   2.830   8.148  0.0364  0.5715  0.5554
 4995SOL     OW21842   2.306   9.124   3.684 -0.3770  0.5689  0.6722
 4995SOL    HW121843   2.261   9.045   3.656 -1.6799  1.8521 -1.0516
 4995SOL    HW221844   2.351   9.098   3.765 -2.0106 -1.4999  1.0120
 4996SOL     OW21845   1.538   3.867  11.440 -0.2489  0.4044 -0.2415
 4996SOL    HW121846   1.493   3.836  11.361 -1.7552 -0.1659  0.7798
 4996SOL    HW221847   1.502   3.812  11.510  0.9902  0.9445  0.8531
 4997SOL     OW21848  11.704   9.789  10.274  0.1714  0.7037  0.3369
 4997SOL    HW121849  11.693   9.884  10.274 -1.8477  0.5769 -2.0989
 4997SOL    HW221850  11.798   9.775  10.283  0.3749  2.8278  2.3257
 4998SOL     OW21851   8.713  11.575   9.529  0.0459 -0.4585  0.3076
 4998SOL    HW121852   8.754  11.502   9.576  1.3496 -0.4423 -0.7577
 4998SOL    HW221853   8.621  11.549   9.520  0.3080 -1.5776  0.6891
 4999SOL     OW21854   8.285   8.292  11.841  0.5894 -0.2621 -0.5861
 4999SOL    HW121855   8.256   8.248  11.761 -0.9808  0.5636 -0.4998
 4999SOL    HW221856   8.352   8.354  11.811 -0.3243  0.3792 -1.3546
 5000SOL     OW21857   1.728   8.294   8.934 -0.2606  0.1183  0.8344
 5000SOL    HW121858   1.709   8.272   8.843 -1.9854 -0.5580  1.3138
 5000SOL    HW221859   1.760   8.212   8.972  0.2242  0.3344  0.8969
 5001SOL     OW21860   8.730   2.811   7.690 -0.3045  0.2940 -0.7809
 5001SOL    HW121861   8.795   2.751   7.726 -0.3484  1.5796  1.6301
 5001SOL    HW221862   8.664   2.754   7.650  0.0470 -1.2341  0.7166
 5002SOL     OW21863  10.458   6.702   2.381  0.7030  0.1571  0.2878
 5002SOL    HW121864  10.378   6.744   2.349  1.0678  1.4718  1.0702
 5002SOL    HW221865  10.477   6.745   2.464  1.7699 -0.7237  0.5222
 5003SOL     OW21866  12.228   3.296   0.233 -0.3276  0.1653 -0.2015
 5003SOL    HW121867  12.311   3.327   0.197  0.0795  0.5968  1.0622
 5003SOL    HW221868  12.196   3.368   0.287 -1.3302 -0.1499 -0.3489
 5004SOL     OW21869   0.289  10.601   0.280 -0.1258 -0.2440  0.4069
 5004SOL    HW121870   0.332  10.649   0.209 -0.6002 -0.1732  0.1598
 5004SOL    HW221871   0.294  10.509   0.254  2.2225 -0.5601  1.6426
 5005SOL     OW21872   7.586   1.519   3.032 -0.1822  0.0158 -0.5131
 5005SOL    HW121873   7.602   1.613   3.031  0.4974 -0.0778  0.2196
 5005SOL    HW221874   7.590   1.495   3.124 -4.7827 -0.0587 -0.1185
 5006SOL     OW21875   6.750   6.277   4.250 -0.0011  0.8831 -0.0571
 5006SOL    HW121876   6.838   6.312   4.261  0.1741  0.1365  1.1241
 5006SOL    HW221877   6.731   6.234   4.333 -0.4741 -1.1665 -1.1564
 5007SOL     OW21878   9.703   9.665   3.317 -0.8390 -0.5030  0.1645
 5007SOL    HW121879   9.681   9.727   3.386  0.2086  0.1947 -0.1028
 5007SOL    HW221880   9.628   9.605   3.313 -1.1647 -0.2100  1.4956
 5008SOL     OW21881  12.051  10.556   4.219  0.2525 -0.1027 -0.0306
 5008SOL    HW121882  11.970  10.602   4.198  0.4919 -0.5106 -2.0864
 5008SOL    HW221883  12.112  10.625   4.245 -0.3165  0.3639  0.0908
 5009SOL     OW21884   7.780   2.207   6.907 -0.2331 -0.7371  0.3767
 5009SOL    HW121885   7.796   2.293   6.944  2.2304 -1.4639  1.2241
 5009SOL    HW221886   7.685   2.197   6.908 -0.5802  1.8837  0.3428
 5010SOL     OW21887   8.985   8.914   7.349 -0.3925  0.7681 -0.0533
 5010SOL    HW121888   8.934   8.968   7.410 -0.9171 -0.4899  0.6540
 5010SOL    HW221889   8.924   8.846   7.321  0.9116 -0.8967  0.9632
 5011SOL     OW21890   7.500   7.129   5.844 -0.1920 -0.6775  0.3933
 5011SOL    HW121891   7.565   7.084   5.897 -0.6555  0.5346  2.0640
 5011SOL    HW221892   7.515   7.222   5.861 -0.0015 -0.1765 -2.0680
 5012SOL     OW21893   7.578   3.408   1.893 -0.3144 -0.2325  0.5524
 5012SOL    HW121894   7.632   3.358   1.954  1.3571  0.2176 -0.4985
 5012SOL    HW221895   7.629   3.486   1.874 -0.4603 -0.6415 -1.8987
 5013SOL     OW21896   1.058   1.299   0.746  0.0155 -0.4950  0.5240
 5013SOL    HW121897   1.052   1.236   0.818 -0.0285 -1.8005 -0.5740
 5013SOL    HW221898   0.969   1.331   0.735 -0.3298 -1.6075 -0.0590
 5014SOL     OW21899   3.936  10.815   0.154  0.0768  0.2778  0.1703
 5014SOL    HW121900   3.883  10.770   0.220 -0.1516 -0.2168 -0.3392
 5014SOL    HW221901   3.951  10.902   0.191 -1.2935  0.5233  0.2284
 5015SOL     OW21902   6.129   1.830   1.421  0.1622  0.2691 -0.2395
 5015SOL    HW121903   6.152   1.756   1.477  0.1024  1.0979  0.9255
 5015SOL    HW221904   6.034   1.827   1.414  0.2792 -1.3857 -2.5668
 5016SOL     OW21905  10.532   2.786   4.631 -0.0474  0.7201 -0.5931
 5016SOL    HW121906  10.518   2.693   4.611  2.2846  0.4176 -1.1000
 5016SOL    HW221907  10.563   2.787   4.721 -0.4452  1.0631 -0.4569
 5017SOL     OW21908   3.861   2.910   6.998  0.0437  0.3283  0.1995
 5017SOL    HW121909   3.850   2.851   6.923  0.5610 -0.3795  0.6689
 5017SOL    HW221910   3.951   2.894   7.028 -0.2375  0.4292  1.1176
 5018SOL     OW21911  10.023   5.979   1.694 -0.1528  0.1975 -0.0164
 5018SOL    HW121912   9.948   5.958   1.639 -1.6563  1.1239  1.5922
 5018SOL    HW221913  10.007   5.932   1.776  1.3308 -0.0430  0.1595
 5019SOL     OW21914   0.976   7.523   4.402  0.4393 -0.5346 -0.3959
 5019SOL    HW121915   1.015   7.603   4.367 -0.8590 -0.5443 -1.9978
 5019SOL    HW221916   0.976   7.536   4.497  0.0611  1.4885 -0.6241
 5020SOL     OW21917  12.417   3.071   3.257  0.2164  0.8028 -0.3196
 5020SOL    HW121918  12.376   3.061   3.343  2.2995 -0.6336  0.6108
 5020SOL    HW221919  12.368   3.012   3.199 -0.7878  1.2728  0.0457
 5021SOL     OW21920   1.627   9.116  11.482 -0.0502 -0.4386  0.0385
 5021SOL    HW121921   1.590   9.040  11.437  1.2336 -1.1659  0.1685
 5021SOL    HW221922   1.705   9.138  11.431 -1.1111  1.6703 -0.8071
 5022SOL     OW21923   6.654   8.358   7.235  0.7313 -0.0658  0.2167
 5022SOL    HW121924   6.710   8.399   7.169 -0.2921 -0.1772 -0.7612
 5022SOL    HW221925   6.625   8.277   7.193  0.8174 -0.6258  1.1961
 5023SOL     OW21926   3.469   2.115  10.406  0.7668  0.5143 -0.4716
 5023SOL    HW121927   3.559   2.130  10.434  0.1115 -0.0540  2.2416
 5023SOL    HW221928   3.470   2.028  10.366  1.4189  0.5925 -0.6354
 5024SOL     OW21929   0.378  10.372   9.307  0.2414  0.3002 -0.1828
 5024SOL    HW121930   0.454  10.419   9.342  0.5215 -0.2127 -0.0789
 5024SOL    HW221931   0.319  10.363   9.382 -0.9295  2.5704 -0.7265
 5025SOL     OW21932  11.199   8.249   6.017 -0.1292  0.0771 -0.2771
 5025SOL    HW121933  11.210   8.216   6.107  2.0111 -2.6302 -1.3755
 5025SOL    HW221934  11.153   8.178   5.971  0.8564  0.3925 -1.8253
 5026SOL     OW21935   6.390   9.720   2.836  0.5846 -0.0762 -0.0690
 5026SOL    HW121936   6.382   9.800   2.784  3.1510 -0.5274 -1.2992
 5026SOL    HW221937   6.373   9.649   2.775 -0.8903 -0.5393  0.8334
 5027SOL     OW21938   6.095   7.655   2.346 -0.1269  0.0131  0.6351
 5027SOL    HW121939   6.012   7.654   2.393  0.1176  0.5173  1.0828
 5027SOL    HW221940   6.074   7.617   2.260 -0.7459 -0.1568  0.8544
 5028SOL     OW21941   9.609  11.669   9.544  0.0931 -0.5171 -0.1217
 5028SOL    HW121942   9.569  11.725   9.478 -0.4980 -2.0153 -1.1017
 5028SOL    HW221943   9.703  11.683   9.534  0.0265 -0.9607 -1.5255
 5029SOL     OW21944   1.781   9.606   5.692  0.3065  0.1206  0.3541
 5029SOL    HW121945   1.844   9.574   5.756  1.5655 -0.2434 -1.0269
 5029SOL    HW221946   1.696   9.590   5.733  1.0252 -1.3531  1.3682
 5030SOL     OW21947   0.714   1.866   6.252 -0.5266  0.1637  0.1778
 5030SOL    HW121948   0.703   1.809   6.328 -3.0933  2.1867  1.5024
 5030SOL    HW221949   0.679   1.816   6.179 -0.8518 -0.7123  0.9106
 5031SOL     OW21950  10.758   3.321   8.912  0.0490  0.2028 -0.0600
 5031SOL    HW121951  10.752   3.309   9.007 -1.6212  0.0303 -0.1527
 5031SOL    HW221952  10.668   3.339   8.885  0.7285  1.7983 -1.4180
 5032SOL     OW21953  11.908   1.540   0.272 -0.0069 -0.2897 -0.2942
 5032SOL    HW121954  11.952   1.613   0.316  1.1963  0.1700 -2.1234
 5032SOL    HW221955  11.872   1.580   0.192 -0.4938 -1.4529 -0.6733
 5033SOL     OW21956   6.357   5.911   5.133  0.5834 -0.2383  0.1442
 5033SOL    HW121957   6.449   5.936   5.124  0.4731  0.1517  0.0694
 5033SOL    HW221958   6.358   5.838   5.194  0.8235  0.6395  1.2366
 5034SOL     OW21959   2.769   0.261   9.855  0.5321  0.3912  0.2088
 5034SOL    HW121960   2.728   0.345   9.836 -0.6870 -0.6022 -1.8098
 5034SOL    HW221961   2.697   0.205   9.883  0.7800 -0.8357 -1.4957
 5035SOL     OW21962   6.164   9.588   2.245  0.4423  0.7064 -0.4919
 5035SOL    HW121963   6.247   9.608   2.202  1.1418 -0.3116  0.3219
 5035SOL    HW221964   6.188   9.572   2.336 -0.8676  1.8286  0.0752
 5036SOL     OW21965   0.372  11.792   2.720  0.3892  0.1943 -0.0373
 5036SOL    HW121966   0.295  11.848   2.725  0.5718  0.4704 -0.2681
 5036SOL    HW221967   0.337  11.704   2.703  0.1425  0.3618 -0.3962
 5037SOL     OW21968  11.608   9.929  11.030 -0.6397 -0.5154  0.0786
 5037SOL    HW121969  11.697   9.950  11.003 -0.6054 -1.0776 -0.2629
 5037SOL    HW221970  11.558  10.009  11.012 -0.2429 -0.2602  0.1029
 5038SOL     OW21971   6.626   2.767   7.732 -0.5872  0.1558 -0.2652
 5038SOL    HW121972   6.658   2.699   7.673 -0.9155  0.4999 -0.8541
 5038SOL    HW221973   6.549   2.803   7.687 -1.1261  0.1104  0.5929
 5039SOL     OW21974   4.813   9.512   1.422 -0.1514 -0.7850  0.6652
 5039SOL    HW121975   4.821   9.533   1.329 -2.0286 -0.7945  0.4666
 5039SOL    HW221976   4.727   9.469   1.429 -0.1425 -0.5522  2.4424
 5040SOL     OW21977   4.639   3.321   1.997  0.3592  0.1639 -0.0987
 5040SOL    HW121978   4.562   3.284   1.953 -0.0354  1.0728 -0.1862
 5040SOL    HW221979   4.678   3.246   2.043 -0.4582 -0.3510 -0.2134
 5041SOL     OW21980   5.251   3.037   3.620  0.1122  0.4392  0.7949
 5041SOL    HW121981   5.258   3.117   3.568  0.2418  0.2721  0.5520
 5041SOL    HW221982   5.157   3.022   3.628  0.0633 -0.5772 -1.0274
 5042SOL     OW21983   9.189   9.395   4.446  0.3104 -0.0503 -0.1037
 5042SOL    HW121984   9.124   9.357   4.505  0.7733  0.9408  1.0631
 5042SOL    HW221985   9.166   9.487   4.440  0.8167  0.0440 -0.7571
 5043SOL     OW21986  11.702   9.407  12.444  0.1533 -0.5323 -0.1701
 5043SOL    HW121987  11.747   9.404  12.528 -0.6019  1.2183  0.3430
 5043SOL    HW221988  11.753   9.470  12.392 -1.0364  0.6911  0.0670
 5044SOL     OW21989  12.307   5.151   0.050 -0.3053  0.3470 -0.0104
 5044SOL    HW121990  12.223   5.105   0.059 -0.1966  0.3943  1.5118
 5044SOL    HW221991  12.297   5.230   0.103  1.2429 -0.4553  1.5922
 5045SOL     OW21992   2.583   0.035   3.483 -0.2501  0.2154 -0.6238
 5045SOL    HW121993   2.617   0.056   3.569  2.8406 -1.0835 -1.3809
 5045SOL    HW221994   2.580   0.119   3.437  1.4309  0.4917 -0.2916
 5046SOL     OW21995   8.551   1.797  11.406  0.9737  0.3117  0.2579
 5046SOL    HW121996   8.620   1.844  11.453  0.5953 -0.0925  1.2624
 5046SOL    HW221997   8.499   1.757  11.476  0.2196 -0.0771 -0.5166
 5047SOL     OW21998   4.880   1.406  11.520 -0.4297 -0.4821 -0.3644
 5047SOL    HW121999   4.851   1.336  11.462 -0.8334 -1.3043  0.8193
 5047SOL    HW222000   4.810   1.415  11.585  0.1692  0.1980  0.2043
 5048SOL     OW22001   1.073   2.515   2.494 -0.1510 -0.4644  0.1066
 5048SOL    HW122002   1.131   2.563   2.552  0.3219  0.0114 -0.7541
 5048SOL    HW222003   1.061   2.430   2.537 -0.7913  0.2990  1.5049
 5049SOL     OW22004   6.276   1.742   7.617 -0.4565 -0.3636 -0.2627
 5049SOL    HW122005   6.211   1.677   7.643 -0.1223 -1.0622 -1.1336
 5049SOL    HW222006   6.355   1.692   7.599 -0.4268  0.1850 -1.7431
 5050SOL     OW22007   5.252   2.816  11.023 -0.6848 -0.3019 -0.1423
 5050SOL    HW122008   5.330   2.832  10.969 -0.5555  1.5070  0.5098
 5050SOL    HW222009   5.221   2.730  10.995  1.1513 -0.7696 -0.8958
 5051SOL     OW22010   5.838   9.920   5.125  0.6296  0.4003 -0.2427
 5051SOL    HW122011   5.857   9.826   5.124 -0.3220  0.1899  0.4439
 5051SOL    HW222012   5.872   9.952   5.041  0.6684 -0.6104 -0.6256
 5052SOL     OW22013  10.948   3.888   4.371 -0.2473  0.4982 -0.1696
 5052SOL    HW122014  10.970   3.981   4.370 -0.8668  0.6465 -0.7107
 5052SOL    HW222015  11.003   3.850   4.302  1.2964  0.1347  1.1966
 5053SOL     OW22016   4.014   5.541   8.912  0.1591 -0.3428 -0.1928
 5053SOL    HW122017   3.965   5.622   8.896  0.1705 -0.1569  0.6738
 5053SOL    HW222018   4.087   5.568   8.968 -0.3118 -1.0841  0.8079
 5054SOL     OW22019   6.863   1.118   3.252  0.1786  0.4807  0.3666
 5054SOL    HW122020   6.908   1.203   3.249  0.7060  0.2315  0.9523
 5054SOL    HW222021   6.796   1.124   3.184 -0.5762  1.8186  1.1908
 5055SOL     OW22022   6.846  10.487   8.048 -0.4129 -0.0638  0.4409
 5055SOL    HW122023   6.801  10.490   7.963  0.0998  1.7058  0.2058
 5055SOL    HW222024   6.778  10.461   8.110 -2.2716  3.8775  0.3350
 5056SOL     OW22025   6.702   6.732   6.291 -0.1196  0.3134 -0.0536
 5056SOL    HW122026   6.677   6.731   6.199  2.8606 -0.1789 -0.9984
 5056SOL    HW222027   6.684   6.643   6.322  1.9727 -0.6022 -1.2369
 5057SOL     OW22028   4.318   1.941   4.069 -0.2269  0.3693  0.0943
 5057SOL    HW122029   4.300   1.991   3.989  2.8818 -0.2405 -1.1424
 5057SOL    HW222030   4.326   1.850   4.040  0.3223  0.0388  1.2048
 5058SOL     OW22031  12.214   3.693  10.757  0.0072  0.2822 -0.6891
 5058SOL    HW122032  12.186   3.778  10.722 -1.6797 -0.1154 -0.3717
 5058SOL    HW222033  12.201   3.632  10.685  1.0509  0.2449 -0.8595
 5059SOL     OW22034   4.271  12.429   2.552  0.0308  0.2018 -0.0082
 5059SOL    HW122035   4.209  12.390   2.491  1.2036 -0.3098 -0.9176
 5059SOL    HW222036   4.323  12.490   2.499  1.3049 -0.5149  0.3483
 5060SOL     OW22037   0.069   6.929   9.597  0.4448  0.2532  0.0257
 5060SOL    HW122038   0.137   6.996   9.605 -1.1485  1.7922  1.7802
 5060SOL    HW222039   0.111   6.849   9.628  1.0979  1.4816  2.6014
 5061SOL     OW22040   5.436   3.435   8.485 -0.5840  0.1074 -0.1225
 5061SOL    HW122041   5.487   3.500   8.534 -0.6322 -0.4753  0.7300
 5061SOL    HW222042   5.498   3.398   8.423 -0.0048 -0.4179  0.7365
 5062SOL     OW22043   1.229   5.965   7.903  0.9348 -0.0879  0.3988
 5062SOL    HW122044   1.176   5.997   7.975  1.5465 -0.5875  1.0810
 5062SOL    HW222045   1.277   6.041   7.872 -1.2648  0.7450 -1.2405
 5063SOL     OW22046  11.393  11.391  10.580 -0.0968 -0.3740  0.6241
 5063SOL    HW122047  11.379  11.313  10.635 -0.8184 -1.7437 -1.3611
 5063SOL    HW222048  11.476  11.374  10.536 -0.8158 -0.6247 -0.6897
 5064SOL     OW22049   4.357   0.130   8.521 -0.5116 -0.1516  0.0821
 5064SOL    HW122050   4.386   0.202   8.578 -0.5359  0.2714 -0.4259
 5064SOL    HW222051   4.357   0.168   8.434  0.2890 -1.0213 -0.3137
 5065SOL     OW22052  10.793   2.555  10.629 -0.0093  0.2173 -0.3271
 5065SOL    HW122053  10.835   2.606  10.697 -0.0253 -2.2211  1.6806
 5065SOL    HW222054  10.699   2.566  10.645 -0.0252  0.1636 -0.3823
 5066SOL     OW22055   7.320   6.141   4.390  0.1845 -0.0611 -0.0652
 5066SOL    HW122056   7.267   6.212   4.424  0.1695 -0.3105  0.4367
 5066SOL    HW222057   7.259   6.089   4.336  0.5828  1.2615 -1.8889
 5067SOL     OW22058   4.591   2.431   0.928 -0.5534  0.3082  0.0769
 5067SOL    HW122059   4.551   2.518   0.929 -0.5156  0.3249  0.1432
 5067SOL    HW222060   4.684   2.447   0.942 -0.6801  0.1848  1.1324
 5068SOL     OW22061   1.639   0.514   9.230  0.4042  0.3248  0.2697
 5068SOL    HW122062   1.733   0.532   9.231  1.2148 -3.0891  1.2300
 5068SOL    HW222063   1.625   0.468   9.147 -0.4967  0.9688  0.0464
 5069SOL     OW22064   8.403   8.522   3.317 -0.1581 -0.6524  0.3454
 5069SOL    HW122065   8.423   8.510   3.410  0.7297  0.5730  0.3341
 5069SOL    HW222066   8.489   8.536   3.276 -0.7061  0.8917 -0.3252
 5070SOL     OW22067   1.743   9.535   7.878  0.1943  0.4318  0.2078
 5070SOL    HW122068   1.784   9.618   7.855 -1.4478  1.5653  1.2106
 5070SOL    HW222069   1.742   9.485   7.796  2.0075  1.0128 -0.2077
 5071SOL     OW22070   1.465   6.566   3.213 -0.0587 -0.1670  0.1044
 5071SOL    HW122071   1.550   6.531   3.187 -0.5224 -0.4378 -1.1168
 5071SOL    HW222072   1.477   6.592   3.305  1.2076 -0.5858  0.0815
 5072SOL     OW22073  10.500   3.219   0.230  0.0218 -0.2429  0.1758
 5072SOL    HW122074  10.520   3.141   0.282 -0.8142 -1.2562 -0.9666
 5072SOL    HW222075  10.475   3.185   0.144 -1.9683  1.1581  0.1188
 5073SOL     OW22076   7.700   6.707   2.930  0.4331  0.0813  0.6198
 5073SOL    HW122077   7.747   6.757   2.997  0.2733 -1.6510  2.1249
 5073SOL    HW222078   7.718   6.752   2.848  2.4301  1.0648  1.5375
 5074SOL     OW22079   8.627   3.711  10.822  0.1449  0.0786 -0.2268
 5074SOL    HW122080   8.616   3.735  10.914  3.2690  1.4898 -0.0889
 5074SOL    HW222081   8.538   3.708  10.788 -0.9911  3.5079  1.9125
 5075SOL     OW22082  10.777   5.628   6.576  0.2143  0.4486  0.7095
 5075SOL    HW122083  10.853   5.600   6.525  0.7319  0.8088  1.2637
 5075SOL    HW222084  10.779   5.724   6.570 -0.4568  0.4485  0.3677
 5076SOL     OW22085   5.284   5.636   1.690  0.2192  0.5288  0.7110
 5076SOL    HW122086   5.297   5.663   1.781  1.2552 -0.2233  0.8010
 5076SOL    HW222087   5.210   5.689   1.660  0.5636  1.5872  1.6462
 5077SOL     OW22088   2.972  11.428   5.092 -0.5437  0.1047 -0.3651
 5077SOL    HW122089   2.904  11.412   5.157  0.6391 -0.1984  0.8321
 5077SOL    HW222090   3.018  11.505   5.124 -0.0393  0.0431 -0.9228
 5078SOL     OW22091   7.279   7.943   9.497  0.0009  0.3082 -0.0780
 5078SOL    HW122092   7.315   8.000   9.566 -0.5082 -0.2472  0.6650
 5078SOL    HW222093   7.241   8.003   9.433 -1.3936  0.8132  1.1675
 5079SOL     OW22094  10.797   5.935  10.837  0.3113 -0.1063  0.5449
 5079SOL    HW122095  10.728   5.915  10.773  1.4941 -1.0678 -0.4944
 5079SOL    HW222096  10.759   6.001  10.894 -0.5481  1.4383 -1.6810
 5080SOL     OW22097  10.221   5.986   4.136  0.0263 -0.0351  0.4332
 5080SOL    HW122098  10.183   6.027   4.214  0.4346  0.9565  0.1380
 5080SOL    HW222099  10.304   5.949   4.166 -0.0937 -0.1693  0.5979
 5081SOL     OW22100   4.856  10.264  12.227  0.4538 -0.1467  0.1095
 5081SOL    HW122101   4.842  10.201  12.297  0.2420 -1.2314 -0.8718
 5081SOL    HW222102   4.864  10.348  12.271 -1.5135 -0.5338  1.3183
 5082SOL     OW22103   2.758   6.948  10.119  0.2809  0.2718 -0.3104
 5082SOL    HW122104   2.832   7.005  10.097  0.1494  0.1500 -1.1001
 5082SOL    HW222105   2.770   6.870  10.065 -1.0416  0.7369 -1.3295
 5083SOL     OW22106   6.525  11.571   1.736 -0.4103  0.1721 -0.0060
 5083SOL    HW122107   6.596  11.578   1.800  0.7089 -1.1646 -1.0161
 5083SOL    HW222108   6.521  11.657   1.695  0.2011  0.4504  0.5038
 5084SOL     OW22109   1.907   3.043   3.798 -0.2301 -0.6289 -0.1911
 5084SOL    HW122110   1.915   3.071   3.706  0.4108  0.7184  0.2486
 5084SOL    HW222111   1.856   2.963   3.794 -0.5913 -0.3569 -1.6980
 5085SOL     OW22112  12.387   5.838   4.805 -0.7914 -0.4484 -0.1967
 5085SOL    HW122113  12.480   5.853   4.787 -0.7766 -0.6942 -0.3336
 5085SOL    HW222114  12.386   5.773   4.875 -0.8152  2.0674  2.3106
 5086SOL     OW22115   2.726   6.090   9.112 -0.2489 -0.7363  0.1593
 5086SOL    HW122116   2.668   6.040   9.170 -0.6175 -1.0348 -0.4623
 5086SOL    HW222117   2.810   6.043   9.116 -0.3418 -0.8962  0.2560
 5087SOL     OW22118  11.933  10.858   0.585  0.4330 -0.0075  0.2609
 5087SOL    HW122119  11.862  10.897   0.535  0.0307 -1.2130 -0.1415
 5087SOL    HW222120  11.936  10.908   0.666 -1.5897 -0.5773  0.7550
 5088SOL     OW22121  10.251   9.806   3.913 -0.0455 -0.2782 -0.2484
 5088SOL    HW122122  10.179   9.845   3.864  0.5519  2.3460  0.8273
 5088SOL    HW222123  10.271   9.725   3.865 -3.1259 -0.6950 -1.0263
 5089SOL     OW22124   3.175  10.097   7.973  0.5286 -0.1928  0.6091
 5089SOL    HW122125   3.211  10.130   8.055  1.8684 -0.5759  0.2120
 5089SOL    HW222126   3.121  10.022   7.999  0.1778  0.2602  1.2122
 5090SOL     OW22127   2.396   7.039   9.332 -0.6101  0.3378  0.3063
 5090SOL    HW122128   2.419   7.032   9.239  0.4682  1.4586  0.4729
 5090SOL    HW222129   2.467   7.089   9.371  0.0049 -1.8554  2.1707
 5091SOL     OW22130   4.385   0.990   6.618  0.5158 -0.0802 -0.1810
 5091SOL    HW122131   4.304   0.954   6.583 -0.2446  0.8161  0.5901
 5091SOL    HW222132   4.450   0.974   6.550 -0.5106 -0.0333 -1.2004
 5092SOL     OW22133   8.568   4.020   6.644 -0.2886 -0.3012  0.2255
 5092SOL    HW122134   8.636   3.998   6.581  1.8689  0.9867  1.9365
 5092SOL    HW222135   8.553   4.114   6.631 -0.7544 -0.2931  0.7709
 5093SOL     OW22136   4.660   4.465   4.780 -0.0511 -0.0186  0.2536
 5093SOL    HW122137   4.593   4.425   4.837 -0.4635  2.5623  1.7258
 5093SOL    HW222138   4.610   4.522   4.722  0.7298  0.4624  0.0543
 5094SOL     OW22139  12.339   2.136  10.635  0.5554  0.2975 -0.1911
 5094SOL    HW122140  12.252   2.157  10.670  0.5289  0.7096 -0.4928
 5094SOL    HW222141  12.390   2.215  10.650  1.1649 -0.2837  0.8669
 5095SOL     OW22142   6.580   1.287  10.562 -0.4208 -0.1440  0.7464
 5095SOL    HW122143   6.517   1.261  10.630 -2.2247  1.7564 -0.0636
 5095SOL    HW222144   6.598   1.379  10.580  0.7321 -0.1716 -0.1369
 5096SOL     OW22145   2.073   9.450  11.387 -0.1571  0.3762 -0.2781
 5096SOL    HW122146   2.065   9.402  11.305  0.6057  0.6815 -0.5480
 5096SOL    HW222147   2.166   9.439  11.411 -0.5983 -0.6062  1.1027
 5097SOL     OW22148   9.783   4.364   3.188  0.3188  0.4600  0.5006
 5097SOL    HW122149   9.767   4.315   3.107 -0.1163 -0.9353  1.3961
 5097SOL    HW222150   9.853   4.316   3.232 -0.7599  0.0640  1.8472
 5098SOL     OW22151   0.742   4.110  10.356 -1.0738 -0.3964 -0.3212
 5098SOL    HW122152   0.804   4.089  10.286 -2.0162  0.7164 -1.5458
 5098SOL    HW222153   0.745   4.034  10.415  0.1614 -1.1073 -1.2584
 5099SOL     OW22154   2.491   2.305  11.054  0.4380  0.2890  0.2240
 5099SOL    HW122155   2.470   2.367  10.984  0.3960  1.2622  1.0646
 5099SOL    HW222156   2.439   2.227  11.034 -0.8329  1.1444  0.0233
 5100SOL     OW22157  12.540   9.306  11.171 -0.4519  0.0298  0.3609
 5100SOL    HW122158  12.541   9.337  11.081 -0.6878  0.1427  0.3966
 5100SOL    HW222159  12.490   9.372  11.219  0.4234  0.4350  0.7457
 5101SOL     OW22160   2.182   6.235   1.230  0.7740  0.1959 -0.1335
 5101SOL    HW122161   2.109   6.289   1.200  2.2163  3.2755  1.4093
 5101SOL    HW222162   2.222   6.202   1.150 -0.5332  0.9452 -1.1386
 5102SOL     OW22163   6.798   6.878   0.748 -0.1093 -0.1104  0.4777
 5102SOL    HW122164   6.850   6.809   0.789 -0.8987  0.3798  2.3874
 5102SOL    HW222165   6.749   6.918   0.820  0.0128  2.1803 -0.5992
 5103SOL     OW22166   3.312   5.592   8.918 -0.5649 -0.2534 -0.0119
 5103SOL    HW122167   3.297   5.535   8.842  1.4761  0.9549 -1.4395
 5103SOL    HW222168   3.232   5.645   8.923 -0.8266 -0.4843 -1.2301
 5104SOL     OW22169   1.709   7.608   4.162  0.4761  0.4085  0.1115
 5104SOL    HW122170   1.650   7.679   4.183  0.4397  0.2555  0.5353
 5104SOL    HW222171   1.696   7.544   4.232  1.6885  0.7056  0.6411
 5105SOL     OW22172   1.763   8.280   3.250 -0.4502  0.0983  0.3553
 5105SOL    HW122173   1.763   8.195   3.206  1.2597  0.2504 -0.0075
 5105SOL    HW222174   1.738   8.261   3.340 -2.1448 -0.4774 -0.1925
 5106SOL     OW22175   1.165   8.116   5.913 -0.3440 -0.0758  0.2618
 5106SOL    HW122176   1.186   8.022   5.915 -0.1994 -0.0417  0.3305
 5106SOL    HW222177   1.074   8.120   5.943 -0.7549 -0.3040 -0.8974
 5107SOL     OW22178   6.674  11.047   8.873  0.2590 -0.4841 -0.1403
 5107SOL    HW122179   6.688  11.142   8.875 -1.6492 -0.1095 -1.6744
 5107SOL    HW222180   6.590  11.034   8.917 -0.6194 -1.1577 -1.8962
 5108SOL     OW22181  12.546  11.845   0.018  0.5074  0.1833 -0.1160
 5108SOL    HW122182  12.563  11.818  -0.072 -0.7569  1.0541 -0.6360
 5108SOL    HW222183  12.518  11.764   0.062 -0.8062  0.1115 -1.0231
 5109SOL     OW22184  11.980   7.127   9.727  0.1607  0.3854 -0.1894
 5109SOL    HW122185  11.900   7.091   9.688  0.5016  0.6254 -1.1409
 5109SOL    HW222186  11.973   7.221   9.713  0.1757  0.5059  0.5721
 5110SOL     OW22187   3.515   8.493  12.212  0.3272 -0.5040 -0.1323
 5110SOL    HW122188   3.559   8.409  12.203 -0.4250 -1.0063  0.6920
 5110SOL    HW222189   3.471   8.506  12.128 -0.9201 -1.7556  0.2837
 5111SOL     OW22190   9.599  11.220   2.855 -0.4564 -0.8066 -0.0663
 5111SOL    HW122191   9.521  11.273   2.874 -0.4892 -0.5084 -0.9715
 5111SOL    HW222192   9.576  11.132   2.885 -0.4997 -0.3857  1.2281
 5112SOL     OW22193   0.835   8.203   8.973 -0.3999  0.1102 -0.4201
 5112SOL    HW122194   0.862   8.111   8.972 -0.4055  0.0525  1.6640
 5112SOL    HW222195   0.740   8.200   8.981 -0.4307  0.3155 -0.6848
 5113SOL     OW22196   4.646   0.654   0.510  0.2214  0.2683 -0.1535
 5113SOL    HW122197   4.594   0.695   0.579 -0.3503  1.3238 -1.1763
 5113SOL    HW222198   4.625   0.561   0.517 -0.4784  0.4630  0.5444
 5114SOL     OW22199   2.570   1.960   5.109  0.3851  0.2629 -0.3851
 5114SOL    HW122200   2.597   2.014   5.035 -0.5550  1.0688 -0.1568
 5114SOL    HW222201   2.618   1.878   5.097  2.1205  1.2541 -0.5303
 5115SOL     OW22202   3.183   4.706   6.263  0.1626  0.7483 -0.1923
 5115SOL    HW122203   3.110   4.767   6.271 -0.0520  0.3767  0.8265
 5115SOL    HW222204   3.144   4.627   6.225  0.5276  1.3670 -1.9400
 5116SOL     OW22205   4.722   4.735  10.675 -0.4125 -0.0723 -1.1176
 5116SOL    HW122206   4.701   4.676  10.748 -0.7682 -1.0747 -2.0077
 5116SOL    HW222207   4.813   4.714  10.653  0.3338  1.5354  0.2045
 5117SOL     OW22208   0.049   1.364  11.075 -0.2395  0.2781  0.2164
 5117SOL    HW122209   0.137   1.362  11.111 -0.2397  3.4095  0.5933
 5117SOL    HW222210  -0.002   1.307  11.133  0.7246  1.5901  2.4557
 5118SOL     OW22211   2.492   2.382   2.304  0.1621  0.0370  0.0376
 5118SOL    HW122212   2.446   2.298   2.310  0.0504  0.1959  2.0945
 5118SOL    HW222213   2.424   2.448   2.320  0.7036  0.3891  0.9277
 5119SOL     OW22214   0.123   5.915   0.806  0.0719 -0.0677 -0.1137
 5119SOL    HW122215   0.148   5.858   0.879 -0.4099  1.1068  1.0095
 5119SOL    HW222216   0.171   5.997   0.822  0.2042  0.1045 -1.3017
 5120SOL     OW22217   7.246   6.252   8.858  0.2825  0.4773 -0.2552
 5120SOL    HW122218   7.312   6.309   8.898  0.6321  1.3362 -1.9539
 5120SOL    HW222219   7.194   6.311   8.804 -0.1889 -0.6298 -1.0353
 5121SOL     OW22220  12.493   3.354  11.259  0.4083  0.3793  0.5256
 5121SOL    HW122221  12.549   3.418  11.216  0.9185 -0.5935 -0.3016
 5121SOL    HW222222  12.515   3.270  11.217 -1.2355 -0.1198  0.5705
 5122SOL     OW22223   7.597  11.155   9.128 -0.0733 -0.3669  0.6756
 5122SOL    HW122224   7.557  11.198   9.203 -2.6879  0.1259 -0.8840
 5122SOL    HW222225   7.539  11.081   9.108 -0.3083  0.3624 -1.6806
 5123SOL     OW22226  10.947   3.317  11.754 -0.6275  0.5593 -0.2630
 5123SOL    HW122227  10.966   3.408  11.779 -1.0296  1.6371 -3.4279
 5123SOL    HW222228  10.852   3.316  11.739 -0.9748 -0.9935  1.6890
 5124SOL     OW22229   1.657   5.567   7.921  0.2896  0.1102 -0.0104
 5124SOL    HW122230   1.577   5.601   7.882 -0.2759 -0.1144  0.9166
 5124SOL    HW222231   1.722   5.637   7.909 -0.2019  0.5288 -0.2531
 5125SOL     OW22232   7.328   1.691   4.152  0.0273  0.2759 -0.6804
 5125SOL    HW122233   7.376   1.608   4.160 -0.2836 -0.0051 -1.5621
 5125SOL    HW222234   7.261   1.673   4.086 -1.4053  0.6138  0.6392
 5126SOL     OW22235   1.297   8.948   5.476 -0.0058 -0.0902 -0.4356
 5126SOL    HW122236   1.279   8.856   5.493  0.8150 -0.3455 -0.9018
 5126SOL    HW222237   1.234   8.995   5.531  0.6499 -0.9077  1.0993
 5127SOL     OW22238   1.548   1.420  11.247 -0.2656  0.0343  0.2018
 5127SOL    HW122239   1.614   1.458  11.305 -1.5338  1.0950  1.0238
 5127SOL    HW222240   1.590   1.415  11.161  0.8405  0.7786  0.6838
 5128SOL     OW22241   2.991  11.582   2.520 -0.1371 -0.0883 -1.1499
 5128SOL    HW122242   3.036  11.667   2.524  1.3277 -0.8548  1.1853
 5128SOL    HW222243   3.030  11.537   2.445  2.8564 -0.5381  0.5206
 5129SOL     OW22244   8.388   3.271  11.325  0.4763  0.5461  0.2286
 5129SOL    HW122245   8.391   3.183  11.289  0.4292  0.4838  0.3787
 5129SOL    HW222246   8.295   3.292  11.332  0.4206  1.8061 -2.7419
 5130SOL     OW22247   8.659   5.950   8.453 -0.1691  0.5750  0.2172
 5130SOL    HW122248   8.732   6.004   8.423 -0.2969  0.5521 -0.1385
 5130SOL    HW222249   8.673   5.940   8.547  0.4692  0.2933  0.0962
 5131SOL     OW22250   2.246  11.045  12.491  0.6751  0.0258 -0.2887
 5131SOL    HW122251   2.189  11.105  12.442 -0.5553  1.0306  2.1966
 5131SOL    HW222252   2.301  11.102  12.545  0.2291 -1.0065  1.3291
 5132SOL     OW22253   6.518   0.882   3.287  0.3843  0.1737 -0.1309
 5132SOL    HW122254   6.574   0.891   3.364  1.8033  0.9839 -1.2020
 5132SOL    HW222255   6.554   0.808   3.240 -1.4977 -1.3877  0.7417
 5133SOL     OW22256   1.376   7.611   3.629  0.9652  0.1645  0.5882
 5133SOL    HW122257   1.471   7.603   3.633  1.0497  0.2842 -0.6797
 5133SOL    HW222258   1.345   7.520   3.631  1.1828  0.0651 -0.2307
 5134SOL     OW22259   2.910  10.218   9.863 -0.3201 -0.0072  0.2059
 5134SOL    HW122260   2.900  10.186   9.953 -0.0182 -0.9007 -0.0700
 5134SOL    HW222261   2.988  10.274   9.867 -1.1783  1.2173  0.8123
 5135SOL     OW22262   4.380   9.170   3.698  0.1835  0.2844  0.4057
 5135SOL    HW122263   4.434   9.140   3.771  0.2618  0.7688  0.5547
 5135SOL    HW222264   4.312   9.223   3.739 -0.6118 -0.6029  0.2496
 5136SOL     OW22265   5.891   5.388   2.064 -0.2968  0.3311 -0.6836
 5136SOL    HW122266   5.856   5.312   2.110 -0.4066  1.5832  1.4836
 5136SOL    HW222267   5.971   5.356   2.022 -0.8045 -1.1684 -0.5547
 5137SOL     OW22268  11.007   1.205   2.338  0.4456 -0.0509 -0.2174
 5137SOL    HW122269  10.951   1.214   2.261  1.4616 -0.3779 -1.0145
 5137SOL    HW222270  11.035   1.114   2.336  1.4212  0.2378 -0.1348
 5138SOL     OW22271   4.780   0.027  10.480  0.3764 -0.6436  0.9324
 5138SOL    HW122272   4.691   0.013  10.513 -0.2011  0.7128  0.0378
 5138SOL    HW222273   4.822  -0.059  10.487 -1.7549 -1.9473 -0.7989
 5139SOL     OW22274  10.711   7.777  12.394  0.0732 -0.0310  0.3179
 5139SOL    HW122275  10.773   7.834  12.348 -1.7444  1.8858  0.0726
 5139SOL    HW222276  10.729   7.689  12.360  1.2178  0.7831 -1.3159
 5140SOL     OW22277   5.128   0.043   4.850  0.1999  0.0222  0.1341
 5140SOL    HW122278   5.044   0.087   4.836  1.6271  2.2881 -1.9823
 5140SOL    HW222279   5.170   0.091   4.921  1.2018  1.3107 -1.2854
 5141SOL     OW22280   7.601   3.186   8.804  0.0995 -0.6521  0.0903
 5141SOL    HW122281   7.586   3.146   8.718  1.3782 -0.0341 -0.4452
 5141SOL    HW222282   7.521   3.236   8.821  0.1130 -0.2028 -1.0656
 5142SOL     OW22283   3.095   0.640   6.270 -0.1832  0.1540 -0.2999
 5142SOL    HW122284   3.025   0.582   6.238 -1.9837  1.8947  0.2554
 5142SOL    HW222285   3.055   0.727   6.270  1.6230  1.0366  1.2306
 5143SOL     OW22286   3.602   8.239  12.237  0.0080  0.7341  0.1463
 5143SOL    HW122287   3.664   8.190  12.183  0.3738  0.4885  0.7794
 5143SOL    HW222288   3.534   8.175  12.260  0.8019  0.3391  1.4788
 5144SOL     OW22289   4.087   6.259  10.087  0.0719  0.5501 -0.2379
 5144SOL    HW122290   4.086   6.205  10.008 -1.1575  0.4979 -0.2090
 5144SOL    HW222291   4.130   6.340  10.060  0.2486  0.2798 -0.7812
 5145SOL     OW22292  12.329   7.507   0.022 -0.3067 -0.2627  0.3410
 5145SOL    HW122293  12.235   7.524   0.025 -0.2402 -0.0413  2.5105
 5145SOL    HW222294  12.362   7.540   0.106  1.6502 -0.6650 -0.2268
 5146SOL     OW22295   3.223   1.279  11.133  0.2400 -0.3627 -0.4609
 5146SOL    HW122296   3.187   1.233  11.208 -0.6357  0.4727 -0.3447
 5146SOL    HW222297   3.147   1.312  11.085  0.8010  1.1661 -0.3886
 5147SOL     OW22298   9.601   4.519   6.670  0.2189 -0.3147 -0.6522
 5147SOL    HW122299   9.603   4.526   6.765 -1.3990 -1.9289 -0.4486
 5147SOL    HW222300   9.549   4.593   6.641  1.3298  0.6060 -0.3759
 5148SOL     OW22301   7.893   5.866  12.510  0.6450  0.4341 -0.0410
 5148SOL    HW122302   7.881   5.961  12.517  1.4162  0.4788  0.8764
 5148SOL    HW222303   7.847   5.831  12.586  1.3420  0.1737  0.2713
 5149SOL     OW22304   2.009   9.167   7.642 -0.2960  0.2138  0.4849
 5149SOL    HW122305   2.035   9.080   7.610  2.9951  0.3768  2.2615
 5149SOL    HW222306   2.062   9.228   7.591  0.2049  0.8840  1.7649
 5150SOL     OW22307   9.466  10.956   2.269 -0.1389  0.3019 -0.1012
 5150SOL    HW122308   9.492  11.038   2.312  0.7538 -0.8981  1.7731
 5150SOL    HW222309   9.371  10.953   2.281 -0.0465  0.5529  0.8063
 5151SOL     OW22310   7.795   6.345   3.388  0.4418  0.6780 -0.0069
 5151SOL    HW122311   7.740   6.323   3.463 -1.3893  3.4751 -0.3709
 5151SOL    HW222312   7.839   6.427   3.413  2.1527  0.0897 -0.8939
 5152SOL     OW22313  10.766   2.829   7.663  0.2984  0.1642  0.5421
 5152SOL    HW122314  10.722   2.838   7.578  0.4359  0.0928  0.4635
 5152SOL    HW222315  10.759   2.736   7.684  1.0009  0.0274  0.2087
 5153SOL     OW22316   0.803   8.332   0.729  0.2563 -0.3926 -0.4308
 5153SOL    HW122317   0.784   8.356   0.639  1.2448 -1.7412 -1.0406
 5153SOL    HW222318   0.871   8.393   0.757 -0.5314  0.4660 -0.3455
 5154SOL     OW22319   6.109   2.599   3.721 -0.0142 -0.0721 -0.1897
 5154SOL    HW122320   6.063   2.520   3.692 -0.3584  0.2825 -0.6145
 5154SOL    HW222321   6.058   2.672   3.684  2.5570  0.3423 -3.3310
 5155SOL     OW22322  11.211   6.360   4.838  0.2571  0.3815  0.0375
 5155SOL    HW122323  11.137   6.351   4.778 -0.5615 -1.0114  1.2144
 5155SOL    HW222324  11.263   6.432   4.801 -0.9157  0.4377 -1.5905
 5156SOL     OW22325   3.980   3.507   6.318 -0.0824 -0.4648 -0.7741
 5156SOL    HW122326   4.048   3.444   6.344 -1.8714 -2.4857 -0.7304
 5156SOL    HW222327   3.925   3.458   6.257 -1.7487  0.9542 -0.4609
 5157SOL     OW22328   1.627   2.108   7.103 -0.0766 -0.2403 -0.4347
 5157SOL    HW122329   1.600   2.081   7.191 -0.2931 -0.2004 -0.4884
 5157SOL    HW222330   1.604   2.033   7.047 -1.3035  0.3007 -0.6947
 5158SOL     OW22331   5.506   8.481  10.662  0.1877 -0.5653  0.1998
 5158SOL    HW122332   5.571   8.538  10.701  0.0530 -0.5086  0.3399
 5158SOL    HW222333   5.542   8.393  10.672  0.5572 -0.4785 -0.3302
 5159SOL     OW22334   3.206  11.761   7.019  0.9476 -0.3198  0.1572
 5159SOL    HW122335   3.191  11.854   7.038  1.3574 -0.0143 -0.9509
 5159SOL    HW222336   3.228  11.723   7.104 -4.3737 -0.5748  1.7989
 5160SOL     OW22337   5.282   0.442   3.670  0.7619  0.6008 -0.2218
 5160SOL    HW122338   5.357   0.401   3.627  0.1638 -0.2942 -0.4685
 5160SOL    HW222339   5.211   0.436   3.605 -0.8355 -2.8783  1.5118
 5161SOL     OW22340   4.997   2.607  12.533 -0.0570 -0.3933  0.0041
 5161SOL    HW122341   4.994   2.626  12.627 -1.1368  2.6508 -0.5105
 5161SOL    HW222342   4.906   2.592  12.508  0.0356  0.2040 -0.7497
 5162SOL     OW22343  12.344   0.212   0.562  0.0440  0.1552  0.2804
 5162SOL    HW122344  12.420   0.270   0.556 -0.2242  0.5424  0.5982
 5162SOL    HW222345  12.340   0.186   0.654  0.7374 -1.1601 -0.0332
 5163SOL     OW22346   0.049   8.930   0.468 -0.1709  0.3621 -0.1447
 5163SOL    HW122347   0.037   9.025   0.477  0.4976  0.4075  0.4016
 5163SOL    HW222348   0.033   8.912   0.375 -0.6097  0.9586 -0.1892
 5164SOL     OW22349   5.808  12.287   4.542  0.1416  0.5129  0.0409
 5164SOL    HW122350   5.743  12.221   4.562  0.0511  1.1224  1.9958
 5164SOL    HW222351   5.800  12.302   4.448 -0.6856 -1.3180 -0.2089
 5165SOL     OW22352   0.508   5.916  11.335  0.6304  0.0572 -0.1035
 5165SOL    HW122353   0.434   5.887  11.388  1.0008  0.0274  0.4079
 5165SOL    HW222354   0.480   5.999  11.297  0.5838  0.3839  0.6317
 5166SOL     OW22355   9.055   3.263   1.467  0.5950 -0.1880 -0.7968
 5166SOL    HW122356   9.068   3.349   1.428  1.8647 -0.4348 -0.9496
 5166SOL    HW222357   8.963   3.263   1.494  0.3828  0.9402 -1.4416
 5167SOL     OW22358   3.836   5.544   2.709  0.1068  0.1859  0.1646
 5167SOL    HW122359   3.859   5.633   2.738  1.6260 -0.1792  0.1678
 5167SOL    HW222360   3.794   5.557   2.624  2.2374  0.8305 -0.8755
 5168SOL     OW22361   2.156   6.945  11.986 -1.2388 -0.2638 -0.1820
 5168SOL    HW122362   2.115   6.963  11.901 -1.2237 -0.8420 -0.3133
 5168SOL    HW222363   2.168   6.850  11.987 -2.1136 -0.3757  0.8706
 5169SOL     OW22364   4.651  11.732   4.343  0.2116 -0.0190 -1.0161
 5169SOL    HW122365   4.697  11.648   4.355  0.1501  0.0939  0.1341
 5169SOL    HW222366   4.585  11.714   4.276 -0.0679 -1.0096 -0.4940
 5170SOL     OW22367  10.240   8.939   3.321  0.7928  0.0634  0.1394
 5170SOL    HW122368  10.251   9.027   3.286 -0.2404 -1.1723 -3.9021
 5170SOL    HW222369  10.319   8.892   3.291 -0.0708 -1.0393 -0.4864
 5171SOL     OW22370   0.976  12.334   2.197 -0.6255 -0.4037  0.6997
 5171SOL    HW122371   0.989  12.251   2.244 -0.0074 -0.6041  0.1950
 5171SOL    HW222372   0.971  12.400   2.266 -2.6278 -1.0207  1.1899
 5172SOL     OW22373   5.338   2.255   8.254  0.1558  0.3093 -0.1877
 5172SOL    HW122374   5.352   2.235   8.346 -0.7155 -1.2154 -0.3631
 5172SOL    HW222375   5.419   2.299   8.226  0.4774  0.6609  1.2419
 5173SOL     OW22376   5.080   9.824   2.572 -0.2691 -0.2927  0.0917
 5173SOL    HW122377   5.174   9.833   2.554 -0.1652 -0.0250  0.7500
 5173SOL    HW222378   5.073   9.833   2.667 -1.0196  0.2194 -0.0014
 5174SOL     OW22379   6.220   1.375  11.941  0.6201  0.2802  0.1089
 5174SOL    HW122380   6.255   1.337  12.022  0.1321  0.6994  0.5188
 5174SOL    HW222381   6.125   1.378  11.955  0.6931  2.5965  0.5164
 5175SOL     OW22382   4.274   5.579   3.596 -0.1161  0.1373 -0.5773
 5175SOL    HW122383   4.209   5.623   3.651  0.7105  0.3956  0.2276
 5175SOL    HW222384   4.301   5.645   3.532  0.2855  0.4562 -0.0916
 5176SOL     OW22385  12.324   5.510   4.934  0.2209  0.3342 -1.0722
 5176SOL    HW122386  12.274   5.456   4.996 -0.0729 -0.2064 -1.7667
 5176SOL    HW222387  12.401   5.537   4.983  1.6031 -2.6710 -1.3609
 5177SOL     OW22388   4.822   0.314   3.664  0.3329  0.1815  0.2227
 5177SOL    HW122389   4.871   0.257   3.723 -0.3375  0.1880  0.8021
 5177SOL    HW222390   4.734   0.277   3.663 -0.1204  1.2107  0.6420
 5178SOL     OW22391  10.499   3.443   6.753 -0.5497  0.2931 -0.8196
 5178SOL    HW122392  10.496   3.348   6.743 -1.2909  0.3871 -1.5868
 5178SOL    HW222393  10.498   3.456   6.848 -1.0305 -0.4569 -0.7073
 5179SOL     OW22394   9.119   5.014   0.061 -0.6620 -0.8209  0.2861
 5179SOL    HW122395   9.092   5.105   0.059  0.7131 -0.3350  1.4922
 5179SOL    HW222396   9.112   4.984  -0.029  1.0196  1.1576 -0.5728
 5180SOL     OW22397   0.349   7.901   7.370  0.0489 -0.3101  0.3386
 5180SOL    HW122398   0.366   7.823   7.422  0.5094 -1.1145 -0.9613
 5180SOL    HW222399   0.283   7.873   7.306  0.3370  0.3169 -0.2449
 5181SOL     OW22400   2.306   4.899   5.136 -0.1364 -0.1289  0.3538
 5181SOL    HW122401   2.287   4.851   5.216  0.3658 -0.0888  0.5042
 5181SOL    HW222402   2.235   4.876   5.076 -0.5832 -0.0571  0.8538
 5182SOL     OW22403   5.223   7.228   6.001  0.0877  0.1998 -0.1409
 5182SOL    HW122404   5.258   7.267   6.081  2.1481  3.3471 -2.3530
 5182SOL    HW222405   5.300   7.187   5.959 -0.4166  0.6976 -1.6059
 5183SOL     OW22406   6.283   0.176   1.330  0.3109  0.1910  0.3625
 5183SOL    HW122407   6.276   0.196   1.237 -2.3805  2.0227  0.8567
 5183SOL    HW222408   6.193   0.156   1.357  1.2309 -1.7646  2.3251
 5184SOL     OW22409   0.966  12.011   1.891  0.0253 -0.4489 -0.4464
 5184SOL    HW122410   0.927  11.935   1.934 -0.0197  0.6686  1.5850
 5184SOL    HW222411   0.897  12.043   1.833 -1.1841 -0.0531  1.1468
 5185SOL     OW22412   2.708   8.843   0.627 -0.5230  0.7736  0.4033
 5185SOL    HW122413   2.717   8.896   0.547 -0.6485 -1.1266 -0.9415
 5185SOL    HW222414   2.645   8.775   0.603 -1.4158  0.7822  2.5078
 5186SOL     OW22415   1.009   8.896   8.917 -0.5728  0.5523  0.2304
 5186SOL    HW122416   0.996   8.983   8.881  0.4815 -0.7549 -3.9043
 5186SOL    HW222417   0.921   8.862   8.931 -1.0822  1.1718 -1.3201
 5187SOL     OW22418   0.688  10.164   4.685  0.3769  0.1614  0.3681
 5187SOL    HW122419   0.664  10.203   4.769 -1.1203  1.9130 -0.8044
 5187SOL    HW222420   0.612  10.178   4.629  0.5807 -2.6344 -0.7888
 5188SOL     OW22421   6.492   4.876   7.264  0.1579 -0.0815 -0.1904
 5188SOL    HW122422   6.413   4.853   7.312 -1.0910  2.2113 -0.9825
 5188SOL    HW222423   6.564   4.858   7.325 -1.0772 -0.8811  1.0685
 5189SOL     OW22424   9.897   7.976   8.777 -0.1355  0.0245  0.3570
 5189SOL    HW122425   9.896   7.882   8.794 -0.5894 -0.1788 -0.6905
 5189SOL    HW222426   9.892   7.983   8.681  2.1567  1.0749  0.2388
 5190SOL     OW22427   2.908   2.800   3.233 -0.2209  0.0564 -0.3201
 5190SOL    HW122428   2.923   2.807   3.138  1.9276 -0.8704 -0.1194
 5190SOL    HW222429   2.831   2.745   3.241 -0.6229  0.4133 -1.5360
 5191SOL     OW22430   7.713   7.079   8.036  0.2158 -0.5421 -0.2514
 5191SOL    HW122431   7.782   7.013   8.038  0.0196 -0.7922 -1.2380
 5191SOL    HW222432   7.698   7.096   7.943  1.6086  2.3334 -0.0809
 5192SOL     OW22433  10.463   0.627   7.954  0.0529 -0.3337  0.4356
 5192SOL    HW122434  10.462   0.537   7.988 -0.6689 -0.3044  0.5161
 5192SOL    HW222435  10.499   0.619   7.866  1.8960 -0.4176  1.1483
 5193SOL     OW22436  10.368   1.223  12.577 -0.3536  0.1094  0.7039
 5193SOL    HW122437  10.318   1.286  12.526 -0.5268 -0.2514  0.4188
 5193SOL    HW222438  10.440   1.273  12.614  0.2699  0.2179 -0.5838
 5194SOL     OW22439   1.567   1.418   2.934  0.0680  0.4983  0.0239
 5194SOL    HW122440   1.588   1.495   2.986  1.2644  0.8887 -1.0157
 5194SOL    HW222441   1.475   1.430   2.910  0.7306  2.6056 -1.7610
 5195SOL     OW22442  10.830  10.774   0.421 -0.6607  0.1662 -0.3062
 5195SOL    HW122443  10.925  10.777   0.412 -0.1901  1.8559  3.3688
 5195SOL    HW222444  10.804  10.866   0.428 -2.5161 -0.2916 -0.5357
 5196SOL     OW22445  12.328   1.431   7.646  0.5738 -0.0781  0.3847
 5196SOL    HW122446  12.339   1.446   7.553  0.0162 -0.8289  0.1868
 5196SOL    HW222447  12.416   1.408   7.678  0.5882 -0.7946 -0.1496
 5197SOL     OW22448   0.569   2.059   7.409 -0.5288  0.0643  0.1349
 5197SOL    HW122449   0.651   2.082   7.452  0.5039  0.9136 -2.1238
 5197SOL    HW222450   0.577   1.965   7.392 -0.9555 -0.2819  1.7211
 5198SOL     OW22451   2.736   3.343  12.108 -0.0626  0.0209  0.5089
 5198SOL    HW122452   2.808   3.407  12.109  0.1561 -0.2182  1.2550
 5198SOL    HW222453   2.743   3.300  12.193 -0.9200 -0.2055  0.4649
 5199SOL     OW22454  10.467  11.000   0.814  0.4659 -0.1381 -0.6056
 5199SOL    HW122455  10.420  11.008   0.730 -0.6406  0.9369  0.0727
 5199SOL    HW222456  10.501  11.088   0.830  0.2034 -0.1956  0.3167
 5200SOL     OW22457   0.443  10.696   9.887 -0.0205 -0.0493 -0.4546
 5200SOL    HW122458   0.468  10.609   9.857 -0.2656 -1.3587  2.7102
 5200SOL    HW222459   0.354  10.685   9.921  0.1669  1.2607  0.5613
 5201SOL     OW22460   3.370   1.738  11.862 -0.3935  0.1088 -0.1282
 5201SOL    HW122461   3.430   1.695  11.923 -1.2317  0.5702  1.0596
 5201SOL    HW222462   3.300   1.675  11.848 -0.9729  0.5690  0.6076
 5202SOL     OW22463  12.194   9.423   9.345 -0.3020 -0.5673  0.7102
 5202SOL    HW122464  12.196   9.493   9.281  1.6674  1.3905  2.7167
 5202SOL    HW222465  12.106   9.386   9.339 -1.1135  1.4999 -1.0284
 5203SOL     OW22466   3.530   8.431   2.214  0.1805  0.2570 -0.3721
 5203SOL    HW122467   3.541   8.366   2.283  0.2043  0.4654 -0.1761
 5203SOL    HW222468   3.532   8.515   2.260 -1.0990  0.3564 -0.4571
 5204SOL     OW22469   8.574   0.383   3.021 -0.1309 -0.1321  0.2797
 5204SOL    HW122470   8.656   0.337   3.007  0.1819  0.3850  0.4097
 5204SOL    HW222471   8.553   0.368   3.113 -0.9960 -1.5774 -0.1182
 5205SOL     OW22472   2.102   3.003   2.765  0.5729 -0.1616  0.0406
 5205SOL    HW122473   2.105   2.909   2.748  0.0281 -0.3150  0.7538
 5205SOL    HW222474   2.180   3.020   2.818  0.7227 -0.1932 -0.1682
 5206SOL     OW22475   9.167   1.205   4.077 -0.1739 -0.3858 -0.1562
 5206SOL    HW122476   9.258   1.206   4.105 -0.5356  1.6165  1.1667
 5206SOL    HW222477   9.144   1.112   4.073  2.0546 -0.9674 -1.1588
 5207SOL     OW22478   2.837   8.853  10.546 -0.5068  0.2540  0.2393
 5207SOL    HW122479   2.886   8.776  10.576  1.9349  2.1355  1.5485
 5207SOL    HW222480   2.747   8.837  10.573  0.0256 -1.9216  0.8820
 5208SOL     OW22481   3.527   7.403   6.070  0.2261  0.2600  0.2998
 5208SOL    HW122482   3.510   7.489   6.108 -1.4618  0.0068  0.1791
 5208SOL    HW222483   3.453   7.387   6.011  0.5832 -1.2073  0.2005
 5209SOL     OW22484   9.657   6.288   7.402 -0.5705 -0.2466 -0.3059
 5209SOL    HW122485   9.626   6.203   7.434  0.0061 -0.8003 -1.2071
 5209SOL    HW222486   9.750   6.276   7.384 -0.7827  0.1559 -1.8095
 5210SOL     OW22487   4.133   6.005   6.132  0.2233  0.1671 -0.4481
 5210SOL    HW122488   4.109   5.934   6.192  0.8754  1.3371  1.2507
 5210SOL    HW222489   4.227   5.994   6.119  0.1289  0.0678 -1.0988
 5211SOL     OW22490   3.776   9.215   2.977 -0.2181  0.1936  0.3429
 5211SOL    HW122491   3.843   9.250   2.918 -1.5769  2.0785 -0.1816
 5211SOL    HW222492   3.752   9.132   2.937  0.2403  0.5376 -0.7190
 5212SOL     OW22493   3.479   7.249   3.878  0.0252 -0.2216  0.0699
 5212SOL    HW122494   3.450   7.235   3.968  2.1103 -0.6071  0.7333
 5212SOL    HW222495   3.481   7.161   3.840  0.6907 -0.2514  0.1663
 5213SOL     OW22496   9.278  10.698   6.693 -0.0244  0.0351 -0.2530
 5213SOL    HW122497   9.307  10.608   6.703 -0.8232 -0.1878  0.1911
 5213SOL    HW222498   9.310  10.743   6.772 -0.9900 -0.2558  0.3336
 5214SOL     OW22499   8.434   3.691  10.169 -0.0733  0.1373 -0.1151
 5214SOL    HW122500   8.423   3.599  10.144 -0.5817 -0.3464  1.7582
 5214SOL    HW222501   8.515   3.692  10.221 -0.5154  0.5892  0.5769
 5215SOL     OW22502   9.734   3.880   7.440  0.5218 -0.0669 -0.1377
 5215SOL    HW122503   9.735   3.827   7.360 -0.5466  0.3473 -0.4413
 5215SOL    HW222504   9.657   3.850   7.488 -0.1861  1.2985 -0.3776
 5216SOL     OW22505   3.944   9.906  12.061  0.1138  0.5530  0.5295
 5216SOL    HW122506   4.022   9.864  12.098 -0.7652 -2.1880 -0.4592
 5216SOL    HW222507   3.944   9.881  11.969  0.0042  3.6873 -0.4290
 5217SOL     OW22508   6.258   2.377   8.662  0.7169 -0.3483  0.1952
 5217SOL    HW122509   6.314   2.313   8.705  0.3762  0.0092  1.2134
 5217SOL    HW222510   6.308   2.459   8.665 -0.1791  0.1954  1.9564
 5218SOL     OW22511   3.638   1.514   8.230  0.2111 -0.4309  0.0463
 5218SOL    HW122512   3.557   1.565   8.238  1.6529  2.2831 -1.1457
 5218SOL    HW222513   3.658   1.487   8.319 -0.5345  1.3680  0.8169
 5219SOL     OW22514   2.736   6.478   6.528  0.5292 -0.2971  0.1386
 5219SOL    HW122515   2.778   6.402   6.487  2.0673  0.7339 -0.2705
 5219SOL    HW222516   2.794   6.551   6.508  0.1908  0.6253  2.3425
 5220SOL     OW22517   2.165  11.154   3.238 -0.3944 -0.2738 -0.1802
 5220SOL    HW122518   2.200  11.110   3.315 -0.6682  0.1938  0.2209
 5220SOL    HW222519   2.240  11.166   3.180  0.2115  1.0528  0.8182
 5221SOL     OW22520   7.402   2.639   0.213 -0.2356  0.0361 -0.1469
 5221SOL    HW122521   7.455   2.575   0.165 -0.3834  0.1676 -0.4876
 5221SOL    HW222522   7.460   2.714   0.225 -0.0202 -0.2092  0.3677
 5222SOL     OW22523   6.477   8.645  10.929  0.4171  0.7224 -0.1085
 5222SOL    HW122524   6.544   8.626  10.994  0.1510 -1.1724 -0.3007
 5222SOL    HW222525   6.395   8.644  10.978  0.1973 -0.8932 -0.4434
 5223SOL     OW22526   0.874   8.481   0.248  0.3249 -0.3022 -0.1061
 5223SOL    HW122527   0.785   8.509   0.266  1.4283  2.3020  2.0720
 5223SOL    HW222528   0.865   8.399   0.199 -3.1940  0.5583 -1.1195
 5224SOL     OW22529   7.608   0.162  11.702 -0.2754  0.0588  0.6611
 5224SOL    HW122530   7.661   0.108  11.761  0.5713 -0.0250 -0.1605
 5224SOL    HW222531   7.518   0.134  11.719  0.1778 -2.4194 -0.4601
 5225SOL     OW22532   2.923   0.450   6.179 -0.3087 -0.0046 -0.5070
 5225SOL    HW122533   2.884   0.371   6.215 -1.3402  0.3074 -0.9046
 5225SOL    HW222534   2.962   0.422   6.096  0.8220 -0.4300  0.1530
 5226SOL     OW22535   3.616   3.632  11.253 -0.4400  0.0964  0.2606
 5226SOL    HW122536   3.521   3.617  11.248 -1.0451  3.1213  0.7919
 5226SOL    HW222537   3.637   3.622  11.346 -0.5916  1.0619  0.4074
 5227SOL     OW22538   9.869   2.730   2.301  0.1412 -0.3881  0.1183
 5227SOL    HW122539   9.804   2.737   2.231  1.5284 -1.3640 -1.3451
 5227SOL    HW222540   9.831   2.779   2.374 -0.9977  1.4163 -1.5909
 5228SOL     OW22541   3.897   4.885  11.663  0.4441 -0.1314  0.6478
 5228SOL    HW122542   3.839   4.949  11.622  1.8469 -0.4117 -1.9537
 5228SOL    HW222543   3.967   4.938  11.701  0.0016  0.0311  1.2567
 5229SOL     OW22544   9.410   8.982  11.649 -0.1476  0.2280 -0.2278
 5229SOL    HW122545   9.345   8.933  11.698  0.4393  0.3451  0.6851
 5229SOL    HW222546   9.360   9.051  11.605 -0.5244  0.9779  1.3057
 5230SOL     OW22547   0.318   1.084  12.519 -0.2480 -0.5954 -0.4797
 5230SOL    HW122548   0.307   1.101  12.613 -0.6840 -1.3685 -0.3808
 5230SOL    HW222549   0.407   1.113  12.499  0.3029 -1.5760  0.4411
 5231SOL     OW22550  12.317  12.043   2.679 -0.4738  0.3602  0.0370
 5231SOL    HW122551  12.388  12.095   2.717 -0.5671  0.6832 -0.2268
 5231SOL    HW222552  12.239  12.098   2.690 -0.3240  0.9635 -1.6303
 5232SOL     OW22553   5.296   3.386   7.491 -0.1723  0.0484 -0.3144
 5232SOL    HW122554   5.318   3.369   7.400  0.8660 -1.1797  0.1457
 5232SOL    HW222555   5.355   3.331   7.542  0.2428  1.7342  1.1594
 5233SOL     OW22556  11.945  12.477   8.937 -0.2379  0.5838 -0.5784
 5233SOL    HW122557  11.918  12.385   8.945 -2.2523  1.0759 -1.0802
 5233SOL    HW222558  11.961  12.506   9.027  1.6048 -0.5398 -0.4899
 5234SOL     OW22559   2.431   4.684  11.266  0.3861  0.4128  0.3480
 5234SOL    HW122560   2.381   4.630  11.205  0.9124 -0.3309  0.5671
 5234SOL    HW222561   2.375   4.692  11.343 -0.2468  1.2887 -0.1883
 5235SOL     OW22562   5.985   6.178  11.087  0.8330 -0.0481 -0.0777
 5235SOL    HW122563   5.889   6.175  11.087  0.7612  1.3688  0.6082
 5235SOL    HW222564   6.006   6.262  11.046  1.8018 -0.5046 -0.5423
 5236SOL     OW22565   3.575   2.391   1.022 -0.3055 -0.2934 -0.9647
 5236SOL    HW122566   3.620   2.460   1.072 -0.7579 -0.0432 -0.9001
 5236SOL    HW222567   3.638   2.319   1.019  0.0737  0.0270 -0.8101
 5237SOL     OW22568   6.198   5.489   5.403 -0.2856  0.3481  0.3917
 5237SOL    HW122569   6.215   5.410   5.352  0.6859 -0.9029  2.5160
 5237SOL    HW222570   6.104   5.503   5.396 -0.6748 -1.7109  0.9063
 5238SOL     OW22571   8.606   3.709   8.543  0.4134 -0.0045  0.3630
 5238SOL    HW122572   8.677   3.770   8.524  0.2985 -0.4752 -1.9393
 5238SOL    HW222573   8.527   3.759   8.525  0.3293 -1.0172 -2.7238
 5239SOL     OW22574   2.368   0.642   2.047  0.5445  0.3340 -0.1015
 5239SOL    HW122575   2.303   0.701   2.009 -0.4398  0.2123  1.3072
 5239SOL    HW222576   2.390   0.681   2.131  0.8900 -0.6183  0.2611
 5240SOL     OW22577   9.182   9.846   0.294  0.3385  0.4306 -1.0872
 5240SOL    HW122578   9.209   9.772   0.239 -1.2417  0.9387 -2.6369
 5240SOL    HW222579   9.181   9.920   0.234  1.9276  1.7765  0.4487
 5241SOL     OW22580  10.303   9.258   9.648 -0.6897 -0.5865  0.1619
 5241SOL    HW122581  10.214   9.223   9.644 -1.2032  0.7142 -0.4409
 5241SOL    HW222582  10.329   9.266   9.556  0.2194 -1.3459  0.3446
 5242SOL     OW22583   1.051   3.226   5.037  0.4032 -0.2959 -0.3188
 5242SOL    HW122584   1.044   3.260   5.126  1.7155 -1.4166  0.2705
 5242SOL    HW222585   0.973   3.172   5.025  0.2176 -0.1341  0.1478
 5243SOL     OW22586  10.074   3.122   6.382  0.3876  0.1604  0.2784
 5243SOL    HW122587  10.100   3.214   6.376  1.7355 -0.3185 -2.1313
 5243SOL    HW222588   9.978   3.125   6.374  0.5143  1.2892 -1.4514
 5244SOL     OW22589   7.169  12.313   4.957 -0.3771 -0.1979 -0.0962
 5244SOL    HW122590   7.177  12.400   4.997  1.0350  0.0871 -0.9396
 5244SOL    HW222591   7.094  12.273   5.002 -0.1035  0.8656  1.3905
 5245SOL     OW22592   7.624  11.004   9.652  0.5568  0.1382 -0.1577
 5245SOL    HW122593   7.671  11.058   9.715  2.0448  0.5702 -1.5718
 5245SOL    HW222594   7.679  10.926   9.640 -0.3439 -0.5454  0.0167
 5246SOL     OW22595   6.513   8.542   7.688  0.3240  0.2970  0.0015
 5246SOL    HW122596   6.430   8.506   7.657  0.8438 -0.1405 -0.9054
 5246SOL    HW222597   6.504   8.636   7.676  0.0893  0.2226 -0.4436
 5247SOL     OW22598   0.834   3.896   5.748  0.5921 -0.3537 -0.1856
 5247SOL    HW122599   0.884   3.977   5.744 -1.0992  0.9035  1.8970
 5247SOL    HW222600   0.743   3.922   5.733  0.0838 -1.9548 -0.1254
 5248SOL     OW22601   5.475   7.116   0.254 -0.2551 -0.1712  0.5269
 5248SOL    HW122602   5.564   7.102   0.288 -0.3913  0.1144  1.0014
 5248SOL    HW222603   5.481   7.198   0.206  0.5199 -1.6601 -2.1743
 5249SOL     OW22604   7.980  10.397   1.513 -0.1038 -0.2185 -0.4442
 5249SOL    HW122605   7.985  10.323   1.575 -1.8173 -1.1927 -1.4144
 5249SOL    HW222606   8.024  10.364   1.434  1.2765  0.7071 -0.1070
 5250SOL     OW22607  12.322   3.590   1.905 -0.8090 -0.0646  0.2666
 5250SOL    HW122608  12.381   3.663   1.886 -2.8271  1.3121 -1.1200
 5250SOL    HW222609  12.236   3.630   1.912 -1.7465 -2.1140  1.3000
 5251SOL     OW22610   7.688   9.086   8.399  0.0449 -0.4632 -0.0684
 5251SOL    HW122611   7.726   8.999   8.383  0.8528  0.1569 -1.8743
 5251SOL    HW222612   7.605   9.084   8.352  0.7496  0.1933 -1.3917
 5252SOL     OW22613  11.803   6.942   9.159  0.0017 -0.1945  0.2741
 5252SOL    HW122614  11.772   6.930   9.069 -0.1784 -0.5163  0.3771
 5252SOL    HW222615  11.726   6.976   9.206  0.1467  0.1466  0.2678
 5253SOL     OW22616   4.453   2.834   5.854  0.1606  0.3838  0.3383
 5253SOL    HW122617   4.477   2.910   5.907  1.1670 -1.4050  2.6243
 5253SOL    HW222618   4.463   2.759   5.913  0.5874 -1.6998 -2.1787
 5254SOL     OW22619   1.393   3.468   9.594  0.2023  0.1784 -0.3349
 5254SOL    HW122620   1.390   3.542   9.534 -2.8772  0.4285 -0.0367
 5254SOL    HW222621   1.405   3.508   9.680 -0.1120  0.2256 -0.3120
 5255SOL     OW22622   0.788   2.842   4.774 -0.1497  0.2033 -0.0912
 5255SOL    HW122623   0.826   2.810   4.692  0.0135  0.2157 -0.0199
 5255SOL    HW222624   0.716   2.782   4.791  0.9197 -0.9073  0.6960
 5256SOL     OW22625   2.823  10.314   8.925 -0.2892  0.4837 -0.1713
 5256SOL    HW122626   2.896  10.308   8.987 -1.9800  1.3152  2.0409
 5256SOL    HW222627   2.786  10.226   8.923 -1.1490  0.7880  1.2549
 5257SOL     OW22628   4.132   3.473  11.364 -0.2062  0.1574 -0.7553
 5257SOL    HW122629   4.224   3.473  11.392 -0.6583  0.6985  0.8569
 5257SOL    HW222630   4.115   3.382  11.338  0.7333  0.0146 -0.9100
 5258SOL     OW22631   1.963   6.347   1.147 -0.2066  0.5980 -0.3587
 5258SOL    HW122632   1.956   6.440   1.127 -1.3121  0.2830 -1.5640
 5258SOL    HW222633   1.941   6.303   1.065 -0.6780 -0.7343  0.4424
 5259SOL     OW22634   5.876   1.206   2.843  0.5303  0.0628 -0.0610
 5259SOL    HW122635   5.961   1.183   2.881  1.6243 -0.1523 -2.4801
 5259SOL    HW222636   5.843   1.123   2.808 -1.1461 -0.0374  1.5895
 5260SOL     OW22637   9.855   4.484  10.168 -0.0806  0.1124 -0.6391
 5260SOL    HW122638   9.881   4.432  10.243 -1.7946  0.4772  0.2595
 5260SOL    HW222639   9.866   4.575  10.196 -1.4752  0.2668 -0.4882
 5261SOL     OW22640   7.212   2.361   2.999  0.5354  0.3691  0.2452
 5261SOL    HW122641   7.298   2.392   3.029 -0.0807  0.6787  1.7941
 5261SOL    HW222642   7.176   2.314   3.074  0.1968 -1.5928 -1.0703
 5262SOL     OW22643   0.021  10.386  10.891 -0.1424 -0.6616 -0.2906
 5262SOL    HW122644   0.101  10.333  10.890 -0.5638 -1.3102 -0.7026
 5262SOL    HW222645  -0.037  10.341  10.830 -1.4439 -1.1634  1.2684
 5263SOL     OW22646  12.441   7.291   8.435  0.2749 -0.2806  0.4714
 5263SOL    HW122647  12.533   7.313   8.449  0.5126 -1.3731  0.7447
 5263SOL    HW222648  12.398   7.313   8.518  0.4516 -0.5641  0.6398
 5264SOL     OW22649   6.007   7.396   2.771 -0.0093 -0.2705  0.3623
 5264SOL    HW122650   6.047   7.453   2.705 -1.6167  0.0574 -0.3642
 5264SOL    HW222651   6.022   7.307   2.737 -1.7675 -0.0751 -1.0680
 5265SOL     OW22652  10.735   1.250   3.786  0.3446  0.0692  0.2359
 5265SOL    HW122653  10.663   1.281   3.841  0.3856 -2.3298  1.8358
 5265SOL    HW222654  10.694   1.189   3.724  0.5894  1.2037 -1.0874
 5266SOL     OW22655  12.504   8.862  10.182 -0.5370  0.7013  0.5313
 5266SOL    HW122656  12.459   8.928  10.129 -2.3494 -0.4617  0.5204
 5266SOL    HW222657  12.526   8.792  10.121  1.1027  1.1211  0.5964
 5267SOL     OW22658   2.030   0.167   2.123 -0.0828  0.4163  0.3705
 5267SOL    HW122659   2.089   0.092   2.128 -0.2942  0.2466  0.3038
 5267SOL    HW222660   2.047   0.206   2.037 -1.3167 -0.6662 -0.4050
 5268SOL     OW22661   8.719   2.681   4.853 -0.8313  0.3130 -0.1375
 5268SOL    HW122662   8.734   2.741   4.779 -1.0780  0.1788 -0.2976
 5268SOL    HW222663   8.701   2.596   4.812 -1.2564  0.3011  0.0641
 5269SOL     OW22664   9.182   0.177   5.830  0.1774  0.1608 -0.0981
 5269SOL    HW122665   9.232   0.143   5.905  1.3172 -0.3575 -1.0462
 5269SOL    HW222666   9.096   0.135   5.837  0.9713 -1.5953 -0.2385
 5270SOL     OW22667   3.238  11.060   5.872 -0.3121 -0.4919  0.2633
 5270SOL    HW122668   3.187  11.012   5.937  0.3650 -0.2424  1.0081
 5270SOL    HW222669   3.200  11.036   5.788 -0.9107 -1.1917  0.7233
 5271SOL     OW22670   7.985   7.925   0.793 -0.5995 -0.2032 -0.4285
 5271SOL    HW122671   7.923   7.914   0.865  1.0431  1.5712  1.3777
 5271SOL    HW222672   8.013   7.836   0.771 -1.1322 -0.7913  1.1534
 5272SOL     OW22673   6.157   7.528   2.583  0.2701 -0.1845  0.1373
 5272SOL    HW122674   6.246   7.494   2.575  0.7338  0.3119  2.4641
 5272SOL    HW222675   6.151   7.595   2.515  1.2208 -1.0455 -0.8418
 5273SOL     OW22676   7.002   6.691  12.510  0.3385 -0.3838  0.1720
 5273SOL    HW122677   7.054   6.768  12.532  2.1501 -1.0660 -1.4798
 5273SOL    HW222678   7.004   6.687  12.414  0.1246 -2.3580  0.2133
 5274SOL     OW22679   5.260   4.555   3.498  0.1801 -0.1588  0.2929
 5274SOL    HW122680   5.241   4.571   3.406 -1.8203  1.3963  0.9140
 5274SOL    HW222681   5.308   4.633   3.527 -0.3635 -0.0370  0.8778
 5275SOL     OW22682   9.896   3.552  11.501 -0.4554 -0.1107  0.1927
 5275SOL    HW122683   9.890   3.537  11.406  0.1157  1.0436 -0.0353
 5275SOL    HW222684   9.804   3.551  11.530 -0.9964  3.0245 -0.9768
 5276SOL     OW22685  11.539   0.832   9.841  0.1011  0.7165  0.3006
 5276SOL    HW122686  11.557   0.738   9.847  1.1210  0.8107 -0.9637
 5276SOL    HW222687  11.458   0.844   9.891 -0.5373 -0.9867 -0.2464
 5277SOL     OW22688   7.016   5.837  12.240  0.7763 -0.8669  0.3364
 5277SOL    HW122689   7.011   5.925  12.276  3.4550 -1.0747  1.3859
 5277SOL    HW222690   7.072   5.845  12.163 -1.8523 -1.1128 -1.7401
 5278SOL     OW22691  10.044   9.991   9.142  0.6232  0.1510 -0.3159
 5278SOL    HW122692  10.123   9.939   9.156  1.1062  1.0939  0.5611
 5278SOL    HW222693  10.061  10.041   9.062  0.8710  0.2682 -0.1890
 5279SOL     OW22694  10.710   5.757  12.095 -0.4270  0.5458 -0.1685
 5279SOL    HW122695  10.726   5.714  12.011 -0.2781 -1.3238  0.7412
 5279SOL    HW222696  10.774   5.828  12.098  2.4970 -1.8632  0.0179
 5280SOL     OW22697   2.179   0.852   0.744  0.2562  0.3746  0.0789
 5280SOL    HW122698   2.180   0.762   0.778  0.1943 -0.2631 -1.5279
 5280SOL    HW222699   2.271   0.871   0.726  0.2242  0.4950  0.0424
 5281SOL     OW22700  11.000   5.202  10.754  0.4835  0.2727  0.4810
 5281SOL    HW122701  11.052   5.128  10.784  0.0174  0.5859  2.1778
 5281SOL    HW222702  11.061   5.255  10.703  1.0708 -0.7527  0.0817
 5282SOL     OW22703   6.688   2.113   9.468  0.4001  0.8391 -0.0022
 5282SOL    HW122704   6.622   2.180   9.486  0.7535  1.1874  0.0170
 5282SOL    HW222705   6.663   2.077   9.383  0.4784  1.3308 -0.2358
 5283SOL     OW22706   4.063  12.347   1.662  0.3694  0.7522  0.3197
 5283SOL    HW122707   3.983  12.305   1.695 -0.1101  0.2358 -1.4171
 5283SOL    HW222708   4.032  12.420   1.610  1.0442  0.7211 -0.1350
 5284SOL     OW22709   8.988   5.553  12.037 -0.4179 -0.1083 -0.2603
 5284SOL    HW122710   9.056   5.499  12.077 -0.4021 -1.2318 -1.7425
 5284SOL    HW222711   9.035   5.613  11.979 -0.5695  0.4514  0.1726
 5285SOL     OW22712   5.462   0.077   0.404 -0.2748 -0.0341 -0.1913
 5285SOL    HW122713   5.511   0.154   0.374 -1.5215  0.8787  0.0139
 5285SOL    HW222714   5.461   0.019   0.328 -2.4944  1.8035 -1.7001
 5286SOL     OW22715   9.693  12.408   2.474  0.2807  0.7170 -0.0940
 5286SOL    HW122716   9.615  12.434   2.426  0.8511  0.1591 -1.3840
 5286SOL    HW222717   9.739  12.348   2.414 -0.2124 -2.0469  2.0799
 5287SOL     OW22718   4.787   4.945   9.461 -0.2461 -0.0549 -0.3772
 5287SOL    HW122719   4.852   4.896   9.411 -0.5325 -1.2598  0.3888
 5287SOL    HW222720   4.708   4.891   9.457 -0.8380  0.7944 -0.2722
 5288SOL     OW22721   7.262  11.778   3.243  0.8375 -0.0134 -0.2072
 5288SOL    HW122722   7.217  11.862   3.242  1.6632  0.4542 -2.7181
 5288SOL    HW222723   7.213  11.726   3.308 -1.3182  1.5166 -0.4994
 5289SOL     OW22724   3.698   5.966   7.536  0.6130 -0.0022 -0.5906
 5289SOL    HW122725   3.780   5.997   7.574  0.2571  0.7492 -0.4244
 5289SOL    HW222726   3.725   5.918   7.458  1.2954 -0.9565  0.2146
 5290SOL     OW22727   6.468   9.604   8.955  0.3824  0.1811 -0.1550
 5290SOL    HW122728   6.477   9.693   8.921 -3.0751  0.5266 -0.5502
 5290SOL    HW222729   6.407   9.612   9.028  0.2259 -1.8402  0.0008
 5291SOL     OW22730   4.319   1.183   4.745 -0.5027  0.2313 -0.2390
 5291SOL    HW122731   4.259   1.254   4.768  0.7763  1.0090  0.8315
 5291SOL    HW222732   4.277   1.104   4.778  0.1020  1.0291  2.7194
 5292SOL     OW22733  12.223   6.972   8.915 -0.0848  0.2350 -0.5574
 5292SOL    HW122734  12.314   7.000   8.914 -0.1169  0.5127  1.2553
 5292SOL    HW222735  12.186   7.014   8.993 -1.0580 -1.9768  0.2514
 5293SOL     OW22736   3.556   6.782   9.517 -0.2382  0.3499  0.0832
 5293SOL    HW122737   3.513   6.802   9.600 -1.4995  1.6988 -0.8430
 5293SOL    HW222738   3.494   6.727   9.470 -0.2941  1.0269 -0.6551
 5294SOL     OW22739   6.335  11.088   3.172  0.1474  0.1690  0.1441
 5294SOL    HW122740   6.402  11.072   3.238 -0.7842  1.1878  1.3983
 5294SOL    HW222741   6.382  11.088   3.089  1.3556 -1.0921  0.7947
 5295SOL     OW22742   1.498   8.868   0.210  0.2972 -0.5246  0.2945
 5295SOL    HW122743   1.522   8.958   0.192  0.0140 -0.6247 -0.6360
 5295SOL    HW222744   1.498   8.862   0.305  0.8842  0.2955  0.3560
 5296SOL     OW22745   4.170   8.488  10.328 -0.6316 -0.4840 -0.2149
 5296SOL    HW122746   4.078   8.510  10.309  0.3584  1.5819 -3.5742
 5296SOL    HW222747   4.177   8.395  10.307 -1.6698 -0.2921 -1.6229
 5297SOL     OW22748   7.716  10.236   9.527  0.3264  0.2914 -0.1208
 5297SOL    HW122749   7.791  10.295   9.532  0.2233  0.5639 -1.3031
 5297SOL    HW222750   7.748  10.162   9.475 -0.0269  0.0973 -0.0632
 5298SOL     OW22751  10.060   2.941  10.793  0.2155 -0.1423 -0.3617
 5298SOL    HW122752  10.039   3.023  10.750 -0.0976  0.1498  0.3336
 5298SOL    HW222753  10.109   2.891  10.728 -0.8172  0.0141 -1.2841
 5299SOL     OW22754   0.246   6.214   2.784 -0.5132 -0.2056 -0.4138
 5299SOL    HW122755   0.175   6.244   2.840 -0.8603 -0.7031 -0.5867
 5299SOL    HW222756   0.325   6.224   2.838 -0.8474 -0.7156  0.1790
 5300SOL     OW22757   1.676   8.183   2.798 -0.3179 -0.3848  0.1783
 5300SOL    HW122758   1.605   8.244   2.780  1.2355  0.8253 -2.4051
 5300SOL    HW222759   1.747   8.237   2.831  0.3506 -1.1501  0.0235
 5301SOL     OW22760   2.018   8.102   7.518  0.3123  0.3511  0.9684
 5301SOL    HW122761   2.094   8.143   7.559  0.4545  1.5106 -0.3737
 5301SOL    HW222762   1.968   8.066   7.591  1.4243  0.8093  1.9952
 5302SOL     OW22763   7.491   1.384   5.538  0.1853  0.1876  0.2249
 5302SOL    HW122764   7.534   1.298   5.539  1.0172  0.5657  2.2824
 5302SOL    HW222765   7.404   1.367   5.573 -0.2439 -0.0541 -0.9155
 5303SOL     OW22766   5.278   5.725  11.303 -0.1741 -0.2173  0.0492
 5303SOL    HW122767   5.346   5.788  11.326 -0.8285  0.3183  0.5509
 5303SOL    HW222768   5.248   5.753  11.216  0.4749 -0.6652 -0.3286
 5304SOL     OW22769   4.143  10.026   6.381 -0.0527 -0.1717 -0.6559
 5304SOL    HW122770   4.120  10.038   6.289 -2.0250 -1.0664 -0.3382
 5304SOL    HW222771   4.059  10.012   6.425  0.7541  1.0608  1.4332
 5305SOL     OW22772   6.525   4.311   6.001 -0.5314  0.4582 -0.3914
 5305SOL    HW122773   6.554   4.373   5.934  0.0826 -0.7157 -1.2512
 5305SOL    HW222774   6.603   4.259   6.021 -1.4211 -1.2208 -1.0463
 5306SOL     OW22775   9.368   3.074  10.879  0.0010  0.0386  0.4640
 5306SOL    HW122776   9.353   2.990  10.835 -0.0256  0.3941 -0.2292
 5306SOL    HW222777   9.281   3.103  10.906 -0.1872  0.5106 -0.5766
 5307SOL     OW22778   7.660   5.811   4.991 -0.5656 -0.5147 -0.5052
 5307SOL    HW122779   7.615   5.780   5.070 -1.6908  0.1836 -0.8397
 5307SOL    HW222780   7.640   5.746   4.924 -0.1980 -0.7419 -0.3972
 5308SOL     OW22781   8.852   7.725   1.886 -0.0388  0.0078 -0.1063
 5308SOL    HW122782   8.913   7.763   1.822 -1.0151 -0.0583 -1.1042
 5308SOL    HW222783   8.905   7.663   1.935  0.7452  0.0504 -0.8681
 5309SOL     OW22784   4.521   9.933   4.151  0.0763 -0.2144  0.3127
 5309SOL    HW122785   4.542   9.980   4.232  0.5405  0.3292 -0.1079
 5309SOL    HW222786   4.606   9.922   4.107 -0.1840 -0.3731 -0.1646
 5310SOL     OW22787   8.096   8.177   1.714  0.2452  0.8741  0.0578
 5310SOL    HW122788   8.044   8.249   1.679  0.5950  0.2829 -1.8024
 5310SOL    HW222789   8.032   8.112   1.742 -0.0510  1.2016  0.1509
 5311SOL     OW22790   4.989   8.068   9.276  0.0091  0.0115  0.0266
 5311SOL    HW122791   4.915   8.013   9.301 -0.5223  0.2767 -0.9096
 5311SOL    HW222792   4.986   8.141   9.338 -0.4254 -0.0557  0.0883
 5312SOL     OW22793  11.749   4.846   0.203 -0.5182  0.3034  0.1391
 5312SOL    HW122794  11.779   4.756   0.209  0.5284  0.5584 -1.0144
 5312SOL    HW222795  11.705   4.851   0.118 -1.0236  0.7591  0.4188
 5313SOL     OW22796   8.017   1.558   8.076 -0.0776  0.5148 -0.6397
 5313SOL    HW122797   7.949   1.586   8.014  1.4140  0.9301 -2.1502
 5313SOL    HW222798   8.054   1.479   8.036 -2.0695 -1.9762  1.9867
 5314SOL     OW22799   6.049  12.039   2.272  0.0554  0.2605  0.5716
 5314SOL    HW122800   6.084  12.120   2.233  1.1559 -0.5876 -0.2531
 5314SOL    HW222801   6.038  11.979   2.198  1.4108 -1.1087  1.4235
 5315SOL     OW22802  12.466   0.074  12.424  0.2393 -0.1738 -0.3939
 5315SOL    HW122803  12.473  -0.019  12.446  2.2364  0.4134  1.7963
 5315SOL    HW222804  12.377   0.098  12.450 -0.0912 -1.3002 -0.4079
 5316SOL     OW22805   5.975  11.453   7.247 -0.1404  0.1651 -0.0492
 5316SOL    HW122806   5.954  11.479   7.157  0.9153  1.7938  0.1200
 5316SOL    HW222807   5.911  11.499   7.301 -0.4372 -0.3858  0.0723
 5317SOL     OW22808   1.870  10.959   0.036 -0.3312 -0.6110  0.3494
 5317SOL    HW122809   1.869  10.891  -0.031 -0.3739 -1.8295  1.5560
 5317SOL    HW222810   1.789  11.009   0.021 -0.3916 -0.9319 -0.4223
 5318SOL     OW22811   0.765  11.803  10.095 -0.0220 -0.2148 -0.5837
 5318SOL    HW122812   0.728  11.809  10.007 -0.7602  2.1324 -0.1897
 5318SOL    HW222813   0.846  11.854  10.090 -0.7157  1.0168  0.3799
 5319SOL     OW22814   4.238  11.245   2.330  1.1095  0.0713  0.6967
 5319SOL    HW122815   4.276  11.333   2.324  1.0881  0.1537  1.6177
 5319SOL    HW222816   4.210  11.225   2.240  0.5903  1.2416  0.5726
 5320SOL     OW22817   8.312   4.175   7.270  0.8021 -0.1928 -0.6717
 5320SOL    HW122818   8.347   4.255   7.309 -1.9204  0.1480  1.4541
 5320SOL    HW222819   8.238   4.204   7.216 -0.5803 -1.2090  0.5725
 5321SOL     OW22820   0.414   1.319   6.943  0.0981  0.4810  0.2853
 5321SOL    HW122821   0.330   1.354   6.975  1.2392  2.0769  1.7587
 5321SOL    HW222822   0.437   1.376   6.869 -0.0406  0.1476 -0.0152
 5322SOL     OW22823   4.972   2.554   3.000  0.4028 -0.5154  0.6476
 5322SOL    HW122824   4.976   2.649   3.008 -0.5038 -0.4449  0.3501
 5322SOL    HW222825   4.988   2.521   3.088  0.5901 -0.0906  0.7745
 5323SOL     OW22826  10.449   7.346   4.846 -0.3289  0.7571 -0.5890
 5323SOL    HW122827  10.485   7.357   4.933  0.2912 -1.7120 -0.4611
 5323SOL    HW222828  10.378   7.410   4.841 -0.7551  0.5810  1.9481
 5324SOL     OW22829   3.381   7.548   0.593 -0.2206  0.2530  0.2861
 5324SOL    HW122830   3.349   7.581   0.510 -1.5762 -0.6992  0.4033
 5324SOL    HW222831   3.385   7.453   0.582 -0.2892  0.1200  1.2477
 5325SOL     OW22832  12.360   7.829   0.083 -0.3778 -0.1262 -0.5187
 5325SOL    HW122833  12.396   7.918   0.075 -1.6868  0.5210  0.3373
 5325SOL    HW222834  12.408   7.791   0.156  0.4458 -0.2603 -1.1247
 5326SOL     OW22835   4.522   0.387  11.991  0.3002  0.3896  0.5147
 5326SOL    HW122836   4.580   0.458  11.966  1.2758 -0.6317 -0.2310
 5326SOL    HW222837   4.580   0.312  12.007 -0.5388  0.1305  2.8592
 5327SOL     OW22838   9.773   1.177   7.260 -0.4790  0.3146  0.7670
 5327SOL    HW122839   9.685   1.210   7.243 -0.4774 -0.2868 -0.4623
 5327SOL    HW222840   9.830   1.253   7.245 -0.3535 -0.3780 -3.2477
 5328SOL     OW22841  12.396   8.730   7.550  0.0325 -0.2583 -0.1484
 5328SOL    HW122842  12.480   8.775   7.540 -0.3615  0.0317 -2.6036
 5328SOL    HW222843  12.348   8.783   7.614  1.4496 -0.0865  0.8234
 5329SOL     OW22844  11.158  11.511   2.563 -0.4544 -0.1487  0.2838
 5329SOL    HW122845  11.186  11.459   2.487 -2.4344  0.0828 -0.6711
 5329SOL    HW222846  11.239  11.550   2.596  0.7498 -1.8440 -0.4828
 5330SOL     OW22847   6.512   3.954   0.205  0.5408  0.3862 -0.1603
 5330SOL    HW122848   6.520   3.876   0.151 -0.9380  0.9534 -1.2559
 5330SOL    HW222849   6.420   3.979   0.198  0.2925  0.5662  2.5541
 5331SOL     OW22850   3.659   9.000   6.809 -0.2602  0.1360 -0.0353
 5331SOL    HW122851   3.605   8.936   6.854  1.8613 -0.8440  1.3189
 5331SOL    HW222852   3.693   8.953   6.732  1.3015 -0.4477  0.9617
 5332SOL     OW22853   2.331   1.790   9.040  1.0860  0.1702 -0.2716
 5332SOL    HW122854   2.358   1.707   9.080 -0.9376 -0.5813 -0.3706
 5332SOL    HW222855   2.388   1.800   8.964  2.3091 -0.3881  0.5374
 5333SOL     OW22856   0.621   1.633   3.197 -0.1389  0.5501  0.0244
 5333SOL    HW122857   0.535   1.667   3.169  0.5141  2.2778 -0.0100
 5333SOL    HW222858   0.613   1.538   3.188 -0.8348  0.7994 -3.6356
 5334SOL     OW22859   7.552   4.712   8.918 -0.0953 -0.3230 -0.0344
 5334SOL    HW122860   7.573   4.775   8.849 -0.0667  0.5255  0.7279
 5334SOL    HW222861   7.635   4.666   8.934  1.1325  2.4316  2.3729
 5335SOL     OW22862   2.882   8.270   7.551  0.2990 -0.0350 -0.3687
 5335SOL    HW122863   2.807   8.246   7.605  0.2631 -0.2679 -0.5174
 5335SOL    HW222864   2.857   8.352   7.510 -1.4180 -1.8358 -3.2724
 5336SOL     OW22865   7.370   0.426   9.724  0.6161 -0.3684  0.2860
 5336SOL    HW122866   7.343   0.517   9.710 -1.3828 -0.3549  3.2725
 5336SOL    HW222867   7.463   0.425   9.701  0.5548  2.2521 -0.4457
 5337SOL     OW22868   8.389   9.796   0.952  0.5599  0.5910  0.1453
 5337SOL    HW122869   8.393   9.807   0.857  0.4265 -0.8511 -0.0482
 5337SOL    HW222870   8.410   9.703   0.966 -1.8011  0.1693  1.3370
 5338SOL     OW22871   2.827   8.198   0.133  0.1465 -0.1587  0.3131
 5338SOL    HW122872   2.731   8.193   0.131  0.1738 -0.5488 -2.0305
 5338SOL    HW222873   2.847   8.232   0.220 -2.1787  1.3246  0.3501
 5339SOL     OW22874  10.715   2.819   0.300  0.2316 -0.2133 -0.5359
 5339SOL    HW122875  10.671   2.887   0.351  0.0678  1.6371 -2.9099
 5339SOL    HW222876  10.801   2.857   0.279  0.3731 -0.9796 -1.3981
 5340SOL     OW22877   8.720   7.685   2.374 -0.4165  0.4582  0.6367
 5340SOL    HW122878   8.805   7.641   2.380  0.0437  1.1207 -0.6088
 5340SOL    HW222879   8.657   7.621   2.406  0.4314 -0.4355  0.5607
 5341SOL     OW22880  10.827   8.117   8.006  0.1788 -0.1535 -0.6436
 5341SOL    HW122881  10.777   8.137   8.085  0.9679 -0.6275 -0.0065
 5341SOL    HW222882  10.897   8.058   8.036 -0.1304 -1.1985 -1.8739
 5342SOL     OW22883   0.156  10.042   3.612  0.4600 -0.2476 -0.1720
 5342SOL    HW122884   0.201  10.123   3.586  1.4424 -0.0561  1.9590
 5342SOL    HW222885   0.117  10.010   3.530  1.4882  1.4557 -1.4096
 5343SOL     OW22886   9.677   0.318  11.716 -0.2549 -0.1901  0.4479
 5343SOL    HW122887   9.732   0.396  11.714  0.4457 -0.6150  1.7969
 5343SOL    HW222888   9.735   0.247  11.689 -0.7833 -0.3130 -0.3900
 5344SOL     OW22889   3.547   5.151  11.078  0.0065  0.6205  0.4319
 5344SOL    HW122890   3.641   5.152  11.056  0.4337 -0.3647  1.9903
 5344SOL    HW222891   3.534   5.229  11.131 -0.4067  1.5343 -0.9759
 5345SOL     OW22892  11.222   8.211   8.566 -0.1206  0.4290  0.4710
 5345SOL    HW122893  11.302   8.204   8.515 -1.2123  0.2965 -1.3119
 5345SOL    HW222894  11.181   8.293   8.536 -0.4586  0.7278  1.6723
 5346SOL     OW22895   2.394   7.628  12.044 -0.7201 -0.6912 -0.3359
 5346SOL    HW122896   2.387   7.722  12.025  0.9620 -0.4883 -0.1379
 5346SOL    HW222897   2.429   7.625  12.133  1.0372 -1.4299 -1.0010
 5347SOL     OW22898  12.169   9.714   9.012  0.5725  0.0975  0.3140
 5347SOL    HW122899  12.189   9.792   8.961 -0.5003  0.2877  0.1526
 5347SOL    HW222900  12.097   9.740   9.070 -1.0266 -1.2052 -0.9670
 5348SOL     OW22901   0.589   7.891   7.285  0.2948  0.6021 -0.1507
 5348SOL    HW122902   0.499   7.899   7.316  0.1560 -1.3875  0.1084
 5348SOL    HW222903   0.639   7.864   7.362  0.7269 -0.1996 -0.6893
 5349SOL     OW22904   2.082   9.359   0.417  0.1076 -0.0866  0.4822
 5349SOL    HW122905   2.006   9.348   0.360 -0.7297  2.0678  1.0732
 5349SOL    HW222906   2.156   9.365   0.358 -0.6934  1.6695 -0.4068
 5350SOL     OW22907   3.487   9.980   1.982 -0.6180  0.4438  0.4873
 5350SOL    HW122908   3.565   9.938   2.017 -0.2253  1.0437  0.3584
 5350SOL    HW222909   3.468  10.051   2.044 -0.1567  1.2570 -0.2798
 5351SOL     OW22910   4.137  11.194   0.616  0.0159 -0.0697 -0.6798
 5351SOL    HW122911   4.116  11.124   0.553  0.4365  0.3704 -1.3170
 5351SOL    HW222912   4.231  11.185   0.631  0.2378  0.8813 -1.4194
 5352SOL     OW22913  10.793   2.656   1.469 -0.0947 -0.4838  0.2921
 5352SOL    HW122914  10.716   2.601   1.490  0.5655 -0.8412  1.9818
 5352SOL    HW222915  10.796   2.719   1.541 -0.0202  0.9087 -0.8986
 5353SOL     OW22916   3.949   2.779   5.392 -0.7673 -1.1995  0.2369
 5353SOL    HW122917   4.016   2.836   5.429 -1.3007 -0.8095  0.6105
 5353SOL    HW222918   3.950   2.799   5.299  0.3452 -1.9420  0.0627
 5354SOL     OW22919   5.713   5.032  12.551 -0.3689 -0.7022  0.3977
 5354SOL    HW122920   5.729   5.061  12.641  1.0810  0.9942 -0.3353
 5354SOL    HW222921   5.628   5.069  12.529  0.4661  1.2881  0.2337
 5355SOL     OW22922   5.274   8.247   9.803 -0.2209 -0.7827 -0.1970
 5355SOL    HW122923   5.348   8.188   9.786  1.3048  1.1852 -0.8140
 5355SOL    HW222924   5.307   8.334   9.778 -1.9231  0.5548  1.8805
 5356SOL     OW22925   7.891  11.743   0.508  0.5337 -0.3227  0.3686
 5356SOL    HW122926   7.805  11.779   0.531 -1.3460 -1.0246 -4.4241
 5356SOL    HW222927   7.903  11.670   0.568 -1.8827  0.1818  1.6240
 5357SOL     OW22928   3.340   9.751   6.763 -0.2662  0.0316 -0.1210
 5357SOL    HW122929   3.345   9.846   6.749  0.9813 -0.0194 -0.1643
 5357SOL    HW222930   3.247   9.733   6.777 -0.5780  1.1904 -0.6054
 5358SOL     OW22931   9.415   2.098   2.434 -0.2729  0.3890  0.8938
 5358SOL    HW122932   9.347   2.102   2.501 -0.9156  1.1067  0.2176
 5358SOL    HW222933   9.384   2.155   2.364  0.4267 -0.2692  0.0145
 5359SOL     OW22934   8.390  10.926   2.193  0.3385  0.0135 -0.3475
 5359SOL    HW122935   8.369  10.950   2.283  2.1564 -2.4310  0.8365
 5359SOL    HW222936   8.312  10.951   2.143 -0.4029  2.2127  1.7024
 5360SOL     OW22937   8.330   2.169  10.608  0.2883 -0.1015  0.6381
 5360SOL    HW122938   8.332   2.112  10.685  0.1852  0.0038  0.7199
 5360SOL    HW222939   8.279   2.121  10.544  1.4827 -0.7826  0.1629
 5361SOL     OW22940   2.369   9.286  10.795  0.1496 -0.5581 -0.4213
 5361SOL    HW122941   2.428   9.316  10.864  2.3580 -1.9227 -1.6030
 5361SOL    HW222942   2.399   9.331  10.716 -0.2806 -1.4346 -1.1004
 5362SOL     OW22943   5.365   3.841   2.888 -0.4034 -0.4122 -0.6985
 5362SOL    HW122944   5.394   3.756   2.856  0.1094 -0.5912  0.1913
 5362SOL    HW222945   5.352   3.827   2.982 -1.1946  0.2608 -0.7001
 5363SOL     OW22946   1.849   2.741   3.802 -0.0029  0.4919 -0.5363
 5363SOL    HW122947   1.943   2.751   3.788  0.0963 -0.2918 -0.4470
 5363SOL    HW222948   1.828   2.654   3.768 -0.4722  0.1687  0.5476
 5364SOL     OW22949   2.020   0.349   8.086 -0.0485 -0.5381 -0.1956
 5364SOL    HW122950   2.092   0.334   8.024 -0.8900  0.1075 -1.3689
 5364SOL    HW222951   1.978   0.429   8.055 -0.1308  0.1573  1.5927
 5365SOL     OW22952  11.061   3.090   4.600  0.1055  0.5053 -0.3919
 5365SOL    HW122953  11.008   3.147   4.656  0.5741  0.9690 -0.4168
 5365SOL    HW222954  11.139   3.070   4.651  0.0149  0.0040 -0.4426
 5366SOL     OW22955  10.015   1.792   6.843 -0.1156  0.2089 -0.0676
 5366SOL    HW122956  10.055   1.871   6.882  0.1879  0.2691 -0.4983
 5366SOL    HW222957   9.962   1.825   6.772  0.8836 -0.0552 -0.9625
 5367SOL     OW22958   1.918   9.785  12.376 -0.3601 -0.4345 -0.1218
 5367SOL    HW122959   1.957   9.735  12.448 -0.5566 -1.5953 -0.7974
 5367SOL    HW222960   1.823   9.779  12.392 -0.3528  1.1847  0.7310
 5368SOL     OW22961  10.780   7.036   7.583  0.3292  0.0140 -0.2393
 5368SOL    HW122962  10.778   6.943   7.563  2.3089 -0.3858  1.0901
 5368SOL    HW222963  10.769   7.079   7.498  0.3995 -1.4429 -1.0251
 5369SOL     OW22964   9.259  10.802   9.649  0.2043  0.0983  0.1500
 5369SOL    HW122965   9.230  10.879   9.699  0.2382 -0.5747  1.2528
 5369SOL    HW222966   9.302  10.746   9.714  0.0108 -0.9429 -0.5872
 5370SOL     OW22967   7.639   0.552  12.092  0.6299 -0.1048  0.1067
 5370SOL    HW122968   7.624   0.536  11.999 -0.0399  0.4830  0.1025
 5370SOL    HW222969   7.566   0.608  12.119 -0.1044 -1.6032  1.3782
 5371SOL     OW22970   2.204   1.146   9.132 -0.0796 -0.3640 -0.1634
 5371SOL    HW122971   2.183   1.152   9.039 -1.1691 -3.3838 -0.2085
 5371SOL    HW222972   2.299   1.136   9.135  0.3738  2.6675 -0.6495
 5372SOL     OW22973  11.346   4.396  12.238 -0.9098 -0.6493 -0.3429
 5372SOL    HW122974  11.380   4.486  12.239 -1.7961 -0.2843 -1.3021
 5372SOL    HW222975  11.254   4.405  12.263 -1.6273 -0.9663 -2.6500
 5373SOL     OW22976   4.405   0.833   2.542  0.2030  0.0924  0.5574
 5373SOL    HW122977   4.424   0.796   2.629  1.7014 -0.9454 -0.1582
 5373SOL    HW222978   4.410   0.928   2.555  1.8012 -0.0640  1.3559
 5374SOL     OW22979   4.421   3.069  10.821  0.1872 -0.2091 -0.3151
 5374SOL    HW122980   4.510   3.047  10.792  0.6305 -1.0622  1.5488
 5374SOL    HW222981   4.369   2.993  10.796  0.5008 -0.7936  0.7438
 5375SOL     OW22982   2.075   0.121  11.005 -0.0757  0.6947 -0.4850
 5375SOL    HW122983   2.053   0.046  11.060 -2.0975  0.2987 -1.7453
 5375SOL    HW222984   2.106   0.082  10.923  0.3955  1.2545 -0.5777
 5376SOL     OW22985   4.884   4.135   7.237 -0.5512  0.2964 -0.4336
 5376SOL    HW122986   4.917   4.221   7.266 -1.6920  0.4138  0.6122
 5376SOL    HW222987   4.808   4.119   7.294  1.6149 -3.0103  1.8407
 5377SOL     OW22988  10.350   3.109   4.312  0.5711 -0.4724  0.4569
 5377SOL    HW122989  10.360   3.204   4.303 -1.9940 -0.2162 -0.4961
 5377SOL    HW222990  10.361   3.075   4.223 -2.9339 -0.4779 -0.0901
 5378SOL     OW22991   3.168   0.912   6.837 -0.3799 -0.1754  0.0430
 5378SOL    HW122992   3.078   0.926   6.809  0.6829  1.4220 -3.0713
 5378SOL    HW222993   3.201   1.000   6.856  0.6285 -0.6878  0.7658
 5379SOL     OW22994  10.135  12.505   4.195 -0.4737 -0.2915  0.3001
 5379SOL    HW122995  10.100  12.512   4.106 -2.1269 -1.4248  0.8132
 5379SOL    HW222996  10.166  12.593   4.216  1.4986 -0.3449 -1.9548
 5380SOL     OW22997   7.909   0.572   9.256  0.0120 -0.6016 -0.3843
 5380SOL    HW122998   7.825   0.588   9.298  0.8226 -1.2559  1.5834
 5380SOL    HW222999   7.920   0.477   9.259  0.7065 -0.5436 -0.8508
 5381SOL     OW23000  12.493  11.559   1.747 -0.0860  0.6724  0.1131
 5381SOL    HW123001  12.474  11.617   1.820 -0.8946  0.0995  0.3689
 5381SOL    HW223002  12.588  11.551   1.747  0.1964  3.1041 -0.7957
 5382SOL     OW23003   2.591  10.091   2.521  0.1461 -0.5158 -0.1020
 5382SOL    HW123004   2.562  10.071   2.610 -0.0390  0.2389  0.0157
 5382SOL    HW223005   2.571  10.184   2.510 -0.3916 -0.7385 -1.1413
 5383SOL     OW23006   7.667   0.923  11.271  0.0167  0.1856  0.2846
 5383SOL    HW123007   7.757   0.892  11.264  0.3726  1.5546 -1.9194
 5383SOL    HW223008   7.638   0.934  11.181 -2.4023 -0.2368  0.9396
 5384SOL     OW23009   4.803   5.716  10.019 -0.3809  0.1800 -0.4561
 5384SOL    HW123010   4.724   5.771  10.012  0.0816  1.0206  0.6238
 5384SOL    HW223011   4.811   5.675   9.933 -2.3273 -0.3915 -0.4213
 5385SOL     OW23012   3.876   7.238   6.273 -0.4546  0.5915 -0.1092
 5385SOL    HW123013   3.920   7.173   6.327 -1.5448  0.6313  0.8686
 5385SOL    HW223014   3.875   7.200   6.185 -0.0344 -0.1799  0.2085
 5386SOL     OW23015   2.976   8.039   8.712  0.0909 -0.1350 -0.1773
 5386SOL    HW123016   2.946   8.095   8.783  0.4601 -0.9495  0.6461
 5386SOL    HW223017   2.926   7.958   8.723 -1.2988  0.3865 -2.0496
 5387SOL     OW23018   4.846   0.685   7.175 -0.3197  0.2820 -0.5031
 5387SOL    HW123019   4.915   0.626   7.205  0.4854  1.3791 -0.1335
 5387SOL    HW223020   4.765   0.635   7.183  0.1313 -0.1671  1.5042
 5388SOL     OW23021   5.293   9.782   5.995 -0.3266  0.3583 -0.1707
 5388SOL    HW123022   5.287   9.864   6.044 -0.2028  0.0555  0.3517
 5388SOL    HW223023   5.380   9.748   6.014  0.0367  0.6380 -1.2489
 5389SOL     OW23024   9.624   3.880  11.666 -0.3020 -0.1156 -0.4312
 5389SOL    HW123025   9.667   3.896  11.750  0.3494 -0.2873 -0.7254
 5389SOL    HW223026   9.553   3.945  11.663  0.0656  0.3116 -0.0310
 5390SOL     OW23027   0.110   4.296  11.233  0.4470  0.2098 -0.1610
 5390SOL    HW123028   0.153   4.370  11.191  0.4154  0.5586  0.4112
 5390SOL    HW223029   0.180   4.234  11.250  0.7954  0.8936  1.0241
 5391SOL     OW23030   0.164   3.039   2.164 -0.2866  0.0350 -0.4366
 5391SOL    HW123031   0.131   3.043   2.253 -0.1358  0.3168 -0.3932
 5391SOL    HW223032   0.257   3.059   2.171  0.3630 -2.6452 -0.3088
 5392SOL     OW23033   4.959  10.066   8.102  0.2285  0.3170 -0.2478
 5392SOL    HW123034   5.043  10.021   8.110  0.6217  1.1874  0.8558
 5392SOL    HW223035   4.894   9.998   8.119  0.8142  0.1769  1.7121
 5393SOL     OW23036   6.434  12.463   3.387  0.7741 -0.5144 -0.2173
 5393SOL    HW123037   6.413  12.376   3.351  2.0471 -1.2946  0.8382
 5393SOL    HW223038   6.364  12.479   3.451  1.2680 -1.4299  0.5970
 5394SOL     OW23039   3.438  11.895   9.898 -0.1093  0.7115 -0.8500
 5394SOL    HW123040   3.508  11.858   9.952 -1.3572  0.1345  0.4298
 5394SOL    HW223041   3.441  11.846   9.816  0.4163  0.0901 -0.4642
 5395SOL     OW23042   5.400  12.538  10.746 -0.0404  0.0838 -0.1395
 5395SOL    HW123043   5.379  12.586  10.826  0.8903  1.7837 -0.8589
 5395SOL    HW223044   5.325  12.480  10.732 -0.3047 -0.0943  1.8340
 5396SOL     OW23045   2.071   9.055   6.304  0.1691  0.0705 -0.5338
 5396SOL    HW123046   2.139   8.988   6.312  1.8431  1.8922  2.6394
 5396SOL    HW223047   2.092   9.102   6.224  1.6593 -0.4856 -0.5022
 5397SOL     OW23048   2.425   1.635   1.088  0.4585 -0.8221 -0.4302
 5397SOL    HW123049   2.491   1.671   1.147 -0.0243 -1.5128  0.5589
 5397SOL    HW223050   2.475   1.603   1.013  1.1025 -0.0900 -0.3172
 5398SOL     OW23051  10.067  10.573   7.371 -0.0701 -0.0323  0.2260
 5398SOL    HW123052  10.147  10.566   7.424  0.1802 -2.0169 -0.3458
 5398SOL    HW223053  10.098  10.597   7.284 -0.0793 -0.7802  0.0100
 5399SOL     OW23054   6.428   2.409   8.199 -0.2591 -0.1752 -0.0569
 5399SOL    HW123055   6.408   2.502   8.191  2.6812  0.4688 -1.2666
 5399SOL    HW223056   6.454   2.397   8.291  0.7195  0.5502 -0.2247
 5400SOL     OW23057  11.029   3.486   4.412  0.1096 -0.2674 -0.1947
 5400SOL    HW123058  11.001   3.544   4.341  1.8757  0.1907 -0.5627
 5400SOL    HW223059  11.086   3.422   4.370  1.2272  0.0407  0.8145
 5401SOL     OW23060   1.735   7.426   4.354 -0.6665 -0.0432 -0.0597
 5401SOL    HW123061   1.651   7.382   4.365 -0.4397 -0.6987 -0.8158
 5401SOL    HW223062   1.798   7.371   4.400 -0.0115 -1.8307 -2.8453
 5402SOL     OW23063   3.486   1.278   8.628 -0.3514  0.7803 -0.0912
 5402SOL    HW123064   3.446   1.310   8.710  1.3553  1.9161  0.3604
 5402SOL    HW223065   3.519   1.191   8.650 -0.7904  0.6631  0.1242
 5403SOL     OW23066  11.434   9.391   3.233 -0.0225  0.3823  0.0288
 5403SOL    HW123067  11.525   9.371   3.210 -0.6820  0.5107 -3.0875
 5403SOL    HW223068  11.440   9.453   3.305  2.2732 -1.3137  1.4361
 5404SOL     OW23069   5.658   1.084  10.072  0.4176  0.6129  0.4542
 5404SOL    HW123070   5.660   1.152  10.005 -3.4554  0.9698  0.4868
 5404SOL    HW223071   5.694   1.127  10.150 -0.7711  2.2696  0.1426
 5405SOL     OW23072   2.016   0.106   0.026  0.7035  0.0732  0.8817
 5405SOL    HW123073   1.925   0.076   0.034  0.3008  0.0898 -2.4184
 5405SOL    HW223074   2.053   0.052  -0.044  2.7063  1.2931  0.9356
 5406SOL     OW23075   9.124   0.013   9.992 -0.3367  0.6680 -0.3791
 5406SOL    HW123076   9.080   0.059   9.920 -0.6021 -1.0341 -1.3712
 5406SOL    HW223077   9.204  -0.021   9.954 -0.4284 -0.1772  0.1526
 5407SOL     OW23078   0.770   6.594   5.575 -0.0972  0.1984  0.4957
 5407SOL    HW123079   0.847   6.546   5.607  1.0864  0.7306 -1.3713
 5407SOL    HW223080   0.742   6.544   5.498  0.1015  1.5298 -0.4698
 5408SOL     OW23081   0.271   3.286  10.811 -0.2997 -0.3466  0.2631
 5408SOL    HW123082   0.265   3.380  10.793 -0.3123 -0.4047 -0.0412
 5408SOL    HW223083   0.364   3.266  10.798 -0.6820 -0.8687 -2.2094
 5409SOL     OW23084   6.830   8.480   7.031  0.3760 -0.1949  0.1768
 5409SOL    HW123085   6.901   8.416   7.028  2.1735  1.7312 -0.4714
 5409SOL    HW223086   6.867   8.559   6.992 -1.5841  1.4197  1.3833
 5410SOL     OW23087   2.395   0.161   6.129 -0.5641 -0.5613  0.0318
 5410SOL    HW123088   2.369   0.138   6.040 -1.4558 -1.4433  0.4975
 5410SOL    HW223089   2.331   0.227   6.155  0.2336  0.3524 -0.2786
 5411SOL     OW23090   8.966   1.409   4.672  0.0813 -0.6035 -0.7568
 5411SOL    HW123091   8.919   1.358   4.738  1.3072 -1.2632 -0.3667
 5411SOL    HW223092   9.033   1.350   4.638  2.1582  0.9595  0.3550
 5412SOL     OW23093  10.808   5.864   9.930 -0.7158  0.0932 -0.1920
 5412SOL    HW123094  10.845   5.841   9.844 -0.7636 -0.9365  0.0554
 5412SOL    HW223095  10.872   5.833   9.993 -0.3610  1.4478  0.1501
 5413SOL     OW23096   8.239   2.461   9.844 -0.6170 -0.2179  0.0106
 5413SOL    HW123097   8.293   2.540   9.834 -0.8993  0.0989  0.8422
 5413SOL    HW223098   8.287   2.393   9.798  0.4144  0.0957  0.5893
 5414SOL     OW23099  11.205   8.738   9.777  0.4731  0.2914  0.0823
 5414SOL    HW123100  11.288   8.712   9.816  0.0458  1.0715  1.5943
 5414SOL    HW223101  11.226   8.815   9.725  1.3526 -1.6779 -2.7196
 5415SOL     OW23102   8.657   7.380  12.074  0.1608 -0.0748 -0.4094
 5415SOL    HW123103   8.570   7.340  12.068  0.1059 -0.2035  0.8258
 5415SOL    HW223104   8.656   7.450  12.009 -1.1835  0.4672  0.1520
 5416SOL     OW23105   4.555   7.114   6.085 -0.1747 -0.0111 -0.4289
 5416SOL    HW123106   4.473   7.096   6.040 -0.1523  0.8533 -0.8193
 5416SOL    HW223107   4.572   7.207   6.070  0.5590 -0.0353  0.1663
 5417SOL     OW23108  11.682   4.802   5.404  0.3047  0.4513 -0.2509
 5417SOL    HW123109  11.603   4.819   5.455 -1.2591  0.2819 -2.5028
 5417SOL    HW223110  11.679   4.708   5.385  2.8653 -0.3272  2.3802
 5418SOL     OW23111   5.332  10.826   6.579  0.7707 -0.4115  0.6428
 5418SOL    HW123112   5.427  10.818   6.589  0.6631 -0.1284  2.0550
 5418SOL    HW223113   5.311  10.911   6.617 -0.1033 -0.7174  0.8619
 5419SOL     OW23114   0.575  11.590   4.046 -0.1539  0.2371 -0.2706
 5419SOL    HW123115   0.549  11.675   4.010  0.4098 -0.3180 -2.1100
 5419SOL    HW223116   0.492  11.547   4.068 -0.5311  0.6602 -0.8258
 5420SOL     OW23117   1.557   2.498  11.073  0.5675  0.0079 -0.1661
 5420SOL    HW123118   1.473   2.543  11.080  0.3207 -0.3953 -0.5537
 5420SOL    HW223119   1.536   2.406  11.085  0.8986 -0.1370 -0.6689
 5421SOL     OW23120   1.920  12.167  11.275 -0.4758  0.1495 -0.0801
 5421SOL    HW123121   1.970  12.122  11.343 -0.7085  1.0619  0.7215
 5421SOL    HW223122   1.949  12.127  11.193  0.7039 -0.1513  0.4609
 5422SOL     OW23123  10.620  11.330   9.387  0.1969 -0.3046  0.4717
 5422SOL    HW123124  10.711  11.314   9.361  0.4920  1.8173  0.0197
 5422SOL    HW223125  10.586  11.387   9.318 -0.7763  0.7610  1.8006
 5423SOL     OW23126  10.952   3.199   6.554 -0.1124 -0.0704 -0.3718
 5423SOL    HW123127  11.009   3.235   6.622  1.5714 -1.2377 -1.1014
 5423SOL    HW223128  10.913   3.275   6.512  1.4500  0.7979 -0.2905
 5424SOL     OW23129   9.131   3.002   9.413  0.0406 -0.0480 -1.0502
 5424SOL    HW123130   9.142   2.910   9.436 -0.8759 -0.3592 -1.7655
 5424SOL    HW223131   9.040   3.022   9.435  0.8301  1.3955  1.3372
 5425SOL     OW23132   4.359   8.861   3.665  0.3447  0.0048  0.2988
 5425SOL    HW123133   4.316   8.897   3.588 -0.6923 -0.6125  0.5709
 5425SOL    HW223134   4.320   8.909   3.738 -0.5285 -1.1286  0.6106
 5426SOL     OW23135  12.413   7.756  10.894  0.0544 -0.0226 -0.2705
 5426SOL    HW123136  12.412   7.667  10.930 -0.0671 -0.2622 -0.8531
 5426SOL    HW223137  12.373   7.747  10.808 -1.9236  0.9655  0.4854
 5427SOL     OW23138   9.963   4.450   4.168 -0.3613 -0.1717 -0.1111
 5427SOL    HW123139  10.012   4.499   4.102  1.6061 -1.7272  0.0659
 5427SOL    HW223140   9.954   4.510   4.242  1.1624  0.2585 -0.2402
 5428SOL     OW23141   2.775   8.536   2.672 -0.2319  0.3666 -0.1195
 5428SOL    HW123142   2.822   8.508   2.750 -1.5048 -0.1445  0.4913
 5428SOL    HW223143   2.761   8.630   2.684  0.4354  0.4839 -0.2152
 5429SOL     OW23144  12.256  10.950   2.018 -0.8313 -0.2995 -0.6546
 5429SOL    HW123145  12.308  10.875   2.046 -1.8809 -0.9764 -0.4775
 5429SOL    HW223146  12.265  10.951   1.922 -0.5232 -0.4211 -0.6284
 5430SOL     OW23147   4.754   3.727  12.122 -0.1931  0.7316  0.2673
 5430SOL    HW123148   4.729   3.742  12.031  1.4714  0.6452 -0.2347
 5430SOL    HW223149   4.818   3.656  12.119  2.1026  2.6016  1.1251
 5431SOL     OW23150  10.631  10.630  11.192  0.9518 -0.2358 -0.3120
 5431SOL    HW123151  10.614  10.638  11.098  2.3663  1.3254 -0.4810
 5431SOL    HW223152  10.645  10.537  11.206 -3.1556 -1.1417 -0.8703
 5432SOL     OW23153   8.377   3.443   5.369  0.2630 -0.3822 -0.7181
 5432SOL    HW123154   8.321   3.371   5.398 -2.0022  1.2639 -0.7406
 5432SOL    HW223155   8.351   3.459   5.278  0.1850  0.9182 -0.4888
 5433SOL     OW23156   0.463   3.178   0.408  0.3685 -0.1589  0.3773
 5433SOL    HW123157   0.415   3.178   0.326  3.7365 -0.3155 -1.7740
 5433SOL    HW223158   0.449   3.090   0.444 -0.1527 -0.5174 -0.6730
 5434SOL     OW23159   7.091   5.544  12.042  0.8623  0.1315  0.3270
 5434SOL    HW123160   7.007   5.525  12.084  1.3781  1.3998  2.0197
 5434SOL    HW223161   7.066   5.589  11.960 -0.1219  1.1604  1.1531
 5435SOL     OW23162   3.255   7.978   3.527 -0.4115  0.1507  0.3479
 5435SOL    HW123163   3.326   8.021   3.479 -1.3145  0.3220 -0.8719
 5435SOL    HW223164   3.294   7.896   3.559  1.1056  1.4378  2.0406
 5436SOL     OW23165   7.539   4.858   0.312 -0.6533 -0.7334  0.3253
 5436SOL    HW123166   7.594   4.898   0.246 -0.6369 -1.0394  0.1523
 5436SOL    HW223167   7.478   4.802   0.263 -1.4185 -0.0595  0.4733
 5437SOL     OW23168   0.173  11.561   8.234 -0.3077 -0.3746  0.1817
 5437SOL    HW123169   0.231  11.511   8.291 -2.3534 -1.4989  1.4179
 5437SOL    HW223170   0.193  11.653   8.252  1.6696 -0.7002 -0.1430
 5438SOL     OW23171   5.622  11.813  12.411  0.2337 -0.2464 -0.4312
 5438SOL    HW123172   5.564  11.823  12.487  1.3743 -2.4391  0.8373
 5438SOL    HW223173   5.682  11.888  12.417 -1.3795  1.1458 -0.8326
 5439SOL     OW23174   9.845  10.075  12.244  0.0047  0.3819 -0.5713
 5439SOL    HW123175   9.753  10.049  12.245 -0.1470  0.9098  0.9140
 5439SOL    HW223176   9.850  10.150  12.303  1.4081  0.2935 -0.5344
 5440SOL     OW23177  11.623   5.810   5.406 -0.4661  0.3289 -0.1796
 5440SOL    HW123178  11.546   5.808   5.350 -0.8660 -0.2509  0.3713
 5440SOL    HW223179  11.658   5.721   5.403 -0.1515  0.4439  0.0142
 5441SOL     OW23180  11.993   8.074   3.815 -0.3685 -0.6105 -0.2656
 5441SOL    HW123181  12.083   8.072   3.848  0.6959  0.5166 -2.7979
 5441SOL    HW223182  11.995   8.017   3.739 -1.6558 -0.1578 -0.6538
 5442SOL     OW23183   5.883   5.498   5.499 -0.3405  0.1271  0.2446
 5442SOL    HW123184   5.826   5.512   5.423 -1.7819 -0.9004  1.0750
 5442SOL    HW223185   5.847   5.420   5.541  0.1466  0.9250  2.2230
 5443SOL     OW23186   8.129   1.123   2.983 -0.2220  0.5868  0.0484
 5443SOL    HW123187   8.076   1.202   2.994  0.1744  0.6956  1.3292
 5443SOL    HW223188   8.078   1.055   3.028 -0.1668  0.2904 -0.3383
 5444SOL     OW23189   6.129   9.179   7.236  0.1547 -0.1421 -1.3046
 5444SOL    HW123190   6.051   9.127   7.251 -0.1564  0.4249 -0.9348
 5444SOL    HW223191   6.196   9.139   7.292  0.0533 -0.4394 -1.3936
 5445SOL     OW23192   5.173   2.804   3.413  0.3495  0.4353  0.3636
 5445SOL    HW123193   5.244   2.862   3.437  0.0477  0.5372  1.0297
 5445SOL    HW223194   5.112   2.859   3.364  0.9588  0.2304 -0.6420
 5446SOL     OW23195   1.013   7.533   5.706 -0.1621  0.4847  0.0782
 5446SOL    HW123196   0.966   7.611   5.677 -0.4549  0.6819  1.0491
 5446SOL    HW223197   1.056   7.559   5.788  0.1852 -0.2142  0.1299
 5447SOL     OW23198   3.441   8.066   3.971  0.0807  0.5534  0.2865
 5447SOL    HW123199   3.440   7.996   3.907 -0.6250  0.0450  0.8503
 5447SOL    HW223200   3.530   8.103   3.964  0.2632  0.0024 -0.4215
 5448SOL     OW23201   0.975   7.316   9.648 -0.5456 -0.1283 -0.2380
 5448SOL    HW123202   0.958   7.223   9.659 -0.7147  0.1091  1.9998
 5448SOL    HW223203   0.930   7.340   9.567 -3.3943 -1.3362  0.8728
 5449SOL     OW23204  11.272   8.829   7.977  0.1065  0.0765 -0.1698
 5449SOL    HW123205  11.211   8.761   7.951  1.0172 -0.1494 -1.8421
 5449SOL    HW223206  11.294   8.808   8.068 -1.6734 -0.2684  0.2000
 5450SOL     OW23207   6.821   3.838   4.590  0.1749 -0.0243  0.0387
 5450SOL    HW123208   6.843   3.774   4.657  0.6432  1.9305  1.8200
 5450SOL    HW223209   6.904   3.880   4.567 -0.3249  0.9313 -0.0621
 5451SOL     OW23210   4.884   8.850   2.088 -0.2348 -0.4812 -0.0093
 5451SOL    HW123211   4.938   8.775   2.063 -0.0099 -0.3439  0.0602
 5451SOL    HW223212   4.800   8.835   2.045  0.5384  0.3858 -1.9267
 5452SOL     OW23213   2.489   9.263   0.512 -0.3240 -0.3381 -0.0202
 5452SOL    HW123214   2.448   9.349   0.503 -1.6540 -0.9370  0.1724
 5452SOL    HW223215   2.570   9.270   0.461 -1.8077  0.1217 -2.4656
 5453SOL     OW23216   2.663  10.043  11.991 -0.2375 -0.2785  0.3921
 5453SOL    HW123217   2.570  10.021  11.997 -0.3712  0.2354  0.2526
 5453SOL    HW223218   2.665  10.134  11.961  0.3127 -0.3176  0.2900
 5454SOL     OW23219   8.706   4.199   7.233  0.0871  0.1969  0.7944
 5454SOL    HW123220   8.624   4.248   7.235  0.3851  0.7047  0.8333
 5454SOL    HW223221   8.771   4.264   7.208  0.4195 -0.2848  0.4026
 5455SOL     OW23222   9.670   1.340   0.822 -0.0842  0.1089 -0.8145
 5455SOL    HW123223   9.709   1.349   0.735  1.4149  1.7796 -0.0261
 5455SOL    HW223224   9.730   1.385   0.880 -0.7705 -1.4298  1.2104
 5456SOL     OW23225   3.966  10.710   3.108  0.1921  0.7487  0.3237
 5456SOL    HW123226   3.911  10.757   3.170  1.0278  0.9328  0.9482
 5456SOL    HW223227   3.905  10.671   3.046 -0.8910 -1.4649  2.6027
 5457SOL     OW23228  11.070   6.190   6.437 -0.4739 -0.3476 -0.3063
 5457SOL    HW123229  11.019   6.185   6.517 -1.3388 -0.5322 -0.8621
 5457SOL    HW223230  11.039   6.269   6.394  0.0799 -0.1789 -0.4016
 5458SOL     OW23231   7.214   7.641  11.756 -0.2976 -1.1340 -0.2557
 5458SOL    HW123232   7.197   7.691  11.837  2.8247 -0.5394  0.1562
 5458SOL    HW223233   7.167   7.559  11.769  0.4538 -1.2664  2.4546
 5459SOL     OW23234   3.783   4.526  11.855 -0.2983 -0.0021 -0.3563
 5459SOL    HW123235   3.816   4.587  11.789 -1.3665  0.5079 -0.4323
 5459SOL    HW223236   3.756   4.581  11.928  0.4008 -0.5258  0.3234
 5460SOL     OW23237   8.292  10.736   3.002 -0.3912 -0.1439 -0.2235
 5460SOL    HW123238   8.318  10.699   2.918 -0.0209 -0.6789  0.1245
 5460SOL    HW223239   8.257  10.823   2.980  0.7413  0.1777 -0.8101
 5461SOL     OW23240   7.441   8.148   7.831 -0.0291 -0.0806  0.2143
 5461SOL    HW123241   7.517   8.202   7.851  0.8633 -0.7781 -1.1209
 5461SOL    HW223242   7.366   8.200   7.860  0.9401  0.6777  1.4361
 5462SOL     OW23243  10.420   4.628   2.251  0.1570  0.1577 -0.2541
 5462SOL    HW123244  10.450   4.623   2.341 -0.7073  2.0088  0.1989
 5462SOL    HW223245  10.459   4.708   2.217  0.3477 -0.4365 -1.4981
 5463SOL     OW23246   0.676  12.293   4.947  0.2614 -0.4881 -0.8283
 5463SOL    HW123247   0.638  12.270   5.031  0.2612  0.2288 -0.6244
 5463SOL    HW223248   0.634  12.235   4.884 -1.0871  0.2022 -0.5945
 5464SOL     OW23249  11.612   7.576  10.463  0.5104  0.3859  0.5123
 5464SOL    HW123250  11.647   7.629  10.535  2.6853  2.4059 -1.8213
 5464SOL    HW223251  11.559   7.637  10.412 -0.3463 -0.7951 -0.0492
 5465SOL     OW23252   3.003   4.810   1.566  0.1410  0.1149 -0.7693
 5465SOL    HW123253   2.954   4.822   1.484  0.6488  1.3407 -0.9131
 5465SOL    HW223254   3.073   4.875   1.562 -0.5352  1.0247  1.1834
 5466SOL     OW23255   8.407   7.238   3.379 -1.0259  0.0487  0.2200
 5466SOL    HW123256   8.394   7.318   3.430  1.3009  0.1019  0.8521
 5466SOL    HW223257   8.342   7.177   3.412 -1.9843  1.2463  0.6424
 5467SOL     OW23258  10.022   0.673   3.931  0.5984  0.2750 -0.1532
 5467SOL    HW123259  10.108   0.652   3.968  0.3401 -0.8415 -0.1356
 5467SOL    HW223260  10.033   0.665   3.837  0.3135 -0.7689 -0.1133
 5468SOL     OW23261   3.551   4.532   1.929 -0.4915 -0.1147 -0.3029
 5468SOL    HW123262   3.578   4.528   2.021  0.1241  0.6031 -0.4540
 5468SOL    HW223263   3.457   4.552   1.934 -0.6852 -1.0235  0.1751
 5469SOL     OW23264   1.608   3.724   3.414 -0.5970 -0.0547 -0.2128
 5469SOL    HW123265   1.639   3.669   3.342  0.6630  0.5496 -0.1754
 5469SOL    HW223266   1.617   3.670   3.492  0.7881  0.2219 -0.1538
 5470SOL     OW23267   3.400   8.768   5.085 -0.4206  0.0039  0.1627
 5470SOL    HW123268   3.392   8.695   5.146 -0.4435  0.5288  0.7953
 5470SOL    HW223269   3.311   8.803   5.079 -0.9725 -1.5737 -2.1235
 5471SOL     OW23270   2.136  10.330  12.049 -0.1129  0.3179 -0.6327
 5471SOL    HW123271   2.067  10.265  12.039  1.2917 -1.3756  0.0857
 5471SOL    HW223272   2.185  10.326  11.966  0.8016 -0.6171 -0.0802
 5472SOL     OW23273   3.161   8.995   5.530 -0.7418  0.0018 -0.1808
 5472SOL    HW123274   3.220   8.921   5.513  0.7436  1.6301 -2.6407
 5472SOL    HW223275   3.143   9.032   5.444 -1.1793  2.6944  0.9766
 5473SOL     OW23276   8.801   8.941   9.339  0.1488  0.0401 -0.6947
 5473SOL    HW123277   8.805   8.846   9.332  1.5400  0.0391 -0.2064
 5473SOL    HW223278   8.743   8.957   9.414 -0.4581 -0.3946 -1.0597
 5474SOL     OW23279   0.905   4.611   2.922 -0.5388  0.7783  0.5173
 5474SOL    HW123280   0.862   4.578   2.843  1.8727 -1.3755 -0.0242
 5474SOL    HW223281   0.984   4.656   2.889 -0.0014  0.6975  1.6437
 5475SOL     OW23282   4.114   7.734   9.873 -0.2887 -0.0363 -0.1116
 5475SOL    HW123283   4.160   7.812   9.841 -0.8927  0.5916  0.5312
 5475SOL    HW223284   4.178   7.691   9.930  0.7091 -1.0273 -1.8869
 5476SOL     OW23285   6.192   4.997   9.811 -0.5105 -0.0881 -0.1572
 5476SOL    HW123286   6.119   5.014   9.871 -0.0594  2.4689 -0.2260
 5476SOL    HW223287   6.174   5.054   9.736 -0.0731 -1.8272 -1.6269
 5477SOL     OW23288   2.958  11.298   0.102 -0.0758  0.4686  0.2370
 5477SOL    HW123289   2.881  11.289   0.159 -0.5681 -1.2569 -0.6223
 5477SOL    HW223290   3.031  11.315   0.161 -0.5405 -1.4194  1.4405
 5478SOL     OW23291  10.743   3.969  10.193  0.2033 -0.1653 -0.5844
 5478SOL    HW123292  10.712   3.878  10.188 -2.1722  0.4962  0.9676
 5478SOL    HW223293  10.683   4.017  10.136  1.5501  0.4750 -1.5243
 5479SOL     OW23294   5.558   5.664   1.585 -0.2022  0.3169  0.2208
 5479SOL    HW123295   5.618   5.604   1.627 -0.4449  0.0378  0.1753
 5479SOL    HW223296   5.473   5.645   1.624 -0.2198  0.8809  0.4663
 5480SOL     OW23297   1.527   8.826   8.923  0.5682 -0.3261 -0.4170
 5480SOL    HW123298   1.445   8.813   8.970  0.2284 -3.1018 -1.5543
 5480SOL    HW223299   1.502   8.869   8.841  0.3000 -0.7768 -0.5732
 5481SOL     OW23300   0.254   7.372   6.986 -0.3847 -0.1496 -0.6256
 5481SOL    HW123301   0.249   7.295   6.929 -0.6980  0.0470 -0.8642
 5481SOL    HW223302   0.344   7.404   6.976 -0.0220 -0.8983  0.0229
 5482SOL     OW23303  10.159   3.783  11.909 -0.8275  0.1412 -0.3177
 5482SOL    HW123304  10.135   3.692  11.927  0.6967 -0.5783 -1.6304
 5482SOL    HW223305  10.246   3.793  11.946 -0.2139  0.4645 -1.7542
 5483SOL     OW23306   0.609   9.074   4.604 -0.1099 -0.0891 -0.1833
 5483SOL    HW123307   0.657   9.069   4.687 -0.3349  1.6031  0.0922
 5483SOL    HW223308   0.523   9.038   4.623 -0.1821  0.3547  0.3592
 5484SOL     OW23309  10.668  10.715  11.650  0.7401 -0.0865 -0.4066
 5484SOL    HW123310  10.640  10.734  11.740  0.1782 -0.0639 -0.5816
 5484SOL    HW223311  10.587  10.712  11.600  1.0993  0.5351 -1.0393
 5485SOL     OW23312   1.105   2.076   9.280  0.1152  0.1999 -0.1246
 5485SOL    HW123313   1.022   2.120   9.299  1.5220  2.6186  0.9843
 5485SOL    HW223314   1.160   2.145   9.244  2.1171 -0.9368  0.6210
 5486SOL     OW23315  10.480   5.055   2.487  0.4050 -0.2121  0.1062
 5486SOL    HW123316  10.407   5.003   2.453 -1.4276  2.6808 -0.8069
 5486SOL    HW223317  10.558   5.009   2.458 -1.0576 -2.4913 -0.4699
 5487SOL     OW23318   9.472   5.437   4.111  0.2646 -0.1049 -0.1011
 5487SOL    HW123319   9.468   5.346   4.080  0.1716 -1.0206  2.3892
 5487SOL    HW223320   9.565   5.458   4.110  0.2136  0.1592 -1.6134
 5488SOL     OW23321   7.238   5.986   7.625  0.1809 -0.2494 -0.0293
 5488SOL    HW123322   7.321   5.983   7.673  0.7445  3.1091 -0.5748
 5488SOL    HW223323   7.230   5.898   7.587  3.4527 -0.7554  0.1307
 5489SOL     OW23324   0.212   7.001   8.400 -0.4536  0.1342  0.6419
 5489SOL    HW123325   0.214   7.093   8.374 -0.3006  0.4996  1.8746
 5489SOL    HW223326   0.302   6.971   8.390 -0.5775 -0.0008 -0.1292
 5490SOL     OW23327   9.919   8.488   1.742  0.1444 -0.0180  0.5624
 5490SOL    HW123328   9.874   8.557   1.692 -0.6177 -0.0913  1.1264
 5490SOL    HW223329   9.851   8.422   1.757  1.2637 -1.7629 -1.4741
 5491SOL     OW23330  11.988   3.530   9.975  0.9080 -0.5389  0.0371
 5491SOL    HW123331  11.949   3.444   9.984 -2.1228  0.8428  1.3707
 5491SOL    HW223332  12.011   3.556  10.064  0.4203  0.5973 -0.1547
 5492SOL     OW23333   7.752  10.780   9.557 -0.8190 -0.0557  0.7511
 5492SOL    HW123334   7.698  10.759   9.481 -1.1872  2.2280  0.3067
 5492SOL    HW223335   7.842  10.780   9.523 -0.9313  0.3476  0.4376
 5493SOL     OW23336   6.569   3.312   5.541 -0.2683 -0.0798  0.3596
 5493SOL    HW123337   6.619   3.391   5.522 -1.6677  1.4809  2.6565
 5493SOL    HW223338   6.606   3.246   5.482  1.9158  1.8854 -0.6642
 5494SOL     OW23339   3.134   4.874   9.669 -0.2147  0.1386 -0.0088
 5494SOL    HW123340   3.042   4.899   9.661 -0.3707  0.2798  1.8859
 5494SOL    HW223341   3.133   4.785   9.703  0.3825 -1.9918 -4.7113
 5495SOL     OW23342   4.056   4.878   8.956  0.0350  0.1698  0.0122
 5495SOL    HW123343   4.072   4.969   8.981  0.2874  0.0227  0.3891
 5495SOL    HW223344   4.013   4.839   9.032 -0.0133 -0.0426 -0.1226
 5496SOL     OW23345   5.412  11.954   7.135  0.3411  0.1691 -0.0658
 5496SOL    HW123346   5.460  11.966   7.217 -0.2786  1.7211  0.1052
 5496SOL    HW223347   5.329  11.913   7.162 -0.1305  1.2622  0.1861
 5497SOL     OW23348   9.546   7.242  11.075 -0.2289  0.3473 -0.2332
 5497SOL    HW123349   9.450   7.247  11.069 -0.3949 -1.3951  0.5523
 5497SOL    HW223350   9.563   7.172  11.137  1.5813  0.5726 -0.4211
 5498SOL     OW23351   9.898   3.688   7.805  0.0877 -0.0619  0.4312
 5498SOL    HW123352   9.913   3.625   7.875 -1.8565 -1.0090  0.0815
 5498SOL    HW223353   9.803   3.693   7.798  0.2208  1.6661 -0.6865
 5499SOL     OW23354   4.271   0.846   0.265 -0.2959  0.2225 -0.2550
 5499SOL    HW123355   4.305   0.931   0.235  1.1597 -0.5091 -0.8037
 5499SOL    HW223356   4.266   0.856   0.360  3.2010 -0.0996  0.1153
 5500SOL     OW23357   7.810   1.183  12.406  0.0235 -0.4354 -0.2248
 5500SOL    HW123358   7.733   1.138  12.439 -1.5102  2.2505  0.2061
 5500SOL    HW223359   7.803   1.177  12.311 -1.1757  0.3921 -0.2116
 5501SOL     OW23360   9.583  10.653  10.085 -0.6014  0.2217  0.7453
 5501SOL    HW123361   9.553  10.701  10.162 -0.1775 -0.0287  1.0686
 5501SOL    HW223362   9.580  10.561  10.111 -2.6524 -0.0696 -0.2812
 5502SOL     OW23363   4.874   0.061  11.264  0.1769  0.3453  0.2618
 5502SOL    HW123364   4.840  -0.003  11.326  0.7139 -0.0343  0.1764
 5502SOL    HW223365   4.855   0.146  11.303 -2.2314  0.2292 -0.4799
 5503SOL     OW23366  11.485   8.261   9.400  0.5666  0.4146 -0.1634
 5503SOL    HW123367  11.515   8.182   9.355 -0.4094  0.1789 -0.4257
 5503SOL    HW223368  11.499   8.243   9.493 -1.4665 -0.9086 -0.0536
 5504SOL     OW23369   6.899   4.177   0.975  0.2847  0.2819 -0.0525
 5504SOL    HW123370   6.988   4.166   1.007  0.2517 -0.6307 -0.2333
 5504SOL    HW223371   6.844   4.144   1.046  0.0422  1.5113  0.3572
 5505SOL     OW23372   5.392  10.736   1.145  0.0773  0.7902  0.2988
 5505SOL    HW123373   5.328  10.753   1.075  1.0943  0.8746 -0.6309
 5505SOL    HW223374   5.458  10.680   1.104  1.5014  2.0812  0.7293
 5506SOL     OW23375   4.328   7.250  10.213  0.0929  0.2653 -0.0081
 5506SOL    HW123376   4.268   7.189  10.257  0.7561 -1.6579 -1.6438
 5506SOL    HW223377   4.404   7.254  10.271 -0.3919  0.4021  0.6359
 5507SOL     OW23378   9.902  11.567   2.780 -0.2281 -0.5149  0.4132
 5507SOL    HW123379   9.834  11.502   2.765 -2.0799  1.5692 -0.8648
 5507SOL    HW223380   9.984  11.519   2.771 -1.3913 -2.1356 -3.8678
 5508SOL     OW23381   9.204  11.707   4.999 -0.1441 -0.3899 -0.0783
 5508SOL    HW123382   9.211  11.676   4.909 -0.1221  0.5019 -0.3999
 5508SOL    HW223383   9.143  11.781   4.994 -0.1463 -0.3329  0.6400
 5509SOL     OW23384   4.601   2.062  10.531  0.2861 -0.4702  0.3201
 5509SOL    HW123385   4.536   2.018  10.586 -0.2976  1.1554  0.9796
 5509SOL    HW223386   4.653   2.114  10.592  0.0700  0.8385 -0.5708
 5510SOL     OW23387   3.905   3.494   4.669 -0.4416 -0.6263  0.6133
 5510SOL    HW123388   3.861   3.410   4.684 -1.0942 -0.4231 -0.0982
 5510SOL    HW223389   3.925   3.495   4.575 -1.5680  0.5333  0.3530
 5511SOL     OW23390  10.539   8.763   9.020 -0.0598 -0.1745  0.5773
 5511SOL    HW123391  10.623   8.808   9.025  0.2441 -0.7771  1.1430
 5511SOL    HW223392  10.511   8.753   9.111 -1.4663  1.3046  0.3458
 5512SOL     OW23393   9.652   2.301   7.907 -0.3217 -0.4100  0.2439
 5512SOL    HW123394   9.707   2.232   7.869  0.7746  0.6650 -0.2192
 5512SOL    HW223395   9.679   2.305   7.999 -1.3750 -1.5063  0.6159
 5513SOL     OW23396   4.945   9.902   8.670 -0.4681  0.3902  0.6508
 5513SOL    HW123397   5.004   9.832   8.696 -0.5011  0.1566  0.1025
 5513SOL    HW223398   4.860   9.859   8.659 -0.7017  0.6872  1.2382
 5514SOL     OW23399   3.241   0.601   8.635 -0.2180 -0.4248 -0.6835
 5514SOL    HW123400   3.153   0.598   8.598 -0.2215 -2.3542 -0.6117
 5514SOL    HW223401   3.233   0.657   8.712 -0.8353  1.3228 -1.9733
 5515SOL     OW23402   8.311  11.765   0.677  0.1167  0.7932 -0.0450
 5515SOL    HW123403   8.344  11.831   0.739 -0.6078 -0.9291  2.3032
 5515SOL    HW223404   8.218  11.756   0.699 -0.0433 -0.2176 -1.0613
 5516SOL     OW23405   6.295  11.852   0.185  0.2798  0.0638  0.3155
 5516SOL    HW123406   6.294  11.801   0.266 -0.1305  1.9953  1.5701
 5516SOL    HW223407   6.297  11.943   0.213  2.1497  0.8026 -1.8356
 5517SOL     OW23408   7.561  10.776   9.316  0.2949  0.1622 -0.1945
 5517SOL    HW123409   7.490  10.721   9.348  0.3957 -0.2860 -0.7195
 5517SOL    HW223410   7.577  10.745   9.227  0.5586  0.8430 -0.3927
 5518SOL     OW23411   5.113   6.596   7.527 -0.1106  0.7543 -0.7651
 5518SOL    HW123412   5.189   6.573   7.474 -0.6714  0.8984 -1.6456
 5518SOL    HW223413   5.069   6.512   7.542 -0.6353  0.8732 -1.6041
 5519SOL     OW23414  10.702   2.217  12.199  0.2545  0.1938 -0.3893
 5519SOL    HW123415  10.651   2.172  12.131  1.4302  0.7262 -1.6647
 5519SOL    HW223416  10.783   2.242  12.155  0.0634  2.6972  0.5382
 5520SOL     OW23417   3.464  10.187   5.352  0.2267  0.1600 -0.6072
 5520SOL    HW123418   3.377  10.223   5.335  0.4742  0.3551 -1.5156
 5520SOL    HW223419   3.524  10.242   5.301  1.0147  0.7235  0.8784
 5521SOL     OW23420  10.975   4.059  11.073  0.1811 -0.3622 -0.1719
 5521SOL    HW123421  10.881   4.078  11.080 -0.0448 -0.7777 -1.6467
 5521SOL    HW223422  10.990   3.988  11.135 -0.4205 -0.1044  0.2802
 5522SOL     OW23423   8.629   7.301   7.649 -0.2322 -0.7848  0.1148
 5522SOL    HW123424   8.580   7.287   7.568  0.9722  1.5313 -1.1230
 5522SOL    HW223425   8.592   7.381   7.686 -0.6441 -1.7045  1.8235
 5523SOL     OW23426   8.251   8.968   9.268  0.3562  0.2378 -0.0852
 5523SOL    HW123427   8.313   8.983   9.197  0.8487 -0.4380  0.1991
 5523SOL    HW223428   8.305   8.968   9.347 -0.0429 -0.0881  0.1894
 5524SOL     OW23429   6.473   3.715   8.214 -0.2262  0.2984  0.0750
 5524SOL    HW123430   6.386   3.708   8.254 -0.2823 -1.2518 -0.2470
 5524SOL    HW223431   6.494   3.625   8.188  0.7129  0.9401 -1.4724
 5525SOL     OW23432  10.990   9.267   9.523 -0.0073 -0.7241  0.4897
 5525SOL    HW123433  10.916   9.272   9.584 -0.8489  1.3157 -0.6181
 5525SOL    HW223434  10.972   9.335   9.458  3.2522  0.4645  0.6496
 5526SOL     OW23435   8.784   6.146   3.921  0.7713 -0.2960 -0.0667
 5526SOL    HW123436   8.827   6.220   3.879  0.4553  0.5265  0.9990
 5526SOL    HW223437   8.799   6.073   3.862  2.7715  0.1719 -0.2170
 5527SOL     OW23438   4.562  11.541  11.131 -0.0795  0.5865 -0.3104
 5527SOL    HW123439   4.560  11.570  11.039 -2.3919  0.6391 -0.3127
 5527SOL    HW223440   4.634  11.477  11.135 -1.7246 -1.6730 -2.9292
 5528SOL     OW23441   2.299  11.165   0.868 -0.6819 -0.2749  0.0246
 5528SOL    HW123442   2.327  11.200   0.784  2.1554 -1.8562  0.1869
 5528SOL    HW223443   2.225  11.108   0.846  0.0790 -0.7565 -1.4417
 5529SOL     OW23444   8.282   2.300   5.332  0.3662 -0.1308 -0.4532
 5529SOL    HW123445   8.196   2.326   5.363  0.8501  1.9134 -0.6658
 5529SOL    HW223446   8.292   2.209   5.361 -1.6207 -0.2306  0.0326
 5530SOL     OW23447   2.089   8.096  10.503 -0.3110  0.6380  0.3838
 5530SOL    HW123448   2.015   8.157  10.504 -0.1418  0.8971 -0.7426
 5530SOL    HW223449   2.106   8.076  10.595 -0.4580  2.1947  0.7717
 5531SOL     OW23450   3.885  10.359   5.861 -0.0137 -1.0146  0.5464
 5531SOL    HW123451   3.934  10.440   5.846 -0.1378 -1.0745 -0.2138
 5531SOL    HW223452   3.829  10.350   5.785 -0.7539 -1.2843  1.1118
 5532SOL     OW23453   5.140   6.303   6.957 -0.3307 -0.3427 -0.1663
 5532SOL    HW123454   5.222   6.275   6.917  0.6975  2.4401 -0.2230
 5532SOL    HW223455   5.154   6.293   7.051  1.4188  2.9631  0.0795
 5533SOL     OW23456   5.418   6.262   8.619 -0.3775 -0.2029 -0.3167
 5533SOL    HW123457   5.423   6.278   8.713 -2.1698  2.7015 -0.6058
 5533SOL    HW223458   5.378   6.341   8.583  1.3008 -0.7083 -3.6957
 5534SOL     OW23459   6.768   8.099   1.013 -0.4900  0.1244 -0.6846
 5534SOL    HW123460   6.830   8.172   1.013  0.4298 -0.6333 -1.1747
 5534SOL    HW223461   6.690   8.133   0.968 -0.1166  0.8253 -0.8087
 5535SOL     OW23462   2.747   6.360   9.048 -0.0885 -0.3199 -0.0525
 5535SOL    HW123463   2.664   6.406   9.063  0.6057  1.6418 -1.8454
 5535SOL    HW223464   2.723   6.267   9.052 -2.0249  0.1677  1.1592
 5536SOL     OW23465   6.292   9.351   9.219 -0.3905  0.0840  0.5099
 5536SOL    HW123466   6.231   9.285   9.186 -0.2008  0.2834 -0.2670
 5536SOL    HW223467   6.247   9.434   9.207  0.2519  0.2904 -0.6457
 5537SOL     OW23468   6.139  10.134   3.899 -0.2185 -0.3045  0.1742
 5537SOL    HW123469   6.229  10.108   3.916  0.2220  1.1170  0.0935
 5537SOL    HW223470   6.087  10.059   3.928  0.9076 -0.6204  1.4691
 5538SOL     OW23471   1.120   5.956   1.818 -0.5064  0.8271 -0.4990
 5538SOL    HW123472   1.119   5.920   1.730  0.0831 -1.2334  0.2903
 5538SOL    HW223473   1.057   6.029   1.815 -1.0133  0.3581 -2.4179
 5539SOL     OW23474   6.860   6.735   4.599  0.2772  0.0291 -0.5891
 5539SOL    HW123475   6.873   6.728   4.693  0.4772  0.0385 -0.6154
 5539SOL    HW223476   6.792   6.672   4.578  0.4867 -0.2281 -0.4927
 5540SOL     OW23477   8.483   5.084  10.930 -0.0291 -0.1559  0.0127
 5540SOL    HW123478   8.569   5.103  10.893 -0.6534  0.7136 -1.0224
 5540SOL    HW223479   8.502   5.049  11.017  1.3436  0.6986  0.0845
 5541SOL     OW23480   9.396   6.146  12.307 -0.5722 -0.3781 -0.2589
 5541SOL    HW123481   9.452   6.092  12.363  0.5058  0.2352 -0.7169
 5541SOL    HW223482   9.445   6.154  12.225 -0.7074  1.2782 -0.1996
 5542SOL     OW23483   6.515  11.857   8.623  0.1922 -0.3465  0.2181
 5542SOL    HW123484   6.585  11.923   8.621  0.5814 -0.7189  0.9806
 5542SOL    HW223485   6.481  11.860   8.712  1.2972 -2.2474  0.7794
 5543SOL     OW23486  10.237  10.621  10.128  0.2349 -0.0969  0.4197
 5543SOL    HW123487  10.193  10.555  10.181  0.7017 -0.0515  0.8686
 5543SOL    HW223488  10.319  10.638  10.174 -0.6013  2.0262  1.2368
 5544SOL     OW23489   6.335   1.213   5.599  0.0645  0.1582  0.6563
 5544SOL    HW123490   6.357   1.306   5.598  1.5569 -0.1646 -0.9500
 5544SOL    HW223491   6.244   1.210   5.627 -1.1220  2.3924 -2.4517
 5545SOL     OW23492   3.803  12.441   6.006 -0.4376  0.0933 -0.3535
 5545SOL    HW123493   3.725  12.387   5.996 -0.0954 -0.3991 -0.4305
 5545SOL    HW223494   3.775  12.529   5.981 -0.2757 -0.5734 -3.1946
 5546SOL     OW23495  10.345   4.209   4.081 -0.1467  0.6764 -0.1951
 5546SOL    HW123496  10.285   4.200   4.155 -1.8058 -0.6358 -1.6093
 5546SOL    HW223497  10.325   4.296   4.045 -1.6680  0.0362 -0.9815
 5547SOL     OW23498   0.536   8.477   1.136  0.0641  0.9268  0.1856
 5547SOL    HW123499   0.459   8.533   1.142 -0.5224 -0.0170  2.1418
 5547SOL    HW223500   0.507   8.400   1.088  0.0020  0.9118  0.2468
 5548SOL     OW23501   0.992   8.944   6.707  0.6161 -0.3259  0.1802
 5548SOL    HW123502   0.947   8.942   6.791 -0.2003 -3.5493 -0.1791
 5548SOL    HW223503   0.922   8.936   6.642  1.3965 -0.9627 -0.6190
 5549SOL     OW23504   7.200   6.348  11.739  0.1671 -0.4178 -0.1442
 5549SOL    HW123505   7.202   6.442  11.721  0.5195 -0.4061 -0.0515
 5549SOL    HW223506   7.107   6.327  11.748 -0.0294 -0.3818 -1.7901
 5550SOL     OW23507  12.229   5.795   2.684 -0.0828  0.7922 -0.9223
 5550SOL    HW123508  12.282   5.852   2.739 -0.3783 -0.3799  0.6315
 5550SOL    HW223509  12.292   5.733   2.646 -0.1769 -0.0745  0.2632
 5551SOL     OW23510   4.364   2.081   9.254  0.1457 -0.2644  0.5764
 5551SOL    HW123511   4.338   2.164   9.215  0.5315 -0.8047 -0.9215
 5551SOL    HW223512   4.454   2.096   9.284 -0.2950  0.2772  1.6814
 5552SOL     OW23513  11.674   3.287   1.693  0.3897 -0.5795 -0.0853
 5552SOL    HW123514  11.710   3.376   1.697 -0.7827 -0.1113  0.9985
 5552SOL    HW223515  11.582   3.300   1.669  0.0941 -1.4629  0.5266
 5553SOL     OW23516  12.369   2.300  11.338 -0.4727  0.3817 -0.3456
 5553SOL    HW123517  12.464   2.302  11.329 -0.3344  0.4719  0.9566
 5553SOL    HW223518  12.347   2.207  11.345 -0.4242  0.3814 -0.1883
 5554SOL     OW23519   4.702   1.250   3.248  0.5955  0.4640  0.0719
 5554SOL    HW123520   4.740   1.336   3.233  1.4170 -0.2651 -2.5687
 5554SOL    HW223521   4.627   1.245   3.189 -0.5749  0.0100  1.5343
 5555SOL     OW23522  11.972   2.526   1.007 -0.1022  0.0242 -0.7012
 5555SOL    HW123523  12.005   2.543   1.096 -0.6300  0.0038 -0.5013
 5555SOL    HW223524  11.958   2.431   1.005 -1.9831  0.2601 -0.1418
 5556SOL     OW23525  10.320   3.256   8.445  0.2029  0.3280 -0.5524
 5556SOL    HW123526  10.391   3.314   8.472 -0.9535  2.4339 -1.7797
 5556SOL    HW223527  10.363   3.187   8.395  1.4934  0.8846 -0.2491
 5557SOL     OW23528   2.100   2.287   3.291  0.2232 -0.5193  0.3386
 5557SOL    HW123529   2.025   2.269   3.235 -0.1398 -1.7128  1.1470
 5557SOL    HW223530   2.173   2.240   3.250 -0.2931 -2.3719  1.4055
 5558SOL     OW23531   3.110  12.141   8.678 -0.2718  0.4223  0.5218
 5558SOL    HW123532   3.165  12.203   8.630 -0.8559  1.6353  1.3886
 5558SOL    HW223533   3.073  12.085   8.610  0.7094  0.6462 -0.2292
 5559SOL     OW23534  11.312   6.351   7.137  0.1334  0.4758  0.2734
 5559SOL    HW123535  11.267   6.432   7.163  0.7032  0.9655 -0.2179
 5559SOL    HW223536  11.371   6.332   7.210  0.4918  0.8909  0.0966
 5560SOL     OW23537   4.226   0.280  12.536  0.1084  0.1881  0.1756
 5560SOL    HW123538   4.166   0.234  12.595  1.0337 -0.0717  0.9443
 5560SOL    HW223539   4.304   0.296  12.589  0.1396  1.9226 -0.3314
 5561SOL     OW23540   5.596  10.900   2.244 -0.3608 -0.2959  0.1114
 5561SOL    HW123541   5.585  10.812   2.208  0.3533  0.4871 -2.2107
 5561SOL    HW223542   5.507  10.932   2.257 -0.6429 -0.7964 -0.5359
 5562SOL     OW23543  11.726   2.842   8.580 -0.4771  0.1395  0.2160
 5562SOL    HW123544  11.786   2.916   8.570 -1.2956  0.7965  0.0198
 5562SOL    HW223545  11.661   2.874   8.643 -0.9541 -0.3443 -0.0350
 5563SOL     OW23546   9.487   2.940   3.282  0.1021  0.1878  0.1643
 5563SOL    HW123547   9.560   2.944   3.343  0.0313 -1.2826  0.3708
 5563SOL    HW223548   9.456   3.031   3.277  0.8373  0.5401  1.4058
 5564SOL     OW23549   5.308   8.940   9.810  1.2236 -0.0205 -0.3549
 5564SOL    HW123550   5.309   8.961   9.903  1.1872 -0.4183 -0.2619
 5564SOL    HW223551   5.264   9.014   9.769 -1.3652 -1.1179  0.2757
 5565SOL     OW23552   9.216   0.363   4.603  0.3529  0.1259  0.2781
 5565SOL    HW123553   9.153   0.293   4.585 -0.6625  0.7151  1.3483
 5565SOL    HW223554   9.182   0.439   4.555  0.8474  0.1719 -0.0044
 5566SOL     OW23555   5.875  12.000  12.469  0.1897 -0.2389 -0.9027
 5566SOL    HW123556   5.949  11.965  12.517  0.6877  0.1448 -1.3769
 5566SOL    HW223557   5.912  12.028  12.385 -0.5427 -0.3151 -1.2593
 5567SOL     OW23558   0.098   6.110   7.179  0.4094 -0.4902 -0.1099
 5567SOL    HW123559   0.100   6.094   7.273  1.3719 -0.7214 -0.1639
 5567SOL    HW223560   0.015   6.073   7.150 -0.2337  0.2287  0.7544
 5568SOL     OW23561   7.930   1.506  11.124 -0.0722 -0.1655  0.0111
 5568SOL    HW123562   7.905   1.480  11.213  0.4420  0.5378  0.3700
 5568SOL    HW223563   7.888   1.592  11.112 -0.8422 -0.6350 -0.7474
 5569SOL     OW23564   6.295   0.477   1.343 -0.2772  0.4821  0.5067
 5569SOL    HW123565   6.314   0.385   1.357 -1.8792  0.2613  1.5018
 5569SOL    HW223566   6.345   0.522   1.412  0.2314  0.3427  0.2355
 5570SOL     OW23567   1.731   2.348   5.479 -0.4228  0.1535  0.1104
 5570SOL    HW123568   1.761   2.300   5.402 -0.5551  1.4336 -0.7658
 5570SOL    HW223569   1.639   2.323   5.487 -0.3322 -0.2172  0.0456
 5571SOL     OW23570   5.270   0.618   3.980  0.0787  0.4605 -0.4076
 5571SOL    HW123571   5.287   0.618   3.885  0.9188  0.1450 -0.2692
 5571SOL    HW223572   5.249   0.709   4.000  3.9012  1.5211 -0.2701
 5572SOL     OW23573   6.878  10.138   4.669 -0.2820 -0.1794  0.1091
 5572SOL    HW123574   6.944  10.071   4.684  1.4703  1.7644  1.7767
 5572SOL    HW223575   6.926  10.209   4.624 -1.0485  1.4734  1.7748
 5573SOL     OW23576   0.823   9.230  10.924  0.2883 -0.1844 -0.0904
 5573SOL    HW123577   0.898   9.174  10.905 -0.6003 -2.8583  3.3198
 5573SOL    HW223578   0.770   9.228  10.844  1.3408 -2.5669 -0.8043
 5574SOL     OW23579   8.760   0.359   0.938  0.4015  0.4215  0.7580
 5574SOL    HW123580   8.730   0.445   0.911  1.3799  0.5617  0.0572
 5574SOL    HW223581   8.855   0.367   0.942  0.5638 -0.8129 -0.0044
 5575SOL     OW23582   5.160   3.716   6.307  0.7597 -0.4557  0.7075
 5575SOL    HW123583   5.127   3.744   6.221  1.1770 -1.7972  0.0892
 5575SOL    HW223584   5.255   3.715   6.297  0.7878 -1.1714  0.9992
 5576SOL     OW23585   2.645   4.433   6.582 -0.4323  0.0782 -0.6491
 5576SOL    HW123586   2.612   4.521   6.566 -1.3618 -0.0655  0.3437
 5576SOL    HW223587   2.631   4.419   6.676  0.0668 -0.9850 -0.7152
 5577SOL     OW23588   0.288   9.922  10.608 -0.2392 -0.2997 -0.6631
 5577SOL    HW123589   0.260   9.958  10.524 -0.5977  0.2082 -0.3299
 5577SOL    HW223590   0.222   9.952  10.670 -0.1922 -0.9911 -0.2627
 5578SOL     OW23591   8.093   8.882  10.513  0.9093 -0.1774  0.4809
 5578SOL    HW123592   8.044   8.802  10.495  0.9419  0.1519 -1.1412
 5578SOL    HW223593   8.151   8.893  10.438  1.3725  1.0252  0.9901
 5579SOL     OW23594   9.662   7.660   2.309 -0.1192  0.5021  0.4238
 5579SOL    HW123595   9.624   7.722   2.372 -0.6975  2.1097 -1.4115
 5579SOL    HW223596   9.614   7.676   2.228  1.8215 -0.2219 -0.9399
 5580SOL     OW23597   9.018   4.689   3.538  0.1443 -0.3679  0.2105
 5580SOL    HW123598   9.035   4.775   3.577  0.4178  0.0398 -0.7782
 5580SOL    HW223599   8.986   4.636   3.611  0.2326  0.4904  0.8963
 5581SOL     OW23600   5.760   2.206   9.963  0.2027  0.3183 -0.6304
 5581SOL    HW123601   5.678   2.196   9.915  1.2248  0.6626 -2.5419
 5581SOL    HW223602   5.740   2.270  10.032 -1.4820 -0.7259 -0.0960
 5582SOL     OW23603   1.839   0.660  11.655 -0.3665  0.4438 -0.3584
 5582SOL    HW123604   1.919   0.626  11.614 -1.6353 -1.7420 -1.1841
 5582SOL    HW223605   1.809   0.588  11.711 -1.1493  1.6770  0.8486
 5583SOL     OW23606   2.035   4.206   7.693 -0.2937  0.4888  0.5031
 5583SOL    HW123607   2.011   4.203   7.785  2.0393 -1.6756  1.1624
 5583SOL    HW223608   2.128   4.230   7.693 -0.6921  2.3633 -1.4616
 5584SOL     OW23609   8.537   1.005   0.367 -0.1977 -0.3804 -0.1746
 5584SOL    HW123610   8.617   0.954   0.385 -0.6084 -0.8351  0.4119
 5584SOL    HW223611   8.488   0.951   0.305  0.4751  0.4461 -1.4715
 5585SOL     OW23612   5.184  12.069   5.999 -0.5043  0.0140  0.0116
 5585SOL    HW123613   5.175  12.049   6.092 -0.9729 -1.0629 -0.2571
 5585SOL    HW223614   5.191  11.984   5.956 -0.8285  0.4819 -1.0027
 5586SOL     OW23615   4.081   8.938   7.208  0.8532 -0.3887 -0.3638
 5586SOL    HW123616   4.072   8.845   7.231 -0.9760 -0.4672 -1.1779
 5586SOL    HW223617   4.166   8.943   7.164  0.9207 -1.7104 -0.4417
 5587SOL     OW23618  10.543   9.235   2.761 -0.4520  0.3236 -0.2530
 5587SOL    HW123619  10.483   9.162   2.749 -1.1675  0.9801 -0.7548
 5587SOL    HW223620  10.531   9.261   2.852  0.3878 -0.6709  0.1622
 5588SOL     OW23621   4.038   6.715  10.881  0.3592  0.4757  0.0238
 5588SOL    HW123622   4.041   6.714  10.976 -0.7065 -0.9797  0.0707
 5588SOL    HW223623   4.096   6.644  10.854 -2.1995 -1.6482 -0.2346
 5589SOL     OW23624  10.604   5.786   5.867  0.0962  0.2586 -0.5189
 5589SOL    HW123625  10.693   5.814   5.842  0.4570  0.3036  0.7570
 5589SOL    HW223626  10.616   5.703   5.913 -0.2201  1.4076  1.7911
 5590SOL     OW23627   9.111   2.474  12.552  0.1756 -0.5369 -0.8219
 5590SOL    HW123628   9.051   2.498  12.482 -0.0450 -0.6042 -0.6558
 5590SOL    HW223629   9.190   2.444  12.507  0.2778  0.0473 -1.0376
 5591SOL     OW23630   8.641   5.340   3.049  0.1111  0.0008 -0.6018
 5591SOL    HW123631   8.656   5.434   3.038  1.9162 -0.2640 -0.7929
 5591SOL    HW223632   8.719   5.309   3.095 -0.0256 -1.5533 -1.3630
 5592SOL     OW23633   8.262   3.027   6.143 -0.0585 -0.8787  0.3004
 5592SOL    HW123634   8.256   3.041   6.048 -0.5544  0.6681  0.5230
 5592SOL    HW223635   8.271   2.932   6.153  0.5450 -1.0340 -1.3134
 5593SOL     OW23636   6.421  12.503   8.367  0.0421 -0.4155 -0.9884
 5593SOL    HW123637   6.505  12.546   8.383  0.2416 -1.2071  0.2852
 5593SOL    HW223638   6.433  12.458   8.283  0.3935  0.6309 -1.5074
 5594SOL     OW23639  10.057   3.332   7.264  0.1571 -0.3038 -0.3354
 5594SOL    HW123640  10.140   3.302   7.227  0.4622  0.9256 -0.6775
 5594SOL    HW223641   9.995   3.329   7.191  0.2546  0.1422 -0.4386
 5595SOL     OW23642  10.522   5.876   9.259  0.2324  0.6464 -0.1841
 5595SOL    HW123643  10.439   5.905   9.299 -0.8043 -3.1635  0.8028
 5595SOL    HW223644  10.589   5.904   9.322 -0.6938  0.7027  0.8173
 5596SOL     OW23645  10.267   3.939   0.298 -0.1907 -0.2267 -0.0303
 5596SOL    HW123646  10.231   3.851   0.304 -1.4735  0.3149  0.7433
 5596SOL    HW223647  10.293   3.948   0.206 -0.1278 -1.3642 -0.1378
 5597SOL     OW23648   6.083  10.314   6.771  0.4517  0.1450  0.4424
 5597SOL    HW123649   6.113  10.369   6.843  0.2071  1.8944 -0.7313
 5597SOL    HW223650   5.988  10.317   6.777  0.4380 -0.6053  0.6804
 5598SOL     OW23651   3.293   6.614   5.996 -0.2627 -0.1844  0.3661
 5598SOL    HW123652   3.325   6.703   6.005 -0.5299  0.0371 -0.7336
 5598SOL    HW223653   3.208   6.623   5.952 -0.9295 -0.8951  1.4427
 5599SOL     OW23654  10.885   1.701   9.683  0.4617 -0.2761  0.2097
 5599SOL    HW123655  10.843   1.783   9.710 -1.9609 -1.2809 -0.2624
 5599SOL    HW223656  10.902   1.655   9.766  1.2420  0.3754  0.4359
 5600SOL     OW23657   2.732   2.210   1.926  0.3458  0.2411  0.6803
 5600SOL    HW123658   2.774   2.255   1.852  1.3417 -0.7262  0.6250
 5600SOL    HW223659   2.696   2.281   1.980  1.2716  1.0719  0.2511
 5601SOL     OW23660   9.752   7.374   1.713 -0.0036  0.3934  0.4145
 5601SOL    HW123661   9.727   7.365   1.805 -0.8097  1.7311  0.3516
 5601SOL    HW223662   9.798   7.458   1.708  2.7648 -1.0223  0.1117
 5602SOL     OW23663   5.774   7.417   2.030 -0.2367 -0.2744  0.3420
 5602SOL    HW123664   5.837   7.404   2.101  0.1543 -0.1005  0.0349
 5602SOL    HW223665   5.696   7.370   2.058  0.6338 -2.0576 -0.0922
 5603SOL     OW23666   2.803   3.854   7.561 -0.2246  0.6363 -0.2289
 5603SOL    HW123667   2.787   3.866   7.655  3.6207  0.6662  0.5994
 5603SOL    HW223668   2.775   3.764   7.544 -0.1850  0.3191  1.1996
 5604SOL     OW23669   5.515   7.751   0.770 -0.1744  0.0785 -0.5428
 5604SOL    HW123670   5.479   7.669   0.804  1.5514  0.0133  1.3112
 5604SOL    HW223671   5.498   7.815   0.839  0.6747  0.6935 -0.8908
 5605SOL     OW23672   8.686   4.535  11.713 -0.1595 -0.4473  0.0484
 5605SOL    HW123673   8.739   4.568  11.640 -1.4284 -1.9537 -1.6493
 5605SOL    HW223674   8.745   4.476  11.759  1.1640  1.7349  1.2934
 5606SOL     OW23675  10.671  12.227   0.624 -0.3333  0.0641  0.2975
 5606SOL    HW123676  10.687  12.158   0.688 -0.3594  0.1116  0.3541
 5606SOL    HW223677  10.661  12.307   0.675 -0.4169  0.0917  0.2401
 5607SOL     OW23678   2.446   8.563   9.601 -0.2162  0.8328 -0.1358
 5607SOL    HW123679   2.381   8.603   9.659 -0.2158 -0.3184  0.7165
 5607SOL    HW223680   2.449   8.620   9.525 -1.5087  1.4463  0.2355
 5608SOL     OW23681  10.070   6.577   9.453 -0.5220 -0.7649 -0.0526
 5608SOL    HW123682  10.000   6.618   9.403 -1.8021 -0.5134  1.8249
 5608SOL    HW223683  10.148   6.628   9.433 -1.4905  0.7982  0.0224
 5609SOL     OW23684  11.219   4.509   9.808  0.2889 -0.7023 -0.2183
 5609SOL    HW123685  11.183   4.508   9.897  1.5791 -0.3743  0.3361
 5609SOL    HW223686  11.292   4.447   9.811 -0.2929 -1.4553 -1.3432
 5610SOL     OW23687   1.087   6.676  10.350 -0.5345  0.2559 -0.7834
 5610SOL    HW123688   1.130   6.686  10.265 -1.0465 -0.0283 -1.0778
 5610SOL    HW223689   1.091   6.763  10.389  0.9093  0.1054 -0.5143
 5611SOL     OW23690   7.912  11.303   6.886 -0.2131 -0.1198  0.4173
 5611SOL    HW123691   8.005  11.286   6.900 -0.2185 -1.6604 -1.0800
 5611SOL    HW223692   7.909  11.352   6.803 -0.7099  0.5558  0.8199
 5612SOL     OW23693   5.503   0.523   4.905  0.1675 -0.0953 -0.1641
 5612SOL    HW123694   5.490   0.472   4.985 -0.7263  1.0609  0.4590
 5612SOL    HW223695   5.422   0.574   4.896  0.7418  0.6686 -1.1610
 5613SOL     OW23696   3.351   8.339   3.236 -0.2508  0.1933  0.7614
 5613SOL    HW123697   3.258   8.344   3.259 -1.0741 -2.6793 -1.3021
 5613SOL    HW223698   3.367   8.418   3.185 -1.3098  1.1353  1.8337
 5614SOL     OW23699   8.110   9.838   9.421 -0.1716 -0.3891 -0.1035
 5614SOL    HW123700   8.075   9.792   9.344 -0.2020  0.0135 -0.3293
 5614SOL    HW223701   8.199   9.863   9.396 -0.0240 -0.6455  0.1549
 5615SOL     OW23702  11.469   2.866   6.387 -0.0643 -0.3735  0.2215
 5615SOL    HW123703  11.531   2.939   6.396 -0.4804  0.1269 -0.8166
 5615SOL    HW223704  11.455   2.835   6.477  1.8519 -0.6476  0.4694
 5616SOL     OW23705   3.744  12.343  11.656 -0.9627  0.9674 -0.5499
 5616SOL    HW123706   3.657  12.317  11.687  0.3494 -3.0622  0.2641
 5616SOL    HW223707   3.773  12.408  11.720 -1.9445 -0.3968  1.3740
 5617SOL     OW23708  12.506  10.064   8.670 -0.5848  0.1502 -0.6024
 5617SOL    HW123709  12.521  10.156   8.692 -0.7457 -0.0612  0.4316
 5617SOL    HW223710  12.424  10.064   8.621  0.1335  0.7110 -1.8578
 5618SOL     OW23711   4.102   5.339   1.743  0.5081  0.2780 -0.1398
 5618SOL    HW123712   4.172   5.383   1.791  1.3152 -1.6127  0.5115
 5618SOL    HW223713   4.036   5.407   1.730  1.1547  1.3839  1.8618
 5619SOL     OW23714   8.451   3.116   3.554 -0.1199 -0.1852 -0.4608
 5619SOL    HW123715   8.417   3.120   3.643 -0.2973 -0.1421 -0.5315
 5619SOL    HW223716   8.546   3.120   3.565 -0.1228  3.4319 -0.4262
 5620SOL     OW23717  12.351   9.788   7.405 -0.2435 -0.1999 -0.2437
 5620SOL    HW123718  12.354   9.714   7.465 -0.3523 -0.1651 -0.1936
 5620SOL    HW223719  12.300   9.855   7.452  0.1667  0.0414 -0.1395
 5621SOL     OW23720   2.227   2.470  10.273  0.2839 -0.0519 -0.0332
 5621SOL    HW123721   2.295   2.537  10.280  0.3199 -0.0042 -0.7667
 5621SOL    HW223722   2.180   2.491  10.192 -1.3448  0.5843  1.0148
 5622SOL     OW23723  12.223   6.248   4.913  0.0894  0.3886 -0.0786
 5622SOL    HW123724  12.314   6.263   4.938  1.1533 -2.0983 -1.9904
 5622SOL    HW223725  12.179   6.225   4.995  1.7512 -0.6207  0.5836
 5623SOL     OW23726   2.212   0.501   8.567 -0.6887  0.2612  0.0534
 5623SOL    HW123727   2.304   0.480   8.554 -0.6288 -1.0357  2.0652
 5623SOL    HW223728   2.166   0.459   8.495  0.3322  1.9616 -1.6839
 5624SOL     OW23729   9.306  12.189  10.881  0.6583 -0.3854  0.2543
 5624SOL    HW123730   9.211  12.188  10.876  0.6555  0.2438  0.2155
 5624SOL    HW223731   9.335  12.174  10.791  0.5969 -0.2842  0.2174
 5625SOL     OW23732   6.159   1.239  10.322 -0.4683  0.2995  0.1287
 5625SOL    HW123733   6.199   1.283  10.398  2.7793 -0.4086 -1.0072
 5625SOL    HW223734   6.201   1.279  10.247 -0.7715 -1.6313 -1.1338
 5626SOL     OW23735   6.160   4.123   5.984 -0.0591  0.2944  0.2010
 5626SOL    HW123736   6.103   4.084   6.050 -0.1272 -1.0910 -0.6263
 5626SOL    HW223737   6.167   4.215   6.008 -1.4770  0.1754  1.1349
 5627SOL     OW23738   9.703   1.402   2.661 -0.5272 -0.9986  0.1167
 5627SOL    HW123739   9.762   1.474   2.640  0.9385 -1.9991  0.6087
 5627SOL    HW223740   9.692   1.355   2.578 -1.2814 -0.3686 -0.1480
 5628SOL     OW23741  11.937   0.292   9.982  0.1513 -0.2815  0.2627
 5628SOL    HW123742  11.904   0.364   9.929  1.2444  0.1669  0.1571
 5628SOL    HW223743  11.914   0.316  10.072  1.4644  0.7908  0.3567
 5629SOL     OW23744   8.423   5.531  12.088  0.7565  0.0095  0.0283
 5629SOL    HW123745   8.453   5.451  12.045  0.6138  0.4825 -0.9894
 5629SOL    HW223746   8.475   5.537  12.168  2.3308  0.0119 -0.9473
 5630SOL     OW23747  11.801  10.727  11.786 -0.2614  0.4467  0.0445
 5630SOL    HW123748  11.789  10.806  11.734 -0.1072 -0.1169 -0.8836
 5630SOL    HW223749  11.857  10.671  11.732 -0.1180 -0.1687  0.8123
 5631SOL     OW23750   5.621   7.878   6.435  0.1470 -0.9098 -0.4847
 5631SOL    HW123751   5.569   7.829   6.371  1.0204 -0.0506 -1.9214
 5631SOL    HW223752   5.650   7.812   6.498 -1.6217 -1.6087 -0.3507
 5632SOL     OW23753   7.003  10.224   7.948  0.0059 -0.3238 -0.2162
 5632SOL    HW123754   6.911  10.242   7.963 -1.0802 -4.5853 -0.5963
 5632SOL    HW223755   7.037  10.198   8.033  0.5243 -0.0371 -0.3303
 5633SOL     OW23756   5.899   5.441   8.121 -0.3252  0.9560 -0.3115
 5633SOL    HW123757   5.834   5.465   8.055 -1.0485  1.5526  0.5953
 5633SOL    HW223758   5.966   5.509   8.115 -0.1916  0.7927 -0.6912
 5634SOL     OW23759   5.951   4.761   3.045  0.4973 -0.1892 -0.4698
 5634SOL    HW123760   6.043   4.783   3.063  0.1591  1.4584 -0.6572
 5634SOL    HW223761   5.918   4.835   2.994 -0.3558 -1.7479 -2.3074
 5635SOL     OW23762   6.373   0.961   9.330  0.1648 -0.3854 -0.5067
 5635SOL    HW123763   6.435   1.001   9.392  0.0357 -0.3839 -0.3777
 5635SOL    HW223764   6.311   0.913   9.385  0.5757 -1.1342 -0.6859
 5636SOL     OW23765   0.043   0.348  10.546  0.1001  0.0940  0.4741
 5636SOL    HW123766  -0.040   0.387  10.522  0.4219  0.3468 -0.2541
 5636SOL    HW223767   0.056   0.372  10.638 -1.0018 -0.6222  0.8427
 5637SOL     OW23768   8.096   5.451   0.169  0.6388 -0.0476  0.3835
 5637SOL    HW123769   8.044   5.385   0.215 -0.0637 -0.9187 -1.5716
 5637SOL    HW223770   8.031   5.511   0.133  1.2100  0.9622  0.9892
 5638SOL     OW23771   0.511   0.246   0.798 -0.1658  0.0111  0.2042
 5638SOL    HW123772   0.532   0.339   0.807  0.6849 -0.2385  0.9119
 5638SOL    HW223773   0.430   0.235   0.846 -1.1006  0.6614 -1.1460
 5639SOL     OW23774   0.350  10.374   4.343  0.1667  0.3455  0.2843
 5639SOL    HW123775   0.377  10.387   4.434 -2.0185  2.3007  0.7587
 5639SOL    HW223776   0.260  10.340   4.350  0.5060 -0.9552 -1.1722
 5640SOL     OW23777   3.631   6.484   7.652  0.2837 -0.2244  0.6226
 5640SOL    HW123778   3.699   6.481   7.585 -0.2140 -1.4935  0.1374
 5640SOL    HW223779   3.590   6.398   7.648 -0.7856  0.2207  1.4970
 5641SOL     OW23780   3.111  11.104   2.539  0.0427 -0.7879  0.3421
 5641SOL    HW123781   3.124  11.065   2.625  1.3045  1.6348  1.3665
 5641SOL    HW223782   3.027  11.150   2.546  1.9520  2.9542  1.9569
 5642SOL     OW23783   8.349  11.851   9.941  0.2364 -0.1013 -0.0230
 5642SOL    HW123784   8.361  11.821   9.850  1.0330 -1.1998  0.4228
 5642SOL    HW223785   8.341  11.946   9.933 -0.8361 -0.2572 -1.3463
 5643SOL     OW23786   8.403   4.328   3.566 -0.5079  0.3822  0.2372
 5643SOL    HW123787   8.425   4.331   3.659  0.9374 -0.0765 -0.0584
 5643SOL    HW223788   8.390   4.235   3.547 -1.4996  0.5345  0.1180
 5644SOL     OW23789   4.548   0.840   3.455 -0.0902  0.2298  0.7991
 5644SOL    HW123790   4.606   0.915   3.456  0.7769 -0.4289  1.9486
 5644SOL    HW223791   4.607   0.764   3.451 -0.9204 -0.4191  0.4143
 5645SOL     OW23792   6.294  11.126   6.125 -0.0330  0.3582 -0.4850
 5645SOL    HW123793   6.364  11.127   6.060 -0.8074 -0.4726 -1.3427
 5645SOL    HW223794   6.341  11.128   6.209  1.0576 -1.0638 -1.0200
 5646SOL     OW23795   6.850   2.680   6.332 -0.2990 -0.1918  0.5839
 5646SOL    HW123796   6.820   2.636   6.412 -1.2884 -0.0848  0.2875
 5646SOL    HW223797   6.841   2.613   6.263 -0.5838  0.0811  0.3549
 5647SOL     OW23798   2.987   1.690   1.479  0.8833 -1.1421 -0.4872
 5647SOL    HW123799   3.047   1.674   1.405 -0.1295  0.7759 -1.7910
 5647SOL    HW223800   2.937   1.767   1.453 -2.0301 -2.5143  0.6509
 5648SOL     OW23801   7.973   9.278   3.224  0.0527 -0.8867  0.3336
 5648SOL    HW123802   8.033   9.302   3.294  1.2079  0.6901 -1.0901
 5648SOL    HW223803   8.019   9.208   3.177 -1.3441 -2.9657  1.8774
 5649SOL     OW23804   5.151   8.932   6.589  0.1915 -0.3176 -0.8440
 5649SOL    HW123805   5.109   8.969   6.512  0.4470  0.6323 -0.5390
 5649SOL    HW223806   5.189   8.850   6.559  1.6830  0.7892 -2.1401
 5650SOL     OW23807  12.034   7.370   4.702 -0.0181 -0.2207 -0.1799
 5650SOL    HW123808  12.065   7.414   4.780 -2.0867 -3.0366  2.4633
 5650SOL    HW223809  12.113   7.329   4.664  0.6621 -1.1813  2.1296
 5651SOL     OW23810  10.626   1.421   0.093 -0.2158  0.2441 -0.0508
 5651SOL    HW123811  10.683   1.462   0.028 -1.2044 -0.2989 -1.3058
 5651SOL    HW223812  10.674   1.344   0.123 -0.1298 -0.0057 -0.8189
 5652SOL     OW23813   3.851   2.281   1.331 -0.2190  0.5267 -0.1887
 5652SOL    HW123814   3.756   2.277   1.340 -0.2752  0.1539 -0.8848
 5652SOL    HW223815   3.868   2.257   1.240  0.4959  1.3804 -0.2955
 5653SOL     OW23816   4.546   6.405   7.276  0.4477  0.4361 -0.2045
 5653SOL    HW123817   4.634   6.410   7.240  2.0530  1.0946  3.4325
 5653SOL    HW223818   4.548   6.460   7.354 -2.9745 -0.1440  0.4550
 5654SOL     OW23819   4.051  11.063  11.185  0.4594 -0.0373 -0.0887
 5654SOL    HW123820   4.045  11.013  11.104  0.1827  0.9929 -0.7294
 5654SOL    HW223821   4.097  11.143  11.160 -0.7633  0.8634  0.4748
 5655SOL     OW23822  10.408  11.387   3.305  0.1468 -0.2134  0.1213
 5655SOL    HW123823  10.412  11.471   3.260  0.1226 -1.6973 -2.8866
 5655SOL    HW223824  10.360  11.405   3.386 -1.1303  2.3742 -1.1069
 5656SOL     OW23825   4.173   2.262   5.023 -0.1940 -0.6737 -0.2008
 5656SOL    HW123826   4.236   2.189   5.021  1.0439  0.3286  0.8546
 5656SOL    HW223827   4.108   2.236   5.088 -0.1944 -1.1557 -0.3840
 5657SOL     OW23828  11.021   9.012   5.215 -0.1370 -0.3374 -0.3685
 5657SOL    HW123829  11.057   9.096   5.245  0.1238  1.0274 -3.9672
 5657SOL    HW223830  11.097   8.963   5.184 -0.6242 -0.3534 -1.5983
 5658SOL     OW23831   3.736  11.228  11.374 -0.0265 -0.3348 -0.2229
 5658SOL    HW123832   3.751  11.261  11.285 -0.3068  1.7071  0.4511
 5658SOL    HW223833   3.823  11.202  11.405  0.4624  1.1872 -0.2575
 5659SOL     OW23834  11.561   0.739   2.387  0.4790  0.4842 -0.0858
 5659SOL    HW123835  11.495   0.734   2.317  1.0178  0.5190 -0.6025
 5659SOL    HW223836  11.591   0.829   2.385  1.2917  0.2102 -0.5521
 5660SOL     OW23837  10.934   4.567  12.575 -0.2474  0.3015 -0.0568
 5660SOL    HW123838  11.020   4.526  12.588 -1.0125 -1.4883 -0.3372
 5660SOL    HW223839  10.872   4.496  12.587 -1.6403  1.2899 -1.1205
 5661SOL     OW23840   8.976   9.881  10.418  0.6378 -0.3136  0.0957
 5661SOL    HW123841   8.974   9.956  10.358 -1.9258 -0.1914  0.2083
 5661SOL    HW223842   9.016   9.811  10.367  0.6711  0.4179 -0.9289
 5662SOL     OW23843   5.656  12.318   2.853  0.1612  0.0200 -0.1057
 5662SOL    HW123844   5.621  12.246   2.801 -0.8985 -1.7188  2.7773
 5662SOL    HW223845   5.584  12.381   2.859  0.0784 -0.0620 -0.2488
 5663SOL     OW23846   7.852   0.647   7.446 -0.3983 -0.3611  0.0832
 5663SOL    HW123847   7.941   0.614   7.462 -0.6936 -0.2213  2.3218
 5663SOL    HW223848   7.797   0.596   7.505 -1.4350  1.2992  0.5952
 5664SOL     OW23849  12.391  12.183  10.612  0.5456 -0.1573  0.3743
 5664SOL    HW123850  12.385  12.096  10.652  1.7150  0.6607  2.4749
 5664SOL    HW223851  12.453  12.171  10.540 -2.4375 -1.9071 -2.1092
 5665SOL     OW23852   9.329   6.389   1.426  0.1277  0.1396 -0.1013
 5665SOL    HW123853   9.369   6.337   1.356  0.4105  0.3950 -0.1331
 5665SOL    HW223854   9.398   6.398   1.491 -0.2867 -0.4968  0.4259
 5666SOL     OW23855  11.352   2.500   0.193  0.5553  0.0328 -0.5543
 5666SOL    HW123856  11.417   2.430   0.181 -0.2087 -0.6269 -0.9596
 5666SOL    HW223857  11.354   2.549   0.110 -0.5716 -0.9646 -1.2088
 5667SOL     OW23858   4.789   8.346   2.134  0.2378  0.0462 -0.0315
 5667SOL    HW123859   4.705   8.390   2.125 -0.5771 -1.3968  0.1984
 5667SOL    HW223860   4.783   8.269   2.078  1.0855 -0.5185  0.6087
 5668SOL     OW23861  12.330  11.331   3.542 -0.4387  0.0139 -0.2444
 5668SOL    HW123862  12.372  11.264   3.488 -0.8380  0.2429 -0.8586
 5668SOL    HW223863  12.384  11.409   3.530  1.2324 -0.6681  2.0895
 5669SOL     OW23864   6.425   1.477   9.782 -0.0335  0.5708 -0.5511
 5669SOL    HW123865   6.407   1.503   9.872 -2.9552  2.9555 -1.6797
 5669SOL    HW223866   6.514   1.508   9.765  0.8705 -0.6028  1.6632
 5670SOL     OW23867   4.054   5.804   5.506 -0.3491 -0.0556 -0.0856
 5670SOL    HW123868   4.035   5.765   5.592 -1.0355 -2.8624 -1.4002
 5670SOL    HW223869   3.969   5.830   5.472 -0.0999  0.8771 -0.0175
 5671SOL     OW23870   8.140   2.469   4.712 -0.1944  0.0348 -0.2242
 5671SOL    HW123871   8.056   2.456   4.668  0.6566  0.3804 -2.0327
 5671SOL    HW223872   8.184   2.384   4.705 -0.0137  0.1192 -0.1057
 5672SOL     OW23873   8.915   5.969   7.179 -0.1663 -0.4992 -0.3033
 5672SOL    HW123874   8.893   6.057   7.149 -0.9033 -0.5308  0.1363
 5672SOL    HW223875   8.859   5.954   7.254  1.7560 -0.3633  1.2579
 5673SOL     OW23876   4.623   4.134   1.133 -0.2166  0.1596  0.5730
 5673SOL    HW123877   4.714   4.122   1.105  0.2276  0.5219  1.7592
 5673SOL    HW223878   4.611   4.229   1.134 -0.2378  0.1535  1.5041
 5674SOL     OW23879   7.433   4.108  10.951  0.3234 -0.9259 -0.5023
 5674SOL    HW123880   7.495   4.178  10.931  0.6666 -0.9612  0.3914
 5674SOL    HW223881   7.416   4.066  10.866  1.7774 -1.1273 -0.7185
 5675SOL     OW23882   1.080   9.078   5.269  0.5456 -0.0089  0.4076
 5675SOL    HW123883   1.033   9.054   5.350 -0.4611  1.3972  0.2737
 5675SOL    HW223884   1.043   9.162   5.244  0.6304 -0.5329 -1.6927
 5676SOL     OW23885   5.969   0.021   3.969  0.0267 -0.5059  0.1987
 5676SOL    HW123886   5.896  -0.016   4.019 -0.1391  2.7582  2.6602
 5676SOL    HW223887   6.047  -0.006   4.017  0.2570 -1.3927 -0.6459
 5677SOL     OW23888   6.181  11.429   9.873 -0.1043 -0.1845 -0.3986
 5677SOL    HW123889   6.196  11.458   9.783  0.6117  0.8949  0.0532
 5677SOL    HW223890   6.243  11.357   9.885 -0.1651 -0.2981 -0.7359
 5678SOL     OW23891   1.476   8.653   1.411  0.3383 -0.2849 -0.2688
 5678SOL    HW123892   1.519   8.678   1.330 -0.1785  0.5326 -0.3043
 5678SOL    HW223893   1.385   8.680   1.400  0.0731 -0.9232  0.2583
 5679SOL     OW23894   0.035  11.365   8.614 -0.0598  0.0812  0.1414
 5679SOL    HW123895  -0.039  11.414   8.579 -1.1327 -0.6682  1.2548
 5679SOL    HW223896   0.113  11.413   8.584 -1.0210  1.6169  0.0046
 5680SOL     OW23897  10.712  11.618  11.721 -0.3883 -0.6784  0.1487
 5680SOL    HW123898  10.752  11.690  11.771 -1.4492 -0.3367  0.5501
 5680SOL    HW223899  10.664  11.662  11.651 -0.5717 -1.0289  0.0523
 5681SOL     OW23900   2.569  11.340   4.065  0.3233 -0.0204 -0.3114
 5681SOL    HW123901   2.573  11.427   4.106  0.3529  0.2667 -0.9029
 5681SOL    HW223902   2.511  11.289   4.121  0.1539  0.4417 -0.0631
 5682SOL     OW23903   8.145   8.129   3.438 -0.9717  0.4321 -0.7581
 5682SOL    HW123904   8.059   8.094   3.460 -0.3600 -0.0771  0.9911
 5682SOL    HW223905   8.192   8.055   3.400 -0.3245 -0.1852  1.1392
 5683SOL     OW23906   7.582   9.212   7.697  0.4851 -0.1012 -0.4357
 5683SOL    HW123907   7.629   9.134   7.669  1.9956  1.1763 -1.6185
 5683SOL    HW223908   7.489   9.188   7.690  0.9027 -1.9271 -0.2649
 5684SOL     OW23909   0.546   1.308   2.973  0.5074 -0.3890  0.1792
 5684SOL    HW123910   0.567   1.302   2.880 -0.3305  3.2318 -0.3941
 5684SOL    HW223911   0.472   1.248   2.985 -0.3729  0.1921 -1.8873
 5685SOL     OW23912   3.930   0.982   0.726  0.0576  0.0319  0.2645
 5685SOL    HW123913   3.992   1.043   0.685 -1.8494  0.0029 -2.9930
 5685SOL    HW223914   3.888   1.034   0.795 -0.2664  1.9407 -1.2685
 5686SOL     OW23915   5.004  11.915  10.323  0.1854 -0.0888  0.1067
 5686SOL    HW123916   5.075  11.928  10.261  0.3414 -1.1071  0.0412
 5686SOL    HW223917   5.045  11.922  10.409 -0.3340  3.0560  0.2167
 5687SOL     OW23918   4.077   6.905   9.246  0.9647  0.1133 -0.0029
 5687SOL    HW123919   4.098   6.910   9.339  0.7435  0.2178  0.0409
 5687SOL    HW223920   4.059   6.996   9.221  0.1139 -0.0308  0.0604
 5688SOL     OW23921   7.164   3.398   5.851 -0.2081 -0.1198  0.0863
 5688SOL    HW123922   7.204   3.477   5.888  1.1985 -0.9832  0.4714
 5688SOL    HW223923   7.238   3.341   5.829 -1.0486 -3.3147  4.1662
 5689SOL     OW23924   2.726   7.047   1.041 -0.4662  0.1865 -0.1666
 5689SOL    HW123925   2.645   7.022   1.087 -0.7495  0.0560 -0.7235
 5689SOL    HW223926   2.783   7.081   1.110 -1.8968  2.6537 -0.0438
 5690SOL     OW23927   7.188   5.670   3.215  0.4672 -0.0213 -0.4591
 5690SOL    HW123928   7.140   5.724   3.151 -2.1169 -0.5168  0.9014
 5690SOL    HW223929   7.202   5.587   3.169 -0.1745  0.0760 -0.8590
 5691SOL     OW23930   1.227   1.403   1.469 -0.1580  0.3030 -0.6687
 5691SOL    HW123931   1.199   1.406   1.378  0.7208  0.9887 -0.9291
 5691SOL    HW223932   1.146   1.394   1.519 -0.5709 -1.0855 -1.5518
 5692SOL     OW23933   9.635   8.520   9.176  0.9353 -0.6370  0.8319
 5692SOL    HW123934   9.617   8.580   9.104  0.5127 -0.6342  0.9377
 5692SOL    HW223935   9.553   8.471   9.188  1.5392 -1.8720  0.1507
 5693SOL     OW23936   1.024   8.797   7.031  0.4070  0.0123 -0.9949
 5693SOL    HW123937   0.967   8.855   6.981 -1.3461  0.4218  1.3348
 5693SOL    HW223938   0.966   8.732   7.069  1.3515  0.6035  1.7209
 5694SOL     OW23939   7.380   1.011   6.501 -0.4227 -0.1909  0.2721
 5694SOL    HW123940   7.438   1.015   6.424 -0.9177  0.0873 -0.0970
 5694SOL    HW223941   7.349   0.921   6.503 -0.6457 -0.1246 -0.0407
 5695SOL     OW23942   9.982   5.819   7.634 -0.0702 -0.2594  0.0987
 5695SOL    HW123943  10.034   5.830   7.555 -0.1154  2.1227  0.3514
 5695SOL    HW223944  10.025   5.873   7.699  0.3287 -2.6520  1.9721
 5696SOL     OW23945   6.376   5.666   9.274 -0.3387  0.3121 -0.3366
 5696SOL    HW123946   6.440   5.599   9.298 -1.0926 -0.0850  0.6070
 5696SOL    HW223947   6.417   5.748   9.302  0.9657  0.3850 -2.2662
 5697SOL     OW23948   1.594   4.602   7.180  0.7517  0.1523  0.6862
 5697SOL    HW123949   1.542   4.578   7.103 -0.1269  1.9132  0.6862
 5697SOL    HW223950   1.684   4.579   7.156  0.3250 -0.4262 -0.4016
 5698SOL     OW23951   9.158   5.347   3.083  0.0620 -0.2419  0.0267
 5698SOL    HW123952   9.158   5.404   3.006  0.2846 -0.1458  0.0966
 5698SOL    HW223953   9.193   5.402   3.153 -0.3586 -0.2560  0.2519
 5699SOL     OW23954   6.068   1.693  12.330  0.5225 -0.0418  0.4599
 5699SOL    HW123955   5.984   1.740  12.328 -0.5087 -1.7703 -2.3779
 5699SOL    HW223956   6.133   1.757  12.301 -0.4669  0.3403 -1.0303
 5700SOL     OW23957   8.752   8.366   6.659 -0.4180 -0.3551 -0.2446
 5700SOL    HW123958   8.663   8.387   6.686 -0.2471 -0.5413  0.4917
 5700SOL    HW223959   8.774   8.286   6.707  0.1861 -0.2466 -0.3235
 5701SOL     OW23960   2.560   0.222  10.680  0.4950  0.0633  0.7228
 5701SOL    HW123961   2.530   0.230  10.771  0.5345  0.7323  0.6881
 5701SOL    HW223962   2.652   0.195  10.688  0.3496 -0.3986  0.8659
 5702SOL     OW23963   3.906   2.355  11.305 -0.6959 -0.2632 -0.1265
 5702SOL    HW123964   3.943   2.335  11.220  0.5576 -0.1358  0.3702
 5702SOL    HW223965   3.874   2.271  11.338  0.0993 -0.5732 -0.1308
 5703SOL     OW23966   6.145   3.144   5.079  0.0722 -0.2353  0.2083
 5703SOL    HW123967   6.180   3.134   4.990  0.1879  2.9835 -0.2244
 5703SOL    HW223968   6.106   3.059   5.099  0.6714 -1.2919 -2.6256
 5704SOL     OW23969  10.196   6.923   1.574  0.3258 -0.1006 -0.9081
 5704SOL    HW123970  10.221   6.918   1.667  0.4954 -1.9822 -1.0104
 5704SOL    HW223971  10.115   6.973   1.573  1.7571  2.4132 -0.0841
 5705SOL     OW23972   7.589   2.053   7.207  0.1800 -0.1937  0.3506
 5705SOL    HW123973   7.560   2.089   7.124 -1.1183  1.3949  1.4274
 5705SOL    HW223974   7.515   2.066   7.266  2.3370  2.3619  2.7789
 5706SOL     OW23975  11.829   3.594   2.936 -0.1790  0.0964 -0.2857
 5706SOL    HW123976  11.824   3.532   3.009  0.5504  0.8602  0.4403
 5706SOL    HW223977  11.907   3.568   2.887  0.9977  1.2961  0.8712
 5707SOL     OW23978   4.327  12.009   0.303  0.1371  0.2835  0.0204
 5707SOL    HW123979   4.241  12.046   0.282 -0.4666 -0.9561  0.1852
 5707SOL    HW223980   4.344  12.040   0.392  0.1363  1.0033 -0.2215
 5708SOL     OW23981   9.200   1.483   0.405  0.3277 -0.2248  0.3212
 5708SOL    HW123982   9.137   1.523   0.464  0.3571  0.1184  0.1203
 5708SOL    HW223983   9.277   1.466   0.459  0.6524  0.8247  0.2001
 5709SOL     OW23984  12.010   1.527   9.381  0.4718 -0.7699 -0.3367
 5709SOL    HW123985  12.005   1.526   9.286 -0.7316 -1.2552 -0.2969
 5709SOL    HW223986  12.044   1.440   9.404 -2.1070 -1.8448 -0.2637
 5710SOL     OW23987   8.765   0.388  11.250 -0.2209 -0.4802 -0.0015
 5710SOL    HW123988   8.782   0.474  11.287  1.1466 -0.0984 -1.4166
 5710SOL    HW223989   8.739   0.334  11.325 -0.0696  0.8905  1.0669
 5711SOL     OW23990   8.542   1.110   9.658  0.6057 -0.3991  1.0143
 5711SOL    HW123991   8.495   1.121   9.576 -0.1359 -1.7195  1.2420
 5711SOL    HW223992   8.606   1.182   9.658  0.5096 -0.2697 -0.6147
 5712SOL     OW23993  10.628   9.645  11.025  0.1992  0.4213  0.0385
 5712SOL    HW123994  10.590   9.732  11.032 -0.8230  0.0100 -0.2254
 5712SOL    HW223995  10.713   9.652  11.069  1.2622  2.1852 -2.1525
 5713SOL     OW23996   1.813   2.154   8.270 -0.1662  0.2561 -0.2281
 5713SOL    HW123997   1.827   2.066   8.236  0.0733 -0.0393  0.6040
 5713SOL    HW223998   1.898   2.197   8.261  0.4612 -0.4338  1.6669
 5714SOL     OW23999   8.391   5.620   9.715 -0.1846  0.1504 -0.2181
 5714SOL    HW124000   8.373   5.588   9.803  0.9612  0.4234  0.1293
 5714SOL    HW224001   8.341   5.701   9.708  0.6611  0.7725  0.6403
 5715SOL     OW24002   4.874   2.500   1.644 -0.5929 -0.1639  0.2522
 5715SOL    HW124003   4.903   2.411   1.626  1.8382  0.7203 -0.5314
 5715SOL    HW224004   4.843   2.533   1.559  1.2458  0.6428 -0.1451
 5716SOL     OW24005   8.032   4.762   7.491  0.5451  0.3336 -0.9964
 5716SOL    HW124006   8.074   4.819   7.426 -0.9379 -0.2058 -2.5092
 5716SOL    HW224007   7.958   4.814   7.523  1.3139  0.6301  0.3985
 5717SOL     OW24008   4.631  10.472   5.845  0.4256  0.6722 -0.6950
 5717SOL    HW124009   4.563  10.515   5.794 -0.5428  0.4816  0.3858
 5717SOL    HW224010   4.645  10.530   5.920 -0.3616 -0.4712  0.3945
 5718SOL     OW24011   6.496   4.029   4.026 -0.1514  0.1611 -0.1726
 5718SOL    HW124012   6.463   4.079   4.101  0.3742  1.1991 -0.6184
 5718SOL    HW224013   6.450   4.065   3.950  0.2562 -0.0023 -0.5033
 5719SOL     OW24014   6.009   6.854  11.970 -0.5104  0.0243 -0.2549
 5719SOL    HW124015   6.043   6.765  11.962  0.2358  0.1468  1.2556
 5719SOL    HW224016   5.952   6.852  12.046 -0.0676  0.9488  0.1201
 5720SOL     OW24017  12.397   6.280   1.797 -0.2276 -0.0522  1.0023
 5720SOL    HW124018  12.479   6.234   1.780 -0.6338 -0.9315  1.3839
 5720SOL    HW224019  12.337   6.249   1.728 -1.4196 -2.4686  2.9563
 5721SOL     OW24020   5.493  11.325   7.158  0.0647  0.7603  0.3961
 5721SOL    HW124021   5.573  11.308   7.107  0.1104  0.1502  0.6689
 5721SOL    HW224022   5.491  11.420   7.166  0.0741  0.8732 -0.7245
 5722SOL     OW24023   1.637   3.579  12.237 -0.1653 -0.3973  0.0308
 5722SOL    HW124024   1.653   3.496  12.193  0.0050 -1.1888  1.5327
 5722SOL    HW224025   1.669   3.645  12.175 -1.3848 -1.3491 -1.6910
 5723SOL     OW24026   6.044  12.541   6.626  0.1828  0.4759  0.3362
 5723SOL    HW124027   5.996  12.578   6.552 -0.8514  1.2226  1.3665
 5723SOL    HW224028   6.069  12.453   6.596 -0.2253  0.7539 -0.8831
 5724SOL     OW24029   7.697   5.268   9.767 -0.4362  0.2067  0.5057
 5724SOL    HW124030   7.654   5.309   9.843 -1.6044  1.5324 -0.8090
 5724SOL    HW224031   7.632   5.207   9.733 -0.7307  1.0718 -0.5623
 5725SOL     OW24032  10.840   6.271   4.557 -0.2058 -0.0836  0.0560
 5725SOL    HW124033  10.883   6.334   4.614 -1.1738  0.3899  0.2916
 5725SOL    HW224034  10.763   6.317   4.525 -0.2310 -0.7039 -0.8132
 5726SOL     OW24035  11.487   3.230   2.925  0.4403  0.7148 -0.0586
 5726SOL    HW124036  11.479   3.319   2.961  1.0109  0.9895 -0.5898
 5726SOL    HW224037  11.579   3.207   2.938 -0.2021 -0.8766  2.4871
 5727SOL     OW24038   2.982   3.473   6.565 -0.4657 -0.1852 -0.1064
 5727SOL    HW124039   3.055   3.515   6.520 -1.4455  0.9287 -0.7107
 5727SOL    HW224040   3.011   3.462   6.655 -0.1203  1.6907  0.0437
 5728SOL     OW24041   4.280   0.962  11.099 -0.0214  0.1665 -0.2460
 5728SOL    HW124042   4.287   0.947  11.005 -0.5950 -1.7346 -0.0416
 5728SOL    HW224043   4.367   0.991  11.126  1.1142 -2.3192 -0.9264
 5729SOL     OW24044   1.907   4.287   2.956  0.1010  0.2629  0.2953
 5729SOL    HW124045   1.935   4.206   2.913  1.7288 -0.0357  1.7972
 5729SOL    HW224046   1.989   4.334   2.972 -0.7633  1.9227  0.0469
 5730SOL     OW24047   4.718   0.088   6.723  0.2731  0.5696 -0.1459
 5730SOL    HW124048   4.687   0.160   6.669 -2.0532 -0.9836 -1.0554
 5730SOL    HW224049   4.757   0.026   6.661  1.2652  0.5199  0.4947
 5731SOL     OW24050   3.707   4.383   0.085 -0.1046 -0.4076  0.1963
 5731SOL    HW124051   3.770   4.374   0.158 -0.3197  1.3717  0.6310
 5731SOL    HW224052   3.643   4.313   0.101  1.6742 -2.2403 -0.2265
 5732SOL     OW24053   1.049   6.375   1.009  0.1889  0.5728 -0.1579
 5732SOL    HW124054   1.069   6.314   1.080  1.2205 -1.5607 -2.1381
 5732SOL    HW224055   1.010   6.451   1.053 -0.9990 -1.3931  2.4868
 5733SOL     OW24056   8.857   4.210  11.248 -0.5360 -0.3384 -0.3017
 5733SOL    HW124057   8.813   4.286  11.211 -1.8738 -0.6851  0.4966
 5733SOL    HW224058   8.905   4.172  11.175 -1.7616 -0.0744 -1.2825
 5734SOL     OW24059  12.471   5.520   0.014  0.1377 -0.0230  0.1337
 5734SOL    HW124060  12.463   5.456  -0.056 -1.6937  0.1396  0.1560
 5734SOL    HW224061  12.558   5.559   0.001  0.1131 -0.4888 -1.6010
 5735SOL     OW24062  12.501   8.441   0.083 -0.0250 -0.2224  0.1851
 5735SOL    HW124063  12.518   8.467  -0.008  0.5859 -1.0367  0.0528
 5735SOL    HW224064  12.479   8.523   0.127  0.9040  0.3831 -0.4265
 5736SOL     OW24065   8.539   0.630  11.668  0.1134 -0.4147 -0.3086
 5736SOL    HW124066   8.448   0.614  11.644  0.6640 -1.4844 -1.7714
 5736SOL    HW224067   8.581   0.659  11.587  0.2676  4.1461  1.0981
 5737SOL     OW24068   8.332  12.247   6.837 -0.4152 -0.1016  0.0307
 5737SOL    HW124069   8.314  12.222   6.927 -0.1789 -0.3076  0.0186
 5737SOL    HW224070   8.254  12.297   6.811  0.0347  1.0138  0.7450
 5738SOL     OW24071   6.381  11.045   7.697  0.8372  0.0999  0.0327
 5738SOL    HW124072   6.418  10.999   7.622 -1.2936  0.2275 -1.1817
 5738SOL    HW224073   6.296  11.003   7.712  0.3441  1.3896  1.1008
 5739SOL     OW24074   7.737  10.423   1.833 -0.1014  0.0361  0.5660
 5739SOL    HW124075   7.691  10.503   1.857  0.6174  0.2023  1.4935
 5739SOL    HW224076   7.733  10.420   1.738 -0.4164  1.0118  0.5362
 5740SOL     OW24077   3.195   8.820  11.123 -0.2889 -0.2979  0.4582
 5740SOL    HW124078   3.180   8.848  11.033  0.0534  1.8260  1.0148
 5740SOL    HW224079   3.152   8.886  11.177 -2.0013 -2.4173  1.9111
 5741SOL     OW24080  11.595   1.849   3.059  0.2769 -0.0632 -0.6603
 5741SOL    HW124081  11.617   1.873   3.149 -1.3412 -0.2138 -0.1856
 5741SOL    HW224082  11.555   1.763   3.067 -0.1110  0.0336 -1.5004
 5742SOL     OW24083   9.892   3.974   0.405 -0.4219 -0.2608  0.0585
 5742SOL    HW124084   9.817   3.957   0.347 -1.4678  2.4132  0.4517
 5742SOL    HW224085   9.853   3.982   0.492  0.5941 -0.6147  0.5515
 5743SOL     OW24086   9.227   9.625   9.410  0.3140  0.2240  0.3565
 5743SOL    HW124087   9.261   9.538   9.430 -0.7034 -0.6703 -1.6029
 5743SOL    HW224088   9.224   9.629   9.315 -0.6642  2.0109  0.4197
 5744SOL     OW24089   5.845  11.325   6.342  0.1805  0.3932 -0.2113
 5744SOL    HW124090   5.875  11.235   6.327  0.9570  0.4970  0.6304
 5744SOL    HW224091   5.777  11.338   6.277  1.8437  0.0704 -2.1297
 5745SOL     OW24092   8.989   4.529  12.084  0.7856  0.5752 -0.2244
 5745SOL    HW124093   9.042   4.450  12.079 -0.8227 -0.4881 -1.1239
 5745SOL    HW224094   9.053   4.600  12.086  2.2547 -0.6980 -0.0513
 5746SOL     OW24095   9.290   6.689   3.273 -0.3366 -0.4479 -0.3171
 5746SOL    HW124096   9.234   6.737   3.212 -1.2888 -0.4639  0.5168
 5746SOL    HW224097   9.336   6.758   3.322 -0.3597 -0.4135 -0.3437
 5747SOL     OW24098  11.827   2.831   2.868  0.3243  0.3648 -0.0298
 5747SOL    HW124099  11.819   2.849   2.774 -0.7777 -0.4969 -0.1324
 5747SOL    HW224100  11.771   2.895   2.910  0.9714  0.8767  0.0644
 5748SOL     OW24101   7.036   6.377   5.911  0.1402  0.4731  0.5901
 5748SOL    HW124102   7.026   6.288   5.878 -1.5374  1.1021 -0.7230
 5748SOL    HW224103   7.086   6.367   5.992  0.5920 -1.5738  0.1189
 5749SOL     OW24104   1.087   8.979   9.880 -0.1266  0.7023  0.1055
 5749SOL    HW124105   1.120   9.017   9.962 -0.6334  2.7143 -0.5730
 5749SOL    HW224106   1.140   8.900   9.868 -0.3174  0.1035  2.5650
 5750SOL     OW24107   4.215   3.429   0.206 -0.2683  0.7272  0.1108
 5750SOL    HW124108   4.224   3.519   0.174 -0.8632  0.5206 -0.6403
 5750SOL    HW224109   4.245   3.374   0.134  0.2428  0.3145  0.6239
 5751SOL     OW24110   0.494   7.750  10.972 -0.3915  0.1505  0.4844
 5751SOL    HW124111   0.526   7.709  11.052 -1.0285  1.0233  1.2039
 5751SOL    HW224112   0.433   7.686  10.935  1.0578 -0.9253 -0.1597
 5752SOL     OW24113   7.733   9.799   4.805 -0.8152  0.0246 -0.2210
 5752SOL    HW124114   7.768   9.886   4.822 -0.6569 -0.0368 -0.2360
 5752SOL    HW224115   7.714   9.763   4.892  1.2436 -0.8076 -0.0716
 5753SOL     OW24116   9.769  12.267   9.156 -0.3890  0.2405  0.0060
 5753SOL    HW124117   9.807  12.225   9.080  3.2119  1.9244  0.6852
 5753SOL    HW224118   9.806  12.219   9.231  0.0218  1.6089  0.7054
 5754SOL     OW24119   6.447   9.458   5.135  0.6661 -0.0570 -0.5083
 5754SOL    HW124120   6.439   9.393   5.205  1.4464  0.3409 -0.0390
 5754SOL    HW224121   6.454   9.541   5.181  0.6616  0.2606 -1.0806
 5755SOL     OW24122   8.218   2.771   6.214  0.3071 -0.1863 -0.3955
 5755SOL    HW124123   8.238   2.752   6.305  2.3398  1.2938 -0.4550
 5755SOL    HW224124   8.216   2.685   6.171 -1.2704 -0.9463  1.0958
 5756SOL     OW24125   2.300   3.810   6.531 -0.1740 -0.2048 -0.3605
 5756SOL    HW124126   2.382   3.761   6.525  0.1045  0.3894 -1.5176
 5756SOL    HW224127   2.232   3.743   6.526  0.2200 -0.5609 -1.1203
 5757SOL     OW24128   7.642   3.952  12.252 -0.4782  0.0837  0.2923
 5757SOL    HW124129   7.559   4.000  12.259  0.0930  0.9489  1.3554
 5757SOL    HW224130   7.636   3.885  12.320  0.2517  1.0400  1.3271
 5758SOL     OW24131   9.820   5.648   8.833  0.8516  0.5345 -0.0728
 5758SOL    HW124132   9.751   5.660   8.768 -0.4307  1.7173  1.4415
 5758SOL    HW224133   9.798   5.566   8.877  0.2367  1.0320  0.5723
 5759SOL     OW24134   0.013   7.115   2.772 -0.1812  0.5827  0.0036
 5759SOL    HW124135   0.059   7.143   2.693  0.9439  0.0079  0.4219
 5759SOL    HW224136   0.011   7.019   2.766  1.6726  0.3780  1.5428
 5760SOL     OW24137   4.983  11.257  10.625  0.1746 -0.0491  0.3959
 5760SOL    HW124138   4.920  11.329  10.620 -0.7927 -0.9517 -0.7694
 5760SOL    HW224139   4.933  11.183  10.660  1.3610 -0.0042  2.3864
 5761SOL     OW24140   6.561   1.328   1.992 -0.6752 -0.3518 -0.0612
 5761SOL    HW124141   6.626   1.398   2.005 -0.3929  0.4443 -4.3271
 5761SOL    HW224142   6.537   1.301   2.081  1.8000  2.7261  1.7632
 5762SOL     OW24143   2.585   0.113  11.355  0.5980 -0.1897 -0.4632
 5762SOL    HW124144   2.501   0.098  11.313 -0.2707  2.2917  0.2463
 5762SOL    HW224145   2.647   0.063  11.302 -1.1248 -1.1679 -1.6616
 5763SOL     OW24146   0.821   6.971   3.715  0.2922 -0.4556  0.3744
 5763SOL    HW124147   0.767   6.903   3.755  0.6171 -1.6195 -1.0912
 5763SOL    HW224148   0.903   6.968   3.763 -0.3961  0.3544  1.6733
 5764SOL     OW24149   9.349   7.293  12.257 -0.2737  0.5290 -0.4987
 5764SOL    HW124150   9.262   7.262  12.280  0.8895 -2.4329  0.4523
 5764SOL    HW224151   9.360   7.270  12.165  1.2874 -4.4356  0.6246
 5765SOL     OW24152  11.585   1.865   3.338 -0.4310 -0.2027 -0.0779
 5765SOL    HW124153  11.516   1.892   3.398 -1.4273 -1.3331 -0.6607
 5765SOL    HW224154  11.598   1.771   3.356  2.6081  0.4024  1.6136
 5766SOL     OW24155   3.177  10.208   5.340  0.0961 -0.1246 -0.8718
 5766SOL    HW124156   3.110  10.201   5.272 -0.8837  0.8599 -0.0705
 5766SOL    HW224157   3.155  10.138   5.402  0.5499 -0.5595 -1.1911
 5767SOL     OW24158   9.917  12.300   3.032 -0.2250  0.0156  0.4398
 5767SOL    HW124159   9.939  12.234   3.097 -0.7772 -1.1164 -0.4730
 5767SOL    HW224160   9.829  12.275   3.001  0.1958  0.2406 -1.0368
 5768SOL     OW24161  10.928   8.583   1.103 -0.3919  0.2564 -0.4766
 5768SOL    HW124162  11.005   8.530   1.083 -0.4771 -0.2296  0.4396
 5768SOL    HW224163  10.856   8.538   1.060 -0.4706 -0.4037  0.3291
 5769SOL     OW24164   2.730  10.389   5.741  0.4297 -0.0256  0.1426
 5769SOL    HW124165   2.782  10.415   5.817  0.1872  1.1275 -0.0750
 5769SOL    HW224166   2.639  10.396   5.770  0.3461  0.0192 -0.1283
 5770SOL     OW24167   3.379   3.258   6.030  0.3478  0.5785 -0.2287
 5770SOL    HW124168   3.437   3.197   5.985  1.2574 -0.5025  2.2671
 5770SOL    HW224169   3.437   3.324   6.068 -0.5600  2.6630 -2.2296
 5771SOL     OW24170   9.417   6.296   5.222  0.1254  0.2923 -0.2637
 5771SOL    HW124171   9.367   6.216   5.239  1.6043 -0.5948  0.1082
 5771SOL    HW224172   9.502   6.265   5.192  1.1828  1.6642  1.1253
 5772SOL     OW24173   9.610   8.260   2.232 -0.1074 -0.5898  0.6260
 5772SOL    HW124174   9.530   8.209   2.246  0.7340 -1.6527  1.7627
 5772SOL    HW224175   9.610   8.324   2.303  1.0260 -1.9115  1.8792
 5773SOL     OW24176   3.538   0.803   3.680  0.5018 -0.0309 -0.0503
 5773SOL    HW124177   3.619   0.851   3.662  0.4794 -0.3274 -1.0252
 5773SOL    HW224178   3.557   0.713   3.654 -0.1937 -0.0652 -0.4713
 5774SOL     OW24179   7.748   7.751   2.863  0.1918  0.2025 -0.2939
 5774SOL    HW124180   7.771   7.689   2.794 -0.1868  0.7376 -0.9105
 5774SOL    HW224181   7.654   7.738   2.877  0.2541  0.1391  0.0818
 5775SOL     OW24182  10.953   5.686   7.472 -0.0896  0.0698 -0.0711
 5775SOL    HW124183  10.980   5.663   7.383 -2.2211 -0.2623 -0.6839
 5775SOL    HW224184  10.924   5.777   7.465  1.9342  0.8488  0.8548
 5776SOL     OW24185   6.468   6.112  10.195 -0.0250  0.3116  0.2252
 5776SOL    HW124186   6.470   6.176  10.124 -0.3412 -0.6184 -0.6457
 5776SOL    HW224187   6.405   6.148  10.258 -0.1113  0.9130 -0.2011
 5777SOL     OW24188   4.339   3.309   5.551 -0.1519 -0.0321 -0.0767
 5777SOL    HW124189   4.244   3.298   5.550 -0.0514 -1.2306 -2.7129
 5777SOL    HW224190   4.366   3.274   5.636 -2.0022 -0.0092  0.5660
 5778SOL     OW24191   2.445  10.272   2.732  0.3531 -0.3151  0.2471
 5778SOL    HW124192   2.462  10.182   2.758 -1.3779 -0.4582  1.0536
 5778SOL    HW224193   2.381  10.304   2.796 -0.3281  0.9347 -0.9836
 5779SOL     OW24194  10.296   3.205  11.026 -0.2093 -0.2827  0.2636
 5779SOL    HW124195  10.224   3.150  10.994 -1.0269  1.2102 -0.6049
 5779SOL    HW224196  10.283   3.207  11.121 -1.2477 -0.1619  0.1384
 5780SOL     OW24197  11.285   5.557   1.727 -0.0490 -0.1603 -0.5252
 5780SOL    HW124198  11.315   5.536   1.815 -1.2515  0.0179 -0.0596
 5780SOL    HW224199  11.190   5.547   1.730 -0.1926  0.6358 -1.5845
 5781SOL     OW24200   0.106   0.985   3.626 -0.3368  0.3365  0.3772
 5781SOL    HW124201   0.081   0.944   3.544 -0.8512  1.9952 -0.3345
 5781SOL    HW224202   0.180   0.933   3.657  0.7349  0.4572 -1.8064
 5782SOL     OW24203   0.543   9.836   8.017  0.4251  0.0930  0.4030
 5782SOL    HW124204   0.532   9.771   8.086  3.8330 -0.4106  0.6704
 5782SOL    HW224205   0.515   9.791   7.937  0.9001 -1.0473  0.8554
 5783SOL     OW24206   4.560   3.011   6.037  0.0244  0.0373 -0.3827
 5783SOL    HW124207   4.623   3.084   6.030  1.5340 -1.0200  1.3492
 5783SOL    HW224208   4.551   2.996   6.131  0.1869 -2.3690 -0.7055
 5784SOL     OW24209   0.745   3.164   3.691 -0.1817 -0.1628 -0.6452
 5784SOL    HW124210   0.810   3.106   3.730  0.5112  1.8799  1.4581
 5784SOL    HW224211   0.757   3.152   3.596 -0.8299 -4.1172 -0.3862
 5785SOL     OW24212   9.042   2.160   7.641  0.3054  0.1304 -0.0100
 5785SOL    HW124213   8.972   2.128   7.700 -0.3294  0.0931 -0.7669
 5785SOL    HW224214   9.079   2.080   7.604 -2.6768  0.1268 -3.5263
 5786SOL     OW24215  12.282   1.999   1.945  0.1236 -0.8818  0.3003
 5786SOL    HW124216  12.267   2.087   1.913  3.1921 -0.6386 -0.7543
 5786SOL    HW224217  12.229   1.993   2.025 -1.3787  1.3118 -0.4488
 5787SOL     OW24218   5.187  10.271  11.765  0.1006  0.0934 -0.2411
 5787SOL    HW124219   5.222  10.236  11.847  0.3813  0.2402 -0.2986
 5787SOL    HW224220   5.207  10.364  11.768  0.7767 -0.0239 -0.8098
 5788SOL     OW24221  10.286   3.782   2.253  0.7168 -0.0422  0.2813
 5788SOL    HW124222  10.200   3.787   2.210  1.1814 -0.5788 -0.7369
 5788SOL    HW224223  10.279   3.705   2.310  0.0940  0.6789  1.2062
 5789SOL     OW24224   3.969   2.276  10.589  0.3166  0.4076 -0.3115
 5789SOL    HW124225   3.978   2.368  10.564  0.3270  0.6921  0.7248
 5789SOL    HW224226   4.058   2.241  10.582  0.1308  0.1492 -1.8665
 5790SOL     OW24227  10.740   1.202   8.942 -0.0767 -0.6793 -0.4720
 5790SOL    HW124228  10.706   1.291   8.950  0.4274 -0.4639 -0.6788
 5790SOL    HW224229  10.733   1.182   8.848  0.4837 -0.5875 -0.5326
 5791SOL     OW24230   9.761  12.171   5.488 -0.2442 -0.5181 -0.1084
 5791SOL    HW124231   9.828  12.237   5.508  0.1068 -0.6253 -0.8824
 5791SOL    HW224232   9.755  12.172   5.393 -3.0563  1.1814 -0.0155
 5792SOL     OW24233  10.607   9.915   5.132  0.2024  0.0936  0.5193
 5792SOL    HW124234  10.669   9.859   5.084  0.3586  0.0378  0.7826
 5792SOL    HW224235  10.526   9.910   5.081  0.8832  1.5253 -0.8153
 5793SOL     OW24236   8.434   5.082   5.265  0.5298 -0.2982 -0.2874
 5793SOL    HW124237   8.472   5.059   5.350  0.2798  0.2476 -0.0220
 5793SOL    HW224238   8.359   5.138   5.287  0.0663 -0.6900 -0.8394
 5794SOL     OW24239   4.072  10.725   0.966  0.0840 -0.5055 -0.5635
 5794SOL    HW124240   4.091  10.763   1.051 -1.1299 -0.2032 -0.3986
 5794SOL    HW224241   4.148  10.748   0.912  1.2378 -1.3893  0.6235
 5795SOL     OW24242   9.134   6.207   5.769 -0.2435 -0.6698  0.1872
 5795SOL    HW124243   9.096   6.245   5.690 -1.2133  3.2215  2.2783
 5795SOL    HW224244   9.059   6.185   5.824  0.4254 -1.3220  0.8601
 5796SOL     OW24245   5.399   7.318   6.877  0.1632  0.3289  0.1363
 5796SOL    HW124246   5.463   7.318   6.805 -1.6257  0.5697 -1.5496
 5796SOL    HW224247   5.417   7.398   6.925  0.3812  1.0156 -1.0423
 5797SOL     OW24248   9.383   1.908  11.129 -0.1239 -0.1893 -0.3171
 5797SOL    HW124249   9.459   1.888  11.185 -0.1981  1.9743  0.6391
 5797SOL    HW224250   9.385   1.840  11.062 -0.1760 -3.1272  2.4005
 5798SOL     OW24251  10.565  11.458   1.976 -0.1405 -0.3294  0.3847
 5798SOL    HW124252  10.469  11.462   1.984  0.0000  0.2654  2.8021
 5798SOL    HW224253  10.581  11.409   1.896 -2.4778 -0.6918  0.0726
 5799SOL     OW24254   8.554   9.610   5.805  0.0423  0.1137 -0.2284
 5799SOL    HW124255   8.490   9.645   5.743  0.3952  0.8729 -0.1810
 5799SOL    HW224256   8.625   9.575   5.751  1.4421  2.7964 -0.3266
 5800SOL     OW24257   0.966   7.735   5.508 -0.2891 -0.6981 -0.1032
 5800SOL    HW124258   0.933   7.808   5.560 -2.6555 -1.7212 -0.0420
 5800SOL    HW224259   0.891   7.707   5.456  0.6655 -2.8187 -0.4374
 5801SOL     OW24260   8.587   7.361  11.792 -0.4750  0.2803 -0.7573
 5801SOL    HW124261   8.493   7.379  11.793 -0.7110 -0.8272  0.6317
 5801SOL    HW224262   8.593   7.269  11.817  1.0093  0.4974 -0.2435
 5802SOL     OW24263   7.657   2.489   5.545  0.3012  0.1753 -0.3156
 5802SOL    HW124264   7.659   2.584   5.534  0.5525  0.1723 -0.3011
 5802SOL    HW224265   7.580   2.460   5.495  0.1536  0.3991 -0.2194
 5803SOL     OW24266   7.019   1.716   7.363 -0.4844 -0.4635 -0.8583
 5803SOL    HW124267   7.004   1.798   7.315 -1.0580 -0.4930 -0.7389
 5803SOL    HW224268   6.973   1.729   7.446  0.0349 -0.6289 -0.5419
 5804SOL     OW24269  11.640   6.220  11.759  0.4507 -0.2000  0.5487
 5804SOL    HW124270  11.617   6.127  11.748 -2.1466  0.3930  0.5460
 5804SOL    HW224271  11.643   6.254  11.669 -0.2548  0.0805  0.6296
 5805SOL     OW24272   7.924   6.671  11.946 -0.1157 -0.1540 -0.0368
 5805SOL    HW124273   7.966   6.607  11.889 -0.9974 -0.1797 -0.6665
 5805SOL    HW224274   7.895   6.741  11.888  0.3983  0.5953  0.5840
 5806SOL     OW24275   0.547   5.051   5.131  0.2432 -0.5087  0.1233
 5806SOL    HW124276   0.511   4.963   5.124  0.5755 -0.5844 -0.7364
 5806SOL    HW224277   0.585   5.055   5.219 -1.2823 -0.6388  0.8224
 5807SOL     OW24278   2.402  10.946   3.450  0.2064  0.9922 -0.0331
 5807SOL    HW124279   2.496  10.953   3.430  0.4706 -0.1591  0.6888
 5807SOL    HW224280   2.366  10.892   3.379  0.5419 -0.4352  0.8360
 5808SOL     OW24281   8.940   8.014  12.565  0.5282  0.2033  0.4183
 5808SOL    HW124282   8.888   8.051  12.493 -1.6666 -0.6632  1.4765
 5808SOL    HW224283   8.924   8.072  12.639  1.7569  0.3681  0.5842
 5809SOL     OW24284  10.858   4.516   6.553  0.4199  0.4140 -0.4204
 5809SOL    HW124285  10.781   4.564   6.585 -0.7133 -2.1640  1.0472
 5809SOL    HW224286  10.922   4.584   6.533 -1.7671  2.6177 -0.4762
 5810SOL     OW24287   3.751   8.858   8.511  0.1530  0.1530  0.0541
 5810SOL    HW124288   3.819   8.921   8.532 -0.9157  1.0520  0.9523
 5810SOL    HW224289   3.675   8.886   8.562 -0.3423 -1.9009  0.5745
 5811SOL     OW24290   2.751   0.270  11.522 -0.3024 -0.0354 -0.0981
 5811SOL    HW124291   2.799   0.188  11.521  1.2413  0.8399 -0.1702
 5811SOL    HW224292   2.673   0.253  11.469  0.7304 -1.0306 -1.3411
 5812SOL     OW24293  11.752   7.370   1.478 -0.3812 -0.2535 -0.0976
 5812SOL    HW124294  11.789   7.418   1.403 -0.0839 -0.8492 -0.3361
 5812SOL    HW224295  11.659   7.362   1.456 -0.4414  0.2243 -0.0457
 5813SOL     OW24296  11.725   9.268   3.422 -0.5673  0.3507 -0.0379
 5813SOL    HW124297  11.702   9.332   3.490 -0.8691 -0.6178  0.7874
 5813SOL    HW224298  11.654   9.203   3.425  0.6881 -1.0368  0.4372
 5814SOL     OW24299   7.614   3.614   6.442  0.0066 -0.2284 -0.1280
 5814SOL    HW124300   7.707   3.631   6.424  0.5609 -0.8654  1.7744
 5814SOL    HW224301   7.594   3.670   6.517 -1.5748  0.9008 -1.3264
 5815SOL     OW24302  11.616  10.894   9.413  0.0712 -0.2936  0.0154
 5815SOL    HW124303  11.588  10.882   9.504 -1.7992 -1.7922 -0.6871
 5815SOL    HW224304  11.696  10.843   9.405 -0.6031 -1.4502  0.4454
 5816SOL     OW24305   7.485   7.848   1.671 -0.0682  0.5579 -0.0061
 5816SOL    HW124306   7.557   7.847   1.608 -0.4273 -0.6183 -0.4268
 5816SOL    HW224307   7.424   7.781   1.639 -1.5605  1.8087  0.1002
 5817SOL     OW24308   7.382  10.535   0.811  0.7941  0.0508 -0.5744
 5817SOL    HW124309   7.375  10.442   0.834  0.9981 -0.0173 -0.7815
 5817SOL    HW224310   7.373  10.536   0.716 -0.9136  0.4188 -0.4312
 5818SOL     OW24311  11.791   5.034   1.391 -0.1320 -0.6617  0.4482
 5818SOL    HW124312  11.877   5.075   1.404 -0.6647  0.0105  2.3029
 5818SOL    HW224313  11.756   5.076   1.313  0.1643  1.0510  1.1776
 5819SOL     OW24314   5.260   2.925   1.722 -0.4911 -0.2572 -0.3989
 5819SOL    HW124315   5.181   2.960   1.682 -0.5350 -0.6485 -0.6521
 5819SOL    HW224316   5.322   2.917   1.649  0.4865  1.9671  0.0914
 5820SOL     OW24317   2.115   4.532   5.448  0.1282  0.3801  0.4285
 5820SOL    HW124318   2.189   4.474   5.468 -0.7937  0.1715  3.7389
 5820SOL    HW224319   2.156   4.617   5.430  1.2561 -0.2902 -0.3234
 5821SOL     OW24320  11.162   8.356  10.407 -0.7037  0.5180  0.3312
 5821SOL    HW124321  11.110   8.296  10.354  0.1383  1.5009 -1.7285
 5821SOL    HW224322  11.196   8.302  10.478 -2.4968 -0.6883  0.3440
 5822SOL     OW24323  10.783   4.638   3.746 -0.7089  0.1775  0.0170
 5822SOL    HW124324  10.788   4.586   3.665 -2.2173  0.4527 -0.2724
 5822SOL    HW224325  10.826   4.721   3.723 -1.4413  0.3940 -0.6311
 5823SOL     OW24326   0.142   2.464  11.033  0.1716 -0.0760 -0.6643
 5823SOL    HW124327   0.183   2.550  11.039  0.7145 -0.2400 -1.6671
 5823SOL    HW224328   0.202   2.413  10.978 -0.0386 -1.1591  0.0877
 5824SOL     OW24329  10.786   9.373  11.923 -0.6345  0.3182  0.2184
 5824SOL    HW124330  10.801   9.285  11.890  0.4000  1.3341 -2.2987
 5824SOL    HW224331  10.853   9.386  11.990 -0.3814 -0.6039  0.1499
 5825SOL     OW24332   8.684   2.326  11.920  0.5898  0.2669 -0.3593
 5825SOL    HW124333   8.611   2.386  11.902  0.6352  0.5598  0.4200
 5825SOL    HW224334   8.643   2.251  11.961  0.9422  1.3508  2.1290
 5826SOL     OW24335   3.912   8.591  10.291  0.5390 -0.3267 -0.0381
 5826SOL    HW124336   3.830   8.634  10.317 -0.1463 -1.7008  0.1585
 5826SOL    HW224337   3.919   8.607  10.197  0.4862  0.5043  0.0918
 5827SOL     OW24338   6.987   6.401   6.671  0.0874 -0.2031  0.3170
 5827SOL    HW124339   7.023   6.463   6.735 -0.2412  0.6781 -0.3404
 5827SOL    HW224340   6.918   6.355   6.719  0.4267 -0.1704  0.8516
 5828SOL     OW24341   9.652  10.568   2.116 -0.4110  0.3933  0.1612
 5828SOL    HW124342   9.612  10.621   2.185  0.4032 -1.7099  2.4023
 5828SOL    HW224343   9.583  10.558   2.050 -1.4332  1.9480  0.9320
 5829SOL     OW24344   4.041   0.964  10.772 -0.2757 -0.3956 -0.0820
 5829SOL    HW124345   4.025   0.898  10.705  1.9043 -1.0182 -0.0603
 5829SOL    HW224346   4.136   0.967  10.780 -0.3770  1.8582  0.8300
 5830SOL     OW24347  12.259   3.773   4.301  0.4539 -0.0447 -0.0189
 5830SOL    HW124348  12.221   3.715   4.367 -1.2936  0.5389 -0.4811
 5830SOL    HW224349  12.241   3.861   4.332 -2.9017  0.3217 -2.5131
 5831SOL     OW24350  11.570   2.264   6.481  0.5560 -0.4564  0.0045
 5831SOL    HW124351  11.578   2.185   6.534  0.0766 -0.9049 -0.5674
 5831SOL    HW224352  11.579   2.233   6.391 -1.9865 -0.2570 -0.4032
 5832SOL     OW24353   5.063   9.113   7.418 -0.1455  0.1343 -0.5737
 5832SOL    HW124354   5.055   9.148   7.507 -1.0833 -1.0584 -0.1786
 5832SOL    HW224355   5.044   9.188   7.362  2.3487  1.4132  0.1543
 5833SOL     OW24356  12.221   2.998   3.433  0.5039 -0.1735 -0.5104
 5833SOL    HW124357  12.232   2.954   3.517 -0.6967 -0.1123 -0.3036
 5833SOL    HW224358  12.161   2.942   3.384 -1.1426  1.2348 -0.1957
 5834SOL     OW24359   2.824   5.378   5.559 -0.0605  0.3146  0.3336
 5834SOL    HW124360   2.829   5.449   5.495  0.1966 -0.5747 -0.6576
 5834SOL    HW224361   2.887   5.403   5.628  1.9211 -0.1226 -1.2177
 5835SOL     OW24362   5.864   1.320  10.624  0.9374  0.5088  0.1123
 5835SOL    HW124363   5.853   1.383  10.695  2.2498 -0.5786  1.3458
 5835SOL    HW224364   5.956   1.293  10.629  0.1224 -2.6643  0.7120
 5836SOL     OW24365   7.975   3.388   3.516  0.2691  0.5006 -0.0934
 5836SOL    HW124366   7.994   3.482   3.516  0.8096  0.4051  0.8453
 5836SOL    HW224367   7.933   3.372   3.431 -0.2899  1.6774 -0.0530
 5837SOL     OW24368   0.302   1.386   3.822  0.2709  0.2202  0.2649
 5837SOL    HW124369   0.298   1.481   3.812  1.2661  0.1718 -0.7222
 5837SOL    HW224370   0.266   1.351   3.741 -0.9198 -0.2830  0.9673
 5838SOL     OW24371  10.492  11.126   1.359  0.8552  0.5168 -0.0609
 5838SOL    HW124372  10.460  11.131   1.449 -0.2558  1.0904 -0.4615
 5838SOL    HW224373  10.539  11.042   1.355 -1.1322 -0.7020  0.4449
 5839SOL     OW24374  11.014   8.694   8.706 -0.0347  0.2142 -0.1688
 5839SOL    HW124375  11.005   8.624   8.640 -0.6361  1.4750 -1.4921
 5839SOL    HW224376  11.103   8.685   8.738  0.1616 -0.6676 -0.9007
 5840SOL     OW24377   6.684   3.050   8.517 -0.1348  0.8567  0.4344
 5840SOL    HW124378   6.653   3.084   8.600  1.1734  1.0393  0.8799
 5840SOL    HW224379   6.769   3.011   8.538  0.0042  0.4946 -0.7329
 5841SOL     OW24380   0.347   9.299   3.232 -0.3790 -0.3291  0.0662
 5841SOL    HW124381   0.267   9.247   3.238  0.3084 -1.4735 -0.4639
 5841SOL    HW224382   0.415   9.244   3.272  0.7126 -0.5970 -2.0292
 5842SOL     OW24383  10.371   5.881   7.849 -0.2450 -0.2473 -0.5358
 5842SOL    HW124384  10.385   5.898   7.942 -0.2387  1.5982 -0.8460
 5842SOL    HW224385  10.279   5.904   7.834 -0.9195 -2.6851 -0.5724
 5843SOL     OW24386   4.713  11.722   1.230  0.0786  0.0403  0.0289
 5843SOL    HW124387   4.766  11.778   1.173  0.0666 -1.5802 -1.6383
 5843SOL    HW224388   4.661  11.784   1.282  2.1032  1.6222  0.2897
 5844SOL     OW24389   2.851   6.420   5.989  0.0950  0.0916  0.4477
 5844SOL    HW124390   2.788   6.476   6.035 -1.4463 -0.6145 -0.7454
 5844SOL    HW224391   2.799   6.349   5.952  1.4596 -0.0782 -1.2902
 5845SOL     OW24392   3.141   9.848   4.441  0.0445  0.1574  0.4677
 5845SOL    HW124393   3.093   9.843   4.523 -1.4423 -0.8217 -0.4235
 5845SOL    HW224394   3.138   9.941   4.417 -2.0189  0.0438  0.1165
 5846SOL     OW24395   8.972  10.562  12.412  0.1247  0.2238 -0.3724
 5846SOL    HW124396   8.949  10.616  12.488 -3.6354 -0.5101 -0.7751
 5846SOL    HW224397   8.983  10.474  12.448  1.5658  0.4109 -0.3147
 5847SOL     OW24398   9.977   3.286   8.093  0.2550 -0.3559 -0.1173
 5847SOL    HW124399  10.056   3.340   8.083  0.9061 -0.8836  1.8510
 5847SOL    HW224400  10.010   3.197   8.109 -0.7161 -0.4764  1.3668
 5848SOL     OW24401   7.642   7.043   2.911  0.6559  0.2608  0.1379
 5848SOL    HW124402   7.663   6.987   2.836  1.2546  0.2861  0.2894
 5848SOL    HW224403   7.625   7.129   2.872  0.4287  0.1462 -0.0210
 5849SOL     OW24404   7.896  11.520   5.366  0.1121 -0.2321 -0.0851
 5849SOL    HW124405   7.897  11.457   5.294  0.5262 -1.0085  0.5858
 5849SOL    HW224406   7.814  11.569   5.354 -0.6691 -1.4946 -0.1149
 5850SOL     OW24407  10.420   5.267  11.380  0.0633 -0.6328  0.4047
 5850SOL    HW124408  10.355   5.288  11.313 -0.4976 -2.0593  0.4659
 5850SOL    HW224409  10.497   5.239  11.330  0.6067  0.9082  0.3357
 5851SOL     OW24410   3.768   9.599   7.187 -0.1142 -0.0763 -0.1316
 5851SOL    HW124411   3.704   9.663   7.219 -1.7466 -1.1265 -1.1531
 5851SOL    HW224412   3.722   9.516   7.189  0.5825 -0.6035 -2.6249
 5852SOL     OW24413   4.048   9.288   2.287  0.0349 -0.5832  0.1988
 5852SOL    HW124414   3.964   9.327   2.262  0.3129  0.6854  1.1536
 5852SOL    HW224415   4.027   9.197   2.307 -1.3634  0.0013  1.6063
 5853SOL     OW24416   4.514  10.269   9.906 -0.1275  0.0773  0.3220
 5853SOL    HW124417   4.487  10.239   9.992 -0.3437  0.0244  0.2367
 5853SOL    HW224418   4.510  10.190   9.851 -1.2208  0.3641 -0.0295
 5854SOL     OW24419   1.191   8.827   7.583  0.2435  0.1296 -0.3884
 5854SOL    HW124420   1.222   8.845   7.494  2.3925 -0.8433  0.1041
 5854SOL    HW224421   1.207   8.909   7.631  0.8856  0.0530 -0.4603
 5855SOL     OW24422  10.134   4.622   6.362 -0.2232  0.7208 -0.0690
 5855SOL    HW124423  10.176   4.599   6.444 -1.5252 -0.7491  0.2365
 5855SOL    HW224424  10.078   4.547   6.342 -0.3329  1.2645 -2.0364
 5856SOL     OW24425  11.541   9.986   1.232 -0.0684  0.3964  0.4743
 5856SOL    HW124426  11.636   9.985   1.244 -0.1340  0.3304  1.0412
 5856SOL    HW224427  11.518  10.079   1.228  0.1098  0.4068 -0.4865
 5857SOL     OW24428   5.885  12.304  11.527 -0.5059 -0.6171 -0.0359
 5857SOL    HW124429   5.933  12.380  11.494  0.0918 -1.2061 -0.5639
 5857SOL    HW224430   5.825  12.340  11.592  1.0813  0.0948  1.1097
 5858SOL     OW24431   7.519   3.939   7.327 -0.2034 -0.3353 -0.0946
 5858SOL    HW124432   7.508   4.031   7.353  3.0403 -0.5612  2.8176
 5858SOL    HW224433   7.551   3.943   7.237 -2.2046  1.1774 -0.8091
 5859SOL     OW24434   5.197  11.759   0.707 -0.0194  0.0790 -0.6323
 5859SOL    HW124435   5.167  11.670   0.724  1.8832 -0.2270  1.6223
 5859SOL    HW224436   5.245  11.754   0.625  0.5673 -1.1325 -0.2321
 5860SOL     OW24437  10.793   0.198   1.713  0.1778 -0.3685  0.6485
 5860SOL    HW124438  10.856   0.144   1.666 -0.2655  0.1692 -0.6054
 5860SOL    HW224439  10.836   0.219   1.796  0.4642 -2.3979  1.0632
 5861SOL     OW24440   0.275   2.803   8.987 -0.2108 -0.6167 -0.2686
 5861SOL    HW124441   0.285   2.717   9.029  0.2900 -0.5077 -0.1537
 5861SOL    HW224442   0.185   2.829   9.006 -0.7122 -1.6017 -1.2262
 5862SOL     OW24443   6.208   9.986   4.775  0.0024  0.1964 -0.1959
 5862SOL    HW124444   6.301   9.964   4.769  0.2657  0.1603  2.6382
 5862SOL    HW224445   6.165   9.924   4.715  1.8781  1.6144 -3.2329
 5863SOL     OW24446   2.761  11.882  10.123  0.0088 -0.3371 -0.0317
 5863SOL    HW124447   2.729  11.942  10.056  0.7986 -0.6300 -0.6832
 5863SOL    HW224448   2.837  11.926  10.160 -0.0348 -0.4715  0.2222
 5864SOL     OW24449   9.490   8.441   3.551 -0.1569 -0.0211  0.0786
 5864SOL    HW124450   9.461   8.532   3.548 -0.9366 -0.2915 -0.8008
 5864SOL    HW224451   9.585   8.446   3.541 -0.3867  0.5924 -2.6854
 5865SOL     OW24452  12.393  12.318   6.617 -0.5159 -0.5057  0.0243
 5865SOL    HW124453  12.377  12.227   6.643  0.0722 -0.5620  0.2132
 5865SOL    HW224454  12.409  12.314   6.523  2.2151 -1.0064  0.4286
 5866SOL     OW24455   5.019  10.094   6.307  0.3474 -0.1300  0.2677
 5866SOL    HW124456   4.951  10.157   6.284 -0.2828 -1.1519 -0.7629
 5866SOL    HW224457   5.025  10.099   6.402 -0.3109  0.8518  0.2697
 5867SOL     OW24458   1.473   8.347   6.050  0.1671 -0.2340 -0.3588
 5867SOL    HW124459   1.526   8.268   6.059  0.7921  0.3305  1.3907
 5867SOL    HW224460   1.459   8.356   5.955  0.9084 -1.8781 -0.6588
 5868SOL     OW24461   2.899   1.323  10.758 -0.3008  0.0024  0.0128
 5868SOL    HW124462   2.890   1.228  10.763 -1.6940  0.0901 -0.3088
 5868SOL    HW224463   2.962   1.338  10.688  2.6837 -0.7142  2.3254
 5869SOL     OW24464   9.288   4.985  12.399 -0.1018 -0.0641 -0.6661
 5869SOL    HW124465   9.366   4.945  12.437 -0.1336  0.3436 -0.1699
 5869SOL    HW224466   9.220   4.918  12.406 -0.0322 -0.0931 -0.2639
 5870SOL     OW24467   4.901   0.161   2.799  0.2094 -0.3174 -0.1295
 5870SOL    HW124468   4.883   0.106   2.723  1.7038 -0.5842 -0.3164
 5870SOL    HW224469   4.831   0.140   2.861 -0.6686 -0.5626 -1.1634
 5871SOL     OW24470  11.779   3.942   7.993  0.2406 -0.2263  0.3905
 5871SOL    HW124471  11.844   3.970   7.928  0.8125 -1.5774  0.3344
 5871SOL    HW224472  11.830   3.892   8.057 -0.7621 -1.5557  0.2052
 5872SOL     OW24473   3.361  10.719   4.824  0.5078 -0.4198 -0.4531
 5872SOL    HW124474   3.276  10.759   4.810  0.4625 -0.2181  0.3889
 5872SOL    HW224475   3.424  10.789   4.805  0.4409 -0.0884  0.4928
 5873SOL     OW24476   0.939   6.978   3.990 -0.3656  0.1202 -0.2894
 5873SOL    HW124477   0.930   7.073   3.985  0.5054  0.2434  0.2142
 5873SOL    HW224478   1.026   6.960   3.953 -0.6517 -0.5108 -0.6684
 5874SOL     OW24479   2.559  10.659   5.452 -0.1913  0.1983  0.1574
 5874SOL    HW124480   2.497  10.650   5.380 -0.1916 -1.0248  0.3009
 5874SOL    HW224481   2.507  10.645   5.531  0.5808 -2.9814  0.2115
 5875SOL     OW24482   7.844   9.870  11.028  0.3732 -0.2886  0.1159
 5875SOL    HW124483   7.804   9.783  11.028  2.3425 -1.2473  0.5165
 5875SOL    HW224484   7.839   9.899  10.937 -0.4806 -0.7254  0.0155
 5876SOL     OW24485   8.636   7.813   1.151 -0.1186  0.2906  0.2979
 5876SOL    HW124486   8.701   7.848   1.090  1.4659  2.0156  2.8379
 5876SOL    HW224487   8.679   7.737   1.191 -0.9974 -0.5933 -0.3872
 5877SOL     OW24488   0.519   3.226  12.432 -0.6872 -0.0103 -0.2982
 5877SOL    HW124489   0.502   3.145  12.385 -0.6467 -0.6771  0.7989
 5877SOL    HW224490   0.537   3.198  12.522  0.9586  1.0742 -0.2389
 5878SOL     OW24491   5.514   5.106   3.552 -0.5649 -0.3398  0.0534
 5878SOL    HW124492   5.457   5.169   3.507 -0.5457 -1.1326 -1.1463
 5878SOL    HW224493   5.575   5.077   3.484  0.4575 -0.4526  1.0040
 5879SOL     OW24494   1.519   2.539   0.052 -0.2305  0.2014 -0.2628
 5879SOL    HW124495   1.606   2.501   0.040  0.5067  1.6400  0.2547
 5879SOL    HW224496   1.503   2.532   0.147 -0.6669 -0.0160 -0.3490
 5880SOL     OW24497   3.850   3.386   7.606 -0.6267  0.4578  0.4897
 5880SOL    HW124498   3.756   3.403   7.601 -0.5061  1.6121  1.6436
 5880SOL    HW224499   3.865   3.355   7.695  0.0296 -0.2369  0.1548
 5881SOL     OW24500   6.076   5.402   4.200 -0.2154  0.5698 -0.6164
 5881SOL    HW124501   6.033   5.480   4.166 -1.8559  0.6989  1.5449
 5881SOL    HW224502   6.126   5.433   4.275  0.1083 -0.2614 -0.4776
 5882SOL     OW24503   9.169   2.754   6.080 -0.7420  0.3405 -0.1596
 5882SOL    HW124504   9.128   2.667   6.082 -0.8228  0.3666 -0.6374
 5882SOL    HW224505   9.212   2.762   6.165  2.0498 -1.4966 -1.2918
 5883SOL     OW24506   6.362   0.539   6.742  0.4641  0.0472  0.4294
 5883SOL    HW124507   6.383   0.542   6.648 -0.6563 -3.4611 -0.0509
 5883SOL    HW224508   6.445   0.557   6.785  2.0347 -2.3190 -1.3402
 5884SOL     OW24509   1.911   2.974   5.955 -0.4434  0.9670  0.4829
 5884SOL    HW124510   1.982   2.954   6.015  0.6808  1.0999 -0.7737
 5884SOL    HW224511   1.912   2.903   5.891 -3.2464 -0.5728  1.9375
 5885SOL     OW24512  12.377   0.058   7.021  0.8123  0.2509 -0.8434
 5885SOL    HW124513  12.447  -0.007   7.028  1.4573  0.9810 -0.4141
 5885SOL    HW224514  12.319   0.023   6.954  1.9142 -0.0584 -1.6599
 5886SOL     OW24515   0.246   8.593   4.388 -0.9408  0.4518  0.1560
 5886SOL    HW124516   0.164   8.581   4.342 -0.6652 -0.6829 -0.0587
 5886SOL    HW224517   0.248   8.523   4.454 -0.4047  0.8016  0.5272
 5887SOL     OW24518  12.095   7.362   4.380 -0.2467 -0.1521  0.0486
 5887SOL    HW124519  12.180   7.383   4.418 -0.4301  1.6736 -0.4622
 5887SOL    HW224520  12.065   7.444   4.342 -2.4649 -0.6250  0.6513
 5888SOL     OW24521   2.264   8.668   3.497  0.1690  0.1137  0.1437
 5888SOL    HW124522   2.195   8.689   3.561 -0.5376 -0.0286 -0.5553
 5888SOL    HW224523   2.329   8.737   3.509 -0.2135  0.3966  0.6458
 5889SOL     OW24524  12.309   4.140   7.513  0.2883 -0.1232 -0.3572
 5889SOL    HW124525  12.347   4.115   7.597  0.4648 -0.7588 -0.6174
 5889SOL    HW224526  12.383   4.168   7.460 -0.0063  1.9508  0.2384
 5890SOL     OW24527   5.165   2.027   0.727 -0.1981 -0.3296  0.1164
 5890SOL    HW124528   5.123   2.098   0.774 -1.4654 -1.9775  1.6285
 5890SOL    HW224529   5.122   2.026   0.641  1.2806  1.9369 -0.7378
 5891SOL     OW24530   6.240   1.128  11.726  0.2341 -0.1175  0.0650
 5891SOL    HW124531   6.300   1.184  11.775  0.7521 -0.6197  0.0009
 5891SOL    HW224532   6.153   1.159  11.752  0.5112  0.1565  0.6799
 5892SOL     OW24533   2.274   7.491   1.440  0.6663 -0.5914 -0.3283
 5892SOL    HW124534   2.305   7.413   1.394 -0.0953 -1.0487 -0.0789
 5892SOL    HW224535   2.352   7.525   1.484  0.9514 -1.3731 -0.2103
 5893SOL     OW24536   6.094   4.411  11.806  0.2692  0.6793 -0.5755
 5893SOL    HW124537   6.170   4.461  11.834  0.1982  1.2339 -1.3477
 5893SOL    HW224538   6.048   4.469  11.746 -0.4559  0.1311 -0.5638
 5894SOL     OW24539   3.815  10.353  12.380 -0.1423 -0.5937  0.4186
 5894SOL    HW124540   3.759  10.378  12.454  0.1684  0.1428  0.4211
 5894SOL    HW224541   3.898  10.399  12.397 -0.6482  1.1042 -1.3160
 5895SOL     OW24542   4.058   5.297   9.351 -0.6332  0.0381 -0.4833
 5895SOL    HW124543   4.006   5.338   9.282  0.6792  1.8958 -0.4493
 5895SOL    HW224544   4.075   5.367   9.414  1.4806 -0.5800 -0.2789
 5896SOL     OW24545   1.208  11.277   4.330  0.5817 -0.0221  0.1096
 5896SOL    HW124546   1.163  11.219   4.392  0.1599  1.0629  0.8582
 5896SOL    HW224547   1.166  11.259   4.246 -1.6938  1.3078  0.8638
 5897SOL     OW24548   4.831   9.258   3.832  0.2307  0.0811 -0.3821
 5897SOL    HW124549   4.766   9.305   3.779 -1.5104  0.8042  2.2088
 5897SOL    HW224550   4.885   9.326   3.871 -0.0281 -0.2595  0.5977
 5898SOL     OW24551  10.687   8.996   3.612 -0.2734 -0.2894 -0.2910
 5898SOL    HW124552  10.692   9.082   3.570  0.0548 -0.5431 -0.7743
 5898SOL    HW224553  10.739   8.939   3.556  0.9825 -0.4327  0.9584
 5899SOL     OW24554  10.259   7.282   7.034  0.5905 -0.0405 -0.4189
 5899SOL    HW124555  10.207   7.252   6.960 -2.2519  1.8154  0.6421
 5899SOL    HW224556  10.249   7.212   7.100 -2.9238  1.2600  0.6939
 5900SOL     OW24557   9.339   7.515   3.816 -0.5273 -0.1601  0.6761
 5900SOL    HW124558   9.335   7.610   3.801 -0.9695 -0.3729 -0.7330
 5900SOL    HW224559   9.286   7.501   3.894 -0.4311  0.7534  0.9211
 5901SOL     OW24560   4.340   8.056  11.183  0.3801  0.0501 -0.6926
 5901SOL    HW124561   4.297   8.137  11.156  0.3103 -0.1447 -1.1732
 5901SOL    HW224562   4.332   8.055  11.279  1.1195  1.0220 -0.5999
 5902SOL     OW24563   1.523   2.716   9.130  0.2071 -0.0899 -0.4640
 5902SOL    HW124564   1.469   2.724   9.208 -0.5648  0.5428 -1.0488
 5902SOL    HW224565   1.580   2.794   9.133  0.2193 -0.0973 -0.5079
 5903SOL     OW24566   4.297  11.148   0.205  0.4695 -0.1827 -0.3030
 5903SOL    HW124567   4.244  11.193   0.139  0.6214 -0.8314 -0.8739
 5903SOL    HW224568   4.370  11.111   0.156  1.2951  0.4414  0.4313
 5904SOL     OW24569   6.923  10.602   9.610 -0.4423  0.0289 -0.0121
 5904SOL    HW124570   6.936  10.537   9.678 -1.4723 -0.7462 -0.5172
 5904SOL    HW224571   6.828  10.611   9.603 -0.3586  0.2522 -1.1854
 5905SOL     OW24572   7.320  10.115   9.600  0.4033 -0.2651  0.0210
 5905SOL    HW124573   7.269  10.054   9.547 -1.7920  1.0122  0.5353
 5905SOL    HW224574   7.332  10.191   9.544  0.4219  0.0292  0.4219
 5906SOL     OW24575   9.669   6.909   6.133 -0.0410 -0.4281  0.0060
 5906SOL    HW124576   9.743   6.937   6.186  0.8294 -1.1346 -0.8132
 5906SOL    HW224577   9.706   6.889   6.047 -1.2368 -0.4281 -0.5426
 5907SOL     OW24578   7.799   5.439   5.817  0.9186 -0.3337 -0.3148
 5907SOL    HW124579   7.706   5.442   5.838  0.6769  0.1572 -1.3655
 5907SOL    HW224580   7.830   5.528   5.837  0.9183 -0.1817 -0.9711
 5908SOL     OW24581   2.506   3.381  11.967  0.1883 -0.1134  0.1599
 5908SOL    HW124582   2.436   3.421  12.019 -1.6057 -0.2630 -1.9825
 5908SOL    HW224583   2.585   3.395  12.019 -1.5534 -1.0866  3.3504
 5909SOL     OW24584  12.477  11.090   8.354 -0.0659 -0.6194 -0.1061
 5909SOL    HW124585  12.412  11.098   8.425 -0.1975 -0.9642 -0.1862
 5909SOL    HW224586  12.434  11.128   8.278 -0.0624 -0.5836 -0.0907
 5910SOL     OW24587   3.877   3.275   6.703 -0.3872 -0.3698  0.4554
 5910SOL    HW124588   3.872   3.368   6.681  0.2333 -0.4684 -0.1421
 5910SOL    HW224589   3.971   3.255   6.701 -0.6259 -1.7147 -2.5787
 5911SOL     OW24590   8.830  11.343  11.805 -0.3840  0.2990 -0.3171
 5911SOL    HW124591   8.851  11.265  11.754  0.6418 -1.8885  3.1074
 5911SOL    HW224592   8.897  11.407  11.782  0.5042 -0.8915 -1.1374
 5912SOL     OW24593   3.923   1.275  11.970 -0.6756 -0.3515 -0.2627
 5912SOL    HW124594   3.922   1.189  11.926  0.5414  0.2592 -1.5723
 5912SOL    HW224595   4.015   1.289  11.992 -1.0480  0.0812  1.0878
 5913SOL     OW24596   0.543   4.310  12.577  0.0355  0.1929 -0.2158
 5913SOL    HW124597   0.539   4.249  12.651  2.7630 -0.9268 -0.8992
 5913SOL    HW224598   0.454   4.309  12.541 -0.8794 -0.6273  1.9112
 5914SOL     OW24599   3.900   5.455   0.915  0.5191  0.0675  0.2911
 5914SOL    HW124600   3.954   5.391   0.869 -1.9224 -1.9647  0.0127
 5914SOL    HW224601   3.922   5.444   1.007 -0.0106 -1.4017  0.2720
 5915SOL     OW24602   3.133  11.006   8.589 -0.0215 -0.5224 -0.1857
 5915SOL    HW124603   3.204  11.068   8.573 -0.1645 -0.2681  0.1451
 5915SOL    HW224604   3.074  11.052   8.649  0.8949 -1.7339  1.7297
 5916SOL     OW24605   2.193   7.691  10.722 -0.6696  0.5473 -0.1855
 5916SOL    HW124606   2.158   7.715  10.808 -0.5149 -0.7807  0.2666
 5916SOL    HW224607   2.116   7.682  10.666 -0.9027 -0.1339  0.2311
 5917SOL     OW24608   2.715   5.144   3.794  0.1169  0.2834  0.0568
 5917SOL    HW124609   2.668   5.064   3.817 -0.7025  1.3012  2.2279
 5917SOL    HW224610   2.806   5.126   3.816  0.3729 -0.7702 -1.6243
 5918SOL     OW24611   9.433   3.614   5.074  0.8561 -0.0387  0.2876
 5918SOL    HW124612   9.439   3.643   5.165 -0.0211  0.1652  0.2968
 5918SOL    HW224613   9.368   3.673   5.034  1.0681 -0.2632 -0.4146
 5919SOL     OW24614   5.044   9.143   8.702 -0.2634  0.0342  0.1818
 5919SOL    HW124615   5.106   9.070   8.697 -0.5824 -0.3346  1.3906
 5919SOL    HW224616   5.097   9.220   8.678  0.4351 -0.3960  0.3019
 5920SOL     OW24617   4.425  11.335  12.570 -0.5518  0.1592  0.5329
 5920SOL    HW124618   4.484  11.295  12.634  0.7683 -1.3712 -1.4873
 5920SOL    HW224619   4.441  11.429  12.578  0.7363 -0.0974  1.3687
 5921SOL     OW24620   6.114   8.301   3.442  0.2017  0.0048  0.0223
 5921SOL    HW124621   6.170   8.306   3.519  0.1063  0.0752  0.0870
 5921SOL    HW224622   6.141   8.221   3.397  1.9972  1.2101 -1.2057
 5922SOL     OW24623   8.593   3.102  11.414 -0.3487  0.5373 -0.0252
 5922SOL    HW124624   8.644   3.176  11.449 -2.3468  1.3197  1.4821
 5922SOL    HW224625   8.618   3.097  11.322  1.4017  1.7328  0.3255
 5923SOL     OW24626   0.986   8.709  10.164 -0.0192  0.0660  0.0571
 5923SOL    HW124627   0.912   8.730  10.107  0.7162  3.5762  0.1663
 5923SOL    HW224628   0.957   8.634  10.216 -2.9029  0.3939 -0.9539
 5924SOL     OW24629   0.508  11.893   4.269 -0.0048  0.2497  0.0412
 5924SOL    HW124630   0.518  11.949   4.346  0.2566  1.7181 -1.0258
 5924SOL    HW224631   0.591  11.845   4.264  0.3551  0.8621  0.1246
 5925SOL     OW24632   9.552   4.032   8.984  0.0119  0.1074  0.3542
 5925SOL    HW124633   9.536   3.965   8.918  1.1907 -0.4585  0.6129
 5925SOL    HW224634   9.484   4.097   8.969 -0.8749 -0.9226 -0.1995
 5926SOL     OW24635  10.514   7.024   3.267 -0.4188  0.4017  0.5389
 5926SOL    HW124636  10.529   7.003   3.175 -0.2436 -1.3594  0.9403
 5926SOL    HW224637  10.459   6.953   3.299  0.6995  0.2076  2.1461
 5927SOL     OW24638   6.409   3.319   9.277  0.6168  0.1118  0.2451
 5927SOL    HW124639   6.370   3.379   9.340 -0.4692  0.4402 -0.7026
 5927SOL    HW224640   6.351   3.323   9.200  2.2763  0.2874 -1.0655
 5928SOL     OW24641   1.291   5.912   2.045 -0.2459  0.4885 -0.1868
 5928SOL    HW124642   1.236   5.857   2.100  1.0679 -0.9030 -0.2100
 5928SOL    HW224643   1.230   5.948   1.980 -0.8309 -2.9929 -1.7910
 5929SOL     OW24644   4.543   8.684   1.995  0.2212  0.1993  0.9147
 5929SOL    HW124645   4.616   8.700   1.934  0.4831 -0.9346  0.9042
 5929SOL    HW224646   4.559   8.595   2.028 -1.2883 -0.1689  0.7262
 5930SOL     OW24647  12.234   2.895   5.407  0.3230  0.4363  0.3626
 5930SOL    HW124648  12.214   2.988   5.400  0.3492  0.4264  0.1399
 5930SOL    HW224649  12.181   2.854   5.339  1.3780  0.4550 -0.5031
 5931SOL     OW24650   1.242  11.078  11.385  0.3465  0.4415 -0.3150
 5931SOL    HW124651   1.274  11.142  11.448  2.5672 -0.7069 -0.1634
 5931SOL    HW224652   1.281  11.106  11.302 -1.2557  1.0336 -0.9004
 5932SOL     OW24653   3.831  10.435   4.397 -0.3786  0.0489 -0.1333
 5932SOL    HW124654   3.744  10.472   4.387  0.4201  2.1216  0.1278
 5932SOL    HW224655   3.850  10.439   4.490 -0.3953 -1.4517 -0.0280
 5933SOL     OW24656   6.518   5.955  12.219 -0.2800 -0.1434  0.5021
 5933SOL    HW124657   6.501   6.045  12.244  0.3648  0.0054  0.4136
 5933SOL    HW224658   6.566   5.961  12.136 -0.1535 -0.5653  0.5382
 5934SOL     OW24659   1.720   8.866   7.339 -0.0726  0.2224  0.1258
 5934SOL    HW124660   1.697   8.849   7.248  0.6723 -2.0941  0.3029
 5934SOL    HW224661   1.710   8.781   7.383  1.1197  0.9128  1.8536
 5935SOL     OW24662   7.051   9.983   8.218 -0.1806  0.0556 -0.5161
 5935SOL    HW124663   7.106  10.048   8.176 -1.3989  2.0215  0.7598
 5935SOL    HW224664   7.112   9.917   8.250  1.2042  1.0289 -1.0749
 5936SOL     OW24665   0.441   9.639   2.939  0.4188 -0.1437  0.1421
 5936SOL    HW124666   0.445   9.657   3.033  1.9953 -2.2706  0.5819
 5936SOL    HW224667   0.524   9.593   2.920 -0.1649 -0.3956 -2.1364
 5937SOL     OW24668   9.042   4.543   1.618 -0.3635  0.6163  0.1188
 5937SOL    HW124669   8.985   4.517   1.545 -0.0477  0.8299 -0.2078
 5937SOL    HW224670   9.117   4.484   1.610  0.3925  1.6442 -0.6677
 5938SOL     OW24671   7.456   2.488  12.126  0.1860  0.3248 -0.3858
 5938SOL    HW124672   7.381   2.479  12.186  1.2241  0.3370  0.9495
 5938SOL    HW224673   7.440   2.570  12.079 -1.4933 -0.5125 -1.3997
 5939SOL     OW24674   6.098   4.926   2.144  0.1552  0.2951 -0.0286
 5939SOL    HW124675   6.168   4.862   2.155 -0.0147  0.2216  0.6395
 5939SOL    HW224676   6.126   5.001   2.197 -1.2123 -0.5006  1.9013
 5940SOL     OW24677   1.080  10.227   3.564 -0.2137 -0.6401  0.0683
 5940SOL    HW124678   1.109  10.138   3.541  1.6566 -0.2066  0.5774
 5940SOL    HW224679   1.052  10.265   3.481 -1.2938 -1.7762 -0.1185
 5941SOL     OW24680   9.515   5.136   6.177  0.1273  0.0124 -0.2092
 5941SOL    HW124681   9.590   5.184   6.215  1.0033 -0.9425 -0.6886
 5941SOL    HW224682   9.470   5.099   6.253  2.2628 -2.4733 -0.0197
 5942SOL     OW24683   0.048   9.238   0.497 -0.2415  0.0461 -0.6670
 5942SOL    HW124684  -0.047   9.236   0.486 -0.2991  1.1230 -0.4562
 5942SOL    HW224685   0.061   9.277   0.584  0.4157  1.2427 -1.2791
 5943SOL     OW24686   8.321   3.482   7.417 -0.0437 -0.7106 -0.0604
 5943SOL    HW124687   8.368   3.498   7.499 -1.6745 -2.3687  1.3151
 5943SOL    HW224688   8.386   3.494   7.348  1.2595  1.2584  1.4231
 5944SOL     OW24689  12.372   5.237   5.158  0.1308  0.5493 -0.7078
 5944SOL    HW124690  12.343   5.151   5.186 -2.0250  0.9467 -1.4686
 5944SOL    HW224691  12.467   5.235   5.165  0.1663 -2.0195 -1.0828
 5945SOL     OW24692   0.864   1.666   7.378 -0.2779  0.3320 -0.6756
 5945SOL    HW124693   0.834   1.749   7.414  2.4742  1.6063 -1.0267
 5945SOL    HW224694   0.843   1.672   7.284 -1.1018  0.1098 -0.5116
 5946SOL     OW24695   9.635   2.977   8.109 -0.7969 -0.0089 -0.5128
 5946SOL    HW124696   9.684   2.970   8.027 -1.1760  2.1931 -1.0108
 5946SOL    HW224697   9.553   3.020   8.084 -1.3793 -0.2391  0.8793
 5947SOL     OW24698   7.509   5.919   6.601  0.3951  0.4863  0.3641
 5947SOL    HW124699   7.454   5.993   6.579  0.1433  0.7826  1.8874
 5947SOL    HW224700   7.517   5.870   6.520 -3.9010 -0.7651  0.4564
 5948SOL     OW24701   3.294   2.585   9.297 -0.5343 -0.0547 -0.2945
 5948SOL    HW124702   3.219   2.626   9.255  0.0026  1.4900  0.2146
 5948SOL    HW224703   3.347   2.657   9.330 -0.0831 -1.1537  1.5683
 5949SOL     OW24704   2.206   0.443  11.789 -0.0085 -0.4980 -0.0487
 5949SOL    HW124705   2.299   0.437  11.808 -0.3774 -0.3218  2.0973
 5949SOL    HW224706   2.190   0.536  11.772  0.2077 -0.5426 -0.5069
 5950SOL     OW24707   5.764   5.452   2.899 -0.4124 -0.8682  0.0842
 5950SOL    HW124708   5.727   5.510   2.966 -1.0487 -1.5330  0.3299
 5950SOL    HW224709   5.854   5.481   2.888 -1.0496  0.9502 -0.6830
 5951SOL     OW24710   1.901   1.420   4.755  0.1083  0.1417 -0.1494
 5951SOL    HW124711   1.923   1.356   4.822  0.3346 -0.0475 -0.4013
 5951SOL    HW224712   1.813   1.449   4.777 -0.6962 -1.5203 -1.0008
 5952SOL     OW24713   4.908   7.790   2.886 -0.0301 -0.5090  0.2950
 5952SOL    HW124714   4.920   7.695   2.881 -0.4166 -0.5896  0.8676
 5952SOL    HW224715   4.961   7.817   2.962  0.7152 -0.1560 -0.3382
 5953SOL     OW24716   6.852   3.699   1.885 -0.0931 -0.0020 -0.6247
 5953SOL    HW124717   6.946   3.718   1.891  0.1373 -1.5402  2.1374
 5953SOL    HW224718   6.815   3.739   1.964 -2.0009  1.4412 -2.1488
 5954SOL     OW24719   6.996   4.972   5.232  0.1457 -0.0670  0.0904
 5954SOL    HW124720   6.902   4.955   5.236  0.1109  0.3734  1.9569
 5954SOL    HW224721   7.005   5.048   5.174 -0.6605  0.0282  0.0829
 5955SOL     OW24722   8.922   2.299   7.235  0.7891  0.1719  0.7514
 5955SOL    HW124723   8.959   2.357   7.301  0.3907  1.7516 -0.3526
 5955SOL    HW224724   8.997   2.274   7.180  1.2606 -1.7693  2.1857
 5956SOL     OW24725   6.227   3.607   3.150  0.0122 -0.0648 -0.1514
 5956SOL    HW124726   6.193   3.547   3.216 -0.5217  1.3654  0.9361
 5956SOL    HW224727   6.168   3.682   3.154  1.1876  0.9342 -0.8006
 5957SOL     OW24728   6.265  12.530  11.696 -0.0216 -0.3797  0.2109
 5957SOL    HW124729   6.300  12.507  11.610  0.1945 -0.5817  0.3527
 5957SOL    HW224730   6.219  12.451  11.725  2.3414 -1.3646  1.5425
 5958SOL     OW24731   0.708   9.528   2.981  0.3325 -0.0807 -0.2179
 5958SOL    HW124732   0.672   9.440   2.991  0.4582 -0.1117 -0.0500
 5958SOL    HW224733   0.733   9.555   3.070 -0.4309  0.4331 -0.1427
 5959SOL     OW24734   7.737   7.575   3.633 -0.4634  0.2530 -0.4803
 5959SOL    HW124735   7.823   7.585   3.591 -0.5587  0.6859 -0.5771
 5959SOL    HW224736   7.677   7.557   3.561 -0.2835 -1.2001 -0.3030
 5960SOL     OW24737  10.269   1.129  11.023 -0.0987  0.4047 -0.2840
 5960SOL    HW124738  10.288   1.036  11.033 -0.0805 -0.2352 -4.4340
 5960SOL    HW224739  10.354   1.172  11.033  0.1009 -0.1615  0.4666
 5961SOL     OW24740   2.350  10.220   3.166 -0.2526  0.0626  0.8025
 5961SOL    HW124741   2.402  10.297   3.187 -0.7274  1.1945 -1.8425
 5961SOL    HW224742   2.414  10.152   3.147  0.2326  0.5976  0.4867
 5962SOL     OW24743   8.818  12.469  12.102 -0.0492 -0.3353  0.4526
 5962SOL    HW124744   8.872  12.431  12.171  1.6136  3.1798  1.3647
 5962SOL    HW224745   8.786  12.551  12.139  0.3162  1.3778 -2.6615
 5963SOL     OW24746   9.857   1.115   9.365  0.3137 -0.2555  0.1626
 5963SOL    HW124747   9.846   1.196   9.314  1.2629 -0.2018  0.0349
 5963SOL    HW224748   9.891   1.051   9.303  2.0392 -0.0302  0.8180
 5964SOL     OW24749  12.222   6.054   7.938  0.2136 -0.2146 -0.1232
 5964SOL    HW124750  12.289   5.995   7.972  0.3975  0.2865  0.3980
 5964SOL    HW224751  12.271   6.115   7.882  0.2166  0.2581  0.3953
 5965SOL     OW24752   3.891   0.099   3.604 -0.1709  0.0255  0.4213
 5965SOL    HW124753   3.882   0.175   3.546 -1.2350 -0.7032 -0.4155
 5965SOL    HW224754   3.971   0.115   3.653 -0.0251  1.3662 -0.2150
 5966SOL     OW24755   9.355   6.966  10.953  0.4806 -0.1642  0.7877
 5966SOL    HW124756   9.383   7.027  10.885  1.1290 -2.0291 -0.7261
 5966SOL    HW224757   9.371   7.012  11.036  1.6649  1.3803 -0.2498
 5967SOL     OW24758  10.930   1.546  11.755  0.1458  0.2777 -0.5216
 5967SOL    HW124759  10.908   1.573  11.844  1.3158 -0.1697 -0.0734
 5967SOL    HW224760  10.991   1.613  11.724  0.5090 -0.0910 -0.6106
 5968SOL     OW24761   7.642   5.164   4.201 -0.0718 -0.2491  0.6716
 5968SOL    HW124762   7.606   5.131   4.284  1.0960 -0.1684  1.2359
 5968SOL    HW224763   7.721   5.212   4.227  0.5762 -0.6226 -0.5416
 5969SOL     OW24764   7.642   0.058   3.703  0.2228  0.1366  0.0511
 5969SOL    HW124765   7.736   0.041   3.709  1.2835  4.3448 -1.2337
 5969SOL    HW224766   7.607  -0.013   3.649  3.2426 -0.0143 -1.8856
 5970SOL     OW24767   6.630   7.651  12.051  0.3733 -0.4523 -0.0035
 5970SOL    HW124768   6.683   7.728  12.074  2.8550 -2.1651  0.3295
 5970SOL    HW224769   6.638   7.593  12.126  1.1129 -2.3169 -1.4626
 5971SOL     OW24770  10.675   9.144  10.842  0.0207 -0.1062 -0.2989
 5971SOL    HW124771  10.653   9.232  10.871 -0.1144 -0.6220  1.2806
 5971SOL    HW224772  10.770   9.146  10.827  0.5270 -0.3027  2.3099
 5972SOL     OW24773  10.173   2.712   7.180  0.4424  0.1548  0.4637
 5972SOL    HW124774  10.252   2.659   7.186  0.2612 -0.1112  0.5249
 5972SOL    HW224775  10.116   2.662   7.120  0.7528  0.8885 -0.4733
 5973SOL     OW24776   6.101   0.340   1.988 -0.1523 -0.1982  0.2937
 5973SOL    HW124777   6.085   0.277   2.058  1.3800  0.3718  1.2060
 5973SOL    HW224778   6.080   0.425   2.028 -0.4190  0.0346 -0.3348
 5974SOL     OW24779   0.357   8.012   9.324 -0.3820 -0.3091  0.6736
 5974SOL    HW124780   0.358   7.980   9.414 -1.0483 -1.3018  0.3340
 5974SOL    HW224781   0.265   8.032   9.306  0.0590  2.5775  1.1109
 5975SOL     OW24782   7.403   4.454   5.177  0.2845 -0.5187 -0.1822
 5975SOL    HW124783   7.486   4.424   5.214  0.4138  2.3633  2.2509
 5975SOL    HW224784   7.422   4.471   5.085  1.8198 -1.7542 -0.1230
 5976SOL     OW24785   2.035  11.390   4.111  0.0253 -0.1908  0.4133
 5976SOL    HW124786   2.051  11.476   4.150  1.0808 -0.1145 -0.1499
 5976SOL    HW224787   2.060  11.328   4.180  1.6904 -0.0556 -0.0353
 5977SOL     OW24788   2.999   2.043   6.454 -0.2334  0.3918  0.6149
 5977SOL    HW124789   2.928   1.985   6.427 -0.2620  0.6764  0.0592
 5977SOL    HW224790   3.040   2.069   6.372  1.5959 -1.1181  0.9750
 5978SOL     OW24791   0.357   5.783   0.049 -0.1536 -0.3146 -0.4462
 5978SOL    HW124792   0.433   5.777  -0.008  0.4208  0.6309  0.1935
 5978SOL    HW224793   0.335   5.876   0.051 -0.6645 -0.4341  0.2286
 5979SOL     OW24794  11.378   4.835   2.922 -0.0647 -0.1592 -0.1885
 5979SOL    HW124795  11.304   4.881   2.961 -0.3271 -1.3658  0.7924
 5979SOL    HW224796  11.447   4.901   2.916 -0.6983  0.5642  0.3809
 5980SOL     OW24797  11.675  11.145   9.297 -0.4794 -0.1628 -0.1093
 5980SOL    HW124798  11.651  11.077   9.360  0.6539  0.7009  1.3200
 5980SOL    HW224799  11.768  11.129   9.279 -0.4989  0.3121 -0.6405
 5981SOL     OW24800  11.966  11.537  11.873  0.2080 -0.2336  0.2849
 5981SOL    HW124801  11.999  11.625  11.854 -1.4665  0.1147 -1.2309
 5981SOL    HW224802  11.948  11.539  11.967  1.2057  0.6797  0.4839
 5982SOL     OW24803   2.694   9.945  10.644  0.0231  0.6153  0.2875
 5982SOL    HW124804   2.665   9.910  10.560  0.6324  2.1215 -0.6053
 5982SOL    HW224805   2.618   9.937  10.701 -1.4635  2.3858 -1.3116
 5983SOL     OW24806   9.085  11.058   5.212 -0.0068 -0.4088 -0.0868
 5983SOL    HW124807   9.145  11.075   5.285  0.1664 -0.4915 -0.2071
 5983SOL    HW224808   9.130  10.991   5.161 -0.1304 -0.3537 -0.2659
 5984SOL     OW24809   9.262  12.276   6.232  0.0062 -0.0980  0.0286
 5984SOL    HW124810   9.223  12.364   6.226  0.0937 -0.0109  0.6054
 5984SOL    HW224811   9.323  12.272   6.159  0.0751  0.3663  0.0539
 5985SOL     OW24812   8.779   1.084   9.016  0.1636 -0.6741 -0.2970
 5985SOL    HW124813   8.817   1.118   8.935  0.5421 -0.0026  0.1529
 5985SOL    HW224814   8.836   1.011   9.041 -0.7404 -1.7845 -1.3485
 5986SOL     OW24815   1.662   1.219   4.546 -0.2116 -0.0060  0.2074
 5986SOL    HW124816   1.624   1.187   4.627 -1.6893 -1.4688 -1.0039
 5986SOL    HW224817   1.711   1.144   4.511  2.3810  1.2819  0.8187
 5987SOL     OW24818   6.028  11.430   0.898 -0.5695  0.2711 -0.1380
 5987SOL    HW124819   6.122  11.443   0.909 -0.5586  0.2060 -0.1559
 5987SOL    HW224820   5.991  11.445   0.985 -0.4860 -0.2287 -0.0170
 5988SOL     OW24821  11.615  11.893  11.343 -0.3692  0.5928  0.2698
 5988SOL    HW124822  11.593  11.800  11.348 -0.3620  0.5331 -0.6607
 5988SOL    HW224823  11.640  11.917  11.433 -0.1087 -0.3650  0.4574
 5989SOL     OW24824   7.369  11.146   1.689  0.0458 -0.3233  0.1096
 5989SOL    HW124825   7.349  11.240   1.697 -1.3468 -0.6889  1.3206
 5989SOL    HW224826   7.293  11.110   1.644  0.2571 -0.9814  0.2741
 5990SOL     OW24827   2.692   4.941   7.804 -0.1362 -0.1943 -0.6984
 5990SOL    HW124828   2.717   4.871   7.865 -1.7212 -1.2720 -1.2105
 5990SOL    HW224829   2.648   5.005   7.859  1.9109  0.7934 -0.1106
 5991SOL     OW24830   9.881   6.520   0.626 -0.2193  0.3301 -0.0397
 5991SOL    HW124831   9.910   6.429   0.620 -0.7702 -0.1262  2.7535
 5991SOL    HW224832   9.862   6.533   0.719 -1.0919  3.0326 -0.5035
 5992SOL     OW24833  11.704  10.358   4.615 -0.0197 -0.0971 -0.4491
 5992SOL    HW124834  11.759  10.287   4.647  0.7189  0.6164 -0.0893
 5992SOL    HW224835  11.690  10.338   4.522 -0.5879 -1.1788 -0.1429
 5993SOL     OW24836   5.469  10.469   4.144  0.2044  0.7123  0.0346
 5993SOL    HW124837   5.428  10.553   4.122  0.8564  0.6032 -1.7678
 5993SOL    HW224838   5.534  10.455   4.076 -0.8383 -1.9432 -0.5515
 5994SOL     OW24839   4.218   1.856   7.350 -0.6672 -0.4474  0.4790
 5994SOL    HW124840   4.297   1.874   7.299 -1.3921  0.1795 -0.4727
 5994SOL    HW224841   4.245   1.866   7.441 -0.0017  1.3040  0.1273
 5995SOL     OW24842   9.742   6.085   4.866 -0.0379  0.2114 -0.2747
 5995SOL    HW124843   9.733   6.022   4.795 -0.0421 -2.2315  1.7593
 5995SOL    HW224844   9.813   6.143   4.837 -0.4434 -0.2888 -2.4777
 5996SOL     OW24845   0.583   7.951  10.817 -0.2287 -0.1899  0.3589
 5996SOL    HW124846   0.549   7.876  10.864  2.8184  0.1247  3.5266
 5996SOL    HW224847   0.634   7.914  10.744  1.9779 -1.4402  2.3937
 5997SOL     OW24848   7.976  12.188   0.374  0.6245 -0.4033 -0.5811
 5997SOL    HW124849   8.012  12.127   0.310 -1.1789 -3.4411  1.0591
 5997SOL    HW224850   7.889  12.154   0.393 -0.4056  2.5964  0.7107
 5998SOL     OW24851   9.180   3.112   3.431  0.0088  0.4493 -0.1776
 5998SOL    HW124852   9.194   3.054   3.356 -1.8735 -1.2440  0.6774
 5998SOL    HW224853   9.213   3.063   3.506 -2.0827  0.1578  0.6311
 5999SOL     OW24854   7.696   0.337   5.996  0.9343  0.5266 -0.2418
 5999SOL    HW124855   7.696   0.242   5.991  2.0178  0.4478  0.7896
 5999SOL    HW224856   7.655   0.365   5.914  0.2874 -0.8143 -0.4118
 6000SOL     OW24857   1.846   8.382  11.450 -0.1878  0.1729  0.3266
 6000SOL    HW124858   1.849   8.439  11.527 -0.7981  0.4204  0.1785
 6000SOL    HW224859   1.918   8.320  11.462 -0.2149  0.2736  1.0422
 6001SOL     OW24860   2.957   1.943   9.342 -0.6505  0.3473 -0.8621
 6001SOL    HW124861   2.973   2.034   9.364  0.6462 -0.5347  2.4112
 6001SOL    HW224862   2.902   1.910   9.413  0.4316 -1.8518 -0.9491
 6002SOL     OW24863   5.445  11.213  10.617 -0.3826  0.2969 -0.4119
 6002SOL    HW124864   5.481  11.261  10.543 -0.6682  0.0437 -0.7144
 6002SOL    HW224865   5.413  11.281  10.676  0.7737  0.5361 -0.0318
 6003SOL     OW24866   2.042   7.483   5.057  0.0473 -0.8490 -0.2446
 6003SOL    HW124867   2.050   7.517   4.968 -0.6941 -1.9578 -0.7642
 6003SOL    HW224868   1.956   7.512   5.087 -0.5513 -2.1081 -0.6566
 6004SOL     OW24869   4.348  12.539   5.962 -0.1368  0.3408 -0.0274
 6004SOL    HW124870   4.302  12.572   5.885  0.3460 -0.4723 -0.6738
 6004SOL    HW224871   4.440  12.532   5.935  0.4336  1.9996  1.2556
 6005SOL     OW24872   4.799   4.839   4.391  0.0393  0.0315 -0.0006
 6005SOL    HW124873   4.782   4.814   4.300 -1.2113 -1.2794  0.5407
 6005SOL    HW224874   4.760   4.768   4.442  1.5194  0.2791  1.5464
 6006SOL     OW24875   6.353   7.730   9.847  0.1277 -0.1227 -0.0451
 6006SOL    HW124876   6.285   7.754   9.911  1.7225  1.9437  0.9957
 6006SOL    HW224877   6.304   7.700   9.770 -1.8897 -1.4109  1.6180
 6007SOL     OW24878   5.575  11.381   0.118  0.4004  0.2920  0.4012
 6007SOL    HW124879   5.643  11.412   0.058  0.0664  0.5325  0.1387
 6007SOL    HW224880   5.500  11.437   0.099 -1.1524 -2.3380 -1.9943
 6008SOL     OW24881   7.594   8.688   7.594 -0.3767 -0.2147  0.1739
 6008SOL    HW124882   7.527   8.620   7.592 -0.8230  0.1752  1.2791
 6008SOL    HW224883   7.545   8.770   7.596  0.0965  0.0649  1.3296
 6009SOL     OW24884  12.438   9.223   2.288 -0.0822 -0.2047  0.1022
 6009SOL    HW124885  12.400   9.139   2.263  1.5707 -1.3882  1.3876
 6009SOL    HW224886  12.527   9.203   2.315  0.6788  2.1127 -0.4359
 6010SOL     OW24887   0.237   1.785   1.328  0.3599  0.3127  0.0568
 6010SOL    HW124888   0.256   1.701   1.369 -0.3153  0.1697  0.0785
 6010SOL    HW224889   0.316   1.837   1.343  1.0403 -0.5264 -0.5260
 6011SOL     OW24890   8.348   9.068   0.808 -0.0801  0.6208 -0.1308
 6011SOL    HW124891   8.443   9.061   0.818  0.0416 -0.9143 -1.8417
 6011SOL    HW224892   8.335   9.098   0.719 -1.2013  0.0927 -0.1653
 6012SOL     OW24893  11.353   1.451   8.819 -0.0274  0.3553  0.3374
 6012SOL    HW124894  11.258   1.451   8.817 -0.1590 -2.9615  0.6044
 6012SOL    HW224895  11.376   1.395   8.893  2.1251  0.8747  0.1381
 6013SOL     OW24896  11.399   2.744   8.354  0.1856 -0.2314 -0.2316
 6013SOL    HW124897  11.441   2.678   8.298  0.8171 -1.3327  1.4397
 6013SOL    HW224898  11.472   2.793   8.392 -0.1875 -0.0184  0.2257
 6014SOL     OW24899  10.691   3.261  10.676  0.1280  0.3868 -0.4185
 6014SOL    HW124900  10.601   3.246  10.706  0.6829  1.0203  1.6885
 6014SOL    HW224901  10.682   3.325  10.605 -1.1069  0.0494 -0.5889
 6015SOL     OW24902   4.168   3.278   6.333 -0.2374 -0.1493  0.2624
 6015SOL    HW124903   4.181   3.192   6.373 -0.3420 -0.9865 -1.4077
 6015SOL    HW224904   4.183   3.264   6.240 -0.3161  1.6468 -0.0609
 6016SOL     OW24905   2.447   5.751   4.642  0.1210 -0.3368  0.2232
 6016SOL    HW124906   2.386   5.722   4.710 -0.6115 -1.0311 -0.7050
 6016SOL    HW224907   2.485   5.670   4.608  1.9344  0.1027  1.0895
 6017SOL     OW24908   1.679   8.169   7.602  0.0330 -0.4483 -0.4034
 6017SOL    HW124909   1.711   8.157   7.512 -0.6845 -0.6006 -0.6481
 6017SOL    HW224910   1.593   8.127   7.602 -0.4836  0.5627  0.0271
 6018SOL     OW24911   8.127   0.291   1.886 -0.4648  0.3515  0.1368
 6018SOL    HW124912   8.110   0.248   1.970  1.7721  0.0010  0.4472
 6018SOL    HW224913   8.110   0.384   1.904  1.1897  0.4635  1.3885
 6019SOL     OW24914   4.256   7.903   4.932  0.5275 -1.0084  0.2248
 6019SOL    HW124915   4.313   7.852   4.875  0.2936 -2.1680  1.0111
 6019SOL    HW224916   4.304   7.911   5.014  0.5423  0.0235  0.1330
 6020SOL     OW24917   9.316  10.812   3.998 -0.1136 -0.2403 -0.0481
 6020SOL    HW124918   9.358  10.787   4.080  0.8427 -1.7648 -0.9465
 6020SOL    HW224919   9.226  10.834   4.023  0.4265  0.2872  1.5191
 6021SOL     OW24920   8.069   2.624   3.864  0.1237  0.7055 -0.4041
 6021SOL    HW124921   8.008   2.697   3.855 -0.3190  0.3688 -0.1951
 6021SOL    HW224922   8.018   2.556   3.906  0.3489  0.0435 -1.1772
 6022SOL     OW24923   6.223   8.531   2.164  0.3398 -0.8833  0.6078
 6022SOL    HW124924   6.315   8.548   2.184  0.4441 -0.0692 -0.4721
 6022SOL    HW224925   6.174   8.572   2.235  0.7449  0.8362 -0.0549
 6023SOL     OW24926  10.215   9.544   1.896  0.5089  0.2316  0.2235
 6023SOL    HW124927  10.206   9.627   1.943  0.9467  0.3519  0.0964
 6023SOL    HW224928  10.248   9.569   1.810  0.8245 -0.0927  0.2491
 6024SOL     OW24929   8.261   1.449   4.989 -0.4468 -0.3531  0.1382
 6024SOL    HW124930   8.288   1.441   4.897  1.2510 -0.2698  0.6046
 6024SOL    HW224931   8.169   1.474   4.984 -0.5321 -0.8393 -1.5402
 6025SOL     OW24932   5.466   9.660   3.601  0.4338 -0.0556 -0.0851
 6025SOL    HW124933   5.382   9.673   3.645  0.6626  1.0478  0.0404
 6025SOL    HW224934   5.448   9.593   3.535 -0.3351 -0.4596  0.5106
 6026SOL     OW24935   0.467   2.045   4.079  0.4463 -0.3294 -0.2380
 6026SOL    HW124936   0.470   1.980   4.149 -2.7936 -0.4951 -0.1270
 6026SOL    HW224937   0.374   2.058   4.061  0.8412  4.4488 -0.1338
 6027SOL     OW24938   7.112   8.549   3.810 -0.1427 -0.1014  0.0273
 6027SOL    HW124939   7.166   8.573   3.885  1.5076 -2.3238 -0.3628
 6027SOL    HW224940   7.173   8.511   3.747 -1.8838 -0.9259 -1.2499
 6028SOL     OW24941  10.183   2.857  10.582 -0.3225 -0.3835  0.1190
 6028SOL    HW124942  10.259   2.833  10.529 -1.0339 -0.5725 -0.8393
 6028SOL    HW224943  10.116   2.793  10.558 -0.9020 -0.0121  0.7030
 6029SOL     OW24944   7.757   2.392  10.019  0.7369 -0.0293 -0.0146
 6029SOL    HW124945   7.828   2.445   9.982  1.0494  1.0487  1.9883
 6029SOL    HW224946   7.681   2.451  10.019  0.5285 -0.2971  0.2584
 6030SOL     OW24947   3.504   0.726   4.612 -0.2449 -0.0249 -0.1100
 6030SOL    HW124948   3.413   0.699   4.600  0.2181 -1.1314 -1.3601
 6030SOL    HW224949   3.499   0.814   4.649 -1.8280  0.3560 -1.1654
 6031SOL     OW24950   1.280   0.254   0.071 -0.8768  0.2593  0.4768
 6031SOL    HW124951   1.264   0.342   0.106  2.6905  1.8712 -1.3067
 6031SOL    HW224952   1.252   0.260  -0.021  2.9865  1.1159 -0.8529
 6032SOL     OW24953   7.833   7.032   1.876  0.5720 -0.2820  0.3272
 6032SOL    HW124954   7.828   7.070   1.788  0.1448  0.0512  0.4904
 6032SOL    HW224955   7.773   7.085   1.928  0.2855 -0.9186  0.6606
 6033SOL     OW24956   6.649   9.056   0.872 -0.1693 -0.0386 -0.2295
 6033SOL    HW124957   6.717   8.988   0.873  0.8210  0.9335 -0.3717
 6033SOL    HW224958   6.696   9.137   0.857 -1.5635  0.4466 -2.3133
 6034SOL     OW24959   1.543   7.288   9.528 -0.4681 -0.0059  0.2118
 6034SOL    HW124960   1.626   7.240   9.519 -1.3324 -1.3036 -1.2633
 6034SOL    HW224961   1.542   7.315   9.620  1.0955 -0.8700  0.5322
 6035SOL     OW24962   1.019   3.495   2.356 -0.2821  0.2226  0.4019
 6035SOL    HW124963   0.990   3.414   2.398 -0.7355  0.7161  1.0427
 6035SOL    HW224964   0.939   3.537   2.326 -0.2367  1.3562  1.7536
 6036SOL     OW24965   6.034  11.931   2.022  0.0596  0.0735  0.1031
 6036SOL    HW124966   5.960  11.930   1.962  1.1327 -0.4527 -1.2387
 6036SOL    HW224967   6.066  11.841   2.024  0.2521  0.1435  1.2357
 6037SOL     OW24968   2.639   8.924   3.324  0.0795 -0.3885 -0.6176
 6037SOL    HW124969   2.694   9.000   3.344  0.5155 -0.9407  0.3708
 6037SOL    HW224970   2.562   8.960   3.281  0.8230  0.4912 -1.2491
 6038SOL     OW24971   8.739   2.920   5.044  0.1466 -0.3546  0.2714
 6038SOL    HW124972   8.738   2.825   5.044  0.1801 -0.3577  0.8516
 6038SOL    HW224973   8.684   2.945   5.119 -0.7824  0.0942 -0.5194
 6039SOL     OW24974   4.538  11.460   7.824 -0.3773 -0.4511  0.0458
 6039SOL    HW124975   4.603  11.395   7.852  1.2986  0.1811 -2.1357
 6039SOL    HW224976   4.473  11.409   7.776  0.7710 -0.6036 -1.3981
 6040SOL     OW24977  10.771  10.548  10.324 -0.0397 -0.0684 -0.1988
 6040SOL    HW124978  10.679  10.519  10.330  0.1461 -0.4172  1.6434
 6040SOL    HW224979  10.790  10.582  10.411  1.6774 -0.2520 -0.4853
 6041SOL     OW24980   3.980  10.483   5.344 -0.1986  0.3528  0.3740
 6041SOL    HW124981   3.884  10.485   5.349 -0.2784 -0.6189 -0.4641
 6041SOL    HW224982   4.001  10.391   5.331  0.7090  0.7882 -1.6404
 6042SOL     OW24983   5.260   8.695   3.578  0.2572 -0.5888  0.6360
 6042SOL    HW124984   5.243   8.607   3.544  0.8217 -0.0622 -1.1409
 6042SOL    HW224985   5.212   8.753   3.518  0.1984  0.3393  1.5562
 6043SOL     OW24986   4.074   5.411   1.356  0.0445 -0.3813  0.0880
 6043SOL    HW124987   4.062   5.323   1.393  0.1510 -0.0915  0.8329
 6043SOL    HW224988   4.127   5.398   1.278 -2.2142 -1.3142 -1.3893
 6044SOL     OW24989   9.904  11.786   2.959 -0.6580 -0.0344 -0.0555
 6044SOL    HW124990   9.993  11.813   2.936 -0.3801  0.1273  1.1521
 6044SOL    HW224991   9.890  11.707   2.907 -0.6580  1.1317 -1.9538
 6045SOL     OW24992   5.149   7.764  11.320 -0.3414  0.1060  0.3478
 6045SOL    HW124993   5.139   7.854  11.290 -0.8296 -0.3467 -0.9095
 6045SOL    HW224994   5.092   7.758  11.396  0.1179  1.0053  0.7784
 6046SOL     OW24995   4.761  10.335   3.471  0.0457  0.4532  0.1026
 6046SOL    HW124996   4.686  10.320   3.414  0.1933  0.6462 -0.1463
 6046SOL    HW224997   4.811  10.253   3.467  0.9738  1.0350 -1.4338
 6047SOL     OW24998   3.360   0.871   2.629  0.1782  0.1567  0.2618
 6047SOL    HW124999   3.415   0.825   2.693  1.6471  0.8344 -0.4753
 6047SOL    HW225000   3.286   0.903   2.681  0.1731 -1.2627  1.1751
 6048SOL     OW25001   7.417   4.725   7.439  0.2330 -0.0687  0.0077
 6048SOL    HW125002   7.479   4.670   7.487 -0.2464  1.0807  2.0632
 6048SOL    HW225003   7.448   4.815   7.454 -0.0864  0.3631 -1.6774
 6049SOL     OW25004  12.123   9.204   8.305 -0.0995  0.0455  0.2722
 6049SOL    HW125005  12.125   9.217   8.210  0.4716  1.7766  0.4815
 6049SOL    HW225006  12.032   9.221   8.330 -0.7850 -2.5732 -0.1770
 6050SOL     OW25007   2.083   4.018   5.086 -0.1896  0.0728 -0.4265
 6050SOL    HW125008   2.134   3.984   5.160  0.3155  0.3087 -0.6602
 6050SOL    HW225009   2.148   4.062   5.031 -0.2443 -1.6542 -1.9394
 6051SOL     OW25010   4.315   9.002   1.279  0.4831 -0.0523  0.1269
 6051SOL    HW125011   4.316   9.096   1.264 -4.4635  0.5236  1.6054
 6051SOL    HW225012   4.247   8.969   1.220  0.5270 -2.2917  1.2316
 6052SOL     OW25013   8.962   4.316   0.369 -0.5152 -0.0538  0.5474
 6052SOL    HW125014   8.934   4.295   0.280  0.5841 -2.0244  0.6084
 6052SOL    HW225015   8.943   4.409   0.379  0.1674  0.4294 -2.0508
 6053SOL     OW25016   7.581   5.885   9.723 -0.6666  0.6106 -0.8179
 6053SOL    HW125017   7.488   5.887   9.703 -0.9192  0.5621  0.2468
 6053SOL    HW225018   7.594   5.959   9.783 -0.2353 -0.0040 -0.1396
 6054SOL     OW25019   4.136   6.080   0.631 -0.2680  0.1537 -0.0695
 6054SOL    HW125020   4.105   6.170   0.646 -0.6575  0.3698 -1.9973
 6054SOL    HW225021   4.177   6.082   0.545 -0.6750 -1.6167 -0.3462
 6055SOL     OW25022  10.951   9.085   9.194 -0.1310  0.0851 -0.0338
 6055SOL    HW125023  10.994   9.170   9.181  1.9163 -0.5631  1.9319
 6055SOL    HW225024  10.936   9.080   9.288 -0.6501 -1.5617 -0.1760
 6056SOL     OW25025  12.310  10.759  10.628 -0.1869 -0.0272 -0.0668
 6056SOL    HW125026  12.307  10.830  10.563 -0.3935 -0.1096 -0.1504
 6056SOL    HW225027  12.379  10.701  10.597 -0.0796  0.0893 -0.0487
 6057SOL     OW25028   0.436   2.666   1.461 -0.3968  0.4697 -0.4361
 6057SOL    HW125029   0.486   2.599   1.508  0.1974  0.4817 -1.0285
 6057SOL    HW225030   0.390   2.715   1.529 -0.7914 -0.4939  0.0198
 6058SOL     OW25031   4.099   1.147   3.352  0.2408 -0.2884  0.5385
 6058SOL    HW125032   4.122   1.090   3.279  0.1587  2.4789 -1.8267
 6058SOL    HW225033   4.093   1.088   3.427  1.0200 -3.2026 -1.4968
 6059SOL     OW25034   4.123   6.903   1.015 -0.1133 -0.5062 -0.0239
 6059SOL    HW125035   4.147   6.898   0.923  2.2476  0.1586  0.4891
 6059SOL    HW225036   4.137   6.995   1.039 -1.7539 -0.4205  0.7609
 6060SOL     OW25037   1.294   3.711   3.161 -0.5824 -0.1415  0.0042
 6060SOL    HW125038   1.306   3.775   3.090 -1.3531  0.9539  0.8246
 6060SOL    HW225039   1.253   3.636   3.118 -0.5168  0.2717 -0.8159
 6061SOL     OW25040   2.460   5.710   1.480 -0.0668 -0.1791 -0.2726
 6061SOL    HW125041   2.368   5.726   1.458 -0.4495  1.1009  1.9174
 6061SOL    HW225042   2.463   5.617   1.502 -1.5713  0.2958  2.4187
 6062SOL     OW25043   3.032   1.782   0.706  0.4218  0.0803 -0.3178
 6062SOL    HW125044   2.949   1.768   0.751  0.1569 -0.8841 -1.0777
 6062SOL    HW225045   3.089   1.823   0.772 -0.7317  1.0361  0.1175
 6063SOL     OW25046   6.065   5.191   9.594  0.8151  0.1721 -0.0548
 6063SOL    HW125047   6.141   5.247   9.589 -0.1251  1.4568 -0.3786
 6063SOL    HW225048   5.996   5.247   9.629  0.4966 -1.4865  2.2156
 6064SOL     OW25049   4.929   4.350   9.754 -0.4161 -0.0730 -0.6259
 6064SOL    HW125050   4.968   4.269   9.787  0.8867  0.6077 -0.3839
 6064SOL    HW225051   4.917   4.403   9.833 -3.2093 -0.7583 -0.4994
 6065SOL     OW25052   5.534   4.077   2.473  0.1548 -0.4281  0.1831
 6065SOL    HW125053   5.490   4.011   2.527 -0.6507 -0.0998 -0.0578
 6065SOL    HW225054   5.503   4.061   2.384 -0.7748  0.8277  0.2482
 6066SOL     OW25055   7.757  12.416   0.874 -0.4530  0.0459 -0.3623
 6066SOL    HW125056   7.829  12.378   0.923 -0.8439 -0.1344  0.0776
 6066SOL    HW225057   7.749  12.361   0.796  0.1896  0.3537 -0.6452
 6067SOL     OW25058   3.257   5.298   9.664 -0.1976  0.1188  0.8860
 6067SOL    HW125059   3.280   5.267   9.576  3.6952 -1.2909  2.1585
 6067SOL    HW225060   3.193   5.235   9.695 -0.0184 -0.6402 -0.2059
 6068SOL     OW25061   8.028   0.893   0.466 -0.6304  0.4339 -0.0435
 6068SOL    HW125062   7.942   0.858   0.489 -1.2429  0.1544 -2.4180
 6068SOL    HW225063   8.008   0.970   0.411  0.6779  1.5081  0.9252
 6069SOL     OW25064   2.887   5.741   6.129  0.4117 -0.0510 -0.5074
 6069SOL    HW125065   2.806   5.705   6.094  0.2533 -0.8653  0.6472
 6069SOL    HW225066   2.912   5.809   6.066 -1.7108  0.9474 -0.3471
 6070SOL     OW25067   8.297  11.975   0.215  0.2266 -0.2187  0.2861
 6070SOL    HW125068   8.348  11.968   0.296  0.5776  0.8188  0.1767
 6070SOL    HW225069   8.210  11.945   0.238  0.3144  0.1080  1.0755
 6071SOL     OW25070   0.197   3.732   1.211  0.0868  0.2258 -0.2364
 6071SOL    HW125071   0.159   3.721   1.124 -1.1317 -2.4998  0.5250
 6071SOL    HW225072   0.265   3.664   1.216  0.3149  0.5119  0.8522
 6072SOL     OW25073   3.757   3.525  10.373 -0.5038  0.2290  0.8954
 6072SOL    HW125074   3.780   3.444  10.329  1.1602  0.5821  1.0630
 6072SOL    HW225075   3.661   3.526  10.374 -0.5429 -1.2642  0.0642
 6073SOL     OW25076   2.738   7.033   7.698  0.1279  0.0965  0.4112
 6073SOL    HW125077   2.788   7.033   7.616  0.4645  1.2971  0.5898
 6073SOL    HW225078   2.792   7.085   7.759 -0.6541  0.1847  1.0461
 6074SOL     OW25079   6.657   9.887   7.953  0.5393  0.3343  0.2712
 6074SOL    HW125080   6.719   9.830   7.908  1.8674  0.3721  1.9711
 6074SOL    HW225081   6.595   9.913   7.884  0.9880 -1.6028 -0.9511
 6075SOL     OW25082  11.095   6.010   4.621  0.3751  0.4608 -0.4607
 6075SOL    HW125083  11.066   6.020   4.530  2.2592  0.2652 -1.1286
 6075SOL    HW225084  11.189   6.028   4.618  1.2659 -3.2712  0.7732
 6076SOL     OW25085   7.423   0.516   3.548  0.7771  0.1103 -0.1381
 6076SOL    HW125086   7.454   0.437   3.593 -0.0888 -0.4905 -0.5705
 6076SOL    HW225087   7.360   0.484   3.483 -1.3893  1.2907  1.2233
 6077SOL     OW25088  11.942   6.897   8.080 -0.2969  0.2528 -0.3579
 6077SOL    HW125089  11.920   6.909   8.172  1.8540 -1.0565  0.3929
 6077SOL    HW225090  11.888   6.961   8.034 -0.5925  1.7273  1.9031
 6078SOL     OW25091   4.248   3.375   3.094 -0.2941 -0.1840 -0.4054
 6078SOL    HW125092   4.245   3.313   3.021  1.6698 -0.4359 -0.3255
 6078SOL    HW225093   4.168   3.357   3.144 -1.0452 -0.8623 -1.7807
 6079SOL     OW25094  11.572   0.034  11.847 -0.2313 -0.0589  0.1976
 6079SOL    HW125095  11.580   0.129  11.854 -1.9706  0.0308  1.6929
 6079SOL    HW225096  11.511   0.020  11.774  0.2658 -0.0546 -0.2232
 6080SOL     OW25097   4.360   2.606   4.356  0.0954 -0.0510 -0.1066
 6080SOL    HW125098   4.386   2.660   4.431  2.4085 -2.3119  0.8859
 6080SOL    HW225099   4.427   2.622   4.290 -0.3654 -0.1795 -0.6146
 6081SOL     OW25100   7.080   0.594   2.384  0.3069 -0.4133  0.3797
 6081SOL    HW125101   7.096   0.546   2.465  0.4732 -1.7147 -0.4112
 6081SOL    HW225102   7.150   0.660   2.381  2.4009 -2.5400 -0.3411
 6082SOL     OW25103   4.885   3.306  12.022 -0.2417 -0.0296  0.5494
 6082SOL    HW125104   4.794   3.322  12.049 -0.7189  1.2288 -1.5627
 6082SOL    HW225105   4.933   3.381  12.057 -0.2422 -0.0919  0.6837
 6083SOL     OW25106  11.507   7.253   7.047  1.0713 -0.0011  0.1595
 6083SOL    HW125107  11.580   7.217   7.097  1.9967  1.7471  0.1328
 6083SOL    HW225108  11.546   7.287   6.967  0.0111 -0.2602 -0.4955
 6084SOL     OW25109   5.759   4.659   0.192 -0.4652  0.6319  0.0898
 6084SOL    HW125110   5.720   4.689   0.274 -0.2213 -1.4632  1.0503
 6084SOL    HW225111   5.849   4.635   0.216 -0.3155  0.2207 -0.8444
 6085SOL     OW25112   4.857   7.519  12.370 -0.4891 -0.2663 -0.0674
 6085SOL    HW125113   4.916   7.445  12.355  0.4364  0.4177  0.1034
 6085SOL    HW225114   4.787   7.484  12.424  1.2529 -0.4608  2.2052
 6086SOL     OW25115   9.792  10.619   9.202 -0.1427 -0.4627 -0.2929
 6086SOL    HW125116   9.810  10.679   9.130 -1.1605 -1.9873 -1.8813
 6086SOL    HW225117   9.771  10.676   9.276  0.7520  1.1391 -1.2173
 6087SOL     OW25118   7.642   4.961   7.326  0.7256  0.0851  0.3157
 6087SOL    HW125119   7.559   5.002   7.303  0.5704 -0.6428 -0.4582
 6087SOL    HW225120   7.671   4.918   7.245  1.2512 -0.6870  0.9018
 6088SOL     OW25121   6.477   9.852   0.001  0.5705 -0.1450  0.5896
 6088SOL    HW125122   6.440   9.831  -0.084  0.3251  0.6798  0.4901
 6088SOL    HW225123   6.567   9.818  -0.003  0.8035  0.5454 -0.2677
 6089SOL     OW25124   7.798  10.346   1.166  0.2781 -0.3457  0.4650
 6089SOL    HW125125   7.716  10.367   1.122  1.0332  2.1642  0.1375
 6089SOL    HW225126   7.787  10.254   1.194 -1.6687 -0.8403 -1.6418
 6090SOL     OW25127   4.221   1.597   0.379  0.3061 -0.1132  0.0248
 6090SOL    HW125128   4.174   1.521   0.346  1.5181 -0.7841 -0.1857
 6090SOL    HW225129   4.192   1.669   0.322  2.0677 -1.1632 -2.3679
 6091SOL     OW25130   0.646   8.695   2.407 -0.4094 -0.3603  0.1250
 6091SOL    HW125131   0.730   8.733   2.381 -1.8804  1.3778 -2.7209
 6091SOL    HW225132   0.665   8.604   2.427  2.4369  0.4852  1.7336
 6092SOL     OW25133   2.106   3.645  11.343  0.3268 -0.4672  0.1765
 6092SOL    HW125134   2.189   3.630  11.297  0.9762 -2.8650  1.9004
 6092SOL    HW225135   2.044   3.585  11.302  0.0255 -0.2666  0.3332
 6093SOL     OW25136  10.791   6.733   4.983  0.2545 -0.0026 -0.1545
 6093SOL    HW125137  10.853   6.771   4.922  2.8334 -0.2924  2.0884
 6093SOL    HW225138  10.751   6.807   5.028 -0.0693  0.1532 -0.6910
 6094SOL     OW25139   1.198   1.023  10.305  0.3241  0.3571  0.1531
 6094SOL    HW125140   1.197   0.939  10.352  0.1560  1.0655  1.4676
 6094SOL    HW225141   1.239   1.003  10.221  2.8002 -0.5521  1.4636
 6095SOL     OW25142   1.473   1.471   7.410  0.4145 -0.2256 -0.1284
 6095SOL    HW125143   1.558   1.461   7.367  0.2071 -0.2810 -0.5247
 6095SOL    HW225144   1.425   1.533   7.355 -0.0189 -0.6423 -0.2278
 6096SOL     OW25145   8.498  11.972   0.011 -0.2358 -0.5730  0.6465
 6096SOL    HW125146   8.495  12.050   0.066  0.3341  0.6437 -0.9682
 6096SOL    HW225147   8.419  11.923   0.035 -0.4343  0.3298  1.9314
 6097SOL     OW25148   1.478  10.679   2.805  0.6098  0.1640  0.5504
 6097SOL    HW125149   1.390  10.716   2.818  1.2257  1.8155  0.2761
 6097SOL    HW225150   1.504  10.648   2.891 -0.1391 -0.1002  0.6895
 6098SOL     OW25151   6.701   6.182  12.157 -0.3662 -0.0399 -0.4120
 6098SOL    HW125152   6.767   6.138  12.210 -0.2325  0.1798 -0.3972
 6098SOL    HW225153   6.698   6.131  12.076  0.0963  0.1751 -0.5677
 6099SOL     OW25154   4.806   2.584   8.857  0.4362  0.6618 -0.0196
 6099SOL    HW125155   4.835   2.597   8.767 -0.7453  1.9615 -0.2489
 6099SOL    HW225156   4.878   2.536   8.899  0.2853 -1.5112 -2.0685
 6100SOL     OW25157   2.282  10.296  11.803  0.3935 -0.6092  0.4139
 6100SOL    HW125158   2.231  10.274  11.725  1.0068  1.3852 -0.6215
 6100SOL    HW225159   2.363  10.246  11.794  0.5769 -0.1829 -0.3919
 6101SOL     OW25160   8.051   8.116  11.152  0.0624  0.7366 -0.1771
 6101SOL    HW125161   7.975   8.162  11.190 -0.5774 -0.2552 -0.2224
 6101SOL    HW225162   8.074   8.051  11.218 -0.9117 -0.8484 -1.3398
 6102SOL     OW25163   2.489   3.712  11.845 -0.5679  0.3162 -0.3872
 6102SOL    HW125164   2.410   3.762  11.863 -0.7548  0.7133 -2.1251
 6102SOL    HW225165   2.544   3.725  11.922 -1.7496  0.8894  0.3918
 6103SOL     OW25166   6.563  10.129   2.585 -0.3130 -0.0112 -0.1874
 6103SOL    HW125167   6.658  10.144   2.590 -0.4003  0.1956  1.2103
 6103SOL    HW225168   6.535  10.182   2.511  0.7912 -0.8373 -1.2504
 6104SOL     OW25169   2.837   8.180   2.831 -0.6756  0.1704 -0.1623
 6104SOL    HW125170   2.742   8.179   2.817 -1.0998 -0.3323  2.2512
 6104SOL    HW225171   2.867   8.260   2.789 -1.9890 -0.1583 -1.8480
 6105SOL     OW25172   5.295  12.380   2.451  0.3713  0.0350  0.2175
 6105SOL    HW125173   5.296  12.369   2.546  1.9254  0.8398  0.3203
 6105SOL    HW225174   5.226  12.320   2.420 -1.0033  0.6532  1.9394
 6106SOL     OW25175   4.307   7.827   5.542 -0.7454  0.0115 -0.3041
 6106SOL    HW125176   4.264   7.893   5.597 -2.0599 -2.0326  1.3250
 6106SOL    HW225177   4.400   7.833   5.565 -0.8298  1.3278 -0.2581
 6107SOL     OW25178   4.704   2.472   0.413  0.1774  0.0215 -0.3494
 6107SOL    HW125179   4.756   2.404   0.370 -1.2648 -0.4840 -1.3772
 6107SOL    HW225180   4.658   2.426   0.483  0.7213  0.3657  0.2410
 6108SOL     OW25181   7.522   7.835  12.183  0.1745  0.1556 -0.5665
 6108SOL    HW125182   7.465   7.826  12.259  2.8452  0.1230  1.5744
 6108SOL    HW225183   7.566   7.751  12.174  1.4723  0.8265 -0.7804
 6109SOL     OW25184   0.405   0.851  12.043 -0.3658 -0.4168  0.4217
 6109SOL    HW125185   0.341   0.829  12.110  0.8575  0.0284  1.7905
 6109SOL    HW225186   0.354   0.890  11.972 -1.5962 -0.0512  1.4763
 6110SOL     OW25187   8.067   5.686  10.788 -0.5177 -0.6966 -0.0530
 6110SOL    HW125188   8.044   5.623  10.856 -1.9975  1.4403  1.5891
 6110SOL    HW225189   8.162   5.696  10.796 -0.8119  1.0351  3.3411
 6111SOL     OW25190   5.911   8.267  10.918 -0.0837 -0.1197  0.0711
 6111SOL    HW125191   5.921   8.261  11.013  1.9364 -2.1605 -0.1797
 6111SOL    HW225192   5.955   8.348  10.894  4.5306 -2.2115  0.4706
 6112SOL     OW25193   0.856  10.086   0.963 -0.6970 -0.5386 -0.2667
 6112SOL    HW125194   0.793  10.090   0.892 -1.8241  0.7578  0.7495
 6112SOL    HW225195   0.806  10.051   1.037 -0.1425  0.1938  0.4695
 6113SOL     OW25196   0.868  10.460   1.540  0.0315  0.1403  0.1821
 6113SOL    HW125197   0.862  10.385   1.481 -1.3290  1.3230 -1.2844
 6113SOL    HW225198   0.909  10.425   1.619 -0.3503 -2.0842 -0.5242
 6114SOL     OW25199   3.382   9.317   0.135 -1.4817  0.2044 -0.1521
 6114SOL    HW125200   3.411   9.259   0.065  1.5913  0.4860  0.7560
 6114SOL    HW225201   3.301   9.277   0.167 -1.1594 -1.7912 -1.6268
 6115SOL     OW25202   0.145   8.071   9.906 -0.6216  0.2641  0.2490
 6115SOL    HW125203   0.061   8.028   9.921  0.0932 -1.7002 -0.9140
 6115SOL    HW225204   0.139   8.104   9.816 -0.0427 -0.2042  0.0319
 6116SOL     OW25205   9.775   7.687   0.715  0.0422 -0.0647 -0.5514
 6116SOL    HW125206   9.868   7.677   0.737  0.0153 -0.6310 -0.6911
 6116SOL    HW225207   9.766   7.779   0.690  0.4066  0.1970  0.2268
 6117SOL     OW25208   1.102   8.491   8.420 -0.3528 -0.0846 -0.3101
 6117SOL    HW125209   1.171   8.550   8.450 -0.3877 -0.3479  0.2993
 6117SOL    HW225210   1.098   8.423   8.487  1.7294 -2.4773 -2.3654
 6118SOL     OW25211   1.892  12.395   2.736 -0.2823  0.1613  0.1368
 6118SOL    HW125212   1.886  12.310   2.781 -1.2733  0.9767  1.6238
 6118SOL    HW225213   1.878  12.460   2.805  1.2866  1.5935 -0.8091
 6119SOL     OW25214  11.318   2.332   5.198 -0.1513  0.4720  0.6320
 6119SOL    HW125215  11.361   2.320   5.114  0.0575  0.2686  0.7676
 6119SOL    HW225216  11.237   2.379   5.177 -0.8369 -0.8693  0.1418
 6120SOL     OW25217   0.609  10.703   1.973  0.5791 -0.0016  0.8643
 6120SOL    HW125218   0.572  10.654   2.047 -0.7941  2.2536  1.7837
 6120SOL    HW225219   0.696  10.666   1.961  0.0325 -1.8856  2.1902
 6121SOL     OW25220   3.316   8.007   4.660 -0.1845  0.3863 -0.1918
 6121SOL    HW125221   3.347   8.073   4.597 -2.3087 -0.1334 -1.9026
 6121SOL    HW225222   3.396   7.963   4.689  1.1730  2.7592 -0.0362
 6122SOL     OW25223   1.715   3.056   9.018 -0.5321 -0.1372  0.5882
 6122SOL    HW125224   1.692   3.032   8.928 -0.6290  0.7875  0.3534
 6122SOL    HW225225   1.803   3.092   9.011 -1.5413  2.5352  0.3564
 6123SOL     OW25226   4.500   1.097   4.220 -0.0796  0.1391  0.1529
 6123SOL    HW125227   4.496   1.003   4.239  0.3824 -0.2198 -1.3675
 6123SOL    HW225228   4.434   1.111   4.153  2.2166  0.1535 -2.2660
 6124SOL     OW25229   5.167   4.078   7.595 -0.0381  0.4007 -0.2891
 6124SOL    HW125230   5.167   4.086   7.690 -2.0113 -1.9264  0.0194
 6124SOL    HW225231   5.153   3.984   7.579  2.5840  0.3255 -2.9170
 6125SOL     OW25232   5.484   4.776   8.093 -0.5258  0.0057 -0.0349
 6125SOL    HW125233   5.401   4.739   8.122 -0.3793 -1.2945 -1.2319
 6125SOL    HW225234   5.473   4.792   8.000 -0.0857  1.6880  0.1611
 6126SOL     OW25235  12.305   3.334   1.099 -0.3317 -0.7555  0.1150
 6126SOL    HW125236  12.236   3.269   1.109 -0.2718 -0.9869 -0.9004
 6126SOL    HW225237  12.384   3.291   1.134 -0.8821 -0.0712  2.3814
 6127SOL     OW25238   3.474   9.557  11.217  0.3913  0.5896  0.0728
 6127SOL    HW125239   3.544   9.492  11.209  0.0470  0.3642 -1.2716
 6127SOL    HW225240   3.449   9.554  11.310  2.3723  0.9238  0.6568
 6128SOL     OW25241   4.627  11.786   7.112 -0.5993  0.4063 -0.1307
 6128SOL    HW125242   4.628  11.797   7.207  1.8715 -3.1096  0.4285
 6128SOL    HW225243   4.563  11.718   7.096 -1.2731  1.2342 -1.1007
 6129SOL     OW25244   5.858   8.145   8.463  0.1048 -0.1196  0.1358
 6129SOL    HW125245   5.788   8.119   8.523 -1.6059 -0.0406 -1.7391
 6129SOL    HW225246   5.931   8.086   8.485 -1.1154 -1.3920  0.9847
 6130SOL     OW25247   2.098   9.765   0.778  0.0423  0.1045  0.8547
 6130SOL    HW125248   2.067   9.855   0.782 -0.1814  0.0096  1.2842
 6130SOL    HW225249   2.019   9.713   0.761  0.5883  0.2876 -3.4224
 6131SOL     OW25250   8.587   9.003   2.136  0.2147  0.0536 -0.4269
 6131SOL    HW125251   8.597   9.080   2.191  1.0406  0.0633 -0.5851
 6131SOL    HW225252   8.636   9.023   2.056  0.5064 -0.6659 -0.4376
 6132SOL     OW25253   9.731   4.115   3.908 -0.0615 -0.0757 -0.1393
 6132SOL    HW125254   9.770   4.100   3.822 -0.4492  1.7408 -0.6717
 6132SOL    HW225255   9.638   4.133   3.889 -0.3783 -0.6945  0.7707
 6133SOL     OW25256  12.108   4.148   0.532  0.6760  1.0452  0.1684
 6133SOL    HW125257  12.167   4.199   0.588  1.6357  0.8192 -0.6013
 6133SOL    HW225258  12.159   4.132   0.452  0.0841 -0.3907  0.0555
 6134SOL     OW25259   1.328   5.418  11.363 -0.1325  0.3031  0.4972
 6134SOL    HW125260   1.400   5.373  11.406  0.0454  1.3852  1.3619
 6134SOL    HW225261   1.332   5.507  11.396 -0.8373  0.8172 -0.7336
 6135SOL     OW25262  10.389   5.731   3.990 -0.1771  0.3076 -0.2680
 6135SOL    HW125263  10.397   5.713   4.084  2.1428  0.3078 -0.4286
 6135SOL    HW225264  10.368   5.646   3.952  0.2116  0.0419  0.1043
 6136SOL     OW25265   5.654   5.285   9.190 -0.1503 -0.0764 -0.0566
 6136SOL    HW125266   5.571   5.251   9.222 -1.0303  1.7866 -0.2020
 6136SOL    HW225267   5.664   5.246   9.103 -1.1809  0.1276 -0.2821
 6137SOL     OW25268   6.747   2.879   8.890  0.5724  0.1496  0.1426
 6137SOL    HW125269   6.805   2.913   8.822  1.2809 -1.7370 -0.2676
 6137SOL    HW225270   6.802   2.819   8.940 -0.5516 -0.2593  0.9184
 6138SOL     OW25271   3.513  11.241   9.799  0.3322  0.0888 -0.0705
 6138SOL    HW125272   3.465  11.168   9.759  1.5833 -0.4210 -0.7202
 6138SOL    HW225273   3.576  11.198   9.858 -0.2224  0.7515  1.0293
 6139SOL     OW25274   3.783   2.714   4.042 -0.3676 -0.3178 -0.4435
 6139SOL    HW125275   3.814   2.668   4.120  2.0454 -0.0854 -1.1937
 6139SOL    HW225276   3.744   2.645   3.988  1.1998 -1.1529 -0.5758
 6140SOL     OW25277   5.320   4.827   8.886  0.4237  0.4107  0.0189
 6140SOL    HW125278   5.233   4.825   8.925  0.4849  0.5476  0.1646
 6140SOL    HW225279   5.309   4.871   8.802 -0.1396 -1.8680 -1.1937
 6141SOL     OW25280   1.875   9.684   0.673  0.0904  0.0860  0.4092
 6141SOL    HW125281   1.861   9.591   0.656  1.7077 -0.0254 -0.4672
 6141SOL    HW225282   1.787   9.719   0.689 -0.6238 -1.4272 -0.0552
 6142SOL     OW25283   5.589  10.212   4.795 -0.3015  0.6953 -0.2314
 6142SOL    HW125284   5.620  10.248   4.878 -1.0628  0.2231  0.2745
 6142SOL    HW225285   5.518  10.153   4.820  1.8238 -2.3832 -0.8147
 6143SOL     OW25286   3.192   9.218   5.972  0.2719 -0.1795  0.1030
 6143SOL    HW125287   3.255   9.198   5.903  1.9383 -0.5063  1.6529
 6143SOL    HW225288   3.227   9.296   6.015 -2.4143  1.9975 -1.3365
 6144SOL     OW25289   1.794   4.335  12.523  0.0221 -0.5366 -0.7613
 6144SOL    HW125290   1.883   4.323  12.490  0.3105 -0.1232 -0.1523
 6144SOL    HW225291   1.760   4.411  12.475 -0.6967 -1.8149 -2.3645
 6145SOL     OW25292   9.175   1.333   7.074  0.3010  0.1546 -0.0453
 6145SOL    HW125293   9.135   1.302   6.993 -0.1411  0.3949  0.0798
 6145SOL    HW225294   9.174   1.258   7.133 -0.7493  0.3846  0.2521
 6146SOL     OW25295  12.063   1.846   0.072 -0.1050 -0.1142  0.0913
 6146SOL    HW125296  12.099   1.824   0.158  0.5099  1.4874  0.2682
 6146SOL    HW225297  12.105   1.784   0.012  1.9432  0.8130  0.4944
 6147SOL     OW25298   7.625   5.729   0.082 -0.6126  0.0804  0.0102
 6147SOL    HW125299   7.550   5.777   0.049 -1.9044 -2.2929 -0.7044
 6147SOL    HW225300   7.635   5.655   0.022  0.6797 -1.0742  1.5580
 6148SOL     OW25301   7.280  10.695   1.768 -0.2930  0.3001 -0.2154
 6148SOL    HW125302   7.348  10.737   1.820  0.2905 -0.4521 -0.3532
 6148SOL    HW225303   7.328  10.655   1.695 -0.8153 -0.6962 -0.0245
 6149SOL     OW25304   7.504   8.321  10.798 -0.0237  0.3023  0.5854
 6149SOL    HW125305   7.464   8.408  10.798  0.9389  0.7637 -0.4571
 6149SOL    HW225306   7.533   8.309  10.888  0.7032  1.4813  0.5234
 6150SOL     OW25307   0.706   1.236  11.914  0.0745 -0.3457 -0.1599
 6150SOL    HW125308   0.630   1.181  11.936  1.1906 -1.4206  1.2260
 6150SOL    HW225309   0.700   1.311  11.972 -0.5003  0.1336 -0.8231
 6151SOL     OW25310   1.634   3.515   4.902 -0.2617 -0.6376 -0.2222
 6151SOL    HW125311   1.630   3.419   4.897  0.6981 -0.6332 -3.8546
 6151SOL    HW225312   1.724   3.533   4.929 -0.0076 -0.8132 -0.9145
 6152SOL     OW25313   6.376   9.989   7.458 -0.0461  0.2151  0.1346
 6152SOL    HW125314   6.385   9.903   7.416  0.9315 -0.2923  1.3220
 6152SOL    HW225315   6.289   9.988   7.497 -0.6498  0.3848 -1.1511
 6153SOL     OW25316  11.423   3.929   1.554 -0.0392 -0.0398 -0.0095
 6153SOL    HW125317  11.407   4.017   1.588 -0.5650  0.1655 -0.7762
 6153SOL    HW225318  11.417   3.872   1.632 -0.5234  0.5040  0.3580
 6154SOL     OW25319   5.403   2.359   2.390 -0.0905  0.4658 -0.5379
 6154SOL    HW125320   5.309   2.349   2.381  0.1894 -1.1754 -2.3902
 6154SOL    HW225321   5.422   2.444   2.351 -0.8569  1.1755  0.5837
 6155SOL     OW25322  10.236   2.660   8.197 -0.0730 -0.1385  0.0732
 6155SOL    HW125323  10.180   2.686   8.270 -0.3990  0.6199 -0.4292
 6155SOL    HW225324  10.180   2.668   8.120  1.0635  1.9771 -0.6084
 6156SOL     OW25325   4.001   2.041   5.472 -0.2386  0.3053 -0.6273
 6156SOL    HW125326   4.055   2.052   5.393 -0.4123  2.2382 -0.5117
 6156SOL    HW225327   3.946   2.119   5.474 -0.9551 -0.2209  0.8686
 6157SOL     OW25328  10.115   4.103   0.479 -0.2651  0.4656 -0.0132
 6157SOL    HW125329  10.192   4.052   0.455 -0.6806 -1.1631  1.8485
 6157SOL    HW225330  10.040   4.048   0.455 -0.7750  0.7828  0.8041
 6158SOL     OW25331   8.833  12.268  11.783  0.1275  0.0743  0.0921
 6158SOL    HW125332   8.923  12.254  11.754 -0.4056 -0.8694 -1.2037
 6158SOL    HW225333   8.826  12.220  11.865  0.4326 -0.9989 -0.5038
 6159SOL     OW25334   9.330   2.744   2.685  0.3084 -0.1723  0.4286
 6159SOL    HW125335   9.374   2.684   2.744 -1.2579  0.0986  1.9523
 6159SOL    HW225336   9.260   2.783   2.738 -0.5022  0.8653 -1.3156
 6160SOL     OW25337  12.076   0.155   0.999 -0.0225  0.0965  0.5982
 6160SOL    HW125338  12.132   0.176   0.925 -1.2169 -2.6990 -1.2686
 6160SOL    HW225339  12.111   0.072   1.032 -0.7476  0.2765  1.8938
 6161SOL     OW25340   0.046   7.086  11.823  0.6427 -1.4029 -0.3939
 6161SOL    HW125341   0.038   7.103  11.917 -0.7369 -0.1087 -0.7113
 6161SOL    HW225342   0.004   7.161  11.781  0.3902 -2.4023 -2.0279
 6162SOL     OW25343   6.244   3.329   6.199 -0.3773  0.2201  0.1025
 6162SOL    HW125344   6.276   3.377   6.123  0.6800 -0.0667  0.3474
 6162SOL    HW225345   6.280   3.241   6.189  0.0714  0.2722  1.0967
 6163SOL     OW25346   3.532   2.459   2.424 -0.5683 -0.1718 -0.7286
 6163SOL    HW125347   3.501   2.392   2.485 -0.6524 -0.8532 -1.4949
 6163SOL    HW225348   3.453   2.492   2.382 -0.6458  1.2809  0.4831
 6164SOL     OW25349   7.495   2.097   0.542 -0.4464 -0.2694  0.2122
 6164SOL    HW125350   7.525   2.120   0.630 -1.9112  0.2861  0.5855
 6164SOL    HW225351   7.431   2.165   0.520  1.2681  0.7569 -2.0938
 6165SOL     OW25352   2.068   3.798   9.118 -0.0606  0.1614 -0.1417
 6165SOL    HW125353   2.061   3.842   9.033  0.6676  0.1348 -0.2205
 6165SOL    HW225354   2.095   3.867   9.178  1.4512 -0.2331 -0.3382
 6166SOL     OW25355   9.751   6.057   1.273  0.1757  0.1394  0.2854
 6166SOL    HW125356   9.838   6.023   1.252  1.4543  2.6506  1.0943
 6166SOL    HW225357   9.727   6.112   1.198  0.0488  0.7639  0.7728
 6167SOL     OW25358   4.743   6.528   2.826 -0.0360  0.0800 -0.6603
 6167SOL    HW125359   4.831   6.537   2.789  0.8044 -0.0562  1.2002
 6167SOL    HW225360   4.755   6.477   2.906 -2.1484 -1.9255 -1.4818
 6168SOL     OW25361   8.774   7.504   1.038  0.7956  0.4322 -0.0216
 6168SOL    HW125362   8.763   7.414   1.068  0.1466  0.1228 -1.1074
 6168SOL    HW225363   8.687   7.531   1.011  1.1683  1.0203 -0.6803
 6169SOL     OW25364  10.770   5.159   8.933 -0.2102 -0.4006  0.7611
 6169SOL    HW125365  10.764   5.112   9.016 -0.9976  0.3869  1.1685
 6169SOL    HW225366  10.700   5.122   8.879 -0.9674  0.4224  1.1571
 6170SOL     OW25367   8.189   8.044   4.088  0.2483  0.3051 -0.3249
 6170SOL    HW125368   8.120   8.063   4.151 -0.9044 -0.3149 -1.3662
 6170SOL    HW225369   8.241   7.975   4.128 -0.1131  0.3314  0.1886
 6171SOL     OW25370   3.856  11.735  10.446 -0.5041 -0.7050 -0.2440
 6171SOL    HW125371   3.940  11.732  10.490 -0.6320  1.0996  0.1985
 6171SOL    HW225372   3.841  11.645  10.415  1.3360 -1.1477  0.0779
 6172SOL     OW25373   7.830   3.616   5.520  0.1853  0.0151 -0.0461
 6172SOL    HW125374   7.740   3.602   5.549  0.2345 -1.1992 -0.4245
 6172SOL    HW225375   7.825   3.693   5.464 -0.6410 -0.0811 -0.1230
 6173SOL     OW25376  11.464   3.836   3.658  0.8876  0.8987  0.0466
 6173SOL    HW125377  11.389   3.780   3.637  1.1779  0.5221  0.0024
 6173SOL    HW225378  11.426   3.922   3.675  0.3700  0.5633  0.6560
 6174SOL     OW25379   7.525   5.796   3.851  0.7316 -0.5575  0.2208
 6174SOL    HW125380   7.603   5.804   3.795 -0.5350  0.3386 -1.4785
 6174SOL    HW225381   7.462   5.857   3.814 -0.6282 -0.8887  1.8796
 6175SOL     OW25382   4.358   3.888  11.861 -0.0377 -0.2324  0.3597
 6175SOL    HW125383   4.425   3.820  11.867 -2.6030 -2.9947 -0.2985
 6175SOL    HW225384   4.343   3.898  11.767 -0.6617  0.2237  0.5056
 6176SOL     OW25385   6.245  10.052  10.051  0.3603  0.1280 -0.0510
 6176SOL    HW125386   6.324  10.051  10.106 -0.3259  0.5395  0.9773
 6176SOL    HW225387   6.245  10.139  10.011 -0.0885  0.4933  0.7331
 6177SOL     OW25388   5.227   0.177   0.542  0.5271 -0.4380  0.1292
 6177SOL    HW125389   5.251   0.084   0.534  1.8477  0.0443 -2.6138
 6177SOL    HW225390   5.200   0.203   0.454 -0.2216  1.7093  0.9289
 6178SOL     OW25391  10.524   9.284  11.577  0.1071  0.5722  0.3965
 6178SOL    HW125392  10.526   9.210  11.638  0.5869  0.3736  0.1507
 6178SOL    HW225393  10.521   9.243  11.490 -0.9483  0.8535  0.2892
 6179SOL     OW25394  11.343   4.180   5.895 -0.0573 -0.9026 -0.2660
 6179SOL    HW125395  11.363   4.118   5.826  0.5169  0.0506 -0.9892
 6179SOL    HW225396  11.378   4.140   5.975 -1.3163 -2.3174 -0.3820
 6180SOL     OW25397   3.607   4.050   6.984  0.0301  0.1761 -0.1424
 6180SOL    HW125398   3.583   4.142   6.980 -0.9098 -0.0568 -0.0673
 6180SOL    HW225399   3.546   4.012   7.048 -0.2256 -0.6765 -0.8635
 6181SOL     OW25400   0.987   2.990   8.848  0.2729 -0.0135 -0.3558
 6181SOL    HW125401   0.954   3.071   8.809  1.2900  1.6222  2.0005
 6181SOL    HW225402   0.962   2.995   8.940  3.2560 -0.7364  0.6038
 6182SOL     OW25403   6.708   5.447   7.274  0.2850 -0.1786 -0.1274
 6182SOL    HW125404   6.711   5.459   7.179  2.3371 -0.5925 -0.1720
 6182SOL    HW225405   6.797   5.467   7.303 -0.0668 -0.9200  1.5965
 6183SOL     OW25406   8.861   0.415   9.005 -0.2393  0.1724 -0.1831
 6183SOL    HW125407   8.804   0.339   8.995 -0.1563  0.2196 -1.0909
 6183SOL    HW225408   8.947   0.385   8.975 -0.2635  0.6810 -0.7889
 6184SOL     OW25409   2.164   3.796   0.116 -0.5019 -0.0275 -0.5303
 6184SOL    HW125410   2.096   3.860   0.093 -0.1150  0.2762 -0.8428
 6184SOL    HW225411   2.243   3.827   0.071 -0.1419 -0.3500 -0.1311
 6185SOL     OW25412   8.010  10.160   4.685  0.3098 -0.1743  0.0696
 6185SOL    HW125413   8.005  10.080   4.633 -1.9615  1.1335 -1.9304
 6185SOL    HW225414   7.949  10.145   4.757 -0.6246 -0.0617 -0.6705
 6186SOL     OW25415   1.471   9.123   0.112 -0.2645  0.1283  0.7263
 6186SOL    HW125416   1.391   9.074   0.094 -1.7422  2.1361  1.4336
 6186SOL    HW225417   1.505   9.145   0.025 -0.4690 -0.7198  0.4174
 6187SOL     OW25418   4.777   1.330  10.742 -0.3916  0.5208  0.2468
 6187SOL    HW125419   4.763   1.418  10.709  1.1421  0.6013 -0.2606
 6187SOL    HW225420   4.869   1.329  10.770  0.0432 -1.3166 -1.0730
 6188SOL     OW25421   8.415   8.112   7.435  0.0795 -0.0691  0.6962
 6188SOL    HW125422   8.505   8.081   7.426  0.5019  1.3216 -0.2817
 6188SOL    HW225423   8.411   8.151   7.522  0.5571  0.2295  0.5884
 6189SOL     OW25424   9.215  10.649   8.159 -0.6923  0.3886  0.0354
 6189SOL    HW125425   9.154  10.583   8.125 -0.2766 -0.0162  0.0752
 6189SOL    HW225426   9.175  10.678   8.241  0.0480 -1.1963  1.0004
 6190SOL     OW25427   8.934  12.513  11.230  1.2081  0.6864  0.3527
 6190SOL    HW125428   8.855  12.510  11.175  2.3597 -0.4442 -1.3319
 6190SOL    HW225429   8.946  12.606  11.249  0.3366  1.0309 -0.6651
 6191SOL     OW25430  10.464   8.407   5.587 -0.0783  0.0621  0.0639
 6191SOL    HW125431  10.522   8.428   5.659 -0.5308 -0.7905  0.6969
 6191SOL    HW225432  10.491   8.465   5.516 -0.3035  1.6517  1.2238
 6192SOL     OW25433  11.063   0.073   0.247 -0.4298 -0.1791  0.4494
 6192SOL    HW125434  11.136   0.089   0.188  0.5418 -1.2093  1.3229
 6192SOL    HW225435  11.007   0.010   0.200  0.5138 -1.2662  0.7243
 6193SOL     OW25436   7.267   4.986   6.809  0.1261 -0.6742 -0.2938
 6193SOL    HW125437   7.180   5.026   6.800 -0.3391 -1.4749  0.3873
 6193SOL    HW225438   7.302   4.983   6.720 -0.4222 -0.0707 -0.5384
 6194SOL     OW25439   0.990   2.519   0.280 -0.3136 -0.0296  1.1060
 6194SOL    HW125440   1.084   2.529   0.270 -0.4049 -0.4224 -0.3867
 6194SOL    HW225441   0.957   2.609   0.286  0.2070  0.0936  2.4020
 6195SOL     OW25442   4.274   1.368   6.655 -0.4556 -0.2360 -0.1870
 6195SOL    HW125443   4.313   1.383   6.741 -2.5856 -0.3825  0.8976
 6195SOL    HW225444   4.248   1.455   6.625 -0.8281 -0.3022 -0.0732
 6196SOL     OW25445   0.841  11.029   4.042 -0.1035  0.7697  0.4209
 6196SOL    HW125446   0.847  10.947   4.090 -1.3236  1.0763  1.1485
 6196SOL    HW225447   0.748  11.053   4.048  0.5625  3.3347  2.2219
 6197SOL     OW25448  10.263   9.053  12.499 -0.2071 -0.4590  0.8758
 6197SOL    HW125449  10.350   9.082  12.474 -0.5032 -0.1970  0.1286
 6197SOL    HW225450  10.267   8.957  12.491 -0.5491 -0.3474 -1.0994
 6198SOL     OW25451   2.085  12.325   0.494 -0.2833 -0.2691  0.3689
 6198SOL    HW125452   2.080  12.360   0.405  0.7939 -1.3906 -0.1648
 6198SOL    HW225453   2.172  12.350   0.524 -1.2877  1.6978  1.8413
 6199SOL     OW25454  10.141   7.158   5.877  0.3697  0.0283  0.1352
 6199SOL    HW125455  10.229   7.162   5.841  0.2108  0.4766 -0.2080
 6199SOL    HW225456  10.083   7.163   5.801  0.0495 -0.2762  0.3569
 6200SOL     OW25457   3.334  11.220   8.627  0.1215  0.3286  0.4882
 6200SOL    HW125458   3.380  11.303   8.618 -2.3824  1.9186  1.3446
 6200SOL    HW225459   3.359  11.187   8.713  0.7147  0.4447  0.3629
 6201SOL     OW25460   5.078   0.742   0.469 -0.1639  0.3533 -0.0514
 6201SOL    HW125461   5.053   0.757   0.560  2.0271 -0.3983  0.7503
 6201SOL    HW225462   5.030   0.664   0.443 -0.5201  0.3437  0.6117
 6202SOL     OW25463   5.664   2.770   7.555 -0.0359  0.1412  0.0837
 6202SOL    HW125464   5.663   2.841   7.491  0.4779  0.2359  0.1790
 6202SOL    HW225465   5.757   2.752   7.570 -0.1497 -1.1662 -0.6227
 6203SOL     OW25466  11.755   8.793   1.720 -0.1095 -0.5827 -0.2990
 6203SOL    HW125467  11.782   8.861   1.657 -0.7686  0.7331  0.7970
 6203SOL    HW225468  11.662   8.808   1.733  0.1783 -0.2302  1.6519
 6204SOL     OW25469   1.182   4.397   9.972  1.0795 -0.3527 -0.4832
 6204SOL    HW125470   1.172   4.384   9.878  1.5810 -2.6033 -0.2855
 6204SOL    HW225471   1.259   4.453   9.981 -0.2180  1.6800 -1.4244
 6205SOL     OW25472   7.912   3.714   0.790  0.2503  0.4054 -0.8018
 6205SOL    HW125473   7.908   3.775   0.864 -0.1788  2.1339 -2.1731
 6205SOL    HW225474   8.005   3.710   0.767  1.1215 -3.4648  2.3225
 6206SOL     OW25475   4.428   6.927   2.917  0.4669  0.3055 -0.1274
 6206SOL    HW125476   4.424   6.942   3.012  1.9682 -0.4841  0.0876
 6206SOL    HW225477   4.337   6.917   2.891  0.0236  0.5280  1.2429
 6207SOL     OW25478   3.686   0.682   7.581 -0.1518 -0.5933  0.0744
 6207SOL    HW125479   3.666   0.703   7.490 -1.6618 -1.3087  0.2143
 6207SOL    HW225480   3.752   0.746   7.606 -0.4974  0.3010 -1.1959
 6208SOL     OW25481  10.827   4.538   4.045 -0.2407 -0.4362 -0.3624
 6208SOL    HW125482  10.764   4.475   4.010  0.6613 -1.1881 -0.6955
 6208SOL    HW225483  10.834   4.605   3.978 -2.1505  0.7324  0.5360
 6209SOL     OW25484   7.550   2.467   5.882  0.0307  0.0918  0.1967
 6209SOL    HW125485   7.599   2.395   5.844  0.3389  0.5204 -0.2269
 6209SOL    HW225486   7.505   2.508   5.809  0.6983  0.9755  0.2579
 6210SOL     OW25487   2.274   8.628  11.901  0.2595  0.1976 -0.1805
 6210SOL    HW125488   2.332   8.582  11.840  0.5642  0.1515  0.1425
 6210SOL    HW225489   2.261   8.714  11.861  1.2225  0.5086  0.1544
 6211SOL     OW25490   0.733   5.394   0.886  0.3198  0.0444  0.1383
 6211SOL    HW125491   0.718   5.381   0.979 -1.0409  0.4131 -0.0063
 6211SOL    HW225492   0.698   5.316   0.844  1.2880 -0.3017 -0.0484
 6212SOL     OW25493   0.480  10.511  11.267  0.0914 -0.2486 -0.4097
 6212SOL    HW125494   0.490  10.467  11.351 -1.5236  0.1078  0.0075
 6212SOL    HW225495   0.514  10.599  11.281  1.4257 -0.6922 -0.6621
 6213SOL     OW25496   8.751   9.484  12.271  0.1618  0.1365  0.1329
 6213SOL    HW125497   8.818   9.499  12.205  1.1060 -0.6911  0.8624
 6213SOL    HW225498   8.718   9.396  12.251 -0.6420  0.5023 -0.1614
 6214SOL     OW25499  12.298   4.396   2.000  0.4565 -0.5945  0.1911
 6214SOL    HW125500  12.354   4.318   1.997 -1.0428 -1.7960  1.6145
 6214SOL    HW225501  12.225   4.371   2.055  0.1519  2.0346  1.1195
 6215SOL     OW25502   3.189   1.101   2.192  0.2614  0.5336  0.0345
 6215SOL    HW125503   3.167   1.039   2.123 -0.6085  0.8354  0.0263
 6215SOL    HW225504   3.282   1.084   2.211 -0.0910 -1.1640  0.4369
 6216SOL     OW25505   1.702   6.320   7.783 -0.0724  0.4197 -0.2021
 6216SOL    HW125506   1.636   6.363   7.837  0.0868  0.8196 -0.3211
 6216SOL    HW225507   1.764   6.390   7.760 -0.4328  0.3800 -1.3637
 6217SOL     OW25508   6.652   0.242   1.942  0.0101  0.1568  0.4546
 6217SOL    HW125509   6.653   0.211   2.033  0.6309  0.4705  0.5592
 6217SOL    HW225510   6.588   0.186   1.899  0.6992 -0.9183  0.7721
 6218SOL     OW25511   9.609   8.074   3.369  0.9845  0.1781 -0.4195
 6218SOL    HW125512   9.598   8.002   3.308 -0.1602  0.2271 -0.2904
 6218SOL    HW225513   9.701   8.068   3.397  1.1956 -0.5553 -1.2261
 6219SOL     OW25514   9.025  10.689   1.735  0.6768  0.7444  0.5790
 6219SOL    HW125515   9.016  10.777   1.772  0.0095  0.4931  1.0427
 6219SOL    HW225516   8.940  10.671   1.696  1.3376  0.9584 -1.0213
 6220SOL     OW25517  11.295   0.636   3.375 -0.8398 -0.4778  0.7009
 6220SOL    HW125518  11.286   0.731   3.369  0.2943 -0.4209 -1.0059
 6220SOL    HW225519  11.360   0.622   3.444  0.2890  0.1355 -0.1852
 6221SOL     OW25520   4.272   8.581   4.552  0.4351 -0.0454  0.4906
 6221SOL    HW125521   4.180   8.583   4.527  0.8085  0.4800 -0.9468
 6221SOL    HW225522   4.308   8.506   4.505  0.9267  0.2950  0.3092
 6222SOL     OW25523   6.038   3.240  12.482  0.3872 -0.4730 -0.1773
 6222SOL    HW125524   6.076   3.209  12.400 -0.2649  1.2646 -1.2174
 6222SOL    HW225525   6.100   3.305  12.514  0.3875 -0.7753  0.4399
 6223SOL     OW25526   8.361   9.318   3.148  0.4131  0.1211  0.6341
 6223SOL    HW125527   8.334   9.338   3.058  0.9211 -0.7018  0.2902
 6223SOL    HW225528   8.343   9.225   3.159  0.0518  0.2766  1.5049
 6224SOL     OW25529  11.273   2.790   8.593 -0.1601 -0.0153 -0.1452
 6224SOL    HW125530  11.299   2.728   8.661 -0.2494 -1.0835 -1.0775
 6224SOL    HW225531  11.321   2.764   8.515  0.5527  1.6841 -0.3332
 6225SOL     OW25532   9.763   8.189  11.839 -0.1061  0.3044 -0.6437
 6225SOL    HW125533   9.700   8.158  11.773  1.4796  0.2883 -2.2256
 6225SOL    HW225534   9.766   8.118  11.903 -0.9816 -0.1216 -1.0476
 6226SOL     OW25535   1.670   7.769  12.425  0.2438 -0.2003  0.7127
 6226SOL    HW125536   1.579   7.778  12.454 -0.0026 -1.2107  0.3000
 6226SOL    HW225537   1.665   7.771  12.329  0.9346  2.1087  0.6649
 6227SOL     OW25538   0.420   2.867  11.834  0.4985 -0.2380  0.3013
 6227SOL    HW125539   0.418   2.938  11.898  0.0656 -0.8131  0.9508
 6227SOL    HW225540   0.346   2.811  11.859  1.0454 -1.1016  0.0248
 6228SOL     OW25541   0.719  11.314  12.427  0.1709 -0.5083  0.6825
 6228SOL    HW125542   0.763  11.297  12.510 -0.9780 -0.3898  1.3505
 6228SOL    HW225543   0.704  11.228  12.389 -0.5074 -0.6671  1.2748
 6229SOL     OW25544   8.973   9.360   2.551  0.5683 -0.2587 -0.4973
 6229SOL    HW125545   8.877   9.365   2.542  0.3551 -0.8874  1.0403
 6229SOL    HW225546   9.000   9.300   2.482 -0.2060 -0.3733 -0.7144
 6230SOL     OW25547  11.882   0.840   0.806  0.5827  0.3597 -0.8011
 6230SOL    HW125548  11.812   0.883   0.756  0.9484  1.8360 -0.1078
 6230SOL    HW225549  11.886   0.751   0.770 -1.8609  0.1236 -0.6316
 6231SOL     OW25550   5.852   6.706   4.271 -0.7055 -0.4676  0.2975
 6231SOL    HW125551   5.900   6.786   4.292  1.0036 -1.5363  0.7125
 6231SOL    HW225552   5.760   6.729   4.282 -0.1689  0.7386  3.0239
 6232SOL     OW25553  10.929   2.027   1.433 -0.0116 -0.1822  0.4506
 6232SOL    HW125554  10.921   1.933   1.417  1.0225 -0.4331  1.3284
 6232SOL    HW225555  10.953   2.063   1.348 -2.5166 -0.3835 -0.4369
 6233SOL     OW25556   3.333  12.071   5.218  0.5423  0.0188  0.5166
 6233SOL    HW125557   3.284  12.069   5.136 -0.3839  1.0108  1.0227
 6233SOL    HW225558   3.380  11.987   5.221 -0.1128 -0.3969 -0.5913
 6234SOL     OW25559   3.180   4.524   5.415  0.0944  0.3178 -0.5440
 6234SOL    HW125560   3.211   4.435   5.432  0.2623  0.8441  2.3608
 6234SOL    HW225561   3.243   4.580   5.461 -1.2021  1.8100 -0.5347
 6235SOL     OW25562   7.838   8.253  11.527  0.1800 -0.1502  0.4826
 6235SOL    HW125563   7.797   8.304  11.457 -0.1338 -0.4922  0.4199
 6235SOL    HW225564   7.785   8.271  11.605 -0.9579 -1.6841  0.1111
 6236SOL     OW25565   3.255   1.595   2.816 -0.0138 -0.3205 -0.0295
 6236SOL    HW125566   3.234   1.679   2.777  0.2998 -0.4230 -0.4343
 6236SOL    HW225567   3.294   1.544   2.744 -3.1145 -1.9877 -0.7018
 6237SOL     OW25568   7.774   9.752   8.899  0.2349 -0.2850 -0.4724
 6237SOL    HW125569   7.770   9.666   8.941  0.1398  0.4991  1.2015
 6237SOL    HW225570   7.728   9.811   8.960  2.8532  1.5124 -0.0878
 6238SOL     OW25571  11.869   1.720   1.023  0.1508 -0.3071  0.6675
 6238SOL    HW125572  11.898   1.628   1.023 -1.9215 -0.9983  0.5398
 6238SOL    HW225573  11.909   1.757   1.102  1.6240 -1.0802  0.3336
 6239SOL     OW25574   0.161   9.406   8.938 -0.2215 -0.2866  0.1029
 6239SOL    HW125575   0.086   9.444   8.985 -0.2361 -0.7569  0.4730
 6239SOL    HW225576   0.225   9.390   9.007 -1.3249 -3.7183  0.5120
 6240SOL     OW25577  10.472   9.416   3.312  0.1956 -0.0562  0.5013
 6240SOL    HW125578  10.568   9.422   3.308  0.3095 -1.7159 -0.0082
 6240SOL    HW225579  10.455   9.338   3.365 -0.8271 -1.0823 -1.2521
 6241SOL     OW25580   6.099  12.238   4.459 -0.1652 -0.0041 -0.0608
 6241SOL    HW125581   6.044  12.311   4.488 -0.4845  1.0168 -2.8859
 6241SOL    HW225582   6.042  12.161   4.467 -1.6375  0.8398 -1.6512
 6242SOL     OW25583   3.192   1.567   0.872 -0.2994  0.2101 -0.2081
 6242SOL    HW125584   3.127   1.574   0.802  1.1977  1.0693 -1.5943
 6242SOL    HW225585   3.263   1.515   0.833  0.3059  0.1989  0.8809
 6243SOL     OW25586   2.660   1.224   5.003 -0.4393  0.0113 -0.8357
 6243SOL    HW125587   2.668   1.128   4.997  1.1959  0.1569 -1.5075
 6243SOL    HW225588   2.703   1.246   5.086 -1.3177  0.1424 -0.3985
 6244SOL     OW25589   8.414   0.612   2.053  0.2013  0.0707  0.0270
 6244SOL    HW125590   8.501   0.572   2.041  1.2695  2.0663  0.6658
 6244SOL    HW225591   8.394   0.597   2.146 -0.7378 -1.4332 -0.3821
 6245SOL     OW25592   5.509   1.537   0.382 -0.8006 -0.2412  0.0414
 6245SOL    HW125593   5.471   1.619   0.351 -0.8792 -0.7246 -1.2260
 6245SOL    HW225594   5.465   1.469   0.329 -0.3388 -1.0477  0.6652
 6246SOL     OW25595   8.944   2.231  12.334 -0.2116 -0.2328  0.6195
 6246SOL    HW125596   8.862   2.254  12.380  0.1093  0.7882  0.7131
 6246SOL    HW225597   9.007   2.216  12.405  0.2454  1.1900  0.5353
 6247SOL     OW25598   3.608   1.363  11.488 -0.3719  0.1695  0.0178
 6247SOL    HW125599   3.520   1.364  11.450 -0.4845  0.0738  0.2724
 6247SOL    HW225600   3.666   1.353  11.413 -0.6864 -2.0952  0.0087
 6248SOL     OW25601   8.622   5.540   4.234 -0.3715 -0.1283 -0.1536
 6248SOL    HW125602   8.620   5.465   4.293 -0.5058  0.0431  0.0589
 6248SOL    HW225603   8.659   5.611   4.285  0.4057 -0.2279 -0.5699
 6249SOL     OW25604   5.984   3.317   4.773 -0.2656  0.3562 -0.2233
 6249SOL    HW125605   5.953   3.235   4.735 -0.6658  0.9322 -1.1859
 6249SOL    HW225606   5.935   3.326   4.855  1.1232 -1.2583  0.8700
 6250SOL     OW25607   7.380   7.844   5.895 -0.2337 -0.2840  0.1930
 6250SOL    HW125608   7.325   7.906   5.848  3.2058  1.6877 -1.6156
 6250SOL    HW225609   7.366   7.865   5.988 -1.5923  0.8947 -0.2338
 6251SOL     OW25610   2.846   7.676   7.286 -0.1365  0.5506  0.0035
 6251SOL    HW125611   2.924   7.621   7.287 -0.9580 -0.6804 -0.7484
 6251SOL    HW225612   2.808   7.664   7.373  0.6191  1.3672  0.4687
 6252SOL     OW25613   7.230   7.714   0.950  0.4760 -0.0551 -0.0864
 6252SOL    HW125614   7.249   7.735   1.042  1.0549  0.2373 -0.2660
 6252SOL    HW225615   7.162   7.777   0.925  1.4402  0.9293 -0.3095
 6253SOL     OW25616   7.846   1.397  11.364  0.1384 -0.1709  0.7571
 6253SOL    HW125617   7.828   1.437  11.448 -0.4363  0.7041  0.2356
 6253SOL    HW225618   7.859   1.304  11.383 -2.0366 -0.3662  1.5657
 6254SOL     OW25619  11.180   4.323   1.888 -0.0790  0.3608  0.0257
 6254SOL    HW125620  11.114   4.382   1.924 -0.0878  0.5536 -0.3011
 6254SOL    HW225621  11.237   4.380   1.837 -0.4561  0.0060 -0.8179
 6255SOL     OW25622   2.334   6.144   1.039 -0.3355  0.7607 -0.2782
 6255SOL    HW125623   2.315   6.055   1.010 -0.5561  1.1304 -1.3047
 6255SOL    HW225624   2.345   6.194   0.958  2.3539  1.1623  0.2498
 6256SOL     OW25625   5.620   0.068   3.031  0.3891  0.5961 -0.0132
 6256SOL    HW125626   5.713   0.065   3.056  0.4328 -0.0578 -0.2264
 6256SOL    HW225627   5.619   0.116   2.948  0.5241  0.6991  0.0442
 6257SOL     OW25628  10.593   5.993   0.866 -0.2830  0.6700 -0.0350
 6257SOL    HW125629  10.659   6.061   0.879  1.2884 -0.5007 -1.3644
 6257SOL    HW225630  10.578   5.992   0.771 -0.9159 -0.2611  0.0592
 6258SOL     OW25631   5.004   3.463   5.220  0.0115  0.3452 -0.4644
 6258SOL    HW125632   5.016   3.487   5.312 -0.9470  0.6227 -0.3972
 6258SOL    HW225633   5.089   3.431   5.192  0.4731  0.8244  0.3557
 6259SOL     OW25634   0.649   1.755   0.138 -0.1927 -0.0935  0.4942
 6259SOL    HW125635   0.683   1.709   0.061  3.3677  0.8927  1.2944
 6259SOL    HW225636   0.557   1.730   0.142 -0.2580 -1.0768 -3.3934
 6260SOL     OW25637   2.796   1.384   6.875 -0.3829 -0.6169  0.7188
 6260SOL    HW125638   2.844   1.349   6.800  0.5665 -0.2598  1.1439
 6260SOL    HW225639   2.847   1.357   6.952 -1.0077 -0.4565  1.2068
 6261SOL     OW25640   1.284   6.254   9.802  0.3925 -0.3752  0.3784
 6261SOL    HW125641   1.297   6.349   9.800  0.0594 -0.3435 -0.7651
 6261SOL    HW225642   1.372   6.218   9.815  0.8500  0.0287 -1.3765
 6262SOL     OW25643   1.791   5.560  10.127  0.3518  0.5333 -0.5942
 6262SOL    HW125644   1.721   5.624  10.132  0.7475  0.9393 -0.1504
 6262SOL    HW225645   1.776   5.502  10.202  0.3086  0.4345 -0.6798
 6263SOL     OW25646  11.575  12.578   0.718  0.2738  0.6035 -0.2251
 6263SOL    HW125647  11.602  12.495   0.678 -3.6560 -1.9284  1.8205
 6263SOL    HW225648  11.520  12.620   0.652 -0.1659  0.0914 -0.1873
 6264SOL     OW25649   1.373   5.867   4.096  0.4881 -0.0265  0.1900
 6264SOL    HW125650   1.358   5.937   4.159  0.9171  0.0916  0.1616
 6264SOL    HW225651   1.392   5.790   4.150 -0.2311 -0.1807  0.2264
 6265SOL     OW25652   5.437   3.563   4.593  0.6421 -0.4974  0.0046
 6265SOL    HW125653   5.376   3.565   4.519 -0.4051 -1.3630  0.8146
 6265SOL    HW225654   5.513   3.613   4.563 -0.3739  0.4307 -1.1082
 6266SOL     OW25655   1.317   5.938   1.361 -0.1690 -0.1260 -0.6400
 6266SOL    HW125656   1.336   6.007   1.425 -0.2479  0.8199 -1.6074
 6266SOL    HW225657   1.322   5.982   1.276  1.4391 -1.6855 -1.4104
 6267SOL     OW25658   3.464   7.682   3.324  0.0593 -0.4798  0.0406
 6267SOL    HW125659   3.534   7.633   3.367  0.0318 -0.3420  0.2421
 6267SOL    HW225660   3.384   7.644   3.360 -0.0551 -2.1365 -1.7687
 6268SOL     OW25661   8.749   5.369   9.220  0.6548  0.0437 -0.7426
 6268SOL    HW125662   8.710   5.439   9.169  0.5208  0.4133 -0.1423
 6268SOL    HW225663   8.780   5.411   9.300 -0.9040 -0.8430  0.3647
 6269SOL     OW25664   0.705  11.360   4.756  0.0007 -0.3911  0.5038
 6269SOL    HW125665   0.724  11.454   4.762  1.2613 -0.6813  1.2854
 6269SOL    HW225666   0.642  11.354   4.684  0.2819  0.9911  0.0991
 6270SOL     OW25667  11.792   4.650   6.868  0.4125  0.7348  0.0436
 6270SOL    HW125668  11.764   4.730   6.823 -1.0199  0.6313  0.6961
 6270SOL    HW225669  11.844   4.602   6.803  0.4619  1.7352 -0.6664
 6271SOL     OW25670   6.682   7.530   5.635 -0.2089 -0.0399 -0.3544
 6271SOL    HW125671   6.691   7.440   5.666 -3.2287  0.2497  1.8366
 6271SOL    HW225672   6.630   7.523   5.555 -0.8031 -0.2307  0.0463
 6272SOL     OW25673   1.703   6.186   6.804 -0.6425 -0.1856 -0.5461
 6272SOL    HW125674   1.744   6.212   6.722  0.2053  0.8523  0.1765
 6272SOL    HW225675   1.632   6.250   6.816 -2.0147 -1.4670 -1.3713
 6273SOL     OW25676   9.456  12.088   9.796  0.0388 -0.2883  0.1703
 6273SOL    HW125677   9.494  12.065   9.711 -2.4229  0.6622 -1.2777
 6273SOL    HW225678   9.363  12.102   9.779 -0.6936 -0.6734  3.1770
 6274SOL     OW25679   7.610   2.759   5.494  0.4985 -0.4608 -0.0758
 6274SOL    HW125680   7.516   2.774   5.489  0.3628 -1.5711 -2.0050
 6274SOL    HW225681   7.646   2.838   5.534 -1.0030  1.1107 -1.6618
 6275SOL     OW25682  11.165   8.412   0.828 -0.2032  0.2940  0.3674
 6275SOL    HW125683  11.161   8.396   0.922 -0.2293  2.5076  0.7840
 6275SOL    HW225684  11.094   8.359   0.791  0.8176 -1.8781  1.3495
 6276SOL     OW25685   5.646   3.860   9.849 -0.2798  0.3979 -0.1423
 6276SOL    HW125686   5.604   3.774   9.841 -2.5066  1.3463  0.5484
 6276SOL    HW225687   5.665   3.868   9.943  0.1471  0.5749 -0.2428
 6277SOL     OW25688   9.213   8.712   0.439 -0.1116  0.1022  0.1256
 6277SOL    HW125689   9.262   8.763   0.503 -0.6358  0.3126  0.3641
 6277SOL    HW225690   9.176   8.640   0.490 -0.5613  0.2916  0.0646
 6278SOL     OW25691   2.384   7.162  11.114  0.0616  0.4726  0.3903
 6278SOL    HW125692   2.451   7.108  11.156 -1.1242 -0.0578  1.7021
 6278SOL    HW225693   2.311   7.102  11.100 -0.1231  1.0127 -1.1028
 6279SOL     OW25694   7.902   2.347   4.935 -0.2317  0.0326 -0.6559
 6279SOL    HW125695   7.937   2.431   4.963  0.9825 -0.5101 -0.4938
 6279SOL    HW225696   7.815   2.343   4.976 -0.1997  1.0794 -0.4460
 6280SOL     OW25697   2.232   1.171   0.130  0.3820 -0.1577  0.2863
 6280SOL    HW125698   2.189   1.100   0.177 -0.9585  0.6073  0.2544
 6280SOL    HW225699   2.246   1.137   0.042  0.0900 -0.5102  0.3775
 6281SOL     OW25700   9.170   3.942   3.445 -0.1021  0.6591 -0.7058
 6281SOL    HW125701   9.141   4.019   3.493 -1.7577 -1.0843  1.3588
 6281SOL    HW225702   9.158   3.963   3.353 -1.9066  2.3384 -0.1302
 6282SOL     OW25703   9.683   8.190   6.052 -0.2581  0.0779  0.3600
 6282SOL    HW125704   9.682   8.271   6.000 -0.2801  0.0379  0.2995
 6282SOL    HW225705   9.599   8.189   6.097 -0.4034 -0.0910  0.0875
 6283SOL     OW25706   2.249   9.548   2.541  0.5582 -0.4128  0.0721
 6283SOL    HW125707   2.159   9.520   2.527 -0.0086  1.4246 -0.2548
 6283SOL    HW225708   2.277   9.583   2.456  1.7935 -1.4683  0.0130
 6284SOL     OW25709   3.178   6.203   3.704  0.3841 -0.0605  0.5031
 6284SOL    HW125710   3.181   6.117   3.746  0.3418 -0.0072  0.6142
 6284SOL    HW225711   3.173   6.265   3.776  1.3314  0.0892  0.4533
 6285SOL     OW25712  11.552   3.776   6.080 -0.2608  0.1063  0.1767
 6285SOL    HW125713  11.632   3.829   6.075  0.6039 -1.1130  0.5256
 6285SOL    HW225714  11.529   3.775   6.173 -0.9864  0.8610  0.0168
 6286SOL     OW25715  11.182   8.556  10.765  0.0434 -0.0932 -0.0267
 6286SOL    HW125716  11.110   8.602  10.721  0.5066 -1.4643 -2.3488
 6286SOL    HW225717  11.257   8.615  10.755  0.1424 -0.3877 -1.1134
 6287SOL     OW25718  11.774   4.930   2.392  0.2716 -0.1496 -0.2562
 6287SOL    HW125719  11.694   4.939   2.442  1.0954  0.7594  0.9565
 6287SOL    HW225720  11.759   4.981   2.312 -0.3234  0.0654 -0.0058
 6288SOL     OW25721   4.113   7.587  12.079  0.2513  0.7055 -0.4035
 6288SOL    HW125722   4.189   7.633  12.043  0.6267  1.2193  0.9713
 6288SOL    HW225723   4.106   7.507  12.026  0.3430  1.7242 -2.0277
 6289SOL     OW25724   4.466   3.813  10.517 -0.0755 -0.4034  0.6465
 6289SOL    HW125725   4.477   3.720  10.535 -1.2368 -0.5096  0.9221
 6289SOL    HW225726   4.540   3.836  10.461 -0.3356 -1.7374 -0.3042
 6290SOL     OW25727   8.160   4.511   8.113  0.1282 -0.4477 -0.3633
 6290SOL    HW125728   8.121   4.536   8.028 -1.1414  1.4146  0.6824
 6290SOL    HW225729   8.225   4.580   8.130 -1.2271  0.5379  1.1618
 6291SOL     OW25730   1.288  11.981   9.130 -0.5280  0.0741  0.2274
 6291SOL    HW125731   1.328  11.897   9.106  0.3252  0.8286 -1.0772
 6291SOL    HW225732   1.360  12.033   9.164 -0.9153  0.5349  0.3560
 6292SOL     OW25733   1.046   4.490   4.580 -0.7812 -0.4765  0.1537
 6292SOL    HW125734   0.958   4.494   4.543 -1.5962 -0.7961  1.9421
 6292SOL    HW225735   1.073   4.399   4.569  0.1353  0.0056 -2.0596
 6293SOL     OW25736   0.823   0.507   9.581 -0.1757 -0.1869 -0.3577
 6293SOL    HW125737   0.904   0.526   9.532  0.9098  1.3175  1.8494
 6293SOL    HW225738   0.753   0.534   9.522  1.0173  0.2661 -1.6294
 6294SOL     OW25739   0.423   3.865   3.019 -0.0768 -0.1367 -0.0738
 6294SOL    HW125740   0.405   3.871   2.925  3.1904 -0.3317 -0.8267
 6294SOL    HW225741   0.435   3.955   3.048 -3.4630  0.1711  0.8564
 6295SOL     OW25742   1.948  10.875   2.627  0.1695 -0.6218 -0.1826
 6295SOL    HW125743   2.025  10.858   2.573  1.3919 -1.0516  1.6092
 6295SOL    HW225744   1.974  10.848   2.715 -1.0896  1.7415  1.0129
 6296SOL     OW25745   4.354   3.183   8.351 -0.0870 -0.1902  0.1491
 6296SOL    HW125746   4.440   3.139   8.349 -0.0441 -0.0929 -1.0650
 6296SOL    HW225747   4.366   3.255   8.412  0.2937 -0.9659  1.0176
 6297SOL     OW25748   0.746   3.683   6.675 -0.2338  0.2861 -0.0666
 6297SOL    HW125749   0.764   3.773   6.649 -0.6518  0.3914 -0.0030
 6297SOL    HW225750   0.748   3.634   6.592  1.0192  0.1730  0.0261
 6298SOL     OW25751   7.818   3.367   4.202  0.1040 -0.1401  0.5810
 6298SOL    HW125752   7.773   3.300   4.151 -0.7857  0.9305 -0.1161
 6298SOL    HW225753   7.849   3.430   4.136  1.5628 -0.2254  1.1478
 6299SOL     OW25754   2.934  10.693   0.873  0.4814  0.8187  0.2163
 6299SOL    HW125755   2.855  10.726   0.831  0.4604 -0.6046 -0.9570
 6299SOL    HW225756   2.936  10.737   0.958 -2.4465 -0.2389  0.9709
 6300SOL     OW25757   6.315   1.389   1.853  0.0834  0.6823 -0.0673
 6300SOL    HW125758   6.393   1.360   1.900  0.7677  3.1550  0.4357
 6300SOL    HW225759   6.314   1.336   1.773  0.6045 -1.4292  1.2288
 6301SOL     OW25760   3.130   4.944   5.829 -0.0863  0.4695 -0.6318
 6301SOL    HW125761   3.056   4.998   5.856  0.0548  0.6141 -0.5306
 6301SOL    HW225762   3.092   4.859   5.808 -0.2864  0.5562 -0.6221
 6302SOL     OW25763   2.520   8.966  10.149 -0.5394 -0.2826  0.1885
 6302SOL    HW125764   2.560   8.997  10.231 -0.1469 -1.7753  0.5949
 6302SOL    HW225765   2.548   9.030  10.084  0.6292 -0.0189  0.8954
 6303SOL     OW25766   9.319   0.343   1.477  0.3449 -0.1527 -0.0351
 6303SOL    HW125767   9.414   0.342   1.486  0.4719  0.6779 -1.0939
 6303SOL    HW225768   9.303   0.325   1.384 -0.5398 -0.3982  0.1494
 6304SOL     OW25769  10.453   1.138  10.057  0.4186 -0.6185  0.5161
 6304SOL    HW125770  10.399   1.214  10.037  1.5144  0.9367  2.9333
 6304SOL    HW225771  10.525   1.142   9.993 -0.9704 -1.3101 -1.1578
 6305SOL     OW25772  11.938   0.788  12.360 -0.1804  0.2537 -0.3782
 6305SOL    HW125773  11.990   0.869  12.359  3.4249 -1.7612  1.3458
 6305SOL    HW225774  11.951   0.749  12.274  0.5193  0.1783 -0.2437
 6306SOL     OW25775   5.627   0.165   5.053  0.4642  0.5280 -0.0745
 6306SOL    HW125776   5.710   0.162   5.100  0.9790  0.5515 -0.9435
 6306SOL    HW225777   5.649   0.207   4.969 -0.3390  0.1461 -0.4892
 6307SOL     OW25778   3.441  10.246   6.653 -0.5738 -0.0220 -0.1393
 6307SOL    HW125779   3.408  10.178   6.594 -0.8005  0.2336 -0.3069
 6307SOL    HW225780   3.369  10.265   6.712 -0.1932 -0.6076  0.5231
 6308SOL     OW25781   8.803  12.496   3.592  0.0785  0.1656  0.6893
 6308SOL    HW125782   8.794  12.525   3.501 -0.4076 -4.5028 -1.0156
 6308SOL    HW225783   8.893  12.519   3.615  0.8733 -0.1843 -1.7172
 6309SOL     OW25784   8.506   8.135   6.836 -0.2700  0.6710  0.0581
 6309SOL    HW125785   8.442   8.102   6.774  0.3405  0.2507 -0.3686
 6309SOL    HW225786   8.590   8.103   6.802  0.1090  0.7640  0.8872
 6310SOL     OW25787   4.255  12.324   8.135 -0.2692  0.4540 -0.0273
 6310SOL    HW125788   4.339  12.363   8.159 -0.5320  0.3139  1.1457
 6310SOL    HW225789   4.271  12.230   8.139 -0.4833  0.4280  0.1654
 6311SOL     OW25790   0.649  10.022   9.172  0.1017 -0.1578 -0.1066
 6311SOL    HW125791   0.692  10.096   9.130 -0.2326 -0.6660 -1.3822
 6311SOL    HW225792   0.713   9.951   9.169 -0.5872 -0.7632 -1.5538
 6312SOL     OW25793  11.872   3.839   6.380 -0.3583  0.6516 -0.2810
 6312SOL    HW125794  11.790   3.790   6.392 -0.6735  1.3539  0.5573
 6312SOL    HW225795  11.902   3.814   6.293 -0.3402 -1.2620  0.2289
 6313SOL     OW25796   7.616   5.597   9.843  0.4997 -0.1851  0.3626
 6313SOL    HW125797   7.696   5.586   9.791 -0.3312  0.6958 -1.1661
 6313SOL    HW225798   7.562   5.656   9.791 -1.0600 -0.5793  1.4874
 6314SOL     OW25799   6.633  12.072   1.295 -0.4192 -0.6934 -0.7416
 6314SOL    HW125800   6.672  11.986   1.313 -0.4217 -0.6055 -0.2877
 6314SOL    HW225801   6.545  12.066   1.332  0.3149  0.2131  1.2833
 6315SOL     OW25802   4.439   3.271   4.030 -0.2788 -0.1054 -0.3270
 6315SOL    HW125803   4.473   3.188   4.064  0.0915  0.4317  0.6829
 6315SOL    HW225804   4.351   3.278   4.067 -0.0078  0.3123  0.2722
 6316SOL     OW25805   6.848   6.023   8.746  0.0017  0.4488  0.4127
 6316SOL    HW125806   6.895   6.050   8.667 -0.1844 -3.1096 -1.1197
 6316SOL    HW225807   6.912   6.035   8.817  2.2253 -1.3059 -1.1504
 6317SOL     OW25808   6.301  11.068   0.604  0.1034  0.1528  0.4877
 6317SOL    HW125809   6.310  11.007   0.677  0.9063  1.4242  1.4853
 6317SOL    HW225810   6.245  11.138   0.637  1.1059  1.1418  0.1762
 6318SOL     OW25811   5.728   9.493  10.146  0.5486 -0.0135 -0.4161
 6318SOL    HW125812   5.773   9.577  10.151  0.7487 -0.1615  0.5901
 6318SOL    HW225813   5.637   9.512  10.169  0.3563  0.0927 -1.2476
 6319SOL     OW25814   0.917   7.114   2.657 -0.2255 -0.5645 -0.1454
 6319SOL    HW125815   0.836   7.064   2.670 -0.6164 -0.0022 -0.4013
 6319SOL    HW225816   0.920   7.176   2.729  0.1156 -0.7512  0.0085
 6320SOL     OW25817   7.547  11.869   8.349 -0.0917  0.4650 -0.0526
 6320SOL    HW125818   7.542  11.866   8.444 -0.6612 -0.0659 -0.0911
 6320SOL    HW225819   7.482  11.935   8.324  1.8843  2.5677  0.0343
 6321SOL     OW25820   4.013   0.693   2.087 -0.6077  0.2243 -0.0006
 6321SOL    HW125821   3.977   0.780   2.072  0.1816  0.8554  1.4950
 6321SOL    HW225822   4.050   0.697   2.175  0.3267 -1.3288 -0.2714
 6322SOL     OW25823   8.391   0.889   8.299 -0.5225 -0.0506 -0.3204
 6322SOL    HW125824   8.415   0.967   8.248 -1.9022  0.5109 -0.1595
 6322SOL    HW225825   8.458   0.884   8.368 -0.5485  1.1639 -0.1807
 6323SOL     OW25826   6.402  10.690   8.910 -0.1329 -0.1662 -0.2526
 6323SOL    HW125827   6.355  10.710   8.830 -0.5983  0.7888  0.2345
 6323SOL    HW225828   6.340  10.710   8.980  0.2321 -1.0759  0.3467
 6324SOL     OW25829   3.160  11.911  11.227  0.0950 -0.8816  0.0409
 6324SOL    HW125830   3.083  11.922  11.172  0.5170  0.8686 -0.2526
 6324SOL    HW225831   3.221  11.860  11.174 -0.2309 -0.8450 -0.3696
 6325SOL     OW25832   3.736  10.197   2.855  0.1028 -0.2860 -0.6081
 6325SOL    HW125833   3.758  10.106   2.875 -0.1265 -0.8714 -2.7791
 6325SOL    HW225834   3.643  10.196   2.833 -0.0093  0.5643 -0.2393
 6326SOL     OW25835   3.392   2.581   9.958  0.4731 -0.5828  0.0773
 6326SOL    HW125836   3.325   2.544   9.900 -1.1585 -0.0765  1.5626
 6326SOL    HW225837   3.349   2.654  10.001  1.3116 -1.4487  2.5636
 6327SOL     OW25838   0.348  11.540   4.668  0.1896  0.0243  0.3193
 6327SOL    HW125839   0.426  11.584   4.634 -0.4877 -0.4501 -2.0164
 6327SOL    HW225840   0.276  11.601   4.652 -0.3441 -0.7686 -0.3936
 6328SOL     OW25841   1.705   1.621   7.969 -0.2567 -0.3997  0.5025
 6328SOL    HW125842   1.758   1.671   7.907  0.5945  1.3691  2.5431
 6328SOL    HW225843   1.764   1.552   8.000 -0.7881 -1.5002 -0.7910
 6329SOL     OW25844  12.569   2.037   3.516 -0.3988  0.1085 -0.1589
 6329SOL    HW125845  12.546   1.974   3.448  1.5912 -2.3175  1.2727
 6329SOL    HW225846  12.564   1.987   3.598 -2.0194  2.7275  1.5132
 6330SOL     OW25847   3.380   3.174   3.105  0.3534  0.2839  0.0146
 6330SOL    HW125848   3.339   3.087   3.105  0.2904  0.3105  0.3012
 6330SOL    HW225849   3.430   3.177   3.187 -1.2245  1.2378  1.0171
 6331SOL     OW25850   0.746   5.191   0.531  0.8567 -0.0411  0.2821
 6331SOL    HW125851   0.832   5.162   0.501  0.8172  0.1402 -0.0151
 6331SOL    HW225852   0.765   5.253   0.601  1.0461  1.3505 -0.9432
 6332SOL     OW25853  12.303   8.567   5.390 -0.3711  0.0042  0.0971
 6332SOL    HW125854  12.364   8.495   5.373 -0.5679  0.1237 -1.1668
 6332SOL    HW225855  12.281   8.557   5.483 -1.1544 -2.1772 -0.2503
 6333SOL     OW25856   3.647  10.438   1.612  0.1538  0.3813 -0.1957
 6333SOL    HW125857   3.553  10.425   1.602  0.3981 -2.0145  0.1923
 6333SOL    HW225858   3.667  10.406   1.700  1.3417  0.8911 -0.2534
 6334SOL     OW25859   4.833   8.793   3.464  0.7399 -0.2801  0.4344
 6334SOL    HW125860   4.753   8.829   3.503  1.3800  1.5514  0.1864
 6334SOL    HW225861   4.802   8.729   3.400 -0.6411  1.2647 -0.5373
 6335SOL     OW25862  11.810   2.873   9.833 -0.5360  0.3844  0.1498
 6335SOL    HW125863  11.875   2.874   9.903  0.4409 -0.0841 -0.7273
 6335SOL    HW225864  11.861   2.877   9.753 -1.5376 -0.7939 -0.5785
 6336SOL     OW25865   3.018   6.649   5.974  0.5614 -0.3933  0.2164
 6336SOL    HW125866   3.006   6.709   6.048 -1.0900  0.9320 -1.0387
 6336SOL    HW225867   2.988   6.564   6.007 -0.8579  0.3248  0.8746
 6337SOL     OW25868   1.422   4.496   0.062 -0.0920  0.3109 -0.3590
 6337SOL    HW125869   1.352   4.449   0.106  0.7904  0.7560  1.6719
 6337SOL    HW225870   1.379   4.543  -0.010 -1.4276 -1.3073 -0.6630
 6338SOL     OW25871   0.956  10.971   2.605  0.1407  0.3306  0.9478
 6338SOL    HW125872   0.903  10.972   2.526  1.3594  0.2752  0.0978
 6338SOL    HW225873   0.955  11.062   2.636  2.7563  1.2920 -1.3504
 6339SOL     OW25874   3.741   2.583  12.138  0.0195 -0.4779 -0.0783
 6339SOL    HW125875   3.729   2.678  12.135  0.2348 -0.4558 -3.2643
 6339SOL    HW225876   3.672   2.548  12.082  0.6261 -2.1128  0.1363
 6340SOL     OW25877   4.146   0.845   6.537  0.2225  0.6624  0.2093
 6340SOL    HW125878   4.105   0.876   6.618 -0.9230  1.4700 -0.6334
 6340SOL    HW225879   4.154   0.751   6.549  1.2064  0.9015  1.7358
 6341SOL     OW25880   0.118   8.594   5.343  0.4129  0.8707 -0.4634
 6341SOL    HW125881   0.054   8.656   5.377  0.6828  0.2349  1.3270
 6341SOL    HW225882   0.203   8.630   5.369  0.6402  0.4385 -0.5914
 6342SOL     OW25883   0.926  10.262   4.338 -0.3967  0.1618  0.1137
 6342SOL    HW125884   0.859  10.320   4.374  0.2551  0.4385  0.8939
 6342SOL    HW225885   0.879  10.180   4.320 -1.0376  0.4995  0.2101
 6343SOL     OW25886  12.398   5.602  12.208  0.2180  0.5887 -0.1545
 6343SOL    HW125887  12.303   5.595  12.200  0.2073 -0.0334  0.4672
 6343SOL    HW225888  12.415   5.590  12.301  0.8136  1.9128 -0.0791
 6344SOL     OW25889  10.621   2.088   1.025  0.3324 -0.1955  0.2712
 6344SOL    HW125890  10.695   2.090   0.964 -0.6015 -0.5532 -0.9153
 6344SOL    HW225891  10.631   2.166   1.079  0.2323  1.0981 -1.5118
 6345SOL     OW25892   1.143  10.054  11.884  0.4134 -0.1827 -0.0279
 6345SOL    HW125893   1.180   9.974  11.920 -0.0471  0.0423  0.9810
 6345SOL    HW225894   1.052  10.054  11.915  0.3293  0.5804 -0.2622
 6346SOL     OW25895  12.217   7.408   7.018 -0.3328  0.2537  0.2508
 6346SOL    HW125896  12.127   7.414   6.986 -1.1060 -3.6028  1.1131
 6346SOL    HW225897  12.208   7.383   7.110  1.5589 -0.8122  0.2052
 6347SOL     OW25898   5.962   7.484   5.778 -0.0207  0.2179 -0.8481
 6347SOL    HW125899   5.983   7.536   5.700  2.6919 -0.2454 -0.5079
 6347SOL    HW225900   5.962   7.393   5.748  1.9640 -0.0397 -0.1970
 6348SOL     OW25901   6.378   1.600   4.207 -0.4438 -0.3769 -0.0830
 6348SOL    HW125902   6.434   1.526   4.186  0.5589  0.8755 -2.1050
 6348SOL    HW225903   6.416   1.637   4.287  0.0809 -1.0169 -0.0333
 6349SOL     OW25904  10.169   8.652   9.390 -0.7302  0.1028  0.2905
 6349SOL    HW125905  10.187   8.574   9.441 -2.0198 -0.2823  0.1936
 6349SOL    HW225906  10.129   8.713   9.452 -0.2026  0.5042  0.2485
 6350SOL     OW25907  11.213   3.871   6.280  0.0033  0.1116  0.0213
 6350SOL    HW125908  11.197   3.785   6.318 -1.9587  1.0675  1.5185
 6350SOL    HW225909  11.174   3.933   6.341  1.9329  2.1681 -0.6713
 6351SOL     OW25910   9.288   5.970   6.561  0.2025  0.1400 -0.5380
 6351SOL    HW125911   9.282   6.064   6.578  0.7767  0.0594  0.1434
 6351SOL    HW225912   9.289   5.930   6.648 -2.4898 -0.6869 -0.7687
 6352SOL     OW25913  10.575   7.276   1.604 -0.2929  0.7746  0.5036
 6352SOL    HW125914  10.551   7.257   1.513  0.2544 -1.3849  0.7623
 6352SOL    HW225915  10.522   7.353   1.627 -2.2351 -0.0516 -0.9087
 6353SOL     OW25916   1.457   4.323  11.251  0.1273 -0.1123 -0.2098
 6353SOL    HW125917   1.415   4.383  11.190  0.6218 -0.1584 -0.6003
 6353SOL    HW225918   1.405   4.331  11.331  0.3368  1.0242 -0.1726
 6354SOL     OW25919  11.039  11.277   3.691  0.0441 -0.3420 -0.1490
 6354SOL    HW125920  11.005  11.354   3.645  0.7665 -1.1541 -2.1998
 6354SOL    HW225921  11.013  11.289   3.782 -0.6327  1.8729 -0.5761
 6355SOL     OW25922   3.565  10.521   4.901  0.0767 -0.1514 -0.2497
 6355SOL    HW125923   3.545  10.527   4.995  2.3049 -0.4116  0.2884
 6355SOL    HW225924   3.527  10.601   4.864 -0.6590  0.0661  0.9017
 6356SOL     OW25925   8.402  11.847   1.145 -0.2128  0.3386  0.2370
 6356SOL    HW125926   8.440  11.921   1.193 -1.7746  0.7488  0.9234
 6356SOL    HW225927   8.439  11.769   1.187 -1.3456  0.6867  2.0265
 6357SOL     OW25928   4.895   0.456   8.381 -0.9218 -0.3878 -0.4962
 6357SOL    HW125929   4.897   0.483   8.473 -2.8811  0.7081 -0.7268
 6357SOL    HW225930   4.955   0.517   8.337 -1.6540  0.5386 -0.2545
 6358SOL     OW25931   9.118   7.762   1.505 -0.3751  0.1372  0.2679
 6358SOL    HW125932   9.070   7.814   1.441  1.1979  1.8294  0.3922
 6358SOL    HW225933   9.079   7.785   1.589 -2.3006 -1.9276  0.0239
 6359SOL     OW25934   8.166  11.439   8.091 -0.3365 -0.4257  0.2728
 6359SOL    HW125935   8.098  11.429   8.157 -0.7506 -1.7761 -0.3404
 6359SOL    HW225936   8.178  11.352   8.054  1.6590 -0.2225  0.2886
 6360SOL     OW25937   7.538   2.202   1.755 -0.2763 -0.4743 -0.2393
 6360SOL    HW125938   7.585   2.216   1.673 -1.2630  1.3922 -0.5330
 6360SOL    HW225939   7.558   2.279   1.808  1.1772 -2.0966  1.7486
 6361SOL     OW25940  11.832   4.044   7.295  0.4949 -0.6242 -0.3232
 6361SOL    HW125941  11.869   4.023   7.209 -1.9936  0.0996 -1.6563
 6361SOL    HW225942  11.907   4.073   7.346  1.9907 -0.5108 -2.4344
 6362SOL     OW25943   2.684   1.711   5.068 -0.3590 -0.4773  0.3669
 6362SOL    HW125944   2.697   1.665   4.985 -0.1370 -0.3606  0.3359
 6362SOL    HW225945   2.665   1.642   5.131  3.4092 -1.0731  1.0952
 6363SOL     OW25946   7.714   6.351   1.248 -0.0092  0.4109  0.1830
 6363SOL    HW125947   7.718   6.257   1.266 -1.8508 -0.1912 -2.0912
 6363SOL    HW225948   7.737   6.358   1.155 -1.6730  1.9732 -0.1600
 6364SOL     OW25949   3.251   1.539   3.614  0.3208  0.2935 -0.2182
 6364SOL    HW125950   3.252   1.585   3.531 -1.4318  0.8464  0.0040
 6364SOL    HW225951   3.213   1.602   3.676 -0.3187 -0.7804  0.5286
 6365SOL     OW25952   3.895   5.039   1.939 -0.1642  0.0116 -0.6487
 6365SOL    HW125953   3.982   5.079   1.934  0.7510 -1.7823  0.0021
 6365SOL    HW225954   3.840   5.107   1.978  1.3737  0.5655  0.6964
 6366SOL     OW25955   5.841   9.174   1.161 -0.4739  0.1188 -0.0886
 6366SOL    HW125956   5.784   9.143   1.091 -1.0032  1.2303 -0.1769
 6366SOL    HW225957   5.848   9.269   1.146  1.2769  0.0462  0.0115
 6367SOL     OW25958   4.654   0.445   5.612  0.0622  0.6193 -0.0775
 6367SOL    HW125959   4.691   0.492   5.686  0.0010 -1.4162  1.3192
 6367SOL    HW225960   4.730   0.424   5.557  0.2399  1.2356 -0.0793
 6368SOL     OW25961   0.998   7.453   9.919  0.2995 -0.1624  0.3648
 6368SOL    HW125962   0.910   7.480   9.893  0.1637  0.1249  1.0828
 6368SOL    HW225963   1.037   7.416   9.840 -0.6356 -0.7194  0.1467
 6369SOL     OW25964   5.573  10.366  10.906  0.1467 -0.0847  0.0239
 6369SOL    HW125965   5.501  10.426  10.927  1.6522  1.0140  2.3982
 6369SOL    HW225966   5.531  10.281  10.893 -1.7206  0.8495 -0.3423
 6370SOL     OW25967  11.565   3.532  11.383  0.1202  0.7331  0.0162
 6370SOL    HW125968  11.623   3.540  11.458  0.3609 -1.2066  0.0911
 6370SOL    HW225969  11.618   3.559  11.308  0.9418 -0.3927  0.1643
 6371SOL     OW25970   9.996   2.412   3.478  0.0758  0.4736 -0.6463
 6371SOL    HW125971  10.022   2.413   3.386 -0.5470  0.2609 -0.8266
 6371SOL    HW225972   9.901   2.419   3.476 -0.0539 -0.8776 -0.0716
 6372SOL     OW25973   3.320   8.534   4.177  0.5062 -0.2834 -0.0735
 6372SOL    HW125974   3.405   8.534   4.220  0.8112  1.9287 -0.5903
 6372SOL    HW225975   3.318   8.615   4.127 -1.5095 -0.7826 -0.9020
 6373SOL     OW25976   2.856   0.257   1.609 -0.3687  0.0266  0.4151
 6373SOL    HW125977   2.798   0.333   1.609 -2.1091 -1.2424  0.3639
 6373SOL    HW225978   2.863   0.231   1.517 -0.3697 -0.2991  0.5051
 6374SOL     OW25979   2.484  11.886   5.273  0.2841 -0.0197  0.2437
 6374SOL    HW125980   2.525  11.800   5.259 -2.1839 -1.2133 -0.1058
 6374SOL    HW225981   2.500  11.933   5.190 -1.0125 -1.3505 -0.8146
 6375SOL     OW25982   9.849  12.115   1.605 -0.0663 -0.0760  0.0452
 6375SOL    HW125983   9.774  12.142   1.552 -0.0312  1.1040  0.5764
 6375SOL    HW225984   9.863  12.187   1.666 -0.6047 -1.7202  2.2357
 6376SOL     OW25985   3.430  11.501   6.348  0.1735 -0.1252 -0.8206
 6376SOL    HW125986   3.468  11.581   6.312 -0.5676  0.9660  0.7318
 6376SOL    HW225987   3.336  11.510   6.331 -0.0965  0.0595  0.6373
 6377SOL     OW25988   7.674   9.524   7.086  0.1239 -0.3699 -0.5047
 6377SOL    HW125989   7.685   9.596   7.149 -0.8769  0.4780 -1.2543
 6377SOL    HW225990   7.588   9.487   7.108 -0.3561  0.1072 -1.5173
 6378SOL     OW25991   1.290   5.995  11.129  0.3108  0.1639 -0.2302
 6378SOL    HW125992   1.288   6.001  11.225 -0.4615  1.1158 -0.2887
 6378SOL    HW225993   1.308   5.902  11.112  0.7993  0.0398  0.8308
 6379SOL     OW25994   9.982  10.257  11.532  0.0690  0.0050 -0.1928
 6379SOL    HW125995   9.959  10.200  11.605 -2.4847 -0.4105 -1.2061
 6379SOL    HW225996  10.043  10.320  11.570  0.5436 -1.4861  1.7260
 6380SOL     OW25997   3.875   0.473   5.188  0.2793 -0.3091 -0.4624
 6380SOL    HW125998   3.866   0.525   5.268 -1.3942  1.8099 -1.9074
 6380SOL    HW225999   3.944   0.518   5.138  0.4112 -0.8393 -0.7619
 6381SOL     OW26000   2.117   4.807   4.984  0.4337  0.2266 -0.4281
 6381SOL    HW126001   2.105   4.831   4.892  0.5406 -0.3668 -0.5976
 6381SOL    HW226002   2.038   4.757   5.006  1.2598 -1.2958 -0.7560
 6382SOL     OW26003   5.195   2.878   0.273  0.3619 -0.3800  0.0881
 6382SOL    HW126004   5.225   2.827   0.348  1.5036  0.2721  0.0956
 6382SOL    HW226005   5.191   2.968   0.306 -0.0915 -0.2265 -0.3688
 6383SOL     OW26006   2.309   6.294   7.700  0.2260  0.1610  0.4535
 6383SOL    HW126007   2.398   6.287   7.666 -0.2311  0.7958 -0.9458
 6383SOL    HW226008   2.280   6.381   7.672 -1.6507 -0.9055 -1.1909
 6384SOL     OW26009  11.944   0.182   0.269 -0.3403 -0.2994  0.0201
 6384SOL    HW126010  11.977   0.270   0.250 -0.1003 -0.3043  0.4133
 6384SOL    HW226011  11.882   0.164   0.198  1.5813 -0.8853 -1.5783
 6385SOL     OW26012   9.239   3.527  11.473 -0.2024  0.3502 -0.2230
 6385SOL    HW126013   9.272   3.617  11.469  2.9709 -0.7163 -0.7035
 6385SOL    HW226014   9.229   3.502  11.381  0.6650 -0.3344 -0.1384
 6386SOL     OW26015   7.124   4.626   1.961 -0.1339  0.2333  0.1657
 6386SOL    HW126016   7.143   4.666   2.046 -0.3500 -0.8285  0.7210
 6386SOL    HW226017   7.172   4.543   1.962  0.2298  0.4154 -0.9326
 6387SOL     OW26018   6.657   8.939   8.527 -0.1027 -0.0651 -0.5068
 6387SOL    HW126019   6.578   8.992   8.540  1.9889  3.0484  0.8358
 6387SOL    HW226020   6.640   8.859   8.577 -3.3908 -0.8335 -2.5340
 6388SOL     OW26021   2.963   9.113  11.824  0.2130  0.4468 -0.0985
 6388SOL    HW126022   2.958   9.135  11.917  0.3175 -1.3133  0.3521
 6388SOL    HW226023   3.029   9.173  11.789 -1.0544  2.3134  0.5670
 6389SOL     OW26024   9.519   7.278  11.787 -0.1869  0.7031 -0.2209
 6389SOL    HW126025   9.575   7.331  11.731 -1.2921  1.2158 -0.8874
 6389SOL    HW226026   9.459   7.234  11.726  0.6089 -1.2536  0.3084
 6390SOL     OW26027   7.564   3.123   3.053  0.1172  0.8141 -0.3653
 6390SOL    HW126028   7.513   3.203   3.071  0.5676  0.8870  0.6407
 6390SOL    HW226029   7.655   3.150   3.062  0.3149  0.4916 -1.3610
 6391SOL     OW26030   9.614   9.279   4.684  0.3722 -0.0725  0.2612
 6391SOL    HW126031   9.648   9.318   4.604 -0.2987  0.2932  0.1431
 6391SOL    HW226032   9.671   9.204   4.701  1.8576  1.0979  0.6527
 6392SOL     OW26033   5.182   8.156   0.071 -0.0394  0.8676 -0.0646
 6392SOL    HW126034   5.115   8.088   0.065  0.8441 -0.0436  0.1217
 6392SOL    HW226035   5.211   8.169  -0.019 -0.7987  1.6448 -0.2212
 6393SOL     OW26036   4.722   0.089   7.549  0.9483 -0.1989  0.1330
 6393SOL    HW126037   4.630   0.110   7.567  0.6336 -1.2311 -0.2312
 6393SOL    HW226038   4.758   0.170   7.512 -0.5211 -0.5629 -2.2590
 6394SOL     OW26039   1.024   0.319  10.393  0.7360  0.0049  0.0560
 6394SOL    HW126040   1.069   0.268  10.326 -0.0134  1.3265 -1.4982
 6394SOL    HW226041   0.937   0.280  10.398  1.3827 -1.3830  1.7736
 6395SOL     OW26042  11.751   9.892   4.491  0.0404  0.2848 -0.0675
 6395SOL    HW126043  11.803   9.908   4.412 -1.6952  0.5919 -1.2233
 6395SOL    HW226044  11.689   9.824   4.465  0.2119 -0.4790  1.4326
 6396SOL     OW26045   0.704   1.127   9.866  0.2456 -0.6861 -0.1358
 6396SOL    HW126046   0.736   1.037   9.875 -1.0501 -1.5301 -2.8124
 6396SOL    HW226047   0.762   1.167   9.801 -0.3107 -0.1976 -0.3370
 6397SOL     OW26048  11.909   9.580   1.074 -0.2582 -0.7814 -0.5768
 6397SOL    HW126049  11.870   9.596   1.160  0.2528  0.3124 -0.5413
 6397SOL    HW226050  11.988   9.529   1.093 -0.0300 -0.3547 -0.3775
 6398SOL     OW26051   8.753   7.125   7.801 -0.5476 -0.1154 -0.1926
 6398SOL    HW126052   8.783   7.073   7.727 -1.0059  0.2061 -0.6093
 6398SOL    HW226053   8.690   7.186   7.764 -1.7079 -0.7537  0.6641
 6399SOL     OW26054  11.490   1.640   5.506 -0.4436  0.1317 -0.0528
 6399SOL    HW126055  11.440   1.721   5.499  0.1501  0.3874 -2.3197
 6399SOL    HW226056  11.538   1.649   5.589 -2.0603  1.0521  0.8420
 6400SOL     OW26057   1.506   6.608   9.441  0.5670 -0.4400  0.1646
 6400SOL    HW126058   1.494   6.632   9.349  1.2187 -0.7337 -0.0066
 6400SOL    HW226059   1.420   6.578   9.469  0.0955  0.6977 -0.0284
 6401SOL     OW26060   2.001   8.884   6.688  0.5360  0.0826  0.1863
 6401SOL    HW126061   2.082   8.862   6.641  0.4417  2.3768 -1.2276
 6401SOL    HW226062   2.028   8.950   6.752 -0.0988  0.4500  0.0839
 6402SOL     OW26063   1.796   8.746   2.235  0.6908  0.6505 -0.1910
 6402SOL    HW126064   1.881   8.789   2.247  0.3473  1.4259 -0.4474
 6402SOL    HW226065   1.750   8.762   2.318  0.4511  1.0303 -0.3983
 6403SOL     OW26066  12.572   7.146   1.941 -0.2501  0.4017  0.0773
 6403SOL    HW126067  12.664   7.171   1.953  0.1666 -1.0146  0.0162
 6403SOL    HW226068  12.534   7.152   2.029  0.4151 -0.8604  0.4785
 6404SOL     OW26069  10.882   3.505   3.513 -0.8007  0.1982 -0.5895
 6404SOL    HW126070  10.958   3.529   3.567 -0.2160 -1.5290 -0.5689
 6404SOL    HW226071  10.921   3.469   3.433 -1.5702 -0.9832 -0.4552
 6405SOL     OW26072   1.162  12.120  10.022  0.1318 -0.5740 -0.2180
 6405SOL    HW126073   1.211  12.055   9.973  0.7717 -1.6643  1.7450
 6405SOL    HW226074   1.228  12.175  10.064 -0.3698 -0.0584 -0.0737
 6406SOL     OW26075   4.526  11.745   2.798 -0.3208 -0.0440  0.3069
 6406SOL    HW126076   4.607  11.707   2.765 -0.8042 -0.5984 -0.2795
 6406SOL    HW226077   4.554  11.805   2.867  0.6995  0.8686 -0.8399
 6407SOL     OW26078  12.066   2.270   4.415 -0.8199  0.2765  0.2300
 6407SOL    HW126079  12.062   2.263   4.320 -2.1890  0.2130  0.2789
 6407SOL    HW226080  12.132   2.205   4.441 -1.4277 -0.6848 -0.5764
 6408SOL     OW26081   4.433  12.497   5.342  0.8026  0.7794 -0.2679
 6408SOL    HW126082   4.377  12.419   5.338  1.7619 -0.0150  1.0071
 6408SOL    HW226083   4.371  12.569   5.355  0.0126 -0.0575  0.9324
 6409SOL     OW26084   7.426   4.772   9.310  0.3230 -0.6497  0.2050
 6409SOL    HW126085   7.503   4.752   9.257  0.5044 -1.0607  0.6146
 6409SOL    HW226086   7.386   4.848   9.267 -0.1006 -1.5704 -1.1015
 6410SOL     OW26087   2.013  11.679   7.918  0.0478  0.5666  0.1949
 6410SOL    HW126088   2.082  11.726   7.966  1.4336 -0.0148 -1.1688
 6410SOL    HW226089   2.023  11.588   7.945 -0.3205  0.5072  0.1316
 6411SOL     OW26090   9.070   1.435   8.793 -0.0274  0.2246 -0.0307
 6411SOL    HW126091   9.047   1.382   8.717  1.2428  0.6543 -0.7499
 6411SOL    HW226092   9.063   1.375   8.867 -2.9957  0.2257 -0.1841
 6412SOL     OW26093   7.022   3.566   0.650  0.6484 -0.4254  0.6005
 6412SOL    HW126094   7.015   3.577   0.556  1.3305  0.9335  0.6905
 6412SOL    HW226095   7.115   3.561   0.668  0.5035 -2.4004  1.0574
 6413SOL     OW26096  12.350  12.149   0.892 -0.0526 -0.2145  0.4728
 6413SOL    HW126097  12.378  12.227   0.843  0.0019 -0.3281  0.3228
 6413SOL    HW226098  12.428  12.122   0.940  0.2862 -0.9043 -0.4347
 6414SOL     OW26099   2.203   4.635   4.584  0.5593 -0.0966  0.0950
 6414SOL    HW126100   2.167   4.687   4.512  0.9356 -1.1403 -0.8802
 6414SOL    HW226101   2.289   4.673   4.601  0.1395  0.6676  0.5667
 6415SOL     OW26102   5.396   4.229   2.992  0.2932 -0.0078  0.0170
 6415SOL    HW126103   5.485   4.193   2.996  0.9672  1.5288 -0.1867
 6415SOL    HW226104   5.395   4.298   3.059 -0.3670  0.7545 -0.7492
 6416SOL     OW26105   7.821   7.103   5.087 -0.1507 -0.2374 -0.2992
 6416SOL    HW126106   7.886   7.035   5.071  0.8073 -0.0974  2.5338
 6416SOL    HW226107   7.871   7.177   5.121 -1.4997  0.8883 -0.6779
 6417SOL     OW26108   5.836  10.407   0.198  0.0351 -0.2934 -0.1433
 6417SOL    HW126109   5.852  10.440   0.287 -0.4419 -1.5923  0.4578
 6417SOL    HW226110   5.839  10.312   0.208  1.1004 -0.4492 -1.7555
 6418SOL     OW26111   0.593   5.881  11.083  0.5859  0.0094  0.1084
 6418SOL    HW126112   0.585   5.886  11.179 -1.3778  0.4376 -0.0169
 6418SOL    HW226113   0.532   5.811  11.058  1.9501 -0.9010 -0.7658
 6419SOL     OW26114  11.240   5.103  10.503 -0.1003  0.4244 -0.1734
 6419SOL    HW126115  11.201   5.182  10.540  0.3564  1.0897 -1.0973
 6419SOL    HW226116  11.306   5.076  10.566  1.6742  2.3543 -1.0981
 6420SOL     OW26117  10.871   8.379   1.977  0.8942  0.3512 -0.1488
 6420SOL    HW126118  10.916   8.355   1.896 -0.1538 -1.3993 -0.2544
 6420SOL    HW226119  10.842   8.469   1.962 -0.8460 -0.4926 -2.5131
 6421SOL     OW26120  10.617   4.891   8.359  0.1435 -0.0587  0.1538
 6421SOL    HW126121  10.532   4.934   8.367  0.6621  1.0686 -0.1976
 6421SOL    HW226122  10.680   4.957   8.387  0.8725 -1.1523  1.2632
 6422SOL     OW26123   9.085  11.633   2.996 -0.5835  0.2951 -0.0886
 6422SOL    HW126124   9.043  11.556   3.032 -1.2477  0.2275 -0.9705
 6422SOL    HW226125   9.179  11.618   3.008 -0.7645  0.0227  1.0528
 6423SOL     OW26126   2.422   3.472   9.176 -0.0921 -0.5314  0.2889
 6423SOL    HW126127   2.422   3.425   9.260 -0.9862  0.4499  0.8648
 6423SOL    HW226128   2.341   3.444   9.133  0.3960 -1.0813 -0.2978
 6424SOL     OW26129  10.672   9.860   6.402 -0.2733 -0.3207 -0.1972
 6424SOL    HW126130  10.668   9.955   6.400 -0.7206 -0.2789  1.2765
 6424SOL    HW226131  10.584   9.832   6.375  0.1643 -0.3626 -1.6386
 6425SOL     OW26132  12.401   2.341   8.193  0.3944  0.7484 -0.0694
 6425SOL    HW126133  12.446   2.352   8.277  0.0746  1.9467 -0.0419
 6425SOL    HW226134  12.413   2.425   8.148 -1.9154  1.1809 -0.0019
 6426SOL     OW26135   0.405  11.352   3.507  0.2614 -0.4323  1.0622
 6426SOL    HW126136   0.474  11.363   3.441  0.6588  0.6160  1.6136
 6426SOL    HW226137   0.393  11.258   3.515  2.8724 -0.7786  2.1628
 6427SOL     OW26138   3.837   7.509   1.702  0.3133  0.5298 -0.0187
 6427SOL    HW126139   3.922   7.487   1.740  0.4136  0.6434 -0.1751
 6427SOL    HW226140   3.857   7.572   1.633  0.0519  0.9903  0.3142
 6428SOL     OW26141   1.307   2.235   7.201  0.7215 -0.1653  0.2501
 6428SOL    HW126142   1.305   2.328   7.178 -0.0486 -0.0571  0.7166
 6428SOL    HW226143   1.351   2.232   7.286  1.1912 -0.2808  0.0030
 6429SOL     OW26144   0.337   4.478   0.918  0.2615 -0.1528 -0.1642
 6429SOL    HW126145   0.340   4.536   0.995  2.2991  1.6442 -1.5082
 6429SOL    HW226146   0.266   4.513   0.865 -1.6030 -1.7994  1.0764
 6430SOL     OW26147  12.407  10.058   2.116 -0.2244 -0.0254 -0.2300
 6430SOL    HW126148  12.453   9.990   2.166  0.6871 -0.3991 -1.5127
 6430SOL    HW226149  12.447  10.140   2.144  0.7370 -0.2885 -0.8014
 6431SOL     OW26150   3.737   3.147   8.863  0.0077  0.0360  0.3924
 6431SOL    HW126151   3.770   3.097   8.789 -0.4030 -0.5105  0.5753
 6431SOL    HW226152   3.716   3.081   8.929  0.3055  0.5078  0.9744
 6432SOL     OW26153   2.394  11.259  10.256 -0.3442 -0.4153 -0.0654
 6432SOL    HW126154   2.461  11.191  10.246 -1.8978 -2.0908  0.3220
 6432SOL    HW226155   2.359  11.271  10.168 -0.9004 -1.0251  0.0689
 6433SOL     OW26156  10.260  11.032  11.691  0.0975 -0.3673  0.6394
 6433SOL    HW126157  10.346  11.057  11.725  0.4893  0.0563 -0.6143
 6433SOL    HW226158  10.270  10.940  11.666  0.3551 -0.1716  0.0036
 6434SOL     OW26159   9.332   3.847  10.312  0.0544  0.2515 -0.1065
 6434SOL    HW126160   9.277   3.830  10.236 -1.2883  1.3781  0.5773
 6434SOL    HW226161   9.370   3.761  10.334  0.1048 -0.1775 -1.7312
 6435SOL     OW26162   8.581  11.010   9.159 -0.1950 -0.3025 -0.5451
 6435SOL    HW126163   8.641  11.015   9.084  0.5044 -1.0164 -0.0446
 6435SOL    HW226164   8.534  10.927   9.147  0.9249 -1.1201  0.5300
 6436SOL     OW26165   2.813   3.101   3.287  0.5207  0.9024  0.0103
 6436SOL    HW126166   2.907   3.107   3.274  0.7863 -1.7182  0.0282
 6436SOL    HW226167   2.784   3.036   3.222 -1.0299  0.6576  0.8964
 6437SOL     OW26168   3.934   6.994   1.728 -0.6711 -0.0578 -0.0726
 6437SOL    HW126169   3.961   6.983   1.819  0.2095 -0.2910 -0.3487
 6437SOL    HW226170   3.844   7.027   1.733 -0.9550 -0.9333  0.8631
 6438SOL     OW26171   9.835   7.031   8.167  0.3740  0.6048  0.4177
 6438SOL    HW126172   9.836   6.997   8.257  0.1231 -0.8013 -0.0760
 6438SOL    HW226173   9.915   7.083   8.159  1.6592 -1.2213  0.7623
 6439SOL     OW26174  10.392   6.856   9.507 -0.5308  0.5996  1.0087
 6439SOL    HW126175  10.337   6.866   9.584  0.5645 -0.1796  1.9433
 6439SOL    HW226176  10.481   6.867   9.540 -0.0068 -0.2650 -0.0453
 6440SOL     OW26177  10.276   7.001  10.132 -0.1010  0.2691  0.1722
 6440SOL    HW126178  10.196   6.958  10.101  1.0930 -1.8290 -0.2297
 6440SOL    HW226179  10.288   6.969  10.221  0.8761 -0.3705 -0.1734
 6441SOL     OW26180   3.586   8.036  11.752  0.0613 -0.1379  0.5865
 6441SOL    HW126181   3.629   7.953  11.774  0.4341 -0.0079  0.3497
 6441SOL    HW226182   3.573   8.032  11.657  1.8246  0.8944  0.2778
 6442SOL     OW26183  12.042  11.678   8.861  0.1115 -0.2146 -0.1702
 6442SOL    HW126184  12.034  11.772   8.874 -0.5502 -0.0253 -1.6781
 6442SOL    HW226185  12.024  11.640   8.947  1.7419  1.0641  0.7863
 6443SOL     OW26186   6.915  11.810   8.966  0.2721  0.2249 -0.2703
 6443SOL    HW126187   6.939  11.735   8.911  0.5787  0.3021 -0.2445
 6443SOL    HW226188   6.888  11.770   9.049 -1.0240  0.0604 -0.7573
 6444SOL     OW26189   3.392  11.529   5.685  0.0468  0.4029  0.2870
 6444SOL    HW126190   3.356  11.454   5.638  1.0095  0.1555 -0.0884
 6444SOL    HW226191   3.397  11.501   5.776 -1.7427  0.8483  0.5545
 6445SOL     OW26192   7.228   7.491  12.049 -0.8072  0.0838 -0.2306
 6445SOL    HW126193   7.323   7.493  12.057 -0.8515  0.6576  0.2509
 6445SOL    HW226194   7.204   7.401  12.071 -0.2551 -0.5505 -2.0580
 6446SOL     OW26195   8.920   9.492  11.222  0.3543  0.0146 -0.0779
 6446SOL    HW126196   8.999   9.449  11.188 -0.3418  0.6598 -2.7576
 6446SOL    HW226197   8.852   9.470  11.158 -1.0894  1.3562  0.9321
 6447SOL     OW26198   2.966   9.754   9.552 -0.6086 -0.1429  0.4521
 6447SOL    HW126199   2.920   9.673   9.574  0.2352 -0.7506  0.0251
 6447SOL    HW226200   3.057   9.737   9.577 -0.8825  1.7481  3.2125
 6448SOL     OW26201   5.287   8.877   3.873 -0.2870  0.2003  0.4717
 6448SOL    HW126202   5.234   8.924   3.808 -1.7746 -2.6605 -0.5644
 6448SOL    HW226203   5.349   8.826   3.822 -1.4869 -2.1171  1.1882
 6449SOL     OW26204   2.107  10.270  10.188  0.4096  0.3819  0.4500
 6449SOL    HW126205   2.192  10.263  10.145  0.2432  0.0832  0.1677
 6449SOL    HW226206   2.086  10.181  10.216 -1.3138 -0.2660 -2.4137
 6450SOL     OW26207   4.047   3.273   0.807 -0.0263  0.2373  0.4104
 6450SOL    HW126208   4.092   3.202   0.852  0.1159 -0.6319 -1.0416
 6450SOL    HW226209   4.114   3.340   0.794 -0.0418  0.4482  1.3625
 6451SOL     OW26210   2.449   0.873   3.702 -0.0718 -0.0519 -0.7224
 6451SOL    HW126211   2.530   0.923   3.697 -0.1240  0.4264  1.8896
 6451SOL    HW226212   2.477   0.785   3.728 -0.2638 -0.4295 -1.7503
 6452SOL     OW26213   7.259   8.333   7.954 -0.2261 -0.1236  0.4016
 6452SOL    HW126214   7.221   8.395   8.017  0.2313  0.1674  0.3940
 6452SOL    HW226215   7.259   8.381   7.871  2.1736  0.7122  0.8261
 6453SOL     OW26216   9.467  10.636  11.430 -0.4104  0.3707  0.0356
 6453SOL    HW126217   9.547  10.679  11.399 -0.6058  1.4579  0.9691
 6453SOL    HW226218   9.499  10.565  11.486 -0.0828 -0.7591 -1.5296
 6454SOL     OW26219   9.170   7.966   4.108  0.1671 -0.0001  0.0239
 6454SOL    HW126220   9.257   7.939   4.080 -1.1450 -2.5271 -2.0221
 6454SOL    HW226221   9.157   7.923   4.193  0.1223 -1.4988 -0.7171
 6455SOL     OW26222   0.582   9.916   3.301 -0.5389 -0.0986  0.3466
 6455SOL    HW126223   0.522   9.844   3.283  1.9703 -2.0002 -0.9433
 6455SOL    HW226224   0.626   9.932   3.218  1.2087  0.7912  1.3936
 6456SOL     OW26225   8.283  10.404  10.789 -0.3306 -0.0076  0.1401
 6456SOL    HW126226   8.376  10.430  10.790 -0.4236  0.5374 -1.5847
 6456SOL    HW226227   8.275  10.341  10.860  1.2069  0.4705  0.7820
 6457SOL     OW26228   8.224   0.859   3.913 -0.6067  0.0686  0.1662
 6457SOL    HW126229   8.185   0.944   3.935 -0.5571  0.9748 -2.8809
 6457SOL    HW226230   8.158   0.815   3.860 -0.6477 -1.9013  1.7394
 6458SOL     OW26231   0.167   5.115   0.362 -0.4571  0.0531  0.0391
 6458SOL    HW126232   0.185   5.207   0.341  3.0895 -0.4776  0.1474
 6458SOL    HW226233   0.076   5.101   0.333 -0.8770  3.3520 -0.6458
 6459SOL     OW26234   3.000   6.112   6.804 -0.3532  0.4002 -0.3253
 6459SOL    HW126235   3.040   6.075   6.882 -0.9173 -0.7521 -0.5727
 6459SOL    HW226236   2.906   6.111   6.822 -0.5612 -0.7833 -1.3955
 6460SOL     OW26237  11.257   8.756   0.971 -0.2284 -0.0272  0.8108
 6460SOL    HW126238  11.262   8.852   0.976 -1.0791 -0.0299  2.3918
 6460SOL    HW226239  11.185   8.739   0.910 -0.0972  0.3318  0.5511
 6461SOL     OW26240   2.124   6.507   8.466 -0.1414 -0.2112 -0.6184
 6461SOL    HW126241   2.160   6.587   8.504 -0.7790  0.1899 -0.8563
 6461SOL    HW226242   2.192   6.441   8.481  0.5145  0.4411 -0.6987
 6462SOL     OW26243   5.795  11.805   6.256 -0.5070 -0.1892  0.1404
 6462SOL    HW126244   5.734  11.809   6.329 -0.6411 -0.5576  0.0528
 6462SOL    HW226245   5.874  11.766   6.293 -1.3118 -2.4594 -0.3756
 6463SOL     OW26246   7.532   0.669  10.783  0.0458  0.3575 -0.2590
 6463SOL    HW126247   7.546   0.676  10.689 -1.2639  2.7820 -0.3566
 6463SOL    HW226248   7.619   0.656  10.820  0.7211  0.6208 -1.7067
 6464SOL     OW26249   3.051   5.685   1.594 -0.3170 -0.5750  0.1788
 6464SOL    HW126250   2.970   5.728   1.565 -0.8241 -2.1829 -0.8782
 6464SOL    HW226251   3.117   5.714   1.532  0.0169  0.9052  1.1629
 6465SOL     OW26252   0.482   4.538   3.922  0.2208 -0.2292 -0.3359
 6465SOL    HW126253   0.554   4.523   3.861 -0.5798 -1.7142 -0.9744
 6465SOL    HW226254   0.461   4.450   3.955  1.5528  0.5953  3.2305
 6466SOL     OW26255   2.374   3.790  12.116  0.2978 -0.6501  0.5195
 6466SOL    HW126256   2.408   3.721  12.173  0.1299 -0.4328  0.8799
 6466SOL    HW226257   2.395   3.872  12.161  0.5043 -0.4638  0.0859
 6467SOL     OW26258  10.562   1.899  11.256  0.3802  0.7869 -0.0681
 6467SOL    HW126259  10.496   1.849  11.304  0.1655 -0.0076 -1.1594
 6467SOL    HW226260  10.572   1.980  11.306 -2.7076  1.7337 -0.7598
 6468SOL     OW26261  10.601  11.411  11.112  0.4496  0.4296 -0.0167
 6468SOL    HW126262  10.672  11.466  11.080  1.3498  0.2405  1.5567
 6468SOL    HW226263  10.638  11.323  11.114  0.6031  0.4913  1.8975
 6469SOL     OW26264   4.670   5.314   7.084  0.3680  0.3501 -0.1717
 6469SOL    HW126265   4.634   5.400   7.066  0.2021  0.5109  0.8926
 6469SOL    HW226266   4.604   5.252   7.052  0.4666  0.6029 -0.8872
 6470SOL     OW26267   8.457   8.976   7.030  0.2417 -0.5831  0.3072
 6470SOL    HW126268   8.485   9.067   7.027 -0.2755 -0.3722  1.3934
 6470SOL    HW226269   8.387   8.970   6.965  0.5374 -0.3092 -0.0430
 6471SOL     OW26270   0.956   5.402   9.653 -0.4911  0.3404  0.2736
 6471SOL    HW126271   0.955   5.415   9.558  1.0617  1.2427  0.3594
 6471SOL    HW226272   0.944   5.308   9.664  2.6854 -0.3243 -0.9972
 6472SOL     OW26273   9.248   7.217   4.274  0.2917  0.3798 -0.1348
 6472SOL    HW126274   9.233   7.243   4.365  0.3140  0.5988 -0.1945
 6472SOL    HW226275   9.186   7.269   4.223  0.6037  0.6033 -0.2922
 6473SOL     OW26276   8.297   8.141   6.221 -0.0030  0.7265  0.4566
 6473SOL    HW126277   8.289   8.047   6.202 -0.5996  0.6197  1.1705
 6473SOL    HW226278   8.360   8.174   6.157 -0.1291 -0.0767 -0.0890
 6474SOL     OW26279   8.845   2.853  10.066 -0.0875  0.6051 -0.1776
 6474SOL    HW126280   8.804   2.910  10.131  0.0333 -0.4692  0.8762
 6474SOL    HW226281   8.771   2.809  10.023 -0.1366  0.4509  0.0592
 6475SOL     OW26282   3.934  10.629  12.174  0.2718 -0.2331 -0.4427
 6475SOL    HW126283   3.851  10.677  12.175 -0.1803 -0.9418  2.0358
 6475SOL    HW226284   3.923  10.564  12.104 -0.8530  0.3429 -0.8209
 6476SOL     OW26285   2.192  11.617   6.966  0.3349 -0.1809 -0.1273
 6476SOL    HW126286   2.138  11.557   6.915 -0.2865  1.0084 -0.9123
 6476SOL    HW226287   2.213  11.689   6.906 -0.1769  1.1258  1.1853
 6477SOL     OW26288   2.507   9.026  12.229 -0.5396  0.2983 -0.7833
 6477SOL    HW126289   2.450   8.984  12.294 -0.3131 -0.1956 -0.8981
 6477SOL    HW226290   2.524   8.958  12.164 -0.0999  0.5462 -0.9345
 6478SOL     OW26291   7.123   1.829   6.312  0.4524  0.4100  0.2223
 6478SOL    HW126292   7.061   1.834   6.384  1.0437  1.6587  0.6611
 6478SOL    HW226293   7.080   1.773   6.247 -1.2524  1.4669  0.3869
 6479SOL     OW26294   0.357   8.274   5.497  0.3936 -0.3472 -0.0747
 6479SOL    HW126295   0.431   8.250   5.441  1.4263  0.0528  1.0576
 6479SOL    HW226296   0.302   8.196   5.498  0.9165 -0.7423 -0.7668
 6480SOL     OW26297   5.312   5.476  11.388 -0.0842  0.1104  0.3576
 6480SOL    HW126298   5.312   5.544  11.320  0.0522 -0.4642 -0.2275
 6480SOL    HW226299   5.278   5.520  11.466  1.0194  1.1442  0.2821
 6481SOL     OW26300  12.096   1.339   3.744  1.0776  0.5399  0.8162
 6481SOL    HW126301  12.115   1.276   3.813  0.6301  1.2332  1.6056
 6481SOL    HW226302  12.000   1.343   3.741  1.0976  0.8324  0.4589
 6482SOL     OW26303  10.509   5.512   4.404 -0.2409  0.0619 -0.4256
 6482SOL    HW126304  10.452   5.462   4.346 -0.1896  0.4687 -0.8336
 6482SOL    HW226305  10.451   5.575   4.446 -0.5048 -1.0267  0.9054
 6483SOL     OW26306   5.586   2.791   7.153  0.5796 -0.3130 -0.1266
 6483SOL    HW126307   5.572   2.708   7.199  1.1025 -0.5136 -0.3221
 6483SOL    HW226308   5.625   2.766   7.070 -2.8670 -0.2044 -1.9617
 6484SOL     OW26309   9.220   1.653  11.246 -1.0088  0.1183 -0.5124
 6484SOL    HW126310   9.258   1.723  11.193  0.0961  0.7714  1.0691
 6484SOL    HW226311   9.284   1.582  11.241 -0.6217  0.3862  0.3371
 6485SOL     OW26312   4.870   0.712   4.670  0.7482 -0.4618  0.0712
 6485SOL    HW126313   4.865   0.663   4.587 -0.2172  0.2749 -0.3327
 6485SOL    HW226314   4.921   0.791   4.648  0.0516 -0.0123  0.0274
 6486SOL     OW26315   8.437   6.575   1.233 -0.0236 -0.0534 -0.4804
 6486SOL    HW126316   8.431   6.482   1.256  2.1644  0.0285  0.7499
 6486SOL    HW226317   8.496   6.577   1.157  2.7741  0.4243  1.5164
 6487SOL     OW26318   5.316  10.444   5.149  0.2334 -0.4818 -0.0391
 6487SOL    HW126319   5.240  10.386   5.158 -1.2569  1.1930 -1.0700
 6487SOL    HW226320   5.316  10.468   5.057 -0.6789  2.9286  0.6924
 6488SOL     OW26321   5.739  12.159   7.071  0.1783 -0.1886  0.2582
 6488SOL    HW126322   5.792  12.236   7.047  0.5801 -1.1332 -2.2487
 6488SOL    HW226323   5.802  12.099   7.112  0.2558  0.0911  0.5555
 6489SOL     OW26324   7.153   3.513  12.369 -0.3398 -0.1072 -0.2834
 6489SOL    HW126325   7.110   3.477  12.291  0.4420  2.2736 -1.9198
 6489SOL    HW226326   7.080   3.535  12.428 -1.0592 -0.3319 -1.0582
 6490SOL     OW26327  11.899   7.148   4.420  0.2999 -0.5808  0.3152
 6490SOL    HW126328  11.834   7.195   4.368  0.8472  0.2083  0.3337
 6490SOL    HW226329  11.964   7.214   4.444  0.4721 -1.0903  1.3438
 6491SOL     OW26330   4.703   4.901  12.546  0.6771  0.4562 -0.2832
 6491SOL    HW126331   4.728   4.819  12.589  1.7945  1.3391  0.8242
 6491SOL    HW226332   4.619   4.924  12.585  0.4259 -0.0643 -0.4971
 6492SOL     OW26333   8.443  12.207   3.882  0.2461 -0.2191 -0.2127
 6492SOL    HW126334   8.480  12.182   3.967  0.5325 -1.4708 -0.6794
 6492SOL    HW226335   8.417  12.124   3.842  3.4474 -0.1656 -2.8811
 6493SOL     OW26336   2.636   2.886  11.791 -1.0813 -0.2800 -0.5161
 6493SOL    HW126337   2.658   2.806  11.839 -0.4257  0.0566 -0.2440
 6493SOL    HW226338   2.607   2.855  11.705  1.0347 -0.7610 -1.1294
 6494SOL     OW26339   0.282   2.517  11.798  0.7076 -0.0772  0.4737
 6494SOL    HW126340   0.340   2.480  11.865  0.2032 -3.3290 -0.6621
 6494SOL    HW226341   0.333   2.512  11.717 -0.1695 -0.3923 -0.0753
 6495SOL     OW26342   6.252   4.807   1.866 -0.0572 -0.3417  0.1364
 6495SOL    HW126343   6.344   4.785   1.880 -0.5310 -2.3833  0.3757
 6495SOL    HW226344   6.211   4.724   1.842 -1.8342  0.5351 -0.0152
 6496SOL     OW26345   0.209   9.182  10.173 -0.5949  0.0045  0.0512
 6496SOL    HW126346   0.128   9.170  10.222 -0.7270  2.2816  0.4867
 6496SOL    HW226347   0.187   9.245  10.105  1.2882  2.6401  1.6925
 6497SOL     OW26348   4.763   5.166   4.158 -0.2779 -0.0907  0.0857
 6497SOL    HW126349   4.731   5.222   4.087 -0.2817  0.1704  0.2891
 6497SOL    HW226350   4.744   5.077   4.129  0.6631 -0.0515 -0.7068
 6498SOL     OW26351   4.093   2.332   5.428 -0.4307 -0.8450 -0.1265
 6498SOL    HW126352   4.082   2.426   5.417  0.1230 -0.8821 -1.1031
 6498SOL    HW226353   4.081   2.317   5.522  0.0110  0.2675  0.1164
 6499SOL     OW26354  12.513  10.394  11.263 -0.4555  0.3348  0.2295
 6499SOL    HW126355  12.512  10.465  11.327  1.7420 -0.7564  1.5951
 6499SOL    HW226356  12.421  10.370  11.252 -0.9441  0.8701  2.6092
 6500SOL     OW26357   4.290   6.101   2.499 -0.1103 -0.6412 -0.1117
 6500SOL    HW126358   4.276   6.158   2.575  0.4334 -0.5252 -0.0983
 6500SOL    HW226359   4.326   6.021   2.536 -2.2656 -1.6180  0.0583
 6501SOL     OW26360   7.729   8.609  11.569  0.2256  0.2650 -0.5423
 6501SOL    HW126361   7.656   8.671  11.566  1.9123  2.3850 -0.4610
 6501SOL    HW226362   7.755   8.608  11.661  0.4631 -0.2561 -0.6140
 6502SOL     OW26363   6.590   7.966   7.780 -0.3593  0.1920 -0.5881
 6502SOL    HW126364   6.658   7.964   7.713  0.3270 -0.7325  0.1052
 6502SOL    HW226365   6.627   8.019   7.850 -0.8354  0.6673 -0.6945
 6503SOL     OW26366   7.928   0.317  11.671 -0.5857  0.1112  0.2013
 6503SOL    HW126367   7.990   0.310  11.743 -0.8975 -1.0636  0.3736
 6503SOL    HW226368   7.949   0.243  11.614  0.2689  1.5233 -1.4306
 6504SOL     OW26369   7.630   6.853   3.378 -0.3941  0.3757 -0.0154
 6504SOL    HW126370   7.648   6.893   3.463  0.1650  1.6458 -0.7125
 6504SOL    HW226371   7.576   6.776   3.399 -0.0619  0.5284  1.4953
 6505SOL     OW26372   1.948   8.589   4.829  0.6191 -0.4893  0.0408
 6505SOL    HW126373   1.860   8.562   4.852 -0.8116  1.6429 -2.3105
 6505SOL    HW226374   1.966   8.545   4.746  1.3751 -0.1958  0.0351
 6506SOL     OW26375   0.006   4.028  12.393  0.1115  0.4077 -0.4184
 6506SOL    HW126376   0.066   3.998  12.324 -0.3664 -1.8936  0.0548
 6506SOL    HW226377  -0.065   4.070  12.345  1.4631  2.0547 -1.0614
 6507SOL     OW26378   7.093   7.604   1.689 -0.0760  0.3178 -0.2273
 6507SOL    HW126379   7.056   7.519   1.715  0.1335  0.1745 -0.3953
 6507SOL    HW226380   7.047   7.626   1.608 -1.6492  1.3655  0.8755
 6508SOL     OW26381   6.713   3.027   1.738  0.4144  0.0430  0.0022
 6508SOL    HW126382   6.783   3.020   1.803 -0.7495 -0.4170  1.2700
 6508SOL    HW226383   6.731   3.109   1.693 -0.2171  1.8769  2.8004
 6509SOL     OW26384   2.799   0.861  11.707 -0.8489  0.5076  0.0523
 6509SOL    HW126385   2.869   0.826  11.652 -0.1477  1.0234  0.5930
 6509SOL    HW226386   2.769   0.940  11.661 -1.1593  0.2175 -0.2425
 6510SOL     OW26387  11.556   2.932   7.980 -0.0722  0.2108  0.1637
 6510SOL    HW126388  11.542   2.851   7.930 -1.1166 -0.3310  1.2838
 6510SOL    HW226389  11.645   2.924   8.014  0.3709  0.2342 -0.9457
 6511SOL     OW26390   4.543  11.237   5.299 -0.4196  0.0731  0.7240
 6511SOL    HW126391   4.560  11.260   5.208 -0.6712 -0.7507  0.4550
 6511SOL    HW226392   4.453  11.266   5.314 -0.2384  0.5797  0.8389
 6512SOL     OW26393   2.388   7.435  12.449  0.3917  0.3384  0.2187
 6512SOL    HW126394   2.385   7.517  12.400  0.5502  0.1255 -0.1540
 6512SOL    HW226395   2.480   7.407  12.441  1.2014  1.8209  3.1571
 6513SOL     OW26396  11.856   9.381  12.125  0.0455 -0.0395 -0.0557
 6513SOL    HW126397  11.803   9.364  12.047 -0.1041 -2.8520  0.5368
 6513SOL    HW226398  11.795   9.419  12.188 -0.0332  1.4278 -0.9710
 6514SOL     OW26399   0.247   1.296   6.248 -0.0037  0.5455  0.1952
 6514SOL    HW126400   0.258   1.293   6.153  0.1728  0.6573  0.2120
 6514SOL    HW226401   0.168   1.246   6.264  0.9963 -1.1209  0.1583
 6515SOL     OW26402   3.802   1.633   7.999  0.6124 -0.2127  0.1278
 6515SOL    HW126403   3.739   1.594   8.060 -0.6657  0.3817 -0.7809
 6515SOL    HW226404   3.767   1.720   7.982  1.7326  0.1512 -0.3431
 6516SOL     OW26405   3.490   3.934   5.620 -0.2033 -0.4841  0.3901
 6516SOL    HW126406   3.427   3.895   5.561 -0.3311 -0.0660  0.2454
 6516SOL    HW226407   3.506   4.022   5.585  0.2613 -0.4889  0.5681
 6517SOL     OW26408   5.439   7.888   1.223  0.0129  0.6153  0.4221
 6517SOL    HW126409   5.434   7.792   1.229 -0.0114  0.6451  0.8552
 6517SOL    HW226410   5.383   7.910   1.148  0.1921  0.2754  0.1822
 6518SOL     OW26411   3.341   2.647   0.206 -0.3413 -0.6459 -0.0307
 6518SOL    HW126412   3.434   2.644   0.229 -0.2668 -1.4436 -0.4229
 6518SOL    HW226413   3.339   2.628   0.112 -0.8191  0.4798 -0.2723
 6519SOL     OW26414   5.628   7.502   9.275 -0.0139  0.7943  0.5315
 6519SOL    HW126415   5.543   7.469   9.249  1.1714  0.6931 -4.0909
 6519SOL    HW226416   5.616   7.596   9.285 -0.5606  0.8991 -0.9244
 6520SOL     OW26417   6.113   7.731   8.329  0.0012  0.7585 -0.1696
 6520SOL    HW126418   6.170   7.805   8.349  1.3104 -0.0870 -0.5916
 6520SOL    HW226419   6.113   7.678   8.409  1.3985 -0.2104 -0.7709
 6521SOL     OW26420   3.962   9.704   4.814  0.3104 -0.5231  0.2170
 6521SOL    HW126421   3.953   9.614   4.782 -0.7266 -0.4745  0.3199
 6521SOL    HW226422   3.953   9.698   4.909  1.1076 -0.3999  0.3091
 6522SOL     OW26423   7.913  10.066   5.359 -0.0585  0.6692  0.1286
 6522SOL    HW126424   7.823  10.073   5.390  0.1777 -0.3814  1.1551
 6522SOL    HW226425   7.964  10.117   5.423  0.5615 -2.3436  2.2865
 6523SOL     OW26426   7.209  10.522   6.188  0.0279 -0.5533 -0.0856
 6523SOL    HW126427   7.122  10.545   6.220  0.4219 -0.5648  1.0232
 6523SOL    HW226428   7.193  10.461   6.116 -0.8548 -1.3557  0.7592
 6524SOL     OW26429   1.021   9.237  11.202  0.3902 -0.4170 -0.2710
 6524SOL    HW126430   1.058   9.301  11.263  0.6870  0.0829 -0.9749
 6524SOL    HW226431   0.950   9.196  11.252 -0.0480  0.7178  0.0585
 6525SOL     OW26432   1.044   4.294   7.080 -0.0104  0.4758 -0.0000
 6525SOL    HW126433   0.993   4.233   7.026  0.3305  0.8844 -0.8084
 6525SOL    HW226434   0.997   4.297   7.163 -1.2976  0.7959 -0.7039
 6526SOL     OW26435   6.416   1.153  11.446  0.1612 -0.5392 -0.0474
 6526SOL    HW126436   6.343   1.159  11.507  1.9438 -1.6857  2.3683
 6526SOL    HW226437   6.389   1.085  11.384  0.1236 -2.8991  2.3786
 6527SOL     OW26438  11.432   5.950  10.408 -0.0597 -0.0902 -0.2162
 6527SOL    HW126439  11.404   5.880  10.467 -1.0286  0.1960 -0.3195
 6527SOL    HW226440  11.522   5.927  10.385 -0.3232 -1.2435 -0.1596
 6528SOL     OW26441   7.906  12.474   6.927 -0.1960 -0.0122 -0.1540
 6528SOL    HW126442   7.819  12.485   6.965  0.6446  1.7710  1.4050
 6528SOL    HW226443   7.901  12.392   6.879 -3.0382  0.5334 -0.9945
 6529SOL     OW26444   5.853   2.089   6.956  0.1044  0.2301 -0.8615
 6529SOL    HW126445   5.871   2.034   6.879  1.8447  1.9115 -1.7469
 6529SOL    HW226446   5.924   2.069   7.017  0.5783  1.2496 -1.0675
 6530SOL     OW26447   4.697   9.891   3.643 -0.5671  0.2705 -0.0817
 6530SOL    HW126448   4.654   9.930   3.720  1.1415  1.7579  0.1935
 6530SOL    HW226449   4.763   9.833   3.680  0.5525  1.3183 -0.3673
 6531SOL     OW26450   1.220   7.205   3.062 -0.2477  0.0059 -0.1705
 6531SOL    HW126451   1.172   7.132   3.101 -0.0420 -0.1805 -0.2591
 6531SOL    HW226452   1.293   7.220   3.122 -0.1181 -0.0639 -0.3098
 6532SOL     OW26453   4.189   8.709   8.669  0.0352 -0.1164 -0.0135
 6532SOL    HW126454   4.205   8.634   8.612  1.1182  1.9227 -2.6138
 6532SOL    HW226455   4.268   8.714   8.723  0.7911  0.1296 -1.0920
 6533SOL     OW26456   9.474  12.370   3.781 -0.0774  0.5214  0.5138
 6533SOL    HW126457   9.544  12.434   3.793  1.1059 -0.5633 -0.2896
 6533SOL    HW226458   9.453  12.374   3.688 -0.1464 -0.0821  0.4984
 6534SOL     OW26459   8.052   3.224   8.317 -0.6842 -0.3483  0.5420
 6534SOL    HW126460   8.122   3.209   8.382 -1.5343  0.2229  1.6223
 6534SOL    HW226461   8.057   3.149   8.259 -0.8396 -1.6664  2.1519
 6535SOL     OW26462   3.371   5.741   8.553 -0.1955  0.2636 -0.6871
 6535SOL    HW126463   3.436   5.803   8.587  0.6263 -0.8352 -0.1919
 6535SOL    HW226464   3.293   5.794   8.538  0.8163  1.6408 -1.3583
 6536SOL     OW26465   3.772   3.743   2.036  0.4546 -0.4423  0.6530
 6536SOL    HW126466   3.778   3.648   2.027  0.0018 -0.4393  0.2385
 6536SOL    HW226467   3.797   3.760   2.126  0.6844 -0.9435  0.6869
 6537SOL     OW26468   8.116   6.427   0.067 -0.4823  0.0551 -0.1912
 6537SOL    HW126469   8.061   6.385   0.001 -0.7579  0.4266 -0.1986
 6537SOL    HW226470   8.078   6.398   0.151  1.4167 -2.5547 -0.0980
 6538SOL     OW26471   8.745  10.578   2.265  0.0502  0.1516 -0.1120
 6538SOL    HW126472   8.825  10.587   2.213 -0.1989  0.4765 -0.4409
 6538SOL    HW226473   8.746  10.487   2.294  1.2740  0.5285  1.1003
 6539SOL     OW26474   0.637  12.084  10.626 -0.2921  0.4863 -0.3151
 6539SOL    HW126475   0.690  12.033  10.688  0.5759  1.0680 -0.5639
 6539SOL    HW226476   0.557  12.105  10.674 -1.0001 -1.6782 -0.4206
 6540SOL     OW26477   2.388   3.044   6.602  0.4309 -0.3353  0.2176
 6540SOL    HW126478   2.389   2.949   6.589  1.8850 -0.3932  0.5969
 6540SOL    HW226479   2.457   3.077   6.544  2.7186  0.0352  2.9628
 6541SOL     OW26480   5.955  10.568   2.962  0.2752  0.1719  0.1326
 6541SOL    HW126481   5.880  10.508   2.958  1.4616 -1.3571 -0.6794
 6541SOL    HW226482   6.024  10.516   3.004  1.8213  0.3734 -2.0184
 6542SOL     OW26483   2.344   3.137   3.782  0.4642 -0.0774 -0.4945
 6542SOL    HW126484   2.338   3.227   3.813  1.5668 -0.1712  0.0289
 6542SOL    HW226485   2.437   3.126   3.758  0.3036 -1.0137 -0.7261
 6543SOL     OW26486  12.031  12.493   3.333  0.6806  0.2274  0.3514
 6543SOL    HW126487  12.046  12.587   3.322  2.5992  0.0346  0.8362
 6543SOL    HW226488  11.983  12.466   3.255 -0.8985  1.7799  0.7236
 6544SOL     OW26489   5.512   9.260   4.419 -0.2099  0.0646 -0.2598
 6544SOL    HW126490   5.540   9.213   4.498 -1.7355 -0.6564 -0.1224
 6544SOL    HW226491   5.553   9.211   4.347 -0.4296 -0.4703 -0.0258
 6545SOL     OW26492   0.407   2.375   1.955  0.0731  0.2151 -0.5479
 6545SOL    HW126493   0.349   2.414   1.889 -0.7620 -2.8836 -1.8269
 6545SOL    HW226494   0.460   2.312   1.906  1.8428  0.2177  1.2519
 6546SOL     OW26495  10.028  10.040   3.377 -0.1325 -0.4287  0.0074
 6546SOL    HW126496  10.032   9.946   3.358 -1.0788 -0.4552 -0.0890
 6546SOL    HW226497  10.061  10.082   3.298  2.4256 -0.7082  0.8314
 6547SOL     OW26498   3.339   3.061   9.664  0.1648  0.2297  0.0362
 6547SOL    HW126499   3.349   3.152   9.636 -2.2771  0.6329  0.2771
 6547SOL    HW226500   3.299   3.017   9.589 -1.4907  0.0927  0.9591
 6548SOL     OW26501   4.642  11.372   2.320  0.1343 -0.4234 -0.4491
 6548SOL    HW126502   4.618  11.289   2.278  0.5122  0.0050 -1.5742
 6548SOL    HW226503   4.563  11.400   2.365 -0.2952 -0.9218 -0.8741
 6549SOL     OW26504   5.898   7.091  11.394 -0.3252 -0.1737  0.8504
 6549SOL    HW126505   5.804   7.104  11.397 -0.4085 -0.4465 -0.1442
 6549SOL    HW226506   5.915   7.062  11.304  0.8430  0.9303  0.6908
 6550SOL     OW26507   7.729   3.813  10.997 -0.6268  0.8934  0.1454
 6550SOL    HW126508   7.804   3.872  10.998 -1.0916  1.5154  1.6208
 6550SOL    HW226509   7.703   3.808  10.905  0.1487  2.0374 -0.1572
 6551SOL     OW26510   4.169   4.861  11.445  0.0328  0.5446 -0.6277
 6551SOL    HW126511   4.241   4.836  11.388  0.0821 -2.3493  0.5498
 6551SOL    HW226512   4.196   4.833  11.532 -1.6547  1.3105  0.1949
 6552SOL     OW26513   9.085   5.145  10.243 -0.2927 -0.4543 -0.3384
 6552SOL    HW126514   9.034   5.158  10.163  0.7582  1.8124 -0.7275
 6552SOL    HW226515   9.141   5.070  10.224 -2.3299 -2.0340 -0.4463
 6553SOL     OW26516   8.667  10.773   6.272  0.1258 -0.6480 -0.3461
 6553SOL    HW126517   8.595  10.728   6.227 -2.3327  1.3069  1.3381
 6553SOL    HW226518   8.683  10.852   6.220  0.3817 -0.5960 -0.1915
 6554SOL     OW26519   6.793   0.331   2.940 -0.5738 -0.1516 -0.1501
 6554SOL    HW126520   6.810   0.379   2.859 -0.3889  1.2222  0.6691
 6554SOL    HW226521   6.703   0.353   2.964 -0.0977  0.8081  0.8681
 6555SOL     OW26522   0.733   5.688   3.989  0.5843 -0.1035  0.4940
 6555SOL    HW126523   0.789   5.736   4.050  1.3225 -0.6331  0.2490
 6555SOL    HW226524   0.791   5.662   3.918  0.2601 -1.5505  0.7246
 6556SOL     OW26525   5.915   9.217   8.408  0.2206 -0.1936  0.1150
 6556SOL    HW126526   5.864   9.198   8.486 -2.6448 -0.5311 -1.6885
 6556SOL    HW226527   5.933   9.132   8.369  2.2081 -0.0737  0.6899
 6557SOL     OW26528   3.490   0.561   4.859 -0.1248  0.5586  0.0244
 6557SOL    HW126529   3.436   0.584   4.783  0.0210 -0.4004 -0.3806
 6557SOL    HW226530   3.492   0.641   4.912 -0.2671  1.2208 -0.9515
 6558SOL     OW26531   4.358   4.272   0.927 -0.0751 -0.0720 -0.0064
 6558SOL    HW126532   4.424   4.228   0.873  0.6418  0.6494  0.2531
 6558SOL    HW226533   4.352   4.218   1.006 -0.1554 -0.4109 -0.2445
 6559SOL     OW26534   4.415   9.411   4.337  0.9402  0.2637 -0.3392
 6559SOL    HW126535   4.415   9.486   4.276  0.0913 -0.2378 -0.9935
 6559SOL    HW226536   4.468   9.345   4.293  2.1604  0.6617  0.5002
 6560SOL     OW26537   8.615   7.092   3.712 -0.6955  0.2842  0.3899
 6560SOL    HW126538   8.698   7.136   3.728 -0.4175 -0.1921  0.2911
 6560SOL    HW226539   8.548   7.155   3.738 -0.2840  0.1680  1.7780
 6561SOL     OW26540  11.148   1.340   9.171 -0.7224  0.2744 -0.5673
 6561SOL    HW126541  11.157   1.435   9.162  2.0812  0.0168 -1.0786
 6561SOL    HW226542  11.106   1.312   9.090 -0.5775  0.9620 -0.8894
 6562SOL     OW26543   1.217   5.401   2.314  0.1675 -0.2005 -0.0325
 6562SOL    HW126544   1.195   5.478   2.366  0.6955 -0.3410  0.4043
 6562SOL    HW226545   1.139   5.386   2.260 -0.0927  0.3974  0.1671
 6563SOL     OW26546   7.652   1.923   9.825 -0.2458 -0.8778  0.2497
 6563SOL    HW126547   7.647   1.875   9.907  0.9128 -1.2447  0.1258
 6563SOL    HW226548   7.698   2.004   9.847 -0.2747 -0.7986  0.0321
 6564SOL     OW26549  10.102   5.663   9.388 -0.1250  0.6141  0.3966
 6564SOL    HW126550  10.080   5.592   9.448 -0.9485  0.0585 -0.5255
 6564SOL    HW226551  10.194   5.683   9.407 -0.7562  1.5216  2.8755
 6565SOL     OW26552   4.574  11.643   3.715 -0.4177 -0.1546  0.4135
 6565SOL    HW126553   4.588  11.665   3.623  0.2067  0.5829  0.6756
 6565SOL    HW226554   4.559  11.727   3.759 -1.5771 -0.5724  0.8561
 6566SOL     OW26555   6.045   1.136   0.902 -0.2080 -0.8938 -0.3342
 6566SOL    HW126556   6.123   1.115   0.954 -0.8576  0.4009  1.2804
 6566SOL    HW226557   5.996   1.054   0.899  0.8923 -1.5497 -0.7963
 6567SOL     OW26558   4.745   9.316   4.398 -0.1846 -0.1290 -0.1038
 6567SOL    HW126559   4.822   9.266   4.424 -0.5031  0.5015  2.2903
 6567SOL    HW226560   4.703   9.339   4.481 -2.8233 -0.2365 -1.3167
 6568SOL     OW26561   1.529   7.287   3.595  0.4120  0.3930 -0.3381
 6568SOL    HW126562   1.585   7.359   3.622  0.5990 -0.5034  1.8730
 6568SOL    HW226563   1.442   7.310   3.629  0.5128 -0.4639  0.5562
 6569SOL     OW26564  12.138   3.176   3.847  0.1379 -0.0483 -0.3821
 6569SOL    HW126565  12.189   3.141   3.920 -1.4093 -0.9763  0.3246
 6569SOL    HW226566  12.109   3.262   3.878  2.9467  1.4656 -1.6416
 6570SOL     OW26567  10.062   0.211   9.519 -0.0966  0.1072 -0.3656
 6570SOL    HW126568  10.041   0.135   9.466  0.4557  0.1015 -0.5899
 6570SOL    HW226569   9.983   0.264   9.518 -0.4241 -0.3768 -0.3546
 6571SOL     OW26570   2.499   5.867  10.613 -0.2202  0.0887 -0.1063
 6571SOL    HW126571   2.521   5.860  10.707 -1.8601  0.9504  0.3641
 6571SOL    HW226572   2.465   5.781  10.591  0.9995 -0.4034 -0.1613
 6572SOL     OW26573   8.883  11.193   1.033 -0.0326 -0.4113  0.3001
 6572SOL    HW126574   8.843  11.161   0.952 -1.8239  1.1240  0.4902
 6572SOL    HW226575   8.856  11.285   1.038 -0.9604 -0.7336  3.1726
 6573SOL     OW26576   8.493   7.301   8.437 -0.1375 -0.6427  0.1746
 6573SOL    HW126577   8.578   7.265   8.461  1.2133  0.2673 -2.7233
 6573SOL    HW226578   8.473   7.364   8.506  1.6184 -0.7859  0.8543
 6574SOL     OW26579   6.975  10.932   8.201 -0.0631 -0.0969 -0.1698
 6574SOL    HW126580   6.983  10.845   8.240 -2.3202 -0.1546  0.3120
 6574SOL    HW226581   7.059  10.946   8.158  0.0554 -2.9271 -1.1000
 6575SOL     OW26582   4.390   1.592   5.241  0.3565  0.1461 -0.2014
 6575SOL    HW126583   4.482   1.617   5.249  0.2084  0.7415 -0.3271
 6575SOL    HW226584   4.388   1.531   5.167  0.2059  2.5644 -2.2980
 6576SOL     OW26585   3.566   0.498   3.141  0.0770 -0.3238 -0.0319
 6576SOL    HW126586   3.509   0.423   3.123 -0.1788 -0.6843  1.9994
 6576SOL    HW226587   3.634   0.493   3.074  0.5969 -2.9753  0.5424
 6577SOL     OW26588   9.341   9.797  10.345  0.4557  0.2415  0.4163
 6577SOL    HW126589   9.390   9.852  10.407  0.7506 -0.9200  1.2317
 6577SOL    HW226590   9.381   9.711  10.352  0.1136 -0.0662 -0.9851
 6578SOL     OW26591  11.563   5.326  11.024 -0.1913 -0.8783 -0.3595
 6578SOL    HW126592  11.606   5.360  11.102  0.0567 -1.4353 -0.2530
 6578SOL    HW226593  11.472   5.354  11.033 -0.1816 -1.0075  0.1749
 6579SOL     OW26594   4.793   3.832   7.776 -0.6035  0.6566  0.0014
 6579SOL    HW126595   4.808   3.841   7.682  0.0133  0.7099  0.1003
 6579SOL    HW226596   4.880   3.832   7.814 -0.8157 -0.3117  0.4989
 6580SOL     OW26597   2.074  10.164   4.660  0.1609 -0.3022  0.4703
 6580SOL    HW126598   1.979  10.175   4.660  0.2117  0.4158  2.0428
 6580SOL    HW226599   2.107  10.239   4.710  1.6075 -0.2373 -0.5093
 6581SOL     OW26600   9.949  10.160   8.509  0.0816  0.2123 -0.0765
 6581SOL    HW126601   9.937  10.107   8.588  1.6297  0.5267  0.4019
 6581SOL    HW226602   9.883  10.127   8.448 -0.4911 -0.7057  1.0018
 6582SOL     OW26603   5.407  12.478   2.848 -0.2412 -0.2753  0.2673
 6582SOL    HW126604   5.324  12.525   2.840 -1.3090 -2.2166 -0.8198
 6582SOL    HW226605   5.396  12.423   2.925  0.3352 -0.0247  0.5363
 6583SOL     OW26606   5.182   8.774   2.026  0.0224  0.2215 -0.2535
 6583SOL    HW126607   5.215   8.690   1.995  1.7644  0.2320  1.3661
 6583SOL    HW226608   5.207   8.777   2.119 -0.8751  2.0994 -0.0200
 6584SOL     OW26609   8.855   7.434   7.641  0.1568  0.5130  0.1331
 6584SOL    HW126610   8.928   7.420   7.701  0.8373 -0.8875 -0.9705
 6584SOL    HW226611   8.786   7.375   7.673  1.4625 -2.3431 -1.9193
 6585SOL     OW26612   1.047   6.310   7.573  0.0124  0.4151  0.1758
 6585SOL    HW126613   1.032   6.218   7.550 -0.3452  0.6906 -0.7500
 6585SOL    HW226614   0.977   6.332   7.634 -1.4613  0.7534 -1.5455
 6586SOL     OW26615   4.101   0.748  12.555  0.6352 -0.3726 -0.0325
 6586SOL    HW126616   4.089   0.691  12.631 -1.2206 -0.5958 -0.4452
 6586SOL    HW226617   4.162   0.816  12.585 -0.4958 -0.1267  1.8579
 6587SOL     OW26618   7.452   4.972  12.128  0.2260  0.1529 -1.1129
 6587SOL    HW126619   7.382   5.019  12.174  1.3149  0.6233  0.1242
 6587SOL    HW226620   7.478   4.903  12.189 -2.0163 -2.8460 -3.2693
 6588SOL     OW26621   4.110  12.463  11.457  0.4498  0.1621 -0.1226
 6588SOL    HW126622   4.042  12.426  11.401 -0.9239  1.8931  0.3138
 6588SOL    HW226623   4.192  12.437  11.416 -0.4249 -2.4593 -0.3617
 6589SOL     OW26624   1.032   5.434   1.067 -0.1016 -0.1050 -0.1845
 6589SOL    HW126625   0.944   5.420   1.100 -0.5572 -0.7981 -1.6005
 6589SOL    HW226626   1.058   5.519   1.104 -1.2345 -0.0298  0.4892
 6590SOL     OW26627   1.322   6.897   8.820  0.5763  0.0376  0.2347
 6590SOL    HW126628   1.330   6.819   8.764 -2.2810  0.3611 -0.7602
 6590SOL    HW226629   1.258   6.873   8.886  1.2944  0.8714  1.2680
 6591SOL     OW26630   9.243   6.476  11.833 -0.0013  0.3081  0.3416
 6591SOL    HW126631   9.171   6.508  11.888  0.1733  0.7722  0.3079
 6591SOL    HW226632   9.320   6.524  11.865  0.1249  0.4832 -0.2223
 6592SOL     OW26633  10.336   1.763   3.287 -0.6268 -0.6387 -0.4913
 6592SOL    HW126634  10.420   1.762   3.333 -0.3277  2.2560 -0.8279
 6592SOL    HW226635  10.271   1.752   3.356 -0.0555 -1.0148 -0.0013
 6593SOL     OW26636   6.146   9.948  11.879  0.2339 -0.1781  0.2027
 6593SOL    HW126637   6.052   9.929  11.878 -0.2835  2.2072 -0.1059
 6593SOL    HW226638   6.185   9.868  11.915 -1.7376 -1.7932 -1.0378
 6594SOL     OW26639   7.774   4.558   1.287 -0.0829 -0.7281  0.0354
 6594SOL    HW126640   7.847   4.619   1.276 -0.7807  0.1301  0.0316
 6594SOL    HW226641   7.765   4.515   1.202 -0.5597  0.2996 -0.4573
 6595SOL     OW26642   2.018   1.756   1.224 -0.3168 -0.2167  0.2795
 6595SOL    HW126643   2.096   1.788   1.179 -1.7180  0.5135 -1.7908
 6595SOL    HW226644   2.030   1.784   1.315  1.3916  0.6854 -0.1760
 6596SOL     OW26645   4.076   6.068  12.359 -0.4184 -0.2490  0.0815
 6596SOL    HW126646   3.981   6.069  12.342 -0.6610 -0.2100  1.3275
 6596SOL    HW226647   4.083   6.045  12.452  0.8359 -1.2595 -0.2393
 6597SOL     OW26648   0.985   8.687   4.648 -0.2460 -0.4481 -0.2384
 6597SOL    HW126649   1.027   8.748   4.587 -0.8368 -0.2516 -0.4572
 6597SOL    HW226650   0.891   8.703   4.636 -0.3694 -0.3484  0.7823
 6598SOL     OW26651   2.454   2.923   7.443  0.1713 -0.0780 -0.0352
 6598SOL    HW126652   2.488   2.854   7.387  0.8664  0.1802  0.0578
 6598SOL    HW226653   2.468   3.004   7.393 -3.2018 -0.1776 -1.4140
 6599SOL     OW26654   4.815   4.996  11.601  0.2685  0.4723  0.3548
 6599SOL    HW126655   4.781   4.987  11.691 -0.7497 -3.2014 -0.2592
 6599SOL    HW226656   4.743   5.037  11.553 -0.8922 -1.4242  0.3997
 6600SOL     OW26657  10.248  10.566   9.631 -0.9775  0.1756 -0.0502
 6600SOL    HW126658  10.181  10.631   9.651 -2.1159 -0.2507 -2.1937
 6600SOL    HW226659  10.307  10.610   9.571  0.9064  0.6292  2.0156
 6601SOL     OW26660   7.582   5.347   6.894 -0.1687  0.4155 -0.9160
 6601SOL    HW126661   7.500   5.337   6.941 -0.1269  0.8142 -0.7476
 6601SOL    HW226662   7.590   5.442   6.880  0.3408  0.3974 -0.7813
 6602SOL     OW26663   3.690  10.479   9.659  0.2319  0.2606 -0.1779
 6602SOL    HW126664   3.632  10.410   9.691  1.1718 -0.3846  0.1598
 6602SOL    HW226665   3.659  10.497   9.570 -0.6417  0.1117  0.0895
 6603SOL     OW26666   9.961   8.552   0.622  0.1568  0.3207  1.0468
 6603SOL    HW126667   9.948   8.565   0.716 -0.7138  2.6092  0.6895
 6603SOL    HW226668   9.971   8.641   0.587 -2.0509 -0.2337 -1.3362
 6604SOL     OW26669   7.416   1.221   1.904  0.4667  0.6015 -0.4163
 6604SOL    HW126670   7.434   1.314   1.912 -0.1671  0.6126  1.1147
 6604SOL    HW226671   7.330   1.209   1.945  1.6757 -1.0508  1.8628
 6605SOL     OW26672   4.949   9.166   4.489 -0.0043  0.1461  0.1482
 6605SOL    HW126673   5.043   9.153   4.476 -0.0622 -2.0824  1.4154
 6605SOL    HW226674   4.932   9.130   4.576 -2.0188  0.6458  0.0040
 6606SOL     OW26675   6.609   9.711   0.979 -0.0332 -0.4331  0.7083
 6606SOL    HW126676   6.678   9.719   0.913  0.4125 -0.3603  1.1767
 6606SOL    HW226677   6.562   9.631   0.956  1.3042 -1.4471  1.4084
 6607SOL     OW26678   4.870   8.267  12.470 -0.5193 -0.0745  0.1717
 6607SOL    HW126679   4.865   8.283  12.564 -1.9948 -2.5653  0.6352
 6607SOL    HW226680   4.780   8.244  12.446  0.0502 -0.5680 -1.5996
 6608SOL     OW26681   7.576   3.401   6.161  0.2059  0.5797 -0.1176
 6608SOL    HW126682   7.670   3.408   6.178 -0.0249  1.5444  0.8879
 6608SOL    HW226683   7.540   3.485   6.190 -0.8510  0.5798 -1.3423
 6609SOL     OW26684   7.609   0.646   8.287  0.3269 -0.2682 -0.3165
 6609SOL    HW126685   7.627   0.559   8.253  0.5197 -0.7378  0.9320
 6609SOL    HW226686   7.626   0.705   8.214 -1.2983 -1.3760 -1.6473
 6610SOL     OW26687   6.361   3.714   6.197  0.1131  0.5548  0.1229
 6610SOL    HW126688   6.345   3.757   6.114  2.2545  1.4869  0.1160
 6610SOL    HW226689   6.421   3.643   6.176 -1.3165 -0.8213  0.5377
 6611SOL     OW26690   0.213   0.454   9.277 -0.0638  0.2818  0.5653
 6611SOL    HW126691   0.198   0.534   9.327 -1.2789  0.2402  0.2935
 6611SOL    HW226692   0.167   0.386   9.325 -0.3005  0.0383  0.0103
 6612SOL     OW26693   6.508  10.326  11.756 -0.6815 -0.0717  0.4873
 6612SOL    HW126694   6.543  10.269  11.688 -0.5105  0.1988  0.3476
 6612SOL    HW226695   6.584  10.370  11.793 -0.7493 -0.3969  1.0221
 6613SOL     OW26696  10.597   4.079  11.870  0.3236 -0.5949  0.2832
 6613SOL    HW126697  10.651   4.018  11.820 -2.0129 -2.6934  0.0777
 6613SOL    HW226698  10.563   4.140  11.805  3.1385  1.4923  0.5702
 6614SOL     OW26699   6.495   8.611   6.981  0.0537  0.4085  0.0540
 6614SOL    HW126700   6.420   8.552   6.988  1.0294 -0.7594  1.0519
 6614SOL    HW226701   6.523   8.626   7.071 -0.1480  2.4227 -0.1697
 6615SOL     OW26702  12.186   3.984   2.634  0.1872  0.2106 -0.1537
 6615SOL    HW126703  12.128   3.973   2.710 -0.4551  1.1936 -0.4747
 6615SOL    HW226704  12.175   3.904   2.584  0.4796 -0.3738  0.6937
 6616SOL     OW26705  10.639   2.673   6.963  0.5091  0.4102 -0.1271
 6616SOL    HW126706  10.672   2.604   7.020 -1.4314  0.2371  0.8714
 6616SOL    HW226707  10.627   2.748   7.021 -2.3524 -0.0321 -0.0287
 6617SOL     OW26708   0.094   1.010  11.660  0.1640  0.0186  0.0454
 6617SOL    HW126709   0.078   1.082  11.599 -0.7545  0.1779  0.4564
 6617SOL    HW226710   0.153   0.951  11.613  0.9961  1.0763 -0.2632
 6618SOL     OW26711   7.472   1.457  10.903 -0.3071 -0.2545 -0.3133
 6618SOL    HW126712   7.451   1.505  10.823 -0.9825  1.0827  0.6035
 6618SOL    HW226713   7.539   1.395  10.878 -1.4761 -0.8259 -2.2083
 6619SOL     OW26714   6.122   8.620   8.726  0.3036 -0.7661  0.8429
 6619SOL    HW126715   6.152   8.711   8.722  1.1664 -1.0782 -0.8234
 6619SOL    HW226716   6.181   8.578   8.788  0.8697 -0.5132  0.4856
 6620SOL     OW26717   6.104   9.294  11.685 -0.3981 -0.2789 -1.0264
 6620SOL    HW126718   6.148   9.228  11.738  0.0687  2.3294  2.1324
 6620SOL    HW226719   6.012   9.268  11.685 -0.1382 -1.2324 -0.3530
 6621SOL     OW26720   6.745   0.942  11.825 -0.3135  0.2856  0.5597
 6621SOL    HW126721   6.701   1.012  11.776  0.2639  0.2929  0.0448
 6621SOL    HW226722   6.753   0.870  11.762 -1.1444 -0.3542  1.1629
 6622SOL     OW26723   8.248   6.419   8.887 -0.3367  0.1454 -0.2853
 6622SOL    HW126724   8.283   6.345   8.837 -0.1356 -0.2418  0.4185
 6622SOL    HW226725   8.323   6.475   8.905 -0.0430 -0.6641  1.1876
 6623SOL     OW26726  10.057  12.174   0.222  0.7024  0.1970  0.0391
 6623SOL    HW126727  10.103  12.159   0.140  1.4510  0.3120  0.4355
 6623SOL    HW226728   9.991  12.241   0.200  0.6361 -0.0573 -0.5530
 6624SOL     OW26729   7.171   5.891  12.031  0.3356  0.6176 -0.5823
 6624SOL    HW126730   7.232   5.818  12.033  0.6800  0.9178  0.0389
 6624SOL    HW226731   7.221   5.962  11.990  0.1226  0.6191 -0.8447
 6625SOL     OW26732   1.986  10.307   0.522  0.3989 -0.2487  0.4190
 6625SOL    HW126733   1.951  10.393   0.543  1.0474 -0.0927  0.8884
 6625SOL    HW226734   2.076  10.309   0.555  0.7035 -0.8008 -0.3435
 6626SOL     OW26735  10.751   3.300  12.534  0.1362  0.0778  0.6686
 6626SOL    HW126736  10.823   3.279  12.475 -0.4145  1.3723 -0.5053
 6626SOL    HW226737  10.763   3.240  12.608  3.1006  1.0033  1.0711
 6627SOL     OW26738   2.450   7.250   6.872  0.4829  0.5919 -0.7182
 6627SOL    HW126739   2.503   7.178   6.907  1.0287 -0.4588 -3.4921
 6627SOL    HW226740   2.366   7.209   6.850 -0.2410  1.4689  0.2902
 6628SOL     OW26741  10.423   7.074   9.070 -0.2835 -0.6258  0.8522
 6628SOL    HW126742  10.365   6.999   9.056  0.4932 -1.7094  2.9644
 6628SOL    HW226743  10.507   7.047   9.034 -0.2318 -0.4088  0.8066
 6629SOL     OW26744   7.135  12.237   2.433  0.3798 -0.6852  0.3781
 6629SOL    HW126745   7.059  12.195   2.392  0.0289 -1.3583  1.6579
 6629SOL    HW226746   7.114  12.239   2.526 -0.0597  3.2182  0.3716
 6630SOL     OW26747   1.781   6.172   7.051  0.0159 -0.2126 -0.2068
 6630SOL    HW126748   1.750   6.197   6.964 -0.4065 -0.5990 -0.1731
 6630SOL    HW226749   1.812   6.082   7.041  0.2412 -0.1571 -0.0237
 6631SOL     OW26750   6.514  11.963   0.959  0.1971 -0.1209  0.3216
 6631SOL    HW126751   6.607  11.977   0.942  0.4155 -0.0064  1.5056
 6631SOL    HW226752   6.490  11.889   0.904  0.0436  2.1447 -2.8931
 6632SOL     OW26753   7.472   7.238   7.871 -0.7681  0.0984 -0.3778
 6632SOL    HW126754   7.481   7.315   7.926 -2.5073 -0.0095  0.1361
 6632SOL    HW226755   7.453   7.167   7.932 -0.3111 -0.5129 -0.9359
 6633SOL     OW26756   7.598   9.760  11.327 -0.2483  0.5537 -0.0702
 6633SOL    HW126757   7.524   9.779  11.384 -2.0801 -1.2064 -1.7185
 6633SOL    HW226758   7.579   9.807  11.246 -0.9099 -1.8156 -1.3878
 6634SOL     OW26759  12.546   6.640   1.481  0.5114 -0.0964 -0.2010
 6634SOL    HW126760  12.579   6.711   1.535  1.9050 -0.7089 -0.1942
 6634SOL    HW226761  12.475   6.679   1.430 -1.6098  0.2804  2.7428
 6635SOL     OW26762   4.763   1.334   6.535  0.2087  0.0924 -0.0634
 6635SOL    HW126763   4.716   1.401   6.485  1.1019  0.1116 -0.8928
 6635SOL    HW226764   4.733   1.251   6.498 -1.3112 -0.0283  1.3255
 6636SOL     OW26765  11.821  11.696  10.784 -0.6130  0.1207  0.0369
 6636SOL    HW126766  11.732  11.720  10.758 -0.8614 -1.5025 -0.6956
 6636SOL    HW226767  11.863  11.667  10.703 -0.9798 -3.7576  1.0526
 6637SOL     OW26768   7.023   4.679   4.007 -0.0264 -0.5760  0.1642
 6637SOL    HW126769   7.048   4.588   3.993 -0.0480 -0.6076  0.3381
 6637SOL    HW226770   7.052   4.700   4.095 -0.4577 -0.5626  0.3076
 6638SOL     OW26771   0.163   3.424   1.829 -0.8001  0.3204  0.0758
 6638SOL    HW126772   0.147   3.482   1.754 -0.7304  0.6068  0.2817
 6638SOL    HW226773   0.162   3.482   1.905 -1.0786 -0.0007  0.3195
 6639SOL     OW26774   3.584   9.986  11.887 -0.0581 -0.7048  0.6831
 6639SOL    HW126775   3.605  10.069  11.930 -0.2877  1.2042 -2.5706
 6639SOL    HW226776   3.489   9.981  11.889 -0.0149 -1.6087  1.9743
 6640SOL     OW26777  12.015   4.256  11.241  0.1416 -0.0508 -0.2121
 6640SOL    HW126778  11.976   4.271  11.328 -0.1781 -0.4034 -0.2945
 6640SOL    HW226779  12.094   4.206  11.258  0.6085  0.7228 -0.0375
 6641SOL     OW26780   4.740   3.673   8.996 -0.6851 -0.1022  0.3187
 6641SOL    HW126781   4.788   3.628   8.926 -2.6419 -0.3354 -0.9278
 6641SOL    HW226782   4.728   3.606   9.063 -1.0579 -0.6270 -0.2657
 6642SOL     OW26783   4.209   1.508   2.370 -0.2733 -0.1365 -0.6738
 6642SOL    HW126784   4.296   1.536   2.397 -0.3556 -1.0197  0.6142
 6642SOL    HW226785   4.206   1.524   2.275  0.4212  2.0846 -0.3549
 6643SOL     OW26786   7.800   9.647   8.439 -0.2326  0.7618 -0.0663
 6643SOL    HW126787   7.882   9.597   8.445  0.4602  1.7068 -1.2959
 6643SOL    HW226788   7.756   9.613   8.362 -2.3586 -1.6015  2.0237
 6644SOL     OW26789   3.588   7.942   2.782 -0.5149  0.0563 -0.6645
 6644SOL    HW126790   3.654   7.878   2.810 -0.7611 -0.4409 -1.2012
 6644SOL    HW226791   3.561   7.912   2.695 -1.8395 -0.0656 -0.2311
 6645SOL     OW26792   7.186   3.585   3.964 -0.5962  0.0345  0.6275
 6645SOL    HW126793   7.177   3.491   3.950 -0.5987 -0.2493  2.2628
 6645SOL    HW226794   7.274   3.596   4.000 -0.6869  0.6111  0.6862
 6646SOL     OW26795   6.177  11.764   3.467  0.0001 -0.4046 -0.3596
 6646SOL    HW126796   6.202  11.788   3.556  1.0785 -0.4578 -0.6369
 6646SOL    HW226797   6.132  11.842   3.434  0.0812 -0.1793  0.0471
 6647SOL     OW26798   6.420   4.405  12.575 -0.0034  0.2057  0.4522
 6647SOL    HW126799   6.333   4.364  12.575  0.2499 -0.5886 -2.5105
 6647SOL    HW226800   6.474   4.347  12.628 -0.4144 -1.6248 -1.0204
 6648SOL     OW26801  10.785  11.034   0.462 -0.0044 -0.5287  0.2407
 6648SOL    HW126802  10.702  11.071   0.492 -1.4642 -2.1249 -1.5457
 6648SOL    HW226803  10.850  11.069   0.522 -1.4734  3.3012 -0.1255
 6649SOL     OW26804  11.773   5.552   9.201  0.3651  0.0123  0.0431
 6649SOL    HW126805  11.719   5.525   9.127  0.0082 -0.3928  0.4448
 6649SOL    HW226806  11.853   5.587   9.161 -0.9369  2.4453 -0.6527
 6650SOL     OW26807   3.134  11.548   2.053 -0.0447 -0.0075 -0.1458
 6650SOL    HW126808   3.060  11.595   2.013 -0.4490 -1.2212 -0.8867
 6650SOL    HW226809   3.172  11.498   1.981  1.2161  0.2282  0.3342
 6651SOL     OW26810   5.576  11.220   2.906 -0.7317  0.0378  0.0656
 6651SOL    HW126811   5.646  11.176   2.857 -0.1326  1.6993 -0.6474
 6651SOL    HW226812   5.610  11.308   2.922 -2.0382  0.3847  1.1247
 6652SOL     OW26813   3.327   3.371   0.606  0.1052  0.1995 -0.3581
 6652SOL    HW126814   3.399   3.332   0.656  3.5057  2.9210 -2.6828
 6652SOL    HW226815   3.338   3.337   0.517  0.8471  3.2295 -1.5571
 6653SOL     OW26816   2.705   7.101   9.011  0.5941 -0.2312 -0.7258
 6653SOL    HW126817   2.610   7.112   9.023  0.6045 -0.5978 -0.2680
 6653SOL    HW226818   2.740   7.101   9.099  1.1003  0.5064 -0.9251
 6654SOL     OW26819   3.447   9.522  12.489 -0.0731 -0.0313  0.2458
 6654SOL    HW126820   3.373   9.462  12.480 -1.1256  1.3195 -0.4993
 6654SOL    HW226821   3.407   9.607  12.508  1.1517  1.1307 -2.0174
 6655SOL     OW26822   7.675  11.158   8.386 -0.5432 -0.0262  0.0420
 6655SOL    HW126823   7.754  11.104   8.387 -1.0426 -0.7888 -0.5294
 6655SOL    HW226824   7.665  11.183   8.294  0.3414  2.0575  0.4649
 6656SOL     OW26825   3.543   8.662   3.958 -0.0891  0.2520 -0.0458
 6656SOL    HW126826   3.572   8.722   4.026  0.5489  1.6679 -1.5249
 6656SOL    HW226827   3.612   8.664   3.892 -1.3720  0.0817 -1.4476
 6657SOL     OW26828   7.798   2.293   5.412  0.1950  0.3362 -0.0446
 6657SOL    HW126829   7.738   2.355   5.453 -0.0279  0.4083 -0.4759
 6657SOL    HW226830   7.774   2.294   5.320  1.5696  1.1898 -0.4173
 6658SOL     OW26831   3.428   2.504   4.482  0.5885 -0.5505 -0.3772
 6658SOL    HW126832   3.512   2.510   4.436  1.6692  0.9824  1.6281
 6658SOL    HW226833   3.378   2.579   4.451  0.6609 -0.4554 -0.2631
 6659SOL     OW26834   0.889   9.517  11.082  0.0688  0.4112  0.0696
 6659SOL    HW126835   0.933   9.436  11.108  0.4617  1.0396  1.4197
 6659SOL    HW226836   0.889   9.514  10.986 -0.1555 -1.3003  0.0906
 6660SOL     OW26837   7.928   8.817   5.278  0.2465  0.5934 -0.0920
 6660SOL    HW126838   7.879   8.851   5.203 -0.8109  1.2970  0.8821
 6660SOL    HW226839   8.008   8.781   5.240 -0.2170  1.0223 -1.5417
 6661SOL     OW26840   5.610  10.948   1.838  0.2194 -0.0422 -0.6402
 6661SOL    HW126841   5.565  11.028   1.866  0.7269 -0.5871  1.9199
 6661SOL    HW226842   5.595  10.945   1.743 -1.7161  1.8854 -0.4816
 6662SOL     OW26843   9.897   9.639  11.874  0.2185 -0.5662 -0.5887
 6662SOL    HW126844   9.933   9.552  11.890  1.7191  0.3544  1.5008
 6662SOL    HW226845   9.958   9.679  11.812  0.6252 -0.3634 -0.0669
 6663SOL     OW26846   9.298   9.369   7.170  0.4105  0.5945 -0.2395
 6663SOL    HW126847   9.288   9.300   7.105  1.4575  1.6530 -1.5785
 6663SOL    HW226848   9.215   9.417   7.168 -0.6281 -1.0459  1.2731
 6664SOL     OW26849   0.143   0.834  10.119  0.5163 -0.2995 -0.3339
 6664SOL    HW126850   0.097   0.832  10.035 -0.2528 -2.7008  0.0702
 6664SOL    HW226851   0.224   0.882  10.101 -0.4628  0.8327 -1.9621
 6665SOL     OW26852   7.252  11.591   3.763 -0.0774 -0.2487  0.6696
 6665SOL    HW126853   7.226  11.674   3.723  0.1697  0.7895  2.5631
 6665SOL    HW226854   7.180  11.531   3.743  0.3015  0.0142 -1.7776
 6666SOL     OW26855   4.450  11.463   8.886  0.1209 -0.2506  0.2246
 6666SOL    HW126856   4.479  11.520   8.815  0.5992 -1.0185 -0.2137
 6666SOL    HW226857   4.461  11.375   8.851 -0.1729 -0.6208  1.0539
 6667SOL     OW26858   5.937   5.364   2.664 -0.4943 -0.1979  0.2757
 6667SOL    HW126859   5.872   5.358   2.734 -1.3014  0.9186 -0.3454
 6667SOL    HW226860   5.991   5.285   2.675 -1.8499 -1.0793  0.9020
 6668SOL     OW26861   7.070   6.681   3.061  0.0752  0.2942  0.7099
 6668SOL    HW126862   7.017   6.757   3.086 -0.9994  0.0821 -0.7380
 6668SOL    HW226863   7.133   6.671   3.131 -1.7017  0.6930  2.4621
 6669SOL     OW26864   5.769   2.282   6.050  0.2702  0.3286 -0.3624
 6669SOL    HW126865   5.742   2.361   6.003  0.1243 -0.8510 -2.3864
 6669SOL    HW226866   5.864   2.283   6.047  0.2678 -0.2798 -1.7686
 6670SOL     OW26867   9.210   9.910   1.763  0.0263  0.4525 -0.0677
 6670SOL    HW126868   9.252   9.943   1.683 -0.0643  2.6021  0.7160
 6670SOL    HW226869   9.120   9.893   1.737  0.0756  0.8290 -0.4862
 6671SOL     OW26870   0.963   7.788   7.776 -0.4859  0.1527 -0.4439
 6671SOL    HW126871   1.058   7.795   7.786 -0.7096 -0.1432  3.0454
 6671SOL    HW226872   0.934   7.741   7.854 -3.2558 -2.6751 -2.9168
 6672SOL     OW26873  11.588   7.030   3.508 -0.1473 -0.4616 -0.0102
 6672SOL    HW126874  11.541   7.071   3.435 -0.2718 -0.4964  0.0511
 6672SOL    HW226875  11.582   7.092   3.579 -0.4271 -0.6294  0.1157
 6673SOL     OW26876   9.143   8.293   0.233  0.1049 -0.2421  0.0898
 6673SOL    HW126877   9.206   8.331   0.294 -1.3156 -0.2662  1.6656
 6673SOL    HW226878   9.194   8.268   0.156  1.5040  2.5420  0.0008
 6674SOL     OW26879   1.139   6.643   7.334  0.0867 -0.5492  0.2175
 6674SOL    HW126880   1.078   6.663   7.406  0.6038 -0.5809  0.6713
 6674SOL    HW226881   1.164   6.728   7.300  3.6727 -0.1116  3.2952
 6675SOL     OW26882   2.312   2.478   3.255  0.5395 -0.1956  0.5243
 6675SOL    HW126883   2.350   2.533   3.324 -0.8979  1.4975  0.0463
 6675SOL    HW226884   2.250   2.422   3.301 -0.7564  1.2494  0.6035
 6676SOL     OW26885   9.009   7.158  10.002 -0.9382  0.0976 -0.6177
 6676SOL    HW126886   9.021   7.080   9.947 -3.5587 -0.3413 -0.6989
 6676SOL    HW226887   9.009   7.231   9.940 -1.9932 -0.2126 -1.0035
 6677SOL     OW26888   6.986   1.730  11.162  0.5298  0.4742  0.0307
 6677SOL    HW126889   7.017   1.782  11.237  1.2459 -0.1592  0.1868
 6677SOL    HW226890   7.067   1.697  11.121  0.1818  1.2244 -1.3321
 6678SOL     OW26891   9.655  11.871  11.492 -0.3690 -0.1545 -0.1229
 6678SOL    HW126892   9.563  11.881  11.517 -0.5640  1.1679 -1.2401
 6678SOL    HW226893   9.690  11.960  11.490  0.9396 -0.6267  0.2234
 6679SOL     OW26894   5.546   5.821  10.759 -0.0348 -0.2006  0.0343
 6679SOL    HW126895   5.569   5.893  10.700  1.0433 -1.0700 -0.6595
 6679SOL    HW226896   5.620   5.760  10.752 -1.0284 -1.5009  0.3975
 6680SOL     OW26897   6.823   8.307   4.717 -0.1828 -0.1961 -0.1547
 6680SOL    HW126898   6.762   8.360   4.768 -0.4416 -1.9729  1.4814
 6680SOL    HW226899   6.909   8.347   4.733 -0.4465  0.1038  0.5593
 6681SOL     OW26900  11.039   6.360   8.988  0.2058 -0.2624  0.5889
 6681SOL    HW126901  11.099   6.286   8.999  0.5015 -0.1154 -0.0569
 6681SOL    HW226902  11.044   6.382   8.895 -0.3107  0.2080  0.6699
 6682SOL     OW26903   1.530  10.793   2.586 -0.2665  0.0986 -0.1611
 6682SOL    HW126904   1.438  10.791   2.558 -0.5021 -0.6879  0.6126
 6682SOL    HW226905   1.528  10.758   2.675  0.9203 -1.0657 -0.5634
 6683SOL     OW26906   5.923   7.348  12.547 -0.2480 -0.0111 -0.4384
 6683SOL    HW126907   5.907   7.322  12.638  0.7361  0.8812  0.0193
 6683SOL    HW226908   6.019   7.347  12.539 -0.3212  0.1132 -1.4094
 6684SOL     OW26909   0.799   3.246   7.744  0.0294 -0.2343 -0.4410
 6684SOL    HW126910   0.839   3.238   7.831  0.6162  0.3278 -0.6491
 6684SOL    HW226911   0.740   3.171   7.738 -0.4827  0.0540  0.6856
 6685SOL     OW26912   5.258   0.374  10.475 -0.3886  0.4765 -0.3254
 6685SOL    HW126913   5.294   0.335  10.555  0.3830  0.3989 -0.7050
 6685SOL    HW226914   5.175   0.328  10.462 -0.6480  0.6657  0.5620
 6686SOL     OW26915   1.096   5.596   7.208 -0.5316 -0.5865 -0.3581
 6686SOL    HW126916   1.002   5.603   7.224 -0.7057  1.3129 -1.8197
 6686SOL    HW226917   1.136   5.645   7.280 -0.8338  0.7345 -1.0589
 6687SOL     OW26918   8.599   2.857   8.680  0.1024  0.7211 -0.5532
 6687SOL    HW126919   8.587   2.915   8.604 -1.0915  0.9615 -0.1971
 6687SOL    HW226920   8.541   2.893   8.747  0.8733  0.2973  0.3668
 6688SOL     OW26921   8.464   4.629  10.748 -0.5653  0.2201  0.2826
 6688SOL    HW126922   8.421   4.592  10.671  1.9722 -1.5138 -0.4202
 6688SOL    HW226923   8.452   4.723  10.740 -1.1688  0.0058 -1.7325
 6689SOL     OW26924  12.320   2.198   7.790 -0.0952  0.1590 -0.3725
 6689SOL    HW126925  12.399   2.185   7.842 -0.6884  0.6947  0.6922
 6689SOL    HW226926  12.254   2.229   7.853 -1.2437 -0.5759 -1.1746
 6690SOL     OW26927   6.717   0.061   0.975 -0.3062 -0.6220  0.3667
 6690SOL    HW126928   6.756   0.090   0.893 -1.0670 -1.2876 -0.2495
 6690SOL    HW226929   6.697   0.142   1.022  0.9301 -0.2562  0.2904
 6691SOL     OW26930   9.969   5.651   7.351  0.4718 -0.3339 -0.3953
 6691SOL    HW126931  10.004   5.570   7.388 -0.2989 -1.2432 -1.5791
 6691SOL    HW226932   9.877   5.650   7.375  0.4754  0.2533 -0.3437
 6692SOL     OW26933   0.119   3.423  12.180  0.1140 -0.0964  0.3880
 6692SOL    HW126934   0.075   3.494  12.133  0.7778 -0.8129 -1.4287
 6692SOL    HW226935   0.107   3.347  12.123  1.9206 -0.7682  0.8559
 6693SOL     OW26936   5.597   3.239   2.615  0.0394  0.1640 -0.1064
 6693SOL    HW126937   5.539   3.304   2.574 -2.1916 -0.6905  1.5173
 6693SOL    HW226938   5.641   3.287   2.685  0.7530  0.6098 -0.8292
 6694SOL     OW26939   4.095   6.013   8.538  0.6624 -0.1603  0.2343
 6694SOL    HW126940   4.065   5.956   8.468  0.0602  0.5674 -0.1093
 6694SOL    HW226941   4.183   5.982   8.558  0.2777 -1.3226  0.1847
 6695SOL     OW26942   6.113   6.571   5.720 -0.4529  0.0258 -0.2283
 6695SOL    HW126943   6.076   6.520   5.792 -0.3010  0.1928 -0.0310
 6695SOL    HW226944   6.047   6.637   5.701  0.0394  0.7850  0.6100
 6696SOL     OW26945   1.097   1.955   0.983 -0.0654 -0.4558 -0.3420
 6696SOL    HW126946   1.061   1.872   0.951 -0.7719 -0.4352  0.3758
 6696SOL    HW226947   1.077   2.018   0.915  0.7720 -0.9288 -1.0490
 6697SOL     OW26948   9.447   0.936  11.784  0.1402  0.6678 -0.4087
 6697SOL    HW126949   9.363   0.980  11.798  0.6031  1.6731 -0.7065
 6697SOL    HW226950   9.431   0.876  11.710 -0.6140 -0.0318  0.2950
 6698SOL     OW26951   6.637   5.832   4.307 -0.1107 -0.1528 -0.6484
 6698SOL    HW126952   6.652   5.738   4.296 -1.3419 -0.4526 -0.0035
 6698SOL    HW226953   6.545   5.838   4.334  0.0497  1.2187 -0.3538
 6699SOL     OW26954   6.906   4.346   0.348  0.2701 -0.3866  0.5179
 6699SOL    HW126955   6.884   4.259   0.380 -1.2733 -0.6163 -1.0060
 6699SOL    HW226956   6.979   4.333   0.287 -2.5344 -1.3728 -2.9552
 6700SOL     OW26957   2.984   5.068   2.600 -0.0522  0.0416 -0.1327
 6700SOL    HW126958   2.894   5.038   2.588  0.5741 -1.2761 -2.1053
 6700SOL    HW226959   3.032   5.029   2.527  2.4347 -0.5058  1.6657
 6701SOL     OW26960   6.751  11.910   2.857 -0.2907 -0.2428 -0.3367
 6701SOL    HW126961   6.826  11.850   2.865 -0.8970 -0.9995 -0.1805
 6701SOL    HW226962   6.681  11.866   2.905 -0.9781  0.2120 -0.9165
 6702SOL     OW26963   4.068   3.790  11.579  0.7889  0.1950 -0.2134
 6702SOL    HW126964   4.145   3.846  11.587  0.4489  1.4314 -3.7558
 6702SOL    HW226965   4.081   3.743  11.496 -1.6546 -0.5573 -0.2670
 6703SOL     OW26966   6.082   3.463   3.395 -0.6607 -0.0062  0.3697
 6703SOL    HW126967   6.011   3.507   3.442 -0.4459  0.4661  0.2522
 6703SOL    HW226968   6.159   3.475   3.450 -0.6784 -0.5616  0.5211
 6704SOL     OW26969   2.379  12.565  12.345  0.3619 -0.5150  0.3710
 6704SOL    HW126970   2.411  12.557  12.255  0.6181 -1.8666  0.5536
 6704SOL    HW226971   2.328  12.645  12.345 -0.5688 -1.0411 -1.2729
 6705SOL     OW26972   1.867   9.153  11.311 -0.2923  0.9092  0.1594
 6705SOL    HW126973   1.930   9.150  11.239 -0.9769 -0.5590 -0.4418
 6705SOL    HW226974   1.920   9.160  11.390  0.7503 -1.2165 -0.2662
 6706SOL     OW26975  11.566   6.818   6.851 -0.2089  0.2588  0.9146
 6706SOL    HW126976  11.590   6.806   6.759 -0.8588 -1.1962  0.9048
 6706SOL    HW226977  11.634   6.874   6.886 -0.1008  1.0741 -0.5210
 6707SOL     OW26978   2.367  11.680   9.014 -0.3488 -0.0359 -0.2602
 6707SOL    HW126979   2.436  11.644   9.071  0.1995 -0.9320 -1.4483
 6707SOL    HW226980   2.415  11.720   8.941 -1.0656  0.2114 -0.6025
 6708SOL     OW26981   2.430  11.365   7.255  0.1896  0.4972  0.5551
 6708SOL    HW126982   2.407  11.358   7.162  2.2420  1.0993 -0.0428
 6708SOL    HW226983   2.403  11.454   7.279 -0.5666  0.2578  0.6203
 6709SOL     OW26984   0.646   6.194   3.230  0.1580 -0.1102  0.3863
 6709SOL    HW126985   0.640   6.120   3.290  2.0699 -0.1341  0.6093
 6709SOL    HW226986   0.558   6.204   3.196 -0.3167 -1.9940  0.9372
 6710SOL     OW26987   9.766   9.049   5.888  0.4929  0.3814 -0.5642
 6710SOL    HW126988   9.822   9.079   5.816 -0.6525 -0.2407 -1.7496
 6710SOL    HW226989   9.708   9.124   5.906  1.5019  0.9396  0.5026
 6711SOL     OW26990   1.730   9.533   6.395 -0.0285  0.1184 -0.0923
 6711SOL    HW126991   1.722   9.448   6.438 -1.3679  0.6282  0.7577
 6711SOL    HW226992   1.797   9.520   6.328  0.4830 -1.3333  0.6488
 6712SOL     OW26993   5.895  11.940  10.114  0.2185  0.1441 -0.1601
 6712SOL    HW126994   5.823  11.940  10.051 -1.2489  0.6556  1.4418
 6712SOL    HW226995   5.935  12.026  10.103  0.3345  0.0194 -0.7732
 6713SOL     OW26996   8.905  11.511   2.594  0.3181 -0.0986  0.5454
 6713SOL    HW126997   8.838  11.456   2.554 -1.2076  2.1700 -0.2045
 6713SOL    HW226998   8.978  11.510   2.532 -0.5837  0.4869 -0.5371
 6714SOL     OW26999   7.121   3.364   6.676 -0.1950 -0.4337  0.4346
 6714SOL    HW127000   7.099   3.271   6.682 -0.7920 -0.3235  0.0158
 6714SOL    HW227001   7.051   3.409   6.723 -1.4815 -0.0171 -1.7346
 6715SOL     OW27002   1.045  10.020   9.793 -0.2563  0.1120  0.0502
 6715SOL    HW127003   1.098  10.054   9.865 -0.4472  1.3270 -0.3547
 6715SOL    HW227004   0.994   9.949   9.831 -0.5996  0.9599  1.1942
 6716SOL     OW27005   7.917   8.162   7.223 -0.1596  1.1362 -0.9287
 6716SOL    HW127006   7.928   8.152   7.129 -0.1239  0.0968 -0.8270
 6716SOL    HW227007   8.002   8.138   7.260 -0.8264 -0.7850 -0.5123
 6717SOL     OW27008   8.107   1.362  10.280 -0.3976  0.3208  0.0994
 6717SOL    HW127009   8.080   1.303  10.351 -0.1778  0.6670  0.4798
 6717SOL    HW227010   8.038   1.428  10.277 -1.4083 -0.7486 -1.3101
 6718SOL     OW27011   2.118   6.242  10.852  0.2099 -0.3251 -0.3824
 6718SOL    HW127012   2.125   6.316  10.913  1.1442  1.4703 -2.4952
 6718SOL    HW227013   2.058   6.181  10.894  0.6243  0.9107  2.1865
 6719SOL     OW27014  12.233   8.835   2.759 -0.0344 -0.1717 -0.6469
 6719SOL    HW127015  12.201   8.764   2.814  0.3771 -0.1775 -0.4093
 6719SOL    HW227016  12.161   8.897   2.754  0.3902  0.5121  1.0556
 6720SOL     OW27017   5.842   7.949   5.222 -0.0280 -0.4044  0.2163
 6720SOL    HW127018   5.793   7.993   5.153  0.9516 -1.0123 -0.8934
 6720SOL    HW227019   5.782   7.881   5.255 -1.9412  2.2261  2.6279
 6721SOL     OW27020   6.410   7.636   9.573  0.3242 -0.1692 -0.3449
 6721SOL    HW127021   6.427   7.542   9.579 -1.2317 -0.4083  1.5821
 6721SOL    HW227022   6.333   7.643   9.516 -0.0400 -0.1559  0.1402
 6722SOL     OW27023   1.921  12.439   0.297  0.2626 -0.4992 -0.0228
 6722SOL    HW127024   1.924  12.480   0.384  0.0444 -1.6322  0.5354
 6722SOL    HW227025   1.842  12.476   0.256  1.7134  1.9820 -0.7707
 6723SOL     OW27026   8.714   2.583   7.255  0.1166 -0.4170 -0.4030
 6723SOL    HW127027   8.794   2.633   7.270  1.1826 -1.5372 -2.0025
 6723SOL    HW227028   8.732   2.498   7.294 -1.0680 -0.0967  0.9045
 6724SOL     OW27029  11.270  10.299  11.192  0.1316 -0.6970 -0.1824
 6724SOL    HW127030  11.289  10.215  11.234  0.2618 -0.6175 -0.0788
 6724SOL    HW227031  11.189  10.329  11.233  0.5365 -0.3671  0.4081
 6725SOL     OW27032  11.860   2.942   0.858 -0.4253 -0.8613  0.4596
 6725SOL    HW127033  11.811   3.002   0.802 -2.2205 -1.0671  1.7378
 6725SOL    HW227034  11.882   2.993   0.936 -1.6254 -1.7032  1.3860
 6726SOL     OW27035   4.936   2.550   7.884 -0.4528 -0.0361 -0.3741
 6726SOL    HW127036   4.927   2.634   7.839 -0.7058 -0.1271 -0.4903
 6726SOL    HW227037   5.025   2.520   7.861  0.1866  0.8717  0.8122
 6727SOL     OW27038   5.851  10.132  11.869 -0.1499  0.2991 -0.3355
 6727SOL    HW127039   5.777  10.122  11.930 -0.1132 -1.6763 -0.5453
 6727SOL    HW227040   5.870  10.042  11.840  0.0873  1.1121 -2.9760
 6728SOL     OW27041   4.545   4.492   5.576 -0.9507 -0.1204 -0.6621
 6728SOL    HW127042   4.574   4.402   5.559 -0.2165 -0.1857  0.8229
 6728SOL    HW227043   4.608   4.526   5.639 -2.2029  0.8747  0.0934
 6729SOL     OW27044   0.895   8.737   8.088  0.5941 -0.5534 -0.3121
 6729SOL    HW127045   0.861   8.793   8.158 -0.1400  0.4311 -1.4218
 6729SOL    HW227046   0.884   8.789   8.008  0.8512 -1.8813 -1.2404
 6730SOL     OW27047   1.895  10.747  10.485  1.0087  0.0331 -0.2631
 6730SOL    HW127048   1.840  10.671  10.468  1.0428 -0.3264  1.0987
 6730SOL    HW227049   1.984  10.715  10.470  1.2151 -0.8842  2.2671
 6731SOL     OW27050   0.295   7.209  10.385 -0.5703  0.3508  0.0152
 6731SOL    HW127051   0.301   7.141  10.453  0.2429 -0.9659 -1.3131
 6731SOL    HW227052   0.201   7.216  10.368 -0.6009 -1.5462 -0.8455
 6732SOL     OW27053   8.920   0.050  10.677 -0.7034  0.1619  0.9251
 6732SOL    HW127054   8.982   0.102  10.626 -0.9743 -0.7711 -0.3923
 6732SOL    HW227055   8.846   0.036  10.619 -0.2038 -2.5606  0.8323
 6733SOL     OW27056   7.156   3.605   6.322  0.3585  0.3293 -0.0388
 6733SOL    HW127057   7.169   3.675   6.259  2.4411  0.9930  1.0315
 6733SOL    HW227058   7.072   3.625   6.364  0.1562  1.2653 -0.8595
 6734SOL     OW27059   3.389   4.329   2.998  0.2659 -0.1508  0.1575
 6734SOL    HW127060   3.373   4.305   3.089  2.3029 -3.2563 -0.1431
 6734SOL    HW227061   3.350   4.257   2.947 -2.1718  2.2150 -1.6496
 6735SOL     OW27062   9.829  10.215  11.194  0.2974 -0.2197  0.9879
 6735SOL    HW127063   9.767  10.207  11.122  0.5052 -1.4265  0.9312
 6735SOL    HW227064   9.841  10.126  11.227  1.5801  0.0578  1.3545
 6736SOL     OW27065   1.180   0.242  11.547  0.1599 -0.2735  0.0695
 6736SOL    HW127066   1.206   0.248  11.455  1.7283 -2.4954  0.2900
 6736SOL    HW227067   1.227   0.166  11.580 -4.8951 -3.3759  1.2005
 6737SOL     OW27068   7.619   5.622   2.360 -0.1060  0.0738  0.3783
 6737SOL    HW127069   7.632   5.561   2.287 -1.2790 -1.4245  1.3657
 6737SOL    HW227070   7.699   5.615   2.412  0.3625  0.4782 -0.2791
 6738SOL     OW27071   6.231   9.519   3.283  0.2475 -0.3002 -0.1727
 6738SOL    HW127072   6.222   9.574   3.205  0.7237  0.8350  0.5506
 6738SOL    HW227073   6.212   9.431   3.252 -2.8498  0.5057 -0.8967
 6739SOL     OW27074   7.943   9.442   3.627  0.0661 -0.1957  0.0959
 6739SOL    HW127075   7.904   9.377   3.685  1.2537 -1.8483 -0.8561
 6739SOL    HW227076   8.037   9.422   3.628  0.3801  1.0789 -0.7510
 6740SOL     OW27077   7.793   7.664   2.006 -0.0727 -0.4736 -0.5503
 6740SOL    HW127078   7.888   7.659   1.996  0.1227  0.2859  0.6492
 6740SOL    HW227079   7.775   7.757   2.018 -1.1318 -0.4632 -2.0260
 6741SOL     OW27080   8.519   6.047   7.270  0.2630 -0.0037 -0.9128
 6741SOL    HW127081   8.432   6.031   7.234  0.2624 -1.3231 -0.3875
 6741SOL    HW227082   8.554   6.119   7.217 -1.5630  1.3406 -0.3887
 6742SOL     OW27083  10.385   1.495   1.138 -0.3461  0.2322  0.0946
 6742SOL    HW127084  10.359   1.404   1.156 -2.9627  0.4539 -1.9831
 6742SOL    HW227085  10.412   1.494   1.047 -0.0971  1.4882  0.1478
 6743SOL     OW27086   1.131   8.175   9.736  0.2885 -0.3404  0.0152
 6743SOL    HW127087   1.212   8.173   9.787  0.3734 -0.3655 -0.1191
 6743SOL    HW227088   1.072   8.117   9.783  0.2801 -0.1625  0.2281
 6744SOL     OW27089   7.780   1.788   3.884 -0.0827 -0.1883 -0.3201
 6744SOL    HW127090   7.854   1.789   3.823 -0.2381 -0.8476 -0.5316
 6744SOL    HW227091   7.816   1.748   3.964 -0.3596 -1.1202 -0.6427
 6745SOL     OW27092   4.338   7.257  12.535 -0.1265 -0.5062 -0.3471
 6745SOL    HW127093   4.254   7.229  12.569  0.2995 -1.2170  0.1579
 6745SOL    HW227094   4.349   7.209  12.453  0.5434 -1.7709  0.4512
 6746SOL     OW27095   6.282   4.100   0.152  0.6591  0.1372 -0.0825
 6746SOL    HW127096   6.193   4.133   0.166 -0.0442 -1.2813 -0.9837
 6746SOL    HW227097   6.276   4.048   0.072  1.3827 -3.1234  1.7921
 6747SOL     OW27098   0.226   2.680   2.390  0.3049 -0.5022 -0.2929
 6747SOL    HW127099   0.254   2.765   2.424  0.2216 -0.5229 -0.1702
 6747SOL    HW227100   0.223   2.692   2.295 -3.0685  0.7148 -0.1766
 6748SOL     OW27101   1.892  12.511   8.582  0.5542 -0.1429  0.4090
 6748SOL    HW127102   1.933  12.583   8.630 -0.7552  0.6648  0.3474
 6748SOL    HW227103   1.851  12.552   8.506  0.7128 -1.1166 -0.2340
 6749SOL     OW27104  10.196  12.467   1.213  0.3821  0.2152 -0.2492
 6749SOL    HW127105  10.234  12.393   1.166  2.0745  0.4543  0.6597
 6749SOL    HW227106  10.125  12.428   1.265  2.0579 -1.0565  1.2015
 6750SOL     OW27107   5.085   0.243  10.321  0.6967 -0.1684  0.8440
 6750SOL    HW127108   5.178   0.258  10.304  0.3137  1.1718 -0.2807
 6750SOL    HW227109   5.043   0.254  10.235 -0.4204 -1.5024  1.1909
 6751SOL     OW27110   2.921   5.836  12.478  0.1604  0.6201 -0.1541
 6751SOL    HW127111   2.931   5.763  12.416  1.6290  0.4037  0.2846
 6751SOL    HW227112   2.886   5.795  12.557  0.1183  0.5492 -0.2093
 6752SOL     OW27113   7.480   4.788   5.901  0.2146  0.5053 -0.6735
 6752SOL    HW127114   7.468   4.697   5.873  0.3184  0.5547 -0.8744
 6752SOL    HW227115   7.573   4.805   5.891  0.2245  0.5806 -0.4686
 6753SOL     OW27116   2.912   5.531  10.743 -0.9615  0.6413  0.4164
 6753SOL    HW127117   2.993   5.578  10.724 -0.5169 -0.5433 -0.7368
 6753SOL    HW227118   2.933   5.439  10.730 -2.3115  0.2455  0.7983
 6754SOL     OW27119   0.806   7.571  10.699 -0.2944 -0.1793 -0.0539
 6754SOL    HW127120   0.729   7.626  10.686  0.7035  1.2255 -0.1393
 6754SOL    HW227121   0.847   7.566  10.613 -0.3238 -1.0173 -0.0338
 6755SOL     OW27122   4.352  11.717  12.341  0.5384 -0.2168 -0.2066
 6755SOL    HW127123   4.327  11.656  12.272  2.5606 -1.0229 -0.2980
 6755SOL    HW227124   4.314  11.801  12.315  0.2461 -0.7845 -1.6631
 6756SOL     OW27125   9.849  12.424   1.597 -0.3532 -0.4505  0.6493
 6756SOL    HW127126   9.816  12.384   1.516  0.4945  0.2316 -0.0717
 6756SOL    HW227127   9.850  12.518   1.578  2.8006 -0.4343  0.1960
 6757SOL     OW27128   1.439   9.943  11.965 -0.0099 -0.2457  0.6518
 6757SOL    HW127129   1.508   9.893  12.010  0.3135 -3.2089 -2.6991
 6757SOL    HW227130   1.485  10.017  11.925  0.5270 -0.2398  1.2560
 6758SOL     OW27131   4.963   9.835  10.093 -0.3549 -0.4836 -0.2648
 6758SOL    HW127132   4.915   9.851  10.174  0.4907  0.3545  0.0842
 6758SOL    HW227133   4.907   9.872  10.024  0.0957  1.1514  0.2136
 6759SOL     OW27134  11.938   3.825   6.119 -0.6491  0.3535  0.1555
 6759SOL    HW127135  11.892   3.870   6.048 -0.5118 -0.5128 -0.4913
 6759SOL    HW227136  11.953   3.737   6.087  1.1624  0.4911  0.4764
 6760SOL     OW27137   2.584   2.252   5.534  0.4126  0.0831  0.0065
 6760SOL    HW127138   2.548   2.285   5.616  0.1482  1.4027 -0.6065
 6760SOL    HW227139   2.646   2.184   5.560  0.0029  0.1630  1.2582
 6761SOL     OW27140  10.884   7.853   1.509  0.0439 -1.0535  0.5950
 6761SOL    HW127141  10.930   7.811   1.582  0.8738  1.9943  1.9712
 6761SOL    HW227142  10.800   7.881   1.546  0.6873  0.9907  0.6018
 6762SOL     OW27143   2.522   2.775  12.431 -0.2263  0.5664  0.1998
 6762SOL    HW127144   2.547   2.801  12.520  0.1301  0.0361  0.2579
 6762SOL    HW227145   2.564   2.839  12.374  0.1209  0.4967  0.3759
 6763SOL     OW27146   4.596   3.074  11.496 -0.6068  0.0566  0.1197
 6763SOL    HW127147   4.673   3.045  11.545  0.0360 -2.4318 -2.1385
 6763SOL    HW227148   4.618   3.162  11.467  1.1074 -0.3417  0.1074
 6764SOL     OW27149   3.720   1.801   4.905 -0.2525 -0.2487 -0.2559
 6764SOL    HW127150   3.728   1.729   4.843  2.0314 -0.0332 -0.3039
 6764SOL    HW227151   3.783   1.867   4.874  0.5513  0.1049  1.9193
 6765SOL     OW27152   5.653   4.710  10.115 -0.1092  0.3778 -0.6515
 6765SOL    HW127153   5.584   4.651  10.143 -1.8352  2.1410 -0.9858
 6765SOL    HW227154   5.712   4.716  10.191 -0.7101 -0.5706 -0.0959
 6766SOL     OW27155   2.666   1.599  12.506 -0.3057 -0.4923  0.2749
 6766SOL    HW127156   2.742   1.632  12.555 -0.9427  1.2569  0.1487
 6766SOL    HW227157   2.601   1.669  12.513 -0.7302 -0.5247 -2.3541
 6767SOL     OW27158   5.979   5.613   5.234  0.2162  0.4035  0.5755
 6767SOL    HW127159   5.997   5.700   5.270 -5.3069  1.9942  0.5054
 6767SOL    HW227160   5.990   5.624   5.139  1.2510  0.4322  0.6886
 6768SOL     OW27161   6.119   2.024   4.423 -0.1975 -0.0843 -0.0162
 6768SOL    HW127162   6.074   2.021   4.339  0.4375 -0.7396 -0.3431
 6768SOL    HW227163   6.097   2.110   4.459 -0.8853 -0.0027 -0.6179
 6769SOL     OW27164   6.240   9.982   2.027 -0.3106  0.3011 -0.4895
 6769SOL    HW127165   6.219   9.987   1.933 -1.5793  2.0384 -0.1705
 6769SOL    HW227166   6.169   9.930   2.065 -0.8817  1.2487 -0.2343
 6770SOL     OW27167  10.142   2.622  10.286  0.4646  0.2582  0.1259
 6770SOL    HW127168  10.103   2.689  10.229  0.1625 -0.5206 -0.6048
 6770SOL    HW227169  10.133   2.657  10.374 -0.4232  0.8212 -0.1775
 6771SOL     OW27170   0.134   5.558   6.903  0.1063  0.0389  0.5320
 6771SOL    HW127171   0.088   5.639   6.925  2.0664  0.8975  1.7544
 6771SOL    HW227172   0.181   5.578   6.822  1.6457  0.6393  1.5241
 6772SOL     OW27173   3.512   8.661   8.579  0.0943  0.3083  0.1500
 6772SOL    HW127174   3.558   8.681   8.498  0.8506 -2.2557 -0.1545
 6772SOL    HW227175   3.524   8.738   8.634  0.4190  1.7005 -1.7840
 6773SOL     OW27176   5.665   5.268   3.724  0.5276  0.1456 -0.1510
 6773SOL    HW127177   5.621   5.190   3.691 -1.4991  0.7455  0.9836
 6773SOL    HW227178   5.757   5.257   3.697  0.5052 -2.9850  0.6222
 6774SOL     OW27179  12.253   7.720  11.880  0.0862 -0.2962  0.0518
 6774SOL    HW127180  12.340   7.684  11.865 -0.0197  0.2183 -2.1174
 6774SOL    HW227181  12.195   7.667  11.824 -0.1402  2.7488 -2.8972
 6775SOL     OW27182   8.316   1.890  12.447  0.2971 -0.4060  0.0022
 6775SOL    HW127183   8.349   1.924  12.530 -0.4167  0.8787 -0.2193
 6775SOL    HW227184   8.247   1.951  12.422 -0.0655 -1.2508 -1.1269
 6776SOL     OW27185   2.018   6.424   1.809  0.2342  0.0292 -0.2904
 6776SOL    HW127186   1.928   6.392   1.799 -0.3494  1.4093  0.2645
 6776SOL    HW227187   2.016   6.512   1.772  1.7865 -0.4943 -1.7548
 6777SOL     OW27188   9.151   9.360  11.205  0.0832 -0.2940 -0.7318
 6777SOL    HW127189   9.157   9.271  11.172  0.0816  0.2779 -2.3993
 6777SOL    HW227190   9.234   9.401  11.180 -0.8015  0.7928 -2.0921
 6778SOL     OW27191   1.011   8.422   6.043  0.2590 -0.3577 -0.1324
 6778SOL    HW127192   0.990   8.508   6.081  2.0730 -1.3031  3.3808
 6778SOL    HW227193   0.933   8.369   6.060  1.0397 -0.7756  2.6336
 6779SOL     OW27194   2.345   4.876   0.376 -0.0617 -0.6712  0.2540
 6779SOL    HW127195   2.350   4.822   0.455 -0.2028 -0.9315  0.0850
 6779SOL    HW227196   2.293   4.952   0.402 -1.6130 -1.5788 -0.0458
 6780SOL     OW27197  11.889  11.093   3.346 -0.1777  0.2766 -0.2324
 6780SOL    HW127198  11.878  11.176   3.300  0.3264  0.5209  0.0874
 6780SOL    HW227199  11.817  11.090   3.408  0.8306  1.3300  1.0348
 6781SOL     OW27200   5.313  10.265   9.836 -0.8256 -0.0624 -0.2761
 6781SOL    HW127201   5.277  10.177   9.836  2.9978 -1.8430 -0.4734
 6781SOL    HW227202   5.286  10.303   9.920 -1.1392 -2.0758  0.5752
 6782SOL     OW27203   3.912   7.965   4.401 -0.0161 -0.3516 -0.5108
 6782SOL    HW127204   3.878   7.884   4.364 -0.2726 -0.0433 -0.9643
 6782SOL    HW227205   3.837   8.024   4.404 -0.2471 -0.6890  1.4726
 6783SOL     OW27206   5.810  10.127   1.048 -0.0159 -0.2190  0.2355
 6783SOL    HW127207   5.723  10.123   1.086  0.5177  1.0214  1.6952
 6783SOL    HW227208   5.796  10.119   0.953 -1.7321  0.3694  0.4178
 6784SOL     OW27209   3.949  12.427   2.583 -0.0277  0.0987 -0.4561
 6784SOL    HW127210   3.878  12.482   2.615  0.4905  1.1002 -0.9737
 6784SOL    HW227211   4.029  12.465   2.620  0.2150 -1.3280  0.5523
 6785SOL     OW27212  11.158   3.148   7.493  0.4570  0.1600 -0.0373
 6785SOL    HW127213  11.151   3.062   7.535  0.3817 -0.7352 -1.7783
 6785SOL    HW227214  11.241   3.143   7.444 -0.3273  0.4626 -1.4372
 6786SOL     OW27215   6.773   5.925   3.069  0.1501 -0.6845  0.2298
 6786SOL    HW127216   6.816   5.911   3.153  0.1795  0.2712  0.3892
 6786SOL    HW227217   6.758   6.020   3.066 -1.5450 -0.9329 -0.0207
 6787SOL     OW27218   8.231  12.121   4.796 -0.3435  0.5057 -0.3312
 6787SOL    HW127219   8.182  12.202   4.781  1.4461  1.4610 -1.2400
 6787SOL    HW227220   8.282  12.108   4.717  2.3800  0.6634  1.2538
 6788SOL     OW27221   8.316   6.283   9.275 -0.0829 -0.6487  0.1154
 6788SOL    HW127222   8.221   6.274   9.264 -0.1613 -1.6507  1.4147
 6788SOL    HW227223   8.350   6.194   9.266  0.4848 -0.6275  1.7679
 6789SOL     OW27224  12.348   8.984   4.167  0.6294  0.0705  0.0447
 6789SOL    HW127225  12.319   9.014   4.252 -1.3415  2.4616 -1.3382
 6789SOL    HW227226  12.433   9.027   4.153  0.1377  1.1070  0.1332
 6790SOL     OW27227   4.216   1.878   0.323 -0.2513 -0.6607 -0.0748
 6790SOL    HW127228   4.297   1.896   0.371 -1.3163  0.0336  1.5291
 6790SOL    HW227229   4.226   1.927   0.241 -0.2793  1.9465  1.3927
 6791SOL     OW27230   7.242  10.849  12.426  0.3622  0.7679  0.4346
 6791SOL    HW127231   7.156  10.808  12.423 -0.7675  3.0100 -0.5142
 6791SOL    HW227232   7.262  10.870  12.335  2.2283 -0.2217  0.5627
 6792SOL     OW27233   6.263   4.790   1.171 -0.2528 -0.1182 -0.3067
 6792SOL    HW127234   6.315   4.774   1.250 -0.4442 -0.5099 -0.2600
 6792SOL    HW227235   6.219   4.707   1.153  0.9446 -0.5021 -1.6799
 6793SOL     OW27236   2.502   8.628   9.258 -0.3941 -0.3206  0.1433
 6793SOL    HW127237   2.477   8.719   9.246 -3.1814 -1.0633 -0.6037
 6793SOL    HW227238   2.521   8.597   9.169 -0.4173 -0.6849  0.2629
 6794SOL     OW27239   7.629   5.029   5.982  0.2791 -0.8353 -0.0600
 6794SOL    HW127240   7.635   5.013   6.076  0.3364 -0.6853 -0.0383
 6794SOL    HW227241   7.535   5.029   5.964  0.1912  0.5582  0.2434
 6795SOL     OW27242   9.795   4.521   9.608 -0.5797 -0.1018 -0.4520
 6795SOL    HW127243   9.877   4.497   9.565 -1.5871 -0.1962 -2.4640
 6795SOL    HW227244   9.795   4.471   9.690  1.0985 -0.5139 -0.6677
 6796SOL     OW27245   8.228   1.001  10.826 -0.3955  0.0248  0.9022
 6796SOL    HW127246   8.213   1.062  10.898 -0.9589 -0.2915  1.0528
 6796SOL    HW227247   8.277   0.928  10.864 -0.2471  0.0942  0.8483
 6797SOL     OW27248   3.148   1.404  11.509 -0.2928  0.0052  0.3489
 6797SOL    HW127249   3.085   1.456  11.459 -0.1185 -0.3330 -0.2231
 6797SOL    HW227250   3.123   1.313  11.492  0.1096 -0.1224  0.4317
 6798SOL     OW27251   5.216   4.320   0.160  0.2516 -0.4081 -0.3757
 6798SOL    HW127252   5.206   4.247   0.100 -0.7898  0.3146 -1.1113
 6798SOL    HW227253   5.133   4.367   0.156  0.6882  0.4883  0.5214
 6799SOL     OW27254   3.313   1.225  12.483 -0.2374 -0.3472  0.2372
 6799SOL    HW127255   3.349   1.186  12.562  1.0987  0.4139  0.0376
 6799SOL    HW227256   3.266   1.154  12.440  0.2760 -1.1453  0.9645
 6800SOL     OW27257  11.951   8.125   8.978  0.3524 -0.4854  0.1760
 6800SOL    HW127258  11.949   8.083   9.064  1.1778 -0.0154  0.4374
 6800SOL    HW227259  12.017   8.194   8.986 -0.7030  0.6208 -0.3571
 6801SOL     OW27260  10.639   6.126   3.313 -0.1903  0.0773 -0.3319
 6801SOL    HW127261  10.594   6.042   3.308 -0.6882  0.1648  1.7188
 6801SOL    HW227262  10.587   6.184   3.257 -2.4969  0.0490  1.5965
 6802SOL     OW27263   9.821   1.337   0.598 -0.4101  0.1472  0.1422
 6802SOL    HW127264   9.839   1.431   0.607  0.5777 -0.1520  1.7247
 6802SOL    HW227265   9.871   1.310   0.521 -0.6482  0.9006 -0.2810
 6803SOL     OW27266   0.880  10.675  12.136 -0.9208 -0.4896 -0.2314
 6803SOL    HW127267   0.967  10.715  12.135 -1.5060  0.8537  0.0629
 6803SOL    HW227268   0.855  10.673  12.228 -1.1550 -1.0065 -0.3007
 6804SOL     OW27269   6.956   4.343   9.820 -0.1369  0.3805  0.6299
 6804SOL    HW127270   6.916   4.402   9.756 -0.5052 -0.0151  0.4953
 6804SOL    HW227271   6.944   4.388   9.904 -0.1169  0.6544  0.4892
 6805SOL     OW27272   4.996  11.158   7.908  0.1219 -0.2152 -1.0038
 6805SOL    HW127273   4.990  11.063   7.897  0.9231 -0.4797  0.4881
 6805SOL    HW227274   5.023  11.191   7.823 -0.8047 -1.2451 -1.7279
 6806SOL     OW27275  11.508   0.557   2.584 -0.1218 -0.6894 -0.3936
 6806SOL    HW127276  11.420   0.519   2.585  0.5429 -2.3407 -1.2936
 6806SOL    HW227277  11.514   0.602   2.500  0.1266 -1.1820 -0.6435
 6807SOL     OW27278   4.545   8.097   3.816 -0.1328 -0.1592  0.5476
 6807SOL    HW127279   4.541   8.192   3.826  2.6084  0.1306 -0.0794
 6807SOL    HW227280   4.598   8.068   3.890  1.3764 -0.7864 -0.7065
 6808SOL     OW27281   8.455   4.553   9.718 -0.1438  0.2488 -0.5489
 6808SOL    HW127282   8.403   4.565   9.797  0.6141 -0.0429  0.0143
 6808SOL    HW227283   8.422   4.472   9.679  0.6877 -0.6255  0.4788
 6809SOL     OW27284  11.225   4.712   4.614  0.1650  0.5652 -0.0610
 6809SOL    HW127285  11.291   4.736   4.549  0.4672  0.4091  0.1848
 6809SOL    HW227286  11.197   4.795   4.653  1.8885  0.4856  1.4549
 6810SOL     OW27287   5.149   8.162   6.138  0.0111  0.0803 -0.3166
 6810SOL    HW127288   5.155   8.253   6.109  0.8701  0.2026  0.2167
 6810SOL    HW227289   5.065   8.157   6.184  0.0361  0.6518 -0.1995
 6811SOL     OW27290  12.306   6.949  12.228  0.4198  0.4367 -0.2094
 6811SOL    HW127291  12.321   6.936  12.135  0.5033  1.2601 -0.3151
 6811SOL    HW227292  12.384   6.915  12.271 -0.0333 -0.8554 -0.3655
 6812SOL     OW27293   9.579   1.280   5.713 -0.2210  0.0234 -0.0415
 6812SOL    HW127294   9.540   1.206   5.666  1.5811 -2.7350  2.4506
 6812SOL    HW227295   9.529   1.287   5.794  0.5125  0.6117  0.3718
 6813SOL     OW27296   1.721  11.371  11.522 -0.2952  0.1617 -0.4161
 6813SOL    HW127297   1.668  11.451  11.529  0.4315  0.5794  0.5091
 6813SOL    HW227298   1.720  11.334  11.610 -1.5690 -1.4976 -1.0891
 6814SOL     OW27299   4.681   4.691   5.732 -0.2572 -0.2329  0.3974
 6814SOL    HW127300   4.662   4.774   5.777 -0.7286 -0.1379  0.0402
 6814SOL    HW227301   4.744   4.647   5.788  0.2359  0.5099  0.4352
 6815SOL     OW27302   9.052   4.087  11.082 -0.3425 -0.7949 -0.4511
 6815SOL    HW127303   9.095   4.033  11.016 -0.0053 -2.0337  0.7486
 6815SOL    HW227304   9.124   4.127  11.131 -0.5861 -0.7233 -0.1497
 6816SOL     OW27305   0.281  10.613  10.229  0.3647 -0.5172  0.0018
 6816SOL    HW127306   0.262  10.522  10.249  2.8360 -0.7334  1.8400
 6816SOL    HW227307   0.273  10.619  10.133 -1.1227 -2.2788 -0.0427
 6817SOL     OW27308   7.448   2.880  10.928  0.0495 -0.2745 -0.3011
 6817SOL    HW127309   7.530   2.886  10.879  1.6807 -0.9557  2.1551
 6817SOL    HW227310   7.475   2.888  11.020 -2.5171 -1.6161  0.6457
 6818SOL     OW27311   7.245   0.530   6.401 -0.1592 -0.0020 -0.1225
 6818SOL    HW127312   7.316   0.593   6.390 -1.2655  1.1134 -1.1575
 6818SOL    HW227313   7.289   0.449   6.427  1.3581  0.9938  0.5370
 6819SOL     OW27314   1.109   7.912   1.938  0.1198 -0.5489 -0.1068
 6819SOL    HW127315   1.059   7.838   1.904 -0.4028  0.0481 -0.6630
 6819SOL    HW227316   1.200   7.892   1.915 -0.0231 -0.9862 -0.3050
 6820SOL     OW27317   3.451   1.309   7.092 -0.2599  0.1687  0.1216
 6820SOL    HW127318   3.377   1.273   7.043  0.2051 -1.7858  0.7323
 6820SOL    HW227319   3.418   1.319   7.181  0.5067 -2.0754  0.7404
 6821SOL     OW27320   1.829  11.239  12.369 -0.1099 -0.2601 -0.0048
 6821SOL    HW127321   1.832  11.186  12.448  0.0364 -0.7571 -0.3358
 6821SOL    HW227322   1.780  11.185  12.306 -1.9670  0.9391  0.3314
 6822SOL     OW27323   6.214   6.202  10.283  0.0848  0.3752  0.2447
 6822SOL    HW127324   6.161   6.173  10.208 -0.0780  0.5757  0.2813
 6822SOL    HW227325   6.210   6.130  10.345  2.2362 -0.8585 -0.9410
 6823SOL     OW27326  11.629   2.731   6.855  0.3860 -0.0090 -0.0263
 6823SOL    HW127327  11.666   2.646   6.830  1.0912 -0.4544  2.2237
 6823SOL    HW227328  11.534   2.715   6.862  0.4091 -0.3616 -0.5279
 6824SOL     OW27329  11.983   6.605   1.700 -0.3178 -0.6940 -0.4329
 6824SOL    HW127330  12.022   6.691   1.682  0.7977 -1.0590  0.1489
 6824SOL    HW227331  12.026   6.576   1.780 -1.7224 -1.1819  0.1710
 6825SOL     OW27332   2.504   1.512   6.715 -0.6907 -0.1775  0.1998
 6825SOL    HW127333   2.432   1.573   6.701 -0.9575 -0.8662 -1.7372
 6825SOL    HW227334   2.583   1.566   6.704 -0.8854  0.3359  1.1802
 6826SOL     OW27335   8.907   0.921   5.850  0.1826 -0.0125  0.3696
 6826SOL    HW127336   8.930   0.857   5.783 -2.7139 -0.0363 -0.7549
 6826SOL    HW227337   8.954   0.892   5.929  2.5004 -0.8417 -1.2119
 6827SOL     OW27338   9.413   6.025   0.735  0.3025 -0.6339  0.0288
 6827SOL    HW127339   9.403   5.931   0.720 -0.2135 -0.4288 -1.0003
 6827SOL    HW227340   9.326   6.054   0.763  0.2174 -0.3221 -0.5317
 6828SOL     OW27341   3.553   9.285   4.305 -0.7124 -0.4235  0.0441
 6828SOL    HW127342   3.607   9.338   4.247  3.0951 -1.7673  2.0104
 6828SOL    HW227343   3.562   9.326   4.391 -1.4313 -1.7093  0.7707
 6829SOL     OW27344   8.396   9.252   6.991 -0.0733 -0.1069 -0.9840
 6829SOL    HW127345   8.352   9.260   7.076  1.2965  3.3468 -0.4291
 6829SOL    HW227346   8.325   9.257   6.927 -0.9038  0.4185 -0.0503
 6830SOL     OW27347   3.044   5.642  11.016  0.5639  0.0742  0.0088
 6830SOL    HW127348   3.044   5.566  11.074 -1.0697 -0.3168 -0.4485
 6830SOL    HW227349   3.084   5.610  10.935  1.8842  0.3285  0.5484
 6831SOL     OW27350   1.815   2.087   0.874  0.5921  0.2770  0.2705
 6831SOL    HW127351   1.903   2.067   0.905  1.1798  1.0739 -0.7945
 6831SOL    HW227352   1.765   2.106   0.953  1.2943 -0.4768  0.9097
 6832SOL     OW27353   4.573   8.329   1.311 -0.4246 -0.3175  0.6553
 6832SOL    HW127354   4.666   8.342   1.295 -0.4569  0.1656  0.8687
 6832SOL    HW227355   4.530   8.402   1.267 -0.8632 -1.6406 -1.2370
 6833SOL     OW27356   8.364   3.717   4.316 -0.9768 -0.4022  0.2691
 6833SOL    HW127357   8.346   3.773   4.392 -1.1334 -0.4737  0.2865
 6833SOL    HW227358   8.451   3.743   4.286 -0.5207 -1.0186  1.0309
 6834SOL     OW27359   0.298   2.772   3.280 -0.3230 -0.2082  0.1904
 6834SOL    HW127360   0.239   2.704   3.311  0.8830 -1.7254 -0.6561
 6834SOL    HW227361   0.243   2.849   3.270 -2.0807 -1.4495 -0.2150
 6835SOL     OW27362   6.897   0.564  10.037  0.3878 -0.6116 -0.1331
 6835SOL    HW127363   6.839   0.592  10.108  0.2857 -1.3497  0.0823
 6835SOL    HW227364   6.888   0.469  10.035  2.7379 -0.9306  0.9246
 6836SOL     OW27365   7.788   8.379   1.256  0.3593  0.4806 -0.1689
 6836SOL    HW127366   7.740   8.320   1.314 -1.1056 -0.6201 -2.3842
 6836SOL    HW227367   7.880   8.360   1.273 -0.0497 -0.5458  1.0211
 6837SOL     OW27368   6.228   4.726   9.800 -0.3313 -0.0384  0.4798
 6837SOL    HW127369   6.205   4.812   9.764 -0.7092 -0.6154 -0.7084
 6837SOL    HW227370   6.147   4.675   9.793  0.5093 -1.2649 -1.2527
 6838SOL     OW27371   3.568   4.464   3.688  0.4938 -0.1823 -0.5216
 6838SOL    HW127372   3.490   4.426   3.728  1.8203 -1.5333  0.9129
 6838SOL    HW227373   3.581   4.547   3.734 -0.6907  0.6199 -1.5600
 6839SOL     OW27374   5.808   4.179  10.782 -0.3336 -0.4557  0.0630
 6839SOL    HW127375   5.712   4.175  10.790 -0.5481  1.9111 -0.3428
 6839SOL    HW227376   5.826   4.144  10.696 -0.7714 -1.3922  0.3382
 6840SOL     OW27377   3.472   9.807  10.491  0.2856  0.6582  0.0449
 6840SOL    HW127378   3.537   9.768  10.550 -0.7633 -0.4831  0.4714
 6840SOL    HW227379   3.456   9.894  10.527  0.0471  0.1686  1.1409
 6841SOL     OW27380   5.095   3.717   7.795 -0.2101  0.2212  0.2461
 6841SOL    HW127381   5.119   3.702   7.887  0.9723  1.4211  0.1718
 6841SOL    HW227382   5.169   3.680   7.745  0.1273  1.3544 -0.1205
 6842SOL     OW27383   2.183  11.337   5.306  0.1703 -0.2532 -0.3318
 6842SOL    HW127384   2.215  11.314   5.218 -0.1997  0.6506 -0.7090
 6842SOL    HW227385   2.241  11.407   5.335 -1.4838  1.5164 -1.0843
 6843SOL     OW27386   1.557   0.877   1.255 -0.6767  0.1212  0.6793
 6843SOL    HW127387   1.620   0.813   1.221  0.5330  1.1975  0.7980
 6843SOL    HW227388   1.567   0.953   1.197 -1.5503  0.4749  0.9786
 6844SOL     OW27389   3.524   6.509   2.403 -0.3510 -0.8460  0.0584
 6844SOL    HW127390   3.437   6.513   2.443 -0.8745 -1.6356 -0.9327
 6844SOL    HW227391   3.511   6.455   2.325  0.7378  0.1966 -0.8768
 6845SOL     OW27392   2.370   5.473   2.407 -0.5981  0.0768  0.0322
 6845SOL    HW127393   2.395   5.555   2.364 -0.3778  0.3093  0.6015
 6845SOL    HW227394   2.275   5.470   2.397 -0.4607 -0.4028 -1.4079
 6846SOL     OW27395   6.376  10.817  10.619 -0.0804 -0.2390 -0.6354
 6846SOL    HW127396   6.449  10.840  10.676 -0.7945  0.7486 -0.0638
 6846SOL    HW227397   6.304  10.797  10.679 -0.4121 -0.7283 -1.1835
 6847SOL     OW27398  10.716  10.458   3.862 -0.1913 -0.7449  0.0746
 6847SOL    HW127399  10.788  10.482   3.804 -1.3577 -0.6012 -1.3637
 6847SOL    HW227400  10.684  10.375   3.828 -0.1437 -1.2845  1.2734
 6848SOL     OW27401   8.517   5.029   9.015  0.0936  0.3047  0.3927
 6848SOL    HW127402   8.428   5.062   9.029 -0.2018  0.2089 -1.1090
 6848SOL    HW227403   8.538   4.982   9.096 -0.0806  2.7506  1.9674
 6849SOL     OW27404   1.778  10.288  11.337 -0.1526  0.2161 -0.0595
 6849SOL    HW127405   1.734  10.346  11.399 -2.7605 -1.1180 -0.5192
 6849SOL    HW227406   1.707  10.244  11.291  1.7111 -1.5055 -1.4799
 6850SOL     OW27407   7.675   9.074   4.743 -0.3013  0.1179 -0.0442
 6850SOL    HW127408   7.663   9.106   4.654  0.0319 -1.4911 -0.7168
 6850SOL    HW227409   7.615   9.126   4.796  0.0477  1.6208 -1.0751
 6851SOL     OW27410   2.456  12.099  10.618 -0.0307 -0.2667  0.1266
 6851SOL    HW127411   2.503  12.075  10.538 -0.3639  0.7769 -0.3987
 6851SOL    HW227412   2.423  12.187  10.600 -0.9987 -0.4423  1.0185
 6852SOL     OW27413   0.272   8.946  12.037  0.1013 -0.6757 -0.3583
 6852SOL    HW127414   0.180   8.967  12.021  0.4295  0.7385 -0.5064
 6852SOL    HW227415   0.270   8.871  12.096 -1.1906  1.1157  2.0596
 6853SOL     OW27416   5.306   8.960   0.917 -0.3931 -0.4667 -0.8071
 6853SOL    HW127417   5.329   8.969   0.825  1.5378 -0.6976 -0.3961
 6853SOL    HW227418   5.333   8.872   0.941 -0.6509 -0.3308  0.0308
 6854SOL     OW27419   1.507   2.722   8.675 -0.3415 -0.3040 -0.1179
 6854SOL    HW127420   1.516   2.802   8.727 -0.7560 -0.5776  0.3801
 6854SOL    HW227421   1.427   2.735   8.625  1.1724  0.9190 -2.4232
 6855SOL     OW27422   5.361  12.528   7.959 -0.1559  0.2590  0.3986
 6855SOL    HW127423   5.279  12.570   7.987 -0.8610 -0.4718 -0.4975
 6855SOL    HW227424   5.359  12.533   7.864  1.0342  0.5592  0.3838
 6856SOL     OW27425  10.671   8.131   0.160 -0.2805  0.2129 -0.4718
 6856SOL    HW127426  10.596   8.096   0.208  0.0020 -1.7679 -1.3856
 6856SOL    HW227427  10.743   8.132   0.223 -0.5933  0.2921 -0.1165
 6857SOL     OW27428   2.257   3.004   8.767 -0.5276  0.5439 -0.2981
 6857SOL    HW127429   2.256   3.001   8.862 -1.0741 -0.3919 -0.3168
 6857SOL    HW227430   2.228   2.916   8.740 -0.1494  0.7177 -1.3221
 6858SOL     OW27431   9.312  11.415   0.785 -0.1963 -0.0313  0.1724
 6858SOL    HW127432   9.360  11.333   0.774 -0.7426 -0.3786  0.3208
 6858SOL    HW227433   9.336  11.444   0.873 -2.4177 -1.6905  1.4376
 6859SOL     OW27434   2.425  10.584   8.936  0.1833 -0.1880 -0.3470
 6859SOL    HW127435   2.333  10.579   8.909 -1.2864  1.5894  3.5187
 6859SOL    HW227436   2.460  10.659   8.890 -1.7780  1.9228  1.3662
 6860SOL     OW27437   2.621   4.778   2.579 -0.3648 -0.5371 -0.0164
 6860SOL    HW127438   2.603   4.795   2.486 -0.0978 -0.3966 -0.0462
 6860SOL    HW227439   2.653   4.862   2.613 -1.5524 -0.2683  0.4908
 6861SOL     OW27440   6.260   3.365   9.047 -0.0859  0.0224  0.1161
 6861SOL    HW127441   6.178   3.409   9.068  0.3254  0.3280  1.1732
 6861SOL    HW227442   6.302   3.423   8.983 -0.7395 -0.1995 -0.5214
 6862SOL     OW27443   2.889   1.862   1.060  0.2284  0.3143  0.4501
 6862SOL    HW127444   2.856   1.816   0.983  2.5750 -0.1746 -0.3554
 6862SOL    HW227445   2.905   1.951   1.030 -0.7431  0.6787  0.9658
 6863SOL     OW27446  10.809   5.828   8.214  0.2359  0.5241 -0.0341
 6863SOL    HW127447  10.833   5.800   8.302  0.0777 -1.6607 -0.6355
 6863SOL    HW227448  10.871   5.782   8.157 -0.8791  0.3879 -1.1589
 6864SOL     OW27449   9.548   3.976  11.044  0.5687  0.5430 -0.2722
 6864SOL    HW127450   9.535   3.894  10.996  0.9640  0.3294 -0.0112
 6864SOL    HW227451   9.618   4.021  10.996 -1.9483  2.3623 -2.5686
 6865SOL     OW27452   6.971  12.070   6.645 -0.1952 -0.7421 -0.2671
 6865SOL    HW127453   6.993  12.162   6.658  0.9127 -1.1197  0.7500
 6865SOL    HW227454   7.042  12.036   6.590  1.0308 -1.6073  1.7203
 6866SOL     OW27455   1.311   5.224   8.767  0.0847  0.1564 -0.1608
 6866SOL    HW127456   1.269   5.214   8.681 -1.1562  1.0560  0.3047
 6866SOL    HW227457   1.239   5.210   8.829  1.4582 -3.2874  0.8899
 6867SOL     OW27458  10.155  12.354  10.084  0.0495 -0.2137 -0.6556
 6867SOL    HW127459  10.123  12.363  10.173  0.0296 -0.7355 -0.6064
 6867SOL    HW227460  10.082  12.382  10.029 -0.9561 -2.4227 -0.5855
 6868SOL     OW27461   9.095  11.122   5.682 -0.0823 -0.6972 -0.1724
 6868SOL    HW127462   9.072  11.155   5.769 -0.0416 -1.4825  0.1520
 6868SOL    HW227463   9.092  11.026   5.692  0.9963 -0.8062 -0.7447
 6869SOL     OW27464   1.752   9.626   4.247  0.0316  0.7220  0.8526
 6869SOL    HW127465   1.707   9.546   4.274 -0.6884  0.9382  0.3420
 6869SOL    HW227466   1.705   9.654   4.168  1.8064  0.3348 -0.3833
 6870SOL     OW27467   8.952   1.408  11.400  0.1097  0.4523 -0.0390
 6870SOL    HW127468   8.857   1.409  11.382  0.0061  1.5339  0.4774
 6870SOL    HW227469   8.991   1.387  11.315 -0.6041 -0.3830 -0.1751
 6871SOL     OW27470  12.150   9.409   2.870  0.0456  0.2871 -0.0117
 6871SOL    HW127471  12.237   9.449   2.866  0.7458 -1.2177 -1.5573
 6871SOL    HW227472  12.168   9.316   2.881 -1.4070  0.0238  0.2280
 6872SOL     OW27473   0.779   0.350  10.105  0.2463  0.5028  0.2463
 6872SOL    HW127474   0.753   0.263  10.075  0.1522  0.6129  0.0072
 6872SOL    HW227475   0.825   0.334  10.187 -0.1470  0.2634  0.4239
 6873SOL     OW27476   7.121   1.786  11.662  0.0552 -0.4242 -0.5030
 6873SOL    HW127477   7.128   1.691  11.671 -1.0212 -0.4407  0.3164
 6873SOL    HW227478   7.198   1.820  11.708  0.2903 -0.8835 -0.5508
 6874SOL     OW27479  11.318   9.093  11.310  0.0590  0.1567  0.0840
 6874SOL    HW127480  11.314   9.041  11.390 -0.3476  1.0390  0.6635
 6874SOL    HW227481  11.244   9.154  11.318  0.5616  0.8679 -0.5160
 6875SOL     OW27482   3.548   7.537   3.090  0.4498  0.1303  0.1029
 6875SOL    HW127483   3.498   7.539   3.008  0.9803 -0.6783 -0.2454
 6875SOL    HW227484   3.533   7.624   3.129 -0.4084  0.2578 -0.4782
 6876SOL     OW27485   0.370   0.137   1.401  0.3461 -0.3681  0.6442
 6876SOL    HW127486   0.353   0.194   1.326  0.2094 -1.8006 -0.4588
 6876SOL    HW227487   0.384   0.197   1.475  0.0646  1.0628 -0.4314
 6877SOL     OW27488  11.934  12.396   1.000 -0.6282  0.0671 -0.0230
 6877SOL    HW127489  11.872  12.359   0.937 -1.8822  0.8199  0.7360
 6877SOL    HW227490  11.886  12.400   1.082  1.0731 -1.1735  1.1068
 6878SOL     OW27491  12.125  10.144  10.873 -0.4202 -0.6256  0.0549
 6878SOL    HW127492  12.034  10.114  10.878 -0.0825 -2.0335 -1.3684
 6878SOL    HW227493  12.118  10.239  10.870 -1.6767 -0.5649  2.3750
 6879SOL     OW27494   3.834   0.128   2.738 -0.7331 -0.0562 -0.1153
 6879SOL    HW127495   3.894   0.199   2.715 -1.0135  0.6853  1.2877
 6879SOL    HW227496   3.770   0.127   2.668  0.4938 -0.3758 -1.2670
 6880SOL     OW27497   8.352   4.677   3.835 -0.1918  0.3217 -0.2687
 6880SOL    HW127498   8.359   4.767   3.866  1.3867  0.0149  0.4100
 6880SOL    HW227499   8.386   4.679   3.746 -0.5855  0.4667 -0.4172
 6881SOL     OW27500  10.133   6.036   2.900 -0.1056 -0.1328  0.2024
 6881SOL    HW127501  10.110   6.078   2.817  0.3727 -0.3313 -0.0313
 6881SOL    HW227502  10.216   6.078   2.926  0.9291 -1.6452 -0.5519
 6882SOL     OW27503   3.941   8.705   8.383  0.5095 -0.2803 -0.6219
 6882SOL    HW127504   3.890   8.770   8.431  0.9926  0.2557 -0.8357
 6882SOL    HW227505   3.932   8.625   8.435 -1.0341 -0.3622 -0.9556
 6883SOL     OW27506   1.671   4.196   2.618  0.4807 -0.4945 -0.4129
 6883SOL    HW127507   1.745   4.153   2.659  1.6775  1.1630 -0.7246
 6883SOL    HW227508   1.665   4.156   2.531  1.3097 -0.3433 -0.5484
 6884SOL     OW27509  10.429   1.982   7.630 -0.2570 -0.7045 -0.1580
 6884SOL    HW127510  10.492   1.911   7.637  0.3171 -0.3423 -1.3055
 6884SOL    HW227511  10.352   1.951   7.677  1.1044 -0.7420  2.2246
 6885SOL     OW27512  11.209   1.120  12.420 -0.4467  0.0507  0.0639
 6885SOL    HW127513  11.150   1.052  12.451  2.1071 -2.0395  0.7262
 6885SOL    HW227514  11.228   1.173  12.498 -1.5891  0.8762 -0.2058
 6886SOL     OW27515   7.407   6.998   5.562 -0.6655 -0.3285  0.4280
 6886SOL    HW127516   7.467   7.068   5.536  0.5327  0.3626  4.3338
 6886SOL    HW227517   7.338   7.043   5.611  0.0540 -1.6975  2.8946
 6887SOL     OW27518   7.034   8.431   5.234  0.3145 -0.1517  0.6078
 6887SOL    HW127519   7.021   8.474   5.149  0.9232 -3.0098 -1.0445
 6887SOL    HW227520   6.945   8.422   5.270 -0.1360 -0.3748 -0.5212
 6888SOL     OW27521   7.773  12.264   4.695 -0.2042  0.2818 -0.1993
 6888SOL    HW127522   7.868  12.266   4.694 -0.1571  3.2622 -0.9745
 6888SOL    HW227523   7.749  12.315   4.772 -1.1081  1.1975 -1.0513
 6889SOL     OW27524   6.452   6.464  10.572  0.1335  0.1559  1.1929
 6889SOL    HW127525   6.529   6.517  10.595 -1.3812  2.3023  1.5970
 6889SOL    HW227526   6.380   6.503  10.622 -1.1876 -1.9828  1.0663
 6890SOL     OW27527   8.354   0.706   1.570 -0.4147  0.1879 -0.2214
 6890SOL    HW127528   8.276   0.692   1.623 -0.2008  1.4004  0.4390
 6890SOL    HW227529   8.328   0.769   1.503 -0.2880 -0.2248 -0.6664
 6891SOL     OW27530   7.896   0.865   0.147 -0.8337  0.1348 -0.0532
 6891SOL    HW127531   7.936   0.879   0.061 -2.5518  0.1478 -0.8839
 6891SOL    HW227532   7.804   0.845   0.128 -1.3160  0.4267  1.7988
 6892SOL     OW27533   1.562   2.667   1.179 -0.5026  0.1116 -0.2051
 6892SOL    HW127534   1.531   2.717   1.103 -0.1522  0.4579 -0.1211
 6892SOL    HW227535   1.652   2.644   1.158 -0.0445  1.1350  0.5546
 6893SOL     OW27536   6.167   1.791   0.065 -0.3052  0.2983 -0.3154
 6893SOL    HW127537   6.091   1.749   0.024 -0.4556  1.6064 -1.4856
 6893SOL    HW227538   6.231   1.721   0.075 -0.3729 -0.1658 -2.5929
 6894SOL     OW27539   1.427   0.286   0.469 -0.0477  0.2289 -0.4270
 6894SOL    HW127540   1.455   0.373   0.439  1.2673  0.0835  0.3226
 6894SOL    HW227541   1.434   0.290   0.564  2.0004 -1.3217 -0.4664
 6895SOL     OW27542   3.130   4.162  10.375 -0.2277  0.0009  0.0887
 6895SOL    HW127543   3.097   4.252  10.383 -1.8141 -0.4100 -1.3094
 6895SOL    HW227544   3.195   4.167  10.305  2.1850  0.6332  2.2341
 6896SOL     OW27545   0.688   2.834   6.832  0.5863 -0.4150  0.6675
 6896SOL    HW127546   0.681   2.842   6.927  0.0118 -0.1872  0.6121
 6896SOL    HW227547   0.760   2.772   6.818  0.5000 -0.6547  1.2562
 6897SOL     OW27548   2.089   9.622   8.984 -0.7695  0.3787  0.6151
 6897SOL    HW127549   2.105   9.697   8.927  0.9129 -0.6515 -0.3671
 6897SOL    HW227550   2.055   9.554   8.925  0.7527 -0.6194  0.8199
 6898SOL     OW27551   0.714   5.373   6.270 -0.1746  0.8679  0.2098
 6898SOL    HW127552   0.673   5.287   6.283  0.0045  0.7147 -0.1967
 6898SOL    HW227553   0.786   5.376   6.333  1.6324 -0.4743 -1.6453
 6899SOL     OW27554  10.540  11.124   0.547  0.4646  0.1344  0.0616
 6899SOL    HW127555  10.481  11.086   0.482  0.8251 -1.7132  0.7574
 6899SOL    HW227556  10.495  11.203   0.577 -1.9102 -1.4057  0.8531
 6900SOL     OW27557   0.500   4.537   1.893  0.6807 -0.0037  0.2322
 6900SOL    HW127558   0.439   4.480   1.848  1.8373 -2.2570  1.3551
 6900SOL    HW227559   0.518   4.493   1.976  1.7206  1.9581  1.1184
 6901SOL     OW27560   9.523  12.300   4.781 -0.3623 -0.6828  0.0699
 6901SOL    HW127561   9.536  12.244   4.857  0.6684 -1.7137 -0.8443
 6901SOL    HW227562   9.600  12.357   4.780 -1.5580  1.0797  1.1932
 6902SOL     OW27563  12.015   5.036   9.159  0.1839  0.2767  0.1245
 6902SOL    HW127564  12.071   4.958   9.155  1.1823  1.0241 -2.3323
 6902SOL    HW227565  12.069   5.102   9.203 -0.0337  0.0888  0.6897
 6903SOL     OW27566   1.857   2.976   4.609 -0.5602 -0.0290 -0.7752
 6903SOL    HW127567   1.803   2.926   4.548  0.7563  0.7381 -2.6593
 6903SOL    HW227568   1.947   2.949   4.590 -0.0988  0.1023  0.9960
 6904SOL     OW27569   3.528   0.101   1.106 -0.1531 -0.2761 -0.1465
 6904SOL    HW127570   3.561   0.062   1.025  2.1089  1.5891 -0.2200
 6904SOL    HW227571   3.435   0.116   1.090 -0.3628 -2.4532 -1.3269
 6905SOL     OW27572   1.010   2.638   4.916  0.0949  0.1807  0.4116
 6905SOL    HW127573   1.018   2.546   4.891  2.6214 -0.1926  2.1476
 6905SOL    HW227574   0.929   2.643   4.966  1.1173 -1.7436  2.4507
 6906SOL     OW27575   5.475   5.708   6.865  0.4598  0.0211  0.0189
 6906SOL    HW127576   5.485   5.649   6.941 -1.2368  1.3420  1.3646
 6906SOL    HW227577   5.554   5.762   6.866 -0.7310  1.9375  2.7038
 6907SOL     OW27578   3.732  11.737   4.113  0.4926  0.4418  0.2915
 6907SOL    HW127579   3.676  11.787   4.052 -1.4089 -0.7168  0.9856
 6907SOL    HW227580   3.766  11.665   4.060 -2.9437 -1.8923  0.8699
 6908SOL     OW27581   1.197  12.529   9.333  0.1615  0.5084 -0.4363
 6908SOL    HW127582   1.132  12.548   9.400 -0.3259 -0.5584 -0.5923
 6908SOL    HW227583   1.271  12.492   9.381  0.2962  0.8518 -0.3690
 6909SOL     OW27584   5.936   9.254   2.907 -0.0057  0.2888  0.5504
 6909SOL    HW127585   6.016   9.305   2.915 -1.4680  2.9903 -0.7178
 6909SOL    HW227586   5.889   9.271   2.989  0.8914 -1.8057  1.5752
 6910SOL     OW27587   1.526   2.223   3.959 -0.7742 -0.0704 -0.2675
 6910SOL    HW127588   1.508   2.250   3.869 -0.5544 -1.2866 -0.6963
 6910SOL    HW227589   1.444   2.185   3.990 -0.8765  0.4301  0.0849
 6911SOL     OW27590   2.483   5.415   8.513 -0.2604 -0.3310 -0.1982
 6911SOL    HW127591   2.460   5.506   8.494  0.8876  0.0231  0.0410
 6911SOL    HW227592   2.579   5.415   8.520 -0.2831 -1.4435  0.3952
 6912SOL     OW27593  11.642  10.159   1.498  0.1491  0.3433  0.1707
 6912SOL    HW127594  11.625  10.195   1.585  1.2586  0.5766  0.3114
 6912SOL    HW227595  11.730  10.122   1.504 -0.6450 -1.7492 -0.1909
 6913SOL     OW27596   5.534   0.253   8.086 -0.2505  0.3859 -0.1921
 6913SOL    HW127597   5.487   0.315   8.141 -1.8859 -0.9816  0.0134
 6913SOL    HW227598   5.467   0.192   8.055  1.3691 -1.6329  0.0931
 6914SOL     OW27599   1.565   5.612   3.627 -0.2596 -1.4245 -0.0252
 6914SOL    HW127600   1.627   5.645   3.692 -1.1093  1.6211 -0.6071
 6914SOL    HW227601   1.479   5.634   3.662 -0.7359  1.1038 -2.4099
 6915SOL     OW27602   5.217   4.076   2.830 -0.5462 -0.4095 -0.7956
 6915SOL    HW127603   5.263   3.993   2.827  1.1619  0.5222 -2.2582
 6915SOL    HW227604   5.269   4.131   2.889 -2.7938 -0.9206  1.8675
 6916SOL     OW27605   7.100   8.483   2.833 -0.2636 -0.1670 -0.5278
 6916SOL    HW127606   7.078   8.438   2.752  0.1753  0.2139 -0.8630
 6916SOL    HW227607   7.139   8.566   2.805  0.9324 -0.5055  0.0481
 6917SOL     OW27608   9.355   4.218   6.899  0.1156 -0.4545  0.4381
 6917SOL    HW127609   9.450   4.230   6.902  0.3289 -2.0373  0.8787
 6917SOL    HW227610   9.330   4.245   6.811  1.0091 -0.2399  0.2435
 6918SOL     OW27611   5.204   7.517   7.959 -0.4844 -0.5511  0.2125
 6918SOL    HW127612   5.199   7.609   7.933  1.2708 -0.0420  1.4994
 6918SOL    HW227613   5.129   7.505   8.018 -0.4690  0.1608  0.3827
 6919SOL     OW27614   4.620   4.411  11.068  0.1794  0.1485 -0.0169
 6919SOL    HW127615   4.593   4.323  11.044 -1.1082  0.8651 -1.3950
 6919SOL    HW227616   4.539   4.455  11.093  0.5226  1.3767 -0.9330
 6920SOL     OW27617   5.628   9.221   7.294 -0.2219  0.2568 -0.4852
 6920SOL    HW127618   5.645   9.294   7.354 -0.6841 -0.9509  1.1958
 6920SOL    HW227619   5.642   9.142   7.347 -2.0198 -0.8755 -1.5627
 6921SOL     OW27620  10.500   4.732  11.487 -0.2872  0.1993 -0.0718
 6921SOL    HW127621  10.576   4.722  11.430 -1.4805 -0.4134 -1.6521
 6921SOL    HW227622  10.441   4.789  11.437 -0.9342  0.5285  1.0389
 6922SOL     OW27623   1.412  11.525   9.743 -0.1540  0.4599 -0.3380
 6922SOL    HW127624   1.485  11.514   9.683  0.4570 -0.0679  0.4949
 6922SOL    HW227625   1.350  11.581   9.695  1.0216  1.3598 -0.8371
 6923SOL     OW27626   2.273   3.591  11.120  0.8055  0.7224 -0.1999
 6923SOL    HW127627   2.279   3.644  11.041  1.1550  1.3695  0.2570
 6923SOL    HW227628   2.362   3.561  11.136  0.6215  0.0345 -0.4224
 6924SOL     OW27629  11.147   6.058   6.786  0.8425 -0.1232  0.3996
 6924SOL    HW127630  11.076   6.115   6.756  0.1752 -1.2026 -0.1411
 6924SOL    HW227631  11.181   6.101   6.865 -0.6498  0.2465  0.8772
 6925SOL     OW27632   8.229   7.370   1.901  0.4017 -0.0871  0.3589
 6925SOL    HW127633   8.293   7.427   1.944  0.8564 -1.9025  2.2471
 6925SOL    HW227634   8.144   7.411   1.919  0.6723 -0.2563  2.2043
 6926SOL     OW27635   7.855   2.101   7.184  0.0799  0.1459  0.1294
 6926SOL    HW127636   7.867   2.105   7.089 -0.9346 -1.6053 -0.1252
 6926SOL    HW227637   7.765   2.069   7.195  0.8202 -1.6162  1.6156
 6927SOL     OW27638   0.661   3.201   6.873 -0.0284  0.5243  0.0288
 6927SOL    HW127639   0.662   3.145   6.796  0.3550  0.0224  0.3916
 6927SOL    HW227640   0.705   3.150   6.941 -2.0627  0.1495  1.1522
 6928SOL     OW27641   8.426   8.236   9.217  0.0421  0.4705 -0.0035
 6928SOL    HW127642   8.346   8.197   9.253 -1.3274  0.6984 -2.5473
 6928SOL    HW227643   8.394   8.309   9.163  2.2379  2.4998  1.2633
 6929SOL     OW27644   5.307  11.717   6.707 -0.2179  0.4807 -0.1383
 6929SOL    HW127645   5.369  11.705   6.635 -0.5812  2.8130 -0.9366
 6929SOL    HW227646   5.255  11.637   6.708  2.0125 -1.0537 -0.1979
 6930SOL     OW27647  12.381   1.218  11.543  0.7157  0.3848 -0.2767
 6930SOL    HW127648  12.358   1.157  11.613 -1.6331  0.2561 -1.0654
 6930SOL    HW227649  12.371   1.305  11.582 -0.6794  0.3163 -0.4308
 6931SOL     OW27650   1.833   3.544   7.643  0.2798 -0.0788 -0.4241
 6931SOL    HW127651   1.853   3.529   7.735 -1.9028 -2.2547 -0.1926
 6931SOL    HW227652   1.855   3.636   7.627  0.8576  0.2984  2.1875
 6932SOL     OW27653   2.356   0.284   5.572 -0.4005 -0.0874  0.1246
 6932SOL    HW127654   2.366   0.253   5.662  0.6486  1.2950  0.5102
 6932SOL    HW227655   2.266   0.318   5.569  0.0899  1.4527  1.2082
 6933SOL     OW27656   9.057   4.370   4.938  0.2633  0.1385 -0.2663
 6933SOL    HW127657   8.977   4.401   4.981  0.4930  0.0088  0.2599
 6933SOL    HW227658   9.085   4.295   4.990  1.1925  0.6984  0.0599
 6934SOL     OW27659   0.940   5.015   3.882 -0.3499 -0.7884  0.1862
 6934SOL    HW127660   0.983   4.953   3.823  0.8089 -0.5282  0.7149
 6934SOL    HW227661   0.974   4.993   3.968 -2.1842 -1.2936  0.8174
 6935SOL     OW27662  11.441   3.578  10.824 -0.0503 -0.1602  0.2152
 6935SOL    HW127663  11.470   3.669  10.831 -0.5890 -0.1261  3.3271
 6935SOL    HW227664  11.511   3.527  10.864 -0.2854 -1.0351 -0.4492
 6936SOL     OW27665   0.471   6.221   5.846 -0.2089  0.4548 -0.0093
 6936SOL    HW127666   0.540   6.155   5.840 -0.5825  0.0605 -0.0064
 6936SOL    HW227667   0.393   6.177   5.813 -0.5581  0.7549  0.4044
 6937SOL     OW27668   8.192   3.759   4.100  0.1329 -0.2091  0.5465
 6937SOL    HW127669   8.207   3.672   4.062 -1.5439  0.0002 -0.7190
 6937SOL    HW227670   8.249   3.761   4.176  0.0182 -2.5544  0.7946
 6938SOL     OW27671   7.522   4.558  11.678  0.0326  0.9291 -0.0242
 6938SOL    HW127672   7.439   4.512  11.663  0.3266  0.4296 -0.1627
 6938SOL    HW227673   7.570   4.547  11.595  1.4542 -1.3718  1.0015
 6939SOL     OW27674   8.319   5.451   8.895 -0.3082 -0.1945 -0.4115
 6939SOL    HW127675   8.345   5.363   8.870  0.4470  0.0145 -0.3880
 6939SOL    HW227676   8.323   5.451   8.991 -1.5514 -0.5021 -0.3490
 6940SOL     OW27677   6.701   2.838  10.310  0.1206 -0.0245  0.3411
 6940SOL    HW127678   6.779   2.804  10.355  0.5403  0.7458  0.2060
 6940SOL    HW227679   6.672   2.911  10.365 -1.2906 -1.1110  1.1008
 6941SOL     OW27680   3.552   4.624   1.017  0.1047  0.3746 -0.6898
 6941SOL    HW127681   3.578   4.644   1.107 -2.6080 -1.7397  0.6967
 6941SOL    HW227682   3.630   4.644   0.965  1.9789  1.1269  2.1628
 6942SOL     OW27683   5.007   7.743  11.554  0.0304  0.2483 -0.4553
 6942SOL    HW127684   4.935   7.681  11.544 -0.6487  1.1810 -1.5487
 6942SOL    HW227685   4.968   7.817  11.601  0.5373  0.3512 -0.1895
 6943SOL     OW27686   6.939   0.875   1.264  0.0654 -0.1474  0.3364
 6943SOL    HW127687   6.976   0.835   1.343 -0.4313 -0.8941  0.2019
 6943SOL    HW227688   6.957   0.811   1.194  1.6593  1.0713 -0.4397
 6944SOL     OW27689   9.079  11.525  11.348 -0.5115 -0.3813  0.5679
 6944SOL    HW127690   9.023  11.448  11.352 -3.3138  1.3940 -0.7947
 6944SOL    HW227691   9.100  11.535  11.255 -1.3918  1.1997  0.5023
 6945SOL     OW27692   0.968   7.273  11.229 -0.0451 -0.2064 -0.2136
 6945SOL    HW127693   1.007   7.359  11.216  0.2644 -0.3119  0.0062
 6945SOL    HW227694   0.901   7.287  11.296  0.6428 -0.3136  0.5108
 6946SOL     OW27695   6.725   6.999   5.969 -0.4408  0.3396 -0.0171
 6946SOL    HW127696   6.802   6.963   6.013 -0.6507  0.1929  0.2289
 6946SOL    HW227697   6.650   6.957   6.011 -0.6151 -0.8591 -1.4146
 6947SOL     OW27698  10.432   3.454   9.114 -0.1229 -0.1183  0.2057
 6947SOL    HW127699  10.448   3.515   9.042  0.7384 -1.6634 -0.9898
 6947SOL    HW227700  10.515   3.450   9.161 -0.1421 -0.4100  0.2200
 6948SOL     OW27701  11.819   5.715   8.863  0.2526  0.4104 -0.3555
 6948SOL    HW127702  11.796   5.744   8.775  1.0531  2.7579  0.1223
 6948SOL    HW227703  11.791   5.788   8.919  1.4530 -0.2213  1.1133
 6949SOL     OW27704   7.109  11.440   7.520 -0.0919 -0.7501  0.5423
 6949SOL    HW127705   7.195  11.421   7.556  0.5161  0.2137 -0.3688
 6949SOL    HW227706   7.048  11.420   7.592  0.9899 -0.0592  1.6771
 6950SOL     OW27707   0.192  12.276  11.503 -0.2429  0.5164 -0.1408
 6950SOL    HW127708   0.259  12.259  11.437 -0.3188  0.6460 -0.2518
 6950SOL    HW227709   0.126  12.208  11.489  1.1191 -1.3271  1.6923
 6951SOL     OW27710   1.588   7.773   4.382  0.0541 -0.4384  0.1506
 6951SOL    HW127711   1.523   7.708   4.407 -0.0402 -0.5204 -0.3029
 6951SOL    HW227712   1.651   7.773   4.454  0.4334 -1.5361 -0.1561
 6952SOL     OW27713  12.139   4.669  10.279 -0.3904 -0.8743  0.9011
 6952SOL    HW127714  12.136   4.598  10.343 -0.0586 -1.8637 -0.1528
 6952SOL    HW227715  12.107   4.630  10.198  1.9485 -0.4673 -0.2835
 6953SOL     OW27716  11.569   4.957   4.053 -0.3916 -0.2154  0.5020
 6953SOL    HW127717  11.495   5.016   4.036 -0.0485  0.5248  1.5106
 6953SOL    HW227718  11.614   4.995   4.128  0.4200 -1.2327  0.5576
 6954SOL     OW27719   9.764   8.964   7.134 -0.2942 -0.2853 -0.1206
 6954SOL    HW127720   9.777   9.027   7.062 -0.5941 -0.0012  0.0672
 6954SOL    HW227721   9.719   8.890   7.093  0.0944 -0.3957 -0.3518
 6955SOL     OW27722   9.756   7.421   0.659  0.2000 -0.2894  0.4880
 6955SOL    HW127723   9.722   7.507   0.681 -1.0395 -0.4881 -0.5725
 6955SOL    HW227724   9.715   7.362   0.722  0.0783 -0.2689  0.4283
 6956SOL     OW27725   8.364   9.325   8.452  0.1600  0.3907 -0.2575
 6956SOL    HW127726   8.351   9.387   8.524 -0.4698  0.2792 -0.2650
 6956SOL    HW227727   8.410   9.251   8.492  1.5446  1.1374 -0.3980
 6957SOL     OW27728   2.919   4.485   3.746  0.0990  0.7289  0.0670
 6957SOL    HW127729   2.892   4.462   3.657  0.2194  1.7283 -0.2422
 6957SOL    HW227730   2.943   4.578   3.740 -0.3090  0.9209  1.2320
 6958SOL     OW27731   5.159   7.979   2.784  0.1521 -0.5160 -0.5027
 6958SOL    HW127732   5.122   7.921   2.717  0.9351 -0.9035 -0.6149
 6958SOL    HW227733   5.111   8.061   2.773  0.8690 -0.2722 -2.1405
 6959SOL     OW27734   6.746   4.359   8.686 -0.0374 -0.1698  1.0392
 6959SOL    HW127735   6.653   4.358   8.711 -0.1874  2.5390  0.8884
 6959SOL    HW227736   6.792   4.330   8.765 -0.9387  0.0926  1.6758
 6960SOL     OW27737   2.778  10.446  10.807  0.3551 -0.2978 -0.3631
 6960SOL    HW127738   2.705  10.490  10.762 -0.0710 -2.0808 -1.5162
 6960SOL    HW227739   2.808  10.510  10.872 -0.6497  1.4207 -1.4972
 6961SOL     OW27740   5.218   8.386   9.111 -0.2795  0.5957 -0.3081
 6961SOL    HW127741   5.186   8.332   9.039  0.7760  0.0862 -0.4193
 6961SOL    HW227742   5.226   8.474   9.074  0.6909  0.2478 -0.9694
 6962SOL     OW27743   6.868   9.878   3.030 -0.0604  0.5506 -0.4349
 6962SOL    HW127744   6.779   9.847   3.043  0.2601  0.0157  0.5772
 6962SOL    HW227745   6.866   9.922   2.944 -1.2843  0.5605 -0.4177
 6963SOL     OW27746   0.873   6.333   7.775 -0.0925  0.3357  0.1446
 6963SOL    HW127747   0.779   6.317   7.760 -0.1150 -1.7041  1.8967
 6963SOL    HW227748   0.877   6.419   7.815 -1.4643 -0.2827  1.7356
 6964SOL     OW27749   9.262   0.387   2.737 -1.2065  0.3310 -0.4486
 6964SOL    HW127750   9.346   0.377   2.781 -1.0243 -1.6547 -1.1710
 6964SOL    HW227751   9.222   0.463   2.780  1.6862  2.5854 -1.3485
 6965SOL     OW27752   0.498   5.814   3.344  0.2353 -0.0093 -0.5482
 6965SOL    HW127753   0.432   5.870   3.302 -0.9041 -1.2924 -0.5606
 6965SOL    HW227754   0.451   5.771   3.415  1.5996  0.5093  0.7305
 6966SOL     OW27755   5.029   8.421   1.852  0.0147 -0.0429  0.0784
 6966SOL    HW127756   4.942   8.408   1.815 -0.5430 -0.2447  1.4191
 6966SOL    HW227757   5.017   8.488   1.919  1.1943  1.0475 -0.7568
 6967SOL     OW27758   7.299   9.726   2.897 -0.4940  0.1322 -0.2593
 6967SOL    HW127759   7.262   9.692   2.815  0.0383 -0.7285 -0.1639
 6967SOL    HW227760   7.228   9.719   2.960 -0.5897 -0.2027 -0.4027
 6968SOL     OW27761   9.380   7.169   3.549  0.1829 -0.3432 -0.5931
 6968SOL    HW127762   9.465   7.172   3.505  0.1414  0.2452 -0.6446
 6968SOL    HW227763   9.346   7.259   3.541 -0.1124 -0.3918  0.0774
 6969SOL     OW27764   9.489   5.133   6.976 -0.2399 -0.2461 -0.1851
 6969SOL    HW127765   9.543   5.208   6.950 -0.2470 -0.3256 -0.4327
 6969SOL    HW227766   9.512   5.064   6.914 -0.1896 -0.4713  0.0789
 6970SOL     OW27767   9.864   2.609   0.944  0.0715 -0.2210  0.4037
 6970SOL    HW127768   9.879   2.569   0.858 -0.0768 -0.6809  0.5872
 6970SOL    HW227769   9.906   2.550   1.006  1.3403  0.8103  0.5494
 6971SOL     OW27770   6.520   5.890   3.250  0.2087  0.0895  0.0500
 6971SOL    HW127771   6.603   5.847   3.267 -0.1321 -0.8380 -0.5765
 6971SOL    HW227772   6.476   5.892   3.335  0.7795  0.4071  0.3436
 6972SOL     OW27773   0.756   2.443   5.886 -0.1635  0.2947 -0.0323
 6972SOL    HW127774   0.724   2.528   5.915 -0.0934  0.7424 -1.1877
 6972SOL    HW227775   0.746   2.445   5.791 -0.5813 -1.1748 -0.0458
 6973SOL     OW27776   8.386   6.786   2.019  1.1056  0.1794  0.0862
 6973SOL    HW127777   8.396   6.718   1.953 -0.7254  0.4039 -0.4692
 6973SOL    HW227778   8.352   6.739   2.096  0.3662  0.3674 -0.1200
 6974SOL     OW27779   8.310  12.416   2.483  0.0970  0.2025 -0.2335
 6974SOL    HW127780   8.244  12.372   2.536 -2.0457  3.5405  0.1562
 6974SOL    HW227781   8.338  12.491   2.535  1.7984  0.7014 -1.7482
 6975SOL     OW27782   2.855   8.584   6.218 -0.0293 -0.1111  0.0190
 6975SOL    HW127783   2.798   8.529   6.272 -1.6193 -0.7479 -2.2061
 6975SOL    HW227784   2.803   8.661   6.199  2.2548  2.5730  3.3143
 6976SOL     OW27785   6.724   6.133   3.808  0.3784  0.7419 -0.5400
 6976SOL    HW127786   6.787   6.067   3.779  0.8350  1.0004 -0.1658
 6976SOL    HW227787   6.768   6.216   3.794 -0.5822  1.0485 -1.9528
 6977SOL     OW27788   7.682   1.448   4.494 -0.4516 -0.2506 -0.2010
 6977SOL    HW127789   7.751   1.454   4.561 -1.2182 -1.1444  0.6989
 6977SOL    HW227790   7.645   1.536   4.491  0.0783 -0.0101  0.0186
 6978SOL     OW27791   5.219   3.884   8.632  0.2774 -0.3422 -0.1359
 6978SOL    HW127792   5.300   3.834   8.627 -0.6850 -1.9093 -3.3158
 6978SOL    HW227793   5.246   3.975   8.618  1.6042 -0.6169  0.4842
 6979SOL     OW27794   0.428   5.952   7.547 -0.4055 -0.0903 -0.1241
 6979SOL    HW127795   0.420   5.920   7.458 -1.1716  2.0610 -0.8886
 6979SOL    HW227796   0.511   5.915   7.578 -1.2585 -2.8447 -0.7987
 6980SOL     OW27797   2.573   5.265  11.099  0.4474 -0.2096  0.0023
 6980SOL    HW127798   2.592   5.239  11.189 -0.2215 -1.6644 -0.2465
 6980SOL    HW227799   2.514   5.197  11.066  0.2360  0.5905 -1.3645
 6981SOL     OW27800  10.235   4.844   8.804 -0.3953 -0.3145 -0.0272
 6981SOL    HW127801  10.192   4.763   8.777 -1.6064  0.7136 -1.2974
 6981SOL    HW227802  10.309   4.853   8.743 -0.8117 -0.0010 -0.4925
 6982SOL     OW27803   0.868   6.035   6.419 -0.3736 -0.3066  0.7316
 6982SOL    HW127804   0.855   6.037   6.324 -0.0382  1.1569  0.7023
 6982SOL    HW227805   0.858   5.942   6.442 -0.9391 -0.6183 -0.6548
 6983SOL     OW27806  11.365   5.148   4.026 -0.2155 -0.0364  0.3093
 6983SOL    HW127807  11.300   5.088   3.989  0.7743 -0.5606 -0.6791
 6983SOL    HW227808  11.319   5.231   4.038 -0.8041 -0.0842 -1.3833
 6984SOL     OW27809   4.676   8.941   0.721 -0.2419  0.4957 -0.1766
 6984SOL    HW127810   4.636   8.895   0.647 -1.6739  2.0603 -0.4417
 6984SOL    HW227811   4.711   9.022   0.682  2.2700 -0.2912  0.2549
 6985SOL     OW27812   4.475   3.831   2.098  0.4961 -0.1268  0.6408
 6985SOL    HW127813   4.422   3.904   2.067 -0.1414 -1.1854 -0.8997
 6985SOL    HW227814   4.421   3.753   2.081  1.9107 -1.1078  0.4506
 6986SOL     OW27815   4.558   8.268   5.530 -0.2523 -0.2521  0.3055
 6986SOL    HW127816   4.621   8.263   5.602  0.4643 -1.6729 -0.3634
 6986SOL    HW227817   4.607   8.234   5.454 -0.9286  1.3340 -0.8938
 6987SOL     OW27818   4.172   9.732   6.702  0.1218 -0.4172  0.1915
 6987SOL    HW127819   4.189   9.738   6.607  0.7676 -1.6858  0.2051
 6987SOL    HW227820   4.077   9.727   6.709  0.0982 -1.2651 -0.4850
 6988SOL     OW27821   4.926   2.025   5.039 -0.0652 -0.5510  0.1283
 6988SOL    HW127822   4.995   1.987   4.984  1.2733 -0.0691  1.4215
 6988SOL    HW227823   4.938   1.984   5.125 -1.3704 -0.4103  0.4087
 6989SOL     OW27824   9.274   9.603   0.179 -0.3518 -0.4230  0.0664
 6989SOL    HW127825   9.247   9.564   0.262  1.1101 -0.7423  0.4096
 6989SOL    HW227826   9.298   9.529   0.124  2.4062 -0.1180  0.7110
 6990SOL     OW27827   9.566  11.574   5.779 -0.0254 -0.1426 -0.1189
 6990SOL    HW127828   9.602  11.550   5.693 -1.5032  2.8368 -1.7509
 6990SOL    HW227829   9.589  11.667   5.788  0.4492 -0.4712  2.9929
 6991SOL     OW27830   1.292   7.180   9.492  0.2750  0.0356 -0.1657
 6991SOL    HW127831   1.379   7.218   9.504 -0.2101  1.4041 -0.7866
 6991SOL    HW227832   1.286   7.165   9.398  0.1769 -0.9563 -0.0162
 6992SOL     OW27833   4.087  11.999   2.068 -1.0409  0.4412  0.4993
 6992SOL    HW127834   4.111  11.934   2.002  2.9316  0.5888  1.5610
 6992SOL    HW227835   4.087  12.082   2.021  2.5256  0.6566  0.5906
 6993SOL     OW27836  11.428   6.467   8.965 -0.7633 -0.0597  0.1126
 6993SOL    HW127837  11.426   6.442   8.873 -1.5901 -0.3823  0.2158
 6993SOL    HW227838  11.368   6.406   9.008 -1.1454  0.7275  0.7061
 6994SOL     OW27839   8.161  12.221  12.440 -0.3872 -0.3174 -0.2155
 6994SOL    HW127840   8.208  12.296  12.403 -0.5853 -0.1256 -0.0837
 6994SOL    HW227841   8.177  12.228  12.534 -1.7958  0.5450 -0.0129
 6995SOL     OW27842   8.166   0.396   1.320 -0.4446 -0.1126  0.0921
 6995SOL    HW127843   8.250   0.435   1.296 -1.1295  0.3816 -1.6678
 6995SOL    HW227844   8.183   0.350   1.403  1.1249  1.3936  0.6600
 6996SOL     OW27845   3.450  12.381   9.047 -0.1466  0.1825 -0.1291
 6996SOL    HW127846   3.525  12.437   9.066  0.7088 -1.3963  1.4553
 6996SOL    HW227847   3.383  12.409   9.109 -0.3560  0.5703 -0.5183
 6997SOL     OW27848   9.652  11.719   1.871  0.0038 -0.3279  0.3387
 6997SOL    HW127849   9.725  11.778   1.890 -1.0303  0.4289  2.1916
 6997SOL    HW227850   9.694  11.639   1.839  1.5049  0.8953 -0.8969
 6998SOL     OW27851   4.179   8.860  10.519 -0.1994 -0.1267 -0.2219
 6998SOL    HW127852   4.222   8.945  10.521  1.6254 -1.0117  1.6922
 6998SOL    HW227853   4.153   8.848  10.427  0.3360  2.0577 -0.6979
 6999SOL     OW27854   8.764   5.251   3.913  0.2593  0.0912  0.2046
 6999SOL    HW127855   8.845   5.232   3.962 -0.2460 -2.1471  0.2874
 6999SOL    HW227856   8.787   5.232   3.822 -0.1315 -0.4575  0.2171
 7000SOL     OW27857   9.720   5.992   5.573 -0.2184  0.3317 -0.6820
 7000SOL    HW127858   9.675   5.958   5.651  0.4941  2.1921  0.6166
 7000SOL    HW227859   9.705   5.926   5.506 -0.2640 -1.7025  1.2192
 7001SOL     OW27860   0.636   1.385   0.497  0.0882 -0.5372 -0.3131
 7001SOL    HW127861   0.629   1.479   0.482 -1.7052 -0.6519 -0.3939
 7001SOL    HW227862   0.587   1.346   0.425  1.8132 -1.6202 -0.9767
 7002SOL     OW27863   2.049   3.760  12.090  0.0237  0.4175 -0.1220
 7002SOL    HW127864   2.049   3.712  12.007  0.8619 -1.9398  1.1508
 7002SOL    HW227865   2.142   3.779  12.107 -0.1249  0.7477  0.3448
 7003SOL     OW27866   3.237  10.591   8.266 -0.7273 -0.3625  0.0482
 7003SOL    HW127867   3.172  10.620   8.203  0.0622  0.6715 -0.3142
 7003SOL    HW227868   3.243  10.662   8.329  0.4189 -0.1962 -0.2212
 7004SOL     OW27869  10.947   9.779   3.163  0.6848 -0.2502  0.1394
 7004SOL    HW127870  10.952   9.802   3.070 -0.6914  1.4877  0.4497
 7004SOL    HW227871  10.988   9.692   3.168  2.9234  0.5775 -1.7072
 7005SOL     OW27872   7.403   7.581   0.506 -0.4823  0.3906  0.0678
 7005SOL    HW127873   7.336   7.649   0.514 -0.0565  0.9824 -1.1166
 7005SOL    HW227874   7.372   7.526   0.434 -0.4087 -0.1821  0.4718
 7006SOL     OW27875   4.501   9.761   6.497 -0.1084 -0.3803 -0.4026
 7006SOL    HW127876   4.589   9.747   6.464  0.6589  1.7930  0.5185
 7006SOL    HW227877   4.501   9.719   6.583 -0.3948 -1.4344 -0.9021
 7007SOL     OW27878   3.031   5.639   4.413  0.1962  0.9122  0.6517
 7007SOL    HW127879   3.031   5.726   4.454 -2.9025  1.5466 -0.4236
 7007SOL    HW227880   2.983   5.584   4.475  2.3881 -0.2022  1.4590
 7008SOL     OW27881   8.810   8.905   0.951 -0.1819  0.0121  0.2528
 7008SOL    HW127882   8.854   8.839   1.005 -0.0021  0.5946  0.8455
 7008SOL    HW227883   8.871   8.978   0.948  0.1866 -0.3392 -1.5083
 7009SOL     OW27884   4.117   0.710   9.177  0.0816 -0.4289 -0.1847
 7009SOL    HW127885   4.100   0.721   9.083  2.8341  0.8545 -0.6229
 7009SOL    HW227886   4.201   0.753   9.192 -0.9211  0.6980  3.1847
 7010SOL     OW27887   6.519   7.062   0.662  0.1760  0.3059  0.0222
 7010SOL    HW127888   6.496   7.151   0.690  0.8471  0.3955  0.2954
 7010SOL    HW227889   6.534   7.014   0.743  1.0616  0.2770 -0.1556
 7011SOL     OW27890   8.640   3.806   2.333 -0.5777  0.2723 -0.2799
 7011SOL    HW127891   8.564   3.839   2.284  0.6420  1.0412 -1.7352
 7011SOL    HW227892   8.602   3.765   2.411 -2.4453  1.1123 -0.6865
 7012SOL     OW27893   2.996   3.766   6.178  0.0989 -0.1000  0.0455
 7012SOL    HW127894   3.012   3.694   6.117  0.6872 -1.2951  1.5432
 7012SOL    HW227895   2.906   3.751   6.210  0.3068 -0.3337  0.5382
 7013SOL     OW27896  10.414   6.062   4.517  0.1041 -0.5010  0.0204
 7013SOL    HW127897  10.486   6.103   4.564 -0.1466 -0.8834  0.7476
 7013SOL    HW227898  10.390   5.986   4.571  0.0022 -1.1162 -0.8601
 7014SOL     OW27899   7.914   7.245   9.777 -0.4117 -0.4425  0.3549
 7014SOL    HW127900   7.953   7.330   9.798  0.9919 -0.8854 -0.3168
 7014SOL    HW227901   7.977   7.181   9.810 -1.6210 -1.2429  1.1756
 7015SOL     OW27902   0.810   6.238   9.791 -0.1000 -0.2770  0.0185
 7015SOL    HW127903   0.745   6.299   9.755  0.1230  0.7857  1.3590
 7015SOL    HW227904   0.888   6.252   9.737 -0.7036 -1.0130 -1.1067
 7016SOL     OW27905   9.288  10.871   1.091 -0.0702 -0.1916 -0.0893
 7016SOL    HW127906   9.243  10.954   1.110 -0.8277 -0.6863  0.3386
 7016SOL    HW227907   9.282  10.861   0.996  0.0190  0.2386 -0.1413
 7017SOL     OW27908   6.052  11.616   8.283 -0.2561  0.3112 -0.4729
 7017SOL    HW127909   6.146  11.602   8.281 -0.0389  1.6258 -0.6052
 7017SOL    HW227910   6.027  11.627   8.191 -0.7740 -1.3352 -0.5552
 7018SOL     OW27911   7.767  12.049   9.782  0.0394  0.0948 -0.2190
 7018SOL    HW127912   7.741  12.037   9.690  2.6386  0.1583 -1.0494
 7018SOL    HW227913   7.862  12.041   9.781  0.0904 -0.7669  2.6404
 7019SOL     OW27914   2.003   6.840   5.367  0.0179  0.2773  0.6281
 7019SOL    HW127915   1.940   6.786   5.320 -0.2639  1.1242  0.0151
 7019SOL    HW227916   2.042   6.897   5.300  0.6580  0.5097  1.1732
 7020SOL     OW27917  11.102   8.899   4.108  0.1753  0.1678  0.6341
 7020SOL    HW127918  11.092   8.806   4.130  0.4298 -0.3762 -1.3863
 7020SOL    HW227919  11.044   8.913   4.033 -0.7243  1.9409  1.5870
 7021SOL     OW27920   1.539  10.259  10.675  0.1750 -0.1544 -0.5442
 7021SOL    HW127921   1.532  10.286  10.767  0.5230 -1.4793 -0.1067
 7021SOL    HW227922   1.459  10.208  10.659  0.6445 -0.8919 -0.6208
 7022SOL     OW27923   4.953   6.897   8.795  0.0932 -0.1085  0.2158
 7022SOL    HW127924   4.873   6.945   8.815 -0.2982 -0.1683 -1.1021
 7022SOL    HW227925   4.923   6.808   8.773  0.1678  0.4789 -2.7520
 7023SOL     OW27926   7.036   2.328   0.596 -0.7185  0.8193  0.1168
 7023SOL    HW127927   6.968   2.315   0.530 -1.0321  0.4860  0.4967
 7023SOL    HW227928   7.039   2.422   0.611 -0.0400  0.9903 -1.0021
 7024SOL     OW27929  12.467   6.841  11.105 -0.5059  0.0616 -0.0797
 7024SOL    HW127930  12.431   6.900  11.171  1.3446 -1.1934  2.2160
 7024SOL    HW227931  12.430   6.756  11.127 -1.4528 -0.0513 -1.9922
 7025SOL     OW27932   1.489   6.645  12.273  0.3194  0.2533  0.3660
 7025SOL    HW127933   1.470   6.636  12.180 -0.0359 -0.7109  0.5237
 7025SOL    HW227934   1.553   6.576  12.292 -1.0559 -0.8425  1.2156
 7026SOL     OW27935   6.224  10.341   1.798 -0.2974  0.2304  0.1537
 7026SOL    HW127936   6.263  10.259   1.828  0.4010 -0.0636 -1.4515
 7026SOL    HW227937   6.297  10.391   1.762 -1.0261  0.7160 -0.6876
 7027SOL     OW27938   1.326   6.456   8.874  0.1261  0.1474 -0.1967
 7027SOL    HW127939   1.408   6.407   8.871  0.2349  0.3598 -1.6304
 7027SOL    HW227940   1.269   6.410   8.812  0.2343  1.7670 -1.5738
 7028SOL     OW27941   4.212   4.093   2.555  0.3026 -0.3724 -0.0489
 7028SOL    HW127942   4.226   4.060   2.644  0.3371  0.4458  0.2509
 7028SOL    HW227943   4.259   4.030   2.499  0.0488 -1.0470  0.4775
 7029SOL     OW27944   8.804  11.604   5.362 -0.4565  0.0215 -0.0491
 7029SOL    HW127945   8.896  11.630   5.359 -0.6525  0.7311 -0.1323
 7029SOL    HW227946   8.783  11.575   5.273 -0.3940  0.1422 -0.1022
 7030SOL     OW27947   8.226   2.057  11.260 -0.5164  0.5361  0.2581
 7030SOL    HW127948   8.265   1.992  11.202  0.9487  0.5473  1.1775
 7030SOL    HW227949   8.131   2.047  11.248 -0.2938 -1.0917 -0.3448
 7031SOL     OW27950   2.423   7.155  10.407 -0.8876  0.1119  0.0817
 7031SOL    HW127951   2.437   7.108  10.325 -0.0705 -1.4910  1.0904
 7031SOL    HW227952   2.384   7.090  10.465 -2.3721  1.4850  0.7106
 7032SOL     OW27953   1.556   3.057   1.313 -0.0412  0.4735 -0.2950
 7032SOL    HW127954   1.485   2.995   1.295  0.4364 -0.3295  0.5079
 7032SOL    HW227955   1.626   3.003   1.349  0.6220  1.4003 -0.1674
 7033SOL     OW27956   8.077   3.665   3.171 -0.2759 -0.0437  0.3269
 7033SOL    HW127957   8.104   3.703   3.088 -0.2673  1.1095  0.8403
 7033SOL    HW227958   8.158   3.634   3.211 -0.1865  0.0594  0.2271
 7034SOL     OW27959   9.702   5.185   5.783  0.0706  0.3469 -0.5238
 7034SOL    HW127960   9.615   5.151   5.804  0.5069 -1.2837 -1.1695
 7034SOL    HW227961   9.761   5.140   5.843  0.5939  0.5063 -0.9059
 7035SOL     OW27962   3.506  12.395   1.172  0.0139  0.9857 -0.2283
 7035SOL    HW127963   3.547  12.428   1.252  1.8398  0.9207 -1.0741
 7035SOL    HW227964   3.549  12.443   1.102  0.6580 -1.0678 -1.3242
 7036SOL     OW27965   9.960   4.113  10.239  0.3311  0.0349 -0.2598
 7036SOL    HW127966  10.042   4.162  10.239  0.9629 -0.8692 -2.6433
 7036SOL    HW227967   9.987   4.021  10.235 -0.7485 -0.2545 -1.9142
 7037SOL     OW27968   7.078  12.171   2.017 -0.2601 -0.4555  0.2731
 7037SOL    HW127969   7.017  12.100   1.998 -0.9227  0.4145 -0.9939
 7037SOL    HW227970   7.069  12.232   1.943  2.3064 -0.3739 -0.0671
 7038SOL     OW27971   9.037   4.957   9.115 -0.4063 -0.4033  0.2456
 7038SOL    HW127972   8.982   5.021   9.159 -0.3807 -0.9675  1.1224
 7038SOL    HW227973   9.121   4.963   9.161  0.5140  0.9003 -1.4775
 7039SOL     OW27974   7.238   3.447   9.072 -0.0359  0.0976 -0.3814
 7039SOL    HW127975   7.276   3.532   9.050 -1.1674  0.9666  0.8972
 7039SOL    HW227976   7.144   3.464   9.080 -0.2337 -1.1964  0.2945
 7040SOL     OW27977   8.366   1.139  10.562  0.2322  0.3093  0.4770
 7040SOL    HW127978   8.282   1.114  10.600 -1.4442  0.1900 -2.8941
 7040SOL    HW227979   8.388   1.068  10.502  1.5383  1.4135 -0.4400
 7041SOL     OW27980   2.314   0.487   2.949 -0.0057 -0.0897  0.2822
 7041SOL    HW127981   2.315   0.457   2.858  0.3555  0.2691  0.1651
 7041SOL    HW227982   2.367   0.422   2.996  2.1596  1.1824 -0.2509
 7042SOL     OW27983   6.385  11.703   6.100  0.0045 -0.2551 -0.2089
 7042SOL    HW127984   6.409  11.621   6.057 -0.3460 -1.3158  1.5130
 7042SOL    HW227985   6.392  11.684   6.194  0.2572  1.7997  0.2405
 7043SOL     OW27986   7.192   0.564  11.003 -0.0175  0.0245  0.3633
 7043SOL    HW127987   7.217   0.478  11.038 -1.7833  0.0583  1.8777
 7043SOL    HW227988   7.113   0.587  11.052 -0.8515  1.5296 -1.5730
 7044SOL     OW27989   0.518   1.704  10.615 -0.1733  0.5766  0.2885
 7044SOL    HW127990   0.539   1.779  10.559 -0.2142  1.5547  1.5292
 7044SOL    HW227991   0.434   1.727  10.654 -0.3435 -0.2785  0.4301
 7045SOL     OW27992   0.326   8.060   7.823  0.2507 -0.0195 -0.4634
 7045SOL    HW127993   0.269   8.134   7.843  0.4750  0.5480 -1.8542
 7045SOL    HW227994   0.347   8.023   7.909 -1.3800  0.3655  0.1367
 7046SOL     OW27995   6.859   2.599   4.908  0.4170 -0.1086 -0.0786
 7046SOL    HW127996   6.796   2.647   4.962 -0.7887  0.6744 -2.0621
 7046SOL    HW227997   6.910   2.547   4.970 -0.2600  1.4430  1.8693
 7047SOL     OW27998   1.380   8.913  10.686 -0.1638  0.1295 -0.3951
 7047SOL    HW127999   1.332   8.833  10.707  0.1594  0.2566  0.8768
 7047SOL    HW228000   1.468   8.883  10.663 -0.5752 -0.0278 -1.8836
 7048SOL     OW28001   9.174   6.345   9.668  0.0047  0.2345  0.1907
 7048SOL    HW128002   9.257   6.302   9.689 -0.6979 -0.7626  1.0252
 7048SOL    HW228003   9.161   6.326   9.575  0.3777 -0.2017  0.2229
 7049SOL     OW28004   8.215  11.617   3.732 -0.1023 -0.1706  0.1453
 7049SOL    HW128005   8.271  11.540   3.746 -0.0692 -0.2367 -0.3328
 7049SOL    HW228006   8.137  11.582   3.689  0.2320  0.1618 -0.7594
 7050SOL     OW28007   4.273  10.605  11.884 -0.5235 -0.0617  0.7619
 7050SOL    HW128008   4.340  10.599  11.952 -0.5654 -1.1142  0.7373
 7050SOL    HW228009   4.323  10.606  11.802 -0.5140 -1.1502  0.7299
 7051SOL     OW28010   2.330   0.532  10.090 -0.7994  0.2828  0.0964
 7051SOL    HW128011   2.324   0.477  10.168 -0.6713  0.8416  0.5019
 7051SOL    HW228012   2.239   0.556  10.071 -0.9931 -0.9856 -0.7599
 7052SOL     OW28013   9.022   6.389  12.185  0.3159  0.3565  0.2398
 7052SOL    HW128014   9.069   6.307  12.168 -1.4998 -0.3765 -1.4988
 7052SOL    HW228015   9.085   6.442  12.235  2.4939 -1.0679 -0.8542
 7053SOL     OW28016   7.386   0.772   1.720  0.6815  0.0322  0.3044
 7053SOL    HW128017   7.343   0.854   1.745  0.1861 -0.0739 -0.1687
 7053SOL    HW228018   7.370   0.765   1.626  1.7720  0.0002  0.1133
 7054SOL     OW28019   1.261   4.154   7.510  0.3078  0.6466  0.3213
 7054SOL    HW128020   1.291   4.078   7.460 -0.4315  1.7211 -1.8758
 7054SOL    HW228021   1.342   4.197   7.539  0.7300 -1.0058  1.7259
 7055SOL     OW28022   2.637   0.664   0.460 -0.3165 -0.0297  0.0973
 7055SOL    HW128023   2.698   0.736   0.446 -0.4949  0.1131  0.0492
 7055SOL    HW228024   2.652   0.605   0.387 -0.2349  0.0053  0.0858
 7056SOL     OW28025   3.227   7.257  11.032 -0.1253  0.1308  0.0060
 7056SOL    HW128026   3.181   7.180  11.068  1.6027 -0.8669  0.1821
 7056SOL    HW228027   3.201   7.258  10.940 -1.1131  0.0706  0.2673
 7057SOL     OW28028   4.796   0.378   1.712 -0.1077 -0.4427 -0.1943
 7057SOL    HW128029   4.852   0.455   1.702  0.9196 -1.0904  0.2973
 7057SOL    HW228030   4.713   0.411   1.744  0.3221  0.4612  0.0150
 7058SOL     OW28031   4.219  11.922   7.934 -0.0067  0.4927 -0.1627
 7058SOL    HW128032   4.276  11.857   7.892 -2.7142 -1.3339 -1.2612
 7058SOL    HW228033   4.231  12.002   7.882  0.5910 -0.2150 -1.1546
 7059SOL     OW28034   7.031  10.515   0.590  0.6279  0.1659 -0.0764
 7059SOL    HW128035   7.124  10.518   0.567  0.9108  2.9969  1.0140
 7059SOL    HW228036   7.024  10.442   0.651  2.0158 -0.4792 -0.6465
 7060SOL     OW28037   6.859   3.003   4.829  0.1607  0.8007 -0.3983
 7060SOL    HW128038   6.916   2.929   4.810 -0.7152  0.6884 -3.0077
 7060SOL    HW228039   6.918   3.077   4.839  0.8908  0.2652 -0.6925
 7061SOL     OW28040   5.564   2.537  11.819  0.1366  0.0470  0.0906
 7061SOL    HW128041   5.570   2.448  11.855 -2.4449  0.2022  1.1370
 7061SOL    HW228042   5.551   2.593  11.896 -3.3073  0.6742 -0.7616
 7062SOL     OW28043  10.901   3.994   6.767  0.3374  0.4608 -0.7119
 7062SOL    HW128044  10.889   3.906   6.731 -1.4373  0.6519 -0.6905
 7062SOL    HW228045  10.992   4.017   6.746  0.8048 -1.3229 -0.7991
 7063SOL     OW28046   7.705   2.339   1.084 -0.3860  0.3913 -0.0119
 7063SOL    HW128047   7.646   2.354   1.158 -0.5351  0.0359 -0.0541
 7063SOL    HW228048   7.704   2.244   1.072  2.0583  0.1006  1.5023
 7064SOL     OW28049   0.955  12.456  12.159 -0.8874 -0.4726 -0.2320
 7064SOL    HW128050   0.875  12.456  12.108 -1.3512  1.2526  0.4257
 7064SOL    HW228051   0.959  12.544  12.198  1.0836 -0.6618  0.1091
 7065SOL     OW28052   4.418   4.302   4.599  0.5482 -0.0294 -0.1189
 7065SOL    HW128053   4.322   4.296   4.603  0.6449 -2.3421  0.2002
 7065SOL    HW228054   4.447   4.265   4.682  1.7504  1.0671 -0.0189
 7066SOL     OW28055   2.961   2.600   3.876 -0.0803 -0.1276 -0.1873
 7066SOL    HW128056   2.973   2.613   3.782 -2.7150 -1.1895 -0.7749
 7066SOL    HW228057   2.913   2.678   3.905 -0.0007 -0.1877  0.1130
 7067SOL     OW28058   3.890  10.869   3.613 -0.1466  0.0293  0.0821
 7067SOL    HW128059   3.978  10.833   3.601  0.6384  1.4710  1.1077
 7067SOL    HW228060   3.834  10.793   3.629  1.1003 -0.8524  0.4227
 7068SOL     OW28061   2.214   5.759   4.802 -0.2750 -0.3605 -0.4904
 7068SOL    HW128062   2.208   5.668   4.773  0.0352 -0.6977  0.4569
 7068SOL    HW228063   2.125   5.780   4.832 -0.5540 -0.0655 -1.5005
 7069SOL     OW28064   7.415   8.821   3.394 -0.8179 -0.0682  0.2372
 7069SOL    HW128065   7.435   8.890   3.457 -1.6911 -1.3376  1.9997
 7069SOL    HW228066   7.395   8.867   3.313 -0.6465  1.6974  1.1552
 7070SOL     OW28067   7.579  10.826   3.159  0.2123  0.3134 -0.5743
 7070SOL    HW128068   7.631  10.824   3.078  0.7747 -2.3130 -0.2389
 7070SOL    HW228069   7.508  10.765   3.143  1.2100 -1.4827  1.3810
 7071SOL     OW28070   1.110   6.654  10.683 -0.1901 -0.0216 -0.1358
 7071SOL    HW128071   1.156   6.631  10.602 -1.1134 -0.7377 -0.4768
 7071SOL    HW228072   1.022   6.618  10.671 -0.8029  1.1970  0.5622
 7072SOL     OW28073   6.854   9.456  10.810 -0.3921 -0.4939 -0.1564
 7072SOL    HW128074   6.766   9.462  10.773 -0.2355  0.6398 -0.3694
 7072SOL    HW228075   6.891   9.377  10.769 -1.1653 -0.7723 -0.3499
 7073SOL     OW28076   7.881   8.788   3.044 -0.1095  0.2696  0.3174
 7073SOL    HW128077   7.845   8.874   3.021 -3.0722 -0.6361  1.0744
 7073SOL    HW228078   7.804   8.731   3.051  1.6150 -2.1135  1.2868
 7074SOL     OW28079   7.998   0.816  10.536 -0.1795  0.3923  0.6239
 7074SOL    HW128080   7.997   0.841  10.628 -2.7757  0.1505  0.7463
 7074SOL    HW228081   8.021   0.723  10.537 -0.5269  0.3069  1.0691
 7075SOL     OW28082  10.300   7.750   0.083  0.1183 -0.0268 -0.2928
 7075SOL    HW128083  10.299   7.757   0.179  1.2096 -0.7043 -0.2101
 7075SOL    HW228084  10.349   7.826   0.054  1.0369 -0.5761 -0.2097
 7076SOL     OW28085  10.098   4.805   9.667 -0.1940 -0.2109 -0.0878
 7076SOL    HW128086  10.141   4.890   9.664 -0.0903 -0.1456  1.6890
 7076SOL    HW228087  10.169   4.742   9.651 -0.1276  0.0076 -0.6604
 7077SOL     OW28088   8.515   8.101   2.405 -0.5813 -0.0996  0.2971
 7077SOL    HW128089   8.478   8.034   2.463 -2.2964  0.6077  0.0916
 7077SOL    HW228090   8.490   8.074   2.317  0.3763 -0.1763  0.0372
 7078SOL     OW28091   4.882   9.502   5.531 -0.5799 -0.4160 -0.1774
 7078SOL    HW128092   4.944   9.546   5.474 -0.1931 -1.3036 -0.4642
 7078SOL    HW228093   4.916   9.413   5.539 -1.6783 -0.8487 -0.1422
 7079SOL     OW28094  10.798   5.352   1.882 -0.4920 -0.3318  0.3338
 7079SOL    HW128095  10.755   5.330   1.964 -0.3156 -0.9338  0.2714
 7079SOL    HW228096  10.822   5.444   1.891 -2.0809  0.1246  0.2332
 7080SOL     OW28097   7.904   1.217  10.753  0.9452 -0.3610 -0.0763
 7080SOL    HW128098   7.822   1.263  10.772  0.8716 -0.4452 -0.1906
 7080SOL    HW228099   7.891   1.179  10.667  1.5955  0.7395 -0.6873
 7081SOL     OW28100   9.717   8.342   5.207  0.2893  0.3702 -0.1401
 7081SOL    HW128101   9.624   8.360   5.223  0.2415 -0.6629  0.9113
 7081SOL    HW228102   9.763   8.419   5.239 -0.1545  0.5540  0.0599
 7082SOL     OW28103   0.616  12.272   9.878 -0.1931 -0.7347  0.1271
 7082SOL    HW128104   0.685  12.336   9.861 -0.2158 -0.9333 -0.8279
 7082SOL    HW228105   0.625  12.250   9.970 -0.7813  1.3225  0.7113
 7083SOL     OW28106   2.220   2.849  11.466  0.3524 -0.0838 -0.0647
 7083SOL    HW128107   2.292   2.815  11.519  0.8898  0.5188 -0.3925
 7083SOL    HW228108   2.160   2.775  11.456  1.4755 -0.9325 -0.7519
 7084SOL     OW28109  10.153   5.239   8.914 -0.1683  0.1994 -0.2214
 7084SOL    HW128110  10.073   5.277   8.878 -0.0465 -0.3937 -1.1603
 7084SOL    HW228111  10.217   5.309   8.909 -0.5812  0.6366  0.4081
 7085SOL     OW28112   7.645   0.270   4.618 -0.3663 -0.1174 -0.2104
 7085SOL    HW128113   7.621   0.362   4.632  0.2073 -0.0346  0.2959
 7085SOL    HW228114   7.705   0.251   4.690  1.4064 -0.1833 -1.6514
 7086SOL     OW28115   4.940   4.438   1.488  0.1847  0.3307  0.0073
 7086SOL    HW128116   4.862   4.384   1.478 -0.9097  2.0337 -1.3954
 7086SOL    HW228117   4.998   4.410   1.417  0.6173 -0.5186  0.6785
 7087SOL     OW28118   4.075   6.017   7.980  0.1135  0.5668 -0.0319
 7087SOL    HW128119   4.149   5.960   8.003 -0.6757 -0.8709 -0.9552
 7087SOL    HW228120   4.108   6.106   7.998  2.0142 -0.0326 -0.2616
 7088SOL     OW28121   3.022   5.175   3.640  0.9500  0.3880 -0.3278
 7088SOL    HW128122   3.011   5.146   3.731  1.3148 -0.0863 -0.4293
 7088SOL    HW228123   2.963   5.250   3.632 -1.5335 -1.4447 -0.5660
 7089SOL     OW28124   8.037   3.980   7.380 -0.0983 -0.1280 -0.3923
 7089SOL    HW128125   8.055   3.980   7.286 -1.6065  0.8012 -0.7116
 7089SOL    HW228126   8.016   4.071   7.401  1.4634 -0.0709  1.1301
 7090SOL     OW28127  10.391   4.139   3.616 -0.1301 -0.3878  0.5422
 7090SOL    HW128128  10.405   4.215   3.673  2.1268 -1.1285  1.1001
 7090SOL    HW228129  10.326   4.086   3.661 -1.7951  1.1960  0.1112
 7091SOL     OW28130   1.500  11.477   2.588 -0.0840 -0.4182 -0.4647
 7091SOL    HW128131   1.433  11.475   2.519  1.9365 -1.2262 -2.5209
 7091SOL    HW228132   1.565  11.540   2.557  2.8107 -3.5828 -1.3221
 7092SOL     OW28133   2.108  10.451  11.425  0.0220  0.2545 -1.4720
 7092SOL    HW128134   2.079  10.380  11.483 -2.2641  0.6327 -2.0579
 7092SOL    HW228135   2.195  10.423  11.396 -1.1251 -2.8036 -2.3805
 7093SOL     OW28136  11.534   2.600   9.430 -0.0600  0.5844  0.5114
 7093SOL    HW128137  11.471   2.534   9.399  0.9052 -0.1428  0.0274
 7093SOL    HW228138  11.539   2.585   9.524 -0.3545  0.4155  0.5040
 7094SOL     OW28139   3.858   4.173  11.320  0.0793 -0.3467  0.0082
 7094SOL    HW128140   3.872   4.088  11.364 -1.0496 -0.6848 -0.2472
 7094SOL    HW228141   3.836   4.233  11.391  0.1083 -0.4491  0.1043
 7095SOL     OW28142   4.055  12.161   0.595 -0.6109  0.1038  0.0249
 7095SOL    HW128143   4.134  12.175   0.543 -0.8888 -0.6309 -0.6256
 7095SOL    HW228144   4.083  12.108   0.669 -0.7343 -1.4954 -1.0172
 7096SOL     OW28145   1.258  10.409   5.294  0.0842 -0.0503 -0.0031
 7096SOL    HW128146   1.336  10.355   5.307  0.3945  0.1649 -0.8650
 7096SOL    HW228147   1.201  10.357   5.238  0.5281  0.6049 -1.1171
 7097SOL     OW28148  10.204   4.013   1.362 -0.0384  0.2814 -0.2063
 7097SOL    HW128149  10.299   3.999   1.362 -0.0056  0.5006 -0.4592
 7097SOL    HW228150  10.190   4.080   1.429 -0.0581 -0.0273  0.1007
 7098SOL     OW28151   1.549   4.024  12.007 -0.2284 -0.5061  0.3828
 7098SOL    HW128152   1.595   4.084  11.948 -0.7406 -0.6589 -0.1802
 7098SOL    HW228153   1.485   4.079  12.051  0.0311 -0.4292  0.6720
 7099SOL     OW28154  10.874   3.853  12.063 -0.6852 -0.1885 -0.1016
 7099SOL    HW128155  10.912   3.901  11.990  1.2078 -0.6266  0.5491
 7099SOL    HW228156  10.820   3.786  12.022 -0.3264  0.1031 -1.0791
 7100SOL     OW28157   6.410   9.090   2.547  0.5419  0.5686 -0.3770
 7100SOL    HW128158   6.395   9.008   2.499  0.0382 -0.6605  1.7561
 7100SOL    HW228159   6.336   9.096   2.607  2.2966  0.7484  1.9055
 7101SOL     OW28160   8.304   0.609   0.829 -0.4074  0.1316 -0.2302
 7101SOL    HW128161   8.267   0.526   0.859 -1.1579  0.2631 -0.7618
 7101SOL    HW228162   8.325   0.656   0.909 -2.1055  0.3563  0.1255
 7102SOL     OW28163   1.468   9.911   9.631 -0.2601  0.9351 -0.2826
 7102SOL    HW128164   1.382   9.880   9.602 -0.7446  1.4137  0.5860
 7102SOL    HW228165   1.455   9.932   9.723  1.0791  0.0010  0.1496
 7103SOL     OW28166   6.802  11.422   9.184 -0.1247 -0.1291 -0.6937
 7103SOL    HW128167   6.839  11.505   9.213  1.2105 -0.0707 -2.3933
 7103SOL    HW228168   6.830  11.359   9.250 -1.4812  0.7917  0.8276
 7104SOL     OW28169  11.853   0.545   9.928 -0.2799  0.4275 -0.0081
 7104SOL    HW128170  11.776   0.527   9.983 -2.4435  1.9666 -2.2868
 7104SOL    HW228171  11.903   0.609   9.978  1.3424 -2.7851  2.8929
 7105SOL     OW28172  10.425   9.214   4.840 -0.5875  0.5501 -0.3887
 7105SOL    HW128173  10.486   9.272   4.794 -1.7603  0.8050 -1.6937
 7105SOL    HW228174  10.376   9.272   4.898 -0.3516  0.5202 -0.1564
 7106SOL     OW28175   5.101  12.069  12.535  0.7555 -0.1331  0.3293
 7106SOL    HW128176   5.181  12.087  12.486  1.2711 -1.1371  0.7720
 7106SOL    HW228177   5.032  12.112  12.485  1.6979  1.8231  0.5892
 7107SOL     OW28178   5.844   7.012  12.520 -0.1677  0.5465  0.0386
 7107SOL    HW128179   5.929   6.977  12.495 -0.2071 -0.1081  0.7625
 7107SOL    HW228180   5.840   7.000  12.615 -1.5489 -0.5531 -0.1227
 7108SOL     OW28181   3.645   9.251  10.118  0.6058 -0.4998  0.2227
 7108SOL    HW128182   3.593   9.299  10.183  1.3995 -0.3915  0.7855
 7108SOL    HW228183   3.736   9.265  10.144  0.9153 -0.9623 -0.5626
 7109SOL     OW28184  11.447   5.544   6.534  0.3253  0.0197 -0.2305
 7109SOL    HW128185  11.376   5.500   6.581  1.0278 -1.3728 -0.4342
 7109SOL    HW228186  11.419   5.636   6.529 -2.0015 -0.6765 -1.3198
 7110SOL     OW28187  10.047   9.215  10.147  0.3137  0.0993  0.0890
 7110SOL    HW128188  10.053   9.139  10.089 -1.9035 -1.6969  2.0137
 7110SOL    HW228189   9.988   9.275  10.101  1.2793  0.2669 -0.9897
 7111SOL     OW28190   1.063   6.544   4.026 -0.2163 -0.0338  0.3493
 7111SOL    HW128191   1.051   6.620   4.082  1.2313 -0.0836  0.7905
 7111SOL    HW228192   0.980   6.534   3.980 -0.7236  1.2753  0.9261
 7112SOL     OW28193   7.814  12.270   1.712 -0.2456 -0.7502  0.4622
 7112SOL    HW128194   7.792  12.220   1.790 -0.8932  0.9622  1.4271
 7112SOL    HW228195   7.889  12.324   1.739  0.0156 -0.6978 -0.3420
 7113SOL     OW28196  10.271   0.794   1.264  0.0706  0.3139 -0.4517
 7113SOL    HW128197  10.217   0.721   1.295  1.3634 -0.3283  0.3813
 7113SOL    HW228198  10.333   0.754   1.203 -0.6544  1.1196 -1.7650
 7114SOL     OW28199   4.271   3.471  11.751  0.8649  0.6486  0.2488
 7114SOL    HW128200   4.219   3.474  11.671  1.0144  0.6053  0.1495
 7114SOL    HW228201   4.361   3.480  11.721  0.8694  1.4479  0.4792
 7115SOL     OW28202   2.483   8.264   8.426 -0.5975  0.2664 -0.4700
 7115SOL    HW128203   2.389   8.260   8.437 -0.3922 -0.5733  1.2732
 7115SOL    HW228204   2.496   8.323   8.351 -2.4508  1.0257 -0.2431
 7116SOL     OW28205   4.694   6.730  11.893 -0.6746 -0.4951 -0.0546
 7116SOL    HW128206   4.741   6.647  11.886  1.8342  0.8496 -0.1045
 7116SOL    HW228207   4.602   6.706  11.878  0.0304 -3.1397 -0.7278
 7117SOL     OW28208   2.193   3.691   1.026 -0.1616  0.0760 -0.6461
 7117SOL    HW128209   2.231   3.683   1.114 -1.4167  0.0051 -0.0817
 7117SOL    HW228210   2.214   3.780   0.998  0.6134 -0.0412 -0.4628
 7118SOL     OW28211   8.882   9.903   7.785 -0.5995 -0.0632  0.2162
 7118SOL    HW128212   8.960   9.944   7.821 -0.4008 -0.8129  0.6525
 7118SOL    HW228213   8.897   9.903   7.690  0.5548 -1.4027  0.3612
 7119SOL     OW28214   2.311   2.307  12.332 -0.4436  0.1945 -0.1683
 7119SOL    HW128215   2.319   2.370  12.404 -2.6554 -0.4717  0.7345
 7119SOL    HW228216   2.399   2.304  12.294  0.3773  1.8458  1.4091
 7120SOL     OW28217   0.650  10.320   2.537  0.3339 -0.0931  0.0631
 7120SOL    HW128218   0.580  10.386   2.529  0.4422  0.0068 -0.0758
 7120SOL    HW228219   0.724  10.368   2.574  0.2182 -0.2795  0.5350
 7121SOL     OW28220   9.085   0.933  10.075  0.3577  0.1958  0.0493
 7121SOL    HW128221   9.065   0.895  10.160  0.6650  2.0829  1.0220
 7121SOL    HW228222   9.059   1.025  10.083 -0.6095  0.2103 -2.2662
 7122SOL     OW28223   3.676   5.100   9.729  0.0016  0.6663 -0.1716
 7122SOL    HW128224   3.590   5.064   9.751  0.8088 -0.0633  2.0224
 7122SOL    HW228225   3.685   5.084   9.635 -0.5324 -3.1624  0.2803
 7123SOL     OW28226   0.233   3.913  11.733  0.1133 -0.1974  0.3756
 7123SOL    HW128227   0.181   3.889  11.656 -0.1999 -0.6606  0.7258
 7123SOL    HW228228   0.321   3.927  11.699 -0.0559 -0.2485 -0.0941
 7124SOL     OW28229   7.318   5.060   3.751  0.6296 -0.1100  0.3245
 7124SOL    HW128230   7.253   5.129   3.759  0.5221 -0.0787 -0.7049
 7124SOL    HW228231   7.374   5.071   3.828  0.5177  1.0161  0.2631
 7125SOL     OW28232  10.322   2.651   3.162 -0.2956  0.1419  0.4371
 7125SOL    HW128233  10.241   2.638   3.113 -0.6999  0.4456  1.0288
 7125SOL    HW228234  10.295   2.661   3.253  0.5088 -1.1687  0.8515
 7126SOL     OW28235   5.682   7.149   3.609  0.5007  0.0722 -0.4158
 7126SOL    HW128236   5.616   7.090   3.574 -0.0987  0.8165 -0.5788
 7126SOL    HW228237   5.743   7.163   3.536  0.3710  0.0402 -0.5311
 7127SOL     OW28238   3.437   5.489   8.562  0.2360 -0.0311 -0.0369
 7127SOL    HW128239   3.429   5.474   8.468 -1.1912  0.7951 -0.0745
 7127SOL    HW228240   3.413   5.581   8.574 -0.0292 -0.2403  1.1902
 7128SOL     OW28241   2.534   8.657   6.376 -0.1597  0.0658  0.1570
 7128SOL    HW128242   2.562   8.748   6.365 -0.0391 -0.0245 -0.3146
 7128SOL    HW228243   2.536   8.642   6.470  1.7698 -0.0698  0.1284
 7129SOL     OW28244   8.750   8.688   9.318  0.2226  0.4143 -0.0687
 7129SOL    HW128245   8.718   8.688   9.228  1.3691  1.3139 -0.5000
 7129SOL    HW228246   8.695   8.624   9.363 -0.3588 -0.0588 -1.4062
 7130SOL     OW28247   0.293   8.395  10.379  0.2847 -0.0522  0.1068
 7130SOL    HW128248   0.379   8.368  10.348  0.8985  0.5885  1.1988
 7130SOL    HW228249   0.307   8.481  10.418 -0.8245 -0.0075  0.4615
 7131SOL     OW28250   1.874   2.430   6.220 -0.3144  0.0110 -1.2402
 7131SOL    HW128251   1.838   2.376   6.150  0.2156 -1.6868 -0.2582
 7131SOL    HW228252   1.809   2.500   6.233 -2.2736 -1.7637 -0.9230
 7132SOL     OW28253  11.462   9.753   7.891  0.6111  0.0186  0.2254
 7132SOL    HW128254  11.432   9.665   7.912  2.8212 -1.2195 -1.4507
 7132SOL    HW228255  11.385   9.808   7.905 -0.6534 -2.0385  1.9602
 7133SOL     OW28256   4.241  12.342   6.861  0.1893  0.3915 -0.3317
 7133SOL    HW128257   4.244  12.341   6.766 -2.7467  0.7143 -0.5122
 7133SOL    HW228258   4.236  12.250   6.886  0.8548  0.3115 -0.4825
 7134SOL     OW28259   5.888   3.883   8.114 -0.5200  0.2160  0.2052
 7134SOL    HW128260   5.982   3.889   8.132 -0.4312 -1.0628  0.2453
 7134SOL    HW228261   5.863   3.972   8.087  0.5524  0.7397  0.8540
 7135SOL     OW28262   0.919   3.723   5.544  0.5583 -0.2827  0.1513
 7135SOL    HW128263   0.877   3.770   5.616  3.2399  0.4778  1.3518
 7135SOL    HW228264   0.959   3.792   5.491  0.9353 -0.9832 -0.4890
 7136SOL     OW28265   8.704   5.405   8.306  0.3906  0.2776 -0.2159
 7136SOL    HW128266   8.711   5.484   8.360 -1.0545  0.9739 -0.9712
 7136SOL    HW228267   8.779   5.409   8.247  1.4820 -0.0288  1.1247
 7137SOL     OW28268  11.261   8.778   5.330  0.1187  0.3789  0.3293
 7137SOL    HW128269  11.295   8.822   5.408 -1.7061  1.8378  0.3543
 7137SOL    HW228270  11.244   8.688   5.359  1.1548  0.4050  1.0866
 7138SOL     OW28271   7.035  11.914   5.775  0.7136 -0.2129 -0.5322
 7138SOL    HW128272   6.981  11.989   5.748  0.2240 -0.3627  0.0225
 7138SOL    HW228273   7.022  11.908   5.870  0.9314 -0.8651 -0.5407
 7139SOL     OW28274   5.875   5.756  11.077  0.2711  0.2042  0.1242
 7139SOL    HW128275   5.945   5.704  11.116 -0.0294 -0.8641 -0.6967
 7139SOL    HW228276   5.794   5.716  11.111  0.0410  1.3761  1.0093
 7140SOL     OW28277  10.928   5.911   0.569  0.2642  0.1158 -0.2085
 7140SOL    HW128278  11.012   5.920   0.614 -0.6353 -0.2016  1.6295
 7140SOL    HW228279  10.885   5.996   0.583 -1.0758 -0.8283  1.8842
 7141SOL     OW28280  11.475   6.111   0.279  0.2872  0.2618  0.2796
 7141SOL    HW128281  11.407   6.095   0.343 -0.1063  0.0124 -0.1941
 7141SOL    HW228282  11.550   6.061   0.309  0.8062  1.7820  1.6681
 7142SOL     OW28283   4.495   9.885   5.781 -0.0834  0.0369  0.1275
 7142SOL    HW128284   4.546   9.821   5.830 -0.0791 -0.1504 -0.1161
 7142SOL    HW228285   4.406   9.876   5.814 -0.1215 -0.2372 -0.0479
 7143SOL     OW28286  10.332  12.279   1.088  0.5163  0.2636 -0.1681
 7143SOL    HW128287  10.387  12.304   1.013  1.0825 -0.6480 -0.0648
 7143SOL    HW228288  10.360  12.190   1.110 -0.2330  0.2074  0.5992
 7144SOL     OW28289   8.490   2.280   3.293 -0.1002  0.3439  0.1157
 7144SOL    HW128290   8.475   2.351   3.354 -0.9232  0.5812 -0.3432
 7144SOL    HW228291   8.436   2.208   3.326 -2.5269  1.2237 -1.5824
 7145SOL     OW28292  11.224   5.950   1.438 -0.0114 -0.6825  0.0409
 7145SOL    HW128293  11.250   5.873   1.388  1.4194 -1.1173  1.3832
 7145SOL    HW228294  11.229   5.922   1.529 -1.1310  0.5131  0.4946
 7146SOL     OW28295   4.147   7.605   7.825 -0.1761  0.0934  0.1611
 7146SOL    HW128296   4.052   7.616   7.828 -0.3530 -1.0820 -0.7432
 7146SOL    HW228297   4.162   7.542   7.755  1.3232  0.7728 -0.1657
 7147SOL     OW28298   3.083   5.087   5.191 -0.5882  0.3931 -0.0889
 7147SOL    HW128299   3.071   4.997   5.222  0.1737  0.9726  2.1017
 7147SOL    HW228300   3.007   5.134   5.227 -1.3361  0.5590 -1.7661
 7148SOL     OW28301   2.324   3.415  12.173 -0.8927  0.3594 -0.1186
 7148SOL    HW128302   2.333   3.346  12.239 -0.1701  0.5297 -0.0345
 7148SOL    HW228303   2.230   3.433  12.171 -0.9444  0.2516  0.7603
 7149SOL     OW28304   9.115   1.142   6.144 -0.1995 -1.0813 -0.3429
 7149SOL    HW128305   9.164   1.191   6.211 -0.7911 -1.2482  0.2147
 7149SOL    HW228306   9.110   1.202   6.069  2.3935 -1.6781 -1.1142
 7150SOL     OW28307   7.588   9.369   4.280 -0.0966 -0.2346 -0.5351
 7150SOL    HW128308   7.535   9.431   4.230  0.6592  0.3897 -0.5829
 7150SOL    HW228309   7.655   9.423   4.322 -0.9676 -0.6893  1.5402
 7151SOL     OW28310   9.152   4.069  12.485 -0.4247 -0.3410 -0.1452
 7151SOL    HW128311   9.169   4.017  12.563 -0.2790  1.2211  0.8938
 7151SOL    HW228312   9.239   4.083  12.446 -0.3957 -0.2891 -0.0600
 7152SOL     OW28313   5.345   6.735  10.946 -0.1797  0.5037  0.1513
 7152SOL    HW128314   5.287   6.695  10.881 -0.8187  1.2106  0.2597
 7152SOL    HW228315   5.353   6.826  10.917  0.5990  0.4960  0.3349
 7153SOL     OW28316   5.447   7.812   7.208  0.4402  0.4450 -0.4317
 7153SOL    HW128317   5.442   7.879   7.275  0.1417 -0.1555  0.1559
 7153SOL    HW228318   5.443   7.729   7.256 -1.0406 -0.0004 -1.2777
 7154SOL     OW28319   8.867   6.636   5.054 -0.6574  0.3752 -0.2696
 7154SOL    HW128320   8.836   6.560   5.103  2.0043 -0.0344  0.9322
 7154SOL    HW228321   8.943   6.604   5.005  0.4879  2.2019  0.2019
 7155SOL     OW28322  10.741   0.484   2.378 -0.1342 -0.3753  0.0409
 7155SOL    HW128323  10.824   0.528   2.392 -1.3658  3.0440 -2.2681
 7155SOL    HW228324  10.763   0.391   2.379  3.5371  0.3487  0.3057
 7156SOL     OW28325  11.506   2.501   4.661  0.0340 -0.3605  0.2102
 7156SOL    HW128326  11.592   2.494   4.703  0.2922 -1.0481 -0.4016
 7156SOL    HW228327  11.519   2.565   4.591 -0.2369  0.3317  0.7892
 7157SOL     OW28328   0.411   3.490   2.127  0.0211 -0.2448 -0.2784
 7157SOL    HW128329   0.321   3.472   2.099 -0.2558 -0.1661  0.5431
 7157SOL    HW228330   0.422   3.584   2.114  0.4124 -0.4422 -1.5554
 7158SOL     OW28331   6.874   2.013  11.946  0.1500  0.0257 -0.6505
 7158SOL    HW128332   6.936   2.059  12.001  0.0608 -0.9899  0.3380
 7158SOL    HW228333   6.805   2.077  11.929  0.7933  0.7367 -0.6350
 7159SOL     OW28334   0.016   0.068  10.775  0.3709  0.0474  0.0567
 7159SOL    HW128335   0.045   0.043  10.863 -0.7468 -0.3084  0.3446
 7159SOL    HW228336  -0.056   0.008  10.756  1.0678 -0.3724 -1.4246
 7160SOL     OW28337   6.137  10.127   2.926 -0.0395 -0.4404  0.0056
 7160SOL    HW128338   6.188  10.059   2.969 -1.3185 -0.9698  0.7577
 7160SOL    HW228339   6.049  10.089   2.918 -0.1685  0.1495 -1.8883
 7161SOL     OW28340   9.345   4.605   1.496  0.4480  0.2169 -0.3585
 7161SOL    HW128341   9.308   4.564   1.417  1.8600  1.3005 -1.6485
 7161SOL    HW228342   9.305   4.692   1.498  1.3662  0.6552 -0.6229
 7162SOL     OW28343   8.479   1.381  10.224 -0.2431  0.2276  0.0275
 7162SOL    HW128344   8.445   1.466  10.249 -0.7015  0.0635 -0.0329
 7162SOL    HW228345   8.420   1.318  10.265 -0.5868 -0.0496 -0.8766
 7163SOL     OW28346   7.097   5.994  11.123  0.1787  0.3923  0.1533
 7163SOL    HW128347   7.187   5.965  11.107  0.4308  1.5506 -0.6803
 7163SOL    HW228348   7.097   6.087  11.098 -1.1116  0.5552  0.6830
 7164SOL     OW28349  10.945   6.289   0.587 -0.1677  0.3150  0.2007
 7164SOL    HW128350  10.909   6.275   0.499 -1.9231  0.2640  0.8905
 7164SOL    HW228351  11.000   6.367   0.578 -1.0186  0.8215 -0.7547
 7165SOL     OW28352  10.971   1.243  11.932  0.1504  0.0201  0.1948
 7165SOL    HW128353  11.026   1.317  11.958 -1.1347  1.4737 -1.0275
 7165SOL    HW228354  10.976   1.182  12.006  2.4367  0.6059  0.6034
 7166SOL     OW28355   5.969   6.505   2.299  0.0058 -0.0064 -0.2009
 7166SOL    HW128356   5.900   6.480   2.360  1.2677 -0.8040  0.9454
 7166SOL    HW228357   6.047   6.459   2.330  1.2977  1.6119 -0.8825
 7167SOL     OW28358   5.012   2.391  12.027  0.3667  0.3166  0.4821
 7167SOL    HW128359   4.949   2.412  11.959  0.2002 -0.3908  0.4064
 7167SOL    HW228360   4.981   2.438  12.104 -0.6519 -0.5545  0.6279
 7168SOL     OW28361  12.034   3.302   8.300  0.3604 -0.1360  0.2441
 7168SOL    HW128362  12.095   3.342   8.362 -0.0040  1.1806 -0.2012
 7168SOL    HW228363  11.951   3.349   8.315  0.3748  0.5341 -1.4977
 7169SOL     OW28364   2.622   0.178   7.416  0.2020  0.0918 -0.0251
 7169SOL    HW128365   2.688   0.230   7.462  0.2390 -0.3123  0.3948
 7169SOL    HW228366   2.595   0.113   7.481  0.8229 -0.9976 -0.8238
 7170SOL     OW28367   2.736   7.024   0.526 -0.4320  0.2894 -0.3121
 7170SOL    HW128368   2.767   7.100   0.575  0.4180 -0.8570  1.0021
 7170SOL    HW228369   2.704   7.060   0.444  0.7527  1.9706 -0.0892
 7171SOL     OW28370   7.477   4.181   0.258  0.4040 -0.3839  0.1259
 7171SOL    HW128371   7.398   4.159   0.308 -0.0118  1.2496  0.2195
 7171SOL    HW228372   7.470   4.129   0.178 -1.0218  0.0997 -0.0813
 7172SOL     OW28373   5.613   7.267   5.399  0.3637 -0.5659 -0.3473
 7172SOL    HW128374   5.595   7.177   5.424 -0.6944 -0.4894 -0.7642
 7172SOL    HW228375   5.634   7.263   5.306 -3.1622 -0.0606 -1.3172
 7173SOL     OW28376   0.805   8.294   3.749 -0.2085  0.6128 -0.1764
 7173SOL    HW128377   0.889   8.321   3.785 -0.0232 -0.2077  0.0423
 7173SOL    HW228378   0.823   8.275   3.657 -0.0967  0.2228 -0.0772
 7174SOL     OW28379   9.177   8.240   2.904  0.4112  0.4609 -0.0680
 7174SOL    HW128380   9.250   8.239   2.842  0.7291 -0.2060  0.3092
 7174SOL    HW228381   9.099   8.230   2.850  0.6841 -0.1250 -0.3570
 7175SOL     OW28382  12.109  12.014   8.125 -0.3517 -0.1739  0.5342
 7175SOL    HW128383  12.025  12.018   8.078 -0.1627 -1.4728  0.0365
 7175SOL    HW228384  12.174  12.043   8.061 -0.1932 -1.1604  0.2245
 7176SOL     OW28385   0.621   3.621  10.649  0.1056 -0.5483 -0.1535
 7176SOL    HW128386   0.621   3.662  10.735 -0.8871 -1.8424  0.4994
 7176SOL    HW228387   0.568   3.679  10.594 -0.9463 -0.7281  0.6469
 7177SOL     OW28388   3.997   3.071   9.589 -0.2655 -0.1877 -0.9774
 7177SOL    HW128389   4.084   3.106   9.572  0.2712 -1.1869 -0.4173
 7177SOL    HW228390   3.989   2.996   9.529 -0.0312 -1.1461  0.1439
 7178SOL     OW28391   2.123   8.181  11.763 -0.1428 -0.0741  0.0699
 7178SOL    HW128392   2.122   8.101  11.816  0.2049  0.6911  1.2737
 7178SOL    HW228393   2.208   8.220  11.781 -0.0603  0.2505 -1.0020
 7179SOL     OW28394  11.356   9.767   3.597  0.3043 -0.1834  0.3229
 7179SOL    HW128395  11.371   9.854   3.636  1.6995  0.1107 -0.7637
 7179SOL    HW228396  11.279   9.733   3.642 -1.9018  2.6819 -0.9577
 7180SOL     OW28397   3.341   8.087   6.857  0.2340 -0.5103  0.2570
 7180SOL    HW128398   3.285   8.161   6.880 -1.4476 -0.9015 -2.1687
 7180SOL    HW228399   3.376   8.110   6.771  0.6838 -1.9829  0.0243
 7181SOL     OW28400   9.156   1.586   3.640 -0.2815  0.1130 -0.1291
 7181SOL    HW128401   9.183   1.612   3.728 -0.1376  2.4458 -0.7699
 7181SOL    HW228402   9.108   1.663   3.607  1.5561  0.2231 -2.8525
 7182SOL     OW28403   1.126  12.039   1.152  0.0975 -0.4307  0.0955
 7182SOL    HW128404   1.182  12.055   1.076 -0.3513 -0.2408 -0.2051
 7182SOL    HW228405   1.171  12.080   1.225  0.4198 -0.4054 -0.1147
 7183SOL     OW28406   5.225   7.889  10.062 -0.2924 -0.4956  0.9598
 7183SOL    HW128407   5.256   7.836  10.135 -1.8038  0.2564  2.1912
 7183SOL    HW228408   5.135   7.913  10.086 -0.6583  0.1750 -0.9254
 7184SOL     OW28409   0.334  10.351   1.738  0.2889  0.7041 -0.1589
 7184SOL    HW128410   0.427  10.340   1.757  1.0824  0.1429 -3.6691
 7184SOL    HW228411   0.320  10.446   1.741  1.1302  0.8393 -0.1720
 7185SOL     OW28412   4.369   5.930   4.692 -0.0471 -0.1216  0.4748
 7185SOL    HW128413   4.306   5.861   4.712  0.3499 -0.2274  1.3983
 7185SOL    HW228414   4.442   5.884   4.650 -0.9018  0.1080 -1.3542
 7186SOL     OW28415   2.450   5.851   7.191  0.2537 -0.2522 -0.2463
 7186SOL    HW128416   2.487   5.821   7.107  0.3406 -1.5841  0.2393
 7186SOL    HW228417   2.514   5.914   7.224 -0.4540  1.3696 -1.8109
 7187SOL     OW28418   7.549   5.843   1.256 -0.2285 -0.5992  0.2141
 7187SOL    HW128419   7.563   5.772   1.319 -0.3729 -0.4796  0.3787
 7187SOL    HW228420   7.471   5.817   1.208 -0.8063 -0.1142  0.8778
 7188SOL     OW28421   8.496   9.244  11.274 -0.4152 -0.1731  0.3632
 7188SOL    HW128422   8.498   9.149  11.260 -2.1411 -0.0526 -1.0439
 7188SOL    HW228423   8.523   9.255  11.366  1.1052 -1.8973  0.1791
 7189SOL     OW28424   4.213   4.419   6.935 -0.3514 -0.0867 -0.7585
 7189SOL    HW128425   4.253   4.421   6.848 -1.1285 -0.4907 -1.1346
 7189SOL    HW228426   4.221   4.328   6.963 -0.8114 -0.1237 -0.7458
 7190SOL     OW28427   0.605   3.237   1.329  0.1833 -0.0153 -0.3589
 7190SOL    HW128428   0.576   3.291   1.402 -0.8794  0.5215 -1.1507
 7190SOL    HW228429   0.590   3.147   1.358 -0.3402  0.1973  0.0336
 7191SOL     OW28430  10.982   3.851   9.390 -0.0354 -0.2943  0.1251
 7191SOL    HW128431  10.986   3.773   9.445  1.1092 -1.2399 -1.2374
 7191SOL    HW228432  11.052   3.839   9.326 -1.0455  0.9808 -1.2785
 7192SOL     OW28433   6.565   7.651   7.474 -0.0446 -0.0234 -0.0403
 7192SOL    HW128434   6.477   7.616   7.488 -0.8442  2.2723  1.2561
 7192SOL    HW228435   6.553   7.722   7.410  1.4930 -1.8202 -2.5113
 7193SOL     OW28436   1.612   7.818   8.829  0.0001 -0.0424 -0.4460
 7193SOL    HW128437   1.532   7.766   8.823  0.3985 -0.7106 -0.0120
 7193SOL    HW228438   1.586   7.905   8.798 -1.3218  0.2065  1.1967
 7194SOL     OW28439   6.121   5.802   0.488 -0.4077  0.0991  0.5602
 7194SOL    HW128440   6.186   5.825   0.421  1.1328 -1.0126  1.5963
 7194SOL    HW228441   6.085   5.886   0.516 -0.2261  0.6616 -0.7993
 7195SOL     OW28442  11.003   2.329  10.151  0.2487  0.2264  0.7713
 7195SOL    HW128443  11.034   2.292  10.068  0.5480 -0.9332  1.3752
 7195SOL    HW228444  10.991   2.422  10.133 -0.6068 -0.1552 -0.8331
 7196SOL     OW28445   7.818   1.710   2.873 -0.0891  0.0486 -0.3016
 7196SOL    HW128446   7.865   1.794   2.872  1.5544 -0.8051  0.8089
 7196SOL    HW228447   7.792   1.698   2.964 -2.3684  0.3704 -0.8293
 7197SOL     OW28448   3.541   9.438   1.699 -0.4149  0.9550 -0.7465
 7197SOL    HW128449   3.621   9.488   1.714  0.0712 -0.4636  2.1705
 7197SOL    HW228450   3.482   9.465   1.769 -1.0639 -0.6749 -0.6125
 7198SOL     OW28451   8.287  11.874  12.333 -0.0441  0.2026 -0.5481
 7198SOL    HW128452   8.282  11.808  12.402  1.1400  0.4041 -0.2445
 7198SOL    HW228453   8.284  11.824  12.252  1.1585 -0.2890 -0.3218
 7199SOL     OW28454   3.619   0.673   2.638  0.2747  0.2959  0.4048
 7199SOL    HW128455   3.615   0.756   2.592 -0.9819 -0.4490 -0.9045
 7199SOL    HW228456   3.542   0.672   2.694 -0.6167 -0.6260 -0.7851
 7200SOL     OW28457   1.800  12.461   3.400  0.6692  0.0711 -0.3441
 7200SOL    HW128458   1.805  12.401   3.474  0.9831  1.7679  1.0817
 7200SOL    HW228459   1.886  12.502   3.397  0.0631  1.3724 -0.4478
 7201SOL     OW28460   6.344   6.289   8.643 -0.3460  0.3439  0.2932
 7201SOL    HW128461   6.426   6.313   8.686 -1.2073  0.4445  1.9601
 7201SOL    HW228462   6.304   6.373   8.618  0.0247  0.2968 -0.4833
 7202SOL     OW28463   1.180   8.396   7.795 -0.2080 -0.1710 -0.0224
 7202SOL    HW128464   1.088   8.371   7.798 -0.6949  1.3806 -0.8118
 7202SOL    HW228465   1.227   8.320   7.829 -1.7715 -0.9871  0.3993
 7203SOL     OW28466   5.595   7.856  11.645 -0.3726  0.2908 -0.4447
 7203SOL    HW128467   5.529   7.893  11.704 -0.2191 -1.1018  0.6701
 7203SOL    HW228468   5.547   7.795  11.589 -0.0379 -1.0262  0.6322
 7204SOL     OW28469   2.606  10.222  11.371 -0.6453 -0.5668 -0.6510
 7204SOL    HW128470   2.664  10.297  11.379 -3.1638  1.5210 -0.8680
 7204SOL    HW228471   2.628  10.185  11.285 -0.8781  1.3331 -1.5836
 7205SOL     OW28472   3.082   5.529   4.897 -0.2130  0.0803 -0.6410
 7205SOL    HW128473   3.036   5.522   4.981 -1.0658  0.5580 -1.0468
 7205SOL    HW228474   3.174   5.517   4.919 -0.2268  1.8401  0.6297
 7206SOL     OW28475  11.594   1.436   0.421 -0.0163 -0.1143 -0.0994
 7206SOL    HW128476  11.581   1.531   0.416  2.8539  0.4378  0.6185
 7206SOL    HW228477  11.519   1.404   0.471 -1.1136  1.7565 -0.4413
 7207SOL     OW28478   5.072   7.153   8.943 -0.3336  0.1668 -0.3204
 7207SOL    HW128479   5.125   7.185   8.871  0.6767 -2.5838 -0.8932
 7207SOL    HW228480   4.983   7.151   8.908 -0.1966  0.8969 -0.7352
 7208SOL     OW28481   5.986   6.366   8.607 -0.3994 -0.2693 -0.1288
 7208SOL    HW128482   6.063   6.373   8.664 -0.5962  1.0135  0.0130
 7208SOL    HW228483   6.016   6.402   8.523 -0.7480 -0.0719 -0.1692
 7209SOL     OW28484   0.040   1.404   1.240 -0.1542 -0.1208  0.3974
 7209SOL    HW128485   0.055   1.480   1.183 -0.2882  0.1449  0.7140
 7209SOL    HW228486   0.105   1.340   1.212 -1.0083 -0.4574 -0.8812
 7210SOL     OW28487   1.147   9.663   0.500  0.3444  0.0657 -0.4335
 7210SOL    HW128488   1.195   9.724   0.443  0.5441  0.4754  0.1644
 7210SOL    HW228489   1.204   9.652   0.576 -0.7465  1.0126  0.5569
 7211SOL     OW28490  11.892   2.339   2.433 -0.0421 -0.2560 -0.8640
 7211SOL    HW128491  11.987   2.356   2.436 -0.2356  0.8017  0.0195
 7211SOL    HW228492  11.884   2.246   2.453  0.7651 -0.1617 -0.0404
 7212SOL     OW28493  10.741   2.806   6.040  0.1538  0.4905  0.0888
 7212SOL    HW128494  10.795   2.810   6.119  2.5974  2.6174 -1.5111
 7212SOL    HW228495  10.755   2.718   6.006  0.0302 -0.0444  1.3802
 7213SOL     OW28496   0.648  11.875   2.251  1.1548  0.2300 -0.0483
 7213SOL    HW128497   0.640  11.780   2.251  1.8286  0.1660 -0.2512
 7213SOL    HW228498   0.691  11.896   2.334  0.1899  0.4404  0.4066
 7214SOL     OW28499   2.267  10.720   4.976  0.0888  0.0944 -0.4309
 7214SOL    HW128500   2.293  10.736   4.886 -0.1365  1.9019 -0.2073
 7214SOL    HW228501   2.230  10.631   4.975 -1.2155  0.5953 -2.4178
 7215SOL     OW28502   7.701   8.549   1.924 -0.0026  0.2556 -0.6166
 7215SOL    HW128503   7.707   8.642   1.906 -2.3139  0.9845  1.6924
 7215SOL    HW228504   7.635   8.542   1.993  0.6250 -3.0374 -0.1650
 7216SOL     OW28505   2.100   4.087   8.768 -0.0630  0.1244  0.0954
 7216SOL    HW128506   2.062   4.058   8.851  0.6398 -0.0108  0.3749
 7216SOL    HW228507   2.031   4.139   8.727 -0.5181 -0.0517  0.6348
 7217SOL     OW28508  11.119   3.226  11.517 -0.1278  0.2746  0.4773
 7217SOL    HW128509  11.196   3.269  11.481  0.1578  0.1152  0.8974
 7217SOL    HW228510  11.094   3.280  11.592  1.5732 -1.4740  2.4282
 7218SOL     OW28511   4.774  10.752   9.437 -0.4211  0.4159  0.1805
 7218SOL    HW128512   4.733  10.703   9.366 -0.3872  0.3648  0.1956
 7218SOL    HW228513   4.727  10.724   9.515 -0.0573  0.0180  0.2587
 7219SOL     OW28514   6.941   8.042   5.797  0.3888  0.0436 -0.0705
 7219SOL    HW128515   6.960   7.953   5.765  1.2574  0.0496  0.3748
 7219SOL    HW228516   6.854   8.036   5.836  0.9956 -0.9720  1.1968
 7220SOL     OW28517   2.584  12.449   6.576 -0.2175  0.2006 -0.2932
 7220SOL    HW128518   2.578  12.441   6.481 -0.7223 -0.5760 -0.2057
 7220SOL    HW228519   2.587  12.358   6.607  1.1483  0.4474  0.3661
 7221SOL     OW28520   0.559   9.963  10.629 -0.2553  0.0569  0.1225
 7221SOL    HW128521   0.463   9.965  10.629 -0.2596  1.4705 -0.9176
 7221SOL    HW228522   0.584  10.024  10.698 -0.0960  0.0162  0.1004
 7222SOL     OW28523  10.207  11.476   4.019  0.5294  0.4755 -0.1394
 7222SOL    HW128524  10.272  11.542   3.997 -0.3337  0.5284 -2.9593
 7222SOL    HW228525  10.124  11.524   4.018  0.2026 -0.0383  1.1037
 7223SOL     OW28526   4.913   5.282   6.983 -0.0974 -0.7601  0.2036
 7223SOL    HW128527   4.829   5.261   7.024 -0.1698 -0.7237  0.0741
 7223SOL    HW228528   4.978   5.259   7.050 -0.1609 -1.5919 -0.0039
 7224SOL     OW28529   0.539   8.126  11.433 -0.0847  0.0220 -0.3101
 7224SOL    HW128530   0.553   8.055  11.370 -2.1149  1.2207 -2.2859
 7224SOL    HW228531   0.624   8.140  11.473  1.6384 -0.1178 -3.6075
 7225SOL     OW28532   3.854   3.849   7.088 -0.0145  0.1817  0.1818
 7225SOL    HW128533   3.929   3.841   7.146  0.0226  0.2322  0.1405
 7225SOL    HW228534   3.780   3.867   7.147  0.2119  1.3635  0.1343
 7226SOL     OW28535  12.517  10.410   0.533  0.0307  0.0403  0.0438
 7226SOL    HW128536  12.580  10.347   0.499  0.9965  0.2144  1.4153
 7226SOL    HW228537  12.540  10.493   0.491  0.6929  0.0924  0.5037
 7227SOL     OW28538   4.169  11.492   8.907  0.3238 -0.1999  1.1386
 7227SOL    HW128539   4.197  11.582   8.892  1.5160 -0.6202  0.7460
 7227SOL    HW228540   4.250  11.441   8.903 -0.1646 -1.1430  2.5778
 7228SOL     OW28541   4.343   3.051  10.169 -0.6876  0.1686  0.5223
 7228SOL    HW128542   4.350   2.994  10.246 -2.1753  0.3121  0.7966
 7228SOL    HW228543   4.386   3.132  10.196 -0.0494 -0.2348  0.7340
 7229SOL     OW28544   1.315   0.519   8.380  0.2064 -0.2739 -0.1955
 7229SOL    HW128545   1.288   0.473   8.460  0.0317 -0.7024 -0.4954
 7229SOL    HW228546   1.374   0.458   8.336  0.4529  0.0383 -0.3042
 7230SOL     OW28547   3.089   2.395  11.603 -0.9497  0.6038 -0.1221
 7230SOL    HW128548   3.035   2.324  11.570 -0.0147 -0.4231  0.4902
 7230SOL    HW228549   3.160   2.404  11.540 -0.7981  0.6673  0.0545
 7231SOL     OW28550   1.982   6.895  10.653  0.2777 -0.2100 -0.3016
 7231SOL    HW128551   1.954   6.958  10.719  1.4636 -0.0699  0.0822
 7231SOL    HW228552   1.987   6.811  10.700  2.1492  0.0762  0.0944
 7232SOL     OW28553   8.778   5.223   0.934 -0.5440 -0.4294  0.5025
 7232SOL    HW128554   8.795   5.186   1.021 -1.0383 -2.6016 -0.2707
 7232SOL    HW228555   8.840   5.180   0.876 -0.7472  0.4098 -0.3741
 7233SOL     OW28556  12.093   1.911   9.260  0.1103 -0.1583 -0.6911
 7233SOL    HW128557  12.122   2.001   9.243  2.0131 -0.3659  0.9975
 7233SOL    HW228558  11.998   1.914   9.250  0.0236  2.2785  0.1631
 7234SOL     OW28559   9.497  11.722  11.011  0.3072  0.1194  0.1228
 7234SOL    HW128560   9.508  11.812  11.042 -0.7962  0.4451 -0.4169
 7234SOL    HW228561   9.576  11.705  10.959  0.1931  1.0186 -0.3623
 7235SOL     OW28562   3.973   5.438   8.057  0.0540  0.6086  0.0564
 7235SOL    HW128563   4.021   5.356   8.071 -1.4915 -0.3057  0.1506
 7235SOL    HW228564   4.001   5.494   8.130  0.1759 -0.2907  0.7182
 7236SOL     OW28565   9.040   8.107   7.238  0.4337  0.1428  0.6335
 7236SOL    HW128566   9.003   8.194   7.246 -2.0705 -0.9117  1.3172
 7236SOL    HW228567   9.125   8.121   7.195 -0.2428  2.7989  0.0010
 7237SOL     OW28568   9.493   1.433   2.319  0.4835  0.4803 -0.6881
 7237SOL    HW128569   9.521   1.467   2.234  0.4872 -0.2384 -0.9776
 7237SOL    HW228570   9.539   1.487   2.383 -0.5820  1.9749 -1.1088
 7238SOL     OW28571   1.806   9.937   3.874  0.2193  0.7327 -0.2850
 7238SOL    HW128572   1.768  10.025   3.882  0.5800  0.8537  0.0754
 7238SOL    HW228573   1.782   9.910   3.785 -0.6991  0.8168 -0.0725
 7239SOL     OW28574   4.684   2.938   5.686 -0.0601 -0.2373 -0.2396
 7239SOL    HW128575   4.754   2.999   5.663 -1.3856  1.4932  0.0480
 7239SOL    HW228576   4.711   2.901   5.770  0.4736  0.4716 -0.0865
 7240SOL     OW28577   5.722   4.119   0.306  0.6253 -0.3667  0.3577
 7240SOL    HW128578   5.709   4.124   0.401  1.0666 -0.4674  0.4258
 7240SOL    HW228579   5.634   4.131   0.269  0.5635  0.4404  0.7513
 7241SOL     OW28580   8.033  11.835   7.080 -0.4712 -0.3742  0.4655
 7241SOL    HW128581   8.043  11.746   7.113 -0.2636  0.7096  3.7386
 7241SOL    HW228582   8.116  11.878   7.101 -0.5446  0.6052 -1.0909
 7242SOL     OW28583   4.107  11.743   5.394 -0.2620 -0.2450  1.0508
 7242SOL    HW128584   4.110  11.838   5.394 -0.7445 -0.1990  2.4762
 7242SOL    HW228585   4.101  11.719   5.487  1.4250 -1.7250  0.8335
 7243SOL     OW28586   5.438   1.672  12.352  0.1064  0.2973 -0.0836
 7243SOL    HW128587   5.412   1.750  12.303  1.7998 -1.4579 -4.2444
 7243SOL    HW228588   5.376   1.604  12.325 -0.1240 -0.3302  1.8837
 7244SOL     OW28589   1.179   3.378   9.205  0.3060  0.3003  0.5770
 7244SOL    HW128590   1.202   3.320   9.133 -1.1740 -0.8755  0.9837
 7244SOL    HW228591   1.146   3.457   9.163 -0.9654 -0.5469 -0.0980
 7245SOL     OW28592   9.301   3.549   4.278 -0.5267 -0.0676  0.8779
 7245SOL    HW128593   9.391   3.521   4.294 -0.3803 -0.5320 -0.5837
 7245SOL    HW228594   9.272   3.495   4.204 -1.6704  0.7466  0.7072
 7246SOL     OW28595   0.844   3.206   0.570 -0.3688 -0.8025  0.2786
 7246SOL    HW128596   0.873   3.134   0.626 -2.1575 -1.8750 -0.1097
 7246SOL    HW228597   0.784   3.257   0.625 -0.3222 -0.4999  0.0531
 7247SOL     OW28598   8.896   5.655  11.536  0.0646  0.4412 -0.1020
 7247SOL    HW128599   8.859   5.653  11.447 -0.6098  1.8041  0.1235
 7247SOL    HW228600   8.854   5.729  11.578  0.4271 -0.1414  1.3615
 7248SOL     OW28601  11.142  11.373   3.032 -0.0058 -0.4310 -0.5797
 7248SOL    HW128602  11.171  11.293   2.988 -1.8911  0.3082 -3.5256
 7248SOL    HW228603  11.105  11.427   2.961  2.5036  3.7773  0.9289
 7249SOL     OW28604   1.004   9.967   4.046  0.2926  0.2179  0.2660
 7249SOL    HW128605   0.945  10.000   4.114 -0.5582  0.7127 -0.6848
 7249SOL    HW228606   1.018   9.875   4.069  0.8621  0.6295  1.6839
 7250SOL     OW28607  10.815  10.327   8.757 -0.0047 -0.1768  0.6181
 7250SOL    HW128608  10.831  10.373   8.840  1.5600 -0.3772  0.4553
 7250SOL    HW228609  10.839  10.390   8.690  0.4409 -0.6052  0.3650
 7251SOL     OW28610  11.964   0.406   0.717  0.0998 -0.7641 -0.3010
 7251SOL    HW128611  11.971   0.429   0.624 -0.4678  0.7251 -0.0166
 7251SOL    HW228612  11.927   0.318   0.718 -2.7311  0.3002 -1.5213
 7252SOL     OW28613  11.403  10.350   8.239  0.0645  0.1477 -0.8980
 7252SOL    HW128614  11.395  10.325   8.331  0.7821 -0.3597 -0.9643
 7252SOL    HW228615  11.488  10.313   8.211  0.7966  1.9715 -1.2207
 7253SOL     OW28616   0.397   0.577   0.270  0.0785 -0.7191 -0.4251
 7253SOL    HW128617   0.360   0.628   0.198 -0.1986  0.9075  0.8331
 7253SOL    HW228618   0.359   0.489   0.257 -0.9811 -0.1436 -1.5181
 7254SOL     OW28619   8.610   0.397   7.089 -0.0565 -0.4218  0.2177
 7254SOL    HW128620   8.693   0.381   7.044 -0.4230 -1.7218 -0.0286
 7254SOL    HW228621   8.543   0.364   7.029 -0.9900  2.6116 -0.6046
 7255SOL     OW28622   2.795   9.531   4.697  0.0792  0.3448 -0.3820
 7255SOL    HW128623   2.835   9.571   4.620  0.3301 -0.1725 -0.5245
 7255SOL    HW228624   2.792   9.600   4.762  1.8127  0.2147 -0.1384
 7256SOL     OW28625   4.716   3.442   6.924 -0.1827 -0.5328 -0.1953
 7256SOL    HW128626   4.765   3.451   6.842 -0.1530 -1.2582 -0.2637
 7256SOL    HW228627   4.748   3.360   6.961 -1.4534 -1.1023 -0.3146
 7257SOL     OW28628   4.984  11.681   1.860 -0.1326  0.0157 -0.2478
 7257SOL    HW128629   5.030  11.686   1.776  0.9275 -0.3535  0.2888
 7257SOL    HW228630   4.990  11.769   1.897 -2.2906  0.7018 -1.3884
 7258SOL     OW28631  10.121   0.184   1.585 -0.0197 -0.0253 -1.0902
 7258SOL    HW128632  10.176   0.124   1.534  0.3080 -1.1934  0.5380
 7258SOL    HW228633  10.178   0.258   1.605  0.3134 -0.2471 -1.2065
 7259SOL     OW28634   6.541   6.253   6.231  0.3120  0.6105 -0.8372
 7259SOL    HW128635   6.532   6.175   6.177 -1.2743  0.9688 -1.1263
 7259SOL    HW228636   6.605   6.228   6.299 -1.5129 -1.5721  0.1940
 7260SOL     OW28637   3.869  10.162  11.933 -0.6937  0.2369 -0.0198
 7260SOL    HW128638   3.921  10.237  11.960 -1.8528  1.2783 -0.6157
 7260SOL    HW228639   3.872  10.103  12.009  1.3794  0.2099 -0.0643
 7261SOL     OW28640   1.770   3.773   7.961 -0.4655 -0.0200 -0.3445
 7261SOL    HW128641   1.751   3.865   7.944 -1.3731 -0.2909 -0.8607
 7261SOL    HW228642   1.710   3.749   8.032 -0.4835 -0.3131 -0.4605
 7262SOL     OW28643  11.277   7.348   8.540  0.6657  0.5055 -0.1025
 7262SOL    HW128644  11.338   7.405   8.493  1.2718  0.2165  0.3294
 7262SOL    HW228645  11.210   7.326   8.475  0.8674  1.0498 -0.4994
 7263SOL     OW28646  10.299   7.457   9.785  0.4196  0.2202 -0.0374
 7263SOL    HW128647  10.290   7.396   9.712 -1.2067 -0.0905  0.3788
 7263SOL    HW228648  10.271   7.407   9.862  3.1470  0.1862  1.0385
 7264SOL     OW28649  11.493   5.949   0.540  0.5091 -0.1434  0.4263
 7264SOL    HW128650  11.454   6.036   0.552 -0.9574 -0.8582  1.2112
 7264SOL    HW228651  11.456   5.897   0.612 -0.8458 -2.1265 -1.5804
 7265SOL     OW28652   8.172   6.849   1.514  0.2861 -0.4043  0.1260
 7265SOL    HW128653   8.230   6.868   1.588  0.7653  1.0600 -0.5717
 7265SOL    HW228654   8.199   6.912   1.447 -1.2212 -0.5977 -0.6976
 7266SOL     OW28655   3.897   4.575   7.162  0.2929 -0.0246 -0.4483
 7266SOL    HW128656   3.953   4.615   7.096 -0.6696 -0.7637 -1.7504
 7266SOL    HW228657   3.810   4.611   7.145  0.3299  1.1980  1.6202
 7267SOL     OW28658   4.023   8.305   8.747 -0.2044 -0.5795 -0.3489
 7267SOL    HW128659   4.099   8.358   8.725 -1.2624  0.5909 -1.3641
 7267SOL    HW228660   4.053   8.247   8.817  1.7551 -0.5459 -1.1068
 7268SOL     OW28661  11.691  11.405   3.305  0.4835 -0.3212 -0.3144
 7268SOL    HW128662  11.755  11.358   3.252 -0.1065  0.5975 -1.9099
 7268SOL    HW228663  11.697  11.496   3.275 -0.4562  0.0766  0.6288
 7269SOL     OW28664   4.378   1.377   1.842 -0.4025 -0.2748  0.2663
 7269SOL    HW128665   4.417   1.424   1.916  0.1877  0.4346 -0.4864
 7269SOL    HW228666   4.376   1.285   1.871 -1.9439  0.2228  1.9124
 7270SOL     OW28667   7.195   7.653   9.512 -0.2545 -0.0457 -0.2754
 7270SOL    HW128668   7.211   7.747   9.509  0.1183 -0.1226 -0.6036
 7270SOL    HW228669   7.227   7.626   9.598 -1.6624  0.3689  0.4035
 7271SOL     OW28670   7.132   4.017   2.050  0.0696 -0.0013  0.0114
 7271SOL    HW128671   7.215   3.988   2.012 -0.2434  0.1011 -0.7760
 7271SOL    HW228672   7.110   3.949   2.114  1.0657  0.2948  0.6862
 7272SOL     OW28673   8.515   3.088  10.487 -0.1957 -0.3974 -0.0477
 7272SOL    HW128674   8.529   3.182  10.474  0.1037 -0.5315 -0.7122
 7272SOL    HW228675   8.463   3.061  10.411 -1.4224 -0.5153  0.8108
 7273SOL     OW28676   5.401   5.664   5.107 -1.2166  0.3736  0.3735
 7273SOL    HW128677   5.377   5.755   5.092 -0.9004  0.5683  0.9979
 7273SOL    HW228678   5.497   5.663   5.103 -1.2202  0.0439  0.2578
 7274SOL     OW28679   7.065   1.199   1.527 -0.5610 -0.3638 -0.3474
 7274SOL    HW128680   7.117   1.187   1.606 -1.9420 -1.7457  0.4060
 7274SOL    HW228681   7.118   1.255   1.471  1.3611 -1.0581  0.7078
 7275SOL     OW28682   8.670   7.538   2.058 -0.6525  0.1855  0.3567
 7275SOL    HW128683   8.648   7.479   2.129 -1.4568 -1.1556 -0.9588
 7275SOL    HW228684   8.667   7.626   2.097  1.8274 -0.6273  2.6864
 7276SOL     OW28685   4.079   3.025   4.454 -0.2068 -0.1455 -0.7274
 7276SOL    HW128686   4.014   2.982   4.399  0.4530 -3.1511  0.6294
 7276SOL    HW228687   4.036   3.035   4.539  0.6650 -1.1488 -0.1374
 7277SOL     OW28688   8.099   0.547  12.443  1.0065 -0.2627  0.5709
 7277SOL    HW128689   8.074   0.472  12.389 -2.6282  1.0432  0.1071
 7277SOL    HW228690   8.080   0.520  12.533 -1.2539  0.2953  0.3230
 7278SOL     OW28691   6.717   2.411  12.015  0.0463 -0.1371  0.7122
 7278SOL    HW128692   6.644   2.413  11.952  0.9071 -0.9250 -0.3586
 7278SOL    HW228693   6.745   2.502  12.021 -0.0092 -0.0492 -0.1209
 7279SOL     OW28694  10.581   9.103   9.050  0.2188 -0.7386  0.0582
 7279SOL    HW128695  10.616   9.143   9.129  0.2309 -1.0537  0.2143
 7279SOL    HW228696  10.495   9.070   9.076  0.3888 -1.1912  0.0454
 7280SOL     OW28697   4.497  11.318   5.871 -0.2717 -1.1487 -0.1877
 7280SOL    HW128698   4.521  11.410   5.867 -2.1214 -0.3905  2.8313
 7280SOL    HW228699   4.423  11.309   5.812 -1.2698 -0.1943  0.8740
 7281SOL     OW28700   0.168   2.854  10.741  0.1555  0.5158  0.3240
 7281SOL    HW128701   0.242   2.810  10.700 -0.6054 -0.5743  0.0641
 7281SOL    HW228702   0.145   2.798  10.815 -1.4122 -0.0511 -0.5426
 7282SOL     OW28703   2.391  11.069  12.081 -0.1260 -0.2181 -0.3551
 7282SOL    HW128704   2.436  11.002  12.132  1.3332  0.6421 -0.4422
 7282SOL    HW228705   2.414  11.050  11.990  0.1924  0.3159 -0.3909
 7283SOL     OW28706   7.097   8.013   4.660 -0.1431 -0.2302  0.2562
 7283SOL    HW128707   7.021   8.063   4.631  0.5355  0.2142 -0.8318
 7283SOL    HW228708   7.067   7.965   4.737 -0.5128  2.7176  2.0897
 7284SOL     OW28709   0.992   3.067   6.212 -0.1174 -0.4022  0.3307
 7284SOL    HW128710   0.926   3.038   6.149  1.0098 -1.8347 -0.2446
 7284SOL    HW228711   1.049   2.991   6.224  1.8333  0.9640  0.2850
 7285SOL     OW28712   3.792   6.106   2.689  0.2321 -0.3294  0.2372
 7285SOL    HW128713   3.778   6.194   2.654 -3.1925 -0.3470  1.2040
 7285SOL    HW228714   3.727   6.051   2.644  1.4349 -2.1197  0.5647
 7286SOL     OW28715   8.950  10.784   3.421  0.3541 -0.2129  0.0005
 7286SOL    HW128716   8.867  10.817   3.456  0.5163  0.7622 -0.4869
 7286SOL    HW228717   9.007  10.776   3.497 -0.6506 -2.4453  0.5817
 7287SOL     OW28718   9.780   9.981  10.437  0.4368  0.0010  0.2924
 7287SOL    HW128719   9.850  10.039  10.409  1.3257 -0.5807  1.2253
 7287SOL    HW228720   9.788   9.978  10.533 -0.4647 -0.5731  0.3642
 7288SOL     OW28721   3.791   8.546   5.991  0.4520  0.2518 -0.2040
 7288SOL    HW128722   3.842   8.626   5.975  0.8817 -0.3383 -2.0211
 7288SOL    HW228723   3.701   8.577   6.000  0.6219  0.9767 -0.8086
 7289SOL     OW28724   2.717   5.708   1.089 -0.5546  0.1787  0.0575
 7289SOL    HW128725   2.657   5.768   1.133 -0.4050  0.8450 -0.6233
 7289SOL    HW228726   2.762   5.762   1.024 -1.9786 -1.0904 -2.1144
 7290SOL     OW28727   7.188   5.780   4.822  0.0889  0.1312  0.1039
 7290SOL    HW128728   7.121   5.848   4.827 -1.2268 -1.0107 -1.3128
 7290SOL    HW228729   7.178   5.730   4.903 -1.6609 -0.7894 -0.6348
 7291SOL     OW28730   9.748   7.637   4.477 -0.3417 -0.2488 -0.1052
 7291SOL    HW128731   9.841   7.647   4.499 -0.0491 -1.2070 -0.8411
 7291SOL    HW228732   9.710   7.723   4.495  0.8321  0.3787 -0.5081
 7292SOL     OW28733   7.541  10.400   8.456  0.3014  0.6925  0.6185
 7292SOL    HW128734   7.514  10.319   8.500 -1.0381  0.2314 -0.9292
 7292SOL    HW228735   7.607  10.438   8.514  1.0570 -1.5450  1.3442
 7293SOL     OW28736  10.800  10.197   3.593  0.0359 -0.6012 -0.5154
 7293SOL    HW128737  10.876  10.148   3.624  0.0681  0.4832  1.2139
 7293SOL    HW228738  10.738  10.193   3.665 -1.6959 -1.6555 -1.9767
 7294SOL     OW28739   2.007  11.066   2.060 -0.1891  0.6885  0.0482
 7294SOL    HW128740   1.935  11.078   1.998  1.0278  0.0184 -1.5739
 7294SOL    HW228741   1.990  11.130   2.129 -1.5778  1.5083 -1.0028
 7295SOL     OW28742   6.831   3.648   7.782 -0.4923  0.3570  0.3834
 7295SOL    HW128743   6.895   3.611   7.721 -1.2471 -1.4001  0.5737
 7295SOL    HW228744   6.812   3.575   7.842 -5.1277 -0.4564 -1.6165
 7296SOL     OW28745  11.857   3.630   8.276  0.0536 -0.8835 -0.0833
 7296SOL    HW128746  11.861   3.651   8.183  1.7477 -0.1137  0.1236
 7296SOL    HW228747  11.918   3.691   8.317 -0.2587 -1.5655  1.4727
 7297SOL     OW28748   8.844   5.235   3.660  0.1603 -0.2837 -0.3285
 7297SOL    HW128749   8.887   5.247   3.576 -1.8512  0.3711 -1.3355
 7297SOL    HW228750   8.755   5.209   3.637 -0.3787 -0.2988  1.6120
 7298SOL     OW28751   5.543   9.340   9.697 -0.0518 -0.4027  0.7176
 7298SOL    HW128752   5.613   9.279   9.721 -1.1691 -1.1522  2.2716
 7298SOL    HW228753   5.562   9.364   9.606  0.8989 -2.4439  0.3109
 7299SOL     OW28754   5.651   7.412   7.204 -0.3843  0.3925  0.2766
 7299SOL    HW128755   5.735   7.367   7.194  1.5615  3.5386  0.9744
 7299SOL    HW228756   5.630   7.443   7.116 -0.1842  0.5794  0.2931
 7300SOL     OW28757   3.018   7.860  10.549 -0.4790  0.1936  0.6351
 7300SOL    HW128758   2.978   7.808  10.618  0.7079  0.9301  1.9260
 7300SOL    HW228759   3.113   7.849  10.562 -0.2256  0.4428 -0.8042
 7301SOL     OW28760   7.226   0.810   2.365 -0.8164 -0.1070 -0.2499
 7301SOL    HW128761   7.310   0.799   2.320  0.0629  0.1383  1.2710
 7301SOL    HW228762   7.184   0.884   2.320 -0.0836 -0.0282 -0.8167
 7302SOL     OW28763  12.225   2.055   4.567 -0.0492  0.6030 -0.1118
 7302SOL    HW128764  12.271   1.972   4.578 -2.2432 -0.8812 -1.1595
 7302SOL    HW228765  12.208   2.086   4.656  3.1003  1.3933  0.3022
 7303SOL     OW28766   6.790   3.616   7.353  0.3738 -0.0758  0.4056
 7303SOL    HW128767   6.759   3.693   7.401  0.7722 -0.3166  1.0639
 7303SOL    HW228768   6.885   3.617   7.364  0.2841 -1.3853  1.5679
 7304SOL     OW28769   3.366   7.577   2.874  0.1255 -0.4786 -0.3637
 7304SOL    HW128770   3.364   7.673   2.867 -1.0919 -0.3902  0.8483
 7304SOL    HW228771   3.339   7.547   2.787 -1.0091  0.3047 -0.3046
 7305SOL     OW28772   2.724   8.846   9.771  0.2421  0.6393  0.1109
 7305SOL    HW128773   2.777   8.897   9.832  1.8638 -1.2548  0.3978
 7305SOL    HW228774   2.739   8.755   9.797 -2.9636 -0.0245 -0.0134
 7306SOL     OW28775   8.287   8.636  10.457 -0.1851  0.0778  0.2505
 7306SOL    HW128776   8.212   8.682  10.494  1.0873  0.5779  2.3554
 7306SOL    HW228777   8.273   8.641  10.362 -1.8382  1.7970  0.5222
 7307SOL     OW28778  10.856  11.572  12.186  0.5798 -0.4171 -0.2872
 7307SOL    HW128779  10.880  11.620  12.107 -1.0409  0.3433 -0.3586
 7307SOL    HW228780  10.762  11.560  12.179  0.2590  0.3460  1.8826
 7308SOL     OW28781   9.973   2.768   6.053  0.3552 -0.1523  0.0246
 7308SOL    HW128782   9.930   2.683   6.058 -1.2550  0.6938  2.3503
 7308SOL    HW228783  10.063   2.751   6.082  0.1358 -1.1277  0.1701
 7309SOL     OW28784   6.845   2.075  10.983 -0.0570  0.3650  0.0996
 7309SOL    HW128785   6.879   2.015  11.050  3.5458  2.0427 -0.0051
 7309SOL    HW228786   6.832   2.157  11.030  1.9641  1.3947 -0.9969
 7310SOL     OW28787   0.148   6.894   6.699  0.0132  0.4456 -0.2901
 7310SOL    HW128788   0.058   6.865   6.713 -0.0019  0.7385  0.2643
 7310SOL    HW228789   0.198   6.853   6.769  0.4256 -0.2039 -0.9545
 7311SOL     OW28790   1.774   1.586   1.561  0.2706 -0.4333  0.4730
 7311SOL    HW128791   1.846   1.640   1.592 -0.1446 -0.6007  1.7641
 7311SOL    HW228792   1.697   1.618   1.608 -0.6580  0.1863 -1.3509
 7312SOL     OW28793   6.609   2.698  11.545 -0.2621  0.2714 -0.1724
 7312SOL    HW128794   6.605   2.762  11.616 -0.7754  1.8200 -1.5319
 7312SOL    HW228795   6.563   2.621  11.579 -1.2759  1.2954  0.8736
 7313SOL     OW28796   3.081   5.502   9.670 -0.4327  0.0666  0.6049
 7313SOL    HW128797   3.150   5.437   9.686 -0.3958 -0.2061 -0.5789
 7313SOL    HW228798   3.052   5.485   9.580 -0.3275  1.7776  0.2164
 7314SOL     OW28799  10.409   3.630   8.423 -0.3494  0.2675  0.4599
 7314SOL    HW128800  10.317   3.657   8.430 -0.3122  0.1880  1.5316
 7314SOL    HW228801  10.455   3.687   8.484  0.7598  2.0689 -1.9206
 7315SOL     OW28802   3.375   1.237   9.797  0.1579 -0.2882 -0.0731
 7315SOL    HW128803   3.409   1.276   9.877  2.9003 -0.6427 -0.9596
 7315SOL    HW228804   3.366   1.310   9.736 -1.9487 -0.0147  0.4933
 7316SOL     OW28805   1.834   1.370   3.187 -0.0540 -0.2425  0.3342
 7316SOL    HW128806   1.905   1.308   3.167  1.5815  1.6347  0.0901
 7316SOL    HW228807   1.844   1.440   3.123 -0.4191  1.4109  2.0011
 7317SOL     OW28808   9.398   1.029  12.542 -0.5282 -0.1385 -0.5198
 7317SOL    HW128809   9.388   1.089  12.468 -0.2923 -0.5980 -0.9334
 7317SOL    HW228810   9.319   1.042  12.594  0.2115  1.6149  0.2202
 7318SOL     OW28811  10.017   7.650   6.458  0.6500 -0.4240  0.3227
 7318SOL    HW128812  10.010   7.728   6.403  1.2026 -0.2064  0.5575
 7318SOL    HW228813  10.080   7.674   6.526 -1.0322 -0.2017  1.8720
 7319SOL     OW28814   4.680   0.039   9.981  0.2401 -0.2469  0.2466
 7319SOL    HW128815   4.723   0.036  10.067  0.7991 -0.7292 -0.0465
 7319SOL    HW228816   4.622   0.115   9.986  1.7258  0.9264  0.3613
 7320SOL     OW28817   5.010   7.067   7.374  0.3216  0.0606 -0.5074
 7320SOL    HW128818   5.060   7.118   7.310 -1.8172  0.3186 -2.0698
 7320SOL    HW228819   5.024   6.976   7.349  0.5902  0.0918 -0.4755
 7321SOL     OW28820   5.379   4.761   0.361 -0.3684 -0.0343  0.2272
 7321SOL    HW128821   5.331   4.843   0.350 -0.0271  0.2761  0.9796
 7321SOL    HW228822   5.319   4.694   0.329 -0.5452  0.5306 -0.6562
 7322SOL     OW28823   9.320   9.047   9.187  0.1435 -0.1061 -0.0724
 7322SOL    HW128824   9.249   9.006   9.237 -1.0076  1.1639 -0.5852
 7322SOL    HW228825   9.303   9.141   9.196  1.3411  0.1943 -0.8326
 7323SOL     OW28826   4.219   3.600   6.661 -0.4506  0.4574  0.5520
 7323SOL    HW128827   4.272   3.527   6.630 -0.9027  0.0816  0.6479
 7323SOL    HW228828   4.280   3.655   6.711 -0.1503  0.0391  0.6483
 7324SOL     OW28829   6.002   7.634   4.999 -0.5169 -0.4022 -0.6105
 7324SOL    HW128830   6.075   7.644   5.060 -0.8005  1.7607 -0.5311
 7324SOL    HW228831   6.043   7.625   4.913 -0.0263  2.7488 -0.8424
 7325SOL     OW28832   6.340   4.772   5.864 -0.1213 -0.5841 -0.5578
 7325SOL    HW128833   6.341   4.709   5.936 -0.1777  0.2561  0.1986
 7325SOL    HW228834   6.431   4.777   5.834  0.4214  0.8804  1.1238
 7326SOL     OW28835   8.374   3.131  12.133 -0.2970  0.4612 -0.1360
 7326SOL    HW128836   8.358   3.222  12.107  0.1681  0.4653 -0.4285
 7326SOL    HW228837   8.468   3.118  12.117  0.1066  0.5794  1.8900
 7327SOL     OW28838   0.531  10.657   4.092  0.3516 -0.5045 -0.6428
 7327SOL    HW128839   0.593  10.653   4.164 -0.7251 -0.4483  0.3262
 7327SOL    HW228840   0.509  10.750   4.084  0.1407 -0.5608 -0.7411
 7328SOL     OW28841   0.900   6.081   3.543  0.1424 -0.0917  0.2623
 7328SOL    HW128842   0.810   6.062   3.517  0.4873 -1.1103 -0.2161
 7328SOL    HW228843   0.934   6.137   3.473 -0.3035  0.8379  0.7661
 7329SOL     OW28844   2.933   4.115   2.386  0.5082 -0.2658  0.2532
 7329SOL    HW128845   3.018   4.072   2.376  0.9330  0.5707  0.2405
 7329SOL    HW228846   2.907   4.139   2.297  2.9309  4.5481  0.5627
 7330SOL     OW28847   2.070   3.536   9.068 -0.2485 -0.5792  0.6259
 7330SOL    HW128848   2.078   3.630   9.080 -0.1677 -0.4385 -0.5000
 7330SOL    HW228849   1.976   3.521   9.058 -0.2914 -0.6668  1.1156
 7331SOL     OW28850   0.833   7.038   9.445  0.8176  0.0748  0.3876
 7331SOL    HW128851   0.768   7.016   9.513 -0.7499  0.5824 -0.8859
 7331SOL    HW228852   0.785   7.093   9.383  2.1948 -0.3830 -1.1480
 7332SOL     OW28853  10.199   2.545   6.753 -0.2581  0.7820 -0.5901
 7332SOL    HW128854  10.262   2.509   6.815 -0.1908  0.7958 -0.6493
 7332SOL    HW228855  10.253   2.591   6.688 -0.2227 -0.3708 -1.4113
 7333SOL     OW28856   0.620   9.109  10.126 -0.2477 -0.6198 -0.3079
 7333SOL    HW128857   0.553   9.055  10.167 -1.1131  0.5402 -0.1337
 7333SOL    HW228858   0.610   9.093  10.032 -0.4680 -0.8040 -0.2530
 7334SOL     OW28859  11.291   1.484  11.745  0.4599 -0.4110 -0.1188
 7334SOL    HW128860  11.216   1.501  11.689 -1.0867  0.1597  1.9768
 7334SOL    HW228861  11.351   1.558  11.730  0.1636 -0.3648 -1.1038
 7335SOL     OW28862   7.145   1.757   8.141  0.1210  0.2628 -0.5614
 7335SOL    HW128863   7.162   1.845   8.173 -2.0889  0.6942 -0.4469
 7335SOL    HW228864   7.051   1.743   8.154  0.2419 -1.7841 -1.3784
 7336SOL     OW28865  10.150   7.594   6.787 -0.2839  0.7385 -0.2542
 7336SOL    HW128866  10.113   7.681   6.800  0.3082  0.8575  0.7432
 7336SOL    HW228867  10.199   7.576   6.867  0.4343 -0.0986 -0.8526
 7337SOL     OW28868   4.683   7.158   2.045  0.2178 -0.0119 -0.4537
 7337SOL    HW128869   4.606   7.154   1.988 -0.2719  1.1353  0.0963
 7337SOL    HW228870   4.741   7.220   2.002 -0.1179  0.7949  0.2353
 7338SOL     OW28871   5.622   8.655   9.055  0.0440 -0.3350 -0.4814
 7338SOL    HW128872   5.581   8.626   8.974 -1.4878 -0.6903  0.3738
 7338SOL    HW228873   5.548   8.676   9.113  1.0967  1.4281  0.2986
 7339SOL     OW28874  11.462   1.104   8.831 -0.5398  0.0118  0.0744
 7339SOL    HW128875  11.554   1.122   8.853 -0.6391  2.3025 -1.1647
 7339SOL    HW228876  11.425   1.068   8.912  1.7029 -2.2547  0.2356
 7340SOL     OW28877   5.108   5.261   4.900  0.1781 -0.2794  0.8781
 7340SOL    HW128878   5.027   5.297   4.864  1.1699  0.5371 -0.6274
 7340SOL    HW228879   5.089   5.168   4.914 -0.3968 -0.5526 -1.4117
 7341SOL     OW28880  12.386   2.052   6.270  0.4589 -0.0974  0.1130
 7341SOL    HW128881  12.420   2.004   6.194 -1.3854  1.2803 -1.7224
 7341SOL    HW228882  12.459   2.107   6.298  1.5815 -1.5723  0.2115
 7342SOL     OW28883   3.509   5.231   6.288  0.6602 -0.3286  0.2034
 7342SOL    HW128884   3.481   5.157   6.341  0.1433  0.1296  0.5739
 7342SOL    HW228885   3.438   5.295   6.295  1.4256  0.5191  0.5157
 7343SOL     OW28886   5.247   5.964   6.542 -0.6364  0.5257 -0.2348
 7343SOL    HW128887   5.333   6.003   6.526 -0.5491  0.4321 -0.0066
 7343SOL    HW228888   5.209   5.953   6.455  0.6054 -1.7327 -0.5724
 7344SOL     OW28889   0.496   3.811  12.306  0.1779 -0.2282  0.2289
 7344SOL    HW128890   0.439   3.881  12.274  1.5240  0.8342  0.0500
 7344SOL    HW228891   0.584   3.848  12.299  0.9955 -2.2530 -0.6297
 7345SOL     OW28892   2.366   4.639   1.562 -1.0139 -0.0721 -0.2630
 7345SOL    HW128893   2.312   4.713   1.587 -1.0055  0.4048 -1.5396
 7345SOL    HW228894   2.454   4.676   1.549  0.0059 -1.0469  3.0000
 7346SOL     OW28895   2.914   3.353   9.836 -0.4730 -0.1178 -0.0354
 7346SOL    HW128896   2.989   3.365   9.894 -0.1386 -1.0803 -0.2494
 7346SOL    HW228897   2.926   3.266   9.798 -0.5470  0.5854 -1.7566
 7347SOL     OW28898  11.568   7.567   7.130  0.1668  0.9178  0.2211
 7347SOL    HW128899  11.569   7.660   7.154  1.0313  1.2378 -0.9903
 7347SOL    HW228900  11.516   7.564   7.050 -1.9432 -0.0162  1.5591
 7348SOL     OW28901  10.163   1.201   2.980  0.2139 -0.1139 -0.6920
 7348SOL    HW128902  10.231   1.142   3.011  1.0018  0.4042 -1.3721
 7348SOL    HW228903  10.203   1.246   2.906 -0.6465  0.6906 -0.6855
 7349SOL     OW28904  11.645   3.491   5.131 -0.1788  0.5186  0.2170
 7349SOL    HW128905  11.618   3.571   5.086  2.2375  1.3560  0.1106
 7349SOL    HW228906  11.690   3.521   5.210 -1.7217 -0.8519  1.6893
 7350SOL     OW28907  11.400  12.186   1.349  0.6393  0.3104  0.3204
 7350SOL    HW128908  11.416  12.116   1.286  0.3265 -0.2087  0.8082
 7350SOL    HW228909  11.349  12.251   1.300 -2.7584 -1.6408  0.9012
 7351SOL     OW28910   9.870  12.159   1.102  0.6657  0.1086  0.0139
 7351SOL    HW128911   9.870  12.096   1.175  0.4625 -0.0852 -0.1525
 7351SOL    HW228912   9.784  12.149   1.063  0.7184  0.3285 -0.1569
 7352SOL     OW28913   4.363   8.303  11.804  0.4141 -0.0766  0.1941
 7352SOL    HW128914   4.448   8.266  11.827  1.2141  1.4489 -0.1932
 7352SOL    HW228915   4.327   8.335  11.887  0.0985 -0.9284  0.3937
 7353SOL     OW28916   5.922   7.437   0.372  0.5933 -0.0199 -0.2244
 7353SOL    HW128917   5.966   7.521   0.386 -0.5726  0.5528  0.1599
 7353SOL    HW228918   5.916   7.399   0.459 -1.2731  0.7634  0.0391
 7354SOL     OW28919   9.196   6.948   2.564  0.6865 -0.6101  0.1714
 7354SOL    HW128920   9.108   6.985   2.566  0.1472 -1.8727  1.1617
 7354SOL    HW228921   9.214   6.932   2.472 -0.1743 -0.4644 -0.0256
 7355SOL     OW28922  11.780   2.904   4.198  0.2314  0.6143 -0.0006
 7355SOL    HW128923  11.689   2.920   4.221  0.5439  1.7441  0.5271
 7355SOL    HW228924  11.829   2.975   4.241  1.3036  0.2999 -0.6509
 7356SOL     OW28925   4.863  10.128  11.380  0.3688  0.0613 -0.2872
 7356SOL    HW128926   4.795  10.109  11.444 -0.2159  1.5735 -0.4219
 7356SOL    HW228927   4.834  10.084  11.300  0.9896 -1.6458  0.3809
 7357SOL     OW28928  10.101   6.161   6.426  0.3443 -0.4834  0.4268
 7357SOL    HW128929  10.026   6.104   6.410 -0.6266  1.2154 -1.5091
 7357SOL    HW228930  10.173   6.121   6.377 -0.1565 -0.4008 -0.3926
 7358SOL     OW28931   5.074   6.916   3.128  0.0803  0.5769 -0.2022
 7358SOL    HW128932   5.160   6.875   3.142  0.8183  1.6508 -1.3314
 7358SOL    HW228933   5.050   6.892   3.038 -1.3536 -0.6317  0.4683
 7359SOL     OW28934   0.824   7.376   9.446  0.5083  0.2466  0.4201
 7359SOL    HW128935   0.762   7.448   9.453 -0.2471 -0.3392  0.0594
 7359SOL    HW228936   0.781   7.314   9.385  1.1760 -0.4475  0.6352
 7360SOL     OW28937   5.177   6.882   7.563  0.7222 -0.0293 -0.0577
 7360SOL    HW128938   5.116   6.944   7.604 -0.2698  0.1889 -1.7907
 7360SOL    HW228939   5.121   6.814   7.526  1.3536  0.8584 -2.8723
 7361SOL     OW28940   3.798   8.452   2.119 -0.1576 -0.0452  0.4001
 7361SOL    HW128941   3.793   8.512   2.044  1.2202 -2.2119 -1.5369
 7361SOL    HW228942   3.707   8.430   2.139 -0.7607  2.9713  1.5306
 7362SOL     OW28943   6.755   4.148  10.180  0.2665  0.5546  0.0466
 7362SOL    HW128944   6.665   4.164  10.151  0.6072 -0.1872 -1.5447
 7362SOL    HW228945   6.765   4.203  10.257 -1.6002  0.5336  0.3679
 7363SOL     OW28946   7.502   5.080  10.798 -0.3718 -0.3243 -0.5932
 7363SOL    HW128947   7.501   5.174  10.782 -0.0782 -0.3561 -0.8136
 7363SOL    HW228948   7.410   5.056  10.808 -0.3979  0.1276  0.3198
 7364SOL     OW28949   1.068   3.658  12.411  0.0616 -0.5882  0.3989
 7364SOL    HW128950   1.092   3.587  12.470  1.1034 -0.7054 -0.1310
 7364SOL    HW228951   1.023   3.615  12.338  1.8357 -0.9208 -0.5630
 7365SOL     OW28952  11.969   2.113   7.310  0.0458 -0.0075  0.7237
 7365SOL    HW128953  12.046   2.059   7.292 -1.3994 -2.0452  0.2492
 7365SOL    HW228954  11.963   2.115   7.405  0.6419  0.0832  0.7605
 7366SOL     OW28955   1.410   1.844   0.755  0.4319  0.1634  0.1187
 7366SOL    HW128956   1.423   1.921   0.811  0.5305  0.1636  0.0957
 7366SOL    HW228957   1.385   1.775   0.815 -0.5816  0.4445  0.0353
 7367SOL     OW28958   9.723   4.987  10.096 -0.3808  0.0210 -0.0525
 7367SOL    HW128959   9.665   4.949  10.029 -0.3787  1.1706 -0.7291
 7367SOL    HW228960   9.811   4.962  10.068 -0.2678  1.7427 -1.3331
 7368SOL     OW28961   0.528   2.487   6.592 -0.4376  0.4251 -0.4409
 7368SOL    HW128962   0.587   2.480   6.667 -0.5317  0.7028 -0.3404
 7368SOL    HW228963   0.459   2.423   6.610 -1.8199  2.2156  0.9539
 7369SOL     OW28964   7.054   6.225   2.569 -0.0375 -0.0918 -0.6058
 7369SOL    HW128965   6.982   6.236   2.631 -1.3030 -0.0147 -2.0222
 7369SOL    HW228966   7.088   6.314   2.557 -0.4559  0.0509 -0.7719
 7370SOL     OW28967   0.480   7.127  10.852 -0.0449  0.2023 -0.2672
 7370SOL    HW128968   0.546   7.196  10.843  0.0260  0.3903  1.2785
 7370SOL    HW228969   0.499   7.066  10.781  1.7308  0.3176  0.0511
 7371SOL     OW28970   1.708   2.904  10.949  0.4681  0.3399 -0.0756
 7371SOL    HW128971   1.717   2.848  11.027  2.6193  0.3928 -0.2321
 7371SOL    HW228972   1.757   2.858  10.881 -1.0710  0.4880 -1.3349
 7372SOL     OW28973  12.411   6.104   0.262 -0.2623 -0.0048 -0.1181
 7372SOL    HW128974  12.469   6.178   0.246 -0.0384 -0.2757 -0.5816
 7372SOL    HW228975  12.330   6.144   0.295 -0.7661  0.5969 -1.9634
 7373SOL     OW28976  10.670   3.152   4.267 -0.2694  0.7029  0.4907
 7373SOL    HW128977  10.653   3.110   4.351 -1.3866  2.6964  1.3373
 7373SOL    HW228978  10.761   3.180   4.271 -0.6653  1.9471  1.6390
 7374SOL     OW28979   0.163   0.503   9.648 -0.5708  0.4750 -0.3708
 7374SOL    HW128980   0.256   0.520   9.661  0.2143 -2.5027 -1.3743
 7374SOL    HW228981   0.127   0.499   9.737  0.6840 -0.2447  0.1276
 7375SOL     OW28982   7.615   6.209   1.997  1.0119  0.3888 -0.3385
 7375SOL    HW128983   7.617   6.121   1.960  1.7468  0.2126  0.1107
 7375SOL    HW228984   7.668   6.262   1.937 -1.1284  1.0255 -1.7983
 7376SOL     OW28985   4.945   9.282   0.976 -0.0963  0.3734 -0.5502
 7376SOL    HW128986   4.907   9.194   0.973  0.1872  0.2409 -0.3483
 7376SOL    HW228987   5.037   9.267   0.995 -0.0030  0.7067 -0.7467
 7377SOL     OW28988   5.588   7.640   3.279  0.4320 -0.3258 -0.7101
 7377SOL    HW128989   5.633   7.573   3.331  1.8018  0.1844 -1.2033
 7377SOL    HW228990   5.658   7.693   3.242 -0.4856  4.0268  2.8834
 7378SOL     OW28991   3.031   8.546   1.316  0.5280  1.0817  0.8534
 7378SOL    HW128992   3.080   8.545   1.398  2.9437 -2.3601 -0.3734
 7378SOL    HW228993   2.968   8.474   1.325  1.0923  0.3928 -0.3361
 7379SOL     OW28994   3.386   0.239   9.989  0.5185  0.2923 -0.1607
 7379SOL    HW128995   3.394   0.146   9.968 -2.5181 -0.1272  0.0098
 7379SOL    HW228996   3.296   0.248  10.021  0.3132  3.4962 -1.2925
 7380SOL     OW28997   2.061   8.833   4.177 -0.1606 -0.0705 -0.1297
 7380SOL    HW128998   1.986   8.858   4.124 -0.3396 -1.6782 -0.6740
 7380SOL    HW228999   2.023   8.800   4.258 -0.0695 -1.1322 -0.5096
 7381SOL     OW29000   1.620  10.427   3.891  0.0662 -0.1813  0.4268
 7381SOL    HW129001   1.551  10.491   3.908  0.2314 -0.1122  0.8566
 7381SOL    HW229002   1.696  10.460   3.939  1.0438  0.8701 -1.7305
 7382SOL     OW29003   6.587  11.792   3.888 -0.4755  0.1306  0.7777
 7382SOL    HW129004   6.510  11.745   3.921  1.1679 -1.5293  2.5403
 7382SOL    HW229005   6.614  11.847   3.961  0.1910  0.4459  0.2946
 7383SOL     OW29006   0.180   8.534   5.094 -0.0057  0.1349  0.2722
 7383SOL    HW129007   0.098   8.493   5.068  0.5342 -0.4107 -0.6135
 7383SOL    HW229008   0.168   8.553   5.187 -0.8635 -0.5915  0.3304
 7384SOL     OW29009   8.975   5.114   8.311  0.2014  0.2726 -0.2844
 7384SOL    HW129010   9.060   5.102   8.269  0.7236  0.2162  0.7762
 7384SOL    HW229011   8.918   5.146   8.241  1.0666  0.2319 -1.0192
 7385SOL     OW29012  10.700   4.207  10.628  0.1768  0.1446  0.3338
 7385SOL    HW129013  10.709   4.127  10.575  0.8537  0.0906  0.5126
 7385SOL    HW229014  10.791   4.235  10.643  0.0574 -0.3224  2.1645
 7386SOL     OW29015  11.576   7.067   2.771  0.5682  0.3247  0.5178
 7386SOL    HW129016  11.544   6.977   2.774  2.5369 -0.4016  2.1793
 7386SOL    HW229017  11.576   7.089   2.678  1.2916 -1.9184 -0.0845
 7387SOL     OW29018   0.270   7.477   1.290 -0.1581  0.5279  0.3271
 7387SOL    HW129019   0.290   7.570   1.286  0.1665  0.4356 -0.3285
 7387SOL    HW229020   0.236   7.455   1.203 -0.8241  0.1632  0.6708
 7388SOL     OW29021   8.833   1.827   1.903  0.0476 -0.5932 -0.8619
 7388SOL    HW129022   8.886   1.864   1.974 -2.2844  1.7772 -0.1855
 7388SOL    HW229023   8.811   1.739   1.932 -1.0620  0.4067  1.6081
 7389SOL     OW29024   6.107   2.757   4.517 -0.1597  0.7553 -0.3116
 7389SOL    HW129025   6.136   2.773   4.607  0.2515 -0.0923 -0.2803
 7389SOL    HW229026   6.057   2.835   4.494 -0.0846  1.0829  0.5742
 7390SOL     OW29027  11.041   4.899  11.779 -0.0294 -0.0112 -0.2397
 7390SOL    HW129028  10.988   4.905  11.700 -0.0807 -1.3559 -0.3339
 7390SOL    HW229029  10.996   4.955  11.842  0.0124  1.0692 -1.1469
 7391SOL     OW29030   0.354   8.108  10.068 -0.2383 -0.7198 -0.3310
 7391SOL    HW129031   0.339   8.190  10.115 -0.1691 -0.8090 -0.1513
 7391SOL    HW229032   0.269   8.088  10.029 -0.4057 -0.8487  0.0849
 7392SOL     OW29033   9.055   7.428  11.843 -0.2797 -0.3742 -0.1823
 7392SOL    HW129034   9.103   7.362  11.793 -0.1079 -0.2940 -0.1271
 7392SOL    HW229035   8.997   7.378  11.900  0.9706 -0.5404  0.9977
 7393SOL     OW29036   5.379  11.685   5.845 -0.1328 -0.2716 -0.1793
 7393SOL    HW129037   5.377  11.602   5.893 -1.4426  0.5871  1.3729
 7393SOL    HW229038   5.379  11.752   5.914 -1.2645  1.0291 -1.3936
 7394SOL     OW29039  10.869   6.775  10.171  0.3296 -0.2325 -0.4359
 7394SOL    HW129040  10.778   6.753  10.192  0.0716  1.5065  0.4026
 7394SOL    HW229041  10.887   6.726  10.091 -1.0137 -1.3652 -0.0977
 7395SOL     OW29042   4.968   6.694   3.317 -0.2662  0.3416 -0.4153
 7395SOL    HW129043   4.934   6.729   3.399 -1.3811 -0.7235 -0.3966
 7395SOL    HW229044   4.977   6.770   3.260 -0.5304  0.9424  0.3302
 7396SOL     OW29045   5.467   5.458  12.171  0.6395  0.0341  0.4108
 7396SOL    HW129046   5.403   5.495  12.110  0.2471 -0.8595  0.2741
 7396SOL    HW229047   5.496   5.376  12.130  1.5967  0.2337  0.6474
 7397SOL     OW29048   8.173  11.738   2.222 -0.4414 -0.6385 -0.1876
 7397SOL    HW129049   8.121  11.677   2.169  0.8345 -2.0298  0.0844
 7397SOL    HW229050   8.263  11.708   2.210  0.1612  0.8665  0.4355
 7398SOL     OW29051   5.029   8.178   2.549 -0.5726  0.2047  0.4500
 7398SOL    HW129052   5.109   8.137   2.516 -0.7263 -0.5247  0.9568
 7398SOL    HW229053   4.975   8.192   2.471 -0.0438  0.5107  0.1318
 7399SOL     OW29054  10.461   0.423   0.445 -0.1581 -0.9301  0.0309
 7399SOL    HW129055  10.528   0.489   0.456 -1.9813  0.8126  1.3760
 7399SOL    HW229056  10.424   0.410   0.532 -2.4688 -0.7624 -0.8298
 7400SOL     OW29057   8.510  11.424   5.301  0.1593  0.6683  0.2432
 7400SOL    HW129058   8.434  11.451   5.249 -0.6482 -1.1017  0.4575
 7400SOL    HW229059   8.485  11.445   5.392 -0.7120 -1.2183  0.4758
 7401SOL     OW29060   9.293   8.243   4.204  0.0114 -0.1443 -0.1352
 7401SOL    HW129061   9.260   8.271   4.118 -1.2515  1.3439  0.7861
 7401SOL    HW229062   9.256   8.155   4.215 -1.1546  0.2808 -0.4549
 7402SOL     OW29063   2.047   2.227   9.379  0.0509  0.1341 -0.2899
 7402SOL    HW129064   2.012   2.249   9.465 -0.6495  0.7193 -0.7140
 7402SOL    HW229065   2.067   2.311   9.338 -0.6183 -0.0937 -1.1025
 7403SOL     OW29066   3.921   6.534  10.525  0.0070  0.3802 -0.0872
 7403SOL    HW129067   3.850   6.509  10.466  0.8939  1.6565 -1.7663
 7403SOL    HW229068   3.945   6.453  10.570 -0.6521 -0.6480 -1.5230
 7404SOL     OW29069   8.519   3.656   0.932 -0.3703  0.4084 -0.4458
 7404SOL    HW129070   8.569   3.714   0.874 -0.7770 -0.2224 -1.4461
 7404SOL    HW229071   8.573   3.577   0.940 -0.7376  0.1333 -0.6937
 7405SOL     OW29072   9.484   4.833   2.112 -0.5918 -0.7232  0.3437
 7405SOL    HW129073   9.412   4.853   2.171 -0.9043 -0.7177 -0.0411
 7405SOL    HW229074   9.481   4.902   2.045  0.2199 -0.2984  0.7320
 7406SOL     OW29075   2.318   2.610   2.339  0.1907  0.1615 -0.1840
 7406SOL    HW129076   2.308   2.700   2.310 -3.6307 -0.0963 -0.2160
 7406SOL    HW229077   2.335   2.616   2.433  0.1066  0.8861 -0.2131
 7407SOL     OW29078  11.294   3.143   0.729  0.2758 -0.4291 -0.4530
 7407SOL    HW129079  11.370   3.088   0.746 -1.1440 -2.4173 -0.1274
 7407SOL    HW229080  11.224   3.082   0.705 -0.8699  1.4186 -2.2166
 7408SOL     OW29081   9.326   4.269   5.851 -0.4220  0.0665 -0.8302
 7408SOL    HW129082   9.345   4.355   5.888 -4.0459  0.4165  0.5438
 7408SOL    HW229083   9.382   4.209   5.901  1.0226  1.3952 -0.7570
 7409SOL     OW29084   2.900   5.859  11.582 -0.1832  0.0765 -0.1363
 7409SOL    HW129085   2.830   5.900  11.633 -0.2171  0.3652 -0.4076
 7409SOL    HW229086   2.859   5.781  11.545  0.0465 -0.5089  0.8403
 7410SOL     OW29087   7.638   0.352   0.367 -0.4773 -0.1952 -0.5133
 7410SOL    HW129088   7.655   0.416   0.436 -1.7744 -0.9862  0.5910
 7410SOL    HW229089   7.725   0.334   0.329  0.2832  0.2194  0.9484
 7411SOL     OW29090  11.841  10.418   9.148  0.2185 -0.2047  0.3388
 7411SOL    HW129091  11.758  10.378   9.176 -0.1661  0.7636  0.6025
 7411SOL    HW229092  11.908  10.367   9.193 -0.2785 -0.4162  0.8520
 7412SOL     OW29093   4.141   2.966   6.899  0.7499 -0.3121 -0.2533
 7412SOL    HW129094   4.139   3.055   6.862 -0.7417 -0.1459  0.1492
 7412SOL    HW229095   4.186   2.913   6.833  0.8407  0.5665 -0.9143
 7413SOL     OW29096   8.042   7.330   7.042  0.1882  0.3127 -0.0263
 7413SOL    HW129097   8.042   7.384   7.122  1.4105 -0.9975  0.9148
 7413SOL    HW229098   7.962   7.277   7.049  1.7820 -2.0765  2.0529
 7414SOL     OW29099   3.060   3.889   4.066  0.6614 -0.0205  0.0528
 7414SOL    HW129100   3.036   3.816   4.009 -0.2156 -1.2211  1.8631
 7414SOL    HW229101   3.093   3.848   4.145 -0.3542  1.5025  1.3417
 7415SOL     OW29102   2.778   0.316   7.232  0.5652 -0.6039  0.5962
 7415SOL    HW129103   2.706   0.269   7.273  0.4579 -2.3137 -1.3656
 7415SOL    HW229104   2.745   0.343   7.147  1.6605  0.2638  0.4126
 7416SOL     OW29105   6.299  12.576   0.962 -0.0637  0.0299 -0.1453
 7416SOL    HW129106   6.286  12.512   1.032  2.4049  0.7145  1.0736
 7416SOL    HW229107   6.314  12.659   1.008  1.1091  0.5965 -1.4739
 7417SOL     OW29108   7.215   7.565   9.116 -0.2756 -0.0743  0.2503
 7417SOL    HW129109   7.300   7.574   9.159  0.1895  1.2347 -0.8700
 7417SOL    HW229110   7.154   7.610   9.174 -0.2033 -0.8788  0.9798
 7418SOL     OW29111   6.345   3.364   5.706 -0.1884 -0.1327 -0.0006
 7418SOL    HW129112   6.432   3.332   5.680 -0.1094 -1.1177  1.3472
 7418SOL    HW229113   6.353   3.380   5.800 -0.5453  2.9338 -0.3986
 7419SOL     OW29114   1.464   4.741  10.463  0.7826  0.0200  0.5232
 7419SOL    HW129115   1.501   4.823  10.432  0.5168  0.6404  1.7859
 7419SOL    HW229116   1.534   4.703  10.517  0.8718 -0.5434  0.0196
 7420SOL     OW29117   3.386   5.767   1.449  0.5550  0.1237  0.1928
 7420SOL    HW129118   3.399   5.823   1.525 -2.0198  1.3179 -0.1350
 7420SOL    HW229119   3.436   5.809   1.379  2.1913 -0.4769  0.9615
 7421SOL     OW29120   7.663   0.468   6.487 -0.0132 -0.1203 -0.5351
 7421SOL    HW129121   7.615   0.504   6.561 -0.2836 -0.1018 -0.7178
 7421SOL    HW229122   7.632   0.378   6.480 -1.4011  0.4196 -1.7931
 7422SOL     OW29123   6.062   6.321  10.826  0.3400 -0.1156 -0.2415
 7422SOL    HW129124   6.061   6.416  10.816  1.4720 -0.2933 -2.7247
 7422SOL    HW229125   6.155   6.297  10.818  0.1798 -1.3894  1.2130
 7423SOL     OW29126   5.723   1.909   2.465  0.3209 -0.1266 -0.5194
 7423SOL    HW129127   5.776   1.841   2.422  2.0148 -0.4721  1.9048
 7423SOL    HW229128   5.785   1.954   2.523 -1.7290  0.4284  1.3663
 7424SOL     OW29129  10.166   1.956  12.189  0.0333 -0.0016  0.4790
 7424SOL    HW129130  10.091   1.922  12.140  1.4707 -1.2617 -0.9768
 7424SOL    HW229131  10.195   1.882  12.242  1.1207 -0.0390 -0.1240
 7425SOL     OW29132  10.411   5.478   1.046  0.4507 -0.2195 -0.3983
 7425SOL    HW129133  10.458   5.537   1.105  0.1768  0.1656 -0.5591
 7425SOL    HW229134  10.324   5.470   1.085  1.4047 -3.0811  1.3966
 7426SOL     OW29135   8.585   8.194   4.927  0.7110 -0.2702 -0.2925
 7426SOL    HW129136   8.500   8.161   4.899  0.2869  0.7393 -0.2474
 7426SOL    HW229137   8.629   8.220   4.846  0.6387 -0.0140 -0.2500
 7427SOL     OW29138   6.154   1.302   6.010 -0.4490  0.5784 -0.5309
 7427SOL    HW129139   6.137   1.265   6.096  0.4975 -0.2562 -0.6975
 7427SOL    HW229140   6.243   1.337   6.015 -0.2579  0.2208 -1.2684
 7428SOL     OW29141   7.737   5.548   8.093 -0.1581  0.1989 -0.1570
 7428SOL    HW129142   7.780   5.595   8.022  0.0665 -0.3926 -0.4148
 7428SOL    HW229143   7.662   5.505   8.051 -1.5196  1.8641  0.4223
 7429SOL     OW29144   0.851   6.672   2.622 -0.2080  0.4212 -0.1429
 7429SOL    HW129145   0.901   6.731   2.566  0.9500  1.1863  1.6117
 7429SOL    HW229146   0.793   6.729   2.672  0.4290  0.0470  1.0757
 7430SOL     OW29147  11.357   3.995  10.152  0.1593 -0.2118 -0.0329
 7430SOL    HW129148  11.374   3.903  10.169  1.8891 -0.2106 -1.4373
 7430SOL    HW229149  11.374   4.039  10.235  0.8009 -1.0051  0.2657
 7431SOL     OW29150   3.828  11.083   3.464 -0.2362  0.4578 -0.0502
 7431SOL    HW129151   3.847  11.021   3.534 -0.3406 -0.7740 -1.0871
 7431SOL    HW229152   3.878  11.161   3.487  1.4273 -0.6660  0.2930
 7432SOL     OW29153   7.372  11.212   8.109  0.2566  0.4256 -0.0038
 7432SOL    HW129154   7.399  11.150   8.177 -0.2234 -0.3021 -0.4713
 7432SOL    HW229155   7.452  11.228   8.058 -0.3701 -2.9114 -2.3419
 7433SOL     OW29156   9.746   4.824   0.946 -0.4556  0.2724 -0.7108
 7433SOL    HW129157   9.744   4.920   0.950  0.0222  0.3676 -2.1531
 7433SOL    HW229158   9.739   4.804   0.852 -2.1174 -1.1575 -0.3280
 7434SOL     OW29159   8.683   6.416   7.520 -0.6464 -0.2982 -0.3499
 7434SOL    HW129160   8.654   6.457   7.439 -0.3818 -1.1652 -0.9044
 7434SOL    HW229161   8.637   6.463   7.589 -0.0119  1.2245 -0.9107
 7435SOL     OW29162   6.983  10.168   3.536 -0.1209 -0.4425 -0.1430
 7435SOL    HW129163   6.973  10.189   3.628  0.4313  0.4099 -0.2685
 7435SOL    HW229164   7.032  10.242   3.499 -0.7484 -0.5399 -1.2126
 7436SOL     OW29165   8.457   7.972   1.523 -0.2546 -0.5702 -0.4770
 7436SOL    HW129166   8.488   8.010   1.605  2.4988 -2.4774 -0.4547
 7436SOL    HW229167   8.491   8.031   1.456  0.5591 -0.8196 -0.3082
 7437SOL     OW29168   4.839   0.102   9.350  0.4940  0.2678  0.4860
 7437SOL    HW129169   4.756   0.129   9.310  0.1509  0.3430  1.2366
 7437SOL    HW229170   4.814   0.068   9.436  1.1635 -0.3934  0.4256
 7438SOL     OW29171   2.313   8.401   5.681  1.1374 -0.1583 -0.1829
 7438SOL    HW129172   2.372   8.348   5.627  0.7526  1.0646 -1.8669
 7438SOL    HW229173   2.247   8.433   5.621  1.1979  2.0116  0.8094
 7439SOL     OW29174   5.391   2.766   4.276 -0.6851  0.4414  0.9910
 7439SOL    HW129175   5.333   2.692   4.292 -0.8126  0.3436  0.1498
 7439SOL    HW229176   5.400   2.809   4.361 -0.4018 -0.6854  1.5454
 7440SOL     OW29177   8.974   4.721  10.839 -0.0886  0.1112 -1.4693
 7440SOL    HW129178   8.936   4.800  10.878  3.8178  2.2253 -1.4303
 7440SOL    HW229179   9.018   4.753  10.760  2.3388 -1.8079 -0.9960
 7441SOL     OW29180   3.904   9.354  10.698 -0.1237 -0.4704 -0.1678
 7441SOL    HW129181   3.852   9.328  10.774 -0.3870  1.9802  0.6017
 7441SOL    HW229182   3.941   9.273  10.665 -2.1560 -1.9537  0.9677
 7442SOL     OW29183   4.360   5.050   6.456 -0.0620 -0.1146 -0.5333
 7442SOL    HW129184   4.360   4.967   6.504  0.9449 -0.4753 -1.1309
 7442SOL    HW229185   4.285   5.043   6.397 -2.3506  0.9927  2.0026
 7443SOL     OW29186   4.797   1.529   3.167  0.0907  0.0820 -0.1822
 7443SOL    HW129187   4.840   1.602   3.122  0.7656 -1.0244 -1.4020
 7443SOL    HW229188   4.704   1.545   3.156  0.2346  0.5921 -0.7097
 7444SOL     OW29189  11.522   8.846  10.157  0.0347 -0.0336  0.4822
 7444SOL    HW129190  11.524   8.783  10.085 -1.0996  0.1968  0.2296
 7444SOL    HW229191  11.587   8.813  10.219  1.2655 -0.0612 -0.7729
 7445SOL     OW29192   9.055  10.197   9.402  0.5013  0.1875  0.6090
 7445SOL    HW129193   9.142  10.218   9.369  0.9801  0.9314  2.2326
 7445SOL    HW229194   9.012  10.282   9.410  0.1283 -0.0401  1.1118
 7446SOL     OW29195   0.464   8.621   2.208  0.4538  0.2915 -0.0007
 7446SOL    HW129196   0.517   8.649   2.283  0.9939  0.2102 -0.3446
 7446SOL    HW229197   0.527   8.582   2.148 -0.1948 -1.1563  0.2115
 7447SOL     OW29198   2.464   4.132   8.126  0.2325  0.2332  0.0312
 7447SOL    HW129199   2.505   4.199   8.181  0.7537 -0.5120  0.5734
 7447SOL    HW229200   2.370   4.142   8.142  0.3587  0.2394  0.8036
 7448SOL     OW29201  11.993   2.331   9.563 -0.2502 -0.2068 -0.4959
 7448SOL    HW129202  12.012   2.240   9.540  1.5716  0.4687 -1.8962
 7448SOL    HW229203  11.899   2.340   9.547 -0.5464 -1.9273  0.0516
 7449SOL     OW29204   1.517   2.628  10.464 -0.1327 -0.0151  0.3097
 7449SOL    HW129205   1.472   2.624  10.548 -1.3810 -0.4341 -0.3671
 7449SOL    HW229206   1.549   2.539  10.449 -0.2810 -0.0422  0.1465
 7450SOL     OW29207  12.421   9.612  12.059 -0.2173  0.3906  0.1755
 7450SOL    HW129208  12.348   9.566  12.018  0.0013  0.3247 -0.1491
 7450SOL    HW229209  12.392   9.630  12.148 -1.6657  2.7141 -0.6926
 7451SOL     OW29210   6.710   5.885   9.800  0.0526 -0.2593  0.4537
 7451SOL    HW129211   6.700   5.796   9.832  0.9605 -1.3767 -2.1227
 7451SOL    HW229212   6.799   5.890   9.766  0.4275  2.0264  1.5574
 7452SOL     OW29213  11.098  10.857  11.640 -0.0574  0.2392  0.2431
 7452SOL    HW129214  11.113  10.764  11.624 -0.6870  0.4249 -1.6729
 7452SOL    HW229215  11.182  10.891  11.670  0.8636 -0.4728 -1.4639
 7453SOL     OW29216   0.206   2.952   9.624 -0.1466 -0.1523 -0.4572
 7453SOL    HW129217   0.235   3.033   9.583  1.6992 -0.7268 -0.3982
 7453SOL    HW229218   0.176   2.978   9.711  0.2473  0.5081 -0.5115
 7454SOL     OW29219   8.236   2.294   7.969 -0.2351 -0.1579  0.0371
 7454SOL    HW129220   8.286   2.361   8.015 -2.4394  1.2565  0.5242
 7454SOL    HW229221   8.300   2.226   7.949  1.4210  0.5449  2.5163
 7455SOL     OW29222   3.854   8.488   6.315 -0.2685  0.1509 -0.2214
 7455SOL    HW129223   3.939   8.447   6.332 -0.4710 -0.4185 -0.5399
 7455SOL    HW229224   3.793   8.414   6.307 -0.3900  0.4037 -2.2456
 7456SOL     OW29225   0.307  11.999   8.792  0.1333 -0.5339  0.1921
 7456SOL    HW129226   0.322  12.087   8.757 -0.1679 -0.2799  0.6898
 7456SOL    HW229227   0.340  12.003   8.882  1.4194 -1.3414 -0.2144
 7457SOL     OW29228   8.731   5.985   0.699 -0.2352 -0.8877 -0.3998
 7457SOL    HW129229   8.720   6.025   0.786 -2.1125  0.4041 -1.1532
 7457SOL    HW229230   8.822   6.001   0.676 -0.5027  1.6362  0.0255
 7458SOL     OW29231   4.622  11.369  11.566  0.0839 -0.7881 -0.4182
 7458SOL    HW129232   4.676  11.437  11.606  1.1594 -0.9687 -1.4909
 7458SOL    HW229233   4.532  11.398  11.580  0.3413 -1.1369  2.5943
 7459SOL     OW29234  11.687   3.931   5.272  0.5707 -0.0127  0.1985
 7459SOL    HW129235  11.640   3.970   5.199  0.8880 -0.4429 -0.2405
 7459SOL    HW229236  11.681   3.996   5.342  1.0886  0.8181 -0.5135
 7460SOL     OW29237   1.418   2.052  11.576  0.1940  0.3558 -0.0289
 7460SOL    HW129238   1.399   1.974  11.524 -0.6559  0.3170  0.3299
 7460SOL    HW229239   1.500   2.031  11.621  0.5750  0.1260 -0.8253
 7461SOL     OW29240   6.130   9.012  11.547  0.3511  0.1759  0.4133
 7461SOL    HW129241   6.097   8.956  11.617  0.5376 -0.6220 -0.1258
 7461SOL    HW229242   6.082   9.094  11.558 -0.1359 -0.1801  1.0356
 7462SOL     OW29243   6.276   1.111   8.550 -0.1349 -0.2781  0.0793
 7462SOL    HW129244   6.199   1.110   8.493 -0.9918 -0.8712  1.1920
 7462SOL    HW229245   6.321   1.029   8.532 -0.2299 -0.3172  0.0222
 7463SOL     OW29246   4.668  12.178  10.991 -0.0346  0.6373  0.2374
 7463SOL    HW129247   4.577  12.150  10.980 -0.2395  1.8803 -1.6637
 7463SOL    HW229248   4.663  12.250  11.055 -0.6165  1.6577 -0.9231
 7464SOL     OW29249   3.963   3.101  11.324 -0.0074  0.0309 -0.1546
 7464SOL    HW129250   3.960   3.008  11.346  1.2540  0.0960  0.4198
 7464SOL    HW229251   4.055   3.117  11.299 -0.4389  0.8945 -1.3078
 7465SOL     OW29252   5.457   1.475   0.019  0.7430  0.0880 -0.6285
 7465SOL    HW129253   5.413   1.450  -0.062  0.3952 -0.4067 -0.2940
 7465SOL    HW229254   5.420   1.561   0.041 -0.6002 -0.6305  0.0214
 7466SOL     OW29255   1.809   8.470   5.390 -0.0292  0.4796  0.0810
 7466SOL    HW129256   1.834   8.520   5.467  1.0277 -0.8687  0.6505
 7466SOL    HW229257   1.810   8.379   5.419  1.7439 -0.1935 -1.8278
 7467SOL     OW29258  11.176   9.412   3.378 -0.0175 -0.1820  0.4430
 7467SOL    HW129259  11.162   9.396   3.471 -0.7564  1.9066  0.7410
 7467SOL    HW229260  11.258   9.462   3.374  0.0012 -0.2400 -0.0346
 7468SOL     OW29261   4.222   9.315   2.511 -0.2817  0.2260  0.7420
 7468SOL    HW129262   4.178   9.302   2.427 -0.7924  0.6572  0.9422
 7468SOL    HW229263   4.175   9.387   2.553 -0.5138 -0.4775  1.7234
 7469SOL     OW29264  12.207   7.323   1.512  0.5579  0.6425 -0.0181
 7469SOL    HW129265  12.170   7.410   1.523 -0.4085  0.0889  1.4035
 7469SOL    HW229266  12.215   7.312   1.417  0.3228  2.1136 -0.2245
 7470SOL     OW29267  11.034   4.135   1.620 -0.1389 -0.3816  0.0936
 7470SOL    HW129268  11.019   4.162   1.710 -2.0640 -0.8391 -0.0465
 7470SOL    HW229269  11.032   4.040   1.622  1.3995 -0.4449 -0.2150
 7471SOL     OW29270  10.280   1.143   7.304  0.2243 -0.1080 -0.2695
 7471SOL    HW129271  10.265   1.145   7.210  2.2622 -1.1055 -0.6725
 7471SOL    HW229272  10.331   1.222   7.323 -0.1755  0.0883  0.0024
 7472SOL     OW29273   6.978  12.001   8.374  0.2834 -0.6265  0.4358
 7472SOL    HW129274   6.989  11.962   8.287  1.3764  0.9197 -0.1523
 7472SOL    HW229275   6.919  12.075   8.360 -0.8839 -1.3347  1.3459
 7473SOL     OW29276   1.920   5.176   9.220 -0.0978  0.2919 -0.0737
 7473SOL    HW129277   1.898   5.126   9.141  0.4853  0.6145 -0.4509
 7473SOL    HW229278   1.990   5.235   9.191 -2.2025  2.9121 -0.2629
 7474SOL     OW29279   2.462   1.244  12.415 -0.5252  0.4638 -0.1159
 7474SOL    HW129280   2.488   1.268  12.326 -1.2118 -1.7986 -0.9952
 7474SOL    HW229281   2.374   1.279  12.425 -0.8058 -0.0526 -0.6977
 7475SOL     OW29282   2.469   1.992   7.470  0.4540  0.0565 -0.0991
 7475SOL    HW129283   2.545   2.021   7.421 -0.2411  1.2549 -0.5271
 7475SOL    HW229284   2.416   2.071   7.481  0.2747 -0.2978  2.0441
 7476SOL     OW29285   2.614   3.484  11.394 -0.6694  0.7046  0.2612
 7476SOL    HW129286   2.536   3.432  11.410 -0.8725  0.6978 -0.6573
 7476SOL    HW229287   2.588   3.574  11.411 -0.1386  0.5001  2.5000
 7477SOL     OW29288   5.136   1.490   8.865  0.0152  0.0375 -0.2562
 7477SOL    HW129289   5.145   1.546   8.942  1.1464 -0.5922  0.0955
 7477SOL    HW229290   5.156   1.402   8.896 -0.7956 -0.4259 -1.0031
 7478SOL     OW29291  10.158   9.314   1.356  0.0238  0.6724 -0.9296
 7478SOL    HW129292  10.063   9.311   1.344  0.1909  0.4017 -2.2587
 7478SOL    HW229293  10.188   9.225   1.337  0.6324  0.9458 -1.2511
 7479SOL     OW29294  11.900   5.896   7.353 -0.5655  0.5619  0.2481
 7479SOL    HW129295  11.921   5.803   7.346 -0.6381  0.6704 -2.0000
 7479SOL    HW229296  11.880   5.909   7.446 -0.1129 -1.5555  0.6884
 7480SOL     OW29297   0.811   3.755   4.492 -0.4395  0.9034 -0.1759
 7480SOL    HW129298   0.887   3.698   4.487 -1.7944 -1.1108  0.9540
 7480SOL    HW229299   0.818   3.798   4.577 -0.9463  0.0661  0.3094
 7481SOL     OW29300  11.444   4.346   8.536 -0.2132 -0.2900  0.0153
 7481SOL    HW129301  11.479   4.262   8.567 -1.5027 -1.9892 -2.7070
 7481SOL    HW229302  11.496   4.367   8.459 -3.2321 -1.5247 -2.5540
 7482SOL     OW29303   5.834   1.880   5.648  0.2896 -0.0311  0.5061
 7482SOL    HW129304   5.818   1.934   5.725  1.0465 -0.6169  1.0932
 7482SOL    HW229305   5.894   1.931   5.594 -0.4308  0.4829  0.1845
 7483SOL     OW29306   0.061   6.617  11.232 -0.2379  0.1422  0.6671
 7483SOL    HW129307   0.112   6.698  11.227  0.5059 -0.3718 -0.2386
 7483SOL    HW229308  -0.023   6.645  11.269  0.1421  1.2566  0.7436
 7484SOL     OW29309   3.124   6.691   8.955 -0.1988 -0.1759 -0.6177
 7484SOL    HW129310   3.124   6.677   8.860  0.7234 -0.2988 -0.6096
 7484SOL    HW229311   3.208   6.733   8.973 -0.9142  1.0579 -0.0183
 7485SOL     OW29312   7.440  12.577   0.779  0.0015  0.2021  0.0345
 7485SOL    HW129313   7.453  12.488   0.811 -2.8268  0.2403  1.5891
 7485SOL    HW229314   7.469  12.574   0.687 -0.3302 -2.3748 -0.0625
 7486SOL     OW29315   2.272   8.050  10.273  0.1050  0.3126 -0.0773
 7486SOL    HW129316   2.229   8.073  10.355  1.3617 -0.3351  0.8025
 7486SOL    HW229317   2.335   7.982  10.297  0.3720 -0.0352 -1.6216
 7487SOL     OW29318   7.706   0.517   6.207  0.3866 -0.0530  0.1362
 7487SOL    HW129319   7.716   0.447   6.143 -0.3596  0.1453 -0.2054
 7487SOL    HW229320   7.690   0.472   6.290  1.1204 -0.3059  0.1482
 7488SOL     OW29321  11.264   5.898   7.156 -0.5174 -0.0835  0.1376
 7488SOL    HW129322  11.234   5.886   7.067  0.8333 -2.1523 -0.1133
 7488SOL    HW229323  11.355   5.867   7.155 -0.0407  1.1075  1.9327
 7489SOL     OW29324   7.670   6.830   2.240  0.2576 -0.4376 -0.4969
 7489SOL    HW129325   7.652   6.850   2.148  1.3357 -0.0622 -0.6473
 7489SOL    HW229326   7.647   6.910   2.287 -0.4244 -0.6775 -0.4231
 7490SOL     OW29327   7.958   7.007   1.459  0.0762 -0.1163 -0.1879
 7490SOL    HW129328   8.038   6.959   1.481  2.1376  2.1996 -1.9228
 7490SOL    HW229329   7.951   7.074   1.527 -0.4230 -0.3238 -0.0303
 7491SOL     OW29330   1.230   6.669  12.448 -0.1443  0.2768 -0.1781
 7491SOL    HW129331   1.137   6.682  12.429 -0.0571  1.0455 -0.0983
 7491SOL    HW229332   1.272   6.672  12.363 -0.3223 -1.3969 -0.3670
 7492SOL     OW29333   6.880  11.396  11.620  0.4092 -0.2555 -0.2045
 7492SOL    HW129334   6.854  11.487  11.611  2.1268  0.1474 -1.6586
 7492SOL    HW229335   6.961  11.400  11.672 -1.2176 -1.3017  2.6524
 7493SOL     OW29336   3.679  11.067   9.913  0.1311  0.5638  0.2486
 7493SOL    HW129337   3.726  11.028   9.987  0.8368 -0.1048 -0.5399
 7493SOL    HW229338   3.731  11.044   9.837 -0.6716  1.1282 -0.4850
 7494SOL     OW29339   0.356   4.127  11.560 -0.4236  0.2124  0.1470
 7494SOL    HW129340   0.314   4.090  11.482 -2.4874  0.5635  1.0330
 7494SOL    HW229341   0.433   4.072  11.575 -0.2381 -0.1378 -1.8467
 7495SOL     OW29342   5.553   4.446   7.058  0.2930  0.5643 -0.1328
 7495SOL    HW129343   5.630   4.427   7.112 -0.1945 -2.4447 -0.3605
 7495SOL    HW229344   5.479   4.439   7.118 -0.0721 -0.4104 -0.6777
 7496SOL     OW29345   9.182   2.499   6.511 -0.1312 -0.4908 -0.0574
 7496SOL    HW129346   9.178   2.431   6.444  0.6030 -0.6514  0.0515
 7496SOL    HW229347   9.192   2.451   6.594 -1.3691 -0.3098  0.2275
 7497SOL     OW29348   8.535   5.011   2.079  0.5370  1.0512  0.2012
 7497SOL    HW129349   8.456   4.981   2.125  0.3867 -0.2627 -0.8396
 7497SOL    HW229350   8.570   5.081   2.134 -0.0908  0.1124  1.8651
 7498SOL     OW29351   7.996   6.338   0.404 -0.8964  0.3111 -0.0981
 7498SOL    HW129352   8.071   6.280   0.412 -1.1949 -0.2827 -1.3618
 7498SOL    HW229353   7.993   6.385   0.487  1.2657  0.8467 -0.2613
 7499SOL     OW29354  12.250   1.206   0.653 -0.0597 -0.3446  0.2505
 7499SOL    HW129355  12.243   1.288   0.604 -0.6599  0.4757  1.6236
 7499SOL    HW229356  12.257   1.234   0.744 -1.1203 -1.8359  0.8299
 7500SOL     OW29357   2.531  10.420   6.831 -0.3625 -0.1226 -0.0747
 7500SOL    HW129358   2.490  10.412   6.917 -2.9856 -0.2815 -1.2556
 7500SOL    HW229359   2.558  10.331   6.809 -0.0350 -0.1454  0.4061
 7501SOL     OW29360   9.390   9.314   9.240 -0.3390 -0.1936  0.1736
 7501SOL    HW129361   9.402   9.349   9.328  0.7483  0.9279 -0.3839
 7501SOL    HW229362   9.474   9.329   9.196 -1.0577 -0.1326 -1.2583
 7502SOL     OW29363   8.612  11.349   2.493 -0.3490 -0.3835 -0.2777
 7502SOL    HW129364   8.573  11.335   2.407  0.1021  1.1195 -0.7560
 7502SOL    HW229365   8.596  11.441   2.512  1.8446 -0.0126  0.0650
 7503SOL     OW29366   3.839  10.841   4.778 -0.1125 -0.0262 -0.1422
 7503SOL    HW129367   3.912  10.789   4.744 -0.5760 -1.1651  0.5610
 7503SOL    HW229368   3.829  10.812   4.868 -2.2181 -0.7927 -0.5734
 7504SOL     OW29369   4.805   8.848   4.920  0.3121  0.8651 -0.1834
 7504SOL    HW129370   4.757   8.783   4.869  1.8274 -0.8836  0.5196
 7504SOL    HW229371   4.737   8.896   4.968 -0.8788  0.1282 -1.0827
 7505SOL     OW29372   5.241   6.573  11.306  0.3451  0.4454  0.3748
 7505SOL    HW129373   5.318   6.516  11.307 -0.2083 -0.5600 -2.8152
 7505SOL    HW229374   5.272   6.654  11.266  0.2335  0.9509  1.2850
 7506SOL     OW29375  11.547   9.671  10.089 -0.2301 -0.0709  0.4232
 7506SOL    HW129376  11.538   9.578  10.108  0.3230 -0.2406 -0.1246
 7506SOL    HW229377  11.616   9.701  10.149  1.3165 -0.5483 -1.0568
 7507SOL     OW29378   8.391   1.012   4.241 -0.2254  0.3796 -0.0679
 7507SOL    HW129379   8.419   0.952   4.173 -0.4066  1.4180 -1.0902
 7507SOL    HW229380   8.372   0.956   4.317 -0.4634 -0.8411 -1.0064
 7508SOL     OW29381   1.412   5.783   8.394  0.2974 -0.5939  0.3129
 7508SOL    HW129382   1.338   5.729   8.421 -0.1967  0.3786  0.9594
 7508SOL    HW229383   1.459   5.802   8.475 -0.3239  1.0770  0.3022
 7509SOL     OW29384   6.955  12.542   5.382  0.6283  0.4858  0.4564
 7509SOL    HW129385   6.910  12.535   5.467  0.3911  0.3460  0.3197
 7509SOL    HW229386   6.886  12.566   5.321  0.8357  0.7825  0.3342
 7510SOL     OW29387  11.180  11.728   2.211 -0.1323  0.2238 -0.3852
 7510SOL    HW129388  11.088  11.735   2.186  0.3256  0.1269 -2.2728
 7510SOL    HW229389  11.203  11.814   2.244 -1.4392 -0.3587  2.2734
 7511SOL     OW29390   1.694  11.961   5.652 -0.1995  0.1459  0.2301
 7511SOL    HW129391   1.714  11.929   5.564 -1.4635 -0.2681  0.0775
 7511SOL    HW229392   1.764  12.024   5.671  0.7280 -0.6011 -0.5990
 7512SOL     OW29393   9.214   7.919   9.303 -0.0031  0.0526  0.3573
 7512SOL    HW129394   9.232   7.920   9.397  2.3529 -3.2350  0.1246
 7512SOL    HW229395   9.163   7.839   9.290 -2.1466  1.5325 -1.0040
 7513SOL     OW29396   7.461   4.134   0.684  0.0308  0.1805 -0.3695
 7513SOL    HW129397   7.393   4.190   0.722  0.1454  0.5358 -0.6817
 7513SOL    HW229398   7.430   4.045   0.699  0.4875  0.2639  1.3852
 7514SOL     OW29399  12.303  12.386   8.974 -0.0458  0.9088 -0.4122
 7514SOL    HW129400  12.230  12.388   8.913  0.2415  0.5182 -0.7693
 7514SOL    HW229401  12.287  12.461   9.032  0.1621  1.8532 -1.5266
 7515SOL     OW29402  10.142  11.133   3.899 -0.1510  0.6947 -0.0615
 7515SOL    HW129403  10.194  11.213   3.890 -2.2366  2.1102 -0.2432
 7515SOL    HW229404  10.177  11.090   3.978 -0.0229  2.6199  0.9898
 7516SOL     OW29405   3.603   6.673   6.752 -0.3120 -0.2021 -0.9948
 7516SOL    HW129406   3.676   6.730   6.776 -0.1795  0.0329 -1.9360
 7516SOL    HW229407   3.633   6.625   6.675 -1.1364 -0.1244 -1.3779
 7517SOL     OW29408   6.577   7.751   9.170  0.0333 -0.0954 -0.5382
 7517SOL    HW129409   6.605   7.768   9.080  2.2488  0.8099  0.2656
 7517SOL    HW229410   6.573   7.655   9.176  2.4483 -0.2649 -0.9048
 7518SOL     OW29411   6.111   3.529   9.757 -0.6922 -0.2034 -0.4975
 7518SOL    HW129412   6.060   3.605   9.729 -2.2524 -0.7286  0.7868
 7518SOL    HW229413   6.082   3.458   9.699  0.5974  0.0697 -1.5439
 7519SOL     OW29414   3.815  10.910   6.738 -0.0289 -0.1461  0.5929
 7519SOL    HW129415   3.870  10.883   6.812  1.3035 -0.0463 -0.3109
 7519SOL    HW229416   3.746  10.844   6.733 -0.3972  0.0790  2.1646
 7520SOL     OW29417   3.380   8.344   9.201  0.1463  0.5181  0.0496
 7520SOL    HW129418   3.382   8.348   9.296  1.1283 -0.0126  0.0594
 7520SOL    HW229419   3.289   8.321   9.180  0.1082 -0.1344  0.8869
 7521SOL     OW29420   5.302   5.717  10.368  0.2504 -0.4334 -0.2049
 7521SOL    HW129421   5.359   5.652  10.409 -0.3361 -0.6290  0.3163
 7521SOL    HW229422   5.362   5.784  10.335  0.7101  0.3136  1.9862
 7522SOL     OW29423   3.803   3.462   1.993  0.3819 -0.0943  1.2544
 7522SOL    HW129424   3.719   3.426   1.966  0.9897 -0.4398 -0.2552
 7522SOL    HW229425   3.849   3.389   2.035  0.2976 -0.1596  1.2318
 7523SOL     OW29426   2.741   6.830   6.861 -0.0942 -0.0198 -0.3777
 7523SOL    HW129427   2.836   6.837   6.867 -0.0241 -1.0322 -0.1312
 7523SOL    HW229428   2.725   6.743   6.824 -0.9354 -0.5849  1.2063
 7524SOL     OW29429  11.613   1.646  11.955  0.0264 -0.1758  0.0680
 7524SOL    HW129430  11.637   1.628  11.865  1.1500 -1.5281  0.6121
 7524SOL    HW229431  11.653   1.731  11.974  0.0276 -0.0230 -0.5967
 7525SOL     OW29432   1.327   8.291   7.490 -0.1251  0.4069  0.1529
 7525SOL    HW129433   1.365   8.378   7.500 -1.0219  1.0396 -1.5830
 7525SOL    HW229434   1.241   8.306   7.451 -0.7052 -1.2020  0.7205
 7526SOL     OW29435   6.649   1.915   3.867 -0.0153 -0.2709 -0.1605
 7526SOL    HW129436   6.725   1.953   3.823 -0.1507  1.1498  0.7639
 7526SOL    HW229437   6.684   1.841   3.916  0.3767 -0.9800 -1.4530
 7527SOL     OW29438   2.572  11.620   0.890 -0.8866  0.2642  0.1326
 7527SOL    HW129439   2.530  11.542   0.926 -2.5411  1.0772  0.0501
 7527SOL    HW229440   2.519  11.643   0.814  0.3994  0.6869 -0.6656
 7528SOL     OW29441   0.346   0.850   1.047 -0.3411 -0.0757 -0.5018
 7528SOL    HW129442   0.290   0.880   0.976 -0.2194  0.4518 -0.3747
 7528SOL    HW229443   0.311   0.893   1.125 -0.8398 -1.0968 -0.1347
 7529SOL     OW29444   5.729  11.435  11.119  0.3078  0.0116 -0.1141
 7529SOL    HW129445   5.809  11.390  11.146 -0.9736 -2.1404  0.3253
 7529SOL    HW229446   5.681  11.449  11.201 -0.7083 -0.6586 -0.5816
 7530SOL     OW29447   6.413   1.324   4.677  0.1816 -0.2704 -0.1226
 7530SOL    HW129448   6.396   1.382   4.603 -2.3753 -1.1857 -0.3470
 7530SOL    HW229449   6.449   1.245   4.638 -1.3533 -0.8322 -0.5036
 7531SOL     OW29450   2.223   2.769   0.667  0.1590  0.6636  0.2748
 7531SOL    HW129451   2.129   2.772   0.650  0.3322  0.3191 -0.7753
 7531SOL    HW229452   2.229   2.771   0.763 -0.9319  0.1869  0.3720
 7532SOL     OW29453   7.890  10.591   2.663  0.3417  0.2330 -0.0171
 7532SOL    HW129454   7.939  10.525   2.712  1.0607 -2.1954 -3.6600
 7532SOL    HW229455   7.806  10.550   2.645  0.1800  0.9729 -1.0079
 7533SOL     OW29456  12.566   7.402   0.570 -0.4865  0.4434 -0.2468
 7533SOL    HW129457  12.609   7.325   0.532 -0.2268  0.3847  0.1613
 7533SOL    HW229458  12.637   7.463   0.587 -0.6239  0.5404 -0.0167
 7534SOL     OW29459  10.700   1.648   3.866 -0.9897  0.0286 -0.0971
 7534SOL    HW129460  10.784   1.620   3.831 -0.5804  0.6977  0.3271
 7534SOL    HW229461  10.695   1.607   3.952 -1.3639 -0.4810 -0.3583
 7535SOL     OW29462   3.650   2.321  11.575 -0.3272 -0.0194  0.1553
 7535SOL    HW129463   3.649   2.410  11.539 -0.6188 -0.5211 -1.1181
 7535SOL    HW229464   3.662   2.264  11.499 -1.8971 -1.1768  0.7249
 7536SOL     OW29465   4.631   6.141   3.244 -0.5324 -0.2581  0.4274
 7536SOL    HW129466   4.726   6.133   3.252 -0.3750  1.7994  1.1632
 7536SOL    HW229467   4.597   6.113   3.329 -0.2833  2.3178  1.4556
 7537SOL     OW29468  11.398   4.452   4.531  0.9455  0.2423  0.0781
 7537SOL    HW129469  11.409   4.357   4.527 -0.6007  0.0797 -1.4525
 7537SOL    HW229470  11.324   4.470   4.473  1.3489  2.4186  0.1644
 7538SOL     OW29471   0.024   0.852   0.913  0.0669 -0.2649 -0.2457
 7538SOL    HW129472  -0.046   0.914   0.891  0.5002 -0.0499 -1.0514
 7538SOL    HW229473   0.046   0.810   0.831  0.2321 -1.0285  0.1805
 7539SOL     OW29474  11.785   8.979   7.261  0.0942  0.1716  0.0087
 7539SOL    HW129475  11.742   9.017   7.184  0.3295 -0.1748 -0.2973
 7539SOL    HW229476  11.800   8.888   7.237  0.3014  0.0993  0.4113
 7540SOL     OW29477  10.461   3.897   8.050 -0.2927  0.2227 -0.1499
 7540SOL    HW129478  10.464   3.880   7.956  0.8971 -0.6438  0.0139
 7540SOL    HW229479  10.371   3.924   8.067 -0.3712  0.9723 -1.6210
 7541SOL     OW29480   1.944   6.317  11.369 -0.0036 -0.7169  0.7346
 7541SOL    HW129481   2.027   6.364  11.382 -1.0196  1.2111  0.5510
 7541SOL    HW229482   1.912   6.348  11.284 -1.9378  0.2811  1.7517
 7542SOL     OW29483   3.044   3.882   7.436  0.4789 -0.2215  0.1318
 7542SOL    HW129484   3.052   3.902   7.343 -1.6971 -1.7527 -0.4672
 7542SOL    HW229485   2.951   3.897   7.456  1.2463  2.0614  2.6252
 7543SOL     OW29486   7.944  11.369   2.798 -0.0078  0.4557 -0.2638
 7543SOL    HW129487   7.853  11.391   2.818 -0.1029 -0.5360  0.4806
 7543SOL    HW229488   7.941  11.326   2.713 -0.4721 -0.9476  0.4181
 7544SOL     OW29489   1.342   4.113  11.796 -0.1201 -0.3617  0.2027
 7544SOL    HW129490   1.293   4.070  11.726 -0.6655 -0.5045  0.6685
 7544SOL    HW229491   1.315   4.068  11.876  0.2383  0.0273  0.5506
 7545SOL     OW29492   8.674   4.069   2.287 -0.0046 -0.1479  0.7263
 7545SOL    HW129493   8.619   4.084   2.210 -1.4870  0.2861  1.8252
 7545SOL    HW229494   8.698   3.977   2.281 -1.9191 -0.6979  0.8519
 7546SOL     OW29495   1.488   8.225   0.557 -0.3293 -0.3317 -0.1906
 7546SOL    HW129496   1.486   8.258   0.468 -0.6869 -1.4756 -0.6253
 7546SOL    HW229497   1.397   8.216   0.583 -0.2364  0.7236  0.5973
 7547SOL     OW29498   1.105   3.277   0.443  0.3007 -0.4704 -0.2643
 7547SOL    HW129499   1.015   3.277   0.476 -0.1230 -2.2895 -1.2325
 7547SOL    HW229500   1.159   3.283   0.521 -0.6823 -1.4808  0.5386
 7548SOL     OW29501   6.547   1.209   9.811 -0.3960 -0.0528 -0.0552
 7548SOL    HW129502   6.509   1.272   9.749 -0.0610 -1.3630 -1.6675
 7548SOL    HW229503   6.472   1.164   9.849 -0.5852 -1.6175 -2.1358
 7549SOL     OW29504   5.860   8.706   8.469 -0.0583  0.5291 -0.5026
 7549SOL    HW129505   5.939   8.715   8.415 -0.6086 -1.0980 -1.6870
 7549SOL    HW229506   5.846   8.611   8.474 -1.6670  0.7706  0.0666
 7550SOL     OW29507  12.391  11.734   1.924 -0.1937  0.3545  0.2078
 7550SOL    HW129508  12.357  11.665   1.981  0.8990  1.6587  2.6128
 7550SOL    HW229509  12.323  11.802   1.927 -0.5475  0.0628 -0.8499
 7551SOL     OW29510  10.155   0.126  11.175 -0.0620  0.0225 -0.3714
 7551SOL    HW129511  10.211   0.186  11.126  0.5320 -0.6979 -0.5907
 7551SOL    HW229512  10.203   0.109  11.256 -0.6185  0.4946  0.0680
 7552SOL     OW29513   7.951  12.043   2.519  0.0506  0.3544  0.2105
 7552SOL    HW129514   7.967  12.012   2.430  1.1021 -1.5684  1.0152
 7552SOL    HW229515   7.859  12.069   2.519 -0.6700 -1.9634 -0.8156
 7553SOL     OW29516   3.005   0.365   8.039  0.3434  0.3157 -0.0903
 7553SOL    HW129517   2.957   0.299   7.990 -0.2104  1.6183 -1.3965
 7553SOL    HW229518   3.085   0.379   7.988  0.1572  1.0893 -0.1804
 7554SOL     OW29519  10.435   8.783   9.808  0.4224  0.2936 -0.3811
 7554SOL    HW129520  10.465   8.858   9.860 -0.2643  0.7860 -0.6669
 7554SOL    HW229521  10.399   8.823   9.728  0.6690 -0.3927 -0.8377
 7555SOL     OW29522   9.815   8.732   1.959  0.1574 -0.8748  0.4268
 7555SOL    HW129523   9.726   8.721   1.926 -0.5289 -0.0272  1.8769
 7555SOL    HW229524   9.871   8.692   1.892 -1.1826  0.0187 -1.2944
 7556SOL     OW29525   1.415  10.721   1.891 -0.0038 -0.5095 -0.2294
 7556SOL    HW129526   1.329  10.757   1.871  0.8819  0.6241 -2.2972
 7556SOL    HW229527   1.454  10.784   1.952  0.4370  0.5536 -1.5759
 7557SOL     OW29528   2.218   4.097  10.058  0.1840  0.0374 -0.6287
 7557SOL    HW129529   2.238   4.185  10.026  0.5840 -0.4592 -1.8000
 7557SOL    HW229530   2.287   4.042  10.021  0.7168 -0.5800  1.1620
 7558SOL     OW29531  11.069   9.606   9.176  0.1219 -0.9350  0.6576
 7558SOL    HW129532  11.031   9.636   9.094 -1.5776  0.1718  1.7730
 7558SOL    HW229533  11.149   9.658   9.186  0.1872 -0.8693 -0.1428
 7559SOL     OW29534  10.312  10.460   2.603 -0.0272 -0.7053 -0.4950
 7559SOL    HW129535  10.369  10.383   2.601  3.3428  1.5042  0.7739
 7559SOL    HW229536  10.267  10.453   2.687  0.1202 -1.3721 -0.4626
 7560SOL     OW29537   5.226   3.657   0.281 -0.0660  0.9610 -0.5190
 7560SOL    HW129538   5.218   3.598   0.356 -0.0363  2.6310  0.8693
 7560SOL    HW229539   5.270   3.605   0.214 -0.8147 -0.8405  0.3174
 7561SOL     OW29540   5.218  11.467   4.267  0.3416  0.0038 -0.1551
 7561SOL    HW129541   5.271  11.469   4.346  1.7332  2.5086 -1.0548
 7561SOL    HW229542   5.261  11.402   4.211 -0.5013 -1.5927  0.9487
 7562SOL     OW29543  10.673   1.289   4.730 -0.0624 -0.2202 -0.1483
 7562SOL    HW129544  10.608   1.225   4.759  0.7548 -1.0241 -0.0496
 7562SOL    HW229545  10.743   1.236   4.690  1.3166  0.4765  1.2331
 7563SOL     OW29546   8.693   7.698   6.895  0.1816  0.1194 -0.0585
 7563SOL    HW129547   8.620   7.643   6.867 -0.5093 -0.0793  1.9764
 7563SOL    HW229548   8.754   7.638   6.937  1.0136  0.4482 -0.7675
 7564SOL     OW29549  11.289   9.058  10.290 -0.1928  0.7251 -0.1849
 7564SOL    HW129550  11.298   9.111  10.210  0.4575 -1.7753 -1.8904
 7564SOL    HW229551  11.263   8.972  10.258  1.7883 -0.8465  2.1638
 7565SOL     OW29552   7.864   0.658  11.468 -0.3465 -0.0208  0.1884
 7565SOL    HW129553   7.932   0.628  11.528 -0.5992 -0.5031  0.2367
 7565SOL    HW229554   7.852   0.585  11.407 -1.2928 -0.2163  0.5885
 7566SOL     OW29555   0.362   1.522   7.290  0.0490 -0.1462 -0.2737
 7566SOL    HW129556   0.346   1.517   7.196 -0.8191 -1.2394 -0.0836
 7566SOL    HW229557   0.275   1.529   7.329  0.2332 -1.8849  0.5457
 7567SOL     OW29558   8.072  10.287   8.056  0.1475  0.1030 -0.0305
 7567SOL    HW129559   8.113  10.234   8.124 -0.8901 -1.4463 -0.5637
 7567SOL    HW229560   8.103  10.249   7.974 -0.2003  0.6655 -0.4349
 7568SOL     OW29561   7.578   0.154   7.647  0.7357  0.1571  0.0205
 7568SOL    HW129562   7.507   0.218   7.644  1.3627  0.9037  0.5775
 7568SOL    HW229563   7.535   0.069   7.638 -0.2327  0.5965  0.4324
 7569SOL     OW29564   7.028   6.973  12.463  0.5857 -0.6501  0.3427
 7569SOL    HW129565   7.116   6.999  12.489  0.2166  1.9268 -0.6897
 7569SOL    HW229566   6.973   6.994  12.539  0.8531 -2.6181  1.1330
 7570SOL     OW29567   7.283   3.760   4.620  0.2800  0.2445  0.4360
 7570SOL    HW129568   7.230   3.738   4.697 -1.4834 -0.4694 -0.9140
 7570SOL    HW229569   7.352   3.694   4.619  0.5920  0.5208  1.6206
 7571SOL     OW29570   1.979   8.935  12.437 -0.1313 -0.1388  0.0390
 7571SOL    HW129571   1.887   8.952  12.419 -0.2782 -0.6173  0.3329
 7571SOL    HW229572   2.023   8.948  12.352 -0.5933 -0.8132 -0.3083
 7572SOL     OW29573  12.310  11.185  12.312 -0.8697 -0.4408  0.3708
 7572SOL    HW129574  12.241  11.171  12.247 -0.2291 -0.4227 -0.3247
 7572SOL    HW229575  12.264  11.184  12.396 -2.0092  1.4092 -0.1565
 7573SOL     OW29576   0.169  10.708   8.537  0.2919  0.5928  0.2653
 7573SOL    HW129577   0.219  10.658   8.602 -2.6891 -2.3086  0.5968
 7573SOL    HW229578   0.166  10.651   8.460 -2.1689  0.7614  0.1612
 7574SOL     OW29579   4.883   7.232   4.636  0.3325  0.2404 -0.3241
 7574SOL    HW129580   4.793   7.254   4.661  0.0501 -0.9710 -0.1896
 7574SOL    HW229581   4.929   7.223   4.719  0.7046  1.3318 -0.4069
 7575SOL     OW29582   2.258   3.618  10.188 -0.0581  1.0220 -0.1879
 7575SOL    HW129583   2.342   3.643  10.150 -0.4744  2.9574  0.0791
 7575SOL    HW229584   2.264   3.646  10.280 -1.2176  1.7730 -0.3257
 7576SOL     OW29585   7.406   5.697   6.746 -0.4938  0.3112  0.0364
 7576SOL    HW129586   7.316   5.698   6.712 -0.3734 -0.8008 -0.3495
 7576SOL    HW229587   7.454   5.755   6.687 -1.0528  1.3601  0.5748
 7577SOL     OW29588   2.115   0.942   1.672  0.3138 -0.2549 -0.1116
 7577SOL    HW129589   2.045   0.947   1.738  1.1359 -1.5382  0.9214
 7577SOL    HW229590   2.189   0.905   1.720  0.8436 -1.5284 -1.8264
 7578SOL     OW29591   5.177   7.576   4.958 -0.1010  0.6303 -0.6480
 7578SOL    HW129592   5.216   7.525   5.029 -2.1072  0.2439  0.2630
 7578SOL    HW229593   5.222   7.660   4.962  1.6067 -0.2446 -0.6129
 7579SOL     OW29594  11.149   7.911   1.116 -0.5782 -0.1577  0.0992
 7579SOL    HW129595  11.093   7.931   1.191  0.7230  2.6727  0.4713
 7579SOL    HW229596  11.090   7.912   1.041 -1.4759 -0.1777  0.7861
 7580SOL     OW29597  11.877   9.373   9.035  0.2208 -0.4608 -0.0629
 7580SOL    HW129598  11.929   9.417   8.968  0.6306 -3.6162 -2.0390
 7580SOL    HW229599  11.786   9.381   9.004  0.3097 -1.0212 -0.4959
 7581SOL     OW29600   2.469   4.665   6.616  0.1214 -0.1525  0.3837
 7581SOL    HW129601   2.412   4.726   6.662  0.7783  1.0230 -0.3236
 7581SOL    HW229602   2.424   4.645   6.534 -0.2904 -0.9696  0.7990
 7582SOL     OW29603   2.924   8.582   5.439 -0.0502 -0.0831  0.0491
 7582SOL    HW129604   2.840   8.600   5.480 -0.3784 -1.5299  0.0738
 7582SOL    HW229605   2.940   8.657   5.381  0.7248  2.3749  3.1686
 7583SOL     OW29606   7.402   5.452   7.735 -0.4429  0.3648 -0.2707
 7583SOL    HW129607   7.316   5.468   7.695  0.0005  0.2550 -1.2740
 7583SOL    HW229608   7.410   5.357   7.739 -0.6522  0.3735  0.4552
 7584SOL     OW29609  10.851   0.928   0.388 -0.0540  0.3321  0.0110
 7584SOL    HW129610  10.908   0.991   0.433  0.1784 -0.2480  0.5478
 7584SOL    HW229611  10.910   0.879   0.331 -0.4209  1.3660 -1.2840
 7585SOL     OW29612  12.240   6.401   0.521  1.0133 -0.0410 -0.6146
 7585SOL    HW129613  12.244   6.345   0.599 -0.0591  0.0720 -0.4580
 7585SOL    HW229614  12.221   6.489   0.555  1.5760  0.2116 -0.9372
 7586SOL     OW29615   4.435   0.027   0.068 -0.4140 -0.0508 -0.9430
 7586SOL    HW129616   4.434   0.121   0.087  1.2294 -0.1108 -0.3752
 7586SOL    HW229617   4.388  -0.013   0.141  3.4640 -0.0414  1.8923
 7587SOL     OW29618   7.678  12.299   0.430  0.5416 -0.5570  0.2970
 7587SOL    HW129619   7.588  12.268   0.424 -0.0156  0.9628  0.4070
 7587SOL    HW229620   7.707  12.305   0.339  0.5857 -1.1936  0.2679
 7588SOL     OW29621  10.462   7.868  12.189  0.0439 -0.1161 -0.5614
 7588SOL    HW129622  10.407   7.800  12.149 -2.3328  0.8773  0.8250
 7588SOL    HW229623  10.509   7.823  12.259  0.2370 -0.7629 -1.0896
 7589SOL     OW29624   4.272  10.407   7.039  0.0785  0.3834 -0.1813
 7589SOL    HW129625   4.242  10.457   6.963 -1.4878  0.1358  0.2242
 7589SOL    HW229626   4.337  10.347   7.005  0.3748  1.1891 -1.0754
 7590SOL     OW29627   7.675  10.283   7.877  0.0122 -0.1353 -0.0709
 7590SOL    HW129628   7.721  10.237   7.807  2.2802  0.1377  1.1631
 7590SOL    HW229629   7.712  10.371   7.877 -2.0245  0.7745 -0.3487
 7591SOL     OW29630   9.246   5.182   2.606 -0.3098  0.6879 -0.2343
 7591SOL    HW129631   9.265   5.196   2.699  1.3218 -1.1137 -0.2343
 7591SOL    HW229632   9.258   5.268   2.566  3.3220  0.7387  0.5991
 7592SOL     OW29633   9.689  10.188   4.043  0.1891  0.0334 -0.6927
 7592SOL    HW129634   9.724  10.259   4.097  0.2575  0.0641 -0.7797
 7592SOL    HW229635   9.678  10.226   3.956  0.3383 -0.0981 -0.7688
 7593SOL     OW29636  11.951   8.015   3.040 -0.0810  0.2293  0.3131
 7593SOL    HW129637  11.943   7.921   3.028 -0.5484  0.1720  1.0069
 7593SOL    HW229638  11.886   8.036   3.107 -1.8679  1.4400 -1.6446
 7594SOL     OW29639   3.516   5.154   7.353  0.2313  0.1419  0.1247
 7594SOL    HW129640   3.497   5.201   7.434 -0.3343  0.1190  0.0096
 7594SOL    HW229641   3.572   5.213   7.303  0.6606  0.1174  0.5651
 7595SOL     OW29642   4.802   5.487   1.703 -0.4085  0.1483 -0.0040
 7595SOL    HW129643   4.742   5.501   1.630 -0.2977  0.2981 -0.0654
 7595SOL    HW229644   4.846   5.571   1.715 -0.2585  0.0579  0.0848
 7596SOL     OW29645  10.345   7.646  12.073  0.0107 -0.0489 -0.1162
 7596SOL    HW129646  10.338   7.581  12.143 -2.4616 -0.4334 -0.6461
 7596SOL    HW229647  10.280   7.620  12.009 -0.7040  2.6437 -0.6049
 7597SOL     OW29648  10.077  10.607   9.301  0.0357  0.4594  0.1726
 7597SOL    HW129649  10.089  10.533   9.361  0.5613  0.7294  0.4129
 7597SOL    HW229650   9.985  10.603   9.277 -0.0676  0.0388  0.5988
 7598SOL     OW29651   9.237   7.271   0.870 -0.1627 -0.6782  0.2814
 7598SOL    HW129652   9.320   7.298   0.911  0.6376  0.6680 -2.0199
 7598SOL    HW229653   9.181   7.349   0.876 -0.4219 -0.8273 -0.1756
 7599SOL     OW29654   8.366  11.594   4.583 -0.5026 -0.4776  0.2490
 7599SOL    HW129655   8.398  11.665   4.527 -2.5344  1.1503  1.0245
 7599SOL    HW229656   8.321  11.639   4.655 -1.6007 -2.5583  0.9273
 7600SOL     OW29657  10.481   9.719  12.391 -0.4975 -0.4920  0.4184
 7600SOL    HW129658  10.505   9.807  12.362  0.7597 -0.8382  0.3568
 7600SOL    HW229659  10.410   9.733  12.454 -0.6241  0.5265  0.0671
 7601SOL     OW29660   5.073   3.129   8.869 -0.7283  0.4337 -0.5574
 7601SOL    HW129661   5.081   3.170   8.783 -0.5567  0.4071 -0.5546
 7601SOL    HW229662   5.128   3.182   8.926 -0.2045 -0.0200 -0.6317
 7602SOL     OW29663   8.830   1.950   0.774  0.1034  0.7254  0.3967
 7602SOL    HW129664   8.923   1.972   0.785  0.0232  0.8219  0.9336
 7602SOL    HW229665   8.784   2.025   0.811 -0.1956  0.9438 -0.4070
 7603SOL     OW29666  10.468   1.520   4.280  0.6249 -0.0211  0.4694
 7603SOL    HW129667  10.470   1.545   4.372 -0.0959 -1.9132  1.0395
 7603SOL    HW229668  10.466   1.425   4.281  0.2985 -0.0757 -1.5116
 7604SOL     OW29669   7.794   5.152  10.779 -0.2417 -0.7563  0.1796
 7604SOL    HW129670   7.699   5.138  10.778 -0.2903 -0.4158  0.1570
 7604SOL    HW229671   7.829   5.079  10.728 -0.5787 -0.1725 -0.9067
 7605SOL     OW29672  12.468   1.688   0.067 -0.2702  0.2333 -0.5621
 7605SOL    HW129673  12.444   1.656   0.154 -0.4638  0.2683 -0.6025
 7605SOL    HW229674  12.431   1.776   0.063  0.6261  0.6301 -0.2931
 7606SOL     OW29675   2.497   4.039   6.076 -0.0131  0.1949  0.2779
 7606SOL    HW129676   2.439   3.975   6.118  0.5727 -0.5450 -0.0093
 7606SOL    HW229677   2.459   4.052   5.989  0.8602 -1.1763 -0.3444
 7607SOL     OW29678   6.584   3.658   7.124  0.2866 -1.2006 -0.3283
 7607SOL    HW129679   6.601   3.638   7.216  1.2691  1.4165  0.1223
 7607SOL    HW229680   6.667   3.695   7.092 -0.9619  0.8200 -1.3802
 7608SOL     OW29681   2.711  11.759  10.922 -0.1722 -0.2584  0.8228
 7608SOL    HW129682   2.689  11.851  10.914 -0.5604 -0.3997  0.2037
 7608SOL    HW229683   2.806  11.755  10.906 -0.3089 -0.0729 -0.0982
 7609SOL     OW29684   8.058   6.487   5.067 -0.1180  0.1944 -0.1152
 7609SOL    HW129685   8.029   6.566   5.113 -0.6777 -0.0156 -0.0993
 7609SOL    HW229686   8.150   6.479   5.090 -0.7020 -0.7151  2.1838
 7610SOL     OW29687   8.617   9.441  11.170  0.0809  0.3244 -0.2582
 7610SOL    HW129688   8.564   9.374  11.213 -0.2065 -0.0613 -1.1983
 7610SOL    HW229689   8.561   9.519  11.169  0.9424  1.0650  2.1577
 7611SOL     OW29690   4.913  10.653   1.964  0.4520 -0.5639 -0.1165
 7611SOL    HW129691   4.839  10.597   1.941  0.0519  0.5870 -1.8062
 7611SOL    HW229692   4.990  10.602   1.939  0.2077 -1.2627  0.5002
 7612SOL     OW29693   2.535  12.485   8.173  0.0034  0.6681  0.5662
 7612SOL    HW129694   2.554  12.497   8.080 -2.3315  1.7547  0.1807
 7612SOL    HW229695   2.521  12.391   8.182  0.1018  0.5673 -0.2120
 7613SOL     OW29696   1.296   8.316  11.313 -0.3099 -0.1158  0.5104
 7613SOL    HW129697   1.333   8.323  11.225 -0.8256 -1.0901  0.2031
 7613SOL    HW229698   1.311   8.403  11.352  2.1265 -0.4058  0.3676
 7614SOL     OW29699   8.327   9.458   0.419  0.1079  0.1573 -0.0369
 7614SOL    HW129700   8.344   9.510   0.341  0.0160 -0.1720 -0.2765
 7614SOL    HW229701   8.366   9.509   0.490  3.4232 -1.1896 -0.7066
 7615SOL     OW29702   4.117   3.539   1.361 -0.3755 -0.5385  0.4840
 7615SOL    HW129703   4.054   3.545   1.433 -0.3760 -1.4324  0.5735
 7615SOL    HW229704   4.063   3.538   1.282 -0.3376  1.4307  0.3742
 7616SOL     OW29705  11.161   7.817   0.701  0.1557 -0.2430  0.6245
 7616SOL    HW129706  11.102   7.824   0.626 -1.8787 -0.7524  2.0673
 7616SOL    HW229707  11.176   7.723   0.711 -0.7294 -0.3032  1.6231
 7617SOL     OW29708   5.048   3.913   3.219  0.2750  0.2375 -0.1914
 7617SOL    HW129709   5.061   4.007   3.225 -1.6438  0.4763  2.8012
 7617SOL    HW229710   5.135   3.877   3.204  1.4384  2.4058  0.8602
 7618SOL     OW29711   9.988   6.680   1.013 -0.2186  0.5424 -0.2368
 7618SOL    HW129712   9.973   6.706   0.922 -0.7681 -1.4807 -0.7780
 7618SOL    HW229713  10.034   6.596   1.007 -2.9663 -1.2372  1.2307
 7619SOL     OW29714  11.665   4.817   7.268 -0.2300 -0.4371 -0.4886
 7619SOL    HW129715  11.651   4.782   7.181 -2.7890 -0.6060 -0.0677
 7619SOL    HW229716  11.649   4.744   7.327 -0.3096  0.1108  0.1845
 7620SOL     OW29717   0.462   0.290  10.261  0.0736 -0.6329  0.4683
 7620SOL    HW129718   0.519   0.365  10.276  0.1935 -0.9009  1.4087
 7620SOL    HW229719   0.522   0.215  10.260 -0.1598 -0.8208  0.5401
 7621SOL     OW29720   9.519   6.021  12.506 -0.1162  0.0935 -0.3895
 7621SOL    HW129721   9.456   5.966  12.553 -0.6792  0.5512 -0.6044
 7621SOL    HW229722   9.531   6.097  12.563  0.7407 -0.2868 -0.0437
 7622SOL     OW29723   2.240   4.445  10.889  0.2000  0.1844  0.0265
 7622SOL    HW129724   2.289   4.493  10.822  0.5319 -0.4239 -0.1760
 7622SOL    HW229725   2.190   4.380  10.840 -0.3747  0.4304  0.2846
 7623SOL     OW29726   7.733   1.423   0.445  0.0375 -0.3804 -0.4661
 7623SOL    HW129727   7.768   1.406   0.533 -1.3379  1.1591  0.4525
 7623SOL    HW229728   7.795   1.484   0.406 -1.2888  2.1040  1.0336
 7624SOL     OW29729   9.417   3.246   7.088 -0.1810 -0.1188 -0.4066
 7624SOL    HW129730   9.465   3.226   7.168  0.5266  0.8946 -0.5553
 7624SOL    HW229731   9.458   3.325   7.054 -1.8019  0.6630 -0.6740
 7625SOL     OW29732   9.759  11.646   4.497  0.4427 -0.3944  0.0903
 7625SOL    HW129733   9.745  11.676   4.407  1.4510 -0.3273 -0.0586
 7625SOL    HW229734   9.714  11.562   4.502 -1.5635  0.6240  0.2077
 7626SOL     OW29735   9.955   7.339  10.681 -0.3077  0.1574 -0.1603
 7626SOL    HW129736   9.881   7.398  10.666 -0.2650  0.1753 -0.3030
 7626SOL    HW229737   9.996   7.372  10.760 -1.2283 -0.6343  0.6825
 7627SOL     OW29738   2.886   9.313   9.702 -0.0980  0.1192  0.0625
 7627SOL    HW129739   2.887   9.324   9.606  0.9412  1.0369  0.1651
 7627SOL    HW229740   2.919   9.224   9.716 -1.2145 -0.3968 -0.4613
 7628SOL     OW29741   4.915   3.854   5.538  0.3407  0.3734 -0.1925
 7628SOL    HW129742   4.831   3.873   5.580 -0.4946 -4.6161  0.9721
 7628SOL    HW229743   4.971   3.820   5.608  2.5076  1.1355 -1.4316
 7629SOL     OW29744   3.047   8.836   2.230  0.0550  0.0551 -0.9555
 7629SOL    HW129745   2.957   8.868   2.224 -0.3992 -1.3568 -2.9292
 7629SOL    HW229746   3.058   8.808   2.321 -1.2741  0.8481 -0.5355
 7630SOL     OW29747   7.631   2.855   9.265 -0.4833 -0.3279  0.7746
 7630SOL    HW129748   7.582   2.831   9.187 -1.1770  0.4495  0.9482
 7630SOL    HW229749   7.722   2.858   9.237 -0.6779 -0.4989  0.1098
 7631SOL     OW29750  10.304   9.716   2.479 -0.4797 -0.0335 -0.3733
 7631SOL    HW129751  10.359   9.765   2.419 -0.2503 -1.0285 -0.9880
 7631SOL    HW229752  10.365   9.672   2.538 -0.4406 -2.4981 -2.0881
 7632SOL     OW29753   7.925   1.712  11.788 -0.0071  0.0825  0.1798
 7632SOL    HW129754   7.880   1.738  11.868 -1.1529 -0.8385 -0.1378
 7632SOL    HW229755   7.942   1.794  11.742 -0.5387  0.5164  0.7367
 7633SOL     OW29756   6.385   9.107   5.086 -0.4206 -0.0728  0.0812
 7633SOL    HW129757   6.459   9.115   5.146  0.7727 -1.4802 -1.0894
 7633SOL    HW229758   6.418   9.051   5.015 -3.4164 -3.1221  0.8164
 7634SOL     OW29759   8.702  11.032  11.256  0.2038  0.1837  0.3138
 7634SOL    HW129760   8.721  11.095  11.326  0.3756 -0.5930  0.9772
 7634SOL    HW229761   8.728  11.077  11.176 -1.8377  1.8856  0.5012
 7635SOL     OW29762   9.330   3.931   9.367 -0.1398 -0.2619 -0.0733
 7635SOL    HW129763   9.408   3.895   9.323 -0.0853 -0.0969 -0.1147
 7635SOL    HW229764   9.257   3.884   9.327 -0.1442  0.3676 -0.8501
 7636SOL     OW29765   7.620   3.284   0.296 -0.4430  0.0889 -0.0268
 7636SOL    HW129766   7.712   3.257   0.303 -0.3531 -0.2908 -2.0823
 7636SOL    HW229767   7.615   3.364   0.348  0.5072 -1.0550  1.9232
 7637SOL     OW29768   1.835   7.697   3.486 -0.1360 -0.5803  0.4982
 7637SOL    HW129769   1.902   7.672   3.550  1.2808  0.2806 -0.5845
 7637SOL    HW229770   1.879   7.687   3.401 -1.6069 -0.6254 -0.2882
 7638SOL     OW29771   6.065   0.137  11.812 -0.1867 -0.2792 -0.0276
 7638SOL    HW129772   6.132   0.094  11.759 -0.8033  0.7594 -1.7508
 7638SOL    HW229773   6.102   0.139  11.901  2.5207  1.0826 -1.0637
 7639SOL     OW29774   0.983   5.648  11.450  0.3438 -0.0059 -0.3428
 7639SOL    HW129775   0.901   5.696  11.437  0.8065  0.8104 -0.3497
 7639SOL    HW229776   0.980   5.576  11.386  0.0220  0.5379 -0.9542
 7640SOL     OW29777   2.808   8.182   3.777 -0.1252  0.1306  0.2629
 7640SOL    HW129778   2.896   8.202   3.745  0.2923 -3.3928 -1.2361
 7640SOL    HW229779   2.823   8.132   3.857 -0.9814  2.2839  1.8777
 7641SOL     OW29780   4.372   3.064   6.379 -0.2599 -0.1186 -0.3622
 7641SOL    HW129781   4.342   2.973   6.388 -0.4877 -0.0664 -0.5733
 7641SOL    HW229782   4.467   3.057   6.370 -0.1857 -0.2735  0.4964
 7642SOL     OW29783   4.679  12.022   0.082 -0.6421  0.0025  0.1269
 7642SOL    HW129784   4.712  12.021  -0.007 -4.3484 -2.4593 -1.4749
 7642SOL    HW229785   4.710  11.939   0.120 -0.5579  0.1973  0.4882
 7643SOL     OW29786   3.066   4.816  10.784 -0.5213  0.4530  0.4853
 7643SOL    HW129787   2.993   4.877  10.773  0.1819  1.7139  2.2654
 7643SOL    HW229788   3.069   4.799  10.878  0.5258 -0.8039  0.2501
 7644SOL     OW29789   1.549   7.002  10.066 -0.0968 -0.0933 -0.5225
 7644SOL    HW129790   1.544   7.092  10.096 -1.2426 -0.0371 -0.8239
 7644SOL    HW229791   1.623   6.964  10.114  0.7673  1.1516 -0.8296
 7645SOL     OW29792   5.262   7.700   8.776 -0.1684  0.9590  0.4519
 7645SOL    HW129793   5.233   7.619   8.733 -0.0606  1.1494  0.0089
 7645SOL    HW229794   5.195   7.718   8.841 -0.3076  0.6301  0.4054
 7646SOL     OW29795   2.085   6.137  12.043 -0.0722  0.0086  0.0681
 7646SOL    HW129796   2.110   6.101  11.959 -0.8367 -0.3602 -0.0154
 7646SOL    HW229797   1.995   6.107  12.056 -0.4385  1.1740  0.3958
 7647SOL     OW29798   3.746   0.837  11.181  0.3721  0.4069 -0.2054
 7647SOL    HW129799   3.807   0.781  11.229 -1.2045 -1.0186  0.1943
 7647SOL    HW229800   3.682   0.864  11.246 -0.1029  0.9249 -0.8698
 7648SOL     OW29801   0.721   7.236   9.782 -0.4899 -0.4041 -0.0432
 7648SOL    HW129802   0.657   7.233   9.853  0.2267  0.2145  0.6522
 7648SOL    HW229803   0.755   7.326   9.784  0.6144 -0.7989 -0.1977
 7649SOL     OW29804  10.514  10.275  11.362  0.3557 -0.2191  0.2586
 7649SOL    HW129805  10.507  10.186  11.329  0.1323 -0.4286  0.8615
 7649SOL    HW229806  10.584  10.314  11.310 -0.4639 -0.3010 -0.9752
 7650SOL     OW29807   2.836   6.490   8.295 -0.0518  0.0153  0.1897
 7650SOL    HW129808   2.794   6.409   8.265  1.4360 -1.1838  1.1993
 7650SOL    HW229809   2.798   6.507   8.380  0.6783 -0.4838  0.6338
 7651SOL     OW29810  11.669   1.219  12.046  0.5855 -0.6109  0.5448
 7651SOL    HW129811  11.583   1.247  12.014  0.5694 -0.2854  0.8644
 7651SOL    HW229812  11.710   1.299  12.077  2.0335 -0.3024 -1.9152
 7652SOL     OW29813   6.162   2.362   7.361 -0.5515 -0.7178  0.0196
 7652SOL    HW129814   6.113   2.339   7.282 -2.1056  1.1186  0.4051
 7652SOL    HW229815   6.102   2.343   7.433  0.8469 -2.3643  0.8325
 7653SOL     OW29816   1.697   0.221   3.788 -0.6504 -0.5991 -0.0721
 7653SOL    HW129817   1.698   0.288   3.855  0.7854 -0.2021 -0.4510
 7653SOL    HW229818   1.702   0.138   3.836  0.9317 -0.3049  0.3247
 7654SOL     OW29819  10.494   8.557  11.018 -0.3080 -0.3657  0.1780
 7654SOL    HW129820  10.446   8.585  10.941  0.9594  0.5001 -0.3347
 7654SOL    HW229821  10.538   8.475  10.991 -0.5676 -0.5351  0.2689
 7655SOL     OW29822  10.576  10.463   3.493  0.2535  0.1121 -0.3338
 7655SOL    HW129823  10.519  10.432   3.563  0.8457  1.6304  0.9090
 7655SOL    HW229824  10.662  10.425   3.514  0.6855  1.4383  0.4639
 7656SOL     OW29825  12.474   5.324  10.627 -0.8971  0.1486 -0.1289
 7656SOL    HW129826  12.390   5.369  10.631 -1.2904 -0.5767  0.0102
 7656SOL    HW229827  12.452   5.235  10.596 -0.4782 -0.7717  2.0505
 7657SOL     OW29828   6.555  11.272   4.906  0.1646  0.4380 -0.3292
 7657SOL    HW129829   6.619  11.214   4.865 -0.4387 -0.1580 -0.4509
 7657SOL    HW229830   6.505  11.308   4.833  0.8104  1.4461 -0.2795
 7658SOL     OW29831   6.721  11.990   7.617  0.0238 -0.2383 -0.1840
 7658SOL    HW129832   6.629  12.000   7.640 -0.6358 -1.8435 -1.9626
 7658SOL    HW229833   6.745  12.075   7.579 -0.9787 -0.1052 -0.5509
 7659SOL     OW29834   8.178   2.847   4.910  0.3251  0.4112  0.4581
 7659SOL    HW129835   8.187   2.795   4.830 -0.0569  1.1911 -0.1075
 7659SOL    HW229836   8.266   2.847   4.948  0.2514 -0.9627  0.6978
 7660SOL     OW29837   7.828   5.965   7.924  0.2821  0.4773  0.1727
 7660SOL    HW129838   7.733   5.956   7.925  0.3113  0.2029  0.9117
 7660SOL    HW229839   7.846   6.018   7.846 -0.4403  0.1807 -0.2099
 7661SOL     OW29840  10.011   8.347   5.138  0.4137  0.6679  0.3302
 7661SOL    HW129841   9.923   8.375   5.161  0.4482  2.1691 -1.2187
 7661SOL    HW229842  10.058   8.344   5.222 -1.1754 -0.5736  1.2208
 7662SOL     OW29843  11.168   4.253   0.374  0.6795  0.1980  0.4549
 7662SOL    HW129844  11.087   4.305   0.378 -0.1869 -1.0026 -0.5768
 7662SOL    HW229845  11.211   4.268   0.458 -1.5678 -0.6048  1.8244
 7663SOL     OW29846   8.615  12.429  11.802 -0.6125 -0.3845 -0.3065
 7663SOL    HW129847   8.694  12.379  11.820 -1.4548 -1.7683 -0.3435
 7663SOL    HW229848   8.556  12.367  11.760 -2.7711 -0.2104  2.1821
 7664SOL     OW29849   6.856  12.217   0.990 -0.2620  0.2244  0.5985
 7664SOL    HW129850   6.852  12.132   0.947  0.5586 -0.6371  2.1126
 7664SOL    HW229851   6.947  12.246   0.976 -0.9106  1.5946 -1.1638
 7665SOL     OW29852   9.700   6.288   0.352 -0.1621 -0.1001 -0.1451
 7665SOL    HW129853   9.706   6.287   0.447 -0.7686  2.7175  0.0003
 7665SOL    HW229854   9.788   6.312   0.323 -0.8689  3.0327 -0.0029
 7666SOL     OW29855   6.327   7.505   7.461  0.4956 -0.1746 -0.3203
 7666SOL    HW129856   6.280   7.422   7.472  0.3329  0.1463  2.0214
 7666SOL    HW229857   6.288   7.545   7.384 -0.8633 -1.3603 -0.2883
 7667SOL     OW29858   4.627   2.622   6.450 -0.1868  0.5626 -0.1768
 7667SOL    HW129859   4.685   2.662   6.385  1.0828 -1.2662 -0.2403
 7667SOL    HW229860   4.562   2.574   6.399 -1.3725  1.9852 -0.0897
 7668SOL     OW29861   6.068   5.969   7.213  0.0881 -0.0181 -0.2182
 7668SOL    HW129862   6.017   5.919   7.277 -0.2630  1.5808  0.8253
 7668SOL    HW229863   6.153   5.925   7.210 -1.0172 -2.2218 -1.3575
 7669SOL     OW29864  12.488  11.617  12.178 -0.4844  0.6146  0.1547
 7669SOL    HW129865  12.431  11.635  12.252 -2.1777 -2.1432 -0.3391
 7669SOL    HW229866  12.520  11.528  12.192  0.6827  0.7176 -1.4812
 7670SOL     OW29867   9.032   4.696   3.068  0.0580  0.0826  0.4453
 7670SOL    HW129868   9.100   4.629   3.071 -2.0968 -2.2618 -0.0069
 7670SOL    HW229869   8.998   4.700   3.157 -0.5632 -0.2406  0.2255
 7671SOL     OW29870   4.453   4.648   0.014  0.2010 -0.4495  0.4006
 7671SOL    HW129871   4.473   4.715   0.080  1.0884 -0.9645  0.6760
 7671SOL    HW229872   4.539   4.617  -0.014 -0.1730 -0.2849 -0.9629
 7672SOL     OW29873   1.189  11.769   4.349 -0.2187  0.2806  0.6671
 7672SOL    HW129874   1.173  11.820   4.428  0.5932  0.3597  0.7884
 7672SOL    HW229875   1.130  11.694   4.356  0.1189  0.0823  1.5509
 7673SOL     OW29876   6.245  10.965   0.168  0.2029  0.7857  0.7018
 7673SOL    HW129877   6.338  10.955   0.189 -0.2579 -2.7933  1.7732
 7673SOL    HW229878   6.212  10.876   0.161 -3.1930  1.9004  0.3821
 7674SOL     OW29879  12.141   2.998   4.700  0.2190 -0.0055  0.6419
 7674SOL    HW129880  12.076   2.951   4.648  1.5612 -0.7328 -0.4738
 7674SOL    HW229881  12.109   2.993   4.790 -2.1071  1.1470 -0.0422
 7675SOL     OW29882   1.659  11.295  10.579  0.7549  0.3240 -0.0796
 7675SOL    HW129883   1.572  11.335  10.572  0.8910  0.5083 -0.7528
 7675SOL    HW229884   1.712  11.362  10.624  0.5441  0.1948  0.3680
 7676SOL     OW29885   7.085   4.370  11.172 -0.1255  0.1702  0.2891
 7676SOL    HW129886   7.076   4.465  11.180 -0.8674  0.4236 -2.2999
 7676SOL    HW229887   7.012   4.334  11.221 -0.6890  1.0424  0.1053
 7677SOL     OW29888   5.332  10.536   0.254 -0.4015  0.3900 -0.3817
 7677SOL    HW129889   5.323  10.523   0.159 -0.0263  0.1206 -0.3797
 7677SOL    HW229890   5.412  10.588   0.263 -1.0796  1.4478 -0.2891
 7678SOL     OW29891   3.633  11.899   6.226 -0.2279  0.2187 -0.3871
 7678SOL    HW129892   3.625  11.864   6.315 -0.6405 -0.6871 -0.7736
 7678SOL    HW229893   3.713  11.952   6.228  0.2271 -0.4828  0.3004
 7679SOL     OW29894  12.155   4.360   3.893  0.0993 -0.1557  0.1305
 7679SOL    HW129895  12.164   4.268   3.868 -1.0151 -0.2347 -0.0585
 7679SOL    HW229896  12.242   4.397   3.881  0.0276 -0.6023 -2.2440
 7680SOL     OW29897   9.764   5.198   1.216 -0.4632 -0.2919  0.2616
 7680SOL    HW129898   9.802   5.153   1.140 -0.5470  2.5709 -1.6081
 7680SOL    HW229899   9.672   5.212   1.192 -1.0004 -0.9775  1.7584
 7681SOL     OW29900   6.933   0.063  11.850 -0.4823  0.3841  0.2651
 7681SOL    HW129901   6.992   0.016  11.908  0.2259  1.2899  0.2959
 7681SOL    HW229902   6.846   0.048  11.886 -0.2301 -0.5862  0.4855
 7682SOL     OW29903   9.696   8.854  11.300  0.3298  0.0839 -0.2910
 7682SOL    HW129904   9.783   8.885  11.276  0.8320 -0.1466  1.1384
 7682SOL    HW229905   9.693   8.862  11.395 -0.4763 -1.7540 -0.1156
 7683SOL     OW29906   1.175   3.592   5.250 -0.2905  0.0728  0.0370
 7683SOL    HW129907   1.154   3.678   5.285  0.7176  0.5501 -0.4871
 7683SOL    HW229908   1.093   3.543   5.255 -0.4434  0.4257  2.1073
 7684SOL     OW29909  11.109   3.909  10.423 -0.6101  0.0401 -0.2002
 7684SOL    HW129910  11.154   3.993  10.415  2.1060 -1.3580 -0.7313
 7684SOL    HW229911  11.112   3.872  10.335 -3.7702  0.2488 -0.4938
 7685SOL     OW29912   9.068   5.215   6.611  0.0806  0.0367  0.3886
 7685SOL    HW129913   8.990   5.198   6.664  0.4775  0.9654  1.3149
 7685SOL    HW229914   9.140   5.217   6.675  0.8677 -0.7643 -0.4396
 7686SOL     OW29915  12.150   3.807   4.642  0.6098  0.0335  0.0443
 7686SOL    HW129916  12.138   3.861   4.720 -1.6048  2.4844 -1.7851
 7686SOL    HW229917  12.175   3.869   4.573 -0.4273 -1.4974 -1.8267
 7687SOL     OW29918   9.136   6.783   8.744 -0.4001  0.0643 -0.2098
 7687SOL    HW129919   9.220   6.789   8.699 -0.7743 -0.3906 -0.9873
 7687SOL    HW229920   9.145   6.841   8.820  0.6831 -0.1282 -0.1715
 7688SOL     OW29921   2.476  10.155   4.500 -0.1507 -0.2869  0.4737
 7688SOL    HW129922   2.431  10.093   4.558 -1.9055  0.7702  0.3111
 7688SOL    HW229923   2.470  10.115   4.413 -1.4760  0.1569  0.3325
 7689SOL     OW29924   2.656   2.939  11.473 -0.3683 -0.0236  0.1504
 7689SOL    HW129925   2.623   2.855  11.440 -0.2787  0.2181 -0.5765
 7689SOL    HW229926   2.706   2.975  11.400 -1.3944  1.2098  0.0117
 7690SOL     OW29927   8.812  12.232   2.952 -0.2681 -0.8127 -0.5345
 7690SOL    HW129928   8.891  12.282   2.929  0.5438 -0.3506  2.7570
 7690SOL    HW229929   8.842  12.142   2.962 -0.6799 -1.0729 -1.5153
 7691SOL     OW29930   7.144  11.101   1.551  0.4420  0.2991 -0.0656
 7691SOL    HW129931   7.096  11.021   1.569  0.3805  0.0882 -1.0766
 7691SOL    HW229932   7.078  11.170   1.551 -0.0775 -0.1047 -2.3093
 7692SOL     OW29933   3.752   7.765   4.336 -0.1598 -0.5307  0.0130
 7692SOL    HW129934   3.670   7.787   4.381  0.7170 -0.1321  1.4470
 7692SOL    HW229935   3.742   7.672   4.313 -2.1934  0.1656 -2.4669
 7693SOL     OW29936   1.830  10.256   2.081  0.1850 -0.3026  0.5389
 7693SOL    HW129937   1.793  10.181   2.035  0.6549 -0.3053  0.1575
 7693SOL    HW229938   1.923  10.235   2.091  0.3896  0.3704  0.1281
 7694SOL     OW29939   7.695   9.635   2.589  0.3339  0.8268  0.2978
 7694SOL    HW129940   7.716   9.685   2.668 -1.3842  0.7711  0.8557
 7694SOL    HW229941   7.754   9.668   2.522  3.2558 -0.4754  2.0130
 7695SOL     OW29942   5.683   3.749   7.585 -0.4371  0.5244  0.4963
 7695SOL    HW129943   5.723   3.673   7.628 -0.4086 -1.2961 -2.4364
 7695SOL    HW229944   5.608   3.771   7.641 -0.7566 -2.0463  1.2194
 7696SOL     OW29945   0.847   4.253  12.103 -0.0448  0.2386  0.5458
 7696SOL    HW129946   0.895   4.233  12.184  1.5295 -0.7213 -0.5679
 7696SOL    HW229947   0.900   4.214  12.034 -1.7609  0.3522 -0.8966
 7697SOL     OW29948   9.624   0.298   4.192 -0.0988 -0.4601  0.2320
 7697SOL    HW129949   9.694   0.293   4.257 -0.7582 -0.0654  0.9907
 7697SOL    HW229950   9.668   0.328   4.112  0.4618  0.7571  0.9533
 7698SOL     OW29951   0.151   3.852   1.987 -0.4093  0.8040 -0.7413
 7698SOL    HW129952   0.236   3.895   1.994 -0.0727  0.1662 -0.7782
 7698SOL    HW229953   0.098   3.912   1.935  0.5857  0.4191 -2.2881
 7699SOL     OW29954   0.346   1.789  10.799  0.0639 -0.2486 -0.6336
 7699SOL    HW129955   0.256   1.772  10.825 -0.4394  0.6938 -1.6758
 7699SOL    HW229956   0.386   1.831  10.876 -0.3797 -0.6339 -0.1848
 7700SOL     OW29957   6.106   8.865   1.869  0.1963 -0.0592 -0.9928
 7700SOL    HW129958   6.070   8.800   1.809  0.5781  0.0855 -1.3828
 7700SOL    HW229959   6.055   8.944   1.853 -0.4526 -0.3308 -0.3233
 7701SOL     OW29960   4.263   4.931   1.378 -0.2771 -0.0076  0.8425
 7701SOL    HW129961   4.271   4.897   1.467  1.5202 -0.4857  0.5381
 7701SOL    HW229962   4.233   4.857   1.326 -0.0977 -0.0766  0.8368
 7702SOL     OW29963   5.930   2.731   4.897 -0.1186  0.3375  0.0196
 7702SOL    HW129964   5.976   2.647   4.896  0.5154  0.6593  1.1257
 7702SOL    HW229965   5.999   2.796   4.884 -0.6925  0.6887 -1.6210
 7703SOL     OW29966   0.198  10.777   9.028  0.0071 -0.5141  0.4117
 7703SOL    HW129967   0.280  10.741   8.993  0.1413  0.6044 -0.4960
 7703SOL    HW229968   0.130  10.736   8.974  0.2666  2.0145 -2.0929
 7704SOL     OW29969   7.604   3.423  12.013  0.3833 -0.7105  0.6194
 7704SOL    HW129970   7.653   3.340  12.013 -0.9238 -1.5767 -1.8685
 7704SOL    HW229971   7.671   3.491  12.009  1.4393 -1.6984  0.9619
 7705SOL     OW29972  10.126   7.781  11.081  0.1303  0.4660 -0.3706
 7705SOL    HW129973  10.127   7.827  11.165 -1.6964  1.3478 -0.7889
 7705SOL    HW229974  10.141   7.689  11.104 -0.5690  0.6571  0.9485
 7706SOL     OW29975   2.472   7.128   0.669 -1.1202  0.1668 -0.3513
 7706SOL    HW129976   2.518   7.076   0.603 -0.0614 -1.6349  1.6917
 7706SOL    HW229977   2.426   7.063   0.722  1.1547  1.0879  3.0324
 7707SOL     OW29978  12.277   4.979   1.630 -0.3148  0.9543 -0.3570
 7707SOL    HW129979  12.304   4.888   1.643 -0.1919  1.3632  3.2269
 7707SOL    HW229980  12.191   4.973   1.589 -0.2419 -0.7664 -0.3118
 7708SOL     OW29981   3.394  11.247   9.336  0.3414  0.1697 -0.3847
 7708SOL    HW129982   3.310  11.244   9.290  0.9765 -1.0684 -1.5702
 7708SOL    HW229983   3.423  11.155   9.337  1.0092  0.3656  1.3015
 7709SOL     OW29984   1.768   8.633   7.489 -0.2386  0.1637  0.0015
 7709SOL    HW129985   1.677   8.604   7.487 -0.4417  0.7778 -0.0281
 7709SOL    HW229986   1.773   8.690   7.566 -0.5598  2.2384 -1.4327
 7710SOL     OW29987   8.530   2.558   0.484 -0.4958 -0.2750 -0.3210
 7710SOL    HW129988   8.470   2.535   0.413  0.0196 -1.3415 -0.4354
 7710SOL    HW229989   8.563   2.645   0.461 -2.5442  0.7019  0.1348
 7711SOL     OW29990   2.970   7.288   5.135 -0.3413  0.0479  0.3554
 7711SOL    HW129991   2.947   7.244   5.217 -1.7514  1.3619  0.7160
 7711SOL    HW229992   2.886   7.305   5.092  0.2001  1.5410 -0.1888
 7712SOL     OW29993   9.537   7.729   8.280  0.7533  0.0449 -0.2421
 7712SOL    HW129994   9.502   7.811   8.315  0.8234  0.2823 -0.7205
 7712SOL    HW229995   9.471   7.664   8.301  0.7019  0.2225  0.1530
 7713SOL     OW29996  11.469   4.127   6.555  0.0048  0.3689  0.3433
 7713SOL    HW129997  11.489   4.200   6.495 -0.0821 -0.1831 -0.3717
 7713SOL    HW229998  11.491   4.161   6.642 -2.3612  2.1245  0.3440
 7714SOL     OW29999   2.348   0.554  12.365 -0.2749  0.0347  0.2550
 7714SOL    HW130000   2.282   0.517  12.423  0.9041 -1.6454  0.5910
 7714SOL    HW230001   2.398   0.614  12.419 -0.3256 -0.1444  0.5003
 7715SOL     OW30002   1.772   7.505  12.022  0.2495 -0.0425  0.4828
 7715SOL    HW130003   1.768   7.520  11.928 -2.2294  1.2593  0.7214
 7715SOL    HW230004   1.851   7.452  12.035  1.1496  0.5189 -2.1954
 7716SOL     OW30005   2.023   5.156   1.363  0.5142  0.2828 -0.4928
 7716SOL    HW130006   1.989   5.106   1.437  0.3375  0.6105 -0.3537
 7716SOL    HW230007   2.040   5.090   1.296  1.0937 -0.0729 -0.0093
 7717SOL     OW30008   3.560   6.262   5.299 -0.0096 -0.6942  0.1772
 7717SOL    HW130009   3.478   6.283   5.343 -0.3127 -1.0450 -0.2177
 7717SOL    HW230010   3.568   6.167   5.305 -0.6979 -0.9076 -1.6211
 7718SOL     OW30011   3.692   7.658  12.303  0.8178  0.6317  0.6142
 7718SOL    HW130012   3.722   7.587  12.360  0.7150  0.5888  0.6142
 7718SOL    HW230013   3.618   7.622  12.256  0.6998  0.7732  0.6893
 7719SOL     OW30014   5.175   1.218   4.635  0.4152 -0.2740 -0.2042
 7719SOL    HW130015   5.187   1.136   4.683  0.4743 -0.4735 -0.5549
 7719SOL    HW230016   5.083   1.240   4.647  0.9419  0.9387  1.9957
 7720SOL     OW30017   7.276   7.444   0.305  0.4905 -0.5419  0.0000
 7720SOL    HW130018   7.281   7.352   0.279 -0.3056 -0.1399 -1.7380
 7720SOL    HW230019   7.249   7.490   0.225  1.9140  1.3516  0.5455
 7721SOL     OW30020   2.751   1.655   6.809  0.0079  0.0311  0.6154
 7721SOL    HW130021   2.826   1.712   6.827 -0.4004  0.0216  2.5832
 7721SOL    HW230022   2.770   1.574   6.856 -1.6346  0.3953  2.0695
 7722SOL     OW30023   4.157   3.295   4.408  0.1092  0.0778 -0.4083
 7722SOL    HW130024   4.168   3.331   4.320 -0.7632  1.4636  0.0115
 7722SOL    HW230025   4.122   3.207   4.394  0.2197  0.1854 -1.4488
 7723SOL     OW30026  11.521   0.961  11.001  0.2741  0.5918 -0.4244
 7723SOL    HW130027  11.558   0.926  11.082 -0.6246  1.5795  0.4407
 7723SOL    HW230028  11.470   1.038  11.028  0.6417  1.4540 -2.0284
 7724SOL     OW30029  11.271   5.486   8.659  0.2834 -0.5158  0.0528
 7724SOL    HW130030  11.342   5.523   8.711 -0.8012  0.2076  1.0689
 7724SOL    HW230031  11.293   5.510   8.569  1.0007  0.2546  0.4172
 7725SOL     OW30032   9.332   9.326   5.772  0.0693 -0.0419 -0.1668
 7725SOL    HW130033   9.279   9.311   5.693  0.7044 -0.2595 -0.5568
 7725SOL    HW230034   9.382   9.406   5.752 -1.4136  1.2096  0.8983
 7726SOL     OW30035   6.918   2.581   1.936  0.2026 -0.0572 -0.0059
 7726SOL    HW130036   6.966   2.590   2.019  0.3175  0.9265 -0.1633
 7726SOL    HW230037   6.882   2.493   1.939 -1.4431  0.5952  2.0024
 7727SOL     OW30038   0.732   7.837   1.373  0.2955  0.1714 -0.3207
 7727SOL    HW130039   0.697   7.828   1.461 -0.4191 -2.3342 -0.7871
 7727SOL    HW230040   0.814   7.787   1.374  0.3403  0.2125 -1.0411
 7728SOL     OW30041   9.162   1.863   7.286  0.6379 -0.1300  0.1674
 7728SOL    HW130042   9.140   1.792   7.226 -0.3558  0.2616  0.0539
 7728SOL    HW230043   9.083   1.916   7.291 -0.3548 -1.6342  3.9650
 7729SOL     OW30044   0.793   7.616   9.055  0.5449 -0.1071 -0.0324
 7729SOL    HW130045   0.780   7.691   9.113 -0.9602 -0.7352  0.5031
 7729SOL    HW230046   0.844   7.554   9.106 -0.3171 -0.4353  0.4529
 7730SOL     OW30047   5.338  10.207   4.158  0.0208 -0.0148 -0.4791
 7730SOL    HW130048   5.397  10.277   4.128 -0.1072 -0.5754 -2.1253
 7730SOL    HW230049   5.255  10.252   4.173  0.1164  0.3161 -0.8974
 7731SOL     OW30050  12.293   1.531   9.986 -0.2534  0.0987 -0.0821
 7731SOL    HW130051  12.276   1.620  10.017 -0.0726  0.4861 -1.0570
 7731SOL    HW230052  12.351   1.494  10.052  1.1455  1.3292 -0.5787
 7732SOL     OW30053   3.723  11.153   8.513  0.4386 -0.6071 -0.4188
 7732SOL    HW130054   3.789  11.197   8.461  0.7723 -0.1646  0.3607
 7732SOL    HW230055   3.640  11.175   8.470  0.8404 -2.2166 -2.1618
 7733SOL     OW30056   7.446   0.894   6.042  0.1198  0.3936  0.2641
 7733SOL    HW130057   7.444   0.984   6.011 -1.9533  0.2574 -0.1535
 7733SOL    HW230058   7.400   0.845   5.974 -2.5073 -0.2957  2.3942
 7734SOL     OW30059   3.680   6.360   5.842 -0.0279 -0.1140 -0.5784
 7734SOL    HW130060   3.763   6.318   5.866 -1.4214 -2.5008  0.5148
 7734SOL    HW230061   3.665   6.333   5.751  0.2430  0.0611 -0.6757
 7735SOL     OW30062   7.066   1.382  10.422 -0.1044  0.6728  0.3995
 7735SOL    HW130063   7.137   1.319  10.433 -0.4740  0.0170 -0.8152
 7735SOL    HW230064   7.103   1.452  10.369  0.0475  1.0435  0.9908
 7736SOL     OW30065   7.525  10.819   5.271 -0.0495  0.1029  0.7000
 7736SOL    HW130066   7.611  10.817   5.229  0.2405  0.6020  1.2458
 7736SOL    HW230067   7.473  10.754   5.224  0.0781  1.0498 -0.8126
 7737SOL     OW30068   1.971   6.335   3.455 -0.0618 -0.1390  0.2771
 7737SOL    HW130069   2.029   6.289   3.395  0.1433 -0.4369  0.7060
 7737SOL    HW230070   1.985   6.428   3.435  1.2729 -0.1665  1.0424
 7738SOL     OW30071   1.551  10.075   4.724 -0.5317  0.2497 -0.5518
 7738SOL    HW130072   1.558  10.031   4.640  1.1514 -0.2232 -0.1971
 7738SOL    HW230073   1.605  10.153   4.715  0.7842 -0.5138  0.5120
 7739SOL     OW30074   9.162   6.854  11.623 -0.2361  0.7038  0.5007
 7739SOL    HW130075   9.214   6.828  11.699  0.7783  0.5654 -0.2168
 7739SOL    HW230076   9.220   6.912  11.574 -1.3607  1.8968  0.5142
 7740SOL     OW30077   1.886  11.533   1.663  0.3181  0.5005 -0.0121
 7740SOL    HW130078   1.825  11.596   1.701 -0.5773  0.1991 -0.8960
 7740SOL    HW230079   1.848  11.512   1.578  2.4658  1.5043 -1.3082
 7741SOL     OW30080   0.865  10.195   9.060  0.5450 -0.6673 -0.0229
 7741SOL    HW130081   0.919  10.133   9.011  1.2900  0.3997 -0.5920
 7741SOL    HW230082   0.927  10.252   9.105 -0.0906  0.1931 -0.1848
 7742SOL     OW30083   6.642   9.102   4.856 -0.2673  0.2641 -0.5188
 7742SOL    HW130084   6.715   9.115   4.916 -0.7853  1.3685 -0.0977
 7742SOL    HW230085   6.673   9.140   4.773 -0.2587  0.4732 -0.4203
 7743SOL     OW30086   9.647   9.292  11.994  0.1589 -0.6174 -0.4225
 7743SOL    HW130087   9.604   9.238  11.928 -0.7395  0.5254 -0.8076
 7743SOL    HW230088   9.712   9.343  11.945 -0.0288 -0.2754 -0.3244
 7744SOL     OW30089   2.156   1.354   5.263  0.1429  0.3701  0.6098
 7744SOL    HW130090   2.117   1.441   5.261 -1.8937 -0.4897 -1.1723
 7744SOL    HW230091   2.086   1.296   5.294  1.1159 -0.7873  0.7536
 7745SOL     OW30092   0.763   1.918   4.238  0.0467 -0.7104 -0.5033
 7745SOL    HW130093   0.825   1.989   4.220 -1.1208  0.9395  1.6719
 7745SOL    HW230094   0.797   1.876   4.317 -1.6478  0.3770  0.8710
 7746SOL     OW30095   1.403   6.091   8.938 -0.4466 -0.8166  0.1334
 7746SOL    HW130096   1.307   6.093   8.934 -0.4683 -1.2690  0.3846
 7746SOL    HW230097   1.425   5.998   8.943 -0.0480 -0.6748  1.2293
 7747SOL     OW30098   2.760   6.568   8.568 -0.8379 -0.5535  0.0707
 7747SOL    HW130099   2.716   6.653   8.581 -0.4437 -0.2523 -0.4937
 7747SOL    HW230100   2.710   6.507   8.621  0.4152  0.4784  2.6172
 7748SOL     OW30101  12.210   6.553   5.614  0.2111 -0.4433  0.0030
 7748SOL    HW130102  12.184   6.556   5.707  0.3445 -2.1527  0.1280
 7748SOL    HW230103  12.300   6.583   5.613  0.6545 -1.6543  0.6533
 7749SOL     OW30104  11.952   8.918   2.666  0.2883 -0.0315 -0.4133
 7749SOL    HW130105  11.915   8.830   2.671  0.0324  0.0397 -0.9816
 7749SOL    HW230106  11.908   8.958   2.591  0.8810  0.3592 -0.5549
 7750SOL     OW30107   9.676   8.147   1.521  0.2647  0.0473 -0.3666
 7750SOL    HW130108   9.581   8.133   1.522  0.1152  1.0177 -0.4693
 7750SOL    HW230109   9.701   8.144   1.613  0.1400 -0.1917 -0.3372
 7751SOL     OW30110   4.900   3.777   1.699  0.5973  0.2246 -0.4399
 7751SOL    HW130111   4.976   3.750   1.749  0.6847  0.7423 -0.2799
 7751SOL    HW230112   4.829   3.783   1.764  0.3399 -0.5746 -0.6450
 7752SOL     OW30113   4.174   6.926   7.395 -0.2432  0.4010  0.0705
 7752SOL    HW130114   4.084   6.905   7.420  0.1804 -2.4144 -0.3922
 7752SOL    HW230115   4.205   6.848   7.349  1.6880  2.1993 -1.9126
 7753SOL     OW30116   3.627   0.202   0.013 -0.0826 -0.0497 -0.1416
 7753SOL    HW130117   3.542   0.228  -0.021  0.2630  0.6169 -0.5135
 7753SOL    HW230118   3.690   0.256  -0.035  0.6602 -1.4752 -0.8349
 7754SOL     OW30119   9.770   6.983  11.331  0.2761 -0.0638  0.0341
 7754SOL    HW130120   9.857   7.008  11.301  0.3593  0.8860  1.0102
 7754SOL    HW230121   9.744   6.911  11.272  1.0090  0.7496 -1.3320
 7755SOL     OW30122   4.278   2.330   6.020  0.9180 -0.3007 -0.4904
 7755SOL    HW130123   4.278   2.337   6.115  0.2709 -0.4984 -0.4699
 7755SOL    HW230124   4.259   2.238   6.002  1.0321 -0.2633 -0.8112
 7756SOL     OW30125   3.163   7.254   9.044  0.0626  0.4438 -0.3793
 7756SOL    HW130126   3.127   7.325   8.990 -0.5870  1.2204  1.0290
 7756SOL    HW230127   3.107   7.179   9.025 -0.9208  1.0349  0.0813
 7757SOL     OW30128   0.781   7.938   0.071  0.1175 -0.4420 -0.4843
 7757SOL    HW130129   0.742   7.875   0.011  0.8043 -0.2769 -1.1156
 7757SOL    HW230130   0.791   7.890   0.154 -0.2476 -0.8657 -0.6874
 7758SOL     OW30131   1.942  10.280   6.503 -0.3868 -0.3715 -0.8302
 7758SOL    HW130132   1.969  10.220   6.434  0.3296 -1.4517  0.3479
 7758SOL    HW230133   1.887  10.227   6.562 -0.8204  0.4666 -0.4542
 7759SOL     OW30134   7.992   5.899   4.752 -0.5148 -0.2551 -0.2676
 7759SOL    HW130135   8.020   5.952   4.677  0.1288  1.8658  1.3743
 7759SOL    HW230136   7.903   5.871   4.729 -1.4592  2.7132 -0.7273
 7760SOL     OW30137   2.070   3.169   3.401 -0.1406  0.2126  0.2041
 7760SOL    HW130138   2.024   3.182   3.318  0.1707 -0.9787 -0.1793
 7760SOL    HW230139   2.003   3.178   3.468 -0.2218  2.1677 -0.0784
 7761SOL     OW30140  11.783   0.264  12.061  0.1733  0.2944  0.4914
 7761SOL    HW130141  11.733   0.235  11.985  1.8925  0.3651 -0.7091
 7761SOL    HW230142  11.791   0.359  12.050  0.3673  0.3161  0.8027
 7762SOL     OW30143   3.311   6.851   0.181 -0.1745 -0.1757  0.4725
 7762SOL    HW130144   3.326   6.761   0.155 -0.3716  0.3758 -1.7327
 7762SOL    HW230145   3.216   6.860   0.185 -0.1496 -0.2303  1.3761
 7763SOL     OW30146   7.581  12.024   2.897 -0.1096  0.2144  0.2778
 7763SOL    HW130147   7.619  11.938   2.877  0.5700  0.2664  1.2815
 7763SOL    HW230148   7.647  12.087   2.869 -0.7134  0.4397 -0.6898
 7764SOL     OW30149   4.604  12.415   3.540  0.5315 -0.0361  0.2353
 7764SOL    HW130150   4.585  12.420   3.446  0.7896 -1.0364  0.1137
 7764SOL    HW230151   4.612  12.506   3.568  0.6350  0.2700 -0.7532
 7765SOL     OW30152   2.953   3.735   2.472  0.5506  0.1218 -0.0322
 7765SOL    HW130153   2.940   3.652   2.519 -1.0901  0.2008 -0.2947
 7765SOL    HW230154   2.866   3.773   2.466  0.8934  0.7051 -2.1039
 7766SOL     OW30155   7.329   8.086   0.247  0.0667 -0.1043  0.5239
 7766SOL    HW130156   7.375   8.162   0.281 -0.2574  0.1388  0.4267
 7766SOL    HW230157   7.250   8.122   0.206 -1.6137 -0.7034  2.9959
 7767SOL     OW30158  12.137   6.560   1.942  0.0787 -0.3059  0.2494
 7767SOL    HW130159  12.210   6.519   1.897 -1.5491 -1.8193 -1.1680
 7767SOL    HW230160  12.154   6.654   1.935  1.0936 -0.5796 -1.4374
 7768SOL     OW30161   9.157   9.312   0.817  0.4780 -0.1502 -0.0273
 7768SOL    HW130162   9.128   9.305   0.726  1.0859 -0.2253 -0.2170
 7768SOL    HW230163   9.154   9.406   0.836  2.1338  0.0776 -0.7284
 7769SOL     OW30164   2.256  10.758   6.898  0.2513  0.0180  0.5851
 7769SOL    HW130165   2.212  10.684   6.941 -2.6411  1.6483  0.7023
 7769SOL    HW230166   2.221  10.757   6.809  1.7453  0.1032 -0.0286
 7770SOL     OW30167   2.769  10.558   6.372  0.0394  0.5863  0.5693
 7770SOL    HW130168   2.730  10.544   6.459 -1.7737  1.4970 -0.0397
 7770SOL    HW230169   2.856  10.594   6.391  0.5204 -1.1374  1.9924
 7771SOL     OW30170   8.001   2.151   6.531 -0.4594  0.4333  0.2337
 7771SOL    HW130171   8.077   2.205   6.508  0.1312 -0.1412  0.7721
 7771SOL    HW230172   7.984   2.099   6.453  0.7052 -0.5648  0.6182
 7772SOL     OW30173   5.728   4.077  11.487  0.5918  0.0843  0.2859
 7772SOL    HW130174   5.756   4.141  11.553 -1.4268  1.5208 -0.1216
 7772SOL    HW230175   5.720   4.129  11.407  0.6767 -1.1122 -0.5096
 7773SOL     OW30176  10.499   9.698   1.830  0.1202 -0.1673  0.0969
 7773SOL    HW130177  10.571   9.674   1.772  0.1637 -0.6272  0.3407
 7773SOL    HW230178  10.525   9.667   1.916 -0.5848 -0.8056  0.0977
 7774SOL     OW30179   3.655   7.157  11.371 -0.0520 -0.2747 -0.8196
 7774SOL    HW130180   3.594   7.086  11.352 -0.8001  0.2562 -0.4338
 7774SOL    HW230181   3.608   7.237  11.347 -0.6714  0.3830  2.1240
 7775SOL     OW30182   4.594   7.753  10.757 -0.1071 -0.9540  0.1385
 7775SOL    HW130183   4.601   7.756  10.852 -2.7560  1.4814  0.4036
 7775SOL    HW230184   4.667   7.699  10.729  0.1123 -2.7030  3.5988
 7776SOL     OW30185   3.784   6.539   4.353  0.0411  0.6626  0.5499
 7776SOL    HW130186   3.771   6.461   4.300 -1.1991  0.7063  0.7558
 7776SOL    HW230187   3.869   6.574   4.325 -0.1397  0.1418 -0.6856
 7777SOL     OW30188   1.018   7.992  11.123  0.1330  0.1644 -0.2386
 7777SOL    HW130189   1.042   7.901  11.105 -1.0115 -0.0989 -0.5041
 7777SOL    HW230190   1.089   8.026  11.177  0.2844 -1.0634  0.3521
 7778SOL     OW30191   0.200   4.382   2.754 -0.9619 -0.0537 -0.4706
 7778SOL    HW130192   0.151   4.365   2.835  0.6902  0.3388  0.6758
 7778SOL    HW230193   0.148   4.342   2.685 -2.9841  0.5550  0.6414
 7779SOL     OW30194   2.746   8.040   4.284 -0.2173  0.2471 -0.1851
 7779SOL    HW130195   2.760   7.988   4.364 -1.1860  1.0876  0.5590
 7779SOL    HW230196   2.733   8.129   4.316  0.7103  0.8387 -1.3949
 7780SOL     OW30197   5.375   2.647   5.664  0.2096  0.0647 -0.4485
 7780SOL    HW130198   5.336   2.650   5.752 -1.8121 -3.2091 -1.0741
 7780SOL    HW230199   5.350   2.730   5.624 -0.3337  0.8767  1.4707
 7781SOL     OW30200   0.457   6.707  10.177 -0.0280 -0.5527  0.4300
 7781SOL    HW130201   0.399   6.644  10.135 -1.7471  0.8408  0.6344
 7781SOL    HW230202   0.463   6.779  10.114 -0.9341  0.6248  1.6450
 7782SOL     OW30203   0.198   5.442   8.985  0.1087 -0.0032  0.1755
 7782SOL    HW130204   0.225   5.397   9.065  1.8228 -0.5912 -0.6861
 7782SOL    HW230205   0.210   5.535   9.004  0.1415 -0.1176  0.7216
 7783SOL     OW30206   3.194   0.951   5.669 -0.3427  0.0572  0.5260
 7783SOL    HW130207   3.231   0.999   5.594 -0.4914 -0.4141  0.1529
 7783SOL    HW230208   3.235   0.993   5.745 -0.6471  0.9425  0.2220
 7784SOL     OW30209   1.383  10.188   9.782 -0.2891 -0.8594  0.7249
 7784SOL    HW130210   1.375  10.279   9.812 -1.0994 -0.7734  0.2974
 7784SOL    HW230211   1.366  10.193   9.688  1.1229 -1.2659  0.4315
 7785SOL     OW30212   1.407   5.483   1.911 -0.1122 -1.0237  0.0533
 7785SOL    HW130213   1.472   5.449   1.849 -0.6305  0.1831 -1.2114
 7785SOL    HW230214   1.330   5.500   1.858 -0.5045  0.2700  0.9860
 7786SOL     OW30215   2.580   0.357  11.920  0.1485 -0.2886  0.3473
 7786SOL    HW130216   2.650   0.381  11.859  0.6814  1.3070  1.5436
 7786SOL    HW230217   2.516   0.427  11.911  0.7901  0.6343  2.4453
 7787SOL     OW30218   0.862   5.647   6.308 -0.1970 -0.5391  0.0183
 7787SOL    HW130219   0.947   5.604   6.296 -0.3673 -0.5574 -1.2780
 7787SOL    HW230220   0.838   5.678   6.220 -0.4740  1.4892  0.7662
 7788SOL     OW30221   9.453   3.443   5.352 -0.3861  0.9165  0.2762
 7788SOL    HW130222   9.547   3.423   5.346 -0.6609  0.0868 -2.8221
 7788SOL    HW230223   9.447   3.535   5.326 -0.4744  0.7052 -0.4905
 7789SOL     OW30224   5.039   2.537   7.156  0.2792  0.0562  0.4176
 7789SOL    HW130225   5.064   2.556   7.065 -0.7840 -0.9513 -0.1137
 7789SOL    HW230226   5.122   2.538   7.204  1.2794 -2.0900 -1.0702
 7790SOL     OW30227   7.960   4.168   9.059  0.6237  0.1638 -0.0852
 7790SOL    HW130228   8.038   4.223   9.066 -0.3347  1.4249  1.1830
 7790SOL    HW230229   7.945   4.135   9.148  1.0706 -2.0990 -0.7608
 7791SOL     OW30230   7.233   7.277   2.073  0.1616  0.4208  0.1232
 7791SOL    HW130231   7.178   7.356   2.080  1.7130  1.6999 -1.3282
 7791SOL    HW230232   7.182   7.217   2.020 -0.5562  0.9203  0.2317
 7792SOL     OW30233   5.871   5.992   0.165  0.4079 -0.5262 -0.2297
 7792SOL    HW130234   5.834   5.934   0.232  1.2330  0.3701  1.0488
 7792SOL    HW230235   5.794   6.031   0.123 -0.1426 -0.2033  1.0226
 7793SOL     OW30236   9.125  11.356   7.425  0.2118 -0.4196  0.3062
 7793SOL    HW130237   9.137  11.268   7.388  2.0416 -0.0550 -0.0549
 7793SOL    HW230238   9.214  11.389   7.438 -0.4194  2.0408 -1.1370
 7794SOL     OW30239  12.576   3.152   2.979  0.3218 -0.6011 -0.5377
 7794SOL    HW130240  12.559   3.144   2.885 -0.2479  3.7182 -1.0167
 7794SOL    HW230241  12.667   3.180   2.985  0.8129 -2.2669  0.3827
 7795SOL     OW30242   4.312   2.318   4.775  0.4439 -0.1721  0.2839
 7795SOL    HW130243   4.388   2.297   4.828  0.6937  3.2426  1.5329
 7795SOL    HW230244   4.237   2.304   4.834  0.4272  0.1024  0.3293
 7796SOL     OW30245   7.344   2.734   8.523 -0.3167 -0.5736 -0.5291
 7796SOL    HW130246   7.293   2.797   8.473  1.4104  0.9898 -0.4384
 7796SOL    HW230247   7.416   2.711   8.465  1.6028  1.1190  1.0257
 7797SOL     OW30248  11.843   9.024   4.196  0.1438 -0.1542  0.2910
 7797SOL    HW130249  11.904   8.951   4.193  0.3592  0.0049  0.7557
 7797SOL    HW230250  11.878   9.082   4.263 -0.9339 -0.4426  1.1348
 7798SOL     OW30251  11.762  11.882   8.962  0.0359  0.3973 -1.0586
 7798SOL    HW130252  11.786  11.922   8.879 -1.7673  1.7353 -1.0008
 7798SOL    HW230253  11.761  11.788   8.944  0.2288  0.6360 -2.3940
 7799SOL     OW30254   3.208   4.421   9.068  0.2198 -0.3190 -0.0558
 7799SOL    HW130255   3.197   4.514   9.088 -1.2313 -0.3849 -0.4559
 7799SOL    HW230256   3.245   4.419   8.980 -0.9245 -0.1246 -0.5502
 7800SOL     OW30257   9.130   1.259   5.899  0.5700  0.2095 -0.2765
 7800SOL    HW130258   9.200   1.319   5.873 -0.2819  0.9268 -0.9554
 7800SOL    HW230259   9.054   1.287   5.848  0.3523 -1.9838 -1.2572
 7801SOL     OW30260   9.757   2.511  11.918 -0.6765 -0.3553 -0.2622
 7801SOL    HW130261   9.783   2.504  11.826  0.3763 -0.2284  0.0176
 7801SOL    HW230262   9.767   2.604  11.939  0.3007 -0.5808  0.3202
 7802SOL     OW30263  12.245   8.108  10.286 -0.3193 -0.5028 -0.3514
 7802SOL    HW130264  12.335   8.077  10.275 -0.6117 -2.1424  1.4365
 7802SOL    HW230265  12.250   8.169  10.360 -0.6279 -0.2925 -0.5044
 7803SOL     OW30266   8.780   7.177   2.101  0.3169 -0.8924  0.4816
 7803SOL    HW130267   8.693   7.139   2.111  0.2944 -0.4070  2.7761
 7803SOL    HW230268   8.771   7.267   2.130  1.8992 -1.3243  2.5917
 7804SOL     OW30269  10.907   2.502   3.978  0.0800 -0.5211 -0.4087
 7804SOL    HW130270  10.942   2.579   3.932  0.7680 -0.7530 -0.2755
 7804SOL    HW230271  10.933   2.428   3.923 -0.4242 -0.6754 -0.4396
 7805SOL     OW30272   9.402  11.292  11.956  0.1023  0.2638  0.0219
 7805SOL    HW130273   9.318  11.335  11.940 -1.5690 -1.4880  3.2152
 7805SOL    HW230274   9.386  11.200  11.936  1.7379  0.0894 -0.6392
 7806SOL     OW30275   3.724   2.169   5.421 -0.1741 -0.3718  0.5116
 7806SOL    HW130276   3.767   2.229   5.481  1.8886 -2.8864  1.7700
 7806SOL    HW230277   3.707   2.220   5.343  1.4972  1.8023  1.4822
 7807SOL     OW30278   4.370   6.986   0.399 -0.6513 -0.2585 -0.9628
 7807SOL    HW130279   4.376   6.890   0.405 -0.6308 -0.1920  0.5628
 7807SOL    HW230280   4.289   7.002   0.351 -1.9967 -1.0518  0.9300
 7808SOL     OW30281   5.734   5.106   4.599 -0.3603 -0.7428 -0.3457
 7808SOL    HW130282   5.695   5.168   4.539 -0.7105  0.2335  0.8515
 7808SOL    HW230283   5.828   5.110   4.581 -0.3517  0.3368 -0.1078
 7809SOL     OW30284   4.134   4.206  11.224 -0.8869  0.3813  0.0195
 7809SOL    HW130285   4.182   4.137  11.178 -1.2374  0.8230 -1.0516
 7809SOL    HW230286   4.045   4.171  11.234 -0.7207  0.1419  0.7016
 7810SOL     OW30287   0.443   8.393   5.730 -0.2633  0.3312 -0.2437
 7810SOL    HW130288   0.536   8.401   5.713 -0.3469  2.1662 -0.0367
 7810SOL    HW230289   0.405   8.367   5.646  0.4747 -1.1467 -0.1558
 7811SOL     OW30290   1.330   1.247   2.103 -0.0700  0.2595  0.4452
 7811SOL    HW130291   1.398   1.197   2.058 -1.7984 -0.7235 -1.2221
 7811SOL    HW230292   1.254   1.188   2.105 -0.8974  1.3077  2.2492
 7812SOL     OW30293   8.732   7.940   2.007  0.2040 -0.3391 -0.1993
 7812SOL    HW130294   8.671   7.900   2.070 -0.1494  2.0749  1.1426
 7812SOL    HW230295   8.783   7.867   1.974 -0.5918 -1.9354  1.8156
 7813SOL     OW30296   7.550   7.177  11.764 -0.1931 -0.4533 -0.6869
 7813SOL    HW130297   7.638   7.188  11.726  0.6703  0.7832  1.4891
 7813SOL    HW230298   7.497   7.244  11.722  1.0335  1.6862  0.9327
 7814SOL     OW30299   1.606   5.906   3.893 -0.2389 -0.5810 -0.0780
 7814SOL    HW130300   1.550   5.960   3.837 -0.1047 -0.8944 -0.5227
 7814SOL    HW230301   1.561   5.903   3.977  0.8883  2.2135  0.7545
 7815SOL     OW30302   1.188   6.265   8.610  0.3538 -0.8072 -0.2218
 7815SOL    HW130303   1.126   6.205   8.568 -2.0420  1.0822  0.4560
 7815SOL    HW230304   1.224   6.317   8.538  0.4423 -1.2624 -0.5107
 7816SOL     OW30305   2.303  11.407   9.258 -0.5975  0.7055 -0.0870
 7816SOL    HW130306   2.301  11.368   9.346  0.4252  2.4608  0.7625
 7816SOL    HW230307   2.390  11.446   9.252 -0.5482  0.3866 -2.0195
 7817SOL     OW30308   5.797   0.809   2.990  0.6663  0.1238 -0.2628
 7817SOL    HW130309   5.705   0.785   2.982  0.4157  0.8395  0.4814
 7817SOL    HW230310   5.822   0.838   2.902  0.1053  0.2204 -0.3903
 7818SOL     OW30311  10.046   3.301  11.607  0.2122 -0.1319 -0.2265
 7818SOL    HW130312  10.007   3.387  11.598 -1.2361 -0.7746 -0.3488
 7818SOL    HW230313  10.073   3.297  11.699 -1.4446 -0.2198  0.2898
 7819SOL     OW30314   8.866   4.596   0.293 -0.3344 -0.4276  0.3862
 7819SOL    HW130315   8.817   4.532   0.241  0.4766 -0.8704  0.1468
 7819SOL    HW230316   8.877   4.671   0.235 -0.4863 -0.4426  0.3386
 7820SOL     OW30317   7.978   9.185  10.914 -0.3187  0.0981 -0.0803
 7820SOL    HW130318   8.023   9.249  10.860 -3.4921  2.7631  0.1211
 7820SOL    HW230319   7.959   9.231  10.996 -1.2561 -1.6783  0.7710
 7821SOL     OW30320   4.364  11.324   9.149  0.5721 -0.0809 -0.2364
 7821SOL    HW130321   4.330  11.247   9.104 -0.3702  0.4455 -0.4569
 7821SOL    HW230322   4.333  11.314   9.239 -1.5808  1.1627 -0.7755
 7822SOL     OW30323  11.431  10.526  10.813 -0.1197 -0.5938 -0.2573
 7822SOL    HW130324  11.462  10.475  10.738 -0.5057  0.4439 -1.1481
 7822SOL    HW230325  11.412  10.613  10.777  0.2046  0.0924  1.1535
 7823SOL     OW30326  10.074   2.167   8.313 -0.0108  0.1796  0.5097
 7823SOL    HW130327  10.022   2.180   8.392  1.8116  2.2532  1.4755
 7823SOL    HW230328  10.044   2.236   8.253  1.6791  1.5851  1.1834
 7824SOL     OW30329   6.144  12.395   4.189 -0.0305  0.4814 -0.0531
 7824SOL    HW130330   6.159  12.301   4.173  0.1412  0.6259 -0.7680
 7824SOL    HW230331   6.080  12.397   4.260  0.0360 -0.1774  0.0359
 7825SOL     OW30332   0.881   1.171   6.396 -0.2380 -0.4299 -0.3127
 7825SOL    HW130333   0.902   1.217   6.315  0.0120  1.6157  0.8338
 7825SOL    HW230334   0.930   1.089   6.391 -0.2797 -0.3719 -2.2271
 7826SOL     OW30335   6.486   7.042   3.970 -0.0574  0.4881 -0.3935
 7826SOL    HW130336   6.525   7.011   4.053 -1.0569 -0.0661 -0.1115
 7826SOL    HW230337   6.417   7.102   3.997 -0.5125  0.1600 -0.8175
 7827SOL     OW30338   9.989   7.726   2.316  0.2843  0.3921 -0.0002
 7827SOL    HW130339   9.960   7.660   2.254 -0.4370  0.5603  0.1387
 7827SOL    HW230340  10.000   7.678   2.399 -0.1121  0.4113  0.0692
 7828SOL     OW30341   8.811   7.457   6.042  0.0351  0.6552 -0.0672
 7828SOL    HW130342   8.856   7.373   6.041 -0.2570  0.4923  0.6480
 7828SOL    HW230343   8.723   7.438   6.073  0.2396  1.3492  0.9943
 7829SOL     OW30344   9.961   9.063   9.197  0.8602  0.3401  0.0872
 7829SOL    HW130345   9.963   9.158   9.207  4.1681  0.4480 -0.4309
 7829SOL    HW230346   9.967   9.049   9.102  0.1315 -0.4229  0.1414
 7830SOL     OW30347   6.463   2.312  11.916 -0.0555 -0.0688 -0.0643
 7830SOL    HW130348   6.431   2.374  11.982  0.1892 -1.0255  0.9858
 7830SOL    HW230349   6.383   2.275  11.877 -0.5361 -3.3716  3.3997
 7831SOL     OW30350   6.980   1.087   7.408  0.3183 -0.2330  0.4251
 7831SOL    HW130351   6.930   1.152   7.358  0.0764 -0.9700 -0.3069
 7831SOL    HW230352   6.917   1.017   7.424  1.4524 -1.8820 -1.8101
 7832SOL     OW30353   1.955   2.356   5.877  0.3400  0.2509 -0.3285
 7832SOL    HW130354   1.958   2.390   5.787 -0.2810  2.5946  0.4653
 7832SOL    HW230355   1.886   2.406   5.919  1.4394  0.0986  1.8021
 7833SOL     OW30356   9.323  11.495   8.136 -0.5694  0.5381  0.7884
 7833SOL    HW130357   9.337  11.586   8.161 -1.1875  1.0406 -0.6375
 7833SOL    HW230358   9.264  11.461   8.203  0.4511  0.8689  1.8972
 7834SOL     OW30359   9.143   5.802  10.129  0.0827  0.2529  0.5321
 7834SOL    HW130360   9.058   5.846  10.127 -0.4790 -0.7762  1.0069
 7834SOL    HW230361   9.160   5.788  10.222 -1.2042 -3.1875  0.3900
 7835SOL     OW30362   2.523   6.196   2.480  0.3009 -0.7482  0.0765
 7835SOL    HW130363   2.467   6.132   2.525  0.5575 -1.2876 -0.3538
 7835SOL    HW230364   2.611   6.158   2.486  0.3306 -0.8574 -0.9324
 7836SOL     OW30365   4.899   8.900   5.444 -0.1820  0.0072 -0.3303
 7836SOL    HW130366   4.822   8.934   5.490 -0.9165 -1.7691 -0.1684
 7836SOL    HW230367   4.896   8.942   5.358 -1.3886 -0.1085 -0.3614
 7837SOL     OW30368   5.099   9.753   9.142  0.3173 -0.6051  0.5628
 7837SOL    HW130369   5.159   9.685   9.112 -0.3901 -1.9260  1.9740
 7837SOL    HW230370   5.132   9.834   9.104  2.8656 -1.2994  1.1435
 7838SOL     OW30371   9.322   3.663  12.409  0.3927 -0.1684  0.2981
 7838SOL    HW130372   9.324   3.674  12.504 -0.3074 -0.9592  0.4197
 7838SOL    HW230373   9.228   3.654  12.389  0.3085  2.5072 -0.7830
 7839SOL     OW30374   3.589   7.524   4.265 -0.3469  0.1333 -0.1405
 7839SOL    HW130375   3.604   7.432   4.245 -1.4227  0.3595 -2.3068
 7839SOL    HW230376   3.543   7.523   4.349  0.7459 -1.1972  0.4810
 7840SOL     OW30377   0.017   3.873   3.203  0.3423  0.0812  0.0082
 7840SOL    HW130378  -0.016   3.785   3.188  1.5907 -0.2426 -0.9987
 7840SOL    HW230379   0.109   3.860   3.227  0.5894  1.1111 -0.3211
 7841SOL     OW30380   4.835   2.183  10.635 -0.4160 -0.3035 -0.2041
 7841SOL    HW130381   4.870   2.125  10.701 -0.3192 -1.1958 -1.0170
 7841SOL    HW230382   4.871   2.269  10.657  2.0936 -1.1193 -0.8250
 7842SOL     OW30383  11.035   5.670   9.937  0.0337  0.7882 -0.2448
 7842SOL    HW130384  10.993   5.640   9.857  1.2001  1.9676 -1.3673
 7842SOL    HW230385  11.010   5.607  10.003  2.2933 -2.7145 -2.3782
 7843SOL     OW30386   3.064  11.959   6.790 -0.5886 -0.1403  0.9062
 7843SOL    HW130387   3.112  12.042   6.788 -0.1436 -0.3979  0.8652
 7843SOL    HW230388   3.029  11.954   6.879 -0.7714  0.1749  0.8562
 7844SOL     OW30389  10.560   1.183  10.949  0.1839 -0.1305  0.2854
 7844SOL    HW130390  10.565   1.257  11.009  0.7011 -0.2965  0.4569
 7844SOL    HW230391  10.545   1.222  10.863 -0.4610  0.1138  0.5066
 7845SOL     OW30392  11.313   1.894   3.005 -0.4034  0.2306  0.2829
 7845SOL    HW130393  11.287   1.985   3.014  1.1004  1.0977 -2.7706
 7845SOL    HW230394  11.406   1.893   3.028 -0.1907 -0.3292 -0.5482
 7846SOL     OW30395  10.334   2.604   2.198  0.2116 -0.0341 -0.2398
 7846SOL    HW130396  10.280   2.526   2.194 -0.4038  0.4073 -0.9776
 7846SOL    HW230397  10.275   2.673   2.230 -0.0236  0.7110 -2.1312
 7847SOL     OW30398  11.418   8.246   7.723 -0.3510 -0.1762  0.0454
 7847SOL    HW130399  11.507   8.283   7.724 -1.0649  1.9120 -2.2357
 7847SOL    HW230400  11.414   8.194   7.643 -0.3230 -2.9550  1.7087
 7848SOL     OW30401   4.755   0.338   7.450 -0.4279  0.0557 -0.0762
 7848SOL    HW130402   4.844   0.331   7.416 -0.6035  1.6128 -0.9197
 7848SOL    HW230403   4.766   0.374   7.539 -0.1631 -0.9071  0.2919
 7849SOL     OW30404   4.521   4.008   5.292 -0.0597 -0.2953  0.2132
 7849SOL    HW130405   4.491   4.000   5.383 -1.8084 -0.0466 -0.3091
 7849SOL    HW230406   4.545   3.918   5.268  0.7052 -0.3166  0.9952
 7850SOL     OW30407   3.321   0.595  11.640 -0.0876 -0.8505  0.5786
 7850SOL    HW130408   3.369   0.519  11.671  0.1120 -0.4539  1.2810
 7850SOL    HW230409   3.388   0.663  11.628 -0.5055 -0.1354  2.0604
 7851SOL     OW30410  10.186   0.994   8.326 -0.5055  0.3733 -0.3439
 7851SOL    HW130411  10.123   0.927   8.298 -1.3237  1.9950 -2.6810
 7851SOL    HW230412  10.270   0.948   8.330 -1.3960 -1.2648  0.3466
 7852SOL     OW30413   2.849   4.338  10.718 -0.1807  0.5116 -0.1939
 7852SOL    HW130414   2.885   4.397  10.652 -0.2834 -0.9486 -1.6367
 7852SOL    HW230415   2.755   4.348  10.712 -0.1592  1.7431  1.0907
 7853SOL     OW30416  12.006   0.518   6.401  0.1150  0.2904  0.2218
 7853SOL    HW130417  11.920   0.503   6.361 -0.4804 -0.9449  1.8366
 7853SOL    HW230418  11.988   0.575   6.476  0.0881 -2.4268  2.4569
 7854SOL     OW30419   8.054   6.072   4.094 -0.1670 -0.0914  0.4283
 7854SOL    HW130420   8.131   6.081   4.149  0.2048 -1.1358  0.1090
 7854SOL    HW230421   8.025   6.162   4.077  1.1124  0.3263  0.3661
 7855SOL     OW30422   1.556   9.555   2.364 -0.5605  0.8152 -0.1501
 7855SOL    HW130423   1.497   9.481   2.375 -0.6386  0.8092 -0.6094
 7855SOL    HW230424   1.625   9.523   2.305 -0.0131  0.7735  0.4925
 7856SOL     OW30425   3.452   3.040   3.949 -0.4349 -0.5643 -0.2269
 7856SOL    HW130426   3.495   3.001   4.025  0.0353 -0.8036 -0.6118
 7856SOL    HW230427   3.521   3.045   3.882 -1.1858 -1.7795 -1.1539
 7857SOL     OW30428   8.115   8.597   1.125 -0.0805  0.3760 -0.1908
 7857SOL    HW130429   8.094   8.641   1.207 -2.2910  1.2128 -1.1504
 7857SOL    HW230430   8.067   8.645   1.058  0.4177 -1.2361 -1.7884
 7858SOL     OW30431   3.974   0.241   9.278  1.0857  0.1262  0.0122
 7858SOL    HW130432   3.880   0.254   9.289  1.3645  1.2502  1.4369
 7858SOL    HW230433   3.997   0.298   9.204  1.1854  2.9009  2.0072
 7859SOL     OW30434   2.210   4.319   2.160 -0.0162  0.4249 -0.4947
 7859SOL    HW130435   2.182   4.274   2.240 -2.2238  2.6516  0.1216
 7859SOL    HW230436   2.260   4.395   2.191  1.1409  0.0476 -1.3688
 7860SOL     OW30437  10.987  11.956   0.310  0.2845  0.3327  0.3414
 7860SOL    HW130438  10.986  11.949   0.215 -0.8953 -0.0585  0.3729
 7860SOL    HW230439  11.000  11.866   0.341  0.5256  0.4394  0.5612
 7861SOL     OW30440  10.403   7.322  11.829 -0.2333  0.1226  0.2133
 7861SOL    HW130441  10.375   7.412  11.814  0.6120  0.1665 -1.3097
 7861SOL    HW230442  10.463   7.328  11.904  1.5832  1.2360 -1.2330
 7862SOL     OW30443   9.220   2.768   0.652 -0.0657  0.3281 -0.2024
 7862SOL    HW130444   9.128   2.743   0.658 -0.0618  0.6173  1.5802
 7862SOL    HW230445   9.219   2.864   0.653  0.1874  0.4036 -2.2007
 7863SOL     OW30446   3.476   0.104   5.338 -0.3653 -0.6274  0.5458
 7863SOL    HW130447   3.402   0.163   5.354 -0.0954 -0.3486  0.7823
 7863SOL    HW230448   3.476   0.046   5.414  0.2391 -0.0119  1.0338
 7864SOL     OW30449   1.218   9.314   7.445 -0.0656 -0.0554  0.1913
 7864SOL    HW130450   1.194   9.403   7.471  0.7132  0.1742  0.1432
 7864SOL    HW230451   1.148   9.259   7.480 -0.9381  0.6487 -0.4082
 7865SOL     OW30452   4.323   2.971   3.075  0.5803  0.6311  0.1912
 7865SOL    HW130453   4.339   2.964   2.981  1.3180  1.5516  0.2427
 7865SOL    HW230454   4.232   3.001   3.082 -0.1656 -1.3718 -0.1617
 7866SOL     OW30455   4.355   7.378   3.086 -0.1146 -0.1423 -0.3018
 7866SOL    HW130456   4.432   7.332   3.121 -1.2057 -1.5157  0.4116
 7866SOL    HW230457   4.337   7.447   3.150 -0.1153 -0.5048  0.0925
 7867SOL     OW30458   4.658   9.810   0.012  0.4998  0.1281 -0.2952
 7867SOL    HW130459   4.663   9.891   0.064  1.2754  0.7215 -1.2728
 7867SOL    HW230460   4.598   9.754   0.062  2.8456 -0.1925  2.4169
 7868SOL     OW30461   1.941   8.091   8.315 -0.0381 -0.0978  0.4301
 7868SOL    HW130462   1.947   8.175   8.360  2.0142  0.4881 -0.8070
 7868SOL    HW230463   1.916   8.114   8.225  1.1299 -0.7434 -0.0708
 7869SOL     OW30464   1.120   0.019  11.799  0.1073 -0.4554  0.0832
 7869SOL    HW130465   1.181  -0.009  11.867 -0.2538 -1.5906 -0.0361
 7869SOL    HW230466   1.172   0.020  11.719  0.5700  1.0299  0.3817
 7870SOL     OW30467   6.042   7.115  10.883 -0.4732  0.3211  0.1193
 7870SOL    HW130468   6.073   7.025  10.893  0.2361  0.0515 -3.4007
 7870SOL    HW230469   6.115   7.162  10.843 -1.4281  2.0620  0.3043
 7871SOL     OW30470   6.380  12.200  12.120 -0.2193 -0.5562 -0.1122
 7871SOL    HW130471   6.310  12.261  12.143 -0.9815 -1.0132 -1.1554
 7871SOL    HW230472   6.446  12.213  12.189 -0.0512  1.8833 -0.6184
 7872SOL     OW30473   9.680   8.184   3.755 -0.6766  0.2576  0.0489
 7872SOL    HW130474   9.664   8.089   3.759  2.8319 -0.4426  2.7821
 7872SOL    HW230475   9.737   8.195   3.679  0.9080 -0.3325  1.0902
 7873SOL     OW30476  11.417   6.191   5.844  0.1618  0.3751  0.3194
 7873SOL    HW130477  11.425   6.096   5.852  0.7013  0.4022  0.1154
 7873SOL    HW230478  11.363   6.203   5.766  2.3068  0.2616 -1.2714
 7874SOL     OW30479   1.717   9.258   3.220  0.1677  0.2669  0.0461
 7874SOL    HW130480   1.812   9.270   3.217  0.4972 -1.9777 -1.0268
 7874SOL    HW230481   1.702   9.179   3.168 -2.1970  0.0150  1.0043
 7875SOL     OW30482   7.393  12.340   9.548 -0.2734  0.0088  0.4273
 7875SOL    HW130483   7.363  12.430   9.561 -1.0766  0.0406 -1.3483
 7875SOL    HW230484   7.454  12.324   9.619 -0.6365  1.7279  1.1611
 7876SOL     OW30485   5.524   1.593   9.738  0.1876 -0.3913 -0.8427
 7876SOL    HW130486   5.447   1.649   9.737  0.4882  0.0966  0.6513
 7876SOL    HW230487   5.491   1.507   9.763  0.2376  0.1121  1.1860
 7877SOL     OW30488  10.229   8.620  10.854 -0.0739 -1.1061 -0.2017
 7877SOL    HW130489  10.199   8.581  10.772  1.7203 -1.1053 -0.8940
 7877SOL    HW230490  10.282   8.695  10.827 -1.1838  0.1956  1.0410
 7878SOL     OW30491   0.370   8.226   6.588 -1.0006  0.0758 -0.9223
 7878SOL    HW130492   0.401   8.167   6.519 -1.9371 -1.2280 -0.2842
 7878SOL    HW230493   0.339   8.167   6.657 -1.9301  1.3259 -0.2364
 7879SOL     OW30494   4.498   1.618   0.356  0.2347  0.7114  0.3485
 7879SOL    HW130495   4.493   1.635   0.262 -0.8963 -1.9452 -0.1700
 7879SOL    HW230496   4.409   1.592   0.380  1.1092 -1.5686  1.4522
 7880SOL     OW30497  10.406   3.092   6.328  0.7147 -0.0533 -0.0501
 7880SOL    HW130498  10.421   3.021   6.265  0.0544 -1.3532  1.1925
 7880SOL    HW230499  10.455   3.166   6.293  0.3267 -0.7211 -2.0983
 7881SOL     OW30500  11.269   3.616  12.221 -0.5203  0.0358 -0.0358
 7881SOL    HW130501  11.247   3.697  12.174 -0.4895 -0.6138 -1.2025
 7881SOL    HW230502  11.265   3.548  12.155 -0.8660 -0.9867  0.9936
 7882SOL     OW30503   2.468  11.158   4.238 -0.0715 -0.2535 -0.0215
 7882SOL    HW130504   2.546  11.134   4.288  0.0690 -1.3998 -0.7698
 7882SOL    HW230505   2.419  11.077   4.228 -1.4695  0.4817  0.5790
 7883SOL     OW30506   9.516   5.670   6.226 -0.0327 -0.5767  0.9072
 7883SOL    HW130507   9.556   5.742   6.275  0.9090  0.2984 -1.0454
 7883SOL    HW230508   9.473   5.712   6.152 -0.5587 -1.9311  0.4098
 7884SOL     OW30509   5.826   9.993   9.348 -0.7402 -0.1290  0.2425
 7884SOL    HW130510   5.803  10.085   9.336  0.9687  0.1534 -1.3769
 7884SOL    HW230511   5.836   9.983   9.442 -1.1403  1.2972  0.4671
 7885SOL     OW30512   7.349  11.965   2.672  0.1293  0.5443  0.5470
 7885SOL    HW130513   7.285  11.900   2.645  2.0673 -0.8734 -0.9275
 7885SOL    HW230514   7.349  11.960   2.768  1.1027 -2.6496  0.4974
 7886SOL     OW30515  10.240   8.676   1.729  0.0712  0.6073  0.0964
 7886SOL    HW130516  10.150   8.709   1.721  0.1957  0.6403 -1.4400
 7886SOL    HW230517  10.250   8.617   1.655  0.8183 -0.6321  1.1511
 7887SOL     OW30518   2.110  11.013   3.597 -0.1651 -0.2224  0.0216
 7887SOL    HW130519   2.123  10.930   3.551  0.1295 -0.2930  0.2294
 7887SOL    HW230520   2.197  11.036   3.630 -0.5537 -0.7583  1.5322
 7888SOL     OW30521   4.511   1.165   6.797  0.0390  0.5738  0.3463
 7888SOL    HW130522   4.480   1.096   6.739  0.2092  0.4718  0.3800
 7888SOL    HW230523   4.482   1.246   6.755  0.6117  0.5245 -0.1432
 7889SOL     OW30524   5.228  11.091   2.016 -0.3641 -0.2911  0.4275
 7889SOL    HW130525   5.196  11.180   1.999 -0.1128 -0.3478 -0.3738
 7889SOL    HW230526   5.171  11.035   1.963 -0.8117 -0.6561  1.2823
 7890SOL     OW30527   0.301  10.665   4.589 -0.2365  0.1252  0.7232
 7890SOL    HW130528   0.352  10.720   4.649  0.6842  0.0659  0.0233
 7890SOL    HW230529   0.223  10.717   4.569  0.7616  1.3419 -0.1768
 7891SOL     OW30530   9.369   2.630  11.961  0.7119 -0.7448  0.2833
 7891SOL    HW130531   9.284   2.659  11.927  0.6922  0.9426  1.6551
 7891SOL    HW230532   9.400   2.567  11.896 -1.6630 -1.5800 -0.1734
 7892SOL     OW30533   7.150   8.499   3.276  0.7077 -0.1512 -0.4915
 7892SOL    HW130534   7.207   8.565   3.236  1.2341 -0.5580 -0.4193
 7892SOL    HW230535   7.088   8.550   3.328  0.6405  0.3286 -1.0288
 7893SOL     OW30536   6.721  11.611   4.688 -0.5757 -0.1134  0.7863
 7893SOL    HW130537   6.627  11.608   4.709 -0.7905 -1.1818 -0.2173
 7893SOL    HW230538   6.762  11.555   4.753 -0.8772 -1.0879  0.1625
 7894SOL     OW30539  12.262   6.497   1.573 -0.1614 -0.0265 -0.4976
 7894SOL    HW130540  12.318   6.549   1.631 -3.4995  3.8397 -0.3598
 7894SOL    HW230541  12.208   6.444   1.633  0.0705 -0.1598 -0.4041
 7895SOL     OW30542  10.526   1.796   9.121 -0.1070  0.5765 -0.0054
 7895SOL    HW130543  10.494   1.712   9.154  1.2251 -0.2675 -0.7743
 7895SOL    HW230544  10.610   1.775   9.080 -0.9314  1.8257 -2.5544
 7896SOL     OW30545   9.144   3.504   2.686 -0.0174  0.6796  0.0547
 7896SOL    HW130546   9.184   3.587   2.661 -0.6944  1.2179  0.7254
 7896SOL    HW230547   9.159   3.498   2.781  1.2655 -0.6438 -0.1818
 7897SOL     OW30548  11.520   4.434   6.397  0.4545  0.1306  0.3121
 7897SOL    HW130549  11.571   4.507   6.363 -1.1859  1.5877  0.8013
 7897SOL    HW230550  11.442   4.431   6.341 -0.8938  0.7055  2.0564
 7898SOL     OW30551   3.673   3.246   5.724  0.0062  0.0231  0.4459
 7898SOL    HW130552   3.634   3.332   5.708 -1.6920 -0.9095 -0.6561
 7898SOL    HW230553   3.606   3.199   5.775  0.4226 -1.0325  0.0352
 7899SOL     OW30554   5.693   6.805   9.549  0.4301 -0.4886 -0.7894
 7899SOL    HW130555   5.668   6.830   9.460  2.1101  3.6884 -0.3074
 7899SOL    HW230556   5.774   6.755   9.538 -0.5420 -1.9368 -1.6403
 7900SOL     OW30557  10.038   6.081   2.115 -0.3548  0.2059 -0.2005
 7900SOL    HW130558  10.060   6.174   2.120 -0.6922  0.2379  0.9948
 7900SOL    HW230559   9.945   6.077   2.136 -0.4737 -0.3519 -0.8165
 7901SOL     OW30560   6.544   5.831  12.455  0.6244 -0.1221 -0.4546
 7901SOL    HW130561   6.633   5.798  12.446 -0.2566 -2.3907 -1.8179
 7901SOL    HW230562   6.533   5.891  12.381  1.1346  0.4887 -0.0417
 7902SOL     OW30563   9.665   2.303   9.678 -0.0280 -0.1311 -0.7363
 7902SOL    HW130564   9.718   2.308   9.758  1.0727 -1.9137 -1.2899
 7902SOL    HW230565   9.575   2.295   9.709  0.3724 -0.7241  0.3500
 7903SOL     OW30566   7.576   5.334   4.656  0.1329 -0.0440  0.0225
 7903SOL    HW130567   7.646   5.298   4.710  0.5666  1.0856  0.2561
 7903SOL    HW230568   7.564   5.423   4.689 -0.0500  0.4533 -1.3010
 7904SOL     OW30569   1.063   9.050   6.219  0.2111  0.6141 -0.0987
 7904SOL    HW130570   1.119   9.089   6.152  1.5245 -1.7721 -0.4948
 7904SOL    HW230571   1.123   9.022   6.288 -0.4927 -1.3352 -0.1989
 7905SOL     OW30572   9.680  12.064   9.998 -0.4705  0.6730 -0.2758
 7905SOL    HW130573   9.599  12.113  10.010 -0.6647  0.9680 -2.4921
 7905SOL    HW230574   9.733  12.119   9.940 -0.2234 -1.2125 -1.9121
 7906SOL     OW30575  10.082   8.548  12.022  0.0587  1.0126  0.1804
 7906SOL    HW130576  10.137   8.517  11.950  1.0583 -1.4113  1.8528
 7906SOL    HW230577   9.998   8.503  12.009  0.3935  0.2004  0.7386
 7907SOL     OW30578   3.608   4.058   2.616 -0.1585 -0.1571 -0.2897
 7907SOL    HW130579   3.590   4.128   2.553 -0.1278  0.2975  0.1988
 7907SOL    HW230580   3.533   4.058   2.675  0.1351 -0.1113  0.0911
 7908SOL     OW30581  11.831   4.357   7.099 -0.0980 -0.1696 -0.2741
 7908SOL    HW130582  11.849   4.285   7.039 -0.0614  0.5740 -1.1610
 7908SOL    HW230583  11.915   4.402   7.109 -0.2545  0.1023 -0.1756
 7909SOL     OW30584  12.218   8.001   4.341 -0.3291  0.0674 -0.2871
 7909SOL    HW130585  12.309   8.013   4.365 -0.4764  0.4715  0.0788
 7909SOL    HW230586  12.206   8.056   4.263 -1.0220  2.5552  1.4252
 7910SOL     OW30587  11.405   1.755   2.747  0.5360 -0.0621 -0.3119
 7910SOL    HW130588  11.375   1.667   2.766  1.2168 -0.2404 -0.0500
 7910SOL    HW230589  11.371   1.809   2.819 -1.0268  0.1491 -1.1701
 7911SOL     OW30590  11.316   5.454   9.878 -0.0363  0.2482  0.0779
 7911SOL    HW130591  11.372   5.493   9.810 -0.5706 -0.4782 -0.7922
 7911SOL    HW230592  11.369   5.384   9.916  0.5306  1.1007  0.9288
 7912SOL     OW30593   2.779   0.961  10.889  0.2391  0.3450 -0.2194
 7912SOL    HW130594   2.697   0.913  10.881  1.0865 -1.4414  1.0197
 7912SOL    HW230595   2.778   0.996  10.978  0.9279  0.0330 -0.0793
 7913SOL     OW30596   4.107   0.593   4.104 -0.4878  0.9282  0.2921
 7913SOL    HW130597   4.095   0.674   4.155  1.0967 -0.0243  2.3542
 7913SOL    HW230598   4.046   0.531   4.144 -0.5555  0.6587 -0.2214
 7914SOL     OW30599   9.386   0.167   7.754 -0.0737  0.4864 -0.3472
 7914SOL    HW130600   9.357   0.122   7.674  0.1111 -0.0239 -0.1288
 7914SOL    HW230601   9.383   0.260   7.731 -1.3316  0.4291 -0.5187
 7915SOL     OW30602   1.889   3.603   6.518 -0.1852  0.1079  0.0438
 7915SOL    HW130603   1.849   3.584   6.433  0.1704  0.9857 -0.3272
 7915SOL    HW230604   1.896   3.517   6.561  1.4718 -0.6458 -1.6098
 7916SOL     OW30605   1.814   8.448   7.742 -0.1987  0.5806  0.4020
 7916SOL    HW130606   1.796   8.380   7.678 -2.2780  0.8335  0.6440
 7916SOL    HW230607   1.891   8.494   7.707  0.9460 -1.5164 -0.0097
 7917SOL     OW30608   9.020   1.200   9.517 -0.2060  0.3210  0.0198
 7917SOL    HW130609   9.088   1.222   9.454 -0.3183 -0.7814 -0.5147
 7917SOL    HW230610   9.063   1.205   9.602  1.2103 -2.4680 -0.4196
 7918SOL     OW30611   0.133   3.167   1.785 -0.0960 -0.6293  0.5246
 7918SOL    HW130612   0.163   3.127   1.867 -2.0564  1.6263  2.4889
 7918SOL    HW230613   0.157   3.259   1.793  1.2729 -0.6512 -2.3316
 7919SOL     OW30614   6.481   4.809  11.633  0.5807  0.3332  0.4221
 7919SOL    HW130615   6.559   4.779  11.679  1.4007 -0.8786 -1.6059
 7919SOL    HW230616   6.509   4.890  11.589 -0.0479  1.2176  1.6173
 7920SOL     OW30617  11.396  12.331  10.966  0.9215 -0.4317  0.3730
 7920SOL    HW130618  11.382  12.239  10.944  1.0754  0.0211 -1.8504
 7920SOL    HW230619  11.322  12.376  10.925  1.0779  0.4896  1.0845
 7921SOL     OW30620   0.482   8.464   9.094  0.2321 -0.0904 -0.6972
 7921SOL    HW130621   0.435   8.493   9.171 -0.6712  0.2879 -1.3721
 7921SOL    HW230622   0.574   8.467   9.119 -0.0108  0.7170  0.1334
 7922SOL     OW30623  10.804   2.914  10.465 -0.2264 -0.3464 -0.0112
 7922SOL    HW130624  10.861   2.991  10.456 -1.5412  0.4637 -2.2600
 7922SOL    HW230625  10.757   2.928  10.547 -0.4711  1.2862 -0.3952
 7923SOL     OW30626   8.756   7.175   4.108  0.3145 -0.0555 -0.7207
 7923SOL    HW130627   8.801   7.257   4.131  1.2570 -0.0740 -2.3520
 7923SOL    HW230628   8.663   7.194   4.123  0.4199  1.6464 -1.9017
 7924SOL     OW30629   1.819   5.817   1.887 -0.4371  0.4225  0.0423
 7924SOL    HW130630   1.824   5.898   1.836 -0.5842 -0.8575 -2.1174
 7924SOL    HW230631   1.725   5.805   1.904 -0.3749  0.9312  0.8056
 7925SOL     OW30632  10.870   1.117   0.945 -0.3209  0.5306 -0.1739
 7925SOL    HW130633  10.870   1.171   1.024  1.0972 -0.5562  0.6186
 7925SOL    HW230634  10.949   1.063   0.953 -2.3292 -2.7071 -0.1830
 7926SOL     OW30635   2.679   2.602  10.026  0.4677  0.0635 -0.1271
 7926SOL    HW130636   2.586   2.598  10.004  0.1934 -0.0982  1.0014
 7926SOL    HW230637   2.708   2.687   9.994 -0.3881  0.6718  0.6390
 7927SOL     OW30638   0.105   1.625   4.171 -0.1125  0.3477 -0.2183
 7927SOL    HW130639   0.155   1.676   4.235  2.1874 -0.5843 -1.1670
 7927SOL    HW230640   0.066   1.691   4.113 -0.2027  1.1060  0.6740
 7928SOL     OW30641   5.501   0.445   4.433  0.1691 -0.5167  0.2539
 7928SOL    HW130642   5.470   0.535   4.435  1.2203 -0.0555 -1.7067
 7928SOL    HW230643   5.430   0.396   4.392  0.2606 -0.2610 -0.2160
 7929SOL     OW30644   9.585   2.131   5.822  0.0986  0.4673 -0.9754
 7929SOL    HW130645   9.572   2.212   5.774 -0.3435  1.0360  0.0757
 7929SOL    HW230646   9.661   2.148   5.878 -1.2947  0.9618  0.8529
 7930SOL     OW30647   6.271   9.277   3.129 -0.2171  0.3306  0.2062
 7930SOL    HW130648   6.350   9.260   3.078 -1.0430  1.2644 -1.4704
 7930SOL    HW230649   6.237   9.190   3.151  0.2296 -0.0871 -0.7291
 7931SOL     OW30650   1.073  11.131   4.656  0.1188 -0.4970  0.5836
 7931SOL    HW130651   1.099  11.053   4.703 -2.2142 -1.5265  0.3216
 7931SOL    HW230652   0.978  11.136   4.668  0.2768  2.9600  1.5871
 7932SOL     OW30653   5.948   6.547   2.002 -0.4232 -0.1791 -0.0935
 7932SOL    HW130654   5.892   6.531   2.078  0.0308  0.5684  0.4171
 7932SOL    HW230655   5.937   6.470   1.947  0.1102 -1.2682  1.2701
 7933SOL     OW30656   0.574  10.684  10.781 -0.2699 -0.2612  0.1150
 7933SOL    HW130657   0.596  10.617  10.717 -1.2147 -1.4307  0.9856
 7933SOL    HW230658   0.598  10.646  10.866 -2.5990 -0.3083  0.8007
 7934SOL     OW30659   5.351   5.034   4.882  0.6728  0.1721  0.1786
 7934SOL    HW130660   5.423   5.088   4.849 -0.3976  1.6364  0.1553
 7934SOL    HW230661   5.358   5.039   4.977  0.7325  0.1159  0.1776
 7935SOL     OW30662   5.324   9.915   8.851  0.3847 -0.1016  0.0746
 7935SOL    HW130663   5.389   9.856   8.892  0.3417 -1.7716 -2.0886
 7935SOL    HW230664   5.274   9.858   8.793 -1.4111  1.6458 -0.1843
 7936SOL     OW30665   4.521   3.236  10.258 -0.3891 -0.5904 -0.4825
 7936SOL    HW130666   4.499   3.214  10.349 -0.9691 -0.7142 -0.6450
 7936SOL    HW230667   4.608   3.275  10.263 -0.5773 -0.2272  0.1833
 7937SOL     OW30668   3.754   6.328   6.936  0.5010  0.0659  0.0897
 7937SOL    HW130669   3.673   6.353   6.892 -0.6079  1.3604  2.6433
 7937SOL    HW230670   3.809   6.407   6.931  1.2304 -0.4857 -0.7862
 7938SOL     OW30671   2.679   6.036  12.307 -0.5236 -0.2073  0.0656
 7938SOL    HW130672   2.736   5.972  12.350  0.3673  1.9263  2.3150
 7938SOL    HW230673   2.593   6.021  12.346 -0.9862 -1.7836 -1.4721
 7939SOL     OW30674   3.974   0.778   5.334 -0.2386  0.6398 -0.5661
 7939SOL    HW130675   3.984   0.798   5.241  0.4082  0.3560 -0.5660
 7939SOL    HW230676   3.994   0.860   5.379 -0.3193  0.7153 -0.6672
 7940SOL     OW30677   6.208   3.068  10.332 -0.0356  0.0094  0.6262
 7940SOL    HW130678   6.167   3.001  10.386 -1.0781  0.4868  0.4685
 7940SOL    HW230679   6.154   3.146  10.346  0.1943  0.3771 -0.4030
 7941SOL     OW30680  10.201  11.984   3.167 -0.2930  0.2534  1.1666
 7941SOL    HW130681  10.188  11.937   3.085  0.3964  0.1285  1.1239
 7941SOL    HW230682  10.179  11.921   3.235  0.1059  0.0312  1.0957
 7942SOL     OW30683   0.318   5.905  10.643 -0.6032 -0.5124 -0.1029
 7942SOL    HW130684   0.297   5.961  10.568 -0.4466  4.0359  2.8938
 7942SOL    HW230685   0.397   5.859  10.617 -1.4575 -0.4602 -3.2606
 7943SOL     OW30686   6.754  11.333   8.923  0.6382 -0.5609  0.2576
 7943SOL    HW130687   6.780  11.365   9.010 -1.1212 -0.0213  0.6247
 7943SOL    HW230688   6.833  11.290   8.889  1.9047  0.7544  1.3791
 7944SOL     OW30689   7.769  11.779   9.881 -0.3719 -0.1680 -0.3253
 7944SOL    HW130690   7.754  11.862   9.835  2.8842  1.0074  0.4574
 7944SOL    HW230691   7.842  11.739   9.834  1.1653 -0.2981  2.0314
 7945SOL     OW30692   5.706   8.528   9.942  0.1642  0.5766  0.3332
 7945SOL    HW130693   5.615   8.556   9.949  0.1924  0.4917  1.1344
 7945SOL    HW230694   5.704   8.434   9.957  0.6217  0.8857  2.7999
 7946SOL     OW30695   0.021   4.642   9.628  0.0942  0.1082  0.2080
 7946SOL    HW130696  -0.070   4.627   9.602  0.3244  1.7210 -1.8761
 7946SOL    HW230697   0.017   4.716   9.688 -0.0551 -0.7831  1.3342
 7947SOL     OW30698   2.446   4.044   8.587 -0.0291 -0.0132  0.5256
 7947SOL    HW130699   2.478   4.134   8.588  0.8711 -0.3378  1.2565
 7947SOL    HW230700   2.483   4.003   8.665 -0.3319 -1.0576  0.1439
 7948SOL     OW30701   7.271   0.522  11.955 -0.6552 -0.1894 -0.2300
 7948SOL    HW130702   7.232   0.593  11.905  1.2597  0.7850 -0.4298
 7948SOL    HW230703   7.340   0.564  12.007  0.9454 -1.9633 -0.8149
 7949SOL     OW30704  10.058   9.104   8.206  0.1627  0.7240 -0.5309
 7949SOL    HW130705  10.098   9.096   8.292 -0.1379 -2.1105 -0.5700
 7949SOL    HW230706  10.033   9.015   8.183  0.1758  1.4057 -3.5421
 7950SOL     OW30707   1.270   0.841   9.335 -0.1505  0.3003 -0.0735
 7950SOL    HW130708   1.307   0.928   9.345 -0.6419  0.4436  0.6459
 7950SOL    HW230709   1.196   0.853   9.275  1.3957 -0.1302 -2.1556
 7951SOL     OW30710   0.840   9.964   0.197 -0.3838  0.7333 -0.2702
 7951SOL    HW130711   0.913   9.978   0.258 -0.8694  0.4782  0.3885
 7951SOL    HW230712   0.761   9.976   0.252 -0.8275 -0.2074 -0.6868
 7952SOL     OW30713   9.109   0.112   8.140  0.6576  0.7081 -0.9746
 7952SOL    HW130714   9.199   0.080   8.137  0.3985 -0.0902 -0.3975
 7952SOL    HW230715   9.058   0.038   8.170  0.0412  1.6769  0.4793
 7953SOL     OW30716  10.637  12.070  10.125 -0.3741  0.1331 -0.2594
 7953SOL    HW130717  10.635  11.994  10.067  1.6261 -0.4214  0.2920
 7953SOL    HW230718  10.555  12.116  10.109 -0.7564 -1.0824 -2.0378
 7954SOL     OW30719   6.236   2.582   6.840  0.4271 -0.3813 -0.2155
 7954SOL    HW130720   6.240   2.486   6.833  1.0308 -0.3409 -0.5069
 7954SOL    HW230721   6.214   2.598   6.932  2.2426 -0.7888  0.3333
 7955SOL     OW30722   9.268   2.708   8.754  0.2800  0.2784 -0.2177
 7955SOL    HW130723   9.356   2.745   8.759 -0.1420  1.2251  0.5647
 7955SOL    HW230724   9.219   2.754   8.821 -0.1680 -2.0480  1.1692
 7956SOL     OW30725  11.236  11.301   1.462 -0.3382  0.2365 -0.0770
 7956SOL    HW130726  11.142  11.284   1.459 -0.5961  1.5505 -0.0226
 7956SOL    HW230727  11.274  11.223   1.502 -1.4771 -0.0305  0.5052
 7957SOL     OW30728   4.500   7.383  10.515  0.3951  0.0440 -0.0998
 7957SOL    HW130729   4.438   7.312  10.499 -0.2310  0.2925  1.1514
 7957SOL    HW230730   4.486   7.408  10.606  1.5067  0.9143 -0.1433
 7958SOL     OW30731  10.623  11.457   0.700 -0.0700  0.0546 -0.4977
 7958SOL    HW130732  10.691  11.453   0.633  2.7956  0.1244  2.1822
 7958SOL    HW230733  10.602  11.550   0.708  0.6199  0.2062 -0.3661
 7959SOL     OW30734   8.817   4.973   5.534  0.0437 -0.1616 -0.3280
 7959SOL    HW130735   8.849   5.044   5.479 -0.8514 -1.4349 -2.6509
 7959SOL    HW230736   8.785   5.016   5.613  0.5442  1.8747 -1.1740
 7960SOL     OW30737   8.745   1.178   1.413  1.0616 -0.0746 -0.3372
 7960SOL    HW130738   8.737   1.261   1.460  0.1695 -0.4709  0.2394
 7960SOL    HW230739   8.696   1.191   1.332 -0.2445 -0.4349  0.3482
 7961SOL     OW30740   6.812  10.107   7.744  0.4372 -0.3223 -0.2317
 7961SOL    HW130741   6.738  10.127   7.802 -0.5708 -3.3328 -0.2582
 7961SOL    HW230742   6.889  10.116   7.800 -0.0485  1.5552  0.1820
 7962SOL     OW30743  11.265  11.471   5.994  0.0110  0.1334 -0.2825
 7962SOL    HW130744  11.330  11.536   5.966 -1.3015  0.5667 -2.4866
 7962SOL    HW230745  11.252  11.490   6.087 -0.1914  2.9688 -0.7822
 7963SOL     OW30746   2.894   2.861   2.529  0.6338  0.1346  0.0667
 7963SOL    HW130747   2.857   2.811   2.601  0.9025  0.7646  0.6457
 7963SOL    HW230748   2.821   2.873   2.468  0.0682  0.7042  0.8356
 7964SOL     OW30749   5.664  10.715   1.331 -0.0726 -0.2364  0.0248
 7964SOL    HW130750   5.732  10.760   1.381  1.0188 -3.0391  1.2754
 7964SOL    HW230751   5.583  10.759   1.356  1.0373  2.2225 -0.3620
 7965SOL     OW30752   6.665   3.237  12.420 -0.7215  0.1524 -0.2853
 7965SOL    HW130753   6.713   3.210  12.498 -1.6919  0.8643  0.5891
 7965SOL    HW230754   6.723   3.214  12.347 -0.4867 -2.0298  0.5097
 7966SOL     OW30755   6.666   0.663  11.845  0.2121 -0.2466 -0.1994
 7966SOL    HW130756   6.699   0.604  11.912  1.6886  0.4108 -0.3025
 7966SOL    HW230757   6.572   0.671  11.862  0.4797 -0.4850  1.4650
 7967SOL     OW30758   1.480   1.262   0.108  0.0511 -0.3455  0.0161
 7967SOL    HW130759   1.563   1.220   0.132 -0.1659  0.1023  1.6817
 7967SOL    HW230760   1.478   1.258   0.012  0.9095 -2.4094  0.0322
 7968SOL     OW30761  11.714   6.827   8.919  0.0693 -0.4690  0.6575
 7968SOL    HW130762  11.619   6.838   8.916  0.3441  2.8276 -0.2486
 7968SOL    HW230763  11.743   6.850   8.830  1.7698 -0.6894  1.1275
 7969SOL     OW30764   7.952   7.629   9.116 -0.3268  0.1060  0.6034
 7969SOL    HW130765   8.006   7.589   9.184  0.1280 -1.2279 -0.5150
 7969SOL    HW230766   7.906   7.700   9.162  2.9205  1.8863  1.4751
 7970SOL     OW30767   1.074   3.703   9.847 -0.2896 -0.3115 -0.6615
 7970SOL    HW130768   1.104   3.715   9.757  1.8429 -0.4016 -0.0213
 7970SOL    HW230769   1.104   3.616   9.871  1.4270  0.6428  0.9087
 7971SOL     OW30770  10.029   2.664   5.423  0.3791  0.2197  0.0925
 7971SOL    HW130771   9.943   2.673   5.463  0.7147  0.6254  0.7322
 7971SOL    HW230772  10.083   2.731   5.465  1.2760 -0.6887  0.4447
 7972SOL     OW30773   4.763   0.042   9.639 -0.4512  0.2490  0.2676
 7972SOL    HW130774   4.836   0.100   9.663 -0.4589 -0.0215  0.9627
 7972SOL    HW230775   4.701   0.051   9.711 -0.0362 -1.3181  0.8690
 7973SOL     OW30776   3.170   9.202   9.303  0.5164  0.0094 -0.5418
 7973SOL    HW130777   3.254   9.181   9.344  1.3304 -1.0332 -2.6102
 7973SOL    HW230778   3.189   9.205   9.209 -1.7613 -0.2770 -1.0699
 7974SOL     OW30779   8.680   8.056   7.391 -0.3557 -0.1589  0.4052
 7974SOL    HW130780   8.649   7.966   7.378 -0.8542  0.0445  0.1737
 7974SOL    HW230781   8.697   8.088   7.303  2.5180 -0.9387  0.5683
 7975SOL     OW30782   9.126   4.849   0.750 -0.5269 -0.1912 -0.0460
 7975SOL    HW130783   9.204   4.797   0.769 -0.0733 -0.0106 -1.3136
 7975SOL    HW230784   9.151   4.939   0.773 -1.3643 -0.4856  2.2972
 7976SOL     OW30785  11.060   7.890   2.388 -0.2066  0.2558 -0.2939
 7976SOL    HW130786  11.072   7.810   2.336  1.6473 -0.3146  0.9075
 7976SOL    HW230787  10.967   7.891   2.408 -0.3303 -1.4552 -0.5913
 7977SOL     OW30788   1.291  10.903   4.124 -0.1680  0.0525  0.1160
 7977SOL    HW130789   1.212  10.857   4.096 -0.1053  0.5233 -0.8704
 7977SOL    HW230790   1.355  10.887   4.055 -0.5375  2.6240 -0.9640
 7978SOL     OW30791   1.317   4.397  11.499  0.1964 -0.6225  0.1041
 7978SOL    HW130792   1.318   4.379  11.593  2.4417  2.0760  0.7331
 7978SOL    HW230793   1.239   4.451  11.486  0.3123 -0.3139  0.6208
 7979SOL     OW30794   6.213   9.798   9.936  0.7039 -0.0210 -0.3137
 7979SOL    HW130795   6.118   9.794   9.942  0.8559 -1.7561  3.8840
 7979SOL    HW230796   6.236   9.880   9.979  1.1461 -1.3508  2.1120
 7980SOL     OW30797   5.134   4.792  11.309 -0.1519  0.1050 -0.0637
 7980SOL    HW130798   5.058   4.816  11.257  0.1994  0.1103 -0.5823
 7980SOL    HW230799   5.102   4.788  11.399 -1.2281 -1.7446 -0.4695
 7981SOL     OW30800   1.056   5.900   7.602  0.1596  0.3153  0.2369
 7981SOL    HW130801   1.001   5.952   7.661 -1.4177 -0.8183 -0.1792
 7981SOL    HW230802   1.125   5.865   7.658 -1.0496 -0.3758  1.3443
 7982SOL     OW30803  12.366   5.844   6.322  0.1297  0.6222 -0.1613
 7982SOL    HW130804  12.331   5.814   6.406 -0.7900  0.4726 -0.5812
 7982SOL    HW230805  12.405   5.929   6.341  1.8824 -0.3497  0.8428
 7983SOL     OW30806   0.840   9.713   8.226  0.0609  0.0899 -0.0895
 7983SOL    HW130807   0.915   9.771   8.214  0.3634 -0.2531  0.1180
 7983SOL    HW230808   0.877   9.633   8.263 -0.4542  0.0395  0.3326
 7984SOL     OW30809  11.484   1.456   9.808  0.2632 -0.7285 -0.0661
 7984SOL    HW130810  11.528   1.541   9.805  0.9412 -1.1066 -1.9289
 7984SOL    HW230811  11.391   1.477   9.816  0.5193  0.1326  0.9490
 7985SOL     OW30812   4.376   9.037   5.771  0.1349 -0.2039  0.6116
 7985SOL    HW130813   4.408   9.069   5.687 -0.0714  0.9033  0.9437
 7985SOL    HW230814   4.280   9.037   5.762  0.0881  0.4842  1.0394
 7986SOL     OW30815   6.939   5.751   4.484  0.9540  0.0349  0.4330
 7986SOL    HW130816   6.861   5.699   4.507  1.4185 -0.2590  1.3762
 7986SOL    HW230817   7.012   5.692   4.499  1.7295  1.6679  4.1089
 7987SOL     OW30818   2.757   0.573  11.511 -0.1769  0.1273 -0.2659
 7987SOL    HW130819   2.771   0.490  11.463  0.7203 -0.2407  0.5967
 7987SOL    HW230820   2.846   0.602  11.532 -0.5117 -1.1219  3.5221
 7988SOL     OW30821   9.000   7.332   3.205 -0.6251 -0.1382  0.8553
 7988SOL    HW130822   9.069   7.287   3.254 -0.6920  0.0497  1.1182
 7988SOL    HW230823   9.041   7.414   3.176  0.3260 -1.4189 -1.7539
 7989SOL     OW30824   3.287   3.267   0.371  0.3794 -0.5658  0.3343
 7989SOL    HW130825   3.343   3.304   0.303  0.6420 -2.1636 -0.3593
 7989SOL    HW230826   3.311   3.175   0.375 -0.2677 -0.6969  1.9835
 7990SOL     OW30827   5.659   6.711   6.263  0.4530 -0.4217  0.0581
 7990SOL    HW130828   5.579   6.717   6.211  0.8242 -0.5115 -0.5305
 7990SOL    HW230829   5.698   6.798   6.257  0.7879 -0.5951 -0.2892
 7991SOL     OW30830   4.989   3.565  12.113 -0.0870  0.5632 -0.0247
 7991SOL    HW130831   5.031   3.537  12.195 -1.3471  0.7530  0.7198
 7991SOL    HW230832   5.061   3.580  12.053  0.9239  1.0110  1.2474
 7992SOL     OW30833   3.199   9.393   0.649 -0.1656 -0.0607 -0.4011
 7992SOL    HW130834   3.265   9.413   0.715  0.8391  0.5298 -1.5471
 7992SOL    HW230835   3.119   9.379   0.699 -0.1129  3.0682  0.8018
 7993SOL     OW30836   4.266   5.137   7.748  0.3437  0.0973  0.0093
 7993SOL    HW130837   4.239   5.049   7.774 -0.6448  0.1336 -0.8138
 7993SOL    HW230838   4.218   5.154   7.667  1.0862  1.1118 -0.2443
 7994SOL     OW30839   4.529  10.313   6.979  0.7354 -1.0093 -0.4936
 7994SOL    HW130840   4.592  10.357   6.921  0.0014 -1.4075 -1.6156
 7994SOL    HW230841   4.485  10.249   6.923  0.1522 -1.5611  0.5656
 7995SOL     OW30842   0.092   4.826   1.080 -0.0168 -0.5097 -0.0048
 7995SOL    HW130843   0.096   4.921   1.095  0.1614 -0.6911  1.1083
 7995SOL    HW230844   0.180   4.803   1.050  0.7076 -0.7223  2.1760
 7996SOL     OW30845  10.947   3.215   1.783  0.5210  0.1077  0.6044
 7996SOL    HW130846  10.983   3.301   1.805  0.2445  0.1405  0.9377
 7996SOL    HW230847  10.911   3.227   1.695  3.6663 -0.6430 -0.9371
 7997SOL     OW30848   5.670   9.309   2.260  0.3478 -0.0286 -0.2966
 7997SOL    HW130849   5.756   9.289   2.297  0.2455  0.6625  0.3345
 7997SOL    HW230850   5.632   9.224   2.241  1.8149 -0.3565 -2.1154
 7998SOL     OW30851   9.440   3.389   2.566 -0.4386 -0.1683 -0.2291
 7998SOL    HW130852   9.412   3.449   2.635  0.3616  0.1401 -0.1638
 7998SOL    HW230853   9.374   3.398   2.498 -0.7031  0.2626  0.0785
 7999SOL     OW30854  11.306  10.779  10.210 -0.1748  0.0065  0.1747
 7999SOL    HW130855  11.308  10.805  10.118 -1.7633  1.5336  0.5200
 7999SOL    HW230856  11.273  10.689  10.209  1.3215 -0.5585 -0.8132
 8000SOL     OW30857   3.173   7.074   7.873 -0.2498  0.2658  0.4884
 8000SOL    HW130858   3.244   7.138   7.867 -0.8569  0.9343  0.2763
 8000SOL    HW230859   3.159   7.045   7.783 -0.8307  0.7986  0.3996
 8001SOL     OW30860   9.648   8.081   9.188 -0.0531  0.1004 -0.1289
 8001SOL    HW130861   9.707   8.007   9.176  1.0626  0.6281  1.7283
 8001SOL    HW230862   9.561   8.047   9.166  0.7663 -0.9753 -1.9546
 8002SOL     OW30863   7.649   4.242  10.892  0.2748 -0.2274 -0.0762
 8002SOL    HW130864   7.697   4.252  10.973  0.4599  2.5381 -0.4372
 8002SOL    HW230865   7.697   4.175  10.843  1.6159 -0.1298  1.0559
 8003SOL     OW30866   6.643  12.279   9.580  0.0452  0.8243 -0.1397
 8003SOL    HW130867   6.716  12.223   9.555 -1.4172 -0.9861 -0.5263
 8003SOL    HW230868   6.660  12.362   9.534  0.5474 -0.3992 -2.3187
 8004SOL     OW30869   6.995   0.362   1.010  0.0321  0.0243  0.7169
 8004SOL    HW130870   6.950   0.340   1.092 -0.1477 -0.3146  0.5295
 8004SOL    HW230871   6.947   0.314   0.943 -0.0734  0.6247  0.3559
 8005SOL     OW30872  12.444   5.994   4.443 -0.1220  0.1786  0.0722
 8005SOL    HW130873  12.534   5.997   4.411  0.4759  0.7070  1.7012
 8005SOL    HW230874  12.433   6.074   4.494 -1.6302  0.2766 -0.3330
 8006SOL     OW30875  10.423   8.019   0.235 -0.4204 -0.0047 -0.2583
 8006SOL    HW130876  10.364   8.094   0.242 -0.5976 -0.0317 -1.3412
 8006SOL    HW230877  10.374   7.946   0.273 -1.2283 -0.0879 -1.3840
 8007SOL     OW30878   4.120   3.416   0.474  0.0066  0.4577  0.3557
 8007SOL    HW130879   4.146   3.428   0.383 -0.2689  0.9219  0.3338
 8007SOL    HW230880   4.078   3.330   0.476  1.9041 -0.5081  0.4849
 8008SOL     OW30881   7.006   8.274   1.121 -0.2176 -0.2671  0.0532
 8008SOL    HW130882   6.966   8.305   1.202 -1.9257 -0.6436 -0.6085
 8008SOL    HW230883   7.066   8.205   1.149  0.0374  0.3462  1.0818
 8009SOL     OW30884   9.477   4.397   0.468  0.3536 -0.4638  0.0165
 8009SOL    HW130885   9.403   4.380   0.526  0.2161  0.4836  0.1285
 8009SOL    HW230886   9.448   4.468   0.412  1.0910 -0.2563 -0.1099
 8010SOL     OW30887   1.450   6.386   4.946 -0.5568 -0.6428  0.0835
 8010SOL    HW130888   1.530   6.351   4.907 -0.5050  0.4487 -0.8404
 8010SOL    HW230889   1.480   6.448   5.012 -0.6549 -1.9214  1.3961
 8011SOL     OW30890   8.245   1.186   9.311 -0.3058  0.5322  0.0471
 8011SOL    HW130891   8.254   1.176   9.217 -2.9702  2.7470 -0.5393
 8011SOL    HW230892   8.240   1.281   9.326  0.7208  0.2917  2.5175
 8012SOL     OW30893   2.956   9.872   9.078 -0.5376  0.5176  0.1180
 8012SOL    HW130894   3.021   9.868   9.007 -1.8057  2.3273 -1.2335
 8012SOL    HW230895   3.003   9.907   9.153 -0.1180  2.8535 -1.1515
 8013SOL     OW30896   4.316   8.108   7.859  0.2598  0.0368  0.6774
 8013SOL    HW130897   4.285   8.020   7.881  0.4863 -0.1258  0.3623
 8013SOL    HW230898   4.310   8.113   7.764 -1.3750  0.9906  0.7974
 8014SOL     OW30899   6.610   7.520  10.357 -0.2589 -0.3314  0.4722
 8014SOL    HW130900   6.576   7.496  10.270  1.3241 -0.7593 -0.0528
 8014SOL    HW230901   6.692   7.472  10.365  1.4460  2.4391  0.7428
 8015SOL     OW30902  10.331   1.867   9.759  0.2486 -0.0325  0.3794
 8015SOL    HW130903  10.324   1.926   9.834 -0.2821  3.5215 -2.1799
 8015SOL    HW230904  10.254   1.887   9.706  1.2707 -1.4053 -1.7565
 8016SOL     OW30905   5.682   8.232   9.934  0.1617 -0.3670  0.6206
 8016SOL    HW130906   5.745   8.182   9.881 -0.2077 -1.1212  0.8758
 8016SOL    HW230907   5.620   8.166   9.966 -1.4729  0.5179 -0.5853
 8017SOL     OW30908   3.699   4.287   8.283 -0.0675 -0.6109 -0.8485
 8017SOL    HW130909   3.773   4.228   8.292  0.0526 -0.3733 -0.2283
 8017SOL    HW230910   3.658   4.287   8.370 -1.7236 -1.9442 -1.5740
 8018SOL     OW30911   4.517  10.864   4.539  0.3424  0.3765  0.2026
 8018SOL    HW130912   4.609  10.837   4.542  0.3549  0.3430 -0.3070
 8018SOL    HW230913   4.520  10.959   4.541  0.4451  0.4048 -0.8113
 8019SOL     OW30914   3.278   1.892  12.068 -0.3705 -0.5488 -0.0412
 8019SOL    HW130915   3.212   1.826  12.087  0.8396 -1.6989  0.3201
 8019SOL    HW230916   3.319   1.862  11.987 -1.0997  0.8204 -0.9492
 8020SOL     OW30917  11.741   8.070  10.186  0.5775 -0.7861  0.5096
 8020SOL    HW130918  11.775   8.036  10.103 -1.4027 -2.4630  0.3005
 8020SOL    HW230919  11.648   8.085  10.169  0.5330  0.7595  1.8898
 8021SOL     OW30920   7.536   5.270   7.481 -0.5475  0.1040  0.1726
 8021SOL    HW130921   7.494   5.354   7.502 -0.9908  0.0840 -0.6067
 8021SOL    HW230922   7.471   5.223   7.429  0.7078  0.3586 -1.7066
 8022SOL     OW30923  11.861   2.833  12.452  0.1361 -0.8086  0.6321
 8022SOL    HW130924  11.944   2.835  12.404  0.1706 -1.0298  0.6813
 8022SOL    HW230925  11.885   2.860  12.541  0.7053 -3.7159  1.4550
 8023SOL     OW30926   5.137  12.547  12.062 -0.0610  0.1097 -0.2609
 8023SOL    HW130927   5.198  12.504  12.004 -0.3089 -2.0887  0.9922
 8023SOL    HW230928   5.104  12.622  12.012  1.9808  0.0856 -1.7459
 8024SOL     OW30929   8.317   2.129   7.127 -0.4849 -0.5492 -0.0852
 8024SOL    HW130930   8.284   2.052   7.174  0.4907 -1.3149 -0.6067
 8024SOL    HW230931   8.272   2.203   7.168 -0.6119 -1.2946  1.2029
 8025SOL     OW30932   4.405  11.628   7.087 -0.5281 -0.4100 -0.0467
 8025SOL    HW130933   4.406  11.541   7.049 -1.0738 -0.0378 -0.9540
 8025SOL    HW230934   4.315  11.639   7.119 -0.1487 -0.6138  1.1099
 8026SOL     OW30935  11.275   1.706  10.539 -0.1481  0.0690  0.6746
 8026SOL    HW130936  11.232   1.771  10.483 -0.7981 -0.2548  0.7936
 8026SOL    HW230937  11.230   1.713  10.623 -0.8465 -1.1390  0.4358
 8027SOL     OW30938   8.762   7.322  10.122  0.4320  0.2431 -0.1907
 8027SOL    HW130939   8.819   7.246  10.110  0.1860 -0.2615  1.6293
 8027SOL    HW230940   8.673   7.286  10.116  0.3040  0.5764 -0.3342
 8028SOL     OW30941   8.447  10.045   3.444 -0.1576 -0.3450  0.1208
 8028SOL    HW130942   8.427  10.113   3.507 -1.5687 -0.0706 -0.5850
 8028SOL    HW230943   8.422   9.964   3.487  0.0051 -0.2760  0.3480
 8029SOL     OW30944  11.915   3.654   9.696  0.0452  0.3702 -0.2760
 8029SOL    HW130945  11.900   3.615   9.782  0.3918  0.0365 -0.3664
 8029SOL    HW230946  11.860   3.603   9.636  1.2811 -0.6573 -0.5586
 8030SOL     OW30947  11.923  11.385  10.474 -0.6506  0.0328  0.2638
 8030SOL    HW130948  11.951  11.376  10.383 -1.7292 -0.8594  0.0021
 8030SOL    HW230949  11.947  11.475  10.497  1.1013 -0.2220 -0.3676
 8031SOL     OW30950   3.453   1.022   6.074  0.2890 -0.0359  0.2788
 8031SOL    HW130951   3.520   1.061   6.131  1.1273  1.0824 -1.3908
 8031SOL    HW230952   3.488   0.936   6.051  0.1684 -0.2977  1.0375
 8032SOL     OW30953   5.006   5.846   6.056 -0.1624 -0.5286 -0.1975
 8032SOL    HW130954   4.913   5.830   6.043 -0.0816 -0.5462 -0.7490
 8032SOL    HW230955   5.050   5.798   5.986  0.2629 -0.5129  0.0509
 8033SOL     OW30956   9.504   2.480   7.552  0.1684  0.2771  0.4362
 8033SOL    HW130957   9.584   2.475   7.605  0.2191 -0.5278  0.2999
 8033SOL    HW230958   9.533   2.460   7.463 -0.3689 -1.3422  0.5899
 8034SOL     OW30959  12.121   3.041   0.350 -0.0696 -0.3457 -0.8021
 8034SOL    HW130960  12.115   3.120   0.297  0.6825 -0.3022 -0.8356
 8034SOL    HW230961  12.085   3.067   0.435  0.8182  0.2460 -0.5952
 8035SOL     OW30962   3.539   4.059   0.413 -0.0749 -0.6521  0.1291
 8035SOL    HW130963   3.471   4.102   0.465 -0.4139 -1.1709  0.1222
 8035SOL    HW230964   3.496   3.983   0.374  0.3045 -0.5449 -0.5159
 8036SOL     OW30965   7.336  11.987   8.738  0.2481 -0.0682  0.2226
 8036SOL    HW130966   7.391  12.065   8.742  0.2045 -0.0804  1.1086
 8036SOL    HW230967   7.291  11.994   8.654  2.2348 -0.4866 -0.9511
 8037SOL     OW30968   7.968   3.875  10.531  0.1129  0.4328  0.6017
 8037SOL    HW130969   7.876   3.884  10.507  0.1185 -0.8768  0.0174
 8037SOL    HW230970   7.988   3.956  10.578 -0.5140  2.1590 -1.8677
 8038SOL     OW30971   6.362   4.079   6.966  0.2454 -0.5205  0.3541
 8038SOL    HW130972   6.446   4.098   7.007 -0.2446 -0.8073  1.5444
 8038SOL    HW230973   6.380   4.081   6.872  1.8070 -1.5937  0.5890
 8039SOL     OW30974   8.436   2.950   4.221  0.1722  0.2943  0.5001
 8039SOL    HW130975   8.434   3.025   4.162  1.1943 -0.6568 -0.8203
 8039SOL    HW230976   8.414   2.875   4.165 -0.1469 -0.4829  1.6290
 8040SOL     OW30977  11.385   3.469   4.909  0.3992 -0.0991  0.0907
 8040SOL    HW130978  11.446   3.525   4.860  2.8281 -2.3391  0.3066
 8040SOL    HW230979  11.342   3.529   4.970  0.5205  2.0088 -1.7363
 8041SOL     OW30980  10.004   4.025   4.878  0.1138 -0.2141 -0.1201
 8041SOL    HW130981  10.013   4.052   4.786 -0.9459 -0.2988 -0.2573
 8041SOL    HW230982  10.094   4.029   4.912  0.6925 -1.1811 -1.4293
 8042SOL     OW30983  10.927   8.341  11.147 -0.0386  0.8433  0.1178
 8042SOL    HW130984  11.017   8.338  11.115 -0.7277  0.5849 -1.9259
 8042SOL    HW230985  10.900   8.432  11.133 -1.1435  0.2054 -2.5841
 8043SOL     OW30986   0.285   1.564   0.708  0.2482  0.1013 -0.2956
 8043SOL    HW130987   0.369   1.608   0.692  0.1928 -0.0650 -1.0748
 8043SOL    HW230988   0.232   1.585   0.631 -0.1357 -0.4787 -0.1939
 8044SOL     OW30989  10.974   2.934   0.300  0.1131 -0.3803 -0.0949
 8044SOL    HW130990  11.057   2.897   0.331 -0.2136 -1.5874 -0.5743
 8044SOL    HW230991  10.963   3.014   0.351  1.2627 -0.5273  0.4288
 8045SOL     OW30992   7.243   0.226   2.558 -0.4044  0.8830  0.6433
 8045SOL    HW130993   7.198   0.291   2.612 -0.9431 -0.8265  2.3203
 8045SOL    HW230994   7.184   0.151   2.556  0.1701  0.4170 -1.3231
 8046SOL     OW30995   3.522   6.845   8.731  0.6473  0.6904  0.3390
 8046SOL    HW130996   3.564   6.888   8.805  1.4746  0.5156 -0.0237
 8046SOL    HW230997   3.594   6.806   8.681  0.1090  0.9007 -0.6216
 8047SOL     OW30998   8.308  11.831   6.337  0.2342  0.2137  0.4041
 8047SOL    HW130999   8.255  11.857   6.413 -0.3960 -0.0327  0.0601
 8047SOL    HW231000   8.257  11.862   6.262  0.7846  0.3270  0.0779
 8048SOL     OW31001   0.388   6.581   4.375 -0.0438  1.0685  0.2257
 8048SOL    HW131002   0.331   6.645   4.419 -1.2026 -0.2899  0.7941
 8048SOL    HW231003   0.386   6.606   4.283 -2.5433  0.4325  0.0219
 8049SOL     OW31004   1.608   1.385   6.231  0.7565  0.0719  0.1362
 8049SOL    HW131005   1.619   1.481   6.230 -1.7278  0.4234 -0.4252
 8049SOL    HW231006   1.572   1.365   6.144  1.2728 -1.3815  0.2485
 8050SOL     OW31007   3.929   6.037   4.982  0.1341  0.3248  0.2521
 8050SOL    HW131008   4.010   5.987   4.991  1.1127  1.3309 -2.0957
 8050SOL    HW231009   3.859   5.973   4.997  1.3318 -0.8789  0.9285
 8051SOL     OW31010   6.556   7.138   7.227  0.4489 -0.1802 -0.2814
 8051SOL    HW131011   6.550   7.228   7.194  0.4676  0.4031  1.2219
 8051SOL    HW231012   6.632   7.101   7.183 -0.7297 -0.1806 -2.4748
 8052SOL     OW31013  12.030   5.540   1.053  0.1867  0.2674 -0.2051
 8052SOL    HW131014  12.043   5.627   1.091 -0.0233 -0.1254  0.7844
 8052SOL    HW231015  12.109   5.525   1.001  0.7371  0.5811  0.5258
 8053SOL     OW31016   9.340  10.159   7.105  0.4244 -0.4066 -0.3650
 8053SOL    HW131017   9.328  10.209   7.024 -0.3580  0.0790  0.0266
 8053SOL    HW231018   9.422  10.112   7.093  1.0781  0.8108 -0.8448
 8054SOL     OW31019   3.319   4.514   7.032  0.3809  0.2014 -0.0961
 8054SOL    HW131020   3.386   4.464   7.079  1.0613  1.6461  0.5359
 8054SOL    HW231021   3.293   4.457   6.960  1.5248 -0.8232  0.2648
 8055SOL     OW31022   8.239   5.470   2.451 -0.3868 -0.1096 -0.2716
 8055SOL    HW131023   8.152   5.442   2.422 -0.1140 -1.2701 -0.0181
 8055SOL    HW231024   8.299   5.405   2.413  0.0372 -1.4517  2.4565
 8056SOL     OW31025   0.325   1.494  11.660  0.0522 -1.0940  0.4676
 8056SOL    HW131026   0.353   1.448  11.581  1.2389  0.0841  0.1511
 8056SOL    HW231027   0.401   1.546  11.686 -1.6632  2.0742 -0.2465
 8057SOL     OW31028   1.468   5.760   9.203 -0.1892  0.3842  0.0098
 8057SOL    HW131029   1.445   5.670   9.226 -1.9268  0.8847  0.3117
 8057SOL    HW231030   1.506   5.796   9.283 -1.2089  0.4795  0.4574
 8058SOL     OW31031   4.311   2.610   7.890 -0.4986  0.4153  0.4079
 8058SOL    HW131032   4.231   2.584   7.844 -2.0256  3.4846  1.0864
 8058SOL    HW231033   4.296   2.701   7.915  3.0879  1.0115  0.9344
 8059SOL     OW31034   5.876  10.528   0.463  0.3777  0.2371 -0.0602
 8059SOL    HW131035   5.812  10.461   0.488 -0.5180  0.8478 -0.6751
 8059SOL    HW231036   5.944  10.522   0.530 -0.8348  0.2906  1.2239
 8060SOL     OW31037   2.880   8.068   9.665 -0.0803 -0.5336 -0.7824
 8060SOL    HW131038   2.820   8.124   9.714  0.4863 -1.1289  0.6292
 8060SOL    HW231039   2.965   8.111   9.671 -0.1833 -0.0611 -2.1847
 8061SOL     OW31040   9.546   8.916  12.053 -0.3189 -0.4669  0.5995
 8061SOL    HW131041   9.516   8.909  12.143  0.0730 -0.1309  0.7580
 8061SOL    HW231042   9.500   8.992  12.018  1.2353  0.7985  1.2096
 8062SOL     OW31043   9.373  12.199   2.969  0.1389 -0.1050 -0.4093
 8062SOL    HW131044   9.460  12.169   2.943  0.5134  0.4036  0.2314
 8062SOL    HW231045   9.318  12.181   2.893  1.4307  2.4992 -2.0957
 8063SOL     OW31046   5.420  11.862  10.477  0.1762  0.0520  0.2292
 8063SOL    HW131047   5.439  11.955  10.488 -0.3597  0.0930  0.8884
 8063SOL    HW231048   5.493  11.828  10.426  0.5757  0.7509  0.3261
 8064SOL     OW31049   8.467   3.966   6.213  0.0359 -0.5453  0.2099
 8064SOL    HW131050   8.540   3.984   6.154  0.9079  0.0666  1.4194
 8064SOL    HW231051   8.388   3.988   6.163  0.7910  0.6898 -0.4704
 8065SOL     OW31052   9.918  10.674   8.747 -0.1114 -0.3304  0.2886
 8065SOL    HW131053   9.902  10.673   8.842  0.6963 -0.1316  0.4313
 8065SOL    HW231054   9.900  10.584   8.719 -0.9447 -0.2443  0.5231
 8066SOL     OW31055   2.795   6.892   4.339 -0.0919 -0.5986 -0.6201
 8066SOL    HW131056   2.864   6.917   4.277  0.6445 -0.8230  0.1006
 8066SOL    HW231057   2.770   6.804   4.310 -0.2355 -0.4337 -1.0135
 8067SOL     OW31058   8.161   5.112   4.091  0.1632  0.3972 -0.0316
 8067SOL    HW131059   8.220   5.046   4.055  0.1875 -0.4032  1.4094
 8067SOL    HW231060   8.089   5.116   4.028  0.6019 -0.3336 -0.6000
 8068SOL     OW31061   4.016   6.999   9.510  0.5349  0.1168 -0.3013
 8068SOL    HW131062   3.979   7.084   9.534 -0.5877  0.1357 -1.9019
 8068SOL    HW231063   3.944   6.953   9.467  1.9689 -0.3555 -2.3899
 8069SOL     OW31064  11.895   6.213   3.017 -0.1284 -0.0073  0.6271
 8069SOL    HW131065  11.845   6.294   3.008 -0.0400 -0.0519 -0.3597
 8069SOL    HW231066  11.851   6.152   2.957  1.5049  0.1583 -0.8057
 8070SOL     OW31067   9.092   2.998   5.231  0.0139  0.3354  0.1115
 8070SOL    HW131068   9.152   3.069   5.253 -0.2008  0.7647 -0.6534
 8070SOL    HW231069   9.038   3.033   5.160 -0.6500 -0.3018  0.2887
 8071SOL     OW31070   7.918   1.523   0.138 -0.0967 -0.0762  0.1551
 8071SOL    HW131071   7.829   1.532   0.104 -0.4360 -1.4069  0.6715
 8071SOL    HW231072   7.922   1.435   0.175  0.8437  0.6441  1.8748
 8072SOL     OW31073   3.852   7.663   6.876  0.2460 -0.0526 -0.2769
 8072SOL    HW131074   3.782   7.661   6.941  0.8872 -0.2048  0.4087
 8072SOL    HW231075   3.808   7.639   6.794 -0.5406  0.0311  0.1135
 8073SOL     OW31076   1.262   7.047  10.869 -0.0262 -0.5607  0.3103
 8073SOL    HW131077   1.339   7.059  10.925  1.0979 -5.1224  0.0779
 8073SOL    HW231078   1.297   7.045  10.780 -0.6071 -1.3707  0.0948
 8074SOL     OW31079   9.860   4.390  10.496 -0.8931 -0.2282 -0.3788
 8074SOL    HW131080   9.778   4.439  10.487 -0.5180  0.6665  0.9280
 8074SOL    HW231081   9.836   4.314  10.550 -0.8199  0.1359  0.1668
 8075SOL     OW31082   5.208   2.631   0.941 -0.5269 -0.3981 -0.6586
 8075SOL    HW131083   5.181   2.550   0.898  0.2808 -0.9311 -0.1917
 8075SOL    HW231084   5.284   2.661   0.891  0.3400 -0.9537  0.2955
 8076SOL     OW31085  11.976   7.745   7.842  0.0544  0.2180  0.0329
 8076SOL    HW131086  12.005   7.836   7.837  0.2661  0.1361 -0.2938
 8076SOL    HW231087  11.884   7.748   7.814 -0.1835  0.4417  0.8223
 8077SOL     OW31088   5.904   1.919   7.727 -0.1082  0.1547  0.3475
 8077SOL    HW131089   5.870   1.878   7.647 -0.6909 -0.8193  1.0787
 8077SOL    HW231090   5.993   1.947   7.704  0.8127 -2.6300  0.1464
 8078SOL     OW31091  12.221   3.824  12.477  0.3237 -0.1968 -0.2310
 8078SOL    HW131092  12.216   3.911  12.439  0.6795  0.1750  0.5611
 8078SOL    HW231093  12.314   3.802  12.475  0.1227 -1.1154 -1.6170
 8079SOL     OW31094   3.341   4.365  10.109 -0.5505  0.1957  0.9130
 8079SOL    HW131095   3.355   4.459  10.096 -0.9120  0.2630  0.9807
 8079SOL    HW231096   3.246   4.354  10.098 -0.6187 -0.0299  1.6729
 8080SOL     OW31097   0.179   9.737   2.501 -0.3183 -0.1491 -0.3325
 8080SOL    HW131098   0.094   9.741   2.545  0.1956  0.2380  0.6444
 8080SOL    HW231099   0.207   9.828   2.495  1.7456 -0.4341  2.8228
 8081SOL     OW31100   6.382   2.688   5.250 -0.1354 -0.0571  0.1898
 8081SOL    HW131101   6.370   2.593   5.253 -1.0074  0.0365  0.0962
 8081SOL    HW231102   6.331   2.721   5.324  1.3099  0.2549  1.0773
 8082SOL     OW31103   7.284   1.765   8.797  0.7722  0.4366 -0.0807
 8082SOL    HW131104   7.370   1.768   8.755  0.2428  0.6796 -1.1793
 8082SOL    HW231105   7.240   1.846   8.768  0.6725  1.0113  1.5890
 8083SOL     OW31106   6.544   9.293   2.998  0.0792  0.0183 -0.1804
 8083SOL    HW131107   6.543   9.287   2.903 -0.9984 -0.1782 -0.1654
 8083SOL    HW231108   6.578   9.208   3.027 -0.1537 -0.1422 -0.3754
 8084SOL     OW31109   1.298   2.591   2.084 -0.1316 -0.0898 -0.0762
 8084SOL    HW131110   1.244   2.635   2.149 -1.2754 -0.8999 -0.4443
 8084SOL    HW231111   1.257   2.613   2.000 -1.8596 -3.1668 -0.2023
 8085SOL     OW31112   2.461   0.859   7.989  0.2032  0.1680 -0.5614
 8085SOL    HW131113   2.482   0.804   7.914  1.9315  0.5642 -0.3953
 8085SOL    HW231114   2.429   0.798   8.056 -0.1164 -0.3290 -1.1564
 8086SOL     OW31115   3.651   3.414  11.072 -0.0967 -0.8792 -0.3599
 8086SOL    HW131116   3.626   3.498  11.112  1.6179  1.0273 -2.9847
 8086SOL    HW231117   3.745   3.409  11.084  0.0005 -1.7796 -1.4039
 8087SOL     OW31118  11.625   9.197   0.165 -0.4660 -0.6167  0.3317
 8087SOL    HW131119  11.670   9.272   0.126  0.1582 -1.5254 -0.7416
 8087SOL    HW231120  11.659   9.194   0.255 -0.6084  0.4581  0.4348
 8088SOL     OW31121   0.544  10.617   2.716  0.3849  0.6347 -0.1868
 8088SOL    HW131122   0.626  10.569   2.705 -0.4614 -0.9211  0.0164
 8088SOL    HW231123   0.549  10.655   2.803  0.3517 -0.5782  0.3586
 8089SOL     OW31124   3.037   2.812   7.275  0.3580  0.2757  0.2674
 8089SOL    HW131125   3.057   2.794   7.183 -0.6371  2.1275 -0.3589
 8089SOL    HW231126   3.035   2.908   7.281 -3.7309  0.3266  1.1916
 8090SOL     OW31127   6.122   0.015   6.124  0.3651  0.5116  0.1875
 8090SOL    HW131128   6.085  -0.058   6.174  1.0340 -0.2982 -0.4693
 8090SOL    HW231129   6.046   0.060   6.088 -0.0744  0.3409  0.8762
 8091SOL     OW31130   8.502   0.864   2.088  0.3956  0.1553  0.1132
 8091SOL    HW131131   8.420   0.905   2.061  0.1575 -1.4415 -1.7874
 8091SOL    HW231132   8.497   0.775   2.054  2.2603 -0.4726  1.3313
 8092SOL     OW31133   4.323  12.328   9.890 -0.3539 -0.4439  0.1406
 8092SOL    HW131134   4.359  12.382   9.820 -1.0043 -1.8829 -1.3734
 8092SOL    HW231135   4.250  12.379   9.925  0.3995  0.5778  0.2678
 8093SOL     OW31136   9.928   8.059   0.493  0.1734 -0.0026  0.6602
 8093SOL    HW131137  10.017   8.087   0.516 -0.0642  1.6031 -0.2118
 8093SOL    HW231138   9.887   8.138   0.457 -0.8009 -1.2994 -1.2849
 8094SOL     OW31139   8.677  12.047  10.158  0.6310  0.1418 -0.1808
 8094SOL    HW131140   8.589  12.081  10.140  0.9699  2.2465  1.7539
 8094SOL    HW231141   8.735  12.107  10.112  1.1365  0.5698  0.9805
 8095SOL     OW31142   5.766   1.833   0.445  0.5715  0.2323 -0.1582
 8095SOL    HW131143   5.825   1.798   0.379 -0.0262  0.7899 -1.0106
 8095SOL    HW231144   5.768   1.928   0.431 -0.1338  0.2958  0.1322
 8096SOL     OW31145   8.437   5.859   2.235 -0.1663  0.4590 -0.1213
 8096SOL    HW131146   8.509   5.874   2.173 -0.4837 -0.7699 -0.8286
 8096SOL    HW231147   8.477   5.868   2.321  0.9284 -0.5399 -0.4984
 8097SOL     OW31148   8.834   8.613  11.221  0.2264  0.3664 -0.3730
 8097SOL    HW131149   8.821   8.596  11.128 -1.2139 -0.1742 -0.1033
 8097SOL    HW231150   8.750   8.650  11.251  1.0260  1.5332  0.4937
 8098SOL     OW31151  12.487   1.037   1.305  0.1003  0.1875 -0.2006
 8098SOL    HW131152  12.548   1.006   1.372  0.0159  0.0230 -0.2010
 8098SOL    HW231153  12.467   0.960   1.252 -1.3703 -0.1265  0.7673
 8099SOL     OW31154   0.537  10.283   1.894  0.3367 -0.6412 -0.1277
 8099SOL    HW131155   0.541  10.281   1.990  1.2006  2.5184  0.0094
 8099SOL    HW231156   0.605  10.221   1.867  0.7164 -0.9010  1.3112
 8100SOL     OW31157   7.524   3.635   7.938  0.2729 -0.3110 -0.6580
 8100SOL    HW131158   7.507   3.724   7.907  1.7207  0.4275  0.5207
 8100SOL    HW231159   7.523   3.581   7.859  3.0970  1.3597 -2.0182
 8101SOL     OW31160   7.883   1.620   3.187 -0.2349 -0.1383  0.4209
 8101SOL    HW131161   7.922   1.534   3.172 -2.7718 -1.0738 -1.6132
 8101SOL    HW231162   7.852   1.617   3.277 -0.6661 -1.5860  0.2544
 8102SOL     OW31163   8.773   9.752   7.444 -0.2500  0.0330  0.2628
 8102SOL    HW131164   8.797   9.843   7.432 -1.2751  0.3956  0.8767
 8102SOL    HW231165   8.855   9.704   7.431  0.2858  1.0229 -0.1204
 8103SOL     OW31166  11.374   9.341  10.798  0.2656 -0.0277 -0.1788
 8103SOL    HW131167  11.296   9.349  10.743 -0.9008 -1.5682  1.1472
 8103SOL    HW231168  11.340   9.324  10.886  2.0842 -1.2939  0.3451
 8104SOL     OW31169   6.007   8.719   1.275  0.1010  0.0873  0.1556
 8104SOL    HW131170   6.092   8.719   1.320 -0.6175 -0.9302  1.5404
 8104SOL    HW231171   6.024   8.770   1.195  1.2068  2.6909  1.9073
 8105SOL     OW31172   7.284   2.412   1.803 -0.2302  0.6490  0.0364
 8105SOL    HW131173   7.254   2.342   1.860 -1.2230 -0.9998 -2.3675
 8105SOL    HW231174   7.378   2.418   1.821 -0.2556 -0.7785  0.8119
 8106SOL     OW31175   9.680  11.491  11.640 -0.2974  0.1885 -0.5694
 8106SOL    HW131176   9.693  11.581  11.673 -0.0791 -0.2136  0.4956
 8106SOL    HW231177   9.762  11.471  11.595 -0.6983  0.8449 -1.6160
 8107SOL     OW31178   6.517   6.416   9.783  0.2450 -0.1622 -0.4939
 8107SOL    HW131179   6.545   6.503   9.813 -2.3138  0.5850 -0.0668
 8107SOL    HW231180   6.531   6.418   9.688 -0.3231  0.9612 -0.5733
 8108SOL     OW31181   1.390   7.748   2.920 -0.6697 -0.2790 -0.3266
 8108SOL    HW131182   1.342   7.776   2.998 -0.9886  0.1260 -0.6624
 8108SOL    HW231183   1.396   7.827   2.866  0.9556 -0.1461 -0.0002
 8109SOL     OW31184  10.713   6.456   0.248  0.7392 -0.5919  1.0386
 8109SOL    HW131185  10.723   6.515   0.174 -3.0705 -0.6612  0.2403
 8109SOL    HW231186  10.693   6.513   0.322  0.2001 -0.6881  0.9757
 8110SOL     OW31187   5.549  12.153   4.069  0.3852  0.5883  0.0429
 8110SOL    HW131188   5.540  12.132   4.162  1.4877 -1.2703 -0.2109
 8110SOL    HW231189   5.460  12.144   4.034  0.0158  0.9788  0.8559
 8111SOL     OW31190   0.823   4.688   5.548 -0.2150 -0.1996  0.0854
 8111SOL    HW131191   0.807   4.748   5.475 -2.4709  1.0755  1.5302
 8111SOL    HW231192   0.918   4.690   5.560 -0.0428  1.5418 -1.1726
 8112SOL     OW31193   2.263   3.493   7.611  0.4911 -0.7285 -0.4429
 8112SOL    HW131194   2.298   3.470   7.525 -0.6096  1.0757 -1.4584
 8112SOL    HW231195   2.182   3.541   7.592  0.8368  0.8028  1.5301
 8113SOL     OW31196   3.572   5.930   7.796  0.1594 -0.1875  0.5699
 8113SOL    HW131197   3.477   5.932   7.784  0.1094 -1.3992  0.6590
 8113SOL    HW231198   3.607   5.896   7.714  0.3680 -1.4288  1.1466
 8114SOL     OW31199   4.238   4.615   7.870 -0.6141  0.1905 -0.3599
 8114SOL    HW131200   4.143   4.605   7.863 -0.5907 -2.0899  1.4625
 8114SOL    HW231201   4.273   4.548   7.811 -0.2075 -0.7257  0.8895
 8115SOL     OW31202  12.368   4.620   8.708 -0.4623  0.0005  0.3411
 8115SOL    HW131203  12.444   4.566   8.729 -1.7158 -2.4980 -1.1556
 8115SOL    HW231204  12.340   4.656   8.792  1.2744 -0.5174  1.1792
 8116SOL     OW31205   6.154   8.073   9.279 -0.2557  0.4458 -0.4221
 8116SOL    HW131206   6.143   8.085   9.185 -1.9567  0.9384 -0.2019
 8116SOL    HW231207   6.243   8.040   9.290 -0.2502 -0.2363 -2.2588
 8117SOL     OW31208  11.372   6.335   9.761 -0.4741 -0.1192 -0.3857
 8117SOL    HW131209  11.315   6.410   9.775 -1.6155 -1.2312  1.2221
 8117SOL    HW231210  11.455   6.373   9.730 -1.0387  1.7666  0.3040
 8118SOL     OW31211   6.654   5.629   3.915 -0.2483  0.1822 -0.1914
 8118SOL    HW131212   6.716   5.556   3.924 -0.9122 -0.4916 -1.0372
 8118SOL    HW231213   6.709   5.707   3.921  0.5351 -0.3816  0.2202
 8119SOL     OW31214  11.179   7.567  12.110 -0.0939  0.0199 -0.1131
 8119SOL    HW131215  11.211   7.519  12.033  0.7169 -0.3376  0.4342
 8119SOL    HW231216  11.149   7.499  12.170 -0.5118  0.2879 -0.0105
 8120SOL     OW31217   1.378   6.129   6.510 -0.3849  0.2204 -0.4598
 8120SOL    HW131218   1.313   6.194   6.539 -1.3273 -1.2095  0.8572
 8120SOL    HW231219   1.446   6.180   6.467 -1.1141  2.0697  0.4574
 8121SOL     OW31220   4.811  11.150   3.886 -0.0451  0.3376  0.0856
 8121SOL    HW131221   4.853  11.088   3.825 -0.3833  0.5389 -0.3587
 8121SOL    HW231222   4.763  11.095   3.947  1.3121  0.0762  0.9436
 8122SOL     OW31223  10.467  10.264   1.969  0.1089 -0.1933  0.0219
 8122SOL    HW131224  10.526  10.310   1.909 -1.2450 -0.5845 -1.6908
 8122SOL    HW231225  10.496  10.173   1.967  0.2554 -0.1550  0.2389
 8123SOL     OW31226  10.531   2.909   2.783 -0.0560  0.1887  0.1555
 8123SOL    HW131227  10.498   2.862   2.706  2.5739  1.4132 -1.9266
 8123SOL    HW231228  10.596   2.850   2.821 -1.1456 -0.2923  1.3148
 8124SOL     OW31229  10.095   6.652   5.926  0.3701  0.3911  0.5308
 8124SOL    HW131230  10.058   6.740   5.933  2.1157  1.2150 -0.0239
 8124SOL    HW231231  10.101   6.635   5.832  0.5991 -0.0641  0.6222
 8125SOL     OW31232   2.812   8.850   0.887  0.3341 -0.4311 -0.1335
 8125SOL    HW131233   2.794   8.765   0.928  1.6325 -1.7493 -2.1155
 8125SOL    HW231234   2.754   8.852   0.810  0.6934  0.2302 -0.3984
 8126SOL     OW31235   2.816   0.961   7.910 -0.1500  0.4737 -0.5674
 8126SOL    HW131236   2.828   1.033   7.972  0.2749 -1.2171  1.3970
 8126SOL    HW231237   2.898   0.958   7.860  0.0406  0.9979 -0.2910
 8127SOL     OW31238   1.971   8.630   9.618 -0.3360  0.0178  0.4726
 8127SOL    HW131239   1.970   8.608   9.712  0.0747 -0.8573  0.2892
 8127SOL    HW231240   1.909   8.569   9.578 -1.1007  0.9157  0.2700
 8128SOL     OW31241   5.054   1.836   5.996 -0.0788 -0.2920 -0.2273
 8128SOL    HW131242   5.023   1.838   6.087 -0.6016 -0.3215 -0.4033
 8128SOL    HW231243   4.987   1.884   5.947 -0.1827 -0.9325 -0.7179
 8129SOL     OW31244   8.643  12.425   4.216  0.3662 -0.5072  0.0001
 8129SOL    HW131245   8.719  12.374   4.246  0.0802 -0.5572  0.6571
 8129SOL    HW231246   8.677  12.477   4.143  1.2654  0.1244  0.8391
 8130SOL     OW31247   9.475   3.575   3.558 -0.3001 -0.3088  0.5135
 8130SOL    HW131248   9.387   3.547   3.532 -0.3837 -0.5854  1.0670
 8130SOL    HW231249   9.532   3.548   3.486 -0.9684  1.8940 -0.9239
 8131SOL     OW31250   9.720   7.422   3.120  0.1198  0.2634  0.1695
 8131SOL    HW131251   9.645   7.480   3.129  1.0208  1.9548 -2.0915
 8131SOL    HW231252   9.769   7.432   3.202 -0.4263  1.7252  0.3404
 8132SOL     OW31253   0.859   4.772   6.379  0.8208 -0.2460 -0.2348
 8132SOL    HW131254   0.792   4.823   6.333 -0.0737  0.4272  1.6796
 8132SOL    HW231255   0.935   4.830   6.382  0.8575 -0.2625 -0.7819
 8133SOL     OW31256   9.209   1.591   4.314 -0.6796  0.4287  0.5233
 8133SOL    HW131257   9.243   1.501   4.313 -0.2807  0.5764  0.4633
 8133SOL    HW231258   9.285   1.645   4.290 -1.0696  0.7288 -0.0499
 8134SOL     OW31259   1.256   5.414   7.350  0.5558 -0.2390 -0.0052
 8134SOL    HW131260   1.347   5.430   7.326  0.6149 -0.7820 -0.1795
 8134SOL    HW231261   1.206   5.479   7.302  0.9283  0.7358  0.8987
 8135SOL     OW31262   2.100   4.038  11.052  0.4709  0.0317  0.5385
 8135SOL    HW131263   2.015   4.079  11.066  1.3580  1.4108  2.3619
 8135SOL    HW231264   2.081   3.944  11.043 -1.3016  0.4303 -0.1960
 8136SOL     OW31265   5.464   4.818   7.347 -0.4412 -0.2123  0.7092
 8136SOL    HW131266   5.512   4.736   7.358 -2.7550 -1.5194  1.8549
 8136SOL    HW231267   5.510   4.880   7.403  0.8352 -0.9391  0.5098
 8137SOL     OW31268   8.182  12.469   9.031 -0.5535 -0.6630 -0.0296
 8137SOL    HW131269   8.232  12.410   8.976  0.8418 -1.4895  2.0114
 8137SOL    HW231270   8.113  12.415   9.069 -0.8689 -0.3476 -0.1437
 8138SOL     OW31271   9.862  10.180   5.220  0.4230  0.0792  0.6593
 8138SOL    HW131272   9.787  10.219   5.173 -1.8395 -1.4812  2.7530
 8138SOL    HW231273   9.908  10.130   5.153 -2.0495 -1.1700 -0.2434
 8139SOL     OW31274   7.268   6.684   1.180  0.0959 -0.8394  0.3635
 8139SOL    HW131275   7.327   6.619   1.139  0.6375 -0.5858  0.7259
 8139SOL    HW231276   7.264   6.658   1.272  2.4369  1.0894  1.1385
 8140SOL     OW31277   2.301   1.403   9.300  0.2908 -0.6307 -0.1090
 8140SOL    HW131278   2.243   1.335   9.333 -0.7717  1.2892  2.2491
 8140SOL    HW231279   2.243   1.475   9.274  1.4031  1.5785  2.8551
 8141SOL     OW31280  11.431   5.832  11.981 -0.4917  0.0860 -0.7332
 8141SOL    HW131281  11.519   5.837  11.944 -0.3550  0.4083 -0.3578
 8141SOL    HW231282  11.398   5.922  11.978 -0.2769  0.2121  0.4401
 8142SOL     OW31283   5.277  10.404   4.608 -0.2488  0.0244  0.3378
 8142SOL    HW131284   5.204  10.342   4.605 -0.7587  0.5799  1.0548
 8142SOL    HW231285   5.258  10.466   4.538  0.3980 -0.7537 -0.5559
 8143SOL     OW31286  11.207  10.245  10.572  0.1900 -0.0096  0.6818
 8143SOL    HW131287  11.233  10.282  10.488 -0.3023 -0.1682  0.4581
 8143SOL    HW231288  11.113  10.233  10.565  0.3330 -1.3306  0.7362
 8144SOL     OW31289   4.390   2.815   5.588 -0.0560  0.0221 -0.0723
 8144SOL    HW131290   4.469   2.856   5.553 -0.0859 -0.1314 -0.3219
 8144SOL    HW231291   4.410   2.797   5.680 -0.5077  1.8319  0.4292
 8145SOL     OW31292   4.283   3.441   4.887 -0.1559  0.1422 -0.8156
 8145SOL    HW131293   4.195   3.479   4.883  0.6604  2.1476 -0.4709
 8145SOL    HW231294   4.280   3.383   4.963 -0.5265  2.0009  0.6389
 8146SOL     OW31295   6.648   8.000   9.334 -0.1976  0.0922 -0.1862
 8146SOL    HW131296   6.639   7.926   9.274 -0.2613  1.0716 -1.4282
 8146SOL    HW231297   6.716   8.055   9.295  0.3052  0.3920  1.0488
 8147SOL     OW31298   3.011   6.658  11.885 -0.1832 -0.3258 -0.6046
 8147SOL    HW131299   2.955   6.581  11.883 -0.4978 -0.0977 -0.6627
 8147SOL    HW231300   2.951   6.732  11.870 -0.2901  0.1634  1.8184
 8148SOL     OW31301  10.078   2.404   3.213  0.1253  0.8000 -0.2124
 8148SOL    HW131302  10.089   2.339   3.144  2.4679  0.9461 -0.0505
 8148SOL    HW231303  10.074   2.487   3.167  0.1019  0.7733 -0.2589
 8149SOL     OW31304   0.356   0.718  10.852  0.1507 -0.2414 -0.4846
 8149SOL    HW131305   0.279   0.726  10.908  0.8958 -1.9099  0.8867
 8149SOL    HW231306   0.331   0.655  10.785  1.0211 -2.8635  1.4830
 8150SOL     OW31307   7.167   3.044   9.258 -0.3355 -0.0162  0.0010
 8150SOL    HW131308   7.194   2.988   9.331 -0.4981  0.1121  0.1606
 8150SOL    HW231309   7.250   3.078   9.223 -0.3074  2.1076  1.8415
 8151SOL     OW31310  10.955   6.427   6.053 -0.4227 -0.4460  0.0543
 8151SOL    HW131311  11.024   6.487   6.026  1.5563 -2.7460 -0.3069
 8151SOL    HW231312  10.889   6.433   5.984 -0.6692  1.7893  0.4067
 8152SOL     OW31313   9.853   3.369   0.285 -0.4225  0.4485 -0.0260
 8152SOL    HW131314   9.948   3.362   0.277  0.0322 -0.7940  4.1818
 8152SOL    HW231315   9.834   3.461   0.266  1.5235  0.6587 -1.2592
 8153SOL     OW31316  10.926   6.926   7.301 -0.3651  0.4290  0.9008
 8153SOL    HW131317  10.838   6.891   7.284  0.4512 -0.8879 -0.9352
 8153SOL    HW231318  10.944   6.982   7.225  1.4665 -1.6343 -0.3031
 8154SOL     OW31319   2.931   1.967   3.379  0.2219 -0.4437  0.4428
 8154SOL    HW131320   2.852   1.930   3.417  1.3294 -1.8131  1.5084
 8154SOL    HW231321   2.961   2.032   3.443  0.6123 -0.7898  0.6101
 8155SOL     OW31322  11.081  12.151   0.661  0.1193 -0.0715 -0.8399
 8155SOL    HW131323  11.036  12.235   0.660 -0.6476 -0.3436  1.8386
 8155SOL    HW231324  11.019  12.090   0.620  0.2834  0.4685 -1.9180
 8156SOL     OW31325   9.154  11.896   9.112 -0.0907  0.2762 -0.0734
 8156SOL    HW131326   9.201  11.825   9.068  1.9956  0.4116  1.7316
 8156SOL    HW231327   9.218  11.966   9.119 -1.8231  2.0392 -0.9751
 8157SOL     OW31328  10.437   8.491   2.585  0.2958  0.0504 -0.3046
 8157SOL    HW131329  10.467   8.431   2.654  0.5188  0.6908  0.1643
 8157SOL    HW231330  10.399   8.434   2.519  0.0204 -0.5778  0.3805
 8158SOL     OW31331   5.360   2.468   0.121  0.4404 -0.2322  0.5842
 8158SOL    HW131332   5.358   2.523   0.199  1.5687 -1.1477  1.2908
 8158SOL    HW231333   5.396   2.385   0.152  0.2922 -0.8228 -0.7891
 8159SOL     OW31334   4.954   7.933   4.470  0.1533  0.5265  0.5201
 8159SOL    HW131335   4.957   7.995   4.542  1.2680 -0.4894  1.3975
 8159SOL    HW231336   4.929   7.850   4.511 -1.1007  0.3234 -0.5859
 8160SOL     OW31337   4.481   3.209   2.681  0.1322 -0.3431 -0.2081
 8160SOL    HW131338   4.488   3.140   2.615 -0.7758  1.1888 -2.0251
 8160SOL    HW231339   4.386   3.220   2.694  0.2835  0.0422  0.6479
 8161SOL     OW31340   1.955   0.259  12.343  0.4134  0.7856 -0.4880
 8161SOL    HW131341   1.933   0.332  12.286 -1.1859  0.9178  0.2525
 8161SOL    HW231342   1.873   0.211  12.353  0.3605  1.3041  2.4507
 8162SOL     OW31343   6.125   3.147  12.204  0.1781 -0.6355 -0.1840
 8162SOL    HW131344   6.138   3.198  12.124 -1.4066  0.1791  0.0413
 8162SOL    HW231345   6.167   3.063  12.186  1.4742  0.1744 -1.1566
 8163SOL     OW31346   2.882   9.215   2.362  0.0120  0.1587 -0.2760
 8163SOL    HW131347   2.939   9.228   2.286  0.1152 -2.3631 -0.7179
 8163SOL    HW231348   2.817   9.152   2.332 -2.3522  2.0319  0.6015
 8164SOL     OW31349   4.999   9.784   9.638 -0.2683  0.5079  0.1991
 8164SOL    HW131350   4.963   9.749   9.556 -0.1717 -0.8830  0.7122
 8164SOL    HW231351   4.925   9.782   9.699  0.4840 -2.0099  1.1545
 8165SOL     OW31352   4.217   4.827   5.194 -0.3153 -0.2043 -0.2244
 8165SOL    HW131353   4.129   4.798   5.217 -0.0105  0.1439  1.4808
 8165SOL    HW231354   4.265   4.746   5.178 -1.2175 -0.3765 -2.4401
 8166SOL     OW31355   9.671   6.166   5.136 -0.0736 -0.0614  0.5621
 8166SOL    HW131356   9.707   6.144   5.050  1.4022  2.4233  0.4480
 8166SOL    HW231357   9.748   6.183   5.191 -1.0110  1.7524  1.4012
 8167SOL     OW31358   6.697  12.116  12.259 -0.1137 -0.0761  0.2315
 8167SOL    HW131359   6.692  12.203  12.220 -1.4659 -0.2992 -0.1412
 8167SOL    HW231360   6.790  12.093  12.254  0.1743  1.1119 -0.1770
 8168SOL     OW31361   4.285   9.237   1.093  0.8280  0.8827  0.0023
 8168SOL    HW131362   4.378   9.260   1.103  1.2016 -0.5761  0.1887
 8168SOL    HW231363   4.238   9.319   1.110  2.1322  2.1718 -2.1179
 8169SOL     OW31364  12.207  11.335   0.329  0.5569 -0.3448 -0.4485
 8169SOL    HW131365  12.287  11.285   0.341  0.1014 -0.9898  0.0035
 8169SOL    HW231366  12.197  11.384   0.411  0.4247 -0.3609 -0.4545
 8170SOL     OW31367   6.322   7.565   3.462  0.3879 -0.2532  0.2513
 8170SOL    HW131368   6.322   7.575   3.367  3.3474 -1.1110  0.0818
 8170SOL    HW231369   6.254   7.626   3.492 -0.1480  0.5611 -2.3426
 8171SOL     OW31370   6.160   1.551   1.527  0.0335 -0.2725  0.0623
 8171SOL    HW131371   6.218   1.504   1.586 -0.3808  0.3562  1.0004
 8171SOL    HW231372   6.177   1.513   1.441  1.3454 -0.5497  0.4231
 8172SOL     OW31373  10.798   3.959   6.241  0.0834  0.2683 -0.4318
 8172SOL    HW131374  10.867   3.908   6.199  1.8022  1.5092  0.7383
 8172SOL    HW231375  10.728   3.896   6.257 -0.0222 -0.5875 -3.5891
 8173SOL     OW31376   1.394   5.592   5.034 -0.5837 -0.5329  0.2699
 8173SOL    HW131377   1.349   5.508   5.042  1.4803 -1.5789  2.0338
 8173SOL    HW231378   1.461   5.590   5.103 -0.7740  2.7864  0.6992
 8174SOL     OW31379   2.858   1.663  11.238 -0.2306  0.1524  0.0774
 8174SOL    HW131380   2.819   1.669  11.151  0.5079 -0.0812 -0.2829
 8174SOL    HW231381   2.814   1.731  11.289 -1.2740 -0.2748 -0.2334
 8175SOL     OW31382  12.241   3.748   3.055  0.2241  0.4388  0.0335
 8175SOL    HW131383  12.160   3.698   3.045  0.7524 -0.1604 -1.6159
 8175SOL    HW231384  12.302   3.687   3.096 -0.3747  1.1750  2.1264
 8176SOL     OW31385   5.294   3.906   4.631 -0.0327 -0.1176 -0.2065
 8176SOL    HW131386   5.312   3.843   4.561 -2.3524 -0.4392 -0.6073
 8176SOL    HW231387   5.352   3.980   4.612 -1.0917  0.1426 -2.9840
 8177SOL     OW31388   9.738   2.367   5.382 -0.3173 -0.3918 -0.0567
 8177SOL    HW131389   9.645   2.380   5.365  0.0972  0.3467 -2.0841
 8177SOL    HW231390   9.782   2.411   5.309  1.6334 -0.5190  0.9758
 8178SOL     OW31391  12.513  11.219   9.548  0.2497  0.1525  0.9340
 8178SOL    HW131392  12.485  11.132   9.519  0.5878  0.6989 -1.2678
 8178SOL    HW231393  12.580  11.245   9.484 -1.4115  2.9200  0.1386
 8179SOL     OW31394   1.906  12.334  10.719  0.4061  0.0092  0.0353
 8179SOL    HW131395   1.996  12.361  10.697 -0.0300  0.0415 -1.8465
 8179SOL    HW231396   1.887  12.263  10.658 -0.8080 -0.0994  0.5182
 8180SOL     OW31397  10.790   9.134   4.480 -0.2790  0.1228  0.1168
 8180SOL    HW131398  10.868   9.085   4.505  0.5787  1.9666  1.2605
 8180SOL    HW231399  10.740   9.073   4.427 -0.5980 -2.9732  3.5696
 8181SOL     OW31400  10.807   3.836   8.263 -0.2531  0.3777  0.2106
 8181SOL    HW131401  10.837   3.889   8.189  1.4563 -1.2342 -0.3234
 8181SOL    HW231402  10.755   3.766   8.223 -0.0677 -0.0022  0.6236
 8182SOL     OW31403   8.339   7.959   6.630 -0.1535 -0.3986  0.7047
 8182SOL    HW131404   8.423   7.915   6.616 -0.9352 -2.0542  0.9231
 8182SOL    HW231405   8.292   7.946   6.548  0.0779  1.2266  0.2929
 8183SOL     OW31406   6.632   9.840   9.141  0.1158 -0.2627 -0.4990
 8183SOL    HW131407   6.723   9.853   9.112  0.6415  0.5962  1.3991
 8183SOL    HW231408   6.579   9.869   9.066  1.4077  1.9626 -0.6355
 8184SOL     OW31409   6.398   7.841   7.287  0.3036 -0.1312  0.4113
 8184SOL    HW131410   6.315   7.795   7.295  1.4495 -2.5746 -0.5696
 8184SOL    HW231411   6.434   7.811   7.204  0.2893  4.2658 -1.4453
 8185SOL     OW31412   9.508   8.271   5.469  0.5688 -0.1837 -0.2777
 8185SOL    HW131413   9.526   8.249   5.560  0.7917 -0.3209 -0.3536
 8185SOL    HW231414   9.543   8.359   5.458  0.1584  0.0001 -0.1162
 8186SOL     OW31415   4.399   8.262   2.548 -0.3427  0.0248  0.4944
 8186SOL    HW131416   4.401   8.167   2.561 -1.0295  0.0325  0.6658
 8186SOL    HW231417   4.490   8.284   2.528 -0.3665 -0.8486 -0.7551
 8187SOL     OW31418   1.125   9.583   3.729  0.9578  0.5489 -0.3755
 8187SOL    HW131419   1.158   9.558   3.815  0.3734  0.8320 -0.0630
 8187SOL    HW231420   1.149   9.675   3.720  1.6689  0.3216 -0.8322
 8188SOL     OW31421   8.762   1.614   8.860  0.4777  0.2644 -0.1186
 8188SOL    HW131422   8.777   1.613   8.954 -0.8445  0.6612  0.1236
 8188SOL    HW231423   8.667   1.600   8.851  0.8699 -2.0059 -1.4877
 8189SOL     OW31424   1.552   8.419  12.312  0.2437 -0.1215 -0.3444
 8189SOL    HW131425   1.493   8.484  12.351  1.2847 -0.1022  1.2964
 8189SOL    HW231426   1.632   8.468  12.293  0.6929 -0.7007  0.0049
 8190SOL     OW31427   3.938   8.308   8.015  0.0985  0.2186  0.3955
 8190SOL    HW131428   4.033   8.312   8.000  0.0577 -1.4716 -0.5061
 8190SOL    HW231429   3.928   8.326   8.108  1.3236  0.3246  0.5216
 8191SOL     OW31430  12.109   2.301   3.615  0.0667  0.2081 -0.3542
 8191SOL    HW131431  12.049   2.246   3.566  0.6676 -0.2721 -0.5718
 8191SOL    HW231432  12.054   2.355   3.671 -0.5294 -0.5775 -0.1783
 8192SOL     OW31433   0.985   8.597   0.488  0.0761 -0.0652  0.0768
 8192SOL    HW131434   1.024   8.665   0.432 -1.7194  1.7577  0.8982
 8192SOL    HW231435   0.931   8.545   0.428 -1.2470  1.4126 -0.0810
 8193SOL     OW31436   7.971   3.431   2.403 -0.0097 -0.9275  0.1320
 8193SOL    HW131437   8.028   3.402   2.475  0.3204 -0.9271 -0.1274
 8193SOL    HW231438   8.031   3.454   2.332 -0.2608  0.4668  0.3472
 8194SOL     OW31439   9.713   4.399   8.476  0.1635 -0.3466 -0.0254
 8194SOL    HW131440   9.619   4.385   8.461  0.1061  0.4631 -0.4636
 8194SOL    HW231441   9.717   4.448   8.558  0.2926 -1.6633  0.7784
 8195SOL     OW31442   4.266   0.501   7.996  0.5008  0.1092 -0.5727
 8195SOL    HW131443   4.328   0.500   7.924 -1.2342 -0.0028 -2.1502
 8195SOL    HW231444   4.267   0.411   8.030  1.0299  0.0515 -0.7446
 8196SOL     OW31445   6.298   4.626  11.427 -0.4982 -0.8773 -0.2536
 8196SOL    HW131446   6.371   4.627  11.489 -0.6485  1.1201 -0.0591
 8196SOL    HW231447   6.305   4.709  11.381 -2.2666 -0.9501 -0.7031
 8197SOL     OW31448   4.346   4.213   7.803 -0.0444  0.2563 -0.2665
 8197SOL    HW131449   4.287   4.218   7.878  0.7056 -0.5286  0.4072
 8197SOL    HW231450   4.406   4.141   7.825  0.3377  0.1769 -1.5135
 8198SOL     OW31451   5.897   5.949   5.193  0.1418  0.2911 -0.2874
 8198SOL    HW131452   5.956   5.910   5.128 -0.6500 -1.4520 -0.0113
 8198SOL    HW231453   5.946   5.945   5.275  0.5148  0.9843 -0.4714
 8199SOL     OW31454   6.410   2.305   1.680 -0.3208  0.1743 -0.2228
 8199SOL    HW131455   6.413   2.390   1.724  3.3208  0.3179 -0.3973
 8199SOL    HW231456   6.395   2.326   1.588 -0.7990  0.5021 -0.0703
 8200SOL     OW31457   6.223   5.521   7.211 -0.2811  0.3813  0.0352
 8200SOL    HW131458   6.180   5.513   7.296 -0.0445 -0.1600  0.1083
 8200SOL    HW231459   6.305   5.568   7.230 -0.5071  0.7914  0.0069
 8201SOL     OW31460   8.052   1.223  11.555 -0.2991 -0.0123 -0.2837
 8201SOL    HW131461   7.977   1.180  11.596 -0.6093 -0.2455 -1.0734
 8201SOL    HW231462   8.121   1.222  11.622 -0.8692 -0.1509  0.3098
 8202SOL     OW31463   9.530  10.915   4.317  0.6489 -0.0712 -0.4034
 8202SOL    HW131464   9.539  10.830   4.274 -1.5866 -1.0779  0.9124
 8202SOL    HW231465   9.448  10.908   4.367  2.0191  1.7156  2.3435
 8203SOL     OW31466   6.321   2.604   4.383  0.1556  0.2740 -0.5647
 8203SOL    HW131467   6.247   2.644   4.428  1.1880  2.0082 -0.2882
 8203SOL    HW231468   6.289   2.519   4.354 -0.8958 -0.4531  2.4251
 8204SOL     OW31469   8.678   1.255   3.481  0.1327 -0.2273  0.1100
 8204SOL    HW131470   8.708   1.253   3.390  0.5906 -0.6736  0.2638
 8204SOL    HW231471   8.660   1.163   3.502 -2.0916  0.0831 -0.2055
 8205SOL     OW31472   3.703   1.398  10.160  0.2343  0.3973  0.1062
 8205SOL    HW131473   3.748   1.473  10.121  1.9084  0.1047  1.3630
 8205SOL    HW231474   3.764   1.324  10.148 -0.2142 -0.1786  1.2262
 8206SOL     OW31475   2.323   7.854   7.729  0.1121 -0.2428 -0.2730
 8206SOL    HW131476   2.332   7.917   7.658 -2.7963 -0.2272 -0.7408
 8206SOL    HW231477   2.361   7.774   7.695 -0.2151  0.0707 -1.4208
 8207SOL     OW31478   0.299   7.073   2.071 -0.2592 -0.3358 -0.1903
 8207SOL    HW131479   0.365   7.119   2.019 -1.1849  0.6125 -0.5690
 8207SOL    HW231480   0.289   7.127   2.150  0.8082 -1.5229  0.8165
 8208SOL     OW31481  12.164   7.010   2.696  0.0711  0.2916  0.2377
 8208SOL    HW131482  12.177   6.918   2.722  0.9559  0.4987  0.5791
 8208SOL    HW231483  12.072   7.015   2.672  0.7587 -1.6598 -3.6968
 8209SOL     OW31484  11.094  11.766  10.410  0.0821  0.4176 -0.3226
 8209SOL    HW131485  11.050  11.798  10.331  1.4147 -1.5405 -1.9812
 8209SOL    HW231486  11.185  11.755  10.383  0.5526 -0.4397  1.4665
 8210SOL     OW31487  10.607   2.097  11.926  0.2186  0.1636  0.1554
 8210SOL    HW131488  10.584   2.004  11.928  0.3649  0.0120 -1.9952
 8210SOL    HW231489  10.703   2.098  11.930  0.3125  0.0745 -1.4150
 8211SOL     OW31490   4.919   8.636   5.266 -0.3577 -0.2655 -0.1901
 8211SOL    HW131491   4.921   8.642   5.170  0.4898 -1.7518 -0.3106
 8211SOL    HW231492   4.827   8.639   5.289 -0.5313  0.9555 -0.9746
 8212SOL     OW31493   2.530  10.030   3.079  0.1323 -0.1513 -0.1644
 8212SOL    HW131494   2.499  10.014   2.990  1.4024  0.2436 -0.7003
 8212SOL    HW231495   2.625  10.017   3.074  0.3728  1.0147  0.8548
 8213SOL     OW31496  12.283  10.966   1.702  0.4865 -0.4007  0.7619
 8213SOL    HW131497  12.350  11.021   1.663  0.5945  0.0053  1.4951
 8213SOL    HW231498  12.305  10.877   1.674  1.0869 -0.2228  0.6597
 8214SOL     OW31499   3.648   3.015   0.208 -0.0958  0.1687 -0.3706
 8214SOL    HW131500   3.728   3.065   0.196  0.1428  0.8685  3.0832
 8214SOL    HW231501   3.673   2.925   0.185  1.0947  0.6645 -1.1523
 8215SOL     OW31502   8.184   3.761   2.204  0.2200  0.6114 -0.0645
 8215SOL    HW131503   8.125   3.821   2.249 -0.0832  0.5926 -0.4353
 8215SOL    HW231504   8.219   3.705   2.274  0.6592  1.3429  0.3067
 8216SOL     OW31505   4.843   1.603   4.738  0.4074  0.1229 -0.0867
 8216SOL    HW131506   4.885   1.680   4.774 -0.0239 -0.2856  1.3457
 8216SOL    HW231507   4.750   1.613   4.761 -0.3256  0.8933 -2.9557
 8217SOL     OW31508   9.297   4.793   2.746  0.1729 -0.4322  0.1100
 8217SOL    HW131509   9.236   4.720   2.734 -1.0330  0.5847 -0.1471
 8217SOL    HW231510   9.241   4.868   2.766  1.4630  0.2167  1.4269
 8218SOL     OW31511  10.105   6.108   5.701  0.2679  0.2000 -0.1275
 8218SOL    HW131512  10.138   6.029   5.658  0.3588 -1.0745  2.1511
 8218SOL    HW231513  10.183   6.153   5.731  0.2086  1.1506 -1.3140
 8219SOL     OW31514  10.476   5.961  12.362  0.3436 -0.1787 -0.2594
 8219SOL    HW131515  10.441   6.019  12.295  1.5290 -0.1503 -0.8925
 8219SOL    HW231516  10.539   5.906  12.315 -0.0103 -1.2720  0.5282
 8220SOL     OW31517   3.495  10.302   6.000 -0.0521  0.2540 -0.1700
 8220SOL    HW131518   3.488  10.228   5.941 -0.7780  1.8259 -2.1648
 8220SOL    HW231519   3.513  10.377   5.943  1.5783  1.5076  1.8460
 8221SOL     OW31520   8.604   0.733   8.712 -0.2119 -0.0235  0.2323
 8221SOL    HW131521   8.513   0.747   8.739 -1.0756 -1.5956 -1.5536
 8221SOL    HW231522   8.605   0.757   8.619  1.1851 -0.0812  0.2136
 8222SOL     OW31523   3.842   2.055   1.493  0.3601 -0.3730  0.3833
 8222SOL    HW131524   3.816   2.133   1.443 -2.1878 -1.8294 -0.7597
 8222SOL    HW231525   3.821   2.076   1.584  1.0260  0.7450  0.3018
 8223SOL     OW31526  10.545   9.117   0.083  0.5416 -0.0141 -0.1504
 8223SOL    HW131527  10.551   9.051   0.152  1.1194 -1.2684 -1.3506
 8223SOL    HW231528  10.551   9.067   0.001  0.3122  1.4667 -1.1106
 8224SOL     OW31529  10.172  12.234   3.654 -0.2919 -0.2125  0.2228
 8224SOL    HW131530  10.188  12.195   3.568 -0.9414 -0.9906  0.4330
 8224SOL    HW231531  10.079  12.218   3.670 -0.3166  0.4622  0.8124
 8225SOL     OW31532   7.720   1.852   1.996  0.1260 -0.4055 -0.3152
 8225SOL    HW131533   7.624   1.859   1.997  0.1676  0.5796 -1.1550
 8225SOL    HW231534   7.741   1.836   1.904  0.8213  0.3849 -0.3001
 8226SOL     OW31535  11.002   9.716   4.167 -0.2751 -0.0653  0.2762
 8226SOL    HW131536  11.027   9.628   4.139 -1.0621 -0.5281  0.9942
 8226SOL    HW231537  11.078   9.771   4.144  0.7780 -1.1544  1.0343
 8227SOL     OW31538   5.315   2.754   2.488  0.0849  0.5768 -0.8242
 8227SOL    HW131539   5.395   2.701   2.484  0.8763  1.6736  0.0483
 8227SOL    HW231540   5.263   2.723   2.414  0.4435 -1.5294 -0.2593
 8228SOL     OW31541   8.550   5.387   8.084  0.7792  0.7064 -0.5945
 8228SOL    HW131542   8.599   5.406   8.164 -1.1714  0.6444  0.6573
 8228SOL    HW231543   8.582   5.453   8.021  3.0874  0.1040 -0.1516
 8229SOL     OW31544   5.861   4.261  10.059 -0.1144  0.1240  0.2343
 8229SOL    HW131545   5.778   4.305  10.082  1.1748  2.7969  0.2079
 8229SOL    HW231546   5.890   4.306   9.980  1.3355 -0.8184  0.2029
 8230SOL     OW31547   9.422   8.945   5.712 -0.5283  0.7095 -0.1900
 8230SOL    HW131548   9.490   8.999   5.671 -0.0473  0.5417  0.3786
 8230SOL    HW231549   9.342   8.971   5.667 -0.1913  1.3633 -0.4375
 8231SOL     OW31550   8.678  11.118   1.706  0.1793 -0.5983 -0.0365
 8231SOL    HW131551   8.635  11.096   1.623  0.5930 -0.9553 -0.1641
 8231SOL    HW231552   8.756  11.063   1.707  2.3797  2.2386 -1.3206
 8232SOL     OW31553   0.551  11.689   4.552  0.6636  0.4099  0.3699
 8232SOL    HW131554   0.497  11.765   4.575  0.3734  0.2416  0.2573
 8232SOL    HW231555   0.623  11.725   4.501 -0.9806  0.3295 -2.1867
 8233SOL     OW31556   9.245   8.679   4.102 -0.3114  0.2335  0.0443
 8233SOL    HW131557   9.307   8.654   4.034  1.2262 -0.7750  1.7203
 8233SOL    HW231558   9.170   8.620   4.090  0.1530 -0.2615 -0.4673
 8234SOL     OW31559   5.551   8.868   1.139 -0.2271 -0.1836  0.3778
 8234SOL    HW131560   5.559   8.946   1.085 -0.4228 -0.6158 -0.2860
 8234SOL    HW231561   5.628   8.816   1.119 -0.6883 -0.7067 -0.0892
 8235SOL     OW31562   4.476   7.668   3.956 -0.7163 -0.7535  0.3880
 8235SOL    HW131563   4.455   7.714   4.037  0.1977 -1.1792  0.8845
 8235SOL    HW231564   4.497   7.738   3.894 -0.6079 -0.4441  0.7639
 8236SOL     OW31565   1.561   3.679   5.494 -0.5824  0.3142 -0.2700
 8236SOL    HW131566   1.645   3.726   5.488 -1.4379  1.7687 -1.8144
 8236SOL    HW231567   1.532   3.672   5.403 -2.1100 -0.2367  0.2387
 8237SOL     OW31568   0.709   9.957   3.047 -0.0201 -0.0066 -0.2038
 8237SOL    HW131569   0.699   9.906   2.966 -0.9505  2.4215 -1.7496
 8237SOL    HW231570   0.796   9.935   3.079  0.3200 -1.1537 -1.8117
 8238SOL     OW31571   7.660   4.348  10.394 -0.6292  0.1676 -0.0523
 8238SOL    HW131572   7.669   4.404  10.471 -1.3461 -1.4092  1.2145
 8238SOL    HW231573   7.705   4.267  10.416  2.3655  0.9097 -2.7023
 8239SOL     OW31574  10.862   9.051   3.391 -0.3138  0.2851  0.3361
 8239SOL    HW131575  10.883   8.964   3.423  0.7125  1.2222  2.3856
 8239SOL    HW231576  10.875   9.046   3.296  0.3402 -1.5876  0.4892
 8240SOL     OW31577   7.434   4.359   6.036 -0.2218 -0.1491 -0.4495
 8240SOL    HW131578   7.446   4.397   5.948 -0.9889  0.7390 -0.1835
 8240SOL    HW231579   7.466   4.427   6.096  0.2789 -0.7461 -0.0327
 8241SOL     OW31580  10.027   3.802   6.281 -0.2025 -0.7292 -0.4823
 8241SOL    HW131581   9.962   3.839   6.220 -0.0516  0.5788  0.1154
 8241SOL    HW231582  10.081   3.877   6.306 -1.1923 -0.8827  2.4225
 8242SOL     OW31583   1.932   0.918  10.347  0.6363  0.1300  0.7477
 8242SOL    HW131584   1.958   0.985  10.283 -1.0749  0.8795  0.7752
 8242SOL    HW231585   1.866   0.866  10.302  0.5439 -0.3129  1.3836
 8243SOL     OW31586   6.404   6.432   2.843 -0.3834  0.2074 -0.0063
 8243SOL    HW131587   6.452   6.402   2.921 -0.6056  0.9890  0.4450
 8243SOL    HW231588   6.472   6.461   2.782 -0.2417  0.4599  0.2692
 8244SOL     OW31589   2.242   9.070  12.012  0.6747  0.3739  0.2513
 8244SOL    HW131590   2.301   9.099  12.081  2.6703 -0.1896 -1.1014
 8244SOL    HW231591   2.215   9.150  11.967  1.0062  0.5944  0.4446
 8245SOL     OW31592   9.332   0.019   9.609 -0.1000  0.1010  0.3581
 8245SOL    HW131593   9.307  -0.037   9.682  0.2049  1.9042  1.9023
 8245SOL    HW231594   9.423  -0.006   9.591  0.2947  0.6176  1.5563
 8246SOL     OW31595  11.335   1.423  11.402  0.1428 -0.1954  0.3181
 8246SOL    HW131596  11.335   1.381  11.488  0.7794 -1.4273 -0.2495
 8246SOL    HW231597  11.412   1.480  11.403  0.6047 -0.8055  0.3013
 8247SOL     OW31598   0.131   1.335   0.785 -0.1630  0.2634 -1.1748
 8247SOL    HW131599   0.067   1.375   0.845  1.6912 -0.4963  1.5391
 8247SOL    HW231600   0.206   1.395   0.788  0.3871 -0.3771 -1.8277
 8248SOL     OW31601  11.946   8.074  11.949  0.1821  0.5159 -0.1948
 8248SOL    HW131602  11.950   8.063  11.854  0.9605 -3.3500  0.1207
 8248SOL    HW231603  12.035   8.057  11.978 -0.5041 -0.6557  1.3417
 8249SOL     OW31604   7.580   7.570  12.222 -0.2743 -0.4395 -0.2168
 8249SOL    HW131605   7.626   7.539  12.300 -0.7547 -0.1762  0.1722
 8249SOL    HW231606   7.527   7.495  12.194  0.6228 -0.8572 -0.8600
 8250SOL     OW31607   2.780   5.808   7.974 -0.7286 -0.2610  0.4430
 8250SOL    HW131608   2.869   5.814   8.009 -0.7008  1.2443  0.1792
 8250SOL    HW231609   2.729   5.769   8.045 -0.0031 -0.4798  0.8577
 8251SOL     OW31610   2.148   8.218   9.932 -0.5800 -0.7493 -0.2778
 8251SOL    HW131611   2.140   8.298   9.880 -0.3319 -0.9371 -0.6121
 8251SOL    HW231612   2.240   8.214   9.957 -0.4701 -1.2054 -0.7265
 8252SOL     OW31613  11.931   4.163   4.146 -0.2069  0.1157  0.6556
 8252SOL    HW131614  11.884   4.245   4.157 -1.4594 -0.7311  2.0563
 8252SOL    HW231615  11.912   4.136   4.056 -1.5779  0.3263  0.8611
 8253SOL     OW31616   5.104  11.473   0.736 -0.5777 -0.0039 -0.1564
 8253SOL    HW131617   5.074  11.461   0.826 -0.3567 -0.2922 -0.1184
 8253SOL    HW231618   5.024  11.492   0.687 -0.7939 -0.5110 -0.0140
 8254SOL     OW31619  11.275  11.963   9.045 -0.5360 -0.5269  0.2110
 8254SOL    HW131620  11.306  11.881   9.083  1.2780 -0.6178 -1.3074
 8254SOL    HW231621  11.340  11.984   8.977 -0.1083  2.8951  1.4615
 8255SOL     OW31622   9.976   1.446  12.221  0.5775 -0.6558 -0.0930
 8255SOL    HW131623   9.891   1.404  12.231  0.6858 -1.0115 -0.6087
 8255SOL    HW231624   9.970   1.495  12.139  1.0240 -1.0946 -0.4003
 8256SOL     OW31625   7.968   8.498   4.090  0.2222 -0.3663  0.3594
 8256SOL    HW131626   7.894   8.537   4.043  0.8731  0.6506  0.1674
 8256SOL    HW231627   8.005   8.435   4.029  0.9144  0.7722 -0.4163
 8257SOL     OW31628  11.135  10.006   3.901 -0.6289 -0.0219  0.1511
 8257SOL    HW131629  11.050  10.014   3.945 -0.2035 -0.5977  1.0900
 8257SOL    HW231630  11.115   9.963   3.818 -1.2657 -0.0434  0.3120
 8258SOL     OW31631   8.023  10.737   9.412  0.1334 -0.2971 -0.4941
 8258SOL    HW131632   8.094  10.719   9.474 -0.8663 -0.4434  0.6563
 8258SOL    HW231633   8.045  10.822   9.374 -0.1905  0.7686  1.5451
 8259SOL     OW31634   1.403   0.515   3.958  0.1160 -0.2628  0.0011
 8259SOL    HW131635   1.423   0.512   4.052  2.6874 -1.7970 -0.5011
 8259SOL    HW231636   1.446   0.594   3.926 -1.2868  0.6050  0.1506
 8260SOL     OW31637   3.439   0.182   0.380 -0.3888 -0.4945  0.1459
 8260SOL    HW131638   3.528   0.192   0.348  0.5007 -2.6095  1.7024
 8260SOL    HW231639   3.388   0.161   0.302  0.5439  0.3081 -0.6996
 8261SOL     OW31640  10.788  11.421   0.477 -0.1860  0.2638 -0.2441
 8261SOL    HW131641  10.867  11.372   0.500  0.3518  1.0455 -0.3883
 8261SOL    HW231642  10.745  11.368   0.410  0.5655  0.1584 -0.6507
 8262SOL     OW31643   6.148   6.376   1.109 -0.2267  0.1383  0.7446
 8262SOL    HW131644   6.142   6.339   1.021 -1.0320 -0.1081  0.8949
 8262SOL    HW231645   6.226   6.336   1.147 -0.9697 -1.2739  0.8340
 8263SOL     OW31646  10.128   4.064  11.639  0.0776 -0.2342 -0.0749
 8263SOL    HW131647  10.210   4.114  11.637  0.5340 -0.8998  1.0549
 8263SOL    HW231648  10.140   4.003  11.711 -1.5455 -0.1400  0.2987
 8264SOL     OW31649   8.306   5.319   1.742 -0.0845  0.6445 -0.4379
 8264SOL    HW131650   8.379   5.365   1.783  0.6557 -0.1795 -0.7830
 8264SOL    HW231651   8.310   5.344   1.650  1.1199 -1.0327 -0.8940
 8265SOL     OW31652   8.077  11.965   8.102  0.1354  0.0237  0.5202
 8265SOL    HW131653   8.006  12.026   8.084  0.7278  1.0824  1.5861
 8265SOL    HW231654   8.116  11.997   8.184  0.9005 -1.3903  0.7466
 8266SOL     OW31655  11.113   9.160   1.507  0.0615  0.0507  0.3970
 8266SOL    HW131656  11.143   9.192   1.592  1.1733 -1.2644  0.5294
 8266SOL    HW231657  11.063   9.233   1.470  2.6487  2.0883  0.5777
 8267SOL     OW31658   9.314  11.254   4.482  0.0644  0.5914  0.3770
 8267SOL    HW131659   9.321  11.204   4.401  2.4455  0.9540  0.2694
 8267SOL    HW231660   9.257  11.328   4.461  0.6527  0.6845 -0.9871
 8268SOL     OW31661   4.133   7.983  10.089  0.1724  0.2332 -0.4519
 8268SOL    HW131662   4.049   7.938  10.090  0.6801 -0.7471  0.7540
 8268SOL    HW231663   4.166   7.973  10.178  1.9147 -0.0667 -1.0972
 8269SOL     OW31664  10.421   6.875   7.673 -0.2306  0.3741  0.0879
 8269SOL    HW131665  10.433   6.780   7.677 -0.1824  0.2637 -1.8478
 8269SOL    HW231666  10.467   6.908   7.750  1.6861 -1.0134 -0.3946
 8270SOL     OW31667  11.951   6.386   7.943 -0.1888 -0.1869  0.0971
 8270SOL    HW131668  11.982   6.477   7.941 -0.1121 -0.2044  0.4179
 8270SOL    HW231669  11.937   6.363   7.851 -1.5939  0.6226  0.0863
 8271SOL     OW31670   3.366   2.076  11.415 -0.3509  0.0973 -0.5825
 8271SOL    HW131671   3.358   2.007  11.480  1.6011  0.1078 -0.2675
 8271SOL    HW231672   3.380   2.030  11.332  0.6106  0.0886 -0.4264
 8272SOL     OW31673   1.164   0.952   6.143  0.1199  0.0267  0.6168
 8272SOL    HW131674   1.210   0.917   6.219  0.2696  0.4167  0.7062
 8272SOL    HW231675   1.092   0.891   6.129  0.6557 -0.5952  0.4794
 8273SOL     OW31676  10.250   8.411   2.105  0.1929 -0.4265 -0.9072
 8273SOL    HW131677  10.182   8.470   2.072 -0.6195 -0.1654  1.1057
 8273SOL    HW231678  10.332   8.451   2.075 -0.4242  0.7178 -1.1421
 8274SOL     OW31679   7.584  10.804   6.257  0.5811 -0.1828  0.2313
 8274SOL    HW131680   7.664  10.827   6.305  0.5492 -0.3549  0.3687
 8274SOL    HW231681   7.615  10.765   6.176  0.6875  2.7713 -1.2713
 8275SOL     OW31682  10.251  11.120   4.486 -0.3613 -0.1371 -0.5770
 8275SOL    HW131683  10.205  11.182   4.543  1.3251  0.9180 -0.2893
 8275SOL    HW231684  10.318  11.173   4.443 -0.7166 -1.1844 -2.5506
 8276SOL     OW31685   4.589   8.354  12.144  0.1526 -0.1479 -0.1847
 8276SOL    HW131686   4.666   8.311  12.106 -0.1350 -0.3013 -0.6109
 8276SOL    HW231687   4.611   8.447  12.145  0.9266 -0.3317  1.0895
 8277SOL     OW31688   1.529   7.541   8.649 -0.5232  0.7060 -0.0297
 8277SOL    HW131689   1.582   7.548   8.569  2.0334  3.0634  1.7070
 8277SOL    HW231690   1.550   7.454   8.683 -1.5577 -0.2919 -1.7496
 8278SOL     OW31691   8.989   0.045   1.042 -0.4124  0.0151  0.2224
 8278SOL    HW131692   9.067   0.065   0.991 -0.2385 -0.7568  0.1797
 8278SOL    HW231693   8.984  -0.051   1.042  1.1681 -0.2053  3.9959
 8279SOL     OW31694   6.612  10.774   9.271  0.0640 -0.0556 -0.3520
 8279SOL    HW131695   6.583  10.865   9.267  0.0466 -0.0391  0.0809
 8279SOL    HW231696   6.622  10.756   9.365 -0.3370 -0.6229 -0.4104
 8280SOL     OW31697   0.289   6.993   7.984 -1.1976  0.1548  0.1919
 8280SOL    HW131698   0.350   6.963   7.916  0.2074 -2.5167  2.4470
 8280SOL    HW231699   0.309   7.086   7.994 -0.6899  0.3838 -2.2194
 8281SOL     OW31700   9.966   7.353   3.816  0.4075  0.0338  0.5324
 8281SOL    HW131701   9.891   7.409   3.833  0.0622  0.0062 -0.8323
 8281SOL    HW231702   9.929   7.265   3.805  0.6779 -0.0504  0.2647
 8282SOL     OW31703  11.896   8.337   3.824 -0.0075  0.2639  0.4242
 8282SOL    HW131704  11.908   8.247   3.794 -1.4188  0.6393 -1.4658
 8282SOL    HW231705  11.931   8.391   3.754  0.6565  1.2161  1.4537
 8283SOL     OW31706   0.222  11.254  10.604  0.0634  0.0717  0.5567
 8283SOL    HW131707   0.153  11.191  10.584  0.4226 -0.8005  1.9825
 8283SOL    HW231708   0.289  11.238  10.536 -0.1967 -0.5366  0.4362
 8284SOL     OW31709   4.407   9.563   5.818  0.2032  0.3808  0.0076
 8284SOL    HW131710   4.366   9.501   5.877  1.4670 -0.9395 -0.4336
 8284SOL    HW231711   4.436   9.635   5.874 -0.3009  0.0605  0.6887
 8285SOL     OW31712   7.501   3.227   0.702 -0.0678  0.3019  0.4217
 8285SOL    HW131713   7.595   3.242   0.714 -0.0849  1.0156 -0.2686
 8285SOL    HW231714   7.485   3.143   0.744  0.8537  0.2388  0.6756
 8286SOL     OW31715  10.284   9.039   8.378  0.0693  0.6822  0.2245
 8286SOL    HW131716  10.335   9.046   8.297 -1.3802  0.4514 -0.7360
 8286SOL    HW231717  10.350   9.041   8.448  1.2868  1.9107 -0.8951
 8287SOL     OW31718  10.296  12.270  10.693  0.0140 -0.5507  0.1183
 8287SOL    HW131719  10.329  12.208  10.758 -0.3763 -0.6833  0.1930
 8287SOL    HW231720  10.356  12.261  10.619 -0.4468 -1.5493 -0.1590
 8288SOL     OW31721   7.206   9.269   2.982  0.3844  0.0037  0.3875
 8288SOL    HW131722   7.242   9.194   2.935 -0.3309 -0.0114 -0.1688
 8288SOL    HW231723   7.145   9.309   2.920 -0.1121  0.3588  1.0845
 8289SOL     OW31724   5.521   7.869   7.962  0.0106  0.2888 -0.4215
 8289SOL    HW131725   5.589   7.870   7.895 -0.3715  1.3374 -0.8163
 8289SOL    HW231726   5.521   7.779   7.995  0.2252 -0.2361 -1.8008
 8290SOL     OW31727  11.618   3.422   7.841  0.4839  0.0437  0.1908
 8290SOL    HW131728  11.522   3.413   7.845  0.2941  1.4338 -0.5585
 8290SOL    HW231729  11.651   3.333   7.855 -0.9275 -0.5213  0.1021
 8291SOL     OW31730  10.867   3.779  11.701 -0.2711  0.3252 -0.2085
 8291SOL    HW131731  10.855   3.796  11.607 -2.5292 -0.3860 -0.1198
 8291SOL    HW231732  10.859   3.865  11.742 -0.6668  0.4709 -0.5823
 8292SOL     OW31733   6.091   3.645  11.848 -0.0034  0.1811  0.4741
 8292SOL    HW131734   6.041   3.620  11.926  0.5697  1.5231  1.3256
 8292SOL    HW231735   6.179   3.610  11.864  0.7240  2.2580  1.5404
 8293SOL     OW31736   3.094   9.975   6.691  0.4128  0.0827 -0.2957
 8293SOL    HW131737   3.142  10.013   6.764  1.7633 -1.6262 -0.2449
 8293SOL    HW231738   3.146   9.996   6.613 -0.1328  0.4450 -0.5706
 8294SOL     OW31739   0.685   8.157   0.450 -0.1210  0.3090  0.0153
 8294SOL    HW131740   0.616   8.122   0.394  0.4512 -2.4557  0.8881
 8294SOL    HW231741   0.708   8.085   0.508  1.6106  2.0165  1.6026
 8295SOL     OW31742   4.264   8.460   9.047 -0.1460  0.1043 -0.5350
 8295SOL    HW131743   4.330   8.528   9.064  0.0806  0.0344 -1.0943
 8295SOL    HW231744   4.299   8.382   9.090  0.0121  0.1314 -0.6129
 8296SOL     OW31745   6.377   7.105   2.154 -0.3895  0.7708 -0.0247
 8296SOL    HW131746   6.381   7.190   2.110  0.0656  0.0464 -1.4601
 8296SOL    HW231747   6.292   7.070   2.130  0.6195 -0.4702 -2.0685
 8297SOL     OW31748   6.793   8.458   2.836  0.6086  0.0572  0.2550
 8297SOL    HW131749   6.797   8.552   2.855 -3.4267 -0.0317  2.6958
 8297SOL    HW231750   6.838   8.417   2.910 -1.1482  0.1075  1.4299
 8298SOL     OW31751   8.108  10.904   7.039  0.0773 -0.0771  0.1400
 8298SOL    HW131752   8.162  10.881   7.114 -1.3534 -0.2332  1.1559
 8298SOL    HW231753   8.027  10.854   7.051 -0.2091 -0.0636 -1.4844
 8299SOL     OW31754   0.631   1.034  10.972  0.3460  0.1729  0.6283
 8299SOL    HW131755   0.590   0.966  11.026  1.0218 -0.4572  0.3705
 8299SOL    HW231756   0.565   1.102  10.965 -0.8850 -1.0706 -0.2705
 8300SOL     OW31757   0.452  11.482   1.737  0.1365  0.0826  0.1130
 8300SOL    HW131758   0.494  11.397   1.751  2.0245  0.6413 -1.5434
 8300SOL    HW231759   0.449  11.491   1.642 -0.9206  1.4634  0.2578
 8301SOL     OW31760   3.420   2.502   5.181 -0.0056 -0.0798  0.2784
 8301SOL    HW131761   3.401   2.522   5.272 -1.4324  4.0306 -0.6866
 8301SOL    HW231762   3.354   2.437   5.156 -0.5010 -0.2018  1.8350
 8302SOL     OW31763  12.515   8.518   9.422 -0.1114 -0.7884  0.5283
 8302SOL    HW131764  12.607   8.526   9.400 -0.0965 -0.0200  0.8237
 8302SOL    HW231765  12.476   8.473   9.348  0.4114 -0.6623  0.1697
 8303SOL     OW31766   2.064   7.032   4.618 -0.2031  0.7532  0.6667
 8303SOL    HW131767   2.123   6.963   4.591  0.3080  1.2834  0.4208
 8303SOL    HW231768   2.026   7.000   4.701 -0.5640 -0.1505  0.1664
 8304SOL     OW31769   3.181  12.096   0.049 -0.2250  0.2069  0.0359
 8304SOL    HW131770   3.255  12.076   0.107 -0.3935 -1.3557 -0.2299
 8304SOL    HW231771   3.221  12.112  -0.037 -0.1462 -0.2335 -0.0149
 8305SOL     OW31772   8.040  10.576   2.414 -0.1209  0.1177  0.4090
 8305SOL    HW131773   7.981  10.585   2.489 -0.0866  0.3095  0.4143
 8305SOL    HW231774   7.994  10.618   2.342 -0.7389 -1.2351 -0.0127
 8306SOL     OW31775   7.826   1.902   0.382 -0.1816 -0.9885 -0.1101
 8306SOL    HW131776   7.818   1.809   0.361  0.2740 -1.1293  0.3162
 8306SOL    HW231777   7.833   1.945   0.297  0.4036 -1.4272 -0.2940
 8307SOL     OW31778   6.327   0.259   1.053 -0.3113  0.1715 -0.0384
 8307SOL    HW131779   6.337   0.348   1.018 -1.0630 -0.1989 -1.2794
 8307SOL    HW231780   6.233   0.242   1.049 -0.0133 -1.4217 -1.8347
 8308SOL     OW31781   8.206  10.625   4.404 -0.1487 -0.1918 -0.1432
 8308SOL    HW131782   8.236  10.639   4.493 -1.0425  2.2080 -0.1474
 8308SOL    HW231783   8.110  10.619   4.412 -0.3022  0.8160 -0.9851
 8309SOL     OW31784  11.625  11.954  12.368  0.0196 -0.1461 -0.0778
 8309SOL    HW131785  11.594  11.944  12.277  1.6009 -0.2235 -0.6432
 8309SOL    HW231786  11.575  12.027  12.402  1.4600  1.8880 -2.0184
 8310SOL     OW31787   9.329   2.073   3.686 -0.7397  0.1619  0.4049
 8310SOL    HW131788   9.262   2.104   3.748 -1.0938 -0.9342  0.5910
 8310SOL    HW231789   9.283   2.065   3.603 -1.6593 -3.3081  1.1147
 8311SOL     OW31790   7.552   1.601   2.338  0.2848  0.8957 -0.4698
 8311SOL    HW131791   7.461   1.595   2.309  0.1060  0.0512  0.2231
 8311SOL    HW231792   7.547   1.621   2.431  0.6642 -2.7553  0.4942
 8312SOL     OW31793   3.471   3.659  10.062  0.8044  0.5628  0.3886
 8312SOL    HW131794   3.387   3.626  10.095  0.6363 -0.3513 -0.8917
 8312SOL    HW231795   3.534   3.632  10.129  0.2737  0.0123  0.6854
 8313SOL     OW31796   0.818   8.209   0.198 -0.1378  0.1514  0.2651
 8313SOL    HW131797   0.780   8.146   0.136  0.7207  0.9290 -1.1065
 8313SOL    HW231798   0.756   8.211   0.271 -0.9826 -1.1007 -0.3746
 8314SOL     OW31799  11.434   7.907   3.639  0.2066 -0.9577  0.2460
 8314SOL    HW131800  11.493   7.908   3.564  1.2293  2.6200  0.8917
 8314SOL    HW231801  11.492   7.899   3.715 -0.2643  0.5838  0.8045
 8315SOL     OW31802   5.893   6.323   8.254  0.2835  0.2911 -0.1448
 8315SOL    HW131803   5.812   6.356   8.292 -0.4399  0.1159 -1.4557
 8315SOL    HW231804   5.961   6.382   8.287 -0.4544  0.8039  0.5048
 8316SOL     OW31805   7.821   1.931  10.218  0.3064  0.0238 -0.1126
 8316SOL    HW131806   7.898   1.910  10.271  0.8558 -0.1904 -0.9762
 8316SOL    HW231807   7.854   1.933  10.128 -0.3936  1.3613 -0.3619
 8317SOL     OW31808   9.938   2.315  12.343  0.6736  0.4260  0.2133
 8317SOL    HW131809  10.030   2.323  12.369  0.8301  1.8704 -0.7082
 8317SOL    HW231810   9.920   2.392  12.290 -0.2230 -1.3157 -2.2153
 8318SOL     OW31811  11.680   3.861   8.638  0.7436 -0.0929  0.4195
 8318SOL    HW131812  11.772   3.834   8.634  0.4671 -1.0172 -0.3410
 8318SOL    HW231813  11.634   3.793   8.589 -0.5247 -0.4211  1.9639
 8319SOL     OW31814   8.924  11.590   3.668 -0.1453 -0.0816  0.3601
 8319SOL    HW131815   9.013  11.620   3.685 -0.2885 -0.2810  1.5037
 8319SOL    HW231816   8.935  11.512   3.614  0.3514  0.0772  0.2277
 8320SOL     OW31817   9.575   3.373   1.132  0.1129 -0.5094  0.0583
 8320SOL    HW131818   9.500   3.346   1.185 -2.2173  0.6583 -2.4196
 8320SOL    HW231819   9.569   3.321   1.053  0.4965  1.2677 -1.1934
 8321SOL     OW31820   6.613   9.479   7.503 -0.0350 -0.2389  0.8007
 8321SOL    HW131821   6.621   9.432   7.419  1.5146  1.4614 -0.0777
 8321SOL    HW231822   6.674   9.434   7.561 -1.6676 -1.9042  1.3135
 8322SOL     OW31823   9.540   5.495   3.044 -0.2465  0.0034 -0.0420
 8322SOL    HW131824   9.625   5.535   3.061  0.2549 -1.2341  0.5173
 8322SOL    HW231825   9.482   5.568   3.022  0.4690  1.0993  1.5486
 8323SOL     OW31826   7.289   5.853   4.556 -0.3265  0.0891 -0.1820
 8323SOL    HW131827   7.244   5.801   4.622  0.1887 -0.8416 -0.5472
 8323SOL    HW231828   7.293   5.941   4.594 -3.4349  0.5418 -0.6008
 8324SOL     OW31829  11.741   3.686  10.051  0.3347  0.6409 -0.1301
 8324SOL    HW131830  11.675   3.741  10.008  1.2465  2.3160  0.5226
 8324SOL    HW231831  11.818   3.693   9.995  0.8489  1.0662  0.6191
 8325SOL     OW31832   8.873   2.449   0.449  0.0859 -0.0635 -0.2031
 8325SOL    HW131833   8.927   2.413   0.379 -0.9895 -1.9795 -0.1249
 8325SOL    HW231834   8.789   2.469   0.408  0.1411  0.9002  0.1116
 8326SOL     OW31835   6.840   8.590  11.443 -0.0610  0.1991  0.2432
 8326SOL    HW131836   6.871   8.624  11.359 -0.9859  0.5219  0.0225
 8326SOL    HW231837   6.768   8.648  11.467 -2.1150 -1.8980 -0.4469
 8327SOL     OW31838  11.565   9.237   3.888  0.3299  0.0741  0.2307
 8327SOL    HW131839  11.566   9.325   3.851 -0.7842 -0.5779 -1.4429
 8327SOL    HW231840  11.545   9.251   3.981 -0.2198  1.5690 -0.0744
 8328SOL     OW31841   3.962  11.141   9.665  0.0647  0.3801  0.2031
 8328SOL    HW131842   3.940  11.223   9.621  2.1093  0.8453 -0.1010
 8328SOL    HW231843   3.961  11.163   9.758 -1.5890  0.1226  0.2692
 8329SOL     OW31844   0.675   1.423   2.266  0.0514  0.1164  0.5034
 8329SOL    HW131845   0.763   1.386   2.270  0.9369  2.1230  1.5605
 8329SOL    HW231846   0.632   1.390   2.345  0.7821  1.1671  1.3666
 8330SOL     OW31847   9.980   3.470  12.571 -0.1849 -0.5154 -0.4663
 8330SOL    HW131848   9.994   3.548  12.625 -0.4401 -1.2900  0.7390
 8330SOL    HW231849   9.999   3.500  12.482 -0.0465  0.8636 -0.0023
 8331SOL     OW31850   0.449   7.706  10.113 -0.3828 -0.0514 -0.3463
 8331SOL    HW131851   0.527   7.656  10.089 -1.2122 -1.3047 -0.5244
 8331SOL    HW231852   0.376   7.646  10.097 -1.3049  0.6746  0.9226
 8332SOL     OW31853   2.634  11.792   2.063  0.1632 -0.0338 -0.5071
 8332SOL    HW131854   2.670  11.870   2.105 -0.2958 -0.1957  0.2076
 8332SOL    HW231855   2.696  11.723   2.084  0.2423  0.0092 -0.6005
 8333SOL     OW31856   2.034   2.058  11.716  0.1994  0.4685 -0.1601
 8333SOL    HW131857   1.968   1.994  11.688 -1.4362  0.6071  2.9704
 8333SOL    HW231858   2.117   2.013  11.702 -0.8850 -2.6173  2.2246
 8334SOL     OW31859   0.174   8.617   6.709 -0.1612 -0.1719 -0.7523
 8334SOL    HW131860   0.226   8.687   6.670  2.3153 -0.9952  0.8964
 8334SOL    HW231861   0.198   8.617   6.801  0.0233 -3.2685 -0.6994
 8335SOL     OW31862   2.991   6.023   9.050 -0.3460  0.2062  0.1678
 8335SOL    HW131863   3.000   6.110   9.090  0.6653  1.4842 -2.6118
 8335SOL    HW231864   3.042   6.028   8.969 -0.5958 -2.8830 -0.2942
 8336SOL     OW31865   3.702   3.821   4.721  0.0815 -0.1125 -0.3597
 8336SOL    HW131866   3.702   3.839   4.627 -0.2956  2.8914  0.1081
 8336SOL    HW231867   3.785   3.776   4.737  1.1386  1.2012 -1.8631
 8337SOL     OW31868   5.224  11.305   3.459  0.2454 -0.3269  0.5603
 8337SOL    HW131869   5.199  11.221   3.498 -0.8365  0.5904  1.9433
 8337SOL    HW231870   5.175  11.370   3.510  1.5459  1.1900 -0.0690
 8338SOL     OW31871   3.003   5.656   9.301  0.0033  0.0920  0.3302
 8338SOL    HW131872   2.949   5.614   9.235  0.8799 -1.8865  0.7859
 8338SOL    HW231873   2.998   5.597   9.377  1.1285  0.9267  1.0925
 8339SOL     OW31874   4.020  11.403   4.309 -0.0433 -0.0616 -0.0512
 8339SOL    HW131875   4.009  11.367   4.397  0.1676 -0.7649 -0.3059
 8339SOL    HW231876   3.968  11.483   4.309 -1.2169 -0.8007  0.2711
 8340SOL     OW31877   5.471  10.198   6.304  0.2532 -0.3753  0.0481
 8340SOL    HW131878   5.436  10.125   6.356 -0.7242  1.3734  1.9691
 8340SOL    HW231879   5.561  10.172   6.283 -0.6338 -2.9379 -0.9917
 8341SOL     OW31880   9.625  11.097   0.904 -0.2498 -0.6283 -0.2873
 8341SOL    HW131881   9.715  11.079   0.878  0.4529  1.4857  0.4957
 8341SOL    HW231882   9.593  11.015   0.941  0.3413 -2.3034 -3.1451
 8342SOL     OW31883   7.823   3.127   9.766  0.4344 -0.4549 -0.2544
 8342SOL    HW131884   7.790   3.175   9.690 -1.0002  0.8927  1.1569
 8342SOL    HW231885   7.902   3.174   9.791 -0.1902  0.3299  0.2719
 8343SOL     OW31886   8.355   4.336   6.369  0.1736 -0.3511 -0.0272
 8343SOL    HW131887   8.346   4.295   6.283  0.0582 -1.1939  0.3739
 8343SOL    HW231888   8.350   4.430   6.352 -0.5682 -0.5320 -0.8583
 8344SOL     OW31889   7.410   3.092   9.751 -0.4431  0.0314  0.1016
 8344SOL    HW131890   7.410   3.187   9.736  3.2121  0.1980  0.1933
 8344SOL    HW231891   7.444   3.055   9.669 -0.0810 -1.0174  0.7079
 8345SOL     OW31892  11.696   2.370   0.702 -0.0920  0.5836 -0.5743
 8345SOL    HW131893  11.693   2.299   0.765 -0.8638  0.4893 -0.7065
 8345SOL    HW231894  11.610   2.410   0.707  0.1599  1.1794 -0.8834
 8346SOL     OW31895   4.221   0.873  11.832  0.2089 -0.2577 -0.3605
 8346SOL    HW131896   4.235   0.954  11.783  0.9502  0.0415  0.3180
 8346SOL    HW231897   4.267   0.806  11.782 -0.2175 -0.2252 -0.8043
 8347SOL     OW31898   4.446   9.185   7.931  0.6185  0.0527  0.0325
 8347SOL    HW131899   4.365   9.210   7.886  0.5682 -4.1345 -2.7766
 8347SOL    HW231900   4.515   9.236   7.888 -0.0977  0.3525 -0.7868
 8348SOL     OW31901   1.380  10.926   7.995  0.2896 -0.3820 -0.1109
 8348SOL    HW131902   1.426  11.004   8.028 -0.3876 -0.3392  0.7670
 8348SOL    HW231903   1.291  10.935   8.027 -0.4387 -0.3409 -2.0142
 8349SOL     OW31904   1.927   8.600   9.910 -0.2843  0.0466  0.0514
 8349SOL    HW131905   1.863   8.544   9.955  0.2043 -0.6801 -0.1238
 8349SOL    HW231906   2.005   8.544   9.902  0.0792  0.6230 -0.5049
 8350SOL     OW31907   2.832   2.476   9.402  0.5718  0.2966  0.5848
 8350SOL    HW131908   2.924   2.461   9.421  0.2048 -1.4334  1.1611
 8350SOL    HW231909   2.825   2.463   9.307  0.6879 -1.1111  0.7428
 8351SOL     OW31910  10.438   2.703   0.695 -0.4094 -0.2049  0.2554
 8351SOL    HW131911  10.527   2.669   0.698 -0.2704  0.0735 -0.6018
 8351SOL    HW231912  10.448   2.798   0.696 -0.7240 -0.1726  0.7306
 8352SOL     OW31913   9.914   7.970   9.424  0.2932  0.2377  0.7163
 8352SOL    HW131914   9.928   8.046   9.366 -0.0375  0.5291  1.0155
 8352SOL    HW231915   9.855   7.913   9.375 -1.7705  1.4885  1.6186
 8353SOL     OW31916   1.620   1.719   7.002  0.2336  0.2521  0.0934
 8353SOL    HW131917   1.692   1.745   6.944  0.7611  0.6163  0.8899
 8353SOL    HW231918   1.544   1.764   6.966  0.5998  0.6666 -0.1799
 8354SOL     OW31919   2.322   2.877   3.852 -0.2303  0.0053 -0.4422
 8354SOL    HW131920   2.305   2.862   3.945  0.4382 -1.1813 -0.4965
 8354SOL    HW231921   2.307   2.971   3.840 -0.3464  0.1715  0.8555
 8355SOL     OW31922   5.344  12.089   6.707  0.3772 -0.0637 -0.1444
 8355SOL    HW131923   5.261  12.043   6.716  0.1664  0.6430  1.9445
 8355SOL    HW231924   5.411  12.022   6.717  0.0669 -0.3674 -0.1136
 8356SOL     OW31925   1.031  11.837   2.203  0.1024 -0.3666 -1.0315
 8356SOL    HW131926   1.077  11.775   2.147  0.0894 -0.9247 -0.4400
 8356SOL    HW231927   0.965  11.784   2.249  1.3879 -0.3490  0.9655
 8357SOL     OW31928  11.564   6.499   9.447 -0.2798 -0.6446 -0.1824
 8357SOL    HW131929  11.583   6.464   9.534  1.8957  1.4344  0.2962
 8357SOL    HW231930  11.498   6.566   9.461  0.5351  0.1373  0.0107
 8358SOL     OW31931   4.035  10.542   7.897  0.4048  0.1022 -0.3189
 8358SOL    HW131932   4.086  10.499   7.829 -0.8037 -3.4886  0.8186
 8358SOL    HW231933   4.060  10.496   7.978 -1.6308  0.9739  0.8847
 8359SOL     OW31934   5.337   7.843  11.777 -0.1786  0.0692  0.0597
 8359SOL    HW131935   5.307   7.755  11.799 -1.0565  0.6181  1.1260
 8359SOL    HW231936   5.295   7.900  11.841  1.4747  1.1240  0.2809
 8360SOL     OW31937   2.357   1.758   8.543  0.1608  0.3279 -0.2323
 8360SOL    HW131938   2.413   1.832   8.568  0.0780  0.9173 -1.6779
 8360SOL    HW231939   2.315   1.786   8.462 -1.8372 -0.3254  0.5197
 8361SOL     OW31940   4.265   4.293  11.841 -0.4980  0.1729  0.3734
 8361SOL    HW131941   4.237   4.258  11.756 -0.8453  1.2708  0.0190
 8361SOL    HW231942   4.184   4.311  11.888 -0.3646  1.3279  0.1899
 8362SOL     OW31943   3.823   3.940   2.786  0.0714 -0.1681 -0.1522
 8362SOL    HW131944   3.867   3.867   2.743 -1.7192 -0.2637 -1.9785
 8362SOL    HW231945   3.759   3.971   2.721 -1.8780  0.5337  1.9762
 8363SOL     OW31946   3.286  11.046   4.890 -0.4473  0.1004 -0.2305
 8363SOL    HW131947   3.365  11.037   4.837 -2.3454 -0.9323 -3.0829
 8363SOL    HW231948   3.295  11.132   4.932  1.2697  0.8993 -2.0821
 8364SOL     OW31949   1.955  11.091   9.027 -0.0759  0.2336  0.0161
 8364SOL    HW131950   2.013  11.165   9.048 -0.7368  0.4874  0.9963
 8364SOL    HW231951   2.014  11.016   9.019  0.3183  0.2744  2.0847
 8365SOL     OW31952   7.730   3.540   4.423 -0.2758  0.1013  0.4787
 8365SOL    HW131953   7.808   3.594   4.409  0.3439 -0.4420  1.6942
 8365SOL    HW231954   7.737   3.470   4.358  0.6654 -0.3672  1.0592
 8366SOL     OW31955   4.082   4.976   3.985  0.8827  0.3170  0.0669
 8366SOL    HW131956   4.050   4.895   4.027 -0.5389  1.0669  0.4850
 8366SOL    HW231957   4.082   4.956   3.892  0.3253 -0.1135  0.1504
 8367SOL     OW31958  12.095   1.414  11.048 -0.0049 -0.1006 -0.3534
 8367SOL    HW131959  12.098   1.376  11.136 -1.1912  1.4022  0.3856
 8367SOL    HW231960  12.030   1.361  11.002 -0.5985  0.1289  0.2072
 8368SOL     OW31961   8.884   2.049   2.547  0.3329 -0.1986 -0.0117
 8368SOL    HW131962   8.920   2.018   2.631  0.7149 -1.6813 -0.6912
 8368SOL    HW231963   8.815   1.986   2.527 -1.0824  1.2690  0.1102
 8369SOL     OW31964   8.229   1.296   3.644  0.3918  0.3260  0.5913
 8369SOL    HW131965   8.182   1.377   3.620  0.0129 -0.3175 -0.9817
 8369SOL    HW231966   8.313   1.303   3.599 -0.1278 -0.6774 -0.6197
 8370SOL     OW31967   8.149   9.688   2.914 -0.6837 -0.7490 -0.2335
 8370SOL    HW131968   8.241   9.685   2.888 -0.7442  2.8063 -1.2555
 8370SOL    HW231969   8.151   9.703   3.009 -0.0472  2.3411 -0.6607
 8371SOL     OW31970   3.676   9.596   2.086  0.0319  0.1625  0.2259
 8371SOL    HW131971   3.592   9.567   2.050  0.3977  0.4691 -0.9156
 8371SOL    HW231972   3.662   9.595   2.180 -1.1685 -0.0635  0.0749
 8372SOL     OW31973   8.046   5.764   0.151  0.9703  0.3734  0.2386
 8372SOL    HW131974   8.042   5.855   0.180  1.0627  0.4449  0.0321
 8372SOL    HW231975   8.135   5.753   0.117 -0.5556  2.0099 -5.3600
 8373SOL     OW31976   3.976   2.446   1.971  0.2864 -0.0731  0.0670
 8373SOL    HW131977   4.003   2.433   1.880  0.2145  0.6343 -0.0597
 8373SOL    HW231978   3.922   2.525   1.970  0.1322 -0.1604  0.6967
 8374SOL     OW31979  11.058   8.634  11.522  0.0835 -0.0932  0.1331
 8374SOL    HW131980  11.057   8.720  11.565  0.0286 -0.4533  0.8709
 8374SOL    HW231981  10.968   8.602  11.530  0.2078 -0.4146  0.2818
 8375SOL     OW31982   8.325  10.469   9.950 -0.4762  0.0957 -0.4263
 8375SOL    HW131983   8.326  10.376   9.930 -0.5836 -0.0291  0.1488
 8375SOL    HW231984   8.234  10.488   9.973 -0.6399  0.5255 -1.3551
 8376SOL     OW31985   5.341  10.431   2.557 -0.4967  0.0561  0.7163
 8376SOL    HW131986   5.319  10.448   2.648  1.8261  0.9832  1.1521
 8376SOL    HW231987   5.434  10.452   2.549 -0.1607 -1.8040 -1.4346
 8377SOL     OW31988   7.827   1.916   0.672 -0.2026  0.6235  0.5110
 8377SOL    HW131989   7.848   1.916   0.578  0.5490 -1.1839  0.6445
 8377SOL    HW231990   7.739   1.952   0.677 -0.9737 -0.8788 -1.0924
 8378SOL     OW31991   7.460   1.701   0.861  0.0776  0.5749  0.1677
 8378SOL    HW131992   7.410   1.782   0.851  0.2752  0.7002  0.1880
 8378SOL    HW231993   7.523   1.721   0.931  0.7615  0.7137 -0.4835
 8379SOL     OW31994   6.048  11.540   3.741  0.1272 -0.0634 -0.1608
 8379SOL    HW131995   6.135  11.526   3.703 -0.0624 -1.1464 -0.2210
 8379SOL    HW231996   5.988  11.503   3.676 -0.3416  0.1310  0.1585
 8380SOL     OW31997   8.463   7.018   5.071 -0.0628 -0.1030 -0.1232
 8380SOL    HW131998   8.514   6.973   5.004  1.9623 -0.3265  1.4699
 8380SOL    HW231999   8.515   7.010   5.151 -0.1383  3.9855  0.5628
 8381SOL     OW32000  11.999  11.467   0.217  0.0046 -0.4673  0.1617
 8381SOL    HW132001  11.971  11.446   0.128 -0.7994  0.3463  0.2030
 8381SOL    HW232002  12.067  11.403   0.237 -0.6108 -1.3969 -0.6103
 8382SOL     OW32003  10.501   7.428   7.626  0.0923 -0.3444  0.3345
 8382SOL    HW132004  10.577   7.381   7.661  0.5317  0.1313  0.0253
 8382SOL    HW232005  10.428   7.401   7.682  0.5904 -0.3898  0.9654
 8383SOL     OW32006  11.707   9.833   2.530 -0.0751 -0.9183  0.0200
 8383SOL    HW132007  11.651   9.769   2.574 -1.0727  0.0320  0.1863
 8383SOL    HW232008  11.724   9.900   2.596  1.3590 -1.2166 -0.0045
 8384SOL     OW32009   7.305  10.289  11.875  0.6967  0.4545  0.5588
 8384SOL    HW132010   7.263  10.368  11.842  0.7874 -0.0988 -0.9907
 8384SOL    HW232011   7.233  10.235  11.908  0.5944  1.0060  1.2443
 8385SOL     OW32012  11.230   4.735   2.569  0.2681  0.8551  0.6860
 8385SOL    HW132013  11.200   4.780   2.490 -1.5268  0.9531  1.3666
 8385SOL    HW232014  11.320   4.708   2.549 -0.7716 -1.0316 -2.2503
 8386SOL     OW32015  11.434   5.023  10.713  0.3325 -0.4684  0.0065
 8386SOL    HW132016  11.403   4.938  10.745 -3.1493  0.8507  0.5287
 8386SOL    HW232017  11.458   5.072  10.792  1.6068 -0.6551 -0.2420
 8387SOL     OW32018   2.614   3.382  11.709 -0.4114 -0.3957  0.0560
 8387SOL    HW132019   2.598   3.290  11.688 -2.7831 -0.2424  0.8552
 8387SOL    HW232020   2.567   3.396  11.792  0.0765  1.4814  0.0658
 8388SOL     OW32021   5.428   1.626  11.482 -0.2982  0.2139  0.5808
 8388SOL    HW132022   5.506   1.673  11.451 -0.4403 -0.0203 -0.1454
 8388SOL    HW232023   5.418   1.654  11.573  0.9979 -0.2248  0.8866
 8389SOL     OW32024   7.566   5.155   8.465 -0.7335 -0.4538  0.3074
 8389SOL    HW132025   7.499   5.217   8.494 -1.4361 -0.5996 -0.9007
 8389SOL    HW232026   7.535   5.125   8.379  1.1605 -0.1088 -0.5551
 8390SOL     OW32027   6.190  11.748   2.160  0.1647  0.2922 -0.2956
 8390SOL    HW132028   6.233  11.663   2.154  1.7758  1.0350  0.3975
 8390SOL    HW232029   6.261  11.811   2.170 -1.0535  1.6257  0.3304
 8391SOL     OW32030  10.332  11.208   9.614 -0.2911  0.2170 -0.0138
 8391SOL    HW132031  10.265  11.173   9.555 -1.5516  1.7565  0.4208
 8391SOL    HW232032  10.292  11.204   9.701  0.9895 -0.7028  0.5606
 8392SOL     OW32033   1.030   2.733   3.193  0.0854  0.2279 -0.6256
 8392SOL    HW132034   0.959   2.705   3.251  0.6893 -0.7889 -0.3474
 8392SOL    HW232035   1.105   2.679   3.220  0.5167  0.1049 -2.0222
 8393SOL     OW32036   8.370   3.457  12.322 -0.1033  0.4922 -0.0274
 8393SOL    HW132037   8.282   3.432  12.293  0.2603  0.4438 -1.1508
 8393SOL    HW232038   8.360   3.477  12.415 -0.8007 -1.9103  0.4845
 8394SOL     OW32039   5.357   8.030   4.657 -0.0700  0.5615 -0.7747
 8394SOL    HW132040   5.289   8.015   4.722  1.2595 -1.3852  0.2983
 8394SOL    HW232041   5.432   8.062   4.708  1.1420 -1.4190 -1.1987
 8395SOL     OW32042   4.998   4.739   7.473 -0.4298  0.0581 -0.4434
 8395SOL    HW132043   5.070   4.685   7.439 -0.5197 -0.1456 -0.3137
 8395SOL    HW232044   5.042   4.806   7.525 -0.4036 -1.2428  1.3197
 8396SOL     OW32045   5.648   9.213   0.425 -0.2729  0.2296 -0.1663
 8396SOL    HW132046   5.697   9.273   0.481  1.2126 -1.8185  0.8350
 8396SOL    HW232047   5.558   9.245   0.429 -0.1295  0.5396  2.9365
 8397SOL     OW32048   0.845   1.241   3.337  0.1078  0.2952 -0.0216
 8397SOL    HW132049   0.877   1.150   3.338  1.2331  0.6667 -0.1240
 8397SOL    HW232050   0.891   1.283   3.410 -0.6575  0.7108  0.2274
 8398SOL     OW32051   8.785   7.930   0.943 -0.7014 -0.9008 -0.1276
 8398SOL    HW132052   8.850   7.979   0.893 -0.4776  1.0711  1.9394
 8398SOL    HW232053   8.711   7.921   0.883  0.6942 -1.4965 -1.8649
 8399SOL     OW32054   8.594   0.020   2.295  0.1874  0.8524 -0.5490
 8399SOL    HW132055   8.579  -0.074   2.285  0.7074  0.6818  0.2049
 8399SOL    HW232056   8.514   0.060   2.260  0.0697  0.1510 -1.1247
 8400SOL     OW32057  12.133   0.994  10.878 -0.1646 -0.2050 -0.1396
 8400SOL    HW132058  12.091   1.080  10.876  1.8023  0.8210  0.9178
 8400SOL    HW232059  12.165   0.981  10.789  1.4547  1.1749  0.2121
 8401SOL     OW32060   8.670   3.265   9.563  0.1222  0.0547 -0.3709
 8401SOL    HW132061   8.699   3.290   9.476  0.2681  0.3900 -0.2270
 8401SOL    HW232062   8.749   3.238   9.608  0.0071 -0.3948 -0.4327
 8402SOL     OW32063   9.094   1.782   3.235  0.3328  0.2899 -0.2351
 8402SOL    HW132064   9.069   1.697   3.198 -0.8035 -0.0616  1.2542
 8402SOL    HW232065   9.012   1.817   3.270  1.3599  0.5134  2.0989
 8403SOL     OW32066   2.378   0.413   4.243 -0.0747 -0.0816 -0.2231
 8403SOL    HW132067   2.460   0.434   4.288 -1.1803  2.3950  0.8384
 8403SOL    HW232068   2.328   0.362   4.307  0.1795 -0.5679 -0.4144
 8404SOL     OW32069   7.483   4.404   4.388  0.4914 -0.1723  0.1146
 8404SOL    HW132070   7.565   4.418   4.340 -0.2847  0.0420 -1.2160
 8404SOL    HW232071   7.431   4.483   4.372  0.4405  0.1975  1.8906
 8405SOL     OW32072   1.360   6.260   1.806 -0.1001  0.0996  0.2902
 8405SOL    HW132073   1.327   6.206   1.877  0.6417 -0.0678  0.5155
 8405SOL    HW232074   1.416   6.325   1.849  1.0268 -0.5238 -0.2086
 8406SOL     OW32075   7.073   2.413   5.888 -0.2055  0.3640 -0.3255
 8406SOL    HW132076   6.988   2.375   5.869 -1.3802  2.2233  0.8742
 8406SOL    HW232077   7.115   2.422   5.802 -0.6157 -1.7876 -0.8098
 8407SOL     OW32078   4.351   3.379   6.518 -0.2337 -0.1503 -0.3477
 8407SOL    HW132079   4.325   3.355   6.430  1.3415  1.0107 -1.1901
 8407SOL    HW232080   4.397   3.302   6.552 -0.1006 -0.3081 -0.8813
 8408SOL     OW32081   5.673   0.134   8.584  0.4910  0.0306 -0.0968
 8408SOL    HW132082   5.720   0.053   8.601  0.1588  0.0274  0.9024
 8408SOL    HW232083   5.627   0.153   8.666 -0.5227  0.5087 -0.7500
 8409SOL     OW32084   3.999   0.738   1.668  0.4538  0.3802 -0.0629
 8409SOL    HW132085   3.954   0.803   1.722 -0.4286 -0.1621 -0.1145
 8409SOL    HW232086   4.019   0.784   1.587  3.2864  1.7026  1.2671
 8410SOL     OW32087   1.076  10.412   3.784 -0.2412  0.5521  0.0566
 8410SOL    HW132088   1.043  10.370   3.704  1.0063  1.6402 -1.0684
 8410SOL    HW232089   1.123  10.343   3.830  2.5285  0.7930 -2.1881
 8411SOL     OW32090   8.731   5.624   8.471  0.1259 -0.3149 -0.0604
 8411SOL    HW132091   8.685   5.678   8.406  0.4045  2.0396  1.5653
 8411SOL    HW232092   8.684   5.639   8.553  0.4528 -2.3423  0.5545
 8412SOL     OW32093   4.710   5.469   6.602 -0.1501  0.6428 -0.1783
 8412SOL    HW132094   4.756   5.406   6.546  2.1649  2.5690 -0.5999
 8412SOL    HW232095   4.658   5.414   6.661  1.6467 -1.6695 -0.5759
 8413SOL     OW32096   7.727   8.504   5.528  0.4378  0.2961 -0.1337
 8413SOL    HW132097   7.731   8.442   5.600  1.2680 -3.2346 -2.9087
 8413SOL    HW232098   7.636   8.499   5.498  0.2322  1.3237  0.2829
 8414SOL     OW32099  11.343   1.978   9.158 -0.2228  0.3060 -0.1708
 8414SOL    HW132100  11.303   1.932   9.232 -0.8278  2.3005  0.8007
 8414SOL    HW232101  11.277   2.041   9.130  1.1753  1.7567 -0.3295
 8415SOL     OW32102   2.272   1.435   5.623  0.0439 -0.3355  0.6645
 8415SOL    HW132103   2.179   1.455   5.612  0.0326 -0.5069  0.4343
 8415SOL    HW232104   2.279   1.401   5.712 -0.2828 -1.2467  0.3545
 8416SOL     OW32105   4.893   6.197   6.863  0.3352  0.3777 -0.2666
 8416SOL    HW132106   4.978   6.201   6.906  0.2645 -1.4426  0.0994
 8416SOL    HW232107   4.913   6.189   6.770  0.6096 -1.2616 -0.0830
 8417SOL     OW32108  11.299   7.567  10.781  0.5955 -0.0053 -0.4168
 8417SOL    HW132109  11.367   7.500  10.787  0.2333 -0.2420  2.9059
 8417SOL    HW232110  11.342   7.648  10.810 -0.4254 -0.1479  1.6563
 8418SOL     OW32111   0.747   2.347   2.059 -0.6537  0.2634 -0.0175
 8418SOL    HW132112   0.717   2.256   2.064 -0.8624  0.2858 -0.7918
 8418SOL    HW232113   0.789   2.363   2.144 -1.0995 -0.3815  0.3314
 8419SOL     OW32114   4.277   1.094  11.683  0.1934 -0.1270  0.3141
 8419SOL    HW132115   4.284   1.189  11.673  0.2457 -0.2812 -1.2726
 8419SOL    HW232116   4.325   1.058  11.609 -2.4301 -1.3344 -0.9219
 8420SOL     OW32117   9.179   8.026  10.313  0.2724  0.1417 -0.0251
 8420SOL    HW132118   9.183   7.950  10.370 -0.2982  0.0512 -0.0949
 8420SOL    HW232119   9.131   8.092  10.364  1.0159  0.5584  0.1462
 8421SOL     OW32120   4.680   5.697   8.862  0.0258  0.0410 -0.2626
 8421SOL    HW132121   4.600   5.723   8.817 -0.3915  1.0514  0.9865
 8421SOL    HW232122   4.678   5.601   8.862  1.0067 -0.1361 -3.9705
 8422SOL     OW32123   0.157  11.694  11.537 -0.1684 -0.5023  0.2881
 8422SOL    HW132124   0.107  11.773  11.516 -0.0924  0.0555  2.0723
 8422SOL    HW232125   0.091  11.626  11.547 -0.3428 -0.3621  0.1044
 8423SOL     OW32126   1.904  12.072  11.540  0.5816 -0.4096 -0.1824
 8423SOL    HW132127   1.971  12.036  11.598  1.4652  0.8143 -0.3883
 8423SOL    HW232128   1.878  12.154  11.582 -1.8308 -1.4885  0.6107
 8424SOL     OW32129   5.391   2.659   0.407 -0.5690  0.2964 -0.2614
 8424SOL    HW132130   5.391   2.748   0.442 -0.2493  0.0523  0.3709
 8424SOL    HW232131   5.483   2.639   0.392 -0.6021 -0.0832  0.0182
 8425SOL     OW32132   3.267   7.072   4.368  0.4067  0.0789 -0.1887
 8425SOL    HW132133   3.207   7.135   4.408  0.1971  0.9264 -1.7170
 8425SOL    HW232134   3.346   7.123   4.351  1.5319 -0.9809  1.6226
 8426SOL     OW32135   6.706   7.243   1.788 -0.0741  0.2320  0.3497
 8426SOL    HW132136   6.761   7.167   1.804 -1.2158 -0.9821 -1.0709
 8426SOL    HW232137   6.674   7.270   1.874  0.5632 -0.7392  0.8958
 8427SOL     OW32138  11.309   0.349   9.719 -0.4925 -0.1601 -0.0186
 8427SOL    HW132139  11.225   0.326   9.678 -0.9518  1.6906 -0.2505
 8427SOL    HW232140  11.332   0.274   9.772 -2.3822 -0.6709  0.1512
 8428SOL     OW32141   2.495   8.854  10.678  0.5776 -0.0125 -0.5853
 8428SOL    HW132142   2.427   8.829  10.616  1.6189 -0.3453 -1.6376
 8428SOL    HW232143   2.491   8.787  10.747  0.3597 -0.4769 -1.0463
 8429SOL     OW32144   4.825   0.638   9.471  0.0463  0.2887 -0.4098
 8429SOL    HW132145   4.744   0.647   9.521 -0.5056 -1.5682 -0.8907
 8429SOL    HW232146   4.885   0.592   9.530  0.3002  0.4898 -0.5114
 8430SOL     OW32147  12.527   3.776   2.590  0.3612 -0.5987 -0.3608
 8430SOL    HW132148  12.461   3.781   2.521  1.1462 -0.7820 -1.1514
 8430SOL    HW232149  12.607   3.807   2.548  0.8552 -0.7034  0.4822
 8431SOL     OW32150   4.731   0.460   1.420 -0.2139  0.1203 -0.3029
 8431SOL    HW132151   4.730   0.550   1.452  0.8549  0.0130  0.0842
 8431SOL    HW232152   4.733   0.407   1.500  1.1001 -0.1833 -0.5089
 8432SOL     OW32153   9.880  11.614   1.298 -0.0675 -0.1051 -0.2173
 8432SOL    HW132154   9.921  11.700   1.290 -0.7906  0.2646 -0.0608
 8432SOL    HW232155   9.805  11.618   1.239 -1.7222  0.3708  1.8118
 8433SOL     OW32156   8.702   3.893   2.764 -0.1529 -0.2349 -0.0278
 8433SOL    HW132157   8.705   3.947   2.843 -0.1162  0.2018 -0.3246
 8433SOL    HW232158   8.616   3.851   2.768 -0.1914 -0.1402  0.1965
 8434SOL     OW32159   8.104   6.443  11.707 -0.3979  0.5056 -0.2190
 8434SOL    HW132160   8.062   6.448  11.621  0.8388  0.0085 -0.8620
 8434SOL    HW232161   8.168   6.514  11.707 -1.1682  1.2379  0.7514
 8435SOL     OW32162  10.414   6.603   7.691  0.1469  0.1800 -0.2085
 8435SOL    HW132163  10.485   6.551   7.727  0.0314  0.4488  0.4058
 8435SOL    HW232164  10.339   6.586   7.749 -0.2439  0.0517 -0.7332
 8436SOL     OW32165   9.183   0.510   3.484  0.5664  0.2969 -0.3216
 8436SOL    HW132166   9.105   0.521   3.538  0.9343 -0.6073  0.4150
 8436SOL    HW232167   9.168   0.428   3.436  0.3381  0.9777 -1.4458
 8437SOL     OW32168   0.698  12.493  11.639 -0.1533 -0.3666 -0.0533
 8437SOL    HW132169   0.613  12.525  11.671  0.1596  1.9881 -1.3575
 8437SOL    HW232170   0.762  12.551  11.680  0.7933 -1.6997  0.3861
 8438SOL     OW32171   3.558   1.554   7.400 -0.0680  0.1070  0.2613
 8438SOL    HW132172   3.549   1.625   7.463  1.6583  0.2753  0.3678
 8438SOL    HW232173   3.569   1.599   7.316  0.7593 -0.0328  0.2921
 8439SOL     OW32174   8.902   9.339   4.124  0.5547  0.5989  0.1517
 8439SOL    HW132175   8.959   9.371   4.054  2.6912  1.9089  2.3190
 8439SOL    HW232176   8.873   9.418   4.169 -0.7205 -0.2121  0.7928
 8440SOL     OW32177   5.962   6.962   5.792  0.6587 -0.3623  0.8854
 8440SOL    HW132178   6.000   7.045   5.761  0.5847 -0.7568 -0.2835
 8440SOL    HW232179   5.955   6.908   5.714 -3.8781  0.2378  0.6125
 8441SOL     OW32180   3.450   1.646  10.733 -0.2427  0.1557 -0.2714
 8441SOL    HW132181   3.407   1.607  10.810  0.1809  0.1004 -0.0613
 8441SOL    HW232182   3.536   1.673  10.765 -0.1870  0.4240 -0.6501
 8442SOL     OW32183   7.242   2.066   4.001  0.0506 -0.4441 -0.1722
 8442SOL    HW132184   7.197   2.144   4.033 -0.2469 -1.5480  2.4357
 8442SOL    HW232185   7.172   2.002   3.988  0.3939 -0.6145 -1.2509
 8443SOL     OW32186   5.674   5.431   1.189 -0.6428  0.4608 -1.1610
 8443SOL    HW132187   5.667   5.518   1.228 -0.4933  1.4278 -3.1792
 8443SOL    HW232188   5.766   5.425   1.162 -0.2556 -0.9763  0.3135
 8444SOL     OW32189   9.656   1.590   6.226  0.0687 -0.0534  0.0216
 8444SOL    HW132190   9.607   1.600   6.145  0.3603 -0.5092 -0.2196
 8444SOL    HW232191   9.598   1.542   6.284  0.1237 -0.3525 -0.1681
 8445SOL     OW32192   1.675   1.704   9.213  0.1397  0.2250  0.3133
 8445SOL    HW132193   1.700   1.618   9.181 -0.3086 -0.5406  1.8812
 8445SOL    HW232194   1.582   1.710   9.196  0.6643  1.6964 -2.5110
 8446SOL     OW32195   3.685  10.156  10.785  0.4179  0.0991 -0.6782
 8446SOL    HW132196   3.705  10.065  10.806 -1.0610 -0.2992 -0.8671
 8446SOL    HW232197   3.769  10.201  10.787  1.1806 -1.2938 -0.6849
 8447SOL     OW32198   7.572   5.883  11.913 -0.2137 -0.5806 -0.3907
 8447SOL    HW132199   7.566   5.968  11.956 -0.0318 -1.0284  0.5497
 8447SOL    HW232200   7.626   5.899  11.837 -0.2542  0.1659 -0.2744
 8448SOL     OW32201  11.482   8.815   7.016 -0.6180  0.2944  0.8427
 8448SOL    HW132202  11.503   8.769   7.097 -0.1268  0.2561  0.6989
 8448SOL    HW232203  11.486   8.748   6.947  0.5587  0.6247  0.5698
 8449SOL     OW32204   4.287   1.008  12.335 -0.1339 -0.1287  0.2630
 8449SOL    HW132205   4.284   0.917  12.363 -0.0932  0.2532  1.6018
 8449SOL    HW232206   4.379   1.023  12.313 -0.6211 -1.2138 -2.9925
 8450SOL     OW32207   5.590   1.802   9.415  0.2850  0.0479  1.2645
 8450SOL    HW132208   5.671   1.754   9.401 -0.0430 -0.7820  2.1429
 8450SOL    HW232209   5.589   1.823   9.508  0.4770  1.8927  0.8854
 8451SOL     OW32210   8.301   8.072  10.178 -0.6439 -0.3396  0.4349
 8451SOL    HW132211   8.369   8.121  10.132  0.2068 -0.8150  1.1608
 8451SOL    HW232212   8.231   8.136  10.192 -0.3275  0.1729 -0.2558
 8452SOL     OW32213   5.160  11.207  12.265 -0.4228 -0.3208  0.1242
 8452SOL    HW132214   5.222  11.193  12.337 -0.8639 -0.4185  0.4944
 8452SOL    HW232215   5.139  11.118  12.234  0.1034 -0.2562 -0.4191
 8453SOL     OW32216   4.433   6.463  11.205 -1.0541  0.3638 -0.7264
 8453SOL    HW132217   4.415   6.462  11.110  1.3875  0.1384 -1.2389
 8453SOL    HW232218   4.526   6.482  11.212 -1.3183  1.1273  1.6987
 8454SOL     OW32219   8.133   0.711   7.317  0.2719 -0.2108  0.1678
 8454SOL    HW132220   8.096   0.626   7.293 -0.1195  0.0903 -0.3136
 8454SOL    HW232221   8.218   0.690   7.356  0.3728 -0.7890 -0.3592
 8455SOL     OW32222   7.264   1.817   7.589  0.0237 -0.5496 -0.2887
 8455SOL    HW132223   7.185   1.827   7.537 -0.6260 -1.6234  0.4706
 8455SOL    HW232224   7.334   1.800   7.525 -0.2226  0.9793 -1.0073
 8456SOL     OW32225   1.953  10.305  12.345 -0.1342  0.3182  0.2555
 8456SOL    HW132226   1.943  10.214  12.372 -0.8315  0.0562 -0.8256
 8456SOL    HW232227   2.036  10.307  12.297 -0.0396  0.2944  0.4158
 8457SOL     OW32228   3.303   8.977   6.518  0.1871  0.2740  0.2549
 8457SOL    HW132229   3.337   8.941   6.436 -2.7248  4.0036 -2.9607
 8457SOL    HW232230   3.342   9.064   6.524 -2.5493  1.5839  0.6140
 8458SOL     OW32231   5.759   2.405   1.277 -0.2053  0.2610 -0.0588
 8458SOL    HW132232   5.702   2.352   1.333  1.6294 -1.3392  0.3952
 8458SOL    HW232233   5.733   2.382   1.188  0.7787 -1.7363  0.1254
 8459SOL     OW32234   2.665  11.984  11.523 -0.1941  0.1581  0.1585
 8459SOL    HW132235   2.739  11.927  11.506 -0.1798  0.2201  0.0013
 8459SOL    HW232236   2.611  11.978  11.443  2.1524  3.9976 -2.0648
 8460SOL     OW32237   1.657   7.872   2.071  0.2273 -0.3624 -0.2033
 8460SOL    HW132238   1.655   7.782   2.037  1.0346 -0.3489 -0.2892
 8460SOL    HW232239   1.597   7.870   2.145  1.0659 -1.2598  0.4774
 8461SOL     OW32240   4.435  11.910   4.738 -0.0774 -0.2695  0.0247
 8461SOL    HW132241   4.488  11.948   4.668 -1.0225  2.5653  0.6945
 8461SOL    HW232242   4.350  11.892   4.697  0.3049 -1.4860 -0.2427
 8462SOL     OW32243   7.596   1.776   3.500 -0.0692 -0.4472 -0.1576
 8462SOL    HW132244   7.558   1.782   3.588 -0.4955 -1.9097 -0.2143
 8462SOL    HW232245   7.539   1.831   3.446  0.6224  1.0747  0.5727
 8463SOL     OW32246   5.911   2.737  11.115 -0.5218  0.2388  0.5260
 8463SOL    HW132247   5.825   2.700  11.133 -0.6521  0.1029 -0.3227
 8463SOL    HW232248   5.963   2.662  11.086 -0.7861  0.6730 -1.2042
 8464SOL     OW32249   8.060   6.747   8.543 -0.2157  0.6885 -0.0007
 8464SOL    HW132250   8.028   6.773   8.457 -0.1338  1.7098  0.2680
 8464SOL    HW232251   8.128   6.811   8.564 -1.4398  1.5611  1.5859
 8465SOL     OW32252   8.496   6.362   0.810 -0.4740 -0.4391 -0.0795
 8465SOL    HW132253   8.472   6.454   0.818 -0.3351 -0.5691  2.5770
 8465SOL    HW232254   8.431   6.315   0.861  0.4563 -1.6506  0.0441
 8466SOL     OW32255  11.057   6.857   6.652  0.2405  0.0985 -0.2279
 8466SOL    HW132256  11.079   6.796   6.722  1.0350  1.1551  0.4743
 8466SOL    HW232257  10.986   6.910   6.687  0.1097  0.1150 -0.5154
 8467SOL     OW32258  11.956   2.856   7.770  0.4910 -0.5515 -0.4686
 8467SOL    HW132259  11.897   2.784   7.747 -0.9037  0.4105 -0.0504
 8467SOL    HW232260  11.992   2.885   7.686  1.4808 -2.0407 -0.5969
 8468SOL     OW32261  10.341  10.510   0.941  0.4094  0.2049 -0.0496
 8468SOL    HW132262  10.311  10.422   0.918 -1.5439  0.0875  2.4890
 8468SOL    HW232263  10.422  10.496   0.990 -1.0010 -0.4516  2.2212
 8469SOL     OW32264   8.923   8.995   3.415 -0.3306  0.3121  0.0803
 8469SOL    HW132265   8.903   9.017   3.324 -0.8436 -1.3272 -0.2392
 8469SOL    HW232266   8.994   8.931   3.409  0.0784  0.6796  0.8739
 8470SOL     OW32267   7.479   6.832  11.135 -0.0494  0.3073 -0.3316
 8470SOL    HW132268   7.410   6.815  11.200  0.6955  0.2337  0.4543
 8470SOL    HW232269   7.524   6.909  11.168  0.5117  0.1027 -0.6090
 8471SOL     OW32270   8.772   0.949   2.048 -0.1475  0.2078 -0.2101
 8471SOL    HW132271   8.692   0.899   2.067 -0.3763  0.9363  0.7943
 8471SOL    HW232272   8.805   0.976   2.133  0.9911  0.2240 -0.6395
 8472SOL     OW32273   3.730  11.999   1.909 -0.2588 -0.6055 -0.3592
 8472SOL    HW132274   3.803  11.972   1.854  0.7213 -1.3588  1.2166
 8472SOL    HW232275   3.680  12.061   1.856  1.1756 -0.5548 -1.6949
 8473SOL     OW32276   7.700   6.212   2.713  0.2210  0.6417  0.4034
 8473SOL    HW132277   7.693   6.308   2.708 -0.0003  0.5767 -1.6354
 8473SOL    HW232278   7.656   6.181   2.634  0.5475 -1.1445  0.8782
 8474SOL     OW32279  11.712   1.019   1.290 -0.1344 -0.2896  0.0129
 8474SOL    HW132280  11.623   1.050   1.277  0.0830  0.0781 -0.6935
 8474SOL    HW232281  11.755   1.034   1.205  0.3174 -1.4010  0.0218
 8475SOL     OW32282  10.709   8.435   9.316  0.7404  0.3609 -0.2248
 8475SOL    HW132283  10.756   8.463   9.394  1.6221  0.0957 -0.6374
 8475SOL    HW232284  10.643   8.373   9.348  1.1576  0.1792  0.2967
 8476SOL     OW32285   6.227  11.451   5.971  0.4947 -0.0818  0.6227
 8476SOL    HW132286   6.171  11.529   5.974 -2.7551 -2.2317  2.3352
 8476SOL    HW232287   6.205  11.410   5.887  0.9252 -0.0119  0.4752
 8477SOL     OW32288   1.089   7.451  10.184  0.6200  0.4271  0.0983
 8477SOL    HW132289   1.008   7.455  10.236  0.1386 -0.2763 -0.5846
 8477SOL    HW232290   1.059   7.455  10.093  1.4529  1.5962 -0.1475
 8478SOL     OW32291   4.973   0.973   9.265  0.6479  0.0848  0.1067
 8478SOL    HW132292   4.972   1.068   9.260  0.6712  0.1347  0.9674
 8478SOL    HW232293   5.051   0.951   9.315  0.4966 -0.3751  0.1523
 8479SOL     OW32294  10.372   6.516   4.506  0.4954 -0.3389  0.2102
 8479SOL    HW132295  10.291   6.495   4.552  0.0016  0.9250 -0.0324
 8479SOL    HW232296  10.354   6.599   4.462  2.2227  0.4711  0.9121
 8480SOL     OW32297   2.920   7.147   5.352 -0.2805 -0.3252 -0.4924
 8480SOL    HW132298   2.825   7.151   5.364 -0.1664  1.2441  0.0987
 8480SOL    HW232299   2.947   7.072   5.405 -1.1281 -0.4568 -0.2286
 8481SOL     OW32300   9.364   6.907   0.747  0.1249  0.3120 -0.0644
 8481SOL    HW132301   9.269   6.896   0.744  0.2779 -1.6433  0.9297
 8481SOL    HW232302   9.392   6.895   0.656 -0.5094  0.0864 -0.2352
 8482SOL     OW32303   2.589  10.512   0.868  0.1757  0.1991  0.5427
 8482SOL    HW132304   2.570  10.604   0.886  0.9737  0.3430  0.6640
 8482SOL    HW232305   2.644  10.513   0.789  0.0820 -0.1807  0.4690
 8483SOL     OW32306   7.894  12.419   8.913  0.0719  0.4927  0.6434
 8483SOL    HW132307   7.928  12.386   8.996  2.9901  0.3713 -0.4919
 8483SOL    HW232308   7.958  12.485   8.885 -1.1834  1.0015 -1.2013
 8484SOL     OW32309   6.399   6.295  11.389  0.1538 -0.0601 -0.0948
 8484SOL    HW132310   6.400   6.389  11.406  0.8485  0.0079 -0.4824
 8484SOL    HW232311   6.306   6.270  11.394 -0.0989  0.7541 -0.6161
 8485SOL     OW32312  12.465   3.578   3.239 -0.3448 -0.0808  0.1664
 8485SOL    HW132313  12.467   3.496   3.190  2.2310  1.2150 -2.2068
 8485SOL    HW232314  12.519   3.561   3.316 -1.4492 -1.1293  0.7353
 8486SOL     OW32315   7.813   9.199   8.607  0.0592 -0.0853  0.5821
 8486SOL    HW132316   7.788   9.158   8.524  2.4065  0.7149 -0.6410
 8486SOL    HW232317   7.853   9.128   8.658  0.3385 -0.2087  0.2004
 8487SOL     OW32318   7.838   3.370   7.920  0.0125  0.0436 -0.3452
 8487SOL    HW132319   7.910   3.356   7.858  1.2131  0.8839  0.8064
 8487SOL    HW232320   7.828   3.465   7.924 -1.8894 -0.0696 -1.2503
 8488SOL     OW32321   9.706   1.161   1.974 -0.1736  0.1746 -0.3366
 8488SOL    HW132322   9.759   1.110   1.913 -2.3522 -1.9611 -0.5995
 8488SOL    HW232323   9.728   1.126   2.060 -0.1610  0.2435 -0.3117
 8489SOL     OW32324   7.324  11.677  11.895  0.5619 -0.0467  0.5470
 8489SOL    HW132325   7.239  11.717  11.878  0.5917 -0.0946  0.2927
 8489SOL    HW232326   7.364  11.734  11.961  1.2323  1.2314 -0.8977
 8490SOL     OW32327   8.586   1.387   9.437  0.1205 -0.0073 -0.1317
 8490SOL    HW132328   8.525   1.460   9.448 -0.6574 -0.6709  0.0597
 8490SOL    HW232329   8.624   1.401   9.350  0.6983  1.1381  0.2775
 8491SOL     OW32330   2.002   1.845   6.831  0.0055 -0.6746 -0.5639
 8491SOL    HW132331   1.908   1.838   6.815  0.2654  0.7949 -3.3540
 8491SOL    HW232332   2.029   1.922   6.782  2.8409 -1.6307 -0.6943
 8492SOL     OW32333   9.239   0.440   0.088 -0.0746 -0.2268 -0.3994
 8492SOL    HW132334   9.241   0.517   0.032  0.2601 -0.0902 -0.2005
 8492SOL    HW232335   9.286   0.373   0.039 -0.1949 -0.2481 -0.4863
 8493SOL     OW32336   9.528   1.693   1.893 -0.1046  0.5547 -0.0984
 8493SOL    HW132337   9.455   1.667   1.949  1.2951 -1.3989  0.9699
 8493SOL    HW232338   9.583   1.748   1.949 -0.1259  0.9784 -0.4916
 8494SOL     OW32339   0.237  10.207  10.902  0.1320  0.3016  0.0057
 8494SOL    HW132340   0.292  10.254  10.965 -0.0681  1.5360 -0.7183
 8494SOL    HW232341   0.282  10.219  10.818 -1.0030  0.9520 -0.5259
 8495SOL     OW32342   8.426   5.154   8.013 -0.0179  0.4166 -0.1356
 8495SOL    HW132343   8.478   5.213   8.068 -0.1616  0.4165  0.0012
 8495SOL    HW232344   8.343   5.146   8.059 -0.4748  1.1370 -0.8135
 8496SOL     OW32345  11.306   9.750  10.750  0.2314  0.0103  0.2045
 8496SOL    HW132346  11.299   9.821  10.686  1.1775  0.6587  0.7970
 8496SOL    HW232347  11.400   9.735  10.759  0.0634 -0.9383  0.5190
 8497SOL     OW32348  10.513  10.749   9.031 -0.0832  0.9272 -0.2413
 8497SOL    HW132349  10.466  10.831   9.017 -1.6726 -0.2487 -2.4174
 8497SOL    HW232350  10.602  10.767   8.999  0.0698  2.2118  0.7999
 8498SOL     OW32351   3.011   8.453  10.070  0.1131  0.4111 -0.2936
 8498SOL    HW132352   3.008   8.548  10.065 -0.9242  0.3982 -0.2706
 8498SOL    HW232353   3.099   8.433  10.101  0.1757  1.3875  0.2050
 8499SOL     OW32354  11.770   5.610  10.382  0.7869  0.0121 -0.2968
 8499SOL    HW132355  11.791   5.555  10.458  0.3494 -0.7091 -0.6871
 8499SOL    HW232356  11.818   5.571  10.310 -1.0903 -1.1252 -1.0159
 8500SOL     OW32357   6.948   9.512   5.645 -0.3605  0.2242  0.1823
 8500SOL    HW132358   7.027   9.493   5.594 -0.3585  0.1982  0.1951
 8500SOL    HW232359   6.877   9.502   5.582 -0.3974 -0.2951  0.2988
 8501SOL     OW32360  11.936   7.580   0.607  0.5513  0.0456 -0.2105
 8501SOL    HW132361  11.854   7.576   0.656  1.1791  1.0058  0.9744
 8501SOL    HW232362  11.972   7.666   0.626  1.1096  0.2311 -1.9473
 8502SOL     OW32363   3.567  11.789   4.953  0.1964  0.2919  0.0318
 8502SOL    HW132364   3.516  11.866   4.931 -0.7333  0.3392  2.1170
 8502SOL    HW232365   3.646  11.823   4.995 -0.5588  0.1278  1.6307
 8503SOL     OW32366   0.613   3.975   1.761  0.4904  0.3558  0.5723
 8503SOL    HW132367   0.649   3.920   1.830 -0.7152 -1.1948  0.0299
 8503SOL    HW232368   0.567   4.045   1.808 -3.0221 -2.3481  1.6399
 8504SOL     OW32369   2.520   7.797   6.057  0.0317 -0.1789 -0.0515
 8504SOL    HW132370   2.439   7.843   6.082 -1.7637 -2.5825 -1.0022
 8504SOL    HW232371   2.548   7.753   6.137  1.3749  1.8486  0.6841
 8505SOL     OW32372   3.222   1.877   2.692 -0.1136  0.3986  0.0854
 8505SOL    HW132373   3.249   1.940   2.759 -1.3164  1.0462 -0.0240
 8505SOL    HW232374   3.203   1.930   2.615 -0.4286 -0.1743 -0.2352
 8506SOL     OW32375   3.027   9.989   8.744  0.5670  0.2848  0.0456
 8506SOL    HW132376   3.062   9.918   8.797  0.2270 -0.7760 -1.1100
 8506SOL    HW232377   3.076  10.066   8.772  3.3444 -0.9787 -0.9719
 8507SOL     OW32378   6.421   6.063   2.766  0.8507  0.2468  0.4525
 8507SOL    HW132379   6.457   6.050   2.854  1.9509  2.6438  0.4215
 8507SOL    HW232380   6.494   6.099   2.715  0.1469 -0.8126 -1.4033
 8508SOL     OW32381  11.825   5.702  11.739  0.1049 -0.5512  0.1908
 8508SOL    HW132382  11.818   5.748  11.823 -0.6611 -1.3690  0.5887
 8508SOL    HW232383  11.821   5.771  11.673 -0.0613  0.0309  0.8038
 8509SOL     OW32384   5.086   0.352   2.693 -0.0435  0.1004 -0.0688
 8509SOL    HW132385   5.069   0.439   2.730  1.1199 -0.4395  1.8790
 8509SOL    HW232386   5.019   0.296   2.732  0.8824 -0.3794  0.8791
 8510SOL     OW32387   6.420   6.815  10.807  1.2562  0.1513 -0.4833
 8510SOL    HW132388   6.399   6.722  10.802 -1.6069  0.7092 -0.8637
 8510SOL    HW232389   6.433   6.842  10.716 -2.0672  0.8234 -0.8850
 8511SOL     OW32390   6.615   6.959   9.968  0.0421 -0.3453 -0.2130
 8511SOL    HW132391   6.600   7.051   9.991 -0.7625 -0.4750 -0.2059
 8511SOL    HW232392   6.696   6.936  10.013  0.1164  0.2942 -0.0186
 8512SOL     OW32393   2.515   0.417   8.631 -0.3367 -0.2769  0.3204
 8512SOL    HW132394   2.503   0.325   8.605 -0.8795 -0.2210  0.3687
 8512SOL    HW232395   2.599   0.442   8.592 -0.0893 -0.8499  0.4634
 8513SOL     OW32396   2.446   2.229   0.535  0.6468  0.0183 -0.4339
 8513SOL    HW132397   2.437   2.323   0.526  1.0847  0.0731 -0.3283
 8513SOL    HW232398   2.530   2.209   0.495  0.3248 -0.3963 -0.9089
 8514SOL     OW32399   7.592  10.741   4.039  0.1355  0.0269  0.1700
 8514SOL    HW132400   7.616  10.670   4.100 -1.1652 -2.0782 -1.6280
 8514SOL    HW232401   7.671  10.796   4.035  2.0445 -2.5275  0.0323
 8515SOL     OW32402   3.635   3.514   2.425 -0.1981 -0.4664 -0.0764
 8515SOL    HW132403   3.666   3.458   2.355  0.0754  0.3777 -0.6482
 8515SOL    HW232404   3.541   3.525   2.407 -0.0657  0.0028 -0.4970
 8516SOL     OW32405   3.946   8.704   5.462  0.4070  0.0668 -0.1376
 8516SOL    HW132406   4.029   8.675   5.502  0.8344  0.7962 -0.4689
 8516SOL    HW232407   3.907   8.624   5.427  0.0100 -0.6146  1.7135
 8517SOL     OW32408   8.921   5.171  11.936  0.7445 -0.1177 -0.4016
 8517SOL    HW132409   9.005   5.173  11.889  1.1803  0.7932  0.3815
 8517SOL    HW232410   8.938   5.117  12.013  0.7886  0.5520  0.0654
 8518SOL     OW32411   1.453  12.321   3.284 -0.0325 -0.1827  0.1466
 8518SOL    HW132412   1.521  12.329   3.218 -0.2619  2.7145  0.1123
 8518SOL    HW232413   1.497  12.286   3.361  0.8401 -0.9703 -0.6933
 8519SOL     OW32414   2.417   3.105   5.460  0.4146 -0.1621 -0.7671
 8519SOL    HW132415   2.373   3.189   5.446  0.6844 -0.1764 -1.8206
 8519SOL    HW232416   2.347   3.045   5.486 -0.3952 -0.3905 -3.2424
 8520SOL     OW32417   8.452   6.500   9.350 -0.2778  0.0595  0.3024
 8520SOL    HW132418   8.417   6.531   9.434 -1.2741  0.2131 -0.1545
 8520SOL    HW232419   8.403   6.420   9.332 -0.9447  0.6722 -0.7038
 8521SOL     OW32420   3.161   5.026   8.149 -0.4416 -0.1660 -0.0985
 8521SOL    HW132421   3.121   5.059   8.068 -0.4671  0.3038  0.1019
 8521SOL    HW232422   3.187   5.105   8.197 -1.2522 -0.4092  0.7694
 8522SOL     OW32423   7.561   7.500   8.562 -0.3041  0.0628  0.4634
 8522SOL    HW132424   7.556   7.510   8.657 -1.0161  0.6049  0.3790
 8522SOL    HW232425   7.507   7.571   8.528  0.0170 -0.0754 -0.3511
 8523SOL     OW32426   4.358   4.186   3.130 -0.1392 -0.4852  0.5890
 8523SOL    HW132427   4.372   4.188   3.036 -1.2571  1.1424  0.4173
 8523SOL    HW232428   4.444   4.203   3.168  0.3141 -1.1273 -0.1246
 8524SOL     OW32429   4.778  11.766   2.227 -0.6011  0.1769 -0.4503
 8524SOL    HW132430   4.748  11.786   2.138 -0.4854  0.5168 -0.4147
 8524SOL    HW232431   4.725  11.821   2.284 -0.1282  0.5553 -0.3656
 8525SOL     OW32432   7.684  10.276   5.443  0.2194  0.1252 -0.1732
 8525SOL    HW132433   7.620  10.270   5.372 -0.1088 -1.1256  0.2033
 8525SOL    HW232434   7.720  10.364   5.436 -0.6763  0.4264 -1.1424
 8526SOL     OW32435  12.486   0.398   1.547  0.2597  0.5385 -0.2799
 8526SOL    HW132436  12.428   0.461   1.590 -0.5675 -0.9790  0.9591
 8526SOL    HW232437  12.467   0.407   1.454 -0.3356  1.6300 -0.0654
 8527SOL     OW32438   9.013   2.319   0.879 -0.0658 -0.2530  0.0825
 8527SOL    HW132439   8.925   2.308   0.841 -0.5256 -0.9055  1.2808
 8527SOL    HW232440   9.071   2.278   0.815 -0.7078 -0.4103 -0.4192
 8528SOL     OW32441   1.458   6.712   6.418  0.1798  0.0865  0.2750
 8528SOL    HW132442   1.448   6.807   6.421  1.3533  0.2737 -0.7610
 8528SOL    HW232443   1.537   6.695   6.471  0.6295 -0.1754 -0.4638
 8529SOL     OW32444   3.000   7.313   8.781 -0.0254  0.3188  0.5462
 8529SOL    HW132445   3.022   7.353   8.696  0.0433  1.9130  1.2844
 8529SOL    HW232446   2.937   7.373   8.820  0.7375  0.1759  2.0784
 8530SOL     OW32447  10.224   5.206   6.881 -0.0812  0.3244 -0.3510
 8530SOL    HW132448  10.249   5.143   6.949 -0.4181 -0.1076 -0.6269
 8530SOL    HW232449  10.291   5.275   6.887  0.4645 -0.2071 -0.2510
 8531SOL     OW32450   5.794   9.991  12.515 -0.0825  0.5455  0.5618
 8531SOL    HW132451   5.791  10.087  12.519 -1.5987  0.4932  2.7585
 8531SOL    HW232452   5.759   9.969  12.429 -0.3531  1.9462  0.2918
 8532SOL     OW32453   7.113  11.612   5.981  0.7114  0.0644  0.5892
 8532SOL    HW132454   7.192  11.558   5.992  1.2679  1.1167  2.0488
 8532SOL    HW232455   7.042  11.555   6.011  0.9562 -0.7462 -0.3279
 8533SOL     OW32456  11.459  10.122   2.690 -0.1816 -0.3871 -0.4323
 8533SOL    HW132457  11.448  10.197   2.747 -1.3325 -2.5480  2.4249
 8533SOL    HW232458  11.554  10.108   2.686 -0.0523  0.1553  0.5158
 8534SOL     OW32459   3.012   6.263   5.103 -0.2609  0.5902  0.0032
 8534SOL    HW132460   3.006   6.350   5.143  0.3426  0.8667 -0.4956
 8534SOL    HW232461   3.049   6.279   5.016  3.0313 -0.5000  1.0902
 8535SOL     OW32462   3.815   6.084   5.214 -0.0860  0.5790  0.2272
 8535SOL    HW132463   3.727   6.056   5.190  0.6753 -0.8804 -1.0252
 8535SOL    HW232464   3.864   6.084   5.132  1.3020  0.5219  1.0095
 8536SOL     OW32465   4.531  10.654   3.545  0.3590 -0.0286 -0.1398
 8536SOL    HW132466   4.443  10.663   3.583 -0.6478 -1.4933 -1.9231
 8536SOL    HW232467   4.581  10.608   3.612 -0.4017  0.2882  0.6715
 8537SOL     OW32468   0.199   8.648  10.985 -0.0835 -0.0361 -0.2108
 8537SOL    HW132469   0.139   8.652  10.910 -0.8566 -0.6903  0.3634
 8537SOL    HW232470   0.179   8.565  11.028  1.2634 -0.2879 -0.0191
 8538SOL     OW32471   0.956   3.559   6.236  0.2124 -0.1496 -0.5557
 8538SOL    HW132472   1.016   3.485   6.244  0.8018  0.3536 -0.1949
 8538SOL    HW232473   0.880   3.524   6.190  1.0144 -0.6799 -1.5094
 8539SOL     OW32474   4.500   8.410   7.773 -0.4255  0.2267  0.4788
 8539SOL    HW132475   4.535   8.329   7.735 -0.1770  0.0451  1.0811
 8539SOL    HW232476   4.506   8.397   7.867  1.0006  1.5145  0.6212
 8540SOL     OW32477  10.587  10.187   8.906  0.2900  0.2606  0.6044
 8540SOL    HW132478  10.568  10.248   8.834  0.0242  0.0200  0.4669
 8540SOL    HW232479  10.524  10.116   8.894 -0.3208  0.6226  1.5803
 8541SOL     OW32480   5.728  10.261   9.278  0.2040 -0.2261  0.4300
 8541SOL    HW132481   5.746  10.298   9.365  1.9054 -0.2379  0.1099
 8541SOL    HW232482   5.633  10.263   9.271  0.0916  0.9726  1.7859
 8542SOL     OW32483   0.764   4.717   1.965 -0.2244  0.1901 -0.1470
 8542SOL    HW132484   0.684   4.704   1.914  0.8131  0.8853 -2.0229
 8542SOL    HW232485   0.833   4.678   1.912  0.5366 -2.0275  2.2440
 8543SOL     OW32486   2.756   8.337  10.056  0.3643  0.0213 -0.4101
 8543SOL    HW132487   2.677   8.385  10.082  0.9069  0.9942 -0.5267
 8543SOL    HW232488   2.828   8.398  10.073  1.2223 -1.2521  0.7814
 8544SOL     OW32489   9.867  10.279  12.425 -0.0805  0.3539 -0.3034
 8544SOL    HW132490   9.817  10.344  12.474  0.0764  1.6665 -1.8077
 8544SOL    HW232491   9.947  10.266  12.477 -0.2915  1.0569  0.2032
 8545SOL     OW32492   1.488   7.429  12.092 -0.0421 -0.3200 -0.3446
 8545SOL    HW132493   1.464   7.439  12.184 -0.5747 -0.0310 -0.5136
 8545SOL    HW232494   1.566   7.485  12.082 -0.2847  0.0503 -0.1893
 8546SOL     OW32495  11.515  11.758  11.062 -0.2127  0.1878 -0.7355
 8546SOL    HW132496  11.439  11.809  11.036 -1.0947  0.0891  1.3785
 8546SOL    HW232497  11.481  11.699  11.130  1.9130  0.8411  1.0129
 8547SOL     OW32498   1.913   1.845   5.069  0.6189  0.0966 -0.0413
 8547SOL    HW132499   1.835   1.875   5.023  1.0801 -0.2185 -1.0370
 8547SOL    HW232500   1.949   1.775   5.015  2.2096  0.9770 -0.1871
 8548SOL     OW32501   3.566   3.635   0.380 -0.0579 -0.4616 -0.1452
 8548SOL    HW132502   3.639   3.697   0.373 -0.1491 -0.1506  1.2956
 8548SOL    HW232503   3.607   3.552   0.403 -0.2234  0.1399  2.6707
 8549SOL     OW32504   1.660   5.210   6.501  0.1319  0.6697 -0.0382
 8549SOL    HW132505   1.629   5.211   6.410  1.3295 -1.7952 -0.5559
 8549SOL    HW232506   1.755   5.220   6.493  0.2593  0.2664  0.9306
 8550SOL     OW32507   5.358   2.285   8.820  0.1553 -0.3614 -0.1909
 8550SOL    HW132508   5.320   2.213   8.769 -0.2705  0.3355 -0.8730
 8550SOL    HW232509   5.305   2.361   8.797  0.7969  0.2367  0.2854
 8551SOL     OW32510   6.200   4.819   3.114 -0.2408 -0.1486  0.5001
 8551SOL    HW132511   6.197   4.801   3.208 -0.6017 -2.0737  0.1585
 8551SOL    HW232512   6.292   4.805   3.091 -0.1154  0.5008  0.5765
 8552SOL     OW32513  11.240   5.372  11.750  0.4665 -0.5249 -0.2897
 8552SOL    HW132514  11.332   5.394  11.734  0.3309  0.4465  0.1737
 8552SOL    HW232515  11.190   5.433  11.696  0.0770 -1.3806 -0.9328
 8553SOL     OW32516   5.304   9.321   2.130  0.2880  0.2731 -0.3126
 8553SOL    HW132517   5.373   9.385   2.145  0.0978  1.0480 -2.4262
 8553SOL    HW232518   5.226   9.374   2.111 -0.2616 -0.5734 -0.4612
 8554SOL     OW32519   8.262   0.586   3.199 -0.5361  0.0857  0.1453
 8554SOL    HW132520   8.275   0.526   3.126 -1.8885  0.3286 -0.3232
 8554SOL    HW232521   8.258   0.673   3.159  2.1857  0.6548  0.8903
 8555SOL     OW32522  12.205   9.117   2.096 -0.3512 -0.1287  0.1359
 8555SOL    HW132523  12.213   9.022   2.105 -1.2441 -0.3954 -1.4979
 8555SOL    HW232524  12.129   9.141   2.148 -1.2377 -0.6089 -0.8939
 8556SOL     OW32525   6.684   2.199  12.181 -0.2657 -0.3452  0.0931
 8556SOL    HW132526   6.682   2.287  12.145  0.5370 -1.1319 -2.0254
 8556SOL    HW232527   6.777   2.181  12.195 -0.4859 -0.4978  1.5454
 8557SOL     OW32528   6.346  12.237   4.386 -0.0059  0.2887 -0.3098
 8557SOL    HW132529   6.369  12.330   4.382  1.6305 -0.0837 -0.1397
 8557SOL    HW232530   6.253  12.237   4.409  0.2585  1.8756  1.0086
 8558SOL     OW32531  12.227   2.338   1.209 -0.2035 -0.3769 -0.3034
 8558SOL    HW132532  12.301   2.302   1.259  0.3994 -0.3130 -1.1346
 8558SOL    HW232533  12.185   2.398   1.270  1.9436  1.5451 -0.5690
 8559SOL     OW32534  12.022   9.733   0.089  0.0422 -0.3303 -0.0830
 8559SOL    HW132535  12.105   9.779   0.092 -0.1830  0.3018 -2.0514
 8559SOL    HW232536  11.960   9.791   0.134  0.3795 -0.1474  0.1439
 8560SOL     OW32537   4.094   4.928   4.814  0.0510  0.2606  0.0498
 8560SOL    HW132538   4.055   4.889   4.735 -1.1008  2.5610 -0.6098
 8560SOL    HW232539   4.172   4.973   4.782 -0.8005  1.7971  0.0413
 8561SOL     OW32540   5.606   6.896   5.077  0.2915  0.5023 -0.1050
 8561SOL    HW132541   5.595   6.823   5.016 -2.0532  1.0124 -0.3830
 8561SOL    HW232542   5.701   6.908   5.083  0.6769 -1.5452 -1.2449
 8562SOL     OW32543   1.440   8.687   4.855  0.0545  0.0252  0.0485
 8562SOL    HW132544   1.380   8.706   4.927  0.5557  0.3345  0.3905
 8562SOL    HW232545   1.486   8.770   4.839 -0.1496 -0.0034 -0.7202
 8563SOL     OW32546   3.416   9.939  11.383 -0.2539  0.3198  0.1115
 8563SOL    HW132547   3.461   9.909  11.462 -0.9301  0.5166  0.5822
 8563SOL    HW232548   3.433  10.034  11.380 -0.7432  0.4178  0.3657
 8564SOL     OW32549  11.652   3.829   7.438  0.5492 -0.7671  0.1578
 8564SOL    HW132550  11.659   3.890   7.364 -0.8297 -1.2077 -0.3704
 8564SOL    HW232551  11.608   3.879   7.506 -1.0317 -1.2790 -0.4482
 8565SOL     OW32552  12.082   6.260  11.927  0.1466  0.2503 -0.0745
 8565SOL    HW132553  12.019   6.290  11.861 -0.8410 -3.3862 -0.9756
 8565SOL    HW232554  12.167   6.273  11.886 -0.2210  1.4954 -0.4964
 8566SOL     OW32555   0.959   9.604   9.069 -0.2949 -0.7330  0.0875
 8566SOL    HW132556   1.002   9.564   8.993 -0.3469  0.8528 -0.8255
 8566SOL    HW232557   1.026   9.603   9.137  1.0841  1.1767 -1.1405
 8567SOL     OW32558   8.190   4.292   7.052 -0.6014  0.2587  0.4829
 8567SOL    HW132559   8.256   4.302   6.984 -1.7803 -1.5172 -1.0355
 8567SOL    HW232560   8.155   4.380   7.066 -0.4330  0.6392 -1.3323
 8568SOL     OW32561   6.540   6.441  10.277  0.0611  0.2289  0.4053
 8568SOL    HW132562   6.488   6.398  10.209  0.0717  0.4309  0.2681
 8568SOL    HW232563   6.477   6.464  10.345  0.1925 -0.8479  0.9164
 8569SOL     OW32564   2.808   4.267  10.224  0.2979  0.2972  0.0662
 8569SOL    HW132565   2.757   4.190  10.249  2.4177 -1.2604 -0.1004
 8569SOL    HW232566   2.876   4.273  10.291  1.0509  1.1271 -0.7371
 8570SOL     OW32567   6.655   7.686   9.453  0.4373 -0.0276 -0.1528
 8570SOL    HW132568   6.566   7.676   9.486  0.3581  2.2307  0.5305
 8570SOL    HW232569   6.657   7.634   9.373 -2.1620  1.3978 -1.3005
 8571SOL     OW32570   8.631   6.212   2.892  1.0128 -0.0953  0.0334
 8571SOL    HW132571   8.635   6.211   2.988 -0.3916  2.8572  0.2479
 8571SOL    HW232572   8.542   6.242   2.873  1.8837  1.3190 -2.1170
 8572SOL     OW32573   6.227   8.218   5.977 -0.4144 -0.2880 -0.1180
 8572SOL    HW132574   6.305   8.188   5.930  0.5695 -1.2439  2.0131
 8572SOL    HW232575   6.211   8.305   5.942  2.9547  0.8849  0.8425
 8573SOL     OW32576   4.468   5.180   0.167  0.2873 -0.5877  0.2329
 8573SOL    HW132577   4.426   5.148   0.087  1.0446 -1.6157  0.2319
 8573SOL    HW232578   4.478   5.274   0.152 -0.0900 -0.6750 -0.6435
 8574SOL     OW32579   5.709   3.152   7.587 -0.0095  0.7476 -0.3951
 8574SOL    HW132580   5.717   3.078   7.527  0.9910  0.2161  0.3454
 8574SOL    HW232581   5.785   3.143   7.645 -0.8517  1.3217  0.8486
 8575SOL     OW32582   6.422   8.181   2.824  0.4913  0.4481  0.5456
 8575SOL    HW132583   6.486   8.161   2.756 -0.2371  2.6775 -0.9133
 8575SOL    HW232584   6.341   8.139   2.794  0.3249  0.9154  0.3243
 8576SOL     OW32585   0.855   2.596   9.950  0.7542  0.7719 -0.0652
 8576SOL    HW132586   0.903   2.540   9.890 -0.8860 -0.5561 -0.1997
 8576SOL    HW232587   0.919   2.620  10.018  2.0785  0.6593 -1.2399
 8577SOL     OW32588   8.447  12.411   5.226  0.0226  1.0584  0.3650
 8577SOL    HW132589   8.429  12.321   5.199 -0.8032  0.5348  2.5109
 8577SOL    HW232590   8.498  12.447   5.153 -1.6553 -0.3530 -1.6466
 8578SOL     OW32591   3.751   8.162  10.468  0.3678 -0.0675 -0.2383
 8578SOL    HW132592   3.741   8.243  10.518  0.3171 -0.4559  0.3861
 8578SOL    HW232593   3.820   8.182  10.404  0.5386  0.3812  0.0816
 8579SOL     OW32594   5.341   3.057   6.852 -0.5224  0.4109 -0.0215
 8579SOL    HW132595   5.330   3.123   6.783 -1.7385 -0.9028 -1.1466
 8579SOL    HW232596   5.399   2.992   6.813  0.4250  0.6349  0.9706
 8580SOL     OW32597   3.264   4.868  12.537 -0.2250 -0.3283  0.3257
 8580SOL    HW132598   3.306   4.859  12.623 -1.2763 -0.8630  0.8068
 8580SOL    HW232599   3.214   4.787  12.527 -2.8629  1.1321  0.7571
 8581SOL     OW32600   7.238  10.126  10.497  0.2167 -0.9062 -0.1369
 8581SOL    HW132601   7.148  10.097  10.482 -0.8470  2.4076 -1.0368
 8581SOL    HW232602   7.290  10.074  10.436 -1.1582 -2.3782 -0.1224
 8582SOL     OW32603   0.898   7.458  11.878  0.3747  0.0144 -0.4297
 8582SOL    HW132604   0.902   7.363  11.889  1.5635 -0.0174 -1.0071
 8582SOL    HW232605   0.945   7.476  11.797  0.9611  1.1799  0.1355
 8583SOL     OW32606   0.321   2.307   6.664  0.2915  0.6262  0.4375
 8583SOL    HW132607   0.381   2.233   6.670 -0.3233  0.2197  2.0972
 8583SOL    HW232608   0.236   2.271   6.689 -0.1765  1.7159  0.4741
 8584SOL     OW32609  10.798   9.099   2.332 -0.1254  0.2166  0.6142
 8584SOL    HW132610  10.761   9.170   2.278 -0.7590 -0.8321 -0.3716
 8584SOL    HW232611  10.727   9.074   2.391 -0.4384 -0.6500 -0.1180
 8585SOL     OW32612   2.646  10.005   4.988 -0.4878 -0.0488 -0.0823
 8585SOL    HW132613   2.713  10.038   4.929 -0.3990 -0.4736 -0.2153
 8585SOL    HW232614   2.676  10.033   5.075  0.3687 -1.0555 -0.0275
 8586SOL     OW32615   9.919   6.928   4.418 -0.3361  0.4802 -0.2326
 8586SOL    HW132616   9.947   6.973   4.498  0.7319  0.9215 -0.8394
 8586SOL    HW232617   9.994   6.933   4.359 -1.4529  1.1402 -1.6829
 8587SOL     OW32618   9.116  12.223   3.772  0.7368  0.1297 -0.2400
 8587SOL    HW132619   9.185  12.270   3.819 -0.4193  1.7808 -0.1314
 8587SOL    HW232620   9.036  12.240   3.822 -0.0917 -0.1418 -1.4338
 8588SOL     OW32621   9.861   8.338   2.829  0.5267 -0.3758  0.0461
 8588SOL    HW132622   9.898   8.260   2.870 -0.4233 -0.5560  0.5873
 8588SOL    HW232623   9.785   8.306   2.782 -0.0416  0.2640  0.5151
 8589SOL     OW32624   9.923   8.105   4.969 -0.3546  0.0737  0.2126
 8589SOL    HW132625   9.830   8.109   4.948 -0.2700 -0.8019 -0.3400
 8589SOL    HW232626   9.938   8.184   5.022 -1.0688  1.0633 -0.9979
 8590SOL     OW32627   5.880   5.802   0.377 -0.2354  0.0737 -0.0699
 8590SOL    HW132628   5.964   5.761   0.398  0.5736  1.9826  0.5775
 8590SOL    HW232629   5.835   5.810   0.461  0.1800  1.6441  0.0369
 8591SOL     OW32630  10.086   2.605   3.013 -0.5341  0.2893 -0.4632
 8591SOL    HW132631  10.017   2.671   3.011  0.0607  0.9592  0.2110
 8591SOL    HW232632  10.080   2.561   2.928 -2.2444 -0.1703 -0.1496
 8592SOL     OW32633   3.461  12.458   2.486 -0.0259  0.1194  0.0070
 8592SOL    HW132634   3.549  12.492   2.469  0.5205 -2.0535 -2.0702
 8592SOL    HW232635   3.475  12.366   2.509 -1.7045  0.0197  0.7678
 8593SOL     OW32636  11.898   4.026  12.116  0.1342  0.7176 -0.6309
 8593SOL    HW132637  11.844   3.957  12.077 -0.1700  0.1669  0.7078
 8593SOL    HW232638  11.849   4.107  12.100 -1.7334  0.1257  1.5042
 8594SOL     OW32639   8.375  10.787   5.867 -0.0021 -0.5652  0.6024
 8594SOL    HW132640   8.344  10.859   5.812 -0.2977 -0.6416  0.6647
 8594SOL    HW232641   8.300  10.767   5.923  0.3341 -0.4095  1.1160
 8595SOL     OW32642  10.214  10.569   6.484 -0.0425 -0.2073 -0.0720
 8595SOL    HW132643  10.120  10.576   6.467 -0.4029 -3.6312 -0.2690
 8595SOL    HW232644  10.224  10.600   6.574 -0.9415  2.1636 -0.7154
 8596SOL     OW32645   4.117   0.284   6.347  0.3390 -0.5622  0.3923
 8596SOL    HW132646   4.106   0.371   6.309 -2.4317 -0.7173  0.6674
 8596SOL    HW232647   4.200   0.289   6.395 -0.4484  2.4479  1.6726
 8597SOL     OW32648   0.087   0.813   1.817 -0.0484  1.1828  0.4678
 8597SOL    HW132649   0.077   0.768   1.734  0.7733  1.2899  0.3049
 8597SOL    HW232650   0.030   0.765   1.878  0.8002 -0.0704  0.2994
 8598SOL     OW32651   3.720   9.579   2.654  0.1747  0.1492 -0.1774
 8598SOL    HW132652   3.699   9.612   2.567 -0.2733 -0.3167 -0.2469
 8598SOL    HW232653   3.659   9.507   2.668 -0.6144  1.0262  1.0390
 8599SOL     OW32654   4.509   3.952   7.812 -0.4945 -0.0783 -0.0186
 8599SOL    HW132655   4.479   3.881   7.755 -0.0517  1.2686 -2.0370
 8599SOL    HW232656   4.599   3.927   7.835 -0.4017 -0.2560 -0.5654
 8600SOL     OW32657   3.796   5.987   9.537  0.1325  0.0191 -0.0458
 8600SOL    HW132658   3.743   5.935   9.476 -0.4390  1.1402 -0.5361
 8600SOL    HW232659   3.771   5.956   9.623 -1.3315  0.4936 -0.2693
 8601SOL     OW32660   3.829   4.016   1.667  0.7171  0.1911  0.8725
 8601SOL    HW132661   3.779   3.935   1.658  0.1202  0.5832  0.5731
 8601SOL    HW232662   3.921   3.989   1.655  0.4607 -0.3183 -0.1002
 8602SOL     OW32663   0.781   1.540   2.562 -0.2517  0.4282 -0.4216
 8602SOL    HW132664   0.778   1.635   2.551 -0.7890  0.4247 -0.3061
 8602SOL    HW232665   0.701   1.508   2.520  0.1447 -0.0138 -0.8530
 8603SOL     OW32666   2.970   5.351  10.443  0.3536  0.5659  0.1531
 8603SOL    HW132667   2.980   5.336  10.537 -0.5565 -1.9614 -0.0894
 8603SOL    HW232668   2.907   5.286  10.415  2.4502 -0.4445 -2.6615
 8604SOL     OW32669   7.896   6.038  10.830 -0.0386  0.0447 -0.1191
 8604SOL    HW132670   7.981   6.075  10.805 -1.0286  2.1504 -0.6379
 8604SOL    HW232671   7.876   5.975  10.760  1.4447 -1.1578  0.4820
 8605SOL     OW32672  12.172   3.376   0.506  0.4570 -0.4196  0.2003
 8605SOL    HW132673  12.265   3.379   0.527  0.9120 -0.8101 -1.5509
 8605SOL    HW232674  12.149   3.468   0.489  1.1405 -0.5219 -1.5813
 8606SOL     OW32675  11.843   5.885   6.057 -0.1289 -0.4890 -0.3283
 8606SOL    HW132676  11.932   5.878   6.024  0.5846  0.2535  1.3004
 8606SOL    HW232677  11.810   5.795   6.057  0.8964 -0.8776 -0.2548
 8607SOL     OW32678   0.147   9.403   2.208  0.0898 -0.2758 -0.0021
 8607SOL    HW132679   0.203   9.360   2.144 -3.7521 -1.7785 -2.7648
 8607SOL    HW232680   0.116   9.332   2.265 -1.0552 -0.0238 -0.2776
 8608SOL     OW32681   8.483   4.314   9.607 -0.1183  0.4019 -0.0622
 8608SOL    HW132682   8.436   4.234   9.630 -0.0170 -0.5531 -2.8154
 8608SOL    HW232683   8.576   4.290   9.614 -0.0861  0.1362 -1.2081
 8609SOL     OW32684   6.339   3.855   7.447 -0.2315  0.1489  0.3312
 8609SOL    HW132685   6.257   3.896   7.477 -0.5495 -0.3767  0.2095
 8609SOL    HW232686   6.381   3.825   7.528 -0.1215  0.4832  0.4003
 8610SOL     OW32687   2.053  10.558   0.944 -0.0603  0.3799 -0.4353
 8610SOL    HW132688   2.115  10.487   0.960 -0.1003  0.7643  1.7086
 8610SOL    HW232689   1.967  10.515   0.938 -0.3610  0.2893  2.7729
 8611SOL     OW32690   3.742  10.024   7.709 -0.0808 -0.0238  0.0036
 8611SOL    HW132691   3.667  10.042   7.654  0.7238 -1.4010 -1.6334
 8611SOL    HW232692   3.799  10.100   7.699  0.0177 -0.2226 -1.0338
 8612SOL     OW32693   6.729  12.437   7.379  0.1002 -0.1751 -0.2075
 8612SOL    HW132694   6.641  12.425   7.343  0.7991 -3.0071 -1.3154
 8612SOL    HW232695   6.739  12.367   7.443  1.5533  0.0634 -0.1305
 8613SOL     OW32696   4.497   4.119   1.393 -0.3131  0.1795 -0.3079
 8613SOL    HW132697   4.436   4.053   1.359  0.1915  0.3175 -1.5012
 8613SOL    HW232698   4.568   4.121   1.330 -0.4026  2.0075 -0.3829
 8614SOL     OW32699   1.590   5.943   7.552 -0.3714  0.3561 -0.1209
 8614SOL    HW132700   1.648   5.914   7.482 -0.3825 -3.1197  1.0994
 8614SOL    HW232701   1.649   5.982   7.617  0.6491 -2.4663  0.7791
 8615SOL     OW32702   4.466   9.820  12.417  0.0570  0.2844  0.6488
 8615SOL    HW132703   4.551   9.828  12.461  0.9023  0.2472 -0.8920
 8615SOL    HW232704   4.411   9.887  12.458  1.0777  0.8514  1.1313
 8616SOL     OW32705   5.295   4.985   6.957  0.2066  0.0481  0.0394
 8616SOL    HW132706   5.251   4.986   6.872  0.5434 -0.2772 -0.1449
 8616SOL    HW232707   5.226   5.003   7.021  0.1805  1.5878 -0.3970
 8617SOL     OW32708  11.182   4.183   4.571 -0.3978  0.2263 -0.2926
 8617SOL    HW132709  11.276   4.168   4.582 -0.2714  0.2186 -1.2684
 8617SOL    HW232710  11.142   4.099   4.593 -0.0431 -0.2339 -1.3198
 8618SOL     OW32711   4.691   1.221  12.049 -0.4585 -0.4016  0.4066
 8618SOL    HW132712   4.742   1.231  11.969  0.1214  0.6515  0.8851
 8618SOL    HW232713   4.756   1.203  12.117 -0.8429 -0.2564  0.8190
 8619SOL     OW32714   2.281  12.335   8.037 -0.6318 -0.1299 -1.1122
 8619SOL    HW132715   2.338  12.301   8.107 -2.5082 -3.0112 -0.7989
 8619SOL    HW232716   2.225  12.399   8.081  0.7542  0.9837 -0.9057
 8620SOL     OW32717   3.373   8.955  10.272  0.0620  0.6460 -0.2239
 8620SOL    HW132718   3.363   9.046  10.299 -0.8654  1.3140 -2.4816
 8620SOL    HW232719   3.371   8.959  10.176 -0.5650 -1.7947 -0.3829
 8621SOL     OW32720   5.684  10.872   5.005  0.3321 -0.0080  0.4432
 8621SOL    HW132721   5.741  10.827   5.067  0.7149 -0.0100  0.0911
 8621SOL    HW232722   5.634  10.803   4.962  0.1326 -0.0134  0.6828
 8622SOL     OW32723   1.821   3.472   4.347 -0.2366 -0.4509  0.0053
 8622SOL    HW132724   1.895   3.480   4.287 -0.3785  0.6150 -0.0425
 8622SOL    HW232725   1.758   3.537   4.317  0.1011  0.8503  1.8908
 8623SOL     OW32726   5.303   6.298   7.796  0.1972  0.1560 -0.1053
 8623SOL    HW132727   5.221   6.344   7.813 -0.8629 -0.5990 -2.5937
 8623SOL    HW232728   5.364   6.367   7.768 -0.3427  0.4469 -0.5794
 8624SOL     OW32729   9.518   6.490   0.148 -0.4095  0.1809  0.2695
 8624SOL    HW132730   9.496   6.441   0.227 -0.6428  0.1701  0.2008
 8624SOL    HW232731   9.605   6.459   0.123 -0.2629  0.3123  0.6190
 8625SOL     OW32732  11.627   6.406   9.697  0.3747  0.2299 -0.2335
 8625SOL    HW132733  11.641   6.471   9.766  5.1094  2.0111 -2.4548
 8625SOL    HW232734  11.707   6.354   9.696 -1.3732 -2.6998 -1.6133
 8626SOL     OW32735   6.242   6.276   3.989 -0.5364 -0.1965 -0.1213
 8626SOL    HW132736   6.270   6.192   4.026  0.4414 -0.5543 -1.5804
 8626SOL    HW232737   6.295   6.341   4.036 -0.1639 -0.5347 -0.0605
 8627SOL     OW32738   7.307  12.208   7.063  0.2506 -0.5074  0.3504
 8627SOL    HW132739   7.385  12.206   7.118  0.9045 -0.7202 -0.5620
 8627SOL    HW232740   7.320  12.138   7.000 -0.0030  0.3734 -0.7122
 8628SOL     OW32741  11.337  10.105  11.979  0.6423 -0.0884  0.8584
 8628SOL    HW132742  11.397  10.030  11.988  1.5189  0.7015  1.8052
 8628SOL    HW232743  11.307  10.123  12.068  0.1135  0.4362  0.5792
 8629SOL     OW32744  12.572   9.074   2.041  0.0377  0.2758 -0.2632
 8629SOL    HW132745  12.663   9.048   2.024  0.1683  0.9653 -0.6489
 8629SOL    HW232746  12.526   8.991   2.054  1.2149 -0.0466  2.5618
 8630SOL     OW32747  10.465   2.285  12.356 -0.9251 -0.0394  0.1698
 8630SOL    HW132748  10.454   2.228  12.280 -1.6244  1.6336 -1.0382
 8630SOL    HW232749  10.559   2.303  12.359 -1.1057  1.4680 -1.5564
 8631SOL     OW32750   9.851   2.263   4.145  0.1725 -0.2486 -0.4024
 8631SOL    HW132751   9.757   2.259   4.126  0.1018  2.5444 -1.0239
 8631SOL    HW232752   9.891   2.203   4.081 -1.0888 -0.7754 -0.7288
 8632SOL     OW32753   7.206  10.625  11.545  0.3680 -0.2652 -0.6691
 8632SOL    HW132754   7.268  10.696  11.562  0.3602 -0.3206 -0.3954
 8632SOL    HW232755   7.142  10.662  11.485 -0.1427  0.2475  0.1643
 8633SOL     OW32756   2.247   5.848   1.627 -0.5262 -0.4754 -0.4345
 8633SOL    HW132757   2.217   5.900   1.552  1.3122 -0.7567 -1.4087
 8633SOL    HW232758   2.170   5.796   1.652 -1.5003  0.4597 -1.3767
 8634SOL     OW32759   3.693   0.868   1.507  0.2609 -0.4906 -0.3973
 8634SOL    HW132760   3.702   0.959   1.537  1.0274 -0.7336  0.1192
 8634SOL    HW232761   3.599   0.859   1.487  0.0167  0.1570  0.3992
 8635SOL     OW32762   4.746   3.253   5.064 -0.0192 -0.4191 -0.1613
 8635SOL    HW132763   4.791   3.215   5.140  1.5217 -0.8055 -1.2255
 8635SOL    HW232764   4.815   3.264   4.999 -0.9957  1.4031 -0.9630
 8636SOL     OW32765  10.596   7.593   2.716  0.0268 -0.7409  0.4946
 8636SOL    HW132766  10.545   7.512   2.704 -1.7480  0.3547  0.2812
 8636SOL    HW232767  10.644   7.579   2.797 -0.9005 -1.7001  0.9126
 8637SOL     OW32768   3.725   2.472   7.298 -0.0782  0.6316 -0.0063
 8637SOL    HW132769   3.637   2.509   7.285 -0.3227 -0.0086 -0.2366
 8637SOL    HW232770   3.724   2.438   7.387  0.4424  1.9421  0.5206
 8638SOL     OW32771   9.412   7.154   4.048  0.6576  0.0653  0.1638
 8638SOL    HW132772   9.383   7.203   4.125  1.4047 -0.1137  0.5668
 8638SOL    HW232773   9.350   7.081   4.041 -0.4999  1.0702 -0.4697
 8639SOL     OW32774   7.955   2.397   0.986 -0.2068 -0.3568 -0.5637
 8639SOL    HW132775   7.860   2.408   0.995 -0.2548 -1.0893 -0.0690
 8639SOL    HW232776   7.990   2.418   1.073  0.2311  1.2652 -1.1059
 8640SOL     OW32777   7.421  12.404   2.903 -0.8027 -0.2297 -0.4489
 8640SOL    HW132778   7.492  12.447   2.951 -0.3481 -1.1778 -0.2604
 8640SOL    HW232779   7.405  12.462   2.828 -1.3271  1.1073  0.6698
 8641SOL     OW32780   3.860   5.826   2.673 -0.1744 -0.1114  0.1868
 8641SOL    HW132781   3.891   5.899   2.727 -0.3786 -1.3807  2.1369
 8641SOL    HW232782   3.793   5.864   2.617  1.2450  1.6273 -0.4120
 8642SOL     OW32783   2.985   6.572   0.821 -0.3570  0.0183 -0.3231
 8642SOL    HW132784   3.075   6.541   0.821 -0.7293 -1.1387 -1.3027
 8642SOL    HW232785   2.947   6.537   0.901 -0.1359 -0.1044 -0.2725
 8643SOL     OW32786   2.891   1.589   8.493  0.5560  0.1182 -0.2847
 8643SOL    HW132787   2.962   1.623   8.548  1.5245 -1.2088 -0.6464
 8643SOL    HW232788   2.931   1.516   8.446 -0.6103  0.4059 -1.7824
 8644SOL     OW32789  12.299   5.735   7.651 -0.3272 -1.2025  0.1788
 8644SOL    HW132790  12.368   5.801   7.656 -1.1014 -0.4604  1.7286
 8644SOL    HW232791  12.278   5.729   7.558 -1.1679  1.7833  0.0738
 8645SOL     OW32792  11.130  12.260   2.218 -0.3159 -0.3807  0.0828
 8645SOL    HW132793  11.134  12.337   2.275  1.0485 -0.1099 -0.3243
 8645SOL    HW232794  11.138  12.296   2.129  0.3016 -0.9692 -0.1154
 8646SOL     OW32795   9.736   4.524   6.007 -0.1050  0.5722 -0.5383
 8646SOL    HW132796   9.772   4.436   5.999  1.7219  0.9186  2.2692
 8646SOL    HW232797   9.800   4.580   5.964  0.3373  0.7581  0.3326
 8647SOL     OW32798   3.010   5.617   3.067  0.3007  0.2679 -0.2644
 8647SOL    HW132799   2.944   5.673   3.109 -0.0421 -0.3817  0.0748
 8647SOL    HW232800   3.033   5.552   3.134  0.5448 -0.1185 -0.7196
 8648SOL     OW32801  11.618   2.696  11.468 -0.1306 -0.7276  0.2515
 8648SOL    HW132802  11.701   2.708  11.513 -0.0817 -0.7786  0.1744
 8648SOL    HW232803  11.640   2.698  11.375 -0.3456  0.2568  0.2097
 8649SOL     OW32804   3.707   0.852   3.055  0.5725 -0.2066  0.1841
 8649SOL    HW132805   3.694   0.809   3.139 -0.0457  0.4908  0.4521
 8649SOL    HW232806   3.650   0.929   3.058  0.7010 -0.0620 -0.7884
 8650SOL     OW32807   9.541   3.586   0.752  0.0100 -0.1074 -0.8693
 8650SOL    HW132808   9.602   3.513   0.741  0.7536  0.1611  1.1294
 8650SOL    HW232809   9.547   3.635   0.669 -0.5094 -2.2535 -2.2429
 8651SOL     OW32810   3.001   1.293   3.642 -0.3048  0.6779  0.5630
 8651SOL    HW132811   3.067   1.354   3.612  1.0455 -0.9780  0.0175
 8651SOL    HW232812   3.004   1.300   3.738  1.6419 -0.3202  0.6119
 8652SOL     OW32813   9.893   4.615   2.157 -0.0681 -0.1379  0.1175
 8652SOL    HW132814   9.986   4.622   2.177  0.0617 -1.2787 -0.0017
 8652SOL    HW232815   9.848   4.645   2.236  0.3829  0.6942  0.0719
 8653SOL     OW32816   2.583   8.967  11.778 -0.5862  0.1618  0.3716
 8653SOL    HW132817   2.569   9.062  11.767  0.4533  0.4185  1.1076
 8653SOL    HW232818   2.675   8.954  11.753 -0.6927 -0.6337  0.3930
 8654SOL     OW32819   3.430  11.540   5.958  0.5166 -0.2627 -0.0981
 8654SOL    HW132820   3.513  11.573   5.925  1.9302 -1.5921  1.8729
 8654SOL    HW232821   3.409  11.597   6.032 -0.1509 -0.1490 -0.3656
 8655SOL     OW32822  10.437   2.746  10.510  0.2123 -0.2779 -0.4540
 8655SOL    HW132823  10.451   2.664  10.558 -2.2238  0.4667  1.7918
 8655SOL    HW232824  10.463   2.726  10.420  4.7421 -1.8647  0.9391
 8656SOL     OW32825   2.733   7.873   4.507  0.6568  0.0377  0.1159
 8656SOL    HW132826   2.785   7.836   4.579  0.1265 -2.2405 -0.5881
 8656SOL    HW232827   2.678   7.801   4.478  1.1158  0.7367 -2.8436
 8657SOL     OW32828   5.149   7.130   5.095 -0.1294 -0.0660 -0.3790
 8657SOL    HW132829   5.239   7.160   5.092 -0.4366  0.9170 -0.2356
 8657SOL    HW232830   5.152   7.048   5.146  0.7712 -0.4671 -1.0588
 8658SOL     OW32831   9.020   5.038  12.171  0.3399  0.3662 -0.4921
 8658SOL    HW132832   8.961   4.971  12.205 -0.6817 -0.1612 -2.9991
 8658SOL    HW232833   9.097   4.990  12.141  0.0750  0.4166 -1.2940
 8659SOL     OW32834  10.651   9.299   6.088  0.0459 -0.3573 -0.4020
 8659SOL    HW132835  10.589   9.226   6.083  1.1272 -1.2523 -1.3026
 8659SOL    HW232836  10.692   9.290   6.174  1.6583 -2.1223 -1.2723
 8660SOL     OW32837   4.423   9.742   2.694  0.2652  0.2993 -0.2268
 8660SOL    HW132838   4.425   9.834   2.720  1.1477 -0.0390  0.9926
 8660SOL    HW232839   4.422   9.744   2.599 -1.9884  1.5969 -0.2677
 8661SOL     OW32840   5.255  12.210  12.341  0.2100 -0.6491 -0.0695
 8661SOL    HW132841   5.279  12.175  12.255  2.3510 -0.5975  0.4485
 8661SOL    HW232842   5.197  12.283  12.321 -0.4447 -1.4885 -1.3954
 8662SOL     OW32843  10.676   5.056   8.130  0.0094 -0.2463 -0.5504
 8662SOL    HW132844  10.661   4.973   8.085 -0.2992 -1.4533  1.6305
 8662SOL    HW232845  10.591   5.077   8.170 -0.0963  1.4968 -1.5769
 8663SOL     OW32846   0.620   9.327   0.747 -0.3882  0.0922  0.0501
 8663SOL    HW132847   0.667   9.404   0.714 -1.2122  0.5163 -0.1555
 8663SOL    HW232848   0.544   9.319   0.689 -0.0154 -1.2243 -0.2955
 8664SOL     OW32849  10.470   3.278   4.093 -0.2111  0.0357  0.7236
 8664SOL    HW132850  10.447   3.192   4.056  0.3983 -0.2346  0.9698
 8664SOL    HW232851  10.560   3.268   4.124  0.4773  1.2655 -0.7601
 8665SOL     OW32852  10.950   2.508   7.133 -0.4305 -0.9890 -0.4486
 8665SOL    HW132853  11.010   2.441   7.166  1.5154  0.0704 -1.6466
 8665SOL    HW232854  11.002   2.559   7.071 -1.8535  1.6036  0.3402
 8666SOL     OW32855   3.345   1.993   2.896 -0.3436 -0.2549  0.5258
 8666SOL    HW132856   3.348   1.924   2.963  0.2628 -0.6038  0.1504
 8666SOL    HW232857   3.428   2.039   2.905 -0.6399  0.2665  0.6045
 8667SOL     OW32858   6.619   7.396   5.361 -0.7427  0.0150 -0.1703
 8667SOL    HW132859   6.659   7.309   5.359  0.5135  0.5157  1.0736
 8667SOL    HW232860   6.691   7.455   5.338 -1.4924  0.7718 -0.6396
 8668SOL     OW32861   4.211   3.607   2.488  0.5187 -0.1864 -0.2313
 8668SOL    HW132862   4.153   3.580   2.417  0.6838  1.0141 -0.8498
 8668SOL    HW232863   4.260   3.681   2.452  1.2296 -0.1062  0.8489
 8669SOL     OW32864  10.323   3.335   4.936  0.3449 -0.0572  0.3017
 8669SOL    HW132865  10.319   3.282   5.016 -1.5465 -0.3128  0.0919
 8669SOL    HW232866  10.267   3.288   4.874 -1.2268  2.0304  0.0306
 8670SOL     OW32867   9.014   9.058   3.086  0.1017  0.1816 -0.3068
 8670SOL    HW132868   9.071   8.999   3.135 -1.7677 -1.1345  0.3994
 8670SOL    HW232869   9.034   9.145   3.120  0.4117 -0.4573  1.2263
 8671SOL     OW32870   6.865   6.043  11.268  0.0228 -0.5899  0.1684
 8671SOL    HW132871   6.775   6.065  11.244 -0.1224 -1.3466 -0.0038
 8671SOL    HW232872   6.910   6.032  11.184  0.3170 -0.0852  0.2529
 8672SOL     OW32873   3.935   1.194   4.341 -0.2099 -0.1718 -0.0914
 8672SOL    HW132874   3.942   1.286   4.368 -1.2007 -0.5168  1.4568
 8672SOL    HW232875   4.001   1.149   4.394 -2.1599 -0.8526  1.9257
 8673SOL     OW32876   3.204  10.169   8.268  0.1717  0.5472  0.0019
 8673SOL    HW132877   3.146  10.242   8.287  0.3313  0.8966 -0.8298
 8673SOL    HW232878   3.160  10.093   8.307  0.1283  1.1072  1.0810
 8674SOL     OW32879  11.770  10.632   7.730 -0.0619  0.4196  0.4222
 8674SOL    HW132880  11.766  10.646   7.635  0.5247 -0.4582  0.2536
 8674SOL    HW232881  11.772  10.537   7.740  1.2524  0.5146  1.2503
 8675SOL     OW32882   2.291   1.088   5.965  0.3391 -0.9144  0.0597
 8675SOL    HW132883   2.351   1.067   6.036 -0.2534  1.9609  1.5495
 8675SOL    HW232884   2.338   1.151   5.911  0.3110 -2.1327 -1.4967
 8676SOL     OW32885   9.451   3.193   7.820 -0.0545  0.5456  0.0105
 8676SOL    HW132886   9.430   3.111   7.865  1.3071 -0.4426 -1.0294
 8676SOL    HW232887   9.480   3.252   7.889 -0.6282 -0.0042  0.7321
 8677SOL     OW32888   9.282   3.748   8.420  0.1126  0.1571 -0.4626
 8677SOL    HW132889   9.257   3.665   8.461 -0.4311  1.1001  1.2008
 8677SOL    HW232890   9.377   3.742   8.408 -0.0370 -1.0633 -1.2744
 8678SOL     OW32891   6.998   6.078   6.377  0.1115  0.1818 -0.5359
 8678SOL    HW132892   6.957   6.164   6.382  0.5423  0.3650 -0.1713
 8678SOL    HW232893   7.031   6.061   6.465  1.6535  0.4373 -1.0336
 8679SOL     OW32894   7.313   7.930   3.741  0.2560  0.3605  0.4094
 8679SOL    HW132895   7.249   7.888   3.683  0.1800 -0.3518  0.9885
 8679SOL    HW232896   7.326   7.866   3.812  1.6099  0.5025  0.2986
 8680SOL     OW32897  11.650   4.635   1.564 -0.4120  0.1199  0.7836
 8680SOL    HW132898  11.695   4.597   1.639 -0.2931 -0.2773  0.5159
 8680SOL    HW232899  11.612   4.559   1.518  1.9217  0.0020 -1.1468
 8681SOL     OW32900  11.738   2.674   4.033 -0.4429 -0.2847 -0.3027
 8681SOL    HW132901  11.736   2.769   4.043 -0.2842 -0.3486  0.3517
 8681SOL    HW232902  11.673   2.655   3.966  1.1857  0.5079 -2.2269
 8682SOL     OW32903   3.221  11.143   8.238 -0.1604 -0.0825 -0.7170
 8682SOL    HW132904   3.126  11.137   8.227 -0.0538 -2.6088 -0.9105
 8682SOL    HW232905   3.257  11.091   8.166  1.3251 -0.1388  0.0315
 8683SOL     OW32906   9.275   5.131   2.116  0.2564 -0.1568 -0.1452
 8683SOL    HW132907   9.257   5.063   2.180 -1.8369  0.5085  0.0573
 8683SOL    HW232908   9.347   5.096   2.062 -1.0729 -2.7482 -0.3806
 8684SOL     OW32909   0.352   6.444  12.515 -0.1515 -0.3165  0.2704
 8684SOL    HW132910   0.355   6.356  12.480 -0.6962 -0.0191 -0.5522
 8684SOL    HW232911   0.440   6.460  12.548 -0.0861 -1.2072  0.5409
 8685SOL     OW32912   9.499   5.983   1.312  0.0387 -0.0030  0.2226
 8685SOL    HW132913   9.586   6.023   1.306 -0.1029  0.5640  1.5017
 8685SOL    HW232914   9.487   5.938   1.229  0.2689  2.5203 -1.2683
 8686SOL     OW32915   6.615   1.439   8.234 -0.0124  0.3210  0.4106
 8686SOL    HW132916   6.696   1.439   8.285  0.4384  1.1786 -0.2750
 8686SOL    HW232917   6.597   1.347   8.217 -0.1239  0.0156  2.0115
 8687SOL     OW32918   6.352   5.912   5.444 -0.0022  0.0368  0.5640
 8687SOL    HW132919   6.273   5.966   5.436 -1.5428 -1.7794  2.3720
 8687SOL    HW232920   6.357   5.889   5.537  1.5506 -1.4888  0.1714
 8688SOL     OW32921   5.721   0.723  12.237  0.0582  0.3490  0.0527
 8688SOL    HW132922   5.661   0.651  12.254  0.0801  0.4822  0.7270
 8688SOL    HW232923   5.793   0.683  12.187 -0.4349  0.1283 -0.4816
 8689SOL     OW32924   8.867  11.577   0.233 -0.6384 -0.2047  0.1202
 8689SOL    HW132925   8.847  11.639   0.162  1.0220 -0.6787 -0.8165
 8689SOL    HW232926   8.864  11.491   0.190 -0.3820 -0.5611  0.8054
 8690SOL     OW32927  10.394   5.821   4.261 -0.0136 -0.2299  0.4686
 8690SOL    HW132928  10.382   5.815   4.356  1.3475  0.6061  0.7197
 8690SOL    HW232929  10.489   5.823   4.249 -0.1812  0.8757 -0.8303
 8691SOL     OW32930   2.128   9.594   1.547 -0.6068  0.3038 -0.6413
 8691SOL    HW132931   2.167   9.625   1.466 -0.1433  1.1451 -0.1147
 8691SOL    HW232932   2.049   9.548   1.520  0.2115 -0.5414 -1.6510
 8692SOL     OW32933  10.889   3.052   0.068  0.1128 -0.4806  0.5031
 8692SOL    HW132934  10.975   3.093   0.057 -0.1839  0.3977  1.3282
 8692SOL    HW232935  10.893   3.008   0.153  0.6681 -2.8548 -0.6669
 8693SOL     OW32936   1.441  10.447   6.566 -0.3093 -0.0836  0.0201
 8693SOL    HW132937   1.481  10.372   6.523 -1.5932 -0.6475 -0.2574
 8693SOL    HW232938   1.358  10.461   6.519 -1.1270  0.1152  1.4448
 8694SOL     OW32939   5.048   4.076  10.204  0.3310  0.2221 -0.4703
 8694SOL    HW132940   5.071   4.169  10.206  0.1396  0.4362 -3.2725
 8694SOL    HW232941   5.120   4.035  10.156 -0.2556 -0.8231 -0.4900
 8695SOL     OW32942   6.391   5.211   2.929  0.6040 -0.4204  0.5359
 8695SOL    HW132943   6.366   5.164   2.849  0.7748  0.1486  0.1407
 8695SOL    HW232944   6.357   5.299   2.917  0.3702 -0.4095  1.2303
 8696SOL     OW32945   8.219   6.093   3.854 -0.1964 -0.5697 -0.4062
 8696SOL    HW132946   8.151   6.128   3.912  1.0427 -0.0176  0.7633
 8696SOL    HW232947   8.181   6.012   3.820 -1.9314  0.3570 -0.7970
 8697SOL     OW32948   6.401   5.642   3.393 -0.5850 -0.6632  0.0861
 8697SOL    HW132949   6.483   5.622   3.348 -0.2422 -0.9219  0.8093
 8697SOL    HW232950   6.337   5.654   3.323  0.7265  2.8316 -0.6946
 8698SOL     OW32951   5.174   7.506   5.578  0.0292  0.0374 -0.0617
 8698SOL    HW132952   5.169   7.425   5.528 -1.5266 -0.0182  0.1353
 8698SOL    HW232953   5.194   7.573   5.513  1.5415 -0.5025 -0.1918
 8699SOL     OW32954  10.525   5.515  11.195  0.3371  0.5076  0.3160
 8699SOL    HW132955  10.536   5.423  11.218  0.9794  1.0680  2.5079
 8699SOL    HW232956  10.612   5.553  11.204 -0.3973  1.8839  2.3955
 8700SOL     OW32957   9.104   4.450   7.866  0.8822  0.0355  0.1688
 8700SOL    HW132958   9.138   4.375   7.914  0.2049  0.7692  1.9093
 8700SOL    HW232959   9.009   4.446   7.881  0.2290 -1.2290 -3.4492
 8701SOL     OW32960   1.401   9.512  11.805 -0.2102  0.2629 -0.0355
 8701SOL    HW132961   1.391   9.490  11.712 -1.6176  2.3975 -0.4668
 8701SOL    HW232962   1.420   9.606  11.805  2.4807 -0.1664  1.7644
 8702SOL     OW32963   2.038   3.782  11.013 -0.1812  0.4737 -0.0484
 8702SOL    HW132964   2.100   3.744  10.951 -0.6094  0.1665 -0.2916
 8702SOL    HW232965   2.009   3.707  11.066 -0.7856  0.5129 -0.3205
 8703SOL     OW32966   7.592  10.838  10.276  0.0933 -0.1566  0.7863
 8703SOL    HW132967   7.613  10.918  10.228 -1.5853  0.1314  0.4383
 8703SOL    HW232968   7.621  10.855  10.365 -0.6585  1.0693  0.8246
 8704SOL     OW32969   8.134  11.823   1.176  0.2960  0.1547  0.4181
 8704SOL    HW132970   8.098  11.839   1.263  0.8390 -1.3199  0.9477
 8704SOL    HW232971   8.229  11.824   1.188  0.3755 -1.6677  0.1996
 8705SOL     OW32972   2.096   7.947   5.523 -0.2615  0.0565 -0.1447
 8705SOL    HW132973   2.051   7.875   5.479  0.1533 -0.0199 -0.4574
 8705SOL    HW232974   2.107   7.917   5.614 -1.4311  0.3606  0.1135
 8706SOL     OW32975  10.940   6.188  12.411  0.2165  0.4496 -0.1546
 8706SOL    HW132976  10.898   6.273  12.421  1.0402  0.6666  1.7941
 8706SOL    HW232977  10.929   6.145  12.496  0.0363 -1.3133 -1.0062
 8707SOL     OW32978   7.832   1.049   4.642  0.0472 -0.7316 -0.1814
 8707SOL    HW132979   7.888   0.974   4.661  0.0127 -0.4734  1.0785
 8707SOL    HW232980   7.774   1.054   4.718  1.3387  1.7178  0.7560
 8708SOL     OW32981   2.608   5.779  10.072 -0.2840  0.9211  0.0715
 8708SOL    HW132982   2.537   5.738  10.121  0.4083 -0.0409  0.2872
 8708SOL    HW232983   2.683   5.721  10.083  0.0336  0.9041 -1.7356
 8709SOL     OW32984   2.447  12.025  11.012 -0.3276  0.4476 -0.4837
 8709SOL    HW132985   2.515  12.050  10.950  0.2406 -0.3344 -0.1949
 8709SOL    HW232986   2.406  12.107  11.037  1.0243  1.0267 -0.0917
 8710SOL     OW32987   3.589  10.800  10.439  0.0239 -0.2053  0.7213
 8710SOL    HW132988   3.524  10.860  10.477  0.0819  0.7102 -0.5616
 8710SOL    HW232989   3.562  10.713  10.470  1.2256  0.5725  4.5174
 8711SOL     OW32990   9.477  10.467   2.363 -0.3880 -0.2692 -0.3438
 8711SOL    HW132991   9.479  10.562   2.350 -0.5691 -0.2082  0.0532
 8711SOL    HW232992   9.495  10.456   2.456  0.8976 -0.6942 -0.6265
 8712SOL     OW32993   6.878   4.295  11.331 -0.2569 -0.2474  0.3425
 8712SOL    HW132994   6.891   4.208  11.292 -1.5604 -0.0165 -0.7044
 8712SOL    HW232995   6.786   4.296  11.359  0.5594 -0.3169  3.3702
 8713SOL     OW32996   0.511   2.154   3.367  0.1762 -0.2676 -0.2064
 8713SOL    HW132997   0.509   2.236   3.416  0.6152 -0.0888 -0.4817
 8713SOL    HW232998   0.481   2.088   3.430  2.8174 -0.3995  1.0286
 8714SOL     OW32999   8.406   9.634  11.176 -0.3473 -0.5904 -0.2968
 8714SOL    HW133000   8.398   9.706  11.115 -1.8483 -1.4157 -1.1299
 8714SOL    HW233001   8.412   9.675  11.262 -1.1034  0.5207 -0.7619
 8715SOL     OW33002   8.768   9.446   7.103  0.2943  0.1482 -0.5181
 8715SOL    HW133003   8.690   9.446   7.159 -0.3210  1.2093 -1.3214
 8715SOL    HW233004   8.747   9.385   7.033  1.1475 -1.3399  0.4560
 8716SOL     OW33005   4.512   0.855   8.882  0.5637  0.8698 -0.2611
 8716SOL    HW133006   4.421   0.885   8.879  0.2259  0.3401  2.3963
 8716SOL    HW233007   4.553   0.910   8.949  0.7445 -2.2697  2.4575
 8717SOL     OW33008   6.195   4.341   6.355  0.2126 -0.4436 -0.2797
 8717SOL    HW133009   6.139   4.418   6.348  1.2125  0.4920  1.4064
 8717SOL    HW233010   6.277   4.374   6.392  0.4956 -2.3834  0.9515
 8718SOL     OW33011   2.616   7.382  10.581  0.3980  0.1019  0.5286
 8718SOL    HW133012   2.523   7.399  10.598 -0.8421 -2.0741 -2.7892
 8718SOL    HW233013   2.641   7.318  10.647 -0.1732  1.3321  1.9849
 8719SOL     OW33014   0.033  12.526   3.631 -0.2727  0.1804  0.2551
 8719SOL    HW133015   0.056  12.617   3.611 -1.8528  0.6221  0.2911
 8719SOL    HW233016  -0.037  12.505   3.570  0.3302 -1.1656 -0.0007
 8720SOL     OW33017  11.723   6.334   0.896  0.4479 -0.5282  0.2252
 8720SOL    HW133018  11.736   6.415   0.846 -0.0506  0.3304  1.4273
 8720SOL    HW233019  11.651   6.289   0.852  0.5025 -0.1456 -0.2594
 8721SOL     OW33020   5.942   0.745   7.200  0.1640 -0.6882 -0.9835
 8721SOL    HW133021   5.986   0.767   7.118  3.6212  2.5417  1.3748
 8721SOL    HW233022   6.013   0.716   7.258 -1.2354  1.5665  2.1421
 8722SOL     OW33023   3.643   5.270   2.742 -0.1809 -0.6860 -0.1774
 8722SOL    HW133024   3.565   5.318   2.771  0.2697  0.0750 -0.1822
 8722SOL    HW233025   3.648   5.287   2.648  1.3533  1.3750  0.2051
 8723SOL     OW33026   5.534   0.247  12.249 -0.0994 -0.0340 -0.0871
 8723SOL    HW133027   5.443   0.229  12.225 -0.0123 -0.6918  0.0445
 8723SOL    HW233028   5.558   0.324  12.198 -0.8285  0.3405  0.1215
 8724SOL     OW33029   8.657   9.862   5.347 -0.1116  0.7821 -0.5119
 8724SOL    HW133030   8.646   9.889   5.439 -1.7794  1.9723 -1.0107
 8724SOL    HW233031   8.752   9.852   5.336  0.0724 -0.1931  1.5413
 8725SOL     OW33032   3.308  11.441   9.924  0.4685  0.0044 -0.3587
 8725SOL    HW133033   3.297  11.417  10.016 -0.0142  1.3111 -0.0578
 8725SOL    HW233034   3.297  11.358   9.877 -0.5571 -0.4726  0.6632
 8726SOL     OW33035   0.944   6.049   0.590  0.3979 -0.2800 -0.2062
 8726SOL    HW133036   0.948   5.956   0.567 -0.7284 -0.5826  0.7132
 8726SOL    HW233037   1.020   6.063   0.647 -0.8121 -1.3202  1.7984
 8727SOL     OW33038   8.211  12.204   9.207  0.0170 -0.2939  0.4893
 8727SOL    HW133039   8.251  12.137   9.152  0.1347 -1.5797  2.0524
 8727SOL    HW233040   8.285  12.252   9.245 -0.0248 -0.2320  0.4924
 8728SOL     OW33041   1.234   3.430   8.345 -0.4185 -0.3704 -0.4042
 8728SOL    HW133042   1.299   3.493   8.315  0.2393 -0.5289  0.6365
 8728SOL    HW233043   1.284   3.366   8.395 -1.5354  0.3074  1.7037
 8729SOL     OW33044   3.367   1.373  11.367  0.1624  0.0309  0.3954
 8729SOL    HW133045   3.291   1.390  11.423  0.2108 -1.2579  0.8957
 8729SOL    HW233046   3.329   1.333  11.288  0.4081 -2.7745  1.5726
 8730SOL     OW33047   4.780  11.884   8.399  0.4617  0.1434 -0.5852
 8730SOL    HW133048   4.838  11.879   8.474 -0.5705 -0.9043  0.1835
 8730SOL    HW233049   4.821  11.948   8.340  1.7561  0.2892  0.4429
 8731SOL     OW33050   1.632   3.378   8.163  0.9325  0.1776  0.3096
 8731SOL    HW133051   1.728   3.379   8.171  0.9936  2.3353 -0.0238
 8731SOL    HW233052   1.616   3.375   8.068  0.6311 -0.9558  0.3827
 8732SOL     OW33053  11.900   4.275  10.714  0.0172  0.3184  0.3615
 8732SOL    HW133054  11.818   4.251  10.671  0.1764  0.4462 -0.0126
 8732SOL    HW233055  11.883   4.262  10.807  0.2013 -1.6332  0.1650
 8733SOL     OW33056   6.508   2.056  11.672  0.1031  0.3831 -0.5262
 8733SOL    HW133057   6.595   2.067  11.711 -0.4147 -2.0511  1.6158
 8733SOL    HW233058   6.520   1.991  11.603 -0.2429 -1.7203  1.2625
 8734SOL     OW33059   7.116   5.297   0.796  1.0218  0.1817  0.2469
 8734SOL    HW133060   7.156   5.287   0.709 -1.3756  1.3685 -1.1170
 8734SOL    HW233061   7.164   5.370   0.836  1.4039  0.4045 -0.5804
 8735SOL     OW33062   3.832   2.513  10.854 -0.3596 -0.8272  1.1261
 8735SOL    HW133063   3.776   2.541  10.782  1.7540  2.0881  0.3919
 8735SOL    HW233064   3.921   2.530  10.823  0.6574  0.3686  4.2594
 8736SOL     OW33065  12.278   0.516  11.651 -0.2908 -0.0635 -0.2944
 8736SOL    HW133066  12.264   0.597  11.602  1.4309  1.4039  1.4634
 8736SOL    HW233067  12.368   0.490  11.630 -1.0445 -2.0069 -1.4092
 8737SOL     OW33068   2.473   5.506  10.664 -0.5489  0.2431  0.2037
 8737SOL    HW133069   2.547   5.563  10.644 -1.1930  0.4463 -1.8536
 8737SOL    HW233070   2.481   5.488  10.758  1.1361  1.5986  0.3704
 8738SOL     OW33071  11.444   3.359   5.442 -0.3893  0.0322  0.1486
 8738SOL    HW133072  11.465   3.384   5.532  0.3038  1.1798 -0.3089
 8738SOL    HW233073  11.511   3.295   5.419 -0.6030 -0.3078  0.4699
 8739SOL     OW33074   7.787   2.635  11.215  0.0763 -0.1045  0.3365
 8739SOL    HW133075   7.707   2.683  11.240  0.3519  0.3759  0.3209
 8739SOL    HW233076   7.858   2.691  11.246  0.4157 -0.9490  1.1390
 8740SOL     OW33077   1.359   4.528   9.796  0.0304 -0.6196 -0.1021
 8740SOL    HW133078   1.399   4.615   9.789 -2.7849  0.7116 -1.1897
 8740SOL    HW233079   1.403   4.487   9.870 -0.1852  2.6687  2.0262
 8741SOL     OW33080   7.315   2.760   8.170  0.5096  0.2802 -0.0506
 8741SOL    HW133081   7.315   2.669   8.200  1.8479  0.0681 -0.6347
 8741SOL    HW233082   7.236   2.767   8.117 -0.8548  0.1244  1.8689
 8742SOL     OW33083   0.238   4.084  10.950  0.7185 -0.3666  0.2123
 8742SOL    HW133084   0.309   4.093  11.014  0.6714 -0.6292  0.3016
 8742SOL    HW233085   0.199   4.171  10.945  0.2294 -0.5202  1.1073
 8743SOL     OW33086  11.854   2.778   1.623 -0.1815 -0.4685 -0.0832
 8743SOL    HW133087  11.818   2.859   1.659  1.4091  0.3057 -0.1685
 8743SOL    HW233088  11.843   2.787   1.528 -0.8865 -0.8031 -0.0407
 8744SOL     OW33089   9.262  11.212  10.891 -0.0831 -0.5395  0.1225
 8744SOL    HW133090   9.213  11.253  10.820 -0.3373 -1.8760 -0.5041
 8744SOL    HW233091   9.216  11.238  10.971 -1.3219 -1.0891 -0.3935
 8745SOL     OW33092   3.862  10.823   7.873  0.0511  0.1936  0.5812
 8745SOL    HW133093   3.955  10.809   7.889 -0.0000  0.4092  1.0874
 8745SOL    HW233094   3.855  10.915   7.849 -0.2340  0.6368  2.2397
 8746SOL     OW33095   3.045   1.645   2.545 -0.3714 -0.0123 -0.4671
 8746SOL    HW133096   3.078   1.713   2.603  1.8915 -0.8993 -0.6398
 8746SOL    HW233097   3.109   1.641   2.474 -2.2067 -0.0880 -2.2145
 8747SOL     OW33098   3.919   9.516   0.037 -0.3293  0.0756  0.1359
 8747SOL    HW133099   3.947   9.503   0.127  0.2522 -1.3150 -0.2090
 8747SOL    HW233100   3.948   9.605   0.015 -0.8811  0.5923  1.4402
 8748SOL     OW33101   4.771   1.656   1.044 -0.0789  0.2251 -0.0207
 8748SOL    HW133102   4.805   1.567   1.045  0.3111  0.3701 -0.2824
 8748SOL    HW233103   4.733   1.668   1.132  0.1623 -0.0849  0.1270
 8749SOL     OW33104   2.024   2.641  11.442  0.0875 -0.0059  0.4805
 8749SOL    HW133105   1.933   2.654  11.467  0.7308  1.4180  2.3571
 8749SOL    HW233106   2.042   2.549  11.463 -0.3409  0.2759  2.3022
 8750SOL     OW33107   5.868   8.504   2.236  0.2906  0.6713 -0.4276
 8750SOL    HW133108   5.941   8.458   2.195  0.2526  1.7020 -1.7022
 8750SOL    HW233109   5.804   8.435   2.256  1.0513 -0.0689 -0.5071
 8751SOL     OW33110   2.284   7.935   1.468 -0.1210  0.4938  0.5614
 8751SOL    HW133111   2.361   7.887   1.500  0.4593  2.5050  2.4293
 8751SOL    HW233112   2.233   7.869   1.422  2.0281 -1.2414  0.4636
 8752SOL     OW33113  11.805  11.269   0.040 -0.1203 -0.1889 -0.2969
 8752SOL    HW133114  11.841  11.181   0.029 -2.2065 -1.3076  1.1715
 8752SOL    HW233115  11.732  11.274  -0.021 -1.1278 -0.1908  0.8573
 8753SOL     OW33116   8.040   0.442   3.050 -0.2595 -0.1499  0.1882
 8753SOL    HW133117   8.109   0.376   3.064  1.1300  0.9017 -1.3082
 8753SOL    HW233118   8.009   0.425   2.961 -0.3886  0.7506  0.0520
 8754SOL     OW33119   6.735  11.206   9.574 -0.1539  0.7667 -0.0793
 8754SOL    HW133120   6.804  11.206   9.508 -1.2565 -0.1478 -1.2957
 8754SOL    HW233121   6.656  11.235   9.527 -1.2858 -1.2792  0.4371
 8755SOL     OW33122   1.112   2.133   4.842  0.1813  0.1355 -0.4394
 8755SOL    HW133123   1.058   2.069   4.796 -0.0328 -2.3878  2.9079
 8755SOL    HW233124   1.201   2.115   4.813  0.2491 -2.4936  1.0233
 8756SOL     OW33125   2.170  10.379   6.624 -0.1196  0.1304  0.0877
 8756SOL    HW133126   2.242  10.339   6.576 -0.2703 -1.1814  0.9114
 8756SOL    HW233127   2.093  10.327   6.599 -0.2685 -0.3171  1.4056
 8757SOL     OW33128  12.420   4.610   5.748 -0.1245  0.0279  0.4016
 8757SOL    HW133129  12.433   4.675   5.817  0.9193 -0.2218  0.4586
 8757SOL    HW233130  12.405   4.528   5.795 -0.0558 -0.0249  0.3325
 8758SOL     OW33131   6.187   3.732   3.769  0.0498  0.8685  0.0819
 8758SOL    HW133132   6.132   3.727   3.847 -0.5556  0.9933 -0.3271
 8758SOL    HW233133   6.172   3.649   3.723 -0.1657  1.0991 -0.2705
 8759SOL     OW33134   9.196   8.991   5.585 -0.4245 -0.2928  0.4617
 8759SOL    HW133135   9.149   9.068   5.619 -0.9683 -0.9487  1.2328
 8759SOL    HW233136   9.147   8.966   5.507 -2.3461 -1.8647  2.0639
 8760SOL     OW33137   4.399   8.065   6.312 -0.0232 -0.0189  0.6670
 8760SOL    HW133138   4.326   8.033   6.364  0.1533 -1.6818 -0.0418
 8760SOL    HW233139   4.361   8.085   6.226 -0.2262  2.2693  1.2254
 8761SOL     OW33140   9.833  11.940  12.145 -0.6395  0.6862 -0.0417
 8761SOL    HW133141   9.744  11.962  12.173 -0.6981 -0.5551  0.8413
 8761SOL    HW233142   9.885  11.945  12.225 -0.5822 -1.8096  0.1631
 8762SOL     OW33143   4.834   3.466   3.245  0.4260  0.2373  0.5296
 8762SOL    HW133144   4.806   3.536   3.186 -2.7796 -1.2995  0.0133
 8762SOL    HW233145   4.890   3.410   3.191 -0.3182  0.2432 -0.2676
 8763SOL     OW33146   0.146   1.449   7.063 -0.5105  0.5859 -0.2750
 8763SOL    HW133147   0.095   1.515   7.017 -1.3233 -0.1899 -0.5216
 8763SOL    HW233148   0.084   1.410   7.125  0.2755  0.8615  0.7194
 8764SOL     OW33149   4.234   6.137   0.389 -0.2445 -0.2612  0.5713
 8764SOL    HW133150   4.233   6.172   0.300  0.8025 -0.9199  0.2933
 8764SOL    HW233151   4.210   6.045   0.379  2.7030 -1.1257  0.5776
 8765SOL     OW33152   3.849   0.659   8.420  0.1690 -0.2613 -0.3718
 8765SOL    HW133153   3.938   0.682   8.443 -0.0057  1.5624 -1.3836
 8765SOL    HW233154   3.796   0.691   8.493  0.3358 -1.8994  0.5338
 8766SOL     OW33155   9.139   1.228   1.035 -0.0376 -0.3790 -0.2530
 8766SOL    HW133156   9.166   1.260   1.121 -0.0825  0.8363 -0.6820
 8766SOL    HW233157   9.221   1.210   0.989  0.0770  1.7773 -0.9813
 8767SOL     OW33158  12.381   4.836   8.518 -0.7716 -0.1122  0.3414
 8767SOL    HW133159  12.427   4.767   8.565  0.9431 -1.3538 -2.8208
 8767SOL    HW233160  12.438   4.913   8.527 -0.7987 -0.1437  0.8124
 8768SOL     OW33161   8.670   9.742   4.370  0.2636  0.1819 -0.3440
 8768SOL    HW133162   8.733   9.812   4.384 -0.2423  0.6508 -0.3860
 8768SOL    HW233163   8.589   9.787   4.346 -0.9792 -0.1835  2.6874
 8769SOL     OW33164   7.116   5.217   3.061  0.2772 -0.2531 -0.1979
 8769SOL    HW133165   7.059   5.248   3.132 -0.1084 -0.0294 -0.5962
 8769SOL    HW233166   7.061   5.158   3.010  0.2642  0.2895 -0.8293
 8770SOL     OW33167   2.162   7.873   7.219 -0.1476  0.2835 -0.0496
 8770SOL    HW133168   2.217   7.895   7.143  0.8824 -0.1170  0.5592
 8770SOL    HW233169   2.105   7.949   7.229 -1.1252 -0.1401 -1.9258
 8771SOL     OW33170   1.148   5.785  11.627 -0.4803  0.0296 -0.2101
 8771SOL    HW133171   1.100   5.718  11.577  0.5823 -0.5709 -0.4589
 8771SOL    HW233172   1.133   5.761  11.718 -0.8645 -0.0023 -0.2796
 8772SOL     OW33173   7.390  10.009   9.007  0.1259 -0.3229  0.1430
 8772SOL    HW133174   7.350  10.067   9.073  0.6069  0.9845 -0.6633
 8772SOL    HW233175   7.347  10.034   8.925  2.4930  1.1548 -0.7620
 8773SOL     OW33176   3.668   8.582   6.980  0.0003  0.1908 -0.4058
 8773SOL    HW133177   3.742   8.531   7.013 -0.5538  0.1945  0.9079
 8773SOL    HW233178   3.691   8.673   6.997 -0.2797  0.1943 -0.0357
 8774SOL     OW33179  10.857   5.784   5.238  0.4290  0.4237  0.7963
 8774SOL    HW133180  10.812   5.700   5.239  3.0876 -1.1154  0.7845
 8774SOL    HW233181  10.831   5.827   5.320 -1.2653 -0.1992  0.6144
 8775SOL     OW33182   5.795   6.960  10.960  0.1405  0.1753 -0.0400
 8775SOL    HW133183   5.863   6.934  10.898  1.5534  2.3340  0.4951
 8775SOL    HW233184   5.831   7.038  11.003 -3.1633  2.2250 -0.6400
 8776SOL     OW33185   7.879   5.017   6.635  0.5926  0.1460 -0.6356
 8776SOL    HW133186   7.833   5.100   6.649  1.5299  0.4344  1.0634
 8776SOL    HW233187   7.916   5.024   6.547 -1.2286  0.5461 -1.4180
 8777SOL     OW33188   9.854   9.115   2.377 -0.2873 -0.1766 -0.2946
 8777SOL    HW133189   9.940   9.156   2.365 -0.0796 -0.3998  0.3575
 8777SOL    HW233190   9.845   9.057   2.301 -0.0206  0.1211 -0.5569
 8778SOL     OW33191   7.147  12.371  10.755 -0.2603 -0.0393 -0.0482
 8778SOL    HW133192   7.209  12.414  10.813  1.3150  0.2694 -1.8682
 8778SOL    HW233193   7.202  12.322  10.693 -1.9135 -2.2056  0.0681
 8779SOL     OW33194   3.854   7.834   6.485 -0.0470  0.0836  0.0940
 8779SOL    HW133195   3.868   7.761   6.545  0.4131 -0.0416 -0.1583
 8779SOL    HW233196   3.894   7.806   6.403  0.7613  0.8864  0.1869
 8780SOL     OW33197   8.992   9.749   1.654 -0.4530  0.4553 -0.5283
 8780SOL    HW133198   8.997   9.665   1.609  0.4438 -1.1287  2.2422
 8780SOL    HW233199   8.953   9.728   1.739 -1.9299  3.2132 -0.3906
 8781SOL     OW33200   1.986   1.417   2.797 -0.0772 -0.2283  0.1262
 8781SOL    HW133201   1.912   1.471   2.772 -0.2969 -0.9209 -0.7739
 8781SOL    HW233202   2.007   1.445   2.886 -0.7520  0.6929  0.0133
 8782SOL     OW33203   5.873  10.520   8.642  0.1311 -0.7548  0.1175
 8782SOL    HW133204   5.942  10.454   8.648 -0.4123 -1.6177 -2.0781
 8782SOL    HW233205   5.906  10.583   8.577  0.2269  0.6440  1.4769
 8783SOL     OW33206   7.482  10.720   2.071  0.0978  0.1866 -0.0098
 8783SOL    HW133207   7.398  10.755   2.101 -0.5927  0.2425 -1.8951
 8783SOL    HW233208   7.474  10.625   2.081  0.4118  0.2730  1.2247
 8784SOL     OW33209   8.856   3.932   0.113  0.3534 -0.4334 -0.1572
 8784SOL    HW133210   8.817   3.994   0.175 -0.2902  1.4225 -2.3024
 8784SOL    HW233211   8.950   3.942   0.126  0.3094  1.7527 -1.0618
 8785SOL     OW33212   6.706  10.722   1.230  0.1941  0.2237 -0.2318
 8785SOL    HW133213   6.780  10.778   1.209  0.8887 -0.8842 -0.8622
 8785SOL    HW233214   6.630  10.766   1.192  0.5661  1.2065  0.1377
 8786SOL     OW33215   1.617   5.795  10.140 -0.2990  0.4605  0.8884
 8786SOL    HW133216   1.637   5.881  10.177 -3.2866  2.0867 -0.9142
 8786SOL    HW233217   1.552   5.757  10.199  1.5789 -1.0627  2.1241
 8787SOL     OW33218   7.194   5.595   5.892 -0.2343  0.5712 -0.3888
 8787SOL    HW133219   7.114   5.545   5.910  0.8785 -0.9176  0.6961
 8787SOL    HW233220   7.223   5.563   5.806 -0.8710  1.2722 -0.8879
 8788SOL     OW33221   8.452  10.214  12.323 -0.1853  0.3509 -0.3312
 8788SOL    HW133222   8.465  10.263  12.404  0.3561  1.0952 -0.8589
 8788SOL    HW233223   8.397  10.271  12.268  1.8764  1.2081 -1.6361
 8789SOL     OW33224  12.452   6.557   7.296 -0.2680  0.1322 -0.0989
 8789SOL    HW133225  12.504   6.614   7.353 -0.1852  0.3496 -0.3912
 8789SOL    HW233226  12.366   6.555   7.337 -0.3051  0.5681 -0.1531
 8790SOL     OW33227   3.912   0.897   3.494 -0.2266 -0.3301  0.2872
 8790SOL    HW133228   3.870   0.907   3.580 -2.4463 -2.5364 -0.4309
 8790SOL    HW233229   3.857   0.947   3.434 -0.5950 -1.4505 -0.3338
 8791SOL     OW33230  12.562   3.421   4.209 -0.2365 -0.1067  0.1107
 8791SOL    HW133231  12.578   3.494   4.148  0.5857  1.3169  1.9272
 8791SOL    HW233232  12.646   3.375   4.214 -0.8305 -1.4197 -1.2472
 8792SOL     OW33233   4.815   6.016  10.491 -0.1377 -0.8939  0.1099
 8792SOL    HW133234   4.828   5.960  10.415  0.3422 -0.6493  0.0061
 8792SOL    HW233235   4.894   6.002  10.544  0.6116  0.6572 -0.5371
 8793SOL     OW33236  12.372   4.827   1.324 -0.2577  0.5658 -0.0012
 8793SOL    HW133237  12.433   4.795   1.390  1.0686  0.2481 -1.3060
 8793SOL    HW233238  12.308   4.756   1.313  0.8121 -0.3338 -0.6075
 8794SOL     OW33239   7.081   7.565  11.011 -0.7630 -0.6235  0.2959
 8794SOL    HW133240   7.065   7.482  11.057  1.4954 -0.9799  0.5307
 8794SOL    HW233241   7.111   7.540  10.925 -1.8407  0.0258 -0.2990
 8795SOL     OW33242   9.668   8.292   4.684 -0.1260 -0.6045  0.0725
 8795SOL    HW133243   9.763   8.293   4.689 -0.0139 -2.2303 -1.0194
 8795SOL    HW233244   9.647   8.357   4.617  0.1411  0.2458  0.7888
 8796SOL     OW33245   9.080   4.176   5.956 -0.2866 -0.0255  0.1790
 8796SOL    HW133246   9.022   4.166   5.881 -2.0026 -1.2177  1.5971
 8796SOL    HW233247   9.159   4.218   5.920 -0.8532 -0.9574 -2.3386
 8797SOL     OW33248  12.088   3.707   7.152 -0.5727 -0.0441 -0.2806
 8797SOL    HW133249  12.081   3.636   7.216 -1.9184  1.2955  1.1250
 8797SOL    HW233250  12.036   3.677   7.077 -1.2489 -0.4771  0.3529
 8798SOL     OW33251   1.672   2.187  10.129  0.0018  0.2442  0.4230
 8798SOL    HW133252   1.602   2.122  10.131 -0.4451  0.7271  0.8268
 8798SOL    HW233253   1.709   2.185  10.217 -0.1004  0.6290  0.4754
 8799SOL     OW33254   5.474   7.160   1.720  0.4086  0.2842  0.2407
 8799SOL    HW133255   5.539   7.092   1.737 -0.2548 -0.8474 -1.4319
 8799SOL    HW233256   5.520   7.242   1.737  2.4253 -0.4522 -1.2195
 8800SOL     OW33257   6.382  12.001   6.988 -0.2092 -0.4067 -0.3070
 8800SOL    HW133258   6.304  11.971   7.034 -0.5796 -1.3425 -1.4812
 8800SOL    HW233259   6.354  12.081   6.943  0.2177  0.6361  1.2164
 8801SOL     OW33260   8.752  12.013   4.926 -0.4350 -0.0414  0.7342
 8801SOL    HW133261   8.708  12.096   4.946  1.6205  0.8597  1.7737
 8801SOL    HW233262   8.713  11.950   4.986  0.5221  1.0171  2.5428
 8802SOL     OW33263   0.223   2.633   7.730  0.6755 -0.1274  0.8219
 8802SOL    HW133264   0.277   2.607   7.805  1.8279 -1.0829 -0.2922
 8802SOL    HW233265   0.278   2.615   7.653 -1.1889 -1.0875 -0.3713
 8803SOL     OW33266   7.684   0.329  11.467 -0.1412 -0.0776  0.8092
 8803SOL    HW133267   7.657   0.287  11.549 -0.4848  1.4088  1.5070
 8803SOL    HW233268   7.779   0.339  11.476  0.0139 -1.0900  0.4279
 8804SOL     OW33269   5.874   2.303   4.702 -0.2525  0.3994 -0.3016
 8804SOL    HW133270   5.941   2.370   4.686  0.4806  0.2733  1.8472
 8804SOL    HW233271   5.902   2.261   4.783 -2.4835 -0.2638  0.1920
 8805SOL     OW33272   4.367   3.417   1.411 -0.1965 -0.2529  0.4504
 8805SOL    HW133273   4.285   3.464   1.395  0.4151  0.8175  0.3517
 8805SOL    HW233274   4.435   3.480   1.388  0.6558 -1.4182 -0.3083
 8806SOL     OW33275   9.913   6.765   9.250 -0.0134 -0.0610  0.2429
 8806SOL    HW133276   9.850   6.803   9.312  0.9294  0.5723  0.8325
 8806SOL    HW233277   9.945   6.840   9.200  0.8802 -0.2473  0.5138
 8807SOL     OW33278  10.817  10.855  12.042  0.1418 -0.1769  0.0249
 8807SOL    HW133279  10.882  10.787  12.024 -1.4473 -1.4681 -1.1617
 8807SOL    HW233280  10.807  10.855  12.137 -0.1347 -1.9484  0.0252
 8808SOL     OW33281  11.731   3.195   9.158  0.0137  0.4166 -0.1849
 8808SOL    HW133282  11.800   3.261   9.158  0.7442 -0.3106  0.4248
 8808SOL    HW233283  11.679   3.214   9.236 -0.9268  1.3845 -1.0116
 8809SOL     OW33284   7.199  10.650   3.929 -0.1891  0.5646  0.6417
 8809SOL    HW133285   7.203  10.557   3.906 -0.0725  0.4224  1.2389
 8809SOL    HW233286   7.288  10.682   3.911 -0.5130  0.8196 -0.6184
 8810SOL     OW33287  10.508   9.071  11.731  0.0675  0.2488  0.4905
 8810SOL    HW133288  10.460   8.999  11.690 -2.0972  0.7767  1.9754
 8810SOL    HW233289  10.581   9.028  11.776 -0.5945 -0.9148  0.4950
 8811SOL     OW33290   1.451   8.948   1.060  0.3518  0.0647 -0.6084
 8811SOL    HW133291   1.501   9.027   1.041 -0.7962  0.6727 -1.1551
 8811SOL    HW233292   1.368   8.979   1.094 -0.1584 -0.8935 -0.9325
 8812SOL     OW33293   2.137   0.091   7.717 -1.0170 -0.1850  0.5244
 8812SOL    HW133294   2.206   0.142   7.674  1.2910 -2.2552  1.4955
 8812SOL    HW233295   2.144   0.004   7.677 -2.9174 -0.5243  0.8627
 8813SOL     OW33296   6.742  10.963   3.517  0.0148  0.1745 -0.3496
 8813SOL    HW133297   6.803  10.895   3.489  0.3842 -0.1209  1.0543
 8813SOL    HW233298   6.798  11.030   3.558 -0.4760  0.6241 -0.4026
 8814SOL     OW33299   4.381   8.768   6.851 -0.8379  0.0789  0.7668
 8814SOL    HW133300   4.349   8.821   6.778  1.6370 -0.4309 -0.8049
 8814SOL    HW233301   4.370   8.678   6.823 -0.0746 -0.1339  1.1118
 8815SOL     OW33302   3.459  11.356   6.745 -0.0088 -0.1055  0.5121
 8815SOL    HW133303   3.555  11.356   6.748  0.1619  0.3797 -2.2858
 8815SOL    HW233304   3.433  11.283   6.802  2.1349 -1.7595 -0.5197
 8816SOL     OW33305   6.914   7.026   0.188 -0.1692 -0.3163  0.0488
 8816SOL    HW133306   6.965   7.027   0.269 -0.3948  0.0763  0.1925
 8816SOL    HW233307   6.906   7.119   0.164 -2.5535 -0.1429  1.1600
 8817SOL     OW33308   9.534   7.805   2.532  0.0267 -0.3533 -0.2493
 8817SOL    HW133309   9.551   7.746   2.605 -0.7709 -0.9576 -0.5283
 8817SOL    HW233310   9.557   7.892   2.564 -2.3283 -0.2922  1.4832
 8818SOL     OW33311   1.300   8.225   1.184  0.5112  0.7091  0.4066
 8818SOL    HW133312   1.390   8.225   1.153  0.3281  0.9438 -0.1254
 8818SOL    HW233313   1.252   8.279   1.122 -0.0868  0.2289  0.4337
 8819SOL     OW33314  10.388   2.071   1.860  0.1853 -0.2835  0.1865
 8819SOL    HW133315  10.295   2.060   1.881 -0.2588  0.0333 -1.4158
 8819SOL    HW233316  10.399   2.165   1.847  0.2492 -0.4771 -1.4574
 8820SOL     OW33317   1.993   2.931   2.495  0.4674 -0.2718 -0.2989
 8820SOL    HW133318   1.992   2.948   2.401  0.7053  2.3842  0.0965
 8820SOL    HW233319   1.985   2.836   2.502  1.2693 -0.6373 -3.0016
 8821SOL     OW33320   1.336   5.009   9.602 -0.0596  0.3652 -0.0898
 8821SOL    HW133321   1.412   4.975   9.556 -0.2361 -1.5031  0.8912
 8821SOL    HW233322   1.362   5.097   9.629  2.2952 -0.6284  1.2776
 8822SOL     OW33323   5.004   6.118   6.021  0.1643 -0.5493 -0.0207
 8822SOL    HW133324   5.000   6.023   6.027  0.2893 -0.6140 -0.8334
 8822SOL    HW233325   4.993   6.149   6.111 -0.0441 -1.3239  0.2220
 8823SOL     OW33326   0.608  10.063   7.809 -0.3365  0.2321  0.2433
 8823SOL    HW133327   0.681  10.013   7.847 -0.4393  1.7518  2.6594
 8823SOL    HW233328   0.531  10.009   7.825 -0.1607  0.1303  0.7661
 8824SOL     OW33329  10.189   3.135  10.030 -0.4437 -0.3017  0.7324
 8824SOL    HW133330  10.137   3.118  10.108 -0.8003 -0.0243  0.5588
 8824SOL    HW233331  10.157   3.220   9.998  0.6631  0.2672  1.0761
 8825SOL     OW33332   3.470   8.347   6.758 -0.3849  0.1009  0.2237
 8825SOL    HW133333   3.529   8.309   6.693 -0.8683 -0.5197  0.1362
 8825SOL    HW233334   3.499   8.438   6.767 -1.4776  0.7724 -2.2730
 8826SOL     OW33335   3.852   7.043   0.087  0.1691  0.0725 -0.3334
 8826SOL    HW133336   3.811   6.965   0.123  0.5256  0.0392 -0.0001
 8826SOL    HW233337   3.780   7.106   0.078 -0.3906 -0.7241 -1.8720
 8827SOL     OW33338   8.782   9.531   3.655  0.2317 -0.0489 -0.0539
 8827SOL    HW133339   8.852   9.470   3.631 -1.2801 -2.0462  0.3871
 8827SOL    HW233340   8.786   9.535   3.751 -0.2980 -0.2639 -0.0185
 8828SOL     OW33341   5.909   7.417  10.376 -0.3041  0.1417 -0.1778
 8828SOL    HW133342   5.873   7.383  10.294 -0.9340  0.1324  0.0941
 8828SOL    HW233343   5.957   7.343  10.413 -0.0274  0.1434 -0.5330
 8829SOL     OW33344   9.870   5.177   8.274 -0.6225 -0.7440  0.1803
 8829SOL    HW133345   9.901   5.193   8.185 -1.4362 -0.7010 -0.0994
 8829SOL    HW233346   9.781   5.144   8.264 -0.3451 -1.8006  0.9338
 8830SOL     OW33347   5.318   1.427  11.913 -0.1583  0.4282 -0.4496
 8830SOL    HW133348   5.256   1.455  11.846  0.8425  2.0100 -0.7583
 8830SOL    HW233349   5.324   1.501  11.974  0.7284 -0.0475  0.0713
 8831SOL     OW33350   4.352  10.853   7.436  0.2684  0.6738 -0.2398
 8831SOL    HW133351   4.432  10.871   7.485 -0.1139 -0.0017  0.6796
 8831SOL    HW233352   4.286  10.835   7.504 -0.4321  0.3181 -0.9934
 8832SOL     OW33353   6.847  12.125   0.555  0.1196  0.1973 -0.7910
 8832SOL    HW133354   6.915  12.116   0.621 -0.3527 -0.6083 -0.4034
 8832SOL    HW233355   6.829  12.219   0.552 -0.5894  0.1571  0.9936
 8833SOL     OW33356   1.388   7.331   2.265 -0.0452  0.3876  0.0137
 8833SOL    HW133357   1.299   7.324   2.299 -0.0904  0.8782 -0.0049
 8833SOL    HW233358   1.378   7.320   2.170 -0.3975  2.8741 -0.2827
 8834SOL     OW33359   4.596  10.226   4.817  0.3943  0.3055 -0.9189
 8834SOL    HW133360   4.515  10.200   4.774  1.4796 -0.4800 -2.6116
 8834SOL    HW233361   4.652  10.257   4.746  1.9536 -0.1608  0.0562
 8835SOL     OW33362   7.827   2.182   0.500 -0.0169 -0.1040 -0.6581
 8835SOL    HW133363   7.889   2.206   0.570 -1.0583 -1.3463  0.7413
 8835SOL    HW233364   7.847   2.090   0.481 -1.0857 -0.3632 -0.5544
 8836SOL     OW33365   9.634   6.529   3.911  0.3566  0.7843 -0.2444
 8836SOL    HW133366   9.543   6.532   3.882  0.5178 -0.6778 -1.0123
 8836SOL    HW233367   9.636   6.584   3.989 -1.6798 -0.8861  1.1110
 8837SOL     OW33368  10.082   8.007   2.701 -0.4177 -0.4305 -0.0392
 8837SOL    HW133369   9.997   8.004   2.745  0.9426 -1.9696  2.7975
 8837SOL    HW233370  10.116   7.918   2.711  0.6269 -0.4676 -3.1380
 8838SOL     OW33371   9.953   0.880   1.639  0.0774 -0.1903 -0.2916
 8838SOL    HW133372  10.047   0.863   1.644 -0.0020 -0.9226 -1.0327
 8838SOL    HW233373   9.932   0.873   1.545 -0.9135 -1.1764 -0.0231
 8839SOL     OW33374   7.391   8.482   7.543  0.1569 -0.3655 -0.9710
 8839SOL    HW133375   7.354   8.517   7.624  0.2006 -0.1230 -1.0542
 8839SOL    HW233376   7.339   8.404   7.524  1.3384 -1.5275  0.3029
 8840SOL     OW33377  12.555   5.451   4.027  0.1122  0.3875 -0.3465
 8840SOL    HW133378  12.491   5.393   4.067  0.0796  0.1560 -0.7349
 8840SOL    HW233379  12.503   5.519   3.985  0.1597  0.9861  0.5196
 8841SOL     OW33380  11.827   6.349   7.380  0.6557 -0.6337 -0.5557
 8841SOL    HW133381  11.752   6.400   7.349  0.1770 -0.8618  0.1865
 8841SOL    HW233382  11.805   6.258   7.357  0.0944 -0.8584  0.7956
 8842SOL     OW33383   3.065  10.680   0.063  0.3768 -0.3351  0.3504
 8842SOL    HW133384   3.071  10.663   0.157 -0.0991 -0.2448  0.4021
 8842SOL    HW233385   3.130  10.623   0.023  1.9181  0.9727  0.8791
 8843SOL     OW33386   4.117   5.540  11.825  0.7440  0.1411 -0.0071
 8843SOL    HW133387   4.145   5.607  11.762  1.2655 -0.5312 -0.5071
 8843SOL    HW233388   4.192   5.482  11.833  1.6611  1.5256  3.1465
 8844SOL     OW33389   3.787   0.382  11.671 -0.2549 -0.3793  0.9140
 8844SOL    HW133390   3.760   0.339  11.590 -1.8153  0.1618  1.0955
 8844SOL    HW233391   3.821   0.467  11.644 -1.0520 -0.0787  0.8249
 8845SOL     OW33392   2.950   5.138   0.889 -0.4878  0.2501 -0.0964
 8845SOL    HW133393   3.010   5.188   0.945  0.3532 -0.7216 -0.1055
 8845SOL    HW233394   2.904   5.205   0.838  0.8871  1.0173 -0.3876
 8846SOL     OW33395   9.212  10.214   1.822  0.2014 -0.1835 -0.0868
 8846SOL    HW133396   9.156  10.286   1.794  0.2603 -0.4194 -0.8326
 8846SOL    HW233397   9.158  10.135   1.809  0.6152 -0.3908 -0.6048
 8847SOL     OW33398   4.118   6.153   4.678  0.1841  0.3316  0.4399
 8847SOL    HW133399   4.023   6.149   4.664  0.3955 -2.0768 -0.8273
 8847SOL    HW233400   4.127   6.175   4.771 -1.6491  0.0468  0.7285
 8848SOL     OW33401  11.991   2.635   3.135  0.1070  0.9692 -0.6271
 8848SOL    HW133402  12.038   2.552   3.137  0.6007  1.2114 -1.4364
 8848SOL    HW233403  11.898   2.611   3.134  0.2334  0.4544 -0.0064
 8849SOL     OW33404   0.576   3.982   5.658 -0.2542 -0.2342 -0.2005
 8849SOL    HW133405   0.507   3.979   5.724  0.5918  1.0730  0.7815
 8849SOL    HW233406   0.546   3.921   5.590 -1.9942 -0.2765  0.5465
 8850SOL     OW33407   9.204   3.850   8.665 -0.0915 -0.5711  0.0126
 8850SOL    HW133408   9.122   3.816   8.702 -0.6123  0.7229  0.0867
 8850SOL    HW233409   9.203   3.822   8.574 -1.7957  1.4221 -0.6439
 8851SOL     OW33410   5.512   2.125   7.618  0.0104 -0.1731 -0.0651
 8851SOL    HW133411   5.569   2.196   7.587 -1.2332  0.7388 -0.3048
 8851SOL    HW233412   5.547   2.102   7.704 -0.5820  1.9158  0.7891
 8852SOL     OW33413   3.177   9.296   8.175  0.5825 -0.3510 -0.1151
 8852SOL    HW133414   3.161   9.390   8.182 -2.0036 -0.7709  0.5338
 8852SOL    HW233415   3.266   9.290   8.139  1.9226  2.2701  2.3433
 8853SOL     OW33416   5.275   4.903  12.546  0.6887 -0.4011  0.0726
 8853SOL    HW133417   5.210   4.875  12.610  1.5592 -0.8980  0.7661
 8853SOL    HW233418   5.312   4.984  12.582 -0.2584  0.4620 -0.8346
 8854SOL     OW33419  11.594   7.487   5.350  0.4252 -0.5914 -0.3851
 8854SOL    HW133420  11.517   7.542   5.341 -0.6418 -1.5388  2.0851
 8854SOL    HW233421  11.560   7.397   5.348  1.2217 -1.0216  1.8132
 8855SOL     OW33422  12.541   5.745   1.327 -0.5246  0.3727 -0.3838
 8855SOL    HW133423  12.467   5.687   1.308 -1.0989  1.4077 -1.3877
 8855SOL    HW233424  12.617   5.686   1.329 -0.9338 -0.2875 -2.4377
 8856SOL     OW33425  10.556   0.367   1.107 -0.1604 -0.4509 -0.5770
 8856SOL    HW133426  10.490   0.341   1.170  0.7864 -0.0986  0.6029
 8856SOL    HW233427  10.618   0.294   1.104  0.6354  0.1672  0.1151
 8857SOL     OW33428   9.448  10.037   8.901  0.2753 -0.0085  0.5679
 8857SOL    HW133429   9.389  10.109   8.876  1.2497  0.7486  0.3922
 8857SOL    HW233430   9.501  10.074   8.972  0.0344 -0.9327  1.2423
 8858SOL     OW33431   3.799  10.033   0.660  0.4836  0.8930 -0.1483
 8858SOL    HW133432   3.753  10.092   0.600  0.2290  0.1498 -0.6988
 8858SOL    HW233433   3.817  10.086   0.738 -4.0007  0.4676  1.4264
 8859SOL     OW33434   5.473   6.258   1.870 -0.1553  0.0140  0.1432
 8859SOL    HW133435   5.414   6.193   1.834 -0.0572  0.9700 -1.8598
 8859SOL    HW233436   5.419   6.336   1.882  0.6292  0.9146 -1.7619
 8860SOL     OW33437   7.837  12.457   3.394  0.0298  0.1559 -0.6483
 8860SOL    HW133438   7.794  12.475   3.311  0.1919  0.7191 -0.6176
 8860SOL    HW233439   7.784  12.389   3.435 -1.5063  1.6103 -0.1102
 8861SOL     OW33440   9.214   3.090   9.956  0.0899  0.1363  0.0606
 8861SOL    HW133441   9.143   3.129  10.007 -0.4033 -1.4441  0.6513
 8861SOL    HW233442   9.250   3.163   9.905  0.2597  1.6668  2.2456
 8862SOL     OW33443   9.631  11.949   3.728  0.5810  0.3254  0.3813
 8862SOL    HW133444   9.583  12.030   3.713  1.1167  0.8765  1.5095
 8862SOL    HW233445   9.640  11.910   3.641  0.1128  1.3501 -0.1469
 8863SOL     OW33446   7.201  11.503   1.449 -0.1927  0.2327 -0.0315
 8863SOL    HW133447   7.157  11.450   1.382  0.9056 -1.6839  0.6607
 8863SOL    HW233448   7.258  11.562   1.399 -0.5506 -0.0876 -0.8289
 8864SOL     OW33449   8.178   4.293   9.142 -0.5105 -0.3743 -0.1832
 8864SOL    HW133450   8.166   4.358   9.212  1.1150  1.6650 -1.6583
 8864SOL    HW233451   8.228   4.223   9.184 -1.1875 -0.0820  1.1674
 8865SOL     OW33452   2.269  11.492   2.190 -0.5206 -0.3304 -0.0052
 8865SOL    HW133453   2.330  11.449   2.250 -0.8180 -1.4011 -0.4338
 8865SOL    HW233454   2.319  11.504   2.110 -0.7371 -0.8269 -0.2199
 8866SOL     OW33455   3.901   3.608   7.415  0.7004 -0.0075  0.0669
 8866SOL    HW133456   3.882   3.570   7.329  2.2348 -0.6258 -0.0249
 8866SOL    HW233457   3.863   3.546   7.478  0.4425 -0.0628 -0.1401
 8867SOL     OW33458   1.150  10.654   3.090 -0.2392  0.5126 -0.1683
 8867SOL    HW133459   1.135  10.592   3.019  2.3855  0.2200 -0.5491
 8867SOL    HW233460   1.217  10.613   3.144  0.5683  2.3863  0.3324
 8868SOL     OW33461   7.885  11.197   6.221 -0.2119  0.0393  0.4154
 8868SOL    HW133462   7.869  11.291   6.226 -0.8998 -0.1193  1.4121
 8868SOL    HW233463   7.797  11.158   6.215 -0.0050 -0.6138  1.4693
 8869SOL     OW33464   7.116   5.726   5.342  0.5443 -0.6131 -0.0405
 8869SOL    HW133465   7.189   5.787   5.334  0.7107 -0.8277 -0.1815
 8869SOL    HW233466   7.058   5.748   5.269  0.4843 -0.4610  0.0549
 8870SOL     OW33467   7.376   2.444  10.532  0.3945 -0.3789  0.5001
 8870SOL    HW133468   7.404   2.532  10.509  0.2894 -0.4643  0.0426
 8870SOL    HW233469   7.368   2.445  10.628 -0.3441  0.3223  0.4357
 8871SOL     OW33470   0.549   8.120   7.662  0.5988  0.2941 -0.1122
 8871SOL    HW133471   0.473   8.079   7.703  0.4098 -0.7047 -1.4206
 8871SOL    HW233472   0.575   8.188   7.724  1.0749 -1.9257  2.2665
 8872SOL     OW33473  11.079   1.086   3.583 -0.5166 -0.0712 -0.4786
 8872SOL    HW133474  11.015   1.125   3.523 -0.3513  1.6561  0.3924
 8872SOL    HW233475  11.026   1.037   3.646 -0.8387 -0.2504 -0.8851
 8873SOL     OW33476   1.561   5.158   9.865 -0.3029 -0.3864  0.5712
 8873SOL    HW133477   1.535   5.247   9.890 -2.1997 -0.3604 -1.1656
 8873SOL    HW233478   1.483   5.105   9.883  0.0861 -1.2868 -0.3250
 8874SOL     OW33479   0.008   3.221   6.103  0.1677 -0.3400 -0.3013
 8874SOL    HW133480   0.034   3.256   6.189  1.5868  0.0121 -0.8492
 8874SOL    HW233481  -0.061   3.158   6.123 -0.3236  0.5515  0.9957
 8875SOL     OW33482   9.726   9.693   5.082 -0.2361 -0.3458 -0.3073
 8875SOL    HW133483   9.780   9.768   5.104  1.2526 -0.7561 -2.2507
 8875SOL    HW233484   9.668   9.681   5.158  1.2332  1.1575  1.1246
 8876SOL     OW33485   3.008  12.004  10.367  0.4244  0.1120 -0.2759
 8876SOL    HW133486   3.087  12.035  10.410  0.7496 -0.7253 -0.2519
 8876SOL    HW233487   3.005  11.910  10.386  1.0287 -0.4823 -2.7296
 8877SOL     OW33488   9.991  12.157   3.249 -0.1543  0.1257 -0.2313
 8877SOL    HW133489  10.026  12.217   3.316  0.6479  1.4546 -1.7848
 8877SOL    HW233490  10.067  12.107   3.220 -0.4548 -0.2706 -0.3426
 8878SOL     OW33491   7.133   4.881   9.479  0.0772 -0.1705 -0.3918
 8878SOL    HW133492   7.073   4.953   9.458 -0.4500  0.4424  2.6964
 8878SOL    HW233493   7.219   4.923   9.482  0.1784 -0.2895 -1.2616
 8879SOL     OW33494   4.729  11.312   7.930 -0.4833 -0.1496 -0.0468
 8879SOL    HW133495   4.758  11.225   7.955 -0.2539 -0.3672 -1.0509
 8879SOL    HW233496   4.752  11.368   8.005  2.4455 -0.3079 -0.7198
 8880SOL     OW33497   0.910   0.260  10.799 -0.1019 -0.0953  0.7978
 8880SOL    HW133498   1.005   0.257  10.785  0.0455 -0.1889  1.7778
 8880SOL    HW233499   0.882   0.168  10.790 -0.7148  0.2872 -3.2684
 8881SOL     OW33500   4.563   0.532  10.320 -0.7095  0.0825  0.2597
 8881SOL    HW133501   4.619   0.567  10.390 -0.7658  1.0635 -0.1600
 8881SOL    HW233502   4.590   0.441  10.311 -0.9190 -0.1654  1.7704
 8882SOL     OW33503  11.534  10.912   4.487  0.1254  0.1561 -0.5406
 8882SOL    HW133504  11.592  10.918   4.563 -0.4437  0.6198 -0.1288
 8882SOL    HW233505  11.519  10.818   4.476 -1.8869  0.1296  1.5893
 8883SOL     OW33506   8.113   6.206  10.728 -0.2026 -0.5156  0.2324
 8883SOL    HW133507   8.167   6.138  10.769 -0.8652 -0.0979  1.8909
 8883SOL    HW233508   8.171   6.249  10.665  1.1131 -0.7005  1.2728
 8884SOL     OW33509  11.209   5.065   8.493  0.0788  0.0565 -0.1579
 8884SOL    HW133510  11.137   5.070   8.430 -0.5750 -1.4580  0.4139
 8884SOL    HW233511  11.180   5.118   8.567 -0.6035 -0.7578  0.1820
 8885SOL     OW33512   3.153   3.223  10.959 -0.2309 -0.1656 -0.4775
 8885SOL    HW133513   3.229   3.164  10.958 -0.6649 -0.7370 -0.9350
 8885SOL    HW233514   3.079   3.166  10.937 -1.0515  0.0603  1.5640
 8886SOL     OW33515  12.315   7.553   0.541  0.0243 -0.2318  0.1416
 8886SOL    HW133516  12.349   7.552   0.452  1.6148 -1.0841  0.7337
 8886SOL    HW233517  12.381   7.507   0.593  0.6503  2.8095  2.2940
 8887SOL     OW33518   0.682   7.795   3.142 -0.8209 -0.6507  0.6809
 8887SOL    HW133519   0.777   7.794   3.130 -0.8889 -4.1970 -0.9325
 8887SOL    HW233520   0.650   7.851   3.071 -0.0114  1.9135  2.1872
 8888SOL     OW33521   9.786   9.080   6.606 -0.1836  0.1332  0.2884
 8888SOL    HW133522   9.735   9.128   6.540 -1.7267 -2.1904 -0.3275
 8888SOL    HW233523   9.846   9.027   6.555  0.5061  0.3211  0.8950
 8889SOL     OW33524   7.391   8.475   2.548  0.4475 -0.7014  0.0895
 8889SOL    HW133525   7.387   8.384   2.518  0.2258 -0.7612  0.3031
 8889SOL    HW233526   7.310   8.515   2.516 -0.5500 -1.1587  1.8897
 8890SOL     OW33527   9.370  10.286   3.223 -0.1855 -0.4824 -0.0424
 8890SOL    HW133528   9.443  10.292   3.284 -0.0383 -0.8098 -0.1836
 8890SOL    HW233529   9.366  10.194   3.199  0.0637 -0.2871 -0.8896
 8891SOL     OW33530  11.298   3.631   5.346 -0.1056  0.5452  0.4787
 8891SOL    HW133531  11.306   3.598   5.257  2.4801  0.8540  0.5226
 8891SOL    HW233532  11.295   3.552   5.401 -1.4584  0.3604  0.1708
 8892SOL     OW33533  11.289   8.832   9.163 -0.4798 -0.2137  0.5605
 8892SOL    HW133534  11.296   8.798   9.252  0.6645 -0.4660  0.3962
 8892SOL    HW233535  11.262   8.756   9.110 -1.5527  0.0287  0.7354
 8893SOL     OW33536   2.251   2.377   8.866 -0.5519 -0.7600 -0.1339
 8893SOL    HW133537   2.181   2.419   8.915 -0.4628  0.6985 -1.2061
 8893SOL    HW233538   2.220   2.376   8.775  1.1304  0.7191 -0.7913
 8894SOL     OW33539   3.799   9.914   2.925 -0.2525 -0.2050  0.7283
 8894SOL    HW133540   3.884   9.920   2.970  0.5102  1.4479 -0.8097
 8894SOL    HW233541   3.734   9.921   2.996  0.8371 -2.0956  1.9961
 8895SOL     OW33542   4.467   1.396   8.552 -0.0318  0.2714  0.1347
 8895SOL    HW133543   4.550   1.425   8.589  1.1239 -0.3587 -1.8380
 8895SOL    HW233544   4.457   1.306   8.583  1.6392 -0.7544 -2.0711
 8896SOL     OW33545   4.597   6.843  10.928 -0.2486  0.0644  0.1505
 8896SOL    HW133546   4.519   6.808  10.970 -0.1889 -2.2027 -1.4535
 8896SOL    HW233547   4.670   6.804  10.977 -0.0812  1.4494  1.0632
 8897SOL     OW33548  10.524   0.096   2.276  0.3279 -0.3035  0.0276
 8897SOL    HW133549  10.512   0.003   2.294 -0.2218 -0.1034  0.7181
 8897SOL    HW233550  10.439   0.136   2.297  0.3927  0.2847 -0.7509
 8898SOL     OW33551   7.669   7.649   0.493 -0.4627  0.0583 -0.0364
 8898SOL    HW133552   7.709   7.600   0.565 -0.0180 -0.7790 -0.8329
 8898SOL    HW233553   7.576   7.625   0.496 -0.6274  0.7560  0.8222
 8899SOL     OW33554   2.321  10.593   7.840  0.3963 -0.3426  0.2994
 8899SOL    HW133555   2.283  10.653   7.905 -0.4495 -0.9173  0.3485
 8899SOL    HW233556   2.408  10.630   7.822 -0.9128  2.2282 -1.3741
 8900SOL     OW33557   2.878   9.180   9.276  0.1460 -0.1409  0.3257
 8900SOL    HW133558   2.829   9.100   9.260  0.5126 -0.2346 -0.3578
 8900SOL    HW233559   2.957   9.152   9.322 -0.1833 -0.0491  0.9638
 8901SOL     OW33560   1.910   4.923   0.208  0.1215  0.1936 -0.2217
 8901SOL    HW133561   1.815   4.911   0.197 -0.3238  1.1945  2.0781
 8901SOL    HW233562   1.948   4.842   0.173 -1.6756 -0.8081  0.0097
 8902SOL     OW33563   5.000   6.062  11.083 -0.6820 -0.2027 -0.7460
 8902SOL    HW133564   4.922   6.099  11.124  0.1674  1.1984 -0.3177
 8902SOL    HW233565   5.062   6.135  11.079  0.2070 -0.9745 -2.1381
 8903SOL     OW33566  10.839   8.527   3.506  0.3899 -0.2884  0.0041
 8903SOL    HW133567  10.925   8.515   3.547  0.8827 -0.8834 -1.1550
 8903SOL    HW233568  10.808   8.438   3.491 -1.2918 -0.1221  2.0696
 8904SOL     OW33569   0.899   4.963   5.324 -0.2830 -0.0265  0.1870
 8904SOL    HW133570   0.846   4.890   5.292 -1.2782  0.2180  1.1890
 8904SOL    HW233571   0.972   4.923   5.370 -0.1562 -0.3801 -0.3213
 8905SOL     OW33572   4.704   7.345  11.266 -0.0197 -0.0572 -0.1200
 8905SOL    HW133573   4.714   7.253  11.292  0.9064 -0.5092 -1.8931
 8905SOL    HW233574   4.768   7.357  11.197 -0.0127  2.0068  0.1930
 8906SOL     OW33575   8.731   2.094   6.887  0.2217 -0.0482  0.1478
 8906SOL    HW133576   8.691   2.141   6.814  0.6111  0.9759  0.5706
 8906SOL    HW233577   8.764   2.163   6.945  2.3517 -0.8219 -0.0410
 8907SOL     OW33578   6.643   6.605   4.952 -0.6158  0.1085 -0.4581
 8907SOL    HW133579   6.573   6.543   4.932 -0.5426 -0.4115  0.7899
 8907SOL    HW233580   6.604   6.668   5.013 -0.2731  0.3974 -0.5328
 8908SOL     OW33581  10.471   2.518   4.601 -0.0870  0.3278 -0.0037
 8908SOL    HW133582  10.383   2.486   4.618 -0.1523  0.6873  0.3235
 8908SOL    HW233583  10.474   2.528   4.505 -0.9119  1.7694  0.0922
 8909SOL     OW33584   2.891   8.580   2.356 -0.0319 -0.1344  0.0779
 8909SOL    HW133585   2.913   8.604   2.266 -0.0500  2.7956  0.7570
 8909SOL    HW233586   2.799   8.607   2.366  0.0670 -0.1280  1.0788
 8910SOL     OW33587   3.158   7.144   8.169 -0.0545 -0.0069 -0.5367
 8910SOL    HW133588   3.210   7.214   8.209  0.3543 -0.5176 -0.1571
 8910SOL    HW233589   3.174   7.153   8.075  2.2028 -1.2459 -0.3590
 8911SOL     OW33590   1.156   3.134   2.167 -0.9059  0.6466  0.1637
 8911SOL    HW133591   1.192   3.208   2.117 -4.0084  2.0738 -0.2027
 8911SOL    HW233592   1.064   3.131   2.142 -0.9921 -3.3614  0.2721
 8912SOL     OW33593   2.429   6.203   9.461 -0.2681  0.4556 -0.4672
 8912SOL    HW133594   2.386   6.233   9.541 -0.8952 -0.0752 -0.6001
 8912SOL    HW233595   2.511   6.163   9.491 -0.5347  0.1924 -0.0827
 8913SOL     OW33596   7.585   0.959   4.160 -0.2940  0.7106  0.3541
 8913SOL    HW133597   7.653   0.893   4.175  1.0748  2.1465  0.7627
 8913SOL    HW233598   7.542   0.932   4.079  0.2477 -0.6439  0.4946
 8914SOL     OW33599   5.846   8.023  12.359  0.4735  0.1794 -0.3024
 8914SOL    HW133600   5.764   8.027  12.309  0.8047 -1.6717 -1.1128
 8914SOL    HW233601   5.905   8.082  12.312 -0.0046  0.5084 -0.5024
 8915SOL     OW33602   4.762  11.003   6.864 -0.0114 -0.0716 -0.3737
 8915SOL    HW133603   4.681  10.992   6.815  0.2155  1.1785 -1.0567
 8915SOL    HW233604   4.824  11.039   6.801  0.7037  0.2022  0.4649
 8916SOL     OW33605   4.102   4.474   9.038 -0.0937  0.1023 -0.6915
 8916SOL    HW133606   4.145   4.392   9.064 -0.0487  0.4323  0.3189
 8916SOL    HW233607   4.015   4.446   9.008  0.3030 -0.4198 -1.3862
 8917SOL     OW33608   5.879   3.623   2.724  0.0902  0.2368  0.3963
 8917SOL    HW133609   5.816   3.688   2.755  1.3620  1.2055  1.0370
 8917SOL    HW233610   5.827   3.543   2.712 -1.9522  1.8144 -2.3771
 8918SOL     OW33611  11.525   5.813  11.081  0.1400  0.2718  0.0369
 8918SOL    HW133612  11.524   5.883  11.146  0.7231 -1.2160  1.7477
 8918SOL    HW233613  11.500   5.855  10.999  1.9373  2.7660  0.6553
 8919SOL     OW33614   7.518   9.037  11.197 -0.2305  0.0622 -0.5770
 8919SOL    HW133615   7.542   9.127  11.175  1.3553 -0.1600  0.1248
 8919SOL    HW233616   7.598   8.999  11.233 -0.9645 -1.5430 -0.5711
 8920SOL     OW33617   3.907   3.860  11.843  0.1381 -0.4114 -0.0388
 8920SOL    HW133618   3.922   3.772  11.808  0.4882  0.4173 -2.1543
 8920SOL    HW233619   3.813   3.864  11.858  0.2265 -1.4029  0.9056
 8921SOL     OW33620   7.598   8.065   6.812 -0.3143  0.4063  0.0077
 8921SOL    HW133621   7.631   7.980   6.840 -0.5280 -0.1293 -1.2857
 8921SOL    HW233622   7.636   8.128   6.873  1.4353 -0.4105 -0.1905
 8922SOL     OW33623   9.585  11.453   2.333  0.4268 -0.2464 -0.2626
 8922SOL    HW133624   9.669  11.471   2.290 -0.2592  0.5590 -1.3277
 8922SOL    HW233625   9.553  11.540   2.359 -1.8723  0.0116 -3.3946
 8923SOL     OW33626   0.775  12.009   0.697  0.6906  0.2259 -0.0481
 8923SOL    HW133627   0.723  11.982   0.622  1.6019 -1.8704  0.0256
 8923SOL    HW233628   0.718  11.993   0.772 -0.4314  2.8316 -0.2085
 8924SOL     OW33629   4.199  11.092  11.636  0.4160 -0.0246 -0.1887
 8924SOL    HW133630   4.132  11.138  11.688 -0.6285 -1.6142 -0.0521
 8924SOL    HW233631   4.272  11.153  11.633 -0.0194  0.7054  1.9762
 8925SOL     OW33632  12.381   8.415   1.039 -0.2314  0.1275 -0.0948
 8925SOL    HW133633  12.342   8.450   0.959 -2.6544 -1.7582  0.1088
 8925SOL    HW233634  12.320   8.441   1.108  0.9627  0.3445  0.8961
 8926SOL     OW33635   8.695   0.461   4.878  0.1731 -0.4281 -0.1118
 8926SOL    HW133636   8.619   0.415   4.914  0.1659  0.7277  1.4724
 8926SOL    HW233637   8.768   0.401   4.890 -0.4918 -1.6735 -1.9243
 8927SOL     OW33638   7.458  10.145   1.172 -0.2273  0.4029  0.3980
 8927SOL    HW133639   7.372  10.142   1.213  0.1758 -1.9171  1.1885
 8927SOL    HW233640   7.471  10.057   1.136  1.5210  0.9243 -0.3586
 8928SOL     OW33641   2.036  10.023   1.603 -0.4977  0.6582 -0.1914
 8928SOL    HW133642   2.007   9.945   1.652 -0.6861  1.3059  0.7445
 8928SOL    HW233643   2.110   9.992   1.552 -1.6590 -0.5825 -1.2052
 8929SOL     OW33644   3.245   6.481  12.138 -0.3490 -0.4599  0.0575
 8929SOL    HW133645   3.152   6.466  12.152 -0.6058  0.5810 -0.4228
 8929SOL    HW233646   3.279   6.502  12.225 -1.4119  3.3040 -0.2548
 8930SOL     OW33647   1.625   5.539  11.824  0.4792 -0.1429 -0.0797
 8930SOL    HW133648   1.546   5.536  11.770  1.0070 -0.6563 -0.8486
 8930SOL    HW233649   1.594   5.519  11.913 -0.4071  0.7679 -0.1686
 8931SOL     OW33650   5.005   0.580   1.644  0.4011 -0.0872  0.1939
 8931SOL    HW133651   4.973   0.669   1.626  0.8048  0.0049 -0.0694
 8931SOL    HW233652   5.097   0.582   1.620  0.2137 -0.8126 -0.6346
 8932SOL     OW33653   3.076   6.248  10.808 -0.0962 -0.3037 -0.1544
 8932SOL    HW133654   3.132   6.252  10.731 -0.0695 -0.3435 -0.1367
 8932SOL    HW233655   3.043   6.337  10.818  1.7049  0.2712  1.1341
 8933SOL     OW33656   7.205   9.133   8.083  0.4900  0.0153  0.2409
 8933SOL    HW133657   7.293   9.106   8.109  1.0643  1.7687  0.2419
 8933SOL    HW233658   7.171   9.181   8.159  0.0843  0.5378 -0.2614
 8934SOL     OW33659  12.025   7.650   3.557  0.7410  0.3584  0.4759
 8934SOL    HW133660  11.945   7.660   3.505  1.1619  0.4614 -0.1677
 8934SOL    HW233661  12.005   7.579   3.618 -0.6489  1.8868  1.9098
 8935SOL     OW33662   8.456   3.599   4.711 -0.6363  0.0351  0.5157
 8935SOL    HW133663   8.466   3.518   4.761  0.0257  1.0672  2.1074
 8935SOL    HW233664   8.518   3.660   4.751 -0.0286  0.9104 -1.6136
 8936SOL     OW33665   7.373   6.044   0.674  0.2128 -0.4951 -0.1751
 8936SOL    HW133666   7.396   6.057   0.766  1.1993  1.4514 -0.6319
 8936SOL    HW233667   7.443   5.989   0.639  0.6094 -0.0603 -0.0706
 8937SOL     OW33668   2.555   8.222   0.751 -0.5204  0.2049  0.2843
 8937SOL    HW133669   2.598   8.154   0.698 -0.6261  0.2345  0.1591
 8937SOL    HW233670   2.497   8.173   0.809  0.0093  0.1346  0.7636
 8938SOL     OW33671  11.247   5.842   0.388  0.2997  0.6866  0.7286
 8938SOL    HW133672  11.321   5.807   0.340 -1.4601 -0.5081 -1.2789
 8938SOL    HW233673  11.264   5.819   0.479  1.7812 -0.6490  0.1454
 8939SOL     OW33674  11.761   4.570  11.946 -0.1415 -0.2295 -0.3582
 8939SOL    HW133675  11.760   4.608  11.858 -0.1873  1.4328  0.3220
 8939SOL    HW233676  11.848   4.531  11.954 -0.4811 -1.3064 -1.4752
 8940SOL     OW33677   3.117   9.557   4.379  0.3293  0.0186 -0.0223
 8940SOL    HW133678   3.098   9.650   4.375  1.0923  0.2648  1.4385
 8940SOL    HW233679   3.189   9.544   4.317  0.2822  0.4060 -0.1585
 8941SOL     OW33680  10.803  10.658   9.535 -0.0188 -0.0835 -0.5523
 8941SOL    HW133681  10.747  10.644   9.458 -1.6938  0.4445  0.5183
 8941SOL    HW233682  10.822  10.571   9.568 -0.9069 -0.2569 -0.4725
 8942SOL     OW33683   3.610   3.389   7.365 -0.1931  0.5422 -0.5843
 8942SOL    HW133684   3.537   3.436   7.324 -1.4995 -2.9901 -2.8022
 8942SOL    HW233685   3.687   3.415   7.315 -0.0518  3.2618  0.8896
 8943SOL     OW33686   7.562   3.788   6.093 -0.9940 -0.2851  0.0427
 8943SOL    HW133687   7.611   3.838   6.158 -1.5967 -0.7814  0.9036
 8943SOL    HW233688   7.626   3.766   6.026 -0.3691  0.2724  0.4495
 8944SOL     OW33689   9.649   4.875   7.004 -0.7762 -0.3095  0.5661
 8944SOL    HW133690   9.626   4.852   7.094  1.0057 -1.8482  0.6870
 8944SOL    HW233691   9.599   4.814   6.950  0.1832 -1.1924  0.6572
 8945SOL     OW33692  11.008   0.864  10.833  0.1228  0.6249 -0.4110
 8945SOL    HW133693  11.056   0.946  10.846 -0.2410  0.6965  0.5511
 8945SOL    HW233694  10.916   0.890  10.833  0.0472  0.3662 -1.2979
 8946SOL     OW33695   8.095   5.474   0.633 -0.0938  0.3476  0.1455
 8946SOL    HW133696   8.009   5.439   0.610  0.5546  0.3147 -2.6645
 8946SOL    HW233697   8.096   5.476   0.728 -3.3068  0.6639  0.2807
 8947SOL     OW33698  10.674   3.615   0.461  0.2559 -0.5810 -0.4129
 8947SOL    HW133699  10.629   3.657   0.535  0.8841  0.1050 -0.4091
 8947SOL    HW233700  10.605   3.567   0.416  0.1333 -2.4802  1.6002
 8948SOL     OW33701   1.641   0.701  10.328  0.7256 -0.0320  0.4844
 8948SOL    HW133702   1.548   0.724  10.320  0.6662 -0.6307 -0.7136
 8948SOL    HW233703   1.674   0.760  10.395 -0.6308 -0.1392  1.2986
 8949SOL     OW33704   5.767   2.526   5.309 -0.3397 -0.5210  0.1368
 8949SOL    HW133705   5.838   2.496   5.365 -0.6698 -0.1066  0.7792
 8949SOL    HW233706   5.792   2.496   5.221 -0.8302 -2.9779  0.7712
 8950SOL     OW33707   5.791   5.017   6.949 -0.4219 -0.3002 -0.5394
 8950SOL    HW133708   5.809   5.027   6.855  2.3734 -0.3102 -0.0933
 8950SOL    HW233709   5.817   5.101   6.987 -1.3320 -0.3737  0.2635
 8951SOL     OW33710   4.966  11.400   0.351 -0.4012 -0.1702  0.1209
 8951SOL    HW133711   5.016  11.347   0.414 -1.4604 -0.3647  0.8195
 8951SOL    HW233712   4.961  11.345   0.273  0.7357 -0.0192 -0.0772
 8952SOL     OW33713  11.875   7.196   0.210  0.0898  0.3230 -0.2127
 8952SOL    HW133714  11.968   7.210   0.189  0.6865 -0.6173  1.5771
 8952SOL    HW233715  11.865   7.233   0.297 -0.7701 -1.1980  0.3629
 8953SOL     OW33716   6.354   4.071   6.665 -0.1310 -0.1879  0.2575
 8953SOL    HW133717   6.348   4.082   6.570 -3.1311 -2.3171  0.0693
 8953SOL    HW233718   6.340   4.159   6.699  0.6571  0.5615 -1.2312
 8954SOL     OW33719   2.344   1.836   1.556 -0.3152 -0.5005  0.2206
 8954SOL    HW133720   2.289   1.759   1.544  0.1780 -0.7365 -0.5900
 8954SOL    HW233721   2.434   1.802   1.550 -0.0946  0.1318 -0.1218
 8955SOL     OW33722   1.911   4.685   2.988  0.9456  0.1545  0.0326
 8955SOL    HW133723   2.003   4.675   2.963  0.6416 -0.0194 -1.0746
 8955SOL    HW233724   1.878   4.754   2.931  0.6868  1.1240  1.2927
 8956SOL     OW33725   3.165   4.570  11.245 -0.2506 -0.2007 -0.6270
 8956SOL    HW133726   3.084   4.545  11.200 -0.8377  1.2051 -0.3953
 8956SOL    HW233727   3.230   4.507  11.214 -1.4058 -1.3053 -0.8836
 8957SOL     OW33728   7.311   7.421   6.965 -0.2666 -0.3607  0.2306
 8957SOL    HW133729   7.324   7.423   7.060  0.6399 -0.3499  0.1108
 8957SOL    HW233730   7.223   7.455   6.952 -0.2427  0.0194  1.0426
 8958SOL     OW33731   2.707   0.856   6.545  0.5453 -0.0768 -0.0932
 8958SOL    HW133732   2.632   0.900   6.586 -0.1206 -0.5172 -0.8190
 8958SOL    HW233733   2.668   0.798   6.480  1.4624 -1.1080  0.2563
 8959SOL     OW33734   1.179   0.699   0.573  0.0110 -0.6545 -0.1942
 8959SOL    HW133735   1.125   0.649   0.511  0.7391  0.5467 -1.8907
 8959SOL    HW233736   1.265   0.659   0.567  0.2575 -0.0882 -0.5238
 8960SOL     OW33737   1.628   7.049   8.530  0.5053  0.0667 -0.0428
 8960SOL    HW133738   1.719   7.020   8.536  1.1101  1.9740  0.9047
 8960SOL    HW233739   1.633   7.144   8.540 -1.4657  0.3864 -1.6217
 8961SOL     OW33740   8.888  10.492   5.363  0.0228  0.1835 -0.4566
 8961SOL    HW133741   8.881  10.558   5.432  0.3276  0.2812 -0.5177
 8961SOL    HW233742   8.974  10.453   5.375 -0.9173 -1.6488  0.8723
 8962SOL     OW33743   3.468   5.260   9.870 -0.5093  0.3306 -0.5483
 8962SOL    HW133744   3.392   5.278   9.815 -1.7689 -1.2399  0.5762
 8962SOL    HW233745   3.500   5.175   9.840  0.3342  0.6074 -0.4771
 8963SOL     OW33746   4.755  10.313   4.306 -0.3019 -0.2069  0.0150
 8963SOL    HW133747   4.773  10.328   4.213 -0.6720  0.1106 -0.0121
 8963SOL    HW233748   4.840  10.293   4.345 -0.1297 -0.2375 -0.3731
 8964SOL     OW33749   7.662   3.689  10.443  0.1726 -0.1659 -0.3522
 8964SOL    HW133750   7.591   3.688  10.380  0.0880 -0.0288 -0.2594
 8964SOL    HW233751   7.694   3.780  10.442 -0.4542  0.0707  0.5033
 8965SOL     OW33752   0.928   2.036   3.935 -0.3529  0.3004 -0.9910
 8965SOL    HW133753   0.878   2.073   3.863 -1.1876  2.5804  0.6511
 8965SOL    HW233754   0.900   2.085   4.012  0.7533 -1.7840  0.8637
 8966SOL     OW33755   0.493   9.433   7.508 -0.0654 -0.3365  0.3918
 8966SOL    HW133756   0.418   9.386   7.470  0.0508 -1.6026  1.6579
 8966SOL    HW233757   0.477   9.525   7.486 -1.3314 -0.7298 -0.4575
 8967SOL     OW33758   8.652   4.448   8.638 -0.1613  0.0405 -0.4001
 8967SOL    HW133759   8.561   4.445   8.609 -0.1811  0.6519 -0.4252
 8967SOL    HW233760   8.650   4.507   8.714  0.2661  0.3453 -0.6197
 8968SOL     OW33761   3.956   1.531   7.800  0.5108 -0.3452 -0.2729
 8968SOL    HW133762   3.896   1.561   7.868  1.5524 -1.2592  1.0848
 8968SOL    HW233763   3.921   1.571   7.719 -1.5958 -0.4157  0.5299
 8969SOL     OW33764   9.716   5.687   9.225 -0.6150 -0.1403  0.2355
 8969SOL    HW133765   9.735   5.655   9.313  0.4485  0.5900  0.2919
 8969SOL    HW233766   9.681   5.611   9.179  1.9832 -1.5268  0.3276
 8970SOL     OW33767  10.722   0.251  11.339 -0.2625  0.5475 -0.0730
 8970SOL    HW133768  10.770   0.257  11.421  1.3728  2.5332 -1.0724
 8970SOL    HW233769  10.790   0.237  11.272 -1.5143 -0.8039 -1.1433
 8971SOL     OW33770   1.917   9.224   7.964 -0.3468 -0.0416  0.3469
 8971SOL    HW133771   1.852   9.234   7.895  1.0768 -0.4598 -1.1219
 8971SOL    HW233772   1.994   9.272   7.932 -0.1503  1.1502  2.3936
 8972SOL     OW33773  12.458   7.738   5.628  0.0758 -0.1855  0.1735
 8972SOL    HW133774  12.443   7.709   5.537  0.0656  0.1327  0.0718
 8972SOL    HW233775  12.488   7.660   5.673  0.3906 -0.2753 -0.1824
 8973SOL     OW33776   3.714   2.589   8.875 -0.1293 -0.5577 -0.1134
 8973SOL    HW133777   3.746   2.570   8.963 -1.2892 -0.5101  0.3270
 8973SOL    HW233778   3.646   2.655   8.887  1.5133  1.4778 -1.3053
 8974SOL     OW33779   8.951   6.766   2.288 -0.8238 -0.5830 -0.5229
 8974SOL    HW133780   8.882   6.826   2.260  1.1037  0.8463 -2.5987
 8974SOL    HW233781   8.936   6.687   2.237 -1.8454 -0.9298  0.2770
 8975SOL     OW33782   0.409   5.322  11.736 -0.0954 -0.1060 -0.1711
 8975SOL    HW133783   0.325   5.278  11.747 -0.2169  0.3779  0.9640
 8975SOL    HW233784   0.474   5.251  11.736 -0.4217 -0.4038 -0.0038
 8976SOL     OW33785   8.630  10.003   6.679 -0.4776  0.0205  0.0964
 8976SOL    HW133786   8.602   9.956   6.758  2.3362 -1.5090  0.3433
 8976SOL    HW233787   8.637  10.094   6.706 -1.9983 -0.0611  0.8551
 8977SOL     OW33788   0.464   1.772   7.350  0.0364 -0.5632 -0.0831
 8977SOL    HW133789   0.434   1.681   7.348 -1.6657 -0.0508  0.0123
 8977SOL    HW233790   0.518   1.781   7.272  0.2248 -1.6539 -0.0941
 8978SOL     OW33791   3.060   2.428   0.792 -0.2800  0.2904  0.2778
 8978SOL    HW133792   3.135   2.379   0.758  0.0991 -0.1310  1.6559
 8978SOL    HW233793   3.030   2.376   0.866 -0.5919  1.5697  1.0658
 8979SOL     OW33794   9.336   3.843   2.652 -0.3261  0.1281  0.0250
 8979SOL    HW133795   9.260   3.844   2.711  1.5386 -0.3409  2.6463
 8979SOL    HW233796   9.372   3.931   2.659 -0.0350  0.0368 -0.3262
 8980SOL     OW33797   5.014   4.202   1.654 -0.1682  0.6951 -0.0594
 8980SOL    HW133798   4.991   4.284   1.611 -1.0789  0.7494  0.4859
 8980SOL    HW233799   4.930   4.167   1.685  0.2599 -0.2063  0.1302
 8981SOL     OW33800   5.032   9.831   5.491  0.2711 -0.2004  0.3118
 8981SOL    HW133801   4.956   9.885   5.472  1.1256  1.9184  2.4938
 8981SOL    HW233802   5.107   9.890   5.483  1.3481 -1.2644  1.8730
 8982SOL     OW33803  11.158   9.632   3.779  0.8134 -0.6240  1.0152
 8982SOL    HW133804  11.078   9.640   3.728  0.1172  0.6737  2.2325
 8982SOL    HW233805  11.203   9.557   3.742 -0.4349 -0.7120 -0.4158
 8983SOL     OW33806  11.825   8.745   6.967  0.3775 -0.0346 -0.0414
 8983SOL    HW133807  11.915   8.753   6.998 -0.7876  0.8447  3.5808
 8983SOL    HW233808  11.808   8.828   6.922  1.0202  0.3342  0.3810
 8984SOL     OW33809   5.129   4.479   9.106  0.8026  0.1797 -0.3913
 8984SOL    HW133810   5.192   4.459   9.175  0.6937 -2.5798 -0.9632
 8984SOL    HW233811   5.158   4.426   9.032 -2.5072 -1.7988 -0.4470
 8985SOL     OW33812   3.566   9.075   9.193  0.2066  0.3254 -0.0396
 8985SOL    HW133813   3.578   9.081   9.098  0.8258  0.3090  0.0293
 8985SOL    HW233814   3.653   9.094   9.229  0.1809 -0.5108  0.4943
 8986SOL     OW33815   1.966  10.031   9.442  0.0642  0.2755 -0.2132
 8986SOL    HW133816   1.954  10.126   9.445 -0.8160  0.1819 -0.5129
 8986SOL    HW233817   1.917  10.003   9.365  0.7740 -0.3681 -0.4469
 8987SOL     OW33818   3.631   0.437   6.995  0.0150  0.1915 -0.0897
 8987SOL    HW133819   3.557   0.449   6.936 -0.0633 -0.0029 -0.0290
 8987SOL    HW233820   3.690   0.509   6.973  0.3961 -0.3903 -1.0324
 8988SOL     OW33821   2.775   6.306  10.698  0.8832  0.0902  0.2662
 8988SOL    HW133822   2.684   6.285  10.677  0.5717  0.7218  0.9247
 8988SOL    HW233823   2.827   6.247  10.644  0.0770 -0.4210  0.0377
 8989SOL     OW33824   4.885  11.930   8.871 -0.3035 -0.4097  0.0755
 8989SOL    HW133825   4.814  11.994   8.876 -0.7057 -0.8369 -0.1469
 8989SOL    HW233826   4.912  11.930   8.779  1.1043  0.9434  0.4335
 8990SOL     OW33827  12.388   0.580   9.836 -0.2687  0.3333 -0.2437
 8990SOL    HW133828  12.300   0.542   9.843  0.2266 -0.6834  0.8841
 8990SOL    HW233829  12.423   0.544   9.754  0.4947 -2.4889  1.1770
 8991SOL     OW33830   6.262  10.721  10.216 -0.5547 -0.6935  0.2632
 8991SOL    HW133831   6.266  10.816  10.227  2.7782 -0.6614 -0.3506
 8991SOL    HW233832   6.301  10.686  10.296 -0.1649 -1.4796 -0.2683
 8992SOL     OW33833   9.282   2.276   8.224  0.2145 -0.1270  0.4031
 8992SOL    HW133834   9.284   2.309   8.314  0.1984 -1.2183  0.8282
 8992SOL    HW233835   9.245   2.188   8.232 -2.6249  0.8179 -1.0356
 8993SOL     OW33836  11.279   6.141   9.932  0.2606 -0.0147  0.2037
 8993SOL    HW133837  11.290   6.057   9.888  1.1433  0.2133 -0.0326
 8993SOL    HW233838  11.318   6.205   9.873  0.5139  0.4269  0.8331
 8994SOL     OW33839   4.421   4.316   1.799 -0.2891  0.6178  0.4756
 8994SOL    HW133840   4.426   4.405   1.834 -2.5900  0.9487  0.1334
 8994SOL    HW233841   4.396   4.328   1.708  0.6597 -0.3821  0.0636
 8995SOL     OW33842   7.899   1.443   6.709  1.0550 -0.2217  0.0583
 8995SOL    HW133843   7.887   1.499   6.632 -1.5256  2.8894  2.4583
 8995SOL    HW233844   7.987   1.463   6.740  0.0298  3.2228  1.1630
 8996SOL     OW33845   4.379   7.353   0.873  0.1493  0.1197 -0.0293
 8996SOL    HW133846   4.431   7.433   0.877 -0.3363  0.6212 -2.2933
 8996SOL    HW233847   4.310   7.373   0.810 -1.6693 -1.1699  1.4423
 8997SOL     OW33848   5.702   9.099  10.764  0.4876 -0.2514 -0.4888
 8997SOL    HW133849   5.760   9.175  10.755  0.5765 -0.2943 -0.2903
 8997SOL    HW233850   5.751   9.027  10.724  0.4573 -0.2311 -0.5633
 8998SOL     OW33851   6.471   3.769   7.692  0.6987 -0.7955  0.0282
 8998SOL    HW133852   6.447   3.839   7.752  0.6201 -0.8619  0.0748
 8998SOL    HW233853   6.486   3.693   7.748  2.5041 -0.3904  0.1489
 8999SOL     OW33854  10.701   7.548   8.451  0.2926 -0.6075  0.8330
 8999SOL    HW133855  10.659   7.464   8.471  1.5548 -1.1607  1.2580
 8999SOL    HW233856  10.643   7.613   8.492 -1.3083 -1.1465 -0.4588
 9000SOL     OW33857   1.663   9.190   0.483  0.0029 -0.0045  0.4353
 9000SOL    HW133858   1.671   9.112   0.538  0.7165  0.2476  0.6986
 9000SOL    HW233859   1.737   9.245   0.508  0.3914  0.0793 -0.8466
 9001SOL     OW33860   4.201   8.910   4.432 -0.1482 -0.1265  0.1196
 9001SOL    HW133861   4.276   8.854   4.451  1.4916  2.0286  0.4853
 9001SOL    HW233862   4.196   8.912   4.336 -1.1130 -1.9307  0.1031
 9002SOL     OW33863   5.896   5.668   0.770 -0.1293  0.0111 -0.0776
 9002SOL    HW133864   5.978   5.716   0.782  0.3097 -0.8902  0.5717
 9002SOL    HW233865   5.901   5.596   0.832 -0.6881 -1.0059 -1.1843
 9003SOL     OW33866   7.077   1.519  11.606  0.3075  0.8250 -0.2250
 9003SOL    HW133867   7.066   1.561  11.521  1.0751 -0.0490 -0.7777
 9003SOL    HW233868   7.113   1.432  11.586  0.1872  0.4701  0.9692
 9004SOL     OW33869  12.391   2.209   4.964 -0.3424  0.3425 -0.0972
 9004SOL    HW133870  12.335   2.286   4.954 -0.6697  0.0098 -0.9917
 9004SOL    HW233871  12.339   2.137   4.929 -0.2967 -0.4170  1.3228
 9005SOL     OW33872   4.107   5.616   6.122 -0.4814  0.3035 -0.9400
 9005SOL    HW133873   4.072   5.527   6.116  0.0383  0.0660 -0.4523
 9005SOL    HW233874   4.149   5.621   6.208 -0.7244  1.1037 -0.8507
 9006SOL     OW33875   0.608   4.950   8.430  0.4104 -0.0497 -0.1799
 9006SOL    HW133876   0.563   4.959   8.347  0.7046  0.1721 -0.3159
 9006SOL    HW233877   0.701   4.947   8.407  0.4865 -0.1093  0.1281
 9007SOL     OW33878   8.880  12.109   9.592 -0.4846 -0.2290  0.2544
 9007SOL    HW133879   8.797  12.150   9.569  0.0586  0.4681 -0.5076
 9007SOL    HW233880   8.872  12.018   9.562 -1.3814 -0.4740  1.1978
 9008SOL     OW33881   5.814   1.950   5.238  0.4022  0.1275  0.2632
 9008SOL    HW133882   5.874   1.953   5.163  0.5896  0.7981  0.4329
 9008SOL    HW233883   5.837   1.869   5.283  0.9781  0.2251  0.1534
 9009SOL     OW33884   9.243   2.485   7.682 -0.2237  0.2206  0.1305
 9009SOL    HW133885   9.321   2.482   7.627  0.1734 -0.1798  0.7011
 9009SOL    HW233886   9.170   2.470   7.622 -0.0675  2.6415 -0.7771
 9010SOL     OW33887   3.241   5.729   5.474 -0.2891  0.4322  0.0318
 9010SOL    HW133888   3.215   5.655   5.418  1.4031 -0.0964 -0.1422
 9010SOL    HW233889   3.188   5.720   5.552 -1.7271  0.3665 -0.9180
 9011SOL     OW33890   1.936   5.272   2.843 -0.4244  0.0826 -0.1734
 9011SOL    HW133891   1.920   5.262   2.749 -0.2195 -0.2092 -0.1792
 9011SOL    HW233892   1.967   5.362   2.852  2.7076 -0.8046 -0.8474
 9012SOL     OW33893   3.851   2.816   9.815  0.1103 -0.1729  0.0978
 9012SOL    HW133894   3.812   2.880   9.874  0.9642  1.0543 -0.6074
 9012SOL    HW233895   3.785   2.748   9.805  0.7791 -1.7781  4.3929
 9013SOL     OW33896   9.222   2.788   9.024 -0.3778  0.1209  0.0018
 9013SOL    HW133897   9.316   2.772   9.034 -0.4157 -0.0965  0.0135
 9013SOL    HW233898   9.207   2.870   9.071 -0.4119 -0.4769  1.0685
 9014SOL     OW33899   2.295   4.559   3.833  0.3473 -0.1614 -0.5209
 9014SOL    HW133900   2.227   4.621   3.858  0.3911 -0.0747 -0.6142
 9014SOL    HW233901   2.269   4.528   3.746  0.0040 -0.7358 -0.2220
 9015SOL     OW33902  11.334   6.303   1.059  0.1925  0.4255  0.9302
 9015SOL    HW133903  11.310   6.261   1.142  0.3871  0.5029  1.0264
 9015SOL    HW233904  11.277   6.380   1.054  2.4215  2.3563  2.6468
 9016SOL     OW33905   5.337   4.853   3.498 -0.0139  0.3392 -0.2933
 9016SOL    HW133906   5.300   4.938   3.475 -1.0373  0.1047  0.4218
 9016SOL    HW233907   5.409   4.873   3.558 -1.1874  0.6572  1.0576
 9017SOL     OW33908   4.017   7.958   7.713  0.2245 -0.2723  0.7347
 9017SOL    HW133909   4.086   7.952   7.779 -0.0515  0.9738  1.1649
 9017SOL    HW233910   4.007   7.869   7.680  1.6140 -0.5774  1.0953
 9018SOL     OW33911   9.020   2.612  10.120 -0.1629 -0.5308  0.4181
 9018SOL    HW133912   8.957   2.681  10.099  0.1083 -0.3959  0.0397
 9018SOL    HW233913   9.061   2.590  10.037  1.4581  0.5174  0.8949
 9019SOL     OW33914   0.107   0.501   2.607  0.0508  0.4872 -0.0045
 9019SOL    HW133915   0.130   0.489   2.699  1.8702  1.1727 -0.3502
 9019SOL    HW233916   0.100   0.412   2.573  1.5344  0.2245  0.3043
 9020SOL     OW33917  10.702   5.317   9.797 -0.0083  0.5372 -0.1096
 9020SOL    HW133918  10.769   5.333   9.731  1.9187 -2.3200  0.9440
 9020SOL    HW233919  10.735   5.361   9.876  0.6571 -0.8501  0.4053
 9021SOL     OW33920  10.531   9.788   2.880  0.6704 -0.3906  0.1739
 9021SOL    HW133921  10.459   9.818   2.935 -0.6392 -0.5455 -1.3743
 9021SOL    HW233922  10.600   9.853   2.893  0.2114 -0.1558  1.5667
 9022SOL     OW33923  12.348  10.809   8.188  1.3313  0.0900 -0.1531
 9022SOL    HW133924  12.408  10.743   8.154  0.7677 -0.8082  0.5608
 9022SOL    HW233925  12.318  10.774   8.272  0.0045  0.6254 -0.3778
 9023SOL     OW33926   7.820   3.196   4.479 -0.2009 -0.0779 -0.2417
 9023SOL    HW133927   7.882   3.239   4.539 -0.6084  0.1405  0.0234
 9023SOL    HW233928   7.839   3.234   4.393 -0.7574  0.8526  0.0399
 9024SOL     OW33929   8.348   3.522   3.990  0.2613  0.8578 -0.1671
 9024SOL    HW133930   8.413   3.592   3.998  0.7617  0.3085  0.6441
 9024SOL    HW233931   8.391   3.456   3.935  0.7600  0.0838  1.1235
 9025SOL     OW33932   9.611   0.493   9.083  0.6694  0.3118  0.5832
 9025SOL    HW133933   9.594   0.563   9.147  0.0344  0.1359  0.6160
 9025SOL    HW233934   9.644   0.421   9.135 -0.8077 -0.1900  0.8860
 9026SOL     OW33935   8.141  11.267  10.741 -0.0162  0.2429  0.0162
 9026SOL    HW133936   8.213  11.251  10.680 -1.5410  0.0294 -1.8389
 9026SOL    HW233937   8.127  11.183  10.784 -0.3057 -0.2194 -0.9499
 9027SOL     OW33938   7.106   2.815   0.966 -0.3329  0.1067  0.2545
 9027SOL    HW133939   7.119   2.720   0.967 -0.7525  0.0293  1.8838
 9027SOL    HW233940   7.041   2.831   1.035 -0.9354  1.4933 -0.5813
 9028SOL     OW33941   3.955   2.244   7.413 -0.2608  0.4697 -0.0834
 9028SOL    HW133942   3.901   2.267   7.489  0.5965  0.4295  0.5554
 9028SOL    HW233943   3.963   2.149   7.416  1.2025  0.5821  0.8142
 9029SOL     OW33944  11.143  11.053   0.387 -0.0608 -0.0572 -0.1837
 9029SOL    HW133945  11.130  10.970   0.341  0.7290 -1.2479  1.6166
 9029SOL    HW233946  11.151  11.028   0.479 -1.0587  2.1633  0.5729
 9030SOL     OW33947   2.761   4.754  12.406 -0.3240  0.3528  0.2381
 9030SOL    HW133948   2.804   4.711  12.481 -0.7029  1.2250  0.9760
 9030SOL    HW233949   2.829   4.758  12.339 -0.6285 -2.5848 -0.3802
 9031SOL     OW33950  11.875   9.244   8.458 -0.1411 -0.0116 -0.5180
 9031SOL    HW133951  11.912   9.171   8.509  2.0510  0.3324 -1.4784
 9031SOL    HW233952  11.834   9.301   8.523  0.8234 -0.5765  0.6249
 9032SOL     OW33953   3.528   1.353   4.610 -0.3615  0.5702  0.0598
 9032SOL    HW133954   3.614   1.388   4.585  0.0930 -0.0159  0.7720
 9032SOL    HW233955   3.544   1.306   4.692 -1.6447  1.7046  0.9992
 9033SOL     OW33956   5.144   0.918  11.061 -0.3872  0.6843  0.6871
 9033SOL    HW133957   5.182   0.910  10.973 -0.5101  0.3539  0.6626
 9033SOL    HW233958   5.214   0.957  11.113  0.1557 -0.2971  0.7377
 9034SOL     OW33959   6.513   3.594   4.841  0.1553  0.3297 -0.6905
 9034SOL    HW133960   6.487   3.512   4.800  0.0174  0.0958 -0.1385
 9034SOL    HW233961   6.595   3.573   4.886 -0.4398  0.2050  0.3664
 9035SOL     OW33962   7.458  10.771   2.562 -0.5750 -0.0138  0.2188
 9035SOL    HW133963   7.484  10.734   2.647 -2.0294 -0.3576  0.5469
 9035SOL    HW233964   7.516  10.729   2.499  1.4305  1.2263  1.1471
 9036SOL     OW33965   5.580  12.077   5.144  0.1617  0.5741  0.4451
 9036SOL    HW133966   5.497  12.100   5.103  0.5245 -1.2156 -1.4465
 9036SOL    HW233967   5.579  11.982   5.150  1.5216  0.6006  1.6225
 9037SOL     OW33968   9.991   5.314   9.371  0.2000 -0.1647 -0.1812
 9037SOL    HW133969  10.043   5.313   9.452  0.4160 -0.0508 -0.3173
 9037SOL    HW233970  10.049   5.276   9.305 -0.6715 -2.1754  0.1309
 9038SOL     OW33971   3.338   8.944   2.373  0.3070 -0.3218 -0.0463
 9038SOL    HW133972   3.317   8.963   2.281  0.9850  1.7190  0.1590
 9038SOL    HW233973   3.268   8.988   2.422  1.3592  0.8873  0.4454
 9039SOL     OW33974   6.065  10.208   7.509  0.2277 -0.6820 -0.2028
 9039SOL    HW133975   5.981  10.234   7.470  0.6299  0.8570 -0.1019
 9039SOL    HW233976   6.062  10.243   7.598  1.5239  0.6257 -0.6447
 9040SOL     OW33977   2.478   4.658   4.304  0.3776  0.2805 -0.1113
 9040SOL    HW133978   2.536   4.702   4.367  3.9153 -4.6071  0.6611
 9040SOL    HW233979   2.522   4.668   4.220 -0.2987  0.5173 -0.4426
 9041SOL     OW33980   7.616   8.659  11.073 -0.0526  0.2281 -0.5109
 9041SOL    HW133981   7.707   8.664  11.101  0.6093 -2.9109 -1.7185
 9041SOL    HW233982   7.575   8.599  11.136 -0.1357 -1.7543 -2.3350
 9042SOL     OW33983   6.552   5.285   7.428 -0.5575  0.4470  0.2307
 9042SOL    HW133984   6.600   5.354   7.383 -1.1413  1.2463  0.7974
 9042SOL    HW233985   6.519   5.229   7.357 -0.8292  1.2572 -0.2964
 9043SOL     OW33986  10.699   8.448  10.645  0.1216 -0.6264  0.2172
 9043SOL    HW133987  10.751   8.375  10.610 -1.4776 -1.2076 -1.0783
 9043SOL    HW233988  10.663   8.414  10.727 -0.3935 -1.2389 -0.2476
 9044SOL     OW33989  12.100   6.009   9.542  0.0116 -0.1499 -0.4051
 9044SOL    HW133990  12.075   6.063   9.617 -1.1732  1.2924 -1.7727
 9044SOL    HW233991  12.185   6.044   9.514 -0.4120  0.5269 -0.8465
 9045SOL     OW33992   3.104   3.626   5.982 -0.2115  0.1121  0.1589
 9045SOL    HW133993   3.141   3.540   5.962 -1.3944 -0.6450  1.0813
 9045SOL    HW233994   3.179   3.685   5.980  1.2468 -1.4587  2.6363
 9046SOL     OW33995   6.358  12.382  10.983 -0.3021  0.0313  0.2063
 9046SOL    HW133996   6.326  12.339  11.062 -0.2618  1.3461  0.9685
 9046SOL    HW233997   6.328  12.326  10.911 -0.9374 -0.8210  1.1077
 9047SOL     OW33998   4.432   8.101   1.971 -0.1506  0.5608  0.2862
 9047SOL    HW133999   4.379   8.028   2.001  1.1855 -0.2956  0.6594
 9047SOL    HW234000   4.374   8.151   1.914 -1.0031 -0.9581 -0.2322
 9048SOL     OW34001   6.203   8.124  10.228 -0.2360  0.5085  0.5498
 9048SOL    HW134002   6.255   8.075  10.164 -1.7685 -0.2418 -0.1693
 9048SOL    HW234003   6.159   8.057  10.279 -1.2222  1.1106  0.5194
 9049SOL     OW34004  12.020   5.100  12.066 -0.2578 -0.1706  0.3974
 9049SOL    HW134005  11.970   5.043  12.008  0.7075 -1.0650  0.4287
 9049SOL    HW234006  12.033   5.180  12.016 -1.9169  0.1806  0.4788
 9050SOL     OW34007   6.778   4.311   3.445  0.1702 -0.3714 -0.6190
 9050SOL    HW134008   6.734   4.381   3.492  1.0071 -0.9195  1.0732
 9050SOL    HW234009   6.837   4.355   3.384  0.5489  0.3883  0.2892
 9051SOL     OW34010   3.916   9.872   7.398  0.0894  0.0343  0.2175
 9051SOL    HW134011   3.935   9.941   7.462 -0.5977  1.4317 -1.0351
 9051SOL    HW234012   3.823   9.884   7.376  0.2712 -0.5084 -0.9249
 9052SOL     OW34013   2.894   3.338   0.855 -0.4887  0.0814 -0.3742
 9052SOL    HW134014   2.956   3.357   0.785 -0.7426  1.4518 -0.2666
 9052SOL    HW234015   2.940   3.363   0.935  0.7569 -3.7777  0.3098
 9053SOL     OW34016   8.792   3.250  12.342 -1.1117 -0.6599  0.0345
 9053SOL    HW134017   8.770   3.259  12.249 -0.3561 -1.1214 -0.1938
 9053SOL    HW234018   8.874   3.299  12.352 -2.2517  1.2252  0.9169
 9054SOL     OW34019  10.098   2.953   7.274  0.0036  0.8196 -0.4056
 9054SOL    HW134020  10.142   2.870   7.259  1.2945  1.2491  0.7820
 9054SOL    HW234021  10.115   3.005   7.195 -0.2364  0.2110 -0.8632
 9055SOL     OW34022  12.036   2.688   3.912 -0.2170  0.0077  0.0901
 9055SOL    HW134023  11.979   2.690   3.989 -0.0148  0.6852  0.2294
 9055SOL    HW234024  12.123   2.672   3.948 -0.0414  0.8490  0.0638
 9056SOL     OW34025  11.189   7.643   9.635 -0.3097 -0.0329  0.8037
 9056SOL    HW134026  11.155   7.718   9.586  1.0654  1.2382  1.7146
 9056SOL    HW234027  11.152   7.567   9.590 -1.3959  1.1602 -0.4220
 9057SOL     OW34028   8.935   7.630   8.263  0.1898 -0.0835  0.2547
 9057SOL    HW134029   8.966   7.709   8.219  0.2580 -0.4011 -0.2709
 9057SOL    HW234030   8.964   7.640   8.354  2.6140 -0.7581 -0.3658
 9058SOL     OW34031   4.459   8.769   5.776  0.5737  0.4579 -0.0588
 9058SOL    HW134032   4.416   8.852   5.796  0.6693  0.4953 -0.0087
 9058SOL    HW234033   4.470   8.771   5.680  1.7369  1.0791  0.0639
 9059SOL     OW34034   0.793   7.119   6.708  0.5523  0.9335  0.3425
 9059SOL    HW134035   0.703   7.099   6.733  0.7155 -0.3024  0.0344
 9059SOL    HW234036   0.786   7.192   6.647 -0.3841  0.0143 -0.7032
 9060SOL     OW34037   4.630   8.170  12.363  0.4011 -0.5595  0.3333
 9060SOL    HW134038   4.628   8.222  12.282 -0.0209 -1.6837 -0.4040
 9060SOL    HW234039   4.642   8.080  12.333  1.0095 -0.9068  1.5814
 9061SOL     OW34040   3.014   9.802   1.408 -0.5028 -0.8155 -0.1432
 9061SOL    HW134041   3.003   9.730   1.345 -1.6813 -0.8402  0.0802
 9061SOL    HW234042   3.096   9.782   1.453 -0.0480 -1.2145 -1.1242
 9062SOL     OW34043   7.268  12.375   1.615  0.5840  0.1129  0.2857
 9062SOL    HW134044   7.310  12.456   1.587 -0.1538  0.6864  0.7955
 9062SOL    HW234045   7.177  12.400   1.632  0.1473 -1.0076 -0.3525
 9063SOL     OW34046   1.532   6.726   4.949  0.3692  0.0013  0.9731
 9063SOL    HW134047   1.464   6.768   5.002  1.9036  2.0077  1.4534
 9063SOL    HW234048   1.500   6.735   4.859  1.3283  3.8862  0.8403
 9064SOL     OW34049   2.514   9.596  12.189 -0.5539 -0.1310 -0.6604
 9064SOL    HW134050   2.513   9.579  12.095 -1.5492 -0.1394 -0.6651
 9064SOL    HW234051   2.468   9.522  12.228 -1.0738  0.3734 -0.2761
 9065SOL     OW34052   9.049   9.581  11.428  0.3326 -0.1629 -0.0690
 9065SOL    HW134053   9.016   9.537  11.350  2.1632 -1.6463 -0.0815
 9065SOL    HW234054   9.041   9.515  11.497  1.9401 -0.0941  0.2111
 9066SOL     OW34055   4.841   6.496   8.090 -0.2101  0.1377 -0.1933
 9066SOL    HW134056   4.929   6.466   8.112  0.2347  1.4260 -0.1346
 9066SOL    HW234057   4.783   6.436   8.137  0.6739  0.4814  1.4278
 9067SOL     OW34058   3.809  10.015  12.301 -0.4353  0.0509 -0.0402
 9067SOL    HW134059   3.827   9.998  12.209  0.3715 -0.5234  0.2047
 9067SOL    HW234060   3.856  10.096  12.321 -0.5333  0.1248 -0.1126
 9068SOL     OW34061   9.848   8.790   5.385  0.0476 -0.6244  0.2157
 9068SOL    HW134062   9.817   8.769   5.473 -2.2789 -0.3663 -0.4901
 9068SOL    HW234063   9.806   8.873   5.364  0.6380 -0.6390 -1.1304
 9069SOL     OW34064   2.469   9.811   0.978 -0.1654 -0.1485 -0.1495
 9069SOL    HW134065   2.391   9.760   0.995 -0.6121  1.2069  2.4728
 9069SOL    HW234066   2.436   9.898   0.952  0.5340 -0.2833 -1.5902
 9070SOL     OW34067   2.700   4.610   9.032  0.6627  0.2168  0.3927
 9070SOL    HW134068   2.714   4.693   8.986 -2.0138  0.7581  0.3882
 9070SOL    HW234069   2.740   4.544   8.976  1.9053  1.3877 -0.1430
 9071SOL     OW34070   0.243   2.031   5.310  0.2304  0.3613 -0.1627
 9071SOL    HW134071   0.301   2.068   5.377  0.8901 -0.0793 -0.4875
 9071SOL    HW234072   0.249   1.936   5.322  0.1249  0.2890 -0.6642
 9072SOL     OW34073   9.159   3.133   4.965  0.3633  0.3482  0.2990
 9072SOL    HW134074   9.071   3.152   4.996 -0.0657  0.1478 -0.7674
 9072SOL    HW234075   9.148   3.103   4.875  1.4345 -0.5539  0.4358
 9073SOL     OW34076   1.995  12.533  10.317  0.7168 -0.4980  0.0305
 9073SOL    HW134077   2.017  12.468  10.250  2.1508 -0.7582  0.7040
 9073SOL    HW234078   2.027  12.616  10.281  0.1253 -0.3811 -0.2391
 9074SOL     OW34079   5.811   0.458  12.330  0.0311  0.2177 -0.1628
 9074SOL    HW134080   5.831   0.365  12.342  0.2157  0.4095  1.2566
 9074SOL    HW234081   5.889   0.495  12.290  0.2642 -0.1098 -0.0174
 9075SOL     OW34082   5.057   6.354   8.846 -0.6311 -0.1275  0.2002
 9075SOL    HW134083   5.095   6.285   8.901  0.1257 -0.7300 -1.0534
 9075SOL    HW234084   4.963   6.339   8.852 -0.5781 -0.1319  1.3836
 9076SOL     OW34085   5.437   4.708   1.238 -0.6688  0.4811 -0.5073
 9076SOL    HW134086   5.362   4.713   1.298 -0.7855  1.9711 -0.7481
 9076SOL    HW234087   5.431   4.787   1.185  0.2271 -0.1302 -1.5659
 9077SOL     OW34088  10.073   1.725  11.438  0.1597  0.2384 -0.5303
 9077SOL    HW134089  10.065   1.759  11.527  0.1619  0.7007 -0.7068
 9077SOL    HW234090  10.091   1.802  11.384 -1.4350  0.2114 -1.1714
 9078SOL     OW34091   3.112  12.300   2.041 -1.0784  0.0699 -0.1369
 9078SOL    HW134092   3.208  12.296   2.037 -1.1262 -0.0534 -2.2441
 9078SOL    HW234093   3.091  12.384   2.002 -1.7765  1.8389  3.6121
 9079SOL     OW34094   3.939   7.792   3.577 -0.0016  0.4528 -0.3734
 9079SOL    HW134095   3.985   7.874   3.595  1.0912 -0.1084 -0.5105
 9079SOL    HW234096   3.956   7.775   3.485 -1.1155  0.6059 -0.6096
 9080SOL     OW34097   5.380  11.569  12.571 -0.0559  0.4534 -0.0381
 9080SOL    HW134098   5.309  11.523  12.526 -1.0583  1.1447  0.7779
 9080SOL    HW234099   5.375  11.659  12.539  0.2903  0.5668  0.2114
 9081SOL     OW34100   7.858   7.244  10.272 -0.1934  0.1187  0.9011
 9081SOL    HW134101   7.902   7.324  10.302 -1.1366 -0.0187  2.7527
 9081SOL    HW234102   7.835   7.197  10.352  0.6428 -2.2233 -0.1438
 9082SOL     OW34103  10.961   9.510   7.462 -0.0005  0.0109 -0.1877
 9082SOL    HW134104  10.923   9.556   7.537  0.6580 -0.2745  0.3310
 9082SOL    HW234105  10.914   9.545   7.386  0.8780  1.9967  0.1097
 9083SOL     OW34106   0.416  11.926   0.243 -0.1378  0.0984 -0.1218
 9083SOL    HW134107   0.337  11.895   0.285 -0.1470  0.8855  0.4550
 9083SOL    HW234108   0.386  11.994   0.181  0.1371  0.9027  0.6053
 9084SOL     OW34109   6.409   3.881   7.182  0.0453 -0.3249  0.0680
 9084SOL    HW134110   6.451   3.798   7.162  0.7199  0.0112  0.0579
 9084SOL    HW234111   6.391   3.876   7.276 -1.4335 -1.1447 -0.2287
 9085SOL     OW34112   0.385   6.670  12.001  0.3844 -0.3207  0.6161
 9085SOL    HW134113   0.321   6.656  12.071 -0.3904  1.6229  0.3703
 9085SOL    HW234114   0.397   6.765  11.999  0.6980 -0.3516 -1.6167
 9086SOL     OW34115  11.197   4.806  10.039  0.0371 -0.7074  0.3413
 9086SOL    HW134116  11.186   4.852  10.123 -0.3017 -0.0940 -0.0289
 9086SOL    HW234117  11.155   4.721  10.053 -1.0766 -0.1630  0.4355
 9087SOL     OW34118   8.658   4.143  10.881 -0.0587  0.2859 -0.7707
 9087SOL    HW134119   8.622   4.099  10.805 -0.3931 -1.0196  0.1160
 9087SOL    HW234120   8.686   4.073  10.939 -1.3318  1.1916  1.0435
 9088SOL     OW34121   2.402  11.203   9.728  0.0614 -0.4118  0.0363
 9088SOL    HW134122   2.497  11.208   9.721 -0.0299  1.2808 -0.5123
 9088SOL    HW234123   2.381  11.256   9.804 -0.4070 -1.5867  0.7544
 9089SOL     OW34124   3.920   8.854   1.158 -0.4696  0.0672  0.3308
 9089SOL    HW134125   3.846   8.828   1.104  1.3414 -2.5051 -1.1584
 9089SOL    HW234126   3.947   8.939   1.123 -0.2857 -0.8380 -1.8573
 9090SOL     OW34127   4.276   4.864  12.313 -0.5977 -0.0260  0.2693
 9090SOL    HW134128   4.330   4.854  12.234 -1.4238 -0.0844 -0.3032
 9090SOL    HW234129   4.277   4.777  12.353  0.7776  0.2800  0.9789
 9091SOL     OW34130   5.194   1.220   1.882  0.0049  0.0052 -0.2934
 9091SOL    HW134131   5.247   1.232   1.960  0.8843  2.0757 -1.1443
 9091SOL    HW234132   5.142   1.300   1.875 -1.1989 -0.7953 -1.0094
 9092SOL     OW34133   8.762   9.309   1.389 -0.0144  0.0830  0.3716
 9092SOL    HW134134   8.832   9.298   1.325 -0.6408 -1.1794 -0.1268
 9092SOL    HW234135   8.682   9.305   1.338 -0.5152 -0.4940  1.1705
 9093SOL     OW34136   4.170   1.458  11.463  0.3758 -0.5707  0.6589
 9093SOL    HW134137   4.228   1.498  11.398  1.2081 -2.1613  0.3660
 9093SOL    HW234138   4.229   1.410  11.521 -0.5377 -0.9479  1.3003
 9094SOL     OW34139   5.483  12.338   3.775 -0.3040  0.1082 -0.3650
 9094SOL    HW134140   5.473  12.366   3.866 -2.3016  0.4562 -0.6491
 9094SOL    HW234141   5.553  12.272   3.778  0.0056  0.4623  1.3371
 9095SOL     OW34142   6.054   5.379   5.970 -0.1580 -0.2415 -0.0993
 9095SOL    HW134143   6.033   5.382   5.876 -1.3399 -1.7850  0.0756
 9095SOL    HW234144   5.968   5.381   6.013  0.3327 -0.5148  0.9134
 9096SOL     OW34145   1.648   0.637   9.837  0.1240  0.2501 -0.0936
 9096SOL    HW134146   1.621   0.599   9.754 -0.3239  0.8803 -0.2471
 9096SOL    HW234147   1.737   0.605   9.850 -0.0010 -0.2990 -0.5389
 9097SOL     OW34148   7.462  10.522   7.416  0.4220  0.0714  0.9180
 9097SOL    HW134149   7.468  10.518   7.321 -0.5035 -1.0476  0.8863
 9097SOL    HW234150   7.538  10.475   7.448  0.2590 -0.3225  0.7228
 9098SOL     OW34151   4.932   0.254  10.866  0.0546  0.0377 -0.5187
 9098SOL    HW134152   4.953   0.221  10.779  0.9718  0.3315 -0.4156
 9098SOL    HW234153   5.001   0.318  10.885 -0.4602  0.3980  0.1862
 9099SOL     OW34154   9.366   6.996   7.359 -0.2339 -0.7893 -0.6123
 9099SOL    HW134155   9.344   6.907   7.386 -1.8170 -1.1477 -2.7935
 9099SOL    HW234156   9.283   7.044   7.362  0.3663  0.2988 -0.6291
 9100SOL     OW34157  11.292   8.463   4.099  0.0632  0.0580  0.7019
 9100SOL    HW134158  11.323   8.380   4.134 -0.8345 -1.0018 -0.9219
 9100SOL    HW234159  11.358   8.527   4.128  1.9248 -1.5398  0.2393
 9101SOL     OW34160   0.432   7.559   4.506  0.6969  0.4175 -0.2436
 9101SOL    HW134161   0.338   7.541   4.508  1.0451 -1.6099  2.0868
 9101SOL    HW234162   0.456   7.553   4.414 -1.6370  2.4777 -1.1051
 9102SOL     OW34163   2.520   7.368   6.468 -0.2906 -0.2755 -0.3104
 9102SOL    HW134164   2.477   7.306   6.526  0.4838  0.1043  0.6892
 9102SOL    HW234165   2.482   7.453   6.491 -0.6535 -0.2416 -1.0099
 9103SOL     OW34166   1.002   9.075   8.423 -0.9765  0.2623 -0.1219
 9103SOL    HW134167   0.989   8.984   8.451 -1.2499 -0.1156 -1.4001
 9103SOL    HW234168   1.096   9.085   8.413 -0.8548  0.4571  1.0246
 9104SOL     OW34169   4.901  10.879   2.108  0.3518  0.0792  0.0502
 9104SOL    HW134170   4.911  10.788   2.082 -0.6705 -0.0655  0.1027
 9104SOL    HW234171   4.841  10.916   2.043 -2.5529 -0.3762  2.2282
 9105SOL     OW34172   7.717   6.725  11.279 -0.3956  0.1788 -0.0130
 9105SOL    HW134173   7.724   6.632  11.259  0.5393  0.0185  0.9964
 9105SOL    HW234174   7.650   6.757  11.218  0.3576 -0.8321 -1.4524
 9106SOL     OW34175   8.532   9.145   1.069 -0.0714 -0.2308 -0.4617
 9106SOL    HW134176   8.543   9.086   1.143 -1.4858 -2.0960 -1.6529
 9106SOL    HW234177   8.568   9.097   0.994  0.2498  1.1254 -1.2129
 9107SOL     OW34178   6.481   8.871   6.721  0.1589  0.8786 -0.2294
 9107SOL    HW134179   6.537   8.918   6.782 -0.6962  0.0504  1.2586
 9107SOL    HW234180   6.516   8.782   6.719 -1.1904  0.2650  0.9525
 9108SOL     OW34181   1.953   6.253   0.890  0.3503  0.4680  0.4718
 9108SOL    HW134182   1.983   6.227   0.803 -0.4117  1.0070  0.0310
 9108SOL    HW234183   1.895   6.182   0.918  1.0879 -0.0037  0.8117
 9109SOL     OW34184   4.989   5.349   9.739  0.5452  0.4303 -0.1599
 9109SOL    HW134185   4.941   5.272   9.708  0.5123  0.1371  0.6205
 9109SOL    HW234186   5.081   5.328   9.723  0.4265  1.5497 -2.9692
 9110SOL     OW34187   5.119  11.989   4.771 -0.0191 -0.4288 -0.1178
 9110SOL    HW134188   5.079  12.067   4.733  0.3468 -0.4741 -0.5983
 9110SOL    HW234189   5.101  11.997   4.865  2.3460  1.6390  0.2661
 9111SOL     OW34190  11.235   4.784   8.772  0.0577 -0.2897 -0.5519
 9111SOL    HW134191  11.308   4.845   8.785 -0.4521  0.1057  0.7076
 9111SOL    HW234192  11.275   4.697   8.776  0.5705 -0.0659 -0.6957
 9112SOL     OW34193   3.138  10.615   4.976 -0.2118  0.3203 -0.5518
 9112SOL    HW134194   3.228  10.628   4.944 -0.0352  1.4141  0.3346
 9112SOL    HW234195   3.141  10.645   5.067 -0.8416 -2.1377  0.3477
 9113SOL     OW34196   0.225   8.958   7.772  0.5091  0.3997 -0.5138
 9113SOL    HW134197   0.230   8.913   7.856 -0.3731  1.8094  0.3305
 9113SOL    HW234198   0.261   8.896   7.709 -2.1022 -2.1964  0.2991
 9114SOL     OW34199   0.248  12.314   1.813 -0.4618 -0.1135  0.0572
 9114SOL    HW134200   0.204  12.238   1.851 -2.6624  0.5064 -1.0959
 9114SOL    HW234201   0.287  12.282   1.732 -2.7214  0.2248 -1.2430
 9115SOL     OW34202   6.641   8.185   0.545  0.1400 -0.0107 -0.5494
 9115SOL    HW134203   6.711   8.170   0.608  0.3246 -2.0480 -1.1442
 9115SOL    HW234204   6.672   8.256   0.489  0.6318  0.7748  0.6892
 9116SOL     OW34205   8.809   9.415   9.975 -0.1496  0.0781 -0.1774
 9116SOL    HW134206   8.804   9.471  10.052 -0.6815 -1.4877  0.9783
 9116SOL    HW234207   8.723   9.423   9.934  0.3022  1.3119 -0.9373
 9117SOL     OW34208   0.501   6.230   4.282 -0.2368  0.2295 -0.4995
 9117SOL    HW134209   0.519   6.136   4.286 -1.1374  0.0912  0.6038
 9117SOL    HW234210   0.511   6.261   4.372 -2.1903  0.7345 -0.4056
 9118SOL     OW34211   4.186   7.587   1.466 -0.1585  0.4525 -0.2134
 9118SOL    HW134212   4.156   7.632   1.545 -1.4747  0.9527 -0.9678
 9118SOL    HW234213   4.195   7.656   1.400 -0.2813 -0.1142 -0.8362
 9119SOL     OW34214   5.520   1.972   2.622 -0.4676 -0.0418  0.9668
 9119SOL    HW134215   5.590   1.947   2.562 -1.5186 -0.2433 -0.2321
 9119SOL    HW234216   5.465   1.894   2.629 -0.5812  0.1122  1.8863
 9120SOL     OW34217  11.529  10.027  10.712  0.8193  0.1773 -0.5873
 9120SOL    HW134218  11.458   9.995  10.768  1.6149  0.8896  0.9034
 9120SOL    HW234219  11.554   9.951  10.659 -0.7324 -0.1992 -0.8129
 9121SOL     OW34220   1.631   7.135   2.173 -0.2512 -0.0293  0.0353
 9121SOL    HW134221   1.662   7.224   2.186 -0.6848  0.1297 -0.0125
 9121SOL    HW234222   1.705   7.080   2.198  0.1201  0.3476 -0.2320
 9122SOL     OW34223   0.051   5.971   2.920  0.2927  0.1164 -0.1513
 9122SOL    HW134224  -0.042   5.979   2.900  0.0787  0.0208  0.7352
 9122SOL    HW234225   0.082   6.061   2.927  1.1064  0.2909 -3.8443
 9123SOL     OW34226   1.432  10.163   3.341  0.1004  0.4607  0.1230
 9123SOL    HW134227   1.509  10.209   3.306  0.6957 -0.5987  0.0142
 9123SOL    HW234228   1.373  10.155   3.266 -0.5607  2.1169  0.4191
 9124SOL     OW34229   0.855  11.465   1.090 -0.1866 -0.2548 -0.3083
 9124SOL    HW134230   0.900  11.380   1.088 -0.6125 -0.4667 -1.6237
 9124SOL    HW234231   0.771  11.447   1.131  0.1881 -0.2226  0.4910
 9125SOL     OW34232   0.662  11.666   2.631  0.1923  0.8230 -0.2556
 9125SOL    HW134233   0.701  11.579   2.631  2.0193  1.6079 -0.5679
 9125SOL    HW234234   0.590  11.660   2.568  0.1256 -0.5200 -0.0729
 9126SOL     OW34235   9.432   9.840   3.994  0.0830 -0.3162 -0.0132
 9126SOL    HW134236   9.429   9.750   3.962 -1.2597 -0.7071  1.0829
 9126SOL    HW234237   9.454   9.893   3.917 -0.6368 -1.4368 -1.0297
 9127SOL     OW34238   4.667   2.039   1.447 -0.1114 -0.0781  0.2200
 9127SOL    HW134239   4.655   2.040   1.352  1.5071 -1.1088 -0.0229
 9127SOL    HW234240   4.595   2.093   1.480 -0.3865  0.7656 -1.6170
 9128SOL     OW34241   7.905   1.315   7.143 -0.1516  0.1129  0.0700
 9128SOL    HW134242   7.923   1.253   7.214  0.8017 -0.1321 -0.3603
 9128SOL    HW234243   7.816   1.345   7.158 -1.1698 -2.4279 -0.4769
 9129SOL     OW34244   6.036   7.732   8.039 -0.1199  0.2321 -0.2456
 9129SOL    HW134245   6.041   7.637   8.029  0.3962  0.2669 -0.3537
 9129SOL    HW234246   6.072   7.748   8.127  2.3725  0.5352 -1.2269
 9130SOL     OW34247   7.404   4.479   1.870 -0.1593  0.0210  0.7123
 9130SOL    HW134248   7.441   4.412   1.928  0.6754  0.6230  0.8875
 9130SOL    HW234249   7.480   4.523   1.832 -0.7021  0.1299 -0.2733
 9131SOL     OW34250   3.115   8.068   4.229 -0.1783  0.5702  0.0830
 9131SOL    HW134251   3.142   8.005   4.163 -0.0533  1.1127 -0.3992
 9131SOL    HW234252   3.050   8.123   4.184  0.2880  1.2689  0.2382
 9132SOL     OW34253  12.568   5.743   6.547  0.4028 -0.6621 -0.0797
 9132SOL    HW134254  12.591   5.727   6.455  0.0865  0.4708 -0.3679
 9132SOL    HW234255  12.514   5.667   6.571  0.4128 -0.9272 -0.8522
 9133SOL     OW34256   0.893   9.296   5.511  0.6244 -0.0222  0.2860
 9133SOL    HW134257   0.947   9.220   5.488  0.2044 -0.5237  0.9082
 9133SOL    HW234258   0.805   9.261   5.520 -0.1596  1.0778 -2.3364
 9134SOL     OW34259   1.998   6.342   7.111 -0.1934 -0.0057  0.0375
 9134SOL    HW134260   1.929   6.276   7.113 -1.2692  1.0784 -0.5247
 9134SOL    HW234261   2.010   6.367   7.202  0.4744 -1.1887  0.3069
 9135SOL     OW34262   9.800   2.554   5.583 -0.4466  0.7904 -0.7199
 9135SOL    HW134263   9.772   2.499   5.509  0.6108 -0.8919  0.0662
 9135SOL    HW234264   9.848   2.494   5.640 -1.0214  2.1009  1.2258
 9136SOL     OW34265   8.351   3.040  10.273  0.8540  0.0299  0.0381
 9136SOL    HW134266   8.267   3.010  10.308  0.1028  2.0466  0.1057
 9136SOL    HW234267   8.347   3.019  10.180  0.6422 -0.6662  0.2018
 9137SOL     OW34268   6.419   1.346  11.049 -0.0703 -0.0670  0.5810
 9137SOL    HW134269   6.368   1.413  11.093  0.5001 -0.2612  1.5892
 9137SOL    HW234270   6.483   1.318  11.115  1.3247  0.1645 -0.6167
 9138SOL     OW34271  11.909   7.177  11.988 -0.3352 -0.2197  0.1649
 9138SOL    HW134272  11.834   7.150  12.040 -1.0048 -1.3982 -1.3151
 9138SOL    HW234273  11.977   7.112  12.007 -1.0758 -1.5536 -1.4439
 9139SOL     OW34274  12.508   6.514   3.027  0.1295  0.0251  0.0841
 9139SOL    HW134275  12.492   6.568   3.104 -0.3627 -1.3786  1.0099
 9139SOL    HW234276  12.533   6.576   2.959 -1.0949  1.4691  0.8957
 9140SOL     OW34277   5.205   0.146   9.131  0.3263 -0.0394 -0.0910
 9140SOL    HW134278   5.160   0.178   9.209 -1.3066 -1.0324 -0.5572
 9140SOL    HW234279   5.293   0.124   9.161 -0.4503 -0.9960  1.6526
 9141SOL     OW34280   4.467   2.300   3.446  0.1302  0.0380 -0.2500
 9141SOL    HW134281   4.419   2.316   3.365 -1.0795 -0.9469  0.2369
 9141SOL    HW234282   4.416   2.232   3.491  1.0655  0.1831  1.0834
 9142SOL     OW34283  10.145  10.817   0.143 -0.0022  0.5568  0.4134
 9142SOL    HW134284  10.167  10.875   0.070  0.8008 -0.6970 -0.3848
 9142SOL    HW234285  10.221  10.760   0.151 -1.1075 -0.9343  0.6124
 9143SOL     OW34286   2.810   7.823  11.218  0.5367  0.1892 -0.0569
 9143SOL    HW134287   2.849   7.900  11.260 -0.1412 -0.1032  1.1671
 9143SOL    HW234288   2.761   7.859  11.143 -0.2438  1.0473  0.8255
 9144SOL     OW34289   9.805   0.967  12.312  0.1436  0.3085  0.0255
 9144SOL    HW134290   9.784   0.915  12.390  0.5198 -0.9905 -0.7077
 9144SOL    HW234291   9.829   1.053  12.346 -3.7068  1.1433  1.1066
 9145SOL     OW34292   8.650   0.100   3.315  0.3855  0.3127 -0.1657
 9145SOL    HW134293   8.614   0.011   3.318 -1.0062  0.8018 -1.2637
 9145SOL    HW234294   8.743   0.089   3.334  0.1538 -1.3178  0.1643
 9146SOL     OW34295   9.531  11.076  11.302 -0.0002  0.0634 -0.5097
 9146SOL    HW134296   9.465  11.063  11.369 -1.4938 -0.8308 -2.0973
 9146SOL    HW234297   9.514  11.009  11.237  3.1652 -0.9131 -0.5070
 9147SOL     OW34298   4.692   7.415   4.790 -0.4199 -0.2693  0.5132
 9147SOL    HW134299   4.727   7.412   4.879 -0.7118 -0.7115  0.6187
 9147SOL    HW234300   4.598   7.400   4.801 -0.6520  0.9048  0.2333
 9148SOL     OW34301   2.787   1.822  11.563  0.1381  0.2233 -0.2035
 9148SOL    HW134302   2.772   1.883  11.491 -1.1603 -2.0054 -1.9734
 9148SOL    HW234303   2.883   1.816  11.569  0.2832  1.9124 -0.3852
 9149SOL     OW34304   8.233   1.786   4.052  0.3468 -0.5622 -0.2798
 9149SOL    HW134305   8.175   1.774   4.127  0.3809 -1.0687 -0.3292
 9149SOL    HW234306   8.319   1.759   4.084  0.6688  0.7192 -0.0417
 9150SOL     OW34307   0.826  10.091   3.345 -0.4174  0.1119 -0.2545
 9150SOL    HW134308   0.737  10.057   3.342  0.4228 -2.4587  1.1587
 9150SOL    HW234309   0.827  10.150   3.420 -1.5203  2.4237 -1.8936
 9151SOL     OW34310  10.383   5.908   5.315 -0.0189 -0.7533  0.9787
 9151SOL    HW134311  10.442   5.960   5.260 -1.8971 -1.3733 -1.7858
 9151SOL    HW234312  10.442   5.851   5.365  1.8024 -0.2296 -0.4293
 9152SOL     OW34313   3.260   2.927   5.968 -0.2252 -0.0290  0.1080
 9152SOL    HW134314   3.205   2.983   5.914  1.6417  1.3755 -0.4644
 9152SOL    HW234315   3.285   2.982   6.042 -1.7910 -1.5536  1.8745
 9153SOL     OW34316   8.543   1.580   1.138  0.0651 -0.1951  0.3010
 9153SOL    HW134317   8.538   1.538   1.223 -1.0577  0.3626  0.5232
 9153SOL    HW234318   8.456   1.616   1.123  0.5085  0.5353 -0.6601
 9154SOL     OW34319  12.519   3.037   2.685 -1.0541  0.0913 -0.4503
 9154SOL    HW134320  12.545   2.949   2.711 -0.2716  1.0870  2.5736
 9154SOL    HW234321  12.601   3.082   2.664 -1.0447  0.9684  1.2690
 9155SOL     OW34322   5.190   5.464   0.360 -0.2385  0.1505  0.1589
 9155SOL    HW134323   5.260   5.414   0.402 -0.1689 -0.6674 -0.8895
 9155SOL    HW234324   5.117   5.402   0.353 -1.1507  1.0281  1.3613
 9156SOL     OW34325  12.189   8.730   8.490  0.6319 -0.6816  0.2142
 9156SOL    HW134326  12.152   8.788   8.424 -0.2169 -0.4582  0.8672
 9156SOL    HW234327  12.243   8.669   8.441  1.7618  0.8076 -0.4728
 9157SOL     OW34328   8.771   8.544   8.096 -0.1445  0.1281  0.3750
 9157SOL    HW134329   8.712   8.470   8.087 -0.1305  0.0832  0.6495
 9157SOL    HW234330   8.736   8.611   8.038  1.0891 -0.8619 -1.5980
 9158SOL     OW34331   2.319   6.218   8.953  0.7106 -0.0693  0.3189
 9158SOL    HW134332   2.346   6.247   9.040 -0.9216  0.0840  0.8229
 9158SOL    HW234333   2.285   6.129   8.966 -1.0643  0.5402  0.2086
 9159SOL     OW34334   3.170   6.996  11.929 -0.0406 -0.0749  0.1423
 9159SOL    HW134335   3.127   7.006  11.844 -1.8751  0.7676  1.0915
 9159SOL    HW234336   3.156   7.081  11.973 -0.6404 -1.0153  1.8886
 9160SOL     OW34337   2.599  10.321  11.967  0.1743  0.8738 -0.1086
 9160SOL    HW134338   2.519  10.356  12.006  0.5992  1.0011  0.6709
 9160SOL    HW234339   2.599  10.355  11.877 -0.0657  1.8235  0.2393
 9161SOL     OW34340   8.519   7.721   7.947 -0.1353  0.0989 -0.0929
 9161SOL    HW134341   8.595   7.759   7.903 -1.2095 -0.0713 -2.2293
 9161SOL    HW234342   8.548   7.709   8.037  2.6827 -0.8092 -1.0030
 9162SOL     OW34343   8.263   7.181   4.912 -0.3138 -0.5408 -0.3169
 9162SOL    HW134344   8.191   7.118   4.906  1.6939 -2.8839 -1.7528
 9162SOL    HW234345   8.308   7.158   4.993 -0.8305  0.5918  0.3184
 9163SOL     OW34346   6.653   5.256   5.362  0.0562  0.3143 -0.4086
 9163SOL    HW134347   6.721   5.323   5.354  0.2993 -0.0356 -1.4541
 9163SOL    HW234348   6.693   5.188   5.416 -0.3949  1.2394  1.1396
 9164SOL     OW34349   8.895  10.402  11.689 -0.8135  0.1165 -0.2437
 9164SOL    HW134350   8.831  10.396  11.760  1.8152  0.0303  2.3046
 9164SOL    HW234351   8.899  10.495  11.668  0.2513  0.5615  1.6871
 9165SOL     OW34352   0.142   0.504   0.492 -0.0241 -0.4602  0.4160
 9165SOL    HW134353   0.145   0.486   0.586  0.2857 -0.1889  0.4629
 9165SOL    HW234354   0.205   0.443   0.454 -2.4205 -2.8020 -0.0185
 9166SOL     OW34355  12.560   3.230   0.339  0.3288 -0.2478  0.7430
 9166SOL    HW134356  12.638   3.258   0.386  0.2830 -0.4050  0.9137
 9166SOL    HW234357  12.490   3.286   0.373  0.1555 -0.8445  1.3908
 9167SOL     OW34358   3.619   0.693   0.683  0.3233  0.2998  0.1332
 9167SOL    HW134359   3.690   0.667   0.625  1.4156  1.3377  0.9457
 9167SOL    HW234360   3.657   0.690   0.771 -0.5237  1.1676  0.5550
 9168SOL     OW34361   5.183   8.656  10.178 -0.0677  0.2192 -0.1465
 9168SOL    HW134362   5.088   8.658  10.187 -0.3742 -5.5166  1.4710
 9168SOL    HW234363   5.215   8.662  10.268  1.1070  0.8564 -0.5842
 9169SOL     OW34364   8.182  12.051   8.345  0.2895  0.2235 -0.1041
 9169SOL    HW134365   8.237  12.120   8.310  2.0863 -0.7086  0.7448
 9169SOL    HW234366   8.129  12.093   8.412  2.0201  0.6535  1.0529
 9170SOL     OW34367   0.510   2.793  12.547  0.1823  0.0586  0.0763
 9170SOL    HW134368   0.549   2.714  12.585 -0.3865 -1.9324 -3.0902
 9170SOL    HW234369   0.419   2.791  12.576  0.3213 -0.0535  0.5191
 9171SOL     OW34370   1.999  10.406   9.757 -0.2947  0.3818  0.2222
 9171SOL    HW134371   2.062  10.417   9.686 -0.4185  1.4139  0.2652
 9171SOL    HW234372   2.003  10.312   9.777  0.3963  0.2318 -0.5324
 9172SOL     OW34373   8.875   6.523  10.166  0.2524 -0.0549  0.3868
 9172SOL    HW134374   8.918   6.559  10.089  1.5059 -1.5435  0.3415
 9172SOL    HW234375   8.781   6.533  10.148  0.5242  2.1408 -0.0584
 9173SOL     OW34376  12.289  10.197  11.370  0.4263  0.1842 -0.4552
 9173SOL    HW134377  12.209  10.199  11.422 -0.0430  0.5644 -1.1754
 9173SOL    HW234378  12.359  10.217  11.432 -0.0597  0.0946  0.1301
 9174SOL     OW34379   2.633   9.458   3.637  0.5719 -0.1332 -0.0570
 9174SOL    HW134380   2.699   9.523   3.663 -0.7557  1.1111  0.3301
 9174SOL    HW234381   2.568   9.461   3.707 -0.9016  0.1324 -1.3812
 9175SOL     OW34382   9.844  11.520   1.827  0.6213  0.2119 -0.2529
 9175SOL    HW134383   9.917  11.582   1.833  0.5749  0.2334  0.0692
 9175SOL    HW234384   9.879  11.447   1.776  0.2290  1.1616 -1.9875
 9176SOL     OW34385   1.998   7.191   8.578  0.4571  0.6363  0.0973
 9176SOL    HW134386   1.951   7.130   8.521  0.6001  0.4925  0.1343
 9176SOL    HW234387   1.955   7.275   8.562 -0.4239  0.3362  0.8247
 9177SOL     OW34388   9.396   2.525   7.168 -0.2986  0.2836 -0.2304
 9177SOL    HW134389   9.488   2.499   7.177 -0.3831 -0.0495 -0.3301
 9177SOL    HW234390   9.368   2.545   7.257  0.0854  1.1276 -0.2878
 9178SOL     OW34391   6.426   4.772   4.675  0.3718 -0.1233  0.1001
 9178SOL    HW134392   6.359   4.706   4.690  0.4590 -0.0499  0.8914
 9178SOL    HW234393   6.498   4.747   4.733  0.5627  0.4448  0.1232
 9179SOL     OW34394   1.913   3.773   6.818 -0.4322  0.0159  1.0599
 9179SOL    HW134395   1.832   3.727   6.797 -0.1624 -0.4720  1.0800
 9179SOL    HW234396   1.982   3.706   6.811 -0.3925 -0.3880  4.1844
 9180SOL     OW34397   5.048  11.884   4.450  0.1369 -0.3038 -0.4324
 9180SOL    HW134398   5.138  11.877   4.482  0.3185 -1.4370 -1.1345
 9180SOL    HW234399   5.045  11.827   4.373 -1.2342 -0.4543 -0.2952
 9181SOL     OW34400   5.051   2.384   5.133 -0.0399  0.1178  0.2508
 9181SOL    HW134401   5.100   2.318   5.182 -1.1100 -1.1497 -0.3315
 9181SOL    HW234402   5.117   2.448   5.108  1.5434 -1.9544 -1.2314
 9182SOL     OW34403   7.840   8.828   3.401 -0.0554 -0.7324  0.5700
 9182SOL    HW134404   7.775   8.773   3.356  2.4857 -1.5029 -2.5529
 9182SOL    HW234405   7.810   8.917   3.386 -2.0422 -1.0922  2.0697
 9183SOL     OW34406   0.064   5.263   0.885  0.3303 -0.5148  0.3619
 9183SOL    HW134407   0.074   5.349   0.925  1.9759 -0.7566  0.5429
 9183SOL    HW234408  -0.013   5.270   0.830  0.6792  1.2011  0.0519
 9184SOL     OW34409   4.138  12.298   2.355  0.0162 -0.0023  0.2008
 9184SOL    HW134410   4.173  12.256   2.277 -1.5783  0.3727 -0.7484
 9184SOL    HW234411   4.081  12.232   2.395 -0.6944  0.4616 -0.0316
 9185SOL     OW34412   3.599  10.580   9.404  0.2194  0.5077 -0.3562
 9185SOL    HW134413   3.595  10.669   9.438 -0.3914  0.7903 -1.1101
 9185SOL    HW234414   3.511  10.565   9.367 -0.5901 -1.3728  2.0775
 9186SOL     OW34415   1.899   5.752   3.265 -0.8451  0.2295 -0.1786
 9186SOL    HW134416   1.936   5.813   3.202 -1.9607 -0.0491 -1.1459
 9186SOL    HW234417   1.804   5.761   3.255 -1.0366 -0.5207  0.7722
 9187SOL     OW34418   8.818   6.875   8.892 -0.5541 -0.1577 -0.1330
 9187SOL    HW134419   8.900   6.921   8.908 -0.6791 -0.0656  0.2444
 9187SOL    HW234420   8.776   6.870   8.978 -1.2989  0.4587 -0.4494
 9188SOL     OW34421   6.101   8.868   7.459  0.2333 -0.0119 -0.0763
 9188SOL    HW134422   6.190   8.864   7.422 -0.1971  0.1815 -1.1712
 9188SOL    HW234423   6.076   8.777   7.473  1.3348 -0.0416  2.1211
 9189SOL     OW34424   1.258   7.088   5.748  0.4994 -0.6588  0.5128
 9189SOL    HW134425   1.248   7.006   5.797  2.0803 -1.3489 -0.2517
 9189SOL    HW234426   1.352   7.108   5.753  0.1608  1.0737  0.5982
 9190SOL     OW34427   0.153   2.141  10.307 -0.0116 -0.1154 -0.0541
 9190SOL    HW134428   0.143   2.233  10.285 -0.7860 -0.3004 -0.5205
 9190SOL    HW234429   0.069   2.116  10.346 -0.8582 -1.2751 -2.3950
 9191SOL     OW34430  10.727  12.111   3.501 -0.1739 -0.1206 -0.1493
 9191SOL    HW134431  10.791  12.057   3.455 -0.6807 -1.3261  0.5039
 9191SOL    HW234432  10.773  12.140   3.580 -0.4682 -1.2048  0.4545
 9192SOL     OW34433   3.426   2.437  11.732 -0.0151  0.1693 -0.1126
 9192SOL    HW134434   3.521   2.423  11.734  0.3645  2.2889 -0.3426
 9192SOL    HW234435   3.401   2.416  11.642  0.1796 -0.6507  0.0166
 9193SOL     OW34436  11.573  10.453   0.914 -0.0106  0.0375 -0.2689
 9193SOL    HW134437  11.500  10.456   0.852 -0.5874 -2.4538  0.1599
 9193SOL    HW234438  11.651  10.447   0.858 -0.2359  1.1455 -0.7289
 9194SOL     OW34439   6.157   1.539   9.676 -0.3910 -0.1070  0.0290
 9194SOL    HW134440   6.250   1.545   9.700 -0.3715 -0.2793 -0.0018
 9194SOL    HW234441   6.155   1.474   9.606 -0.4340  0.4657 -0.5126
 9195SOL     OW34442   7.372   8.339   4.317  0.4624 -0.2444 -0.0797
 9195SOL    HW134443   7.291   8.304   4.279  0.6311  0.7369 -1.4355
 9195SOL    HW234444   7.440   8.277   4.291  0.0690 -1.6027  1.8852
 9196SOL     OW34445   2.197   7.884   6.666 -0.3240  0.0499 -0.2813
 9196SOL    HW134446   2.231   7.860   6.752  1.4014  2.7278 -0.1169
 9196SOL    HW234447   2.104   7.865   6.671 -0.1066 -0.7025  1.8537
 9197SOL     OW34448   9.262  10.088   9.665  0.0836 -0.2871 -0.2872
 9197SOL    HW134449   9.251  10.059   9.575  1.5239 -0.7509 -0.3379
 9197SOL    HW234450   9.173  10.093   9.700 -0.3667 -2.2863 -1.0515
 9198SOL     OW34451   3.025   0.735   1.727 -0.4218 -0.0328 -0.5775
 9198SOL    HW134452   3.068   0.768   1.806  1.2157  0.5596 -1.6548
 9198SOL    HW234453   2.948   0.791   1.716  0.3751  1.1351 -0.4190
 9199SOL     OW34454   3.626  11.363   8.782 -0.1860 -0.3543 -0.0586
 9199SOL    HW134455   3.604  11.409   8.863 -1.3895 -0.9315 -0.0300
 9199SOL    HW234456   3.721  11.350   8.787 -0.0059  1.0193  0.4928
 9200SOL     OW34457   7.924   4.962   5.779  0.0137 -0.0205 -0.0029
 9200SOL    HW134458   7.964   4.948   5.693  0.5993  0.9878  0.1027
 9200SOL    HW234459   7.839   5.002   5.759  0.2839  0.5071 -0.0994
 9201SOL     OW34460   9.075   4.166   0.592 -0.0191  0.0600  0.0202
 9201SOL    HW134461   9.007   4.123   0.643 -0.2929  1.3462  0.7915
 9201SOL    HW234462   9.027   4.214   0.525  0.3699 -2.3468 -2.1481
 9202SOL     OW34463   0.735   9.686   2.523  0.0399  0.1352  1.1639
 9202SOL    HW134464   0.715   9.776   2.547  0.4952  0.4663  0.3438
 9202SOL    HW234465   0.694   9.675   2.437 -0.5722 -0.6519  1.5409
 9203SOL     OW34466   2.103  11.192   4.325 -0.3414 -0.1702 -0.0597
 9203SOL    HW134467   2.034  11.144   4.370  0.1644  0.2150  1.1529
 9203SOL    HW234468   2.169  11.126   4.304 -0.2137 -0.2226  0.4940
 9204SOL     OW34469  11.126   9.126   3.464 -0.3597 -0.1001 -0.2307
 9204SOL    HW134470  11.177   9.152   3.387  0.5036  1.1779  0.7166
 9204SOL    HW234471  11.038   9.108   3.430 -0.0152  0.4936 -1.4976
 9205SOL     OW34472   4.516   9.719   9.496 -0.3586  0.2740  0.2941
 9205SOL    HW134473   4.607   9.746   9.481 -0.3806 -0.1281 -0.6275
 9205SOL    HW234474   4.492   9.672   9.417 -0.8070 -1.1325  1.2155
 9206SOL     OW34475   1.983   9.470   2.570 -0.0432 -0.2254  0.4432
 9206SOL    HW134476   1.905   9.436   2.527 -0.0680  0.5882 -0.1925
 9206SOL    HW234477   1.952   9.550   2.614 -0.3206 -1.6833  3.1308
 9207SOL     OW34478   1.111   5.415   8.367  0.3035 -0.0577 -0.3679
 9207SOL    HW134479   1.024   5.452   8.351 -0.8499 -3.0621 -1.8050
 9207SOL    HW234480   1.151   5.411   8.281  1.1143 -0.4357  0.0223
 9208SOL     OW34481   1.960   1.037  10.586  0.4439 -0.7215  0.0347
 9208SOL    HW134482   2.043   1.082  10.601  0.2870 -0.3749 -0.1350
 9208SOL    HW234483   1.970   0.997  10.499  0.7419 -1.3742  0.3625
 9209SOL     OW34484   2.025   3.234   6.855  0.2341  0.3055 -0.0691
 9209SOL    HW134485   2.095   3.238   6.919  0.8749  0.6075 -0.7660
 9209SOL    HW234486   1.974   3.156   6.879  0.7812  0.1071  0.4669
 9210SOL     OW34487   2.445   7.195   3.190 -0.3011  0.0754 -0.0924
 9210SOL    HW134488   2.428   7.237   3.275  0.5082 -0.2543  0.2429
 9210SOL    HW234489   2.471   7.266   3.133 -1.2196  0.3585 -0.1846
 9211SOL     OW34490   5.373   6.986  12.023 -0.9426 -0.9772  0.4480
 9211SOL    HW134491   5.415   7.049  11.965 -1.3742 -0.5568  0.5927
 9211SOL    HW234492   5.322   7.039  12.084 -1.3554 -1.4679  0.5327
 9212SOL     OW34493   8.999   2.727  11.528 -0.0489 -0.5184 -0.5567
 9212SOL    HW134494   9.074   2.780  11.554  0.3822 -1.3485 -0.0696
 9212SOL    HW234495   8.964   2.772  11.450  1.2825 -0.4219 -1.1264
 9213SOL     OW34496   2.057   5.630   3.446  0.1615  0.0443  0.3252
 9213SOL    HW134497   1.983   5.674   3.404 -0.2864  1.4079  2.3892
 9213SOL    HW234498   2.059   5.543   3.406 -2.1656  0.1775 -0.2551
 9214SOL     OW34499   2.615   8.331   5.079  0.1120  0.2471  1.0644
 9214SOL    HW134500   2.681   8.398   5.059 -0.1699  0.5180  1.0450
 9214SOL    HW234501   2.657   8.248   5.054 -0.0756  0.5383 -0.3152
 9215SOL     OW34502   1.450   5.813   8.929 -0.1880  0.0089  0.0032
 9215SOL    HW134503   1.378   5.760   8.894  1.0355 -2.5268  1.0378
 9215SOL    HW234504   1.435   5.814   9.023 -0.2385  1.7073  0.0067
 9216SOL     OW34505   3.832  10.160   0.905  0.0480  0.3313  0.2928
 9216SOL    HW134506   3.837  10.250   0.935 -0.7934  0.5879 -0.2802
 9216SOL    HW234507   3.893  10.112   0.960  1.3718  1.4477 -0.1410
 9217SOL     OW34508   9.902   4.202  10.762  0.2412  0.2665  0.7457
 9217SOL    HW134509   9.997   4.212  10.755  0.3324 -0.9487 -0.1243
 9217SOL    HW234510   9.887   4.169  10.850  0.7798 -1.0067  0.3742
 9218SOL     OW34511   1.194   2.719   4.102  0.3484  0.2736  0.0177
 9218SOL    HW134512   1.185   2.799   4.050 -0.1944 -0.2678 -0.7591
 9218SOL    HW234513   1.220   2.652   4.038  1.3786 -0.0529  0.7556
 9219SOL     OW34514   8.218  10.986   8.933 -0.3970  0.5465 -0.3720
 9219SOL    HW134515   8.199  11.030   8.851  0.3989 -0.2652 -1.0050
 9219SOL    HW234516   8.155  11.023   8.995 -1.1171  1.0440 -1.3778
 9220SOL     OW34517   5.917   8.492   6.338 -0.3473 -0.0265  0.1921
 9220SOL    HW134518   5.861   8.538   6.274  2.3064 -0.2378 -2.4957
 9220SOL    HW234519   5.981   8.558   6.364  0.5074 -0.8357  0.1550
 9221SOL     OW34520  12.099   5.470   6.419  0.5006  0.1222  0.7413
 9221SOL    HW134521  12.008   5.475   6.448  0.5205  1.0795  0.6692
 9221SOL    HW234522  12.120   5.377   6.421 -0.7309 -0.1876 -0.0018
 9222SOL     OW34523  10.583  10.639   0.415  0.1598  0.0827  0.1158
 9222SOL    HW134524  10.557  10.663   0.504 -0.0116  0.3692 -0.0108
 9222SOL    HW234525  10.672  10.675   0.406  0.1889  0.0280  0.1802
 9223SOL     OW34526   0.341   8.024   5.063 -0.0327 -0.4849  0.0534
 9223SOL    HW134527   0.400   7.961   5.105  0.5760 -0.2593 -0.4501
 9223SOL    HW234528   0.255   8.005   5.101  0.4629 -0.4135  1.2511
 9224SOL     OW34529   9.890  10.501   4.855  0.1465  0.6366 -0.3597
 9224SOL    HW134530   9.796  10.497   4.869  0.4319 -0.9428  1.6396
 9224SOL    HW234531   9.909  10.425   4.799  0.2946  0.5163 -0.1503
 9225SOL     OW34532   9.331   5.952  11.316 -0.1984  0.1727  0.3875
 9225SOL    HW134533   9.314   5.955  11.222  0.4257  0.2412  0.2749
 9225SOL    HW234534   9.291   5.869  11.344  0.9008 -0.5983 -0.2150
 9226SOL     OW34535   8.422  11.773   7.778  0.2591 -0.8932 -0.1214
 9226SOL    HW134536   8.377  11.700   7.735  0.0859 -1.0030  0.2342
 9226SOL    HW234537   8.389  11.770   7.869 -1.7528  1.1694 -0.6723
 9227SOL     OW34538   3.082   8.586   1.017  0.4192 -0.2334 -0.0696
 9227SOL    HW134539   3.020   8.613   1.085 -0.0635 -0.1332 -0.5439
 9227SOL    HW234540   3.156   8.646   1.026  1.1276 -1.2562  1.4605
 9228SOL     OW34541  10.671   6.769  12.043  0.4748 -0.5154  0.6309
 9228SOL    HW134542  10.683   6.676  12.065 -0.1711 -0.6172  0.5597
 9228SOL    HW234543  10.714   6.778  11.957 -1.4777 -1.3023 -0.4942
 9229SOL     OW34544   5.774   1.438   6.787 -0.2472 -0.2391  0.7001
 9229SOL    HW134545   5.794   1.475   6.701 -1.3253 -0.2191  0.4441
 9229SOL    HW234546   5.816   1.498   6.849 -0.6449  0.5400  0.2359
 9230SOL     OW34547   5.115   4.387   3.667 -0.3732 -0.2413 -0.0321
 9230SOL    HW134548   5.151   4.453   3.726 -2.0063 -0.3324  1.1523
 9230SOL    HW234549   5.118   4.427   3.581 -0.0898  0.8501  0.4724
 9231SOL     OW34550   3.520   5.349  11.614  0.0234 -0.0074  0.0948
 9231SOL    HW134551   3.554   5.432  11.579 -0.6925 -0.1284 -0.9217
 9231SOL    HW234552   3.568   5.337  11.696 -0.6045  1.9314  0.7972
 9232SOL     OW34553   8.606   0.766   8.090 -0.1130 -0.3569 -0.3875
 9232SOL    HW134554   8.574   0.710   8.161 -0.9649 -0.6600 -0.9915
 9232SOL    HW234555   8.648   0.706   8.029 -1.2990 -0.4163 -1.1905
 9233SOL     OW34556   6.668   9.071   3.058 -0.1598  1.0282  0.0154
 9233SOL    HW134557   6.606   9.008   3.021  0.0801  0.2687  0.8488
 9233SOL    HW234558   6.679   9.043   3.149 -0.1663  2.3947  0.4518
 9234SOL     OW34559   1.423   0.099   9.198 -0.0260  0.3376  0.2530
 9234SOL    HW134560   1.476   0.026   9.231 -0.8086 -0.7902 -0.8684
 9234SOL    HW234561   1.332   0.072   9.214 -0.3474  0.7648 -0.7188
 9235SOL     OW34562   7.866  12.176   8.059  0.6602 -0.2034 -0.0129
 9235SOL    HW134563   7.897  12.266   8.051  1.9451 -0.7658 -2.5995
 9235SOL    HW234564   7.771  12.182   8.056  0.7171  1.0808  0.3569
 9236SOL     OW34565   9.765   6.769   7.664  0.3595 -0.3365  0.3247
 9236SOL    HW134566   9.783   6.691   7.612 -0.2669 -0.0135 -0.3985
 9236SOL    HW234567   9.833   6.769   7.732  0.1441 -1.7133  0.5764
 9237SOL     OW34568   0.880   5.316   1.931 -0.1640  0.0882 -0.1511
 9237SOL    HW134569   0.865   5.248   1.866 -1.0450  2.0564 -2.1153
 9237SOL    HW234570   0.794   5.332   1.969  0.4712 -1.6633  2.2959
 9238SOL     OW34571   6.184   3.011   6.282  0.0262 -0.2576 -0.2595
 9238SOL    HW134572   6.094   3.011   6.250  0.0833  2.3658 -0.6725
 9238SOL    HW234573   6.178   3.054   6.368  0.7852 -0.8142  0.0780
 9239SOL     OW34574  11.540   8.214   9.667  0.2234  0.2794 -0.1611
 9239SOL    HW134575  11.594   8.292   9.655  2.7136 -1.4010 -0.8660
 9239SOL    HW234576  11.603   8.145   9.690 -1.7335 -1.7327 -0.4782
 9240SOL     OW34577   8.352  12.255   9.495  0.5120  0.4595  0.1296
 9240SOL    HW134578   8.365  12.318   9.425 -1.2181  1.2237  0.4524
 9240SOL    HW234579   8.332  12.307   9.573  1.8331 -0.3915  1.0915
 9241SOL     OW34580   9.246  11.722  10.316  0.7079 -0.2544 -0.0803
 9241SOL    HW134581   9.209  11.756  10.397  1.7804 -0.9576  0.7383
 9241SOL    HW234582   9.317  11.782  10.294  0.5011 -0.1356 -0.4294
 9242SOL     OW34583  10.736   6.331   5.268  0.2122  0.0705  0.2704
 9242SOL    HW134584  10.781   6.401   5.220  0.0321 -0.0253 -0.0391
 9242SOL    HW234585  10.800   6.260   5.271  0.1648  0.0181  0.0337
 9243SOL     OW34586   6.812   7.262   0.048  0.1819 -0.0955  0.3167
 9243SOL    HW134587   6.841   7.337   0.099 -0.7534  0.5832 -0.1227
 9243SOL    HW234588   6.735   7.293   0.000 -0.6903 -1.5391  0.7051
 9244SOL     OW34589   2.283   6.917   4.429  0.2656  0.1473  0.3264
 9244SOL    HW134590   2.364   6.867   4.423 -0.0676 -0.2072 -1.9978
 9244SOL    HW234591   2.214   6.854   4.408 -0.3393  1.0798 -0.6343
 9245SOL     OW34592   1.997   9.206   9.177 -0.2392  0.2041 -0.2329
 9245SOL    HW134593   1.977   9.241   9.091  0.6538 -0.3314 -0.6717
 9245SOL    HW234594   2.062   9.267   9.213  0.2180 -0.1720 -0.4029
 9246SOL     OW34595   4.760   4.718   9.695  0.0147  0.6360 -0.0536
 9246SOL    HW134596   4.812   4.707   9.616  1.6704  2.2729  0.7283
 9246SOL    HW234597   4.724   4.631   9.713  2.4850 -0.5985 -0.6585
 9247SOL     OW34598   9.945   6.925  10.816  0.1312 -0.3011 -0.1969
 9247SOL    HW134599  10.038   6.902  10.822  0.2655 -0.2078 -1.5043
 9247SOL    HW234600   9.944   7.006  10.764 -0.6235  0.2722  0.6868
 9248SOL     OW34601   5.524   8.662  12.104 -0.2132  0.2546  0.4715
 9248SOL    HW134602   5.513   8.644  12.010 -0.5411  1.4122  0.2760
 9248SOL    HW234603   5.472   8.740  12.119 -0.0839  0.1291  1.6137
 9249SOL     OW34604   5.747   9.438   0.565  0.2047  0.0136  0.1002
 9249SOL    HW134605   5.775   9.528   0.551  1.7635 -0.5108 -0.4083
 9249SOL    HW234606   5.788   9.412   0.647  0.5488 -0.5046 -0.2239
 9250SOL     OW34607   0.460   6.945   4.151  0.1413 -0.2461  0.1123
 9250SOL    HW134608   0.518   6.924   4.224  0.5061 -0.4980 -0.2385
 9250SOL    HW234609   0.520   6.964   4.078 -0.1999 -1.1482 -0.4337
 9251SOL     OW34610   9.299   7.617   7.154 -0.0885 -0.6574  0.2967
 9251SOL    HW134611   9.316   7.626   7.060 -1.6536  0.5987  0.0855
 9251SOL    HW234612   9.321   7.703   7.190 -1.1387 -0.5774  0.7803
 9252SOL     OW34613   9.709   2.144   8.395  0.5635  0.4237 -0.5741
 9252SOL    HW134614   9.780   2.175   8.450  0.0856 -1.3873  1.1972
 9252SOL    HW234615   9.725   2.050   8.387 -2.1649 -0.2732  0.8558
 9253SOL     OW34616   3.600   4.044   2.027 -0.1806 -0.5804  0.2181
 9253SOL    HW134617   3.667   4.073   2.089  2.1842 -1.9167 -1.5410
 9253SOL    HW234618   3.598   4.111   1.960 -0.7976 -0.4361  0.3737
 9254SOL     OW34619   7.613   1.126   5.483  0.2157 -0.1924  0.6321
 9254SOL    HW134620   7.659   1.073   5.548  1.2479 -0.3895 -0.2237
 9254SOL    HW234621   7.671   1.124   5.406 -1.8396 -1.5712 -0.9897
 9255SOL     OW34622   9.667   5.932   0.348  0.2913 -0.4636 -0.6986
 9255SOL    HW134623   9.715   5.995   0.401  0.0863 -0.1693 -0.8523
 9255SOL    HW234624   9.647   5.860   0.408 -1.9620  0.8800  0.3103
 9256SOL     OW34625   4.281  10.423   8.910 -0.0333 -0.1056 -0.3278
 9256SOL    HW134626   4.269  10.515   8.936  0.2079 -0.5993  1.7027
 9256SOL    HW234627   4.254  10.421   8.818 -0.8113  1.8372 -0.2049
 9257SOL     OW34628   9.167   4.014   9.607 -0.2988 -0.2399  0.3565
 9257SOL    HW134629   9.212   3.950   9.551 -0.4755 -0.0379 -0.0164
 9257SOL    HW234630   9.155   3.968   9.690  0.7059 -0.2599  0.5072
 9258SOL     OW34631   5.790   6.168   8.031  0.4305 -0.1358 -0.0984
 9258SOL    HW134632   5.760   6.214   7.952 -1.0406 -1.0456 -0.0966
 9258SOL    HW234633   5.710   6.136   8.072  1.3679 -2.8331 -0.1718
 9259SOL     OW34634   5.237   5.841   1.228 -0.1901 -0.0128  0.3448
 9259SOL    HW134635   5.149   5.841   1.190  0.9870 -0.7958 -2.6760
 9259SOL    HW234636   5.267   5.932   1.222 -0.4775  0.0982  0.5913
 9260SOL     OW34637   2.627   6.541   1.256  0.3092 -0.2243 -0.1683
 9260SOL    HW134638   2.556   6.511   1.199  0.5296  0.1976 -0.6711
 9260SOL    HW234639   2.584   6.566   1.337  0.1338 -2.1312  0.3728
 9261SOL     OW34640   8.800   3.866   4.988 -0.0923 -0.4607  0.2422
 9261SOL    HW134641   8.863   3.834   5.053  0.2918  1.2198  0.7571
 9261SOL    HW234642   8.854   3.905   4.919 -0.5362 -0.9209 -0.3743
 9262SOL     OW34643   8.925   8.473   8.291  0.7362  0.0348 -0.2539
 9262SOL    HW134644   8.896   8.383   8.300  0.0430  0.2824  0.0025
 9262SOL    HW234645   8.879   8.506   8.214  0.4970  0.3580  0.0235
 9263SOL     OW34646   3.959  11.952   1.750  0.6471 -0.0537  0.3085
 9263SOL    HW134647   3.956  11.858   1.767 -2.6135 -0.8902 -3.3229
 9263SOL    HW234648   4.023  11.962   1.679  0.4652  0.3426  0.1977
 9264SOL     OW34649   6.582   9.858   8.606 -0.2327 -0.7082  0.0667
 9264SOL    HW134650   6.503   9.860   8.553 -0.3296 -0.3449  0.2185
 9264SOL    HW234651   6.641   9.798   8.560 -0.7650 -1.3388  0.2061
 9265SOL     OW34652  10.442   8.732  11.913 -0.0193 -0.6310  0.0264
 9265SOL    HW134653  10.443   8.794  11.986  0.5979 -0.3937 -0.1718
 9265SOL    HW234654  10.381   8.769  11.850  1.0901  0.3232 -0.5367
 9266SOL     OW34655   6.639   6.635   9.852  0.2755  0.2442 -0.0987
 9266SOL    HW134656   6.638   6.673   9.940  1.3951  0.6843 -0.2601
 9266SOL    HW234657   6.613   6.707   9.795 -1.8133 -0.3945 -0.0410
 9267SOL     OW34658   0.107   0.795  10.403 -0.4098 -0.2732 -0.2566
 9267SOL    HW134659   0.166   0.734  10.448  0.9401  0.9166 -0.3199
 9267SOL    HW234660   0.124   0.780  10.310 -0.7972 -0.4925 -0.2891
 9268SOL     OW34661  10.210   5.220   3.954  0.3963 -0.0689  0.7425
 9268SOL    HW134662  10.288   5.179   3.992  0.6906  0.6784  0.9618
 9268SOL    HW234663  10.193   5.170   3.874  1.6323  0.3201  0.2109
 9269SOL     OW34664   9.565  10.894   6.207  0.5693 -0.8995  0.5166
 9269SOL    HW134665   9.556  10.987   6.188  0.6952 -0.9233  0.3496
 9269SOL    HW234666   9.647  10.867   6.165 -1.0348 -1.8266 -2.2860
 9270SOL     OW34667   5.086  10.590   3.582 -0.4135  0.4700 -0.3803
 9270SOL    HW134668   5.125  10.586   3.669 -0.3883  0.7859 -0.3749
 9270SOL    HW234669   5.156  10.620   3.525 -0.8324  1.8010 -0.2371
 9271SOL     OW34670  10.584   5.268   9.506 -0.4285  0.0962  0.4953
 9271SOL    HW134671  10.660   5.270   9.448  0.2247 -0.3454  1.3203
 9271SOL    HW234672  10.620   5.281   9.594 -1.2668 -0.4301  0.9337
 9272SOL     OW34673  10.729   0.652  10.621 -0.5254  0.0710  0.0909
 9272SOL    HW134674  10.704   0.587  10.687 -1.9406 -0.4020 -0.8709
 9272SOL    HW234675  10.825   0.646  10.617 -0.6459 -3.0737 -0.9715
 9273SOL     OW34676   8.230   1.561   7.797  0.7319  0.7873  0.6989
 9273SOL    HW134677   8.212   1.610   7.878  1.2347  1.9001  0.1506
 9273SOL    HW234678   8.143   1.544   7.761  0.5454  1.3716  0.8491
 9274SOL     OW34679   5.965   4.251  10.305 -0.0315 -0.7310  0.3850
 9274SOL    HW134680   5.934   4.178  10.359  3.2278 -3.0389 -0.6198
 9274SOL    HW234681   5.921   4.239  10.221  1.0045 -2.0137  0.0016
 9275SOL     OW34682   6.870   6.128  10.640  0.0961 -0.0806  0.1784
 9275SOL    HW134683   6.889   6.103  10.730 -0.5784  0.4105  0.4576
 9275SOL    HW234684   6.796   6.187  10.646 -0.8182 -1.0772 -0.8010
 9276SOL     OW34685   1.534   3.662   0.137  0.2266  0.1687 -0.2419
 9276SOL    HW134686   1.545   3.737   0.195 -3.4309  0.9921 -0.3601
 9276SOL    HW234687   1.533   3.700   0.049  0.7873 -0.3633 -0.4793
 9277SOL     OW34688   4.450   4.237   9.445  0.0452  0.1657 -0.0313
 9277SOL    HW134689   4.462   4.146   9.416  0.1491 -0.8592  2.8389
 9277SOL    HW234690   4.524   4.253   9.503 -1.3440  1.1491  1.5617
 9278SOL     OW34691   9.148  12.543   3.539  0.0413 -0.5644  0.2462
 9278SOL    HW134692   9.224  12.488   3.520  0.3784 -0.4988  1.3701
 9278SOL    HW234693   9.120  12.518   3.626 -1.6378 -1.0211 -0.3844
 9279SOL     OW34694   3.043   4.567  10.602  0.1674 -0.1251 -0.9751
 9279SOL    HW134695   3.129   4.607  10.617  0.7576 -0.9037 -2.1673
 9279SOL    HW234696   2.981   4.639  10.613  0.8010  0.1286  1.4893
 9280SOL     OW34697   2.394   4.431   9.280 -0.5118 -0.2301 -0.3585
 9280SOL    HW134698   2.344   4.497   9.328 -1.7741  0.0547 -1.9506
 9280SOL    HW234699   2.485   4.459   9.289 -0.7359  0.0178  1.4707
 9281SOL     OW34700   3.136  11.593   0.641  0.0931  0.4127  0.5466
 9281SOL    HW134701   3.186  11.645   0.578  1.4561 -2.1324 -0.6075
 9281SOL    HW234702   3.199  11.531   0.677 -1.1884  0.2820  2.7452
 9282SOL     OW34703  12.447   9.168   7.815 -0.1621  0.1386 -0.3950
 9282SOL    HW134704  12.447   9.078   7.781  0.0724  0.2276 -0.6345
 9282SOL    HW234705  12.509   9.166   7.887 -0.7330 -0.0746  0.1046
 9283SOL     OW34706   9.370   3.766  11.483  0.3124 -0.0551 -0.3379
 9283SOL    HW134707   9.371   3.858  11.460 -1.0240  0.1576  0.3333
 9283SOL    HW234708   9.370   3.764  11.578  0.8819 -0.7666 -0.3401
 9284SOL     OW34709   6.848   7.733   3.650  0.4007 -1.0010  0.5941
 9284SOL    HW134710   6.768   7.698   3.611  0.1925 -0.3266  0.3901
 9284SOL    HW234711   6.902   7.656   3.668 -0.3132 -1.4654  0.7831
 9285SOL     OW34712   2.789   2.035   4.400 -0.0454 -0.3623 -0.0123
 9285SOL    HW134713   2.871   2.070   4.365 -1.0186  3.3470  1.0475
 9285SOL    HW234714   2.815   1.956   4.448  2.6705 -0.0138 -0.7712
 9286SOL     OW34715   5.678  10.248   7.611  0.0749 -0.0543  0.3264
 9286SOL    HW134716   5.649  10.284   7.695 -1.1409  0.1086 -0.1401
 9286SOL    HW234717   5.629  10.298   7.546  2.9765  1.7624 -0.6810
 9287SOL     OW34718   6.405  11.660   0.401  1.0898  0.1850  0.6596
 9287SOL    HW134719   6.373  11.630   0.486 -2.8080  1.2635 -0.2022
 9287SOL    HW234720   6.404  11.582   0.346 -0.3429  0.1654  0.6610
 9288SOL     OW34721   3.439   1.599   9.422 -0.0474  0.1004  0.5172
 9288SOL    HW134722   3.531   1.624   9.435 -0.1484  0.4271  0.5964
 9288SOL    HW234723   3.410   1.651   9.348 -0.0924 -0.2051  0.3186
 9289SOL     OW34724   7.361   2.516   5.354  0.2022 -0.4775  0.2252
 9289SOL    HW134725   7.347   2.601   5.396 -1.8651 -0.7704  0.2495
 9289SOL    HW234726   7.319   2.524   5.269 -2.4374 -2.2101  1.2286
 9290SOL     OW34727   5.324  11.658  10.114 -0.0088 -0.4760  0.1993
 9290SOL    HW134728   5.358  11.602  10.045 -0.8915 -1.0386  0.2022
 9290SOL    HW234729   5.375  11.634  10.192  0.4798 -0.3664 -0.0825
 9291SOL     OW34730   7.561  10.443   6.906  0.2153 -0.5406  0.0688
 9291SOL    HW134731   7.587  10.351   6.904 -0.0405 -0.6155 -1.7538
 9291SOL    HW234732   7.492  10.450   6.840 -0.1448  0.8527  0.5551
 9292SOL     OW34733   8.976   6.999   5.995  0.3347 -0.4949 -0.0210
 9292SOL    HW134734   8.887   6.991   5.961 -1.1202  0.9316  3.0012
 9292SOL    HW234735   8.979   6.939   6.069  1.6326  0.0216  0.3878
 9293SOL     OW34736   6.494  11.571  12.512 -1.1006  0.5771 -0.2726
 9293SOL    HW134737   6.589  11.574  12.522 -1.1316  0.8516 -0.0512
 9293SOL    HW234738   6.478  11.609  12.425 -0.8719 -1.3516 -1.1988
 9294SOL     OW34739   4.269   7.770  11.138  0.1527 -0.0275  0.6145
 9294SOL    HW134740   4.317   7.842  11.180  2.1573 -0.9571  0.0181
 9294SOL    HW234741   4.321   7.692  11.157 -0.1050 -0.8213 -1.6263
 9295SOL     OW34742   1.838   6.119   5.104  0.2782  0.6913 -0.4301
 9295SOL    HW134743   1.764   6.140   5.047 -0.3734  0.0763  0.1715
 9295SOL    HW234744   1.855   6.026   5.088  1.3157  0.9625 -0.9967
 9296SOL     OW34745   5.597   1.320  11.275 -0.1984  0.1260 -0.3188
 9296SOL    HW134746   5.561   1.344  11.360 -0.2014  0.4487 -0.4101
 9296SOL    HW234747   5.545   1.370  11.212 -1.6040 -1.6865 -0.6607
 9297SOL     OW34748   6.734   4.745  11.220  0.3675  0.4087 -0.4943
 9297SOL    HW134749   6.720   4.793  11.301 -0.3425 -0.2173 -0.2257
 9297SOL    HW234750   6.683   4.665  11.231 -0.1402  0.5312 -1.7484
 9298SOL     OW34751   2.424   0.708   8.733 -0.0977 -0.0845  0.0063
 9298SOL    HW134752   2.440   0.615   8.747  1.2153 -0.3074 -2.4555
 9298SOL    HW234753   2.511   0.748   8.734 -0.7099  1.5467  2.9339
 9299SOL     OW34754   7.614   1.358   7.058  0.1627  0.1497  0.7079
 9299SOL    HW134755   7.540   1.419   7.052  0.6857  0.6833 -0.7438
 9299SOL    HW234756   7.574   1.275   7.085 -0.9640  0.4597  0.0789
 9300SOL     OW34757   7.129   7.057   7.439  0.4842 -0.3478 -0.2873
 9300SOL    HW134758   7.069   7.002   7.389  0.4392 -0.5707  0.0112
 9300SOL    HW234759   7.175   6.996   7.498 -0.8603  0.1479  1.3594
 9301SOL     OW34760   5.113   8.830   2.323  0.3487 -0.2056  0.0454
 9301SOL    HW134761   5.053   8.882   2.269  1.6319  0.4245 -0.8347
 9301SOL    HW234762   5.142   8.890   2.392  0.1118 -0.4554  0.3670
 9302SOL     OW34763   3.643   9.985   5.110 -0.5616  0.0497 -0.3651
 9302SOL    HW134764   3.609  10.071   5.083 -0.2054 -0.1374 -1.4876
 9302SOL    HW234765   3.661   9.940   5.027  0.6113 -0.5698  0.2097
 9303SOL     OW34766  10.657  10.219   2.184  0.8680 -0.3094 -0.3641
 9303SOL    HW134767  10.654  10.256   2.272  0.2152 -0.3682 -0.3607
 9303SOL    HW234768  10.577  10.249   2.143  0.2007 -1.9097 -0.2830
 9304SOL     OW34769   0.173   4.987   6.476  0.0724  0.0200 -0.2958
 9304SOL    HW134770   0.250   5.031   6.512  1.1257 -1.0347 -1.1771
 9304SOL    HW234771   0.200   4.959   6.389 -2.2115  2.0166 -1.7762
 9305SOL     OW34772   2.034   0.961   5.969 -0.1200  0.1719 -0.3692
 9305SOL    HW134773   2.115   1.010   5.958  0.1676 -0.2516 -0.1739
 9305SOL    HW234774   1.965   1.020   5.938  0.2069  0.7299 -0.0437
 9306SOL     OW34775   3.680   8.896   3.766 -0.4263  0.0817  0.2507
 9306SOL    HW134776   3.652   8.985   3.786  1.0713  0.7193 -0.3413
 9306SOL    HW234777   3.747   8.877   3.832 -0.2842 -0.3607 -0.0217
 9307SOL     OW34778  10.755   5.609  11.855 -0.0600 -0.4458  0.3381
 9307SOL    HW134779  10.774   5.676  11.790 -0.9829 -0.4740  0.0125
 9307SOL    HW234780  10.839   5.570  11.877  0.1534 -1.2082 -1.6910
 9308SOL     OW34781   4.917   2.026   3.846 -0.0013 -0.3750  0.0094
 9308SOL    HW134782   4.884   2.098   3.793  3.0474  0.7237 -0.6095
 9308SOL    HW234783   4.935   2.065   3.932 -0.7743 -1.0747  0.5076
 9309SOL     OW34784   2.665   0.404   4.999  0.3589  0.2643  0.2149
 9309SOL    HW134785   2.688   0.366   5.084 -1.0112 -2.3581 -0.4593
 9309SOL    HW234786   2.603   0.341   4.961  1.4943  0.9052 -3.0345
 9310SOL     OW34787   5.866   3.873   1.943  0.6983  0.2941 -0.0277
 9310SOL    HW134788   5.796   3.847   2.003 -0.6176  2.4373 -0.4918
 9310SOL    HW234789   5.902   3.790   1.910 -0.9535 -0.8928  0.9956
 9311SOL     OW34790  11.304   2.078   9.823 -0.2503 -0.2036  0.2635
 9311SOL    HW134791  11.300   1.983   9.813 -1.5792 -0.1033 -0.4040
 9311SOL    HW234792  11.365   2.107   9.755 -0.9685 -0.4702 -0.5173
 9312SOL     OW34793  10.978  10.065   3.209 -0.3430 -0.1220  0.2529
 9312SOL    HW134794  11.036  10.082   3.134 -0.8414 -1.8755 -0.5712
 9312SOL    HW234795  10.990   9.972   3.228  1.6648  0.7181  4.0315
 9313SOL     OW34796  10.432   2.776   3.603 -0.0179  0.0161 -0.3158
 9313SOL    HW134797  10.401   2.737   3.684  0.9061 -1.9590 -0.8626
 9313SOL    HW234798  10.477   2.856   3.631  0.9963 -1.0326  1.2465
 9314SOL     OW34799   7.979   6.198   2.682  0.6171 -0.4223  0.8753
 9314SOL    HW134800   7.891   6.172   2.710  0.8074 -1.9383  0.1352
 9314SOL    HW234801   8.035   6.124   2.706  1.2418 -0.6271 -1.0412
 9315SOL     OW34802   1.575   9.661   2.003  0.7568 -0.1173 -0.3818
 9315SOL    HW134803   1.592   9.734   2.062  0.4368 -1.1380  1.0476
 9315SOL    HW234804   1.532   9.700   1.927  0.6997  1.1788  0.2949
 9316SOL     OW34805   3.623   1.734   0.885 -0.1006  0.1001  0.7805
 9316SOL    HW134806   3.665   1.738   0.971 -0.2012  1.0347  0.7991
 9316SOL    HW234807   3.694   1.713   0.824 -0.2095 -1.6358  1.1935
 9317SOL     OW34808   9.585   9.494   7.700 -0.8253 -0.4952 -0.2072
 9317SOL    HW134809   9.590   9.545   7.618 -3.9017  1.1852  0.4656
 9317SOL    HW234810   9.635   9.415   7.683  0.6343  0.8748 -2.8665
 9318SOL     OW34811  10.372   5.374   5.104  0.4951 -0.3479  0.5194
 9318SOL    HW134812  10.375   5.466   5.079  0.3558 -0.1386  1.2592
 9318SOL    HW234813  10.310   5.370   5.177  0.1531 -1.0986  0.2076
 9319SOL     OW34814   7.651   7.016  10.150  0.5043 -0.3727 -0.0625
 9319SOL    HW134815   7.746   7.029  10.156  0.6724 -1.7659  1.2633
 9319SOL    HW234816   7.638   6.926  10.183 -1.3192 -0.0125  0.2999
 9320SOL     OW34817   2.414   9.382   2.331 -0.5162 -0.2398 -0.3649
 9320SOL    HW134818   2.412   9.462   2.279 -0.3443  0.3546  0.5094
 9320SOL    HW234819   2.402   9.413   2.421 -0.9816 -1.2531 -0.0717
 9321SOL     OW34820   2.461   8.641  12.113  0.0656 -0.1375  0.1173
 9321SOL    HW134821   2.541   8.612  12.070  0.4891 -0.5942  1.1685
 9321SOL    HW234822   2.392   8.630  12.047  1.0999  1.9477 -1.4199
 9322SOL     OW34823  11.614   3.252  10.088  0.3568 -0.2570  0.6592
 9322SOL    HW134824  11.611   3.322  10.022 -0.1251 -0.0110  0.9362
 9322SOL    HW234825  11.668   3.286  10.158 -0.9440  0.3791  1.3887
 9323SOL     OW34826   5.736   6.280   4.331 -0.3020  0.2802 -0.4520
 9323SOL    HW134827   5.643   6.267   4.316 -0.2637 -0.3963 -0.1283
 9323SOL    HW234828   5.776   6.266   4.245 -0.1715 -2.7751 -0.0272
 9324SOL     OW34829   5.793   5.677  10.766  0.3163  0.3904 -0.2975
 9324SOL    HW134830   5.776   5.583  10.757 -1.4606  0.7978 -2.1213
 9324SOL    HW234831   5.807   5.690  10.859  1.1413 -1.7510 -0.0639
 9325SOL     OW34832   2.265   5.373  10.924  0.4598 -0.0886  0.2899
 9325SOL    HW134833   2.196   5.438  10.941  0.0666 -0.5005  0.2870
 9325SOL    HW234834   2.346   5.417  10.950  0.2594  0.5955 -0.2059
 9326SOL     OW34835   9.909   8.373   7.947 -0.0010  0.3311 -0.2244
 9326SOL    HW134836   9.864   8.419   8.017 -1.8554  0.2060 -1.2932
 9326SOL    HW234837   9.890   8.423   7.868  2.6666  0.8988 -0.6163
 9327SOL     OW34838  10.048   6.442  11.190  0.0653 -0.9665  0.0240
 9327SOL    HW134839   9.959   6.462  11.220  0.1658  1.3795 -1.0146
 9327SOL    HW234840  10.039   6.435  11.095  0.7847 -2.1461  0.0217
 9328SOL     OW34841  11.361   6.538   8.021  0.3550 -0.0334 -0.2306
 9328SOL    HW134842  11.319   6.453   8.005  1.1991 -0.7028  0.9328
 9328SOL    HW234843  11.442   6.516   8.067  0.0376  1.4564  1.1446
 9329SOL     OW34844   0.864  11.444  11.580  0.0694  0.0622  0.1373
 9329SOL    HW134845   0.801  11.421  11.512 -1.3354  0.0983  1.3690
 9329SOL    HW234846   0.811  11.456  11.659  1.2140  3.2919  0.5608
 9330SOL     OW34847   8.579   3.314   8.309 -0.5384 -0.0070 -0.2751
 9330SOL    HW134848   8.592   3.370   8.386 -0.2397  1.3852 -1.3064
 9330SOL    HW234849   8.666   3.278   8.291 -0.1685  1.2666 -1.1371
 9331SOL     OW34850   1.742   2.610   4.863 -0.2485 -0.0839 -0.0218
 9331SOL    HW134851   1.666   2.642   4.912  0.9623  2.3534  0.4526
 9331SOL    HW234852   1.801   2.575   4.929  0.2171  0.6803 -0.0104
 9332SOL     OW34853   9.373   0.780   1.508 -0.4037  0.2213  0.1799
 9332SOL    HW134854   9.440   0.719   1.537 -1.6143 -0.0802  2.6245
 9332SOL    HW234855   9.420   0.862   1.493  0.7387 -0.4328  0.0662
 9333SOL     OW34856  10.868  11.886   3.291 -0.0229 -0.1629 -0.2041
 9333SOL    HW134857  10.953  11.842   3.293 -0.0338 -0.4316 -2.6638
 9333SOL    HW234858  10.858  11.915   3.200 -2.0662  0.8728  0.2898
 9334SOL     OW34859   5.420   3.388   6.379  0.3564  0.0625  0.0644
 9334SOL    HW134860   5.419   3.434   6.462 -0.3533 -0.7378  0.5156
 9334SOL    HW234861   5.508   3.402   6.344  0.3969  1.0668  0.5617
 9335SOL     OW34862   4.645   8.920   0.285  0.3935  0.6509 -0.6910
 9335SOL    HW134863   4.651   9.010   0.254  1.1711  0.7993 -0.1309
 9335SOL    HW234864   4.703   8.870   0.226  0.9222  0.7300 -0.2464
 9336SOL     OW34865   7.779   5.616   6.087 -0.5156 -0.0371  0.4845
 9336SOL    HW134866   7.765   5.706   6.117  1.0182  0.3609  0.0681
 9336SOL    HW234867   7.870   5.614   6.058 -0.0193 -2.1446  1.9461
 9337SOL     OW34868   9.548   9.841   9.243  0.3662  0.7197 -0.4234
 9337SOL    HW134869   9.574   9.783   9.171  1.2959  0.1432  0.3648
 9337SOL    HW234870   9.453   9.853   9.230  0.5747  0.9839 -1.9855
 9338SOL     OW34871   0.676   1.222   8.101  0.5066 -0.6870 -0.3489
 9338SOL    HW134872   0.622   1.154   8.061 -1.3163  0.3754  0.2063
 9338SOL    HW234873   0.632   1.243   8.184  0.4551  1.7801 -0.9157
 9339SOL     OW34874  10.155   5.448   4.565  0.0959  0.4569  0.2305
 9339SOL    HW134875  10.062   5.460   4.551  0.4093  0.9000 -1.6540
 9339SOL    HW234876  10.188   5.535   4.588  0.2532  0.5637 -0.3976
 9340SOL     OW34877   3.837   2.278   6.454  0.1342  0.5969 -0.2348
 9340SOL    HW134878   3.901   2.227   6.405  0.4263 -0.3831  1.1092
 9340SOL    HW234879   3.869   2.277   6.544 -0.4042  2.3057  0.0274
 9341SOL     OW34880   3.841  12.563   7.864  0.4679 -0.2092  0.2256
 9341SOL    HW134881   3.849  12.575   7.769  0.8720 -1.9496 -0.0100
 9341SOL    HW234882   3.850  12.468   7.876 -0.3457 -0.1060  1.9358
 9342SOL     OW34883   5.045  11.280   1.734 -0.4250 -0.0476 -0.1154
 9342SOL    HW134884   5.064  11.360   1.685  1.5394 -0.4351 -0.1087
 9342SOL    HW234885   5.042  11.308   1.825 -0.0614  0.0768 -0.1389
 9343SOL     OW34886   2.572   8.431   0.284  0.1714  0.1075 -0.6033
 9343SOL    HW134887   2.513   8.467   0.218  0.7301  0.0623 -1.1388
 9343SOL    HW234888   2.657   8.468   0.263  0.7370 -1.4021 -1.0843
 9344SOL     OW34889   0.318   4.773   0.923  0.2824  0.0367  0.1282
 9344SOL    HW134890   0.297   4.783   0.830 -0.1436  1.2394  0.3248
 9344SOL    HW234891   0.382   4.842   0.940 -0.7783  0.8325  1.0443
 9345SOL     OW34892  10.832   8.266   8.492  0.0344 -0.1987  0.2853
 9345SOL    HW134893  10.754   8.260   8.547  0.9254  0.3220  1.6610
 9345SOL    HW234894  10.801   8.248   8.404 -1.6767  0.2276  0.7722
 9346SOL     OW34895  10.011   5.395   4.815 -0.3507 -0.1067  0.6338
 9346SOL    HW134896  10.094   5.416   4.773 -0.3951 -1.3170 -0.0868
 9346SOL    HW234897   9.972   5.327   4.760 -0.3753 -1.8234  2.6679
 9347SOL     OW34898   2.062   2.028   6.652 -0.2707 -0.1093 -0.3120
 9347SOL    HW134899   2.120   1.973   6.600  0.4510  1.1800 -0.8922
 9347SOL    HW234900   2.075   2.116   6.619 -1.4973  0.4182  0.5259
 9348SOL     OW34901   0.566   9.646   9.876  0.4531 -0.4827  0.0874
 9348SOL    HW134902   0.494   9.709   9.881  1.6997  1.1788 -1.4178
 9348SOL    HW234903   0.627   9.675   9.944 -0.0254 -1.5852  1.0222
 9349SOL     OW34904   2.881   7.490  11.810  0.1092 -0.0383  0.2147
 9349SOL    HW134905   2.876   7.567  11.866  0.3246  0.0696  0.0866
 9349SOL    HW234906   2.971   7.460  11.818 -0.0051 -0.3419  0.3499
 9350SOL     OW34907  11.019   8.096   3.797 -0.4703 -0.0583  0.0469
 9350SOL    HW134908  11.023   8.189   3.775 -1.1639  0.0027  0.1673
 9350SOL    HW234909  11.111   8.067   3.795 -0.0675  0.9877  1.5742
 9351SOL     OW34910   9.476   3.996   8.169  0.7061 -0.3627 -0.0410
 9351SOL    HW134911   9.557   4.042   8.191  0.0759  0.2026  1.2370
 9351SOL    HW234912   9.415   4.019   8.239 -1.0326  0.3723 -1.6888
 9352SOL     OW34913   6.295   3.868   5.638  0.4591  0.4671  0.2798
 9352SOL    HW134914   6.275   3.775   5.642  0.8962  0.4046  1.5909
 9352SOL    HW234915   6.316   3.885   5.546  1.1132 -0.8752  0.1635
 9353SOL     OW34916   3.021  11.703   7.883  0.0531 -0.0624 -0.0683
 9353SOL    HW134917   3.053  11.712   7.793  0.6201  0.4780  0.1793
 9353SOL    HW234918   3.047  11.614   7.908 -1.3062 -0.7276 -0.8865
 9354SOL     OW34919  11.940   7.653   5.986  0.4844 -0.2227 -0.6278
 9354SOL    HW134920  11.901   7.593   6.049  0.6694  0.8412  0.5450
 9354SOL    HW234921  11.890   7.734   5.995  1.8832  0.6487 -0.2677
 9355SOL     OW34922   2.273  11.904  10.711 -0.8496 -0.4114 -0.2172
 9355SOL    HW134923   2.311  11.845  10.645  0.2024 -0.4649  0.4237
 9355SOL    HW234924   2.333  11.979  10.714 -1.6293  0.2288 -0.2895
 9356SOL     OW34925   4.966   0.194   9.732  0.1827 -0.3564 -0.9012
 9356SOL    HW134926   5.017   0.127   9.778 -0.3924 -0.7222 -0.7793
 9356SOL    HW234927   5.030   0.241   9.679  0.9697  0.4728  0.7134
 9357SOL     OW34928   7.348   8.623   9.495 -0.0979  0.0087 -0.3821
 9357SOL    HW134929   7.392   8.687   9.550 -3.2767 -0.3719  2.9635
 9357SOL    HW234930   7.300   8.675   9.430 -0.9361  0.9423  0.9505
 9358SOL     OW34931   4.227   0.955   8.894  0.0928  0.6732  0.3129
 9358SOL    HW134932   4.238   0.922   8.805  1.5776 -0.4529  0.8723
 9358SOL    HW234933   4.142   0.920   8.922  0.6271 -0.8681  0.1008
 9359SOL     OW34934   6.216   2.642  12.252  0.0365 -0.1009 -0.7001
 9359SOL    HW134935   6.254   2.554  12.261 -1.2406 -0.5915  0.2153
 9359SOL    HW234936   6.122   2.628  12.261 -0.0685  1.6116  2.0595
 9360SOL     OW34937   7.986   9.201   4.076  0.0750  0.5789 -0.4189
 9360SOL    HW134938   7.947   9.255   4.007 -0.0444  1.1686  0.0977
 9360SOL    HW234939   7.928   9.126   4.083 -1.9160  2.1545  1.3656
 9361SOL     OW34940   6.202  11.714   0.758 -0.0024 -0.2014 -0.2450
 9361SOL    HW134941   6.145  11.649   0.717 -0.0372 -0.9058  0.8716
 9361SOL    HW234942   6.285  11.668   0.769  0.1975  0.1925 -0.1144
 9362SOL     OW34943   9.749   0.348   3.932  0.4085 -0.2461 -0.1797
 9362SOL    HW134944   9.686   0.312   3.869 -0.5484  0.6995  0.2082
 9362SOL    HW234945   9.795   0.272   3.966 -1.4816 -1.1301  0.5405
 9363SOL     OW34946   0.405   3.933   8.679  0.4926  0.0700 -0.3958
 9363SOL    HW134947   0.492   3.902   8.654  0.0072  0.1616 -2.3441
 9363SOL    HW234948   0.414   3.959   8.771  2.8054  1.1302 -0.8653
 9364SOL     OW34949   8.987   6.205   0.709 -0.3368 -0.0667  0.0593
 9364SOL    HW134950   8.911   6.246   0.668  0.8024  1.2348 -0.8757
 9364SOL    HW234951   9.007   6.130   0.652 -2.1654 -1.7890  1.5313
 9365SOL     OW34952   0.717   7.197   2.452  0.6693 -0.0990  0.2817
 9365SOL    HW134953   0.653   7.127   2.440  0.6875  0.0438 -0.7349
 9365SOL    HW234954   0.786   7.159   2.506  1.0701 -1.1079 -0.9161
 9366SOL     OW34955   0.668   2.012   5.363  0.1439  0.3633  0.4582
 9366SOL    HW134956   0.610   2.066   5.417 -0.3633  0.3250 -0.0389
 9366SOL    HW234957   0.618   1.997   5.283  1.4244  1.5727 -0.6109
 9367SOL     OW34958   8.503  12.028  11.564 -0.3473 -0.4655  0.1929
 9367SOL    HW134959   8.468  12.101  11.614 -0.5714 -0.4806  0.0594
 9367SOL    HW234960   8.598  12.041  11.566 -0.2217 -1.3545  1.9904
 9368SOL     OW34961  10.971   9.514   6.174 -0.3714 -0.3158  0.1245
 9368SOL    HW134962  11.027   9.441   6.200  0.9071  0.3867 -0.5557
 9368SOL    HW234963  10.937   9.549   6.256  0.9059 -0.2150  0.6318
 9369SOL     OW34964   0.848   4.147   6.007 -0.3133 -0.6934 -0.5776
 9369SOL    HW134965   0.932   4.174   5.970 -0.3434 -0.4447 -0.4685
 9369SOL    HW234966   0.784   4.207   5.969 -0.3772 -0.5886 -0.3087
 9370SOL     OW34967   0.662   5.572   1.669 -0.5707  0.0142 -0.3125
 9370SOL    HW134968   0.694   5.507   1.606 -0.6662 -2.9252  2.4064
 9370SOL    HW234969   0.586   5.530   1.710 -0.6320  1.8485  1.6055
 9371SOL     OW34970   1.067   6.148   5.440  0.2140 -0.1615 -0.1633
 9371SOL    HW134971   1.104   6.061   5.450  0.1697 -0.3451 -1.4239
 9371SOL    HW234972   1.038   6.173   5.528  0.2664 -1.3884  0.2136
 9372SOL     OW34973   1.074   6.360  10.867 -0.7177 -0.0241  0.4843
 9372SOL    HW134974   1.078   6.290  10.932  2.0293 -1.7235 -1.3278
 9372SOL    HW234975   1.143   6.421  10.893 -3.3166  2.4452  2.2645
 9373SOL     OW34976   3.143   4.486   3.444 -0.4083  0.3817  0.0758
 9373SOL    HW134977   3.175   4.572   3.415 -3.0558  1.4358 -0.0895
 9373SOL    HW234978   3.220   4.429   3.442  1.0521  2.2482 -1.7909
 9374SOL     OW34979   8.999   1.807   3.606  0.2117  0.0394 -0.2362
 9374SOL    HW134980   8.971   1.898   3.618  0.5831 -0.1328  2.9153
 9374SOL    HW234981   8.959   1.780   3.524 -0.7642  2.7204 -0.7517
 9375SOL     OW34982  12.351   7.987  11.513 -0.4568 -0.2605 -0.0986
 9375SOL    HW134983  12.418   7.920  11.496 -0.2137 -0.5242  1.7720
 9375SOL    HW234984  12.389   8.068  11.478  1.1904 -0.2551  1.5525
 9376SOL     OW34985   5.364   3.153  11.917  0.0295  0.1499 -0.2582
 9376SOL    HW134986   5.385   3.060  11.921  1.1469  0.3961 -0.0596
 9376SOL    HW234987   5.315   3.163  11.836  0.1893 -0.5638 -0.4498
 9377SOL     OW34988   8.401   6.192   5.003 -0.1086 -0.0513  0.0413
 9377SOL    HW134989   8.442   6.252   4.941  0.0023  1.8620  1.8854
 9377SOL    HW234990   8.315   6.174   4.965  0.6091 -0.4086 -1.5410
 9378SOL     OW34991  12.004   5.202   1.370  0.1916  0.2390 -0.6377
 9378SOL    HW134992  12.056   5.206   1.450  0.5857 -2.6516 -0.6716
 9378SOL    HW234993  12.056   5.149   1.310  0.6000  3.4207 -3.4588
 9379SOL     OW34994   1.580   8.303   5.211 -0.2515 -0.1343 -0.3578
 9379SOL    HW134995   1.562   8.397   5.216  0.0120 -0.1433  1.2264
 9379SOL    HW234996   1.579   8.273   5.302  1.7460 -1.2725 -0.6520
 9380SOL     OW34997   8.580   5.833   3.863 -0.3058 -0.3039  0.7562
 9380SOL    HW134998   8.517   5.762   3.874  0.3755 -0.6376  3.0602
 9380SOL    HW234999   8.526   5.910   3.847 -1.1065 -1.1104 -0.6885
 9381SOL     OW35000   1.024   5.277   6.967 -0.1258  0.0570  0.4066
 9381SOL    HW135001   1.055   5.358   6.926  1.2508  0.0911  1.4708
 9381SOL    HW235002   1.008   5.300   7.058  1.4121 -1.1179  1.0094
 9382SOL     OW35003   2.785   7.573   2.579  0.1774  0.5789  0.1094
 9382SOL    HW135004   2.761   7.623   2.657 -1.3798  0.6535 -0.3687
 9382SOL    HW235005   2.873   7.540   2.597 -0.9649 -1.3237  2.9047
 9383SOL     OW35006   6.724   2.068   4.902  0.0532 -0.4624  0.1672
 9383SOL    HW135007   6.655   2.020   4.948 -0.4821  0.4751  0.3668
 9383SOL    HW235008   6.700   2.160   4.912  0.5365 -0.1864 -1.0298
 9384SOL     OW35009   4.453  11.129   6.054  0.3073 -0.3118  0.0848
 9384SOL    HW135010   4.459  11.194   5.984  0.5349  0.0204  0.4116
 9384SOL    HW235011   4.390  11.166   6.116  1.2669  0.1238  0.8211
 9385SOL     OW35012   4.677  12.049   3.435 -0.2733  0.5310 -0.5305
 9385SOL    HW135013   4.655  12.109   3.506 -0.9284  0.4682 -0.6691
 9385SOL    HW235014   4.711  12.105   3.365  0.1769  0.6138 -0.2421
 9386SOL     OW35015  10.759   6.491  10.960  0.3892 -0.2783 -0.4308
 9386SOL    HW135016  10.793   6.577  10.937  0.1745  0.2428  1.0823
 9386SOL    HW235017  10.827   6.429  10.934  0.4446  0.3164 -1.7448
 9387SOL     OW35018   1.434   0.627   6.430  0.1480  0.0201 -0.5100
 9387SOL    HW135019   1.399   0.672   6.507  1.1373 -1.3933  0.8216
 9387SOL    HW235020   1.457   0.698   6.369 -4.5522  1.1298 -1.4289
 9388SOL     OW35021   1.804   2.469   3.023 -0.0012  0.1684  0.2713
 9388SOL    HW135022   1.809   2.482   3.118  1.2750 -0.2053  0.2770
 9388SOL    HW235023   1.784   2.376   3.013 -0.8378  0.3521  0.1684
 9389SOL     OW35024  11.332   4.163   1.335  0.6484 -0.4182  0.2599
 9389SOL    HW135025  11.331   4.160   1.431 -2.0150  2.8247  0.5111
 9389SOL    HW235026  11.337   4.071   1.308  1.1162 -1.4598  3.4634
 9390SOL     OW35027   8.023  11.341   4.819  0.2961  0.2224 -0.0948
 9390SOL    HW135028   8.088  11.320   4.886  0.0217 -0.2215  0.0397
 9390SOL    HW235029   8.073  11.341   4.737  0.6229  0.7190  0.1018
 9391SOL     OW35030   7.703   9.013   5.124  0.3119  0.3004 -0.2339
 9391SOL    HW135031   7.744   9.082   5.176 -0.3832 -0.0786  0.8702
 9391SOL    HW235032   7.633   9.058   5.076  0.5517  0.5517 -0.3472
 9392SOL     OW35033   6.183   3.211  10.100  0.1757  0.0832 -0.2767
 9392SOL    HW135034   6.233   3.186  10.022 -1.6535 -0.4492 -1.3233
 9392SOL    HW235035   6.218   3.156  10.170  2.4593  1.1871 -0.4654
 9393SOL     OW35036  12.259   6.614   8.070  0.1187  0.2040 -0.2208
 9393SOL    HW135037  12.334   6.665   8.102  0.7427 -1.7510  1.6026
 9393SOL    HW235038  12.294   6.565   7.995  0.4632 -0.1542  0.1747
 9394SOL     OW35039   2.465   4.648   6.946 -0.0954 -0.4285  0.0753
 9394SOL    HW135040   2.496   4.567   6.906 -1.7948 -0.7536 -0.6817
 9394SOL    HW235041   2.500   4.718   6.889  3.9493 -0.2669  2.3748
 9395SOL     OW35042   2.393   8.599   4.590  0.1592 -0.3056 -0.4101
 9395SOL    HW135043   2.375   8.598   4.684 -0.0313 -0.9792 -0.4482
 9395SOL    HW235044   2.480   8.559   4.581 -0.4611 -1.7017 -0.6273
 9396SOL     OW35045   2.061  11.546   5.604  0.0139  0.1357  0.1587
 9396SOL    HW135046   2.154  11.565   5.604  0.4656 -1.5998  2.3104
 9396SOL    HW235047   2.031  11.570   5.517  2.4736  0.6889 -0.6058
 9397SOL     OW35048   5.441   4.361   2.132  0.5525  0.3383  0.3277
 9397SOL    HW135049   5.351   4.372   2.101  0.6715  1.8262  0.4527
 9397SOL    HW235050   5.494   4.359   2.052  0.3572 -1.5598  0.1913
 9398SOL     OW35051   9.876   9.294  12.407 -0.0636 -0.0039  0.2640
 9398SOL    HW135052   9.895   9.202  12.428  2.0228  0.2305 -0.2989
 9398SOL    HW235053   9.955   9.341  12.435 -0.0169  1.2418 -1.7684
 9399SOL     OW35054   7.804   2.990  10.884  0.0656 -0.1536  0.2953
 9399SOL    HW135055   7.765   3.060  10.833 -1.0226  1.1244  2.7150
 9399SOL    HW235056   7.783   2.910  10.836 -2.2640  0.8423 -0.4456
 9400SOL     OW35057   4.163  12.018   4.589  0.4082 -0.3665  0.8726
 9400SOL    HW135058   4.068  12.014   4.580  0.0797  2.5177  2.0276
 9400SOL    HW235059   4.178  12.022   4.684  1.8047 -1.9169  0.7729
 9401SOL     OW35060   6.248   2.138   0.228 -0.6728  0.1395 -0.0756
 9401SOL    HW135061   6.190   2.080   0.179 -0.5660 -0.2789  0.2780
 9401SOL    HW235062   6.270   2.088   0.307  2.0699 -0.7246 -1.2636
 9402SOL     OW35063   1.412   7.482  11.493 -0.2364  0.2807 -0.4409
 9402SOL    HW135064   1.463   7.463  11.415  1.1513 -0.6397  0.6437
 9402SOL    HW235065   1.366   7.400  11.512  0.0337  0.2600  0.1360
 9403SOL     OW35066   1.315   8.331  10.930  0.2550 -0.3770 -0.3278
 9403SOL    HW135067   1.234   8.350  10.977  0.6434 -2.1179  1.1964
 9403SOL    HW235068   1.376   8.302  10.999  1.2179 -1.9403 -1.7458
 9404SOL     OW35069   4.281   3.932   0.223  0.0417 -0.0097 -0.1574
 9404SOL    HW135070   4.336   4.008   0.206 -0.3589  0.8231  1.9606
 9404SOL    HW235071   4.334   3.876   0.279  1.0108 -2.2529 -3.0546
 9405SOL     OW35072  11.063   7.511   3.261  0.5982  0.2526  0.1283
 9405SOL    HW135073  11.074   7.460   3.181 -1.4000  0.0848 -0.0788
 9405SOL    HW235074  11.054   7.601   3.232  2.1949  0.5189  0.3642
 9406SOL     OW35075  11.882   3.803   3.569 -0.2845 -0.0513 -0.8112
 9406SOL    HW135076  11.817   3.783   3.501 -0.9815  0.9310 -0.4625
 9406SOL    HW235077  11.897   3.720   3.614 -1.4365 -0.2608 -0.7870
 9407SOL     OW35078   2.882   5.989  10.049 -0.7084  0.0237  0.2247
 9407SOL    HW135079   2.790   6.003  10.072 -0.1338  1.0453  2.1496
 9407SOL    HW235080   2.930   6.034  10.118  1.2539  0.4185 -1.3356
 9408SOL     OW35081  10.594  11.588   1.230  0.7720 -0.2843 -0.0119
 9408SOL    HW135082  10.596  11.668   1.282 -1.8674  0.1567 -0.4564
 9408SOL    HW235083  10.628  11.520   1.289  0.5907  0.7115  1.2685
 9409SOL     OW35084   2.209   7.948  11.303 -0.2236  0.1344  0.2077
 9409SOL    HW135085   2.197   7.935  11.209 -1.6333  0.1501  0.3586
 9409SOL    HW235086   2.121   7.966  11.335  0.5021  2.1270  1.2230
 9410SOL     OW35087   4.063   0.073   0.989  0.3990  0.1622  0.9135
 9410SOL    HW135088   4.109   0.138   1.041  0.2259 -0.0001  1.2792
 9410SOL    HW235089   3.983   0.056   1.039 -0.1188  0.5355  0.2257
 9411SOL     OW35090   8.704   2.950  10.267 -0.5461 -0.5002  0.5529
 9411SOL    HW135091   8.749   2.997  10.338  1.7763  2.3254 -2.4763
 9411SOL    HW235092   8.685   2.864  10.304  0.3973  0.7776  4.5846
 9412SOL     OW35093   6.161   9.585   6.702  0.0593  0.0060 -0.2874
 9412SOL    HW135094   6.088   9.602   6.762 -1.3658  0.3504 -2.0041
 9412SOL    HW235095   6.177   9.670   6.661  1.4793 -0.0681  0.0747
 9413SOL     OW35096   3.520  11.067   2.479  0.4085  0.2066 -0.7761
 9413SOL    HW135097   3.460  10.997   2.452  0.9319 -0.7594  0.4906
 9413SOL    HW235098   3.575  11.081   2.402 -0.0785 -0.3712 -1.2475
 9414SOL     OW35099  10.599   3.687   9.375 -0.0084  0.8571 -0.1763
 9414SOL    HW135100  10.526   3.654   9.427 -2.4691  3.0985 -1.8933
 9414SOL    HW235101  10.621   3.771   9.417  0.4961  0.9179 -0.5628
 9415SOL     OW35102   4.524   9.459   2.721  0.5618 -0.1617  0.5731
 9415SOL    HW135103   4.543   9.420   2.807  1.6239 -0.7945  0.0773
 9415SOL    HW235104   4.488   9.545   2.741  0.2289 -0.5331  1.6602
 9416SOL     OW35105   3.857   9.992   9.162 -0.0543  0.3791  0.1841
 9416SOL    HW135106   3.909   9.966   9.238 -1.3803  2.1361  1.7759
 9416SOL    HW235107   3.908   9.961   9.087  1.7748 -0.5845  1.7330
 9417SOL     OW35108   1.871   8.843  11.629  0.0539 -0.5587 -0.1956
 9417SOL    HW135109   1.963   8.858  11.647  0.0946  0.9177 -1.3767
 9417SOL    HW235110   1.857   8.881  11.542 -1.7473 -0.3607  0.1263
 9418SOL     OW35111   4.741   6.336   4.289  0.2874  0.7264  0.1373
 9418SOL    HW135112   4.730   6.314   4.382  4.4549 -0.1943  0.6033
 9418SOL    HW235113   4.661   6.304   4.248 -0.7274 -1.0035  3.1061
 9419SOL     OW35114  11.440   6.251   2.096  0.5305  0.4715  0.7196
 9419SOL    HW135115  11.500   6.279   2.166 -0.7801  2.1176  1.2569
 9419SOL    HW235116  11.436   6.326   2.037  0.4071 -0.3306 -0.3084
 9420SOL     OW35117   8.361   9.994   4.803  0.0408 -0.0572 -0.2005
 9420SOL    HW135118   8.279   9.972   4.848  0.7387 -1.0639  0.6044
 9420SOL    HW235119   8.334  10.056   4.735 -1.8688 -2.4200 -1.8155
 9421SOL     OW35120   1.872  10.204   1.682 -0.2724 -0.6782  0.3631
 9421SOL    HW135121   1.879  10.278   1.622 -0.1584  1.3457  2.6997
 9421SOL    HW235122   1.938  10.142   1.651  0.2443  0.5604 -1.1800
 9422SOL     OW35123   1.478   8.959   3.289  0.1966 -0.0809  0.2110
 9422SOL    HW135124   1.564   8.974   3.249  1.1264  0.6582  2.3746
 9422SOL    HW235125   1.442   9.047   3.301 -1.2122 -0.4052 -1.2970
 9423SOL     OW35126   9.469   2.046   3.051  0.4657 -0.4277 -0.0275
 9423SOL    HW135127   9.441   1.957   3.029 -0.2918  0.1891 -1.7341
 9423SOL    HW235128   9.496   2.040   3.143 -0.4691 -2.1956  0.1918
 9424SOL     OW35129   4.896   3.572   5.676 -0.0073  0.3437  0.4751
 9424SOL    HW135130   4.827   3.638   5.679 -0.4602 -0.1447  1.1949
 9424SOL    HW235131   4.894   3.532   5.763  1.6802  0.8296  0.7777
 9425SOL     OW35132   3.055   7.430   4.588 -0.0003  0.2271 -0.1549
 9425SOL    HW135133   3.079   7.489   4.660 -0.3042  0.5745 -0.3327
 9425SOL    HW235134   3.038   7.346   4.630  0.9943  0.1059  0.0403
 9426SOL     OW35135   8.078   8.722   3.343  0.9069 -0.1435 -0.3959
 9426SOL    HW135136   8.062   8.632   3.314  0.8998 -1.1302  2.3476
 9426SOL    HW235137   7.991   8.756   3.364  1.1283 -0.8392  1.9567
 9427SOL     OW35138   5.528   3.947   3.266 -0.3041  0.5635 -0.0209
 9427SOL    HW135139   5.485   3.903   3.339 -0.8479  2.5878  0.9566
 9427SOL    HW235140   5.621   3.945   3.288 -0.1744 -1.0218 -0.5628
 9428SOL     OW35141   8.697   2.907   3.807  0.7885  0.6334  0.0379
 9428SOL    HW135142   8.672   2.986   3.760  1.7798 -0.4532 -2.4781
 9428SOL    HW235143   8.667   2.835   3.752 -0.1189 -0.8272  2.2728
 9429SOL     OW35144   4.267   8.993   7.510  0.0669  0.0530 -0.4952
 9429SOL    HW135145   4.241   9.083   7.529 -0.8618 -0.0613 -1.1808
 9429SOL    HW235146   4.357   8.987   7.543  0.0727  1.1671 -0.2632
 9430SOL     OW35147   3.870   5.157   9.931 -0.4712  0.1893  0.1617
 9430SOL    HW135148   3.793   5.131   9.879  0.5546 -0.7849 -0.9301
 9430SOL    HW235149   3.838   5.158  10.021 -1.1132 -3.1879  0.1177
 9431SOL     OW35150   5.840   9.995   5.697  0.1593  0.2233 -0.0023
 9431SOL    HW135151   5.825  10.012   5.604 -0.9644 -1.8677 -0.2638
 9431SOL    HW235152   5.752   9.990   5.735  0.5935  0.5891  1.0847
 9432SOL     OW35153   7.398  12.160  11.316 -0.6725 -0.9960 -0.0243
 9432SOL    HW135154   7.407  12.205  11.401 -0.0677 -2.7563  0.8987
 9432SOL    HW235155   7.466  12.199  11.261 -2.0185  1.2255 -0.2471
 9433SOL     OW35156   5.955   8.903   3.485  0.3779 -0.3698 -0.0413
 9433SOL    HW135157   5.906   8.982   3.463  0.3707 -0.2359  0.4394
 9433SOL    HW235158   5.942   8.845   3.410 -1.0347 -0.5746  0.3319
 9434SOL     OW35159   2.786   2.711   7.168 -0.5168 -0.6392  0.8089
 9434SOL    HW135160   2.846   2.643   7.136 -1.3701 -1.2785  0.5301
 9434SOL    HW235161   2.759   2.757   7.089 -2.1206 -1.7981  0.6497
 9435SOL     OW35162   9.939   5.874   3.660 -0.2856 -0.2870 -0.8139
 9435SOL    HW135163   9.908   5.942   3.721 -1.0839 -2.6843  1.6649
 9435SOL    HW235164   9.859   5.840   3.620  0.2420  1.3841 -3.5362
 9436SOL     OW35165   1.059   8.667   2.111 -0.7779  0.1128 -0.3061
 9436SOL    HW135166   0.978   8.648   2.065 -0.4942  0.3922 -0.9424
 9436SOL    HW235167   1.116   8.592   2.092 -0.5821  0.3340 -0.6039
 9437SOL     OW35168   0.835   3.318  10.901  0.4454 -0.5897  0.2993
 9437SOL    HW135169   0.903   3.295  10.966  1.8788 -0.9525 -1.2627
 9437SOL    HW235170   0.837   3.246  10.838 -1.4908 -0.6463  0.2457
 9438SOL     OW35171   9.459   5.530   7.924 -0.0457 -0.6580  0.0369
 9438SOL    HW135172   9.452   5.623   7.902  1.9149  0.4274  3.3319
 9438SOL    HW235173   9.373   5.507   7.958 -0.3592  0.1426 -0.1849
 9439SOL     OW35174   5.773  11.075   2.745  0.2670 -0.1838  0.0713
 9439SOL    HW135175   5.833  11.091   2.672 -1.0724 -2.3163 -1.6161
 9439SOL    HW235176   5.819  11.011   2.800  1.1861  1.2668  1.0726
 9440SOL     OW35177  10.541   7.983   4.006  0.2623  0.4661  0.5340
 9440SOL    HW135178  10.543   7.889   3.989  2.7049  0.5627  0.0240
 9440SOL    HW235179  10.629   8.014   3.986 -0.1681  2.7023  1.6967
 9441SOL     OW35180   6.867  11.709   9.235 -0.0074  0.3248 -0.5189
 9441SOL    HW135181   6.824  11.794   9.246 -0.5083  0.1744 -1.2615
 9441SOL    HW235182   6.955  11.722   9.272 -1.3480 -0.0066  3.2630
 9442SOL     OW35183   1.083   4.534  11.088  0.0802 -0.0273  0.0430
 9442SOL    HW135184   1.069   4.564  10.998  1.3840 -0.4154 -0.3230
 9442SOL    HW235185   1.057   4.607  11.143  0.0928  0.5409 -0.6935
 9443SOL     OW35186   5.660   9.743   4.287  0.2280  0.1946  0.3443
 9443SOL    HW135187   5.609   9.684   4.342  0.1666  1.4291  1.6752
 9443SOL    HW235188   5.719   9.686   4.238  1.5091 -0.8665  2.9614
 9444SOL     OW35189   2.494   1.627   0.681 -0.3734  0.3974  0.0074
 9444SOL    HW135190   2.405   1.633   0.718 -0.1914 -0.2303  0.5834
 9444SOL    HW235191   2.486   1.665   0.594 -1.6539 -1.3135 -0.6932
 9445SOL     OW35192   9.422  10.501   9.467 -0.2298  0.2728  0.4591
 9445SOL    HW135193   9.369  10.477   9.543 -2.2681 -0.5210 -1.1253
 9445SOL    HW235194   9.380  10.580   9.433  1.7095  1.6441  1.0987
 9446SOL     OW35195  11.739   5.948   5.114 -0.0495 -0.4590 -0.4496
 9446SOL    HW135196  11.657   5.959   5.066  0.1123 -1.6445 -1.0335
 9446SOL    HW235197  11.788   5.884   5.062  1.4499  0.5835 -0.3642
 9447SOL     OW35198   2.344   6.539   4.692 -0.5931  0.2483  0.4979
 9447SOL    HW135199   2.306   6.472   4.749  0.1322 -0.5342  0.0898
 9447SOL    HW235200   2.438   6.519   4.691 -0.6103  0.0718 -1.1541
 9448SOL     OW35201   5.244  12.253  11.030 -0.0587 -0.2356 -0.4651
 9448SOL    HW135202   5.291  12.336  11.037  3.3192 -2.0124 -0.1313
 9448SOL    HW235203   5.199  12.242  11.114  1.8372 -0.0079  0.6252
 9449SOL     OW35204   0.781   0.864   9.908  0.0147  0.9593  0.1696
 9449SOL    HW135205   0.744   0.784   9.945  0.3666 -0.3207 -2.0552
 9449SOL    HW235206   0.869   0.869   9.946 -0.0070  0.2900  0.3211
 9450SOL     OW35207   2.025   3.786   5.505  0.6293  0.0012  0.3014
 9450SOL    HW135208   1.986   3.866   5.540 -1.8346 -1.4182  1.0029
 9450SOL    HW235209   2.022   3.723   5.577  3.0199 -0.6506 -0.0584
 9451SOL     OW35210   2.403   6.202   4.277 -0.0655 -0.2043  0.1704
 9451SOL    HW135211   2.482   6.163   4.241  0.2641 -0.4944  1.1887
 9451SOL    HW235212   2.362   6.133   4.329 -0.7275  0.0980  0.0744
 9452SOL     OW35213   7.829   9.559  10.485  0.8511 -0.1107  0.3642
 9452SOL    HW135214   7.856   9.473  10.516 -1.0917 -1.1385 -0.6188
 9452SOL    HW235215   7.897   9.584  10.422  1.6936 -0.6630  1.0224
 9453SOL     OW35216   7.799   4.696   5.601 -0.4616 -0.2838  0.2622
 9453SOL    HW135217   7.756   4.758   5.542 -0.7382 -1.1472 -0.4772
 9453SOL    HW235218   7.885   4.683   5.562 -1.0405 -1.7191 -0.6431
 9454SOL     OW35219  10.570   6.544   2.705  0.3255 -0.2841 -0.3713
 9454SOL    HW135220  10.496   6.501   2.662  0.4023  0.9554 -1.8465
 9454SOL    HW235221  10.544   6.636   2.710  1.4005  0.0150 -0.1111
 9455SOL     OW35222  11.952   9.317   7.263 -0.4705  0.6075 -0.6506
 9455SOL    HW135223  11.969   9.408   7.238 -0.7997  0.5767 -0.9998
 9455SOL    HW235224  11.989   9.265   7.191  0.5680  0.4176 -0.0007
 9456SOL     OW35225  12.358   9.647   1.107 -0.1575 -0.0557 -0.3090
 9456SOL    HW135226  12.385   9.621   1.195  0.2810 -1.1317 -0.7411
 9456SOL    HW235227  12.432   9.698   1.073  0.5696 -1.4094 -0.8033
 9457SOL     OW35228   2.968  11.212   1.296 -0.4132 -0.4196 -0.1749
 9457SOL    HW135229   2.944  11.243   1.383 -0.1044  0.2911 -0.3413
 9457SOL    HW235230   3.048  11.259   1.274 -1.2684  0.5296 -1.4459
 9458SOL     OW35231   7.250   5.329   7.300 -0.0863 -0.7013  0.8909
 9458SOL    HW135232   7.280   5.405   7.350  2.4539 -1.4352  0.6290
 9458SOL    HW235233   7.168   5.304   7.342 -1.0183  2.1594  0.9550
 9459SOL     OW35234   1.309   6.022   9.342  0.5473  0.6730 -0.0398
 9459SOL    HW135235   1.254   5.954   9.380 -0.9456  1.4824 -0.6388
 9459SOL    HW235236   1.304   6.095   9.404  1.6342  0.4719  0.3011
 9460SOL     OW35237   2.797  12.207   9.561  0.3133  0.4113  0.1769
 9460SOL    HW135238   2.760  12.225   9.475 -0.4020  1.4035  0.6852
 9460SOL    HW235239   2.838  12.289   9.587 -2.0683  1.0987  2.0585
 9461SOL     OW35240   1.179   1.189   8.686 -0.3356 -0.3655  0.5734
 9461SOL    HW135241   1.231   1.262   8.652  0.0870 -0.1099  1.7096
 9461SOL    HW235242   1.092   1.226   8.701 -0.0899 -0.0401  1.2640
 9462SOL     OW35243   2.525   1.790   8.861 -0.4172 -0.2658  0.2479
 9462SOL    HW135244   2.564   1.704   8.846  2.3554  1.0053 -0.4103
 9462SOL    HW235245   2.547   1.840   8.783  0.7080  1.9125  1.8708
 9463SOL     OW35246   0.974   5.767  10.210  0.1399 -0.3035  0.0780
 9463SOL    HW135247   0.963   5.731  10.299 -0.5198  2.7956  1.3716
 9463SOL    HW235248   0.914   5.841  10.207  1.9246  1.1720 -2.0966
 9464SOL     OW35249   6.415   4.575   0.469  0.0057  0.4555 -0.1534
 9464SOL    HW135250   6.325   4.572   0.502 -0.5137  0.0907 -1.5448
 9464SOL    HW235251   6.462   4.510   0.522 -1.0824 -0.9649 -0.8675
 9465SOL     OW35252   3.038   0.371  11.168  0.6055  0.2948 -0.3691
 9465SOL    HW135253   3.015   0.337  11.081  2.4041 -0.2126 -0.6856
 9465SOL    HW235254   2.971   0.336  11.226 -0.5328  0.4905 -1.5124
 9466SOL     OW35255  11.063   5.699   9.280  0.1428 -0.1399 -0.5736
 9466SOL    HW135256  11.071   5.718   9.187 -0.8315  0.0360 -0.6376
 9466SOL    HW235257  11.138   5.643   9.300  1.5283  1.4836 -0.9900
 9467SOL     OW35258   7.792   1.013   7.704 -0.1155  0.2753  0.7644
 9467SOL    HW135259   7.790   1.104   7.675 -1.9459  0.1640  0.4099
 9467SOL    HW235260   7.857   0.971   7.648  1.1431  1.4380  1.2869
 9468SOL     OW35261   3.646   8.352   3.411 -0.2647  0.0009 -0.0181
 9468SOL    HW135262   3.636   8.259   3.429 -2.0061  0.4591  1.6893
 9468SOL    HW235263   3.652   8.358   3.315  0.5297 -1.8940 -0.1081
 9469SOL     OW35264   8.317  10.801   0.017 -0.0947  0.2565 -0.0887
 9469SOL    HW135265   8.402  10.811  -0.026 -0.0416 -0.5783 -0.1891
 9469SOL    HW235266   8.253  10.833  -0.047  0.0364 -0.3781 -0.5446
 9470SOL     OW35267   8.915   6.659   8.220 -0.4862 -0.3716 -0.0519
 9470SOL    HW135268   8.866   6.688   8.143 -0.0033 -1.2034 -0.6922
 9470SOL    HW235269   8.864   6.690   8.295 -2.1033 -1.3648 -0.6920
 9471SOL     OW35270   4.358   0.433  11.485  0.7922  0.1488 -0.0144
 9471SOL    HW135271   4.296   0.455  11.554  2.3603 -0.7331  1.7859
 9471SOL    HW235272   4.439   0.412  11.531  1.4173 -2.3312 -1.9713
 9472SOL     OW35273  11.236   2.632   7.369 -0.6136  0.2292 -0.2945
 9472SOL    HW135274  11.307   2.648   7.306 -0.4339 -1.5861 -0.6216
 9472SOL    HW235275  11.157   2.631   7.315 -1.0396  2.9405  0.1653
 9473SOL     OW35276   2.693   1.864   3.423  0.1135 -0.2467 -0.5039
 9473SOL    HW135277   2.603   1.882   3.397 -0.1941 -0.1345  0.5851
 9473SOL    HW235278   2.695   1.770   3.437 -0.3761 -0.0271  1.3205
 9474SOL     OW35279  10.822   4.303   3.187 -0.5326  0.3226  0.1749
 9474SOL    HW135280  10.905   4.259   3.206 -0.7892  0.1003  0.8355
 9474SOL    HW235281  10.841   4.396   3.196  0.2510  0.4395 -2.1707
 9475SOL     OW35282   5.453  12.284   1.098  0.2552 -0.3289 -0.1271
 9475SOL    HW135283   5.548  12.295   1.091  0.0620  1.1880 -0.6954
 9475SOL    HW235284   5.426  12.257   1.010  0.3754 -3.0032  0.5639
 9476SOL     OW35285   6.330   4.786  10.766 -0.0942  0.3319  0.2955
 9476SOL    HW135286   6.334   4.860  10.706 -0.2050  2.1612  2.4316
 9476SOL    HW235287   6.417   4.745  10.759 -0.1224  0.4474 -1.1026
 9477SOL     OW35288  11.724   5.504   1.559  0.0497  0.0871 -0.3524
 9477SOL    HW135289  11.755   5.438   1.621  0.2055 -0.0895 -0.6157
 9477SOL    HW235290  11.788   5.502   1.488  0.9178  1.5973  0.3318
 9478SOL     OW35291   7.070   7.970  11.462 -0.4976 -0.1713 -0.6054
 9478SOL    HW135292   7.046   7.984  11.370 -1.0803  0.4986 -0.3617
 9478SOL    HW235293   7.118   7.888  11.462 -0.3153 -0.0761 -1.5457
 9479SOL     OW35294  12.447   0.590  11.179  0.4406 -0.0617  0.0388
 9479SOL    HW135295  12.387   0.631  11.116 -0.1649  0.2793  0.8252
 9479SOL    HW235296  12.502   0.662  11.210  0.9545 -0.2894 -0.3297
 9480SOL     OW35297   0.121   8.389   8.411  0.3215 -0.2530 -0.2116
 9480SOL    HW135298   0.171   8.336   8.349  0.0175  0.3894 -1.0244
 9480SOL    HW235299   0.099   8.329   8.482  3.4837 -0.2301  0.9545
 9481SOL     OW35300   2.941   7.585   7.890  0.0733 -0.2150  0.3555
 9481SOL    HW135301   2.912   7.668   7.851  1.3348  0.3833  0.6615
 9481SOL    HW235302   2.951   7.527   7.815 -2.1423 -0.5597  0.2461
 9482SOL     OW35303   9.886  12.432  11.240 -0.8172  0.1499 -0.0672
 9482SOL    HW135304   9.895  12.515  11.195  0.8788 -0.3660 -0.7667
 9482SOL    HW235305   9.948  12.437  11.313  0.2325 -0.9355 -0.8435
 9483SOL     OW35306   2.829   0.669   6.762  0.5234 -0.5365  0.7050
 9483SOL    HW135307   2.799   0.736   6.700 -0.6021 -1.1382  0.5599
 9483SOL    HW235308   2.759   0.604   6.762  1.1408 -1.2283  1.5868
 9484SOL     OW35309  10.331   1.091   3.954  0.1199 -0.1362 -0.4660
 9484SOL    HW135310  10.292   1.005   3.965 -0.2041 -0.1675 -1.7155
 9484SOL    HW235311  10.307   1.117   3.865  2.2553  0.1889 -1.0036
 9485SOL     OW35312   8.319   6.803   6.185 -0.1888 -0.4533 -0.4476
 9485SOL    HW135313   8.333   6.897   6.190  2.3939 -0.8120  0.7789
 9485SOL    HW235314   8.273   6.781   6.266  1.0092 -0.4722  0.2448
 9486SOL     OW35315   8.156  10.338  11.157  0.0848  0.6643  0.7287
 9486SOL    HW135316   8.251  10.348  11.147  0.1555 -0.7795 -0.2900
 9486SOL    HW235317   8.138  10.249  11.126 -1.6997  1.1888  0.1543
 9487SOL     OW35318   4.257   5.116  10.482  0.2061 -0.7340  0.0647
 9487SOL    HW135319   4.289   5.070  10.404 -1.0665 -3.2724  0.9409
 9487SOL    HW235320   4.186   5.171  10.450  0.4080 -0.9139 -0.7169
 9488SOL     OW35321   3.700   4.220   8.749 -0.2655  0.0400 -0.5191
 9488SOL    HW135322   3.743   4.279   8.812  0.9438 -0.9038 -0.4353
 9488SOL    HW235323   3.696   4.136   8.794 -0.4018 -0.3765 -1.3092
 9489SOL     OW35324   4.950   5.866   7.207 -0.2204  0.1094 -0.6980
 9489SOL    HW135325   4.936   5.949   7.252  0.0591  0.5851 -1.4544
 9489SOL    HW235326   5.035   5.876   7.165 -0.7613 -0.0356 -1.8843
 9490SOL     OW35327   0.893   9.776   3.823  0.4150 -0.2643 -0.2484
 9490SOL    HW135328   0.895   9.711   3.894  2.8282  0.7515  0.7169
 9490SOL    HW235329   0.879   9.723   3.744 -1.7919 -1.4814  0.8398
 9491SOL     OW35330   8.750  11.338  12.079 -0.2805 -0.0739 -0.0601
 9491SOL    HW135331   8.805  11.412  12.103  0.3787 -0.6635  0.3186
 9491SOL    HW235332   8.772  11.320  11.988 -1.6271  1.1822 -0.6684
 9492SOL     OW35333   7.639   8.185   7.078  0.2064  0.3687  0.0839
 9492SOL    HW135334   7.722   8.214   7.118  0.2722  0.5033 -0.1505
 9492SOL    HW235335   7.627   8.096   7.111  0.5819  0.2484 -0.0968
 9493SOL     OW35336   6.415   0.179   2.835 -0.1684  0.5828 -0.2397
 9493SOL    HW135337   6.369   0.115   2.889  1.0265  0.1941  0.3608
 9493SOL    HW235338   6.486   0.129   2.794  1.5515  1.6965  1.1838
 9494SOL     OW35339   7.983   8.746   7.129 -0.1204  0.0014  0.8483
 9494SOL    HW135340   7.971   8.816   7.193 -1.0231 -1.7886  2.7700
 9494SOL    HW235341   7.921   8.766   7.059  0.8622  1.9895  0.4867
 9495SOL     OW35342   6.379   2.248   3.075  0.5210 -0.4772 -0.1029
 9495SOL    HW135343   6.379   2.161   3.036 -2.1418  0.3300 -2.2691
 9495SOL    HW235344   6.296   2.254   3.121 -1.4652  2.1304 -3.5297
 9496SOL     OW35345   6.231   5.553   4.353  0.4838  0.0958 -0.4651
 9496SOL    HW135346   6.284   5.622   4.393  0.2574 -0.2553  0.4566
 9496SOL    HW235347   6.210   5.493   4.425  0.7091 -0.9635 -1.2566
 9497SOL     OW35348   9.457   8.086  11.058  0.3876 -0.3032  0.1362
 9497SOL    HW135349   9.497   8.000  11.057  0.4359 -0.2816  0.3047
 9497SOL    HW235350   9.447   8.109  10.965 -2.8170 -1.9580 -0.0768
 9498SOL     OW35351   2.749   3.887   5.956  0.3237 -0.2298 -0.0888
 9498SOL    HW135352   2.791   3.836   5.887  0.4504  1.4126 -1.2919
 9498SOL    HW235353   2.804   3.964   5.966 -1.1622  0.8778 -0.1111
 9499SOL     OW35354   6.434   8.183  11.660  0.4800 -0.0020 -0.3055
 9499SOL    HW135355   6.523   8.158  11.684 -0.3814 -2.1493  0.9378
 9499SOL    HW235356   6.385   8.178  11.742 -0.8901  0.7027 -1.0475
 9500SOL     OW35357   5.928   8.944   2.910  0.1321  0.6452  0.0134
 9500SOL    HW135358   5.894   8.899   2.987  0.4459 -0.2104 -0.3331
 9500SOL    HW235359   5.955   9.030   2.942  2.3919 -0.4796  1.3776
 9501SOL     OW35360   0.443   9.823   8.689  0.0871 -0.0778  0.0737
 9501SOL    HW135361   0.534   9.827   8.660  0.5697  0.1444  1.5476
 9501SOL    HW235362   0.446   9.851   8.780 -1.5979  0.8554 -0.1288
 9502SOL     OW35363   6.015   0.796   3.199  0.4200 -0.4760  0.2002
 9502SOL    HW135364   6.014   0.845   3.117 -1.9758  2.0811  1.5815
 9502SOL    HW235365   6.094   0.826   3.245  0.1485  0.3980  0.0954
 9503SOL     OW35366  11.415   5.712   2.586 -0.0873 -0.7144 -0.0628
 9503SOL    HW135367  11.375   5.790   2.625 -0.2297 -0.9303  0.2288
 9503SOL    HW235368  11.344   5.648   2.584 -0.0193 -0.7771 -0.4737
 9504SOL     OW35369  10.908   9.894  10.000 -0.5075 -0.1597 -0.1974
 9504SOL    HW135370  10.983   9.926  10.050 -0.7660 -0.0014  0.0897
 9504SOL    HW235371  10.929   9.802   9.983 -1.2718 -0.7843  1.8723
 9505SOL     OW35372   3.988  11.050   5.621  0.2161  0.2264  0.2237
 9505SOL    HW135373   3.938  11.124   5.655 -0.2070  0.8918 -1.6977
 9505SOL    HW235374   3.970  11.051   5.527  2.3385 -0.6980 -0.2484
 9506SOL     OW35375  11.227   6.767  10.713  0.0615  0.0667 -0.4836
 9506SOL    HW135376  11.295   6.721  10.663  0.4088  0.6193 -0.5200
 9506SOL    HW235377  11.153   6.774  10.652  0.0881 -0.2256 -0.5545
 9507SOL     OW35378   3.842   2.409   9.717  0.3456 -0.2862  0.5582
 9507SOL    HW135379   3.872   2.319   9.724 -0.8046 -0.6101  1.7756
 9507SOL    HW235380   3.748   2.405   9.735 -0.0125  0.9817 -0.7926
 9508SOL     OW35381  11.232   9.392   7.420  0.2859  0.3665  0.2370
 9508SOL    HW135382  11.142   9.423   7.412  0.9802  3.3139  2.3586
 9508SOL    HW235383  11.280   9.441   7.352  0.5126 -0.2218 -0.0319
 9509SOL     OW35384   3.469   6.686  11.202  0.2959  0.0282 -0.3898
 9509SOL    HW135385   3.476   6.602  11.157 -0.1634  0.7875 -1.9627
 9509SOL    HW235386   3.509   6.671  11.288  0.0454 -1.8279 -0.5548
 9510SOL     OW35387   6.082  10.137   9.722 -0.4367 -0.1973 -0.7241
 9510SOL    HW135388   6.082  10.140   9.818 -1.4063  0.4181 -0.7381
 9510SOL    HW235389   6.161  10.185   9.697 -0.5280  0.2036 -0.2509
 9511SOL     OW35390   7.112  10.384  11.575 -0.0348 -0.0510  0.5875
 9511SOL    HW135391   7.119  10.429  11.659  0.4509  0.4239  0.2963
 9511SOL    HW235392   7.173  10.430  11.518  0.5980 -1.1797  0.3258
 9512SOL     OW35393   4.699   7.629   5.775 -0.0187 -0.2962 -1.1092
 9512SOL    HW135394   4.699   7.725   5.769 -1.5105 -0.2445 -0.7393
 9512SOL    HW235395   4.755   7.600   5.703 -0.8173  0.8191 -2.2121
 9513SOL     OW35396   5.976   6.006   8.533 -0.3273 -0.3264  0.0510
 9513SOL    HW135397   5.950   6.038   8.447  0.1047  1.2672  0.4714
 9513SOL    HW235398   5.899   5.960   8.567 -1.1812  0.7643 -0.3761
 9514SOL     OW35399   6.025   4.525   2.689  0.2258  0.6927  0.1280
 9514SOL    HW135400   6.075   4.445   2.671 -0.8470  0.6409 -3.3819
 9514SOL    HW235401   5.977   4.506   2.770  2.8032 -0.7102  1.4548
 9515SOL     OW35402   6.240   0.263   9.468  0.1325 -0.3682 -0.8629
 9515SOL    HW135403   6.190   0.185   9.442  1.3072 -2.1986  1.9506
 9515SOL    HW235404   6.267   0.246   9.558  2.8148  2.1037 -1.0449
 9516SOL     OW35405   4.524   7.843   3.725  0.0618 -0.1294 -0.3117
 9516SOL    HW135406   4.505   7.917   3.784  0.1534 -0.5703  0.2786
 9516SOL    HW235407   4.570   7.883   3.651  1.3298  0.2235  0.6310
 9517SOL     OW35408   1.504   4.198   7.890  0.5860 -0.4842 -0.0010
 9517SOL    HW135409   1.448   4.132   7.850  0.4687  0.2137 -1.0157
 9517SOL    HW235410   1.470   4.281   7.859 -0.2731  0.1974  2.5304
 9518SOL     OW35411   2.985   7.829   7.059 -0.5385  0.4669  0.6272
 9518SOL    HW135412   2.966   7.834   7.153 -1.3840 -0.4585  0.5144
 9518SOL    HW235413   2.980   7.920   7.029  1.1772  0.9909  1.7242
 9519SOL     OW35414   7.038  11.651   0.357  0.2600  0.6622 -0.0565
 9519SOL    HW135415   6.979  11.726   0.365 -1.4294 -0.6436  0.1909
 9519SOL    HW235416   7.012  11.593   0.429 -0.6554 -1.6034 -2.1020
 9520SOL     OW35417   6.777   5.138   9.784  0.0334  0.5066  0.1211
 9520SOL    HW135418   6.700   5.186   9.815 -0.0232  0.9637 -0.6843
 9520SOL    HW235419   6.741   5.059   9.744  0.2002 -0.8802  2.5432
 9521SOL     OW35420   5.585   7.887   0.297 -0.6000  0.3782 -0.6197
 9521SOL    HW135421   5.559   7.959   0.240 -1.8095 -0.2431 -0.8757
 9521SOL    HW235422   5.571   7.808   0.245  0.8637 -0.0570 -0.3971
 9522SOL     OW35423   2.596   8.634  10.360 -0.0007  0.2414 -0.1127
 9522SOL    HW135424   2.559   8.721  10.376 -0.9942 -0.3966  1.3689
 9522SOL    HW235425   2.690   8.648  10.355 -0.0688  1.3006  1.0518
 9523SOL     OW35426   4.329   3.236   4.640  0.5016 -0.3744 -0.0657
 9523SOL    HW135427   4.264   3.260   4.574  1.1469  1.3971 -0.1218
 9523SOL    HW235428   4.323   3.306   4.705  0.5001 -1.6099  1.3194
 9524SOL     OW35429   1.159  12.305   1.635 -0.1458 -0.3449  0.1505
 9524SOL    HW135430   1.139  12.213   1.651 -0.0457 -0.5381 -0.7777
 9524SOL    HW235431   1.139  12.318   1.543  0.6690  0.3488  0.0575
 9525SOL     OW35432   4.943   9.859   8.343  0.5081  0.1118 -1.1024
 9525SOL    HW135433   4.964   9.796   8.274 -0.8186 -1.3721 -0.2505
 9525SOL    HW235434   4.903   9.805   8.412 -1.6447  2.0249 -0.7472
 9526SOL     OW35435   2.928   1.323   0.453 -0.0520  0.1770  0.0813
 9526SOL    HW135436   3.005   1.328   0.509 -0.3303 -1.0127  0.6105
 9526SOL    HW235437   2.920   1.410   0.415  1.2988  0.4445  0.3503
 9527SOL     OW35438   2.434   2.874   5.708  0.3595  0.1264 -0.3549
 9527SOL    HW135439   2.423   2.785   5.742  1.0847  0.0236 -0.3866
 9527SOL    HW235440   2.428   2.865   5.613  2.7137 -0.2546 -0.5235
 9528SOL     OW35441  10.790   3.214   7.746  1.0772  0.3598  0.7779
 9528SOL    HW135442  10.751   3.141   7.794  2.9652 -0.0270  1.8407
 9528SOL    HW235443  10.884   3.208   7.765  1.6725  1.3390 -1.4867
 9529SOL     OW35444   9.434   9.207  10.894  0.4995  0.4826 -0.4534
 9529SOL    HW135445   9.429   9.302  10.890  0.9890  0.7417  2.4687
 9529SOL    HW235446   9.489   9.182  10.821  0.4693  2.4522 -1.2003
 9530SOL     OW35447  10.565   6.220   7.515 -0.2581 -0.3589 -0.0148
 9530SOL    HW135448  10.544   6.144   7.570 -1.1544  0.2294  0.4671
 9530SOL    HW235449  10.484   6.271   7.511 -0.1106 -0.2035 -1.6099
 9531SOL     OW35450   1.404   8.268   2.090  0.4190 -0.2549 -0.5463
 9531SOL    HW135451   1.474   8.321   2.130  0.8872 -0.3926 -1.1627
 9531SOL    HW235452   1.451   8.206   2.035 -0.0852 -1.6651  0.5549
 9532SOL     OW35453   3.825   1.591  10.024 -0.3699 -0.0954 -0.0791
 9532SOL    HW135454   3.781   1.670  10.056  0.1466 -0.2000  0.8916
 9532SOL    HW235455   3.907   1.623   9.987 -0.5657 -0.0833 -0.5168
 9533SOL     OW35456   4.209  10.530   9.910  0.7388 -0.4853  0.0102
 9533SOL    HW135457   4.151  10.469   9.865 -0.5810 -0.6085  1.7604
 9533SOL    HW235458   4.234  10.484   9.991  0.2380  1.0093  1.0580
 9534SOL     OW35459  11.207   7.325   8.204 -0.3898  0.3276  0.4459
 9534SOL    HW135460  11.149   7.300   8.132  0.7665  0.8911 -0.7123
 9534SOL    HW235461  11.190   7.418   8.217  0.5461  0.5932 -0.1862
 9535SOL     OW35462   8.500  11.022  12.030 -0.5575  0.3997  0.0470
 9535SOL    HW135463   8.465  10.998  11.944  0.1417 -0.5396  0.0042
 9535SOL    HW235464   8.587  10.982  12.032 -0.5547  0.4380  1.1853
 9536SOL     OW35465   3.426  11.593   2.653  0.2970 -0.2995  0.2325
 9536SOL    HW135466   3.410  11.505   2.688 -0.7714 -1.3188 -2.5584
 9536SOL    HW235467   3.340  11.635   2.653  0.4968  0.1140 -0.0020
 9537SOL     OW35468  12.420   5.955   4.052  0.5265  0.4075  0.2116
 9537SOL    HW135469  12.438   5.937   4.144  0.9343 -1.1205 -0.1396
 9537SOL    HW235470  12.383   5.873   4.019 -2.6329  1.8898 -0.2665
 9538SOL     OW35471  12.034   8.738   7.247  0.4980 -0.2505  0.1331
 9538SOL    HW135472  12.060   8.755   7.156 -1.2298 -0.6028 -0.4720
 9538SOL    HW235473  12.074   8.809   7.297  2.0546 -0.4372 -0.7790
 9539SOL     OW35474   8.510   6.901   4.648 -0.3266 -0.0971 -0.8057
 9539SOL    HW135475   8.581   6.945   4.695 -0.0123  0.4233 -1.7447
 9539SOL    HW235476   8.456   6.863   4.717 -0.4499  1.5164  0.0453
 9540SOL     OW35477  11.614   9.446   8.442  0.5347 -0.2513  0.1011
 9540SOL    HW135478  11.532   9.483   8.475  1.2563  0.9467  0.6022
 9540SOL    HW235479  11.609   9.353   8.464  0.0266  0.1131  1.6109
 9541SOL     OW35480   1.100   8.670   3.392  0.1792  0.0984  0.3138
 9541SOL    HW135481   1.089   8.765   3.399  0.8079  0.0887  2.2123
 9541SOL    HW235482   1.191   8.659   3.363  0.9769  0.1265  2.5790
 9542SOL     OW35483   2.343   6.501   5.122  0.3920 -0.1421  0.3229
 9542SOL    HW135484   2.320   6.440   5.192  2.1766 -0.7273  0.4406
 9542SOL    HW235485   2.378   6.446   5.052 -1.4369  0.4136 -1.1494
 9543SOL     OW35486  10.490   3.105  11.969 -0.0233 -0.5442  0.3548
 9543SOL    HW135487  10.399   3.127  11.991 -0.3711  0.1685 -1.5254
 9543SOL    HW235488  10.507   3.156  11.889  2.1024 -0.5087  0.7872
 9544SOL     OW35489   4.439   8.695  11.707  0.2486 -0.6396  0.6929
 9544SOL    HW135490   4.421   8.717  11.616  0.3600  0.1693  0.8544
 9544SOL    HW235491   4.521   8.646  11.705 -0.2895 -1.5560  0.2645
 9545SOL     OW35492   0.599   0.530  10.345 -0.1456 -0.0489 -0.3027
 9545SOL    HW135493   0.633   0.617  10.323  0.1776 -0.1353 -0.1522
 9545SOL    HW235494   0.591   0.531  10.440  2.5511 -1.1267  0.0294
 9546SOL     OW35495   5.663   0.906   8.491  0.7614 -0.0239  0.1041
 9546SOL    HW135496   5.649   0.813   8.508 -1.7016  0.1528 -0.6516
 9546SOL    HW235497   5.717   0.907   8.412  0.0043 -0.8280 -0.4462
 9547SOL     OW35498   4.120   4.043  11.905  0.7220  0.0626  0.2494
 9547SOL    HW135499   4.038   3.997  11.884  0.3494  1.5106 -1.6996
 9547SOL    HW235500   4.188   3.976  11.898 -0.0419 -0.6558 -0.4047
 9548SOL     OW35501   9.356   2.778   3.765 -0.1015 -0.2566  0.6291
 9548SOL    HW135502   9.417   2.756   3.693  0.0289 -0.7131  0.8744
 9548SOL    HW235503   9.413   2.811   3.835 -0.1539 -0.5175  0.7944
 9549SOL     OW35504   4.378   5.162   2.524  0.0873 -0.6452 -0.0138
 9549SOL    HW135505   4.415   5.250   2.516  0.7153 -0.9195 -0.2358
 9549SOL    HW235506   4.293   5.167   2.481  0.6798 -0.4699 -1.2050
 9550SOL     OW35507   9.785  11.193  12.462  0.3186 -0.0933 -0.0098
 9550SOL    HW135508   9.790  11.288  12.457  0.4900 -0.1085 -0.1252
 9550SOL    HW235509   9.761  11.166  12.373 -1.4323 -0.0455  0.4040
 9551SOL     OW35510   0.657   9.228   4.398  0.2081 -0.2888  0.8915
 9551SOL    HW135511   0.654   9.178   4.317  0.7454 -1.4965  1.5947
 9551SOL    HW235512   0.631   9.166   4.466  1.2857  0.2672  1.8444
 9552SOL     OW35513  12.055  11.754  12.346  0.1183 -0.1922  0.5808
 9552SOL    HW135514  12.057  11.805  12.265  1.3984 -0.1212  0.6396
 9552SOL    HW235515  11.965  11.764  12.378 -0.3245  0.0304 -0.6625
 9553SOL     OW35516   2.763   8.062   9.405  0.3191  0.1758 -0.1844
 9553SOL    HW135517   2.742   7.968   9.400  2.3652 -0.2857 -2.0663
 9553SOL    HW235518   2.809   8.072   9.488  0.9680 -0.7253 -0.4219
 9554SOL     OW35519   4.963   1.707   9.784 -0.6559 -0.0659 -0.2326
 9554SOL    HW135520   4.968   1.683   9.876  0.1796  0.8982 -0.0145
 9554SOL    HW235521   4.965   1.623   9.737 -2.8725 -0.6840  0.6521
 9555SOL     OW35522   6.383   9.124  10.760 -0.0032 -0.0963 -0.0265
 9555SOL    HW135523   6.325   9.055  10.794  2.9120 -2.2514  0.9836
 9555SOL    HW235524   6.369   9.198  10.819 -0.2519 -1.3054  1.5049
 9556SOL     OW35525   1.880   4.258   5.490 -0.3902  0.4060 -0.2986
 9556SOL    HW135526   1.871   4.251   5.395  0.0549 -1.9555 -0.2132
 9556SOL    HW235527   1.943   4.190   5.514 -0.5681  0.8783  1.7070
 9557SOL     OW35528   7.012   2.420   8.256  0.2630 -0.0575  0.2866
 9557SOL    HW135529   6.968   2.410   8.171  0.6622 -1.8309  0.2544
 9557SOL    HW235530   6.941   2.424   8.319  0.0038 -0.3889  0.0180
 9558SOL     OW35531   6.003  11.854  10.571  0.0802 -0.0608 -0.9313
 9558SOL    HW135532   5.953  11.813  10.500  1.5683 -2.8918 -0.5186
 9558SOL    HW235533   5.936  11.885  10.632 -1.1845 -0.3002 -2.1247
 9559SOL     OW35534   4.874   6.445   9.546  1.0321  0.5255 -0.2464
 9559SOL    HW135535   4.848   6.368   9.495  0.4080  0.2404  0.4903
 9559SOL    HW235536   4.791   6.485   9.573  1.3565  0.8752  0.2438
 9560SOL     OW35537   0.971   6.356   8.108  0.1820  0.5207  0.5446
 9560SOL    HW135538   0.942   6.446   8.093  0.8824  0.4160 -1.7523
 9560SOL    HW235539   1.050   6.346   8.056  1.5077 -0.7571  2.6365
 9561SOL     OW35540   3.382   5.569   9.384 -0.1186  0.0858 -0.2879
 9561SOL    HW135541   3.321   5.502   9.356  1.3883 -1.5874  0.2379
 9561SOL    HW235542   3.466   5.543   9.344  0.4998  1.6837 -0.1052
 9562SOL     OW35543   1.841   2.566   6.689 -0.3456 -0.0913  0.0074
 9562SOL    HW135544   1.846   2.661   6.684  0.3188 -0.1520 -0.5363
 9562SOL    HW235545   1.750   2.548   6.714 -0.6962  0.6602 -0.7082
 9563SOL     OW35546  12.298  10.718   3.522 -0.2977  0.3483 -0.1002
 9563SOL    HW135547  12.304  10.749   3.612  0.4089 -0.1714  0.0443
 9563SOL    HW235548  12.376  10.752   3.479  0.5309 -1.2292  0.0828
 9564SOL     OW35549   6.764   2.039   9.858  0.3183  0.3376  0.5798
 9564SOL    HW135550   6.849   2.074   9.829 -0.3318  1.8253  0.3455
 9564SOL    HW235551   6.729   2.107   9.916 -0.6430 -0.3386  0.8167
 9565SOL     OW35552  11.323   6.780   4.589  0.1000  0.2872  0.0585
 9565SOL    HW135553  11.414   6.751   4.580  0.0061  0.0908 -0.2516
 9565SOL    HW235554  11.286   6.723   4.656 -0.3770 -1.0240 -1.2680
 9566SOL     OW35555   7.622   9.972   6.069  0.3120  0.0521 -0.6771
 9566SOL    HW135556   7.588  10.007   6.152 -1.8986  1.5279 -2.1110
 9566SOL    HW235557   7.715   9.996   6.070  0.1452  0.8121  0.9726
 9567SOL     OW35558  11.869  11.065  11.380  0.2353  0.7654  0.0050
 9567SOL    HW135559  11.821  11.147  11.376 -2.6422 -0.8173 -0.8729
 9567SOL    HW235560  11.901  11.052  11.290 -0.0337  0.5663 -0.0658
 9568SOL     OW35561   3.814   4.342   3.668 -0.2737 -0.3005  0.0423
 9568SOL    HW135562   3.793   4.353   3.575  0.9528  0.2355 -0.1854
 9568SOL    HW235563   3.735   4.371   3.714 -0.2442  1.1998 -0.7921
 9569SOL     OW35564  10.303   6.142   8.395  0.0674 -0.3857  0.2633
 9569SOL    HW135565  10.364   6.199   8.443  0.2006 -1.6656  1.6983
 9569SOL    HW235566  10.219   6.155   8.440 -0.8316  1.4380 -1.7583
 9570SOL     OW35567   3.223   6.591   4.856  0.7864 -0.4859 -0.0579
 9570SOL    HW135568   3.155   6.657   4.870  0.6195 -0.1772 -2.0271
 9570SOL    HW235569   3.265   6.581   4.941 -0.9840  0.1342  0.9359
 9571SOL     OW35570   6.963   8.405   3.076 -0.0289 -0.0353 -0.5937
 9571SOL    HW135571   6.996   8.467   3.012  0.4972  0.8764  0.5409
 9571SOL    HW235572   6.987   8.441   3.161 -0.2325 -1.4895  0.1230
 9572SOL     OW35573  10.619   3.775   7.502 -0.5861 -0.2182  0.2530
 9572SOL    HW135574  10.706   3.817   7.501 -1.4729  1.7473  0.2682
 9572SOL    HW235575  10.573   3.814   7.428 -0.9050 -2.5735 -0.8426
 9573SOL     OW35576   7.772   5.573   0.313 -0.2564  0.0688 -0.1152
 9573SOL    HW135577   7.832   5.610   0.377 -1.9137 -0.2160  1.6956
 9573SOL    HW235578   7.752   5.646   0.254 -1.2609  1.3415  1.6960
 9574SOL     OW35579   3.836   0.842  11.874 -0.4269  0.3754 -0.4670
 9574SOL    HW135580   3.776   0.897  11.925  1.2951  0.5325  1.5414
 9574SOL    HW235581   3.898   0.903  11.836  1.0655 -0.0503  1.1757
 9575SOL     OW35582   0.685   0.894   0.153 -0.6049  0.0675  0.3239
 9575SOL    HW135583   0.672   0.988   0.151 -1.2753  0.0018  1.1936
 9575SOL    HW235584   0.647   0.865   0.236  0.4712 -0.8437  0.5441
 9576SOL     OW35585   2.741   0.930   4.220  0.1030  0.3078 -0.6723
 9576SOL    HW135586   2.679   0.884   4.277 -0.1016  0.4788 -0.7514
 9576SOL    HW235587   2.687   0.995   4.175  0.2970  0.2881 -0.9324
 9577SOL     OW35588   4.861   1.221   8.085  0.2565 -0.8456  0.0878
 9577SOL    HW135589   4.903   1.307   8.088 -0.0523 -0.7145  0.6556
 9577SOL    HW235590   4.848   1.204   7.992  2.0709 -1.1291 -0.1640
 9578SOL     OW35591   6.665   4.491   7.634 -0.2926  0.4240  0.1449
 9578SOL    HW135592   6.672   4.524   7.723  1.6731  1.5364 -0.3467
 9578SOL    HW235593   6.755   4.469   7.610 -0.7975  0.0588 -1.5415
 9579SOL     OW35594   7.050   5.721  11.197 -0.6425  0.2423 -0.7398
 9579SOL    HW135595   7.047   5.739  11.291 -0.4713 -1.4987 -0.3693
 9579SOL    HW235596   7.090   5.799  11.159 -0.2593  0.7680  0.6896
 9580SOL     OW35597  12.303   2.797   8.860 -0.1128 -0.2553  0.8571
 9580SOL    HW135598  12.335   2.879   8.824  0.0995 -1.5358 -2.2159
 9580SOL    HW235599  12.321   2.802   8.954 -1.0666  3.5523  0.9776
 9581SOL     OW35600   5.285   4.252   7.983  0.7597  0.2546 -0.1886
 9581SOL    HW135601   5.196   4.219   7.970  1.0795 -0.6024 -0.2364
 9581SOL    HW235602   5.276   4.347   7.977 -0.0172  0.1382 -1.0709
 9582SOL     OW35603   6.595   6.174   0.100 -0.4537 -0.1569  0.1602
 9582SOL    HW135604   6.656   6.128   0.157 -1.8210 -0.1670  1.6782
 9582SOL    HW235605   6.534   6.218   0.159 -1.3241  0.6974 -1.2863
 9583SOL     OW35606  11.201   3.663   8.985 -0.6944  0.2118  0.1581
 9583SOL    HW135607  11.112   3.632   8.966 -0.6327  1.0060 -1.6883
 9583SOL    HW235608  11.228   3.707   8.904  2.0397 -1.4962  0.0321
 9584SOL     OW35609   3.779   1.971   2.360  0.2978 -0.1052  0.3723
 9584SOL    HW135610   3.767   1.924   2.442  0.9300 -1.0133 -0.0325
 9584SOL    HW235611   3.781   2.063   2.384 -3.8303  0.0483  0.9211
 9585SOL     OW35612  12.335  10.400  12.454 -0.4460 -0.2461  0.2305
 9585SOL    HW135613  12.419  10.359  12.435  0.1658  0.2915  1.6458
 9585SOL    HW235614  12.316  10.377  12.544 -2.2726 -1.0764 -0.3164
 9586SOL     OW35615   9.528   1.113   8.215  0.3939 -0.2065 -0.0628
 9586SOL    HW135616   9.580   1.034   8.231  0.2679 -0.2619  0.0714
 9586SOL    HW235617   9.588   1.186   8.232  0.2551 -0.2636  0.6843
 9587SOL     OW35618   3.905   1.722   7.584  0.1983  0.3628  0.2923
 9587SOL    HW135619   3.811   1.731   7.569  0.3162 -0.6488 -1.3297
 9587SOL    HW235620   3.932   1.807   7.620 -1.5745  0.1222  2.3909
 9588SOL     OW35621   8.421  10.287   9.447 -0.7989  0.1302  1.0296
 9588SOL    HW135622   8.493  10.300   9.510  1.2646  0.3352 -1.2367
 9588SOL    HW235623   8.406  10.374   9.411  0.5195 -0.5174 -1.2379
 9589SOL     OW35624   9.295   4.326   6.666  0.0200  0.4530 -0.0839
 9589SOL    HW135625   9.228   4.392   6.684 -0.5233 -0.3614  1.0242
 9589SOL    HW235626   9.337   4.355   6.585 -2.8622  0.0443 -1.8405
 9590SOL     OW35627   5.017   2.674   1.438 -0.2413 -0.0594 -0.1868
 9590SOL    HW135628   4.987   2.705   1.352  0.6697  0.3046 -0.3771
 9590SOL    HW235629   4.998   2.745   1.498 -2.8629 -1.1014  0.3654
 9591SOL     OW35630  11.957   2.029   5.091  0.0023  0.3499  0.0887
 9591SOL    HW135631  11.905   2.009   5.169 -0.7362  0.0178 -0.4742
 9591SOL    HW235632  11.911   1.985   5.019  0.9363  0.2497 -0.4671
 9592SOL     OW35633   6.914   4.176   9.548 -0.4712  0.0983 -0.1259
 9592SOL    HW135634   6.935   4.097   9.499 -1.4736  1.0594 -2.2225
 9592SOL    HW235635   6.849   4.148   9.612 -1.2838 -0.6665 -1.2644
 9593SOL     OW35636   9.210   8.432   0.555  0.1663 -0.6755  0.4172
 9593SOL    HW135637   9.152   8.366   0.518 -1.5074  1.1400 -0.3559
 9593SOL    HW235638   9.276   8.446   0.487 -1.3950  0.7687 -0.8831
 9594SOL     OW35639   8.874  11.720   9.029  0.0030 -0.1541  1.2193
 9594SOL    HW135640   8.790  11.755   8.998  0.7847  0.1621 -0.6636
 9594SOL    HW235641   8.923  11.797   9.057  0.9162  0.1253 -0.9280
 9595SOL     OW35642  11.492  10.727   9.957 -0.0570 -0.1596  0.3847
 9595SOL    HW135643  11.584  10.715   9.979 -0.2826 -0.4415  1.2011
 9595SOL    HW235644  11.485  10.818   9.930  0.9967 -0.8149 -2.4654
 9596SOL     OW35645   4.690   2.258  10.322  0.0617  0.1992 -0.2014
 9596SOL    HW135646   4.667   2.194  10.389  0.1506 -1.0600 -1.3178
 9596SOL    HW235647   4.607   2.275  10.277  0.3602 -0.6404 -1.1278
 9597SOL     OW35648   9.030   2.544   5.531 -0.4176  0.0620 -0.5815
 9597SOL    HW135649   8.943   2.510   5.554  0.4304 -1.0806  1.1398
 9597SOL    HW235650   9.076   2.469   5.495 -0.1583  0.7102 -1.6551
 9598SOL     OW35651  12.030   0.850  10.598  0.2187  0.3444 -0.1843
 9598SOL    HW135652  12.039   0.930  10.545  0.5444  0.0376 -0.6028
 9598SOL    HW235653  12.096   0.790  10.562 -0.3424 -0.2851 -0.1816
 9599SOL     OW35654   3.066   5.759  10.472  0.3160 -0.0097  0.0928
 9599SOL    HW135655   3.100   5.780  10.385  3.5735 -1.5976  0.7903
 9599SOL    HW235656   3.089   5.834  10.526  0.9247 -0.2201  0.1359
 9600SOL     OW35657   0.954   2.780   0.305  0.1010 -0.1519  0.0453
 9600SOL    HW135658   0.969   2.815   0.393 -0.2372  0.5726 -0.1877
 9600SOL    HW235659   1.033   2.804   0.256 -0.6467  1.3660 -0.4509
 9601SOL     OW35660  11.933   4.893   2.134  0.3076  0.9706  0.4609
 9601SOL    HW135661  11.950   4.975   2.180  3.0699  1.5051 -1.2827
 9601SOL    HW235662  12.004   4.835   2.161  0.5970  0.4832 -1.2446
 9602SOL     OW35663   0.358   6.641   4.109 -0.1443  0.1502  0.0273
 9602SOL    HW135664   0.313   6.563   4.075 -0.8620  0.3809  0.4121
 9602SOL    HW235665   0.389   6.686   4.031  1.1822 -1.0321 -0.1619
 9603SOL     OW35666   9.424   8.879   2.044 -0.7917  0.0392  0.1908
 9603SOL    HW135667   9.490   8.947   2.030  0.5228 -1.2188 -0.1043
 9603SOL    HW235668   9.399   8.853   1.955 -2.1275  0.8835  0.3030
 9604SOL     OW35669   9.151   3.896   0.117  0.1593  0.3929 -0.0603
 9604SOL    HW135670   9.224   3.836   0.129 -0.0988 -0.2380 -1.4106
 9604SOL    HW235671   9.164   3.964   0.183  0.4010 -1.1786  1.5828
 9605SOL     OW35672   7.060   4.975   6.533  0.0582 -0.0257 -0.4258
 9605SOL    HW135673   7.059   5.033   6.609 -0.0974 -1.6662  0.8902
 9605SOL    HW235674   7.152   4.964   6.511  0.1078  0.3868 -0.4278
 9606SOL     OW35675   1.435   1.867   9.699  0.2363  0.0773  0.0970
 9606SOL    HW135676   1.404   1.780   9.676 -2.6504  0.6371  1.3834
 9606SOL    HW235677   1.445   1.913   9.615 -2.3801 -0.2605 -0.4709
 9607SOL     OW35678   1.808   2.582   0.371  0.2344  0.4434 -0.3186
 9607SOL    HW135679   1.835   2.662   0.325  1.1312  1.2540  1.5138
 9607SOL    HW235680   1.889   2.532   0.380 -0.3116 -0.6930 -1.3910
 9608SOL     OW35681   4.877   4.239  12.240 -0.0300  0.3298 -0.1056
 9608SOL    HW135682   4.896   4.155  12.199 -0.6557 -0.3968  1.0193
 9608SOL    HW235683   4.830   4.216  12.321 -0.4751  1.7703  0.0801
 9609SOL     OW35684   4.684   0.277   0.977  0.0347 -0.4622  0.7744
 9609SOL    HW135685   4.743   0.300   1.049 -0.6393  1.9790  0.6508
 9609SOL    HW235686   4.602   0.322   0.998 -0.3264 -0.0466 -1.2610
 9610SOL     OW35687   9.587  11.416  12.142 -0.4910 -0.3067 -0.0467
 9610SOL    HW135688   9.671  11.437  12.099 -0.7782 -0.8580 -0.8934
 9610SOL    HW235689   9.525  11.407  12.070 -1.1876 -0.3543  0.5523
 9611SOL     OW35690   8.403  10.985  11.786 -0.2561 -0.1985  0.0689
 9611SOL    HW135691   8.428  11.073  11.756  1.3573 -1.1098 -1.4393
 9611SOL    HW235692   8.375  10.941  11.706 -0.4685 -1.2565  0.7168
 9612SOL     OW35693   6.268   1.226   8.837 -0.6604 -0.3216  0.1765
 9612SOL    HW135694   6.328   1.293   8.807  0.8141 -0.5399  2.4650
 9612SOL    HW235695   6.269   1.160   8.767 -0.2455  0.8692 -0.9695
 9613SOL     OW35696  12.548   2.500   0.463  0.1815  0.2730  0.1977
 9613SOL    HW135697  12.472   2.459   0.504  0.8559 -2.0621 -0.7626
 9613SOL    HW235698  12.511   2.554   0.393 -0.6484 -0.2248  0.2357
 9614SOL     OW35699   2.125   6.721   3.771  0.8818  0.4241 -0.1991
 9614SOL    HW135700   2.056   6.785   3.752 -0.0313  0.0391  1.5737
 9614SOL    HW235701   2.094   6.639   3.734  0.6837  0.3952  0.0281
 9615SOL     OW35702   0.177   0.625  11.239  0.0245  0.2069 -0.2272
 9615SOL    HW135703   0.161   0.648  11.147  0.3777  0.7790 -0.1510
 9615SOL    HW235704   0.179   0.529  11.239 -1.3427  0.1633 -0.5742
 9616SOL     OW35705   9.540  10.416  11.562 -0.7333  0.3469 -0.2451
 9616SOL    HW135706   9.624  10.397  11.520 -1.1360  0.4461 -1.1042
 9616SOL    HW235707   9.555  10.395  11.654 -0.3767 -1.7034 -0.7055
 9617SOL     OW35708   9.738   4.676   2.492  0.2582 -0.4779  0.4603
 9617SOL    HW135709   9.680   4.637   2.427  0.5194 -0.5731  0.2789
 9617SOL    HW235710   9.747   4.609   2.560  0.8209 -0.8004  0.0796
 9618SOL     OW35711   6.727   6.740   8.461 -0.0902  0.4965 -0.0162
 9618SOL    HW135712   6.659   6.700   8.516 -1.1253  1.0228 -0.8569
 9618SOL    HW235713   6.809   6.713   8.500 -0.7488 -1.6000  0.0308
 9619SOL     OW35714   6.911   6.260   0.266  0.1434 -0.7275  0.6136
 9619SOL    HW135715   6.932   6.279   0.174 -0.3506 -0.1658  0.6094
 9619SOL    HW235716   6.857   6.181   0.263 -1.7311  0.5002  0.2091
 9620SOL     OW35717   4.637   3.867   8.099 -0.1584 -0.7356 -0.1331
 9620SOL    HW135718   4.608   3.865   8.190  0.0410 -0.0211 -0.0521
 9620SOL    HW235719   4.567   3.822   8.051 -0.9559  0.1223  0.1854
 9621SOL     OW35720   0.481   0.159   0.519 -0.3232  0.0463 -0.4576
 9621SOL    HW135721   0.545   0.088   0.514 -0.6996 -0.3576  0.2911
 9621SOL    HW235722   0.481   0.185   0.611 -1.5430 -0.2452 -0.3602
 9622SOL     OW35723   2.249   7.631   6.322 -0.5765  0.1119  0.6825
 9622SOL    HW135724   2.176   7.569   6.330 -0.4488 -0.0698  0.4595
 9622SOL    HW235725   2.313   7.585   6.267 -0.7915  0.7264 -0.0997
 9623SOL     OW35726   1.252   7.713   7.389 -0.6339  0.0508 -0.1778
 9623SOL    HW135727   1.175   7.699   7.444 -0.3455 -2.2464 -0.2860
 9623SOL    HW235728   1.283   7.800   7.414 -0.3815 -0.9129  3.4563
 9624SOL     OW35729   3.775   3.744   3.344 -0.0161  0.0091  0.1325
 9624SOL    HW135730   3.684   3.764   3.320 -0.1978 -1.4036 -0.4536
 9624SOL    HW235731   3.808   3.825   3.382 -1.6571  0.4222  0.7529
 9625SOL     OW35732   4.606   9.012   3.276 -0.5307  0.0205  0.1398
 9625SOL    HW135733   4.622   9.105   3.264 -1.2976  0.2445  0.7731
 9625SOL    HW235734   4.603   9.000   3.371  0.5739 -0.8366  0.0916
 9626SOL     OW35735   1.517  10.193  11.252  0.4482 -0.9973  0.3236
 9626SOL    HW135736   1.434  10.195  11.299  0.9324  1.2131  1.1824
 9626SOL    HW235737   1.492  10.196  11.159 -0.5045  2.7288  0.5697
 9627SOL     OW35738   1.883   2.454   1.381  0.4551  0.1174 -0.1410
 9627SOL    HW135739   1.895   2.381   1.320 -0.0150 -0.2207  0.1633
 9627SOL    HW235740   1.970   2.469   1.417  0.8886  0.8011 -1.4216
 9628SOL     OW35741   0.981   1.394   1.596 -0.2126 -0.2408 -0.0539
 9628SOL    HW135742   0.916   1.363   1.533  0.5372 -0.2620 -0.8389
 9628SOL    HW235743   0.930   1.428   1.669 -1.2150  2.3975 -1.8423
 9629SOL     OW35744  10.413   5.662   8.377 -0.5040  0.2384  0.1593
 9629SOL    HW135745  10.384   5.596   8.440 -1.1956  0.8760  0.5202
 9629SOL    HW235746  10.497   5.628   8.345  1.0983  0.9900  3.1417
 9630SOL     OW35747  11.449  10.378  11.955  0.6423  0.6004  0.4772
 9630SOL    HW135748  11.433  10.283  11.953  2.4233  0.2590 -1.8963
 9630SOL    HW235749  11.378  10.415  11.904  0.1461  0.5379  1.1034
 9631SOL     OW35750   7.025   4.593  10.802 -0.3090  0.6850  0.4618
 9631SOL    HW135751   7.015   4.511  10.851  2.2612  0.8142  1.3966
 9631SOL    HW235752   6.965   4.654  10.845  1.7177  0.7484  3.5259
 9632SOL     OW35753   1.423   2.476   8.596  0.1764  0.4513  0.0330
 9632SOL    HW135754   1.449   2.393   8.636  0.0945  0.4890  0.1647
 9632SOL    HW235755   1.481   2.541   8.636  0.5463  0.3929 -0.4067
 9633SOL     OW35756   0.243   1.576   9.194 -0.6861 -0.1300 -0.0434
 9633SOL    HW135757   0.223   1.559   9.102  0.0403 -0.3862 -0.1612
 9633SOL    HW235758   0.327   1.532   9.209 -1.1332 -0.6817  0.9288
 9634SOL     OW35759   0.505   5.837  11.765  0.3310  0.2453  0.6902
 9634SOL    HW135760   0.579   5.894  11.785 -0.3098  1.0271  0.8943
 9634SOL    HW235761   0.485   5.854  11.672 -0.5896  1.2488  1.0467
 9635SOL     OW35762   9.272   8.756   8.502  0.0435  0.0220  0.1757
 9635SOL    HW135763   9.196   8.778   8.447 -0.0576 -0.8271 -0.0381
 9635SOL    HW235764   9.299   8.669   8.472  2.5746  1.2482 -1.3668
 9636SOL     OW35765   3.072   6.342   7.033  0.1502  1.2064  0.3461
 9636SOL    HW135766   3.085   6.409   6.967 -1.3541  0.9640 -0.2338
 9636SOL    HW235767   2.981   6.314   7.022 -0.1082  1.0558  2.4231
 9637SOL     OW35768  11.719   6.644  11.383  0.0410  0.0074 -0.6389
 9637SOL    HW135769  11.656   6.622  11.452  0.0165 -1.9475 -1.2100
 9637SOL    HW235770  11.692   6.730  11.352  0.0040  0.9358  1.6990
 9638SOL     OW35771   5.787  11.963   0.348  0.2833 -0.6714 -0.4363
 9638SOL    HW135772   5.856  11.908   0.386  0.7898  1.2924  1.6954
 9638SOL    HW235773   5.833  12.029   0.298 -0.2389 -1.1811 -1.6179
 9639SOL     OW35774  11.694   4.049   1.548 -0.4139  0.5609  0.2700
 9639SOL    HW135775  11.704   4.064   1.455 -0.7783  0.4937  0.2166
 9639SOL    HW235776  11.619   3.990   1.555  1.1799 -1.5483  0.4465
 9640SOL     OW35777   1.899   3.352   0.777  0.2239  0.3287  0.0245
 9640SOL    HW135778   1.919   3.442   0.800  0.4082  0.7134 -1.5216
 9640SOL    HW235779   1.804   3.351   0.763  0.0439 -0.0068  1.1442
 9641SOL     OW35780   8.058   0.440   7.485  0.5884  0.0543 -0.3476
 9641SOL    HW135781   8.069   0.400   7.572 -0.7119 -1.1806 -0.7233
 9641SOL    HW235782   8.045   0.366   7.426  2.3721  0.8156 -1.7894
 9642SOL     OW35783   1.034  12.015   0.785 -0.1626 -0.3392 -0.4399
 9642SOL    HW135784   0.962  12.017   0.722  0.5795 -1.3158 -1.3677
 9642SOL    HW235785   1.092  12.086   0.757  0.6344 -1.3555 -1.4926
 9643SOL     OW35786   2.074   5.099   5.199  0.0076  0.5964  0.3953
 9643SOL    HW135787   2.131   5.026   5.222  0.1208  0.1010 -1.3572
 9643SOL    HW235788   2.132   5.162   5.156 -0.8333 -0.2514 -2.1207
 9644SOL     OW35789   7.991   4.016   6.469  0.6777  0.6769  0.0323
 9644SOL    HW135790   7.935   4.055   6.536  0.4347  0.7710 -0.2193
 9644SOL    HW235791   8.038   3.947   6.514  1.0047  1.1640  0.4540
 9645SOL     OW35792   2.271   3.618   9.870  0.0957  0.4193  0.7461
 9645SOL    HW135793   2.206   3.625   9.940 -0.9948  0.7765 -0.2610
 9645SOL    HW235794   2.277   3.525   9.851 -1.6012  0.4860 -0.4269
 9646SOL     OW35795  12.049   9.850   9.656  0.2720  0.4971  0.2850
 9646SOL    HW135796  11.988   9.776   9.659 -1.2956  1.7050 -0.3692
 9646SOL    HW235797  12.119   9.825   9.717  0.3981 -1.9981 -0.7473
 9647SOL     OW35798   4.858  10.638  11.761  0.2994 -0.3553  0.2537
 9647SOL    HW135799   4.862  10.715  11.818  0.5537 -1.0201  1.1481
 9647SOL    HW235800   4.856  10.563  11.821 -2.3186 -1.0035 -0.5152
 9648SOL     OW35801   0.760   0.182   4.818  0.4054 -0.3448 -0.4597
 9648SOL    HW135802   0.709   0.124   4.874  1.8828  0.2514  1.6362
 9648SOL    HW235803   0.697   0.218   4.755 -1.0557 -2.0562 -0.0380
 9649SOL     OW35804   1.951   4.082  10.115  0.3395 -0.1524 -0.1254
 9649SOL    HW135805   1.904   4.055  10.036 -0.6309  0.8692  0.0725
 9649SOL    HW235806   2.042   4.088  10.088  0.0009  0.3015 -1.2015
 9650SOL     OW35807   2.616  10.401   7.730 -0.0292  0.2612 -0.1942
 9650SOL    HW135808   2.592  10.493   7.718 -0.2428  0.2429  0.0916
 9650SOL    HW235809   2.582  10.378   7.816  1.9236  0.5455  0.7081
 9651SOL     OW35810   8.737  10.807   5.847  0.0862 -0.0350  0.2381
 9651SOL    HW135811   8.689  10.778   5.770 -0.1638  1.0527 -0.0309
 9651SOL    HW235812   8.743  10.730   5.903 -0.4497 -0.6184 -0.5062
 9652SOL     OW35813   8.006  12.342   4.099  0.0520 -0.1190  0.4018
 9652SOL    HW135814   8.068  12.361   4.029  0.7216  0.9990  1.2740
 9652SOL    HW235815   8.047  12.376   4.178  0.1767 -3.0092  1.7192
 9653SOL     OW35816   5.851   0.324   3.798 -0.2688  0.2888 -0.6497
 9653SOL    HW135817   5.888   0.355   3.880 -2.2644 -1.5352  1.0832
 9653SOL    HW235818   5.915   0.261   3.764  2.0683  3.3032 -2.3066
 9654SOL     OW35819   4.455   7.461   7.838 -0.4958  0.3151 -0.6050
 9654SOL    HW135820   4.391   7.391   7.829 -0.9385  0.3898  1.4424
 9654SOL    HW235821   4.540   7.417   7.835 -0.7638 -0.3024  0.4348
 9655SOL     OW35822   3.373   4.567   4.630  0.5253  0.1375  0.9368
 9655SOL    HW135823   3.413   4.497   4.577  1.4103 -0.0848  1.8587
 9655SOL    HW235824   3.384   4.537   4.720 -0.3602  0.8221  1.2823
 9656SOL     OW35825   3.790   8.200   0.387  0.0931 -0.0511  0.6527
 9656SOL    HW135826   3.773   8.184   0.294 -2.2203  0.5090  0.9139
 9656SOL    HW235827   3.878   8.164   0.402 -0.0029 -1.3227 -1.4470
 9657SOL     OW35828   9.455   4.209   2.249  0.4498 -0.5860  0.4437
 9657SOL    HW135829   9.430   4.300   2.266  0.8235 -0.4007  0.0160
 9657SOL    HW235830   9.500   4.181   2.329 -1.4152 -1.0495  1.3968
 9658SOL     OW35831  11.421   9.764   6.882 -0.4026  0.2893  0.7022
 9658SOL    HW135832  11.328   9.779   6.895 -0.4880  0.0825  0.3428
 9658SOL    HW235833  11.426   9.677   6.841 -0.0271  0.1083  1.1220
 9659SOL     OW35834   6.841   4.768   3.263  0.2645  0.6130 -0.6022
 9659SOL    HW135835   6.925   4.797   3.227  0.5293 -0.7411 -1.1310
 9659SOL    HW235836   6.776   4.821   3.217  0.8034  1.8159 -0.0524
 9660SOL     OW35837   2.772   4.635  12.145  0.0351  0.8168  0.4271
 9660SOL    HW135838   2.709   4.634  12.216  0.1976  2.3470  0.6258
 9660SOL    HW235839   2.729   4.684  12.075 -0.9528 -2.3487 -1.4074
 9661SOL     OW35840  11.598   2.901  12.401  0.4658  0.1588  0.2659
 9661SOL    HW135841  11.687   2.870  12.419  0.3204 -0.6026 -0.3065
 9661SOL    HW235842  11.608   2.959  12.326  0.4198 -0.2714 -0.0748
 9662SOL     OW35843   4.432   8.177  12.539 -0.1139 -0.1283 -0.0400
 9662SOL    HW135844   4.430   8.265  12.577  1.1863  0.1705 -0.6129
 9662SOL    HW235845   4.509   8.177  12.482 -1.3309 -0.9242 -1.7985
 9663SOL     OW35846   9.389   1.489   0.654  0.4659  0.0536 -0.4248
 9663SOL    HW135847   9.398   1.402   0.693 -0.1303 -0.0764 -0.5629
 9663SOL    HW235848   9.434   1.482   0.570 -1.1458 -0.6870 -1.2687
 9664SOL     OW35849   9.216   6.274   8.500  0.0615 -0.1480 -0.1930
 9664SOL    HW135850   9.304   6.251   8.530  0.5793  0.3368 -1.3002
 9664SOL    HW235851   9.192   6.351   8.552  0.1612 -0.4551  0.3156
 9665SOL     OW35852   6.260   3.395  12.523 -0.3523  0.5396 -0.3642
 9665SOL    HW135853   6.331   3.402  12.458 -1.2025 -1.1260 -1.5735
 9665SOL    HW235854   6.293   3.332  12.587  0.0376  1.3181  0.2159
 9666SOL     OW35855   9.559   9.645   7.471  0.4144  0.0081 -0.2923
 9666SOL    HW135856   9.508   9.699   7.531  0.4493  0.6364 -0.8175
 9666SOL    HW235857   9.623   9.705   7.433 -0.0121 -0.2328 -1.4260
 9667SOL     OW35858   8.017  10.044  10.044 -0.4660  0.0687 -0.3463
 9667SOL    HW135859   8.014   9.952  10.016  0.7434 -0.6979  1.8389
 9667SOL    HW235860   8.084  10.046  10.112  0.5253  2.8884 -1.2835
 9668SOL     OW35861   1.560   9.049   3.015  0.4384  0.0670 -0.6334
 9668SOL    HW135862   1.643   9.048   2.967  1.2786  1.3382  0.6971
 9668SOL    HW235863   1.493   9.068   2.949  1.2408 -0.5904 -1.6668
 9669SOL     OW35864   7.115  10.156  11.998  0.0382  0.2555 -0.5248
 9669SOL    HW135865   7.025  10.139  11.973 -0.2975 -0.3663  0.9967
 9669SOL    HW235866   7.111  10.176  12.091  1.6133 -1.0223 -0.1380
 9670SOL     OW35867   3.109   8.703   2.490  0.0349  0.4012 -0.2641
 9670SOL    HW135868   3.069   8.753   2.561  0.7439 -0.0706  0.4902
 9670SOL    HW235869   3.040   8.646   2.458  0.2049 -0.7869  1.3779
 9671SOL     OW35870   3.862   0.261  10.455  0.2274 -0.2009 -0.8178
 9671SOL    HW135871   3.919   0.337  10.441 -0.4720  0.0726 -2.4508
 9671SOL    HW235872   3.862   0.216  10.371 -2.1951 -0.0181 -0.9876
 9672SOL     OW35873   2.434  11.007   3.881  0.1557  0.0079 -0.1308
 9672SOL    HW135874   2.412  10.928   3.832  0.4363 -1.4979  2.0351
 9672SOL    HW235875   2.354  11.029   3.928  0.4152  0.3340  0.1569
 9673SOL     OW35876  11.010   4.014   4.679  0.1179 -0.0979 -0.0392
 9673SOL    HW135877  10.978   3.940   4.626 -0.7103 -0.9714  1.6208
 9673SOL    HW235878  10.942   4.081   4.671 -0.3538 -0.5075  0.4811
 9674SOL     OW35879   0.745   8.215   1.072 -0.7139  0.2282 -0.6554
 9674SOL    HW135880   0.784   8.301   1.063  0.4642 -0.2105  0.0083
 9674SOL    HW235881   0.667   8.217   1.016 -0.6650  1.6817 -0.6982
 9675SOL     OW35882   8.266   9.748   1.920 -0.0570 -0.4492  0.7009
 9675SOL    HW135883   8.317   9.823   1.890 -1.1198  0.2255  0.5702
 9675SOL    HW235884   8.278   9.682   1.852 -1.7563  0.7708 -0.8647
 9676SOL     OW35885   9.312   9.688  11.424  0.0244 -0.8484 -0.5087
 9676SOL    HW135886   9.368   9.611  11.416 -0.6404 -1.3863 -0.1093
 9676SOL    HW235887   9.223   9.654  11.419 -0.2767 -0.0050 -1.1381
 9677SOL     OW35888   0.888  10.917   9.287  0.0408  0.6177  0.1978
 9677SOL    HW135889   0.937  10.995   9.312 -1.2316  1.5503 -0.0770
 9677SOL    HW235890   0.855  10.936   9.199 -0.6962 -0.0029  0.3250
 9678SOL     OW35891   2.425   3.015  10.331  0.2733 -0.2265  0.7613
 9678SOL    HW135892   2.493   3.011  10.263 -1.4411 -1.3816 -1.0302
 9678SOL    HW235893   2.345   2.989  10.285 -1.6705  2.2845  2.4482
 9679SOL     OW35894   0.234   3.726  11.982  0.0135 -0.6527 -0.0199
 9679SOL    HW135895   0.292   3.651  11.967 -0.0039 -0.4229 -1.3930
 9679SOL    HW235896   0.161   3.690  12.031  0.8735 -1.1385  0.9382
 9680SOL     OW35897   4.282   5.178  11.647 -0.2134  0.3902  0.0985
 9680SOL    HW135898   4.293   5.269  11.672  0.2068  0.7565 -1.3623
 9680SOL    HW235899   4.240   5.181  11.561  1.0970 -0.7407 -0.6331
 9681SOL     OW35900  12.362  10.253   9.591 -0.1325  0.1383 -0.0545
 9681SOL    HW135901  12.363  10.239   9.496  0.3520 -2.9920  0.3003
 9681SOL    HW235902  12.276  10.222   9.619 -1.3609  3.5429  0.3469
 9682SOL     OW35903  10.638  10.887   3.215  0.1514  0.3215  0.3962
 9682SOL    HW135904  10.558  10.835   3.207  0.6592 -0.5064  0.5854
 9682SOL    HW235905  10.653  10.894   3.309 -0.1145  1.1431  0.3875
 9683SOL     OW35906   9.634   9.321   1.706  0.8654 -0.4454  0.2959
 9683SOL    HW135907   9.583   9.240   1.714  0.5485 -0.3663 -0.8249
 9683SOL    HW235908   9.639   9.338   1.612  2.2034  0.0378  0.4277
 9684SOL     OW35909   5.750   1.693   8.601 -0.6188  0.2651  0.2964
 9684SOL    HW135910   5.746   1.614   8.654 -0.7129 -1.5817 -2.2682
 9684SOL    HW235911   5.834   1.688   8.556 -0.9308  1.2300 -0.4412
 9685SOL     OW35912   0.677   0.575  11.019 -0.0588 -0.3264 -0.3801
 9685SOL    HW135913   0.760   0.534  11.045  0.5750  0.5752 -0.9099
 9685SOL    HW235914   0.661   0.543  10.930  0.8346  1.1048 -1.0944
 9686SOL     OW35915   6.914   7.983  12.515  0.0318 -0.4576  0.0010
 9686SOL    HW135916   6.932   8.074  12.492 -0.5038 -0.8188 -2.1441
 9686SOL    HW235917   6.898   7.984  12.609  0.3878  1.5909  0.0878
 9687SOL     OW35918   8.836  10.248   1.793 -0.2859 -0.4877  0.2888
 9687SOL    HW135919   8.886  10.330   1.799 -0.1545 -0.6108  0.8839
 9687SOL    HW235920   8.849  10.205   1.877  1.7099 -2.3230 -0.8319
 9688SOL     OW35921   1.166   2.284  11.749  1.0154  0.1589 -0.1173
 9688SOL    HW135922   1.191   2.242  11.831  0.6338  0.8303  0.3602
 9688SOL    HW235923   1.248   2.295  11.700  1.4850  1.1569  0.8544
 9689SOL     OW35924   5.445   4.504  12.307 -0.0115  0.6351 -0.2282
 9689SOL    HW135925   5.439   4.531  12.399  1.3198 -0.5310  0.2469
 9689SOL    HW235926   5.446   4.586  12.258 -2.0490  1.2610  0.6643
 9690SOL     OW35927   1.790   9.470   4.795  0.4753  0.2596  0.4083
 9690SOL    HW135928   1.731   9.480   4.870  0.4625 -1.5192  0.6881
 9690SOL    HW235929   1.800   9.558   4.760 -2.1448  0.6631  0.5099
 9691SOL     OW35930   8.927   2.585   1.681  0.5483  0.1174  0.2552
 9691SOL    HW135931   8.954   2.666   1.639  1.7035  0.6013  1.8303
 9691SOL    HW235932   8.901   2.528   1.609  0.0708  1.7347 -0.9140
 9692SOL     OW35933   3.922  11.257   7.301 -0.2778  0.0204 -0.5457
 9692SOL    HW135934   3.846  11.314   7.302 -1.1410 -1.0740 -0.9775
 9692SOL    HW235935   3.893  11.177   7.345  0.9488 -0.0419  0.2081
 9693SOL     OW35936   0.296   4.728   8.969  0.5271  0.2485 -0.2572
 9693SOL    HW135937   0.364   4.732   9.036  0.9569  2.6982 -0.7194
 9693SOL    HW235938   0.322   4.794   8.904 -0.4869 -1.1946 -2.2552
 9694SOL     OW35939   3.588   3.501  11.958 -0.3590  0.2810  0.3582
 9694SOL    HW135940   3.635   3.456  11.887 -0.3426  0.6965  0.1026
 9694SOL    HW235941   3.498   3.469  11.950 -0.3921  0.4437  0.0492
 9695SOL     OW35942   6.483   3.135   6.366 -0.7744  0.5714  0.2663
 9695SOL    HW135943   6.425   3.081   6.419 -0.9828  0.8947  0.3698
 9695SOL    HW235944   6.542   3.177   6.430  0.0787 -0.3415  0.1080
 9696SOL     OW35945   0.646   4.468   7.557  0.2214  0.1568 -0.0629
 9696SOL    HW135946   0.647   4.534   7.626  1.6020  1.2763 -1.0875
 9696SOL    HW235947   0.733   4.428   7.561 -0.2693 -0.9461 -0.0884
 9697SOL     OW35948   1.316   3.733   4.622  0.7866  0.0053 -0.5762
 9697SOL    HW135949   1.351   3.647   4.646 -0.9090 -0.5603  0.0429
 9697SOL    HW235950   1.297   3.775   4.706 -4.1586 -1.5337 -0.6230
 9698SOL     OW35951   7.960  11.080   7.224  0.0223 -0.0328 -0.1011
 9698SOL    HW135952   7.867  11.068   7.204  0.0813  0.4020 -0.6670
 9698SOL    HW235953   8.005  11.050   7.145  0.3786 -0.4723  0.2622
 9699SOL     OW35954   0.765   9.853  12.319 -0.6142 -0.0684  0.5669
 9699SOL    HW135955   0.750   9.810  12.403 -0.0086 -0.7668  0.3199
 9699SOL    HW235956   0.751   9.784  12.254 -0.0810  0.2229  0.1417
 9700SOL     OW35957   4.607   2.240   9.401  0.2497  0.1386  0.1759
 9700SOL    HW135958   4.654   2.233   9.484 -0.6195 -0.9839  0.5912
 9700SOL    HW235959   4.520   2.270   9.425  0.5649  1.7731 -0.5513
 9701SOL     OW35960   3.695   2.380   7.554 -0.1082 -0.4404 -0.2101
 9701SOL    HW135961   3.777   2.361   7.599  0.0823  2.1836  0.7160
 9701SOL    HW235962   3.627   2.365   7.619 -0.1876 -0.5171 -0.3092
 9702SOL     OW35963   6.442   1.625   1.147  0.0080  1.4282 -0.2576
 9702SOL    HW135964   6.374   1.692   1.145  0.1409  1.5516 -0.8620
 9702SOL    HW235965   6.477   1.624   1.058 -0.2756  0.2659 -0.3625
 9703SOL     OW35966   3.973   4.855   5.549  0.6174 -0.5920  0.3744
 9703SOL    HW135967   3.899   4.851   5.610  0.6216 -1.1656  0.3491
 9703SOL    HW235968   3.933   4.849   5.462  0.6783 -0.7224  0.3550
 9704SOL     OW35969   3.654   5.576   5.115  0.1041 -0.4158  0.1042
 9704SOL    HW135970   3.723   5.513   5.093 -1.7623 -1.7981 -2.3854
 9704SOL    HW235971   3.578   5.521   5.134 -1.9252  0.9015 -3.3064
 9705SOL     OW35972   6.545   4.887  12.002 -0.3904 -0.2660  0.0708
 9705SOL    HW135973   6.622   4.934  12.035 -0.8784  1.2095 -0.8312
 9705SOL    HW235974   6.577   4.839  11.926 -0.0719 -0.7727  0.5148
 9706SOL     OW35975   2.549  12.159   5.996 -0.3305 -0.0227 -0.3929
 9706SOL    HW135976   2.639  12.129   6.013 -0.2421 -0.2789 -1.2447
 9706SOL    HW235977   2.531  12.130   5.907 -1.8575 -1.4270  0.3153
 9707SOL     OW35978   5.186   7.807   1.530  0.2934  0.0943 -0.0292
 9707SOL    HW135979   5.257   7.869   1.513  0.4115  0.4812  1.7574
 9707SOL    HW235980   5.227   7.721   1.523  0.5778  0.2654 -0.5302
 9708SOL     OW35981  11.129   2.021  11.362 -0.3578  0.2743  0.3690
 9708SOL    HW135982  11.037   2.000  11.348 -0.0364 -0.8477 -0.2402
 9708SOL    HW235983  11.173   1.935  11.364  0.9857  0.8278 -1.8165
 9709SOL     OW35984   3.817  10.474   6.516  0.4425  0.3566  0.5700
 9709SOL    HW135985   3.798  10.381   6.507 -0.3255  0.3634  1.8785
 9709SOL    HW235986   3.825  10.505   6.426  0.1235 -0.8525  0.0975
 9710SOL     OW35987   6.961   5.883   5.998  0.0126  0.0028  0.8177
 9710SOL    HW135988   7.050   5.859   5.972  0.6631  2.1920  0.8537
 9710SOL    HW235989   6.959   5.868   6.093  0.7300  0.9952  1.0036
 9711SOL     OW35990  12.258  10.261   9.002  0.3300  0.0654  0.3427
 9711SOL    HW135991  12.306  10.335   8.965  2.3797 -1.9328 -1.3889
 9711SOL    HW235992  12.228  10.211   8.926 -0.1565 -1.3645  1.4137
 9712SOL     OW35993   9.948  11.808  10.796  0.1577  0.2207  0.0643
 9712SOL    HW135994   9.946  11.875  10.864  1.1681  1.4669 -1.0860
 9712SOL    HW235995  10.037  11.812  10.761  0.5549 -2.3821  0.5689
 9713SOL     OW35996  10.574   3.335   6.342 -0.0906 -0.3488 -0.1153
 9713SOL    HW135997  10.582   3.359   6.250  1.4938  0.7458  0.2603
 9713SOL    HW235998  10.522   3.406   6.380 -2.7057 -1.9307 -0.5221
 9714SOL     OW35999   2.945   9.297   6.049  0.5897  0.0606 -0.5345
 9714SOL    HW136000   3.016   9.234   6.033  0.3843 -0.5875  0.9716
 9714SOL    HW236001   2.984   9.365   6.103 -0.0360 -0.5574  0.7283
 9715SOL     OW36002   3.441   1.211   1.264 -0.1897  0.1082  0.6140
 9715SOL    HW136003   3.476   1.293   1.229  1.6125 -0.0028  1.9788
 9715SOL    HW236004   3.391   1.173   1.192  1.2694  1.0629 -0.9842
 9716SOL     OW36005   0.058   9.931   0.218  0.0376 -0.5960 -0.4403
 9716SOL    HW136006   0.088   9.853   0.265 -1.1467 -0.3575  0.7644
 9716SOL    HW236007  -0.037   9.920   0.212 -0.0926  0.5686 -0.6014
 9717SOL     OW36008  11.998   9.375   7.689 -0.4662  0.2888 -0.0325
 9717SOL    HW136009  11.968   9.327   7.612 -5.5173  1.6251  0.7062
 9717SOL    HW236010  12.052   9.446   7.654 -0.4135 -0.6719 -2.0249
 9718SOL     OW36011   3.779   0.023   1.868  0.1656 -0.0435 -0.3713
 9718SOL    HW136012   3.798  -0.049   1.928 -0.1708  1.0641  1.1482
 9718SOL    HW236013   3.861   0.071   1.861  0.1539 -0.0641 -0.6516
 9719SOL     OW36014   3.898   3.932   4.987  0.2522 -0.0396  0.0390
 9719SOL    HW136015   3.965   3.970   5.043  0.4958 -1.1151  0.5017
 9719SOL    HW236016   3.889   3.995   4.915  2.0863 -0.0828 -0.2809
 9720SOL     OW36017  10.666   2.265   3.449 -0.1023  0.3546 -0.2342
 9720SOL    HW136018  10.681   2.254   3.543 -0.2168  0.2520 -0.2288
 9720SOL    HW236019  10.743   2.224   3.408 -1.2008 -1.7988 -0.2646
 9721SOL     OW36020   1.007   8.463   1.593  0.3807 -0.0027  0.5718
 9721SOL    HW136021   1.061   8.413   1.654  0.0857 -2.2085 -0.8704
 9721SOL    HW236022   1.050   8.452   1.508 -1.0480  0.1241 -0.2044
 9722SOL     OW36023   1.509   3.584   8.782  0.0774 -0.1094 -0.4802
 9722SOL    HW136024   1.508   3.492   8.807 -0.1113 -0.0701 -0.3356
 9722SOL    HW236025   1.438   3.593   8.719  0.8574 -0.3047 -1.4011
 9723SOL     OW36026   6.468   5.771   7.047 -0.1790  0.2489 -0.2073
 9723SOL    HW136027   6.425   5.733   6.970 -0.7217  0.6193 -0.0826
 9723SOL    HW236028   6.397   5.801   7.103  0.1963 -0.4354  0.6673
 9724SOL     OW36029   1.683  11.119   7.713  0.6487 -0.5365 -0.4846
 9724SOL    HW136030   1.614  11.055   7.698 -0.4835 -0.6991  3.9702
 9724SOL    HW236031   1.646  11.202   7.682 -0.5714 -1.0257 -0.3752
 9725SOL     OW36032   8.712   5.353  12.469 -0.5478 -0.4215  0.3878
 9725SOL    HW136033   8.757   5.324  12.389 -1.3661  0.2469 -0.3449
 9725SOL    HW236034   8.782   5.388  12.524 -0.1424  0.6729 -0.7575
 9726SOL     OW36035   4.734   9.827   5.626  0.3673  0.4061  0.3706
 9726SOL    HW136036   4.644   9.851   5.647  0.7406  1.4331  0.8759
 9726SOL    HW236037   4.751   9.870   5.542 -0.1341 -1.1667 -0.5699
 9727SOL     OW36038  10.434   4.683   8.355  0.2443 -0.4406  0.3108
 9727SOL    HW136039  10.516   4.726   8.330 -0.5476  0.3402 -1.0663
 9727SOL    HW236040  10.430   4.605   8.299 -1.3232  1.0775 -1.8394
 9728SOL     OW36041  12.037   6.362   3.525 -0.4589 -0.5363 -0.2091
 9728SOL    HW136042  12.037   6.457   3.542  0.6052 -0.3213 -1.2921
 9728SOL    HW236043  11.958   6.348   3.473 -0.8960 -0.3368  0.3887
 9729SOL     OW36044   7.310  11.573   0.339  0.0462  0.2282  0.1131
 9729SOL    HW136045   7.222  11.592   0.370 -0.0113  0.4683 -0.1963
 9729SOL    HW236046   7.315  11.477   0.337 -0.1088  0.2130  0.4036
 9730SOL     OW36047   8.108   8.645   5.155 -0.2484 -0.6430  0.1038
 9730SOL    HW136048   8.074   8.601   5.077 -1.0022 -1.9572  1.1255
 9730SOL    HW236049   8.137   8.574   5.212  1.9499  0.3398  0.3413
 9731SOL     OW36050   0.776   8.537   7.604 -0.2576  0.1503  0.0183
 9731SOL    HW136051   0.745   8.504   7.688  0.0953 -1.8841 -0.5923
 9731SOL    HW236052   0.730   8.483   7.539 -0.5872  1.7284 -1.1187
 9732SOL     OW36053   8.981   6.863  12.370 -0.1123 -0.9525 -0.3119
 9732SOL    HW136054   9.001   6.787  12.317  0.2124 -1.7488  0.9200
 9732SOL    HW236055   9.022   6.846  12.455 -1.4872 -0.2032  0.5494
 9733SOL     OW36056   2.243   3.246   7.702  0.1287  0.3736 -0.0174
 9733SOL    HW136057   2.278   3.263   7.790 -1.7942  0.9654  0.7068
 9733SOL    HW236058   2.247   3.331   7.658  0.9555  0.1095 -0.4701
 9734SOL     OW36059  11.409   0.823  11.715  0.7689 -0.0383 -0.2117
 9734SOL    HW136060  11.479   0.839  11.778  0.7344  0.2976 -0.2554
 9734SOL    HW236061  11.357   0.903  11.716  0.3588 -0.3039 -0.1464
 9735SOL     OW36062   9.822   2.054   6.864  0.6887  0.8307  0.0201
 9735SOL    HW136063   9.816   2.053   6.768  1.1788 -0.2355 -0.0135
 9735SOL    HW236064   9.761   1.985   6.892 -0.8423  2.3434  0.5917
 9736SOL     OW36065   6.960   3.281  10.963  0.0341  0.3631  0.2721
 9736SOL    HW136066   6.969   3.186  10.971  0.5597  0.5373  2.5987
 9736SOL    HW236067   6.873   3.294  10.924 -1.2564 -1.0816  2.4649
 9737SOL     OW36068   7.983   0.676   6.111 -0.9068 -0.6624  0.3806
 9737SOL    HW136069   7.963   0.701   6.021  1.9650  2.7558  0.4542
 9737SOL    HW236070   7.906   0.704   6.161 -1.4005 -0.0185 -0.7011
 9738SOL     OW36071  10.685  11.492   2.767  0.3164  0.2698  0.1652
 9738SOL    HW136072  10.713  11.441   2.844  1.5054  0.6728  0.0120
 9738SOL    HW236073  10.621  11.554   2.802  2.7017  2.2045  1.3763
 9739SOL     OW36074   4.530  12.084   8.404  0.2644  0.1682  0.3540
 9739SOL    HW136075   4.544  12.139   8.481  1.2803  2.2253 -1.1944
 9739SOL    HW236076   4.617  12.048   8.386  0.1267  0.0586 -0.0823
 9740SOL     OW36077   5.615  12.337   5.896  0.2066  1.2575  0.1993
 9740SOL    HW136078   5.701  12.380   5.887  0.6576  0.3262 -0.0655
 9740SOL    HW236079   5.589  12.355   5.986  1.1800  0.6685  0.6178
 9741SOL     OW36080   2.709   5.376   2.461 -0.0004 -0.3080  0.0898
 9741SOL    HW136081   2.618   5.404   2.457  0.5700  1.6397  0.0159
 9741SOL    HW236082   2.753   5.443   2.513  1.6621 -0.4734 -1.0316
 9742SOL     OW36083   0.956  12.338   1.881  0.2546  0.3343 -0.5636
 9742SOL    HW136084   0.870  12.300   1.863  0.6408 -0.2957 -1.1423
 9742SOL    HW236085   0.960  12.345   1.976 -1.2999  2.4446 -0.6057
 9743SOL     OW36086   5.330  11.347   0.981 -0.0685 -0.3387 -0.5555
 9743SOL    HW136087   5.249  11.400   0.984 -0.8648 -1.4888 -1.1539
 9743SOL    HW236088   5.353  11.344   0.889  0.3151 -0.5280 -0.4527
 9744SOL     OW36089   6.894   3.228   7.609  0.4373  0.2432 -0.2350
 9744SOL    HW136090   6.843   3.153   7.640 -0.2383  0.6869 -0.2624
 9744SOL    HW236091   6.939   3.260   7.688  3.4792 -2.2087 -0.7465
 9745SOL     OW36092   4.755   3.409   6.408  0.3540 -0.3838  0.0134
 9745SOL    HW136093   4.696   3.364   6.347  0.3739 -1.7964  0.9821
 9745SOL    HW236094   4.701   3.425   6.486  0.7888 -0.1733  0.2757
 9746SOL     OW36095   7.905   4.900   0.344 -0.3908  0.6642 -0.1675
 9746SOL    HW136096   7.900   4.910   0.440  1.1199  2.9448 -0.2452
 9746SOL    HW236097   7.975   4.836   0.331 -0.6440  0.2920  0.2403
 9747SOL     OW36098   4.112  10.259  10.447 -0.8170  0.4044  1.2962
 9747SOL    HW136099   4.034  10.315  10.439 -1.2228 -0.1755  1.1683
 9747SOL    HW236100   4.184  10.321  10.457 -0.6444  1.1868 -2.9548
 9748SOL     OW36101  11.415   5.276  12.444 -0.0274  0.2306 -0.2954
 9748SOL    HW136102  11.339   5.323  12.410 -0.3886  0.3119  0.5956
 9748SOL    HW236103  11.395   5.262  12.536  0.0856 -1.6528 -0.5137
 9749SOL     OW36104   3.148   7.921   1.767 -0.2937 -0.0800  0.1834
 9749SOL    HW136105   3.129   8.008   1.803  0.3947  0.6541 -1.1607
 9749SOL    HW236106   3.238   7.927   1.735 -0.5275 -1.0203 -0.7121
 9750SOL     OW36107   7.652  11.175   1.711 -0.3170  0.5485  0.1962
 9750SOL    HW136108   7.562  11.193   1.684  0.4377  3.2320 -0.9458
 9750SOL    HW236109   7.677  11.251   1.764  1.1139 -0.4055  0.9751
 9751SOL     OW36110   5.116   1.619   4.329  0.0341  0.6213  0.0284
 9751SOL    HW136111   5.102   1.525   4.336  0.4945  0.5610  0.2058
 9751SOL    HW236112   5.211   1.630   4.340  0.2829  0.9146 -1.9260
 9752SOL     OW36113   8.790   8.399  10.425 -0.0483  0.0783  0.4754
 9752SOL    HW136114   8.725   8.338  10.460  1.5644 -2.2935 -0.4069
 9752SOL    HW236115   8.738   8.473  10.392 -2.0154 -0.2650  2.5443
 9753SOL     OW36116  10.895   4.046  12.507  0.1731 -0.2474 -0.0179
 9753SOL    HW136117  10.809   4.008  12.524  0.9374 -1.6306  1.0048
 9753SOL    HW236118  10.894   4.069  12.414 -0.6404 -2.0420 -0.4904
 9754SOL     OW36119   5.460   9.223   9.957  0.1191  0.4177  0.2159
 9754SOL    HW136120   5.518   9.258   9.890 -0.4524  1.4851  0.2577
 9754SOL    HW236121   5.487   9.266  10.038 -0.6959  0.9012  0.2422
 9755SOL     OW36122   5.445   1.137  12.364  0.2832 -0.5191 -0.0187
 9755SOL    HW136123   5.491   1.202  12.310 -1.3135  0.8645  0.1843
 9755SOL    HW236124   5.445   1.175  12.452 -1.1706 -0.4894 -0.0119
 9756SOL     OW36125   8.253   2.616   9.279 -0.6659 -0.3347 -0.3057
 9756SOL    HW136126   8.229   2.709   9.273  0.3713  0.1035  1.6214
 9756SOL    HW236127   8.348   2.615   9.275 -0.6698 -1.3376 -0.4322
 9757SOL     OW36128  11.277   6.885   7.059  0.3311  0.2383  0.3845
 9757SOL    HW136129  11.264   6.934   7.140 -1.0345 -0.2458  0.4868
 9757SOL    HW236130  11.316   6.948   6.999  0.3505  0.9042  1.0779
 9758SOL     OW36131   0.167   8.684   1.870 -0.5536  0.4984 -0.5369
 9758SOL    HW136132   0.157   8.721   1.958 -0.5340  1.0302 -0.7491
 9758SOL    HW236133   0.244   8.728   1.834  0.7429 -1.2838 -0.0510
 9759SOL     OW36134   2.728   0.241  11.038 -0.1777  0.2796  0.3396
 9759SOL    HW136135   2.659   0.285  11.088 -0.0786  0.1083  0.6288
 9759SOL    HW236136   2.683   0.168  10.994 -0.1588  0.0986  0.6205
 9760SOL     OW36137   5.293   8.368   2.542 -0.3167  0.1317  0.5288
 9760SOL    HW136138   5.290   8.309   2.617 -0.5019 -0.0855  0.3524
 9760SOL    HW236139   5.216   8.424   2.553 -2.6545 -2.3864 -1.5062
 9761SOL     OW36140   3.009  11.455   0.437 -0.3497  0.1958 -0.2548
 9761SOL    HW136141   3.001  11.518   0.509 -3.6813 -0.3094 -0.0374
 9761SOL    HW236142   2.941  11.480   0.375 -0.9103 -2.3686 -0.7915
 9762SOL     OW36143  10.079   0.938   0.554 -0.5603 -0.1129  1.2781
 9762SOL    HW136144  10.067   0.924   0.460 -1.0098  1.6267  1.0498
 9762SOL    HW236145  10.170   0.913   0.570  0.5164  2.4994 -0.2488
 9763SOL     OW36146   1.311   2.097   3.511 -0.2228  0.1636 -0.4075
 9763SOL    HW136147   1.323   2.044   3.589  1.4639 -0.8789 -1.3039
 9763SOL    HW236148   1.359   2.178   3.529  1.1855 -0.5540 -0.7503
 9764SOL     OW36149   7.102   1.012   5.276  0.0561  0.0465 -0.6946
 9764SOL    HW136150   7.104   1.106   5.297 -0.7419 -0.0804  0.0038
 9764SOL    HW236151   7.194   0.990   5.257  0.2257  1.0006 -1.0434
 9765SOL     OW36152   3.594   5.887  10.951 -0.2178  0.2729  0.3810
 9765SOL    HW136153   3.649   5.874  11.028 -2.1534 -2.6173  1.4703
 9765SOL    HW236154   3.514   5.928  10.985 -1.0719 -0.9812 -0.0269
 9766SOL     OW36155   8.443   4.185   4.335  0.1287  0.1037  0.0858
 9766SOL    HW136156   8.350   4.207   4.338  0.4448  1.5017  0.8620
 9766SOL    HW236157   8.487   4.269   4.327  1.3082 -0.6196 -1.6985
 9767SOL     OW36158   9.804   3.739  10.001 -0.0680  0.1893  0.2746
 9767SOL    HW136159   9.745   3.779   9.937  1.5519  1.0115 -0.7741
 9767SOL    HW236160   9.768   3.766  10.086 -1.3867  0.3641 -0.3148
 9768SOL     OW36161   8.655   9.807   9.413  0.1182 -0.1739 -0.3469
 9768SOL    HW136162   8.713   9.826   9.339 -1.1703  2.2176 -0.8530
 9768SOL    HW236163   8.601   9.734   9.383  1.1828 -0.8023 -0.8049
 9769SOL     OW36164   0.276   6.430   9.077 -0.3796 -0.6792  0.0742
 9769SOL    HW136165   0.187   6.395   9.088 -1.0360  1.2741  1.5504
 9769SOL    HW236166   0.286   6.441   8.982 -1.9281 -0.4559 -0.0888
 9770SOL     OW36167  12.331   5.583   0.975 -0.8435 -0.1599 -0.1594
 9770SOL    HW136168  12.420   5.586   0.939 -0.0971 -2.1622  1.3485
 9770SOL    HW236169  12.285   5.655   0.931  1.8175  1.6865 -0.1509
 9771SOL     OW36170   3.450   8.449   2.882  0.1430 -0.5612  0.3792
 9771SOL    HW136171   3.485   8.360   2.877  0.0486 -0.5260 -1.4184
 9771SOL    HW236172   3.476   8.480   2.969  0.9756 -2.0139  0.6763
 9772SOL     OW36173   6.791   5.911   4.666  1.0057  0.1242 -0.9354
 9772SOL    HW136174   6.848   5.865   4.604  1.3359  0.5807 -0.9718
 9772SOL    HW236175   6.851   5.955   4.725  0.7197 -1.1873  0.4029
 9773SOL     OW36176  10.817   6.746   0.094 -0.1727  0.1966  0.2023
 9773SOL    HW136177  10.731   6.781   0.117 -1.0153  0.0591 -2.3509
 9773SOL    HW236178  10.876   6.821   0.101 -1.1497  1.1300 -1.0399
 9774SOL     OW36179   2.028   0.700   8.030 -0.0349  0.4191  0.3888
 9774SOL    HW136180   1.943   0.733   8.000  0.3420  0.4449 -0.6761
 9774SOL    HW236181   2.009   0.663   8.116 -1.6322 -1.7828 -0.8109
 9775SOL     OW36182   7.681   6.141   8.323 -0.1923 -0.0845 -0.0733
 9775SOL    HW136183   7.604   6.125   8.379 -1.1565 -1.2810 -1.6360
 9775SOL    HW236184   7.645   6.149   8.235  1.4306 -0.0309 -0.7639
 9776SOL     OW36185   3.413   2.438   3.528 -0.3348  0.2311 -0.3435
 9776SOL    HW136186   3.415   2.533   3.514  0.2331  0.3986  0.8249
 9776SOL    HW236187   3.327   2.421   3.567 -1.0042  0.0552 -1.8066
 9777SOL     OW36188   6.863   0.868   0.218 -0.0415 -0.0795 -0.2021
 9777SOL    HW136189   6.946   0.907   0.247  0.4780 -1.3297  0.0534
 9777SOL    HW236190   6.876   0.774   0.227 -1.9787 -0.2737  1.1279
 9778SOL     OW36191   6.871   0.053   1.701 -0.3813  0.4861  0.0396
 9778SOL    HW136192   6.910   0.062   1.788  0.4065  1.2082 -0.3833
 9778SOL    HW236193   6.810  -0.021   1.710  2.0740 -1.6259  0.3484
 9779SOL     OW36194   4.415   7.614   8.312  0.2267 -1.2306 -0.2823
 9779SOL    HW136195   4.329   7.647   8.339 -0.1159 -1.6964 -0.7696
 9779SOL    HW236196   4.396   7.530   8.270  1.1393 -2.5244  1.7068
 9780SOL     OW36197  11.372   1.245  11.665 -0.0590  0.1956 -0.0711
 9780SOL    HW136198  11.364   1.316  11.729  1.6818  1.2150 -0.9188
 9780SOL    HW236199  11.318   1.174  11.701 -1.7082  1.8547  0.8901
 9781SOL     OW36200   3.538   2.445   2.078 -0.0577 -0.2755  0.3705
 9781SOL    HW136201   3.469   2.431   2.142 -1.4611 -1.4697 -1.3184
 9781SOL    HW236202   3.577   2.359   2.065  0.8198  0.1283  0.2678
 9782SOL     OW36203   6.355  11.882   8.388 -1.0067 -0.0936  0.5805
 9782SOL    HW136204   6.280  11.934   8.417 -0.7269  0.4317  0.3913
 9782SOL    HW236205   6.399  11.857   8.469 -1.4545 -0.5161  0.6987
 9783SOL     OW36206   0.764   2.453   1.805  0.6472 -0.4460 -0.4612
 9783SOL    HW136207   0.739   2.415   1.889 -2.2535 -2.3240 -1.9931
 9783SOL    HW236208   0.820   2.387   1.765 -0.4205 -0.9588 -1.1571
 9784SOL     OW36209   3.382   2.243   0.893  0.0680 -0.3366  0.1436
 9784SOL    HW136210   3.434   2.293   0.956  0.5687 -1.1257  0.3662
 9784SOL    HW236211   3.440   2.175   0.862  0.0314  0.3849 -1.6468
 9785SOL     OW36212   7.283   3.014   6.884  0.0314  0.0914 -0.0434
 9785SOL    HW136213   7.362   3.065   6.903  0.1286  0.0195 -0.2490
 9785SOL    HW236214   7.275   2.954   6.958  0.7200 -0.5674 -0.4918
 9786SOL     OW36215   4.078   9.651   8.302  0.3265 -0.2230  0.8884
 9786SOL    HW136216   4.134   9.585   8.341 -0.8671 -1.9597 -0.1917
 9786SOL    HW236217   3.994   9.642   8.347 -0.1898 -0.2576 -0.0444
 9787SOL     OW36218  11.489   8.879   1.754  0.0259 -0.2676 -0.0654
 9787SOL    HW136219  11.455   8.815   1.816 -0.4023  0.5891  0.6168
 9787SOL    HW236220  11.418   8.943   1.745  1.1215  1.1155  0.7389
 9788SOL     OW36221   8.443   8.215   0.630 -0.0622 -0.3090 -0.0928
 9788SOL    HW136222   8.348   8.206   0.620  0.0056 -2.0323  0.4581
 9788SOL    HW236223   8.476   8.219   0.540 -0.5544 -1.4158 -0.3473
 9789SOL     OW36224   5.138   0.292   8.183 -0.1853 -0.2499 -0.0382
 9789SOL    HW136225   5.231   0.298   8.205 -0.2118 -1.9074  0.7204
 9789SOL    HW236226   5.094   0.298   8.268 -0.8659  1.5647 -0.4902
 9790SOL     OW36227   0.831  10.454  11.407 -0.0973 -0.1388 -0.3538
 9790SOL    HW136228   0.780  10.375  11.393  0.6811 -0.5434 -1.0687
 9790SOL    HW236229   0.917  10.434  11.370  0.4866  0.6234  0.5206
 9791SOL     OW36230   8.695   9.228   7.305  0.0865  0.3232 -0.5259
 9791SOL    HW136231   8.602   9.211   7.320 -0.1684  0.2078 -2.0124
 9791SOL    HW236232   8.717   9.172   7.230  1.2088  0.7908 -0.5608
 9792SOL     OW36233   5.973   4.992   8.822 -0.1761  0.1353  0.2491
 9792SOL    HW136234   6.015   5.001   8.736  2.1253  1.3671  1.4017
 9792SOL    HW236235   5.955   5.082   8.849 -0.8469 -0.2347  1.0936
 9793SOL     OW36236   8.951  11.564   4.606  0.4007  0.2228 -0.4450
 9793SOL    HW136237   8.982  11.521   4.687  0.3629  2.3373  0.7623
 9793SOL    HW236238   8.878  11.618   4.634  0.2291  0.8264 -1.9688
 9794SOL     OW36239   1.499  10.551  10.154  0.0751  0.0821  0.0654
 9794SOL    HW136240   1.583  10.583  10.186 -0.8222  1.4513  1.2110
 9794SOL    HW236241   1.480  10.606  10.078 -0.8468  1.4462  1.2337
 9795SOL     OW36242   3.092   1.607  10.540  0.1903  0.3271  0.3101
 9795SOL    HW136243   3.181   1.576  10.524  0.7970  1.8945  0.4039
 9795SOL    HW236244   3.067   1.649  10.457  0.0877  1.1064  0.7284
 9796SOL     OW36245   0.844   1.439   0.656  0.1767 -0.2759 -0.1129
 9796SOL    HW136246   0.869   1.493   0.581 -0.2812 -0.6781 -0.5662
 9796SOL    HW236247   0.773   1.384   0.623 -0.9256  0.4399  0.9819
 9797SOL     OW36248   6.989   8.640   6.862  0.0767 -0.2522 -0.1223
 9797SOL    HW136249   6.953   8.576   6.800  0.7892 -0.7934  0.0117
 9797SOL    HW236250   7.078   8.611   6.877 -0.4345 -0.8096  2.0712
 9798SOL     OW36251   3.314   9.416   4.210 -0.0834 -1.1578  0.4525
 9798SOL    HW136252   3.391   9.367   4.240  0.6704 -0.4612 -0.3189
 9798SOL    HW236253   3.329   9.429   4.117 -0.6639 -0.1445  0.4962
 9799SOL     OW36254   4.388   3.607  12.173  0.4564  0.1171  0.2113
 9799SOL    HW136255   4.357   3.520  12.148  0.7684  0.5383 -1.7737
 9799SOL    HW236256   4.359   3.665  12.103  0.8607  1.5188  1.1457
 9800SOL     OW36257   1.398  11.931   8.716  0.0465  0.7589 -0.2713
 9800SOL    HW136258   1.456  11.957   8.787 -0.4364  0.2432  0.3201
 9800SOL    HW236259   1.450  11.945   8.636  2.1830 -2.6120  0.3362
 9801SOL     OW36260   6.841   1.137   6.537  0.3182 -0.3879  0.0721
 9801SOL    HW136261   6.788   1.178   6.469  0.5965  1.8821  1.1146
 9801SOL    HW236262   6.922   1.111   6.493  0.0493  0.0374 -0.6842
 9802SOL     OW36263   0.960   5.038   6.253  0.2684  0.1574  0.5213
 9802SOL    HW136264   0.925   5.039   6.342 -1.8344  1.2120 -0.2629
 9802SOL    HW236265   0.888   5.068   6.198  1.3510 -0.9399 -1.6257
 9803SOL     OW36266   3.183  11.316  10.332 -0.0886  0.5932 -0.2801
 9803SOL    HW136267   3.098  11.316  10.287 -0.3079 -0.0953  0.1271
 9803SOL    HW236268   3.233  11.385  10.288 -1.5135  2.3539  0.7125
 9804SOL     OW36269   0.255  11.340  11.985 -0.0355  0.5924 -0.6378
 9804SOL    HW136270   0.233  11.376  12.071 -0.9874  0.2046 -0.7037
 9804SOL    HW236271   0.174  11.343  11.936  0.2358 -0.1909 -1.1622
 9805SOL     OW36272  11.528   0.804   0.042 -0.5742  0.4016 -0.2122
 9805SOL    HW136273  11.552   0.893   0.069 -0.4572  0.1598  0.4999
 9805SOL    HW236274  11.607   0.753   0.055 -0.4740  0.3082 -1.1789
 9806SOL     OW36275  12.266   0.916   9.359  0.2460 -0.5823 -0.0036
 9806SOL    HW136276  12.198   0.849   9.373  0.6048 -1.0042 -0.2485
 9806SOL    HW236277  12.287   0.947   9.447  0.8618 -1.5846  0.2098
 9807SOL     OW36278   1.829   6.702   8.752 -0.0972  0.1156  0.3242
 9807SOL    HW136279   1.761   6.770   8.747 -1.3924 -1.2164 -1.8770
 9807SOL    HW236280   1.789   6.633   8.806 -0.5618 -0.6673 -0.9697
 9808SOL     OW36281   6.013   6.532  10.073 -0.2918 -0.7075 -0.7744
 9808SOL    HW136282   6.045   6.448  10.107  0.4683 -0.4042 -0.7160
 9808SOL    HW236283   5.944   6.558  10.135 -0.1496 -1.0244 -0.4771
 9809SOL     OW36284  10.721  11.605   3.151  0.1980 -0.0270  0.1496
 9809SOL    HW136285  10.716  11.609   3.247 -0.7984  0.6557  0.0848
 9809SOL    HW236286  10.758  11.519   3.132 -1.7456 -1.1251  1.0921
 9810SOL     OW36287   9.003  10.586   7.770 -0.0879 -0.3872  0.1808
 9810SOL    HW136288   8.946  10.661   7.784 -2.7879 -1.8105 -2.2385
 9810SOL    HW236289   9.034  10.595   7.680 -1.9402 -2.9484 -0.8397
 9811SOL     OW36290  11.481   8.846   0.113 -0.8039  0.2198 -0.5219
 9811SOL    HW136291  11.441   8.931   0.132 -1.9951 -0.0313 -1.7689
 9811SOL    HW236292  11.513   8.854   0.024  1.1297  0.0827  0.1191
 9812SOL     OW36293   7.366   2.577   0.704 -0.0173 -0.1167 -0.0655
 9812SOL    HW136294   7.311   2.655   0.712 -2.5538 -1.7526 -0.3303
 9812SOL    HW236295   7.392   2.575   0.612 -1.9104 -0.7606 -0.6241
 9813SOL     OW36296   5.802   7.112   7.496  0.2442 -0.1084  0.1417
 9813SOL    HW136297   5.853   7.107   7.577  2.3485 -0.6576 -1.1340
 9813SOL    HW236298   5.732   7.175   7.516  1.4188  0.7172  1.9870
 9814SOL     OW36299   2.097  10.639   5.585  0.0410 -0.0507  0.0197
 9814SOL    HW136300   2.028  10.577   5.559  2.4528 -2.4302 -1.2283
 9814SOL    HW236301   2.064  10.724   5.558 -2.5119 -1.0276 -0.2392
 9815SOL     OW36302   1.585  10.555   8.763 -0.1036  0.1852  0.3447
 9815SOL    HW136303   1.502  10.601   8.751 -0.4044 -0.3078  0.5216
 9815SOL    HW236304   1.563  10.463   8.751  0.9089  0.1880 -2.4078
 9816SOL     OW36305   2.804   0.441   8.625 -0.8544 -0.3150 -0.1285
 9816SOL    HW136306   2.827   0.358   8.582 -0.8282 -0.6125  0.4485
 9816SOL    HW236307   2.828   0.428   8.717 -0.1073  0.6198 -0.1767
 9817SOL     OW36308   5.511   9.513   2.214 -0.3026 -0.1317 -0.7314
 9817SOL    HW136309   5.564   9.435   2.230  0.1558  0.2223 -0.4790
 9817SOL    HW236310   5.575   9.580   2.188 -0.7845 -0.0993 -1.9293
 9818SOL     OW36311  11.801   4.546   3.568 -0.3467  0.0248 -0.0774
 9818SOL    HW136312  11.738   4.496   3.517 -0.5809  1.5073 -1.3019
 9818SOL    HW236313  11.885   4.503   3.551 -0.4845  0.2586 -1.4264
 9819SOL     OW36314  11.837   5.435   8.802 -0.5646 -0.0847 -0.2497
 9819SOL    HW136315  11.796   5.520   8.819 -0.4961 -0.5170  2.5054
 9819SOL    HW236316  11.908   5.455   8.740 -0.5796  1.8650  0.2865
 9820SOL     OW36317   5.626  10.797   5.373 -0.0025  0.5479 -0.2095
 9820SOL    HW136318   5.694  10.789   5.306  0.6107  0.7102  0.3812
 9820SOL    HW236319   5.567  10.724   5.356 -0.0389  0.7821 -1.1302
 9821SOL     OW36320   5.981   4.852   6.640 -0.0520 -0.2252  0.3216
 9821SOL    HW136321   6.036   4.818   6.570  0.2722 -0.8262  0.8531
 9821SOL    HW236322   6.034   4.921   6.681 -0.3823  0.3726 -0.2349
 9822SOL     OW36323   9.006   6.460   0.455 -0.5349 -0.1223  0.0368
 9822SOL    HW136324   8.983   6.539   0.406 -1.8287 -0.8699 -0.6105
 9822SOL    HW236325   9.096   6.441   0.428 -0.3416  0.8921 -0.1026
 9823SOL     OW36326   4.294  12.252   3.403 -0.0448  0.0849  0.3122
 9823SOL    HW136327   4.329  12.331   3.362 -0.3758 -0.0258 -0.2013
 9823SOL    HW236328   4.199  12.260   3.392 -0.0420 -0.7367 -0.4150
 9824SOL     OW36329   5.715   8.647   6.224 -0.9191 -0.5263 -0.0703
 9824SOL    HW136330   5.678   8.603   6.300  1.2944  0.1308  1.4879
 9824SOL    HW236331   5.683   8.737   6.230 -1.8123 -0.7911 -0.6986
 9825SOL     OW36332   5.028   5.610   9.043  0.4734 -0.1410  0.3472
 9825SOL    HW136333   4.998   5.618   9.134 -1.6309  1.6037 -0.3929
 9825SOL    HW236334   5.090   5.682   9.032  0.6705 -0.3049  0.3969
 9826SOL     OW36335   0.119   6.523   6.336  0.6135 -0.8589  0.3396
 9826SOL    HW136336   0.070   6.583   6.279  0.2598 -0.3786  1.1266
 9826SOL    HW236337   0.100   6.554   6.425 -0.3265 -2.6878  0.8225
 9827SOL     OW36338   4.800  11.932   4.967 -0.4961 -0.6543 -0.1505
 9827SOL    HW136339   4.809  11.862   4.902  1.9443 -0.6023  0.0300
 9827SOL    HW236340   4.715  11.917   5.008 -1.6291 -1.3478 -2.5586
 9828SOL     OW36341   6.229   1.309   9.485  0.3486 -0.1794  0.0771
 9828SOL    HW136342   6.183   1.225   9.486 -0.3642  0.2121  0.2103
 9828SOL    HW236343   6.311   1.290   9.438 -0.5063 -0.5822 -1.3204
 9829SOL     OW36344  10.112  11.224   4.931 -0.1059  0.6231  0.2859
 9829SOL    HW136345  10.159  11.281   4.993  1.1221 -0.3761  0.3209
 9829SOL    HW236346  10.080  11.152   4.984  1.7023 -0.6952 -0.2938
 9830SOL     OW36347   0.028  10.538   9.239  0.1786 -0.5365 -0.1922
 9830SOL    HW136348   0.113  10.581   9.230  0.9310 -1.8365  0.4531
 9830SOL    HW236349  -0.033  10.596   9.193  1.3508  0.5753 -0.4008
 9831SOL     OW36350   5.813   2.757   2.611  0.1844 -0.8460 -0.5072
 9831SOL    HW136351   5.824   2.805   2.693 -0.3194  0.4642 -1.1944
 9831SOL    HW236352   5.752   2.686   2.634 -1.1990  0.4336 -0.0885
 9832SOL     OW36353   3.727   3.518   6.755 -0.2607  0.2374  0.3574
 9832SOL    HW136354   3.782   3.574   6.700 -0.0949 -2.5012 -2.5663
 9832SOL    HW236355   3.781   3.498   6.831  2.1268 -0.7532 -1.4671
 9833SOL     OW36356   5.179   1.965   1.810  0.2702 -0.0319  0.2845
 9833SOL    HW136357   5.164   1.870   1.814  0.5044 -0.0879 -0.1331
 9833SOL    HW236358   5.266   1.978   1.846 -0.3861  0.2036  1.8727
 9834SOL     OW36359   5.689   4.799   2.519 -0.2359  0.1848 -0.0247
 9834SOL    HW136360   5.672   4.710   2.487 -1.1206 -0.1918  1.4074
 9834SOL    HW236361   5.608   4.825   2.563  0.0067  1.7188 -0.4179
 9835SOL     OW36362   4.432   3.461   7.422 -0.2739  0.1472 -0.2554
 9835SOL    HW136363   4.457   3.430   7.335  0.1969  0.1521 -0.1219
 9835SOL    HW236364   4.491   3.535   7.440  1.1862 -1.2526  1.0066
 9836SOL     OW36365  11.721  10.499   3.719 -0.1901  0.1512  0.6746
 9836SOL    HW136366  11.736  10.564   3.788  2.1250  0.5651 -0.1101
 9836SOL    HW236367  11.677  10.547   3.649  2.1640  1.1870 -0.2032
 9837SOL     OW36368   2.047   2.081   6.129 -0.5472 -0.0744  0.2377
 9837SOL    HW136369   1.972   2.022   6.138 -0.2976 -0.6854 -1.3471
 9837SOL    HW236370   2.068   2.078   6.036  1.4043  0.1431  0.6367
 9838SOL     OW36371   4.006   2.331   4.367  0.1855  0.1108  0.8544
 9838SOL    HW136372   4.065   2.289   4.429 -1.0779 -2.0825  0.6623
 9838SOL    HW236373   3.920   2.326   4.408 -0.2882  0.8309 -0.0174
 9839SOL     OW36374  11.867   1.036   9.423  0.8087 -0.2286 -0.2293
 9839SOL    HW136375  11.933   0.968   9.412  1.2461  0.2061 -0.3046
 9839SOL    HW236376  11.809   1.003   9.492  1.9088  0.0003  0.8391
 9840SOL     OW36377  12.221   6.046   1.171  0.2948 -0.2598  0.5504
 9840SOL    HW136378  12.131   6.077   1.183  0.1162 -0.4963 -0.1210
 9840SOL    HW236379  12.218   5.994   1.090  0.7716 -1.2984  1.1716
 9841SOL     OW36380   3.101   3.081   5.804 -0.1678 -0.4148 -0.0386
 9841SOL    HW136381   3.115   3.092   5.710  1.2094 -1.0604  0.0753
 9841SOL    HW236382   3.042   3.153   5.827  2.0512  1.8165 -0.8056
 9842SOL     OW36383   6.420   5.645   1.173  0.0402 -0.2874 -0.0294
 9842SOL    HW136384   6.326   5.659   1.185  0.1203 -0.6694  1.1868
 9842SOL    HW236385   6.443   5.578   1.238  1.4151  0.8140  0.6770
 9843SOL     OW36386   2.665   9.999   0.930  0.7387  0.4758 -0.2826
 9843SOL    HW136387   2.673  10.070   0.993 -1.0817  1.5035 -1.1458
 9843SOL    HW236388   2.624   9.928   0.980 -0.4310  1.1837 -0.2096
 9844SOL     OW36389   5.977  11.174   5.587 -0.1475  0.5104 -0.0191
 9844SOL    HW136390   6.017  11.140   5.507  0.2736 -0.0618  0.4299
 9844SOL    HW236391   5.985  11.103   5.650  0.8433  1.4747  0.9816
 9845SOL     OW36392  11.795   7.673   6.567  0.5559  0.3844 -0.0058
 9845SOL    HW136393  11.760   7.587   6.542  0.6826  0.5182 -0.6815
 9845SOL    HW236394  11.875   7.682   6.515  0.6496  0.8211  0.2122
 9846SOL     OW36395   0.384   5.346   8.651  0.1431  0.1339  0.0797
 9846SOL    HW136396   0.419   5.338   8.740 -0.7079  1.4331  0.5430
 9846SOL    HW236397   0.340   5.431   8.649 -1.9508 -0.8957 -0.8442
 9847SOL     OW36398   6.618   1.487   4.521 -0.3195  0.8231 -0.3510
 9847SOL    HW136399   6.599   1.567   4.472  0.1745  0.3242 -1.3772
 9847SOL    HW236400   6.694   1.510   4.575  0.5740  0.7011 -1.5334
 9848SOL     OW36401   1.627   3.298   0.727  0.0890  0.8512  0.0563
 9848SOL    HW136402   1.593   3.313   0.639  2.6317 -0.2755 -1.2412
 9848SOL    HW236403   1.591   3.213   0.753  0.6467  0.3828 -0.6556
 9849SOL     OW36404   6.315  12.147  11.555 -1.1607  0.3245 -0.0399
 9849SOL    HW136405   6.237  12.166  11.606 -0.0034  2.1988  1.1460
 9849SOL    HW236406   6.388  12.173  11.611  0.3711 -1.7893 -0.9283
 9850SOL     OW36407   4.056   1.808  11.423 -0.4622  0.2581  0.4519
 9850SOL    HW136408   3.989   1.745  11.395 -0.4716 -0.3710  1.7945
 9850SOL    HW236409   4.102   1.831  11.343  1.4354 -3.6565  0.1926
 9851SOL     OW36410   5.323   2.849   7.096  0.1811 -0.0752  0.2040
 9851SOL    HW136411   5.325   2.811   7.008  1.6249  0.8835 -0.2010
 9851SOL    HW236412   5.413   2.846   7.126  0.4615  3.1434  0.0560
 9852SOL     OW36413   6.407   7.543  10.129  0.1802 -0.6334  0.2498
 9852SOL    HW136414   6.314   7.521  10.121  0.0905 -0.2914  0.3329
 9852SOL    HW236415   6.437   7.553  10.039 -0.0424 -0.0247  0.2345
 9853SOL     OW36416   8.207   4.358   6.604  0.3326  0.2238  0.2065
 9853SOL    HW136417   8.189   4.275   6.648  0.0484 -0.0724 -0.4493
 9853SOL    HW236418   8.258   4.334   6.526  0.8357  0.7376  0.3649
 9854SOL     OW36419   0.687   3.907   3.641  0.0461 -0.8356 -0.3119
 9854SOL    HW136420   0.676   3.981   3.702 -1.1738 -0.4794 -0.9201
 9854SOL    HW236421   0.620   3.844   3.668  0.8435 -1.5718 -0.0284
 9855SOL     OW36422   7.882  11.899   2.950  0.2773 -0.1044  0.7989
 9855SOL    HW136423   7.804  11.902   3.006  0.9362 -0.2037  1.7412
 9855SOL    HW236424   7.926  11.982   2.964  0.5978 -0.2443  0.6384
 9856SOL     OW36425   6.941   9.332   9.592 -0.0920  0.3319  0.2842
 9856SOL    HW136426   6.908   9.390   9.523  1.2992  1.6688  0.6852
 9856SOL    HW236427   6.942   9.388   9.670  2.4097  0.1644  0.4283
 9857SOL     OW36428   6.940   4.474   2.189 -0.2618 -0.0514 -0.3790
 9857SOL    HW136429   6.870   4.514   2.241  0.1446 -0.5503  0.5616
 9857SOL    HW236430   6.990   4.548   2.155  0.4097  0.2717  1.2443
 9858SOL     OW36431   3.137   8.870   0.131 -0.3885  0.2857  0.3911
 9858SOL    HW136432   3.097   8.786   0.155  0.4218 -0.6106 -1.1880
 9858SOL    HW236433   3.063   8.928   0.113 -1.0114 -0.8722 -0.9728
 9859SOL     OW36434   9.696   5.811   8.505  0.2451 -0.1273  0.8865
 9859SOL    HW136435   9.606   5.815   8.538  0.7379  0.5222  2.2358
 9859SOL    HW236436   9.701   5.727   8.460 -1.4932  0.5294 -0.6393
 9860SOL     OW36437   3.604   8.379   8.599  0.0042  0.2971 -0.5085
 9860SOL    HW136438   3.562   8.356   8.516 -1.2415  1.5805 -0.2634
 9860SOL    HW236439   3.585   8.472   8.610  0.4919  0.2320  1.0356
 9861SOL     OW36440   7.969   7.642   0.260  0.2172 -0.0807 -0.4070
 9861SOL    HW136441   7.887   7.605   0.229  0.0256 -1.9473  2.0248
 9861SOL    HW236442   7.943   7.704   0.328  0.7724 -0.1855 -0.0936
 9862SOL     OW36443   2.949   7.408   6.175 -0.0672 -0.8203  0.1430
 9862SOL    HW136444   2.967   7.318   6.149 -0.4640 -0.8389 -0.0659
 9862SOL    HW236445   2.857   7.422   6.155 -0.1008 -0.4792  0.5059
 9863SOL     OW36446   5.213   8.321  11.227 -0.0360 -0.2111  0.0529
 9863SOL    HW136447   5.157   8.380  11.178 -0.7597 -1.5722 -0.8257
 9863SOL    HW236448   5.299   8.330  11.185 -0.3186 -0.3302 -0.5672
 9864SOL     OW36449   1.571   7.987  10.367  0.0577 -0.1267  0.2092
 9864SOL    HW136450   1.573   7.912  10.426  0.9543  0.2059  0.6266
 9864SOL    HW236451   1.602   8.060  10.420 -2.4078  0.9376  0.2889
 9865SOL     OW36452   9.494   4.468   7.302  0.7473  0.0001 -0.0854
 9865SOL    HW136453   9.430   4.493   7.235 -0.9182  1.1376  1.8064
 9865SOL    HW236454   9.456   4.391   7.344  0.9870  0.2370  0.5731
 9866SOL     OW36455   4.685   4.664   3.191  0.3922  0.4454 -0.3574
 9866SOL    HW136456   4.652   4.588   3.144 -1.7126  1.7658 -1.1915
 9866SOL    HW236457   4.728   4.628   3.269 -2.1675 -1.5577  0.2698
 9867SOL     OW36458   2.407   5.958  11.078 -0.0349  0.0656 -0.1631
 9867SOL    HW136459   2.322   5.953  11.122 -0.7821  1.3794 -1.3658
 9867SOL    HW236460   2.448   6.037  11.112 -0.4257  0.8450 -1.4086
 9868SOL     OW36461   8.476   9.956  12.289  0.4720 -0.1260  0.1291
 9868SOL    HW136462   8.469  10.051  12.300 -0.4469 -0.3572  1.8475
 9868SOL    HW236463   8.392   9.929  12.253 -0.4700 -0.5741  2.4259
 9869SOL     OW36464   2.789   9.010  10.269  0.0697 -0.3037 -0.4489
 9869SOL    HW136465   2.831   8.945  10.213 -1.6147 -2.0154  0.1187
 9869SOL    HW236466   2.786   8.968  10.355  0.4132  1.2469  0.3501
 9870SOL     OW36467  11.459  12.161   2.890 -0.1714 -0.0209 -0.1242
 9870SOL    HW136468  11.471  12.086   2.833 -0.9686 -0.0417 -0.2848
 9870SOL    HW236469  11.448  12.123   2.977  0.6494 -0.0118 -0.0097
 9871SOL     OW36470   0.817   2.167   7.130  0.1769  0.0984 -0.3012
 9871SOL    HW136471   0.891   2.227   7.140 -0.8178  1.5580 -1.1962
 9871SOL    HW236472   0.743   2.215   7.168 -0.4351 -1.0754  0.0304
 9872SOL     OW36473  11.623  10.115   8.176  0.5697  0.1783 -0.9402
 9872SOL    HW136474  11.590  10.129   8.088 -2.5445  0.7255  0.1715
 9872SOL    HW236475  11.581  10.034   8.205  2.2187 -0.4580 -0.2122
 9873SOL     OW36476   4.095   3.146   0.069  0.0152  0.2168  0.1138
 9873SOL    HW136477   4.129   3.110   0.150  0.3546 -0.6357 -0.4004
 9873SOL    HW236478   4.166   3.198   0.033 -0.1702  0.6799  0.4052
 9874SOL     OW36479   6.732   9.979  11.254  0.8117 -0.2342  0.4441
 9874SOL    HW136480   6.717   9.937  11.339  0.9730 -0.4923  0.3462
 9874SOL    HW236481   6.687  10.063  11.261 -0.1734 -0.7471  0.3641
 9875SOL     OW36482   5.832   5.707   0.114 -0.0758 -0.1627  0.7998
 9875SOL    HW136483   5.845   5.767   0.188  0.9344  0.2489  0.3058
 9875SOL    HW236484   5.740   5.717   0.090  0.1160  1.3035  0.6265
 9876SOL     OW36485   5.741   6.116  12.098  0.4535  0.2177 -0.2635
 9876SOL    HW136486   5.706   6.150  12.016 -0.5432 -1.1925 -0.4617
 9876SOL    HW236487   5.785   6.190  12.138 -1.0523  1.5544 -0.9759
 9877SOL     OW36488   7.745   9.918   1.512 -0.0645 -0.1765  0.1628
 9877SOL    HW136489   7.670   9.970   1.481 -0.6038 -1.7899 -1.4200
 9877SOL    HW236490   7.709   9.831   1.528  1.3332 -0.7986  0.0817
 9878SOL     OW36491   0.700  12.577   1.655  0.6262  0.4714 -0.2856
 9878SOL    HW136492   0.641  12.519   1.703  1.7960 -1.0760 -0.6520
 9878SOL    HW236493   0.652  12.600   1.575  0.5364 -0.8629 -0.6338
 9879SOL     OW36494   4.400  12.272   1.980  0.2011 -0.4154 -0.3318
 9879SOL    HW136495   4.422  12.192   2.028 -0.1359 -0.2677  0.0780
 9879SOL    HW236496   4.473  12.331   1.997 -0.9977  0.5546  2.1180
 9880SOL     OW36497   2.482   6.955   8.380 -0.1965 -0.2465  0.4393
 9880SOL    HW136498   2.457   6.876   8.331 -1.5622 -0.3248  1.1935
 9880SOL    HW236499   2.402   7.007   8.384 -0.2892 -0.4441  2.8909
 9881SOL     OW36500  10.665   4.273   2.163  0.5807 -0.2333 -0.2581
 9881SOL    HW136501  10.752   4.265   2.122  0.9131 -2.5812  0.7095
 9881SOL    HW236502  10.682   4.261   2.256 -0.5168  2.0463  0.3009
 9882SOL     OW36503   0.576   9.637   1.476  0.0703 -0.2272  0.2137
 9882SOL    HW136504   0.656   9.600   1.513  0.1246 -2.0343 -1.4987
 9882SOL    HW236505   0.505   9.590   1.521  0.0228  0.1213  0.5041
 9883SOL     OW36506   0.449   4.878   3.454 -0.7874 -0.0188 -0.5924
 9883SOL    HW136507   0.503   4.928   3.393  0.4870 -1.1790 -0.4502
 9883SOL    HW236508   0.492   4.888   3.538  0.9543 -3.2500 -0.9543
 9884SOL     OW36509  10.023  11.840  11.649 -0.4520 -0.1445 -0.3096
 9884SOL    HW136510   9.972  11.914  11.617  0.9478  0.8941 -0.2441
 9884SOL    HW236511  10.030  11.781  11.574  0.9213  1.2183 -1.3166
 9885SOL     OW36512   6.592   5.959   7.326  0.0469 -0.0333  0.1503
 9885SOL    HW136513   6.540   5.933   7.403 -1.2618  0.3401 -0.5732
 9885SOL    HW236514   6.534   5.941   7.252  1.0363  0.2475 -0.7052
 9886SOL     OW36515   5.154   1.251   9.248  0.5164 -0.0196  0.2640
 9886SOL    HW136516   5.145   1.210   9.334 -2.5119 -0.3826 -0.1137
 9886SOL    HW236517   5.122   1.340   9.261  2.5513  0.8034  0.0216
 9887SOL     OW36518   6.449  11.174  11.654 -0.1304  0.0910 -0.0967
 9887SOL    HW136519   6.405  11.259  11.651 -2.1335 -0.6909  2.7979
 9887SOL    HW236520   6.537  11.193  11.688  0.1800  1.1515 -1.3947
 9888SOL     OW36521   0.549   6.781   8.776  0.0760 -0.2797 -0.1708
 9888SOL    HW136522   0.459   6.809   8.761 -0.1372 -0.1166  1.3080
 9888SOL    HW236523   0.597   6.811   8.698 -0.6066  2.1185  0.2549
 9889SOL     OW36524   0.448   5.541   9.824  0.0434 -0.6081  0.4454
 9889SOL    HW136525   0.531   5.534   9.778  0.2028  0.8266  0.4741
 9889SOL    HW236526   0.450   5.469   9.888 -0.4755 -3.1209 -2.1328
 9890SOL     OW36527   5.830  11.504   3.501 -0.1143 -0.4149  0.1663
 9890SOL    HW136528   5.832  11.596   3.527 -1.0762 -0.4151  0.3064
 9890SOL    HW236529   5.745  11.494   3.457  0.1824 -1.1241 -0.2593
 9891SOL     OW36530   2.398   2.509   0.546  0.6661  0.7281  0.3913
 9891SOL    HW136531   2.466   2.568   0.580 -0.3988  2.2698 -0.0160
 9891SOL    HW236532   2.353   2.561   0.479 -0.5495 -0.4510  0.2525
 9892SOL     OW36533   4.885  10.217  11.731  0.0415  0.3209 -0.4514
 9892SOL    HW136534   4.978  10.225  11.753  0.4239  2.1164 -2.3987
 9892SOL    HW236535   4.867  10.123  11.736  2.2104 -0.1754 -0.9538
 9893SOL     OW36536   9.464   0.890   9.690 -0.5075 -0.0165 -0.3199
 9893SOL    HW136537   9.518   0.921   9.616  0.8258 -0.4001  0.4576
 9893SOL    HW236538   9.460   0.965   9.749 -1.8903  0.4119 -0.9382
 9894SOL     OW36539   6.732   3.098   0.624  0.0738 -0.2730  0.5152
 9894SOL    HW136540   6.670   3.027   0.604 -0.8681  0.5335  0.4616
 9894SOL    HW236541   6.795   3.096   0.552 -0.2099 -0.7616  0.2745
 9895SOL     OW36542  10.667   8.210   2.000 -0.7746 -0.2385  0.1518
 9895SOL    HW136543  10.707   8.130   1.966  0.1286  1.5935 -3.6009
 9895SOL    HW236544  10.741   8.269   2.015 -1.5833  0.7846  0.2251
 9896SOL     OW36545   6.451   8.521   9.075  0.1663 -0.4589 -0.3830
 9896SOL    HW136546   6.429   8.429   9.092 -1.2055  0.0623  0.8650
 9896SOL    HW236547   6.516   8.542   9.143  0.5679 -0.5239 -0.7425
 9897SOL     OW36548   5.344   3.783   0.536  0.0816 -0.4477 -0.3803
 9897SOL    HW136549   5.422   3.838   0.546 -0.2117  0.4486 -2.4021
 9897SOL    HW236550   5.342   3.762   0.442 -2.1864 -0.2688 -0.4290
 9898SOL     OW36551   3.039   0.248   0.702  0.2100  0.1573  0.1099
 9898SOL    HW136552   2.963   0.269   0.648  0.5219  0.9830 -0.0205
 9898SOL    HW236553   3.110   0.302   0.666  1.1800 -1.4558 -0.5419
 9899SOL     OW36554   1.730   4.040   7.895 -0.3488  0.0561  0.4048
 9899SOL    HW136555   1.792   4.110   7.913 -0.8742  0.1299  2.0485
 9899SOL    HW236556   1.646   4.073   7.927 -0.5790 -1.3583  1.3299
 9900SOL     OW36557  11.946   2.850   6.583 -0.5421  0.0035  0.6790
 9900SOL    HW136558  11.955   2.855   6.678  0.0364  1.0798  0.5829
 9900SOL    HW236559  12.003   2.778   6.556 -0.5137 -0.1402  1.1236
 9901SOL     OW36560   0.894   6.220   8.929  0.1133  0.3957 -0.5851
 9901SOL    HW136561   0.812   6.208   8.883  0.6478  0.0029 -1.4606
 9901SOL    HW236562   0.872   6.210   9.021 -0.8271  0.3827 -0.8063
 9902SOL     OW36563   8.522   4.677   9.993  0.0263 -0.2137  0.6897
 9902SOL    HW136564   8.430   4.653   9.985  0.4373 -1.7332  0.2245
 9902SOL    HW236565   8.549   4.638  10.077  1.1323 -3.0616 -0.8478
 9903SOL     OW36566   8.133   7.343  10.110 -0.0770  0.5693  0.7780
 9903SOL    HW136567   8.172   7.256  10.098 -1.2567  0.2387 -1.0207
 9903SOL    HW236568   8.075   7.333  10.185 -0.8684 -0.4724  0.0625
 9904SOL     OW36569   7.744  11.817   0.792  0.3835  0.1416 -0.1388
 9904SOL    HW136570   7.839  11.821   0.793  0.4637 -1.4479  0.9931
 9904SOL    HW236571   7.717  11.842   0.880 -0.1939 -0.5219 -0.1176
 9905SOL     OW36572   3.845   0.604   0.540  0.4014 -0.0224  0.3133
 9905SOL    HW136573   3.938   0.612   0.563  0.7112  0.6484 -1.0788
 9905SOL    HW236574   3.823   0.688   0.500 -0.6459 -0.4145  0.0390
 9906SOL     OW36575   5.481  11.563  11.045 -1.3098  0.4057  0.0983
 9906SOL    HW136576   5.480  11.658  11.057 -3.6992  0.4367  0.0250
 9906SOL    HW236577   5.396  11.542  11.007 -0.8049 -1.7684  0.0333
 9907SOL     OW36578  12.301  11.615  12.367 -0.9096 -0.1758 -0.1734
 9907SOL    HW136579  12.214  11.635  12.332 -0.3232  2.4087 -0.4217
 9907SOL    HW236580  12.288  11.609  12.461 -1.1317  2.4071  0.0482
 9908SOL     OW36581   0.642  11.475   9.151  0.2135 -0.2213 -0.0650
 9908SOL    HW136582   0.708  11.412   9.181  1.1415  1.1789  0.9194
 9908SOL    HW236583   0.569  11.464   9.212  0.9164  0.5718  0.9442
 9909SOL     OW36584   4.525  12.280   3.034  0.1564  0.2031  0.5831
 9909SOL    HW136585   4.494  12.199   2.994  0.3308  0.1917  0.4697
 9909SOL    HW236586   4.473  12.349   2.993 -0.9785  0.0394  1.6825
 9910SOL     OW36587   3.880   8.907   5.313 -0.0465  0.0698  0.9065
 9910SOL    HW136588   3.911   8.827   5.356 -0.7138 -0.3418  0.6394
 9910SOL    HW236589   3.788   8.890   5.294 -0.0093  0.6198  0.1857
 9911SOL     OW36590   0.196   6.845   6.390  0.4728  0.0862  0.0707
 9911SOL    HW136591   0.166   6.923   6.342  1.1002  0.3043  0.0204
 9911SOL    HW236592   0.197   6.873   6.482 -0.1462 -0.1417  0.1494
 9912SOL     OW36593   0.547   3.112   5.113  0.4112  0.5576  0.4166
 9912SOL    HW136594   0.575   3.110   5.204 -2.1154  0.2540  1.2641
 9912SOL    HW236595   0.454   3.093   5.116  0.3431  0.0477 -2.3001
 9913SOL     OW36596   0.368   9.872   0.747  0.1410  0.0041 -0.0988
 9913SOL    HW136597   0.295   9.918   0.706  0.9513 -0.2846 -1.9877
 9913SOL    HW236598   0.334   9.786   0.769 -0.3937  0.2675  0.1224
 9914SOL     OW36599   8.937   3.516   7.610  0.3283  0.7342 -1.0189
 9914SOL    HW136600   8.859   3.536   7.662 -0.7502  0.3093 -2.4119
 9914SOL    HW236601   9.005   3.498   7.675 -0.6047  1.5361  0.2346
 9915SOL     OW36602  10.549  11.418   0.101  0.0530 -0.3632  0.5049
 9915SOL    HW136603  10.623  11.478   0.101  0.4245 -0.8215  0.6536
 9915SOL    HW236604  10.473  11.473   0.122  0.6820 -0.3177  2.8406
 9916SOL     OW36605   9.027   8.590   6.794 -0.4629 -0.1192 -0.4223
 9916SOL    HW136606   9.054   8.660   6.734  1.4057  0.5853  1.1134
 9916SOL    HW236607   9.046   8.509   6.746 -1.2004  0.3925 -1.6349
 9917SOL     OW36608   9.468   5.896   1.054  0.2413  0.1192  0.0831
 9917SOL    HW136609   9.479   5.809   1.016  0.2624 -0.1722  0.7377
 9917SOL    HW236610   9.484   5.957   0.982  1.1165 -0.4010 -0.1785
 9918SOL     OW36611  11.941   4.018   8.476 -0.1106 -0.3601 -0.2357
 9918SOL    HW136612  11.876   4.086   8.459  0.6658  0.6949  0.9061
 9918SOL    HW236613  11.995   4.016   8.396 -0.7872 -0.4123 -0.7030
 9919SOL     OW36614   3.360  10.753   1.599  0.1489 -0.0167  0.7409
 9919SOL    HW136615   3.309  10.701   1.660 -0.3173 -0.2934  0.1190
 9919SOL    HW236616   3.298  10.815   1.561  0.1048 -0.7875 -0.5090
 9920SOL     OW36617   2.971  11.192   8.080  0.6837 -0.2588  0.2265
 9920SOL    HW136618   2.898  11.157   8.029  0.0230  1.8180 -0.3502
 9920SOL    HW236619   3.049  11.170   8.029  0.2327 -0.2496 -0.4869
 9921SOL     OW36620  11.238   2.315  12.523 -0.1111 -0.3608  0.5140
 9921SOL    HW136621  11.268   2.239  12.473  0.0447 -0.1837  0.3368
 9921SOL    HW236622  11.228   2.282  12.612  1.0933 -0.3140  0.6878
 9922SOL     OW36623  12.320   2.692   0.567 -0.4060 -0.5125  0.0377
 9922SOL    HW136624  12.350   2.781   0.551  0.4983 -0.9496 -0.7902
 9922SOL    HW236625  12.379   2.658   0.634 -1.2161 -0.2724  0.9115
 9923SOL     OW36626  12.005   8.510   3.642 -0.0732 -0.5113  0.1739
 9923SOL    HW136627  11.982   8.598   3.614 -0.3017  0.2783  2.6449
 9923SOL    HW236628  12.093   8.496   3.607  1.0265  1.7470  1.8423
 9924SOL     OW36629   5.285   8.217  12.403 -0.5697 -0.4284 -0.0563
 9924SOL    HW136630   5.381   8.218  12.403 -0.5318 -1.2225  1.3921
 9924SOL    HW236631   5.261   8.246  12.315  0.9762  0.9319 -0.0912
 9925SOL     OW36632   9.027   0.432   7.807  0.4288  0.0114 -0.1993
 9925SOL    HW136633   9.025   0.431   7.712  0.9472  0.0395 -0.2137
 9925SOL    HW236634   8.942   0.466   7.833  0.7452  1.2318 -0.6925
 9926SOL     OW36635   7.727   1.482   7.729  0.3387  0.0466 -0.0221
 9926SOL    HW136636   7.771   1.544   7.787  0.4775  0.0053 -0.0819
 9926SOL    HW236637   7.645   1.462   7.772  0.6815 -0.4108  0.4296
 9927SOL     OW36638   0.866   5.100   1.773  0.2516 -0.0023 -0.0986
 9927SOL    HW136639   0.930   5.076   1.706 -1.6856 -1.1023 -1.6543
 9927SOL    HW236640   0.781   5.074   1.736 -1.1272  1.4372  1.8436
 9928SOL     OW36641   6.787   0.568   3.414 -0.1184 -0.0392  0.2067
 9928SOL    HW136642   6.877   0.562   3.381 -0.1256 -0.2995  0.2361
 9928SOL    HW236643   6.777   0.493   3.473 -0.8688 -0.9440 -1.0321
 9929SOL     OW36644   6.274  11.028   3.853 -0.3261 -0.3500  0.2282
 9929SOL    HW136645   6.357  10.989   3.827 -0.6219 -0.8175 -0.0277
 9929SOL    HW236646   6.290  11.065   3.940  0.2281 -0.1771  0.0540
 9930SOL     OW36647   1.844   2.746   8.745 -0.0048 -0.0382 -0.7867
 9930SOL    HW136648   1.864   2.784   8.659 -0.4802  0.1287 -0.8281
 9930SOL    HW236649   1.748   2.746   8.749  0.0201  1.0164  0.2166
 9931SOL     OW36650   2.399   3.110  12.571 -0.4568 -0.1678  0.4466
 9931SOL    HW136651   2.409   3.033  12.627  2.8244 -0.3891 -0.2361
 9931SOL    HW236652   2.364   3.178  12.629 -0.6981 -1.3932  1.7914
 9932SOL     OW36653   0.892  10.569   9.589  0.3064 -0.1992 -0.5329
 9932SOL    HW136654   0.822  10.625   9.623  2.3824  2.4107 -0.3159
 9932SOL    HW236655   0.934  10.533   9.666  2.4823  2.5405 -0.2951
 9933SOL     OW36656  12.121   2.745   1.633 -0.1951 -0.3032 -0.4247
 9933SOL    HW136657  12.025   2.749   1.635 -0.1723 -0.1074  0.8217
 9933SOL    HW236658  12.149   2.803   1.704  0.8460 -0.5267 -0.6392
 9934SOL     OW36659   3.392   8.668   1.943  0.1566 -0.1855  0.0940
 9934SOL    HW136660   3.334   8.602   1.908 -0.7248 -0.4367  1.9012
 9934SOL    HW236661   3.344   8.707   2.016  1.1096  1.6458 -0.1748
 9935SOL     OW36662   4.110   6.952  10.600  0.1070 -0.2114  0.1506
 9935SOL    HW136663   4.061   7.030  10.575  2.1936  0.5234 -1.9502
 9935SOL    HW236664   4.068   6.881  10.552 -0.5588 -0.0678  0.5058
 9936SOL     OW36665   5.551   5.089   7.943  0.1656  0.3668 -0.1641
 9936SOL    HW136666   5.573   5.126   8.028  1.2243  1.4588 -0.8829
 9936SOL    HW236667   5.635   5.067   7.903 -0.3565 -1.1404 -0.5283
 9937SOL     OW36668   2.853   4.838   7.104  0.2205 -0.7876 -0.3450
 9937SOL    HW136669   2.874   4.765   7.163  0.5789 -1.2046 -0.9746
 9937SOL    HW236670   2.937   4.881   7.089  0.2578 -1.1064 -1.0938
 9938SOL     OW36671  11.087  10.776  10.766 -0.3438 -0.5669 -0.6288
 9938SOL    HW136672  11.086  10.819  10.681 -0.9174 -1.6558 -1.1874
 9938SOL    HW236673  10.998  10.785  10.799 -0.4802 -1.3674 -0.7729
 9939SOL     OW36674   7.381   5.554   1.994  0.1392 -0.1359  0.2746
 9939SOL    HW136675   7.344   5.467   1.977 -0.1193  0.3261 -1.7162
 9939SOL    HW236676   7.307   5.607   2.024  0.2410 -0.4897  1.2061
 9940SOL     OW36677   1.781  11.686   3.613 -0.0801  0.1704 -0.3912
 9940SOL    HW136678   1.750  11.738   3.539  0.4327 -0.3440 -0.9702
 9940SOL    HW236679   1.716  11.702   3.682  0.3488  1.9935 -0.3650
 9941SOL     OW36680   1.454   8.778   5.868 -0.4658  0.0713  0.3355
 9941SOL    HW136681   1.530   8.766   5.810  0.1184  2.1408  0.5833
 9941SOL    HW236682   1.463   8.708   5.933  1.1313  0.1371  0.2414
 9942SOL     OW36683  10.572   8.493  11.521 -0.0479  0.1791 -0.1436
 9942SOL    HW136684  10.547   8.432  11.591  0.4139 -1.8511 -1.6479
 9942SOL    HW236685  10.622   8.439  11.460  0.8197  2.2233 -1.3293
 9943SOL     OW36686  12.509   4.525  10.406  0.6587  0.2206 -0.0743
 9943SOL    HW136687  12.582   4.523  10.344 -0.9470  1.1826 -2.1036
 9943SOL    HW236688  12.461   4.605  10.385 -0.3401  0.2472  2.0016
 9944SOL     OW36689   7.175   1.763   4.374 -0.4453  0.2518  0.0943
 9944SOL    HW136690   7.225   1.829   4.422  0.5840 -0.9499  0.7105
 9944SOL    HW236691   7.222   1.755   4.290  0.4668 -0.9177  0.6957
 9945SOL     OW36692  11.954   2.884   9.266  0.4947  0.3479 -0.0026
 9945SOL    HW136693  11.879   2.825   9.264 -0.0050  0.9941 -1.5083
 9945SOL    HW236694  11.920   2.965   9.303  0.4618  0.6203 -0.6225
 9946SOL     OW36695   8.164   9.024   8.531  0.6145  0.1746 -0.3756
 9946SOL    HW136696   8.184   9.115   8.554 -0.5816  0.4523 -0.3841
 9946SOL    HW236697   8.240   8.995   8.482  1.8147  0.6062  1.1275
 9947SOL     OW36698   6.349   0.863   8.466 -0.2833  0.2370 -0.1567
 9947SOL    HW136699   6.312   0.789   8.514 -2.9929  0.5562 -1.5095
 9947SOL    HW236700   6.349   0.834   8.375 -0.5853  1.5734 -0.6067
 9948SOL     OW36701   4.265   6.590   8.277  0.0451 -0.0233 -0.1170
 9948SOL    HW136702   4.340   6.551   8.232 -0.1199 -0.4342 -0.0365
 9948SOL    HW236703   4.229   6.519   8.330  0.4175  0.5192  0.8992
 9949SOL     OW36704  11.112   8.358  11.952 -0.2658 -0.3418  0.0404
 9949SOL    HW136705  11.042   8.422  11.965 -0.1072  0.2741 -1.9056
 9949SOL    HW236706  11.192   8.405  11.978 -0.1875  0.1862 -1.0783
 9950SOL     OW36707   2.427   1.842   0.192 -0.7443  0.3169 -0.0966
 9950SOL    HW136708   2.345   1.882   0.165 -1.6613 -1.3539  0.0815
 9950SOL    HW236709   2.473   1.823   0.110 -1.4457 -0.5343 -0.3075
 9951SOL     OW36710  11.462   8.291   4.939 -0.3031 -0.0457 -0.8010
 9951SOL    HW136711  11.507   8.375   4.926  0.0264 -0.4361 -2.4736
 9951SOL    HW236712  11.495   8.235   4.868 -1.3571 -1.2271 -0.3961
 9952SOL     OW36713   2.684   0.086   6.718 -0.2537  0.3147 -0.1243
 9952SOL    HW136714   2.652   0.011   6.667 -2.1396  0.6623  0.4970
 9952SOL    HW236715   2.621   0.156   6.701  0.8626  1.4343  0.2032
 9953SOL     OW36716   7.514   9.295  11.496 -0.0115  0.2557  0.2330
 9953SOL    HW136717   7.422   9.280  11.519  0.3637  0.0571  1.7093
 9953SOL    HW236718   7.513   9.307  11.401 -1.5437  0.1399  0.2040
 9954SOL     OW36719   0.177   6.205   5.656  0.4448  1.0484 -0.2273
 9954SOL    HW136720   0.178   6.241   5.567 -0.7055 -1.1238 -1.1952
 9954SOL    HW236721   0.129   6.122   5.648  1.5288  0.0960  2.1581
 9955SOL     OW36722  12.322   7.024   2.000  0.2242  0.1804 -0.0340
 9955SOL    HW136723  12.364   7.069   1.927  0.0426  1.5245  0.6655
 9955SOL    HW236724  12.386   6.957   2.026  1.5324  1.5079  0.3488
 9956SOL     OW36725  12.113   8.313   4.893  0.0951 -0.0936  0.0438
 9956SOL    HW136726  12.147   8.330   4.981 -1.1247 -0.4809  0.6285
 9956SOL    HW236727  12.098   8.218   4.892 -2.0919  0.2078  0.2819
 9957SOL     OW36728   7.947  11.644   3.020  0.4421  0.3193  0.2885
 9957SOL    HW136729   7.986  11.588   2.953 -0.8736 -0.8664  0.4667
 9957SOL    HW236730   7.925  11.725   2.975 -0.3463 -0.4268 -0.7190
 9958SOL     OW36731   4.816   1.387   4.142 -0.1335 -0.6446  0.0337
 9958SOL    HW136732   4.838   1.333   4.218  1.4116  0.6899  0.5855
 9958SOL    HW236733   4.725   1.412   4.156 -0.1754 -1.2504  0.9231
 9959SOL     OW36734   1.205   6.348   5.864  0.3242  0.2108  0.4566
 9959SOL    HW136735   1.139   6.296   5.911 -1.6871  1.9034 -0.2971
 9959SOL    HW236736   1.213   6.305   5.779 -2.8846  2.0588 -0.9673
 9960SOL     OW36737   6.045   7.522   3.275 -0.1952 -0.2303  0.2221
 9960SOL    HW136738   6.115   7.457   3.276  0.9297  0.8817 -1.2924
 9960SOL    HW236739   5.992   7.499   3.199 -0.8036 -0.3744  0.6822
 9961SOL     OW36740   6.311   2.408   9.864  0.5717 -0.4298  0.4959
 9961SOL    HW136741   6.310   2.377   9.954 -1.4307 -0.6829  0.4341
 9961SOL    HW236742   6.252   2.483   9.864 -0.4425 -1.1717 -0.8039
 9962SOL     OW36743   6.395   1.136   3.174 -0.3931 -0.1324 -0.4494
 9962SOL    HW136744   6.386   1.054   3.222 -0.5028  0.5392  0.7156
 9962SOL    HW236745   6.359   1.203   3.233  0.8872  0.9266 -0.8146
 9963SOL     OW36746   0.930   1.869   2.244 -0.1812 -0.1300  0.2749
 9963SOL    HW136747   0.880   1.842   2.321 -0.1754  0.0287  0.3352
 9963SOL    HW236748   0.957   1.959   2.264 -0.8815  0.2073 -0.2629
 9964SOL     OW36749   1.004   7.680   4.940 -0.1144 -0.8905 -0.2736
 9964SOL    HW136750   0.955   7.753   4.976 -0.6558 -1.3197 -0.1299
 9964SOL    HW236751   1.094   7.713   4.931 -0.1949 -0.4500  0.4784
 9965SOL     OW36752   7.118   8.020   1.224  0.2920 -0.0251 -0.0023
 9965SOL    HW136753   7.151   8.055   1.308 -0.2391  1.0845 -0.2280
 9965SOL    HW236754   7.179   7.951   1.201 -0.1572 -1.0979  1.8413
 9966SOL     OW36755   2.580   0.656  12.175 -0.8178  0.5425 -0.3113
 9966SOL    HW136756   2.528   0.678  12.098 -0.7074 -1.7458 -1.1358
 9966SOL    HW236757   2.520   0.604  12.230  0.2717 -1.4420 -0.9007
 9967SOL     OW36758   1.667   4.774   1.428  0.1244 -0.1011  0.3077
 9967SOL    HW136759   1.676   4.846   1.491  0.8197  0.6810 -0.6514
 9967SOL    HW236760   1.667   4.817   1.342  0.4874 -1.2358 -0.2814
 9968SOL     OW36761   1.119   7.318   2.362 -0.3499  0.6449 -0.7646
 9968SOL    HW136762   1.031   7.354   2.350 -0.2337  1.4669  0.5305
 9968SOL    HW236763   1.149   7.359   2.444  0.0726 -1.9213  0.4657
 9969SOL     OW36764   7.848   7.357   0.036  0.9268 -0.0024  0.6804
 9969SOL    HW136765   7.820   7.290  -0.026  0.2949  0.4510  0.4725
 9969SOL    HW236766   7.940   7.337   0.052  1.1691  0.0217 -0.5871
 9970SOL     OW36767   5.353   2.420   5.942 -0.6078 -0.0513 -0.1963
 9970SOL    HW136768   5.320   2.354   6.003 -1.5520 -0.4564 -1.1084
 9970SOL    HW236769   5.282   2.485   5.938 -0.0646  0.5588  0.0153
 9971SOL     OW36770  10.698   9.999   0.053  0.1223 -0.4890 -0.7769
 9971SOL    HW136771  10.742   9.972   0.134 -0.2548 -1.3943 -0.8549
 9971SOL    HW236772  10.669  10.088   0.070 -1.0143 -1.0732  0.5607
 9972SOL     OW36773  10.359   0.543   1.794 -0.7761  0.2205 -0.0495
 9972SOL    HW136774  10.380   0.583   1.879 -0.8338 -1.4166  0.7853
 9972SOL    HW236775  10.439   0.555   1.742  0.4487 -1.4482  1.3278
 9973SOL     OW36776   5.107   8.208   5.690 -0.3185 -0.2072 -0.2645
 9973SOL    HW136777   5.019   8.184   5.659 -0.3167 -0.4611 -0.0775
 9973SOL    HW236778   5.164   8.189   5.615 -0.0222 -2.7945  0.5243
 9974SOL     OW36779   0.238   9.056   0.168 -0.4690 -0.0087  0.3591
 9974SOL    HW136780   0.160   9.041   0.115 -0.7695  1.6627  0.2673
 9974SOL    HW236781   0.272   8.969   0.187 -0.5643 -0.6947 -2.2432
 9975SOL     OW36782   2.851   4.585   7.530 -0.3009  0.2618  0.3031
 9975SOL    HW136783   2.909   4.630   7.591  4.5250 -2.3326 -1.8300
 9975SOL    HW236784   2.819   4.509   7.578 -1.0431  1.0562  1.1156
 9976SOL     OW36785   2.617   8.453  11.076  0.6558 -0.2947 -0.6538
 9976SOL    HW136786   2.581   8.445  11.164  1.5250  0.3042 -0.2361
 9976SOL    HW236787   2.712   8.450  11.087  0.7835 -2.3364 -1.7970
 9977SOL     OW36788   8.650   3.097   4.849  0.1740  0.0077  0.3907
 9977SOL    HW136789   8.654   3.043   4.927 -0.3338 -0.2762  0.2247
 9977SOL    HW236790   8.608   3.042   4.783  0.4746  0.2868 -0.0464
 9978SOL     OW36791  12.470   8.715   1.299  0.0407  0.1958 -0.4962
 9978SOL    HW136792  12.397   8.708   1.239 -0.4482  2.1334 -0.2148
 9978SOL    HW236793  12.469   8.634   1.350 -1.6266  0.0040 -0.8043
 9979SOL     OW36794   9.403   2.005   4.728  0.3523 -0.3949  0.0052
 9979SOL    HW136795   9.449   1.968   4.804 -1.3040  0.0073  1.2626
 9979SOL    HW236796   9.373   1.928   4.679 -0.5122 -0.7083  0.9960
 9980SOL     OW36797   5.778  10.562   2.388  0.2355  0.0661 -0.1678
 9980SOL    HW136798   5.771  10.621   2.312  0.2286  0.0622 -0.1702
 9980SOL    HW236799   5.774  10.474   2.350  1.3726  0.0503 -0.2726
 9981SOL     OW36800   2.509   7.396  10.979  0.1058 -0.2417  0.4205
 9981SOL    HW136801   2.557   7.402  11.061 -0.0005 -1.4301  0.5818
 9981SOL    HW236802   2.427   7.352  11.002  0.4411 -1.3667 -0.4632
 9982SOL     OW36803  11.758   6.103   0.432 -0.3425  0.6662  0.0620
 9982SOL    HW136804  11.762   6.059   0.347  1.1298  1.0413 -0.0782
 9982SOL    HW236805  11.849   6.115   0.458 -0.7060 -1.7076  2.9187
 9983SOL     OW36806   3.386   3.782  11.716 -0.3714  0.5496  0.2237
 9983SOL    HW136807   3.343   3.838  11.650  0.6535  2.8620  1.4212
 9983SOL    HW236808   3.317   3.762  11.779 -0.8562  0.0410 -0.4497
 9984SOL     OW36809   2.950  12.414   5.179 -0.1684 -0.4447  0.0767
 9984SOL    HW136810   2.871  12.406   5.232  0.4137 -1.0774  0.8601
 9984SOL    HW236811   3.012  12.353   5.218  0.7911  0.2060 -0.3945
 9985SOL     OW36812   0.764   4.593   9.634  0.2152  0.2334 -0.1724
 9985SOL    HW136813   0.791   4.511   9.676  0.8570  0.2519 -0.5263
 9985SOL    HW236814   0.757   4.570   9.541  1.2316  0.7720 -0.3938
 9986SOL     OW36815   5.772  11.738  11.412  0.0562 -0.7697  0.1365
 9986SOL    HW136816   5.852  11.741  11.360  1.3605 -2.0484  1.9617
 9986SOL    HW236817   5.735  11.826  11.404  0.9129 -0.5372 -1.7910
 9987SOL     OW36818   5.414   7.017  10.829  0.6474 -0.4254 -0.0788
 9987SOL    HW136819   5.496   6.984  10.793  0.5862 -0.7902  0.1084
 9987SOL    HW236820   5.435   7.105  10.860  1.1444 -0.7740  0.5897
 9988SOL     OW36821   5.124   8.238  10.314 -0.1324  0.3175 -0.5038
 9988SOL    HW136822   5.178   8.209  10.240 -1.8653  0.9787 -2.1334
 9988SOL    HW236823   5.044   8.271  10.273 -1.0809  0.9309  1.6916
 9989SOL     OW36824   7.632   5.402   6.137 -0.1322  0.3928 -0.1710
 9989SOL    HW136825   7.685   5.481   6.128 -0.0591  0.1115 -2.7776
 9989SOL    HW236826   7.561   5.428   6.196  0.7760  1.9013  0.3167
 9990SOL     OW36827  11.134  10.329   2.457  0.6487  0.6572  0.4206
 9990SOL    HW136828  11.122  10.322   2.552  3.1014  2.4740  0.9856
 9990SOL    HW236829  11.071  10.395   2.429 -2.2286 -2.0143  0.1358
 9991SOL     OW36830  10.108   6.923  12.114 -0.5178  0.3992 -0.5153
 9991SOL    HW136831  10.160   7.003  12.110  0.2788  0.2542  3.4875
 9991SOL    HW236832  10.172   6.852  12.112 -1.0130 -0.0552 -0.9359
 9992SOL     OW36833   0.097   2.504   5.129  0.2579  0.1564 -0.6444
 9992SOL    HW136834   0.081   2.415   5.162  0.1214  0.7113  0.8789
 9992SOL    HW236835   0.009   2.540   5.116  0.3099 -0.0934 -1.7832
 9993SOL     OW36836   5.706   9.174  12.000 -0.2504 -0.0737 -0.2397
 9993SOL    HW136837   5.672   9.148  12.086  0.8178 -1.8638 -0.3009
 9993SOL    HW236838   5.680   9.265  11.991 -1.9602 -0.3465  1.1956
 9994SOL     OW36839   3.491  11.132   0.677 -0.2494  0.1647 -0.3559
 9994SOL    HW136840   3.456  11.179   0.602 -1.8607  0.1785  0.3725
 9994SOL    HW236841   3.426  11.065   0.696  0.5503 -0.3958  0.5043
 9995SOL     OW36842   3.509  11.849  10.930 -0.3399  0.5232  0.0345
 9995SOL    HW136843   3.485  11.910  10.860  0.1833 -0.2426 -0.8367
 9995SOL    HW236844   3.565  11.785  10.887  0.1828  0.1683  1.2214
 9996SOL     OW36845   7.513  11.880   4.970 -0.0051 -0.2156 -0.7180
 9996SOL    HW136846   7.586  11.851   4.914  0.2719  0.6159 -0.7986
 9996SOL    HW236847   7.461  11.937   4.914 -0.7888 -0.8807 -0.6892
 9997SOL     OW36848   0.566   0.825   1.646 -0.2938 -0.1772  0.0600
 9997SOL    HW136849   0.596   0.752   1.592 -1.0863 -0.1868 -0.3757
 9997SOL    HW236850   0.551   0.896   1.584  0.0166  0.2157  0.4268
 9998SOL     OW36851   0.930   9.493   7.666 -0.2927 -0.2445 -0.7620
 9998SOL    HW136852   0.886   9.429   7.722 -0.1909  0.1259 -0.2522
 9998SOL    HW236853   0.860   9.550   7.635 -0.1790  0.4009  0.1231
 9999SOL     OW36854   6.552   7.613   0.898 -0.2262  0.9803 -0.0079
 9999SOL    HW136855   6.535   7.680   0.965  0.5227 -0.1131  1.3416
 9999SOL    HW236856   6.648   7.603   0.899 -0.2461  0.6242 -0.9341
10000SOL     OW36857   4.058   0.395  11.796  0.2772  0.3965  0.2252
10000SOL    HW136858   3.978   0.346  11.775  0.5525  0.2474 -0.4960
10000SOL    HW236859   4.028   0.467  11.851 -0.2298 -0.1805  0.7056
10001SOL     OW36860   4.257   5.400   9.043  0.0768  0.7619  0.5308
10001SOL    HW136861   4.293   5.367   9.125 -0.9714 -1.4515  0.1759
10001SOL    HW236862   4.248   5.495   9.056  2.0548  0.7764  2.0949
10002SOL     OW36863   0.859   8.903   3.498  0.0557  0.2603  0.4674
10002SOL    HW136864   0.793   8.968   3.524 -0.6001 -0.7742  1.4969
10002SOL    HW236865   0.814   8.819   3.507  1.0921 -0.3843 -0.2065
10003SOL     OW36866   7.401   1.295   3.420 -0.0043 -0.2117  0.0530
10003SOL    HW136867   7.487   1.261   3.442  0.0209 -0.4962 -0.4811
10003SOL    HW236868   7.355   1.222   3.378 -0.2088  0.1793 -0.4206
10004SOL     OW36869   9.531   9.884   8.597  0.2451 -0.1579 -0.1804
10004SOL    HW136870   9.443   9.918   8.609  0.3970  0.3815 -0.5390
10004SOL    HW236871   9.538   9.812   8.659 -0.6659 -0.6262 -0.5938
10005SOL     OW36872   3.638   6.501   7.305  0.1098  0.1339 -0.3006
10005SOL    HW136873   3.606   6.410   7.308  0.0418  0.1561 -0.3365
10005SOL    HW236874   3.605   6.534   7.221  0.0476  0.2233 -0.2410
10006SOL     OW36875   8.024   2.497   2.677 -0.0252  0.2341 -0.3689
10006SOL    HW136876   8.015   2.416   2.727 -0.6913  0.3431 -0.2953
10006SOL    HW236877   7.992   2.565   2.736 -1.3753  0.2969 -1.1154
10007SOL     OW36878   4.372   9.668   1.039  0.0847 -0.0089 -0.0423
10007SOL    HW136879   4.444   9.645   0.979  1.3931  0.8352  1.1397
10007SOL    HW236880   4.327   9.740   0.995  0.6511  0.1991 -0.2989
10008SOL     OW36881  10.006   4.562   7.131 -0.4863  0.3986 -0.3000
10008SOL    HW136882  10.084   4.535   7.179 -1.9223 -3.0557  0.3729
10008SOL    HW236883  10.039   4.585   7.044  1.4205  0.2804  0.3344
10009SOL     OW36884   8.035   3.519   0.082  0.1946 -0.1291  0.1537
10009SOL    HW136885   8.047   3.483   0.170  1.0382  0.7480  0.4262
10009SOL    HW236886   8.092   3.466   0.026 -1.2781 -1.4873 -0.1143
10010SOL     OW36887   6.555  11.722  10.382 -0.5511 -0.2557 -0.2375
10010SOL    HW136888   6.500  11.750  10.456 -0.3102 -0.0654 -0.1300
10010SOL    HW236889   6.585  11.634  10.407  0.6654  0.3481  0.5378
10011SOL     OW36890   1.948   2.752   0.802 -0.8440  0.0756  0.3882
10011SOL    HW136891   1.893   2.697   0.746 -0.6619 -1.5415  1.7301
10011SOL    HW236892   1.967   2.698   0.878  0.4190  1.5631  1.1920
10012SOL     OW36893   7.228   8.312   1.821  0.2322  0.0130 -0.0404
10012SOL    HW136894   7.297   8.264   1.775 -0.0396 -0.0677 -0.3645
10012SOL    HW236895   7.266   8.399   1.836  1.3646 -0.7716  2.0414
10013SOL     OW36896  12.448  10.983   9.859  0.2890  0.0207 -0.0838
10013SOL    HW136897  12.467  10.937   9.778  0.5920 -0.3095  0.1724
10013SOL    HW236898  12.357  10.962   9.879  0.1706  0.2191 -0.4099
10014SOL     OW36899  10.670   2.992   4.500  0.3461 -0.3897 -0.6142
10014SOL    HW136900  10.652   2.910   4.546 -1.5574  0.5162  0.4418
10014SOL    HW236901  10.685   3.055   4.571 -2.1379  0.9470 -1.1660
10015SOL     OW36902   1.152   6.846   0.563 -0.2364 -0.3464  0.0467
10015SOL    HW136903   1.188   6.931   0.589  0.7836 -1.1606  1.4573
10015SOL    HW236904   1.124   6.806   0.645 -0.1559 -1.6116 -0.5165
10016SOL     OW36905   3.465   3.393   0.214 -0.4025  0.3987 -0.5321
10016SOL    HW136906   3.495   3.328   0.150  0.5924  0.9466 -0.6391
10016SOL    HW236907   3.542   3.410   0.269 -1.9196 -2.2563  2.7865
10017SOL     OW36908   2.566  10.693   0.397  0.4353 -0.3624  0.1009
10017SOL    HW136909   2.644  10.728   0.353  0.5844 -1.1386 -0.2665
10017SOL    HW236910   2.494  10.749   0.367  0.7436 -0.0678 -0.0970
10018SOL     OW36911  11.286   5.828   1.704  0.4262  0.0671 -0.1204
10018SOL    HW136912  11.375   5.849   1.734 -0.2750 -0.5589  2.7550
10018SOL    HW236913  11.280   5.733   1.710 -0.6331  0.1479  0.5039
10019SOL     OW36914   4.367   4.527   3.799 -0.0587 -0.6297  0.1928
10019SOL    HW136915   4.334   4.565   3.718  0.0143  1.8164  1.2073
10019SOL    HW236916   4.313   4.450   3.814  0.5901 -1.7421 -2.6396
10020SOL     OW36917   6.896   4.078   8.923  0.0675  0.2020  0.0144
10020SOL    HW136918   6.986   4.049   8.939 -0.3416 -0.6334  0.9578
10020SOL    HW236919   6.899   4.173   8.934  0.5410  0.0279  1.6804
10021SOL     OW36920   9.308   5.678   8.252 -0.6305 -0.1461  0.0806
10021SOL    HW136921   9.250   5.602   8.244  0.5529 -0.9339 -1.5189
10021SOL    HW236922   9.296   5.707   8.342 -2.3260 -1.2396  0.2507
10022SOL     OW36923   5.333   6.549  12.021  0.2368 -0.0170  0.4767
10022SOL    HW136924   5.362   6.545  11.930  2.2835 -0.3209  1.0714
10022SOL    HW236925   5.241   6.573  12.016  0.6882  1.6243 -1.6207
10023SOL     OW36926   5.494   8.401   2.102  0.2482  0.1254  0.2356
10023SOL    HW136927   5.474   8.324   2.154  0.8190  0.4381  0.9271
10023SOL    HW236928   5.531   8.464   2.164 -0.3026  0.9987 -0.2916
10024SOL     OW36929   2.030   0.199  11.550 -0.2117  0.3285  0.2722
10024SOL    HW136930   2.061   0.138  11.616  0.3408  1.1091  0.7493
10024SOL    HW236931   2.035   0.150  11.468  2.5317  0.4649  0.2698
10025SOL     OW36932   8.480   1.884  11.154 -0.0096 -0.2162 -0.2325
10025SOL    HW136933   8.493   1.823  11.081  1.7211 -1.8585  1.3280
10025SOL    HW236934   8.500   1.832  11.232  0.8411  2.1712  1.2360
10026SOL     OW36935   8.718   4.124   7.882  0.4135 -0.3609  0.2238
10026SOL    HW136936   8.634   4.168   7.873  0.6086 -0.0394 -0.0883
10026SOL    HW236937   8.774   4.166   7.816  0.1098 -2.2950 -1.3312
10027SOL     OW36938   5.021   2.614  10.221  0.0199  0.3717  0.2436
10027SOL    HW136939   4.967   2.542  10.253  1.6562 -1.3497 -0.6443
10027SOL    HW236940   5.028   2.674  10.295  0.4906 -1.5440  1.8416
10028SOL     OW36941   4.609   9.103  12.251  0.1211 -0.5987  0.4458
10028SOL    HW136942   4.540   9.121  12.188  1.6823  0.1930 -1.1101
10028SOL    HW236943   4.588   9.158  12.326  2.3624  4.9629 -2.4483
10029SOL     OW36944  12.492   1.833  11.513 -0.4053  0.3641 -0.6956
10029SOL    HW136945  12.449   1.761  11.467 -1.1080 -0.3069  0.9552
10029SOL    HW236946  12.567   1.793  11.556 -1.6414  0.2426  1.4755
10030SOL     OW36947   5.398   2.866  11.920  1.1757 -0.3575  0.5512
10030SOL    HW136948   5.368   2.824  11.840 -0.7849 -0.1397  1.1245
10030SOL    HW236949   5.394   2.798  11.986 -2.5685  0.6768  1.6116
10031SOL     OW36950  10.674   4.689   9.768 -0.1379 -0.3967  0.4583
10031SOL    HW136951  10.645   4.764   9.717  1.4769  0.5832  0.9059
10031SOL    HW236952  10.636   4.703   9.855  0.7219  0.3080  0.7390
10032SOL     OW36953   2.808   4.431   0.949  0.1060 -0.0732 -0.1165
10032SOL    HW136954   2.821   4.466   0.861  0.5094 -0.5408 -0.2478
10032SOL    HW236955   2.812   4.336   0.938 -1.0689 -0.1825  0.2121
10033SOL     OW36956   8.232   3.226   7.534 -0.0780  0.2340  0.0705
10033SOL    HW136957   8.290   3.270   7.471 -0.1979 -1.0171 -0.9501
10033SOL    HW236958   8.292   3.178   7.592 -0.0060  0.7828  0.4624
10034SOL     OW36959  12.497   6.489  10.578  0.0256  0.0040 -0.0889
10034SOL    HW136960  12.576   6.435  10.576 -0.3415 -0.5452  0.0288
10034SOL    HW236961  12.459   6.478  10.491 -0.1638 -0.1003  0.0069
10035SOL     OW36962   1.569   8.053  12.190  0.9746 -0.2973  0.3879
10035SOL    HW136963   1.506   8.041  12.261  1.0129 -2.7139  0.0975
10035SOL    HW236964   1.535   8.127  12.140  0.0251  0.3587  1.9289
10036SOL     OW36965   2.695  12.140   7.211 -0.8754 -0.2163  0.2931
10036SOL    HW136966   2.771  12.107   7.163  0.0224  0.7783  0.9774
10036SOL    HW236967   2.666  12.216   7.160  0.0976  0.8600  1.2910
10037SOL     OW36968  11.196   4.520   3.311  0.1041  0.2336 -0.5561
10037SOL    HW136969  11.183   4.599   3.364  0.4989 -1.2977  2.0189
10037SOL    HW236970  11.287   4.526   3.282  1.2774 -0.7160  2.4772
10038SOL     OW36971   5.705   1.167   4.360  0.2292 -0.0183 -0.6001
10038SOL    HW136972   5.764   1.181   4.286 -2.0132  1.3230 -2.2850
10038SOL    HW236973   5.657   1.249   4.369  0.4341 -0.1157  2.4575
10039SOL     OW36974   6.021   8.673   8.012 -0.2846  0.1296 -0.0856
10039SOL    HW136975   5.987   8.621   7.939  1.9471  0.7744 -1.7141
10039SOL    HW236976   6.066   8.746   7.970  2.8972 -0.5586  1.7566
10040SOL     OW36977   2.947   3.194   7.693  0.5823 -0.4165 -0.5787
10040SOL    HW136978   2.878   3.128   7.681 -0.3932  0.3576  0.5530
10040SOL    HW236979   2.901   3.278   7.687  1.5989  0.1355 -0.7751
10041SOL     OW36980  12.499   8.719   9.069  0.3487  0.3248  0.5276
10041SOL    HW136981  12.535   8.770   8.997 -2.5146  0.2658 -1.1303
10041SOL    HW236982  12.488   8.781   9.140  1.2831  0.8911  0.1898
10042SOL     OW36983   3.510   8.857   0.499  0.2603 -0.2731  0.1960
10042SOL    HW136984   3.429   8.826   0.540  0.3483 -0.7260  0.0258
10042SOL    HW236985   3.541   8.784   0.447 -0.2829  0.5634 -1.3471
10043SOL     OW36986   2.783  12.114   0.915 -0.3171 -0.4690 -0.2207
10043SOL    HW136987   2.777  12.152   1.003  0.2031 -1.9327  0.4810
10043SOL    HW236988   2.867  12.069   0.914 -1.0415 -1.8694 -0.8819
10044SOL     OW36989   1.385   3.123   4.772 -0.1304  0.2778  0.8681
10044SOL    HW136990   1.350   3.103   4.685  1.4695  1.8819 -0.2251
10044SOL    HW236991   1.426   3.042   4.801  0.0741 -0.0494 -0.2835
10045SOL     OW36992  10.313   7.767   0.347  0.0960 -0.5226  0.2227
10045SOL    HW136993  10.242   7.717   0.389  1.1803 -1.9808  0.3904
10045SOL    HW236994  10.380   7.775   0.415  0.7524 -0.5338 -0.4101
10046SOL     OW36995   0.315  10.814   3.637 -0.0156 -0.5329 -0.9503
10046SOL    HW136996   0.239  10.777   3.683 -0.8938 -0.0429 -1.9632
10046SOL    HW236997   0.367  10.737   3.612 -0.0068 -0.8598  0.0128
10047SOL     OW36998   2.201   8.971   7.885  0.5302 -0.3887  0.0019
10047SOL    HW136999   2.226   9.063   7.891 -0.9751 -0.0042  0.5441
10047SOL    HW237000   2.210   8.938   7.974  1.0401 -0.7771 -0.1865
10048SOL     OW37001   7.990   1.494   1.614 -0.0862  0.0715  0.2091
10048SOL    HW137002   8.069   1.514   1.563  0.9777  0.0943  1.8192
10048SOL    HW237003   8.011   1.414   1.661 -0.6077  0.6631  1.4941
10049SOL     OW37004   5.015   7.009   9.639  0.5185 -0.0177  0.6319
10049SOL    HW137005   5.077   6.936   9.649  0.1952 -0.3631  0.1699
10049SOL    HW237006   4.930   6.967   9.629  0.7059  0.1683 -3.4148
10050SOL     OW37007   1.680   1.090   1.067 -0.4319 -0.2127 -0.6395
10050SOL    HW137008   1.717   1.143   0.996  0.7949 -0.6799 -0.3732
10050SOL    HW237009   1.704   1.137   1.146  0.6686 -1.1390 -0.4001
10051SOL     OW37010   2.877   3.088   5.173  0.3582  0.5971 -0.4666
10051SOL    HW137011   2.930   3.026   5.224 -0.3192  0.4522  0.0698
10051SOL    HW237012   2.820   3.129   5.238  0.1546  1.1077 -0.9665
10052SOL     OW37013   9.355   2.550   8.148  0.3166 -0.4099  0.3721
10052SOL    HW137014   9.368   2.566   8.055 -1.8669  0.6918  0.1944
10052SOL    HW237015   9.345   2.455   8.155 -1.7488 -0.3342 -0.8936
10053SOL     OW37016   7.379   4.098   9.540 -0.0401  0.2340 -0.0236
10053SOL    HW137017   7.305   4.126   9.595  0.6896 -0.8381  1.5987
10053SOL    HW237018   7.451   4.154   9.568 -0.0820  0.9097 -1.2212
10054SOL     OW37019   5.456   0.104   9.193 -0.5836  0.3501 -0.2495
10054SOL    HW137020   5.497   0.092   9.107  0.4574  3.6126 -0.3263
10054SOL    HW237021   5.506   0.047   9.251 -1.2875 -1.9113 -1.7194
10055SOL     OW37022   3.728   7.085   0.406 -0.6645  0.4856  0.2535
10055SOL    HW137023   3.742   7.147   0.335 -1.1459  0.1814 -0.1080
10055SOL    HW237024   3.700   7.139   0.480 -0.3508  0.7795  0.1593
10056SOL     OW37025   5.746   1.421   2.763  0.3682 -0.7900  0.3537
10056SOL    HW137026   5.799   1.482   2.712 -0.7802 -0.6550 -0.7116
10056SOL    HW237027   5.807   1.351   2.787  1.3332 -0.0015  0.2952
10057SOL     OW37028   5.605   2.921   0.053 -0.4710  0.2840 -0.5500
10057SOL    HW137029   5.657   3.000   0.034  0.1490 -0.2144 -0.9717
10057SOL    HW237030   5.668   2.849   0.048 -0.9839 -0.2194  0.0741
10058SOL     OW37031   0.180   8.260  11.370  0.2022 -0.1267  0.4109
10058SOL    HW137032   0.219   8.224  11.450  0.5921  1.0543  0.7792
10058SOL    HW237033   0.216   8.206  11.300 -1.0064 -1.8829  1.0898
10059SOL     OW37034   7.262  10.459   1.165 -0.0111  0.2662  0.3120
10059SOL    HW137035   7.274  10.365   1.152  0.4645  0.4776 -0.9084
10059SOL    HW237036   7.204  10.466   1.241  0.8531 -0.9820  1.1156
10060SOL     OW37037   3.833   0.591   1.425 -0.1654 -0.2142  0.0701
10060SOL    HW137038   3.808   0.674   1.464  1.8238  0.1389  0.6975
10060SOL    HW237039   3.772   0.579   1.352  0.2565  2.4171 -0.8198
10061SOL     OW37040   9.845   1.167  10.745  0.3543  0.3763  0.2867
10061SOL    HW137041   9.909   1.100  10.717  1.1418  1.2754 -0.1162
10061SOL    HW237042   9.842   1.228  10.672  1.2500  1.9210  1.4885
10062SOL     OW37043   1.776   9.271   7.730  0.5626  0.1660  0.1306
10062SOL    HW137044   1.720   9.277   7.653 -0.5207 -0.5292  0.8432
10062SOL    HW237045   1.862   9.246   7.695  0.0609 -0.2625 -0.8311
10063SOL     OW37046   5.253   1.140   4.130  0.7039 -0.0977  0.1368
10063SOL    HW137047   5.326   1.193   4.162  0.4790  0.1072  0.3101
10063SOL    HW237048   5.192   1.204   4.093 -0.5335 -0.0248  2.2010
10064SOL     OW37049   1.740   2.157  12.522  0.0397  0.4701 -0.0313
10064SOL    HW137050   1.646   2.153  12.539  0.4584  0.0925  2.5126
10064SOL    HW237051   1.779   2.097  12.585  1.9999  0.5332 -1.1019
10065SOL     OW37052   2.986   1.627   3.052  0.3381 -0.2546 -0.0789
10065SOL    HW137053   2.890   1.619   3.055 -0.0204  2.6927 -0.3594
10065SOL    HW237054   3.016   1.545   3.013 -2.2450 -0.5659 -1.6371
10066SOL     OW37055   6.273   6.145   1.801  0.2133 -0.4472 -0.3448
10066SOL    HW137056   6.233   6.220   1.758 -0.9549  0.5569  2.3095
10066SOL    HW237057   6.324   6.102   1.731  0.5314  2.4679 -2.0833
10067SOL     OW37058   1.907   7.345   9.155 -0.9545  0.1293  0.1634
10067SOL    HW137059   1.902   7.439   9.174 -0.1689  0.1151  0.4980
10067SOL    HW237060   1.955   7.309   9.229 -0.6937 -0.4428 -0.2796
10068SOL     OW37061   7.332   5.914   7.015 -0.2828 -0.6177 -0.3084
10068SOL    HW137062   7.342   5.937   7.107  0.8847  0.7731 -0.7548
10068SOL    HW237063   7.237   5.908   7.003 -0.5099  0.4430  0.7112
10069SOL     OW37064   6.376   5.908   4.358  0.0901  0.6118 -0.3655
10069SOL    HW137065   6.316   5.869   4.295  0.9013 -0.6906 -0.3678
10069SOL    HW237066   6.336   5.889   4.443  1.1772 -1.6272 -0.2688
10070SOL     OW37067  11.774   2.698   9.556  0.1081 -0.4004  0.4254
10070SOL    HW137068  11.696   2.680   9.608 -0.2624 -0.9494 -0.3042
10070SOL    HW237069  11.744   2.754   9.484  0.9475  1.8683  1.7337
10071SOL     OW37070  11.215   7.509   0.947 -0.1031 -0.3927  0.3745
10071SOL    HW137071  11.295   7.497   0.896  0.1933  1.0359  0.4786
10071SOL    HW237072  11.181   7.420   0.958  0.2949 -0.8191 -1.5255
10072SOL     OW37073   4.602   5.726   9.158  0.1330  0.2816  0.2981
10072SOL    HW137074   4.662   5.790   9.195  1.5052 -1.3567  1.0546
10072SOL    HW237075   4.631   5.715   9.068  1.9118 -1.4592  1.0145
10073SOL     OW37076   1.167   8.386   1.028  0.1771 -0.4131  0.5094
10073SOL    HW137077   1.197   8.472   0.998 -0.6437 -0.1289  0.4697
10073SOL    HW237078   1.072   8.388   1.016  0.0621 -1.0566  1.2109
10074SOL     OW37079   9.480   9.335   3.612  0.1103 -0.0704  0.2599
10074SOL    HW137080   9.458   9.284   3.533  2.6894 -2.8870  1.1679
10074SOL    HW237081   9.409   9.315   3.673 -0.6651  0.2037 -0.5235
10075SOL     OW37082   9.881   0.395   8.608  0.8091 -0.3963 -0.2847
10075SOL    HW137083   9.865   0.414   8.701  0.5921  0.9170 -0.5695
10075SOL    HW237084   9.820   0.324   8.588  1.0300 -0.8649  0.6325
10076SOL     OW37085   6.469  11.842   2.993  0.2743  0.1394  0.1104
10076SOL    HW137086   6.454  11.761   2.945  2.7401 -0.3782  0.0762
10076SOL    HW237087   6.496  11.813   3.081  1.0628  0.8966  0.1328
10077SOL     OW37088   3.483   2.315   3.203 -0.0416  0.4374  0.3513
10077SOL    HW137089   3.516   2.228   3.223 -0.6833 -0.2117 -1.2289
10077SOL    HW237090   3.389   2.304   3.193  0.1302  0.7411 -2.3223
10078SOL     OW37091   3.971   6.109  10.380 -0.4189  0.1751 -0.2653
10078SOL    HW137092   4.030   6.183  10.390  1.9525 -1.7202  1.0613
10078SOL    HW237093   3.893   6.134  10.428  0.8072  1.3666  1.2241
10079SOL     OW37094   7.450  10.809   9.796 -0.1508 -0.6990 -0.6319
10079SOL    HW137095   7.529  10.756   9.784 -0.1161 -0.4094 -1.7447
10079SOL    HW237096   7.475  10.897   9.767 -0.7784 -0.5225 -0.6563
10080SOL     OW37097   0.937   3.186  11.871  0.5061  0.0297  0.1425
10080SOL    HW137098   1.008   3.220  11.925 -0.4419 -0.5942  1.8709
10080SOL    HW237099   0.981   3.140  11.800  1.9216 -1.5226  1.8951
10081SOL     OW37100   6.523   3.586   2.919 -0.2642 -0.0779 -0.3336
10081SOL    HW137101   6.489   3.505   2.955  2.6889 -0.0839  3.0482
10081SOL    HW237102   6.568   3.560   2.839 -0.1855 -1.6631  0.1890
10082SOL     OW37103   3.960  10.347   2.757 -0.3465  0.1503  0.2089
10082SOL    HW137104   3.887  10.304   2.802  0.0801  0.0369  0.8005
10082SOL    HW237105   3.924  10.432   2.730 -0.9826 -0.2839 -0.3580
10083SOL     OW37106   7.710   4.870   6.213 -0.8063  0.5395 -1.1927
10083SOL    HW137107   7.786   4.912   6.253 -0.0126 -1.2175 -0.7242
10083SOL    HW237108   7.748   4.803   6.155 -1.9890  0.3573 -1.7805
10084SOL     OW37109   8.194   7.752   2.490 -0.3651  0.0111  0.3129
10084SOL    HW137110   8.190   7.697   2.568  0.7912  0.1267  0.4645
10084SOL    HW237111   8.256   7.822   2.512  1.2966 -0.8938 -1.2758
10085SOL     OW37112  10.199   5.237   3.549  0.8432 -0.2367 -0.0646
10085SOL    HW137113  10.204   5.326   3.584 -0.2723 -0.1573 -0.0938
10085SOL    HW237114  10.202   5.180   3.626 -1.3841 -0.0693  0.2118
10086SOL     OW37115   9.698   7.171  11.953 -0.0630  0.0270 -0.5575
10086SOL    HW137116   9.745   7.096  11.916 -1.2929 -0.8423 -0.4000
10086SOL    HW237117   9.638   7.199  11.884 -0.5038  0.0582 -0.1683
10087SOL     OW37118   7.320   4.870   3.574  0.4679  0.4598  0.1971
10087SOL    HW137119   7.306   4.927   3.650  1.1044  1.6929 -0.5981
10087SOL    HW237120   7.413   4.875   3.556  0.5382 -0.8452  0.1015
10088SOL     OW37121   0.783  10.682   4.628 -1.0842  0.1808 -0.0234
10088SOL    HW137122   0.779  10.690   4.724  0.6667  0.3601  0.0683
10088SOL    HW237123   0.762  10.770   4.596  2.1671  1.2499  0.4000
10089SOL     OW37124   9.012   4.338   4.493  0.1183  0.3659 -0.1432
10089SOL    HW137125   9.049   4.320   4.406 -1.3620  1.9537 -1.1920
10089SOL    HW237126   9.081   4.385   4.540  1.0814 -0.8645 -0.2961
10090SOL     OW37127   2.244   5.779  11.658  0.0695 -0.1834  0.3668
10090SOL    HW137128   2.193   5.803  11.581  0.5148  1.5462  0.5667
10090SOL    HW237129   2.179   5.756  11.724 -0.4198  0.9671  0.2976
10091SOL     OW37130  10.735   3.958   9.272  0.2289 -0.6581 -0.3201
10091SOL    HW137131  10.719   3.996   9.185 -0.9140  1.9456  0.9018
10091SOL    HW237132  10.827   3.934   9.271  0.7093  1.0166 -1.6956
10092SOL     OW37133   0.189   9.903  11.917  0.1613 -0.0123 -0.0006
10092SOL    HW137134   0.210   9.819  11.958  0.6977  0.1341  0.0289
10092SOL    HW237135   0.196   9.886  11.823  0.3956  0.0275  0.0076
10093SOL     OW37136   2.396   4.682   3.373 -0.1700 -0.0583 -0.3904
10093SOL    HW137137   2.439   4.598   3.364  0.0726  0.0441 -0.1794
10093SOL    HW237138   2.466   4.746   3.364 -0.0235  0.0889  1.4189
10094SOL     OW37139   2.846  11.743   9.759  0.1633 -0.4987 -0.3433
10094SOL    HW137140   2.895  11.795   9.695  1.0006  0.0716  0.7263
10094SOL    HW237141   2.756  11.773   9.751  0.1623 -0.7954 -1.5938
10095SOL     OW37142   9.493   5.401   8.760 -0.1052  0.5593 -0.3743
10095SOL    HW137143   9.418   5.397   8.701 -0.7714 -1.4308  0.5086
10095SOL    HW237144   9.560   5.348   8.718  0.5742  1.7139 -0.7992
10096SOL     OW37145   3.963  10.541   0.373  0.4382  0.6598  0.1184
10096SOL    HW137146   3.956  10.528   0.468 -0.0802 -2.9894 -0.2672
10096SOL    HW237147   3.885  10.591   0.350 -1.8927 -2.1629  1.2082
10097SOL     OW37148   1.135   5.926   8.697 -0.0298  0.0668  0.3276
10097SOL    HW137149   1.216   5.975   8.681 -0.3205  0.5931  0.4277
10097SOL    HW237150   1.076   5.956   8.628 -0.0649 -0.4830  0.1210
10098SOL     OW37151   6.096   8.377  11.932  0.3669 -0.0172  0.1302
10098SOL    HW137152   6.089   8.438  12.005 -2.6277 -2.2952  2.0030
10098SOL    HW237153   6.009   8.378  11.891  0.4566 -2.3013 -0.2797
10099SOL     OW37154   5.330   7.033   0.717  0.4632 -0.1383  0.3195
10099SOL    HW137155   5.355   7.109   0.664  1.1447  0.0165  0.8458
10099SOL    HW237156   5.260   6.991   0.667  1.3940 -0.2658 -0.9377
10100SOL     OW37157   1.629   4.279   5.866  0.0624 -0.0096  0.3039
10100SOL    HW137158   1.694   4.216   5.834 -1.1343 -0.5453 -1.2323
10100SOL    HW237159   1.650   4.291   5.958  1.3673 -1.3601  0.2222
10101SOL     OW37160   2.127   1.199   2.225  0.2754  0.1262  0.1009
10101SOL    HW137161   2.060   1.254   2.264 -0.0817  0.1935 -0.5946
10101SOL    HW237162   2.115   1.210   2.131  1.6204  0.5730 -0.0330
10102SOL     OW37163  11.394   2.703   7.112  0.2709 -1.2292  0.1816
10102SOL    HW137164  11.390   2.709   7.017  0.2295 -0.7301  0.2144
10102SOL    HW237165  11.437   2.619   7.129  1.0736 -0.9185 -0.2779
10103SOL     OW37166   6.630   5.286   4.859 -0.3131  0.3640 -0.6575
10103SOL    HW137167   6.638   5.378   4.886  0.3150 -0.1155  0.9538
10103SOL    HW237168   6.720   5.260   4.837 -0.5132  0.1773 -1.2619
10104SOL     OW37169   3.746   3.898   6.232  0.0122  0.1222 -0.1655
10104SOL    HW137170   3.825   3.863   6.190 -0.5121  1.0021 -1.9416
10104SOL    HW237171   3.764   3.991   6.243  0.2924 -0.1292  2.0044
10105SOL     OW37172   6.427   4.325   2.698  0.4770  0.1181  0.2264
10105SOL    HW137173   6.455   4.234   2.694 -1.1146 -0.3900  0.1716
10105SOL    HW237174   6.332   4.321   2.707  0.3711  1.7757  0.1649
10106SOL     OW37175  10.315   8.359  12.466  0.2944  0.3923  0.1304
10106SOL    HW137176  10.380   8.417  12.426  0.2051  0.8836  0.6763
10106SOL    HW237177  10.367   8.297  12.517  0.3291  1.3839  1.3593
10107SOL     OW37178   5.275   1.268   0.373 -0.1538  0.1865  0.1515
10107SOL    HW137179   5.224   1.261   0.293 -0.6589 -1.0513  0.5471
10107SOL    HW237180   5.232   1.337   0.423 -1.0011 -0.3110  0.1426
10108SOL     OW37181  12.549   6.749   6.952 -0.4066  0.4570  0.9438
10108SOL    HW137182  12.585   6.690   6.885 -1.0356  0.8212  0.2689
10108SOL    HW237183  12.624   6.771   7.007  0.1176  0.1176  0.3850
10109SOL     OW37184   5.019   2.616   4.870 -0.0802 -0.1425 -0.6545
10109SOL    HW137185   5.085   2.619   4.939  0.0298 -0.3621 -0.7501
10109SOL    HW237186   5.031   2.530   4.829  0.2430  0.2240 -1.3312
10110SOL     OW37187  11.772   8.409   7.409 -0.0143 -0.2276 -0.5578
10110SOL    HW137188  11.859   8.426   7.446 -1.0906 -0.0916  2.1530
10110SOL    HW237189  11.763   8.314   7.409 -0.7942 -0.1935  1.6696
10111SOL     OW37190   6.709   5.672   7.080 -0.0065 -0.1009  0.5277
10111SOL    HW137191   6.735   5.670   6.988 -2.9430 -0.7308 -0.3768
10111SOL    HW237192   6.619   5.704   7.079 -0.4032 -0.9505  3.1140
10112SOL     OW37193   7.768   1.551   6.914 -0.4781 -0.5548  0.2541
10112SOL    HW137194   7.713   1.487   6.960 -0.9767 -1.2207 -1.2073
10112SOL    HW237195   7.816   1.499   6.850  0.0046  0.3889 -0.1654
10113SOL     OW37196   3.837   3.231   0.150 -0.0012 -0.1525 -0.0650
10113SOL    HW137197   3.930   3.236   0.132  0.3711  1.1009  1.9291
10113SOL    HW237198   3.795   3.229   0.063  1.8476 -1.0186 -0.9858
10114SOL     OW37199   2.420   1.109   8.639 -0.0099  0.0746 -0.4607
10114SOL    HW137200   2.334   1.068   8.625  0.1806 -0.6034  0.2897
10114SOL    HW237201   2.468   1.090   8.559  0.2016 -1.5328  0.0078
10115SOL     OW37202   0.440   8.503   2.622 -0.4514  0.1792  0.5425
10115SOL    HW137203   0.363   8.551   2.591  1.5133  1.6332 -2.5762
10115SOL    HW237204   0.510   8.568   2.625  1.3399 -1.6296  0.5321
10116SOL     OW37205   3.825   1.690   6.044 -0.0692 -0.0442 -0.3455
10116SOL    HW137206   3.794   1.601   6.057 -0.8397  0.1232 -0.9692
10116SOL    HW237207   3.746   1.742   6.029  0.1193  1.2289  2.4546
10117SOL     OW37208   0.846   1.549   2.838 -0.6710  0.2143 -0.0894
10117SOL    HW137209   0.835   1.527   2.746  2.7280  0.8430 -0.7556
10117SOL    HW237210   0.870   1.467   2.880 -0.0292  0.3290 -0.2205
10118SOL     OW37211   6.729  10.322   1.592  0.0661  0.4185 -0.2679
10118SOL    HW137212   6.702  10.387   1.528  0.0011 -0.1858 -0.8673
10118SOL    HW237213   6.696  10.355   1.676  0.9050  1.6562 -0.3937
10119SOL     OW37214   2.120   2.655   4.539  0.5477 -0.5066 -0.5453
10119SOL    HW137215   2.119   2.749   4.559  1.3738 -0.4943 -0.5533
10119SOL    HW237216   2.078   2.649   4.453  0.6974 -0.1240 -0.6485
10120SOL     OW37217   2.197  12.018   4.996  0.0440  0.7526  0.2762
10120SOL    HW137218   2.208  12.047   4.905 -0.7431 -2.0338 -0.8337
10120SOL    HW237219   2.108  11.981   4.998  1.1423 -2.1135  1.2246
10121SOL     OW37220   0.990   5.374  10.100 -0.2619  0.3817  0.0965
10121SOL    HW137221   1.027   5.338  10.020  1.4807  1.5411  0.3316
10121SOL    HW237222   0.989   5.301  10.162  3.2591  0.6073  0.5921
10122SOL     OW37223   0.877   6.561   3.795 -0.1671 -0.8971  0.2577
10122SOL    HW137224   0.833   6.503   3.732 -1.3987  0.4476 -0.1557
10122SOL    HW237225   0.806   6.604   3.842  0.6999  0.5896  0.2737
10123SOL     OW37226   2.113  11.296   6.596 -0.2008  0.4025  0.0086
10123SOL    HW137227   2.169  11.219   6.608  0.6233  1.2809  2.3901
10123SOL    HW237228   2.024  11.263   6.606  0.1569 -0.2357  1.3345
10124SOL     OW37229   9.196   7.714  12.286 -0.1180 -0.2037 -1.1496
10124SOL    HW137230   9.288   7.690  12.275  0.2453  0.0250  0.9278
10124SOL    HW237231   9.148   7.637  12.256  0.8340 -1.1135 -0.4549
10125SOL     OW37232   9.380  11.574  12.337  0.2353  0.0104 -0.1874
10125SOL    HW137233   9.398  11.485  12.307 -1.4803 -1.4525  2.6399
10125SOL    HW237234   9.330  11.613  12.265  1.5359 -1.0482 -1.7416
10126SOL     OW37235   4.834   9.427   0.163 -0.4798 -0.6200  0.1610
10126SOL    HW137236   4.804   9.475   0.085 -2.7449 -1.6168  0.3646
10126SOL    HW237237   4.796   9.475   0.237 -2.6203 -2.5098  0.3790
10127SOL     OW37238   1.408   4.459   0.889  0.1675 -0.3209 -0.0953
10127SOL    HW137239   1.482   4.399   0.886  1.2373  0.9724 -0.7532
10127SOL    HW237240   1.338   4.414   0.841  0.3885 -1.6954  0.8161
10128SOL     OW37241   8.525   1.620   6.858 -0.0674  0.3129 -0.3019
10128SOL    HW137242   8.565   1.698   6.820 -2.2276  1.3416 -0.6367
10128SOL    HW237243   8.596   1.576   6.903  1.3702  2.1177 -0.6851
10129SOL     OW37244   1.041   3.625   6.564 -0.3174 -0.2141  0.6505
10129SOL    HW137245   0.977   3.553   6.559  0.8262 -1.2093 -0.2613
10129SOL    HW237246   1.018   3.682   6.490  0.5958 -1.2564 -0.4891
10130SOL     OW37247   5.061   9.821   6.327  0.0785 -0.4309 -0.5335
10130SOL    HW137248   5.076   9.774   6.245 -0.3936 -0.5993 -0.5277
10130SOL    HW237249   5.036   9.909   6.300  0.7357 -0.2416 -0.5487
10131SOL     OW37250  12.576   6.117  12.556 -0.1107  0.0580 -0.0435
10131SOL    HW137251  12.572   6.178  12.630 -0.0461 -0.7290  0.6387
10131SOL    HW237252  12.488   6.080  12.551  0.1369 -0.6149  0.2960
10132SOL     OW37253   4.238   5.845  12.216 -0.4231 -0.2696 -0.1770
10132SOL    HW137254   4.169   5.911  12.219 -0.5441 -0.4205  0.4493
10132SOL    HW237255   4.300   5.879  12.151 -1.1164 -0.1736 -0.8115
10133SOL     OW37256   6.583   6.770  11.382 -0.0639  0.1383 -0.0780
10133SOL    HW137257   6.572   6.829  11.307 -0.5344 -0.3819 -0.4265
10133SOL    HW237258   6.587   6.828  11.458  0.3994  0.6690 -0.5040
10134SOL     OW37259   9.638   7.883   4.563  0.6347 -0.6156 -0.3073
10134SOL    HW137260   9.547   7.862   4.542  0.6243 -1.1495  0.2351
10134SOL    HW237261   9.641   7.883   4.659  1.1177 -0.2071 -0.3168
10135SOL     OW37262   8.120   4.442  12.457  0.2528 -0.4406 -0.1456
10135SOL    HW137263   8.189   4.413  12.517 -0.8871  1.1497  2.1330
10135SOL    HW237264   8.096   4.529  12.490 -1.4616 -0.1088 -2.0912
10136SOL     OW37265  11.734  12.180   7.763  0.3018 -0.4773  0.0408
10136SOL    HW137266  11.752  12.274   7.766  0.8030 -0.5554 -0.3769
10136SOL    HW237267  11.806  12.144   7.712 -1.2268 -0.7502 -2.0785
10137SOL     OW37268   5.433  10.956  10.490 -0.5660 -0.6357  0.3062
10137SOL    HW137269   5.445  10.897  10.564  0.6063  1.5112  1.9456
10137SOL    HW237270   5.434  11.044  10.529  1.6391  0.6858 -2.3771
10138SOL     OW37271   0.953   3.916   5.111 -0.0590 -0.2032  0.9640
10138SOL    HW137272   0.874   3.962   5.081 -0.5548 -0.7306  1.4160
10138SOL    HW237273   0.945   3.829   5.072  0.9572  0.1286 -0.0258
10139SOL     OW37274   5.712   4.211   5.629  0.6974 -0.3703  0.2167
10139SOL    HW137275   5.632   4.191   5.581 -0.3245 -0.5820  1.9321
10139SOL    HW237276   5.753   4.282   5.579 -0.2221 -0.6857 -1.0220
10140SOL     OW37277  10.910   4.554   0.723  0.3991 -0.2948 -0.2356
10140SOL    HW137278  10.876   4.569   0.811  0.4456 -0.7042 -0.1451
10140SOL    HW237279  10.833   4.531   0.671  0.5969 -1.8376  0.1088
10141SOL     OW37280   1.261   6.547   0.927  0.1995  0.3093 -0.3214
10141SOL    HW137281   1.201   6.480   0.960  0.5916 -0.2193 -0.6540
10141SOL    HW237282   1.276   6.605   1.002 -0.3664  0.1878 -0.1079
10142SOL     OW37283   4.762   2.022   9.257 -0.3073  0.1121  0.4032
10142SOL    HW137284   4.848   2.062   9.265 -0.5339  0.8962 -0.7712
10142SOL    HW237285   4.704   2.079   9.307 -0.6942  1.5670 -1.5672
10143SOL     OW37286   8.226   9.496  10.984  0.1269  0.0796 -0.4074
10143SOL    HW137287   8.180   9.533  11.059 -0.0900 -2.2431  0.6762
10143SOL    HW237288   8.317   9.525  10.995  0.0109  0.1118  0.5347
10144SOL     OW37289   0.758   9.779   0.020 -0.2240  0.0037 -0.0510
10144SOL    HW137290   0.780   9.845   0.085  0.2437 -1.9648  1.9442
10144SOL    HW237291   0.838   9.726   0.013 -0.8861 -0.9210 -0.8460
10145SOL     OW37292   0.941   7.053   0.944  0.1241  0.2740  0.2239
10145SOL    HW137293   1.019   7.002   0.921 -1.0117 -1.1102 -0.7345
10145SOL    HW237294   0.878   6.989   0.976 -0.6446  1.3594  0.9615
10146SOL     OW37295   9.401   2.119   6.881  0.0593 -0.4048 -0.2836
10146SOL    HW137296   9.315   2.081   6.865  0.6060 -1.7813 -0.0980
10146SOL    HW237297   9.463   2.050   6.858  1.0541 -0.1420  1.4241
10147SOL     OW37298  10.103   8.822  12.210  0.1702  0.1368 -0.0133
10147SOL    HW137299  10.007   8.830  12.209  0.0311  1.2629  3.8101
10147SOL    HW237300  10.119   8.728  12.209 -0.8681 -0.0572 -1.8464
10148SOL     OW37301   8.581  12.319   2.178 -0.2730 -0.1567 -0.3621
10148SOL    HW137302   8.585  12.235   2.225 -1.3266  0.6990  1.3645
10148SOL    HW237303   8.659  12.318   2.122  2.0366 -0.6159  2.5835
10149SOL     OW37304   6.188   8.879   7.926  0.5684 -0.5980 -0.1433
10149SOL    HW137305   6.239   8.815   7.876 -0.1731  0.2191 -2.0523
10149SOL    HW237306   6.206   8.962   7.882 -1.6981 -0.1536 -0.3383
10150SOL     OW37307   4.753   4.139  11.983 -0.9424 -0.0943 -0.5999
10150SOL    HW137308   4.698   4.144  11.904 -0.2701  2.0726 -0.9917
10150SOL    HW237309   4.694   4.163  12.054 -0.8156  1.0929 -0.8752
10151SOL     OW37310  12.341   9.006  10.012  0.0079 -0.4709 -0.2637
10151SOL    HW137311  12.264   8.958   9.980  0.1941 -1.0994  0.2009
10151SOL    HW237312  12.348   9.082   9.954 -0.9996 -0.3743 -0.2665
10152SOL     OW37313  12.079   0.059   9.935 -0.2691 -0.6363 -0.4157
10152SOL    HW137314  12.016   0.024   9.872  0.1683  0.2417 -1.3698
10152SOL    HW237315  12.039   0.140   9.967  0.1589 -0.3233 -0.6658
10153SOL     OW37316   4.249  10.858   0.260  0.4603 -0.7216  0.3564
10153SOL    HW137317   4.264  10.902   0.344 -0.9989 -0.8947  0.7470
10153SOL    HW237318   4.299  10.909   0.197 -0.5777  1.0858  0.9052
10154SOL     OW37319   5.991   4.347   9.017 -0.0515 -0.7161 -0.3166
10154SOL    HW137320   6.010   4.378   9.106  0.8777 -2.6021  0.1839
10154SOL    HW237321   5.896   4.351   9.010 -0.1036 -0.1389  0.5993
10155SOL     OW37322   3.864   5.110   5.904  0.0756 -0.0877  0.3144
10155SOL    HW137323   3.848   5.204   5.913  0.9856  0.0975  0.1074
10155SOL    HW237324   3.857   5.076   5.993  0.6791  0.3432  0.5377
10156SOL     OW37325   9.667   7.001   5.834  0.6089  0.1741  0.0587
10156SOL    HW137326   9.648   6.908   5.849  0.4647  0.3536  1.0627
10156SOL    HW237327   9.699   7.004   5.744  1.6794 -1.0175  0.3607
10157SOL     OW37328   7.083   6.298   9.763 -0.0699  0.0916  0.1020
10157SOL    HW137329   7.081   6.350   9.844  0.2057  1.7089 -0.8853
10157SOL    HW237330   7.003   6.322   9.717 -0.2946 -0.9207 -0.0596
10158SOL     OW37331   6.324   9.662   0.899  0.2369 -0.1063  0.5237
10158SOL    HW137332   6.269   9.656   0.822  0.2824  0.5552  0.4328
10158SOL    HW237333   6.271   9.708   0.964 -0.1664 -1.5150  1.2373
10159SOL     OW37334  10.546   5.691   1.185  0.0157  0.2044  0.1857
10159SOL    HW137335  10.629   5.680   1.137  0.5158  0.3380  0.9997
10159SOL    HW237336  10.572   5.691   1.277 -0.9606 -0.2933  0.4721
10160SOL     OW37337   5.621   4.772  12.554  0.2833  0.5881 -0.3859
10160SOL    HW137338   5.664   4.724  12.625 -0.4947  0.6814  0.1552
10160SOL    HW237339   5.657   4.860  12.560  0.6146  0.4604 -0.4510
10161SOL     OW37340  10.084   6.580   5.247 -0.1645  0.2180  0.1661
10161SOL    HW137341  10.016   6.584   5.179 -1.5289  1.7169  1.5249
10161SOL    HW237342  10.077   6.491   5.283 -0.9644  0.1450 -0.1544
10162SOL     OW37343   1.999   4.872   6.471 -0.0397 -0.3170  0.1738
10162SOL    HW137344   1.983   4.843   6.560 -0.2787  0.6058  0.4443
10162SOL    HW237345   2.033   4.795   6.426  0.7790 -0.6014  1.2424
10163SOL     OW37346   2.726   7.205   0.049 -0.1057  0.5678 -0.4787
10163SOL    HW137347   2.706   7.256  -0.029  1.3961 -0.0141 -1.2786
10163SOL    HW237348   2.751   7.119   0.015  0.4842  0.2819  0.6575
10164SOL     OW37349   9.744   0.648   8.915  0.1165  0.5584 -0.0010
10164SOL    HW137350   9.674   0.604   8.964 -0.1111  1.0810  0.1526
10164SOL    HW237351   9.814   0.662   8.980 -0.5635  2.1213  0.4613
10165SOL     OW37352   2.823   4.556   9.709  0.0901  0.0578  0.5585
10165SOL    HW137353   2.882   4.557   9.785 -1.1161 -0.0271  1.5320
10165SOL    HW237354   2.748   4.608   9.736 -0.5257 -0.2716 -0.4562
10166SOL     OW37355   4.436   8.042   0.251 -0.1153 -0.4376  0.5590
10166SOL    HW137356   4.406   8.072   0.165 -1.9904 -1.2814  0.8712
10166SOL    HW237357   4.445   8.123   0.302  3.6804  0.3780 -1.1062
10167SOL     OW37358   3.978   6.736   6.333 -0.3394 -0.3643 -0.5727
10167SOL    HW137359   4.069   6.762   6.348 -0.2603 -0.1650 -1.3206
10167SOL    HW237360   3.982   6.684   6.252 -0.6112 -2.0430  0.4448
10168SOL     OW37361   0.906   2.352   9.068  0.0010 -0.6226  0.3289
10168SOL    HW137362   0.949   2.437   9.076  0.3967 -0.8002  0.1178
10168SOL    HW237363   0.816   2.374   9.043 -0.2462 -0.2261  1.5144
10169SOL     OW37364   8.158  12.578   1.995  0.0444 -0.6008 -0.0816
10169SOL    HW137365   8.244  12.555   2.031 -0.5733 -1.7633  0.7454
10169SOL    HW237366   8.123  12.643   2.056  1.4997  2.2014 -2.0362
10170SOL     OW37367  11.380   3.759   7.413 -0.0712 -0.5953 -0.5319
10170SOL    HW137368  11.411   3.691   7.473 -0.1336 -0.0980  0.0689
10170SOL    HW237369  11.457   3.812   7.396 -0.6899  1.1099  1.5792
10171SOL     OW37370   2.456   6.457   0.207 -0.0213  0.2723 -0.0242
10171SOL    HW137371   2.376   6.438   0.158 -0.0605 -0.2891  0.2532
10171SOL    HW237372   2.512   6.503   0.144  0.3483 -1.3762 -0.9668
10172SOL     OW37373  10.079   8.012   7.075 -0.4996 -0.0769  0.0165
10172SOL    HW137374  10.115   8.101   7.075 -0.6982  0.0128  1.0035
10172SOL    HW237375  10.000   8.019   7.129  0.1015 -1.0996  1.0589
10173SOL     OW37376   6.129   7.758   6.456  0.7697 -0.2599 -0.3143
10173SOL    HW137377   6.221   7.770   6.477  0.9882 -1.8537 -0.2954
10173SOL    HW237378   6.103   7.842   6.416  2.0295  0.4451  0.2908
10174SOL     OW37379   3.494   4.800   4.606  0.7006  0.0884  0.1873
10174SOL    HW137380   3.435   4.859   4.653  0.5060  0.1628 -0.1429
10174SOL    HW237381   3.460   4.712   4.624  0.9107  0.0813  0.5695
10175SOL     OW37382   5.799   1.287  12.410 -0.4199 -0.0469  0.5682
10175SOL    HW137383   5.782   1.373  12.448 -2.0208 -0.4269  0.7881
10175SOL    HW237384   5.879   1.256  12.453  0.4296  1.4967  0.1620
10176SOL     OW37385  10.312   6.177  12.238 -0.0938  0.2028  0.6801
10176SOL    HW137386  10.284   6.118  12.168  1.8139  0.8322 -0.6893
10176SOL    HW237387  10.234   6.227  12.259 -0.3679  1.2037 -2.2525
10177SOL     OW37388   6.411   2.061  12.221 -0.0364  0.3862 -0.2259
10177SOL    HW137389   6.488   2.102  12.181  0.4932 -0.7166 -0.3506
10177SOL    HW237390   6.441   2.032  12.307 -0.3695  0.1360 -0.1925
10178SOL     OW37391   2.590  11.569   4.203  0.2054  0.1683  0.2989
10178SOL    HW137392   2.505  11.608   4.183  0.4019 -0.0282 -0.9918
10178SOL    HW237393   2.652  11.640   4.194  0.4505 -0.2016 -1.1270
10179SOL     OW37394   7.758   0.034   6.633  0.3738 -0.3520  0.1425
10179SOL    HW137395   7.691   0.040   6.701 -0.0065 -1.7312 -0.0891
10179SOL    HW237396   7.834   0.080   6.670  0.0529 -0.7555  1.3483
10180SOL     OW37397   5.209   8.105   3.160 -0.7894 -0.0216 -0.2261
10180SOL    HW137398   5.141   8.088   3.225 -0.7920  1.8619  0.3077
10180SOL    HW237399   5.252   8.020   3.148 -2.4379 -0.9696  0.3121
10181SOL     OW37400   3.212   2.021  10.007  0.2151 -0.4957  0.2848
10181SOL    HW137401   3.154   2.095  10.024 -1.5972 -1.8380  0.2350
10181SOL    HW237402   3.214   1.973  10.090  0.6850 -0.8665  0.0625
10182SOL     OW37403  10.014   8.982   7.870 -0.4653  0.4610  0.3039
10182SOL    HW137404   9.964   9.064   7.875  2.0340  2.0905  0.5739
10182SOL    HW237405  10.092   8.999   7.922  1.6182 -0.9480 -2.1403
10183SOL     OW37406   3.781   7.491  11.506 -0.2866  0.6592  0.0460
10183SOL    HW137407   3.719   7.561  11.484  0.7610  0.8685 -2.5811
10183SOL    HW237408   3.726   7.412  11.510 -0.9438  1.0429 -0.8754
10184SOL     OW37409   9.461   0.554   0.584 -0.0998 -0.0390 -0.0700
10184SOL    HW137410   9.470   0.648   0.596  1.6328 -0.1070 -0.5973
10184SOL    HW237411   9.417   0.545   0.499  0.8272  0.3025 -0.6021
10185SOL     OW37412   5.569   6.944  11.139 -0.1622 -0.6489 -0.1584
10185SOL    HW137413   5.570   7.028  11.186  0.6008 -0.5178 -0.4050
10185SOL    HW237414   5.637   6.952  11.073 -1.4649 -0.7036 -1.5627
10186SOL     OW37415   5.732   4.508   4.346 -0.9313  0.3023  0.1614
10186SOL    HW137416   5.814   4.526   4.299  0.5409 -1.5072  1.8892
10186SOL    HW237417   5.725   4.580   4.409 -2.0207  1.7902 -1.5382
10187SOL     OW37418  10.336   3.842   1.663 -0.0212 -0.0738  0.5536
10187SOL    HW137419  10.267   3.778   1.680  1.6414 -1.8609  1.0190
10187SOL    HW237420  10.300   3.925   1.693 -1.7431 -1.0472  1.3373
10188SOL     OW37421  11.814   3.074   1.533 -0.3865  0.1407 -0.3697
10188SOL    HW137422  11.755   3.060   1.459 -1.3344  2.3092 -0.1029
10188SOL    HW237423  11.783   3.154   1.574  1.3151  0.0612  1.2342
10189SOL     OW37424   3.312   6.054  10.686  0.7074  0.3564  0.0234
10189SOL    HW137425   3.400   6.018  10.701  0.5251 -0.8416 -1.5557
10189SOL    HW237426   3.328   6.132  10.633  0.7365 -1.2956 -2.5501
10190SOL     OW37427   9.534   3.015   2.798 -0.2369 -0.2966  0.0654
10190SOL    HW137428   9.513   2.946   2.860 -0.6749 -0.2937 -0.0754
10190SOL    HW237429   9.530   2.971   2.712 -2.1708  0.2607 -0.1663
10191SOL     OW37430   5.428   7.246   7.165 -0.5839  0.2317 -0.0252
10191SOL    HW137431   5.497   7.311   7.180 -0.1785 -0.3623  0.7628
10191SOL    HW237432   5.434   7.226   7.072 -0.0618  0.6067 -0.0785
10192SOL     OW37433  11.110   4.686  12.281  0.0174  0.4221 -0.1074
10192SOL    HW137434  11.061   4.618  12.237  0.9145 -0.8444  0.7869
10192SOL    HW237435  11.136   4.648  12.365 -0.5640  2.3167  1.0046
10193SOL     OW37436   1.742   9.104   6.707  0.1669 -0.4827 -0.1723
10193SOL    HW137437   1.772   9.019   6.675 -0.0819 -1.5176  2.1581
10193SOL    HW237438   1.746   9.096   6.802 -1.4254  1.5646  0.1143
10194SOL     OW37439   3.244  11.668   7.312  0.3962 -0.1299  0.0737
10194SOL    HW137440   3.149  11.676   7.320  0.3678  2.3556 -1.5499
10194SOL    HW237441   3.257  11.584   7.269 -1.0584 -0.6259  0.5427
10195SOL     OW37442   2.168   8.837   9.958 -0.2315  0.6557 -0.0833
10195SOL    HW137443   2.090   8.784   9.941  0.1897  0.4966 -1.6728
10195SOL    HW237444   2.187   8.879   9.874  2.8781 -1.2710 -0.4739
10196SOL     OW37445   9.337   7.933   1.523  0.3487  0.5549 -0.9049
10196SOL    HW137446   9.265   7.870   1.530  0.4054  0.5380 -0.3915
10196SOL    HW237447   9.390   7.902   1.450  0.6139 -0.2429 -0.3863
10197SOL     OW37448   2.780   2.794   9.873 -0.1829 -0.6772  0.6315
10197SOL    HW137449   2.787   2.748   9.789  1.6349  0.8741 -0.1618
10197SOL    HW237450   2.870   2.819   9.894 -0.4773 -1.6373  3.4660
10198SOL     OW37451   3.717   6.048   1.277 -0.0369 -0.1605 -0.3206
10198SOL    HW137452   3.750   6.073   1.191 -0.0763  1.0224 -0.0115
10198SOL    HW237453   3.649   6.113   1.297 -2.9598 -2.7604 -1.1209
10199SOL     OW37454   4.790  11.395   8.543  0.2947 -0.4875  0.5011
10199SOL    HW137455   4.821  11.476   8.500  1.4292 -1.5405 -0.7514
10199SOL    HW237456   4.796  11.414   8.636  0.3019  0.9626  0.2393
10200SOL     OW37457   6.209   2.054   6.823 -0.0968 -0.2755  0.2037
10200SOL    HW137458   6.142   2.026   6.761 -0.3145 -1.5313  0.9773
10200SOL    HW237459   6.292   2.029   6.782 -0.0143  1.7409 -0.9902
10201SOL     OW37460   4.436   6.841   4.904 -0.3344  0.2290 -0.5665
10201SOL    HW137461   4.481   6.896   4.839  1.2551 -0.1916  0.1303
10201SOL    HW237462   4.383   6.782   4.852  0.9935 -0.1731 -1.5354
10202SOL     OW37463   5.608   8.868   5.621 -0.4882  0.2984  0.8044
10202SOL    HW137464   5.591   8.775   5.603 -0.3496  0.4194  0.0433
10202SOL    HW237465   5.697   8.870   5.656  0.1334  0.3234 -0.7361
10203SOL     OW37466   4.921   6.323   3.024  0.4221  0.9290 -0.3412
10203SOL    HW137467   5.007   6.330   3.066  0.2039  0.2888  0.2332
10203SOL    HW237468   4.940   6.291   2.936  0.7705  0.7411 -0.2007
10204SOL     OW37469   9.922   9.721  10.157 -0.4289  0.3354  0.4586
10204SOL    HW137470   9.937   9.645  10.214  0.2749  0.4648  0.4573
10204SOL    HW237471  10.010   9.754  10.138 -0.7667  2.2172  1.8995
10205SOL     OW37472   6.108   8.815  11.808 -0.0377 -0.0041 -0.3056
10205SOL    HW137473   6.173   8.746  11.818 -0.6830 -0.3204  2.9479
10205SOL    HW237474   6.026   8.775  11.839 -0.7392  1.7648  0.2423
10206SOL     OW37475   8.290   3.056   5.869  0.6107 -0.0393  0.1976
10206SOL    HW137476   8.205   3.034   5.832  0.1813 -1.4364  1.8397
10206SOL    HW237477   8.340   2.974   5.864  0.3731 -0.4689  2.9116
10207SOL     OW37478  10.875   1.042   3.380  0.1059 -0.3800 -0.0046
10207SOL    HW137479  10.915   0.998   3.305  0.5066 -0.1397  0.0623
10207SOL    HW237480  10.891   0.983   3.454  0.1695 -0.3729 -0.0128
10208SOL     OW37481   6.673   9.205   1.597  0.8288  0.3213  0.5319
10208SOL    HW137482   6.699   9.116   1.571 -1.8736 -0.2734 -0.4196
10208SOL    HW237483   6.708   9.261   1.527  1.0128 -0.2082  0.1904
10209SOL     OW37484  10.327  10.440   8.978  0.4391  0.1184 -0.3958
10209SOL    HW137485  10.342  10.517   9.033  1.3465 -0.5266  0.3046
10209SOL    HW237486  10.391  10.376   9.010 -1.9295 -1.8262  0.7776
10210SOL     OW37487   2.098   9.942   8.456 -0.5717 -0.2407  0.1806
10210SOL    HW137488   2.070   9.859   8.418 -1.8538  1.0051 -1.7750
10210SOL    HW237489   2.035   9.959   8.526 -0.4200 -0.7931  0.4601
10211SOL     OW37490   7.223  10.167   8.145 -0.2392  0.1306 -0.6380
10211SOL    HW137491   7.276  10.178   8.066 -0.0321  1.1626 -0.3717
10211SOL    HW237492   7.258  10.231   8.207 -1.2524  0.2567 -0.1640
10212SOL     OW37493   8.520   0.159   5.662  0.3691  0.1733 -0.3155
10212SOL    HW137494   8.449   0.221   5.643  1.9634  2.5447  0.9162
10212SOL    HW237495   8.508   0.089   5.598 -2.3368  1.0714 -0.9339
10213SOL     OW37496   8.135   9.166   6.177  0.0326 -0.0308 -0.0205
10213SOL    HW137497   8.162   9.122   6.096  1.7907  1.5842 -0.3794
10213SOL    HW237498   8.217   9.189   6.220 -0.8214  1.8167  0.7160
10214SOL     OW37499   0.669   2.377  10.019  0.4677 -0.0403 -0.1670
10214SOL    HW137500   0.745   2.429   9.996  1.0284 -1.3064 -1.3456
10214SOL    HW237501   0.702   2.286  10.020 -0.4759 -0.4207  1.7198
10215SOL     OW37502  11.135   5.652   2.950  0.4584 -0.5661 -0.4768
10215SOL    HW137503  11.216   5.665   2.999 -0.2315 -2.6768  1.3849
10215SOL    HW237504  11.150   5.575   2.896 -0.5572 -1.5934  0.6322
10216SOL     OW37505   0.612   7.497   8.113 -0.6298  0.1800 -0.6480
10216SOL    HW137506   0.532   7.469   8.157  0.0886  0.6848  1.0327
10216SOL    HW237507   0.581   7.558   8.045 -1.5979  1.6093  0.9832
10217SOL     OW37508  12.321   6.982  10.232 -0.2134  0.7861 -0.1594
10217SOL    HW137509  12.285   7.049  10.291 -1.7799  0.1886 -0.3689
10217SOL    HW237510  12.362   7.032  10.162 -0.5492  1.5359  0.1613
10218SOL     OW37511   4.755   6.316   1.048 -0.2576 -0.1862  0.0086
10218SOL    HW137512   4.799   6.356   0.973  0.2195 -1.1545 -0.2422
10218SOL    HW237513   4.817   6.322   1.120 -0.3911  0.0017  0.1085
10219SOL     OW37514   8.309   2.010   3.099  0.3777 -0.7728  0.0532
10219SOL    HW137515   8.292   2.072   3.029 -0.3650  0.0105  0.9013
10219SOL    HW237516   8.223   1.976   3.123  0.6611 -1.3088  0.3449
10220SOL     OW37517   9.434   9.425  11.293 -0.0856 -0.3456  0.9198
10220SOL    HW137518   9.494   9.490  11.258  0.3454 -0.0906  2.0975
10220SOL    HW237519   9.452   9.346  11.241  0.2745  0.1106  0.3306
10221SOL     OW37520   9.863   3.273   6.660  0.4154 -0.3926  0.4860
10221SOL    HW137521   9.808   3.199   6.637 -0.7418  0.7371 -0.5859
10221SOL    HW237522   9.876   3.320   6.577  0.5324  0.9704  1.2334
10222SOL     OW37523   7.357   8.104   8.197  0.4941 -0.0114 -0.4398
10222SOL    HW137524   7.354   8.011   8.218 -0.4197  0.2975  0.9177
10222SOL    HW237525   7.301   8.114   8.120  0.1517 -0.5092 -0.2587
10223SOL     OW37526   1.151   5.452   9.866  0.5252  0.4178  0.5361
10223SOL    HW137527   1.115   5.428   9.780  0.1279 -2.4843  1.3753
10223SOL    HW237528   1.101   5.529   9.892 -0.8199  0.1370 -0.9796
10224SOL     OW37529  10.008   5.628  10.499  0.4748  0.4501  0.5973
10224SOL    HW137530  10.033   5.536  10.492  1.5154  0.6065  1.7869
10224SOL    HW237531  10.087   5.676  10.472  0.1618  0.9913  0.6270
10225SOL     OW37532   6.198   4.291   9.993  0.7142 -0.0430  0.1473
10225SOL    HW137533   6.291   4.296   9.971  1.1873  0.5708  2.0526
10225SOL    HW237534   6.171   4.202   9.969  2.4009 -1.0189  1.6672
10226SOL     OW37535  10.687   5.604   0.268  0.3108  0.0162  0.0979
10226SOL    HW137536  10.685   5.611   0.172  1.0946 -0.0492  0.0657
10226SOL    HW237537  10.779   5.584   0.288  0.2220  0.3723  0.8887
10227SOL     OW37538  11.669   8.710   3.736 -0.4277  0.0415 -0.1398
10227SOL    HW137539  11.592   8.664   3.703 -0.6149  0.6600 -0.5674
10227SOL    HW237540  11.734   8.702   3.666  0.0844 -0.9022  0.4109
10228SOL     OW37541   8.332   5.330   9.925 -0.3995  0.4000  0.0499
10228SOL    HW137542   8.278   5.332  10.004 -0.3725 -1.1223  0.1410
10228SOL    HW237543   8.269   5.329   9.853 -0.4340  1.3213  0.0647
10229SOL     OW37544   3.877   5.773  12.146 -0.2605 -0.0786  0.6717
10229SOL    HW137545   3.804   5.725  12.107 -0.3646  0.3486  0.3327
10229SOL    HW237546   3.927   5.806  12.071  0.8434 -1.1813  0.8778
10230SOL     OW37547   6.475   4.113   1.145 -0.4385 -0.3923 -0.0777
10230SOL    HW137548   6.430   4.089   1.226 -1.3433 -1.9043 -0.9826
10230SOL    HW237549   6.417   4.082   1.075  0.4264  0.6752 -1.3069
10231SOL     OW37550  11.840   3.964   1.069 -0.2741  0.2785  0.0136
10231SOL    HW137551  11.747   3.953   1.051 -0.1916 -0.2392 -0.1186
10231SOL    HW237552  11.875   4.007   0.990 -0.7034  2.0940  0.7617
10232SOL     OW37553   3.539   5.347   1.389  0.0478  0.0117  0.4973
10232SOL    HW137554   3.584   5.419   1.434 -0.5876  1.5455 -1.2227
10232SOL    HW237555   3.457   5.385   1.358 -1.1727 -1.9760  1.0866
10233SOL     OW37556   3.653   0.492   4.610 -0.4496  0.1349  0.0700
10233SOL    HW137557   3.613   0.455   4.688  0.7399 -0.2895  0.5026
10233SOL    HW237558   3.619   0.582   4.606 -0.7166  0.0811  0.9330
10234SOL     OW37559   8.069   1.961   2.854 -0.6627  0.1422 -0.4434
10234SOL    HW137560   8.028   1.929   2.934  2.1540  0.2821  1.1797
10234SOL    HW237561   8.146   1.906   2.842  0.9394  2.3622 -1.0153
10235SOL     OW37562   1.626  11.063  10.429 -0.1248  0.4003 -0.3093
10235SOL    HW137563   1.666  11.145  10.457  1.2294 -0.1152 -0.6150
10235SOL    HW237564   1.552  11.050  10.487  0.0884  1.4775  0.2084
10236SOL     OW37565   0.296  11.608   2.985  0.4154  0.1988  0.1657
10236SOL    HW137566   0.278  11.590   2.893 -0.3188  0.3858  0.2722
10236SOL    HW237567   0.381  11.567   3.001  1.4278  1.7132 -1.0524
10237SOL     OW37568   7.815   5.280   9.536 -0.0180 -0.1426 -0.1361
10237SOL    HW137569   7.766   5.274   9.618 -0.4928 -0.7235 -0.4548
10237SOL    HW237570   7.893   5.331   9.559 -1.5236  2.2668  0.0223
10238SOL     OW37571   4.605   9.014   8.952 -0.4705  0.5728 -0.0937
10238SOL    HW137572   4.655   9.013   9.034 -1.1425 -1.1869  0.3217
10238SOL    HW237573   4.516   8.991   8.977 -1.2434  2.3342 -1.0278
10239SOL     OW37574  10.841   4.765   0.337 -0.3938  0.0259  0.1162
10239SOL    HW137575  10.924   4.747   0.382  0.2388  0.3388 -0.8829
10239SOL    HW237576  10.800   4.834   0.388  0.5930  0.7995 -0.1009
10240SOL     OW37577  11.534   4.845   0.008 -0.6545 -0.0067  0.1967
10240SOL    HW137578  11.449   4.890   0.011 -1.9930 -2.3650  0.2140
10240SOL    HW237579  11.525   4.784  -0.065 -0.0637 -2.2714  1.9272
10241SOL     OW37580   8.646   2.059   1.898 -0.0264  0.1148 -0.0573
10241SOL    HW137581   8.728   2.024   1.931 -0.2848 -1.5797 -1.0632
10241SOL    HW237582   8.670   2.111   1.822  0.2287  0.8842  0.5391
10242SOL     OW37583   2.390   9.146  12.540  0.3215 -0.3204 -0.4269
10242SOL    HW137584   2.430   9.108  12.618  1.1940 -0.2290 -0.8202
10242SOL    HW237585   2.355   9.070  12.492 -0.0956 -0.3884 -0.0198
10243SOL     OW37586   0.922   2.779   0.947 -0.0747 -0.1751  0.1405
10243SOL    HW137587   0.975   2.700   0.947 -0.4425 -0.4347 -0.8479
10243SOL    HW237588   0.943   2.822   1.030 -0.2498 -1.5553  0.9261
10244SOL     OW37589  11.007   3.167   8.467 -0.2985 -0.2096  0.0329
10244SOL    HW137590  10.923   3.156   8.423 -1.0151 -0.5370  1.4260
10244SOL    HW237591  10.998   3.248   8.517 -0.0549 -0.6200  0.7606
10245SOL     OW37592   4.277   7.863   0.763 -0.1480  0.0527 -0.1546
10245SOL    HW137593   4.252   7.781   0.721 -0.8426 -0.5411  1.3298
10245SOL    HW237594   4.352   7.895   0.712 -1.1653 -0.4137 -2.0207
10246SOL     OW37595   5.358   5.317   3.379 -0.4371 -0.0769 -0.2176
10246SOL    HW137596   5.408   5.307   3.299  0.8226  0.7691  0.4303
10246SOL    HW237597   5.335   5.410   3.381  0.3714  0.1184  0.8526
10247SOL     OW37598   8.600  11.104   6.958  0.1987  0.3627  0.2798
10247SOL    HW137599   8.520  11.139   6.997 -0.6088  0.8618 -1.7383
10247SOL    HW237600   8.607  11.015   6.993 -0.6687  0.6528  1.2432
10248SOL     OW37601   8.596   9.331   7.903  0.0159 -0.0403  0.3838
10248SOL    HW137602   8.540   9.356   7.976  0.4205  0.7610  0.4263
10248SOL    HW237603   8.616   9.414   7.859  1.0155 -0.3363  0.2644
10249SOL     OW37604   3.226   5.207   3.451 -0.5160  0.0478 -0.8667
10249SOL    HW137605   3.298   5.246   3.500 -1.8396 -0.4362  1.6381
10249SOL    HW237606   3.152   5.207   3.513 -2.0531 -1.4716 -2.5771
10250SOL     OW37607   8.253   3.338   4.163  0.1503 -0.3245 -0.2180
10250SOL    HW137608   8.270   3.403   4.094  1.3493 -2.5749 -2.2251
10250SOL    HW237609   8.203   3.269   4.118  0.2697 -1.5023  1.3912
10251SOL     OW37610   3.713   9.412   6.416  0.2966 -0.3831  0.3499
10251SOL    HW137611   3.652   9.338   6.419 -0.5827  0.3194  0.1962
10251SOL    HW237612   3.733   9.429   6.508 -1.2149  0.5529  0.5425
10252SOL     OW37613   5.299   9.744   9.346  0.2302  0.1936  0.2143
10252SOL    HW137614   5.229   9.678   9.345  1.6185 -1.3429 -0.8432
10252SOL    HW237615   5.370   9.704   9.295  1.4183  2.2170  0.1963
10253SOL     OW37616   4.653   7.567   2.128 -0.2159  0.0907 -0.1954
10253SOL    HW137617   4.598   7.503   2.084 -0.0503  0.1114 -0.4284
10253SOL    HW237618   4.612   7.651   2.109  0.9169  0.2875 -1.8946
10254SOL     OW37619   0.152   3.228   6.612 -1.3138 -0.4171 -0.3289
10254SOL    HW137620   0.197   3.250   6.531 -1.3936 -0.0257 -0.2690
10254SOL    HW237621   0.134   3.313   6.654 -0.1930 -0.6623  0.6952
10255SOL     OW37622   0.622   4.906   4.869 -0.3660  0.5117  0.2691
10255SOL    HW137623   0.540   4.944   4.902 -1.0698 -0.0002 -0.8384
10255SOL    HW237624   0.622   4.817   4.904 -0.6079  0.3039 -0.2490
10256SOL     OW37625   1.407  10.230   3.599  0.3317 -0.4350 -0.0163
10256SOL    HW137626   1.320  10.270   3.606  0.3229 -0.7240  2.0892
10256SOL    HW237627   1.409  10.194   3.510 -2.1874 -1.4699  0.2613
10257SOL     OW37628   5.261   4.728   1.467  0.0142  0.0120 -0.2362
10257SOL    HW137629   5.177   4.745   1.509  1.3410 -0.4870  2.8322
10257SOL    HW237630   5.313   4.806   1.483  0.6267 -0.2738 -0.7833
10258SOL     OW37631   4.700   6.371   5.095  0.2591  0.3840  0.1504
10258SOL    HW137632   4.660   6.458   5.093 -0.1088  0.2350 -1.9193
10258SOL    HW237633   4.696   6.344   5.187 -3.4030  0.8593  0.2909
10259SOL     OW37634   3.673   8.100   4.350 -0.3484  0.1900  0.7329
10259SOL    HW137635   3.636   8.069   4.268 -1.4021  2.0630  0.4519
10259SOL    HW237636   3.598   8.137   4.398  0.5042  0.5002  1.8775
10260SOL     OW37637  11.619   8.350   3.597 -0.3732 -0.7122  0.2465
10260SOL    HW137638  11.555   8.363   3.667 -0.4521 -0.2622  0.0979
10260SOL    HW237639  11.654   8.262   3.611 -1.2661 -1.1008  0.1304
10261SOL     OW37640  10.930  11.818   1.849 -0.1038  0.4187 -0.1408
10261SOL    HW137641  11.018  11.831   1.884 -0.1190 -1.3029  0.6652
10261SOL    HW237642  10.904  11.904   1.816  1.1814  1.3662  1.1740
10262SOL     OW37643   5.581  11.171   0.926  0.0684 -0.0355  0.5833
10262SOL    HW137644   5.589  11.198   1.018  0.2951 -1.5092  1.0274
10262SOL    HW237645   5.646  11.224   0.880  2.1894 -1.4132  1.7988
10263SOL     OW37646  11.562   2.705   3.830  0.2816  0.1735 -0.4891
10263SOL    HW137647  11.552   2.799   3.848  1.2379  0.4245 -1.1848
10263SOL    HW237648  11.616   2.701   3.751 -1.3430 -0.9359 -1.6185
10264SOL     OW37649  10.444  10.821   0.231 -0.0748 -0.4736  0.2138
10264SOL    HW137650  10.518  10.772   0.267 -0.4414 -0.7290  0.6265
10264SOL    HW237651  10.448  10.804   0.136  1.0378  0.3992  0.0857
10265SOL     OW37652   9.219   0.752   9.327 -0.3507 -0.7485  0.1898
10265SOL    HW137653   9.146   0.722   9.272 -0.3453 -1.4950  0.5773
10265SOL    HW237654   9.182   0.753   9.415 -0.8969  2.1316  0.0125
10266SOL     OW37655   1.487   1.274   1.497 -0.6228  0.2601  0.3996
10266SOL    HW137656   1.418   1.338   1.481 -1.8631 -1.7246 -3.1995
10266SOL    HW237657   1.558   1.299   1.438 -0.8091 -1.1858 -0.4681
10267SOL     OW37658   3.062  11.387   1.000  0.0278 -0.3923 -0.2394
10267SOL    HW137659   3.039  11.422   1.086 -0.1215 -1.7026  0.2751
10267SOL    HW237660   2.979  11.359   0.962  0.2350 -0.9093 -0.3147
10268SOL     OW37661   3.438  10.323  10.869 -0.1695 -0.6892  0.0556
10268SOL    HW137662   3.514  10.282  10.827  1.4774  1.9522  0.2401
10268SOL    HW237663   3.427  10.406  10.823 -0.9459  0.3953  2.0828
10269SOL     OW37664   0.751   1.967   9.330  0.3662  0.4061  0.0599
10269SOL    HW137665   0.662   1.941   9.352  0.2114 -1.1177 -2.0908
10269SOL    HW237666   0.753   1.971   9.235  2.3293  1.4964  0.0839
10270SOL     OW37667   9.939  12.102  10.728  0.2012 -0.3432  0.3359
10270SOL    HW137668   9.898  12.027  10.686  3.3594 -0.6488 -2.5407
10270SOL    HW237669  10.032  12.082  10.730  1.2468  3.4625 -0.7294
10271SOL     OW37670   4.473  12.544   2.374 -0.0820  0.6645 -0.1549
10271SOL    HW137671   4.498  12.557   2.283  3.5573 -0.5147  0.5083
10271SOL    HW237672   4.509  12.619   2.421  0.1657  0.1026  0.5863
10272SOL     OW37673   9.774  10.776   9.900 -0.4240 -0.6776  0.2422
10272SOL    HW137674   9.718  10.746   9.829 -1.0572  1.0070 -0.0088
10272SOL    HW237675   9.732  10.744   9.979 -0.8037 -0.8557 -0.0292
10273SOL     OW37676   3.480   2.830   6.954  0.4624 -0.1068 -0.0823
10273SOL    HW137677   3.541   2.867   6.891  2.1530  2.2752  2.6845
10273SOL    HW237678   3.515   2.743   6.974 -0.2219 -0.9856 -2.4265
10274SOL     OW37679   3.025  10.374   7.004 -0.5468  0.3580 -0.6064
10274SOL    HW137680   2.974  10.311   7.055 -0.1259 -0.0348 -0.6610
10274SOL    HW237681   2.968  10.398   6.931 -0.7554  0.1280 -0.5217
10275SOL     OW37682   5.258  10.169   2.258  0.1473 -0.1684  0.1542
10275SOL    HW137683   5.239  10.150   2.166  3.0867 -1.7084 -0.2813
10275SOL    HW237684   5.191  10.123   2.307 -1.2873  0.4086 -1.1764
10276SOL     OW37685   5.328   7.749   2.863 -0.1891  0.0321 -0.8598
10276SOL    HW137686   5.278   7.670   2.842 -1.9893  0.1563  2.2557
10276SOL    HW237687   5.269   7.821   2.840 -0.9897  0.2178  1.4888
10277SOL     OW37688   9.266   9.900   3.559  0.0309  0.0537  0.3275
10277SOL    HW137689   9.184   9.927   3.517  1.1274  0.4956 -1.6732
10277SOL    HW237690   9.293   9.976   3.610 -1.8339 -0.8408  2.7983
10278SOL     OW37691   1.332   8.264   2.917 -0.4887 -0.4723 -0.0303
10278SOL    HW137692   1.314   8.211   2.839  0.0293 -0.4686 -0.1531
10278SOL    HW237693   1.401   8.324   2.890 -1.1576  0.3573  0.0765
10279SOL     OW37694   7.581   0.163   6.838 -0.2954 -0.3400 -0.1689
10279SOL    HW137695   7.521   0.099   6.876 -1.1581  0.4915 -0.0965
10279SOL    HW237696   7.531   0.205   6.768  0.3887 -0.0094 -0.4713
10280SOL     OW37697   6.158   6.974   5.066 -0.1739 -0.2935 -0.4701
10280SOL    HW137698   6.135   6.929   5.147  0.8311  0.7840  0.4571
10280SOL    HW237699   6.074   6.989   5.022 -0.8181 -0.2885  0.7058
10281SOL     OW37700   6.479   1.628   1.781 -0.5934 -0.0306 -0.3442
10281SOL    HW137701   6.403   1.576   1.806 -0.2012 -1.1885 -1.5063
10281SOL    HW237702   6.444   1.694   1.721 -1.2691  1.8049  1.8798
10282SOL     OW37703  10.231   4.285   1.130 -0.0051 -0.0499  0.0555
10282SOL    HW137704  10.220   4.379   1.122 -0.2733  0.0037  0.9058
10282SOL    HW237705  10.252   4.272   1.223  0.0919 -0.8195 -0.0685
10283SOL     OW37706   5.676   0.212   0.886 -0.2636 -0.2073  0.2204
10283SOL    HW137707   5.630   0.174   0.960 -1.8495  1.6254  0.2696
10283SOL    HW237708   5.629   0.181   0.809  0.3276 -0.7521  0.0708
10284SOL     OW37709   7.210   7.206   8.066  0.8465 -0.5956  0.0101
10284SOL    HW137710   7.218   7.238   8.156  1.3033  0.9454 -0.5519
10284SOL    HW237711   7.278   7.139   8.058  1.8841  0.3978  0.3463
10285SOL     OW37712  11.976   8.612   7.480  0.5432 -0.4345  0.6874
10285SOL    HW137713  11.917   8.661   7.536  1.5472  0.5360  0.9194
10285SOL    HW237714  11.985   8.665   7.401 -2.6435 -2.7998 -1.5164
10286SOL     OW37715   8.815  11.353   9.251  0.3766 -0.1267 -0.6683
10286SOL    HW137716   8.803  11.408   9.328 -1.2734  0.0413 -1.0079
10286SOL    HW237717   8.877  11.286   9.279  0.9220  0.7758  0.3460
10287SOL     OW37718   6.187   8.877  10.160  0.4887  0.3939 -0.0734
10287SOL    HW137719   6.264   8.932  10.143  0.3268  0.6169 -0.0899
10287SOL    HW237720   6.113   8.932  10.136  0.3865 -0.6988 -2.6408
10288SOL     OW37721   6.888   3.578  10.607 -1.1408 -0.1577 -0.3843
10288SOL    HW137722   6.961   3.545  10.554 -0.6775 -0.7718  0.5975
10288SOL    HW237723   6.915   3.561  10.697 -2.3718 -0.1135  0.0091
10289SOL     OW37724   2.255   1.381  10.060 -0.5344  0.2987 -0.1029
10289SOL    HW137725   2.327   1.436  10.029  0.0559 -1.4135 -2.0261
10289SOL    HW237726   2.185   1.394   9.995 -1.5588  1.0925  1.1285
10290SOL     OW37727   7.159   3.763   2.470 -0.1152 -0.4252 -0.9074
10290SOL    HW137728   7.240   3.795   2.509 -0.9073 -0.7440  1.1282
10290SOL    HW237729   7.091   3.818   2.508 -1.1023 -1.9057 -0.4494
10291SOL     OW37730   3.980  11.848   7.650  0.0255 -0.3754 -0.0147
10291SOL    HW137731   4.058  11.791   7.648  0.0190 -0.3865  0.0478
10291SOL    HW237732   3.972  11.881   7.560  0.3543 -0.0316  0.0809
10292SOL     OW37733   7.458   7.380   5.084  0.1162  0.0448  0.2287
10292SOL    HW137734   7.419   7.293   5.078 -0.2627  0.2561 -0.4540
10292SOL    HW237735   7.463   7.411   4.994  0.4214  0.6594  0.4482
10293SOL     OW37736   5.344   9.768   5.184  1.0107 -0.3023  0.3051
10293SOL    HW137737   5.362   9.741   5.094 -1.0872 -3.4306  0.6716
10293SOL    HW237738   5.418   9.825   5.208  1.3452  1.1207 -3.5008
10294SOL     OW37739   0.043   3.830   0.670  0.5139  0.4030  0.5657
10294SOL    HW137740   0.087   3.837   0.586 -2.2617  1.1242 -0.9582
10294SOL    HW237741   0.072   3.908   0.719  0.9081  0.8644 -0.3846
10295SOL     OW37742   9.234   3.475   8.172  0.5933 -0.0959  0.1727
10295SOL    HW137743   9.304   3.415   8.147  1.1455  0.8594 -0.6628
10295SOL    HW237744   9.273   3.562   8.162 -1.3060  0.5868 -2.4848
10296SOL     OW37745   5.767  11.055  11.851  0.0059  0.4425  0.0759
10296SOL    HW137746   5.838  11.006  11.891 -0.0373  0.2002 -0.1389
10296SOL    HW237747   5.776  11.037  11.757 -0.1507  0.6572  0.0200
10297SOL     OW37748  12.506   8.221  12.426 -0.6512  0.0430  0.0724
10297SOL    HW137749  12.546   8.308  12.424  0.0115 -0.2504 -1.4941
10297SOL    HW237750  12.427   8.229  12.373  0.0366 -0.5543 -1.0912
10298SOL     OW37751   0.881   2.234   9.311  0.1912  0.3577  0.0908
10298SOL    HW137752   0.893   2.274   9.225  1.1372  0.9593  0.4820
10298SOL    HW237753   0.786   2.219   9.317  0.1443  0.0608 -1.1487
10299SOL     OW37754   5.833  11.906   3.798  0.0533  0.5848  0.4534
10299SOL    HW137755   5.801  11.968   3.864  0.4221  0.1449  1.0559
10299SOL    HW237756   5.926  11.928   3.789  0.0322  0.5583  0.1806
10300SOL     OW37757  12.363   0.423   3.410  0.4709 -0.0090 -0.3385
10300SOL    HW137758  12.404   0.362   3.471 -0.2662  0.1416  0.3179
10300SOL    HW237759  12.271   0.426   3.437  0.3416  0.8159 -0.8387
10301SOL     OW37760   6.950   9.038   1.843 -0.3402  0.3874 -0.2203
10301SOL    HW137761   6.887   8.976   1.808  0.8655 -2.5544  2.3130
10301SOL    HW237762   7.034   9.011   1.807  0.0915  1.1874  0.1417
10302SOL     OW37763   1.149   9.389  10.853 -0.1338  0.4611  0.0324
10302SOL    HW137764   1.168   9.302  10.887 -1.6757  0.0165 -0.1670
10302SOL    HW237765   1.132   9.376  10.760 -1.8179  0.7126  0.2748
10303SOL     OW37766   9.252   6.629  10.545  0.3599  0.6984  0.3471
10303SOL    HW137767   9.285   6.672  10.625  1.2308 -0.2134  0.5018
10303SOL    HW237768   9.285   6.684  10.474  0.0694  1.1956  0.5870
10304SOL     OW37769   3.312   4.194   0.494  0.0982 -0.1174  0.0109
10304SOL    HW137770   3.295   4.241   0.576 -0.7803 -1.7015  0.7738
10304SOL    HW237771   3.236   4.138   0.482  0.5638 -0.4650 -1.5247
10305SOL     OW37772   9.348   0.584   4.764  0.3126  0.1330  0.0862
10305SOL    HW137773   9.318   0.506   4.717  0.6863 -0.4344  0.7603
10305SOL    HW237774   9.365   0.649   4.696 -1.0436 -0.0016 -0.4153
10306SOL     OW37775   0.870   4.387   8.087 -0.0500  0.7848  0.0837
10306SOL    HW137776   0.817   4.387   8.007  1.1860  2.4060 -0.8039
10306SOL    HW237777   0.892   4.295   8.102  0.1211  0.4880 -1.7623
10307SOL     OW37778   4.584   4.414   8.721 -0.3473  0.1421 -0.6852
10307SOL    HW137779   4.639   4.427   8.643 -0.6491 -2.0187 -1.3209
10307SOL    HW237780   4.503   4.460   8.699 -0.1578  0.1908 -1.3278
10308SOL     OW37781   6.896   6.081   9.138 -0.1902  0.8883  0.0807
10308SOL    HW137782   6.933   6.088   9.226 -1.4353  2.3097  0.5434
10308SOL    HW237783   6.968   6.049   9.084  0.7809  0.5931  1.4890
10309SOL     OW37784   4.467  11.954   5.347  0.4960  0.7231 -0.2195
10309SOL    HW137785   4.426  12.004   5.418  2.5662  1.5473  0.4910
10309SOL    HW237786   4.465  11.863   5.377 -1.1733  0.6647 -0.4312
10310SOL     OW37787   4.096   9.744   0.615 -0.4039  0.0217  0.4022
10310SOL    HW137788   4.186   9.753   0.582 -0.5670 -0.2969 -0.1309
10310SOL    HW237789   4.051   9.822   0.583 -0.7296 -0.6028 -0.6854
10311SOL     OW37790   7.482   6.447   6.396  0.0606  0.3239 -0.3840
10311SOL    HW137791   7.503   6.363   6.357 -1.1149  0.3591 -1.1537
10311SOL    HW237792   7.443   6.497   6.324 -1.8811  0.5067  0.7319
10312SOL     OW37793   7.391  12.008   0.650  0.1373  0.1708 -0.9395
10312SOL    HW137794   7.303  11.979   0.627  0.6700 -0.6369 -2.0849
10312SOL    HW237795   7.397  11.994   0.744 -1.3776  1.4501 -0.6175
10313SOL     OW37796   3.062   1.632   9.006 -0.0344 -0.2217  0.3108
10313SOL    HW137797   2.989   1.636   9.068 -0.4006  0.1067 -0.1366
10313SOL    HW237798   3.041   1.559   8.949 -0.5532  0.5263 -0.4764
10314SOL     OW37799   4.497   5.730  11.860 -0.4051 -0.4335 -0.0447
10314SOL    HW137800   4.546   5.783  11.923 -2.1909  1.2351  0.0471
10314SOL    HW237801   4.524   5.640  11.879  0.4672  0.1717  1.8806
10315SOL     OW37802  11.392   1.639   1.838 -0.1241 -0.1819 -0.1659
10315SOL    HW137803  11.310   1.654   1.886  1.0681  1.3911  1.4666
10315SOL    HW237804  11.440   1.577   1.892  0.8317  0.8623  0.1948
10316SOL     OW37805  11.308   4.197   7.802 -0.7321  0.3135  0.4801
10316SOL    HW137806  11.287   4.104   7.811 -0.1035  0.2237  1.1440
10316SOL    HW237807  11.404   4.199   7.801 -0.7437  0.9425  0.2512
10317SOL     OW37808   3.860   6.768   7.500  0.1896  0.5663  0.0606
10317SOL    HW137809   3.863   6.783   7.595 -3.3436 -0.5430  0.5016
10317SOL    HW237810   3.882   6.675   7.491 -0.9307  0.2957 -0.0023
10318SOL     OW37811   6.861   8.798   4.933 -0.0405  0.1942  0.1933
10318SOL    HW137812   6.878   8.884   4.971 -1.8452  0.4456  0.5269
10318SOL    HW237813   6.845   8.816   4.840 -0.2955  0.2043  0.2390
10319SOL     OW37814   5.026   8.296  10.939 -0.5193 -0.0942  0.2444
10319SOL    HW137815   5.015   8.311  10.845  1.1165  1.1249  0.2120
10319SOL    HW237816   4.996   8.206  10.952  2.0341 -1.4025 -1.9849
10320SOL     OW37817  12.393  12.431  10.733  0.4328 -0.5611  0.4457
10320SOL    HW137818  12.379  12.337  10.722  2.4670 -0.8051 -0.2987
10320SOL    HW237819  12.322  12.458  10.792 -0.9599 -2.2914 -0.3466
10321SOL     OW37820   7.440   5.728   2.816 -0.6819  0.6086 -0.3537
10321SOL    HW137821   7.372   5.796   2.811 -0.1826  1.0066 -2.8825
10321SOL    HW237822   7.503   5.752   2.749 -0.0492 -1.9330 -0.7688
10322SOL     OW37823   9.269   5.143  10.932 -0.5737 -0.2428  0.0151
10322SOL    HW137824   9.308   5.143  11.019 -0.7746  0.9474  0.1228
10322SOL    HW237825   9.249   5.235  10.914 -1.2175 -0.5529 -0.9835
10323SOL     OW37826   6.110   6.070  10.541 -0.1946 -0.5741 -0.0213
10323SOL    HW137827   6.043   6.127  10.504  0.4468  1.0698  1.2057
10323SOL    HW237828   6.061   5.994  10.572 -1.3204 -0.0108 -0.3258
10324SOL     OW37829   4.767  10.372   0.359  0.1708  0.2539  0.7995
10324SOL    HW137830   4.775  10.462   0.390  0.8007 -0.0381  1.5239
10324SOL    HW237831   4.685  10.340   0.396 -1.2333  1.2225 -1.3195
10325SOL     OW37832   5.561   4.332  11.773 -0.0216 -0.2845 -0.0667
10325SOL    HW137833   5.613   4.344  11.694 -1.2054  0.4969 -0.7516
10325SOL    HW237834   5.591   4.248  11.808  0.8567 -0.4157 -1.0785
10326SOL     OW37835   6.315   2.840   7.978  0.5574 -0.3590  0.4148
10326SOL    HW137836   6.253   2.912   7.966 -0.3602 -1.1978  0.0417
10326SOL    HW237837   6.401   2.882   7.970  0.0448  0.6597 -0.0062
10327SOL     OW37838   1.950   7.672   4.110 -1.5428 -0.1450  0.2466
10327SOL    HW137839   1.868   7.628   4.130 -0.0824 -2.1042  2.4472
10327SOL    HW237840   2.002   7.606   4.064 -0.0963 -0.0838  1.7020
10328SOL     OW37841   5.596   5.331   1.641  0.6849 -0.2243  0.7329
10328SOL    HW137842   5.660   5.288   1.585  1.6032  0.8093  0.9432
10328SOL    HW237843   5.526   5.360   1.582  0.9334 -0.4209  0.3439
10329SOL     OW37844  11.530  10.558   9.460 -0.0071 -0.1046  0.4956
10329SOL    HW137845  11.538  10.516   9.546  0.0547 -2.4988 -0.6013
10329SOL    HW237846  11.444  10.601   9.463 -0.7364 -1.5259  1.2385
10330SOL     OW37847   9.114   2.094   3.075 -0.0537  0.1106  0.6049
10330SOL    HW137848   9.023   2.109   3.101  0.0169 -0.1265  1.0099
10330SOL    HW237849   9.122   1.999   3.068  1.0576 -0.2095  4.1423
10331SOL     OW37850   3.323   3.098  10.366 -0.0361 -0.1047 -0.2560
10331SOL    HW137851   3.383   3.147  10.308  2.6198  0.4211  2.6593
10331SOL    HW237852   3.314   3.153  10.443 -0.9063 -2.0848  1.1387
10332SOL     OW37853   0.335   0.495  10.143  0.0064  0.5478 -0.2996
10332SOL    HW137854   0.424   0.483  10.177 -0.2757 -1.6548 -0.2019
10332SOL    HW237855   0.280   0.491  10.221 -0.4364 -1.9649 -0.6558
10333SOL     OW37856   3.176   8.081   3.748 -0.4043  0.1338 -0.5490
10333SOL    HW137857   3.140   8.020   3.812 -0.1085 -1.2338 -1.6290
10333SOL    HW237858   3.197   8.026   3.672  2.1572  1.1877 -0.6817
10334SOL     OW37859   3.362   5.580   1.684  0.3433 -0.1181 -0.1003
10334SOL    HW137860   3.369   5.628   1.601  0.6717  0.5610  0.3154
10334SOL    HW237861   3.445   5.597   1.728  0.0351 -0.2119  0.5193
10335SOL     OW37862   0.203   0.338  11.182 -0.3579 -0.0921  0.0333
10335SOL    HW137863   0.189   0.266  11.242 -2.2900 -0.6734 -1.0177
10335SOL    HW237864   0.288   0.321  11.142  0.8221  0.1592  2.3176
10336SOL     OW37865  10.248  10.632  11.912 -0.0940  0.8763 -0.1632
10336SOL    HW137866  10.248  10.728  11.908 -0.2915  0.9626  1.3517
10336SOL    HW237867  10.305  10.611  11.986  0.1935 -0.1955 -0.6741
10337SOL     OW37868   0.665   0.792  10.400 -0.3872 -0.1644 -0.1982
10337SOL    HW137869   0.590   0.848  10.379  0.1803  0.4787 -0.5471
10337SOL    HW237870   0.691   0.818  10.488 -0.0832  0.1658 -0.3852
10338SOL     OW37871   7.759  12.134   2.254  0.0508 -0.1731 -0.5731
10338SOL    HW137872   7.770  12.189   2.176 -0.9943  1.4855  0.3994
10338SOL    HW237873   7.782  12.046   2.224  0.5697  0.5668 -2.5122
10339SOL     OW37874   4.357   2.580  10.422  0.4042  0.3207 -0.2496
10339SOL    HW137875   4.264   2.593  10.402  0.5653  1.9480 -0.1006
10339SOL    HW237876   4.364   2.488  10.446 -1.0711  0.0370 -0.7969
10340SOL     OW37877   2.121   1.103  11.454 -0.4260  0.7760 -0.4231
10340SOL    HW137878   2.034   1.075  11.426  0.2196 -0.4943 -1.2235
10340SOL    HW237879   2.181   1.045  11.408  0.7453 -1.7625  3.8410
10341SOL     OW37880  10.179   7.155   8.690  0.6917 -0.2845  0.1766
10341SOL    HW137881  10.202   7.241   8.655  1.4740  0.1156  1.6040
10341SOL    HW237882  10.263   7.110   8.700  0.2592 -1.4241 -0.9943
10342SOL     OW37883   1.230   2.773   9.815  0.1324  0.3808  0.3679
10342SOL    HW137884   1.314   2.767   9.860 -0.4582 -0.9184  1.3425
10342SOL    HW237885   1.237   2.711   9.742 -0.0144  0.2385  0.4773
10343SOL     OW37886   8.063   6.898   8.269  0.0094  0.2165 -0.9729
10343SOL    HW137887   8.092   6.977   8.224  0.1366 -0.2408 -1.7139
10343SOL    HW237888   7.995   6.927   8.329 -0.1543  0.8380 -1.4559
10344SOL     OW37889   4.046   2.741   5.050 -0.3989  0.1520  0.2774
10344SOL    HW137890   4.112   2.808   5.031 -0.9849  0.0482 -2.6214
10344SOL    HW237891   4.090   2.658   5.033 -0.4771 -0.0496  1.0643
10345SOL     OW37892   4.891   7.644   7.791  0.0655 -0.4176 -0.0408
10345SOL    HW137893   4.951   7.656   7.716 -0.2076 -1.6267 -0.4723
10345SOL    HW237894   4.810   7.612   7.752 -0.2340 -0.6327  0.7427
10346SOL     OW37895   8.192   0.982   4.621 -0.1848  0.3954  0.1340
10346SOL    HW137896   8.128   0.995   4.551  1.6739  0.1149 -1.7292
10346SOL    HW237897   8.272   0.957   4.575  0.5955 -1.9089  2.5007
10347SOL     OW37898   4.837  11.671   8.945 -0.0408  0.3138  0.0044
10347SOL    HW137899   4.869  11.685   9.034 -0.0570  0.4608 -0.0139
10347SOL    HW237900   4.863  11.750   8.898 -0.2313  0.3343 -0.0657
10348SOL     OW37901   0.230   7.283   4.004 -0.0711  0.8145 -0.1084
10348SOL    HW137902   0.166   7.262   4.073  0.5418  0.3713  0.3363
10348SOL    HW237903   0.257   7.373   4.024  0.9307  0.3061  0.9084
10349SOL     OW37904  12.166   7.677  11.248 -0.2036 -0.5510 -0.0770
10349SOL    HW137905  12.164   7.582  11.246  0.1710 -0.6589  1.9424
10349SOL    HW237906  12.077   7.703  11.271  0.1862 -0.5638  1.5530
10350SOL     OW37907   6.754   1.748   5.958  0.1284 -0.1932 -0.5509
10350SOL    HW137908   6.665   1.712   5.965  0.0865 -0.5321 -2.3222
10350SOL    HW237909   6.779   1.731   5.867  1.6195  0.8127 -0.3545
10351SOL     OW37910   4.745  12.362   8.078  0.0867 -0.6484  0.7364
10351SOL    HW137911   4.814  12.408   8.125  0.9542 -1.5050  0.3350
10351SOL    HW237912   4.746  12.400   7.991  2.7353 -3.1816 -0.5252
10352SOL     OW37913   0.240  11.720   0.321 -0.3010 -0.0365  0.2975
10352SOL    HW137914   0.156  11.703   0.278 -1.2157 -0.2173  2.0800
10352SOL    HW237915   0.220  11.718   0.414  1.5444  0.7365  0.7449
10353SOL     OW37916   6.207   7.297   3.257  0.2765 -0.0067 -0.0789
10353SOL    HW137917   6.239   7.239   3.327 -1.9711 -0.4101  0.7023
10353SOL    HW237918   6.182   7.237   3.186 -0.4345  0.1219  0.0532
10354SOL     OW37919   7.022   6.135   1.598 -0.0538 -0.0279 -0.0235
10354SOL    HW137920   7.088   6.153   1.666  0.9932  1.3513 -1.3130
10354SOL    HW237921   6.950   6.193   1.619  0.3473  0.5346 -0.1655
10355SOL     OW37922  10.228   0.377   3.615 -0.2195 -0.3064  0.1112
10355SOL    HW137923  10.302   0.318   3.598 -0.7555 -0.6360 -1.1168
10355SOL    HW237924  10.270   0.457   3.649  0.5027 -1.4371  2.1136
10356SOL     OW37925   2.650  11.899  11.224 -0.0287 -0.2844 -0.0188
10356SOL    HW137926   2.574  11.856  11.263  1.0740 -1.4259  0.9709
10356SOL    HW237927   2.614  11.961  11.162 -1.7520 -1.0570  0.1698
10357SOL     OW37928   1.781   0.965   8.741  0.2679  0.0130  0.1968
10357SOL    HW137929   1.839   1.033   8.705 -0.9110  1.2007  0.4791
10357SOL    HW237930   1.825   0.937   8.822 -0.0046  1.6350  0.9490
10358SOL     OW37931   4.023   8.445   3.818  0.3372 -0.1455  0.2994
10358SOL    HW137932   3.931   8.423   3.829 -0.1732  1.1501 -0.9551
10358SOL    HW237933   4.023   8.538   3.795  1.8839 -0.2969 -0.5118
10359SOL     OW37934   7.384  10.509   2.930  0.4894 -0.5025 -0.4066
10359SOL    HW137935   7.406  10.577   2.994  0.1963 -1.7042  1.0243
10359SOL    HW237936   7.294  10.484   2.952  0.9481 -2.0617 -0.2092
10360SOL     OW37937  12.012   8.077   0.275 -0.2031 -0.2490 -0.3164
10360SOL    HW137938  12.010   8.106   0.183  1.3763 -0.2288 -0.3578
10360SOL    HW237939  11.920   8.084   0.303 -0.6529  0.1333 -1.7658
10361SOL     OW37940   8.765   0.670   5.229 -0.5861  0.4352 -0.2420
10361SOL    HW137941   8.792   0.710   5.147  1.6557  0.2466  0.3505
10361SOL    HW237942   8.807   0.584   5.229  0.0180  0.6967  1.3772
10362SOL     OW37943   2.189  12.035   4.692  0.1677 -0.3498  0.6081
10362SOL    HW137944   2.271  12.050   4.645  1.3761 -0.4354  2.5913
10362SOL    HW237945   2.124  12.088   4.644  1.4150 -0.0400 -0.8211
10363SOL     OW37946  11.254   3.276   6.288  0.6546  0.3640 -0.2142
10363SOL    HW137947  11.300   3.203   6.247 -0.3245 -0.8138  0.7149
10363SOL    HW237948  11.194   3.308   6.221  0.4309 -0.2997 -0.3394
10364SOL     OW37949   8.433   7.560   5.984 -0.6365 -0.0243  0.7065
10364SOL    HW137950   8.338   7.550   5.994 -0.8178  0.3429 -0.4533
10364SOL    HW237951   8.470   7.489   6.037 -1.5822 -0.7004  0.5065
10365SOL     OW37952   4.527   9.285  11.694 -0.1651  0.6924 -0.2006
10365SOL    HW137953   4.492   9.225  11.629 -1.8945  0.4820  0.8663
10365SOL    HW237954   4.581   9.230  11.751 -1.6522  0.1249  0.7079
10366SOL     OW37955  12.366   2.769  10.855  0.2666 -0.0258 -0.0692
10366SOL    HW137956  12.388   2.785  10.763 -0.6989  0.0796 -0.2854
10366SOL    HW237957  12.382   2.853  10.898  2.0719 -0.4264  0.1552
10367SOL     OW37958   9.523  11.944   4.853 -0.5531 -0.1023  0.5634
10367SOL    HW137959   9.513  11.853   4.823 -0.5498  0.0291  0.1580
10367SOL    HW237960   9.616  11.962   4.845 -0.5941  0.0283  0.3731
10368SOL     OW37961   6.708   2.188  11.833 -0.5580 -0.1497  0.0262
10368SOL    HW137962   6.634   2.217  11.887  0.1115  1.2693  0.2158
10368SOL    HW237963   6.769   2.262  11.834  0.2544 -0.7774 -1.2541
10369SOL     OW37964   7.926  11.199  12.023 -0.0820 -0.1253 -0.2526
10369SOL    HW137965   8.002  11.255  12.040 -0.7527  1.4225 -2.0319
10369SOL    HW237966   7.919  11.144  12.101  2.1282  0.5232  0.4741
10370SOL     OW37967   8.848   2.829   0.656  0.4377 -0.4977 -0.1073
10370SOL    HW137968   8.857   2.860   0.746  3.3443  0.3955 -0.5877
10370SOL    HW237969   8.898   2.892   0.604 -1.3808 -0.8270 -2.4219
10371SOL     OW37970   9.305   9.004   1.497  0.4282  0.2132  0.1619
10371SOL    HW137971   9.223   9.052   1.485 -0.2771 -1.2957 -1.5108
10371SOL    HW237972   9.352   9.017   1.414  2.1821  1.4914  1.2763
10372SOL     OW37973   2.154   8.409  10.533  0.0956 -0.2805  0.0858
10372SOL    HW137974   2.144   8.426  10.439 -0.0684  0.2148  0.1886
10372SOL    HW237975   2.095   8.336  10.550  2.1223 -2.2101 -0.7012
10373SOL     OW37976   8.857   9.385   0.760  0.0395 -0.4075 -0.3267
10373SOL    HW137977   8.871   9.477   0.783 -0.6342 -0.1818 -0.7934
10373SOL    HW237978   8.804   9.350   0.832  0.3420 -0.4526 -0.1220
10374SOL     OW37979   6.129   3.596   5.996  0.1111  0.0014 -0.1125
10374SOL    HW137980   6.163   3.682   5.972  0.8259 -0.3106 -0.2438
10374SOL    HW237981   6.045   3.589   5.950 -0.6315  1.1789  0.9812
10375SOL     OW37982   2.455  10.323   9.009  0.6390  1.0324  0.0706
10375SOL    HW137983   2.482  10.276   8.930 -1.9320 -0.3584 -0.1031
10375SOL    HW237984   2.461  10.415   8.985 -1.8608  0.6495 -2.5267
10376SOL     OW37985   6.509   1.127  12.569 -0.6938 -0.2423 -0.2039
10376SOL    HW137986   6.573   1.123  12.640 -1.4134 -0.7915  0.4256
10376SOL    HW237987   6.459   1.047  12.577  0.0955 -1.0080 -2.2056
10377SOL     OW37988   7.954   6.558  11.169  0.3274  0.1797 -0.2988
10377SOL    HW137989   7.954   6.465  11.149 -1.2851  0.0586  0.1290
10377SOL    HW237990   7.990   6.564  11.257  0.5308 -0.0279 -0.3688
10378SOL     OW37991   6.324  10.543  11.657 -0.6877 -0.0666 -0.2429
10378SOL    HW137992   6.371  10.475  11.704  1.0771  0.3537 -1.3314
10378SOL    HW237993   6.254  10.496  11.611 -1.1000 -0.7567  1.0346
10379SOL     OW37994   2.521   1.178   7.108 -0.1496 -0.2758  0.3327
10379SOL    HW137995   2.606   1.134   7.115  0.4237  0.7221 -0.0824
10379SOL    HW237996   2.513   1.199   7.015 -0.1574  0.9381  0.5930
10380SOL     OW37997  12.345   2.212   5.336 -0.5288 -0.1509 -0.0923
10380SOL    HW137998  12.372   2.178   5.421 -2.5836 -0.3737  0.5057
10380SOL    HW237999  12.291   2.289   5.356  0.4796  0.9228 -1.2866
10381SOL     OW38000   5.874  10.591   6.733  0.8034 -0.3498  0.1081
10381SOL    HW138001   5.793  10.554   6.770  0.5613  0.1991  0.1316
10381SOL    HW238002   5.894  10.665   6.790  0.3331  0.6173 -0.9423
10382SOL     OW38003   3.617   6.656   6.295 -0.2403  0.6399 -0.3893
10382SOL    HW138004   3.524   6.675   6.301 -0.4057 -0.1025 -0.4444
10382SOL    HW238005   3.660   6.731   6.337 -0.8643  0.9139 -0.2248
10383SOL     OW38006   0.257  11.504   2.735 -0.0079 -0.5780 -0.2044
10383SOL    HW138007   0.296  11.417   2.739  2.8065  0.5460 -0.1320
10383SOL    HW238008   0.238  11.518   2.642 -0.6992 -1.3307 -0.1838
10384SOL     OW38009   1.559   7.301   4.845  0.3430  0.5617 -0.1829
10384SOL    HW138010   1.603   7.377   4.884 -0.9460  1.5601 -0.6077
10384SOL    HW238011   1.629   7.250   4.805  1.4535  0.6017  1.5911
10385SOL     OW38012   5.457   4.583   8.903 -0.3942  0.3804  0.1955
10385SOL    HW138013   5.400   4.660   8.895 -0.8858 -0.0080 -0.0751
10385SOL    HW238014   5.431   4.526   8.830  0.0291 -0.0034  0.3404
10386SOL     OW38015   2.381   0.392   1.933 -0.6609  0.0684  0.6420
10386SOL    HW138016   2.392   0.485   1.957  0.8248 -0.2427  1.2967
10386SOL    HW238017   2.328   0.394   1.854 -1.2813  1.4426  1.0558
10387SOL     OW38018  12.145   6.795   3.136  0.2198 -0.2240 -0.4216
10387SOL    HW138019  12.213   6.853   3.169 -0.6355  0.0378  1.0001
10387SOL    HW238020  12.192   6.727   3.088  1.5064 -0.2008  0.7570
10388SOL     OW38021  11.427   4.828   1.110 -0.3131 -0.1742  0.1969
10388SOL    HW138022  11.510   4.800   1.148 -0.6667 -3.3169 -1.0635
10388SOL    HW238023  11.368   4.838   1.184  0.2942 -1.3445  0.8573
10389SOL     OW38024   5.190   9.446   4.985 -0.2005 -0.1670  0.4251
10389SOL    HW138025   5.283   9.466   4.978  0.3707 -2.6010 -0.0492
10389SOL    HW238026   5.147   9.507   4.925  1.1733  0.4553  0.0320
10390SOL     OW38027   0.877   7.298   4.237  0.2481  0.3193 -0.2766
10390SOL    HW138028   0.792   7.279   4.276  0.2974 -0.8787 -0.7176
10390SOL    HW238029   0.923   7.350   4.303 -0.7863  0.9235 -0.0037
10391SOL     OW38030   0.132  11.665   7.964  0.0599 -0.3628 -0.0721
10391SOL    HW138031   0.158  11.626   8.047 -0.1545 -0.4401 -0.0422
10391SOL    HW238032   0.075  11.601   7.923 -0.1329 -0.1685 -0.1115
10392SOL     OW38033   7.090   1.217   8.124  0.0163  0.2414 -0.4387
10392SOL    HW138034   7.155   1.284   8.145  1.5741 -1.4504  0.3814
10392SOL    HW238035   7.096   1.154   8.196 -1.6437 -0.6298 -1.0024
10393SOL     OW38036   0.917   0.273   1.899 -0.3002  0.4191 -0.2602
10393SOL    HW138037   0.868   0.269   1.817  0.7209 -1.6729 -0.8173
10393SOL    HW238038   0.851   0.256   1.967 -1.0352  1.5520 -0.6722
10394SOL     OW38039   4.538   6.461   8.957  0.2689  0.2277 -0.3127
10394SOL    HW138040   4.489   6.379   8.965 -1.6811  1.2795 -0.8605
10394SOL    HW238041   4.594   6.463   9.034 -1.1124 -0.7024  0.7632
10395SOL     OW38042   6.107   6.564  10.981  0.4989 -0.4169  0.1716
10395SOL    HW138043   6.117   6.507  11.057  0.7629  0.7210  1.0240
10395SOL    HW238044   6.039   6.626  11.007  0.4676 -0.1277 -0.5905
10396SOL     OW38045   9.611   7.096   9.814  0.8022  0.4770  0.3396
10396SOL    HW138046   9.633   7.128   9.726  2.6558 -0.9033  0.2200
10396SOL    HW238047   9.569   7.012   9.799  0.6581  0.4717  0.7604
10397SOL     OW38048   0.927   6.883   6.658  0.4897 -0.1656  0.2962
10397SOL    HW138049   0.945   6.873   6.752  1.4688 -2.6760 -0.0633
10397SOL    HW238050   0.881   6.966   6.651  1.9467  0.9924  2.7806
10398SOL     OW38051   5.334   3.032   0.972  0.0384  0.3075 -0.3351
10398SOL    HW138052   5.357   2.948   1.012 -0.9160  0.5994  0.8966
10398SOL    HW238053   5.259   3.063   1.022 -1.2192  0.7361 -2.3530
10399SOL     OW38054  10.829   7.778   1.243 -0.3048 -0.0058 -0.2864
10399SOL    HW138055  10.925   7.776   1.240 -0.3205 -0.0135 -0.8390
10399SOL    HW238056  10.808   7.772   1.336  0.2094 -1.0279 -0.2216
10400SOL     OW38057   2.764   3.039   7.510 -0.3158  0.4720  0.6743
10400SOL    HW138058   2.815   2.959   7.519  1.9239  1.5569 -1.3551
10400SOL    HW238059   2.808   3.089   7.442 -1.7932  3.3314  1.6138
10401SOL     OW38060  10.923   7.933   0.196  0.4094 -0.6032 -0.3852
10401SOL    HW138061  10.993   7.917   0.132  0.8995 -0.5048  0.1141
10401SOL    HW238062  10.883   7.847   0.210  0.0433 -0.5568 -1.1070
10402SOL     OW38063   0.772   1.804   2.487 -0.1868 -0.3421 -0.0503
10402SOL    HW138064   0.684   1.822   2.455 -0.9400 -2.1011  0.9065
10402SOL    HW238065   0.790   1.875   2.549 -0.8681  0.0985 -0.3471
10403SOL     OW38066   5.787   4.007   3.316  0.1202  0.1667  0.1344
10403SOL    HW138067   5.858   3.960   3.359  1.7901  1.4550 -1.0558
10403SOL    HW238068   5.801   4.099   3.340 -0.4284  0.5926 -1.0665
10404SOL     OW38069   6.943   3.198  11.667 -0.4091 -0.3655  0.1045
10404SOL    HW138070   6.868   3.234  11.713  0.5592  1.3656  0.4465
10404SOL    HW238071   6.951   3.252  11.588  1.0281  0.1673  0.5694
10405SOL     OW38072   7.880   9.669   3.483 -0.6732  0.1002  0.3331
10405SOL    HW138073   7.897   9.582   3.518 -1.4323 -0.5534 -0.8853
10405SOL    HW238074   7.941   9.726   3.531  0.0174 -1.1216  0.9523
10406SOL     OW38075   5.472   9.737  10.623  0.4121 -0.3916  0.0236
10406SOL    HW138076   5.513   9.823  10.629  0.8903 -0.6106 -0.0878
10406SOL    HW238077   5.492   9.696  10.707 -0.5171 -0.0909  0.4059
10407SOL     OW38078  12.149   7.136   9.437 -0.0414  0.2371  0.0074
10407SOL    HW138079  12.152   7.076   9.511 -1.3407 -0.4298 -0.4479
10407SOL    HW238080  12.118   7.083   9.364 -2.3045  1.6465 -0.1486
10408SOL     OW38081   6.156  10.877   6.717  0.0583 -0.5673 -0.0883
10408SOL    HW138082   6.117  10.953   6.674 -1.6672 -0.1784  1.9988
10408SOL    HW238083   6.174  10.816   6.646 -0.5892  0.8925 -1.5768
10409SOL     OW38084   9.785   0.667   0.561  0.2042 -0.1810 -0.2050
10409SOL    HW138085   9.756   0.732   0.497 -1.1674  0.0633  0.6158
10409SOL    HW238086   9.878   0.653   0.542  0.0247  0.5204 -1.6726
10410SOL     OW38087   0.305   5.415   5.899 -0.1801 -0.3338 -0.4292
10410SOL    HW138088   0.276   5.425   5.809 -1.8810 -0.2084  0.0946
10410SOL    HW238089   0.260   5.485   5.947  1.1441 -0.0354  0.4293
10411SOL     OW38090   4.238   3.844   0.965 -0.4623  0.3197 -0.0771
10411SOL    HW138091   4.331   3.857   0.982 -0.4874  0.8141 -0.3203
10411SOL    HW238092   4.209   3.784   1.035  0.2855 -0.7664 -0.6718
10412SOL     OW38093   7.506   0.259   4.981  0.5297  0.0010 -0.5006
10412SOL    HW138094   7.482   0.276   5.073 -0.9258  0.7175 -0.9784
10412SOL    HW238095   7.588   0.211   4.986  0.8944  0.7326  1.1631
10413SOL     OW38096   1.981   1.022   1.253 -0.5949  0.1045 -0.0790
10413SOL    HW138097   1.964   1.015   1.159  0.1161 -0.9631 -0.1400
10413SOL    HW238098   1.968   0.934   1.287  2.7188 -0.4346  0.1755
10414SOL     OW38099   4.459  11.414   0.455 -0.4795 -1.0680 -0.1620
10414SOL    HW138100   4.472  11.319   0.447 -1.7513 -1.2833  0.0939
10414SOL    HW238101   4.547  11.451   0.449  0.0661 -2.2879  0.0072
10415SOL     OW38102   5.722  11.903   8.419  0.4421 -0.2949  0.0839
10415SOL    HW138103   5.634  11.906   8.382  0.2723  0.2997  0.5252
10415SOL    HW238104   5.710  11.864   8.506  0.6195 -0.2701  0.1199
10416SOL     OW38105  11.022   3.891  11.289 -0.1840  0.2724 -0.2297
10416SOL    HW138106  11.030   3.797  11.306  0.8156  0.0161 -1.9437
10416SOL    HW238107  11.107   3.927  11.313 -0.4028  0.6679 -0.0448
10417SOL     OW38108   9.047   7.824   3.579 -0.3357 -0.1711  0.1179
10417SOL    HW138109   9.077   7.896   3.524 -1.0168 -0.5364 -0.7593
10417SOL    HW238110   9.012   7.760   3.518  1.9722 -2.1327  0.7065
10418SOL     OW38111   0.826   2.844   6.485  0.2010  0.3168  0.4927
10418SOL    HW138112   0.920   2.840   6.468  0.1950  1.4502  0.0792
10418SOL    HW238113   0.810   2.934   6.513 -0.9333  0.5138 -0.6655
10419SOL     OW38114   7.859   1.634   4.072  0.2010 -0.8431  0.3344
10419SOL    HW138115   7.837   1.588   4.153  0.7293 -0.7432  0.5379
10419SOL    HW238116   7.943   1.597   4.045  0.3525 -0.4068  0.1984
10420SOL     OW38117   9.110   9.127   8.654  0.4764 -0.1902 -0.0280
10420SOL    HW138118   9.104   9.134   8.558  2.3381  2.1069 -0.0632
10420SOL    HW238119   9.199   9.095   8.669  0.8914  1.3342  0.9361
10421SOL     OW38120   6.898  12.138  10.415  0.1827 -0.1499  0.0860
10421SOL    HW138121   6.938  12.115  10.332  0.6741 -0.1665  0.3239
10421SOL    HW238122   6.945  12.086  10.480 -1.4850 -1.6331  0.1885
10422SOL     OW38123   4.531   1.778   0.884 -0.1147 -0.2872 -0.4797
10422SOL    HW138124   4.625   1.788   0.900  0.5347 -0.4345 -3.4557
10422SOL    HW238125   4.511   1.848   0.821 -1.5409 -1.4264 -1.3423
10423SOL     OW38126   8.968   4.568   5.557  0.0952  0.3333 -0.0305
10423SOL    HW138127   9.040   4.505   5.558 -2.1015 -2.4617 -2.2913
10423SOL    HW238128   8.899   4.527   5.609 -0.7160  1.8961  0.2021
10424SOL     OW38129   7.394   5.645   7.074  0.0122  0.2824 -0.3767
10424SOL    HW138130   7.466   5.693   7.115  1.2235 -1.2539 -0.5854
10424SOL    HW238131   7.387   5.683   6.987  1.1971 -0.1231 -0.6691
10425SOL     OW38132   6.692  11.297   6.021  0.1236 -0.5432 -0.4780
10425SOL    HW138133   6.645  11.215   6.040  0.3330 -0.8611 -1.2679
10425SOL    HW238134   6.752  11.273   5.950  0.1510  0.3110 -0.7476
10426SOL     OW38135   1.320   6.808   7.182  0.0280  0.2042 -0.2417
10426SOL    HW138136   1.309   6.752   7.105  0.8987 -1.2971  0.6912
10426SOL    HW238137   1.363   6.886   7.148 -0.8977  0.2066 -1.5101
10427SOL     OW38138   6.482   7.309   3.873  0.0033  0.0583  0.1551
10427SOL    HW138139   6.541   7.236   3.890 -0.3529  0.0595  1.4915
10427SOL    HW238140   6.398   7.282   3.910 -1.0404 -0.1626 -2.1660
10428SOL     OW38141   7.917   1.060   1.194 -0.4514  0.2934  0.0340
10428SOL    HW138142   7.929   1.050   1.100  0.3050  0.8339  0.0621
10428SOL    HW238143   7.977   1.131   1.219 -0.3166 -0.1334  0.9879
10429SOL     OW38144   1.033   3.002   7.000 -0.2581  0.2442  0.1001
10429SOL    HW138145   1.114   2.991   7.050  2.0997  0.0446 -3.3734
10429SOL    HW238146   1.027   2.923   6.946 -0.9200  1.6563 -2.0551
10430SOL     OW38147   8.597   5.674  10.637 -0.2651  0.4380  0.1129
10430SOL    HW138148   8.687   5.664  10.666  0.5553  2.4371 -1.4808
10430SOL    HW238149   8.592   5.765  10.607 -2.0802 -0.3301 -2.2112
10431SOL     OW38150   7.092   8.424   1.400  0.2259 -0.1997 -0.1967
10431SOL    HW138151   6.999   8.409   1.385 -0.1014  1.6986 -0.3340
10431SOL    HW238152   7.095   8.483   1.475  1.1575  1.6412 -1.5988
10432SOL     OW38153  10.390   1.572   1.720  0.2546  0.3932  0.0215
10432SOL    HW138154  10.403   1.624   1.641  0.7717  0.2030 -0.0172
10432SOL    HW238155  10.469   1.520   1.729 -0.4819 -0.8327 -0.2628
10433SOL     OW38156   2.613  11.437   9.552 -0.7183 -0.0561  0.3556
10433SOL    HW138157   2.556  11.508   9.581 -0.2746  0.4431  0.0335
10433SOL    HW238158   2.674  11.479   9.490  0.4214 -0.4288  1.1826
10434SOL     OW38159   1.561   7.410  11.289  0.3559 -0.2600 -0.0010
10434SOL    HW138160   1.555   7.314  11.292 -0.5839 -0.2086  0.2335
10434SOL    HW238161   1.644   7.428  11.246  0.6136 -1.1842  0.0859
10435SOL     OW38162   3.764  10.673   1.179  0.5625  0.0715 -0.5021
10435SOL    HW138163   3.793  10.762   1.156  0.4836  0.3361  0.4162
10435SOL    HW238164   3.730  10.680   1.268 -0.4694 -0.6623 -0.8240
10436SOL     OW38165   2.631   7.435   8.903  0.1127 -0.0731  0.3937
10436SOL    HW138166   2.552   7.488   8.887 -0.2664 -0.6243  0.3928
10436SOL    HW238167   2.651   7.396   8.818  1.2433  1.1834  0.0478
10437SOL     OW38168   6.317  10.650   6.640 -0.6612  0.0389 -0.0075
10437SOL    HW138169   6.352  10.679   6.725 -1.3554  0.5182  0.1282
10437SOL    HW238170   6.301  10.557   6.652  1.8189 -0.5096 -0.5218
10438SOL     OW38171   1.379   9.692   0.325  0.7511 -0.4010 -0.2577
10438SOL    HW138172   1.407   9.608   0.363 -1.8940 -1.5720 -0.6386
10438SOL    HW238173   1.399   9.683   0.232  3.6108  0.8672  0.1484
10439SOL     OW38174   0.228   4.677   6.038  0.4784 -0.4024 -0.2101
10439SOL    HW138175   0.264   4.590   6.020  2.0344 -0.0300  0.8745
10439SOL    HW238176   0.266   4.734   5.971  2.9010  0.1819  1.5004
10440SOL     OW38177  10.391  11.446   1.152 -0.0263 -0.3170  0.2904
10440SOL    HW138178  10.449  11.514   1.186  0.3174  0.1856 -1.2315
10440SOL    HW238179  10.428  11.364   1.184 -0.9612  0.1813  2.9399
10441SOL     OW38180   8.094   8.360   6.266  0.4655  0.7200 -0.7207
10441SOL    HW138181   8.154   8.286   6.263 -0.0403  0.3250 -1.6993
10441SOL    HW238182   8.013   8.326   6.226 -0.9545  0.7487  1.8974
10442SOL     OW38183   6.913   7.379  11.612  0.5087 -1.0914 -0.3389
10442SOL    HW138184   6.872   7.405  11.530 -0.0975 -0.6316  0.1046
10442SOL    HW238185   6.847   7.396  11.679  1.7004  0.5024  0.5100
10443SOL     OW38186  11.875   2.354   7.165  1.0404 -0.0894 -0.2988
10443SOL    HW138187  11.865   2.427   7.227  0.5314  0.9901 -1.5857
10443SOL    HW238188  11.856   2.276   7.217  0.4657  0.7797  0.8627
10444SOL     OW38189   9.707   7.197   6.323 -0.2408  0.5889  0.0596
10444SOL    HW138190   9.757   7.133   6.374  0.2474 -0.9304 -2.1534
10444SOL    HW238191   9.616   7.169   6.332 -0.0931 -0.0631 -0.3834
10445SOL     OW38192   4.139   5.228   7.533  0.6517 -0.3358 -0.0628
10445SOL    HW138193   4.194   5.284   7.478  0.5612 -0.4175 -0.2402
10445SOL    HW238194   4.082   5.183   7.470  0.6715 -0.5665  0.0856
10446SOL     OW38195   0.859   9.507   8.589 -0.4569 -0.0020  0.2728
10446SOL    HW138196   0.797   9.567   8.547 -0.3253  0.5313  0.8311
10446SOL    HW238197   0.805   9.439   8.628 -0.5815 -0.5524 -0.8092
10447SOL     OW38198   8.696   3.501   9.195 -0.1336  0.2854  0.2028
10447SOL    HW138199   8.682   3.490   9.101 -0.5643 -0.5596  0.3545
10447SOL    HW238200   8.608   3.494   9.233  0.3284 -4.6499  1.1332
10448SOL     OW38201   8.897   5.567   2.186  0.0371  0.2538  0.0366
10448SOL    HW138202   8.892   5.590   2.279 -0.0482  2.0519 -0.3732
10448SOL    HW238203   8.814   5.523   2.168 -0.6877  1.3879  0.4676
10449SOL     OW38204   0.783   5.612   9.174  0.3991 -0.1553 -0.6250
10449SOL    HW138205   0.815   5.534   9.127 -0.6681 -2.6367  2.4232
10449SOL    HW238206   0.862   5.652   9.210  1.0831  0.9911 -3.1772
10450SOL     OW38207   9.254   4.628   4.967  0.0989 -0.4724  0.0529
10450SOL    HW138208   9.203   4.551   4.992 -1.4985  0.8383  1.0368
10450SOL    HW238209   9.302   4.652   5.047 -0.9765  0.6903  0.3795
10451SOL     OW38210   4.700   0.909   7.508 -0.4900 -0.4991 -0.6581
10451SOL    HW138211   4.626   0.937   7.453 -1.5080 -3.8856 -1.3085
10451SOL    HW238212   4.762   0.871   7.446 -0.9583 -3.0015  0.2856
10452SOL     OW38213   8.494   5.730   5.908 -0.0979 -0.4778  0.3082
10452SOL    HW138214   8.481   5.636   5.918  1.7720 -0.9991 -1.4965
10452SOL    HW238215   8.572   5.750   5.960  1.0391 -0.4552 -1.3523
10453SOL     OW38216   7.961   6.096   7.707  0.3371 -0.2049  0.2305
10453SOL    HW138217   7.990   6.169   7.652 -0.1707 -0.1727 -0.0005
10453SOL    HW238218   7.988   6.018   7.659  0.4895 -0.1738  0.2635
10454SOL     OW38219   2.927  10.987  11.035 -0.7041 -0.2635 -0.1591
10454SOL    HW138220   2.982  11.066  11.033  0.3723 -0.9449  0.9216
10454SOL    HW238221   2.959  10.934  10.962 -0.8421 -0.0823 -0.3538
10455SOL     OW38222   2.788   8.033   3.985  0.0632 -0.0804  0.5102
10455SOL    HW138223   2.715   7.996   3.937 -0.3011 -1.7716  2.2372
10455SOL    HW238224   2.758   8.037   4.076  2.2844 -1.4435  1.3967
10456SOL     OW38225   6.822   7.799   6.366 -0.3063  0.2416 -0.4961
10456SOL    HW138226   6.828   7.760   6.454 -0.4049 -1.4861 -1.2128
10456SOL    HW238227   6.744   7.759   6.328  0.6823 -0.3446 -1.9778
10457SOL     OW38228   8.517   6.012   9.878 -0.4348  0.1269 -0.1885
10457SOL    HW138229   8.578   6.036   9.808  0.9630 -3.1901 -0.3010
10457SOL    HW238230   8.469   5.937   9.843 -1.3444 -0.1601  1.5721
10458SOL     OW38231   1.061   7.425   8.936 -0.1415  0.7625  0.5158
10458SOL    HW138232   1.028   7.430   9.026  0.9313  3.0926  0.8482
10458SOL    HW238233   1.010   7.491   8.888 -0.5055 -0.2544 -0.5655
10459SOL     OW38234  11.908   6.986   4.030 -0.2695  0.0964 -1.0568
10459SOL    HW138235  11.947   7.013   3.947  0.2671 -0.2091 -0.9047
10459SOL    HW238236  11.950   7.041   4.095  1.1206 -1.3160 -0.6939
10460SOL     OW38237   8.456   5.246   8.711  0.4073  0.3731  0.3088
10460SOL    HW138238   8.494   5.321   8.665  0.2826 -0.4780 -1.2562
10460SOL    HW238239   8.524   5.179   8.708 -0.5364 -0.5912 -1.0300
10461SOL     OW38240   5.395  10.828   5.517 -0.6369  0.1832 -0.2829
10461SOL    HW138241   5.477  10.842   5.469 -0.3194  2.8872  0.8840
10461SOL    HW238242   5.422  10.816   5.608 -1.4262 -1.8272 -0.2653
10462SOL     OW38243   5.313  11.664  10.677  0.2572 -0.2985  0.1818
10462SOL    HW138244   5.303  11.725  10.750 -1.2100 -0.1301 -0.1303
10462SOL    HW238245   5.371  11.709  10.615  0.7881 -0.0760  0.8289
10463SOL     OW38246   7.668   9.775  10.525  0.4718  0.3176  0.4696
10463SOL    HW138247   7.740   9.714  10.510  0.1611  0.2018 -0.5907
10463SOL    HW238248   7.648   9.812  10.439  0.6536  1.9438  1.0860
10464SOL     OW38249   0.317   7.114   1.113 -0.3714  0.9427 -0.0926
10464SOL    HW138250   0.342   7.068   1.032  0.6179 -0.1121  0.7853
10464SOL    HW238251   0.225   7.137   1.099 -0.7387 -0.7806 -0.8222
10465SOL     OW38252   1.102   5.349   0.306  0.1819  0.1250  0.9013
10465SOL    HW138253   1.163   5.408   0.261  1.1321 -0.3084  1.5705
10465SOL    HW238254   1.028   5.404   0.330  0.2059  0.6223 -0.1280
10466SOL     OW38255   3.576   0.458  12.043  0.1938 -0.2511  0.1692
10466SOL    HW138256   3.596   0.513  12.118  0.3325 -0.7300  0.4888
10466SOL    HW238257   3.504   0.402  12.073  1.7128 -2.0220  0.7431
10467SOL     OW38258   1.617   9.583   9.842  0.3003 -0.3936 -0.5674
10467SOL    HW138259   1.599   9.525   9.768 -0.5284  1.2888 -1.7686
10467SOL    HW238260   1.708   9.611   9.829 -0.7630  2.4808 -2.9983
10468SOL     OW38261   1.870   7.154  10.731  0.0240  0.5829 -0.8807
10468SOL    HW138262   1.889   7.235  10.684 -0.0725  1.0648 -0.1224
10468SOL    HW238263   1.821   7.100  10.669  2.2255  0.0601 -2.2688
10469SOL     OW38264   3.773   2.614   9.555  0.4918 -0.2074 -0.2003
10469SOL    HW138265   3.813   2.537   9.596 -0.0499  0.0008  0.7666
10469SOL    HW238266   3.708   2.643   9.619  0.1736  0.6160 -0.8826
10470SOL     OW38267   1.687   6.724   7.455  0.3790 -0.3058  0.2483
10470SOL    HW138268   1.680   6.723   7.551  2.1735 -1.7266  0.4110
10470SOL    HW238269   1.617   6.665   7.425 -0.0556 -0.0178  0.6777
10471SOL     OW38270   1.541   7.184   6.225 -0.1443  0.2784 -0.2001
10471SOL    HW138271   1.581   7.221   6.147  1.1736 -1.0614 -0.2000
10471SOL    HW238272   1.472   7.246   6.249  1.4902  2.3265 -0.5976
10472SOL     OW38273   6.774   7.981   3.550 -0.2192  0.0535 -0.2545
10472SOL    HW138274   6.795   7.897   3.590 -0.8624 -0.4493 -0.9422
10472SOL    HW238275   6.749   7.960   3.460  1.1381  1.1486 -0.9262
10473SOL     OW38276   5.828   9.957  10.341 -0.2693 -0.0462  0.6942
10473SOL    HW138277   5.909   9.998  10.311 -0.1919 -0.8860 -0.3244
10473SOL    HW238278   5.797  10.013  10.412 -0.3084  1.9240 -0.7704
10474SOL     OW38279   5.340   6.854   9.219  0.2346  0.5821 -0.2949
10474SOL    HW138280   5.270   6.872   9.155  0.4300 -0.2542 -0.7615
10474SOL    HW238281   5.334   6.925   9.282 -0.6310  0.8695 -0.6867
10475SOL     OW38282   1.353  11.742   4.735  0.3947 -0.3390  0.4089
10475SOL    HW138283   1.375  11.676   4.669  1.8774  0.3991  0.1117
10475SOL    HW238284   1.259  11.734   4.747 -0.1552  0.1871 -2.5827
10476SOL     OW38285   5.942   0.533  10.081 -0.3553 -0.0339 -0.1448
10476SOL    HW138286   5.863   0.575  10.115  0.4441 -0.3416  2.3058
10476SOL    HW238287   6.003   0.606  10.065 -0.2347  0.0298  0.5629
10477SOL     OW38288   6.303   9.325   6.297 -0.0275  0.8012  0.6145
10477SOL    HW138289   6.371   9.362   6.354  1.8913 -0.4862 -0.7340
10477SOL    HW238290   6.262   9.256   6.350  1.8570 -0.5050  0.4738
10478SOL     OW38291   0.549   9.932   4.697  0.0060 -0.5336 -0.0572
10478SOL    HW138292   0.569   9.852   4.648  0.5457  0.1512 -0.9763
10478SOL    HW238293   0.615   9.995   4.668  1.6942 -0.6718  3.0615
10479SOL     OW38294   6.118   2.392   7.753 -0.1741 -0.1276  0.2692
10479SOL    HW138295   6.192   2.372   7.696 -0.1758 -1.2520  0.6291
10479SOL    HW238296   6.136   2.479   7.787  0.1880  0.2610 -0.8733
10480SOL     OW38297   4.358   7.166   1.078 -0.1794 -0.2229 -0.4142
10480SOL    HW138298   4.370   7.244   1.133 -1.9184 -0.2431  0.0691
10480SOL    HW238299   4.369   7.198   0.989 -2.4564  1.0041 -0.3342
10481SOL     OW38300   8.201  10.178   8.560  0.0638  0.2032 -0.3646
10481SOL    HW138301   8.172  10.216   8.643  0.9858  0.7057 -0.2626
10481SOL    HW238302   8.219  10.086   8.581  2.0292  0.7310  0.4557
10482SOL     OW38303   8.147   6.296   8.106  0.7358  0.4235  0.2233
10482SOL    HW138304   8.055   6.307   8.130  1.3452  1.5334  2.3286
10482SOL    HW238305   8.195   6.314   8.187  2.8493  0.5697 -0.9872
10483SOL     OW38306   6.941  11.890   7.255  0.1433  0.4113  0.2302
10483SOL    HW138307   7.037  11.895   7.260  0.2651 -1.9177  1.8124
10483SOL    HW238308   6.913  11.982   7.252  2.3281  1.2762  2.5385
10484SOL     OW38309  10.068   4.268   0.118  0.0747  0.2125  0.2258
10484SOL    HW138310  10.004   4.223   0.172 -2.4293  0.5264 -2.2527
10484SOL    HW238311  10.109   4.198   0.066  1.3381  0.0958  1.3165
10485SOL     OW38312   5.384  12.415   1.527 -0.2754 -0.0144  0.1769
10485SOL    HW138313   5.326  12.370   1.589 -0.5381 -0.4799 -0.4041
10485SOL    HW238314   5.421  12.487   1.578  0.9716 -1.4841  1.4436
10486SOL     OW38315   2.189  11.786   8.115  0.0238 -0.4623  0.1922
10486SOL    HW138316   2.214  11.877   8.125 -0.9436 -0.1004 -0.4885
10486SOL    HW238317   2.247  11.738   8.173  0.1516  0.6489  1.0032
10487SOL     OW38318   5.871   0.675   9.704  0.2390  0.5119 -0.6157
10487SOL    HW138319   5.799   0.647   9.761 -0.4376 -0.2485 -1.7983
10487SOL    HW238320   5.926   0.729   9.761 -1.5090  1.5337  0.2228
10488SOL     OW38321   1.621   5.577   8.627 -0.1567  0.0698  0.2942
10488SOL    HW138322   1.656   5.529   8.551 -1.2984 -3.2116  1.6480
10488SOL    HW238323   1.683   5.558   8.697 -0.8459  0.2384  0.9623
10489SOL     OW38324   0.123  10.432   3.251  0.4627  0.3146 -0.4080
10489SOL    HW138325   0.174  10.354   3.228  0.7949  0.6442 -0.8102
10489SOL    HW238326   0.133  10.440   3.345 -1.8993 -1.7605  0.1349
10490SOL     OW38327  11.910   0.641   9.071 -0.4637  0.1238 -0.1338
10490SOL    HW138328  11.959   0.709   9.025 -1.8535  1.1719 -0.1338
10490SOL    HW238329  11.865   0.592   9.001 -4.5140  3.2045 -0.0327
10491SOL     OW38330   9.433   8.295   7.165 -0.2668 -0.0639  0.8246
10491SOL    HW138331   9.407   8.371   7.217  1.5238 -0.3150  2.1712
10491SOL    HW238332   9.528   8.303   7.157  0.0018 -2.2940  1.2533
10492SOL     OW38333  10.468   4.437   6.305 -0.2828  0.0874  0.2103
10492SOL    HW138334  10.521   4.508   6.340 -0.0149  0.0084 -0.0311
10492SOL    HW238335  10.530   4.364   6.295 -0.2726  0.2185 -0.7768
10493SOL     OW38336   1.175   3.286  11.384  0.2596  0.6309  0.0265
10493SOL    HW138337   1.259   3.291  11.338  1.5859 -0.5597  2.1131
10493SOL    HW238338   1.149   3.194  11.377 -0.8114  0.9578 -0.4582
10494SOL     OW38339   7.081   1.478   4.982  0.0166  0.1584  0.5275
10494SOL    HW138340   7.126   1.453   5.063  1.6084 -1.3366 -0.7410
10494SOL    HW238341   7.027   1.403   4.960 -2.0055  1.3355  1.1896
10495SOL     OW38342   5.234   5.625   9.307 -0.3266 -0.8703 -0.0142
10495SOL    HW138343   5.251   5.590   9.395  0.9097  0.3749  0.2796
10495SOL    HW238344   5.234   5.548   9.251 -0.6204 -1.6413  1.0033
10496SOL     OW38345   6.183  10.273   7.233  0.1397  0.1490 -0.3850
10496SOL    HW138346   6.244  10.322   7.178  1.6870 -0.8357  0.3836
10496SOL    HW238347   6.213  10.290   7.323 -0.8970 -0.1549  0.0421
10497SOL     OW38348  10.688   8.206  11.941  0.3010 -0.3375 -0.2061
10497SOL    HW138349  10.680   8.216  12.036 -2.2708  0.7811 -0.4697
10497SOL    HW238350  10.632   8.131  11.920 -1.4540  1.1599 -1.0943
10498SOL     OW38351   1.727   1.831   4.649  0.0292 -0.5119  0.1612
10498SOL    HW138352   1.707   1.918   4.685  0.1017 -0.5440  0.2811
10498SOL    HW238353   1.821   1.820   4.665  0.0570 -0.5372 -0.0174
10499SOL     OW38354   9.264  11.135   2.605  0.0577 -0.3946  0.1949
10499SOL    HW138355   9.352  11.137   2.566  0.4692 -0.6725  1.0719
10499SOL    HW238356   9.205  11.149   2.532  0.8855  1.0323 -0.2543
10500SOL     OW38357  10.131   6.721  11.259 -0.4475 -0.2089 -0.5095
10500SOL    HW138358  10.088   6.788  11.205  1.1290 -0.4254 -2.1312
10500SOL    HW238359  10.108   6.638  11.217  2.7293 -0.2672 -2.5185
10501SOL     OW38360  12.186   4.617   5.636  0.7563 -0.7757 -0.0298
10501SOL    HW138361  12.164   4.704   5.602 -0.1108 -0.6797  0.7316
10501SOL    HW238362  12.280   4.621   5.652  1.1232 -0.6815 -1.9407
10502SOL     OW38363   8.576  10.184   2.925  0.4765 -0.7265 -0.1905
10502SOL    HW138364   8.628  10.178   3.005  0.5437 -0.8743 -0.2464
10502SOL    HW238365   8.486  10.167   2.954  0.1440  1.5052  0.2660
10503SOL     OW38366  12.548   2.845   0.879 -0.2472  0.2745 -0.3090
10503SOL    HW138367  12.529   2.888   0.796  0.6899  1.7816  0.2154
10503SOL    HW238368  12.622   2.894   0.915  0.0035 -0.9669  0.9579
10504SOL     OW38369  12.060   6.522   9.803 -0.4762 -0.1293 -0.6922
10504SOL    HW138370  12.011   6.604   9.808 -1.5729 -0.8467  0.7970
10504SOL    HW238371  12.038   6.486   9.717 -1.9981 -0.0633 -0.3600
10505SOL     OW38372   8.598   6.068  12.262  0.1428  0.0785 -0.2121
10505SOL    HW138373   8.626   5.979  12.241  0.4689  0.5833 -2.1079
10505SOL    HW238374   8.509   6.057  12.294  0.2764 -0.9588 -0.1384
10506SOL     OW38375  10.628   3.894  10.703  0.1811  0.3058  0.0037
10506SOL    HW138376  10.721   3.919  10.698  0.6798 -1.3321  0.3475
10506SOL    HW238377  10.592   3.953  10.770  0.6224  1.8660 -1.0611
10507SOL     OW38378  10.452   1.865   4.689 -0.2002 -0.0671 -0.4989
10507SOL    HW138379  10.434   1.875   4.782  1.7156 -0.8150 -0.0137
10507SOL    HW238380  10.473   1.953   4.658  1.3615 -0.1215  0.3026
10508SOL     OW38381   0.855   6.122   7.505 -0.4834 -0.3077  0.4699
10508SOL    HW138382   0.853   6.040   7.456  2.3213  0.4314 -1.0839
10508SOL    HW238383   0.853   6.095   7.596  0.0087 -2.0931  0.0017
10509SOL     OW38384  10.029   7.666   8.665  0.2116 -0.0452 -0.3567
10509SOL    HW138385   9.951   7.679   8.719 -0.8483 -1.3699 -1.4851
10509SOL    HW238386  10.096   7.722   8.704 -1.1543  0.7159  0.9611
10510SOL     OW38387   8.118   3.596   2.783  0.7322 -0.1582  0.5037
10510SOL    HW138388   8.126   3.668   2.845  0.7609 -1.1309  1.6859
10510SOL    HW238389   8.124   3.517   2.838  3.2486 -1.1325 -0.9847
10511SOL     OW38390   8.115   6.266   3.444 -0.5728 -0.1318 -0.3923
10511SOL    HW138391   8.168   6.308   3.512 -0.1674 -0.1648 -0.6854
10511SOL    HW238392   8.035   6.241   3.489 -0.0114 -0.8184  0.2513
10512SOL     OW38393   8.885   5.364   4.487  0.4505  0.1349 -0.7519
10512SOL    HW138394   8.908   5.360   4.394 -0.1954 -1.2079 -0.8834
10512SOL    HW238395   8.948   5.425   4.524  1.8948 -0.6562 -1.7490
10513SOL     OW38396   7.418   4.042  10.160 -0.4015  0.1000  0.2765
10513SOL    HW138397   7.438   3.970  10.100  1.5091 -0.4108  1.4499
10513SOL    HW238398   7.369   4.001  10.231 -0.0471  0.0942  0.5239
10514SOL     OW38399   8.345  10.222  10.560  0.4317  0.2044  0.1020
10514SOL    HW138400   8.294  10.266  10.627 -0.3794  0.4595 -0.6554
10514SOL    HW238401   8.430  10.266  10.561  0.4403  0.1750  0.9740
10515SOL     OW38402   1.141   7.264   1.057 -0.5485  0.0557  0.1019
10515SOL    HW138403   1.086   7.192   1.027  3.0882 -2.6173 -0.8320
10515SOL    HW238404   1.181   7.298   0.977  1.2569 -0.0183  0.9315
10516SOL     OW38405  11.492   0.647   3.561 -0.5804 -0.3425 -0.2331
10516SOL    HW138406  11.518   0.555   3.555 -1.4732 -0.6593  0.5074
10516SOL    HW238407  11.571   0.693   3.588 -0.0431 -0.8356 -0.9246
10517SOL     OW38408   1.395  11.061   1.199  0.3300  0.7387 -0.1604
10517SOL    HW138409   1.314  11.109   1.212  0.5120  1.4746 -1.5522
10517SOL    HW238410   1.372  10.991   1.139  0.7249  0.9993 -0.6259
10518SOL     OW38411   9.105   6.449   0.744 -0.3303  0.0011  0.9638
10518SOL    HW138412   9.088   6.362   0.781  0.7809 -1.4425 -1.5803
10518SOL    HW238413   9.053   6.451   0.664  0.3267  1.3221  0.5435
10519SOL     OW38414  12.364   4.836   6.536 -0.4991 -0.2065 -0.1909
10519SOL    HW138415  12.338   4.862   6.448  0.9036  2.1089 -0.0100
10519SOL    HW238416  12.299   4.772   6.563 -2.6546  1.1848 -1.7966
10520SOL     OW38417   4.684  12.370   1.951  0.0953  0.1071 -0.3021
10520SOL    HW138418   4.780  12.369   1.953  0.1646 -1.0522 -2.1498
10520SOL    HW238419   4.661  12.425   1.876 -0.8107  2.2884  1.4382
10521SOL     OW38420   5.856   4.976  12.320 -0.0035 -0.2623 -0.2200
10521SOL    HW138421   5.801   5.011  12.390  1.1846 -1.2098  1.2576
10521SOL    HW238422   5.940   5.020  12.332 -0.0429  0.2746 -1.6952
10522SOL     OW38423   9.700  11.178   1.512 -0.2826 -0.1292  0.7195
10522SOL    HW138424   9.651  11.260   1.521  1.2113  0.7591  1.2425
10522SOL    HW238425   9.725  11.176   1.420  0.4276  0.4792  0.8876
10523SOL     OW38426   9.264  10.770   0.822  0.2737 -0.0096 -0.1290
10523SOL    HW138427   9.341  10.771   0.765 -0.1508  0.7875 -0.7096
10523SOL    HW238428   9.197  10.726   0.771 -0.0659  0.5719 -0.1961
10524SOL     OW38429  10.654   9.221   9.285  0.1290 -0.2653 -0.2823
10524SOL    HW138430  10.693   9.152   9.340 -1.9521 -1.1290  0.2201
10524SOL    HW238431  10.708   9.298   9.301  1.4419 -1.3129  0.5591
10525SOL     OW38432  10.021   8.689  11.307 -0.2024  0.1579 -0.3698
10525SOL    HW138433  10.005   8.678  11.213  4.6438 -0.7638 -1.3871
10525SOL    HW238434  10.015   8.783  11.322 -0.8225  0.3444 -1.6533
10526SOL     OW38435   4.067   8.087   0.398 -0.5547 -0.5091 -0.5043
10526SOL    HW138436   4.069   8.043   0.483  3.1078  0.8630  0.3082
10526SOL    HW238437   4.073   8.180   0.420 -0.4189 -0.0798 -2.2497
10527SOL     OW38438   5.058   8.623   9.604 -0.3687  0.1262 -0.2877
10527SOL    HW138439   4.999   8.642   9.677  0.9895  3.4680  0.1233
10527SOL    HW238440   5.145   8.644   9.637  0.3662  1.0582 -2.5929
10528SOL     OW38441   7.112   2.031   8.214  0.1846 -0.2336 -0.3378
10528SOL    HW138442   7.164   2.047   8.293  0.2929  0.6978 -0.5910
10528SOL    HW238443   7.136   2.102   8.155 -0.6528 -0.3577 -0.8353
10529SOL     OW38444   2.264   5.876   6.038 -0.3335  0.1700 -0.0625
10529SOL    HW138445   2.242   5.844   6.125  0.5828 -0.5389 -0.0857
10529SOL    HW238446   2.209   5.954   6.027 -2.1374 -1.0050  0.2299
10530SOL     OW38447   6.685  12.387   0.836  0.2671 -0.3626  0.0817
10530SOL    HW138448   6.656  12.460   0.890 -0.0132 -0.6819  0.3695
10530SOL    HW238449   6.685  12.312   0.896 -0.7128 -0.8601 -0.5126
10531SOL     OW38450   5.069  11.014   6.557 -0.0030 -0.2683 -0.0039
10531SOL    HW138451   4.981  11.049   6.541 -1.3066 -2.7861  1.2108
10531SOL    HW238452   5.100  10.987   6.470 -0.9548 -0.5268 -0.2786
10532SOL     OW38453   3.272   8.230   8.861 -0.1835  0.2529 -0.3969
10532SOL    HW138454   3.276   8.324   8.879  0.1024 -0.2029  2.3702
10532SOL    HW238455   3.357   8.210   8.823 -0.5226  1.1918 -1.7481
10533SOL     OW38456   2.095   4.864   8.813 -0.3056  0.4406 -0.3600
10533SOL    HW138457   2.026   4.928   8.830 -2.1739 -0.9604 -2.2965
10533SOL    HW238458   2.125   4.884   8.724  0.2676 -0.3510 -0.3511
10534SOL     OW38459   5.933   0.567   7.459  0.1590  0.1498  0.4670
10534SOL    HW138460   5.844   0.591   7.432  0.4925  2.0230  0.8562
10534SOL    HW238461   5.922   0.488   7.511 -1.3401  0.5418  0.7959
10535SOL     OW38462   9.628   6.715   9.426  0.0735  0.5946  0.1933
10535SOL    HW138463   9.640   6.800   9.384  0.8098  1.1065  1.3915
10535SOL    HW238464   9.711   6.699   9.471  0.4086 -1.3399 -1.0125
10536SOL     OW38465  11.975   8.385  11.520  0.0096  0.0556 -0.6838
10536SOL    HW138466  12.046   8.447  11.507  0.0068  0.2804  0.2700
10536SOL    HW238467  12.012   8.300  11.497  0.9254  0.0284  0.7601
10537SOL     OW38468   4.762  10.764   4.489 -0.2524  0.3598  0.4008
10537SOL    HW138469   4.780  10.770   4.396 -0.5954 -0.9903  0.2207
10537SOL    HW238470   4.829  10.818   4.531  0.7440 -0.1203 -0.5451
10538SOL     OW38471   7.666  12.549   3.201 -0.4630  0.0035 -0.2000
10538SOL    HW138472   7.675  12.609   3.275 -0.0068  0.5067 -0.6548
10538SOL    HW238473   7.589  12.580   3.154 -0.7838 -0.3481  0.0807
10539SOL     OW38474   8.615   5.229   6.953  0.3728 -0.2541  0.3943
10539SOL    HW138475   8.637   5.284   6.878 -0.9196  3.3886  2.3925
10539SOL    HW238476   8.564   5.157   6.917 -0.4940  1.5316 -2.2152
10540SOL     OW38477   1.294   2.244  11.393  0.4224  0.3190  0.0039
10540SOL    HW138478   1.303   2.215  11.484  0.0985  0.2581  0.0187
10540SOL    HW238479   1.383   2.243  11.359  0.5786  0.6071  0.3993
10541SOL     OW38480   8.745   6.944   7.583  0.4002 -0.0786  0.0816
10541SOL    HW138481   8.825   6.909   7.542  1.4338  2.0726  0.1509
10541SOL    HW238482   8.686   6.960   7.509  0.8153  0.2637 -0.1756
10542SOL     OW38483   6.765  10.033   9.350 -0.8535  0.1541 -0.3318
10542SOL    HW138484   6.761  10.121   9.314  3.3268  1.5116  1.8241
10542SOL    HW238485   6.811   9.982   9.284 -0.2596  0.5336 -0.2207
10543SOL     OW38486   2.617   1.645  10.156 -0.2659  0.2599 -0.2661
10543SOL    HW138487   2.558   1.633  10.230 -1.5035  0.0745 -1.2519
10543SOL    HW238488   2.701   1.609  10.186 -0.3898  1.3508  1.4714
10544SOL     OW38489   1.109  12.454   9.722  0.1064 -0.4194 -0.5004
10544SOL    HW138490   1.125  12.500   9.805  1.2991 -0.0137 -0.9239
10544SOL    HW238491   1.069  12.371   9.747  2.3576 -1.2336  0.6770
10545SOL     OW38492   8.455   3.547   7.171 -0.2396 -0.5626 -0.0676
10545SOL    HW138493   8.486   3.456   7.172 -0.0184 -0.4884  0.4111
10545SOL    HW238494   8.471   3.577   7.082  0.4064 -0.7551 -0.0264
10546SOL     OW38495   4.380   2.551   8.354  0.2047 -0.0182 -0.0575
10546SOL    HW138496   4.454   2.490   8.355 -1.1401 -1.7555 -0.1618
10546SOL    HW238497   4.304   2.496   8.376 -1.0958  1.6292 -0.2311
10547SOL     OW38498  12.555   5.996   5.662  0.7072  0.4636  0.3237
10547SOL    HW138499  12.575   5.936   5.590 -0.3801  0.9214 -0.3883
10547SOL    HW238500  12.506   5.942   5.725 -1.3541  0.8313 -0.8739
10548SOL     OW38501   1.250   6.838   8.522  0.2300  0.0923  0.1431
10548SOL    HW138502   1.293   6.783   8.588 -0.1816 -1.8697 -1.1284
10548SOL    HW238503   1.322   6.873   8.469  0.4273 -0.9450 -0.2984
10549SOL     OW38504   9.019   7.128  11.099  0.5651  0.4560 -0.3857
10549SOL    HW138505   8.928   7.133  11.127  0.6429  0.7894 -0.1767
10549SOL    HW238506   9.063   7.078  11.168  0.2339 -1.1384 -1.2996
10550SOL     OW38507   9.625   5.348   6.917 -0.1455 -0.0313  0.3907
10550SOL    HW138508   9.562   5.385   6.855 -1.1168 -1.7340  0.3106
10550SOL    HW238509   9.707   5.342   6.867 -1.3990 -3.3778 -1.6154
10551SOL     OW38510  12.367   5.111  10.524  0.2383 -0.6803 -0.7598
10551SOL    HW138511  12.375   5.105  10.429 -0.5853 -0.5717 -0.8456
10551SOL    HW238512  12.286   5.063  10.544 -1.2212  1.7584 -0.4403
10552SOL     OW38513  11.961   7.474   6.886 -0.5579  0.0552  0.1666
10552SOL    HW138514  11.906   7.469   6.964  0.7403  1.3716  1.2280
10552SOL    HW238515  11.942   7.560   6.848  0.1422  0.1725  0.0665
10553SOL     OW38516   3.579  11.913   8.805  0.1148 -0.0531 -0.3793
10553SOL    HW138517   3.531  11.893   8.885 -1.4786 -0.4227 -1.3692
10553SOL    HW238518   3.669  11.886   8.822 -0.6473 -2.1748  0.5223
10554SOL     OW38519   6.619   9.232   6.597  0.2936  0.6439 -0.3974
10554SOL    HW138520   6.573   9.260   6.677  1.6692  1.6083  0.0937
10554SOL    HW238521   6.566   9.268   6.526 -0.1684  1.0311  0.1275
10555SOL     OW38522  10.806   1.170  10.165  0.1985  0.3174  0.1992
10555SOL    HW138523  10.859   1.217  10.100  2.5218 -0.9402  1.1047
10555SOL    HW238524  10.760   1.103  10.114  0.8565  0.2760 -0.3534
10556SOL     OW38525   3.247   4.377  11.068 -0.6356  1.0336 -0.5108
10556SOL    HW138526   3.163   4.384  11.023 -0.0217  1.0384 -1.6753
10556SOL    HW238527   3.293   4.305  11.024 -0.5400  0.1393  0.9873
10557SOL     OW38528   3.908   7.852   4.029  0.6529 -0.3451 -0.5366
10557SOL    HW138529   3.816   7.855   4.055  0.6377 -0.7066 -0.5345
10557SOL    HW238530   3.911   7.784   3.961  0.8742 -0.1566 -0.7153
10558SOL     OW38531   3.226   3.793   0.970  0.4320 -0.1780 -0.3030
10558SOL    HW138532   3.267   3.721   1.017 -0.6638 -1.2519 -0.9151
10558SOL    HW238533   3.179   3.751   0.897 -1.5407  0.9534  0.2274
10559SOL     OW38534   3.817   5.126   5.093 -0.2881  0.4142  0.2971
10559SOL    HW138535   3.761   5.071   5.039 -1.5262 -0.1986  2.0891
10559SOL    HW238536   3.905   5.090   5.081 -0.5223  0.2844 -1.2205
10560SOL     OW38537   6.898   9.057   5.018  0.0920 -0.3648  0.1397
10560SOL    HW138538   6.900   9.105   4.935 -0.7991  2.0442  1.4034
10560SOL    HW238539   6.990   9.052   5.045  0.5449 -2.2914 -1.5014
10561SOL     OW38540   2.893   7.489  10.034 -0.7311 -0.1899 -0.1887
10561SOL    HW138541   2.950   7.498  10.110  0.1093 -0.5545 -0.7674
10561SOL    HW238542   2.813   7.450  10.069 -1.3465  1.9206  0.9483
10562SOL     OW38543   0.190   7.122   9.926 -0.2722  0.1867 -0.1195
10562SOL    HW138544   0.278   7.088   9.907 -0.6009 -0.7088 -0.1017
10562SOL    HW238545   0.203   7.216   9.936  1.1045 -0.1601  2.1770
10563SOL     OW38546   2.669   4.398   9.534  0.1326  0.0563  0.8657
10563SOL    HW138547   2.686   4.410   9.440 -0.3074 -0.8943  0.6451
10563SOL    HW238548   2.737   4.449   9.578 -0.5895  1.7727  0.0467
10564SOL     OW38549   6.593   5.386   7.669 -0.7865  0.2095  0.0096
10564SOL    HW138550   6.564   5.332   7.595  0.3637  0.1403 -0.4247
10564SOL    HW238551   6.519   5.388   7.729 -1.8763  0.5481 -1.3090
10565SOL     OW38552   8.439   7.534   9.640  0.1869  0.1052 -0.1527
10565SOL    HW138553   8.431   7.465   9.574  0.9866  0.6935 -0.8791
10565SOL    HW238554   8.433   7.616   9.591 -3.2572  0.6629  0.9679
10566SOL     OW38555  11.565   1.338   8.675 -0.2876  0.5640 -0.2378
10566SOL    HW138556  11.511   1.408   8.713 -1.2651  0.5735 -1.5839
10566SOL    HW238557  11.518   1.258   8.697 -1.2204  0.6115 -1.9354
10567SOL     OW38558   9.338   4.386   9.475 -0.0838  0.7619  0.0223
10567SOL    HW138559   9.269   4.392   9.542 -1.7442  1.6041 -1.6766
10567SOL    HW238560   9.320   4.458   9.415  0.7053 -0.5638 -1.9111
10568SOL     OW38561  12.394   0.517   0.143  0.7960  0.5577 -0.2734
10568SOL    HW138562  12.374   0.423   0.138 -0.3341  0.5336  2.7026
10568SOL    HW238563  12.316   0.559   0.106 -0.2295  0.3190  1.5291
10569SOL     OW38564  11.051  10.453   1.519 -0.2026 -0.1411 -0.2524
10569SOL    HW138565  10.971  10.496   1.547  0.1343  0.4894 -0.2304
10569SOL    HW238566  11.080  10.402   1.595  1.0562  2.0603  0.8303
10570SOL     OW38567   6.756   6.991   1.376  0.2847  0.1420 -0.1663
10570SOL    HW138568   6.732   6.982   1.468 -0.1419  1.0362 -0.1738
10570SOL    HW238569   6.738   6.905   1.337  1.9511 -0.7398  0.8800
10571SOL     OW38570   7.531   1.754  10.559 -0.1633 -0.3780  0.3091
10571SOL    HW138571   7.513   1.726  10.469 -2.4144  1.7905 -0.0541
10571SOL    HW238572   7.495   1.684  10.613  0.0608 -1.1215 -0.4814
10572SOL     OW38573  12.398   5.504   3.711 -0.0018 -0.8240  0.1002
10572SOL    HW138574  12.476   5.542   3.671  0.9725 -1.7237  1.0889
10572SOL    HW238575  12.427   5.421   3.747 -1.8564 -2.0510 -1.0696
10573SOL     OW38576   0.463  12.548   1.843 -0.3427  0.1683 -0.3441
10573SOL    HW138577   0.420  12.474   1.886 -0.8536  0.4247 -0.4086
10573SOL    HW238578   0.415  12.559   1.760 -0.7882  1.0661  0.0176
10574SOL     OW38579   2.496   9.364  11.091 -0.0469 -0.5381 -0.3427
10574SOL    HW138580   2.497   9.453  11.127  0.6720 -0.3885 -0.7030
10574SOL    HW238581   2.578   9.325  11.122  0.0794 -0.7617 -0.9455
10575SOL     OW38582   0.524   2.531  11.668 -0.3736 -0.0401  0.2982
10575SOL    HW138583   0.481   2.581  11.599 -0.2837 -0.0126  0.2615
10575SOL    HW238584   0.578   2.595  11.714 -0.0462 -0.1544  0.0815
10576SOL     OW38585   9.400   0.926   0.516  0.0359  0.2341 -0.6864
10576SOL    HW138586   9.321   0.977   0.500  0.0317  0.2165 -0.7183
10576SOL    HW238587   9.449   0.977   0.581 -0.7787 -0.5699  0.5925
10577SOL     OW38588  11.575   7.948   9.983 -0.4023  0.3787  0.3695
10577SOL    HW138589  11.596   7.858  10.007  2.9293  0.9948  0.2206
10577SOL    HW238590  11.527   7.941   9.900 -1.1355 -1.2504  0.9047
10578SOL     OW38591   4.329   9.256   2.762  0.1642 -0.2229  0.0343
10578SOL    HW138592   4.290   9.283   2.679  0.0042 -0.3123  0.0805
10578SOL    HW238593   4.424   9.257   2.745  0.1421 -0.0293 -0.0835
10579SOL     OW38594   2.367  11.332   6.996  0.2994 -0.1351 -0.0267
10579SOL    HW138595   2.380  11.250   6.948  0.3616  0.9246 -1.9225
10579SOL    HW238596   2.283  11.366   6.963 -0.0920  0.2283  1.2790
10580SOL     OW38597   7.684   7.793   9.608  0.4660 -0.2754 -0.2581
10580SOL    HW138598   7.742   7.825   9.539 -0.5296  0.2129 -0.9027
10580SOL    HW238599   7.654   7.708   9.577 -1.2884  0.6548 -1.2852
10581SOL     OW38600   6.255   3.782   4.309 -0.1435 -0.2995  0.1091
10581SOL    HW138601   6.267   3.697   4.351  1.0510 -0.5851 -0.7602
10581SOL    HW238602   6.325   3.787   4.244  0.8154  2.0149  1.2071
10582SOL     OW38603   1.996   7.378  12.079  0.4929 -0.1621 -0.3854
10582SOL    HW138604   2.024   7.372  11.988 -0.0095 -0.3813 -0.5290
10582SOL    HW238605   2.054   7.443  12.118 -0.2547  1.0671 -1.2443
10583SOL     OW38606   3.097   8.741  10.344  0.1863 -0.6119  0.4066
10583SOL    HW138607   3.168   8.757  10.406  0.4057  0.5803 -0.1191
10583SOL    HW238608   3.141   8.740  10.258 -0.4376  0.1509  0.0740
10584SOL     OW38609   3.224  11.014   7.736  0.4754 -0.4737 -0.0059
10584SOL    HW138610   3.301  10.960   7.715  0.4849 -0.7585  0.7328
10584SOL    HW238611   3.249  11.061   7.815  0.5803  0.8658 -0.7994
10585SOL     OW38612   4.675   1.649  11.922  0.1477 -0.6312  0.2689
10585SOL    HW138613   4.618   1.577  11.950  0.4806 -1.2972 -0.7161
10585SOL    HW238614   4.693   1.697  12.003 -1.3033 -0.7597  0.7075
10586SOL     OW38615  12.463   4.636   5.141  0.4510  0.0482  0.0391
10586SOL    HW138616  12.449   4.556   5.091  2.6855 -0.1685 -0.3597
10586SOL    HW238617  12.495   4.700   5.077 -1.2206  1.2834  0.3658
10587SOL     OW38618   6.887   5.081   2.617 -0.2717 -0.0100  0.3456
10587SOL    HW138619   6.900   5.017   2.548 -2.2277  0.1173 -0.1771
10587SOL    HW238620   6.939   5.157   2.589  0.3794 -0.5920 -0.0577
10588SOL     OW38621  11.607   0.508  12.505 -0.4532 -0.8182  0.2238
10588SOL    HW138622  11.567   0.573  12.446  2.0275  0.5424 -0.1079
10588SOL    HW238623  11.573   0.424  12.475 -3.3617  0.1945  0.3059
10589SOL     OW38624  10.123  12.268   2.834  0.6850 -0.2062 -0.7654
10589SOL    HW138625  10.089  12.319   2.760  1.0659 -0.3556 -1.0496
10589SOL    HW238626  10.061  12.284   2.905  0.1249 -0.3241 -1.2153
10590SOL     OW38627   7.199   0.511  10.726 -0.3889  0.0746  0.2526
10590SOL    HW138628   7.212   0.536  10.817  0.4625 -0.5493  0.3097
10590SOL    HW238629   7.232   0.585  10.676  1.7202 -0.6787  0.4300
10591SOL     OW38630   0.742   9.152   0.561 -0.2098 -0.1947 -0.2778
10591SOL    HW138631   0.720   9.198   0.642 -0.6152  0.4909 -0.7702
10591SOL    HW238632   0.699   9.203   0.492  3.3483  1.6841 -1.4097
10592SOL     OW38633  12.537   8.229  10.993  0.0072  0.6370 -0.5178
10592SOL    HW138634  12.443   8.231  11.007  0.0798 -2.0378  1.0436
10592SOL    HW238635  12.553   8.147  10.946  1.5079  1.4312 -1.4937
10593SOL     OW38636   6.748   2.934  10.807  0.2531  0.5086  0.4914
10593SOL    HW138637   6.819   2.957  10.867  0.6433  1.0308 -0.1729
10593SOL    HW238638   6.769   2.845  10.779  1.3467  1.1124 -0.6883
10594SOL     OW38639   5.248   6.913   8.560  0.5238 -0.0202  0.5474
10594SOL    HW138640   5.154   6.929   8.562  0.5819  1.1026 -1.8892
10594SOL    HW238641   5.256   6.818   8.557 -0.5825 -0.1181  0.1004
10595SOL     OW38642   8.126   4.140  12.573 -0.8599 -0.1800 -0.0471
10595SOL    HW138643   8.183   4.164  12.500 -0.5121  0.9682  0.5588
10595SOL    HW238644   8.041   4.179  12.551 -0.4285  1.2934  0.6972
10596SOL     OW38645   7.033   7.363  12.479 -0.3536  0.6031  0.4622
10596SOL    HW138646   6.970   7.320  12.537  1.9313 -0.3009  2.4360
10596SOL    HW238647   7.019   7.322  12.394 -2.5201  0.6015  0.7512
10597SOL     OW38648   2.500  11.011   5.848 -0.1283 -0.7958  0.3699
10597SOL    HW138649   2.427  10.960   5.882 -0.9361  0.0717  0.0007
10597SOL    HW238650   2.460  11.095   5.822  1.1461  0.0474  1.0191
10598SOL     OW38651   3.970   1.326   2.213  0.9976  0.4856  0.6510
10598SOL    HW138652   4.033   1.255   2.227  0.3115 -0.3844 -0.5018
10598SOL    HW238653   4.014   1.404   2.247  1.4346 -0.5958  2.7084
10599SOL     OW38654  10.152   0.540   1.342 -0.7483 -0.5275  0.6020
10599SOL    HW138655  10.067   0.507   1.313  0.1449 -2.1781 -0.3287
10599SOL    HW238656  10.138   0.569   1.432 -2.1476 -1.3994  0.6926
10600SOL     OW38657   6.610   1.038   1.914 -0.6525  0.4481 -0.0744
10600SOL    HW138658   6.661   1.106   1.870 -0.4288  0.8421  0.7766
10600SOL    HW238659   6.626   0.959   1.863  0.0982  0.7625 -0.3396
10601SOL     OW38660  10.397   7.495   1.626 -0.4413 -0.4625 -0.6128
10601SOL    HW138661  10.415   7.547   1.548 -1.1262  1.0632  0.2162
10601SOL    HW238662  10.338   7.549   1.678 -0.4093 -1.6736  0.7380
10602SOL     OW38663   7.364  12.019   0.907  0.0494 -0.2574 -0.3736
10602SOL    HW138664   7.272  12.010   0.934  0.1130  0.2395  0.0138
10602SOL    HW238665   7.410  11.950   0.955  0.0096  0.0257  0.0788
10603SOL     OW38666   5.909   0.494   6.285  0.0419  0.4261 -1.0262
10603SOL    HW138667   5.961   0.565   6.323 -1.0160  0.3440  0.7070
10603SOL    HW238668   5.934   0.416   6.336 -3.5473  0.8534  1.7999
10604SOL     OW38669   9.680   0.622   8.047 -0.4770  0.0909 -0.1423
10604SOL    HW138670   9.590   0.590   8.039 -0.2905 -1.0762  1.7425
10604SOL    HW238671   9.679   0.709   8.006 -2.6964  0.5020  0.6655
10605SOL     OW38672   8.900   9.296   1.139 -0.1308  0.1133 -0.0649
10605SOL    HW138673   8.928   9.234   1.071 -0.8458  0.4343 -0.6656
10605SOL    HW238674   8.826   9.342   1.100 -1.6798 -0.8726  1.5415
10606SOL     OW38675   1.676  10.346   0.490 -0.9493 -0.3321 -0.3423
10606SOL    HW138676   1.760  10.324   0.528 -0.2034  0.7977 -1.2612
10606SOL    HW238677   1.628  10.263   0.487 -0.3161 -0.7764  1.2221
10607SOL     OW38678   0.696   8.747   0.528 -0.3013 -0.0190 -0.3258
10607SOL    HW138679   0.720   8.656   0.509  0.1223  0.2402 -1.0433
10607SOL    HW238680   0.778   8.789   0.551 -0.6615 -0.0902  1.1977
10608SOL     OW38681   4.782   1.729  12.226  0.4225 -0.0487 -0.1518
10608SOL    HW138682   4.843   1.765  12.162 -0.0619 -0.4438 -0.8550
10608SOL    HW238683   4.837   1.682  12.289  0.9815  1.1434  0.2740
10609SOL     OW38684  12.249   8.331   4.644 -0.5417 -0.3301 -0.2540
10609SOL    HW138685  12.329   8.283   4.663  0.2723  0.7725 -0.7926
10609SOL    HW238686  12.206   8.341   4.729  0.7455  0.5398  0.3215
10610SOL     OW38687   6.669   7.866  10.808 -0.6461 -0.3468 -0.1876
10610SOL    HW138688   6.616   7.932  10.763  0.3348  1.8901  1.6851
10610SOL    HW238689   6.607   7.814  10.857 -1.4226 -0.5918 -1.3910
10611SOL     OW38690  12.163   1.906   7.454  0.4616 -0.0210  0.4551
10611SOL    HW138691  12.097   1.865   7.397 -0.8893  3.3845 -0.6895
10611SOL    HW238692  12.128   1.897   7.542 -0.6894  0.2346  0.0365
10612SOL     OW38693  10.782   6.781   5.791 -0.0459  0.3724 -0.3691
10612SOL    HW138694  10.861   6.830   5.812  0.1812  0.1479 -0.6793
10612SOL    HW238695  10.715   6.847   5.776  0.2968  0.5983 -0.9390
10613SOL     OW38696   9.424   9.044   0.030 -0.0821  0.3929 -0.0486
10613SOL    HW138697   9.511   9.057   0.067  0.2184 -0.7374 -0.3089
10613SOL    HW238698   9.366   9.041   0.106  0.3088 -0.2818  0.2325
10614SOL     OW38699   3.020   9.407   0.007  0.1148  0.7037 -0.0488
10614SOL    HW138700   2.983   9.492  -0.017 -2.5830 -0.5581 -0.7437
10614SOL    HW238701   3.011   9.403   0.102 -0.8371  0.7291 -0.1348
10615SOL     OW38702   9.474   0.166   4.533 -0.3469  0.1096 -0.0114
10615SOL    HW138703   9.415   0.209   4.470 -1.3425 -0.2514  0.6506
10615SOL    HW238704   9.417   0.107   4.583  0.7463 -0.9320  0.0467
10616SOL     OW38705   2.287  12.272  10.430  0.1501 -0.2564  0.5326
10616SOL    HW138706   2.336  12.256  10.350  0.9038 -1.0079  1.1281
10616SOL    HW238707   2.230  12.196  10.440 -0.4697  0.1728  0.3421
10617SOL     OW38708   4.878   0.037   5.653 -0.4731  0.2567  0.0104
10617SOL    HW138709   4.891  -0.054   5.682  0.8923  0.4326  0.0466
10617SOL    HW238710   4.825   0.029   5.574  0.7099 -0.7087 -0.7328
10618SOL     OW38711   3.710   0.338   4.985 -0.1631  0.1088 -0.3530
10618SOL    HW138712   3.781   0.358   5.046  0.6278 -1.0606 -0.8511
10618SOL    HW238713   3.632   0.374   5.027  0.8148  2.1529 -0.1692
10619SOL     OW38714   8.229   5.659   5.844  0.2955  0.0020  0.0100
10619SOL    HW138715   8.297   5.717   5.876 -0.5100  0.2017  1.3961
10619SOL    HW238716   8.188   5.622   5.922 -0.8557 -0.5137 -0.7929
10620SOL     OW38717   2.188   4.961   0.730  0.3991  1.3001  0.2677
10620SOL    HW138718   2.170   5.044   0.775  3.1480  2.9907 -1.4247
10620SOL    HW238719   2.183   4.983   0.637 -0.6692 -0.9749 -0.2801
10621SOL     OW38720   9.926   4.723  10.224 -0.0447 -0.1457  0.1441
10621SOL    HW138721   9.910   4.776  10.301  2.3331  0.0957  0.5523
10621SOL    HW238722   9.955   4.785  10.157 -2.2911 -0.3202 -1.0721
10622SOL     OW38723   9.277  12.562   4.600 -0.0265  0.0382  0.5379
10622SOL    HW138724   9.305  12.499   4.533  1.8730  0.4937  0.8498
10622SOL    HW238725   9.186  12.583   4.576  0.1510 -0.8524 -1.0840
10623SOL     OW38726  11.212  12.133   0.305 -0.1466 -0.1511  0.1938
10623SOL    HW138727  11.159  12.077   0.362  0.0490 -0.5802 -0.0355
10623SOL    HW238728  11.154  12.158   0.234  0.4186 -2.1294 -1.0560
10624SOL     OW38729   6.642   9.321  12.018  0.0469  0.6152  0.1115
10624SOL    HW138730   6.595   9.306  11.936 -0.5167 -0.5241  0.6235
10624SOL    HW238731   6.629   9.414  12.036 -2.1801  0.3152  0.3071
10625SOL     OW38732  12.037   8.268   1.630  0.3802  0.5058  0.6528
10625SOL    HW138733  11.943   8.251   1.634 -0.0691  2.4540 -0.3074
10625SOL    HW238734  12.066   8.223   1.551  0.5761 -1.2405  1.6643
10626SOL     OW38735   7.267   2.200   2.042 -0.4081  0.4590  0.5878
10626SOL    HW138736   7.362   2.204   2.054 -0.1894 -0.7159 -0.5288
10626SOL    HW238737   7.255   2.164   1.954 -1.8731 -2.6820  1.9089
10627SOL     OW38738   6.266   6.420   0.004 -0.0575 -0.3106 -0.8645
10627SOL    HW138739   6.223   6.486  -0.050 -1.1394 -1.0254 -0.9031
10627SOL    HW238740   6.207   6.408   0.079  0.7906 -0.2744 -0.1679
10628SOL     OW38741   9.574   4.568   2.040  0.1053  0.5230  0.9566
10628SOL    HW138742   9.625   4.573   1.960 -2.8262  1.7424 -1.0137
10628SOL    HW238743   9.545   4.658   2.056 -3.3875 -0.3325  0.4242
10629SOL     OW38744   8.119   4.868   4.653  0.4782 -0.3334 -0.1340
10629SOL    HW138745   8.136   4.929   4.725  0.1777  0.7900 -0.9794
10629SOL    HW238746   8.184   4.891   4.586 -0.0910 -0.4570 -0.7466
10630SOL     OW38747   6.421  10.276   7.436 -0.1733 -0.2827  0.7406
10630SOL    HW138748   6.437  10.197   7.385  1.7900 -0.3943  1.4342
10630SOL    HW238749   6.447  10.253   7.525 -0.0762  0.9830  1.0664
10631SOL     OW38750  10.189   9.757  12.120 -0.7710 -0.7474 -0.0880
10631SOL    HW138751  10.183   9.678  12.173 -0.3449 -0.5539  0.2520
10631SOL    HW238752  10.154   9.826  12.176 -0.5709 -0.5864 -0.1616
10632SOL     OW38753   4.960   4.393   7.314 -0.2946  0.7564 -0.4274
10632SOL    HW138754   4.973   4.452   7.240 -1.2507  0.3773 -0.9078
10632SOL    HW238755   4.892   4.434   7.367 -0.6039  0.3344 -0.4944
10633SOL     OW38756   3.650  11.081   4.949  0.0375 -0.7193 -0.5243
10633SOL    HW138757   3.698  11.013   4.997  0.6817  0.3780  0.4528
10633SOL    HW238758   3.601  11.033   4.882  2.1640 -1.9509 -1.3113
10634SOL     OW38759  10.163   1.752   0.168 -0.5213  0.4944  0.2783
10634SOL    HW138760  10.166   1.839   0.128 -0.0193 -0.1511 -1.1601
10634SOL    HW238761  10.224   1.756   0.241  2.0649  0.4558 -1.7385
10635SOL     OW38762   7.261   4.146  11.207 -0.2858  0.0700  0.3046
10635SOL    HW138763   7.187   4.092  11.236 -0.4794 -0.3403 -0.9065
10635SOL    HW238764   7.219   4.220  11.162  0.0318 -0.6493 -1.2289
10636SOL     OW38765   7.048   3.662   9.870 -0.1725  0.3568 -0.5063
10636SOL    HW138766   7.049   3.723   9.796 -0.7486  0.3074 -0.5615
10636SOL    HW238767   6.990   3.592   9.842  0.5723 -0.2831 -0.4851
10637SOL     OW38768  10.564   5.325   0.791  0.3371  0.0180  0.1282
10637SOL    HW138769  10.626   5.395   0.772  2.5773 -1.8225  0.2922
10637SOL    HW238770  10.506   5.362   0.858 -1.2604  3.0806 -2.6184
10638SOL     OW38771   4.663   2.689   8.260  0.2209 -0.2270  0.1690
10638SOL    HW138772   4.594   2.641   8.215  0.5736 -2.2618  1.6475
10638SOL    HW238773   4.744   2.650   8.229  0.7876  2.0049 -1.3964
10639SOL     OW38774  12.414   8.490  11.264 -0.1999  0.4523 -0.0833
10639SOL    HW138775  12.503   8.477  11.231 -0.3590  1.2461 -0.8614
10639SOL    HW238776  12.361   8.504  11.186 -0.8519  0.8864  0.4246
10640SOL     OW38777  11.335   7.937   5.656 -0.1947 -0.2470 -0.5522
10640SOL    HW138778  11.340   7.842   5.651  0.5196 -0.3456  1.1342
10640SOL    HW238779  11.424   7.965   5.679 -0.9587  0.5313  1.8564
10641SOL     OW38780   5.152   5.142   7.961 -0.2197 -0.4272 -0.1628
10641SOL    HW138781   5.197   5.075   7.910  1.1805  0.5545 -0.2737
10641SOL    HW238782   5.132   5.211   7.897 -0.0906  0.0190  0.2749
10642SOL     OW38783   8.167   2.903   3.625 -0.3584 -0.9086  0.4476
10642SOL    HW138784   8.191   2.909   3.718  1.1477 -1.1351  0.1081
10642SOL    HW238785   8.151   2.994   3.599  0.4731 -0.6937  0.6399
10643SOL     OW38786   0.427   8.480   0.728  0.2091 -0.1075 -0.2280
10643SOL    HW138787   0.349   8.470   0.674  0.7085 -0.0298 -0.9833
10643SOL    HW238788   0.417   8.566   0.770 -1.0108 -0.8904  1.2055
10644SOL     OW38789  12.159   8.888   4.952  0.3485  0.0816 -0.0758
10644SOL    HW138790  12.203   8.845   5.026  0.6384  1.2772  0.4747
10644SOL    HW238791  12.195   8.977   4.952 -0.5949  0.4712 -0.8725
10645SOL     OW38792   5.388   8.802   8.451  0.5073  0.1953  0.6575
10645SOL    HW138793   5.441   8.818   8.530  0.1826  0.1700  0.8847
10645SOL    HW238794   5.449   8.814   8.378  1.6446 -2.7941  0.9690
10646SOL     OW38795   3.479   5.078   3.001 -0.5060  0.0810  0.7801
10646SOL    HW138796   3.543   5.011   2.976 -0.6625 -0.5562  2.0117
10646SOL    HW238797   3.531   5.144   3.047 -0.2620  1.1171 -0.8976
10647SOL     OW38798   7.811   5.468   0.676 -0.2924 -0.2530  0.1710
10647SOL    HW138799   7.741   5.417   0.635 -1.8901 -0.6562  3.1378
10647SOL    HW238800   7.812   5.439   0.767  2.2272  1.4069  0.7824
10648SOL     OW38801  10.328   1.858   0.410  0.1769  0.3073 -0.5254
10648SOL    HW138802  10.257   1.922   0.413 -0.9448 -0.7817 -2.2037
10648SOL    HW238803  10.408   1.911   0.409 -0.6109  1.5842  0.5331
10649SOL     OW38804  10.532   9.867   4.447 -0.0645 -0.1221 -0.0309
10649SOL    HW138805  10.446   9.906   4.434 -0.8360 -2.1758 -1.9300
10649SOL    HW238806  10.566   9.854   4.358  0.9420 -1.8668  0.5467
10650SOL     OW38807   9.465   2.667   5.545 -0.4092 -0.2025 -0.0021
10650SOL    HW138808   9.456   2.574   5.524 -0.4971 -0.3399  0.6057
10650SOL    HW238809   9.433   2.713   5.468 -1.2464 -0.6838  0.0428
10651SOL     OW38810  12.574   0.099   3.350 -0.1845  0.3381  0.3675
10651SOL    HW138811  12.636   0.171   3.336 -1.1705  0.9879 -0.7837
10651SOL    HW238812  12.504   0.138   3.404 -0.2008 -0.0633  0.6432
10652SOL     OW38813   4.787   6.642   6.172  0.1125 -0.3615  0.5613
10652SOL    HW138814   4.855   6.700   6.205  0.9716 -0.9176 -0.1975
10652SOL    HW238815   4.786   6.657   6.078 -0.4660 -0.7332  0.5015
10653SOL     OW38816   2.169   5.797   0.370  0.1729  0.1949  0.3338
10653SOL    HW138817   2.163   5.881   0.324  0.0111  0.9172  1.6314
10653SOL    HW238818   2.184   5.733   0.300  0.7375  1.3475 -0.6439
10654SOL     OW38819  12.460   7.242   5.906 -0.4586  0.4366  0.2590
10654SOL    HW138820  12.373   7.271   5.931 -0.9040  1.4132 -2.1702
10654SOL    HW238821  12.445   7.167   5.848  0.2795  0.8190 -0.4540
10655SOL     OW38822   3.969   4.628   1.269  0.0933 -0.3221  0.1469
10655SOL    HW138823   4.064   4.628   1.257  0.2148  0.0549  1.0225
10655SOL    HW238824   3.952   4.554   1.328 -0.1268 -0.2516  0.1727
10656SOL     OW38825   2.243   0.273   4.941 -0.4824 -0.3074  0.0138
10656SOL    HW138826   2.189   0.352   4.949 -0.5002 -0.1608 -1.3151
10656SOL    HW238827   2.320   0.302   4.891  0.7760 -0.5576  1.6928
10657SOL     OW38828   4.475   1.364   3.495 -0.2401 -0.4613  0.2684
10657SOL    HW138829   4.500   1.273   3.479 -0.7440 -0.7474  1.0335
10657SOL    HW238830   4.387   1.371   3.460  0.3835  0.1858 -1.2378
10658SOL     OW38831  10.145   7.287   4.741 -0.4166  0.2960  0.1872
10658SOL    HW138832  10.200   7.211   4.761 -0.4277  0.6491  1.5951
10658SOL    HW238833  10.132   7.331   4.825 -1.6449  1.0347 -0.3638
10659SOL     OW38834   6.047   9.302   4.087 -0.0313  0.3027 -0.0118
10659SOL    HW138835   6.002   9.252   4.155  0.3573  2.4737  1.9965
10659SOL    HW238836   6.137   9.269   4.088  0.2348  0.9803  1.3257
10660SOL     OW38837   9.343   9.891  11.244  0.0727 -0.4445  0.0022
10660SOL    HW138838   9.397   9.942  11.304 -1.3964  2.3334 -0.8797
10660SOL    HW238839   9.346   9.802  11.279  2.0055  0.3763  2.1849
10661SOL     OW38840   5.835   7.356   1.581  0.3693 -0.0759  0.0418
10661SOL    HW138841   5.797   7.382   1.665  1.9923  1.7156  0.2896
10661SOL    HW238842   5.823   7.261   1.578 -0.3791 -0.0894  1.9667
10662SOL     OW38843   1.559   2.031   2.017 -0.4675  0.5563  0.1420
10662SOL    HW138844   1.601   2.111   1.987 -0.8081 -0.1519 -2.4666
10662SOL    HW238845   1.604   2.009   2.098  2.4077  1.2444 -1.1557
10663SOL     OW38846   2.718  12.489  10.919  0.1264 -0.5405 -0.2752
10663SOL    HW138847   2.791  12.457  10.972 -1.1590 -3.2136  0.0296
10663SOL    HW238848   2.757  12.558  10.864  2.5451 -0.9470  0.8052
10664SOL     OW38849  10.931  10.290   0.038 -0.5168  0.2848 -0.3406
10664SOL    HW138850  11.025  10.270   0.030 -0.4261  0.5146  0.0841
10664SOL    HW238851  10.914  10.283   0.132 -1.3313 -1.5353 -0.5775
10665SOL     OW38852   0.742   5.627  12.126 -0.5464  0.4049 -0.5697
10665SOL    HW138853   0.746   5.554  12.188  1.0212  0.7088 -0.2858
10665SOL    HW238854   0.666   5.678  12.154 -0.6097 -0.1547  0.3011
10666SOL     OW38855   7.572   7.427  12.480  0.3206  0.2636  0.0148
10666SOL    HW138856   7.515   7.366  12.526  1.0677 -2.1412 -2.0245
10666SOL    HW238857   7.645   7.442  12.540 -0.0728 -0.5341  0.7086
10667SOL     OW38858   1.739   2.817   6.739  0.1954  0.0416 -0.1557
10667SOL    HW138859   1.658   2.772   6.764 -0.4800  1.3132  0.0514
10667SOL    HW238860   1.710   2.888   6.682  1.3516 -0.4640 -1.4483
10668SOL     OW38861   7.737   1.096   2.309 -0.1648  0.2224  0.5009
10668SOL    HW138862   7.821   1.051   2.297  0.7925  2.1033 -0.3166
10668SOL    HW238863   7.680   1.060   2.241  0.7081  0.4857 -0.4026
10669SOL     OW38864   8.360   7.907   5.530  0.1230  0.0776  0.1722
10669SOL    HW138865   8.441   7.906   5.581 -1.1394 -0.5551  2.2725
10669SOL    HW238866   8.307   7.976   5.570 -1.2656 -1.0384  0.3299
10670SOL     OW38867   5.556   4.458   8.019 -0.4563 -0.4386 -0.0343
10670SOL    HW138868   5.518   4.415   8.096 -0.4604 -0.2780  0.0535
10670SOL    HW238869   5.481   4.497   7.974 -0.3216  0.5481  0.5538
10671SOL     OW38870   4.535   7.313   8.211  0.4276  0.1928  0.2107
10671SOL    HW138871   4.627   7.338   8.196  1.2229 -2.5470 -0.2003
10671SOL    HW238872   4.538   7.260   8.290 -0.2751 -2.0585 -1.1699
10672SOL     OW38873   2.883   7.762   5.844  0.2874 -0.1813  0.5652
10672SOL    HW138874   2.930   7.679   5.852 -0.5147 -0.5678  1.4524
10672SOL    HW238875   2.952   7.828   5.835  0.9275 -0.9765 -0.7179
10673SOL     OW38876   2.628   5.975  11.429 -0.8312 -0.3459 -0.0821
10673SOL    HW138877   2.636   5.929  11.512  0.0261  0.9482  0.5948
10673SOL    HW238878   2.603   6.064  11.454 -0.7951  0.0003 -1.2290
10674SOL     OW38879   8.204   1.973   4.842 -0.0887  0.8135  0.5346
10674SOL    HW138880   8.210   1.903   4.776  0.8743  2.1690 -0.8782
10674SOL    HW238881   8.264   1.946   4.911  0.4897  0.3608 -0.1264
10675SOL     OW38882   3.369   9.826   7.806 -0.1486 -0.3760 -0.3304
10675SOL    HW138883   3.396   9.760   7.742 -1.5011 -0.1692 -1.1642
10675SOL    HW238884   3.274   9.818   7.810 -0.4033  1.6758 -0.6752
10676SOL     OW38885   2.439   8.748   2.638 -0.4892 -0.4214 -0.3873
10676SOL    HW138886   2.440   8.659   2.602  1.9807  0.5141 -2.9915
10676SOL    HW238887   2.419   8.804   2.562  0.3533  1.3858  0.6566
10677SOL     OW38888   7.230   2.334   7.361  0.0651 -0.2959 -0.3438
10677SOL    HW138889   7.252   2.374   7.277  1.4580 -1.7736 -0.7475
10677SOL    HW238890   7.246   2.403   7.426  2.5006 -0.1434 -1.0034
10678SOL     OW38891   2.798  12.524   2.387 -0.0047  0.3662  0.8001
10678SOL    HW138892   2.789  12.438   2.346 -0.5186 -0.4150  2.4636
10678SOL    HW238893   2.783  12.587   2.315  2.8438 -0.8270 -1.0273
10679SOL     OW38894  12.209   3.829   7.597  0.6960  0.6726  0.4461
10679SOL    HW138895  12.190   3.782   7.679 -2.5629 -0.1997 -0.6482
10679SOL    HW238896  12.250   3.910   7.626  2.3708 -0.8378  2.7157
10680SOL     OW38897   2.786  10.477   5.477 -0.2451 -0.5387  0.3444
10680SOL    HW138898   2.708  10.530   5.495 -0.1847 -0.0376 -0.8014
10680SOL    HW238899   2.800  10.427   5.558 -1.5364 -0.3726  0.6870
10681SOL     OW38900   7.232   3.869   6.159 -0.3852 -0.0000  0.1946
10681SOL    HW138901   7.229   3.920   6.240  3.3673 -0.1680  0.6149
10681SOL    HW238902   7.313   3.897   6.116 -0.8991 -1.8409 -2.2059
10682SOL     OW38903   3.756   0.882   6.096 -0.1741 -0.0127  0.6000
10682SOL    HW138904   3.744   0.975   6.117 -1.6626 -0.4159  1.6688
10682SOL    HW238905   3.777   0.881   6.002 -2.2166  1.2832  0.0749
10683SOL     OW38906   6.479  11.725   3.558  0.0743  0.3173 -0.6276
10683SOL    HW138907   6.550  11.789   3.564  0.2102  0.0701  0.7243
10683SOL    HW238908   6.494  11.679   3.476  2.3141 -0.6941  0.2745
10684SOL     OW38909   1.671   6.531  11.426 -0.4162  0.1287 -0.1103
10684SOL    HW138910   1.702   6.618  11.397  1.9467 -0.4157  0.5275
10684SOL    HW238911   1.730   6.470  11.383 -1.5185 -1.1369  0.1316
10685SOL     OW38912   8.299  10.499   2.456 -0.7117 -0.0880 -0.0569
10685SOL    HW138913   8.327  10.490   2.365  0.3905  0.7926  0.1693
10685SOL    HW238914   8.209  10.532   2.450 -0.2690  1.0277 -0.8487
10686SOL     OW38915   0.359  10.634   0.001  0.3634  0.0116 -0.2557
10686SOL    HW138916   0.312  10.566  -0.048  1.4313 -1.5260  0.7319
10686SOL    HW238917   0.443  10.641  -0.042  0.2005  0.8527 -0.4465
10687SOL     OW38918   3.432   3.942   7.990 -0.6032 -0.4510  0.3960
10687SOL    HW138919   3.469   3.854   7.984  1.3323  0.4070 -1.6171
10687SOL    HW238920   3.432   3.975   7.900 -1.3354  1.5880  1.0738
10688SOL     OW38921   0.941   4.705   7.340  0.1318  1.0101 -0.2673
10688SOL    HW138922   0.970   4.793   7.361 -1.8234  1.7770 -0.5243
10688SOL    HW238923   0.927   4.663   7.425 -1.9593  2.0717 -0.0018
10689SOL     OW38924   8.649  12.141   5.197  0.3391  0.1175  0.1501
10689SOL    HW138925   8.630  12.176   5.110  1.1191 -1.5194 -0.7238
10689SOL    HW238926   8.567  12.150   5.245 -0.2335  0.6494 -0.8955
10690SOL     OW38927   0.278  10.006   4.527 -0.3261 -0.9996  0.5075
10690SOL    HW138928   0.299  10.083   4.580 -0.8847 -0.1865 -0.4086
10690SOL    HW238929   0.353   9.948   4.538  0.3722 -0.0770  0.7721
10691SOL     OW38930   0.051   7.752   9.908 -0.1821 -0.3172 -0.0202
10691SOL    HW138931  -0.036   7.756   9.948 -0.2293 -0.4766 -0.1039
10691SOL    HW238932   0.075   7.659   9.914 -0.9132 -0.6647 -1.8902
10692SOL     OW38933   7.405   7.101   5.104 -0.4051  0.2634  0.0798
10692SOL    HW138934   7.447   7.084   5.020  0.2046  1.0885  0.2049
10692SOL    HW238935   7.473   7.081   5.169 -0.6753  0.2096  0.3450
10693SOL     OW38936   6.187   3.489   5.000  0.5393  0.1021 -0.2033
10693SOL    HW138937   6.092   3.490   4.999  0.5254  0.8918  0.7038
10693SOL    HW238938   6.213   3.581   4.996  1.2458 -0.0578  0.3364
10694SOL     OW38939  10.612   5.364  11.730 -0.5338  0.2604 -0.2694
10694SOL    HW138940  10.696   5.362  11.683  0.5509 -1.8677  1.5549
10694SOL    HW238941  10.625   5.428  11.800 -0.1105 -0.5729  0.4444
10695SOL     OW38942   6.865   1.746   6.415  0.7692  0.3092 -0.1880
10695SOL    HW138943   6.791   1.786   6.370 -0.4972 -0.7153  0.8773
10695SOL    HW238944   6.859   1.653   6.393  0.0966 -0.2276  2.0228
10696SOL     OW38945   8.641   6.605   6.718 -0.6088  0.0260  0.2781
10696SOL    HW138946   8.694   6.624   6.795  1.3402 -0.6729 -0.8181
10696SOL    HW238947   8.704   6.572   6.654 -1.9380  1.7022 -2.0349
10697SOL     OW38948   4.206   0.439   5.545 -0.0184  0.1007 -0.0729
10697SOL    HW138949   4.211   0.350   5.580  0.3480  0.7158  1.5214
10697SOL    HW238950   4.295   0.473   5.554 -0.4095  1.0074  0.3942
10698SOL     OW38951   5.878   4.513   0.842 -0.3485  0.2155 -1.0696
10698SOL    HW138952   5.939   4.572   0.798 -0.2074  0.2773 -0.7922
10698SOL    HW238953   5.916   4.499   0.928 -1.3795  1.3071 -0.4074
10699SOL     OW38954   8.783   2.358   7.003 -0.3569  0.1655  0.3772
10699SOL    HW138955   8.689   2.350   7.014 -0.1980  0.5268  2.2599
10699SOL    HW238956   8.818   2.362   7.092  1.4916 -0.4935 -0.2622
10700SOL     OW38957   6.862   0.991   6.768 -0.9445 -0.5794 -0.2593
10700SOL    HW138958   6.794   0.925   6.754  0.3700 -1.7548 -1.3811
10700SOL    HW238959   6.839   1.062   6.708 -1.4660 -0.7165 -0.2291
10701SOL     OW38960   1.870   7.184   5.113 -0.1978  0.6618  0.0443
10701SOL    HW138961   1.812   7.117   5.149  0.7583  0.2389  0.8646
10701SOL    HW238962   1.818   7.264   5.114  0.1374  1.0632  3.9250
10702SOL     OW38963  11.954   8.637   1.668 -1.0476 -0.5712  0.4752
10702SOL    HW138964  11.896   8.707   1.697  0.9271  1.1098  0.6074
10702SOL    HW238965  12.032   8.646   1.723 -0.3980 -2.3588 -0.0765
10703SOL     OW38966   1.891   5.694   7.657  0.2493 -0.0413 -0.4513
10703SOL    HW138967   1.960   5.750   7.622  1.1635 -1.3904 -0.8638
10703SOL    HW238968   1.851   5.746   7.727  1.4433  0.8944 -0.4401
10704SOL     OW38969   3.193  11.239   9.162  0.0520 -0.1058 -0.4226
10704SOL    HW138970   3.158  11.303   9.100  0.5295 -1.1028 -1.7673
10704SOL    HW238971   3.162  11.154   9.129  0.8351 -0.7104  0.3422
10705SOL     OW38972  12.129   7.841   0.260 -0.0712  0.3419 -0.2241
10705SOL    HW138973  12.076   7.921   0.264  0.7818  0.8764  1.2095
10705SOL    HW238974  12.191   7.857   0.189 -1.2102  0.0871 -1.3008
10706SOL     OW38975   6.726   8.634   2.424  0.2227 -0.1265 -0.6370
10706SOL    HW138976   6.682   8.565   2.474  2.6555 -1.2666  0.1118
10706SOL    HW238977   6.717   8.712   2.477  0.5494 -0.7403  0.3552
10707SOL     OW38978   1.740   8.247  11.232  0.2242  0.1478  0.3201
10707SOL    HW138979   1.782   8.162  11.217 -1.4694 -0.9881  1.6492
10707SOL    HW238980   1.786   8.283  11.307 -0.6618 -0.7850  1.3443
10708SOL     OW38981   8.365   5.017  10.333  0.6260 -0.5839  0.0826
10708SOL    HW138982   8.423   5.057  10.268 -0.6094 -0.1646 -0.8124
10708SOL    HW238983   8.361   5.081  10.404  0.4161 -0.1062 -0.3487
10709SOL     OW38984   1.413  10.181   5.362 -0.3696 -0.3179  0.0064
10709SOL    HW138985   1.441  10.093   5.335  2.0666  0.2188  0.5287
10709SOL    HW238986   1.357  10.165   5.438 -0.9004 -1.4589 -0.5922
10710SOL     OW38987   0.746   8.812   6.152 -0.0493 -0.0462 -0.1590
10710SOL    HW138988   0.658   8.779   6.136  0.0141 -0.4232  0.2340
10710SOL    HW238989   0.733   8.894   6.201 -0.1725 -0.2570  0.1582
10711SOL     OW38990  10.474   8.361   4.551 -0.8098  0.2806 -0.0053
10711SOL    HW138991  10.498   8.390   4.639 -0.1014 -1.3491  0.3926
10711SOL    HW238992  10.485   8.266   4.554  0.7150  0.2972 -2.2782
10712SOL     OW38993   5.310   3.313   3.543  0.0602  0.3157 -0.6750
10712SOL    HW138994   5.404   3.311   3.523  0.4347  0.6317  0.9372
10712SOL    HW238995   5.298   3.392   3.595 -0.7549 -0.6866  0.7358
10713SOL     OW38996   3.755   9.027   7.386 -0.2783 -0.2348  0.5851
10713SOL    HW138997   3.840   8.996   7.418 -1.0245 -0.9582  1.9464
10713SOL    HW238998   3.745   8.983   7.301  0.5620 -0.3957  0.5527
10714SOL     OW38999   8.367  12.376   3.280  0.6401 -0.0261  0.0756
10714SOL    HW139000   8.341  12.310   3.215 -0.5755 -0.3901  0.8978
10714SOL    HW239001   8.458  12.354   3.301  0.2893 -1.4046  0.2711
10715SOL     OW39002   8.611   4.273   2.780 -0.7630 -0.2470 -0.2261
10715SOL    HW139003   8.635   4.217   2.706 -0.3839 -0.1775 -0.1537
10715SOL    HW239004   8.552   4.338   2.742  0.6207  0.7249 -0.7886
10716SOL     OW39005  10.435   5.175  10.104 -0.5263 -0.3150  0.4132
10716SOL    HW139006  10.414   5.082  10.099  0.2466 -0.4401 -0.8652
10716SOL    HW239007  10.515   5.179  10.157  0.1355 -0.5098 -0.5524
10717SOL     OW39008   8.499   1.297  10.963 -0.3738 -0.4770 -0.3617
10717SOL    HW139009   8.501   1.277  10.870 -0.5134 -0.9150 -0.2742
10717SOL    HW239010   8.406   1.294  10.986 -0.4581  0.7905 -0.4465
10718SOL     OW39011   1.150   3.266  10.246  0.0944  0.3223 -0.6100
10718SOL    HW139012   1.231   3.314  10.261  0.3523 -0.6462  1.3600
10718SOL    HW239013   1.081   3.332  10.255  0.5268  0.6360  0.4839
10719SOL     OW39014  11.662   5.621   6.135 -0.1079  0.0239 -0.0080
10719SOL    HW139015  11.573   5.651   6.114 -0.3541 -1.6722 -1.6524
10719SOL    HW239016  11.685   5.669   6.215 -1.5596  2.2800 -0.8440
10720SOL     OW39017   3.880   3.012   2.924 -0.1961  0.1220  0.4680
10720SOL    HW139018   3.820   3.086   2.933 -1.4688 -0.9999  1.6871
10720SOL    HW239019   3.826   2.935   2.940  1.4596 -0.9722  1.0694
10721SOL     OW39020   1.732   2.377   7.126 -0.4917  0.4306 -0.1191
10721SOL    HW139021   1.657   2.341   7.080  0.3218  1.1118 -2.0693
10721SOL    HW239022   1.761   2.305   7.184 -1.6605 -0.3848 -0.5119
10722SOL     OW39023   0.959  10.569   9.872  0.3794  0.4223 -0.3317
10722SOL    HW139024   0.991  10.638   9.929  0.1679 -1.6741  2.5418
10722SOL    HW239025   0.864  10.568   9.886  0.3175 -0.1310 -0.7442
10723SOL     OW39026   3.242   5.358   9.300  0.5662  0.8764  0.0692
10723SOL    HW139027   3.266   5.267   9.280  3.1710  1.2963  0.8632
10723SOL    HW239028   3.174   5.350   9.368 -0.4362 -0.4380 -1.0298
10724SOL     OW39029   4.402   3.933   0.576 -0.1975  0.8667  0.0041
10724SOL    HW139030   4.452   3.908   0.498  0.2909 -0.0284  0.5901
10724SOL    HW239031   4.349   3.857   0.598  0.3274  0.7781  1.0516
10725SOL     OW39032   3.383  12.147   2.653 -0.0986 -0.2018  0.2581
10725SOL    HW139033   3.472  12.172   2.628  0.0898 -1.5106 -0.4958
10725SOL    HW239034   3.383  12.150   2.748  1.0343 -1.0565  0.3045
10726SOL     OW39035   9.654   4.834   8.276 -0.1239 -0.1070  0.1321
10726SOL    HW139036   9.739   4.824   8.233 -0.5769  0.5076 -0.9444
10726SOL    HW239037   9.590   4.821   8.206 -0.8980  0.4382  0.7249
10727SOL     OW39038   9.945   5.487   2.187  0.1141 -0.4815 -0.3995
10727SOL    HW139039  10.012   5.553   2.201  0.0029 -0.1556 -1.3741
10727SOL    HW239040   9.929   5.452   2.275  2.1546 -1.1855 -0.2604
10728SOL     OW39041   5.128  12.204  11.323 -0.5141  0.7922  0.0645
10728SOL    HW139042   5.099  12.114  11.306  0.4799  0.1439  1.6126
10728SOL    HW239043   5.139  12.209  11.418 -0.7625  2.6343  0.0323
10729SOL     OW39044   8.611   7.813   0.722  0.0638  0.2299  0.0950
10729SOL    HW139045   8.697   7.775   0.705 -0.0796 -0.4175  0.7473
10729SOL    HW239046   8.568   7.750   0.779 -1.3773 -0.1404 -1.3283
10730SOL     OW39047   3.411   1.186   0.175  0.0174  0.3884  0.3933
10730SOL    HW139048   3.459   1.236   0.240  1.2490  1.7523 -1.4503
10730SOL    HW239049   3.336   1.240   0.153  0.2370  0.4837 -0.1382
10731SOL     OW39050   9.536  10.524   5.822  0.0830 -0.0522 -0.2669
10731SOL    HW139051   9.631  10.528   5.816  0.2570 -1.4079  1.0150
10731SOL    HW239052   9.506  10.548   5.734  1.6951 -1.5510 -1.3029
10732SOL     OW39053   0.220   7.882   0.759 -0.3052  0.2275 -1.0818
10732SOL    HW139054   0.291   7.946   0.749  0.7233 -0.5055  0.9138
10732SOL    HW239055   0.140   7.934   0.756  0.5151  1.7936  1.1866
10733SOL     OW39056  10.514   4.893   6.052  0.0493 -0.6832  0.9165
10733SOL    HW139057  10.427   4.858   6.068 -0.3725 -0.4483 -0.6773
10733SOL    HW239058  10.514   4.978   6.096 -0.9648 -0.1745  0.0071
10734SOL     OW39059   4.054  10.958   4.619  0.0149 -0.0614  0.0411
10734SOL    HW139060   4.121  10.981   4.684 -0.4165 -0.0383  0.4830
10734SOL    HW239061   4.079  10.871   4.589 -0.3359 -0.4869  0.9663
10735SOL     OW39062   1.853   5.497   3.152 -0.0337 -0.0236 -0.1587
10735SOL    HW139063   1.849   5.559   3.225 -0.3658 -0.4220  0.1651
10735SOL    HW239064   1.937   5.515   3.110  0.2652  0.0479  0.4642
10736SOL     OW39065   7.739   9.467   0.027  0.0098  0.3811  0.6626
10736SOL    HW139066   7.829   9.472  -0.005 -0.6974  1.6735 -1.2611
10736SOL    HW239067   7.704   9.388  -0.013  0.0511  0.2857  0.8118
10737SOL     OW39068   3.865  10.932   9.523  0.3652 -0.4407 -0.6141
10737SOL    HW139069   3.883  10.936   9.429 -0.4070  0.5981 -0.7365
10737SOL    HW239070   3.888  11.019   9.555  0.2182 -0.6584  0.0934
10738SOL     OW39071   1.526   6.836   2.404 -0.1993 -0.0396  0.4819
10738SOL    HW139072   1.524   6.853   2.498 -2.6019 -2.4212  0.9772
10738SOL    HW239073   1.538   6.741   2.396 -2.2938 -0.2285 -1.4953
10739SOL     OW39074   3.736   1.064  12.042 -0.1037  0.2366 -0.1656
10739SOL    HW139075   3.749   1.158  12.053  0.5144  0.1417 -0.0613
10739SOL    HW239076   3.762   1.025  12.125  0.5965 -0.1113 -0.5333
10740SOL     OW39077   6.249   7.546   3.948 -0.1535  0.2708 -0.5252
10740SOL    HW139078   6.170   7.540   3.894  0.1481 -1.1462 -0.8366
10740SOL    HW239079   6.319   7.563   3.886 -0.0274  0.2136 -0.3975
10741SOL     OW39080   8.829   7.485  12.273 -0.0612 -0.5856  0.1435
10741SOL    HW139081   8.773   7.412  12.247  2.1784 -2.3987  0.1155
10741SOL    HW239082   8.825   7.547  12.200 -1.7568 -0.7775  0.0443
10742SOL     OW39083   5.418  10.104   9.488  0.1545 -0.1117  0.6644
10742SOL    HW139084   5.346  10.045   9.507  0.3169 -0.2437  0.8768
10742SOL    HW239085   5.486  10.080   9.551  0.5521 -0.2922  0.1785
10743SOL     OW39086  11.911   0.574   1.130 -0.0879  0.0246  0.5205
10743SOL    HW139087  11.853   0.634   1.176 -1.1117  0.3218 -1.0661
10743SOL    HW239088  11.992   0.574   1.181 -0.2204  2.3949  0.8319
10744SOL     OW39089   4.198   9.691   1.741 -0.4264 -0.0840 -0.8075
10744SOL    HW139090   4.288   9.671   1.764 -1.2095 -2.1095  0.8767
10744SOL    HW239091   4.175   9.767   1.794 -0.5561 -1.4035  1.1291
10745SOL     OW39092   1.527   7.627   8.183  0.2512 -0.0219  0.3497
10745SOL    HW139093   1.560   7.648   8.096 -0.3752 -0.7336 -0.0676
10745SOL    HW239094   1.519   7.712   8.227  0.9036  0.3066 -0.1626
10746SOL     OW39095   6.313   5.013   0.533  0.0717 -0.2864  0.1915
10746SOL    HW139096   6.348   4.940   0.584 -0.5495 -0.8674 -0.1994
10746SOL    HW239097   6.232   5.036   0.577  1.5753  2.0586  2.0107
10747SOL     OW39098   5.485   1.286   5.604 -0.5446  0.4438 -0.3138
10747SOL    HW139099   5.467   1.211   5.548  1.2673  0.3674 -0.8413
10747SOL    HW239100   5.514   1.248   5.687  1.5033  0.4965 -0.9539
10748SOL     OW39101   3.853   8.221   4.788  0.4706 -0.2645  0.1771
10748SOL    HW139102   3.917   8.165   4.745 -0.4691 -0.9905 -0.3330
10748SOL    HW239103   3.893   8.308   4.787  1.2182 -0.5956 -0.6073
10749SOL     OW39104   1.575   0.626   8.967  0.2377  0.1113 -0.2722
10749SOL    HW139105   1.524   0.637   9.047 -1.2255 -1.8756 -0.8362
10749SOL    HW239106   1.517   0.660   8.898  0.9702  0.6501 -0.6367
10750SOL     OW39107  11.533   2.459   9.081 -0.8853  0.0735  0.5339
10750SOL    HW139108  11.462   2.441   9.019 -0.8459 -1.1820  0.8286
10750SOL    HW239109  11.510   2.411   9.160  1.4686 -2.5429 -0.1840
10751SOL     OW39110   1.275   1.520   6.099 -0.3594  0.3715  0.5572
10751SOL    HW139111   1.342   1.552   6.038  1.1010 -1.7470  0.9645
10751SOL    HW239112   1.267   1.427   6.080 -0.9406 -0.0474  2.6205
10752SOL     OW39113  11.723   4.450   2.369 -0.0543 -0.0362  0.0428
10752SOL    HW139114  11.674   4.407   2.440 -0.6307 -0.7643 -0.7830
10752SOL    HW239115  11.668   4.525   2.345 -0.5826 -0.6250 -0.6133
10753SOL     OW39116  11.040   9.178  12.285  0.2609 -0.2681  0.5572
10753SOL    HW139117  11.004   9.094  12.313  1.1657 -1.0540 -0.5656
10753SOL    HW239118  11.058   9.225  12.367 -0.4293 -1.0875  1.1906
10754SOL     OW39119   2.774   7.648   0.066 -0.0375  0.5279 -0.2773
10754SOL    HW139120   2.755   7.699  -0.012 -1.9917  0.9784  0.4159
10754SOL    HW239121   2.838   7.582   0.038  1.3356  2.3372 -1.5618
10755SOL     OW39122  10.341   0.185   2.896  0.9389 -0.4622 -0.1979
10755SOL    HW139123  10.371   0.243   2.966  0.6689 -0.2246 -0.2780
10755SOL    HW239124  10.402   0.200   2.824  0.0536  0.7562 -0.7167
10756SOL     OW39125   9.460   3.647   9.976  0.3841 -0.2518 -0.0415
10756SOL    HW139126   9.489   3.604   9.895 -0.8454  0.6851 -1.0269
10756SOL    HW239127   9.527   3.713   9.994  0.1483  0.2432 -0.9091
10757SOL     OW39128   2.666   2.358   1.664  0.1909 -0.0649  0.2956
10757SOL    HW139129   2.689   2.445   1.695  0.3259  0.0703 -0.1749
10757SOL    HW239130   2.571   2.355   1.665  0.1908  0.0013  0.5394
10758SOL     OW39131   8.622   9.014   0.803  0.0540 -0.0671 -0.0548
10758SOL    HW139132   8.663   9.064   0.733  1.0218  1.6849  1.6484
10758SOL    HW239133   8.695   8.966   0.844  0.1853  1.5917  1.8105
10759SOL     OW39134   5.982  11.841   3.286  0.1338 -0.1208  0.3391
10759SOL    HW139135   6.058  11.837   3.229 -1.0754 -1.7765 -1.2602
10759SOL    HW239136   5.912  11.877   3.231 -1.3266 -2.6935  0.3621
10760SOL     OW39137   0.745   8.781   4.548  0.5166 -0.6712 -0.1474
10760SOL    HW139138   0.667   8.733   4.520 -0.0512 -0.4185  0.9334
10760SOL    HW239139   0.731   8.870   4.516  0.0933 -0.4984  0.4874
10761SOL     OW39140   9.176   0.667   6.874 -0.2380 -0.3828 -0.0763
10761SOL    HW139141   9.097   0.620   6.848 -1.3555 -0.2522  2.7267
10761SOL    HW239142   9.230   0.601   6.916 -1.0242  0.3673  2.2605
10762SOL     OW39143   3.348   0.507   8.921  0.5338  0.3314  0.1474
10762SOL    HW139144   3.289   0.489   8.994 -0.5685 -0.1094 -0.8216
10762SOL    HW239145   3.318   0.590   8.885  0.4605  0.0882 -0.3744
10763SOL     OW39146   7.464   1.629   5.423 -0.5025  0.2370  0.7239
10763SOL    HW139147   7.484   1.542   5.458  0.8134  0.5731  0.8708
10763SOL    HW239148   7.420   1.674   5.495 -2.4809 -0.7322  0.1841
10764SOL     OW39149   1.180   3.960  11.601 -0.0158  0.1391 -1.0427
10764SOL    HW139150   1.208   3.968  11.510 -0.1126  1.0380 -1.0020
10764SOL    HW239151   1.217   3.877  11.630  1.2219  0.5187 -1.4776
10765SOL     OW39152   7.674  11.353  12.479 -0.0456  0.4524 -0.4763
10765SOL    HW139153   7.665  11.413  12.553  0.9320 -1.8888  1.6871
10765SOL    HW239154   7.589  11.307  12.476 -0.8303  1.8959 -2.1890
10766SOL     OW39155   7.691   7.806   7.542  0.3952  0.1418 -0.7429
10766SOL    HW139156   7.742   7.740   7.495  0.8782 -0.6926  0.8665
10766SOL    HW239157   7.636   7.846   7.475  1.4804 -0.5484 -2.1113
10767SOL     OW39158   8.096   1.233   0.700 -0.2614 -0.6458 -0.3295
10767SOL    HW139159   8.104   1.311   0.646  1.6847 -0.2924  0.3899
10767SOL    HW239160   8.183   1.193   0.697 -0.3840 -1.1638  1.6776
10768SOL     OW39161   4.272   5.842   6.793  0.0697  0.1158 -0.4711
10768SOL    HW139162   4.306   5.891   6.868 -0.9457 -0.4280  0.3737
10768SOL    HW239163   4.208   5.900   6.753 -0.3277 -0.0958 -0.1398
10769SOL     OW39164  11.067   3.101   9.873 -0.1869  0.2644  0.3347
10769SOL    HW139165  11.130   3.085   9.944 -1.9181 -0.6353  1.7231
10769SOL    HW239166  10.987   3.129   9.917 -0.3899  2.8789 -1.4811
10770SOL     OW39167   4.027   6.351   1.212 -0.0230 -0.6921 -0.1169
10770SOL    HW139168   4.031   6.422   1.276  0.4745 -0.4307 -0.4283
10770SOL    HW239169   4.056   6.274   1.260 -1.9194 -0.9908  0.6161
10771SOL     OW39170   7.708   0.348   8.214 -0.3294 -0.0061 -0.1820
10771SOL    HW139171   7.780   0.286   8.203  0.3073  0.6303  0.3760
10771SOL    HW239172   7.750   0.431   8.234 -1.2245  0.1850  1.0514
10772SOL     OW39173   1.113   9.612  10.156 -0.3683 -0.5757  0.2511
10772SOL    HW139174   1.112   9.708  10.155 -0.0331 -0.5250 -1.9837
10772SOL    HW239175   1.203   9.588  10.133  0.2428 -1.5342  3.2113
10773SOL     OW39176   2.341   0.385  10.309  0.2073 -0.2858  0.2909
10773SOL    HW139177   2.367   0.313  10.251  1.6450 -1.9616  2.8311
10773SOL    HW239178   2.421   0.408  10.357 -0.3470  2.6666  0.0306
10774SOL     OW39179   4.534   2.941   8.132  0.1919  0.5139  0.2336
10774SOL    HW139180   4.549   2.897   8.049  0.7652 -1.4347  1.3245
10774SOL    HW239181   4.551   3.034   8.113 -2.1021  0.5243 -2.3809
10775SOL     OW39182  10.694   1.103   7.906  0.0561  0.1223  0.0625
10775SOL    HW139183  10.696   1.129   7.999  0.5250  0.7671 -0.1202
10775SOL    HW239184  10.601   1.098   7.885 -0.0551  0.1599  0.5208
10776SOL     OW39185   6.428   4.111   8.925  0.1194  0.5708 -0.1715
10776SOL    HW139186   6.333   4.113   8.910  0.2104  1.4556 -0.7252
10776SOL    HW239187   6.442   4.034   8.980 -0.7056 -0.7270 -1.6749
10777SOL     OW39188   5.522  12.291  10.828  0.0014 -0.2182  0.4654
10777SOL    HW139189   5.469  12.362  10.794  0.3091 -0.0275  0.3813
10777SOL    HW239190   5.472  12.257  10.902 -0.2352 -0.0399  0.3879
10778SOL     OW39191   7.436   1.804   8.251 -0.2116  0.0130  0.3933
10778SOL    HW139192   7.368   1.746   8.219 -0.5351 -0.9594  2.6745
10778SOL    HW239193   7.473   1.843   8.172 -3.6020  0.8654 -0.9420
10779SOL     OW39194  10.992  11.411   3.239  0.1161 -0.3032  0.0745
10779SOL    HW139195  11.049  11.405   3.162 -0.6633 -0.7735 -0.4844
10779SOL    HW239196  10.938  11.332   3.234 -2.0645  1.1560 -0.6094
10780SOL     OW39197   6.603   5.105   4.419 -0.7936  0.0428 -0.4016
10780SOL    HW139198   6.660   5.129   4.346 -0.3377  0.2035  0.0001
10780SOL    HW239199   6.662   5.061   4.481 -1.1430  0.0652 -0.0518
10781SOL     OW39200   0.846  10.629   4.069  0.5957 -0.0823 -0.1296
10781SOL    HW139201   0.795  10.625   4.150 -2.6179 -0.6075 -2.0236
10781SOL    HW239202   0.889  10.544   4.064  0.6890 -0.1181  0.8805
10782SOL     OW39203   1.993   9.806   0.407 -0.6427 -0.8663  0.0588
10782SOL    HW139204   1.969   9.765   0.490 -1.3248 -0.7412 -0.0770
10782SOL    HW239205   1.950   9.891   0.409 -1.7762 -1.3860 -0.9953
10783SOL     OW39206   1.225  10.413   9.865  0.1284  0.0159 -0.3530
10783SOL    HW139207   1.274  10.488   9.833 -0.5316  0.3785 -0.5251
10783SOL    HW239208   1.134  10.435   9.849  0.0011 -1.7371 -2.4389
10784SOL     OW39209   1.695   5.883   8.567  0.1531  0.8332  0.8581
10784SOL    HW139210   1.616   5.936   8.576 -1.4614 -1.4835  1.3073
10784SOL    HW239211   1.708   5.844   8.653  2.0061  1.3698  0.8756
10785SOL     OW39212   7.545   3.813   3.551  0.2807  0.1639  0.1869
10785SOL    HW139213   7.551   3.907   3.536 -0.1758  0.3533  1.1325
10785SOL    HW239214   7.585   3.799   3.637 -0.0981 -0.4379  0.2754
10786SOL     OW39215   3.335   3.011   7.174 -0.7225 -0.0770  0.2035
10786SOL    HW139216   3.318   3.051   7.089 -0.1482  0.4025  0.3100
10786SOL    HW239217   3.401   2.944   7.157 -1.0075 -0.3575  0.1844
10787SOL     OW39218   4.283   0.532   2.541  0.2654  0.0595  0.1954
10787SOL    HW139219   4.243   0.468   2.484 -1.4872 -0.1086  1.5308
10787SOL    HW239220   4.239   0.615   2.520 -0.5404 -0.0389  1.3668
10788SOL     OW39221   4.686  10.604  10.761 -0.1924 -0.2052  0.0092
10788SOL    HW139222   4.736  10.638  10.686  0.5829  0.1286  0.6666
10788SOL    HW239223   4.721  10.516  10.774  0.4693  0.1487  0.6763
10789SOL     OW39224   2.519   9.013   1.893  0.1502  0.5371  0.1701
10789SOL    HW139225   2.432   9.053   1.892  0.5767  1.5065  0.4512
10789SOL    HW239226   2.551   9.027   1.982  1.0785  1.2950 -0.2608
10790SOL     OW39227   2.257   4.080  12.485  0.0037  0.0069 -0.1301
10790SOL    HW139228   2.316   4.140  12.440 -0.3027  0.1414 -0.3581
10790SOL    HW239229   2.237   4.122  12.568 -0.9985  0.7054 -0.7001
10791SOL     OW39230   7.737   2.632   5.243 -0.1108  0.6521 -0.4294
10791SOL    HW139231   7.795   2.708   5.247  0.5390  0.2817 -1.9887
10791SOL    HW239232   7.688   2.634   5.325 -0.0931  2.7283 -0.4388
10792SOL     OW39233   1.401  11.972   0.396 -0.3114  0.3136 -0.5754
10792SOL    HW139234   1.415  11.957   0.302  1.0547  3.2599 -0.9442
10792SOL    HW239235   1.489  11.972   0.434 -0.8847 -1.6644  0.9474
10793SOL     OW39236  11.961   6.559   4.039 -0.4892  0.2013  0.0689
10793SOL    HW139237  11.906   6.635   4.053 -0.9467  0.4091 -2.4248
10793SOL    HW239238  11.940   6.530   3.950  2.2656 -0.6572 -0.4023
10794SOL     OW39239   1.338  10.360   4.772 -0.8715 -0.0524  0.0496
10794SOL    HW139240   1.392  10.373   4.850  2.2131 -0.3818 -1.8435
10794SOL    HW239241   1.329  10.264   4.765 -0.5287 -0.0579 -0.3563
10795SOL     OW39242   1.515   6.932   4.516  0.3453  0.1806  0.4945
10795SOL    HW139243   1.555   6.861   4.566  0.7884 -1.3359 -1.8396
10795SOL    HW239244   1.443   6.963   4.572  0.2414 -1.9904  1.6841
10796SOL     OW39245  11.097   9.168   6.277  0.1209 -0.0862  0.3281
10796SOL    HW139246  11.079   9.233   6.345  1.3002  0.3988  0.2061
10796SOL    HW239247  11.093   9.084   6.322  1.4561  0.2625  1.1482
10797SOL     OW39248  10.880   2.091   9.675 -0.4048 -0.0561 -0.2477
10797SOL    HW139249  10.874   2.155   9.746  1.5439 -0.1433  0.0557
10797SOL    HW239250  10.790   2.082   9.642 -1.0068  1.4740  0.8850
10798SOL     OW39251   9.752   0.004   9.363  0.4468  0.1185 -0.0272
10798SOL    HW139252   9.714  -0.066   9.416  0.9677  0.6658  1.1053
10798SOL    HW239253   9.844  -0.020   9.354 -0.1278 -1.4206 -3.1134
10799SOL     OW39254   3.823   6.728   8.147 -0.3396 -0.1366 -0.3707
10799SOL    HW139255   3.830   6.640   8.110  0.7824 -0.4154  0.4623
10799SOL    HW239256   3.912   6.761   8.149 -0.4687  0.2263  1.1888
10800SOL     OW39257   5.551  11.705   3.114  0.6859  0.6143 -0.0421
10800SOL    HW139258   5.617  11.773   3.101  1.1053 -0.1326 -2.2784
10800SOL    HW239259   5.593  11.642   3.172  1.4531  0.8007 -0.3778
10801SOL     OW39260   3.002   8.875   7.978  0.5421 -0.5677 -0.3939
10801SOL    HW139261   2.954   8.933   8.037  0.8670  0.2487 -0.9152
10801SOL    HW239262   3.090   8.869   8.016  1.1165  0.9236 -1.3934
10802SOL     OW39263   7.027  10.121  10.008 -0.1444 -0.1399  0.1235
10802SOL    HW139264   7.046  10.161  10.093 -1.1234  0.4411  0.0795
10802SOL    HW239265   7.098  10.149   9.951  0.2584 -0.1377  0.6192
10803SOL     OW39266   6.606   4.121   7.873  0.8563  0.1714 -0.1936
10803SOL    HW139267   6.677   4.102   7.934 -0.2866 -1.0220  0.8331
10803SOL    HW239268   6.546   4.047   7.882 -0.2454  0.8645 -1.4413
10804SOL     OW39269  12.189   2.188   7.560  0.4847 -0.0317 -0.4331
10804SOL    HW139270  12.232   2.200   7.644  0.5543  2.6419 -0.7668
10804SOL    HW239271  12.215   2.101   7.532 -0.1429 -1.3207  2.6050
10805SOL     OW39272   5.980   5.208   0.849  0.0968  0.0038  0.6937
10805SOL    HW139273   5.958   5.268   0.921 -1.4603 -0.5406  0.6999
10805SOL    HW239274   6.041   5.258   0.794 -0.6493  1.3536  1.0434
10806SOL     OW39275   1.242   1.547   6.961 -0.9845  0.5871  0.3334
10806SOL    HW139276   1.159   1.571   6.919 -0.7262  0.0850 -0.4955
10806SOL    HW239277   1.228   1.456   6.990 -0.7646  0.5363  0.2810
10807SOL     OW39278   5.538  11.742   8.934 -0.2246  0.7223  0.0733
10807SOL    HW139279   5.477  11.809   8.965 -2.7318 -1.3603 -0.0236
10807SOL    HW239280   5.486  11.662   8.928  2.7682 -1.4721  0.8543
10808SOL     OW39281   4.447   5.232   2.178 -0.0594 -0.2498 -0.0768
10808SOL    HW139282   4.537   5.225   2.147  0.4574  1.2657  0.9217
10808SOL    HW239283   4.424   5.144   2.205  2.3257 -0.2021  2.6845
10809SOL     OW39284   3.378   1.627   8.233 -0.0080  0.4045  0.0666
10809SOL    HW139285   3.351   1.558   8.173 -0.6542  0.7780 -0.0807
10809SOL    HW239286   3.420   1.693   8.177 -0.9596  0.9326 -0.0389
10810SOL     OW39287   6.100  10.682   6.287  0.0704 -0.0818  0.4856
10810SOL    HW139288   6.041  10.656   6.216  1.6903 -1.7861 -0.3087
10810SOL    HW239289   6.043  10.688   6.364 -0.9776 -3.0266  0.0530
10811SOL     OW39290   0.565   8.264   0.846 -0.1131  0.6204  0.1876
10811SOL    HW139291   0.509   8.330   0.806  0.6176  1.6455  0.7991
10811SOL    HW239292   0.652   8.279   0.809  0.3646  0.9558  1.3786
10812SOL     OW39293   8.101  10.167   6.651 -0.3116 -0.3397  0.1740
10812SOL    HW139294   8.167  10.173   6.581 -0.1502  0.0369  0.3524
10812SOL    HW239295   8.092  10.074   6.667  0.7454 -0.3725  0.6745
10813SOL     OW39296   6.446   5.385   0.304 -0.0199  0.3544 -0.2491
10813SOL    HW139297   6.531   5.347   0.282  0.4303  0.9747  0.3779
10813SOL    HW239298   6.383   5.314   0.290  0.8750 -0.8762  1.6811
10814SOL     OW39299   0.161  11.958   9.163  0.2472 -0.0437 -0.1537
10814SOL    HW139300   0.231  11.950   9.227 -0.2426  2.7680  0.8689
10814SOL    HW239301   0.080  11.950   9.214 -0.1871 -0.8384 -0.9344
10815SOL     OW39302   7.429   4.151  10.453  0.2036  0.5725 -0.2236
10815SOL    HW139303   7.477   4.193  10.381  1.2580 -0.2710 -0.0479
10815SOL    HW239304   7.380   4.081  10.411 -1.3144  1.7297 -0.4735
10816SOL     OW39305   9.080   7.603  12.032  0.4800 -0.0875  0.1804
10816SOL    HW139306   9.151   7.659  12.001 -1.4496  1.1486 -2.3089
10816SOL    HW239307   9.071   7.536  11.965  0.1756 -1.0673  1.1731
10817SOL     OW39308   1.549   7.499   7.085  0.1850 -0.3063  0.5728
10817SOL    HW139309   1.505   7.414   7.093  1.0755 -0.9295 -0.7313
10817SOL    HW239310   1.639   7.482   7.114 -0.1787  0.8043  2.6143
10818SOL     OW39311   3.562  11.738   6.831 -0.4755  0.2614  0.0229
10818SOL    HW139312   3.535  11.667   6.889  1.8389  0.8741  1.9989
10818SOL    HW239313   3.638  11.704   6.785 -2.0009 -0.0445 -2.4820
10819SOL     OW39314  12.381   9.250   8.488  0.2814 -0.7791  0.1656
10819SOL    HW139315  12.313   9.253   8.421 -0.0897 -0.8972  0.5317
10819SOL    HW239316  12.342   9.295   8.563  1.0238  0.1622  0.0115
10820SOL     OW39317   3.921   5.569   4.795  0.3759 -0.1387 -0.4761
10820SOL    HW139318   3.871   5.610   4.865 -0.8954 -0.2527 -1.2783
10820SOL    HW239319   3.877   5.598   4.715  0.0736 -2.2107 -1.1154
10821SOL     OW39320   3.327  12.557   9.662 -0.0106  0.2145 -0.0217
10821SOL    HW139321   3.261  12.625   9.650  0.2566  0.5222  0.2309
10821SOL    HW239322   3.287  12.494   9.722 -0.2193  0.1951 -0.1797
10822SOL     OW39323   8.721  10.183   4.673  0.2812 -0.2547  0.2797
10822SOL    HW139324   8.673  10.102   4.655 -0.7580  0.2356  0.7567
10822SOL    HW239325   8.698  10.205   4.763  0.2209  0.7870  0.0270
10823SOL     OW39326  10.106   5.581   9.960  0.7030  0.0460 -0.0339
10823SOL    HW139327  10.040   5.569  10.028 -1.4461 -0.1501 -2.0220
10823SOL    HW239328  10.153   5.498   9.958  1.5513  0.4244  1.8722
10824SOL     OW39329  11.736   9.131  10.810 -0.1790 -0.5597  0.4440
10824SOL    HW139330  11.770   9.061  10.864  0.8608 -0.2282  0.2532
10824SOL    HW239331  11.781   9.121  10.726  0.4447  0.6590  0.5984
10825SOL     OW39332   0.234   8.380   2.273 -0.1625  0.4193  0.3194
10825SOL    HW139333   0.295   8.308   2.257 -0.7965  0.3808 -2.4202
10825SOL    HW239334   0.291   8.456   2.290  0.5686 -0.1307  0.3836
10826SOL     OW39335   7.554   9.535   3.069 -0.6618 -0.1909 -0.2351
10826SOL    HW139336   7.564   9.630   3.066 -0.0490 -0.2690 -0.8600
10826SOL    HW239337   7.638   9.501   3.039 -0.8313 -0.9333  0.1093
10827SOL     OW39338  11.774   8.939  12.168 -0.0900 -0.1309  0.4436
10827SOL    HW139339  11.697   8.992  12.189  0.3497  1.0116 -0.6623
10827SOL    HW239340  11.825   8.938  12.249 -0.8160 -0.0981  0.9097
10828SOL     OW39341   7.958   1.485   2.752 -0.0892 -0.1963 -0.0555
10828SOL    HW139342   7.909   1.426   2.810 -0.7261 -1.3482 -1.7145
10828SOL    HW239343   7.913   1.569   2.762 -1.5156 -0.8750 -0.4214
10829SOL     OW39344  10.189   3.811   7.721  0.6371  0.0437 -0.1523
10829SOL    HW139345  10.144   3.823   7.805  2.0811 -1.6207  0.9514
10829SOL    HW239346  10.227   3.897   7.701  0.5418  0.4016  1.0944
10830SOL     OW39347   9.680   0.656   4.211 -0.1833  0.4570  0.1875
10830SOL    HW139348   9.700   0.746   4.187  1.1181  0.3046  0.6192
10830SOL    HW239349   9.685   0.608   4.128  0.3695  0.5751  0.1505
10831SOL     OW39350   9.999   5.840   1.934  0.4737  0.1149 -0.1410
10831SOL    HW139351   9.928   5.786   1.970  3.4360 -3.0652  1.4706
10831SOL    HW239352  10.025   5.896   2.006 -0.4512  1.4888 -0.8213
10832SOL     OW39353   6.755  10.698   1.509  0.7530 -0.1132 -0.1386
10832SOL    HW139354   6.667  10.735   1.510  0.1582 -1.4721  0.2713
10832SOL    HW239355   6.780  10.698   1.417  0.8143  1.3352 -0.1502
10833SOL     OW39356   4.003  11.254   3.597 -0.5918 -0.5957 -0.1782
10833SOL    HW139357   4.092  11.244   3.563 -0.2527 -2.4179  1.1165
10833SOL    HW239358   4.014  11.253   3.692 -2.0545 -1.6904  0.0086
10834SOL     OW39359   7.917   5.998   3.456  0.0249  0.9472 -0.3197
10834SOL    HW139360   7.970   5.919   3.444  0.6907  1.5866 -1.9430
10834SOL    HW239361   7.898   6.028   3.366 -2.0705  1.4301  0.2208
10835SOL     OW39362   1.502   3.314   6.735 -0.1979 -0.1291 -0.1788
10835SOL    HW139363   1.549   3.397   6.735 -2.6301  1.3463  0.7138
10835SOL    HW239364   1.432   3.326   6.798 -1.5893 -2.3165 -1.1898
10836SOL     OW39365   5.702   4.946   8.193  0.0676 -0.1909  0.2102
10836SOL    HW139366   5.620   4.896   8.190 -0.0457 -0.0132  0.3441
10836SOL    HW239367   5.758   4.902   8.130 -0.2606 -0.0893 -0.1579
10837SOL     OW39368   2.522   1.051  11.155  0.8158 -0.1748  0.3828
10837SOL    HW139369   2.526   1.008  11.240  0.9202  0.3294  0.6407
10837SOL    HW239370   2.592   1.116  11.158  0.9318 -0.2729 -0.1559
10838SOL     OW39371   0.673   1.764   2.893  0.2897 -0.2075  0.3866
10838SOL    HW139372   0.726   1.689   2.866 -0.8054 -1.2250  0.9840
10838SOL    HW239373   0.648   1.744   2.983 -1.3963  0.0569  0.0098
10839SOL     OW39374   0.052   9.967   8.214  0.1104  0.4933  0.4333
10839SOL    HW139375  -0.006  10.017   8.271  1.9928  1.7482  1.3416
10839SOL    HW239376   0.005   9.962   8.131 -1.5599  0.8854  1.3146
10840SOL     OW39377   8.649   0.165   8.248  0.1515 -0.5897  0.1206
10840SOL    HW139378   8.702   0.104   8.300 -1.6283 -0.9482  1.6250
10840SOL    HW239379   8.569   0.117   8.228  0.0762  0.1570 -1.5271
10841SOL     OW39380   6.110  12.453   7.417  0.2338 -0.7128  0.2013
10841SOL    HW139381   6.200  12.483   7.429 -0.3947  1.0743  0.7267
10841SOL    HW239382   6.058  12.513   7.469 -1.4411 -0.5282 -1.5695
10842SOL     OW39383   3.773   0.151  10.739 -0.7625  0.0880 -0.0225
10842SOL    HW139384   3.781   0.233  10.787 -0.9227  0.3108 -0.3711
10842SOL    HW239385   3.824   0.164  10.659  1.4990 -1.1286  1.1424
10843SOL     OW39386   2.383   0.885   1.147  0.0132 -0.0121  0.1998
10843SOL    HW139387   2.412   0.976   1.149  0.2377 -0.1005  1.4381
10843SOL    HW239388   2.346   0.869   1.233 -1.5210 -0.6324 -0.5302
10844SOL     OW39389   3.857  10.318   0.255 -0.9399 -0.3062 -0.0688
10844SOL    HW139390   3.915  10.389   0.231 -0.4632 -0.1291  1.5098
10844SOL    HW239391   3.886  10.291   0.342 -1.2621 -2.2710 -0.5182
10845SOL     OW39392   1.401   9.266   8.226  0.1770 -0.2623 -0.0190
10845SOL    HW139393   1.467   9.317   8.180 -0.7978  1.3929  0.3437
10845SOL    HW239394   1.318   9.310   8.207 -0.6223 -1.2884  0.9034
10846SOL     OW39395   2.461   8.979   7.370 -0.1264 -0.2304  0.0594
10846SOL    HW139396   2.451   9.052   7.308  0.3922  0.5436  0.8688
10846SOL    HW239397   2.375   8.936   7.370 -0.4441  0.3883 -0.4059
10847SOL     OW39398   0.882   5.909  10.760  0.7866 -0.0958  0.7348
10847SOL    HW139399   0.879   5.858  10.841  1.6201 -0.4695  0.5398
10847SOL    HW239400   0.955   5.970  10.773 -0.9347  1.9746  1.4770
10848SOL     OW39401  11.829   2.499   7.385  0.2110 -0.4959 -0.4976
10848SOL    HW139402  11.810   2.593   7.387 -2.9361 -1.0312  1.0373
10848SOL    HW239403  11.909   2.490   7.437 -1.6361  1.0709  2.9540
10849SOL     OW39404  10.964   3.580   7.645 -0.7031 -0.5090 -0.3715
10849SOL    HW139405  10.888   3.579   7.704 -0.1182 -0.6984  0.3998
10849SOL    HW239406  10.969   3.671   7.615 -0.7647 -0.3117  0.1995
10850SOL     OW39407   6.649   4.950   5.501 -0.1382  0.6486 -0.1971
10850SOL    HW139408   6.568   4.967   5.452 -0.9770 -1.4174  0.3482
10850SOL    HW239409   6.664   4.857   5.489  1.5465  0.7819  0.6852
10851SOL     OW39410   1.667  11.373   3.869  0.6438  0.8621  0.0901
10851SOL    HW139411   1.731  11.366   3.798  0.3639  0.6099 -0.1409
10851SOL    HW239412   1.582  11.367   3.825  0.4704  0.5408  0.4610
10852SOL     OW39413   0.096   6.633   1.775 -0.2257 -0.0644  0.1398
10852SOL    HW139414   0.070   6.704   1.716  2.8454  1.2874  0.2223
10852SOL    HW239415   0.143   6.571   1.720 -0.1419 -0.4327  0.6181
10853SOL     OW39416   2.669   3.038   7.872 -0.2149  0.2218 -0.0366
10853SOL    HW139417   2.639   3.050   7.782  1.6931 -2.2824 -1.1516
10853SOL    HW239418   2.651   2.946   7.891 -1.6623  0.9428  2.6708
10854SOL     OW39419   2.863  11.949   6.605  0.3655  0.0180  0.3566
10854SOL    HW139420   2.863  12.042   6.579 -1.6587  0.4308  1.6133
10854SOL    HW239421   2.922  11.945   6.680 -0.4498  0.5753  1.0540
10855SOL     OW39422  10.657   5.071   0.881 -0.0734  0.2185  0.0341
10855SOL    HW139423  10.636   5.160   0.853  1.5178  0.8107  0.6194
10855SOL    HW239424  10.749   5.059   0.857  1.1510  0.4260  3.8918
10856SOL     OW39425   2.537   0.021   7.628 -0.4012  0.0019 -0.2164
10856SOL    HW139426   2.626   0.022   7.663 -0.0614  0.8805 -1.0830
10856SOL    HW239427   2.496  -0.054   7.671  1.1029 -1.1248 -0.6737
10857SOL     OW39428   9.014   1.781   5.642  0.2032  0.2913  0.2078
10857SOL    HW139429   8.937   1.836   5.658 -1.0240 -1.0041 -0.9986
10857SOL    HW239430   8.983   1.712   5.584  1.5158 -2.0908  2.1434
10858SOL     OW39431  11.956   5.184  10.251 -0.0711 -0.4656  0.3626
10858SOL    HW139432  11.872   5.148  10.223  0.4786  0.8364 -3.5893
10858SOL    HW239433  12.015   5.108  10.251 -0.5074 -0.8235 -0.4768
10859SOL     OW39434  11.515   5.887   1.215 -0.3592 -0.6190 -0.4847
10859SOL    HW139435  11.571   5.914   1.143  3.0073 -2.5122  1.2016
10859SOL    HW239436  11.530   5.953   1.283 -0.0563 -1.2127  0.0289
10860SOL     OW39437   0.944   6.764  12.298  0.1010 -0.1367 -0.5609
10860SOL    HW139438   0.896   6.778  12.380 -0.5134  0.3771 -0.9930
10860SOL    HW239439   0.881   6.786  12.229  1.3508  1.9332 -1.1299
10861SOL     OW39440   5.673   2.300  11.943  0.2224  0.2033  0.3786
10861SOL    HW139441   5.707   2.252  11.867 -0.0088 -0.6516  0.8034
10861SOL    HW239442   5.750   2.337  11.985  0.3789  0.4524 -0.1124
10862SOL     OW39443   6.943   4.332   8.920  0.1464  0.6488 -0.0635
10862SOL    HW139444   6.998   4.342   8.998 -0.0605 -0.4378  0.2406
10862SOL    HW239445   6.985   4.388   8.854 -0.4137  2.6171  1.1812
10863SOL     OW39446   7.415   7.166   1.372 -0.1866  0.1454 -0.1903
10863SOL    HW139447   7.360   7.188   1.447 -0.4215 -0.8224 -0.0709
10863SOL    HW239448   7.478   7.102   1.406 -0.4894 -0.5325 -0.8844
10864SOL     OW39449   9.403  12.273   5.996 -0.1411  0.1128 -0.3896
10864SOL    HW139450   9.351  12.341   5.952  1.6108  1.3125 -0.7336
10864SOL    HW239451   9.493  12.303   5.986  0.5068 -0.9887  1.7010
10865SOL     OW39452   8.258   5.846   7.310 -0.1647  0.8263  0.2338
10865SOL    HW139453   8.299   5.839   7.397  0.1889  1.4895  0.1283
10865SOL    HW239454   8.320   5.804   7.251 -1.4760 -1.8508  0.5685
10866SOL     OW39455   9.327   0.502   5.898  0.3549  0.0450 -0.0611
10866SOL    HW139456   9.292   0.461   5.978 -1.6526 -1.6385 -1.7069
10866SOL    HW239457   9.272   0.579   5.884  0.3261  0.0091 -0.1445
10867SOL     OW39458   5.925   1.293   1.589 -0.1292 -0.4141  0.0891
10867SOL    HW139459   5.970   1.222   1.635  0.1817 -0.2528  0.0396
10867SOL    HW239460   5.943   1.278   1.496  2.0619  1.1069  0.1915
10868SOL     OW39461   4.371   9.163   2.020 -0.1979  0.2144  0.3368
10868SOL    HW139462   4.449   9.153   2.075  0.3668  0.2890 -0.4312
10868SOL    HW239463   4.347   9.073   1.996  0.5331  0.2480 -0.6062
10869SOL     OW39464   5.969   6.205  11.401 -0.5817 -0.2614  0.0182
10869SOL    HW139465   6.043   6.240  11.450 -1.3405  0.2277  0.8530
10869SOL    HW239466   5.972   6.251  11.317  0.3673 -0.6513 -0.1725
10870SOL     OW39467   3.142   8.431   2.657 -0.6140  0.1323  0.6230
10870SOL    HW139468   3.146   8.511   2.708 -0.6952 -0.6013  1.8116
10870SOL    HW239469   3.222   8.431   2.605 -0.6438  0.9996  0.5714
10871SOL     OW39470   7.322   0.331   4.570 -0.2840 -0.0108  0.0017
10871SOL    HW139471   7.387   0.325   4.500  1.8576 -2.9052  2.0168
10871SOL    HW239472   7.330   0.421   4.603  1.0448  0.3674 -1.2644
10872SOL     OW39473  11.015   6.012   4.346  0.1850 -0.2941 -0.2028
10872SOL    HW139474  10.955   5.951   4.389  0.1325  0.8042  1.3894
10872SOL    HW239475  10.966   6.044   4.270 -0.7842 -0.3343  0.3803
10873SOL     OW39476   7.448   0.418  11.332  0.5887 -0.3497  0.0539
10873SOL    HW139477   7.412   0.329  11.328 -0.3893 -0.0976  2.0131
10873SOL    HW239478   7.524   0.411  11.390  0.1596  0.1621  0.6998
10874SOL     OW39479   0.217   8.753   6.069  0.2181  0.2050 -0.0941
10874SOL    HW139480   0.129   8.785   6.088 -1.2447 -3.6218  0.4668
10874SOL    HW239481   0.233   8.779   5.978 -1.7117  0.5577 -0.3753
10875SOL     OW39482   8.049  10.688   0.974  0.0123  0.2490 -0.4657
10875SOL    HW139483   8.008  10.632   1.040 -0.9338  0.4995 -0.8382
10875SOL    HW239484   8.110  10.630   0.928 -0.4679 -0.3151 -0.4023
10876SOL     OW39485   5.010   8.664  12.196  0.3035 -0.3312 -0.2687
10876SOL    HW139486   4.996   8.756  12.221 -1.3889 -0.6655  0.1212
10876SOL    HW239487   5.015   8.617  12.279 -2.4113 -1.0418 -0.4114
10877SOL     OW39488   7.222   1.144   9.065  0.2615  0.4751 -0.0842
10877SOL    HW139489   7.169   1.219   9.038  0.3595  0.1486 -1.2393
10877SOL    HW239490   7.227   1.089   8.988  0.0839 -0.8065  0.7881
10878SOL     OW39491   1.850   7.096   6.236  1.1446 -0.0770 -0.1389
10878SOL    HW139492   1.841   7.024   6.173  0.0835  0.1955 -0.3195
10878SOL    HW239493   1.790   7.163   6.204  0.0735 -0.1827  1.5182
10879SOL     OW39494   4.062  11.826   6.606  0.0639  0.1466  0.0868
10879SOL    HW139495   4.081  11.752   6.548  0.4635  0.6825 -0.4915
10879SOL    HW239496   4.078  11.903   6.551 -0.5370  0.6593  0.6141
10880SOL     OW39497   9.894   8.641  10.205 -0.1438 -0.2899 -0.1184
10880SOL    HW139498   9.917   8.619  10.115 -1.3753 -1.2184 -0.2421
10880SOL    HW239499   9.801   8.616  10.213 -1.0083  2.7285  0.4692
10881SOL     OW39500  11.984   3.074   5.456 -0.6672 -0.0441  0.0468
10881SOL    HW139501  11.968   2.987   5.491 -0.6565 -0.3304 -0.6552
10881SOL    HW239502  11.899   3.118   5.458 -1.0263 -0.6450 -1.1577
10882SOL     OW39503  10.406   0.292   3.260 -0.1522  0.1719  0.1755
10882SOL    HW139504  10.392   0.295   3.355 -1.9514  1.4426 -0.0876
10882SOL    HW239505  10.480   0.232   3.249 -1.8625 -2.5417  2.1640
10883SOL     OW39506   2.698   8.170   3.268  0.1616  0.1553 -0.6338
10883SOL    HW139507   2.719   8.263   3.276 -2.5516  0.8865 -0.7910
10883SOL    HW239508   2.675   8.143   3.357 -0.9936  0.2121 -0.8971
10884SOL     OW39509  10.223  11.756  12.444  0.1152 -0.2372 -0.0534
10884SOL    HW139510  10.236  11.694  12.372 -2.4912 -0.3796 -0.4935
10884SOL    HW239511  10.177  11.705  12.511  1.7181  0.1394  1.4038
10885SOL     OW39512   4.878   9.810   4.663  0.2267 -0.1866  0.4204
10885SOL    HW139513   4.901   9.774   4.577 -0.7360  3.2340 -1.4920
10885SOL    HW239514   4.782   9.809   4.663  0.2185 -0.2488  1.5448
10886SOL     OW39515   4.752   2.716   9.069 -0.0814  0.1629  0.1498
10886SOL    HW139516   4.723   2.629   9.094  0.5613 -0.6667 -1.8094
10886SOL    HW239517   4.761   2.712   8.974  0.6081  2.1761  0.0800
10887SOL     OW39518   9.944   4.549   1.615  0.0298  0.3054 -0.2115
10887SOL    HW139519  10.027   4.530   1.659  0.2604  0.6028 -0.5167
10887SOL    HW239520   9.964   4.622   1.556 -0.4202  0.3018 -0.3719
10888SOL     OW39521   8.070   1.630   8.341  0.1192  0.0707 -0.2140
10888SOL    HW139522   7.995   1.678   8.304  0.8906 -0.8069 -3.1430
10888SOL    HW239523   8.141   1.694   8.342  0.4696 -0.2540 -1.7154
10889SOL     OW39524   9.236   9.049   0.248 -0.4393  0.3162  0.2856
10889SOL    HW139525   9.210   9.105   0.321 -0.6996  1.2133 -0.4876
10889SOL    HW239526   9.171   8.978   0.248  0.6425 -0.7497  2.0747
10890SOL     OW39527   7.789   3.814   7.253 -0.0802 -0.2039 -0.0692
10890SOL    HW139528   7.814   3.725   7.275 -0.9143  0.0169  2.0126
10890SOL    HW239529   7.832   3.869   7.319 -0.1549  0.8654 -0.8737
10891SOL     OW39530   6.215  10.569  10.903 -0.2172 -0.0859  0.3607
10891SOL    HW139531   6.178  10.649  10.865  2.4698  2.1919  2.1422
10891SOL    HW239532   6.164  10.554  10.982 -0.2151  0.3629  0.4503
10892SOL     OW39533   8.716  10.875  10.652 -0.0139 -0.7082  0.3455
10892SOL    HW139534   8.648  10.875  10.584  0.9512  0.7345 -0.6808
10892SOL    HW239535   8.767  10.796  10.634 -0.6042 -1.0926  0.3009
10893SOL     OW39536   3.432  12.480   8.310  0.1827 -0.3094  0.1214
10893SOL    HW139537   3.385  12.545   8.259  1.9862  0.0914 -1.1040
10893SOL    HW239538   3.463  12.528   8.387  1.7434  0.4230 -0.9093
10894SOL     OW39539   7.495   1.380  11.382 -0.3181 -0.0965  0.2334
10894SOL    HW139540   7.549   1.308  11.415  0.0124 -0.1877 -0.5030
10894SOL    HW239541   7.412   1.340  11.360 -0.5905 -0.0125  1.0655
10895SOL     OW39542   2.242   8.934   3.918 -0.3741  0.2777  0.0759
10895SOL    HW139543   2.220   8.938   4.011  2.6691 -0.6296  0.9797
10895SOL    HW239544   2.239   8.841   3.897 -1.3066  0.4995 -0.8367
10896SOL     OW39545   8.961   6.722   0.349  1.0780 -0.1420 -0.1389
10896SOL    HW139546   8.978   6.792   0.286  0.9579  0.8064  0.8789
10896SOL    HW239547   9.004   6.750   0.429 -1.3534  0.1648  1.1487
10897SOL     OW39548  11.563   8.682   5.042 -0.1018  0.0465 -0.4745
10897SOL    HW139549  11.569   8.647   5.131  0.3525 -0.2540 -0.6205
10897SOL    HW239550  11.631   8.750   5.038  1.6925 -1.7007 -1.3789
10898SOL     OW39551   1.164   0.198   1.175  0.0540 -0.5411 -0.1080
10898SOL    HW139552   1.071   0.181   1.158 -0.4685  0.4955  1.5013
10898SOL    HW239553   1.169   0.292   1.193  1.1529 -0.8260  1.2920
10899SOL     OW39554   8.748   0.361   0.196 -0.4521 -0.2681 -0.0171
10899SOL    HW139555   8.668   0.407   0.169 -1.8171 -1.8400  1.1266
10899SOL    HW239556   8.792   0.423   0.255 -0.8511  0.5846 -0.5821
10900SOL     OW39557   6.143   3.034   1.795  0.6115 -0.2961  0.0587
10900SOL    HW139558   6.067   3.064   1.844  1.1707  1.0992  0.1461
10900SOL    HW239559   6.107   2.981   1.724 -0.5221  0.9073 -0.3170
10901SOL     OW39560   5.053   5.990  10.655 -0.6822 -0.3971  0.1880
10901SOL    HW139561   5.128   6.049  10.662 -0.0552 -0.8180 -2.1257
10901SOL    HW239562   5.086   5.906  10.687 -0.3226 -0.4562 -0.3292
10902SOL     OW39563   8.935   1.367  10.044 -0.0268  0.1281 -0.3855
10902SOL    HW139564   8.869   1.303  10.018  0.8268 -1.0332  0.1751
10902SOL    HW239565   8.985   1.383   9.964 -1.1685  1.2590 -0.8883
10903SOL     OW39566  11.099   6.494   0.536  0.7805  0.0391  0.7342
10903SOL    HW139567  11.152   6.491   0.457 -1.7559  0.5983 -1.0892
10903SOL    HW239568  11.157   6.534   0.602  2.5385  0.7936 -1.1531
10904SOL     OW39569  10.867   6.515   5.128  0.7082 -0.5542 -0.0152
10904SOL    HW139570  10.851   6.591   5.072  0.7355  0.9768  1.9300
10904SOL    HW239571  10.960   6.498   5.120  0.6379 -0.6140 -0.7382
10905SOL     OW39572   3.063  11.536   6.929 -0.1666 -0.5287 -0.4052
10905SOL    HW139573   2.979  11.559   6.970 -0.7800 -1.2717 -1.1991
10905SOL    HW239574   3.128  11.588   6.977 -1.0252 -0.2588  0.5104
10906SOL     OW39575   1.901   6.695  12.548 -0.2143 -0.4533  0.2129
10906SOL    HW139576   1.912   6.790  12.554 -2.1057 -0.2245  0.6760
10906SOL    HW239577   1.835   6.683  12.479  0.2310 -1.4494 -0.0463
10907SOL     OW39578   8.542   0.862   7.249  0.1822 -0.2189  0.3743
10907SOL    HW139579   8.608   0.900   7.191  1.0447 -0.5253  1.1183
10907SOL    HW239580   8.559   0.767   7.246  1.1352 -0.1410  2.1341
10908SOL     OW39581  10.843   2.036   5.540 -0.2301 -0.0694  0.0616
10908SOL    HW139582  10.868   2.095   5.469  1.7160 -0.3792  0.4154
10908SOL    HW239583  10.808   1.958   5.496 -1.0360  0.5861 -0.4686
10909SOL     OW39584   5.886   6.419   2.934  0.1395 -0.1156 -0.2759
10909SOL    HW139585   5.836   6.343   2.902  1.5136 -0.6560 -1.2020
10909SOL    HW239586   5.977   6.399   2.912  0.8275  0.7300  1.5929
10910SOL     OW39587   5.970   0.174   1.829 -0.2840  0.7551  0.0504
10910SOL    HW139588   6.024   0.221   1.893  0.2813 -0.0253  0.1549
10910SOL    HW239589   5.988   0.217   1.746  0.9132  0.1721 -0.0077
10911SOL     OW39590   2.030   9.065   8.202 -0.3268  0.3635  0.4315
10911SOL    HW139591   1.966   9.025   8.261 -1.1849 -0.6931 -1.1530
10911SOL    HW239592   1.990   9.059   8.115  0.1053  3.4512 -0.1226
10912SOL     OW39593  12.498   9.173   9.677 -0.3680  0.1712 -0.1757
10912SOL    HW139594  12.500   9.078   9.685  1.6142  0.2075  0.1985
10912SOL    HW239595  12.487   9.190   9.584  0.0461 -0.4361 -0.3378
10913SOL     OW39596   8.437   1.065   2.282  0.1530 -0.5694  0.0149
10913SOL    HW139597   8.462   0.974   2.265  0.9925 -0.3193 -0.1446
10913SOL    HW239598   8.341   1.065   2.280  0.1584 -1.2411 -1.0646
10914SOL     OW39599   0.317   2.998  12.049 -0.3313  0.3047  0.5828
10914SOL    HW139600   0.312   3.006  12.144  2.1314 -1.2089  0.9404
10914SOL    HW239601   0.228   2.975  12.022 -0.9728  0.2584  2.5530
10915SOL     OW39602   6.884  12.396   6.458 -0.2732 -0.0549  0.2563
10915SOL    HW139603   6.869  12.305   6.433 -0.9064  0.3723 -1.0423
10915SOL    HW239604   6.959  12.393   6.516 -0.3194 -1.4131  0.2848
10916SOL     OW39605   7.133   8.115  12.029 -0.3312  0.3791  0.3132
10916SOL    HW139606   7.222   8.138  12.056 -0.2555 -0.3977  0.7561
10916SOL    HW239607   7.145   8.041  11.969 -0.7054 -0.1810  0.9155
10917SOL     OW39608   4.495   4.545  10.200  0.2417 -0.1576 -0.0273
10917SOL    HW139609   4.411   4.578  10.168  1.1440  0.3829 -1.9683
10917SOL    HW239610   4.521   4.478  10.137  1.1062 -0.5882  0.7576
10918SOL     OW39611  12.381   4.725   9.371  0.2761 -0.2503  0.3455
10918SOL    HW139612  12.349   4.635   9.374  0.0816 -0.1672  2.0444
10918SOL    HW239613  12.331   4.771   9.439 -0.0559  1.3058 -0.8769
10919SOL     OW39614  12.550  12.051   8.723  0.4349  0.4356 -0.4343
10919SOL    HW139615  12.594  12.000   8.792 -1.5245 -1.1041 -0.2329
10919SOL    HW239616  12.588  12.017   8.641 -0.6978 -1.3082 -0.2937
10920SOL     OW39617   5.518   7.072   4.602 -0.1082  0.4255  0.1651
10920SOL    HW139618   5.442   7.040   4.650 -0.0458 -0.2975 -0.2117
10920SOL    HW239619   5.501   7.166   4.591 -0.6591  0.3843  0.5928
10921SOL     OW39620   8.387  11.277   0.588  0.6632  0.6743 -0.1672
10921SOL    HW139621   8.448  11.245   0.522  1.1382 -1.7186  1.3044
10921SOL    HW239622   8.310  11.220   0.579  0.3997  0.8644  0.7538
10922SOL     OW39623  10.411   2.665   9.327  0.1303 -0.7360  0.3993
10922SOL    HW139624  10.316   2.659   9.327  0.1727 -2.3053 -1.6488
10922SOL    HW239625  10.440   2.591   9.380  0.2367 -0.2841  0.9867
10923SOL     OW39626   6.928   4.000   8.243 -0.4985 -0.7256 -0.3815
10923SOL    HW139627   7.013   3.972   8.208 -0.1026 -1.8214  1.3742
10923SOL    HW239628   6.940   4.003   8.338 -1.6838  1.7089 -0.2245
10924SOL     OW39629   0.135   7.396   0.009 -0.1691 -0.0921  0.2591
10924SOL    HW139630   0.081   7.429  -0.063 -1.4085 -0.7186  0.8626
10924SOL    HW239631   0.079   7.330   0.052 -0.2354  1.5794  2.9390
10925SOL     OW39632   4.478   6.888   8.304  0.3163 -0.3321 -0.0278
10925SOL    HW139633   4.412   6.956   8.289  0.1758 -0.3153  0.6486
10925SOL    HW239634   4.478   6.837   8.223 -1.7143 -1.3585  0.5482
10926SOL     OW39635  10.827   6.166   7.616  0.4037  0.2412 -0.2179
10926SOL    HW139636  10.758   6.194   7.556  0.0793 -1.2275 -0.5827
10926SOL    HW239637  10.782   6.149   7.699  0.3358 -0.5571 -0.4090
10927SOL     OW39638   9.839   3.403   6.904  0.1094 -0.0671 -0.3027
10927SOL    HW139639   9.844   3.331   6.842 -1.6528  0.3270 -0.9552
10927SOL    HW239640   9.824   3.481   6.850 -0.2230  0.4672  0.5387
10928SOL     OW39641   7.869   5.269  10.277  0.1516 -0.3586  0.2219
10928SOL    HW139642   7.880   5.219  10.197  0.9033 -0.7622  0.5700
10928SOL    HW239643   7.931   5.341  10.270  1.9310 -1.6920  1.4377
10929SOL     OW39644   4.400   1.752   6.928  0.1574 -0.4736 -0.2425
10929SOL    HW139645   4.495   1.738   6.930  0.0664 -1.0233  0.6693
10929SOL    HW239646   4.384   1.811   7.002 -0.1793 -0.1353 -0.5822
10930SOL     OW39647  11.295  12.412   0.947  1.0214 -0.0028 -0.0090
10930SOL    HW139648  11.276  12.456   0.865  2.6128  0.5508 -0.1247
10930SOL    HW239649  11.245  12.331   0.944 -2.3259  1.8561  0.3697
10931SOL     OW39650   2.947   2.349   2.449 -0.4935 -0.2360  0.2863
10931SOL    HW139651   2.858   2.344   2.483 -0.6390  0.9371  0.1101
10931SOL    HW239652   2.949   2.286   2.376 -1.2201 -0.1616  0.1994
10932SOL     OW39653  10.776   5.730   3.703  0.6966  0.6384 -0.3817
10932SOL    HW139654  10.826   5.742   3.622  1.4953  0.0399 -0.0003
10932SOL    HW239655  10.689   5.703   3.674  1.7086 -2.3344 -1.0660
10933SOL     OW39656  10.345   8.708  12.427  0.1449 -0.4164  0.1472
10933SOL    HW139657  10.435   8.705  12.394  0.0351 -0.5419 -0.1426
10933SOL    HW239658  10.296   8.650  12.368  0.2160 -1.7932  1.3927
10934SOL     OW39659   3.857   0.783   6.657  0.5997 -0.1879  0.3875
10934SOL    HW139660   3.830   0.691   6.665 -0.3518  0.1309  0.9683
10934SOL    HW239661   3.944   0.786   6.698 -0.3572 -0.3810  2.5193
10935SOL     OW39662  10.003   2.929   7.911  0.3069  0.0490 -0.6248
10935SOL    HW139663   9.910   2.950   7.925  0.8306  1.0740  1.8353
10935SOL    HW239664  10.031   2.988   7.842 -0.9453 -0.6124 -1.7628
10936SOL     OW39665   0.924   1.995   8.134 -0.1546  0.2343 -0.3624
10936SOL    HW139666   0.920   1.903   8.106  0.2385  0.1409 -0.1236
10936SOL    HW239667   0.934   2.044   8.052 -0.5809  0.0820 -0.5077
10937SOL     OW39668   9.310   1.394   5.739  0.1387 -0.1778 -0.6123
10937SOL    HW139669   9.372   1.466   5.746 -0.8586  0.6477  0.0736
10937SOL    HW239670   9.297   1.383   5.645 -0.2422  1.0448 -0.7283
10938SOL     OW39671   2.596   4.364   8.291  0.1083  0.0353  0.2314
10938SOL    HW139672   2.596   4.456   8.268 -1.4262 -0.5730 -2.6233
10938SOL    HW239673   2.528   4.356   8.358  0.5467  0.9994  0.8147
10939SOL     OW39674   4.752   6.520   5.906 -0.7558 -0.0079 -0.2249
10939SOL    HW139675   4.769   6.426   5.894  0.9097 -0.1416  2.4360
10939SOL    HW239676   4.665   6.523   5.946 -2.4768 -0.0626 -3.6042
10940SOL     OW39677  12.122   0.893   1.766  0.4521  0.0104 -0.4655
10940SOL    HW139678  12.200   0.944   1.744  1.7389 -1.5902  0.1433
10940SOL    HW239679  12.101   0.844   1.687 -0.1747  0.7044 -0.7394
10941SOL     OW39680   0.690   7.225   3.678 -0.3571  0.3041  0.3813
10941SOL    HW139681   0.654   7.136   3.672  0.0525  0.1572  0.0797
10941SOL    HW239682   0.621   7.276   3.720 -0.5433 -0.1869  0.6696
10942SOL     OW39683   8.727   0.848  11.090 -0.3908 -0.8072  0.1319
10942SOL    HW139684   8.671   0.901  11.033  0.6000  0.2878  0.1233
10942SOL    HW239685   8.734   0.898  11.171 -0.7064 -1.7101  0.7362
10943SOL     OW39686   5.839   7.199   3.383  0.0105 -0.6530  0.2952
10943SOL    HW139687   5.898   7.144   3.435  0.0759 -0.9365 -0.0705
10943SOL    HW239688   5.877   7.198   3.295 -1.1564 -1.8011 -0.2268
10944SOL     OW39689  11.282  10.006   9.911  0.9190  0.2428 -0.6076
10944SOL    HW139690  11.333  10.087   9.908 -0.1333  0.9057 -1.1286
10944SOL    HW239691  11.205  10.024   9.858  0.7482 -1.1760 -0.8898
10945SOL     OW39692   6.074   2.668   5.265 -0.2887 -0.0923  0.0958
10945SOL    HW139693   6.103   2.599   5.205  0.1077 -0.5640  0.8119
10945SOL    HW239694   6.102   2.638   5.352 -0.1743  0.9379  0.4307
10946SOL     OW39695   3.139  10.131   0.206  0.4310  0.4302  0.1742
10946SOL    HW139696   3.047  10.157   0.197  0.8160  2.3496  1.3430
10946SOL    HW239697   3.173  10.129   0.116 -0.6216  0.1249 -0.2308
10947SOL     OW39698   0.537   7.376  10.536  0.0522  0.4471 -0.0939
10947SOL    HW139699   0.568   7.447  10.479 -2.6025  1.3854 -0.5161
10947SOL    HW239700   0.471   7.330  10.483  1.0807 -1.8442  0.4839
10948SOL     OW39701   7.106  11.001   3.307 -0.5373  0.0684  0.4154
10948SOL    HW139702   7.192  11.043   3.311 -0.4220 -0.1315  0.0831
10948SOL    HW239703   7.047  11.071   3.277 -0.5849  0.3430  1.1455
10949SOL     OW39704   8.083   4.057   6.207 -0.0552 -0.4225  0.1887
10949SOL    HW139705   8.082   3.966   6.177  0.3189 -0.1394 -0.7140
10949SOL    HW239706   8.079   4.050   6.303  2.3491 -1.4724  0.2990
10950SOL     OW39707   2.617   9.385   2.535 -0.1503 -0.0906 -0.5341
10950SOL    HW139708   2.554   9.393   2.607 -1.7091 -1.7184 -1.6397
10950SOL    HW239709   2.674   9.313   2.561 -0.8207 -0.7933 -0.9685
10951SOL     OW39710   5.102   6.161   9.364 -0.4222 -0.0776  0.2868
10951SOL    HW139711   5.122   6.095   9.430 -0.4005 -0.7376 -0.3770
10951SOL    HW239712   5.122   6.244   9.407  1.8231 -0.5969  0.3315
10952SOL     OW39713   8.361  11.525   3.060  0.0095 -0.4544 -0.6249
10952SOL    HW139714   8.408  11.571   3.129  1.3638 -1.2417 -0.9857
10952SOL    HW239715   8.271  11.558   3.066  0.4446  0.6007  0.5146
10953SOL     OW39716   2.150   4.604   3.244  0.3188 -0.3802 -0.8168
10953SOL    HW139717   2.226   4.633   3.294 -0.2486  0.7417 -0.5739
10953SOL    HW239718   2.137   4.673   3.178 -1.0135 -0.1027 -0.2962
10954SOL     OW39719   4.732   3.880   0.337  0.3685 -0.7311 -0.5304
10954SOL    HW139720   4.781   3.855   0.415  0.5389  0.1316 -0.3583
10954SOL    HW239721   4.799   3.914   0.277  0.1667 -0.8941 -0.8509
10955SOL     OW39722   8.644   3.673   7.364  0.5580 -0.0055  0.1795
10955SOL    HW139723   8.583   3.630   7.304  0.0752 -0.7690  1.1953
10955SOL    HW239724   8.667   3.755   7.320 -2.1050  0.8651  0.2635
10956SOL     OW39725   2.126  10.805  12.553  0.0631 -0.1719  0.3229
10956SOL    HW139726   2.046  10.793  12.604 -1.0670  0.4517 -1.2438
10956SOL    HW239727   2.144  10.899  12.557 -0.0463 -0.1115 -0.4112
10957SOL     OW39728   5.572   8.119   3.771 -0.2675 -0.2111 -0.1215
10957SOL    HW139729   5.571   8.119   3.867  0.4945  0.5988 -0.1079
10957SOL    HW239730   5.665   8.119   3.748 -0.4310 -1.2402 -0.8739
10958SOL     OW39731  11.379   7.697   5.288  0.1382  0.2148  0.1648
10958SOL    HW139732  11.330   7.682   5.208 -0.0363 -0.5105  0.3989
10958SOL    HW239733  11.391   7.792   5.292 -1.6525  0.4666  0.3398
10959SOL     OW39734   5.390   8.259  11.449  0.4373 -0.1426 -0.2392
10959SOL    HW139735   5.364   8.174  11.484  0.6722  0.1701  0.7181
10959SOL    HW239736   5.344   8.265  11.365 -0.4724 -0.7275  0.1979
10960SOL     OW39737   6.845   5.612   0.264  0.7114  0.8729  1.0109
10960SOL    HW139738   6.815   5.531   0.222 -0.1899  1.3041  0.8021
10960SOL    HW239739   6.935   5.593   0.290  0.6651 -0.0422  0.5574
10961SOL     OW39740   2.462   3.448   5.370 -0.2398 -0.0329  0.4145
10961SOL    HW139741   2.517   3.488   5.303 -1.5475  1.0963 -0.0294
10961SOL    HW239742   2.394   3.512   5.387 -2.1391 -1.8313  0.0519
10962SOL     OW39743   7.257   9.561   4.425  0.0596 -0.0655  0.3554
10962SOL    HW139744   7.239   9.496   4.493  2.0581 -0.8247  0.2227
10962SOL    HW239745   7.212   9.527   4.348 -2.1442  0.7469  1.1981
10963SOL     OW39746  10.774   8.017   6.632  1.0309  0.3976  0.4805
10963SOL    HW139747  10.842   7.952   6.616  0.1279 -1.6464  3.9270
10963SOL    HW239748  10.821   8.100   6.635  3.3990 -0.8853  2.2955
10964SOL     OW39749  11.424   7.485   8.351  0.0921 -0.1627  0.0706
10964SOL    HW139750  11.474   7.491   8.269  0.2007 -0.5251  0.1086
10964SOL    HW239751  11.402   7.575   8.372  1.6965  0.1238  0.6496
10965SOL     OW39752   7.971  10.312   1.986 -0.2267 -0.3042 -0.0546
10965SOL    HW139753   7.897  10.368   1.961  0.5649  0.3523 -0.9790
10965SOL    HW239754   8.044  10.372   1.997  0.1855 -0.9530  0.8428
10966SOL     OW39755   3.270   6.605   1.888 -0.5941 -0.4811 -0.0437
10966SOL    HW139756   3.243   6.692   1.860  0.6435  0.6970  2.1642
10966SOL    HW239757   3.364   6.603   1.871 -0.6681 -1.5367 -0.3952
10967SOL     OW39758   9.540   8.906   8.406  0.0974  0.1714 -0.5010
10967SOL    HW139759   9.627   8.937   8.379  0.4276 -1.5224 -1.5354
10967SOL    HW239760   9.555   8.859   8.488 -0.3919  2.5474  1.0287
10968SOL     OW39761   1.341   9.090  11.518 -0.8180  0.0894 -0.3319
10968SOL    HW139762   1.342   9.159  11.451 -2.2145 -0.2061 -0.7016
10968SOL    HW239763   1.397   9.021  11.483 -1.5149 -0.0511 -1.2145
10969SOL     OW39764   0.103   1.015   0.191 -0.0166 -0.0706 -0.0611
10969SOL    HW139765   0.030   1.034   0.250  0.5693  0.1262  0.6138
10969SOL    HW239766   0.081   1.061   0.110  0.3946  1.8284  0.8650
10970SOL     OW39767  10.853   5.257   3.044 -0.2304  0.2068  0.6714
10970SOL    HW139768  10.886   5.282   3.130 -1.3732  0.7717  0.9570
10970SOL    HW239769  10.864   5.162   3.041  0.1548  0.2237  1.2897
10971SOL     OW39770   5.953   1.372   7.513  0.0872 -0.3408 -0.2626
10971SOL    HW139771   5.968   1.351   7.421  0.1198  0.8452 -0.5341
10971SOL    HW239772   5.877   1.318   7.538  1.7380 -2.8081 -0.1786
10972SOL     OW39773   0.646   6.270   7.389  0.4965  0.3203  0.1489
10972SOL    HW139774   0.653   6.366   7.395  2.4102  0.2916 -0.7732
10972SOL    HW239775   0.712   6.238   7.451 -0.0481 -0.4077  0.3590
10973SOL     OW39776  11.286  10.031   1.771  0.0418 -0.1015  0.6750
10973SOL    HW139777  11.270   9.941   1.742 -0.2932 -0.7841  2.8184
10973SOL    HW239778  11.221  10.045   1.839 -0.5762  2.1631 -0.2963
10974SOL     OW39779   2.205   7.405   0.088  0.1188  0.4869 -0.6010
10974SOL    HW139780   2.153   7.485   0.098 -0.1633  0.1203  1.2468
10974SOL    HW239781   2.237   7.409  -0.002 -0.1470  2.5100 -0.6634
10975SOL     OW39782   2.655  11.572   3.674  0.3976  0.4579  0.0173
10975SOL    HW139783   2.655  11.650   3.618  1.7011 -0.4954 -1.4005
10975SOL    HW239784   2.738  11.577   3.722  1.5381 -1.0710 -1.6759
10976SOL     OW39785  12.413   5.790   5.822 -0.2275  0.0632  0.4568
10976SOL    HW139786  12.378   5.776   5.910 -0.2759 -1.8853  0.1675
10976SOL    HW239787  12.457   5.708   5.800  0.7845  0.9245 -0.8998
10977SOL     OW39788  10.386   5.101   9.830 -0.8632  0.0692  0.0485
10977SOL    HW139789  10.474   5.088   9.866  0.5381  1.9799 -2.3157
10977SOL    HW239790  10.385   5.193   9.803 -3.8186  0.2352  0.4575
10978SOL     OW39791   9.939   2.767   4.154 -0.2839  0.1137  0.0707
10978SOL    HW139792   9.998   2.795   4.224 -2.4351  0.3184  1.9202
10978SOL    HW239793   9.926   2.674   4.168  0.2390 -0.1140 -0.8632
10979SOL     OW39794  10.748   9.684   9.002 -0.0553 -0.3540  0.4745
10979SOL    HW139795  10.817   9.644   8.950  0.6127  2.4997 -1.0767
10979SOL    HW239796  10.794   9.742   9.063 -1.0034  0.2675  0.6257
10980SOL     OW39797   2.649   2.515   1.387 -0.7563 -0.1134 -0.2322
10980SOL    HW139798   2.668   2.504   1.480 -2.1134  1.7778  0.3301
10980SOL    HW239799   2.729   2.549   1.349 -1.0528  1.9399  0.8690
10981SOL     OW39800   5.133   2.965   4.297 -0.2302  0.5932  0.0373
10981SOL    HW139801   5.129   2.872   4.319 -0.4736  0.9918  1.8430
10981SOL    HW239802   5.160   3.008   4.378  2.6089  1.8654 -1.4433
10982SOL     OW39803   0.511   6.345   1.242  0.4819  0.0546 -0.2197
10982SOL    HW139804   0.605   6.353   1.257  0.2240 -1.2388  2.7041
10982SOL    HW239805   0.473   6.336   1.330 -2.3021 -0.3353 -1.3549
10983SOL     OW39806   3.710   0.808   5.436  0.1313  0.2032 -0.4581
10983SOL    HW139807   3.800   0.790   5.409 -0.0244  0.2057 -0.9817
10983SOL    HW239808   3.680   0.876   5.376 -0.5725 -0.5468 -0.9762
10984SOL     OW39809   1.776   0.948   5.747  0.5312 -0.0812  0.6981
10984SOL    HW139810   1.818   1.025   5.709 -0.5211 -0.3682 -1.1314
10984SOL    HW239811   1.696   0.982   5.789 -0.5074 -0.2673 -1.0556
10985SOL     OW39812   1.610  11.559   4.517 -0.4651  0.4844  0.7568
10985SOL    HW139813   1.547  11.488   4.528  0.0465  0.3344  3.1372
10985SOL    HW239814   1.695  11.515   4.514 -0.2244  0.9286  1.0677
10986SOL     OW39815   2.075   4.493   1.602 -0.4128  0.5446 -0.2312
10986SOL    HW139816   2.162   4.497   1.641 -0.1334 -0.7041 -0.6833
10986SOL    HW239817   2.044   4.584   1.605  1.4617  1.2952 -1.3061
10987SOL     OW39818   2.875   8.258   0.394  0.7078 -0.0022 -0.4058
10987SOL    HW139819   2.816   8.202   0.446  0.5815 -0.0844 -0.6381
10987SOL    HW239820   2.884   8.338   0.446 -0.6659  0.5548 -0.9797
10988SOL     OW39821  12.542  11.730  10.187 -0.0847 -0.4454  0.4098
10988SOL    HW139822  12.593  11.778  10.253 -0.3748  2.3333 -1.2102
10988SOL    HW239823  12.605  11.668  10.150  1.0171  0.2272  1.0708
10989SOL     OW39824   0.754  11.989   3.166 -0.1878  0.0566  0.3272
10989SOL    HW139825   0.815  11.956   3.100  0.4128  0.9208  0.4288
10989SOL    HW239826   0.755  11.922   3.235  1.4233  0.4842  0.7742
10990SOL     OW39827   8.107  11.442   5.514 -0.7046  0.0336 -0.1401
10990SOL    HW139828   8.125  11.354   5.481  0.2907  0.4108 -0.6257
10990SOL    HW239829   8.035  11.473   5.460  0.6662  0.5083 -1.7880
10991SOL     OW39830   6.598   9.088  10.375  0.1722  0.3457 -0.0978
10991SOL    HW139831   6.656   9.012  10.366  0.8457  0.4375  2.6130
10991SOL    HW239832   6.622   9.145  10.303  0.7705 -1.3031 -1.2713
10992SOL     OW39833  10.335   5.595   9.682  0.3959  0.1830 -0.0889
10992SOL    HW139834  10.274   5.663   9.710  1.4542  0.8258  0.7709
10992SOL    HW239835  10.382   5.633   9.608  0.0977 -0.1225 -0.4402
10993SOL     OW39836   4.372  11.411   1.826 -0.1979  0.2916  0.0210
10993SOL    HW139837   4.461  11.437   1.803 -0.3296 -0.4080 -1.3999
10993SOL    HW239838   4.324  11.493   1.834  0.8339  0.7551  2.1312
10994SOL     OW39839   1.442  11.936   0.142  0.0782  0.2077 -0.7856
10994SOL    HW139840   1.454  12.007   0.079 -1.3463  0.2027 -1.0775
10994SOL    HW239841   1.457  11.857   0.091  2.5693  0.2534 -0.2648
10995SOL     OW39842   9.364   0.547   8.350 -0.2704 -0.8171  0.2507
10995SOL    HW139843   9.299   0.487   8.313 -0.3489  0.4610 -1.8660
10995SOL    HW239844   9.438   0.491   8.374 -0.7011 -1.8893 -0.7935
10996SOL     OW39845  12.279   6.166  12.319  0.1879  0.2849 -0.5463
10996SOL    HW139846  12.195   6.174  12.275  0.7634  1.9558 -1.4317
10996SOL    HW239847  12.306   6.257  12.337  2.0842 -0.1716 -0.8687
10997SOL     OW39848   7.152  11.163   4.552 -0.3359 -0.8849 -0.0348
10997SOL    HW139849   7.121  11.106   4.482 -0.9810 -1.1311  0.4426
10997SOL    HW239850   7.194  11.103   4.615  0.7127 -0.6113 -0.4438
10998SOL     OW39851   6.912   8.333  11.527 -0.3937  0.1543  0.4092
10998SOL    HW139852   6.886   8.425  11.521  2.8093  1.1356 -0.5466
10998SOL    HW239853   6.961   8.327  11.609  1.4330 -0.0347 -0.6356
10999SOL     OW39854  11.382   7.046   4.899 -0.0181  0.0552 -0.5649
10999SOL    HW139855  11.373   7.114   4.967 -0.5909 -0.7911  0.2334
10999SOL    HW239856  11.475   7.023   4.901 -0.3706 -1.5003  1.5129
11000SOL     OW39857  11.911   3.261   6.024 -0.5877 -0.0084 -0.2249
11000SOL    HW139858  11.918   3.214   5.941 -1.1243  0.1578 -0.3766
11000SOL    HW239859  11.952   3.205   6.088 -0.7738 -0.4519 -0.4902
11001SOL     OW39860   3.251   0.687   8.356 -0.7358 -0.1389 -0.4816
11001SOL    HW139861   3.206   0.648   8.430 -1.7909  0.7419 -0.6320
11001SOL    HW239862   3.271   0.613   8.298  2.4305 -1.2625  1.7542
11002SOL     OW39863   6.390   8.531   3.411 -0.5873 -0.5061  0.6466
11002SOL    HW139864   6.299   8.559   3.404 -0.4442  0.1030  1.1448
11002SOL    HW239865   6.433   8.600   3.462  0.0904 -0.9269  0.6625
11003SOL     OW39866   7.450  12.363   1.858 -0.0711 -0.6029 -0.2808
11003SOL    HW139867   7.456  12.283   1.911 -1.1096 -0.6380 -0.1914
11003SOL    HW239868   7.376  12.347   1.799 -0.9245  0.6625  0.4085
11004SOL     OW39869  11.002   7.400   3.697 -0.1422 -0.6757  0.3396
11004SOL    HW139870  11.020   7.306   3.701 -0.3576 -0.6883  1.0928
11004SOL    HW239871  11.018   7.423   3.606  1.9855 -1.0232  0.5723
11005SOL     OW39872   7.029  11.089   7.398 -0.0618  0.5575  0.2177
11005SOL    HW139873   6.996  11.146   7.329 -1.1616 -0.4845 -0.1569
11005SOL    HW239874   7.023  11.001   7.360  0.4951  0.0842  1.1998
11006SOL     OW39875  11.825   1.171   4.488  0.0145  0.3036 -0.3225
11006SOL    HW139876  11.797   1.260   4.466  1.2332  0.6897 -0.4079
11006SOL    HW239877  11.871   1.141   4.409  1.0037  0.2089  0.2835
11007SOL     OW39878   9.057   9.697   2.673  0.1147  0.1727  0.0773
11007SOL    HW139879   9.119   9.749   2.724  0.5812 -0.2056 -0.0989
11007SOL    HW239880   9.090   9.701   2.583  0.2733 -0.5799  0.0899
11008SOL     OW39881  11.507  12.163  12.031  0.0994 -0.0298  0.1061
11008SOL    HW139882  11.503  12.155  11.935  0.6620  1.3285 -0.0466
11008SOL    HW239883  11.453  12.238  12.052  0.6676  0.2103  0.7654
11009SOL     OW39884   9.905   8.912   9.415  0.4897 -0.0908 -0.1258
11009SOL    HW139885   9.837   8.976   9.437  0.0405 -0.7445  0.4431
11009SOL    HW239886   9.943   8.944   9.333  1.2172  1.6378  0.8398
11010SOL     OW39887   6.893  11.782   3.984 -0.6789  0.6903  0.4422
11010SOL    HW139888   6.846  11.739   3.913 -1.6518  0.6890  1.0635
11010SOL    HW239889   6.897  11.716   4.053  1.4450  0.2222 -0.0613
11011SOL     OW39890   8.007   8.284   3.661 -0.3620 -0.6904 -0.9204
11011SOL    HW139891   8.055   8.205   3.639  0.0291 -0.4420 -0.9765
11011SOL    HW239892   8.012   8.338   3.582  0.1962 -0.2085 -0.5615
11012SOL     OW39893   9.328  12.554   8.144  0.1038  0.0001  0.0282
11012SOL    HW139894   9.392  12.529   8.077 -0.3253  1.2575 -0.9037
11012SOL    HW239895   9.381  12.586   8.217  0.5712  1.1963 -0.8018
11013SOL     OW39896   8.524   6.622   1.825 -0.4516  0.3962  0.6394
11013SOL    HW139897   8.511   6.549   1.764  2.2148  0.5088 -0.1744
11013SOL    HW239898   8.552   6.695   1.770 -0.1141  1.1404  1.7584
11014SOL     OW39899   2.782   9.777   4.404 -0.1014 -0.2628  0.0169
11014SOL    HW139900   2.775   9.814   4.316  1.3013  0.1092  0.0373
11014SOL    HW239901   2.710   9.817   4.453 -0.1024  0.5342 -0.6184
11015SOL     OW39902   8.361   2.480   8.974 -0.4680 -0.5619  0.0347
11015SOL    HW139903   8.454   2.502   8.978 -0.6669  0.8196 -1.7661
11015SOL    HW239904   8.340   2.448   9.062  1.5155 -0.1353  0.7098
11016SOL     OW39905   9.938   8.176   6.051  0.1099  0.2820 -0.2394
11016SOL    HW139906   9.843   8.183   6.048  0.2110  2.6054 -0.0287
11016SOL    HW239907   9.957   8.146   6.141 -0.4037 -0.3201 -0.3255
11017SOL     OW39908  11.880   6.022   2.605 -0.3209 -0.8341 -0.3253
11017SOL    HW139909  11.921   5.945   2.645  0.5976 -0.0107  0.3671
11017SOL    HW239910  11.932   6.037   2.525  1.5710  0.8758  1.1151
11018SOL     OW39911   4.440  10.791  11.128  0.2542 -0.1490 -0.8268
11018SOL    HW139912   4.400  10.787  11.041 -1.2543  0.6921 -0.2223
11018SOL    HW239913   4.482  10.706  11.139  0.7935 -0.1291 -2.5094
11019SOL     OW39914   9.929  10.203   4.377  0.1493 -0.4633 -0.1154
11019SOL    HW139915  10.025  10.203   4.374  0.1792  0.3383  0.4985
11019SOL    HW239916   9.903  10.270   4.314  0.2060  3.1286  3.3452
11020SOL     OW39917   4.045   0.806   7.947 -0.1152  0.1105  0.3082
11020SOL    HW139918   4.064   0.797   7.853 -0.6522  3.2508 -0.2206
11020SOL    HW239919   4.123   0.849   7.983  0.0697 -1.0308  1.3462
11021SOL     OW39920   9.795   0.180  10.095 -0.0342  0.1003  0.1229
11021SOL    HW139921   9.809   0.117  10.024 -0.5250  0.6205 -0.4542
11021SOL    HW239922   9.859   0.249  10.078 -0.1332  0.2110  0.1987
11022SOL     OW39923   3.480   4.977   6.460 -0.5487 -0.0357 -0.7485
11022SOL    HW139924   3.468   4.892   6.502  0.1755 -0.2096 -0.8746
11022SOL    HW239925   3.554   5.017   6.506 -1.2376  0.7830 -0.3053
11023SOL     OW39926   7.862   3.240   5.688 -0.4530  0.3343 -0.1600
11023SOL    HW139927   7.901   3.317   5.729 -0.3893  1.3397 -2.0333
11023SOL    HW239928   7.931   3.174   5.689 -0.9045 -0.2321  2.6438
11024SOL     OW39929   5.225   8.311   7.332 -0.1835 -0.0659 -0.0412
11024SOL    HW139930   5.312   8.350   7.331  0.2313 -0.8259  2.2479
11024SOL    HW239931   5.174   8.366   7.272  1.1331  2.1449  0.7388
11025SOL     OW39932   9.086   9.695   7.335  0.3862  0.1832 -0.3866
11025SOL    HW139933   9.118   9.612   7.370 -0.5175  0.5695  1.5481
11025SOL    HW239934   9.124   9.701   7.248  0.7281 -2.1037 -0.4673
11026SOL     OW39935  11.836   9.737   7.713 -0.2953 -0.3713 -0.6841
11026SOL    HW139936  11.919   9.710   7.673 -0.2194  1.2757 -1.7556
11026SOL    HW239937  11.774   9.670   7.686  0.9486 -2.5929  1.5588
11027SOL     OW39938   0.616   4.285   8.478  0.0668  0.2308 -0.2978
11027SOL    HW139939   0.678   4.260   8.547  1.3539  1.1278 -1.1010
11027SOL    HW239940   0.579   4.368   8.508  2.2760  1.8081 -1.6223
11028SOL     OW39941  11.948   1.481   2.243  0.1009 -0.3256  0.7419
11028SOL    HW139942  11.978   1.483   2.334  0.3035 -0.2104  0.6716
11028SOL    HW239943  11.920   1.571   2.225 -2.4919 -0.8642  1.5463
11029SOL     OW39944  10.919   9.861   1.528 -0.2454  0.2088  0.3381
11029SOL    HW139945  10.972   9.847   1.606 -1.9278 -0.3651  1.4261
11029SOL    HW239946  10.938   9.951   1.501  0.3969  0.3887  1.3591
11030SOL     OW39947   6.165   0.905   5.633 -0.1096 -0.0238  0.3194
11030SOL    HW139948   6.143   0.989   5.673 -0.7728  0.7650 -1.5980
11030SOL    HW239949   6.251   0.884   5.668 -1.7409 -0.8884  4.4223
11031SOL     OW39950   0.640   0.212   9.606  0.1316 -0.1520 -0.5615
11031SOL    HW139951   0.603   0.265   9.676 -0.9060  0.3631 -1.4594
11031SOL    HW239952   0.580   0.225   9.533  1.0280 -0.9041 -1.4566
11032SOL     OW39953   0.899   3.818   2.379  0.2411  0.2135  0.9337
11032SOL    HW139954   0.857   3.749   2.327  1.7179 -0.7051  0.9328
11032SOL    HW239955   0.849   3.897   2.356 -0.8597 -0.6534  0.1939
11033SOL     OW39956   9.194   6.762   0.514 -0.1103 -0.4132  0.1415
11033SOL    HW139957   9.250   6.826   0.471 -1.5099 -0.3576 -1.7173
11033SOL    HW239958   9.137   6.814   0.572 -1.8127  0.2205 -1.9785
11034SOL     OW39959   3.250   6.715   7.396  0.5450 -0.1165 -0.2016
11034SOL    HW139960   3.197   6.701   7.475 -0.0274  3.1335  0.1406
11034SOL    HW239961   3.340   6.701   7.425  0.2542 -0.1225  0.7514
11035SOL     OW39962   8.829  12.354  11.430 -0.2330  0.1588  0.5205
11035SOL    HW139963   8.903  12.296  11.447 -0.1496 -0.3329 -1.3071
11035SOL    HW239964   8.850  12.396  11.347 -2.3839 -0.6594 -0.5130
11036SOL     OW39965   8.505   1.669   2.079 -0.2030  0.3625  0.0721
11036SOL    HW139966   8.427   1.699   2.032 -0.0771 -0.4473 -0.6669
11036SOL    HW239967   8.495   1.706   2.167 -1.6591 -0.1066  0.1363
11037SOL     OW39968   8.677   8.572   1.556 -0.3504 -0.7954  0.2519
11037SOL    HW139969   8.719   8.524   1.485  1.6092 -0.4444  1.1098
11037SOL    HW239970   8.731   8.553   1.633 -0.9451  0.8455  1.1129
11038SOL     OW39971   1.128   7.444   2.022 -0.1164 -0.2911  0.0498
11038SOL    HW139972   1.035   7.463   2.031 -0.0029 -0.1948  1.0730
11038SOL    HW239973   1.143   7.369   2.079  0.3107 -0.7067 -0.5990
11039SOL     OW39974   8.166   7.543   2.722  0.8971  0.0615  0.6184
11039SOL    HW139975   8.237   7.481   2.735  0.0541 -0.8805  0.8421
11039SOL    HW239976   8.091   7.489   2.697 -0.1468  0.8461  1.8991
11040SOL     OW39977  10.861   0.933   1.802 -0.4049  0.4522 -0.0248
11040SOL    HW139978  10.920   0.994   1.846 -0.4946  0.9124 -0.5286
11040SOL    HW239979  10.830   0.981   1.725 -3.1306  1.0380  1.3451
11041SOL     OW39980  11.904   6.356   7.079  0.4467  0.2053  0.4299
11041SOL    HW139981  11.813   6.337   7.056  1.0198 -0.4207 -1.4819
11041SOL    HW239982  11.938   6.274   7.114  1.0524 -0.4790 -1.6147
11042SOL     OW39983   5.789  10.146   3.168  0.3735  0.5273 -0.5543
11042SOL    HW139984   5.769  10.230   3.210 -0.7210  0.6245 -1.2345
11042SOL    HW239985   5.758  10.157   3.078 -2.6141 -1.5853  0.0523
11043SOL     OW39986  10.164   4.298   1.931 -0.0892 -0.8667  0.1507
11043SOL    HW139987  10.073   4.318   1.955 -1.1298 -1.5429 -2.7668
11043SOL    HW239988  10.207   4.383   1.927 -1.0374 -0.3720  0.0485
11044SOL     OW39989   1.505  12.390   4.003 -0.0845 -0.0575  0.0013
11044SOL    HW139990   1.476  12.365   4.090 -0.4014  2.0918  0.5706
11044SOL    HW239991   1.426  12.418   3.958  0.4345  1.7349  0.1056
11045SOL     OW39992   9.254   7.333   0.610 -0.2117 -0.3027 -0.5854
11045SOL    HW139993   9.258   7.294   0.697  0.1740  0.2689 -0.3441
11045SOL    HW239994   9.196   7.275   0.561 -1.9237  0.3701  0.5533
11046SOL     OW39995  10.426   0.641   3.669  0.2943  0.4048 -0.1153
11046SOL    HW139996  10.381   0.672   3.747  1.1019 -0.4705  0.7190
11046SOL    HW239997  10.503   0.697   3.661  0.3718  0.2976 -0.1169
11047SOL     OW39998   4.098  11.574   7.097  0.5039  0.0355  0.1912
11047SOL    HW139999   4.128  11.660   7.126  1.3578 -0.4457  0.7640
11047SOL    HW240000   4.097  11.520   7.176 -0.3239 -0.4054 -0.1053
11048SOL     OW40001   5.559   0.567  11.699  0.5851  0.3570 -0.4181
11048SOL    HW140002   5.610   0.591  11.775 -3.1002 -0.8876  2.7665
11048SOL    HW240003   5.496   0.637  11.688 -0.2449 -0.4544 -1.0219
11049SOL     OW40004   0.473  10.802   8.814 -0.2760  0.0443 -0.3101
11049SOL    HW140005   0.444  10.801   8.723  1.7865  1.5122 -1.0581
11049SOL    HW240006   0.465  10.894   8.841  1.7762  0.1528  0.0425
11050SOL     OW40007   9.444  10.780  10.289 -0.2791 -0.1379 -0.2175
11050SOL    HW140008   9.454  10.872  10.266  1.6488 -0.5816 -1.3900
11050SOL    HW240009   9.393  10.781  10.370 -1.2109  1.8775 -0.7599
11051SOL     OW40010   4.367   3.255   2.390  0.1826 -0.2914  0.0745
11051SOL    HW140011   4.291   3.249   2.448  0.0423  0.2913 -0.0428
11051SOL    HW240012   4.429   3.190   2.425 -0.3314 -0.7121  0.2182
11052SOL     OW40013   2.072  11.975  11.764  0.0682  0.0440 -0.0060
11052SOL    HW140014   2.035  12.037  11.827  2.4900  1.0620  0.5381
11052SOL    HW240015   2.155  11.949  11.803  0.5607 -1.0991 -1.7324
11053SOL     OW40016   7.719   2.394  12.237  0.7963  0.0620  0.3449
11053SOL    HW140017   7.792   2.455  12.227 -0.2716  1.9533  2.9696
11053SOL    HW240018   7.646   2.437  12.194  0.8480 -1.2265 -1.1298
11054SOL     OW40019   0.696   8.950   5.322  0.4301  0.6829 -0.1096
11054SOL    HW140020   0.613   8.903   5.314  0.2719  0.6867  1.3226
11054SOL    HW240021   0.738   8.939   5.236 -0.2739 -0.7743 -0.2992
11055SOL     OW40022   6.385   8.239   3.352  0.4192 -0.1752  0.0604
11055SOL    HW140023   6.462   8.216   3.404  1.2116  0.9405 -0.5633
11055SOL    HW240024   6.365   8.329   3.380 -0.3854 -0.3038 -0.1062
11056SOL     OW40025   9.003   8.615   8.792 -0.7275  0.0078  0.6430
11056SOL    HW140026   8.965   8.602   8.705  0.7021 -0.1649  0.0064
11056SOL    HW240027   9.016   8.527   8.826 -0.2546  0.0370  0.5491
11057SOL     OW40028   5.673  11.327   2.248 -0.0223 -0.2168 -0.0216
11057SOL    HW140029   5.721  11.385   2.307  0.9094 -2.2805  1.3517
11057SOL    HW240030   5.742  11.276   2.204 -0.7435  0.5809 -2.2343
11058SOL     OW40031   1.971   1.584   3.878 -0.0987  0.2590  0.1905
11058SOL    HW140032   1.897   1.535   3.842  0.9744  0.0834 -1.9378
11058SOL    HW240033   2.009   1.629   3.802  1.0052  1.6476  1.5064
11059SOL     OW40034  10.282  12.416   0.588  0.1770 -0.5449 -0.5390
11059SOL    HW140035  10.249  12.496   0.627  0.9256 -0.8623  0.8014
11059SOL    HW240036  10.321  12.443   0.505  1.4756  0.6816  0.4275
11060SOL     OW40037  12.026   6.053   2.053 -0.5590  0.1917  0.0853
11060SOL    HW140038  12.105   6.100   2.029 -0.1112 -1.2812 -1.4980
11060SOL    HW240039  12.054   5.962   2.064 -1.9071 -0.2374  0.1946
11061SOL     OW40040  10.619   8.245   8.646 -0.2328  0.4136  0.0579
11061SOL    HW140041  10.646   8.269   8.735 -1.5385  0.9854  0.3143
11061SOL    HW240042  10.576   8.323   8.611 -2.6521 -0.7850  0.1326
11062SOL     OW40043   8.670   6.182   9.077  0.0273 -0.3138 -0.3924
11062SOL    HW140044   8.697   6.123   9.006  0.7105 -0.4158 -0.0624
11062SOL    HW240045   8.683   6.130   9.156  0.7961  0.3322 -0.0865
11063SOL     OW40046   3.218   5.497   0.314 -0.4541 -0.0340  0.5194
11063SOL    HW140047   3.304   5.507   0.273 -0.9633  0.4112 -0.4575
11063SOL    HW240048   3.236   5.500   0.408  0.3381  2.5373  0.3601
11064SOL     OW40049   3.370   3.180   1.515 -0.0024 -0.4722  0.4099
11064SOL    HW140050   3.313   3.203   1.442  2.2486  0.2887 -1.2517
11064SOL    HW240051   3.325   3.213   1.593 -0.8029  2.1107 -1.0284
11065SOL     OW40052  10.478   6.698   6.597  0.4870 -0.0207 -0.3040
11065SOL    HW140053  10.432   6.624   6.557 -2.2615  2.4466 -2.0765
11065SOL    HW240054  10.542   6.724   6.531  0.1177  0.3534 -0.5170
11066SOL     OW40055  12.177   0.310  10.807  0.0000  0.7153 -0.1709
11066SOL    HW140056  12.165   0.403  10.790  0.8602  1.2353  1.7723
11066SOL    HW240057  12.271   0.300  10.822  0.0106 -0.5895 -0.9638
11067SOL     OW40058   3.535   4.005   4.852  0.5955  0.7752 -0.1889
11067SOL    HW140059   3.584   3.924   4.840  1.2669  1.1652 -0.0971
11067SOL    HW240060   3.454   3.992   4.802  1.9519  1.1784 -2.6572
11068SOL     OW40061  11.033   7.057   0.573  0.4081  0.0910  0.2517
11068SOL    HW140062  11.093   7.126   0.602  0.5779  0.2350 -0.4299
11068SOL    HW240063  11.090   6.988   0.540  0.2200 -0.0758  0.2761
11069SOL     OW40064   6.497   7.641   0.634  0.3973  0.4335  0.4503
11069SOL    HW140065   6.466   7.732   0.633 -1.7691 -0.2590  0.6696
11069SOL    HW240066   6.520   7.625   0.726  1.9456  1.0789  0.2135
11070SOL     OW40067   4.841   8.886  10.295 -0.0368  0.0691 -0.1215
11070SOL    HW140068   4.910   8.829  10.329  0.3151 -0.4500 -1.6162
11070SOL    HW240069   4.879   8.974  10.298  0.6280 -0.1877 -0.7451
11071SOL     OW40070   9.837   8.946   4.171 -0.1979 -0.0453  0.2025
11071SOL    HW140071   9.866   8.929   4.082 -1.1955 -0.6184 -0.0249
11071SOL    HW240072   9.890   8.888   4.225  0.5619  0.4604  0.0172
11072SOL     OW40073   4.690   2.593   5.835  0.0677  0.3889  0.0128
11072SOL    HW140074   4.659   2.520   5.890  0.8127 -0.4960 -0.7144
11072SOL    HW240075   4.631   2.594   5.761  0.3580  0.1918 -0.2249
11073SOL     OW40076   0.794   1.144   1.225 -0.2322  0.1570  0.0744
11073SOL    HW140077   0.706   1.164   1.195 -1.1444 -0.6699  2.0364
11073SOL    HW240078   0.818   1.216   1.283  0.2024  0.1273 -0.0575
11074SOL     OW40079   5.477   3.990   8.384  0.3964 -0.4118 -0.2960
11074SOL    HW140080   5.451   3.898   8.389  1.9961 -0.8260  1.5040
11074SOL    HW240081   5.407   4.037   8.430 -0.4632 -0.6933 -1.2828
11075SOL     OW40082   7.430   3.244   4.818  0.0565 -0.6896 -0.2072
11075SOL    HW140083   7.360   3.225   4.880 -1.0421 -0.7481 -1.4246
11075SOL    HW240084   7.392   3.225   4.732  1.4414 -0.3483 -0.9281
11076SOL     OW40085   7.903   5.572   8.780  0.2942 -0.0428  0.0605
11076SOL    HW140086   7.940   5.571   8.868  2.9998  0.7040 -0.9633
11076SOL    HW240087   7.866   5.660   8.771  0.2330 -0.0355  0.3681
11077SOL     OW40088  11.950   1.960  10.938 -0.2529  0.0563  0.4433
11077SOL    HW140089  11.907   2.036  10.977 -0.5033 -0.1956  0.6632
11077SOL    HW240090  11.900   1.944  10.857  0.1295  0.4444  0.1285
11078SOL     OW40091  11.985   0.853   0.510 -0.7087  0.1221 -0.4971
11078SOL    HW140092  11.957   0.786   0.573  1.9268  0.0571  0.7433
11078SOL    HW240093  11.905   0.900   0.489 -1.8106  0.0038  2.7845
11079SOL     OW40094   2.546   1.337   9.455  0.1227 -0.3335  0.0837
11079SOL    HW140095   2.462   1.361   9.416  1.3417  0.7853 -2.0121
11079SOL    HW240096   2.535   1.244   9.479 -1.6785 -0.2166 -0.1449
11080SOL     OW40097   7.104   4.792   3.154  0.4616  0.2562 -0.2837
11080SOL    HW140098   7.108   4.785   3.059  2.3103 -0.9798 -0.1561
11080SOL    HW240099   7.151   4.873   3.174 -1.9252  1.8062 -0.4800
11081SOL     OW40100   1.885   9.694   9.900  0.2790 -0.4947  0.2903
11081SOL    HW140101   1.969   9.695   9.947  0.7595 -0.8038 -0.5236
11081SOL    HW240102   1.911   9.696   9.807 -0.6441  0.6496  0.0336
11082SOL     OW40103   0.901   9.774   9.389 -0.2904  0.1527 -0.8434
11082SOL    HW140104   0.894   9.863   9.354  0.0426  0.9768  1.0634
11082SOL    HW240105   0.846   9.775   9.467  0.9382 -0.8278  0.0786
11083SOL     OW40106   8.050  11.849  11.784  0.3594 -0.0067  0.5374
11083SOL    HW140107   8.113  11.871  11.715 -0.0674 -1.0492 -0.2176
11083SOL    HW240108   8.014  11.933  11.811 -0.0157  0.3899 -1.0650
11084SOL     OW40109   0.927  11.068  11.552 -0.2906  0.2579  0.4783
11084SOL    HW140110   0.980  11.135  11.508  1.1384 -0.8663  0.4061
11084SOL    HW240111   0.873  11.031  11.482 -1.6419  1.7728  0.6514
11085SOL     OW40112   7.342   7.994   8.899 -0.1399  0.6765  0.0041
11085SOL    HW140113   7.301   8.003   8.985 -1.8389 -0.0478 -0.6699
11085SOL    HW240114   7.379   7.906   8.899 -1.6847 -0.0076 -0.5781
11086SOL     OW40115   7.377   5.726  12.286  0.1702  0.2127 -0.4405
11086SOL    HW140116   7.460   5.682  12.301 -0.6033 -1.0853  0.1417
11086SOL    HW240117   7.349   5.696  12.199 -0.2486 -0.2647 -0.1409
11087SOL     OW40118   8.747   9.720   0.197  0.1905 -0.0244 -0.5335
11087SOL    HW140119   8.684   9.696   0.129 -0.3929 -2.1669  0.6714
11087SOL    HW240120   8.830   9.685   0.165  0.3238  0.6886 -1.0042
11088SOL     OW40121   9.539   3.654  10.887  0.0847 -0.4120  0.0909
11088SOL    HW140122   9.562   3.589  10.953 -0.3721  0.1216  0.7890
11088SOL    HW240123   9.581   3.623  10.807 -1.9752 -2.8132 -0.1933
11089SOL     OW40124  10.689   4.745   6.235  0.0297 -0.1547  0.4699
11089SOL    HW140125  10.611   4.712   6.280  0.2376 -0.5698  0.5213
11089SOL    HW240126  10.653   4.796   6.161 -0.3324  1.1834  1.5207
11090SOL     OW40127   3.610   3.878   3.817 -0.3117 -0.2544  0.1599
11090SOL    HW140128   3.676   3.947   3.826 -1.7688  1.4376 -1.2115
11090SOL    HW240129   3.538   3.921   3.770 -1.5142 -2.5925 -0.2608
11091SOL     OW40130  11.916   2.852   5.626 -0.7316 -0.2221  0.0449
11091SOL    HW140131  11.953   2.781   5.679  1.0955  0.8925  0.3349
11091SOL    HW240132  11.870   2.807   5.555 -0.9701 -1.7065  1.0853
11092SOL     OW40133   2.978   1.942   1.368  0.0841 -0.1070  0.1021
11092SOL    HW140134   3.051   1.962   1.309  0.1480  2.1108  0.8191
11092SOL    HW240135   2.902   1.937   1.310  0.6272 -1.3754 -0.5293
11093SOL     OW40136   3.058  11.465   2.306 -0.1787  0.2629 -0.1837
11093SOL    HW140137   3.045  11.478   2.212  0.0262 -1.0047 -0.4074
11093SOL    HW240138   3.132  11.404   2.312  1.4396  2.1933  0.8734
11094SOL     OW40139  10.002   5.478  12.118 -0.3969  0.4083 -0.5114
11094SOL    HW140140   9.943   5.403  12.105  0.2077  0.1172 -1.6849
11094SOL    HW240141   9.949   5.541  12.168 -0.7913 -0.9418  0.8884
11095SOL     OW40142   6.774   4.318  10.393  0.3238 -0.1928  0.0279
11095SOL    HW140143   6.724   4.398  10.374  0.5748 -0.2329 -0.8766
11095SOL    HW240144   6.813   4.333  10.479 -0.7935  0.0640  0.5023
11096SOL     OW40145   0.480   0.024   3.977 -0.3088 -0.0420  0.4206
11096SOL    HW140146   0.519   0.056   4.059  1.6781  0.6275 -0.7449
11096SOL    HW240147   0.482  -0.071   3.985 -0.3295  0.0125  1.2152
11097SOL     OW40148   2.348   5.308   0.387 -0.6939  0.3515  0.0109
11097SOL    HW140149   2.276   5.331   0.327  0.8391  0.9940 -1.6719
11097SOL    HW240150   2.341   5.373   0.457 -3.7672 -1.6293  1.7845
11098SOL     OW40151   4.164   1.587   4.779  0.2321  0.4499  0.2095
11098SOL    HW140152   4.206   1.647   4.840 -0.2318  0.0290  0.9529
11098SOL    HW240153   4.139   1.511   4.832 -2.6389  1.2228  0.1018
11099SOL     OW40154   5.578   1.348  11.836 -0.0657  0.3908  0.4040
11099SOL    HW140155   5.490   1.360  11.873 -0.3368 -0.1126 -0.0557
11099SOL    HW240156   5.637   1.367  11.908 -0.5709 -0.0025  0.9316
11100SOL     OW40157  10.433   3.868   6.031 -0.0382 -0.1489 -0.5457
11100SOL    HW140158  10.390   3.952   6.042  0.1145 -0.3171  1.7302
11100SOL    HW240159  10.362   3.804   6.030 -0.1501 -0.0557 -2.2226
11101SOL     OW40160   8.656  10.908  10.924  0.3137 -0.6681 -0.2360
11101SOL    HW140161   8.697  10.990  10.950  0.5341 -0.8822  0.0912
11101SOL    HW240162   8.661  10.908  10.828  0.7384 -0.5211 -0.2144
11102SOL     OW40163   7.209   0.379   7.207  0.1976  0.5929 -0.0492
11102SOL    HW140164   7.220   0.300   7.155 -0.6850 -0.0371  0.6995
11102SOL    HW240165   7.149   0.433   7.156 -0.2327  0.2133  0.0510
11103SOL     OW40166   7.102  10.716   9.444  0.3055  0.9914 -0.3669
11103SOL    HW140167   7.031  10.667   9.485  0.4900  0.5209 -0.6044
11103SOL    HW240168   7.059  10.768   9.376  0.0959  1.2356 -0.0503
11104SOL     OW40169  10.161   0.287   0.533 -0.2316 -0.3227  0.0916
11104SOL    HW140170  10.237   0.231   0.516  1.2544  1.6717 -0.3547
11104SOL    HW240171  10.174   0.320   0.622 -0.0740  0.6955 -0.2899
11105SOL     OW40172   8.259   4.682   0.507  0.3268 -0.0016  0.2810
11105SOL    HW140173   8.351   4.701   0.526  0.4027 -0.9291  0.9144
11105SOL    HW240174   8.242   4.601   0.554 -0.4710 -0.5120 -0.8648
11106SOL     OW40175  11.853   6.010   4.574 -0.2964  0.4165  0.6186
11106SOL    HW140176  11.919   5.954   4.533 -1.4508 -0.2758 -0.3669
11106SOL    HW240177  11.903   6.084   4.608  0.8603  0.4945 -1.1078
11107SOL     OW40178  11.580  10.966  12.215  0.8965  0.3647 -0.3563
11107SOL    HW140179  11.520  11.041  12.208  1.2524  0.6432 -0.4411
11107SOL    HW240180  11.573  10.922  12.131 -0.0065 -0.2339  0.0093
11108SOL     OW40181   9.851   1.924   2.392  0.3586 -0.4735  0.1472
11108SOL    HW140182   9.869   2.014   2.366 -0.5048 -0.3877 -0.1939
11108SOL    HW240183   9.917   1.904   2.458  1.1986  0.0641 -0.5087
11109SOL     OW40184   3.273   7.301   9.830  0.2243 -0.4454 -0.2709
11109SOL    HW140185   3.291   7.322   9.922  2.2696 -0.4421 -0.6174
11109SOL    HW240186   3.195   7.351   9.808  0.3537  0.4311  1.1584
11110SOL     OW40187   7.809  11.770   5.168 -0.7503  0.1271  0.1069
11110SOL    HW140188   7.829  11.848   5.116  0.3104 -0.4437 -0.3769
11110SOL    HW240189   7.744  11.800   5.232  0.1767  1.6007  0.4224
11111SOL     OW40190  11.816   2.436   4.225 -0.0207  0.2207  0.0536
11111SOL    HW140191  11.871   2.476   4.291 -0.2112 -0.7573  0.8290
11111SOL    HW240192  11.777   2.509   4.178  2.8710  1.0108 -1.3752
11112SOL     OW40193  11.207   0.020   2.754  0.0049 -0.1496  0.4213
11112SOL    HW140194  11.162   0.004   2.836 -0.7511  2.0847  0.5209
11112SOL    HW240195  11.142   0.064   2.699  1.4578  1.4483 -0.1087
11113SOL     OW40196   1.719   9.098   6.978 -0.0099 -0.0743  0.3669
11113SOL    HW140197   1.805   9.085   7.017 -0.0971  0.3104  0.6902
11113SOL    HW240198   1.685   9.178   7.019 -0.7983 -0.5801  0.7206
11114SOL     OW40199   2.818  10.981   8.885  0.4462  0.1087  0.6663
11114SOL    HW140200   2.794  11.031   8.963 -0.4611  0.1547  0.3765
11114SOL    HW240201   2.758  11.013   8.817 -0.4170 -1.6082  0.5627
11115SOL     OW40202   8.570   3.948  11.750 -0.2545  0.3037 -0.3851
11115SOL    HW140203   8.592   4.004  11.825 -2.4358  0.5207  0.1903
11115SOL    HW240204   8.645   3.955  11.691  0.6278  1.7995  0.8342
11116SOL     OW40205  11.793   8.810  11.424 -0.1650  0.1379 -0.0573
11116SOL    HW140206  11.746   8.727  11.435  1.2822 -0.5527  1.1593
11116SOL    HW240207  11.885   8.786  11.423  0.5473  1.9801  3.7669
11117SOL     OW40208   6.093  11.247   8.983  0.1140 -0.2129 -0.2588
11117SOL    HW140209   6.041  11.167   8.996  0.9457 -0.6142  0.7011
11117SOL    HW240210   6.093  11.259   8.888 -2.7474  0.5135 -0.2564
11118SOL     OW40211   5.357   3.499   8.812  0.3319  0.3039 -0.2458
11118SOL    HW140212   5.267   3.527   8.795  0.9384  2.0934 -0.6993
11118SOL    HW240213   5.348   3.407   8.839 -1.9008  1.0856  2.2383
11119SOL     OW40214   9.981   1.641   4.739  0.1439  0.8508  0.4361
11119SOL    HW140215  10.033   1.612   4.814  0.6330 -0.2332 -0.3038
11119SOL    HW240216  10.028   1.607   4.663 -3.0741 -2.7308 -0.2092
11120SOL     OW40217  11.928   5.862  12.269 -0.0295 -0.2296  0.0610
11120SOL    HW140218  11.998   5.802  12.244 -0.9290 -0.3804 -2.3621
11120SOL    HW240219  11.847   5.813  12.252 -0.7536  0.6886  0.7460
11121SOL     OW40220   8.441   2.654   7.209 -0.5447 -0.4289 -0.6217
11121SOL    HW140221   8.532   2.625   7.216  0.0202  1.2657 -0.6402
11121SOL    HW240222   8.427   2.666   7.115 -0.2389  0.9063 -0.5147
11122SOL     OW40223  12.450   8.030   2.637 -0.1398  0.3487 -0.1571
11122SOL    HW140224  12.402   8.074   2.708  2.9362  0.9704  1.7279
11122SOL    HW240225  12.442   8.090   2.563  0.9458  2.4466  1.2973
11123SOL     OW40226  10.013   8.216  12.129 -0.4767 -0.4259  0.3548
11123SOL    HW140227   9.956   8.284  12.091  0.0588  1.3934  2.5795
11123SOL    HW240228  10.101   8.253  12.125  0.0899 -1.7660  0.0209
11124SOL     OW40229  10.956   6.134   3.284  0.1562 -0.5672  0.2007
11124SOL    HW140230  10.863   6.154   3.268  0.3950  0.3897 -0.1106
11124SOL    HW240231  11.002   6.208   3.245  1.0821 -1.3186 -0.1565
11125SOL     OW40232   8.509   7.226   8.901 -0.2415 -0.5255 -0.2514
11125SOL    HW140233   8.569   7.233   8.976 -0.9643 -1.3481  0.4219
11125SOL    HW240234   8.422   7.231   8.940 -0.6412  0.7177 -1.2288
11126SOL     OW40235   2.930   6.844   8.085  0.5985 -0.0465 -0.1201
11126SOL    HW140236   2.861   6.861   8.148 -1.4721 -0.5229 -2.1338
11126SOL    HW240237   2.993   6.914   8.099 -1.3185  1.6523  0.4107
11127SOL     OW40238   2.689   8.195   6.123 -0.0238  0.4733 -0.2862
11127SOL    HW140239   2.623   8.213   6.057  0.3197  0.5661 -0.6075
11127SOL    HW240240   2.701   8.100   6.119 -1.3961  0.2112  0.9904
11128SOL     OW40241   3.420   6.579   8.808  0.5245 -0.6454 -0.0524
11128SOL    HW140242   3.491   6.545   8.864 -0.9831  2.0547  4.0063
11128SOL    HW240243   3.456   6.659   8.771  0.0112  0.2136  1.2302
11129SOL     OW40244   6.511  12.565  11.138  0.1258 -0.0402  0.6893
11129SOL    HW140245   6.538  12.474  11.138  0.4370  0.0445  0.1608
11129SOL    HW240246   6.443  12.570  11.071  1.8187  0.5762 -1.0768
11130SOL     OW40247   5.277   9.288  11.311 -0.6007  0.1362  0.5231
11130SOL    HW140248   5.363   9.289  11.353  0.1006  4.5406 -0.4804
11130SOL    HW240249   5.287   9.228  11.238  2.8088  2.6077 -1.3562
11131SOL     OW40250   4.413   9.484   9.956 -0.5693  0.5593  0.2129
11131SOL    HW140251   4.387   9.442   9.874 -0.4919 -1.5493  1.1991
11131SOL    HW240252   4.481   9.427   9.992  0.5787  2.3164  0.9857
11132SOL     OW40253  12.452   3.603  11.499 -0.2087  0.1931 -0.0333
11132SOL    HW140254  12.486   3.652  11.425 -1.0850 -0.0157 -0.5945
11132SOL    HW240255  12.515   3.531  11.511 -1.0985 -1.0014 -1.9395
11133SOL     OW40256   2.731  12.091   0.157 -0.2046  0.4161  0.1195
11133SOL    HW140257   2.803  12.144   0.192 -0.7845  1.2193  0.1167
11133SOL    HW240258   2.736  12.103   0.062  0.2095 -0.2549  0.0524
11134SOL     OW40259   1.205   8.809  11.990 -0.0155 -0.2228  0.5741
11134SOL    HW140260   1.210   8.743  11.921 -1.0426  0.9845 -0.7069
11134SOL    HW240261   1.172   8.761  12.066  1.8220 -1.7246  0.4957
11135SOL     OW40262  10.890   4.989   3.068 -0.3861 -0.1105  0.5056
11135SOL    HW140263  10.853   4.939   3.141  1.0842 -3.7818 -0.9749
11135SOL    HW240264  10.819   4.995   3.005 -1.0413  1.2024  1.3256
11136SOL     OW40265   5.548   8.220   5.501 -0.2383  0.6127  0.3525
11136SOL    HW140266   5.606   8.145   5.515 -0.0703  0.5628 -0.5819
11136SOL    HW240267   5.548   8.266   5.586 -1.4395 -1.1771  1.3850
11137SOL     OW40268   2.439   2.207   3.471 -0.0027  0.6768  0.6335
11137SOL    HW140269   2.444   2.144   3.400 -1.2824 -1.6260  2.4255
11137SOL    HW240270   2.519   2.260   3.463  0.8753 -0.8298 -1.2638
11138SOL     OW40271   1.579  11.370   8.585 -0.2186  0.1989 -0.1185
11138SOL    HW140272   1.618  11.449   8.621 -1.7578  1.4419 -1.0127
11138SOL    HW240273   1.623  11.357   8.500  0.7384 -0.5245  0.4671
11139SOL     OW40274   6.084   7.919   5.102  0.8235 -0.4010  0.1133
11139SOL    HW140275   6.002   7.914   5.150  1.3849 -0.9243  1.0387
11139SOL    HW240276   6.073   7.859   5.028  0.9108 -1.6402  1.0764
11140SOL     OW40277   5.168   0.414   5.418  0.7401  0.2267  0.3456
11140SOL    HW140278   5.232   0.481   5.398  1.9699 -0.6645  1.1457
11140SOL    HW240279   5.204   0.334   5.379  1.1310 -0.6828  2.4275
11141SOL     OW40280   9.295   7.831  11.992  0.3333  0.6816 -0.2377
11141SOL    HW140281   9.390   7.826  12.002  0.2236  0.6326  0.8882
11141SOL    HW240282   9.266   7.891  12.060 -0.4247  0.9410 -0.7653
11142SOL     OW40283   0.640   1.735   6.467 -0.5000  0.5957 -0.6393
11142SOL    HW140284   0.645   1.652   6.419 -0.9831  0.5304 -0.5859
11142SOL    HW240285   0.714   1.732   6.528 -0.5627  0.1634 -0.5784
11143SOL     OW40286   2.309   8.556   0.753  0.1171  0.4985  0.0377
11143SOL    HW140287   2.319   8.479   0.810 -0.5312  0.2305 -0.2090
11143SOL    HW240288   2.368   8.621   0.792  0.5607 -0.0637  0.3411
11144SOL     OW40289   4.747   2.691   2.111 -0.0632 -0.2421 -0.4282
11144SOL    HW140290   4.839   2.669   2.124 -0.0848 -0.0646  0.0350
11144SOL    HW240291   4.702   2.606   2.109  0.2328 -0.3912 -1.7036
11145SOL     OW40292  11.021   4.147   4.328  0.6562 -0.4001 -0.0300
11145SOL    HW140293  11.077   4.140   4.250  1.1230  0.0878  0.2545
11145SOL    HW240294  11.068   4.207   4.386 -1.2004  1.8883 -0.7161
11146SOL     OW40295   0.718   4.794   7.567  0.0940 -0.1778  0.3485
11146SOL    HW140296   0.706   4.878   7.523 -0.6822 -0.0549  0.7681
11146SOL    HW240297   0.665   4.732   7.517  0.3553 -0.3407  0.2700
11147SOL     OW40298   6.027   7.985   8.619 -0.3796 -0.3085  0.1997
11147SOL    HW140299   6.058   7.896   8.634 -1.1152 -0.4329  1.0685
11147SOL    HW240300   5.975   8.006   8.697 -0.0529  0.9528  0.0957
11148SOL     OW40301   7.834   3.201   8.482 -0.0785  0.3174  0.4515
11148SOL    HW140302   7.839   3.106   8.471  0.0512  0.5635 -2.2470
11148SOL    HW240303   7.912   3.234   8.437 -0.9101  1.7532  0.0098
11149SOL     OW40304   9.341   8.967   8.646 -0.7088  0.0198  0.2173
11149SOL    HW140305   9.305   8.912   8.715 -1.0534  1.1728  0.9675
11149SOL    HW240306   9.334   8.913   8.567  0.7692 -1.7824  1.2279
11150SOL     OW40307   5.296   1.116   9.515 -0.0959  0.2314 -0.0094
11150SOL    HW140308   5.371   1.083   9.565 -0.1207  0.0761 -0.0726
11150SOL    HW240309   5.274   1.044   9.456 -2.1832 -0.9269  2.0315
11151SOL     OW40310  11.473   4.774   4.319  0.0556 -0.0191  0.0565
11151SOL    HW140311  11.487   4.684   4.289 -0.5835  0.0568 -0.4972
11151SOL    HW240312  11.471   4.826   4.238 -1.0798  0.2780  0.2615
11152SOL     OW40313   4.260   3.679   1.766 -0.1218 -0.4475 -0.2814
11152SOL    HW140314   4.253   3.742   1.694 -0.4404 -0.8868 -0.6367
11152SOL    HW240315   4.258   3.733   1.845 -0.1446  0.0077 -0.5888
11153SOL     OW40316   3.725   2.948  10.336 -0.0915 -1.1350 -0.2487
11153SOL    HW140317   3.704   2.867  10.383  0.6671 -0.1536  1.8901
11153SOL    HW240318   3.768   2.918  10.256  0.3349 -2.8536  0.5764
11154SOL     OW40319  11.756   1.858   4.717 -0.0195  0.0799  0.6848
11154SOL    HW140320  11.679   1.877   4.772  1.9641  0.8147  3.4376
11154SOL    HW240321  11.785   1.943   4.687  0.7631  0.0211  1.2436
11155SOL     OW40322  10.518   8.191   0.653  0.0963  0.6033  0.1553
11155SOL    HW140323  10.557   8.142   0.726 -1.8819  0.4553  1.1568
11155SOL    HW240324  10.518   8.282   0.683 -0.8019  0.5296  0.3869
11156SOL     OW40325   4.853   6.041   5.332  0.3083  0.7196  0.1795
11156SOL    HW140326   4.795   5.978   5.373 -0.4335  1.6312  0.5885
11156SOL    HW240327   4.854   6.116   5.392  2.2884  0.5621  0.4049
11157SOL     OW40328   2.092   5.767  12.126 -0.3382 -0.4402  0.5431
11157SOL    HW140329   2.153   5.815  12.069 -0.6945  0.0012  0.5232
11157SOL    HW240330   2.052   5.702  12.069 -1.6629  0.8515 -0.0712
11158SOL     OW40331   6.368   9.403   4.132  0.2682 -0.1576  0.4241
11158SOL    HW140332   6.375   9.310   4.109 -1.6986 -0.3243  0.3254
11158SOL    HW240333   6.422   9.448   4.068  1.1299 -1.2180  0.3821
11159SOL     OW40334   9.643   7.186   9.539 -0.1057  0.0361 -0.3116
11159SOL    HW140335   9.568   7.132   9.514  0.1220 -0.2467 -0.4007
11159SOL    HW240336   9.610   7.276   9.538 -0.5329 -0.1124 -0.0120
11160SOL     OW40337   1.750   5.510   4.989 -0.3626  0.1086 -0.5649
11160SOL    HW140338   1.836   5.525   4.949 -0.6273 -2.0637 -2.1380
11160SOL    HW240339   1.688   5.556   4.932 -0.5260 -1.0935 -1.3830
11161SOL     OW40340   7.047   5.622   8.670  0.2699  0.3421 -0.3286
11161SOL    HW140341   7.131   5.641   8.710  0.3415 -3.0205  1.4587
11161SOL    HW240342   7.005   5.560   8.730 -3.7399  2.1613 -0.8873
11162SOL     OW40343   7.463   9.326   0.304 -0.5032  0.0722  0.2424
11162SOL    HW140344   7.473   9.232   0.315  0.0179  0.0499 -0.3659
11162SOL    HW240345   7.552   9.358   0.287 -1.0807  0.1301 -3.3485
11163SOL     OW40346   1.339   6.265   2.322 -0.2175  0.5136 -0.0634
11163SOL    HW140347   1.408   6.249   2.387 -1.0074  1.8063  1.1748
11163SOL    HW240348   1.258   6.251   2.370 -0.8251  0.3772 -1.1089
11164SOL     OW40349  11.088   3.357   3.177 -0.5470 -0.3811  0.1533
11164SOL    HW140350  10.996   3.345   3.156 -0.3380  1.7075 -2.4014
11164SOL    HW240351  11.134   3.354   3.093  1.5272  0.1833  1.1760
11165SOL     OW40352   0.843   2.719  12.315 -0.2488  0.2431  0.0011
11165SOL    HW140353   0.842   2.776  12.391 -2.7508 -0.7545  0.8355
11165SOL    HW240354   0.783   2.761  12.253  0.0086 -0.0924 -0.4813
11166SOL     OW40355   3.677   9.150   4.505 -0.3708  0.0334 -0.0845
11166SOL    HW140356   3.617   9.133   4.433  0.1168  2.7284 -1.2673
11166SOL    HW240357   3.708   9.064   4.532 -2.7258 -1.2476 -1.1795
11167SOL     OW40358   0.837   7.123  10.762 -0.1131  0.2417  0.0455
11167SOL    HW140359   0.875   7.039  10.786  1.4571  0.5945 -1.0358
11167SOL    HW240360   0.814   7.164  10.845 -2.2455 -1.7993  0.5606
11168SOL     OW40361   9.107   4.108   7.848 -0.1624 -0.8500 -0.6200
11168SOL    HW140362   9.129   4.096   7.941  0.7893  1.0428 -0.5395
11168SOL    HW240363   9.048   4.036   7.828 -2.9737  0.3899  2.3040
11169SOL     OW40364   5.685   5.634   5.174  0.5324 -0.0372  0.3412
11169SOL    HW140365   5.639   5.554   5.149  1.6566 -0.4672 -0.4474
11169SOL    HW240366   5.774   5.606   5.195  0.5291  0.8090  1.5635
11170SOL     OW40367   3.902   5.462  10.223  0.4730  0.5253 -0.2769
11170SOL    HW140368   3.874   5.507  10.303  0.3232  1.7174 -0.9657
11170SOL    HW240369   3.989   5.427  10.244 -0.0282 -0.1454  0.7475
11171SOL     OW40370  11.553   6.523   8.221 -0.1410  0.2110 -0.1557
11171SOL    HW140371  11.647   6.539   8.219 -0.1022  0.0198  0.1586
11171SOL    HW240372  11.516   6.602   8.261 -0.1344  0.3698 -0.4577
11172SOL     OW40373  11.678   7.659  12.371 -1.0083  0.4031  0.0960
11172SOL    HW140374  11.733   7.712  12.428 -1.7300  2.0482 -0.6745
11172SOL    HW240375  11.692   7.569  12.400  0.4953  0.9796  1.2404
11173SOL     OW40376   6.667   8.272   7.699  0.5396 -0.1494  0.1584
11173SOL    HW140377   6.665   8.232   7.612  0.0659 -0.3945  0.2739
11173SOL    HW240378   6.582   8.316   7.707  1.1168  1.0210 -0.0282
11174SOL     OW40379   5.501   5.399   7.877 -0.0146  0.2835  0.1313
11174SOL    HW140380   5.505   5.304   7.888  1.4145  0.5778  2.9247
11174SOL    HW240381   5.452   5.411   7.796  1.6374 -2.8764 -1.5466
11175SOL     OW40382   2.898   1.600   4.173  0.6124 -0.0217  0.4059
11175SOL    HW140383   2.890   1.694   4.157  1.5759  0.2085  1.1884
11175SOL    HW240384   2.917   1.562   4.087  0.5588  0.5379  0.1457
11176SOL     OW40385  11.367   3.706   9.872  0.0291 -0.7888 -0.2825
11176SOL    HW140386  11.432   3.702   9.802  0.1893  1.5086 -0.3330
11176SOL    HW240387  11.287   3.670   9.832 -0.0170  0.9255 -1.8541
11177SOL     OW40388  11.228  10.591   3.579  0.0808  0.5058  0.2931
11177SOL    HW140389  11.202  10.518   3.634 -0.6602  0.3465 -0.2474
11177SOL    HW240390  11.149  10.645   3.572  1.2569  2.7885  2.7976
11178SOL     OW40391   8.812   8.247   5.579  0.1986  0.0290  0.4302
11178SOL    HW140392   8.755   8.313   5.541  1.4433  1.0376  0.2369
11178SOL    HW240393   8.831   8.187   5.506  0.0766  0.1825  0.2734
11179SOL     OW40394   3.358   7.661   7.387 -0.3013  0.0000 -1.0037
11179SOL    HW140395   3.285   7.617   7.343  1.6820 -3.3630 -1.2879
11179SOL    HW240396   3.424   7.672   7.319  0.5045  0.4027 -0.1747
11180SOL     OW40397  10.505   8.365   0.168  0.0263  0.3196 -0.3059
11180SOL    HW140398  10.553   8.283   0.177 -1.2271 -0.4407 -0.3154
11180SOL    HW240399  10.428   8.354   0.223  0.2029  1.7965  0.2830
11181SOL     OW40400   3.375   4.916   6.924 -0.3048  0.0726  0.0146
11181SOL    HW140401   3.370   4.979   6.852  3.2963 -0.5762 -1.0430
11181SOL    HW240402   3.365   4.969   7.003 -1.4229  1.2827 -0.8973
11182SOL     OW40403   9.787  10.168   5.532 -0.2429  0.5015  0.0660
11182SOL    HW140404   9.805  10.147   5.440 -1.6767 -0.4317 -0.0256
11182SOL    HW240405   9.712  10.227   5.529  0.8574  1.9745  0.5730
11183SOL     OW40406   2.532   1.440   9.941 -0.5491 -0.7961  0.4389
11183SOL    HW140407   2.558   1.501  10.010  0.0575 -0.1124 -0.3699
11183SOL    HW240408   2.615   1.415   9.899 -0.8681 -1.5453  0.2370
11184SOL     OW40409  11.671   8.685   7.171 -0.2383 -0.4258  0.1947
11184SOL    HW140410  11.654   8.591   7.174 -0.1464 -0.6123 -2.4999
11184SOL    HW240411  11.723   8.697   7.092  0.3835  1.8225  0.8891
11185SOL     OW40412   9.945   5.263   4.338  0.0057  0.3493  0.6017
11185SOL    HW140413   9.865   5.225   4.302 -0.6556 -0.0874  2.4109
11185SOL    HW240414  10.012   5.196   4.324 -0.1834  0.2765  0.0183
11186SOL     OW40415   0.551   4.057   7.878 -0.5877 -0.0424  0.1466
11186SOL    HW140416   0.491   3.997   7.833  0.3635 -0.9669  0.0827
11186SOL    HW240417   0.563   4.019   7.965 -0.4324  0.3755  0.3130
11187SOL     OW40418   2.758   6.233  11.647  0.9153  0.0061 -0.2467
11187SOL    HW140419   2.825   6.174  11.612  1.8019  1.9064 -1.8839
11187SOL    HW240420   2.688   6.232  11.581 -0.2384 -1.1096  0.9295
11188SOL     OW40421   9.127   1.219   4.542 -0.5315 -0.1545  0.5197
11188SOL    HW140422   9.195   1.260   4.488  1.1077 -1.2590  1.6304
11188SOL    HW240423   9.172   1.147   4.587 -2.1891 -0.2902  2.1042
11189SOL     OW40424   9.922   3.152   6.083  0.0243  0.1836 -0.7522
11189SOL    HW140425   9.864   3.090   6.127  0.6700 -0.0674 -0.2300
11189SOL    HW240426   9.897   3.148   5.991 -1.6698  1.0599 -0.3695
11190SOL     OW40427  11.608   4.620  11.485  0.5957 -0.4305  0.6424
11190SOL    HW140428  11.687   4.672  11.502 -0.3845  1.2717  0.2511
11190SOL    HW240429  11.584   4.584  11.571  1.0418  0.1501  1.0155
11191SOL     OW40430   9.331   1.360   1.639 -0.6869  0.0418 -0.1521
11191SOL    HW140431   9.382   1.389   1.564  0.8205  1.6609  1.3966
11191SOL    HW240432   9.283   1.438   1.667  1.1160  0.3963  2.3069
11192SOL     OW40433   9.599   3.493   0.279  0.1793  0.0137  0.0703
11192SOL    HW140434   9.651   3.574   0.282  1.3537 -0.7333  1.1553
11192SOL    HW240435   9.622   3.452   0.196  1.2474 -0.2417  0.4826
11193SOL     OW40436   4.549  10.343  12.327 -0.6025  0.3087  0.0765
11193SOL    HW140437   4.613  10.413  12.320  1.3929 -1.3153  1.2036
11193SOL    HW240438   4.570  10.284  12.254  1.5697 -1.9827  2.3577
11194SOL     OW40439   8.536   0.958   1.352  0.0596  0.3242 -0.3068
11194SOL    HW140440   8.540   0.973   1.258  0.9528 -0.3667 -0.3873
11194SOL    HW240441   8.442   0.964   1.373 -0.3990 -1.5822 -1.5853
11195SOL     OW40442   6.299   2.857   9.927  0.6870  0.0322  0.3614
11195SOL    HW140443   6.260   2.906   9.855 -1.7796 -1.1814  0.7755
11195SOL    HW240444   6.336   2.924   9.984 -0.9687  1.3184  0.0068
11196SOL     OW40445   1.197  10.462   1.099 -0.0988  0.8919 -0.3166
11196SOL    HW140446   1.109  10.462   1.062 -0.6577  0.3005  0.9479
11196SOL    HW240447   1.213  10.370   1.123  0.1676  1.2665  1.0257
11197SOL     OW40448  12.084   1.882   9.772  0.1502 -0.2270  0.1861
11197SOL    HW140449  12.102   1.829   9.694  3.1248  0.2432  0.4445
11197SOL    HW240450  12.073   1.971   9.739  0.0449 -0.2330  0.2027
11198SOL     OW40451   6.438   8.645   5.461  0.0420 -0.2674 -0.3153
11198SOL    HW140452   6.513   8.597   5.495 -0.7036 -0.8839  0.5034
11198SOL    HW240453   6.394   8.679   5.539  0.0346  0.9525 -0.8406
11199SOL     OW40454   0.742   9.165   4.853 -0.1901  0.3721  0.5513
11199SOL    HW140455   0.758   9.136   4.943  0.4077  0.2031  0.3985
11199SOL    HW240456   0.820   9.137   4.805 -0.0799  1.2975  0.1731
11200SOL     OW40457  10.855   4.638  10.077 -0.0964 -0.1430  0.5618
11200SOL    HW140458  10.915   4.624  10.150  0.7610  0.5459  0.0163
11200SOL    HW240459  10.890   4.583  10.007 -0.2043  0.1171  0.3020
11201SOL     OW40460  11.084  10.054   4.337  0.4215 -0.1548  0.2984
11201SOL    HW140461  11.020  10.125   4.325 -0.2816 -1.0699 -2.0432
11201SOL    HW240462  11.030   9.976   4.351  1.1434 -0.5265  1.1121
11202SOL     OW40463   1.358   4.977   2.189  0.3427  0.2009 -0.0975
11202SOL    HW140464   1.270   4.943   2.202  0.3588  0.2825  0.2317
11202SOL    HW240465   1.346   5.058   2.139  0.3219 -0.4046 -1.1170
11203SOL     OW40466  11.793  11.522  10.975 -0.2336  0.6046 -0.0506
11203SOL    HW140467  11.862  11.541  11.039 -0.0625  1.4083 -0.4551
11203SOL    HW240468  11.810  11.584  10.904  0.6838 -1.4569 -1.7294
11204SOL     OW40469  12.492   2.346  12.273  0.5507 -0.2575 -0.1612
11204SOL    HW140470  12.547   2.413  12.311  3.4394 -2.2069 -0.5666
11204SOL    HW240471  12.442   2.391  12.205  2.4657  1.4838 -0.4983
11205SOL     OW40472   5.069   5.864   7.774 -0.2210  0.8588  0.0543
11205SOL    HW140473   5.112   5.807   7.837 -1.4681 -0.2940 -0.0847
11205SOL    HW240474   5.139   5.915   7.734  0.9138 -0.5088  0.2623
11206SOL     OW40475   5.263  10.469   9.652 -0.3848 -0.4004 -0.2780
11206SOL    HW140476   5.258  10.420   9.734  0.7579 -1.5056 -0.8370
11206SOL    HW240477   5.201  10.541   9.663  1.2433  0.7296  2.3779
11207SOL     OW40478   4.790   5.317   8.497 -0.2863  0.3949 -0.1277
11207SOL    HW140479   4.866   5.374   8.493 -0.6828  0.9053 -0.4451
11207SOL    HW240480   4.775   5.291   8.406 -0.8804  0.8164 -0.1517
11208SOL     OW40481  10.459   6.500   9.159  0.0577 -0.2210 -0.3999
11208SOL    HW140482  10.459   6.406   9.176  0.7419 -0.3205 -0.8945
11208SOL    HW240483  10.369   6.521   9.135 -0.6582 -0.3026  1.9894
11209SOL     OW40484   4.514   3.671   3.347  0.1879  0.1499  0.4119
11209SOL    HW140485   4.509   3.664   3.251 -3.2873 -0.0351  0.4741
11209SOL    HW240486   4.598   3.632   3.369  0.5580 -0.9575 -2.4761
11210SOL     OW40487   8.264   3.580   6.726  0.5798 -0.2676 -0.2135
11210SOL    HW140488   8.269   3.544   6.637 -1.9413 -1.2705 -0.0426
11210SOL    HW240489   8.231   3.508   6.779 -3.0233  1.6484  0.4768
11211SOL     OW40490   4.112  11.546  10.306  0.9723  0.3960  0.1333
11211SOL    HW140491   4.031  11.560  10.257  1.6662 -0.5340 -1.3785
11211SOL    HW240492   4.180  11.582  10.249  1.7345 -0.0236  0.7669
11212SOL     OW40493  10.640   4.446   4.676 -0.3385 -0.4271  0.2385
11212SOL    HW140494  10.727   4.475   4.650 -0.6538  0.1504 -0.1933
11212SOL    HW240495  10.633   4.357   4.641 -1.2642  0.7831 -3.0405
11213SOL     OW40496   9.466   5.511  10.315 -0.2931  0.2254  0.8980
11213SOL    HW140497   9.411   5.451  10.265  0.6636  1.2874 -1.6151
11213SOL    HW240498   9.488   5.463  10.395 -1.6936 -1.6946  0.1961
11214SOL     OW40499   3.613   7.400   8.931  0.0038 -0.1007  0.0160
11214SOL    HW140500   3.556   7.473   8.955 -0.8195 -0.7994  0.2108
11214SOL    HW240501   3.579   7.369   8.847  1.4402  0.8402 -0.9655
11215SOL     OW40502  12.352   4.755   8.968  0.0723 -0.4442 -0.5312
11215SOL    HW140503  12.263   4.735   8.997 -0.3410  0.6324 -1.0101
11215SOL    HW240504  12.351   4.850   8.952  2.0091  0.1322  1.9788
11216SOL     OW40505  12.339   8.528   0.808  0.0844 -0.2291 -0.4149
11216SOL    HW140506  12.383   8.612   0.796  1.9086 -0.9620  0.7364
11216SOL    HW240507  12.246   8.548   0.798  0.5497  1.6848 -1.3763
11217SOL     OW40508   8.572  10.804   7.041 -0.2780  0.2230  0.4025
11217SOL    HW140509   8.528  10.803   7.126  1.5272 -0.2289  1.3821
11217SOL    HW240510   8.546  10.722   7.000 -0.8216  0.2324  0.7195
11218SOL     OW40511   7.061   5.731  11.799 -0.6049  0.1625  0.2335
11218SOL    HW140512   7.084   5.795  11.865  0.1371  0.7510 -0.5682
11218SOL    HW240513   6.966   5.738  11.791 -0.7692 -0.2903  1.5858
11219SOL     OW40514  10.501   8.449   3.361  0.4037  0.5912  0.5366
11219SOL    HW140515  10.436   8.437   3.291  1.2713  3.0015 -0.8096
11219SOL    HW240516  10.460   8.512   3.420  1.6766  2.7058 -0.7097
11220SOL     OW40517   9.834   9.782   4.418  0.0087  0.2791 -0.2665
11220SOL    HW140518   9.803   9.774   4.328 -0.5916  0.7367 -0.1100
11220SOL    HW240519   9.762   9.825   4.464  0.8510  1.3457  0.1140
11221SOL     OW40520   4.648   8.144   7.770 -0.2159  0.2248  0.0400
11221SOL    HW140521   4.715   8.077   7.760 -0.9709 -0.5213 -0.2005
11221SOL    HW240522   4.572   8.096   7.804 -1.0840  0.7688 -1.0703
11222SOL     OW40523   1.771   5.514  12.224  0.2952 -0.8712  0.1229
11222SOL    HW140524   1.812   5.451  12.283  1.6131 -0.7590 -0.6578
11222SOL    HW240525   1.688   5.473  12.199 -0.0832 -1.1231  1.6609
11223SOL     OW40526   9.645  12.189   8.364  0.1980 -0.2958  0.2522
11223SOL    HW140527   9.652  12.281   8.388  0.9099 -0.2141 -0.2573
11223SOL    HW240528   9.602  12.189   8.279 -1.3242 -0.5328  0.9784
11224SOL     OW40529   0.829   4.744   3.408  0.0166  0.0159  0.4384
11224SOL    HW140530   0.780   4.729   3.327  1.0195 -0.0870 -0.1699
11224SOL    HW240531   0.762   4.757   3.475 -0.8346 -0.4752 -0.3008
11225SOL     OW40532   2.696   3.065   7.133  0.2936  0.1513  0.5070
11225SOL    HW140533   2.747   3.096   7.057  0.2316 -1.5320 -0.2517
11225SOL    HW240534   2.759   3.015   7.185  0.3481  1.3433  1.6443
11226SOL     OW40535  11.477  11.427   3.887 -0.4291  0.1901  0.3583
11226SOL    HW140536  11.568  11.451   3.904 -0.2491 -0.4705  0.3546
11226SOL    HW240537  11.478  11.332   3.881 -1.0448  0.2028 -0.1054
11227SOL     OW40538  11.952   0.189   2.530  0.3295 -0.1806 -0.3633
11227SOL    HW140539  11.974   0.098   2.548  0.0547  0.2094  2.1993
11227SOL    HW240540  11.897   0.185   2.451  0.1792 -2.2436 -0.1916
11228SOL     OW40541   2.147  11.449   7.673 -0.0362  0.6307 -0.1641
11228SOL    HW140542   2.116  11.534   7.705  1.3148  0.6208  1.3022
11228SOL    HW240543   2.240  11.449   7.693 -0.1137 -1.4241  0.3835
11229SOL     OW40544   0.756   7.414   3.184  0.3986  0.2485  0.4042
11229SOL    HW140545   0.666   7.448   3.176  0.1415 -0.6393 -0.8068
11229SOL    HW240546   0.811   7.492   3.177 -0.1254  0.4576 -3.6313
11230SOL     OW40547   8.377   8.057   9.496  0.2529 -0.3353 -0.4662
11230SOL    HW140548   8.450   8.119   9.491  0.9210 -0.8679  1.5741
11230SOL    HW240549   8.419   7.971   9.501 -0.0852 -0.5028  4.9605
11231SOL     OW40550   3.288   9.682  11.921 -0.0778 -0.3216  0.6244
11231SOL    HW140551   3.288   9.699  12.015 -0.4647  1.5757  0.3170
11231SOL    HW240552   3.197   9.692  11.894  0.1831  0.2100 -0.1100
11232SOL     OW40553   2.323   0.160  10.529  0.2975  1.0256 -0.2931
11232SOL    HW140554   2.415   0.185  10.524  0.2181  1.2309 -0.8009
11232SOL    HW240555   2.322   0.066  10.508  0.4223  0.9542  0.0208
11233SOL     OW40556   9.419   8.791   9.524  0.6871  0.3810  0.6149
11233SOL    HW140557   9.459   8.816   9.441  2.4146 -0.2599  1.1940
11233SOL    HW240558   9.370   8.868   9.551  2.4148  1.6473  0.3350
11234SOL     OW40559  10.328   0.054   9.170 -0.6155 -0.5179 -0.1985
11234SOL    HW140560  10.354   0.025   9.257 -0.0906  2.5048  0.7621
11234SOL    HW240561  10.243   0.014   9.155 -0.8842 -0.7927  1.8627
11235SOL     OW40562   1.358   4.215  12.187 -0.2675 -0.1737 -0.2684
11235SOL    HW140563   1.371   4.196  12.280  2.7253  0.0452 -0.5359
11235SOL    HW240564   1.313   4.299  12.186 -1.2506 -0.6461  0.9481
11236SOL     OW40565   2.925   4.488   5.480 -0.6348 -0.7548 -0.5672
11236SOL    HW140566   2.883   4.552   5.423  1.6366 -0.1367 -1.6609
11236SOL    HW240567   3.018   4.494   5.459 -0.0789 -2.8090  0.9452
11237SOL     OW40568   4.720  10.714   3.339  0.5652 -0.3508  0.4168
11237SOL    HW140569   4.690  10.654   3.271  0.5320 -1.2312  1.1888
11237SOL    HW240570   4.675  10.685   3.418 -0.5660  1.5891  0.5518
11238SOL     OW40571  12.054   7.280  10.240 -0.0409 -0.2003  0.2761
11238SOL    HW140572  12.082   7.293  10.149  1.3012 -0.5016  0.6259
11238SOL    HW240573  12.083   7.358  10.286 -0.7281 -0.0451  0.4652
11239SOL     OW40574   6.973   5.452   7.312 -1.2130  0.2216 -0.8313
11239SOL    HW140575   6.967   5.429   7.219 -1.6090 -1.6993 -0.3555
11239SOL    HW240576   7.049   5.510   7.317  1.7943 -3.2600 -1.7516
11240SOL     OW40577   2.404   0.599   7.547 -0.0084  0.1216  0.2989
11240SOL    HW140578   2.415   0.688   7.512 -2.6282 -0.2899 -1.9425
11240SOL    HW240579   2.385   0.612   7.640  0.2754  1.8366  0.1561
11241SOL     OW40580  12.489   9.921  11.303  0.0889 -0.4338 -0.1994
11241SOL    HW140581  12.479   9.885  11.391  0.4485  0.1212  0.0771
11241SOL    HW240582  12.494  10.016  11.317 -0.9195 -0.2576 -0.9085
11242SOL     OW40583   5.498   0.928   0.128  0.3366  0.2367  0.2789
11242SOL    HW140584   5.496   1.000   0.191  2.6450  1.2746 -0.7032
11242SOL    HW240585   5.577   0.943   0.076 -0.4167 -1.6536 -1.6077
11243SOL     OW40586  11.237   5.526   1.058  0.5187  0.0528 -0.6242
11243SOL    HW140587  11.256   5.616   1.082  0.9282 -0.2986  0.4730
11243SOL    HW240588  11.184   5.532   0.979 -0.9087  1.3419  0.3549
11244SOL     OW40589   3.894   9.770   2.680  0.0971 -0.0222  0.2674
11244SOL    HW140590   3.844   9.815   2.748 -0.6191  0.7497 -0.7479
11244SOL    HW240591   3.852   9.685   2.671  1.0445 -0.6975  1.7231
11245SOL     OW40592   9.523   9.709  12.328  0.1165 -0.1338  0.5296
11245SOL    HW140593   9.498   9.631  12.277  1.8641 -0.1000 -0.4345
11245SOL    HW240594   9.595   9.747  12.279 -0.4140  1.8754  1.2293
11246SOL     OW40595   2.957   8.644  11.659 -0.4130  0.3381 -0.2917
11246SOL    HW140596   3.004   8.619  11.579  1.4518 -1.0073  1.1390
11246SOL    HW240597   2.874   8.597  11.653  0.3324 -0.9789 -0.7556
11247SOL     OW40598   3.133   7.162  11.486 -0.3858  0.1970  0.0329
11247SOL    HW140599   3.137   7.251  11.450  1.7095  0.2687  0.3251
11247SOL    HW240600   3.181   7.109  11.423 -0.4564 -0.4780  0.5437
11248SOL     OW40601   0.989   7.901   9.825  0.2711 -0.1361  0.1788
11248SOL    HW140602   0.927   7.844   9.778 -1.1633  0.4388  1.2825
11248SOL    HW240603   1.000   7.858   9.910  0.6472  0.2676  0.3344
11249SOL     OW40604   3.290   6.697   1.499  0.4668  0.3239 -0.3184
11249SOL    HW140605   3.267   6.740   1.417  2.7406 -1.3616 -1.9885
11249SOL    HW240606   3.368   6.744   1.529  0.4246  0.0954  0.1532
11250SOL     OW40607   4.769   0.440   7.701  0.1096  0.3230 -0.4110
11250SOL    HW140608   4.829   0.470   7.770 -1.7757  2.2331  0.5209
11250SOL    HW240609   4.714   0.374   7.745  1.1897 -1.1433 -1.1591
11251SOL     OW40610   8.444   7.010  11.037 -0.6988 -0.5051  0.0578
11251SOL    HW140611   8.405   6.927  11.064 -1.3023 -0.6376 -1.1385
11251SOL    HW240612   8.396   7.034  10.958 -0.7321  1.1429  0.5468
11252SOL     OW40613   7.886   4.456   5.210  0.2498 -0.1946  0.7085
11252SOL    HW140614   7.825   4.450   5.137 -0.5506 -1.5839  1.4251
11252SOL    HW240615   7.836   4.498   5.280  0.4512 -0.3639  0.9596
11253SOL     OW40616   2.842   3.152   8.078  0.5265 -0.2789 -0.2316
11253SOL    HW140617   2.775   3.111   8.023  0.0319  0.9972 -0.6315
11253SOL    HW240618   2.925   3.118   8.044  0.1271 -1.4020 -0.1315
11254SOL     OW40619   4.513   4.597   7.563  0.2436 -0.0151  0.0834
11254SOL    HW140620   4.574   4.657   7.521  1.2594 -0.6026  0.6703
11254SOL    HW240621   4.435   4.649   7.580 -0.0835  0.3240 -2.1966
11255SOL     OW40622  12.154   7.766   0.560 -0.5303 -0.4647  0.2169
11255SOL    HW140623  12.220   7.697   0.555  1.7251  1.6027 -0.6263
11255SOL    HW240624  12.122   7.775   0.471 -2.3583 -1.7219  0.6882
11256SOL     OW40625   0.300  10.087   9.277 -0.0227  0.2466 -0.1189
11256SOL    HW140626   0.211  10.118   9.288 -0.8696 -0.9793 -2.7789
11256SOL    HW240627   0.340  10.149   9.217  0.4287 -0.0796 -0.1609
11257SOL     OW40628   8.150   2.598  12.408 -0.2480 -0.5499  0.0600
11257SOL    HW140629   8.110   2.555  12.484 -2.1388  1.5140  0.3313
11257SOL    HW240630   8.103   2.562  12.333 -0.0271 -0.8402  0.0582
11258SOL     OW40631   8.268   8.727   7.448 -0.0376  0.0473 -0.2652
11258SOL    HW140632   8.235   8.637   7.446  0.0546 -0.0124  0.5746
11258SOL    HW240633   8.312   8.738   7.364 -0.6599 -0.4558 -0.6689
11259SOL     OW40634   2.574   1.263   6.768 -0.1386 -0.0053 -0.1855
11259SOL    HW140635   2.660   1.301   6.786 -0.7633  0.6827  1.4457
11259SOL    HW240636   2.517   1.338   6.754 -1.2982 -0.2389  2.6858
11260SOL     OW40637   3.414  11.479   8.644  0.1160 -0.1969  0.3505
11260SOL    HW140638   3.378  11.551   8.696 -2.6893 -1.0846 -0.2026
11260SOL    HW240639   3.502  11.464   8.681  0.3333  2.6852  1.2324
11261SOL     OW40640   4.621   5.951   7.551  0.2346  0.6180  0.4222
11261SOL    HW140641   4.590   5.869   7.589  0.7559  0.0482 -0.3551
11261SOL    HW240642   4.548   6.011   7.561 -1.6556 -1.0088 -2.4248
11262SOL     OW40643   2.767  11.910   1.364 -0.0915 -0.5015  0.5912
11262SOL    HW140644   2.800  11.832   1.409 -0.4595 -0.9952  0.0231
11262SOL    HW240645   2.696  11.877   1.308 -0.0739  0.1962  0.1444
11263SOL     OW40646  10.913   1.988   1.109  0.0728  0.5884 -0.0379
11263SOL    HW140647  10.867   1.975   1.026 -0.0172 -1.5456  0.2893
11263SOL    HW240648  10.962   1.906   1.122  0.1143  0.8931  1.9750
11264SOL     OW40649   6.444   3.761  11.633 -0.7700  0.1813  0.4060
11264SOL    HW140650   6.443   3.695  11.564  1.5855  1.3259 -0.8329
11264SOL    HW240651   6.386   3.830  11.601  0.0803  0.5735 -0.3305
11265SOL     OW40652   2.306  11.679  10.559  0.4353 -0.1774  0.3177
11265SOL    HW140653   2.258  11.614  10.508  1.0943 -1.9531  1.8386
11265SOL    HW240654   2.320  11.638  10.644  0.0702  2.3411  1.7037
11266SOL     OW40655  10.023   4.051   2.291 -0.0289  0.2330 -0.4828
11266SOL    HW140656   9.952   4.077   2.350 -0.1262 -0.5665 -0.2341
11266SOL    HW240657  10.082   4.127   2.290 -0.7925  0.8400 -0.5606
11267SOL     OW40658   1.489   0.987   0.344  0.5489 -0.1195  0.4765
11267SOL    HW140659   1.461   0.903   0.378  0.1410 -1.0058 -1.8245
11267SOL    HW240660   1.417   1.047   0.363 -0.7306 -1.1607 -0.9033
11268SOL     OW40661   1.779  10.572   4.449 -0.3192 -0.0820 -1.1841
11268SOL    HW140662   1.751  10.661   4.473  0.7778  0.5907 -2.2709
11268SOL    HW240663   1.861  10.585   4.402  1.0175 -1.8572  0.5251
11269SOL     OW40664  10.440   8.605   3.839 -0.3105 -0.2537 -0.0090
11269SOL    HW140665  10.442   8.681   3.781 -0.7030 -0.2220  0.0194
11269SOL    HW240666  10.506   8.546   3.804  0.2725  0.2688  0.1898
11270SOL     OW40667   8.107  10.764  12.421 -0.5441  0.1703 -0.3666
11270SOL    HW140668   8.138  10.715  12.345  0.7803  0.3426  0.0386
11270SOL    HW240669   8.060  10.838  12.384  0.4964  0.5132 -1.0332
11271SOL     OW40670  10.441   1.426   2.146  0.0274  0.1832 -0.7854
11271SOL    HW140671  10.441   1.355   2.210  1.8146  0.6609 -0.1952
11271SOL    HW240672  10.527   1.421   2.104 -0.4849  0.9217 -1.9791
11272SOL     OW40673   4.923   7.631   8.074 -0.0034  0.2963  0.3458
11272SOL    HW140674   4.883   7.715   8.094  2.3019  1.4101  0.4943
11272SOL    HW240675   4.903   7.617   7.981 -2.3087 -0.1673  0.8286
11273SOL     OW40676   5.062   1.269   7.774  0.0850 -0.5755 -0.5543
11273SOL    HW140677   5.152   1.298   7.761 -0.6538  1.5723 -1.2966
11273SOL    HW240678   5.042   1.215   7.697  0.2915  0.1525 -1.1283
11274SOL     OW40679   8.886   5.108   0.359 -0.4759  0.1324  0.6284
11274SOL    HW140680   8.871   5.202   0.347  0.3424  0.2110  0.0588
11274SOL    HW240681   8.812   5.078   0.410 -1.6275  0.7853 -0.5726
11275SOL     OW40682   1.555  12.005   8.916  0.4690  0.0879  0.4816
11275SOL    HW140683   1.647  11.991   8.892  0.1252 -2.3825  0.2452
11275SOL    HW240684   1.555  12.002   9.011  0.8383  1.9816  0.5685
11276SOL     OW40685   7.615   8.085   5.666  0.0452 -0.5890  0.0064
11276SOL    HW140686   7.582   8.155   5.723  0.0693 -1.2992  0.9161
11276SOL    HW240687   7.695   8.121   5.627  0.7650 -0.5564  1.4618
11277SOL     OW40688   4.868   1.948   5.830 -0.6288 -0.3643 -0.0609
11277SOL    HW140689   4.791   2.005   5.836  0.2317  0.9757 -1.1309
11277SOL    HW240690   4.831   1.859   5.824 -2.0841  0.2253 -0.4106
11278SOL     OW40691   1.464   6.400  10.985 -0.2150  0.2694  0.2128
11278SOL    HW140692   1.383   6.437  11.019 -0.7598  0.5888 -1.3147
11278SOL    HW240693   1.502   6.470  10.932  0.8504 -0.0222  0.5559
11279SOL     OW40694   2.990   0.591   8.486 -0.5953  0.5458  0.2324
11279SOL    HW140695   2.954   0.679   8.491  0.2791  0.8238  2.2305
11279SOL    HW240696   2.921   0.534   8.520 -1.6173  0.2541 -2.1413
11280SOL     OW40697   4.699   2.714  10.689 -0.3720 -0.5606  0.1418
11280SOL    HW140698   4.616   2.695  10.733 -0.1252 -2.4124 -0.1342
11280SOL    HW240699   4.683   2.693  10.597 -0.7787  2.9256 -0.7422
11281SOL     OW40700   0.579   7.896  11.290 -0.0349 -0.4562  0.2159
11281SOL    HW140701   0.658   7.937  11.255  1.3923 -1.8064  1.6770
11281SOL    HW240702   0.573   7.812  11.245 -1.3499  0.0903 -0.7164
11282SOL     OW40703   6.635   1.864   0.299 -0.0909 -0.4411  0.4308
11282SOL    HW140704   6.545   1.890   0.319 -0.1069 -0.1852  0.0352
11282SOL    HW240705   6.627   1.774   0.268 -0.3952  0.0682 -1.0225
11283SOL     OW40706   7.502   6.394   6.999  0.0408  0.2317  0.4786
11283SOL    HW140707   7.491   6.467   6.938  2.0636  1.0336  0.9847
11283SOL    HW240708   7.528   6.320   6.944 -2.4322 -0.3132 -0.0910
11284SOL     OW40709  10.434  11.183   1.860 -0.4633 -0.0387 -0.7373
11284SOL    HW140710  10.371  11.243   1.899  0.3659  1.1806 -1.2017
11284SOL    HW240711  10.481  11.147   1.935  0.1749  1.2180 -0.4935
11285SOL     OW40712   1.364   0.001   1.232  0.7169 -0.6885 -0.0068
11285SOL    HW140713   1.395  -0.027   1.146 -0.0542 -0.6511 -0.2982
11285SOL    HW240714   1.305   0.073   1.215  1.9633  0.5544  0.6880
11286SOL     OW40715   0.880   3.685   7.776 -0.1998 -0.3563  0.5182
11286SOL    HW140716   0.798   3.659   7.819  0.1012 -2.0300  0.1484
11286SOL    HW240717   0.852   3.716   7.690 -0.5295  0.0266  0.7608
11287SOL     OW40718   4.754   3.566   2.040  0.1596 -0.0143 -0.5196
11287SOL    HW140719   4.708   3.486   2.014  1.2015 -1.3427  1.4164
11287SOL    HW240720   4.753   3.563   2.136 -1.0870  3.1103 -0.3260
11288SOL     OW40721  10.390  12.431   1.538 -0.4563  0.1662 -0.1564
11288SOL    HW140722  10.325  12.442   1.608  0.0427  0.1414  0.3102
11288SOL    HW240723  10.369  12.347   1.498  0.5043 -0.7802  1.2763
11289SOL     OW40724   2.394  10.270   8.347 -0.2248 -0.2862  0.0971
11289SOL    HW140725   2.430  10.233   8.427 -1.4704  0.2279  0.9204
11289SOL    HW240726   2.327  10.208   8.319 -0.9097  0.3265  0.3561
11290SOL     OW40727   0.623  10.207  11.621 -0.1576  0.0203 -0.0769
11290SOL    HW140728   0.700  10.220  11.676  0.8322 -2.5756 -0.6810
11290SOL    HW240729   0.571  10.141  11.667 -0.7473 -0.0935 -0.8758
11291SOL     OW40730   7.909   8.865   7.810  0.7003 -0.1713  0.1003
11291SOL    HW140731   7.983   8.848   7.752  0.5063 -0.2079 -0.1355
11291SOL    HW240732   7.871   8.779   7.827  0.1254 -0.0506 -0.5574
11292SOL     OW40733   3.136   5.652   1.872  0.3657 -0.2568  0.2586
11292SOL    HW140734   3.172   5.642   1.784 -0.0533  0.3604  0.0060
11292SOL    HW240735   3.078   5.728   1.865  0.0142 -0.4551  0.9688
11293SOL     OW40736   0.939   2.677   9.367  0.0695 -0.2480 -0.0456
11293SOL    HW140737   0.938   2.738   9.292 -0.7106 -0.6993 -0.4101
11293SOL    HW240738   1.027   2.639   9.365  0.5209  0.7347  0.0938
11294SOL     OW40739   8.234   2.731   4.685  0.0674  0.8544  0.2617
11294SOL    HW140740   8.287   2.770   4.615  1.6899 -0.7525  0.5325
11294SOL    HW240741   8.227   2.639   4.661 -2.0920  0.8872  0.5956
11295SOL     OW40742  11.530  12.523   2.208  0.3192 -0.6764  0.0301
11295SOL    HW140743  11.516  12.535   2.302  2.0620  4.2311 -0.0683
11295SOL    HW240744  11.449  12.555   2.167  1.2596  1.7323 -0.0906
11296SOL     OW40745   3.846   6.775   3.812 -0.2816 -0.0155 -0.2721
11296SOL    HW140746   3.791   6.801   3.739 -0.2872  0.6475 -0.0351
11296SOL    HW240747   3.890   6.696   3.782 -1.4377 -0.6258 -0.4276
11297SOL     OW40748   3.820  11.435   5.170 -0.6479  0.2950 -0.7247
11297SOL    HW140749   3.739  11.445   5.120  0.6455  0.0754 -2.9959
11297SOL    HW240750   3.858  11.523   5.172 -0.9923  0.4445  0.5303
11298SOL     OW40751   8.013   9.703  10.761  0.4433  0.4864  0.6483
11298SOL    HW140752   8.004   9.626  10.817  1.6290  0.2147  0.4952
11298SOL    HW240753   8.099   9.738  10.783 -0.0199  1.6883  0.6017
11299SOL     OW40754  12.465   9.048   9.279 -0.2168 -0.1574  0.3258
11299SOL    HW140755  12.374   9.033   9.255  0.9225 -2.1426 -3.5620
11299SOL    HW240756  12.486   8.977   9.340 -1.2358  0.4432  1.4242
11300SOL     OW40757  10.161   7.456   2.069 -0.1611  0.5059  0.6606
11300SOL    HW140758  10.239   7.417   2.108  0.2200  1.7381  1.1816
11300SOL    HW240759  10.180   7.550   2.066 -0.8177  0.6228 -1.0544
11301SOL     OW40760   9.972   9.002   8.934 -0.5168  1.0941  0.1921
11301SOL    HW140761  10.022   8.921   8.923 -0.5222  1.0461  0.5242
11301SOL    HW240762   9.997   9.056   8.859  0.3400  1.2313  0.5650
11302SOL     OW40763   3.029   7.776   2.987  0.1382 -0.3569  0.4067
11302SOL    HW140764   3.031   7.812   2.898 -0.0194  1.0673  0.9587
11302SOL    HW240765   2.970   7.834   3.035  1.7749  0.1115  1.9367
11303SOL     OW40766   2.620   6.525  12.566  0.2282  0.0907 -0.1012
11303SOL    HW140767   2.592   6.599  12.513 -0.3172 -0.1242 -0.1196
11303SOL    HW240768   2.619   6.450  12.506 -0.0037 -0.0793  0.1123
11304SOL     OW40769  12.456   0.683   2.446  0.5320 -0.6190  0.1154
11304SOL    HW140770  12.538   0.634   2.438 -0.9764 -3.8056  1.9482
11304SOL    HW240771  12.389   0.623   2.413 -1.2695  1.1899  0.2840
11305SOL     OW40772   1.840   0.200   0.632  0.1721  0.3669 -0.1599
11305SOL    HW140773   1.795   0.115   0.634  1.9756 -0.6361  0.9410
11305SOL    HW240774   1.791   0.254   0.693  0.4166 -0.6947  1.0188
11306SOL     OW40775   5.202   1.951   6.599  0.0943 -0.2698 -0.2303
11306SOL    HW140776   5.143   1.876   6.590 -0.0350 -0.2071  0.0938
11306SOL    HW240777   5.236   1.945   6.689 -1.2650  1.0478  0.4189
11307SOL     OW40778   9.822   9.259  10.710 -1.0124  0.0127  0.2973
11307SOL    HW140779   9.882   9.193  10.676 -0.1915 -0.1705  2.0278
11307SOL    HW240780   9.751   9.210  10.749 -0.9613  0.1686  0.5922
11308SOL     OW40781   3.259   1.157   8.513 -0.5940  0.5360  0.3979
11308SOL    HW140782   3.240   1.178   8.422 -0.1055  0.1772  0.2070
11308SOL    HW240783   3.347   1.194   8.528  0.6350 -1.9278 -0.1722
11309SOL     OW40784   1.579   1.701  12.158  0.1018  0.9768 -0.1862
11309SOL    HW140785   1.541   1.677  12.242 -2.0284 -2.9008 -1.9796
11309SOL    HW240786   1.523   1.771  12.125  0.1675  1.6115  1.0102
11310SOL     OW40787   6.743   1.611   5.031  0.2652 -0.2888 -0.8889
11310SOL    HW140788   6.708   1.535   4.984 -0.8901 -0.2428 -0.1477
11310SOL    HW240789   6.832   1.620   4.998 -0.6844  0.1855 -3.6192
11311SOL     OW40790   3.258   2.934   8.605  0.2546 -0.3654 -0.3125
11311SOL    HW140791   3.222   3.016   8.571  0.7868 -0.3268 -0.7954
11311SOL    HW240792   3.323   2.962   8.670  0.2548 -0.4092 -0.2944
11312SOL     OW40793   9.738   1.727   8.653 -0.6058  0.2857 -0.2294
11312SOL    HW140794   9.820   1.775   8.666 -1.2040  1.4325 -0.5729
11312SOL    HW240795   9.745   1.652   8.712  1.1951 -0.3103 -1.0995
11313SOL     OW40796   4.698  11.243   3.166  0.3641 -0.1048  0.3001
11313SOL    HW140797   4.738  11.191   3.097 -0.6479  1.4439 -1.5556
11313SOL    HW240798   4.678  11.180   3.235  1.9431 -1.6100 -0.5524
11314SOL     OW40799   5.730  10.525   4.909  0.6221 -0.1821  0.6683
11314SOL    HW140800   5.750  10.501   5.000 -0.7148  1.3853  1.4394
11314SOL    HW240801   5.801  10.584   4.884  0.5749  0.0060  0.9734
11315SOL     OW40802   9.582   8.012   8.757 -0.9445  0.2114  0.2219
11315SOL    HW140803   9.671   8.039   8.779 -0.6767  0.6144 -1.2338
11315SOL    HW240804   9.573   7.925   8.796 -0.4127  0.7211  1.5476
11316SOL     OW40805  10.256   3.700   7.220  0.2880 -0.0056 -0.2847
11316SOL    HW140806  10.249   3.662   7.307  0.5282  1.0695  0.2283
11316SOL    HW240807  10.304   3.635   7.169 -0.9446 -1.2103  0.0126
11317SOL     OW40808   0.671   6.995   3.958  0.1158 -0.1564 -0.2304
11317SOL    HW140809   0.765   6.975   3.949 -0.1730 -1.2270 -1.1138
11317SOL    HW240810   0.666   7.089   3.945  1.0028 -0.1788 -0.9034
11318SOL     OW40811  10.203   1.317   5.080 -0.2331 -0.1161 -0.5611
11318SOL    HW140812  10.290   1.313   5.118 -0.6135  0.9250  0.5108
11318SOL    HW240813  10.216   1.300   4.987  1.3645  1.7319 -0.7371
11319SOL     OW40814   1.099   8.164  11.328 -0.6117 -0.3067  0.0113
11319SOL    HW140815   1.077   8.126  11.414  0.0287 -1.6014 -0.3676
11319SOL    HW240816   1.176   8.218  11.344 -0.1525 -0.9894  0.1735
11320SOL     OW40817   5.780   8.052  11.610 -0.1379  0.3779  0.4588
11320SOL    HW140818   5.716   7.981  11.607  0.3316 -0.0466  0.2941
11320SOL    HW240819   5.865   8.008  11.619  0.2600  0.8598 -0.6938
11321SOL     OW40820  11.154   5.866   4.861  0.1669  0.1349 -0.2932
11321SOL    HW140821  11.124   5.918   4.935  0.9798  0.2281 -0.0170
11321SOL    HW240822  11.127   5.915   4.784 -0.1943  0.3168 -0.0530
11322SOL     OW40823   7.059   7.848   2.363 -0.4793 -0.2893  0.5424
11322SOL    HW140824   7.083   7.776   2.304 -0.0194 -0.7000  1.2104
11322SOL    HW240825   6.981   7.887   2.325 -0.4646 -0.8599 -0.0714
11323SOL     OW40826   1.347   1.887   6.054 -0.6223 -0.2532 -0.4312
11323SOL    HW140827   1.409   1.944   6.100 -1.9138  1.2465 -0.4611
11323SOL    HW240828   1.389   1.868   5.970  0.5624 -0.7646  0.2572
11324SOL     OW40829   9.209   3.771   4.733 -0.8889  0.0583  0.3781
11324SOL    HW140830   9.215   3.740   4.823 -0.4270 -1.7155 -0.2280
11324SOL    HW240831   9.293   3.814   4.716  0.4854 -2.7035 -0.2598
11325SOL     OW40832  10.597  10.738  11.914  0.3099  0.0152  0.3501
11325SOL    HW140833  10.679  10.778  11.943 -0.1059 -0.2975  2.0634
11325SOL    HW240834  10.573  10.679  11.985 -2.0429  0.9966  0.4456
11326SOL     OW40835  10.129   2.879   3.834 -0.0989 -0.1487  0.0822
11326SOL    HW140836  10.139   2.896   3.928 -3.4788 -0.7051  0.6777
11326SOL    HW240837  10.130   2.966   3.794 -1.3435  0.3486  1.0414
11327SOL     OW40838   0.081   1.133   4.073 -0.2411  0.1996  0.2827
11327SOL    HW140839  -0.009   1.130   4.106  0.6347 -1.3554  2.8643
11327SOL    HW240840   0.099   1.227   4.061 -2.1606  0.5405 -0.2875
11328SOL     OW40841  12.202   8.636  11.105 -0.1140  0.0109  0.1536
11328SOL    HW140842  12.143   8.689  11.051  0.2196 -1.7360 -2.1143
11328SOL    HW240843  12.289   8.671  11.086 -0.1186  0.4246  0.8623
11329SOL     OW40844   0.779   5.796   8.303  0.1714 -0.2224  0.5713
11329SOL    HW140845   0.765   5.889   8.317 -0.8399 -0.0646 -1.1806
11329SOL    HW240846   0.799   5.788   8.210  0.9146 -1.6871  0.8224
11330SOL     OW40847  12.161   7.571   9.749 -0.1947  0.1805 -0.0801
11330SOL    HW140848  12.149   7.664   9.732 -2.0850  0.1595  0.8191
11330SOL    HW240849  12.255   7.558   9.747  0.1240  2.1701  0.0459
11331SOL     OW40850   2.597  10.037   7.872  0.3913  0.1380 -0.1883
11331SOL    HW140851   2.547  10.019   7.793  0.5280  2.3857 -0.8495
11331SOL    HW240852   2.535  10.082   7.930  1.2955  2.0082 -0.6051
11332SOL     OW40853   4.546  10.445   3.770  0.2254 -0.3069  0.0335
11332SOL    HW140854   4.641  10.452   3.770  0.1720  1.8526 -2.1387
11332SOL    HW240855   4.520  10.469   3.859  1.6799  0.1927  0.3410
11333SOL     OW40856   5.227   1.014  12.160  0.5963 -0.0534 -0.3451
11333SOL    HW140857   5.310   0.990  12.199  0.5369  1.1315  0.5482
11333SOL    HW240858   5.161   0.984  12.222  0.3289 -1.0227 -1.0655
11334SOL     OW40859   3.358   0.400   9.746 -0.1703  0.1317  0.3697
11334SOL    HW140860   3.361   0.396   9.841  0.3086  0.5722  0.3815
11334SOL    HW240861   3.449   0.384   9.719  0.2074  2.3431  0.1126
11335SOL     OW40862   8.017   3.372  10.953 -0.4326  0.8907 -0.0917
11335SOL    HW140863   8.043   3.290  10.911 -3.3253 -1.0559  1.5745
11335SOL    HW240864   7.976   3.424  10.884  1.6663  1.1475 -1.2265
11336SOL     OW40865   5.898   3.412   1.341  0.3490  0.4615  0.3233
11336SOL    HW140866   5.888   3.320   1.367  0.3712  0.5710  0.7264
11336SOL    HW240867   5.835   3.459   1.394  0.4560  0.7030  0.2373
11337SOL     OW40868   1.333   5.115   3.924 -0.4285 -0.1585  0.1685
11337SOL    HW140869   1.356   5.022   3.923  0.6594  0.0848  0.7599
11337SOL    HW240870   1.264   5.121   3.990 -1.2555 -0.6939 -0.6247
11338SOL     OW40871   2.162   6.298   0.638  0.7248  0.2817  0.3189
11338SOL    HW140872   2.079   6.256   0.613 -0.1593  2.4780 -0.6424
11338SOL    HW240873   2.212   6.303   0.557  0.0058  2.7411 -0.0368
11339SOL     OW40874   2.105   7.328   5.644  0.1592 -0.1823 -0.6532
11339SOL    HW140875   2.114   7.233   5.646  0.3656 -0.1643 -0.7802
11339SOL    HW240876   2.115   7.351   5.552 -0.7239 -0.1206 -0.7392
11340SOL     OW40877   5.064   3.634   4.454 -0.2158 -0.9849  0.2156
11340SOL    HW140878   5.023   3.712   4.490  0.2634 -0.9536  0.7035
11340SOL    HW240879   5.002   3.603   4.388  0.5645  1.0476 -1.5908
11341SOL     OW40880   0.217   7.651   1.578 -1.0622 -0.4568  0.5368
11341SOL    HW140881   0.224   7.699   1.661 -0.5510 -0.6599  0.6151
11341SOL    HW240882   0.250   7.564   1.598 -0.2944 -0.3074 -0.0502
11342SOL     OW40883   6.590   2.091   7.663 -0.2937 -0.5074 -0.1079
11342SOL    HW140884   6.608   2.185   7.663 -1.3755 -0.2667 -1.1471
11342SOL    HW240885   6.555   2.073   7.750  1.3957 -0.2721  0.6428
11343SOL     OW40886   3.090   6.238   7.299  0.4064 -0.0566  0.1380
11343SOL    HW140887   3.124   6.319   7.339  1.6136 -0.5029  0.0692
11343SOL    HW240888   3.111   6.246   7.206 -0.2041 -0.1017 -0.0086
11344SOL     OW40889  10.303   2.294   4.383 -0.8479 -0.1818 -0.1379
11344SOL    HW140890  10.245   2.365   4.356  0.6829  2.4606  2.8859
11344SOL    HW240891  10.254   2.249   4.452 -0.9675 -0.7019 -0.5584
11345SOL     OW40892   2.764   3.281   3.950  0.1775  0.0144 -0.1525
11345SOL    HW140893   2.724   3.318   3.871 -0.7132 -1.0436 -0.2165
11345SOL    HW240894   2.835   3.342   3.972 -0.7613  1.3374 -0.6858
11346SOL     OW40895   9.152   2.285   5.507  0.0089  0.3723 -0.0917
11346SOL    HW140896   9.141   2.316   5.596  2.0371  1.2895 -0.1122
11346SOL    HW240897   9.186   2.196   5.516  0.9247  0.7319  0.0776
11347SOL     OW40898  11.846   4.323   1.262  0.1091  0.1645 -0.3377
11347SOL    HW140899  11.792   4.244   1.271 -0.2860  0.4655 -0.0508
11347SOL    HW240900  11.936   4.291   1.266 -0.0447 -0.1759  0.6886
11348SOL     OW40901  11.025   1.925   7.473  0.1249 -0.4489 -0.5821
11348SOL    HW140902  11.075   1.980   7.533  2.2709 -2.8583  0.0461
11348SOL    HW240903  10.989   1.856   7.529  0.4373 -1.5953 -1.7413
11349SOL     OW40904   1.352   4.512  11.065 -0.2473  0.2077 -0.2124
11349SOL    HW140905   1.265   4.492  11.031 -0.4363  0.4182  0.1414
11349SOL    HW240906   1.341   4.594  11.113 -0.2584 -0.6876  1.3921
11350SOL     OW40907   4.590   3.453   8.689  0.3765 -0.5846 -0.2790
11350SOL    HW140908   4.599   3.548   8.687  0.3734 -0.5949 -1.4707
11350SOL    HW240909   4.505   3.436   8.648  0.3742 -1.1037 -0.0671
11351SOL     OW40910   0.239   6.681   4.930  0.1355  0.5323  0.0121
11351SOL    HW140911   0.312   6.718   4.980  0.8580 -2.8459  1.7936
11351SOL    HW240912   0.170   6.747   4.935  0.7866  1.1678  4.1168
11352SOL     OW40913  10.435   1.700   7.283 -0.1245  0.0898  0.0783
11352SOL    HW140914  10.507   1.762   7.292  1.2126 -1.1813 -1.2101
11352SOL    HW240915  10.367   1.749   7.237 -0.6552  1.6826  2.3881
11353SOL     OW40916  10.848  10.880  12.305  0.1095 -0.5104  0.2025
11353SOL    HW140917  10.937  10.845  12.314  0.4285 -0.3139 -1.7391
11353SOL    HW240918  10.851  10.963  12.351  1.1174 -0.2337 -0.3257
11354SOL     OW40919   8.693  10.523   9.693  0.3628 -0.0537  0.0356
11354SOL    HW140920   8.673  10.443   9.742 -0.5966  0.5212  0.6083
11354SOL    HW240921   8.785  10.540   9.713  0.1995 -0.2672  1.0277
11355SOL     OW40922   9.635  12.442   4.516 -0.8213  0.8377 -0.3122
11355SOL    HW140923   9.602  12.529   4.536  0.3446  1.3899 -0.7380
11355SOL    HW240924   9.679  12.451   4.432  1.6065  0.4974  0.8152
11356SOL     OW40925   5.294   6.502   2.580 -0.2767  0.7040 -0.3020
11356SOL    HW140926   5.270   6.581   2.530  0.3839  0.3196 -1.2459
11356SOL    HW240927   5.335   6.445   2.515 -1.0279 -0.5515  0.3055
11357SOL     OW40928   0.720   1.960   1.548  0.6181  0.5817 -0.6688
11357SOL    HW140929   0.766   1.877   1.534  1.1478  0.4741  1.3925
11357SOL    HW240930   0.636   1.935   1.586  0.1269  0.9287 -1.5120
11358SOL     OW40931   4.056   1.100   9.473  0.0664 -0.5675 -0.2636
11358SOL    HW140932   3.993   1.143   9.415  0.9568  2.4275  0.7953
11358SOL    HW240933   4.133   1.086   9.419  0.1528  0.2724 -0.3803
11359SOL     OW40934  11.072   2.654   8.872  0.3324  0.0440  0.3400
11359SOL    HW140935  11.025   2.722   8.823 -0.8785 -0.4705  0.7590
11359SOL    HW240936  11.148   2.634   8.818 -1.0736 -0.6563 -1.4537
11360SOL     OW40937   7.782  11.107  11.143 -0.3888  0.2522 -0.2865
11360SOL    HW140938   7.831  11.180  11.180 -0.4257 -0.5628  1.4874
11360SOL    HW240939   7.693  11.140  11.132 -0.3193  0.5938  0.1598
11361SOL     OW40940   6.696   8.688   3.250 -0.0901 -0.7564 -0.5476
11361SOL    HW140941   6.623   8.629   3.272 -1.1580  0.0856 -1.6656
11361SOL    HW240942   6.698   8.689   3.154  0.9030 -0.1614 -0.5341
11362SOL     OW40943   7.128   4.044  12.393 -0.0670 -0.5422 -0.0053
11362SOL    HW140944   7.061   4.051  12.324 -0.1616 -2.1791 -0.1195
11362SOL    HW240945   7.099   4.105  12.460 -0.6429  0.1883 -0.8858
11363SOL     OW40946   5.084   6.670  11.755 -0.9550  0.0531  0.3172
11363SOL    HW140947   5.119   6.615  11.685 -0.9512 -0.1870  0.5070
11363SOL    HW240948   5.155   6.732  11.773 -0.3950 -0.7860  1.0900
11364SOL     OW40949   1.409  10.396   9.033  0.0497  0.2945 -0.1579
11364SOL    HW140950   1.477  10.452   9.072  2.4973 -0.6373 -2.7892
11364SOL    HW240951   1.437  10.307   9.055  0.2648 -0.1397 -2.0698
11365SOL     OW40952   8.056   7.454   7.281 -0.1835 -0.3313  0.1950
11365SOL    HW140953   8.053   7.426   7.373 -0.7539 -0.0400  0.2661
11365SOL    HW240954   8.068   7.549   7.285 -2.5852  0.0463  0.0193
11366SOL     OW40955  12.479   0.234   3.570  0.0480  0.2099  0.1714
11366SOL    HW140956  12.441   0.242   3.658 -0.2562  0.0564  0.0564
11366SOL    HW240957  12.573   0.238   3.584  0.0095  3.3353  0.1964
11367SOL     OW40958   8.941   6.294   3.122 -0.1457 -0.0157  0.6945
11367SOL    HW140959   9.017   6.322   3.072 -0.3733 -0.7593 -0.0735
11367SOL    HW240960   8.970   6.215   3.167 -0.5614 -0.4761  0.1535
11368SOL     OW40961   8.628   5.236   4.867 -0.0546  0.4970  0.0590
11368SOL    HW140962   8.678   5.158   4.889 -0.0689  0.4446 -0.0886
11368SOL    HW240963   8.548   5.204   4.825 -1.0474  0.5123  1.8508
11369SOL     OW40964   8.195  10.586   9.220  0.0520  0.3030  0.1984
11369SOL    HW140965   8.255  10.631   9.281  0.5691  0.2059 -0.2329
11369SOL    HW240966   8.140  10.656   9.185  2.0090  0.9366 -1.8177
11370SOL     OW40967   0.669  11.563   1.495  0.0880  0.5809 -0.5265
11370SOL    HW140968   0.652  11.531   1.407  1.7606  1.1710 -1.1202
11370SOL    HW240969   0.690  11.485   1.546  0.6517  0.3734 -1.0652
11371SOL     OW40970  11.917   5.532   2.265 -0.0384 -0.0672  0.2375
11371SOL    HW140971  11.922   5.441   2.294 -1.3220 -0.0271  0.6243
11371SOL    HW240972  11.913   5.584   2.345  1.5296  0.4146  0.0383
11372SOL     OW40973   4.281  12.570   7.909 -0.0692 -0.1206 -0.2345
11372SOL    HW140974   4.277  12.655   7.953 -0.0863 -0.6275  0.7556
11372SOL    HW240975   4.257  12.507   7.976 -0.7570 -0.8587 -1.1539
11373SOL     OW40976   6.630   9.943   4.431  0.8655  0.0607  0.0888
11373SOL    HW140977   6.600   9.854   4.451 -0.5143 -0.0384 -2.0977
11373SOL    HW240978   6.598   9.996   4.503 -3.6347 -0.2922 -1.3749
11374SOL     OW40979   2.601   3.012   1.358 -0.0397  0.0947  0.4763
11374SOL    HW140980   2.591   2.932   1.410  0.2801  0.6062  1.3380
11374SOL    HW240981   2.526   3.066   1.382 -0.4580 -0.0805 -0.3824
11375SOL     OW40982   3.120   4.737   1.811  0.1647  0.0762  0.2420
11375SOL    HW140983   3.179   4.810   1.831  2.1407 -1.3035 -0.2013
11375SOL    HW240984   3.076   4.763   1.730  1.3680  0.4962 -0.3047
11376SOL     OW40985   5.172  10.412   2.286  0.1167 -0.5918 -0.5717
11376SOL    HW140986   5.208  10.327   2.261 -0.3031 -1.5614  1.8640
11376SOL    HW240987   5.215  10.432   2.369  1.3569  2.3615 -1.8003
11377SOL     OW40988   7.255   9.383  12.133 -0.3138 -0.4859  0.2060
11377SOL    HW140989   7.304   9.340  12.203 -1.4631  0.0294  1.3623
11377SOL    HW240990   7.322   9.431  12.083  0.5350 -0.9436  0.8874
11378SOL     OW40991   5.125   3.265   5.754  0.1950  0.2131 -0.1739
11378SOL    HW140992   5.121   3.172   5.774  1.0397  0.2540  0.2248
11378SOL    HW240993   5.213   3.292   5.780  0.0623  1.0624 -0.5520
11379SOL     OW40994   3.577   6.403  10.527  0.4738 -0.1988  0.4994
11379SOL    HW140995   3.528   6.480  10.556 -0.5468 -0.2281 -0.9925
11379SOL    HW240996   3.627   6.434  10.452  1.0484 -0.6984  0.6725
11380SOL     OW40997  11.299   3.281   8.984  0.4491  0.3820 -0.5868
11380SOL    HW140998  11.248   3.201   8.993 -1.5569  1.6890  0.5513
11380SOL    HW240999  11.301   3.298   8.890 -0.3743 -0.2469 -0.7249
11381SOL     OW41000  10.474   5.315   6.904  0.3628 -0.1443 -0.2458
11381SOL    HW141001  10.529   5.326   6.982 -0.6794 -0.2016  0.5207
11381SOL    HW241002  10.484   5.398   6.856 -0.0412  0.4310  0.6433
11382SOL     OW41003   1.940   0.420   0.460 -0.5532  0.6454  0.2888
11382SOL    HW141004   1.898   0.495   0.503 -0.4010  0.0833  1.4739
11382SOL    HW241005   1.914   0.345   0.514 -2.5806 -0.5398 -2.1308
11383SOL     OW41006   3.431  12.279   6.505  0.6187 -0.1975 -0.4610
11383SOL    HW141007   3.441  12.185   6.489  0.7052 -0.1793 -0.5138
11383SOL    HW241008   3.497  12.320   6.449  1.1060 -0.1513  0.1358
11384SOL     OW41009  12.549   1.023   2.666 -0.3261  0.6601  0.0336
11384SOL    HW141010  12.475   1.019   2.605  1.6290 -2.3645 -2.4796
11384SOL    HW241011  12.561   0.933   2.694  3.5263  0.5697 -1.2964
11385SOL     OW41012   6.515   2.855   8.387 -0.0809 -0.1172  0.1244
11385SOL    HW141013   6.555   2.938   8.410  0.5203  0.2910 -2.1370
11385SOL    HW241014   6.472   2.826   8.467  2.6249  0.6374  2.0098
11386SOL     OW41015   0.368   3.728   8.383 -0.0857 -0.7503 -0.0733
11386SOL    HW141016   0.331   3.687   8.461  1.3637 -2.1497 -0.0533
11386SOL    HW241017   0.302   3.791   8.355 -0.7374 -0.3620  2.1386
11387SOL     OW41018   8.448   1.671   0.733  0.2688 -0.2409  0.2374
11387SOL    HW141019   8.486   1.642   0.650  1.4670  1.8936 -0.0347
11387SOL    HW241020   8.514   1.649   0.799  0.0260 -0.4870  0.4007
11388SOL     OW41021   3.144   4.506   1.028  0.7773 -0.4616  0.4963
11388SOL    HW141022   3.209   4.436   1.016  1.2687 -0.4407  2.6915
11388SOL    HW241023   3.197   4.586   1.032  0.5867 -0.3758  1.6331
11389SOL     OW41024  11.082   5.917   8.334  0.2647 -0.3642  0.7315
11389SOL    HW141025  11.023   5.845   8.356 -2.6204  1.1482 -1.4590
11389SOL    HW241026  11.067   5.982   8.402  0.1376 -0.3838  0.7225
11390SOL     OW41027   9.872   3.396   4.471  0.3977  0.5402  0.4700
11390SOL    HW141028   9.868   3.403   4.566 -0.2478 -0.2011  0.5128
11390SOL    HW241029   9.925   3.318   4.455 -1.4548 -0.7525  0.3072
11391SOL     OW41030   9.920   5.407   5.838 -0.6044 -0.2785  1.1141
11391SOL    HW141031   9.971   5.437   5.763  0.8126  0.2187  2.2225
11391SOL    HW241032   9.831   5.395   5.804  0.6384 -3.5646 -1.5091
11392SOL     OW41033   3.759  10.697   4.126 -0.0307  0.2743 -0.1472
11392SOL    HW141034   3.835  10.707   4.069  0.7675  0.2084  0.8892
11392SOL    HW241035   3.775  10.756   4.199 -0.5887 -0.3292  0.4851
11393SOL     OW41036   5.767   4.760   7.144 -0.1150 -0.0557  0.2272
11393SOL    HW141037   5.752   4.785   7.053 -0.3671  0.4345  0.3984
11393SOL    HW241038   5.768   4.843   7.192 -0.6819 -0.3522  0.7692
11394SOL     OW41039   3.610   7.258  11.726 -0.3492 -0.2736  0.5099
11394SOL    HW141040   3.659   7.185  11.687 -0.9761 -0.8930  0.8516
11394SOL    HW241041   3.661   7.283  11.803 -0.1181 -0.3379  0.3783
11395SOL     OW41042   3.795   5.704   3.300 -0.2532 -0.0455 -0.0622
11395SOL    HW141043   3.814   5.615   3.269 -0.0444 -0.2164  0.5319
11395SOL    HW241044   3.840   5.709   3.385 -3.0438 -0.5565  1.5874
11396SOL     OW41045  10.835  12.074   1.753  0.0811 -0.1443 -0.4333
11396SOL    HW141046  10.762  12.104   1.697 -0.8973  0.0849  0.9163
11396SOL    HW241047  10.870  12.155   1.791 -0.5712 -0.4214  0.8207
11397SOL     OW41048   7.802   8.773   1.240  0.4674 -0.1297 -0.2014
11397SOL    HW141049   7.874   8.742   1.296 -0.0708 -1.0475  0.0115
11397SOL    HW241050   7.842   8.785   1.154  0.9482 -0.3374 -0.0149
11398SOL     OW41051   4.722   3.532   7.611  0.0635  0.2633 -0.5407
11398SOL    HW141052   4.775   3.452   7.611 -0.9571 -0.4608  0.8576
11398SOL    HW241053   4.720   3.560   7.520  3.1071  0.5260 -0.6365
11399SOL     OW41054   1.426   4.844   8.217 -0.0070 -0.6453 -0.4463
11399SOL    HW141055   1.491   4.777   8.236  1.1462  0.9013  1.5006
11399SOL    HW241056   1.353   4.823   8.275  1.3761  1.0729  2.1212
11400SOL     OW41057   7.059   5.156  10.914  0.4851  0.1475  0.1840
11400SOL    HW141058   7.012   5.234  10.942  0.8762 -0.3133  2.3462
11400SOL    HW241059   7.129   5.189  10.858 -0.7458  1.0924 -0.8427
11401SOL     OW41060   9.910  11.321   5.796 -0.6389  0.2452 -0.5473
11401SOL    HW141061   9.994  11.277   5.783 -1.2206 -1.4716  0.9520
11401SOL    HW241062   9.851  11.279   5.734 -0.8709 -0.1689 -0.0640
11402SOL     OW41063  10.186   6.062   8.691  0.1717  0.4299 -0.2849
11402SOL    HW141064  10.159   6.116   8.765 -0.9889  1.2698 -1.2663
11402SOL    HW241065  10.282   6.061   8.696  0.1421 -2.2821  3.0607
11403SOL     OW41066  10.256  10.415   6.256 -0.4762 -0.1849  0.3798
11403SOL    HW141067  10.251  10.476   6.329  1.6520  0.1295  0.3364
11403SOL    HW241068  10.170  10.373   6.253 -1.1207  0.9278  2.0502
11404SOL     OW41069   6.610  12.379   1.289 -0.0251  0.6081  0.4877
11404SOL    HW141070   6.613  12.348   1.380  1.9335  2.8410  1.2861
11404SOL    HW241071   6.603  12.474   1.297  0.5238  0.8691 -1.7155
11405SOL     OW41072   8.417   8.373  11.498 -0.0471 -0.2905 -0.0788
11405SOL    HW141073   8.341   8.429  11.485  1.2590  1.5204 -0.3723
11405SOL    HW241074   8.444   8.390  11.589  0.5738 -0.1335 -0.2832
11406SOL     OW41075   8.509   1.199   0.826 -0.1631 -0.0029  0.4506
11406SOL    HW141076   8.569   1.239   0.763 -0.0299  0.0123  0.5865
11406SOL    HW241077   8.459   1.273   0.860 -0.3409 -0.0300  0.2525
11407SOL     OW41078   3.899   3.148   7.145 -0.0817 -0.2663 -0.8180
11407SOL    HW141079   3.891   3.137   7.240 -0.2747 -0.1776 -0.8220
11407SOL    HW241080   3.851   3.074   7.108 -1.1157  0.4024 -0.8445
11408SOL     OW41081   8.535   3.473   0.630  0.1667 -0.0050 -0.3135
11408SOL    HW141082   8.565   3.400   0.576 -0.4262 -0.3196 -0.2232
11408SOL    HW241083   8.521   3.435   0.717  0.8102  0.4300 -0.0118
11409SOL     OW41084   5.682   3.492   8.639 -0.6752  0.1480  0.3933
11409SOL    HW141085   5.695   3.572   8.589  0.3065  0.3702  0.9834
11409SOL    HW241086   5.761   3.440   8.622 -0.3096  0.2430  1.7383
11410SOL     OW41087   9.677   7.267   0.424  0.2673 -0.4033 -0.1349
11410SOL    HW141088   9.670   7.350   0.472  1.1834 -0.7985  0.7114
11410SOL    HW241089   9.683   7.293   0.332 -0.1779  0.4310  0.0649
11411SOL     OW41090   6.117   9.814  11.351  0.0965  0.0843 -0.3455
11411SOL    HW141091   6.054   9.883  11.329 -0.9349 -0.4258  0.8479
11411SOL    HW241092   6.064   9.735  11.356  0.7975 -0.3420  0.8146
11412SOL     OW41093   0.606  11.888   9.897 -0.2167 -0.4075  0.1995
11412SOL    HW141094   0.534  11.828   9.876 -0.7851 -0.1986  1.4485
11412SOL    HW241095   0.581  11.970   9.854 -1.0410 -0.1672  1.0931
11413SOL     OW41096  12.160   8.955   8.356  0.2623 -0.0978 -0.0584
11413SOL    HW141097  12.198   8.941   8.269 -1.2070  0.5735 -0.8436
11413SOL    HW241098  12.139   9.049   8.357  0.3748 -0.0715  1.0885
11414SOL     OW41099   2.505   6.659   3.210 -0.0839  0.0689 -0.1539
11414SOL    HW141100   2.506   6.746   3.249 -1.1460 -0.1736  0.4536
11414SOL    HW241101   2.420   6.622   3.235 -0.6363 -0.2770 -2.3188
11415SOL     OW41102   7.259   8.616   4.061  0.5750  0.3290  0.4256
11415SOL    HW141103   7.317   8.545   4.034  1.3438  1.0090  0.2639
11415SOL    HW241104   7.275   8.627   4.154 -0.3116 -0.3952  0.6811
11416SOL     OW41105   5.060  10.655   2.533 -0.2916  0.3896  0.2111
11416SOL    HW141106   5.081  10.747   2.516  1.6691 -0.0104  0.1910
11416SOL    HW241107   5.023  10.623   2.451  2.5322  0.2655 -1.1392
11417SOL     OW41108  12.128  12.523   6.521 -0.1085  0.5108 -0.1377
11417SOL    HW141109  12.156  12.596   6.466  0.9249 -0.9159 -1.6258
11417SOL    HW241110  12.095  12.458   6.458 -0.1152 -0.6705  1.0467
11418SOL     OW41111   2.644   3.441   7.930 -0.3695  0.3851 -0.0012
11418SOL    HW141112   2.623   3.368   7.989 -0.1731 -1.4259 -2.0400
11418SOL    HW241113   2.713   3.489   7.975  0.1617 -1.2507  1.0194
11419SOL     OW41114   8.617  10.680   8.130 -0.0164  0.0081 -0.0599
11419SOL    HW141115   8.569  10.604   8.096  1.5990 -0.8372 -0.5712
11419SOL    HW241116   8.676  10.644   8.196  0.3200  0.9105  0.1485
11420SOL     OW41117  11.471   0.558   9.893 -0.3409 -0.0103 -0.0475
11420SOL    HW141118  11.383   0.532   9.920 -0.7367  0.0837 -1.1825
11420SOL    HW241119  11.465   0.566   9.798 -0.1655  3.7886  0.0903
11421SOL     OW41120   1.865   0.589   4.111  0.2681 -0.2066 -0.2374
11421SOL    HW141121   1.935   0.604   4.175 -1.5845  0.5768  1.7180
11421SOL    HW241122   1.912   0.568   4.030  2.7871  1.3547  0.6781
11422SOL     OW41123   0.892   8.338   2.144  0.4801  0.1219 -0.4239
11422SOL    HW141124   0.841   8.326   2.224  0.6985  0.4648 -0.2303
11422SOL    HW241125   0.976   8.296   2.163 -0.2174 -1.7614 -1.2687
11423SOL     OW41126  11.722   9.474   7.212 -0.6468 -0.3403 -0.1070
11423SOL    HW141127  11.796   9.417   7.233 -0.9707 -0.6113  0.3005
11423SOL    HW241128  11.686   9.500   7.296 -1.1723 -0.4153 -0.3033
11424SOL     OW41129   4.751  11.578  10.004 -0.0430 -0.0429  0.4619
11424SOL    HW141130   4.666  11.587   9.960 -0.5898  0.7538  1.6359
11424SOL    HW241131   4.805  11.647   9.964 -0.2302  0.0434  0.3535
11425SOL     OW41132   7.236   9.966  12.403 -0.2503 -0.2868  0.3102
11425SOL    HW141133   7.323   9.935  12.429  0.3241  1.6851  0.9391
11425SOL    HW241134   7.211   9.909  12.331  1.8034 -0.5847 -0.2409
11426SOL     OW41135   6.712   0.358  10.231  0.0625  0.2860  0.6908
11426SOL    HW141136   6.693   0.415  10.156  0.2871 -1.4483 -0.7609
11426SOL    HW241137   6.625   0.334  10.265 -0.0660  0.4929  0.5112
11427SOL     OW41138  12.088   3.983   3.114  0.2418 -0.3016  0.0362
11427SOL    HW141139  12.128   3.901   3.085  0.0378 -0.3788 -0.0290
11427SOL    HW241140  11.993   3.969   3.105  0.2292  0.7233 -2.1518
11428SOL     OW41141   1.713   0.313   5.044 -0.2591  0.5084 -0.2288
11428SOL    HW141142   1.751   0.234   5.005 -1.7868 -0.5684  0.3334
11428SOL    HW241143   1.624   0.286   5.069 -0.1975  1.8869  1.6693
11429SOL     OW41144   9.226   7.271  10.993  0.0321  0.2502  0.3176
11429SOL    HW141145   9.158   7.218  11.034  1.2612 -1.9720 -0.3232
11429SOL    HW241146   9.209   7.360  11.022 -0.3281 -0.8845  4.0358
11430SOL     OW41147   3.869   2.938   4.319 -0.3077 -0.2999 -0.0455
11430SOL    HW141148   3.809   2.996   4.366  1.0572  0.9412  0.2498
11430SOL    HW241149   3.852   2.955   4.227 -1.4327 -1.0729  0.0078
11431SOL     OW41150   8.436  11.120   1.852 -0.2488  0.2968 -0.3708
11431SOL    HW141151   8.513  11.126   1.796 -0.9485  1.3747 -1.2551
11431SOL    HW241152   8.459  11.170   1.930 -0.1136  0.7927 -0.7238
11432SOL     OW41153   2.908  10.225  12.044  0.0703 -0.5879  0.0967
11432SOL    HW141154   2.931  10.226  12.136 -1.3335 -1.1287  0.4839
11432SOL    HW241155   2.822  10.181  12.041 -0.1442 -0.1287 -1.3989
11433SOL     OW41156   5.977   7.567  11.597  0.4811 -0.1029  0.4632
11433SOL    HW141157   6.012   7.608  11.517 -2.1657 -0.1002 -0.8113
11433SOL    HW241158   5.959   7.477  11.571 -0.5535 -0.0591  0.9842
11434SOL     OW41159  10.399   0.312   7.449 -0.1374 -0.0580 -0.1906
11434SOL    HW141160  10.317   0.352   7.479  0.5889  1.3059  0.0194
11434SOL    HW241161  10.435   0.374   7.386  0.4348 -0.9537 -0.7751
11435SOL     OW41162   4.238   7.036   1.516 -0.0714 -0.7119 -0.1440
11435SOL    HW141163   4.195   6.972   1.459  1.3361 -0.5427 -1.4647
11435SOL    HW241164   4.323   7.052   1.475  0.3763  0.5999  1.1833
11436SOL     OW41165   0.982   6.576   7.636 -0.4276 -0.1651 -0.1478
11436SOL    HW141166   1.045   6.521   7.590 -0.2972 -0.4110  0.3196
11436SOL    HW241167   1.028   6.660   7.647  0.3739 -0.7727  1.4289
11437SOL     OW41168   2.468   2.737   3.073  0.2301  0.3018  0.0649
11437SOL    HW141169   2.493   2.813   3.020  1.2697 -0.0635  0.0175
11437SOL    HW241170   2.377   2.754   3.097  0.3535  1.4146 -0.1989
11438SOL     OW41171   1.725   2.791   8.130  0.0401  0.0908  0.1571
11438SOL    HW141172   1.793   2.750   8.077  1.2140  1.5687  0.4600
11438SOL    HW241173   1.740   2.759   8.218 -0.4426 -0.5326  0.0217
11439SOL     OW41174   2.278   0.541   9.503 -0.1041 -0.3465 -0.2463
11439SOL    HW141175   2.247   0.457   9.539 -1.2592 -0.3609 -1.2196
11439SOL    HW241176   2.199   0.583   9.469  0.6054  0.7456 -0.5807
11440SOL     OW41177   5.149   6.675  10.777  0.5043 -0.2524  0.6282
11440SOL    HW141178   5.087   6.621  10.727  1.9768 -0.9713 -0.5164
11440SOL    HW241179   5.095   6.723  10.839 -1.4929  1.0031 -1.9223
11441SOL     OW41180   9.151   0.747   7.373 -0.5426 -0.2098 -0.1512
11441SOL    HW141181   9.104   0.800   7.438 -0.1645 -2.4807  2.1103
11441SOL    HW241182   9.233   0.794   7.360 -0.4268  0.0853  1.4037
11442SOL     OW41183   6.337   1.066   4.123 -0.1521 -0.6609  0.3079
11442SOL    HW141184   6.283   1.056   4.044 -0.5950  2.5514  0.0527
11442SOL    HW241185   6.426   1.045   4.095 -0.4299 -0.3597 -0.8435
11443SOL     OW41186   8.011  12.351   7.516  0.0089 -0.3807  0.0265
11443SOL    HW141187   8.008  12.412   7.442 -0.3177 -2.7637 -2.0528
11443SOL    HW241188   8.102  12.324   7.521  0.3637  0.9273  1.6031
11444SOL     OW41189   6.316   4.462   5.227 -0.1679 -0.6041 -0.1548
11444SOL    HW141190   6.381   4.394   5.245  1.4487  1.0272  0.4547
11444SOL    HW241191   6.311   4.513   5.307 -2.4633 -0.8205 -0.0826
11445SOL     OW41192   5.622   4.566   6.836  0.1236 -0.1512  0.4788
11445SOL    HW141193   5.569   4.645   6.837 -0.4735 -0.5412  0.2760
11445SOL    HW241194   5.591   4.515   6.911  3.1940  1.4981  3.1351
11446SOL     OW41195   5.767  12.084   8.225 -0.0098  0.3290 -0.4067
11446SOL    HW141196   5.763  12.029   8.147  0.0921  0.5626 -0.5769
11446SOL    HW241197   5.749  12.024   8.297  0.0456  0.0828 -0.5949
11447SOL     OW41198   9.626   0.075  11.160 -0.4102 -0.3330 -0.2974
11447SOL    HW141199   9.720   0.073  11.180 -0.5101 -1.4612  0.0974
11447SOL    HW241200   9.605  -0.015  11.134 -1.1459  0.1678 -1.5319
11448SOL     OW41201   9.586   0.675  10.240 -0.3276 -0.2880  0.7588
11448SOL    HW141202   9.538   0.742  10.192 -0.6491 -0.5493  0.7053
11448SOL    HW241203   9.675   0.709  10.248 -0.1723 -0.4088 -0.3503
11449SOL     OW41204  11.147   6.533   1.227  0.2422 -0.1237  0.2038
11449SOL    HW141205  11.088   6.598   1.189  0.3484  0.6001  1.2195
11449SOL    HW241206  11.102   6.502   1.305  1.1508  0.3773  0.9475
11450SOL     OW41207   1.429  12.547   0.952  0.1241 -0.0772  0.0135
11450SOL    HW141208   1.496  12.609   0.982  0.1072 -0.8399  1.7899
11450SOL    HW241209   1.479  12.476   0.911  0.2970  0.1422 -0.1538
11451SOL     OW41210   4.252   6.540   7.419 -0.1345  0.1818  0.0850
11451SOL    HW141211   4.232   6.468   7.360  3.0370 -1.8260  1.2035
11451SOL    HW241212   4.258   6.617   7.362 -2.4957 -0.5890 -1.3116
11452SOL     OW41213   2.292   7.313   1.929  0.1963  0.4270  0.1915
11452SOL    HW141214   2.247   7.366   1.995  1.0272 -0.3315  1.3920
11452SOL    HW241215   2.296   7.226   1.967  1.1668  0.1037 -0.6378
11453SOL     OW41216   7.858   7.265   7.790  0.1408  0.0207  0.2968
11453SOL    HW141217   7.947   7.253   7.823 -0.2484 -1.6044  0.8304
11453SOL    HW241218   7.857   7.219   7.706  0.2947  1.6564 -0.6636
11454SOL     OW41219   6.922   5.418   9.810  0.4140 -0.7455  0.0063
11454SOL    HW141220   6.850   5.360   9.785 -0.1555 -0.3899  0.7945
11454SOL    HW241221   6.950   5.386   9.895  0.5835 -0.3118  0.1127
11455SOL     OW41222  11.305   4.685   7.138 -0.3557  0.0330 -0.3936
11455SOL    HW141223  11.317   4.747   7.211 -0.3331 -0.2787 -0.1321
11455SOL    HW241224  11.353   4.607   7.165 -1.4194 -0.5524 -0.1687
11456SOL     OW41225   8.902   6.627   9.230  0.9065 -0.1114 -0.7186
11456SOL    HW141226   8.936   6.608   9.142 -0.5294 -1.2942 -1.0850
11456SOL    HW241227   8.830   6.564   9.240 -0.6924  1.7823  0.2363
11457SOL     OW41228   4.980   3.287   2.103  0.2357 -0.2367  0.5388
11457SOL    HW141229   4.988   3.269   2.010 -0.0157  0.3556  0.3988
11457SOL    HW241230   4.894   3.250   2.127  0.5862 -0.9827  0.6887
11458SOL     OW41231  12.501  10.990   3.263 -1.0052 -0.0626 -0.3465
11458SOL    HW141232  12.551  11.070   3.244 -1.1745 -0.2384 -1.6707
11458SOL    HW241233  12.460  11.007   3.348  1.0708  0.1892  0.6750
11459SOL     OW41234   6.899  12.026   1.885  0.7002  0.1855 -0.7431
11459SOL    HW141235   6.944  11.950   1.850  0.0307 -0.4833 -0.1765
11459SOL    HW241236   6.807  12.000   1.889  0.7951 -0.0473  2.1303
11460SOL     OW41237   8.568   8.216   0.375 -0.2398  0.8081 -0.0049
11460SOL    HW141238   8.622   8.269   0.433 -1.5722 -0.0294  2.1351
11460SOL    HW241239   8.614   8.133   0.369  0.4245  1.2281 -1.0642
11461SOL     OW41240  11.740   9.332   9.498 -0.2768  0.1613  0.4348
11461SOL    HW141241  11.653   9.318   9.461 -0.9811  1.7002  1.3918
11461SOL    HW241242  11.723   9.368   9.585  1.3224  1.3884  0.2803
11462SOL     OW41243  11.445   3.044  11.759  0.5174 -0.7480  0.0713
11462SOL    HW141244  11.410   3.018  11.674  1.2046 -0.2759 -0.3688
11462SOL    HW241245  11.519   2.984  11.773  0.8146 -0.3981  0.0213
11463SOL     OW41246   8.388  10.829   9.095 -0.1693 -0.0152  0.0440
11463SOL    HW141247   8.349  10.825   9.182  1.0014 -3.2461  0.5658
11463SOL    HW241248   8.347  10.905   9.054 -1.8203  0.7882  2.8831
11464SOL     OW41249   8.350  11.299   9.059 -0.2344 -0.8584  0.2520
11464SOL    HW141250   8.393  11.256   8.985  1.0020  0.6844  0.0125
11464SOL    HW241251   8.296  11.231   9.098  0.5338 -2.2213 -0.9437
11465SOL     OW41252   4.038   2.641   8.567  0.1506 -0.3017 -0.5368
11465SOL    HW141253   4.002   2.563   8.524  0.4302 -0.7353  0.0052
11465SOL    HW241254   4.061   2.700   8.495  0.5657 -0.9955 -0.9826
11466SOL     OW41255   7.866   9.391   3.919  0.1429 -0.2704 -0.0692
11466SOL    HW141256   7.789   9.439   3.889 -0.5672 -0.4410  1.4083
11466SOL    HW241257   7.929   9.459   3.941 -0.9183  0.0684  2.1708
11467SOL     OW41258   2.264  10.965   4.274 -0.1177  0.2083  0.4058
11467SOL    HW141259   2.322  10.889   4.265 -1.2649 -0.8188  1.3461
11467SOL    HW241260   2.199  10.953   4.204 -1.5946 -0.9242  1.8912
11468SOL     OW41261   5.520   5.069   1.788  0.1880  0.4186  0.3336
11468SOL    HW141262   5.494   5.086   1.878 -2.5760 -0.1980 -0.2571
11468SOL    HW241263   5.486   5.144   1.739  1.0077  0.3775 -0.3288
11469SOL     OW41264   3.145   9.990   5.505 -0.3664 -0.1322  0.2139
11469SOL    HW141265   3.120   9.912   5.454 -0.1766 -0.1582  0.1612
11469SOL    HW241266   3.091   9.985   5.584  2.8714 -2.8447  2.5063
11470SOL     OW41267   8.773   5.567   5.213  0.6053 -0.1624  0.2243
11470SOL    HW141268   8.861   5.568   5.174  0.3288  0.1832 -0.4134
11470SOL    HW241269   8.734   5.650   5.185 -0.0138 -0.4288  0.2861
11471SOL     OW41270   2.123   6.587   6.330 -0.3573 -0.2560 -0.1430
11471SOL    HW141271   2.073   6.507   6.344 -0.3277 -0.0911  1.0631
11471SOL    HW241272   2.213   6.565   6.354 -0.3580  0.1382  0.2473
11472SOL     OW41273   3.327  11.471   5.285  0.0810 -0.3766  0.0464
11472SOL    HW141274   3.296  11.551   5.243 -0.0809 -0.3808  0.1591
11472SOL    HW241275   3.251  11.437   5.333 -0.2669 -1.3633 -1.1397
11473SOL     OW41276   1.044   1.684   0.900  0.0437  0.4727 -0.5577
11473SOL    HW141277   1.115   1.629   0.866 -0.6857 -0.7139 -0.2286
11473SOL    HW241278   0.982   1.690   0.827 -0.4183 -0.1297 -0.2295
11474SOL     OW41279   3.496   6.999   5.498  0.2018  0.2285 -0.3067
11474SOL    HW141280   3.481   6.905   5.502  1.1156  0.0996  2.9775
11474SOL    HW241281   3.437   7.036   5.564 -0.7712  2.1330 -2.1208
11475SOL     OW41282  12.423   2.613   5.216  0.1869  0.0075  0.2165
11475SOL    HW141283  12.431   2.696   5.168 -0.6596 -0.0099  0.0185
11475SOL    HW241284  12.337   2.579   5.189  0.5571 -0.9657  0.2486
11476SOL     OW41285  10.170   9.800   4.187 -0.3757  0.2589  0.1862
11476SOL    HW141286  10.081   9.837   4.183 -0.1626  0.7669  0.1083
11476SOL    HW241287  10.198   9.795   4.096 -0.9273 -1.4087  0.0733
11477SOL     OW41288  10.173  10.801  10.883  0.0251  0.0841  0.2318
11477SOL    HW141289  10.258  10.834  10.855 -0.8098  1.6934 -0.5321
11477SOL    HW241290  10.149  10.855  10.958 -1.1271  0.9379 -0.7094
11478SOL     OW41291   2.070   0.661   3.006 -0.5769 -0.1031  0.5194
11478SOL    HW141292   2.165   0.649   3.003 -0.6716 -1.0273  0.8752
11478SOL    HW241293   2.040   0.635   2.919 -0.5262 -0.0711  0.4924
11479SOL     OW41294   4.055   4.467   4.405 -0.0525  0.1253  0.3601
11479SOL    HW141295   4.082   4.487   4.315 -0.1895 -1.6291 -0.1029
11479SOL    HW241296   3.961   4.483   4.406  0.0564  0.7780  0.3796
11480SOL     OW41297  12.036  12.101   3.683  0.0287  0.3423 -0.0262
11480SOL    HW141298  12.083  12.107   3.600  2.1597  0.1028  1.1018
11480SOL    HW241299  11.961  12.045   3.664  3.0236 -3.8286 -0.7928
11481SOL     OW41300   4.051   0.521   4.612 -0.0858 -0.7159  0.8433
11481SOL    HW141301   4.108   0.494   4.539 -0.0377  0.2769  0.4993
11481SOL    HW241302   3.986   0.451   4.619 -0.2761 -0.6790 -0.3631
11482SOL     OW41303  12.487   7.160  12.522 -0.2693 -0.5467 -0.1422
11482SOL    HW141304  12.470   7.178  12.615  1.6336  0.1771  0.1314
11482SOL    HW241305  12.493   7.247  12.482  3.7529 -0.4791  0.1261
11483SOL     OW41306  11.257   5.153   5.557  0.2458 -0.3160 -0.2697
11483SOL    HW141307  11.305   5.070   5.547 -1.4001 -1.0840 -2.5145
11483SOL    HW241308  11.286   5.207   5.483 -0.5707  0.1179 -0.2864
11484SOL     OW41309   0.595   3.252   0.728  0.0632 -0.0094 -0.2740
11484SOL    HW141310   0.584   3.168   0.772 -2.5033 -0.7384 -2.0761
11484SOL    HW241311   0.509   3.293   0.732  0.8053  1.7257 -1.0221
11485SOL     OW41312   0.455   3.342   8.523  0.2776  0.2648 -0.3236
11485SOL    HW141313   0.407   3.302   8.451  0.2354  0.0494 -0.1750
11485SOL    HW241314   0.542   3.301   8.520  0.3253  0.3672 -0.3474
11486SOL     OW41315   4.569   8.139   8.066 -0.4542  0.2057 -0.4079
11486SOL    HW141316   4.640   8.074   8.063 -0.2193  0.3744  0.8921
11486SOL    HW241317   4.489   8.087   8.057 -0.1766  0.1259 -3.0336
11487SOL     OW41318   1.730   2.207   2.947 -0.2068 -0.6577 -0.1060
11487SOL    HW141319   1.774   2.223   2.863 -2.2576  2.3631 -0.7508
11487SOL    HW241320   1.649   2.162   2.923 -0.7877  0.1950  0.2304
11488SOL     OW41321   2.082   1.433   1.660  0.0703 -0.0218  0.1413
11488SOL    HW141322   2.061   1.491   1.733  1.8674  0.3519  0.4222
11488SOL    HW241323   2.149   1.374   1.694 -1.7068 -2.3195 -0.1449
11489SOL     OW41324   9.531  11.117   0.055  0.5812 -0.0598  0.2151
11489SOL    HW141325   9.455  11.068   0.086 -0.4134  1.1114 -0.2730
11489SOL    HW241326   9.496  11.172  -0.015  1.5520  1.5860  0.9653
11490SOL     OW41327  11.166  11.575   1.981  0.1470 -0.5316 -0.2112
11490SOL    HW141328  11.183  11.583   2.075 -1.9375 -1.2630  0.2621
11490SOL    HW241329  11.188  11.661   1.945  2.3937 -0.6725  0.6551
11491SOL     OW41330   5.874   9.957   8.647  0.5616  0.1028 -0.5516
11491SOL    HW141331   5.916   9.882   8.605 -0.4390 -0.7907 -0.0216
11491SOL    HW241332   5.901   9.952   8.739  1.5139  1.1587 -0.7530
11492SOL     OW41333   6.605   7.773   5.770 -0.1180  0.0448 -0.1694
11492SOL    HW141334   6.587   7.839   5.703 -1.6753 -0.6360 -0.4740
11492SOL    HW241335   6.626   7.694   5.721  2.0457  0.3424  0.1964
11493SOL     OW41336   9.154   5.432   4.682  0.0057  0.0898  0.1389
11493SOL    HW141337   9.247   5.420   4.665 -0.0146  0.1806 -0.0334
11493SOL    HW241338   9.126   5.500   4.621 -0.7312 -1.6723 -1.5614
11494SOL     OW41339   1.752   9.708   8.166 -0.2382 -0.2350 -1.0836
11494SOL    HW141340   1.695   9.632   8.181  1.1754 -1.3390 -1.0423
11494SOL    HW241341   1.748   9.722   8.071  0.3612 -1.1024 -1.2512
11495SOL     OW41342   4.661   1.250   1.524 -0.0121 -0.4557  0.4478
11495SOL    HW141343   4.723   1.237   1.596  1.6041  1.9073 -0.3905
11495SOL    HW241344   4.702   1.206   1.449 -0.7062 -1.1623  0.4621
11496SOL     OW41345   7.104  10.525   0.258  0.7307 -0.1387 -0.3559
11496SOL    HW141346   7.156  10.540   0.337 -0.7129  0.3483  0.5430
11496SOL    HW241347   7.030  10.472   0.289  0.1390  0.0706 -1.3945
11497SOL     OW41348  11.301  10.899   8.850 -0.1179  0.0301  0.6424
11497SOL    HW141349  11.372  10.927   8.793 -1.7199 -0.0196 -1.4904
11497SOL    HW241350  11.328  10.813   8.882  0.7548 -0.0128 -0.1794
11498SOL     OW41351   6.268  11.772   9.236  0.3788  0.1703  0.4129
11498SOL    HW141352   6.263  11.723   9.154 -0.5664  0.0670  0.5299
11498SOL    HW241353   6.339  11.835   9.221  0.9779 -0.5982 -0.0712
11499SOL     OW41354   9.526   2.844   4.371 -0.1474  0.3298 -0.3456
11499SOL    HW141355   9.572   2.760   4.371  0.5667  0.6737  1.4750
11499SOL    HW241356   9.433   2.821   4.368  0.0604 -0.4857 -0.6481
11500SOL     OW41357   1.014   4.528   5.252 -0.4092 -0.8155 -0.2878
11500SOL    HW141358   1.039   4.436   5.250  1.4950 -0.3276 -0.8101
11500SOL    HW241359   1.093   4.575   5.226 -1.0891  1.0291  0.7851
11501SOL     OW41360   7.828   8.626   6.437  0.0389 -0.6942  0.7691
11501SOL    HW141361   7.791   8.597   6.354 -0.6680  1.3324  0.3234
11501SOL    HW241362   7.752   8.641   6.493  0.4782 -1.4005  1.5758
11502SOL     OW41363  11.720   9.032   7.511  0.0618  0.2120 -0.5638
11502SOL    HW141364  11.630   9.065   7.515  0.1290  0.3181  1.7776
11502SOL    HW241365  11.738   9.020   7.418 -3.0434 -1.6503 -1.0596
11503SOL     OW41366   1.325   0.539   2.406  1.1775  0.3185  0.4172
11503SOL    HW141367   1.300   0.591   2.483 -1.2974 -0.9466  0.5680
11503SOL    HW241368   1.381   0.469   2.442 -0.5081 -0.6632  1.2611
11504SOL     OW41369   7.982   2.357   9.750 -0.0566  0.2427 -0.2091
11504SOL    HW141370   8.059   2.411   9.770  0.2673 -0.0282 -0.7085
11504SOL    HW241371   7.938   2.405   9.679  0.1959 -0.1065 -0.6071
11505SOL     OW41372   8.249   4.290   1.470  0.0080  0.3201 -0.3659
11505SOL    HW141373   8.190   4.309   1.396 -0.9539 -1.8296 -0.2202
11505SOL    HW241374   8.275   4.199   1.457  2.8465  0.9984 -0.0466
11506SOL     OW41375   2.475   8.217   7.062  0.0025 -0.2634 -0.0504
11506SOL    HW141376   2.493   8.132   7.021 -0.9039 -1.3632  1.6790
11506SOL    HW241377   2.557   8.265   7.056 -0.0746 -0.3469 -3.0270
11507SOL     OW41378   0.899   0.922   1.384  0.3945  0.9964 -0.1412
11507SOL    HW141379   0.879   0.945   1.475 -0.2926  0.4171 -0.1386
11507SOL    HW241380   0.838   0.974   1.332 -0.5038 -0.0410 -0.1750
11508SOL     OW41381   7.217   6.823   0.218  0.3637 -0.8914 -0.1656
11508SOL    HW141382   7.239   6.800   0.308 -1.3597 -0.9237  0.2772
11508SOL    HW241383   7.302   6.832   0.174  1.3276  0.7722  1.8452
11509SOL     OW41384   2.208  11.874   5.259  0.3074  0.2250  0.2369
11509SOL    HW141385   2.214  11.912   5.171  0.5666 -1.4902 -0.5340
11509SOL    HW241386   2.294  11.889   5.298  0.4141  0.3912 -0.0629
11510SOL     OW41387   1.758   2.066   8.549  0.0270 -0.1301  0.0973
11510SOL    HW141388   1.782   2.088   8.458 -1.8283  0.2009 -0.3503
11510SOL    HW241389   1.675   2.020   8.541  0.5661 -1.4257  1.5555
11511SOL     OW41390   5.651  12.123   3.832 -0.3204 -0.1614  0.2409
11511SOL    HW141391   5.639  12.117   3.927  1.3807 -0.1611  0.4830
11511SOL    HW241392   5.599  12.051   3.797 -1.6334  0.3296  1.0907
11512SOL     OW41393   4.558   0.266  10.564  0.6510 -0.1036  0.3733
11512SOL    HW141394   4.467   0.253  10.538  1.2062 -1.0125 -1.2551
11512SOL    HW241395   4.574   0.197  10.629  0.3886 -0.4490  0.0799
11513SOL     OW41396   6.746   6.734   0.489 -0.4147 -0.3454 -0.2916
11513SOL    HW141397   6.774   6.786   0.565 -0.1617  0.3680 -0.8564
11513SOL    HW241398   6.662   6.772   0.464  0.7937  1.3266 -2.0699
11514SOL     OW41399   4.716   3.825   5.731 -0.4954  0.1790  0.7532
11514SOL    HW141400   4.755   3.848   5.816 -0.7998 -2.6812  1.7794
11514SOL    HW241401   4.623   3.818   5.749 -0.7069  0.5858 -0.1245
11515SOL     OW41402   7.975   3.847   1.032  0.3313 -0.1753  0.0337
11515SOL    HW141403   8.004   3.766   1.075  0.6170  0.2565  0.6655
11515SOL    HW241404   7.893   3.869   1.076 -0.1835 -0.5636 -0.7083
11516SOL     OW41405   8.539   0.424   8.142  0.2676  0.0652  0.1478
11516SOL    HW141406   8.481   0.480   8.194  0.4455  0.4181 -0.0305
11516SOL    HW241407   8.562   0.352   8.201 -1.7360 -1.0147 -0.3243
11517SOL     OW41408   2.914   8.328   5.282  0.0582  1.1949  0.1075
11517SOL    HW141409   2.939   8.389   5.350 -2.1907  1.8906  0.3711
11517SOL    HW241410   2.926   8.377   5.200 -1.1325  1.8041  0.2798
11518SOL     OW41411  11.033   7.146   4.978  0.1367 -0.1068 -0.0344
11518SOL    HW141412  11.087   7.210   5.024  0.3339  0.4763 -1.0510
11518SOL    HW241413  10.950   7.146   5.025 -0.1665  1.5398 -0.5232
11519SOL     OW41414  11.499   6.985   5.931 -0.7264  0.0109  0.1009
11519SOL    HW141415  11.453   7.045   5.872  0.6083 -0.0889 -1.0883
11519SOL    HW241416  11.591   7.009   5.923 -0.4460 -0.4904  1.6163
11520SOL     OW41417   4.502   2.214  10.080 -0.5132  0.0824  0.4056
11520SOL    HW141418   4.411   2.188  10.094  0.1752 -1.5549  2.3023
11520SOL    HW241419   4.554   2.144  10.120  1.6807 -0.1160 -2.4649
11521SOL     OW41420  11.333   5.747   7.792  0.1490 -0.3256 -0.8208
11521SOL    HW141421  11.250   5.778   7.755 -0.0909 -0.9387 -0.8061
11521SOL    HW241422  11.307   5.695   7.868  0.6453  1.0193  0.3065
11522SOL     OW41423  10.553   4.726   3.845  0.8993 -0.2948 -0.2072
11522SOL    HW141424  10.636   4.686   3.821  0.4035 -1.5446  0.1049
11522SOL    HW241425  10.487   4.677   3.795  0.2024 -0.4429  0.8137
11523SOL     OW41426   0.777   9.749   2.819  0.0362  0.4994 -0.5745
11523SOL    HW141427   0.701   9.769   2.764 -0.3385  0.3523 -0.1165
11523SOL    HW241428   0.765   9.658   2.845  1.6659 -0.3378 -2.5431
11524SOL     OW41429   4.061   9.961   5.415 -0.6569 -0.2422 -0.3324
11524SOL    HW141430   4.005   9.936   5.342 -0.2065 -2.2755 -0.0426
11524SOL    HW241431   4.104   9.879   5.441  0.4350  0.7548  1.1471
11525SOL     OW41432   4.712  10.678   7.666  0.4019  0.1838 -0.1786
11525SOL    HW141433   4.708  10.591   7.706 -0.4356 -0.7063 -2.0945
11525SOL    HW241434   4.622  10.709   7.664  0.4373  0.2563 -1.2414
11526SOL     OW41435   3.541   6.584   1.869 -0.2035  0.1780 -0.6339
11526SOL    HW141436   3.572   6.657   1.922 -0.8050  0.8204 -1.1596
11526SOL    HW241437   3.572   6.603   1.781  0.4878 -0.7123 -0.6098
11527SOL     OW41438   1.456   7.715  11.923 -0.3554  0.4350  0.2516
11527SOL    HW141439   1.442   7.658  11.848 -1.9249  0.4204  0.5175
11527SOL    HW241440   1.448   7.804  11.889 -2.7017  0.4294  0.6136
11528SOL     OW41441   8.399   9.365   8.734 -0.4053  0.0167 -0.6724
11528SOL    HW141442   8.334   9.422   8.776 -0.6443 -0.9341  0.3059
11528SOL    HW241443   8.479   9.417   8.732 -0.2691 -0.0354  1.4152
11529SOL     OW41444   6.462   4.817   0.682  0.2654 -0.2088  0.4852
11529SOL    HW141445   6.511   4.735   0.691  1.2062  0.3119  0.1981
11529SOL    HW241446   6.526   4.885   0.700 -0.4355  0.4820  0.3985
11530SOL     OW41447   7.306   8.250   8.828 -0.5788  0.4432  0.8299
11530SOL    HW141448   7.324   8.159   8.852 -0.6742 -0.2270 -1.3678
11530SOL    HW241449   7.341   8.258   8.739 -1.2845  2.3308  0.6813
11531SOL     OW41450   3.899   3.321  10.675  0.2893  0.8992 -0.3535
11531SOL    HW141451   3.895   3.300  10.768 -3.2574 -0.4571 -0.6314
11531SOL    HW241452   3.848   3.402  10.667 -2.3049 -0.7036 -1.3371
11532SOL     OW41453  11.771  12.391   3.726  0.2363 -0.8555 -0.0584
11532SOL    HW141454  11.786  12.481   3.752 -1.7112 -0.3159 -0.6165
11532SOL    HW241455  11.857  12.349   3.733  0.6401  0.2003  3.2970
11533SOL     OW41456   0.965   0.522  10.591 -0.4846  0.3512  0.0256
11533SOL    HW141457   0.906   0.459  10.633 -1.6251  0.8845 -0.7436
11533SOL    HW241458   0.993   0.479  10.511 -1.1068  0.7257 -0.4014
11534SOL     OW41459   3.547   2.489   0.302 -0.0247  0.5493  0.3451
11534SOL    HW141460   3.454   2.481   0.326 -0.3889 -1.6600 -1.4909
11534SOL    HW241461   3.581   2.400   0.308  1.5343  1.0455 -0.6871
11535SOL     OW41462  12.539  11.348   9.832  0.3783 -0.3310 -0.2766
11535SOL    HW141463  12.564  11.434   9.799 -1.5696  0.1558 -0.6237
11535SOL    HW241464  12.520  11.297   9.753 -0.6703 -0.3349 -0.0391
11536SOL     OW41465   5.869  10.454   1.419 -0.7276 -0.2460  0.2529
11536SOL    HW141466   5.910  10.431   1.335 -0.3830  1.0306  0.0466
11536SOL    HW241467   5.902  10.542   1.438 -1.9635  0.0815  0.9975
11537SOL     OW41468   5.972   2.660   8.354 -0.0399 -0.5639  0.3769
11537SOL    HW141469   5.904   2.614   8.304 -0.3238 -0.2868  0.5085
11537SOL    HW241470   5.942   2.751   8.358  1.2311 -0.0281 -1.1651
11538SOL     OW41471   1.297   9.702   9.364  0.1341  0.1497  0.6986
11538SOL    HW141472   1.331   9.640   9.300 -2.0469 -0.5945  0.1439
11538SOL    HW241473   1.368   9.764   9.378  1.4945 -1.0054 -0.6695
11539SOL     OW41474   6.533   7.928   5.528 -0.2072 -0.9659  0.4514
11539SOL    HW141475   6.462   7.991   5.546  1.0637  0.5059  0.5365
11539SOL    HW241476   6.495   7.867   5.466 -1.4898 -0.0757  0.3032
11540SOL     OW41477   8.173   6.148   9.559 -0.5191 -0.4478  0.2968
11540SOL    HW141478   8.242   6.082   9.569  0.0821  0.3065  1.2943
11540SOL    HW241479   8.110   6.107   9.500 -0.8592 -2.4816  1.9610
11541SOL     OW41480   7.342   5.161  11.267  0.3799  0.2815 -0.2510
11541SOL    HW141481   7.389   5.148  11.350 -1.5723 -0.5480  0.7958
11541SOL    HW241482   7.319   5.254  11.267 -1.6606 -0.1443  1.3791
11542SOL     OW41483   9.629   7.447   9.538  0.3200  0.1226  0.0530
11542SOL    HW141484   9.580   7.437   9.620 -0.0525 -0.1629 -0.2006
11542SOL    HW241485   9.663   7.537   9.542  1.5148 -0.3496  1.1676
11543SOL     OW41486   5.715   6.477   0.710  0.1836  0.4696 -0.6374
11543SOL    HW141487   5.683   6.448   0.795  0.1063  1.3396 -0.3544
11543SOL    HW241488   5.639   6.518   0.668  0.3047  0.3379 -0.9923
11544SOL     OW41489   5.196   5.056   9.759  0.3989  0.1739 -0.2797
11544SOL    HW141490   5.166   5.097   9.841  0.0937 -0.4485 -0.0775
11544SOL    HW241491   5.227   4.970   9.785  1.9307  0.6077 -0.5685
11545SOL     OW41492   5.228   4.295   4.831 -0.3350 -0.0863  0.2601
11545SOL    HW141493   5.198   4.362   4.769 -0.2616 -0.9596 -0.7380
11545SOL    HW241494   5.203   4.212   4.791 -1.9099 -0.6449  2.2590
11546SOL     OW41495   2.128   5.486   1.843 -0.1695  0.8645 -0.0010
11546SOL    HW141496   2.095   5.555   1.785  1.7041  2.0620  0.2584
11546SOL    HW241497   2.187   5.532   1.903  1.0439 -0.9395  0.2732
11547SOL     OW41498   0.769   6.160  11.939  0.6737  0.2066  0.4298
11547SOL    HW141499   0.694   6.142  11.995 -0.9700  0.5695 -1.5671
11547SOL    HW241500   0.754   6.108  11.860  2.4233  0.4495 -0.1038
11548SOL     OW41501   7.076   1.050  10.590 -0.3884 -0.5723  0.7600
11548SOL    HW141502   7.026   1.048  10.672 -0.4447 -2.0193  0.7165
11548SOL    HW241503   7.156   1.098  10.612 -0.4157 -0.9215  1.6701
11549SOL     OW41504   1.728  11.588   9.746 -0.0462 -0.1218 -0.2041
11549SOL    HW141505   1.739  11.510   9.691 -0.6327 -0.2459 -0.1458
11549SOL    HW241506   1.776  11.657   9.699 -2.4550  0.3838 -2.1595
11550SOL     OW41507   8.167   2.948   1.347  0.4106 -0.4706 -0.2127
11550SOL    HW141508   8.201   2.865   1.314  0.1883 -0.3531 -0.7620
11550SOL    HW241509   8.089   2.925   1.397  0.7864 -0.6588  0.2927
11551SOL     OW41510   1.906   7.939   4.024 -0.1111 -0.1461  0.4320
11551SOL    HW141511   1.932   7.852   4.055 -2.4291 -0.6702  1.1303
11551SOL    HW241512   1.811   7.935   4.018 -0.2165  2.0657 -0.4536
11552SOL     OW41513   0.170   7.052   3.874 -0.1266  0.4369 -0.1158
11552SOL    HW141514   0.106   7.001   3.923  0.3897  0.1184  0.2392
11552SOL    HW241515   0.189   7.127   3.929  0.8618 -0.2010  0.4423
11553SOL     OW41516   7.379  10.263   0.866 -0.0445  0.0894  0.2564
11553SOL    HW141517   7.324  10.251   0.789  0.3939 -0.1128 -0.0314
11553SOL    HW241518   7.328  10.226   0.939  0.5220 -1.9288 -0.3186
11554SOL     OW41519   8.239  10.325   6.240  0.3888  0.2644  0.2393
11554SOL    HW141520   8.207  10.399   6.292  1.7803  0.8609  0.2935
11554SOL    HW241521   8.255  10.256   6.304 -1.0880 -0.1736  0.1676
11555SOL     OW41522  10.560   9.506  11.878  0.7096  0.6207 -0.2056
11555SOL    HW141523  10.564   9.535  11.969  1.2144 -2.3206  0.8440
11555SOL    HW241524  10.643   9.459  11.865 -0.8908 -2.3049 -0.8241
11556SOL     OW41525   5.712   9.601  10.484 -0.2976 -0.1158  0.0944
11556SOL    HW141526   5.728   9.516  10.443  2.6717  0.9233 -1.1513
11556SOL    HW241527   5.763   9.599  10.565 -1.0097  0.1495  0.5586
11557SOL     OW41528   7.608   8.800  10.416  0.4831 -0.1036  0.2649
11557SOL    HW141529   7.561   8.856  10.353 -2.5604 -1.1526  1.4182
11557SOL    HW241530   7.591   8.711  10.386 -1.8867 -0.6971  2.9185
11558SOL     OW41531   6.311   7.554   1.890 -0.1582 -0.1189 -0.3004
11558SOL    HW141532   6.380   7.619   1.902  0.5568 -0.4885 -2.0543
11558SOL    HW241533   6.288   7.561   1.797  0.3173 -2.7284 -0.6857
11559SOL     OW41534   7.186   3.171   1.383 -0.3753  0.6860 -0.4222
11559SOL    HW141535   7.250   3.189   1.314  0.1441 -0.2549 -0.2012
11559SOL    HW241536   7.168   3.257   1.421  1.4797  0.8861  0.1297
11560SOL     OW41537   3.303   1.288  10.264  0.5657  0.5063 -0.3891
11560SOL    HW141538   3.305   1.215  10.325  3.2487  0.9037  0.1268
11560SOL    HW241539   3.234   1.265  10.201 -2.3389  0.0682  2.6379
11561SOL     OW41540   4.962  11.881   0.855 -0.8160  1.0867  0.3340
11561SOL    HW141541   4.884  11.844   0.816 -0.1022 -0.1898  0.0617
11561SOL    HW241542   5.028  11.876   0.786 -0.0313  0.5065  1.1045
11562SOL     OW41543   9.147  11.029   0.378  0.3925  0.1766  0.9256
11562SOL    HW141544   9.051  11.031   0.379  0.3254 -0.2177 -0.9825
11562SOL    HW241545   9.172  11.075   0.458 -1.3813  3.0041  0.0210
11563SOL     OW41546   3.464   3.158   4.674 -0.5226  0.1956  0.1723
11563SOL    HW141547   3.464   3.063   4.672  1.6806  0.1477  0.6454
11563SOL    HW241548   3.375   3.182   4.648 -1.0375 -1.9632 -0.2470
11564SOL     OW41549   2.216   3.485   2.726  0.2305  0.2033 -0.4637
11564SOL    HW141550   2.281   3.529   2.672 -0.5521  1.9436 -0.0445
11564SOL    HW241551   2.251   3.488   2.815  0.1250  0.0786 -0.4170
11565SOL     OW41552   1.325   5.387  11.999  0.0772 -0.1885 -0.8193
11565SOL    HW141553   1.231   5.377  11.990  0.2392 -0.7466 -2.2264
11565SOL    HW241554   1.361   5.303  11.970  1.0005  0.0371 -0.3611
11566SOL     OW41555   8.359   5.886   2.702 -0.0339 -0.4081  0.1584
11566SOL    HW141556   8.413   5.936   2.642 -1.4079  0.6321 -0.2559
11566SOL    HW241557   8.366   5.795   2.672 -0.2004  0.0095 -1.2006
11567SOL     OW41558  11.356   8.105   0.367  0.3579 -0.2659  0.2512
11567SOL    HW141559  11.292   8.102   0.297 -0.3646 -1.5232  0.9276
11567SOL    HW241560  11.334   8.183   0.418 -1.0984 -1.0551  0.8767
11568SOL     OW41561   9.110   3.294  10.167 -0.5194 -0.0006  0.0209
11568SOL    HW141562   9.179   3.358  10.187  3.5668 -2.9295 -2.7928
11568SOL    HW241563   9.097   3.246  10.249  2.3100 -0.4587  0.3150
11569SOL     OW41564   8.472   5.842   0.383 -0.8069 -0.3487  0.7396
11569SOL    HW141565   8.490   5.935   0.398 -1.5143 -0.1999  0.6847
11569SOL    HW241566   8.538   5.816   0.318  0.9883 -0.5136  2.5089
11570SOL     OW41567   4.992   2.748   4.147  0.2335  0.0068  0.1369
11570SOL    HW141568   5.073   2.740   4.196  0.2862 -0.1355  0.0277
11570SOL    HW241569   5.014   2.717   4.059 -0.4371 -2.0026  0.6199
11571SOL     OW41570   3.631   1.623   0.010 -0.2726  0.2119 -0.3058
11571SOL    HW141571   3.595   1.592  -0.073 -1.4149 -0.5445  0.4357
11571SOL    HW241572   3.626   1.718   0.004 -1.1387  0.1477 -0.7742
11572SOL     OW41573   5.477   3.299   7.276  0.6778  0.1651  0.1806
11572SOL    HW141574   5.563   3.329   7.305  1.6447 -2.3034  0.1714
11572SOL    HW241575   5.493   3.211   7.241 -2.0449 -1.0809  1.6652
11573SOL     OW41576   6.800  10.420   3.715  0.1853 -0.0675  0.0744
11573SOL    HW141577   6.792  10.490   3.650  0.5500  0.1817  0.2922
11573SOL    HW241578   6.854  10.353   3.672  1.6231  0.7065  0.5990
11574SOL     OW41579   3.804   7.460   4.581 -0.1637 -0.2810  0.2700
11574SOL    HW141580   3.722   7.429   4.543  0.3870 -1.2108 -0.1856
11574SOL    HW241581   3.810   7.417   4.666 -0.7143  0.7193  0.8396
11575SOL     OW41582   7.766   5.554  10.762  0.1469 -0.6401  0.1704
11575SOL    HW141583   7.781   5.499  10.684 -0.1684 -1.0391  0.3887
11575SOL    HW241584   7.852   5.561  10.803  0.1232 -1.2800  0.3394
11576SOL     OW41585   0.736  12.288   3.111  0.3045  0.4413 -0.0044
11576SOL    HW141586   0.714  12.326   3.196  1.9518  0.9396  0.2223
11576SOL    HW241587   0.731  12.194   3.125  0.5176  0.5211  0.6454
11577SOL     OW41588  11.206   3.000   4.163  0.2631 -0.0652  0.0623
11577SOL    HW141589  11.124   3.021   4.118  0.0808  0.4568  0.6305
11577SOL    HW241590  11.179   2.963   4.247  0.6100  0.4500  0.4045
11578SOL     OW41591   3.725   1.714   1.148  0.6896 -0.1894  0.0231
11578SOL    HW141592   3.803   1.660   1.138  0.9171  0.2370 -0.6361
11578SOL    HW241593   3.759   1.802   1.163  0.3455  0.0394 -0.4938
11579SOL     OW41594   1.510   5.419   0.354  0.2110  0.1291 -0.0447
11579SOL    HW141595   1.595   5.417   0.310  0.0291 -3.2207 -0.5693
11579SOL    HW241596   1.470   5.502   0.327  2.9259  1.3725 -0.4890
11580SOL     OW41597   7.665   3.045   7.352 -0.2941 -0.2834  0.0973
11580SOL    HW141598   7.675   3.119   7.292 -1.9776  0.3883  0.5806
11580SOL    HW241599   7.717   3.069   7.429 -1.4821  0.8456  0.6007
11581SOL     OW41600   1.294  11.837   5.163  0.2888 -0.1722 -0.3799
11581SOL    HW141601   1.360  11.881   5.216  0.8087 -0.1144 -1.0509
11581SOL    HW241602   1.277  11.897   5.091  0.2798 -0.6361 -0.7754
11582SOL     OW41603   1.984   1.916  11.255 -0.0948 -0.1037 -0.3007
11582SOL    HW141604   1.950   1.933  11.167 -2.0344  1.7801  0.7249
11582SOL    HW241605   1.947   1.986  11.309  0.1948 -1.7663  2.2211
11583SOL     OW41606   5.391  10.395   1.135 -0.0145  0.3041 -0.7752
11583SOL    HW141607   5.461  10.380   1.071 -0.5376 -1.5875 -0.9690
11583SOL    HW241608   5.437  10.406   1.218  0.5538 -0.6307 -0.9478
11584SOL     OW41609   8.635  10.009   8.543 -0.0312 -0.2633 -0.4436
11584SOL    HW141610   8.583  10.046   8.615 -1.5887 -1.9672 -0.6102
11584SOL    HW241611   8.725  10.036   8.562 -0.7170  1.2974  0.8390
11585SOL     OW41612   6.054   1.494   3.187 -0.0413  0.4106 -0.0251
11585SOL    HW141613   6.034   1.481   3.095  2.1351  1.1281 -0.6519
11585SOL    HW241614   6.090   1.410   3.216 -2.1628 -0.3328  0.6537
11586SOL     OW41615   4.348   8.498   0.662 -0.3081 -0.0840 -0.1870
11586SOL    HW141616   4.325   8.564   0.597  0.1130  0.5620  0.3041
11586SOL    HW241617   4.347   8.545   0.746  1.0867 -0.4102  0.0445
11587SOL     OW41618   5.584  11.102   3.910 -0.0733 -0.0825  0.2460
11587SOL    HW141619   5.499  11.114   3.952 -0.4873 -0.4877 -0.4636
11587SOL    HW241620   5.631  11.184   3.928 -0.9125  0.4846 -0.0329
11588SOL     OW41621   8.910   5.409  11.322 -0.1944 -0.1877 -0.1052
11588SOL    HW141622   8.999   5.413  11.287 -0.5237 -0.5700 -1.0196
11588SOL    HW241623   8.866   5.485  11.283 -0.2154  0.1473  0.5458
11589SOL     OW41624   1.206   8.515   6.678 -0.6651  0.1267  0.0393
11589SOL    HW141625   1.229   8.456   6.750 -0.7823  1.4829  1.2322
11589SOL    HW241626   1.156   8.460   6.618  2.1513 -1.8965 -0.6624
11590SOL     OW41627   9.747   1.256   8.265  0.1336 -0.2932  0.2720
11590SOL    HW141628   9.769   1.243   8.173 -0.4953 -1.4290  0.2742
11590SOL    HW241629   9.805   1.327   8.293  0.8186 -0.3996 -0.8156
11591SOL     OW41630   2.874   2.110   0.873  0.7181 -0.1904 -0.7525
11591SOL    HW141631   2.836   2.152   0.950 -0.2973  1.8297 -2.2619
11591SOL    HW241632   2.964   2.141   0.870  1.2465 -1.5357  0.4507
11592SOL     OW41633   6.001   3.383   0.302  0.8768  0.3129  0.0758
11592SOL    HW141634   6.029   3.342   0.384  4.1379  0.4687 -0.7904
11592SOL    HW241635   6.076   3.370   0.243 -1.2999  0.2647 -2.8852
11593SOL     OW41636  11.739   6.624   1.458 -0.7671 -0.0618  0.1951
11593SOL    HW141637  11.789   6.617   1.377 -0.8566  0.6689  0.0662
11593SOL    HW241638  11.695   6.709   1.451 -2.7077 -1.0168 -0.0915
11594SOL     OW41639   9.830   6.758  10.303  0.2166  0.5219 -0.4868
11594SOL    HW141640   9.791   6.831  10.254 -0.7065  0.9529  0.8159
11594SOL    HW241641   9.761   6.733  10.365  0.7568 -1.0701 -0.5124
11595SOL     OW41642   3.535   5.912   1.727 -0.3979  0.2447 -0.5847
11595SOL    HW141643   3.586   5.993   1.721 -0.3898  0.2066 -1.0933
11595SOL    HW241644   3.599   5.846   1.755  0.0216  0.0457 -1.9172
11596SOL     OW41645   3.029   2.104   4.302 -0.2981 -0.5618  0.5890
11596SOL    HW141646   3.077   2.145   4.230  0.9459 -1.8095  0.6648
11596SOL    HW241647   3.098   2.069   4.359 -1.2951 -1.9362  0.9860
11597SOL     OW41648   6.587   2.863   3.548  0.0992 -0.2509 -0.1645
11597SOL    HW141649   6.571   2.950   3.584  0.6192 -0.8510  1.5912
11597SOL    HW241650   6.683   2.855   3.547  0.0554 -0.7855 -0.3528
11598SOL     OW41651   5.801  10.760   0.136  0.1595  0.4980  0.2306
11598SOL    HW141652   5.724  10.718   0.098  1.2060  0.7836 -2.4570
11598SOL    HW241653   5.875  10.710   0.100  1.2753  1.5653  0.9692
11599SOL     OW41654  10.429   6.761  11.795 -0.1783 -0.4496  0.3584
11599SOL    HW141655  10.501   6.720  11.747  0.4756  1.1121 -0.0281
11599SOL    HW241656  10.443   6.855  11.785 -1.7717 -0.1111  1.0396
11600SOL     OW41657   2.984   4.284   7.557  0.0526 -0.0074  0.1092
11600SOL    HW141658   3.008   4.249   7.643 -0.0471 -0.7823 -0.1649
11600SOL    HW241659   2.889   4.275   7.553  0.2175 -1.6902 -0.7786
11601SOL     OW41660   8.971   5.701   3.599 -0.1800 -0.2657 -0.5706
11601SOL    HW141661   8.941   5.689   3.690 -0.4705  1.0920 -0.4705
11601SOL    HW241662   9.021   5.782   3.601  1.2133 -1.0630 -1.3181
11602SOL     OW41663   1.904   7.079   3.463  0.3318  0.3157 -0.2634
11602SOL    HW141664   1.886   7.044   3.376 -0.8985 -0.1389  0.1505
11602SOL    HW241665   1.959   7.155   3.448  0.1703  0.2083 -1.4385
11603SOL     OW41666   3.287   5.039  11.078 -0.0230 -0.0749 -0.0688
11603SOL    HW141667   3.360   5.096  11.058  1.2562 -0.9876  1.7468
11603SOL    HW241668   3.224   5.054  11.007  0.9098  2.3978 -0.4588
11604SOL     OW41669   5.436   3.725   6.442  0.1387 -0.2082 -0.2726
11604SOL    HW141670   5.391   3.652   6.486 -1.5175  0.4065 -0.8782
11604SOL    HW241671   5.505   3.750   6.503 -1.8970  0.4270  1.9128
11605SOL     OW41672  10.153   9.311   5.390  0.0048  0.2097  0.1558
11605SOL    HW141673  10.192   9.227   5.368 -0.7397 -0.0140 -0.3642
11605SOL    HW241674  10.089   9.327   5.320  1.1326  1.8960 -0.5587
11606SOL     OW41675   8.299  11.501  10.623 -0.2724  0.8036  0.2385
11606SOL    HW141676   8.225  11.510  10.562 -0.3453  1.1398  0.3697
11606SOL    HW241677   8.262  11.459  10.700  0.0108 -0.4322 -0.2799
11607SOL     OW41678  12.277   9.505   3.786  0.1413 -0.4248 -0.3051
11607SOL    HW141679  12.197   9.452   3.785 -0.8768  1.0637 -0.3629
11607SOL    HW241680  12.346   9.444   3.812 -0.8529 -1.9450 -1.0884
11608SOL     OW41681   8.231   5.322  12.303 -0.0258 -0.7220 -0.3486
11608SOL    HW141682   8.316   5.300  12.265  0.5484  0.1293  0.3696
11608SOL    HW241683   8.245   5.313  12.398 -1.1607 -1.9649 -0.2818
11609SOL     OW41684   8.475   4.339   0.813  0.4810 -0.6156  0.3918
11609SOL    HW141685   8.411   4.329   0.742  2.0019 -0.1609 -1.1158
11609SOL    HW241686   8.471   4.255   0.860 -1.3952 -0.4861  0.5426
11610SOL     OW41687   8.454  10.664   5.190  0.3203 -0.1580 -0.2560
11610SOL    HW141688   8.404  10.624   5.260 -2.2315 -0.5352 -2.1765
11610SOL    HW241689   8.465  10.755   5.218  0.6122 -0.6128  1.2261
11611SOL     OW41690   4.566   2.396   8.486  0.4078  0.7424  0.4461
11611SOL    HW141691   4.662   2.398   8.489  0.4243  1.0757 -0.1559
11611SOL    HW241692   4.544   2.303   8.489  0.7553  0.6605  0.5045
11612SOL     OW41693  11.829   2.722   3.399 -0.0384  0.2341 -0.1827
11612SOL    HW141694  11.753   2.779   3.384  0.2699  0.5188 -0.6834
11612SOL    HW241695  11.898   2.759   3.344  0.0237 -0.9280 -0.9096
11613SOL     OW41696   2.903   4.381   1.830  0.3576  0.8830  0.0576
11613SOL    HW141697   2.926   4.420   1.745 -0.8227  0.8023 -0.3161
11613SOL    HW241698   2.873   4.454   1.883  0.8387  0.8913  0.3217
11614SOL     OW41699   1.293   6.562   5.632  0.0997 -0.0124  0.0393
11614SOL    HW141700   1.260   6.543   5.545 -0.2382  1.3442 -0.1633
11614SOL    HW241701   1.349   6.639   5.620 -0.1214  0.3250  1.0355
11615SOL     OW41702   3.455   6.213   0.377  0.0444 -0.2647 -0.2683
11615SOL    HW141703   3.463   6.154   0.303  2.4836 -1.3059  0.7185
11615SOL    HW241704   3.461   6.157   0.454  0.0404  1.0307  0.7206
11616SOL     OW41705   2.751  11.665   6.079  0.1488 -0.1865  0.4812
11616SOL    HW141706   2.707  11.695   6.159 -0.0829 -1.2357  0.7637
11616SOL    HW241707   2.835  11.631   6.109 -0.7522 -2.4847  0.6125
11617SOL     OW41708   3.825   3.086   1.726 -0.0401 -0.6700  0.3335
11617SOL    HW141709   3.858   3.151   1.665  1.0893 -1.2544  0.2980
11617SOL    HW241710   3.764   3.034   1.674 -0.8189  0.2271  0.3192
11618SOL     OW41711   2.709   6.123   8.509 -0.4589 -0.2511  0.6311
11618SOL    HW141712   2.618   6.104   8.485 -0.7762  2.2997 -0.5565
11618SOL    HW241713   2.703   6.163   8.596 -0.8125  1.8690 -0.2975
11619SOL     OW41714  12.515   2.358   1.978 -0.0295 -0.6715  0.2863
11619SOL    HW141715  12.514   2.451   2.001  0.6223 -0.7263  0.5847
11619SOL    HW241716  12.546   2.356   1.887 -0.4402 -0.5760  0.1439
11620SOL     OW41717   8.365   4.681   8.215  0.9535 -0.1284  0.0553
11620SOL    HW141718   8.352   4.724   8.300 -0.7733 -0.7084  0.1302
11620SOL    HW241719   8.383   4.753   8.154 -3.9723  1.2451 -0.2609
11621SOL     OW41720   0.025   8.820   3.941 -0.2156 -0.1834 -0.9115
11621SOL    HW141721   0.054   8.901   3.984 -2.2677  1.7620 -2.9601
11621SOL    HW241722   0.073   8.751   3.988  3.3860  2.2842 -0.4817
11622SOL     OW41723   7.360  12.219   6.708 -0.2543 -0.6242  0.6827
11622SOL    HW141724   7.281  12.272   6.719  0.0222  0.1608 -0.8570
11622SOL    HW241725   7.353  12.151   6.775 -2.1696 -0.4849  0.6763
11623SOL     OW41726   9.746   8.446   3.485  0.2426 -0.0649  0.5069
11623SOL    HW141727   9.771   8.388   3.413  0.1002  0.1985  0.2443
11623SOL    HW241728   9.769   8.534   3.455 -0.4101  0.1190  0.5176
11624SOL     OW41729   0.422   2.314   8.269  0.3104  0.1476 -0.4362
11624SOL    HW141730   0.394   2.405   8.279  1.3919  0.3450  1.1536
11624SOL    HW241731   0.506   2.319   8.223 -0.9142 -0.2811 -2.8935
11625SOL     OW41732  10.471   1.712   5.245 -0.1077  0.1653 -0.5437
11625SOL    HW141733  10.411   1.650   5.204  0.3063 -1.1938  0.8071
11625SOL    HW241734  10.457   1.699   5.339  0.8104  1.3245 -0.2304
11626SOL     OW41735   6.303   4.702   5.062  0.5302 -0.1796  0.4387
11626SOL    HW141736   6.264   4.665   4.983  0.9440  0.3904 -0.0424
11626SOL    HW241737   6.230   4.708   5.124 -1.2365  4.4351 -1.6264
11627SOL     OW41738   9.818   9.990   5.806 -0.1424 -0.3606 -0.0733
11627SOL    HW141739   9.805  10.024   5.717  0.0938  0.3498  0.1546
11627SOL    HW241740   9.906   9.952   5.804  1.5588  3.1024  0.8449
11628SOL     OW41741   7.824   3.747   4.594 -0.1160  0.6903 -0.3871
11628SOL    HW141742   7.837   3.836   4.625  0.0447  0.5862 -0.1533
11628SOL    HW241743   7.880   3.740   4.516 -0.8599  1.0902 -0.9682
11629SOL     OW41744  11.374   4.693   5.733 -0.1518  0.0830  0.0816
11629SOL    HW141745  11.457   4.651   5.710  1.3268  2.4135  0.7307
11629SOL    HW241746  11.334   4.635   5.797  0.8650 -1.1937 -0.3989
11630SOL     OW41747   5.376   8.874  12.126  0.4623 -0.4486 -0.2689
11630SOL    HW141748   5.286   8.862  12.155  0.5559  0.6358  0.5099
11630SOL    HW241749   5.374   8.954  12.073  1.1939  0.3354  0.8486
11631SOL     OW41750   8.548   9.344   4.521  0.0806 -0.2294  0.4782
11631SOL    HW141751   8.503   9.358   4.438  2.0317 -0.2632 -0.6660
11631SOL    HW241752   8.539   9.250   4.538 -0.1680 -0.2572  0.1872
11632SOL     OW41753  11.539   0.107  11.523  0.2368  0.8489 -0.2229
11632SOL    HW141754  11.514   0.015  11.514 -1.5489  1.3529 -1.0071
11632SOL    HW241755  11.628   0.112  11.490  0.2910 -0.5662 -0.3287
11633SOL     OW41756   1.413  11.145   8.929  0.2512  0.0532  0.4320
11633SOL    HW141757   1.500  11.112   8.904  0.0757  0.5136 -0.8767
11633SOL    HW241758   1.373  11.170   8.846 -1.3736 -0.7114  0.9618
11634SOL     OW41759   5.571  10.298   9.742  0.0418 -0.3836 -0.2628
11634SOL    HW141760   5.486  10.333   9.765  0.7019 -0.1747  2.0570
11634SOL    HW241761   5.564  10.204   9.757  0.0112 -0.4693 -0.7918
11635SOL     OW41762   9.768   4.945   2.385  0.3801 -0.0401  0.3136
11635SOL    HW141763   9.743   4.855   2.405  0.0431 -0.2698 -1.0139
11635SOL    HW241764   9.735   4.997   2.458  0.3786 -0.9668  0.9807
11636SOL     OW41765   3.608   1.884   5.911 -0.2393  0.6997  0.2934
11636SOL    HW141766   3.548   1.870   5.985 -1.0185  0.4618 -0.3720
11636SOL    HW241767   3.556   1.865   5.833  1.3619 -2.1645 -0.2572
11637SOL     OW41768   4.650   6.034   0.104 -0.3589  0.1327  0.7597
11637SOL    HW141769   4.737   5.996   0.095  0.8718  2.3338  2.3191
11637SOL    HW241770   4.614   5.992   0.182 -0.3184 -0.1541  0.6228
11638SOL     OW41771   2.596  11.161   0.765 -0.2838 -0.9044  0.3296
11638SOL    HW141772   2.644  11.139   0.685 -0.7326 -3.3848  0.6752
11638SOL    HW241773   2.538  11.232   0.738  1.2501 -0.0423 -0.9043
11639SOL     OW41774  11.865   9.825   8.181  0.2172  0.5838 -0.3100
11639SOL    HW141775  11.830   9.808   8.094  0.9265  2.1971 -0.9470
11639SOL    HW241776  11.851   9.743   8.229 -1.3112  0.0694 -1.5433
11640SOL     OW41777   1.667   2.336   0.515 -0.9601 -0.0509 -0.2501
11640SOL    HW141778   1.597   2.298   0.569 -0.6157  0.6915  0.7398
11640SOL    HW241779   1.711   2.260   0.476 -2.3196 -0.5305 -0.9175
11641SOL     OW41780   7.197   1.600   3.034  0.1960  0.6242  0.0647
11641SOL    HW141781   7.229   1.512   3.051  2.0585  1.0116 -1.1467
11641SOL    HW241782   7.119   1.587   2.980  0.6761 -0.2956 -0.4349
11642SOL     OW41783  12.006  10.848   8.411 -0.1525  0.2156  0.4231
11642SOL    HW141784  12.100  10.848   8.391 -0.3170 -0.5734 -0.4356
11642SOL    HW241785  11.965  10.878   8.330 -0.6686  0.0909  0.6353
11643SOL     OW41786   3.682   4.197   1.393  0.0497  0.2355  0.3696
11643SOL    HW141787   3.605   4.225   1.344  0.1494  1.6251  0.9567
11643SOL    HW241788   3.689   4.103   1.375  0.2841  0.7152 -2.5089
11644SOL     OW41789   2.504   0.218   9.936  0.2004  0.2134  0.6788
11644SOL    HW141790   2.470   0.290   9.882  0.8307  0.5202  0.6779
11644SOL    HW241791   2.498   0.141   9.880  0.2546  0.4133  0.3957
11645SOL     OW41792   2.536  11.995   1.552  0.0661 -0.4251  0.3200
11645SOL    HW141793   2.619  11.981   1.507  0.5185  1.5380  0.4354
11645SOL    HW241794   2.555  11.976   1.644  0.2932 -0.3377  0.2904
11646SOL     OW41795   7.302   3.708  11.139  0.5928 -0.2827  0.1490
11646SOL    HW141796   7.252   3.626  11.148 -2.2673  1.0969 -1.7720
11646SOL    HW241797   7.345   3.701  11.054  0.6052  0.0676  0.1256
11647SOL     OW41798   5.149   8.822   1.546 -0.1373 -0.0038 -0.1029
11647SOL    HW141799   5.137   8.901   1.493 -0.5456  0.5062  0.7323
11647SOL    HW241800   5.237   8.829   1.582  0.2214 -0.4556 -0.8660
11648SOL     OW41801   2.110   3.950   1.395  0.2240  0.4196 -0.9083
11648SOL    HW141802   2.122   4.015   1.464  1.1009 -0.1854 -0.4693
11648SOL    HW241803   2.114   4.000   1.314  1.0559  0.8930 -0.5806
11649SOL     OW41804   4.222   6.677  11.730  0.5686  0.5099 -0.0360
11649SOL    HW141805   4.196   6.739  11.799 -1.7699 -0.6609  0.2525
11649SOL    HW241806   4.248   6.732  11.657 -0.1596  1.8440  0.6682
11650SOL     OW41807   9.500   2.899  12.433  0.3639 -0.4528 -0.5769
11650SOL    HW141808   9.519   2.985  12.396  1.5855 -0.6510 -0.4602
11650SOL    HW241809   9.441   2.857  12.370 -0.8459  0.7331 -0.2754
11651SOL     OW41810  10.064   4.016   2.844  0.4731 -0.0078 -0.1004
11651SOL    HW141811  10.101   3.943   2.894  0.8821 -0.3392 -0.8686
11651SOL    HW241812  10.108   4.093   2.879  1.0193 -0.2733 -0.1892
11652SOL     OW41813   8.864   2.722  10.887 -0.1278  0.3662 -0.3740
11652SOL    HW141814   8.946   2.706  10.934 -0.7442  0.4304  0.7616
11652SOL    HW241815   8.886   2.786  10.820  0.3461  1.8996  1.2029
11653SOL     OW41816   5.028  11.711   8.267  0.0294  0.2465  0.4146
11653SOL    HW141817   4.992  11.767   8.198  0.8905 -1.4321 -1.5264
11653SOL    HW241818   5.115  11.747   8.285  0.3479 -0.0626 -0.4142
11654SOL     OW41819   4.878   1.929  12.543 -0.6222 -0.6623 -0.4122
11654SOL    HW141820   4.962   1.886  12.532  0.5919  1.6392 -0.9007
11654SOL    HW241821   4.849   1.904  12.631  1.9904  0.6332  0.9546
11655SOL     OW41822   0.446  11.609  11.022  0.6259 -0.8183 -0.2406
11655SOL    HW141823   0.456  11.516  11.042 -2.9134 -1.1678  0.5430
11655SOL    HW241824   0.461  11.653  11.106  2.9463 -0.5429 -0.7467
11656SOL     OW41825  11.197   9.907   7.356 -0.2000 -0.3652 -0.8403
11656SOL    HW141826  11.275   9.895   7.300  0.6933 -0.5098  0.3993
11656SOL    HW241827  11.208   9.842   7.426 -0.7668  0.5021  0.0692
11657SOL     OW41828   7.330  10.654   1.468  0.5531  0.0873 -0.0647
11657SOL    HW141829   7.357  10.562   1.460  0.5856  0.0478  0.4399
11657SOL    HW241830   7.253  10.662   1.411 -0.8056 -0.8233  1.5467
11658SOL     OW41831   1.434   5.987   4.366 -0.7232 -0.2060  0.5289
11658SOL    HW141832   1.452   5.989   4.460 -0.7391  3.8651  0.6250
11658SOL    HW241833   1.503   6.041   4.327 -2.3162  0.5635 -1.4026
11659SOL     OW41834   2.408   3.929   8.337 -0.0718 -0.4676 -0.0948
11659SOL    HW141835   2.369   3.975   8.263 -1.1470  0.5006  1.0249
11659SOL    HW241836   2.388   3.984   8.413  0.3037 -1.8194  1.0329
11660SOL     OW41837  11.820   8.733  10.076  0.8131  0.1001 -0.0343
11660SOL    HW141838  11.756   8.663  10.063  1.2320 -0.0922 -1.1888
11660SOL    HW241839  11.823   8.746  10.170 -2.9618  2.0173  0.0077
11661SOL     OW41840   5.953   2.911   5.369 -0.6308  0.0201  0.2844
11661SOL    HW141841   5.993   2.848   5.309 -1.0786  1.9067 -2.1687
11661SOL    HW241842   5.946   2.864   5.452  3.4240 -1.5513 -0.0599
11662SOL     OW41843   3.104   8.472   4.303 -0.0142  0.0432 -0.3018
11662SOL    HW141844   3.058   8.556   4.294  1.0762  0.5169 -1.7651
11662SOL    HW241845   3.187   8.485   4.258  1.6039 -0.8097  2.2209
11663SOL     OW41846   0.342   2.630   9.896  0.1236  0.0565  0.0640
11663SOL    HW141847   0.433   2.601   9.899 -0.2727 -1.4552 -1.4310
11663SOL    HW241848   0.333   2.672   9.810 -0.5112  0.5119  0.3468
11664SOL     OW41849   5.744  10.016   4.159  0.7678  0.1258 -0.5713
11664SOL    HW141850   5.773  10.000   4.249  2.2258  1.0800 -0.8265
11664SOL    HW241851   5.681   9.947   4.141  0.3494 -0.0050  1.2281
11665SOL     OW41852   8.169   6.131  10.414 -0.1195 -0.2612  0.7880
11665SOL    HW141853   8.245   6.097  10.462  0.1871  0.9913  1.2284
11665SOL    HW241854   8.117   6.053  10.394  0.9910 -1.0845  0.9746
11666SOL     OW41855   7.125   7.012   3.205 -0.7494  0.3521  0.0500
11666SOL    HW141856   7.147   7.104   3.191 -0.5742  0.2544 -0.3234
11666SOL    HW241857   7.030   7.008   3.193 -0.5275  0.1475 -1.8851
11667SOL     OW41858  11.463   4.586   3.242  0.2115  0.0942  0.3145
11667SOL    HW141859  11.513   4.666   3.256  0.0504  0.0759  1.0619
11667SOL    HW241860  11.464   4.572   3.147  0.6541  0.7099  0.2275
11668SOL     OW41861   8.262  11.506   5.177 -0.2118 -0.2570  0.3107
11668SOL    HW141862   8.230  11.424   5.214 -1.4822 -1.2102 -2.6148
11668SOL    HW241863   8.201  11.572   5.209 -0.5495 -0.8215  0.8628
11669SOL     OW41864   8.227   6.518   8.518  0.0657 -0.3913 -0.0197
11669SOL    HW141865   8.174   6.597   8.524 -1.1880 -1.1350 -0.8148
11669SOL    HW241866   8.256   6.501   8.608 -0.1532  0.6127  0.2516
11670SOL     OW41867  12.481   8.274   7.842  0.2879 -0.4663 -0.1838
11670SOL    HW141868  12.529   8.344   7.887 -1.1408 -1.5328  3.2843
11670SOL    HW241869  12.535   8.197   7.853  0.4896 -0.5235 -1.4554
11671SOL     OW41870   6.833   5.216   9.030  0.0021 -0.0079  0.0808
11671SOL    HW141871   6.820   5.138   8.976  0.3331 -0.1809  0.2444
11671SOL    HW241872   6.898   5.188   9.095  0.2079  0.4398  0.0674
11672SOL     OW41873   8.143  12.349   6.191  0.3723 -0.7888 -0.4020
11672SOL    HW141874   8.190  12.428   6.166 -0.0162 -0.5425 -0.3611
11672SOL    HW241875   8.164  12.336   6.284 -0.3614 -0.1652 -0.1386
11673SOL     OW41876  11.750   3.473  10.221 -0.1889  0.7521  0.5229
11673SOL    HW141877  11.732   3.525  10.300  0.8294  1.2223  0.4688
11673SOL    HW241878  11.719   3.528  10.149 -1.4897  0.1495  0.6018
11674SOL     OW41879  12.272   9.461   9.058 -0.1858  0.5573 -0.1268
11674SOL    HW141880  12.238   9.550   9.044  0.1071  0.7618  0.4505
11674SOL    HW241881  12.368   9.471   9.052 -0.1926  0.0461 -1.4055
11675SOL     OW41882  10.236   9.217   3.300 -0.0229 -0.0107  0.0379
11675SOL    HW141883  10.284   9.268   3.364  0.7078 -0.7815  0.1238
11675SOL    HW241884  10.252   9.261   3.216  0.4942 -0.0317  0.1269
11676SOL     OW41885   5.949   8.350   5.717 -0.0275  0.0604 -0.4263
11676SOL    HW141886   5.974   8.391   5.634  0.1793  1.4603  0.2916
11676SOL    HW241887   5.986   8.408   5.784 -2.6886  0.6714  0.6528
11677SOL     OW41888   8.687   8.707   2.567 -0.1167 -0.2643 -0.5526
11677SOL    HW141889   8.619   8.643   2.544  0.4502 -0.7803 -0.8394
11677SOL    HW241890   8.692   8.765   2.492  0.2854 -0.6943 -0.8672
11678SOL     OW41891   0.575  10.236   0.815  0.1117 -0.1670 -0.0855
11678SOL    HW141892   0.632  10.299   0.772  0.2401  0.0932  0.4548
11678SOL    HW241893   0.609  10.150   0.790  0.7652 -0.0132  0.2588
11679SOL     OW41894  11.995   3.549   6.003  0.4133 -0.0207 -0.0332
11679SOL    HW141895  11.947   3.566   5.922  0.1091 -1.6795 -0.2428
11679SOL    HW241896  11.972   3.458   6.026  1.3394  0.0546  1.3259
11680SOL     OW41897   3.568   0.416  10.031  0.4427  0.2572  0.0533
11680SOL    HW141898   3.487   0.365  10.019 -0.1580  1.1310  0.3468
11680SOL    HW241899   3.637   0.350  10.030 -0.2421 -0.4824 -0.4871
11681SOL     OW41900   3.586   6.733   4.508 -0.6423  0.2840 -0.0390
11681SOL    HW141901   3.501   6.690   4.497 -0.4780 -1.1278  3.1791
11681SOL    HW241902   3.650   6.670   4.476 -0.6900  1.2030 -2.1209
11682SOL     OW41903   7.967  12.414   8.069 -0.0122  0.1342 -0.0184
11682SOL    HW141904   7.939  12.483   8.010  1.5607  0.2261 -0.7148
11682SOL    HW241905   8.042  12.373   8.025  0.5446 -0.4914  1.4278
11683SOL     OW41906   7.770   4.324   8.625  0.0489  0.2562  0.6462
11683SOL    HW141907   7.801   4.234   8.627 -0.6409 -0.0066  0.1259
11683SOL    HW241908   7.700   4.327   8.691 -0.6588  0.1127 -0.0778
11684SOL     OW41909   3.300   6.244   7.114  0.1041  0.3824 -0.6287
11684SOL    HW141910   3.218   6.278   7.080 -0.6984  0.4362  1.2592
11684SOL    HW241911   3.320   6.299   7.190  0.6247 -1.0800  0.3627
11685SOL     OW41912  10.978   9.983  10.429 -0.1051  0.4755 -0.0164
11685SOL    HW141913  11.032   9.989  10.351  0.5903  0.0270  0.4184
11685SOL    HW241914  11.033   9.938  10.493 -0.5018  1.2097  0.8661
11686SOL     OW41915   7.041   9.818  12.122  0.5527  0.3650  0.7584
11686SOL    HW141916   7.134   9.837  12.137  0.8655  0.9913 -1.5989
11686SOL    HW241917   6.997   9.902  12.135  0.7537  0.7771 -0.9276
11687SOL     OW41918   6.370   7.931   6.483 -0.4479  0.4134 -0.5576
11687SOL    HW141919   6.435   7.986   6.438 -1.8589  0.5113 -2.6452
11687SOL    HW241920   6.288   7.979   6.473 -0.9667  0.1001  1.6670
11688SOL     OW41921   3.770   2.840   7.775  0.2355 -0.4315 -0.3597
11688SOL    HW141922   3.794   2.807   7.861  0.1757 -1.3581 -0.6864
11688SOL    HW241923   3.799   2.772   7.714 -1.3307 -0.6497 -0.9260
11689SOL     OW41924   4.822   9.885   7.079 -0.5594  0.1077  0.2371
11689SOL    HW141925   4.879   9.902   7.154  0.0747 -3.4719  0.7204
11689SOL    HW241926   4.881   9.885   7.003 -0.7262  0.8877  0.0968
11690SOL     OW41927   6.162   1.912  12.202 -0.5353 -0.5830 -0.0216
11690SOL    HW141928   6.227   1.912  12.131 -2.2360  0.8322 -1.6762
11690SOL    HW241929   6.207   1.955  12.275  0.5233  0.0587 -1.0154
11691SOL     OW41930   2.458   0.693   6.569  0.0233 -0.3806 -0.0100
11691SOL    HW141931   2.385   0.632   6.565 -0.3339  0.0455 -0.1316
11691SOL    HW241932   2.423   0.775   6.532  0.3503  0.0365  0.5805
11692SOL     OW41933   1.920   8.111   1.566  0.0872 -0.2475  0.0638
11692SOL    HW141934   1.917   8.193   1.518 -2.2750 -0.8082 -0.9043
11692SOL    HW241935   1.853   8.056   1.524  0.2935 -1.9853  1.8504
11693SOL     OW41936   5.684   5.065   6.166  0.4002  0.0902 -0.6757
11693SOL    HW141937   5.636   5.104   6.093 -3.3143  0.2087  1.5920
11693SOL    HW241938   5.619   5.013   6.214  2.2056  1.0035  3.2301
11694SOL     OW41939  11.564   0.297   1.901  0.0152  0.7017 -0.4607
11694SOL    HW141940  11.503   0.248   1.845 -0.9514  1.1290  0.1899
11694SOL    HW241941  11.568   0.384   1.862  2.7574 -0.1690 -2.3930
11695SOL     OW41942   2.227   6.418  10.143 -0.1638 -0.2971  0.1339
11695SOL    HW141943   2.151   6.431  10.087  0.2942  0.4919 -0.3148
11695SOL    HW241944   2.243   6.324  10.141  1.1007 -0.1193 -2.7617
11696SOL     OW41945   3.024  11.302  10.873  0.9405 -0.2155 -0.3294
11696SOL    HW141946   3.116  11.282  10.886  1.3040  1.2614 -0.5002
11696SOL    HW241947   3.010  11.293  10.779  0.7768 -0.9004 -0.2491
11697SOL     OW41948   6.248   5.545   9.067  0.1631  0.2026  0.1375
11697SOL    HW141949   6.298   5.589   9.135  1.4149 -0.3951 -0.3570
11697SOL    HW241950   6.245   5.453   9.094  1.9013 -0.3236 -1.2370
11698SOL     OW41951  12.385   9.347   7.336  0.1543  0.2347 -0.4317
11698SOL    HW141952  12.353   9.278   7.395  0.6753 -0.0601 -0.4919
11698SOL    HW241953  12.422   9.301   7.262 -1.0952  0.6127 -1.3308
11699SOL     OW41954  10.569   8.807   2.267  0.3099  0.2537  0.1425
11699SOL    HW141955  10.599   8.831   2.355  0.4047  0.9232 -0.0731
11699SOL    HW241956  10.544   8.715   2.276  0.5093  0.2551  0.8222
11700SOL     OW41957  10.173  11.922  10.664  0.2714 -0.0042  0.6267
11700SOL    HW141958  10.159  11.940  10.571  0.7683 -0.4520  0.4601
11700SOL    HW241959  10.266  11.898  10.670 -0.0366 -1.1421  1.0555
11701SOL     OW41960   8.046   0.964   5.696  0.2157 -0.5916  0.1193
11701SOL    HW141961   8.106   1.023   5.650 -0.1166 -1.1333 -1.0500
11701SOL    HW241962   8.035   1.004   5.782 -1.5992  2.2669 -1.2691
11702SOL     OW41963   3.191   5.250   2.819  0.2157 -0.2321  0.3995
11702SOL    HW141964   3.161   5.208   2.900  0.9121 -0.2848  0.6322
11702SOL    HW241965   3.256   5.191   2.784  0.3411  0.0792  0.1040
11703SOL     OW41966  11.349   7.859  10.708  0.1548  0.5401 -0.0503
11703SOL    HW141967  11.256   7.878  10.696  0.1852  0.4391 -0.4696
11703SOL    HW241968  11.377   7.821  10.625  0.6439  0.8579 -0.0393
11704SOL     OW41969   6.550   2.212  10.719 -0.6038 -0.2019 -0.4548
11704SOL    HW141970   6.525   2.151  10.649  0.6392  1.6129 -2.5963
11704SOL    HW241971   6.645   2.203  10.725 -0.1135  2.6717 -2.1039
11705SOL     OW41972   3.710   1.498   5.158  0.1869  0.1374  0.0641
11705SOL    HW141973   3.772   1.512   5.230  1.0830  1.1151 -0.8524
11705SOL    HW241974   3.632   1.546   5.184 -0.4330 -1.5210  1.4688
11706SOL     OW41975   3.433   0.302   4.836 -0.1918 -0.1388  0.2642
11706SOL    HW141976   3.477   0.387   4.841 -0.0612  0.0340 -2.3786
11706SOL    HW241977   3.377   0.299   4.913  1.5691  1.2928  1.6853
11707SOL     OW41978   9.953   7.826   5.327 -0.1879 -0.0970 -0.1300
11707SOL    HW141979   9.920   7.916   5.332 -0.0120 -0.0592  0.3177
11707SOL    HW241980  10.048   7.834   5.337 -0.0997 -0.2687 -0.7769
11708SOL     OW41981  10.395   8.430   8.768  0.1075  0.3070  0.1762
11708SOL    HW141982  10.428   8.517   8.746 -1.2288  0.2451 -2.3984
11708SOL    HW241983  10.468   8.388   8.814  0.6187  2.8892  1.9315
11709SOL     OW41984   8.874  11.238   1.896 -0.2502 -0.6822  0.1247
11709SOL    HW141985   8.909  11.247   1.807 -2.2983  2.5192 -0.5237
11709SOL    HW241986   8.789  11.195   1.884 -0.1724 -0.9915  0.6599
11710SOL     OW41987   6.825   4.880   9.641  0.1259 -0.5199 -0.4252
11710SOL    HW141988   6.877   4.838   9.572  0.7259 -0.2737 -0.1244
11710SOL    HW241989   6.743   4.830   9.643 -1.0209  1.0286 -3.1122
11711SOL     OW41990   8.978   2.893   9.820  0.2071 -0.3242  0.2590
11711SOL    HW141991   8.971   2.899   9.916 -1.0882 -0.2236  0.1794
11711SOL    HW241992   8.908   2.832   9.795  0.8850 -0.7635 -0.5829
11712SOL     OW41993   9.578   3.677   1.374 -0.2522  0.4277  0.0867
11712SOL    HW141994   9.567   3.690   1.280  0.2269 -1.9024 -0.3604
11712SOL    HW241995   9.518   3.740   1.414 -1.6342  0.4056 -1.7995
11713SOL     OW41996   3.951   2.845   9.448  0.2765  0.0636 -0.8910
11713SOL    HW141997   3.971   2.782   9.378 -1.2297 -0.3268 -1.0066
11713SOL    HW241998   3.910   2.793   9.517 -1.6459  0.9709 -1.2732
11714SOL     OW41999   7.239   4.730  10.373 -0.6151 -0.4623  0.3482
11714SOL    HW142000   7.234   4.736  10.469 -1.8876 -1.4728  0.3742
11714SOL    HW242001   7.184   4.654  10.351  1.9335 -2.0417 -0.9885
11715SOL     OW42002  10.975   8.117  11.922  0.2228  0.3180 -0.5558
11715SOL    HW142003  10.892   8.163  11.911  0.9595  1.6447 -0.8019
11715SOL    HW242004  11.039   8.186  11.936  1.0672 -0.7409  1.2262
11716SOL     OW42005  11.979   1.656   3.121  0.3689  0.3068 -0.0000
11716SOL    HW142006  11.983   1.628   3.029  2.9819 -3.2893  0.9791
11716SOL    HW242007  12.070   1.676   3.143 -0.2035  0.9851  1.8811
11717SOL     OW42008   7.036   3.480  10.805 -0.0520  0.0066  0.3214
11717SOL    HW142009   7.121   3.446  10.778 -0.1440  0.7787 -1.0239
11717SOL    HW242010   7.003   3.415  10.867  1.2292 -0.6247  0.3791
11718SOL     OW42011  10.118   3.685   4.182 -0.2949  0.0519  0.5439
11718SOL    HW142012  10.087   3.750   4.244 -1.2041  0.3909 -0.2442
11718SOL    HW242013  10.063   3.608   4.198  0.7476 -0.5251  1.4458
11719SOL     OW42014   7.337   5.817   1.656 -0.0361 -0.2656 -0.5740
11719SOL    HW142015   7.384   5.736   1.676  1.5345  0.7288 -0.0479
11719SOL    HW242016   7.317   5.855   1.742 -0.3788  0.1159 -0.8188
11720SOL     OW42017   4.791   9.710   9.023 -0.2591 -0.2918  0.0871
11720SOL    HW142018   4.789   9.712   8.927 -0.0296 -0.4300  0.0793
11720SOL    HW242019   4.884   9.722   9.045 -0.2910 -0.4133  0.2874
11721SOL     OW42020   3.982   2.229   5.218 -0.2000  0.0141 -0.0049
11721SOL    HW142021   3.895   2.267   5.228  0.9082  2.7197  0.4113
11721SOL    HW242022   4.034   2.271   5.287  2.1057  0.9155 -2.1375
11722SOL     OW42023   5.769  12.530   3.714 -0.1736  0.2380  1.2332
11722SOL    HW142024   5.686  12.558   3.753  0.0236 -0.7814  2.4392
11722SOL    HW242025   5.756  12.542   3.620 -1.0332  1.7900  1.5166
11723SOL     OW42026   2.670   6.197  11.938 -0.2797 -0.0125 -0.1400
11723SOL    HW142027   2.757   6.215  11.973  0.2047 -0.7624 -0.9222
11723SOL    HW242028   2.674   6.227  11.848 -1.8893  3.0168  0.6788
11724SOL     OW42029   2.559   6.569  11.716 -0.0259 -0.2425 -0.2964
11724SOL    HW142030   2.473   6.530  11.732  0.4071 -0.4156  1.9097
11724SOL    HW242031   2.571   6.561  11.622 -2.2048 -0.6710 -0.5996
11725SOL     OW42032   1.096   0.479   1.498 -0.3572 -0.4256 -0.4197
11725SOL    HW142033   1.148   0.556   1.520 -3.2070  1.2816  0.8489
11725SOL    HW242034   1.134   0.408   1.551 -0.9125  1.3809  2.6428
11726SOL     OW42035   7.280   0.651  11.314 -0.2981  0.6515  0.2686
11726SOL    HW142036   7.220   0.645  11.240 -1.1401  0.5261  0.9293
11726SOL    HW242037   7.333   0.572  11.309 -0.0284  0.8745 -0.4613
11727SOL     OW42038   0.245   8.969   9.524  0.6588 -0.4545 -0.3021
11727SOL    HW142039   0.259   8.883   9.565 -1.4643  0.1404  1.8866
11727SOL    HW242040   0.204   9.021   9.592 -0.2075  1.6241 -2.2962
11728SOL     OW42041   0.408   5.840   8.572 -0.3001  0.8879  0.2283
11728SOL    HW142042   0.443   5.923   8.606  0.5680  0.1066  1.3216
11728SOL    HW242043   0.454   5.826   8.489  0.1376  1.1171  0.4277
11729SOL     OW42044  10.117   0.552   0.460  0.0966 -0.5631 -0.3285
11729SOL    HW142045  10.147   0.519   0.545  2.2975 -2.0547 -1.5831
11729SOL    HW242046  10.197   0.576   0.414 -0.9732 -0.5033 -2.2589
11730SOL     OW42047   4.858   5.241  10.216 -0.3260 -0.8720  0.3716
11730SOL    HW142048   4.800   5.312  10.188  0.6949 -0.4389 -0.7049
11730SOL    HW242049   4.804   5.162  10.208 -1.2225 -0.3356  0.8249
11731SOL     OW42050   8.827  11.880   9.474 -0.3785  0.3931 -0.3780
11731SOL    HW142051   8.861  11.911   9.389 -0.3538  0.8645 -0.1984
11731SOL    HW242052   8.848  11.786   9.475  3.0895  1.0431  0.7189
11732SOL     OW42053  11.333   2.739   4.838 -0.0587  0.2428 -0.6968
11732SOL    HW142054  11.241   2.754   4.858 -0.0126 -0.2660 -0.0956
11732SOL    HW242055  11.333   2.714   4.745 -0.4435  0.9474 -0.8941
11733SOL     OW42056   3.099   7.219   0.673  0.4314 -0.1501  0.5226
11733SOL    HW142057   3.006   7.199   0.666  0.5960 -0.8589  0.2175
11733SOL    HW242058   3.118   7.211   0.767  0.1534  0.1515  0.6050
11734SOL     OW42059   0.304   9.151   8.172  0.3616  0.3214 -0.2140
11734SOL    HW142060   0.394   9.181   8.179 -0.0783  1.5475  0.4639
11734SOL    HW242061   0.259   9.222   8.125 -0.2932 -0.1828 -0.3644
11735SOL     OW42062   6.590  11.935   6.259  0.0716  0.4077  0.4466
11735SOL    HW142063   6.614  11.867   6.196  0.0183 -0.3728  1.2551
11735SOL    HW242064   6.495  11.939   6.256  0.0800  3.3281 -2.5683
11736SOL     OW42065   3.879  10.237   5.494 -0.2343  0.2885  0.1433
11736SOL    HW142066   3.931  10.248   5.414 -0.9593 -0.1409 -0.3986
11736SOL    HW242067   3.821  10.314   5.495 -0.9839 -0.2459 -0.3461
11737SOL     OW42068   5.669   8.728   6.844  0.2565  0.0512 -0.3893
11737SOL    HW142069   5.747   8.750   6.895 -0.5895 -0.8538  1.3594
11737SOL    HW242070   5.609   8.689   6.907 -1.8229  1.1559 -1.5769
11738SOL     OW42071   2.925   1.868  10.110  0.5486  0.0363 -0.0112
11738SOL    HW142072   2.928   1.963  10.099  0.7855 -0.0251 -0.5067
11738SOL    HW242073   2.849   1.840  10.060  0.3232 -0.0048  0.3554
11739SOL     OW42074   8.180   3.230   4.833  0.0382  0.3885  0.4394
11739SOL    HW142075   8.225   3.228   4.749 -0.1104  1.6410  0.3166
11739SOL    HW242076   8.250   3.222   4.898  0.2663  0.6266  0.2232
11740SOL     OW42077  11.194   4.257   6.531  0.0048  0.8071 -0.5748
11740SOL    HW142078  11.236   4.284   6.613 -1.3998  2.3912 -0.3241
11740SOL    HW242079  11.235   4.312   6.464  2.2430 -1.5122 -1.2920
11741SOL     OW42080   7.422   9.582  11.136  0.0041  0.9108  0.2045
11741SOL    HW142081   7.512   9.611  11.149 -0.1662  1.1402  0.9050
11741SOL    HW242082   7.373   9.622  11.208  0.2388 -3.4682  3.1857
11742SOL     OW42083   7.642  10.184   6.853  0.1846  0.3863  0.0133
11742SOL    HW142084   7.575  10.147   6.911 -0.8247  1.1016 -0.6534
11742SOL    HW242085   7.636  10.130   6.773  1.1862 -0.2451  0.3420
11743SOL     OW42086   2.858  10.981   2.930 -0.8756  0.7944 -0.1543
11743SOL    HW142087   2.939  11.004   2.884 -1.3567  0.9986 -0.9159
11743SOL    HW242088   2.864  11.027   3.014  0.0809  0.3038  0.0553
11744SOL     OW42089   8.613  12.525  12.535  0.4815  0.2464 -0.2972
11744SOL    HW142090   8.658  12.491  12.612 -0.4935 -2.0973 -0.6611
11744SOL    HW242091   8.683  12.551  12.475  1.2771 -0.0736  0.4822
11745SOL     OW42092   4.758   7.749   0.287  0.7220 -0.0671  0.2930
11745SOL    HW142093   4.723   7.774   0.201 -0.4564 -0.8284  0.5251
11745SOL    HW242094   4.774   7.655   0.279 -1.1062 -0.5300  1.4365
11746SOL     OW42095  10.270  11.670   2.747  0.3454  0.2343 -0.2755
11746SOL    HW142096  10.232  11.584   2.767  0.4744 -0.0777 -1.2833
11746SOL    HW242097  10.250  11.683   2.654  1.1657  0.8597 -0.3701
11747SOL     OW42098   7.665   7.599   3.303  0.3969 -0.0585 -0.0778
11747SOL    HW142099   7.649   7.529   3.240 -0.2802  0.7433 -0.8301
11747SOL    HW242100   7.720   7.662   3.257  0.6443  0.1109  0.4389
11748SOL     OW42101   0.653   4.790  10.472 -0.6102 -0.5455  0.0284
11748SOL    HW142102   0.701   4.825  10.547 -0.2460  0.1195 -0.5045
11748SOL    HW242103   0.565   4.828  10.480 -1.0103 -1.6159  0.8993
11749SOL     OW42104   4.665  10.773  12.230 -0.0211  0.1733 -0.1914
11749SOL    HW142105   4.636  10.776  12.321 -0.6799 -0.7939 -0.3583
11749SOL    HW242106   4.686  10.864  12.208 -1.0863  0.6065  0.5320
11750SOL     OW42107   7.041   7.998   7.820  0.4353  0.2694 -0.2811
11750SOL    HW142108   7.000   8.041   7.745  1.4379  1.6926 -0.0539
11750SOL    HW242109   7.101   7.934   7.781  1.2148  1.2433 -0.7537
11751SOL     OW42110   6.409   9.325   0.733  0.2127 -0.6490  0.4581
11751SOL    HW142111   6.423   9.250   0.791 -0.3017 -1.0746  0.0416
11751SOL    HW242112   6.355   9.385   0.785  0.1318 -0.8287  0.5834
11752SOL     OW42113   2.445  10.073   1.752 -0.5649  0.1049 -0.1780
11752SOL    HW142114   2.459  10.155   1.799  1.7790  0.2289 -1.0005
11752SOL    HW242115   2.380  10.026   1.806  0.1316  1.2915  1.8226
11753SOL     OW42116   0.229   9.881  10.892 -0.0109 -0.0711 -0.7929
11753SOL    HW142117   0.222   9.809  10.829  1.6819 -2.8697  1.8860
11753SOL    HW242118   0.308   9.860  10.943 -0.3312  2.8748  1.1813
11754SOL     OW42119   5.524   4.379   0.482 -0.0421  0.4243  0.0533
11754SOL    HW142120   5.615   4.388   0.512 -0.2426  0.3352  0.7106
11754SOL    HW242121   5.490   4.304   0.531 -0.6318  0.7927  0.2181
11755SOL     OW42122   0.341   3.431   1.539 -0.1755 -0.3402 -0.2448
11755SOL    HW142123   0.398   3.491   1.492  2.7938 -1.0854  2.0305
11755SOL    HW242124   0.323   3.475   1.622 -0.5686 -1.2500  0.1724
11756SOL     OW42125  10.266   9.180   5.138 -0.8445 -0.0377 -0.1111
11756SOL    HW142126  10.251   9.142   5.224 -0.5106 -1.1685 -0.5301
11756SOL    HW242127  10.298   9.107   5.085  1.9536  1.2668 -0.4075
11757SOL     OW42128   2.743   2.843   6.935  0.4640  0.0127  0.0323
11757SOL    HW142129   2.773   2.934   6.937 -2.4734  1.1958 -1.6776
11757SOL    HW242130   2.746   2.820   6.842 -3.4702  0.3028 -0.3611
11758SOL     OW42131  10.091   4.998   2.011  0.1712 -0.2516  0.4459
11758SOL    HW142132  10.013   4.943   2.020 -0.0567 -0.0235 -0.1313
11758SOL    HW242133  10.058   5.088   2.016  0.2966 -0.1421 -0.5586
11759SOL     OW42134   7.082   9.800   0.305  0.3543 -0.3393 -0.1934
11759SOL    HW142135   7.007   9.742   0.320 -0.6458  0.6666 -1.0756
11759SOL    HW242136   7.095   9.799   0.211  1.5821 -0.6215 -0.0388
11760SOL     OW42137   3.125   3.070   5.537 -0.1759 -0.1928  0.5238
11760SOL    HW142138   3.141   3.153   5.492 -1.6511  0.3452  0.9452
11760SOL    HW242139   3.104   3.008   5.467  1.4134 -0.3723  0.1620
11761SOL     OW42140   0.900   2.086   1.850 -0.0491 -0.4546 -0.3316
11761SOL    HW142141   0.893   2.062   1.758 -0.1549  0.1246 -0.4788
11761SOL    HW242142   0.821   2.049   1.891  0.5382 -1.6654 -0.2501
11762SOL     OW42143   0.563   3.289  11.677 -0.9919 -0.0955  0.2570
11762SOL    HW142144   0.629   3.259  11.739 -1.3800 -1.4846  0.0240
11762SOL    HW242145   0.597   3.372  11.644  1.6594 -1.6890 -1.3488
11763SOL     OW42146   4.391   3.174   5.336 -0.2970  0.3521 -0.0688
11763SOL    HW142147   4.486   3.185   5.337 -0.2657  0.1424  1.8135
11763SOL    HW242148   4.360   3.218   5.415 -1.7807  0.3688 -0.6170
11764SOL     OW42149   2.075   9.915   2.706  0.1606 -0.4939 -0.2539
11764SOL    HW142150   2.048   9.996   2.664  1.2171  0.0307  0.0351
11764SOL    HW242151   2.109   9.942   2.791  1.6202 -1.0625 -0.6074
11765SOL     OW42152  12.173   1.116   3.041 -0.7659 -0.5040 -0.5496
11765SOL    HW142153  12.111   1.091   2.972 -0.9048  0.6359 -0.8469
11765SOL    HW242154  12.212   1.197   3.010 -2.0988  0.9987  1.4721
11766SOL     OW42155   4.765  10.868  11.909  0.3999  0.0428  0.7448
11766SOL    HW142156   4.794  10.910  11.828  2.3568  2.0430  2.3437
11766SOL    HW242157   4.690  10.921  11.937 -1.6677 -1.9293 -0.7092
11767SOL     OW42158   0.575   1.805   7.096 -0.2073  0.7271  0.2710
11767SOL    HW142159   0.642   1.850   7.148 -0.1938  2.4728 -1.1539
11767SOL    HW242160   0.617   1.788   7.012  0.1170 -2.9884  1.0255
11768SOL     OW42161  11.617   4.705   9.427  0.0496 -0.3968  0.0559
11768SOL    HW142162  11.525   4.729   9.427 -0.0654 -0.7636 -1.1874
11768SOL    HW242163  11.662   4.781   9.463 -0.8219 -0.6476  1.7787
11769SOL     OW42164  11.742   1.182   8.500 -0.3436  0.0919 -0.3509
11769SOL    HW142165  11.771   1.211   8.414 -0.1235  1.2412  0.0920
11769SOL    HW242166  11.705   1.260   8.541  0.7923 -0.0722  1.0952
11770SOL     OW42167   5.669  10.830   7.449 -0.0691  0.0511 -0.1770
11770SOL    HW142168   5.665  10.838   7.354  0.4074  0.1801 -0.1888
11770SOL    HW242169   5.673  10.736   7.465 -1.8350 -0.0462 -0.2040
11771SOL     OW42170   1.114   7.894  12.178 -0.3115  0.5771 -0.7710
11771SOL    HW142171   1.084   7.922  12.264  2.0560  3.7296 -0.7754
11771SOL    HW242172   1.205   7.866  12.193  0.1460  1.2175 -2.2094
11772SOL     OW42173   2.440   4.851  11.797 -0.2733 -0.1674 -0.2089
11772SOL    HW142174   2.363   4.800  11.818 -1.0764  1.5363  1.1966
11772SOL    HW242175   2.511   4.812  11.849 -0.6873 -0.3409  0.2251
11773SOL     OW42176   0.306   4.801   3.185 -0.6881  0.1029  0.1104
11773SOL    HW142177   0.337   4.857   3.256 -1.0067  0.3811  0.0346
11773SOL    HW242178   0.216   4.830   3.170  0.0629  1.6543 -1.9539
11774SOL     OW42179   1.553   6.892   2.101  0.4238  0.1916  0.1986
11774SOL    HW142180   1.547   6.841   2.182 -1.4885 -1.2333 -0.7575
11774SOL    HW242181   1.553   6.983   2.130  0.0612 -0.2885  1.8230
11775SOL     OW42182  11.776   2.453   5.456  0.2794 -0.8523 -0.4626
11775SOL    HW142183  11.763   2.444   5.550 -1.2631  1.4238 -0.3867
11775SOL    HW242184  11.688   2.449   5.418  0.9478 -2.7372 -1.9542
11776SOL     OW42185   3.190   1.657  12.496 -0.7754 -0.5182  0.3337
11776SOL    HW142186   3.195   1.750  12.518  1.1606 -0.0808 -1.5716
11776SOL    HW242187   3.255   1.615  12.553  0.8363 -0.1088 -1.1129
11777SOL     OW42188   8.181   6.939   4.556 -0.0224 -0.0920  0.2993
11777SOL    HW142189   8.152   6.851   4.531  2.7497 -0.4926 -1.9277
11777SOL    HW242190   8.227   6.926   4.639 -2.0134 -0.1663  1.4777
11778SOL     OW42191   7.894  11.696   1.690  0.1460  0.4212  0.2395
11778SOL    HW142192   7.959  11.640   1.734  1.6336  0.8941 -1.2519
11778SOL    HW242193   7.947  11.761   1.643 -1.5013  2.4461  1.0373
11779SOL     OW42194   8.032   6.882   6.867 -0.3011 -0.1805  0.0478
11779SOL    HW142195   8.010   6.844   6.952 -0.4182 -2.3314 -0.8835
11779SOL    HW242196   7.949   6.918   6.834 -0.3860  0.0927  0.5485
11780SOL     OW42197   3.241   3.635   0.751  0.6005 -0.3722  0.2214
11780SOL    HW142198   3.263   3.546   0.725 -1.5601 -0.8099 -0.3398
11780SOL    HW242199   3.323   3.685   0.740  1.4879 -1.9743 -0.8401
11781SOL     OW42200   9.824   1.781  10.763 -0.4190 -0.0527 -0.3627
11781SOL    HW142201   9.852   1.766  10.673 -0.4738 -0.4896 -0.3079
11781SOL    HW242202   9.777   1.701  10.788 -1.3737  0.5067 -0.3165
11782SOL     OW42203   8.352  12.429  10.326 -0.2874 -0.1641  0.4850
11782SOL    HW142204   8.278  12.408  10.383  0.6772  0.2618  1.9469
11782SOL    HW242205   8.336  12.378  10.246 -2.3884  0.2800  0.5524
11783SOL     OW42206   2.921  11.409   1.864  0.3467 -0.0216  0.5987
11783SOL    HW142207   2.880  11.395   1.949 -1.4590  1.3529  0.0266
11783SOL    HW242208   2.848  11.426   1.804  1.6668  1.0909 -0.8006
11784SOL     OW42209   9.804   5.270   7.366 -0.5246 -0.4904  0.1706
11784SOL    HW142210   9.894   5.303   7.374 -1.0010  0.2915  3.1802
11784SOL    HW242211   9.763   5.328   7.302  0.5445  0.4222  0.2897
11785SOL     OW42212  11.542   7.687  10.859 -0.0438 -0.2835  0.3373
11785SOL    HW142213  11.556   7.753  10.791 -0.1893 -0.2342  0.3553
11785SOL    HW242214  11.558   7.734  10.941 -0.6779 -0.1266  0.3787
11786SOL     OW42215   4.093   1.120  11.240 -0.3561 -0.1121 -0.3435
11786SOL    HW142216   4.051   1.181  11.179  0.9008  1.1152 -0.0240
11786SOL    HW242217   4.158   1.075  11.186  0.7876  1.0061  0.0509
11787SOL     OW42218  10.843  10.836   4.045 -0.4106 -0.0730 -1.0001
11787SOL    HW142219  10.922  10.822   4.097 -1.6768  0.4275  1.1310
11787SOL    HW242220  10.848  10.928   4.018 -1.6115  0.8502  1.6286
11788SOL     OW42221   6.562   5.036  10.801  0.1636  0.5728  0.3691
11788SOL    HW142222   6.647   5.080  10.792 -0.3490  1.4161 -0.4557
11788SOL    HW242223   6.572   4.981  10.879  1.7455 -0.0014 -0.1997
11789SOL     OW42224   7.596   5.068  11.896  0.4438  0.1945  0.0354
11789SOL    HW142225   7.548   5.062  11.979 -0.6380  0.7927 -0.5337
11789SOL    HW242226   7.669   5.007  11.907 -0.1841 -0.4080  1.0887
11790SOL     OW42227   0.394   5.747   9.998 -0.5260  0.5174  0.2603
11790SOL    HW142228   0.465   5.747  10.063 -1.5588 -1.0772  1.4821
11790SOL    HW242229   0.415   5.675   9.939  0.1037  1.5939 -0.8591
11791SOL     OW42230   0.916   7.524   6.849  0.2914 -0.2282 -0.1992
11791SOL    HW142231   0.983   7.459   6.873 -0.6227 -1.1855 -0.1646
11791SOL    HW242232   0.908   7.515   6.754  0.5573  0.2406 -0.2686
11792SOL     OW42233   1.175  10.867   9.520 -0.5109 -0.5164  0.3453
11792SOL    HW142234   1.159  10.801   9.452 -2.5354  2.2559 -2.1246
11792SOL    HW242235   1.269  10.884   9.514 -0.5963 -0.4477 -1.7739
11793SOL     OW42236   7.785   8.129   9.906 -0.7738 -0.1441  0.1040
11793SOL    HW142237   7.771   8.042   9.945  0.6628  0.1172  1.2667
11793SOL    HW242238   7.820   8.182   9.978  0.4227  0.8083 -1.1396
11794SOL     OW42239   5.849   6.177  10.788  0.4737  0.3508  0.0278
11794SOL    HW142240   5.891   6.092  10.802 -0.7183 -0.3152 -0.3521
11794SOL    HW242241   5.922   6.240  10.791  1.3260 -0.6233  0.7120
11795SOL     OW42242   3.942   6.227   4.410 -0.1155  0.3553 -0.4997
11795SOL    HW142243   4.013   6.289   4.423  0.7672 -0.5631 -0.8839
11795SOL    HW242244   3.885   6.269   4.345 -1.4265  2.3215  1.7246
11796SOL     OW42245  11.285   1.759   0.567  0.2600 -0.4057 -0.2458
11796SOL    HW142246  11.253   1.834   0.617 -0.5273 -0.9101  0.0194
11796SOL    HW242247  11.221   1.749   0.496  1.8848  0.9248 -1.9910
11797SOL     OW42248   1.661   8.633   8.560  0.2151 -0.2760 -0.1648
11797SOL    HW142249   1.748   8.667   8.539 -0.2119  1.6421  0.8573
11797SOL    HW242250   1.664   8.615   8.654 -0.4910 -0.1692 -0.1115
11798SOL     OW42251  12.343  10.659   2.931 -0.1917 -0.4425  0.0177
11798SOL    HW142252  12.402  10.718   2.978 -0.3550 -0.5086  0.3106
11798SOL    HW242253  12.400  10.590   2.898 -0.1996 -0.9164  0.9522
11799SOL     OW42254   6.161   5.284   0.312 -0.0560 -0.2542 -0.1614
11799SOL    HW142255   6.193   5.194   0.321  1.1066  0.0267 -1.1225
11799SOL    HW242256   6.065   5.276   0.313  0.0332 -1.3874  0.6682
11800SOL     OW42257   8.591  11.677  12.278  0.4617 -0.6483 -0.2087
11800SOL    HW142258   8.571  11.767  12.303 -1.8328 -1.6541  2.0484
11800SOL    HW242259   8.553  11.667  12.191 -0.1055  0.3018 -0.0814
11801SOL     OW42260   3.763   8.257   5.921  0.1129 -0.4019 -0.6700
11801SOL    HW142261   3.712   8.338   5.925 -0.0800 -0.2566 -3.7263
11801SOL    HW242262   3.848   8.280   5.959 -0.4351  0.7723 -0.0940
11802SOL     OW42263   4.919   0.008   8.703  0.1265  0.5180 -0.2738
11802SOL    HW142264   4.912   0.102   8.683  0.0686  0.9740  1.6548
11802SOL    HW242265   5.001  -0.019   8.663 -1.3217  0.5853 -3.5921
11803SOL     OW42266  12.452  10.220   2.619 -0.3342  0.5191 -0.0920
11803SOL    HW142267  12.434  10.314   2.611 -1.6347  0.1381 -2.2334
11803SOL    HW242268  12.463  10.189   2.529  0.9251 -1.2504  0.6167
11804SOL     OW42269   4.562   3.447   1.694  0.2308 -0.0226 -0.1239
11804SOL    HW142270   4.524   3.405   1.771  1.1721  0.7743  0.8021
11804SOL    HW242271   4.497   3.511   1.666  0.7694  1.1965  1.3286
11805SOL     OW42272   0.072   5.724   2.101 -0.7564  0.4207  0.1673
11805SOL    HW142273   0.073   5.642   2.051  0.7733  0.9673 -0.7762
11805SOL    HW242274   0.043   5.698   2.188 -0.2903 -1.1343 -0.1025
11806SOL     OW42275  12.199   7.880   1.465 -0.5341 -0.3059  0.3565
11806SOL    HW142276  12.203   7.844   1.554  1.1035  1.3385  1.0071
11806SOL    HW242277  12.290   7.886   1.437 -0.9264  0.7284 -0.7902
11807SOL     OW42278   7.176   7.891   9.990 -0.1255 -0.2305  0.5756
11807SOL    HW142279   7.103   7.887  10.053 -0.6853  0.0139 -0.0398
11807SOL    HW242280   7.133   7.891   9.904  0.5389  1.1078  0.2162
11808SOL     OW42281   7.957   7.934   7.632  0.5960  0.5261 -0.1375
11808SOL    HW142282   7.912   7.938   7.716 -0.7011 -2.8942 -0.4979
11808SOL    HW242283   7.888   7.912   7.569  1.9305  0.5888 -1.6891
11809SOL     OW42284   9.059   1.250   2.188 -0.5251 -0.2456 -0.0731
11809SOL    HW142285   9.089   1.327   2.237 -0.7677 -0.0958 -0.1573
11809SOL    HW242286   8.999   1.285   2.122  0.4451 -0.3534 -1.0375
11810SOL     OW42287   2.283  10.234   9.226  0.2375  0.0718  0.2562
11810SOL    HW142288   2.365  10.219   9.179 -0.9684 -1.3441 -1.4852
11810SOL    HW242289   2.266  10.328   9.214  0.0840 -0.2084 -1.9744
11811SOL     OW42290   2.805   6.551   0.628 -0.1548 -0.1513 -0.6281
11811SOL    HW142291   2.754   6.631   0.644  0.5686  0.1233  0.4026
11811SOL    HW242292   2.854   6.538   0.708 -1.7014 -2.7544  0.0171
11812SOL     OW42293   3.198  10.945   8.043 -0.2542 -0.3650  0.1944
11812SOL    HW142294   3.121  10.891   8.063 -0.9291  0.8615  1.0525
11812SOL    HW242295   3.272  10.886   8.053 -1.0170 -1.3363  0.2945
11813SOL     OW42296  12.111   8.737   2.989 -0.3486  0.4997  0.2245
11813SOL    HW142297  12.089   8.667   3.051  2.2143 -0.9441 -0.3384
11813SOL    HW242298  12.116   8.816   3.043  0.1171 -0.4054  1.5636
11814SOL     OW42299   7.614   7.508   9.129  0.4245 -0.1872  0.5446
11814SOL    HW142300   7.687   7.567   9.148  1.1235 -0.8122 -0.1319
11814SOL    HW242301   7.563   7.507   9.210  0.9780  0.5263  0.9125
11815SOL     OW42302   9.768  10.077   9.032  0.1540 -0.1659 -0.7582
11815SOL    HW142303   9.685  10.114   9.062 -0.0904  0.1679 -1.7808
11815SOL    HW242304   9.824  10.077   9.110 -0.2070  1.3392 -0.4642
11816SOL     OW42305  12.173   5.861   7.137  0.2736  0.3024 -0.4575
11816SOL    HW142306  12.081   5.878   7.159  0.3637  2.4282 -1.4583
11816SOL    HW242307  12.171   5.832   7.045  0.5446 -0.7173 -0.1586
11817SOL     OW42308   3.834  12.353  10.194  0.0760 -0.0010 -0.0934
11817SOL    HW142309   3.854  12.346  10.101 -1.2724  0.6228 -0.4541
11817SOL    HW242310   3.771  12.425  10.200  0.8466  0.5839  1.4163
11818SOL     OW42311   2.750   4.058  10.016  0.9180  0.2333  0.1556
11818SOL    HW142312   2.700   4.078   9.936 -2.7052 -0.2492  2.0771
11818SOL    HW242313   2.766   4.144  10.055 -0.7575  0.3064  0.7500
11819SOL     OW42314   9.594   9.661   2.753  0.0184 -0.7470  0.1206
11819SOL    HW142315   9.664   9.595   2.760 -0.7782 -1.6670 -0.3434
11819SOL    HW242316   9.628   9.737   2.800  1.2772 -1.2256  0.0169
11820SOL     OW42317   5.964   2.591   3.389 -0.6014  0.0251  0.3443
11820SOL    HW142318   6.012   2.511   3.369 -1.2486 -0.7982  1.8567
11820SOL    HW242319   6.031   2.654   3.415 -0.1450 -0.2384 -0.1719
11821SOL     OW42320   0.789  10.139   1.318 -0.3840 -0.1081 -0.1967
11821SOL    HW142321   0.816  10.216   1.268 -1.5731 -0.4092 -1.3562
11821SOL    HW242322   0.837  10.146   1.401  0.3093  1.3233 -0.6884
11822SOL     OW42323   4.650   7.830  11.337  0.0350  0.0988  0.5232
11822SOL    HW142324   4.573   7.862  11.383  0.2459  0.2381  0.7790
11822SOL    HW242325   4.718   7.895  11.356  0.0451  0.3219 -0.2241
11823SOL     OW42326   4.835  10.105   6.776 -0.0855  0.8208 -0.3301
11823SOL    HW142327   4.766  10.047   6.742 -0.9670  1.7618 -0.1758
11823SOL    HW242328   4.883  10.050   6.839 -2.8090  1.0549  2.1600
11824SOL     OW42329   8.968  12.392   8.585 -0.0193 -0.1166 -0.0161
11824SOL    HW142330   8.952  12.486   8.575  1.0063 -0.0642 -1.4568
11824SOL    HW242331   9.034  12.371   8.519  1.9035 -1.3238  2.1335
11825SOL     OW42332   6.388   1.596   9.143  0.3450 -0.0741  0.5841
11825SOL    HW142333   6.405   1.510   9.105 -0.4855 -0.2201  0.5244
11825SOL    HW242334   6.339   1.577   9.223 -2.5874  0.4239 -0.9551
11826SOL     OW42335   5.297   4.883   9.181 -0.3205 -0.3250 -0.1615
11826SOL    HW142336   5.356   4.881   9.106 -0.0626  0.3915  0.0130
11826SOL    HW242337   5.348   4.846   9.253  0.3311  1.3032  0.2583
11827SOL     OW42338  12.552   1.746   8.944 -0.2546  0.0660 -0.2325
11827SOL    HW142339  12.564   1.763   9.038 -0.5402  3.7297 -0.7234
11827SOL    HW242340  12.629   1.784   8.903 -0.0224 -1.7181 -1.5152
11828SOL     OW42341   8.871   7.359  11.495 -0.0351  0.7403  0.2731
11828SOL    HW142342   8.874   7.290  11.561  1.2435 -0.1754 -0.6748
11828SOL    HW242343   8.961   7.392  11.491 -0.3806  1.6735 -0.1000
11829SOL     OW42344   8.673   3.308   6.060 -0.0190 -0.2315  0.2654
11829SOL    HW142345   8.731   3.345   5.994  2.6821 -0.7895  2.1797
11829SOL    HW242346   8.645   3.224   6.023  0.9247 -0.2541 -0.4362
11830SOL     OW42347   9.277   9.816   2.804  0.2087  0.5123  0.2489
11830SOL    HW142348   9.335   9.740   2.805  0.6522  0.8546  1.2795
11830SOL    HW242349   9.279   9.850   2.894  0.1995  1.8840 -0.2479
11831SOL     OW42350   9.295   9.328  11.841 -0.0670  0.1478 -0.4255
11831SOL    HW142351   9.285   9.416  11.878 -0.1189  0.8265 -1.9523
11831SOL    HW242352   9.317   9.343  11.749  0.4936 -1.4485 -0.5886
11832SOL     OW42353   8.859   1.227   4.469  0.4716 -0.2365 -0.1926
11832SOL    HW142354   8.883   1.315   4.439  0.2886  0.0726  0.5302
11832SOL    HW242355   8.942   1.182   4.480  0.6570  0.2936  0.7158
11833SOL     OW42356   1.432   3.905  10.802 -0.1219  0.3583 -0.2821
11833SOL    HW142357   1.454   3.846  10.874 -1.4438 -0.2348 -0.3214
11833SOL    HW242358   1.362   3.859  10.755  0.8603  0.6384 -2.0728
11834SOL     OW42359   6.639   8.991   4.561 -0.3622  0.6825  0.0281
11834SOL    HW142360   6.596   8.926   4.616 -0.2489 -0.1864 -0.8978
11834SOL    HW242361   6.625   8.960   4.472 -0.1009  1.8049 -0.4178
11835SOL     OW42362   3.042   4.599   8.318 -0.1882 -0.0515  0.7010
11835SOL    HW142363   3.095   4.674   8.345  0.6873 -0.2331 -0.4133
11835SOL    HW242364   2.995   4.629   8.241 -0.2440 -0.4853  0.5625
11836SOL     OW42365   0.141   6.587   3.873 -0.6870  0.0409  0.0779
11836SOL    HW142366   0.219   6.586   3.817  0.0825 -0.4212  1.1222
11836SOL    HW242367   0.069   6.570   3.814  0.1756 -1.1012 -0.6810
11837SOL     OW42368   7.180   2.977   8.751 -0.0565 -0.0241 -0.0408
11837SOL    HW142369   7.152   2.989   8.842  1.0351  0.1143  0.2827
11837SOL    HW242370   7.219   2.890   8.749 -2.8918 -1.4047 -1.1245
11838SOL     OW42371   9.566  10.156  11.892  0.0590 -0.1074  0.0817
11838SOL    HW142372   9.495  10.128  11.833 -0.1541 -0.7131  0.6171
11838SOL    HW242373   9.544  10.246  11.914  0.7767  0.5425 -1.7027
11839SOL     OW42374   2.449   5.294   4.721 -0.3117 -0.1205 -0.2827
11839SOL    HW142375   2.498   5.239   4.782 -0.3962  0.4327  0.2932
11839SOL    HW242376   2.513   5.356   4.688 -0.9765  1.9589  2.0396
11840SOL     OW42377  10.172   4.004   6.110 -0.0761  0.4232 -0.0664
11840SOL    HW142378  10.146   4.094   6.127 -0.1291  0.6082 -1.1122
11840SOL    HW242379  10.093   3.961   6.078 -0.8726 -0.7920  3.1034
11841SOL     OW42380   0.847   9.469  10.629  0.2586  0.2043  0.0326
11841SOL    HW142381   0.915   9.403  10.619  0.5394  0.5754 -0.5297
11841SOL    HW242382   0.880   9.527  10.698 -0.5107 -0.8813  1.3613
11842SOL     OW42383  11.167   3.892   1.319  0.4084 -0.1581  0.1486
11842SOL    HW142384  11.208   3.809   1.294  0.9777 -0.0159  0.5849
11842SOL    HW242385  11.138   3.879   1.409  3.4830  1.1247  1.4898
11843SOL     OW42386   5.383   7.007   9.713  0.0556 -0.2948 -0.4250
11843SOL    HW142387   5.445   7.046   9.774  1.2318  0.1026 -1.8290
11843SOL    HW242388   5.376   6.916   9.741 -1.5919  0.4654  1.9710
11844SOL     OW42389   8.560   6.329  11.619 -0.9995  0.0761 -0.0141
11844SOL    HW142390   8.519   6.287  11.543 -0.6447 -0.9452  0.3471
11844SOL    HW242391   8.512   6.411  11.628 -0.0828  0.9500 -2.2456
11845SOL     OW42392   0.676   1.513   4.481 -0.4020 -0.2661 -0.1200
11845SOL    HW142393   0.719   1.428   4.495 -0.6403 -0.5760 -1.1189
11845SOL    HW242394   0.659   1.515   4.387 -0.5615  0.8250 -0.0808
11846SOL     OW42395  12.394  10.482   5.677 -0.6328  0.2057 -0.2822
11846SOL    HW142396  12.318  10.529   5.642  0.3784  0.5371 -2.1796
11846SOL    HW242397  12.412  10.414   5.611  1.3421  0.8253 -0.4555
11847SOL     OW42398   0.211   6.429   1.641 -0.3853  0.0020  0.2634
11847SOL    HW142399   0.304   6.412   1.656  0.4047  2.3820 -1.3348
11847SOL    HW242400   0.200   6.421   1.546 -1.5421  0.8061  0.3081
11848SOL     OW42401   9.256   6.415   7.172 -0.0313 -0.6378 -0.3731
11848SOL    HW142402   9.239   6.498   7.127  0.2822 -1.0169 -1.2254
11848SOL    HW242403   9.183   6.405   7.232 -0.2371  0.1059 -0.4865
11849SOL     OW42404   8.587  11.003   0.299  0.1744  0.1326 -0.4303
11849SOL    HW142405   8.533  10.952   0.359 -1.3614 -0.1445 -1.9770
11849SOL    HW242406   8.622  11.073   0.353 -2.3395  0.7686  0.5382
11850SOL     OW42407   9.102   6.257   9.131 -0.3341  0.3776  0.1397
11850SOL    HW142408   9.060   6.255   9.217 -0.3755 -0.0024  0.1087
11850SOL    HW242409   9.113   6.351   9.113  0.1313  0.4593  0.7808
11851SOL     OW42410   8.968   4.799   2.314  0.4766 -0.6236  0.3603
11851SOL    HW142411   8.929   4.721   2.354 -0.1558 -0.7575 -0.5137
11851SOL    HW242412   9.046   4.766   2.269 -0.8745 -1.1418 -1.7487
11852SOL     OW42413   5.960   5.366   7.750 -0.3144 -0.6440  0.0489
11852SOL    HW142414   6.015   5.313   7.692 -1.2235  0.1078 -1.5774
11852SOL    HW242415   6.002   5.452   7.751 -0.9423 -0.3201 -0.4801
11853SOL     OW42416   1.642   3.280   5.916  0.0480 -0.0288  0.1065
11853SOL    HW142417   1.601   3.297   6.000  1.5203  2.7139  0.3929
11853SOL    HW242418   1.577   3.308   5.851  0.1014  0.9632  0.4585
11854SOL     OW42419  10.544   9.004   5.100  0.2582 -0.4504  0.1832
11854SOL    HW142420  10.483   8.977   5.032  0.0006 -1.1577  0.6763
11854SOL    HW242421  10.631   8.982   5.066  0.1728 -0.2893 -0.1395
11855SOL     OW42422   8.789   0.913   7.050 -0.0631 -0.2483 -0.1205
11855SOL    HW142423   8.804   0.963   7.131  0.2118 -1.1787  0.4186
11855SOL    HW242424   8.699   0.934   7.025  0.3952  1.3788 -0.5284
11856SOL     OW42425   8.213  10.649  11.138  0.4054 -0.0468  0.4223
11856SOL    HW142426   8.147  10.610  11.080  2.9000 -1.5101 -1.6853
11856SOL    HW242427   8.271  10.697  11.079  1.6594  0.5443  2.0585
11857SOL     OW42428   1.616   7.627   2.589  0.5866  0.4474  0.0796
11857SOL    HW142429   1.611   7.543   2.635  0.3747  1.7502  2.5636
11857SOL    HW242430   1.525   7.652   2.576  0.6014  1.4476  1.6664
11858SOL     OW42431   7.156   4.643   9.251 -0.4356  0.8701 -0.3030
11858SOL    HW142432   7.234   4.587   9.252 -0.0714  1.3783 -0.0339
11858SOL    HW242433   7.180   4.716   9.194 -0.4765  1.3628  0.2995
11859SOL     OW42434   7.125   4.367   9.420  0.2417  0.3243 -0.2070
11859SOL    HW142435   7.213   4.403   9.426 -1.1950  3.9052  2.2549
11859SOL    HW242436   7.126   4.291   9.478  1.6526  0.3485 -0.1732
11860SOL     OW42437   1.312   0.703  10.881 -0.7940  0.1031  0.2385
11860SOL    HW142438   1.330   0.617  10.842 -0.4218 -0.1052  0.8471
11860SOL    HW242439   1.234   0.689  10.935 -0.8339  0.1933  0.2053
11861SOL     OW42440  11.153   4.059   6.784  0.3881  0.3124 -0.8889
11861SOL    HW142441  11.193   4.141   6.815  1.0735  0.5974 -2.4347
11861SOL    HW242442  11.226   4.008   6.750 -0.3090  0.0674 -2.0985
11862SOL     OW42443   2.311   0.904   6.466  0.0318 -0.0682 -0.3754
11862SOL    HW142444   2.293   0.990   6.503 -1.0605 -0.0477 -0.8961
11862SOL    HW242445   2.269   0.906   6.380  1.0735 -0.6896 -0.9200
11863SOL     OW42446   7.660   5.894  12.266 -0.4128 -0.0049 -0.1590
11863SOL    HW142447   7.632   5.976  12.307 -0.3879 -0.9087  1.7631
11863SOL    HW242448   7.751   5.910  12.239  0.0492  0.2094  1.4247
11864SOL     OW42449   7.059   5.917   2.289  0.6509  0.3420 -0.1860
11864SOL    HW142450   7.033   5.838   2.336  2.5713  1.2446  2.6968
11864SOL    HW242451   6.997   5.984   2.319  0.4625  0.4427 -0.7865
11865SOL     OW42452  12.100   8.303  10.975 -0.1578 -0.4017  0.2229
11865SOL    HW142453  12.139   8.262  11.053  0.3442 -1.4867 -0.5612
11865SOL    HW242454  12.017   8.339  11.006  1.2037  1.6157  1.8682
11866SOL     OW42455   3.207  11.615  10.799 -0.1989 -0.1251  0.7545
11866SOL    HW142456   3.140  11.630  10.732 -0.1057  1.7399  1.0374
11866SOL    HW242457   3.202  11.691  10.856 -0.4635 -1.8010  3.1028
11867SOL     OW42458   8.010  11.935  10.047  0.3529 -0.3748 -0.0603
11867SOL    HW142459   8.059  11.961   9.969  0.1923  0.1472  0.0108
11867SOL    HW242460   7.983  11.845  10.030  1.1784 -0.6085 -0.1813
11868SOL     OW42461   7.431  12.055   4.659 -0.0151  0.2682 -0.0987
11868SOL    HW142462   7.349  12.013   4.633  0.0314  0.2574 -0.2284
11868SOL    HW242463   7.476  12.073   4.576 -0.5584  1.6548 -0.1040
11869SOL     OW42464  11.681   6.859   5.540  0.6592 -0.2154  0.1270
11869SOL    HW142465  11.707   6.774   5.578 -0.2476  0.6204  2.8656
11869SOL    HW242466  11.690   6.921   5.613  0.1842  1.8444 -1.4868
11870SOL     OW42467  10.173   0.424   8.723  0.3082  0.6941 -0.3129
11870SOL    HW142468  10.159   0.330   8.719  1.7730  0.4676 -1.0808
11870SOL    HW242469  10.094   0.462   8.684 -0.8412 -0.1235  1.1253
11871SOL     OW42470  10.760  12.226   3.753  0.2736 -0.4902  0.4919
11871SOL    HW142471  10.805  12.182   3.825  0.1715 -0.4074  0.6068
11871SOL    HW242472  10.678  12.256   3.791  0.0736 -0.7308  0.2574
11872SOL     OW42473   5.015  10.083   9.589 -0.0045 -0.3061  0.4589
11872SOL    HW142474   5.023  10.026   9.513 -1.1453 -0.0174  0.1096
11872SOL    HW242475   5.044  10.169   9.558 -1.9483  0.1737 -0.1149
11873SOL     OW42476   9.630   4.513   2.312  0.3102 -0.1751  0.1024
11873SOL    HW142477   9.538   4.499   2.335  0.1975 -0.4777 -0.5024
11873SOL    HW242478   9.630   4.514   2.216  0.9450 -0.2267  0.1021
11874SOL     OW42479   7.084  11.930  10.529 -0.2450  0.7990  0.2413
11874SOL    HW142480   7.126  11.890  10.453  1.5020  0.6853  1.2179
11874SOL    HW242481   7.134  12.010  10.545 -0.2219  0.5390  1.5830
11875SOL     OW42482   9.817  11.237  11.423  0.2447 -0.1871 -0.2498
11875SOL    HW142483   9.844  11.162  11.476  0.3925  0.8205  1.1823
11875SOL    HW242484   9.898  11.270  11.385  0.2783 -0.3224 -0.2956
11876SOL     OW42485   6.204   6.216   6.859  0.5119 -0.1406 -0.1731
11876SOL    HW142486   6.129   6.161   6.884  0.2190  0.3652  0.0743
11876SOL    HW242487   6.174   6.262   6.780  0.3397  0.4994  0.2554
11877SOL     OW42488   6.398   6.969   1.838 -0.6514  0.8732  0.1542
11877SOL    HW142489   6.348   7.040   1.798  0.3002  1.4877  0.0471
11877SOL    HW242490   6.331   6.914   1.880 -1.3060  2.4949  1.3257
11878SOL     OW42491   3.185  12.083   4.995 -0.0605 -0.3070 -0.3467
11878SOL    HW142492   3.173  12.156   4.936 -0.5203  0.4459  0.6456
11878SOL    HW242493   3.197  12.007   4.938  0.9515  0.6007 -1.3934
11879SOL     OW42494   5.293  10.263   1.837  0.3509  0.3063 -0.3629
11879SOL    HW142495   5.366  10.229   1.785  1.2451 -0.0041  1.0389
11879SOL    HW242496   5.224  10.197   1.827  0.3967  0.3960 -1.3678
11880SOL     OW42497  11.106  10.069   0.798  0.5512 -0.4607  0.4274
11880SOL    HW142498  11.107   9.981   0.760 -0.0454 -0.0895 -0.4820
11880SOL    HW242499  11.166  10.064   0.872  1.3827 -1.3332 -0.2766
11881SOL     OW42500   6.911  10.122   4.956 -0.0193 -0.1401  0.0357
11881SOL    HW142501   6.824  10.141   4.991  0.7577  3.7481  0.3678
11881SOL    HW242502   6.902  10.133   4.862  0.0636  0.1142  0.0564
11882SOL     OW42503   0.935   2.123  12.103 -0.0865 -0.0888 -0.0520
11882SOL    HW142504   0.995   2.073  12.159 -0.9790 -0.3886  0.6674
11882SOL    HW242505   0.965   2.107  12.014 -0.2065 -1.7333  0.1825
11883SOL     OW42506  10.288   1.128   8.088  0.1860 -0.0192 -0.5658
11883SOL    HW142507  10.371   1.083   8.102  0.2906  0.8041  2.2322
11883SOL    HW242508  10.222   1.067   8.122  0.2485  1.3663  2.3677
11884SOL     OW42509   0.993   1.352   7.794 -0.6075  0.4195  0.1337
11884SOL    HW142510   0.986   1.402   7.713  0.1820  0.8440  0.3136
11884SOL    HW242511   0.912   1.301   7.799 -1.2631  1.3987 -0.2420
11885SOL     OW42512   7.127   7.362   9.372 -0.9827 -0.3750 -1.0253
11885SOL    HW142513   7.099   7.294   9.310  0.6128 -1.6150 -0.4711
11885SOL    HW242514   7.105   7.326   9.458  0.3916 -0.4743 -0.6959
11886SOL     OW42515   9.556   3.512   9.757 -0.3743  0.2386  0.0425
11886SOL    HW142516   9.644   3.539   9.730  1.0056 -3.0494  0.7021
11886SOL    HW242517   9.526   3.454   9.687 -1.0264 -0.4358  0.8619
11887SOL     OW42518   3.664   9.060  12.134 -0.3104  0.2310 -0.5942
11887SOL    HW142519   3.675   9.156  12.137 -0.9007  0.3453 -1.6402
11887SOL    HW242520   3.717   9.033  12.059 -2.7439  0.1826 -2.4470
11888SOL     OW42521   4.760   0.771   1.969  0.2909 -0.0195 -0.2090
11888SOL    HW142522   4.775   0.863   1.948 -1.6808  0.3059 -0.3318
11888SOL    HW242523   4.679   0.749   1.924  0.4440 -1.6686  0.2727
11889SOL     OW42524  10.690   6.986   1.604  0.9243  0.2923 -0.3110
11889SOL    HW142525  10.657   7.076   1.606 -1.3626 -0.4995  0.2667
11889SOL    HW242526  10.614   6.933   1.582  2.2326 -1.5200 -0.6562
11890SOL     OW42527   2.182   3.766   4.600 -0.6541 -0.0859  0.3399
11890SOL    HW142528   2.174   3.674   4.578 -2.0399 -0.1000  0.7731
11890SOL    HW242529   2.256   3.770   4.660 -0.1520 -0.8033 -0.2167
11891SOL     OW42530   8.432   0.035   0.118 -0.1690  0.5122 -0.0782
11891SOL    HW142531   8.489   0.074   0.185  0.8711 -0.1929 -0.5214
11891SOL    HW242532   8.492   0.009   0.048 -0.8468 -1.6390  0.0912
11892SOL     OW42533   1.382  11.822  10.794  0.5555  0.2344  0.2651
11892SOL    HW142534   1.371  11.744  10.740 -0.7723  0.9091 -0.4986
11892SOL    HW242535   1.354  11.796  10.882  1.7183 -0.5768  0.4233
11893SOL     OW42536  11.006   5.623   1.780 -0.3609 -0.2088  0.6994
11893SOL    HW142537  10.933   5.630   1.842 -2.0997  0.7047 -1.3373
11893SOL    HW242538  11.033   5.714   1.765 -0.8678 -0.2878 -0.8491
11894SOL     OW42539   9.943   5.343  10.736 -0.9853 -0.0146  0.1936
11894SOL    HW142540   9.997   5.280  10.688 -1.1612 -0.8685  1.0994
11894SOL    HW242541   9.863   5.296  10.756 -1.2452  0.5991  0.6253
11895SOL     OW42542   2.411   3.206   7.888 -0.3351  0.0421 -0.1533
11895SOL    HW142543   2.487   3.192   7.944 -0.8616 -0.1815  0.5288
11895SOL    HW242544   2.439   3.177   7.801  0.5434  0.5326 -0.0439
11896SOL     OW42545   4.577   7.529  10.157 -0.0193 -0.0308  0.2202
11896SOL    HW142546   4.512   7.559  10.220 -1.6070 -2.1132 -0.3454
11896SOL    HW242547   4.600   7.441  10.185 -1.0414 -1.1697 -2.2222
11897SOL     OW42548  10.674   4.917   4.709  0.4160  0.0261  0.6669
11897SOL    HW142549  10.656   4.836   4.756 -1.9579  0.3090  0.3623
11897SOL    HW242550  10.670   4.985   4.776 -1.7466  0.2929  0.3360
11898SOL     OW42551   0.017   2.880   8.987  0.8661  0.5049  0.1118
11898SOL    HW142552  -0.040   2.821   9.035  0.2881 -0.3280 -1.4961
11898SOL    HW242553  -0.027   2.965   8.991 -0.0510  0.0721 -0.3376
11899SOL     OW42554   2.014  10.726   0.268 -0.6599  0.5502  0.0547
11899SOL    HW142555   2.084  10.672   0.306 -0.6281  0.7530  0.2941
11899SOL    HW242556   1.948  10.663   0.239  0.6814  0.1603 -2.4671
11900SOL     OW42557  11.142   9.673  10.984 -0.0977  0.0884  0.1812
11900SOL    HW142558  11.214   9.703  10.929  1.4121 -0.2620  1.8441
11900SOL    HW242559  11.103   9.754  11.017  0.1753  0.2849  0.0336
11901SOL     OW42560   6.910   4.601   0.793 -0.5193 -0.7294 -0.6813
11901SOL    HW142561   6.958   4.628   0.871 -1.2203 -0.9462 -0.1584
11901SOL    HW242562   6.977   4.569   0.733  0.3126  1.8483 -1.2308
11902SOL     OW42563  10.039   7.729   1.826  0.0087  0.3297  0.2349
11902SOL    HW142564   9.981   7.660   1.858  1.2699 -0.6166  0.5947
11902SOL    HW242565  10.011   7.808   1.872 -1.2726  0.0129  0.0438
11903SOL     OW42566  11.176   1.028   1.636 -0.5345  0.1195 -0.4432
11903SOL    HW142567  11.172   0.941   1.674  0.0576  0.1559 -0.2808
11903SOL    HW242568  11.100   1.034   1.579 -0.8228 -0.3376 -0.1068
11904SOL     OW42569   1.997   0.461   1.502  0.5042  0.1599 -0.2968
11904SOL    HW142570   1.994   0.530   1.568 -1.3549  0.6065 -0.7694
11904SOL    HW242571   1.994   0.379   1.551 -0.5548  0.4830  0.2089
11905SOL     OW42572   2.494  11.462  10.018  0.2888  0.5437 -0.5244
11905SOL    HW142573   2.578  11.434  10.053  0.1519 -0.8475 -1.2516
11905SOL    HW242574   2.453  11.511  10.089  1.1075  0.0158  0.3268
11906SOL     OW42575  10.031   1.758   3.117  0.2826 -0.5062  0.0354
11906SOL    HW142576  10.123   1.779   3.132  1.0397 -1.5111 -2.5826
11906SOL    HW242577  10.027   1.663   3.125 -0.5847 -0.4419  0.3812
11907SOL     OW42578   2.210   3.621   0.610  0.1995 -0.2585  0.6966
11907SOL    HW142579   2.211   3.561   0.685 -0.2363 -0.7493  0.3134
11907SOL    HW242580   2.121   3.656   0.608 -0.4634 -1.9053 -0.8794
11908SOL     OW42581   7.302   4.112  12.198  0.2551  0.8391 -0.0151
11908SOL    HW142582   7.267   4.102  12.286 -0.7275  1.4309 -0.3188
11908SOL    HW242583   7.351   4.031  12.182  0.2442  0.6325  0.9783
11909SOL     OW42584   2.805   1.463   6.224 -0.3794  0.4087  0.4078
11909SOL    HW142585   2.782   1.553   6.202 -0.2115  0.6291  1.1054
11909SOL    HW242586   2.901   1.462   6.221 -0.3036 -0.9220 -4.1804
11910SOL     OW42587   6.840   7.996   6.156 -0.1926  0.0502 -0.5422
11910SOL    HW142588   6.822   7.953   6.240 -1.2075 -0.4068 -0.9858
11910SOL    HW242589   6.936   7.995   6.149 -0.0160  1.0792  1.1136
11911SOL     OW42590   3.467   0.833   5.867  0.7992  0.0444 -0.1242
11911SOL    HW142591   3.470   0.748   5.824  0.4877 -0.7326  1.3183
11911SOL    HW242592   3.507   0.894   5.805  2.4894 -1.4268 -0.5466
11912SOL     OW42593   3.380  12.367   4.059  0.2588  0.5859  0.4074
11912SOL    HW142594   3.310  12.302   4.065  0.7107  0.0640  0.0882
11912SOL    HW242595   3.428  12.343   3.981 -0.1908  1.9363 -0.3240
11913SOL     OW42596   6.286   3.246   5.299  0.4022 -0.1319 -0.0996
11913SOL    HW142597   6.223   3.214   5.234 -0.2998  0.2059  0.3971
11913SOL    HW242598   6.242   3.230   5.383  1.6367 -1.3384  0.3557
11914SOL     OW42599   4.559   2.189   1.830  0.4243 -0.3930  0.1906
11914SOL    HW142600   4.613   2.267   1.840  0.6199 -0.5598  0.4331
11914SOL    HW242601   4.526   2.171   1.918 -0.5928  0.1104 -0.0711
11915SOL     OW42602  11.286  10.871   0.009  0.3692 -0.4843 -0.3067
11915SOL    HW142603  11.339  10.815  -0.048  0.4001  0.7854 -1.5804
11915SOL    HW242604  11.325  10.958   0.001 -1.9957  0.5695 -1.5110
11916SOL     OW42605   2.034   4.049  11.446 -0.2624  0.2871  0.0020
11916SOL    HW142606   2.031   4.142  11.467  1.0692  0.0082  1.5651
11916SOL    HW242607   2.004   4.045  11.355 -1.0730  2.1345  0.1290
11917SOL     OW42608   3.297   9.048   7.266 -0.0342  0.5419 -0.4155
11917SOL    HW142609   3.223   9.043   7.206 -0.5864 -0.4832  0.3343
11917SOL    HW242610   3.296   8.965   7.314  0.8422  1.0269  0.4921
11918SOL     OW42611   4.679   5.484  12.413  0.0880  0.3281 -0.0281
11918SOL    HW142612   4.682   5.537  12.333 -0.0297  0.0761 -0.1998
11918SOL    HW242613   4.681   5.393  12.382 -1.7977  0.1910  0.1584
11919SOL     OW42614   9.400   1.549   4.772  0.3279 -0.4610 -1.0304
11919SOL    HW142615   9.304   1.555   4.774  0.2835 -1.1453 -1.0018
11919SOL    HW242616   9.421   1.532   4.681  0.3599 -1.2467 -0.8823
11920SOL     OW42617   6.305   1.455   7.256 -0.0743  0.5616 -0.5003
11920SOL    HW142618   6.323   1.453   7.350 -1.0844 -2.4326 -0.2711
11920SOL    HW242619   6.392   1.459   7.215  0.6042 -1.5110  0.5956
11921SOL     OW42620   8.821  12.303   2.039  0.3452  0.2443  0.2473
11921SOL    HW142621   8.844  12.233   1.978  2.3797  0.8003  0.2949
11921SOL    HW242622   8.801  12.378   1.983 -0.2900  0.0704  0.2318
11922SOL     OW42623   2.661   5.026   1.960 -0.2077 -0.2974 -0.0898
11922SOL    HW142624   2.655   5.084   2.036  0.0137  0.3212 -0.5389
11922SOL    HW242625   2.685   4.941   1.997  0.4206  0.1169  0.4794
11923SOL     OW42626   0.695   3.824   2.556  0.2562  0.0188  0.4218
11923SOL    HW142627   0.769   3.792   2.505  0.3748  2.0661 -0.7998
11923SOL    HW242628   0.731   3.896   2.609 -0.6465  0.4230  0.5085
11924SOL     OW42629   6.740   8.534   8.096 -0.0084  0.4585 -0.4283
11924SOL    HW142630   6.715   8.547   8.187  1.6666  1.0767 -0.0257
11924SOL    HW242631   6.659   8.506   8.052 -0.4777 -1.5888  1.5613
11925SOL     OW42632   8.741   7.886  11.432  0.7721  0.3800 -0.3825
11925SOL    HW142633   8.765   7.912  11.521 -0.8067 -0.1963  0.2406
11925SOL    HW242634   8.646   7.894  11.429  0.8009  0.4785 -2.0656
11926SOL     OW42635   2.554   8.610   1.215  0.0061  0.1739  0.1169
11926SOL    HW142636   2.572   8.700   1.188 -1.4838  0.7602  0.9275
11926SOL    HW242637   2.494   8.619   1.290 -1.2383 -1.5089 -0.6158
11927SOL     OW42638   2.436   8.904   9.174 -0.3702  0.5227  0.1024
11927SOL    HW142639   2.473   8.979   9.220 -0.9174  0.7725  0.1526
11927SOL    HW242640   2.366   8.873   9.232  0.2347 -0.4042  0.3641
11928SOL     OW42641  12.529   4.562  12.468  0.0912 -0.1906  0.3652
11928SOL    HW142642  12.539   4.488  12.408 -1.5723 -0.7655  0.7509
11928SOL    HW242643  12.456   4.613  12.434 -0.5232 -0.2226  1.5668
11929SOL     OW42644   4.146   3.365   7.911  0.3094  0.0290 -0.6206
11929SOL    HW142645   4.224   3.420   7.913 -0.0100  0.5064 -1.0083
11929SOL    HW242646   4.174   3.282   7.951  1.8452 -0.8750 -3.3058
11930SOL     OW42647   6.586   0.862   6.768  0.1663 -0.2747 -0.3348
11930SOL    HW142648   6.535   0.881   6.690 -0.8873  0.4727  0.4957
11930SOL    HW242649   6.591   0.766   6.771 -1.9069 -0.4241 -0.0375
11931SOL     OW42650   8.288   4.565   2.338  0.3470 -0.2770 -0.3546
11931SOL    HW142651   8.218   4.529   2.392  0.5552 -0.0612  0.0651
11931SOL    HW242652   8.311   4.648   2.380  0.1573  0.1426 -1.0801
11932SOL     OW42653   3.471   2.422   4.131  0.4507 -0.3561  0.0908
11932SOL    HW142654   3.490   2.465   4.214 -0.0934 -2.5589  1.4522
11932SOL    HW242655   3.418   2.485   4.082  0.3221  0.7771  1.6300
11933SOL     OW42656   9.901   0.993   8.933 -0.9581  0.0645 -0.0544
11933SOL    HW142657   9.925   0.914   8.885 -0.4144  0.2082 -0.0269
11933SOL    HW242658   9.809   1.007   8.912 -0.9206 -0.2871 -0.4656
11934SOL     OW42659   9.848   6.305   9.857 -0.1999  0.3195 -0.1326
11934SOL    HW142660   9.868   6.374   9.920  0.6000 -0.9476  1.0773
11934SOL    HW242661   9.893   6.228   9.892  1.1641 -0.2224 -2.8224
11935SOL     OW42662   9.762   8.999   9.906  0.2589  0.1275 -0.2454
11935SOL    HW142663   9.694   8.954   9.856 -1.1282  0.4849  1.2258
11935SOL    HW242664   9.839   8.942   9.900 -1.2294 -2.1431  0.9997
11936SOL     OW42665   7.544  10.814   7.562  0.1886 -0.0022  0.5536
11936SOL    HW142666   7.617  10.769   7.605  0.6485  0.1673 -0.0307
11936SOL    HW242667   7.574  10.905   7.554  0.0092  0.0175  0.1051
11937SOL     OW42668   1.060   8.124   1.299  0.2942  0.0242  0.1055
11937SOL    HW142669   1.009   8.204   1.314  0.0245  0.2523 -1.7318
11937SOL    HW242670   1.140   8.154   1.256 -0.7880 -0.7947 -2.6832
11938SOL     OW42671   1.934   0.436  12.123 -0.5393 -0.8105 -0.3256
11938SOL    HW142672   1.857   0.494  12.117  0.3838  0.4032 -0.8686
11938SOL    HW242673   1.995   0.471  12.058  0.5781 -1.6143  0.2645
11939SOL     OW42674   2.428  10.438   7.156 -0.4577  0.1848  0.2236
11939SOL    HW142675   2.381  10.421   7.238 -0.7251 -1.3586 -0.2136
11939SOL    HW242676   2.500  10.374   7.158 -0.7310 -0.1693 -0.9470
11940SOL     OW42677   0.866   6.454   2.790 -0.0787  0.4666  0.3219
11940SOL    HW142678   0.858   6.533   2.737 -1.7570 -0.9021 -1.6204
11940SOL    HW242679   0.794   6.398   2.761 -1.0188 -0.4738  3.9800
11941SOL     OW42680   2.770  12.117   4.500 -0.2923  0.3427  0.6393
11941SOL    HW142681   2.802  12.207   4.488 -0.5857  0.3323 -0.2575
11941SOL    HW242682   2.696  12.110   4.440  0.9570 -1.1298 -0.8128
11942SOL     OW42683   2.267  10.489   8.447 -0.5594  0.1141  0.3571
11942SOL    HW142684   2.207  10.515   8.376  0.0096 -1.3524 -0.7163
11942SOL    HW242685   2.298  10.402   8.421  1.8696  0.7201  0.9856
11943SOL     OW42686   8.945  11.144   9.512  0.0835  0.3730 -0.3009
11943SOL    HW142687   8.907  11.216   9.562  2.1289  1.3561 -0.0613
11943SOL    HW242688   9.031  11.130   9.552 -1.1319 -3.9937  1.3841
11944SOL     OW42689   2.119   1.758   7.215  0.0750 -0.0580  0.0242
11944SOL    HW142690   2.076   1.672   7.210  0.6373 -0.2918 -1.0915
11944SOL    HW242691   2.202   1.740   7.259  0.2736 -0.1299 -0.3727
11945SOL     OW42692   2.421   1.070   0.400  0.6125  0.1226 -0.8255
11945SOL    HW142693   2.470   1.147   0.373 -1.1088  0.5901 -2.8100
11945SOL    HW242694   2.441   1.004   0.333  0.1268 -0.3329 -0.5329
11946SOL     OW42695   5.419   5.249  11.314  0.4879 -0.1140 -0.6779
11946SOL    HW142696   5.338   5.216  11.274  0.5030 -2.6051  1.0882
11946SOL    HW242697   5.393   5.331  11.355 -1.1380 -0.7449 -0.3392
11947SOL     OW42698  11.103   4.937   2.910  0.3256  0.1307  0.0428
11947SOL    HW142699  11.040   4.963   2.977 -0.3436 -1.2171 -0.0175
11947SOL    HW242700  11.050   4.893   2.844  1.1231  0.4940 -0.8521
11948SOL     OW42701   8.002   6.445   0.666 -0.1474 -0.1527 -0.6091
11948SOL    HW142702   7.990   6.529   0.711  0.8538 -0.5287  0.4174
11948SOL    HW242703   7.949   6.383   0.715  0.8534 -0.5417  0.0163
11949SOL     OW42704   2.845  11.655   9.996  0.3352 -0.0145 -0.8951
11949SOL    HW142705   2.796  11.722  10.044 -1.0479 -1.1137 -0.7272
11949SOL    HW242706   2.850  11.688   9.907 -2.2092 -0.6018 -1.3316
11950SOL     OW42707   6.675   6.779   1.187 -0.7628 -0.4678  0.1680
11950SOL    HW142708   6.580   6.790   1.186 -0.7486 -0.0567  1.2312
11950SOL    HW242709   6.689   6.687   1.209 -0.9035 -0.8984 -1.4772
11951SOL     OW42710  12.392   6.716   6.425 -0.0160  0.2472  0.1428
11951SOL    HW142711  12.402   6.626   6.455 -0.3721 -0.2314 -1.1014
11951SOL    HW242712  12.414   6.769   6.501 -2.3031 -0.8852  1.7401
11952SOL     OW42713   4.197   0.165  11.851  0.0855  0.1171 -0.1443
11952SOL    HW142714   4.173   0.257  11.839 -0.8588  0.2304  2.1254
11952SOL    HW242715   4.130   0.116  11.803 -0.8408  0.5954  0.6141
11953SOL     OW42716  11.162   9.073   8.604  0.1629 -0.0898  0.4600
11953SOL    HW142717  11.104   9.129   8.656  0.0034  1.5549 -1.3396
11953SOL    HW242718  11.170   8.992   8.654 -2.1653  0.3569  1.6836
11954SOL     OW42719   8.417  10.659   7.757  0.6506  0.2973  0.5090
11954SOL    HW142720   8.379  10.655   7.669  1.4165  4.4367 -0.2038
11954SOL    HW242721   8.342  10.670   7.815  0.1668 -2.0899  0.4191
11955SOL     OW42722   8.052   3.946   2.347 -0.8489 -0.0956  0.6658
11955SOL    HW142723   8.093   3.889   2.412 -1.1985  0.4403  1.3751
11955SOL    HW242724   7.978   3.985   2.394 -1.6100 -0.3320 -0.3092
11956SOL     OW42725   5.258   0.902   9.904 -0.4655  0.0765  0.2960
11956SOL    HW142726   5.271   0.819   9.951 -0.2110 -1.4516 -2.2689
11956SOL    HW242727   5.163   0.912   9.901 -0.4978 -0.0626  0.7018
11957SOL     OW42728   4.026   8.485   7.460  0.2910 -0.4017  0.0675
11957SOL    HW142729   3.936   8.494   7.493  1.0664 -0.4008  2.3810
11957SOL    HW242730   4.055   8.575   7.443  0.3569 -0.2583  0.8767
11958SOL     OW42731   1.294  11.776   0.573  0.6733 -0.1507  0.5688
11958SOL    HW142732   1.217  11.768   0.517  0.8505 -1.0897  0.4486
11958SOL    HW242733   1.343  11.849   0.536  0.3226 -0.1619  0.0721
11959SOL     OW42734  11.935   1.204   2.291 -0.3548 -0.3491 -0.5281
11959SOL    HW142735  11.925   1.298   2.276 -0.5084 -0.4435 -1.0546
11959SOL    HW242736  11.924   1.193   2.385 -1.7860 -0.0132 -0.6259
11960SOL     OW42737   7.388   8.588   0.364  0.5141 -0.0471 -0.3752
11960SOL    HW142738   7.406   8.682   0.373  1.1422 -0.2807  1.0180
11960SOL    HW242739   7.443   8.560   0.291  0.3814  0.6463 -0.7498
11961SOL     OW42740   8.025   2.730   8.049 -0.4354  0.5753  0.4502
11961SOL    HW142741   8.082   2.701   7.978  0.3895 -0.6319  1.5538
11961SOL    HW242742   7.948   2.674   8.042 -0.7829  1.0980 -0.0415
11962SOL     OW42743  11.983  11.792  10.272 -0.0562 -0.0923  0.2934
11962SOL    HW142744  12.061  11.846  10.283 -0.9727  1.1926  0.8754
11962SOL    HW242745  11.970  11.786  10.177 -0.7526  2.0447  0.1913
11963SOL     OW42746   4.772   5.363   9.936 -0.7654 -0.0058  0.1561
11963SOL    HW142747   4.853   5.385   9.889 -1.6006 -0.0659 -1.3532
11963SOL    HW242748   4.759   5.270   9.918 -1.5076  0.1522 -0.1500
11964SOL     OW42749   4.205   4.847  11.945  0.3514 -0.3864  0.1042
11964SOL    HW142750   4.144   4.783  11.982  1.0244 -0.2263  1.5907
11964SOL    HW242751   4.251   4.881  12.022  1.6619  0.1517 -0.9032
11965SOL     OW42752  10.597   8.458   5.852  0.0831 -0.3205  0.0139
11965SOL    HW142753  10.623   8.447   5.944  1.1340 -0.6798 -0.3110
11965SOL    HW242754  10.659   8.523   5.818  0.2609 -0.8408 -0.6643
11966SOL     OW42755   9.356   5.737   5.650 -0.1658 -0.1578 -0.2815
11966SOL    HW142756   9.299   5.686   5.708 -1.0469 -0.1492 -1.1113
11966SOL    HW242757   9.439   5.742   5.696 -0.5410 -1.0138  0.5184
11967SOL     OW42758   4.132   4.022   9.478  0.0675 -0.5541  0.0094
11967SOL    HW142759   4.168   3.938   9.507 -2.2930 -1.2166  1.3622
11967SOL    HW242760   4.176   4.088   9.533 -0.1299 -1.2304  1.0146
11968SOL     OW42761   8.596   5.562   9.541  0.4306  0.1847  0.1134
11968SOL    HW142762   8.615   5.472   9.570  0.7112 -0.1004 -0.9072
11968SOL    HW242763   8.536   5.596   9.607  1.2110 -0.3512  1.1398
11969SOL     OW42764   9.128  10.982  11.819 -0.0029 -0.0741 -0.4781
11969SOL    HW142765   9.212  11.011  11.856 -0.1703 -1.4117  1.0513
11969SOL    HW242766   9.152  10.932  11.741  0.5342  0.3926 -0.6224
11970SOL     OW42767   3.308   5.942   3.518 -0.3693  0.1902 -0.3141
11970SOL    HW142768   3.219   5.978   3.511 -1.0559 -1.3020  0.3902
11970SOL    HW242769   3.324   5.935   3.612  0.8349  1.1885 -0.4239
11971SOL     OW42770   8.798   9.543   4.230 -0.2758  0.4353  0.0663
11971SOL    HW142771   8.729   9.569   4.291 -0.6574 -1.7236  0.6506
11971SOL    HW242772   8.875   9.594   4.257 -0.7507  0.3670  1.6343
11972SOL     OW42773   6.149  11.248   0.721 -0.2213 -0.1314  0.2553
11972SOL    HW142774   6.066  11.277   0.684 -1.4195 -1.5640  1.6835
11972SOL    HW242775   6.131  11.235   0.814  1.5261 -0.7363  0.5459
11973SOL     OW42776   6.645  10.353   9.004 -0.3330 -0.6394 -0.6361
11973SOL    HW142777   6.688  10.425   8.957  0.7336 -0.3878  0.6624
11973SOL    HW242778   6.598  10.396   9.076  0.8810 -1.2461  0.5702
11974SOL     OW42779   1.155   1.715   1.820  0.2421  0.2222  0.2069
11974SOL    HW142780   1.199   1.715   1.735  0.7993  3.2070  0.4059
11974SOL    HW242781   1.069   1.752   1.803  0.2242  0.5202  0.9005
11975SOL     OW42782   8.109   6.443   9.520  0.4458  0.0981 -0.4771
11975SOL    HW142783   8.147   6.355   9.516  0.2295 -0.0253  0.0873
11975SOL    HW242784   8.029   6.436   9.468  0.0948 -0.2231  0.0827
11976SOL     OW42785   4.645   9.779   1.522 -0.0591 -0.0581 -0.1074
11976SOL    HW142786   4.706   9.853   1.513  0.9672 -0.7396  0.8735
11976SOL    HW242787   4.660   9.726   1.444  0.5791 -0.1688  0.0757
11977SOL     OW42788   2.191  11.778   4.475 -0.2185  0.1619  0.3494
11977SOL    HW142789   2.098  11.757   4.481 -0.1069 -0.6665 -0.6159
11977SOL    HW242790   2.197  11.839   4.402 -0.0137  0.3138  0.4907
11978SOL     OW42791   3.180   4.328   4.967 -0.0578 -0.2317 -0.1226
11978SOL    HW142792   3.192   4.238   4.997 -3.2322 -0.8992 -0.4470
11978SOL    HW242793   3.097   4.356   5.006 -1.3113  0.9997 -3.2741
11979SOL     OW42794  11.552   1.567  11.442  0.1711  1.0030 -0.0486
11979SOL    HW142795  11.621   1.562  11.375  1.0328  1.8093  0.7538
11979SOL    HW242796  11.516   1.655  11.433  0.4211  1.1829  0.6732
11980SOL     OW42797   2.672   2.005   6.696 -0.2716  0.2200 -0.0402
11980SOL    HW142798   2.755   1.982   6.738  0.1245  2.0744  0.2714
11980SOL    HW242799   2.606   1.987   6.763 -0.1827 -1.5248 -0.3826
11981SOL     OW42800   3.726   3.219   5.078  0.4110  0.3355 -0.0910
11981SOL    HW142801   3.799   3.178   5.031 -0.2012  0.4144 -1.1277
11981SOL    HW242802   3.695   3.150   5.137  1.0800  0.1836  0.1010
11982SOL     OW42803  12.197  12.263   0.554  0.4279 -0.2492  0.2293
11982SOL    HW142804  12.130  12.314   0.600  0.0338  0.1354 -0.7353
11982SOL    HW242805  12.191  12.176   0.593  0.1283  0.0699  0.9209
11983SOL     OW42806   6.299   0.240   0.727 -0.3518 -0.2239  0.3143
11983SOL    HW142807   6.288   0.171   0.792  0.7353  0.0883  0.8548
11983SOL    HW242808   6.221   0.294   0.735 -0.9101 -1.0152  0.3307
11984SOL     OW42809   8.821  10.785   0.986  0.4004  0.2104  0.1658
11984SOL    HW142810   8.750  10.721   0.975  0.4185  0.0150  1.1046
11984SOL    HW242811   8.828  10.827   0.901 -0.5796 -0.0421 -0.0549
11985SOL     OW42812   6.728   5.603   1.177 -0.4640  0.4582 -0.0920
11985SOL    HW142813   6.803   5.638   1.129 -0.6602  0.8363 -0.1281
11985SOL    HW242814   6.709   5.670   1.244 -0.4395  0.1216  0.2574
11986SOL     OW42815   0.942   8.180   1.873  0.0282  0.5807 -0.1906
11986SOL    HW142816   1.012   8.115   1.877 -0.1367  0.4209  0.0976
11986SOL    HW242817   0.953   8.234   1.951  0.3820  1.1268 -0.6135
11987SOL     OW42818   1.350   7.112   1.924  0.0912 -0.0873  0.2565
11987SOL    HW142819   1.288   7.098   1.996  2.0021 -1.5181  1.7146
11987SOL    HW242820   1.352   7.207   1.912 -1.6568  0.0449  0.7910
11988SOL     OW42821   3.669   9.320   7.252  0.4260  0.5562 -0.4919
11988SOL    HW142822   3.606   9.250   7.269  0.2421  1.5053  4.0945
11988SOL    HW242823   3.752   9.275   7.239  0.2428 -0.6554  1.9291
11989SOL     OW42824  10.881   9.630  11.122 -0.2174 -0.2169  0.0785
11989SOL    HW142825  10.875   9.540  11.153 -0.1397  0.2120  1.4264
11989SOL    HW242826  10.903   9.681  11.201  1.1207  0.8061 -0.8910
11990SOL     OW42827   2.357  11.509   5.743  0.1371 -0.2774  0.1600
11990SOL    HW142828   2.354  11.586   5.687 -0.7520 -0.4385 -0.0290
11990SOL    HW242829   2.353  11.544   5.832 -0.0692 -0.1001  0.0800
11991SOL     OW42830   5.105   7.721   0.315 -0.2725  0.3961 -0.1045
11991SOL    HW142831   5.020   7.765   0.310  0.6729  2.3790  0.0969
11991SOL    HW242832   5.134   7.736   0.405  0.1050 -0.6459 -0.0438
11992SOL     OW42833   2.928   9.496   7.338  0.2362  0.2938  0.6177
11992SOL    HW142834   2.946   9.577   7.387  0.2098 -0.2122  1.4904
11992SOL    HW242835   2.835   9.480   7.351  0.3361 -0.1232  0.8357
11993SOL     OW42836   5.916   6.626   7.469 -0.1328 -0.3665  0.1239
11993SOL    HW142837   5.892   6.717   7.452 -0.1352 -0.0721  1.6083
11993SOL    HW242838   6.011   6.626   7.469 -0.1228 -0.5543 -0.7591
11994SOL     OW42839   2.295   8.132   5.442  0.1052  0.0848 -0.3869
11994SOL    HW142840   2.239   8.208   5.457 -0.0263 -0.4451  2.2581
11994SOL    HW242841   2.239   8.057   5.462  1.3601 -0.5059  1.0420
11995SOL     OW42842   3.264  10.447   8.506  0.2705 -0.3766  0.3905
11995SOL    HW142843   3.296  10.358   8.494  0.0784 -0.1204 -3.5409
11995SOL    HW242844   3.202  10.459   8.434 -0.5340  2.6104  1.4499
11996SOL     OW42845   7.954   3.053   4.939 -0.0215  0.4785 -0.1389
11996SOL    HW142846   8.009   2.977   4.955 -1.0320  0.0186  1.4114
11996SOL    HW242847   8.016   3.125   4.928  0.9508 -0.5202 -1.5722
11997SOL     OW42848   1.333   1.452   7.658  0.1828  0.2325  0.0622
11997SOL    HW142849   1.424   1.451   7.628  0.6230  1.1422  1.3113
11997SOL    HW242850   1.283   1.482   7.582  0.8781 -0.5395 -0.7225
11998SOL     OW42851  11.889  11.915  12.198 -0.2649 -0.1812  0.6851
11998SOL    HW142852  11.815  11.859  12.221 -0.1925  0.2325  2.0535
11998SOL    HW242853  11.877  11.993  12.253  1.7788 -0.5921  1.8110
11999SOL     OW42854   9.594   9.128   8.008  0.4685 -0.0681  0.3512
11999SOL    HW142855   9.605   9.047   7.958 -0.1810  0.0954 -0.0751
11999SOL    HW242856   9.530   9.105   8.076  0.2049  0.1102  0.1650
12000SOL     OW42857   7.137   1.888  10.388  0.1650 -0.7431  0.2586
12000SOL    HW142858   7.113   1.906  10.479 -1.7121  0.9627 -0.5018
12000SOL    HW242859   7.063   1.921  10.336  1.0188 -1.9660 -1.8883
12001SOL     OW42860   3.008  10.634  10.007 -0.5955 -0.0352 -0.0370
12001SOL    HW142861   2.928  10.592  10.040 -1.0420 -0.3811 -1.5123
12001SOL    HW242862   3.053  10.565   9.959 -0.6807  0.8224 -1.3877
12002SOL     OW42863   4.540   0.398   1.790  0.3918 -0.3008 -0.2641
12002SOL    HW142864   4.465   0.381   1.733 -0.2360  0.3681  0.3366
12002SOL    HW242865   4.504   0.450   1.862  1.3015 -0.5461  0.3900
12003SOL     OW42866   9.743   4.264   5.933 -0.4626  0.0290  0.5464
12003SOL    HW142867   9.835   4.237   5.931 -0.4926 -0.0410  0.0707
12003SOL    HW242868   9.700   4.207   5.869 -1.5401 -2.5038  3.2498
12004SOL     OW42869   1.160   8.111  10.770  0.4112 -0.1879 -0.4794
12004SOL    HW142870   1.071   8.141  10.752  0.1608 -0.8667 -0.4212
12004SOL    HW242871   1.202   8.185  10.815  0.1455  0.4406 -1.2578
12005SOL     OW42872   1.704   5.394  10.363 -0.3585 -0.6516 -0.5067
12005SOL    HW142873   1.620   5.431  10.335 -1.4462 -1.2305  1.7938
12005SOL    HW242874   1.696   5.300  10.347 -0.5615 -0.8411  0.6692
12006SOL     OW42875  10.342   8.541   1.219 -0.8108  0.4265 -0.3213
12006SOL    HW142876  10.383   8.617   1.261 -1.8140  0.7064  0.1696
12006SOL    HW242877  10.249   8.563   1.215 -1.5024 -1.6461  1.8228
12007SOL     OW42878   3.401   5.728   6.978  0.5407  0.0509 -0.6450
12007SOL    HW142879   3.319   5.714   6.931  0.0908  2.1429 -0.6006
12007SOL    HW242880   3.446   5.796   6.927  0.4521  1.7239  1.3795
12008SOL     OW42881   2.516   4.961  11.237 -0.8108  0.6031  0.0064
12008SOL    HW142882   2.574   4.953  11.161  0.6901  0.4125  1.1341
12008SOL    HW242883   2.455   4.888  11.229 -1.2592  1.1082 -1.4842
12009SOL     OW42884   0.758   1.601   9.565 -0.2438 -0.0219  0.2850
12009SOL    HW142885   0.738   1.640   9.480 -0.2383 -1.3720 -0.3570
12009SOL    HW242886   0.815   1.665   9.608  1.4891 -0.2254 -1.5637
12010SOL     OW42887   5.426   3.805  12.248  0.5207  0.2233  0.1699
12010SOL    HW142888   5.352   3.864  12.262 -0.0888 -0.3398 -0.5713
12010SOL    HW242889   5.437   3.802  12.153 -0.4670 -2.0152  0.0522
12011SOL     OW42890  12.554   0.620   4.068 -0.8050  0.2511 -0.3668
12011SOL    HW142891  12.589   0.576   4.146 -0.1032 -1.4028 -1.5449
12011SOL    HW242892  12.593   0.707   4.070 -1.5664  0.5893  1.6131
12012SOL     OW42893   8.066   5.943   2.496 -0.9077 -0.2148 -0.2421
12012SOL    HW142894   8.142   5.963   2.441 -0.6489 -0.4863  0.0097
12012SOL    HW242895   8.089   5.979   2.582 -1.0879 -0.2433 -0.1819
12013SOL     OW42896   6.425  12.484   4.542 -0.0887  0.1340  0.0016
12013SOL    HW142897   6.334  12.488   4.513 -0.5236  0.3895  1.3023
12013SOL    HW242898   6.424  12.425   4.618  0.8881 -0.1185 -0.1617
12014SOL     OW42899  11.883   3.249  11.916 -0.8439 -0.2882  0.2499
12014SOL    HW142900  11.805   3.242  11.860 -0.9878 -1.9106  0.5981
12014SOL    HW242901  11.952   3.206  11.865  0.2489  2.3586 -0.6744
12015SOL     OW42902  11.756   6.124   5.750 -0.1067  0.0126 -0.2210
12015SOL    HW142903  11.844   6.156   5.772  0.1000 -0.0887 -0.8557
12015SOL    HW242904  11.773   6.048   5.694 -0.6007 -0.2738  0.0229
12016SOL     OW42905   0.206   9.126  11.262 -0.1570  0.3154  0.2252
12016SOL    HW142906   0.261   9.140  11.185 -0.9432 -0.3783 -0.4877
12016SOL    HW242907   0.120   9.105  11.226 -0.5493  0.0309  1.2963
12017SOL     OW42908   0.206   4.548   7.939  0.6778  0.1231  0.4858
12017SOL    HW142909   0.162   4.605   7.876  1.4718  1.2463  0.8994
12017SOL    HW242910   0.298   4.552   7.914  0.5710 -2.3833 -0.5166
12018SOL     OW42911   7.607   5.621  12.209  0.4160  0.1570  0.6885
12018SOL    HW142912   7.645   5.708  12.220  2.6209 -0.8182  1.4638
12018SOL    HW242913   7.624   5.599  12.117  0.2970  0.3670  0.6177
12019SOL     OW42914   5.847   3.172   4.074 -0.3277 -0.0753 -0.2350
12019SOL    HW142915   5.831   3.264   4.050 -0.1937 -0.6541 -2.8665
12019SOL    HW242916   5.764   3.128   4.054 -0.0251 -0.7038 -0.1107
12020SOL     OW42917   3.995  11.979  10.674  0.2058  0.3703  0.8639
12020SOL    HW142918   4.043  11.920  10.732 -2.1978 -0.1071  2.5595
12020SOL    HW242919   3.903  11.960  10.692 -0.6804  1.1810 -2.2091
12021SOL     OW42920   2.688   5.127   8.358  0.2079  0.4102 -0.1859
12021SOL    HW142921   2.697   5.189   8.430  1.6456  0.5846 -0.4808
12021SOL    HW242922   2.682   5.182   8.280 -2.5551  0.2803 -0.1901
12022SOL     OW42923   7.532  11.196  11.214  0.2350 -0.3269  0.5054
12022SOL    HW142924   7.497  11.268  11.162  2.3911  0.7374  0.4158
12022SOL    HW242925   7.487  11.203  11.299 -0.0414  0.7313  0.2812
12023SOL     OW42926   5.213   9.177   9.679 -0.0408 -0.1293  0.1976
12023SOL    HW142927   5.198   9.262   9.720 -0.7297  0.0498 -0.4119
12023SOL    HW242928   5.292   9.188   9.627 -0.3533  0.2551 -0.1984
12024SOL     OW42929   9.414   6.263   0.894 -0.2616  0.2487 -0.2383
12024SOL    HW142930   9.339   6.203   0.889 -0.9313  0.9398  1.0848
12024SOL    HW242931   9.387   6.340   0.845 -0.0049  0.1108 -0.6081
12025SOL     OW42932   2.819   3.944   3.370 -0.0605 -0.0990  0.3114
12025SOL    HW142933   2.816   3.866   3.425  1.0829 -0.2340  0.1922
12025SOL    HW242934   2.903   3.939   3.325 -0.3995  0.7003 -0.4414
12026SOL     OW42935   8.293   9.278   9.060 -0.0691 -0.6936 -0.7935
12026SOL    HW142936   8.282   9.195   9.105 -0.4555  0.0885  0.6397
12026SOL    HW242937   8.388   9.292   9.059 -0.0476 -0.7889 -0.3363
12027SOL     OW42938   8.470  11.289   8.039  0.1470  0.1371  0.0948
12027SOL    HW142939   8.489  11.198   8.013  0.6071  0.8263 -2.2515
12027SOL    HW242940   8.375  11.291   8.051  0.3570 -1.1534  2.5363
12028SOL     OW42941   1.295   4.131   7.104 -0.1988 -0.1432 -0.2160
12028SOL    HW142942   1.305   4.133   7.008  1.0207  1.9288 -0.1058
12028SOL    HW242943   1.212   4.175   7.120 -0.3089 -0.3172 -0.3012
12029SOL     OW42944  10.373   2.800   0.427  0.3314  0.1786 -0.3141
12029SOL    HW142945  10.422   2.747   0.364  0.2806  0.4856 -0.6092
12029SOL    HW242946  10.334   2.736   0.487 -0.3159 -0.1619 -1.0869
12030SOL     OW42947   2.271   3.288   0.375 -0.0827  0.1026  0.1494
12030SOL    HW142948   2.212   3.296   0.450 -0.0373  1.3019  0.0780
12030SOL    HW242949   2.343   3.235   0.407 -0.9138 -0.9130  0.4098
12031SOL     OW42950   5.119   8.880   0.085 -0.3217 -0.0826  0.2302
12031SOL    HW142951   5.094   8.796   0.123 -1.0347  1.0721  2.4811
12031SOL    HW242952   5.036   8.922   0.062 -0.0818  0.7365  0.8054
12032SOL     OW42953   1.900   2.904   2.263 -0.4925 -0.0456  0.2921
12032SOL    HW142954   1.872   2.887   2.172 -1.9441  0.9405  0.5266
12032SOL    HW242955   1.825   2.879   2.316 -0.3157  1.0967  1.0979
12033SOL     OW42956   9.515   2.256   0.532  0.2392  0.3404  0.2600
12033SOL    HW142957   9.432   2.270   0.487 -0.7314  1.1791  2.1887
12033SOL    HW242958   9.496   2.190   0.598  1.2735  0.1112  0.3518
12034SOL     OW42959   5.590   9.929   5.825  0.4855 -0.1066  0.4383
12034SOL    HW142960   5.593   9.911   5.919 -0.0934  0.6152  0.5998
12034SOL    HW242961   5.525   9.868   5.791  3.0222 -2.7495 -0.0772
12035SOL     OW42962   1.685   2.653   1.988  0.1201  0.0333  0.4329
12035SOL    HW142963   1.724   2.734   2.022  0.2593 -0.1700  0.7601
12035SOL    HW242964   1.758   2.607   1.947 -0.0011  0.1683  0.0593
12036SOL     OW42965   8.667   5.703   0.743  0.2868 -0.3740 -0.4977
12036SOL    HW142966   8.723   5.744   0.808  1.4218 -0.4686 -1.3787
12036SOL    HW242967   8.633   5.775   0.690 -1.0896 -0.2423  0.4910
12037SOL     OW42968   0.384  12.524   4.491  0.3646  0.0387 -0.1357
12037SOL    HW142969   0.437  12.582   4.546 -0.4796 -0.2557  1.0363
12037SOL    HW242970   0.302  12.571   4.479 -0.2086 -0.7418  0.5548
12038SOL     OW42971  11.491   4.935   8.814 -0.0430 -0.0337  0.0988
12038SOL    HW142972  11.481   5.014   8.866  0.8274  0.3631 -0.3267
12038SOL    HW242973  11.563   4.953   8.754 -0.0142 -1.0434 -0.2044
12039SOL     OW42974   8.388   1.240   7.551 -0.1948 -0.3468  0.1547
12039SOL    HW142975   8.463   1.285   7.512 -2.0615  2.4533 -0.5050
12039SOL    HW242976   8.417   1.217   7.639  2.0651 -1.2548 -0.7328
12040SOL     OW42977   3.134   8.657   6.349  0.9237 -0.1766  0.0885
12040SOL    HW142978   3.167   8.682   6.263  0.8699 -0.7023 -0.0873
12040SOL    HW242979   3.212   8.635   6.400  0.8975 -0.7842 -0.1240
12041SOL     OW42980   5.306   8.648  11.446  0.0155 -0.5281 -0.2072
12041SOL    HW142981   5.270   8.586  11.509  1.4642 -1.1648  0.0243
12041SOL    HW242982   5.361   8.706  11.497 -1.1053  0.8395 -0.4633
12042SOL     OW42983  12.024   2.466   1.646  0.8814  0.2927 -0.7809
12042SOL    HW142984  12.105   2.515   1.656  0.1258  1.9932 -2.2870
12042SOL    HW242985  11.968   2.498   1.717  1.3703 -0.6082  0.0320
12043SOL     OW42986   4.047   2.407  12.407  0.0484  0.0178 -0.0252
12043SOL    HW142987   4.024   2.431  12.497  2.1776  0.1620  0.5272
12043SOL    HW242988   4.061   2.312  12.411 -3.6153 -0.7501 -1.1466
12044SOL     OW42989  10.834   7.726   7.768  0.4691  0.2858 -0.3708
12044SOL    HW142990  10.923   7.691   7.771 -0.0944 -1.1910 -0.1529
12044SOL    HW242991  10.785   7.673   7.831 -0.8083  0.3648 -1.2611
12045SOL     OW42992   4.022  10.296   9.187  0.3404  0.0432 -0.3983
12045SOL    HW142993   3.954  10.338   9.240  0.4316 -1.7551  1.2414
12045SOL    HW242994   4.066  10.237   9.247  0.3428 -2.2549 -2.5011
12046SOL     OW42995  12.555   6.573   5.134 -0.1164 -1.0788  0.5602
12046SOL    HW142996  12.645   6.577   5.168 -0.5108 -0.5521  1.5669
12046SOL    HW242997  12.500   6.574   5.212 -1.0848  1.3946 -0.0819
12047SOL     OW42998   1.890   5.670   4.103 -0.1618  0.1805 -0.4679
12047SOL    HW142999   1.931   5.643   4.185 -1.4837 -3.0142 -0.7072
12047SOL    HW243000   1.817   5.726   4.130  1.4123  2.0434  0.2106
12048SOL     OW43001  11.439   1.092   2.925  0.3211  0.0112 -0.4037
12048SOL    HW143002  11.348   1.097   2.896 -0.1975  0.4840  1.1802
12048SOL    HW243003  11.434   1.056   3.013  1.7529 -0.7495 -0.6083
12049SOL     OW43004   9.787   1.824   4.730  0.2509 -0.0904 -0.5860
12049SOL    HW143005   9.811   1.915   4.746 -0.4606  0.0488 -0.2839
12049SOL    HW243006   9.867   1.774   4.751  0.3371  0.3734  0.2457
12050SOL     OW43007   7.077  10.384   6.929  0.0595 -0.1825  0.0050
12050SOL    HW143008   6.995  10.411   6.968  0.9515  0.6940  1.3690
12050SOL    HW243009   7.142  10.444   6.966  1.2472 -0.5601 -1.3762
12051SOL     OW43010   5.262   1.114   5.811  0.0283 -0.0856 -0.4424
12051SOL    HW143011   5.200   1.166   5.861 -0.3077  1.2866 -2.1928
12051SOL    HW243012   5.222   1.027   5.808 -2.0036  0.8057 -1.7111
12052SOL     OW43013  10.730   0.256   3.393  0.1804 -0.2445 -0.0411
12052SOL    HW143014  10.785   0.324   3.354  0.2069 -1.0911 -1.5230
12052SOL    HW243015  10.742   0.179   3.337  0.0190 -1.4456  1.4872
12053SOL     OW43016   1.931   2.195   3.896  0.0143 -0.2744 -0.3907
12053SOL    HW143017   1.905   2.111   3.935  0.4092 -0.3169 -0.2162
12053SOL    HW243018   1.935   2.255   3.970 -0.1634 -0.1266 -0.5010
12054SOL     OW43019   6.787  10.598  10.561 -0.2768 -0.3608 -0.1132
12054SOL    HW143020   6.771  10.513  10.601 -0.4476 -0.3285 -0.1129
12054SOL    HW243021   6.882  10.603  10.553 -0.1542  0.1096  1.3312
12055SOL     OW43022   9.238   8.248   5.367 -0.7636  0.4106  0.0930
12055SOL    HW143023   9.330   8.245   5.394 -0.7753  1.6600  0.3122
12055SOL    HW243024   9.224   8.166   5.320  0.6830  0.5656 -0.6459
12056SOL     OW43025   7.617   0.111   7.276  0.3905 -0.0672 -0.1434
12056SOL    HW143026   7.540   0.129   7.330  0.5133 -0.7715  0.2892
12056SOL    HW243027   7.676   0.185   7.291 -1.2136  1.8128 -2.4635
12057SOL     OW43028   2.369  11.684   4.074  0.4928 -0.0529 -0.0287
12057SOL    HW143029   2.327  11.660   3.992 -0.0589 -0.8919  0.4937
12057SOL    HW243030   2.426  11.757   4.051  0.7250 -0.6047 -1.2544
12058SOL     OW43031   8.447   7.864   4.110  0.2286 -0.4288  0.2016
12058SOL    HW143032   8.462   7.817   4.192  0.1049  0.6074  0.8344
12058SOL    HW243033   8.528   7.914   4.096 -0.2177  0.3540  0.3555
12059SOL     OW43034   1.423   6.002  12.045 -0.0285  0.9567 -0.2903
12059SOL    HW143035   1.470   5.933  11.999  0.4444  0.2271  1.2017
12059SOL    HW243036   1.358   5.956  12.097 -0.4741  1.7326 -0.1494
12060SOL     OW43037   4.401   1.836   4.811 -0.1256 -0.1661  0.0065
12060SOL    HW143038   4.324   1.890   4.828  1.4454  2.1596  0.0983
12060SOL    HW243039   4.437   1.871   4.729  0.9532 -1.0873  0.0635
12061SOL     OW43040   4.827   3.801  11.842  0.1324  0.1108  0.3686
12061SOL    HW143041   4.917   3.793  11.873 -0.4945  0.7783  2.5601
12061SOL    HW243042   4.825   3.883  11.793  0.7907 -0.0895  0.0053
12062SOL     OW43043   1.818   6.418   2.446  0.7305 -0.6960  0.2446
12062SOL    HW143044   1.782   6.480   2.510  0.0380 -0.4101 -0.4038
12062SOL    HW243045   1.913   6.424   2.457  0.7257  1.1250 -0.3799
12063SOL     OW43046   8.547   9.779   4.813 -0.3826  0.3344 -0.3618
12063SOL    HW143047   8.464   9.826   4.820 -1.1590 -1.1975  1.8025
12063SOL    HW243048   8.592   9.796   4.895 -0.0343 -1.4490 -0.1346
12064SOL     OW43049   2.115   8.641   2.751  0.1839 -0.6035  0.0451
12064SOL    HW143050   2.166   8.581   2.806 -0.3760 -2.2328 -1.1366
12064SOL    HW243051   2.180   8.696   2.708  0.7637 -0.8125  0.6495
12065SOL     OW43052   6.501  10.098   4.233  0.0811 -0.1994 -0.1936
12065SOL    HW143053   6.426  10.042   4.211  0.2665 -0.1715 -0.9254
12065SOL    HW243054   6.554  10.045   4.292 -1.8584  0.7411  2.6181
12066SOL     OW43055   5.623  11.591   5.225  0.1796 -0.0275  0.0191
12066SOL    HW143056   5.634  11.607   5.319 -1.4935  0.6031  0.1419
12066SOL    HW243057   5.674  11.660   5.183 -0.0592  0.4426  0.4850
12067SOL     OW43058  10.072   0.047   1.855 -0.3230 -0.4057  0.0482
12067SOL    HW143059  10.101   0.122   1.803 -2.1052  1.4640  1.6106
12067SOL    HW243060  10.144   0.032   1.917 -0.2860  0.5572  0.2540
12068SOL     OW43061   4.571   9.395   4.957 -0.4922 -0.2334 -0.0629
12068SOL    HW143062   4.545   9.363   5.044  0.2787 -0.0570  0.2375
12068SOL    HW243063   4.631   9.467   4.975 -0.6512  0.0757 -0.7463
12069SOL     OW43064   5.914   1.711   2.397  0.1581  0.1862 -0.1688
12069SOL    HW143065   5.845   1.682   2.338  0.5338  0.2695 -0.6621
12069SOL    HW243066   5.988   1.730   2.339  1.2023 -1.6135  0.4702
12070SOL     OW43067   4.160   8.721  11.748 -0.3986 -0.0956  0.2705
12070SOL    HW143068   4.246   8.685  11.727  0.4761  1.7788  0.4814
12070SOL    HW243069   4.138   8.681  11.832  0.7272  0.1412  0.7025
12071SOL     OW43070   7.167  10.206  11.104 -0.1401 -0.7247 -0.9593
12071SOL    HW143071   7.231  10.207  11.175 -1.0221 -0.5718 -0.1464
12071SOL    HW243072   7.139  10.115  11.097  0.7421 -0.9428 -1.8644
12072SOL     OW43073   7.608   1.678   4.402  0.1858 -0.1931 -0.1600
12072SOL    HW143074   7.541   1.745   4.410 -0.2838 -0.7394  0.4977
12072SOL    HW243075   7.684   1.724   4.365  0.1047  0.8540  0.9277
12073SOL     OW43076   3.389   0.691   6.167 -0.4064  0.6493 -0.4562
12073SOL    HW143077   3.358   0.755   6.231  0.9002  1.7906 -0.9162
12073SOL    HW243078   3.360   0.726   6.082 -0.0840  0.3967 -0.6727
12074SOL     OW43079   2.813   4.292  12.187 -0.3657  0.5452  0.1196
12074SOL    HW143080   2.889   4.336  12.148 -0.0198 -2.0049 -2.3892
12074SOL    HW243081   2.767   4.253  12.113 -2.2936 -0.8053  1.9013
12075SOL     OW43082   5.846   5.425  10.893 -0.6718 -0.3698 -0.3885
12075SOL    HW143083   5.881   5.419  10.982 -1.6294 -0.5282 -0.0056
12075SOL    HW243084   5.792   5.347  10.883 -2.7906  0.9910 -0.0945
12076SOL     OW43085   5.688  12.196  12.029 -0.5798  0.1765 -0.1447
12076SOL    HW143086   5.690  12.103  12.050 -1.4304  0.3904  0.9717
12076SOL    HW243087   5.601  12.225  12.055 -0.4583  1.2092 -0.8367
12077SOL     OW43088   0.560   9.016   7.641 -0.3088 -0.2279 -0.0873
12077SOL    HW143089   0.609   8.971   7.571  0.4462  0.0752  0.2287
12077SOL    HW243090   0.628   9.052   7.698 -0.8555  1.6907 -0.5545
12078SOL     OW43091   0.391  11.919   2.342  0.1452 -0.0466 -0.1340
12078SOL    HW143092   0.431  11.950   2.423 -1.8623  1.0613  0.4971
12078SOL    HW243093   0.441  11.961   2.273 -0.0662  1.5370  0.6336
12079SOL     OW43094   6.720   4.883  11.443  0.3042  0.3303  0.5972
12079SOL    HW143095   6.798   4.881  11.498  0.0026 -0.2790  1.0183
12079SOL    HW243096   6.670   4.958  11.474  1.1470  1.2823 -0.2910
12080SOL     OW43097   5.654   4.255   4.401  0.4832 -0.3130 -0.4360
12080SOL    HW143098   5.693   4.251   4.488 -1.3086  0.6762  0.4811
12080SOL    HW243099   5.672   4.345   4.371 -0.9619  0.1401 -0.0198
12081SOL     OW43100   8.763  10.438   1.250  0.5882  0.3219  0.4031
12081SOL    HW143101   8.730  10.362   1.202 -1.2009  0.5560  1.1868
12081SOL    HW243102   8.691  10.501   1.248  1.2515  1.1560  1.5902
12082SOL     OW43103   0.096   6.558   9.467 -0.0530  0.3847  0.1501
12082SOL    HW143104   0.106   6.593   9.556  1.9246 -0.0746  0.1505
12082SOL    HW243105   0.038   6.620   9.423 -3.2111 -0.7030  2.4500
12083SOL     OW43106   1.499   8.027  11.834 -0.4913 -0.3635  0.5783
12083SOL    HW143107   1.515   8.121  11.840 -1.4031 -0.0333 -1.1935
12083SOL    HW243108   1.412   8.015  11.873 -1.5925  0.0290 -1.5897
12084SOL     OW43109  11.443   9.835   0.147  0.1334  0.2019  0.2560
12084SOL    HW143110  11.508   9.788   0.198 -0.5472  0.0098  0.9681
12084SOL    HW243111  11.418   9.773   0.078  2.6298  1.2217 -1.7416
12085SOL     OW43112   5.791  11.592   4.904 -0.5620  0.3934 -0.2014
12085SOL    HW143113   5.819  11.581   4.813 -1.5148  0.6434 -0.5292
12085SOL    HW243114   5.737  11.515   4.922 -0.4701  0.4006  0.1274
12086SOL     OW43115   4.320  10.001  12.569  0.0760 -0.8211  0.1262
12086SOL    HW143116   4.242  10.039  12.529 -0.1781 -1.2791  0.1772
12086SOL    HW243117   4.383  10.073  12.571  0.8883 -1.2727 -3.0995
12087SOL     OW43118   9.087   9.517   1.551 -0.4568 -0.0633  0.4206
12087SOL    HW143119   9.175   9.555   1.543 -0.7270  0.7249  1.0512
12087SOL    HW243120   9.075   9.467   1.470  1.2397 -1.5938  1.0379
12088SOL     OW43121   1.727   0.948   4.229  0.2156 -0.1506 -0.8480
12088SOL    HW143122   1.789   1.016   4.255 -1.2789  0.7122  0.6694
12088SOL    HW243123   1.702   0.906   4.312 -0.7858 -0.8474 -1.4872
12089SOL     OW43124   2.691  12.326  12.228 -0.3212  0.1043  0.9286
12089SOL    HW143125   2.689  12.385  12.304  1.7776  1.0759  0.2938
12089SOL    HW243126   2.773  12.277  12.238  0.3303  0.7105 -1.0055
12090SOL     OW43127   3.620   5.537  10.974 -0.2916 -0.4710 -0.4345
12090SOL    HW143128   3.703   5.498  11.000 -0.6608 -2.0706 -1.5110
12090SOL    HW243129   3.645   5.619  10.931  0.8336 -1.3926 -1.6210
12091SOL     OW43130  12.190  11.961   9.743  0.5213  0.1319  0.3241
12091SOL    HW143131  12.109  11.960   9.691  0.4607 -0.8395  0.4175
12091SOL    HW243132  12.200  12.052   9.770 -1.5272 -0.0308  1.8452
12092SOL     OW43133   5.896  10.871   5.914  0.0087 -0.0519  0.6227
12092SOL    HW143134   5.806  10.903   5.904 -1.1424 -2.2476  2.7442
12092SOL    HW243135   5.931  10.924   5.986  1.1903  2.0912 -1.4005
12093SOL     OW43136   2.344   1.646   4.944  0.1646  0.1644 -0.2481
12093SOL    HW143137   2.375   1.643   5.034  0.4105 -2.8472 -0.3472
12093SOL    HW243138   2.250   1.631   4.951 -0.0943  1.5371 -0.4451
12094SOL     OW43139   0.104   9.688   1.734  0.7559 -0.5523 -0.2193
12094SOL    HW143140   0.149   9.606   1.754  0.2800 -0.2290  2.6228
12094SOL    HW243141   0.064   9.674   1.648  2.4567 -2.4747 -0.7690
12095SOL     OW43142  11.909   1.229  10.921 -0.1701  0.2198  0.0114
12095SOL    HW143143  11.830   1.209  10.872  0.4861  0.3805 -1.1550
12095SOL    HW243144  11.898   1.183  11.005 -1.8672  0.9725  0.2301
12096SOL     OW43145   0.576   8.997   6.800 -0.2210  0.0904  0.1045
12096SOL    HW143146   0.559   8.954   6.884  0.4442  0.1152  0.2531
12096SOL    HW243147   0.490   9.028   6.772 -0.4008  0.3632  0.9286
12097SOL     OW43148   4.349  11.145   1.869  0.2413  0.3819  0.3532
12097SOL    HW143149   4.361  11.239   1.851  0.8822  0.2258 -0.0852
12097SOL    HW243150   4.409  11.127   1.941  0.0584  0.3258  0.4908
12098SOL     OW43151   1.413   2.779   1.834  0.4039  0.2900 -0.2038
12098SOL    HW143152   1.406   2.693   1.793  0.1157 -0.2525  0.9384
12098SOL    HW243153   1.370   2.769   1.919  0.6299  1.4826  0.0751
12099SOL     OW43154   0.653   6.690   9.847  0.2887  0.0519 -0.2648
12099SOL    HW143155   0.665   6.752   9.920 -0.0311 -1.0126  0.7287
12099SOL    HW243156   0.558   6.674   9.846  0.4279 -0.7975 -0.1830
12100SOL     OW43157  10.272   9.374   3.073  0.0098 -0.1677  0.0150
12100SOL    HW143158  10.278   9.420   2.990 -1.4327  0.2801  0.1187
12100SOL    HW243159  10.332   9.420   3.131  0.2556  0.1649 -0.4989
12101SOL     OW43160   9.173  12.209   8.807 -0.1497 -0.2163  0.3659
12101SOL    HW143161   9.152  12.267   8.733 -2.5871 -1.1774  0.1983
12101SOL    HW243162   9.245  12.155   8.776 -1.3718 -0.8564 -1.4945
12102SOL     OW43163   3.174   2.315   5.350 -0.0132 -0.0486  0.2864
12102SOL    HW143164   3.142   2.265   5.275  0.3503 -1.5323  1.0809
12102SOL    HW243165   3.209   2.248   5.410  2.3769  1.2993  0.5021
12103SOL     OW43166   8.347   3.647   6.056  0.3986  0.2163  0.2587
12103SOL    HW143167   8.370   3.695   5.976  0.3692  0.2955  0.2971
12103SOL    HW243168   8.431   3.620   6.092  0.3545 -1.0872 -0.5658
12104SOL     OW43169   8.714   1.516   3.291  0.1721  0.0550 -0.7371
12104SOL    HW143170   8.790   1.490   3.344  0.0677 -0.0018 -0.6169
12104SOL    HW243171   8.690   1.437   3.243 -0.1777 -0.0870 -0.3305
12105SOL     OW43172   4.280   2.331   4.517 -0.1182 -0.6380 -0.5164
12105SOL    HW143173   4.292   2.333   4.612 -0.8660 -1.4771 -0.3899
12105SOL    HW243174   4.337   2.400   4.484  0.3833 -0.5419  0.5187
12106SOL     OW43175  11.266   9.436   8.766 -0.0200 -0.3348  0.0134
12106SOL    HW143176  11.264   9.506   8.832 -1.6522 -0.6553  0.3560
12106SOL    HW243177  11.281   9.356   8.816  0.0107 -0.4344 -0.1556
12107SOL     OW43178   9.483  11.151   5.387  0.2096 -0.1052 -0.3412
12107SOL    HW143179   9.500  11.115   5.300  1.1193 -1.0048  0.1799
12107SOL    HW243180   9.519  11.240   5.384  0.4113 -0.2006 -0.8247
12108SOL     OW43181   0.593   0.109   3.096 -0.3364  0.0244 -0.1701
12108SOL    HW143182   0.538   0.042   3.136 -0.1318 -0.7491 -1.1564
12108SOL    HW243183   0.531   0.177   3.068 -0.5282  0.3370  0.9586
12109SOL     OW43184   3.834   4.965   0.034 -0.2106 -0.0740 -0.2320
12109SOL    HW143185   3.909   4.915   0.066 -0.0798  0.7161  0.7366
12109SOL    HW243186   3.795   5.003   0.112 -1.1698  0.1560 -0.8058
12110SOL     OW43187   9.736   8.950   6.253  0.0544  0.2123 -0.4027
12110SOL    HW143188   9.742   9.033   6.301  2.7453  1.3454 -2.4336
12110SOL    HW243189   9.664   8.964   6.191 -0.2004  0.6412 -0.0180
12111SOL     OW43190   8.337   9.586   3.475 -0.1693 -0.9126  0.3228
12111SOL    HW143191   8.264   9.540   3.433 -0.9518 -1.4370  2.1325
12111SOL    HW243192   8.406   9.519   3.483 -0.6288 -1.2838  1.3099
12112SOL     OW43193  11.599   4.436   2.676 -0.1144  0.1207  0.2103
12112SOL    HW143194  11.560   4.370   2.618 -1.9265  0.6287  0.8021
12112SOL    HW243195  11.587   4.400   2.764 -0.2750  0.8110  0.4730
12113SOL     OW43196   1.158   5.218   1.777 -0.1838  0.0506  0.3952
12113SOL    HW143197   1.221   5.164   1.730  0.8703  1.8406 -0.3730
12113SOL    HW243198   1.077   5.167   1.777  0.3763 -0.9214 -1.5155
12114SOL     OW43199   2.214   4.046   7.359  0.6863 -0.2079  0.4196
12114SOL    HW143200   2.225   4.117   7.422  0.0358 -0.1957  0.5232
12114SOL    HW243201   2.235   4.085   7.274 -1.0412  0.5008  0.2872
12115SOL     OW43202   6.805   8.712   2.940 -0.3902  0.1196 -0.1286
12115SOL    HW143203   6.866   8.771   2.896 -1.3460  0.9292 -0.4206
12115SOL    HW243204   6.726   8.765   2.952 -1.5983 -1.3614 -1.1820
12116SOL     OW43205   6.019   8.209   9.475  0.2383  0.0642 -0.5000
12116SOL    HW143206   6.066   8.149   9.417 -0.4361 -0.5159 -0.4628
12116SOL    HW243207   6.009   8.290   9.424 -0.0796 -0.3377 -1.0906
12117SOL     OW43208  11.983   3.829   8.131 -0.0870  0.2606 -0.0386
12117SOL    HW143209  12.016   3.903   8.182 -1.3846  0.0697  1.1085
12117SOL    HW243210  12.037   3.755   8.158  1.1042  0.7126 -1.0667
12118SOL     OW43211   7.349   2.525   5.679 -0.2335 -0.0788 -0.8815
12118SOL    HW143212   7.294   2.586   5.729  1.3055  0.0731  0.6848
12118SOL    HW243213   7.357   2.567   5.593  0.0071  1.4774 -0.1426
12119SOL     OW43214   9.011  11.468   4.852  0.7466  0.4334 -0.1759
12119SOL    HW143215   9.048  11.392   4.897  0.7419 -0.2890 -1.3471
12119SOL    HW243216   8.919  11.469   4.878  1.0904  1.0258  1.1196
12120SOL     OW43217   2.654   5.297   4.025  0.0996  0.2078  0.1640
12120SOL    HW143218   2.698   5.255   3.951 -1.1792 -0.2241 -0.3731
12120SOL    HW243219   2.561   5.294   4.003 -0.1713  1.6643  0.9778
12121SOL     OW43220   2.476   2.005   2.042 -0.1941  0.2505  0.2558
12121SOL    HW143221   2.562   1.996   2.083  0.2067  2.6470  0.0902
12121SOL    HW243222   2.479   2.090   1.998 -1.3131 -1.2643 -3.0775
12122SOL     OW43223   9.486  12.182   5.570  0.0588 -0.0108 -0.0292
12122SOL    HW143224   9.445  12.133   5.499  0.1768 -0.2292  0.0527
12122SOL    HW243225   9.580  12.173   5.555  0.1397  2.8541 -1.8590
12123SOL     OW43226   6.750   6.384   5.149  0.0324 -0.7452 -0.5773
12123SOL    HW143227   6.770   6.446   5.079  0.4737 -1.1844 -0.8440
12123SOL    HW243228   6.734   6.301   5.103  0.8214 -1.1550 -0.1304
12124SOL     OW43229  10.348   2.968   9.872  0.4443  0.1516 -0.3280
12124SOL    HW143230  10.300   2.885   9.867  0.5202  0.1724 -1.9645
12124SOL    HW243231  10.301   3.018   9.939  1.1676 -1.6582  1.6712
12125SOL     OW43232   1.199   2.022   1.764 -0.3189 -0.0554  0.1114
12125SOL    HW143233   1.193   1.935   1.804 -2.7982 -0.3962 -0.8456
12125SOL    HW243234   1.158   2.080   1.828  0.9442  0.3674  0.5581
12126SOL     OW43235   5.422   5.622   0.651 -0.1425  0.4860  0.5588
12126SOL    HW143236   5.415   5.717   0.661  0.1102  0.7960 -1.7693
12126SOL    HW243237   5.459   5.593   0.735 -1.5974  2.2218  1.8934
12127SOL     OW43238  10.994   4.124   1.363 -0.1420 -0.5573  0.4736
12127SOL    HW143239  11.044   4.045   1.343 -0.2828 -0.5450  0.0491
12127SOL    HW243240  10.996   4.132   1.458  1.2802 -0.1665  0.4333
12128SOL     OW43241   9.505  11.349   9.911  0.0401  0.1809 -0.3641
12128SOL    HW143242   9.543  11.437   9.913 -0.1251  0.2671 -0.9211
12128SOL    HW243243   9.411  11.363   9.909 -0.0396 -0.0352  1.0770
12129SOL     OW43244   2.326   2.525   1.164 -0.0624  0.2435  0.5190
12129SOL    HW143245   2.255   2.488   1.217 -1.2190  0.5607 -0.7587
12129SOL    HW243246   2.371   2.586   1.222  0.1228 -1.0739  1.8085
12130SOL     OW43247  11.008  11.246  11.658  0.0014 -0.4465 -0.1974
12130SOL    HW143248  11.056  11.200  11.727  1.0167  1.4913  0.4304
12130SOL    HW243249  11.073  11.264  11.591  0.5381  3.0086  1.0551
12131SOL     OW43250   5.102   1.526   7.115 -0.9080 -0.1316  0.0192
12131SOL    HW143251   5.167   1.578   7.069 -0.5813 -1.0509 -0.5918
12131SOL    HW243252   5.039   1.589   7.148 -1.2319  0.5638 -1.8290
12132SOL     OW43253   0.159   4.108   7.285 -0.2582 -0.1539  0.0717
12132SOL    HW143254   0.103   4.115   7.362  1.2297 -1.2835  1.3077
12132SOL    HW243255   0.109   4.055   7.223 -0.8189 -0.6130  0.9034
12133SOL     OW43256   5.322   3.958   6.556  0.1527  0.6509  0.3157
12133SOL    HW143257   5.399   4.006   6.586  1.5389 -0.6056 -1.0489
12133SOL    HW243258   5.353   3.869   6.544 -1.0671  0.4623 -1.9017
12134SOL     OW43259   7.020   6.546   8.143  0.1577  0.0298 -0.5459
12134SOL    HW143260   7.042   6.456   8.168  0.5830  0.1409 -0.5060
12134SOL    HW243261   7.104   6.592   8.143 -0.2520  0.8900  1.2999
12135SOL     OW43262  10.934   8.832  10.710 -0.0866 -0.3489  0.3265
12135SOL    HW143263  11.004   8.841  10.774 -0.0556 -0.8216  0.3656
12135SOL    HW243264  10.941   8.741  10.681 -0.1314 -0.1541 -0.3075
12136SOL     OW43265   8.780   2.821   1.187 -0.0450  0.2716 -0.0268
12136SOL    HW143266   8.689   2.791   1.189 -0.1202  0.1351 -2.1901
12136SOL    HW243267   8.831   2.747   1.220 -0.6367 -0.1117  0.0346
12137SOL     OW43268   3.776   5.678   6.281  0.4978  0.0029  0.2982
12137SOL    HW143269   3.789   5.762   6.237  1.5074 -0.5412 -0.4913
12137SOL    HW243270   3.744   5.619   6.212  0.2002 -0.3748  0.7471
12138SOL     OW43271   2.347   8.726   0.248  0.1465 -0.2435  0.1449
12138SOL    HW143272   2.280   8.702   0.313  2.0917 -0.1134  2.3360
12138SOL    HW243273   2.348   8.653   0.186 -2.5172  0.1223 -0.4443
12139SOL     OW43274  10.479  12.020   0.791 -0.1266  0.5078  0.5596
12139SOL    HW143275  10.459  11.985   0.877  0.1313  0.4080  0.5786
12139SOL    HW243276  10.429  11.965   0.730  0.2824  0.1066  0.5878
12140SOL     OW43277   9.572   6.555   2.298  0.5650  0.0069 -0.3715
12140SOL    HW143278   9.552   6.581   2.388  2.3962  1.4054 -0.3095
12140SOL    HW243279   9.502   6.593   2.245 -0.9827 -1.5040  0.4861
12141SOL     OW43280  12.445   4.034   6.885  0.1361  0.4986 -0.2477
12141SOL    HW143281  12.408   3.973   6.822  1.2203  0.4813 -0.8967
12141SOL    HW243282  12.377   4.101   6.898 -0.1692  0.3980 -1.2877
12142SOL     OW43283   9.295   0.832  10.994  0.1833  0.2731 -0.9373
12142SOL    HW143284   9.324   0.756  11.045  0.5302  1.3499  0.5562
12142SOL    HW243285   9.374   0.865  10.952  0.2751  0.5466 -0.5528
12143SOL     OW43286   5.393  11.331   2.111  0.3967 -0.2296  0.1685
12143SOL    HW143287   5.307  11.326   2.154 -0.1668 -0.9977 -1.0230
12143SOL    HW243288   5.455  11.307   2.180 -0.4927 -1.5143  0.5483
12144SOL     OW43289   8.116   3.508   2.095  0.0841  0.6284 -0.6195
12144SOL    HW143290   8.023   3.497   2.075 -0.1808  0.9023  0.4238
12144SOL    HW243291   8.124   3.600   2.119  0.6271  0.5996 -0.6775
12145SOL     OW43292   7.534   8.715   4.011 -0.4052  0.2985  0.1354
12145SOL    HW143293   7.494   8.693   3.926 -0.1683  1.9493 -0.4271
12145SOL    HW243294   7.532   8.810   4.014 -0.7484  0.2609  2.1712
12146SOL     OW43295   2.959  12.528   6.760 -0.0035 -0.2157 -0.2788
12146SOL    HW143296   3.015  12.495   6.830 -0.4890 -0.4011  0.0361
12146SOL    HW243297   2.916  12.605   6.797 -1.4245 -1.1844  0.2049
12147SOL     OW43298   8.776   5.425   7.829 -0.1776 -0.3669 -0.5065
12147SOL    HW143299   8.730   5.371   7.765 -0.9656 -0.8774  0.4471
12147SOL    HW243300   8.752   5.515   7.806 -3.2666 -0.6635  1.0191
12148SOL     OW43301   5.479   6.690   8.226 -0.0517 -0.2258 -0.8580
12148SOL    HW143302   5.419   6.661   8.158 -0.6408  0.9015 -0.8361
12148SOL    HW243303   5.564   6.693   8.183 -0.1041 -1.2482 -1.0534
12149SOL     OW43304  12.536   0.496  11.566 -0.0965 -0.1845  0.0337
12149SOL    HW143305  12.622   0.497  11.608  0.2374  0.0163 -0.6421
12149SOL    HW243306  12.533   0.578  11.516 -1.6424  0.9974  1.9195
12150SOL     OW43307   7.105   3.094   6.686  0.6839 -0.4629 -0.4988
12150SOL    HW143308   7.037   3.042   6.730 -0.1872 -0.0884 -1.3614
12150SOL    HW243309   7.185   3.074   6.734 -0.1570 -0.3746  1.0090
12151SOL     OW43310   9.639   0.438  10.391  0.0520  0.0146  0.2645
12151SOL    HW143311   9.574   0.456  10.459 -1.3614 -1.6957 -0.5528
12151SOL    HW243312   9.625   0.506  10.326  0.2550  0.6535  0.8717
12152SOL     OW43313   0.710  11.621   4.780 -0.0876  0.0432  0.4246
12152SOL    HW143314   0.650  11.654   4.713 -0.6664 -1.6300  0.0757
12152SOL    HW243315   0.719  11.694   4.842 -2.0559  0.5230  0.2217
12153SOL     OW43316   4.260   8.748   7.389 -0.0187  0.0514  0.1632
12153SOL    HW143317   4.265   8.840   7.414  0.6019  0.1319 -0.2276
12153SOL    HW243318   4.232   8.702   7.468 -1.2555  0.6830  0.1193
12154SOL     OW43319  10.218  12.095   0.010  0.2627  0.1490  0.0495
12154SOL    HW143320  10.243  12.151  -0.063  0.5082  0.2705  0.2254
12154SOL    HW243321  10.294  12.037   0.023  1.1484  1.5766  1.6272
12155SOL     OW43322   4.709   3.368   1.306 -0.0154  0.9176  0.0204
12155SOL    HW143323   4.647   3.433   1.338 -1.1287 -0.2198  0.2358
12155SOL    HW243324   4.722   3.390   1.214 -0.9137  1.0375 -0.0811
12156SOL     OW43325   7.661   4.143   6.613 -0.5556  0.2662 -0.1087
12156SOL    HW143326   7.580   4.149   6.562 -0.7865 -1.3993  0.0316
12156SOL    HW243327   7.653   4.062   6.662 -0.2333  1.6887  2.4698
12157SOL     OW43328  11.344   2.400   3.414 -0.2513  0.1668 -0.2347
12157SOL    HW143329  11.438   2.382   3.421  0.0469  1.0437 -1.5928
12157SOL    HW243330  11.314   2.404   3.504  1.2691  1.1051  0.2767
12158SOL     OW43331   0.719   6.677   3.979 -0.0780  0.0016  0.3362
12158SOL    HW143332   0.667   6.611   4.024 -0.8068  0.7959  0.6861
12158SOL    HW243333   0.780   6.710   4.046  0.1765 -0.1935  0.2045
12159SOL     OW43334   5.866   9.775   0.095  0.2881 -0.1211 -0.0213
12159SOL    HW143335   5.951   9.743   0.064  0.7910  0.7168  0.4493
12159SOL    HW243336   5.852   9.855   0.045  0.7636  0.8529  1.3380
12160SOL     OW43337   6.619   2.826   5.353 -0.0276  0.3073 -0.8756
12160SOL    HW143338   6.557   2.759   5.326  0.6316 -0.0281 -1.5704
12160SOL    HW243339   6.705   2.793   5.325  0.3393  1.2868 -0.9474
12161SOL     OW43340   5.351   2.961   7.529  0.0455  0.0058  0.8357
12161SOL    HW143341   5.383   2.887   7.580  0.8262  0.8337  1.5892
12161SOL    HW243342   5.365   3.037   7.586 -2.2697  0.5525  0.7621
12162SOL     OW43343   3.512   4.188   6.519 -0.1039  0.3046  0.1594
12162SOL    HW143344   3.537   4.120   6.582 -0.4254  0.2072  0.1829
12162SOL    HW243345   3.434   4.153   6.477  0.1783  0.3121 -0.3827
12163SOL     OW43346  11.671   5.098   6.142  0.0014  0.0435  0.0051
12163SOL    HW143347  11.587   5.098   6.097 -0.9122 -0.9552  1.6243
12163SOL    HW243348  11.675   5.182   6.186 -0.0382  0.1692 -0.2272
12164SOL     OW43349  11.325   6.182   5.590 -0.6251  0.2133 -0.1028
12164SOL    HW143350  11.341   6.113   5.526 -0.9414 -0.8565  0.9339
12164SOL    HW243351  11.359   6.261   5.549  3.0683 -1.0769  0.0794
12165SOL     OW43352   5.800   8.785   9.832  0.8930  0.4840  0.1349
12165SOL    HW143353   5.729   8.835   9.872 -1.3594 -0.9180 -1.8351
12165SOL    HW243354   5.821   8.832   9.752  0.2948 -0.4990 -0.6216
12166SOL     OW43355   3.325   2.625  12.126  0.6615  0.1520  0.0329
12166SOL    HW143356   3.405   2.586  12.161 -0.4395 -1.2966  1.0973
12166SOL    HW243357   3.332   2.614  12.031  0.9191 -1.6916  0.2195
12167SOL     OW43358   1.255   4.536  10.418 -0.5698  0.0386 -0.4287
12167SOL    HW143359   1.320   4.595  10.457  2.1399 -1.6775 -2.0626
12167SOL    HW243360   1.214   4.589  10.349 -0.4740  0.9667  0.2040
12168SOL     OW43361   4.198  11.064   1.511  0.1341  0.0229 -0.3635
12168SOL    HW143362   4.157  10.993   1.560 -2.5142  1.4348 -0.3378
12168SOL    HW243363   4.273  11.024   1.469 -0.5522 -2.4852  0.6177
12169SOL     OW43364  11.428   6.471  12.578  0.1642 -0.1846 -0.0240
12169SOL    HW143365  11.355   6.532  12.570  0.8246  0.4875 -1.4478
12169SOL    HW243366  11.491   6.515  12.635 -0.0682 -0.2575  0.2852
12170SOL     OW43367   7.760   1.945   3.296  0.3880 -0.3657 -0.3416
12170SOL    HW143368   7.719   1.922   3.212 -1.1159  0.1129  0.2294
12170SOL    HW243369   7.711   1.895   3.361  1.0334 -0.1388  0.3328
12171SOL     OW43370  11.164  10.134   2.992 -0.2580  0.1876 -0.1471
12171SOL    HW143371  11.152  10.226   2.969  2.0949  0.2446 -1.3715
12171SOL    HW243372  11.244  10.133   3.045  0.5866 -1.2769 -1.3735
12172SOL     OW43373   6.163   7.896   5.461 -0.8309 -0.1636 -0.0349
12172SOL    HW143374   6.164   7.971   5.401 -0.6768 -0.9371 -1.0329
12172SOL    HW243375   6.191   7.822   5.407 -0.2901 -0.8149  1.1129
12173SOL     OW43376  10.725   7.694   3.841 -0.4034 -0.0097 -0.7390
12173SOL    HW143377  10.689   7.772   3.798 -0.5899  1.3025  1.6364
12173SOL    HW243378  10.787   7.729   3.905 -0.5306 -1.8237  0.4144
12174SOL     OW43379   1.197   4.663   9.593  0.3523 -0.3103 -0.5005
12174SOL    HW143380   1.217   4.734   9.655 -0.1239  0.4777 -1.2351
12174SOL    HW243381   1.221   4.583   9.640 -2.4668  0.0184  1.7744
12175SOL     OW43382   1.995   8.863   3.005  0.3163  0.2112 -0.4485
12175SOL    HW143383   1.980   8.866   3.099  1.3122 -0.4040 -0.2572
12175SOL    HW243384   1.995   8.770   2.983  0.1127  0.3481 -1.0543
12176SOL     OW43385  11.843   4.592   6.592 -0.0395  0.5917  0.1266
12176SOL    HW143386  11.900   4.551   6.527  0.9298  0.6538  0.9135
12176SOL    HW243387  11.888   4.673   6.615 -0.0127  0.2386  1.3760
12177SOL     OW43388   9.048   9.279  10.784 -0.2723 -0.0546 -0.2533
12177SOL    HW143389   9.039   9.229  10.866  4.2342 -1.1319 -0.1352
12177SOL    HW243390   9.079   9.365  10.812 -1.4787  0.5477 -0.7420
12178SOL     OW43391   4.716   1.030   3.738 -0.7756  0.1888  0.0413
12178SOL    HW143392   4.629   0.997   3.718 -1.5329  0.8095  2.0151
12178SOL    HW243393   4.703   1.086   3.815  1.4353 -0.0949  0.6916
12179SOL     OW43394   7.311   2.023   2.920  0.3147 -0.6918 -0.6559
12179SOL    HW143395   7.347   2.057   3.002  2.0572 -1.5640 -1.0161
12179SOL    HW243396   7.216   2.028   2.932  0.4650 -2.4104  2.0988
12180SOL     OW43397   5.696  10.644  11.016 -0.1617 -0.0907  0.1412
12180SOL    HW143398   5.650  10.565  10.987  0.1653 -0.0231 -0.5879
12180SOL    HW243399   5.627  10.700  11.052 -0.6303 -0.0741 -0.7572
12181SOL     OW43400   7.738  10.236   9.022 -0.1811  0.4929  0.3304
12181SOL    HW143401   7.772  10.151   9.051  0.0782 -0.3453 -2.1543
12181SOL    HW243402   7.767  10.297   9.090  2.6482 -0.8621  0.5232
12182SOL     OW43403   8.916   9.613   0.920  0.6139 -0.1127 -0.0200
12182SOL    HW143404   8.861   9.665   0.861 -0.3493  0.9344  1.7030
12182SOL    HW243405   8.892   9.644   1.007  3.0649 -0.5393  0.8650
12183SOL     OW43406   3.463   7.406   5.073 -0.5078  0.4316 -0.3840
12183SOL    HW143407   3.482   7.462   5.148 -1.4146  1.0905 -0.6416
12183SOL    HW243408   3.375   7.373   5.089 -0.7610  0.6862 -1.2297
12184SOL     OW43409  10.213   4.417  10.004 -0.2042  0.0386 -0.4303
12184SOL    HW143410  10.157   4.488  10.036  0.1135  0.0883  0.0257
12184SOL    HW243411  10.160   4.373   9.938 -0.9338 -0.1541  0.2613
12185SOL     OW43412   2.453   2.031   3.216 -0.5188 -0.2846 -0.2387
12185SOL    HW143413   2.525   2.019   3.153  0.6431  0.4078  0.8959
12185SOL    HW243414   2.434   1.943   3.248 -1.8493 -0.7960 -2.2681
12186SOL     OW43415   2.283   7.232   1.283 -0.2731 -0.1772  0.3495
12186SOL    HW143416   2.207   7.223   1.226  0.7505 -0.0553 -1.0950
12186SOL    HW243417   2.358   7.229   1.223  0.8652 -0.4232  1.7395
12187SOL     OW43418   7.671   6.412  11.491 -0.1511  0.0391 -1.0006
12187SOL    HW143419   7.696   6.398  11.399  1.1179 -1.7103 -0.4608
12187SOL    HW243420   7.599   6.475  11.487 -0.1275  0.0259 -3.1895
12188SOL     OW43421   2.391   6.249   6.089 -0.0968 -0.0730  0.3881
12188SOL    HW143422   2.307   6.295   6.081 -0.5206 -0.8597  0.1961
12188SOL    HW243423   2.426   6.248   6.000 -1.7610 -3.1504 -0.4023
12189SOL     OW43424   7.150   3.130   2.411  0.1976  0.3985 -0.1475
12189SOL    HW143425   7.138   3.036   2.423 -1.7588  0.2357 -2.4795
12189SOL    HW243426   7.236   3.149   2.448 -1.4307 -1.2060  5.3468
12190SOL     OW43427   4.864   7.021   4.104  0.3746 -0.1204  0.1902
12190SOL    HW143428   4.846   7.097   4.049 -0.5231  1.3126  2.3197
12190SOL    HW243429   4.922   7.053   4.172  0.5482 -1.5310  0.7437
12191SOL     OW43430   3.555   5.880   3.412 -0.5988 -0.8178  0.3326
12191SOL    HW143431   3.525   5.855   3.324 -2.2729  1.1214  0.2875
12191SOL    HW243432   3.490   5.943   3.442  1.1050  0.1714  2.1283
12192SOL     OW43433   7.956   1.489  10.522 -0.4373 -1.0063 -0.2458
12192SOL    HW143434   7.963   1.401  10.559  0.3576 -1.2618 -0.9828
12192SOL    HW243435   8.044   1.526  10.532  0.0831 -1.4258 -2.6813
12193SOL     OW43436   2.450   5.804   0.770  0.5694 -0.2967  0.6061
12193SOL    HW143437   2.404   5.835   0.691  3.6197 -0.5732 -1.4728
12193SOL    HW243438   2.442   5.709   0.766 -0.1300 -0.2706  1.2347
12194SOL     OW43439   6.766   4.384   2.430  0.4368 -0.0156 -0.3812
12194SOL    HW143440   6.693   4.393   2.369  0.0316 -2.3166 -0.3257
12194SOL    HW243441   6.733   4.421   2.512  0.7895  2.5748 -1.3195
12195SOL     OW43442   5.238   7.461   0.615  0.1864 -0.0835  0.1160
12195SOL    HW143443   5.188   7.380   0.619  0.8632 -0.4647  1.5897
12195SOL    HW243444   5.270   7.466   0.525 -0.0720 -1.3190 -0.0575
12196SOL     OW43445   6.608   7.779   9.832 -0.2263 -0.6914 -0.0050
12196SOL    HW143446   6.608   7.874   9.820 -2.8407 -0.4119  1.3982
12196SOL    HW243447   6.519   7.753   9.810 -0.7153 -2.2246  3.2453
12197SOL     OW43448  12.523   8.809   1.745 -0.6596 -0.4450 -0.1142
12197SOL    HW143449  12.602   8.783   1.793 -1.9970 -0.4904  2.2225
12197SOL    HW243450  12.545   8.894   1.707  0.5489 -0.4845  0.4510
12198SOL     OW43451   2.898   8.690  11.020 -0.2007  0.1353 -0.1656
12198SOL    HW143452   2.941   8.725  10.941 -0.2080  1.6797  0.4769
12198SOL    HW243453   2.905   8.761  11.084 -1.5952 -0.4987  0.7237
12199SOL     OW43454   0.184   8.294  11.835 -0.8540  0.3969  0.0453
12199SOL    HW143455   0.221   8.367  11.884  2.1878 -0.9399  0.0225
12199SOL    HW243456   0.149   8.235  11.903  1.1809 -0.3290  0.5651
12200SOL     OW43457   6.102   0.013  12.567 -0.0813 -0.2212  0.5461
12200SOL    HW143458   6.007   0.002  12.556  0.0529 -0.4154 -0.5364
12200SOL    HW243459   6.140  -0.063  12.522  0.6215  0.6514 -0.3733
12201SOL     OW43460   4.825   4.358   2.281 -0.0844  0.1130  0.2503
12201SOL    HW143461   4.761   4.301   2.239 -0.1219  1.2638 -1.3622
12201SOL    HW243462   4.869   4.303   2.345  2.1411 -2.7107 -3.3637
12202SOL     OW43463   5.103   2.524   9.580  0.1548 -0.3520 -0.0337
12202SOL    HW143464   5.010   2.547   9.575 -0.1576 -0.6760  2.8035
12202SOL    HW243465   5.133   2.561   9.662  2.7772  0.3336 -1.1983
12203SOL     OW43466   1.048   2.895   1.949  0.4425 -0.6646  0.6151
12203SOL    HW143467   1.091   2.827   1.895  0.6122 -1.5077  1.7741
12203SOL    HW243468   1.036   2.969   1.889  1.1466 -1.3639 -0.4275
12204SOL     OW43469   8.519  12.539   7.955  0.2218 -0.2769 -0.4563
12204SOL    HW143470   8.533  12.468   7.893 -0.2548 -0.2690 -0.5775
12204SOL    HW243471   8.596  12.595   7.947  1.7882 -2.0211  1.3316
12205SOL     OW43472   9.903   3.911   6.064 -0.3109 -0.6873 -1.0502
12205SOL    HW143473   9.846   3.842   6.029  0.2055 -1.9943  0.5744
12205SOL    HW243474   9.843   3.974   6.104 -0.7078 -1.4968 -0.3289
12206SOL     OW43475   1.190   3.045   5.246  0.2206 -0.5235  0.2489
12206SOL    HW143476   1.274   3.089   5.264  0.8291 -1.6310  0.1777
12206SOL    HW243477   1.205   2.999   5.163  0.1369 -2.1821  1.1228
12207SOL     OW43478   3.380   6.292   4.968  0.0029  0.2342  0.1853
12207SOL    HW143479   3.420   6.380   4.964 -0.0623  0.2366 -2.5605
12207SOL    HW243480   3.293   6.304   4.931  0.3845 -1.1286 -1.2875
12208SOL     OW43481   3.592   4.514   5.486  0.1265 -0.1555 -0.3027
12208SOL    HW143482   3.615   4.604   5.464  1.5548 -0.3257  0.3831
12208SOL    HW243483   3.512   4.523   5.539 -1.1997  0.4898 -2.2756
12209SOL     OW43484   6.482   9.602  10.141 -0.4452  0.2932 -0.3743
12209SOL    HW143485   6.462   9.683  10.094  0.4387  2.9212  3.3019
12209SOL    HW243486   6.575   9.610  10.163 -0.1727 -2.0779 -0.3869
12210SOL     OW43487   1.125   7.409   4.881  0.3521 -0.2904 -0.0472
12210SOL    HW143488   1.043   7.457   4.890 -0.7029 -1.8750 -0.6895
12210SOL    HW243489   1.170   7.421   4.964 -0.0076  1.4845 -0.0661
12211SOL     OW43490  10.254   6.026  10.656 -0.3534  0.0363  0.1949
12211SOL    HW143491  10.201   6.105  10.643 -0.9269  0.3302  3.4641
12211SOL    HW243492  10.343   6.059  10.663  0.0369 -0.1673 -2.5234
12212SOL     OW43493  11.168   5.911   2.220  0.0348 -0.2677  0.3111
12212SOL    HW143494  11.262   5.894   2.219  0.1721  0.2965  1.6095
12212SOL    HW243495  11.146   5.930   2.129  1.1981 -0.2844  0.0147
12213SOL     OW43496  10.307   8.762   5.548  0.0271 -0.0834 -0.0897
12213SOL    HW143497  10.257   8.689   5.512 -0.5322 -1.5652  3.3052
12213SOL    HW243498  10.382   8.772   5.489  0.2627 -3.6077 -0.5718
12214SOL     OW43499   8.376   2.185   7.661  0.1260  0.2877 -0.1722
12214SOL    HW143500   8.386   2.156   7.751  0.0667  1.9729  0.4061
12214SOL    HW243501   8.430   2.125   7.610  1.0043 -0.0292  1.1022
12215SOL     OW43502   8.999   7.123   6.532  0.2698 -0.5055 -0.5643
12215SOL    HW143503   8.954   7.122   6.616  2.4103  0.3551  0.6925
12215SOL    HW243504   8.948   7.183   6.478  0.7613  1.7860  1.3645
12216SOL     OW43505   5.933   2.993   4.434  0.2634  0.3407  0.1421
12216SOL    HW143506   5.862   2.965   4.376  0.2648  0.4075  0.1085
12216SOL    HW243507   5.970   3.070   4.391 -0.5498  1.1513  0.8590
12217SOL     OW43508   5.482   3.583  11.102 -0.9820 -0.1201  0.1194
12217SOL    HW143509   5.389   3.564  11.115 -0.7593 -1.1068  0.3089
12217SOL    HW243510   5.504   3.644  11.173 -1.1772 -0.9079  0.8725
12218SOL     OW43511   6.459   0.455   5.845 -0.5029 -0.2937 -0.7687
12218SOL    HW143512   6.479   0.366   5.876  1.6032 -0.0054 -1.1517
12218SOL    HW243513   6.480   0.511   5.919  0.9673  0.0882 -1.4411
12219SOL     OW43514   9.599  10.752   2.393 -0.2366  0.9749  0.4431
12219SOL    HW143515   9.684  10.742   2.349 -0.4928  1.9902 -0.3241
12219SOL    HW243516   9.558  10.826   2.349 -1.3212  0.8130  1.1443
12220SOL     OW43517   9.814   6.634   3.653 -0.3675  0.2707  0.3038
12220SOL    HW143518   9.869   6.701   3.612  0.7098 -0.3635  0.6930
12220SOL    HW243519   9.745   6.684   3.697 -0.3872  1.0519 -0.5930
12221SOL     OW43520   7.890   4.082   8.808 -0.4391 -0.6455  0.2637
12221SOL    HW143521   7.945   4.119   8.877 -0.2403  0.3355 -0.3925
12221SOL    HW243522   7.866   3.995   8.840 -0.2444 -0.2617  1.4965
12222SOL     OW43523   0.523  12.028   5.105 -0.0969  0.1531  1.0807
12222SOL    HW143524   0.473  11.950   5.130 -0.9174  0.4598  0.4368
12222SOL    HW243525   0.559  12.006   5.019 -0.5647  0.5860  0.7706
12223SOL     OW43526  11.882  12.548  10.992 -0.2023 -0.1569 -0.1460
12223SOL    HW143527  11.856  12.515  11.078 -1.1491  0.8936 -0.0089
12223SOL    HW243528  11.837  12.632  10.984 -1.6563 -1.0479 -2.4360
12224SOL     OW43529   0.538   0.575   0.511  0.5530 -0.3969 -0.5252
12224SOL    HW143530   0.605   0.548   0.448 -0.1021 -0.9949 -0.9913
12224SOL    HW243531   0.455   0.557   0.466  0.0533  1.6428 -0.5288
12225SOL     OW43532   2.038   5.590   0.920 -0.0462  0.4418 -0.0762
12225SOL    HW143533   2.051   5.679   0.886  0.2283  0.2108 -0.5853
12225SOL    HW243534   1.957   5.561   0.879 -0.5321  0.7251  0.6660
12226SOL     OW43535   0.047   9.710   3.213  0.0354  0.0804 -0.3049
12226SOL    HW143536  -0.038   9.696   3.255  0.1568  0.4589  0.0735
12226SOL    HW243537   0.075   9.623   3.184 -0.7477  0.0306 -0.9512
12227SOL     OW43538   0.441   1.127  11.954 -0.1058 -0.0961 -0.7937
12227SOL    HW143539   0.384   1.199  11.982  0.4402  0.1319 -0.2216
12227SOL    HW243540   0.456   1.077  12.034  0.5900 -0.0814 -0.9112
12228SOL     OW43541   7.506  11.933   7.320 -0.0275 -0.4296 -0.2537
12228SOL    HW143542   7.512  12.013   7.268 -0.8265  0.8504  1.4837
12228SOL    HW243543   7.569  11.947   7.391 -2.1825  0.0229  1.6780
12229SOL     OW43544  11.170   1.669   1.992 -0.2143  0.2287  0.3670
12229SOL    HW143545  11.120   1.590   2.014  0.4147 -0.2653  0.0409
12229SOL    HW243546  11.104   1.731   1.960 -0.8740  0.2506  1.7007
12230SOL     OW43547   5.098   3.546  10.387 -0.0540  0.1722 -0.6339
12230SOL    HW143548   5.028   3.508  10.440 -0.3177  0.2410 -0.9291
12230SOL    HW243549   5.078   3.639  10.385  0.3947  0.2832 -0.2045
12231SOL     OW43550   6.179   6.615  12.021  0.0391 -0.1124  0.3394
12231SOL    HW143551   6.133   6.546  11.975 -0.3691  0.1903  0.2852
12231SOL    HW243552   6.195   6.580  12.109 -0.5320 -0.1189  0.4422
12232SOL     OW43553   8.945   0.367   5.852  0.3197 -0.3210  0.2953
12232SOL    HW143554   8.884   0.338   5.785 -0.4352  1.3149  0.2326
12232SOL    HW243555   9.032   0.355   5.813 -0.0462 -0.6811 -0.4259
12233SOL     OW43556   9.817   8.051   2.691 -0.2946 -0.2341 -0.1544
12233SOL    HW143557   9.726   8.081   2.691 -0.4421 -0.6202 -1.4578
12233SOL    HW243558   9.851   8.078   2.606  1.0120  0.4471  0.5528
12234SOL     OW43559   0.836   6.319   3.040 -0.5945  0.3577  0.3584
12234SOL    HW143560   0.822   6.402   2.995  0.2238  1.6652  2.3697
12234SOL    HW243561   0.757   6.306   3.093 -0.0287  0.7651  1.3352
12235SOL     OW43562  11.999  11.015  10.869 -0.1356  0.0291  0.2595
12235SOL    HW143563  11.915  11.046  10.904  0.1950  0.3118  0.8199
12235SOL    HW243564  12.013  11.067  10.790 -0.7591 -0.4259 -0.1637
12236SOL     OW43565   2.714   7.576   9.229  0.0585  0.4478 -0.5577
12236SOL    HW143566   2.767   7.500   9.252 -0.0748  1.1542  2.4436
12236SOL    HW243567   2.766   7.623   9.164  2.4722  0.3087  1.1265
12237SOL     OW43568   5.848   6.179   5.071  0.2052  0.2049 -0.1496
12237SOL    HW143569   5.774   6.135   5.029  0.2347  0.1364 -0.1303
12237SOL    HW243570   5.880   6.117   5.136 -1.6259  1.3781  2.0354
12238SOL     OW43571   1.794   1.387   9.960  0.0036 -0.6678 -0.6125
12238SOL    HW143572   1.824   1.477   9.972  1.4650 -0.9792 -1.6883
12238SOL    HW243573   1.736   1.371  10.035  0.1985  0.9510 -0.0770
12239SOL     OW43574   3.965   6.167  11.193 -0.1242 -0.0454 -0.5078
12239SOL    HW143575   4.005   6.250  11.168  0.9370 -0.1935  0.6316
12239SOL    HW243576   3.872   6.186  11.199  0.0906  1.0196 -0.4050
12240SOL     OW43577   3.645   2.248  12.025 -0.4751 -0.1980 -0.0947
12240SOL    HW143578   3.695   2.222  11.947  1.3284  0.1549  0.8767
12240SOL    HW243579   3.711   2.255  12.094 -1.3495  3.3124  0.5815
12241SOL     OW43580   9.953  11.497  11.560  0.0744 -0.8698 -0.3126
12241SOL    HW143581   9.987  11.426  11.506  0.6113  0.5939 -2.0003
12241SOL    HW243582   9.996  11.575  11.527 -0.5788  0.2884  1.4179
12242SOL     OW43583   2.448   9.195   3.275  0.3886 -0.2754 -0.3552
12242SOL    HW143584   2.363   9.153   3.284 -0.0468  0.4069 -1.1390
12242SOL    HW243585   2.462   9.241   3.358 -1.1600  1.6382 -1.0685
12243SOL     OW43586   4.418   2.176   8.203  0.0613  0.0797  0.4031
12243SOL    HW143587   4.373   2.245   8.250  1.1970  1.5740 -0.6241
12243SOL    HW243588   4.348   2.115   8.177 -0.5710 -1.1632  4.3530
12244SOL     OW43589   8.047   4.619   5.494 -0.2286 -0.1192 -0.0209
12244SOL    HW143590   8.056   4.542   5.550  1.0548 -0.1896 -0.2879
12244SOL    HW243591   8.129   4.622   5.444  0.7999  2.6395  1.5828
12245SOL     OW43592   1.341   3.152   7.353  0.0618  0.5233  0.7104
12245SOL    HW143593   1.276   3.184   7.416  1.1041  1.6224  1.2609
12245SOL    HW243594   1.389   3.083   7.399 -0.2898  0.1413  0.5149
12246SOL     OW43595   3.418   5.579   7.498 -0.2727  0.4481 -0.2225
12246SOL    HW143596   3.330   5.614   7.482  0.0708  1.1501 -0.5623
12246SOL    HW243597   3.450   5.553   7.411 -0.4107 -0.4587 -0.0144
12247SOL     OW43598   3.194   4.228   2.508  0.6267  0.3461 -0.1199
12247SOL    HW143599   3.253   4.297   2.478  1.8980 -0.5880  0.1705
12247SOL    HW243600   3.108   4.270   2.509  1.1488  1.5344 -1.2474
12248SOL     OW43601   4.196   9.453   8.674 -0.6703 -0.0368  0.3785
12248SOL    HW143602   4.287   9.432   8.653 -1.5639 -1.4252 -2.5377
12248SOL    HW243603   4.193   9.549   8.670  0.3385 -0.0324 -1.2304
12249SOL     OW43604   6.193   9.420   2.862  0.2346 -0.4472  0.0970
12249SOL    HW143605   6.201   9.367   2.942 -0.3945 -1.2194 -0.3300
12249SOL    HW243606   6.278   9.410   2.819  0.2430 -0.8480  0.1933
12250SOL     OW43607   8.841   0.991   7.888  0.4625 -0.1793 -0.0961
12250SOL    HW143608   8.787   1.015   7.964  0.3994 -0.3756 -0.0791
12250SOL    HW243609   8.928   0.975   7.925  0.3908 -0.4438 -0.0404
12251SOL     OW43610   6.109   8.799   1.546  0.2231 -0.2611 -0.1426
12251SOL    HW143611   6.190   8.769   1.504  0.1203 -1.9966  0.8039
12251SOL    HW243612   6.055   8.720   1.553 -1.7046  0.8973 -0.9969
12252SOL     OW43613   5.276   0.799  11.442  0.4772  0.0290  0.3742
12252SOL    HW143614   5.234   0.883  11.422  2.1304  1.0874  1.0881
12252SOL    HW243615   5.348   0.792  11.379  1.3118 -0.0706  1.2997
12253SOL     OW43616   9.133   7.525   2.214  0.2200  0.1036  0.3243
12253SOL    HW143617   9.143   7.482   2.129 -1.7201 -0.3396  0.2901
12253SOL    HW243618   9.177   7.609   2.204 -0.1356  0.1301 -1.1731
12254SOL     OW43619   2.034  10.823   7.500 -0.0950 -0.0445  0.3242
12254SOL    HW143620   1.959  10.882   7.507 -0.1872 -0.0426 -0.6314
12254SOL    HW243621   2.046  10.810   7.406  1.4480  0.3892  0.4437
12255SOL     OW43622   5.749   5.651  10.057 -0.1156 -0.6377 -0.7026
12255SOL    HW143623   5.763   5.726   9.999 -2.8446  1.6672  1.3094
12255SOL    HW243624   5.809   5.665  10.129 -1.0600  0.0644 -0.0186
12256SOL     OW43625  10.892   4.785   8.241 -0.3826  0.0759  0.0627
12256SOL    HW143626  10.914   4.877   8.254 -0.2903  0.0914 -0.1880
12256SOL    HW243627  10.796   4.784   8.235 -0.3163  0.4471 -1.9538
12257SOL     OW43628   5.105   2.259   8.480 -0.0567 -0.2301  0.6516
12257SOL    HW143629   5.186   2.209   8.466 -1.4827 -2.2683 -0.8835
12257SOL    HW243630   5.037   2.192   8.490 -2.0249  1.3640 -1.1566
12258SOL     OW43631   6.524   5.139  10.012 -0.7209 -0.0823  0.0280
12258SOL    HW143632   6.569   5.164  10.093 -2.3607  0.9957  0.6524
12258SOL    HW243633   6.524   5.219   9.959 -2.0479  0.0065  0.1332
12259SOL     OW43634   8.542   1.063  10.322  0.1852  0.3658  0.1884
12259SOL    HW143635   8.530   0.969  10.338  1.4305  0.0729 -0.4784
12259SOL    HW243636   8.637   1.075  10.320  0.0501  1.7513  0.8304
12260SOL     OW43637   6.709   5.241   8.146 -0.6711  0.1279  0.1199
12260SOL    HW143638   6.639   5.175   8.143  1.0389 -1.8402  1.0638
12260SOL    HW243639   6.679   5.304   8.211 -2.0263 -0.0701 -0.2644
12261SOL     OW43640   4.504   2.708   9.825 -0.3686  0.2780 -0.4869
12261SOL    HW143641   4.541   2.645   9.763 -4.0941 -2.8429  0.0769
12261SOL    HW243642   4.489   2.658   9.905 -1.8795  2.3765  0.6517
12262SOL     OW43643   6.545   2.889   4.531 -0.1900  0.1393  0.1120
12262SOL    HW143644   6.536   2.975   4.572  0.0849  0.1763  0.0932
12262SOL    HW243645   6.624   2.852   4.569 -0.6087 -0.3411  0.5403
12263SOL     OW43646   4.716   0.173  12.513  0.5866 -0.8254  0.3390
12263SOL    HW143647   4.649   0.154  12.446  2.4993 -0.2985 -1.8481
12263SOL    HW243648   4.780   0.103  12.504  1.2804 -0.3055  1.0677
12264SOL     OW43649   7.407   8.580   4.925  0.7903  0.2586 -1.0089
12264SOL    HW143650   7.452   8.646   4.872  0.7165  0.8054 -0.4103
12264SOL    HW243651   7.314   8.594   4.908  0.7362  0.8174 -0.3174
12265SOL     OW43652  10.485   4.042   6.580 -0.1682  0.7542  0.0405
12265SOL    HW143653  10.425   4.105   6.540  1.2242  1.5683 -0.8396
12265SOL    HW243654  10.564   4.093   6.597  0.5599 -0.4874  0.4330
12266SOL     OW43655   0.897   5.273   3.812  0.2316 -0.4509 -0.1354
12266SOL    HW143656   0.915   5.184   3.841  0.9073 -0.6906 -1.2429
12266SOL    HW243657   0.801   5.279   3.809  0.1836 -1.0135  0.2922
12267SOL     OW43658   2.594   2.917   8.639  0.3106 -0.2192  0.2870
12267SOL    HW143659   2.500   2.917   8.623  0.3189  0.9427  0.1368
12267SOL    HW243660   2.603   2.936   8.732  0.3947 -1.1436  0.4812
12268SOL     OW43661   7.367   1.139   5.942  0.0424  0.2146  0.5306
12268SOL    HW143662   7.406   1.223   5.919  0.6469 -0.5821 -1.6091
12268SOL    HW243663   7.300   1.124   5.876 -1.9331  0.1762  2.4254
12269SOL     OW43664   5.084   7.009   2.223  0.0633 -0.2217 -0.3337
12269SOL    HW143665   5.137   7.000   2.143  0.0530 -3.2910 -0.1208
12269SOL    HW243666   4.994   7.014   2.191  0.2066  1.6219 -0.5635
12270SOL     OW43667   9.606   3.667   1.042 -0.0613  0.6601  0.2769
12270SOL    HW143668   9.644   3.580   1.058 -1.8618 -0.5607 -1.5825
12270SOL    HW243669   9.558   3.657   0.960 -0.1639  3.5087 -0.0878
12271SOL     OW43670   9.767   3.707   8.909  0.1256  0.8591 -0.2092
12271SOL    HW143671   9.728   3.715   8.996  0.4868 -1.6820  0.2563
12271SOL    HW243672   9.706   3.752   8.851 -1.4163  0.4264  1.0232
12272SOL     OW43673   7.345  11.816  10.557  0.6609  0.3091  0.6012
12272SOL    HW143674   7.286  11.746  10.526  1.1388 -0.0355  0.4594
12272SOL    HW243675   7.345  11.806  10.652  1.9174 -0.8822  0.5085
12273SOL     OW43676   7.163   4.641   9.601 -0.4618 -0.0821 -0.1367
12273SOL    HW143677   7.152   4.729   9.564 -0.3009  0.2906  0.6967
12273SOL    HW243678   7.074   4.604   9.601 -0.6460  0.3508  0.1803
12274SOL     OW43679   0.056   4.354   9.162  0.2111 -0.1250  0.1002
12274SOL    HW143680   0.074   4.427   9.222  1.2852 -1.2728  1.2487
12274SOL    HW243681   0.016   4.287   9.217 -0.7599 -0.4149 -0.9325
12275SOL     OW43682   9.303   0.141   4.820 -0.3656 -0.3697  0.0700
12275SOL    HW143683   9.391   0.180   4.819 -0.6968  0.3975 -0.7148
12275SOL    HW243684   9.307   0.074   4.752 -0.1616 -0.8869  0.5812
12276SOL     OW43685   0.659   9.299  10.456 -0.0526 -0.3315  0.1088
12276SOL    HW143686   0.717   9.325  10.384  2.7072 -1.6137  1.7043
12276SOL    HW243687   0.675   9.364  10.524 -2.2996  0.6031 -0.1696
12277SOL     OW43688   2.838   3.811   2.010  0.0652 -0.5223  0.0512
12277SOL    HW143689   2.921   3.860   2.019 -0.2965  0.2865 -0.8724
12277SOL    HW243690   2.773   3.868   2.052 -0.3081 -0.3456 -0.7575
12278SOL     OW43691  11.075   5.135   5.798  0.1198  0.0606 -0.5551
12278SOL    HW143692  11.129   5.099   5.728 -1.2908 -0.5843 -1.3455
12278SOL    HW243693  11.024   5.060   5.830 -0.2717  0.6392  0.2099
12279SOL     OW43694   4.821   0.224   2.147  0.2928 -0.0253 -0.1560
12279SOL    HW143695   4.813   0.204   2.241 -2.1854 -1.4583 -0.5678
12279SOL    HW243696   4.777   0.308   2.136 -3.3789 -1.7548 -0.4695
12280SOL     OW43697   9.644   1.359   1.588  0.2031 -0.0424 -0.4315
12280SOL    HW143698   9.648   1.273   1.546 -0.7532 -0.0594 -0.5051
12280SOL    HW243699   9.573   1.350   1.653  0.6227  0.4531  0.1035
12281SOL     OW43700  11.656   1.685   9.782 -0.5817  0.2369  0.3949
12281SOL    HW143701  11.693   1.699   9.869 -0.6535 -0.6959  0.5783
12281SOL    HW243702  11.731   1.661   9.728 -0.8530 -1.3675  0.7013
12282SOL     OW43703   6.952  11.238   3.235  0.0620  0.2966 -0.0735
12282SOL    HW143704   6.922  11.328   3.226  0.5247  0.3306 -1.6929
12282SOL    HW243705   6.877  11.185   3.207 -0.1983  0.1699  0.8448
12283SOL     OW43706   9.340   0.471   7.734 -0.0240  0.1582 -0.0221
12283SOL    HW143707   9.415   0.523   7.705 -0.8636  0.4564 -1.8530
12283SOL    HW243708   9.283   0.532   7.780 -0.1237  0.4455 -0.5174
12284SOL     OW43709   9.234   1.346   2.943  0.2908  0.6062 -0.6317
12284SOL    HW143710   9.325   1.320   2.957  0.4234  1.1924 -0.3609
12284SOL    HW243711   9.239   1.438   2.915 -0.1383  0.2322 -2.0281
12285SOL     OW43712   4.221   9.741  12.248  0.1063 -0.6665  0.1962
12285SOL    HW143713   4.227   9.833  12.219 -1.4323 -0.4846  0.3763
12285SOL    HW243714   4.298   9.728  12.302  0.7857  0.2801 -0.5087
12286SOL     OW43715   6.193   0.101  12.068 -0.0518  0.7538  0.0732
12286SOL    HW143716   6.168   0.008  12.066  1.4792  0.3343 -0.9218
12286SOL    HW243717   6.180   0.127  12.159 -2.6535  0.2114 -0.0544
12287SOL     OW43718   1.411   4.536   6.993 -0.4691 -0.0582 -0.0755
12287SOL    HW143719   1.316   4.529   6.992 -0.4267 -3.3353  2.2337
12287SOL    HW243720   1.442   4.461   6.942  0.8087 -0.5337  1.3096
12288SOL     OW43721  12.083   3.365   7.324  0.7324 -0.4346  0.1097
12288SOL    HW143722  12.049   3.291   7.376  2.1973 -1.0217  0.2764
12288SOL    HW243723  12.174   3.375   7.353  0.3849  1.9234  0.6184
12289SOL     OW43724   0.039   4.530   3.429  0.1043 -0.2569  0.1002
12289SOL    HW143725   0.090   4.604   3.463  2.0552 -0.4315 -2.1917
12289SOL    HW243726  -0.052   4.557   3.439  0.7503  2.8029 -1.2123
12290SOL     OW43727  10.131   2.983   8.587  0.0815  0.4453  0.0385
12290SOL    HW143728  10.039   3.001   8.608  0.0309  0.6134 -0.3191
12290SOL    HW243729  10.177   2.989   8.671 -0.0478  1.5357  0.0415
12291SOL     OW43730   4.982   0.957   4.190 -0.1565  0.0019 -0.1361
12291SOL    HW143731   5.071   0.927   4.205 -0.4171 -0.9018 -0.2868
12291SOL    HW243732   4.951   0.903   4.116 -1.2132 -0.5384  0.6707
12292SOL     OW43733   1.002   5.698  12.197 -0.2749 -0.2039  0.0120
12292SOL    HW143734   0.910   5.670  12.195 -0.1694 -0.7757  1.5903
12292SOL    HW243735   1.050   5.617  12.215  0.2598  0.5364  2.1900
12293SOL     OW43736   3.221   9.868  11.661  0.2624  0.0893 -0.3331
12293SOL    HW143737   3.178   9.901  11.581 -0.3118  0.1676  0.0054
12293SOL    HW243738   3.314   9.888  11.648  0.0488  0.9794 -0.5599
12294SOL     OW43739   0.036   7.250   8.172 -0.4670  0.4223 -0.1654
12294SOL    HW143740   0.032   7.255   8.268 -0.7016 -0.2584 -0.1402
12294SOL    HW243741   0.049   7.341   8.145  0.2865  0.5456  0.5412
12295SOL     OW43742   9.563  11.324   1.145  0.2075  0.4027 -0.1103
12295SOL    HW143743   9.543  11.346   1.236  0.1901 -0.6006  0.1359
12295SOL    HW243744   9.595  11.234   1.148  0.3346  0.4037 -1.0825
12296SOL     OW43745   2.655   4.588   0.706  0.0929  0.4849 -0.2448
12296SOL    HW143746   2.594   4.547   0.767  0.7087 -3.3209 -1.9202
12296SOL    HW243747   2.602   4.612   0.630  0.0872  0.7058 -0.1715
12297SOL     OW43748   6.250   8.058   2.648  0.0823 -0.1996 -0.2462
12297SOL    HW143749   6.278   8.055   2.556  0.0368 -1.8625 -0.2455
12297SOL    HW243750   6.257   7.967   2.677 -0.4684  0.2148  1.2321
12298SOL     OW43751   2.549   5.340   6.536 -0.2295  0.0720 -0.2970
12298SOL    HW143752   2.586   5.381   6.614 -2.3775  1.2489  0.1898
12298SOL    HW243753   2.577   5.397   6.464  0.4018 -0.1030 -0.1998
12299SOL     OW43754   6.089   0.137   2.515 -0.5892  0.4416 -0.2158
12299SOL    HW143755   6.164   0.080   2.498 -0.8906  0.3813 -1.4605
12299SOL    HW243756   6.063   0.168   2.429 -3.3908 -1.3239 -0.1158
12300SOL     OW43757  12.459   3.796   1.718 -0.1091 -0.3234 -0.2274
12300SOL    HW143758  12.500   3.862   1.662 -1.8394 -0.2376 -1.4481
12300SOL    HW243759  12.434   3.726   1.658 -0.4029 -1.0332  0.7079
12301SOL     OW43760   4.286   3.185   5.072  0.0512 -0.0405 -0.0302
12301SOL    HW143761   4.318   3.161   5.159  0.1568 -0.2678 -0.1313
12301SOL    HW243762   4.365   3.191   5.018  0.3331  2.9438  0.5478
12302SOL     OW43763  11.144   6.858   0.945 -0.7217 -0.0926  0.0979
12302SOL    HW143764  11.107   6.823   0.864 -0.1701  2.8562 -1.5432
12302SOL    HW243765  11.083   6.829   1.013 -0.6088 -3.6164 -1.1015
12303SOL     OW43766   5.575   3.750   4.395  0.4769  0.5172 -0.6156
12303SOL    HW143767   5.650   3.708   4.354  0.8557  0.9161 -0.3359
12303SOL    HW243768   5.512   3.761   4.323  1.0610  1.0455 -1.0566
12304SOL     OW43769   5.303   3.216   8.991 -0.0735  0.2550  0.1182
12304SOL    HW143770   5.313   3.141   8.932 -0.8288  1.3250 -1.4570
12304SOL    HW243771   5.342   3.188   9.074 -1.7965 -2.4444  0.0945
12305SOL     OW43772   5.668  10.918   9.845 -0.2021  0.2436 -0.8064
12305SOL    HW143773   5.576  10.918   9.871 -0.2398  1.0439 -0.9047
12305SOL    HW243774   5.692  11.011   9.843  0.8279  0.0084 -0.0346
12306SOL     OW43775   9.660   4.434  12.066 -0.4283  0.4849 -0.1874
12306SOL    HW143776   9.588   4.443  12.129 -0.7215  2.5222 -0.7385
12306SOL    HW243777   9.737   4.415  12.120 -0.9881  0.4478  0.6129
12307SOL     OW43778   3.364   1.112   5.447 -0.7493 -0.5573 -0.6790
12307SOL    HW143779   3.308   1.104   5.370  0.4691  2.5415 -2.0779
12307SOL    HW243780   3.421   1.186   5.426  1.1155 -1.0083  2.3433
12308SOL     OW43781   1.793   8.549  12.296 -0.3546 -0.3774 -0.3164
12308SOL    HW143782   1.774   8.582  12.208 -2.2306  1.2404  0.6183
12308SOL    HW243783   1.812   8.628  12.347  1.5115 -1.3497  0.6000
12309SOL     OW43784  11.676  11.749   0.565 -0.4773  0.0523  0.2495
12309SOL    HW143785  11.745  11.747   0.631 -2.2569 -0.5890  2.2178
12309SOL    HW243786  11.708  11.692   0.495  1.3794  0.5871  0.6023
12310SOL     OW43787  10.698   0.988  10.827 -0.1583 -0.8944 -0.2839
12310SOL    HW143788  10.616   0.950  10.796 -0.8680  0.6548 -0.3943
12310SOL    HW243789  10.673   1.040  10.904  0.7605 -0.6366 -0.1479
12311SOL     OW43790   6.665   5.925   1.890 -0.4618 -0.2299 -0.1047
12311SOL    HW143791   6.632   5.956   1.805  1.9850  1.5609 -0.5168
12311SOL    HW243792   6.601   5.859   1.917 -1.1470 -1.2178 -3.5359
12312SOL     OW43793   7.253   4.105   0.392 -0.0764 -0.2466  0.1274
12312SOL    HW143794   7.254   4.029   0.450  1.4142 -0.3835 -0.0448
12312SOL    HW243795   7.166   4.105   0.354  0.1178 -2.2767 -0.4058
12313SOL     OW43796   9.846   4.404   1.092 -0.0734 -0.5247  0.0628
12313SOL    HW143797   9.901   4.331   1.064 -0.9140 -1.6638  1.2869
12313SOL    HW243798   9.791   4.423   1.017  1.2668 -0.0383 -0.8307
12314SOL     OW43799   9.392   6.465   2.775  0.3702 -0.0197 -0.6596
12314SOL    HW143800   9.368   6.558   2.776  2.3117  0.5257  0.7778
12314SOL    HW243801   9.420   6.449   2.685  2.0854  1.4191 -0.4433
12315SOL     OW43802   9.747   1.015   9.620 -0.5098 -0.1861  0.6043
12315SOL    HW143803   9.783   1.103   9.609  0.9450 -0.6784  1.1387
12315SOL    HW243804   9.692   1.001   9.543  1.3121  0.2154 -0.8381
12316SOL     OW43805   8.621   9.948   5.611 -0.0510 -1.0376  0.1570
12316SOL    HW143806   8.527   9.968   5.614  0.3923  1.1461  2.2139
12316SOL    HW243807   8.645   9.929   5.701  1.6360 -0.8200 -0.2135
12317SOL     OW43808   1.159   7.901   5.739 -0.3627 -0.0261 -0.0276
12317SOL    HW143809   1.239   7.926   5.693 -0.4423 -1.4274 -1.0025
12317SOL    HW243810   1.088   7.940   5.688 -0.3407  0.9255  0.6409
12318SOL     OW43811   4.901   3.831   3.953 -0.1986 -0.4081 -0.7918
12318SOL    HW143812   4.907   3.870   4.041 -0.3763 -0.1060 -0.9128
12318SOL    HW243813   4.842   3.756   3.964 -0.0563 -0.4935 -0.6098
12319SOL     OW43814  12.180   2.433   2.137 -0.3760  0.2843 -0.0586
12319SOL    HW143815  12.261   2.423   2.187  0.7415  2.2760 -1.3674
12319SOL    HW243816  12.124   2.487   2.193  0.2903  1.2325 -0.2824
12320SOL     OW43817   6.964   5.702   2.431  0.5330  0.6585  0.5644
12320SOL    HW143818   6.909   5.634   2.392  2.9907 -0.2696 -1.5382
12320SOL    HW243819   7.018   5.656   2.494  1.0890  0.9501  0.3058
12321SOL     OW43820   9.597   3.875   2.477  0.1108  1.1394 -0.0693
12321SOL    HW143821   9.633   3.789   2.502 -0.9304  0.6675 -0.1630
12321SOL    HW243822   9.568   3.864   2.387 -0.1955  1.5338 -0.0203
12322SOL     OW43823   7.564  10.168   2.845  0.0618  0.6728  0.0362
12322SOL    HW143824   7.543  10.162   2.938  1.2756  0.6791  0.3292
12322SOL    HW243825   7.656  10.142   2.840 -0.4225 -0.8787 -1.3886
12323SOL     OW43826   7.341   7.738   7.809  0.2682 -0.2885  0.2331
12323SOL    HW143827   7.324   7.825   7.775 -0.0896  0.0319  1.1934
12323SOL    HW243828   7.301   7.679   7.745  0.3064  0.2538 -0.2974
12324SOL     OW43829   4.899  11.835   7.897  0.2545  0.8149  0.0824
12324SOL    HW143830   4.814  11.793   7.881 -0.1687  1.5222  0.4073
12324SOL    HW243831   4.953  11.766   7.936  0.2379 -0.0012 -1.2752
12325SOL     OW43832  11.985  10.598   2.343  0.5513  0.4067 -0.2247
12325SOL    HW143833  11.953  10.669   2.398 -2.2940 -0.3696 -0.7149
12325SOL    HW243834  11.990  10.522   2.402  0.9062  0.3741 -0.2945
12326SOL     OW43835   7.495  10.828   7.244  0.0147 -0.5151 -0.0413
12326SOL    HW143836   7.461  10.745   7.211  0.9658 -0.9211 -0.0224
12326SOL    HW243837   7.506  10.814   7.338 -0.9333  0.0313  0.1645
12327SOL     OW43838   4.641  11.176  12.442 -0.0258  0.3662 -0.4605
12327SOL    HW143839   4.672  11.140  12.525 -0.2554  2.0497  0.3868
12327SOL    HW243840   4.547  11.162  12.443 -0.2694  1.9290  0.3752
12328SOL     OW43841   9.382   5.964   9.666 -0.0212 -0.8597  0.4737
12328SOL    HW143842   9.296   6.004   9.681 -0.2838 -0.9000 -0.7971
12328SOL    HW243843   9.373   5.875   9.699 -0.2920 -0.7024  0.8390
12329SOL     OW43844   6.940  11.708   5.429 -0.3533  0.2356  0.2142
12329SOL    HW143845   6.895  11.688   5.511 -0.2841 -1.1783 -0.0530
12329SOL    HW243846   6.891  11.780   5.391 -2.0154 -0.8112  0.2658
12330SOL     OW43847  10.538   1.548   3.633  0.3258  0.2276 -0.2658
12330SOL    HW143848  10.555   1.634   3.596  0.8325  0.3267  0.1827
12330SOL    HW243849  10.563   1.556   3.725  1.2389 -0.6371 -0.4147
12331SOL     OW43850   0.949   3.422  11.356  0.2827 -0.5110 -0.1782
12331SOL    HW143851   1.007   3.346  11.361 -0.6890 -1.4420 -2.0142
12331SOL    HW243852   0.992   3.482  11.296  1.0593  0.4545  1.2859
12332SOL     OW43853   7.915  12.359   9.488  0.0278  0.0863 -0.3375
12332SOL    HW143854   7.876  12.405   9.414  0.1058 -0.8801 -0.9992
12332SOL    HW243855   7.950  12.278   9.450  2.3076  0.7042  0.2768
12333SOL     OW43856  10.542   8.707   1.370  0.2731 -0.3139 -0.3972
12333SOL    HW143857  10.582   8.713   1.456  1.8004 -0.9961 -1.0055
12333SOL    HW243858  10.614   8.678   1.313 -1.7758 -5.7086 -0.8992
12334SOL     OW43859   2.527   7.822   2.020  0.0572 -0.3642 -0.2846
12334SOL    HW143860   2.472   7.745   2.001 -2.1344  0.9181  0.5652
12334SOL    HW243861   2.548   7.857   1.933  0.0723 -1.2220 -0.6453
12335SOL     OW43862  10.649   4.081   3.309 -0.6506 -0.7535  0.0279
12335SOL    HW143863  10.741   4.102   3.325 -0.9671  0.1062  0.7703
12335SOL    HW243864  10.626   4.132   3.231 -0.6975 -0.3790  0.2837
12336SOL     OW43865   9.827   7.596  10.909 -0.5938  0.0191  0.8724
12336SOL    HW143866   9.812   7.570  11.000  0.3704 -0.3870  0.9345
12336SOL    HW243867   9.744   7.581  10.866 -0.1174 -3.4360  0.8691
12337SOL     OW43868   6.076   8.660   6.534  0.0387 -0.3616 -0.2209
12337SOL    HW143869   6.085   8.667   6.629 -0.1670  0.3303 -0.2448
12337SOL    HW243870   6.157   8.617   6.505  1.2387  1.5829  0.0322
12338SOL     OW43871  10.018   4.216   0.744  0.7466  0.9784 -0.6252
12338SOL    HW143872  10.039   4.179   0.659  1.2756  1.3224 -0.6523
12338SOL    HW243873  10.077   4.291   0.753  1.1982  0.5271  0.3459
12339SOL     OW43874  10.919   7.301  11.017 -0.2455  0.4092 -0.3315
12339SOL    HW143875  10.863   7.356  11.072  1.4516  1.1590  0.7179
12339SOL    HW243876  10.969   7.363  10.964 -0.1679 -0.2371 -1.0268
12340SOL     OW43877   6.762   9.609   4.055  0.1366 -0.1074 -0.1400
12340SOL    HW143878   6.755   9.534   4.115  1.2256  0.6377  0.9519
12340SOL    HW243879   6.843   9.594   4.006  0.7152  0.6754  0.5568
12341SOL     OW43880   7.838   8.037   3.512  0.0430  0.6605  0.3168
12341SOL    HW143881   7.825   8.010   3.421 -2.3281 -1.3353  1.1357
12341SOL    HW243882   7.770   8.103   3.528  1.2219  1.9204  0.3663
12342SOL     OW43883   5.990   1.760   4.222 -0.1178 -0.1175 -0.2357
12342SOL    HW143884   6.079   1.753   4.187  0.2371 -2.0088  0.9021
12342SOL    HW243885   5.942   1.808   4.155  1.7385  0.9705 -0.8865
12343SOL     OW43886  10.611   0.831   2.644 -0.3316  0.4952  0.0203
12343SOL    HW143887  10.659   0.866   2.719  0.3504 -0.8188  0.2170
12343SOL    HW243888  10.546   0.772   2.682  0.8567 -1.1751 -0.4437
12344SOL     OW43889  11.900  12.169  12.327  0.0160 -0.1689  0.1859
12344SOL    HW143890  11.964  12.211  12.270 -0.9102  0.6488 -0.2899
12344SOL    HW243891  11.815  12.199  12.294 -0.6109 -1.1673  0.8422
12345SOL     OW43892   8.399  11.057   2.758  0.2815 -0.8347  0.2171
12345SOL    HW143893   8.331  11.051   2.691 -0.5262 -2.5944  1.1249
12345SOL    HW243894   8.351  11.054   2.841  1.3698 -0.4975  0.8850
12346SOL     OW43895   5.183  12.485   6.244 -0.3693 -0.4252 -0.2602
12346SOL    HW143896   5.257  12.442   6.202  1.1612  0.0655  1.7398
12346SOL    HW243897   5.220  12.566   6.280 -1.9434 -0.0326  0.5856
12347SOL     OW43898   4.970   0.049   3.714 -0.5233 -0.4148  0.0482
12347SOL    HW143899   4.913  -0.023   3.741  0.1406 -0.2726  1.9775
12347SOL    HW243900   5.058   0.021   3.739 -0.2800  1.1165  1.0404
12348SOL     OW43901  11.443   7.831   7.983  0.1342  0.5268 -0.5390
12348SOL    HW143902  11.448   7.809   7.890  2.5757 -2.1838  0.0799
12348SOL    HW243903  11.488   7.759   8.027  0.1213  2.2949  2.6813
12349SOL     OW43904   4.616   1.111   7.034 -0.3856  0.4035 -0.1751
12349SOL    HW143905   4.663   1.032   7.008  0.6488  1.3901 -1.4583
12349SOL    HW243906   4.584   1.147   6.951 -1.3940  1.0016  0.4557
12350SOL     OW43907   5.283   4.935   6.132 -0.0928  0.6063 -0.3522
12350SOL    HW143908   5.348   4.924   6.202  1.0103 -0.5608 -1.5016
12350SOL    HW243909   5.207   4.886   6.163  0.4130  0.0268  0.0069
12351SOL     OW43910  11.210   0.179   3.417 -1.2157 -0.1259  0.1319
12351SOL    HW143911  11.132   0.138   3.380 -0.6313  0.1619 -1.5125
12351SOL    HW243912  11.239   0.241   3.350  0.1559  0.1232  0.9125
12352SOL     OW43913   9.022  10.446   2.450 -0.2220 -0.1569  0.3302
12352SOL    HW143914   9.086  10.380   2.424 -0.0937  0.2035 -0.2792
12352SOL    HW243915   9.049  10.525   2.405 -1.9812 -0.3576 -1.2128
12353SOL     OW43916   4.658   3.506   4.566 -0.1965  0.0786  0.1154
12353SOL    HW143917   4.722   3.511   4.637  0.7371 -1.6247 -0.5596
12353SOL    HW243918   4.694   3.443   4.505 -2.0513 -0.1592 -0.8125
12354SOL     OW43919   5.562   3.989  11.811 -0.3554 -0.3119  0.2781
12354SOL    HW143920   5.652   4.006  11.840  0.1789  0.0428 -1.5026
12354SOL    HW243921   5.509   4.052  11.860  0.5094  0.3203  0.4165
12355SOL     OW43922   1.561   9.888   0.368 -0.4981  0.0288  0.2849
12355SOL    HW143923   1.634   9.851   0.319 -1.4273 -0.9007 -0.4218
12355SOL    HW243924   1.488   9.829   0.352 -1.2532  0.5757  1.5120
12356SOL     OW43925   8.014   8.766   9.742 -0.7502 -0.2503 -0.0022
12356SOL    HW143926   8.042   8.832   9.678 -1.0311 -0.3155 -0.1927
12356SOL    HW243927   8.072   8.691   9.726  0.4687  0.4143  1.0992
12357SOL     OW43928   5.737   5.848   4.061  0.7511  0.0839 -0.4153
12357SOL    HW143929   5.676   5.915   4.033  1.4912  0.5691 -0.9107
12357SOL    HW243930   5.806   5.849   3.994  1.0802 -0.7418 -0.1024
12358SOL     OW43931   0.274   3.792   3.234  0.6015  0.1665  0.3942
12358SOL    HW143932   0.292   3.797   3.140  0.0305  0.5346  0.2984
12358SOL    HW243933   0.358   3.811   3.276  0.6816  0.7713 -0.0370
12359SOL     OW43934   0.011   0.421  10.996 -0.0480  0.1097  0.2861
12359SOL    HW143935  -0.050   0.483  11.036 -1.7914 -0.2495 -1.6578
12359SOL    HW243936   0.050   0.374  11.070 -1.5940  0.8563  1.6246
12360SOL     OW43937   9.640   6.695  12.116  0.0366  0.6695 -0.0421
12360SOL    HW143938   9.721   6.745  12.117  0.7786 -0.5085  0.6338
12360SOL    HW243939   9.662   6.611  12.157 -1.6407  0.5252  0.6757
12361SOL     OW43940   5.210   0.900   9.356 -0.1576  0.0976  0.2171
12361SOL    HW143941   5.236   0.819   9.398 -1.6036 -1.6275 -1.9991
12361SOL    HW243942   5.279   0.917   9.291 -0.0294  0.4674  0.4472
12362SOL     OW43943   8.561   2.490   7.842 -0.7425  0.1415  0.0780
12362SOL    HW143944   8.624   2.427   7.808 -0.9648  0.6619 -1.3750
12362SOL    HW243945   8.494   2.496   7.774 -0.2875  2.5801 -0.2662
12363SOL     OW43946   9.853   1.276   9.669  0.2330 -0.2256 -0.0704
12363SOL    HW143947   9.778   1.330   9.643 -0.0083 -1.2443 -1.6147
12363SOL    HW243948   9.928   1.335   9.661 -0.1228  0.1293 -0.9798
12364SOL     OW43949   3.966   2.882   6.573 -0.1736 -0.0796 -0.2429
12364SOL    HW143950   4.060   2.868   6.577 -0.1572 -1.2286 -2.5118
12364SOL    HW243951   3.956   2.972   6.542  0.1610  0.1931  0.4426
12365SOL     OW43952   7.727   1.833   1.331 -0.6511 -0.5125 -0.0206
12365SOL    HW143953   7.752   1.756   1.383 -0.8062 -1.9875 -1.9975
12365SOL    HW243954   7.806   1.885   1.325 -0.0539 -1.4056 -0.0944
12366SOL     OW43955  10.552  10.226   7.641 -0.3261 -0.5040  0.1663
12366SOL    HW143956  10.615  10.228   7.568 -1.4515 -1.5630 -0.8944
12366SOL    HW243957  10.476  10.179   7.605 -1.9960  1.2670  1.2040
12367SOL     OW43958  12.114  11.966   4.303  0.1214 -0.0174  0.4131
12367SOL    HW143959  12.136  12.044   4.354  0.1743  0.6428 -0.5794
12367SOL    HW243960  12.186  11.957   4.241 -0.5545 -0.0550 -0.3819
12368SOL     OW43961   8.540  10.529  10.789 -0.1068 -0.2348 -0.1472
12368SOL    HW143962   8.483  10.590  10.837  0.0832  0.7020 -1.0793
12368SOL    HW243963   8.609  10.507  10.852  1.2424  2.4966 -0.5173
12369SOL     OW43964   6.335   5.263   8.047 -0.0893 -0.2519 -0.2672
12369SOL    HW143965   6.379   5.180   8.065  0.4473 -0.1068 -0.8795
12369SOL    HW243966   6.330   5.307   8.132 -0.6869 -1.0504  0.1241
12370SOL     OW43967   0.862   7.350   3.455  0.7110  0.5240  0.4798
12370SOL    HW143968   0.903   7.435   3.473  1.6373  0.5664 -1.5800
12370SOL    HW243969   0.845   7.351   3.361 -1.2230 -0.7577  0.7383
12371SOL     OW43970   1.828   3.586   7.025 -0.0216 -0.3888  1.0096
12371SOL    HW143971   1.838   3.675   7.056  0.5359  0.2388 -0.8567
12371SOL    HW243972   1.911   3.543   7.044  0.2010 -0.1100  0.6518
12372SOL     OW43973   2.720   0.768   5.483 -0.5720 -0.3135  0.4721
12372SOL    HW143974   2.788   0.823   5.522 -0.4478 -0.7119  0.8235
12372SOL    HW243975   2.750   0.678   5.499 -0.6550 -0.4843 -0.2963
12373SOL     OW43976   3.387   3.535   1.546  0.0765 -0.1264  0.4809
12373SOL    HW143977   3.340   3.470   1.597  0.4764  0.1818  1.2698
12373SOL    HW243978   3.372   3.617   1.593  0.9035  0.0700  0.4211
12374SOL     OW43979   0.559   5.558   3.827 -0.5075  0.4630  0.0374
12374SOL    HW143980   0.622   5.495   3.791 -1.4657 -0.0194 -0.8929
12374SOL    HW243981   0.599   5.590   3.907  0.4983 -0.5282 -0.0445
12375SOL     OW43982  10.152   4.211   4.255 -0.1992 -0.0144 -0.2233
12375SOL    HW143983  10.169   4.254   4.339 -0.1037 -2.6003  1.1662
12375SOL    HW243984  10.067   4.246   4.227 -0.5195  0.4626  1.2477
12376SOL     OW43985   6.461   5.527   4.082 -0.0140 -0.2328 -0.7551
12376SOL    HW143986   6.522   5.582   4.034  0.0898  0.5468  0.2419
12376SOL    HW243987   6.513   5.488   4.152 -0.7909  1.0990  0.6188
12377SOL     OW43988   6.273   4.115   8.279  0.1865 -0.0159 -0.0451
12377SOL    HW143989   6.356   4.104   8.325  1.1533 -1.6638 -2.0029
12377SOL    HW243990   6.287   4.188   8.219 -1.0650  2.1212  2.1091
12378SOL     OW43991  11.219   9.994   8.469 -0.9204 -0.2407 -0.9198
12378SOL    HW143992  11.176  10.044   8.400 -3.9791 -1.7487 -0.2957
12378SOL    HW243993  11.150   9.979   8.534  1.5372  0.1739  2.0030
12379SOL     OW43994   7.187   5.239   5.735  0.1897 -0.6416 -0.3095
12379SOL    HW143995   7.261   5.185   5.706  0.9751 -0.1232  0.6948
12379SOL    HW243996   7.110   5.193   5.701  0.8066 -2.5265  0.6757
12380SOL     OW43997  10.645   7.635   7.963 -0.3979 -0.4426 -0.0004
12380SOL    HW143998  10.624   7.727   7.976 -1.3741 -0.6698  0.0769
12380SOL    HW243999  10.560   7.592   7.955  0.0115 -1.5318  1.2401
12381SOL     OW44000   7.785   1.531  10.881 -0.1351  0.1991  0.1181
12381SOL    HW144001   7.840   1.513  10.957  1.3360  0.1351 -0.9237
12381SOL    HW244002   7.737   1.610  10.904 -0.6359 -0.4871  1.5685
12382SOL     OW44003   3.414   1.097   7.291  0.1563 -0.8860 -0.0193
12382SOL    HW144004   3.341   1.042   7.320  1.0328 -0.6653  2.9093
12382SOL    HW244005   3.391   1.185   7.321  1.5112 -0.7806  0.7713
12383SOL     OW44006  10.036   9.772  11.059  0.0343 -0.2358  0.3412
12383SOL    HW144007   9.949   9.812  11.052  0.0328  0.0303  1.6789
12383SOL    HW244008  10.096   9.844  11.039 -0.0325 -0.2060  0.2423
12384SOL     OW44009   5.587   5.774  11.727  0.5946  0.0940  0.4411
12384SOL    HW144010   5.601   5.681  11.707 -1.5056 -0.5743  1.7705
12384SOL    HW244011   5.493   5.787  11.718  0.3173  1.1968  3.5720
12385SOL     OW44012   8.258   9.963   6.139 -0.3405 -0.2677 -0.1119
12385SOL    HW144013   8.207   9.967   6.220  0.1167 -0.1074  0.1721
12385SOL    HW244014   8.308   9.882   6.146  0.2709  0.1186  0.1209
12386SOL     OW44015   6.480   3.421  12.379  0.1480 -0.3777 -0.4361
12386SOL    HW144016   6.543   3.492  12.365  0.8118 -0.9904 -0.5637
12386SOL    HW244017   6.532   3.341  12.380 -0.8526 -1.1666 -2.9417
12387SOL     OW44018   8.847  10.093   2.659 -0.2201 -0.3547  0.0277
12387SOL    HW144019   8.889  10.175   2.686 -0.9057 -0.4557  1.4589
12387SOL    HW244020   8.875  10.081   2.568  1.0788  0.7035  0.2564
12388SOL     OW44021   8.193   9.995  12.264  0.1468  0.3419 -0.5527
12388SOL    HW144022   8.136   9.918  12.273  0.5785 -0.0276 -0.8947
12388SOL    HW244023   8.133  10.065  12.238 -0.1608 -0.0300 -0.8728
12389SOL     OW44024   6.230   7.990   8.395 -0.3132 -0.3052  0.4792
12389SOL    HW144025   6.248   7.947   8.479 -2.0725  0.3941  1.2723
12389SOL    HW244026   6.185   8.071   8.419  1.0423  0.9876 -1.0683
12390SOL     OW44027   0.547   0.156   2.020 -0.3299 -0.2410 -0.2258
12390SOL    HW144028   0.528   0.100   1.945 -2.3261  0.5986 -0.4162
12390SOL    HW244029   0.493   0.122   2.091  1.0275 -0.6103  0.6747
12391SOL     OW44030   3.470   7.396  12.518 -0.3503 -0.0495 -0.0359
12391SOL    HW144031   3.556   7.429  12.546 -0.1113 -1.2723  0.7440
12391SOL    HW244032   3.416   7.400  12.597 -1.0942  0.8727 -0.5611
12392SOL     OW44033   5.596   0.813   6.841 -1.0719  0.0395  0.5138
12392SOL    HW144034   5.592   0.760   6.762 -2.1707 -1.7615  1.7003
12392SOL    HW244035   5.680   0.858   6.836 -1.6567  1.0107 -2.2647
12393SOL     OW44036   0.128   6.880  10.954 -0.0928 -0.3031 -0.2930
12393SOL    HW144037   0.054   6.857  11.011  0.4294 -0.8247  0.1978
12393SOL    HW244038   0.140   6.974  10.966 -2.2071  0.3015 -2.2505
12394SOL     OW44039   1.842  10.141   8.460  0.1279  0.1195  0.0581
12394SOL    HW144040   1.887  10.086   8.523  1.8837  0.3296 -0.9614
12394SOL    HW244041   1.863  10.103   8.375  0.6926  1.8515 -0.6123
12395SOL     OW44042   7.541   6.987   4.496 -0.5081 -0.0461 -0.2283
12395SOL    HW144043   7.493   6.938   4.563 -1.2574  1.4129  0.3457
12395SOL    HW244044   7.539   7.078   4.527  2.6608  0.1085 -0.1493
12396SOL     OW44045   0.948   1.521   7.599  0.6749  0.4092 -0.0943
12396SOL    HW144046   1.022   1.574   7.628  1.3776 -0.0886 -0.9053
12396SOL    HW244047   0.929   1.553   7.511  0.0736  0.3705  0.0172
12397SOL     OW44048   3.914   3.612   8.862 -0.4749 -0.6019  0.1200
12397SOL    HW144049   3.904   3.584   8.953 -1.3745  1.4609  0.7296
12397SOL    HW244050   3.894   3.534   8.810 -0.8952 -1.5798  1.6834
12398SOL     OW44051   3.818   5.615   4.520  0.3151  0.5481 -0.2319
12398SOL    HW144052   3.762   5.673   4.469 -0.3437 -2.7418 -3.6721
12398SOL    HW244053   3.907   5.646   4.503 -0.0899  1.7941 -0.1812
12399SOL     OW44054   1.735   5.712   4.530  0.6626  0.7652  0.3272
12399SOL    HW144055   1.707   5.770   4.600 -0.9934 -0.6933  0.9356
12399SOL    HW244056   1.737   5.768   4.452 -1.8208  1.4560  0.6939
12400SOL     OW44057   6.983   8.975   3.481 -0.6560  0.0250 -0.0955
12400SOL    HW144058   6.942   8.955   3.565 -1.4516 -1.7091 -0.8395
12400SOL    HW244059   7.051   9.040   3.502 -0.9885 -0.1795  1.8236
12401SOL     OW44060   9.736   1.419  11.948  0.3649  0.6555 -0.0944
12401SOL    HW144061   9.817   1.469  11.951  0.3866  0.6257 -0.1806
12401SOL    HW244062   9.667   1.484  11.962  0.2920  0.9817 -1.7756
12402SOL     OW44063   7.520  11.110  10.730 -0.8019 -0.2701 -0.2891
12402SOL    HW144064   7.556  11.174  10.669  0.8743 -0.6516  0.2687
12402SOL    HW244065   7.440  11.152  10.763  0.5962  1.8524  0.5937
12403SOL     OW44066   9.357   1.999   7.443 -0.0948 -0.1423 -0.1571
12403SOL    HW144067   9.321   1.941   7.375 -2.2817  1.1043 -0.1588
12403SOL    HW244068   9.300   1.983   7.519  0.5922  0.4945  0.4982
12404SOL     OW44069   0.289  10.560   8.724  0.5885 -0.5685  0.0538
12404SOL    HW144070   0.368  10.517   8.692 -0.2078 -1.6935 -0.4493
12404SOL    HW244071   0.268  10.515   8.806  0.5279 -0.1913  0.2504
12405SOL     OW44072   5.582   6.701   4.896 -0.4003 -0.0526 -0.0153
12405SOL    HW144073   5.495   6.686   4.858  0.2560 -0.7751 -1.2560
12405SOL    HW244074   5.617   6.614   4.911  0.8356  0.2060 -1.2322
12406SOL     OW44075   5.386   0.681   2.654 -0.3942 -0.4151  0.1482
12406SOL    HW144076   5.455   0.742   2.628 -0.0565 -0.1476  1.6314
12406SOL    HW244077   5.399   0.605   2.597 -0.6662  0.7613 -1.5532
12407SOL     OW44078   1.751   6.797   1.376  0.1822  0.2332  0.3446
12407SOL    HW144079   1.704   6.868   1.331 -0.9463 -0.7535 -0.1038
12407SOL    HW244080   1.788   6.838   1.454  1.7925  1.9019 -1.2023
12408SOL     OW44081  10.009  10.470   1.683 -0.2684 -0.0584  0.7751
12408SOL    HW144082  10.044  10.456   1.596 -0.4192  1.1403  0.4977
12408SOL    HW244083   9.921  10.505   1.669  0.0887  1.1609  1.3529
12409SOL     OW44084  11.238   1.823   3.758  0.2971  0.2646 -0.4606
12409SOL    HW144085  11.226   1.844   3.850  1.3434  0.1841 -0.2893
12409SOL    HW244086  11.222   1.905   3.712  0.9728  0.6090 -0.0924
12410SOL     OW44087   6.538   6.012   1.610 -0.5276 -0.4253 -0.0406
12410SOL    HW144088   6.629   5.992   1.585  0.0825 -0.2903  1.8842
12410SOL    HW244089   6.516   6.091   1.561  1.6531  1.5759  1.9271
12411SOL     OW44090  10.501   7.371   7.100 -0.7201 -0.0809  0.0015
12411SOL    HW144091  10.416   7.332   7.082 -0.3857 -0.6099 -0.4579
12411SOL    HW244092  10.496   7.398   7.191 -1.0197 -1.0353  0.2760
12412SOL     OW44093   0.622   8.535   0.168 -0.3832  0.3195 -0.2207
12412SOL    HW144094   0.547   8.510   0.115 -1.7595 -0.1836  1.8580
12412SOL    HW244095   0.597   8.618   0.208  0.2058  0.2134  0.3905
12413SOL     OW44096  10.212   3.077  11.490 -0.5341  0.4850  0.4138
12413SOL    HW144097  10.169   3.140  11.431  0.4589  1.1553  0.3822
12413SOL    HW244098  10.195   3.111  11.578  0.8791  1.4162  0.3611
12414SOL     OW44099   2.950   5.028   1.835  0.4886  0.4619 -0.3960
12414SOL    HW144100   2.855   5.033   1.822  0.5727  1.8239 -0.6198
12414SOL    HW244101   2.987   5.053   1.751  1.0486  0.4977 -0.1417
12415SOL     OW44102   7.861   7.531   7.558  0.1022  0.3771 -0.0681
12415SOL    HW144103   7.848   7.571   7.472  1.3089  0.4517 -0.2315
12415SOL    HW244104   7.926   7.462   7.543  0.8919  0.8855  0.9131
12416SOL     OW44105   1.437   8.602   0.180 -0.5767 -0.1123  0.3248
12416SOL    HW144106   1.342   8.594   0.176 -0.6253 -0.0277  1.2366
12416SOL    HW244107   1.454   8.697   0.173 -0.4181 -0.2480 -2.1255
12417SOL     OW44108   4.413  10.684   7.020  0.2435  0.5612  0.1628
12417SOL    HW144109   4.419  10.612   7.083  0.1079  0.9684  0.6485
12417SOL    HW244110   4.440  10.762   7.070  1.3192  0.7136 -0.6106
12418SOL     OW44111   3.465   9.679   0.754  0.6587 -0.3245 -0.5524
12418SOL    HW144112   3.557   9.692   0.777  0.2811 -1.0832  1.5770
12418SOL    HW244113   3.446   9.588   0.778 -1.2826  0.5416  1.6613
12419SOL     OW44114   0.768   9.407   4.741  0.6519 -0.0395  0.0222
12419SOL    HW144115   0.737   9.340   4.802  1.0198  0.6704  0.9976
12419SOL    HW244116   0.863   9.396   4.740  0.7107  0.4612  0.1653
12420SOL     OW44117   8.107   3.028   3.197 -0.3070  0.3869  0.3072
12420SOL    HW144118   8.025   3.066   3.228 -0.3787  0.7861 -0.3506
12420SOL    HW244119   8.166   3.102   3.186 -0.1839  0.2240 -0.1827
12421SOL     OW44120   7.654   3.433   7.436 -0.2170 -0.2023 -0.1271
12421SOL    HW144121   7.710   3.362   7.467 -1.4620 -1.1065  0.1190
12421SOL    HW244122   7.678   3.508   7.491  0.2676 -0.7554  0.4347
12422SOL     OW44123   9.394   9.422   4.960  0.4198  0.2287  0.2573
12422SOL    HW144124   9.388   9.365   5.037 -1.4910  1.5122  1.1197
12422SOL    HW244125   9.310   9.466   4.956  0.8688  1.0059 -1.9805
12423SOL     OW44126   6.455   8.465  11.923 -0.2100 -0.0638 -0.0926
12423SOL    HW144127   6.423   8.375  11.920  0.7954 -0.5594  1.9143
12423SOL    HW244128   6.499   8.478  11.839  0.5184 -1.8136 -0.0151
12424SOL     OW44129   0.598  12.142   9.474 -0.2466 -0.0616 -0.2004
12424SOL    HW144130   0.616  12.129   9.381  1.4256  1.5797 -0.1565
12424SOL    HW244131   0.658  12.211   9.501 -1.2079  0.0182  1.9468
12425SOL     OW44132   6.991   3.018   9.667 -0.0466 -0.1179  0.0967
12425SOL    HW144133   6.919   3.075   9.640  0.3201  0.0181 -0.6138
12425SOL    HW244134   6.954   2.930   9.665 -0.2993 -0.0134  0.1167
12426SOL     OW44135   4.234   1.665   7.800  0.1306 -0.6439 -0.0667
12426SOL    HW144136   4.142   1.646   7.781 -0.1965  0.5473  0.2184
12426SOL    HW244137   4.242   1.651   7.894  0.3012 -0.9606 -0.1273
12427SOL     OW44138   8.622   7.303   6.366 -0.0815 -0.0265 -0.0791
12427SOL    HW144139   8.635   7.396   6.384 -0.5951  0.0068  0.1560
12427SOL    HW244140   8.630   7.260   6.451  0.1120 -0.1937 -0.1800
12428SOL     OW44141   8.366   8.247   6.484 -0.0728 -0.1888  0.5473
12428SOL    HW144142   8.329   8.194   6.414 -0.0739  0.2896  0.1857
12428SOL    HW244143   8.457   8.218   6.491  0.0177 -0.0042  0.1261
12429SOL     OW44144   2.042   4.786   4.422  0.4043  0.2713 -0.3660
12429SOL    HW144145   2.081   4.783   4.334  1.6418 -1.7233  0.2008
12429SOL    HW244146   1.977   4.716   4.423 -1.0731  1.5887 -0.2933
12430SOL     OW44147  10.484   6.816   4.705 -0.1355  0.4547 -0.4789
12430SOL    HW144148  10.492   6.807   4.610 -0.7834 -0.9329 -0.4221
12430SOL    HW244149  10.547   6.885   4.727 -0.4392  1.2616 -1.9775
12431SOL     OW44150   5.511   3.808   1.513 -0.3135  0.0707 -0.0720
12431SOL    HW144151   5.568   3.749   1.464  0.7479 -0.9978  2.3018
12431SOL    HW244152   5.512   3.889   1.463  1.0994 -0.7804 -1.5272
12432SOL     OW44153   3.912  11.651   2.387 -0.0615 -0.1253  0.0258
12432SOL    HW144154   3.912  11.557   2.371  0.9980 -0.8493  3.3913
12432SOL    HW244155   3.842  11.665   2.451  2.1970  0.5879  2.5483
12433SOL     OW44156   3.094   2.267  10.390 -0.0962  0.2791 -0.6521
12433SOL    HW144157   3.147   2.341  10.418  0.0105 -0.5368  1.5075
12433SOL    HW244158   3.099   2.205  10.463 -1.5724 -1.1178 -1.6656
12434SOL     OW44159   9.834  12.167   9.800 -0.0618 -0.4012  0.0283
12434SOL    HW144160   9.798  12.152   9.712  0.9549 -0.3050 -0.4222
12434SOL    HW244161   9.916  12.118   9.801  1.0534  1.3792  0.1242
12435SOL     OW44162   7.007  11.444   0.188 -0.0368 -0.2331  0.0930
12435SOL    HW144163   6.946  11.394   0.242 -0.3105 -0.1271 -0.1163
12435SOL    HW244164   7.023  11.524   0.238 -0.4402 -0.0500 -0.0714
12436SOL     OW44165  10.442   0.652   2.791  0.0756  0.0991 -0.3948
12436SOL    HW144166  10.475   0.644   2.880 -2.4655  1.0964  0.7232
12436SOL    HW244167  10.354   0.614   2.794 -0.0691  0.1242 -2.4950
12437SOL     OW44168   2.168   3.768   7.336  0.0765  0.1987 -0.4536
12437SOL    HW144169   2.195   3.859   7.346 -2.4599  1.0580 -0.5678
12437SOL    HW244170   2.083   3.773   7.293 -0.2592 -2.2369 -0.2469
12438SOL     OW44171  11.095  10.073   0.381 -0.3630 -0.0232  0.1491
12438SOL    HW144172  11.182  10.109   0.366 -0.5914  0.3248 -0.3738
12438SOL    HW244173  11.096   9.988   0.338 -1.5104  1.6000 -3.4806
12439SOL     OW44174  10.588   5.736   1.517  0.0674  0.2272 -0.1322
12439SOL    HW144175  10.599   5.724   1.611  1.1168 -0.1731 -0.2929
12439SOL    HW244176  10.664   5.786   1.489 -0.7135  1.1737 -0.6321
12440SOL     OW44177   3.705   7.121   9.551 -0.1172 -0.4553 -0.4441
12440SOL    HW144178   3.625   7.141   9.502  0.0420  0.1997 -0.4520
12440SOL    HW244179   3.756   7.202   9.547  1.4749 -1.4611 -2.1752
12441SOL     OW44180  10.080   2.325   0.300  0.3520 -0.3547 -0.1915
12441SOL    HW144181  10.141   2.251   0.306 -0.9793 -1.6079 -1.2141
12441SOL    HW244182  10.013   2.305   0.366  0.6402  0.6065  0.3978
12442SOL     OW44183   2.547   1.105   9.055  0.0890 -0.5359  0.4337
12442SOL    HW144184   2.561   1.146   8.970  0.1896 -0.5624  0.4365
12442SOL    HW244185   2.605   1.154   9.114  0.4119 -0.8538  0.3852
12443SOL     OW44186   7.881   8.845   4.990  0.2850 -0.1546  0.9864
12443SOL    HW144187   7.812   8.911   4.996  1.2523  0.8766  1.0399
12443SOL    HW244188   7.837   8.769   4.952 -0.2914  1.4047 -1.7815
12444SOL     OW44189   2.263   6.727   1.868  0.2464  0.1777  0.2742
12444SOL    HW144190   2.320   6.661   1.829  1.2123  0.5205  1.0773
12444SOL    HW244191   2.254   6.701   1.960 -0.8828  0.1392  0.1670
12445SOL     OW44192  10.659   1.850   1.218  0.0092  0.0642  0.0271
12445SOL    HW144193  10.738   1.816   1.261 -0.7389  0.6935  2.0036
12445SOL    HW244194  10.681   1.941   1.198  0.4204 -0.2787 -1.1303
12446SOL     OW44195   8.006   6.251  10.158  0.3610 -0.3417  0.7134
12446SOL    HW144196   8.003   6.174  10.101  0.0694  0.4356 -0.3587
12446SOL    HW244197   7.915   6.277  10.167  0.5451  0.5060  0.1820
12447SOL     OW44198   9.247   4.667  12.120  0.4585 -0.2355  0.2438
12447SOL    HW144199   9.259   4.752  12.078  2.7103 -0.6365 -0.0704
12447SOL    HW244200   9.269   4.682  12.212  1.3005 -0.5237  0.1052
12448SOL     OW44201   5.618   4.208   6.469  0.2121  0.1407 -0.7843
12448SOL    HW144202   5.602   4.293   6.510 -1.9003  0.2764 -1.7332
12448SOL    HW244203   5.610   4.145   6.541  0.4078  0.6379 -0.3211
12449SOL     OW44204   2.070  10.773   2.026  0.1681  0.3687  0.1812
12449SOL    HW144205   2.060  10.868   2.031  0.5165  0.6511 -2.7847
12449SOL    HW244206   2.010  10.739   2.092 -0.4975  2.6309  0.8099
12450SOL     OW44207   7.759  10.427   2.277  0.0441  0.4837 -0.5464
12450SOL    HW144208   7.757  10.344   2.324 -1.0839  0.9253  0.1960
12450SOL    HW244209   7.675  10.432   2.231  0.6839  0.5599 -1.7744
12451SOL     OW44210   9.234   2.111   4.990  0.0759  0.2435  0.3749
12451SOL    HW144211   9.327   2.094   5.003 -0.1634 -1.5333 -0.0166
12451SOL    HW244212   9.196   2.106   5.077  0.0528 -1.1844  0.3128
12452SOL     OW44213   9.892   7.965   8.230 -0.2561  0.4738 -0.5377
12452SOL    HW144214   9.955   8.031   8.259 -0.0130 -0.9969  2.6372
12452SOL    HW244215   9.816   8.017   8.201  0.5656  2.1794  0.1989
12453SOL     OW44216   0.001   4.940   8.041  0.1448 -1.0764 -0.6779
12453SOL    HW144217   0.034   5.003   7.976  1.7594  0.4506  1.4595
12453SOL    HW244218   0.079   4.916   8.092 -1.1092 -1.8445  0.9780
12454SOL     OW44219   4.636   0.359  10.070 -0.6495  0.3133 -0.2542
12454SOL    HW144220   4.656   0.322  10.156 -0.8710 -0.5725 -0.5719
12454SOL    HW244221   4.653   0.452  10.080 -2.8931  0.6522  1.4581
12455SOL     OW44222   7.071   8.937   7.957  0.2642 -0.4096  0.0321
12455SOL    HW144223   7.043   8.933   8.049 -0.3715 -0.5441 -0.1655
12455SOL    HW244224   7.119   9.019   7.950 -0.4926  0.0590  0.2644
12456SOL     OW44225   9.671   0.926   1.628  0.2931 -0.9816 -0.4339
12456SOL    HW144226   9.766   0.917   1.631  0.1995 -2.3213 -0.7645
12456SOL    HW244227   9.655   1.001   1.570  1.1657  0.4016  1.0389
12457SOL     OW44228   5.953   3.133   9.750  0.4419 -0.0398  0.2477
12457SOL    HW144229   5.993   3.205   9.702  0.4371  0.4402  0.9527
12457SOL    HW244230   5.943   3.166   9.839  2.6176 -1.6961  1.1932
12458SOL     OW44231   7.670  11.977   1.101 -0.0547  0.4508  0.3251
12458SOL    HW144232   7.643  12.057   1.146  0.9908  0.7654  0.4014
12458SOL    HW244233   7.636  11.907   1.156 -2.0801  0.7990 -0.3913
12459SOL     OW44234   1.840   7.783  11.628  0.6804  0.1011 -0.1665
12459SOL    HW144235   1.819   7.830  11.709  0.8814  0.2907 -0.2255
12459SOL    HW244236   1.755   7.768  11.586  0.4808 -0.7796  0.5095
12460SOL     OW44237   4.683   1.972   8.252 -0.0381 -0.3088 -0.2942
12460SOL    HW144238   4.588   1.984   8.251 -0.1299 -0.9885 -0.5519
12460SOL    HW244239   4.699   1.905   8.185  0.5284 -0.8659  0.3825
12461SOL     OW44240   8.471  10.312   3.527 -0.1247  0.0130  0.0657
12461SOL    HW144241   8.551  10.333   3.576 -0.9343  2.1810  0.5912
12461SOL    HW244242   8.431  10.397   3.511 -2.1093 -0.9968 -0.5822
12462SOL     OW44243   1.954   1.937   7.484  0.1795 -0.1339 -0.2458
12462SOL    HW144244   1.959   1.846   7.453 -0.2861 -0.5175  0.7577
12462SOL    HW244245   1.979   1.989   7.408  2.3174 -1.1666 -0.3430
12463SOL     OW44246   9.567  12.186  11.002  0.0980  0.3844 -0.0108
12463SOL    HW144247   9.473  12.183  10.982 -0.0652  1.0874  0.5993
12463SOL    HW244248   9.601  12.257  10.948  0.2112  0.3527  0.0179
12464SOL     OW44249   9.083   7.972   5.288  0.2154 -0.1630 -0.6019
12464SOL    HW144250   9.075   7.889   5.335  2.1006  0.7449  1.5206
12464SOL    HW244251   9.177   7.982   5.273  0.1750  2.1445  0.3301
12465SOL     OW44252   9.888  10.495   7.135  0.0649  0.2172  0.4632
12465SOL    HW144253   9.947  10.448   7.193 -0.7076 -1.3619  0.0304
12465SOL    HW244254   9.815  10.521   7.190  0.4859  0.9370  0.6995
12466SOL     OW44255   9.096  10.024  11.194  0.2963  0.6686  0.7563
12466SOL    HW144256   9.180   9.980  11.209  0.4450  0.4621 -0.5171
12466SOL    HW244257   9.119  10.117  11.189  0.6545  0.5313 -0.6789
12467SOL     OW44258   5.133   1.627   9.450 -0.3921  0.4575  0.4212
12467SOL    HW144259   5.054   1.579   9.428 -0.3685  0.9508 -0.8636
12467SOL    HW244260   5.203   1.563   9.443 -0.4641  0.4582 -0.4025
12468SOL     OW44261   9.812   8.162   7.816  0.2596  0.4089  0.1044
12468SOL    HW144262   9.848   8.220   7.883  1.7142 -0.4634  0.1338
12468SOL    HW244263   9.889   8.135   7.765 -0.5313 -0.6236 -0.5765
12469SOL     OW44264  11.784   0.561   0.383  0.2576 -0.2159  0.2681
12469SOL    HW144265  11.792   0.648   0.344 -1.5795 -0.0162  0.2454
12469SOL    HW244266  11.765   0.503   0.309  2.6361 -0.8937  0.1115
12470SOL     OW44267   6.038  12.559   7.825 -0.5859  0.2610  0.1931
12470SOL    HW144268   5.982  12.596   7.757  0.4931  0.1824 -0.7727
12470SOL    HW244269   6.044  12.466   7.802  1.1865  0.5447 -0.6717
12471SOL     OW44270   4.235  11.695   2.427  0.4875 -0.4197  0.3119
12471SOL    HW144271   4.242  11.640   2.349 -2.2221  0.3850 -0.6466
12471SOL    HW244272   4.193  11.775   2.395 -0.6196 -0.0322  2.5577
12472SOL     OW44273   9.885   1.016   1.868  0.3427 -0.2702 -0.1818
12472SOL    HW144274   9.911   0.968   1.790  0.1508  0.7710 -0.9186
12472SOL    HW244275   9.955   1.000   1.931  1.1430 -0.1213 -1.0033
12473SOL     OW44276   4.017   8.279   2.066  0.4492 -1.0019 -0.6096
12473SOL    HW144277   3.952   8.343   2.096  0.4746 -1.2786  0.0539
12473SOL    HW244278   4.095   8.331   2.047  1.1343 -1.0153  1.8356
12474SOL     OW44279   2.049   5.494   0.065  0.1246 -0.3401 -0.1897
12474SOL    HW144280   2.035   5.588   0.056  1.4636  0.4056  3.7453
12474SOL    HW244281   2.106   5.471  -0.008 -0.1230  1.9085 -1.1594
12475SOL     OW44282   2.992   0.731  11.560 -0.5706  0.3421  0.0271
12475SOL    HW144283   3.009   0.714  11.467 -1.1356  0.5212 -0.1149
12475SOL    HW244284   3.019   0.651  11.605  0.0944  0.4086 -0.2435
12476SOL     OW44285   2.851   6.291   3.720 -0.0793  0.4549  0.1267
12476SOL    HW144286   2.865   6.233   3.646 -0.2986  0.0606  0.3895
12476SOL    HW244287   2.926   6.351   3.718 -1.1146  1.7838 -1.6311
12477SOL     OW44288   6.131   7.157  10.068  0.6685 -0.2228  0.2923
12477SOL    HW144289   6.191   7.115  10.130  0.3026 -0.8770  0.2027
12477SOL    HW244290   6.092   7.085  10.019 -1.1246  0.0956  1.1778
12478SOL     OW44291   8.456  11.511   9.454  0.1988  0.3200 -0.7282
12478SOL    HW144292   8.493  11.432   9.494  0.7556  0.9367  0.0097
12478SOL    HW244293   8.457  11.494   9.360 -1.4674 -1.3301 -0.5139
12479SOL     OW44294   9.856   5.013   7.318 -0.3036 -0.1169  0.0007
12479SOL    HW144295   9.927   5.049   7.264  2.4930  0.0777  3.3933
12479SOL    HW244296   9.812   5.090   7.354  0.2746 -0.1541  0.8167
12480SOL     OW44297   2.332   4.092   2.037  0.1689 -0.5850  0.0779
12480SOL    HW144298   2.278   4.167   2.063 -0.5025 -1.0226 -0.0061
12480SOL    HW244299   2.269   4.020   2.027  1.0774 -1.9653  3.1183
12481SOL     OW44300  10.367   0.315   1.281 -0.1244 -0.2352  0.4746
12481SOL    HW144301  10.342   0.243   1.338 -0.2802 -0.5522  0.0150
12481SOL    HW244302  10.291   0.373   1.281  0.2219  0.2364  1.3097
12482SOL     OW44303   6.968   0.646   7.394  0.4748  0.2414  0.1325
12482SOL    HW144304   7.018   0.703   7.337  4.2761 -1.9931  0.8985
12482SOL    HW244305   6.919   0.706   7.451  0.1900  2.5440 -2.3541
12483SOL     OW44306   5.636   1.521   7.716  0.3000  0.1155  0.1228
12483SOL    HW144307   5.559   1.551   7.668 -1.0272 -0.1263  1.9968
12483SOL    HW244308   5.642   1.427   7.697  0.4780  0.2369 -0.4481
12484SOL     OW44309   7.099   7.634   5.409  0.2111 -0.9541 -0.3621
12484SOL    HW144310   7.170   7.570   5.410  0.4783 -0.8277  3.2250
12484SOL    HW244311   7.139   7.713   5.373  1.7298 -1.1284  0.8232
12485SOL     OW44312  10.697   8.387   7.479  0.8975 -0.0659 -0.1701
12485SOL    HW144313  10.717   8.472   7.519  0.1855 -0.4962  1.1808
12485SOL    HW244314  10.603   8.375   7.494  0.6870 -0.4243 -1.6893
12486SOL     OW44315   2.272   9.007   3.343  0.7853  0.2777  0.1524
12486SOL    HW144316   2.247   8.922   3.307  1.6813 -0.2723  0.7741
12486SOL    HW244317   2.329   8.985   3.417 -0.1800  1.3984  1.2600
12487SOL     OW44318   8.416   8.992   7.976  0.1937  0.6350 -0.2535
12487SOL    HW144319   8.346   8.930   7.996  0.3062  0.4994 -0.2803
12487SOL    HW244320   8.425   9.045   8.056  0.4535  0.2745 -0.0422
12488SOL     OW44321   6.786   6.627  11.543  0.0168  0.1886  0.0461
12488SOL    HW144322   6.739   6.679  11.478 -1.5059 -0.1659  0.8326
12488SOL    HW244323   6.744   6.648  11.626  0.1317 -1.4257  0.5465
12489SOL     OW44324   0.527   8.958  11.943  0.8399  0.6844 -0.0243
12489SOL    HW144325   0.573   8.956  12.027 -0.2499 -0.7258  0.5772
12489SOL    HW244326   0.435   8.949  11.966  0.5361  0.0152 -1.3994
12490SOL     OW44327   5.168   3.322   6.635  0.5275 -0.5542 -0.5708
12490SOL    HW144328   5.183   3.406   6.592  1.2362  0.0946  0.8954
12490SOL    HW244329   5.230   3.320   6.707 -1.2418 -1.1889  1.0272
12491SOL     OW44330   5.357  10.553  10.337  0.4584  0.4263  0.1453
12491SOL    HW144331   5.383  10.560  10.245  0.1813 -1.2501 -0.0901
12491SOL    HW244332   5.334  10.461  10.348  0.9477  0.4966  2.0166
12492SOL     OW44333  11.368  11.730   9.132 -0.0670  0.3947 -0.2751
12492SOL    HW144334  11.332  11.742   9.220 -0.3990  1.5394 -0.5444
12492SOL    HW244335  11.458  11.763   9.139 -0.0389  0.3266 -0.3236
12493SOL     OW44336  10.511   6.759   9.025  0.2833  0.5282 -0.3708
12493SOL    HW144337  10.556   6.684   9.064  0.3376 -0.5276 -2.3541
12493SOL    HW244338  10.555   6.773   8.941 -0.3021  2.2552 -0.4373
12494SOL     OW44339   3.953   6.011   2.881  0.5011  0.5109  0.4532
12494SOL    HW144340   3.895   6.011   2.957  0.8811  0.3651  0.7471
12494SOL    HW244341   3.910   6.069   2.818 -0.0682  0.2333  0.5803
12495SOL     OW44342  10.177   0.579   2.685 -0.1173  0.1367 -0.2734
12495SOL    HW144343  10.146   0.489   2.677 -1.4515  0.3517  1.6380
12495SOL    HW244344  10.169   0.615   2.597 -1.5795 -1.0262 -0.6619
12496SOL     OW44345   7.980   2.773   5.598 -0.3088  0.0351 -0.0790
12496SOL    HW144346   7.959   2.726   5.679  0.7710 -1.0845 -0.4107
12496SOL    HW244347   7.912   2.841   5.591 -0.9155 -0.3895  1.3090
12497SOL     OW44348  12.123   3.787   6.513  0.7783 -0.3514 -0.4819
12497SOL    HW144349  12.037   3.781   6.472  0.6056  1.7565 -0.5755
12497SOL    HW244350  12.120   3.869   6.562  2.5493 -0.4995 -0.0506
12498SOL     OW44351   7.323   1.579   9.081  0.0900 -0.0761  0.2483
12498SOL    HW144352   7.418   1.587   9.069 -0.1099  0.3542 -1.3599
12498SOL    HW244353   7.299   1.652   9.137  0.7169 -0.2654  0.7778
12499SOL     OW44354   9.627   3.048   8.442 -0.0604 -0.6058 -0.0322
12499SOL    HW144355   9.682   3.123   8.465  1.0461 -1.5419  0.4379
12499SOL    HW244356   9.554   3.051   8.504  0.3797 -0.3509  0.4787
12500SOL     OW44357   8.238   5.045   0.055  0.1008  0.2952 -0.1121
12500SOL    HW144358   8.250   5.007   0.142  1.8951  0.1721 -0.3747
12500SOL    HW244359   8.232   5.139   0.070  1.3321  0.3554  0.0923
12501SOL     OW44360   9.632   2.665  12.409  0.2821  0.8081 -0.6265
12501SOL    HW144361   9.714   2.672  12.458 -0.5484 -1.2272  1.2382
12501SOL    HW244362   9.584   2.745  12.431  1.5234  1.7954 -1.3652
12502SOL     OW44363   7.720   7.194  11.489 -0.3724  0.5344  0.6500
12502SOL    HW144364   7.743   7.202  11.396 -0.8581 -0.7100  0.4119
12502SOL    HW244365   7.691   7.282  11.514 -0.8429  0.7356 -0.5427
12503SOL     OW44366   7.800   4.348  12.009  0.0265  0.2969 -0.1928
12503SOL    HW144367   7.724   4.365  11.953 -0.4784  0.5986  0.5765
12503SOL    HW244368   7.808   4.426  12.063  0.8583  0.2449 -0.2250
12504SOL     OW44369   6.550   2.916  12.469  0.3838 -0.1846  0.2777
12504SOL    HW144370   6.485   2.866  12.519  0.2315  0.1227  0.3957
12504SOL    HW244371   6.611   2.948  12.535  0.0418  0.4319  0.3098
12505SOL     OW44372   5.278   5.440  12.372  0.4940 -0.4460 -0.0732
12505SOL    HW144373   5.191   5.451  12.335  0.7767  1.6942 -0.2161
12505SOL    HW244374   5.335   5.430  12.296  0.8048  1.8918 -0.2214
12506SOL     OW44375   2.086  10.907   4.052 -0.2927  0.3416 -0.2798
12506SOL    HW144376   2.095  10.993   4.010  0.0324 -0.1584 -1.2588
12506SOL    HW244377   2.117  10.845   3.986  1.7658 -0.3632  1.2639
12507SOL     OW44378   8.360  11.586  11.354  0.3370  0.1756 -0.0702
12507SOL    HW144379   8.294  11.526  11.318  1.3353 -1.3340  0.4970
12507SOL    HW244380   8.370  11.653  11.287 -0.8110 -0.2901 -0.7430
12508SOL     OW44381  10.258   6.538   0.681 -0.8791  0.3833  0.3491
12508SOL    HW144382  10.173   6.568   0.715 -2.0694 -1.9448 -0.3928
12508SOL    HW244383  10.250   6.546   0.586 -0.2792  0.0889  0.2706
12509SOL     OW44384  11.528   4.229   6.804  0.3271  0.4950  0.4314
12509SOL    HW144385  11.587   4.283   6.752 -0.4921  1.6437  0.6573
12509SOL    HW244386  11.572   4.219   6.888  0.8499  0.1272  0.1141
12510SOL     OW44387  10.174   6.764   3.459 -0.2492  0.1881  0.1970
12510SOL    HW144388  10.260   6.788   3.493 -0.1326 -0.9306  0.7396
12510SOL    HW244389  10.152   6.683   3.506 -1.4801  0.3238 -0.1253
12511SOL     OW44390   7.420   6.895   9.994  0.1787  0.7514 -0.5417
12511SOL    HW144391   7.437   6.988  10.011 -0.8166  0.7936  0.3657
12511SOL    HW244392   7.487   6.849  10.044  0.1340  0.9662 -0.2823
12512SOL     OW44393  10.115   1.433   3.164  0.1487  0.2861 -0.0454
12512SOL    HW144394  10.200   1.460   3.199  0.1013  1.2715 -0.6334
12512SOL    HW244395  10.136   1.385   3.084  0.1655  0.2670 -0.0293
12513SOL     OW44396  12.546  11.145  12.132  0.1080  0.4275 -0.4344
12513SOL    HW144397  12.472  11.104  12.088  0.1130  0.4311 -0.4462
12513SOL    HW244398  12.577  11.211  12.071 -0.1304  0.7003 -0.2637
12514SOL     OW44399  12.489  11.444  10.888  0.8604 -0.1409 -0.4726
12514SOL    HW144400  12.540  11.498  10.828  3.0024 -1.0798  0.3996
12514SOL    HW244401  12.537  11.361  10.891 -1.0922 -1.3135 -0.0603
12515SOL     OW44402   3.179   0.691   7.519  0.1343  0.1818  0.4478
12515SOL    HW144403   3.261   0.693   7.568 -0.1917  1.7607  0.9796
12515SOL    HW244404   3.116   0.654   7.580  0.5468 -1.6474 -0.1774
12516SOL     OW44405   1.079   1.517   3.724 -0.5079  0.0646  0.1856
12516SOL    HW144406   1.004   1.577   3.724  1.6487  3.1712 -3.4510
12516SOL    HW244407   1.153   1.571   3.752  1.5225 -0.7260 -3.0972
12517SOL     OW44408   1.326   9.349   0.180  0.3325 -0.1097  0.5943
12517SOL    HW144409   1.236   9.330   0.208  0.1226  1.2025  0.8925
12517SOL    HW244410   1.360   9.265   0.151 -2.0474 -0.2016 -2.5601
12518SOL     OW44411  11.419   6.473  11.356 -0.2168  0.5241  0.5991
12518SOL    HW144412  11.378   6.530  11.290  0.2935 -0.0945 -0.2815
12518SOL    HW244413  11.418   6.525  11.436 -2.4980  0.6023  0.5694
12519SOL     OW44414   6.910   1.515  12.544  0.1599  0.0072 -0.0939
12519SOL    HW144415   6.929   1.588  12.603  2.0139 -0.4912 -0.0341
12519SOL    HW244416   6.884   1.557  12.462  2.0287  0.7971 -0.3265
12520SOL     OW44417   8.642   0.521   5.804 -0.0656 -0.4258  0.2856
12520SOL    HW144418   8.556   0.484   5.824 -1.0474  2.0908  1.1593
12520SOL    HW244419   8.624   0.583   5.732  0.5114  1.7238  1.8885
12521SOL     OW44420  11.654   3.494   5.575  0.2941  0.6683  0.0786
12521SOL    HW144421  11.614   3.559   5.633 -2.3854  1.2733 -2.2210
12521SOL    HW244422  11.694   3.546   5.505  0.0174 -0.0819 -0.6527
12522SOL     OW44423   9.252   2.835   1.465 -0.2604  0.0936 -0.4501
12522SOL    HW144424   9.302   2.789   1.533 -1.7114 -0.2431  0.4474
12522SOL    HW244425   9.306   2.829   1.387  1.0040 -0.4066  0.4201
12523SOL     OW44426   3.192   2.611   2.738 -0.1865  0.2268  0.0002
12523SOL    HW144427   3.141   2.601   2.658  0.8317  0.0702 -0.6508
12523SOL    HW244428   3.150   2.552   2.801 -0.6576 -0.0788 -0.5897
12524SOL     OW44429   4.084   2.448   8.178 -0.6499 -0.6604 -0.0583
12524SOL    HW144430   3.990   2.466   8.171 -0.5496 -0.5815 -1.8665
12524SOL    HW244431   4.106   2.405   8.095  1.2540  1.0064 -0.5076
12525SOL     OW44432   4.523   0.785   9.492 -0.0492 -0.5016  0.2551
12525SOL    HW144433   4.509   0.795   9.587 -1.8127 -0.2433  0.0023
12525SOL    HW244434   4.444   0.741   9.461 -0.3708  1.0895 -1.3610
12526SOL     OW44435   9.188  12.361   4.807 -0.3492  0.1385 -0.5589
12526SOL    HW144436   9.230  12.428   4.754  2.0204  0.1095  1.1262
12526SOL    HW244437   9.224  12.278   4.773 -0.1300  0.0154 -0.0347
12527SOL     OW44438   5.435   8.607  11.842 -0.4009 -0.4165 -0.1285
12527SOL    HW144439   5.343   8.616  11.866 -0.1822 -0.5449  0.8138
12527SOL    HW244440   5.437   8.536  11.778 -0.8561 -0.9928  0.4884
12528SOL     OW44441   2.928   8.322   2.498 -0.6651 -0.6858 -0.2903
12528SOL    HW144442   2.885   8.403   2.472 -1.3559 -1.5607 -1.9868
12528SOL    HW244443   2.982   8.347   2.573 -1.3587  1.1933 -0.3671
12529SOL     OW44444   5.642   2.020   9.091 -0.0682 -0.1836 -0.1935
12529SOL    HW144445   5.689   2.071   9.025  0.1978  0.8266  0.7502
12529SOL    HW244446   5.562   1.991   9.046 -0.5074  1.5536 -0.6159
12530SOL     OW44447   2.926   6.069   6.525 -0.0057  0.1593  0.0362
12530SOL    HW144448   2.960   6.086   6.613 -2.0014 -0.4831  0.9872
12530SOL    HW244449   2.951   6.147   6.475  0.4609  0.9177  1.3938
12531SOL     OW44450   9.287   5.733   0.320 -0.4101  0.5738 -0.3829
12531SOL    HW144451   9.259   5.810   0.272 -1.5345  0.7549  0.5019
12531SOL    HW244452   9.247   5.743   0.407  0.6693 -0.2560  0.2392
12532SOL     OW44453  10.160   6.468   9.093  0.3390  0.1481  0.3477
12532SOL    HW144454  10.182   6.421   9.173 -2.2551 -0.2231  0.9470
12532SOL    HW244455  10.077   6.511   9.113 -0.4754 -0.0756 -2.1963
12533SOL     OW44456   0.076   7.888   1.978 -0.3028  0.5025 -0.0007
12533SOL    HW144457   0.014   7.854   2.044 -0.7773  0.5884 -0.3981
12533SOL    HW244458   0.020   7.918   1.906  0.2835 -1.7873 -1.5037
12534SOL     OW44459   4.381   6.378  10.219 -0.6194  0.6243 -0.1955
12534SOL    HW144460   4.330   6.427  10.155  0.3828  0.1175 -1.4142
12534SOL    HW244461   4.469   6.375  10.183  0.2044  1.1067  1.6642
12535SOL     OW44462   7.633   1.516  11.874 -0.1242  0.2511  0.1481
12535SOL    HW144463   7.707   1.456  11.888 -0.2784 -0.2983 -1.1615
12535SOL    HW244464   7.561   1.458  11.850 -0.2223  0.9420 -1.3688
12536SOL     OW44465  12.131   4.455   1.517  0.5053  0.0516  0.1691
12536SOL    HW144466  12.049   4.405   1.513 -0.5380  1.7464 -0.9596
12536SOL    HW244467  12.138   4.483   1.609 -0.3535  0.1275  0.2207
12537SOL     OW44468   3.793   6.106   8.170 -0.4156  0.2633  0.0978
12537SOL    HW144469   3.860   6.162   8.132  1.4236 -0.5833  1.8576
12537SOL    HW244470   3.745   6.070   8.095  0.2235  1.9154 -1.1540
12538SOL     OW44471   1.242   2.380   1.401  0.2944  0.1085  0.1467
12538SOL    HW144472   1.234   2.469   1.368 -0.7635 -0.1457 -0.3343
12538SOL    HW244473   1.332   2.354   1.379  0.7739  1.2160  0.7421
12539SOL     OW44474   6.198   4.603  11.147 -0.1935  0.5138  0.4495
12539SOL    HW144475   6.205   4.546  11.223 -0.2959  1.9276  1.5463
12539SOL    HW244476   6.280   4.651  11.145 -0.2702  0.6259 -0.2280
12540SOL     OW44477   9.672   8.405  12.466 -0.2463 -0.2325 -0.0470
12540SOL    HW144478   9.746   8.347  12.485  1.6226  1.1152 -2.5375
12540SOL    HW244479   9.695   8.445  12.382 -3.1437  1.4178 -0.1687
12541SOL     OW44480  12.036   6.949   1.424  0.3050  0.2888  0.3603
12541SOL    HW144481  12.066   6.905   1.344 -1.7229 -0.6982  0.0677
12541SOL    HW244482  12.033   7.042   1.400  0.0079  0.0424 -0.6312
12542SOL     OW44483   6.544   7.143   0.140 -0.0027 -0.0357 -0.0508
12542SOL    HW144484   6.531   7.080   0.069 -1.7538  1.1641 -0.8669
12542SOL    HW244485   6.637   7.166   0.135 -0.1798  0.4516 -2.3660
12543SOL     OW44486  12.294   8.149  11.108 -0.4108 -0.2067  0.5664
12543SOL    HW144487  12.322   8.058  11.112  0.6392 -0.0850 -2.2242
12543SOL    HW244488  12.325   8.187  11.191  3.1527 -1.3792 -0.0605
12544SOL     OW44489  11.010   7.550   0.785 -0.0985 -0.5063 -0.6646
12544SOL    HW144490  11.069   7.531   0.857 -1.0132 -2.2373 -0.3015
12544SOL    HW244491  11.027   7.480   0.721 -1.5643 -0.9374 -0.6353
12545SOL     OW44492  12.105  12.092   9.346 -0.2676  0.1896 -0.2349
12545SOL    HW144493  12.185  12.110   9.395 -0.0980 -1.5672  0.1723
12545SOL    HW244494  12.107  12.156   9.274  1.3513  0.3817 -0.0633
12546SOL     OW44495   4.495  10.723   0.632 -0.0194 -0.5374 -0.4119
12546SOL    HW144496   4.590  10.717   0.639 -0.1542 -1.7144  0.9295
12546SOL    HW244497   4.473  10.671   0.554  0.3681 -0.9857 -0.2221
12547SOL     OW44498   7.800   2.597   8.389  0.2424 -0.9003 -0.0908
12547SOL    HW144499   7.793   2.674   8.446  0.5894 -1.0694  0.1886
12547SOL    HW244500   7.712   2.584   8.355  0.5080  0.6306 -1.4785
12548SOL     OW44501   6.302  10.065  12.463  0.3701  0.1325  0.2954
12548SOL    HW144502   6.360   9.989  12.463 -0.4016 -0.5072  1.7944
12548SOL    HW244503   6.215  10.029  12.481 -0.0714  1.3297  0.6826
12549SOL     OW44504   8.993   2.108   0.332 -0.5401  0.6267 -0.4848
12549SOL    HW144505   9.023   2.103   0.423  1.1253  0.0141 -1.0324
12549SOL    HW244506   9.016   2.196   0.304  0.9147  0.1426 -0.9194
12550SOL     OW44507   7.933   1.419   8.643  0.0974  0.2402  0.4218
12550SOL    HW144508   8.006   1.444   8.585 -0.6041 -0.6427 -0.8994
12550SOL    HW244509   7.949   1.326   8.661  0.0816  0.4086  1.3370
12551SOL     OW44510   9.776   4.119  12.486 -0.8315 -0.4636 -0.5505
12551SOL    HW144511   9.688   4.149  12.464 -0.8726 -1.2597 -1.4987
12551SOL    HW244512   9.831   4.145  12.412 -0.5587 -1.2851 -0.6470
12552SOL     OW44513   2.238   3.187   7.303  0.2407  0.0130  0.1938
12552SOL    HW144514   2.320   3.164   7.345 -0.1835 -0.0382  1.0121
12552SOL    HW244515   2.175   3.122   7.335 -0.8781  1.9666  2.2027
12553SOL     OW44516  10.279   8.430   3.235 -0.0311  0.6848 -0.3014
12553SOL    HW144517  10.255   8.365   3.301  1.1321  1.0696  0.5159
12553SOL    HW244518  10.197   8.446   3.187 -0.4642 -0.9752 -0.1853
12554SOL     OW44519   9.100   3.393  10.695 -0.0245  0.5223 -0.4279
12554SOL    HW144520   9.196   3.390  10.694  0.0834  2.4596  0.1668
12554SOL    HW244521   9.078   3.406  10.788 -0.9613 -1.3375 -0.3471
12555SOL     OW44522   0.628   8.955   2.509 -0.1019  0.1828  0.6333
12555SOL    HW144523   0.702   8.998   2.467  0.5903 -0.7071  0.9106
12555SOL    HW244524   0.621   8.871   2.464 -0.6371  0.0599  0.9414
12556SOL     OW44525   2.934   7.995   7.491  0.0939 -0.2168  0.5729
12556SOL    HW144526   3.015   7.960   7.456  0.5849  0.8147  0.6354
12556SOL    HW244527   2.934   8.087   7.464 -1.8302 -0.5590 -0.7979
12557SOL     OW44528   8.857   6.717   2.549  0.6890  0.1442 -0.1633
12557SOL    HW144529   8.781   6.659   2.546 -2.4674  3.8172  1.0091
12557SOL    HW244530   8.887   6.723   2.458 -2.0460  0.4260 -1.1245
12558SOL     OW44531   8.328   1.348   2.351 -0.0408  0.4623  0.0197
12558SOL    HW144532   8.375   1.283   2.297 -0.9481 -0.0933 -0.1139
12558SOL    HW244533   8.261   1.297   2.396 -0.1705  1.1654  0.6242
12559SOL     OW44534   8.648  11.709   0.694 -0.2628  0.1271 -0.1935
12559SOL    HW144535   8.583  11.643   0.716  0.9049 -0.4930  1.5618
12559SOL    HW244536   8.708  11.664   0.635 -1.7289  0.9088 -2.4123
12560SOL     OW44537  10.098   3.563   2.766  1.0368  0.3221  0.3658
12560SOL    HW144538  10.012   3.526   2.749  1.3956  0.4915 -2.2741
12560SOL    HW244539  10.155   3.486   2.776  1.2176  0.0838 -1.9238
12561SOL     OW44540  11.854   6.901   1.145  0.0142 -0.0732 -0.7536
12561SOL    HW144541  11.804   6.906   1.064 -0.8853 -0.6829 -0.2502
12561SOL    HW244542  11.810   6.833   1.197  0.9403 -0.1237 -0.0092
12562SOL     OW44543   7.096   0.406   5.414  0.0953 -0.4066  0.0205
12562SOL    HW144544   7.020   0.439   5.366  0.8712 -0.4310 -1.2607
12562SOL    HW244545   7.086   0.311   5.412 -0.3660 -0.3778  0.7473
12563SOL     OW44546   3.852   9.767   7.844 -0.4074 -0.0305  0.0217
12563SOL    HW144547   3.869   9.711   7.768  0.8458 -0.6842  0.7684
12563SOL    HW244548   3.789   9.832   7.811  0.3090 -0.1302 -1.6517
12564SOL     OW44549  11.707  11.351   4.286 -0.1144 -0.4318 -0.4141
12564SOL    HW144550  11.644  11.313   4.225 -0.5630 -0.1210 -0.1435
12564SOL    HW244551  11.705  11.445   4.267 -1.2592 -0.1477  0.9952
12565SOL     OW44552   9.005   0.782   6.078 -0.0464  0.5586 -0.1711
12565SOL    HW144553   9.091   0.761   6.041  0.3141  0.0401  0.9220
12565SOL    HW244554   8.946   0.718   6.038  0.1309  0.6815 -0.6445
12566SOL     OW44555   3.646  10.340   4.683 -0.1328 -0.0324  0.0744
12566SOL    HW144556   3.622  10.410   4.744  0.6395  0.1132  0.2204
12566SOL    HW244557   3.570  10.332   4.625 -1.3285 -0.8822  1.6660
12567SOL     OW44558  11.083   4.771   5.341 -0.5531 -0.0044  0.0332
12567SOL    HW144559  11.011   4.834   5.346  2.0009  3.1770  0.5799
12567SOL    HW244560  11.140   4.806   5.272  1.8840 -0.6570  1.5802
12568SOL     OW44561   3.911   1.585   7.353  0.1895  0.4751 -0.1064
12568SOL    HW144562   3.880   1.527   7.423 -0.0805  0.3310 -0.3427
12568SOL    HW244563   3.947   1.661   7.398 -0.2929  0.5380  0.1801
12569SOL     OW44564   0.588   4.346   8.020  0.0956 -0.1519 -0.0393
12569SOL    HW144565   0.563   4.265   7.975 -1.4640 -0.3448  1.0792
12569SOL    HW244566   0.513   4.366   8.077  1.6961  0.4222  1.9910
12570SOL     OW44567   0.555   4.265  10.643  0.3211 -0.3161 -0.4581
12570SOL    HW144568   0.628   4.212  10.674 -0.4990 -0.5415  1.1822
12570SOL    HW244569   0.501   4.205  10.591  0.1942 -0.6990  0.1142
12571SOL     OW44570   0.547   5.157   6.341 -0.4140  0.1986  0.0646
12571SOL    HW144571   0.533   5.139   6.434  0.8424  1.5269  0.5393
12571SOL    HW244572   0.459   5.156   6.303 -0.9267 -0.5733  1.2038
12572SOL     OW44573   5.954   5.879   9.850  0.1142 -0.8487 -0.1409
12572SOL    HW144574   5.990   5.865   9.937  0.7270  0.3788 -0.1791
12572SOL    HW244575   5.948   5.974   9.841  0.0021 -0.9556 -1.4095
12573SOL     OW44576   3.307   8.189   7.564 -0.2440  0.0532  0.3419
12573SOL    HW144577   3.278   8.180   7.655 -0.6671 -0.4034  0.1691
12573SOL    HW244578   3.228   8.216   7.517  0.0092  0.4357  0.1330
12574SOL     OW44579   3.215  10.647  11.961 -0.0669 -0.7069  0.0272
12574SOL    HW144580   3.305  10.677  11.951 -0.6766  0.8462 -1.3831
12574SOL    HW244581   3.209  10.570  11.904  0.2594 -0.5315 -0.2503
12575SOL     OW44582  11.156   3.911   4.922 -0.2530 -0.2434  0.4540
12575SOL    HW144583  11.119   3.906   4.834 -0.6756 -1.7199  0.6961
12575SOL    HW244584  11.182   4.003   4.932  0.6263 -0.2375 -1.5341
12576SOL     OW44585   0.313  10.243   4.637  0.1268  0.2845 -0.6537
12576SOL    HW144586   0.223  10.261   4.612  0.1776  1.6096  0.0043
12576SOL    HW244587   0.353  10.330   4.645  1.2422 -0.2543 -0.1777
12577SOL     OW44588   2.413   7.967   9.850 -0.0478  0.1348  0.1616
12577SOL    HW144589   2.462   7.996   9.927  0.6155  1.1306 -0.6072
12577SOL    HW244590   2.385   7.878   9.871 -1.2584  0.9180  2.2148
12578SOL     OW44591   5.935   9.108   3.270 -0.1725 -0.1185  0.5053
12578SOL    HW144592   5.872   9.049   3.230  0.0359  0.0471 -0.0796
12578SOL    HW244593   5.905   9.196   3.246 -0.9804  0.0761  2.1089
12579SOL     OW44594   3.146   0.122   3.606 -0.0690 -0.2610 -0.8973
12579SOL    HW144595   3.193   0.129   3.522 -0.7724  0.7166 -1.2300
12579SOL    HW244596   3.089   0.046   3.595  1.2963 -1.3727 -0.5435
12580SOL     OW44597   0.345   3.326   0.588  0.0570  0.4444 -0.5355
12580SOL    HW144598   0.411   3.287   0.531 -0.2281  0.3447 -0.8032
12580SOL    HW244599   0.366   3.419   0.590 -0.0508  0.4760 -0.9614
12581SOL     OW44600   7.516   1.657   9.767  0.1169 -0.1529  0.0981
12581SOL    HW144601   7.602   1.626   9.793  0.2814 -0.3861 -0.6757
12581SOL    HW244602   7.455   1.618   9.830  0.7241  1.4593  1.7564
12582SOL     OW44603   2.578   5.189   9.391  0.0890 -0.6154 -0.5075
12582SOL    HW144604   2.580   5.265   9.333  2.5834 -0.4849 -0.3394
12582SOL    HW244605   2.488   5.186   9.424 -0.0846  2.2301 -0.5319
12583SOL     OW44606   7.231   0.787  10.605  0.2643  0.4133  0.4055
12583SOL    HW144607   7.185   0.871  10.597  0.1137  0.7840  3.7639
12583SOL    HW244608   7.314   0.801  10.559 -0.1903  2.0132 -0.0247
12584SOL     OW44609   7.099   1.508   7.854 -0.5093  0.1299  0.9043
12584SOL    HW144610   7.065   1.592   7.825 -1.0124 -0.6566 -0.8781
12584SOL    HW244611   7.186   1.502   7.815 -0.5544 -0.2672  0.8551
12585SOL     OW44612   3.352  10.697   3.135 -0.9988 -0.0051 -0.0027
12585SOL    HW144613   3.425  10.714   3.076  0.2758 -0.1166  1.4615
12585SOL    HW244614   3.294  10.639   3.086  0.4430 -0.7840 -0.8612
12586SOL     OW44615   6.787  10.032   1.562 -0.0317 -0.2835  0.3638
12586SOL    HW144616   6.761  10.119   1.532  0.2140 -0.2126  0.3587
12586SOL    HW244617   6.735  10.018   1.641 -0.8130 -0.5430 -0.1821
12587SOL     OW44618   2.058   7.318  11.813  0.0468 -0.2643  0.5272
12587SOL    HW144619   2.053   7.230  11.776  1.6056 -0.6706  1.1595
12587SOL    HW244620   2.151   7.330  11.832  0.0488  1.9681 -0.5637
12588SOL     OW44621   2.342  10.657   0.056 -0.1630  0.6468  0.2353
12588SOL    HW144622   2.265  10.700   0.020 -1.9496 -0.0276  2.8919
12588SOL    HW244623   2.407  10.727   0.065 -0.9086  1.5133 -0.8934
12589SOL     OW44624   4.783   0.903   9.996  0.1757  0.3525  0.8060
12589SOL    HW144625   4.856   0.945  10.042 -0.6387  0.7081  1.8159
12589SOL    HW244626   4.705   0.950  10.027 -0.4465  0.3837 -0.7019
12590SOL     OW44627  10.429   6.491   3.533  0.3728  0.0435 -0.4612
12590SOL    HW144628  10.347   6.458   3.568  0.9205 -2.0079 -0.9583
12590SOL    HW244629  10.497   6.443   3.580  1.4025  2.4781  0.7309
12591SOL     OW44630   8.707   1.828   6.823  0.1557 -0.2402 -0.3906
12591SOL    HW144631   8.732   1.915   6.854 -0.2450  0.2901 -1.5090
12591SOL    HW244632   8.719   1.832   6.728 -0.4326 -1.2131 -0.5150
12592SOL     OW44633   3.487   0.475   6.587 -0.0013 -0.2999 -0.3504
12592SOL    HW144634   3.409   0.486   6.533 -0.9202  0.8905  1.1512
12592SOL    HW244635   3.454   0.447   6.672  1.2905 -0.5910  0.0766
12593SOL     OW44636   2.947   7.759   4.657 -0.1046  0.3734 -0.7161
12593SOL    HW144637   3.031   7.763   4.703 -0.7229  2.2678  0.3557
12593SOL    HW244638   2.967   7.791   4.569  0.5870 -0.7606 -0.9909
12594SOL     OW44639   4.091   8.426   8.235 -0.1053  0.4665 -0.1321
12594SOL    HW144640   4.155   8.397   8.169 -1.7405 -1.9556 -0.7798
12594SOL    HW244641   4.130   8.399   8.319  0.7087  1.0375 -0.3112
12595SOL     OW44642   0.433  12.324   3.535  0.2819  0.3671 -0.6282
12595SOL    HW144643   0.451  12.397   3.595  0.7962  0.2605 -0.6521
12595SOL    HW244644   0.364  12.357   3.477 -0.5103  0.3401  0.2651
12596SOL     OW44645  11.615   1.785   8.070 -0.0497  0.5813 -0.7088
12596SOL    HW144646  11.679   1.818   8.007 -0.5403  0.3549 -1.3423
12596SOL    HW244647  11.530   1.811   8.033 -0.3151  1.2481  0.3284
12597SOL     OW44648   3.257   4.777   7.184 -0.9187 -0.5462  0.1395
12597SOL    HW144649   3.259   4.737   7.097  0.8927  0.4830 -0.3387
12597SOL    HW244650   3.280   4.869   7.168  1.8725 -0.8288  1.9200
12598SOL     OW44651   3.545  11.038   6.694 -0.3909 -0.2952  0.2982
12598SOL    HW144652   3.478  10.988   6.647 -2.5073  2.2126  0.4426
12598SOL    HW244653   3.498  11.077   6.768  1.8436 -0.4584  1.9015
12599SOL     OW44654   2.201  12.059   8.179  0.4036 -0.3190 -0.0725
12599SOL    HW144655   2.133  12.123   8.161  0.5265 -0.6621 -1.9172
12599SOL    HW244656   2.268  12.108   8.227 -0.6656  0.2624  0.8559
12600SOL     OW44657   3.254  11.620  12.037  0.6008  0.0207 -1.0538
12600SOL    HW144658   3.262  11.527  12.058 -0.0183  0.3502  0.8776
12600SOL    HW244659   3.160  11.637  12.037  0.7099  0.6347 -1.4456
12601SOL     OW44660   1.537   3.940   6.590  0.2749 -0.3293  0.5038
12601SOL    HW144661   1.539   4.035   6.593  0.1190 -0.2732 -0.5666
12601SOL    HW244662   1.626   3.914   6.569 -0.2789 -0.2047 -2.4948
12602SOL     OW44663   1.064   1.746  11.982 -0.3795 -0.3418 -0.6762
12602SOL    HW144664   1.093   1.795  12.060 -2.2217  0.2975 -0.3528
12602SOL    HW244665   1.069   1.810  11.911 -1.9048  0.0835 -0.4268
12603SOL     OW44666   9.966   1.902   8.683 -0.2613 -0.0524  0.4915
12603SOL    HW144667   9.991   1.951   8.762  1.5911  0.2907 -0.2431
12603SOL    HW244668  10.048   1.891   8.635 -0.9871 -2.0947 -0.3943
12604SOL     OW44669   0.944   9.952   5.015 -0.4756 -0.4084  0.5161
12604SOL    HW144670   0.959   9.963   4.921 -0.3585 -0.4737  0.5269
12604SOL    HW244671   1.022   9.989   5.056  0.4995 -2.3557  0.5254
12605SOL     OW44672   3.580   5.516   4.695  0.5031 -0.1610  0.1019
12605SOL    HW144673   3.605   5.580   4.628  1.2699 -0.5318  0.0213
12605SOL    HW244674   3.545   5.569   4.767  1.0358  0.3573 -0.0060
12606SOL     OW44675   8.185  11.964   5.026 -0.0631  0.3180  0.6252
12606SOL    HW144676   8.189  12.023   4.950  0.4325  2.6514  2.3385
12606SOL    HW244677   8.092  11.945   5.036 -0.0775 -0.5618 -0.9257
12607SOL     OW44678   0.128   0.736   9.407  0.0858  0.3011 -0.0160
12607SOL    HW144679   0.087   0.807   9.358 -1.3208  0.2525  1.0309
12607SOL    HW244680   0.067   0.718   9.479  1.1488 -0.9386  0.6178
12608SOL     OW44681   8.200   5.548   0.889 -0.3463 -0.5428  0.2548
12608SOL    HW144682   8.136   5.616   0.911  0.5117 -0.7070  3.8077
12608SOL    HW244683   8.176   5.473   0.943  1.8389 -1.1811  0.4412
12609SOL     OW44684   6.654  12.432  12.132  0.2265  0.2190  0.0773
12609SOL    HW144685   6.644  12.375  12.055  1.5566 -1.9618  1.4109
12609SOL    HW244686   6.655  12.521  12.096 -3.9876 -0.3023 -1.9265
12610SOL     OW44687   3.061   9.756   5.375  0.2654 -0.5587  0.1350
12610SOL    HW144688   3.061   9.727   5.284 -1.9133 -1.8037  0.4589
12610SOL    HW244689   3.143   9.722   5.411  0.5678 -1.1359 -1.0527
12611SOL     OW44690   8.595  10.505   1.935 -0.5735 -0.5706 -0.2670
12611SOL    HW144691   8.565  10.524   2.024 -0.9661  0.2568 -0.5671
12611SOL    HW244692   8.683  10.542   1.932 -0.9298  0.2816 -0.5160
12612SOL     OW44693   8.924   0.063   5.921  0.0379  0.1598 -0.3763
12612SOL    HW144694   8.830   0.075   5.907 -0.3140  0.1402  1.6754
12612SOL    HW244695   8.930   0.001   5.994  1.6057  1.1959  0.4353
12613SOL     OW44696   7.395   6.965   6.328 -0.5264  0.0257  0.7790
12613SOL    HW144697   7.462   7.032   6.318 -0.0202 -0.3728  1.3911
12613SOL    HW244698   7.364   6.975   6.418 -0.7503 -0.2859  0.7385
12614SOL     OW44699   3.466   5.711  10.546 -0.0017  0.2366  0.0236
12614SOL    HW144700   3.535   5.648  10.567  0.2525  0.5403  0.1088
12614SOL    HW244701   3.493   5.791  10.590 -0.8282  0.1361  0.7446
12615SOL     OW44702   6.487   8.204   0.111 -0.1854  0.5497  0.0335
12615SOL    HW144703   6.478   8.237   0.021  2.3422 -0.8080 -0.8308
12615SOL    HW244704   6.548   8.265   0.152 -0.1755  0.3167  0.3605
12616SOL     OW44705  10.607   3.671  11.494  0.2737  0.2121 -0.3245
12616SOL    HW144706  10.599   3.747  11.552  0.3984 -1.0676  1.4418
12616SOL    HW244707  10.691   3.683  11.450 -0.9126  2.4772 -2.2502
12617SOL     OW44708  11.229   8.166  11.313 -0.1941 -0.6052  0.1983
12617SOL    HW144709  11.211   8.212  11.231  0.2405 -0.7063  0.0462
12617SOL    HW244710  11.201   8.076  11.296 -3.2135  0.0009  1.2187
12618SOL     OW44711   4.793   2.628   7.149  0.5395 -0.1378  0.4328
12618SOL    HW144712   4.877   2.583   7.139  0.1217 -0.5285 -1.8935
12618SOL    HW244713   4.814   2.706   7.201  2.7029  0.5787 -1.3609
12619SOL     OW44714   2.989   1.689   7.002 -0.0166 -0.7319  0.1057
12619SOL    HW144715   3.068   1.636   7.011  0.6316  0.1205 -0.4040
12619SOL    HW244716   2.933   1.662   7.074  0.3754 -1.9730 -0.0398
12620SOL     OW44717   1.064  10.128   0.773 -0.1143 -0.2273 -0.4484
12620SOL    HW144718   1.156  10.143   0.796  0.2700 -2.7343 -0.1094
12620SOL    HW244719   1.025  10.093   0.853 -0.9424 -0.8332 -1.1074
12621SOL     OW44720   6.403   7.001   4.840 -0.7543  0.0164  0.5295
12621SOL    HW144721   6.370   6.953   4.916 -2.0353 -0.0755 -0.0663
12621SOL    HW244722   6.417   7.090   4.872 -2.9380  0.4216  0.4803
12622SOL     OW44723  11.717   9.554   5.153  0.9615  0.0108  0.3003
12622SOL    HW144724  11.811   9.561   5.140  0.5676  2.1251 -2.2340
12622SOL    HW244725  11.678   9.602   5.080 -2.1409 -1.9029  0.4588
12623SOL     OW44726  10.847   2.715   6.778  0.1738  0.1419 -0.0352
12623SOL    HW144727  10.815   2.725   6.688  1.4793 -1.0227 -0.6496
12623SOL    HW244728  10.767   2.713   6.831 -0.8524 -2.4500 -1.4950
12624SOL     OW44729   9.319  11.310  12.239 -0.0896  0.3044 -0.3882
12624SOL    HW144730   9.350  11.221  12.254 -0.8094  0.1413  0.2228
12624SOL    HW244731   9.356  11.335  12.155 -0.1962 -0.7220 -0.7502
12625SOL     OW44732   4.470   3.740   2.673 -0.1862 -0.0776  0.2628
12625SOL    HW144733   4.453   3.692   2.591  2.4879  1.5699 -1.3989
12625SOL    HW244734   4.531   3.684   2.721 -1.1258 -0.6761  0.7759
12626SOL     OW44735   0.573   6.513  10.931  0.0649 -0.2529  0.4066
12626SOL    HW144736   0.509   6.542  10.996  0.5545  2.1584 -0.1008
12626SOL    HW244737   0.553   6.565  10.853  0.4154 -2.0345 -0.9352
12627SOL     OW44738  10.019   3.033   8.987 -0.3295  0.1578 -0.2840
12627SOL    HW144739  10.032   3.127   8.980 -1.0575  0.2334 -0.7574
12627SOL    HW244740  10.050   3.010   9.075  0.4938  0.7194 -0.4161
12628SOL     OW44741   4.021  11.153  10.693 -0.1226  0.0669 -0.7703
12628SOL    HW144742   3.976  11.099  10.628 -1.0012  1.3939 -1.3115
12628SOL    HW244743   3.965  11.230  10.703  0.2652  0.1540  1.1861
12629SOL     OW44744   6.163   8.701  12.546  0.2100  0.0202  0.1184
12629SOL    HW144745   6.172   8.785  12.591 -1.4918  0.6149 -0.5591
12629SOL    HW244746   6.105   8.650  12.601 -0.5923  0.1574 -0.5747
12630SOL     OW44747   6.013   3.042   0.498 -0.5509 -0.1185 -0.0827
12630SOL    HW144748   6.089   3.067   0.446  0.0561  1.7543  1.5669
12630SOL    HW244749   6.041   2.965   0.547 -0.6992 -1.1066 -1.4887
12631SOL     OW44750  12.454   2.590   0.792  0.1588 -0.6051 -0.3933
12631SOL    HW144751  12.384   2.564   0.851  0.1220 -0.1976 -0.2520
12631SOL    HW244752  12.500   2.660   0.839  0.2304 -0.3935 -0.7726
12632SOL     OW44753   2.038   7.862   9.475 -0.1403  0.0825  0.1698
12632SOL    HW144754   1.980   7.916   9.421 -1.2673 -1.4064 -0.1659
12632SOL    HW244755   2.106   7.923   9.505 -0.2101  1.2443 -1.8338
12633SOL     OW44756   9.235   1.168   0.573  0.2031 -0.2220 -1.0337
12633SOL    HW144757   9.146   1.189   0.600 -0.0858 -1.7806 -0.6874
12633SOL    HW244758   9.290   1.222   0.629 -0.5047  1.6149 -2.0213
12634SOL     OW44759   8.750   8.885   3.198  0.3356  0.1378 -0.3169
12634SOL    HW144760   8.783   8.802   3.164  1.5727 -0.1479  1.4371
12634SOL    HW244761   8.716   8.864   3.284  2.1722  1.6601  0.8682
12635SOL     OW44762   9.222   9.596  12.349  0.3777 -0.4179  0.7637
12635SOL    HW144763   9.160   9.524  12.351  0.4035 -0.4195  2.6490
12635SOL    HW244764   9.284   9.572  12.279 -2.1324  0.0028 -1.8079
12636SOL     OW44765  12.252   4.306   9.211  0.5449  0.3416  1.1330
12636SOL    HW144766  12.332   4.288   9.262  0.5113  0.4017  1.2070
12636SOL    HW244767  12.204   4.369   9.265  0.5095  0.4064  1.0237
12637SOL     OW44768   8.944   9.011   9.667 -0.6968  0.1354  0.1731
12637SOL    HW144769   8.893   8.964   9.734 -0.0811  0.7948  1.1284
12637SOL    HW244770   8.879   9.061   9.618 -1.1324 -0.2020  0.3946
12638SOL     OW44771   2.170  11.387  10.929  0.5633  0.9571 -0.4817
12638SOL    HW144772   2.096  11.447  10.927 -0.4783 -0.2918 -0.6381
12638SOL    HW244773   2.169  11.345  10.843  0.7538  0.1039 -0.0761
12639SOL     OW44774   4.957   9.592   8.807  0.7215 -0.2153  0.1403
12639SOL    HW144775   4.953   9.503   8.841 -0.1504 -0.1031  0.3390
12639SOL    HW244776   5.048   9.619   8.821  1.2250 -1.3759 -0.7110
12640SOL     OW44777  12.328  11.304   3.173  0.7342  0.1314 -0.0600
12640SOL    HW144778  12.423  11.318   3.173  0.8422 -0.0451 -2.7475
12640SOL    HW244779  12.316  11.223   3.223  2.0707 -0.1856 -0.1954
12641SOL     OW44780   4.474   6.794   7.506 -0.2007 -0.0197  0.0895
12641SOL    HW144781   4.449   6.842   7.427 -2.1781 -2.1269 -0.6951
12641SOL    HW244782   4.429   6.839   7.578 -1.2347 -0.0850 -0.4941
12642SOL     OW44783  11.278   8.966   9.623  0.1382  0.1479 -0.6984
12642SOL    HW144784  11.273   8.896   9.558  1.2562 -0.0219 -0.6241
12642SOL    HW244785  11.261   9.046   9.574  0.2493 -0.0463 -1.0562
12643SOL     OW44786  10.556   1.414  11.099 -0.0502 -0.1685 -0.0056
12643SOL    HW144787  10.595   1.478  11.158  2.2828 -0.4985 -1.0801
12643SOL    HW244788  10.528   1.465  11.023 -0.7433 -0.0813  0.3004
12644SOL     OW44789   3.539   7.585   9.183 -0.3163 -0.2016 -0.0137
12644SOL    HW144790   3.458   7.635   9.172 -0.5172 -0.1043  1.7644
12644SOL    HW244791   3.511   7.498   9.212  0.2296  0.5723  3.1950
12645SOL     OW44792   1.071  10.149  10.321  0.3986  0.0040 -0.0261
12645SOL    HW144793   1.006  10.212  10.290 -0.2957 -0.8768 -0.4141
12645SOL    HW244794   1.032  10.111  10.400  0.8387  0.1099  0.2420
12646SOL     OW44795   3.724  10.742   9.198  0.4931 -0.0468  0.1394
12646SOL    HW144796   3.726  10.668   9.259 -0.7848 -0.0030  0.2654
12646SOL    HW244797   3.668  10.807   9.241 -1.4993 -0.5185 -1.6033
12647SOL     OW44798   5.840   7.645   0.959  0.4821 -0.3044  0.2050
12647SOL    HW144799   5.906   7.678   0.899  1.8435 -0.2340  1.6738
12647SOL    HW244800   5.864   7.682   1.044  0.0288 -2.2489  1.2526
12648SOL     OW44801   7.146   6.170   0.421  0.4195 -0.2054  0.3604
12648SOL    HW144802   7.101   6.172   0.506  0.3902  0.1100  0.3370
12648SOL    HW244803   7.085   6.211   0.361  0.7355  0.2228  0.3268
12649SOL     OW44804  11.756   5.268  12.232  0.6312 -0.4019  0.3613
12649SOL    HW144805  11.781   5.353  12.267  0.0912  1.6722 -3.6724
12649SOL    HW244806  11.705   5.288  12.153 -2.0186 -4.4912  0.7080
12650SOL     OW44807   4.129   9.637   4.273 -0.0801  0.0728  0.1882
12650SOL    HW144808   4.111   9.729   4.293  1.8031  0.1772  1.7801
12650SOL    HW244809   4.213   9.639   4.228 -1.5468 -0.6861 -2.7999
12651SOL     OW44810   0.706   9.168   0.044 -0.2776 -0.1437 -0.1665
12651SOL    HW144811   0.704   9.139   0.135 -1.7569  2.0512  0.5916
12651SOL    HW244812   0.619   9.147   0.010 -0.5761  1.2012 -0.2898
12652SOL     OW44813   6.005   1.990   7.179  0.2016  0.4300  0.1211
12652SOL    HW144814   6.017   1.895   7.182 -1.5226  0.0367 -2.5458
12652SOL    HW244815   5.968   2.012   7.264  0.5392 -1.2755  0.7509
12653SOL     OW44816   6.274   1.968   0.818 -0.5475  0.0535  0.0138
12653SOL    HW144817   6.282   2.061   0.839  2.3176 -0.3610  1.2474
12653SOL    HW244818   6.328   1.924   0.884 -1.9123 -2.5316 -0.4445
12654SOL     OW44819   3.573   3.867   9.211 -0.6511  0.0531  0.0694
12654SOL    HW144820   3.569   3.905   9.123  1.0578  1.1946  0.4275
12654SOL    HW244821   3.560   3.942   9.270 -0.0454 -0.3976  0.7905
12655SOL     OW44822   5.459   9.524   3.337  0.1052 -0.1056  0.5041
12655SOL    HW144823   5.542   9.487   3.365 -0.0032 -0.9477 -0.2606
12655SOL    HW244824   5.427   9.464   3.270  0.3716  1.8345 -1.4729
12656SOL     OW44825   1.799   7.165  12.032 -0.2344 -0.2931 -0.1395
12656SOL    HW144826   1.842   7.250  12.022  0.1361 -0.6381 -1.7561
12656SOL    HW244827   1.866   7.110  12.072  0.0301 -0.2047 -0.4531
12657SOL     OW44828   4.146   2.715   0.122  0.2995  0.4564 -0.4468
12657SOL    HW144829   4.182   2.637   0.079 -0.1371 -0.8371  1.4068
12657SOL    HW244830   4.223   2.765   0.148  0.6651 -0.4272  0.2052
12658SOL     OW44831   8.824   7.105   7.296 -0.1147  0.2339  0.3146
12658SOL    HW144832   8.752   7.077   7.352  0.7219  0.1047  1.3632
12658SOL    HW244833   8.868   7.174   7.346  2.2664 -1.6970  1.0913
12659SOL     OW44834   2.799   3.394   6.292  0.3000  0.2598 -0.1117
12659SOL    HW144835   2.850   3.313   6.301 -0.6252 -0.4558 -1.0270
12659SOL    HW244836   2.823   3.446   6.369 -0.1218 -1.4757  1.2592
12660SOL     OW44837   0.720   9.076   8.613  0.1520  0.3465  0.2843
12660SOL    HW144838   0.710   8.991   8.569 -2.2529  0.4126  0.5720
12660SOL    HW244839   0.705   9.056   8.705 -1.0596  1.1659  0.2775
12661SOL     OW44840   2.007   2.298  11.892  0.5379  0.0020  0.3984
12661SOL    HW144841   2.032   2.220  11.843  0.4814 -0.0673  0.4809
12661SOL    HW244842   2.041   2.283  11.980  0.2971 -0.0439  0.4835
12662SOL     OW44843   1.261  12.376  11.226 -0.1036 -0.1693  0.2650
12662SOL    HW144844   1.250  12.302  11.285 -0.4793 -1.1432 -0.9841
12662SOL    HW244845   1.173  12.396  11.195 -0.1339  1.3997  1.2494
12663SOL     OW44846  12.515   2.591   8.962  0.0805  0.4256 -0.2241
12663SOL    HW144847  12.446   2.610   8.898 -0.6263 -0.3794  0.2824
12663SOL    HW244848  12.470   2.547   9.033  0.9795  0.7047  0.5332
12664SOL     OW44849   1.746   0.258   4.520 -0.1706 -0.5288  0.2239
12664SOL    HW144850   1.733   0.178   4.570 -0.7637 -0.6277 -0.0839
12664SOL    HW244851   1.828   0.294   4.553  0.3021 -1.4672  0.0843
12665SOL     OW44852  11.452   9.201   0.797  0.6454 -0.4402 -0.0298
12665SOL    HW144853  11.445   9.138   0.725  2.8625 -1.8337  0.8816
12665SOL    HW244854  11.538   9.240   0.787  0.5026  0.2514  1.1767
12666SOL     OW44855   5.572  10.047  12.006  0.1347 -0.6450  0.0954
12666SOL    HW144856   5.502  10.062  12.070  0.4250 -0.6355  0.4149
12666SOL    HW244857   5.549  10.102  11.931 -0.6133 -1.2354 -0.1203
12667SOL     OW44858   8.435   7.244   1.738 -0.0853  0.2268  0.0342
12667SOL    HW144859   8.378   7.279   1.807 -1.4852  1.8879 -1.8602
12667SOL    HW244860   8.472   7.321   1.696 -0.3723 -0.6551 -1.9521
12668SOL     OW44861   7.327   0.110   8.177 -0.3533  0.1821  0.1870
12668SOL    HW144862   7.290   0.198   8.185 -0.2462  0.1346  1.5085
12668SOL    HW244863   7.372   0.095   8.260  1.8076 -0.1514 -0.9799
12669SOL     OW44864   8.580   9.161  10.967  0.1529 -0.3283  1.0061
12669SOL    HW144865   8.675   9.150  10.965 -0.0907 -3.6489  1.6231
12669SOL    HW244866   8.565   9.235  11.026  2.3475  2.3668 -1.5238
12670SOL     OW44867   3.251   4.861  12.150 -0.5438  0.5648 -0.2947
12670SOL    HW144868   3.322   4.926  12.155 -0.1620  0.0606  2.1946
12670SOL    HW244869   3.297   4.777  12.150 -1.0833  0.2263  1.6320
12671SOL     OW44870   6.391  10.138   3.980  0.1480 -0.0095  0.2021
12671SOL    HW144871   6.465  10.145   3.920  0.2550  0.8295  0.4204
12671SOL    HW244872   6.429  10.151   4.067 -0.0937 -0.6415  0.4110
12672SOL     OW44873   4.035   4.379  11.988 -0.9015 -0.3435 -0.1759
12672SOL    HW144874   4.056   4.391  12.081  0.5843  1.9093 -0.7413
12672SOL    HW244875   3.940   4.388  11.985 -0.8724  0.7354  1.0021
12673SOL     OW44876   6.501  11.802  10.980  0.2861 -0.1577 -0.0249
12673SOL    HW144877   6.449  11.734  10.937 -0.5595  0.9106 -0.7473
12673SOL    HW244878   6.547  11.847  10.909 -0.9136  1.4444  0.1300
12674SOL     OW44879   5.395   7.960   8.950  0.0705  0.2058 -0.2169
12674SOL    HW144880   5.456   7.897   8.989  0.1510  0.9110  0.8493
12674SOL    HW244881   5.325   7.969   9.015 -0.6456  0.1941 -0.9676
12675SOL     OW44882  10.725   9.236   1.681  0.1872  0.4103 -0.0961
12675SOL    HW144883  10.809   9.276   1.661  0.0213  0.9573  0.2725
12675SOL    HW244884  10.676   9.240   1.598  0.5991 -0.1323 -0.3770
12676SOL     OW44885   7.651  11.771   2.091  0.1377 -0.3177 -0.2861
12676SOL    HW144886   7.562  11.778   2.127  0.3511 -0.8883  0.3529
12676SOL    HW244887   7.680  11.683   2.115  1.4609  0.3937  0.8410
12677SOL     OW44888   2.001   6.063   0.317  0.1096  0.4727 -0.2096
12677SOL    HW144889   1.938   6.003   0.358 -0.5928  1.1539 -0.2736
12677SOL    HW244890   1.959   6.091   0.236  0.9516  0.1264 -0.7834
12678SOL     OW44891   7.810  11.769   2.420  0.0507 -0.0448 -0.1512
12678SOL    HW144892   7.853  11.684   2.428  1.9644  0.8194 -0.7223
12678SOL    HW244893   7.869  11.821   2.365 -1.3852  1.4543 -0.3560
12679SOL     OW44894   4.872   8.141   3.866 -0.1542  0.2645  0.4816
12679SOL    HW144895   4.842   8.194   3.792 -1.6947 -1.4120 -0.1772
12679SOL    HW244896   4.953   8.101   3.835  0.5808  1.5591  0.6837
12680SOL     OW44897   8.828   5.007   7.795 -0.7668  0.1845  0.2012
12680SOL    HW144898   8.754   4.963   7.837 -0.7838 -1.2177 -1.2067
12680SOL    HW244899   8.878   4.936   7.753  0.1749  1.3276 -0.6971
12681SOL     OW44900  11.743   3.123   2.815  0.8021  0.3324  0.4988
12681SOL    HW144901  11.833   3.124   2.847  1.0430 -0.1252 -0.1273
12681SOL    HW244902  11.747   3.072   2.734  0.4264  2.3010 -0.8336
12682SOL     OW44903   7.080   9.681  10.549 -0.1181 -0.1739  0.1255
12682SOL    HW144904   7.168   9.645  10.545  0.3961  1.0350  0.3104
12682SOL    HW244905   7.062   9.690  10.643 -0.8747 -1.3957  0.1329
12683SOL     OW44906   3.406   4.812   7.850 -0.6178  0.0051  0.1786
12683SOL    HW144907   3.464   4.749   7.808 -0.7610 -0.6368  0.9238
12683SOL    HW244908   3.455   4.842   7.927 -0.6511  0.6166 -0.0364
12684SOL     OW44909   6.546   6.884   3.010 -0.4850  0.9167 -0.5086
12684SOL    HW144910   6.474   6.836   2.968 -1.1748  1.2567  0.2592
12684SOL    HW244911   6.625   6.841   2.977 -1.0403 -2.3083  1.8697
12685SOL     OW44912   3.565   9.277  12.400  0.0186  0.1115 -0.1731
12685SOL    HW144913   3.510   9.220  12.453 -0.3665  0.2759 -0.3962
12685SOL    HW244914   3.655   9.254  12.426 -0.0139 -2.0521 -1.6961
12686SOL     OW44915   4.032  12.553   9.167  0.0691  0.1021  0.0850
12686SOL    HW144916   3.997  12.528   9.082 -0.1299  0.0267  0.1877
12686SOL    HW244917   4.001  12.643   9.180  1.2447  0.6152 -0.5274
12687SOL     OW44918  10.391   5.523   5.931 -0.0998 -0.4017 -0.0095
12687SOL    HW144919  10.468   5.467   5.948  0.4052  0.5083  0.7758
12687SOL    HW244920  10.317   5.472   5.963  0.0986 -1.4908 -1.1875
12688SOL     OW44921   1.235   5.460   9.042  0.0461  0.2726 -0.0054
12688SOL    HW144922   1.309   5.505   9.083  0.4648  0.6787 -1.1681
12688SOL    HW244923   1.274   5.383   9.001  0.0474  1.0998 -1.6207
12689SOL     OW44924   9.548   7.818   8.934 -0.0552  0.0847 -0.2000
12689SOL    HW144925   9.619   7.790   8.991 -0.2603 -0.1808 -0.0688
12689SOL    HW244926   9.509   7.893   8.979 -0.5573 -0.4541  0.2898
12690SOL     OW44927   1.899   5.284   3.344  0.2977 -0.1177 -0.0161
12690SOL    HW144928   1.830   5.349   3.332  0.1201 -0.3009  0.0102
12690SOL    HW244929   1.974   5.321   3.298  0.1087 -0.0366 -0.2615
12691SOL     OW44930   1.580   1.639   3.858  0.2249 -0.1610  0.5138
12691SOL    HW144931   1.510   1.580   3.889  0.3672 -0.7476 -0.2584
12691SOL    HW244932   1.642   1.642   3.931  0.5726 -1.5512  0.3203
12692SOL     OW44933  10.734   3.474   8.035  0.2176  0.1017 -0.1145
12692SOL    HW144934  10.674   3.529   8.085  1.9953  0.5121  1.7074
12692SOL    HW244935  10.677   3.412   7.989 -1.6524  1.4245  0.3057
12693SOL     OW44936   1.302  10.454   2.979 -0.2550  0.1983 -0.1802
12693SOL    HW144937   1.389  10.493   2.987 -0.9454  1.7415  0.3608
12693SOL    HW244938   1.297  10.422   2.889  1.0629 -0.4437 -0.0416
12694SOL     OW44939   5.872   1.941  11.508  0.5364  0.2559  0.1211
12694SOL    HW144940   5.904   2.011  11.452  0.5974  0.6345  0.6308
12694SOL    HW244941   5.950   1.907  11.552  0.5383 -0.2721 -0.2710
12695SOL     OW44942   5.798   8.471   7.063  0.3618  0.3918  0.4896
12695SOL    HW144943   5.758   8.555   7.086  0.2994  0.1617  1.2345
12695SOL    HW244944   5.724   8.413   7.047  0.4046  0.5220 -0.2243
12696SOL     OW44945   0.253   3.938   8.051 -0.1618  0.6740  0.0826
12696SOL    HW144946   0.348   3.946   8.035 -0.4269 -0.0131 -2.1875
12696SOL    HW244947   0.246   3.927   8.146  2.4267 -3.8384  0.0381
12697SOL     OW44948   5.073   6.697   8.518  0.2375  0.1448  0.1727
12697SOL    HW144949   5.000   6.671   8.574 -1.4380  0.4530 -1.7533
12697SOL    HW244950   5.107   6.615   8.482 -0.4260  0.1120 -0.4006
12698SOL     OW44951   5.470  10.965   8.401 -0.0728  1.0155 -0.0027
12698SOL    HW144952   5.404  11.000   8.461  1.2680  2.0599  0.9172
12698SOL    HW244953   5.432  10.883   8.369 -0.8086  0.3466  2.3735
12699SOL     OW44954   8.578  10.486   6.349  0.3884  0.0458  0.5540
12699SOL    HW144955   8.575  10.542   6.271  0.4721 -0.8080 -0.0694
12699SOL    HW244956   8.595  10.398   6.316  2.8616  0.0097  1.6915
12700SOL     OW44957   5.905   5.241   7.367  0.1358  0.3572  0.1116
12700SOL    HW144958   5.951   5.175   7.420  0.8391  1.2054  0.5755
12700SOL    HW244959   5.954   5.243   7.285  0.1810  0.3912  0.1396
12701SOL     OW44960   2.753   2.404   6.763  0.4208 -0.0726  0.1704
12701SOL    HW144961   2.811   2.328   6.771  0.2967 -0.1164  0.6971
12701SOL    HW244962   2.667   2.372   6.792  0.1816  0.0543 -0.3836
12702SOL     OW44963  12.490   8.453   1.363  0.0814  0.1343  0.4224
12702SOL    HW144964  12.428   8.442   1.291 -0.3939  0.0236  0.8499
12702SOL    HW244965  12.563   8.394   1.340 -0.0552  0.1174  0.0215
12703SOL     OW44966   3.347   4.279   7.976  0.2273  0.2265 -0.2376
12703SOL    HW144967   3.423   4.236   7.937  0.1262  0.8735 -1.1893
12703SOL    HW244968   3.293   4.306   7.902 -0.9639 -0.2547  0.4209
12704SOL     OW44969   0.726   3.329   5.879  0.2643 -0.0597  0.5032
12704SOL    HW144970   0.804   3.368   5.918  0.2582  0.0269  0.4294
12704SOL    HW244971   0.739   3.234   5.887  0.5185 -0.0498  0.2110
12705SOL     OW44972   4.096   5.108  10.942 -0.0518 -0.7204  0.0803
12705SOL    HW144973   4.167   5.172  10.948 -0.9334  0.2640  0.2348
12705SOL    HW244974   4.124   5.049  10.872  0.2959  0.4684 -0.8248
12706SOL     OW44975   5.918   3.192   6.431  0.6885  0.0389 -0.7337
12706SOL    HW144976   6.010   3.194   6.458  0.9174  0.2002 -1.4812
12706SOL    HW244977   5.915   3.125   6.362  0.2254 -0.0222 -0.6574
12707SOL     OW44978   0.822   6.687  12.558  0.4862  0.5449  0.3977
12707SOL    HW144979   0.892   6.726  12.611 -0.5777 -0.2759  2.5543
12707SOL    HW244980   0.746   6.743  12.575  0.3510  0.8486 -1.1182
12708SOL     OW44981  10.426   8.527   8.020 -0.8360 -0.2743 -0.1838
12708SOL    HW144982  10.460   8.506   8.106  1.5874  0.4899 -0.8733
12708SOL    HW244983  10.341   8.482   8.015 -0.2578 -1.7013  1.9323
12709SOL     OW44984   6.042   4.248   5.488 -0.0858  0.0680 -0.1645
12709SOL    HW144985   6.068   4.180   5.550 -2.6468 -1.0521 -0.1977
12709SOL    HW244986   6.024   4.325   5.542 -2.7005 -1.0149  0.6893
12710SOL     OW44987   4.928   3.029   6.083 -0.3186  0.3305  0.2492
12710SOL    HW144988   4.901   2.950   6.037 -0.6609 -1.2219  2.8725
12710SOL    HW244989   4.873   3.099   6.046  0.3010 -0.4916 -2.4370
12711SOL     OW44990   6.826   8.171   6.409 -0.9557  0.3579 -0.4585
12711SOL    HW144991   6.897   8.129   6.361 -1.2472  1.2153 -1.7001
12711SOL    HW244992   6.749   8.118   6.391 -0.6808 -0.5306  0.8297
12712SOL     OW44993   5.611   2.416   8.890 -0.2361 -0.0928 -0.1761
12712SOL    HW144994   5.680   2.367   8.846  0.9207  0.6261  0.7792
12712SOL    HW244995   5.532   2.363   8.877  0.8474 -1.9518  0.3522
12713SOL     OW44996  10.446   1.904   4.983 -0.6500 -0.1582 -0.1284
12713SOL    HW144997  10.394   1.975   5.022 -1.2710 -0.2209 -0.8360
12713SOL    HW244998  10.400   1.824   5.007  0.4054 -0.3971  1.2274
12714SOL     OW44999  12.260   5.361   1.306  0.0170 -0.4686 -0.2141
12714SOL    HW145000  12.180   5.345   1.256  0.1642 -0.2433 -0.5288
12714SOL    HW245001  12.296   5.274   1.323 -0.1271 -0.5564 -0.3534
12715SOL     OW45002   1.651  11.752   4.304 -0.0705 -0.0901 -0.0411
12715SOL    HW145003   1.663  11.706   4.221  0.5854  1.1125 -0.6308
12715SOL    HW245004   1.607  11.688   4.360  0.6749 -1.3856 -0.8724
12716SOL     OW45005   2.857   4.152   3.679  0.0336 -0.0276 -0.2165
12716SOL    HW145006   2.833   4.213   3.609  1.0540  0.2385 -0.3583
12716SOL    HW245007   2.812   4.071   3.658  1.0044 -0.2178 -1.6831
12717SOL     OW45008   5.613   2.467   5.903 -0.1025 -0.3074 -0.3584
12717SOL    HW145009   5.519   2.480   5.916  0.0291  3.1563 -1.8990
12717SOL    HW245010   5.624   2.463   5.808  1.3528 -0.6313 -0.2066
12718SOL     OW45011   8.515  12.521  10.703 -0.6335  0.3429  0.4328
12718SOL    HW145012   8.520  12.457  10.774 -2.0871  0.5851  0.7851
12718SOL    HW245013   8.483  12.601  10.745 -0.0241  0.9554 -0.2299
12719SOL     OW45014   8.573   5.635  10.015  0.2016  0.2780 -0.3460
12719SOL    HW145015   8.587   5.676  10.101  1.7217 -3.1339  1.2278
12719SOL    HW245016   8.646   5.667   9.962 -0.6206  2.2420 -0.3933
12720SOL     OW45017   2.497   8.990   4.409 -0.3435  0.1916 -0.0471
12720SOL    HW145018   2.562   9.028   4.468 -0.4381 -2.0701  1.6950
12720SOL    HW245019   2.511   9.033   4.325  3.0774  0.1469  0.3778
12721SOL     OW45020   3.302   6.187   9.035 -0.5335  0.1353  0.0508
12721SOL    HW145021   3.397   6.191   9.027 -0.3632  1.3208  2.0857
12721SOL    HW245022   3.270   6.257   8.979 -0.1299  0.4810  0.2430
12722SOL     OW45023   1.350   4.129   5.952  0.2731 -0.0397  0.4699
12722SOL    HW145024   1.303   4.097   6.029  0.6482 -1.4051  0.1421
12722SOL    HW245025   1.403   4.202   5.985 -2.5429  2.1000  0.7401
12723SOL     OW45026   8.502  10.833   1.881 -0.5191  0.3245 -0.1860
12723SOL    HW145027   8.519  10.793   1.966 -1.1163 -0.7184 -0.5445
12723SOL    HW245028   8.500  10.927   1.898 -0.4855  0.1263  0.9260
12724SOL     OW45029   5.927   4.493   8.239  0.4896 -0.0172 -0.7769
12724SOL    HW145030   6.022   4.491   8.247  0.4524  0.2531 -0.1969
12724SOL    HW245031   5.905   4.586   8.236  0.2090 -0.0720 -0.4288
12725SOL     OW45032   1.219   2.891  11.852  0.6835  0.5611  0.1922
12725SOL    HW145033   1.183   2.975  11.824 -2.0982  0.0930  2.0093
12725SOL    HW245034   1.308   2.912  11.882  0.8419  2.4136 -1.3940
12726SOL     OW45035   9.025   2.372   4.488  0.4016 -0.2757 -0.1677
12726SOL    HW145036   8.963   2.334   4.550  0.2357 -2.4696 -1.5833
12726SOL    HW245037   9.037   2.462   4.519  0.1950 -1.1806  2.9066
12727SOL     OW45038   8.036   9.239  11.326 -0.0301  0.2440 -0.2259
12727SOL    HW145039   7.966   9.257  11.263  0.0038  0.1356 -0.2948
12727SOL    HW245040   8.099   9.310  11.312 -0.2681  0.5157  0.0459
12728SOL     OW45041   6.520   9.742   3.472  0.1689  0.2020  0.5246
12728SOL    HW145042   6.502   9.822   3.523 -0.8011 -0.5681  1.4350
12728SOL    HW245043   6.490   9.671   3.528  0.3309 -0.7690 -0.5880
12729SOL     OW45044   7.137   2.604  10.598  0.4888  0.1645 -0.0808
12729SOL    HW145045   7.177   2.517  10.600  0.4963  0.1754  0.4263
12729SOL    HW245046   7.205   2.662  10.632 -0.2625  0.0473  1.7433
12730SOL     OW45047  12.035  11.691   9.305  0.1499 -0.6579  0.0673
12730SOL    HW145048  11.941  11.677   9.320  0.1136 -0.1944  0.3091
12730SOL    HW245049  12.040  11.775   9.260  0.4698 -0.5004  0.3886
12731SOL     OW45050   9.592   4.569   0.197 -0.0705  0.2490  0.7839
12731SOL    HW145051   9.534   4.566   0.121 -0.3896  1.5552  0.9583
12731SOL    HW245052   9.560   4.498   0.254 -0.3644 -0.1810  0.0980
12732SOL     OW45053   4.177   8.170   4.926 -0.0437 -0.0996  0.0132
12732SOL    HW145054   4.214   8.088   4.892 -0.6179 -0.3501 -0.0156
12732SOL    HW245055   4.105   8.143   4.981  1.1766  0.2804  1.8811
12733SOL     OW45056   1.599   6.928   4.142  0.0065 -0.1315  0.5048
12733SOL    HW145057   1.541   6.889   4.076  0.8592  0.2311 -0.4922
12733SOL    HW245058   1.549   6.923   4.224 -1.6771  0.6462 -0.4043
12734SOL     OW45059   1.520   8.427   2.814 -0.1002  0.0082  0.3482
12734SOL    HW145060   1.546   8.447   2.724 -0.3440  0.0603  0.2895
12734SOL    HW245061   1.526   8.511   2.860 -0.4867  0.0843  0.2566
12735SOL     OW45062   6.437   8.279   5.011 -0.3805  0.2764  0.2568
12735SOL    HW145063   6.454   8.247   5.100  0.0683  2.0096  0.8391
12735SOL    HW245064   6.463   8.207   4.954 -0.2312 -0.6978  1.5083
12736SOL     OW45065   2.211   9.319   1.166 -0.2741  0.3848 -0.5192
12736SOL    HW145066   2.183   9.294   1.255 -1.9615 -1.4398 -1.4844
12736SOL    HW245067   2.292   9.271   1.152 -0.7594 -0.4808 -0.4512
12737SOL     OW45068  11.857   3.594   1.892  0.2321 -0.1074 -0.4878
12737SOL    HW145069  11.801   3.571   1.818  0.2524 -0.6395 -0.3403
12737SOL    HW245070  11.814   3.671   1.931 -0.3049 -0.4065 -0.4781
12738SOL     OW45071   5.647  11.929  12.091  0.3923  0.4633 -0.4150
12738SOL    HW145072   5.642  11.853  12.033  0.5632  0.5874 -0.5952
12738SOL    HW245073   5.586  11.910  12.162  0.1175  0.3459 -0.6802
12739SOL     OW45074  11.420   9.472   4.100 -0.7633  0.1497  0.0581
12739SOL    HW145075  11.478   9.528   4.151 -2.3454  1.6552  0.2956
12739SOL    HW245076  11.437   9.496   4.009  1.3227 -1.8144 -0.1716
12740SOL     OW45077   8.566   5.315   2.331  0.0806 -0.5977 -0.1061
12740SOL    HW145078   8.573   5.317   2.427  0.3855 -2.1811 -0.0656
12740SOL    HW245079   8.473   5.302   2.314 -0.0223  0.0346 -0.0427
12741SOL     OW45080   5.781   3.525  11.189 -0.4743  0.4207  0.7282
12741SOL    HW145081   5.837   3.505  11.114  0.5395  0.7526  1.3732
12741SOL    HW245082   5.775   3.620  11.190  0.0729  0.4600  1.4387
12742SOL     OW45083   5.848   8.021   1.128  0.2709  0.2980 -0.3429
12742SOL    HW145084   5.846   8.002   1.034 -1.6437  0.5802 -0.4001
12742SOL    HW245085   5.849   8.117   1.133  0.3268  0.2834 -0.0732
12743SOL     OW45086   7.657   3.860   8.256 -0.4113 -0.2346  0.2376
12743SOL    HW145087   7.731   3.803   8.278 -0.5171 -0.1841  0.7249
12743SOL    HW245088   7.678   3.893   8.168 -1.6547 -3.2399 -1.3724
12744SOL     OW45089   6.279   5.582   5.903  0.3985  0.2046  0.5602
12744SOL    HW145090   6.285   5.595   5.808 -0.1090  1.8329  0.7215
12744SOL    HW245091   6.186   5.571   5.920  0.4881 -0.0751  0.8880
12745SOL     OW45092   4.068   1.304   7.080 -0.8519  0.0932  0.1078
12745SOL    HW145093   3.976   1.281   7.067 -0.2531 -1.0252 -3.3811
12745SOL    HW245094   4.070   1.399   7.075 -1.7289  0.0818 -0.7854
12746SOL     OW45095   4.047   6.745   3.069  0.2721  0.1176 -0.5427
12746SOL    HW145096   4.115   6.681   3.088  1.1598  1.2716  0.3223
12746SOL    HW245097   3.970   6.693   3.048  0.7991 -1.2292  0.6972
12747SOL     OW45098   1.657   2.534   7.378  0.1146 -0.5908  0.4294
12747SOL    HW145099   1.751   2.530   7.361 -0.1359 -0.5578 -1.1040
12747SOL    HW245100   1.637   2.628   7.376  0.2216 -0.5078  1.9471
12748SOL     OW45101  10.591  10.581   8.522 -0.0763  0.0314  0.1747
12748SOL    HW145102  10.612  10.613   8.434 -0.8572  1.0766  0.3516
12748SOL    HW245103  10.676  10.560   8.560  0.2320 -1.0863 -1.0525
12749SOL     OW45104   9.984   4.664   1.051 -0.3691  0.5472 -0.4251
12749SOL    HW145105   9.935   4.737   1.089 -0.3733 -0.2201  1.1489
12749SOL    HW245106   9.963   4.589   1.108  1.2809 -0.1865 -0.7320
12750SOL     OW45107   4.779  11.429  12.430  0.1998  0.0499  0.6796
12750SOL    HW145108   4.740  11.346  12.457 -0.2066  0.2512  0.7266
12750SOL    HW245109   4.736  11.450  12.347 -0.5489  0.7712  1.2278
12751SOL     OW45110   7.838  10.331   7.069  0.0283  0.1187 -0.7701
12751SOL    HW145111   7.876  10.244   7.057 -1.4582 -1.4013  3.6050
12751SOL    HW245112   7.748  10.322   7.037 -0.2086 -0.0688 -0.0635
12752SOL     OW45113   5.140   0.623   7.696  0.1207  0.1541 -0.8524
12752SOL    HW145114   5.104   0.657   7.614 -1.5818 -1.3518 -0.7798
12752SOL    HW245115   5.066   0.619   7.756  0.9095 -0.6921  0.1082
12753SOL     OW45116   4.410   3.684   6.821  0.3924  0.0472  0.1636
12753SOL    HW145117   4.460   3.730   6.888 -1.9892 -0.7568  2.6933
12753SOL    HW245118   4.432   3.592   6.834  0.2397 -0.0823 -0.4607
12754SOL     OW45119   7.402   8.406   3.224  0.3266  0.3516  0.0237
12754SOL    HW145120   7.393   8.388   3.131 -0.3778  2.0380 -0.2760
12754SOL    HW245121   7.315   8.391   3.260  0.3652  0.5949  0.2259
12755SOL     OW45122   4.354   7.503   2.573  0.9610 -0.1616  0.3188
12755SOL    HW145123   4.263   7.482   2.554  0.9597 -0.1179  0.2758
12755SOL    HW245124   4.388   7.539   2.491  1.8169 -2.8075 -0.5839
12756SOL     OW45125   9.854  10.407   0.788  0.9313 -0.3176 -0.4570
12756SOL    HW145126   9.780  10.370   0.837 -1.1797  1.1419 -2.3250
12756SOL    HW245127   9.916  10.435   0.855 -0.1767 -1.6579  1.1956
12757SOL     OW45128   9.374  12.359   3.520  0.7329  0.1559  0.1883
12757SOL    HW145129   9.337  12.281   3.480  0.1323  0.9737 -0.8962
12757SOL    HW245130   9.436  12.393   3.454  0.7066  0.8001  0.4892
12758SOL     OW45131   9.746  10.701   6.272 -0.1411  0.0076  0.1139
12758SOL    HW145132   9.677  10.686   6.336 -0.2900  0.6580  0.1147
12758SOL    HW245133   9.768  10.614   6.238 -0.4440 -0.2766  0.6465
12759SOL     OW45134   0.124   6.608  10.363  0.7761  0.9301 -0.2207
12759SOL    HW145135   0.172   6.574  10.287  1.3829  0.1758  0.4679
12759SOL    HW245136   0.058   6.541  10.381 -2.3490  3.0710 -2.6682
12760SOL     OW45137   9.415  12.314   0.659  0.1648 -0.8342 -0.0654
12760SOL    HW145138   9.424  12.256   0.583  1.8402  0.3913 -0.8788
12760SOL    HW245139   9.502  12.354   0.668 -0.2894 -0.2072  1.8977
12761SOL     OW45140   8.058   6.972   5.373  0.3247 -0.6189 -0.0476
12761SOL    HW145141   8.073   6.905   5.306 -0.2879 -0.9057  0.0954
12761SOL    HW245142   7.978   6.945   5.417 -0.2757  0.5387 -0.3845
12762SOL     OW45143   8.109   4.268   9.794  0.1367 -0.2730 -0.5104
12762SOL    HW145144   8.133   4.344   9.846  0.0302 -1.0214  0.6644
12762SOL    HW245145   8.020   4.246   9.821  0.0854 -0.6873 -0.9863
12763SOL     OW45146   6.976  10.299   9.526  1.2722 -0.2679 -0.4682
12763SOL    HW145147   6.985  10.350   9.607  0.8187 -1.8850  0.6486
12763SOL    HW245148   6.981  10.365   9.456  1.1967  1.2390  0.8739
12764SOL     OW45149   1.380   3.181   9.639  0.0171 -0.4546  0.3910
12764SOL    HW145150   1.420   3.262   9.607  0.3273 -0.7116  0.1142
12764SOL    HW245151   1.294   3.207   9.671 -0.1698 -0.1244 -0.3470
12765SOL     OW45152   5.826   9.854  10.728  0.1038 -0.2482  0.3895
12765SOL    HW145153   5.899   9.894  10.681 -0.0969 -0.7422 -0.3466
12765SOL    HW245154   5.749   9.904  10.700  0.1457  0.2527  1.1399
12766SOL     OW45155   7.919   2.086   2.618  0.2815 -0.0940  0.5668
12766SOL    HW145156   7.974   2.038   2.681 -0.3622 -0.7815  0.6239
12766SOL    HW245157   7.918   2.030   2.540  0.6678  0.5185  0.1128
12767SOL     OW45158   5.194   3.400   6.260 -0.9120 -0.0547 -0.1291
12767SOL    HW145159   5.183   3.493   6.276 -1.1175 -0.2927  1.2836
12767SOL    HW245160   5.278   3.379   6.301 -0.5156 -0.3684 -1.0687
12768SOL     OW45161   1.920   7.892   8.777  0.5907  0.2985 -0.2069
12768SOL    HW145162   1.869   7.838   8.837  1.5075  0.9267  1.1906
12768SOL    HW245163   1.971   7.830   8.725 -0.5019 -0.2724 -0.6268
12769SOL     OW45164  11.549  10.477   7.914  0.2591  0.4193  0.2715
12769SOL    HW145165  11.455  10.466   7.931  0.0751  0.8200 -0.4674
12769SOL    HW245166  11.555  10.554   7.858  0.7846 -1.1745 -2.0259
12770SOL     OW45167   5.497   7.626   8.084 -0.4963  0.3897 -0.1771
12770SOL    HW145168   5.564   7.631   8.153 -1.3639 -1.3277  0.8495
12770SOL    HW245169   5.503   7.537   8.051 -0.1553  1.1415 -2.3458
12771SOL     OW45170   9.010   0.155   7.862 -0.1184  0.2059 -0.3670
12771SOL    HW145171   9.054   0.119   7.940 -0.5194  2.3880  0.9564
12771SOL    HW245172   9.038   0.246   7.860 -0.8712  0.4184 -2.2830
12772SOL     OW45173  11.123   8.929   6.393  0.0993  0.0370  0.3064
12772SOL    HW145174  11.188   8.922   6.322 -1.4812  1.4721 -1.3876
12772SOL    HW245175  11.151   8.863   6.456  2.4130 -0.3497 -0.9700
12773SOL     OW45176   5.006  11.349   6.495  0.3634 -0.0340  0.8747
12773SOL    HW145177   4.924  11.397   6.510 -0.2187 -1.4038  2.3910
12773SOL    HW245178   4.979  11.258   6.489  1.7512 -0.4663  0.9464
12774SOL     OW45179   2.980  10.370   8.242 -0.0670  0.0420  0.0744
12774SOL    HW145180   2.943  10.319   8.314  0.4397 -0.3957  0.0248
12774SOL    HW245181   2.926  10.347   8.167 -0.4041  0.2665  0.2437
12775SOL     OW45182  10.998   5.571  11.141  0.3553  0.3234 -0.0124
12775SOL    HW145183  11.059   5.639  11.171 -0.6553  2.0857 -1.7140
12775SOL    HW245184  11.028   5.550  11.052  0.3447 -1.1255  0.3028
12776SOL     OW45185   4.079  11.047   2.947  0.6840 -0.7306 -0.2890
12776SOL    HW145186   4.077  11.095   2.864 -0.3217 -0.4013 -0.0807
12776SOL    HW245187   4.050  11.110   3.013 -0.6079 -1.5850 -0.0048
12777SOL     OW45188   4.793   6.119  12.104  0.1901  0.1021  0.0212
12777SOL    HW145189   4.730   6.170  12.156 -0.5271 -0.2228 -0.5060
12777SOL    HW245190   4.878   6.160  12.122 -0.4754  2.1523 -1.1386
12778SOL     OW45191   0.634   5.152   8.927 -0.1674  0.1423 -0.4535
12778SOL    HW145192   0.666   5.118   8.844 -1.2115 -1.2413 -0.3169
12778SOL    HW245193   0.591   5.234   8.905  0.4602  0.3027 -1.1151
12779SOL     OW45194  12.194   5.634  10.664  0.1629  0.3908 -0.0625
12779SOL    HW145195  12.284   5.668  10.666 -0.6635  2.8825 -1.1160
12779SOL    HW245196  12.155   5.664  10.745  0.0440  0.0059  0.0233
12780SOL     OW45197   6.938  10.881   1.203  0.2135 -0.6201  0.2765
12780SOL    HW145198   6.990  10.959   1.224  1.0954 -1.2425  0.4377
12780SOL    HW245199   6.963  10.860   1.113  0.1390 -0.8536  0.3113
12781SOL     OW45200  10.065  10.462  11.831  0.5514  0.3898  0.1616
12781SOL    HW145201  10.111  10.426  11.755  1.4799 -0.4255  1.0779
12781SOL    HW245202  10.130  10.519  11.872  0.4109  0.0139  0.9135
12782SOL     OW45203   0.972   1.225  12.486  0.0519 -0.0822 -0.5224
12782SOL    HW145204   1.054   1.188  12.518 -1.1701 -1.9422  0.6280
12782SOL    HW245205   0.973   1.316  12.518  0.7474 -0.6828  1.2731
12783SOL     OW45206   1.568  12.028   8.534  0.1593 -0.3816  0.2004
12783SOL    HW145207   1.613  11.953   8.495 -1.6562 -0.7613 -1.2902
12783SOL    HW245208   1.614  12.104   8.497  1.3959 -0.7083  0.9840
12784SOL     OW45209   8.894   2.893   3.156 -0.4757  0.2484 -0.0499
12784SOL    HW145210   8.837   2.853   3.091  0.5155 -2.1011  0.4214
12784SOL    HW245211   8.841   2.896   3.236 -0.2971 -1.0337  0.1398
12785SOL     OW45212   6.759   4.487   5.142  0.5040  0.3186  0.5137
12785SOL    HW145213   6.753   4.445   5.228 -1.9660  1.2362  0.8698
12785SOL    HW245214   6.754   4.415   5.079 -0.8356 -0.1478  1.1269
12786SOL     OW45215   5.045   8.502  12.421 -0.2188 -0.2528  0.3843
12786SOL    HW145216   4.969   8.445  12.433 -1.1143  1.1768  1.9532
12786SOL    HW245217   5.101   8.484  12.496  0.4263 -0.4177 -0.1236
12787SOL     OW45218   2.436   2.729  11.658  0.3811  0.5186 -0.0309
12787SOL    HW145219   2.441   2.663  11.590 -0.6962  1.3133 -0.9138
12787SOL    HW245220   2.457   2.682  11.739  1.0232 -0.5739 -0.8103
12788SOL     OW45221   5.885   4.217  12.127  0.3226  0.7325  0.0558
12788SOL    HW145222   5.796   4.241  12.150  0.3207  0.8983 -0.1205
12788SOL    HW245223   5.919   4.172  12.204  0.1863  0.9350  0.2313
12789SOL     OW45224  10.991   6.998  10.267  0.1995 -0.8224  0.1100
12789SOL    HW145225  10.968   6.912  10.233 -0.3768  0.1901 -2.3544
12789SOL    HW245226  11.035   7.042  10.193 -2.8773  2.2639 -0.1705
12790SOL     OW45227   1.454   3.908  10.188  0.6013 -0.5586 -0.2931
12790SOL    HW145228   1.522   3.872  10.130  1.1094 -0.4219  0.2088
12790SOL    HW245229   1.384   3.842  10.187 -0.3125  0.3461 -2.6542
12791SOL     OW45230   8.917   9.601   2.178 -0.5623 -0.4360 -0.5130
12791SOL    HW145231   8.847   9.596   2.242  1.5334  0.7764  2.0790
12791SOL    HW245232   8.938   9.694   2.172  0.2107 -0.6618 -1.9597
12792SOL     OW45233   2.054   0.214  11.995 -0.0300  0.0222 -0.5866
12792SOL    HW145234   2.111   0.247  11.926  0.3863 -0.2919 -0.3980
12792SOL    HW245235   2.009   0.291  12.029  1.3456  0.4997  0.2426
12793SOL     OW45236   2.403   9.529   0.525 -0.1300 -0.0471 -0.2465
12793SOL    HW145237   2.355   9.605   0.492  0.8113 -0.2569 -2.2848
12793SOL    HW245238   2.443   9.558   0.607  1.1185  2.0645 -1.5236
12794SOL     OW45239   8.473   1.462   8.427 -0.0699 -0.1702 -0.3231
12794SOL    HW145240   8.480   1.389   8.489  0.8947 -0.9148 -1.2816
12794SOL    HW245241   8.553   1.457   8.374 -1.4298 -0.3251 -2.4704
12795SOL     OW45242  10.647  11.989   3.986  0.3203  0.0867 -0.7341
12795SOL    HW145243  10.567  11.953   4.024  0.3164  0.6692 -0.1585
12795SOL    HW245244  10.698  11.913   3.961  1.8026 -0.5595  3.4709
12796SOL     OW45245   8.897   0.128   9.226 -0.5468 -0.1195  0.5705
12796SOL    HW145246   8.929   0.073   9.154 -1.0443  0.6943 -0.2953
12796SOL    HW245247   8.968   0.191   9.241 -1.7131  1.8778 -1.5527
12797SOL     OW45248   0.945   6.843   6.980 -0.0498  0.5043  0.4955
12797SOL    HW145249   0.882   6.779   7.014 -0.8288  2.2993  2.6419
12797SOL    HW245250   0.903   6.928   6.991  2.0619  1.6468  0.3959
12798SOL     OW45251   2.427   3.453   6.744 -0.0843 -0.0612  0.2250
12798SOL    HW145252   2.466   3.365   6.750 -0.9560 -0.5529 -1.1283
12798SOL    HW245253   2.388   3.457   6.657  0.5117  1.9274  0.0031
12799SOL     OW45254   5.420   5.491   0.179 -0.0938 -0.1280 -0.2697
12799SOL    HW145255   5.384   5.510   0.266 -0.0526 -0.7256 -0.1131
12799SOL    HW245256   5.371   5.548   0.120 -0.3802  0.0212  0.1041
12800SOL     OW45257   2.971   6.666   6.588  0.7611 -0.2952  0.3815
12800SOL    HW145258   2.965   6.757   6.615  0.0025 -0.6537  1.4860
12800SOL    HW245259   3.002   6.670   6.497 -2.1594  1.2003 -0.6736
12801SOL     OW45260   3.690   2.863   2.693  0.3564 -0.9810  0.2862
12801SOL    HW145261   3.710   2.838   2.783  1.6253 -0.3733  0.1933
12801SOL    HW245262   3.647   2.786   2.656 -0.2506 -1.2018  1.4301
12802SOL     OW45263   5.275   5.406   1.023 -0.2378 -0.2130  0.3490
12802SOL    HW145264   5.199   5.456   0.992 -0.4647  0.1015  1.3803
12802SOL    HW245265   5.237   5.337   1.078  0.2886  1.1848  2.5910
12803SOL     OW45266   2.227   9.326  11.744  0.4808  0.2347 -0.0902
12803SOL    HW145267   2.217   9.418  11.723 -1.7367  0.0356 -0.1035
12803SOL    HW245268   2.140   9.297  11.772  0.7825 -2.1582 -1.3315
12804SOL     OW45269   6.218   7.176   1.739 -0.1257 -0.4381 -0.0705
12804SOL    HW145270   6.221   7.210   1.650  1.6977  0.1442  0.1689
12804SOL    HW245271   6.128   7.147   1.751 -0.3548 -0.7070 -2.1609
12805SOL     OW45272   5.576   2.869  11.047  0.1468  0.3371  0.1001
12805SOL    HW145273   5.590   2.915  11.130 -1.0802  0.9906 -0.0219
12805SOL    HW245274   5.594   2.935  10.979 -2.0527  0.8460 -0.0691
12806SOL     OW45275   4.725   4.485   5.283  0.1936  0.2414  0.3128
12806SOL    HW145276   4.721   4.574   5.317  2.3123 -0.0567  1.4977
12806SOL    HW245277   4.715   4.495   5.188 -2.1280  1.4423  0.6112
12807SOL     OW45278  11.219  11.153   2.914  0.0688 -0.1383  0.6079
12807SOL    HW145279  11.165  11.108   2.850 -0.8202  1.4157  0.2164
12807SOL    HW245280  11.238  11.087   2.981 -1.3218 -1.0295  0.1569
12808SOL     OW45281   0.048  10.164  11.527 -0.0002 -0.6127 -0.0510
12808SOL    HW145282   0.099  10.204  11.457  1.0115 -0.9420  0.4681
12808SOL    HW245283   0.102  10.091  11.557 -1.3265 -1.6998 -0.2603
12809SOL     OW45284   7.684   5.212   9.099  0.3306  0.4269  0.5420
12809SOL    HW145285   7.680   5.173   9.011  0.4401  0.4840  0.5119
12809SOL    HW245286   7.742   5.154   9.148  0.2335  0.3694  0.5906
12810SOL     OW45287   5.243  11.875   4.106  0.1710  1.0312 -0.3715
12810SOL    HW145288   5.324  11.853   4.153  0.1711 -0.1827 -0.8871
12810SOL    HW245289   5.180  11.810   4.137 -0.5464  1.8037 -0.1742
12811SOL     OW45290   3.314   6.775  10.016  0.0485  0.3469  0.4867
12811SOL    HW145291   3.327   6.709   9.949  1.4410  0.4261  0.6520
12811SOL    HW245292   3.278   6.726  10.091  0.4867 -0.1203  0.3994
12812SOL     OW45293   2.148   7.595   9.143 -0.3852 -0.2701 -0.6025
12812SOL    HW145294   2.159   7.613   9.049  0.4563 -2.3896 -0.9720
12812SOL    HW245295   2.223   7.540   9.166 -2.3019 -2.6719  0.4532
12813SOL     OW45296   3.503   2.321   8.460  0.5847  0.0006  0.4095
12813SOL    HW145297   3.566   2.335   8.531 -0.4299 -0.5884  1.4668
12813SOL    HW245298   3.422   2.299   8.505  0.0015 -0.7354 -0.9619
12814SOL     OW45299   8.260   7.434   9.251  0.1477 -0.3919 -0.1209
12814SOL    HW145300   8.231   7.406   9.337  0.1352  0.9040  0.3191
12814SOL    HW245301   8.225   7.523   9.242  1.9588  0.3025 -0.5638
12815SOL     OW45302   8.297   7.388  11.292  0.1635 -0.2013  0.5826
12815SOL    HW145303   8.310   7.439  11.212 -1.0730  2.5668  2.0054
12815SOL    HW245304   8.384   7.384  11.332  0.7388 -1.3783 -0.7213
12816SOL     OW45305   3.790   2.970   0.934 -0.2488  0.2221 -0.2805
12816SOL    HW145306   3.711   2.995   0.885  0.4532  0.0168 -1.5294
12816SOL    HW245307   3.846   2.926   0.870 -0.1766 -1.9601  1.1800
12817SOL     OW45308   6.128   1.084   4.420  0.2987 -0.1643  0.3701
12817SOL    HW145309   6.114   1.139   4.497 -0.3774 -2.0722  1.6656
12817SOL    HW245310   6.060   1.018   4.424 -0.0307 -0.0873 -2.1452
12818SOL     OW45311   1.749   0.842   4.689 -0.2497  0.4548 -0.0573
12818SOL    HW145312   1.833   0.851   4.734  0.5522  1.1583 -1.6485
12818SOL    HW245313   1.691   0.807   4.756  1.2365  0.1855  1.1555
12819SOL     OW45314   7.542   2.304   5.267  0.8713 -0.4140 -0.2421
12819SOL    HW145315   7.530   2.210   5.279 -0.0744 -0.4313 -1.2076
12819SOL    HW245316   7.473   2.345   5.319  0.5653 -0.2911 -0.7430
12820SOL     OW45317   6.854   9.371   2.686 -0.1656 -0.5092 -0.1062
12820SOL    HW145318   6.949   9.363   2.680 -0.2836 -1.7818 -0.6509
12820SOL    HW245319   6.830   9.428   2.613  0.1801 -0.1014  0.0951
12821SOL     OW45320   2.469  11.248   8.872 -0.0022  0.0078 -0.1797
12821SOL    HW145321   2.443  11.166   8.913 -0.3107  1.0341  1.7936
12821SOL    HW245322   2.554  11.269   8.911  0.5399  0.1685 -1.3933
12822SOL     OW45323   0.440   2.883   7.707  0.2635 -0.1248  0.3019
12822SOL    HW145324   0.491   2.846   7.779 -1.8639 -1.6683  1.1288
12822SOL    HW245325   0.375   2.939   7.750 -1.0993 -1.1406 -0.3589
12823SOL     OW45326   2.400   9.844   2.057  0.0541  0.1038  0.5188
12823SOL    HW145327   2.337   9.874   1.992  2.1215 -0.3343 -1.8164
12823SOL    HW245328   2.397   9.911   2.125 -1.8517  0.8373 -0.2182
12824SOL     OW45329   3.863   1.973   6.865  0.6702  0.1857  0.2094
12824SOL    HW145330   3.885   1.889   6.825  0.7820  0.4624 -0.3179
12824SOL    HW245331   3.852   1.953   6.958  1.1808 -0.3208  0.1672
12825SOL     OW45332   4.882  12.473  11.033  0.1580  0.2860 -0.5193
12825SOL    HW145333   4.808  12.413  11.041  1.3340 -1.4325 -1.7085
12825SOL    HW245334   4.892  12.511  11.120 -0.7319 -1.1786  0.2572
12826SOL     OW45335  12.009   5.592   9.661 -0.2246  0.0218  0.4151
12826SOL    HW145336  12.090   5.615   9.708 -1.4035  1.3070  1.9134
12826SOL    HW245337  11.983   5.508   9.700  0.9838 -1.0331 -0.9392
12827SOL     OW45338   5.413   9.533   1.411  0.6255  0.6634  0.1621
12827SOL    HW145339   5.473   9.604   1.434  1.5897 -0.0983  0.0723
12827SOL    HW245340   5.364   9.516   1.491  0.9606  0.9015  0.4209
12828SOL     OW45341   9.126   8.903   1.838 -0.3031  0.1287 -0.5780
12828SOL    HW145342   9.099   8.992   1.859  0.4004  0.0509  0.7516
12828SOL    HW245343   9.046   8.862   1.804 -0.7233  1.1556 -0.8741
12829SOL     OW45344   9.011   5.526   8.532 -0.0914  0.3340 -0.3545
12829SOL    HW145345   9.023   5.547   8.439 -0.9973 -0.3156 -0.6318
12829SOL    HW245346   8.930   5.571   8.556 -0.1610  0.0378 -0.0293
12830SOL     OW45347   6.024   7.553   3.787  0.1874 -0.1893 -0.2320
12830SOL    HW145348   6.042   7.621   3.722 -0.9281  0.4890  0.1435
12830SOL    HW245349   5.960   7.592   3.846  0.7116 -1.0046  0.9364
12831SOL     OW45350   0.474   6.965   4.753 -0.4909  0.1898 -0.3083
12831SOL    HW145351   0.504   6.880   4.722  0.0672 -0.4520  1.8508
12831SOL    HW245352   0.443   7.010   4.674 -0.1972 -1.7478 -1.5793
12832SOL     OW45353  10.371   2.496   7.156  0.2139 -0.0270  0.0126
12832SOL    HW145354  10.325   2.422   7.196 -0.0134  0.2059  0.1926
12832SOL    HW245355  10.464   2.474   7.165  0.1387 -0.9208 -1.1634
12833SOL     OW45356  10.599   0.118   2.028  0.2274 -0.3375  0.4431
12833SOL    HW145357  10.576   0.106   2.120  0.7189 -0.4395  0.5543
12833SOL    HW245358  10.694   0.105   2.024  0.4449  1.1013  0.1711
12834SOL     OW45359   6.890   8.293   7.999 -0.2126 -0.5627  0.2167
12834SOL    HW145360   6.813   8.351   7.997  0.0249 -0.1146 -3.5974
12834SOL    HW245361   6.876   8.238   8.076 -2.0991  2.3509  2.1599
12835SOL     OW45362   8.356   9.169   3.895 -0.1560 -0.2602  0.1340
12835SOL    HW145363   8.312   9.250   3.871 -0.8837 -0.2682  1.3811
12835SOL    HW245364   8.359   9.169   3.990  0.4385 -1.3805  0.1423
12836SOL     OW45365   9.849   4.056   8.947 -0.1927  0.3685 -0.3527
12836SOL    HW145366   9.838   4.066   9.042 -0.6252  0.5833 -0.4265
12836SOL    HW245367   9.764   4.079   8.910 -0.0069  0.3393 -0.7997
12837SOL     OW45368   4.002   7.480   0.256 -0.4961 -0.1590 -0.3240
12837SOL    HW145369   3.966   7.507   0.172 -0.3505  2.0948  0.2567
12837SOL    HW245370   4.085   7.438   0.235  0.7588  2.5585 -1.2803
12838SOL     OW45371   6.486   6.181   2.135  0.1822  0.0016 -0.0755
12838SOL    HW145372   6.434   6.254   2.103  0.0002  0.2195  0.7068
12838SOL    HW245373   6.452   6.163   2.222 -0.1211 -1.3447 -0.4380
12839SOL     OW45374   6.965   2.854   8.331  0.1751  0.1676  0.0908
12839SOL    HW145375   7.000   2.817   8.249 -1.4499 -0.4232 -0.3783
12839SOL    HW245376   7.032   2.915   8.360  0.8917  0.2389 -1.5773
12840SOL     OW45377   1.525   4.371   4.243 -0.3799  0.2691  0.7019
12840SOL    HW145378   1.555   4.309   4.176  1.0897 -0.2551  1.7953
12840SOL    HW245379   1.468   4.432   4.195 -1.6712 -1.7291 -0.4678
12841SOL     OW45380  11.714   5.252   6.475 -0.3450  0.1454  0.2245
12841SOL    HW145381  11.761   5.169   6.469  0.2587  0.5385 -0.8597
12841SOL    HW245382  11.650   5.249   6.404 -0.8412  0.3092  0.6538
12842SOL     OW45383  12.057  10.007   2.166  0.2885 -0.4902  0.2208
12842SOL    HW145384  12.074   9.948   2.092  0.5648 -0.6983  0.4465
12842SOL    HW245385  12.140  10.053   2.180  0.1421 -0.2146  0.1951
12843SOL     OW45386   0.024   3.941   7.106 -0.3193  0.0187 -0.2284
12843SOL    HW145387  -0.061   3.903   7.130  0.2217 -1.8089 -1.0287
12843SOL    HW245388   0.006   3.990   7.025 -0.6322 -0.2332 -0.3144
12844SOL     OW45389   4.157  11.065  12.020  0.7533  0.4040 -0.4641
12844SOL    HW145390   4.120  10.980  12.044 -0.2625  0.9511 -0.0500
12844SOL    HW245391   4.251  11.056  12.037  0.5403 -0.3743  0.3513
12845SOL     OW45392   0.794   1.298   0.889  0.1627 -0.0177 -0.1822
12845SOL    HW145393   0.818   1.368   0.828  1.1472 -0.4257 -0.2872
12845SOL    HW245394   0.726   1.337   0.944  0.6439  1.0072 -0.2774
12846SOL     OW45395   3.845  12.137  11.503  0.1630  0.3755  0.2416
12846SOL    HW145396   3.820  12.219  11.545  0.9570  0.9406 -0.3521
12846SOL    HW245397   3.903  12.093  11.566 -2.2958 -1.0119  1.6889
12847SOL     OW45398   7.048   2.973   5.034  0.4360 -0.1286  0.3814
12847SOL    HW145399   7.061   2.886   5.071 -1.7003 -0.1973  1.0935
12847SOL    HW245400   7.066   3.034   5.106 -1.2991 -0.1661  0.9019
12848SOL     OW45401  11.659   8.093   0.302  0.4095  0.9181 -0.3791
12848SOL    HW145402  11.680   8.116   0.393 -0.2963 -0.2191  0.1030
12848SOL    HW245403  11.568   8.121   0.292  0.1639  0.1329 -0.3984
12849SOL     OW45404  11.383   4.315   2.980  0.3022  0.0490 -0.1268
12849SOL    HW145405  11.290   4.338   2.979  0.0727 -0.8382  0.4034
12849SOL    HW245406  11.428   4.398   2.963 -0.5821  0.4924 -0.3507
12850SOL     OW45407   9.356   4.295   1.147 -0.0528 -0.8415 -0.6184
12850SOL    HW145408   9.451   4.281   1.155  0.0413 -0.2336 -0.6083
12850SOL    HW245409   9.324   4.217   1.102  0.3144 -1.4920  0.2213
12851SOL     OW45410   8.798   3.685   9.385 -0.2252  0.3078 -0.4199
12851SOL    HW145411   8.734   3.646   9.325  2.2229 -1.5212 -2.0567
12851SOL    HW245412   8.789   3.633   9.466 -0.8496  0.1255 -0.5980
12852SOL     OW45413   0.442  11.563  11.884 -0.0508 -0.4510  0.1861
12852SOL    HW145414   0.431  11.610  11.802  0.0186 -1.2327 -0.2837
12852SOL    HW245415   0.379  11.491  11.879 -1.3563  0.5417  1.6219
12853SOL     OW45416   7.938   6.726   0.771 -0.1921 -0.2754 -0.3562
12853SOL    HW145417   7.930   6.807   0.720  0.4180 -0.5729 -0.9353
12853SOL    HW245418   7.847   6.701   0.790 -0.4887 -0.5932 -2.0160
12854SOL     OW45419   1.890   6.227   4.783  0.9062  0.1332 -0.3644
12854SOL    HW145420   1.956   6.292   4.810 -0.4902  0.8014  1.6787
12854SOL    HW245421   1.880   6.242   4.689  2.4550  1.1391 -0.4150
12855SOL     OW45422   6.568   2.955   5.691 -0.1735 -0.1233 -0.2189
12855SOL    HW145423   6.585   3.049   5.698 -0.3871 -0.1914  1.9174
12855SOL    HW245424   6.476   2.945   5.716 -0.0760 -0.9370 -0.1575
12856SOL     OW45425  10.302   0.148   9.647  0.4473 -0.1590  0.4406
12856SOL    HW145426  10.270   0.069   9.690 -2.0296  0.9586  0.8092
12856SOL    HW245427  10.224   0.187   9.606  1.9504  1.0450 -1.4710
12857SOL     OW45428   4.644   7.916   5.816  0.6909 -0.3435 -0.3870
12857SOL    HW145429   4.738   7.933   5.816  0.6677 -0.0319 -2.0756
12857SOL    HW245430   4.621   7.910   5.723 -1.1150  0.4547 -0.0309
12858SOL     OW45431   8.282   1.158   3.249  0.1312 -0.6601  0.3286
12858SOL    HW145432   8.281   1.195   3.161  2.0439 -1.5603 -0.1207
12858SOL    HW245433   8.194   1.124   3.263  0.4801 -3.0368 -2.3945
12859SOL     OW45434  12.102   1.805   1.518  0.7822 -0.3097 -0.3348
12859SOL    HW145435  12.050   1.805   1.437  0.5846 -1.8165 -0.2430
12859SOL    HW245436  12.168   1.737   1.504  0.8641 -0.4543  0.6885
12860SOL     OW45437   4.420   0.140   9.534  0.1891 -0.0237 -0.5172
12860SOL    HW145438   4.422   0.234   9.554  0.2515 -0.0757 -0.2817
12860SOL    HW245439   4.438   0.136   9.440  2.0442  0.0950 -0.2091
12861SOL     OW45440   2.412   2.033   9.451  0.5554  0.3565 -0.1655
12861SOL    HW145441   2.360   1.984   9.387 -0.0376  0.6113  0.1172
12861SOL    HW245442   2.377   2.006   9.535  0.8266  0.5997  0.0254
12862SOL     OW45443   3.741   6.974   5.816 -0.3899 -0.1281 -0.4866
12862SOL    HW145444   3.820   7.017   5.784 -1.1459  0.4789 -1.5745
12862SOL    HW245445   3.767   6.882   5.828 -0.0653 -0.4068 -2.8702
12863SOL     OW45446  11.768   7.778   1.779 -0.2456 -0.1017 -0.3593
12863SOL    HW145447  11.718   7.853   1.747  0.9395  1.1940  0.7049
12863SOL    HW245448  11.713   7.740   1.847 -0.2200  0.7203  0.1296
12864SOL     OW45449  11.631   0.315   9.687 -0.3002 -0.5480 -0.5142
12864SOL    HW145450  11.703   0.358   9.733 -0.7261 -1.3720  0.9800
12864SOL    HW245451  11.573   0.387   9.659  0.4842  0.0262 -0.6859
12865SOL     OW45452   8.577   6.523   7.757 -0.5380 -0.1449  0.7387
12865SOL    HW145453   8.654   6.574   7.784  0.4062 -0.3103 -1.4567
12865SOL    HW245454   8.522   6.520   7.836  0.5667  2.0408  1.6849
12866SOL     OW45455   1.375   5.000   1.600 -0.4504 -0.3508 -0.5223
12866SOL    HW145456   1.280   4.989   1.612 -0.3961  0.1252  0.4324
12866SOL    HW245457   1.384   5.022   1.507 -1.0825 -2.2582 -1.0851
12867SOL     OW45458   2.502  10.480   4.162  0.5938 -0.3590 -0.0104
12867SOL    HW145459   2.564  10.477   4.235  1.0940 -0.1272 -0.4193
12867SOL    HW245460   2.557  10.474   4.084  0.1125  0.0622 -0.3853
12868SOL     OW45461   3.744   7.207  10.995  0.4021  0.5696  0.1233
12868SOL    HW145462   3.779   7.192  11.082 -1.1536  0.0711  0.7044
12868SOL    HW245463   3.752   7.123  10.951 -2.4283 -0.3808  1.1924
12869SOL     OW45464   3.757  10.602   3.692 -0.1767  0.4271 -0.1379
12869SOL    HW145465   3.782  10.510   3.689 -1.6384 -0.0176  0.0648
12869SOL    HW245466   3.684  10.604   3.754  1.4076  2.1417  1.8144
12870SOL     OW45467   9.660   6.418  12.229  0.1760 -0.3256  0.3683
12870SOL    HW145468   9.693   6.354  12.292  0.9032 -1.5600 -1.1906
12870SOL    HW245469   9.695   6.389  12.145 -2.0548  0.3519 -0.8654
12871SOL     OW45470   7.805  12.354   5.555 -0.0304 -0.4992  0.5495
12871SOL    HW145471   7.854  12.293   5.501 -0.6910 -1.5511  1.1028
12871SOL    HW245472   7.724  12.308   5.577 -0.5275  0.5560  1.0257
12872SOL     OW45473   3.019  11.315   7.204  0.0185 -0.4607 -0.2124
12872SOL    HW145474   2.983  11.311   7.115 -2.2194 -1.0342  0.6550
12872SOL    HW245475   3.000  11.404   7.233  2.8814  0.5149 -1.0830
12873SOL     OW45476  12.158   7.024   7.588  0.1204  0.0625  0.2562
12873SOL    HW145477  12.139   7.062   7.502  0.0567 -0.3027  0.1075
12873SOL    HW245478  12.089   7.059   7.645  0.2500  0.4258  0.1940
12874SOL     OW45479   7.455   4.908   3.145  0.5255  0.1333  0.0784
12874SOL    HW145480   7.499   4.913   3.230  0.5304  2.3071 -0.0001
12874SOL    HW245481   7.378   4.963   3.155  1.2183  1.5142 -1.6993
12875SOL     OW45482  12.527   1.089  12.258  0.7087  0.2649 -0.0664
12875SOL    HW145483  12.585   1.034  12.311 -0.4665  0.3386  1.3944
12875SOL    HW245484  12.443   1.087  12.305 -0.7388 -0.5113 -2.5217
12876SOL     OW45485   8.014  10.778  10.892  0.6598 -0.0235 -0.0897
12876SOL    HW145486   8.007  10.737  10.806 -1.3128 -1.8324  0.8457
12876SOL    HW245487   8.009  10.706  10.954  0.6548  1.3553  1.5902
12877SOL     OW45488   5.559   6.960   7.251  0.1873 -0.2472  0.0570
12877SOL    HW145489   5.589   7.030   7.193  1.2964 -0.3061  0.5362
12877SOL    HW245490   5.508   7.005   7.318  1.0538  0.1316  0.4677
12878SOL     OW45491   3.222   1.937  10.268  0.3342 -0.0844  0.3607
12878SOL    HW145492   3.259   1.957  10.354  0.4971 -1.4235  0.6202
12878SOL    HW245493   3.192   1.847  10.276  1.3352 -0.5904 -1.3253
12879SOL     OW45494  11.299   6.195   5.047  0.3126  0.5525  0.0356
12879SOL    HW145495  11.275   6.236   4.964  1.1253  0.6538 -0.1625
12879SOL    HW245496  11.362   6.255   5.086  0.3486  0.2394  0.4723
12880SOL     OW45497   9.638  10.698   7.727  0.0280 -0.0772  0.5214
12880SOL    HW145498   9.693  10.692   7.649 -1.6569 -2.1731 -0.6153
12880SOL    HW245499   9.555  10.734   7.695 -0.5661 -0.6269  1.4163
12881SOL     OW45500   7.731   5.689   3.445 -0.2262  0.0540  0.3874
12881SOL    HW145501   7.643   5.656   3.427 -0.8009  0.8945  1.5150
12881SOL    HW245502   7.780   5.673   3.365 -1.9602  1.3591 -1.0073
12882SOL     OW45503   6.274   2.424   3.488 -0.3834 -0.1957 -0.5199
12882SOL    HW145504   6.220   2.402   3.563 -0.2578  1.0084 -0.0479
12882SOL    HW245505   6.219   2.406   3.412 -1.1768  0.2891 -0.0703
12883SOL     OW45506   2.884   1.447   5.608  0.0568  0.4202 -0.5021
12883SOL    HW145507   2.953   1.512   5.595  0.4389 -0.4408 -3.5739
12883SOL    HW245508   2.927   1.363   5.596 -0.5215 -0.5201  2.9624
12884SOL     OW45509   2.308   0.677  12.111  0.3099  0.3324 -0.1692
12884SOL    HW145510   2.293   0.642  12.199 -0.2507  1.7574  0.3439
12884SOL    HW245511   2.313   0.772  12.124 -1.1615  0.6965 -1.8435
12885SOL     OW45512   2.516  11.811  12.044 -0.0110 -0.2383 -0.2645
12885SOL    HW145513   2.587  11.752  12.070  1.5771  1.6048 -0.1412
12885SOL    HW245514   2.473  11.834  12.127 -0.2066 -0.6880 -0.2383
12886SOL     OW45515   5.552  10.508   3.416 -0.2550 -0.2268  0.4421
12886SOL    HW145516   5.591  10.421   3.404  1.5514  0.6704 -0.5694
12886SOL    HW245517   5.604  10.565   3.360 -0.8952  1.6705  1.6967
12887SOL     OW45518   1.101   8.509   9.182 -0.4097  0.3864  0.1815
12887SOL    HW145519   1.041   8.469   9.119  1.1330 -1.0484 -0.4586
12887SOL    HW245520   1.104   8.447   9.255  1.4871 -0.4109 -0.5164
12888SOL     OW45521   5.566   4.431   2.682  0.5625 -0.0139 -0.3772
12888SOL    HW145522   5.521   4.515   2.697 -0.9166 -0.8273 -0.0159
12888SOL    HW245523   5.578   4.428   2.588  0.6666  0.6219 -0.3945
12889SOL     OW45524  10.630   6.811  11.603 -0.2662 -0.1058  0.1519
12889SOL    HW145525  10.589   6.798  11.518 -0.2313  0.9970 -0.0535
12889SOL    HW245526  10.711   6.859  11.584 -0.3891  0.3894  0.8170
12890SOL     OW45527   2.345  10.813   1.944  0.3361 -0.6087 -0.1675
12890SOL    HW145528   2.436  10.784   1.951 -0.0376 -1.7619  0.1434
12890SOL    HW245529   2.335  10.878   2.014  0.9341 -0.4586 -0.2241
12891SOL     OW45530   9.042   8.070   6.451  0.0009 -0.1068  0.0127
12891SOL    HW145531   9.027   8.163   6.436 -0.2848 -0.2756 -0.7756
12891SOL    HW245532   9.134   8.065   6.479 -0.7303  0.6979  2.8520
12892SOL     OW45533   6.617   4.275   3.894 -0.0673  0.3882 -0.4159
12892SOL    HW145534   6.672   4.353   3.904  1.3208 -0.4631 -1.1871
12892SOL    HW245535   6.679   4.203   3.884 -1.2551 -0.3594 -3.5803
12893SOL     OW45536   3.650  10.914   0.631 -0.4642 -0.2747 -0.3787
12893SOL    HW145537   3.600  10.838   0.660 -1.6795  0.9129  0.7481
12893SOL    HW245538   3.596  10.989   0.655  0.9417  0.9847 -0.9991
12894SOL     OW45539   6.464   2.224   9.528  0.7922 -0.1259  0.2321
12894SOL    HW145540   6.388   2.245   9.474 -0.0396 -1.8938  0.6254
12894SOL    HW245541   6.471   2.296   9.590  0.0234  0.5344 -0.4347
12895SOL     OW45542   6.062   2.234   0.945  0.1594 -0.6092 -0.3765
12895SOL    HW145543   6.056   2.176   1.021  1.1996  0.9217  0.9354
12895SOL    HW245544   5.971   2.243   0.915 -0.3416 -0.8961  0.9542
12896SOL     OW45545   5.099  11.159   7.637  0.4138 -0.5568  0.0598
12896SOL    HW145546   5.103  11.164   7.541 -0.1081 -1.8562 -0.0517
12896SOL    HW245547   5.101  11.250   7.666 -0.0217 -0.1198 -1.2169
12897SOL     OW45548   6.730   9.132  10.948  0.3668 -0.1618  0.3808
12897SOL    HW145549   6.741   9.041  10.920  3.0166 -0.0842  0.9330
12897SOL    HW245550   6.636   9.148  10.937  0.0470 -2.4541 -1.2034
12898SOL     OW45551  11.080   4.113  11.676 -0.3664 -0.1056  0.0021
12898SOL    HW145552  11.003   4.078  11.631  0.0145 -0.2934 -0.5171
12898SOL    HW245553  11.054   4.117  11.768 -0.3721 -1.9215  0.1123
12899SOL     OW45554   2.090   2.067   5.078  0.4515  0.0346 -0.6190
12899SOL    HW145555   2.022   1.999   5.079  0.0368  0.4374  0.1937
12899SOL    HW245556   2.168   2.024   5.113  0.3586 -0.1937 -0.6964
12900SOL     OW45557   7.279   7.046   4.652 -0.7190  0.5723 -0.2367
12900SOL    HW145558   7.240   6.991   4.585 -0.5963  1.3427 -0.9473
12900SOL    HW245559   7.214   7.047   4.723 -0.5246 -0.8463 -0.0062
12901SOL     OW45560   3.881   1.589   7.055  0.5365 -0.1028 -0.5279
12901SOL    HW145561   3.792   1.556   7.047  0.1084  1.4622 -3.3702
12901SOL    HW245562   3.892   1.606   7.149 -3.1053  2.0298 -0.2974
12902SOL     OW45563   7.743   4.055   0.815  0.4217  0.0270 -0.1022
12902SOL    HW145564   7.656   4.081   0.785  0.0568  1.5774  2.0797
12902SOL    HW245565   7.797   4.055   0.735 -1.2431  0.4169 -1.2766
12903SOL     OW45566   6.121   3.663   2.086 -0.2567  0.0137 -0.6738
12903SOL    HW145567   6.183   3.594   2.060 -1.2721 -2.7790  3.3009
12903SOL    HW245568   6.042   3.645   2.036 -0.0402 -0.8055 -0.7330
12904SOL     OW45569   1.038   6.242   2.902  0.6165  0.2526  0.4934
12904SOL    HW145570   0.966   6.243   2.965  1.1994 -1.6354  1.2683
12904SOL    HW245571   0.996   6.240   2.816 -0.2682 -0.4826  0.9263
12905SOL     OW45572   8.634   2.475   4.115 -0.6187 -0.1440  0.1527
12905SOL    HW145573   8.683   2.530   4.054 -1.0698  1.2495  0.9984
12905SOL    HW245574   8.653   2.385   4.088 -1.9792  0.3887 -2.9670
12906SOL     OW45575   1.787   4.320  10.110  1.0456  0.0768  0.1468
12906SOL    HW145576   1.783   4.387  10.179  3.1937 -0.3249  0.7498
12906SOL    HW245577   1.857   4.261  10.139 -0.1672 -1.9181 -0.8373
12907SOL     OW45578   0.652   9.749   9.581 -0.1420  0.0411  0.0140
12907SOL    HW145579   0.596   9.674   9.600 -1.0196  0.1323 -1.9263
12907SOL    HW245580   0.611   9.791   9.505  0.2774  2.5321  1.0460
12908SOL     OW45581   4.967  10.960   3.482 -0.4732  0.0784 -0.3356
12908SOL    HW145582   4.948  10.879   3.436  1.1890 -0.3707 -0.2856
12908SOL    HW245583   4.938  11.029   3.422  0.5299 -0.5180 -1.5631
12909SOL     OW45584   3.617   7.133   4.565 -0.2536  0.4779 -0.9242
12909SOL    HW145585   3.625   7.120   4.470 -0.4976  1.8905 -1.1670
12909SOL    HW245586   3.526   7.159   4.578 -0.0174  1.0960 -0.4244
12910SOL     OW45587   4.475   9.467   8.960 -0.1283 -0.2737 -0.1488
12910SOL    HW145588   4.437   9.382   8.937  1.2697 -0.9184 -0.1642
12910SOL    HW245589   4.567   9.448   8.978  0.2274  1.2611 -0.2329
12911SOL     OW45590   0.926   4.556  12.334 -0.1517  0.5472 -0.1756
12911SOL    HW145591   0.957   4.482  12.386  0.9259  0.8895 -0.2895
12911SOL    HW245592   0.989   4.562  12.261 -1.7438 -0.0721 -1.6716
12912SOL     OW45593   6.053   9.338   6.654 -0.5068  0.0123 -0.1657
12912SOL    HW145594   6.049   9.432   6.636 -1.7213  0.3372  1.6253
12912SOL    HW245595   5.977   9.320   6.708 -0.5677 -2.1269 -0.8758
12913SOL     OW45596   4.909   4.483   8.732  0.4518  0.6123 -0.5908
12913SOL    HW145597   4.849   4.527   8.792  0.8286  1.0302 -0.5112
12913SOL    HW245598   4.856   4.464   8.655  0.5665  2.4123 -1.1741
12914SOL     OW45599   3.672  11.154   3.892 -0.1268 -0.3763  0.0320
12914SOL    HW145600   3.622  11.214   3.837  1.7982  0.3707 -1.0336
12914SOL    HW245601   3.691  11.204   3.971  1.2719  0.4064 -0.7544
12915SOL     OW45602   2.360   8.818   6.822 -0.1862 -0.3736 -0.3005
12915SOL    HW145603   2.346   8.724   6.834 -0.6773 -0.1554  0.9379
12915SOL    HW245604   2.321   8.837   6.737 -0.2011 -1.2627 -0.5037
12916SOL     OW45605   1.843   1.326   1.538  0.3621 -0.1044  0.1501
12916SOL    HW145606   1.927   1.345   1.580 -0.4611 -0.0484  1.8841
12916SOL    HW245607   1.802   1.412   1.528 -0.0312 -0.2441  0.5399
12917SOL     OW45608   8.980   7.307   7.441  0.4729  0.5708 -0.4080
12917SOL    HW145609   8.903   7.343   7.485  0.5783 -1.1666  1.3094
12917SOL    HW245610   9.022   7.383   7.400 -1.5345  1.7096 -0.4821
12918SOL     OW45611   7.597   2.512   2.808  0.1578  0.1846 -0.3130
12918SOL    HW145612   7.597   2.607   2.812  1.6310  0.1929  0.1818
12918SOL    HW245613   7.596   2.491   2.714 -0.5716  0.6756 -0.4144
12919SOL     OW45614   4.271   1.565   1.550 -0.0969  0.7208 -0.6297
12919SOL    HW145615   4.337   1.497   1.561 -1.0582  0.0254  1.3609
12919SOL    HW245616   4.230   1.546   1.465  0.9130 -0.0292 -0.9642
12920SOL     OW45617  10.168  10.748   8.681 -0.2052  0.1060  0.3272
12920SOL    HW145618  10.073  10.751   8.693 -0.1332  1.5833  0.8229
12920SOL    HW245619  10.181  10.756   8.587 -0.5821 -1.5049  0.1173
12921SOL     OW45620   4.863   7.060   5.599  0.2756  0.1411 -0.0327
12921SOL    HW145621   4.943   7.050   5.547 -0.3282  2.9391 -1.7226
12921SOL    HW245622   4.872   7.145   5.641 -2.1012  0.9041 -0.9223
12922SOL     OW45623   9.423  10.050   2.240 -0.7200 -0.4635 -0.1662
12922SOL    HW145624   9.509  10.084   2.213 -0.6652 -0.8523 -0.4864
12922SOL    HW245625   9.437  10.018   2.329 -0.2695 -1.4612 -0.5784
12923SOL     OW45626   6.290   7.655   3.162 -0.0430 -0.6426 -0.0775
12923SOL    HW145627   6.213   7.654   3.104 -1.0735 -0.6974  1.2584
12923SOL    HW245628   6.358   7.611   3.111 -1.0644 -1.1577 -1.0541
12924SOL     OW45629   0.439   4.540   8.579 -0.1254 -0.4232 -0.5170
12924SOL    HW145630   0.387   4.508   8.505  1.1704 -1.1005 -1.1629
12924SOL    HW245631   0.497   4.605   8.541  1.4000 -1.6507 -0.3680
12925SOL     OW45632  11.778  10.148  12.176  0.4681  0.4651  0.2208
12925SOL    HW145633  11.759  10.127  12.085 -1.6995  1.2321  0.4431
12925SOL    HW245634  11.798  10.064  12.217  1.0080  0.0604 -0.8416
12926SOL     OW45635   7.832   5.873   3.176  0.1008 -0.0058 -0.1403
12926SOL    HW145636   7.764   5.939   3.192  0.7049  0.8426 -0.9193
12926SOL    HW245637   7.803   5.828   3.097  0.2345  0.0762 -0.2364
12927SOL     OW45638  10.250   2.691   3.416 -0.2116  0.7724 -0.5761
12927SOL    HW145639  10.200   2.639   3.478 -0.1594  2.1968  0.6995
12927SOL    HW245640  10.313   2.739   3.469 -0.0465  1.9068 -1.7320
12928SOL     OW45641   9.449   2.519   2.807  0.3535 -0.6090  0.0909
12928SOL    HW145642   9.453   2.474   2.722 -0.2663 -0.7691  0.1414
12928SOL    HW245643   9.499   2.463   2.866  0.7807 -0.5033 -0.1609
12929SOL     OW45644   9.145  11.812   5.781  0.1545 -0.0079  0.2975
12929SOL    HW145645   9.183  11.726   5.762 -0.6724 -0.0945 -1.1322
12929SOL    HW245646   9.067  11.817   5.726  0.5163  1.9017 -0.1315
12930SOL     OW45647  10.248   1.616   2.068 -0.0384  0.0324 -0.7162
12930SOL    HW145648  10.280   1.541   2.118 -0.9375  0.8333  1.2009
12930SOL    HW245649  10.273   1.692   2.121 -0.2356  1.0006 -1.9735
12931SOL     OW45650   2.456   7.825   0.186 -0.7372 -0.7013 -0.3612
12931SOL    HW145651   2.403   7.844   0.109 -1.2116  2.3786  0.6131
12931SOL    HW245652   2.393   7.810   0.256 -0.3610  0.7976  0.3268
12932SOL     OW45653   6.242   6.593   5.316  0.0312  0.1067  0.8358
12932SOL    HW145654   6.311   6.562   5.257  0.7655 -0.9162  2.1519
12932SOL    HW245655   6.282   6.588   5.403 -0.7619  2.2548  1.3826
12933SOL     OW45656   7.903   1.524   1.302 -0.0339 -0.4200  0.3005
12933SOL    HW145657   7.873   1.437   1.274 -0.1717 -0.3358  0.1834
12933SOL    HW245658   7.825   1.565   1.340  0.3331 -0.8211  1.5325
12934SOL     OW45659   1.604   3.241   7.325 -0.0371  0.3441 -0.3870
12934SOL    HW145660   1.634   3.225   7.415  0.5185  2.0180 -0.2509
12934SOL    HW245661   1.509   3.234   7.330  0.0643 -1.3914 -0.0769
12935SOL     OW45662   4.127   2.100   8.970  0.6755  0.4982  0.0200
12935SOL    HW145663   4.047   2.049   8.960 -0.5945  2.7834 -2.7882
12935SOL    HW245664   4.197   2.034   8.974 -1.1878 -1.5149  1.2868
12936SOL     OW45665   5.711   0.095  12.096  0.0894 -0.6337  0.9670
12936SOL    HW145666   5.677   0.105  12.185 -2.0344 -0.3634  0.2053
12936SOL    HW245667   5.772   0.167  12.084  0.5685 -0.8023  2.2570
12937SOL     OW45668   9.311   0.497   0.359 -0.7716 -0.8907 -0.3422
12937SOL    HW145669   9.278   0.513   0.270 -0.0591 -0.1203 -0.4789
12937SOL    HW245670   9.344   0.407   0.357  1.3691 -0.1539 -1.5487
12938SOL     OW45671   1.787  10.227   0.227 -1.0830  0.2270 -0.1039
12938SOL    HW145672   1.783  10.276   0.145  1.2109  1.3150  0.3475
12938SOL    HW245673   1.745  10.283   0.292 -0.2381  0.7565  0.0112
12939SOL     OW45674   5.341  12.188   3.006  0.4850  0.0886  0.3408
12939SOL    HW145675   5.375  12.100   3.020 -0.1622 -0.1008  0.7485
12939SOL    HW245676   5.340  12.199   2.911 -0.2646 -0.6806  0.2507
12940SOL     OW45677  10.518   2.632  12.454  0.1679 -0.0589  0.0255
12940SOL    HW145678  10.425   2.633  12.432  0.0933 -0.1456  0.3450
12940SOL    HW245679  10.562   2.646  12.370 -0.1155 -0.6596 -0.2329
12941SOL     OW45680   8.710   9.776   7.950 -0.1523 -0.2086  0.3838
12941SOL    HW145681   8.781   9.806   7.893 -1.6971  1.0833 -0.9113
12941SOL    HW245682   8.663   9.711   7.898 -0.3188 -0.6036  1.0088
12942SOL     OW45683  10.419   7.953   4.881 -0.1598  0.3435 -0.3157
12942SOL    HW145684  10.487   7.887   4.870 -0.0788  0.0569  1.5925
12942SOL    HW245685  10.369   7.949   4.799  0.0229 -1.8814 -0.3751
12943SOL     OW45686   0.494   7.280   9.139 -0.3443  0.7386 -0.2293
12943SOL    HW145687   0.410   7.269   9.184 -0.1690  1.7095  0.3574
12943SOL    HW245688   0.491   7.368   9.101 -0.3131  0.1090 -1.7911
12944SOL     OW45689   2.453   3.726   3.115  0.0315 -0.0850 -0.5322
12944SOL    HW145690   2.498   3.800   3.156  0.1071 -0.7762  0.6739
12944SOL    HW245691   2.505   3.649   3.141 -1.4859 -0.8403  0.4068
12945SOL     OW45692  10.357   4.859   3.322 -0.1711 -0.0221 -0.2578
12945SOL    HW145693  10.344   4.765   3.332 -1.7670  0.1181 -0.7000
12945SOL    HW245694  10.451   4.869   3.303  0.2537 -1.3939  0.9713
12946SOL     OW45695  12.282   9.453   0.518  0.4926 -0.2719  0.4998
12946SOL    HW145696  12.250   9.543   0.517  0.4782 -0.2808  0.2389
12946SOL    HW245697  12.205   9.400   0.500  0.9105 -0.2167 -1.6318
12947SOL     OW45698   0.379  11.058   8.942 -0.6536 -0.0105  0.1302
12947SOL    HW145699   0.388  11.153   8.948 -0.7306  0.0321 -0.4150
12947SOL    HW245700   0.405  11.026   9.029 -2.6915  0.6521  1.0489
12948SOL     OW45701   3.616   8.207   5.409  0.0794  0.2250 -0.0934
12948SOL    HW145702   3.609   8.171   5.321  0.4139 -1.5481  0.5634
12948SOL    HW245703   3.527   8.236   5.430 -0.1924 -0.1707 -0.6799
12949SOL     OW45704   1.790   3.112   5.085  0.1015 -0.1326  0.8372
12949SOL    HW145705   1.804   3.161   5.166 -0.1135 -0.4539  1.0733
12949SOL    HW245706   1.852   3.150   5.023 -0.6866  1.0633  0.7334
12950SOL     OW45707   0.352   4.013  12.179  0.4151 -0.1121  0.1234
12950SOL    HW145708   0.419   4.070  12.142 -0.1310  0.5709  0.1700
12950SOL    HW245709   0.274   4.028  12.124 -0.6824  1.5853  2.0141
12951SOL     OW45710   6.692  12.457   8.574  0.0997  0.2565  0.4862
12951SOL    HW145711   6.740  12.385   8.532  0.2463  0.5156  0.2066
12951SOL    HW245712   6.741  12.475   8.654 -0.1325 -0.1840  0.7319
12952SOL     OW45713  11.787   8.072   3.229 -0.4255  0.0855  0.2124
12952SOL    HW145714  11.771   8.145   3.288 -1.5468  0.9923 -1.1509
12952SOL    HW245715  11.701   8.051   3.192  0.4711  0.8722 -2.5885
12953SOL     OW45716   0.478   5.562   6.360  0.7458 -0.4319  0.3784
12953SOL    HW145717   0.514   5.487   6.313  0.1816 -0.2874 -0.3004
12953SOL    HW245718   0.545   5.585   6.424  1.9822  0.0307 -1.0473
12954SOL     OW45719   8.193  10.132   3.719 -0.4208 -0.0043  0.3360
12954SOL    HW145720   8.100  10.109   3.727 -0.5207  0.5377  0.7912
12954SOL    HW245721   8.193  10.209   3.662 -0.0966 -1.0366 -1.1001
12955SOL     OW45722   7.183   8.471   0.202 -0.3489  0.3193 -0.7062
12955SOL    HW145723   7.140   8.527   0.267 -1.5839 -0.1691 -1.0789
12955SOL    HW245724   7.255   8.524   0.169 -0.8520  1.2919 -0.2915
12956SOL     OW45725   5.787   6.055   3.655 -0.4185  0.5458  0.1338
12956SOL    HW145726   5.882   6.065   3.662 -0.3150  0.8348 -1.3247
12956SOL    HW245727   5.774   6.006   3.574 -1.4942 -0.3347  0.8026
12957SOL     OW45728   2.853   6.537   1.067  0.3883 -0.0621  0.0468
12957SOL    HW145729   2.906   6.468   1.107  0.2354  0.4323  1.1368
12957SOL    HW245730   2.773   6.539   1.120  0.1333  0.5403 -0.3548
12958SOL     OW45731   6.956   7.518   7.725 -0.1353 -0.4155  0.7673
12958SOL    HW145732   6.946   7.434   7.770  0.6599 -1.3174 -0.6711
12958SOL    HW245733   6.959   7.582   7.796  0.4108 -1.7094  1.9804
12959SOL     OW45734  11.080  11.898   0.940  0.7600  0.1251 -0.1732
12959SOL    HW145735  11.123  11.821   0.976  1.0174  0.6360  0.6298
12959SOL    HW245736  11.064  11.875   0.848  0.1514 -1.1660  0.2211
12960SOL     OW45737   6.123   4.072   7.203 -0.1096 -0.2843  0.0912
12960SOL    HW145738   6.034   4.104   7.213 -0.1212 -0.2927  0.0192
12960SOL    HW245739   6.176   4.127   7.261 -0.2318 -0.5920  0.5015
12961SOL     OW45740  12.527   4.008   1.561 -0.1063 -0.3819 -0.1900
12961SOL    HW145741  12.526   4.091   1.513 -1.0147  0.2353  0.8354
12961SOL    HW245742  12.558   3.944   1.497 -3.1170  0.0101 -2.2978
12962SOL     OW45743   2.989   3.291   2.580 -0.2875  0.1811  0.0893
12962SOL    HW145744   2.955   3.380   2.586  0.2092  0.3583  0.4095
12962SOL    HW245745   2.986   3.258   2.670 -0.1061  0.0191  0.0387
12963SOL     OW45746   4.117   5.006   4.487 -0.0256 -0.2694  0.2901
12963SOL    HW145747   4.034   5.012   4.441 -0.4920  2.5241  1.3125
12963SOL    HW245748   4.180   4.981   4.419 -1.1482  0.8711 -1.2517
12964SOL     OW45749   7.008   9.487  12.247 -0.1623 -0.0379 -0.1872
12964SOL    HW145750   7.077   9.423  12.226 -0.0536  0.2003 -0.5596
12964SOL    HW245751   6.938   9.434  12.286 -1.4085 -0.9389 -3.3046
12965SOL     OW45752  10.700  10.670   8.805 -0.9358  0.3341  0.1373
12965SOL    HW145753  10.739  10.609   8.742 -0.7772  1.8329 -1.2896
12965SOL    HW245754  10.609  10.680   8.776 -1.3702 -0.3011  1.2288
12966SOL     OW45755   3.245  11.489   9.437  0.4692 -0.2168  0.6718
12966SOL    HW145756   3.278  11.399   9.446  0.7924 -0.1310  0.3577
12966SOL    HW245757   3.238  11.521   9.527  1.0821 -0.2916  0.7509
12967SOL     OW45758  11.305   1.062  11.321 -0.4450  0.0837 -0.4089
12967SOL    HW145759  11.294   0.968  11.336  0.7433 -0.0796 -0.4758
12967SOL    HW245760  11.222   1.100  11.349 -0.6063 -0.8823  0.4947
12968SOL     OW45761   9.737   3.416   9.962 -0.1105 -0.2806  0.5851
12968SOL    HW145762   9.711   3.497   9.917  1.7399 -0.1815 -0.4453
12968SOL    HW245763   9.759   3.355   9.891  2.3578 -0.3107  1.2541
12969SOL     OW45764  10.430   1.859  10.230  0.1135 -0.2414 -0.2251
12969SOL    HW145765  10.361   1.822  10.175 -0.3857  0.5879 -0.1882
12969SOL    HW245766  10.489   1.786  10.248 -0.8795 -1.0284 -0.0665
12970SOL     OW45767   6.909   7.181  10.709 -0.3575 -0.2740 -0.1118
12970SOL    HW145768   6.979   7.143  10.656 -0.3621  0.5384 -0.7117
12970SOL    HW245769   6.833   7.185  10.651 -0.3673  0.6054 -0.0507
12971SOL     OW45770   4.625   7.421   1.573 -0.1421 -0.3272 -0.2955
12971SOL    HW145771   4.684   7.355   1.536 -0.7675 -0.6868 -0.6626
12971SOL    HW245772   4.539   7.399   1.538 -0.7197 -0.5215  1.2005
12972SOL     OW45773   3.018   8.407   1.611 -0.1867  0.1794  0.0941
12972SOL    HW145774   3.013   8.327   1.559 -2.2335  0.6863 -0.5836
12972SOL    HW245775   2.981   8.382   1.696  0.5816  0.0496  0.3999
12973SOL     OW45776   6.553   5.538   8.028  0.1979  0.2191 -0.3844
12973SOL    HW145777   6.486   5.470   8.034 -0.9764  1.4419  1.3928
12973SOL    HW245778   6.507   5.619   8.050  2.5471  0.8826  2.9786
12974SOL     OW45779   4.708   5.250   2.066 -0.0971  0.0253  0.3296
12974SOL    HW145780   4.785   5.194   2.054 -0.4545 -0.3363 -0.3200
12974SOL    HW245781   4.741   5.326   2.114  0.2050 -1.1734  2.1341
12975SOL     OW45782  10.577   5.564   6.781 -0.3497 -0.5200  0.3343
12975SOL    HW145783  10.641   5.591   6.716 -1.4940  0.5032 -0.4193
12975SOL    HW245784  10.628   5.549   6.861  0.7608  0.6727 -0.1199
12976SOL     OW45785  11.208   7.681   7.104 -0.1909 -0.3414  0.5612
12976SOL    HW145786  11.299   7.681   7.074 -0.6296  1.8088 -1.0196
12976SOL    HW245787  11.162   7.630   7.038 -0.8736  2.9490 -1.7578
12977SOL     OW45788   2.101   3.144   6.267 -0.3795 -0.0745 -0.0843
12977SOL    HW145789   2.174   3.188   6.224  0.5616 -2.2863 -0.9429
12977SOL    HW245790   2.025   3.169   6.215  0.1212  0.4766 -0.5782
12978SOL     OW45791   0.933   0.857   9.347  0.4286 -0.4036  0.4490
12978SOL    HW145792   0.935   0.761   9.353  1.0367 -0.4179  0.1062
12978SOL    HW245793   0.840   0.879   9.348  0.3002 -0.9250  1.5537
12979SOL     OW45794   6.754  10.282   8.696  0.0516  0.0767  0.3337
12979SOL    HW145795   6.755  10.274   8.601  0.3405  1.4675  0.2002
12979SOL    HW245796   6.718  10.370   8.713 -0.1246 -0.2005  1.5103
12980SOL     OW45797   1.189   4.466   1.627  0.0401 -0.1283 -0.1744
12980SOL    HW145798   1.233   4.405   1.567  2.5583  0.6262  0.7907
12980SOL    HW245799   1.175   4.415   1.707  0.2359 -0.0464 -0.0866
12981SOL     OW45800   7.453  10.292   9.986 -0.5347 -0.4368  0.1818
12981SOL    HW145801   7.498  10.260   9.908  0.8455  2.4888 -0.3635
12981SOL    HW245802   7.502  10.255  10.059 -0.3539 -1.2581 -0.3441
12982SOL     OW45803   5.067   9.606   1.398 -0.0450 -0.2595  0.3222
12982SOL    HW145804   5.116   9.529   1.427  1.3771 -0.6032 -2.5675
12982SOL    HW245805   4.975   9.580   1.403  0.3308 -1.5213  0.9364
12983SOL     OW45806   7.896  11.386   0.497 -0.3120 -0.3513  0.2754
12983SOL    HW145807   7.875  11.302   0.537 -0.6244  0.2833  1.4914
12983SOL    HW245808   7.953  11.429   0.561  1.2346 -0.2866 -1.0599
12984SOL     OW45809   9.072   0.043   4.191  0.1085 -0.0244  0.3149
12984SOL    HW145810   9.111   0.096   4.261 -1.5572 -0.7374  1.8554
12984SOL    HW245811   8.978   0.061   4.198 -0.1339 -0.4531 -1.4886
12985SOL     OW45812   1.683   8.885   2.003 -0.2876 -0.1222  0.2763
12985SOL    HW145813   1.589   8.875   1.985 -0.2441 -1.0252  0.4954
12985SOL    HW245814   1.709   8.802   2.042  1.3865 -1.3938 -3.1313
12986SOL     OW45815   1.061   2.521   8.242 -0.3853  0.2585 -0.3816
12986SOL    HW145816   1.139   2.561   8.281 -1.6890 -0.9813  4.1622
12986SOL    HW245817   1.078   2.427   8.249 -2.4854 -0.0569  1.5760
12987SOL     OW45818   6.774   9.456   5.416  0.2017 -0.2388 -0.6342
12987SOL    HW145819   6.683   9.435   5.396 -0.4123  1.2175  0.5199
12987SOL    HW245820   6.796   9.528   5.358 -0.2707  1.2077  0.9040
12988SOL     OW45821   7.384   6.287   0.526  0.4850 -0.3821  0.4824
12988SOL    HW145822   7.322   6.255   0.461  1.5804  1.3610 -1.5204
12988SOL    HW245823   7.399   6.212   0.584 -2.5613 -1.1899  0.3960
12989SOL     OW45824   3.891  11.096   7.825  0.1072  0.2389  0.0779
12989SOL    HW145825   3.942  11.161   7.873  3.5150 -0.6858 -1.9163
12989SOL    HW245826   3.865  11.141   7.744  3.0952 -0.8263 -1.6463
12990SOL     OW45827   4.494   4.125   9.900  0.2568  0.0936  0.6165
12990SOL    HW145828   4.405   4.160   9.905  0.3239  0.4914 -0.6693
12990SOL    HW245829   4.482   4.030   9.907 -0.1328  0.1974  1.7099
12991SOL     OW45830   9.769   5.362   6.643  0.4770 -0.3090 -0.4144
12991SOL    HW145831   9.809   5.429   6.587  1.3074  0.9330  1.5499
12991SOL    HW245832   9.676   5.387   6.647  0.8651  1.0538  0.6781
12992SOL     OW45833   4.957   2.034   2.380  0.6436  0.2166 -0.2272
12992SOL    HW145834   5.046   2.046   2.412  0.8864  0.2381 -0.8935
12992SOL    HW245835   4.901   2.051   2.456  1.1505  1.5229 -0.1236
12993SOL     OW45836   1.490   3.572   0.578 -0.5855  0.1228 -0.0004
12993SOL    HW145837   1.432   3.564   0.502  0.7958  0.2912 -1.1243
12993SOL    HW245838   1.578   3.579   0.540  0.0854  0.8850  1.5970
12994SOL     OW45839   0.205   6.322  12.167  0.8962 -0.0603  0.5322
12994SOL    HW145840   0.140   6.259  12.200  2.0960 -1.2730  0.6959
12994SOL    HW245841   0.209   6.306  12.073  0.0077  0.9709  0.2926
12995SOL     OW45842   8.851   1.882   8.219  0.0458  0.6612 -0.0254
12995SOL    HW145843   8.791   1.956   8.234 -0.4126  0.4698 -0.8178
12995SOL    HW245844   8.798   1.805   8.239 -0.0646  0.4788 -0.9640
12996SOL     OW45845   5.739   1.880  12.006  0.3281  0.1830  0.2386
12996SOL    HW145846   5.707   1.897  11.918  0.4358 -0.3436  0.0942
12996SOL    HW245847   5.811   1.942  12.018  1.4982 -0.9497 -0.7264
12997SOL     OW45848   8.761   6.807   5.848 -0.0630  0.0275  0.3399
12997SOL    HW145849   8.699   6.794   5.920  0.6118 -0.7578  0.7938
12997SOL    HW245850   8.830   6.743   5.864 -0.0034 -0.3125 -1.1380
12998SOL     OW45851   5.758   6.216   6.087 -0.4310  0.8040 -0.2591
12998SOL    HW145852   5.843   6.228   6.130 -0.9003  0.8715  0.6861
12998SOL    HW245853   5.705   6.289   6.119 -1.5915 -0.5737  1.1409
12999SOL     OW45854   7.917   4.361   6.414 -0.0719 -0.4276  0.4731
12999SOL    HW145855   7.921   4.328   6.503 -1.0377 -1.4660  0.1629
12999SOL    HW245856   7.949   4.289   6.360 -0.1045 -0.0498 -0.0572
13000SOL     OW45857   8.014   1.773   3.740  0.0091  0.2776 -0.7932
13000SOL    HW145858   8.090   1.723   3.769 -0.2357 -0.1737 -0.9287
13000SOL    HW245859   8.049   1.861   3.723  0.4520  0.1372 -0.6229
13001SOL     OW45860   4.523   6.299   7.964  0.1187  0.2345 -0.3415
13001SOL    HW145861   4.514   6.213   7.922  1.7954 -0.1622  0.0371
13001SOL    HW245862   4.593   6.342   7.916  1.1109  0.3237  1.1109
13002SOL     OW45863   1.146   3.678  11.269 -0.3196  0.3272  0.0976
13002SOL    HW145864   1.064   3.724  11.288 -0.2591  0.5807 -0.2417
13002SOL    HW245865   1.187   3.731  11.200  0.1220  0.1977  0.2589
13003SOL     OW45866   0.557   8.769   7.810 -0.0699  0.4730  0.6195
13003SOL    HW145867   0.479   8.752   7.758 -2.1245  2.0432  2.9091
13003SOL    HW245868   0.578   8.861   7.793  0.7308  0.3257  0.7354
13004SOL     OW45869   6.053   9.075   7.624 -0.2325 -0.0872  0.1210
13004SOL    HW145870   6.046   8.996   7.572 -0.9857 -0.9191  1.4231
13004SOL    HW245871   6.147   9.089   7.634 -0.0905 -0.3552 -0.7874
13005SOL     OW45872  10.637   4.935   0.421 -0.6085  0.0305  0.2483
13005SOL    HW145873  10.641   4.914   0.514  0.0499 -0.0465  0.2075
13005SOL    HW245874  10.544   4.929   0.399 -0.7710  0.0895  0.9064
13006SOL     OW45875   1.679   8.559   8.827 -0.1677  0.1984  0.1187
13006SOL    HW145876   1.730   8.487   8.863  2.0523  1.9057  0.6351
13006SOL    HW245877   1.592   8.550   8.867  0.0900 -2.0322  0.2783
13007SOL     OW45878   9.557   8.677   1.854 -0.5076  0.5346 -0.0649
13007SOL    HW145879   9.475   8.706   1.815 -0.5362  1.1189  0.4228
13007SOL    HW245880   9.536   8.661   1.946  0.0449  1.1933  0.1826
13008SOL     OW45881   1.940   8.798   8.787  0.5937 -0.3563  0.0277
13008SOL    HW145882   1.903   8.886   8.799  0.4030  0.1463 -3.2750
13008SOL    HW245883   2.018   8.797   8.842  0.4408  1.7717  0.3702
13009SOL     OW45884   9.686  11.955   1.032  0.3246 -0.4995 -0.4812
13009SOL    HW145885   9.686  11.871   1.077  1.5463 -0.4686 -0.3700
13009SOL    HW245886   9.670  11.933   0.940 -0.2856 -0.7546 -0.3140
13010SOL     OW45887   1.545   4.577   4.490  0.0347 -0.4518  0.1062
13010SOL    HW145888   1.549   4.510   4.422  0.0888  1.6652 -2.1055
13010SOL    HW245889   1.451   4.592   4.504  0.0229 -0.9267  0.5764
13011SOL     OW45890   6.735   6.868   5.378 -0.1363  0.2474 -0.1599
13011SOL    HW145891   6.717   6.790   5.324  0.8748  0.0437 -0.2320
13011SOL    HW245892   6.810   6.842   5.432 -0.6950  0.6906  0.8582
13012SOL     OW45893   8.103   3.405   0.350 -0.2368 -0.1643 -0.0053
13012SOL    HW145894   8.116   3.360   0.434 -2.7402 -1.6046 -0.2816
13012SOL    HW245895   8.077   3.494   0.375  0.5242 -0.1255  0.6931
13013SOL     OW45896  12.211   5.423   3.940  0.1064  0.2478  0.6616
13013SOL    HW145897  12.195   5.504   3.891 -0.3839  1.3608  2.5804
13013SOL    HW245898  12.265   5.370   3.881  2.3832  2.8792  0.2193
13014SOL     OW45899  12.115   4.468   5.360  0.1356  0.4994 -0.2864
13014SOL    HW145900  12.160   4.386   5.339 -0.3427 -0.5166  2.3728
13014SOL    HW245901  12.167   4.507   5.430 -2.0634  0.1993  1.5923
13015SOL     OW45902  11.749   3.263   5.017  0.0177 -0.0780 -0.3732
13015SOL    HW145903  11.665   3.216   5.019 -0.0908  0.0659 -1.1217
13015SOL    HW245904  11.726   3.354   5.035  0.3452 -0.4128  2.1003
13016SOL     OW45905  11.367   9.487   8.508 -0.7017  0.1685  0.0058
13016SOL    HW145906  11.349   9.454   8.596  0.9928 -0.5501  0.1082
13016SOL    HW245907  11.375   9.582   8.519 -2.2006  0.2956  0.2947
13017SOL     OW45908   2.386  12.291  11.000 -0.0856  0.2860 -0.7336
13017SOL    HW145909   2.430  12.335  11.073 -0.0575 -0.7441 -0.1028
13017SOL    HW245910   2.416  12.337  10.922  1.4437  0.1723 -0.2433
13018SOL     OW45911   7.119  11.116   7.084  0.1018 -0.2239  0.1107
13018SOL    HW145912   7.147  11.190   7.137  2.1605 -1.6801  1.1975
13018SOL    HW245913   7.198  11.089   7.037 -0.5661 -1.7274 -0.2133
13019SOL     OW45914   9.642   9.061   4.336  0.0311  0.1708 -0.1980
13019SOL    HW145915   9.703   9.097   4.400  0.1743 -1.5440  0.6897
13019SOL    HW245916   9.698   9.038   4.261  0.8257 -2.7127  1.1559
13020SOL     OW45917   9.908   5.751  11.310  0.7819 -0.0409 -0.2158
13020SOL    HW145918   9.833   5.774  11.256 -0.2265  0.3781  1.3084
13020SOL    HW245919   9.929   5.661  11.285 -1.0460 -0.6199  0.1962
13021SOL     OW45920  12.036  11.129  11.143  0.6669  0.2091 -0.0228
13021SOL    HW145921  12.041  11.224  11.136 -2.0454  0.3379 -1.4413
13021SOL    HW245922  12.054  11.097  11.055 -2.4455 -0.2552 -0.5942
13022SOL     OW45923   4.466   9.371   8.634 -0.2349  0.1496 -0.3490
13022SOL    HW145924   4.455   9.299   8.697 -1.0420 -0.6246 -1.3448
13022SOL    HW245925   4.557   9.366   8.607 -0.4045 -0.8475 -0.7935
13023SOL     OW45926   3.082   1.592   5.243  0.3954 -0.0049 -0.6405
13023SOL    HW145927   3.160   1.627   5.287  0.8245  0.2780 -1.6019
13023SOL    HW245928   3.065   1.653   5.172 -1.7481  0.9065  0.5662
13024SOL     OW45929   0.144   3.582   2.072 -0.0241  0.6157 -0.3867
13024SOL    HW145930   0.149   3.676   2.057  0.0688  0.5690 -0.6595
13024SOL    HW245931   0.105   3.573   2.159 -0.1787  0.9016 -0.4264
13025SOL     OW45932   5.652   0.329   2.934 -0.1188  0.7527  0.1252
13025SOL    HW145933   5.688   0.355   3.018  0.6360  0.8885 -0.2326
13025SOL    HW245934   5.557   0.344   2.942 -0.4113 -1.3755  1.7466
13026SOL     OW45935   1.358  11.380  11.299  0.2476  0.6154 -0.1275
13026SOL    HW145936   1.435  11.322  11.300  0.0476  0.3431  0.7370
13026SOL    HW245937   1.345  11.403  11.391  0.2279  1.9287 -0.4388
13027SOL     OW45938   0.097   5.038   5.799 -0.0992 -0.2170 -0.0950
13027SOL    HW145939   0.047   5.012   5.876  0.8096  0.2915  0.6888
13027SOL    HW245940   0.105   4.958   5.747 -1.0265 -0.4816  0.1482
13028SOL     OW45941   9.428  10.554  12.485  0.3498 -0.7918 -0.2151
13028SOL    HW145942   9.510  10.595  12.458 -0.6267  0.8734 -0.8148
13028SOL    HW245943   9.426  10.563  12.580  0.0633  0.8457 -0.3435
13029SOL     OW45944   3.920   2.071   8.521  0.1441  0.2926  0.4054
13029SOL    HW145945   3.909   1.983   8.485  2.8778 -0.6145  1.5495
13029SOL    HW245946   3.875   2.069   8.605  0.7153 -0.2451  0.7058
13030SOL     OW45947   8.480   7.503  11.078 -0.3311 -0.3119  0.2483
13030SOL    HW145948   8.445   7.449  11.007 -0.8252  0.8892 -0.4465
13030SOL    HW245949   8.451   7.592  11.057  2.7726  0.7061 -0.1441
13031SOL     OW45950   3.819  10.063   3.485  0.4520 -0.1960 -0.0424
13031SOL    HW145951   3.796   9.970   3.476 -0.8384  0.0482  0.5521
13031SOL    HW245952   3.879  10.065   3.560 -0.0835 -0.4819  0.4061
13032SOL     OW45953   7.816  10.801   7.582 -0.0570 -0.1522  0.1607
13032SOL    HW145954   7.908  10.828   7.586 -0.5914  1.7209  0.5932
13032SOL    HW245955   7.808  10.755   7.499  1.2743 -0.3813  0.1374
13033SOL     OW45956   1.011  10.684   9.070 -0.4557  0.4107  0.2035
13033SOL    HW145957   0.927  10.710   9.034 -0.2324 -0.1928 -0.7801
13033SOL    HW245958   0.991  10.657   9.160 -0.9258  2.4716  0.7751
13034SOL     OW45959  12.295  12.552   6.762  0.2522 -0.5669  0.4334
13034SOL    HW145960  12.358  12.496   6.717  1.0298 -0.9198  1.9078
13034SOL    HW245961  12.212  12.536   6.717  0.2373 -3.5702  1.2786
13035SOL     OW45962   8.931  11.556  12.125 -0.2180 -0.2448 -0.6571
13035SOL    HW145963   8.934  11.628  12.062  0.3967 -0.5628 -1.0000
13035SOL    HW245964   9.022  11.531  12.137 -0.2393  0.3525  0.9928
13036SOL     OW45965   6.427  10.780   5.795 -0.0826 -0.1472  0.1919
13036SOL    HW145966   6.432  10.865   5.839  0.8903  1.0177 -1.9930
13036SOL    HW245967   6.493  10.726   5.839 -1.9895 -0.4874  2.8555
13037SOL     OW45968   8.653   8.362   5.169  0.1394  0.0328 -0.0181
13037SOL    HW145969   8.646   8.319   5.084  2.7799 -0.6887  0.0509
13037SOL    HW245970   8.627   8.295   5.232 -2.6068  0.8094 -0.2065
13038SOL     OW45971   4.581   7.818  11.764  0.1595  0.3950 -0.3012
13038SOL    HW145972   4.519   7.764  11.716 -0.8046  1.6878 -0.5765
13038SOL    HW245973   4.612   7.763  11.836 -1.7703 -0.0989  0.1945
13039SOL     OW45974   5.118   7.896   2.285 -0.4866  0.4341  0.5646
13039SOL    HW145975   5.206   7.869   2.256 -0.3915 -0.3727  1.5782
13039SOL    HW245976   5.091   7.961   2.219  0.9810  0.9143  0.3920
13040SOL     OW45977   5.987   3.917   6.672  0.9612 -0.4695  0.9784
13040SOL    HW145978   5.909   3.926   6.618  0.8541  0.0639  1.2120
13040SOL    HW245979   6.059   3.916   6.609  0.6897 -2.6843  0.6388
13041SOL     OW45980   3.752   3.903   0.398  0.3137 -0.1360 -0.0156
13041SOL    HW145981   3.678   3.963   0.410  0.9838  0.7863 -0.4047
13041SOL    HW245982   3.814   3.925   0.467 -0.1097 -1.4748  0.8325
13042SOL     OW45983   1.960   1.517   7.204  0.0975  0.1907 -0.1494
13042SOL    HW145984   1.994   1.429   7.222 -0.2511 -0.1947 -1.2303
13042SOL    HW245985   1.930   1.512   7.113  0.9649  1.7255 -0.5435
13043SOL     OW45986   2.434   9.960  10.794 -0.3025 -0.0622 -0.2994
13043SOL    HW145987   2.343   9.934  10.783 -0.8537  1.5714  0.1511
13043SOL    HW245988   2.437  10.051  10.764  1.0129  0.1538  0.4223
13044SOL     OW45989   6.605   1.246   0.903 -0.1489  0.3348 -0.0256
13044SOL    HW145990   6.550   1.187   0.851  0.0678  0.3564 -0.2819
13044SOL    HW245991   6.695   1.217   0.886 -0.0736  0.3671  0.3089
13045SOL     OW45992   1.092  11.078   0.373  0.3216 -0.0846  0.1942
13045SOL    HW145993   1.042  10.999   0.352 -0.5375  0.3298  0.6598
13045SOL    HW245994   1.144  11.053   0.449  1.1916 -0.6559 -0.5641
13046SOL     OW45995   8.559  11.455   3.423 -0.1041 -0.1055 -0.3510
13046SOL    HW145996   8.600  11.534   3.389 -0.2197  0.6107  1.1188
13046SOL    HW245997   8.467  11.461   3.398 -0.2136  0.4840  0.1731
13047SOL     OW45998   5.223  10.140  11.493  0.5522 -0.3649  0.8765
13047SOL    HW145999   5.239  10.187  11.575  1.7060 -0.0426  0.4894
13047SOL    HW246000   5.148  10.083  11.513  0.0328  0.5769  1.7839
13048SOL     OW46001   7.377   4.381   2.478  0.3836  0.2606 -0.2995
13048SOL    HW146002   7.364   4.340   2.393  2.0681  0.2578 -0.5828
13048SOL    HW246003   7.431   4.319   2.527 -1.6823 -0.3960  1.3257
13049SOL     OW46004   9.943   2.496   6.724  0.0554 -0.0219 -0.3256
13049SOL    HW146005  10.031   2.534   6.718  0.0408  0.8707  3.0322
13049SOL    HW246006   9.957   2.409   6.761 -0.4496 -0.1045 -0.3253
13050SOL     OW46007   8.810   0.127   0.649 -0.1118  0.1646  0.2389
13050SOL    HW146008   8.850   0.122   0.736 -0.5319 -0.9230  0.3979
13050SOL    HW246009   8.844   0.207   0.611  0.5077  0.3794  1.2019
13051SOL     OW46010   5.470   7.814   1.835 -0.3384 -0.0665 -0.3217
13051SOL    HW146011   5.501   7.850   1.918 -1.2483 -0.2034  0.0891
13051SOL    HW246012   5.382   7.851   1.825 -0.5181 -0.6348 -0.8567
13052SOL     OW46013   8.112   7.300  12.330 -0.0605  0.0212  0.2124
13052SOL    HW146014   8.105   7.315  12.235  0.3196 -1.5907 -0.0952
13052SOL    HW246015   8.022   7.285  12.358  0.0530 -2.0889 -0.3954
13053SOL     OW46016   5.284   6.981   0.363 -0.1041 -0.3631 -0.0424
13053SOL    HW146017   5.312   6.937   0.443 -0.6633  1.2785  1.0974
13053SOL    HW246018   5.359   7.035   0.338  0.3609 -1.4436 -1.1104
13054SOL     OW46019   0.446   4.247   4.085 -0.6947  0.4338 -0.4862
13054SOL    HW146020   0.489   4.162   4.090 -0.4972  0.5558  0.0158
13054SOL    HW246021   0.377   4.243   4.151  0.3922  1.2415  0.7805
13055SOL     OW46022   9.786   7.508   7.297 -0.3937 -0.2977  0.4803
13055SOL    HW146023   9.694   7.486   7.310 -0.1466 -1.2040  0.7263
13055SOL    HW246024   9.831   7.475   7.375  0.5548 -2.4400 -0.8615
13056SOL     OW46025   6.914   6.528   4.846  0.1755  0.3682 -0.3227
13056SOL    HW146026   6.961   6.521   4.929  0.7482 -0.9944 -0.7259
13056SOL    HW246027   6.826   6.554   4.870  0.5341  0.7224  0.6495
13057SOL     OW46028  12.188   8.439   8.827 -0.1686 -0.3529 -0.4737
13057SOL    HW146029  12.136   8.375   8.779  0.0707 -0.6496 -0.3375
13057SOL    HW246030  12.204   8.399   8.912  0.0314 -0.1384 -0.4092
13058SOL     OW46031   2.042   2.727   0.242  0.0457 -0.4434  0.0170
13058SOL    HW146032   2.091   2.806   0.218  0.7971 -0.5013  1.2552
13058SOL    HW246033   2.081   2.657   0.190 -1.0449  0.0860 -1.5604
13059SOL     OW46034   2.828   7.185   6.764  0.0941  0.2293 -0.2270
13059SOL    HW146035   2.747   7.168   6.814  0.7199 -0.4156  0.5995
13059SOL    HW246036   2.800   7.187   6.673 -0.4016 -3.4427 -0.3212
13060SOL     OW46037   8.432   7.774  11.985 -0.6013 -0.1527 -0.4280
13060SOL    HW146038   8.388   7.835  11.926  1.7109  0.0900 -2.0189
13060SOL    HW246039   8.479   7.830  12.048 -0.3085 -0.3336 -0.4815
13061SOL     OW46040   5.383   0.357   9.304  0.0288 -0.2706  0.4143
13061SOL    HW146041   5.368   0.317   9.389 -2.1178  2.0057  1.2472
13061SOL    HW246042   5.405   0.284   9.246  2.0237 -1.8370  2.9346
13062SOL     OW46043   6.960   4.914   7.644  0.3664 -0.2494  0.3869
13062SOL    HW146044   7.039   4.912   7.590  0.7782  0.8342  0.9194
13062SOL    HW246045   6.911   4.990   7.612  1.6722  1.8362  2.8922
13063SOL     OW46046   9.784  10.396   4.185  0.0681  0.0719  1.2855
13063SOL    HW146047   9.709  10.421   4.240 -0.2763  2.6738 -0.1986
13063SOL    HW246048   9.839  10.474   4.184  1.2457 -0.7362 -0.1693
13064SOL     OW46049   4.570   2.265   3.926  0.0672  0.1127  0.0869
13064SOL    HW146050   4.634   2.274   3.996  1.1190 -2.3242 -0.4279
13064SOL    HW246051   4.558   2.353   3.892  0.9554  1.0580  2.0913
13065SOL     OW46052   8.688   4.338  11.045 -0.0673 -0.5629 -0.0418
13065SOL    HW146053   8.726   4.412  10.998 -0.5366 -0.3076 -0.0287
13065SOL    HW246054   8.673   4.272  10.977  0.5154 -0.7161 -0.0239
13066SOL     OW46055   4.547  10.726   5.404  0.3662 -0.3332  0.0434
13066SOL    HW146056   4.455  10.699   5.412  0.5086 -1.2449 -1.1828
13066SOL    HW246057   4.547  10.818   5.431 -0.9235 -0.2782 -0.0687
13067SOL     OW46058   4.838   4.594   7.828  0.4875 -0.2494 -0.2544
13067SOL    HW146059   4.879   4.537   7.763 -0.0174 -0.6272 -0.2488
13067SOL    HW246060   4.749   4.560   7.837 -0.3471  1.4961 -1.4049
13068SOL     OW46061   2.878   5.509   2.850 -0.4024  0.9500 -0.1918
13068SOL    HW146062   2.953   5.474   2.802 -0.9569  0.8453 -1.0160
13068SOL    HW246063   2.914   5.540   2.933  0.1820 -1.2728  0.4501
13069SOL     OW46064  11.304   5.046  11.870  0.1393 -0.2524  0.4597
13069SOL    HW146065  11.266   4.964  11.839  0.8688  0.0609 -1.4183
13069SOL    HW246066  11.232   5.110  11.863 -0.0107 -0.4154  0.4986
13070SOL     OW46067   9.700   1.033   0.942 -0.3070 -0.8527  0.2190
13070SOL    HW146068   9.752   0.970   0.893  0.5833 -0.3539  0.5021
13070SOL    HW246069   9.656   1.086   0.874  1.2828  0.1409 -0.0955
13071SOL     OW46070   4.816   5.322   7.287  0.0429  0.1084  0.0296
13071SOL    HW146071   4.773   5.330   7.202  1.2193  1.4282 -0.4854
13071SOL    HW246072   4.764   5.257   7.334 -1.3694  0.2598 -1.2340
13072SOL     OW46073   9.864  10.343   0.503 -0.3499  0.1714  0.3999
13072SOL    HW146074   9.864  10.382   0.590 -1.0361 -0.8696  0.8935
13072SOL    HW246075   9.812  10.263   0.513 -0.6411  0.1545 -1.0163
13073SOL     OW46076   0.389  10.080  11.754 -0.9921  0.1478 -0.2254
13073SOL    HW146077   0.321  10.144  11.773  1.4671  1.9804  3.5406
13073SOL    HW246078   0.370  10.007  11.813  0.1354  0.5896  0.7102
13074SOL     OW46079   0.784   7.347   5.920  0.2610 -0.6931  0.0222
13074SOL    HW146080   0.712   7.393   5.962  0.2648  0.3395 -1.0365
13074SOL    HW246081   0.747   7.313   5.838  0.5001 -1.8011  0.3599
13075SOL     OW46082   4.537   2.539   9.255 -0.0818 -0.1881 -0.5428
13075SOL    HW146083   4.469   2.476   9.279 -0.2866  0.1702 -0.1514
13075SOL    HW246084   4.554   2.523   9.163  0.3935 -1.3043 -0.2781
13076SOL     OW46085   0.740   8.209   9.429 -0.1668 -0.3857  0.0840
13076SOL    HW146086   0.743   8.150   9.504 -0.1023 -1.1339 -0.4933
13076SOL    HW246087   0.705   8.156   9.358 -0.3676  0.3525 -0.3826
13077SOL     OW46088   3.523   4.403  10.545 -0.0442  0.4614 -0.0555
13077SOL    HW146089   3.554   4.321  10.584 -1.0784  0.6864  1.3280
13077SOL    HW246090   3.589   4.468  10.570  0.2346  0.2583 -0.2567
13078SOL     OW46091   0.850   5.542   0.674 -0.2074 -0.1833  0.0097
13078SOL    HW146092   0.828   5.516   0.763  0.1424  0.0798  0.1753
13078SOL    HW246093   0.781   5.504   0.620 -0.7503  0.1550  0.4579
13079SOL     OW46094   4.459   5.365   4.795  0.1481  0.3628 -0.1399
13079SOL    HW146095   4.514   5.294   4.761 -0.6777  0.0417 -0.8376
13079SOL    HW246096   4.436   5.417   4.718 -1.1221  0.0675  0.0118
13080SOL     OW46097   5.560  10.763   7.211 -0.1142 -0.1206 -0.0846
13080SOL    HW146098   5.506  10.839   7.232 -0.1393 -0.3160  0.5813
13080SOL    HW246099   5.587  10.777   7.120  2.8942  2.5220  1.0353
13081SOL     OW46100   2.040   5.374   7.011  0.3145 -0.0083 -0.0734
13081SOL    HW146101   2.080   5.324   7.083  1.5181  0.5727 -0.3169
13081SOL    HW246102   2.039   5.464   7.043  0.4728  0.1878 -0.6142
13082SOL     OW46103  11.525   6.051   1.425 -0.0188 -0.5686 -0.1984
13082SOL    HW146104  11.469   5.985   1.468  2.0426 -2.0787  0.3243
13082SOL    HW246105  11.498   6.134   1.464 -2.4907 -1.0842 -0.6443
13083SOL     OW46106   9.860   4.061  11.469 -0.7014  0.1338  0.2253
13083SOL    HW146107   9.925   4.052  11.400 -0.9530  0.4074 -0.0476
13083SOL    HW246108   9.904   4.112  11.537 -0.3035 -0.5175  0.4683
13084SOL     OW46109  11.852   0.571   2.800 -0.0778  0.0972  0.1386
13084SOL    HW146110  11.936   0.560   2.756 -0.7136 -2.3825 -0.5688
13084SOL    HW246111  11.805   0.635   2.747  1.6927  2.4278  1.1794
13085SOL     OW46112   7.906  12.367   2.126 -0.1292  0.2745  0.1264
13085SOL    HW146113   7.935  12.367   2.035  0.1171  0.6755  0.2039
13085SOL    HW246114   7.985  12.346   2.177 -0.9247 -3.6636  0.0689
13086SOL     OW46115   5.425  11.849   9.284 -0.2348  0.0793  0.0500
13086SOL    HW146116   5.354  11.845   9.349 -0.8904 -0.3108 -0.6775
13086SOL    HW246117   5.481  11.775   9.306  0.1988  0.6382  0.8953
13087SOL     OW46118   9.195   5.823   8.055 -0.2828 -0.0968 -0.4819
13087SOL    HW146119   9.188   5.792   7.965 -1.2458  1.9949 -1.1961
13087SOL    HW246120   9.238   5.752   8.102  0.4085 -1.1718 -2.6242
13088SOL     OW46121   9.207   4.066   0.304 -0.4907 -0.1183  0.3396
13088SOL    HW146122   9.294   4.050   0.341  0.2256 -0.5701 -1.4454
13088SOL    HW246123   9.186   4.156   0.331  0.1280 -0.3090  1.5199
13089SOL     OW46124   6.755   1.087   2.665  0.1403 -0.7715 -0.1509
13089SOL    HW146125   6.712   1.035   2.597 -1.4840 -0.3150  0.4760
13089SOL    HW246126   6.691   1.155   2.687  1.4008  0.2379  0.5033
13090SOL     OW46127   1.084   4.612  10.831 -0.4295 -0.5142 -0.5585
13090SOL    HW146128   1.148   4.683  10.818 -1.4839  0.5947  0.1284
13090SOL    HW246129   1.077   4.570  10.745  0.7535 -0.2622 -0.7957
13091SOL     OW46130   8.036   5.421   5.126 -0.0110 -0.1471  0.2541
13091SOL    HW146131   8.098   5.479   5.170  0.0125  0.3241 -0.3858
13091SOL    HW246132   8.030   5.455   5.037  0.9237 -1.8379 -0.5043
13092SOL     OW46133   4.215   4.764   7.565 -0.2462 -0.7818 -0.5685
13092SOL    HW146134   4.206   4.843   7.513 -0.9447  0.2281  1.0132
13092SOL    HW246135   4.159   4.778   7.641  2.2439 -1.2594  1.5133
13093SOL     OW46136   5.600   7.746   5.891 -0.1400 -0.3724 -0.3598
13093SOL    HW146137   5.681   7.740   5.942 -0.3104 -0.7026 -0.1201
13093SOL    HW246138   5.625   7.788   5.809  0.1571  0.0916 -0.0331
13094SOL     OW46139   9.413   4.359   6.144  0.5992 -0.1954  0.1102
13094SOL    HW146140   9.465   4.427   6.101 -0.5378 -0.0327 -1.0555
13094SOL    HW246141   9.376   4.401   6.222 -1.3286  1.0397 -1.3902
13095SOL     OW46142   7.055   8.917  11.379  0.0302  0.8052 -0.0489
13095SOL    HW146143   7.068   8.847  11.442 -0.6727 -0.8164 -1.6140
13095SOL    HW246144   7.142   8.956  11.367  0.3946  0.3182  0.9660
13096SOL     OW46145   1.400   4.199  10.192  0.6035  0.4015  0.1235
13096SOL    HW146146   1.455   4.134  10.236  0.2242  0.2473  0.3743
13096SOL    HW246147   1.340   4.229  10.260  0.0498  0.2033 -0.2748
13097SOL     OW46148   5.945   9.141   4.850  0.3948 -0.4819 -0.4539
13097SOL    HW146149   5.996   9.104   4.923 -0.2085  1.9205  1.3308
13097SOL    HW246150   5.855   9.141   4.882  0.0759  0.3562 -1.3187
13098SOL     OW46151   4.793   6.526   3.165 -0.1440  0.4871 -0.4860
13098SOL    HW146152   4.821   6.447   3.118  1.5084  1.6213 -1.5529
13098SOL    HW246153   4.871   6.553   3.213 -0.5231  1.7460 -0.5602
13099SOL     OW46154   7.922  11.368   9.446  0.5382 -0.3580 -0.9282
13099SOL    HW146155   7.900  11.413   9.365  2.2111  0.6049 -0.8949
13099SOL    HW246156   7.895  11.277   9.431 -0.6482  0.1267 -1.9250
13100SOL     OW46157   7.182  10.531  12.320  0.3824 -0.5283  0.0997
13100SOL    HW146158   7.120  10.549  12.249  0.1651 -1.9467 -0.0911
13100SOL    HW246159   7.262  10.504  12.276  0.5449 -0.5193  0.3860
13101SOL     OW46160   4.829  11.040  11.408  0.0786  0.1138 -0.5180
13101SOL    HW146161   4.791  11.010  11.325 -0.8432  0.2559 -0.1592
13101SOL    HW246162   4.883  11.116  11.383 -1.6678  1.3235 -0.7722
13102SOL     OW46163  10.856   1.900  10.202 -0.4991 -0.2844  0.2148
13102SOL    HW146164  10.856   1.900  10.297 -0.0785  1.5429  0.2466
13102SOL    HW246165  10.948   1.900  10.177 -0.5206  2.1647 -0.0975
13103SOL     OW46166   5.216  12.320   9.745 -0.0831 -0.2445 -0.5601
13103SOL    HW146167   5.240  12.410   9.764 -0.5730 -0.2782  0.3031
13103SOL    HW246168   5.148  12.299   9.809 -0.1056 -1.1666 -0.8603
13104SOL     OW46169   5.866   7.088   0.583 -0.0116  0.4743  0.7007
13104SOL    HW146170   5.856   6.998   0.552 -2.5683  0.9927 -0.2353
13104SOL    HW246171   5.927   7.082   0.656 -1.8488 -2.3736  2.1623
13105SOL     OW46172   7.737   7.212   6.591 -0.3000  0.3209  0.4042
13105SOL    HW146173   7.780   7.276   6.648  0.6834 -0.4861  0.5958
13105SOL    HW246174   7.756   7.243   6.502 -2.1076  1.7618  0.4482
13106SOL     OW46175   7.471   0.937  11.901  0.3602  0.0884 -0.2413
13106SOL    HW146176   7.479   0.930  11.806 -0.5071  2.0950 -0.5289
13106SOL    HW246177   7.377   0.950  11.916  0.1677 -2.3241  1.1136
13107SOL     OW46178  11.320   0.321   3.957 -0.1170 -0.2443 -0.0577
13107SOL    HW146179  11.240   0.373   3.945 -0.2364 -0.8572 -2.2989
13107SOL    HW246180  11.391   0.383   3.943 -0.0229  0.7242  3.6359
13108SOL     OW46181   8.087   9.278   6.466  0.3270 -0.3691 -0.0847
13108SOL    HW146182   8.083   9.355   6.410  1.9655 -1.1694 -1.3851
13108SOL    HW246183   8.036   9.211   6.420 -0.7597 -0.2066  0.8426
13109SOL     OW46184   7.773   0.516  11.784 -0.1530  0.1266 -0.6476
13109SOL    HW146185   7.695   0.472  11.751  0.2063 -0.6443 -0.5088
13109SOL    HW246186   7.844   0.453  11.769  0.4348  0.7857 -0.7172
13110SOL     OW46187   3.803  10.158  11.661  0.0407  0.1780 -0.6123
13110SOL    HW146188   3.855  10.235  11.637  1.7783 -1.2630 -1.7302
13110SOL    HW246189   3.802  10.160  11.757 -0.9112  2.1437 -0.5978
13111SOL     OW46190   9.326   4.743  10.967  0.1516  0.0919  0.2507
13111SOL    HW146191   9.342   4.673  10.904 -1.5749 -1.0918  1.0331
13111SOL    HW246192   9.283   4.812  10.915  1.7487  0.5661 -0.4981
13112SOL     OW46193   3.814   4.380   5.481 -0.4342  0.6295 -0.3340
13112SOL    HW146194   3.722   4.405   5.480 -0.2215  1.4518 -1.1569
13112SOL    HW246195   3.835   4.366   5.573 -1.8631 -1.4969 -0.2751
13113SOL     OW46196   7.376   4.604   6.489 -0.2640 -0.4795 -0.1710
13113SOL    HW146197   7.398   4.638   6.576  1.2130 -0.1883 -0.6298
13113SOL    HW246198   7.324   4.674   6.449 -1.5055 -0.8776  0.6825
13114SOL     OW46199   9.153   7.907   7.910  0.1140 -0.1621 -0.0750
13114SOL    HW146200   9.065   7.921   7.945 -0.6824 -2.7608 -0.7669
13114SOL    HW246201   9.166   7.812   7.917  3.0677  0.1929  0.4117
13115SOL     OW46202   9.928   9.321  11.920  0.2045 -0.0226 -0.3759
13115SOL    HW146203   9.913   9.229  11.944  1.3861 -0.2824 -0.5630
13115SOL    HW246204  10.021   9.325  11.898 -0.0475  1.0066 -1.3636
13116SOL     OW46205   0.357  10.442   4.080  0.7924 -0.2887  0.1233
13116SOL    HW146206   0.378  10.421   4.172 -1.8912  2.2486  1.4709
13116SOL    HW246207   0.393  10.529   4.067 -0.8984  0.3604 -0.4092
13117SOL     OW46208   9.208   1.031   2.914 -0.1233 -0.0116  0.2324
13117SOL    HW146209   9.222   1.126   2.922  3.2693 -0.4822  1.1919
13117SOL    HW246210   9.185   1.003   3.003 -1.4032 -0.1122 -0.1061
13118SOL     OW46211   6.315   9.880   8.559 -0.1503  0.2945  0.5101
13118SOL    HW146212   6.221   9.864   8.549  0.0884 -0.7761 -0.1844
13118SOL    HW246213   6.321   9.951   8.623 -1.4371  0.5219  0.3964
13119SOL     OW46214   7.760   3.402   9.302  0.1386 -0.6116  0.2594
13119SOL    HW146215   7.823   3.411   9.374 -0.0508 -0.4796  0.4088
13119SOL    HW246216   7.678   3.438   9.337 -0.2351 -1.5204  0.3436
13120SOL     OW46217   7.291   9.551   2.173 -0.5287  0.7244  0.5450
13120SOL    HW146218   7.330   9.603   2.103 -0.6744 -0.3540 -0.3733
13120SOL    HW246219   7.264   9.470   2.130  0.0590 -0.2799  1.9986
13121SOL     OW46220   3.614   1.528   8.921  0.6545  0.7660  0.5910
13121SOL    HW146221   3.530   1.489   8.895  0.2037  0.7362  1.9696
13121SOL    HW246222   3.680   1.475   8.878 -0.0243  1.1729 -1.0382
13122SOL     OW46223   3.570   5.935   3.770 -0.2507  0.1156  0.4132
13122SOL    HW146224   3.561   5.856   3.717 -0.9204 -0.3325  1.1606
13122SOL    HW246225   3.650   5.920   3.821 -0.8921 -0.5304  1.2581
13123SOL     OW46226   4.501   1.850  11.515 -0.2510  0.0918 -0.3008
13123SOL    HW146227   4.526   1.791  11.444 -0.5869 -2.7638  1.7744
13123SOL    HW246228   4.580   1.861  11.567 -0.6875 -0.2049  0.4411
13124SOL     OW46229  10.428   9.441   2.632  0.3844 -0.0208  0.2058
13124SOL    HW146230  10.371   9.459   2.707 -1.6262  0.8778 -1.4269
13124SOL    HW246231  10.478   9.364   2.658 -0.0091  0.4526  2.5716
13125SOL     OW46232  11.944   7.399   8.075 -0.0552 -0.2626  0.6964
13125SOL    HW146233  11.892   7.473   8.105  1.6335  0.3698  2.2396
13125SOL    HW246234  12.023   7.438   8.037 -0.9745 -1.1530 -2.4322
13126SOL     OW46235   9.563  10.688   6.491  0.2142 -0.1119  0.0496
13126SOL    HW146236   9.558  10.724   6.580  0.7070  1.0914 -0.3923
13126SOL    HW246237   9.483  10.719   6.448  0.0285 -0.6049  0.0328
13127SOL     OW46238   1.276   9.073  12.043 -0.0806  0.2418  0.2143
13127SOL    HW146239   1.251   8.982  12.024 -1.2703  0.5799  0.1090
13127SOL    HW246240   1.283   9.114  11.957 -1.4052  0.7263  0.3287
13128SOL     OW46241   4.636   6.595   3.929 -0.3945 -0.4997 -0.4762
13128SOL    HW146242   4.681   6.672   3.963 -1.1788 -0.6818  1.0620
13128SOL    HW246243   4.553   6.593   3.977 -1.5923 -0.7878 -2.4366
13129SOL     OW46244   2.950  10.893   6.991 -0.0231  0.1331  0.8969
13129SOL    HW146245   2.877  10.874   7.050 -0.6111 -2.1972 -0.4769
13129SOL    HW246246   3.011  10.820   7.005 -0.3263 -0.6773 -1.5122
13130SOL     OW46247   0.804  11.120   4.675  0.3522 -0.2243 -0.2248
13130SOL    HW146248   0.761  11.080   4.750  1.7619 -1.3497  0.0484
13130SOL    HW246249   0.775  11.211   4.675 -0.0351 -0.3247  1.4122
13131SOL     OW46250   7.969   7.283   1.135  0.0471  0.2095  0.0390
13131SOL    HW146251   7.878   7.312   1.124  0.5858  2.6443  1.2130
13131SOL    HW246252   8.014   7.315   1.057 -0.2173 -1.9015 -1.0563
13132SOL     OW46253   8.761   4.727   3.889  0.0774  0.3224 -0.6239
13132SOL    HW146254   8.730   4.806   3.934  1.2021  0.2879  0.2771
13132SOL    HW246255   8.749   4.746   3.796 -2.3774  0.3768 -0.3509
13133SOL     OW46256   5.228   4.360   6.375  0.8924  0.3136 -0.1560
13133SOL    HW146257   5.248   4.431   6.435 -0.1423  1.2794 -0.9114
13133SOL    HW246258   5.192   4.403   6.298 -2.2283 -1.1168  0.3380
13134SOL     OW46259   9.341   3.244   7.578  0.2985 -0.3623  0.5142
13134SOL    HW146260   9.397   3.209   7.647 -0.4061 -2.3212  0.1273
13134SOL    HW246261   9.309   3.168   7.530 -0.6848  0.8436 -0.8690
13135SOL     OW46262  11.809  10.249   9.762  0.3950 -0.1732 -0.0527
13135SOL    HW146263  11.822  10.160   9.730 -0.0441 -0.0689 -0.5215
13135SOL    HW246264  11.811  10.304   9.684 -0.2624  0.1302  0.1382
13136SOL     OW46265   9.891  10.753   3.067 -0.1601 -0.0478 -0.0285
13136SOL    HW146266   9.903  10.840   3.105 -1.2762 -0.6966  1.9203
13136SOL    HW246267   9.811  10.761   3.015 -1.6334 -0.4530  2.0712
13137SOL     OW46268  11.133   4.558   1.301 -0.2522  0.0664 -0.1099
13137SOL    HW146269  11.212   4.570   1.354 -0.1543  1.9613 -0.6375
13137SOL    HW246270  11.063   4.597   1.354 -0.6096 -0.3699 -0.2546
13138SOL     OW46271   4.351   7.583   5.724  0.3005  0.0237  0.5110
13138SOL    HW146272   4.281   7.579   5.658  0.5337  0.7430  0.2124
13138SOL    HW246273   4.419   7.524   5.691  0.3015  0.1710  0.2501
13139SOL     OW46274   6.285   2.966   6.939  0.1031  0.0132  0.1437
13139SOL    HW146275   6.326   2.943   7.023 -0.8554  0.5421  0.7695
13139SOL    HW246276   6.316   2.899   6.878 -0.0964 -1.0544  1.1892
13140SOL     OW46277   9.059   8.545  12.183 -0.2123 -0.1741  0.2111
13140SOL    HW146278   9.063   8.639  12.200 -0.9904 -0.3502  1.4918
13140SOL    HW246279   8.989   8.535  12.119  0.2858  0.1695 -0.3929
13141SOL     OW46280   1.892   4.354  11.483  0.0915  0.0473  0.6523
13141SOL    HW146281   1.837   4.361  11.562  0.4195  0.5168  0.8401
13141SOL    HW246282   1.982   4.354  11.516  0.2995  1.7894  0.2079
13142SOL     OW46283   8.897   3.175  11.934 -0.1458 -0.0904  0.1324
13142SOL    HW146284   8.962   3.105  11.938  0.0815  0.1582  1.4949
13142SOL    HW246285   8.948   3.255  11.922 -0.2922 -0.0185 -0.0127
13143SOL     OW46286   5.676  11.606   0.722  0.0432  0.3074  0.0762
13143SOL    HW146287   5.644  11.688   0.759 -0.6836 -0.2119  0.6244
13143SOL    HW246288   5.663  11.615   0.628  2.0361  1.6982 -0.1368
13144SOL     OW46289   0.708   7.358   7.318 -0.0861  0.0506  0.6205
13144SOL    HW146290   0.763   7.283   7.340  0.5983  0.9458  2.0817
13144SOL    HW246291   0.703   7.356   7.222 -0.4792 -2.0999  0.6383
13145SOL     OW46292   5.251   0.102   6.878  0.3241 -0.0634  0.4574
13145SOL    HW146293   5.159   0.110   6.903 -0.1593  0.2666 -1.2872
13145SOL    HW246294   5.284   0.191   6.877  0.0336  0.0609 -1.0104
13146SOL     OW46295   6.520   2.115   0.104 -0.1122 -0.0898 -0.1134
13146SOL    HW146296   6.558   2.124   0.192 -1.5992 -0.3270  0.5991
13146SOL    HW246297   6.434   2.157   0.112 -0.3928 -0.4077 -1.3761
13147SOL     OW46298   6.788   3.224   5.184  0.2987 -0.1964 -0.2311
13147SOL    HW146299   6.854   3.277   5.229 -0.4716  0.9811 -0.4260
13147SOL    HW246300   6.738   3.183   5.254  1.0783 -0.9160 -0.0810
13148SOL     OW46301   9.892  10.982   9.773  0.2477  0.0495 -0.1424
13148SOL    HW146302   9.841  10.940   9.842  0.4070 -1.2868 -0.8022
13148SOL    HW246303   9.846  11.064   9.755 -1.1112 -0.6612 -0.0481
13149SOL     OW46304  11.199   0.762   0.646  0.6051 -0.5366 -0.2128
13149SOL    HW146305  11.153   0.782   0.727 -2.9412 -0.5149 -2.0186
13149SOL    HW246306  11.261   0.693   0.669 -1.2373 -1.5089  2.2500
13150SOL     OW46307   5.824   1.145   3.897  0.4535  0.0977  0.4553
13150SOL    HW146308   5.873   1.085   3.954 -0.2794 -1.5600 -0.5687
13150SOL    HW246309   5.735   1.109   3.896  0.3949  0.2027 -1.5096
13151SOL     OW46310   6.752   8.856  10.330  0.0115  0.4073 -0.5315
13151SOL    HW146311   6.831   8.823  10.287  1.2347  0.7560  1.3633
13151SOL    HW246312   6.739   8.798  10.405 -2.5360 -0.6634 -1.6720
13152SOL     OW46313   8.577   0.646   2.388 -0.0558  0.4633 -0.4200
13152SOL    HW146314   8.664   0.639   2.349  0.6451  1.0783  0.9532
13152SOL    HW246315   8.593   0.668   2.480 -1.6386 -0.5358  0.1518
13153SOL     OW46316   7.808   3.320  11.132  0.1207 -0.2343 -0.4341
13153SOL    HW146317   7.877   3.342  11.070 -1.0250  1.6100 -1.1476
13153SOL    HW246318   7.737   3.380  11.111 -0.1826  0.8055  2.9510
13154SOL     OW46319   7.161   5.119   4.726  0.6880 -0.0626  0.1038
13154SOL    HW146320   7.219   5.070   4.784  0.6220  1.0359  1.1310
13154SOL    HW246321   7.217   5.185   4.685  0.3270  0.5359  0.5518
13155SOL     OW46322  10.687   5.050   5.524 -0.1560  0.0780  0.3838
13155SOL    HW146323  10.642   4.975   5.485  0.9368 -0.6612  0.5220
13155SOL    HW246324  10.673   5.041   5.618 -0.6507  0.4707  0.3540
13156SOL     OW46325   6.779   7.684   0.196 -0.4479  0.3344  0.4359
13156SOL    HW146326   6.835   7.761   0.187 -1.2183  0.7667 -1.0693
13156SOL    HW246327   6.707   7.713   0.252 -0.5205  0.5841  0.2162
13157SOL     OW46328  12.104  10.494  10.983 -0.2139 -0.0328 -0.2584
13157SOL    HW146329  12.013  10.520  10.967  0.4685  2.7663 -0.1518
13157SOL    HW246330  12.154  10.544  10.919  1.2815 -1.4864 -0.2779
13158SOL     OW46331   8.179  11.308   6.551  0.6157  0.1461 -0.2828
13158SOL    HW146332   8.196  11.395   6.588 -2.2176  0.8770 -0.5121
13158SOL    HW246333   8.197  11.318   6.457 -0.5331  0.7710 -0.4546
13159SOL     OW46334   7.160   9.603   6.894 -0.1358 -0.3668  0.3358
13159SOL    HW146335   7.212   9.595   6.974 -0.1652  0.4608  0.4521
13159SOL    HW246336   7.217   9.569   6.824  0.6053  0.5963  0.4490
13160SOL     OW46337   7.280   4.235   7.192 -0.4224 -0.8454 -0.3733
13160SOL    HW146338   7.224   4.307   7.161  1.4539  0.4727 -0.9051
13160SOL    HW246339   7.219   4.173   7.233 -2.0182  1.7627  1.5265
13161SOL     OW46340  11.081   0.945   2.357 -0.3699 -0.4496  0.7088
13161SOL    HW146341  11.139   0.876   2.389 -1.0859 -0.9390  0.9669
13161SOL    HW246342  11.087   0.939   2.262 -0.3492 -0.8011  0.7297
13162SOL     OW46343   1.649  12.227   4.663 -0.8112 -0.3339 -0.1546
13162SOL    HW146344   1.695  12.230   4.579  1.5373 -0.4192  1.0350
13162SOL    HW246345   1.678  12.145   4.704  1.1189  1.3623  2.2359
13163SOL     OW46346   4.708  11.887   9.392  0.8426 -0.2916 -0.5289
13163SOL    HW146347   4.716  11.792   9.405  1.3741 -0.2418 -0.4494
13163SOL    HW246348   4.798  11.917   9.378  0.6241  0.1284 -1.0859
13164SOL     OW46349  10.117  10.633   1.437 -0.1375 -0.1281  0.0750
13164SOL    HW146350  10.158  10.713   1.469 -1.9325  0.2906  1.4911
13164SOL    HW246351  10.102  10.650   1.344  0.0805  0.9271  0.2134
13165SOL     OW46352   3.354   4.764   2.985 -0.7434 -0.0828  0.1494
13165SOL    HW146353   3.422   4.774   2.918 -3.2622 -2.5207 -3.0817
13165SOL    HW246354   3.395   4.707   3.051  0.2211 -2.1102 -2.0709
13166SOL     OW46355   1.639   1.688  12.449  0.6283  0.2955 -0.2596
13166SOL    HW146356   1.562   1.701  12.503  0.4920 -0.5586 -0.2283
13166SOL    HW246357   1.684   1.772  12.449 -0.9265  1.1831 -1.2714
13167SOL     OW46358   0.121  11.858  11.875 -0.2120 -0.1212  0.3993
13167SOL    HW146359   0.134  11.951  11.890  0.7434 -0.3629  1.1343
13167SOL    HW246360   0.141  11.816  11.959 -0.6631 -0.9860  0.0944
13168SOL     OW46361   2.103   4.193  10.829  0.4413  0.7997 -0.4901
13168SOL    HW146362   2.021   4.171  10.785 -0.4535 -0.0211  1.4829
13168SOL    HW246363   2.097   4.150  10.914  2.5702  1.4187  0.0333
13169SOL     OW46364   9.328  10.274   7.386 -0.6239 -0.5196  0.6005
13169SOL    HW146365   9.349  10.362   7.354 -1.1933 -0.0945  1.3661
13169SOL    HW246366   9.384  10.216   7.334  0.6635  0.3851  0.9417
13170SOL     OW46367   7.334   6.200  11.248  0.1744 -0.2996  0.2404
13170SOL    HW146368   7.357   6.181  11.339  2.2862  0.6217 -0.0524
13170SOL    HW246369   7.384   6.137  11.197 -0.7484 -0.5947 -0.3381
13171SOL     OW46370   5.244  11.387   6.147  0.9244  0.2366 -0.2430
13171SOL    HW146371   5.203  11.473   6.139  0.0263 -0.1892 -0.3690
13171SOL    HW246372   5.297  11.393   6.226  2.6771  1.6094 -1.4213
13172SOL     OW46373   3.390   4.224   4.032 -0.0988  0.0813 -0.0598
13172SOL    HW146374   3.303   4.184   4.031  0.1439 -0.4616 -0.0987
13172SOL    HW246375   3.448   4.154   4.062  0.2046  0.7061  0.8579
13173SOL     OW46376  12.484   1.252   0.264 -0.1793 -0.3539  0.6231
13173SOL    HW146377  12.395   1.287   0.268 -0.9068 -1.7361 -1.5495
13173SOL    HW246378  12.482   1.174   0.320 -0.2524 -0.2253  0.8001
13174SOL     OW46379   6.290   1.107   6.450  0.0749  0.3064  0.3121
13174SOL    HW146380   6.219   1.091   6.388  0.5263 -2.1089  0.3024
13174SOL    HW246381   6.269   1.192   6.490 -1.0972  1.1404 -1.9183
13175SOL     OW46382   2.366   8.098   8.873  0.5776  0.3770  0.2008
13175SOL    HW146383   2.318   8.096   8.790 -0.3156  1.5978  0.6594
13175SOL    HW246384   2.444   8.045   8.857  0.8261  1.2329 -1.6738
13176SOL     OW46385  10.766   7.956   8.756 -0.1401 -0.3545 -0.3901
13176SOL    HW146386  10.759   7.943   8.851 -2.4167  1.7047 -0.2048
13176SOL    HW246387  10.847   8.005   8.745  0.3516 -0.9450  0.4278
13177SOL     OW46388   1.506   9.777   4.555  0.0443 -0.1369 -0.2893
13177SOL    HW146389   1.438   9.742   4.613  0.7462 -1.8995 -0.4596
13177SOL    HW246390   1.458   9.835   4.495 -0.9443  0.4056  0.9733
13178SOL     OW46391  10.927   6.121  11.453 -0.2725 -0.2437  0.3149
13178SOL    HW146392  10.960   6.209  11.435  0.0913 -0.4295  0.0667
13178SOL    HW246393  10.834   6.134  11.474  0.0241  0.3201  1.3341
13179SOL     OW46394   0.969   4.747   7.068  0.0378  0.0418  0.4395
13179SOL    HW146395   0.918   4.828   7.068 -0.5098 -0.2990  0.8857
13179SOL    HW246396   0.960   4.712   7.156  0.6573 -0.2703  0.3853
13180SOL     OW46397   7.697  10.556   8.617 -0.1630 -0.0855  0.4013
13180SOL    HW146398   7.787  10.583   8.635  0.6293 -1.5250 -1.1473
13180SOL    HW246399   7.671  10.507   8.694  0.4645  0.1179  0.7552
13181SOL     OW46400   1.447   4.471   8.087 -0.6038  0.0648 -0.6808
13181SOL    HW146401   1.408   4.556   8.108 -0.7642 -0.5915  2.1085
13181SOL    HW246402   1.432   4.460   7.993 -1.8236  2.4721 -0.8507
13182SOL     OW46403   5.885   4.147   7.320 -0.3035  0.2598  0.4998
13182SOL    HW146404   5.797   4.137   7.285  0.1741 -2.5848 -0.0796
13182SOL    HW246405   5.908   4.238   7.300 -1.8475  0.1303 -2.3032
13183SOL     OW46406   9.001   7.746   6.655  0.3055  0.1213  0.3591
13183SOL    HW146407   9.081   7.760   6.605 -0.1005 -0.5500 -0.4950
13183SOL    HW246408   9.030   7.746   6.747  1.9067 -3.7182  0.0086
13184SOL     OW46409   4.546  11.770   3.181 -0.4882  0.2364 -0.1137
13184SOL    HW146410   4.606  11.818   3.124 -0.6443  0.2794 -0.2451
13184SOL    HW246411   4.522  11.693   3.129 -0.6963  0.3188 -0.1412
13185SOL     OW46412   2.511   9.378  10.167 -0.7907 -0.3205 -0.2175
13185SOL    HW146413   2.473   9.292  10.147 -0.4018 -0.6146  0.3045
13185SOL    HW246414   2.580   9.360  10.230 -1.6863  0.5296  1.0569
13186SOL     OW46415  11.853  12.007   7.321 -0.2650 -0.1637  0.1869
13186SOL    HW146416  11.941  12.009   7.284 -0.2647  2.1048  0.1608
13186SOL    HW246417  11.816  11.925   7.289  1.5279 -0.7571 -0.5087
13187SOL     OW46418  10.715   8.749   8.248  0.6248  0.6059  0.0725
13187SOL    HW146419  10.784   8.708   8.195  2.0191  2.2802  0.5360
13187SOL    HW246420  10.749   8.748   8.337 -1.1078 -0.8982  0.7757
13188SOL     OW46421   7.366   1.811  11.506 -0.2152 -0.1444 -0.3130
13188SOL    HW146422   7.354   1.719  11.530  0.8454 -0.4410 -0.8516
13188SOL    HW246423   7.449   1.836  11.548  0.3521  0.0693 -1.5123
13189SOL     OW46424  12.151   0.735   3.220  0.2636 -0.3139 -0.3338
13189SOL    HW146425  12.074   0.739   3.277  0.7401  0.4832  0.2716
13189SOL    HW246426  12.116   0.706   3.136 -0.7038  0.0202 -0.0675
13190SOL     OW46427   5.038  11.035   1.208 -0.1887 -0.1728  0.2643
13190SOL    HW146428   4.999  10.948   1.221 -0.7300  0.0135 -0.0995
13190SOL    HW246429   5.132  11.020   1.215 -0.2002 -1.0197 -1.0881
13191SOL     OW46430   9.463   1.690  12.113 -0.5054 -0.0019 -0.3790
13191SOL    HW146431   9.388   1.737  12.151 -1.1991 -0.8037 -0.7141
13191SOL    HW246432   9.428   1.603  12.094  0.4782 -0.3280 -0.7105
13192SOL     OW46433   5.788   2.363   3.538  1.0471  0.5350  0.0461
13192SOL    HW146434   5.703   2.362   3.581  1.1284 -2.1983  0.3585
13192SOL    HW246435   5.769   2.335   3.448  1.7690 -2.6869  0.7760
13193SOL     OW46436  12.214   8.092  11.973  0.1229  0.9099 -0.0181
13193SOL    HW146437  12.236   8.079  11.880  2.9801  0.5084  0.6382
13193SOL    HW246438  12.236   8.009  12.015  1.0309  1.8183  1.3671
13194SOL     OW46439   3.987   8.314  11.999  0.6270  0.2706  0.1568
13194SOL    HW146440   3.909   8.285  12.047  0.7966  0.8610  0.8111
13194SOL    HW246441   4.047   8.240  12.004  0.5090  0.2003  0.5711
13195SOL     OW46442  12.486   1.361  10.104 -0.6746 -0.3253 -0.1805
13195SOL    HW146443  12.499   1.314  10.021 -0.4732 -0.1581 -0.2438
13195SOL    HW246444  12.570   1.358  10.148 -1.1373 -1.6420  0.6753
13196SOL     OW46445   7.000   3.930   4.842 -0.0024 -0.5844 -0.2825
13196SOL    HW146446   7.001   3.957   4.934 -0.7115 -1.3839 -0.0312
13196SOL    HW246447   7.078   3.875   4.833  0.4365  0.0341 -0.3368
13197SOL     OW46448   2.774   1.171   3.541  0.8889 -0.3449 -0.0677
13197SOL    HW146449   2.849   1.215   3.582  0.2572 -1.1071  2.0176
13197SOL    HW246450   2.811   1.132   3.461  2.5704 -0.1462  0.5608
13198SOL     OW46451   6.220   5.906   4.597 -0.2305 -0.2639  0.0289
13198SOL    HW146452   6.194   5.989   4.556  0.8332 -0.1132 -0.3800
13198SOL    HW246453   6.263   5.932   4.679  0.4822 -0.3739 -0.3021
13199SOL     OW46454   8.677   8.973   0.178  0.4175 -0.5150 -0.1340
13199SOL    HW146455   8.686   8.880   0.160 -1.3285 -1.0522  1.3880
13199SOL    HW246456   8.766   9.006   0.184  1.0784 -2.2131 -0.1225
13200SOL     OW46457  10.140   5.446   5.268  0.0984 -0.1115  0.1001
13200SOL    HW146458  10.108   5.496   5.343 -0.4851 -1.7573  0.9930
13200SOL    HW246459  10.067   5.445   5.207  0.1458  0.1818  0.0349
13201SOL     OW46460   5.248   0.594   4.540 -0.5720 -0.1205  0.3237
13201SOL    HW146461   5.210   0.509   4.520  0.4161 -1.1213  2.4847
13201SOL    HW246462   5.245   0.641   4.456 -1.8663 -1.9529 -0.7339
13202SOL     OW46463   2.506   3.648   9.687  0.2004  0.3944  0.2772
13202SOL    HW146464   2.546   3.561   9.691  0.0053  0.2813 -0.2030
13202SOL    HW246465   2.420   3.637   9.728  0.6697  0.6533  1.3720
13203SOL     OW46466   0.852   3.031   1.438  0.1648 -0.0785 -0.0879
13203SOL    HW146467   0.903   3.094   1.387  0.4670 -0.2166  0.0400
13203SOL    HW246468   0.791   2.992   1.375  1.7782 -1.6034 -0.7982
13204SOL     OW46469   4.585   5.105   8.006 -0.4007 -0.1528  0.3081
13204SOL    HW146470   4.557   5.188   8.045  0.4244  0.1121  0.3398
13204SOL    HW246471   4.596   5.046   8.081 -0.6886 -0.2062  0.3104
13205SOL     OW46472   8.928   1.033   3.891 -0.7727 -0.2190 -0.1331
13205SOL    HW146473   8.833   1.043   3.899 -0.5083  1.4204  1.8254
13205SOL    HW246474   8.954   0.984   3.969  0.3009  2.6169  1.4620
13206SOL     OW46475   3.406  11.038   3.635  0.1718 -0.1605  0.1415
13206SOL    HW146476   3.457  11.014   3.713 -2.0518 -1.5215  1.2818
13206SOL    HW246477   3.315  11.027   3.662 -0.8042  2.4771 -1.6938
13207SOL     OW46478   2.194   6.900   1.015 -0.2885 -0.7264 -0.5284
13207SOL    HW146479   2.225   6.855   1.093  2.2618 -0.3338 -1.2160
13207SOL    HW246480   2.260   6.880   0.948  1.0299  3.7616 -0.9313
13208SOL     OW46481   0.469   9.041   2.735 -0.1820 -0.4152 -0.4172
13208SOL    HW146482   0.474   8.973   2.802 -1.2750 -2.2450 -2.0988
13208SOL    HW246483   0.528   9.012   2.666  0.5717  1.2072 -0.5128
13209SOL     OW46484   7.406  12.131   1.504  0.3341  0.3828  0.4052
13209SOL    HW146485   7.352  12.188   1.558 -2.1938  0.1283 -1.6383
13209SOL    HW246486   7.451  12.189   1.444  1.5111  0.5152  1.3912
13210SOL     OW46487   1.621   0.388  10.663 -0.3007  0.2090 -0.2853
13210SOL    HW146488   1.651   0.300  10.644 -0.5081  0.1292 -0.2474
13210SOL    HW246489   1.649   0.440  10.588 -0.6246  0.0081 -0.5455
13211SOL     OW46490   9.156  12.515  12.382  0.6936 -0.5167  0.0300
13211SOL    HW146491   9.223  12.556  12.327  1.9210 -1.5149  0.7302
13211SOL    HW246492   9.198  12.505  12.468 -1.2044  1.0930  1.2211
13212SOL     OW46493  12.271   5.872   9.844 -0.3595 -0.1403 -0.1175
13212SOL    HW146494  12.302   5.888   9.755 -0.9384  0.8333 -0.1516
13212SOL    HW246495  12.347   5.834   9.889 -0.1466 -0.8997 -1.0835
13213SOL     OW46496   1.884   6.292  10.168  0.0541 -0.1238  0.5057
13213SOL    HW146497   1.918   6.347  10.096  0.4358 -0.0149  0.7669
13213SOL    HW246498   1.881   6.204  10.131  0.2746 -0.0733  0.3618
13214SOL     OW46499   5.511   8.967  11.552  0.1076  0.0624 -0.1436
13214SOL    HW146500   5.491   8.969  11.646 -1.4263 -1.3902 -0.3830
13214SOL    HW246501   5.425   8.977  11.510  0.7756  0.6941 -1.4014
13215SOL     OW46502   8.144   1.543   6.773 -0.3010  0.2110  0.1451
13215SOL    HW146503   8.140   1.635   6.797 -1.0627 -0.3222  2.3359
13215SOL    HW246504   8.224   1.534   6.723 -1.3211  2.4431 -2.0723
13216SOL     OW46505   1.506  10.439  11.492 -0.4762 -0.0819  0.2387
13216SOL    HW146506   1.560  10.495  11.549  1.2730 -1.1520 -0.2972
13216SOL    HW246507   1.479  10.367  11.549  2.0631 -1.6572 -0.4119
13217SOL     OW46508   8.278   9.064   3.212  0.0749  0.2057 -0.2742
13217SOL    HW146509   8.191   9.029   3.196  0.2835  0.3408 -1.8317
13217SOL    HW246510   8.333   9.022   3.146  0.7877  1.7042 -0.6674
13218SOL     OW46511   0.066  11.644   1.026  0.3060  0.1653  0.2926
13218SOL    HW146512  -0.024  11.618   1.003  0.7178 -0.9975 -0.0701
13218SOL    HW246513   0.055  11.724   1.077 -1.0072 -0.5537  1.2023
13219SOL     OW46514   9.917   4.198  11.815  0.3831 -0.2504 -0.3207
13219SOL    HW146515   9.831   4.171  11.847  0.4826 -0.4180 -0.1917
13219SOL    HW246516   9.960   4.116  11.789  0.9979 -0.3120  0.8228
13220SOL     OW46517   5.903   3.135   2.807 -0.2220  0.0687  0.8591
13220SOL    HW146518   5.989   3.152   2.844 -0.5932  0.3627  1.6217
13220SOL    HW246519   5.887   3.042   2.823  0.1132 -0.0769  0.3612
13221SOL     OW46520   9.505   9.562  10.409 -0.2125  0.2120  0.1807
13221SOL    HW146521   9.480   9.516  10.329 -2.1463  1.4071  0.0253
13221SOL    HW246522   9.584   9.610  10.385  1.7141 -2.6738  0.2840
13222SOL     OW46523   8.394   2.037   3.406  0.4121 -0.4774 -0.2167
13222SOL    HW146524   8.342   1.979   3.461  1.7077 -1.5345 -0.0629
13222SOL    HW246525   8.373   2.010   3.316 -1.3251  0.9204 -0.2872
13223SOL     OW46526   1.314   8.693   5.625 -0.3773 -0.1804 -0.0015
13223SOL    HW146527   1.386   8.659   5.572  0.4725  0.0301  1.0019
13223SOL    HW246528   1.351   8.704   5.713 -1.1904  1.4264  0.1703
13224SOL     OW46529   8.676   0.039  10.514  0.1803 -0.1321  0.3757
13224SOL    HW146530   8.613   0.108  10.493  1.5041  1.4099  1.2877
13224SOL    HW246531   8.645   0.003  10.597  0.4832  0.6310  0.8295
13225SOL     OW46532   3.373   2.450   1.381 -0.1625  0.3303 -0.3819
13225SOL    HW146533   3.404   2.410   1.462 -0.0366 -0.3190 -0.7467
13225SOL    HW246534   3.410   2.539   1.383 -1.6051  0.9574  1.1121
13226SOL     OW46535   1.494   1.095   1.943  0.0064 -0.2126 -0.1081
13226SOL    HW146536   1.421   1.099   1.881 -0.4173 -0.6164  0.3597
13226SOL    HW246537   1.572   1.087   1.887 -0.2533  0.7117 -0.6299
13227SOL     OW46538   4.508   0.438  10.767  0.0096  0.3813 -0.5517
13227SOL    HW146539   4.540   0.382  10.697  0.1442  1.2107 -1.1776
13227SOL    HW246540   4.585   0.459  10.819 -0.1763 -0.6563  0.1737
13228SOL     OW46541   2.119   9.888   3.032  0.3267  0.0661  0.3596
13228SOL    HW146542   2.142   9.879   3.124  1.1113 -1.0850  0.0725
13228SOL    HW246543   2.176   9.825   2.987 -0.1808  0.4716 -0.8850
13229SOL     OW46544   4.219   5.298   5.234 -0.0209 -0.1204 -0.3351
13229SOL    HW146545   4.267   5.217   5.251  1.8060  0.9199 -0.2408
13229SOL    HW246546   4.269   5.366   5.280 -1.8983  0.9759  0.1849
13230SOL     OW46547  11.365   2.683   1.705  0.0542  0.0606 -0.1202
13230SOL    HW146548  11.431   2.615   1.689  0.0782  0.0159  0.1479
13230SOL    HW246549  11.416   2.762   1.723  0.1179 -0.3711  1.9361
13231SOL     OW46550   2.136   2.944   6.724  0.5209 -0.6837  0.2646
13231SOL    HW146551   2.206   3.008   6.737 -0.5214  0.3937  0.6954
13231SOL    HW246552   2.115   2.950   6.631  0.4528 -0.4419  0.2969
13232SOL     OW46553   4.737   0.482   2.169 -0.1744 -0.3093 -0.1252
13232SOL    HW146554   4.797   0.551   2.200 -0.2889 -0.8577  1.4057
13232SOL    HW246555   4.650   0.517   2.186 -0.2540 -0.3273 -0.4992
13233SOL     OW46556   0.213   9.476   8.610  0.0958 -0.0721 -0.6620
13233SOL    HW146557   0.296   9.429   8.602  0.9162  0.9800  1.1048
13233SOL    HW246558   0.164   9.428   8.677  0.6836  1.1415  0.6962
13234SOL     OW46559   8.071   6.918   2.209 -0.6500 -0.8819 -0.0399
13234SOL    HW146560   8.026   6.864   2.143  0.8154 -2.0643 -0.1244
13234SOL    HW246561   8.066   6.866   2.289 -0.0181 -0.7209  0.1078
13235SOL     OW46562   1.888   3.698   0.602  0.7300  0.2946 -0.1278
13235SOL    HW146563   1.810   3.752   0.607 -0.7680 -1.7415 -0.2825
13235SOL    HW246564   1.879   3.650   0.520  1.3441 -1.1151  0.5978
13236SOL     OW46565   6.214   8.903  10.966 -0.3769 -0.3070 -0.1447
13236SOL    HW146566   6.257   8.982  10.999  0.3190 -0.4234 -0.7509
13236SOL    HW246567   6.248   8.832  11.020  2.9312 -0.9319 -2.7156
13237SOL     OW46568   2.285   7.337   3.429 -0.0984 -0.4905  0.1576
13237SOL    HW146569   2.228   7.273   3.386 -0.0515 -1.0545  0.9141
13237SOL    HW246570   2.254   7.422   3.397 -0.2168 -0.8821 -0.7935
13238SOL     OW46571   2.840   5.030   5.962 -0.2825  0.0573  0.1461
13238SOL    HW146572   2.844   5.118   6.000 -1.6971  0.2181 -0.0451
13238SOL    HW246573   2.785   4.980   6.022 -0.9556 -0.2072 -0.6876
13239SOL     OW46574   1.008   8.353  10.538 -0.2098  0.1986 -0.6117
13239SOL    HW146575   0.925   8.348  10.584  0.0187  0.6121 -0.1491
13239SOL    HW246576   1.009   8.275  10.483 -0.3079 -0.5360  0.3956
13240SOL     OW46577   8.871   2.848  11.261 -0.1254 -0.1064  0.0603
13240SOL    HW146578   8.791   2.832  11.311 -0.3860  2.1346  0.4472
13240SOL    HW246579   8.842   2.848  11.170 -0.6522  0.9551  0.2093
13241SOL     OW46580   7.969   4.094   9.302 -0.4045 -0.1746  0.4646
13241SOL    HW146581   7.917   4.022   9.338 -0.5933  0.4857  1.6037
13241SOL    HW246582   8.048   4.096   9.356  0.1836 -0.3093 -0.3747
13242SOL     OW46583   6.064   9.598  10.492  0.1885 -0.3763 -0.4695
13242SOL    HW146584   6.116   9.632  10.565 -1.0061  0.3523  0.0768
13242SOL    HW246585   5.976   9.585  10.529 -0.0327 -1.5954 -1.3531
13243SOL     OW46586  10.380  12.393   6.513 -0.0079 -0.1262 -0.0416
13243SOL    HW146587  10.473  12.381   6.534 -0.0966  0.1228  0.5172
13243SOL    HW246588  10.339  12.313   6.546  0.3255 -1.4345 -2.5497
13244SOL     OW46589  11.123   9.597   1.385  0.5560  0.1500  0.0194
13244SOL    HW146590  11.186   9.548   1.334  1.6898  0.7046  0.8438
13244SOL    HW246591  11.170   9.621   1.465 -0.9000  0.0286  0.9514
13245SOL     OW46592   0.463   8.541   8.106 -0.2809  0.1657  0.2412
13245SOL    HW146593   0.555   8.550   8.081 -0.8222 -0.4936 -2.1541
13245SOL    HW246594   0.463   8.557   8.201  2.4785 -1.1297  0.5617
13246SOL     OW46595   9.194   4.362   2.174  0.1033 -0.3226 -1.1838
13246SOL    HW146596   9.225   4.283   2.130 -2.3932 -2.8114  1.1599
13246SOL    HW246597   9.102   4.368   2.150  0.0416  1.4618 -0.6488
13247SOL     OW46598   6.294   4.293  12.052  0.3073 -0.4510 -0.8032
13247SOL    HW146599   6.267   4.202  12.058  0.9697 -0.5611  1.3153
13247SOL    HW246600   6.212   4.342  12.042  0.0332 -1.3017 -3.5093
13248SOL     OW46601   2.406  10.044   0.071 -0.1140  0.4982 -0.0429
13248SOL    HW146602   2.462   9.986   0.020 -1.0453  0.6522 -1.2791
13248SOL    HW246603   2.438  10.132   0.054  0.2276  0.4820  0.4856
13249SOL     OW46604   3.594  11.214   0.083 -0.0692  0.4919 -0.1531
13249SOL    HW146605   3.607  11.138   0.140  0.5298 -0.0372 -0.9705
13249SOL    HW246606   3.680  11.256   0.080 -0.4509  1.3503  0.4760
13250SOL     OW46607   3.547  10.682   8.944 -0.1888 -0.4973  0.9262
13250SOL    HW146608   3.600  10.602   8.945  0.8631  0.0808 -1.2108
13250SOL    HW246609   3.607  10.751   8.971  0.7436  0.3681 -2.7565
13251SOL     OW46610   1.843  12.092   9.375 -0.0153  0.2533  0.3251
13251SOL    HW146611   1.788  12.095   9.296  1.6593 -0.3804 -0.9097
13251SOL    HW246612   1.926  12.131   9.348  1.2754 -1.7627  1.1968
13252SOL     OW46613   8.833   7.844   4.133 -0.0225 -0.2389 -0.3062
13252SOL    HW146614   8.796   7.792   4.062 -0.8125  0.9797 -0.8317
13252SOL    HW246615   8.864   7.924   4.090 -1.5253  1.0160  0.8330
13253SOL     OW46616  10.184  11.857   2.176 -0.0558  0.3433 -0.0618
13253SOL    HW146617  10.198  11.952   2.169 -0.9139  0.5106  0.3499
13253SOL    HW246618  10.265  11.818   2.143  0.1675  1.2179 -0.5699
13254SOL     OW46619   1.650   4.682  10.638  0.6161 -0.6758 -0.3200
13254SOL    HW146620   1.668   4.597  10.678 -0.1098 -0.6652  0.0429
13254SOL    HW246621   1.678   4.745  10.705 -0.9207 -0.6608  0.3361
13255SOL     OW46622   0.657   4.339   2.418  0.0196  0.1471  0.3410
13255SOL    HW146623   0.724   4.285   2.460  0.4811  0.0994 -0.4318
13255SOL    HW246624   0.575   4.307   2.454  0.4218  0.4371  1.5709
13256SOL     OW46625   9.522  10.948   6.672 -0.0106  0.1555  0.1081
13256SOL    HW146626   9.594  10.977   6.616 -0.0744  0.9459  0.4198
13256SOL    HW246627   9.444  10.988   6.633 -0.2467 -0.4511 -0.0535
13257SOL     OW46628   2.304   3.094  10.917 -0.9127 -0.4034 -0.1970
13257SOL    HW146629   2.260   3.012  10.893 -1.8212 -0.2525  0.8209
13257SOL    HW246630   2.243   3.162  10.890  0.7291  0.1038 -2.9028
13258SOL     OW46631  11.974   4.189   9.655 -0.2527 -0.4933 -0.5151
13258SOL    HW146632  11.897   4.193   9.598 -0.8723 -0.4070  0.3204
13258SOL    HW246633  11.942   4.152   9.737  0.5170 -0.1040 -0.0223
13259SOL     OW46634  12.574   9.948   3.421  1.1076 -0.0256  0.5738
13259SOL    HW146635  12.584   9.919   3.330  0.9254 -1.3835  0.9542
13259SOL    HW246636  12.496  10.003   3.420  0.6061 -0.7318  0.0524
13260SOL     OW46637   1.558   8.615   7.942  0.6705  0.1008  0.4927
13260SOL    HW146638   1.532   8.612   7.850  0.0984 -1.1122  0.6686
13260SOL    HW246639   1.550   8.707   7.967  1.4227  0.5409 -0.8198
13261SOL     OW46640   4.954  12.537   1.623  0.3538  0.0415 -0.5291
13261SOL    HW146641   4.955  12.597   1.697  0.0661  0.2028 -0.6534
13261SOL    HW246642   4.962  12.593   1.546  1.6222 -0.1954 -0.5949
13262SOL     OW46643   4.371   2.366   4.189 -0.2142  0.0453 -0.1945
13262SOL    HW146644   4.344   2.403   4.105  1.4396  1.6982 -0.0764
13262SOL    HW246645   4.338   2.428   4.254  1.0519  0.4161  0.1326
13263SOL     OW46646   4.539   6.122   9.993  0.1087 -0.4322  0.0411
13263SOL    HW146647   4.600   6.139   9.922 -0.4885 -0.6121 -0.5196
13263SOL    HW246648   4.569   6.179  10.064 -0.3205  1.0647 -0.9276
13264SOL     OW46649   3.146   5.801  11.408  0.4719 -0.8379 -0.1997
13264SOL    HW146650   3.208   5.873  11.421  0.0020  0.0911 -2.7074
13264SOL    HW246651   3.080   5.814  11.477  2.9672 -1.9257  2.6294
13265SOL     OW46652   5.182   1.878   9.442 -0.3833 -0.0743  0.1019
13265SOL    HW146653   5.165   1.784   9.434 -1.5042  0.2755 -3.7383
13265SOL    HW246654   5.241   1.898   9.369  0.6397  2.1035  1.4215
13266SOL     OW46655   9.077  10.832  10.971 -0.3393 -0.5246  0.2061
13266SOL    HW146656   9.153  10.807  10.918 -0.2229 -1.3954  0.7673
13266SOL    HW246657   9.060  10.923  10.947  1.2184 -0.1350  0.4513
13267SOL     OW46658   4.996   4.264  11.815  0.4172  0.0802 -0.2702
13267SOL    HW146659   4.909   4.296  11.791  1.1605  3.0060  0.5382
13267SOL    HW246660   4.986   4.236  11.907  0.4141  0.8344 -0.0359
13268SOL     OW46661   3.995   2.432   6.749 -0.5379 -1.1635 -0.5169
13268SOL    HW146662   4.014   2.338   6.745  1.5076 -0.7772 -1.1528
13268SOL    HW246663   3.900   2.437   6.746 -0.6840 -3.1789 -1.2754
13269SOL     OW46664   6.980   0.443   3.140 -0.0021  0.1342  0.0954
13269SOL    HW146665   6.941   0.387   3.073  0.6035 -0.3338  0.1221
13269SOL    HW246666   7.026   0.382   3.198  0.7888  0.6633  0.0502
13270SOL     OW46667   9.550  10.063   5.845  0.1594 -0.0795  0.3374
13270SOL    HW146668   9.639  10.051   5.811  0.0665  0.2589 -0.0348
13270SOL    HW246669   9.562  10.079   5.939  0.3403 -2.3393  0.7598
13271SOL     OW46670  10.507  11.369   4.445  0.2651 -0.0863 -0.3555
13271SOL    HW146671  10.562  11.382   4.523 -1.5379 -0.6047  1.0824
13271SOL    HW246672  10.533  11.284   4.411  0.7984 -0.0446 -0.0616
13272SOL     OW46673   5.072   9.567   3.204  0.4003  0.8662  0.1095
13272SOL    HW146674   5.125   9.641   3.232  2.9997  0.2498 -2.6847
13272SOL    HW246675   5.130   9.515   3.149 -2.2694 -1.5594 -0.6798
13273SOL     OW46676  10.620   5.811   7.075  0.7528 -0.0731  0.3670
13273SOL    HW146677  10.538   5.768   7.049  0.4822  0.8762 -0.4042
13273SOL    HW246678  10.602   5.845   7.163  0.8846 -1.2672  0.8791
13274SOL     OW46679   5.094  12.008   6.939 -0.0231  0.1180 -0.0229
13274SOL    HW146680   5.186  12.014   6.911 -0.1726  0.6122 -0.4318
13274SOL    HW246681   5.047  11.982   6.860 -0.2305 -0.1920  0.2011
13275SOL     OW46682   4.970  10.420   2.682  0.2534 -0.2277  0.2557
13275SOL    HW146683   4.899  10.441   2.621 -0.5451  0.0423  1.2535
13275SOL    HW246684   5.023  10.499   2.684 -0.9077  0.5646  1.4976
13276SOL     OW46685   4.368   0.070   1.097 -0.2287 -0.0236  0.8874
13276SOL    HW146686   4.316   0.005   1.051 -0.7176  0.3733  0.8671
13276SOL    HW246687   4.452   0.072   1.050 -1.4394  1.9010 -1.4044
13277SOL     OW46688   7.973   6.964  12.197  0.0522  0.0383 -0.2720
13277SOL    HW146689   7.897   6.971  12.139 -1.4490 -0.8187  1.4846
13277SOL    HW246690   7.941   6.992  12.283  1.4505 -1.1803  0.7163
13278SOL     OW46691   5.459   3.154   2.287 -0.3468  0.1148 -0.3389
13278SOL    HW146692   5.535   3.101   2.261 -1.6252 -3.3877  2.3078
13278SOL    HW246693   5.477   3.180   2.377 -1.4306  1.0432 -0.3683
13279SOL     OW46694   8.416   9.927   6.502  0.1183 -0.1861  0.1341
13279SOL    HW146695   8.503   9.942   6.539  0.1939 -1.0780  0.3609
13279SOL    HW246696   8.399   9.834   6.520 -0.2557 -0.4044 -1.2238
13280SOL     OW46697   2.430  10.609   1.535  0.2405  0.3310  0.1338
13280SOL    HW146698   2.400  10.682   1.480  1.0957  0.3515 -0.3205
13280SOL    HW246699   2.443  10.537   1.475  1.6252  0.4838  0.2185
13281SOL     OW46700  10.634   7.169   3.481  0.6343  0.0775 -0.1479
13281SOL    HW146701  10.581   7.244   3.507  0.9723  1.1207 -2.3193
13281SOL    HW246702  10.577   7.117   3.424  1.4473  0.4426 -1.3209
13282SOL     OW46703   0.117   9.608   0.132  0.0142  0.9557 -0.5963
13282SOL    HW146704   0.065   9.637   0.207 -1.3020 -0.6163 -0.8429
13282SOL    HW246705   0.196   9.662   0.135 -0.1319  1.1297  1.7534
13283SOL     OW46706   3.218   9.221   1.222 -0.0170 -0.0414 -0.0079
13283SOL    HW146707   3.188   9.163   1.152  1.8496 -0.3754 -0.5966
13283SOL    HW246708   3.227   9.307   1.180  0.4541 -0.0940 -0.0250
13284SOL     OW46709   0.142   1.309   1.477 -0.2511  0.4490  0.2520
13284SOL    HW146710   0.097   1.235   1.518 -0.2847  1.6582  2.5444
13284SOL    HW246711   0.074   1.350   1.424 -1.2081  0.7513  1.6346
13285SOL     OW46712  10.168   2.614   1.917  0.1516  0.5293 -0.1688
13285SOL    HW146713  10.076   2.595   1.938 -0.8918  2.2906 -2.5530
13285SOL    HW246714  10.188   2.694   1.966 -0.0898  0.9327 -0.7127
13286SOL     OW46715  11.034  11.294  11.042  0.3539  0.2698  0.0254
13286SOL    HW146716  11.125  11.319  11.025  0.4529  0.6196  0.9858
13286SOL    HW246717  11.010  11.239  10.968  1.2361  0.4620 -0.4208
13287SOL     OW46718   5.576   0.843   2.590  0.4462 -0.0623 -0.4067
13287SOL    HW146719   5.550   0.876   2.503 -1.0089 -2.4200 -0.9600
13287SOL    HW246720   5.671   0.839   2.587  0.4012 -0.8040 -2.2232
13288SOL     OW46721   9.254   3.059   6.256 -0.0586  0.0008 -0.2613
13288SOL    HW146722   9.202   3.024   6.329  2.2732 -0.9377  1.0387
13288SOL    HW246723   9.292   3.140   6.291  1.6469 -0.8222 -0.1413
13289SOL     OW46724   8.591  11.425  10.963  0.2926  0.1716 -0.3050
13289SOL    HW146725   8.582  11.449  10.871  1.5086  1.3801 -0.1513
13289SOL    HW246726   8.502  11.408  10.993 -0.0625 -0.8679 -1.8522
13290SOL     OW46727   0.842   1.147   8.527  0.1120  0.3557 -1.2003
13290SOL    HW146728   0.893   1.148   8.446  1.7946 -1.2016 -0.2288
13290SOL    HW246729   0.829   1.054   8.547  0.1967  0.6847  0.5818
13291SOL     OW46730   9.117   3.372   9.385  0.3117  0.4392  0.1691
13291SOL    HW146731   9.146   3.456   9.420  0.0024  0.4522  0.4023
13291SOL    HW246732   9.142   3.308   9.452 -0.0995  0.4383  0.3280
13292SOL     OW46733   9.909  12.236  12.438  0.2795  0.0853  0.1467
13292SOL    HW146734   9.832  12.294  12.443  0.8434  0.9394 -0.7569
13292SOL    HW246735   9.965  12.265  12.509  0.0589 -0.1016  0.3982
13293SOL     OW46736   8.392   5.918   7.783 -0.3719 -0.3060  0.2707
13293SOL    HW146737   8.466   5.979   7.783 -0.9961  0.5128 -1.8450
13293SOL    HW246738   8.427   5.839   7.826  0.9831  0.8749  1.4462
13294SOL     OW46739   7.431  10.376   9.076  0.3990  0.1222 -0.0349
13294SOL    HW146740   7.397  10.353   8.989 -2.0610  1.3199  0.5126
13294SOL    HW246741   7.412  10.298   9.130 -0.0129  0.1575 -0.1207
13295SOL     OW46742   8.077   2.651   8.864 -0.3967  0.4964 -0.1303
13295SOL    HW146743   8.026   2.598   8.925 -0.5643  0.0449 -0.6571
13295SOL    HW246744   8.150   2.594   8.838  0.1201  0.9720  0.2608
13296SOL     OW46745   4.163   2.188  11.315 -0.4291  0.4364  0.3984
13296SOL    HW146746   4.249   2.231  11.321 -0.6929  0.8693  1.2247
13296SOL    HW246747   4.118   2.213  11.396 -2.0139  1.6533 -0.7975
13297SOL     OW46748   7.556   9.820   2.983  0.1443  0.0017  0.2420
13297SOL    HW146749   7.468   9.794   2.953  0.5128 -0.3554 -0.5804
13297SOL    HW246750   7.541   9.893   3.042 -0.7075 -0.0057  0.0486
13298SOL     OW46751  10.078  11.673   1.540  0.5763  0.2621  0.0015
13298SOL    HW146752  10.027  11.595   1.562 -0.4824  0.7655 -0.5435
13298SOL    HW246753  10.126  11.649   1.461  1.7866 -0.4542  0.9204
13299SOL     OW46754  11.003   8.084   9.081 -0.0548  0.1400  0.4469
13299SOL    HW146755  10.927   8.030   9.062  0.5913 -0.5389 -0.2738
13299SOL    HW246756  10.976   8.139   9.155 -1.4866  0.4268 -0.2532
13300SOL     OW46757  10.057   0.674   0.981 -0.4750 -0.3676  0.0074
13300SOL    HW146758  10.008   0.623   0.916 -2.2374  1.3482 -0.1366
13300SOL    HW246759  10.128   0.714   0.931 -1.2284  0.1479 -0.6888
13301SOL     OW46760   0.282   9.487  12.233 -0.3979 -0.0196  0.1253
13301SOL    HW146761   0.286   9.398  12.269 -0.8302  0.0668  0.3947
13301SOL    HW246762   0.321   9.479  12.146 -2.1690 -0.8927 -0.6453
13302SOL     OW46763   8.801   5.414  11.906 -0.0987  0.1267  0.6651
13302SOL    HW146764   8.836   5.328  11.885  0.1693 -0.0435  1.7321
13302SOL    HW246765   8.872   5.457  11.956 -0.3809  0.8034  0.4912
13303SOL     OW46766   9.661   5.694   0.619  0.0459 -0.5340  0.6176
13303SOL    HW146767   9.683   5.653   0.535  1.8756  3.5495 -1.1727
13303SOL    HW246768   9.713   5.646   0.683  0.4820 -2.2429 -0.9214
13304SOL     OW46769  10.431  10.690  10.310  0.0287  0.2055  0.2738
13304SOL    HW146770  10.468  10.602  10.322  0.3184  0.3664  0.5749
13304SOL    HW246771  10.435  10.730  10.397  1.3573  1.0721 -0.1575
13305SOL     OW46772   2.430  10.375   0.377 -0.3775  0.5047  0.4131
13305SOL    HW146773   2.432  10.312   0.450 -0.0523 -0.8780 -0.7546
13305SOL    HW246774   2.511  10.426   0.388  0.9359 -1.3292 -0.3448
13306SOL     OW46775   5.788   6.635   8.444  0.6778  0.3288  0.6543
13306SOL    HW146776   5.763   6.547   8.414  2.9687 -0.0525 -0.4190
13306SOL    HW246777   5.837   6.672   8.370 -0.1690  2.5043  1.1205
13307SOL     OW46778   1.501   7.307   0.216 -0.1787 -0.5383 -0.7601
13307SOL    HW146779   1.417   7.332   0.178 -0.6397  0.0700  0.5965
13307SOL    HW246780   1.563   7.370   0.181 -0.5058 -0.2896 -0.8998
13308SOL     OW46781   9.336   6.565   7.954 -0.2127 -0.0736 -0.5878
13308SOL    HW146782   9.335   6.658   7.980 -2.4468 -0.3004  0.3706
13308SOL    HW246783   9.368   6.519   8.032 -0.0600 -0.2007 -0.7236
13309SOL     OW46784   4.982   2.611   5.323 -0.0270  0.3188  0.8940
13309SOL    HW146785   5.075   2.612   5.346 -0.0033 -0.7326  0.8848
13309SOL    HW246786   4.971   2.532   5.271 -1.3071 -0.5812  2.4625
13310SOL     OW46787   3.126   2.768   6.178 -0.1613 -0.3285  0.0804
13310SOL    HW146788   3.090   2.698   6.123  0.2545  0.1677 -0.8418
13310SOL    HW246789   3.183   2.818   6.119 -0.2338  0.6211  0.7896
13311SOL     OW46790  11.977   1.884   3.673 -0.0123  0.1683 -0.3360
13311SOL    HW146791  11.994   1.972   3.706 -2.8369  0.9234 -0.6331
13311SOL    HW246792  11.979   1.893   3.578  1.0028 -0.4262 -0.3903
13312SOL     OW46793  10.290  11.496   9.845 -0.2063 -0.5048 -0.0861
13312SOL    HW146794  10.351  11.467   9.913 -1.2503 -0.5737  0.8388
13312SOL    HW246795  10.241  11.418   9.821  0.5794 -0.6233 -1.3946
13313SOL     OW46796  10.092  11.000  11.344  0.2822  0.7487  0.0913
13313SOL    HW146797  10.036  11.022  11.419  0.1599  0.1830  0.1697
13313SOL    HW246798  10.181  11.022  11.374  0.6341 -2.1565  1.5410
13314SOL     OW46799   2.666   8.873  12.044 -0.0838  0.2942  0.2213
13314SOL    HW146800   2.640   8.903  11.957 -0.4564 -0.3953  0.0836
13314SOL    HW246801   2.650   8.779  12.042 -1.3027  0.4420  1.4333
13315SOL     OW46802  11.497   2.717   2.569  0.2093  0.7130 -0.0150
13315SOL    HW146803  11.430   2.727   2.637  1.5665 -0.6712  1.6387
13315SOL    HW246804  11.503   2.803   2.528 -1.0694  1.4455  1.2395
13316SOL     OW46805   8.180   0.933  11.847  0.5175  0.3801  0.0049
13316SOL    HW146806   8.225   0.938  11.931  0.8196  0.3792 -0.1564
13316SOL    HW246807   8.112   1.000  11.852 -2.2797 -2.3287  1.8750
13317SOL     OW46808   7.305  10.147   6.388 -0.2936 -0.0404  0.0086
13317SOL    HW146809   7.257  10.141   6.305  1.5305  1.6357 -1.2824
13317SOL    HW246810   7.304  10.241   6.409  1.6013 -0.0536  0.3512
13318SOL     OW46811  11.439   3.759   2.568  0.2018  0.0732 -0.7408
13318SOL    HW146812  11.453   3.812   2.647  2.2928 -0.8113 -0.4623
13318SOL    HW246813  11.475   3.812   2.497 -0.0745  0.1041 -0.8631
13319SOL     OW46814   3.053  11.457   8.064  0.3264  0.2075 -0.2535
13319SOL    HW146815   3.006  11.374   8.067  0.6781  0.0019 -0.2909
13319SOL    HW246816   3.124  11.447   8.128  0.6619  0.2926 -0.6037
13320SOL     OW46817   2.823   0.663   9.090  0.1811  0.0068  0.3302
13320SOL    HW146818   2.873   0.701   9.162  1.0434  0.7121 -0.6114
13320SOL    HW246819   2.779   0.737   9.049  1.2625 -0.0585 -1.0496
13321SOL     OW46820   9.838   7.008   1.030  0.4075 -0.0910 -0.5103
13321SOL    HW146821   9.865   6.918   1.048 -0.6788 -0.0628  1.5066
13321SOL    HW246822   9.917   7.060   1.042  0.8478 -0.6733 -0.8515
13322SOL     OW46823   0.992  11.464   3.587  0.3011 -0.5264  0.6638
13322SOL    HW146824   1.071  11.516   3.604  0.1238 -0.2090  0.5332
13322SOL    HW246825   0.925  11.502   3.645  0.1537 -0.5686  0.5238
13323SOL     OW46826   6.206   5.411   3.863  0.0677 -0.8559 -0.4448
13323SOL    HW146827   6.141   5.340   3.860 -0.3988 -0.4632  0.0458
13323SOL    HW246828   6.283   5.372   3.904  0.7867 -1.8074 -2.5583
13324SOL     OW46829  11.742   0.137   2.951  0.3486  0.3125  0.4426
13324SOL    HW146830  11.821   0.091   2.925  0.6617  0.3077  1.3510
13324SOL    HW246831  11.738   0.213   2.894 -0.2402 -0.8704 -1.1698
13325SOL     OW46832   2.757   1.372   3.249  0.0527 -0.2419 -0.1815
13325SOL    HW146833   2.831   1.409   3.297 -0.7032  0.3954  0.5190
13325SOL    HW246834   2.761   1.278   3.268  0.0045 -0.0493  0.8067
13326SOL     OW46835   3.543   3.977   8.639  0.1800  0.4207 -0.5035
13326SOL    HW146836   3.624   3.961   8.590  0.0701  1.1365 -0.9322
13326SOL    HW246837   3.551   4.066   8.671  0.1565  0.0356  0.6410
13327SOL     OW46838   4.318  12.166   0.579 -0.5393 -0.0782  0.2482
13327SOL    HW146839   4.344  12.113   0.655 -0.4501 -0.6295 -0.1579
13327SOL    HW246840   4.383  12.236   0.575 -1.1435  0.5731  1.2965
13328SOL     OW46841   0.417   3.811   1.544 -0.6055 -0.0343  0.3022
13328SOL    HW146842   0.501   3.850   1.518  0.0306 -0.7682  1.1716
13328SOL    HW246843   0.364   3.884   1.572 -0.6733  0.5766 -1.3171
13329SOL     OW46844   1.177   5.269   4.163 -0.1594  0.1189 -0.6736
13329SOL    HW146845   1.111   5.335   4.184 -0.2624  0.0122 -0.6602
13329SOL    HW246846   1.199   5.229   4.247  0.2124  0.4231 -0.6212
13330SOL     OW46847   0.575   9.047   4.183  0.5027 -0.3099  0.1936
13330SOL    HW146848   0.550   9.026   4.093  1.3799 -2.0116  0.2996
13330SOL    HW246849   0.519   8.991   4.237  0.3203  0.3445  0.6968
13331SOL     OW46850   4.263   7.394  11.142  0.1424  0.1553 -0.1555
13331SOL    HW146851   4.327   7.440  11.088 -0.5064  0.7802 -0.4031
13331SOL    HW246852   4.178   7.417  11.104 -0.1766 -2.1662 -0.9959
13332SOL     OW46853   2.099   2.326  12.148  0.3859 -0.2576 -0.0011
13332SOL    HW146854   2.051   2.408  12.143  1.2207  0.1723 -1.6239
13332SOL    HW246855   2.158   2.337  12.222  1.6514  1.3058 -1.1692
13333SOL     OW46856   7.404  12.353  11.111 -0.2666  0.0193 -0.0226
13333SOL    HW146857   7.495  12.342  11.084 -0.3081 -1.1762  0.2795
13333SOL    HW246858   7.381  12.442  11.084  0.7138  0.0117 -0.9040
13334SOL     OW46859   0.203   2.013   4.213  0.3422 -0.2876 -0.0360
13334SOL    HW146860   0.209   2.103   4.247  0.1093  0.3735 -1.6463
13334SOL    HW246861   0.160   2.023   4.129  0.0946 -1.9664 -0.1244
13335SOL     OW46862   1.574   5.960   0.014 -0.3064  0.1765 -0.0246
13335SOL    HW146863   1.609   5.894   0.074 -1.2582  1.2362  1.8098
13335SOL    HW246864   1.639   5.967  -0.055  2.2030  0.7439  2.2451
13336SOL     OW46865   4.980   2.780   9.999 -0.7697  0.1366  0.8406
13336SOL    HW146866   4.912   2.839  10.030 -2.2610 -1.3515  0.5456
13336SOL    HW246867   5.006   2.729  10.076 -1.5207 -0.7249  0.5449
13337SOL     OW46868   8.186   4.761  10.972 -0.0096 -0.6661  0.3679
13337SOL    HW146869   8.252   4.696  10.993 -0.9540 -1.1803  1.9430
13337SOL    HW246870   8.180   4.816  11.050  0.5095  1.1436 -0.7858
13338SOL     OW46871   5.151   9.620   5.361 -0.0825 -0.3608  0.8437
13338SOL    HW146872   5.134   9.684   5.430 -0.1101  0.8958 -0.2966
13338SOL    HW246873   5.174   9.673   5.284  2.6025 -1.7531  0.5643
13339SOL     OW46874   3.957   9.401   8.111  0.0413  0.0767 -0.3504
13339SOL    HW146875   3.866   9.409   8.082 -0.1213  1.2996  0.4436
13339SOL    HW246876   4.004   9.466   8.059  0.0580  1.0311  0.8319
13340SOL     OW46877   5.925   7.333   4.987 -0.3112 -0.2556 -0.3891
13340SOL    HW146878   6.017   7.356   4.980 -0.2212 -0.1066  1.1356
13340SOL    HW246879   5.889   7.394   5.051 -0.9324 -1.8076  0.7974
13341SOL     OW46880   8.080  10.093   1.156 -0.0276 -0.0892 -0.0258
13341SOL    HW146881   8.046  10.035   1.224  2.0487 -1.6635 -0.2230
13341SOL    HW246882   8.032  10.067   1.077 -1.9300  1.2569  0.6020
13342SOL     OW46883   3.621  11.244   1.829 -0.2019  0.1168  0.0078
13342SOL    HW146884   3.527  11.225   1.823 -0.1441 -0.2564  0.2842
13342SOL    HW246885   3.660  11.194   1.757 -0.2167  0.2835 -0.1163
13343SOL     OW46886   4.753   2.418   7.486  0.6196  0.5210  0.3054
13343SOL    HW146887   4.823   2.389   7.544  0.0446 -0.3533  0.5816
13343SOL    HW246888   4.687   2.455   7.545 -0.1372 -0.7176  0.2685
13344SOL     OW46889  10.006   6.378   6.008 -0.1260 -0.0881 -0.4342
13344SOL    HW146890  10.056   6.458   5.991 -0.0633  0.0891  0.4959
13344SOL    HW246891  10.044   6.343   6.089 -0.7289 -0.5913 -0.3583
13345SOL     OW46892   3.602   9.592   1.063  0.7213  0.0119  0.4306
13345SOL    HW146893   3.684   9.641   1.052  1.6147 -0.9564  2.2358
13345SOL    HW246894   3.546   9.650   1.115 -0.3887  1.2901 -2.0473
13346SOL     OW46895  11.636   3.902  11.113  0.1439  0.5123 -0.0326
13346SOL    HW146896  11.684   3.959  11.054 -0.2588 -0.6009 -1.5023
13346SOL    HW246897  11.546   3.934  11.110  0.0617  0.2654 -0.2916
13347SOL     OW46898   8.509   5.465   8.556  0.5114 -0.7284 -0.0911
13347SOL    HW146899   8.589   5.466   8.504  0.5790 -0.5725  0.0154
13347SOL    HW246900   8.441   5.495   8.496  0.5043 -1.0167 -0.2274
13348SOL     OW46901   0.583   8.809   0.151 -0.3868 -0.0957 -0.1327
13348SOL    HW146902   0.488   8.801   0.162 -0.7942  0.2128 -2.7980
13348SOL    HW246903   0.604   8.897   0.179 -1.2910  0.5910 -1.4901
13349SOL     OW46904   6.076  10.454   0.927  0.5700 -0.2106  0.7754
13349SOL    HW146905   6.021  10.522   0.887 -0.3873 -1.1431  0.4610
13349SOL    HW246906   6.158  10.499   0.948 -0.5125  1.4051  1.8394
13350SOL     OW46907   5.102   3.566   8.944 -0.2200  0.1972  0.1143
13350SOL    HW146908   5.034   3.538   8.882 -0.3762 -0.4996  0.5944
13350SOL    HW246909   5.090   3.661   8.952 -0.9939  0.1076  0.0350
13351SOL     OW46910  11.768   1.840   3.988 -0.3296  0.3069 -0.2712
13351SOL    HW146911  11.859   1.855   4.012 -1.1777 -0.9850  4.7926
13351SOL    HW246912  11.726   1.926   3.994 -0.1011  0.3341  1.4626
13352SOL     OW46913   6.443   3.727   0.066  0.0470 -0.5643 -0.1346
13352SOL    HW146914   6.501   3.653   0.080 -0.7917 -0.9231  1.6873
13352SOL    HW246915   6.434   3.733  -0.029  3.6921  0.0476 -0.5598
13353SOL     OW46916   4.020   8.001   7.431 -0.1733 -0.3004 -0.1713
13353SOL    HW146917   4.011   7.992   7.526 -0.3095  3.1684  0.2563
13353SOL    HW246918   4.113   7.986   7.415 -0.2249 -1.3575  0.3970
13354SOL     OW46919  11.185   4.879  10.295  0.4309  0.7443 -0.3145
13354SOL    HW146920  11.280   4.889  10.299  0.4753  1.4786 -2.2028
13354SOL    HW246921  11.166   4.804  10.352  2.1255  0.6275  0.1404
13355SOL     OW46922   6.279   5.118  11.054  0.1985  0.0434  0.0147
13355SOL    HW146923   6.310   5.036  11.093 -1.4219 -0.5072  0.2321
13355SOL    HW246924   6.304   5.185  11.117 -0.4919 -0.5772  0.9707
13356SOL     OW46925   2.417   9.403   6.336 -0.3348 -0.1673 -0.3298
13356SOL    HW146926   2.428   9.328   6.394  0.0356  0.2532  0.1501
13356SOL    HW246927   2.506   9.428   6.312 -0.3167  1.4183  1.2090
13357SOL     OW46928   5.517   8.508   2.490 -0.0800  0.6490 -0.0300
13357SOL    HW146929   5.437   8.459   2.510 -0.8635  1.8407 -0.1202
13357SOL    HW246930   5.498   8.551   2.407  1.2082 -0.1610 -0.7821
13358SOL     OW46931  12.552   3.635  12.057 -0.4320  0.1334 -0.7191
13358SOL    HW146932  12.521   3.615  11.968 -0.5155 -1.2388 -0.3987
13358SOL    HW246933  12.482   3.688  12.095 -1.0584 -0.4852 -0.9937
13359SOL     OW46934   7.834   2.347   0.162  0.5100  0.2694  0.5664
13359SOL    HW146935   7.832   2.252   0.152  0.3646  0.4526 -1.9569
13359SOL    HW246936   7.785   2.364   0.242 -0.7439 -1.7186  0.3038
13360SOL     OW46937   1.535   5.489   7.288  0.0907  0.5446 -0.3799
13360SOL    HW146938   1.567   5.527   7.207  2.0689 -1.0810 -0.4453
13360SOL    HW246939   1.574   5.542   7.357  0.8238  0.1702 -0.4939
13361SOL     OW46940   7.284   8.129  11.208  0.2698  0.1010 -0.0530
13361SOL    HW146941   7.380   8.127  11.214  0.2925  2.5920  2.3763
13361SOL    HW246942   7.266   8.205  11.153 -0.2729  0.6496  0.8565
13362SOL     OW46943  12.148  11.068   3.347 -0.8204 -0.3146 -0.2169
13362SOL    HW146944  12.055  11.078   3.365 -0.8407 -1.6322  0.4851
13362SOL    HW246945  12.153  11.015   3.268 -0.6583  0.9462 -1.0841
13363SOL     OW46946   7.721   8.850   1.835  0.5830 -0.0970 -0.0932
13363SOL    HW146947   7.725   8.826   1.742  1.7449  0.3913 -0.1907
13363SOL    HW246948   7.761   8.937   1.839 -2.9958  1.7093  0.3309
13364SOL     OW46949   8.841   7.221   8.754 -0.0053  0.0905 -0.7943
13364SOL    HW146950   8.925   7.186   8.785 -1.0363 -0.1729  1.9571
13364SOL    HW246951   8.776   7.157   8.783 -1.2814  0.6827 -2.1878
13365SOL     OW46952   0.018   7.524   8.060 -0.1348 -0.0185  0.1215
13365SOL    HW146953  -0.048   7.592   8.074 -0.3988  0.1800 -1.8636
13365SOL    HW246954   0.042   7.532   7.968  1.7503 -0.9231  0.4792
13366SOL     OW46955   7.244   1.554   0.650  0.1314  0.2294 -0.4418
13366SOL    HW146956   7.210   1.575   0.737 -0.0563  1.7028 -0.8387
13366SOL    HW246957   7.320   1.610   0.640  0.7617 -0.6759 -0.8460
13367SOL     OW46958  10.455   1.019   0.336 -0.5595 -0.1188  0.1441
13367SOL    HW146959  10.498   1.075   0.401 -0.7893 -2.3757  2.4251
13367SOL    HW246960  10.526   0.981   0.285 -0.3080  0.9342 -0.3109
13368SOL     OW46961   2.524   4.642   6.109  0.0608  0.0275 -0.2613
13368SOL    HW146962   2.555   4.702   6.041 -0.1872  0.4933  0.0312
13368SOL    HW246963   2.460   4.587   6.064 -0.5754  0.7493 -0.2727
13369SOL     OW46964  10.068  12.132  11.613  0.4765 -0.1157  0.0918
13369SOL    HW146965  10.099  12.211  11.657 -0.3751 -0.9816  2.4167
13369SOL    HW246966  10.145  12.096  11.569  1.1432  1.3304  0.0269
13370SOL     OW46967   3.560  11.208   4.411  0.1015  0.3060  0.3192
13370SOL    HW146968   3.650  11.175   4.411 -0.2385 -0.6764 -0.0439
13370SOL    HW246969   3.516  11.157   4.343 -0.7776  0.6405  0.6245
13371SOL     OW46970   1.922   4.572  10.567 -0.1931  0.4277  0.1035
13371SOL    HW146971   1.907   4.637  10.635  1.9793  0.5593  0.5340
13371SOL    HW246972   1.954   4.622  10.492  1.1350 -0.0564  0.3162
13372SOL     OW46973   9.549   7.279   7.075  0.5153  0.0106 -0.0325
13372SOL    HW146974   9.563   7.365   7.035  0.2163 -0.8092 -1.9963
13372SOL    HW246975   9.463   7.251   7.044 -0.0265 -0.4317  1.7239
13373SOL     OW46976   9.080   7.760   7.513 -0.1657  0.4675 -0.1834
13373SOL    HW146977   9.143   7.814   7.465  0.8759  0.6311  1.3042
13373SOL    HW246978   9.106   7.768   7.605 -1.7308 -0.3111  0.3695
13374SOL     OW46979   0.662   8.989   8.873 -0.0573 -0.5901  0.4688
13374SOL    HW146980   0.567   8.998   8.863  0.0912  1.8374  0.4497
13374SOL    HW246981   0.690   9.076   8.901  2.2465 -1.0859 -0.1459
13375SOL     OW46982   0.627   7.654   8.632 -0.5960  0.6131 -0.2833
13375SOL    HW146983   0.535   7.633   8.618 -0.6536 -0.3406  1.2522
13375SOL    HW246984   0.663   7.668   8.544 -2.2556  1.2814 -0.8827
13376SOL     OW46985   2.460   0.927  11.408 -0.6625  0.4762  0.0446
13376SOL    HW146986   2.443   0.961  11.496 -0.6184 -0.9410  0.6183
13376SOL    HW246987   2.417   0.841  11.407 -0.0186  0.1542 -1.0621
13377SOL     OW46988   1.312   0.002  11.975  0.1192 -0.4510 -0.1310
13377SOL    HW146989   1.349   0.003  12.063  1.2375 -1.3830 -0.5704
13377SOL    HW246990   1.321  -0.089  11.947 -1.4084 -0.4420 -0.7307
13378SOL     OW46991   2.680   7.968  10.705 -0.0755 -0.4080 -0.2455
13378SOL    HW146992   2.715   7.945  10.619  1.0223 -1.3996  0.4349
13378SOL    HW246993   2.585   7.959  10.695 -0.0596  0.5596 -1.6287
13379SOL     OW46994   7.478   1.528  12.228 -0.4582 -0.1357 -0.4602
13379SOL    HW146995   7.391   1.501  12.261  0.3196 -0.8629  1.1244
13379SOL    HW246996   7.504   1.599  12.286  1.8744 -2.8428  2.1669
13380SOL     OW46997   1.828   8.899   3.997 -0.0159 -0.5296 -0.7432
13380SOL    HW146998   1.764   8.883   3.927  0.5042  0.1661 -1.4015
13380SOL    HW246999   1.813   8.990   4.023 -1.1577 -1.1934  1.0788
13381SOL     OW47000   6.140   0.963  12.438 -0.4290 -0.0901  0.0386
13381SOL    HW147001   6.061   0.925  12.399  0.0012 -1.7691  0.6687
13381SOL    HW247002   6.108   1.035  12.491 -1.4694 -0.3068 -0.2625
13382SOL     OW47003   5.109   2.684  12.016 -0.0560  0.2863 -0.3418
13382SOL    HW147004   5.073   2.610  12.065  0.9862  0.4348  0.6919
13382SOL    HW247005   5.122   2.752  12.082  0.7710  0.7272 -0.9483
13383SOL     OW47006   2.092   1.602   2.140 -0.3072  0.4119 -0.0649
13383SOL    HW147007   2.074   1.689   2.176 -2.5290 -0.6557  1.6392
13383SOL    HW247008   2.187   1.599   2.129 -0.0841  2.6631  0.8108
13384SOL     OW47009   9.997   4.682   4.350  0.6105 -0.2609 -0.6419
13384SOL    HW147010  10.061   4.752   4.336 -1.0452  1.2902 -0.8822
13384SOL    HW247011   9.915   4.717   4.315 -0.2118 -2.5236 -1.1697
13385SOL     OW47012  10.818   7.759   5.421 -0.3217 -0.4404 -0.2507
13385SOL    HW147013  10.735   7.745   5.376  0.8163 -0.4424 -2.5137
13385SOL    HW247014  10.870   7.682   5.399  1.1406  0.7202 -1.0293
13386SOL     OW47015  11.620   7.291   9.396  0.0526 -0.1498  0.2039
13386SOL    HW147016  11.715   7.285   9.395  0.0848  0.1365  0.9486
13386SOL    HW247017  11.596   7.306   9.304  0.7460  0.1228  0.0602
13387SOL     OW47018  10.072   2.331   4.551 -0.2547 -0.4703  0.1776
13387SOL    HW147019  10.005   2.285   4.500 -0.9899 -0.4293  1.0847
13387SOL    HW247020  10.117   2.261   4.599 -0.6318 -0.3528  0.7032
13388SOL     OW47021   4.099   1.632   3.462  0.2271  0.3104 -0.9141
13388SOL    HW147022   4.039   1.559   3.479 -0.8963  1.1281 -1.2317
13388SOL    HW247023   4.166   1.624   3.529 -0.2653 -0.6058 -0.5106
13389SOL     OW47024   2.116  10.880   7.220 -0.8262 -0.3520 -0.1334
13389SOL    HW147025   2.120  10.941   7.147  0.6840 -0.7570 -0.4209
13389SOL    HW247026   2.071  10.803   7.185 -2.2365  0.3410  0.0755
13390SOL     OW47027   2.646   2.594   4.749 -0.0027 -0.0042  0.4751
13390SOL    HW147028   2.672   2.506   4.723  2.5532  0.4494  1.2395
13390SOL    HW247029   2.559   2.606   4.710 -0.1625 -2.6100 -0.1385
13391SOL     OW47030   9.226   3.772  10.076 -0.0116  0.6172  0.6382
13391SOL    HW147031   9.149   3.718  10.095 -0.2336  1.1595  1.3051
13391SOL    HW247032   9.287   3.712  10.032 -0.8316  0.1930  0.0460
13392SOL     OW47033   2.990   7.629   3.957  0.2861 -0.3571 -0.4059
13392SOL    HW147034   3.007   7.617   3.863 -1.0422 -1.1134 -0.5649
13392SOL    HW247035   3.070   7.598   4.000  1.2987  0.8927 -1.3023
13393SOL     OW47036   2.079   0.851   3.852  0.2906 -0.1494  0.0575
13393SOL    HW147037   2.092   0.911   3.925  0.0268  0.1368 -0.1263
13393SOL    HW247038   2.136   0.777   3.871  2.1461  1.0302 -0.6988
13394SOL     OW47039   1.248   8.754  11.184 -0.1495 -0.1348  0.2684
13394SOL    HW147040   1.165   8.710  11.166  0.4348 -1.5763  0.9371
13394SOL    HW247041   1.294   8.755  11.100 -1.5981  2.5033 -0.6153
13395SOL     OW47042   9.651   7.053   7.651  0.5396  0.7637 -0.2835
13395SOL    HW147043   9.662   6.960   7.629  1.1698  0.3303  1.6112
13395SOL    HW247044   9.598   7.089   7.580  1.2332 -0.7826 -1.6380
13396SOL     OW47045   7.438   8.225   0.875 -0.1243 -0.5774  0.1521
13396SOL    HW147046   7.451   8.159   0.942  1.5578  0.7784  1.2420
13396SOL    HW247047   7.526   8.253   0.850 -0.7536  0.1617 -1.4059
13397SOL     OW47048   5.945  11.177   6.882  0.1302  0.0328 -0.2624
13397SOL    HW147049   6.028  11.225   6.892 -0.1763  0.4408  0.4361
13397SOL    HW247050   5.962  11.113   6.813  1.7979 -1.5039  1.4282
13398SOL     OW47051   6.888   1.983   3.718 -0.4296 -0.2742  0.1912
13398SOL    HW147052   6.950   1.950   3.653  1.3769  1.3974  0.9466
13398SOL    HW247053   6.870   2.073   3.690 -2.8229 -0.8073 -0.1724
13399SOL     OW47054   4.374   2.427   3.211  0.0892  0.4238 -0.3050
13399SOL    HW147055   4.409   2.508   3.172  0.3972 -1.1592 -3.7263
13399SOL    HW247056   4.292   2.412   3.164 -0.5929 -0.6047  1.1657
13400SOL     OW47057   5.484  10.257  11.853 -0.1645 -0.1165  0.0881
13400SOL    HW147058   5.528  10.276  11.770  1.0028 -0.3298  0.6369
13400SOL    HW247059   5.464  10.343  11.890  0.3502 -0.0011  0.1111
13401SOL     OW47060  10.936   9.687   3.646 -0.2052  0.5887 -0.0581
13401SOL    HW147061  10.918   9.678   3.552 -0.9799  1.4501 -0.0128
13401SOL    HW247062  10.897   9.608   3.685 -0.4088  0.5201 -0.3936
13402SOL     OW47063   9.343  11.292   6.206 -0.3018  0.1806  0.0360
13402SOL    HW147064   9.292  11.237   6.146  1.6214 -1.3186 -0.3073
13402SOL    HW247065   9.399  11.344   6.149  0.4999 -0.1921  0.4716
13403SOL     OW47066   1.399   2.930   6.641  0.1583 -0.2578 -0.4425
13403SOL    HW147067   1.460   2.996   6.672 -2.3670  2.1061 -0.1743
13403SOL    HW247068   1.452   2.870   6.589  2.8675  0.9484  0.7833
13404SOL     OW47069   6.171  10.298  11.243 -0.0735  0.6803  0.8387
13404SOL    HW147070   6.134  10.379  11.209 -0.3657 -0.1433 -0.9138
13404SOL    HW247071   6.264  10.318  11.255  0.1406  0.9039 -0.9267
13405SOL     OW47072   5.372   6.985   9.440  0.2012 -0.5891  0.1378
13405SOL    HW147073   5.461   6.961   9.416  0.5702 -0.6679  1.5077
13405SOL    HW247074   5.372   6.985   9.536 -1.2213 -0.4043  0.1580
13406SOL     OW47075   7.066   5.924   1.123 -0.0088 -0.1445  0.1400
13406SOL    HW147076   6.973   5.905   1.111 -0.2029  0.9972 -0.3252
13406SOL    HW247077   7.084   5.995   1.062  2.1124 -2.8288 -2.6627
13407SOL     OW47078   8.768   2.004  11.601  0.1559 -0.3559 -0.5271
13407SOL    HW147079   8.715   2.076  11.568  0.4367 -0.0898 -0.4024
13407SOL    HW247080   8.858   2.036  11.596  0.4404 -1.2803 -2.0122
13408SOL     OW47081   0.160  11.260   9.115 -0.4821  0.3972 -0.1687
13408SOL    HW147082   0.120  11.312   9.046 -0.1592  0.3399 -0.3974
13408SOL    HW247083   0.254  11.263   9.098 -0.4934 -0.6879 -0.5005
13409SOL     OW47084   2.255   9.356  12.071 -0.1297  0.0222 -0.1997
13409SOL    HW147085   2.311   9.328  12.143 -0.7630  2.1467  1.2315
13409SOL    HW247086   2.312   9.409  12.016 -0.4625  1.5867  0.8735
13410SOL     OW47087   8.693   0.777  10.249 -0.1012  0.2515 -0.3734
13410SOL    HW147088   8.608   0.732  10.251  0.3277 -0.7529 -2.2450
13410SOL    HW247089   8.757   0.708  10.266  0.3677  1.0127  1.0941
13411SOL     OW47090  10.423   8.504  10.561 -0.0442  0.5487 -0.2319
13411SOL    HW147091  10.512   8.507  10.527  0.2367  0.9723  0.5125
13411SOL    HW247092  10.417   8.580  10.620  0.0403 -1.0246  1.9512
13412SOL     OW47093   5.414  11.475   1.635  0.4585 -0.0356  0.0576
13412SOL    HW147094   5.430  11.511   1.722  2.1362  1.6060 -0.8490
13412SOL    HW247095   5.442  11.544   1.575 -1.3097 -0.8450 -1.8016
13413SOL     OW47096   2.644   1.501  11.491 -0.6726  0.4825  0.8255
13413SOL    HW147097   2.575   1.460  11.544 -0.5138 -0.5748  0.2385
13413SOL    HW247098   2.608   1.587  11.468 -2.4512 -0.6045 -0.6997
13414SOL     OW47099   5.487   7.620   1.201 -0.2439 -0.0549 -0.0551
13414SOL    HW147100   5.403   7.574   1.199 -0.0928 -0.3116 -0.6876
13414SOL    HW247101   5.541   7.575   1.136 -0.2492  1.2716 -1.0298
13415SOL     OW47102   3.411   4.141   2.250 -0.0376  0.2003 -0.5853
13415SOL    HW147103   3.479   4.187   2.299 -0.8815  1.3797 -0.4863
13415SOL    HW247104   3.449   4.055   2.232 -0.0146 -0.6718  2.9360
13416SOL     OW47105   5.001   8.223   9.733 -0.3499 -0.2489 -0.3998
13416SOL    HW147106   4.994   8.150   9.794  0.6005 -0.3441 -0.3913
13416SOL    HW247107   5.089   8.258   9.746 -0.5039  0.3876 -0.9761
13417SOL     OW47108   8.727   2.593   5.843 -1.1458  0.4034 -0.5852
13417SOL    HW147109   8.762   2.538   5.913 -0.8677 -1.4147 -2.0659
13417SOL    HW247110   8.782   2.671   5.844 -0.5600  0.0008  0.6117
13418SOL     OW47111   0.912   0.232   9.468 -0.0023 -0.3976 -0.7627
13418SOL    HW147112   0.900   0.139   9.487  0.8973  0.0077  2.2473
13418SOL    HW247113   0.834   0.274   9.505 -0.2915  0.0979 -1.8952
13419SOL     OW47114   6.879   5.136   6.382 -0.5530  0.2908  0.1648
13419SOL    HW147115   6.859   5.203   6.447 -0.9781  1.0350 -0.7012
13419SOL    HW247116   6.936   5.074   6.427  0.8558  1.8793  0.6440
13420SOL     OW47117  11.015   3.712  10.156  0.0820  0.4997 -0.4200
13420SOL    HW147118  11.028   3.799  10.118 -0.3456  0.8330  0.1828
13420SOL    HW247119  10.977   3.660  10.085 -1.6629  1.3888 -0.1836
13421SOL     OW47120  10.198  11.008  12.529 -0.3658  0.7294 -0.8003
13421SOL    HW147121  10.226  10.999  12.438  1.7343 -0.5869 -0.0838
13421SOL    HW247122  10.239  11.088  12.560 -1.1890  1.2495 -1.0159
13422SOL     OW47123   8.850   6.301   0.081 -0.0793  0.5127 -0.2682
13422SOL    HW147124   8.850   6.217   0.035 -0.3483  0.3017  0.1170
13422SOL    HW247125   8.917   6.353   0.035 -0.0987  0.1851 -0.6766
13423SOL     OW47126   8.689   6.693   8.028  0.6138  0.6222  0.9360
13423SOL    HW147127   8.725   6.690   7.940  1.9102  0.0381  1.4693
13423SOL    HW247128   8.594   6.690   8.015  0.7974  0.0272 -0.4069
13424SOL     OW47129   9.459   3.310   4.279  0.7034  0.5134  0.8662
13424SOL    HW147130   9.511   3.234   4.305 -0.5724 -0.3637  0.9631
13424SOL    HW247131   9.398   3.276   4.213  0.0930  1.4424  0.9283
13425SOL     OW47132   5.333   5.525   4.040 -0.2704  0.0831 -0.2835
13425SOL    HW147133   5.380   5.510   3.958  0.1927 -0.0150 -0.0034
13425SOL    HW247134   5.343   5.443   4.089  0.8769  0.7018  0.5656
13426SOL     OW47135  11.397  11.573   0.870  0.5006 -0.6410  0.0881
13426SOL    HW147136  11.308  11.571   0.904 -0.1331 -2.0302 -1.4777
13426SOL    HW247137  11.386  11.597   0.778  2.0380  1.9156  0.4628
13427SOL     OW47138   8.216   6.602   0.577 -0.5819 -0.4395 -0.4759
13427SOL    HW147139   8.249   6.591   0.666 -3.5643  1.8121  1.0916
13427SOL    HW247140   8.140   6.544   0.572 -0.1049 -0.9884 -1.8100
13428SOL     OW47141  11.224   4.439   7.798 -0.1767 -0.1843 -0.0088
13428SOL    HW147142  11.259   4.463   7.884  1.4245  1.8240 -1.1297
13428SOL    HW247143  11.252   4.348   7.785 -0.4778 -0.5370  1.5594
13429SOL     OW47144   5.119  10.248   1.453 -0.3896 -0.2920  0.3646
13429SOL    HW147145   5.212  10.272   1.446 -0.4439  0.2861  1.3596
13429SOL    HW247146   5.109  10.215   1.542 -0.9768 -1.1521 -0.0077
13430SOL     OW47147   6.023   7.935  11.699 -0.0983  0.1812  0.3500
13430SOL    HW147148   6.025   7.844  11.727  0.8825 -0.1209 -0.6015
13430SOL    HW247149   6.112   7.953  11.669 -0.3480  1.3622  0.2411
13431SOL     OW47150   1.558   1.202   7.774  0.2246 -0.4650 -0.5416
13431SOL    HW147151   1.471   1.226   7.806  0.0696  1.2414 -2.0392
13431SOL    HW247152   1.610   1.185   7.853 -0.0176  3.8557  0.8123
13432SOL     OW47153   9.640   3.428   1.957 -0.1380 -0.5263 -0.0371
13432SOL    HW147154   9.579   3.501   1.948 -1.1847 -1.2555  0.7748
13432SOL    HW247155   9.595   3.354   1.914  0.1337 -1.0900  0.6218
13433SOL     OW47156   5.025   7.444   3.643 -0.1463 -0.5279  0.1150
13433SOL    HW147157   5.000   7.493   3.722  0.1588 -1.0602  0.5561
13433SOL    HW247158   5.005   7.503   3.571 -0.3620  0.0047  0.5965
13434SOL     OW47159   9.131   7.390  10.696 -0.3455 -0.0718  0.2448
13434SOL    HW147160   9.067   7.369  10.764  0.9999 -0.6147  1.3799
13434SOL    HW247161   9.148   7.306  10.653  0.1620 -0.0645  0.4356
13435SOL     OW47162   5.983   2.803   2.168 -0.3610  0.4724 -0.2354
13435SOL    HW147163   6.076   2.782   2.157 -0.6534 -0.2633 -1.4577
13435SOL    HW247164   5.979   2.898   2.158  0.3995  0.6641  1.0146
13436SOL     OW47165   2.458   8.951   1.565  0.2825  0.1156  0.1651
13436SOL    HW147166   2.426   9.036   1.532  0.6010 -0.2636 -1.2001
13436SOL    HW247167   2.552   8.965   1.578  0.7411 -0.5585 -2.0308
13437SOL     OW47168  10.607  12.568   3.198 -0.0444  0.1738  0.0311
13437SOL    HW147169  10.515  12.544   3.207 -0.6996  2.7420  1.4038
13437SOL    HW247170  10.655  12.501   3.246 -1.2872 -0.6859  0.0985
13438SOL     OW47171   4.659  11.465   3.304  0.0889 -0.4929 -0.0351
13438SOL    HW147172   4.663  11.398   3.237 -1.5347 -1.0048  0.3259
13438SOL    HW247173   4.746  11.466   3.344  0.4582 -1.5843 -0.7948
13439SOL     OW47174  10.345   6.704  10.251 -0.2842  0.4363  0.1098
13439SOL    HW147175  10.325   6.630  10.307  0.1885  0.3670  0.1904
13439SOL    HW247176  10.259   6.740  10.227 -0.5362 -0.4848 -0.4030
13440SOL     OW47177   7.343  11.372   1.091 -0.0333 -0.3866  0.4455
13440SOL    HW147178   7.352  11.323   1.172  0.9783 -0.6091  0.2051
13440SOL    HW247179   7.430  11.371   1.051  0.0688  1.7576  0.5009
13441SOL     OW47180   7.470   1.059   2.939  0.0085 -0.4661 -0.3350
13441SOL    HW147181   7.406   0.991   2.918 -0.3470 -0.0211 -0.7050
13441SOL    HW247182   7.529   1.060   2.864 -0.8747  0.6680 -1.0426
13442SOL     OW47183   1.925   4.741   1.244  0.3709  0.4343  0.3431
13442SOL    HW147184   1.955   4.651   1.255 -1.2620 -0.2934 -0.7644
13442SOL    HW247185   1.871   4.739   1.165 -0.0273  2.3079  0.5112
13443SOL     OW47186   7.677   3.564   0.724  0.3069  0.7645  0.2015
13443SOL    HW147187   7.750   3.624   0.737  0.3651  0.8422 -0.4283
13443SOL    HW247188   7.714   3.477   0.737 -0.1992  0.8774  3.1160
13444SOL     OW47189   1.815   4.751   1.013  0.9949  0.3815  0.2138
13444SOL    HW147190   1.725   4.718   1.008  1.1074  0.0102  0.5361
13444SOL    HW247191   1.849   4.740   0.924  1.2711 -1.1124  0.4712
13445SOL     OW47192   7.376   5.552   3.831 -0.6638 -0.3163  0.1121
13445SOL    HW147193   7.433   5.629   3.837 -0.7687 -0.1656 -0.7154
13445SOL    HW247194   7.424   5.483   3.877 -0.1393 -0.0007  0.0480
13446SOL     OW47195   0.319   7.349  12.372  0.2607 -0.2580 -0.0120
13446SOL    HW147196   0.255   7.371  12.439  0.9377  0.8337  0.2948
13446SOL    HW247197   0.328   7.254  12.377 -0.1244 -0.2441  1.0447
13447SOL     OW47198   7.383   4.246   9.042 -0.2079  0.0057 -0.5858
13447SOL    HW147199   7.380   4.189   8.965  1.2498 -2.3317  0.9779
13447SOL    HW247200   7.291   4.265   9.061 -0.6936 -1.2870 -1.5490
13448SOL     OW47201   9.689   7.700   8.522 -0.0025  0.3697  0.6176
13448SOL    HW147202   9.656   7.712   8.432  1.4314  1.0528  0.1621
13448SOL    HW247203   9.618   7.732   8.578 -1.2633 -0.8159 -0.2118
13449SOL     OW47204  11.028   0.887   9.948 -0.0755 -0.3218  0.1424
13449SOL    HW147205  11.065   0.963   9.993 -0.3485 -0.4893  0.6519
13449SOL    HW247206  11.104   0.843   9.910  0.1830 -0.2998  0.6259
13450SOL     OW47207  12.569   2.438   3.997 -0.3107 -0.2741  0.1909
13450SOL    HW147208  12.573   2.414   3.905 -1.9080 -1.8288  0.4834
13450SOL    HW247209  12.488   2.489   4.006 -0.4125 -0.5352  0.8130
13451SOL     OW47210   4.718   3.148   6.659 -0.0199  0.3991 -0.8771
13451SOL    HW147211   4.707   3.111   6.572  1.0393 -1.8709 -0.1022
13451SOL    HW247212   4.800   3.197   6.654  1.2831 -1.6573 -0.5964
13452SOL     OW47213   6.853   7.610  10.673  1.3243  0.6499  0.1381
13452SOL    HW147214   6.800   7.679  10.713 -1.0133 -0.0897 -1.4683
13452SOL    HW247215   6.834   7.531  10.725  2.0000  0.6566  0.4115
13453SOL     OW47216   9.130   2.318   3.400 -0.0164  0.4615  0.7113
13453SOL    HW147217   9.163   2.408   3.390  1.5555 -0.2037 -0.4277
13453SOL    HW247218   9.189   2.265   3.347 -0.6710 -1.3170  1.6929
13454SOL     OW47219   7.665   1.680   8.346 -0.2233  0.0148 -0.4552
13454SOL    HW147220   7.707   1.729   8.416 -0.2646 -0.8103  0.1592
13454SOL    HW247221   7.575   1.713   8.344 -0.5515 -0.7641  0.6662
13455SOL     OW47222   3.294   7.696   9.083  0.1345  0.0183 -0.5121
13455SOL    HW147223   3.253   7.779   9.057 -0.3759 -0.0417  0.0593
13455SOL    HW247224   3.220   7.637   9.099  0.5070 -0.6783 -1.2968
13456SOL     OW47225   4.113  10.888   1.689 -0.1150  0.3804 -0.2638
13456SOL    HW147226   4.034  10.849   1.726 -0.0123 -0.0122 -0.4467
13456SOL    HW247227   4.185  10.838   1.729  0.0735  1.2139  0.4589
13457SOL     OW47228   7.104  10.428   1.997  0.0731 -0.0626  0.2336
13457SOL    HW147229   7.080  10.416   1.906 -1.4933 -1.7705  0.8046
13457SOL    HW247230   7.149  10.347   2.021 -0.6718 -0.1792  1.2955
13458SOL     OW47231  10.412   3.079   5.522  0.3345 -0.3276  0.0146
13458SOL    HW147232  10.462   3.033   5.454  0.2161  0.4502 -0.6186
13458SOL    HW247233  10.474   3.090   5.594  0.4346 -1.2473  0.0797
13459SOL     OW47234   5.952   5.781   3.902  0.3023  0.0066 -0.2814
13459SOL    HW147235   5.884   5.730   3.858 -0.0567  0.7541 -0.6163
13459SOL    HW247236   6.009   5.810   3.831 -0.1146  0.9717 -0.2480
13460SOL     OW47237   8.560   6.409   4.278 -1.2505  0.5146 -0.5593
13460SOL    HW147238   8.546   6.360   4.197  0.6715  1.7720 -1.7390
13460SOL    HW247239   8.601   6.491   4.250  2.3661 -0.2401  1.8271
13461SOL     OW47240   0.584  10.615   0.493  0.4908 -0.1836  0.2014
13461SOL    HW147241   0.492  10.639   0.503  0.5792 -0.4117  1.9789
13461SOL    HW247242   0.581  10.524   0.462  0.1443  0.1200 -0.7017
13462SOL     OW47243   9.385   6.793   8.635  0.3770  0.1633  0.8255
13462SOL    HW147244   9.435   6.716   8.661  0.2521 -0.2910 -0.2464
13462SOL    HW247245   9.447   6.866   8.646  0.9731 -0.2752  0.4443
13463SOL     OW47246   2.509   5.743  11.650  0.1028  0.2159 -0.2966
13463SOL    HW147247   2.414   5.748  11.644  0.0828 -1.3037 -2.4822
13463SOL    HW247248   2.533   5.674  11.588  2.5962  0.1474  0.6349
13464SOL     OW47249   9.123   5.281  11.158  0.0575  0.6915  0.2178
13464SOL    HW147250   9.135   5.325  11.074  0.5608  0.9430  0.4167
13464SOL    HW247251   9.191   5.318  11.214  0.0127  0.1964  0.6031
13465SOL     OW47252  10.457   2.968   5.267  0.3754  0.4009  0.7142
13465SOL    HW147253  10.421   2.879   5.266 -2.0136  1.3009 -0.5039
13465SOL    HW247254  10.488   2.982   5.177 -3.0814  2.1151 -0.3872
13466SOL     OW47255   8.793   8.608  10.005 -0.5282  0.0669  0.4684
13466SOL    HW147256   8.799   8.513  10.000 -0.6291  0.0616  0.4532
13466SOL    HW247257   8.789   8.627  10.099  2.7674  0.2527  0.7058
13467SOL     OW47258   3.809   1.576   4.213 -0.3060  0.0952  0.2071
13467SOL    HW147259   3.783   1.589   4.122 -0.5485  0.8057  0.3713
13467SOL    HW247260   3.840   1.662   4.242  0.3974 -0.2773  0.5977
13468SOL     OW47261   6.598   9.865   0.698  0.3339 -0.5332  0.3271
13468SOL    HW147262   6.563   9.786   0.656 -0.0964  0.6110 -1.5916
13468SOL    HW247263   6.682   9.880   0.654  0.6840 -0.2482  1.0829
13469SOL     OW47264   7.992   1.127   6.726 -0.5236 -0.0597  0.2931
13469SOL    HW147265   8.007   1.036   6.702  0.6637  0.1222  0.2595
13469SOL    HW247266   8.047   1.141   6.803 -1.3646  0.3982  0.8278
13470SOL     OW47267   4.368  12.062   2.492 -0.2537 -0.0374 -0.3910
13470SOL    HW147268   4.345  12.059   2.399 -0.9209  0.5584 -0.2518
13470SOL    HW247269   4.396  11.972   2.512  0.3357 -0.0603 -1.2690
13471SOL     OW47270  12.154   7.256   0.178  0.4782 -0.6713 -0.0721
13471SOL    HW147271  12.220   7.292   0.236  0.6254 -0.6010 -0.2844
13471SOL    HW247272  12.177   7.288   0.091  1.6041 -2.6173 -0.5572
13472SOL     OW47273   7.915   3.092   3.781 -0.5707 -0.2036  0.3304
13472SOL    HW147274   7.864   3.150   3.837  0.6389 -0.2187  1.4811
13472SOL    HW247275   7.871   3.096   3.696 -0.9041  1.8495  0.5657
13473SOL     OW47276  10.514   2.737   0.136  0.0287 -0.1308  0.6690
13473SOL    HW147277  10.566   2.681   0.079  0.3457  0.6916  0.1198
13473SOL    HW247278  10.536   2.826   0.108 -0.3038  0.2757  1.6476
13474SOL     OW47279   2.824   3.582   3.886  0.4197  0.0617  0.1281
13474SOL    HW147280   2.759   3.557   3.952  1.8302 -2.3606  0.6942
13474SOL    HW247281   2.792   3.543   3.805  0.2331  0.4560  0.0103
13475SOL     OW47282  12.253   7.207  12.329  0.6980 -0.5716  0.3853
13475SOL    HW147283  12.271   7.242  12.241 -0.8070 -0.2415  0.1752
13475SOL    HW247284  12.306   7.128  12.334 -0.6733 -1.7267 -1.6477
13476SOL     OW47285   9.488  11.923  10.268 -0.0070 -0.1082  0.2941
13476SOL    HW147286   9.555  11.857  10.249  1.4103  1.4030 -0.1693
13476SOL    HW247287   9.430  11.921  10.192  0.1086 -0.6945  0.2152
13477SOL     OW47288   0.656  11.259   0.323 -0.1402  0.4130 -0.0231
13477SOL    HW147289   0.684  11.344   0.359  0.9717  0.1634 -0.2638
13477SOL    HW247290   0.695  11.256   0.236 -1.7309  0.4477 -0.7774
13478SOL     OW47291   0.888   5.942  12.225  0.1906 -0.0659 -0.3152
13478SOL    HW147292   0.882   5.944  12.320  0.7581 -2.5674 -0.1606
13478SOL    HW247293   0.928   5.857  12.205 -0.2837  0.2183 -2.8029
13479SOL     OW47294   2.886   7.020  12.228 -0.3141 -0.4997  0.3162
13479SOL    HW147295   2.888   6.925  12.215 -0.3013 -0.2796 -1.5553
13479SOL    HW247296   2.858   7.055  12.144  0.5850  1.2258  0.6969
13480SOL     OW47297   5.680   9.725   9.534 -0.4331  0.0167  0.2923
13480SOL    HW147298   5.653   9.635   9.516 -0.3477 -0.3239  1.7322
13480SOL    HW247299   5.771   9.730   9.506  0.2056 -0.9679  1.9959
13481SOL     OW47300   1.158   0.034   5.087 -0.0064 -1.0231  1.0428
13481SOL    HW147301   1.068   0.008   5.069  0.2322 -1.5799  0.6187
13481SOL    HW247302   1.211  -0.040   5.057  0.6350 -0.4279  0.6701
13482SOL     OW47303   6.567   4.791   1.899 -0.2607 -0.2545 -0.0054
13482SOL    HW147304   6.636   4.827   1.842 -0.3000  0.9240  0.6623
13482SOL    HW247305   6.603   4.708   1.930  0.2749 -0.3226 -0.7653
13483SOL     OW47306   7.287   0.168   4.846  0.6419 -0.7636 -0.0216
13483SOL    HW147307   7.359   0.215   4.889  1.0681  0.0944 -1.5814
13483SOL    HW247308   7.318   0.154   4.757 -0.9452 -0.8065 -0.5977
13484SOL     OW47309   1.887  12.030  12.563  0.2251 -0.2476  0.0021
13484SOL    HW147310   1.972  12.057  12.527  0.4106 -2.1018 -1.1002
13484SOL    HW247311   1.906  12.006  12.653  0.5189  0.9461  0.2750
13485SOL     OW47312   4.274  11.142   4.318  0.2619 -0.3856 -0.1913
13485SOL    HW147313   4.215  11.186   4.380  1.1485  1.4274 -0.5883
13485SOL    HW247314   4.354  11.126   4.369  1.1454  1.4778 -0.9220
13486SOL     OW47315   4.667   6.521   9.883 -0.6743  0.1960  0.2452
13486SOL    HW147316   4.601   6.546   9.818 -1.0705 -0.5026  0.3701
13486SOL    HW247317   4.630   6.445   9.927  1.3933 -1.9784 -1.5362
13487SOL     OW47318  10.523   3.614   2.540  0.8684 -0.0071  0.4518
13487SOL    HW147319  10.500   3.633   2.631  1.3068  1.4071  0.2942
13487SOL    HW247320  10.612   3.647   2.531  0.2858  1.3180 -0.8948
13488SOL     OW47321   9.950  12.231  12.176  0.0439 -0.3761  0.0074
13488SOL    HW147322   9.879  12.168  12.189 -0.4415  0.2506  0.4958
13488SOL    HW247323   9.961  12.272  12.262  1.2948 -0.7676  0.0462
13489SOL     OW47324   6.891   3.880   1.302  0.0548  0.5403  0.2729
13489SOL    HW147325   6.983   3.894   1.279  0.5074 -1.3863  0.7670
13489SOL    HW247326   6.890   3.878   1.398 -0.7519  1.8851  0.3215
13490SOL     OW47327   2.567   0.009   2.534 -0.1605  0.2219  0.4180
13490SOL    HW147328   2.648   0.028   2.487 -0.1241  0.3391  0.5276
13490SOL    HW247329   2.535  -0.072   2.495  2.2141 -2.3200  3.1357
13491SOL     OW47330   5.473   7.916  12.279 -0.1769 -0.2787 -0.0058
13491SOL    HW147331   5.434   7.875  12.202  0.0034  1.8101 -1.2916
13491SOL    HW247332   5.526   7.988  12.244  1.5467 -0.4886  1.9432
13492SOL     OW47333   4.497   7.697   7.596 -0.2339  0.3713  0.3995
13492SOL    HW147334   4.474   7.721   7.686  0.9855 -3.3138  1.8945
13492SOL    HW247335   4.413   7.680   7.553 -0.7839 -0.7438  1.8429
13493SOL     OW47336   4.351   7.743  11.996  0.5766  0.5215 -0.4787
13493SOL    HW147337   4.413   7.778  12.060 -0.7050  2.3923 -0.1840
13493SOL    HW247338   4.388   7.659  11.970  1.6671  0.2044  1.9057
13494SOL     OW47339   3.570   8.138   8.841 -1.0266  0.1306  0.3465
13494SOL    HW147340   3.633   8.173   8.779 -0.4676  0.1821  0.9338
13494SOL    HW247341   3.580   8.043   8.835 -0.1560  0.1591  1.1763
13495SOL     OW47342  11.666   5.892   3.192 -0.4564 -0.4428  0.1822
13495SOL    HW147343  11.651   5.805   3.229 -1.6776 -0.5224 -0.4300
13495SOL    HW247344  11.677   5.877   3.098  1.9988 -0.1816  0.3673
13496SOL     OW47345   7.778   1.094  10.500  0.4354  0.5133 -0.2538
13496SOL    HW147346   7.691   1.120  10.531 -0.2035  0.4571 -1.9064
13496SOL    HW247347   7.778   0.999  10.507 -0.4265  0.3356 -2.1023
13497SOL     OW47348  11.800  10.166   8.385 -0.0408 -0.1301 -0.0014
13497SOL    HW147349  11.804  10.261   8.397  1.8068 -0.2799  1.1153
13497SOL    HW247350  11.728  10.152   8.325 -0.6336  1.9517  0.1421
13498SOL     OW47351   3.100   1.891   0.164 -0.0757  0.1922  0.1179
13498SOL    HW147352   3.181   1.941   0.149  0.5037 -0.5965  0.5054
13498SOL    HW247353   3.090   1.891   0.259  0.5587 -1.3513  0.2147
13499SOL     OW47354   9.209   8.777   8.766 -0.2803  0.3990 -0.5210
13499SOL    HW147355   9.255   8.752   8.686  2.6761 -2.3757  1.8084
13499SOL    HW247356   9.143   8.708   8.778 -0.5194  0.6524 -0.3755
13500SOL     OW47357   9.154   7.112   6.819  0.0887  0.6386 -0.0757
13500SOL    HW147358   9.060   7.129   6.816 -0.1201 -0.0356  1.6320
13500SOL    HW247359   9.163   7.022   6.788  0.3107  1.0805 -1.3277
13501SOL     OW47360   7.243   1.485   3.515  0.4316 -0.3424 -0.6078
13501SOL    HW147361   7.301   1.416   3.481 -0.1129 -0.0913 -2.1387
13501SOL    HW247362   7.260   1.560   3.458 -0.1720  0.2672  0.0089
13502SOL     OW47363  12.293  10.581   9.656 -0.0472 -0.6238 -0.3013
13502SOL    HW147364  12.230  10.527   9.608 -0.1639 -0.1988 -0.6427
13502SOL    HW247365  12.360  10.603   9.591 -0.0246 -0.3232 -0.1796
13503SOL     OW47366   2.122   3.452   3.176 -0.2077 -0.1549  0.2982
13503SOL    HW147367   2.081   3.366   3.188 -0.4760 -0.2664 -1.2185
13503SOL    HW247368   2.049   3.514   3.177  0.0543  0.2225  2.3178
13504SOL     OW47369   8.073   9.288   8.634 -0.4742  0.6692  0.0177
13504SOL    HW147370   8.095   9.268   8.725  1.7828  0.7110 -0.4561
13504SOL    HW247371   7.977   9.292   8.632 -0.6653 -1.2581  1.9755
13505SOL     OW47372  12.246   8.958   0.396  0.3618 -0.1596 -0.0406
13505SOL    HW147373  12.204   9.041   0.372  1.2649  0.2107 -0.3668
13505SOL    HW247374  12.181   8.892   0.373  0.2608  0.3505 -1.3201
13506SOL     OW47375  10.975  10.346   2.192  0.0110 -0.0719 -0.1700
13506SOL    HW147376  11.037  10.402   2.145  0.7340 -0.3385  0.4405
13506SOL    HW247377  11.012  10.258   2.184  0.6725  0.0082  1.6936
13507SOL     OW47378  10.605   7.876   2.357 -0.6183  0.3321 -0.9170
13507SOL    HW147379  10.639   7.806   2.411  0.2830  0.0945 -1.7599
13507SOL    HW247380  10.512   7.883   2.381 -0.1177  0.6533  1.0668
13508SOL     OW47381   0.012   1.956   1.913 -0.4537  0.5015 -0.2530
13508SOL    HW147382   0.042   1.994   1.996 -1.2123  1.7455 -0.5272
13508SOL    HW247383  -0.083   1.969   1.913 -0.3949  1.1567 -1.6093
13509SOL     OW47384   3.213   6.389   8.882 -0.7321  0.5830  0.2969
13509SOL    HW147385   3.154   6.367   8.810  0.3914 -1.2173 -0.1645
13509SOL    HW247386   3.261   6.466   8.852 -0.2298 -0.1835 -0.9515
13510SOL     OW47387  10.770   7.351   0.858 -0.0944 -0.3206 -0.3129
13510SOL    HW147388  10.678   7.361   0.881 -0.3833 -0.1441 -1.4782
13510SOL    HW247389  10.806   7.440   0.865  0.2798 -0.5695  1.2542
13511SOL     OW47390   0.266   3.840   6.949  0.5679  0.1640  0.5707
13511SOL    HW147391   0.211   3.890   7.009 -0.0334  2.0006 -1.3651
13511SOL    HW247392   0.204   3.791   6.895  0.9915 -0.2529  0.4604
13512SOL     OW47393  12.239  10.337   1.575  0.1673 -0.0804  0.0416
13512SOL    HW147394  12.318  10.283   1.569  0.2061 -0.0016 -0.1789
13512SOL    HW247395  12.214  10.333   1.667  0.3893 -0.1634  0.0995
13513SOL     OW47396   8.267   2.972   2.605 -0.3191 -0.3606 -0.2773
13513SOL    HW147397   8.263   2.945   2.513  0.1306  0.8435 -0.6679
13513SOL    HW247398   8.361   2.977   2.625 -0.4131 -1.1113  0.4112
13514SOL     OW47399   1.993  12.455   5.342 -0.5657  0.5805 -0.2505
13514SOL    HW147400   1.985  12.435   5.435 -0.2528  0.4403 -0.2501
13514SOL    HW247401   2.088  12.455   5.326 -0.6181  0.5811 -0.5733
13515SOL     OW47402   3.438  10.771   1.978  0.2461  0.7010 -0.4103
13515SOL    HW147403   3.517  10.720   2.000  1.2242  2.4064  0.2775
13515SOL    HW247404   3.365  10.712   1.995  1.3542 -0.7101 -0.4160
13516SOL     OW47405   3.474  10.601  11.907 -0.4785 -0.2598  0.3476
13516SOL    HW147406   3.513  10.550  11.837 -1.7666  0.7422 -1.1507
13516SOL    HW247407   3.546  10.614  11.970  1.1547  0.1046 -1.5003
13517SOL     OW47408   5.136  10.102  11.236  0.0904 -0.0781  0.1159
13517SOL    HW147409   5.163  10.133  11.322  1.1737  0.6470 -0.4563
13517SOL    HW247410   5.066  10.161  11.209  0.7842  0.6485 -0.1271
13518SOL     OW47411   1.211   9.804   3.957 -0.2875  0.2769  0.2987
13518SOL    HW147412   1.270   9.833   4.026  0.6692  0.0234 -0.3912
13518SOL    HW247413   1.250   9.722   3.925 -0.8697  0.2335 -0.3321
13519SOL     OW47414  12.560   4.602   5.984 -0.5978  0.1339  0.0263
13519SOL    HW147415  12.631   4.638   6.037  0.4331 -1.1940 -0.4068
13519SOL    HW247416  12.596   4.523   5.946 -2.2083 -0.3826 -0.5082
13520SOL     OW47417   6.025   2.287   8.033 -0.1250  0.1154  0.3190
13520SOL    HW147418   6.075   2.274   7.952  0.5548  0.5240  0.6641
13520SOL    HW247419   6.050   2.374   8.063 -0.3819 -0.0249  0.9566
13521SOL     OW47420   9.272   9.619   6.888  0.1593  0.3833  0.4206
13521SOL    HW147421   9.244   9.539   6.844 -0.6566 -0.0407  1.6644
13521SOL    HW247422   9.192   9.655   6.926  0.8020  0.8485  1.3782
13522SOL     OW47423  11.487   6.084   4.018 -0.7167 -0.0442  0.0551
13522SOL    HW147424  11.449   6.168   3.991 -0.0154  0.8797  1.7938
13522SOL    HW247425  11.579   6.090   3.993 -0.7702 -0.5108 -0.2634
13523SOL     OW47426  11.925   3.385  11.315 -0.7669  0.1180  0.1421
13523SOL    HW147427  11.886   3.468  11.289 -1.1864  0.2242  1.0532
13523SOL    HW247428  12.010   3.410  11.352 -0.3891  0.0192 -0.6535
13524SOL     OW47429  10.142   9.080   8.721 -0.2617 -0.4282  0.0398
13524SOL    HW147430  10.214   9.051   8.777 -0.9219  1.2499  1.8886
13524SOL    HW247431  10.143   9.020   8.647  0.8543 -2.5926  1.7073
13525SOL     OW47432  10.591   1.975   0.506  0.1404  0.1916  0.1513
13525SOL    HW147433  10.612   2.009   0.594 -2.6569  0.4698  0.7924
13525SOL    HW247434  10.641   2.031   0.447  1.0523  0.8755  1.4964
13526SOL     OW47435  11.075   4.468   6.076 -0.3331 -0.0702 -0.2716
13526SOL    HW147436  11.060   4.554   6.113 -1.6160 -0.8117  1.0343
13526SOL    HW247437  10.988   4.429   6.068 -0.0681 -0.2492 -3.4704
13527SOL     OW47438   1.230   3.170   2.426 -0.4091  0.1195 -0.0322
13527SOL    HW147439   1.225   3.265   2.418 -2.3093  0.0114 -0.6163
13527SOL    HW247440   1.210   3.137   2.338  1.3794 -0.8440 -0.1398
13528SOL     OW47441   7.143  10.464   8.806  0.1716  0.1181  0.4323
13528SOL    HW147442   7.170  10.527   8.872  2.4539 -1.3631  1.0176
13528SOL    HW247443   7.094  10.398   8.854 -1.8236  1.1075 -0.1103
13529SOL     OW47444   1.829   7.989  11.153  1.0293 -0.2530  0.4277
13529SOL    HW147445   1.911   7.963  11.111  2.2371  1.9034  1.3110
13529SOL    HW247446   1.842   7.966  11.245  1.0703  1.0172  0.7485
13530SOL     OW47447  11.553   9.786  10.529  0.4276 -0.1859  0.1821
13530SOL    HW147448  11.586   9.709  10.482  1.0766  0.9461 -1.2893
13530SOL    HW247449  11.510   9.839  10.462  0.2440  0.8772  1.1103
13531SOL     OW47450  12.186   4.479   0.221 -0.2430 -0.2677  0.4519
13531SOL    HW147451  12.146   4.393   0.206  0.3918 -0.4046 -0.4877
13531SOL    HW247452  12.258   4.484   0.158  1.1681  0.0209  2.0041
13532SOL     OW47453  12.228   7.247   3.569  0.6627 -0.1921 -0.3137
13532SOL    HW147454  12.221   7.152   3.583  1.8885 -0.0863  1.2150
13532SOL    HW247455  12.290   7.255   3.496 -0.0625 -0.5590 -0.9944
13533SOL     OW47456   3.367  10.730   4.332  0.3145 -0.0013 -0.1308
13533SOL    HW147457   3.285  10.704   4.291  0.2283  1.1280 -0.7100
13533SOL    HW247458   3.397  10.652   4.379 -1.2224 -0.3482  0.3157
13534SOL     OW47459   5.311   0.269   5.747 -0.0555  0.5982 -0.0315
13534SOL    HW147460   5.235   0.327   5.746 -1.4423 -1.1172 -0.4695
13534SOL    HW247461   5.277   0.186   5.712  1.8987 -0.3861  0.2953
13535SOL     OW47462   8.071  12.387   7.152  0.4026 -0.7314  0.1036
13535SOL    HW147463   7.985  12.376   7.194  1.1520 -1.8751  1.4299
13535SOL    HW247464   8.053  12.437   7.072 -1.0975  1.5052  1.7443
13536SOL     OW47465   4.544   8.100   1.151  0.7477  0.2574 -0.0901
13536SOL    HW147466   4.554   8.170   1.216 -1.0228 -0.5559  1.1445
13536SOL    HW247467   4.504   8.143   1.076 -0.0652  0.6578  0.5516
13537SOL     OW47468   8.475   4.593   4.314 -0.1861 -0.2925 -0.5047
13537SOL    HW147469   8.526   4.514   4.330  0.3848  0.4139  1.4153
13537SOL    HW247470   8.447   4.585   4.223  4.0026 -0.3581 -2.0170
13538SOL     OW47471   5.907   7.639   9.745 -0.4608  0.3850 -0.2559
13538SOL    HW147472   5.959   7.564   9.715  1.2558  1.5615 -0.3298
13538SOL    HW247473   5.849   7.603   9.812 -1.0901 -1.3860 -1.6581
13539SOL     OW47474   5.880   4.969   2.386  0.2407 -0.1778 -0.4919
13539SOL    HW147475   5.962   4.944   2.429  0.0373  1.9440  1.2734
13539SOL    HW247476   5.812   4.949   2.450 -0.0146  3.5970  0.6480
13540SOL     OW47477   0.904   8.407   5.058  0.1639 -0.1671  0.0914
13540SOL    HW147478   0.897   8.493   5.099 -1.8799 -0.0307 -0.4655
13540SOL    HW247479   0.948   8.353   5.124  0.0120  0.8799  1.0929
13541SOL     OW47480   4.055   1.365   0.291 -0.3322 -0.0234  0.2029
13541SOL    HW147481   4.140   1.321   0.299 -0.6557 -0.3737  2.0959
13541SOL    HW247482   4.052   1.394   0.200  1.7460 -0.1446  0.0480
13542SOL     OW47483   2.793  11.774   5.381  0.3928 -0.3705  0.7774
13542SOL    HW147484   2.789  11.791   5.475  1.3483 -0.2598  0.8089
13542SOL    HW247485   2.880  11.738   5.368  1.0478  1.5020 -0.3687
13543SOL     OW47486  11.971  11.878   2.782  0.2698  0.1069 -0.7406
13543SOL    HW147487  11.948  11.949   2.723 -1.6245  1.9127  1.9314
13543SOL    HW247488  11.932  11.800   2.743  0.5395  0.8972 -2.6643
13544SOL     OW47489   5.282   2.670   1.862 -0.5007 -0.4559 -0.6807
13544SOL    HW147490   5.278   2.712   1.776 -0.6763 -0.0505 -0.4793
13544SOL    HW247491   5.214   2.603   1.859 -0.1485 -0.8036 -1.0409
13545SOL     OW47492   8.137   2.281   8.995  0.3855  0.1495 -0.6541
13545SOL    HW147493   8.089   2.282   9.077  0.8170 -0.7326 -0.3744
13545SOL    HW247494   8.079   2.237   8.933  0.1797  0.5444 -0.7387
13546SOL     OW47495   6.326   1.119   8.135 -0.0063 -0.4987 -0.2822
13546SOL    HW147496   6.355   1.095   8.047 -0.4696 -1.4960 -0.1813
13546SOL    HW247497   6.404   1.113   8.189  0.9245  2.7869 -1.0588
13547SOL     OW47498   1.429   4.067   8.907 -0.2174  0.3373 -0.4945
13547SOL    HW147499   1.421   4.048   8.813 -0.4270  0.4439 -0.4988
13547SOL    HW247500   1.432   3.981   8.949  0.5997  0.2767 -0.6538
13548SOL     OW47501   8.320   0.398  11.620 -0.2284 -0.7227 -0.0858
13548SOL    HW147502   8.398   0.368  11.665 -0.1228  1.2166  1.1417
13548SOL    HW247503   8.312   0.340  11.544  1.5777 -1.8543  0.5322
13549SOL     OW47504   4.634   6.156   4.928  0.4059  0.5835 -0.0341
13549SOL    HW147505   4.665   6.234   4.975  0.1245  1.6557 -1.5511
13549SOL    HW247506   4.557   6.186   4.880  2.1099  0.3156 -3.2071
13550SOL     OW47507  10.134   3.351   0.241  0.5331 -0.8489  0.5580
13550SOL    HW147508  10.221   3.313   0.251  1.5525  0.8528 -1.2289
13550SOL    HW247509  10.104   3.322   0.155  0.9643  1.4930 -0.4571
13551SOL     OW47510   9.429   8.132   6.147  0.2671  0.1803  0.2201
13551SOL    HW147511   9.333   8.139   6.139  0.3122  1.1019  0.3745
13551SOL    HW247512   9.448   8.042   6.121 -0.8046 -0.5528  1.8040
13552SOL     OW47513  11.829   6.150  11.406  0.4689 -0.1421  0.0978
13552SOL    HW147514  11.797   6.155  11.316  2.2073  1.0824 -0.5145
13552SOL    HW247515  11.912   6.197  11.404  1.3212 -1.4496  2.0105
13553SOL     OW47516  10.739   6.555   8.136 -0.2945  0.5587 -0.2231
13553SOL    HW147517  10.789   6.532   8.058  0.9758 -0.6504  0.8980
13553SOL    HW247518  10.661   6.600   8.102  0.2001  0.0472 -2.1675
13554SOL     OW47519   5.216  10.086   0.916  0.2765  0.2121 -0.0211
13554SOL    HW147520   5.211  10.143   0.993  1.4284 -0.6648  0.7286
13554SOL    HW247521   5.246  10.143   0.845  1.4988  0.5326  0.7375
13555SOL     OW47522   3.613   5.422   0.982 -0.2028  0.2118  0.2004
13555SOL    HW147523   3.642   5.371   0.906 -0.2655  0.1645  0.2078
13555SOL    HW247524   3.634   5.366   1.057 -0.1922  0.2345  0.2143
13556SOL     OW47525  10.374   0.760   4.815  0.0034 -0.6180 -0.5057
13556SOL    HW147526  10.335   0.726   4.896 -0.1121  1.0730  0.1981
13556SOL    HW247527  10.299   0.785   4.761  0.0596  0.3096 -0.1846
13557SOL     OW47528  10.896  11.178   9.726 -0.2180 -0.2974 -0.2296
13557SOL    HW147529  10.833  11.162   9.797  0.7644  0.1920  0.7779
13557SOL    HW247530  10.843  11.211   9.654 -1.4821 -2.3632 -0.3228
13558SOL     OW47531   0.187   2.609   6.665  0.0297  0.2738  0.9385
13558SOL    HW147532   0.202   2.650   6.750 -0.3416  0.1483  1.0662
13558SOL    HW247533   0.228   2.523   6.672 -2.2816 -0.8353  1.9474
13559SOL     OW47534   9.417   9.101   5.339 -0.7424  0.2237 -0.4347
13559SOL    HW147535   9.375   9.098   5.253  0.8531 -2.4820 -1.2492
13559SOL    HW247536   9.421   9.009   5.367 -0.4178  0.9371  2.1724
13560SOL     OW47537   1.589   9.682   3.089  0.2626 -0.5421  0.2691
13560SOL    HW147538   1.665   9.668   3.033  0.5602 -0.5087  0.6588
13560SOL    HW247539   1.531   9.738   3.038  0.8646  0.1056  0.2891
13561SOL     OW47540   2.041   3.413   3.635 -0.3479 -0.7764 -0.0005
13561SOL    HW147541   2.129   3.387   3.608  0.5301  0.0406  1.9030
13561SOL    HW247542   2.021   3.489   3.581  0.7129 -0.1311  0.4850
13562SOL     OW47543   9.358  11.693   1.193 -0.6220 -0.4759 -0.5570
13562SOL    HW147544   9.275  11.729   1.165 -0.8806 -0.3826  0.3075
13562SOL    HW247545   9.381  11.741   1.273  0.4111 -0.2869 -0.9436
13563SOL     OW47546  12.058   6.633   6.406 -0.3369  0.2840 -0.0985
13563SOL    HW147547  12.122   6.660   6.471  0.1417  2.4649 -1.3880
13563SOL    HW247548  12.059   6.537   6.410  0.5030  0.3216  2.2408
13564SOL     OW47549   3.618  11.823  12.008 -0.6808  0.3750 -0.1565
13564SOL    HW147550   3.561  11.889  12.047 -1.0486 -0.4024  0.6686
13564SOL    HW247551   3.618  11.751  12.071 -0.4288 -0.4859 -1.1105
13565SOL     OW47552   3.243   0.143   7.835 -0.3882 -0.1289 -0.4090
13565SOL    HW147553   3.200   0.085   7.773 -1.8583  1.8132 -1.3252
13565SOL    HW247554   3.261   0.223   7.784  1.8807  0.1253  0.6877
13566SOL     OW47555   5.797   5.611  11.404  0.3975 -0.4372 -0.4389
13566SOL    HW147556   5.752   5.573  11.479  1.6847 -0.9175  0.1372
13566SOL    HW247557   5.863   5.545  11.381 -0.7160 -0.8246 -2.7585
13567SOL     OW47558   3.381  11.899   4.301  0.2542  0.6616  0.4223
13567SOL    HW147559   3.420  11.949   4.229  0.6447 -0.8622 -0.4628
13567SOL    HW247560   3.454  11.848   4.336 -0.7421 -1.8066 -0.8921
13568SOL     OW47561   4.175   4.161   9.107 -0.0696 -0.2679  0.4619
13568SOL    HW147562   4.192   4.217   9.183 -0.8423 -1.5026  1.6092
13568SOL    HW247563   4.251   4.104   9.101  0.7545  0.9058 -0.7558
13569SOL     OW47564   4.565   7.790   2.049 -0.3524  0.3294  0.3869
13569SOL    HW147565   4.609   7.837   1.977 -1.2389 -1.0129 -1.0862
13569SOL    HW247566   4.517   7.858   2.095  0.4889  1.2768 -0.0825
13570SOL     OW47567   1.364   4.600  12.397 -0.8282 -0.0782  0.5846
13570SOL    HW147568   1.325   4.686  12.414  0.5632  0.9051 -0.8653
13570SOL    HW247569   1.327   4.575  12.312  0.0882 -0.0798  0.1748
13571SOL     OW47570   9.267  11.574   9.619 -0.3321  0.3230 -0.3261
13571SOL    HW147571   9.218  11.543   9.542 -0.0662  0.3714 -0.5178
13571SOL    HW247572   9.281  11.667   9.602  0.4694  0.1566 -0.6291
13572SOL     OW47573   5.953   0.272  10.317  0.2536 -0.0885  0.3082
13572SOL    HW147574   5.900   0.351  10.320  0.8411  0.4305 -1.4560
13572SOL    HW247575   5.960   0.244  10.408  2.6288  3.6666  1.5661
13573SOL     OW47576   8.955   0.810   1.050  0.0151 -0.0989 -0.6218
13573SOL    HW147577   8.944   0.879   0.985 -0.9420  0.0942 -0.2771
13573SOL    HW247578   8.868   0.799   1.088  0.6912  0.3132  1.1435
13574SOL     OW47579   2.657   8.390   9.619 -0.7021  0.4040 -0.0251
13574SOL    HW147580   2.732   8.444   9.596  0.6106 -0.4726  1.9327
13574SOL    HW247581   2.586   8.452   9.633 -0.0280  1.3580 -0.7551
13575SOL     OW47582   4.982   7.571   0.858 -0.0031  0.5613 -0.2039
13575SOL    HW147583   5.067   7.535   0.882  0.6672  1.7861 -0.6755
13575SOL    HW247584   4.938   7.500   0.812  0.4732 -0.3154  0.6452
13576SOL     OW47585  10.111   8.694   3.010 -0.1870  0.2033 -0.5316
13576SOL    HW147586  10.206   8.686   3.016 -0.0851  0.4920 -1.4994
13576SOL    HW247587  10.088   8.645   2.931 -0.9030 -0.2763 -0.0360
13577SOL     OW47588   7.770   4.324   6.058 -0.1290 -0.2941 -0.2839
13577SOL    HW147589   7.730   4.306   6.143 -0.2671 -0.5668 -0.4025
13577SOL    HW247590   7.864   4.312   6.073 -0.1062  0.1852 -0.0431
13578SOL     OW47591   6.648   3.195   2.187  0.0433  0.6328 -0.5162
13578SOL    HW147592   6.728   3.213   2.138 -0.4867  1.0346 -1.2573
13578SOL    HW247593   6.631   3.102   2.173  1.2877  0.1384  1.0435
13579SOL     OW47594   7.833   2.014   5.365 -0.2141 -0.1413 -0.4709
13579SOL    HW147595   7.833   2.096   5.415  0.7774 -0.6194  0.3619
13579SOL    HW247596   7.742   1.985   5.366 -0.4974  0.7103 -0.3811
13580SOL     OW47597   7.684   1.859   2.338 -0.6952  0.2721 -0.1527
13580SOL    HW147598   7.734   1.876   2.258  0.6372 -1.0082  0.3893
13580SOL    HW247599   7.643   1.773   2.323 -1.4548  0.5831  0.0631
13581SOL     OW47600   4.570   7.502   7.244  0.4541 -0.0756 -0.1383
13581SOL    HW147601   4.570   7.457   7.159 -1.8331  1.2960 -0.9393
13581SOL    HW247602   4.663   7.514   7.263  1.1072 -2.5150 -1.2531
13582SOL     OW47603   7.677   9.477   1.421 -0.3099  0.2442  0.3910
13582SOL    HW147604   7.638   9.390   1.413 -0.5223  0.4655 -1.2656
13582SOL    HW247605   7.762   9.469   1.379 -0.7002  1.0491 -0.5924
13583SOL     OW47606   4.880   8.191   1.010 -0.4112 -0.0278  0.2875
13583SOL    HW147607   4.820   8.265   1.006 -0.7792 -0.3275  0.1980
13583SOL    HW247608   4.962   8.228   1.042 -0.4874  0.4854 -0.0947
13584SOL     OW47609   2.748   0.567   1.710 -0.2552  0.2212  0.0302
13584SOL    HW147610   2.839   0.592   1.693 -0.2161 -1.0267 -2.0027
13584SOL    HW247611   2.743   0.558   1.805  2.8798 -3.3807  0.1095
13585SOL     OW47612   1.207   0.956   3.331 -0.0106  0.1193  0.0211
13585SOL    HW147613   1.198   0.909   3.248  0.0677 -2.3164  1.3034
13585SOL    HW247614   1.299   0.945   3.356  0.3669  2.1948 -0.2761
13586SOL     OW47615   6.727   5.475  11.863  0.3818  0.0411 -0.1301
13586SOL    HW147616   6.746   5.494  11.771  1.7672  0.3227  0.1927
13586SOL    HW247617   6.670   5.546  11.891  1.0507  0.6968 -0.4104
13587SOL     OW47618   8.616   9.550   0.619  0.5045  0.1795  0.4731
13587SOL    HW147619   8.530   9.583   0.646  0.5813 -0.6475  1.8133
13587SOL    HW247620   8.676   9.587   0.684  0.9290 -0.5920  0.5199
13588SOL     OW47621  10.210  10.010  11.668  0.0404 -0.2821 -0.2160
13588SOL    HW147622  10.218  10.102  11.691  0.5615 -0.9215  2.4713
13588SOL    HW247623  10.156   9.972  11.738  0.9112 -2.2415 -0.5388
13589SOL     OW47624   5.121   2.179   7.352 -0.2009  0.1096 -0.1400
13589SOL    HW147625   5.039   2.219   7.325 -0.8583 -0.5319  0.8638
13589SOL    HW247626   5.106   2.150   7.442  0.9526 -0.4802 -0.1126
13590SOL     OW47627   2.856   1.145   7.590 -0.1239  0.5280  0.6099
13590SOL    HW147628   2.832   1.208   7.522 -0.9299 -2.0867 -1.6953
13590SOL    HW247629   2.773   1.107   7.618  0.4692 -2.3938 -1.1414
13591SOL     OW47630   5.675   3.113  10.104 -0.1365  0.3794 -0.3002
13591SOL    HW147631   5.673   3.034  10.050  0.8358  0.6490 -0.7778
13591SOL    HW247632   5.760   3.152  10.084 -0.7115  1.6890 -0.2899
13592SOL     OW47633   4.729  11.416   5.244 -0.1792 -0.2575 -0.1579
13592SOL    HW147634   4.812  11.372   5.263  0.7618  1.5034  0.0476
13592SOL    HW247635   4.662  11.354   5.273  0.9302 -2.7028 -2.4123
13593SOL     OW47636   5.762   1.270   8.428  0.4641 -0.3456 -0.0797
13593SOL    HW147637   5.709   1.321   8.489 -0.0587  0.5217 -1.2272
13593SOL    HW247638   5.699   1.224   8.373  0.9096 -0.5282 -0.4560
13594SOL     OW47639   5.761   2.875   0.799 -0.2768 -0.0623  0.3103
13594SOL    HW147640   5.776   2.964   0.766  1.4568 -0.3466  0.2345
13594SOL    HW247641   5.749   2.886   0.894 -4.3248  0.6484 -0.0868
13595SOL     OW47642   7.984   6.142   5.497 -0.2889  0.0691  1.0089
13595SOL    HW147643   7.997   6.062   5.548 -2.5940 -0.4370  0.9356
13595SOL    HW247644   8.066   6.154   5.450 -0.2678 -3.0661 -0.0217
13596SOL     OW47645   3.602   0.429  10.559 -0.5932  0.8276 -0.3730
13596SOL    HW147646   3.675   0.393  10.508 -2.3080 -1.7639 -1.2225
13596SOL    HW247647   3.637   0.439  10.647  0.6728 -0.8624 -0.6326
13597SOL     OW47648   3.222   4.267   4.505 -0.7927  0.4889  0.1977
13597SOL    HW147649   3.254   4.321   4.433  3.3688  0.5803  1.8455
13597SOL    HW247650   3.257   4.180   4.488 -1.1871  0.1021  1.2579
13598SOL     OW47651   1.018   3.246  10.515  0.1779  0.3388  0.1462
13598SOL    HW147652   1.003   3.204  10.430  1.6586 -0.1754  0.0985
13598SOL    HW247653   1.054   3.333  10.493  1.1168 -0.0169  0.2226
13599SOL     OW47654  10.012   9.842   8.832 -0.0954 -0.0916  0.4009
13599SOL    HW147655  10.047   9.922   8.871  0.0970  0.0289 -0.0169
13599SOL    HW247656   9.999   9.863   8.740  0.9540 -0.8588  0.0552
13600SOL     OW47657   7.604   6.682  10.655  0.0833  0.2471 -0.5164
13600SOL    HW147658   7.645   6.599  10.678  0.8634  0.4493 -1.1551
13600SOL    HW247659   7.512   6.660  10.642  0.1769 -0.4088 -0.1143
13601SOL     OW47660   1.010   4.579   5.925 -0.0245 -0.3467  0.4579
13601SOL    HW147661   1.073   4.585   5.997 -2.1917 -0.1463  2.4679
13601SOL    HW247662   1.046   4.636   5.857  2.6396 -1.3480  0.8919
13602SOL     OW47663  11.514   3.354   3.224  0.0394  0.5183 -0.1216
13602SOL    HW147664  11.534   3.348   3.318  0.3667 -1.0164 -0.2585
13602SOL    HW247665  11.512   3.448   3.206 -1.8096  0.9197  1.7829
13603SOL     OW47666   1.337  12.420   9.560  0.1274 -0.8777  0.0170
13603SOL    HW147667   1.272  12.407   9.629 -0.1862  2.0465  0.3698
13603SOL    HW247668   1.355  12.331   9.527 -0.7869 -2.2059  2.8195
13604SOL     OW47669   0.907   7.652   7.989  0.3253  0.6386 -0.2876
13604SOL    HW147670   0.836   7.665   8.052  0.5398 -0.1014  0.1154
13604SOL    HW247671   0.908   7.557   7.972 -0.8187  0.9615 -2.6776
13605SOL     OW47672   9.815   9.699   9.633  1.1952 -0.3124  0.0021
13605SOL    HW147673   9.871   9.662   9.702  1.1837  1.9513  1.3334
13605SOL    HW247674   9.732   9.716   9.677  1.0303  0.7491 -0.6828
13606SOL     OW47675   7.265   5.894   8.246  0.1189  0.3991 -0.1757
13606SOL    HW147676   7.176   5.879   8.277 -0.2480  2.5755  0.0157
13606SOL    HW247677   7.258   5.891   8.151 -0.0186 -0.1204 -0.1488
13607SOL     OW47678   1.684   8.125   5.760  0.3948 -0.2608 -0.1813
13607SOL    HW147679   1.664   8.216   5.739 -0.9286 -0.7889 -1.3521
13607SOL    HW247680   1.713   8.128   5.852  1.5980  1.4755 -0.5606
13608SOL     OW47681   3.901   3.587   9.131  0.3242 -0.1298 -0.6262
13608SOL    HW147682   3.901   3.512   9.190 -3.9719  1.2356  1.5050
13608SOL    HW247683   3.924   3.661   9.186  1.7611  0.5513 -2.0590
13609SOL     OW47684   5.061   0.972   1.855  0.3643 -0.0725 -0.0866
13609SOL    HW147685   5.111   1.053   1.860  0.3855 -0.1309  1.2429
13609SOL    HW247686   5.008   0.972   1.935  0.2885 -1.3138 -0.1069
13610SOL     OW47687   2.387   8.724  10.090 -0.2188 -0.3217  0.5292
13610SOL    HW147688   2.316   8.742  10.029  1.0454 -0.6965 -1.1332
13610SOL    HW247689   2.434   8.807  10.099  1.1675 -0.8382 -1.2056
13611SOL     OW47690  11.932  12.018   0.884 -0.4088  0.4720 -0.3461
13611SOL    HW147691  11.918  11.945   0.944 -0.1362  0.3575 -0.4197
13611SOL    HW247692  11.848  12.064   0.882 -0.0867  1.1509  1.0095
13612SOL     OW47693  10.979   1.716   4.831  0.2586  0.7930  0.1308
13612SOL    HW147694  10.917   1.779   4.868  1.2489  1.2717  1.0356
13612SOL    HW247695  11.042   1.769   4.784  1.3288  0.5442  1.2312
13613SOL     OW47696   8.127  11.472  11.276 -0.1206  0.2353  0.5405
13613SOL    HW147697   8.061  11.449  11.210  0.8723 -0.3342 -0.2913
13613SOL    HW247698   8.129  11.397  11.335  0.3499 -0.0981  0.1003
13614SOL     OW47699   6.723   4.401   1.229  0.5107  0.3330 -0.2529
13614SOL    HW147700   6.747   4.314   1.198  0.8576  0.8073 -1.3647
13614SOL    HW247701   6.674   4.385   1.310 -1.1902 -1.0126 -1.4723
13615SOL     OW47702   9.880  10.084   0.177  0.6818 -0.1089 -0.4996
13615SOL    HW147703   9.877  10.178   0.191  0.2790 -0.3459  1.2411
13615SOL    HW247704   9.789  10.058   0.164  0.8464 -0.1915 -1.5174
13616SOL     OW47705   3.135   4.366   6.417 -0.0880 -0.3798  0.2571
13616SOL    HW147706   3.217   4.396   6.458 -0.9898  0.4129  1.5457
13616SOL    HW247707   3.078   4.346   6.490 -0.4008 -2.9352 -0.5966
13617SOL     OW47708   9.435   1.198   4.143  0.5812 -0.1312  0.1209
13617SOL    HW147709   9.499   1.127   4.138  0.2480 -0.3305 -2.3805
13617SOL    HW247710   9.482   1.275   4.110 -0.0232  0.0558 -0.3194
13618SOL     OW47711   0.221   9.622  10.004  0.3732  0.2066  0.1815
13618SOL    HW147712   0.293   9.562  10.023  1.4019  0.4583 -2.5153
13618SOL    HW247713   0.246   9.703  10.048  1.6756  0.2296 -0.5582
13619SOL     OW47714  12.457   5.716   3.910 -0.1263 -0.0287  0.7380
13619SOL    HW147715  12.516   5.746   3.841 -1.7696  1.6219 -0.0189
13619SOL    HW247716  12.373   5.704   3.867 -0.8636 -0.2984  2.1939
13620SOL     OW47717   0.634   3.540   0.740  0.2755  0.1875 -0.6659
13620SOL    HW147718   0.551   3.531   0.692  0.3967 -1.0665 -0.6789
13620SOL    HW247719   0.675   3.454   0.732  1.4875  0.7367 -0.4782
13621SOL     OW47720   1.124   1.709   1.247  0.5328  0.0755  0.1316
13621SOL    HW147721   1.187   1.638   1.235  0.7159 -0.2442  2.5202
13621SOL    HW247722   1.176   1.789   1.242  0.4602  0.0527 -1.7115
13622SOL     OW47723   5.507  12.310   8.097 -0.2772  0.4136  0.1961
13622SOL    HW147724   5.475  12.391   8.056 -1.2984 -0.4103 -0.7097
13622SOL    HW247725   5.583  12.284   8.045  1.9459  2.2948  2.2608
13623SOL     OW47726  11.877  11.009  10.400  0.5824 -0.1434  0.2937
13623SOL    HW147727  11.943  10.942  10.418  1.1721  0.5294  0.7369
13623SOL    HW247728  11.897  11.038  10.311  0.8089 -0.0401  0.3753
13624SOL     OW47729  12.034   6.650   2.222  0.0499  0.1714 -0.0274
13624SOL    HW147730  12.035   6.705   2.143  0.5707  2.2471  1.3469
13624SOL    HW247731  11.997   6.567   2.193 -0.1242  0.9960 -2.3711
13625SOL     OW47732   4.631  11.021   8.981  0.5244 -0.4266  0.7416
13625SOL    HW147733   4.590  11.107   8.976  0.8882 -0.3266 -1.2619
13625SOL    HW247734   4.562  10.960   8.955  0.6850 -0.5980  0.7163
13626SOL     OW47735   3.846   4.694   0.634  0.4665 -0.2553  0.8827
13626SOL    HW147736   3.923   4.711   0.688 -0.2254  2.5535  1.1693
13626SOL    HW247737   3.774   4.739   0.680 -1.0233 -1.3939 -0.2099
13627SOL     OW47738  10.097  11.221   1.233 -0.2490 -0.5229  0.2879
13627SOL    HW147739  10.075  11.133   1.263  0.2079 -0.4653  0.8063
13627SOL    HW247740  10.155  11.256   1.301 -1.2678  0.5720  0.6455
13628SOL     OW47741   4.807   3.743  10.213 -0.2533 -0.5849  0.5571
13628SOL    HW147742   4.722   3.755  10.255 -1.1967  1.6258 -1.6875
13628SOL    HW247743   4.786   3.712  10.125  1.2715 -0.3524  0.0715
13629SOL     OW47744  12.397  11.306   3.834 -0.2873  0.3595  0.4448
13629SOL    HW147745  12.478  11.354   3.850  0.0241 -0.4011  1.2585
13629SOL    HW247746  12.383  11.313   3.740  1.3595 -0.4461  0.1056
13630SOL     OW47747  11.065   7.953   7.147 -0.4334 -0.4469  0.5375
13630SOL    HW147748  11.079   7.999   7.065 -0.4701 -0.5125  0.4946
13630SOL    HW247749  11.006   7.881   7.124 -0.9131 -0.1234  0.7360
13631SOL     OW47750   5.069   4.625   5.221  0.1236 -0.6587  0.0497
13631SOL    HW147751   5.042   4.672   5.142 -3.2107 -0.6956  1.0540
13631SOL    HW247752   5.049   4.534   5.203  1.3235 -0.9788  0.2165
13632SOL     OW47753   1.253  12.555   2.622  0.3897  0.1753  0.4451
13632SOL    HW147754   1.303  12.490   2.671  0.1768  0.2592  0.7742
13632SOL    HW247755   1.319  12.620   2.594  0.9445 -1.1477 -1.5484
13633SOL     OW47756   5.059   8.285   3.009  0.3837  0.9575 -0.2270
13633SOL    HW147757   5.112   8.307   2.933  0.5150 -0.1593 -0.4719
13633SOL    HW247758   5.117   8.237   3.067  0.0222  0.9631  0.1502
13634SOL     OW47759   3.466   4.554  10.329 -0.5439 -0.6557 -0.2937
13634SOL    HW147760   3.447   4.504  10.408  0.8937  2.3085  2.1719
13634SOL    HW247761   3.552   4.522  10.300 -0.8976 -1.4832 -0.4506
13635SOL     OW47762   7.614   2.455   4.803 -0.3238 -0.1140  0.1568
13635SOL    HW147763   7.691   2.508   4.823  0.3717 -0.0928 -2.2672
13635SOL    HW247764   7.594   2.409   4.885  1.0786  1.3333  1.3675
13636SOL     OW47765   5.501  11.377   3.438 -0.4530 -0.2394 -0.1985
13636SOL    HW147766   5.480  11.410   3.526  1.8766 -1.6900  1.0343
13636SOL    HW247767   5.420  11.338   3.407 -0.9569 -1.2026  2.0921
13637SOL     OW47768   9.968   4.320   5.631  0.9012  0.7280 -0.0243
13637SOL    HW147769   9.979   4.242   5.577 -0.0619 -0.0266  0.8360
13637SOL    HW247770  10.044   4.320   5.689  0.4744 -0.0605  0.5521
13638SOL     OW47771   3.203   2.951   9.451 -0.0255  0.0714  0.2657
13638SOL    HW147772   3.246   2.885   9.397 -0.6911  0.2093 -0.4555
13638SOL    HW247773   3.168   2.902   9.525  0.1564 -0.2583  0.1395
13639SOL     OW47774   8.293   3.535   5.099  0.0923  0.0492 -0.0653
13639SOL    HW147775   8.244   3.543   5.018  1.0553  0.4361 -0.6356
13639SOL    HW247776   8.337   3.620   5.108  2.2777 -0.9444 -0.6913
13640SOL     OW47777   5.208  11.906   3.165 -0.3890  0.1691  0.5342
13640SOL    HW147778   5.278  11.938   3.108  0.3994 -1.5024  0.5172
13640SOL    HW247779   5.254  11.867   3.240 -1.2072 -2.2346 -0.1447
13641SOL     OW47780   9.211   5.146   2.884  0.5229  0.0264 -0.0111
13641SOL    HW147781   9.158   5.068   2.897  0.0543  0.4857  0.9783
13641SOL    HW247782   9.234   5.174   2.973 -0.9708  2.1065 -0.2178
13642SOL     OW47783   8.723   8.919   1.750  0.0060  0.6457  0.2003
13642SOL    HW147784   8.735   8.997   1.803 -1.8509  0.0478  1.6020
13642SOL    HW247785   8.764   8.849   1.800 -2.2633 -0.0250  1.2599
13643SOL     OW47786   0.551   7.681   7.930  0.2651  0.0593  0.0304
13643SOL    HW147787   0.503   7.739   7.989 -0.5089 -0.1367 -0.3796
13643SOL    HW247788   0.591   7.740   7.866 -0.6887  0.1490 -0.5053
13644SOL     OW47789   3.369   6.224  11.760  0.3866  0.0654 -0.3869
13644SOL    HW147790   3.428   6.162  11.718  0.3265  0.0321 -0.4235
13644SOL    HW247791   3.401   6.310  11.734  1.7511  0.1389  1.3767
13645SOL     OW47792   1.665   1.413  12.496 -0.2390  0.3070 -0.6180
13645SOL    HW147793   1.606   1.386  12.426 -0.6409  2.1980 -1.0635
13645SOL    HW247794   1.671   1.508  12.487  1.4370  0.3540  0.5664
13646SOL     OW47795   9.425   1.781  10.889 -0.2661 -0.5520 -0.2807
13646SOL    HW147796   9.459   1.695  10.914  0.4467 -0.3629 -0.5644
13646SOL    HW247797   9.442   1.787  10.795  0.8364  0.3902 -0.0502
13647SOL     OW47798   0.328   4.235   9.152 -0.5283 -1.0701 -0.1765
13647SOL    HW147799   0.247   4.283   9.132 -0.1616 -0.5318 -0.3720
13647SOL    HW247800   0.390   4.264   9.085  1.0354  1.5464  2.1700
13648SOL     OW47801  11.049  10.535   1.933  0.2494  0.4800 -0.2918
13648SOL    HW147802  11.008  10.498   1.855  0.3920  0.7544 -0.4952
13648SOL    HW247803  10.981  10.589   1.973  0.1199  0.1995 -0.1295
13649SOL     OW47804   6.990  12.394   9.089 -0.3950  0.1961  0.3740
13649SOL    HW147805   7.068  12.349   9.056  0.4649  1.1914  0.9911
13649SOL    HW247806   6.971  12.352   9.173 -0.4142  0.0686  0.3057
13650SOL     OW47807   7.601   9.631   1.062 -0.2029 -0.3104  0.1488
13650SOL    HW147808   7.682   9.579   1.062 -1.7686 -2.9465 -1.0091
13650SOL    HW247809   7.548   9.593   0.992 -2.0489  2.0663  0.1215
13651SOL     OW47810  10.961  11.332   1.060  0.2333  0.1714  0.4247
13651SOL    HW147811  11.019  11.256   1.065 -0.9153 -0.7431  0.2378
13651SOL    HW247812  10.873  11.295   1.064 -0.4931  1.1507 -3.2253
13652SOL     OW47813   1.094   5.448   4.421  0.6649 -0.1897 -0.1225
13652SOL    HW147814   1.080   5.415   4.510  1.3611 -1.6918 -0.5446
13652SOL    HW247815   1.169   5.399   4.388  0.1635  0.0281 -1.6876
13653SOL     OW47816   4.975   6.088   7.370  0.1774 -0.1588  0.2677
13653SOL    HW147817   4.931   6.064   7.452 -0.4345  0.4798  0.1325
13653SOL    HW247818   5.064   6.057   7.381  0.3007  0.5584  1.4750
13654SOL     OW47819  12.176  11.776   3.448 -0.3442  0.4465 -0.0252
13654SOL    HW147820  12.174  11.694   3.399 -1.4288  0.7949 -0.5928
13654SOL    HW247821  12.112  11.831   3.404 -2.0406  0.4646  2.3327
13655SOL     OW47822  11.263   8.825   4.435 -0.1480 -0.1321 -0.1368
13655SOL    HW147823  11.214   8.774   4.371  1.2649  0.5757 -1.8786
13655SOL    HW247824  11.274   8.911   4.394  1.5357  0.0826  0.6773
13656SOL     OW47825  12.187  10.099   9.322  0.5123  0.0528 -0.2867
13656SOL    HW147826  12.255  10.163   9.301 -0.0388  0.1175 -1.9947
13656SOL    HW247827  12.216  10.018   9.280  0.4317 -0.4247  0.5495
13657SOL     OW47828   0.825   3.867   1.073  0.0682 -0.5236  0.2693
13657SOL    HW147829   0.867   3.949   1.098  0.6558 -0.4443 -0.9062
13657SOL    HW247830   0.757   3.893   1.010  0.7295 -0.9832 -0.6574
13658SOL     OW47831   6.995   7.212   7.601 -0.1959 -0.1942 -0.2413
13658SOL    HW147832   7.046   7.144   7.558  1.4324  2.1623 -2.3154
13658SOL    HW247833   7.056   7.252   7.663 -0.0037  1.5032 -1.4687
13659SOL     OW47834   8.441   1.807   9.959 -0.0392 -0.7842 -0.1416
13659SOL    HW147835   8.350   1.792   9.932 -0.4105  1.1846 -0.1593
13659SOL    HW247836   8.435   1.831  10.051  0.3635  0.0757 -0.3295
13660SOL     OW47837   2.538   5.779   6.862 -0.2042  0.5841 -0.1776
13660SOL    HW147838   2.562   5.786   6.769 -0.7372  1.2179 -0.2770
13660SOL    HW247839   2.485   5.857   6.879 -0.0878  0.4884  0.6725
13661SOL     OW47840   1.256   7.881   7.731  0.0959  0.0643 -0.7009
13661SOL    HW147841   1.300   7.838   7.804  1.7835  0.0888 -1.6529
13661SOL    HW247842   1.319   7.947   7.701 -0.2290 -0.4605 -2.6531
13662SOL     OW47843   5.797   7.677  10.679  0.2665  0.4506  0.4889
13662SOL    HW147844   5.864   7.612  10.659 -0.5735  0.2035 -1.9623
13662SOL    HW247845   5.723   7.625  10.712 -0.4061  0.0525 -1.4696
13663SOL     OW47846   6.604   6.785   4.199  0.3397  0.4316  0.0851
13663SOL    HW147847   6.610   6.695   4.231  1.5429  0.8840  1.1986
13663SOL    HW247848   6.523   6.818   4.237 -0.2794 -0.2586 -0.5922
13664SOL     OW47849  10.988   3.141   9.589  0.1587  0.1317  0.1837
13664SOL    HW147850  11.018   3.156   9.678  0.6933  0.8426 -0.1058
13664SOL    HW247851  11.048   3.076   9.554 -2.5181 -3.4664  1.6318
13665SOL     OW47852   7.746   4.514   8.174 -0.0317  0.1800 -0.3306
13665SOL    HW147853   7.733   4.427   8.213 -0.1510 -0.0938 -0.9680
13665SOL    HW247854   7.823   4.549   8.218  1.0704 -0.9649 -1.2848
13666SOL     OW47855   0.577   3.374   3.180  0.2085  0.4026 -0.3845
13666SOL    HW147856   0.493   3.416   3.197 -0.7131 -1.5955  0.3743
13666SOL    HW247857   0.631   3.398   3.255 -0.6351 -0.5209  0.5487
13667SOL     OW47858  12.133   7.630   8.859 -0.2680 -0.1236  0.3840
13667SOL    HW147859  12.049   7.614   8.817 -0.2367  1.8483 -0.5271
13667SOL    HW247860  12.194   7.572   8.813 -0.9418 -0.8088  0.3475
13668SOL     OW47861  11.919   7.780   1.348 -0.0915 -0.3894  0.0530
13668SOL    HW147862  11.998   7.834   1.356 -1.3414  1.5496 -0.0215
13668SOL    HW247863  11.865   7.825   1.283 -1.1936 -1.7747 -0.0402
13669SOL     OW47864   4.518   2.758   3.428  0.2195  0.3745  0.3442
13669SOL    HW147865   4.448   2.692   3.432  0.7292 -0.2382 -0.4350
13669SOL    HW247866   4.569   2.743   3.507 -1.7326  2.2715  2.1021
13670SOL     OW47867   6.535   7.398   3.085  0.2997  0.1070 -0.0000
13670SOL    HW147868   6.578   7.419   3.168 -0.5703  0.1128  0.4646
13670SOL    HW247869   6.523   7.303   3.088 -0.3815  0.1905  0.2201
13671SOL     OW47870  11.118   7.736   6.486 -0.3117 -0.0352  0.6041
13671SOL    HW147871  11.036   7.763   6.445 -0.1108 -1.9591 -1.2216
13671SOL    HW247872  11.091   7.688   6.564 -0.9542 -0.9478 -0.1678
13672SOL     OW47873   6.898  10.289   7.316  0.7082  0.1163 -0.3028
13672SOL    HW147874   6.981  10.304   7.361  1.4909 -1.4700 -1.1323
13672SOL    HW247875   6.833  10.284   7.387  1.7530 -1.2968  0.6142
13673SOL     OW47876  10.045   5.991   9.546 -0.1365 -0.4569 -0.1337
13673SOL    HW147877   9.971   5.934   9.525 -1.5751  0.8648  1.0705
13673SOL    HW247878  10.042   6.060   9.480 -0.2828 -0.1609  0.1752
13674SOL     OW47879   9.633  10.293   0.937 -0.1371  0.5130  0.1028
13674SOL    HW147880   9.544  10.290   0.903 -0.5066 -1.1515  1.0405
13674SOL    HW247881   9.636  10.371   0.992 -1.2953  0.1823  0.6722
13675SOL     OW47882  11.012   8.146   0.553 -0.3071 -0.0302 -0.2035
13675SOL    HW147883  11.064   8.071   0.578 -0.3658  0.0740  0.2393
13675SOL    HW247884  11.031   8.159   0.460  0.7055  0.2117  0.0312
13676SOL     OW47885   0.558   3.531   9.936 -0.3099 -0.1930 -0.4595
13676SOL    HW147886   0.609   3.587   9.995 -0.8669 -0.9964  0.8321
13676SOL    HW247887   0.625   3.487   9.883  0.3808 -0.9165  0.9212
13677SOL     OW47888   4.599  11.214   8.522  0.1640  0.2988  0.1912
13677SOL    HW147889   4.675  11.271   8.511 -0.4826  0.9474 -1.2152
13677SOL    HW247890   4.622  11.133   8.478  0.2216  0.3164  0.1898
13678SOL     OW47891   1.740   5.153   1.913 -0.1255  0.2331 -0.7213
13678SOL    HW147892   1.826   5.118   1.937  0.0656  0.5164 -0.9941
13678SOL    HW247893   1.679   5.082   1.932  0.0589  0.3433  0.3301
13679SOL     OW47894   5.812   3.522   5.955 -0.4032 -0.4180  0.0081
13679SOL    HW147895   5.734   3.472   5.980  0.7136 -1.3579  1.7849
13679SOL    HW247896   5.825   3.501   5.863 -1.5157 -1.2435  0.0167
13680SOL     OW47897   9.344  10.492  10.193  0.6989 -0.7736 -0.4073
13680SOL    HW147898   9.426  10.486  10.241  0.3148  2.9809  1.0804
13680SOL    HW247899   9.330  10.586  10.182 -3.4028 -1.2354 -0.6032
13681SOL     OW47900   2.306   4.772   5.393  0.0139 -0.0663  0.4916
13681SOL    HW147901   2.248   4.827   5.446 -1.4284 -1.4282  0.3892
13681SOL    HW247902   2.341   4.708   5.454 -0.4615 -0.6984  0.1214
13682SOL     OW47903   1.630   9.481   0.182 -0.3237  0.3123  0.0543
13682SOL    HW147904   1.537   9.460   0.191 -0.1095 -0.8249 -0.1697
13682SOL    HW247905   1.642   9.561   0.232 -1.4525  0.5493 -0.0311
13683SOL     OW47906   0.074   3.119   4.944  0.1371  0.2981 -0.0427
13683SOL    HW147907   0.093   3.042   4.891 -1.6271 -0.0755 -0.1878
13683SOL    HW247908  -0.021   3.131   4.936 -0.3307 -0.0901  3.4127
13684SOL     OW47909   7.651  11.544   0.107  0.3089  0.2697 -0.3419
13684SOL    HW147910   7.648  11.507   0.195 -0.5168  0.8377 -0.1194
13684SOL    HW247911   7.711  11.618   0.114  2.3648 -1.2448 -0.9036
13685SOL     OW47912   7.616   9.071   5.459  0.3380 -0.2139  0.2241
13685SOL    HW147913   7.699   9.085   5.412  1.0590 -1.0766  1.1885
13685SOL    HW247914   7.549   9.086   5.393  1.3103 -0.8985 -0.9690
13686SOL     OW47915   7.842   0.791   9.050 -0.1913 -1.0679  0.5611
13686SOL    HW147916   7.828   0.820   9.140  1.8842  0.2163  0.5401
13686SOL    HW247917   7.870   0.700   9.058  0.2564 -0.8769  1.2643
13687SOL     OW47918  10.632   2.823   1.291  0.3687 -0.1603  0.0788
13687SOL    HW147919  10.682   2.768   1.352  0.4495  0.7106  0.8135
13687SOL    HW247920  10.565   2.765   1.256 -0.4086 -0.4050  1.8672
13688SOL     OW47921   3.777   1.659   2.236  0.2510  0.2945  0.6636
13688SOL    HW147922   3.817   1.663   2.323  0.2323 -0.1320  0.6974
13688SOL    HW247923   3.849   1.631   2.179  0.4671  1.3581  0.3980
13689SOL     OW47924   7.691   7.858   2.368 -0.0057  0.3401 -0.5536
13689SOL    HW147925   7.673   7.933   2.424  1.3568 -0.1525  0.5888
13689SOL    HW247926   7.678   7.891   2.279 -1.4163  1.3537 -0.0015
13690SOL     OW47927   5.730   8.050   4.950  0.6435 -0.2856 -0.9225
13690SOL    HW147928   5.817   8.063   4.911  2.2971 -1.4260  2.0502
13690SOL    HW247929   5.701   8.138   4.974  0.3605  0.2418 -2.9940
13691SOL     OW47930   4.401   6.280   9.297  0.1675 -0.3123 -0.2547
13691SOL    HW147931   4.470   6.288   9.231  1.3083  1.1825  1.0478
13691SOL    HW247932   4.386   6.370   9.326 -1.9506 -0.6835 -0.0906
13692SOL     OW47933   8.597   4.490   6.988 -0.1591 -0.0995  0.0216
13692SOL    HW147934   8.623   4.580   7.009  0.5421 -0.1018 -0.7888
13692SOL    HW247935   8.672   4.453   6.941 -0.3363 -1.1967  0.5519
13693SOL     OW47936   8.448   1.800   2.316  0.0380 -0.2982 -0.3930
13693SOL    HW147937   8.367   1.757   2.345 -2.1480  2.5798 -1.7486
13693SOL    HW247938   8.490   1.829   2.397 -1.0233 -0.5994  0.2785
13694SOL     OW47939  12.385   6.036   2.799  0.3415  0.3185  0.3251
13694SOL    HW147940  12.311   6.069   2.850  1.1961  1.9337  0.5801
13694SOL    HW247941  12.381   6.085   2.717  2.6812  2.5239  1.4123
13695SOL     OW47942   4.195  10.253   1.035 -0.6097 -0.3807  0.3429
13695SOL    HW147943   4.147  10.318   1.087 -0.0171  0.3902 -0.0454
13695SOL    HW247944   4.171  10.273   0.944  0.9126  0.4457  0.0896
13696SOL     OW47945   4.747   8.558   3.896 -0.3037 -0.2215  0.0046
13696SOL    HW147946   4.814   8.626   3.886 -0.5981  0.0378 -0.2351
13696SOL    HW247947   4.793   8.485   3.936  0.5432 -0.6827 -1.7297
13697SOL     OW47948   7.841  12.035  12.045 -0.4020 -0.2878 -0.0621
13697SOL    HW147949   7.933  12.016  12.063  0.1379  2.7208  0.9177
13697SOL    HW247950   7.844  12.102  11.977 -1.9521 -0.7383 -0.6210
13698SOL     OW47951   5.501   1.461  10.443 -0.3782  0.2999  0.4982
13698SOL    HW147952   5.575   1.401  10.442 -0.5668  0.0050  1.6790
13698SOL    HW247953   5.513   1.517  10.367  0.9547  0.1402  0.5711
13699SOL     OW47954   3.387   4.971   9.858 -0.2503  0.1903  0.1905
13699SOL    HW147955   3.379   4.923   9.941 -2.3268  1.3280  0.7240
13699SOL    HW247956   3.363   4.907   9.791  0.0532 -0.3489  0.5897
13700SOL     OW47957  11.713   2.856   6.206  0.1780  0.1808 -0.2747
13700SOL    HW147958  11.705   2.891   6.295  1.0083 -1.6533  0.5624
13700SOL    HW247959  11.628   2.876   6.166 -0.6472  0.0569  1.3041
13701SOL     OW47960   3.057   2.956   0.932 -0.0210  0.2166  0.5304
13701SOL    HW147961   3.104   3.039   0.933  1.1672 -0.4337  0.8353
13701SOL    HW247962   3.117   2.895   0.888 -1.0570 -0.3866 -0.0968
13702SOL     OW47963   8.026   5.203   5.386 -0.4263  0.2520 -0.0228
13702SOL    HW147964   8.098   5.265   5.381 -0.7758  0.6289 -0.4116
13702SOL    HW247965   7.963   5.244   5.446 -0.1340 -0.2722  0.6587
13703SOL     OW47966   1.547  10.538   2.027  0.7387  0.1384  0.3235
13703SOL    HW147967   1.494  10.590   1.968  1.3858 -1.0175 -1.3443
13703SOL    HW247968   1.490  10.464   2.051  1.7664 -1.6326 -2.2402
13704SOL     OW47969   3.388   4.010   6.316 -0.2145 -0.0300  0.0270
13704SOL    HW147970   3.424   4.060   6.243 -0.7737  0.9503  0.4082
13704SOL    HW247971   3.295   4.002   6.296 -0.6029  1.2654  1.1797
13705SOL     OW47972   6.066   9.368  10.888 -0.0928 -0.1417 -0.2222
13705SOL    HW147973   6.092   9.450  10.931  0.9188 -0.7407  0.3342
13705SOL    HW247974   6.130   9.357  10.817  0.0018 -0.6394 -0.0605
13706SOL     OW47975   0.143   0.237   2.673 -0.4969 -0.0008 -0.6017
13706SOL    HW147976   0.202   0.216   2.600 -1.5101 -1.0459 -1.1540
13706SOL    HW247977   0.088   0.159   2.683 -1.0700  0.5325  0.6057
13707SOL     OW47978   0.271  11.604   3.467  0.1326 -0.1521 -0.2715
13707SOL    HW147979   0.318  11.686   3.452  1.4367 -0.5047  1.5447
13707SOL    HW247980   0.339  11.539   3.478 -0.8561 -1.2238 -0.2836
13708SOL     OW47981  10.336  11.794   8.940 -0.0897  0.0939  0.3808
13708SOL    HW147982  10.318  11.884   8.913 -0.4986 -0.2128 -0.4050
13708SOL    HW247983  10.262  11.744   8.905 -0.9314 -0.2683  2.4803
13709SOL     OW47984   2.488   4.331  11.060 -0.2065 -0.1570 -0.2320
13709SOL    HW147985   2.411   4.341  11.005 -0.9287 -2.0786  0.3426
13709SOL    HW247986   2.496   4.236  11.073  1.9147  0.0278  0.2067
13710SOL     OW47987   3.151  10.689   0.737  0.0600 -0.1463 -0.0177
13710SOL    HW147988   3.141  10.597   0.711 -1.0065 -0.3331  0.9548
13710SOL    HW247989   3.076  10.706   0.794 -0.1996  1.5700 -0.7979
13711SOL     OW47990  10.570   1.064  10.547  0.4801 -0.0797 -0.1120
13711SOL    HW147991  10.557   1.020  10.463  2.7235  1.3656 -1.2985
13711SOL    HW247992  10.538   1.001  10.612 -3.7793 -0.2809 -2.0414
13712SOL     OW47993   5.431   1.986   7.140  0.0923 -0.1044  0.0048
13712SOL    HW147994   5.349   2.035   7.150 -0.3940 -0.3574 -2.3514
13712SOL    HW247995   5.480   2.034   7.074  0.9766 -1.0707 -0.0577
13713SOL     OW47996   1.440  11.474  10.787  0.4632 -0.3538  0.3212
13713SOL    HW147997   1.503  11.527  10.837  0.0844  0.2028  0.2198
13713SOL    HW247998   1.423  11.398  10.843 -1.6038  1.2781  2.0908
13714SOL     OW47999   4.961  11.202   3.332 -0.4558  0.3812 -0.4361
13714SOL    HW148000   5.045  11.246   3.327 -0.6680  0.6554 -1.9723
13714SOL    HW248001   4.952  11.156   3.249 -1.2490 -0.7277  0.2302
13715SOL     OW48002   5.959  10.680   0.807  0.5382  0.2287 -0.3755
13715SOL    HW148003   5.964  10.668   0.712  1.7281 -0.1948 -0.2818
13715SOL    HW248004   5.971  10.774   0.819  2.6388  0.0502 -0.5709
13716SOL     OW48005   2.180  11.268   8.120  0.0805  0.1167  0.0861
13716SOL    HW148006   2.134  11.239   8.041  2.5337  1.1564 -1.8702
13716SOL    HW248007   2.273  11.267   8.095  1.0890 -0.5444  3.3367
13717SOL     OW48008   6.209   4.665   0.746  0.5586  0.3210  0.5761
13717SOL    HW148009   6.282   4.726   0.735  0.9804  0.1013  1.9463
13717SOL    HW248010   6.237   4.607   0.817 -1.2665  0.6979  1.6556
13718SOL     OW48011  10.161   8.053   9.212 -0.2818  0.1196 -0.1553
13718SOL    HW148012  10.129   8.076   9.125 -1.7192 -0.0751  0.3043
13718SOL    HW248013  10.181   7.959   9.206 -1.9218 -0.2768  0.1460
13719SOL     OW48014   7.839   5.142  12.369 -0.7023 -0.1213 -0.0126
13719SOL    HW148015   7.843   5.162  12.275 -3.1867  1.2507  0.0751
13719SOL    HW248016   7.875   5.220  12.411 -0.0785 -0.5170  0.1901
13720SOL     OW48017   4.687   0.161   1.572  0.4300  0.1689 -0.1012
13720SOL    HW148018   4.598   0.187   1.547  0.5657  0.0279 -0.7624
13720SOL    HW248019   4.724   0.237   1.616 -0.6121 -0.3485  1.7792
13721SOL     OW48020  12.213   7.937   9.383  0.0609  0.2135  0.4165
13721SOL    HW148021  12.181   7.850   9.359  1.3899 -0.0522 -0.5096
13721SOL    HW248022  12.259   7.924   9.466 -0.8247  0.2961  0.9321
13722SOL     OW48023  11.660   8.582  11.498  0.4158  0.9314 -0.5919
13722SOL    HW148024  11.605   8.595  11.575  1.1972  1.0737 -0.0430
13722SOL    HW248025  11.598   8.568  11.426 -0.3845  3.1042 -0.3879
13723SOL     OW48026   5.710   3.708   5.460  0.0032 -0.6049  0.8163
13723SOL    HW148027   5.687   3.801   5.465 -0.4577 -0.6587 -0.0154
13723SOL    HW248028   5.744   3.697   5.372  0.5169 -1.1301  1.0811
13724SOL     OW48029   3.445   8.115   0.758  0.3455  0.4241 -0.3049
13724SOL    HW148030   3.474   8.069   0.679 -0.1128 -2.6918  1.2121
13724SOL    HW248031   3.350   8.120   0.750  0.3893  1.0989 -0.4375
13725SOL     OW48032   2.239   8.832   6.303 -0.5721  0.7141  0.1951
13725SOL    HW148033   2.195   8.772   6.243  0.0770 -0.7766  1.1573
13725SOL    HW248034   2.317   8.859   6.256 -1.0241  1.0660 -0.3666
13726SOL     OW48035   3.410   9.847  10.846 -0.5940  0.3082 -0.3446
13726SOL    HW148036   3.368   9.897  10.915  0.6768 -0.4373  1.0207
13726SOL    HW248037   3.338   9.810  10.795 -1.5844 -0.3308  1.4676
13727SOL     OW48038  10.254   3.278   4.567  0.0761  0.5058 -0.3510
13727SOL    HW148039  10.278   3.369   4.584  0.5269  0.1297  1.1229
13727SOL    HW248040  10.293   3.259   4.481  0.4470  1.5208 -0.4230
13728SOL     OW48041   8.374   6.236   8.734 -0.3522 -0.3449 -0.1174
13728SOL    HW148042   8.426   6.170   8.779  1.2531  0.3043 -0.9378
13728SOL    HW248043   8.333   6.190   8.661 -1.0400 -0.8779  0.5873
13729SOL     OW48044   7.468   0.022   9.648  0.3523 -0.2919  0.0024
13729SOL    HW148045   7.449   0.024   9.554  0.2806 -2.2962 -0.0705
13729SOL    HW248046   7.540  -0.042   9.657  0.1818 -0.3325  1.3258
13730SOL     OW48047  12.520   8.049   2.302  0.1661  0.1398  0.1492
13730SOL    HW148048  12.458   8.122   2.303  0.8985  0.7758  0.6938
13730SOL    HW248049  12.605   8.090   2.320  1.0962 -0.3961 -2.5104
13731SOL     OW48050   0.949   8.019   3.789  0.7298  0.0367 -0.8878
13731SOL    HW148051   0.983   8.066   3.865  0.5854 -1.2769  0.0258
13731SOL    HW248052   0.862   8.056   3.775  0.8445  0.4385 -0.5508
13732SOL     OW48053   2.791  10.544   1.527  0.4988 -0.2180  0.8388
13732SOL    HW148054   2.884  10.531   1.505  0.9389  0.2456  2.3012
13732SOL    HW248055   2.749  10.462   1.502  1.5894 -1.0158  1.4961
13733SOL     OW48056   2.698   5.066   5.157  0.0534 -0.2279 -0.0397
13733SOL    HW148057   2.764   5.014   5.112  0.1654  2.0759 -2.8260
13733SOL    HW248058   2.628   5.077   5.092 -0.8394  1.3868  1.1214
13734SOL     OW48059   2.447   1.057   1.793  0.2693  0.3699 -0.3263
13734SOL    HW148060   2.450   0.967   1.825  0.2589  0.7830  0.8739
13734SOL    HW248061   2.488   1.053   1.707  0.7044 -0.6952 -0.0861
13735SOL     OW48062   1.672   1.002  11.925  0.1371 -0.1424 -0.6373
13735SOL    HW148063   1.613   1.047  11.864  0.2564  0.8475 -0.0457
13735SOL    HW248064   1.710   1.073  11.977  0.5114 -0.9232  0.1614
13736SOL     OW48065   8.956  11.854   7.342  0.2900  0.0457  0.6183
13736SOL    HW148066   8.970  11.949   7.346 -0.7383  0.1625  2.2826
13736SOL    HW248067   8.869  11.841   7.379 -0.1335 -1.4681 -0.7733
13737SOL     OW48068   2.546   0.407  11.617 -0.3681 -0.1383 -0.4557
13737SOL    HW148069   2.622   0.351  11.602 -0.1876 -0.0806  0.2394
13737SOL    HW248070   2.576   0.495  11.593 -0.3023 -0.1622 -0.4626
13738SOL     OW48071   9.695   9.486   1.079 -0.4290 -0.6657  0.4525
13738SOL    HW148072   9.733   9.570   1.054 -2.3462 -0.3050 -1.5409
13738SOL    HW248073   9.601   9.504   1.089 -1.0461 -2.6926 -0.9148
13739SOL     OW48074   3.741  11.157   5.706  0.1300 -0.8319 -0.2255
13739SOL    HW148075   3.678  11.164   5.777 -0.2196 -2.0537 -0.3992
13739SOL    HW248076   3.780  11.245   5.700 -0.5660 -0.4362  0.7785
13740SOL     OW48077  11.025   8.841   9.979 -0.0327 -0.8872 -0.0071
13740SOL    HW148078  10.976   8.857   9.898 -0.2538 -0.6958  0.1623
13740SOL    HW248079  11.101   8.790   9.951 -0.5051 -1.4905 -0.2316
13741SOL     OW48080   1.055  10.800   3.299  0.2470 -0.0961  0.1762
13741SOL    HW148081   1.022  10.881   3.261  0.0039 -0.2415  0.0697
13741SOL    HW248082   1.081  10.747   3.224 -2.0687 -1.1798  0.0495
13742SOL     OW48083   4.554   6.140   1.046  0.5888  0.5958 -0.1135
13742SOL    HW148084   4.622   6.207   1.050  1.1096  0.1247 -0.7563
13742SOL    HW248085   4.488   6.177   0.988  1.5866 -0.0294 -1.7347
13743SOL     OW48086   0.363   5.438   4.655 -0.4309  0.1733 -0.5083
13743SOL    HW148087   0.289   5.482   4.696  0.8962  1.2340  0.8253
13743SOL    HW248088   0.343   5.440   4.561 -1.4894  1.6071 -0.2845
13744SOL     OW48089  12.456   0.322  11.266 -0.2816 -0.0892 -0.5681
13744SOL    HW148090  12.387   0.300  11.203  1.7543  0.7560 -3.2962
13744SOL    HW248091  12.460   0.418  11.264 -0.1740 -0.0459  0.9138
13745SOL     OW48092   8.485   5.608   2.104  0.1651  0.1087 -0.1517
13745SOL    HW148093   8.428   5.662   2.159  0.1615 -0.7779  0.7479
13745SOL    HW248094   8.542   5.671   2.059 -0.5307  0.9114  0.0612
13746SOL     OW48095   6.638   0.109   0.439 -0.1261  0.3697  0.3353
13746SOL    HW148096   6.652   0.029   0.490  0.0930 -0.2691 -0.7010
13746SOL    HW248097   6.585   0.165   0.496  0.6930 -0.0331  1.5384
13747SOL     OW48098  10.733   7.244  11.417 -0.2204 -0.3470  0.5161
13747SOL    HW148099  10.776   7.313  11.366 -2.8224  1.5015  0.6345
13747SOL    HW248100  10.700   7.289  11.495 -1.2883 -1.8988  1.0118
13748SOL     OW48101  10.121   2.954   5.640  0.7173 -0.1452 -0.2979
13748SOL    HW148102  10.076   2.880   5.682  0.5614 -0.6498 -1.3317
13748SOL    HW248103  10.167   2.997   5.712  0.1249 -0.7458  0.4657
13749SOL     OW48104   3.808  10.833   5.056  0.0970  0.3757  0.1919
13749SOL    HW148105   3.888  10.822   5.108  0.3176 -2.1767 -0.5627
13749SOL    HW248106   3.739  10.800   5.112 -0.0906  0.3360 -0.0636
13750SOL     OW48107   2.388   6.140   7.107  0.3143  0.1707 -0.0398
13750SOL    HW148108   2.338   6.216   7.079 -0.4438 -0.7684 -1.3599
13750SOL    HW248109   2.327   6.089   7.161  0.7940  0.4504  0.7787
13751SOL     OW48110   9.683   8.513   0.493 -0.2544  0.1318 -0.2748
13751SOL    HW148111   9.654   8.436   0.445 -0.1462 -1.0805  1.4926
13751SOL    HW248112   9.773   8.492   0.521 -1.1248 -0.3489  2.5166
13752SOL     OW48113  12.010   7.152   1.978 -0.7510 -0.3328  0.5566
13752SOL    HW148114  12.026   7.134   2.071  2.2642  2.2912  0.6850
13752SOL    HW248115  12.020   7.067   1.936  0.7575 -1.1217  2.3452
13753SOL     OW48116   5.336   9.732   1.996  0.2948 -0.2801 -0.1928
13753SOL    HW148117   5.392   9.655   2.003 -0.6611 -1.0200 -0.3750
13753SOL    HW248118   5.392   9.799   1.959  0.4804 -1.6704 -2.6327
13754SOL     OW48119  12.313   5.431   9.521  0.3680 -0.2626 -0.3844
13754SOL    HW148120  12.379   5.383   9.571 -0.9111 -0.2185  1.4838
13754SOL    HW248121  12.330   5.523   9.541 -0.1751 -0.2464  0.0344
13755SOL     OW48122   6.972   0.610   2.120  0.5898  0.2618  0.2665
13755SOL    HW148123   7.026   0.595   2.198  1.4809 -0.1055 -0.4055
13755SOL    HW248124   6.997   0.539   2.060  0.7224  1.1741 -0.7815
13756SOL     OW48125   4.545  11.262   3.711 -0.2904 -0.4994 -0.3390
13756SOL    HW148126   4.471  11.307   3.753  1.1690  0.1202  1.6862
13756SOL    HW248127   4.609  11.331   3.695 -0.4872 -0.8418 -3.0548
13757SOL     OW48128   0.999   8.337   4.421 -0.7782 -0.1352 -0.6769
13757SOL    HW148129   1.092   8.326   4.407 -0.4680  0.2674  0.8291
13757SOL    HW248130   0.960   8.336   4.334  0.6198 -0.3354 -1.3146
13758SOL     OW48131   5.217   3.011   2.011 -0.0626  0.1848  0.8692
13758SOL    HW148132   5.215   3.092   1.961 -0.0601 -0.7156 -0.6573
13758SOL    HW248133   5.249   2.945   1.948 -0.6167 -1.1063  1.8993
13759SOL     OW48134   2.835   2.646   8.848 -0.0529 -0.4808 -0.0563
13759SOL    HW148135   2.778   2.618   8.776 -1.9544 -1.9622  1.8691
13759SOL    HW248136   2.871   2.729   8.819  0.1145 -1.5003 -3.1121
13760SOL     OW48137   7.518   0.570   0.595 -0.2704  0.4022  0.0820
13760SOL    HW148138   7.563   0.515   0.660  0.1061 -0.1861 -0.6601
13760SOL    HW248139   7.442   0.604   0.642  0.2589  0.3883  0.9825
13761SOL     OW48140   9.839   8.485   7.689 -0.4765  0.1677  0.4897
13761SOL    HW148141   9.745   8.504   7.682 -0.2610  0.9195 -0.6237
13761SOL    HW248142   9.881   8.570   7.693  0.3197 -0.0542 -1.7128
13762SOL     OW48143  11.538   7.507   4.211 -0.0444 -0.4429 -0.1162
13762SOL    HW148144  11.526   7.423   4.168 -0.2176  0.3006 -1.6143
13762SOL    HW248145  11.631   7.511   4.233 -0.1089 -1.1662  0.2867
13763SOL     OW48146   9.640   2.445  11.579  0.1219  0.2827 -0.4296
13763SOL    HW148147   9.592   2.434  11.497  0.2270 -0.9449 -0.3436
13763SOL    HW248148   9.732   2.446  11.554  0.3336 -2.6573 -0.1751
13764SOL     OW48149  11.522   4.694   8.614  0.1802 -0.0946 -0.0653
13764SOL    HW148150  11.477   4.769   8.575 -0.7352 -0.6105 -0.0356
13764SOL    HW248151  11.451   4.633   8.636  0.8946 -0.8680  0.1179
13765SOL     OW48152   7.987   4.931   1.521  0.2517  0.2499  0.4706
13765SOL    HW148153   8.010   5.016   1.485 -2.5975  1.4864  1.3112
13765SOL    HW248154   8.058   4.912   1.583  2.1434  0.8148 -1.3939
13766SOL     OW48155  10.872   7.753   7.083 -0.0901 -0.5363  0.5006
13766SOL    HW148156  10.844   7.661   7.088 -0.3012 -0.5119 -0.1347
13766SOL    HW248157  10.795   7.803   7.110  0.3380 -0.5709  1.8396
13767SOL     OW48158   5.046   5.152   6.276  0.4334  0.1199 -0.1895
13767SOL    HW148159   5.043   5.059   6.257 -1.1914  0.4205 -1.7235
13767SOL    HW248160   5.128   5.165   6.323  0.2197 -2.2192  0.9574
13768SOL     OW48161   0.158   1.723   9.393 -0.4318 -0.0297  0.7336
13768SOL    HW148162   0.181   1.674   9.314 -0.3082 -0.5846  1.1076
13768SOL    HW248163   0.152   1.814   9.364 -0.0332 -0.1809  0.1595
13769SOL     OW48164   9.395   6.334   7.619 -0.4749 -0.2935 -0.6118
13769SOL    HW148165   9.449   6.262   7.650  1.7572  0.5999 -2.2074
13769SOL    HW248166   9.366   6.307   7.532  0.1290  0.5901 -1.0978
13770SOL     OW48167  10.327   4.097   1.817  0.0481 -0.3553 -0.3506
13770SOL    HW148168  10.271   4.083   1.741 -0.6567 -0.7221  0.2255
13770SOL    HW248169  10.280   4.162   1.870  0.7861  0.2965 -0.4772
13771SOL     OW48170   2.784   7.368   6.483  0.3188 -0.0678  0.8865
13771SOL    HW148171   2.688   7.371   6.480  0.3656  1.1312 -0.5484
13771SOL    HW248172   2.812   7.453   6.450  1.8972 -0.0871  2.0421
13772SOL     OW48173   1.146   1.325   1.814 -0.3327  0.2814  0.3311
13772SOL    HW148174   1.083   1.260   1.844 -0.0501 -0.3010 -0.2944
13772SOL    HW248175   1.134   1.329   1.719  2.6023 -2.1454 -0.2938
13773SOL     OW48176  11.770   5.024   8.633 -0.0558 -0.0378  0.2993
13773SOL    HW148177  11.743   5.076   8.709  0.2632 -2.2873  2.0488
13773SOL    HW248178  11.863   5.006   8.647  0.1750  0.0279 -0.9763
13774SOL     OW48179   7.794   5.787   1.795  0.1629 -0.0885  0.2009
13774SOL    HW148180   7.816   5.765   1.885  0.7786  0.8334  0.2842
13774SOL    HW248181   7.737   5.863   1.802 -1.9131 -1.5128 -0.0903
13775SOL     OW48182   6.858   7.062   3.258 -0.0646  0.0464  0.0589
13775SOL    HW148183   6.856   7.134   3.194 -2.1696 -0.9661 -1.1425
13775SOL    HW248184   6.795   7.089   3.325  0.3018 -0.0029  0.4248
13776SOL     OW48185   8.929  11.406  10.976  0.8527  0.3708  0.5480
13776SOL    HW148186   8.987  11.376  10.906  0.4217 -0.6352  0.6068
13776SOL    HW248187   8.852  11.441  10.931  0.0142 -1.4109  0.4841
13777SOL     OW48188   9.105   0.261   4.341  0.0892 -0.5211  0.3081
13777SOL    HW148189   9.065   0.339   4.305  0.1952 -1.1409 -1.2260
13777SOL    HW248190   9.198   0.284   4.351 -0.2140  0.1777  1.7567
13778SOL     OW48191   5.119   4.459   2.529  0.1046 -0.2825  0.0294
13778SOL    HW148192   5.189   4.397   2.551  0.4881 -0.1845 -0.8443
13778SOL    HW248193   5.132   4.531   2.590  0.7121 -0.3139 -0.0481
13779SOL     OW48194   9.751   2.307   2.016 -0.5258  0.1599  0.6892
13779SOL    HW148195   9.742   2.366   1.941 -0.0026 -0.7111 -0.0883
13779SOL    HW248196   9.755   2.365   2.092 -0.6713  1.0859  0.0140
13780SOL     OW48197   9.084   9.378   1.801 -0.0135 -0.0621 -1.1838
13780SOL    HW148198   9.103   9.410   1.712  0.8107  1.0647 -0.6244
13780SOL    HW248199   9.168   9.346   1.833  0.1434  1.3209 -0.1266
13781SOL     OW48200   1.368   4.273   9.064  0.0673  0.0105 -0.3788
13781SOL    HW148201   1.360   4.203   8.998 -2.9677  0.1087 -0.2672
13781SOL    HW248202   1.430   4.239   9.128  0.6188 -1.4839 -1.6484
13782SOL     OW48203   2.050   5.257   9.517 -0.6694 -0.4938 -0.1708
13782SOL    HW148204   2.075   5.340   9.558 -1.2646 -0.3045 -0.1725
13782SOL    HW248205   2.012   5.282   9.433 -2.0515 -0.6352  0.3673
13783SOL     OW48206   2.632  10.265   7.177 -0.5735  0.0939  0.0743
13783SOL    HW148207   2.596  10.182   7.207  0.2672 -0.3215 -0.0266
13783SOL    HW248208   2.724  10.246   7.158 -0.3918  1.0233 -0.0455
13784SOL     OW48209   8.286  12.270   3.028  0.2603  0.2308  0.1364
13784SOL    HW148210   8.287  12.196   3.089  2.6469  0.5914  0.6309
13784SOL    HW248211   8.364  12.257   2.974  1.2869  2.8717  0.8615
13785SOL     OW48212   2.954   8.992   4.081  0.3400 -0.3098 -0.2601
13785SOL    HW148213   2.923   8.977   4.171 -0.2304  0.7416 -0.2673
13785SOL    HW248214   2.880   9.034   4.037  0.0920 -2.1233 -1.6507
13786SOL     OW48215   3.136   6.547  10.530  0.1741 -0.3332  0.1483
13786SOL    HW148216   3.094   6.624  10.568  0.3615 -0.3617  0.4227
13786SOL    HW248217   3.064   6.493  10.499  0.0794  0.4652 -1.0742
13787SOL     OW48218   2.782  12.507   7.332 -0.3759  0.4054 -0.0760
13787SOL    HW148219   2.785  12.422   7.376  0.4147  1.6417  2.4340
13787SOL    HW248220   2.782  12.571   7.403  0.1135  2.5494 -1.8940
13788SOL     OW48221  11.096   3.041  12.406  0.3018  0.2407 -0.2595
13788SOL    HW148222  11.173   3.097  12.405  0.6268 -0.1976 -0.1650
13788SOL    HW248223  11.123   2.963  12.455  0.5688 -0.9896 -2.2499
13789SOL     OW48224  10.063   7.132   1.132  0.2514 -0.2416 -0.1042
13789SOL    HW148225  10.090   7.193   1.201  1.8762  0.2290 -1.0952
13789SOL    HW248226  10.095   7.047   1.161 -1.1050 -0.4621  0.7928
13790SOL     OW48227   4.365   6.911  11.893 -0.2530 -0.1616  0.0072
13790SOL    HW148228   4.279   6.919  11.934 -0.5099  3.3533 -0.8970
13790SOL    HW248229   4.427   6.922  11.966 -0.6698  1.6355  0.1401
13791SOL     OW48230   2.722   3.382   3.071 -0.5531 -0.1794 -0.2857
13791SOL    HW148231   2.806   3.356   3.108  0.6197  2.7988 -0.6073
13791SOL    HW248232   2.672   3.417   3.145 -0.5596  0.2607 -0.4960
13792SOL     OW48233   3.538  10.463   4.211  0.1560 -0.4464  0.3614
13792SOL    HW148234   3.598  10.428   4.145  1.8185  0.4481  1.3407
13792SOL    HW248235   3.554  10.557   4.211 -1.1416 -0.2087  0.7781
13793SOL     OW48236  11.240  12.418   1.277 -0.0293 -0.3644 -0.3417
13793SOL    HW148237  11.245  12.408   1.182 -1.9397 -0.6833 -0.4560
13793SOL    HW248238  11.147  12.433   1.294  0.5151  1.6103  1.3159
13794SOL     OW48239   0.426   5.305  10.503 -0.0985  0.2372 -0.4929
13794SOL    HW148240   0.415   5.220  10.545 -2.7569  0.1518 -1.1379
13794SOL    HW248241   0.336   5.334  10.486  0.7454  2.9435 -0.7721
13795SOL     OW48242   6.624   0.898   7.177  0.2760 -0.2587 -0.2142
13795SOL    HW148243   6.707   0.916   7.131 -0.5574  1.1818 -1.2091
13795SOL    HW248244   6.558   0.944   7.126 -0.9513 -0.1019  1.4489
13796SOL     OW48245   4.939  11.346   2.741 -0.2341 -0.3710  0.1136
13796SOL    HW148246   5.008  11.335   2.806 -0.9882  0.0763  1.0091
13796SOL    HW248247   4.868  11.390   2.788 -1.4576 -1.5533 -0.5497
13797SOL     OW48248  11.704  10.673   1.316 -0.3973  1.1015  0.1117
13797SOL    HW148249  11.657  10.651   1.396  0.0342  0.3496  0.1681
13797SOL    HW248250  11.636  10.683   1.249 -0.6378 -0.4242  0.0812
13798SOL     OW48251   0.821   0.219  11.450  0.0998 -0.4748  0.0814
13798SOL    HW148252   0.872   0.292  11.416 -0.4628 -0.3947 -0.6196
13798SOL    HW248253   0.879   0.143  11.444 -0.1438 -0.5682 -1.5910
13799SOL     OW48254  11.090   4.384  12.342 -0.1724 -0.1536 -0.0440
13799SOL    HW148255  11.049   4.298  12.347 -1.9496  0.6925  2.5966
13799SOL    HW248256  11.017   4.443  12.321  0.8567  0.7929 -1.0233
13800SOL     OW48257   6.149  11.829   7.099  0.4653 -0.0844  0.3638
13800SOL    HW148258   6.165  11.768   7.027 -0.4186  0.0889  0.0088
13800SOL    HW248259   6.142  11.773   7.176 -2.8052 -0.7981 -0.2759
13801SOL     OW48260  11.278   5.984   6.156  0.0388 -0.5805  0.0992
13801SOL    HW148261  11.218   6.057   6.141 -0.9824 -1.5618 -0.7950
13801SOL    HW248262  11.221   5.908   6.170  1.0696 -1.1481  1.3837
13802SOL     OW48263   4.598   5.034   9.239 -0.3614  0.4520  0.7049
13802SOL    HW148264   4.519   5.070   9.278 -1.7820 -1.4265 -0.2432
13802SOL    HW248265   4.627   4.967   9.301  0.5640  1.1839  1.0844
13803SOL     OW48266   2.912   8.635   9.737 -0.1237 -0.5493  0.0001
13803SOL    HW148267   2.937   8.649   9.646  1.1172 -0.5774  0.3320
13803SOL    HW248268   2.971   8.567   9.769 -0.9668 -0.9976  0.6493
13804SOL     OW48269   2.653  11.899   0.536  0.0118 -0.0745  0.1167
13804SOL    HW148270   2.587  11.845   0.581  0.3545 -1.3479 -0.8572
13804SOL    HW248271   2.720  11.837   0.508  0.6322  0.9227 -0.6730
13805SOL     OW48272   4.549  10.632  11.747 -0.0397 -0.0852  0.0004
13805SOL    HW148273   4.644  10.636  11.733  0.1351 -3.5431 -0.6985
13805SOL    HW248274   4.539  10.638  11.842  1.2123 -2.3352  0.3518
13806SOL     OW48275   5.574   7.291   0.803 -0.2702 -0.0078  0.2729
13806SOL    HW148276   5.612   7.205   0.821  1.0640  0.8454  1.9012
13806SOL    HW248277   5.521   7.279   0.724  1.0453 -1.9705 -0.3737
13807SOL     OW48278   6.512   0.511   8.628  0.1599  0.2199  0.5874
13807SOL    HW148279   6.532   0.561   8.707 -2.0816  1.4555  0.4283
13807SOL    HW248280   6.425   0.540   8.601  1.1796  0.5522 -2.9014
13808SOL     OW48281  11.168   2.797  12.503  0.3013 -0.0449 -0.1253
13808SOL    HW148282  11.245   2.815  12.557  1.4038  0.6568 -1.8232
13808SOL    HW248283  11.107   2.752  12.561  0.9156  1.7337  1.9951
13809SOL     OW48284  11.006   3.558  10.403 -0.3968 -0.3365 -0.2621
13809SOL    HW148285  11.019   3.633  10.461 -1.9627 -0.4102  0.2395
13809SOL    HW248286  11.003   3.595  10.315  1.1819 -0.1231 -0.2526
13810SOL     OW48287  11.211   8.212   1.552  0.6129  0.1758 -0.9615
13810SOL    HW148288  11.247   8.126   1.530 -1.9659 -1.0986 -0.6329
13810SOL    HW248289  11.253   8.272   1.491  0.7850 -1.7056 -2.8070
13811SOL     OW48290   8.086   4.879   5.562 -0.2935 -0.4415  0.2166
13811SOL    HW148291   8.100   4.789   5.534 -1.1459  0.0659 -2.0375
13811SOL    HW248292   8.041   4.921   5.489  0.2233  1.8789  1.1183
13812SOL     OW48293   8.667   7.012   0.230  0.0652 -0.4501 -0.1116
13812SOL    HW148294   8.663   6.927   0.274  2.0679 -0.4945  0.0766
13812SOL    HW248295   8.691   6.991   0.140 -1.6721 -0.1904 -0.6822
13813SOL     OW48296   4.122   2.740   3.140  0.0173 -0.0149  0.0105
13813SOL    HW148297   4.098   2.767   3.051 -1.1581  3.7826  1.2469
13813SOL    HW248298   4.042   2.699   3.175  0.5481 -1.7055 -0.6761
13814SOL     OW48299  10.297   3.863  10.259  0.0851 -0.1549  0.2678
13814SOL    HW148300  10.207   3.892  10.243  0.4597  0.9159  0.0578
13814SOL    HW248301  10.332   3.847  10.171 -0.2191 -1.6419  0.3828
13815SOL     OW48302   3.915   3.486   3.356  0.1176  0.2749  0.0307
13815SOL    HW148303   3.864   3.566   3.354  0.9496  0.8201 -0.0860
13815SOL    HW248304   3.855   3.419   3.389 -0.2822  1.1670  1.1534
13816SOL     OW48305   4.348   2.368  11.933  0.1344 -0.3082 -0.6530
13816SOL    HW148306   4.390   2.282  11.931 -1.0604 -0.9142 -1.9853
13816SOL    HW248307   4.412   2.427  11.893 -0.1203 -1.1660 -2.4206
13817SOL     OW48308  10.604  12.380   4.330 -0.3580 -0.0035 -0.3744
13817SOL    HW148309  10.687  12.428   4.325 -0.7224  0.7163  0.2767
13817SOL    HW248310  10.539  12.447   4.349 -0.7043 -0.8706  1.8673
13818SOL     OW48311   0.471   2.889   0.492  0.4355  0.6820 -0.1814
13818SOL    HW148312   0.525   2.852   0.423 -0.1385 -1.4954  0.4506
13818SOL    HW248313   0.499   2.843   0.572 -2.0926 -0.3518  0.2087
13819SOL     OW48314   3.972   5.710   2.322 -0.2772  0.2686  0.2769
13819SOL    HW148315   3.885   5.690   2.359  0.1105  0.4794  1.3447
13819SOL    HW248316   3.987   5.802   2.344 -0.2573  0.5673 -0.9179
13820SOL     OW48317   4.520   4.420   2.748  0.3628  0.4292 -0.2710
13820SOL    HW148318   4.521   4.338   2.698  0.1389 -0.0797  0.5394
13820SOL    HW248319   4.483   4.484   2.687 -0.7977 -0.3809 -0.4745
13821SOL     OW48320   5.930  12.491   1.830  0.2451  0.2682  0.8714
13821SOL    HW148321   6.012  12.445   1.810  0.3381 -0.0572  1.9499
13821SOL    HW248322   5.948  12.583   1.810  0.2747 -0.0381 -0.6465
13822SOL     OW48323  11.696   7.525   0.285  0.0220 -0.0532 -0.1261
13822SOL    HW148324  11.655   7.584   0.222  3.2354 -0.8904 -3.3153
13822SOL    HW248325  11.681   7.438   0.249  0.5152 -0.7183  1.2315
13823SOL     OW48326   2.570   9.906   0.684 -0.1400  1.2351  0.7807
13823SOL    HW148327   2.574   9.819   0.644 -0.2766  1.0720  1.1149
13823SOL    HW248328   2.634   9.903   0.755  0.6986  1.7938  0.0701
13824SOL     OW48329   4.934   6.263  11.595 -0.1670  0.2021 -0.3516
13824SOL    HW148330   5.017   6.219  11.576 -0.0474  0.2983 -0.0454
13824SOL    HW248331   4.960   6.348  11.630 -0.3591 -0.6630  2.0275
13825SOL     OW48332   0.649   2.075   2.013  0.2791 -0.0098 -0.3659
13825SOL    HW148333   0.577   2.042   2.067  1.2101  0.7057  1.3904
13825SOL    HW248334   0.611   2.084   1.926 -0.7029 -3.3044 -0.4402
13826SOL     OW48335   2.048   4.751  10.379  0.5087 -0.0334  0.3096
13826SOL    HW148336   2.063   4.755  10.285  3.2429  0.0937  0.6803
13826SOL    HW248337   2.057   4.841  10.410 -0.3109 -0.0792  0.7103
13827SOL     OW48338   3.396   0.280  12.134  0.2073 -0.0338  0.5443
13827SOL    HW148339   3.383   0.191  12.168  1.0818 -0.0163  0.9444
13827SOL    HW248340   3.330   0.333  12.178 -1.0041 -0.6568 -0.4603
13828SOL     OW48341   3.672  11.873   9.606 -0.2122 -0.1290  0.2053
13828SOL    HW148342   3.587  11.914   9.591  0.6106  1.4777 -0.2394
13828SOL    HW248343   3.657  11.779   9.590 -2.0663  0.0093  0.9322
13829SOL     OW48344   4.717   4.818   7.713  0.1266  0.1472 -0.2874
13829SOL    HW148345   4.629   4.801   7.746 -0.9386  0.7785 -2.6347
13829SOL    HW248346   4.770   4.746   7.748 -1.4214 -0.5543  0.6943
13830SOL     OW48347   8.797   5.656   9.847  0.2381  0.3222 -0.1244
13830SOL    HW148348   8.863   5.709   9.803  0.4607  0.2351  0.1014
13830SOL    HW248349   8.817   5.566   9.820 -0.3482  0.3816 -0.7773
13831SOL     OW48350   0.983  10.353   9.243 -0.5115  0.1210  0.1338
13831SOL    HW148351   0.950  10.443   9.246 -1.3544 -0.1794  0.0560
13831SOL    HW248352   1.072  10.359   9.279 -0.4825  1.0121 -0.0508
13832SOL     OW48353   5.359   6.765  12.311  0.2252 -0.4214  0.2059
13832SOL    HW148354   5.274   6.774  12.268 -0.8650 -1.9290  1.9338
13832SOL    HW248355   5.421   6.756  12.238 -1.0747  0.4965 -1.0869
13833SOL     OW48356   3.550   7.244   6.841  0.2426 -0.7605  0.6168
13833SOL    HW148357   3.512   7.263   6.756  1.6354 -1.3537 -0.1716
13833SOL    HW248358   3.486   7.277   6.904 -0.2967  0.7259 -0.6438
13834SOL     OW48359   4.766   8.790   9.927  0.0132  0.0943 -0.3066
13834SOL    HW148360   4.812   8.710   9.900  0.1666  0.3717 -0.8818
13834SOL    HW248361   4.730   8.769  10.013 -1.5115 -1.2218 -1.2265
13835SOL     OW48362  10.563   5.045   6.577 -0.6458 -0.7405  0.5124
13835SOL    HW148363  10.544   5.001   6.494 -2.1585 -0.0266  0.4521
13835SOL    HW248364  10.585   5.135   6.553  0.2936 -0.8780  0.8017
13836SOL     OW48365   9.477   1.614   4.212 -0.1874  0.2882 -0.4062
13836SOL    HW148366   9.519   1.694   4.181  0.1247  0.3153  0.0723
13836SOL    HW248367   9.442   1.573   4.133 -0.5574  1.0167 -0.6272
13837SOL     OW48368   8.175   5.254   6.658 -0.6124 -0.4779  0.4726
13837SOL    HW148369   8.086   5.277   6.630 -0.2555  0.8183  0.3344
13837SOL    HW248370   8.177   5.272   6.752 -0.2860  0.2475  0.3357
13838SOL     OW48371   1.521  11.151  11.227  0.7900  0.0079 -0.3368
13838SOL    HW148372   1.530  11.173  11.135 -1.5134 -0.5173 -0.7374
13838SOL    HW248373   1.544  11.058  11.233  0.8494  0.0190 -0.4009
13839SOL     OW48374   9.857  11.838   5.274  0.3279  0.4359 -0.3667
13839SOL    HW148375   9.920  11.904   5.248 -0.0028  0.4144 -1.2349
13839SOL    HW248376   9.804  11.822   5.196 -0.3793  0.0320  0.1779
13840SOL     OW48377   1.635   9.294   7.413  0.2038 -0.1384  0.0571
13840SOL    HW148378   1.565   9.230   7.424  0.1866  0.3178  3.7585
13840SOL    HW248379   1.714   9.242   7.401 -0.1404 -0.7635  0.4694
13841SOL     OW48380   5.453   4.358  10.331  0.3308 -0.2935  0.4303
13841SOL    HW148381   5.524   4.330  10.389 -0.5083 -0.8954  1.1847
13841SOL    HW248382   5.373   4.347  10.383 -0.2316  1.5929  0.0418
13842SOL     OW48383   6.578   2.204   8.678 -0.0800 -0.8259  0.1818
13842SOL    HW148384   6.652   2.144   8.678 -1.5696 -2.7353  0.6378
13842SOL    HW248385   6.505   2.154   8.714 -1.7246  0.8515 -0.6031
13843SOL     OW48386   2.470  11.351   1.813 -0.3914  0.3815 -0.3552
13843SOL    HW148387   2.462  11.430   1.866  1.1583  0.5278 -0.2985
13843SOL    HW248388   2.552  11.362   1.766  0.1422 -1.4447  0.0884
13844SOL     OW48389  11.880   7.900   4.567 -0.2862 -0.2847 -0.4305
13844SOL    HW148390  11.967   7.868   4.544 -0.7203 -1.7564 -0.1211
13844SOL    HW248391  11.880   7.904   4.662 -0.1735  0.9149 -0.4593
13845SOL     OW48392   5.734   8.439  12.499  0.3971 -0.2081  0.0148
13845SOL    HW148393   5.699   8.426  12.587 -2.5471 -0.5466 -1.0884
13845SOL    HW248394   5.667   8.491  12.454  2.2371  0.7352 -1.7885
13846SOL     OW48395   0.611   8.448   3.898 -0.0509  0.2271 -0.4981
13846SOL    HW148396   0.671   8.399   3.842 -0.5142  1.6938 -2.4020
13846SOL    HW248397   0.626   8.540   3.875 -2.5576  0.6941 -0.6077
13847SOL     OW48398   0.581  12.194   9.001 -0.2641  0.2770 -0.0659
13847SOL    HW148399   0.518  12.256   8.966 -0.5262  0.0830  0.0533
13847SOL    HW248400   0.630  12.243   9.067  1.4112  1.1484 -1.8625
13848SOL     OW48401  11.364  10.848   1.548 -0.5112  0.2088  0.1966
13848SOL    HW148402  11.302  10.841   1.620 -1.4147  1.4631 -0.4178
13848SOL    HW248403  11.316  10.818   1.471 -0.2941  0.9352 -0.2377
13849SOL     OW48404  11.242   1.888  10.942  0.0072  0.2971  0.1719
13849SOL    HW148405  11.280   1.964  10.897 -1.2790  1.8785  1.6148
13849SOL    HW248406  11.193   1.925  11.015 -2.0350 -1.8117 -0.0029
13850SOL     OW48407   7.235   4.320   0.765 -0.1003  0.1503  0.4788
13850SOL    HW148408   7.238   4.403   0.813  0.4552  1.1046 -1.1326
13850SOL    HW248409   7.144   4.312   0.738  0.1091  1.0082 -0.5821
13851SOL     OW48410   5.893   9.402   7.868 -0.2039 -0.3832  0.1712
13851SOL    HW148411   5.915   9.309   7.874  2.2067  0.0848 -0.6382
13851SOL    HW248412   5.965   9.447   7.911 -1.5098  1.1504  0.8796
13852SOL     OW48413  11.429   6.115   6.419 -0.1441  0.1133 -0.2557
13852SOL    HW148414  11.474   6.092   6.338  0.8019  1.5847 -0.1856
13852SOL    HW248415  11.367   6.184   6.394 -0.4577 -0.0233  0.1254
13853SOL     OW48416  11.013   6.559   0.034 -0.2784  0.7255  0.1370
13853SOL    HW148417  10.965   6.501  -0.025  0.4648  0.4735 -0.2321
13853SOL    HW248418  10.947   6.621   0.065 -1.0782 -0.2749  0.4937
13854SOL     OW48419  11.941   9.948   2.405  0.3212 -0.2369  0.0736
13854SOL    HW148420  11.851   9.922   2.386  0.2938  0.7667 -1.3643
13854SOL    HW248421  11.979   9.968   2.319  2.2654 -1.6615  0.5283
13855SOL     OW48422   4.490   7.334   0.286  0.2105 -0.0079 -0.3717
13855SOL    HW148423   4.527   7.293   0.364  0.5581  0.0090 -0.5261
13855SOL    HW248424   4.483   7.427   0.310  1.4149  0.2041 -0.7611
13856SOL     OW48425   5.850   0.991   8.225  0.4471 -0.0353 -0.7946
13856SOL    HW148426   5.926   1.050   8.230  0.6089 -0.1739 -1.4831
13856SOL    HW248427   5.878   0.923   8.163 -0.5557  0.3866 -1.7429
13857SOL     OW48428   8.137   7.719   4.604 -0.2140  0.1115 -0.0806
13857SOL    HW148429   8.042   7.728   4.605 -0.3364 -0.9750  0.9494
13857SOL    HW248430   8.169   7.801   4.567 -1.5257  0.7118  0.0634
13858SOL     OW48431  12.577   2.724   6.497 -0.1782 -0.1700 -0.0244
13858SOL    HW148432  12.643   2.688   6.556  0.9104 -0.0938 -1.1402
13858SOL    HW248433  12.584   2.818   6.507  1.2821 -0.0716 -1.5296
13859SOL     OW48434   8.293  10.356   0.087  0.0445  0.2476  0.4020
13859SOL    HW148435   8.371  10.390   0.130 -0.1663  0.3834  0.6783
13859SOL    HW248436   8.280  10.414   0.012  0.6792 -0.2675 -0.1167
13860SOL     OW48437   5.008  11.850  10.911 -0.1316  0.5981 -0.0645
13860SOL    HW148438   4.941  11.917  10.896  0.8766  1.4169 -1.1146
13860SOL    HW248439   4.971  11.793  10.978 -1.4383  1.6301  0.1240
13861SOL     OW48440   9.511  10.100  11.392  0.1863  0.9186 -0.3029
13861SOL    HW148441   9.548  10.039  11.456 -1.1508 -1.4326 -1.6415
13861SOL    HW248442   9.449  10.152  11.442 -2.1653 -2.0754  0.1388
13862SOL     OW48443   4.901   7.995   6.603  0.4271 -0.5108 -0.3386
13862SOL    HW148444   4.925   7.943   6.526  1.9358  0.2704 -0.4231
13862SOL    HW248445   4.814   7.963   6.627 -0.4112 -0.3056 -2.8127
13863SOL     OW48446   4.804   4.510   5.033 -0.4646  0.4141  0.1490
13863SOL    HW148447   4.864   4.436   5.032  0.4852  1.1603 -1.1417
13863SOL    HW248448   4.743   4.493   4.962 -0.0336  1.0154 -0.3760
13864SOL     OW48449   7.393   6.489   9.119 -0.3579 -0.4068  0.3085
13864SOL    HW148450   7.443   6.549   9.175  1.2956  1.2121 -2.6302
13864SOL    HW248451   7.303   6.497   9.151  0.0166  2.6313  0.9790
13865SOL     OW48452   6.080   4.001   6.920 -0.3186  0.4726  0.5899
13865SOL    HW148453   6.046   4.089   6.933 -1.7745  0.2075 -1.0379
13865SOL    HW248454   6.062   3.982   6.827 -0.6668 -1.7820  1.0640
13866SOL     OW48455   8.158  11.547   6.898 -0.8090 -0.3027  0.2363
13866SOL    HW148456   8.180  11.459   6.928 -1.4765  0.3643  3.0061
13866SOL    HW248457   8.101  11.582   6.967 -1.0230  2.0969 -1.0538
13867SOL     OW48458  11.709   6.381   6.057 -0.0531  0.6349 -0.7207
13867SOL    HW148459  11.639   6.408   6.116 -0.4882  0.6568 -1.2379
13867SOL    HW248460  11.784   6.434   6.084  0.1770 -0.3904  0.7394
13868SOL     OW48461  11.468   8.140  12.563  0.1485  0.2544 -0.3164
13868SOL    HW148462  11.451   8.056  12.521 -0.5110 -1.2559  2.7075
13868SOL    HW248463  11.563   8.149  12.561  0.2526 -0.7468 -0.4212
13869SOL     OW48464   6.906   6.746   3.759  0.2874 -0.0183  0.0149
13869SOL    HW148465   6.857   6.753   3.841 -1.6849 -2.2355 -0.8565
13869SOL    HW248466   6.878   6.823   3.709 -0.4270  0.0207  0.4576
13870SOL     OW48467   5.707  11.769   7.694 -0.3385 -0.4585  0.1391
13870SOL    HW148468   5.656  11.694   7.664 -1.0601 -1.2976  3.1366
13870SOL    HW248469   5.791  11.731   7.721  0.3472  0.2781 -0.8997
13871SOL     OW48470   5.170   2.100   7.117  0.3868  0.3206 -0.6322
13871SOL    HW148471   5.144   2.109   7.208  1.7211 -0.4116 -0.1535
13871SOL    HW248472   5.176   2.190   7.085 -2.4544  0.5740 -0.7609
13872SOL     OW48473   2.228   2.513   2.984  0.0424  0.0241 -0.3282
13872SOL    HW148474   2.290   2.516   3.058  0.5201  0.4971 -0.7358
13872SOL    HW248475   2.283   2.497   2.908 -0.3924  0.0372 -0.6442
13873SOL     OW48476   6.926   0.244   8.201 -0.0564 -0.7738 -0.0013
13873SOL    HW148477   6.859   0.308   8.177  1.6059  1.6128  1.2618
13873SOL    HW248478   6.978   0.232   8.121  0.6014  0.8377  0.1372
13874SOL     OW48479   8.797  11.071  10.042 -0.1697  0.0255  0.1578
13874SOL    HW148480   8.827  11.004  10.104  0.8745  0.6726  0.3816
13874SOL    HW248481   8.851  11.057   9.964 -0.5328  0.0824 -0.1082
13875SOL     OW48482   0.990   0.406  11.322 -0.4173  0.5685 -0.5779
13875SOL    HW148483   1.071   0.360  11.300 -0.5754  0.3136 -0.6353
13875SOL    HW248484   0.965   0.450  11.240 -0.2277  0.8153 -0.5041
13876SOL     OW48485  10.602   4.874   0.122  0.1760  0.2062  0.4012
13876SOL    HW148486  10.671   4.840   0.179 -0.5017 -1.0326  0.5166
13876SOL    HW248487  10.526   4.886   0.180 -0.3443 -0.5028 -0.1178
13877SOL     OW48488  11.258   3.559   7.861  0.5264  0.2324 -0.6955
13877SOL    HW148489  11.261   3.603   7.946  0.5811  0.8738 -1.0192
13877SOL    HW248490  11.318   3.611   7.806  0.4948 -0.1778 -1.1212
13878SOL     OW48491   5.568   6.014   3.904  0.3909 -0.1527 -0.0509
13878SOL    HW148492   5.524   6.005   3.819 -2.5663  1.5350  1.1533
13878SOL    HW248493   5.622   6.092   3.895  1.5947 -1.0373 -0.8858
13879SOL     OW48494   9.329   5.827   9.106 -0.4880  0.0837  0.1972
13879SOL    HW148495   9.320   5.781   9.190  0.1377 -0.4033  0.0104
13879SOL    HW248496   9.246   5.873   9.094 -0.6178  0.0852  1.0408
13880SOL     OW48497   3.696   5.299  11.819  0.0644  0.2101  0.1131
13880SOL    HW148498   3.705   5.238  11.892  3.6821 -2.9250 -2.5824
13880SOL    HW248499   3.769   5.360  11.828 -0.0240  0.4036 -0.4145
13881SOL     OW48500  12.282  10.813   3.778 -0.0791  0.0576 -0.0449
13881SOL    HW148501  12.339  10.797   3.854 -0.1877 -2.2014 -0.3825
13881SOL    HW248502  12.200  10.770   3.800 -0.0685 -0.7574 -1.4808
13882SOL     OW48503   1.234   0.280  11.276  0.1378  0.0122  0.0609
13882SOL    HW148504   1.315   0.326  11.298 -0.8490  0.6280  2.8881
13882SOL    HW248505   1.261   0.189  11.260  1.6907  0.7815 -2.2211
13883SOL     OW48506   7.445  10.405  11.506  0.4354  0.2521 -0.3868
13883SOL    HW148507   7.454  10.396  11.411 -0.4459  1.1661 -0.5739
13883SOL    HW248508   7.461  10.498  11.523  3.8428 -0.4182  0.7897
13884SOL     OW48509   0.750   4.790   8.795  0.2376 -0.3747 -0.0200
13884SOL    HW148510   0.725   4.801   8.887 -0.8872 -1.5031 -0.1661
13884SOL    HW248511   0.732   4.875   8.754 -1.7717 -0.6156  0.2618
13885SOL     OW48512   1.253   4.472  11.893 -0.5133  0.3621 -0.3673
13885SOL    HW148513   1.190   4.408  11.925  0.1942 -0.7444 -1.1006
13885SOL    HW248514   1.256   4.539  11.961 -1.6857 -0.0927  0.1641
13886SOL     OW48515   0.142   0.159  10.404  0.3555 -0.0514  0.7278
13886SOL    HW148516   0.101   0.091  10.457  2.1267 -0.6383  1.4277
13886SOL    HW248517   0.103   0.241  10.435 -1.9867 -0.7061 -0.2967
13887SOL     OW48518   0.012   7.701   0.785  0.0340 -0.1337 -0.3452
13887SOL    HW148519   0.004   7.707   0.880  1.2851 -0.5115 -0.1901
13887SOL    HW248520   0.103   7.727   0.768  0.3689 -1.7912 -1.2568
13888SOL     OW48521   3.661   2.648   3.435 -0.0667 -0.1916  0.1664
13888SOL    HW148522   3.725   2.719   3.420 -0.0663 -0.6229 -2.3289
13888SOL    HW248523   3.714   2.575   3.468  0.4581 -0.0012 -0.2303
13889SOL     OW48524   3.648   2.238   0.273  0.9882 -0.6013 -0.1119
13889SOL    HW148525   3.742   2.244   0.287  0.8165 -1.8781  2.0700
13889SOL    HW248526   3.614   2.203   0.355 -1.6462  1.5974 -0.1179
13890SOL     OW48527   7.601   1.386   5.251  0.0015 -0.5020 -0.8071
13890SOL    HW148528   7.600   1.476   5.217 -0.7450 -0.2965 -0.2564
13890SOL    HW248529   7.510   1.369   5.276 -0.2413 -2.0126 -2.4595
13891SOL     OW48530   8.140   2.025  10.793  0.2105 -0.3546  0.0256
13891SOL    HW148531   8.087   1.965  10.845  0.2054 -0.5360 -0.1896
13891SOL    HW248532   8.204   1.969  10.749 -1.0465 -0.4479 -1.7366
13892SOL     OW48533   9.155   2.754   6.604  0.3753 -0.1165  0.1918
13892SOL    HW148534   9.119   2.753   6.693  1.4232 -1.2667  0.6330
13892SOL    HW248535   9.175   2.662   6.586 -0.2943  0.0337 -1.4432
13893SOL     OW48536   6.783   3.922  11.949 -1.0979 -0.0503 -0.0750
13893SOL    HW148537   6.720   3.986  11.915 -1.1165  0.0760  0.1941
13893SOL    HW248538   6.868   3.951  11.914 -1.2420 -0.4511 -0.7664
13894SOL     OW48539   8.341  11.421   4.878 -0.2701  0.0069 -0.3057
13894SOL    HW148540   8.286  11.499   4.886  0.8263  0.6316  2.2945
13894SOL    HW248541   8.354  11.392   4.968 -2.0864 -4.3109 -1.1757
13895SOL     OW48542   0.417  11.958   3.194  0.3487  0.4036 -0.2752
13895SOL    HW148543   0.489  11.954   3.130  0.6436  0.1651  0.0668
13895SOL    HW248544   0.365  11.881   3.176  0.9104 -0.1285  0.3240
13896SOL     OW48545  10.128   4.399   0.484 -0.4842  0.6899 -0.1968
13896SOL    HW148546  10.036   4.390   0.510 -1.0540  0.9968 -1.9204
13896SOL    HW248547  10.150   4.315   0.444 -0.3317  0.9387 -0.6464
13897SOL     OW48548   4.632   1.885   4.969  0.1454 -0.3407  0.0467
13897SOL    HW148549   4.539   1.893   4.949  0.5628  1.8154 -1.3354
13897SOL    HW248550   4.672   1.961   4.927  2.5863 -1.3821  0.3465
13898SOL     OW48551   8.260   1.585   2.237  0.6737 -0.4477 -0.3359
13898SOL    HW148552   8.173   1.544   2.235  0.3796  0.1923 -1.3080
13898SOL    HW248553   8.319   1.514   2.263 -0.0609 -1.0357 -0.2306
13899SOL     OW48554   8.440   6.499   9.810 -0.5170  0.1512 -0.1820
13899SOL    HW148555   8.383   6.482   9.886 -0.5334 -1.3825 -0.5054
13899SOL    HW248556   8.425   6.424   9.752 -1.0154  1.6132 -2.0320
13900SOL     OW48557  12.446   8.842   2.047  0.0241 -0.5283  0.1914
13900SOL    HW148558  12.374   8.830   2.110  0.0513  1.1996  0.5846
13900SOL    HW248559  12.414   8.799   1.967 -1.3106 -0.0849  0.4532
13901SOL     OW48560   6.737   4.008   4.799 -0.1879 -0.1140  0.1378
13901SOL    HW148561   6.734   4.009   4.703  2.5569  2.9374 -0.0752
13901SOL    HW248562   6.822   3.971   4.820 -1.0850 -1.5076  1.5064
13902SOL     OW48563  11.728  10.732  12.373 -0.2588  0.1626 -0.2109
13902SOL    HW148564  11.712  10.698  12.285 -0.6880 -0.6916  0.1844
13902SOL    HW248565  11.666  10.805  12.382 -1.4047 -0.8125 -0.0240
13903SOL     OW48566  11.261   8.798  10.595  0.5881 -0.6629  0.3109
13903SOL    HW148567  11.244   8.886  10.562  2.6255 -1.1108 -2.2484
13903SOL    HW248568  11.300   8.812  10.682 -0.9789  0.7925  0.8259
13904SOL     OW48569  10.599   2.571   2.415 -0.5883  0.1689  0.5021
13904SOL    HW148570  10.503   2.571   2.417 -0.6227 -0.6276 -0.4683
13904SOL    HW248571  10.624   2.656   2.450 -1.6057 -0.2072  2.2379
13905SOL     OW48572  11.325   2.871   1.270  0.0232  0.2068 -0.3119
13905SOL    HW148573  11.294   2.808   1.335 -0.4377  1.4740  0.7354
13905SOL    HW248574  11.415   2.844   1.250  0.1711 -0.2049  0.8619
13906SOL     OW48575   8.721   9.363   9.328 -0.5140  0.1498 -0.0871
13906SOL    HW148576   8.774   9.283   9.323  0.1222  0.5681 -0.1277
13906SOL    HW248577   8.784   9.432   9.348 -0.7059  0.9810 -2.0804
13907SOL     OW48578   4.656   8.375   4.524  0.0126 -0.6973 -0.0099
13907SOL    HW148579   4.644   8.414   4.437 -2.3680 -0.2008  0.4657
13907SOL    HW248580   4.586   8.310   4.531  1.8500 -2.7467  0.5298
13908SOL     OW48581   9.390   7.430   8.034  0.4689 -0.4185  0.3352
13908SOL    HW148582   9.336   7.465   8.105 -0.6015 -0.5035 -0.4278
13908SOL    HW248583   9.478   7.423   8.072 -0.3569 -1.8621  2.1412
13909SOL     OW48584   0.639  10.989   2.173  0.4775 -0.4045 -0.0802
13909SOL    HW148585   0.717  10.972   2.121 -0.0091 -2.5890 -0.2073
13909SOL    HW248586   0.568  10.949   2.123 -0.3251 -0.6881  1.2391
13910SOL     OW48587   4.308   6.973   8.086  0.5184  0.2981 -0.0934
13910SOL    HW148588   4.272   7.036   8.148 -0.5678  0.5624 -0.9576
13910SOL    HW248589   4.371   7.024   8.035 -1.0357  0.9938 -1.4206
13911SOL     OW48590   4.137   4.513   1.923 -0.5407  0.4459  0.5816
13911SOL    HW148591   4.106   4.423   1.916 -2.7600  1.2283 -0.4780
13911SOL    HW248592   4.089   4.561   1.855  0.6222  2.4291  1.0626
13912SOL     OW48593   7.003   6.924  11.865  0.5079 -0.4418  0.2105
13912SOL    HW148594   6.913   6.920  11.897  0.0389 -0.2539 -1.0210
13912SOL    HW248595   7.000   6.989  11.795  1.7509  0.0446  0.5831
13913SOL     OW48596   0.743   5.276   9.843  0.0975  0.4066 -0.8152
13913SOL    HW148597   0.757   5.362   9.885  1.1818  0.4037 -1.1351
13913SOL    HW248598   0.821   5.226   9.868 -2.2985 -1.9871  2.9087
13914SOL     OW48599  12.441  11.367  10.430 -0.2162 -0.6581  0.0365
13914SOL    HW148600  12.426  11.277  10.458 -0.4647 -0.5194  0.3498
13914SOL    HW248601  12.378  11.419  10.479 -1.0622 -0.4724 -1.1837
13915SOL     OW48602   6.846  12.179  11.567 -0.0159 -0.2844 -0.6870
13915SOL    HW148603   6.792  12.126  11.508 -2.4023  1.0067  0.1961
13915SOL    HW248604   6.899  12.233  11.509 -0.2389 -1.0202 -1.5994
13916SOL     OW48605  10.754   4.386  12.368 -0.2359 -0.5089 -0.6346
13916SOL    HW148606  10.789   4.412  12.283  3.3975 -1.9027  0.2329
13916SOL    HW248607  10.755   4.290  12.366 -0.6012 -0.5614  0.8070
13917SOL     OW48608  10.103   8.158   2.445  0.0160 -0.0652  0.2377
13917SOL    HW148609  10.075   8.119   2.528  1.9663 -0.8504  0.5664
13917SOL    HW248610  10.112   8.083   2.386 -0.6214  0.4109 -0.4936
13918SOL     OW48611  12.299   6.123   6.042  0.1478 -0.6409 -0.0582
13918SOL    HW148612  12.264   6.035   6.034 -1.7910  0.1401 -0.7967
13918SOL    HW248613  12.259   6.172   5.970  0.7104  0.9808  0.6696
13919SOL     OW48614   3.062   5.905   8.600  0.9708 -0.1553  0.7398
13919SOL    HW148615   2.992   5.884   8.539  0.1146  0.3153  1.5376
13919SOL    HW248616   3.127   5.952   8.548 -0.2031  1.1288  0.3970
13920SOL     OW48617   5.658   7.392   6.636 -0.5844 -0.2864  0.0419
13920SOL    HW148618   5.751   7.392   6.657 -0.3324 -0.5399 -1.0003
13920SOL    HW248619   5.655   7.395   6.540 -1.6641  1.4328  0.0737
13921SOL     OW48620   2.180   2.982   5.796  0.0484  0.6829 -0.1042
13921SOL    HW148621   2.265   2.947   5.768 -1.5038 -1.6457 -2.3461
13921SOL    HW248622   2.182   2.976   5.892  3.2056  2.9253  0.1425
13922SOL     OW48623   7.753   4.357   5.791  0.1566  0.2381  0.5742
13922SOL    HW148624   7.844   4.381   5.773 -0.0255  0.9111  0.5289
13922SOL    HW248625   7.749   4.352   5.887  0.4771 -0.7651  0.5472
13923SOL     OW48626   9.251  11.332   6.675 -0.3884 -0.8562  0.2362
13923SOL    HW148627   9.288  11.415   6.646 -0.4661 -0.0295  2.3477
13923SOL    HW248628   9.267  11.272   6.602  1.4173  0.5112 -0.5745
13924SOL     OW48629  12.137  11.896  10.060 -0.1668  0.1167 -0.0027
13924SOL    HW148630  12.058  11.889  10.007 -1.7451 -0.7081  2.2616
13924SOL    HW248631  12.160  11.989  10.058 -0.1077  0.0974 -2.0947
13925SOL     OW48632   2.165   3.012   9.946  0.0366 -0.4088 -0.4653
13925SOL    HW148633   2.158   2.996   9.851  0.7301  2.1084 -1.0051
13925SOL    HW248634   2.082   3.053   9.969 -0.2539 -1.2973  0.1188
13926SOL     OW48635   7.150  12.330   4.260 -0.0866 -0.5601 -0.3496
13926SOL    HW148636   7.096  12.401   4.227 -0.5299 -0.7961 -0.1469
13926SOL    HW248637   7.240  12.358   4.245 -0.2436 -1.2299 -2.9903
13927SOL     OW48638   4.942  10.777  12.140 -0.1692 -0.0795 -0.0679
13927SOL    HW148639   4.861  10.773  12.088 -1.5379  1.1381  1.8327
13927SOL    HW248640   4.976  10.688  12.137 -0.1632 -0.0958 -2.9557
13928SOL     OW48641   2.073   1.487   8.916  0.5447 -0.0800 -0.1413
13928SOL    HW148642   2.133   1.526   8.852 -1.1442 -0.1402 -1.8644
13928SOL    HW248643   2.073   1.548   8.989  0.3140  1.6054 -1.4762
13929SOL     OW48644   5.001   6.848   3.578  0.0895 -0.8909  0.1462
13929SOL    HW148645   4.975   6.911   3.511 -1.5613 -1.2893  0.3791
13929SOL    HW248646   4.962   6.881   3.658  1.8483 -0.5499  0.9048
13930SOL     OW48647   1.737  12.138  12.047  0.5972 -0.5592 -0.8272
13930SOL    HW148648   1.694  12.217  12.015  1.0063  0.9772  2.0466
13930SOL    HW248649   1.772  12.096  11.969 -0.5476  1.5253 -2.5755
13931SOL     OW48650   8.930   4.674   7.024  0.2779 -0.1451  0.1283
13931SOL    HW148651   8.936   4.595   7.078  1.4759 -0.6397 -0.6726
13931SOL    HW248652   8.841   4.705   7.036 -0.7442 -2.4974 -0.7136
13932SOL     OW48653  11.948   9.837   9.086 -0.0005  0.1195  0.2168
13932SOL    HW148654  11.911   9.901   9.026  1.5279  1.0646  0.2627
13932SOL    HW248655  11.872   9.785   9.114 -1.1821  1.5233 -0.2567
13933SOL     OW48656   8.848   8.227   9.621 -0.0022 -0.1976 -0.0774
13933SOL    HW148657   8.918   8.292   9.619 -0.5759  0.4457  0.2671
13933SOL    HW248658   8.842   8.200   9.712 -0.6693  0.2852  0.0322
13934SOL     OW48659  10.889  11.582   4.054 -0.5144 -0.3582 -0.1442
13934SOL    HW148660  10.856  11.641   3.986 -0.2252 -1.6390 -1.4527
13934SOL    HW248661  10.814  11.567   4.112 -0.8099  0.6482 -0.2519
13935SOL     OW48662   1.142   4.280   9.703 -0.2428  0.5017  0.4235
13935SOL    HW148663   1.194   4.253   9.627  0.7077  1.3300  0.7564
13935SOL    HW248664   1.085   4.205   9.720 -0.5608  0.3463 -1.1680
13936SOL     OW48665   6.269   0.017   2.966  0.3550 -0.3696  0.1552
13936SOL    HW148666   6.255  -0.072   2.999 -0.3090 -0.2872  0.1105
13936SOL    HW248667   6.206   0.027   2.895 -1.9347  1.2283  2.2479
13937SOL     OW48668   1.526   1.878   5.830 -0.5210 -0.1529 -0.4472
13937SOL    HW148669   1.509   1.912   5.742  0.7215  0.2854 -0.5391
13937SOL    HW248670   1.618   1.898   5.846 -0.4584 -1.1354  0.5571
13938SOL     OW48671   7.026   0.274   5.843 -0.3919  0.6273 -0.2802
13938SOL    HW148672   7.101   0.246   5.791  0.0700  0.4811  0.4531
13938SOL    HW248673   6.964   0.309   5.779  0.0817  0.2691 -0.9436
13939SOL     OW48674   3.669   1.683   6.690  0.2497 -0.4330  0.1835
13939SOL    HW148675   3.675   1.587   6.692 -0.6034 -0.4975  1.7430
13939SOL    HW248676   3.758   1.713   6.711  0.4182 -0.9011  0.1497
13940SOL     OW48677  11.350  11.463   3.177 -0.3244  0.7069  0.4921
13940SOL    HW148678  11.370  11.372   3.200  1.3757  0.5533 -1.3824
13940SOL    HW248679  11.293  11.457   3.101  0.1618  1.1958  0.0801
13941SOL     OW48680   6.543   0.801   5.520  0.0631 -0.3367  0.0635
13941SOL    HW148681   6.509   0.849   5.445 -0.7553 -1.0044 -0.0090
13941SOL    HW248682   6.625   0.845   5.542 -0.6316  1.0475 -0.0221
13942SOL     OW48683   4.779   3.804   2.573 -0.2186  0.3703 -0.0866
13942SOL    HW148684   4.726   3.757   2.508 -0.0618 -0.8674  0.6585
13942SOL    HW248685   4.786   3.744   2.647  0.6873  1.2523  0.5724
13943SOL     OW48686   8.410   3.993   7.065  0.4139  0.3384 -0.1062
13943SOL    HW148687   8.331   3.955   7.027 -0.2262  1.0351  0.4949
13943SOL    HW248688   8.380   4.034   7.145  1.8482 -1.7344  1.6026
13944SOL     OW48689   1.410   9.033   5.968 -0.1098 -0.7686  0.4895
13944SOL    HW148690   1.447   8.952   5.932  0.2889 -0.2603 -0.2688
13944SOL    HW248691   1.318   9.012   5.984 -0.1419 -1.2084 -0.2211
13945SOL     OW48692  10.961   1.302   3.384  0.0591 -0.3294 -0.0126
13945SOL    HW148693  10.885   1.359   3.397  0.4628  0.0629  0.6740
13945SOL    HW248694  10.924   1.221   3.349 -0.6442 -0.0557  0.0770
13946SOL     OW48695   5.449   6.242  10.112 -0.3047  0.1201  0.3839
13946SOL    HW148696   5.387   6.306  10.076  0.5763 -0.1485 -1.8259
13946SOL    HW248697   5.401   6.160  10.112 -0.4394  0.1959  0.1172
13947SOL     OW48698   4.167   7.337  11.920  0.3547  0.6447  0.0909
13947SOL    HW148699   4.170   7.262  11.980  0.3475  1.5909  1.2937
13947SOL    HW248700   4.251   7.381  11.932  1.7847 -0.8830 -2.9691
13948SOL     OW48701   8.944  10.681   8.281 -0.9554  0.0110  0.1338
13948SOL    HW148702   8.910  10.746   8.219  0.3467 -0.2918 -0.9450
13948SOL    HW248703   8.866  10.642   8.320 -1.7829  1.2278 -0.2392
13949SOL     OW48704   1.963   3.638   4.803 -0.5331 -0.3709  0.2409
13949SOL    HW148705   2.016   3.671   4.731 -0.0776  1.5993  1.4141
13949SOL    HW248706   2.001   3.552   4.823  1.3722  0.4131  0.1595
13950SOL     OW48707   1.757   3.703   5.922 -0.3004 -0.2036  0.2086
13950SOL    HW148708   1.738   3.725   6.013 -2.4227  0.1818 -0.2921
13950SOL    HW248709   1.700   3.759   5.870  0.2327 -1.0263 -1.3621
13951SOL     OW48710   4.900   5.256   8.029  0.1318 -0.0233 -0.2282
13951SOL    HW148711   4.995   5.246   8.041 -0.0318 -1.4271  0.1200
13951SOL    HW248712   4.880   5.202   7.953 -0.6149 -1.2657  0.7931
13952SOL     OW48713   1.623  11.607   0.483 -0.0363  0.2063  0.0343
13952SOL    HW148714   1.531  11.587   0.467  0.1025 -0.1416 -0.3537
13952SOL    HW248715   1.643  11.681   0.425  0.1218 -0.2011 -0.4341
13953SOL     OW48716   2.148   4.814   3.903  0.1042  0.4317 -0.2704
13953SOL    HW148717   2.058   4.840   3.884  0.0596  0.9321  0.5642
13953SOL    HW248718   2.195   4.827   3.821 -0.2325  1.8110 -0.2708
13954SOL     OW48719   3.358   4.255   3.484 -0.7029  0.7829 -0.1058
13954SOL    HW148720   3.448   4.245   3.517  0.6554  1.8086 -3.1601
13954SOL    HW248721   3.303   4.242   3.562  2.1051  1.6317  2.2099
13955SOL     OW48722   0.300   5.666   9.635 -0.3487  0.4630 -0.0571
13955SOL    HW148723   0.370   5.731   9.632 -0.0699  0.1240 -1.5497
13955SOL    HW248724   0.309   5.626   9.722  0.5246  1.2568  0.2421
13956SOL     OW48725   7.571   1.204   4.065  0.3733 -0.1536  0.5381
13956SOL    HW148726   7.578   1.110   4.076  0.4398 -0.2580 -0.3350
13956SOL    HW248727   7.658   1.232   4.036  0.5605  0.2841  1.4894
13957SOL     OW48728   9.103   0.239   9.349 -0.6797 -0.4915  0.5649
13957SOL    HW148729   9.075   0.327   9.376  0.8494  0.2868 -0.2246
13957SOL    HW248730   9.191   0.230   9.385  0.5161 -0.3282 -2.0790
13958SOL     OW48731   5.363  11.603   6.466 -0.1002 -0.2236  0.6227
13958SOL    HW148732   5.346  11.510   6.451  0.0304 -0.2126  0.4036
13958SOL    HW248733   5.458  11.611   6.458 -0.0664 -0.1502  1.0839
13959SOL     OW48734   3.648   4.542   0.487 -0.1730 -0.1903 -0.3670
13959SOL    HW148735   3.718   4.604   0.506 -0.6264 -0.3558  2.2845
13959SOL    HW248736   3.691   4.457   0.486 -0.1734 -0.2013  0.2659
13960SOL     OW48737   9.826   3.844   2.771  0.6831  0.1922  0.3886
13960SOL    HW148738   9.884   3.917   2.791 -0.5581  1.2067  0.3982
13960SOL    HW248739   9.789   3.818   2.856  0.8335 -0.1998  0.3361
13961SOL     OW48740   9.594   2.259   1.658  0.5583 -0.4897 -0.2773
13961SOL    HW148741   9.538   2.266   1.581 -0.4709 -1.1086  0.3806
13961SOL    HW248742   9.560   2.182   1.705  0.2924  0.6455  1.4608
13962SOL     OW48743   8.586   1.962   7.130 -0.6671  0.3708 -0.1994
13962SOL    HW148744   8.615   1.990   7.043  2.8914 -1.4494  0.2161
13962SOL    HW248745   8.528   1.888   7.113 -0.3214  0.2760 -1.0289
13963SOL     OW48746   5.205  11.275   9.366 -0.5781 -0.1138 -0.3345
13963SOL    HW148747   5.189  11.207   9.432  2.4310 -1.6816 -0.9946
13963SOL    HW248748   5.235  11.226   9.289 -0.8263  1.8638 -1.7596
13964SOL     OW48749   9.370   9.589   3.896  0.4049  0.2072  0.4344
13964SOL    HW148750   9.310   9.611   3.824 -0.4116  0.1400  1.0786
13964SOL    HW248751   9.443   9.545   3.854 -0.7817 -1.2222 -0.1965
13965SOL     OW48752   1.986   7.147   6.743  0.1661 -0.1491 -0.3940
13965SOL    HW148753   1.946   7.134   6.657  0.7130 -0.1780 -0.6476
13965SOL    HW248754   2.075   7.177   6.724 -0.4626  2.2983  0.1404
13966SOL     OW48755   4.998   7.833   0.923 -0.9334  0.3211  0.4861
13966SOL    HW148756   4.974   7.743   0.901  0.0707  0.1528 -0.0092
13966SOL    HW248757   4.958   7.886   0.854 -0.5207  0.1187  0.0819
13967SOL     OW48758   5.015   3.316  12.339  0.2079 -0.0743 -0.1533
13967SOL    HW148759   5.052   3.228  12.328  3.0051  0.8438  1.1664
13967SOL    HW248760   5.009   3.328  12.434 -0.0267  1.2076 -0.3150
13968SOL     OW48761   4.120   4.210   1.842  0.5646 -0.3428  0.0403
13968SOL    HW148762   4.093   4.268   1.771  1.1357  0.3655  0.3876
13968SOL    HW248763   4.214   4.225   1.851  0.3089  0.5784  1.7915
13969SOL     OW48764   1.308   2.267   2.411  0.2327  0.0752 -0.4213
13969SOL    HW148765   1.288   2.173   2.404  1.4284 -0.2156 -0.1839
13969SOL    HW248766   1.241   2.310   2.357 -1.0895 -0.8035  0.4474
13970SOL     OW48767  10.215  10.455   2.321 -0.0811 -0.2028 -0.5810
13970SOL    HW148768  10.160  10.378   2.308 -0.1168 -0.3825  0.4945
13970SOL    HW248769  10.249  10.444   2.410  0.6674  0.5505 -0.7710
13971SOL     OW48770   0.163   1.852  11.166  0.3559  0.5622 -0.0553
13971SOL    HW148771   0.139   1.759  11.168 -0.3034  0.6836 -1.0635
13971SOL    HW248772   0.253   1.855  11.197  1.9114 -0.9652 -3.8199
13972SOL     OW48773   2.322   1.146   6.632 -0.1065  0.3129  0.1483
13972SOL    HW148774   2.281   1.216   6.682  1.4178  1.0034  0.4651
13972SOL    HW248775   2.406   1.131   6.675  1.0137  0.5481 -1.8407
13973SOL     OW48776   5.522  12.433   8.578 -0.1256  0.2942 -0.1409
13973SOL    HW148777   5.462  12.483   8.523  0.1195  1.3033  0.4853
13973SOL    HW248778   5.589  12.401   8.518  0.4041  1.7814 -0.3789
13974SOL     OW48779  12.451   6.593   4.272 -0.0316 -0.2975 -0.4172
13974SOL    HW148780  12.368   6.582   4.227 -0.5212 -0.9519  0.6206
13974SOL    HW248781  12.454   6.522   4.336  1.1187 -0.0149 -0.1333
13975SOL     OW48782   4.164  11.934   4.860  0.7286 -0.6349 -0.4053
13975SOL    HW148783   4.230  11.901   4.921 -0.6124 -2.3293  0.2182
13975SOL    HW248784   4.081  11.903   4.896 -0.3218  0.5529 -1.7186
13976SOL     OW48785  11.193   2.144   3.019  0.5619  0.8347 -0.3941
13976SOL    HW148786  11.173   2.105   2.933  2.3373 -1.2928  0.0682
13976SOL    HW248787  11.159   2.233   3.013 -0.6565  0.2935 -2.7901
13977SOL     OW48788   4.401   8.506   4.034 -0.3427  0.4608  0.4939
13977SOL    HW148789   4.376   8.488   3.943 -0.4501 -1.4905  0.8594
13977SOL    HW248790   4.464   8.578   4.028 -0.5071  0.5045 -1.1043
13978SOL     OW48791   3.276   2.017   7.905  0.1125 -0.4355 -0.4723
13978SOL    HW148792   3.258   2.026   7.811 -1.0262 -0.1288 -0.2485
13978SOL    HW248793   3.191   2.035   7.946  0.2748 -1.8671  0.5531
13979SOL     OW48794  10.462   0.063  11.093  0.3146  0.5981  0.0493
13979SOL    HW148795  10.430  -0.027  11.087  1.8960 -0.0065  0.3574
13979SOL    HW248796  10.453   0.096  11.004 -0.4685  0.2255 -0.0276
13980SOL     OW48797   9.296   8.471   1.929  0.4825  0.0390 -0.3711
13980SOL    HW148798   9.347   8.424   1.995  0.5808 -1.7483 -1.6684
13980SOL    HW248799   9.361   8.502   1.866  0.2465  0.5014 -0.3967
13981SOL     OW48800   3.709   9.694   9.178  0.0190 -0.5557 -0.3384
13981SOL    HW148801   3.745   9.713   9.264 -0.8652  0.3953 -0.1510
13981SOL    HW248802   3.775   9.639   9.135  2.1479  1.8237 -0.3698
13982SOL     OW48803   1.218   8.354   1.749  0.1255 -0.3743  0.3010
13982SOL    HW148804   1.227   8.259   1.735  1.3306 -0.1894 -0.3634
13982SOL    HW248805   1.309   8.386   1.750 -0.2888  1.0795 -1.8760
13983SOL     OW48806   3.301  10.273   0.925  0.2846  0.0986 -0.1735
13983SOL    HW148807   3.382  10.258   0.875  0.6735 -0.8255  0.7037
13983SOL    HW248808   3.332  10.306   1.010 -0.3060  0.5665 -0.1410
13984SOL     OW48809   2.475   6.586  10.424  0.1144  0.0380  0.3441
13984SOL    HW148810   2.514   6.538  10.351 -1.4010 -0.1141 -0.4024
13984SOL    HW248811   2.481   6.678  10.398  1.3967  0.1537  0.9677
13985SOL     OW48812   4.571  11.141  10.522  0.0598 -0.2147 -0.5736
13985SOL    HW148813   4.603  11.231  10.516 -2.5992  0.9002  0.6111
13985SOL    HW248814   4.593  11.103  10.437  0.3956  1.8598 -1.4846
13986SOL     OW48815   8.243   7.651   0.227  0.1040  0.1091  0.0915
13986SOL    HW148816   8.267   7.681   0.315  0.5093  0.2001 -0.0473
13986SOL    HW248817   8.149   7.636   0.232  0.0335  0.6032  0.4008
13987SOL     OW48818   3.582   8.067   9.477 -0.4797  0.3762  0.0547
13987SOL    HW148819   3.519   8.003   9.443  0.4975 -0.0448 -1.0275
13987SOL    HW248820   3.529   8.142   9.503 -1.4181  0.0649 -0.9226
13988SOL     OW48821   1.006   7.546   3.192  0.2458 -0.0468 -0.5025
13988SOL    HW148822   1.094   7.514   3.211  0.3600 -0.0142 -0.9658
13988SOL    HW248823   1.014   7.641   3.194  0.0622 -0.0439  0.1709
13989SOL     OW48824   0.660   4.936   5.937  0.1278  0.1287 -0.3446
13989SOL    HW148825   0.742   4.890   5.924  0.6602  0.8776  0.3081
13989SOL    HW248826   0.682   5.011   5.992 -1.0389  0.1818  0.0837
13990SOL     OW48827   5.054  12.153   5.449  0.4681 -0.8212 -0.0717
13990SOL    HW148828   5.096  12.200   5.521  0.6798 -1.1877  0.0410
13990SOL    HW248829   5.083  12.063   5.457  1.7763 -0.5809 -1.5410
13991SOL     OW48830  11.023   8.435   8.578  0.1980  0.6426  0.3116
13991SOL    HW148831  11.014   8.409   8.670 -0.0602 -0.5207 -0.0176
13991SOL    HW248832  10.963   8.376   8.531 -1.1070  2.4607 -0.4155
13992SOL     OW48833  10.140   6.381   2.863  0.1409  0.1903 -0.2061
13992SOL    HW148834  10.224   6.380   2.909 -0.1112  0.7799  0.2883
13992SOL    HW248835  10.163   6.399   2.772  0.5422  0.5675 -0.0372
13993SOL     OW48836   3.140   3.520   2.883  0.0686  0.0929  0.1978
13993SOL    HW148837   3.184   3.482   2.807  0.4218  0.4583  0.2172
13993SOL    HW248838   3.103   3.603   2.851  0.2488  0.2664  0.4290
13994SOL     OW48839   3.929   8.803   3.430  1.0297 -0.4399  0.1074
13994SOL    HW148840   4.014   8.833   3.400  0.8489 -1.5292 -1.6410
13994SOL    HW248841   3.896   8.749   3.358 -3.1805  3.5960 -1.5023
13995SOL     OW48842  12.246   9.310   1.687  0.2847  0.1436 -0.4707
13995SOL    HW148843  12.153   9.325   1.703 -0.1598 -2.9516  0.7009
13995SOL    HW248844  12.289   9.338   1.768 -0.0855 -1.3071  0.2697
13996SOL     OW48845   2.324  11.768  10.995  0.2525 -0.0955  0.1372
13996SOL    HW148846   2.384  11.842  11.004  2.3126 -1.6434 -0.0602
13996SOL    HW248847   2.249  11.803  10.947  1.8982  1.4933 -1.4279
13997SOL     OW48848   0.208   7.765   1.350 -0.0941  0.0642 -0.4148
13997SOL    HW148849   0.229   7.732   1.438  0.2262  1.2892 -0.0063
13997SOL    HW248850   0.132   7.822   1.364  0.2461  0.6282 -0.8517
13998SOL     OW48851   9.963   8.441   2.473  0.0741 -0.1481  0.6504
13998SOL    HW148852  10.050   8.405   2.489  0.2669  0.8032  1.8227
13998SOL    HW248853   9.977   8.510   2.408  0.3007  0.4074  1.2779
13999SOL     OW48854  12.065   6.130  12.158 -0.4479 -0.1676  0.2422
13999SOL    HW148855  11.989   6.073  12.169 -1.3279  0.7488 -0.8542
13999SOL    HW248856  12.055   6.168  12.071  0.6166  0.9238  0.5627
14000SOL     OW48857   4.988  11.362  12.124 -0.4310 -0.3148 -0.2278
14000SOL    HW148858   5.038  11.283  12.145  1.5628 -0.3158 -4.0483
14000SOL    HW248859   4.897  11.333  12.125  0.1526 -2.3104 -0.1432
14001SOL     OW48860   6.631   1.191   0.489 -0.7788 -0.3058 -0.4270
14001SOL    HW148861   6.547   1.157   0.520 -1.2989  1.7456  0.5974
14001SOL    HW248862   6.629   1.178   0.394 -1.7166 -1.4054 -0.2704
14002SOL     OW48863  12.110  10.843   0.390  0.1507 -0.0186  0.3479
14002SOL    HW148864  12.072  10.803   0.468  0.5440  0.1278  0.6152
14002SOL    HW248865  12.093  10.937   0.400 -2.7381 -0.2280 -1.3235
14003SOL     OW48866   3.824   3.640   8.468  0.2978  0.0489  0.6061
14003SOL    HW148867   3.785   3.727   8.473  1.0285  0.4954 -0.7982
14003SOL    HW248868   3.752   3.580   8.488  0.0248  0.9750  2.6426
14004SOL     OW48869   9.675   2.725   1.672  0.3541 -0.3086 -0.4150
14004SOL    HW148870   9.685   2.637   1.708  0.3707 -0.1615 -0.0509
14004SOL    HW248871   9.765   2.758   1.666  0.5252 -0.9634 -2.2458
14005SOL     OW48872   3.914   6.981   2.007  0.1137 -0.5086 -0.0136
14005SOL    HW148873   3.936   6.968   2.099 -2.0813 -2.1803  0.3662
14005SOL    HW248874   3.856   7.058   2.007 -0.6485 -1.0669  0.1744
14006SOL     OW48875   5.917   0.985  10.779 -0.4691  0.4279  0.2897
14006SOL    HW148876   5.973   0.921  10.822 -1.3910  0.0758  1.0055
14006SOL    HW248877   5.927   1.065  10.832 -0.3243  0.4902  0.1693
14007SOL     OW48878   7.539   9.730   6.227  0.3424 -0.1583  0.2444
14007SOL    HW148879   7.551   9.642   6.191  2.0536 -0.2724  1.0004
14007SOL    HW248880   7.576   9.788   6.161  1.9570 -0.2514  1.0211
14008SOL     OW48881   8.597   5.515   4.536  0.3643  0.2647 -0.2921
14008SOL    HW148882   8.678   5.465   4.532  0.8275  1.0024 -0.2357
14008SOL    HW248883   8.601   5.563   4.618 -0.9685 -1.0603  0.6074
14009SOL     OW48884   5.871  12.268   3.760 -0.3338 -0.3980 -0.7131
14009SOL    HW148885   5.806  12.205   3.730 -0.8597  0.1850 -0.8085
14009SOL    HW248886   5.823  12.351   3.769  0.1245 -0.2292  0.3657
14010SOL     OW48887   5.315   5.165   3.780 -0.4956  0.0076  0.2034
14010SOL    HW148888   5.313   5.096   3.714 -0.7312  0.4239 -0.2302
14010SOL    HW248889   5.291   5.245   3.733 -0.3805  0.3623  0.7293
14011SOL     OW48890   6.067  11.859   2.478 -0.7804 -0.1562 -0.1963
14011SOL    HW148891   6.026  11.936   2.438 -2.0113 -0.1446  1.0176
14011SOL    HW248892   6.161  11.873   2.467 -1.0407  0.1888 -2.4092
14012SOL     OW48893   8.670   4.841   1.852 -0.0041 -0.1427 -0.4964
14012SOL    HW148894   8.722   4.857   1.930 -1.7833 -0.4568  0.8183
14012SOL    HW248895   8.594   4.792   1.883 -1.7941  1.4578 -2.0463
14013SOL     OW48896   6.072   4.452   9.826  0.5073  0.0351  0.3344
14013SOL    HW148897   5.977   4.458   9.834  0.3444  0.2651 -1.4111
14013SOL    HW248898   6.099   4.398   9.901 -1.0847 -0.8466  0.3201
14014SOL     OW48899   1.669  10.656  12.018 -0.1259  0.0971 -0.5348
14014SOL    HW148900   1.641  10.685  11.931  0.1876  0.0223 -0.6631
14014SOL    HW248901   1.724  10.579  12.001  0.9151  0.7762 -0.3634
14015SOL     OW48902   8.276   2.449   8.720 -0.4806  0.4651  0.3196
14015SOL    HW148903   8.326   2.463   8.801  0.2703  0.6031 -0.1587
14015SOL    HW248904   8.340   2.416   8.658 -0.9558  0.7915 -0.3533
14016SOL     OW48905   6.948   7.669   4.638 -0.4505  0.0722 -0.0167
14016SOL    HW148906   6.977   7.726   4.709 -2.4481 -1.2038  1.9475
14016SOL    HW248907   6.859   7.699   4.618 -0.5161 -0.6311 -0.8337
14017SOL     OW48908   5.888  10.314   4.783 -0.5713  0.4535 -0.0828
14017SOL    HW148909   5.842  10.283   4.704  0.6477  0.0625 -0.6663
14017SOL    HW248910   5.819  10.349   4.839 -1.6336 -0.5765 -0.7130
14018SOL     OW48911   0.835  10.716  10.468  0.1599  0.0109  0.8890
14018SOL    HW148912   0.853  10.810  10.463 -1.4050  0.3507  1.1921
14018SOL    HW248913   0.872  10.689  10.552  0.8967  0.2781  0.6583
14019SOL     OW48914   1.919   8.519   1.044  0.0655  0.6451  0.5982
14019SOL    HW148915   1.884   8.602   1.076 -1.4450 -0.3912  1.7497
14019SOL    HW248916   1.977   8.544   0.972  1.5635  2.8921  2.4117
14020SOL     OW48917  11.441   1.462   1.407 -0.5837  0.0089 -0.2181
14020SOL    HW148918  11.435   1.438   1.499 -0.5173  1.6490  0.2367
14020SOL    HW248919  11.415   1.383   1.360  1.4778 -1.5819  1.1368
14021SOL     OW48920   7.369  11.273   9.310  0.3288 -0.3197 -0.2732
14021SOL    HW148921   7.383  11.191   9.358 -0.7390 -0.8049 -0.7622
14021SOL    HW248922   7.422  11.338   9.357 -0.4371 -0.8335  1.3738
14022SOL     OW48923   9.145   7.928   4.749  0.1606 -0.2117  0.4176
14022SOL    HW148924   9.109   7.937   4.661 -0.6009  0.6969  0.8037
14022SOL    HW248925   9.078   7.879   4.797  1.4705 -2.5394 -0.0061
14023SOL     OW48926   4.349   5.849   2.553 -0.1346  0.4419  0.1448
14023SOL    HW148927   4.291   5.773   2.564  2.7427 -1.9622 -0.1581
14023SOL    HW248928   4.383   5.865   2.641  2.1990 -1.2333 -0.3698
14024SOL     OW48929   5.644   6.017   8.868 -0.4407  0.0844  0.2089
14024SOL    HW148930   5.601   5.948   8.919 -2.2789  1.9397  1.3237
14024SOL    HW248931   5.682   6.075   8.934  1.9587 -0.2999 -0.7350
14025SOL     OW48932   4.347   3.312   0.009  0.5253  0.4897 -0.3924
14025SOL    HW148933   4.337   3.294  -0.084  1.5339 -0.4474 -0.3430
14025SOL    HW248934   4.429   3.360   0.016 -0.0120  1.3808 -0.0692
14026SOL     OW48935   9.992  11.276   0.833  0.4001  0.2917 -0.2862
14026SOL    HW148936   9.908  11.321   0.830  0.1893 -0.0928 -0.2398
14026SOL    HW248937  10.052  11.338   0.874 -0.4906 -0.4429  2.2728
14027SOL     OW48938  10.178   7.767   7.333 -0.3908  0.5434  0.0385
14027SOL    HW148939  10.193   7.675   7.354  0.7721  0.3219 -1.5363
14027SOL    HW248940  10.083   7.776   7.330 -0.5971  0.0262  2.6162
14028SOL     OW48941   4.215   7.243   5.022 -0.1092  0.1832  0.0876
14028SOL    HW148942   4.264   7.162   5.037 -0.0103  0.2985  0.4134
14028SOL    HW248943   4.176   7.232   4.936 -0.7657 -0.5542  0.4624
14029SOL     OW48944   5.311   4.906   2.115 -0.0473  0.5204 -0.0093
14029SOL    HW148945   5.396   4.891   2.156 -0.0448 -1.2659 -0.5792
14029SOL    HW248946   5.247   4.883   2.183 -0.0923  1.9090  0.4349
14030SOL     OW48947   4.350   1.543  12.357 -0.6268  0.4798  0.0590
14030SOL    HW148948   4.359   1.491  12.277  2.8429  0.0779  0.5432
14030SOL    HW248949   4.338   1.478  12.426  0.9345  0.4590  0.3392
14031SOL     OW48950   4.966   1.464   7.525 -0.4930 -0.7085 -0.7028
14031SOL    HW148951   4.941   1.553   7.502  0.6014 -0.2809 -0.3121
14031SOL    HW248952   4.884   1.414   7.524 -0.8502 -0.1455 -2.8477
14032SOL     OW48953   9.714   0.597   5.218  0.2850  0.2722  0.2217
14032SOL    HW148954   9.673   0.662   5.275 -1.2736  0.0061 -0.5426
14032SOL    HW248955   9.655   0.589   5.143  2.7539  1.3848 -2.0216
14033SOL     OW48956  11.458   2.126   2.182 -0.0672  0.1312  0.1606
14033SOL    HW148957  11.378   2.083   2.152 -0.6525  1.2228  0.1420
14033SOL    HW248958  11.462   2.208   2.132 -0.0316  1.0531  1.6285
14034SOL     OW48959  11.592  10.612  12.147 -0.0663 -0.1748  0.0585
14034SOL    HW148960  11.507  10.568  12.154  0.1368 -0.8498 -1.3319
14034SOL    HW248961  11.647  10.552  12.097  0.6692  1.0168 -0.6362
14035SOL     OW48962  11.375   4.574   0.180  0.3818 -0.6222 -0.4144
14035SOL    HW148963  11.466   4.584   0.210  0.6376 -1.1414 -0.9913
14035SOL    HW248964  11.325   4.564   0.260  0.9484 -1.1663 -0.1180
14036SOL     OW48965   0.744   9.430   7.860 -0.0405  0.3994  0.2935
14036SOL    HW148966   0.655   9.418   7.829  0.3048 -0.7039 -0.3057
14036SOL    HW248967   0.749   9.380   7.942 -0.4238  1.8200  1.2321
14037SOL     OW48968   5.535   8.566   5.620  0.1531 -0.0592  0.2456
14037SOL    HW148969   5.442   8.564   5.598  0.0470 -1.0152  0.7531
14037SOL    HW248970   5.579   8.575   5.535 -0.4242  1.6231  0.0907
14038SOL     OW48971   7.776   6.947  12.477 -0.7328  0.0099 -0.0369
14038SOL    HW148972   7.838   6.879  12.506 -2.4412 -1.4399  0.4172
14038SOL    HW248973   7.700   6.898  12.447 -0.8640  1.6536 -2.6766
14039SOL     OW48974   3.502  11.687   8.964  0.7704  0.4168  0.2674
14039SOL    HW148975   3.515  11.717   9.054  1.2901 -0.9019  0.6427
14039SOL    HW248976   3.500  11.592   8.970  1.5411  0.2807 -1.2108
14040SOL     OW48977  11.827   8.000   1.098 -0.2557 -0.4370 -0.9956
14040SOL    HW148978  11.822   8.078   1.042  2.1164  0.2624 -0.3349
14040SOL    HW248979  11.763   8.017   1.168 -1.1573 -0.0006 -1.9023
14041SOL     OW48980   6.960   8.921   8.222  0.5357 -0.4133  0.5160
14041SOL    HW148981   6.987   8.964   8.303 -1.9286  3.6767 -0.5250
14041SOL    HW248982   6.892   8.860   8.248  0.2176  0.3925  1.6454
14042SOL     OW48983   6.811   0.363   1.735 -0.5488  0.5034  0.1325
14042SOL    HW148984   6.780   0.317   1.813 -0.5217 -2.7938 -1.6027
14042SOL    HW248985   6.889   0.314   1.708  1.8017  3.8986  0.0811
14043SOL     OW48986  10.234   1.691  10.771 -0.0329 -1.1397 -0.1540
14043SOL    HW148987  10.243   1.722  10.680 -0.1900 -1.2933 -0.2226
14043SOL    HW248988  10.175   1.616  10.765 -0.5858 -0.7346  0.1660
14044SOL     OW48989   5.797   0.060   2.616 -0.4600  0.2838  0.9607
14044SOL    HW148990   5.706   0.082   2.593 -0.5528 -0.0309  1.0190
14044SOL    HW248991   5.841   0.144   2.623 -0.1869  0.3995 -1.3612
14045SOL     OW48992   1.237   8.696  10.729  0.1627  0.1260 -0.0217
14045SOL    HW148993   1.241   8.615  10.678  1.5080 -0.3776  0.8336
14045SOL    HW248994   1.150   8.695  10.768  0.2762 -1.0929  0.2475
14046SOL     OW48995  12.102   4.669  11.676  0.2721  0.3433 -0.3293
14046SOL    HW148996  12.111   4.716  11.593  0.5478  2.6558  0.9404
14046SOL    HW248997  12.186   4.625  11.688  0.2188 -0.0368 -1.2712
14047SOL     OW48998   5.997  10.693   8.466  0.1870  0.1587 -0.4654
14047SOL    HW148999   5.918  10.746   8.472 -1.0725 -1.7284  0.1035
14047SOL    HW249000   6.053  10.742   8.405 -0.5379  2.5515  0.6442
14048SOL     OW49001  11.216   3.945   7.148 -0.2050 -0.1674 -0.3204
14048SOL    HW149002  11.185   3.864   7.189 -0.2851  0.1763  0.3026
14048SOL    HW249003  11.178   3.943   7.060 -0.2782 -0.7658 -0.2791
14049SOL     OW49004   8.237  10.209   9.857  0.4046  0.8863 -0.2191
14049SOL    HW149005   8.143  10.205   9.874  0.3299 -0.4410 -0.7615
14049SOL    HW249006   8.246  10.177   9.767  1.4938 -0.8185  0.4416
14050SOL     OW49007   8.693   1.472  11.056 -0.2395 -0.2530  0.1029
14050SOL    HW149008   8.611   1.422  11.050 -0.9999  0.9675  0.0491
14050SOL    HW249009   8.747   1.439  10.984 -0.6022 -1.1967  0.2526
14051SOL     OW49010  11.136   1.540   5.633  0.4677  0.1638  0.0411
14051SOL    HW149011  11.198   1.489   5.684  2.1833  1.2603 -0.8574
14051SOL    HW249012  11.081   1.584   5.698  1.0485 -0.3232  0.8796
14052SOL     OW49013   6.106   0.019   3.272 -0.1647 -0.1227 -0.0952
14052SOL    HW149014   6.132   0.083   3.338  2.5684  0.0508 -1.2143
14052SOL    HW249015   6.088  -0.061   3.323  1.4452  0.1290  0.9502
14053SOL     OW49016  11.120   1.773   1.160  0.1354 -0.4602 -0.0937
14053SOL    HW149017  11.193   1.753   1.219  0.9828  0.4179 -0.8234
14053SOL    HW249018  11.081   1.688   1.142  0.6903 -0.8937  0.6748
14054SOL     OW49019   4.588   2.930   2.144 -0.4452  0.3506 -0.1294
14054SOL    HW149020   4.527   2.899   2.210 -1.5332 -0.4782 -1.4794
14054SOL    HW249021   4.629   2.851   2.109  1.5209  0.8848  0.7982
14055SOL     OW49022   8.658   5.999  10.115  0.1337 -0.1339  0.3571
14055SOL    HW149023   8.632   6.075  10.167 -0.2331 -0.9949  1.4791
14055SOL    HW249024   8.598   5.999  10.041  1.6041  1.9483 -0.9149
14056SOL     OW49025  10.070  10.592   2.082  0.7220  0.1776 -0.1978
14056SOL    HW149026  10.120  10.564   2.160 -0.6813  1.5238  1.2640
14056SOL    HW249027  10.044  10.682   2.102 -1.2646 -0.0807 -1.4038
14057SOL     OW49028   4.047   6.975   2.254 -0.1579  0.2232  0.2610
14057SOL    HW149029   4.036   7.041   2.323 -0.9844 -1.0202  1.3752
14057SOL    HW249030   4.142   6.973   2.239  0.3007 -0.6535  2.6623
14058SOL     OW49031  11.895  11.987   0.369  0.6664 -0.3924  0.5211
14058SOL    HW149032  11.965  12.007   0.307  0.0798  0.8779  0.2395
14058SOL    HW249033  11.938  11.935   0.438  1.8238  0.1356  0.2265
14059SOL     OW49034   5.678   5.642   6.190 -0.2834  0.0531  0.3023
14059SOL    HW149035   5.697   5.732   6.214  0.0042 -0.0213  0.3571
14059SOL    HW249036   5.734   5.589   6.247  0.2050 -0.1313 -0.3371
14060SOL     OW49037  10.181   4.622  12.571 -0.1617 -0.6510 -0.3174
14060SOL    HW149038  10.233   4.601  12.649 -0.0042 -1.5776 -0.6560
14060SOL    HW249039  10.232   4.689  12.527 -0.0263 -0.4423  0.1454
14061SOL     OW49040   0.873   1.433   8.041  0.3565  0.2249  0.5893
14061SOL    HW149041   0.938   1.384   7.992 -0.1717 -0.0748  0.1831
14061SOL    HW249042   0.807   1.369   8.065  1.4082 -0.0199  3.1859
14062SOL     OW49043  10.320   7.514   8.913  0.0910 -0.7570  0.0656
14062SOL    HW149044  10.363   7.473   8.988 -0.5449 -1.4392  0.0753
14062SOL    HW249045  10.307   7.442   8.851 -1.3439 -0.6527  0.2171
14063SOL     OW49046  10.477   6.142   8.920  0.0076 -0.1574 -0.1548
14063SOL    HW149047  10.541   6.071   8.915  1.1017  0.8206 -0.5684
14063SOL    HW249048  10.529   6.221   8.912 -1.2773  0.6759 -0.5061
14064SOL     OW49049   5.955  11.686   2.321 -0.1772  0.2737 -0.2200
14064SOL    HW149050   6.017  11.701   2.250 -0.4566  1.9664 -0.1486
14064SOL    HW249051   5.973  11.755   2.384 -2.9312  1.6364 -0.7759
14065SOL     OW49052  11.054  11.696   3.663 -0.0271  0.3310 -0.1076
14065SOL    HW149053  11.140  11.661   3.683  0.3112  0.6482 -0.9335
14065SOL    HW249054  10.997  11.620   3.656  0.4116  0.0373 -0.5612
14066SOL     OW49055   0.933   3.655   4.951  0.0607 -0.0806 -0.7491
14066SOL    HW149056   0.996   3.601   4.903 -0.7732  0.0823 -2.0824
14066SOL    HW249057   0.849   3.638   4.908 -0.6430  0.4401  0.3765
14067SOL     OW49058  12.140   5.940   3.595  0.0641  0.5770 -0.3674
14067SOL    HW149059  12.073   5.975   3.536 -1.1667  1.6343  1.5429
14067SOL    HW249060  12.147   5.848   3.571 -0.6210  0.8829 -1.9162
14068SOL     OW49061   3.618   9.688  11.039 -0.0690 -0.2453  0.3498
14068SOL    HW149062   3.608   9.777  11.074  0.5177 -0.2954  0.6645
14068SOL    HW249063   3.564   9.633  11.096  0.1455 -0.1900  0.6133
14069SOL     OW49064   3.586   5.166  10.630 -0.0455  0.0325 -0.5659
14069SOL    HW149065   3.508   5.164  10.685 -0.5869  0.9067 -1.2587
14069SOL    HW249066   3.659   5.156  10.691 -0.6692 -0.0868  0.1780
14070SOL     OW49067   4.501   9.823   8.097 -0.0991 -0.0618 -0.8148
14070SOL    HW149068   4.457   9.740   8.114  0.5140 -0.1515  0.4777
14070SOL    HW249069   4.471   9.882   8.167 -0.5362  0.8201 -1.7217
14071SOL     OW49070   0.248  10.102   7.310 -0.4350 -0.0542 -0.3273
14071SOL    HW149071   0.174  10.045   7.291 -0.3984 -0.2081 -0.0102
14071SOL    HW249072   0.210  10.174   7.360 -0.4527  0.1164 -0.5843
14072SOL     OW49073   9.583   5.049  11.729 -0.1545 -0.6196 -0.2518
14072SOL    HW149074   9.599   5.085  11.642 -0.7981 -0.7572 -0.4258
14072SOL    HW249075   9.588   4.955  11.718 -1.5101 -0.6857 -0.3997
14073SOL     OW49076   8.911  11.912   1.376  0.5721  0.5581  0.1719
14073SOL    HW149077   8.865  11.990   1.407 -1.5488 -0.5358 -0.0323
14073SOL    HW249078   8.905  11.850   1.448  0.3237 -0.1415 -0.4313
14074SOL     OW49079   9.685   4.101  10.392 -0.4714 -0.0077 -0.3614
14074SOL    HW149080   9.682   4.055  10.308 -0.2586  1.0522 -0.9713
14074SOL    HW249081   9.777   4.126  10.403 -0.2640 -1.1892  0.7919
14075SOL     OW49082   0.705   8.690  10.079  0.0312  0.3977 -0.3293
14075SOL    HW149083   0.650   8.669  10.004  0.6679  0.1486 -0.7296
14075SOL    HW249084   0.733   8.780  10.063  0.5663  0.1780 -0.6420
14076SOL     OW49085  11.083   9.013  12.012  0.1220  0.0077 -0.0061
14076SOL    HW149086  11.053   8.942  12.069 -0.5684  0.5059  0.2643
14076SOL    HW249087  11.150   9.058  12.062 -0.0054  0.0278  0.1488
14077SOL     OW49088   2.504   4.577   9.695 -0.1295 -0.0712 -0.2425
14077SOL    HW149089   2.573   4.641   9.714  1.3042 -1.4586 -0.5061
14077SOL    HW249090   2.551   4.503   9.655 -1.6692 -1.3979  0.2925
14078SOL     OW49091   5.680   9.589   2.723 -0.2028  0.3835  0.0103
14078SOL    HW149092   5.732   9.521   2.679 -0.7468  0.3920 -0.6578
14078SOL    HW249093   5.644   9.641   2.651  0.7352  1.7851  0.5199
14079SOL     OW49094  12.287   1.294  12.112 -0.0541  0.4573  0.1578
14079SOL    HW149095  12.367   1.293  12.059 -1.0668  0.6999 -1.4142
14079SOL    HW249096  12.231   1.359  12.070 -0.9706  0.5279  1.4358
14080SOL     OW49097   2.986  11.609  11.965  0.0301 -0.4191  0.5963
14080SOL    HW149098   2.974  11.523  12.003 -2.1677 -0.1212  0.6960
14080SOL    HW249099   3.052  11.597  11.898  0.5589 -1.9298  1.3552
14081SOL     OW49100   2.394   5.389   5.319 -0.4617 -0.5127 -0.0170
14081SOL    HW149101   2.350   5.361   5.238 -0.4324 -0.4289 -0.0618
14081SOL    HW249102   2.399   5.309   5.371 -1.8364 -0.2711  0.5425
14082SOL     OW49103  12.084   6.584  12.307 -0.1117  0.2572 -0.5446
14082SOL    HW149104  12.005   6.611  12.354 -1.0604 -1.4093 -1.1171
14082SOL    HW249105  12.051   6.541  12.229  1.3623 -0.9581 -0.5259
14083SOL     OW49106   7.124  10.071   7.331  0.0728  0.3001  0.1263
14083SOL    HW149107   7.089  10.007   7.268 -0.4204  0.7156 -0.0348
14083SOL    HW249108   7.085  10.046   7.415 -2.9020  2.3567 -0.4908
14084SOL     OW49109   5.115   9.923   5.874  0.5445 -0.2142  0.2561
14084SOL    HW149110   5.101   9.997   5.933 -0.2956 -0.3795  0.2746
14084SOL    HW249111   5.198   9.885   5.904  0.9420  0.6540  0.3035
14085SOL     OW49112   5.944   3.251   7.117 -0.2759  0.3874 -1.1519
14085SOL    HW149113   5.960   3.258   7.023 -3.0725  1.3344 -1.6575
14085SOL    HW249114   5.873   3.313   7.133 -0.4576 -0.4031  1.4421
14086SOL     OW49115   8.652   7.905  10.438 -0.2740 -0.1090  0.5555
14086SOL    HW149116   8.688   7.977  10.386 -1.4162 -1.6268 -2.5947
14086SOL    HW249117   8.558   7.907  10.418 -0.0696 -3.6859 -1.4206
14087SOL     OW49118   2.862  11.253   6.626 -0.5213 -0.0532  0.0943
14087SOL    HW149119   2.932  11.207   6.672 -1.4231 -1.9020 -0.3091
14087SOL    HW249120   2.888  11.250   6.534 -0.6638  0.1290  0.0464
14088SOL     OW49121  10.537  11.372   8.931  0.7391 -0.8935  0.0080
14088SOL    HW149122  10.591  11.325   8.868 -2.3900 -0.8827 -3.0401
14088SOL    HW249123  10.464  11.312   8.949  0.3912  0.0309  1.8676
14089SOL     OW49124   2.045   1.605   5.243 -0.8126  0.2283 -0.5280
14089SOL    HW149125   2.083   1.692   5.229  0.0415 -0.2138 -1.0521
14089SOL    HW249126   1.966   1.621   5.295  1.3451  0.9945  2.8190
14090SOL     OW49127   9.503   1.959   1.289  0.3160  0.1286 -0.0717
14090SOL    HW149128   9.543   1.934   1.206  1.6310 -0.4705  0.7089
14090SOL    HW249129   9.410   1.969   1.269  0.7019  0.7149 -1.7634
14091SOL     OW49130  11.042   3.462  12.331  0.2746 -0.4279 -0.5228
14091SOL    HW149131  11.133   3.470  12.304  0.2344  0.2908 -0.4760
14091SOL    HW249132  10.992   3.472  12.250  0.2458 -1.2892 -0.6191
14092SOL     OW49133   0.332   1.128   4.850  0.2250  0.6623 -0.2457
14092SOL    HW149134   0.282   1.207   4.869 -0.0980  0.2999  0.4484
14092SOL    HW249135   0.271   1.070   4.805  0.0652  0.2952  0.4292
14093SOL     OW49136   1.665   6.452  12.389 -0.0494  0.7027  0.1627
14093SOL    HW149137   1.740   6.449  12.330 -0.1639 -1.1207  0.0516
14093SOL    HW249138   1.702   6.429  12.475 -0.5938 -1.3852 -0.0954
14094SOL     OW49139   1.587  11.926  10.523  0.1969  0.0899  0.4345
14094SOL    HW149140   1.673  11.884  10.526  0.1985 -0.0863 -1.1862
14094SOL    HW249141   1.528  11.857  10.493 -0.4537  0.3078  1.1893
14095SOL     OW49142   4.649   7.904   3.509 -0.3159  0.0814  0.1432
14095SOL    HW149143   4.744   7.905   3.513 -0.2280 -1.8065 -0.4737
14095SOL    HW249144   4.627   7.951   3.428  0.1647 -0.5663 -0.3678
14096SOL     OW49145   7.049  10.892   0.673  0.3319  0.5639  0.1420
14096SOL    HW149146   7.104  10.846   0.609  1.1901  3.4660 -1.3553
14096SOL    HW249147   6.961  10.889   0.636  0.3814  0.1933  0.0470
14097SOL     OW49148   5.630   2.973  12.246 -0.1565  0.3183 -0.2576
14097SOL    HW149149   5.676   3.014  12.173  0.1281  2.5834  1.0803
14097SOL    HW249150   5.700   2.945  12.306 -0.4148 -0.1734 -0.1816
14098SOL     OW49151   6.508   7.936   0.630 -0.3358 -0.5697 -0.4166
14098SOL    HW149152   6.478   7.961   0.717 -5.4085  0.9237 -2.2365
14098SOL    HW249153   6.543   8.017   0.592  2.0273 -1.2541  0.1394
14099SOL     OW49154   8.548   6.525   2.507 -0.0138  0.1426 -0.3787
14099SOL    HW149155   8.595   6.452   2.547 -2.7308 -1.5366  0.0071
14099SOL    HW249156   8.581   6.530   2.418 -0.4973 -2.3272 -0.7619
14100SOL     OW49157   2.559   4.625   3.804 -0.1140 -0.2571  0.1123
14100SOL    HW149158   2.464   4.615   3.794 -0.0697  0.3029 -1.0983
14100SOL    HW249159   2.595   4.566   3.738  0.3609  0.1542  0.0022
14101SOL     OW49160   4.324   3.965   2.779  0.1065  0.3664 -0.0050
14101SOL    HW149161   4.393   4.021   2.815 -0.6966  2.4960 -1.6193
14101SOL    HW249162   4.371   3.887   2.748  1.7328  1.4952 -0.5155
14102SOL     OW49163   7.439   1.369   6.321  0.2547  0.0494  0.8527
14102SOL    HW149164   7.410   1.395   6.234  2.1655  0.7848  0.4049
14102SOL    HW249165   7.379   1.297   6.345 -0.9618  0.5211 -0.5960
14103SOL     OW49166   6.391  11.069   6.659 -0.8271  0.2370 -0.0382
14103SOL    HW149167   6.336  11.004   6.703  0.6381 -0.2052  1.2091
14103SOL    HW249168   6.415  11.131   6.728  0.7425  0.0540 -0.3806
14104SOL     OW49169   1.786   9.448   8.509  0.0631  0.3757 -0.3465
14104SOL    HW149170   1.830   9.384   8.565 -0.7298 -0.5183 -0.7010
14104SOL    HW249171   1.780   9.404   8.424 -1.5267  0.4493 -0.2911
14105SOL     OW49172  11.826   1.312   0.378 -0.4885 -0.6692 -0.1225
14105SOL    HW149173  11.737   1.343   0.399  0.2538  0.6608  1.2176
14105SOL    HW249174  11.868   1.387   0.336  0.3264 -0.9374  0.1983
14106SOL     OW49175   8.567   4.897   7.845  0.2121 -0.3262 -0.4152
14106SOL    HW149176   8.503   4.828   7.860  0.8120 -0.8951 -0.4254
14106SOL    HW249177   8.531   4.974   7.890  0.1034 -0.9608  0.6092
14107SOL     OW49178   3.816  10.404   9.388  0.1071  0.5174  0.1963
14107SOL    HW149179   3.790  10.324   9.435 -0.4279 -0.1234 -1.1337
14107SOL    HW249180   3.733  10.448   9.369  0.2473  0.3478 -0.8438
14108SOL     OW49181   5.189  11.452   7.780 -0.0458 -0.3714 -0.1309
14108SOL    HW149182   5.174  11.528   7.725  0.0277  0.1258  0.5213
14108SOL    HW249183   5.279  11.425   7.761  0.0267 -0.1147 -0.1534
14109SOL     OW49184   2.824   9.793   6.271 -0.3581 -0.2319 -0.2948
14109SOL    HW149185   2.752   9.734   6.250 -1.6124  0.3865  1.9366
14109SOL    HW249186   2.791   9.880   6.249 -0.0911 -0.0037  0.1830
14110SOL     OW49187   2.296   9.006  11.432 -0.4435  0.2013  0.2591
14110SOL    HW149188   2.345   9.068  11.485 -2.1384  0.8368  1.1727
14110SOL    HW249189   2.237   8.963  11.494 -0.9099 -0.6828 -0.7515
14111SOL     OW49190  11.807   0.741   0.014  0.0834  0.0794 -0.4119
14111SOL    HW149191  11.799   0.658  -0.034 -0.2225 -0.8109  1.1125
14111SOL    HW249192  11.879   0.787  -0.030  2.4357 -2.3890  0.6293
14112SOL     OW49193   2.236   0.910   8.574 -0.4097  0.3934 -0.1298
14112SOL    HW149194   2.180   0.843   8.614  0.1292  0.2719  0.4274
14112SOL    HW249195   2.257   0.874   8.487  1.1915 -0.9534  0.7459
14113SOL     OW49196   4.857   6.569   1.199  0.0206  0.2311 -0.0304
14113SOL    HW149197   4.888   6.493   1.248 -0.2692 -0.3756 -0.7759
14113SOL    HW249198   4.880   6.644   1.254 -0.5167 -0.4444  1.1421
14114SOL     OW49199   3.522   7.638   0.835 -0.0493  0.1154 -0.2799
14114SOL    HW149200   3.458   7.628   0.765  0.6063 -4.1535 -0.5344
14114SOL    HW249201   3.607   7.627   0.792  0.4393 -1.1140  0.9340
14115SOL     OW49202   5.074  10.516  12.096  0.5430 -0.2964  0.2428
14115SOL    HW149203   5.133  10.562  12.036  0.8297  0.7447  1.2834
14115SOL    HW249204   5.129  10.495  12.172 -0.9118  3.2216  2.5331
14116SOL     OW49205  12.205   3.577   4.072 -0.5225 -0.3642 -0.3633
14116SOL    HW149206  12.110   3.577   4.072 -0.5340 -1.2583 -0.8151
14116SOL    HW249207  12.229   3.662   4.109 -1.4883  0.0292 -0.5981
14117SOL     OW49208   1.303   1.833  11.218  0.2310  0.0710  0.2371
14117SOL    HW149209   1.316   1.751  11.170 -0.7135 -0.2701  0.5495
14117SOL    HW249210   1.343   1.900  11.162 -1.1141 -0.2725 -1.1994
14118SOL     OW49211   3.591  10.207  10.238  0.1483  0.0138  0.2645
14118SOL    HW149212   3.617  10.117  10.255 -0.5516 -0.2916 -0.2480
14118SOL    HW249213   3.505  10.200  10.196  0.1613  0.9080  0.0682
14119SOL     OW49214   7.810   5.763   0.647  0.1110  0.1324  0.5880
14119SOL    HW149215   7.800   5.673   0.677 -0.6512 -0.0177 -0.0537
14119SOL    HW249216   7.902   5.785   0.663  0.1338 -0.5138  1.3926
14120SOL     OW49217   5.601  11.518  11.349  0.3854 -0.3568 -0.0134
14120SOL    HW149218   5.665  11.578  11.388  0.9618 -0.4809 -0.7416
14120SOL    HW249219   5.527  11.573  11.327 -0.3080 -0.4081  1.9622
14121SOL     OW49220   9.606   7.575   0.992 -0.3436  0.4001 -0.0412
14121SOL    HW149221   9.563   7.652   1.028 -1.1204 -0.7719  1.6906
14121SOL    HW249222   9.674   7.553   1.055 -0.0547 -0.2503 -0.5629
14122SOL     OW49223   4.302   3.613   2.110  0.1642  0.4140  0.3391
14122SOL    HW149224   4.212   3.597   2.139 -0.6481  1.2189 -1.5410
14122SOL    HW249225   4.342   3.526   2.106 -1.1221 -0.1688 -0.5066
14123SOL     OW49226   1.177   1.696   2.179  0.3599  0.0653 -0.4772
14123SOL    HW149227   1.203   1.673   2.268  0.9281  0.5203 -0.5239
14123SOL    HW249228   1.094   1.743   2.190  0.5942  0.4090 -0.1625
14124SOL     OW49229   8.339  12.388  10.015  1.0961 -0.2038 -0.1536
14124SOL    HW149230   8.269  12.439   9.974  0.7212  0.3092  1.0639
14124SOL    HW249231   8.389  12.453  10.065  1.3888 -0.8430  0.3948
14125SOL     OW49232  10.552   7.110   7.031  0.2327 -0.3388  0.0258
14125SOL    HW149233  10.518   7.187   7.078  0.7331  0.0722 -0.2875
14125SOL    HW249234  10.647   7.116   7.040  0.2390 -1.5271  0.9535
14126SOL     OW49235   2.465   3.519   3.474 -0.0013  0.2941  0.1102
14126SOL    HW149236   2.395   3.585   3.471 -0.4084  0.1142  2.9276
14126SOL    HW249237   2.420   3.437   3.491  0.8212  0.0385  1.1095
14127SOL     OW49238   6.638   3.809   6.248  0.2974 -0.1254 -0.0578
14127SOL    HW149239   6.646   3.782   6.339 -4.1250  1.1738  0.9748
14127SOL    HW249240   6.640   3.905   6.251 -2.0512  0.0267 -0.8836
14128SOL     OW49241   4.836   6.881   0.599 -0.3472 -1.1131  0.3865
14128SOL    HW149242   4.837   6.838   0.684  2.3419  0.4735  1.2792
14128SOL    HW249243   4.744   6.898   0.581 -1.1059 -3.1235  2.0762
14129SOL     OW49244   7.057  10.254   2.379  0.1355  0.4713 -0.4669
14129SOL    HW149245   7.084  10.197   2.307  0.4266  1.3523 -1.0676
14129SOL    HW249246   7.138  10.297   2.407  0.3375 -1.0455  1.4906
14130SOL     OW49247   1.219   1.277   5.995 -0.1232  0.5940 -0.1984
14130SOL    HW149248   1.276   1.210   5.960  0.3339 -0.9510  3.1393
14130SOL    HW249249   1.151   1.288   5.929  0.9228 -1.6568 -1.7475
14131SOL     OW49250   8.899   6.902   6.420  0.3646 -0.3154  0.0753
14131SOL    HW149251   8.934   6.980   6.463 -0.8292  0.2078  0.1490
14131SOL    HW249252   8.951   6.892   6.341 -0.2335  1.2992 -0.5711
14132SOL     OW49253  11.958   9.390   4.862 -1.2269 -0.4006 -0.6246
14132SOL    HW149254  11.929   9.300   4.880  0.9578 -1.7734 -3.1820
14132SOL    HW249255  11.877   9.439   4.851 -2.5393 -1.4353  3.0347
14133SOL     OW49256   1.371  10.556   3.742 -0.0485 -0.1543 -0.0939
14133SOL    HW149257   1.314  10.481   3.723  1.3474 -1.0039 -1.1319
14133SOL    HW249258   1.375  10.560   3.837 -0.0330 -1.5233 -0.0146
14134SOL     OW49259   0.512   6.647   0.607  0.9622 -0.6498 -0.2144
14134SOL    HW149260   0.585   6.700   0.639  1.2549 -0.6675 -0.8341
14134SOL    HW249261   0.546   6.558   0.606 -0.1614 -1.2399  2.7878
14135SOL     OW49262   0.267   4.543   4.136  0.0187 -0.3256 -0.6374
14135SOL    HW149263   0.313   4.527   4.219  1.1434 -1.4281 -1.4228
14135SOL    HW249264   0.319   4.610   4.092 -1.0223  0.8393 -0.1446
14136SOL     OW49265   0.517  12.029   1.844 -0.0962  0.0973 -0.4071
14136SOL    HW149266   0.431  12.027   1.804  0.8895  0.2078 -2.6948
14136SOL    HW249267   0.540  11.937   1.856 -0.7120  0.0750  0.6703
14137SOL     OW49268   7.971   0.946   1.983 -0.7268  0.1688  0.4384
14137SOL    HW149269   7.946   0.900   2.062 -0.7326  1.0107  0.9388
14137SOL    HW249270   7.899   0.931   1.922 -0.0335 -1.7630  0.0277
14138SOL     OW49271   4.092   2.299  11.844  0.4088 -0.5837 -0.0032
14138SOL    HW149272   4.174   2.325  11.885 -0.8749  1.3052  1.5090
14138SOL    HW249273   4.096   2.203  11.841  2.3938 -0.5592  0.5427
14139SOL     OW49274  10.301   6.610   9.984 -0.4187  0.4522  0.2556
14139SOL    HW149275  10.223   6.661   9.966 -0.1667  1.2727  1.3404
14139SOL    HW249276  10.327   6.636  10.073  2.3109  1.8674 -0.8353
14140SOL     OW49277   9.895   6.859   2.987  0.0273 -0.1727 -0.0797
14140SOL    HW149278   9.969   6.798   2.993  0.1090 -0.1625 -0.8862
14140SOL    HW249279   9.866   6.852   2.896  1.1456  2.2758 -0.7025
14141SOL     OW49280   0.647   0.909   9.388 -0.1501 -0.8623  0.4734
14141SOL    HW149281   0.662   0.999   9.418 -0.0188 -1.5899  2.7532
14141SOL    HW249282   0.635   0.917   9.293  0.9228  1.4238  0.4646
14142SOL     OW49283   5.182   4.602   7.702 -0.0786  0.5991 -0.2113
14142SOL    HW149284   5.135   4.520   7.688  1.3048 -0.1987 -0.3414
14142SOL    HW249285   5.270   4.586   7.669  0.4273  1.9180  0.3969
14143SOL     OW49286   0.112   3.824   5.751  0.3523  0.0038 -0.7194
14143SOL    HW149287   0.049   3.829   5.679  1.6533  1.2861 -1.8131
14143SOL    HW249288   0.195   3.850   5.712  1.1674  0.3758  1.1767
14144SOL     OW49289   1.462   4.745   3.573  0.1539 -0.0458 -0.3856
14144SOL    HW149290   1.457   4.833   3.609 -1.0204 -0.6377  1.0164
14144SOL    HW249291   1.551   4.716   3.592 -0.1380  0.0242  1.2688
14145SOL     OW49292   8.932   9.183   9.324  0.3664 -0.0879 -0.2960
14145SOL    HW149293   8.989   9.222   9.390 -0.7910  1.3221 -0.0952
14145SOL    HW249294   8.908   9.098   9.360  1.9084 -0.4908 -0.1590
14146SOL     OW49295   3.535   6.101  10.337 -0.0519 -0.2569  0.2190
14146SOL    HW149296   3.443   6.124  10.329 -0.4419 -1.9198 -0.4072
14146SOL    HW249297   3.535   6.008  10.360  1.4689 -0.3932 -0.2135
14147SOL     OW49298   7.816   9.972   9.427 -0.5177  0.4960  0.1649
14147SOL    HW149299   7.846   9.884   9.403 -2.0408 -0.5456  1.8115
14147SOL    HW249300   7.893  10.028   9.414  0.8748 -1.2891  0.2950
14148SOL     OW49301   3.087   3.775   0.029 -0.1809 -0.0351  0.5931
14148SOL    HW149302   3.138   3.855   0.044  0.3940 -0.4513  0.8990
14148SOL    HW249303   3.139   3.706   0.069 -0.0245 -0.7658 -0.8116
14149SOL     OW49304   1.253   1.817   9.143 -0.1927  0.1925 -0.1808
14149SOL    HW149305   1.225   1.888   9.200  1.4334  1.3364 -0.7193
14149SOL    HW249306   1.345   1.836   9.124  0.0165 -1.5334 -1.1339
14150SOL     OW49307   2.698   0.632  10.084  0.5653 -0.3211  0.3083
14150SOL    HW149308   2.643   0.565  10.124  0.3922  0.6848  1.7891
14150SOL    HW249309   2.746   0.585  10.015 -1.5750 -1.3694 -0.5471
14151SOL     OW49310  11.218   5.380   1.297 -0.0774 -0.7315 -0.0394
14151SOL    HW149311  11.249   5.411   1.212  0.5915 -0.1545  0.4006
14151SOL    HW249312  11.278   5.421   1.360 -0.4854 -1.2573  0.6959
14152SOL     OW49313   7.629   6.471   2.486  0.0073 -0.3393 -0.4133
14152SOL    HW149314   7.557   6.411   2.504  0.1440 -0.3379  0.1646
14152SOL    HW249315   7.635   6.525   2.566  0.7430 -0.4373 -0.4001
14153SOL     OW49316   0.452   8.073   2.757  0.0982  0.0579  0.1054
14153SOL    HW149317   0.504   8.147   2.725 -2.1105  2.0655  0.8919
14153SOL    HW249318   0.480   8.061   2.847 -0.7205  1.1212  0.5204
14154SOL     OW49319   7.915   2.725   2.839  0.1328 -0.2776 -0.4865
14154SOL    HW149320   7.995   2.703   2.887 -0.0550  0.5141  0.2235
14154SOL    HW249321   7.845   2.714   2.904 -0.0925  1.1689 -0.4540
14155SOL     OW49322   2.041  11.988   7.774 -0.1498 -0.0745  0.3367
14155SOL    HW149323   2.121  11.946   7.807  0.1347  0.2070  0.0220
14155SOL    HW249324   2.018  11.938   7.696 -0.9162 -0.8419  1.0472
14156SOL     OW49325   8.078   1.139  12.503  0.3214 -0.2673 -0.2645
14156SOL    HW149326   8.062   1.220  12.552 -1.6749 -1.3508  1.0026
14156SOL    HW249327   7.995   1.120  12.460  0.6732 -1.8153 -0.3070
14157SOL     OW49328  12.242   2.573   8.376  0.5477  0.1087  0.7711
14157SOL    HW149329  12.269   2.484   8.397  3.4985  1.0945  1.5918
14157SOL    HW249330  12.252   2.622   8.458  3.7511  2.1673 -0.6516
14158SOL     OW49331   8.298   5.802   6.122  0.1152 -0.0179 -0.3896
14158SOL    HW149332   8.373   5.767   6.073  1.8124  1.5527  0.9675
14158SOL    HW249333   8.286   5.891   6.089  0.4457  0.6005  1.0725
14159SOL     OW49334   4.214  11.697   5.909  0.0693 -0.9990 -0.0723
14159SOL    HW149335   4.150  11.762   5.878  0.9894  0.0539  0.1764
14159SOL    HW249336   4.216  11.710   6.003  0.1500 -1.5042 -0.0064
14160SOL     OW49337   0.713  10.620   4.318 -0.2649 -0.0733  0.1502
14160SOL    HW149338   0.708  10.551   4.384  1.1581 -0.2343  0.1364
14160SOL    HW249339   0.729  10.700   4.367 -1.6108  0.2242  0.1438
14161SOL     OW49340   8.601   7.022   0.588  0.2124 -0.0939 -0.3505
14161SOL    HW149341   8.539   7.094   0.572  0.3539 -0.0968 -0.9305
14161SOL    HW249342   8.545   6.944   0.595  0.2321 -0.3182 -2.2927
14162SOL     OW49343   8.546   2.187   4.482 -0.6617  0.2169 -0.5132
14162SOL    HW149344   8.487   2.199   4.556 -3.3513 -2.8793 -1.9119
14162SOL    HW249345   8.512   2.247   4.415 -0.0362  0.8916 -0.2452
14163SOL     OW49346   9.399   2.319   2.218  0.9340  0.4822  0.1113
14163SOL    HW149347   9.348   2.395   2.243  0.2281 -0.4355  1.5966
14163SOL    HW249348   9.406   2.326   2.123 -1.1519  1.1618 -0.0582
14164SOL     OW49349   2.245  10.645  10.515 -0.6010 -0.0052 -0.2189
14164SOL    HW149350   2.207  10.660  10.429  1.8788 -2.4797 -1.9177
14164SOL    HW249351   2.177  10.597  10.563 -0.8746 -1.5240 -2.0137
14165SOL     OW49352   7.401   5.553   2.550  0.3012  0.2335  0.2347
14165SOL    HW149353   7.461   5.604   2.495 -0.1565  0.6300  0.0941
14165SOL    HW249354   7.432   5.463   2.543  1.5481  0.5822  1.0430
14166SOL     OW49355   5.244   4.988   4.610 -0.2809  0.0205  0.3462
14166SOL    HW149356   5.286   4.902   4.605 -1.4483 -0.5491  0.0708
14166SOL    HW249357   5.257   5.015   4.701  1.1672  0.1252  0.1266
14167SOL     OW49358   9.692  10.916   3.557 -0.1269  0.0221 -0.5680
14167SOL    HW149359   9.682  10.851   3.627  1.0246  0.6808  0.2377
14167SOL    HW249360   9.653  10.874   3.480 -1.6561 -0.6285  0.5058
14168SOL     OW49361   0.765   5.911   8.626 -0.4029 -0.0229 -0.1938
14168SOL    HW149362   0.781   5.926   8.719  0.6273  0.7761 -0.4748
14168SOL    HW249363   0.677   5.944   8.610 -0.7218 -0.4856  0.5580
14169SOL     OW49364  10.630   6.763   8.780  0.9360  0.3144 -0.5197
14169SOL    HW149365  10.597   6.750   8.691 -0.0059 -0.4853 -0.0709
14169SOL    HW249366  10.696   6.694   8.790 -0.6398 -1.1707  0.1883
14170SOL     OW49367   9.211  11.521  10.640  0.0180 -0.1916 -0.0793
14170SOL    HW149368   9.274  11.548  10.706 -0.0406 -0.5337  0.1165
14170SOL    HW249369   9.257  11.454  10.589 -0.7625 -1.7501  1.1636
14171SOL     OW49370   8.744   8.816   1.256  0.0160  0.2548  0.0619
14171SOL    HW149371   8.705   8.845   1.338 -0.0159  0.7070 -0.1082
14171SOL    HW249372   8.677   8.836   1.190 -0.3992 -1.0761  0.0524
14172SOL     OW49373   9.111   9.597   3.304 -0.0152  0.2119 -0.0987
14172SOL    HW149374   9.110   9.501   3.304 -2.1738  0.1270  2.5533
14172SOL    HW249375   9.024   9.621   3.272  0.2602  1.2942 -0.0629
14173SOL     OW49376   0.786   9.685  12.085  0.2789  0.1796 -0.0232
14173SOL    HW149377   0.727   9.739  12.033 -1.2433 -0.2701  1.1585
14173SOL    HW249378   0.787   9.600  12.041 -0.8925 -0.1564  0.5536
14174SOL     OW49379   5.582   3.056   8.217 -0.1988  0.1833  0.0983
14174SOL    HW149380   5.498   3.078   8.176  0.0624  0.7237 -0.1453
14174SOL    HW249381   5.558   2.996   8.288 -0.6954 -0.4729 -0.5934
14175SOL     OW49382   4.091   9.925   8.324 -0.4361  0.0008  0.4341
14175SOL    HW149383   4.122   9.969   8.403  0.1816 -0.0685  0.2350
14175SOL    HW249384   4.117   9.834   8.335 -1.1409 -0.1963  0.5495
14176SOL     OW49385   4.690   8.059   9.087 -0.7209  0.2305  0.8444
14176SOL    HW149386   4.759   8.123   9.104 -2.4731  2.1525  1.0340
14176SOL    HW249387   4.668   8.023   9.173  1.8581 -2.5490  0.5384
14177SOL     OW49388   2.692   4.293   0.411 -0.2360  0.1980 -0.0183
14177SOL    HW149389   2.671   4.211   0.366 -0.8817  0.1563  0.3606
14177SOL    HW249390   2.777   4.319   0.374  0.0265 -0.6944 -0.0626
14178SOL     OW49391  11.724   6.814  11.701  0.2267 -0.2773 -0.5322
14178SOL    HW149392  11.700   6.904  11.677  0.1441 -0.5069 -1.3278
14178SOL    HW249393  11.667   6.759  11.649  2.0737 -0.8307 -2.0852
14179SOL     OW49394   2.819   2.459  11.253 -0.1193  0.2295  0.3087
14179SOL    HW149395   2.833   2.516  11.329 -1.4474  1.8236 -0.5993
14179SOL    HW249396   2.770   2.512  11.191  1.2330 -0.9028 -1.8704
14180SOL     OW49397   0.718  12.346   2.093  0.2679  0.0724  0.2408
14180SOL    HW149398   0.737  12.353   1.999  0.5384  1.8415  0.3842
14180SOL    HW249399   0.804  12.344   2.135  0.2344  2.5205  0.5805
14181SOL     OW49400   8.707   8.346   2.126  0.0536 -0.3326 -0.2532
14181SOL    HW149401   8.651   8.337   2.049 -0.8348  0.7898  0.2414
14181SOL    HW249402   8.649   8.376   2.195  1.2576  0.9487  0.2563
14182SOL     OW49403   7.855   8.875   6.020 -0.5537 -0.7534  0.1069
14182SOL    HW149404   7.766   8.869   5.984 -0.2205  0.7694 -1.0815
14182SOL    HW249405   7.848   8.943   6.087 -0.4034 -1.0811  0.4601
14183SOL     OW49406   3.998   5.119   6.458 -0.3288 -0.2990 -0.7635
14183SOL    HW149407   3.929   5.183   6.441  1.7543  1.8165 -1.8193
14183SOL    HW249408   3.960   5.060   6.524 -2.4168  1.9308  0.1961
14184SOL     OW49409   2.976   3.708   7.830  0.6440  0.0943 -0.3967
14184SOL    HW149410   2.898   3.761   7.841  0.4685 -0.4940  1.8630
14184SOL    HW249411   3.045   3.757   7.876  0.6467 -1.1908  1.0613
14185SOL     OW49412  12.217   5.202   9.397 -0.4883 -0.1476 -0.0651
14185SOL    HW149413  12.223   5.127   9.457  0.1330  1.0542  1.4263
14185SOL    HW249414  12.253   5.275   9.446 -1.8569  1.3397 -1.1870
14186SOL     OW49415   4.279   3.401   1.783 -0.0965  0.4114 -0.1379
14186SOL    HW149416   4.187   3.374   1.784  0.6202 -2.3543 -0.5449
14186SOL    HW249417   4.277   3.496   1.768 -2.8231  0.2437 -1.2339
14187SOL     OW49418   9.385   4.967   2.536  0.0728 -0.5060 -0.2052
14187SOL    HW149419   9.361   5.049   2.579  0.7055 -0.5657  0.2867
14187SOL    HW249420   9.383   4.902   2.607 -0.0146 -0.8296 -0.5060
14188SOL     OW49421   6.910  10.047   9.624 -0.5441 -0.1493  0.7079
14188SOL    HW149422   6.857  10.031   9.546  2.3461  0.6872 -1.5992
14188SOL    HW249423   6.954  10.130   9.607  1.7363 -0.9241  2.2854
14189SOL     OW49424   7.007   3.947   9.425  0.0750  0.3417  0.1315
14189SOL    HW149425   6.930   3.898   9.395  0.2927  0.5029 -0.7184
14189SOL    HW249426   7.066   3.948   9.349  0.1687  1.7328  0.1887
14190SOL     OW49427   3.022   1.536  11.984 -0.6574  0.0183  0.1477
14190SOL    HW149428   3.068   1.576  12.057 -1.1172 -0.3859  0.6711
14190SOL    HW249429   3.065   1.570  11.906  1.1157 -1.0214  0.6113
14191SOL     OW49430   7.884   3.553   9.081  0.4940  0.0133 -0.1535
14191SOL    HW149431   7.854   3.502   9.006 -1.2043  0.5449  0.1204
14191SOL    HW249432   7.889   3.489   9.153 -1.8387  0.1831  0.2447
14192SOL     OW49433   8.881   7.024   7.051  0.0842  0.6844 -0.3482
14192SOL    HW149434   8.966   6.983   7.062  0.4934  1.6561  0.2603
14192SOL    HW249435   8.856   7.052   7.139 -1.5380 -0.8416 -0.2626
14193SOL     OW49436   9.840   6.114   3.788  0.8775  0.0770 -0.2473
14193SOL    HW149437   9.870   6.204   3.793  0.6856  0.1448 -0.2922
14193SOL    HW249438   9.759   6.113   3.839  0.4862  0.0971 -0.8623
14194SOL     OW49439   5.497  10.560   9.567  0.0732 -0.2605  0.2565
14194SOL    HW149440   5.418  10.527   9.610 -0.8753  1.0941 -0.3621
14194SOL    HW249441   5.489  10.655   9.572  2.5138 -0.0518  1.6390
14195SOL     OW49442   9.252   4.954  10.151  0.6806  0.5788 -0.1496
14195SOL    HW149443   9.293   4.975  10.067  1.4371  1.0635  0.3329
14195SOL    HW249444   9.325   4.935  10.210  0.2266  1.4888  0.7309
14196SOL     OW49445   3.537   1.159   2.435 -0.1673 -0.1015  0.3053
14196SOL    HW149446   3.594   1.236   2.433  0.0295 -0.2392  0.6842
14196SOL    HW249447   3.462   1.186   2.487  0.4428 -0.5404  1.4356
14197SOL     OW49448  12.322   9.312  11.728 -0.3415  0.3501  0.0435
14197SOL    HW149449  12.237   9.288  11.766 -0.3167  0.3341  0.0884
14197SOL    HW249450  12.377   9.333  11.804  0.2728 -1.4499  0.1370
14198SOL     OW49451   0.668   7.148  12.423  0.0058 -0.0066 -0.5209
14198SOL    HW149452   0.750   7.104  12.398  0.6762  0.9498 -0.0998
14198SOL    HW249453   0.697   7.218  12.482 -1.1597  0.1519 -0.1312
14199SOL     OW49454   5.159   7.207   0.467  0.1812 -0.0872  0.2434
14199SOL    HW149455   5.173   7.121   0.429  2.2682  0.2100  0.2033
14199SOL    HW249456   5.135   7.263   0.393  3.5655  0.3475 -0.6980
14200SOL     OW49457   0.133   2.031   7.402  0.0921 -0.2818 -0.2208
14200SOL    HW149458   0.056   1.978   7.424 -0.5651  0.6085 -0.3381
14200SOL    HW249459   0.194   2.014   7.474 -1.2043  0.9312  1.2470
14201SOL     OW49460   7.884   1.259   6.462  0.5847 -0.5137  0.5292
14201SOL    HW149461   7.955   1.197   6.445 -0.2829 -1.2963 -0.4131
14201SOL    HW249462   7.864   1.296   6.376  0.8702  0.8481  1.0306
14202SOL     OW49463   9.182   3.738   2.473 -0.5935  0.4542  0.1534
14202SOL    HW149464   9.108   3.793   2.451  0.3336  1.0758 -1.6791
14202SOL    HW249465   9.257   3.798   2.478  0.0916 -0.3685  0.1537
14203SOL     OW49466   6.963  10.455   1.300  0.4051 -0.2580 -0.2553
14203SOL    HW149467   7.018  10.392   1.347 -0.0583  0.2669  1.0364
14203SOL    HW249468   7.008  10.539   1.312  0.0390 -0.0494 -0.3543
14204SOL     OW49469   4.874   6.386   6.616  0.0763 -0.0652 -0.3295
14204SOL    HW149470   4.803   6.382   6.681 -0.1377  0.4319 -0.5232
14204SOL    HW249471   4.851   6.319   6.551  0.8162 -1.2594  0.6135
14205SOL     OW49472   7.250  11.114   0.780 -0.4000  0.2124  0.1054
14205SOL    HW149473   7.235  11.048   0.713 -2.3676 -0.7321  1.3967
14205SOL    HW249474   7.275  11.064   0.858 -0.2272  1.1155  0.6463
14206SOL     OW49475   2.717   8.682   7.653  0.1215  0.7946 -0.6447
14206SOL    HW149476   2.627   8.715   7.653  0.1454  0.8664 -1.0537
14206SOL    HW249477   2.756   8.718   7.733 -0.2942  0.5335 -0.3187
14207SOL     OW49478   5.830   3.845   5.880 -0.4289 -0.2384  0.4904
14207SOL    HW149479   5.811   3.763   5.926  0.1796 -0.0517  1.0907
14207SOL    HW249480   5.894   3.821   5.814 -0.7616 -0.3692  0.2097
14208SOL     OW49481   5.747   4.502   7.240 -0.5022 -0.1999 -0.7274
14208SOL    HW149482   5.746   4.571   7.173 -0.4477 -0.0530 -0.5761
14208SOL    HW249483   5.727   4.547   7.322  0.6353 -0.1637 -0.4472
14209SOL     OW49484  10.811   8.657   2.776 -0.5270 -0.2421  0.2228
14209SOL    HW149485  10.895   8.646   2.821 -0.9396 -1.7628  0.6791
14209SOL    HW249486  10.770   8.731   2.819  0.7477  0.8034 -0.2921
14210SOL     OW49487  10.419   0.351   9.808  0.3481 -0.7426  0.1374
14210SOL    HW149488  10.386   0.288   9.745  1.1757 -0.1787 -0.8920
14210SOL    HW249489  10.427   0.433   9.759 -0.2669  0.0603  1.3272
14211SOL     OW49490   0.281   4.863   8.076 -0.3086  0.3226 -0.4125
14211SOL    HW149491   0.330   4.908   8.008  2.0186 -0.3695  0.7149
14211SOL    HW249492   0.282   4.771   8.049  0.1065  0.1289  0.2405
14212SOL     OW49493   8.276   7.330   1.466  0.2812 -0.3104  0.1104
14212SOL    HW149494   8.279   7.234   1.458  0.3559 -0.2364 -0.9530
14212SOL    HW249495   8.184   7.352   1.450 -0.3166 -0.3779  3.0306
14213SOL     OW49496   4.061   7.865   1.424  0.3353  0.3971  0.7648
14213SOL    HW149497   4.052   7.920   1.347 -0.9595  0.2712  0.7984
14213SOL    HW249498   4.141   7.895   1.466  0.3302  1.3828  0.1021
14214SOL     OW49499  10.556   1.356  11.656 -0.6571  0.4701  0.1550
14214SOL    HW149500  10.510   1.427  11.612 -0.4152 -0.8637 -2.4919
14214SOL    HW249501  10.643   1.356  11.616 -0.2393 -0.5268  1.0192
14215SOL     OW49502   4.098  11.606   1.992  0.6970  0.3697 -0.0892
14215SOL    HW149503   4.109  11.648   1.906 -0.3296 -0.1107 -0.4721
14215SOL    HW249504   4.058  11.521   1.972 -3.6425  1.8918  1.0643
14216SOL     OW49505  10.854   5.630  10.805  0.1552  0.2154  0.1901
14216SOL    HW149506  10.802   5.611  10.883 -0.1402 -1.2773 -0.3277
14216SOL    HW249507  10.870   5.724  10.808 -0.5413  0.3077  1.6135
14217SOL     OW49508   0.703  10.005   7.368  0.6471  0.4039 -0.1932
14217SOL    HW149509   0.647  10.075   7.335  0.1811  1.2952  2.2912
14217SOL    HW249510   0.655   9.925   7.347 -0.3983  1.0127 -0.1887
14218SOL     OW49511  11.977   2.429  12.528 -0.3316 -0.3631  0.7660
14218SOL    HW149512  12.052   2.402  12.475 -0.0057  0.3397  0.8536
14218SOL    HW249513  11.915   2.356  12.521 -0.1337 -0.4519 -0.2597
14219SOL     OW49514   5.942  11.152  10.792  0.4079  0.0615 -0.1664
14219SOL    HW149515   5.864  11.102  10.770  1.2394 -1.3101 -0.0901
14219SOL    HW249516   6.005  11.130  10.724  0.7409  1.1436 -0.2254
14220SOL     OW49517   8.084   1.843   6.951 -0.3124  0.2721  0.4362
14220SOL    HW149518   8.023   1.854   6.877  1.0791  0.4009 -0.7433
14220SOL    HW249519   8.054   1.763   6.994  0.4727 -1.4694 -2.0037
14221SOL     OW49520   5.695   3.161   1.117 -0.1646  0.3015  0.0269
14221SOL    HW149521   5.781   3.163   1.159 -0.6722 -0.9805  1.1896
14221SOL    HW249522   5.637   3.205   1.179 -0.7344 -0.7001  0.2210
14222SOL     OW49523   4.635   3.809   4.923  0.6309 -0.3114  0.0432
14222SOL    HW149524   4.552   3.854   4.904  0.8250  0.5115  1.0014
14222SOL    HW249525   4.611   3.717   4.933 -0.3735  0.0484  1.3214
14223SOL     OW49526   6.829   4.800   6.429  0.4301  0.7299  0.2085
14223SOL    HW149527   6.900   4.746   6.464  0.1366  1.6282  2.3581
14223SOL    HW249528   6.861   4.890   6.438  0.9827  1.0529 -3.4697
14224SOL     OW49529   4.370   3.163   9.134 -0.3342 -0.3146 -0.2069
14224SOL    HW149530   4.408   3.085   9.094  2.7327  1.3493 -0.8202
14224SOL    HW249531   4.443   3.224   9.143 -2.6932  2.8078 -0.4347
14225SOL     OW49532   8.851   7.206   9.516 -0.5118 -0.3866 -0.2886
14225SOL    HW149533   8.802   7.287   9.529 -0.3319 -0.3364  0.0689
14225SOL    HW249534   8.785   7.137   9.521 -0.3548 -0.4456  1.7065
14226SOL     OW49535   5.523  11.111   0.140 -0.1381 -0.3116 -0.7717
14226SOL    HW149536   5.603  11.080   0.099 -0.8306 -0.4235 -2.1176
14226SOL    HW249537   5.536  11.206   0.149 -0.2100 -0.1847 -1.8713
14227SOL     OW49538   1.873   7.311   5.403 -0.7546  0.0878  0.2133
14227SOL    HW149539   1.961   7.273   5.397  0.3285  2.4979 -0.1566
14227SOL    HW249540   1.834   7.293   5.318  0.4899  1.4653 -0.6953
14228SOL     OW49541   6.422   1.545   8.671  0.0432 -0.3564 -0.3743
14228SOL    HW149542   6.514   1.565   8.689 -0.1472 -0.7318  1.1461
14228SOL    HW249543   6.426   1.473   8.608  0.8064 -0.5525 -0.1191
14229SOL     OW49544   3.571   1.640   6.333 -0.2255 -0.3160 -0.3658
14229SOL    HW149545   3.663   1.616   6.343 -0.0365  1.0108  1.5754
14229SOL    HW249546   3.526   1.597   6.406 -0.5686  1.5890  0.6132
14230SOL     OW49547   7.379   0.623   8.536  0.3620  0.5102 -0.2817
14230SOL    HW149548   7.405   0.550   8.481  3.0790  1.0904  0.1021
14230SOL    HW249549   7.403   0.701   8.486  1.0980  1.0587  0.8738
14231SOL     OW49550   8.449   4.820   4.460  0.3181  0.2630 -0.3881
14231SOL    HW149551   8.526   4.849   4.508  1.0753 -0.0886 -1.3693
14231SOL    HW249552   8.480   4.748   4.405 -0.5100  0.6872 -1.4502
14232SOL     OW49553   9.315  12.577   7.554  0.4131  0.5471 -0.1859
14232SOL    HW149554   9.360  12.541   7.478 -1.0990  0.9975 -1.3607
14232SOL    HW249555   9.241  12.625   7.517 -1.6000 -0.9489  1.6261
14233SOL     OW49556   8.108   6.501  10.745  0.4917  0.1088 -0.2246
14233SOL    HW149557   8.189   6.536  10.710  0.0754  1.6736  0.2857
14233SOL    HW249558   8.055   6.479  10.668  0.1860  2.0678 -0.6227
14234SOL     OW49559   0.748   5.530  10.069 -0.1451  0.2076  0.6352
14234SOL    HW149560   0.755   5.625  10.059 -1.1130  0.2471  0.2264
14234SOL    HW249561   0.837   5.501  10.086  0.1242  1.2207  1.0062
14235SOL     OW49562  11.920   9.946  11.205  0.0095 -0.3566 -0.0638
14235SOL    HW149563  11.964   9.896  11.136  1.2603 -0.3568  0.7220
14235SOL    HW249564  11.920   9.888  11.281 -1.7183 -0.5114 -0.1434
14236SOL     OW49565   0.980   5.079   2.880  0.1398 -0.3574 -0.2230
14236SOL    HW149566   0.974   5.169   2.849  1.2842 -0.0122  0.4855
14236SOL    HW249567   0.984   5.026   2.800 -1.0244  0.1601 -0.6459
14237SOL     OW49568   7.714   8.215   0.893 -0.2021 -0.0219 -0.2941
14237SOL    HW149569   7.759   8.176   0.818  0.8778  1.0596 -0.2330
14237SOL    HW249570   7.729   8.152   0.964 -0.3323 -0.5381 -0.7149
14238SOL     OW49571  11.850  11.309   2.178 -0.4429 -0.3806  0.5836
14238SOL    HW149572  11.869  11.395   2.216  0.2501  0.0001 -0.5471
14238SOL    HW249573  11.907  11.304   2.101 -1.0323 -1.5416  0.1941
14239SOL     OW49574   4.029   1.778   3.251  0.1864  0.9035  0.1997
14239SOL    HW149575   4.061   1.749   3.337  0.4155  1.5110  0.3274
14239SOL    HW249576   4.081   1.729   3.188  0.1459  0.5882  0.4099
14240SOL     OW49577   1.783   0.084  12.010  0.3761 -0.6167  0.2507
14240SOL    HW149578   1.770   0.063  12.102 -0.2456 -0.3441  0.2256
14240SOL    HW249579   1.874   0.059  11.993  0.1870 -1.6383  0.6646
14241SOL     OW49580   6.195   5.052  11.441  0.2836  0.3250 -0.0255
14241SOL    HW149581   6.209   5.082  11.531  1.8222  0.8558 -0.4132
14241SOL    HW249582   6.100   5.052  11.431 -0.0016 -0.9357  1.9894
14242SOL     OW49583   1.842  10.952   1.077  0.1666  0.2340  0.0147
14242SOL    HW149584   1.792  10.953   0.995 -0.0518  1.7577  0.1350
14242SOL    HW249585   1.857  10.859   1.095 -2.8287 -0.3388  0.1030
14243SOL     OW49586   4.500   1.694  10.527 -0.2475 -0.6802 -0.0726
14243SOL    HW149587   4.459   1.723  10.446  0.8964  2.7969  0.3844
14243SOL    HW249588   4.453   1.741  10.596  1.8956  0.3940  0.7750
14244SOL     OW49589   1.075   8.223   0.079 -0.0053  0.1346 -0.5490
14244SOL    HW149590   1.006   8.180   0.129  0.0380 -0.6350 -1.1427
14244SOL    HW249591   1.156   8.189   0.117  0.1749  2.6931  1.6668
14245SOL     OW49592   7.711   0.462   3.401  0.2711 -0.2629 -0.4625
14245SOL    HW149593   7.619   0.476   3.379  0.1960  0.6805  0.3359
14245SOL    HW249594   7.756   0.460   3.317 -0.6695 -2.4920 -0.9738
14246SOL     OW49595   5.614  11.414   8.736 -0.2973 -0.1971 -0.2206
14246SOL    HW149596   5.623  11.366   8.653 -0.2420  1.2768 -1.1021
14246SOL    HW249597   5.531  11.460   8.728  0.3846  1.0866 -0.0712
14247SOL     OW49598  12.326   7.236   2.787 -0.3026  0.2513  0.0141
14247SOL    HW149599  12.252   7.180   2.764  0.7045 -0.5420 -1.4145
14247SOL    HW249600  12.400   7.176   2.795 -0.0510  0.7926  3.0321
14248SOL     OW49601   6.540   2.336   6.057  0.1618  0.2506 -0.5025
14248SOL    HW149602   6.575   2.359   6.142  1.4382 -1.3573 -0.5431
14248SOL    HW249603   6.616   2.308   6.006 -0.7961 -0.5069 -1.5725
14249SOL     OW49604  11.737   2.131   3.780 -0.2767  0.0083  0.8149
14249SOL    HW149605  11.694   2.065   3.726 -0.0510  0.4295  0.1177
14249SOL    HW249606  11.792   2.181   3.719  4.7039 -3.1123  2.0828
14250SOL     OW49607   7.694   2.042   1.080 -0.0229 -0.0002 -0.5628
14250SOL    HW149608   7.749   1.989   1.022 -0.0191 -0.2919 -0.2966
14250SOL    HW249609   7.722   2.018   1.168 -2.2925 -2.1321 -0.3002
14251SOL     OW49610   0.224   4.405   3.591  0.0406  0.3646  0.3545
14251SOL    HW149611   0.160   4.416   3.521 -0.9210  0.9933  1.3010
14251SOL    HW249612   0.202   4.473   3.655 -0.1746 -1.2300  2.0504
14252SOL     OW49613   4.313   4.444   5.409  0.0090 -0.1443 -0.1054
14252SOL    HW149614   4.377   4.486   5.465 -0.7162  0.2288  0.4557
14252SOL    HW249615   4.257   4.395   5.469  0.0848 -0.9011 -0.6366
14253SOL     OW49616   0.686  10.558   3.131 -0.0737  0.0440 -0.2935
14253SOL    HW149617   0.748  10.609   3.184 -2.0089  2.0061  0.2755
14253SOL    HW249618   0.635  10.508   3.195 -0.8442  0.5694 -0.4775
14254SOL     OW49619   5.667   2.630  10.382  0.5711 -0.1591  0.1210
14254SOL    HW149620   5.612   2.596  10.452 -0.0753  1.9709  0.7097
14254SOL    HW249621   5.742   2.570  10.379 -0.3663 -1.4484  1.2444
14255SOL     OW49622   5.632   0.324   8.374  0.1907  0.0051 -0.0407
14255SOL    HW149623   5.666   0.290   8.456 -0.0173 -0.7867 -0.2753
14255SOL    HW249624   5.699   0.301   8.309 -1.7431 -3.7199 -0.9559
14256SOL     OW49625   5.941   1.156   7.721  0.2624  1.2836  0.1196
14256SOL    HW149626   6.024   1.123   7.686  0.7463 -0.1216  2.4010
14256SOL    HW249627   5.965   1.234   7.771  0.3612  0.5028  1.3339
14257SOL     OW49628   1.417  11.958   4.900  0.5062 -0.1055 -0.4009
14257SOL    HW149629   1.399  11.880   4.847 -0.7098 -0.8355  1.0204
14257SOL    HW249630   1.339  12.012   4.892 -0.3641 -0.9172  1.7437
14258SOL     OW49631  10.922  11.266   2.774 -0.1844 -0.0030  0.1199
14258SOL    HW149632  10.993  11.206   2.750  0.7301 -0.1798  2.9098
14258SOL    HW249633  10.962  11.353   2.772 -0.5290  0.1445 -0.4920
14259SOL     OW49634   9.388   9.539  12.140 -0.0528 -0.1347 -1.0083
14259SOL    HW149635   9.456   9.490  12.096 -0.6466 -0.1584 -1.9255
14259SOL    HW249636   9.338   9.580  12.069 -1.7843 -1.1731 -0.4462
14260SOL     OW49637   6.684  10.827  10.924 -0.8492 -0.1772 -0.3153
14260SOL    HW149638   6.703  10.824  10.830 -0.2595 -0.1558 -0.1986
14260SOL    HW249639   6.603  10.777  10.933 -0.5377 -0.7765 -0.7431
14261SOL     OW49640  11.529  10.666  11.089 -0.0552 -0.3360 -0.2823
14261SOL    HW149641  11.463  10.681  11.022 -0.5372 -1.2310 -0.0100
14261SOL    HW249642  11.580  10.592  11.056 -0.2753 -0.7575  0.3198
14262SOL     OW49643  11.885   7.373   6.607  0.8225  0.1552  0.1756
14262SOL    HW149644  11.952   7.336   6.550  0.5070 -1.8039  0.9925
14262SOL    HW249645  11.934   7.414   6.678  1.2190 -1.3612  0.8256
14263SOL     OW49646   7.010   5.328   6.207  0.4218 -0.1100  0.0208
14263SOL    HW149647   6.958   5.257   6.245 -0.2134 -0.3362 -1.2136
14263SOL    HW249648   6.959   5.358   6.132  0.2506  2.2481  0.9716
14264SOL     OW49649   3.129  10.548   7.860 -0.0288  0.2625 -0.4000
14264SOL    HW149650   3.139  10.609   7.787 -2.1145  3.0186  1.3753
14264SOL    HW249651   3.057  10.490   7.833  0.7745 -0.2895 -1.4065
14265SOL     OW49652  10.359   3.977  12.022  0.2172 -0.2977 -0.3885
14265SOL    HW149653  10.424   4.046  12.038  0.2271  0.1133 -2.0563
14265SOL    HW249654  10.362   3.923  12.101  1.5824  0.5121  0.1530
14266SOL     OW49655  11.195   1.740   4.364  0.5603 -0.4357  0.1628
14266SOL    HW149656  11.144   1.659   4.373  1.1528 -0.9611 -0.9963
14266SOL    HW249657  11.132   1.810   4.378 -0.4694 -1.0678 -1.1055
14267SOL     OW49658   4.492   7.348   6.607  0.2560  0.3037 -0.4718
14267SOL    HW149659   4.536   7.431   6.629 -0.4664  0.8503 -1.0137
14267SOL    HW249660   4.558   7.297   6.561  0.6057  0.7311 -0.4481
14268SOL     OW49661   6.305   3.735   5.159  0.1403 -0.1558 -0.1799
14268SOL    HW149662   6.390   3.737   5.115  1.9356 -0.5168  2.9498
14268SOL    HW249663   6.306   3.654   5.209 -2.3674 -0.4570 -0.4870
14269SOL     OW49664   2.937   3.108   7.325 -0.0631  0.2630 -0.3698
14269SOL    HW149665   3.030   3.104   7.347 -0.4381  0.6789  1.5284
14269SOL    HW249666   2.919   3.202   7.315 -0.8307  0.5134  2.3562
14270SOL     OW49667   2.123  12.338   6.321  0.4091 -0.7089  0.5731
14270SOL    HW149668   2.102  12.247   6.343 -0.3462 -0.7904 -0.4056
14270SOL    HW249669   2.199  12.332   6.263 -0.0502 -0.7718 -0.0308
14271SOL     OW49670  12.402   1.230  11.234 -0.0396  0.8435  0.6714
14271SOL    HW149671  12.307   1.228  11.227 -0.0228  1.2305  0.2625
14271SOL    HW249672  12.420   1.257  11.323 -0.3154  1.3541  0.5730
14272SOL     OW49673  10.603   6.458   2.414  0.0949 -0.2917 -0.4164
14272SOL    HW149674  10.538   6.522   2.383 -0.8923 -1.4313 -0.7819
14272SOL    HW249675  10.671   6.511   2.455 -2.1844  0.9239  2.1892
14273SOL     OW49676   1.726   8.656   4.268  0.2965  0.1767 -0.2636
14273SOL    HW149677   1.743   8.751   4.271 -2.1969  0.6928 -0.4889
14273SOL    HW249678   1.715   8.631   4.359 -0.3820  0.3946 -0.2811
14274SOL     OW49679   1.751  11.490   8.388  0.7611  0.3791  0.1177
14274SOL    HW149680   1.826  11.444   8.352  0.3300 -0.2356 -0.0044
14274SOL    HW249681   1.713  11.536   8.313 -0.6286 -1.5673 -0.4379
14275SOL     OW49682   8.175  11.113   8.425  0.1549  0.0793  1.1383
14275SOL    HW149683   8.228  11.048   8.377 -0.6604  0.3364 -0.1699
14275SOL    HW249684   8.224  11.195   8.417 -1.2440  0.7527 -1.7106
14276SOL     OW49685   1.055   6.873   9.824 -0.5260  0.2087  0.0016
14276SOL    HW149686   1.038   6.952   9.877 -3.1386  0.3132 -0.8779
14276SOL    HW249687   1.069   6.906   9.735 -0.9294 -0.2865 -0.2456
14277SOL     OW49688   9.025   9.705   9.844 -0.0976 -0.0949 -0.0702
14277SOL    HW149689   9.048   9.732   9.754  0.5097  1.4535  0.5129
14277SOL    HW249690   8.952   9.644   9.832  0.2150 -0.2237 -1.6354
14278SOL     OW49691   0.055  10.825   0.313  0.2435  0.4545 -0.1202
14278SOL    HW149692  -0.037  10.829   0.286  0.1281 -0.4481  0.1208
14278SOL    HW249693   0.099  10.781   0.241  0.2764 -0.1811  0.2836
14279SOL     OW49694   7.062   9.093  12.235  0.1289  0.0308  0.1913
14279SOL    HW149695   6.983   9.120  12.189  0.8583  2.4252  0.2047
14279SOL    HW249696   7.124   9.071  12.166 -0.3806 -1.4636  0.1758
14280SOL     OW49697   4.651   4.888   8.999 -0.7315  0.5626 -0.2238
14280SOL    HW149698   4.562   4.859   9.018 -0.5176 -0.1299 -0.2435
14280SOL    HW249699   4.672   4.949   9.069 -1.5329  1.4051 -0.7030
14281SOL     OW49700   4.221  11.397   7.800  0.7203  0.4401  0.0621
14281SOL    HW149701   4.152  11.445   7.755  1.4561  1.9934  0.5316
14281SOL    HW249702   4.213  11.307   7.768 -1.2044  0.6853 -0.2280
14282SOL     OW49703   9.361   4.931   5.297 -0.5263 -0.2422  0.5138
14282SOL    HW149704   9.402   5.017   5.299  0.8334 -0.8879  1.0961
14282SOL    HW249705   9.267   4.949   5.308 -0.5406  1.3087 -1.4456
14283SOL     OW49706   2.549  10.829   6.781  0.3148 -0.5790  0.2992
14283SOL    HW149707   2.554  10.922   6.760  1.1432 -0.7992 -0.5224
14283SOL    HW249708   2.463  10.818   6.822  0.1321  0.5063  0.2271
14284SOL     OW49709   0.999  10.598  11.671  0.0390 -0.0522  0.0076
14284SOL    HW149710   0.908  10.627  11.660 -0.1136  0.6760  2.4864
14284SOL    HW249711   1.051  10.678  11.659  0.2704 -0.2525 -0.3415
14285SOL     OW49712   5.007   4.393   9.476 -0.4625 -0.0765  0.1181
14285SOL    HW149713   5.099   4.387   9.453 -0.3439  0.1115  0.5232
14285SOL    HW249714   5.003   4.366   9.568 -0.9544 -1.0412 -0.1752
14286SOL     OW49715  10.841   5.467   7.564 -0.4348 -0.3770  0.3189
14286SOL    HW149716  10.881   5.538   7.514 -3.1512  0.5321 -0.6984
14286SOL    HW249717  10.916   5.416   7.596  1.5041  0.7412 -2.0958
14287SOL     OW49718   5.283   0.414   9.870 -0.2964  0.2963 -0.1565
14287SOL    HW149719   5.278   0.448   9.960  2.3025  1.3888 -0.3093
14287SOL    HW249720   5.313   0.324   9.880 -0.7147  0.1822  0.0877
14288SOL     OW49721   1.805   2.507   0.037 -0.1575 -0.5085  0.2267
14288SOL    HW149722   1.886   2.460   0.017 -0.2086 -0.0313 -1.2444
14288SOL    HW249723   1.798   2.504   0.133  1.7216 -0.3462  0.4108
14289SOL     OW49724   6.246   9.389   7.080  0.1229  0.3540 -0.1689
14289SOL    HW149725   6.199   9.330   7.140 -0.2544  0.9210  0.1042
14289SOL    HW249726   6.255   9.338   7.000  0.6683 -0.4321  0.3767
14290SOL     OW49727   7.206   0.441   8.816  0.2270 -0.6488  0.4986
14290SOL    HW149728   7.221   0.351   8.785 -1.0774 -0.1017 -1.9453
14290SOL    HW249729   7.290   0.485   8.805  0.1956 -0.8970 -0.8619
14291SOL     OW49730  10.546   0.358  11.124 -0.4218 -0.4370 -0.0410
14291SOL    HW149731  10.455   0.385  11.138 -0.0348  0.7418  0.3615
14291SOL    HW249732  10.561   0.369  11.031 -0.7700 -0.9053 -0.1543
14292SOL     OW49733  12.361   8.080   5.935  0.1661 -0.3452 -0.6950
14292SOL    HW149734  12.316   8.008   5.890 -1.3925  0.8687 -1.1582
14292SOL    HW249735  12.306   8.101   6.010  1.0389 -0.1522 -0.0831
14293SOL     OW49736   2.857   9.563   5.472  0.0406  0.2083 -0.1283
14293SOL    HW149737   2.810   9.625   5.528 -1.3871  1.0824 -2.1880
14293SOL    HW249738   2.895   9.616   5.403  1.5996 -0.8693 -0.1726
14294SOL     OW49739   5.666  11.546   8.436 -0.7507  0.5077  0.1215
14294SOL    HW149740   5.586  11.518   8.391 -0.4689  1.6049 -1.1363
14294SOL    HW249741   5.730  11.558   8.366 -0.1990  1.9721  0.8232
14295SOL     OW49742   4.782   9.833   8.077  0.1972  0.0734  0.0627
14295SOL    HW149743   4.691   9.818   8.104  0.5075 -0.6449  0.7584
14295SOL    HW249744   4.829   9.758   8.112  0.8549 -0.2180 -1.3887
14296SOL     OW49745   5.247   3.366  11.767 -0.8674  0.4259  0.0811
14296SOL    HW149746   5.328   3.394  11.809 -2.0096  1.2198  1.8734
14296SOL    HW249747   5.248   3.409  11.681  0.2727  0.9736  0.3543
14297SOL     OW49748  12.044   6.155   7.475 -0.7277 -0.4179 -0.0324
14297SOL    HW149749  12.027   6.244   7.507  1.0661  0.0839 -0.3313
14297SOL    HW249750  12.033   6.099   7.552 -0.2030  0.2978  0.5851
14298SOL     OW49751   3.588   9.432   0.637  0.3151  0.6178  0.0189
14298SOL    HW149752   3.580   9.343   0.671  0.2083  0.4159 -0.5399
14298SOL    HW249753   3.669   9.465   0.678 -0.6943  0.9861  1.8314
14299SOL     OW49754   1.976   2.972  12.311  0.6226 -0.4068 -0.2299
14299SOL    HW149755   2.034   2.930  12.247  1.1645  0.1650 -0.1293
14299SOL    HW249756   1.958   3.058  12.273 -0.0961 -0.5430 -0.2127
14300SOL     OW49757   8.625   6.053   2.664  0.1910  0.6061 -0.7356
14300SOL    HW149758   8.706   6.081   2.622  0.1293  2.0502  0.0485
14300SOL    HW249759   8.625   6.098   2.748 -0.7356 -0.5224 -0.1045
14301SOL     OW49760   8.531   8.608   4.846  0.6664 -0.3102  0.1623
14301SOL    HW149761   8.495   8.624   4.933  0.6119 -2.0607  0.5025
14301SOL    HW249762   8.488   8.672   4.789 -0.6631 -0.3322  1.1050
14302SOL     OW49763   8.720   1.180   8.422  0.1595  0.4296 -0.1515
14302SOL    HW149764   8.709   1.229   8.340 -0.3645 -1.8307 -1.5392
14302SOL    HW249765   8.640   1.197   8.471 -0.7264 -0.2047 -1.3093
14303SOL     OW49766   6.572   0.434   4.106  0.1672  0.4836 -0.2264
14303SOL    HW149767   6.525   0.353   4.127  2.8597 -1.2082 -0.2103
14303SOL    HW249768   6.599   0.469   4.191  1.5132 -0.2756 -0.3056
14304SOL     OW49769   2.978   8.016   9.084 -0.4769  0.0013 -0.1040
14304SOL    HW149770   3.049   8.012   9.148 -0.1252  0.1106 -0.4836
14304SOL    HW249771   2.991   8.099   9.038 -0.2016 -0.4818 -0.9203
14305SOL     OW49772   1.628   7.397   9.763  0.1678  0.1558 -0.3117
14305SOL    HW149773   1.597   7.455   9.833  0.7731  3.8623 -2.7823
14305SOL    HW249774   1.723   7.394   9.776  0.0108 -2.0303  0.8630
14306SOL     OW49775   3.487   3.244  11.209 -0.5770  0.3017 -0.4597
14306SOL    HW149776   3.528   3.316  11.160 -2.0889  1.2577 -0.3709
14306SOL    HW249777   3.506   3.263  11.300 -1.9226  1.2525 -0.3468
14307SOL     OW49778   1.080   3.226   0.174 -0.6195  0.3777 -0.5472
14307SOL    HW149779   1.086   3.245   0.267 -3.8539  1.9420 -0.5299
14307SOL    HW249780   1.019   3.152   0.168  0.5004 -0.5177 -1.4035
14308SOL     OW49781   0.827   6.290   0.593 -0.1390  0.6743 -0.5121
14308SOL    HW149782   0.864   6.206   0.567  0.2291  0.3829  0.8899
14308SOL    HW249783   0.801   6.278   0.684 -0.9308  1.8013 -0.5693
14309SOL     OW49784  10.518   5.991   0.042  0.2528 -0.0060 -0.1222
14309SOL    HW149785  10.505   5.903   0.077 -0.9296 -0.1799 -0.9301
14309SOL    HW249786  10.512   5.981  -0.052  1.4552  0.7490 -0.3016
14310SOL     OW49787   1.910   6.900   0.557  0.1834  0.3442 -0.2840
14310SOL    HW149788   1.949   6.956   0.624  0.1856  0.2148 -0.1761
14310SOL    HW249789   1.819   6.929   0.551 -0.7336 -1.6403  2.0078
14311SOL     OW49790   1.277   3.849   9.240 -0.0628  0.1411 -0.3727
14311SOL    HW149791   1.220   3.800   9.299  0.2712  0.5138  0.2712
14311SOL    HW249792   1.232   3.933   9.228 -0.3224 -0.0821 -0.9641
14312SOL     OW49793   3.884   1.188  10.226  0.4068  0.2912 -0.3286
14312SOL    HW149794   3.924   1.254  10.283  0.9059 -1.6756  1.7568
14312SOL    HW249795   3.800   1.168  10.267  1.3085 -2.0613  0.5565
14313SOL     OW49796  11.139   9.977  10.190  0.1456 -0.3608 -0.2203
14313SOL    HW149797  11.206   9.917  10.157  0.1389  0.7122 -2.3424
14313SOL    HW249798  11.178  10.064  10.183 -0.6984  0.1081  0.5765
14314SOL     OW49799   8.859   0.720   7.840  0.1016 -0.0857 -0.1112
14314SOL    HW149800   8.933   0.746   7.785 -0.0311  1.4055  0.3798
14314SOL    HW249801   8.810   0.801   7.855  0.4406 -0.2987  2.6472
14315SOL     OW49802   8.250   7.529   7.632  0.5187  0.0493  0.2581
14315SOL    HW149803   8.181   7.576   7.680  1.5386  0.5300  1.2978
14315SOL    HW249804   8.282   7.592   7.568  0.9515  0.3233  0.7345
14316SOL     OW49805   4.172  11.178   6.179  0.2109  0.4198  0.3165
14316SOL    HW149806   4.129  11.095   6.155 -0.0967  0.5948  0.2615
14316SOL    HW249807   4.132  11.243   6.123  0.6664  0.5615  0.1547
14317SOL     OW49808   8.805   8.910   0.523 -0.6009 -0.2767 -0.3034
14317SOL    HW149809   8.727   8.857   0.508 -0.3864 -0.2819 -1.5331
14317SOL    HW249810   8.787   8.993   0.480 -0.7373  0.5066  1.1987
14318SOL     OW49811   7.958  11.114  10.318  0.0121 -0.5639 -0.0434
14318SOL    HW149812   7.901  11.066  10.379  1.6331 -0.8597  1.3078
14318SOL    HW249813   7.955  11.204  10.348 -0.1993 -0.4694 -0.3436
14319SOL     OW49814  12.328   6.298   8.136 -0.5656 -0.8156  0.1902
14319SOL    HW149815  12.262   6.307   8.206  0.5090  2.0499  1.0021
14319SOL    HW249816  12.298   6.357   8.067  1.2756  0.9583  0.7906
14320SOL     OW49817   0.412  10.478   2.538  0.0164  0.1455  0.2832
14320SOL    HW149818   0.327  10.449   2.570 -0.5166 -0.3126 -1.4925
14320SOL    HW249819   0.450  10.524   2.613 -1.5487 -0.0989  1.2831
14321SOL     OW49820   5.153   0.806   2.599 -0.2116  0.1461 -0.2893
14321SOL    HW149821   5.133   0.781   2.508 -0.8573  0.1363 -0.1514
14321SOL    HW249822   5.237   0.766   2.617 -1.0947 -1.7479 -0.1526
14322SOL     OW49823   0.837   5.996  10.309 -0.2666 -0.0230  0.4275
14322SOL    HW149824   0.757   6.024  10.355  0.6190  1.3943  1.1767
14322SOL    HW249825   0.841   6.051  10.232 -0.7117 -1.0476 -0.3471
14323SOL     OW49826   3.946   1.881   0.318 -0.0453  0.3149  0.0891
14323SOL    HW149827   3.944   1.864   0.224 -0.0899  4.0257 -0.7174
14323SOL    HW249828   4.035   1.860   0.345  0.6066  1.2588 -1.2720
14324SOL     OW49829   3.212   5.386   7.678 -0.0029 -0.7029 -0.6945
14324SOL    HW149830   3.143   5.447   7.704 -0.1927 -1.3153  0.2935
14324SOL    HW249831   3.257   5.365   7.760 -0.3955 -2.4494 -0.8828
14325SOL     OW49832  10.926   0.162  11.532  1.1830  0.0218 -0.6090
14325SOL    HW149833  11.002   0.149  11.474  3.0670  0.3178  1.6446
14325SOL    HW249834  10.900   0.074  11.557 -0.2621 -0.1642 -2.5549
14326SOL     OW49835  12.016   4.459   2.514 -0.0690  0.4067 -0.7262
14326SOL    HW149836  11.947   4.518   2.482 -0.7616 -1.0012 -1.9506
14326SOL    HW249837  11.969   4.380   2.541  1.0170 -0.4531 -1.2567
14327SOL     OW49838  10.872   1.268  11.105 -0.2007 -0.1098 -0.2507
14327SOL    HW149839  10.919   1.188  11.127 -0.2636 -0.0663  0.0486
14327SOL    HW249840  10.782   1.252  11.133 -0.4297 -0.2938 -1.0706
14328SOL     OW49841   7.366   5.721  11.997 -0.4047 -0.1746  0.8754
14328SOL    HW149842   7.363   5.654  11.929 -0.9526  0.0534  0.6748
14328SOL    HW249843   7.427   5.786  11.963 -0.3510 -0.2662  0.7934
14329SOL     OW49844   0.517   3.765   7.041  0.4506  0.1236  0.4891
14329SOL    HW149845   0.445   3.796   6.986  0.1978 -1.0782  0.1175
14329SOL    HW249846   0.546   3.843   7.089 -1.8763  0.4404  1.5319
14330SOL     OW49847   2.548  10.901   1.614 -0.3234 -0.0698  0.2771
14330SOL    HW149848   2.544  10.967   1.683  1.7535 -1.5508  1.9172
14330SOL    HW249849   2.457  10.872   1.604 -1.3836  3.1871 -0.7864
14331SOL     OW49850   2.539   9.969   4.267  0.3807  0.3191  0.1347
14331SOL    HW149851   2.572  10.044   4.217 -0.4536  0.1585 -0.6955
14331SOL    HW249852   2.469   9.933   4.212 -0.0415 -0.3373  1.0781
14332SOL     OW49853   4.619   9.634   3.291 -0.2138 -0.3006 -0.3404
14332SOL    HW149854   4.682   9.604   3.357 -1.1417  1.3784  1.3606
14332SOL    HW249855   4.672   9.644   3.211  1.3546 -0.4171  0.6463
14333SOL     OW49856   3.668   9.944  10.279 -0.4192 -0.2121 -1.0828
14333SOL    HW149857   3.597   9.880  10.287 -0.2355 -0.3224 -0.2505
14333SOL    HW249858   3.723   9.928  10.355 -0.8068  1.4765 -0.3914
14334SOL     OW49859   1.944   6.455  12.191 -0.4480  0.1029  0.2451
14334SOL    HW149860   1.974   6.364  12.201 -2.1077 -0.4186  0.7144
14334SOL    HW249861   1.921   6.462  12.098  0.4285  0.3151  0.0259
14335SOL     OW49862   9.081   9.059   4.524  0.3995 -0.4715 -0.0137
14335SOL    HW149863   9.113   9.101   4.444  0.8640 -1.0213 -0.1277
14335SOL    HW249864   9.110   8.968   4.516  2.1494 -0.1199  1.6773
14336SOL     OW49865   8.367   4.756   6.858  0.0053  0.0779  0.2658
14336SOL    HW149866   8.346   4.810   6.934  1.4555  1.6713 -0.4071
14336SOL    HW249867   8.307   4.681   6.865  0.0993  0.1561  2.9465
14337SOL     OW49868   3.512  11.346   3.803  0.3752  0.0418  0.0038
14337SOL    HW149869   3.500  11.440   3.795  1.1264  0.1048 -0.3880
14337SOL    HW249870   3.423  11.310   3.802 -0.0011  0.8558  1.6905
14338SOL     OW49871   9.127   3.090   1.244 -0.1557  0.8549  0.3372
14338SOL    HW149872   9.097   3.157   1.306 -1.9732  2.3124 -1.9489
14338SOL    HW249873   9.047   3.062   1.199  0.9612 -0.8918 -0.6689
14339SOL     OW49874   9.277   6.948   8.920 -0.2375  0.1273 -0.1689
14339SOL    HW149875   9.270   6.961   9.015 -1.8271 -1.6835  0.0100
14339SOL    HW249876   9.361   6.902   8.909 -1.5213 -2.6610  0.7973
14340SOL     OW49877   4.280   0.693   1.831  0.3126 -0.2684 -0.2273
14340SOL    HW149878   4.195   0.696   1.786 -1.2521 -0.8945  2.4214
14340SOL    HW249879   4.314   0.606   1.814 -1.3066 -1.2965  1.4080
14341SOL     OW49880   5.980   3.485   7.826 -0.0765 -0.3811 -0.0384
14341SOL    HW149881   6.059   3.442   7.794 -0.6418 -1.9274  0.5544
14341SOL    HW249882   5.999   3.506   7.917 -0.8679 -2.2238  0.6002
14342SOL     OW49883   2.261   1.381   0.366 -0.3730 -0.6872  0.1667
14342SOL    HW149884   2.300   1.331   0.294  1.0497  0.5523  0.0406
14342SOL    HW249885   2.231   1.462   0.326 -3.4522 -1.6658  0.1993
14343SOL     OW49886   2.154   3.710   8.271 -0.6037 -0.5137  0.0974
14343SOL    HW149887   2.195   3.795   8.256 -3.9189  0.9284 -2.0987
14343SOL    HW249888   2.093   3.700   8.198 -3.0790 -3.0570  2.2786
14344SOL     OW49889   1.160   6.120  11.672  0.3185  0.1955 -0.5507
14344SOL    HW149890   1.100   6.068  11.726 -1.5139 -0.0950 -2.6793
14344SOL    HW249891   1.123   6.208  11.672  0.4791  0.2680 -1.0262
14345SOL     OW49892   6.475   3.035   9.549  0.5811  0.1357  0.4674
14345SOL    HW149893   6.505   3.037   9.458 -2.2344  2.9879 -0.5881
14345SOL    HW249894   6.543   3.080   9.598  1.5120 -0.2635 -0.4184
14346SOL     OW49895  11.128   6.685   0.275  0.2308  0.1853  0.3823
14346SOL    HW149896  11.161   6.758   0.223 -1.6060 -0.3482 -1.6921
14346SOL    HW249897  11.049   6.719   0.318  0.0701 -0.2073  0.4073
14347SOL     OW49898  10.805   9.284   3.518 -0.4748 -0.3459 -0.3688
14347SOL    HW149899  10.798   9.339   3.439  1.5768  0.8880  0.2438
14347SOL    HW249900  10.833   9.199   3.485 -1.0190 -0.2602 -1.0841
14348SOL     OW49901   9.554   2.356   3.194 -0.4691 -0.3905 -0.4150
14348SOL    HW149902   9.582   2.279   3.143 -2.3734 -2.2725  1.1982
14348SOL    HW249903   9.545   2.426   3.129 -0.3327 -1.9896 -2.2386
14349SOL     OW49904   0.949   2.148   5.079 -0.5478  0.3441  0.1776
14349SOL    HW149905   1.002   2.177   5.005  0.5000 -0.2613  0.6771
14349SOL    HW249906   1.012   2.127   5.148 -1.3943 -0.8981  0.6058
14350SOL     OW49907  11.031   2.573  11.137  0.3289 -0.1052 -0.2035
14350SOL    HW149908  11.023   2.654  11.187  3.1807 -0.2661  0.6827
14350SOL    HW249909  11.008   2.503  11.199  1.3866 -0.1481  0.1639
14351SOL     OW49910   5.302   7.228   7.731  0.1307 -0.2398 -0.2746
14351SOL    HW149911   5.221   7.183   7.708  0.7171 -0.6115 -1.7640
14351SOL    HW249912   5.292   7.316   7.695 -0.5990  0.5612  1.7453
14352SOL     OW49913   2.083   7.599   4.825  0.1629  0.6776 -0.6396
14352SOL    HW149914   2.116   7.588   4.736  0.2462  1.5955 -0.7354
14352SOL    HW249915   2.034   7.682   4.822 -0.4960  0.3262 -0.0228
14353SOL     OW49916   4.604   3.056  12.096  0.0184  0.1394 -0.3273
14353SOL    HW149917   4.659   3.050  12.018  0.4874  0.9122 -0.0625
14353SOL    HW249918   4.586   3.149  12.106 -0.6195 -0.0206  0.0925
14354SOL     OW49919   4.250   1.157   4.394 -0.9160  0.5174 -0.2095
14354SOL    HW149920   4.262   1.117   4.480 -0.8216  1.8316  0.4193
14354SOL    HW249921   4.339   1.175   4.364 -0.9658  2.4610  0.6345
14355SOL     OW49922   3.110   7.205   4.112 -0.1855 -0.2797  0.2414
14355SOL    HW149923   3.113   7.164   4.025  1.0999 -1.5876  0.8650
14355SOL    HW249924   3.201   7.224   4.133 -0.0611 -2.7871  2.5324
14356SOL     OW49925   9.309   3.175   8.466 -0.1130  0.1650 -0.1796
14356SOL    HW149926   9.346   3.123   8.537  0.3453  0.9597  0.1878
14356SOL    HW249927   9.248   3.116   8.422  0.8807 -0.8731 -0.1966
14357SOL     OW49928   1.565   1.090   6.361 -0.1159 -0.1049 -0.0695
14357SOL    HW149929   1.557   1.090   6.456 -0.0789 -1.7211 -0.0411
14357SOL    HW249930   1.491   1.142   6.330  2.0525  3.9901  0.8962
14358SOL     OW49931   0.503   2.861   4.586  0.0170 -0.4578  0.8474
14358SOL    HW149932   0.516   2.770   4.559 -2.8813 -1.0246  1.0422
14358SOL    HW249933   0.428   2.857   4.646  0.1440  2.0051  1.2448
14359SOL     OW49934  10.709   9.888   8.377 -0.0224  0.2385 -0.0691
14359SOL    HW149935  10.672   9.865   8.462  0.8792 -0.3620  0.1719
14359SOL    HW249936  10.659   9.837   8.314 -0.5191  0.4873  0.1211
14360SOL     OW49937   0.279   3.513   2.581 -0.2847  0.2365  0.0459
14360SOL    HW149938   0.329   3.447   2.532 -0.0559  0.4740 -0.0400
14360SOL    HW249939   0.345   3.574   2.613 -0.5879  0.9824 -0.7177
14361SOL     OW49940   3.687   0.174   0.291  0.3369 -0.4664  0.0588
14361SOL    HW149941   3.725   0.257   0.321  0.1314 -0.4959  0.4050
14361SOL    HW249942   3.670   0.188   0.198 -1.5266  0.5895  0.5036
14362SOL     OW49943   0.204   6.295   3.766  0.1162  0.8501 -0.0068
14362SOL    HW149944   0.295   6.321   3.781 -0.0087  1.5283 -0.3908
14362SOL    HW249945   0.170   6.276   3.853  1.2680 -1.6948 -0.0047
14363SOL     OW49946  12.544   9.273   3.216  0.6241  0.3697  0.6156
14363SOL    HW149947  12.551   9.286   3.311  2.7076  0.3743  0.5034
14363SOL    HW249948  12.454   9.298   3.196  0.3118  0.9806  2.4960
14364SOL     OW49949  12.258   4.706   7.866 -0.1442 -0.2367 -0.2716
14364SOL    HW149950  12.239   4.786   7.818  1.1687  0.3081  0.0556
14364SOL    HW249951  12.176   4.683   7.909 -0.7649  0.4400 -1.0718
14365SOL     OW49952   2.447   5.730   2.294 -0.1705 -0.1475  0.9216
14365SOL    HW149953   2.413   5.784   2.364  1.7403  1.7786  0.4654
14365SOL    HW249954   2.391   5.749   2.219 -1.5665 -1.4253  1.5780
14366SOL     OW49955  10.153   8.548  12.290  0.4676 -0.1929 -0.0414
14366SOL    HW149956  10.132   8.558  12.197 -2.6394  1.8406  0.7267
14366SOL    HW249957  10.162   8.454  12.303  1.3106 -0.5076 -2.4150
14367SOL     OW49958   2.755   0.026   5.294  0.5720 -0.1021 -0.5000
14367SOL    HW149959   2.842   0.036   5.257  0.4967  0.1265 -0.6152
14367SOL    HW249960   2.735  -0.068   5.285 -0.2383  0.2398 -2.8315
14368SOL     OW49961   9.410  10.432   6.397 -0.7005 -0.2424  0.1166
14368SOL    HW149962   9.479  10.498   6.404  0.1929 -1.0310 -0.9915
14368SOL    HW249963   9.341  10.475   6.347 -0.8318  0.3972  0.8353
14369SOL     OW49964  12.327   6.610  11.182  0.1032 -0.7520 -0.3605
14369SOL    HW149965  12.240   6.582  11.213  0.6733 -2.3198 -0.0938
14369SOL    HW249966  12.355   6.541  11.122  1.6893 -0.9005  0.5013
14370SOL     OW49967   8.569  11.454  10.680 -0.0090 -0.4302 -0.0115
14370SOL    HW149968   8.482  11.476  10.647  0.4249  0.7720 -0.4118
14370SOL    HW249969   8.587  11.366  10.646 -0.8819 -0.5073 -0.2877
14371SOL     OW49970   5.425   3.137   5.686 -0.1810 -0.2113  0.8727
14371SOL    HW149971   5.380   3.069   5.736 -0.2029  0.4035  1.7322
14371SOL    HW249972   5.499   3.093   5.645 -0.8200 -0.9698  0.5072
14372SOL     OW49973   2.444   8.435   8.225  0.1118  0.5269 -0.7281
14372SOL    HW149974   2.447   8.479   8.140  0.6012  1.7496 -0.1052
14372SOL    HW249975   2.354   8.449   8.256  0.5630  2.1480 -0.0313
14373SOL     OW49976   4.671   5.475  10.180 -0.2325  0.0957  0.2434
14373SOL    HW149977   4.688   5.439  10.093 -1.3244  0.0986  0.0169
14373SOL    HW249978   4.748   5.528  10.199 -0.1674  0.4481 -0.9043
14374SOL     OW49979   3.160   0.054   9.315 -0.1862 -0.1575  0.0965
14374SOL    HW149980   3.067   0.070   9.301 -0.2311 -1.2659 -1.0301
14374SOL    HW249981   3.203   0.093   9.240  0.3539  1.0344  0.9980
14375SOL     OW49982   3.124   4.029   8.276 -0.0098  0.2067  0.3270
14375SOL    HW149983   3.203   4.072   8.243  0.9141 -0.3085  1.8004
14375SOL    HW249984   3.120   3.946   8.229 -0.8976  1.1378 -1.3284
14376SOL     OW49985   2.241  12.434   7.082 -0.5114 -0.0891 -0.2162
14376SOL    HW149986   2.289  12.365   7.128  0.3383  0.9713  0.5447
14376SOL    HW249987   2.267  12.423   6.990  1.9277  0.9486  0.2623
14377SOL     OW49988   0.084   8.940   9.760  0.3923  0.1754 -0.6678
14377SOL    HW149989   0.093   8.846   9.744  0.9645 -0.1760  1.3995
14377SOL    HW249990   0.136   8.956   9.838  0.4745  2.2796 -1.0927
14378SOL     OW49991   1.635   7.889   2.518  0.0890 -0.5985 -0.0172
14378SOL    HW149992   1.544   7.858   2.509  0.2620 -0.7433 -1.4165
14378SOL    HW249993   1.685   7.810   2.539 -0.3111 -0.2605  2.6170
14379SOL     OW49994  11.602   3.573   8.890  0.0900 -0.9113 -0.2161
14379SOL    HW149995  11.573   3.501   8.945  0.6146 -0.7402  0.2964
14379SOL    HW249996  11.522   3.608   8.852 -0.3035 -0.8998  0.5993
14380SOL     OW49997   8.721   6.020   4.657  0.1017  0.0598 -0.0476
14380SOL    HW149998   8.671   5.952   4.611  0.6562  0.5789 -1.4628
14380SOL    HW249999   8.689   6.102   4.619 -1.1834  0.7085  2.2377
14381SOL     OW50000   2.940   9.914  10.745  0.6373  0.2524  0.6506
14381SOL    HW150001   2.924   9.850  10.814  2.9753 -0.5692  0.5393
14381SOL    HW250002   2.854   9.929  10.706 -0.2603 -1.5758  1.7669
14382SOL     OW50003   2.448   5.686   8.421 -0.5336 -0.1018 -0.2691
14382SOL    HW150004   2.411   5.632   8.351  2.7367 -1.3956 -1.2226
14382SOL    HW250005   2.440   5.776   8.388  0.4714 -0.6446 -2.1707
14383SOL     OW50006   8.565   3.898   1.352 -0.3764 -0.3640  0.1375
14383SOL    HW150007   8.520   3.833   1.298 -2.2496  0.1845  0.9504
14383SOL    HW250008   8.497   3.963   1.373  1.5116  2.1995 -1.0972
14384SOL     OW50009   9.647   9.692  11.925  0.2683 -0.1693  0.4123
14384SOL    HW150010   9.730   9.647  11.912  0.4278 -0.1974  1.4842
14384SOL    HW250011   9.666   9.758  11.991 -0.5982 -0.2550  0.7531
14385SOL     OW50012  12.385   3.806  12.186  0.3208  0.2571  0.4646
14385SOL    HW150013  12.393   3.901  12.177  0.7388  0.1255 -0.8684
14385SOL    HW250014  12.398   3.789  12.279  1.3506  1.4054  0.5554
14386SOL     OW50015  11.592  10.343   9.248 -0.0091 -0.1603  0.2523
14386SOL    HW150016  11.512  10.390   9.226  1.2429  2.1260  0.2673
14386SOL    HW250017  11.568  10.289   9.324 -1.0631  2.1201  1.6650
14387SOL     OW50018   2.180   8.066   1.090 -0.4254  0.0093  0.1909
14387SOL    HW150019   2.245   8.087   1.023 -0.6243  0.1951  0.0580
14387SOL    HW250020   2.205   8.121   1.165  0.3757 -0.8969  0.6135
14388SOL     OW50021  11.261   7.879  11.312 -0.1785 -0.6231  0.4788
14388SOL    HW150022  11.346   7.852  11.278 -0.2537  0.0527 -0.2805
14388SOL    HW250023  11.200   7.865  11.239 -0.3445  0.8540  0.3064
14389SOL     OW50024  12.113   6.996   0.305 -0.1774 -0.3741 -0.3497
14389SOL    HW150025  12.121   7.089   0.283  0.7619 -0.7330 -1.6735
14389SOL    HW250026  12.047   6.963   0.244 -0.8741 -0.4947  0.4495
14390SOL     OW50027   0.927   1.325   3.925 -0.0770  0.0336 -0.3470
14390SOL    HW150028   1.016   1.292   3.937 -0.8558 -1.1404  3.3524
14390SOL    HW250029   0.894   1.277   3.849  1.2187 -2.3940  0.5420
14391SOL     OW50030   1.824  10.969  10.885  0.0065 -0.0724 -0.0199
14391SOL    HW150031   1.871  10.977  10.802  0.2738 -1.3137 -0.0092
14391SOL    HW250032   1.889  10.990  10.952 -0.2210  0.9706 -0.1191
14392SOL     OW50033  10.854   8.869   9.761  1.1604  0.5569 -0.2337
14392SOL    HW150034  10.911   8.874   9.684  0.1116  1.2983 -0.9931
14392SOL    HW250035  10.787   8.805   9.737  0.8176  0.8022  0.0626
14393SOL     OW50036   1.814   5.678  10.907  0.8602 -0.2358 -0.4510
14393SOL    HW150037   1.779   5.693  10.994 -0.7486 -1.3169 -0.8815
14393SOL    HW250038   1.801   5.762  10.861  0.4689 -0.0909 -0.0727
14394SOL     OW50039   7.050   7.059   4.208 -0.4527 -0.3334  0.4036
14394SOL    HW150040   7.016   7.062   4.297 -1.4062 -0.9288  0.0742
14394SOL    HW250041   7.069   7.150   4.186 -1.6583 -0.0055  0.6767
14395SOL     OW50042   9.174   6.985   5.288 -0.0741  0.5020 -0.8899
14395SOL    HW150043   9.098   6.937   5.255 -0.8480  1.0864 -0.0331
14395SOL    HW250044   9.137   7.062   5.330  0.9354  0.4296  0.1980
14396SOL     OW50045   9.008  10.482   6.968 -0.2882 -0.3598  0.3320
14396SOL    HW150046   9.041  10.572   6.962  0.6186 -0.6403  0.9122
14396SOL    HW250047   9.085  10.427   6.951 -1.1515 -1.0454 -1.7057
14397SOL     OW50048   0.017   5.962   0.454 -0.3659 -0.7094  0.2362
14397SOL    HW150049  -0.040   6.013   0.397 -1.2297  0.3621  1.9664
14397SOL    HW250050   0.094   5.944   0.401 -2.0070 -1.7031 -1.9971
14398SOL     OW50051  10.665   5.223   0.179  0.7558  0.7466  0.6748
14398SOL    HW150052  10.675   5.215   0.274 -0.7313  0.7087  0.8461
14398SOL    HW250053  10.616   5.304   0.166  1.1697  0.8909 -0.0872
14399SOL     OW50054   9.827   8.784   9.135 -0.0811  0.6459  0.2720
14399SOL    HW150055   9.774   8.851   9.092 -1.7890 -0.8657 -0.0934
14399SOL    HW250056   9.806   8.794   9.228 -1.1670 -0.0400  0.1161
14400SOL     OW50057   0.907   9.957   6.920 -0.6249  0.1048  0.0604
14400SOL    HW150058   0.957   9.925   6.845  1.1218  0.1405  1.1638
14400SOL    HW250059   0.817   9.966   6.887  0.0856  0.0822 -1.9924
14401SOL     OW50060  10.715   9.924   1.086 -0.4828 -0.6706 -0.6221
14401SOL    HW150061  10.791   9.927   1.144 -0.5017 -2.2662 -0.4769
14401SOL    HW250062  10.750   9.943   0.999 -0.0733 -0.5322 -0.4293
14402SOL     OW50063   2.784   7.888   2.446  0.1327 -0.5017 -0.2143
14402SOL    HW150064   2.853   7.892   2.512  0.2286 -0.7519 -0.2995
14402SOL    HW250065   2.819   7.831   2.377  1.1824  1.9012 -1.7985
14403SOL     OW50066  11.736  10.869   0.390  0.5027 -0.4872  0.4907
14403SOL    HW150067  11.703  10.957   0.407 -2.7291 -0.9759 -2.1867
14403SOL    HW250068  11.808  10.882   0.327  0.2102  0.2779  0.3096
14404SOL     OW50069   0.978   8.687  10.840  0.5172 -0.1773  0.1915
14404SOL    HW150070   0.896   8.643  10.817  1.5522 -0.9355 -2.3978
14404SOL    HW250071   0.978   8.688  10.936 -1.4390 -2.2244  0.2996
14405SOL     OW50072   5.601   4.965   0.550 -0.7653 -0.3601 -0.2527
14405SOL    HW150073   5.654   5.033   0.591 -0.2246 -0.8035 -0.2014
14405SOL    HW250074   5.526   4.954   0.609 -0.0137 -0.9743  0.6230
14406SOL     OW50075   1.786   7.670   4.537  0.2411  0.3582 -0.5867
14406SOL    HW150076   1.830   7.640   4.617  1.8966  0.6347 -1.3633
14406SOL    HW250077   1.767   7.590   4.488  0.4240  0.2754 -0.5223
14407SOL     OW50078   9.016   0.535   9.731  0.4069 -0.8451  1.0296
14407SOL    HW150079   9.048   0.456   9.773 -0.4078 -0.6847  1.9822
14407SOL    HW250080   9.023   0.603   9.798  1.4792  0.0018  0.1032
14408SOL     OW50081   9.027   3.502   1.001  0.1139 -0.1851  0.1458
14408SOL    HW150082   8.974   3.463   1.071  0.8925 -1.4229  0.0752
14408SOL    HW250083   9.117   3.477   1.022  0.4816  0.4143 -0.6771
14409SOL     OW50084   1.431  12.283   9.146  0.0771  0.2131 -0.1061
14409SOL    HW150085   1.377  12.355   9.115 -1.9203 -1.6313 -1.1480
14409SOL    HW250086   1.414  12.279   9.240 -0.4732  0.5707 -0.1895
14410SOL     OW50087   8.955   0.175  11.515  0.0169  0.1466  0.5135
14410SOL    HW150088   8.882   0.146  11.569 -0.6676 -2.6071 -1.6081
14410SOL    HW250089   9.022   0.107  11.526  1.0448  1.0676  0.1539
14411SOL     OW50090   3.774   2.533   0.496  0.2471  0.2072  0.1139
14411SOL    HW150091   3.845   2.523   0.433  1.1072  1.2254  0.8864
14411SOL    HW250092   3.695   2.543   0.442  1.0545  1.7906 -0.8261
14412SOL     OW50093   7.435   7.769   2.264 -0.2557  0.4585  0.9292
14412SOL    HW150094   7.528   7.774   2.286 -0.4651  1.1641  1.7113
14412SOL    HW250095   7.391   7.816   2.335 -1.2360 -0.0968  0.7125
14413SOL     OW50096   0.208  11.300   2.254  0.2485 -0.4526  0.0833
14413SOL    HW150097   0.259  11.233   2.300  0.9305  0.3324  0.4814
14413SOL    HW250098   0.117  11.269   2.261  0.5897 -1.5592 -0.1255
14414SOL     OW50099   2.651   1.577   9.554  0.6494 -0.2949 -0.1631
14414SOL    HW150100   2.600   1.501   9.527  1.3632 -0.7089 -0.3834
14414SOL    HW250101   2.608   1.651   9.512 -0.5482 -0.4592  0.7194
14415SOL     OW50102   7.603   6.057   4.720  0.2979  0.6056  0.1320
14415SOL    HW150103   7.695   6.067   4.744  0.7436 -0.3111 -1.0978
14415SOL    HW250104   7.578   6.143   4.685  1.0634  0.4820 -0.7387
14416SOL     OW50105  10.515   6.956   8.262  0.5658 -0.0069 -0.2458
14416SOL    HW150106  10.455   6.887   8.233  1.5701 -0.9043 -0.2398
14416SOL    HW250107  10.602   6.917   8.255  1.0374  0.6825  1.4006
14417SOL     OW50108   6.808  12.538  10.798  0.6526 -0.4063 -0.8605
14417SOL    HW150109   6.760  12.482  10.737 -0.9361 -3.8073  3.0767
14417SOL    HW250110   6.742  12.597  10.834  0.9219 -0.4339 -0.3098
14418SOL     OW50111   2.097   6.169   8.752 -0.0446  1.0990 -0.2803
14418SOL    HW150112   2.028   6.234   8.766 -0.7539  0.1876  0.5843
14418SOL    HW250113   2.170   6.200   8.805  0.0044  1.7316 -0.6982
14419SOL     OW50114   3.390   1.897   1.207 -0.0667 -0.0303 -0.2119
14419SOL    HW150115   3.451   1.968   1.187  1.4733 -1.5067 -1.0871
14419SOL    HW250116   3.447   1.824   1.232 -1.4674 -1.5228 -1.2054
14420SOL     OW50117   5.697   1.218   2.555  0.3473  0.3684 -0.4326
14420SOL    HW150118   5.782   1.174   2.554  0.4358  0.5142  0.2832
14420SOL    HW250119   5.708   1.290   2.617  0.3491  1.6986 -1.9187
14421SOL     OW50120  10.654   7.005   8.910  0.2877 -0.2868  0.4424
14421SOL    HW150121  10.740   7.044   8.892 -0.3793  0.9712 -0.1519
14421SOL    HW250122  10.658   6.919   8.869  1.1984 -0.1680  0.2557
14422SOL     OW50123   6.165  12.205   7.313 -0.3154  0.1842  0.2738
14422SOL    HW150124   6.168  12.297   7.340 -0.7962  0.2036  0.2643
14422SOL    HW250125   6.255  12.174   7.324 -0.3879  0.3448  1.3659
14423SOL     OW50126   4.131  10.776   2.880  0.3613 -0.1119  0.5890
14423SOL    HW150127   4.066  10.747   2.944 -0.4892 -0.0700 -0.2321
14423SOL    HW250128   4.149  10.867   2.903  0.0698 -0.0989  0.7682
14424SOL     OW50129   1.306   2.759   7.393  0.3505 -0.1438 -0.7293
14424SOL    HW150130   1.237   2.815   7.428 -1.6909 -3.0670  0.3921
14424SOL    HW250131   1.377   2.767   7.456 -1.2471 -1.2576  1.3759
14425SOL     OW50132   5.849  11.668   9.212 -0.1564 -0.1164 -0.1921
14425SOL    HW150133   5.848  11.615   9.292  0.8413 -0.5033 -0.4272
14425SOL    HW250134   5.800  11.615   9.149 -1.0323  0.2347  0.1737
14426SOL     OW50135  11.065  10.952   8.612 -0.6875 -0.2793 -0.0309
14426SOL    HW150136  11.056  11.047   8.611  0.4897 -0.0957  1.4752
14426SOL    HW250137  11.116  10.934   8.691  0.0764 -2.0792 -0.8688
14427SOL     OW50138  10.316   0.614   0.273 -0.0062  0.0820  0.4025
14427SOL    HW150139  10.379   0.662   0.218  0.7990  1.0941  2.1022
14427SOL    HW250140  10.360   0.532   0.293  0.3644  0.3579  0.7523
14428SOL     OW50141  12.299   5.569   0.625  0.7900  0.1523  0.1888
14428SOL    HW150142  12.379   5.614   0.597  0.9127 -0.8780 -1.2371
14428SOL    HW250143  12.280   5.605   0.711  2.8112  0.4203  0.5771
14429SOL     OW50144   7.206   7.295   8.350 -0.3699  0.2737  0.1379
14429SOL    HW150145   7.139   7.349   8.309 -1.9612 -0.5280  1.5592
14429SOL    HW250146   7.251   7.354   8.410 -1.1905  0.3425  0.6943
14430SOL     OW50147   4.850   3.523   8.780 -0.2982  0.6901 -0.6025
14430SOL    HW150148   4.849   3.615   8.755 -1.1837  0.6890 -0.6223
14430SOL    HW250149   4.778   3.484   8.730 -1.1328  0.3768  0.7881
14431SOL     OW50150   9.088   5.555   9.919  0.0168 -0.2396  0.3289
14431SOL    HW150151   9.099   5.637   9.967  1.9403 -1.6000  2.3983
14431SOL    HW250152   8.993   5.547   9.907 -0.2147  2.3031 -0.0804
14432SOL     OW50153   7.199   7.530   0.065 -0.4589 -0.0958 -0.1737
14432SOL    HW150154   7.262   7.593   0.031  0.2524 -0.2228  0.8743
14432SOL    HW250155   7.183   7.470  -0.008  1.8127 -0.9732 -0.0080
14433SOL     OW50156   8.904   2.512   1.114  0.3053  0.2450  0.0948
14433SOL    HW150157   8.953   2.570   1.172  0.2500 -0.4599  0.8651
14433SOL    HW250158   8.971   2.468   1.061  0.3356  1.1398 -0.6307
14434SOL     OW50159   2.857   6.113  10.513  0.5606 -0.1417 -0.7544
14434SOL    HW150160   2.772   6.092  10.475  0.7379  0.3155 -1.4053
14434SOL    HW250161   2.873   6.042  10.576 -1.4949  1.1149  1.3296
14435SOL     OW50162   8.585   8.240   9.549  0.1204 -0.0417 -0.3134
14435SOL    HW150163   8.679   8.254   9.541  0.1771  0.5558  1.1565
14435SOL    HW250164   8.552   8.321   9.588 -1.1048 -0.0169 -1.3388
14436SOL     OW50165   3.609   6.232   7.364  0.0297  0.1123  0.6012
14436SOL    HW150166   3.559   6.197   7.438 -0.5339  0.1680  0.2572
14436SOL    HW250167   3.697   6.196   7.375 -0.0614  0.0704  1.2611
14437SOL     OW50168   3.416   9.074  10.015  0.3665  0.2661 -0.1010
14437SOL    HW150169   3.363   9.098   9.939  1.2038 -1.4669 -1.2927
14437SOL    HW250170   3.466   9.153  10.035 -0.7106  1.1061 -0.6144
14438SOL     OW50171   6.412   0.319  11.326  0.0463  0.1790  0.1949
14438SOL    HW150172   6.400   0.383  11.256 -0.1710 -0.2881 -0.1989
14438SOL    HW250173   6.458   0.368  11.395 -1.3625  1.1634  0.4908
14439SOL     OW50174  10.536   8.499   2.907 -0.5672  0.3369  0.2607
14439SOL    HW150175  10.523   8.419   2.958 -0.6611  0.0852 -0.1553
14439SOL    HW250176  10.609   8.480   2.849 -0.5480  0.5736  0.2055
14440SOL     OW50177  10.568   7.129   5.091  0.2360 -0.8594 -0.2104
14440SOL    HW150178  10.595   7.219   5.074  0.1375 -0.5624  1.0903
14440SOL    HW250179  10.494   7.137   5.151  0.3869 -1.8126  0.1187
14441SOL     OW50180   6.088  10.278   8.472  0.1652  0.4184 -0.3768
14441SOL    HW150181   6.049  10.299   8.556 -1.0728  1.1587 -1.1027
14441SOL    HW250182   6.049  10.340   8.411 -0.4435 -1.3119 -1.8502
14442SOL     OW50183   6.836   9.684   5.258 -0.5685  0.8606  0.3471
14442SOL    HW150184   6.876   9.771   5.266 -0.0817  0.5365  1.9142
14442SOL    HW250185   6.747   9.696   5.290  0.3799  0.2556  3.6564
14443SOL     OW50186  11.147   3.772   5.649 -0.4078 -0.2510 -0.3098
14443SOL    HW150187  11.154   3.677   5.649  1.2690 -0.1894  1.2288
14443SOL    HW250188  11.084   3.791   5.718 -0.8167 -0.2327 -0.6834
14444SOL     OW50189  11.782  12.417   1.204 -0.1949 -0.0263  0.2676
14444SOL    HW150190  11.757  12.500   1.163  1.0697 -0.5223 -1.6388
14444SOL    HW250191  11.715  12.402   1.270 -1.0749  1.9512 -0.0996
14445SOL     OW50192   8.483   4.695  11.761  0.1319 -0.2182 -0.4564
14445SOL    HW150193   8.501   4.764  11.697  0.7439  0.5567  0.5160
14445SOL    HW250194   8.549   4.628  11.745  1.8027  1.0430  0.8556
14446SOL     OW50195   9.744   6.672   9.043  0.4151  0.2366 -0.2210
14446SOL    HW150196   9.786   6.670   9.129 -1.8229 -0.2168  0.9184
14446SOL    HW250197   9.681   6.601   9.045 -1.3886  1.7099 -1.3263
14447SOL     OW50198   6.441   9.594   6.658  0.3941 -0.3600  0.3235
14447SOL    HW150199   6.351   9.575   6.685 -0.8285 -0.4142 -3.2317
14447SOL    HW250200   6.459   9.681   6.693 -1.3352 -0.0303  0.4935
14448SOL     OW50201   8.660  10.776  10.254 -0.5533 -0.5154 -0.4765
14448SOL    HW150202   8.604  10.733  10.189  0.3006 -0.5334 -1.2280
14448SOL    HW250203   8.724  10.709  10.279 -0.3255 -0.2356 -0.2975
14449SOL     OW50204  10.091   2.175   7.533 -0.0824  0.2528  0.1684
14449SOL    HW150205  10.077   2.130   7.616  1.9724  0.6059  0.7591
14449SOL    HW250206  10.083   2.268   7.555 -1.3788  0.3073 -0.4414
14450SOL     OW50207   4.807  11.051  11.712 -0.1490  0.2759  1.0426
14450SOL    HW150208   4.851  11.058  11.628  0.0417  0.2405  1.1388
14450SOL    HW250209   4.719  11.084  11.696 -0.6001 -1.1486  0.4610
14451SOL     OW50210   5.969   4.426  10.686 -0.0062 -0.5361  0.0266
14451SOL    HW150211   6.041   4.368  10.663  0.5419  0.2681 -0.3028
14451SOL    HW250212   5.902   4.367  10.722  1.7709 -1.0756  2.8193
14452SOL     OW50213   9.633   0.669   2.257  0.0099 -0.7295 -0.0616
14452SOL    HW150214   9.611   0.709   2.172  0.7420 -0.9286 -0.3520
14452SOL    HW250215   9.685   0.592   2.234  1.8081  0.2304  0.6114
14453SOL     OW50216   3.200   2.963   3.918  0.2667 -0.4847  0.4218
14453SOL    HW150217   3.203   2.869   3.937 -1.1838 -0.3814  1.2852
14453SOL    HW250218   3.291   2.992   3.927  0.7669 -1.8194 -0.0091
14454SOL     OW50219   5.145   5.455   3.111  0.4024 -0.5445 -0.4234
14454SOL    HW150220   5.126   5.394   3.040  0.9829  0.6677 -1.6642
14454SOL    HW250221   5.088   5.530   3.094  1.5530  0.3578 -0.4484
14455SOL     OW50222  11.384   3.591   8.167 -0.1817 -0.1910  0.8389
14455SOL    HW150223  11.320   3.662   8.175 -0.8070 -0.5557 -0.6602
14455SOL    HW250224  11.457   3.631   8.119 -0.4961 -0.5204  0.0723
14456SOL     OW50225   0.749   0.492   1.177 -0.1999 -0.2414 -0.2350
14456SOL    HW150226   0.762   0.547   1.100  0.4210  1.0637  0.7612
14456SOL    HW250227   0.662   0.517   1.209 -0.2115 -0.3516 -0.1811
14457SOL     OW50228   3.133   5.855  10.715  0.0564 -0.2279  0.0362
14457SOL    HW150229   3.066   5.910  10.755  0.7730  0.8352 -0.1827
14457SOL    HW250230   3.210   5.912  10.709  0.4494 -0.8648 -1.3432
14458SOL     OW50231   0.563  11.218   3.988  0.0275 -0.2008  0.1241
14458SOL    HW150232   0.497  11.233   3.921  0.5160 -2.6962 -1.0524
14458SOL    HW250233   0.638  11.271   3.962 -0.1680 -0.3238 -0.6984
14459SOL     OW50234   6.662   0.419   0.233  0.1219 -0.1006 -0.1991
14459SOL    HW150235   6.610   0.383   0.161 -0.8279 -0.2459  0.5368
14459SOL    HW250236   6.749   0.382   0.222 -0.0708 -0.2893 -1.1433
14460SOL     OW50237   3.838   4.543   0.931  0.1052  0.2506  0.1430
14460SOL    HW150238   3.777   4.479   0.895 -1.3443  1.6027  0.0539
14460SOL    HW250239   3.909   4.491   0.969 -1.0610 -1.3940  0.1638
14461SOL     OW50240  10.228  12.548   2.089  0.0370  0.2857  0.7664
14461SOL    HW150241  10.320  12.521   2.087 -0.2184 -0.5907  0.5388
14461SOL    HW250242  10.181  12.471   2.122 -0.4311  1.3015  2.6505
14462SOL     OW50243  10.124  10.100   5.961 -0.3694  0.2135 -0.5174
14462SOL    HW150244  10.204  10.153   5.962 -0.1507 -0.1158 -0.3881
14462SOL    HW250245  10.054  10.162   5.939 -0.3480  0.8684  1.1373
14463SOL     OW50246  10.641   3.411   7.015  0.0709  0.1511  0.2404
14463SOL    HW150247  10.669   3.320   7.015  0.3537  0.0880 -3.7968
14463SOL    HW250248  10.721   3.460   7.037  0.8428 -0.4687 -1.0707
14464SOL     OW50249   8.133   4.387  12.117 -0.6851 -0.4611  0.2301
14464SOL    HW150250   8.054   4.341  12.088 -0.6928  1.0046 -2.3657
14464SOL    HW250251   8.112   4.480  12.107  1.0762 -0.0104  0.3000
14465SOL     OW50252   8.702  12.393   5.671  0.6846  0.3579 -0.1218
14465SOL    HW150253   8.780  12.442   5.646  0.8872  1.4341  2.4145
14465SOL    HW250254   8.648  12.393   5.591  2.4296  1.1749 -1.3771
14466SOL     OW50255   5.657   5.064   3.331 -0.1013 -0.2005  0.1217
14466SOL    HW150256   5.601   5.122   3.280  0.9526  1.5705  0.8740
14466SOL    HW250257   5.642   4.977   3.294 -1.2449  0.6307 -1.4914
14467SOL     OW50258   8.411   2.113  11.473 -0.4402 -0.1511  0.0011
14467SOL    HW150259   8.479   2.163  11.427 -2.3566  3.1796  0.4235
14467SOL    HW250260   8.362   2.069  11.403 -1.4572  2.4062 -1.0598
14468SOL     OW50261   2.976   1.619   7.750 -0.1848 -0.2017 -0.1213
14468SOL    HW150262   2.994   1.712   7.767 -1.8515  0.1518 -0.1268
14468SOL    HW250263   2.883   1.617   7.727 -0.0842 -1.8420 -0.4583
14469SOL     OW50264   0.701   7.200   1.349  0.3897 -0.3497 -0.2003
14469SOL    HW150265   0.643   7.274   1.331 -0.7086 -0.4789  2.3223
14469SOL    HW250266   0.784   7.240   1.376 -0.2486  0.0426  1.3018
14470SOL     OW50267   4.321   3.484   9.020  0.0863 -0.1602 -0.0518
14470SOL    HW150268   4.332   3.561   9.076 -0.2266 -1.8020  2.4375
14470SOL    HW250269   4.394   3.427   9.043 -1.0910 -1.6711  0.1325
14471SOL     OW50270   2.837   7.743  10.728 -0.0226  0.5265  0.2961
14471SOL    HW150271   2.854   7.680  10.797  0.6226  0.1249 -0.2239
14471SOL    HW250272   2.770   7.801  10.765  0.6614  0.6243  1.4380
14472SOL     OW50273   6.791   1.650  10.310 -0.3872 -0.1399  0.6011
14472SOL    HW150274   6.813   1.569  10.263  1.4624  1.2241 -1.0563
14472SOL    HW250275   6.695   1.650  10.313 -0.5122 -1.3091 -1.4019
14473SOL     OW50276   1.635  11.245   2.676  0.1755  0.8854  0.1390
14473SOL    HW150277   1.713  11.285   2.716 -0.7154  2.2389  0.6014
14473SOL    HW250278   1.585  11.320   2.643 -0.6473 -0.0131 -0.6988
14474SOL     OW50279   9.611   9.901   3.397  0.2113 -0.0976 -0.1515
14474SOL    HW150280   9.516   9.904   3.383  0.1207 -0.4515  0.3548
14474SOL    HW250281   9.648   9.948   3.323 -0.4952  2.1565  0.8270
14475SOL     OW50282  11.775   6.113   9.427 -0.4086  0.1077 -0.5968
14475SOL    HW150283  11.726   6.055   9.485  3.1664 -0.5467  2.0898
14475SOL    HW250284  11.810   6.056   9.359 -0.7685  0.0043 -0.6972
14476SOL     OW50285   9.805   7.146   0.803  0.0258  0.9207 -0.1098
14476SOL    HW150286   9.843   7.227   0.836 -0.9693  0.5684  2.0531
14476SOL    HW250287   9.786   7.094   0.881 -0.4575 -0.9083 -1.3743
14477SOL     OW50288   1.476   8.483   1.763  0.3298  0.5927 -0.2294
14477SOL    HW150289   1.525   8.458   1.841  2.3483  0.4190 -1.4965
14477SOL    HW250290   1.503   8.420   1.697 -0.4609  1.4398 -1.3879
14478SOL     OW50291   7.668   6.169   0.811  0.4999  0.1404 -0.1990
14478SOL    HW150292   7.661   6.259   0.843  0.9735  0.3392 -0.6399
14478SOL    HW250293   7.709   6.177   0.725  0.6537 -0.5061 -0.1908
14479SOL     OW50294   8.306   7.148  12.442  0.0204 -0.3466 -0.1445
14479SOL    HW150295   8.220   7.191  12.437 -0.9558 -1.8111  2.2336
14479SOL    HW250296   8.288   7.065  12.486  2.7879 -0.3946  1.0918
14480SOL     OW50297  10.849   9.655   6.397  0.1242 -0.1499  0.2431
14480SOL    HW150298  10.809   9.585   6.448  0.9598 -0.7056  0.1537
14480SOL    HW250299  10.777   9.715   6.378 -0.5250 -0.7811  0.6546
14481SOL     OW50300   8.407   1.760   7.081  0.0398  0.2837  0.7732
14481SOL    HW150301   8.433   1.705   7.007 -0.6877  0.0505  0.6894
14481SOL    HW250302   8.320   1.792   7.058 -0.4360 -0.2500  1.7875
14482SOL     OW50303   0.545   5.020   1.369  0.3616 -0.1498 -0.2011
14482SOL    HW150304   0.487   5.071   1.426 -0.1445  0.5474 -1.2915
14482SOL    HW250305   0.486   4.961   1.322  0.9348 -1.7395  0.9762
14483SOL     OW50306   2.598   6.379   6.228  0.1570 -0.0062  0.5319
14483SOL    HW150307   2.647   6.311   6.274  2.0430  0.6152 -0.4497
14483SOL    HW250308   2.526   6.332   6.186 -0.2512 -0.9238  2.1740
14484SOL     OW50309   3.314   1.124   4.629 -0.6660 -0.0782 -0.5410
14484SOL    HW150310   3.350   1.213   4.628 -1.3696  0.2622  1.4725
14484SOL    HW250311   3.389   1.068   4.645 -0.4630  0.2960 -0.1742
14485SOL     OW50312   8.672  11.793   0.143  0.5565 -0.0733  0.7396
14485SOL    HW150313   8.613  11.854   0.098  0.4952 -0.7227 -0.0885
14485SOL    HW250314   8.680  11.828   0.232 -2.2293 -0.7224  1.3356
14486SOL     OW50315  10.036  10.749  11.184 -0.1815 -0.2420  0.1715
14486SOL    HW150316  10.069  10.833  11.215 -0.4199 -0.5925  1.4408
14486SOL    HW250317   9.944  10.766  11.162  0.3807  0.3702 -1.8906
14487SOL     OW50318   8.954  10.634  11.949  0.3552 -0.5483  0.0715
14487SOL    HW150319   8.905  10.635  12.032 -1.9896  0.2536 -1.2259
14487SOL    HW250320   9.041  10.665  11.973 -0.4485  0.3629  2.1339
14488SOL     OW50321  12.354   7.546  10.179 -0.3791 -0.4481 -0.0871
14488SOL    HW150322  12.389   7.475  10.125 -1.0849 -1.0170  0.1824
14488SOL    HW250323  12.286   7.586  10.125 -0.9430 -0.8849  0.2805
14489SOL     OW50324  10.570  12.526   9.719  0.4189  0.0438 -0.0678
14489SOL    HW150325  10.543  12.596   9.777 -0.5745 -0.9196  0.6750
14489SOL    HW250326  10.640  12.481   9.766 -0.5712 -0.9065  0.5659
14490SOL     OW50327   6.246  11.909   4.204 -0.9445 -0.0744  0.0054
14490SOL    HW150328   6.332  11.869   4.197 -1.0803 -0.3896  0.1310
14490SOL    HW250329   6.205  11.866   4.279 -1.2240  0.0502 -0.0739
14491SOL     OW50330   9.894  10.104   7.108  0.1635 -0.5359  0.1011
14491SOL    HW150331   9.972  10.049   7.119  1.1815  0.6759 -0.7258
14491SOL    HW250332   9.893  10.159   7.187  1.0782  0.5113 -0.5786
14492SOL     OW50333   7.070  11.625  12.540  0.2069  0.1216 -0.3136
14492SOL    HW150334   7.036  11.548  12.586 -0.5971  0.5831 -0.1083
14492SOL    HW250335   7.126  11.669  12.604  3.3670 -1.9764 -1.4182
14493SOL     OW50336  12.143   7.560   6.713  0.8695 -0.3411  0.5197
14493SOL    HW150337  12.211   7.612   6.756  0.0431  0.0101  1.4322
14493SOL    HW250338  12.098   7.515   6.784  0.1879 -0.6326 -0.0797
14494SOL     OW50339  12.164   7.519   5.528  0.4221  0.2882 -0.2510
14494SOL    HW150340  12.156   7.603   5.484  2.0401 -0.1613 -1.5334
14494SOL    HW250341  12.105   7.461   5.480 -0.3665  0.5809  0.3573
14495SOL     OW50342   9.145  11.543   6.838  0.3974  0.1538 -0.0952
14495SOL    HW150343   9.057  11.534   6.801  0.3152 -1.4589  0.4164
14495SOL    HW250344   9.192  11.466   6.805  0.7042 -0.6424  2.0373
14496SOL     OW50345   6.656   5.818   2.354 -0.2065 -0.2841  0.0933
14496SOL    HW150346   6.730   5.864   2.394 -0.2116  0.5002 -0.7662
14496SOL    HW250347   6.696   5.743   2.310 -0.1723 -1.0139  1.3208
14497SOL     OW50348   0.163   4.842  11.490  0.3119 -0.0747 -0.0294
14497SOL    HW150349   0.072   4.849  11.517  0.0154  2.8266 -1.3311
14497SOL    HW250350   0.210   4.902  11.548  0.3190  2.9907 -2.9287
14498SOL     OW50351   1.999   4.185  10.389 -0.4032 -0.3458 -0.5020
14498SOL    HW150352   1.968   4.166  10.301 -1.7892 -1.7369  0.2266
14498SOL    HW250353   2.027   4.276  10.386 -2.0376  0.1674 -1.9556
14499SOL     OW50354   9.362  11.354   2.880 -0.3105  0.2906 -0.0480
14499SOL    HW150355   9.334  11.411   2.809 -0.4225 -0.9356 -1.0236
14499SOL    HW250356   9.299  11.282   2.879  0.6309 -0.5551  0.2373
14500SOL     OW50357  11.195   5.010   2.651  0.5064 -0.2879  0.4384
14500SOL    HW150358  11.189   5.010   2.747 -1.0660  0.5290  0.3572
14500SOL    HW250359  11.174   4.920   2.626 -0.4458 -0.1773  0.7992
14501SOL     OW50360   5.195   7.351   9.904 -0.6537 -0.1017 -0.1291
14501SOL    HW150361   5.178   7.289   9.975 -2.9959  0.2654 -0.2894
14501SOL    HW250362   5.174   7.302   9.825 -0.4507  0.2480 -0.3970
14502SOL     OW50363  11.705   0.137   3.504 -0.1422  0.5366 -0.3522
14502SOL    HW150364  11.616   0.102   3.510  0.2489 -0.2581  1.3928
14502SOL    HW250365  11.721   0.144   3.410 -1.4437 -0.9292 -0.7372
14503SOL     OW50366   6.193   4.878   8.177  1.0642  0.1593  0.3958
14503SOL    HW150367   6.171   4.886   8.270  0.3571  1.9192  0.1293
14503SOL    HW250368   6.286   4.899   8.172  0.9533  0.7321  0.6450
14504SOL     OW50369   1.555   9.339  10.964  0.1172 -0.4994  0.1045
14504SOL    HW150370   1.487   9.375  11.020 -0.0787 -0.2450 -0.2918
14504SOL    HW250371   1.510   9.277  10.907 -0.2176  1.2739 -1.6677
14505SOL     OW50372   5.317   7.227   4.203  0.4545  0.4502  0.4365
14505SOL    HW150373   5.261   7.218   4.126  1.3397  1.8724 -0.4342
14505SOL    HW250374   5.261   7.265   4.270 -0.2107 -0.3747  0.3664
14506SOL     OW50375   5.765   6.514   5.851 -0.2311  0.0927 -0.6647
14506SOL    HW150376   5.701   6.466   5.799 -1.1992 -0.5855  1.0430
14506SOL    HW250377   5.715   6.583   5.894  0.5408  0.6498 -0.6302
14507SOL     OW50378   8.531   7.395   9.394 -0.1604  0.2144 -0.0653
14507SOL    HW150379   8.490   7.314   9.423  0.2731 -0.5099 -1.3809
14507SOL    HW250380   8.460   7.446   9.355 -0.2744  0.0555 -0.0678
14508SOL     OW50381   5.963   9.000  10.957  0.2660  0.6794 -0.6639
14508SOL    HW150382   5.943   9.073  11.016  0.7648  1.1222 -1.0198
14508SOL    HW250383   6.051   8.973  10.981 -0.4136 -0.7066  0.3503
14509SOL     OW50384   1.890  10.493   5.139 -0.5554 -0.3606  0.8497
14509SOL    HW150385   1.841  10.574   5.125 -2.0904 -1.2308  0.9602
14509SOL    HW250386   1.859  10.434   5.071  1.3031 -0.5740  0.1173
14510SOL     OW50387  11.699   9.588   4.180 -0.1723  0.0140 -0.4642
14510SOL    HW150388  11.689   9.675   4.143 -0.8250  0.4517  0.6868
14510SOL    HW250389  11.724   9.603   4.271  1.4953 -1.0245 -0.6997
14511SOL     OW50390   0.390   3.245   5.466 -0.3472  0.0404  0.2119
14511SOL    HW150391   0.366   3.260   5.557  0.1399  0.5452  0.2690
14511SOL    HW250392   0.473   3.292   5.455 -1.3350  1.6312 -0.9931
14512SOL     OW50393   2.315   4.546   2.294 -0.1068 -0.3213 -0.1637
14512SOL    HW150394   2.222   4.570   2.290  0.6066  2.6660 -0.9542
14512SOL    HW250395   2.344   4.576   2.380  0.5031  0.3610 -0.5987
14513SOL     OW50396   8.291   6.617   5.959  0.3162 -0.2053 -0.1676
14513SOL    HW150397   8.244   6.674   5.898 -0.6127  1.7780  2.2512
14513SOL    HW250398   8.321   6.675   6.028  1.8504 -2.2650  0.9975
14514SOL     OW50399   8.865  11.934   5.653  0.0827 -0.4647  0.0279
14514SOL    HW150400   8.858  12.021   5.615  1.8444  0.5565  1.8731
14514SOL    HW250401   8.796  11.931   5.719 -1.9368 -1.6578 -1.9924
14515SOL     OW50402   8.140   2.482   9.498  0.6079 -0.1559  0.3245
14515SOL    HW150403   8.208   2.504   9.434  0.0956 -0.5854 -0.3853
14515SOL    HW250404   8.128   2.388   9.489  3.0507 -0.9342  3.6135
14516SOL     OW50405   1.309  11.893   2.191 -0.0954  0.3170 -0.1650
14516SOL    HW150406   1.237  11.882   2.253 -0.3842 -0.0080 -0.5512
14516SOL    HW250407   1.271  11.943   2.118  0.4695  1.4538  0.3000
14517SOL     OW50408   4.969   1.555  12.365  0.8335 -0.1425 -0.1947
14517SOL    HW150409   4.985   1.512  12.449 -1.1768 -0.2554  0.1890
14517SOL    HW250410   4.903   1.500  12.323  0.2477  1.0666 -0.9097
14518SOL     OW50411   1.902  12.211   8.662  0.2820 -0.2181 -0.0576
14518SOL    HW150412   1.858  12.229   8.579 -0.2661 -1.2209  0.0055
14518SOL    HW250413   1.986  12.171   8.636 -0.1272 -1.0525 -0.1341
14519SOL     OW50414  12.181   8.700   9.453 -0.4632  0.0074  0.2027
14519SOL    HW150415  12.225   8.704   9.538 -1.0600 -1.2593  0.5916
14519SOL    HW250416  12.113   8.633   9.464 -0.3212 -0.4311 -1.3755
14520SOL     OW50417   7.209  12.029   8.496  0.3313  0.1699 -0.1026
14520SOL    HW150418   7.257  12.044   8.414 -1.1421 -0.1484 -1.0709
14520SOL    HW250419   7.117  12.028   8.469 -0.3320  1.9093  1.8563
14521SOL     OW50420  11.856   3.376   0.702  0.1364 -0.1643  0.3760
14521SOL    HW150421  11.867   3.440   0.633 -0.3796 -1.6856 -1.1775
14521SOL    HW250422  11.823   3.427   0.777 -0.2691  1.3614 -0.7936
14522SOL     OW50423   0.638   5.305   3.275 -0.6657 -0.4133  0.8137
14522SOL    HW150424   0.583   5.379   3.251  0.5691  0.6864  1.2487
14522SOL    HW250425   0.673   5.272   3.192 -2.5632 -1.6582  0.4454
14523SOL     OW50426   5.867   2.818   4.129 -0.0144 -0.7086  0.0275
14523SOL    HW150427   5.821   2.810   4.045  0.0281  1.0415 -0.1918
14523SOL    HW250428   5.956   2.790   4.110 -0.2815 -1.4051 -0.2332
14524SOL     OW50429   2.211   3.796   7.756  0.9025 -0.1606  0.0956
14524SOL    HW150430   2.149   3.834   7.694  1.7691  0.3663 -0.4739
14524SOL    HW250431   2.171   3.811   7.842 -0.4713 -1.1975 -0.3268
14525SOL     OW50432   1.335   4.033   4.190 -0.2521  0.2193  0.0233
14525SOL    HW150433   1.404   4.025   4.125 -1.8040 -0.4627 -1.6014
14525SOL    HW250434   1.367   3.983   4.265  0.9600 -0.1557 -0.7165
14526SOL     OW50435   4.707   8.840   2.907 -0.1634  0.1136  0.3670
14526SOL    HW150436   4.732   8.932   2.912 -0.3201  0.1686  0.1302
14526SOL    HW250437   4.616   8.838   2.938 -0.0716  0.0009  0.6339
14527SOL     OW50438  11.144   4.570   3.847 -0.1822 -0.3352  0.0804
14527SOL    HW150439  11.199   4.592   3.922 -0.9071 -0.5329  0.6848
14527SOL    HW250440  11.096   4.651   3.828 -1.1491 -0.6980  0.8434
14528SOL     OW50441   4.933   5.545   2.696  0.3540  0.1288  0.5663
14528SOL    HW150442   4.969   5.591   2.621 -0.0154 -1.1716 -0.4479
14528SOL    HW250443   4.843   5.577   2.703  0.7557  1.1696  1.2585
14529SOL     OW50444  10.358   7.150   1.255  0.0856 -0.1030 -0.0343
14529SOL    HW150445  10.306   7.069   1.252 -0.2071  0.0173  1.3555
14529SOL    HW250446  10.303   7.212   1.302  1.0792  0.3436  0.5595
14530SOL     OW50447   3.411   7.903   1.595 -0.0240 -0.2140 -0.2762
14530SOL    HW150448   3.437   7.984   1.552  1.1403 -0.6488 -0.4207
14530SOL    HW250449   3.492   7.867   1.630 -0.5823 -1.1369  0.1080
14531SOL     OW50450   9.157   3.475  12.156 -0.7230 -0.3015 -0.7609
14531SOL    HW150451   9.089   3.468  12.088 -0.2670 -1.0380 -1.1553
14531SOL    HW250452   9.212   3.398  12.142  1.5778  1.4363 -1.9839
14532SOL     OW50453   1.609   4.052   1.740  0.0641 -0.5014 -0.4597
14532SOL    HW150454   1.640   4.143   1.740 -0.6785 -0.2082  1.7065
14532SOL    HW250455   1.676   4.004   1.692  2.7625  0.4825  2.0402
14533SOL     OW50456   3.715   9.703  11.932  0.6196 -0.5526  0.0145
14533SOL    HW150457   3.677   9.790  11.936 -1.0410 -1.1685 -1.2260
14533SOL    HW250458   3.652   9.647  11.978  0.3016 -1.4977 -1.5157
14534SOL     OW50459   6.864  11.666  11.638  0.1511 -0.3452  0.0924
14534SOL    HW150460   6.849  11.676  11.732  0.8539  0.8246  0.1057
14534SOL    HW250461   6.931  11.731  11.618  0.7680 -1.3000 -1.0335
14535SOL     OW50462   6.244   9.033   4.287  0.3654  0.2939 -0.0163
14535SOL    HW150463   6.281   9.107   4.334  2.2362 -0.2174 -0.5627
14535SOL    HW250464   6.248   9.058   4.195 -0.6761  0.2090 -0.0959
14536SOL     OW50465   7.770  10.997   8.118  0.4508  0.4985  0.2627
14536SOL    HW150466   7.760  10.946   8.037  0.3575  0.7942  0.0867
14536SOL    HW250467   7.760  11.088   8.090  0.3355  0.5970  0.6221
14537SOL     OW50468   2.525   3.359   5.621 -0.2573  0.0100  0.1749
14537SOL    HW150469   2.479   3.382   5.540  2.0235 -1.1311 -1.5848
14537SOL    HW250470   2.574   3.438   5.644  0.8381 -0.3156 -0.9123
14538SOL     OW50471   2.268   1.149   3.645  0.2820 -0.1329  0.5775
14538SOL    HW150472   2.357   1.174   3.671 -0.3528  0.1941  2.6088
14538SOL    HW250473   2.271   1.054   3.640  1.3403 -0.0571 -1.9164
14539SOL     OW50474   7.017   0.544   7.059  0.0170  0.2284 -0.2194
14539SOL    HW150475   7.055   0.557   6.972  1.8115  0.8413  0.6081
14539SOL    HW250476   7.035   0.626   7.105 -0.6009 -0.2209  0.8387
14540SOL     OW50477   4.045  12.388   5.849 -0.0359 -0.2425  1.1949
14540SOL    HW150478   3.969  12.444   5.866  0.8239  1.0090  1.0156
14540SOL    HW250479   4.111  12.447   5.813  0.6657 -1.5125  0.3446
14541SOL     OW50480   7.211  10.124   7.053  0.0813 -0.3303  0.1082
14541SOL    HW150481   7.184  10.173   6.976 -0.2473  1.4709  1.3052
14541SOL    HW250482   7.142  10.058   7.065  0.4681 -1.0707 -1.4605
14542SOL     OW50483   5.487   7.327   2.040  0.5097 -0.3107  0.2643
14542SOL    HW150484   5.444   7.408   2.014  0.7159 -0.1689  0.3658
14542SOL    HW250485   5.415   7.265   2.054  0.2972  0.0895  1.0071
14543SOL     OW50486   1.251  10.795  10.376  0.0337 -0.0165  0.7543
14543SOL    HW150487   1.229  10.702  10.371  1.4949 -0.3942  0.8822
14543SOL    HW250488   1.327  10.805  10.320 -1.0226  1.4461 -0.5251
14544SOL     OW50489  10.507   6.423   7.922  0.1426 -0.3587  0.0825
14544SOL    HW150490  10.568   6.447   7.852  1.0595 -1.1490  0.5850
14544SOL    HW250491  10.561   6.379   7.988 -0.9287 -0.8842  0.6510
14545SOL     OW50492   7.742   2.923  12.349 -0.3383  0.2406  0.6718
14545SOL    HW150493   7.833   2.897  12.335 -0.3543  0.6676 -0.3422
14545SOL    HW250494   7.692   2.843  12.336 -0.3250  0.5374 -1.6416
14546SOL     OW50495   9.291   5.803  12.069  0.0502 -0.1816 -0.3951
14546SOL    HW150496   9.361   5.823  12.006 -0.2814  2.4514 -0.0240
14546SOL    HW250497   9.213   5.792  12.015  0.1989 -0.2447 -0.5982
14547SOL     OW50498   5.506   8.087   9.287 -0.2301  0.3162 -0.0858
14547SOL    HW150499   5.459   8.170   9.286 -0.9027 -0.0463 -1.0935
14547SOL    HW250500   5.462   8.035   9.355 -0.2965  0.5291  0.0327
14548SOL     OW50501   4.779   5.029   2.991  0.0038 -0.5525 -0.0877
14548SOL    HW150502   4.872   5.031   2.968  1.4314  3.6546  4.2267
14548SOL    HW250503   4.746   5.115   2.963 -1.4034 -0.3076  2.1108
14549SOL     OW50504  11.914   7.743   2.984  0.8252 -0.2328  0.1990
14549SOL    HW150505  11.960   7.704   3.059 -0.0854 -2.4031 -0.2806
14549SOL    HW250506  11.822   7.723   2.999  0.4721  0.5658 -0.8013
14550SOL     OW50507  12.421   4.977  11.346  0.0341  0.1559  0.0554
14550SOL    HW150508  12.484   5.049  11.342  0.7938 -0.5623 -1.6379
14550SOL    HW250509  12.453   4.922  11.418  0.8309  0.2675 -0.2026
14551SOL     OW50510  10.898  11.474   3.561  0.5256 -0.2595  0.3947
14551SOL    HW150511  10.805  11.474   3.538  0.5655 -3.5950 -0.2968
14551SOL    HW250512  10.942  11.449   3.480  1.7950 -0.8645  1.2431
14552SOL     OW50513   9.441  11.180   9.662 -0.4187 -0.6559 -0.1045
14552SOL    HW150514   9.471  11.116   9.727 -0.9228 -0.4529  0.3437
14552SOL    HW250515   9.479  11.263   9.691 -2.5757 -0.0975  1.3613
14553SOL     OW50516   8.531   7.826   2.217  0.0367 -0.1113  0.3125
14553SOL    HW150517   8.600   7.794   2.275  0.9174  1.2968  0.0859
14553SOL    HW250518   8.453   7.778   2.245  0.5872  0.0180  2.2067
14554SOL     OW50519   2.384  12.566   0.947  0.1418 -0.3200 -0.3677
14554SOL    HW150520   2.350  12.592   0.861  0.7797 -1.6870 -1.0599
14554SOL    HW250521   2.466  12.520   0.928  1.9714  2.0375  1.1802
14555SOL     OW50522   0.925   4.084   6.905 -0.0854 -0.0975 -0.2142
14555SOL    HW150523   0.977   4.011   6.872  0.1953 -1.3457  2.6378
14555SOL    HW250524   0.835   4.052   6.904  0.0283 -0.5081  0.9646
14556SOL     OW50525   7.312   0.022  12.535  0.1452 -0.5852  0.6923
14556SOL    HW150526   7.287   0.041  12.444  1.4143  1.3054  0.6827
14556SOL    HW250527   7.320  -0.073  12.538 -0.6120 -0.7436 -0.9857
14557SOL     OW50528   3.561   7.897  12.276 -0.3369  0.1916 -0.3937
14557SOL    HW150529   3.631   7.927  12.217 -0.3801 -0.1627 -0.6333
14557SOL    HW250530   3.592   7.812  12.308 -0.1373  0.5635  0.4067
14558SOL     OW50531   7.918   9.094  10.142  0.2800 -0.9263 -0.1857
14558SOL    HW150532   7.986   9.102  10.209  0.5048 -2.6006 -0.1727
14558SOL    HW250533   7.900   9.184  10.116 -0.4763 -0.1334  2.7533
14559SOL     OW50534  12.269   2.967   9.702  0.3843  0.7570 -0.0574
14559SOL    HW150535  12.180   2.948   9.674  0.4269 -1.4461  1.0303
14559SOL    HW250536  12.260   3.001   9.791  0.6098  0.2351  0.1739
14560SOL     OW50537   5.562  10.207  11.548 -0.0065  0.6987  0.0287
14560SOL    HW150538   5.615  10.210  11.468  1.8702  1.0449  1.2333
14560SOL    HW250539   5.574  10.292  11.589 -2.3426  1.1665 -0.1217
14561SOL     OW50540   8.954   5.669   8.774 -0.3527  0.0027 -0.5047
14561SOL    HW150541   8.934   5.754   8.735  1.2674 -0.2439 -1.9973
14561SOL    HW250542   9.050   5.667   8.777 -0.3458 -1.9730 -0.9989
14562SOL     OW50543  12.208  10.130   3.671 -0.5898  0.0064  0.3250
14562SOL    HW150544  12.171  10.197   3.729 -1.1110 -0.3957  0.4608
14562SOL    HW250545  12.296  10.115   3.707 -0.6680  0.2315  0.6195
14563SOL     OW50546   9.131   6.380  10.624 -0.4324 -0.2259  0.0921
14563SOL    HW150547   9.059   6.402  10.564 -0.9305  0.0378  0.7731
14563SOL    HW250548   9.184   6.460  10.628  0.0783 -0.5084 -0.6287
14564SOL     OW50549   6.766   2.595   7.951 -0.4838 -0.3720  0.4332
14564SOL    HW150550   6.719   2.634   7.878 -1.0889 -0.7592  0.6070
14564SOL    HW250551   6.736   2.643   8.028 -0.5781 -0.5966  0.5398
14565SOL     OW50552   0.711   9.319  11.908 -0.0292 -0.3176 -0.5939
14565SOL    HW150553   0.659   9.283  11.981  0.7366 -0.4899 -0.1207
14565SOL    HW250554   0.795   9.274  11.914  0.1898 -0.0251 -1.3397
14566SOL     OW50555  10.751  10.786   0.059  0.2077 -0.2059  0.6053
14566SOL    HW150556  10.792  10.748   0.137  1.4970 -0.3451 -0.1273
14566SOL    HW250557  10.821  10.793  -0.005 -0.7649  0.2082 -0.4550
14567SOL     OW50558   8.186   7.871  10.051 -0.2070 -0.1049  0.2302
14567SOL    HW150559   8.272   7.828  10.048  0.4783  1.2063 -0.0682
14567SOL    HW250560   8.202   7.953  10.097 -1.3593  0.0606  0.3623
14568SOL     OW50561   5.548   8.183  12.400  0.1588 -0.2434  0.4394
14568SOL    HW150562   5.593   8.170  12.316  1.2122 -0.2583  0.9926
14568SOL    HW250563   5.610   8.232  12.453 -1.1545  1.2498  0.6630
14569SOL     OW50564   5.208   2.161   5.224 -0.0547  0.4422  0.1362
14569SOL    HW150565   5.199   2.082   5.170 -0.4727 -0.4524  1.4489
14569SOL    HW250566   5.183   2.132   5.312 -1.6355  2.3955  0.3924
14570SOL     OW50567  12.231   6.862   5.124  0.5376  0.1701 -0.0843
14570SOL    HW150568  12.267   6.826   5.043 -0.3084 -0.5722 -0.1482
14570SOL    HW250569  12.283   6.821   5.193 -0.5333 -1.4147 -0.1442
14571SOL     OW50570   0.981  10.688   2.503  0.6504  0.2356 -0.2168
14571SOL    HW150571   0.959  10.745   2.429 -0.0333 -0.7911 -0.8347
14571SOL    HW250572   1.059  10.727   2.541  0.6977  1.0929 -1.1515
14572SOL     OW50573   1.174   9.093   9.139 -0.0437  0.0472 -0.1632
14572SOL    HW150574   1.135   9.127   9.059 -2.6267  1.4242  1.5541
14572SOL    HW250575   1.118   9.019   9.164  0.5156 -0.1455  0.5708
14573SOL     OW50576   7.750   0.304   4.068  0.2609 -0.6866 -0.2370
14573SOL    HW150577   7.828   0.250   4.054  1.5066  0.4029  1.9471
14573SOL    HW250578   7.784   0.393   4.071 -1.5397  0.1361 -2.1432
14574SOL     OW50579   9.644   5.214  11.483 -0.3435  0.0460  0.2026
14574SOL    HW150580   9.704   5.281  11.449  0.5493  0.2350  1.9663
14574SOL    HW250581   9.646   5.144  11.418 -0.3737  1.2125 -1.1088
14575SOL     OW50582   9.068   1.193  10.213  0.5347  0.7376  0.1050
14575SOL    HW150583   9.013   1.262  10.176  0.4417  0.6211  0.0271
14575SOL    HW250584   9.123   1.238  10.277 -2.5960  0.2989  3.4776
14576SOL     OW50585   6.613   0.690   2.349 -0.1082 -0.1676 -0.2701
14576SOL    HW150586   6.539   0.733   2.392  0.7068  0.9731  0.0147
14576SOL    HW250587   6.691   0.729   2.388  0.6757  0.4464 -2.2969
14577SOL     OW50588   0.154   4.591   6.375 -0.4314 -0.2333 -0.1726
14577SOL    HW150589   0.232   4.552   6.336 -0.7091 -0.5364 -0.4255
14577SOL    HW250590   0.122   4.653   6.309 -1.0059 -0.8795 -0.5101
14578SOL     OW50591   8.984   3.997   6.135 -0.5651 -0.2557 -0.0721
14578SOL    HW150592   9.039   4.070   6.104  0.9306 -1.0788  0.5294
14578SOL    HW250593   8.968   3.945   6.057 -0.1394 -0.2254 -0.1830
14579SOL     OW50594   7.440   5.689   8.977 -0.0995  0.2746 -0.0992
14579SOL    HW150595   7.463   5.642   8.897  0.4833 -2.4007  1.5391
14579SOL    HW250596   7.347   5.670   8.990 -0.0130  0.0882  0.2477
14580SOL     OW50597   1.534   5.940   2.778  0.0863 -0.1213  0.1602
14580SOL    HW150598   1.533   6.033   2.801  0.3200 -0.4582  1.6099
14580SOL    HW250599   1.601   5.934   2.710  1.7440  0.4392  1.6632
14581SOL     OW50600   3.323  11.522  10.195  0.0662  0.0888 -0.6167
14581SOL    HW150601   3.364  11.596  10.240 -0.1470 -0.7152  0.9719
14581SOL    HW250602   3.237  11.555  10.168  0.1877  0.5781 -0.4203
14582SOL     OW50603   8.104   6.271   6.139 -0.2403  0.0372  0.6099
14582SOL    HW150604   8.194   6.303   6.147  0.2694 -1.5243  1.4244
14582SOL    HW250605   8.077   6.296   6.051  0.6550  1.3290  0.6761
14583SOL     OW50606   4.064   8.142   0.771  0.0271  0.5781 -0.4686
14583SOL    HW150607   4.070   8.050   0.744 -0.8076  0.8968 -1.8315
14583SOL    HW250608   4.112   8.190   0.704 -0.2050  1.2055 -0.1923
14584SOL     OW50609   5.570  11.153   4.747  0.3071  0.4180  0.0708
14584SOL    HW150610   5.598  11.129   4.659 -0.7029 -0.0777 -0.1252
14584SOL    HW250611   5.505  11.087   4.771  0.4199  0.6626  1.1086
14585SOL     OW50612   3.193   3.238  12.454  0.1136 -0.1863 -0.2332
14585SOL    HW150613   3.129   3.171  12.431 -1.8777  1.5435 -0.0243
14585SOL    HW250614   3.241   3.254  12.373 -0.2415 -0.9589 -0.6049
14586SOL     OW50615   3.492   1.644  12.351  0.9189  0.1414 -0.1802
14586SOL    HW150616   3.495   1.649  12.255 -0.4724  0.5479 -0.2220
14586SOL    HW250617   3.402   1.666  12.373  0.3486 -2.9020  1.0466
14587SOL     OW50618   8.195   6.180  12.113 -0.1546  0.5951  0.0567
14587SOL    HW150619   8.235   6.203  12.030 -1.9475 -0.9031 -1.3100
14587SOL    HW250620   8.175   6.264  12.154  0.8346  1.3576 -0.9689
14588SOL     OW50621   1.407   5.836   5.150 -0.2281 -0.0350  0.1045
14588SOL    HW150622   1.394   5.747   5.117 -3.7448  0.6057 -0.7024
14588SOL    HW250623   1.420   5.889   5.072  1.0377  0.2918  0.5233
14589SOL     OW50624   0.930   9.683   2.160 -0.2105  0.3923  0.2038
14589SOL    HW150625   0.842   9.707   2.187 -0.2064 -0.4617  1.0141
14589SOL    HW250626   0.918   9.644   2.073 -0.7268 -0.3057  0.5770
14590SOL     OW50627  10.198   3.115   7.804  0.0467  0.4301 -0.4871
14590SOL    HW150628  10.161   3.201   7.783  1.2381  1.3314  0.8636
14590SOL    HW250629  10.248   3.130   7.884 -0.5490 -1.7691  0.3817
14591SOL     OW50630   1.315  11.206   2.582 -0.4952 -0.0260  0.1465
14591SOL    HW150631   1.395  11.223   2.631  0.6479 -0.0466 -1.6227
14591SOL    HW250632   1.341  11.215   2.490 -2.8735  1.5401 -0.4686
14592SOL     OW50633   1.886   2.838  10.754  0.1407 -0.0530  0.0717
14592SOL    HW150634   1.874   2.931  10.735  0.2766 -0.1617 -0.5868
14592SOL    HW250635   1.899   2.797  10.668  1.4939 -0.4847  0.4511
14593SOL     OW50636  11.917   5.598   4.433 -0.0437 -0.7103 -0.2928
14593SOL    HW150637  11.951   5.579   4.346 -1.0751 -0.2995 -0.7994
14593SOL    HW250638  11.905   5.693   4.435  1.1548 -0.5520  0.7557
14594SOL     OW50639   8.626   8.072   9.155  0.1077  0.3189 -1.1897
14594SOL    HW150640   8.554   8.130   9.179 -0.2478 -0.4881 -0.2551
14594SOL    HW250641   8.605   8.045   9.065 -1.7142 -1.2702 -0.3558
14595SOL     OW50642   6.110   9.208   0.562  0.5014 -0.3352 -0.4091
14595SOL    HW150643   6.045   9.237   0.498 -1.2788  0.0503  1.4497
14595SOL    HW250644   6.194   9.216   0.517 -0.5688  0.9189 -2.3121
14596SOL     OW50645   1.225   9.675   3.239  0.2258  0.6447 -0.2595
14596SOL    HW150646   1.205   9.768   3.251  1.6614  0.9379  0.1534
14596SOL    HW250647   1.172   9.630   3.304 -0.1621  1.2269 -0.1677
14597SOL     OW50648   0.127  12.096   9.511  0.2187  0.3316 -0.2775
14597SOL    HW150649   0.056  12.078   9.572  0.1098  2.1141  0.1708
14597SOL    HW250650   0.192  12.028   9.529 -0.6631 -0.3473  0.4264
14598SOL     OW50651   3.160   7.413  11.839  0.0169  0.3556  0.1153
14598SOL    HW150652   3.204   7.489  11.800 -0.6283 -0.2375 -1.8768
14598SOL    HW250653   3.224   7.343  11.833  0.0716  0.3711  0.5356
14599SOL     OW50654  12.293  12.025   8.793 -0.5281 -0.3077 -0.0325
14599SOL    HW150655  12.307  11.960   8.861 -0.4655  0.1172  0.3660
14599SOL    HW250656  12.380  12.043   8.757 -0.3035  0.7715  0.9960
14600SOL     OW50657   8.975  11.459   3.382 -0.6391 -0.1928  0.1088
14600SOL    HW150658   9.003  11.394   3.446  0.8125  0.1410 -0.1408
14600SOL    HW250659   9.036  11.448   3.309  0.1371  1.8911  0.3557
14601SOL     OW50660  11.794   8.585  12.305  0.6198 -0.4388 -0.3369
14601SOL    HW150661  11.833   8.662  12.346 -1.7064 -0.7457  2.8522
14601SOL    HW250662  11.853   8.513  12.329  0.5308 -0.2575  0.4543
14602SOL     OW50663   5.444  12.155   8.393 -0.6150 -0.6836 -0.1380
14602SOL    HW150664   5.520  12.213   8.381 -1.4102  0.8744  1.7363
14602SOL    HW250665   5.439  12.142   8.487 -1.6392 -2.2497 -0.3788
14603SOL     OW50666   9.276   3.027   2.506 -0.0701 -0.9306  0.3886
14603SOL    HW150667   9.347   2.988   2.557  0.1777  0.7672  1.4005
14603SOL    HW250668   9.321   3.078   2.438 -0.2413  1.0057  1.6730
14604SOL     OW50669   6.180   5.848   1.822  0.2277  0.1235 -0.2308
14604SOL    HW150670   6.177   5.895   1.739 -1.2430 -1.2657 -1.0289
14604SOL    HW250671   6.250   5.784   1.810 -1.8319 -2.0607 -1.6469
14605SOL     OW50672   1.952   1.225   0.643 -0.8031 -0.4690  0.1669
14605SOL    HW150673   2.038   1.254   0.614 -0.3140 -0.0141  1.9583
14605SOL    HW250674   1.957   1.130   0.645 -0.1875 -0.4249  0.7150
14606SOL     OW50675   7.167   3.424  10.115 -0.1763  0.7902 -0.1387
14606SOL    HW150676   7.223   3.484  10.065  0.5381  0.8002  0.6499
14606SOL    HW250677   7.125   3.369  10.048  1.8126 -0.1267 -0.7334
14607SOL     OW50678   4.719   7.801   4.267  1.0464  0.0374  0.4296
14607SOL    HW150679   4.643   7.754   4.302  0.3559 -1.1455 -2.4457
14607SOL    HW250680   4.789   7.736   4.266  1.4687  0.4723  0.8572
14608SOL     OW50681   1.132   2.775   4.712 -0.2117 -0.5103 -0.0283
14608SOL    HW150682   1.066   2.752   4.778  0.8872  0.8645  1.6616
14608SOL    HW250683   1.196   2.704   4.716 -0.1648 -0.4495  0.4099
14609SOL     OW50684  10.556   6.152   4.723 -0.5440  0.0242  0.4443
14609SOL    HW150685  10.510   6.222   4.770  0.2204  0.4785  0.5485
14609SOL    HW250686  10.557   6.078   4.784 -0.7113  0.1768  0.6323
14610SOL     OW50687   4.412   9.355   1.685  0.2131  0.2542  0.0460
14610SOL    HW150688   4.454   9.275   1.714  0.7121  1.1854  2.0253
14610SOL    HW250689   4.432   9.420   1.752 -1.7263  1.5785 -0.5376
14611SOL     OW50690   2.717   3.693   4.237  0.5545 -0.7508  0.1995
14611SOL    HW150691   2.698   3.779   4.198  0.6049 -0.5796  0.5476
14611SOL    HW250692   2.685   3.630   4.172  1.6697 -0.4820 -0.6401
14612SOL     OW50693   9.787   3.361   7.177  0.0963  0.3456  0.5318
14612SOL    HW150694   9.760   3.450   7.199  0.6777  0.1985  1.8987
14612SOL    HW250695   9.818   3.367   7.086 -0.0114  1.4934  0.5649
14613SOL     OW50696   0.271   0.628   1.320 -0.2922  0.4409 -0.3577
14613SOL    HW150697   0.271   0.654   1.413 -1.4029 -0.3895 -0.1059
14613SOL    HW250698   0.181   0.599   1.304  0.4935 -1.7686 -1.0211
14614SOL     OW50699   5.895   5.115   0.257  0.1440 -0.0549 -0.2394
14614SOL    HW150700   5.874   5.190   0.202 -3.2742  1.1629  2.3480
14614SOL    HW250701   5.810   5.078   0.280  1.6058 -2.9665  0.9583
14615SOL     OW50702   4.544   8.819   0.514 -0.0115 -0.5925 -0.2680
14615SOL    HW150703   4.470   8.769   0.481 -0.4951  1.1040 -1.9249
14615SOL    HW250704   4.599   8.835   0.438  1.7593 -1.2536  0.8120
14616SOL     OW50705   4.478   0.397   1.287 -0.1429  0.2854 -0.2881
14616SOL    HW150706   4.514   0.323   1.336 -0.8647  1.3353  1.9462
14616SOL    HW250707   4.555   0.445   1.256  0.3415 -0.2197  0.1009
14617SOL     OW50708   4.973  10.740   3.245  0.5398  0.2900  0.1863
14617SOL    HW150709   4.988  10.683   3.169  0.4617 -2.5528  2.1408
14617SOL    HW250710   4.883  10.720   3.271  0.7285  0.8363  1.2999
14618SOL     OW50711   3.569   8.998  11.409  0.5744 -0.0466 -0.7142
14618SOL    HW150712   3.656   8.959  11.406  1.2743  0.9819  2.4212
14618SOL    HW250713   3.536   8.976  11.496 -0.5201  3.0768 -0.2071
14619SOL     OW50714   3.948   2.046  11.985  0.2098  0.3194 -0.0361
14619SOL    HW150715   3.906   2.037  11.900  0.5981 -3.8962  0.0026
14619SOL    HW250716   4.037   2.012  11.972  0.9934  1.5907  1.6170
14620SOL     OW50717   9.190  10.007   3.910  0.3245 -0.0904  0.1088
14620SOL    HW150718   9.095  10.009   3.898  0.3493  0.1480 -0.0441
14620SOL    HW250719   9.216   9.919   3.883  0.0504 -0.4057  0.8522
14621SOL     OW50720   4.014   4.421   9.612  0.3578 -0.6416  0.0496
14621SOL    HW150721   4.095   4.379   9.642  0.2000 -0.8237  0.2242
14621SOL    HW250722   3.982   4.364   9.542 -0.1491 -1.1198  0.6590
14622SOL     OW50723   7.614   3.024   7.721 -0.1969 -0.0687 -0.1747
14622SOL    HW150724   7.688   2.977   7.758 -0.5041  0.1469  0.7363
14622SOL    HW250725   7.588   2.972   7.645  0.4295 -0.5262 -0.0819
14623SOL     OW50726   9.355   5.996   3.016  0.2106  0.2545  0.3750
14623SOL    HW150727   9.395   6.077   2.984  0.7320 -0.7876 -1.7922
14623SOL    HW250728   9.272   6.024   3.054  1.4309  2.0583  1.8993
14624SOL     OW50729   7.811   5.396   4.233  0.4391  0.2781  0.2463
14624SOL    HW150730   7.875   5.420   4.301  2.8379 -1.0181 -1.4063
14624SOL    HW250731   7.840   5.442   4.155 -1.0057  0.0558 -0.4558
14625SOL     OW50732  11.964   8.857   3.774  0.3541 -0.0671  0.1817
14625SOL    HW150733  12.037   8.892   3.825  0.3786  0.2278 -0.0575
14625SOL    HW250734  11.886   8.879   3.825  0.5229 -1.8099  1.2783
14626SOL     OW50735   6.097   1.789   7.359  0.4307 -0.1354 -0.3053
14626SOL    HW150736   6.034   1.789   7.432 -0.5116 -0.4620 -1.1013
14626SOL    HW250737   6.177   1.826   7.397 -0.9197  2.5634  0.1560
14627SOL     OW50738   2.681  11.603  10.713 -0.2791 -0.3319 -0.2448
14627SOL    HW150739   2.683  11.656  10.792 -0.8283  0.4238 -0.7205
14627SOL    HW250740   2.590  11.574  10.705 -0.0199 -1.2203 -0.0795
14628SOL     OW50741   5.173   5.482   4.364  0.0649  0.1100  0.0172
14628SOL    HW150742   5.151   5.469   4.456  1.8272  1.7092  0.7423
14628SOL    HW250743   5.151   5.399   4.321  0.8331 -1.3141  2.2109
14629SOL     OW50744   5.022   8.886   1.044  0.3294  0.5529 -0.2702
14629SOL    HW150745   5.088   8.897   0.976  0.0449  1.5839 -0.3915
14629SOL    HW250746   4.950   8.943   1.018 -1.7337 -2.3266 -1.4459
14630SOL     OW50747   1.047  11.469   9.257  0.4812  0.2114 -0.3405
14630SOL    HW150748   1.056  11.485   9.163 -1.3412  1.1708 -0.4066
14630SOL    HW250749   0.984  11.397   9.264  0.6182  0.1325  0.1435
14631SOL     OW50750  10.620   3.483  10.558  0.2405  0.1766  0.7070
14631SOL    HW150751  10.692   3.534  10.594 -0.1029  1.9161 -0.9452
14631SOL    HW250752  10.585   3.536  10.487 -1.1738 -1.6744 -0.0748
14632SOL     OW50753  10.965   7.724   3.650 -0.3563  0.1567  0.4299
14632SOL    HW150754  10.912   7.796   3.686 -0.0513  1.0108 -0.7788
14632SOL    HW250755  10.902   7.655   3.631 -0.9557  0.8979 -0.3358
14633SOL     OW50756   3.244   8.834   6.738 -0.2692 -0.5021 -0.5337
14633SOL    HW150757   3.285   8.896   6.677 -0.4949  2.1032  1.7581
14633SOL    HW250758   3.152   8.859   6.739 -0.2277 -0.2666  0.9966
14634SOL     OW50759   8.065   0.404   8.051  0.0807  0.3415 -0.1441
14634SOL    HW150760   8.027   0.447   7.973  0.0902  0.6579  0.0227
14634SOL    HW250761   8.153   0.378   8.023  0.6667  1.8155  0.2069
14635SOL     OW50762   8.733   7.017   4.711  0.4634  0.3509  0.2673
14635SOL    HW150763   8.774   6.942   4.668 -2.5873 -0.6388 -1.1693
14635SOL    HW250764   8.806   7.066   4.748  2.7624 -2.0537 -0.7779
14636SOL     OW50765   6.821  11.599   1.151 -0.2472  0.1434  0.1555
14636SOL    HW150766   6.814  11.570   1.242  1.5083 -1.5012 -0.1668
14636SOL    HW250767   6.914  11.624   1.142 -1.0761  3.5844 -0.3139
14637SOL     OW50768   1.219   8.426   3.894  0.1584 -0.0132 -0.2542
14637SOL    HW150769   1.258   8.461   3.814  0.0092 -1.2671 -0.9112
14637SOL    HW250770   1.197   8.335   3.871 -1.5411  0.1432  0.6403
14638SOL     OW50771   9.258   6.971   6.194  0.2199 -0.1979 -0.7840
14638SOL    HW150772   9.305   7.000   6.116 -0.0338 -1.8151 -1.5746
14638SOL    HW250773   9.193   7.040   6.210  1.1751  0.8159 -1.1779
14639SOL     OW50774   1.730   6.868   0.969  0.0875 -0.3344 -0.2491
14639SOL    HW150775   1.644   6.881   0.928 -0.1191 -0.9620 -0.0221
14639SOL    HW250776   1.791   6.910   0.909 -0.4626  0.8633 -0.0013
14640SOL     OW50777   2.372   3.354  11.384 -0.3460 -0.5513  0.3710
14640SOL    HW150778   2.332   3.316  11.307 -1.1497 -0.4939  0.7461
14640SOL    HW250779   2.300   3.366  11.446  0.2978 -0.7343  1.1886
14641SOL     OW50780   0.427   2.744   3.648  0.0737 -0.3848  0.4424
14641SOL    HW150781   0.474   2.797   3.584  1.1312 -0.6235  1.0059
14641SOL    HW250782   0.354   2.706   3.599  0.2096  0.3292 -0.3390
14642SOL     OW50783   9.103   9.364   1.316  0.6808  0.0505 -0.2328
14642SOL    HW150784   9.112   9.270   1.331  1.4607  0.4144  2.0441
14642SOL    HW250785   9.053   9.371   1.235 -0.6504 -2.3459  0.2758
14643SOL     OW50786   9.550   2.216   0.956 -0.2570 -0.4249  0.1550
14643SOL    HW150787   9.623   2.206   0.895 -0.3800 -1.6815  0.1841
14643SOL    HW250788   9.472   2.209   0.901 -0.3753  0.5810  0.1717
14644SOL     OW50789  12.322   5.471   6.958 -0.0649  0.3627  0.4545
14644SOL    HW150790  12.226   5.470   6.963 -0.0052  0.5726  2.9939
14644SOL    HW250791  12.350   5.415   7.031  1.7605  1.0689  0.3436
14645SOL     OW50792  10.530  12.497   3.513 -0.8255  0.1622 -0.4345
14645SOL    HW150793  10.608  12.458   3.473 -1.4989 -0.1908 -1.4527
14645SOL    HW250794  10.489  12.546   3.442 -1.3552  0.6202  0.1818
14646SOL     OW50795   1.528   1.079  12.271  0.3971 -0.0603 -0.3811
14646SOL    HW150796   1.547   1.035  12.354 -0.5081  2.4248  1.2909
14646SOL    HW250797   1.462   1.023  12.229 -1.7220  0.2403  2.2602
14647SOL     OW50798   0.042   8.617  10.606 -0.7287 -0.3524 -0.0729
14647SOL    HW150799   0.046   8.703  10.647  0.8482 -1.0468  1.3435
14647SOL    HW250800   0.001   8.561  10.672 -0.6229 -0.9443 -0.5032
14648SOL     OW50801   2.011   6.465   4.853  0.6957  0.0507 -0.0932
14648SOL    HW150802   1.929   6.505   4.882  1.7701  1.4647  1.1174
14648SOL    HW250803   2.044   6.524   4.785  1.9016  0.8410  1.1430
14649SOL     OW50804  11.025   5.378   0.043 -0.6327 -0.2749 -0.0768
14649SOL    HW150805  11.033   5.285   0.064  0.2178 -0.2926 -0.4261
14649SOL    HW250806  10.943   5.384  -0.006  0.1835 -1.1805 -1.6654
14650SOL     OW50807  11.307   9.612   0.038  0.2480  0.4564 -0.1128
14650SOL    HW150808  11.337   9.532  -0.005 -2.9488 -1.1633  0.3078
14650SOL    HW250809  11.342   9.606   0.127 -0.8168 -1.1185  0.2490
14651SOL     OW50810   6.373   4.117  11.090  0.4088 -0.1630 -0.4139
14651SOL    HW150811   6.407   4.077  11.170  1.9331 -0.4431 -1.1586
14651SOL    HW250812   6.401   4.058  11.020 -1.7512 -0.4571 -1.1074
14652SOL     OW50813  10.387   7.680   2.141  0.2275 -0.0848 -0.8193
14652SOL    HW150814  10.427   7.761   2.109  0.2290 -0.4466 -1.7751
14652SOL    HW250815  10.448   7.611   2.114  0.8553 -0.3124  1.0892
14653SOL     OW50816  11.849   8.326   6.032 -0.5745 -0.0751  0.1255
14653SOL    HW150817  11.849   8.422   6.039 -0.0467  0.2816 -3.1959
14653SOL    HW250818  11.888   8.296   6.114 -2.5650  2.3868  2.1446
14654SOL     OW50819   9.308   5.199   8.469  0.2909  0.3305  0.1478
14654SOL    HW150820   9.266   5.116   8.491  4.4508 -2.1473 -0.1148
14654SOL    HW250821   9.301   5.252   8.548 -0.9929 -0.9496  0.9342
14655SOL     OW50822   5.162   4.245   1.361 -0.6175 -0.2095 -0.0054
14655SOL    HW150823   5.199   4.240   1.273 -0.3880  1.4885 -0.0242
14655SOL    HW250824   5.220   4.304   1.408 -1.9013  0.5324  0.6852
14656SOL     OW50825   2.721   5.737  10.376 -0.3476  0.1964  0.9763
14656SOL    HW150826   2.810   5.761  10.353 -0.1575 -1.8233 -0.6863
14656SOL    HW250827   2.723   5.723  10.470  0.9205  0.7502  1.0518
14657SOL     OW50828   3.830   6.322  12.543 -0.5238 -0.1338  0.6244
14657SOL    HW150829   3.809   6.286  12.457 -0.0847  0.3610  0.3047
14657SOL    HW250830   3.823   6.248  12.602  0.3306 -0.7420 -0.0168
14658SOL     OW50831   6.778   2.815   1.924  0.2149  0.4952  0.1576
14658SOL    HW150832   6.727   2.790   1.846 -0.7054  1.2084  0.5206
14658SOL    HW250833   6.846   2.747   1.930  0.1911  0.3215 -1.1535
14659SOL     OW50834  12.127   3.757   8.999 -0.2503 -0.6134 -0.0267
14659SOL    HW150835  12.176   3.839   9.006 -2.0596  0.7140 -1.8812
14659SOL    HW250836  12.037   3.781   9.023 -0.2575 -2.8204  2.5930
14660SOL     OW50837  11.060   2.886   7.594 -0.2377 -0.7415 -0.4627
14660SOL    HW150838  11.031   2.886   7.685 -1.0474  0.0369 -0.7051
14660SOL    HW250839  10.985   2.850   7.546 -0.7700  1.1102 -1.0841
14661SOL     OW50840  11.015   1.837   8.593  0.2743  0.4024  0.2593
14661SOL    HW150841  11.073   1.766   8.568 -0.2094  0.2991 -0.6105
14661SOL    HW250842  11.056   1.916   8.557 -0.5852  0.2155 -1.1965
14662SOL     OW50843   1.389   4.244   4.505 -0.1798  0.4585 -0.0559
14662SOL    HW150844   1.402   4.277   4.416  1.1600 -0.5370 -0.2545
14662SOL    HW250845   1.477   4.231   4.539 -0.6715  1.2033  1.5861
14663SOL     OW50846   8.544   2.176   3.878 -0.0879 -0.0598  0.4577
14663SOL    HW150847   8.509   2.098   3.835 -0.0001  0.5719 -0.8206
14663SOL    HW250848   8.579   2.229   3.806 -1.1797  1.6898  1.1583
14664SOL     OW50849   1.971   9.102   4.879  0.3385  0.7400 -0.0248
14664SOL    HW150850   1.923   9.048   4.941  2.1810  0.3047  1.0957
14664SOL    HW250851   1.947   9.192   4.901 -1.2641  0.5058 -0.6566
14665SOL     OW50852   0.334  10.256  10.657  0.2381 -0.2841  0.4390
14665SOL    HW150853   0.257  10.240  10.603  0.5970 -0.6950  0.0353
14665SOL    HW250854   0.392  10.308  10.601  0.8242 -1.1367  0.2221
14666SOL     OW50855   7.625   7.392   5.311 -0.3094 -0.0528  0.5851
14666SOL    HW150856   7.591   7.370   5.224  0.8576  0.4414 -0.0094
14666SOL    HW250857   7.592   7.480   5.328 -0.8116 -0.2755  0.8015
14667SOL     OW50858   3.938   1.102   7.909  0.1283 -0.0177  0.1921
14667SOL    HW150859   3.961   1.010   7.897 -1.8042 -0.4205 -0.8452
14667SOL    HW250860   3.950   1.118   8.003  2.6041 -0.6646  0.0483
14668SOL     OW50861  11.567   6.382   9.180 -0.5362 -0.3363 -0.4655
14668SOL    HW150862  11.531   6.436   9.110 -4.2482 -1.7494  0.1530
14668SOL    HW250863  11.564   6.437   9.258 -2.4452 -0.6995 -0.2339
14669SOL     OW50864   9.945   3.859   5.279  0.5079  0.2102 -0.7908
14669SOL    HW150865   9.942   3.952   5.255 -0.7573  0.5676  0.5755
14669SOL    HW250866  10.017   3.823   5.227  0.4569  1.7554 -2.0170
14670SOL     OW50867  10.359   9.286   6.732 -1.1159  0.1954 -0.6853
14670SOL    HW150868  10.338   9.374   6.700 -0.7834 -0.0369 -1.5704
14670SOL    HW250869  10.419   9.251   6.667 -0.8373 -0.4979 -0.0605
14671SOL     OW50870   5.374   8.932   8.039  0.2076  0.1706 -0.1412
14671SOL    HW150871   5.318   9.006   8.063  1.9643  1.4329  0.2422
14671SOL    HW250872   5.313   8.864   8.012 -1.4657  1.8860 -0.9255
14672SOL     OW50873   9.618   1.447  10.165  0.6860 -0.3108  0.0981
14672SOL    HW150874   9.596   1.440  10.072  1.3319  0.5114 -0.1246
14672SOL    HW250875   9.620   1.356  10.195 -2.5994 -0.4952  0.0798
14673SOL     OW50876  11.953   1.304   2.854 -0.1205 -0.0161 -0.0350
14673SOL    HW150877  11.866   1.299   2.894 -0.6511  3.6302 -0.3328
14673SOL    HW250878  12.010   1.336   2.924  0.3940  0.1025 -0.4940
14674SOL     OW50879   5.752  11.615   9.692 -0.3319 -0.7490  0.0479
14674SOL    HW150880   5.838  11.649   9.668 -0.7368  0.0400 -0.3092
14674SOL    HW250881   5.699  11.692   9.708 -0.9249 -1.2348  0.4680
14675SOL     OW50882  11.854   6.403   0.053  0.6525 -0.3725  0.5930
14675SOL    HW150883  11.809   6.323   0.026  1.3867 -0.2968 -0.9452
14675SOL    HW250884  11.858   6.396   0.149 -1.6352 -0.8771  0.7098
14676SOL     OW50885   9.157   5.641   5.847  0.1231  0.4941  0.2040
14676SOL    HW150886   9.146   5.548   5.830 -0.4435  0.7901 -1.2179
14676SOL    HW250887   9.068   5.677   5.840  0.3929  1.1929  0.2879
14677SOL     OW50888   4.285   3.897   7.392 -0.4235 -0.2654 -0.1313
14677SOL    HW150889   4.340   3.954   7.446  0.4560 -1.3192  0.0992
14677SOL    HW250890   4.294   3.810   7.431 -1.9567 -0.5361 -0.3266
14678SOL     OW50891   7.201   8.428   5.461 -0.3168 -0.0460  0.0275
14678SOL    HW150892   7.134   8.371   5.499  0.4538 -0.0326  1.4492
14678SOL    HW250893   7.174   8.437   5.369 -1.5291 -1.1001  0.2411
14679SOL     OW50894   2.818   6.082   0.419 -0.0041  0.8108 -0.8542
14679SOL    HW150895   2.858   6.169   0.418  1.0807  0.3724  0.6977
14679SOL    HW250896   2.774   6.078   0.504  2.6648 -1.2644  0.5761
14680SOL     OW50897   0.300   0.040  12.491 -0.2744  0.5722 -0.2472
14680SOL    HW150898   0.255   0.124  12.486  1.0389  1.3335  0.1856
14680SOL    HW250899   0.385   0.055  12.449  0.2593 -0.3285  0.4426
14681SOL     OW50900   7.809   1.434   9.649  0.0226 -0.3404 -0.5499
14681SOL    HW150901   7.768   1.380   9.715  0.2149 -2.7331 -2.2598
14681SOL    HW250902   7.902   1.410   9.653  0.1047 -0.1887 -1.3713
14682SOL     OW50903   5.692   9.722   1.830  0.7890  0.1742  0.0657
14682SOL    HW150904   5.771   9.776   1.828  0.8148  0.1127 -1.7332
14682SOL    HW250905   5.656   9.727   1.741  1.2289 -3.3968 -0.4698
14683SOL     OW50906   4.020   2.617   9.294 -0.0087 -0.3629  0.5057
14683SOL    HW150907   4.010   2.526   9.267  0.4972 -0.3508  0.2637
14683SOL    HW250908   3.997   2.668   9.216  1.5226 -0.3307  0.0387
14684SOL     OW50909   6.177   5.814  12.412 -0.5360  0.0442 -0.0232
14684SOL    HW150910   6.213   5.897  12.381 -0.8229  0.4995  0.8189
14684SOL    HW250911   6.082   5.828  12.411 -0.5816 -0.2440  0.1887
14685SOL     OW50912   4.323   5.228  10.887 -0.4360 -0.7638  0.1113
14685SOL    HW150913   4.340   5.302  10.946  0.0756 -1.6634  1.1192
14685SOL    HW250914   4.375   5.246  10.810  0.7852 -0.7487  0.9183
14686SOL     OW50915   6.527  11.338   3.979 -0.2460  0.0548  0.0108
14686SOL    HW150916   6.546  11.398   3.907 -0.8195  0.8085  0.4784
14686SOL    HW250917   6.595  11.271   3.973 -0.5729 -0.1757 -1.5476
14687SOL     OW50918   1.786   6.634   6.416  0.3389  0.1319  0.0389
14687SOL    HW150919   1.802   6.588   6.333 -0.8044 -0.3326  0.0560
14687SOL    HW250920   1.718   6.582   6.459 -1.2856  2.0288 -0.1033
14688SOL     OW50921  11.014   7.016   7.048 -0.0954 -0.6241  0.2124
14688SOL    HW150922  11.062   6.938   7.078  0.3706 -0.3749  0.1203
14688SOL    HW250923  11.078   7.065   6.996 -1.2144 -1.7267 -2.4387
14689SOL     OW50924   1.000   6.859   1.660 -0.0981  0.0678  0.1437
14689SOL    HW150925   0.952   6.788   1.619 -0.6084  0.0627  0.7380
14689SOL    HW250926   1.084   6.861   1.614  0.5740 -1.9874  1.1769
14690SOL     OW50927  12.470   1.922   4.225  0.4421  0.4485 -0.1815
14690SOL    HW150928  12.417   1.853   4.184 -0.4861  0.1519  1.4462
14690SOL    HW250929  12.533   1.947   4.157 -1.4518  0.4753 -2.0399
14691SOL     OW50930   8.664   6.047   9.338 -0.0279  0.0270  0.0005
14691SOL    HW150931   8.639   5.960   9.369 -0.4256 -0.0208 -0.4520
14691SOL    HW250932   8.740   6.070   9.391  1.1303 -1.3033 -1.0067
14692SOL     OW50933   7.861   4.356   9.341 -0.1911 -0.1593 -0.5589
14692SOL    HW150934   7.765   4.358   9.334 -0.2826 -2.0907 -0.4222
14692SOL    HW250935   7.885   4.269   9.308  1.5189  0.2935 -0.5739
14693SOL     OW50936   3.160  10.617   4.198 -0.0352 -0.3431  0.2884
14693SOL    HW150937   3.181  10.525   4.186 -1.0702 -0.2912 -2.4397
14693SOL    HW250938   3.073  10.618   4.238  0.3459 -0.5126  1.1488
14694SOL     OW50939   6.277   1.952   8.215  0.0388  0.2060 -0.5245
14694SOL    HW150940   6.350   1.894   8.194 -0.7416 -0.9919 -0.1036
14694SOL    HW250941   6.241   1.978   8.131 -0.2914 -0.8745 -0.7388
14695SOL     OW50942   8.819  12.167   5.547  0.1346 -0.6430 -0.0408
14695SOL    HW150943   8.831  12.219   5.467 -2.8959 -1.8797 -1.4411
14695SOL    HW250944   8.777  12.226   5.608  1.4504 -0.0135  0.2901
14696SOL     OW50945   9.426  12.256  12.336 -0.5630 -0.1990 -0.0631
14696SOL    HW150946   9.404  12.294  12.420  0.4701 -1.5823  0.8768
14696SOL    HW250947   9.371  12.178  12.329 -0.7397 -0.0256 -0.7424
14697SOL     OW50948   7.101   7.987  10.260  0.0122  0.3710  0.2641
14697SOL    HW150949   7.188   7.989  10.300 -0.0672  0.4397  0.4341
14697SOL    HW250950   7.102   8.059  10.197  0.4138 -0.2434 -0.4377
14698SOL     OW50951   5.616   4.785  12.009 -0.1040 -0.5274 -0.0816
14698SOL    HW150952   5.669   4.857  12.043  0.0211 -0.7734  0.2519
14698SOL    HW250953   5.580   4.744  12.086  1.0818 -1.7836 -0.1539
14699SOL     OW50954   1.274  12.269   0.090  0.1870  0.7533 -0.1154
14699SOL    HW150955   1.189  12.243   0.055  0.1095 -0.2998  0.8290
14699SOL    HW250956   1.338  12.226   0.033  0.0676  0.1542  0.1937
14700SOL     OW50957   5.952   9.842   1.744 -0.3195 -0.3861 -0.3186
14700SOL    HW150958   5.978   9.785   1.672 -0.0020 -0.0191 -0.5013
14700SOL    HW250959   6.034   9.879   1.776 -0.3522 -1.3015  0.8897
14701SOL     OW50960   0.363   6.893   3.216  0.1435  0.5727 -0.7720
14701SOL    HW150961   0.431   6.899   3.149  1.8099  1.1505  0.8709
14701SOL    HW250962   0.379   6.969   3.273 -1.9407  0.7566 -0.3460
14702SOL     OW50963   4.006   7.861   0.639 -0.1199  0.0379 -0.6215
14702SOL    HW150964   3.926   7.837   0.687 -1.1439 -0.4359 -2.4777
14702SOL    HW250965   4.064   7.786   0.651  0.0493  0.3379  0.6550
14703SOL     OW50966   4.291  11.074   9.028 -0.3402  0.2523 -0.6306
14703SOL    HW150967   4.283  11.028   9.112  1.8758  0.8866 -0.0038
14703SOL    HW250968   4.322  11.008   8.967  3.0504  0.7859  0.3148
14704SOL     OW50969   7.859  12.278  11.487  0.0613 -0.0099  0.1243
14704SOL    HW150970   7.797  12.341  11.449  1.5415  0.8893 -0.8932
14704SOL    HW250971   7.925  12.265  11.419  0.0687 -2.3471  0.4791
14705SOL     OW50972   6.274  11.191  10.463 -0.2146 -0.1133  0.0590
14705SOL    HW150973   6.305  11.242  10.388 -1.5829 -0.7117 -0.9523
14705SOL    HW250974   6.317  11.231  10.539  0.7800  0.8499 -0.9747
14706SOL     OW50975   4.461  10.520   1.822  0.7878  0.1684 -0.0334
14706SOL    HW150976   4.367  10.508   1.808  0.7661 -0.0669  0.3025
14706SOL    HW250977   4.502  10.443   1.783  0.8124  0.0815  0.1626
14707SOL     OW50978   1.246  10.844   3.638 -0.1189 -0.5883  0.2041
14707SOL    HW150979   1.309  10.797   3.693  0.6902  0.4447  0.1834
14707SOL    HW250980   1.296  10.869   3.560 -0.8314 -0.6382 -0.2799
14708SOL     OW50981  12.099  11.864  10.608  0.8140  0.3225  0.3229
14708SOL    HW150982  12.187  11.839  10.639  0.6084 -0.7362  0.1110
14708SOL    HW250983  12.115  11.931  10.542  1.6200 -1.2058 -1.1223
14709SOL     OW50984   1.382  12.349  10.266 -0.7385  0.9245 -0.4817
14709SOL    HW150985   1.419  12.262  10.283 -2.3612  0.1497 -0.7667
14709SOL    HW250986   1.443  12.389  10.205  0.8167  0.5743  0.7657
14710SOL     OW50987   5.437   4.265   4.647  0.1488 -0.1257 -0.8473
14710SOL    HW150988   5.362   4.287   4.702 -1.5420 -0.5829 -2.8346
14710SOL    HW250989   5.507   4.245   4.709 -1.6791 -0.7573  1.1495
14711SOL     OW50990   3.735  12.080   2.836 -0.0997 -0.1935  0.3591
14711SOL    HW150991   3.652  12.093   2.882 -0.0423  1.8834 -0.0408
14711SOL    HW250992   3.800  12.125   2.889  0.0833  1.6254 -1.2798
14712SOL     OW50993   9.083  12.291   8.082 -0.1306  0.1865 -0.1191
14712SOL    HW150994   9.052  12.313   7.995  1.0936 -0.1146 -0.6471
14712SOL    HW250995   9.065  12.198   8.092  0.3204  0.0759 -0.3136
14713SOL     OW50996   5.027   3.954  10.612  0.4352  0.0951  0.1712
14713SOL    HW150997   4.974   3.892  10.661  0.2790 -0.1249 -0.2739
14713SOL    HW250998   5.009   3.935  10.520  1.0923  0.1854  0.0144
14714SOL     OW50999   3.733   6.148   7.852  0.0251 -0.5439  0.0184
14714SOL    HW151000   3.659   6.201   7.882  0.4247 -0.6207  1.1827
14714SOL    HW251001   3.694   6.068   7.818 -0.4512 -0.3813  0.1854
14715SOL     OW51002  10.961   9.166   8.741  0.3302  0.1899  0.2673
14715SOL    HW151003  10.889   9.224   8.714 -1.3903 -1.7779  0.3462
14715SOL    HW251004  10.923   9.111   8.809  1.9723 -0.8432  0.4056
14716SOL     OW51005  11.291   5.822   1.072 -0.0691  0.4903  0.1079
14716SOL    HW151006  11.237   5.901   1.074 -0.0215  0.5157  1.2388
14716SOL    HW251007  11.371   5.846   1.119  0.5867  0.2056 -0.8271
14717SOL     OW51008   0.779  11.159   0.547 -0.2672  0.4367  0.0682
14717SOL    HW151009   0.779  11.194   0.458 -0.2465  0.3876  0.0489
14717SOL    HW251010   0.740  11.072   0.539 -2.5796  1.3525  0.4663
14718SOL     OW51011   0.904   5.558   2.400  0.3104  0.2964 -0.4100
14718SOL    HW151012   0.897   5.484   2.339 -0.1682 -0.3972  0.4504
14718SOL    HW251013   0.833   5.543   2.462  1.9918 -0.1277  1.4972
14719SOL     OW51014   9.570   2.165  11.210  0.4428  0.6968 -0.8225
14719SOL    HW151015   9.646   2.162  11.151 -0.3042 -0.9877 -1.7538
14719SOL    HW251016   9.494   2.160  11.152 -0.3724  1.1092  0.1781
14720SOL     OW51017   3.625  10.964   5.516  0.1875 -0.2826 -0.3018
14720SOL    HW151018   3.541  10.998   5.545  1.0647  0.3914  1.6379
14720SOL    HW251019   3.682  11.041   5.513  1.2352 -1.0071  0.3922
14721SOL     OW51020   2.932   3.108   9.142 -0.0777 -0.1561 -0.5134
14721SOL    HW151021   2.927   3.015   9.121 -0.0675  0.1461 -2.0039
14721SOL    HW251022   3.006   3.140   9.090  0.1087  0.6256  0.2123
14722SOL     OW51023   4.949   3.043   6.815  0.2190  0.3597  0.0190
14722SOL    HW151024   4.908   3.130   6.823  0.7516  0.7985 -1.5889
14722SOL    HW251025   5.005   3.036   6.893  0.5245  1.6742 -0.0536
14723SOL     OW51026   7.110   2.783   5.329  0.3646 -0.4495  0.3818
14723SOL    HW151027   7.026   2.738   5.334  1.4946 -2.5254  2.5241
14723SOL    HW251028   7.087   2.876   5.339 -1.5956 -1.0533  2.3450
14724SOL     OW51029   1.746   0.732   1.147  0.1501  0.2404  0.0709
14724SOL    HW151030   1.787   0.649   1.174 -0.1923  0.0187 -0.0818
14724SOL    HW251031   1.767   0.740   1.054 -0.1355  0.1384 -0.0017
14725SOL     OW51032  10.957   3.417   2.820 -0.2547 -0.2280 -0.1145
14725SOL    HW151033  10.903   3.350   2.778 -0.2638  0.2677 -0.9058
14725SOL    HW251034  11.047   3.391   2.802 -0.2141 -0.8254  0.8497
14726SOL     OW51035  11.827  10.207   2.955  0.2410  0.1606  0.2015
14726SOL    HW151036  11.915  10.222   2.990 -0.7427  3.9344  1.5937
14726SOL    HW251037  11.813  10.278   2.893 -2.1917  0.4060  0.8913
14727SOL     OW51038   5.764  12.122   6.130  0.2237  0.6492 -0.2829
14727SOL    HW151039   5.810  12.038   6.132 -0.3539  0.2945 -1.3095
14727SOL    HW251040   5.833  12.187   6.114  0.9042  0.5747  1.9925
14728SOL     OW51041   0.787  12.188  11.306  0.0144  0.0578 -0.2327
14728SOL    HW151042   0.808  12.124  11.373 -0.9501  1.3506  1.3834
14728SOL    HW251043   0.734  12.140  11.242 -1.2291 -0.6404  1.2566
14729SOL     OW51044   0.450   1.142   3.776  0.6185 -0.0196 -0.7348
14729SOL    HW151045   0.386   1.197   3.731 -0.6144 -1.2072 -0.5117
14729SOL    HW251046   0.481   1.196   3.849  0.1777  0.7321 -1.0890
14730SOL     OW51047   3.949   7.752   6.239  0.0411  0.0802 -0.2729
14730SOL    HW151048   3.929   7.776   6.148  1.1048 -0.5431 -0.6890
14730SOL    HW251049   3.957   7.657   6.237 -1.4286 -0.0964  0.8008
14731SOL     OW51050   0.044   3.394   8.893  0.2868  0.3847 -0.1023
14731SOL    HW151051   0.053   3.480   8.852 -1.3342  1.0090  0.7480
14731SOL    HW251052   0.102   3.337   8.843  4.9576  2.8009  1.9504
14732SOL     OW51053  10.575   4.616   6.587 -0.4173 -0.1550  0.3399
14732SOL    HW151054  10.630   4.689   6.615 -0.7887  0.3220 -0.1541
14732SOL    HW251055  10.516   4.653   6.522 -0.4144 -0.9628 -0.1415
14733SOL     OW51056   4.227   2.795   9.643 -0.4195 -0.1265  0.4336
14733SOL    HW151057   4.167   2.827   9.576  0.3738  3.0241  1.0747
14733SOL    HW251058   4.177   2.730   9.691 -2.6188  0.9048 -0.3345
14734SOL     OW51059   3.528   3.206   3.357 -0.2033 -0.1857  0.0350
14734SOL    HW151060   3.501   3.157   3.434 -0.2343  1.4281  1.1026
14734SOL    HW251061   3.548   3.294   3.390  1.4815  0.0805 -1.5114
14735SOL     OW51062   5.868  11.349   8.495 -0.0997 -0.1815  0.4902
14735SOL    HW151063   5.803  11.418   8.480 -0.6861 -0.5098  1.4051
14735SOL    HW251064   5.952  11.393   8.487 -0.4688  0.8067  1.6335
14736SOL     OW51065   9.149   2.695   5.714  0.1425 -0.2247 -0.3968
14736SOL    HW151066   9.127   2.627   5.650  2.0578  0.7206 -2.1633
14736SOL    HW251067   9.178   2.769   5.662 -1.4362  1.8700  1.4961
14737SOL     OW51068   2.168   1.472   6.561 -0.5324  0.0924  0.0852
14737SOL    HW151069   2.079   1.452   6.590 -0.7202 -1.5080 -1.5004
14737SOL    HW251070   2.156   1.529   6.485 -0.3257 -1.6514 -1.3148
14738SOL     OW51071   1.066   8.937   0.739 -0.1227  0.1918  0.5268
14738SOL    HW151072   1.155   8.908   0.762 -0.2693 -0.7111 -0.0368
14738SOL    HW251073   1.039   8.990   0.814  1.1895  1.1319  0.3743
14739SOL     OW51074   0.064   9.449   4.719  0.3535 -0.7369  0.3733
14739SOL    HW151075   0.158   9.431   4.710  0.3325 -0.5988 -0.1202
14739SOL    HW251076   0.056   9.543   4.700  0.0139 -0.9072 -0.3273
14740SOL     OW51077  10.694   5.004   9.382 -0.2718  0.2714  0.1572
14740SOL    HW151078  10.627   4.995   9.450 -2.3038 -2.7650 -1.9721
14740SOL    HW251079  10.646   4.997   9.300  2.3335  1.4549 -1.5815
14741SOL     OW51080   4.436   2.358   2.641  0.0138 -0.4020  0.4133
14741SOL    HW151081   4.477   2.399   2.717 -1.0691  1.0527  0.2605
14741SOL    HW251082   4.343   2.378   2.650 -0.2678 -1.0790 -0.7756
14742SOL     OW51083   6.031   0.150   3.696 -0.5094  0.2584  0.1517
14742SOL    HW151084   6.099   0.166   3.761  1.0135 -1.0905 -1.0062
14742SOL    HW251085   5.988   0.069   3.725 -0.3618  0.0986 -0.0610
14743SOL     OW51086   1.249  10.100   3.915  0.5629  0.7225  0.4770
14743SOL    HW151087   1.237  10.144   3.999 -1.0150  1.3317 -0.0353
14743SOL    HW251088   1.342  10.113   3.894  0.2077  3.9456  0.3189
14744SOL     OW51089  10.170   4.055   9.048 -0.7656 -0.1883  0.3355
14744SOL    HW151090  10.212   4.029   8.966 -1.5411  1.6872 -0.7076
14744SOL    HW251091  10.243   4.070   9.109 -0.1094 -0.1737 -0.4424
14745SOL     OW51092   8.787  12.064   7.021 -0.0523  0.0957  0.2069
14745SOL    HW151093   8.806  12.085   6.929  0.7332 -0.5751  0.2030
14745SOL    HW251094   8.712  12.004   7.017 -0.1997  0.2923  0.0208
14746SOL     OW51095  12.221   0.906  11.443 -0.3110  0.3076 -0.2327
14746SOL    HW151096  12.307   0.891  11.484  0.6667  3.3745 -0.9111
14746SOL    HW251097  12.161   0.915  11.518  0.0483 -1.1576  0.2681
14747SOL     OW51098   2.999  10.060  12.441  0.2471 -0.5304  0.5192
14747SOL    HW151099   3.050  10.105  12.508  1.4736  1.2680 -1.4558
14747SOL    HW251100   2.995  10.123  12.368 -1.1505 -2.2825 -1.0297
14748SOL     OW51101   3.607   1.180  11.147 -0.1851  0.6684  0.0915
14748SOL    HW151102   3.562   1.188  11.063  0.1729 -1.2569 -0.3198
14748SOL    HW251103   3.556   1.116  11.196  0.3415  0.8159  0.8435
14749SOL     OW51104   8.822   6.237  10.616  0.2904 -0.0955 -0.4189
14749SOL    HW151105   8.752   6.186  10.656  0.8021 -0.9606 -0.5895
14749SOL    HW251106   8.828   6.203  10.527  0.1696  0.7645 -0.7620
14750SOL     OW51107   3.996   7.091   5.224 -0.1857 -0.2578  0.3019
14750SOL    HW151108   4.032   7.014   5.180  0.3033  0.1592 -0.0490
14750SOL    HW251109   4.007   7.162   5.160 -0.2336  0.1880  0.7822
14751SOL     OW51110  11.755   2.382   5.764 -0.5866  0.1780 -0.4246
14751SOL    HW151111  11.745   2.436   5.843  0.2863 -2.4421  1.6383
14751SOL    HW251112  11.803   2.305   5.794 -1.6807 -1.7386 -3.1819
14752SOL     OW51113   9.555   8.028  10.702  0.2134 -0.0721 -0.0880
14752SOL    HW151114   9.532   8.031  10.609 -0.2612 -0.8093 -0.0084
14752SOL    HW251115   9.487   8.079  10.746  0.0833 -0.2386 -0.0921
14753SOL     OW51116   2.890   5.328   7.510 -0.2867  0.3140 -0.0038
14753SOL    HW151117   2.903   5.237   7.482  2.5654  0.5672  0.1505
14753SOL    HW251118   2.931   5.380   7.441  1.7188  1.2251  1.7553
14754SOL     OW51119   1.236  10.221   8.823  0.1520 -0.5372  0.1531
14754SOL    HW151120   1.187  10.292   8.865  0.4866  0.2566 -0.7419
14754SOL    HW251121   1.212  10.143   8.872  0.6891  0.3629  1.9308
14755SOL     OW51122  12.492   6.215   4.018  0.0776  0.1021 -0.9091
14755SOL    HW151123  12.459   6.126   4.029 -0.0667  0.5065  3.1812
14755SOL    HW251124  12.587   6.206   4.019  0.0930 -0.0723 -2.0388
14756SOL     OW51125   4.029   6.932   5.986  0.9203  0.0121 -0.3584
14756SOL    HW151126   4.004   6.865   6.050  0.1654  0.3148 -0.3230
14756SOL    HW251127   4.018   6.890   5.901  0.9175 -0.0653 -0.3199
14757SOL     OW51128   1.643  11.583  10.966 -0.0337  0.0751  0.0698
14757SOL    HW151129   1.583  11.632  11.022  0.6276  1.1866 -0.1610
14757SOL    HW251130   1.692  11.527  11.026 -1.3476 -0.9140  0.2482
14758SOL     OW51131   1.242   2.311  10.364  0.2172  0.1381 -0.6718
14758SOL    HW151132   1.326   2.337  10.327  0.3553  0.4437 -0.1427
14758SOL    HW251133   1.188   2.390  10.358 -0.1537 -0.1496 -1.3326
14759SOL     OW51134   1.914   9.405   1.167 -0.0320 -0.0616 -0.1285
14759SOL    HW151135   1.909   9.501   1.166  1.0879  0.0580  1.5103
14759SOL    HW251136   2.007   9.386   1.175 -0.2626 -1.2907 -0.2310
14760SOL     OW51137   3.795   3.236   6.148 -0.2893 -0.4177  0.0152
14760SOL    HW151138   3.862   3.167   6.144  1.8028  1.4841  0.3085
14760SOL    HW251139   3.731   3.204   6.212  1.2012 -1.6078  0.9807
14761SOL     OW51140   6.587  11.592   5.212 -0.0224  0.1370 -0.4027
14761SOL    HW151141   6.572  11.686   5.224  1.9259  0.6860 -1.8011
14761SOL    HW251142   6.635  11.565   5.291 -0.8045  0.2487  0.1168
14762SOL     OW51143   8.156   4.024   3.316 -0.1805  0.3482  0.1371
14762SOL    HW151144   8.093   3.961   3.281 -0.4667  0.8646 -0.3028
14762SOL    HW251145   8.124   4.109   3.285  0.6965  0.6220 -0.0477
14763SOL     OW51146   1.641  10.185   3.007 -0.2607 -0.9649  0.2381
14763SOL    HW151147   1.723  10.154   2.970 -0.8044 -1.3263 -0.6892
14763SOL    HW251148   1.592  10.219   2.932 -0.3485  0.6574  0.9840
14764SOL     OW51149  10.886   7.305   1.458  0.1043  0.4925 -0.0379
14764SOL    HW151150  10.903   7.336   1.369  0.0683 -1.0179 -0.5931
14764SOL    HW251151  10.799   7.265   1.454  0.0940  0.4333  0.6771
14765SOL     OW51152   7.756  12.159  10.181 -0.0103  0.2143 -0.1907
14765SOL    HW151153   7.807  12.128  10.107 -1.0914  0.7713 -1.2043
14765SOL    HW251154   7.813  12.147  10.257  0.6485 -1.5281 -0.9300
14766SOL     OW51155   4.842   4.347  10.686  0.4209  0.8147  0.1614
14766SOL    HW151156   4.883   4.298  10.616 -2.3282 -0.2975 -0.8211
14766SOL    HW251157   4.830   4.435  10.650 -0.0747  0.5207 -0.4058
14767SOL     OW51158   0.209   3.708   0.322 -0.0014 -0.3532  0.7742
14767SOL    HW151159   0.303   3.690   0.316  0.8279  2.7260  2.4682
14767SOL    HW251160   0.204   3.793   0.366 -3.5809 -0.0177 -0.0278
14768SOL     OW51161   0.524   5.583  11.246 -0.0961  0.3588 -0.4346
14768SOL    HW151162   0.445   5.554  11.292 -0.3540 -1.8721 -2.1144
14768SOL    HW251163   0.494   5.606  11.158  1.0242  0.1253 -0.8914
14769SOL     OW51164   3.456   2.608   7.946  0.1804 -0.3363 -0.2713
14769SOL    HW151165   3.478   2.681   8.004  0.1379 -0.1215 -0.5225
14769SOL    HW251166   3.403   2.549   7.999  0.0028 -0.0589 -0.1406
14770SOL     OW51167  11.011   1.469   2.076 -0.4078  0.2664 -0.3651
14770SOL    HW151168  10.941   1.517   2.120 -0.8203  1.5120 -2.2423
14770SOL    HW251169  10.973   1.443   1.991  1.2596  0.6324 -1.2687
14771SOL     OW51170   0.362  10.807  11.681  1.0298  0.0638  0.3021
14771SOL    HW151171   0.436  10.857  11.648  0.2735  0.3511 -1.0601
14771SOL    HW251172   0.289  10.869  11.680  0.1866 -0.8723 -0.9478
14772SOL     OW51173   8.179   7.892  11.327 -0.3503  0.3291 -0.7264
14772SOL    HW151174   8.175   7.967  11.386 -1.3186 -0.3822  0.1509
14772SOL    HW251175   8.094   7.849  11.336  0.5361 -1.4822 -0.3860
14773SOL     OW51176   0.876  11.557   9.813  0.2307 -0.0925 -0.0627
14773SOL    HW151177   0.962  11.591   9.793  0.6724 -1.5041 -0.7216
14773SOL    HW251178   0.875  11.547   9.908 -0.0536  1.9926  0.1986
14774SOL     OW51179   5.803   8.872   4.336  0.6718  0.1255 -0.2858
14774SOL    HW151180   5.898   8.882   4.342  0.8632 -0.8748 -1.3467
14774SOL    HW251181   5.779   8.828   4.418  0.8519  1.9085  0.7833
14775SOL     OW51182   8.044   6.316   9.159 -0.6840 -0.0029 -0.1935
14775SOL    HW151183   8.081   6.376   9.093 -0.3985  1.3566  1.1599
14775SOL    HW251184   7.984   6.370   9.210 -0.7980 -1.0030  0.7692
14776SOL     OW51185   8.400   3.559   8.053  0.1288  0.6209  0.2292
14776SOL    HW151186   8.374   3.516   8.135  2.5653  2.1983  1.9880
14776SOL    HW251187   8.392   3.653   8.071  2.6738  1.0708 -0.5111
14777SOL     OW51188  10.468   7.604   5.619  0.1033  0.3042  0.4578
14777SOL    HW151189  10.413   7.532   5.652  0.0174  0.5056  0.7589
14777SOL    HW251190  10.553   7.589   5.660 -0.3898  1.3695  1.9418
14778SOL     OW51191   2.401   6.847   0.855 -0.2157  0.2940  0.2326
14778SOL    HW151192   2.388   6.848   0.760 -0.8492 -0.0081  0.3112
14778SOL    HW251193   2.496   6.843   0.866 -0.1610 -0.2633 -0.3930
14779SOL     OW51194   5.060   6.336   8.337  0.0290 -0.2525  0.3150
14779SOL    HW151195   5.054   6.361   8.429 -1.7752  1.2220 -0.1462
14779SOL    HW251196   5.106   6.409   8.296 -1.8649  0.5971 -0.4091
14780SOL     OW51197   9.807   6.167   5.752  0.2577 -0.1513 -0.1271
14780SOL    HW151198   9.764   6.131   5.674  1.9153 -1.0810 -0.6596
14780SOL    HW251199   9.900   6.172   5.728  0.5465  1.3490  1.1322
14781SOL     OW51200  12.057   8.124   2.663 -0.6511  0.4078 -0.2293
14781SOL    HW151201  12.086   8.175   2.740  1.1372 -0.5972 -0.1745
14781SOL    HW251202  12.032   8.190   2.599 -0.0083  1.3311  0.4359
14782SOL     OW51203   9.837   4.896  10.376 -0.1876  0.6241 -0.3705
14782SOL    HW151204   9.859   4.983  10.410 -1.7636  1.5751 -1.6374
14782SOL    HW251205   9.781   4.857  10.443 -1.1383  1.4275 -0.6757
14783SOL     OW51206   5.308  10.997   4.222  0.4630  0.5004 -0.2808
14783SOL    HW151207   5.359  11.046   4.286  1.4114 -1.8539  0.9065
14783SOL    HW251208   5.321  11.045   4.140  1.5332  2.0453  0.7271
14784SOL     OW51209   8.432   6.172   7.513 -0.6293 -0.8679  0.1535
14784SOL    HW151210   8.341   6.144   7.522 -1.2712  0.5945 -1.4142
14784SOL    HW251211   8.464   6.126   7.435 -0.1828 -0.9350  0.3701
14785SOL     OW51212   2.345   8.910   1.088 -0.6174  0.2251 -0.0684
14785SOL    HW151213   2.404   8.849   1.045 -0.3866 -0.2513  0.8842
14785SOL    HW251214   2.267   8.912   1.032  0.4579  1.2483 -1.6086
14786SOL     OW51215   9.064   2.694   3.061  0.0139  0.2687 -0.4757
14786SOL    HW151216   9.025   2.763   3.114 -0.7677 -0.2857 -0.3157
14786SOL    HW251217   8.992   2.632   3.045  0.5919 -0.2862 -0.9796
14787SOL     OW51218  10.265  10.287  10.544  0.0864 -0.3025 -0.0060
14787SOL    HW151219  10.229  10.204  10.513  0.8243 -0.2782 -0.9594
14787SOL    HW251220  10.350  10.294  10.500 -1.0054  2.1186 -1.9393
14788SOL     OW51221   3.106   8.082   0.402 -0.0764 -0.1945  0.9080
14788SOL    HW151222   3.037   8.145   0.422 -0.7965 -0.4986 -0.4629
14788SOL    HW251223   3.060   8.012   0.355  1.2695 -0.0624 -0.6764
14789SOL     OW51224  12.537   0.008   2.066  0.1497  0.6787 -0.4096
14789SOL    HW151225  12.603   0.018   1.997  1.1293  0.2993  0.4481
14789SOL    HW251226  12.468  -0.045   2.026  0.1796  1.3677 -1.4301
14790SOL     OW51227  12.249   4.786   4.531 -0.0934  0.0511  0.3609
14790SOL    HW151228  12.252   4.862   4.589 -0.2390  1.2431 -1.1099
14790SOL    HW251229  12.157   4.759   4.531 -0.4744  1.2146 -0.6822
14791SOL     OW51230  12.436   8.679   5.921  0.0739  0.2370 -0.3469
14791SOL    HW151231  12.342   8.667   5.905  0.7155 -2.3092 -3.2239
14791SOL    HW251232  12.457   8.617   5.990 -0.2920  0.6001  0.0957
14792SOL     OW51233   7.451  10.726   0.412  0.1618  0.4093 -0.0863
14792SOL    HW151234   7.528  10.771   0.447  0.8318 -1.3261  0.7401
14792SOL    HW251235   7.484  10.674   0.339 -0.5879  1.1107 -0.9598
14793SOL     OW51236  11.787   5.450  11.670  0.0070 -0.0562 -0.2196
14793SOL    HW151237  11.838   5.464  11.590  0.6330 -0.4597  0.1028
14793SOL    HW251238  11.800   5.530  11.720 -0.0975  0.0512 -0.3611
14794SOL     OW51239  12.366   7.538   5.078 -1.0322 -0.2404 -0.6814
14794SOL    HW151240  12.324   7.502   5.156  0.6108 -1.2701 -0.2255
14794SOL    HW251241  12.448   7.490   5.070  0.1623  1.7726 -1.4437
14795SOL     OW51242  10.246   7.158  10.676 -0.4469  0.2083 -0.2541
14795SOL    HW151243  10.162   7.138  10.633  0.4865  1.3432 -2.8406
14795SOL    HW251244  10.241   7.252  10.694 -0.4399 -0.0782  1.4042
14796SOL     OW51245   8.475  10.086   3.826  0.4293 -0.3459  0.1445
14796SOL    HW151246   8.417  10.158   3.799  0.7387  0.2184  0.9500
14796SOL    HW251247   8.443  10.010   3.777  0.1984  0.3663 -0.8515
14797SOL     OW51248   3.048   1.314   0.854  0.4339 -0.4664  0.2103
14797SOL    HW151249   3.088   1.346   0.935  0.9768  0.0694 -0.2563
14797SOL    HW251250   3.031   1.221   0.871 -0.7536 -0.0598  1.4263
14798SOL     OW51251  10.396   7.194   8.277 -0.3412 -0.5481 -0.0305
14798SOL    HW151252  10.465   7.230   8.333 -0.5592 -2.1869  1.3854
14798SOL    HW251253  10.431   7.110   8.247 -0.6588 -0.1630 -1.5484
14799SOL     OW51254   8.799  11.167   7.178 -0.0553 -0.0891  0.2562
14799SOL    HW151255   8.729  11.175   7.113 -0.3930  0.1396  0.6440
14799SOL    HW251256   8.856  11.243   7.161 -0.2058  0.0348  0.2996
14800SOL     OW51257   8.705  10.966   6.056  0.2803  0.4611 -0.4688
14800SOL    HW151258   8.713  10.923   5.971 -1.1294  1.0028 -0.9104
14800SOL    HW251259   8.676  11.055   6.036  2.2703  1.3941  0.4779
14801SOL     OW51260  11.425   1.990   8.886 -0.0297  0.1253 -0.0559
14801SOL    HW151261  11.373   1.972   8.964 -0.3578 -0.2237 -0.3532
14801SOL    HW251262  11.375   2.056   8.838 -0.2831 -0.3386 -0.4284
14802SOL     OW51263  12.524   2.603   7.698 -0.3086  0.2759  0.8079
14802SOL    HW151264  12.493   2.693   7.706 -0.1035  0.4658 -0.3634
14802SOL    HW251265  12.618   2.608   7.710 -0.1730  0.3699 -0.2136
14803SOL     OW51266   7.005   6.428   4.270  0.2355  0.0559 -0.2164
14803SOL    HW151267   6.964   6.474   4.197  0.2337 -0.7086 -0.7065
14803SOL    HW251268   7.083   6.388   4.232 -0.5055 -1.5304 -0.1446
14804SOL     OW51269   6.000   1.356   3.834 -0.0926 -0.4044 -0.0393
14804SOL    HW151270   5.927   1.294   3.837  1.5700 -2.4591  2.1277
14804SOL    HW251271   6.061   1.317   3.770 -0.2792  0.5615 -0.8180
14805SOL     OW51272   7.464  10.463  12.500  0.5332  0.5540 -0.0506
14805SOL    HW151273   7.381  10.416  12.504  0.1531  1.1602 -0.6272
14805SOL    HW251274   7.463  10.505  12.414  0.7727  1.7855  0.5349
14806SOL     OW51275   6.017  10.957   1.329 -0.4764 -0.3197 -0.0987
14806SOL    HW151276   6.018  10.966   1.424 -0.3971 -0.4518 -0.0864
14806SOL    HW251277   6.036  10.864   1.314  0.2940 -0.1446 -0.2644
14807SOL     OW51278  10.034   2.112   5.516 -0.3860  0.1265  0.2793
14807SOL    HW151279  10.106   2.094   5.455 -0.2256  1.5044  0.0055
14807SOL    HW251280  10.034   2.038   5.576  0.2544 -0.6652 -0.6563
14808SOL     OW51281   8.514   6.354   5.290 -0.4887 -0.2672 -0.1412
14808SOL    HW151282   8.501   6.282   5.351 -0.3561 -1.2994 -1.3062
14808SOL    HW251283   8.609   6.356   5.275 -0.3439  0.9119  0.7672
14809SOL     OW51284   3.291   9.231   9.755  0.0644 -0.0909  0.1411
14809SOL    HW151285   3.345   9.164   9.713 -0.9694 -0.1057 -1.2104
14809SOL    HW251286   3.321   9.313   9.717 -1.0536 -0.1273 -0.8733
14810SOL     OW51287   1.162   1.128   4.424  0.1115 -0.0094  0.9758
14810SOL    HW151288   1.183   1.080   4.504 -1.5812  1.0051  2.0777
14810SOL    HW251289   1.066   1.125   4.418  0.1099  1.1974 -0.1979
14811SOL     OW51290  10.823   6.777  12.346 -0.3190 -0.0222 -0.2413
14811SOL    HW151291  10.783   6.863  12.360  0.2851  0.0393  1.3620
14811SOL    HW251292  10.822   6.736  12.433  0.0186 -1.3596 -0.8466
14812SOL     OW51293   7.710   4.798   6.588 -0.0512 -0.6465  1.3025
14812SOL    HW151294   7.731   4.737   6.517  1.4959  1.4837 -0.2019
14812SOL    HW251295   7.796   4.825   6.622 -0.6233  1.4859  1.1700
14813SOL     OW51296   1.827   4.648   7.389  0.8271  0.0122  0.2113
14813SOL    HW151297   1.811   4.574   7.448 -1.9474 -0.0980 -0.5339
14813SOL    HW251298   1.764   4.714   7.416  1.8998  1.3411 -0.4213
14814SOL     OW51299   1.919   6.688  10.084 -0.5352 -0.3047  0.1357
14814SOL    HW151300   1.916   6.778  10.115 -1.2284 -0.3704  0.2644
14814SOL    HW251301   1.897   6.635  10.161 -1.1076 -0.5287 -0.1765
14815SOL     OW51302   6.358   4.427   1.592 -0.5827 -0.2996 -0.0615
14815SOL    HW151303   6.333   4.469   1.510  0.3683  0.3902 -0.0049
14815SOL    HW251304   6.413   4.354   1.566  0.6348  0.5644 -0.0200
14816SOL     OW51305   0.081  11.270  10.252 -0.1450  0.0576  0.1558
14816SOL    HW151306   0.021  11.274  10.327 -1.5642  0.5303 -0.9401
14816SOL    HW251307   0.034  11.218  10.187  1.7986 -1.8194  0.1750
14817SOL     OW51308   7.758   4.266   8.333  0.0718 -0.0685 -0.1451
14817SOL    HW151309   7.736   4.251   8.425 -0.3124 -1.0925 -0.3888
14817SOL    HW251310   7.853   4.273   8.331  0.0787 -0.0412  0.3342
14818SOL     OW51311  10.095   5.539   6.020 -0.3731  0.5326 -0.1806
14818SOL    HW151312  10.111   5.609   5.957  1.6737  0.0870 -0.2158
14818SOL    HW251313  10.030   5.483   5.978 -1.4978  2.0010 -0.4592
14819SOL     OW51314   9.374   3.309   6.306 -0.3147  0.8854 -0.2156
14819SOL    HW151315   9.424   3.292   6.386 -1.0415  0.2687  0.1208
14819SOL    HW251316   9.379   3.404   6.295  0.3467  0.9089  0.1869
14820SOL     OW51317   0.986   8.741   1.147 -0.1501 -0.4526 -0.1664
14820SOL    HW151318   0.975   8.689   1.226 -0.9136 -0.3374 -0.1966
14820SOL    HW251319   0.898   8.772   1.125 -0.2830 -1.9913 -2.1135
14821SOL     OW51320   3.861  11.328   0.113  0.1091  0.4303 -0.6829
14821SOL    HW151321   3.942  11.279   0.101 -0.9749 -1.4547 -0.7335
14821SOL    HW251322   3.868  11.366   0.201  1.3928  1.0571 -1.0358
14822SOL     OW51323   6.555   1.804  10.021 -0.8156 -0.0589  0.0295
14822SOL    HW151324   6.623   1.787   9.956 -0.2654 -0.9638  0.8182
14822SOL    HW251325   6.546   1.900  10.022 -0.8081 -0.0251 -1.3265
14823SOL     OW51326   2.767   7.069   6.311  0.0663 -0.0764  0.2112
14823SOL    HW151327   2.778   7.003   6.380  2.6309 -1.3223 -1.2137
14823SOL    HW251328   2.824   7.141   6.337 -0.7408  0.4857  0.4758
14824SOL     OW51329   2.272   3.620   0.328 -0.1804  0.3479  0.2502
14824SOL    HW151330   2.239   3.618   0.418  0.9403  0.7769  0.6827
14824SOL    HW251331   2.214   3.683   0.283 -0.6621  0.2303  0.6956
14825SOL     OW51332  11.034   7.558   7.696  0.4576 -0.3575 -0.7858
14825SOL    HW151333  10.998   7.471   7.711 -0.9282  0.5508  1.8383
14825SOL    HW251334  11.109   7.564   7.756  0.4297  0.2969 -0.8021
14826SOL     OW51335   7.668   8.817  12.034  0.0590 -0.1714  0.2554
14826SOL    HW151336   7.575   8.826  12.053  0.2152  1.5325  0.4136
14826SOL    HW251337   7.682   8.871  11.956  0.8553 -0.6897  0.0217
14827SOL     OW51338   2.178   0.264   6.433 -0.4904  0.0142  0.3418
14827SOL    HW151339   2.184   0.180   6.478  0.0213 -0.9591 -1.4460
14827SOL    HW251340   2.086   0.271   6.407 -0.0946 -1.1858 -1.5781
14828SOL     OW51341   2.787   2.388   9.870  0.1963  0.4574 -0.1254
14828SOL    HW151342   2.750   2.441   9.941 -2.4372  1.0100 -1.7607
14828SOL    HW251343   2.786   2.299   9.904 -2.6054  0.4672  0.0715
14829SOL     OW51344   1.428   2.476   2.545  0.0887  0.6673  0.1957
14829SOL    HW151345   1.440   2.541   2.476 -1.0251  2.3493  1.5021
14829SOL    HW251346   1.395   2.399   2.500  0.3034  1.3997 -1.2692
14830SOL     OW51347   5.041   0.156   8.460 -0.4551 -0.0497 -0.1689
14830SOL    HW151348   5.094   0.219   8.508  0.2968 -0.9335  0.1891
14830SOL    HW251349   4.950   0.177   8.483 -0.1730  0.4237  0.5131
14831SOL     OW51350  10.871   2.868  11.878 -0.4890  0.1978  0.7778
14831SOL    HW151351  10.901   2.778  11.862 -0.8671 -0.1021  1.7131
14831SOL    HW251352  10.783   2.858  11.914 -1.3880  1.0348 -1.0525
14832SOL     OW51353   6.953  11.026   5.436  0.4670  0.3156 -0.1650
14832SOL    HW151354   7.028  10.983   5.395 -0.5049  0.0472 -1.6978
14832SOL    HW251355   6.950  11.113   5.396 -0.5025  0.0436 -0.7106
14833SOL     OW51356   7.547  11.983  10.657  0.2395 -0.5002 -0.0420
14833SOL    HW151357   7.633  11.940  10.651  0.3133 -0.1963 -1.3078
14833SOL    HW251358   7.492  11.936  10.595 -0.2023  0.0136 -0.0424
14834SOL     OW51359   8.347   5.686  10.429 -0.4658 -0.0671  0.5964
14834SOL    HW151360   8.352   5.595  10.456  3.4597  0.2124  1.3779
14834SOL    HW251361   8.325   5.734  10.509 -4.6599 -0.2864 -0.2020
14835SOL     OW51362   7.930   1.892   1.025  0.1364  0.0688 -0.2846
14835SOL    HW151363   7.996   1.932   0.968 -0.9669  1.3269 -0.7245
14835SOL    HW251364   7.966   1.805   1.046  2.7316  1.3360  0.9350
14836SOL     OW51365   4.433  12.004   6.251  0.7182  0.3734 -0.0506
14836SOL    HW151366   4.434  12.085   6.303 -1.2684  0.2071  0.3247
14836SOL    HW251367   4.459  12.032   6.163  0.2025  1.4115  0.1076
14837SOL     OW51368   0.959   5.985   7.126 -0.2202 -0.2578  0.3843
14837SOL    HW151369   1.040   5.939   7.145  0.2599 -0.0449 -1.0490
14837SOL    HW251370   0.925   6.011   7.212  1.1219 -0.5195  1.0080
14838SOL     OW51371   3.522   4.013   4.143 -0.3736 -0.0319 -0.3801
14838SOL    HW151372   3.585   3.964   4.089 -0.7335  0.6624 -1.4652
14838SOL    HW251373   3.462   3.946   4.175  0.0294 -0.5054 -0.5935
14839SOL     OW51374  12.524   2.048  11.372  0.0328 -0.0544 -0.0135
14839SOL    HW151375  12.501   1.968  11.420 -1.5719 -0.9463 -2.1099
14839SOL    HW251376  12.599   2.023  11.319 -1.1698 -0.5904 -1.5336
14840SOL     OW51377   8.093   1.178   1.893 -0.6208  0.4250  0.8885
14840SOL    HW151378   8.088   1.189   1.798  1.1797 -0.3699  0.6540
14840SOL    HW251379   8.042   1.099   1.911  1.0629 -0.8747  0.2103
14841SOL     OW51380   9.368   6.407  12.246 -0.2358  0.0368 -0.0343
14841SOL    HW151381   9.463   6.416  12.246 -0.1470 -0.3320  1.9848
14841SOL    HW251382   9.353   6.321  12.286 -1.4154  0.2489  0.0068
14842SOL     OW51383   6.174  12.576  10.498  0.2287 -0.4062  0.4429
14842SOL    HW151384   6.192  12.664  10.464  0.4053 -0.4014  0.5482
14842SOL    HW251385   6.120  12.591  10.575  0.6239 -0.3651  0.7173
14843SOL     OW51386  10.957  11.084   1.735  0.6603  0.5101 -0.0809
14843SOL    HW151387  11.048  11.085   1.763  0.8555  2.0271 -0.6435
14843SOL    HW251388  10.948  11.162   1.680 -0.5869 -0.4384 -1.3145
14844SOL     OW51389   0.654   9.087  11.733 -0.1535 -0.2691  0.5492
14844SOL    HW151390   0.732   9.125  11.775 -0.3896 -0.1315  0.8637
14844SOL    HW251391   0.596   9.064  11.806 -0.4496 -0.2841  0.3100
14845SOL     OW51392  12.350   7.876  10.058  0.5880 -0.1994 -0.3647
14845SOL    HW151393  12.319   7.789  10.033  0.6678 -0.2444 -0.3097
14845SOL    HW251394  12.340   7.929   9.979 -0.0200 -0.1085 -0.2335
14846SOL     OW51395   5.361  11.162  12.459 -0.1015 -0.0727 -0.0762
14846SOL    HW151396   5.345  11.079  12.504  1.5979 -0.2892  0.1963
14846SOL    HW251397   5.355  11.228  12.529 -0.2482 -0.0975 -0.0649
14847SOL     OW51398   5.126   2.161   0.962 -0.4233  0.6071 -0.0512
14847SOL    HW151399   5.057   2.148   1.026 -0.4967  0.2152 -0.2061
14847SOL    HW251400   5.189   2.091   0.980  0.5197  1.6534  0.8493
14848SOL     OW51401   0.181   4.480   0.139 -0.3129 -0.1397 -0.3230
14848SOL    HW151402   0.220   4.524   0.214  0.2986 -2.5682  0.8872
14848SOL    HW251403   0.173   4.548   0.072  2.9499  1.2317  0.5097
14849SOL     OW51404   6.147   6.726   0.354 -0.3446  0.2471  0.4677
14849SOL    HW151405   6.210   6.660   0.323 -1.0623  0.6042 -1.9780
14849SOL    HW251406   6.069   6.676   0.376 -0.7684  0.2024 -1.0421
14850SOL     OW51407  10.084   3.580   3.342 -0.3714  0.1248 -0.0497
14850SOL    HW151408  10.051   3.550   3.257 -0.7898 -1.2569  0.5798
14850SOL    HW251409  10.037   3.527   3.406 -1.1826  2.1677  1.1532
14851SOL     OW51410   1.774   6.119   8.786  0.1127  0.0161 -0.4522
14851SOL    HW151411   1.770   6.030   8.752 -1.5217  0.4447 -1.4839
14851SOL    HW251412   1.801   6.108   8.878  2.1730 -1.3294 -1.1383
14852SOL     OW51413   0.189   2.783   8.487 -0.7209 -0.1019  0.2874
14852SOL    HW151414   0.169   2.744   8.572 -0.1132  1.6675  1.2999
14852SOL    HW251415   0.106   2.783   8.440 -1.4564  0.3557  1.5258
14853SOL     OW51416   0.546   7.678   4.907 -0.0635  0.0582 -0.3503
14853SOL    HW151417   0.460   7.670   4.866 -0.1162 -1.0330 -0.0687
14853SOL    HW251418   0.608   7.673   4.834 -0.2256  1.1835 -0.5909
14854SOL     OW51419   2.650   1.820   9.897 -0.3532  0.6257  0.8485
14854SOL    HW151420   2.622   1.776   9.817  1.1691  0.2728  0.4834
14854SOL    HW251421   2.656   1.750   9.962 -0.4466  0.7315  0.9739
14855SOL     OW51422   3.472   2.752   8.973  0.0585 -0.8612 -0.1977
14855SOL    HW151423   3.410   2.694   8.930 -0.1667  0.6853 -2.1046
14855SOL    HW251424   3.447   2.750   9.065 -1.5797 -1.7630 -0.6216
14856SOL     OW51425   9.153  10.529   1.496 -0.5371  0.3480  0.1299
14856SOL    HW151426   9.137  10.587   1.571  0.4701  1.5249 -0.5217
14856SOL    HW251427   9.151  10.587   1.420  1.2302 -0.3055 -0.4792
14857SOL     OW51428   5.586   1.420   1.421 -0.3498  0.6420  0.4626
14857SOL    HW151429   5.571   1.497   1.475  2.4404  0.7367  1.2878
14857SOL    HW251430   5.572   1.346   1.480 -0.6936  0.6061  0.3375
14858SOL     OW51431  10.782   5.076  12.531  0.2125  0.3039  0.6622
14858SOL    HW151432  10.877   5.086  12.530  0.2056  0.4682 -1.1006
14858SOL    HW251433  10.751   5.145  12.589  1.0531  1.6449 -0.4448
14859SOL     OW51434   7.905   4.588   6.892 -0.2902 -0.2367 -0.0737
14859SOL    HW151435   7.894   4.683   6.893 -1.6124 -0.3476 -0.9882
14859SOL    HW251436   7.827   4.554   6.936  0.5515 -0.8970  0.9642
14860SOL     OW51437   5.653   8.905   2.142  0.2254 -0.8435  0.0640
14860SOL    HW151438   5.589   8.834   2.136  0.2733 -0.9995  1.1934
14860SOL    HW251439   5.602   8.984   2.123  0.0221 -1.0982 -0.4927
14861SOL     OW51440   7.611   4.582   8.575 -0.2087  0.1314  0.4266
14861SOL    HW151441   7.637   4.656   8.519  1.4069 -0.6002  0.1454
14861SOL    HW251442   7.532   4.549   8.534  0.9164 -0.3644 -1.4970
14862SOL     OW51443   3.485   1.278  10.844 -0.3103  0.2103 -0.3817
14862SOL    HW151444   3.501   1.276  10.750 -3.0286 -1.4467 -0.9157
14862SOL    HW251445   3.405   1.328  10.854 -2.6444 -3.3085  0.4335
14863SOL     OW51446   2.358   2.073  10.925 -0.0971  0.1750  0.6572
14863SOL    HW151447   2.373   2.090  10.832  0.1835  0.9818  0.8432
14863SOL    HW251448   2.307   1.992  10.926  1.1020 -0.6241 -0.1296
14864SOL     OW51449   7.927   6.677   5.608  0.0201 -0.6135 -0.4852
14864SOL    HW151450   7.842   6.694   5.568  0.1036 -1.0831 -0.8659
14864SOL    HW251451   7.974   6.626   5.543  0.0899 -1.5379  0.2782
14865SOL     OW51452   7.130   0.739   6.515  0.3001  0.1660 -0.4257
14865SOL    HW151453   7.161   0.664   6.464  0.4440 -1.1580  1.5394
14865SOL    HW251454   7.139   0.813   6.455  0.4408 -1.3103 -2.3287
14866SOL     OW51455   4.738   7.798   0.018  0.1915  0.6111 -0.1767
14866SOL    HW151456   4.727   7.883  -0.024 -1.3148 -0.5351 -2.2671
14866SOL    HW251457   4.649   7.767   0.033  0.6541 -1.3249 -1.0910
14867SOL     OW51458   6.142   5.502   9.379  0.0347 -0.5335  0.0556
14867SOL    HW151459   6.120   5.430   9.320  1.0756 -0.5389 -0.3474
14867SOL    HW251460   6.217   5.545   9.338  0.8385 -0.5861  1.4010
14868SOL     OW51461   8.991   4.558   5.940 -0.0171 -0.3290 -0.0366
14868SOL    HW151462   8.950   4.643   5.952  0.9430  0.0578  0.6070
14868SOL    HW251463   9.073   4.576   5.895  1.1526 -0.6439  1.8392
14869SOL     OW51464   4.373   0.108  12.095  0.2542 -0.2928  0.3100
14869SOL    HW151465   4.385   0.150  12.010 -1.4696  0.6965  0.5029
14869SOL    HW251466   4.300   0.155  12.134  0.6244 -1.1286  2.0990
14870SOL     OW51467   5.622   7.656   1.436  0.2234 -0.1514 -0.5109
14870SOL    HW151468   5.588   7.642   1.348 -1.5305 -0.0735  0.1071
14870SOL    HW251469   5.664   7.742   1.431  1.7347 -0.9162 -1.6855
14871SOL     OW51470   8.434  10.047  11.491 -0.0270 -0.4236 -0.5170
14871SOL    HW151471   8.368  10.111  11.466 -0.1811 -0.1162  0.5873
14871SOL    HW251472   8.516  10.095  11.488  0.1880 -0.8596 -2.0866
14872SOL     OW51473   9.504   2.507   6.780  0.2552  0.1458  0.1095
14872SOL    HW151474   9.413   2.511   6.809 -0.2233 -1.2492 -1.0843
14872SOL    HW251475   9.555   2.530   6.858 -1.1193  3.8960  0.0924
14873SOL     OW51476   6.351  11.307   7.315  0.7491  0.2627 -0.2269
14873SOL    HW151477   6.264  11.269   7.302  0.4407  0.3667  1.2910
14873SOL    HW251478   6.411  11.232   7.307  0.0630 -1.0198  3.9208
14874SOL     OW51479   8.333   1.010   2.799  0.8028 -0.6153 -0.4479
14874SOL    HW151480   8.421   1.045   2.813  0.3281  2.0419 -3.1911
14874SOL    HW251481   8.278   1.058   2.860  0.8606 -0.1262 -0.7758
14875SOL     OW51482   0.263   8.541   1.540  0.1806  1.0352  0.2064
14875SOL    HW151483   0.241   8.630   1.510 -0.1623  0.7312 -0.4639
14875SOL    HW251484   0.353   8.548   1.572  0.6762  1.3219 -1.1699
14876SOL     OW51485   2.526  11.685  11.707 -0.3719 -0.2795 -0.1101
14876SOL    HW151486   2.616  11.676  11.738 -0.5830  0.3544  0.7511
14876SOL    HW251487   2.489  11.597  11.715  0.9298 -1.2420 -3.1559
14877SOL     OW51488   4.008   4.997   2.924  0.3234  0.0142 -0.3614
14877SOL    HW151489   4.011   4.902   2.918 -2.5499 -0.3253  1.6973
14877SOL    HW251490   3.948   5.024   2.854 -0.0489  0.1566  0.0110
14878SOL     OW51491   5.138   5.514   6.739 -0.0314  0.4712  0.3137
14878SOL    HW151492   5.225   5.484   6.711  0.3209  1.5864  0.1685
14878SOL    HW251493   5.148   5.533   6.832 -0.8025 -1.7616  0.9264
14879SOL     OW51494   0.157   4.313   1.049  0.3794 -0.3259 -0.1448
14879SOL    HW151495   0.227   4.333   1.111 -0.9048  2.0000  0.7033
14879SOL    HW251496   0.192   4.337   0.963  1.2689 -1.0687  0.0009
14880SOL     OW51497   0.036   4.955   4.637 -0.1256  0.5273 -0.5079
14880SOL    HW151498   0.061   4.995   4.721  0.6892  0.6369 -0.7908
14880SOL    HW251499  -0.050   4.992   4.618 -0.4521  0.2776  0.4200
14881SOL     OW51500   3.963   2.520  10.394  0.1706 -0.2459  0.1054
14881SOL    HW151501   3.885   2.563  10.430 -0.8475 -1.8036 -0.1566
14881SOL    HW251502   4.011   2.590  10.350 -1.8726  0.5000 -1.0522
14882SOL     OW51503   8.807   0.313   5.441  0.4206  0.3095  0.5523
14882SOL    HW151504   8.779   0.228   5.407  2.0294  0.2165 -0.6833
14882SOL    HW251505   8.893   0.327   5.401  0.1512  2.5615  0.6396
14883SOL     OW51506   5.907   4.555   5.087 -0.4366 -0.2962  0.0762
14883SOL    HW151507   5.947   4.640   5.107 -2.2153  0.5138  0.4583
14883SOL    HW251508   5.981   4.495   5.079  0.8708  1.2271  0.0479
14884SOL     OW51509   1.100   4.257  11.950  0.2466 -0.7317  0.1102
14884SOL    HW151510   1.168   4.199  11.986  0.3738 -2.0034 -2.0267
14884SOL    HW251511   1.124   4.269  11.859 -0.6473  1.5108  0.1015
14885SOL     OW51512   1.410   7.972   4.728 -0.1808 -0.0423  0.3617
14885SOL    HW151513   1.372   8.036   4.668 -0.7939  0.7604  1.5638
14885SOL    HW251514   1.480   8.020   4.774  0.0093 -0.5175  0.5853
14886SOL     OW51515   9.475  10.415   4.891  0.0083  0.3902 -0.2378
14886SOL    HW151516   9.436  10.328   4.886  1.7097 -0.3646 -1.2998
14886SOL    HW251517   9.444  10.459   4.812 -2.7370  1.6637  1.4138
14887SOL     OW51518   4.079   7.530   2.199 -0.2511 -0.1630 -0.8174
14887SOL    HW151519   3.988   7.528   2.229 -0.4685  0.3030 -1.4267
14887SOL    HW251520   4.091   7.620   2.167  1.2613  0.6913  1.8443
14888SOL     OW51521   8.017   9.799   1.745  0.2693 -0.1329  0.5312
14888SOL    HW151522   7.964   9.879   1.743  1.9238  1.0191 -1.6801
14888SOL    HW251523   8.088   9.820   1.806 -0.1001 -0.5319  1.1168
14889SOL     OW51524   2.252   3.897   3.218  1.0751 -0.0156  0.1947
14889SOL    HW151525   2.214   3.965   3.161  1.0173 -0.2970 -0.1084
14889SOL    HW251526   2.305   3.844   3.159  2.6525  0.8793  0.7672
14890SOL     OW51527  11.843   4.746   4.240 -0.0265 -0.6448 -0.3431
14890SOL    HW151528  11.788   4.803   4.187  1.0735  0.5545 -0.2342
14890SOL    HW251529  11.809   4.658   4.223 -1.5680 -0.0070 -0.7434
14891SOL     OW51530   5.864   8.274  10.166 -0.2918  0.5582 -0.0111
14891SOL    HW151531   5.903   8.266  10.253 -2.5384 -1.1619  0.9206
14891SOL    HW251532   5.787   8.218  10.168 -0.6286  0.7135 -3.0302
14892SOL     OW51533   2.642   6.777   4.703 -0.2800  0.0334 -0.0468
14892SOL    HW151534   2.570   6.802   4.761  0.8659  1.4835  0.8260
14892SOL    HW251535   2.715   6.832   4.730  0.8088 -0.4878 -1.7460
14893SOL     OW51536   4.437   4.580   4.651  1.4092 -0.1709  0.2369
14893SOL    HW151537   4.430   4.487   4.633  0.2242  0.0716 -0.6822
14893SOL    HW251538   4.358   4.602   4.700  1.7912  0.3086  0.6568
14894SOL     OW51539  12.346   9.898   2.436 -0.2022 -0.1475 -0.0021
14894SOL    HW151540  12.298   9.815   2.427  1.5919 -1.2266 -0.2568
14894SOL    HW251541  12.335   9.921   2.528  0.0190 -1.1789  0.3020
14895SOL     OW51542   0.050   2.581   1.840  0.0464  0.4191 -0.9113
14895SOL    HW151543   0.100   2.662   1.833  1.1353 -0.0909  0.6628
14895SOL    HW251544   0.107   2.514   1.803 -1.0850  0.3994 -2.7738
14896SOL     OW51545   2.863   0.407   3.224 -0.2612 -0.2435 -0.1424
14896SOL    HW151546   2.917   0.480   3.254 -1.2464  0.8554 -0.9192
14896SOL    HW251547   2.783   0.413   3.276 -0.4188 -0.6492 -0.3334
14897SOL     OW51548   9.776   2.106   3.636  0.4297 -0.4660 -0.0719
14897SOL    HW151549   9.712   2.131   3.703  0.2082 -1.9140  0.2729
14897SOL    HW251550   9.733   2.038   3.584  2.1504 -2.5689  1.0855
14898SOL     OW51551   0.203  10.762   2.314 -0.4696 -0.2216  0.0363
14898SOL    HW151552   0.279  10.780   2.370 -0.2860  0.0670 -0.3045
14898SOL    HW251553   0.195  10.839   2.258 -1.9153  0.4157  1.0607
14899SOL     OW51554   1.358   9.813   0.873  0.5557 -0.2856  0.4848
14899SOL    HW151555   1.404   9.737   0.907 -1.2762 -1.5923  0.1987
14899SOL    HW251556   1.273   9.812   0.918 -1.2022 -0.9715 -2.5990
14900SOL     OW51557   6.431  11.096   6.361 -0.0491  0.3151  0.2841
14900SOL    HW151558   6.395  11.143   6.435  1.0472  0.6729  0.6125
14900SOL    HW251559   6.515  11.062   6.393  1.1117  1.6497 -1.1737
14901SOL     OW51560  12.248   8.140   7.717 -0.0681 -0.8251  0.6351
14901SOL    HW151561  12.253   8.134   7.622  0.0597  0.5325  0.5424
14901SOL    HW251562  12.324   8.194   7.742 -1.4007  0.8233  1.2769
14902SOL     OW51563   4.022   7.069   6.407  0.2497 -0.1732  0.1712
14902SOL    HW151564   4.092   7.118   6.364 -0.7526 -1.1602 -2.8172
14902SOL    HW251565   4.055   6.979   6.412  0.1370 -0.1755  1.0456
14903SOL     OW51566   9.354   1.367   9.121  0.0667  0.5262  0.2897
14903SOL    HW151567   9.362   1.330   9.033 -1.5638 -0.2613  0.4432
14903SOL    HW251568   9.394   1.454   9.114  1.7678 -0.2818 -0.7036
14904SOL     OW51569   6.524   7.038   8.097  0.2063 -0.1443  0.4874
14904SOL    HW151570   6.445   7.074   8.056  1.1339  0.8504 -0.5076
14904SOL    HW251571   6.593   7.053   8.032  0.7214 -3.6388  0.0636
14905SOL     OW51572   6.151  12.148   4.092  0.5237 -0.2434 -0.3244
14905SOL    HW151573   6.189  12.084   4.151 -0.2033 -1.6043 -1.2623
14905SOL    HW251574   6.209  12.148   4.015  1.4371  1.4700  0.3030
14906SOL     OW51575   3.154   9.851   2.802 -0.4662 -0.3165 -0.7922
14906SOL    HW151576   3.204   9.783   2.758  0.0953 -0.2315 -0.2987
14906SOL    HW251577   3.166   9.929   2.748  1.3836  0.1574  0.1927
14907SOL     OW51578   8.352   8.794   3.364  0.1628 -0.1425 -0.0580
14907SOL    HW151579   8.261   8.765   3.369 -0.0782  0.6102  0.0578
14907SOL    HW251580   8.383   8.759   3.281  1.0871 -4.0082  1.7100
14908SOL     OW51581   0.508   8.643   5.810 -0.0675  0.2044 -0.0678
14908SOL    HW151582   0.472   8.554   5.817  0.8960 -0.2628 -0.7170
14908SOL    HW251583   0.434   8.700   5.831 -0.7842 -0.7417  0.1023
14909SOL     OW51584   3.831   5.399   5.036  0.4348  0.1596 -0.0348
14909SOL    HW151585   3.801   5.312   5.060  0.6277  0.1527  0.1751
14909SOL    HW251586   3.880   5.386   4.954  1.3202 -0.0804  0.5168
14910SOL     OW51587   0.653   6.246   9.500  0.0233 -0.3994 -0.6212
14910SOL    HW151588   0.730   6.198   9.529 -0.1018 -0.0146  0.3824
14910SOL    HW251589   0.639   6.312   9.568 -0.1202  0.7145 -1.7021
14911SOL     OW51590   1.660   3.840   0.604 -0.2168  0.1829 -0.6207
14911SOL    HW151591   1.649   3.922   0.556 -0.1521  0.5589 -0.0154
14911SOL    HW251592   1.574   3.798   0.601 -0.4077  0.5554 -0.4372
14912SOL     OW51593   2.153   0.001  11.700  0.0616 -0.4115 -0.3152
14912SOL    HW151594   2.243   0.008  11.667  0.2506  3.1494  0.5587
14912SOL    HW251595   2.161   0.013  11.794 -1.2748 -0.7752 -0.1331
14913SOL     OW51596   9.364   5.387   4.374 -0.0754  0.0475 -0.5703
14913SOL    HW151597   9.364   5.478   4.403  1.2189 -0.4939  1.3526
14913SOL    HW251598   9.416   5.386   4.294 -1.0763  1.1438 -1.2529
14914SOL     OW51599  11.003   2.980   3.895  0.4609 -0.1471 -0.1232
14914SOL    HW151600  10.921   2.931   3.900  1.1201 -1.1299  1.7724
14914SOL    HW251601  11.019   2.990   3.801 -1.0797 -1.1819 -0.5264
14915SOL     OW51602   5.512   4.260   9.729  0.4190  0.4152  0.0066
14915SOL    HW151603   5.519   4.297   9.641  1.8779 -3.6339 -1.8393
14915SOL    HW251604   5.520   4.165   9.716 -0.1626 -0.4832  4.4664
14916SOL     OW51605   9.449  11.332   5.023  0.0021 -0.6519 -0.7165
14916SOL    HW151606   9.539  11.342   5.054 -0.1915  1.2737 -0.6628
14916SOL    HW251607   9.451  11.363   4.932 -0.5431 -0.8637 -0.8046
14917SOL     OW51608  10.268   9.049   5.395 -0.2464  0.2315 -0.6311
14917SOL    HW151609  10.195   8.993   5.371 -0.3734  0.2245 -0.2310
14917SOL    HW251610  10.339   8.988   5.417 -0.8668  0.1806  1.3520
14918SOL     OW51611   6.885   5.255   3.236 -0.0437  0.0130 -0.3640
14918SOL    HW151612   6.815   5.228   3.295 -0.1916 -0.9497 -0.9477
14918SOL    HW251613   6.876   5.350   3.229  0.2280  0.2020  1.4603
14919SOL     OW51614   6.891  12.012   4.134 -0.1035  0.6295 -0.5472
14919SOL    HW151615   6.850  11.969   4.209  0.0667  1.7255  0.1964
14919SOL    HW251616   6.902  11.942   4.070 -0.6297 -0.2470  0.2839
14920SOL     OW51617   1.511   8.735  12.061 -0.0092  0.3031 -0.2997
14920SOL    HW151618   1.474   8.732  11.973  0.1440 -0.1544 -0.3512
14920SOL    HW251619   1.602   8.708  12.051 -0.4312 -1.4864  0.2107
14921SOL     OW51620   9.647   8.854  11.579 -0.0829  0.3923  0.0187
14921SOL    HW151621   9.562   8.898  11.588 -1.2557 -1.4561 -1.3638
14921SOL    HW251622   9.634   8.768  11.617  0.9291 -0.1900 -0.8969
14922SOL     OW51623   7.819   7.862  11.416  0.2866 -0.6296  0.2845
14922SOL    HW151624   7.816   7.800  11.343  3.2019 -2.5629  1.6285
14922SOL    HW251625   7.756   7.827  11.479 -0.8578 -0.0097 -0.4792
14923SOL     OW51626   8.143   0.570   9.838  0.7309 -0.2758 -0.2041
14923SOL    HW151627   8.237   0.576   9.820  0.7857 -1.9363 -0.6895
14923SOL    HW251628   8.101   0.586   9.753  0.6657 -0.9315 -0.3078
14924SOL     OW51629   2.822   7.957   3.552  0.1321  0.4538 -0.5994
14924SOL    HW151630   2.807   8.045   3.518 -2.9668  0.0874 -0.4203
14924SOL    HW251631   2.817   7.966   3.647  1.9093  0.3474 -0.4473
14925SOL     OW51632   6.261   7.239   0.606 -0.4344  0.3429  0.1170
14925SOL    HW151633   6.223   7.163   0.650  0.1830  0.1841  0.3956
14925SOL    HW251634   6.275   7.211   0.516  0.9766 -0.3284  0.5173
14926SOL     OW51635   8.411   0.200   6.518  0.4792 -0.3521  0.2391
14926SOL    HW151636   8.369   0.243   6.443  1.0991  2.4915  1.3928
14926SOL    HW251637   8.504   0.216   6.504  0.5704  0.6859  1.8074
14927SOL     OW51638   1.036  10.385  10.584 -0.1248  0.5332  0.4410
14927SOL    HW151639   1.067  10.300  10.615  1.5401  0.6085 -0.8924
14927SOL    HW251640   1.085  10.449  10.636 -0.1920  0.6708  0.3355
14928SOL     OW51641   3.736   2.270   4.131 -0.3637  0.1816 -0.3323
14928SOL    HW151642   3.669   2.327   4.169  0.5774  1.2761 -0.2335
14928SOL    HW251643   3.741   2.195   4.190 -0.7559  0.6010  0.2482
14929SOL     OW51644   3.642   4.534   4.082  0.2532  0.2831  0.3554
14929SOL    HW151645   3.550   4.563   4.080 -0.0163 -0.4692  1.2386
14929SOL    HW251646   3.688   4.598   4.027 -0.9440  0.1201 -0.9036
14930SOL     OW51647   0.209   3.134   8.035 -0.3731 -1.0923 -0.1522
14930SOL    HW151648   0.166   3.204   8.083 -1.9019 -1.6372 -0.6883
14930SOL    HW251649   0.302   3.147   8.053 -0.7017  0.4245  0.6059
14931SOL     OW51650  12.431   6.356   4.415 -0.8796 -0.9814 -0.0317
14931SOL    HW151651  12.398   6.293   4.479  0.9530 -2.0915 -0.1041
14931SOL    HW251652  12.395   6.326   4.332 -1.9673 -0.4805  0.2432
14932SOL     OW51653   1.133   9.044   2.933  0.0683 -0.4587  0.4458
14932SOL    HW151654   1.168   8.960   2.962 -0.9129 -0.7884  0.7398
14932SOL    HW251655   1.127   9.097   3.013  0.4508 -0.1920  0.3019
14933SOL     OW51656   8.268   8.064   1.064  0.2344 -0.2380 -0.3058
14933SOL    HW151657   8.337   8.082   1.000  1.2854 -2.7647  0.0040
14933SOL    HW251658   8.283   7.973   1.090 -0.6525  0.4229  2.9262
14934SOL     OW51659   1.308   1.399  10.498 -0.2180 -0.0407  0.0529
14934SOL    HW151660   1.393   1.360  10.476 -0.3548 -0.2241 -0.1681
14934SOL    HW251661   1.257   1.325  10.532  0.7809  0.6809  3.4186
14935SOL     OW51662   9.738   7.236   5.472  0.2743 -0.1597 -0.1403
14935SOL    HW151663   9.709   7.273   5.555  1.1210 -0.4792  0.3100
14935SOL    HW251664   9.658   7.228   5.420 -0.2740 -0.0183  0.6658
14936SOL     OW51665   4.153   7.245   9.816 -0.1775 -0.2578  0.5723
14936SOL    HW151666   4.084   7.277   9.758  0.3507  1.2317  0.7002
14936SOL    HW251667   4.111   7.177   9.869 -0.8678 -1.1281 -1.0114
14937SOL     OW51668   8.104  11.582   2.790 -0.1723  0.1153 -0.5842
14937SOL    HW151669   8.067  11.659   2.746  0.7484 -0.6618 -2.8290
14937SOL    HW251670   8.053  11.508   2.756  0.7558 -0.5444 -0.5648
14938SOL     OW51671   2.860   0.831  10.543 -0.2136  0.2239 -0.3129
14938SOL    HW151672   2.929   0.842  10.608  0.3150 -0.2010 -0.7970
14938SOL    HW251673   2.794   0.777  10.587  1.1765 -2.0425 -0.8445
14939SOL     OW51674  10.538   9.583  12.163  0.2838  0.0203 -0.1418
14939SOL    HW151675  10.512   9.498  12.201 -2.3073 -0.0559 -1.8225
14939SOL    HW251676  10.525   9.645  12.235  0.7848 -0.7882  0.6816
14940SOL     OW51677   5.820   0.941   8.951 -0.4505  0.4837 -0.4956
14940SOL    HW151678   5.902   0.991   8.953 -0.5905  0.7687 -1.2736
14940SOL    HW251679   5.769   0.983   8.881 -1.0759  0.0267 -0.3184
14941SOL     OW51680   4.029   6.802   8.477  0.5518 -0.0987 -0.0580
14941SOL    HW151681   4.033   6.815   8.382  0.6777  0.9391  0.0760
14941SOL    HW251682   4.113   6.834   8.509 -0.4602  2.0278  0.6513
14942SOL     OW51683   7.962   6.020  11.742  0.0026  0.0049 -0.4579
14942SOL    HW151684   8.054   5.997  11.749 -0.1281 -1.2782 -2.2169
14942SOL    HW251685   7.926   6.003  11.829  0.9833 -1.6958 -0.3425
14943SOL     OW51686   3.131   0.584  10.492  0.0139 -0.0564 -0.1187
14943SOL    HW151687   3.099   0.619  10.410  0.6597 -0.3838 -0.5186
14943SOL    HW251688   3.183   0.507  10.467  0.1620 -0.1953  0.5929
14944SOL     OW51689   4.211   3.636   5.783 -0.0100  0.2291 -0.1660
14944SOL    HW151690   4.228   3.643   5.877 -1.8998 -0.3256  0.2560
14944SOL    HW251691   4.120   3.665   5.773  0.2429  0.5421 -1.8765
14945SOL     OW51692  11.869  11.693  10.011 -0.3028 -0.3175  0.2459
14945SOL    HW151693  11.930  11.627   9.978  1.5524  1.2141  0.4674
14945SOL    HW251694  11.879  11.767   9.950 -0.5459  0.6620  1.3687
14946SOL     OW51695   6.995  11.323   2.237 -0.5835  0.4829 -0.0324
14946SOL    HW151696   7.020  11.341   2.327 -0.0471  1.6800 -0.4075
14946SOL    HW251697   6.986  11.409   2.196 -0.1323 -0.0476 -1.3083
14947SOL     OW51698   6.574   9.349   5.735 -0.4102  0.0348  0.2527
14947SOL    HW151699   6.648   9.290   5.728 -1.1077 -0.8055 -0.2528
14947SOL    HW251700   6.572   9.395   5.651 -0.5903 -0.0889  0.1901
14948SOL     OW51701   2.937   7.245  10.877  0.3373 -0.4522  0.1763
14948SOL    HW151702   2.928   7.195  10.958  2.1222 -2.0723 -0.5618
14948SOL    HW251703   2.863   7.216  10.823  0.2181 -0.7903  0.5121
14949SOL     OW51704   4.004   5.732   5.899 -0.9245 -0.4255  0.5756
14949SOL    HW151705   3.940   5.791   5.938  1.2643  1.0833  2.1094
14949SOL    HW251706   4.060   5.705   5.972  2.2848  1.0817 -1.1175
14950SOL     OW51707   0.031   3.801   1.419 -0.3530  0.3666 -0.0278
14950SOL    HW151708   0.102   3.774   1.361 -0.9118 -1.1694 -0.0458
14950SOL    HW251709  -0.046   3.804   1.362 -0.5448  0.7031  0.2505
14951SOL     OW51710   5.691  11.165   9.044  0.0461  0.1425  0.3832
14951SOL    HW151711   5.698  11.215   9.126  0.2916  0.4993  0.1469
14951SOL    HW251712   5.598  11.167   9.023 -0.1921 -0.8917  1.2296
14952SOL     OW51713   3.837   5.051   4.731  0.2992  0.2767  0.4659
14952SOL    HW151714   3.928   5.050   4.761  0.5272  2.6742  0.0068
14952SOL    HW251715   3.825   5.137   4.692 -2.3456  0.2297  0.9898
14953SOL     OW51716   8.659   9.138   3.153 -0.2615 -0.7142 -0.0935
14953SOL    HW151717   8.564   9.132   3.149 -0.2781 -0.1497 -0.5983
14953SOL    HW251718   8.689   9.046   3.149 -0.7479 -0.8447 -1.0247
14954SOL     OW51719   5.086   6.583   5.105  0.2659  0.1052  0.5326
14954SOL    HW151720   5.033   6.609   5.030 -1.4163 -0.6009  1.4392
14954SOL    HW251721   5.094   6.488   5.097  0.3594  0.0664  1.0588
14955SOL     OW51722   6.509   7.756   1.942 -0.2438  0.0471 -0.4782
14955SOL    HW151723   6.492   7.820   2.011 -1.6884  1.2656 -1.8985
14955SOL    HW251724   6.585   7.791   1.895  0.6122 -0.6784  0.3233
14956SOL     OW51725   6.380   2.339  10.114 -0.7291 -0.0631  0.4471
14956SOL    HW151726   6.463   2.386  10.100  0.4518 -2.4476 -1.4360
14956SOL    HW251727   6.369   2.339  10.209  0.3933  1.9473  0.6503
14957SOL     OW51728   0.446   7.095   3.387  0.6107  0.3368 -0.0933
14957SOL    HW151729   0.486   7.076   3.472 -0.3065 -2.7042 -0.2400
14957SOL    HW251730   0.379   7.161   3.406  0.9362  0.2726  1.3866
14958SOL     OW51731   6.119   7.998   1.566 -0.3020 -0.5895  0.4676
14958SOL    HW151732   6.214   8.003   1.555 -0.2836  0.7299  1.0737
14958SOL    HW251733   6.082   8.031   1.484 -0.2473 -1.3189  0.1443
14959SOL     OW51734   6.497   9.908   2.110 -0.1401  0.1470 -0.5216
14959SOL    HW151735   6.419   9.944   2.068 -1.6211 -2.9467 -0.6839
14959SOL    HW251736   6.472   9.898   2.202  0.1511 -0.6092 -0.5210
14960SOL     OW51737   4.408   7.108   1.973  0.3018 -0.6297 -0.0936
14960SOL    HW151738   4.360   7.061   2.041 -3.2658  1.0643 -1.2149
14960SOL    HW251739   4.430   7.040   1.909 -0.8042 -1.4703  0.3702
14961SOL     OW51740  11.217   8.869   2.548 -0.2363  0.5330 -0.0021
14961SOL    HW151741  11.174   8.934   2.604 -0.5466  1.2653 -1.0505
14961SOL    HW251742  11.310   8.888   2.555  0.0116 -1.2743  2.5488
14962SOL     OW51743   6.893   1.642   8.215 -0.0929 -0.1546  0.0055
14962SOL    HW151744   6.886   1.562   8.163 -0.0253  0.5698 -1.1632
14962SOL    HW251745   6.822   1.698   8.183 -1.3758 -0.4749  2.1844
14963SOL     OW51746   9.566   1.568   8.117  0.6228  0.3968  0.0873
14963SOL    HW151747   9.661   1.579   8.123  0.7072 -0.4209  0.3710
14963SOL    HW251748   9.554   1.498   8.052  0.1370  1.6564 -1.2291
14964SOL     OW51749   3.183   9.852   1.132 -0.2679  0.3946  0.7392
14964SOL    HW151750   3.198   9.922   1.196 -1.2091  0.5649  0.7877
14964SOL    HW251751   3.226   9.883   1.052  0.3570  0.4779  1.1084
14965SOL     OW51752   7.152  12.316   8.247  0.1502  0.0333 -0.2678
14965SOL    HW151753   7.131  12.391   8.190  1.2501  0.3001 -0.3324
14965SOL    HW251754   7.136  12.239   8.193 -1.5584  0.1640 -0.0248
14966SOL     OW51755   7.683   5.969  11.690  0.1414  0.1557 -0.0256
14966SOL    HW151756   7.742   5.921  11.632  0.1269 -0.0972  0.1688
14966SOL    HW251757   7.729   6.051  11.709  0.2050  0.1822 -0.2852
14967SOL     OW51758   5.548   6.590   1.201  0.0941  0.2620 -0.5422
14967SOL    HW151759   5.564   6.509   1.249  1.6029  1.4722  1.1229
14967SOL    HW251760   5.511   6.650   1.266 -1.9758  0.6467 -1.9788
14968SOL     OW51761   8.928   5.037   0.748  0.6178  0.1292 -0.1182
14968SOL    HW151762   8.965   4.950   0.762 -0.9955 -0.6806 -0.7783
14968SOL    HW251763   8.834   5.027   0.762  0.0595  1.2016 -2.5914
14969SOL     OW51764   1.550   7.081   7.515 -0.1861 -1.0295 -0.8711
14969SOL    HW151765   1.607   7.127   7.577 -1.1535 -0.7069 -0.1955
14969SOL    HW251766   1.585   7.104   7.429  0.1005 -0.0130 -0.5020
14970SOL     OW51767   6.422  11.722   5.492 -0.3803 -0.4871 -0.1754
14970SOL    HW151768   6.389  11.635   5.515 -0.9189 -0.2065  0.1250
14970SOL    HW251769   6.372  11.782   5.547  1.9735 -0.1654  1.7963
14971SOL     OW51770  11.086   8.200  10.157 -0.5610 -0.2924 -0.3893
14971SOL    HW151771  10.991   8.209  10.151 -0.6353 -1.6036 -2.3818
14971SOL    HW251772  11.113   8.178  10.067  1.6163 -0.0306  0.1481
14972SOL     OW51773  10.887   2.962   6.934  0.1342  0.3568  0.6991
14972SOL    HW151774  10.954   2.925   6.990  2.4797  2.1465 -0.7083
14972SOL    HW251775  10.873   2.896   6.866  0.6944  0.0858  0.8442
14973SOL     OW51776   1.632   1.305   3.383  0.0896 -0.0052 -0.5829
14973SOL    HW151777   1.550   1.280   3.340  0.3393 -0.3043 -0.8918
14973SOL    HW251778   1.686   1.341   3.312  0.4784 -0.4352 -0.5094
14974SOL     OW51779   7.642   2.249   8.613 -0.5301  0.2679 -0.4354
14974SOL    HW151780   7.704   2.258   8.541 -0.1837  2.5144  0.0576
14974SOL    HW251781   7.607   2.337   8.626 -2.2261 -0.5199  0.7160
14975SOL     OW51782   0.040   3.327   3.829  0.0691  0.6167 -0.0595
14975SOL    HW151783  -0.004   3.264   3.886 -1.1658  1.3875 -0.1415
14975SOL    HW251784   0.052   3.281   3.746  1.5667 -0.3937  0.6700
14976SOL     OW51785   8.486  11.820  11.776  0.2199  0.8612  0.4340
14976SOL    HW151786   8.511  11.881  11.706 -0.8345  0.3008 -0.4763
14976SOL    HW251787   8.433  11.753  11.731  1.7606 -1.0442  1.2888
14977SOL     OW51788   5.989   4.390   7.162 -0.3515  0.5895  0.7093
14977SOL    HW151789   6.054   4.439   7.212 -0.2137 -1.0222  2.1926
14977SOL    HW251790   5.905   4.412   7.202 -0.2913 -0.3316  1.3735
14978SOL     OW51791   7.078   0.208   3.227  0.0858  0.5580  0.4832
14978SOL    HW151792   7.010   0.204   3.294  0.6094 -0.8541  0.9668
14978SOL    HW251793   7.060   0.133   3.170 -1.5896  2.8127 -2.2617
14979SOL     OW51794   4.835   4.213   2.954 -0.4769  0.1399 -0.1947
14979SOL    HW151795   4.921   4.228   2.915  0.4193  0.9718  1.9347
14979SOL    HW251796   4.831   4.119   2.969 -0.3973 -0.0406 -1.2440
14980SOL     OW51797   9.159   5.267   0.021 -0.0350  0.0985  0.3649
14980SOL    HW151798   9.162   5.356   0.057 -1.0319  0.6200 -0.7787
14980SOL    HW251799   9.207   5.273  -0.061  2.2087 -1.0785  1.4922
14981SOL     OW51800   2.434   0.912   0.629  0.1068 -0.1841  0.3724
14981SOL    HW151801   2.515   0.860   0.627 -0.7372 -1.6827 -2.9815
14981SOL    HW251802   2.444   0.974   0.556 -0.6218  1.6873  1.7714
14982SOL     OW51803   8.086   7.018   6.352 -0.3129  0.1522  0.0400
14982SOL    HW151804   8.110   7.110   6.359  1.6935 -0.2469 -0.8208
14982SOL    HW251805   8.127   6.977   6.428  0.1895 -0.2663 -0.4457
14983SOL     OW51806   3.675   1.943  10.711 -0.3510 -0.3755  0.2472
14983SOL    HW151807   3.749   1.941  10.650 -0.7799  0.6132 -0.3320
14983SOL    HW251808   3.655   1.851  10.727  1.0901 -0.6745  0.5370
14984SOL     OW51809  12.173   6.734  11.561 -0.1026  0.6882  0.1906
14984SOL    HW151810  12.258   6.695  11.580 -0.1712  0.6325  0.3866
14984SOL    HW251811  12.126   6.668  11.511  0.5745  1.3460 -1.3803
14985SOL     OW51812   3.393   0.488   1.943 -0.0983 -0.1625 -0.1681
14985SOL    HW151813   3.449   0.562   1.918  0.1205  0.6725  2.5154
14985SOL    HW251814   3.448   0.436   2.002 -0.6217 -1.9496 -1.1702
14986SOL     OW51815   6.121   4.669   8.008  0.0877  0.1176  0.2245
14986SOL    HW151816   6.193   4.654   7.946 -0.5288  1.0032 -0.7309
14986SOL    HW251817   6.154   4.737   8.067  0.2668  0.0580  0.1942
14987SOL     OW51818   5.195   8.551   2.311 -0.3429 -0.2410 -0.3217
14987SOL    HW151819   5.171   8.641   2.335  0.9313  0.1533 -0.4510
14987SOL    HW251820   5.141   8.496   2.368 -1.8033  0.5810 -0.8783
14988SOL     OW51821   6.668  10.795   6.851  0.3480 -0.8331 -0.0433
14988SOL    HW151822   6.575  10.773   6.855  0.2147 -0.8071 -2.1672
14988SOL    HW251823   6.677  10.869   6.911 -1.2611 -0.0689 -0.6786
14989SOL     OW51824   0.198   4.049   7.607 -0.0931 -0.2454  0.3290
14989SOL    HW151825   0.192   4.144   7.599  3.0383  0.1371  1.2612
14989SOL    HW251826   0.139   4.027   7.678 -0.0102  1.1795  0.8702
14990SOL     OW51827   8.888   4.175  12.171 -0.2914 -0.0980 -0.2899
14990SOL    HW151828   8.923   4.126  12.096 -1.0847 -0.4463 -0.4398
14990SOL    HW251829   8.806   4.211  12.139  0.2046  1.2120 -0.1293
14991SOL     OW51830   6.407   6.292   4.471 -0.6795 -0.2966  0.4547
14991SOL    HW151831   6.315   6.268   4.457 -0.6807  0.2707 -0.6500
14991SOL    HW251832   6.404   6.378   4.512 -0.6462 -0.8801  1.7037
14992SOL     OW51833   3.988   8.890   6.753 -0.0167  0.3916  0.0312
14992SOL    HW151834   4.011   8.842   6.673  1.4338  1.5946 -0.2987
14992SOL    HW251835   4.001   8.982   6.731 -0.5898  0.8188  1.3548
14993SOL     OW51836   6.604   4.498  11.272  0.8336  0.7158  0.1887
14993SOL    HW151837   6.667   4.443  11.226 -0.7192 -1.2909  0.2786
14993SOL    HW251838   6.544   4.435  11.313 -0.6726  2.5055  0.8601
14994SOL     OW51839   8.005   8.715   8.265  0.0779 -0.0487 -0.8452
14994SOL    HW151840   8.086   8.665   8.257 -0.5942 -1.1582 -0.9363
14994SOL    HW251841   8.019   8.793   8.210  0.0081 -1.6723 -3.3336
14995SOL     OW51842   0.344  10.620   7.374 -0.2015  0.1042 -0.5420
14995SOL    HW151843   0.380  10.706   7.394 -0.6258  0.1080  0.2035
14995SOL    HW251844   0.417  10.560   7.388 -0.0039  0.3008 -0.7244
14996SOL     OW51845   4.059  12.108   9.717  0.0023 -0.0551 -0.2742
14996SOL    HW151846   4.095  12.106   9.806 -0.9435 -2.1577  0.1247
14996SOL    HW251847   4.085  12.193   9.682  0.7941  0.6301  1.8467
14997SOL     OW51848  11.719   0.414   0.140  0.0855  0.0174 -0.2972
14997SOL    HW151849  11.680   0.472   0.074  1.1199  1.2130  0.1176
14997SOL    HW251850  11.755   0.341   0.089 -1.2300 -0.2927 -0.8257
14998SOL     OW51851   6.029   9.745   2.063  0.2869  0.3621  0.4818
14998SOL    HW151852   6.047   9.684   2.135  1.0615 -0.3228 -0.2752
14998SOL    HW251853   6.047   9.694   1.984 -1.6342  0.7319 -0.2571
14999SOL     OW51854   5.141   2.809   1.157  0.0635 -0.3715  0.0242
14999SOL    HW151855   5.212   2.825   1.219  1.5043  3.0919 -2.2216
14999SOL    HW251856   5.173   2.737   1.102  0.4258 -0.9000  0.8993
15000SOL     OW51857   3.652   4.180   1.013 -0.3521  0.5140 -0.0020
15000SOL    HW151858   3.578   4.208   1.068 -0.6506  0.3177 -0.2991
15000SOL    HW251859   3.695   4.112   1.065 -0.5466  0.4305  0.0527
15001SOL     OW51860   6.196   6.219   8.170  0.2630 -0.8024 -0.7608
15001SOL    HW151861   6.219   6.203   8.262  0.3297  0.5041 -0.5393
15001SOL    HW251862   6.278   6.206   8.123  0.4089 -0.6875 -0.5413
15002SOL     OW51863   5.507  12.328   6.738 -0.3712 -0.0191 -0.2495
15002SOL    HW151864   5.447  12.258   6.764 -2.3222  1.2649 -1.0828
15002SOL    HW251865   5.499  12.332   6.643 -0.3022  1.3341 -0.2119
15003SOL     OW51866   4.443   6.731   1.536  0.2035  0.7213 -0.0239
15003SOL    HW151867   4.491   6.758   1.457 -0.9183 -0.5512 -1.1830
15003SOL    HW251868   4.478   6.644   1.556  0.3554  0.9640  0.8033
15004SOL     OW51869   8.897   2.407   9.020  0.2486  0.5147 -0.3167
15004SOL    HW151870   8.963   2.475   9.032  0.0266  0.7020 -0.1294
15004SOL    HW251871   8.865   2.420   8.931 -1.3507  2.0921  0.4109
15005SOL     OW51872   4.703  11.584   0.067 -0.2119  0.3395  0.0212
15005SOL    HW151873   4.751  11.558  -0.012 -1.0595 -3.6439  0.5956
15005SOL    HW251874   4.611  11.586   0.039 -0.3471  0.7994  0.4938
15006SOL     OW51875  11.290   8.169  10.567  0.2340 -0.4314  0.0997
15006SOL    HW151876  11.273   8.216  10.649 -2.4322  1.0526 -1.1885
15006SOL    HW251877  11.238   8.089  10.575 -0.4047 -0.0639 -0.2982
15007SOL     OW51878   6.966   3.672   2.980  0.3099  0.0052  0.4164
15007SOL    HW151879   7.037   3.735   2.979 -1.3009  1.9518 -1.7209
15007SOL    HW251880   6.899   3.712   3.036  0.4778 -1.3492  1.6403
15008SOL     OW51881  10.197   6.289   7.371 -0.2687  0.4290 -0.0546
15008SOL    HW151882  10.251   6.214   7.346 -2.9098 -1.7067  0.2168
15008SOL    HW251883  10.258   6.363   7.373  2.3575 -1.5707 -0.8909
15009SOL     OW51884  11.385  10.325  10.348 -0.1355 -0.2942 -0.0137
15009SOL    HW151885  11.390  10.411  10.308 -1.1655 -0.3196 -0.2306
15009SOL    HW251886  11.450  10.272  10.302  1.2343  0.6117  0.8029
15010SOL     OW51887   5.723   7.097   1.581  0.1192 -0.4659 -0.2265
15010SOL    HW151888   5.708   7.006   1.607 -0.1317 -0.8641 -1.6953
15010SOL    HW251889   5.665   7.111   1.506  0.9929  0.5647 -0.7325
15011SOL     OW51890   0.544  10.346   1.068  0.3804 -0.6082  0.8055
15011SOL    HW151891   0.563  10.299   0.987  0.6623  1.1052 -0.1480
15011SOL    HW251892   0.468  10.301   1.104 -1.4117  0.1732 -1.7627
15012SOL     OW51893   8.805   5.434   1.230  0.7938  0.6489 -0.2427
15012SOL    HW151894   8.758   5.449   1.148 -0.2198 -0.9799  0.0006
15012SOL    HW251895   8.887   5.392   1.203 -0.2146 -1.3721 -0.4044
15013SOL     OW51896   0.504  11.789   5.269 -0.1340  0.1216 -0.3414
15013SOL    HW151897   0.534  11.849   5.337  1.2225 -0.3894 -0.4604
15013SOL    HW251898   0.410  11.805   5.263 -0.3237  0.0847  1.7501
15014SOL     OW51899   5.930   1.664  12.563  0.2286 -0.5454  0.5078
15014SOL    HW151900   5.842   1.678  12.528 -0.1825 -0.9224  1.3653
15014SOL    HW251901   5.985   1.654  12.485 -0.5872 -0.9533 -0.0344
15015SOL     OW51902   1.191   5.460   4.725 -0.0436 -0.2861 -0.4668
15015SOL    HW151903   1.132   5.535   4.716 -0.4352 -0.6991 -1.3879
15015SOL    HW251904   1.184   5.436   4.817 -0.2975  0.4921 -0.2715
15016SOL     OW51905  10.496  11.409  10.296 -0.0107  0.2760 -0.4404
15016SOL    HW151906  10.419  11.400  10.240 -0.2690 -1.5150  0.1622
15016SOL    HW251907  10.462  11.446  10.377 -1.0555 -3.8486  1.2546
15017SOL     OW51908   2.571   7.992   6.946  0.0088 -0.5033 -0.4932
15017SOL    HW151909   2.599   7.944   7.024 -1.3865  0.8345  0.9150
15017SOL    HW251910   2.649   7.998   6.892  1.4779 -0.1490  1.5307
15018SOL     OW51911   0.135   1.841   0.279 -0.8510 -0.1599 -0.4639
15018SOL    HW151912   0.047   1.806   0.273 -0.7603 -0.7692  1.2835
15018SOL    HW251913   0.138   1.886   0.363  0.2357  0.6368 -0.8995
15019SOL     OW51914   2.509  12.075   9.132 -0.1509 -0.2506 -0.0775
15019SOL    HW151915   2.430  12.029   9.104 -0.2811 -0.0080 -0.1136
15019SOL    HW251916   2.559  12.086   9.051  0.4050 -1.3199  0.1093
15020SOL     OW51917   8.721  11.187  11.482 -0.4495 -0.0583 -0.4263
15020SOL    HW151918   8.670  11.265  11.506 -1.8590 -0.8600 -0.7038
15020SOL    HW251919   8.776  11.170  11.558 -1.2269  0.3377  0.2413
15021SOL     OW51920   1.030   0.939  11.470  0.0305  0.1739  0.5965
15021SOL    HW151921   1.077   0.858  11.494  0.1418 -0.2149 -0.8793
15021SOL    HW251922   0.938   0.919  11.487  0.0393 -0.3348  0.0570
15022SOL     OW51923   4.152   7.753   8.319 -0.6439  0.3252  0.3133
15022SOL    HW151924   4.153   7.841   8.281 -0.5204  0.5674  0.8642
15022SOL    HW251925   4.176   7.766   8.411  1.9988 -0.5510 -0.1635
15023SOL     OW51926   4.279   0.343   5.988 -0.6374  0.3100 -0.2847
15023SOL    HW151927   4.185   0.334   6.006 -0.9740 -0.6547 -2.2541
15023SOL    HW251928   4.295   0.282   5.916  1.4898  0.5725 -0.0877
15024SOL     OW51929  11.391   4.725  11.863  0.0902 -0.5427  0.4946
15024SOL    HW151930  11.396   4.724  11.959  1.0537 -0.7575  0.4524
15024SOL    HW251931  11.307   4.683  11.844 -0.4532  0.1613  1.2561
15025SOL     OW51932   7.050   4.415   6.267  0.3386 -0.2116 -0.7703
15025SOL    HW151933   6.959   4.422   6.238  0.4489  1.0970 -0.8547
15025SOL    HW251934   7.091   4.358   6.201 -0.5006 -1.1777 -0.4852
15026SOL     OW51935   9.278  11.621   1.448 -0.1594  0.0030  0.2651
15026SOL    HW151936   9.208  11.596   1.388 -1.0510 -0.4526  1.4666
15026SOL    HW251937   9.241  11.609   1.535  0.8304  1.4350  0.9257
15027SOL     OW51938   1.887   7.189  10.251  0.1519  0.4495 -0.3503
15027SOL    HW151939   1.850   7.247  10.318 -1.2707 -1.4034  0.5621
15027SOL    HW251940   1.967   7.155  10.291 -0.5482 -0.4355  0.3542
15028SOL     OW51941   4.985  10.515  10.493 -0.3704 -0.0711 -0.1389
15028SOL    HW151942   4.970  10.421  10.504 -0.1806 -0.0573  0.2277
15028SOL    HW251943   4.917  10.556  10.547  0.2211 -0.0024  0.5571
15029SOL     OW51944   9.308   2.974  12.113 -0.3010 -0.5724  0.2003
15029SOL    HW151945   9.344   3.054  12.152 -1.4708 -0.0192  0.1715
15029SOL    HW251946   9.307   2.911  12.185  0.2890 -0.4578  0.3157
15030SOL     OW51947   8.771  10.794   6.885 -0.0622  0.2477  0.2113
15030SOL    HW151948   8.709  10.794   6.958  0.1847 -0.2850  0.4221
15030SOL    HW251949   8.731  10.853   6.821 -1.0474 -0.4728  0.1354
15031SOL     OW51950   1.103   6.709   3.691 -0.2916 -0.1302  0.3866
15031SOL    HW151951   1.033   6.662   3.737 -1.0046  0.6392  0.1108
15031SOL    HW251952   1.084   6.695   3.598  0.9016 -1.3272  0.3102
15032SOL     OW51953   7.443   8.196   1.693 -0.0160 -0.0381 -0.7400
15032SOL    HW151954   7.505   8.207   1.765 -0.5742 -0.2506 -0.2261
15032SOL    HW251955   7.459   8.106   1.662  1.2924  0.5561 -1.9007
15033SOL     OW51956   7.034   1.370   6.565  0.0143  0.2461 -0.3055
15033SOL    HW151957   7.117   1.405   6.533  0.0069  2.0900  1.4602
15033SOL    HW251958   7.051   1.277   6.580  1.4819  0.4105 -0.8247
15034SOL     OW51959  12.007   0.194   6.754 -0.0539  0.1831  0.2194
15034SOL    HW151960  12.068   0.209   6.826 -1.7243 -1.3906  2.0796
15034SOL    HW251961  12.061   0.158   6.684  1.4077  0.5236  1.1277
15035SOL     OW51962   1.007   6.782   0.143 -0.1436  0.7763 -0.1308
15035SOL    HW151963   1.050   6.769   0.228  1.0109  0.3170 -0.7581
15035SOL    HW251964   0.991   6.876   0.138 -0.6438  0.7546  0.7775
15036SOL     OW51965   7.247  11.525   9.958 -0.2352 -0.5041 -0.1328
15036SOL    HW151966   7.225  11.508   9.867  0.5880 -0.5714 -0.3278
15036SOL    HW251967   7.205  11.609   9.978  2.1489  1.1369 -1.5370
15037SOL     OW51968   2.525   9.065   7.877  0.0282 -0.1112  0.2365
15037SOL    HW151969   2.574   9.016   7.812 -0.2679 -0.5401  0.3364
15037SOL    HW251970   2.592   9.113   7.926  0.1457  1.7873 -1.6239
15038SOL     OW51971   3.931  11.020   9.241  0.0787  0.6871 -0.0722
15038SOL    HW151972   3.961  11.105   9.272  0.5479  0.6385 -0.3768
15038SOL    HW251973   3.854  11.040   9.187  0.6395  1.0095 -0.7838
15039SOL     OW51974   5.036   1.827  10.822  0.1430 -0.1128 -0.3897
15039SOL    HW151975   4.990   1.903  10.855 -0.2771 -0.2974 -0.5412
15039SOL    HW251976   5.095   1.861  10.754  0.8802  0.2416  0.4060
15040SOL     OW51977   1.105  11.505   0.570  0.1535 -0.5447 -0.0987
15040SOL    HW151978   1.037  11.544   0.515  0.1445 -0.4720 -0.0360
15040SOL    HW251979   1.057  11.446   0.628 -0.2284  1.5515  1.8666
15041SOL     OW51980   5.446   1.115   8.474 -0.1421  0.2824 -0.2141
15041SOL    HW151981   5.423   1.116   8.567 -0.8252 -0.7397 -0.3632
15041SOL    HW251982   5.509   1.044   8.465  1.8168  1.8979 -0.1403
15042SOL     OW51983  12.316   1.439   3.325  0.0719  0.5447  0.4121
15042SOL    HW151984  12.398   1.467   3.366  1.0686  0.2632 -1.2664
15042SOL    HW251985  12.340   1.363   3.272 -1.3395  0.2746  0.1098
15043SOL     OW51986   0.430  10.703  12.161  0.3234  0.0490 -0.1811
15043SOL    HW151987   0.357  10.671  12.109 -0.1379  1.2932 -0.3176
15043SOL    HW251988   0.464  10.624  12.204 -2.3806 -0.3302  1.5300
15044SOL     OW51989   3.813   3.344  11.354  1.3568  0.2724 -0.3327
15044SOL    HW151990   3.840   3.252  11.344 -0.6747 -0.4568  0.2713
15044SOL    HW251991   3.864   3.391  11.289  0.5943 -1.7036 -2.4914
15045SOL     OW51992   2.576  11.560   4.723  0.3635 -0.0280 -0.2220
15045SOL    HW151993   2.666  11.563   4.691  0.2826 -0.8535 -0.5507
15045SOL    HW251994   2.524  11.590   4.648  0.1845 -1.8386 -0.8716
15046SOL     OW51995   8.552   5.148  10.193 -0.4896  0.2869 -0.2972
15046SOL    HW151996   8.616   5.185  10.252 -0.1728  0.4573 -0.7405
15046SOL    HW251997   8.565   5.195  10.110 -1.5765  0.7420 -0.2286
15047SOL     OW51998   5.671  12.087   9.519 -0.4766 -0.6823  0.4681
15047SOL    HW151999   5.764  12.065   9.509 -0.0113  1.1440  0.4633
15047SOL    HW252000   5.664  12.118   9.609 -0.3332  2.2495 -0.4128
15048SOL     OW52001  11.309   9.038   0.992  0.0710 -0.7878 -1.1270
15048SOL    HW152002  11.355   9.115   0.958 -0.0806 -0.3064 -0.2757
15048SOL    HW252003  11.236   9.074   1.042 -0.9165 -1.5273 -1.9754
15049SOL     OW52004   8.140   0.638   8.798  0.5108  0.0926 -0.2773
15049SOL    HW152005   8.210   0.688   8.842 -2.6111  4.0206  0.8581
15049SOL    HW252006   8.100   0.587   8.868  0.5638 -0.0178 -0.3278
15050SOL     OW52007   7.115   9.399  11.911  0.6289 -0.1926 -0.7063
15050SOL    HW152008   7.173   9.389  11.987  1.3489  1.2282 -1.0502
15050SOL    HW252009   7.065   9.478  11.929  1.1988  0.4758 -1.9652
15051SOL     OW52010   5.471   2.841   1.098 -0.0601  0.2011 -0.5226
15051SOL    HW152011   5.471   2.785   1.020  0.2993 -1.2007  0.4482
15051SOL    HW252012   5.564   2.858   1.114 -0.0228 -0.9405  0.5672
15052SOL     OW52013   7.751  11.170   3.984 -0.5473 -0.2717  0.4966
15052SOL    HW152014   7.845  11.189   3.996 -0.1277 -2.1425  0.4537
15052SOL    HW252015   7.725  11.226   3.911  1.4469 -2.1418 -1.8476
15053SOL     OW52016   7.235   6.737   7.025  0.5788 -0.5341  0.4507
15053SOL    HW152017   7.257   6.709   7.114  2.0832  0.9331  0.5864
15053SOL    HW252018   7.316   6.724   6.975  0.1138 -0.1807 -0.4130
15054SOL     OW52019   2.684  10.027   9.224 -0.3811 -0.0052 -0.2193
15054SOL    HW152020   2.724   9.963   9.282  0.5281  0.5407 -0.2376
15054SOL    HW252021   2.630  10.082   9.282 -1.6214 -1.1084 -0.2795
15055SOL     OW52022  10.751   8.999  12.015  0.4888 -0.0927  0.1382
15055SOL    HW152023  10.821   8.950  12.058 -0.1487 -0.1469  1.1487
15055SOL    HW252024  10.774   8.999  11.922 -0.5119 -4.0465 -0.2635
15056SOL     OW52025   0.043   4.352   8.875 -0.6283  0.2152  0.3427
15056SOL    HW152026   0.052   4.336   8.970  1.7114 -1.3016 -0.0413
15056SOL    HW252027   0.076   4.440   8.863  2.7055 -0.8729  0.5917
15057SOL     OW52028  10.509   7.955   2.051 -0.3008  0.5253  0.3547
15057SOL    HW152029  10.593   7.981   2.090  0.2750  1.3088 -1.3113
15057SOL    HW252030  10.447   8.021   2.083  0.1817  1.2174 -0.1095
15058SOL     OW52031   5.961   7.205   0.252 -0.0625 -0.0983 -0.1736
15058SOL    HW152032   6.031   7.164   0.303  0.4486  0.9539 -0.0102
15058SOL    HW252033   5.950   7.292   0.290 -0.8886  0.0612 -0.7322
15059SOL     OW52034  10.724  12.071   0.879 -0.0420 -0.1515  0.0167
15059SOL    HW152035  10.636  12.061   0.843  1.1147 -1.2025 -2.8271
15059SOL    HW252036  10.769  11.990   0.856  1.7063  0.3543  1.3949
15060SOL     OW52037   4.913   2.310   7.282 -0.3115  0.4925  0.0346
15060SOL    HW152038   4.958   2.382   7.237 -0.2725  1.0123  0.8665
15060SOL    HW252039   4.842   2.353   7.330 -1.1972 -0.2209 -0.6206
15061SOL     OW52040   4.419   7.365   6.035  0.1673 -0.2883 -0.3247
15061SOL    HW152041   4.502   7.406   6.008  0.1188 -0.5614 -0.9026
15061SOL    HW252042   4.360   7.439   6.049  0.4250 -0.1038 -0.1925
15062SOL     OW52043   6.141  12.403  12.139  0.1701 -0.2172  0.8179
15062SOL    HW152044   6.047  12.409  12.156  0.1690 -0.0543  0.7591
15062SOL    HW252045   6.182  12.429  12.221  0.1647  0.6844  0.5520
15063SOL     OW52046   1.097   1.111   0.940 -0.4624 -0.4387 -0.6972
15063SOL    HW152047   1.029   1.059   0.982  0.3039 -0.2340  0.8455
15063SOL    HW252048   1.140   1.050   0.880  0.1962 -1.5246  0.8342
15064SOL     OW52049   9.374   4.504   8.745 -0.2677 -0.1852  0.2768
15064SOL    HW152050   9.423   4.545   8.673 -1.6764 -0.6401 -0.9809
15064SOL    HW252051   9.434   4.439   8.781 -0.3562 -1.7234 -2.1467
15065SOL     OW52052   2.767  11.354   1.482 -0.0061 -0.2427  0.2389
15065SOL    HW152053   2.746  11.330   1.391  1.6925 -0.0397 -0.2255
15065SOL    HW252054   2.689  11.400   1.513  0.4268  2.2590 -2.0643
15066SOL     OW52055   5.692   6.959  11.836  0.5803  0.5856  0.2833
15066SOL    HW152056   5.733   7.043  11.815  1.0001  0.2118 -0.4519
15066SOL    HW252057   5.765   6.904  11.865  0.1477  0.7873  1.8206
15067SOL     OW52058   1.024   4.952   7.455 -0.6493  0.5963  0.2242
15067SOL    HW152059   1.120   4.948   7.455 -0.6427 -1.2383  2.6431
15067SOL    HW252060   1.001   4.973   7.545 -2.5498 -0.6489  0.0826
15068SOL     OW52061   8.974   5.033   4.553 -0.2206  0.4485 -0.4127
15068SOL    HW152062   9.038   5.079   4.499  0.0659  0.2688 -0.2269
15068SOL    HW252063   8.982   4.941   4.529 -0.5721  0.4521 -0.5544
15069SOL     OW52064   3.643   0.518  11.108 -0.0212  0.1019 -0.4615
15069SOL    HW152065   3.715   0.548  11.163  1.3713  1.5423 -2.9346
15069SOL    HW252066   3.589   0.596  11.095 -1.3384 -0.6557  0.2705
15070SOL     OW52067  10.214   6.869   6.817  0.2063 -0.9269 -0.5943
15070SOL    HW152068  10.195   6.779   6.845 -1.1507 -0.3807  0.3356
15070SOL    HW252069  10.131   6.902   6.785  0.4306  0.3524  0.0959
15071SOL     OW52070   4.234   5.384   8.539 -0.1744 -0.2960  0.3314
15071SOL    HW152071   4.173   5.396   8.611  1.2614  2.5944  1.1986
15071SOL    HW252072   4.317   5.362   8.580  0.2838 -0.3422 -0.5832
15072SOL     OW52073   5.842  11.277   5.022 -0.1975  0.5429 -0.2661
15072SOL    HW152074   5.820  11.184   5.011  0.5253 -0.0218  2.3951
15072SOL    HW252075   5.818  11.297   5.113  0.9042  2.6101 -0.3602
15073SOL     OW52076   2.532   6.162   9.887  0.5909 -0.2068  0.3602
15073SOL    HW152077   2.532   6.126   9.798  1.2729 -0.6317  0.5284
15073SOL    HW252078   2.516   6.256   9.874 -1.4342 -0.5699 -0.0580
15074SOL     OW52079   6.185   5.921   9.160  0.2363  0.5369 -0.5829
15074SOL    HW152080   6.225   5.921   9.073 -0.5522  1.5709 -0.9741
15074SOL    HW252081   6.255   5.891   9.218  1.0310  0.6042 -1.4634
15075SOL     OW52082   8.853   7.954  10.129  0.0561 -0.4525  0.8869
15075SOL    HW152083   8.804   8.030  10.159  0.7125 -0.4833  2.0690
15075SOL    HW252084   8.845   7.890  10.200 -1.1102 -1.8081 -0.3896
15076SOL     OW52085   7.945  11.443  10.692 -0.2672  0.3814 -0.1867
15076SOL    HW152086   7.970  11.535  10.696  0.4598  0.1662  0.9708
15076SOL    HW252087   8.028  11.396  10.702 -0.7380 -0.3824  0.2079
15077SOL     OW52088   3.383   9.382   7.983  0.1509  0.4098 -0.0231
15077SOL    HW152089   3.318   9.448   8.006  0.5815  0.2267  1.8673
15077SOL    HW252090   3.431   9.420   7.910  0.0891  1.9867  0.7145
15078SOL     OW52091  10.176   7.135   0.365  0.2950 -0.3615  0.3261
15078SOL    HW152092  10.145   7.153   0.454  1.3021 -0.8733  0.7896
15078SOL    HW252093  10.240   7.203   0.347 -1.2110  0.8692 -0.7463
15079SOL     OW52094   0.654   1.188   9.501 -0.6381  0.0071 -0.2224
15079SOL    HW152095   0.565   1.193   9.536 -1.4098  2.0503 -2.1997
15079SOL    HW252096   0.707   1.242   9.560  0.1735 -3.6683  2.8344
15080SOL     OW52097   9.032  12.276   3.235 -0.0496  0.3016  0.4160
15080SOL    HW152098   9.008  12.274   3.328 -1.5454 -1.2696  0.0373
15080SOL    HW252099   8.964  12.226   3.191  0.6667  0.9530 -1.5551
15081SOL     OW52100   2.333   5.095  11.437 -0.1893 -0.4088  0.2165
15081SOL    HW152101   2.374   5.049  11.364 -1.3001 -0.3179 -0.4811
15081SOL    HW252102   2.251   5.049  11.452  0.1243 -0.5711  1.5799
15082SOL     OW52103   5.684   0.523   1.583  0.0016  0.1329  0.0107
15082SOL    HW152104   5.730   0.568   1.653  0.6159 -0.3682 -0.0574
15082SOL    HW252105   5.662   0.591   1.520  1.0510  0.3235 -0.1645
15083SOL     OW52106   2.889   3.697   5.815 -0.0070  0.1698 -0.2963
15083SOL    HW152107   2.983   3.681   5.811 -0.0966 -0.5116  0.1068
15083SOL    HW252108   2.855   3.624   5.867 -0.9264 -0.2858 -1.5182
15084SOL     OW52109   5.469   1.073   6.920 -0.4554  0.6235  0.0951
15084SOL    HW152110   5.515   1.109   6.995 -1.4446  0.0088  1.0153
15084SOL    HW252111   5.532   1.014   6.878 -1.0957 -2.1732  2.7603
15085SOL     OW52112   6.660   7.475   6.054  0.1629  0.6175 -0.0852
15085SOL    HW152113   6.716   7.541   6.011 -1.0956  1.9633  0.2608
15085SOL    HW252114   6.691   7.392   6.019  0.6509  1.5067 -1.9157
15086SOL     OW52115  10.738   7.289   7.688  0.0476  0.1851 -0.0872
15086SOL    HW152116  10.716   7.265   7.778 -1.9011  0.2104 -0.4998
15086SOL    HW252117  10.759   7.206   7.645  3.3835  0.4041  0.9099
15087SOL     OW52118   6.691   1.615   5.299 -0.4173  0.0249 -0.3339
15087SOL    HW152119   6.712   1.621   5.206 -0.7838  1.3357 -0.3488
15087SOL    HW252120   6.608   1.569   5.302 -0.3442 -0.1314 -0.6390
15088SOL     OW52121   8.781  11.052  12.484  0.1637  0.2310  0.2026
15088SOL    HW152122   8.808  11.143  12.472 -1.4236  0.4514 -2.8020
15088SOL    HW252123   8.856  11.000  12.456  0.9439  0.5636  1.5796
15089SOL     OW52124   1.685   1.958  11.965 -0.2897 -0.0168 -0.4139
15089SOL    HW152125   1.695   2.010  12.045 -0.0432  1.3369 -1.2895
15089SOL    HW252126   1.611   1.900  11.984 -0.1179  0.1465  0.8564
15090SOL     OW52127   1.218   6.711   3.208 -0.0836  0.3589  0.4042
15090SOL    HW152128   1.186   6.643   3.148 -0.8963  1.7702 -0.8230
15090SOL    HW252129   1.313   6.705   3.203 -0.0988 -1.6852  1.5221
15091SOL     OW52130   3.618  11.418   4.598  0.6946 -0.0901  0.1577
15091SOL    HW152131   3.603  11.360   4.522 -2.2705 -0.8693  1.1871
15091SOL    HW252132   3.672  11.489   4.564 -0.7192 -0.2743 -2.8110
15092SOL     OW52133   6.417   0.005   6.899  0.3404  0.2555 -0.1884
15092SOL    HW152134   6.504  -0.007   6.938 -0.3579  0.1352  1.4489
15092SOL    HW252135   6.420   0.092   6.860  0.8229  0.7795  0.9589
15093SOL     OW52136   8.166   6.817   9.813 -0.1525 -0.9597 -0.2324
15093SOL    HW152137   8.140   6.791   9.725  0.9495 -1.1190 -0.5258
15093SOL    HW252138   8.132   6.906   9.824 -0.5742 -1.0661 -0.6924
15094SOL     OW52139  10.704   7.464   3.715  0.3663 -0.1932  0.2057
15094SOL    HW152140  10.792   7.428   3.702 -0.0283 -1.6086  1.2791
15094SOL    HW252141  10.718   7.541   3.770  0.9777 -0.1309 -0.0270
15095SOL     OW52142   4.036   4.026   2.359  0.1568 -0.4145 -0.0793
15095SOL    HW152143   4.071   4.050   2.445  0.1588 -2.8178  0.6545
15095SOL    HW252144   3.959   4.081   2.348  0.9147  0.8898  0.8394
15096SOL     OW52145   0.111   6.305   5.362  0.7936  0.1885  0.2680
15096SOL    HW152146   0.183   6.307   5.299 -0.7155  0.5079 -1.5211
15096SOL    HW252147   0.049   6.242   5.326 -1.2167  2.1526  0.1400
15097SOL     OW52148  12.540   3.942   8.503  0.2449  0.1437  0.2452
15097SOL    HW152149  12.599   3.955   8.577 -1.4147 -0.7204  1.8072
15097SOL    HW252150  12.492   4.025   8.497  1.5929  0.8866 -1.0952
15098SOL     OW52151   4.012  10.482   4.930 -0.1294  0.6711  0.4621
15098SOL    HW152152   4.092  10.432   4.946 -0.0083  0.1883 -1.4862
15098SOL    HW252153   3.942  10.417   4.930  0.0426  0.3699 -2.2003
15099SOL     OW52154   8.195   5.918   6.402 -0.2842  0.3755 -0.2208
15099SOL    HW152155   8.232   5.937   6.488 -0.7289  0.5945 -0.0744
15099SOL    HW252156   8.248   5.846   6.368  0.6252  1.0442 -0.2516
15100SOL     OW52157   8.762   6.746   2.935 -0.0007  0.0571 -0.3731
15100SOL    HW152158   8.760   6.755   3.030  1.8252  0.4777 -0.3398
15100SOL    HW252159   8.731   6.657   2.919  0.4922 -0.3279  0.6933
15101SOL     OW52160   3.680   5.724   8.009 -0.3039 -0.9952  0.6633
15101SOL    HW152161   3.671   5.653   7.946  0.1126  0.2522 -0.8828
15101SOL    HW252162   3.755   5.775   7.978  0.3079 -0.6704  2.5406
15102SOL     OW52163   6.799   8.403   9.097 -0.0595 -0.0505  0.0766
15102SOL    HW152164   6.870   8.457   9.065 -0.0824 -0.1730 -0.1831
15102SOL    HW252165   6.738   8.465   9.138 -1.1201  0.4007 -2.0690
15103SOL     OW52166  12.513   8.682  11.945 -0.0577 -0.4788  0.0352
15103SOL    HW152167  12.439   8.624  11.930 -0.2995  0.0876 -1.0679
15103SOL    HW252168  12.567   8.674  11.866 -0.9113  1.9606 -0.8905
15104SOL     OW52169   7.134  11.826   6.227 -0.4795 -0.1060 -0.4312
15104SOL    HW152170   7.119  11.886   6.300 -3.0836 -1.6146  0.4347
15104SOL    HW252171   7.113  11.740   6.264  0.3511 -1.1971 -2.3795
15105SOL     OW52172   5.334   0.317  11.813  0.0432  0.5521  0.8910
15105SOL    HW152173   5.393   0.370  11.760 -2.6569  0.9991 -1.9410
15105SOL    HW252174   5.381   0.235  11.826  0.8647  0.3483 -2.4693
15106SOL     OW52175  12.008   5.555   4.121 -0.4349  0.4088 -0.6996
15106SOL    HW152176  12.056   5.542   4.040 -1.4696  1.3968 -1.4946
15106SOL    HW252177  11.916   5.543   4.097 -0.6333 -1.4846  0.7940
15107SOL     OW52178   1.375   7.763   2.540 -0.4896  0.6764  0.1559
15107SOL    HW152179   1.361   7.728   2.452 -1.0290  0.2467  0.4017
15107SOL    HW252180   1.292   7.806   2.561 -0.3613  0.7789  0.4526
15108SOL     OW52181   2.056  10.236   3.219 -0.0690  0.2142  0.3567
15108SOL    HW152182   2.004  10.161   3.190 -0.1657 -0.3324  1.8726
15108SOL    HW252183   2.143  10.200   3.235 -0.0751  0.4521  0.9508
15109SOL     OW52184   3.280   0.187   0.145  0.1208 -0.2058 -0.5334
15109SOL    HW152185   3.191   0.152   0.132 -0.3850  0.1816  1.5009
15109SOL    HW252186   3.293   0.246   0.072 -1.3252 -0.2429 -0.8628
15110SOL     OW52187   5.839   7.757  10.181  0.0068  0.2435  0.2065
15110SOL    HW152188   5.826   7.843  10.141  1.3313  0.5376  0.3505
15110SOL    HW252189   5.926   7.762  10.220  0.2679 -1.2981 -0.1223
15111SOL     OW52190   8.705   9.007   4.351 -0.1281  1.1871 -0.1937
15111SOL    HW152191   8.706   9.048   4.264  0.6441 -1.7296 -1.7058
15111SOL    HW252192   8.615   8.973   4.359  0.0144  0.7978 -0.2191
15112SOL     OW52193   9.217   1.312  11.511 -0.4906  0.1906 -0.3057
15112SOL    HW152194   9.194   1.231  11.466  1.1482 -0.2388 -0.4512
15112SOL    HW252195   9.134   1.348  11.540 -1.5650  0.1536 -3.0965
15113SOL     OW52196   1.740  10.638   1.067  0.1999  0.1192  0.2897
15113SOL    HW152197   1.794  10.598   1.135  2.1601  0.0174 -1.2265
15113SOL    HW252198   1.654  10.600   1.079  0.8579 -0.9645  1.8255
15114SOL     OW52199  10.849  12.142  11.399  0.2364  0.0504 -0.4491
15114SOL    HW152200  10.887  12.200  11.465 -0.3007 -2.9835  2.7926
15114SOL    HW252201  10.922  12.120  11.341  0.8258  2.4275 -0.7219
15115SOL     OW52202   9.223   9.280   5.528  0.2897 -0.3228 -0.1846
15115SOL    HW152203   9.192   9.361   5.488  1.9712  0.5993  0.2954
15115SOL    HW252204   9.268   9.234   5.458 -1.4299 -1.3298 -0.6966
15116SOL     OW52205   9.908   6.353   6.897 -0.0172 -0.2391  0.4212
15116SOL    HW152206   9.902   6.274   6.951 -0.6137 -0.2327  0.3711
15116SOL    HW252207   9.838   6.343   6.833 -0.5072  0.6265  0.8046
15117SOL     OW52208  10.551   9.259   1.211 -0.3650  0.5419  0.2594
15117SOL    HW152209  10.490   9.281   1.141 -0.0289  1.5826  0.2764
15117SOL    HW252210  10.527   9.170   1.237 -3.2467  1.6279  1.6896
15118SOL     OW52211   9.195  10.714   5.368  1.0354  0.1512  0.0881
15118SOL    HW152212   9.234  10.764   5.296 -0.4701  0.5410 -0.4832
15118SOL    HW252213   9.161  10.781   5.427  2.4909 -0.1589  1.3377
15119SOL     OW52214   8.237   2.531   4.156  0.1864 -0.3826 -0.5339
15119SOL    HW152215   8.223   2.589   4.230  0.6808  0.9964 -1.4804
15119SOL    HW252216   8.151   2.523   4.115  0.2359  0.2238 -0.7681
15120SOL     OW52217   0.769  12.567  12.478  0.4789  0.2828 -0.2839
15120SOL    HW152218   0.759  12.472  12.475 -1.9478  0.4984 -1.4949
15120SOL    HW252219   0.760  12.595  12.387 -0.2505  1.7718  0.2207
15121SOL     OW52220   7.085   9.340   6.319 -0.0912 -0.2158 -0.5888
15121SOL    HW152221   7.027   9.400   6.366  0.0066 -0.0663 -0.6586
15121SOL    HW252222   7.108   9.273   6.383 -0.0148 -0.0500 -0.4451
15122SOL     OW52223   6.733   2.681   6.034  0.6639  0.2968 -0.4346
15122SOL    HW152224   6.749   2.713   5.945  1.1526 -1.2787 -0.9471
15122SOL    HW252225   6.727   2.586   6.024 -0.8893  0.2026  0.9949
15123SOL     OW52226  12.348  10.107   3.212  0.0272 -0.1341  0.4943
15123SOL    HW152227  12.308  10.187   3.247  2.3017  0.2665  2.5111
15123SOL    HW252228  12.421  10.139   3.158 -0.3982 -0.8619 -0.5427
15124SOL     OW52229  11.064  10.783   3.836 -0.1518  0.1987 -0.0275
15124SOL    HW152230  11.089  10.787   3.743  1.2266 -1.0639  0.2574
15124SOL    HW252231  10.975  10.750   3.836  0.5530 -1.8494 -0.8663
15125SOL     OW52232   0.554  10.471   9.759 -0.3040  0.4697  0.0076
15125SOL    HW152233   0.597  10.548   9.722  1.8890 -0.7945 -0.2794
15125SOL    HW252234   0.543  10.412   9.685 -0.4484 -0.1217  0.4945
15126SOL     OW52235   3.849   5.983   6.566 -0.4948 -0.2348  0.0191
15126SOL    HW152236   3.841   6.042   6.491  0.5801 -0.0444  0.0417
15126SOL    HW252237   3.759   5.954   6.582 -0.8661  0.3921 -0.7943
15127SOL     OW52238  10.117   6.076   4.385  0.7975 -0.3914  0.0363
15127SOL    HW152239  10.053   6.030   4.439 -0.4130 -0.2328 -1.2258
15127SOL    HW252240  10.183   6.107   4.447 -2.0121  2.3831  1.9557
15128SOL     OW52241   2.286   6.935   1.328 -0.2306  0.2217  0.2054
15128SOL    HW152242   2.219   6.996   1.357 -1.2066 -1.2898  1.2910
15128SOL    HW252243   2.282   6.863   1.391  2.1121 -0.1451  0.0496
15129SOL     OW52244   3.561   0.647  11.387 -0.3721  0.0884  0.0266
15129SOL    HW152245   3.544   0.686  11.473  2.0454  0.1715  0.5146
15129SOL    HW252246   3.517   0.562  11.390 -1.1231  0.4962  0.9722
15130SOL     OW52247   2.950   4.400   0.285  0.0131  0.4812 -0.7691
15130SOL    HW152248   2.985   4.459   0.352  0.3234  0.1855 -0.6623
15130SOL    HW252249   3.019   4.394   0.219 -0.3168  0.8169 -1.1498
15131SOL     OW52250  12.499   4.552   7.491 -0.0831 -0.6789  0.6854
15131SOL    HW152251  12.411   4.585   7.471  0.5319  0.3279 -0.5634
15131SOL    HW252252  12.529   4.607   7.563  0.3403  0.4776 -0.3510
15132SOL     OW52253   0.421   3.956   5.885 -0.3292 -0.4224 -0.1390
15132SOL    HW152254   0.362   3.885   5.911 -0.7298  0.2897  0.9652
15132SOL    HW252255   0.494   3.950   5.946  0.0372 -0.3896 -0.5681
15133SOL     OW52256   9.456   4.269  10.378  0.0266  0.0984 -0.0329
15133SOL    HW152257   9.442   4.222  10.296  1.9404  1.3839 -1.1597
15133SOL    HW252258   9.537   4.233  10.413  0.0713  0.6835  0.4793
15134SOL     OW52259  10.719   1.212   5.676 -0.0647  0.3614 -0.0081
15134SOL    HW152260  10.672   1.153   5.618  2.7503 -0.0912 -2.0407
15134SOL    HW252261  10.730   1.162   5.757 -0.5723 -0.6059 -0.5134
15135SOL     OW52262  11.576   8.950   0.428 -0.0031  0.7295 -0.2113
15135SOL    HW152263  11.653   8.997   0.460  1.2412 -0.7610 -0.8313
15135SOL    HW252264  11.597   8.858   0.442 -1.0623  0.2148 -1.6995
15136SOL     OW52265   3.701   5.263   1.184 -0.3488 -0.5445  0.0463
15136SOL    HW152266   3.666   5.175   1.171 -0.5246 -0.5328  0.4298
15136SOL    HW252267   3.647   5.301   1.253 -0.1483 -0.2038  0.0215
15137SOL     OW52268  10.719   7.086   9.435 -0.1074 -0.4039  0.1951
15137SOL    HW152269  10.711   7.082   9.339 -0.5342 -0.4326  0.2272
15137SOL    HW252270  10.712   6.994   9.462 -0.3618 -0.3587  0.2797
15138SOL     OW52271   4.672  11.929   2.424 -0.0781  0.0591  0.6468
15138SOL    HW152272   4.601  11.878   2.464 -1.3874  0.7812 -0.6280
15138SOL    HW252273   4.736  11.940   2.493 -1.5744  0.0298  2.1114
15139SOL     OW52274   5.301   3.426  10.523  0.5081 -0.1525  0.0693
15139SOL    HW152275   5.308   3.515  10.558  0.8004 -0.5985  1.2052
15139SOL    HW252276   5.233   3.432  10.455 -1.7451  0.3682  2.1896
15140SOL     OW52277   4.298   5.892   6.461  0.5207  0.3675  0.0430
15140SOL    HW152278   4.252   5.927   6.537  0.6625 -0.2692  0.4300
15140SOL    HW252279   4.281   5.798   6.463  0.4048  0.3625 -0.8000
15141SOL     OW52280   6.003   2.521   4.659 -0.0348 -0.1778  0.2913
15141SOL    HW152281   6.090   2.559   4.667 -0.0503 -0.0955  0.0657
15141SOL    HW252282   5.956   2.579   4.600  0.5708 -1.6053 -1.7163
15142SOL     OW52283   9.636   1.647   5.125  0.0967 -0.3527  0.2620
15142SOL    HW152284   9.688   1.722   5.094  0.2345 -1.4105 -2.3425
15142SOL    HW252285   9.560   1.686   5.167  0.6249  1.2394 -0.1910
15143SOL     OW52286   4.467   4.925  11.309 -0.3576 -0.8364  0.5282
15143SOL    HW152287   4.490   4.956  11.397  1.4005  1.3222 -0.6166
15143SOL    HW252288   4.528   4.969  11.251 -2.0721 -1.4703 -1.9110
15144SOL     OW52289   8.173   9.300   4.914 -0.1470  0.3973  0.0880
15144SOL    HW152290   8.095   9.246   4.900  1.1715 -1.0361 -2.6215
15144SOL    HW252291   8.222   9.253   4.982  0.4402 -1.2946 -1.4303
15145SOL     OW52292   8.883  12.357   6.618  0.1101  0.1829 -0.0593
15145SOL    HW152293   8.904  12.437   6.666  1.0422 -0.1624  0.1335
15145SOL    HW252294   8.885  12.383   6.526  0.9161  0.2825 -0.0226
15146SOL     OW52295  11.745   4.220  10.492 -0.1484 -0.2196 -0.1636
15146SOL    HW152296  11.753   4.151  10.426 -2.3890 -0.6432 -0.0687
15146SOL    HW252297  11.717   4.298  10.443  3.1019  0.9540 -0.3916
15147SOL     OW52298   8.677   5.435   6.789 -0.3237  0.5187  0.4407
15147SOL    HW152299   8.768   5.462   6.806  0.0067  0.9845 -1.8353
15147SOL    HW252300   8.624   5.507   6.822  0.0673  0.0495  2.2022
15148SOL     OW52301   1.288   9.197   1.687 -0.5426 -0.2546 -0.0533
15148SOL    HW152302   1.356   9.136   1.712 -0.4658 -0.7471 -1.3989
15148SOL    HW252303   1.335   9.279   1.668 -0.4687 -0.2308  0.2343
15149SOL     OW52304   6.327   8.242  11.924  0.5972  0.3810  0.3790
15149SOL    HW152305   6.237   8.273  11.937 -0.5318 -0.9928 -2.9839
15149SOL    HW252306   6.329   8.156  11.965 -0.1018 -0.1364 -0.6156
15150SOL     OW52307  12.086  10.727  10.790 -0.5052 -0.2927  0.1841
15150SOL    HW152308  12.083  10.809  10.840  0.6965 -1.2214  1.8933
15150SOL    HW252309  12.170  10.731  10.744 -0.9164 -0.1234 -0.5663
15151SOL     OW52310   9.390   0.767   4.571  0.2165 -0.0971 -0.5125
15151SOL    HW152311   9.434   0.850   4.556  1.8518 -0.7887  0.2647
15151SOL    HW252312   9.424   0.708   4.504 -1.1347 -0.1078 -1.2364
15152SOL     OW52313   4.138   5.468   0.501 -0.0444  0.1065 -0.4969
15152SOL    HW152314   4.192   5.474   0.580  0.0286  1.5950 -0.6262
15152SOL    HW252315   4.053   5.505   0.527 -0.7478 -1.3956 -0.5432
15153SOL     OW52316   4.936   9.227   6.113  0.9328  0.1558 -0.0267
15153SOL    HW152317   4.956   9.151   6.168  1.7986 -0.4710 -1.1745
15153SOL    HW252318   4.874   9.195   6.048  2.8389 -0.1512 -1.7834
15154SOL     OW52319   2.415   1.715   6.508 -0.5633  0.5383 -0.5660
15154SOL    HW152320   2.448   1.647   6.450 -0.9525 -1.5911  1.5629
15154SOL    HW252321   2.484   1.782   6.508  2.5113 -2.2922  1.2563
15155SOL     OW52322   3.920  10.913   2.174 -0.7775  0.2699  0.2038
15155SOL    HW152323   3.902  10.930   2.267  0.7716  1.9759  0.2639
15155SOL    HW252324   3.848  10.955   2.128 -1.2210 -0.0315  0.6125
15156SOL     OW52325  10.341   6.543   3.882  0.2575  0.1122 -0.3605
15156SOL    HW152326  10.425   6.569   3.920 -0.1508  0.4020  0.3511
15156SOL    HW252327  10.291   6.625   3.876 -0.8908 -0.3992  1.5233
15157SOL     OW52328   1.181   5.574  10.231  0.0848 -0.1711  0.3869
15157SOL    HW152329   1.130   5.650  10.203 -0.0807 -0.4657 -0.1377
15157SOL    HW252330   1.132   5.499  10.196  1.9982 -0.3896 -2.0805
15158SOL     OW52331   6.901   9.311   1.862  0.1297  0.5988 -0.7175
15158SOL    HW152332   6.908   9.222   1.827  0.7397  0.2124  0.3483
15158SOL    HW252333   6.988   9.349   1.849  0.6783  0.1128  1.1948
15159SOL     OW52334   5.646  11.884   4.503 -0.3748  0.4037  0.2893
15159SOL    HW152335   5.721  11.860   4.557 -0.9340  1.3169  1.5371
15159SOL    HW252336   5.651  11.979   4.495 -0.0364  0.2602 -1.7417
15160SOL     OW52337   8.951  11.808  11.184  0.3656  0.4810  0.0052
15160SOL    HW152338   9.033  11.763  11.164  0.8288  1.1765  0.2901
15160SOL    HW252339   8.889  11.774  11.120  0.6040 -0.7898  0.4068
15161SOL     OW52340   7.374  11.483   2.530 -0.2142 -0.2516  0.1785
15161SOL    HW152341   7.312  11.526   2.472 -0.0564 -0.3790 -0.0893
15161SOL    HW252342   7.320  11.427   2.586 -0.4244  0.3367  0.5703
15162SOL     OW52343   9.268  10.515   5.193 -0.5985 -0.0922  0.5465
15162SOL    HW152344   9.337  10.553   5.248 -0.7500 -1.5007  1.7729
15162SOL    HW252345   9.194  10.575   5.204  0.1609  1.0345 -0.2102
15163SOL     OW52346   9.643   8.995   9.027 -0.5614  0.2787  0.2033
15163SOL    HW152347   9.676   8.993   8.937 -1.7301  0.5726 -0.2516
15163SOL    HW252348   9.552   9.025   9.019 -0.8254 -0.1129  1.4452
15164SOL     OW52349   3.485   8.777   8.021 -0.2611 -0.4529 -0.7973
15164SOL    HW152350   3.559   8.720   7.997 -1.4841 -2.8446  0.7344
15164SOL    HW252351   3.506   8.861   7.981  3.2423 -1.0480 -0.5352
15165SOL     OW52352   7.840   5.495   7.459 -0.1677 -0.4508  0.1228
15165SOL    HW152353   7.930   5.488   7.428  0.2486 -1.8509  1.5362
15165SOL    HW252354   7.792   5.529   7.384  1.2568 -1.1154 -1.1481
15166SOL     OW52355   6.715   0.508  12.064  0.5893 -0.0239  0.0273
15166SOL    HW152356   6.779   0.438  12.077  1.1368  0.2815 -0.9889
15166SOL    HW252357   6.630   0.463  12.069  0.9247 -0.7143 -0.3318
15167SOL     OW52358   2.909   0.425   3.962  0.3555  0.0851 -0.2385
15167SOL    HW152359   2.931   0.421   3.869 -0.2943  1.2257 -0.4532
15167SOL    HW252360   2.966   0.360   4.003 -0.8237 -1.9817 -1.7089
15168SOL     OW52361   2.109  11.571  11.888 -0.3317 -0.3704 -0.6704
15168SOL    HW152362   2.076  11.517  11.816 -2.4409  0.1074 -0.1468
15168SOL    HW252363   2.194  11.603  11.858  0.4364 -2.9425 -1.4946
15169SOL     OW52364   7.726   8.018   0.651  0.2412 -0.2275 -0.7684
15169SOL    HW152365   7.763   7.939   0.689 -0.0352 -0.5949 -1.2538
15169SOL    HW252366   7.632   8.001   0.649  0.3442 -0.7913 -2.8750
15170SOL     OW52367   1.530   1.057   8.681  0.1193 -0.6549  0.2347
15170SOL    HW152368   1.618   1.027   8.705  0.3347  0.5561  1.0303
15170SOL    HW252369   1.545   1.115   8.606  0.2430  0.9293  1.4228
15171SOL     OW52370   8.683   5.231   8.928  0.0668  0.6037  0.2401
15171SOL    HW152371   8.662   5.300   8.991 -1.7406  0.4697 -0.1730
15171SOL    HW252372   8.624   5.159   8.951 -0.3021  0.3882 -1.2994
15172SOL     OW52373   9.667   0.894   0.391  0.6376  0.2625  0.1125
15172SOL    HW152374   9.577   0.892   0.424  0.3986  1.8148 -0.3401
15172SOL    HW252375   9.688   0.987   0.388  2.7425 -0.0953  1.4695
15173SOL     OW52376  12.440   3.123   7.917 -0.2426  0.0202  0.4875
15173SOL    HW152377  12.356   3.169   7.906 -0.2469  0.6188  2.4912
15173SOL    HW252378  12.416   3.040   7.957 -0.0669 -1.0298 -1.4750
15174SOL     OW52379  11.433   4.090  10.595  0.1898  0.4435  0.4491
15174SOL    HW152380  11.451   4.163  10.653  0.7031 -0.0392  0.9055
15174SOL    HW252381  11.384   4.129  10.523  1.4618  1.4609  0.0906
15175SOL     OW52382   1.923  12.104   5.658  0.0266  0.0242  0.4321
15175SOL    HW152383   1.966  12.087   5.574 -1.0197  0.0461 -0.1319
15175SOL    HW252384   1.962  12.185   5.690  1.9993 -1.1117  1.0465
15176SOL     OW52385   8.090   1.566   9.523 -0.0941 -0.2323  0.2319
15176SOL    HW152386   8.099   1.489   9.580 -0.5044  1.2490  2.3843
15176SOL    HW252387   8.148   1.631   9.562  1.3978  0.1689 -2.4044
15177SOL     OW52388  12.407   2.707   3.976 -0.6440 -0.6487 -0.0587
15177SOL    HW152389  12.379   2.693   3.886 -1.0537  0.7553 -0.1797
15177SOL    HW252390  12.339   2.664   4.029 -1.9261  0.8626 -0.3912
15178SOL     OW52391   5.256  10.191  12.407  0.5512 -0.3555 -0.5984
15178SOL    HW152392   5.210  10.191  12.492 -0.2018  0.5035 -0.9956
15178SOL    HW252393   5.223  10.113  12.363  0.4046 -0.4178 -0.3838
15179SOL     OW52394   7.357   9.453   7.958 -0.6330  0.5175  0.2509
15179SOL    HW152395   7.450   9.456   7.981 -0.9338  3.7264  1.5849
15179SOL    HW252396   7.311   9.470   8.040 -2.3019  0.9328 -0.7303
15180SOL     OW52397  11.414   8.490   9.061  0.0731 -0.2863 -0.0226
15180SOL    HW152398  11.347   8.553   9.036 -0.1531 -0.2154  0.7328
15180SOL    HW252399  11.366   8.424   9.113  0.0958 -1.6399 -1.6283
15181SOL     OW52400   7.994  11.014   6.702 -0.1541 -0.2790 -0.0682
15181SOL    HW152401   7.997  10.934   6.755 -0.4001 -1.0140 -1.1283
15181SOL    HW252402   8.049  11.076   6.750  0.7929 -1.3733  0.3255
15182SOL     OW52403  10.706  10.825   0.788  0.0460  0.3110 -0.2869
15182SOL    HW152404  10.634  10.883   0.815 -0.0338 -0.5520  1.4843
15182SOL    HW252405  10.782  10.882   0.783 -0.4219  0.9263 -0.5257
15183SOL     OW52406  10.630   5.069   3.320  0.4532  0.4266 -0.4192
15183SOL    HW152407  10.562   5.116   3.272  0.5308  1.2153  0.2237
15183SOL    HW252408  10.620   5.099   3.411  1.6528  0.5586 -0.3147
15184SOL     OW52409   2.213   9.971   1.874  0.2417  0.2958  0.0140
15184SOL    HW152410   2.164   9.904   1.826  0.9283  0.2867 -0.7014
15184SOL    HW252411   2.183  10.054   1.837 -1.2044  0.4506  1.4635
15185SOL     OW52412   4.656  10.563   3.139 -0.3233 -0.1351  0.0243
15185SOL    HW152413   4.577  10.614   3.120 -0.4376 -0.4430 -0.3256
15185SOL    HW252414   4.707  10.566   3.058 -0.2892 -0.5066  0.0310
15186SOL     OW52415   0.899   3.521   9.556  0.1675 -0.1871 -0.0445
15186SOL    HW152416   0.990   3.528   9.527  0.6493 -0.8607  1.2452
15186SOL    HW252417   0.881   3.605   9.597 -0.0412  0.2144 -0.9255
15187SOL     OW52418  10.700  11.219   0.273  0.8688 -0.7587 -0.5075
15187SOL    HW152419  10.715  11.128   0.300  0.5991 -1.5690 -2.8414
15187SOL    HW252420  10.605  11.223   0.257  1.1172 -0.5560 -1.9989
15188SOL     OW52421   7.930  11.762   8.973 -0.1872  0.4490 -0.0568
15188SOL    HW152422   7.939  11.799   8.885  0.8316 -0.5123 -0.3762
15188SOL    HW252423   7.879  11.682   8.959 -1.0202  0.8796  0.4091
15189SOL     OW52424   5.579   2.651  10.098 -0.0258  0.7596  0.0590
15189SOL    HW152425   5.636   2.712  10.051 -0.2459  1.9120  1.2147
15189SOL    HW252426   5.610   2.654  10.189 -0.4788 -0.3448  0.2678
15190SOL     OW52427   7.061   7.046   1.104  0.7956  0.3441 -0.2922
15190SOL    HW152428   7.056   7.111   1.034 -0.3564  2.4253  1.5949
15190SOL    HW252429   7.153   7.022   1.109  1.0332  0.8198 -1.9068
15191SOL     OW52430   2.556   0.146   8.671 -0.3064 -0.1734 -0.0958
15191SOL    HW152431   2.650   0.160   8.679 -0.2058  0.1422 -1.5671
15191SOL    HW252432   2.548   0.065   8.621 -0.8479 -0.9387  1.1793
15192SOL     OW52433   8.690   2.792   0.155  0.6692  0.4065 -0.1373
15192SOL    HW152434   8.660   2.882   0.143 -0.1441  0.2743  0.7231
15192SOL    HW252435   8.784   2.795   0.139  0.3699  1.0357 -1.9314
15193SOL     OW52436   6.064  11.362   3.409 -0.5365 -0.4172  0.0241
15193SOL    HW152437   5.997  11.431   3.404  1.5195  1.5849 -1.4926
15193SOL    HW252438   6.073  11.330   3.319  1.5733  0.4474 -0.1222
15194SOL     OW52439   9.949   1.470   1.903  0.0390  0.1989  0.4735
15194SOL    HW152440   9.857   1.480   1.878  0.0366 -1.2479 -0.2177
15194SOL    HW252441   9.995   1.470   1.819  0.2543 -2.7486  0.5007
15195SOL     OW52442   7.126   2.968  11.684 -0.2894 -0.3038  0.1714
15195SOL    HW152443   7.118   2.961  11.779 -0.1761  1.7008  0.3859
15195SOL    HW252444   7.065   3.038  11.660 -0.0974 -0.5742 -1.2042
15196SOL     OW52445   3.211   3.569   9.177 -0.3840 -0.0849  0.0002
15196SOL    HW152446   3.211   3.660   9.145 -1.2133 -0.5810 -1.5477
15196SOL    HW252447   3.196   3.517   9.098 -1.3677 -1.4878  1.0784
15197SOL     OW52448   5.049  12.270   9.270  0.4085  0.5688  0.4342
15197SOL    HW152449   4.990  12.339   9.240 -0.0117  0.2244  0.4718
15197SOL    HW252450   5.088  12.306   9.350  0.5426  0.9495  0.2028
15198SOL     OW52451   3.751   0.700   5.064 -0.1713 -0.1452  0.2399
15198SOL    HW152452   3.663   0.738   5.071 -0.1015 -0.1551  1.3372
15198SOL    HW252453   3.744   0.617   5.110  0.1536 -0.6265 -0.5732
15199SOL     OW52454   2.735   0.639   7.111  0.1422  0.4201 -0.2390
15199SOL    HW152455   2.768   0.647   7.201  0.5936 -0.1715 -0.3464
15199SOL    HW252456   2.798   0.688   7.058  1.0667 -0.9831 -0.4858
15200SOL     OW52457   9.643   5.786   3.982  0.0106 -0.3211 -0.6232
15200SOL    HW152458   9.672   5.710   3.932  0.0308 -0.4589 -0.3988
15200SOL    HW252459   9.612   5.848   3.915 -0.5216 -0.7402 -0.7634
15201SOL     OW52460  11.372   6.474   1.971  0.8620  0.3019 -0.0181
15201SOL    HW152461  11.337   6.454   1.885 -1.4252  0.5368  0.7880
15201SOL    HW252462  11.459   6.511   1.954 -0.8327  3.6777 -2.5395
15202SOL     OW52463   7.412  11.704  10.849  0.2719  0.2819 -0.5113
15202SOL    HW152464   7.393  11.628  10.905  1.1839  0.2934 -0.1845
15202SOL    HW252465   7.383  11.779  10.900  1.5204  0.3291  0.1599
15203SOL     OW52466   7.104   4.853   8.351 -0.2136  0.2131  0.1212
15203SOL    HW152467   7.056   4.840   8.433 -1.1212  1.3111 -0.2145
15203SOL    HW252468   7.131   4.765   8.325 -0.9533 -0.2876  0.9824
15204SOL     OW52469   9.242   8.749   6.955  0.4978  0.2075 -0.4288
15204SOL    HW152470   9.166   8.692   6.943  0.6078  0.0813 -0.5318
15204SOL    HW252471   9.315   8.688   6.970  0.9583  0.2434 -2.3199
15205SOL     OW52472   8.523   0.220   9.919  0.2097  0.0856  0.4690
15205SOL    HW152473   8.478   0.274   9.984  0.2968 -0.8765  1.3446
15205SOL    HW252474   8.534   0.135   9.962  0.5311 -0.4759 -0.6975
15206SOL     OW52475   7.744  10.874   6.014 -0.2766 -0.4080  0.1065
15206SOL    HW152476   7.823  10.910   5.974 -0.2584 -2.5195 -1.9571
15206SOL    HW252477   7.766  10.784   6.036 -1.0887 -0.0410  2.7505
15207SOL     OW52478  10.407  10.017   1.535 -0.2609 -0.0910 -0.1035
15207SOL    HW152479  10.443  10.058   1.456 -0.0645 -1.1344 -0.5736
15207SOL    HW252480  10.320   9.988   1.509  0.1875 -1.3531 -0.2730
15208SOL     OW52481  10.276   7.135   7.269  0.0094  0.2266 -0.1524
15208SOL    HW152482  10.209   7.067   7.265 -0.0177  0.2318  0.1553
15208SOL    HW252483  10.358   7.087   7.284  0.2139  0.1508 -1.4461
15209SOL     OW52484   5.802   1.154   5.825  0.5821 -0.5241 -0.0231
15209SOL    HW152485   5.805   1.080   5.764  0.4106 -1.8612  1.5139
15209SOL    HW252486   5.709   1.175   5.832  0.3172 -2.0408  1.6323
15210SOL     OW52487   1.885   6.057   5.392  0.4484 -0.4058  0.3811
15210SOL    HW152488   1.965   6.009   5.413  0.8608 -0.8454 -1.9302
15210SOL    HW252489   1.882   6.059   5.296 -0.8538  2.0617  0.3811
15211SOL     OW52490   0.393   2.433  12.036  0.2439  0.3117 -0.0539
15211SOL    HW152491   0.388   2.343  12.069 -0.9882  0.5595  0.5040
15211SOL    HW252492   0.456   2.476  12.094  1.6532 -0.4213 -0.9689
15212SOL     OW52493   5.933   2.270   5.686 -0.2018  0.3519  0.5579
15212SOL    HW152494   5.883   2.197   5.723 -1.2518 -0.3466 -2.0747
15212SOL    HW252495   6.023   2.239   5.686  0.2553  1.1415  4.1695
15213SOL     OW52496   0.566   4.884   6.902  0.3556 -0.5648  0.2259
15213SOL    HW152497   0.606   4.929   6.827 -0.5324 -1.2414 -0.6880
15213SOL    HW252498   0.620   4.806   6.915  0.9474 -0.0738  0.7831
15214SOL     OW52499   1.707   6.327   5.829 -0.1136 -0.2689 -0.1218
15214SOL    HW152500   1.768   6.263   5.791 -1.2415  0.6795 -3.9567
15214SOL    HW252501   1.743   6.412   5.804 -0.1957  0.5585  2.3532
15215SOL     OW52502   2.913   0.371   9.115 -0.0673 -0.0302  0.2292
15215SOL    HW152503   2.922   0.403   9.025  0.1890 -0.6753  0.0211
15215SOL    HW252504   2.819   0.358   9.127  0.0076 -1.4513 -0.4954
15216SOL     OW52505   7.084   7.672   4.284  0.1350  0.5042  0.0555
15216SOL    HW152506   7.060   7.603   4.345 -0.1573  0.8242  0.3057
15216SOL    HW252507   7.108   7.746   4.340  0.8653  0.4765 -0.1990
15217SOL     OW52508   2.030   2.436  10.534 -0.8119  0.3816  0.0296
15217SOL    HW152509   2.072   2.517  10.503 -0.9583  0.3689 -0.2000
15217SOL    HW252510   1.944   2.463  10.565 -1.3496  0.1229 -1.2074
15218SOL     OW52511   4.622   2.681   4.249 -0.2067 -0.5234  0.2360
15218SOL    HW152512   4.675   2.760   4.247 -1.8166  0.6178  0.7480
15218SOL    HW252513   4.679   2.613   4.212  1.1357  0.8937 -0.4131
15219SOL     OW52514   4.717   0.460   9.064 -0.1861  0.5062  1.2463
15219SOL    HW152515   4.804   0.436   9.096  0.6241  0.9029 -0.5477
15219SOL    HW252516   4.684   0.521   9.130  0.9524  0.4587  1.8948
15220SOL     OW52517   8.071   7.921   6.057 -0.2402 -0.0085 -0.1942
15220SOL    HW152518   8.018   7.879   5.990 -2.3124  0.4190  1.0913
15220SOL    HW252519   8.009   7.974   6.108  1.8287  2.7054 -0.2437
15221SOL     OW52520   3.969   3.779   4.746 -0.0469 -0.4971 -0.0023
15221SOL    HW152521   3.997   3.690   4.727 -0.1977 -0.7799  1.0327
15221SOL    HW252522   3.974   3.786   4.841  0.9822  0.9492 -0.1294
15222SOL     OW52523   1.486  12.536   9.923 -0.4645 -0.2861 -0.1737
15222SOL    HW152524   1.452  12.585   9.849  1.3846  0.2827 -0.6802
15222SOL    HW252525   1.496  12.447   9.890 -0.2881 -0.1848 -0.3921
15223SOL     OW52526   4.721   8.716   8.847 -0.7245  0.5941 -0.5034
15223SOL    HW152527   4.766   8.799   8.832  2.0943 -0.6380  0.3964
15223SOL    HW252528   4.651   8.714   8.782 -0.9061  3.6291 -0.5488
15224SOL     OW52529   4.166   1.721   6.135  0.0328  0.3165 -0.3469
15224SOL    HW152530   4.164   1.758   6.223 -0.8176  0.2047 -0.3079
15224SOL    HW252531   4.128   1.634   6.144  1.0306 -0.1564 -0.6273
15225SOL     OW52532   7.150  10.097   5.092 -0.0862  0.2237 -0.4815
15225SOL    HW152533   7.157  10.108   4.997  1.1274  0.7837 -0.3429
15225SOL    HW252534   7.063  10.129   5.113 -0.0702  0.8418 -1.3062
15226SOL     OW52535   0.169   6.745   2.367  0.0154 -0.0180 -0.3109
15226SOL    HW152536   0.212   6.773   2.287  0.8397  1.2765  0.5539
15226SOL    HW252537   0.076   6.766   2.354  0.0317 -0.4557 -1.1775
15227SOL     OW52538  10.285   0.616  10.259 -0.0484  0.1008  0.0483
15227SOL    HW152539  10.212   0.660  10.215  0.7191  0.1573 -1.2180
15227SOL    HW252540  10.322   0.682  10.318 -0.8593  0.1489  0.5097
15228SOL     OW52541  10.099   4.635   3.950  0.0798  0.1621  0.0582
15228SOL    HW152542  10.056   4.720   3.957 -0.9958 -0.2975 -0.5580
15228SOL    HW252543  10.161   4.644   3.877  2.2614  1.2976  1.9398
15229SOL     OW52544   4.997   1.450   1.964 -0.4950 -0.1897 -0.2138
15229SOL    HW152545   4.957   1.424   2.047 -0.6707 -2.3502 -0.8944
15229SOL    HW252546   4.936   1.419   1.897 -1.3101  3.2039 -1.1904
15230SOL     OW52547   5.011   7.135   9.902  0.2092  0.3648  0.2401
15230SOL    HW152548   4.991   7.078   9.828 -0.5939 -2.3082  2.3582
15230SOL    HW252549   4.929   7.182   9.919  0.3252  0.8025 -0.3689
15231SOL     OW52550   7.502  10.082  10.883  0.3239  0.0302  0.3221
15231SOL    HW152551   7.425  10.103  10.935  1.4017  1.2835  1.4720
15231SOL    HW252552   7.492  10.133  10.803  0.0987  0.4156  0.5956
15232SOL     OW52553   0.012   8.144   8.891  0.2905 -0.3828  0.0142
15232SOL    HW152554  -0.080   8.148   8.915  0.3273  0.0901  0.0877
15232SOL    HW252555   0.057   8.115   8.971  0.2547 -0.1715  0.1123
15233SOL     OW52556   7.714   1.620   1.506  0.2668 -0.2215  0.0006
15233SOL    HW152557   7.728   1.690   1.570  0.9591  0.0645 -0.4530
15233SOL    HW252558   7.774   1.550   1.534 -0.8989 -0.9166  0.8398
15234SOL     OW52559  11.100   7.845   9.483 -0.1377  0.4368 -0.7437
15234SOL    HW152560  11.018   7.803   9.457  0.1020 -0.3370 -0.3088
15234SOL    HW252561  11.131   7.889   9.404 -1.3687  1.4292 -0.7043
15235SOL     OW52562   2.108   8.919  10.759 -0.2325 -0.2265  0.6311
15235SOL    HW152563   2.034   8.923  10.820 -0.4462 -0.6829  0.4079
15235SOL    HW252564   2.145   8.832  10.772 -0.8095 -0.6560 -0.5002
15236SOL     OW52565   2.413  10.188   8.004  0.2455 -0.4238  0.1437
15236SOL    HW152566   2.369  10.209   8.087  0.6061 -1.1458  0.5316
15236SOL    HW252567   2.348  10.208   7.937 -0.4891 -0.9560  0.6712
15237SOL     OW52568   6.943   0.905   2.643 -0.5015 -0.7457 -0.2121
15237SOL    HW152569   6.941   0.869   2.732  2.0829  0.4878  0.4798
15237SOL    HW252570   6.878   0.975   2.644  1.0859  0.8379  1.6011
15238SOL     OW52571   5.434  11.053   1.577 -0.4918  0.8044  0.8066
15238SOL    HW152572   5.454  11.107   1.654  0.3711 -1.0489  1.9593
15238SOL    HW252573   5.346  11.079   1.552 -0.3020  2.3755  1.6126
15239SOL     OW52574  11.817  10.749   3.011 -0.4943 -0.1249  0.3701
15239SOL    HW152575  11.828  10.767   3.104 -1.4079 -2.6541  1.0439
15239SOL    HW252576  11.904  10.720   2.982 -0.5595 -0.7609  0.8006
15240SOL     OW52577   3.073   0.194   7.212 -0.4581 -0.5475 -0.0647
15240SOL    HW152578   3.122   0.276   7.214 -1.4056  0.5199 -5.1702
15240SOL    HW252579   2.986   0.216   7.247  0.5019 -0.7054  2.6745
15241SOL     OW52580   5.507   5.485   0.905  0.4227  0.2203  0.2367
15241SOL    HW152581   5.428   5.463   0.954 -0.2953  1.1812 -0.4560
15241SOL    HW252582   5.579   5.459   0.962 -0.3902 -0.3628  1.0157
15242SOL     OW52583   5.783   8.448   8.444  0.4137 -0.2753 -0.8218
15242SOL    HW152584   5.813   8.366   8.404 -2.5508 -1.5287 -0.6717
15242SOL    HW252585   5.694   8.460   8.411 -0.0810  1.6608  1.0256
15243SOL     OW52586   4.390   2.938   7.537 -0.3526 -0.2974 -0.2382
15243SOL    HW152587   4.416   3.029   7.523  1.2770 -0.6280  0.3487
15243SOL    HW252588   4.305   2.944   7.581  0.1046  0.9732  0.5354
15244SOL     OW52589   2.022   3.180   2.107 -0.0213  0.2058 -0.0523
15244SOL    HW152590   1.935   3.174   2.146  0.0313 -0.1736  0.0059
15244SOL    HW252591   2.025   3.110   2.042  0.3894 -0.0618  0.2455
15245SOL     OW52592   0.574   7.191   1.038  0.4786 -0.4227 -0.5222
15245SOL    HW152593   0.618   7.109   1.013  0.1742 -0.5866 -0.5259
15245SOL    HW252594   0.490   7.163   1.074  1.9854 -0.4652  3.4783
15246SOL     OW52595  10.461   9.532  11.426  0.1881 -0.0173 -0.6324
15246SOL    HW152596  10.379   9.485  11.438  0.3093 -0.0477  0.1637
15246SOL    HW252597  10.520   9.495  11.492  0.2108  1.4045  0.2049
15247SOL     OW52598   9.385   5.262   4.986  0.5842  0.0805  0.1064
15247SOL    HW152599   9.360   5.221   4.903  0.1338 -1.0874  0.7883
15247SOL    HW252600   9.479   5.247   4.992  0.2139 -2.3157  1.0516
15248SOL     OW52601   1.605   7.635   6.655 -0.4033  0.3676  0.1272
15248SOL    HW152602   1.690   7.643   6.698 -0.0689 -1.1690 -0.2025
15248SOL    HW252603   1.624   7.594   6.570 -1.1536  2.4864 -1.1565
15249SOL     OW52604   4.009   0.348   8.226 -0.3030  0.1502 -0.4332
15249SOL    HW152605   4.004   0.334   8.132  0.8150  2.4795 -0.9287
15249SOL    HW252606   3.920   0.373   8.252 -1.0892 -2.4268 -0.4319
15250SOL     OW52607   5.794  11.879   2.824 -0.2484 -0.5749  0.2608
15250SOL    HW152608   5.768  11.909   2.911  1.2507  0.5986  0.3625
15250SOL    HW252609   5.851  11.949   2.791 -3.7041  0.8991 -3.2730
15251SOL     OW52610   0.602   2.348   0.225  0.2731 -0.3629 -0.4709
15251SOL    HW152611   0.542   2.346   0.300 -0.2837 -1.5889 -0.9172
15251SOL    HW252612   0.610   2.257   0.199  2.3908 -0.2406 -0.4109
15252SOL     OW52613   8.203   7.558   5.277 -0.1151  0.2683  0.3278
15252SOL    HW152614   8.114   7.587   5.298 -0.0348  0.5656  0.2635
15252SOL    HW252615   8.207   7.556   5.182  0.4070  1.7568  0.2835
15253SOL     OW52616   3.478   0.693   7.951  0.0736  0.4888 -0.0165
15253SOL    HW152617   3.456   0.603   7.975 -0.5662  0.2505 -1.4060
15253SOL    HW252618   3.432   0.708   7.869  0.6111  1.9112 -0.0857
15254SOL     OW52619   2.494   9.188   4.154  0.7412  0.5937 -0.2960
15254SOL    HW152620   2.510   9.281   4.138 -1.7172  1.0979 -0.2108
15254SOL    HW252621   2.400   9.176   4.137  0.1900 -1.1077  3.0879
15255SOL     OW52622   0.869   4.370  10.402  0.2570  0.0050 -0.1954
15255SOL    HW152623   0.801   4.305  10.417  0.7123 -0.4251  0.0369
15255SOL    HW252624   0.912   4.342  10.320  1.9049 -1.2938  1.0364
15256SOL     OW52625  11.375   3.367   1.293  0.0628 -0.3665  0.0188
15256SOL    HW152626  11.437   3.300   1.266  0.4867 -0.5984  1.4854
15256SOL    HW252627  11.298   3.318   1.323 -0.3903 -0.1222 -0.7414
15257SOL     OW52628   5.982   0.972  11.349 -0.3075  0.4670 -0.3315
15257SOL    HW152629   5.896   0.973  11.391 -0.2330  2.9844 -0.0494
15257SOL    HW252630   6.043   0.995  11.419  0.6810 -1.5113 -0.4759
15258SOL     OW52631   4.243   9.902   0.229 -0.3259  0.2770  0.3249
15258SOL    HW152632   4.275   9.929   0.143  0.7803  1.5718  1.1091
15258SOL    HW252633   4.185   9.973   0.256  1.0662  0.9961  1.5707
15259SOL     OW52634   8.418   2.294   5.786 -0.4998 -0.0335 -0.0117
15259SOL    HW152635   8.456   2.366   5.737 -0.8288  1.2372  1.5416
15259SOL    HW252636   8.329   2.322   5.807 -1.1744 -1.5443 -0.6912
15260SOL     OW52637  11.639  10.900   7.757 -0.4186  0.3758  0.2075
15260SOL    HW152638  11.580  10.879   7.830 -2.0896 -1.1381 -1.4585
15260SOL    HW252639  11.698  10.825   7.752 -0.2735  0.5017  0.0413
15261SOL     OW52640   3.265   2.277   4.428 -0.2547 -0.9021  0.1229
15261SOL    HW152641   3.252   2.282   4.333 -0.5519 -1.6353  0.1268
15261SOL    HW252642   3.309   2.360   4.450 -0.3551 -0.6459 -0.6225
15262SOL     OW52643  11.384   7.388   6.372 -0.2608  0.3645  0.1028
15262SOL    HW152644  11.307   7.377   6.316 -0.3032 -0.0292  0.2313
15262SOL    HW252645  11.431   7.306   6.364  0.7407  1.0084 -0.8352
15263SOL     OW52646   5.266   2.311   2.676  0.1738 -0.1007  0.0898
15263SOL    HW152647   5.356   2.340   2.691  0.1454 -1.0298  2.3982
15263SOL    HW252648   5.212   2.385   2.707  0.1149  0.2517 -0.8225
15264SOL     OW52649   1.820   6.049   3.560  0.3876 -0.4429  0.0172
15264SOL    HW152650   1.889   6.102   3.519 -0.7952  0.8426 -0.4191
15264SOL    HW252651   1.836   6.057   3.654  0.7763 -0.0861 -0.0757
15265SOL     OW52652   7.265   5.187   8.839 -0.5700  0.2900  0.1491
15265SOL    HW152653   7.177   5.196   8.802 -0.1706  0.0817 -0.8901
15265SOL    HW252654   7.253   5.195   8.933 -1.6573  0.6187 -0.0098
15266SOL     OW52655   5.273   8.974  12.469 -0.4507  0.4523  0.3015
15266SOL    HW152656   5.243   8.923  12.394  0.3954  1.7049 -0.9176
15266SOL    HW252657   5.233   8.930  12.544 -0.7406 -1.2591 -0.7929
15267SOL     OW52658   6.684   9.024   6.872 -0.6072 -0.0724 -0.1077
15267SOL    HW152659   6.756   8.981   6.826  0.2816  0.0324  1.1432
15267SOL    HW252660   6.723   9.057   6.953 -1.3452  2.5928 -0.7060
15268SOL     OW52661   1.230   1.776   3.496 -0.3380  0.1048  0.2094
15268SOL    HW152662   1.155   1.825   3.463  0.6414  2.0040  0.6183
15268SOL    HW252663   1.221   1.689   3.457 -2.0775  0.6426 -0.7097
15269SOL     OW52664  10.140   9.828   4.913 -0.3149  0.2587 -0.4042
15269SOL    HW152665  10.175   9.769   4.846 -1.0019 -1.8047  0.9392
15269SOL    HW252666  10.048   9.837   4.890 -0.5586 -0.4782  0.2477
15270SOL     OW52667  11.147   4.140   2.111  0.5664 -0.4393 -0.2054
15270SOL    HW152668  11.190   4.163   2.029  0.3560  2.8101  0.4428
15270SOL    HW252669  11.217   4.141   2.176  0.2281  0.3749  0.1559
15271SOL     OW52670  11.250   4.943  12.314  0.4066  0.0325  0.6357
15271SOL    HW152671  11.196   4.883  12.263 -0.3728  1.2149  0.0290
15271SOL    HW252672  11.261   4.900  12.399 -2.0158  0.0123  1.0092
15272SOL     OW52673  11.983   6.007  10.889  0.5017  0.4908 -0.5419
15272SOL    HW152674  11.903   6.045  10.853 -0.1850 -1.0043 -0.6683
15272SOL    HW252675  12.035   6.082  10.916 -1.3050  1.4835  0.3546
15273SOL     OW52676   8.564   9.260   6.782 -0.1692 -0.1567 -0.0350
15273SOL    HW152677   8.590   9.175   6.746 -1.0123  0.0542 -1.1960
15273SOL    HW252678   8.511   9.239   6.859  0.3281 -0.6496  0.1820
15274SOL     OW52679   3.897   4.762   8.705 -0.3544  0.6027  0.2415
15274SOL    HW152680   3.965   4.785   8.768  1.4592  2.1253 -2.0893
15274SOL    HW252681   3.861   4.846   8.677 -0.1039  0.0881 -1.7559
15275SOL     OW52682   4.931  12.376  11.748  0.1955  0.5429  0.9442
15275SOL    HW152683   4.954  12.467  11.769 -1.6872  0.8843  1.7593
15275SOL    HW252684   4.861  12.354  11.811 -0.5841 -0.8823 -0.3554
15276SOL     OW52685  12.240   7.283   3.172  0.0141  0.7165 -0.3895
15276SOL    HW152686  12.314   7.311   3.226 -0.7602 -0.8382  1.6520
15276SOL    HW252687  12.201   7.211   3.222 -1.5549  0.0256 -2.4751
15277SOL     OW52688   4.198  10.010   8.546 -0.0989  0.4148 -0.1396
15277SOL    HW152689   4.259   9.996   8.618  0.2451 -1.6979 -0.7451
15277SOL    HW252690   4.138  10.078   8.577 -0.1877 -0.6684  2.2852
15278SOL     OW52691   0.144   5.063   9.873 -0.2146  0.0411 -0.1252
15278SOL    HW152692   0.168   4.986   9.821  1.9078 -1.3280  2.6066
15278SOL    HW252693   0.189   5.136   9.831  0.1051 -0.6924 -1.0985
15279SOL     OW52694  10.680   9.803   5.638 -0.5568 -0.4293 -0.6277
15279SOL    HW152695  10.684   9.820   5.544  0.9879 -2.4444 -1.0050
15279SOL    HW252696  10.722   9.717   5.648 -1.3834 -0.6189  1.8171
15280SOL     OW52697   8.603   6.270   2.287  0.4523 -0.4128 -0.4586
15280SOL    HW152698   8.560   6.334   2.229 -0.5709 -0.4068  0.2772
15280SOL    HW252699   8.531   6.234   2.339  1.3768 -0.3107  0.9165
15281SOL     OW52700   4.453   4.056   4.304  0.8902 -0.1642 -0.5431
15281SOL    HW152701   4.392   4.120   4.268 -0.0519 -0.2844  0.7571
15281SOL    HW252702   4.424   3.972   4.269  2.3032  0.1121 -2.4802
15282SOL     OW52703   6.762   7.241   7.779  0.2126  0.7870  0.0635
15282SOL    HW152704   6.829   7.240   7.847  2.1981 -2.5945 -1.6803
15282SOL    HW252705   6.811   7.232   7.697 -2.3062 -2.1364 -1.3117
15283SOL     OW52706   1.744   1.982   3.932 -0.0812 -0.3418 -0.3523
15283SOL    HW152707   1.764   1.996   4.024  0.9810 -0.3598 -0.5754
15283SOL    HW252708   1.703   2.064   3.904  5.7186  2.6250 -1.5556
15284SOL     OW52709   3.393   1.892   8.109  0.2034 -0.2154 -0.2223
15284SOL    HW152710   3.350   1.930   8.032 -0.2886  0.2886  0.2854
15284SOL    HW252711   3.327   1.899   8.178  0.7951 -0.2521  0.3556
15285SOL     OW52712   1.685  11.657   0.734 -0.7690 -0.7235  0.0316
15285SOL    HW152713   1.685  11.619   0.646  1.6303 -1.1156  0.1491
15285SOL    HW252714   1.594  11.650   0.762 -1.4251 -1.4030 -2.0673
15286SOL     OW52715   1.113  10.003   3.423  0.2703  0.3294  0.2820
15286SOL    HW152716   1.164   9.972   3.349 -1.9415 -0.3608 -1.0674
15286SOL    HW252717   1.022   9.991   3.396 -0.6409 -0.0189  3.1635
15287SOL     OW52718   0.610  10.249   9.606  0.2714  0.7214  0.1285
15287SOL    HW152719   0.621  10.189   9.680  1.6786  0.7301 -0.0385
15287SOL    HW252720   0.664  10.212   9.537  0.4256  1.6870 -0.2864
15288SOL     OW52721   2.289  11.943   9.067 -0.1977 -0.1044 -0.1216
15288SOL    HW152722   2.202  11.979   9.052  0.0580  0.4549 -0.3007
15288SOL    HW252723   2.295  11.868   9.008 -0.3422  0.2138 -0.5442
15289SOL     OW52724   3.001   6.623   0.434  0.2019  0.3856  0.5480
15289SOL    HW152725   3.017   6.687   0.503  0.5380  1.9203 -0.8841
15289SOL    HW252726   2.918   6.582   0.457  0.9965 -0.2161  2.6058
15290SOL     OW52727   9.562   3.479   6.969  0.0527 -0.4990  0.0809
15290SOL    HW152728   9.611   3.428   6.905  0.0160 -1.5214  0.8542
15290SOL    HW252729   9.624   3.496   7.040 -0.6127 -1.6758  0.9977
15291SOL     OW52730   1.773   4.299   3.665  0.4157  0.0842  0.0880
15291SOL    HW152731   1.753   4.263   3.751  2.5865  2.5695  1.7695
15291SOL    HW252732   1.834   4.236   3.626 -0.8300 -1.2129  0.1603
15292SOL     OW52733  11.569  11.841   2.215 -0.5752 -0.0939 -0.3576
15292SOL    HW152734  11.525  11.756   2.210  0.4178 -0.5833 -1.2827
15292SOL    HW252735  11.576  11.859   2.308 -1.4434 -0.6748 -0.1608
15293SOL     OW52736   5.840  10.258  12.497  0.0187 -0.1994 -0.3531
15293SOL    HW152737   5.879  10.326  12.552 -1.1684  1.4240 -1.4214
15293SOL    HW252738   5.875  10.275  12.409  0.8013 -1.8825 -0.4083
15294SOL     OW52739   7.608   3.048   5.196  0.1916  0.5698 -0.5306
15294SOL    HW152740   7.642   3.099   5.122  0.7432 -0.7470 -1.2141
15294SOL    HW252741   7.524   3.089   5.217 -1.1778 -0.4621 -3.4805
15295SOL     OW52742   1.949   2.109   2.759  0.3102  0.2202  0.0898
15295SOL    HW152743   2.017   2.168   2.793  1.3280 -1.3704  0.9246
15295SOL    HW252744   1.989   2.069   2.682 -0.1249  0.1121 -0.0843
15296SOL     OW52745   1.660   4.604   0.374  0.9863  0.0753  0.1001
15296SOL    HW152746   1.610   4.536   0.328  1.7116 -0.7072  0.4293
15296SOL    HW252747   1.611   4.619   0.455  0.5430  0.3256 -0.2110
15297SOL     OW52748   6.565   0.652   2.642 -0.1324  0.3658 -0.7132
15297SOL    HW152749   6.612   0.578   2.605  1.6918  0.9576  0.3027
15297SOL    HW252750   6.526   0.618   2.723 -1.1075  0.0029 -1.3132
15298SOL     OW52751   3.678   3.057   4.442 -0.3503 -0.4184 -0.4087
15298SOL    HW152752   3.682   3.083   4.534  1.2195 -1.9980  0.0217
15298SOL    HW252753   3.587   3.072   4.417 -0.4208  1.6511  0.8893
15299SOL     OW52754   4.438   5.603   6.511 -0.0219  0.5074  0.3464
15299SOL    HW152755   4.444   5.589   6.606 -1.7226  1.0636  0.5611
15299SOL    HW252756   4.523   5.574   6.478  0.4687 -0.0683  1.9914
15300SOL     OW52757   3.017   0.962   9.475 -0.2082 -0.0606 -0.2471
15300SOL    HW152758   3.043   1.029   9.538 -1.4742 -0.0106  0.2395
15300SOL    HW252759   2.965   0.900   9.525  2.2435 -2.3672 -0.2878
15301SOL     OW52760   7.926  11.473   6.100  0.2876 -0.2024 -0.1415
15301SOL    HW152761   7.848  11.457   6.048 -0.0722 -0.2155  0.3972
15301SOL    HW252762   7.931  11.568   6.109 -0.1003 -0.2383  0.4768
15302SOL     OW52763  10.149  12.566   2.746 -0.0818  0.1505 -0.1470
15302SOL    HW152764  10.056  12.566   2.722  0.0356 -2.0297 -0.7475
15302SOL    HW252765  10.167  12.657   2.768 -2.6732  0.4380  1.1871
15303SOL     OW52766   6.131   3.899   4.564  0.4244  0.0556  0.3681
15303SOL    HW152767   6.207   3.905   4.622  1.4617 -0.4789 -0.8534
15303SOL    HW252768   6.158   3.835   4.498 -1.7991 -1.5261  0.9006
15304SOL     OW52769  11.456  11.207   3.346  0.0667  0.1016  0.8199
15304SOL    HW152770  11.536  11.248   3.379  0.3059 -0.2502  0.6838
15304SOL    HW252771  11.487  11.135   3.290 -0.3087  1.2077 -0.8883
15305SOL     OW52772   7.402   7.875   6.169  0.1627 -0.5165 -0.0075
15305SOL    HW152773   7.446   7.953   6.203 -0.8834 -0.6643  1.8369
15305SOL    HW252774   7.473   7.813   6.152  0.8701  0.2099  0.2117
15306SOL     OW52775   3.725   7.110   6.679  0.0263  0.5375  0.3046
15306SOL    HW152776   3.738   7.029   6.729 -0.9994  0.9481  1.2663
15306SOL    HW252777   3.659   7.159   6.728  0.1222  1.6585 -0.6349
15307SOL     OW52778   0.276   2.386   5.907  0.2339  0.0455  0.0787
15307SOL    HW152779   0.219   2.463   5.903 -1.3015 -1.0598  0.0106
15307SOL    HW252780   0.350   2.408   5.850  0.3890  1.8975  0.9294
15308SOL     OW52781  12.216  10.199   8.735 -0.2826 -0.3340  0.6157
15308SOL    HW152782  12.291  10.257   8.724 -1.1706  0.9455  1.0527
15308SOL    HW252783  12.212  10.149   8.653 -0.1159  0.9799 -0.2182
15309SOL     OW52784   6.747  11.717  11.890 -0.0384  0.3841 -0.2553
15309SOL    HW152785   6.729  11.811  11.896 -1.3696  0.1445 -0.2070
15309SOL    HW252786   6.668  11.680  11.848 -0.7647 -1.0604  2.1994
15310SOL     OW52787   6.305   4.510   4.290 -0.3195  0.2831  0.4179
15310SOL    HW152788   6.219   4.537   4.257 -0.7471 -0.5556  0.8183
15310SOL    HW252789   6.367   4.568   4.246 -1.0820  0.8324  0.0502
15311SOL     OW52790   3.384   6.027   8.735 -0.0535 -0.3209 -0.6351
15311SOL    HW152791   3.307   6.010   8.789 -0.5118 -0.6520 -1.3931
15311SOL    HW252792   3.457   6.027   8.798 -0.5869 -0.6517 -0.0048
15312SOL     OW52793   7.087  12.222   6.003 -0.5314  0.2135  0.1065
15312SOL    HW152794   7.014  12.282   5.990 -1.5565 -1.1561 -0.7294
15312SOL    HW252795   7.163  12.279   6.013 -1.7102  1.6736  1.1458
15313SOL     OW52796  10.923   3.684  12.436  0.8923  0.1247 -1.1982
15313SOL    HW152797  10.835   3.695  12.400  0.7386  0.6117 -0.7043
15313SOL    HW252798  10.952   3.599  12.404  0.1453 -0.1494 -1.1798
15314SOL     OW52799   7.932   1.005   3.918 -0.0096 -0.2632  0.0676
15314SOL    HW152800   7.986   1.056   3.858  0.4671 -0.4482  0.3398
15314SOL    HW252801   7.843   1.019   3.886  0.1291  0.5589  0.0045
15315SOL     OW52802   3.451  12.459  11.007 -0.1718  0.1022 -0.3710
15315SOL    HW152803   3.530  12.460  11.061 -0.0772 -1.2903 -0.4462
15315SOL    HW252804   3.483  12.457  10.917 -0.3098  0.8475 -0.4377
15316SOL     OW52805   1.697   4.618  10.118  0.1085  0.3650 -0.2983
15316SOL    HW152806   1.719   4.582  10.203 -0.2479  1.8482  0.4500
15316SOL    HW252807   1.604   4.642  10.125 -1.0044 -2.7290 -2.2941
15317SOL     OW52808   6.125   4.311   1.291 -0.4284  0.5756  0.0955
15317SOL    HW152809   6.093   4.393   1.330  1.0886  0.5235  1.5836
15317SOL    HW252810   6.203   4.336   1.242 -1.1885  0.3152 -1.3050
15318SOL     OW52811  10.826   8.468   2.399 -0.3209 -0.2194 -0.6903
15318SOL    HW152812  10.806   8.405   2.468  2.5250 -0.2499  0.2221
15318SOL    HW252813  10.759   8.536   2.409  0.0145 -0.2133  2.1634
15319SOL     OW52814   4.765   3.227   6.020 -0.3621  0.4737 -0.0855
15319SOL    HW152815   4.738   3.269   5.938  0.3968  0.2141 -0.4740
15319SOL    HW252816   4.816   3.293   6.065  2.7320 -0.6469 -1.6868
15320SOL     OW52817   6.330   3.523  11.885 -0.3162  0.2820 -0.1993
15320SOL    HW152818   6.320   3.500  11.977  0.4392 -0.1215 -0.2156
15320SOL    HW252819   6.410   3.576  11.881 -0.2539  0.1628 -0.6421
15321SOL     OW52820   3.179   1.049   5.218  0.3088 -0.2057 -0.6010
15321SOL    HW152821   3.127   1.128   5.236  0.2840 -0.5343  0.9278
15321SOL    HW252822   3.118   0.977   5.235 -0.0587 -0.6009 -3.2125
15322SOL     OW52823   3.576  12.479  12.047  0.3718 -0.1914  0.3093
15322SOL    HW152824   3.524  12.501  12.124 -0.5401 -1.1409 -0.0148
15322SOL    HW252825   3.652  12.537  12.053 -2.5958  4.5554 -1.4086
15323SOL     OW52826   3.166   3.171   6.232  0.4667 -0.6164 -0.2859
15323SOL    HW152827   3.248   3.147   6.188 -0.2591 -1.9673 -0.9830
15323SOL    HW252828   3.193   3.227   6.305  1.9714 -0.7770 -0.6802
15324SOL     OW52829   1.990   1.943   9.942 -0.7329  0.0073 -0.0015
15324SOL    HW152830   1.984   2.022   9.887 -1.9759 -0.1405 -0.1214
15324SOL    HW252831   1.978   1.870   9.881 -0.3937 -0.2391  0.2253
15325SOL     OW52832   7.499  11.728   4.196 -1.0465  0.2900  0.4474
15325SOL    HW152833   7.554  11.745   4.273 -1.4698  0.3121  0.7479
15325SOL    HW252834   7.544  11.773   4.124 -0.4497 -0.0423  0.6077
15326SOL     OW52835   3.067  12.552  10.383  0.4319 -0.2468 -0.5031
15326SOL    HW152836   3.023  12.587  10.306 -0.0330 -0.4701 -0.3388
15326SOL    HW252837   3.048  12.458  10.382 -0.3381 -0.1165  0.3776
15327SOL     OW52838   8.758   7.443   7.299  0.0327 -0.3807 -0.0844
15327SOL    HW152839   8.788   7.517   7.353 -1.0952  0.0989 -0.0825
15327SOL    HW252840   8.679   7.412   7.343 -1.9099  1.1077 -2.2968
15328SOL     OW52841   7.791   5.541  10.083 -0.1561 -0.5477 -0.1892
15328SOL    HW152842   7.878   5.564  10.051 -0.8549  0.1687 -1.7094
15328SOL    HW252843   7.796   5.549  10.178  1.0366  0.8693 -0.3504
15329SOL     OW52844  10.431   2.378  11.513  0.0304  0.0590 -0.3206
15329SOL    HW152845  10.466   2.449  11.460 -1.0967  0.9189  0.0335
15329SOL    HW252846  10.508   2.336  11.551  0.7199  1.1776 -0.4311
15330SOL     OW52847   6.128   1.076   2.581 -0.7311 -1.0486 -0.3003
15330SOL    HW152848   6.082   1.048   2.660  2.7152  0.2201  2.4271
15330SOL    HW252849   6.182   1.001   2.556 -0.3246 -0.7928 -0.2036
15331SOL     OW52850   2.750   8.857   6.151 -0.8493 -0.0412  0.1477
15331SOL    HW152851   2.816   8.877   6.217 -2.0057 -0.0680  1.3381
15331SOL    HW252852   2.728   8.942   6.112  0.6667 -0.1515 -1.0783
15332SOL     OW52853   8.193  10.778   8.774  0.1271 -0.2794 -0.5447
15332SOL    HW152854   8.212  10.850   8.835  0.3075  0.6887 -1.7072
15332SOL    HW252855   8.264  10.716   8.789  1.3982  0.9522 -1.2563
15333SOL     OW52856   2.004   5.024  12.251 -0.2913 -0.1410  0.5562
15333SOL    HW152857   1.917   4.984  12.247 -0.1852 -0.5688  1.9047
15333SOL    HW252858   2.043   4.987  12.330  0.7594  0.7722  0.4803
15334SOL     OW52859   5.532   5.753   0.295  0.0223 -0.1424 -0.1021
15334SOL    HW152860   5.552   5.707   0.213 -1.5813 -1.0297 -0.0409
15334SOL    HW252861   5.581   5.706   0.362 -0.3680 -0.8055 -0.2671
15335SOL     OW52862   9.056   8.127   1.504 -0.4199 -0.3123 -0.1334
15335SOL    HW152863   9.150   8.114   1.493  0.3310 -0.2704  4.1989
15335SOL    HW252864   9.043   8.221   1.487  0.2353 -0.3708 -1.0236
15336SOL     OW52865   6.088   1.444   1.997 -0.7456  0.0737  0.5886
15336SOL    HW152866   6.003   1.446   1.953 -0.5584  3.1402  0.1771
15336SOL    HW252867   6.149   1.411   1.931 -1.0634  1.2231 -0.3043
15337SOL     OW52868   2.221   5.317   6.431  0.0161 -0.8521  0.3229
15337SOL    HW152869   2.248   5.385   6.493 -1.2041 -0.2059  0.1704
15337SOL    HW252870   2.257   5.236   6.467 -0.6716 -0.4929  1.8722
15338SOL     OW52871   1.042   1.964  12.579  0.1223  0.0564 -0.5579
15338SOL    HW152872   0.994   1.886  12.606 -1.2363  0.6985 -1.0604
15338SOL    HW252873   1.084   1.938  12.496  2.0521 -1.0238  0.6692
15339SOL     OW52874  10.981   1.295   5.060 -0.4435 -0.5900 -0.2803
15339SOL    HW152875  11.031   1.289   4.979 -0.2277  1.0660 -0.3162
15339SOL    HW252876  11.048   1.289   5.129 -0.5337 -1.1761 -0.2377
15340SOL     OW52877  12.520   3.764   6.385 -0.4872 -0.3193  0.6498
15340SOL    HW152878  12.590   3.735   6.443 -0.7830 -0.1322  1.1152
15340SOL    HW252879  12.556   3.840   6.339 -0.5157  0.0230  1.1844
15341SOL     OW52880   1.346  11.553   0.406 -0.3550 -0.2636 -0.3284
15341SOL    HW152881   1.288  11.546   0.482  0.4309 -0.3216  0.2736
15341SOL    HW252882   1.317  11.633   0.361 -0.9109 -0.3052 -0.0516
15342SOL     OW52883   4.054   8.948   3.868 -0.2225 -0.7460  0.3290
15342SOL    HW152884   4.053   9.043   3.864 -1.7466 -0.7456  0.2443
15342SOL    HW252885   4.140   8.926   3.903  0.3663  0.6304 -0.1943
15343SOL     OW52886  11.509   0.383  10.299 -0.6518 -0.3338  0.2337
15343SOL    HW152887  11.416   0.359  10.298 -0.1726 -2.3033 -0.0373
15343SOL    HW252888  11.555   0.302  10.279  1.1280  0.7192 -0.0910
15344SOL     OW52889   5.605  10.714   3.977 -0.0243 -0.1353 -0.1534
15344SOL    HW152890   5.584  10.653   3.906  0.9302 -1.1377  0.3967
15344SOL    HW252891   5.520  10.732   4.018 -0.3247 -1.1539 -0.2901
15345SOL     OW52892   6.276   3.857   5.943  0.0930 -0.3257 -0.4164
15345SOL    HW152893   6.337   3.849   5.870 -0.7274 -0.1087 -1.1516
15345SOL    HW252894   6.247   3.949   5.939  0.9397  0.0224  0.9306
15346SOL     OW52895   2.611  10.457   1.138 -0.2217 -0.4638  0.1010
15346SOL    HW152896   2.615  10.476   1.045 -1.3828 -1.7130 -0.2364
15346SOL    HW252897   2.543  10.515   1.172 -0.2185 -0.4393  0.0663
15347SOL     OW52898   3.137   6.803  10.938 -0.3349  0.1116 -0.3503
15347SOL    HW152899   3.202   6.872  10.921 -0.5846  0.3478 -0.3663
15347SOL    HW252900   3.069   6.847  10.989 -0.5649 -0.0891 -0.4821
15348SOL     OW52901   0.340   5.863   7.843 -0.1580  0.3510  0.2454
15348SOL    HW152902   0.383   5.914   7.774 -0.5693 -0.4219 -0.6022
15348SOL    HW252903   0.406   5.799   7.870 -0.5427 -0.4349 -0.6238
15349SOL     OW52904   6.991   3.571   1.232 -0.0062 -0.2040  0.1931
15349SOL    HW152905   7.004   3.569   1.137  0.1687 -0.4917  0.2243
15349SOL    HW252906   7.043   3.646   1.262  0.9931 -0.9029  0.2270
15350SOL     OW52907   4.524  11.891   7.807  0.7282  0.3992 -0.3223
15350SOL    HW152908   4.498  11.855   7.722  2.7870  2.1323 -1.7993
15350SOL    HW252909   4.472  11.970   7.818 -0.2434 -0.3396  0.5417
15351SOL     OW52910   1.458   7.922   7.954 -0.2724 -0.0017  0.2462
15351SOL    HW152911   1.516   7.922   8.029 -1.1255 -0.2019  0.9239
15351SOL    HW252912   1.499   7.863   7.891  1.9124  2.2919 -0.6551
15352SOL     OW52913  12.519  10.885  11.701 -0.0679  0.0772 -0.2029
15352SOL    HW152914  12.537  10.792  11.683 -0.7133 -0.0686 -0.1023
15352SOL    HW252915  12.425  10.889  11.717 -0.3242  0.9904 -1.7275
15353SOL     OW52916   4.850   5.745   4.728  0.5916  0.3721  0.0104
15353SOL    HW152917   4.760   5.745   4.762 -0.3650  0.5552 -2.3546
15353SOL    HW252918   4.868   5.653   4.708  0.6345  0.4425 -0.2709
15354SOL     OW52919  10.191   4.908  12.436  0.0036 -0.6691  0.0986
15354SOL    HW152920  10.133   4.908  12.360  1.8254  1.2036 -1.4000
15354SOL    HW252921  10.145   4.962  12.501 -0.4167 -0.0935 -0.6601
15355SOL     OW52922  11.184   4.713   1.657  0.0758 -0.5317  0.0704
15355SOL    HW152923  11.100   4.669   1.654 -0.5896  0.7067 -0.2582
15355SOL    HW252924  11.186   4.757   1.742  0.1387 -0.0919 -0.1540
15356SOL     OW52925  12.361   7.476   5.709  0.3451 -0.1699 -0.0702
15356SOL    HW152926  12.292   7.460   5.773  0.6639 -2.3562 -0.1956
15356SOL    HW252927  12.314   7.511   5.632 -0.4969 -0.7664  0.1631
15357SOL     OW52928   4.986  10.224   7.608 -0.2018 -0.3171 -0.0586
15357SOL    HW152929   4.917  10.176   7.562  0.0002 -1.6492  0.9676
15357SOL    HW252930   5.062  10.220   7.551 -0.3547 -0.7279 -0.2321
15358SOL     OW52931  11.182   5.971   0.698  0.0675 -0.3888  0.1936
15358SOL    HW152932  11.128   6.027   0.755  0.2272 -0.2111  0.1689
15358SOL    HW252933  11.241   6.031   0.653 -0.0678 -0.5297 -0.1742
15359SOL     OW52934   6.572   6.968   9.254 -0.0922  0.2376  0.0144
15359SOL    HW152935   6.654   6.918   9.261 -0.1730 -0.1935 -1.7560
15359SOL    HW252936   6.527   6.952   9.338  0.5447 -1.4917  0.0585
15360SOL     OW52937  10.592   3.611   5.764 -0.3091 -0.2059  0.6596
15360SOL    HW152938  10.595   3.515   5.771 -1.7606 -0.2474  0.8272
15360SOL    HW252939  10.503   3.631   5.736 -0.2459  1.1474  1.3569
15361SOL     OW52940   7.183   2.375   4.285  0.1351  0.1481 -0.4315
15361SOL    HW152941   7.210   2.300   4.231  1.1911  0.7342 -0.7519
15361SOL    HW252942   7.164   2.337   4.371  0.6112 -0.4925 -0.6009
15362SOL     OW52943  10.828   9.617  10.810  0.3038  0.5886 -0.3479
15362SOL    HW152944  10.851   9.583  10.897 -0.6034 -0.6089 -0.5489
15362SOL    HW252945  10.910   9.616  10.762  0.2884 -1.8499 -0.4852
15363SOL     OW52946  12.558  10.479  12.145  0.9198 -0.2061 -0.1055
15363SOL    HW152947  12.621  10.421  12.102  0.2164  0.0458 -1.5292
15363SOL    HW252948  12.474  10.436  12.133  0.4230  0.9463 -0.9303
15364SOL     OW52949   1.333  12.321  11.889  0.6960  0.2266  0.0616
15364SOL    HW152950   1.303  12.271  11.965  0.9617 -0.5165 -0.3069
15364SOL    HW252951   1.281  12.287  11.816  1.1946  0.1674 -0.2740
15365SOL     OW52952   6.065   9.387   8.227  0.2632 -0.1986  0.0191
15365SOL    HW152953   6.073   9.330   8.151 -0.3611 -0.6008  0.2460
15365SOL    HW252954   6.035   9.329   8.298 -3.6648  0.8838 -0.4964
15366SOL     OW52955   7.525   4.845  12.388 -0.6709 -0.4674  0.0299
15366SOL    HW152956   7.598   4.860  12.448 -0.8131 -0.4582  0.2015
15366SOL    HW252957   7.452   4.892  12.427 -0.7265 -0.3349 -0.2319
15367SOL     OW52958   1.244   2.921   0.693 -0.1003 -0.1657  0.0578
15367SOL    HW152959   1.337   2.945   0.685 -0.2601  0.9429  1.1620
15367SOL    HW252960   1.209   2.984   0.756 -1.6140 -0.5718 -0.3474
15368SOL     OW52961   7.635  11.814   4.431 -0.1500  0.4759 -0.1031
15368SOL    HW152962   7.647  11.908   4.447  0.8474  0.1364  1.3925
15368SOL    HW252963   7.574  11.786   4.499  0.1546 -0.0894 -0.0500
15369SOL     OW52964   2.189   4.184   4.523  0.2435  0.0909  0.2111
15369SOL    HW152965   2.167   4.110   4.580 -0.1354  0.3903  0.4511
15369SOL    HW252966   2.106   4.207   4.481  0.6135 -0.5017 -0.9125
15370SOL     OW52967  12.005   8.091   5.803 -0.1007  0.1276 -0.0147
15370SOL    HW152968  11.940   8.080   5.872 -0.9220  1.0959 -0.6068
15370SOL    HW252969  11.956   8.128   5.730  1.1945  1.3409 -0.3093
15371SOL     OW52970   3.952   1.888  10.884 -0.3377 -0.1521  0.1287
15371SOL    HW152971   3.920   1.960  10.939 -0.6765 -0.7222  0.6756
15371SOL    HW252972   3.960   1.813  10.943 -1.6541 -1.0377 -0.7769
15372SOL     OW52973   7.050   4.176   3.247 -0.5885 -0.1070  0.0629
15372SOL    HW152974   6.972   4.157   3.195  1.1921 -2.2711 -2.0618
15372SOL    HW252975   7.023   4.245   3.307 -3.6451  0.4279 -1.7332
15373SOL     OW52976  10.447   8.178  10.602  0.2696  0.0632 -0.1470
15373SOL    HW152977  10.439   8.267  10.638 -0.0438  0.5333 -1.3203
15373SOL    HW252978  10.520   8.185  10.540  2.1904 -1.2439  1.8346
15374SOL     OW52979   9.504   8.335   2.481  0.4933  0.3566 -0.0297
15374SOL    HW152980   9.532   8.405   2.539  0.1794 -1.5794  2.6760
15374SOL    HW252981   9.409   8.333   2.491  0.4135  0.1158 -0.7902
15375SOL     OW52982  10.133  12.069  11.049  0.0879 -0.2746 -0.8848
15375SOL    HW152983  10.112  12.161  11.032 -0.8407 -0.3059 -0.0217
15375SOL    HW252984  10.220  12.057  11.011  0.8496  1.3367  0.2486
15376SOL     OW52985  10.441   7.391   0.434 -0.1840  0.0872  0.6729
15376SOL    HW152986  10.375   7.383   0.365  0.8309 -0.0892 -0.2996
15376SOL    HW252987  10.479   7.304   0.441  0.4415  0.3635  0.7259
15377SOL     OW52988   3.277   6.617   4.603  0.0020 -0.1951 -0.0065
15377SOL    HW152989   3.268   6.570   4.686 -0.9630 -1.3716 -0.7431
15377SOL    HW252990   3.265   6.709   4.626 -0.7649 -0.5524  1.0926
15378SOL     OW52991   6.243   8.338   9.709 -0.2729  0.9713 -0.0392
15378SOL    HW152992   6.177   8.269   9.699 -0.4077  0.9192  1.0697
15378SOL    HW252993   6.202   8.401   9.769 -0.1940  2.0865 -1.1216
15379SOL     OW52994   0.003   0.435   2.169 -0.0560 -0.1100  0.0428
15379SOL    HW152995   0.077   0.483   2.205  1.7849 -1.8206 -1.2522
15379SOL    HW252996  -0.032   0.384   2.242  0.0522  0.7010  0.6574
15380SOL     OW52997   5.311   0.135  10.945 -0.4167  0.0225 -0.4283
15380SOL    HW152998   5.318   0.230  10.939  0.6879 -0.0365 -0.2810
15380SOL    HW252999   5.233   0.120  10.998 -0.0867  0.8634  0.3166
15381SOL     OW53000   7.248   9.934   2.726 -0.6266  0.2041 -0.6351
15381SOL    HW153001   7.166   9.894   2.696 -2.4254  1.4513  2.1216
15381SOL    HW253002   7.300   9.860   2.758 -0.5254 -0.6372 -2.6043
15382SOL     OW53003   3.963   4.780  12.345  0.3808 -0.6115  0.4393
15382SOL    HW153004   3.913   4.775  12.427  0.2935  1.5034  0.5622
15382SOL    HW253005   3.906   4.830  12.286  1.4616  0.0049 -0.1046
15383SOL     OW53006   2.277   5.505  11.785  0.1650  0.4468 -0.2263
15383SOL    HW153007   2.183   5.489  11.788 -0.1164  2.0642  0.5250
15383SOL    HW253008   2.307   5.454  11.709 -1.8448  2.3232 -2.4620
15384SOL     OW53009   9.806   1.208   5.559 -0.0241  0.1155  0.0020
15384SOL    HW153010   9.780   1.252   5.478 -0.9994 -0.8616 -0.2384
15384SOL    HW253011   9.739   1.232   5.622  0.0373 -0.1356  0.1657
15385SOL     OW53012   4.428   3.988   9.138 -0.3416 -0.2256  0.4784
15385SOL    HW153013   4.440   4.012   9.230 -0.9516  1.1611  0.2285
15385SOL    HW253014   4.497   4.036   9.092 -0.6258 -0.1612  0.1158
15386SOL     OW53015  12.047   3.164   0.589  0.1468 -0.5611 -0.3943
15386SOL    HW153016  11.965   3.205   0.616  1.1605 -0.8418  3.7483
15386SOL    HW253017  12.099   3.236   0.554 -0.9599  0.1061 -0.7177
15387SOL     OW53018   9.012   1.418   4.091  0.0027  0.2470 -0.6345
15387SOL    HW153019   8.961   1.396   4.013 -0.0784 -1.3710 -0.1645
15387SOL    HW253020   9.064   1.340   4.109 -0.1416  0.4885  1.0572
15388SOL     OW53021   2.339   4.614   9.922  0.4280  0.5923 -0.7899
15388SOL    HW153022   2.379   4.587   9.839 -0.7136 -2.4187 -0.4574
15388SOL    HW253023   2.404   4.590   9.989 -0.0565 -0.1890 -0.5868
15389SOL     OW53024   9.458  11.663   5.177  0.6921  0.5120  0.0305
15389SOL    HW153025   9.396  11.682   5.106  0.7791  0.3331 -0.0962
15389SOL    HW253026   9.476  11.748   5.216  0.1536  0.5349  0.2480
15390SOL     OW53027  12.489   5.537   5.781 -0.1843 -0.3659 -0.1725
15390SOL    HW153028  12.499   5.485   5.860 -2.9008 -1.5124 -0.4785
15390SOL    HW253029  12.570   5.522   5.732  2.5335  2.0335  3.1430
15391SOL     OW53030   5.403   1.374  10.087  0.6543  0.6090  0.1505
15391SOL    HW153031   5.430   1.341  10.173  1.4261 -0.9700 -0.6470
15391SOL    HW253032   5.472   1.344  10.027  1.0462  3.0977 -0.8103
15392SOL     OW53033   7.294   9.508   5.978 -0.0069  0.3309  0.0197
15392SOL    HW153034   7.199   9.504   5.990 -0.1297 -1.0965 -1.1805
15392SOL    HW253035   7.306   9.542   5.889  0.6725  2.1491  0.7630
15393SOL     OW53036   1.643   6.484   0.693 -0.1806 -0.5065 -0.2589
15393SOL    HW153037   1.576   6.532   0.741  0.0249  1.1040 -1.4988
15393SOL    HW253038   1.721   6.539   0.697  0.5664 -1.5159 -0.3549
15394SOL     OW53039   2.270   3.319   3.540  0.3133  0.2247  0.9801
15394SOL    HW153040   2.227   3.247   3.495  0.0752  1.0244 -0.1279
15394SOL    HW253041   2.308   3.280   3.619  0.6099 -1.2029  0.1611
15395SOL     OW53042  11.210   3.641  10.986  0.0322  0.3320  0.4826
15395SOL    HW153043  11.235   3.658  11.077  1.5742 -1.7449  0.5183
15395SOL    HW253044  11.286   3.598  10.948 -0.8860  0.4245 -1.5927
15396SOL     OW53045   5.870   4.208   4.221 -0.0856  0.0493  0.2857
15396SOL    HW153046   5.860   4.219   4.315  1.5604 -0.0361  0.5000
15396SOL    HW253047   5.784   4.230   4.185 -0.8054 -0.1541  1.8108
15397SOL     OW53048   4.488   0.047  11.129 -0.4130  0.1399  0.0698
15397SOL    HW153049   4.545   0.105  11.079 -1.4048 -0.1704 -1.4862
15397SOL    HW253050   4.445   0.104  11.192  0.2527  0.6812  0.0496
15398SOL     OW53051   6.952   7.674   1.465 -0.3165  0.1945 -0.1820
15398SOL    HW153052   6.860   7.669   1.440  0.1221 -0.5451 -1.7502
15398SOL    HW253053   6.978   7.764   1.444 -0.5523  0.2619 -0.1858
15399SOL     OW53054   2.716   3.082   1.118  0.3382  0.6441 -0.5705
15399SOL    HW153055   2.630   3.070   1.159  0.8602 -0.4726  0.2511
15399SOL    HW253056   2.745   3.169   1.147  0.5666  0.0030  1.2604
15400SOL     OW53057   8.483   1.928   9.723 -0.2555  0.1072 -0.8127
15400SOL    HW153058   8.457   1.904   9.812 -2.6053  1.8101 -0.9502
15400SOL    HW253059   8.532   2.009   9.733 -0.7228  0.4272 -1.0582
15401SOL     OW53060   5.258   6.376   0.626  0.5764  0.3220  0.0923
15401SOL    HW153061   5.273   6.410   0.714  1.5783  0.7385 -0.2312
15401SOL    HW253062   5.277   6.282   0.633  1.7382  0.5470  0.0799
15402SOL     OW53063   2.333   4.379  11.340 -0.6685  0.0725  0.0919
15402SOL    HW153064   2.404   4.340  11.290 -0.9716 -0.3695  0.0005
15402SOL    HW253065   2.281   4.427  11.275  0.1684  1.3474  0.3290
15403SOL     OW53066   2.984   3.792   3.827  0.0885 -0.3120  0.5169
15403SOL    HW153067   2.960   3.787   3.735  0.3606 -1.2076  0.4920
15403SOL    HW253068   2.932   3.724   3.870  1.6590 -1.4763  0.6514
15404SOL     OW53069   6.659   7.252   1.309  0.4818  0.5675  0.2498
15404SOL    HW153070   6.688   7.161   1.306 -0.4455  0.2619 -1.6435
15404SOL    HW253071   6.622   7.264   1.396 -1.3568 -1.5894 -0.1442
15405SOL     OW53072   1.159   1.779   8.238  0.0394  0.1792 -0.1928
15405SOL    HW153073   1.070   1.756   8.209  0.2341 -1.9634  0.7517
15405SOL    HW253074   1.214   1.763   8.161 -0.3872  2.0995 -0.9808
15406SOL     OW53075   5.761   7.698   0.048  0.5615  1.0712  0.1602
15406SOL    HW153076   5.736   7.751  -0.027 -0.4249  2.7274  1.5771
15406SOL    HW253077   5.847   7.731   0.074 -0.0876  2.0955  1.0912
15407SOL     OW53078   0.044   3.911   7.784  0.2294 -0.3683  0.5011
15407SOL    HW153079   0.077   3.930   7.872  1.2073 -0.8682  0.2622
15407SOL    HW253080   0.029   3.816   7.784  1.1642 -0.5287 -0.1599
15408SOL     OW53081   0.182  11.165   8.316  0.1238  0.7230  0.3270
15408SOL    HW153082   0.150  11.117   8.393  0.4876  0.9507  0.6269
15408SOL    HW253083   0.104  11.209   8.281  0.1382  1.4433  1.1710
15409SOL     OW53084   9.150   8.614   2.212  0.4771 -0.5535  0.4496
15409SOL    HW153085   9.066   8.577   2.186  0.5317 -1.3635  1.3644
15409SOL    HW253086   9.128   8.682   2.276  0.4606 -0.0099 -0.1297
15410SOL     OW53087   1.810   8.233   2.489 -0.3912  0.5297  0.1142
15410SOL    HW153088   1.741   8.180   2.530  0.7474 -0.4046  0.8964
15410SOL    HW253089   1.883   8.172   2.476  0.6649  1.7092  0.2784
15411SOL     OW53090   6.881   2.440   6.165  0.5380 -0.5222  0.5449
15411SOL    HW153091   6.821   2.404   6.100 -0.0939 -2.2023  1.9840
15411SOL    HW253092   6.959   2.463   6.115 -0.5069 -0.2267 -1.0398
15412SOL     OW53093   8.996   6.671   6.558  0.5003  0.3888  0.3975
15412SOL    HW153094   8.932   6.599   6.559 -1.1333  1.6013  4.2210
15412SOL    HW253095   8.949   6.744   6.517  0.8591  0.2564 -0.2569
15413SOL     OW53096   4.122   1.606  10.383 -0.1682  0.0005  0.1096
15413SOL    HW153097   4.048   1.544  10.390  0.2432 -0.3458  1.8725
15413SOL    HW253098   4.120   1.654  10.465  0.6793  1.0383 -0.4633
15414SOL     OW53099   2.527   4.160   2.309  0.5561  0.7155 -0.2261
15414SOL    HW153100   2.432   4.167   2.302  0.6923  1.0912 -2.4150
15414SOL    HW253101   2.557   4.251   2.322  0.5521  0.3873  2.7664
15415SOL     OW53102   5.022  12.253   0.319  0.0922 -0.2903  0.3291
15415SOL    HW153103   4.983  12.166   0.331 -2.7355  0.6578 -1.2500
15415SOL    HW253104   4.956  12.314   0.352  0.9905  1.3556 -0.7989
15416SOL     OW53105   4.869  11.487   0.599 -0.1230 -0.3837  0.7931
15416SOL    HW153106   4.863  11.466   0.506 -1.8036  0.8386  0.5673
15416SOL    HW253107   4.818  11.418   0.642  0.2356 -0.6730  0.7519
15417SOL     OW53108   6.014   7.793   3.328 -0.1385 -0.0317 -0.0950
15417SOL    HW153109   5.935   7.817   3.280 -1.5785 -1.1129  1.6266
15417SOL    HW253110   6.037   7.706   3.295  0.0368  0.0665 -0.2330
15418SOL     OW53111   0.353  11.229   3.811 -0.1177 -0.6735 -0.0134
15418SOL    HW153112   0.293  11.170   3.765  1.0421 -0.0991 -2.4363
15418SOL    HW253113   0.431  11.230   3.756  1.6087 -0.3393  2.3466
15419SOL     OW53114   6.622   8.093   4.351  0.1742  0.2219 -0.0162
15419SOL    HW153115   6.626   8.183   4.383 -1.5421  0.5419 -0.5788
15419SOL    HW253116   6.581   8.101   4.264 -1.0424 -1.1910  0.3949
15420SOL     OW53117   6.049   2.460  10.135  0.6395 -0.3507 -0.0717
15420SOL    HW153118   6.085   2.372  10.125 -0.6526 -0.8763 -0.2286
15420SOL    HW253119   6.022   2.485  10.046 -2.8252 -1.5123  0.5397
15421SOL     OW53120   5.054   1.446   4.904 -0.8793  0.0874  0.1777
15421SOL    HW153121   5.072   1.435   4.810 -2.8069  0.8647 -0.3178
15421SOL    HW253122   4.959   1.445   4.911 -0.8236  1.5442  1.9388
15422SOL     OW53123   2.486   9.326   0.918 -0.2367  0.2383  0.0416
15422SOL    HW153124   2.555   9.275   0.876  0.6077  1.2679  0.1221
15422SOL    HW253125   2.445   9.265   0.979 -0.4902 -0.8477 -1.1832
15423SOL     OW53126   3.948   4.088   4.563 -0.4042 -0.4562  0.0412
15423SOL    HW153127   3.900   4.155   4.612 -1.1741 -0.0261 -1.2396
15423SOL    HW253128   3.953   4.014   4.622 -0.4562  0.3675  1.1142
15424SOL     OW53129   5.867   8.776   9.455 -0.1914  0.0849 -0.4301
15424SOL    HW153130   5.841   8.816   9.372  2.6660  0.5920 -1.1680
15424SOL    HW253131   5.869   8.849   9.517  1.3949  0.4471 -0.8777
15425SOL     OW53132   0.121  11.332   9.379 -0.6611  0.0020 -0.0547
15425SOL    HW153133   0.102  11.424   9.360  0.7010  0.6575  1.5567
15425SOL    HW253134   0.134  11.293   9.292 -0.8684  1.4163 -0.7629
15426SOL     OW53135   3.294  10.960   1.300  0.2558  0.5264  0.2171
15426SOL    HW153136   3.259  10.994   1.217  1.6899  1.0933 -0.1862
15426SOL    HW253137   3.235  10.994   1.367  1.2507  3.3217 -0.2240
15427SOL     OW53138  12.560   8.222   3.906 -0.9475 -0.3666  1.1085
15427SOL    HW153139  12.514   8.301   3.934 -1.5509 -0.0920 -0.5272
15427SOL    HW253140  12.546   8.219   3.811  0.3240 -1.6393  0.9332
15428SOL     OW53141   2.283  10.430  10.748  0.7496  0.1389 -0.5160
15428SOL    HW153142   2.245  10.412  10.662  1.2504 -0.1556 -0.6789
15428SOL    HW253143   2.211  10.416  10.809  0.9307 -1.8385 -0.6770
15429SOL     OW53144   1.439   7.714   5.997 -0.0181 -0.0426 -1.0857
15429SOL    HW153145   1.467   7.627   5.969  2.1946  1.0569 -2.5931
15429SOL    HW253146   1.509   7.772   5.967 -0.9970  2.1667  0.6414
15430SOL     OW53147   2.889   8.601   8.519  0.2146  0.7387 -0.0922
15430SOL    HW153148   2.806   8.553   8.516 -0.3741  1.5474  1.8137
15430SOL    HW253149   2.928   8.586   8.433 -0.0337 -2.9209  0.2527
15431SOL     OW53150   7.255   2.968   0.367 -0.5839  0.0650 -0.1132
15431SOL    HW153151   7.200   2.954   0.289  0.8859  1.3888 -1.4576
15431SOL    HW253152   7.218   3.045   0.409 -0.3035  0.4169 -0.5099
15432SOL     OW53153   4.663   4.938   0.876  0.2355 -0.4558 -0.0362
15432SOL    HW153154   4.575   4.930   0.839 -0.2339  1.8058  0.4283
15432SOL    HW253155   4.708   4.998   0.816  0.5258  0.5990  1.1947
15433SOL     OW53156   4.775   8.845   4.235 -0.1675 -0.4028  0.7646
15433SOL    HW153157   4.806   8.811   4.319 -1.3286 -1.4001  0.8115
15433SOL    HW253158   4.855   8.872   4.190  0.5513 -0.6395  1.8395
15434SOL     OW53159   4.006  10.319  10.822  0.0109  0.4984  0.6342
15434SOL    HW153160   4.036  10.228  10.813 -1.2414  0.2081 -0.9814
15434SOL    HW253161   4.087  10.370  10.825  0.7284 -0.5350 -0.3022
15435SOL     OW53162   6.926   6.790   0.981  0.2070  0.2319  0.2604
15435SOL    HW153163   6.855   6.772   1.042  0.9928  0.3808  1.2543
15435SOL    HW253164   6.965   6.872   1.014  0.7128  0.2494 -0.3684
15436SOL     OW53165   5.363   2.318  10.473  0.2132  0.3646 -0.0060
15436SOL    HW153166   5.277   2.320  10.432 -0.5226 -0.8316  1.4026
15436SOL    HW253167   5.384   2.410  10.490  0.4461  0.8961 -2.7078
15437SOL     OW53168   5.106   8.613   4.025  0.1057 -0.3169 -0.0552
15437SOL    HW153169   5.093   8.616   3.931 -0.2173  0.0736 -0.0010
15437SOL    HW253170   5.196   8.644   4.038  0.1765 -0.4439 -0.2372
15438SOL     OW53171   0.308   7.354   1.934 -0.9641 -0.3806 -0.3283
15438SOL    HW153172   0.318   7.383   2.025 -1.7566  0.9718 -0.6449
15438SOL    HW253173   0.231   7.401   1.903 -1.1330 -1.3903 -1.4916
15439SOL     OW53174   5.701   3.376   8.918  0.1018 -1.0551 -0.1627
15439SOL    HW153175   5.664   3.348   8.834 -2.4527 -1.6787  1.0802
15439SOL    HW253176   5.707   3.471   8.911 -0.2973 -1.0849 -0.9738
15440SOL     OW53177  11.693   4.766   2.845  0.1598 -0.2005 -0.3119
15440SOL    HW153178  11.711   4.760   2.938  2.1998  0.1536 -0.6487
15440SOL    HW253179  11.777   4.748   2.802 -0.6263  0.0528 -2.0729
15441SOL     OW53180   7.342   3.240   8.457  0.1146  0.0014  0.4740
15441SOL    HW153181   7.389   3.171   8.504  0.1632 -0.1207  0.2464
15441SOL    HW253182   7.400   3.316   8.462  0.6401 -0.3213 -0.3553
15442SOL     OW53183   5.236   8.655   6.652 -0.2770 -0.0941 -0.0672
15442SOL    HW153184   5.279   8.569   6.649 -1.1490 -0.5169 -0.9707
15442SOL    HW253185   5.148   8.639   6.617  0.0861  1.4688 -1.8399
15443SOL     OW53186   8.651   1.521   7.994 -0.4643 -0.4977 -0.4653
15443SOL    HW153187   8.693   1.604   7.975  0.4293 -0.5480  1.0964
15443SOL    HW253188   8.560   1.532   7.965 -0.7825  1.6097  1.1471
15444SOL     OW53189   4.885   0.287   8.702  0.4160  0.6583  0.1580
15444SOL    HW153190   4.952   0.293   8.769  0.2328 -0.1552  0.4301
15444SOL    HW253191   4.887   0.371   8.657  0.8250  1.0556  0.9125
15445SOL     OW53192   5.917   0.604   8.589  0.4230  0.4130  0.1961
15445SOL    HW153193   5.928   0.509   8.579  0.1325  0.2263  1.4050
15445SOL    HW253194   5.951   0.622   8.677 -2.2063  0.9659  1.1675
15446SOL     OW53195   5.778   2.347   7.916 -0.2310  0.5171 -0.1080
15446SOL    HW153196   5.850   2.337   7.979  0.5933  0.2733 -1.0637
15446SOL    HW253197   5.807   2.299   7.839 -1.2457  0.7814 -0.6717
15447SOL     OW53198   7.956   6.477  11.463  0.1392  0.3033  0.3415
15447SOL    HW153199   7.921   6.388  11.471 -1.1215  0.7444 -0.0051
15447SOL    HW253200   7.885   6.533  11.494 -1.7374  1.6324 -5.1775
15448SOL     OW53201   0.660   9.730   4.545  0.0574 -0.1863  0.4763
15448SOL    HW153202   0.574   9.694   4.566  0.1075 -0.2316  0.6071
15448SOL    HW253203   0.716   9.654   4.534  0.6309 -0.1583  2.7086
15449SOL     OW53204   5.227  11.737   9.450 -0.1542  0.2428 -0.0326
15449SOL    HW153205   5.235  11.644   9.474  0.3982  0.5663  1.1041
15449SOL    HW253206   5.176  11.776   9.521 -0.3592  0.8197 -0.4877
15450SOL     OW53207  10.659   2.423  12.570 -0.1534  0.4128 -0.0105
15450SOL    HW153208  10.666   2.468  12.654  1.0812  0.5519 -0.1640
15450SOL    HW253209  10.603   2.479  12.517  0.2283  1.0585  0.2613
15451SOL     OW53210   1.473   4.141   2.103  0.0680 -0.2884  0.0530
15451SOL    HW153211   1.393   4.093   2.122 -0.3966  0.7071  0.7208
15451SOL    HW253212   1.445   4.211   2.044 -0.0637  1.4601  2.0435
15452SOL     OW53213   6.179   9.462   5.543 -0.4762 -0.2621  0.7021
15452SOL    HW153214   6.143   9.412   5.471 -3.2068  1.3921  0.7668
15452SOL    HW253215   6.181   9.553   5.511  5.6035 -0.2057  0.0455
15453SOL     OW53216  12.408   8.532   1.873  0.3260 -0.3333  0.3937
15453SOL    HW153217  12.499   8.502   1.868  1.0534  1.8318 -0.4870
15453SOL    HW253218  12.356   8.453   1.855  1.9888 -1.6447  1.0391
15454SOL     OW53219   2.813   2.495   7.666  0.0099 -0.5344 -0.0869
15454SOL    HW153220   2.856   2.579   7.680  1.9097 -0.9425 -2.6776
15454SOL    HW253221   2.722   2.517   7.646 -0.2967  0.6072  2.2189
15455SOL     OW53222   0.848   1.812  11.605 -0.5651  0.2753 -0.3090
15455SOL    HW153223   0.925   1.852  11.565 -0.2432 -1.0012 -1.0209
15455SOL    HW253224   0.883   1.742  11.660 -1.1706  0.2176  0.0076
15456SOL     OW53225   2.059  10.113   2.137  0.1227 -0.0142  0.1026
15456SOL    HW153226   2.076  10.065   2.218  1.4405 -1.6046 -1.0535
15456SOL    HW253227   2.100  10.060   2.069 -2.9014  0.0277 -1.9411
15457SOL     OW53228   9.959   2.300   2.630  0.3468 -0.1822 -0.8204
15457SOL    HW153229   9.915   2.255   2.702  0.5901  2.9388  1.5511
15457SOL    HW253230  10.049   2.269   2.634  0.1866 -0.5783 -0.2096
15458SOL     OW53231   9.344   6.408   5.746  0.6070 -0.1047  0.5861
15458SOL    HW153232   9.376   6.319   5.736  1.8711  0.3397  0.5550
15458SOL    HW253233   9.288   6.422   5.669  1.8537 -0.2763 -0.3880
15459SOL     OW53234   4.106  12.375   9.656 -0.2410 -0.1294  0.1289
15459SOL    HW153235   4.036  12.436   9.631  0.7173  1.2585  0.7062
15459SOL    HW253236   4.186  12.416   9.622  0.5571 -0.4801  1.5357
15460SOL     OW53237   3.480   8.992   2.638 -0.4294 -0.7064 -0.4905
15460SOL    HW153238   3.440   8.913   2.601 -1.4727  0.3875 -1.8546
15460SOL    HW253239   3.450   8.994   2.728 -0.5925 -1.7242 -0.5041
15461SOL     OW53240   5.001   2.486   2.558 -0.1010 -0.1533  0.5540
15461SOL    HW153241   5.044   2.461   2.477  0.0599  1.5988  0.0443
15461SOL    HW253242   5.070   2.527   2.610 -0.7193  0.9577  0.5275
15462SOL     OW53243   8.739   8.820   7.579 -0.3797 -0.4201  0.3201
15462SOL    HW153244   8.650   8.847   7.559 -0.3124  0.9981  1.7808
15462SOL    HW253245   8.787   8.901   7.593  0.8699 -1.1909  0.6817
15463SOL     OW53246   0.953   5.446   8.715  0.3634  0.1376 -0.5599
15463SOL    HW153247   0.940   5.527   8.666 -2.2988  0.0669 -0.1181
15463SOL    HW253248   0.947   5.377   8.649  0.5884  0.1886 -0.6371
15464SOL     OW53249   0.357   5.477  11.528  0.1205  0.0234  0.3689
15464SOL    HW153250   0.361   5.411  11.459 -0.4975 -1.0373  1.3091
15464SOL    HW253251   0.366   5.427  11.609 -0.4060  1.0949  1.1077
15465SOL     OW53252  12.012  10.944   8.660  0.2239 -0.0617  0.2322
15465SOL    HW153253  12.014  10.908   8.571 -1.6222  1.6550 -0.5659
15465SOL    HW253254  11.986  10.869   8.714  1.2698 -1.1151 -0.6575
15466SOL     OW53255   5.798   7.403   7.822 -0.1688  0.0422  0.2717
15466SOL    HW153256   5.777   7.484   7.775  0.0172 -0.4648 -0.6947
15466SOL    HW253257   5.713   7.362   7.838 -0.2185  0.1344  0.2448
15467SOL     OW53258   9.453   8.686   5.626  0.1169 -0.1185 -0.2102
15467SOL    HW153259   9.393   8.645   5.689  2.4629 -1.0818  1.5699
15467SOL    HW253260   9.451   8.779   5.648 -1.1714 -0.0305 -0.6190
15468SOL     OW53261   8.073  12.425   1.600 -0.1177  0.5394 -0.1782
15468SOL    HW153262   8.165  12.450   1.607  0.3153 -0.8324 -0.5731
15468SOL    HW253263   8.067  12.382   1.514 -0.9729  0.0669  0.1071
15469SOL     OW53264   2.213   0.173   7.192 -0.0744  0.3123 -0.0009
15469SOL    HW153265   2.265   0.106   7.148  1.0570 -0.8275  2.8375
15469SOL    HW253266   2.263   0.253   7.180  0.3541 -0.0259 -0.5173
15470SOL     OW53267  10.661   9.938   9.156  0.3547 -0.6143 -0.2073
15470SOL    HW153268  10.718  10.011   9.180 -0.1103 -0.3350  0.0585
15470SOL    HW253269  10.647   9.948   9.061  1.7185 -1.3859 -0.5240
15471SOL     OW53270  10.835   7.456  10.304  0.2379 -0.2296  0.0739
15471SOL    HW153271  10.892   7.450  10.227  0.1617  0.4035 -0.0388
15471SOL    HW253272  10.850   7.374  10.351  0.9145 -0.2619 -0.1794
15472SOL     OW53273   3.870  12.066   4.682 -0.0686 -0.2898  0.5702
15472SOL    HW153274   3.842  11.981   4.715 -0.4991  0.4162  2.0733
15472SOL    HW253275   3.860  12.126   4.755  1.4110  0.8375 -0.0793
15473SOL     OW53276   0.038   5.184   3.702  0.1584 -0.0315  0.4174
15473SOL    HW153277   0.047   5.113   3.639 -1.8205 -0.8420  0.9895
15473SOL    HW253278   0.122   5.231   3.696  1.9747 -2.9478  0.7330
15474SOL     OW53279   8.112   1.763   1.960  0.0947 -0.2878 -0.4974
15474SOL    HW153280   8.049   1.711   1.911  1.6779 -1.0074 -1.8580
15474SOL    HW253281   8.159   1.698   2.013 -0.6447  0.3125  0.9564
15475SOL     OW53282   7.401  10.627   3.171  0.2347 -0.6435 -0.3669
15475SOL    HW153283   7.307  10.647   3.177  0.1472 -0.5895 -1.6416
15475SOL    HW253284   7.406  10.533   3.186 -0.0366 -0.6647 -0.3985
15476SOL     OW53285   6.574   2.256   5.628  0.0846  0.1172 -0.0859
15476SOL    HW153286   6.558   2.202   5.706  1.0329  0.3039  0.2481
15476SOL    HW253287   6.667   2.278   5.633 -0.1664  1.3539 -0.4876
15477SOL     OW53288  10.636   0.067   1.355 -0.1649  0.2659  0.5861
15477SOL    HW153289  10.570   0.088   1.422 -1.0011 -0.5189  0.0220
15477SOL    HW253290  10.658  -0.025   1.371 -1.6978 -0.4773 -1.2982
15478SOL     OW53291   6.769   1.765  12.002  0.6070 -0.1545  0.1272
15478SOL    HW153292   6.733   1.779  12.090 -0.0844 -0.7905 -0.0459
15478SOL    HW253293   6.822   1.843  11.986  1.3056 -0.3447  1.3862
15479SOL     OW53294   7.512  11.221   5.131  0.3548  0.3101 -0.3560
15479SOL    HW153295   7.492  11.206   5.223  0.0711  0.1512 -0.4434
15479SOL    HW253296   7.465  11.151   5.085 -2.0772  2.1965 -0.9090
15480SOL     OW53297   2.067   9.176   1.004  0.5844  0.4382 -0.8101
15480SOL    HW153298   2.017   9.120   1.063  3.0653 -0.4904  0.5366
15480SOL    HW253299   2.119   9.232   1.062  0.3472  2.1089 -2.1438
15481SOL     OW53300   4.432   1.120   8.149  0.2646 -0.2830 -0.3494
15481SOL    HW153301   4.521   1.108   8.182  0.0827 -1.1764 -0.1567
15481SOL    HW253302   4.412   1.212   8.165  0.6463 -0.4061  0.8771
15482SOL     OW53303  10.395   9.998   7.832 -0.3588 -0.7191 -0.1027
15482SOL    HW153304  10.461  10.052   7.875 -0.2653 -1.2874  0.4937
15482SOL    HW253305  10.367  10.049   7.757  1.5138 -0.9042 -0.9766
15483SOL     OW53306   4.992   9.154  10.979  0.2455  0.3806 -0.1710
15483SOL    HW153307   5.016   9.239  10.944 -1.5546  1.7578  1.7269
15483SOL    HW253308   4.958   9.105  10.904  0.4831  1.6466 -1.1198
15484SOL     OW53309   4.494  12.244  10.608 -1.3344 -0.4004  0.0989
15484SOL    HW153310   4.497  12.339  10.614 -0.8780 -0.3427 -0.9685
15484SOL    HW253311   4.422  12.219  10.666 -0.6141  0.4787  1.4330
15485SOL     OW53312   3.135   6.998   7.621 -0.3372 -0.0209  0.2342
15485SOL    HW153313   3.044   7.024   7.616  0.0971  1.4782 -0.2020
15485SOL    HW253314   3.178   7.041   7.547  1.0210  0.6287  1.3393
15486SOL     OW53315   3.818   2.822  11.191 -0.4044  0.2495 -0.0863
15486SOL    HW153316   3.775   2.826  11.277 -0.4939 -0.1948 -0.1092
15486SOL    HW253317   3.802   2.908  11.153 -1.0381  0.1855  0.0195
15487SOL     OW53318   2.061   9.582   8.634  0.3135  0.3931 -0.0399
15487SOL    HW153319   2.113   9.654   8.668  0.6031  0.9073 -1.5322
15487SOL    HW253320   2.034   9.610   8.547 -0.6451 -0.7720 -0.1462
15488SOL     OW53321  10.014   7.594   5.654  0.1612 -0.0163 -0.0811
15488SOL    HW153322   9.959   7.667   5.627  0.4988 -0.2780 -1.5236
15488SOL    HW253323   9.960   7.545   5.716 -0.4516  0.8669  0.1022
15489SOL     OW53324   5.319   4.855  11.929 -0.5985  0.0549 -0.4651
15489SOL    HW153325   5.225   4.849  11.913 -0.8310 -2.3503  1.2666
15489SOL    HW253326   5.327   4.878  12.022  0.4532 -1.5164 -0.1259
15490SOL     OW53327   7.114   2.608   1.736 -0.4488  0.0255 -0.6465
15490SOL    HW153328   7.042   2.593   1.797  1.0377 -0.2856  1.1018
15490SOL    HW253329   7.187   2.557   1.770  0.8195  0.8295 -2.0009
15491SOL     OW53330   6.693   6.918   5.707 -0.5471 -0.1408  0.0597
15491SOL    HW153331   6.732   6.945   5.790 -1.0962 -3.0028  1.3673
15491SOL    HW253332   6.763   6.931   5.642  0.6204  0.1589  1.3438
15492SOL     OW53333   2.687  12.401  12.499  0.2179  0.0163 -0.5503
15492SOL    HW153334   2.662  12.493  12.514  2.2028  0.3965  0.9671
15492SOL    HW253335   2.617  12.351  12.540 -0.2547  0.9081 -0.2223
15493SOL     OW53336   0.231   9.467   7.344 -0.0264  0.1629  0.3485
15493SOL    HW153337   0.155   9.500   7.393 -0.3976  0.2159 -0.2532
15493SOL    HW253338   0.193   9.429   7.265  0.6322  0.9223 -0.3488
15494SOL     OW53339   5.627   1.561   6.200 -0.5078  0.1089  0.5341
15494SOL    HW153340   5.624   1.490   6.136  0.7363 -0.9665  1.6086
15494SOL    HW253341   5.718   1.593   6.194 -1.3133  2.4225 -0.7279
15495SOL     OW53342   9.447   7.741  11.404 -0.2348 -0.0102 -0.0588
15495SOL    HW153343   9.522   7.783  11.362  0.5774 -0.5146  0.8375
15495SOL    HW253344   9.456   7.648  11.382 -0.3900 -0.1270  0.3617
15496SOL     OW53345   4.719  12.231   8.877 -0.0182 -0.0006  0.4303
15496SOL    HW153346   4.729  12.324   8.900 -2.1628  0.6444 -0.9315
15496SOL    HW253347   4.731  12.185   8.960  0.9750  1.4800  1.1616
15497SOL     OW53348   8.109   0.944  10.302  0.1307  0.4736 -0.0944
15497SOL    HW153349   8.050   0.928  10.229 -1.6729  0.5389  1.2780
15497SOL    HW253350   8.082   0.880  10.368  0.1680  1.9028  1.3624
15498SOL     OW53351  11.286   3.390   0.867 -0.3388  0.1957 -0.0181
15498SOL    HW153352  11.220   3.357   0.929 -0.1127 -0.5192 -0.1564
15498SOL    HW253353  11.302   3.317   0.808 -1.6865  1.3272 -1.8941
15499SOL     OW53354   2.607   4.114   5.529  1.1220 -0.3380  0.1663
15499SOL    HW153355   2.699   4.088   5.522  1.3703  0.7789 -1.0101
15499SOL    HW253356   2.610   4.207   5.550  0.2521 -0.2629 -0.0382
15500SOL     OW53357   4.211  10.949   2.396  0.5859  0.5870 -0.7451
15500SOL    HW153358   4.239  11.041   2.401  2.1632  0.0981  0.0495
15500SOL    HW253359   4.253  10.917   2.316 -0.9605  0.8393 -1.6987
15501SOL     OW53360   2.697   3.892   5.194 -0.3379 -0.6718  0.2455
15501SOL    HW153361   2.617   3.934   5.162  0.4915 -1.1309 -2.8047
15501SOL    HW253362   2.678   3.799   5.194  0.1129 -0.7823 -0.4610
15502SOL     OW53363  10.813   2.929  10.060 -0.1981  0.6234  0.6494
15502SOL    HW153364  10.738   2.917  10.119 -0.0991  0.5635  0.7652
15502SOL    HW253365  10.874   2.983  10.110  0.0358  0.2848  0.7370
15503SOL     OW53366   0.307   8.602   1.118  0.0868  0.5276  0.1706
15503SOL    HW153367   0.238   8.537   1.102  0.8549 -0.6229  1.2976
15503SOL    HW253368   0.268   8.685   1.094 -1.4006 -0.1994 -0.0458
15504SOL     OW53369   4.357   3.891  10.106 -0.1153  0.3659 -0.1351
15504SOL    HW153370   4.390   3.904  10.195  2.1056  1.1774 -0.9967
15504SOL    HW253371   4.294   3.962  10.093 -0.7436  0.0099  0.8988
15505SOL     OW53372   4.701   0.014  11.608 -0.2937  0.6300 -0.8620
15505SOL    HW153373   4.689  -0.045  11.535  0.6423 -1.1133  0.3164
15505SOL    HW253374   4.634  -0.011  11.671 -0.0420  0.9816 -0.4431
15506SOL     OW53375   1.035   9.397   4.714  0.2850  0.0543  0.3646
15506SOL    HW153376   1.043   9.471   4.773 -0.3103 -0.4385  1.0774
15506SOL    HW253377   1.051   9.434   4.627 -0.9474  1.2167  0.5914
15507SOL     OW53378   8.782   3.928   3.422 -0.5185 -0.3957  0.3142
15507SOL    HW153379   8.690   3.917   3.398 -0.6178 -0.6284  0.7873
15507SOL    HW253380   8.829   3.869   3.363 -0.6680 -0.2282  0.0273
15508SOL     OW53381   7.422   3.179   4.190 -0.3785 -0.1025 -0.2045
15508SOL    HW153382   7.448   3.162   4.100 -2.1714  0.0833 -0.8076
15508SOL    HW253383   7.445   3.100   4.238  0.7589 -0.1300 -0.7700
15509SOL     OW53384   6.812  11.616   4.420 -0.5510  0.2745 -0.1840
15509SOL    HW153385   6.901  11.582   4.428 -0.2437  1.0039 -0.4601
15509SOL    HW253386   6.780  11.623   4.510  0.3647  1.8222  0.0536
15510SOL     OW53387   9.182   3.898   2.887 -0.3400 -0.2015 -0.1765
15510SOL    HW153388   9.141   3.812   2.877  0.1707 -0.2744 -2.2472
15510SOL    HW253389   9.170   3.921   2.979 -0.8192 -2.3162  0.3346
15511SOL     OW53390   1.790   2.833   1.035  0.1940  0.5563  0.0885
15511SOL    HW153391   1.824   2.771   1.098  1.3862  0.8002 -0.2839
15511SOL    HW253392   1.699   2.846   1.060  0.3884 -0.0676  1.1705
15512SOL     OW53393   1.080   1.833   6.087  0.0858  0.6637  0.0893
15512SOL    HW153394   1.175   1.833   6.093  0.0579  2.4361  1.0456
15512SOL    HW253395   1.061   1.877   6.004  0.0874  0.8130  0.1687
15513SOL     OW53396   8.575   8.956   5.063 -0.3941 -0.0905  0.0675
15513SOL    HW153397   8.517   8.967   4.987 -0.4775  1.0535  0.2829
15513SOL    HW253398   8.587   9.044   5.096  0.9554 -0.3980  0.4249
15514SOL     OW53399   7.003   1.732   6.684  0.0957 -0.0166 -0.0459
15514SOL    HW153400   6.967   1.695   6.603  0.2788  0.3950 -0.3217
15514SOL    HW253401   6.938   1.797   6.710  0.6896  0.8350 -0.6257
15515SOL     OW53402  12.009   0.919   3.836 -0.0381 -0.2227  0.1719
15515SOL    HW153403  12.101   0.905   3.858 -0.0254 -0.8869 -0.2892
15515SOL    HW253404  12.000   0.886   3.747 -0.9060 -0.9495  0.5128
15516SOL     OW53405   7.790   5.611  10.379 -0.0369 -0.5170 -0.0176
15516SOL    HW153406   7.816   5.524  10.410 -0.8786 -1.2111 -1.1909
15516SOL    HW253407   7.704   5.626  10.419 -0.2375 -0.5623 -0.4301
15517SOL     OW53408  10.113   3.000   4.091 -0.7838 -0.2147  0.0326
15517SOL    HW153409  10.051   2.940   4.134 -0.7653 -0.2832 -0.0347
15517SOL    HW253410  10.065   3.082   4.082 -0.8095 -0.2196  0.1260
15518SOL     OW53411   9.671   8.550   7.405  0.3752  0.0489 -0.6406
15518SOL    HW153412   9.631   8.505   7.480  0.8358  1.1784  0.3086
15518SOL    HW253413   9.761   8.517   7.403  0.4679  0.2869 -0.4619
15519SOL     OW53414   0.652   4.354   5.470  0.0756 -0.8070  0.3141
15519SOL    HW153415   0.664   4.437   5.424 -1.8340 -0.9033 -0.4674
15519SOL    HW253416   0.737   4.336   5.510  0.9722  0.7384 -0.7806
15520SOL     OW53417   5.712   9.445   7.441  0.4786  0.4752  0.6253
15520SOL    HW153418   5.688   9.427   7.531  0.7932 -1.3431  0.3743
15520SOL    HW253419   5.807   9.450   7.441  0.4187  3.3108  0.8399
15521SOL     OW53420  11.686   5.904   7.563  0.0036  0.6065 -0.0702
15521SOL    HW153421  11.605   5.938   7.600  0.1657  0.4568  0.4213
15521SOL    HW253422  11.739   5.878   7.638  0.5015  0.6785 -0.3875
15522SOL     OW53423   4.757   3.121   2.136 -0.3959  0.3368  0.6679
15522SOL    HW153424   4.832   3.064   2.121  0.0282  1.2858 -1.0318
15522SOL    HW253425   4.686   3.061   2.160  0.5444 -0.6972  0.9716
15523SOL     OW53426   4.030   3.428  12.278 -0.1982 -0.7527 -0.1998
15523SOL    HW153427   4.072   3.464  12.356  0.7850 -1.4407 -0.3819
15523SOL    HW253428   4.036   3.497  12.213 -1.2905 -0.0662  0.4087
15524SOL     OW53429  11.849   2.788  10.302 -0.1061  0.9620  0.0016
15524SOL    HW153430  11.763   2.753  10.279  0.3110  0.6387 -1.1021
15524SOL    HW253431  11.833   2.881  10.318 -0.8157  0.7343  0.7355
15525SOL     OW53432   4.086   7.874   1.790  0.2446 -0.3218  0.4380
15525SOL    HW153433   4.142   7.905   1.719 -1.3061 -0.8691 -1.0910
15525SOL    HW253434   4.073   7.951   1.846  1.7443  0.0380  0.3224
15526SOL     OW53435  11.006   1.092   4.238  0.2855  0.3656  0.1212
15526SOL    HW153436  11.095   1.094   4.205  0.0891  0.7212 -0.3965
15526SOL    HW253437  10.966   1.173   4.206  0.0216  0.6141  1.0367
15527SOL     OW53438   4.847  11.231   4.975  0.5753  0.3485 -0.7324
15527SOL    HW153439   4.929  11.279   4.987 -0.4542  1.9813  0.1264
15527SOL    HW253440   4.874  11.145   4.942  2.5636  1.1146 -1.2365
15528SOL     OW53441  12.232  12.495   1.275 -0.2830 -0.3634  0.1312
15528SOL    HW153442  12.277  12.551   1.339  0.2023 -0.2111 -0.3405
15528SOL    HW253443  12.145  12.483   1.312 -0.9211  1.9564 -0.4440
15529SOL     OW53444   9.224   1.449  11.797  0.0155  0.0091 -0.0758
15529SOL    HW153445   9.299   1.504  11.775  0.4901 -0.2174  0.9070
15529SOL    HW253446   9.150   1.510  11.803  0.2015  0.2914 -0.6450
15530SOL     OW53447   5.313  10.953   0.049  0.4712 -0.3332  0.4628
15530SOL    HW153448   5.232  10.940   0.098 -0.7562  0.9676 -1.1194
15530SOL    HW253449   5.367  11.008   0.105 -0.9624  1.2575  0.3528
15531SOL     OW53450  11.839   7.832   7.336 -0.0482 -0.2205 -0.1582
15531SOL    HW153451  11.907   7.772   7.306  0.8079  0.9019 -0.5621
15531SOL    HW253452  11.885   7.915   7.349 -0.5536 -0.3166  3.2878
15532SOL     OW53453   3.076   8.267   3.266 -0.4044 -0.5352 -0.4298
15532SOL    HW153454   3.014   8.256   3.339  0.0540  1.9153  0.4152
15532SOL    HW253455   3.020   8.288   3.191 -0.6877  1.0374  0.1868
15533SOL     OW53456   6.082   6.073   7.960 -0.1847  0.3783  0.6446
15533SOL    HW153457   6.109   6.111   7.877  0.1340  0.9571  1.0053
15533SOL    HW253458   6.023   6.001   7.936 -0.2920  0.6974 -0.0688
15534SOL     OW53459   8.242   9.785   2.207 -0.1406  0.3622 -0.2714
15534SOL    HW153460   8.262   9.756   2.119 -0.9153 -0.1805 -0.2682
15534SOL    HW253461   8.252   9.881   2.204 -1.6642  0.5113 -1.3436
15535SOL     OW53462  12.462   8.483   8.776 -0.1033 -0.3369 -0.8636
15535SOL    HW153463  12.470   8.530   8.693 -0.1131 -0.8177 -1.1376
15535SOL    HW253464  12.371   8.454   8.779 -0.4859  0.8771 -0.0295
15536SOL     OW53465   9.943   5.253   6.926 -0.0379 -0.5988  0.1916
15536SOL    HW153466   9.892   5.172   6.920  1.5413 -1.5771 -0.5580
15536SOL    HW253467  10.033   5.226   6.912  0.3351  1.5628 -2.4539
15537SOL     OW53468   6.938   2.608  12.441 -0.1013 -0.7297  0.0656
15537SOL    HW153469   6.891   2.684  12.476 -0.0130 -0.5247 -0.2518
15537SOL    HW253470   6.884   2.533  12.466  0.1094 -0.6213  0.8972
15538SOL     OW53471   9.697   4.813   5.778 -0.0275 -0.5798 -0.3587
15538SOL    HW153472   9.666   4.722   5.774 -1.6144 -0.0615 -0.7592
15538SOL    HW253473   9.656   4.855   5.702 -0.4613  0.7920  0.6111
15539SOL     OW53474   4.311   8.104   7.593  0.4038 -0.6051 -0.3898
15539SOL    HW153475   4.300   8.179   7.534  0.6893  0.1527  0.4837
15539SOL    HW253476   4.313   8.028   7.536 -1.1547 -0.0633 -1.2204
15540SOL     OW53477   5.623   5.338   5.427 -0.5063 -0.0909  0.4038
15540SOL    HW153478   5.647   5.302   5.512 -0.3172 -2.3137 -0.5226
15540SOL    HW253479   5.531   5.364   5.437 -1.1787 -2.3560  0.7475
15541SOL     OW53480   3.450   2.637   8.467 -0.0582 -0.2937 -0.5426
15541SOL    HW153481   3.390   2.570   8.499 -0.2561 -0.6893 -1.7077
15541SOL    HW253482   3.410   2.670   8.387  1.5496 -0.9857 -1.6848
15542SOL     OW53483   7.747   7.982   2.148 -0.2709 -0.1942 -0.0037
15542SOL    HW153484   7.698   8.063   2.161 -1.7772 -0.9134 -0.9009
15542SOL    HW253485   7.828   8.010   2.105 -0.6619  0.8582 -0.0851
15543SOL     OW53486  12.037   7.396   3.702 -0.1764  0.0408  0.1279
15543SOL    HW153487  12.112   7.349   3.665  0.7122 -0.5253  2.4624
15543SOL    HW253488  11.990   7.330   3.752 -0.3259  1.0925  1.4272
15544SOL     OW53489   2.395   2.278   2.663 -0.2068  0.1244  0.6306
15544SOL    HW153490   2.416   2.215   2.594 -1.3372 -1.0730  1.3299
15544SOL    HW253491   2.474   2.285   2.715  0.4876  0.6272 -0.4516
15545SOL     OW53492  12.501   2.489   2.806  0.0332 -0.3446 -0.6736
15545SOL    HW153493  12.557   2.497   2.883 -0.5005  2.5397 -0.4713
15545SOL    HW253494  12.561   2.497   2.732  0.1902  0.0140 -0.5068
15546SOL     OW53495  10.920   1.319   4.164 -0.4298  0.6223 -0.1207
15546SOL    HW153496  10.920   1.393   4.225  0.8074 -1.0643  2.0478
15546SOL    HW253497  10.995   1.337   4.107 -0.9913  1.7068 -0.5624
15547SOL     OW53498   3.917  10.325   6.156  0.0114 -0.0999  0.9004
15547SOL    HW153499   3.907  10.369   6.071  1.0880 -0.7131  0.4335
15547SOL    HW253500   3.845  10.262   6.158 -2.4868  2.5196  2.2165
15548SOL     OW53501   0.545   9.988   2.218  0.0717  0.0433  0.1843
15548SOL    HW153502   0.573   9.928   2.149  0.0572 -0.4062  0.5627
15548SOL    HW253503   0.451   9.973   2.226  0.3065 -0.9713  1.2967
15549SOL     OW53504   5.236   2.696   4.691  0.5345  0.8282 -0.0592
15549SOL    HW153505   5.153   2.688   4.739  1.9992 -0.5593  2.4668
15549SOL    HW253506   5.272   2.780   4.720 -0.0567  1.5967 -1.4205
15550SOL     OW53507   2.165  11.562   1.703  0.4064 -0.0891  0.3710
15550SOL    HW153508   2.074  11.572   1.677  0.7954 -0.7661 -1.3700
15550SOL    HW253509   2.175  11.469   1.723  1.3698 -0.6743 -2.3999
15551SOL     OW53510  11.912   6.160   6.003 -0.0818 -0.0931 -0.4331
15551SOL    HW153511  11.832   6.209   5.987 -0.0840 -0.5566 -1.9569
15551SOL    HW253512  11.883   6.069   6.013  0.1655 -0.1317 -0.0385
15552SOL     OW53513   7.391   3.769   5.357  0.3023  0.5863 -0.2504
15552SOL    HW153514   7.314   3.790   5.304  0.2800  0.4435 -0.2754
15552SOL    HW253515   7.364   3.694   5.410  0.6010  0.1740 -0.6680
15553SOL     OW53516   3.366   9.977   8.551 -0.3446  0.0657  0.4022
15553SOL    HW153517   3.283   9.955   8.593 -0.1064  1.6894  1.8135
15553SOL    HW253518   3.424   9.905   8.575 -1.5988 -1.7467 -1.6444
15554SOL     OW53519   4.053   2.809   2.862  0.8213  0.1041 -0.0841
15554SOL    HW153520   4.028   2.901   2.874 -0.6930 -0.0682 -1.5363
15554SOL    HW253521   4.108   2.809   2.784  0.6007 -0.2560 -0.2412
15555SOL     OW53522  11.626   5.746   1.505  0.0397  0.6135 -0.1771
15555SOL    HW153523  11.562   5.718   1.439 -0.9588  0.2478  0.9181
15555SOL    HW253524  11.674   5.666   1.527  0.9570  0.8971 -1.0374
15556SOL     OW53525   4.643   8.995   9.285 -0.0281  0.6162 -0.5192
15556SOL    HW153526   4.737   9.009   9.296  0.3922 -1.9433 -0.1275
15556SOL    HW253527   4.614   8.961   9.370 -0.8961 -0.4152 -1.2031
15557SOL     OW53528   4.652   1.717   7.295 -0.7556  0.6639 -0.1651
15557SOL    HW153529   4.717   1.726   7.364 -0.4842 -0.2211 -0.2829
15557SOL    HW253530   4.703   1.715   7.214 -0.4437 -3.6571 -0.1018
15558SOL     OW53531   2.188   0.627  10.462 -0.1914  0.3564  0.1999
15558SOL    HW153532   2.109   0.586  10.495 -0.4449 -0.1234 -0.9481
15558SOL    HW253533   2.247   0.554  10.443 -0.0652  0.6163 -0.4280
15559SOL     OW53534   0.062   5.790   9.136  1.3127  0.0334 -0.0416
15559SOL    HW153535   0.095   5.807   9.225  0.8603  0.8023 -0.0156
15559SOL    HW253536   0.140   5.795   9.081  1.6984 -1.0757  0.3859
15560SOL     OW53537   0.292   2.479   2.988  0.7198 -0.0466 -0.3906
15560SOL    HW153538   0.207   2.451   3.022  0.0251  0.1091 -1.9215
15560SOL    HW253539   0.350   2.479   3.065  0.7769 -5.3410 -0.0666
15561SOL     OW53540   8.221   3.628   9.291  0.4266  0.3735  0.6707
15561SOL    HW153541   8.219   3.712   9.245  1.2468  0.2213  0.3386
15561SOL    HW253542   8.158   3.638   9.362  0.3648  1.2013  0.5074
15562SOL     OW53543   6.668   0.349   4.879  0.2619  0.4171 -0.2095
15562SOL    HW153544   6.748   0.402   4.875  0.0382  0.7342 -0.4796
15562SOL    HW253545   6.622   0.382   4.956  0.1200  0.6182 -0.3807
15563SOL     OW53546   1.748  12.455   9.119  0.4503  0.0083 -0.4000
15563SOL    HW153547   1.735  12.470   9.026 -1.2611  0.7729 -0.0752
15563SOL    HW253548   1.742  12.542   9.159  0.7254 -0.3515  0.4579
15564SOL     OW53549  10.466   0.745  11.472  0.2184 -0.2544  0.4528
15564SOL    HW153550  10.374   0.740  11.498 -0.1168 -0.5798 -0.7403
15564SOL    HW253551  10.508   0.797  11.541 -1.3200  2.0122 -0.2213
15565SOL     OW53552   3.859  11.623   9.091 -0.1172 -0.1530  0.2424
15565SOL    HW153553   3.824  11.614   9.179  0.2961  1.0605  0.5564
15565SOL    HW253554   3.843  11.715   9.068  0.3932 -0.2770 -0.6769
15566SOL     OW53555   0.415   2.004  11.972 -0.3061  0.3654 -0.1915
15566SOL    HW153556   0.415   2.096  11.997 -0.8404 -0.3435  2.6912
15566SOL    HW253557   0.507   1.978  11.973 -0.3494  0.1815  1.9531
15567SOL     OW53558  11.372   1.442   2.690 -0.3734 -0.0213 -0.0187
15567SOL    HW153559  11.466   1.462   2.692 -0.4902  0.4500  1.3090
15567SOL    HW253560  11.361   1.371   2.753 -1.0014  0.3143  0.2520
15568SOL     OW53561   5.836   6.303   1.689  0.0725 -0.6429  0.5754
15568SOL    HW153562   5.911   6.244   1.684  1.2926  0.8352  0.8982
15568SOL    HW253563   5.839   6.338   1.778  0.3822  1.1706 -0.1082
15569SOL     OW53564   6.394   4.133   4.543 -0.1182  0.4831 -0.4720
15569SOL    HW153565   6.404   4.155   4.450  0.5142 -0.7699 -0.7351
15569SOL    HW253566   6.416   4.039   4.547  2.0581  0.9928  1.2890
15570SOL     OW53567   0.502   4.653  11.021  0.5185 -0.7514  0.3946
15570SOL    HW153568   0.418   4.685  10.987  0.4885 -0.8668  0.3599
15570SOL    HW253569   0.481   4.570  11.063  0.1871  0.3595  2.5455
15571SOL     OW53570   6.727   2.013   2.366  0.7318  0.5598  0.5987
15571SOL    HW153571   6.784   1.942   2.398  0.9206  0.1214 -0.6281
15571SOL    HW253572   6.780   2.092   2.373  1.3151  0.2358 -0.0085
15572SOL     OW53573  11.065  11.549  11.447  0.0376 -0.0272 -0.4079
15572SOL    HW153574  11.019  11.621  11.402  0.9776  0.1556 -1.1154
15572SOL    HW253575  11.020  11.470  11.418  0.3871  0.1198 -1.3958
15573SOL     OW53576   3.274   4.713  10.634 -0.1295 -0.0109  0.2876
15573SOL    HW153577   3.359   4.724  10.676  0.3041 -1.0836 -0.2456
15573SOL    HW253578   3.211   4.750  10.695  0.9183  3.4422 -0.5072
15574SOL     OW53579  11.190  12.311   9.571  0.4990  0.3711  0.1877
15574SOL    HW153580  11.247  12.282   9.642  0.6303 -0.9929 -0.4465
15574SOL    HW253581  11.109  12.336   9.614 -0.2591 -2.5798  0.7018
15575SOL     OW53582   2.974   2.259   3.831  0.1626  0.4531 -0.2824
15575SOL    HW153583   2.893   2.261   3.780 -0.6019 -0.6196  0.8441
15575SOL    HW253584   3.019   2.180   3.802 -1.3028 -1.3931  2.1329
15576SOL     OW53585   4.521   8.777   4.120  0.1701 -0.0627 -0.3506
15576SOL    HW153586   4.615   8.778   4.102  0.5719 -1.2828  1.3963
15576SOL    HW253587   4.514   8.792   4.214 -1.4622  1.0056 -0.6085
15577SOL     OW53588   2.381   4.406   4.285 -0.3877  0.0580  0.7737
15577SOL    HW153589   2.417   4.495   4.291  0.9463 -0.0832 -2.6220
15577SOL    HW253590   2.286   4.420   4.277 -0.3573  1.0428  1.9272
15578SOL     OW53591   3.879   3.763   0.174  0.0509  0.1394  0.0548
15578SOL    HW153592   3.799   3.755   0.122 -0.1224 -1.2000  0.4980
15578SOL    HW253593   3.849   3.791   0.261 -0.2794 -2.7759  0.9857
15579SOL     OW53594   8.989   4.985   6.928  0.4790 -0.4997  0.0630
15579SOL    HW153595   8.928   4.915   6.905 -0.3104  0.2301 -0.0939
15579SOL    HW253596   9.062   4.974   6.867 -1.4406  1.2289 -2.8132
15580SOL     OW53597   4.849   1.733   2.985  0.2684  0.1907  0.4111
15580SOL    HW153598   4.841   1.753   2.892  0.9730 -1.3176  0.0012
15580SOL    HW253599   4.932   1.772   3.011  1.7811 -2.2991 -0.4531
15581SOL     OW53600   6.752   4.487  12.574 -0.1125 -0.1270 -0.2470
15581SOL    HW153601   6.736   4.471  12.667  1.2888 -0.2697 -0.0165
15581SOL    HW253602   6.847   4.478  12.564 -0.3977 -1.6732 -1.9730
15582SOL     OW53603   0.971  11.118   0.797 -0.1297 -0.2907 -0.1921
15582SOL    HW153604   0.938  11.125   0.707 -0.7016  1.7128  0.1242
15582SOL    HW253605   1.066  11.127   0.788 -0.1112 -0.8698 -0.6508
15583SOL     OW53606   8.849   6.411   3.724 -0.2066  1.1778 -0.8463
15583SOL    HW153607   8.755   6.391   3.725 -0.0050 -0.4762  2.7587
15583SOL    HW253608   8.889   6.338   3.677 -0.4796 -0.6792  1.6221
15584SOL     OW53609   7.862   4.618   6.408  0.1701 -0.2765 -0.2161
15584SOL    HW153610   7.855   4.637   6.314 -1.4643  0.1171 -0.0543
15584SOL    HW253611   7.867   4.522   6.413  1.5934 -0.2515 -0.7400
15585SOL     OW53612   9.415   0.224   8.742  0.0647 -0.3580 -0.2641
15585SOL    HW153613   9.453   0.288   8.801 -0.3969 -1.6224  1.4900
15585SOL    HW253614   9.352   0.176   8.796 -0.1167 -1.8141 -1.6893
15586SOL     OW53615   3.854   0.747   2.818  0.6842  0.4075  0.5604
15586SOL    HW153616   3.814   0.793   2.892  1.4508  1.1161  0.5452
15586SOL    HW253617   3.793   0.762   2.745 -0.1376 -0.4059  1.0691
15587SOL     OW53618   9.588  10.522  12.125 -0.4600  0.0037  0.7537
15587SOL    HW153619   9.676  10.553  12.148  0.4705 -1.0754 -1.1063
15587SOL    HW253620   9.570  10.454  12.189 -0.3948  0.8878  1.7560
15588SOL     OW53621   5.443  11.846   2.101 -0.7808  0.8262 -0.3981
15588SOL    HW153622   5.380  11.790   2.145  0.2518  0.2751  0.4234
15588SOL    HW253623   5.513  11.787   2.073 -0.4994  1.4587 -1.0589
15589SOL     OW53624   7.222   8.830   5.835 -0.2168  0.7028 -0.0081
15589SOL    HW153625   7.275   8.759   5.800 -1.4565 -0.7605  0.9471
15589SOL    HW253626   7.268   8.910   5.808  1.7008 -0.4506 -0.3620
15590SOL     OW53627   1.322   4.957   5.211  0.4369 -0.0816  0.9192
15590SOL    HW153628   1.280   5.042   5.201 -0.7196 -0.6791  0.6001
15590SOL    HW253629   1.280   4.901   5.146  1.0718 -0.9461  1.2332
15591SOL     OW53630   3.594   5.874  12.069  0.7519  0.1201  0.0773
15591SOL    HW153631   3.532   5.856  11.999 -0.0406  0.6435  0.6369
15591SOL    HW253632   3.627   5.787  12.094  0.1329 -0.1710 -0.1056
15592SOL     OW53633   7.805   0.520   3.168 -0.4261  0.1916  0.1164
15592SOL    HW153634   7.885   0.508   3.116 -0.0394 -0.2031  0.7938
15592SOL    HW253635   7.737   0.477   3.117  0.3822 -2.3474  1.0513
15593SOL     OW53636   4.104  10.031   9.329 -0.2924 -0.2275  0.3801
15593SOL    HW153637   4.150   9.949   9.311 -0.2033 -0.2686  0.7775
15593SOL    HW253638   4.164  10.080   9.384 -1.2589 -0.8665  2.0993
15594SOL     OW53639   6.452   0.467   4.477 -0.6529  0.5647 -0.2996
15594SOL    HW153640   6.535   0.461   4.431 -1.1426  0.8051 -1.2449
15594SOL    HW253641   6.426   0.559   4.468 -1.2209  0.4022 -0.3773
15595SOL     OW53642   3.533   8.140   9.121  0.7997 -0.0937  0.4988
15595SOL    HW153643   3.498   8.226   9.144 -0.7767 -0.6115  0.1801
15595SOL    HW253644   3.529   8.137   9.026 -2.4528 -1.7003  0.5233
15596SOL     OW53645   1.301   4.835   0.447 -0.3459  0.3055  0.3916
15596SOL    HW153646   1.275   4.828   0.355  0.1801 -0.7698  0.3196
15596SOL    HW253647   1.221   4.815   0.496  0.1144 -2.4607  0.1659
15597SOL     OW53648   7.293   4.644   8.883  0.2791 -0.1409  0.5435
15597SOL    HW153649   7.381   4.679   8.889  0.0414  0.3126  1.4685
15597SOL    HW253650   7.291   4.572   8.946  0.1996 -0.6250  0.0021
15598SOL     OW53651  11.872   8.392   6.539 -0.1786 -0.0074 -0.0898
15598SOL    HW153652  11.786   8.387   6.581  0.4023 -2.6659  0.9745
15598SOL    HW253653  11.872   8.322   6.474  1.5290 -0.8205  0.7054
15599SOL     OW53654   5.975   7.542   6.453 -0.4877  0.3093  0.1508
15599SOL    HW153655   6.010   7.630   6.465 -1.5403  0.6390  1.0284
15599SOL    HW253656   5.903   7.554   6.390 -2.1187  0.5264  1.9554
15600SOL     OW53657   0.719   8.467   9.283  0.2415 -0.0771 -0.6448
15600SOL    HW153658   0.791   8.477   9.221  0.8801 -0.6272 -0.0132
15600SOL    HW253659   0.741   8.388   9.333 -0.6493 -0.0861 -0.2383
15601SOL     OW53660   5.894  11.480  10.137 -0.4108  0.6921 -0.1809
15601SOL    HW153661   5.906  11.396  10.182 -1.9222  0.1345 -0.7855
15601SOL    HW253662   5.917  11.463  10.046  0.0195  1.1457 -0.1669
15602SOL     OW53663   6.827   1.005   0.617 -0.4984  0.2990 -0.3756
15602SOL    HW153664   6.825   1.075   0.552 -3.4854  2.6279  1.8948
15602SOL    HW253665   6.737   0.972   0.620  0.2033 -1.7574  0.5998
15603SOL     OW53666   9.807   9.438   4.146  0.3197 -0.5661 -0.0571
15603SOL    HW153667   9.746   9.378   4.191 -0.3643 -0.4355 -0.7814
15603SOL    HW253668   9.868   9.380   4.101 -0.1212 -0.7337 -0.4582
15604SOL     OW53669   0.186   4.238   7.923 -0.2593 -0.0615  0.2895
15604SOL    HW153670   0.219   4.156   7.960 -0.5290  0.7459  2.5023
15604SOL    HW253671   0.248   4.305   7.954 -0.8225  0.7473 -0.2867
15605SOL     OW53672   9.240   6.118   5.320 -0.6148  0.0406 -0.3535
15605SOL    HW153673   9.270   6.070   5.398 -1.1921 -0.4741 -0.4407
15605SOL    HW253674   9.233   6.051   5.252 -0.9787  0.3324 -0.6031
15606SOL     OW53675   1.563   7.900   4.003  0.4013 -0.7428 -0.1535
15606SOL    HW153676   1.573   7.949   4.085  1.9054 -0.5678 -0.4226
15606SOL    HW253677   1.514   7.959   3.946 -1.6090 -1.2740  0.9300
15607SOL     OW53678   2.052   2.418   0.390 -0.3469  0.2173  0.4064
15607SOL    HW153679   2.082   2.338   0.348 -1.2425  0.6383 -1.1292
15607SOL    HW253680   2.064   2.403   0.483 -0.0965 -1.5205  0.1206
15608SOL     OW53681   0.242   7.517   9.430 -0.0131 -0.3476 -0.2354
15608SOL    HW153682   0.150   7.505   9.454 -0.2729 -0.4294 -1.2272
15608SOL    HW253683   0.251   7.611   9.417  0.4210 -0.1520  1.2614
15609SOL     OW53684  10.998   3.425   7.965  0.1716 -0.0121  0.5932
15609SOL    HW153685  11.010   3.415   8.059 -1.9916 -0.3556  0.8634
15609SOL    HW253686  10.904   3.415   7.950  0.0834  2.3853 -1.3020
15610SOL     OW53687   7.727   0.742   4.262  0.8413 -0.1825 -0.2069
15610SOL    HW153688   7.746   0.761   4.353 -1.1159 -0.6650  0.3556
15610SOL    HW253689   7.649   0.687   4.265 -0.6373  1.6168 -2.2191
15611SOL     OW53690   3.718  12.339   8.169  0.6337 -0.8572 -0.5388
15611SOL    HW153691   3.726  12.280   8.245 -0.1303  0.4663  0.6162
15611SOL    HW253692   3.807  12.366   8.150  0.7359 -0.3358  0.6230
15612SOL     OW53693   7.638  10.680   1.838 -0.0872 -0.0067 -0.2610
15612SOL    HW153694   7.578  10.686   1.912 -0.2624  0.0376 -0.4059
15612SOL    HW253695   7.658  10.771   1.815  0.7557 -0.0264  0.3669
15613SOL     OW53696  10.029   5.578   1.841  0.0235  0.1208 -0.3361
15613SOL    HW153697   9.945   5.576   1.796 -0.2600 -0.1039  0.1943
15613SOL    HW253698  10.030   5.664   1.884 -0.7116 -0.5337  1.0811
15614SOL     OW53699   5.088   8.387   4.826  0.4204  0.3783 -0.2091
15614SOL    HW153700   5.162   8.413   4.772 -0.2454 -1.5034 -2.2120
15614SOL    HW253701   5.011   8.416   4.777 -0.2224 -1.7466 -0.5878
15615SOL     OW53702   6.480   2.227   7.336  0.4129 -0.0005 -0.3365
15615SOL    HW153703   6.385   2.218   7.329  0.2993  0.2035  0.7628
15615SOL    HW253704   6.511   2.140   7.362  0.3682  0.2761  0.6723
15616SOL     OW53705   1.306   7.786   1.802 -0.4172 -0.7646 -0.0200
15616SOL    HW153706   1.256   7.728   1.745 -0.9375  0.4028 -0.7896
15616SOL    HW253707   1.390   7.796   1.757 -0.0171 -1.5672  0.5340
15617SOL     OW53708   5.024   3.134  10.797  0.2303  0.2185 -0.1964
15617SOL    HW153709   5.048   3.075  10.869 -1.9708  1.3498  1.5639
15617SOL    HW253710   5.087   3.113  10.728  1.3510 -2.1397  1.3977
15618SOL     OW53711   4.059   3.257   8.212  0.1503 -0.2424 -0.6891
15618SOL    HW153712   4.097   3.238   8.299 -3.3883 -2.1799  0.6325
15618SOL    HW253713   4.053   3.352   8.209  2.8808  0.0453 -0.0965
15619SOL     OW53714   6.913   8.678   1.025  0.1130  0.0520  0.2447
15619SOL    HW153715   6.964   8.715   0.954 -0.5205  1.6617  0.5878
15619SOL    HW253716   6.976   8.668   1.097  0.1435  1.3682  0.4371
15620SOL     OW53717   2.813   4.415   2.404 -0.5813 -0.2103  0.0294
15620SOL    HW153718   2.722   4.427   2.377 -0.4366 -0.1189 -0.4349
15620SOL    HW253719   2.831   4.322   2.390 -0.8716 -0.4184  0.9869
15621SOL     OW53720  11.954   1.220   3.230 -0.1886  0.2337  0.2973
15621SOL    HW153721  11.986   1.234   3.319  2.0013 -0.6925 -0.2879
15621SOL    HW253722  12.029   1.186   3.182 -1.4979  0.0544 -1.7600
15622SOL     OW53723  12.048   0.709   0.214 -0.2405 -0.1793  0.1065
15622SOL    HW153724  11.957   0.736   0.228 -0.1283 -0.0579  0.6341
15622SOL    HW253725  12.097   0.754   0.283  0.1017 -0.8684  0.3291
15623SOL     OW53726   0.043   3.731   6.782 -0.2683 -0.2316 -0.0936
15623SOL    HW153727  -0.030   3.736   6.721 -0.9013 -1.7690  0.5006
15623SOL    HW253728   0.002   3.723   6.868  0.5693 -1.9376  0.1838
15624SOL     OW53729   4.297   9.822   3.175 -0.6362  0.0931  0.0272
15624SOL    HW153730   4.205   9.846   3.182 -1.3870 -2.5983  0.5383
15624SOL    HW253731   4.310   9.755   3.242  1.3760 -0.5173 -0.8842
15625SOL     OW53732   1.757  12.444   5.154  0.1839 -0.1209 -0.6727
15625SOL    HW153733   1.775  12.392   5.075 -0.4162 -1.3302 -0.0373
15625SOL    HW253734   1.843  12.474   5.183  0.6476 -1.4351 -0.6155
15626SOL     OW53735   0.228   4.818   3.994 -0.0194  0.3879 -0.0046
15626SOL    HW153736   0.160   4.886   3.989 -0.9426 -0.4855  0.3630
15626SOL    HW253737   0.269   4.833   4.079  0.0608  0.7435 -0.1027
15627SOL     OW53738  12.015   3.327   4.970 -0.2578 -0.3574  0.6061
15627SOL    HW153739  11.955   3.253   4.957  0.6057 -0.8405 -0.8015
15627SOL    HW253740  12.019   3.338   5.065  0.4482 -2.8519  0.9244
15628SOL     OW53741   4.647   7.506   8.903  0.0219  0.0082  0.1257
15628SOL    HW153742   4.588   7.520   8.977  1.0271  0.8355  0.7875
15628SOL    HW253743   4.733   7.494   8.942  0.5518  0.3124 -0.9077
15629SOL     OW53744   8.301   4.019   5.965  0.9829  0.1385  0.1416
15629SOL    HW153745   8.338   3.946   5.915  1.0188  1.0972 -1.2965
15629SOL    HW253746   8.225   4.047   5.915  1.2301  1.3724  0.4135
15630SOL     OW53747   0.539   9.490   1.191  0.0178  0.6152  0.5052
15630SOL    HW153748   0.462   9.439   1.216 -0.6206  1.6152  0.6423
15630SOL    HW253749   0.577   9.517   1.275  0.2386  0.5380  0.4306
15631SOL     OW53750   0.700   0.337  10.626  0.0709 -0.4753 -0.1542
15631SOL    HW153751   0.763   0.325  10.697 -1.0148  1.1203  1.1671
15631SOL    HW253752   0.632   0.272  10.642 -0.7191  0.5834  0.9693
15632SOL     OW53753   8.386   8.844   4.121  0.4161 -0.4420  0.3383
15632SOL    HW153754   8.381   8.753   4.092  0.0995 -0.5468  0.7147
15632SOL    HW253755   8.310   8.886   4.080  0.7209 -0.2795 -0.0643
15633SOL     OW53756   4.099   5.039  11.777  0.2820 -0.0588  0.2156
15633SOL    HW153757   4.147   4.965  11.815 -2.3966 -1.0349  2.0203
15633SOL    HW253758   4.165   5.090  11.732  2.7070 -2.1281  1.1944
15634SOL     OW53759   0.500   4.963   5.507 -0.2968 -0.5240 -0.3353
15634SOL    HW153760   0.493   5.013   5.588 -0.0430 -2.8526  1.2035
15634SOL    HW253761   0.569   5.007   5.458  0.5143  0.1428  1.3258
15635SOL     OW53762   9.314   7.003   3.784  0.3016 -0.3869  0.1197
15635SOL    HW153763   9.399   7.033   3.817  1.0335 -1.4477 -0.7331
15635SOL    HW253764   9.296   7.060   3.709  1.4377 -1.6693 -1.1756
15636SOL     OW53765  10.718   7.048  10.231  0.1971  0.5604 -0.1481
15636SOL    HW153766  10.700   7.039  10.325 -0.0147  0.0027 -0.2390
15636SOL    HW253767  10.813   7.047  10.224  0.2068 -0.8066 -0.0633
15637SOL     OW53768  10.289   7.327   7.789  0.6737  0.3439 -0.0856
15637SOL    HW153769  10.194   7.342   7.783  0.8436  1.9449  0.7121
15637SOL    HW253770  10.303   7.245   7.741 -1.1465 -0.0910  0.0382
15638SOL     OW53771  10.813   5.784  11.415 -0.2483 -0.3142  0.0605
15638SOL    HW153772  10.900   5.791  11.376 -0.3936  0.0285 -0.2014
15638SOL    HW253773  10.784   5.874  11.427 -0.6111 -0.4268  0.0500
15639SOL     OW53774   1.374   7.845   0.594  0.4310  1.1121 -0.2991
15639SOL    HW153775   1.393   7.900   0.670 -1.2990  1.3166  0.0386
15639SOL    HW253776   1.329   7.769   0.630  0.1371  0.9131 -1.0584
15640SOL     OW53777  12.258   7.872   5.782 -0.1380 -0.0948  0.2072
15640SOL    HW153778  12.193   7.812   5.745 -0.3943  1.4114 -1.9535
15640SOL    HW253779  12.341   7.841   5.748  0.0218 -0.5556  0.9808
15641SOL     OW53780   3.684   4.163   8.027  0.3418  0.0003 -0.3825
15641SOL    HW153781   3.677   4.203   8.114  1.5325 -1.3878  0.4050
15641SOL    HW253782   3.668   4.069   8.043 -0.0052 -0.1990 -1.7716
15642SOL     OW53783   5.705   6.461   1.005 -0.3294  0.7507  0.3426
15642SOL    HW153784   5.649   6.500   1.072 -0.6968 -1.8347  1.6682
15642SOL    HW253785   5.793   6.463   1.043 -0.2911  0.6046  0.2622
15643SOL     OW53786   4.231   8.380   0.934 -0.3583 -0.7756 -0.6326
15643SOL    HW153787   4.169   8.312   0.959 -0.5269  0.5345  3.3003
15643SOL    HW253788   4.176   8.451   0.900 -0.5110 -1.3476 -1.5980
15644SOL     OW53789   1.864  10.738   3.253 -0.9194  0.4013  0.4528
15644SOL    HW153790   1.806  10.785   3.194  0.9755 -0.0585 -1.8940
15644SOL    HW253791   1.820  10.654   3.268 -1.3160  0.4384 -0.4831
15645SOL     OW53792  11.282   3.793   6.710 -0.5001  0.1754 -0.3974
15645SOL    HW153793  11.314   3.767   6.796  3.8009  3.0455 -0.8307
15645SOL    HW253794  11.345   3.756   6.648 -1.4178  1.1821 -2.0094
15646SOL     OW53795   6.637  11.165   0.131  0.0036  0.1802  0.2869
15646SOL    HW153796   6.715  11.143   0.080  0.5193  0.0647  1.1191
15646SOL    HW253797   6.648  11.258   0.153  0.3285 -0.0587  1.1394
15647SOL     OW53798   7.848   8.341  10.084  0.2797 -0.5733  0.5713
15647SOL    HW153799   7.865   8.392  10.163  1.4094 -2.4390  1.6057
15647SOL    HW253800   7.768   8.291  10.104  0.2567 -0.6427  0.3123
15648SOL     OW53801   8.351   9.136   4.559  0.8498 -0.0938 -0.2916
15648SOL    HW153802   8.270   9.086   4.574  0.1670  1.5187  2.1077
15648SOL    HW253803   8.326   9.227   4.577  3.2090  0.4434  0.6256
15649SOL     OW53804   3.769  10.094   0.115  0.1930 -0.2942  0.3032
15649SOL    HW153805   3.820  10.174   0.128 -0.7476  0.4695 -0.5402
15649SOL    HW253806   3.834  10.024   0.117  1.0274  0.4650  1.1628
15650SOL     OW53807  11.491   8.089  10.432  0.3331  0.2356  0.7962
15650SOL    HW153808  11.578   8.122  10.454  0.4557  0.4508  0.0233
15650SOL    HW253809  11.434   8.124  10.501  1.0033 -0.7699  1.9171
15651SOL     OW53810   3.046   7.621   9.097 -0.0510 -0.0597 -0.7180
15651SOL    HW153811   2.987   7.660   9.162 -0.2456  0.7767 -1.3890
15651SOL    HW253812   2.988   7.594   9.026  0.3430  0.6052 -1.3053
15652SOL     OW53813   1.718   8.732  10.194 -0.0738  0.3020  0.8909
15652SOL    HW153814   1.653   8.763  10.257 -0.0378 -0.2146  1.1842
15652SOL    HW253815   1.743   8.646  10.226 -2.6756 -1.6166 -1.7101
15653SOL     OW53816   2.984  11.035   3.485 -0.3191  0.5512 -0.2590
15653SOL    HW153817   2.967  11.129   3.481  0.2810  0.6939  0.3983
15653SOL    HW253818   3.045  11.018   3.413 -1.1672  0.4869 -0.9822
15654SOL     OW53819   5.227   1.479   1.074  0.0536 -0.0211 -0.4741
15654SOL    HW153820   5.206   1.525   1.155 -0.8650 -1.7240  0.3107
15654SOL    HW253821   5.144   1.478   1.025  0.8400  1.9111 -1.9772
15655SOL     OW53822   0.556   6.365   5.065 -0.1866  0.2895  0.5248
15655SOL    HW153823   0.566   6.460   5.073 -0.4553  0.4765 -1.0281
15655SOL    HW253824   0.617   6.340   4.996 -0.1104 -0.6793  0.9260
15656SOL     OW53825   5.570   3.813   1.803  0.7581 -0.1241 -0.0995
15656SOL    HW153826   5.654   3.768   1.799 -0.5823 -2.7813 -0.6671
15656SOL    HW253827   5.536   3.809   1.714 -0.7233 -0.7528  0.4559
15657SOL     OW53828   1.502   8.633   6.110  0.2111  0.0153  0.1514
15657SOL    HW153829   1.497   8.635   6.205  1.5071 -1.8039  0.3177
15657SOL    HW253830   1.485   8.541   6.087  0.0228  0.4008 -1.3578
15658SOL     OW53831   9.566   1.356   1.851  0.1343 -0.1846  0.4971
15658SOL    HW153832   9.474   1.344   1.876  0.1952  1.4649  1.6802
15658SOL    HW253833   9.613   1.290   1.902 -0.2825 -0.2462  0.8118
15659SOL     OW53834   8.886  11.970   2.881 -0.1217 -0.5010 -0.1797
15659SOL    HW153835   8.908  11.899   2.820 -0.3810 -1.2837  0.6036
15659SOL    HW253836   8.812  11.935   2.932  0.6410 -0.2447  1.1693
15660SOL     OW53837  12.501   7.821   1.498  0.4148 -0.1002 -0.3210
15660SOL    HW153838  12.516   7.727   1.486  0.1548  0.1054 -2.7219
15660SOL    HW253839  12.569   7.848   1.560 -0.0232 -1.9864  1.0682
15661SOL     OW53840   5.296   9.713   6.475 -0.1685 -0.1386 -0.0731
15661SOL    HW153841   5.280   9.711   6.569  0.4191  2.2935  0.1532
15661SOL    HW253842   5.212   9.737   6.436  0.4018  2.8344  0.2654
15662SOL     OW53843   6.924  11.230   1.810 -0.2859  0.1806 -0.0860
15662SOL    HW153844   6.997  11.252   1.868 -1.2068  1.4165  0.6407
15662SOL    HW253845   6.900  11.140   1.835  0.5385  0.0085  0.1204
15663SOL     OW53846   2.322   1.964   5.196  0.3688  0.4542 -0.0503
15663SOL    HW153847   2.341   1.872   5.175 -0.3720  0.8388 -2.8241
15663SOL    HW253848   2.401   2.011   5.168 -0.5799  0.9681 -2.0816
15664SOL     OW53849   7.527   4.063   2.019  0.3883  0.0343  0.1130
15664SOL    HW153850   7.576   4.143   2.002  2.1109 -0.8380  0.7570
15664SOL    HW253851   7.480   4.046   1.937 -2.8015  3.4535  0.9403
15665SOL     OW53852   4.428   0.663  10.093 -1.0776 -0.2909 -0.8263
15665SOL    HW153853   4.498   0.612  10.131 -1.1086 -0.7528 -1.3840
15665SOL    HW253854   4.429   0.746  10.141 -1.5229 -1.0880  0.6067
15666SOL     OW53855  12.308   2.422   0.968 -0.2040  0.2044  0.0639
15666SOL    HW153856  12.282   2.387   1.053 -1.2236  1.7617  0.4327
15666SOL    HW253857  12.272   2.361   0.905  1.2299 -1.4151  0.7068
15667SOL     OW53858   5.175   8.846   4.362  0.0439  0.2702  0.0905
15667SOL    HW153859   5.228   8.904   4.417 -0.1361  0.5646 -0.0423
15667SOL    HW253860   5.103   8.819   4.418  0.0365  0.3119  0.1015
15668SOL     OW53861  10.233   1.826   3.780  0.0737 -0.7733 -0.0370
15668SOL    HW153862  10.165   1.865   3.724 -0.6033  0.6821  1.7039
15668SOL    HW253863  10.263   1.898   3.835  0.2153 -2.2726  1.9548
15669SOL     OW53864   9.898   4.413  12.200  0.2527 -0.1709  0.2483
15669SOL    HW153865   9.881   4.319  12.209  0.0755 -0.2854 -1.1372
15669SOL    HW253866   9.877   4.449  12.286 -0.5050 -1.2737  0.5487
15670SOL     OW53867   5.261   1.576   8.489  0.3888 -0.2379  0.9486
15670SOL    HW153868   5.294   1.546   8.574  0.4120 -1.5487  0.5039
15670SOL    HW253869   5.296   1.513   8.426 -1.2809 -0.5025  0.2252
15671SOL     OW53870   5.533   4.217   1.705 -0.5610 -0.1851 -0.0104
15671SOL    HW153871   5.594   4.148   1.678 -0.6707 -0.2062 -0.2067
15671SOL    HW253872   5.446   4.178   1.694 -0.5994 -0.3077  0.6876
15672SOL     OW53873  11.850   4.126   4.594  0.3432 -0.3306  0.1154
15672SOL    HW153874  11.901   4.076   4.530  0.5430 -0.8426  0.6737
15672SOL    HW253875  11.773   4.072   4.610 -0.4216  0.4491 -0.7474
15673SOL     OW53876   6.407   9.135   0.936 -0.5932  0.5300  0.3213
15673SOL    HW153877   6.499   9.108   0.932 -0.8453 -0.4863  0.9363
15673SOL    HW253878   6.377   9.105   1.022 -0.8294  3.1174  1.2187
15674SOL     OW53879   7.327   7.324  10.314  0.7124  0.2261  0.2809
15674SOL    HW153880   7.392   7.380  10.271  0.9700 -0.5467 -0.3766
15674SOL    HW253881   7.366   7.236  10.311 -0.3518 -0.2467 -0.1184
15675SOL     OW53882   0.538   9.839   2.718 -0.5266 -0.6435 -0.2478
15675SOL    HW153883   0.490   9.921   2.731 -0.1007 -0.5424  0.8364
15675SOL    HW253884   0.469   9.773   2.711 -0.8609 -0.5127  1.3797
15676SOL     OW53885   6.655   3.748   3.547  0.0974 -0.0155 -0.0415
15676SOL    HW153886   6.721   3.689   3.583  0.4878  0.8196  0.6499
15676SOL    HW253887   6.597   3.768   3.622 -2.2704 -2.4235 -1.0739
15677SOL     OW53888   9.932   0.130  10.451 -0.5974 -0.4470  0.0131
15677SOL    HW153889   9.851   0.103  10.494  0.1925 -4.2272 -0.5478
15677SOL    HW253890   9.907   0.144  10.360 -0.8347 -0.2448  0.1071
15678SOL     OW53891   1.485   8.030   7.149  0.2140  0.1346 -0.3505
15678SOL    HW153892   1.460   7.938   7.143 -1.2035  0.3151  1.8148
15678SOL    HW253893   1.581   8.029   7.148  0.2427 -1.4495  0.4805
15679SOL     OW53894   5.709  10.409   9.531 -0.0284  0.5694 -0.0340
15679SOL    HW153895   5.688  10.341   9.595  0.4331  0.4515 -0.0071
15679SOL    HW253896   5.636  10.471   9.537 -0.2332  0.3011  0.2496
15680SOL     OW53897   4.970   8.429   0.626 -0.0041 -0.1959  0.2067
15680SOL    HW153898   5.028   8.354   0.640  1.4123  0.8500  0.2554
15680SOL    HW253899   4.882   8.394   0.636  0.6173 -1.8457  0.2079
15681SOL     OW53900   7.997   7.314   9.125  0.0999 -0.0285 -0.0191
15681SOL    HW153901   7.992   7.378   9.196  3.8581 -1.7092  2.0257
15681SOL    HW253902   7.966   7.232   9.163 -1.0037 -0.3054 -1.4229
15682SOL     OW53903   2.997   0.837  10.802  0.3793 -0.2974 -0.1003
15682SOL    HW153904   2.918   0.874  10.842 -0.0301 -0.2387 -0.9257
15682SOL    HW253905   3.061   0.834  10.872 -0.2749 -0.0778  0.5196
15683SOL     OW53906   6.138   7.150   4.862  0.4019 -0.2180 -0.5272
15683SOL    HW153907   6.175   7.079   4.915 -1.4641 -0.6069  0.3555
15683SOL    HW253908   6.159   7.230   4.911  0.7497 -0.3521 -0.4554
15684SOL     OW53909  12.131   9.245   4.667  0.2301 -0.7693  0.0780
15684SOL    HW153910  12.222   9.247   4.697  0.6697  2.3707 -1.0874
15684SOL    HW253911  12.086   9.310   4.721 -0.6518 -0.2993 -1.1623
15685SOL     OW53912   6.967   5.751   8.403  0.6943 -0.5946  0.3755
15685SOL    HW153913   6.984   5.753   8.498  0.4191 -0.4662  0.4208
15685SOL    HW253914   6.956   5.658   8.384  1.0420 -0.6488  0.4154
15686SOL     OW53915   2.909   9.485   8.393  0.2762 -0.3850  0.1781
15686SOL    HW153916   2.939   9.400   8.361  0.7129 -0.3038  0.3477
15686SOL    HW253917   2.821   9.469   8.427  0.3240 -0.7509  0.1336
15687SOL     OW53918   7.460   6.436   5.748 -0.0340 -0.0516  0.4392
15687SOL    HW153919   7.500   6.483   5.821 -0.2484  1.0088 -0.1063
15687SOL    HW253920   7.434   6.505   5.687 -0.5504 -0.8749 -0.2872
15688SOL     OW53921   8.506   3.740   3.436  0.2718  0.2741  0.5518
15688SOL    HW153922   8.525   3.749   3.530  1.2154  1.0155  0.3190
15688SOL    HW253923   8.578   3.686   3.403 -1.8980 -2.9902  0.7977
15689SOL     OW53924   4.813   9.339   8.228  0.1757  0.2961 -0.6244
15689SOL    HW153925   4.825   9.418   8.280 -0.1457  0.5037 -0.8608
15689SOL    HW253926   4.728   9.305   8.256  0.1188  0.2691 -0.8320
15690SOL     OW53927   1.613   5.262   8.742  0.1415 -0.7466  0.2409
15690SOL    HW153928   1.521   5.239   8.753 -0.5541  1.2480 -0.9638
15690SOL    HW253929   1.648   5.266   8.831 -0.8548 -1.7304  0.6987
15691SOL     OW53930   3.741   8.158   3.573 -0.5462 -0.4842  0.0975
15691SOL    HW153931   3.785   8.243   3.567 -1.1411 -0.1776  0.0157
15691SOL    HW253932   3.668   8.173   3.633 -0.9917 -0.7895 -0.3599
15692SOL     OW53933   8.399  11.282   8.332  0.4543  0.4914 -0.2482
15692SOL    HW153934   8.365  11.368   8.356 -1.2212 -0.1699 -0.1470
15692SOL    HW253935   8.455  11.258   8.406 -1.6740  0.1120  1.3479
15693SOL     OW53936   1.371   8.039   8.944  0.1908  0.0466  0.1220
15693SOL    HW153937   1.320   8.120   8.949  3.1681  2.0240  1.6679
15693SOL    HW253938   1.405   8.027   9.033  1.2053 -1.9709 -0.4753
15694SOL     OW53939   9.091  12.295   4.461  0.2005  0.2668 -0.1510
15694SOL    HW153940   9.138  12.362   4.411 -0.0754  1.2494  0.8535
15694SOL    HW253941   9.160  12.245   4.505  0.4536 -0.7384 -1.6382
15695SOL     OW53942   2.263  11.841   7.513 -0.0065 -0.2509 -0.1198
15695SOL    HW153943   2.168  11.836   7.513  0.0340 -1.3012 -0.7102
15695SOL    HW253944   2.288  11.835   7.605 -0.4484 -1.8756 -0.0714
15696SOL     OW53945   1.030   1.786   2.895  0.3756  0.3052  0.3472
15696SOL    HW153946   0.956   1.727   2.909  1.7202 -1.2037  1.4218
15696SOL    HW253947   1.058   1.812   2.983  3.6909 -2.5762  0.3991
15697SOL     OW53948   9.119   6.825   7.870  0.3643 -0.8220 -0.1292
15697SOL    HW153949   9.172   6.801   7.945  0.0589  0.6912  0.6001
15697SOL    HW253950   9.078   6.908   7.894  0.2760 -0.2783 -1.9729
15698SOL     OW53951   8.178  10.580   6.306 -0.2137 -0.4166 -0.3517
15698SOL    HW153952   8.122  10.657   6.304  0.3998  0.0952  0.9988
15698SOL    HW253953   8.265  10.615   6.327  0.4424 -1.2818 -1.5584
15699SOL     OW53954   6.530   7.422   8.397 -0.1413 -0.2725 -0.4801
15699SOL    HW153955   6.465   7.354   8.415  0.8561 -1.2426 -0.4454
15699SOL    HW253956   6.550   7.412   8.304  1.7155 -1.6051  0.0151
15700SOL     OW53957   7.673   7.479   1.763  0.6149 -0.3808 -0.3324
15700SOL    HW153958   7.578   7.479   1.773  0.3793  0.0661 -2.1825
15700SOL    HW253959   7.705   7.534   1.835 -0.5756  0.0471 -0.1091
15701SOL     OW53960  10.459   5.485   5.553 -0.0155  0.1925 -0.4681
15701SOL    HW153961  10.500   5.450   5.632 -0.0306 -0.0795 -0.5788
15701SOL    HW253962  10.440   5.407   5.500  0.1398  0.3900 -0.8084
15702SOL     OW53963   2.591   4.713   5.087  0.8344 -0.0482 -0.0370
15702SOL    HW153964   2.508   4.710   5.040  0.4488 -0.4330  0.6662
15702SOL    HW253965   2.622   4.623   5.086  0.5333 -0.1690  0.9633
15703SOL     OW53966   1.456  12.081   2.274  0.0975  0.4141 -0.7866
15703SOL    HW153967   1.411  12.000   2.251 -1.2655  1.4342 -1.8639
15703SOL    HW253968   1.413  12.111   2.354 -0.6882  1.0217 -1.4238
15704SOL     OW53969  10.824   1.555   2.285 -0.3981 -0.3359 -0.3020
15704SOL    HW153970  10.836   1.629   2.344  0.2528 -1.3868  0.9403
15704SOL    HW253971  10.739   1.518   2.310 -1.3722  0.7358 -1.8313
15705SOL     OW53972   0.127   9.936   8.927 -0.2303  0.1687 -0.3970
15705SOL    HW153973   0.079   9.938   8.844 -0.3438  1.8457 -0.3304
15705SOL    HW253974   0.073   9.988   8.987  1.1906  1.3286 -0.0700
15706SOL     OW53975   7.040   7.348   1.463 -1.0161  0.1798  0.1239
15706SOL    HW153976   7.028   7.409   1.390  1.4991  0.3779 -0.2030
15706SOL    HW253977   7.027   7.262   1.425 -4.5040  0.3533  0.5664
15707SOL     OW53978   5.983   5.794   7.966  0.3518  0.3524 -0.1192
15707SOL    HW153979   6.029   5.737   7.904  1.6612  0.2821  0.8533
15707SOL    HW253980   6.008   5.760   8.052 -1.1774  0.6335  0.4616
15708SOL     OW53981  11.220   5.498   9.399 -0.1222 -0.2981 -0.2095
15708SOL    HW153982  11.191   5.537   9.481 -0.5484  1.5248 -1.1634
15708SOL    HW253983  11.255   5.413   9.424  0.8480  0.6682  2.0061
15709SOL     OW53984   5.774   3.625  10.402  0.3762  0.3220  0.1380
15709SOL    HW153985   5.732   3.575  10.332  0.7925  1.7980 -1.2487
15709SOL    HW253986   5.724   3.605  10.481  0.7503 -2.5064 -0.2488
15710SOL     OW53987   6.014   5.690   5.835 -0.7639  0.0101 -0.1393
15710SOL    HW153988   5.920   5.673   5.838 -0.8275  0.0154 -1.4329
15710SOL    HW253989   6.049   5.619   5.781 -0.0886  0.2597 -0.0383
15711SOL     OW53990   5.287   6.179  10.664 -0.0613 -0.0929 -0.0922
15711SOL    HW153991   5.259   6.213  10.579  1.7772 -0.2605 -0.7994
15711SOL    HW253992   5.356   6.239  10.692 -0.3603 -0.2911  1.0882
15712SOL     OW53993   4.769   8.522   8.032 -0.0268  0.0735 -0.3643
15712SOL    HW153994   4.798   8.451   7.974  1.4734 -0.9066  1.4717
15712SOL    HW253995   4.842   8.583   8.032 -0.5228  0.6679 -0.4483
15713SOL     OW53996   6.133   1.225   3.597 -0.1262  0.4148 -0.3050
15713SOL    HW153997   6.226   1.203   3.605 -0.1889  0.3966  0.4084
15713SOL    HW253998   6.113   1.209   3.504  0.5916  0.4785 -0.4803
15714SOL     OW53999   1.293  10.035   7.850 -0.4571 -0.1563  0.1991
15714SOL    HW154000   1.220  10.044   7.912 -0.8975  0.6637 -0.4070
15714SOL    HW254001   1.251  10.037   7.764  0.2201 -0.4258 -0.1402
15715SOL     OW54002   1.039   9.131   1.764  0.2116 -0.2710  0.7518
15715SOL    HW154003   1.048   9.176   1.848 -1.0561 -0.8119  1.2044
15715SOL    HW254004   1.126   9.134   1.726  0.2893  2.1913  0.9468
15716SOL     OW54005   9.461   4.012   3.498  0.1892 -0.2077 -0.7067
15716SOL    HW154006   9.517   3.947   3.456  0.8144  0.2854 -0.6504
15716SOL    HW254007   9.372   3.979   3.485  0.5401 -1.5725  0.1756
15717SOL     OW54008  11.034   9.547   9.655 -0.1858 -0.1060  0.2648
15717SOL    HW154009  11.086   9.535   9.734  0.3082 -0.2945 -0.0859
15717SOL    HW254010  10.969   9.477   9.658 -0.3579  0.0670  0.6499
15718SOL     OW54011   7.682   7.384  10.960  0.0845  1.2563 -0.1584
15718SOL    HW154012   7.761   7.413  10.913  2.0908 -0.8138  1.7198
15718SOL    HW254013   7.656   7.303  10.916  1.1019  0.1003  1.2905
15719SOL     OW54014   0.435   5.075  10.664  0.3047  0.2271  0.5769
15719SOL    HW154015   0.369   5.040  10.724  1.4670 -0.8107  1.2949
15719SOL    HW254016   0.517   5.070  10.713  1.0966  0.4450 -0.6864
15720SOL     OW54017   2.358   5.582   8.180  0.1261 -0.2148  0.3073
15720SOL    HW154018   2.341   5.488   8.172 -0.1323 -0.1519  0.1112
15720SOL    HW254019   2.273   5.623   8.164 -0.1837 -0.0253  2.2162
15721SOL     OW54020   3.814   2.488   2.507 -0.1300 -0.4344 -0.0707
15721SOL    HW154021   3.742   2.448   2.458 -0.5756 -1.3447  1.2696
15721SOL    HW254022   3.773   2.561   2.553  0.0559 -0.2495 -0.1981
15722SOL     OW54023  11.568   9.238   7.746  0.7154  0.3738  0.6860
15722SOL    HW154024  11.579   9.293   7.824 -1.0206 -1.2013  2.1256
15722SOL    HW254025  11.562   9.149   7.779 -0.9170 -0.2850 -1.1360
15723SOL     OW54026   1.861   4.525   3.817 -0.2173 -0.9055 -0.6123
15723SOL    HW154027   1.940   4.499   3.864  0.8994 -0.6586 -2.2932
15723SOL    HW254028   1.823   4.442   3.787  0.1699 -0.9386 -1.0094
15724SOL     OW54029   8.751   3.991   1.780  0.5413 -0.3820 -0.7552
15724SOL    HW154030   8.771   3.913   1.832  0.0236  1.1262  1.8510
15724SOL    HW254031   8.663   4.017   1.809  0.7635  1.2442 -1.4626
15725SOL     OW54032   5.367   4.144  10.113 -0.4163  0.5382 -0.0750
15725SOL    HW154033   5.345   4.137  10.206  0.3746 -0.1087  0.0723
15725SOL    HW254034   5.354   4.056  10.079 -1.5972  0.9683 -0.7980
15726SOL     OW54035   2.904  10.770   1.704  0.2450  0.0052  0.5943
15726SOL    HW154036   2.975  10.707   1.710 -0.6996 -0.9687  2.1906
15726SOL    HW254037   2.824  10.717   1.701 -0.5025  1.0958  0.4139
15727SOL     OW54038  10.547   5.748   5.490  0.2625 -0.1394 -0.4342
15727SOL    HW154039  10.627   5.702   5.465  0.2417 -0.4709  0.0924
15727SOL    HW254040  10.494   5.682   5.535  1.0172  0.7693  1.9993
15728SOL     OW54041   2.865   5.691   3.725 -0.1532 -0.6554  0.1319
15728SOL    HW154042   2.774   5.668   3.741 -0.7158  0.5471 -1.1265
15728SOL    HW254043   2.892   5.741   3.801  0.4478 -3.4701  1.9355
15729SOL     OW54044   6.675  11.222   2.356  0.2487 -0.1899  0.0443
15729SOL    HW154045   6.691  11.139   2.311  0.2689 -1.0865  1.6535
15729SOL    HW254046   6.593  11.208   2.403  0.4994  0.5382  0.7066
15730SOL     OW54047   4.285  11.845   5.133  0.1392 -0.2709 -0.7852
15730SOL    HW154048   4.233  11.765   5.125 -1.0351  0.3684  0.1208
15730SOL    HW254049   4.240  11.896   5.201  1.5793  0.6060 -0.4478
15731SOL     OW54050  10.940  10.714   2.075  0.0555 -0.1340  0.1943
15731SOL    HW154051  10.917  10.774   2.005  0.1057  0.5356  0.7380
15731SOL    HW254052  10.856  10.688   2.113  0.0621  0.1809  0.4328
15732SOL     OW54053  10.560   2.326   9.396  0.0801 -0.2308 -0.7364
15732SOL    HW154054  10.475   2.349   9.433  0.0971 -0.8212 -0.3197
15732SOL    HW254055  10.589   2.251   9.447  1.3034  0.5588 -0.2313
15733SOL     OW54056   0.690   5.850   0.651 -0.2484  0.2179  0.1032
15733SOL    HW154057   0.738   5.920   0.695  2.2265  0.8310 -3.2059
15733SOL    HW254058   0.746   5.772   0.664 -2.7111 -1.2722  3.3013
15734SOL     OW54059   3.701   6.340   9.845 -0.0472  0.1412 -0.0817
15734SOL    HW154060   3.774   6.302   9.795 -0.0816  0.0173 -0.0369
15734SOL    HW254061   3.738   6.354   9.932  0.9098  2.9478 -0.8197
15735SOL     OW54062   4.293  10.050  11.405  0.0335 -0.7157 -0.2852
15735SOL    HW154063   4.199  10.063  11.394  0.2408 -0.5745 -2.2896
15735SOL    HW254064   4.301   9.966  11.450 -1.0591 -0.0972  1.1335
15736SOL     OW54065   9.910   6.460  10.556  0.5008 -0.4378 -0.1784
15736SOL    HW154066   9.854   6.518  10.607  0.9377 -0.8200  0.7684
15736SOL    HW254067   9.999   6.495  10.569  0.8057 -1.4720  0.6621
15737SOL     OW54068   6.887  10.140   4.023 -0.3173 -0.0300 -0.0874
15737SOL    HW154069   6.956  10.187   4.070 -0.0845  0.3384 -0.7944
15737SOL    HW254070   6.861  10.070   4.084  0.4209  0.0468  0.3317
15738SOL     OW54071   9.948   5.568  10.187 -0.2609 -0.5262 -0.0462
15738SOL    HW154072   9.854   5.585  10.176 -0.2847 -1.4762 -1.7264
15738SOL    HW254073   9.982   5.648  10.226 -1.8961 -0.4760  1.3981
15739SOL     OW54074   0.474   1.013  11.705 -0.1226 -0.2631 -0.0603
15739SOL    HW154075   0.422   1.066  11.644  1.7360  0.1950 -1.3187
15739SOL    HW254076   0.454   1.050  11.791 -0.0901  1.4589 -0.7499
15740SOL     OW54077   0.313   9.626   0.896 -0.0019 -0.8001 -0.4042
15740SOL    HW154078   0.218   9.641   0.896  0.0395 -0.5292 -0.1810
15740SOL    HW254079   0.323   9.533   0.873 -0.3315 -0.9010 -0.1475
15741SOL     OW54080   8.297   3.149   4.593  0.3663  0.1959  0.4156
15741SOL    HW154081   8.319   3.057   4.606 -0.9363  0.1413  2.6822
15741SOL    HW254082   8.274   3.155   4.500 -1.3467 -2.2047  0.5908
15742SOL     OW54083   2.230   1.387   0.621  0.1372 -0.9083  0.2470
15742SOL    HW154084   2.293   1.316   0.633  1.6260  0.1232 -0.9857
15742SOL    HW254085   2.231   1.404   0.527 -0.0109  0.8452  0.5295
15743SOL     OW54086  11.421   2.238  11.944  0.0767  1.1573 -0.6436
15743SOL    HW154087  11.335   2.279  11.944 -0.3178  0.3549 -1.0520
15743SOL    HW254088  11.482   2.310  11.958 -0.6919  1.6615  0.2167
15744SOL     OW54089   4.377   9.613   1.305 -0.9296 -0.4892  0.0466
15744SOL    HW154090   4.372   9.707   1.323  1.5272 -0.6208  1.8490
15744SOL    HW254091   4.375   9.607   1.210 -0.6921  1.4258 -0.1248
15745SOL     OW54092   8.976   1.272   3.007 -0.4267  0.2483  0.0022
15745SOL    HW154093   9.064   1.284   2.970 -0.3484 -3.5786 -1.5111
15745SOL    HW254094   8.976   1.323   3.087  2.7145  1.4248 -0.6165
15746SOL     OW54095   3.169  12.167   4.061  0.3401 -0.0187 -0.2152
15746SOL    HW154096   3.099  12.214   4.016  0.1390  0.6996  0.8032
15746SOL    HW254097   3.134  12.152   4.149  1.1163 -0.4582  0.0233
15747SOL     OW54098   9.716  10.222   1.506 -0.0615  0.2380  0.6250
15747SOL    HW154099   9.720  10.248   1.414  1.3620  3.4221  1.4416
15747SOL    HW254100   9.628  10.186   1.518 -0.5981  0.6250 -1.7421
15748SOL     OW54101   6.027  11.824   4.031 -0.1740  0.5519 -0.5793
15748SOL    HW154102   6.019  11.893   3.964  1.8272  0.3199 -1.1121
15748SOL    HW254103   6.118  11.829   4.060 -0.2172 -1.2997  0.0098
15749SOL     OW54104  10.421   1.305  10.731 -0.1769  0.0340  0.1101
15749SOL    HW154105  10.349   1.243  10.737  0.8197 -1.1349  0.2926
15749SOL    HW254106  10.423   1.330  10.638 -1.9601  1.5387  0.4055
15750SOL     OW54107   9.164   1.105   7.221 -0.0100 -0.2220 -0.2372
15750SOL    HW154108   9.118   1.059   7.292 -0.5006 -1.1247 -1.1162
15750SOL    HW254109   9.161   1.044   7.147  3.4408 -0.7869 -0.0843
15751SOL     OW54110   0.119   6.263  11.915 -0.0786  0.2241 -0.0946
15751SOL    HW154111   0.099   6.191  11.854  4.1156 -1.7042  0.4698
15751SOL    HW254112   0.160   6.330  11.861 -0.4467  0.5244 -0.0108
15752SOL     OW54113   4.802  10.090   7.436  0.3215  0.1376  0.0189
15752SOL    HW154114   4.764  10.002   7.440  2.1579 -0.6666  0.5477
15752SOL    HW254115   4.768  10.127   7.355 -2.2509 -0.1848  0.8598
15753SOL     OW54116  11.429   1.782   4.254 -0.4926  0.2349 -0.8319
15753SOL    HW154117  11.468   1.842   4.317  0.4970 -2.5104  1.3839
15753SOL    HW254118  11.339   1.770   4.286 -1.0447  1.3400 -1.9240
15754SOL     OW54119   4.079   8.105   2.317  0.1117  0.0675 -0.0687
15754SOL    HW154120   4.139   8.170   2.354 -0.4873  1.4528 -1.4409
15754SOL    HW254121   4.050   8.143   2.234 -0.7228 -1.7057 -0.6373
15755SOL     OW54122   0.327   9.643  11.132 -0.4404  0.6224  1.0241
15755SOL    HW154123   0.241   9.678  11.157 -0.8626  0.8151 -0.5693
15755SOL    HW254124   0.374   9.719  11.096 -0.6547 -0.0240 -0.6954
15756SOL     OW54125   8.799   7.556   4.915  0.1872  0.3405 -0.6452
15756SOL    HW154126   8.730   7.503   4.876 -1.1227  2.0679 -0.8418
15756SOL    HW254127   8.846   7.497   4.974 -1.0361 -1.0518 -1.0229
15757SOL     OW54128   7.843   9.224   9.402  0.1286 -0.0595  0.0747
15757SOL    HW154129   7.807   9.141   9.433  0.6511 -0.5423 -0.5657
15757SOL    HW254130   7.938   9.212   9.406  0.2602  1.1297  1.5858
15758SOL     OW54131   6.148  10.435   4.790  0.3232 -0.0739  0.0210
15758SOL    HW154132   6.185  10.408   4.875  1.1643 -1.9107 -0.8542
15758SOL    HW254133   6.065  10.387   4.784  0.5118 -0.3583 -0.3889
15759SOL     OW54134   4.890   4.854   9.922  0.0117  0.4806 -0.1678
15759SOL    HW154135   4.830   4.854   9.848 -1.4299  0.4908  0.9590
15759SOL    HW254136   4.973   4.821   9.886 -0.4470  1.1456 -1.9154
15760SOL     OW54137   3.520   0.025   6.143 -0.4721  0.5290 -0.1251
15760SOL    HW154138   3.529  -0.019   6.228  2.8446 -0.7434 -0.9608
15760SOL    HW254139   3.449  -0.022   6.099 -0.3966 -0.6387  0.9329
15761SOL     OW54140   9.060   0.930   5.456 -0.4013 -0.3300 -0.0767
15761SOL    HW154141   8.985   0.912   5.398 -0.5710  0.4824 -0.1204
15761SOL    HW254142   9.095   1.013   5.423 -0.0228 -0.2600  0.5069
15762SOL     OW54143   1.021   1.948   2.688 -0.6772  0.0243  0.2509
15762SOL    HW154144   1.033   1.892   2.764 -1.3194  1.4165  1.4248
15762SOL    HW254145   0.927   1.947   2.672 -0.6095  0.2054 -0.1771
15763SOL     OW54146   0.051   8.603   5.718  0.3815  0.0418  0.3312
15763SOL    HW154147  -0.012   8.622   5.787  0.1626  1.3047 -0.1867
15763SOL    HW254148   0.022   8.520   5.681  0.2973 -0.4616  1.5171
15764SOL     OW54149   9.609  10.607   4.603 -0.4108  0.4002 -0.1687
15764SOL    HW154150   9.656  10.524   4.608 -0.6631  0.3024  0.7091
15764SOL    HW254151   9.519  10.586   4.628 -0.3313  1.0371  0.7148
15765SOL     OW54152   9.219   0.197   5.560 -0.0554 -0.6006  0.2806
15765SOL    HW154153   9.218   0.182   5.655  0.2006 -1.9674  0.0872
15765SOL    HW254154   9.220   0.109   5.522  1.9628 -0.1078 -0.9511
15766SOL     OW54155   3.834  11.755  10.905  0.1837 -0.0257  0.1484
15766SOL    HW154156   3.919  11.715  10.885  0.3950  0.5143 -0.0629
15766SOL    HW254157   3.819  11.816  10.833 -0.3972 -0.1326  0.1742
15767SOL     OW54158  11.369   3.981  11.107 -0.2351 -0.9223 -0.3447
15767SOL    HW154159  11.298   4.030  11.148 -0.1121  1.2087 -2.4056
15767SOL    HW254160  11.335   3.957  11.021  1.0355 -1.1122 -0.8213
15768SOL     OW54161   9.843  12.541   2.200 -0.0014  0.2444  0.0460
15768SOL    HW154162   9.832  12.450   2.175  1.7656  0.3558 -1.3570
15768SOL    HW254163   9.759  12.582   2.181 -1.0455 -1.2093  1.3771
15769SOL     OW54164  10.755   5.635  10.317 -0.0935 -0.8094 -0.1584
15769SOL    HW154165  10.676   5.648  10.370 -0.1517  0.6638 -0.5606
15769SOL    HW254166  10.787   5.549  10.343 -0.7209 -0.5899  1.4806
15770SOL     OW54167  11.754  11.448  12.377  0.3820 -0.1067 -0.1508
15770SOL    HW154168  11.687  11.516  12.383 -0.4783 -0.6811 -2.1784
15770SOL    HW254169  11.705  11.366  12.373  1.2206 -0.5837 -1.0371
15771SOL     OW54170   7.423   0.433   9.077 -0.0700 -0.6141  0.1801
15771SOL    HW154171   7.420   0.529   9.082 -1.9945 -0.6033 -0.2017
15771SOL    HW254172   7.354   0.404   9.136 -0.0211 -1.7362 -0.2917
15772SOL     OW54173   1.247   2.956   6.318  0.8695 -0.3674 -0.6075
15772SOL    HW154174   1.307   3.014   6.271 -0.4140  1.1246 -0.4663
15772SOL    HW254175   1.218   3.007   6.393  1.5854 -2.1026  0.9485
15773SOL     OW54176   9.382   9.486   0.550  0.4063 -0.2343  0.9832
15773SOL    HW154177   9.449   9.549   0.522  1.2042 -0.7967  1.5776
15773SOL    HW254178   9.305   9.509   0.499  1.3638 -0.2732 -0.5758
15774SOL     OW54179   5.266   2.389   4.486  0.4048  0.2313 -0.5345
15774SOL    HW154180   5.305   2.302   4.487  1.2409  0.5755 -1.5022
15774SOL    HW254181   5.293   2.428   4.569  0.5570 -0.1988 -0.3765
15775SOL     OW54182   0.965   6.848   2.432 -0.3835 -0.0105 -0.0090
15775SOL    HW154183   0.907   6.898   2.375 -0.4347 -0.1782 -0.1053
15775SOL    HW254184   1.035   6.909   2.454  0.2687 -0.2923 -1.2087
15776SOL     OW54185  10.856  10.171   0.282  0.6132  0.0269  0.3709
15776SOL    HW154186  10.798  10.141   0.352 -1.3936 -0.5374 -1.4234
15776SOL    HW254187  10.940  10.130   0.302 -0.6251 -2.4327  1.0029
15777SOL     OW54188   1.995   4.303   9.780 -0.0242 -0.0012 -0.2115
15777SOL    HW154189   1.925   4.239   9.777  0.0650 -0.0692 -1.1173
15777SOL    HW254190   1.951   4.385   9.805  0.0637 -0.6396  2.2934
15778SOL     OW54191   1.355   9.326   2.660  0.7130  0.7830  0.1211
15778SOL    HW154192   1.396   9.312   2.574 -1.0796 -0.2385 -0.6137
15778SOL    HW254193   1.427   9.359   2.715  3.0580 -2.6103 -0.5836
15779SOL     OW54194   1.132   8.671   1.768  0.4306  1.0045  0.8534
15779SOL    HW154195   1.137   8.616   1.690  1.7944  1.4970  0.5601
15779SOL    HW254196   1.045   8.654   1.804 -2.0669  3.7565 -2.9933
15780SOL     OW54197   9.149   8.364  10.237 -0.7944 -0.1658  0.1983
15780SOL    HW154198   9.072   8.308  10.228 -1.0661  0.0119  1.3300
15780SOL    HW254199   9.189   8.339  10.320 -0.9730  1.3657  0.7863
15781SOL     OW54200  12.448   9.762  10.067  0.2240 -0.1012 -0.1962
15781SOL    HW154201  12.372   9.703  10.067 -1.3070  1.7612 -0.9230
15781SOL    HW254202  12.488   9.749   9.981  1.0971 -1.4588  0.3748
15782SOL     OW54203  12.264   9.805   4.212 -0.1543 -0.1117  0.1980
15782SOL    HW154204  12.336   9.782   4.154  0.2272 -0.8975  0.9672
15782SOL    HW254205  12.267   9.901   4.218  0.9937 -0.1527  0.4310
15783SOL     OW54206  10.935   7.622   0.090 -0.1374 -0.0639  0.2170
15783SOL    HW154207  10.845   7.650   0.068 -1.0412 -2.3226  0.8091
15783SOL    HW254208  10.934   7.612   0.185  1.2774  1.4415  0.4372
15784SOL     OW54209   0.330  10.704   9.569 -0.2409 -0.0629 -0.4920
15784SOL    HW154210   0.423  10.722   9.585 -0.2666  0.3656 -0.8114
15784SOL    HW254211   0.311  10.749   9.487 -0.1747 -1.9868 -1.6263
15785SOL     OW54212   4.588   1.022  11.771 -0.2115 -1.1466 -0.4537
15785SOL    HW154213   4.575   1.098  11.715  3.2669 -0.0774 -0.0696
15785SOL    HW254214   4.564   1.052  11.859  1.9671 -0.0839 -0.1552
15786SOL     OW54215   2.083   7.269   2.191 -0.0017  0.0147 -0.4561
15786SOL    HW154216   2.176   7.271   2.213 -0.4804 -0.4734  1.7954
15786SOL    HW254217   2.055   7.361   2.195 -0.3115 -0.1282  2.3370
15787SOL     OW54218   7.011   3.152   7.332  0.5534 -0.2799  0.0545
15787SOL    HW154219   6.957   3.126   7.407  0.5544 -0.9607 -0.1823
15787SOL    HW254220   7.099   3.121   7.354  0.7693  0.4319  0.2346
15788SOL     OW54221   2.627   3.614   9.078  0.0577  0.3101  0.0039
15788SOL    HW154222   2.629   3.699   9.121  0.5259  0.1321  0.3528
15788SOL    HW254223   2.553   3.568   9.117 -0.8283  0.9209 -0.9188
15789SOL     OW54224  10.706   9.385   8.149 -0.1949  0.1122 -0.7971
15789SOL    HW154225  10.718   9.451   8.080 -0.2951 -1.3299 -2.2418
15789SOL    HW254226  10.619   9.348   8.132 -0.9513  0.8319  1.1350
15790SOL     OW54227   6.380   8.879  11.590 -0.6233 -0.5197 -0.5656
15790SOL    HW154228   6.294   8.919  11.573 -0.3177  0.0439 -0.8239
15790SOL    HW254229   6.411   8.924  11.669 -0.1358 -0.0091 -1.0414
15791SOL     OW54230  11.417   6.010   3.756  0.0543  0.2980 -0.2584
15791SOL    HW154231  11.482   6.046   3.816  0.7491  0.2324 -0.9569
15791SOL    HW254232  11.337   6.060   3.774  0.0721 -0.1468  1.1404
15792SOL     OW54233   1.678   3.235   1.932 -0.1277 -0.2844  0.6215
15792SOL    HW154234   1.635   3.205   1.852 -1.6005  0.0988  1.2313
15792SOL    HW254235   1.703   3.326   1.913  1.1259 -0.7370  0.0081
15793SOL     OW54236   0.975   6.903   7.635 -0.0025 -0.0427 -0.1497
15793SOL    HW154237   0.996   6.903   7.542 -1.1988 -0.6845 -0.4444
15793SOL    HW254238   0.946   6.993   7.653  1.3105  0.3914 -0.1108
15794SOL     OW54239   9.445   3.271   4.623 -0.0915  0.1974  0.0355
15794SOL    HW154240   9.466   3.178   4.608 -2.7820 -0.8617  1.9194
15794SOL    HW254241   9.494   3.294   4.702 -0.6669 -0.1539  0.5032
15795SOL     OW54242   9.230   5.875  12.350  0.2213  0.0532 -0.1991
15795SOL    HW154243   9.138   5.856  12.333  0.3581  0.4549 -1.4481
15795SOL    HW254244   9.275   5.853  12.268  1.2471 -0.1678  0.4040
15796SOL     OW54245   2.530   4.260   6.192  0.2240  0.4488 -0.3348
15796SOL    HW154246   2.523   4.226   6.281 -2.1230 -0.4791 -0.7814
15796SOL    HW254247   2.540   4.182   6.138 -0.3954  0.8278 -1.0149
15797SOL     OW54248   8.722   3.412   4.612  0.2051 -0.2486 -0.4721
15797SOL    HW154249   8.646   3.456   4.575 -0.9970 -2.5632 -0.9790
15797SOL    HW254250   8.702   3.404   4.705  0.8722  1.0832 -0.2018
15798SOL     OW54251   6.906   3.309  11.383  0.2052  0.5736 -0.2524
15798SOL    HW154252   6.817   3.324  11.352  1.4160  3.4382 -2.8543
15798SOL    HW254253   6.919   3.215  11.374 -3.4178 -0.5203  3.1841
15799SOL     OW54254  10.725  12.382   2.257  0.3571  0.4261 -0.0169
15799SOL    HW154255  10.783  12.329   2.311  1.9574 -0.5079 -2.5142
15799SOL    HW254256  10.775  12.462   2.239  0.1462  0.4071 -0.7219
15800SOL     OW54257  10.071   3.332   7.662 -0.2312  0.4925  0.2020
15800SOL    HW154258  10.013   3.391   7.613 -0.5264  0.3124  0.3327
15800SOL    HW254259  10.120   3.285   7.594 -0.2461  0.6368  0.0908
15801SOL     OW54260   8.025   3.438  10.370  0.5186 -0.0134 -0.0645
15801SOL    HW154261   8.093   3.377  10.341  1.2574  0.6835  0.1628
15801SOL    HW254262   8.057   3.471  10.454 -1.1728 -1.3445  1.1496
15802SOL     OW54263  12.096  10.191   3.026 -0.2502 -0.4037  0.3792
15802SOL    HW154264  12.162  10.166   2.961  0.1689  0.2792  0.5395
15802SOL    HW254265  12.129  10.272   3.065 -0.7144 -0.5695  1.1396
15803SOL     OW54266   4.921   9.353   7.991  0.1737 -0.3560 -0.0877
15803SOL    HW154267   4.867   9.347   8.070 -0.6450  0.4441 -0.5639
15803SOL    HW254268   5.001   9.397   8.020 -0.1185 -0.0708  0.3089
15804SOL     OW54269   4.895   3.526   4.293 -0.5347  0.0540 -0.3533
15804SOL    HW154270   4.938   3.505   4.210 -1.0735 -1.2994 -0.3207
15804SOL    HW254271   4.822   3.465   4.298  0.1650 -0.7036  1.6676
15805SOL     OW54272   3.618   4.712   5.855  0.4775  0.0490 -0.7579
15805SOL    HW154273   3.579   4.799   5.853 -0.5447 -0.2386  1.9852
15805SOL    HW254274   3.548   4.654   5.825 -0.8913 -0.2829  2.5684
15806SOL     OW54275   6.493   6.074   3.944 -0.0251 -0.0351  0.0374
15806SOL    HW154276   6.415   6.032   3.907 -0.1662  0.4130 -0.1724
15806SOL    HW254277   6.544   6.100   3.867  0.7472 -1.0808  0.1648
15807SOL     OW54278   1.258   6.999   0.942 -0.0826 -0.4040  0.1769
15807SOL    HW154279   1.335   7.033   0.987 -1.0710  0.6899  1.1170
15807SOL    HW254280   1.206   6.958   1.011  0.2520 -2.3519 -0.6604
15808SOL     OW54281  11.207   3.985   1.847 -0.1438 -0.0910 -0.2168
15808SOL    HW154282  11.254   4.054   1.800  2.5175 -0.8641  1.1077
15808SOL    HW254283  11.116   4.015   1.848  0.4833  2.1783 -1.7826
15809SOL     OW54284   4.999   2.135   5.646 -0.5275  0.0942 -0.2880
15809SOL    HW154285   4.993   2.040   5.654 -0.7256  0.2467  2.3801
15809SOL    HW254286   5.065   2.161   5.710 -1.9311  1.8745  0.5497
15810SOL     OW54287  10.458   6.642   9.738  0.1011 -0.0088 -0.2046
15810SOL    HW154288  10.390   6.596   9.788  0.6346  0.5472  1.0718
15810SOL    HW254289  10.420   6.728   9.721 -1.4081 -1.1721 -3.6700
15811SOL     OW54290   0.009   2.489  11.529  0.0102 -0.3398  0.4096
15811SOL    HW154291   0.032   2.435  11.604  0.2292  2.1562  2.2222
15811SOL    HW254292   0.059   2.451  11.456  1.6570 -1.3812  2.0059
15812SOL     OW54293   5.296   9.238   1.305  0.1586 -0.1414 -0.2873
15812SOL    HW154294   5.365   9.202   1.361  0.9405 -0.2084 -1.2714
15812SOL    HW254295   5.310   9.333   1.308 -1.1112  0.0293  1.2868
15813SOL     OW54296   0.174   4.584   9.991  0.0453  0.2522  0.1252
15813SOL    HW154297   0.122   4.520   9.942 -1.0818  0.5709  0.8828
15813SOL    HW254298   0.136   4.669   9.969  1.5131  0.7063 -0.8453
15814SOL     OW54299   2.672  11.041   4.417 -0.2102  0.2124 -0.0759
15814SOL    HW154300   2.722  11.122   4.434 -0.8392  0.2619  1.7260
15814SOL    HW254301   2.734  10.985   4.370  0.2279  1.7350 -1.4340
15815SOL     OW54302   9.984  10.795   6.857  0.5109 -0.2484 -0.5577
15815SOL    HW154303   9.988  10.884   6.891 -1.6275 -0.0815 -0.6062
15815SOL    HW254304  10.027  10.742   6.924 -1.0520  0.4443  1.0679
15816SOL     OW54305   5.617   5.649  11.116 -0.6376  0.6241  0.2463
15816SOL    HW154306   5.521   5.648  11.119 -0.6423  0.6847  0.0923
15816SOL    HW254307   5.642   5.560  11.140 -0.7429  0.4987 -0.1054
15817SOL     OW54308   3.081  10.202   0.475  0.2558  0.9982  0.7989
15817SOL    HW154309   3.089  10.119   0.521  0.4394  0.4836 -0.1324
15817SOL    HW254310   3.085  10.179   0.382 -1.5995  1.8414  0.4648
15818SOL     OW54311   8.271   3.620  11.073  0.5698  0.6291 -0.4483
15818SOL    HW154312   8.342   3.658  11.125 -0.1468  1.0307  0.2583
15818SOL    HW254313   8.245   3.541  11.122 -0.4518  1.2847  0.1038
15819SOL     OW54314   4.692   1.601  10.702  0.0700 -0.4606  0.2288
15819SOL    HW154315   4.686   1.687  10.743  0.1125  0.2704 -1.2334
15819SOL    HW254316   4.653   1.613  10.615  0.9216 -1.6768 -0.3488
15820SOL     OW54317   9.629   6.185   0.646  0.1472 -0.3017  0.1159
15820SOL    HW154318   9.562   6.126   0.681 -0.1257 -0.4086 -0.5680
15820SOL    HW254319   9.694   6.126   0.608 -0.2652 -0.1702 -0.8233
15821SOL     OW54320  11.635   3.230  11.817  0.3141  0.0681 -0.0960
15821SOL    HW154321  11.629   3.284  11.738  1.3655 -0.5258 -0.6105
15821SOL    HW254322  11.558   3.174  11.815 -0.5490  1.2227  0.2030
15822SOL     OW54323   3.523   5.742   6.644 -0.4762 -0.2024 -0.1775
15822SOL    HW154324   3.517   5.787   6.728  0.6092  0.2276 -0.3222
15822SOL    HW254325   3.516   5.812   6.579 -2.7551 -0.6564 -0.5287
15823SOL     OW54326   9.854   4.553   5.703 -0.4361 -0.6871  0.0522
15823SOL    HW154327   9.786   4.579   5.641 -1.5525 -2.3615  0.4962
15823SOL    HW254328   9.876   4.463   5.677  1.0491 -0.4553  0.4157
15824SOL     OW54329  10.813   2.818   4.351 -0.1952 -0.2564  0.1862
15824SOL    HW154330  10.770   2.894   4.391 -1.2263 -0.2548 -0.8756
15824SOL    HW254331  10.805   2.833   4.257  2.0113 -0.3483 -0.0891
15825SOL     OW54332  11.668  10.452   2.155 -0.1355  0.2905  0.1642
15825SOL    HW154333  11.652  10.408   2.238  1.9581 -2.9366 -0.9485
15825SOL    HW254334  11.764  10.461   2.151 -0.2649  1.4088 -1.4231
15826SOL     OW54335   4.819   0.635   4.085 -0.0972 -0.2797 -0.0796
15826SOL    HW154336   4.828   0.674   4.172 -0.2448  2.3674 -1.1507
15826SOL    HW254337   4.725   0.636   4.068 -0.0787 -0.8841 -0.2477
15827SOL     OW54338  10.294   5.607   2.514  0.5150 -0.1908 -0.4987
15827SOL    HW154339  10.377   5.652   2.529  0.2660  0.1139 -0.0535
15827SOL    HW254340  10.299   5.528   2.568  1.5802 -1.5226 -2.3766
15828SOL     OW54341   5.135   9.915   0.111  0.5391  0.3693  0.5953
15828SOL    HW154342   5.196   9.845   0.132  2.9634  2.4707  0.9943
15828SOL    HW254343   5.138   9.973   0.187 -0.5692  1.4679 -0.1600
15829SOL     OW54344  10.759   3.921  11.403  0.0237  0.3380  0.2105
15829SOL    HW154345  10.840   3.893  11.360 -1.3450 -0.7562 -1.7859
15829SOL    HW254346  10.703   3.952  11.332 -0.9818  2.0305  1.6657
15830SOL     OW54347   3.670   8.217   4.010 -0.0303 -0.0172 -0.6859
15830SOL    HW154348   3.753   8.168   4.007  0.0776  0.0540  0.6408
15830SOL    HW254349   3.688   8.291   4.068 -1.3073 -0.5779  0.4708
15831SOL     OW54350  10.242   6.321   6.603  0.1962  0.7500  0.0612
15831SOL    HW154351  10.166   6.281   6.560 -0.7335  2.5578 -0.0857
15831SOL    HW254352  10.251   6.272   6.685 -1.9608  1.2871  0.7016
15832SOL     OW54353   5.509   7.363   3.714 -0.1116 -0.6609 -0.1651
15832SOL    HW154354   5.575   7.298   3.690 -0.1017 -0.8083  0.2480
15832SOL    HW254355   5.547   7.447   3.688  1.5472 -0.4103  2.6458
15833SOL     OW54356   6.731   2.963   5.055  0.0963  0.0250  0.3755
15833SOL    HW154357   6.743   3.050   5.093 -0.2039  0.2764 -0.1003
15833SOL    HW254358   6.789   2.962   4.979  0.3395 -0.3070  0.5655
15834SOL     OW54359  12.121   8.853   9.909  0.0556  0.0552  0.1093
15834SOL    HW154360  12.049   8.829   9.851  0.0765  1.1358 -0.3904
15834SOL    HW254361  12.117   8.790   9.980 -0.6461 -0.6280 -0.5191
15835SOL     OW54362  11.168   3.939   3.489 -0.0046 -0.8613 -0.2605
15835SOL    HW154363  11.196   3.860   3.535  0.2128 -0.7577 -0.2123
15835SOL    HW254364  11.109   3.908   3.421  0.3371 -1.0986 -0.4545
15836SOL     OW54365  11.760  10.822  10.696 -0.1308 -0.6729 -0.0746
15836SOL    HW154366  11.710  10.899  10.670 -2.4940 -2.1338 -0.1264
15836SOL    HW254367  11.844  10.831  10.651  0.2878  2.5458  1.0595
15837SOL     OW54368   3.550   2.096   7.870  0.7700 -0.2596 -0.0593
15837SOL    HW154369   3.477   2.066   7.924  1.9974 -3.7130 -0.0436
15837SOL    HW254370   3.514   2.102   7.781  0.0527 -0.1116  0.2393
15838SOL     OW54371   1.740   2.205   9.042  0.6095 -0.0907  0.5012
15838SOL    HW154372   1.762   2.191   9.134 -0.4791 -1.4121  0.6105
15838SOL    HW254373   1.789   2.138   8.995 -0.3576 -0.7385  0.3703
15839SOL     OW54374  12.464  11.989  10.834  0.1242  0.3345  0.3859
15839SOL    HW154375  12.482  11.971  10.927 -0.3035  1.8099  0.7836
15839SOL    HW254376  12.395  12.056  10.836  0.4856  0.7697 -0.9941
15840SOL     OW54377   0.936   8.011   3.362 -0.0785  0.6073  0.0425
15840SOL    HW154378   0.874   8.084   3.361  1.1499  1.6886  0.5178
15840SOL    HW254379   1.019   8.049   3.332  0.8732 -0.3040  1.3857
15841SOL     OW54380  10.543   9.012   1.315  0.0656 -0.0717 -0.2253
15841SOL    HW154381  10.564   8.920   1.331 -1.9190 -0.5029  0.1669
15841SOL    HW254382  10.505   9.042   1.398 -2.0273  0.2306 -1.2351
15842SOL     OW54383   3.616  12.449   9.380 -0.3138  0.1142 -0.6655
15842SOL    HW154384   3.555  12.383   9.348 -0.5734  0.4001 -0.7679
15842SOL    HW254385   3.560  12.519   9.415 -0.0435  0.2252 -0.4475
15843SOL     OW54386  10.531   3.463   0.026  0.5280  0.5922  0.7536
15843SOL    HW154387  10.608   3.443  -0.027 -1.0942 -0.2978 -1.4139
15843SOL    HW254388  10.529   3.393   0.092  1.1377  0.1816  0.3478
15844SOL     OW54389   6.634   3.079   3.722 -0.1196 -0.0122 -0.0342
15844SOL    HW154390   6.678   3.087   3.806 -0.5305 -1.5443  0.3598
15844SOL    HW254391   6.676   3.145   3.666  1.9285 -0.6625  0.6465
15845SOL     OW54392   6.500   5.109   1.619  0.5014 -0.1509 -0.0735
15845SOL    HW154393   6.530   5.023   1.650  1.4085 -0.2140 -1.0590
15845SOL    HW254394   6.506   5.103   1.524  0.9601  1.1480 -0.1399
15846SOL     OW54395  11.775   4.238   3.030  0.1720 -0.2041 -0.2335
15846SOL    HW154396  11.781   4.168   3.096  0.8321 -0.6497 -0.7586
15846SOL    HW254397  11.757   4.192   2.948 -0.4598  0.3358 -0.4023
15847SOL     OW54398  11.053   0.268   3.686 -0.2658  0.3664  0.1800
15847SOL    HW154399  11.100   0.295   3.608 -0.1134  1.8206  0.7514
15847SOL    HW254400  11.044   0.348   3.739 -1.4734 -0.3096  1.0702
15848SOL     OW54401   5.977   8.230   6.169  0.1672 -0.0013 -0.0446
15848SOL    HW154402   5.949   8.302   6.225 -4.0190 -1.1089 -0.3513
15848SOL    HW254403   6.010   8.273   6.090 -0.1539  1.5796  0.6322
15849SOL     OW54404   3.141   2.409  11.287  0.5780 -0.1056 -0.5805
15849SOL    HW154405   3.144   2.434  11.195  0.2935 -1.0987 -0.8712
15849SOL    HW254406   3.050   2.424  11.313 -0.0729 -2.4540 -1.2588
15850SOL     OW54407   3.854   2.474   0.066  0.2783  0.7045 -0.1503
15850SOL    HW154408   3.786   2.421   0.025  0.9762 -0.4155  0.1157
15850SOL    HW254409   3.875   2.429   0.148  2.7884 -0.1488 -1.1792
15851SOL     OW54410   1.301   7.201   6.515 -0.2755 -0.1783 -1.0261
15851SOL    HW154411   1.216   7.244   6.500 -0.9557 -0.8469  0.6137
15851SOL    HW254412   1.354   7.268   6.558 -0.4747 -0.1961 -0.7480
15852SOL     OW54413   0.659   6.251   8.812 -0.1260  0.3364 -0.4559
15852SOL    HW154414   0.618   6.227   8.896  1.1839 -0.2442  0.0480
15852SOL    HW254415   0.608   6.325   8.781 -1.2696 -0.0793  0.3579
15853SOL     OW54416   6.090  11.935   1.484  0.3450  0.4289  0.0065
15853SOL    HW154417   6.032  11.882   1.539 -1.1473  1.3727 -0.6010
15853SOL    HW254418   6.075  11.904   1.395 -0.6593  1.9062 -0.3782
15854SOL     OW54419   8.101   8.637   2.946 -0.2259 -0.0420 -0.7840
15854SOL    HW154420   8.123   8.579   3.019  0.3217 -0.7904 -1.5274
15854SOL    HW254421   8.020   8.680   2.974  0.8414  0.9264  0.9580
15855SOL     OW54422  11.013   8.683   5.922  0.1838 -0.1119  0.6025
15855SOL    HW154423  10.976   8.671   6.009  1.2782 -0.4234  1.0451
15855SOL    HW254424  11.103   8.651   5.930  0.4444  0.2997 -0.5181
15856SOL     OW54425  10.149   3.712   8.166 -0.1815 -0.6803  0.5648
15856SOL    HW154426  10.186   3.801   8.164  0.2896 -0.8874 -0.2388
15856SOL    HW254427  10.055   3.725   8.159 -0.0072 -0.3103 -1.7244
15857SOL     OW54428   4.155   1.163   5.321 -0.2014  0.3134 -0.1078
15857SOL    HW154429   4.218   1.220   5.365  1.3238  0.1528 -1.9525
15857SOL    HW254430   4.203   1.082   5.305 -1.3134 -0.3153 -0.3677
15858SOL     OW54431   7.366   4.709   5.415  0.0934 -0.6034  0.1293
15858SOL    HW154432   7.411   4.644   5.363 -2.0255 -2.1965  0.1418
15858SOL    HW254433   7.430   4.779   5.429  1.1244 -0.6577 -3.5505
15859SOL     OW54434   3.990   6.322   8.075  0.1005  0.6435  0.5128
15859SOL    HW154435   3.946   6.387   8.020 -0.3519 -0.8552 -0.9566
15859SOL    HW254436   4.084   6.338   8.060 -0.0096  0.8594  0.0560
15860SOL     OW54437   4.084  10.109  12.336  0.0289  0.3095  0.8681
15860SOL    HW154438   4.114  10.054  12.264 -3.6842  0.0707 -0.7256
15860SOL    HW254439   4.099  10.199  12.306  1.8321  0.2602  1.4821
15861SOL     OW54440   1.123   9.249   7.921  0.3775 -0.6597 -0.2424
15861SOL    HW154441   1.139   9.306   7.995 -0.5962 -0.7348  0.0311
15861SOL    HW254442   1.033   9.218   7.932 -0.0846 -0.0403 -1.8704
15862SOL     OW54443   4.831  11.986  11.365  0.0043  0.1087  0.3788
15862SOL    HW154444   4.891  12.011  11.294 -1.1170  0.6938 -0.3973
15862SOL    HW254445   4.886  11.938  11.427  1.3525  0.9489 -0.1172
15863SOL     OW54446   4.626   4.689   7.201 -0.5754  0.0604 -0.5857
15863SOL    HW154447   4.648   4.597   7.214  1.3873  0.6580  0.8962
15863SOL    HW254448   4.669   4.734   7.274 -1.7367  2.1213 -1.1024
15864SOL     OW54449   0.084   8.414   1.006 -0.1167 -0.6070  0.4311
15864SOL    HW154450   0.082   8.428   0.912 -0.2886  1.2923  0.6802
15864SOL    HW254451  -0.009   8.411   1.031 -0.1759 -3.5932  0.2895
15865SOL     OW54452   8.774   8.536   1.262  0.2450  0.4523 -0.1036
15865SOL    HW154453   8.684   8.529   1.231  0.0423  0.5122  0.4698
15865SOL    HW254454   8.781   8.625   1.297  0.3524  0.2473  0.3986
15866SOL     OW54455   4.933   3.774   8.088  0.4231  0.3452 -0.1350
15866SOL    HW154456   4.866   3.841   8.099  1.0614  0.8926  0.4493
15866SOL    HW254457   4.884   3.695   8.067 -0.2791  1.2549 -2.1603
15867SOL     OW54458   7.846   5.295   5.554  0.0852 -0.5343  0.2129
15867SOL    HW154459   7.891   5.347   5.622 -0.1645 -1.1127  0.8331
15867SOL    HW254460   7.753   5.303   5.576  0.0151 -0.8332  0.0162
15868SOL     OW54461   5.869   0.589   7.941 -0.4768  0.5585  0.2846
15868SOL    HW154462   5.929   0.514   7.937 -0.0628  0.8994  0.0914
15868SOL    HW254463   5.783   0.549   7.956 -0.7822 -0.2390 -2.8419
15869SOL     OW54464   6.230   1.340   6.548  0.6061  0.4350  0.1616
15869SOL    HW154465   6.236   1.363   6.641 -0.2834 -0.0325  0.3409
15869SOL    HW254466   6.228   1.425   6.503 -1.5602  0.7378  0.7484
15870SOL     OW54467   6.088   7.936  12.028 -0.4102  0.4197  0.0690
15870SOL    HW154468   6.011   7.884  12.005 -0.0710 -0.1220  0.1303
15870SOL    HW254469   6.154   7.910  11.964  0.1759 -0.2179  0.9057
15871SOL     OW54470   2.669   0.687  10.715 -1.1812  0.1527 -0.4987
15871SOL    HW154471   2.625   0.718  10.794 -1.2257 -0.6731 -0.1944
15871SOL    HW254472   2.611   0.620  10.679 -1.5052  1.0128 -1.6280
15872SOL     OW54473   3.336   1.899   7.118 -0.6448 -0.4336  0.1715
15872SOL    HW154474   3.277   1.951   7.172  1.1323  0.6093  1.2236
15872SOL    HW254475   3.349   1.952   7.039 -1.6389 -0.9929 -0.3769
15873SOL     OW54476  10.966   5.441   3.633 -0.3314 -0.3173 -0.5275
15873SOL    HW154477  10.963   5.493   3.553 -0.8109  0.8795  0.2276
15873SOL    HW254478  10.877   5.409   3.644 -0.2501 -0.5379 -0.5242
15874SOL     OW54479   6.115   4.899  10.955  0.4079  0.5940  0.2233
15874SOL    HW154480   6.139   4.982  10.995  0.1107  0.6626  0.2600
15874SOL    HW254481   6.192   4.874  10.903  0.3579  1.0653 -0.0756
15875SOL     OW54482   2.994   3.252  11.836 -0.5727 -0.2683 -0.1583
15875SOL    HW154483   2.939   3.175  11.818  0.9542 -1.0601 -1.7232
15875SOL    HW254484   2.994   3.301  11.754  0.4352  0.1157  0.0632
15876SOL     OW54485   8.421   9.652   6.545 -0.5707  0.1634 -0.4091
15876SOL    HW154486   8.417   9.603   6.627 -1.6188  0.7199 -0.1227
15876SOL    HW254487   8.333   9.646   6.508 -0.1257 -0.0551 -1.4900
15877SOL     OW54488   9.511   6.151   2.174 -0.4891 -0.0449  0.4049
15877SOL    HW154489   9.471   6.077   2.129  1.0751 -0.2297 -0.8045
15877SOL    HW254490   9.456   6.226   2.151 -1.6161 -0.6721  0.9681
15878SOL     OW54491  12.144   6.059   2.994  0.4162  0.1489  0.1176
15878SOL    HW154492  12.052   6.082   3.011  0.4172 -1.4962  2.8709
15878SOL    HW254493  12.192   6.100   3.066  1.5422 -0.8870 -0.0359
15879SOL     OW54494   6.930   5.012  12.268  0.3754 -0.1002 -0.2426
15879SOL    HW154495   6.859   5.040  12.326 -0.0089  2.3150 -1.7449
15879SOL    HW254496   6.925   4.916  12.268 -1.0417 -0.0912  1.8902
15880SOL     OW54497   5.076   0.387   6.396 -1.0557  0.0721 -0.2413
15880SOL    HW154498   5.057   0.389   6.490 -1.5280  1.0916 -0.3376
15880SOL    HW254499   4.998   0.346   6.357 -0.6430 -0.8089 -0.1483
15881SOL     OW54500   2.200   2.582   9.982 -0.0853 -0.1750 -0.0173
15881SOL    HW154501   2.122   2.635  10.000 -0.7049 -0.9100 -0.5127
15881SOL    HW254502   2.168   2.507   9.932  1.1421  0.2581 -1.5508
15882SOL     OW54503   2.811   4.857   5.025  0.0215 -0.2560  0.0122
15882SOL    HW154504   2.819   4.858   4.930 -0.4850 -1.2136 -0.0542
15882SOL    HW254505   2.728   4.812   5.042  0.9127 -1.6522  0.9313
15883SOL     OW54506   1.042   3.939   5.379  0.3925 -0.8392  0.3828
15883SOL    HW154507   1.135   3.930   5.398  0.6985 -0.0477 -0.6282
15883SOL    HW254508   1.036   3.922   5.284 -0.5675 -1.3792  0.5261
15884SOL     OW54509   1.473  12.066  12.158  0.8302 -0.6536 -0.2967
15884SOL    HW154510   1.543  12.087  12.096  0.9627 -1.4394 -0.4227
15884SOL    HW254511   1.494  11.978  12.189  1.8109  0.3728  2.2846
15885SOL     OW54512   7.915   6.944   0.602  0.0572  0.2626 -0.4825
15885SOL    HW154513   7.900   7.030   0.563  0.4804  0.5037 -0.1237
15885SOL    HW254514   7.942   6.889   0.529  2.2926  1.0761 -0.3272
15886SOL     OW54515  11.668   7.828   8.281 -0.4521  0.3992 -0.3218
15886SOL    HW154516  11.662   7.914   8.241 -2.5129 -0.3442 -1.7869
15886SOL    HW254517  11.731   7.780   8.226  0.9996  1.0173  0.7258
15887SOL     OW54518  11.597   4.211   7.211 -0.0960  0.2090  0.0344
15887SOL    HW154519  11.605   4.171   7.298  0.3064  0.3352  0.0549
15887SOL    HW254520  11.682   4.250   7.194  0.1736 -0.7365 -0.8847
15888SOL     OW54521   6.548   9.691   3.054 -0.0441 -0.0667 -0.3027
15888SOL    HW154522   6.549   9.786   3.065 -1.3836 -0.1608  0.8242
15888SOL    HW254523   6.484   9.675   2.985  0.2644 -0.1642 -0.5734
15889SOL     OW54524  10.840   8.706   4.338 -0.6085 -0.3180  0.8060
15889SOL    HW154525  10.883   8.636   4.387  2.2408 -0.1366 -1.2272
15889SOL    HW254526  10.811   8.664   4.257 -1.8298  0.2027  0.9552
15890SOL     OW54527  10.295   5.902   8.137 -0.1112 -0.3980  0.2394
15890SOL    HW154528  10.255   5.906   8.224  0.8859 -2.0607  0.8215
15890SOL    HW254529  10.330   5.990   8.123  1.0501 -0.4758  2.2053
15891SOL     OW54530  11.129  11.781   9.507  0.4824  0.1410  0.0859
15891SOL    HW154531  11.217  11.788   9.470  0.5521  0.5779  0.3322
15891SOL    HW254532  11.088  11.709   9.458  1.1457 -0.4035  0.3237
15892SOL     OW54533  11.022   1.493   7.824 -0.2979 -0.0334  0.3193
15892SOL    HW154534  10.928   1.485   7.842 -1.0255 -0.6647 -2.9959
15892SOL    HW254535  11.049   1.405   7.799  1.5395 -0.1138  2.2514
15893SOL     OW54536   2.584   4.784  12.010  0.2086  0.9013 -0.1417
15893SOL    HW154537   2.515   4.751  12.067  0.4438 -0.0762 -0.3999
15893SOL    HW254538   2.612   4.866  12.050 -0.9460  1.1963  0.0821
15894SOL     OW54539   1.179   5.196   7.772  0.0647 -0.0367  0.1251
15894SOL    HW154540   1.127   5.260   7.821  2.3763  1.2470  1.0730
15894SOL    HW254541   1.232   5.249   7.712 -0.7290 -1.4006 -1.9154
15895SOL     OW54542   2.602   2.438   8.304  0.1437  0.4765 -0.5086
15895SOL    HW154543   2.676   2.473   8.354  0.9537  0.3179 -1.5509
15895SOL    HW254544   2.524   2.467   8.352  0.8579  1.4893  0.0761
15896SOL     OW54545   9.809   3.745   3.024 -0.0200  0.0218 -0.7193
15896SOL    HW154546   9.807   3.796   3.105  0.4640  0.0310 -0.7120
15896SOL    HW254547   9.839   3.658   3.050 -1.2994 -0.4213 -0.6569
15897SOL     OW54548   3.816   9.476   1.579 -0.3876  0.2259  0.4990
15897SOL    HW154549   3.788   9.505   1.666 -0.0539  1.9775  0.0616
15897SOL    HW254550   3.785   9.544   1.520  3.9460  2.0149 -0.1177
15898SOL     OW54551  10.948   0.108  11.865  0.1458 -0.1587 -0.3265
15898SOL    HW154552  10.873   0.090  11.921 -0.6826  3.6044  0.0207
15898SOL    HW254553  11.018   0.131  11.926 -0.0597  1.6087 -0.7157
15899SOL     OW54554   5.508   1.371   9.053 -0.7103  0.3624  0.4490
15899SOL    HW154555   5.598   1.379   9.023 -1.2492  0.5049 -1.2559
15899SOL    HW254556   5.503   1.428   9.129  0.5479  0.6461  0.3410
15900SOL     OW54557  10.912   7.822   4.778 -0.4350  0.5171  0.5597
15900SOL    HW154558  10.979   7.853   4.718 -1.9020  0.5263 -1.1726
15900SOL    HW254559  10.928   7.728   4.785 -0.7236  0.3685 -0.5375
15901SOL     OW54560   8.437   4.395   2.596  0.3393 -0.3594  0.3168
15901SOL    HW154561   8.404   4.354   2.516 -0.7091  0.0693  0.5088
15901SOL    HW254562   8.360   4.437   2.635  0.8780 -0.3593  1.4296
15902SOL     OW54563  12.572   3.061   8.565 -0.3427 -0.4900  0.6477
15902SOL    HW154564  12.641   3.055   8.631 -0.9969  1.8257  1.6595
15902SOL    HW254565  12.611   3.111   8.493 -0.5678 -0.2848  0.6662
15903SOL     OW54566   7.973   5.446  11.386 -0.0287 -0.9259 -0.1887
15903SOL    HW154567   7.964   5.376  11.450 -1.5053  1.4141  2.3710
15903SOL    HW254568   8.012   5.518  11.435 -2.6572  1.5111 -1.4004
15904SOL     OW54569   2.497   4.479   0.462 -0.4030  0.7632 -0.0196
15904SOL    HW154570   2.462   4.458   0.549  1.2991  0.7139  0.6926
15904SOL    HW254571   2.569   4.417   0.450  0.9504  2.3460 -0.4052
15905SOL     OW54572   1.178   2.022   2.462  0.0518 -0.0203 -0.5054
15905SOL    HW154573   1.105   2.004   2.521 -0.8420  0.7363 -1.3577
15905SOL    HW254574   1.229   1.940   2.462 -0.6623 -0.4848  0.2564
15906SOL     OW54575  10.943   9.881   9.128 -0.0364 -0.0173 -0.6238
15906SOL    HW154576  10.973   9.878   9.219  2.3160 -0.0244 -1.3462
15906SOL    HW254577  10.982   9.960   9.092 -1.3172  0.2325 -1.5451
15907SOL     OW54578   8.187  10.829   1.446 -0.3187 -0.1332  0.2166
15907SOL    HW154579   8.237  10.884   1.506 -0.7311  0.3232  0.1390
15907SOL    HW254580   8.132  10.775   1.503 -0.3667 -0.0308  0.2676
15908SOL     OW54581   9.365  10.452   6.671 -0.3849  0.3925 -0.1099
15908SOL    HW154582   9.459  10.442   6.683 -0.3033  1.2090 -0.0285
15908SOL    HW254583   9.353  10.458   6.576 -0.5974 -1.8797 -0.2749
15909SOL     OW54584   7.641   9.578   5.033 -0.0683 -1.0961 -0.2496
15909SOL    HW154585   7.586   9.603   4.958  0.7044 -0.2755 -0.5568
15909SOL    HW254586   7.595   9.504   5.072 -2.1697  0.3968  0.3356
15910SOL     OW54587   9.002  10.094   1.615 -0.0787 -0.0677  0.3120
15910SOL    HW154588   8.941  10.044   1.560 -0.0305 -1.9528  1.8824
15910SOL    HW254589   8.946  10.152   1.667 -0.5113 -1.2852  1.2382
15911SOL     OW54590   6.592   6.451   2.587 -0.0929 -0.0547 -0.3909
15911SOL    HW154591   6.662   6.391   2.614  0.2785  0.5481  0.0123
15911SOL    HW254592   6.637   6.536   2.576 -0.9996  0.6690  1.2266
15912SOL     OW54593   9.716   3.080  10.139 -0.0757 -0.0148  0.4468
15912SOL    HW154594   9.628   3.108  10.164 -0.1130  1.0510 -0.7625
15912SOL    HW254595   9.767   3.161  10.135  1.4907 -0.7871  2.9576
15913SOL     OW54596   1.071   8.072   6.933 -0.9868  0.3372  0.8145
15913SOL    HW154597   1.034   8.014   6.866 -1.9894 -1.0521  2.5147
15913SOL    HW254598   1.166   8.060   6.925 -0.9757  1.3030 -1.2674
15914SOL     OW54599   4.426   9.971   1.844  0.2758  0.1595  1.2921
15914SOL    HW154600   4.336   9.941   1.848 -0.4224  1.5925 -1.2940
15914SOL    HW254601   4.451   9.960   1.752  1.9470  1.8937  1.4661
15915SOL     OW54602   5.741  11.700   6.000 -0.3645  0.0310 -0.4848
15915SOL    HW154603   5.767  11.757   6.072  0.2540 -1.1344  0.2466
15915SOL    HW254604   5.667  11.649   6.034  0.6696 -1.3509 -0.2350
15916SOL     OW54605   4.193   4.527   2.623 -0.6087  0.1921 -0.5786
15916SOL    HW154606   4.142   4.606   2.606 -0.0135  0.7467  0.1905
15916SOL    HW254607   4.269   4.534   2.564 -0.9071 -0.1508 -1.0103
15917SOL     OW54608   2.439   8.255   6.347  0.1841 -0.1463 -0.1209
15917SOL    HW154609   2.395   8.172   6.364  0.1489 -0.1816 -0.3797
15917SOL    HW254610   2.510   8.258   6.411  0.1423 -0.3416 -0.0634
15918SOL     OW54611   8.249   6.027  11.789  0.2027  0.3250 -0.4396
15918SOL    HW154612   8.268   6.117  11.816  0.9439 -0.0332  0.2795
15918SOL    HW254613   8.312   5.973  11.838 -0.8558 -0.6674 -0.1165
15919SOL     OW54614   8.908  10.323   0.970  0.6199  0.1182 -0.4051
15919SOL    HW154615   8.938  10.286   0.886 -0.8628 -0.4422 -0.7091
15919SOL    HW254616   8.814  10.337   0.958  0.5753  1.0227  0.8212
15920SOL     OW54617   0.971   5.128   1.115 -0.6388 -0.3501 -0.5085
15920SOL    HW154618   1.008   5.045   1.085  1.0922  0.7559 -1.6440
15920SOL    HW254619   0.975   5.185   1.038  0.9157  1.6477  0.9449
15921SOL     OW54620   0.908   5.767   2.747 -0.6164  0.4872 -0.1658
15921SOL    HW154621   0.822   5.799   2.775 -0.4602  1.6243 -0.9382
15921SOL    HW254622   0.963   5.772   2.825 -1.2904 -0.4716  0.3952
15922SOL     OW54623   3.122   1.695   8.637 -0.2235  0.3593  0.0409
15922SOL    HW154624   3.175   1.738   8.705 -1.2308  1.0512  0.4135
15922SOL    HW254625   3.185   1.670   8.569  1.0800 -1.8603  1.9247
15923SOL     OW54626   1.860   6.870   7.267 -0.4525  0.1805 -0.5475
15923SOL    HW154627   1.792   6.829   7.321  1.2504 -1.5402  0.4138
15923SOL    HW254628   1.813   6.900   7.189 -2.2486 -1.4026 -0.1669
15924SOL     OW54629   2.239   6.091   1.856 -0.1288  0.4230  0.8262
15924SOL    HW154630   2.213   6.008   1.817  0.2843 -0.7871  2.9608
15924SOL    HW254631   2.166   6.150   1.836 -0.4350 -0.4384 -0.7287
15925SOL     OW54632   5.457   4.084   0.532 -0.6955 -0.7765 -0.0040
15925SOL    HW154633   5.414   4.021   0.473 -1.0125 -0.9622  0.4229
15925SOL    HW254634   5.540   4.042   0.556 -0.4446 -0.5875 -0.5175
15926SOL     OW54635   4.755   6.407   9.114 -0.5490 -0.2170 -0.3869
15926SOL    HW154636   4.797   6.492   9.103 -0.5022 -0.0651  0.8511
15926SOL    HW254637   4.781   6.378   9.202 -0.6553 -1.4547 -0.7396
15927SOL     OW54638   8.656   4.101   6.936 -0.6625  0.0441  0.1669
15927SOL    HW154639   8.639   4.190   6.968  0.8866 -0.2749  2.1033
15927SOL    HW254640   8.751   4.093   6.939 -0.7865 -1.7229  0.1510
15928SOL     OW54641   7.756   7.671  10.822 -0.1105 -0.1152 -0.4640
15928SOL    HW154642   7.834   7.688  10.770 -0.0811  2.2319  0.2060
15928SOL    HW254643   7.788   7.626  10.900  0.1852 -1.3729 -1.2793
15929SOL     OW54644   3.174  10.467   7.387  0.5346  0.1182  0.7187
15929SOL    HW154645   3.195  10.538   7.448  1.6664  1.0101 -0.6375
15929SOL    HW254646   3.080  10.457   7.394  0.6258  0.1411  2.6428
15930SOL     OW54647   8.069   3.264   2.605 -0.2045  0.6573 -0.4171
15930SOL    HW154648   8.160   3.234   2.600 -0.4297 -0.6145  1.7338
15930SOL    HW254649   8.024   3.213   2.537  0.6293  1.2048 -1.4146
15931SOL     OW54650   9.563   6.016   6.750  0.4493 -0.4022  0.8784
15931SOL    HW154651   9.588   6.074   6.821  0.1426 -0.2565  0.8718
15931SOL    HW254652   9.633   6.025   6.686 -0.0865  0.7754  0.4080
15932SOL     OW54653  12.418  10.505   1.951  0.4993  0.5981  0.3728
15932SOL    HW154654  12.424  10.474   1.861  0.5585  1.0037  0.2323
15932SOL    HW254655  12.431  10.600   1.944 -0.1414  0.7176  0.7388
15933SOL     OW54656   4.549   7.567  12.246  0.3402  0.3463 -0.1778
15933SOL    HW154657   4.561   7.661  12.255  2.0010  0.1917 -0.4288
15933SOL    HW254658   4.493   7.542  12.320 -0.9196  1.6405 -0.6565
15934SOL     OW54659   8.964   8.075  10.465 -0.4219 -0.2580  0.1236
15934SOL    HW154660   8.988   8.123  10.544  0.1130 -2.1784  1.2065
15934SOL    HW254661   8.950   7.985  10.495 -2.5856 -0.5858 -1.5825
15935SOL     OW54662   2.711   0.080   3.736  0.2306  0.0087 -0.4540
15935SOL    HW154663   2.797   0.116   3.756  0.0803  1.0934 -1.6312
15935SOL    HW254664   2.649   0.148   3.762 -0.2182 -0.3959 -0.4378
15936SOL     OW54665   9.341   0.309   9.448 -0.7366 -0.2705  0.0835
15936SOL    HW154666   9.349   0.390   9.499 -1.4808 -0.1795  0.0635
15936SOL    HW254667   9.421   0.260   9.468  0.4308  1.0997 -1.0434
15937SOL     OW54668   9.674   0.117   8.922  0.1307 -0.4864  0.0497
15937SOL    HW154669   9.629   0.098   8.840  1.1751  0.2050 -0.7053
15937SOL    HW254670   9.614   0.086   8.990 -0.6703 -1.2271 -0.9718
15938SOL     OW54671   4.951   2.565  12.257  0.1317 -0.4788  0.1422
15938SOL    HW154672   4.984   2.577  12.346 -1.5828 -2.1884  1.0910
15938SOL    HW254673   4.867   2.610  12.256  0.3470 -0.0814 -0.7718
15939SOL     OW54674   7.089   2.895   7.763  0.2711  0.0758 -0.3169
15939SOL    HW154675   7.179   2.870   7.780  0.1135 -0.2758  0.0201
15939SOL    HW254676   7.076   2.877   7.670  0.2962 -0.6807 -0.1765
15940SOL     OW54677   4.551   3.377   9.093  0.4500 -0.3505  0.3192
15940SOL    HW154678   4.608   3.345   9.022  0.2620 -1.7167  0.7703
15940SOL    HW254679   4.597   3.352   9.173 -0.5440 -1.0564  0.6842
15941SOL     OW54680   7.937   7.054  11.537 -0.1557 -0.6343  0.7021
15941SOL    HW154681   8.005   7.110  11.575 -0.5497 -0.5360  1.2893
15941SOL    HW254682   7.859   7.109  11.538 -0.1913 -0.6710 -0.1770
15942SOL     OW54683  11.123   9.378  11.576 -0.0861  0.0712  0.1096
15942SOL    HW154684  11.070   9.305  11.546  0.5512 -0.1896 -0.4144
15942SOL    HW254685  11.167   9.345  11.654 -0.4608  0.1880  0.3717
15943SOL     OW54686   5.726  12.510   6.806  0.6643  0.0218  0.1292
15943SOL    HW154687   5.794  12.517   6.739  0.6220 -1.6932 -0.1261
15943SOL    HW254688   5.660  12.453   6.767 -0.6984  1.2216  0.5844
15944SOL     OW54689  11.588   3.105   8.414  0.1934 -0.3177  0.2283
15944SOL    HW154690  11.594   3.159   8.336  0.3088  1.2051  1.2355
15944SOL    HW254691  11.675   3.111   8.454 -0.1004 -0.3453  0.8999
15945SOL     OW54692   6.415  11.373   6.486 -0.2232 -0.4517  0.1096
15945SOL    HW154693   6.418  11.378   6.581  0.4343 -0.7212  0.1110
15945SOL    HW254694   6.324  11.354   6.465 -0.5698  0.5452  0.6331
15946SOL     OW54695   5.863  12.503  12.407  0.1432  0.0951 -0.3898
15946SOL    HW154696   5.806  12.444  12.457 -0.0142  0.4360 -0.1683
15946SOL    HW254697   5.855  12.473  12.316 -0.5913  0.3062 -0.3965
15947SOL     OW54698   8.359   5.574   6.883  0.2524  0.0732  0.5063
15947SOL    HW154699   8.298   5.566   6.957  1.1177  1.2735  1.4018
15947SOL    HW254700   8.310   5.623   6.817 -0.3034 -0.4152  0.5534
15948SOL     OW54701   7.818   4.798   3.820 -0.2259  0.0367 -1.1758
15948SOL    HW154702   7.777   4.852   3.888  1.3047 -0.4761  0.2264
15948SOL    HW254703   7.912   4.806   3.836  0.1201 -1.1087 -2.4492
15949SOL     OW54704   2.612   0.510   6.746  0.1300  0.0197  0.7730
15949SOL    HW154705   2.577   0.574   6.684 -1.3966 -1.9229 -0.4855
15949SOL    HW254706   2.538   0.486   6.801  0.9610  0.1275  1.9863
15950SOL     OW54707  10.456   8.257   4.902  0.0659  0.9229  0.3555
15950SOL    HW154708  10.367   8.280   4.929  0.5982 -0.2324  3.4233
15950SOL    HW254709  10.469   8.168   4.936  2.3867  1.0571 -0.0593
15951SOL     OW54710   2.415   5.245   6.208 -0.2540  0.8147  0.3127
15951SOL    HW154711   2.359   5.276   6.279  0.3951 -1.4738  1.9522
15951SOL    HW254712   2.501   5.282   6.227  0.2524 -0.9167  1.6113
15952SOL     OW54713  11.504   1.494  12.347 -0.0781 -0.7116  0.5848
15952SOL    HW154714  11.590   1.462  12.320 -0.1001  0.1827 -0.6588
15952SOL    HW254715  11.497   1.580  12.305 -1.4182 -0.6022  0.9952
15953SOL     OW54716   4.844   9.383  11.909 -0.5097 -0.4852  0.3901
15953SOL    HW154717   4.771   9.384  11.971  0.5080  0.5606  1.6242
15953SOL    HW254718   4.914   9.430  11.954 -0.6726  3.1376 -2.7354
15954SOL     OW54719   7.689   2.465   2.121  0.0999  0.6140 -0.3024
15954SOL    HW154720   7.652   2.377   2.129  0.1118  0.6420  0.0784
15954SOL    HW254721   7.781   2.456   2.145 -0.1789  0.9462  0.9731
15955SOL     OW54722   5.957  11.914   4.670  0.6161  0.6468 -0.2460
15955SOL    HW154723   5.874  11.894   4.713  0.4296  0.9969 -0.4391
15955SOL    HW254724   5.988  11.993   4.714  0.5829  0.8221 -0.5376
15956SOL     OW54725   1.067   7.476   7.476 -0.0413 -0.3490 -0.1205
15956SOL    HW154726   1.062   7.463   7.571 -0.5514 -2.0842 -0.3543
15956SOL    HW254727   1.019   7.557   7.461  0.5399  0.2706  1.1518
15957SOL     OW54728   9.566   5.443   6.037  1.0579  0.3220  0.5803
15957SOL    HW154729   9.657   5.419   6.054  1.5816  2.7292  1.4734
15957SOL    HW254730   9.552   5.523   6.087 -2.1943 -1.0324  2.1309
15958SOL     OW54731   6.815   9.234   0.262 -0.8116  0.4171 -0.4420
15958SOL    HW154732   6.752   9.166   0.240  0.3300 -1.2978  1.3061
15958SOL    HW254733   6.900   9.197   0.238 -0.1050  0.9131  1.1287
15959SOL     OW54734   1.713   0.866   1.924  0.3214 -0.6367  0.3025
15959SOL    HW154735   1.659   0.827   1.855 -1.0198 -0.8892  1.4370
15959SOL    HW254736   1.660   0.858   2.003  1.1624  1.0422  1.0935
15960SOL     OW54737  10.941   8.279   0.764 -0.3998 -0.3246 -0.2520
15960SOL    HW154738  10.970   8.224   0.691 -1.1634 -0.6870 -0.2829
15960SOL    HW254739  10.897   8.219   0.824 -1.3547  0.2628 -0.3496
15961SOL     OW54740  10.620   3.490   9.913 -0.8272 -0.0441 -0.3575
15961SOL    HW154741  10.561   3.444   9.972 -1.9308 -0.9983 -2.1341
15961SOL    HW254742  10.571   3.499   9.832  0.4867  1.6080 -1.0275
15962SOL     OW54743   5.194  11.096   0.889 -0.1709 -0.2924  0.4984
15962SOL    HW154744   5.258  11.033   0.857  0.7327 -0.5754  2.6609
15962SOL    HW254745   5.246  11.164   0.932 -1.2071  1.0911 -0.3391
15963SOL     OW54746   2.255   2.863   2.524  0.4880 -0.1393  0.4908
15963SOL    HW154747   2.239   2.786   2.579  0.7028  0.0857  0.8718
15963SOL    HW254748   2.168   2.886   2.491  0.0185  0.9120  2.3368
15964SOL     OW54749   7.007   5.707   0.824  0.1794 -0.3749 -0.4068
15964SOL    HW154750   7.093   5.733   0.791 -0.8108  1.0866 -1.9795
15964SOL    HW254751   6.958   5.678   0.747 -0.9786 -0.4901  0.3414
15965SOL     OW54752   2.728   2.204   2.818 -0.4912 -0.2048 -0.4309
15965SOL    HW154753   2.810   2.192   2.769 -0.6855  0.7016 -0.9868
15965SOL    HW254754   2.661   2.166   2.762 -0.7375  0.9862 -0.9631
15966SOL     OW54755   6.668   7.926  12.371  0.3875  0.0847 -0.0176
15966SOL    HW154756   6.744   7.939  12.427  1.3903 -0.0995 -1.2974
15966SOL    HW254757   6.704   7.896  12.288 -1.1354 -0.6783 -0.4371
15967SOL     OW54758   5.420   8.261   1.866  0.0072 -0.8877  0.7380
15967SOL    HW154759   5.340   8.253   1.917 -0.9909 -0.9635 -0.7841
15967SOL    HW254760   5.484   8.296   1.928 -1.8327  1.6114  1.4147
15968SOL     OW54761   7.037   2.035   2.968  0.1220  0.1677  0.4214
15968SOL    HW154762   6.954   1.998   2.936 -0.0837  1.7772 -1.1064
15968SOL    HW254763   7.013   2.083   3.047 -0.7841  1.8407 -0.7785
15969SOL     OW54764  10.564  12.084   0.094 -0.7636 -0.2578 -0.2590
15969SOL    HW154765  10.514  12.003   0.106 -0.0316 -1.1490 -2.6855
15969SOL    HW254766  10.574  12.093  -0.001  0.4493  1.9139 -0.0028
15970SOL     OW54767   5.223   8.629   8.942 -0.3884  0.3820  0.2872
15970SOL    HW154768   5.236   8.613   8.848  2.5542  2.6968  0.1639
15970SOL    HW254769   5.158   8.699   8.945 -0.5517  0.2471  0.0110
15971SOL     OW54770  11.746   9.266   6.838 -0.0009  0.2541  0.1763
15971SOL    HW154771  11.807   9.334   6.868 -0.8276  0.9109  0.4312
15971SOL    HW254772  11.712   9.228   6.919 -0.0030 -0.0463  0.0352
15972SOL     OW54773   3.225  12.321  10.998  0.6835 -1.5777  0.1164
15972SOL    HW154774   3.297  12.384  10.990 -2.2944  2.0989 -0.5054
15972SOL    HW254775   3.195  12.330  11.088 -2.1812  1.0886 -0.9305
15973SOL     OW54776  12.331   6.975   8.617 -0.2083  0.3439  0.2078
15973SOL    HW154777  12.379   7.048   8.655 -0.6844 -0.1278  1.8191
15973SOL    HW254778  12.377   6.956   8.535 -0.7331  3.1306 -0.8556
15974SOL     OW54779   6.272  12.500   5.895 -0.0114 -0.0001 -0.1384
15974SOL    HW154780   6.204  12.444   5.858 -1.6755  1.7432  0.1316
15974SOL    HW254781   6.235  12.534   5.976  2.1518 -0.8531  1.3012
15975SOL     OW54782   7.791   0.545   2.717  0.5298  0.2592  0.3670
15975SOL    HW154783   7.774   0.613   2.782 -1.7552 -0.5646  0.7266
15975SOL    HW254784   7.713   0.543   2.662  0.9046 -1.4607 -0.1818
15976SOL     OW54785   4.471   3.769   3.071 -0.4798 -0.2122  0.5710
15976SOL    HW154786   4.430   3.832   3.131 -0.6540  0.2681 -0.0280
15976SOL    HW254787   4.397   3.729   3.025 -0.4573 -1.8988  1.9161
15977SOL     OW54788   7.036   6.267   7.944  0.2023 -0.0085  0.2023
15977SOL    HW154789   7.021   6.176   7.917  2.0359 -0.1903 -0.3510
15977SOL    HW254790   7.016   6.268   8.038  0.5393 -1.0901  0.2991
15978SOL     OW54791   3.771   4.589   6.830 -0.2112 -0.2592  0.4755
15978SOL    HW154792   3.846   4.648   6.840  0.0743 -0.6885  0.8994
15978SOL    HW254793   3.696   4.639   6.864  0.2244 -0.5612  1.9604
15979SOL     OW54794   9.180   5.360  12.129  0.5779 -0.1025  0.3048
15979SOL    HW154795   9.204   5.331  12.217  0.0040  0.0231  0.5057
15979SOL    HW254796   9.235   5.307  12.071  0.8012 -0.3432  0.7268
15980SOL     OW54797  12.055   4.674   8.025  0.4248 -0.6777  0.1418
15980SOL    HW154798  11.980   4.734   8.019  0.1634 -0.9015  0.9382
15980SOL    HW254799  12.089   4.687   8.114  0.3183 -1.7386  0.3591
15981SOL     OW54800   9.324   4.020   8.434 -0.2475  0.1575  0.3443
15981SOL    HW154801   9.262   4.085   8.464 -1.3243  0.1503 -1.7180
15981SOL    HW254802   9.270   3.949   8.399  0.8469  0.1488 -1.5044
15982SOL     OW54803   3.700   7.852  11.147 -0.7020 -0.0226  0.1311
15982SOL    HW154804   3.625   7.813  11.102  0.2269 -0.5315 -1.0528
15982SOL    HW254805   3.775   7.829  11.092  0.3404  0.3831  1.3344
15983SOL     OW54806   4.793   6.769   8.438  0.1551 -0.1141 -0.5565
15983SOL    HW154807   4.795   6.679   8.408  1.7788 -0.4715  0.5180
15983SOL    HW254808   4.884   6.790   8.458 -0.1375  1.8803 -1.1143
15984SOL     OW54809   2.133   1.916   3.611  0.4905  0.2712  0.2755
15984SOL    HW154810   2.111   1.953   3.526  1.1678 -0.7045 -0.3460
15984SOL    HW254811   2.051   1.879   3.643  0.4550 -0.3199 -0.4645
15985SOL     OW54812  12.338   0.048   3.945  0.4991 -0.1324 -0.6510
15985SOL    HW154813  12.387   0.038   4.026 -0.6081  2.4832  0.4410
15985SOL    HW254814  12.330  -0.041   3.911  0.1387 -1.4701  2.6026
15986SOL     OW54815   7.175   4.344  12.373  0.2167  0.0125  0.1168
15986SOL    HW154816   7.137   4.281  12.312  0.1751 -0.8118  0.9858
15986SOL    HW254817   7.129   4.330  12.455 -1.3562  2.6759 -0.1995
15987SOL     OW54818   1.326   1.602   9.599 -0.0224  0.0756  0.4999
15987SOL    HW154819   1.298   1.517   9.636 -0.7969  0.8984  1.9112
15987SOL    HW254820   1.402   1.581   9.546 -0.7012 -1.6332  0.1383
15988SOL     OW54821   6.811   1.056  11.324  0.1895  0.1220  0.1455
15988SOL    HW154822   6.830   1.131  11.381 -0.2799  0.6622 -0.3898
15988SOL    HW254823   6.894   1.008  11.319  0.5811  0.7724  0.2621
15989SOL     OW54824   1.320   9.297  11.304  0.5762 -0.0940  0.0500
15989SOL    HW154825   1.354   9.345  11.379 -1.9628  1.6300  0.1902
15989SOL    HW254826   1.313   9.362  11.235 -1.2106 -0.6402 -0.3237
15990SOL     OW54827   4.076   9.066  12.046  0.6997 -0.2333 -0.1634
15990SOL    HW154828   4.145   9.027  12.099  0.2180 -0.3848  0.3579
15990SOL    HW254829   4.021   9.114  12.108 -0.6030 -1.4593 -0.3305
15991SOL     OW54830   3.436   5.247   3.594  0.3451  0.1806  0.1359
15991SOL    HW154831   3.525   5.245   3.560  0.7325 -2.5798  1.0349
15991SOL    HW254832   3.439   5.308   3.668  0.9673  1.5332 -0.9628
15992SOL     OW54833  12.215   6.724   4.587  0.2183  0.3631  0.1808
15992SOL    HW154834  12.181   6.638   4.610  0.8028 -0.2296 -1.1024
15992SOL    HW254835  12.275   6.708   4.514 -0.9706  2.0376 -1.2507
15993SOL     OW54836   9.376  11.428   1.807  0.0049  0.7251  0.0331
15993SOL    HW154837   9.408  11.487   1.875 -2.0172  1.6152  0.2911
15993SOL    HW254838   9.358  11.346   1.853 -0.7411  1.1195  0.4638
15994SOL     OW54839  11.864   0.270   9.354 -0.3355 -0.6959 -0.0692
15994SOL    HW154840  11.776   0.266   9.390 -0.5712 -1.0020 -0.6735
15994SOL    HW254841  11.852   0.263   9.259  0.3449 -0.8468 -0.1498
15995SOL     OW54842  10.973  11.929  10.784 -0.0847  0.2659  0.3916
15995SOL    HW154843  10.932  12.010  10.752 -0.6888 -0.4250 -0.6415
15995SOL    HW254844  11.057  11.925  10.738 -0.8308 -0.5838 -0.9660
15996SOL     OW54845   1.614  10.838   0.926 -0.0325  0.3134 -0.3199
15996SOL    HW154846   1.634  10.819   0.834 -1.8244 -0.3695 -0.6147
15996SOL    HW254847   1.664  10.774   0.975  0.4756  0.2936 -0.8508
15997SOL     OW54848   2.319   5.259   9.461 -0.1381  0.2932 -0.0561
15997SOL    HW154849   2.225   5.260   9.480 -0.5790 -0.5483 -1.9611
15997SOL    HW254850   2.339   5.349   9.435 -0.5788  0.3014 -0.3729
15998SOL     OW54851   7.317   6.795   5.384 -0.0426 -0.4206 -0.4932
15998SOL    HW154852   7.240   6.748   5.416 -0.0516 -0.5204 -0.6608
15998SOL    HW254853   7.334   6.860   5.452 -0.5232 -0.1266 -0.6464
15999SOL     OW54854   0.635   3.229   4.415  0.0785  0.5426  0.4130
15999SOL    HW154855   0.602   3.210   4.327  0.1688 -2.3598  0.8849
15999SOL    HW254856   0.730   3.220   4.408  0.1809  1.4069  0.6014
16000SOL     OW54857   9.453   7.096  10.209 -0.2616  0.0141  0.1999
16000SOL    HW154858   9.358   7.087  10.206 -0.1670 -2.6204  1.9283
16000SOL    HW254859   9.478   7.061  10.295  2.3250  0.2000 -0.3902
16001SOL     OW54860  11.145   2.091   8.457  0.5277 -0.0204 -0.2310
16001SOL    HW154861  11.213   2.118   8.519  1.0274 -0.2614 -0.6667
16001SOL    HW254862  11.135   2.166   8.398  0.3634  0.0432 -0.1221
16002SOL     OW54863   6.139   3.966   3.968 -0.1879  0.7231 -0.1908
16002SOL    HW154864   6.220   3.934   3.927  0.3886 -0.9414  2.0181
16002SOL    HW254865   6.081   3.891   3.969 -0.4009  0.8635  1.3811
16003SOL     OW54866   0.657   9.659  11.138 -0.2904 -0.6208 -0.3043
16003SOL    HW154867   0.597   9.589  11.110  0.0115 -0.1743 -2.2438
16003SOL    HW254868   0.744   9.625  11.117 -0.1707  0.5197 -1.8809
16004SOL     OW54869   6.715   4.349   6.273 -0.2713  0.6604  0.2411
16004SOL    HW154870   6.767   4.331   6.195 -3.3894  1.7294 -2.2877
16004SOL    HW254871   6.733   4.441   6.293  0.4196  0.4254  0.7386
16005SOL     OW54872  10.217   8.103   3.534 -0.0038 -0.3390 -0.4234
16005SOL    HW154873  10.306   8.068   3.527 -0.1401 -0.7011 -0.3554
16005SOL    HW254874  10.228   8.189   3.575  0.2442 -0.6928  0.2544
16006SOL     OW54875   7.049   7.014   0.442  0.0941  0.5400 -0.6043
16006SOL    HW154876   7.042   6.930   0.487  0.4926 -0.3422 -2.1139
16006SOL    HW254877   7.034   7.080   0.510  2.1115 -0.6797  1.1063
16007SOL     OW54878   0.061   3.100  10.856  0.3073 -0.6158  0.2714
16007SOL    HW154879   0.097   3.023  10.812 -0.0042  0.7847 -2.6265
16007SOL    HW254880   0.126   3.168  10.843 -0.1652  0.0622  1.3406
16008SOL     OW54881   3.016   2.133   5.526  0.0406  0.6053  0.2905
16008SOL    HW154882   2.926   2.131   5.492 -0.3813 -0.6691  1.3917
16008SOL    HW254883   3.016   2.204   5.590 -0.2799  0.4226  0.4977
16009SOL     OW54884   6.743   3.832   7.539  0.8090  0.2226  0.3293
16009SOL    HW154885   6.671   3.894   7.539  0.6300  0.0314 -0.5306
16009SOL    HW254886   6.738   3.789   7.624 -1.3852 -1.2536 -0.4622
16010SOL     OW54887   7.730   7.595  11.774 -0.8732 -0.0275  0.0178
16010SOL    HW154888   7.711   7.679  11.732 -0.7674  0.6072  1.1924
16010SOL    HW254889   7.726   7.531  11.703 -1.6109  0.8791 -0.7910
16011SOL     OW54890   6.344  11.144  12.491 -0.1915  0.2747 -0.2192
16011SOL    HW154891   6.389  11.080  12.546 -0.4588 -0.1456 -0.4823
16011SOL    HW254892   6.295  11.091  12.428  0.0594  0.7472 -0.8202
16012SOL     OW54893   3.901  10.971   3.897  0.7175  0.2571 -0.1730
16012SOL    HW154894   3.808  10.992   3.908  0.9125  0.6258  0.8724
16012SOL    HW254895   3.904  10.921   3.816 -0.6795 -1.4212  0.7336
16013SOL     OW54896   9.674   4.928   6.471 -0.4672  0.0183 -0.0357
16013SOL    HW154897   9.686   5.001   6.533  0.1377 -0.7644  0.7912
16013SOL    HW254898   9.758   4.920   6.426 -0.5816 -0.0773 -0.2344
16014SOL     OW54899   0.970   5.624   1.946 -0.3892  0.4411  0.6450
16014SOL    HW154900   0.917   5.545   1.942 -0.2149  0.3768 -0.9452
16014SOL    HW254901   1.027   5.619   1.869  2.6282  0.0589  2.7037
16015SOL     OW54902   3.149   4.463   8.512  0.0749  0.3180 -0.4429
16015SOL    HW154903   3.081   4.509   8.463  0.3480  0.3081 -0.8343
16015SOL    HW254904   3.101   4.418   8.582 -0.2590  0.7338 -0.3982
16016SOL     OW54905   1.058  11.785  12.094 -0.3788 -0.2446  0.2096
16016SOL    HW154906   1.125  11.829  12.042 -1.4575  0.7250 -0.4081
16016SOL    HW254907   1.098  11.776  12.181  1.2814 -1.4875 -0.6130
16017SOL     OW54908   1.389   1.061   9.204  0.6994  0.4911  0.0247
16017SOL    HW154909   1.429   1.015   9.130 -0.4710 -1.9094  0.7716
16017SOL    HW254910   1.314   1.106   9.166  0.4146 -0.2871 -0.3596
16018SOL     OW54911  12.295   0.906   9.101 -0.0669  0.5370 -0.0311
16018SOL    HW154912  12.268   0.886   9.190 -0.4866 -2.0752 -0.6730
16018SOL    HW254913  12.215   0.897   9.049  0.5481  0.1137 -0.9278
16019SOL     OW54914   4.040   9.914   6.118 -0.1878  0.0141  0.1649
16019SOL    HW154915   3.981   9.960   6.058  1.6347  2.8820  0.3839
16019SOL    HW254916   4.111   9.883   6.062 -0.6930 -1.3183  0.2384
16020SOL     OW54917  10.848   4.654   4.312 -0.1730  1.2769 -0.3894
16020SOL    HW154918  10.840   4.605   4.229  0.0680  0.3043  0.1462
16020SOL    HW254919  10.762   4.646   4.352  0.5403 -0.9188  0.8712
16021SOL     OW54920  11.070   4.099   5.932  0.3316  0.4228 -0.8069
16021SOL    HW154921  11.163   4.124   5.930  0.3947  0.2294 -0.3306
16021SOL    HW254922  11.028   4.158   5.869  0.3684  2.1710  0.7546
16022SOL     OW54923   0.400   3.618   4.829 -0.7872  0.5825  0.1042
16022SOL    HW154924   0.341   3.658   4.892  0.2510  1.0184  0.8243
16022SOL    HW254925   0.453   3.557   4.881  1.6296  2.5874  0.1534
16023SOL     OW54926   5.902  11.495   4.206 -0.4689  0.2969  0.0805
16023SOL    HW154927   5.908  11.534   4.118 -0.3354 -0.7210 -0.3741
16023SOL    HW254928   5.914  11.401   4.191  0.0115  0.1627  1.2496
16024SOL     OW54929   3.899   2.980   6.165  0.2464  0.2082 -0.4200
16024SOL    HW154930   3.993   2.979   6.182  0.1918 -1.4527 -0.0740
16024SOL    HW254931   3.860   2.938   6.242 -0.8515  1.3642 -0.3018
16025SOL     OW54932  10.995   3.136   7.275 -0.3084 -0.3123 -0.0251
16025SOL    HW154933  10.927   3.132   7.342  0.7522 -0.7264  1.0674
16025SOL    HW254934  11.075   3.156   7.324  0.4799 -0.5704 -1.1755
16026SOL     OW54935  11.740   4.873   0.738 -0.6527 -0.7507  0.8469
16026SOL    HW154936  11.767   4.851   0.649  0.1500  0.4742  0.7555
16026SOL    HW254937  11.653   4.912   0.728  0.8861  2.9529 -0.0020
16027SOL     OW54938   2.688   8.874   7.199 -0.0688  0.9138 -0.1973
16027SOL    HW154939   2.766   8.917   7.236  0.5607 -1.9014  2.1671
16027SOL    HW254940   2.616   8.904   7.254  0.4203 -1.0563  1.6710
16028SOL     OW54941   8.964   9.484   2.881 -0.2492  0.2354 -0.8229
16028SOL    HW154942   8.904   9.472   2.955  0.0799 -0.7630 -0.7003
16028SOL    HW254943   9.050   9.496   2.922 -0.2642  1.0317 -1.0136
16029SOL     OW54944  12.200   4.226  10.365 -0.9969 -0.1265 -0.0538
16029SOL    HW154945  12.214   4.171  10.287  3.3441  0.4045  0.1146
16029SOL    HW254946  12.249   4.182  10.434 -0.0992  2.2372  0.9130
16030SOL     OW54947   5.427   4.498   5.926 -0.0692  0.0798  0.1010
16030SOL    HW154948   5.394   4.586   5.944  0.5073  0.2302  0.4410
16030SOL    HW254949   5.437   4.458   6.012 -0.1131 -0.2396 -0.0407
16031SOL     OW54950   7.342   5.194   7.763  0.0968 -0.2907  0.6959
16031SOL    HW154951   7.250   5.170   7.779 -0.2256  0.0657 -0.5027
16031SOL    HW254952   7.383   5.113   7.733  0.2288 -0.5016  1.4415
16032SOL     OW54953   2.582   3.441   6.959  0.4123  0.2232 -0.1056
16032SOL    HW154954   2.558   3.349   6.947  1.2535 -0.2143  1.2277
16032SOL    HW254955   2.676   3.444   6.938  0.2734  0.9042 -0.6758
16033SOL     OW54956   0.620  10.792  11.240  0.4164 -0.3610 -0.2315
16033SOL    HW154957   0.664  10.873  11.263 -0.6704 -0.8182  4.4028
16033SOL    HW254958   0.527  10.813  11.246  0.1161 -1.9330  1.3659
16034SOL     OW54959  10.522   8.232  11.615 -0.2891 -0.0093 -0.8475
16034SOL    HW154960  10.442   8.230  11.669  1.1454 -1.2592  1.3830
16034SOL    HW254961  10.523   8.147  11.572 -0.2142  0.0395 -0.9403
16035SOL     OW54962   5.004   7.121  12.112  0.5510  0.0594 -0.3768
16035SOL    HW154963   4.997   7.142  12.019 -0.3079 -0.9247 -0.5579
16035SOL    HW254964   5.031   7.029  12.115  0.4340  0.0374  0.3366
16036SOL     OW54965   8.503   4.005   5.632 -0.1522 -0.1429  0.2940
16036SOL    HW154966   8.575   3.953   5.668  0.0044 -0.0309  0.1445
16036SOL    HW254967   8.544   4.088   5.605 -0.0558 -0.6428 -1.1868
16037SOL     OW54968   3.039   1.403   8.167  0.2170 -0.1477 -0.3849
16037SOL    HW154969   2.951   1.414   8.203  0.2946 -1.9976  0.5279
16037SOL    HW254970   3.054   1.481   8.114 -1.5687  0.6847  0.2596
16038SOL     OW54971   3.384   2.480   6.869 -0.9732  0.2743 -0.2230
16038SOL    HW154972   3.365   2.567   6.832 -0.9172 -0.0041 -0.9274
16038SOL    HW254973   3.349   2.419   6.804  0.4974 -0.2417 -0.5733
16039SOL     OW54974  12.214   5.293   3.058 -0.0995  0.4636 -0.6894
16039SOL    HW154975  12.180   5.207   3.032  0.8286  0.0705 -0.6347
16039SOL    HW254976  12.204   5.347   2.980 -0.6327  0.2896 -0.7452
16040SOL     OW54977   4.617   1.659   5.434  0.0352 -0.3535  0.1461
16040SOL    HW154978   4.632   1.725   5.366  0.6271  0.7179  1.2867
16040SOL    HW254979   4.621   1.575   5.387  0.2356  0.3669 -1.1701
16041SOL     OW54980   7.778   1.245   5.781 -0.3151 -0.1810 -0.0384
16041SOL    HW154981   7.727   1.285   5.711 -0.9205  0.9640  1.0181
16041SOL    HW254982   7.828   1.317   5.819  0.3586 -0.8679  0.4304
16042SOL     OW54983   8.329   0.981   7.888 -0.4629 -0.0986 -0.2931
16042SOL    HW154984   8.292   0.977   7.800  0.5206 -0.1141 -0.7099
16042SOL    HW254985   8.399   0.917   7.888 -0.8597 -0.5468  0.7066
16043SOL     OW54986   9.898  12.355   0.125 -0.1422  0.0033  0.6385
16043SOL    HW154987   9.826  12.292   0.131 -0.0150 -0.1114  1.0007
16043SOL    HW254988   9.856  12.440   0.144 -0.5488  0.2101 -1.0468
16044SOL     OW54989   7.110   4.427   4.139 -0.0240  0.1452 -0.2231
16044SOL    HW154990   7.077   4.386   4.219 -1.2943  2.0433  0.2821
16044SOL    HW254991   7.205   4.423   4.148 -0.0509 -2.5730 -0.2053
16045SOL     OW54992   0.405   0.738   9.493  0.0035 -0.3171 -0.3935
16045SOL    HW154993   0.313   0.744   9.468  0.5124  0.8665 -2.1592
16045SOL    HW254994   0.444   0.821   9.465  1.6316 -0.8143  0.2525
16046SOL     OW54995   7.178   1.355   1.066  0.1647 -0.5403  0.4919
16046SOL    HW154996   7.162   1.434   1.014 -0.6278 -0.4037  0.9370
16046SOL    HW254997   7.093   1.311   1.069  0.3762 -0.9115  1.0732
16047SOL     OW54998   7.576  10.275   7.568 -0.9462 -0.2940 -0.1442
16047SOL    HW154999   7.662  10.237   7.586 -0.7689  0.2289  0.1338
16047SOL    HW255000   7.525  10.203   7.530 -1.1194 -1.2863  1.8436
16048SOL     OW55001   5.655  11.607   2.200 -0.4019  0.6992 -0.1093
16048SOL    HW155002   5.749  11.620   2.215 -0.4120  0.6197  0.0209
16048SOL    HW255003   5.641  11.514   2.216 -0.3579  0.5488 -0.8912
16049SOL     OW55004   5.534   1.585   2.343  0.0374  0.3305  0.0685
16049SOL    HW155005   5.549   1.491   2.334  2.7220  0.7691 -0.9319
16049SOL    HW255006   5.515   1.598   2.436  0.1526 -1.1382  0.3175
16050SOL     OW55007  12.253   9.523   9.600  0.1541  1.1789  0.6657
16050SOL    HW155008  12.184   9.560   9.655  0.3427  1.8185  0.4883
16050SOL    HW255009  12.208   9.499   9.519  0.1006  1.4295  0.6182
16051SOL     OW55010   1.480   3.010   9.958 -0.0607 -0.3688 -0.0626
16051SOL    HW155011   1.523   3.089   9.925  0.0595 -1.2557 -2.1912
16051SOL    HW255012   1.395   3.041   9.989 -0.3261  0.5183 -1.5660
16052SOL     OW55013   6.560   8.615   5.777  0.2365 -0.0354  0.1913
16052SOL    HW155014   6.519   8.649   5.856  0.9197 -0.1454  0.6005
16052SOL    HW255015   6.575   8.522   5.796  0.2304 -0.1029 -0.1341
16053SOL     OW55016   2.933   0.404   0.484 -0.6835  0.5478  0.0163
16053SOL    HW155017   2.964   0.492   0.503 -1.3869  1.0370 -1.0103
16053SOL    HW255018   2.860   0.417   0.423 -1.2516 -0.7001  0.3926
16054SOL     OW55019   9.669   4.003   9.589  0.6328 -0.2730  0.3365
16054SOL    HW155020   9.721   4.038   9.516  1.4750  0.3759  1.2270
16054SOL    HW255021   9.596   4.063   9.598  1.1513  0.3039  0.7566
16055SOL     OW55022   0.791   0.571   1.652  0.0443 -0.3175  0.4701
16055SOL    HW155023   0.754   0.606   1.571 -1.3806  3.3438  2.4849
16055SOL    HW255024   0.881   0.549   1.630 -0.4636  0.0028 -2.2257
16056SOL     OW55025  11.757   0.940   3.111  0.5534  0.8507 -0.0880
16056SOL    HW155026  11.710   0.872   3.063  0.0951  1.0278  0.1032
16056SOL    HW255027  11.740   0.922   3.203  2.0950  0.0315  0.0766
16057SOL     OW55028  12.287  11.928  11.437  1.3689 -0.3943  0.1118
16057SOL    HW155029  12.298  12.008  11.385 -0.1212 -0.7832 -0.8796
16057SOL    HW255030  12.371  11.915  11.479  2.0518  0.9839 -0.7403
16058SOL     OW55031   6.747   9.350   1.392 -0.1989 -0.2003 -0.1096
16058SOL    HW155032   6.840   9.373   1.384 -0.7566  1.6713 -2.0447
16058SOL    HW255033   6.726   9.309   1.308 -1.1697 -0.5142  0.2719
16059SOL     OW55034   2.989   3.157   2.836  0.5877  0.2744  0.3412
16059SOL    HW155035   3.016   3.203   2.915  2.4470 -1.0453  0.5330
16059SOL    HW255036   3.069   3.118   2.801 -0.4181 -0.3822 -1.4153
16060SOL     OW55037   4.846   0.320   3.308  0.3852  0.2395  0.5669
16060SOL    HW155038   4.809   0.239   3.342  0.8314  0.7571  2.3496
16060SOL    HW255039   4.935   0.297   3.282  0.5894  0.2072  1.2918
16061SOL     OW55040   9.394   0.583  11.070 -0.0817  0.4022  0.5789
16061SOL    HW155041   9.461   0.521  11.097 -0.4503  0.3164  1.3362
16061SOL    HW255042   9.405   0.591  10.975 -0.2256 -1.0499  0.4199
16062SOL     OW55043  11.567   5.552   5.700 -0.2774 -0.0822  0.5868
16062SOL    HW155044  11.564   5.499   5.620 -1.7723 -0.8790  1.1430
16062SOL    HW255045  11.646   5.522   5.745  0.4884  0.2506 -0.4679
16063SOL     OW55046   9.887   1.161  12.503  0.3916  0.4525 -0.7400
16063SOL    HW155047   9.926   1.243  12.533  2.5395 -0.6991 -0.1487
16063SOL    HW255048   9.939   1.093  12.546 -1.7579 -1.2474 -0.6452
16064SOL     OW55049   4.855  11.908   4.641 -0.2163  0.3909  0.5775
16064SOL    HW155050   4.828  11.838   4.701 -1.1595  0.3297  0.1015
16064SOL    HW255051   4.943  11.883   4.613 -0.5585 -0.6413  0.3767
16065SOL     OW55052  10.033   0.464   3.463 -0.0625 -0.0844 -0.7268
16065SOL    HW155053   9.947   0.439   3.497  0.2084  0.1658  0.1675
16065SOL    HW255054  10.095   0.421   3.521  0.4201 -0.3556 -1.4383
16066SOL     OW55055   7.817   9.492   9.476  0.2056  0.1963 -0.0899
16066SOL    HW155056   7.729   9.497   9.512 -0.1139  0.1779 -0.8529
16066SOL    HW255057   7.830   9.400   9.455  0.2069  0.2777 -0.4582
16067SOL     OW55058   0.741   0.696  11.801  0.3292 -0.4019  0.0015
16067SOL    HW155059   0.763   0.618  11.751  0.2558  0.2659 -1.1154
16067SOL    HW255060   0.763   0.769  11.743  1.8167  0.4864  1.5541
16068SOL     OW55061   8.662   2.889   5.714  0.3091  0.0078  0.3516
16068SOL    HW155062   8.744   2.843   5.730 -0.4350 -1.3978  0.2519
16068SOL    HW255063   8.626   2.849   5.634  0.1561  1.5241 -0.3922
16069SOL     OW55064   1.394   8.284   2.520 -0.9515 -0.0994 -0.0494
16069SOL    HW155065   1.441   8.224   2.462  0.6372 -0.2286  1.2854
16069SOL    HW255066   1.330   8.229   2.565 -0.1940 -0.6293  0.4197
16070SOL     OW55067  12.327   8.391   4.049  0.1265 -0.1067 -0.3825
16070SOL    HW155068  12.282   8.470   4.079  0.6068 -0.1662  0.5424
16070SOL    HW255069  12.387   8.421   3.981  1.0073  0.5094  0.6305
16071SOL     OW55070   2.712   0.450   0.305  0.1741  0.4039  0.7320
16071SOL    HW155071   2.770   0.481   0.235 -0.2763 -0.3033  0.0322
16071SOL    HW255072   2.628   0.436   0.262  0.5932 -2.8457  0.7164
16072SOL     OW55073  10.478   7.358   2.695 -0.1253 -0.2849 -0.6655
16072SOL    HW155074  10.502   7.289   2.758  1.0897  0.6712 -0.0366
16072SOL    HW255075  10.432   7.312   2.625 -0.4946 -1.5430  0.3765
16073SOL     OW55076   8.502  12.267  11.007 -0.2183 -0.0665  0.4104
16073SOL    HW155077   8.575  12.216  10.971 -0.2622  1.1911 -1.6541
16073SOL    HW255078   8.432  12.258  10.942 -0.8044  1.2233  0.8343
16074SOL     OW55079   1.115   6.992   9.577  0.1232 -0.0799  0.2902
16074SOL    HW155080   1.037   7.008   9.525 -0.2898  0.6772  1.1040
16074SOL    HW255081   1.182   7.048   9.537  0.3719 -1.0074 -0.6358
16075SOL     OW55082   7.126   7.787   2.681 -0.1919 -0.0846 -0.0911
16075SOL    HW155083   7.064   7.731   2.635 -0.0966 -1.4506  1.3638
16075SOL    HW255084   7.102   7.779   2.773  1.5473  0.0990  0.4110
16076SOL     OW55085   7.792  11.129   9.388  0.0202 -0.5409 -0.2692
16076SOL    HW155086   7.760  11.109   9.476  1.2764  0.3738  0.4412
16076SOL    HW255087   7.719  11.110   9.330 -1.3233  0.1786  1.1218
16077SOL     OW55088  10.354   1.257   1.682  0.1835  0.2503 -0.2443
16077SOL    HW155089  10.312   1.285   1.600  2.0914 -1.3466 -1.8642
16077SOL    HW255090  10.293   1.285   1.750 -0.4935  3.6226 -1.9937
16078SOL     OW55091   7.602   0.651   5.490  0.4037  0.2542  0.0813
16078SOL    HW155092   7.623   0.732   5.445 -1.6021  1.5444  1.2951
16078SOL    HW255093   7.572   0.679   5.577  1.1258 -1.9097  1.1065
16079SOL     OW55094   2.133   2.509  11.173 -0.2256 -0.2686 -0.5923
16079SOL    HW155095   2.081   2.527  11.251 -0.4217 -0.9892 -0.5535
16079SOL    HW255096   2.151   2.596  11.136 -0.7522  0.0352 -0.1524
16080SOL     OW55097  11.237   8.918   8.860  0.4536  0.1417 -0.0410
16080SOL    HW155098  11.315   8.868   8.837  0.9198  0.8026  0.0457
16080SOL    HW255099  11.178   8.855   8.901  1.6411 -0.0516  1.4753
16081SOL     OW55100   7.831   5.983  10.187 -0.1193  0.1315 -0.1716
16081SOL    HW155101   7.805   5.915  10.126 -0.8453 -0.4031  0.7039
16081SOL    HW255102   7.826   6.064  10.137 -0.0615 -0.3636 -0.9894
16082SOL     OW55103   6.965   5.628   1.085  0.3991 -0.4516  0.4453
16082SOL    HW155104   7.025   5.554   1.094 -1.6927 -2.4698 -1.1782
16082SOL    HW255105   6.974   5.656   0.994 -1.6771 -1.4025 -0.1138
16083SOL     OW55106   1.227   3.063  10.074 -0.6500  0.4383  0.0720
16083SOL    HW155107   1.139   3.058  10.036 -0.6694  0.3646  0.1271
16083SOL    HW255108   1.232   3.151  10.112 -0.4372  0.7135 -0.5775
16084SOL     OW55109   2.005   0.699   8.545  0.2915  0.0037  0.5609
16084SOL    HW155110   1.928   0.673   8.596  0.6590 -1.5912  0.3492
16084SOL    HW255111   2.075   0.641   8.575  0.7936 -0.2419 -0.9881
16085SOL     OW55112   5.921   6.241   5.445  0.3489  0.0764 -0.0470
16085SOL    HW155113   5.890   6.332   5.446  1.4628  0.4736  1.1810
16085SOL    HW255114   5.878   6.200   5.519 -0.0034 -0.3548 -0.4870
16086SOL     OW55115   8.589   5.824   4.506  0.3973  0.6051 -0.5503
16086SOL    HW155116   8.510   5.773   4.523  0.1748  0.7870 -1.0136
16086SOL    HW255117   8.657   5.758   4.491  0.5738  0.4393  0.8459
16087SOL     OW55118   1.224   1.516   0.760 -0.0916 -0.2047 -0.1146
16087SOL    HW155119   1.291   1.458   0.796  0.2245  0.2118 -0.0100
16087SOL    HW255120   1.170   1.460   0.705  0.7852 -0.4193 -0.7899
16088SOL     OW55121   4.903   9.651   0.929  0.0949  0.0994  0.0865
16088SOL    HW155122   4.922   9.736   0.968 -0.4187  0.8227 -1.1606
16088SOL    HW255123   4.988   9.608   0.919  0.4052  0.6686  0.2906
16089SOL     OW55124   8.103  12.264   2.567  0.4223  0.0889 -0.4155
16089SOL    HW155125   8.084  12.274   2.661 -0.2745  0.7813 -0.6322
16089SOL    HW255126   8.053  12.186   2.541 -0.0491  0.3837 -0.3980
16090SOL     OW55127   1.783  10.372  12.063 -0.0161 -0.1162  0.3069
16090SOL    HW155128   1.712  10.348  12.122  0.4644  0.8093  1.2971
16090SOL    HW255129   1.829  10.290  12.045 -0.8346 -0.5824  0.3216
16091SOL     OW55130   3.351   8.303   2.044  0.0146 -0.2832  0.1015
16091SOL    HW155131   3.265   8.315   2.086 -0.4332  0.5970 -0.9987
16091SOL    HW255132   3.407   8.367   2.087 -0.2016 -0.0186 -0.0052
16092SOL     OW55133   8.421   1.920  12.176  0.4955 -0.1276 -0.1207
16092SOL    HW155134   8.482   1.978  12.130  0.2355  1.2365  1.1963
16092SOL    HW255135   8.448   1.924  12.268 -0.3436 -1.0809  0.1896
16093SOL     OW55136   9.260  12.300   1.042  0.0135  0.2759  0.4721
16093SOL    HW155137   9.252  12.289   0.947  0.8569  0.7438  0.3400
16093SOL    HW255138   9.170  12.313   1.072 -0.0416  3.0967 -0.6388
16094SOL     OW55139   9.760  10.782   4.497 -0.6331  0.1672  0.3557
16094SOL    HW155140   9.697  10.716   4.526 -1.6357  0.9611  0.0321
16094SOL    HW255141   9.723  10.818   4.416 -0.6523  1.8520  1.0642
16095SOL     OW55142   5.163   1.131   3.308 -0.0977 -0.4505 -0.0205
16095SOL    HW155143   5.109   1.148   3.231 -1.6638 -0.1820  1.0895
16095SOL    HW255144   5.114   1.067   3.359  0.7252 -0.3552  0.9372
16096SOL     OW55145   2.097   7.511   0.615  0.4240 -0.3049 -0.1397
16096SOL    HW155146   2.090   7.547   0.527 -1.6645 -0.5616 -0.1338
16096SOL    HW255147   2.121   7.419   0.602  1.8250  0.0669 -0.3328
16097SOL     OW55148  10.564   8.482   8.516 -0.2089  0.3517  0.1156
16097SOL    HW155149  10.559   8.576   8.529 -1.9286  0.3541 -0.3713
16097SOL    HW255150  10.524   8.467   8.430  0.3064 -0.7954  0.0530
16098SOL     OW55151   4.084  10.780  10.645  0.6518  0.3879  0.0822
16098SOL    HW155152   4.011  10.842  10.637  1.9930  1.8870 -1.3924
16098SOL    HW255153   4.151  10.828  10.694  1.2358 -0.3724  0.0471
16099SOL     OW55154   3.252   5.035   0.414 -0.1874  0.1008  0.0011
16099SOL    HW155155   3.315   4.988   0.469  1.0942  1.0535 -0.5853
16099SOL    HW255156   3.189   5.072   0.476  0.4099 -0.0472  0.7058
16100SOL     OW55157   4.744   1.306   0.693 -0.3579 -0.0210  0.3420
16100SOL    HW155158   4.689   1.379   0.721 -0.2161 -0.3415  1.4981
16100SOL    HW255159   4.810   1.347   0.637 -0.4973  0.6922  0.6774
16101SOL     OW55160   8.290   7.055  10.788 -0.2627 -0.6683  0.0770
16101SOL    HW155161   8.292   6.970  10.744 -0.0258 -0.6271  0.0099
16101SOL    HW255162   8.201   7.062  10.822  0.0533 -1.4786  1.1379
16102SOL     OW55163   8.038  12.409  11.088  0.1413 -0.2003 -0.0465
16102SOL    HW155164   8.067  12.402  10.997 -0.7132 -2.5135 -0.2217
16102SOL    HW255165   7.992  12.327  11.104 -5.0696  2.4188  0.6092
16103SOL     OW55166   1.770   8.370  10.022  0.0079 -0.6319  0.5874
16103SOL    HW155167   1.781   8.292  10.077 -0.0911 -0.7392  0.4542
16103SOL    HW255168   1.680   8.364   9.990  0.3947 -1.1229 -0.4400
16104SOL     OW55169  10.291   8.323  10.901 -0.2024  0.3849  0.2604
16104SOL    HW155170  10.253   8.236  10.889  0.5091 -0.1284  1.5095
16104SOL    HW255171  10.218   8.379  10.925 -0.4869 -0.1223  0.5807
16105SOL     OW55172   8.848   8.109   2.177 -0.3461 -0.5882  0.3402
16105SOL    HW155173   8.814   8.197   2.160  0.9349  0.0491  0.9549
16105SOL    HW255174   8.785   8.051   2.135  0.0769  0.6821 -2.2224
16106SOL     OW55175  12.405  11.042   9.082 -0.1514  0.3454  0.0202
16106SOL    HW155176  12.398  11.075   8.993  1.6027 -0.6871 -0.5471
16106SOL    HW255177  12.498  11.022   9.093 -0.4903 -0.4537  1.7508
16107SOL     OW55178  10.028   4.722   1.415 -0.7495  0.0551 -1.2085
16107SOL    HW155179  10.121   4.727   1.436 -1.4681 -1.4178  3.5591
16107SOL    HW255180   9.991   4.803   1.450 -1.4675 -0.1775 -1.4074
16108SOL     OW55181   3.720   5.091   0.272  0.7057  0.1208  0.6712
16108SOL    HW155182   3.720   5.038   0.352  2.4817  0.5659  1.0310
16108SOL    HW255183   3.782   5.162   0.292 -1.1586  2.0183  0.0023
16109SOL     OW55184   5.434   7.432   0.351 -0.3197 -0.2213 -0.3130
16109SOL    HW155185   5.391   7.508   0.311  0.2998 -0.7019 -1.9713
16109SOL    HW255186   5.524   7.435   0.319  0.3498 -0.3818  1.4737
16110SOL     OW55187   1.818   6.413   6.636  0.0371  0.4921  0.2020
16110SOL    HW155188   1.857   6.419   6.723 -1.0591  1.4299  0.6537
16110SOL    HW255189   1.747   6.477   6.637  1.5680  2.3949 -2.2466
16111SOL     OW55190   7.385   8.608   5.189  0.1493 -0.3268 -0.1246
16111SOL    HW155191   7.392   8.592   5.095 -0.7957  2.0107 -0.6538
16111SOL    HW255192   7.461   8.663   5.210  0.0133 -0.3176  0.3643
16112SOL     OW55193   1.898   9.471   7.027  0.2775 -0.4026  0.3812
16112SOL    HW155194   1.824   9.414   7.049  0.2741  0.4935  3.0006
16112SOL    HW255195   1.975   9.415   7.038  0.1050 -0.8043 -0.4129
16113SOL     OW55196   2.370   5.284   8.151  0.0200  0.3007 -0.3069
16113SOL    HW155197   2.323   5.270   8.233  0.7398  1.1503  0.2623
16113SOL    HW255198   2.321   5.233   8.086 -0.7450 -0.1111  0.5811
16114SOL     OW55199  11.797   2.635   6.296  0.0118  0.1700  0.1972
16114SOL    HW155200  11.776   2.716   6.250  0.9642  0.9302  1.0434
16114SOL    HW255201  11.728   2.626   6.361  0.5939  1.0139  0.9539
16115SOL     OW55202   4.138   9.199   3.372 -0.1206  0.0771 -0.5346
16115SOL    HW155203   4.083   9.174   3.297 -1.5615  0.2702  0.4227
16115SOL    HW255204   4.078   9.242   3.432  1.2432  0.9311  0.2571
16116SOL     OW55205   4.523   1.356   3.056 -0.2362 -0.0584  0.0303
16116SOL    HW155206   4.502   1.413   3.130  1.3620  0.2906  0.2356
16116SOL    HW255207   4.488   1.401   2.980  0.5896  0.9672  0.2466
16117SOL     OW55208   6.624   9.509   0.661  0.2228  0.1220 -0.1059
16117SOL    HW155209   6.547   9.483   0.711 -0.5645 -0.5226 -1.5873
16117SOL    HW255210   6.610   9.471   0.574  2.4043 -0.3436 -0.3083
16118SOL     OW55211   8.741  10.084  12.058 -0.1367  0.0431  0.0183
16118SOL    HW155212   8.775  10.041  11.979 -3.2764  0.1831 -1.5676
16118SOL    HW255213   8.744  10.016  12.125 -0.4700 -1.1790 -1.1512
16119SOL     OW55214   3.560   7.216   1.539  0.7375  0.1700  0.1689
16119SOL    HW155215   3.466   7.212   1.523  0.1061 -0.0637  3.2971
16119SOL    HW255216   3.573   7.297   1.588  2.2998  0.4762 -0.6639
16120SOL     OW55217   6.172   6.186   0.875 -0.2190  0.1637  0.4088
16120SOL    HW155218   6.098   6.244   0.858  0.5973  1.1262  0.0065
16120SOL    HW255219   6.236   6.207   0.806  1.1686  0.6531  1.7830
16121SOL     OW55220   1.689   5.200  11.997 -0.0866 -0.2134 -0.0268
16121SOL    HW155221   1.777   5.181  12.030  0.0714  1.1426  0.3913
16121SOL    HW255222   1.702   5.218  11.904  0.1517  0.3842  0.1174
16122SOL     OW55223   7.179   5.407   1.810  0.6992  0.2885  0.1167
16122SOL    HW155224   7.174   5.313   1.790  0.8948  0.2860  0.0843
16122SOL    HW255225   7.090   5.429   1.840 -0.0877  0.6477 -2.3112
16123SOL     OW55226   7.368   4.462  10.851 -0.0962 -0.3422  0.0973
16123SOL    HW155227   7.414   4.382  10.824 -1.5915 -0.9341 -0.7873
16123SOL    HW255228   7.283   4.457  10.808 -0.1152  1.9125 -0.2753
16124SOL     OW55229   4.773   5.483   4.106 -0.3509  0.0304 -0.7999
16124SOL    HW155230   4.771   5.516   4.196 -0.7556 -1.8836 -0.0463
16124SOL    HW255231   4.858   5.439   4.099  0.4577  1.6883 -1.9838
16125SOL     OW55232   6.334   8.846   8.336 -0.2830  0.4235  0.9487
16125SOL    HW155233   6.391   8.853   8.259  0.3343  1.5392  1.4720
16125SOL    HW255234   6.294   8.760   8.328 -0.6546  0.7171 -0.8975
16126SOL     OW55235   1.266   2.462   8.972  0.6843 -0.2746  0.3263
16126SOL    HW155236   1.218   2.381   8.953 -0.0395  0.3929 -0.8000
16126SOL    HW255237   1.355   2.433   8.990  0.5459 -1.2970 -0.5238
16127SOL     OW55238   8.055   6.622  12.183  0.3324  0.1119 -0.1270
16127SOL    HW155239   7.992   6.666  12.125 -1.7888 -0.1592  1.8186
16127SOL    HW255240   8.089   6.692  12.239  0.4674 -0.0022 -0.0655
16128SOL     OW55241   6.397   1.487   2.396  0.4840  0.2385 -0.3921
16128SOL    HW155242   6.368   1.550   2.329  0.4610  0.5158 -0.1243
16128SOL    HW255243   6.421   1.409   2.347 -3.5147 -1.1447 -0.4701
16129SOL     OW55244   8.939   4.857   6.326 -0.1599  0.4150  0.2065
16129SOL    HW155245   9.009   4.853   6.391  1.9564 -0.2933 -1.9845
16129SOL    HW255246   8.945   4.773   6.280 -3.1399 -0.0884  0.5359
16130SOL     OW55247   9.060   9.486   7.986 -0.2320 -0.0064 -0.3712
16130SOL    HW155248   8.990   9.477   8.051  0.7587 -1.4546  0.5578
16130SOL    HW255249   9.100   9.399   7.982  2.0233  0.9655 -0.3013
16131SOL     OW55250   3.244   8.545   5.193 -0.3470 -0.4406  0.3188
16131SOL    HW155251   3.181   8.540   5.121 -0.7707  1.0099  0.5752
16131SOL    HW255252   3.252   8.454   5.223 -2.3681 -0.6503  0.3387
16132SOL     OW55253   3.510   8.049   0.133  0.3681 -0.2292  0.3137
16132SOL    HW155254   3.600   8.081   0.142  0.4260  0.2050 -1.4758
16132SOL    HW255255   3.478   8.090   0.053 -1.2959 -0.7152  0.6878
16133SOL     OW55256  12.378   4.715  10.927 -0.1312 -0.2482  0.3709
16133SOL    HW155257  12.356   4.795  10.975 -2.8479 -1.1992  0.9114
16133SOL    HW255258  12.335   4.725  10.842  1.3624 -0.2395 -0.4095
16134SOL     OW55259   2.475   1.142   1.114 -0.2229  0.3079  0.9622
16134SOL    HW155260   2.506   1.191   1.191  1.4230  0.9953 -0.0775
16134SOL    HW255261   2.417   1.203   1.069 -1.2032 -0.1019  1.6403
16135SOL     OW55262   9.880   6.032   6.334  0.4709  0.2971  0.8213
16135SOL    HW155263   9.897   6.024   6.240  1.1916 -1.1939  1.0463
16135SOL    HW255264   9.809   6.096   6.340  0.9616  1.0333 -0.6750
16136SOL     OW55265   6.154   2.294  10.962  0.2045 -0.0983  0.1748
16136SOL    HW155266   6.187   2.282  11.051 -0.2737 -1.8054  0.1726
16136SOL    HW255267   6.231   2.286  10.906  0.4553  0.6392  0.4063
16137SOL     OW55268   1.499  11.056  11.618  0.0141 -0.1834 -0.0171
16137SOL    HW155269   1.582  11.077  11.575 -1.2409  1.2223 -1.9252
16137SOL    HW255270   1.507  10.964  11.642  1.6490 -0.4226 -1.2843
16138SOL     OW55271   3.032   7.586   1.700 -0.0656 -0.4995  0.1047
16138SOL    HW155272   3.121   7.595   1.667  0.2380 -1.9530  0.4742
16138SOL    HW255273   3.035   7.623   1.789  0.2470 -0.8437  0.2372
16139SOL     OW55274  11.916   9.013   9.392  0.1753 -0.4462 -0.1109
16139SOL    HW155275  11.887   8.968   9.313 -0.8613 -1.1817  0.6650
16139SOL    HW255276  12.011   9.016   9.384  0.3554 -3.2934  0.0476
16140SOL     OW55277   5.309   1.776   1.475  0.3432 -0.1089  0.6763
16140SOL    HW155278   5.238   1.800   1.534  0.5359 -2.2001  1.8571
16140SOL    HW255279   5.350   1.700   1.516 -0.9667 -3.2735 -3.1788
16141SOL     OW55280   7.764  11.211   0.762  0.1380 -0.7350 -0.2388
16141SOL    HW155281   7.710  11.178   0.691  1.8547 -1.3513 -1.3216
16141SOL    HW255282   7.845  11.161   0.756  0.7645 -0.0114  1.4612
16142SOL     OW55283   2.718  11.812   0.997 -0.1064  0.1900  0.6879
16142SOL    HW155284   2.673  11.737   0.960  0.9050  1.3282 -3.3317
16142SOL    HW255285   2.662  11.887   0.974  1.5230  1.1478 -0.3430
16143SOL     OW55286  10.868   9.433   9.322  0.2647  0.1360  0.4971
16143SOL    HW155287  10.824   9.516   9.342  2.4884  1.1725  1.5081
16143SOL    HW255288  10.929   9.456   9.252 -0.9066 -1.3269 -1.0820
16144SOL     OW55289   6.389  11.333  10.269 -0.2604 -0.6296 -0.0718
16144SOL    HW155290   6.384  11.423  10.235 -0.4738  1.1127  3.9910
16144SOL    HW255291   6.482  11.318  10.284 -0.3612  1.3883  4.3649
16145SOL     OW55292   5.571   3.733   7.347  0.1369  0.1874  0.1543
16145SOL    HW155293   5.589   3.667   7.280 -1.1293  1.0486 -1.0809
16145SOL    HW255294   5.625   3.706   7.421  1.0823 -1.1701 -0.9608
16146SOL     OW55295   8.935   8.903  10.375 -0.6429 -0.1603  0.2985
16146SOL    HW155296   8.957   8.811  10.362  0.1789 -0.0916  1.0948
16146SOL    HW255297   8.842   8.903  10.399 -0.7003 -0.7604  0.0900
16147SOL     OW55298   7.092   3.051   5.327 -0.2370 -0.3598  0.4991
16147SOL    HW155299   7.096   3.122   5.263 -2.8147 -0.9625 -0.4648
16147SOL    HW255300   7.054   3.091   5.405 -2.8052 -0.8252 -0.4313
16148SOL     OW55301   8.647   5.296  11.260 -0.5303 -0.1833  0.3825
16148SOL    HW155302   8.575   5.357  11.275 -0.0496  0.2993  0.7776
16148SOL    HW255303   8.724   5.342  11.291  0.3220  0.2689 -2.1479
16149SOL     OW55304   7.396   8.957   3.798 -0.0710 -0.2136  0.2222
16149SOL    HW155305   7.326   9.017   3.823 -1.2331 -0.8065 -1.5038
16149SOL    HW255306   7.428   8.990   3.714 -0.8350 -2.0243 -0.8441
16150SOL     OW55307   4.331   0.490   6.716  0.2797  0.4163 -0.2249
16150SOL    HW155308   4.245   0.499   6.675 -0.0869 -0.7451  0.2584
16150SOL    HW255309   4.368   0.579   6.713 -0.9706  0.9564 -0.3281
16151SOL     OW55310  11.520   8.685  12.267  0.1853 -0.4543  0.6920
16151SOL    HW155311  11.605   8.668  12.225 -1.8082 -1.2038 -3.5866
16151SOL    HW255312  11.501   8.776  12.245 -0.8143 -0.7884  0.1252
16152SOL     OW55313   5.921   2.596  11.872  0.6424 -0.1007  0.1255
16152SOL    HW155314   5.989   2.659  11.896 -0.3460  0.8553  0.5033
16152SOL    HW255315   5.839   2.639  11.895 -0.1858 -0.5655 -1.8116
16153SOL     OW55316   6.608   9.535  10.696 -0.0078  0.4963  0.2280
16153SOL    HW155317   6.571   9.543  10.784 -1.3160  0.7195 -0.3205
16153SOL    HW255318   6.589   9.619  10.654  1.2822  0.6731 -0.0295
16154SOL     OW55319   8.309   1.457   5.262  0.3616 -0.0732  0.0047
16154SOL    HW155320   8.214   1.452   5.276  0.4061  1.4189  0.9753
16154SOL    HW255321   8.318   1.479   5.169 -0.2661  0.5848  0.0945
16155SOL     OW55322  11.346   8.575   3.405  0.3325  0.0268  0.6377
16155SOL    HW155323  11.268   8.523   3.382  1.9130 -2.1063 -0.2166
16155SOL    HW255324  11.327   8.609   3.493 -1.7505  0.0166  0.2519
16156SOL     OW55325   8.425   3.982   4.803 -0.5021  0.3256 -0.0522
16156SOL    HW155326   8.456   3.940   4.723  0.6605  2.8999 -1.0644
16156SOL    HW255327   8.447   3.921   4.873 -0.1858 -1.3250 -1.5428
16157SOL     OW55328   5.729  10.303   2.317 -0.0637 -0.1696  0.2721
16157SOL    HW155329   5.708  10.214   2.345 -2.0307  0.4241  0.8741
16157SOL    HW255330   5.754  10.294   2.225  2.0969 -1.5896  0.9221
16158SOL     OW55331   7.205   8.078   5.501  0.2214  0.3056 -0.6339
16158SOL    HW155332   7.231   7.989   5.477  1.8668  0.9926 -1.5430
16158SOL    HW255333   7.199   8.125   5.418 -1.2712  0.9050 -0.2207
16159SOL     OW55334   2.869   5.261   9.973 -0.4227 -0.1840  0.1936
16159SOL    HW155335   2.843   5.170   9.986 -0.8297  0.0974  1.5318
16159SOL    HW255336   2.925   5.281  10.048 -2.8464  1.5514  1.7024
16160SOL     OW55337   0.256   9.691   4.442 -0.2515  0.2007 -0.1622
16160SOL    HW155338   0.310   9.722   4.369 -1.2263  0.0339 -0.9728
16160SOL    HW255339   0.202   9.622   4.403 -2.4929  1.7239  0.1151
16161SOL     OW55340   5.802   4.519   9.890  0.5071  0.5991 -0.7281
16161SOL    HW155341   5.709   4.521   9.868 -0.1797 -4.1710  0.6463
16161SOL    HW255342   5.813   4.589   9.953 -2.3705  0.8661 -0.3763
16162SOL     OW55343   0.298   3.019   5.139  0.6511 -0.1105  0.0750
16162SOL    HW155344   0.261   2.934   5.162  0.9281 -0.0205  0.8910
16162SOL    HW255345   0.232   3.059   5.083 -0.0442 -0.3706  0.6855
16163SOL     OW55346   7.255   9.708  11.301 -0.4317  0.1269 -0.3187
16163SOL    HW155347   7.179   9.739  11.251 -0.6991  1.2310  0.7280
16163SOL    HW255348   7.285   9.785  11.350 -1.5509 -1.3364  2.9613
16164SOL     OW55349  10.195   6.683   2.554 -0.0246  0.0511  0.6952
16164SOL    HW155350  10.220   6.711   2.466  0.1353 -2.8971 -0.3051
16164SOL    HW255351  10.100   6.697   2.558  0.1187  1.2188  0.5160
16165SOL     OW55352   6.855   4.433   6.930 -0.0578  0.0048  0.1681
16165SOL    HW155353   6.895   4.377   6.864  2.7497  1.0306  0.8515
16165SOL    HW255354   6.804   4.373   6.985  1.9998 -1.7829  0.2567
16166SOL     OW55355   9.581  10.043   9.796  0.3862  0.2355  0.2253
16166SOL    HW155356   9.534   9.962   9.817 -0.9424  1.3389  1.7258
16166SOL    HW255357   9.550  10.066   9.708 -0.0221 -0.3360  0.2087
16167SOL     OW55358  10.429   0.599   1.043 -0.2243  0.0616 -0.7119
16167SOL    HW155359  10.478   0.682   1.041 -1.8847  1.1153  0.2582
16167SOL    HW255360  10.489   0.536   1.083  0.1466  1.4810  1.0871
16168SOL     OW55361   8.856   8.277   3.800  0.2927  0.4352  0.7357
16168SOL    HW155362   8.888   8.244   3.715 -0.9287 -1.6117  1.0056
16168SOL    HW255363   8.871   8.205   3.861 -1.1247  0.9297  1.7173
16169SOL     OW55364  12.316  12.081   7.944 -0.2651  0.2066 -0.1081
16169SOL    HW155365  12.383  12.023   7.907 -1.0633 -1.7245  1.3215
16169SOL    HW255366  12.251  12.088   7.874  0.2479  0.0689 -0.6109
16170SOL     OW55367   4.141   0.095   7.158 -0.3974 -0.1232 -0.2617
16170SOL    HW155368   4.183   0.153   7.094  0.5047  2.5450  2.4718
16170SOL    HW255369   4.212   0.039   7.189 -0.1114  0.5770  0.3937
16171SOL     OW55370   6.538   9.631   2.258 -0.3230 -0.5417  0.0205
16171SOL    HW155371   6.616   9.686   2.248 -0.1050 -0.9282 -0.4293
16171SOL    HW255372   6.473   9.689   2.296 -0.0301 -0.0201 -0.2627
16172SOL     OW55373  10.293   6.163   0.030  0.1789  0.0930 -0.6415
16172SOL    HW155374  10.286   6.257   0.011  1.8803  0.5727  0.8026
16172SOL    HW255375  10.377   6.138  -0.008 -1.2092 -1.4288 -2.9509
16173SOL     OW55376   9.244   8.505   8.412 -0.4617 -0.0907 -0.4905
16173SOL    HW155377   9.167   8.471   8.458 -0.5509  1.5263  0.6254
16173SOL    HW255378   9.241   8.463   8.326 -1.3325 -1.7543  0.3142
16174SOL     OW55379   0.108   8.323   6.646  0.2203  0.2651  0.1548
16174SOL    HW155380   0.137   8.413   6.661  1.1959 -0.1203  0.6988
16174SOL    HW255381   0.180   8.269   6.679 -0.9105 -0.7430  1.0711
16175SOL     OW55382   0.878   9.680  10.413 -0.4294 -0.1991 -0.2521
16175SOL    HW155383   0.848   9.731  10.487 -0.0258 -0.3584  0.0207
16175SOL    HW255384   0.903   9.595  10.450  0.2370 -0.1153 -0.4944
16176SOL     OW55385  11.666   9.426   0.628  0.0766 -0.6151 -0.4044
16176SOL    HW155386  11.692   9.350   0.680  0.5069 -1.8567 -2.3083
16176SOL    HW255387  11.733   9.492   0.646  0.7515 -1.3596 -0.1127
16177SOL     OW55388   3.128   9.916   7.599 -0.6367 -0.1539  0.5215
16177SOL    HW155389   3.099   9.875   7.681  0.9112 -0.3871  0.9950
16177SOL    HW255390   3.177   9.994   7.627 -2.6994  1.5553 -0.3286
16178SOL     OW55391   4.498  10.514   7.239  0.1477  0.9760 -0.1984
16178SOL    HW155392   4.568  10.513   7.304 -0.9824  0.5508  1.0534
16178SOL    HW255393   4.528  10.455   7.170  0.8657  0.5109  0.4985
16179SOL     OW55394  11.273   6.251   3.338 -0.0047 -0.8329  0.6615
16179SOL    HW155395  11.291   6.172   3.286 -0.0222 -0.2053 -0.3440
16179SOL    HW255396  11.202   6.295   3.290  1.1638  0.6477  0.2014
16180SOL     OW55397   2.916   6.605   2.641  0.2915 -0.2886 -0.3845
16180SOL    HW155398   3.006   6.627   2.617  0.3418  0.1769  0.2105
16180SOL    HW255399   2.881   6.561   2.564  0.3900  1.3466 -1.4182
16181SOL     OW55400   1.513   6.762  11.125 -0.2408  0.0668  0.0291
16181SOL    HW155401   1.505   6.836  11.064  1.0697 -0.5597 -0.9452
16181SOL    HW255402   1.442   6.704  11.101 -0.5698  0.4666  0.0184
16182SOL     OW55403   2.686   2.333   2.524  0.1638  0.7799  0.2053
16182SOL    HW155404   2.660   2.414   2.569  0.1641  1.4441 -0.9581
16182SOL    HW255405   2.645   2.339   2.438  1.6619  0.4131 -0.5616
16183SOL     OW55406   5.751  11.852   7.244  0.4334 -0.0525  0.4751
16183SOL    HW155407   5.816  11.922   7.254  0.2259  0.4086 -1.1178
16183SOL    HW255408   5.756  11.829   7.151 -2.3959  0.7020  0.0621
16184SOL     OW55409   0.572   4.049   4.417 -0.7805  0.2905 -0.5999
16184SOL    HW155410   0.668   4.051   4.416 -0.5331  0.6216  3.8627
16184SOL    HW255411   0.549   3.985   4.349  2.1552  3.4743 -5.1591
16185SOL     OW55412   6.213   9.706   7.367 -0.0762 -0.1029  0.5718
16185SOL    HW155413   6.195   9.779   7.309  0.2035  0.2661  0.9441
16185SOL    HW255414   6.184   9.736   7.453 -1.6929 -1.1181  0.4250
16186SOL     OW55415   4.176   8.576   2.695 -0.1469 -0.1370 -0.4101
16186SOL    HW155416   4.214   8.637   2.633  0.9748  0.0027  0.3790
16186SOL    HW255417   4.249   8.521   2.723 -0.6983 -0.4333  0.5067
16187SOL     OW55418   1.392   5.294   5.000 -0.4344  0.4035 -0.3877
16187SOL    HW155419   1.373   5.261   4.911  0.7910 -0.3406 -0.3966
16187SOL    HW255420   1.486   5.281   5.011 -0.8564 -1.3765  1.7672
16188SOL     OW55421   6.235  11.689   5.279  0.0623  0.3121  0.3656
16188SOL    HW155422   6.316  11.655   5.315  0.3941  0.1560 -0.5097
16188SOL    HW255423   6.228  11.650   5.192 -1.0263  0.2006  0.4787
16189SOL     OW55424   6.572  12.017   3.290 -0.5877  0.7218 -0.4118
16189SOL    HW155425   6.578  12.028   3.385 -2.1502  0.8848 -0.2935
16189SOL    HW255426   6.586  11.924   3.275  0.7355  0.8661 -0.1455
16190SOL     OW55427   3.768   0.225   8.547 -0.2899  0.5494 -0.0925
16190SOL    HW155428   3.744   0.294   8.485 -1.6600  2.0305  1.9310
16190SOL    HW255429   3.863   0.221   8.544 -0.3044  0.9083 -1.8914
16191SOL     OW55430   5.118   4.439   2.188 -0.5700  0.0660  0.4821
16191SOL    HW155431   5.160   4.431   2.274 -0.7865 -0.3133  0.5547
16191SOL    HW255432   5.070   4.357   2.177 -1.3071  0.4945  0.4051
16192SOL     OW55433   9.626   4.837   9.865  0.4660  0.1239 -0.1462
16192SOL    HW155434   9.694   4.793   9.815 -0.5827 -0.7972 -0.8074
16192SOL    HW255435   9.549   4.781   9.856 -0.5588  1.4367  0.0885
16193SOL     OW55436   8.875   4.174   2.863  0.3418 -0.1668 -0.9418
16193SOL    HW155437   8.825   4.112   2.916  1.5192 -1.3779 -1.1986
16193SOL    HW255438   8.810   4.238   2.834 -0.4840  0.0631  1.2394
16194SOL     OW55439  10.344   5.765  12.554  0.2015  0.6108  0.1540
16194SOL    HW155440  10.390   5.714  12.488  4.1468  2.2804  1.3306
16194SOL    HW255441  10.329   5.850  12.513  2.0300  1.4191  1.0550
16195SOL     OW55442   3.558   7.840   0.376 -0.0234 -0.0796 -0.8497
16195SOL    HW155443   3.573   7.813   0.285  1.2181 -0.9298 -0.4150
16195SOL    HW255444   3.642   7.825   0.420 -0.9271 -0.7873  0.7123
16196SOL     OW55445   9.443   6.827   5.733  0.0559  0.3789  0.4780
16196SOL    HW155446   9.440   6.772   5.811 -2.9046 -1.3464 -0.6966
16196SOL    HW255447   9.360   6.874   5.734  0.1862  0.7219 -1.3359
16197SOL     OW55448   3.387  10.214  11.124  0.0060  0.5082  0.5087
16197SOL    HW155449   3.480  10.225  11.143  0.6600 -1.5047 -1.1434
16197SOL    HW255450   3.375  10.254  11.039 -0.4564  0.0551  0.3543
16198SOL     OW55451   7.678   8.739   0.924  0.1190  0.2394 -0.1827
16198SOL    HW155452   7.764   8.776   0.941  0.1690 -0.7994  2.1780
16198SOL    HW255453   7.687   8.646   0.945 -1.5377  0.0960  0.0448
16199SOL     OW55454   1.021   6.466   0.118  0.2624 -0.3781 -0.2626
16199SOL    HW155455   1.112   6.454   0.145  0.2987 -0.6218 -0.4904
16199SOL    HW255456   1.001   6.557   0.141  0.4510 -0.4315  0.1139
16200SOL     OW55457   8.175   8.854   1.255 -0.5027 -0.0422  0.1628
16200SOL    HW155458   8.235   8.888   1.322 -1.7021  1.8118  0.3679
16200SOL    HW255459   8.224   8.861   1.173 -0.4471  1.6309  0.2960
16201SOL     OW55460   2.338   9.390  11.432 -0.7579  0.0376  0.5052
16201SOL    HW155461   2.354   9.308  11.479  0.6079 -0.3071 -0.4782
16201SOL    HW255462   2.364   9.371  11.342 -2.9339  0.7865 -0.3415
16202SOL     OW55463   5.858   6.829   3.645 -0.1953  0.0467 -0.5748
16202SOL    HW155464   5.892   6.915   3.620 -1.9252  1.2214  0.8982
16202SOL    HW255465   5.935   6.781   3.675  0.7708  1.1581 -1.1864
16203SOL     OW55466   6.083   5.777  10.173 -0.3960  0.0439  0.4351
16203SOL    HW155467   6.045   5.782  10.261 -2.9873 -1.4339 -0.4794
16203SOL    HW255468   6.121   5.689  10.168  1.0409  0.6365  0.5096
16204SOL     OW55469   7.165   4.037  10.975 -0.0591 -0.1711  0.5472
16204SOL    HW155470   7.180   3.968  11.041  1.7902  0.4215  0.7837
16204SOL    HW255471   7.239   4.096  10.984 -0.4338  0.6348 -1.2215
16205SOL     OW55472   4.329   9.929   3.781 -0.1606  0.0668  0.3209
16205SOL    HW155473   4.267   9.996   3.755 -0.2191 -0.4448 -0.9350
16205SOL    HW255474   4.356   9.953   3.869 -1.0895  1.0581  0.3432
16206SOL     OW55475   2.240   2.394   6.673  0.3010 -0.1854  0.0940
16206SOL    HW155476   2.208   2.441   6.751  0.1055 -0.7949  0.3895
16206SOL    HW255477   2.165   2.394   6.613 -0.1540 -1.2782  0.6336
16207SOL     OW55478   4.514   3.254  10.566  0.1019  0.0325  0.2124
16207SOL    HW155479   4.562   3.233  10.646  2.2880  1.2538 -0.7019
16207SOL    HW255480   4.499   3.349  10.571 -0.3209  0.0144 -0.5250
16208SOL     OW55481   6.066   2.485   4.979  0.0695  0.0359 -0.3935
16208SOL    HW155482   6.038   2.394   4.984  1.0733 -0.2091  2.3977
16208SOL    HW255483   6.132   2.486   4.910  1.3484 -1.7776  0.7142
16209SOL     OW55484   4.823   0.985   6.073 -0.0325 -0.0292 -0.5035
16209SOL    HW155485   4.915   0.986   6.046  0.3254 -0.1582  0.6591
16209SOL    HW255486   4.774   1.003   5.993  0.9152 -1.6520 -1.4994
16210SOL     OW55487   9.399  11.544   4.345 -0.0741 -0.2211  0.3359
16210SOL    HW155488   9.486  11.506   4.353  0.6383  1.2570 -0.1357
16210SOL    HW255489   9.362  11.503   4.267  1.5435  1.5631 -1.5000
16211SOL     OW55490   9.545  10.765   3.365 -0.0369  0.7789  0.5058
16211SOL    HW155491   9.453  10.739   3.373 -0.4782  2.5298  1.9232
16211SOL    HW255492   9.594  10.689   3.395 -1.0690  0.1965  0.7810
16212SOL     OW55493   6.359  11.445   3.095  0.5321  0.1436  0.7731
16212SOL    HW155494   6.405  11.438   3.012  0.9493 -2.1797  1.1192
16212SOL    HW255495   6.270  11.416   3.076  0.6131 -0.3423  1.1136
16213SOL     OW55496   3.459   5.836  10.316 -0.3141 -0.2288  0.0424
16213SOL    HW155497   3.437   5.793  10.398 -0.2958 -0.5393 -0.1127
16213SOL    HW255498   3.505   5.769  10.266  0.4589  0.2275  0.1285
16214SOL     OW55499  10.949   4.658   6.254  0.3151 -0.1707  0.2770
16214SOL    HW155500  10.856   4.683   6.255  0.5626  0.7565  1.0570
16214SOL    HW255501  10.975   4.658   6.346  0.7077 -1.9545  0.1901
16215SOL     OW55502  10.603   8.122   4.533  0.0969  0.1261 -0.0725
16215SOL    HW155503  10.669   8.105   4.600 -0.0850 -0.0657  0.0593
16215SOL    HW255504  10.651   8.121   4.451  0.0498 -1.3582 -0.1052
16216SOL     OW55505  11.935   7.595  10.958 -0.1734  0.1982 -0.5198
16216SOL    HW155506  11.958   7.514  10.912 -1.8550 -0.2224 -0.6883
16216SOL    HW255507  12.010   7.653  10.944  1.6383 -1.7186  0.6396
16217SOL     OW55508   9.212   7.055   8.560 -0.3223 -0.1018 -0.1240
16217SOL    HW155509   9.217   7.108   8.481 -0.2972 -1.3558 -0.9950
16217SOL    HW255510   9.286   6.994   8.553  0.2218  0.3426  1.3171
16218SOL     OW55511   8.153   5.803   4.128 -0.3819 -0.1555  0.1199
16218SOL    HW155512   8.127   5.895   4.123 -0.1290 -0.0463  0.7229
16218SOL    HW255513   8.245   5.803   4.102 -0.6112 -0.3621 -0.7213
16219SOL     OW55514   1.775   7.204   1.127  0.6823 -0.1369 -0.0948
16219SOL    HW155515   1.732   7.226   1.044 -0.2871 -0.2016  0.3869
16219SOL    HW255516   1.856   7.161   1.100 -0.5504 -1.9805 -1.0404
16220SOL     OW55517  12.051   3.127   3.121  0.7710  0.5423  0.4125
16220SOL    HW155518  12.092   3.185   3.185  1.1603  0.3435  0.3478
16220SOL    HW255519  11.958   3.132   3.140  0.9025  0.2758  1.1829
16221SOL     OW55520   8.603   4.119   5.325  0.3264  0.1430  0.3308
16221SOL    HW155521   8.520   4.139   5.282 -0.7295 -2.3413  1.0683
16221SOL    HW255522   8.666   4.111   5.253 -0.8823 -1.4812 -0.6156
16222SOL     OW55523   2.226   1.869   6.161  0.6883 -0.0503 -0.1491
16222SOL    HW155524   2.207   1.802   6.094  0.7573  0.5833 -0.8202
16222SOL    HW255525   2.172   1.943   6.136  1.4470  0.5438 -0.0636
16223SOL     OW55526   6.992  11.831   2.269  0.1227  0.3699  0.3281
16223SOL    HW155527   6.988  11.760   2.204  0.8941 -0.1589  0.8493
16223SOL    HW255528   6.918  11.888   2.246 -0.0796 -0.2178 -0.5381
16224SOL     OW55529   2.731   8.341   4.268 -0.3150  0.4099  0.3988
16224SOL    HW155530   2.670   8.378   4.205  0.2048  0.4697 -0.0804
16224SOL    HW255531   2.714   8.390   4.349  1.1562  2.5923 -0.5036
16225SOL     OW55532   9.408  10.835   3.741 -0.7005  0.4942  0.4982
16225SOL    HW155533   9.377  10.847   3.831  1.0680  0.4581  1.1390
16225SOL    HW255534   9.495  10.875   3.740 -0.8751  0.9043 -1.3296
16226SOL     OW55535   6.248  12.494   9.660  0.0126 -0.1327 -0.0546
16226SOL    HW155536   6.175  12.463   9.606  0.4653 -0.4711 -0.4906
16226SOL    HW255537   6.323  12.442   9.630  0.6499  0.9159 -0.3122
16227SOL     OW55538   7.394  10.159   8.518 -0.2070  0.5138  0.0209
16227SOL    HW155539   7.389  10.148   8.423 -0.0375 -1.3518  0.2081
16227SOL    HW255540   7.487  10.149   8.538 -0.3504  0.1060  0.4837
16228SOL     OW55541   0.680   8.134  12.468 -0.4683 -0.1803 -0.4521
16228SOL    HW155542   0.631   8.098  12.395 -1.0659  1.7418 -1.0522
16228SOL    HW255543   0.698   8.059  12.525 -2.1376 -1.2996 -1.3361
16229SOL     OW55544  11.169   9.310   3.637  0.4762 -0.6148 -0.3738
16229SOL    HW155545  11.168   9.225   3.595  1.6200  0.0387 -1.8121
16229SOL    HW255546  11.106   9.302   3.709 -0.6497 -2.1575 -1.4510
16230SOL     OW55547   8.631   1.483   2.666  0.7658 -0.0343 -0.5558
16230SOL    HW155548   8.537   1.489   2.650  0.2238 -0.0361  2.1390
16230SOL    HW255549   8.659   1.574   2.676  0.6882 -0.0897  0.2635
16231SOL     OW55550   5.695   5.536   3.976 -0.1414  0.5736 -0.1990
16231SOL    HW155551   5.674   5.618   3.931  2.2787  1.8453  0.8158
16231SOL    HW255552   5.714   5.475   3.905  0.5330  1.6320 -0.9647
16232SOL     OW55553   2.764   6.929  12.485  0.0350 -0.2192  0.1945
16232SOL    HW155554   2.815   6.974  12.418  0.3120 -0.6958  0.0801
16232SOL    HW255555   2.829   6.881  12.537 -0.3409 -1.3293 -0.3356
16233SOL     OW55556  12.513   0.386   2.856 -0.2565 -0.3919  0.0724
16233SOL    HW155557  12.422   0.385   2.826  0.1246 -1.7833 -1.1336
16233SOL    HW255558  12.561   0.338   2.789  1.0733 -1.3427  1.6350
16234SOL     OW55559  10.997   0.116   2.580  0.0806 -0.6305 -0.3323
16234SOL    HW155560  11.038   0.156   2.503  1.1504 -0.3296  0.3772
16234SOL    HW255561  10.903   0.128   2.566  0.2242 -1.0596 -1.8480
16235SOL     OW55562   1.574   7.651   9.595  0.4324 -0.2916 -0.1192
16235SOL    HW155563   1.564   7.740   9.627  0.4485  0.5500 -2.2989
16235SOL    HW255564   1.656   7.620   9.634  0.7211  0.8559  0.2107
16236SOL     OW55565   0.458   3.030   2.168 -0.2065  0.7254 -0.5598
16236SOL    HW155566   0.534   2.995   2.214  0.3616  1.0087 -1.2538
16236SOL    HW255567   0.495   3.071   2.089 -1.2283 -0.7886 -1.8950
16237SOL     OW55568   4.751   4.557   2.469 -0.3952 -0.2313  0.1302
16237SOL    HW155569   4.799   4.525   2.546 -0.6961  0.1677  0.4891
16237SOL    HW255570   4.780   4.500   2.398  2.2004  1.2181 -0.1206
16238SOL     OW55571   4.279   4.809   2.318 -0.4136 -0.1375  0.4256
16238SOL    HW155572   4.337   4.831   2.390  1.1790 -1.9537 -0.2093
16238SOL    HW255573   4.261   4.892   2.274  1.3436  0.5417  0.9239
16239SOL     OW55574   4.992   0.206   6.869 -0.0566  0.7564 -0.4994
16239SOL    HW155575   4.952   0.264   6.933 -2.6463 -0.2949 -1.0702
16239SOL    HW255576   4.954   0.120   6.887  0.9881 -0.0584 -1.9512
16240SOL     OW55577   9.886  10.216   7.348  0.1942  0.0059  0.4288
16240SOL    HW155578   9.885  10.143   7.409 -0.2150  0.6176  1.1795
16240SOL    HW255579   9.876  10.294   7.403 -1.5418  0.5070 -0.4840
16241SOL     OW55580   1.133   5.042   3.088  0.5839 -0.4832  0.1136
16241SOL    HW155581   1.157   4.951   3.075 -0.4831 -0.6289 -1.0248
16241SOL    HW255582   1.078   5.064   3.012  1.6027  1.3790 -0.1478
16242SOL     OW55583   1.186   8.717   6.311 -0.0517  0.2053 -0.1963
16242SOL    HW155584   1.203   8.811   6.313 -0.9836  0.3754  0.8262
16242SOL    HW255585   1.174   8.693   6.403  0.1700 -0.9153 -0.4439
16243SOL     OW55586   8.150   2.673  10.007 -0.2182  0.3870 -0.7035
16243SOL    HW155587   8.165   2.618  10.084  0.3734  1.5265  0.0427
16243SOL    HW255588   8.178   2.620   9.933 -0.2141 -0.5144 -0.0749
16244SOL     OW55589  12.511   1.079   3.808  0.3010 -0.3369 -0.2096
16244SOL    HW155590  12.552   1.062   3.723 -0.3007 -0.0261 -0.5658
16244SOL    HW255591  12.585   1.087   3.869  0.9570  2.3347 -1.1967
16245SOL     OW55592   1.402   8.138   9.832 -0.6129 -0.8794  0.9173
16245SOL    HW155593   1.465   8.077   9.794 -1.2070 -1.3760  0.7229
16245SOL    HW255594   1.446   8.224   9.827 -0.1664 -1.1375  0.3167
16246SOL     OW55595   4.498   4.167  11.013 -0.5492 -0.7267 -0.0554
16246SOL    HW155596   4.407   4.145  10.994 -0.3282 -1.1909 -0.6328
16246SOL    HW255597   4.546   4.136  10.936  0.2375 -1.5066  0.7266
16247SOL     OW55598  12.221   0.051   2.243 -0.7619 -0.1511  0.3194
16247SOL    HW155599  12.257  -0.037   2.229 -1.5116 -0.8286  2.3122
16247SOL    HW255600  12.297   0.108   2.245 -0.0212 -1.1442  1.5768
16248SOL     OW55601   3.278  10.044   6.500 -0.3143  0.0419 -0.2678
16248SOL    HW155602   3.352  10.019   6.444 -0.5831 -1.1225 -0.1235
16248SOL    HW255603   3.214  10.081   6.439 -0.2116 -0.3155 -0.5995
16249SOL     OW55604   0.615   9.718   7.349 -0.1141  0.2306 -0.1550
16249SOL    HW155605   0.525   9.711   7.318 -0.3247 -0.5361  0.5938
16249SOL    HW255606   0.666   9.667   7.286 -0.4510 -0.7609  0.3531
16250SOL     OW55607   4.323  11.525   1.523  0.2248  0.0797  0.4850
16250SOL    HW155608   4.288  11.530   1.434 -0.8089  0.9894  0.9286
16250SOL    HW255609   4.344  11.432   1.535  1.2229  0.0644 -1.0091
16251SOL     OW55610  11.554   6.264  11.479  0.2489 -0.3960 -0.4683
16251SOL    HW155611  11.637   6.243  11.437  0.9640  0.0140  0.6788
16251SOL    HW255612  11.528   6.347  11.440  0.5590 -0.3528 -0.5851
16252SOL     OW55613   2.401   0.035  11.589  0.1132 -0.4255  0.3849
16252SOL    HW155614   2.370   0.047  11.500  0.4737  0.5707  0.3785
16252SOL    HW255615   2.458  -0.042  11.585  0.7755  0.0849 -0.4273
16253SOL     OW55616  12.417   0.891  10.411 -0.2333  0.6186  0.3583
16253SOL    HW155617  12.499   0.842  10.406 -0.7929 -0.3619  0.4226
16253SOL    HW255618  12.414   0.942  10.330  0.3888  0.5903  0.3139
16254SOL     OW55619   8.422   7.748   8.871  1.0891  0.0745 -0.3358
16254SOL    HW155620   8.339   7.700   8.877  0.6594  0.8412  0.0461
16254SOL    HW255621   8.474   7.698   8.809  1.1173 -1.5439  0.9305
16255SOL     OW55622  10.174   5.859   7.451  0.4007  0.1031 -0.1609
16255SOL    HW155623  10.183   5.809   7.370 -1.8598 -0.9823  0.1683
16255SOL    HW255624  10.226   5.811   7.515 -0.1751 -0.7331 -0.3105
16256SOL     OW55625   5.062   6.449   7.255  0.2591  0.2105 -0.7060
16256SOL    HW155626   5.104   6.373   7.295  0.6811  0.0755 -1.3883
16256SOL    HW255627   5.125   6.480   7.190  1.0936  2.5214  1.0614
16257SOL     OW55628  12.443  12.064   5.718 -0.2291 -0.1604  0.1280
16257SOL    HW155629  12.395  12.005   5.660 -1.4828  1.0640 -0.1310
16257SOL    HW255630  12.503  12.007   5.766 -2.0549 -1.7927  0.5795
16258SOL     OW55631   4.290   1.621   6.520  0.1460  0.0134  0.6116
16258SOL    HW155632   4.253   1.693   6.469  0.8685 -0.0835 -0.0824
16258SOL    HW255633   4.376   1.653   6.548  0.0391 -0.1951  1.1806
16259SOL     OW55634   1.918   1.393   2.152  0.5962  0.1552  0.1627
16259SOL    HW155635   1.989   1.457   2.160 -0.6363  1.7642 -0.9683
16259SOL    HW255636   1.881   1.411   2.066 -0.1559 -1.7585  0.0594
16260SOL     OW55637   1.360  10.886   2.131  0.1756 -0.2282 -0.3492
16260SOL    HW155638   1.324  10.964   2.090 -1.6156 -1.2582 -0.8460
16260SOL    HW255639   1.453  10.906   2.144  0.4648  0.8460 -3.2595
16261SOL     OW55640   9.152   0.918   7.010  0.4811  0.3158  0.3093
16261SOL    HW155641   9.143   0.985   6.942 -2.8539  1.7955  1.9608
16261SOL    HW255642   9.127   0.837   6.967  2.9353  0.2933 -1.2960
16262SOL     OW55643   4.056   5.322   8.727 -0.7296  0.8906  0.3906
16262SOL    HW155644   3.983   5.367   8.771 -0.8958 -0.2867  1.3925
16262SOL    HW255645   4.124   5.317   8.794  0.4998  2.3625 -0.6630
16263SOL     OW55646   3.343   8.807   7.376 -0.2556 -0.2416 -0.2370
16263SOL    HW155647   3.432   8.793   7.345 -0.5236  0.2663 -1.2598
16263SOL    HW255648   3.321   8.727   7.423  0.5755 -0.5498 -0.3667
16264SOL     OW55649  12.056   4.956   8.627  0.2359 -0.0418 -0.2976
16264SOL    HW155650  12.145   4.989   8.637  0.0704 -0.0725  1.5541
16264SOL    HW255651  12.068   4.862   8.609  0.5791 -0.0772  0.0943
16265SOL     OW55652   6.056   7.966   3.709  0.2903 -0.4406 -0.7005
16265SOL    HW155653   6.050   7.935   3.800 -1.4482  0.1733 -0.5564
16265SOL    HW255654   6.096   8.052   3.716 -3.2574  1.3252  0.0236
16266SOL     OW55655   5.114   4.044   0.951  0.4102  0.2989  0.3111
16266SOL    HW155656   5.183   4.109   0.971  0.3806 -0.0613  1.7171
16266SOL    HW255657   5.099   4.000   1.034 -1.0845 -0.0708 -0.1329
16267SOL     OW55658   6.682   3.672   9.475  0.1887 -0.1362  1.0621
16267SOL    HW155659   6.729   3.730   9.415 -0.3998  0.4716  1.1778
16267SOL    HW255660   6.650   3.729   9.544 -0.3850 -0.6006  1.1947
16268SOL     OW55661  10.208   6.409   7.069 -0.1053  0.3646 -0.2943
16268SOL    HW155662  10.275   6.473   7.094  0.2409  0.7900 -2.2049
16268SOL    HW255663  10.256   6.336   7.031 -0.6530  0.0539 -0.4107
16269SOL     OW55664   4.746   4.073   9.966 -0.3628  0.0179  0.0658
16269SOL    HW155665   4.654   4.073   9.939 -0.3329  0.7855 -0.0517
16269SOL    HW255666   4.748   4.126  10.046 -0.1932 -0.9344  0.7254
16270SOL     OW55667   9.542  11.208  10.878  0.7097  0.6063  0.0307
16270SOL    HW155668   9.542  11.233  10.970  0.2162  1.8552 -0.2775
16270SOL    HW255669   9.455  11.169  10.864  1.3318 -0.9801  0.4185
16271SOL     OW55670  11.430   8.525   0.977 -0.6731 -0.4653  0.5405
16271SOL    HW155671  11.516   8.514   1.017 -0.6372  0.1534  0.6470
16271SOL    HW255672  11.394   8.603   1.020 -0.5644  0.3126 -0.7375
16272SOL     OW55673   9.365   9.558   8.278  0.6276  0.1300 -0.0882
16272SOL    HW155674   9.316   9.591   8.202 -0.4280 -1.3165 -0.0813
16272SOL    HW255675   9.450   9.600   8.271  0.2840  0.6659 -1.6255
16273SOL     OW55676   8.595   4.888  11.564 -0.0145  0.4883  0.6249
16273SOL    HW155677   8.629   4.920  11.481  2.5886 -2.3189  0.4110
16273SOL    HW255678   8.638   4.942  11.631  1.9483 -0.4672  0.2091
16274SOL     OW55679   1.416   6.493   2.167  0.2639 -0.6629  0.0459
16274SOL    HW155680   1.391   6.415   2.217 -1.6122 -1.3722 -1.8365
16274SOL    HW255681   1.341   6.552   2.177  1.5662  0.8822  1.2628
16275SOL     OW55682   9.169   4.611   6.900 -0.2273  0.0599  0.1441
16275SOL    HW155683   9.086   4.642   6.934 -0.6759  0.1373 -0.9752
16275SOL    HW255684   9.150   4.584   6.810  0.7187 -0.9626  0.2182
16276SOL     OW55685   2.352   7.128   4.891  1.2967  0.5698  0.6281
16276SOL    HW155686   2.443   7.142   4.915  1.3313  1.1551  0.1783
16276SOL    HW255687   2.302   7.170   4.960  1.3125 -1.5186  1.9878
16277SOL     OW55688   8.940   1.405   3.424 -0.3209  0.0879 -0.5069
16277SOL    HW155689   8.918   1.328   3.476  1.1428 -0.4419 -0.6349
16277SOL    HW255690   9.026   1.432   3.457 -0.9164  1.8402 -0.2749
16278SOL     OW55691  12.136   1.744   9.496 -0.3771  0.4616  0.0513
16278SOL    HW155692  12.097   1.669   9.452 -1.2762  0.7262  0.3778
16278SOL    HW255693  12.130   1.815   9.432 -1.1090  0.6843  0.3517
16279SOL     OW55694   9.730  11.155  12.156 -0.2708  0.4665  0.2642
16279SOL    HW155695   9.705  11.247  12.167  2.3894  1.3706 -0.6267
16279SOL    HW255696   9.771  11.152  12.069 -1.1776 -1.8091 -0.1415
16280SOL     OW55697   9.650   7.273   0.133  0.5943  0.0368 -0.1820
16280SOL    HW155698   9.644   7.225   0.051  2.0197  1.3923 -1.1367
16280SOL    HW255699   9.562   7.309   0.147 -0.6750 -3.1039  0.8247
16281SOL     OW55700   5.299   1.442  10.735  0.6429 -0.2191  0.0720
16281SOL    HW155701   5.307   1.441  10.639  1.7214  1.6084  0.1005
16281SOL    HW255702   5.388   1.455  10.766  0.0608  1.2991  1.2261
16282SOL     OW55703  11.103   8.632   5.645  0.1841  0.1375 -0.1015
16282SOL    HW155704  11.196   8.611   5.638  0.1016  0.2472 -1.8105
16282SOL    HW255705  11.101   8.718   5.688  0.8469 -0.0073  0.2288
16283SOL     OW55706   5.548   8.030   6.984 -0.5575  0.6558  0.1417
16283SOL    HW155707   5.461   8.022   6.944 -0.5253 -0.2717  0.2413
16283SOL    HW255708   5.547   7.967   7.056  0.3470  0.3297 -0.1211
16284SOL     OW55709   7.720   1.590   8.641  0.7193 -0.2044 -0.0936
16284SOL    HW155710   7.778   1.514   8.651  1.1278  0.0061 -0.8045
16284SOL    HW255711   7.774   1.655   8.596 -0.4581 -0.4781 -2.0053
16285SOL     OW55712  10.454   8.388   9.173 -0.0302  0.3438  0.1277
16285SOL    HW155713  10.544   8.410   9.198 -0.0272 -1.6831  2.2671
16285SOL    HW255714  10.434   8.309   9.224 -2.2330 -0.6260 -2.0591
16286SOL     OW55715   9.303   3.272  11.983  0.8692 -0.3948  0.3919
16286SOL    HW155716   9.353   3.195  11.958  0.2772 -0.9037  0.7388
16286SOL    HW255717   9.264   3.304  11.902  0.2638 -1.0865  0.4020
16287SOL     OW55718   5.671   7.140  10.307 -0.3706 -0.8752  0.0457
16287SOL    HW155719   5.730   7.206  10.271  2.2561 -3.8579 -1.6414
16287SOL    HW255720   5.619   7.110  10.231 -0.8727 -1.3631  0.5695
16288SOL     OW55721   3.812   2.781   4.668 -0.7823 -0.4206 -0.1194
16288SOL    HW155722   3.720   2.768   4.692 -0.8330 -0.0368 -0.0958
16288SOL    HW255723   3.850   2.694   4.670 -1.5974 -0.8559 -1.9916
16289SOL     OW55724   9.457   1.735   7.153 -0.2425 -0.8215  0.1463
16289SOL    HW155725   9.490   1.824   7.137 -0.9595 -0.6187 -0.2735
16289SOL    HW255726   9.456   1.726   7.248  0.2283 -0.5281  0.1803
16290SOL     OW55727   7.428  10.041   3.432 -0.3726 -0.2877  0.4437
16290SOL    HW155728   7.440  10.130   3.397 -1.7179  1.0351  3.0616
16290SOL    HW255729   7.338  10.019   3.408  0.1376 -1.2177 -0.6781
16291SOL     OW55730   3.102   6.689   7.663 -0.4591  0.1687 -0.0616
16291SOL    HW155731   3.126   6.780   7.678 -1.3538  0.2937  0.7242
16291SOL    HW255732   3.083   6.655   7.751 -1.7337 -0.2992 -0.4878
16292SOL     OW55733   8.876   2.771   9.321 -0.4005  0.2292  0.2323
16292SOL    HW155734   8.965   2.757   9.353 -0.1070  3.1772  1.0108
16292SOL    HW255735   8.858   2.863   9.341 -2.8808  0.2763 -1.7658
16293SOL     OW55736  11.864   4.948   7.425  0.0223 -0.1122 -0.2757
16293SOL    HW155737  11.795   4.915   7.367  0.5168 -0.7714 -0.4927
16293SOL    HW255738  11.850   5.043   7.425 -1.4962 -0.3051  0.4808
16294SOL     OW55739   1.223   3.253   3.826  0.0802 -0.5730  0.1549
16294SOL    HW155740   1.199   3.287   3.740 -0.4680  0.0052  0.5300
16294SOL    HW255741   1.142   3.219   3.863  0.3828 -1.1507  0.3006
16295SOL     OW55742   5.302   0.283   7.258 -1.0011 -0.1340 -0.7539
16295SOL    HW155743   5.380   0.264   7.310 -1.3710 -0.9668 -0.4813
16295SOL    HW255744   5.312   0.374   7.232 -0.3099 -0.0059 -0.0739
16296SOL     OW55745  12.035   7.048   4.984 -0.1186 -0.5743  0.1647
16296SOL    HW155746  12.113   7.004   5.019  0.5788  1.0818  0.8326
16296SOL    HW255747  12.040   7.034   4.889  1.6326  0.3730  0.0610
16297SOL     OW55748   2.994   5.994  10.897  0.2784 -0.6791  0.4795
16297SOL    HW155749   3.045   5.964  10.972 -1.9433  1.6293  3.1398
16297SOL    HW255750   3.027   6.082  10.878  0.0604 -0.8002 -0.5443
16298SOL     OW55751   1.810   2.253   4.383  0.1810 -1.0845 -0.2497
16298SOL    HW155752   1.826   2.182   4.446  0.3677  0.6690  1.7798
16298SOL    HW255753   1.828   2.333   4.432 -1.0869  0.4415 -2.1401
16299SOL     OW55754   8.344   6.220   5.669 -0.2352 -0.2807  0.2447
16299SOL    HW155755   8.373   6.306   5.700  0.3873  0.3055 -1.8510
16299SOL    HW255756   8.400   6.200   5.595 -2.9524 -0.6403 -1.8829
16300SOL     OW55757   8.252   7.621   6.654  0.6709  0.0469 -0.1290
16300SOL    HW155758   8.260   7.652   6.564  2.2264  1.9841  0.6052
16300SOL    HW255759   8.177   7.562   6.652  0.3131  0.4631 -2.5641
16301SOL     OW55760   1.193   1.034  11.738  0.0917  0.2446 -0.3719
16301SOL    HW155761   1.221   1.117  11.777  0.0666 -0.4830  1.2798
16301SOL    HW255762   1.101   1.048  11.715 -0.0395  0.5328  0.3124
16302SOL     OW55763   6.037   6.479   9.369  0.0114 -0.1422  0.3200
16302SOL    HW155764   6.120   6.457   9.327  0.4448 -0.0629  1.1271
16302SOL    HW255765   5.970   6.450   9.306  0.6461  0.5932 -0.7395
16303SOL     OW55766   7.088   9.008  10.105 -0.1113  0.7436 -0.2782
16303SOL    HW155767   7.002   9.026  10.068 -0.3044 -3.4326 -2.4305
16303SOL    HW255768   7.148   9.013  10.031  0.8266 -0.1695  0.3877
16304SOL     OW55769   9.135   3.931   3.799 -0.3920  0.0270  0.2045
16304SOL    HW155770   9.097   3.984   3.729 -0.4237  0.9187  0.8638
16304SOL    HW255771   9.185   3.863   3.755 -0.8724  0.2371 -0.6743
16305SOL     OW55772   3.275   9.897   7.338 -0.4635 -0.4518  0.1397
16305SOL    HW155773   3.218   9.862   7.406 -1.5274  0.3665 -0.2937
16305SOL    HW255774   3.261   9.838   7.263 -0.2377 -0.6277  0.2338
16306SOL     OW55775   1.671   2.193   3.589 -0.3644 -0.0694 -0.0438
16306SOL    HW155776   1.761   2.183   3.619  0.0287  2.4351 -0.1815
16306SOL    HW255777   1.667   2.142   3.508  0.2518 -1.9982  1.0751
16307SOL     OW55778   0.541   7.659  11.992 -0.3268  0.1044 -0.1327
16307SOL    HW155779   0.557   7.567  12.016 -0.1803  0.2350  0.2816
16307SOL    HW255780   0.622   7.688  11.950 -1.1232 -0.5927 -2.3119
16308SOL     OW55781  10.597   6.112   3.608  0.1072  0.8247 -0.7555
16308SOL    HW155782  10.691   6.105   3.625 -0.2155 -0.8844  0.6584
16308SOL    HW255783  10.591   6.163   3.527  2.2237  1.2712 -0.6958
16309SOL     OW55784  10.892   5.727   2.844  0.1160  0.6045 -0.0539
16309SOL    HW155785  10.854   5.650   2.885  1.4675  0.9659  2.0650
16309SOL    HW255786  10.983   5.727   2.874  0.3851  2.5195 -0.7230
16310SOL     OW55787  12.009  11.868   0.579 -0.2456  0.0695 -0.0363
16310SOL    HW155788  12.049  11.944   0.623  0.6436 -0.8743  0.8284
16310SOL    HW255789  11.958  11.825   0.647 -0.3201 -0.4078 -0.3921
16311SOL     OW55790   1.983   0.827   1.465 -0.2152 -0.2063 -0.2899
16311SOL    HW155791   2.025   0.892   1.520 -1.3732  0.4145 -0.0999
16311SOL    HW255792   1.914   0.790   1.520 -1.4552  0.4940 -1.3320
16312SOL     OW55793   1.087  10.333  11.579 -0.2094 -0.1403 -0.1070
16312SOL    HW155794   1.142  10.287  11.643 -1.9698 -0.7346  1.0557
16312SOL    HW255795   1.082  10.422  11.612 -0.4211 -0.2372  0.1286
16313SOL     OW55796   7.607   6.798  11.802  0.6531 -0.1806 -0.0883
16313SOL    HW155797   7.684   6.833  11.847  0.6111 -1.9837  1.4973
16313SOL    HW255798   7.548   6.872  11.794  1.0954  0.4381  1.9345
16314SOL     OW55799   7.039  10.848   7.075 -0.4741 -0.2846 -0.7110
16314SOL    HW155800   7.099  10.812   7.010 -1.5306 -0.3251 -1.6953
16314SOL    HW255801   7.072  10.937   7.091  0.2869 -0.5691 -0.6510
16315SOL     OW55802   1.874   6.683  11.202  0.0337 -0.2060 -0.0521
16315SOL    HW155803   1.969   6.695  11.203  0.0612  1.0878 -3.8102
16315SOL    HW255804   1.838   6.772  11.201 -1.0790 -0.6437 -1.2220
16316SOL     OW55805   1.743   1.849   6.760  0.2707 -0.0272  0.5140
16316SOL    HW155806   1.680   1.793   6.714  0.7856 -0.2524  0.0793
16316SOL    HW255807   1.727   1.937   6.727  1.5248 -0.3692 -1.1140
16317SOL     OW55808   1.002   3.331   1.955 -0.0298 -0.0997 -0.4663
16317SOL    HW155809   0.935   3.399   1.955 -0.4127 -0.4801 -0.8112
16317SOL    HW255810   1.080   3.375   1.921 -0.0216  0.4104  0.1811
16318SOL     OW55811   9.497  12.186   4.518 -0.2837  0.2617  0.2621
16318SOL    HW155812   9.561  12.253   4.541 -0.4628  0.3221  0.5818
16318SOL    HW255813   9.429  12.193   4.585 -0.6321  0.2055 -0.0832
16319SOL     OW55814   5.219   1.898   8.203 -0.4849 -0.7270 -0.2179
16319SOL    HW155815   5.124   1.890   8.216 -0.5567  0.5068  0.1596
16319SOL    HW255816   5.240   1.985   8.236  0.4331 -0.0776 -2.3419
16320SOL     OW55817   6.915  12.451  10.325 -0.0554 -0.1698 -0.0424
16320SOL    HW155818   6.905  12.357  10.340 -1.6676  0.0399  0.3751
16320SOL    HW255819   6.921  12.489  10.412 -1.7800  0.3224 -0.1097
16321SOL     OW55820   8.083   4.070  10.714 -0.2122 -0.4264 -0.2240
16321SOL    HW155821   8.162   4.031  10.751 -0.5877  1.1720  2.5064
16321SOL    HW255822   8.115   4.137  10.654  0.4163 -1.9220 -1.6516
16322SOL     OW55823   7.114   1.613   3.969 -0.1110 -0.1585 -0.1539
16322SOL    HW155824   7.129   1.598   3.875 -1.2371 -1.8104 -0.1084
16322SOL    HW255825   7.079   1.530   4.001 -1.3973  0.9288  1.3904
16323SOL     OW55826   7.662  12.243   1.147  0.5496 -0.3166 -0.1964
16323SOL    HW155827   7.749  12.268   1.178  1.1557  0.1510 -2.1672
16323SOL    HW255828   7.665  12.256   1.052 -1.8909  0.3588 -0.2463
16324SOL     OW55829   7.773   4.444  10.731  0.0458 -0.4436 -0.1186
16324SOL    HW155830   7.707   4.498  10.687  0.4188 -0.0745 -0.2336
16324SOL    HW255831   7.723   4.389  10.791 -0.2699  0.7594  0.7701
16325SOL     OW55832  12.405   3.468   3.566  0.0132 -0.5854 -0.4150
16325SOL    HW155833  12.368   3.539   3.514  1.0208  0.2255 -0.0448
16325SOL    HW255834  12.469   3.510   3.623 -1.0941 -1.4425  1.5594
16326SOL     OW55835   9.962  10.811  11.820  0.2672  0.3232 -0.1087
16326SOL    HW155836   9.886  10.753  11.825  1.4376 -1.4550 -1.4940
16326SOL    HW255837  10.020  10.769  11.755  2.0639  2.0296  0.2912
16327SOL     OW55838   4.975   5.122  10.451 -0.5711  0.5066  0.2037
16327SOL    HW155839   5.057   5.119  10.402 -0.5680  0.7452  0.1887
16327SOL    HW255840   4.927   5.196  10.412 -0.5268  0.7624  0.6234
16328SOL     OW55841   3.741   7.701   8.254 -0.2874  0.1449  0.4026
16328SOL    HW155842   3.779   7.788   8.249  1.2625 -0.5690 -2.4049
16328SOL    HW255843   3.653   7.711   8.216 -0.3594  0.6005  0.6872
16329SOL     OW55844   9.299   1.789  10.410 -0.1452  0.6101 -0.3383
16329SOL    HW155845   9.324   1.702  10.378 -0.0408  0.0255  1.2434
16329SOL    HW255846   9.309   1.846  10.334 -0.7209 -0.8434 -1.5529
16330SOL     OW55847   9.982   9.291   6.365 -0.1524 -0.1825  0.3359
16330SOL    HW155848   9.972   9.200   6.391 -0.9381 -0.2279 -0.0738
16330SOL    HW255849   9.950   9.293   6.274  2.4597 -0.0377 -0.6580
16331SOL     OW55850   6.271   2.046  11.786  0.1051  0.1351 -0.0130
16331SOL    HW155851   6.280   1.988  11.862  0.5555 -3.8862 -2.8028
16331SOL    HW255852   6.356   2.041  11.742 -0.8330  0.4512 -1.9778
16332SOL     OW55853   2.739  12.311   2.236  0.3636  0.8243  0.1563
16332SOL    HW155854   2.682  12.233   2.236  0.8217  0.4702 -1.0403
16332SOL    HW255855   2.741  12.339   2.145  1.2667  1.4666  0.3630
16333SOL     OW55856   0.172   7.874  10.232  0.2556 -0.1642 -0.3376
16333SOL    HW155857   0.115   7.805  10.199 -0.5374 -0.5216  1.6340
16333SOL    HW255858   0.254   7.830  10.255  1.0740  0.2033 -2.3598
16334SOL     OW55859   7.150   9.847   3.825  0.0074 -0.7010  0.1613
16334SOL    HW155860   7.204   9.770   3.842  1.3915  0.8123  3.4650
16334SOL    HW255861   7.061   9.812   3.815  1.0421 -2.9663 -2.4539
16335SOL     OW55862  10.216   4.824   4.251 -0.3456 -0.6101 -0.4401
16335SOL    HW155863  10.191   4.828   4.158 -0.9992 -0.0952 -0.2575
16335SOL    HW255864  10.288   4.761   4.254 -1.8919 -2.5187 -0.9566
16336SOL     OW55865   5.501   7.507   5.436 -0.0778 -0.3546  0.1352
16336SOL    HW155866   5.563   7.440   5.407 -0.3326 -0.3900 -0.3356
16336SOL    HW255867   5.492   7.492   5.530  1.4740  0.3516  0.4268
16337SOL     OW55868   2.103   7.356   9.998  0.2867 -0.1536 -0.0799
16337SOL    HW155869   2.073   7.371   9.908  1.0814  1.6737 -0.0795
16337SOL    HW255870   2.069   7.431  10.047  0.2947 -0.8699  1.0586
16338SOL     OW55871  10.791   4.491   5.139 -0.3500  0.4890 -0.1671
16338SOL    HW155872  10.700   4.471   5.160  0.4788 -1.8128  1.7047
16338SOL    HW255873  10.815   4.426   5.073  0.0898  0.7288 -0.2490
16339SOL     OW55874   0.101   8.231   2.441 -0.5883  0.3129  0.2097
16339SOL    HW155875   0.178   8.188   2.478 -1.1802 -1.3006 -0.3436
16339SOL    HW255876   0.135   8.285   2.370  0.0445 -0.3276  0.0192
16340SOL     OW55877   3.163   9.049   6.224 -0.0608  0.9544  0.4698
16340SOL    HW155878   3.246   9.012   6.255 -0.8186 -0.2360  1.1879
16340SOL    HW255879   3.171   9.050   6.129 -0.2851 -1.9981  0.3071
16341SOL     OW55880   2.127  10.734   4.559  0.0042  0.4082 -0.3403
16341SOL    HW155881   2.090  10.701   4.477  0.1227  0.5465 -0.4491
16341SOL    HW255882   2.133  10.829   4.546 -1.0420  0.5734  0.2473
16342SOL     OW55883  10.181   0.042   0.711 -0.0437  0.7561 -0.1242
16342SOL    HW155884  10.212   0.029   0.801  0.6032  0.5560 -0.3667
16342SOL    HW255885  10.134   0.125   0.713 -2.7965 -0.6936  1.0968
16343SOL     OW55886  11.709   9.115   1.179 -0.5575 -0.9708 -0.0146
16343SOL    HW155887  11.719   9.210   1.171  0.4363 -0.5328  4.1566
16343SOL    HW255888  11.788   9.079   1.139 -0.2408  0.0827 -0.3651
16344SOL     OW55889  10.466   0.850   8.151 -0.0524 -0.2067  0.0251
16344SOL    HW155890  10.458   0.794   8.074  0.6765  1.2853 -1.1987
16344SOL    HW255891  10.550   0.827   8.191  0.2881  0.0612 -0.5285
16345SOL     OW55892   9.707   0.614   3.903  0.3715 -0.3584 -0.1246
16345SOL    HW155893   9.740   0.527   3.924  3.0303  0.5066 -0.3536
16345SOL    HW255894   9.720   0.624   3.809  1.5667  0.8037  0.1292
16346SOL     OW55895   5.731   3.826  10.100  0.2559 -0.3093 -0.1810
16346SOL    HW155896   5.805   3.781  10.140  0.2468 -0.9550 -0.8757
16346SOL    HW255897   5.704   3.891  10.166  0.1884 -1.3809  0.8792
16347SOL     OW55898   4.864   1.622   4.446 -0.1259  0.2069 -0.0643
16347SOL    HW155899   4.943   1.605   4.394 -0.4082  1.5116 -0.9554
16347SOL    HW255900   4.888   1.595   4.535  2.0722  2.4854  0.1599
16348SOL     OW55901   3.500   2.817   4.713  0.1941  0.6756  0.0649
16348SOL    HW155902   3.539   2.829   4.800 -0.4211  1.9612  0.1815
16348SOL    HW255903   3.431   2.752   4.727  1.2093 -0.4258  0.1692
16349SOL     OW55904   5.607   2.582   2.569  0.4316 -0.2858 -0.1000
16349SOL    HW155905   5.546   2.624   2.629  1.3303 -0.2489  0.8013
16349SOL    HW255906   5.633   2.501   2.613 -0.1517 -1.0926 -1.1707
16350SOL     OW55907  11.253   6.582   9.752  0.0556  0.5341 -0.3444
16350SOL    HW155908  11.170   6.587   9.705  0.0053 -1.7175 -0.5595
16350SOL    HW255909  11.282   6.674   9.758 -2.2155  1.3241 -0.6023
16351SOL     OW55910   5.863   0.326   6.000 -0.2785 -1.2532 -0.7026
16351SOL    HW155911   5.819   0.284   5.926 -3.5138 -1.6875  1.2605
16351SOL    HW255912   5.809   0.403   6.019  1.9872  0.3524 -0.3455
16352SOL     OW55913   4.245  10.472   3.309  0.0352  0.7093  0.0106
16352SOL    HW155914   4.328  10.434   3.282 -0.0492 -0.0529  0.7914
16352SOL    HW255915   4.232  10.443   3.399 -2.8952 -2.5410 -1.1985
16353SOL     OW55916  10.023   8.469   9.209 -0.1890 -0.4959 -0.0304
16353SOL    HW155917  10.057   8.528   9.277 -0.5736 -0.7863  0.4233
16353SOL    HW255918  10.074   8.490   9.131  0.3023 -0.1944  0.3651
16354SOL     OW55919  12.523   9.083   3.612  0.4483  0.3873 -0.8218
16354SOL    HW155920  12.439   9.039   3.616  0.3482  0.5316 -1.2532
16354SOL    HW255921  12.585   9.014   3.586 -0.0384  0.8790 -3.5995
16355SOL     OW55922   8.730   9.403   7.627 -0.0034 -0.1070  0.3691
16355SOL    HW155923   8.745   9.409   7.533  0.7297 -1.1892  0.3960
16355SOL    HW255924   8.696   9.314   7.641  0.3547 -0.1323  1.1696
16356SOL     OW55925   8.404   4.809   8.456  0.8028  0.0276 -0.1833
16356SOL    HW155926   8.350   4.888   8.467 -0.9201 -0.7967 -2.0475
16356SOL    HW255927   8.475   4.820   8.519  0.6853  3.0906 -0.4356
16357SOL     OW55928   9.993   2.270  10.148 -0.0312  0.5625  0.1895
16357SOL    HW155929   9.919   2.305  10.197 -0.0224  0.9785 -0.0893
16357SOL    HW255930  10.034   2.346  10.109 -0.3827  0.1975 -0.9364
16358SOL     OW55931   9.158   4.624   2.516 -0.2381  0.4570  0.2501
16358SOL    HW155932   9.073   4.668   2.505 -0.3416  0.5759  1.4008
16358SOL    HW255933   9.148   4.574   2.597  0.6894  0.2089  0.2196
16359SOL     OW55934   2.687   7.127   1.357 -0.2251 -0.4848 -0.2727
16359SOL    HW155935   2.618   7.186   1.389 -0.3137 -1.2341  0.9721
16359SOL    HW255936   2.672   7.045   1.405  0.6589 -1.1169 -1.0572
16360SOL     OW55937   3.548   2.590   1.857 -0.3483  0.2635  0.9006
16360SOL    HW155938   3.523   2.676   1.891 -0.3901  0.5876  0.0809
16360SOL    HW255939   3.547   2.532   1.934 -3.6426  0.2206  0.9650
16361SOL     OW55940   5.962   0.514   2.999 -0.0255 -0.7741  0.3011
16361SOL    HW155941   5.933   0.434   3.044  0.7656 -0.7409  0.8856
16361SOL    HW255942   5.902   0.582   3.030 -0.1392 -0.9601  0.4946
16362SOL     OW55943  12.199   3.695   0.604  0.0526 -0.8562 -0.0174
16362SOL    HW155944  12.246   3.716   0.523 -0.2440 -0.8616 -0.1905
16362SOL    HW255945  12.268   3.674   0.667  0.2481 -1.9181 -0.5732
16363SOL     OW55946   4.578  12.037   2.186  0.6311  0.1525  0.4423
16363SOL    HW155947   4.597  11.991   2.268  1.0710 -0.2030  0.1455
16363SOL    HW255948   4.642  12.107   2.182 -0.0257  0.7863  0.8826
16364SOL     OW55949   1.506   5.505   1.234  0.4493 -0.1753 -0.6648
16364SOL    HW155950   1.487   5.478   1.144  0.9456 -0.7271 -0.6109
16364SOL    HW255951   1.425   5.548   1.264  0.5370  0.6961 -1.6214
16365SOL     OW55952   2.044   9.636   4.947  0.4860  0.4582  0.0178
16365SOL    HW155953   2.127   9.621   4.901 -0.4340 -0.5670 -1.3662
16365SOL    HW255954   2.003   9.708   4.899 -0.1256 -0.0826 -0.2686
16366SOL     OW55955  10.894   1.228  12.223 -0.2464  0.0590  0.1216
16366SOL    HW155956  10.804   1.250  12.202 -0.2754  0.4145  0.6081
16366SOL    HW255957  10.946   1.298  12.183 -0.1958 -0.0474 -0.0026
16367SOL     OW55958  11.802   5.512   5.895 -0.1554 -0.1062 -0.5073
16367SOL    HW155959  11.758   5.544   5.975 -0.5437 -1.7286 -0.0147
16367SOL    HW255960  11.876   5.462   5.928  0.2606  0.0404 -1.2205
16368SOL     OW55961   7.169   4.148   4.115 -0.2527  0.4952  0.2962
16368SOL    HW155962   7.153   4.126   4.206 -0.0394  2.1469  0.7676
16368SOL    HW255963   7.232   4.220   4.118 -0.4028  0.7266 -1.1515
16369SOL     OW55964   5.663   0.051   9.804  0.0016  0.3383  0.5909
16369SOL    HW155965   5.571   0.065   9.826 -0.4439 -2.7899  1.2420
16369SOL    HW255966   5.711   0.102   9.870 -1.3204 -0.6227  2.4091
16370SOL     OW55967   8.854   0.184   3.767  0.2554  0.0561  0.5399
16370SOL    HW155968   8.818   0.097   3.753  1.7708 -0.6768  1.0473
16370SOL    HW255969   8.837   0.202   3.860  0.4660  0.0598  0.5771
16371SOL     OW55970   2.336  12.393   9.110 -0.4404  0.1101  0.4920
16371SOL    HW155971   2.401  12.462   9.120 -0.8566  0.1035  4.7992
16371SOL    HW255972   2.252  12.437   9.127 -1.1365 -0.7867 -0.4780
16372SOL     OW55973   4.038   0.471   6.852 -0.6698 -0.1607  0.0892
16372SOL    HW155974   3.968   0.504   6.908 -0.8266 -0.6270  0.1725
16372SOL    HW255975   3.996   0.405   6.797 -0.1628 -0.9268  0.6022
16373SOL     OW55976   0.289  11.618   8.791 -0.2145  0.6585 -0.6938
16373SOL    HW155977   0.215  11.664   8.750 -0.1030 -0.7397 -2.6017
16373SOL    HW255978   0.303  11.541   8.736  0.3984 -1.0250  1.6601
16374SOL     OW55979   4.685  10.129   7.173  0.2978 -0.3538  0.1965
16374SOL    HW155980   4.691  10.037   7.146 -0.0313  0.1405 -1.6665
16374SOL    HW255981   4.615  10.165   7.118 -0.3983  0.7492  1.7291
16375SOL     OW55982   7.170   0.310   5.064  0.5534  0.1296  0.2452
16375SOL    HW155983   7.205   0.246   5.002  0.1019  0.6578 -0.5725
16375SOL    HW255984   7.164   0.262   5.147  0.2958 -0.8662 -0.3305
16376SOL     OW55985   9.045   9.899  10.064 -0.4012  0.0318 -0.0978
16376SOL    HW155986   8.967   9.866  10.107 -0.6745 -0.0770 -0.6710
16376SOL    HW255987   9.045   9.857   9.978  0.3763 -0.1006 -0.0448
16377SOL     OW55988  10.577   2.309   7.308  0.2329  0.1674 -0.4540
16377SOL    HW155989  10.553   2.278   7.395 -0.2574  0.6278 -0.4179
16377SOL    HW255990  10.621   2.235   7.267 -0.3058 -0.3438 -0.1280
16378SOL     OW55991   3.509  10.925   3.856 -0.7359  1.0715 -0.3157
16378SOL    HW155992   3.551  11.003   3.894  0.1337 -0.1432  1.3477
16378SOL    HW255993   3.463  10.885   3.930  1.6945 -1.8361 -0.1862
16379SOL     OW55994   7.269   3.649   3.164 -0.5268  0.2997  0.9081
16379SOL    HW155995   7.230   3.726   3.205 -1.0541  0.2520  0.5045
16379SOL    HW255996   7.339   3.684   3.110 -0.6817  0.4882  0.8263
16380SOL     OW55997   3.957   3.114   9.259  0.3354 -0.2953  0.3326
16380SOL    HW155998   3.945   3.044   9.194 -1.1601  0.2767 -0.0457
16380SOL    HW255999   4.046   3.145   9.244  0.7272 -1.5373 -0.0634
16381SOL     OW56000   7.732   5.739   2.960  0.5227  0.8349  0.4803
16381SOL    HW156001   7.788   5.725   2.883  0.9440 -0.9741  1.0567
16381SOL    HW256002   7.659   5.678   2.948  0.9050  0.0843  1.7665
16382SOL     OW56003   6.779   9.779   7.465  0.4641  0.1073 -0.4075
16382SOL    HW156004   6.849   9.730   7.509  0.1910  0.5478  0.5412
16382SOL    HW256005   6.702   9.723   7.472  0.3481  0.3107 -0.0567
16383SOL     OW56006   9.880   7.926   9.976 -0.3590  0.3449  0.4466
16383SOL    HW156007   9.917   8.009  10.006 -1.1460  0.5640  0.8134
16383SOL    HW256008   9.832   7.892  10.051 -0.4323 -0.2156  0.1510
16384SOL     OW56009   3.476   9.518   5.285 -0.0160 -0.3918  0.1117
16384SOL    HW156010   3.521   9.532   5.201  0.1745 -0.7586  0.1522
16384SOL    HW256011   3.400   9.464   5.262  0.5444 -1.2920  0.3065
16385SOL     OW56012   7.020   2.955  10.572  0.7688  0.1070  0.2357
16385SOL    HW156013   7.053   2.913  10.493 -0.7363 -2.2071  0.7559
16385SOL    HW256014   6.931   2.983  10.548  1.2383  1.8093  0.3476
16386SOL     OW56015   9.307  11.306   8.973 -0.4186  0.1443  0.8016
16386SOL    HW156016   9.322  11.358   8.893 -0.1619 -0.4067  0.4885
16386SOL    HW256017   9.374  11.238   8.970 -0.4094  0.1233  1.4939
16387SOL     OW56018  10.529   2.846   9.145  0.3216 -0.1950  0.2946
16387SOL    HW156019  10.473   2.921   9.165 -0.4822 -0.2544 -1.4600
16387SOL    HW256020  10.487   2.772   9.189 -1.3756 -0.3330 -1.3893
16388SOL     OW56021   4.136   4.889   0.996 -0.4122  0.1356 -0.3850
16388SOL    HW156022   4.113   4.980   0.976 -0.7359 -0.3734 -2.6709
16388SOL    HW256023   4.056   4.850   1.029 -0.3237  0.6241  0.4209
16389SOL     OW56024  10.754   3.024   4.048 -0.4439  0.9877  0.0607
16389SOL    HW156025  10.846   3.048   4.060 -0.4879  1.2036 -0.0503
16389SOL    HW256026  10.711   3.054   4.129 -0.3732  0.6624  0.2225
16390SOL     OW56027   7.055   9.736  12.566 -0.0818 -0.4862 -0.5097
16390SOL    HW156028   7.126   9.742  12.502  0.3470 -1.2046 -0.1099
16390SOL    HW256029   6.981   9.779  12.524  0.6358  0.4334 -0.8659
16391SOL     OW56030   4.528   0.125   0.381 -0.0350  0.1256 -0.2780
16391SOL    HW156031   4.525   0.175   0.462 -0.6029 -0.0566 -0.1807
16391SOL    HW256032   4.454   0.064   0.388  1.3106 -1.5176  0.1161
16392SOL     OW56033   3.122   0.517  10.762  0.2213 -0.0794 -0.3827
16392SOL    HW156034   3.027   0.521  10.765  0.2095  1.8044 -1.3188
16392SOL    HW256035   3.146   0.577  10.691  2.1342  0.3199  0.5347
16393SOL     OW56036   7.241   4.398   2.739  0.0250  0.1301  0.5919
16393SOL    HW156037   7.290   4.380   2.659  1.0894  2.0731  0.7346
16393SOL    HW256038   7.151   4.373   2.719  0.4981 -0.5507 -0.7709
16394SOL     OW56039   4.974   4.693   4.054 -0.1419  0.3118 -0.5205
16394SOL    HW156040   5.030   4.706   4.131 -0.8291  0.1773  0.0062
16394SOL    HW256041   4.895   4.651   4.088 -0.2182 -0.2871 -1.3812
16395SOL     OW56042   6.442  10.928   0.409  0.2822  0.0204  0.1793
16395SOL    HW156043   6.425  10.967   0.495  2.0230 -1.7126  1.3997
16395SOL    HW256044   6.531  10.958   0.388 -0.4503  1.1491 -1.4940
16396SOL     OW56045   2.008  12.085   3.192  0.0047 -0.2306  0.4543
16396SOL    HW156046   1.946  12.049   3.127 -0.7443 -0.4043  1.2464
16396SOL    HW256047   2.032  12.171   3.157 -0.7619 -0.1207  0.1758
16397SOL     OW56048   1.827   1.558   6.940 -0.3264  0.1500  0.2445
16397SOL    HW156049   1.748   1.593   6.980 -0.9835  2.3777 -2.6556
16397SOL    HW256050   1.804   1.545   6.848  1.9824 -1.5034 -0.1939
16398SOL     OW56051   7.044   6.025   4.437 -0.1447 -0.0239 -0.1327
16398SOL    HW156052   6.991   5.948   4.461  0.0248  0.1069  0.6813
16398SOL    HW256053   6.992   6.100   4.467 -0.4561  0.2098 -1.2065
16399SOL     OW56054   2.790   0.688   5.008  0.0519 -0.6638  0.1284
16399SOL    HW156055   2.777   0.594   5.020  1.1296 -0.7134  1.1396
16399SOL    HW256056   2.750   0.728   5.085 -2.0192 -0.1033 -1.1520
16400SOL     OW56057   0.385   6.646   6.340  0.1100  0.4639  0.3197
16400SOL    HW156058   0.318   6.578   6.338 -0.8972  1.4253  0.7502
16400SOL    HW256059   0.338   6.727   6.361  1.3860  1.1784  0.5646
16401SOL     OW56060   0.669   8.978  12.223  0.3108  0.7324  0.3063
16401SOL    HW156061   0.640   8.924  12.297  0.4182  0.2457 -0.0024
16401SOL    HW256062   0.752   8.939  12.196 -1.2528 -1.2064 -2.1812
16402SOL     OW56063   0.608   7.489   3.456 -0.9928  0.3642  0.5182
16402SOL    HW156064   0.694   7.448   3.464 -0.0037  2.2687  0.3895
16402SOL    HW256065   0.603   7.550   3.529 -2.3620  0.0994  0.6736
16403SOL     OW56066   5.868   9.723  10.194 -0.3790  0.3743  0.1225
16403SOL    HW156067   5.961   9.712  10.214 -0.5821 -3.2984 -0.2995
16403SOL    HW256068   5.830   9.756  10.276  1.0856  0.6528  0.7184
16404SOL     OW56069   8.584  10.361   4.019 -0.4601  0.2537  0.4955
16404SOL    HW156070   8.650  10.413   3.974  1.4287 -1.7825  0.7575
16404SOL    HW256071   8.504  10.375   3.969  1.0606 -0.2607 -2.2771
16405SOL     OW56072  11.188   2.385   0.979 -0.0904 -0.0350  0.2893
16405SOL    HW156073  11.185   2.400   0.884 -3.1511 -1.3967  0.0830
16405SOL    HW256074  11.223   2.296   0.989 -0.7626 -0.2880  0.3848
16406SOL     OW56075   1.153   7.073   8.202  0.2740 -0.3475 -0.5840
16406SOL    HW156076   1.087   7.132   8.165 -0.1204 -0.8082 -0.6346
16406SOL    HW256077   1.153   7.094   8.295  0.2635 -0.1459 -0.6286
16407SOL     OW56078   4.220   9.427   1.426  0.0403 -0.8249 -0.0330
16407SOL    HW156079   4.240   9.498   1.365 -0.1182 -0.5368  0.2473
16407SOL    HW256080   4.263   9.452   1.508 -2.9627  0.8098  1.2311
16408SOL     OW56081   1.031   6.693   0.769 -0.0387 -0.5882  0.2828
16408SOL    HW156082   0.961   6.660   0.825 -0.1327 -1.9518 -0.5765
16408SOL    HW256083   1.110   6.646   0.799  0.3992  0.4672  0.8295
16409SOL     OW56084  11.849   9.059   8.880 -0.1015 -0.0057  0.3245
16409SOL    HW156085  11.912   9.014   8.823  1.3307 -1.0649  2.6234
16409SOL    HW256086  11.900   9.131   8.918 -1.0018  0.6204  0.3674
16410SOL     OW56087  12.331  11.519   2.086  0.0544 -0.2585  0.0277
16410SOL    HW156088  12.401  11.506   2.150 -0.2174 -1.2996  0.1382
16410SOL    HW256089  12.289  11.433   2.079 -0.4386  0.0483 -0.9448
16411SOL     OW56090   2.718   3.892   6.445 -0.3399  0.3832  0.5028
16411SOL    HW156091   2.812   3.877   6.438 -0.2131  1.7931 -2.5850
16411SOL    HW256092   2.682   3.862   6.361 -2.5488  0.5988  1.2914
16412SOL     OW56093   9.787   5.927  10.548 -0.1247 -0.3171 -0.3071
16412SOL    HW156094   9.844   5.980  10.492 -0.5351  0.3961 -0.0667
16412SOL    HW256095   9.846   5.870  10.596  0.4274  0.6972  0.2400
16413SOL     OW56096   5.980   9.477   0.131  0.7757 -0.2117  0.0992
16413SOL    HW156097   6.029   9.549   0.091  1.4759 -0.9631 -0.4285
16413SOL    HW256098   5.951   9.424   0.057 -2.4374  1.1178  0.2051
16414SOL     OW56099   9.456   7.263  10.009  0.2478  0.0787 -0.8504
16414SOL    HW156100   9.450   7.207  10.086 -0.6642  1.3690  0.0605
16414SOL    HW256101   9.473   7.202   9.937 -0.9977 -1.4158  0.0369
16415SOL     OW56102   5.050   0.623   9.670 -0.4349  0.4296 -0.1028
16415SOL    HW156103   5.091   0.709   9.674  1.3090 -0.2788 -1.5003
16415SOL    HW256104   5.046   0.594   9.761 -0.4731  1.7091  0.3202
16416SOL     OW56105   0.841  10.690   0.712  0.4400 -0.0925  0.4507
16416SOL    HW156106   0.755  10.652   0.729  0.7320 -0.7257  0.5336
16416SOL    HW256107   0.873  10.719   0.798  1.4865 -2.3821  0.8911
16417SOL     OW56108   7.696   2.114  11.755 -0.4182 -0.1895  0.0269
16417SOL    HW156109   7.749   2.152  11.685 -1.6296 -0.6926 -1.2076
16417SOL    HW256110   7.642   2.186  11.787  0.9073  0.3073  1.2362
16418SOL     OW56111   8.824   9.395  12.527 -0.0895  0.1394  0.0027
16418SOL    HW156112   8.791   9.404  12.438  1.0852 -0.0214 -0.4538
16418SOL    HW256113   8.836   9.485  12.558 -0.8953  0.2019  0.1685
16419SOL     OW56114   8.160   1.481   0.600  0.1328 -0.1877  0.3553
16419SOL    HW156115   8.129   1.566   0.569 -1.1550 -1.6435 -2.7706
16419SOL    HW256116   8.221   1.452   0.532 -0.4060 -2.2667  0.7063
16420SOL     OW56117   1.454   2.429  12.245 -0.1390  0.0410  0.8859
16420SOL    HW156118   1.454   2.333  12.243  0.1436  0.0451 -0.2040
16420SOL    HW256119   1.540   2.453  12.211  0.3265  0.6871  2.4385
16421SOL     OW56120  10.550   0.053   1.065 -0.0113 -0.5242 -0.3666
16421SOL    HW156121  10.615   0.114   1.029  0.2294 -0.8302 -0.4484
16421SOL    HW256122  10.577   0.042   1.157 -1.4956  1.4574  0.4013
16422SOL     OW56123   2.935   1.661   0.024 -0.8512  0.0299 -0.1102
16422SOL    HW156124   2.940   1.729   0.091 -2.3032  0.7558 -0.6706
16422SOL    HW256125   3.025   1.649  -0.006 -0.3298  0.4099  1.2568
16423SOL     OW56126  10.911   4.886   4.063 -0.0080 -0.6230  0.1456
16423SOL    HW156127  10.984   4.857   4.117  0.7828  1.1967  0.1311
16423SOL    HW256128  10.945   4.883   3.973 -0.0564 -0.1202  0.1063
16424SOL     OW56129   7.798  10.669   7.352 -0.0644  0.6848  0.2896
16424SOL    HW156130   7.811  10.578   7.326  2.3614  0.1892  2.7627
16424SOL    HW256131   7.708  10.672   7.384 -0.5820 -0.4877 -0.9433
16425SOL     OW56132   3.499   9.510  11.984 -0.0398 -0.4559  0.2928
16425SOL    HW156133   3.463   9.496  12.071 -0.6813 -0.2195  0.0658
16425SOL    HW256134   3.429   9.553  11.934  0.0627 -1.2214 -0.5466
16426SOL     OW56135   3.048   1.364   3.906 -0.2154 -0.1614 -0.5940
16426SOL    HW156136   3.144   1.361   3.906 -0.1200  1.7272 -1.3837
16426SOL    HW256137   3.024   1.340   3.996  0.9594 -1.1708 -0.5222
16427SOL     OW56138   0.326   5.838   3.736  0.3729 -0.0673 -0.1837
16427SOL    HW156139   0.266   5.883   3.796  1.4193 -1.0807  1.7303
16427SOL    HW256140   0.412   5.850   3.775  1.2607  0.1608 -2.1200
16428SOL     OW56141   9.150   6.332   5.498  0.0319  0.6974 -0.4088
16428SOL    HW156142   9.207   6.287   5.436 -0.5399  0.6355 -0.8933
16428SOL    HW256143   9.122   6.411   5.452 -1.4531 -0.0013 -0.7458
16429SOL     OW56144   6.693   6.263   0.555  0.0285 -0.1469 -0.5189
16429SOL    HW156145   6.734   6.179   0.573 -1.9228 -0.9460  0.4705
16429SOL    HW256146   6.646   6.286   0.635  1.8683  2.7789 -0.1247
16430SOL     OW56147   6.160   1.812   5.788 -0.3838 -0.2416 -0.5602
16430SOL    HW156148   6.203   1.761   5.857 -0.4163  0.8900  0.3336
16430SOL    HW256149   6.078   1.765   5.771  1.2546 -2.6557 -2.5687
16431SOL     OW56150   9.973   9.722  11.415 -0.2945  0.2401  0.0047
16431SOL    HW156151  10.047   9.705  11.357  0.1576  0.9087  0.3730
16431SOL    HW256152  10.011   9.720  11.503 -1.0283 -1.0692  0.3216
16432SOL     OW56153  11.727  12.487  11.216  0.2782 -0.2574 -0.0436
16432SOL    HW156154  11.641  12.444  11.216 -0.6990  1.4384  2.9502
16432SOL    HW256155  11.783  12.426  11.265  0.3806 -0.6214 -0.6027
16433SOL     OW56156   4.381  12.378  11.753 -0.8905  0.1489  0.0157
16433SOL    HW156157   4.446  12.410  11.816 -1.0572  0.4190  0.0538
16433SOL    HW256158   4.409  12.413  11.669 -0.5169 -0.4343 -0.1125
16434SOL     OW56159   6.041   6.896   4.454 -0.1364 -0.1506  0.4492
16434SOL    HW156160   5.970   6.924   4.511 -0.1924  0.5320  0.0500
16434SOL    HW256161   6.050   6.966   4.390 -1.2652 -1.6902 -1.4871
16435SOL     OW56162  10.896   8.283  10.528 -0.3197  0.1080  0.2194
16435SOL    HW156163  10.949   8.359  10.504 -1.2932  0.1287 -2.1408
16435SOL    HW256164  10.940   8.209  10.488  0.8114 -0.7152  2.7936
16436SOL     OW56165  11.657  12.349   2.872 -0.3366 -0.0048 -0.0444
16436SOL    HW156166  11.604  12.269   2.877 -0.9841  0.1053 -3.2169
16436SOL    HW256167  11.594  12.420   2.881 -0.2083  0.1446 -0.3286
16437SOL     OW56168   4.152   6.480   5.737 -0.1568 -0.0276  0.2559
16437SOL    HW156169   4.101   6.463   5.658 -0.4262 -0.3205  0.4941
16437SOL    HW256170   4.162   6.395   5.779  0.6438  0.0051  0.1436
16438SOL     OW56171   5.480   8.796  10.642  0.2926  0.4023  0.5665
16438SOL    HW156172   5.505   8.706  10.664  1.2094 -0.1788 -2.3880
16438SOL    HW256173   5.562   8.836  10.614 -0.6383  1.1564 -1.1812
16439SOL     OW56174   6.042   9.991  10.638  0.0625  0.0708 -0.2553
16439SOL    HW156175   6.074   9.993  10.548  3.1452 -1.1780  0.6659
16439SOL    HW256176   6.070  10.075  10.675  0.2356 -0.0800 -0.0425
16440SOL     OW56177   7.339   5.506   1.040  0.0286  0.4427  0.1451
16440SOL    HW156178   7.366   5.505   0.948  1.3138 -2.7148  0.4377
16440SOL    HW256179   7.262   5.450   1.043  1.1597 -1.1448  1.2100
16441SOL     OW56180   8.790   6.307   5.440 -0.2644  0.4908  0.3161
16441SOL    HW156181   8.800   6.390   5.486  0.0164 -0.1508  1.4467
16441SOL    HW256182   8.821   6.241   5.502 -1.1773 -0.5253 -0.2734
16442SOL     OW56183   7.400   2.877  11.759  0.1092 -0.5919  0.5597
16442SOL    HW156184   7.480   2.897  11.711 -0.4669  1.2037  0.2800
16442SOL    HW256185   7.331   2.923  11.711 -1.1276 -2.0752  0.8060
16443SOL     OW56186   8.873  11.919  11.822  0.0793  0.2819  0.2729
16443SOL    HW156187   8.891  11.841  11.769  0.2256  0.0528  0.6587
16443SOL    HW256188   8.924  11.906  11.902 -0.5230  0.4039  0.6807
16444SOL     OW56189   9.994   9.897   3.736 -0.2357  0.1130 -0.2373
16444SOL    HW156190   9.925   9.934   3.680 -1.8289 -0.0459  1.5034
16444SOL    HW256191   9.980   9.802   3.731  0.6987 -0.0027 -0.8619
16445SOL     OW56192   8.103   7.523  11.413  0.7026 -0.4548  0.0362
16445SOL    HW156193   8.043   7.565  11.351  0.2727 -0.7386  0.2552
16445SOL    HW256194   8.157   7.465  11.359  0.5382 -0.4655 -0.1178
16446SOL     OW56195   4.691   5.110   0.317  0.4664  0.2090  0.4414
16446SOL    HW156196   4.620   5.139   0.260 -0.5748 -1.4890  0.8214
16446SOL    HW256197   4.648   5.089   0.400  1.5961  0.2906  1.0603
16447SOL     OW56198   4.739  10.052   8.372  0.0054  0.1521 -0.2163
16447SOL    HW156199   4.822  10.004   8.381 -0.4457 -0.4903  0.7857
16447SOL    HW256200   4.764  10.137   8.335  0.8615 -0.7337 -1.7820
16448SOL     OW56201   2.925  11.930   9.534  0.0282 -0.2982 -0.5141
16448SOL    HW156202   3.005  11.984   9.529  0.6038 -0.3534  3.9084
16448SOL    HW256203   2.854  11.993   9.529  0.4761  0.1738 -1.1296
16449SOL     OW56204   7.044   0.665   3.384 -0.3783 -0.2930 -0.4915
16449SOL    HW156205   7.098   0.638   3.457  2.3517  0.0365 -2.2478
16449SOL    HW256206   6.996   0.742   3.416  1.9446  0.8292  0.5195
16450SOL     OW56207   5.734  12.347   1.056 -0.1822  0.1126  0.5522
16450SOL    HW156208   5.818  12.305   1.073 -1.3152 -2.9695 -0.6333
16450SOL    HW256209   5.714  12.323   0.965 -1.5448  2.3392  0.1914
16451SOL     OW56210   1.200   4.511   6.679  0.4280  0.2019 -0.6168
16451SOL    HW156211   1.291   4.539   6.694  0.3311  0.3682 -0.3241
16451SOL    HW256212   1.161   4.512   6.766  0.5889 -1.4735 -0.4936
16452SOL     OW56213   7.127   8.263   4.224  0.4635  0.6288  0.0960
16452SOL    HW156214   7.129   8.256   4.129 -2.1898  0.5104 -0.0362
16452SOL    HW256215   7.102   8.176   4.254  1.0492  0.7292  0.8941
16453SOL     OW56216   6.357   8.529   6.729  0.1807  0.3217  0.2989
16453SOL    HW156217   6.417   8.549   6.800 -0.4862  0.4056  0.8590
16453SOL    HW256218   6.284   8.590   6.741  0.0572  0.3326 -0.4572
16454SOL     OW56219   8.039   8.954  11.248 -0.1251  0.1773 -0.0965
16454SOL    HW156220   7.948   8.943  11.276 -0.0291  0.6276  0.4113
16454SOL    HW256221   8.053   9.049  11.247  1.1130  0.1044  2.4817
16455SOL     OW56222  11.150   1.607   2.609 -0.0859 -0.0409  0.4658
16455SOL    HW156223  11.119   1.571   2.525  0.7586 -0.1038  0.1735
16455SOL    HW256224  11.224   1.551   2.633 -0.9320 -0.6488  1.7683
16456SOL     OW56225   3.305   1.979   5.744  0.3661  0.1423  0.1788
16456SOL    HW156226   3.292   2.048   5.679  1.7168  1.3180  1.0892
16456SOL    HW256227   3.338   1.905   5.693 -1.7050 -0.0953 -0.9016
16457SOL     OW56228   5.060   7.437   1.119 -0.1822 -0.4751  0.1279
16457SOL    HW156229   5.126   7.506   1.133  0.0209 -0.7193  0.3741
16457SOL    HW256230   4.979   7.485   1.104  0.0406 -0.1701 -0.1193
16458SOL     OW56231   2.304  11.548   7.937 -0.3974  0.6655  0.3554
16458SOL    HW156232   2.334  11.462   7.966 -0.6467  0.4347 -0.0637
16458SOL    HW256233   2.382  11.589   7.898 -0.2064  0.7518  0.8114
16459SOL     OW56234   2.020   5.636   1.194  0.1376  0.2162  0.0779
16459SOL    HW156235   1.925   5.648   1.196 -0.0665 -1.2007 -0.0666
16459SOL    HW256236   2.038   5.603   1.106  0.8209  0.8196 -0.0212
16460SOL     OW56237  10.724   6.619   1.045 -0.3059 -0.8017 -0.1761
16460SOL    HW156238  10.768   6.538   1.019  0.3976 -1.4034  2.5888
16460SOL    HW256239  10.633   6.594   1.060 -0.0702 -1.1521  0.7651
16461SOL     OW56240   0.725   6.052   2.944  0.4650 -0.2675 -0.8479
16461SOL    HW156241   0.802   6.105   2.925  0.0270  1.0579  0.8811
16461SOL    HW256242   0.748   6.003   3.023 -0.8792  1.1421  0.4744
16462SOL     OW56243   5.182   6.371   6.062 -0.0429 -0.4751  0.1202
16462SOL    HW156244   5.123   6.311   6.107 -0.7292 -0.4365 -0.7067
16462SOL    HW256245   5.128   6.411   5.994  1.1876 -1.2209 -1.3500
16463SOL     OW56246   1.233   7.369   8.046  0.9422  0.2537  0.1389
16463SOL    HW156247   1.261   7.291   8.095  0.3901 -0.3786 -0.5148
16463SOL    HW256248   1.151   7.341   8.003  0.2902  1.4580  0.5566
16464SOL     OW56249   9.284   7.539   8.640  0.6995  0.1050  0.3986
16464SOL    HW156250   9.252   7.598   8.708 -0.7549 -0.6988  0.4356
16464SOL    HW256251   9.320   7.465   8.688  2.0882  0.7070  0.3361
16465SOL     OW56252   8.291  10.297   7.156 -0.0689  0.2085  0.4358
16465SOL    HW156253   8.256  10.295   7.067 -2.9241  0.0265  1.4824
16465SOL    HW256254   8.287  10.389   7.182  0.5078  0.2241  0.4855
16466SOL     OW56255   9.397   4.315   4.450  0.4526  0.3128  0.1849
16466SOL    HW156256   9.454   4.298   4.525 -1.3065 -0.4057  1.4114
16466SOL    HW256257   9.355   4.231   4.432  0.5008  0.5901 -1.3483
16467SOL     OW56258   3.067   9.465  11.890  0.0194 -0.0134 -0.0859
16467SOL    HW156259   3.129   9.433  11.824 -0.9323 -0.8410 -0.6172
16467SOL    HW256260   2.997   9.506  11.839 -0.9543 -1.0679  0.3648
16468SOL     OW56261   6.203   4.791  11.709  0.3699 -0.0957  0.2047
16468SOL    HW156262   6.210   4.865  11.769  0.6878 -0.4581  0.6301
16468SOL    HW256263   6.289   4.786  11.667  0.5153 -0.5154  0.5403
16469SOL     OW56264   1.926   2.722   5.802  0.3021  0.0085 -0.0184
16469SOL    HW156265   1.837   2.739   5.835  0.6087  1.1146  0.2922
16469SOL    HW256266   1.930   2.627   5.791 -1.3976  0.0581 -1.3988
16470SOL     OW56267   1.547   7.634   1.693 -0.1562  0.2251  0.2209
16470SOL    HW156268   1.516   7.683   1.617  2.5521  0.5068 -0.7945
16470SOL    HW256269   1.556   7.544   1.662 -1.8801 -0.2912  1.1140
16471SOL     OW56270   6.491   3.105   4.683  0.0559  0.5068 -0.3943
16471SOL    HW156271   6.544   3.103   4.763  0.6204  1.7302 -0.7073
16471SOL    HW256272   6.480   3.198   4.664 -0.0292  0.2364 -1.7639
16472SOL     OW56273   3.353   0.791   2.380  0.2388  0.6214  0.1067
16472SOL    HW156274   3.358   0.844   2.459  0.5364  2.8873 -1.3283
16472SOL    HW256275   3.274   0.822   2.335  0.2144 -0.4386 -0.6420
16473SOL     OW56276  10.292   8.775   8.873 -0.6215  0.0246 -0.5848
16473SOL    HW156277  10.382   8.748   8.889 -0.0066  2.0732 -0.2660
16473SOL    HW256278  10.252   8.779   8.960 -0.4637  0.8174 -0.5359
16474SOL     OW56279   4.748   7.629   1.451  0.4082 -0.6794 -0.5248
16474SOL    HW156280   4.689   7.647   1.378  1.6719  0.1690 -1.3719
16474SOL    HW256281   4.692   7.588   1.517 -1.9622  3.0889  0.1158
16475SOL     OW56282   7.699  11.243   7.029 -0.4197 -0.4364 -0.3650
16475SOL    HW156283   7.784  11.251   6.987  0.8914  0.0721  2.1392
16475SOL    HW256284   7.669  11.155   7.008  0.4713 -0.4406 -1.7041
16476SOL     OW56285   3.880   6.909   7.279  0.0762  0.3788  0.0909
16476SOL    HW156286   3.850   6.855   7.352 -0.4664 -0.8341 -0.9827
16476SOL    HW256287   3.870   6.999   7.310 -0.5403 -0.1000  1.3528
16477SOL     OW56288   9.747   4.502  11.675  0.4821 -0.0205  0.4152
16477SOL    HW156289   9.796   4.477  11.753  1.8571  0.6297 -0.2011
16477SOL    HW256290   9.708   4.420  11.644  0.2727 -0.3554  1.5346
16478SOL     OW56291   8.123   7.302   0.162 -0.0100  0.0046  0.3263
16478SOL    HW156292   8.121   7.243   0.087 -1.1810 -0.3588  0.6249
16478SOL    HW256293   8.216   7.307   0.186  0.3101 -0.3322 -0.7651
16479SOL     OW56294   2.012   1.974   1.459 -0.3764  0.1352  0.4596
16479SOL    HW156295   1.987   1.982   1.551 -3.3109  1.9617 -0.3482
16479SOL    HW256296   1.931   1.949   1.414  0.5261  0.9937 -1.8076
16480SOL     OW56297   8.670   6.699   9.597 -0.3524  0.4299  0.4587
16480SOL    HW156298   8.715   6.727   9.677  0.7188 -1.2272  0.4768
16480SOL    HW256299   8.578   6.689   9.624  0.3747 -2.6230  2.2755
16481SOL     OW56300   7.251   7.436  10.548 -0.0298  0.2988 -0.0001
16481SOL    HW156301   7.249   7.397  10.460  1.0626  1.1167 -0.4205
16481SOL    HW256302   7.266   7.529  10.532  1.1406  0.3183  1.0743
16482SOL     OW56303   6.144  12.342   3.008 -0.6057  0.7637 -0.4521
16482SOL    HW156304   6.050  12.351   2.993 -1.4957 -0.0750  3.5544
16482SOL    HW256305   6.152  12.275   3.076  3.1306 -1.1370 -2.4068
16483SOL     OW56306   5.725   0.000   3.453 -0.2154 -0.1378 -0.0225
16483SOL    HW156307   5.665   0.059   3.407  1.9098  2.4970  0.3244
16483SOL    HW256308   5.779  -0.039   3.384 -0.6169 -0.4862 -0.1421
16484SOL     OW56309   8.136   0.561  10.632 -0.3383 -0.1810  0.2975
16484SOL    HW156310   8.168   0.471  10.632  1.2198  0.3427  0.9848
16484SOL    HW256311   8.090   0.570  10.716 -0.3328 -0.2757  0.3103
16485SOL     OW56312   8.417   6.470   4.501  0.2016 -0.5896 -0.1697
16485SOL    HW156313   8.475   6.443   4.430  1.0876 -0.1047  0.3502
16485SOL    HW256314   8.418   6.566   4.497 -0.7847 -0.5831 -0.3246
16486SOL     OW56315  10.754   0.200   2.410 -0.0820  0.3362 -0.1962
16486SOL    HW156316  10.720   0.165   2.493  1.6504 -0.8970  0.0470
16486SOL    HW256317  10.695   0.166   2.344 -0.6418  0.1081  0.4055
16487SOL     OW56318   5.264  12.486   0.628 -0.3719  0.0502 -0.4682
16487SOL    HW156319   5.185  12.434   0.614 -0.7474  0.7186 -0.8712
16487SOL    HW256320   5.331  12.442   0.575 -0.7212  0.0471 -0.9106
16488SOL     OW56321  11.768   9.733   2.032 -0.5217  0.6313 -0.1714
16488SOL    HW156322  11.839   9.682   1.993  0.4626  2.6318 -1.0825
16488SOL    HW256323  11.775   9.716   2.126 -1.0830 -1.9204 -0.4990
16489SOL     OW56324   2.102   5.652   2.620  0.4032  0.3875  0.2002
16489SOL    HW156325   2.110   5.734   2.669 -2.2140  0.2327  1.0306
16489SOL    HW256326   2.047   5.675   2.545  1.3389 -0.2046 -0.6883
16490SOL     OW56327   9.739   5.318   9.430 -0.0915 -0.5205 -0.8469
16490SOL    HW156328   9.829   5.286   9.425  0.1164 -0.2624  0.6349
16490SOL    HW256329   9.684   5.240   9.421  0.3211 -0.8653 -0.4194
16491SOL     OW56330   8.067   8.878  10.033  0.5984 -0.2956 -0.5447
16491SOL    HW156331   8.053   8.844   9.945  0.8685 -0.5457 -0.4967
16491SOL    HW256332   7.986   8.923  10.055 -0.1718 -1.7646 -0.2331
16492SOL     OW56333  10.350   6.707   4.277 -0.2650 -0.1340  0.4602
16492SOL    HW156334  10.402   6.725   4.199 -0.4540 -2.8500 -0.4228
16492SOL    HW256335  10.269   6.756   4.264  0.9178  1.9087  0.5045
16493SOL     OW56336   6.860   8.266  11.243 -0.0475  0.3704  0.1408
16493SOL    HW156337   6.907   8.186  11.221 -0.1753  0.2254  0.3864
16493SOL    HW256338   6.869   8.274  11.338  0.8767  1.2269  0.0016
16494SOL     OW56339  11.800   0.219  10.962 -0.0175 -0.0402 -0.1995
16494SOL    HW156340  11.747   0.234  11.040 -1.4093 -0.6622 -0.9874
16494SOL    HW256341  11.822   0.306  10.930 -0.5092  0.2270  0.1902
16495SOL     OW56342   4.558  11.047   2.130  0.1990 -0.5528  0.0330
16495SOL    HW156343   4.612  11.061   2.209 -0.7281 -0.9552  0.7582
16495SOL    HW256344   4.622  11.034   2.060  1.1361  2.7848  0.0938
16496SOL     OW56345   6.643   3.940   2.439 -0.4097  0.3352  0.1824
16496SOL    HW156346   6.695   3.998   2.384  0.6652 -0.2765  0.5179
16496SOL    HW256347   6.668   3.852   2.412  0.1608  0.0168  1.6412
16497SOL     OW56348   1.562   3.758  11.716 -0.0107 -0.0227 -0.2530
16497SOL    HW156349   1.648   3.796  11.701 -0.5007  0.7770 -1.1828
16497SOL    HW256350   1.533   3.797  11.799  0.7004 -0.6594  0.3058
16498SOL     OW56351   5.664   7.932   5.693 -0.0308  0.2710 -0.4962
16498SOL    HW156352   5.670   8.015   5.740 -1.3468  0.2866 -0.3101
16498SOL    HW256353   5.740   7.932   5.635  0.4024  1.2573  0.0432
16499SOL     OW56354   8.488   4.592  11.298  0.4134  0.6300  0.1499
16499SOL    HW156355   8.429   4.652  11.345 -0.8327 -0.0861 -0.4482
16499SOL    HW256356   8.456   4.592  11.208  1.2304  0.0741 -0.1560
16500SOL     OW56357   2.249   2.036   0.078 -0.6089  0.2677  0.4390
16500SOL    HW156358   2.195   2.077   0.146 -2.2855 -0.8711 -0.1458
16500SOL    HW256359   2.203   2.054  -0.004  0.5665  0.3099 -0.2306
16501SOL     OW56360   8.587   0.338   7.885  0.0470  0.9348  0.0568
16501SOL    HW156361   8.632   0.254   7.880 -0.4209  0.6194  0.9541
16501SOL    HW256362   8.574   0.353   7.979  0.5705  2.2544 -0.0495
16502SOL     OW56363   9.447   8.774   6.736  0.1471  0.0616 -0.7275
16502SOL    HW156364   9.448   8.728   6.820  1.4825 -0.7727 -1.1659
16502SOL    HW256365   9.372   8.738   6.690 -0.3861  0.2699 -0.0381
16503SOL     OW56366   6.305   4.629  10.436 -0.1607 -0.3956 -0.1898
16503SOL    HW156367   6.352   4.705  10.403  1.5660 -0.9312  0.9039
16503SOL    HW256368   6.212   4.654  10.433  0.2795  1.2162 -1.1069
16504SOL     OW56369   8.421  11.504   5.554 -0.4445  0.1624 -0.3224
16504SOL    HW156370   8.419  11.498   5.650  1.8345 -2.6368 -0.3046
16504SOL    HW256371   8.491  11.566   5.535 -0.2080 -0.0514 -0.1572
16505SOL     OW56372  10.300  12.112   2.175  0.2860 -0.2800  0.4641
16505SOL    HW156373  10.334  12.193   2.214 -0.0896  0.9639 -1.6297
16505SOL    HW256374  10.377  12.071   2.136  0.3643 -0.5702  0.9251
16506SOL     OW56375   6.924   7.937   3.082 -0.0600  0.2841 -0.0255
16506SOL    HW156376   6.837   7.899   3.069 -0.0817  1.0593 -3.0371
16506SOL    HW256377   6.923   8.016   3.027  2.4236  0.5244  0.1904
16507SOL     OW56378   2.659   1.319   1.643 -0.2337  0.3370 -0.0604
16507SOL    HW156379   2.584   1.345   1.589 -0.6299  1.1174  0.8270
16507SOL    HW256380   2.697   1.402   1.672  0.3505 -0.0638  0.3386
16508SOL     OW56381   9.667   9.311   8.217  0.0191  0.1173  0.0733
16508SOL    HW156382   9.578   9.309   8.251 -0.3598  0.9155 -0.8433
16508SOL    HW256383   9.664   9.260   8.137  0.8461 -1.5108  1.0343
16509SOL     OW56384   6.169  11.910   9.818 -0.0904 -0.0671 -0.0093
16509SOL    HW156385   6.146  11.998   9.788  1.0810  0.5615  0.8527
16509SOL    HW256386   6.085  11.868   9.836 -0.6483  1.0832  0.1333
16510SOL     OW56387   4.485   6.234  10.725  1.0087 -0.3171  0.0164
16510SOL    HW156388   4.494   6.168  10.793 -0.3691 -0.9305 -0.3724
16510SOL    HW256389   4.490   6.185  10.643  0.3870  0.1177 -0.2851
16511SOL     OW56390   0.089   7.675  10.722 -0.1812 -0.2324  0.9196
16511SOL    HW156391   0.077   7.735  10.649  0.5512  0.7717  1.6102
16511SOL    HW256392   0.100   7.731  10.798  1.1844 -1.2145  1.4861
16512SOL     OW56393   0.582   4.751  11.652 -0.4726 -0.1350 -0.5276
16512SOL    HW156394   0.638   4.801  11.594 -1.6302 -1.2660 -2.7472
16512SOL    HW256395   0.518   4.814  11.684  0.0933  0.4772 -0.5896
16513SOL     OW56396   3.901   1.982   9.949 -0.2870 -0.1425 -0.2303
16513SOL    HW156397   3.875   2.017   9.863  1.8156  0.1714 -0.7895
16513SOL    HW256398   3.996   1.972   9.943 -0.1095 -0.2813  2.0233
16514SOL     OW56399   6.328   3.000   3.405 -0.2531 -0.7180  0.0178
16514SOL    HW156400   6.315   3.075   3.463 -0.9353 -1.0616  0.3274
16514SOL    HW256401   6.416   2.969   3.425  0.1994  0.2396 -0.4093
16515SOL     OW56402   5.150   9.689   2.173  0.9203 -0.2186  0.3147
16515SOL    HW156403   5.231   9.720   2.132  1.6127 -1.4849  0.7123
16515SOL    HW256404   5.178   9.638   2.248 -0.2780 -0.0982  0.8636
16516SOL     OW56405   4.715  12.461   7.845  0.9034  0.0528  0.4367
16516SOL    HW156406   4.623  12.486   7.839  0.7864 -0.6881 -1.1766
16516SOL    HW256407   4.724  12.386   7.787  2.0821 -1.2961  2.2449
16517SOL     OW56408  10.107   4.854   0.440  0.6345 -0.1053  0.0703
16517SOL    HW156409  10.100   4.784   0.375 -0.9815  0.3836 -0.3351
16517SOL    HW256410  10.018   4.888   0.448  0.8542  0.1174  2.2550
16518SOL     OW56411  10.118   8.075   0.141  0.6632 -0.2535 -0.5292
16518SOL    HW156412  10.167   8.154   0.163 -1.2854  1.2803 -1.4025
16518SOL    HW256413  10.164   8.039   0.065  1.4121  0.1744 -0.2932
16519SOL     OW56414   9.360   6.817   6.505  0.4703  0.2331 -0.6652
16519SOL    HW156415   9.305   6.855   6.574  1.0767 -0.3526  0.1524
16519SOL    HW256416   9.368   6.887   6.440 -0.1494  0.7748 -0.1779
16520SOL     OW56417   5.545   4.883   2.253 -0.1916  0.2371  0.2185
16520SOL    HW156418   5.513   4.965   2.293 -0.7233  0.5734 -0.8742
16520SOL    HW256419   5.555   4.823   2.327 -1.2263  0.8260  0.8619
16521SOL     OW56420   5.937   4.702   1.252  0.8116 -0.0773  0.2228
16521SOL    HW156421   5.855   4.712   1.300 -0.2757 -2.7486 -0.8826
16521SOL    HW256422   6.000   4.671   1.318  0.4505  0.2114  0.7055
16522SOL     OW56423   8.547  10.954  10.032 -0.7276 -0.1109  0.2559
16522SOL    HW156424   8.624  10.917  10.074 -0.3645  0.0589 -0.2560
16522SOL    HW256425   8.570  10.960   9.939 -0.6757  1.6112  0.3470
16523SOL     OW56426   0.183   7.678  11.178  0.2049  0.2792  0.1090
16523SOL    HW156427   0.257   7.634  11.137  0.4670 -1.3448  2.1356
16523SOL    HW256428   0.211   7.769  11.187  0.3609  0.5698 -2.6090
16524SOL     OW56429   8.538   9.339  10.455  0.2235 -0.3311 -0.0157
16524SOL    HW156430   8.509   9.250  10.440  0.5916 -0.2592 -1.3002
16524SOL    HW256431   8.598   9.333  10.530 -0.9227 -0.8978  0.8775
16525SOL     OW56432  11.652   5.187   4.614 -0.2129  0.2134  0.1547
16525SOL    HW156433  11.675   5.255   4.551  0.0887 -0.4218 -0.4348
16525SOL    HW256434  11.682   5.220   4.698 -0.6804  1.1023 -0.0208
16526SOL     OW56435   9.151  10.533   4.919 -0.3635 -0.6268  0.1761
16526SOL    HW156436   9.105  10.617   4.926 -0.3783 -0.4786 -1.3600
16526SOL    HW256437   9.197  10.525   5.003  0.0364  1.1668  0.1862
16527SOL     OW56438  10.918   2.413   8.723  0.1751  0.2511 -0.5944
16527SOL    HW156439  10.856   2.461   8.668 -0.5918 -0.6956 -0.5934
16527SOL    HW256440  10.944   2.475   8.791 -2.3721  0.1177  0.6294
16528SOL     OW56441   0.080   4.147   1.825  0.0546 -0.1115  0.1977
16528SOL    HW156442   0.003   4.155   1.768  0.6876 -0.1020 -0.6840
16528SOL    HW256443   0.090   4.233   1.865 -1.8563 -0.7856  2.2926
16529SOL     OW56444   2.486  10.106  10.434 -0.2135 -0.2622 -0.1560
16529SOL    HW156445   2.503  10.012  10.445 -3.4406 -1.2011 -1.8746
16529SOL    HW256446   2.519  10.126  10.346 -0.0029  0.0985  0.0027
16530SOL     OW56447   2.399   4.817   9.206 -0.5018  0.1638  0.4107
16530SOL    HW156448   2.322   4.787   9.157 -0.4426  0.6146  0.0426
16530SOL    HW256449   2.380   4.794   9.297 -1.2776  0.6912  0.3865
16531SOL     OW56450   7.360   8.197   2.529  0.1445  0.1878 -0.0669
16531SOL    HW156451   7.312   8.171   2.450  0.2923  1.2596 -0.5272
16531SOL    HW256452   7.448   8.160   2.517  0.1011  0.1580 -0.3030
16532SOL     OW56453  10.141   2.656   9.276  0.1085  0.2747  0.3765
16532SOL    HW156454  10.150   2.561   9.278  2.6877  0.4588  0.2503
16532SOL    HW256455  10.133   2.677   9.182 -1.0826  0.1708  0.4394
16533SOL     OW56456   5.685   5.215   1.428 -0.2804 -0.7651  0.0097
16533SOL    HW156457   5.710   5.123   1.423 -0.1217 -0.7312  0.1569
16533SOL    HW256458   5.657   5.238   1.339  1.2213 -0.5234 -0.4370
16534SOL     OW56459  12.045   4.113   7.450  0.2049 -0.1088 -0.2145
16534SOL    HW156460  12.101   4.036   7.456  0.9648  0.3148 -1.4370
16534SOL    HW256461  12.106   4.186   7.438 -0.5034  0.6923  0.8627
16535SOL     OW56462   8.692   2.673  10.340  0.6524  0.0105 -0.1238
16535SOL    HW156463   8.757   2.604  10.325 -0.1192 -0.9110  0.7028
16535SOL    HW256464   8.705   2.700  10.431  0.8858  0.9113 -0.4078
16536SOL     OW56465  12.535   2.550   1.032 -0.7938 -0.3468  0.4687
16536SOL    HW156466  12.455   2.502   1.013  0.0495 -1.9680  0.7635
16536SOL    HW256467  12.506   2.635   1.066 -2.3342 -0.0507 -1.4655
16537SOL     OW56468   1.679   6.560   8.895 -0.2185 -0.2425 -0.2584
16537SOL    HW156469   1.684   6.601   8.981 -0.5646  0.3229 -0.5055
16537SOL    HW256470   1.627   6.481   8.908 -3.8202  1.8751 -0.6921
16538SOL     OW56471  10.268   3.943   8.305  0.3742 -0.4611  0.4820
16538SOL    HW156472  10.201   3.899   8.357 -0.0510  1.3108  1.5231
16538SOL    HW256473  10.343   3.950   8.364  0.4539  0.1478  0.3121
16539SOL     OW56474   4.217  11.464   9.822  0.1990 -0.2809 -0.2411
16539SOL    HW156475   4.193  11.545   9.867 -2.1869 -1.0009 -0.1141
16539SOL    HW256476   4.231  11.401   9.893 -1.3238 -0.8305 -0.4017
16540SOL     OW56477   5.258   7.644  10.529  0.0749  0.7622  0.5374
16540SOL    HW156478   5.304   7.713  10.577  1.4153 -0.3628  0.9143
16540SOL    HW256479   5.323   7.574  10.517 -0.4388  0.6120 -2.1686
16541SOL     OW56480   5.717   5.482   1.875  0.1157  0.4053 -0.3342
16541SOL    HW156481   5.689   5.420   1.808 -0.3851  0.5692 -0.2779
16541SOL    HW256482   5.785   5.436   1.924 -2.1448 -1.1822  1.5014
16542SOL     OW56483   4.450   9.529   5.535  0.7125 -0.2163  0.4785
16542SOL    HW156484   4.369   9.564   5.497  0.3465 -0.5208  0.9686
16542SOL    HW256485   4.438   9.537   5.629  1.4304  0.1145  0.5504
16543SOL     OW56486   6.488   7.977  11.942 -0.0891 -0.1196 -0.1461
16543SOL    HW156487   6.555   8.026  11.895 -1.8010  1.4516 -1.0898
16543SOL    HW256488   6.497   8.004  12.033 -0.2170  1.0399 -0.4677
16544SOL     OW56489  11.295   6.536   3.568 -0.0788 -0.5557 -0.1266
16544SOL    HW156490  11.289   6.473   3.497 -0.1457 -0.4624 -0.2046
16544SOL    HW256491  11.360   6.600   3.538 -0.2560 -0.4046 -0.1932
16545SOL     OW56492   4.478   2.444   6.214  0.8168  0.4376  0.2484
16545SOL    HW156493   4.421   2.470   6.286 -1.5896 -1.9639 -0.6303
16545SOL    HW256494   4.519   2.363   6.244 -1.5993 -1.6191 -1.5382
16546SOL     OW56495   0.510   7.010   2.547 -0.8490  0.3243 -0.8960
16546SOL    HW156496   0.570   6.994   2.620  0.5143  2.1820 -1.5476
16546SOL    HW256497   0.438   7.060   2.587 -0.9478 -0.1055 -0.5217
16547SOL     OW56498   9.790   3.276   1.273 -0.6622  0.1152  0.7848
16547SOL    HW156499   9.715   3.304   1.221  0.0623  0.5103 -0.0723
16547SOL    HW256500   9.814   3.191   1.238  0.4252  0.8005 -0.2285
16548SOL     OW56501  12.133   4.372   7.333 -0.3798  0.5285 -0.5632
16548SOL    HW156502  12.161   4.452   7.378  0.7302  0.1382 -0.5157
16548SOL    HW256503  12.083   4.403   7.258 -0.1962  1.2675 -0.3891
16549SOL     OW56504   2.535  10.180   2.011  0.2740  0.2498 -0.6510
16549SOL    HW156505   2.521  10.271   1.985 -1.5834  0.8552  2.0544
16549SOL    HW256506   2.627  10.177   2.038  0.5421  1.1356 -1.4257
16550SOL     OW56507  11.524   5.925  10.826 -0.8517  0.1306 -0.0033
16550SOL    HW156508  11.485   5.898  10.743  1.0497  0.1634 -0.9478
16550SOL    HW256509  11.532   6.020  10.819 -1.4859  0.2382  0.6022
16551SOL     OW56510   9.768  10.505   9.624 -0.2034  0.0590 -0.0092
16551SOL    HW156511   9.704  10.458   9.570 -0.3775  0.7921 -0.4590
16551SOL    HW256512   9.851  10.494   9.578 -0.4979  1.4236 -0.9540
16552SOL     OW56513   1.788   3.929   3.682  0.1255 -0.6807 -0.2799
16552SOL    HW156514   1.859   3.946   3.744 -0.4471  0.2436  0.1518
16552SOL    HW256515   1.803   3.991   3.611 -0.5059 -0.1401  0.0437
16553SOL     OW56516  12.217   7.238   8.637 -0.0572  0.3520  0.4058
16553SOL    HW156517  12.198   7.144   8.643  0.3589  0.3016  1.1138
16553SOL    HW256518  12.183   7.264   8.551 -0.1942 -0.4410  0.2081
16554SOL     OW56519   9.777   3.672   5.147  0.5707  0.0667  0.1730
16554SOL    HW156520   9.826   3.744   5.187  0.7297  0.0395  0.0293
16554SOL    HW256521   9.726   3.714   5.078 -1.3535  0.4667  1.7578
16555SOL     OW56522   5.578   6.044   8.169 -0.1457 -0.3123 -0.4828
16555SOL    HW156523   5.510   6.110   8.186 -0.6861 -0.7946 -0.7573
16555SOL    HW256524   5.575   5.987   8.246  1.9884  1.3481  0.9536
16556SOL     OW56525   3.695  12.130   8.383  0.6160 -0.4864 -0.4480
16556SOL    HW156526   3.633  12.057   8.391 -1.8664  1.3675 -1.4832
16556SOL    HW256527   3.676  12.185   8.459 -0.8511  1.3413 -2.0566
16557SOL     OW56528   9.282   4.919   9.260  0.7871 -0.2218 -0.1124
16557SOL    HW156529   9.359   4.876   9.298  0.8017  0.9817  1.3249
16557SOL    HW256530   9.317   4.969   9.186  1.3529  0.0365  0.3150
16558SOL     OW56531   9.633   1.132   0.065 -0.6757 -0.5582 -0.3243
16558SOL    HW156532   9.715   1.127   0.017 -0.5239 -1.4081  0.0168
16558SOL    HW256533   9.566   1.109   0.000 -0.8065  1.4184 -0.9587
16559SOL     OW56534   6.815   5.153  10.756 -0.0213  0.1977  0.2821
16559SOL    HW156535   6.900   5.148  10.799 -0.3408 -1.6787  0.7839
16559SOL    HW256536   6.802   5.246  10.739  1.9153  0.5658  0.6054
16560SOL     OW56537   3.947   1.511   1.519 -0.2988  0.1839  0.3377
16560SOL    HW156538   3.933   1.604   1.537  0.5734  0.2459  0.7422
16560SOL    HW256539   3.917   1.467   1.599 -2.5897 -0.0688 -0.5823
16561SOL     OW56540   1.456   1.467   7.902 -0.2912  0.4451 -0.1894
16561SOL    HW156541   1.390   1.442   7.837 -0.4898 -1.7960  0.7867
16561SOL    HW256542   1.534   1.486   7.851 -1.2891  1.8844 -1.2724
16562SOL     OW56543   5.095   4.195   3.288  0.8638  0.2009 -0.1237
16562SOL    HW156544   5.022   4.255   3.273 -0.2890 -0.7522  1.3673
16562SOL    HW256545   5.106   4.194   3.383 -0.2925 -3.1676  0.1140
16563SOL     OW56546   0.989   4.593   0.109 -0.1927  0.3056  0.7726
16563SOL    HW156547   1.005   4.566   0.019  1.2370  1.2117  0.7356
16563SOL    HW256548   0.896   4.572   0.124 -0.8001  1.3057 -1.2967
16564SOL     OW56549   6.117   6.603   4.337 -0.1158  0.2267 -0.0878
16564SOL    HW156550   6.122   6.680   4.393 -0.5801  1.1436 -1.2415
16564SOL    HW256551   6.041   6.620   4.281 -0.3420 -1.1724 -0.2352
16565SOL     OW56552   1.984   6.528   5.341  0.3886 -0.1859  0.1326
16565SOL    HW156553   2.066   6.517   5.388  0.6324 -0.9351 -0.4511
16565SOL    HW256554   1.990   6.469   5.266 -1.2783 -1.3937  0.8730
16566SOL     OW56555   8.929  12.068  11.176 -0.2184  0.4544  0.5064
16566SOL    HW156556   8.934  11.973  11.190 -1.2511  0.1724 -0.8207
16566SOL    HW256557   8.835  12.087  11.182 -0.0063  1.4343  0.8903
16567SOL     OW56558   5.541  10.582   7.906  0.3685  0.2142  0.3104
16567SOL    HW156559   5.450  10.599   7.930  0.4969  2.4969 -0.5935
16567SOL    HW256560   5.566  10.657   7.852  2.1994 -1.3349 -1.1204
16568SOL     OW56561   9.087   3.924   9.278  0.4677 -0.1147  0.6439
16568SOL    HW156562   9.041   3.966   9.206 -0.0090 -2.4720 -0.5156
16568SOL    HW256563   9.018   3.894   9.337  0.7395 -0.1924  0.9265
16569SOL     OW56564  12.206   1.879   1.052  0.0340  0.4144 -0.6056
16569SOL    HW156565  12.175   1.937   1.121  1.9668  1.1693 -0.3169
16569SOL    HW256566  12.267   1.820   1.096 -1.5751 -1.6505 -0.9747
16570SOL     OW56567   4.822   9.864   3.298 -0.2021  0.4179 -0.0990
16570SOL    HW156568   4.750   9.829   3.245  0.4795  0.0648 -0.7935
16570SOL    HW256569   4.898   9.865   3.240  0.7863 -0.8145  1.1114
16571SOL     OW56570  11.344  11.051   4.291  0.7829 -0.0859 -0.0067
16571SOL    HW156571  11.406  11.011   4.352  1.9236  1.8407  0.1943
16571SOL    HW256572  11.258  11.028   4.325  1.3878  0.4734  2.0307
16572SOL     OW56573   5.825   0.900   0.238 -0.3704 -0.0849 -0.1233
16572SOL    HW156574   5.787   0.988   0.237  1.0905  0.5727 -0.5855
16572SOL    HW256575   5.813   0.868   0.149 -2.0239 -0.8948  0.3516
16573SOL     OW56576  11.249   3.645   1.253 -0.1739 -0.3748 -0.7185
16573SOL    HW156577  11.315   3.575   1.259  0.1910 -0.2970 -2.9732
16573SOL    HW256578  11.171   3.608   1.294  1.1456 -0.5359  1.8744
16574SOL     OW56579   7.847   0.546   4.113 -0.9346  0.5500 -0.0678
16574SOL    HW156580   7.916   0.554   4.180 -1.2615 -0.5874  0.4205
16574SOL    HW256581   7.793   0.624   4.126 -1.8953 -0.3954  2.0577
16575SOL     OW56582   3.666   4.999   1.410  0.4284 -0.7266  0.0471
16575SOL    HW156583   3.616   5.018   1.490  0.2469 -0.2122 -0.1878
16575SOL    HW256584   3.699   4.910   1.424 -0.7454 -1.1691  0.1148
16576SOL     OW56585   0.318   1.119  10.705  0.4129 -0.5716  0.2828
16576SOL    HW156586   0.343   1.134  10.796  1.7453 -2.6681  0.3177
16576SOL    HW256587   0.372   1.179  10.655 -0.7206  0.9976  0.8497
16577SOL     OW56588   2.560   9.371   6.015 -0.1415 -0.4436  0.5328
16577SOL    HW156589   2.494   9.440   6.012 -0.5601 -0.8654 -1.2647
16577SOL    HW256590   2.619   9.397   6.087 -0.4745  1.5895  0.1384
16578SOL     OW56591   6.000   1.395   0.894 -0.1523  0.5748  0.4129
16578SOL    HW156592   6.025   1.303   0.901 -2.4924 -0.0589  1.4431
16578SOL    HW256593   5.938   1.398   0.821 -0.2060  1.2849  0.4798
16579SOL     OW56594   5.797  10.614  11.600 -0.1583  0.0336  0.2186
16579SOL    HW156595   5.850  10.546  11.641 -0.7764 -0.2623  0.5234
16579SOL    HW256596   5.824  10.612  11.508 -1.6888 -2.0919 -0.2427
16580SOL     OW56597   2.773   0.617   6.392  0.0283  0.0667 -0.3200
16580SOL    HW156598   2.797   0.557   6.462 -0.2560  1.2144  0.7921
16580SOL    HW256599   2.856   0.654   6.362  0.0544  0.5280  0.3033
16581SOL     OW56600  11.297   6.643   6.061  0.7836  0.6146 -0.0099
16581SOL    HW156601  11.337   6.556   6.059  1.4220  0.8165  1.7859
16581SOL    HW256602  11.321   6.683   5.978 -0.5080 -1.3161 -1.3996
16582SOL     OW56603   4.348   1.429  10.593  0.8812  0.1013  0.0555
16582SOL    HW156604   4.441   1.450  10.602  0.9006  0.2470 -0.4219
16582SOL    HW256605   4.309   1.510  10.559  0.2506  0.6574  2.0044
16583SOL     OW56606   3.344  10.704   0.284 -0.2263 -0.1541  0.3988
16583SOL    HW156607   3.256  10.667   0.275 -0.5924  0.9179 -0.7316
16583SOL    HW256608   3.402  10.629   0.279 -1.0538 -0.8196  0.5282
16584SOL     OW56609   5.777   5.791   2.474 -0.3786  0.3101 -0.0332
16584SOL    HW156610   5.869   5.806   2.497 -0.4366  0.4596  0.1048
16584SOL    HW256611   5.761   5.700   2.497 -0.0503  0.0506 -0.7794
16585SOL     OW56612   1.363  10.739   5.335 -0.4478 -0.2733 -0.1792
16585SOL    HW156613   1.292  10.687   5.296 -1.6166  0.5494  0.7946
16585SOL    HW256614   1.337  10.830   5.321  0.0989  0.0380  0.7320
16586SOL     OW56615   3.122   3.355   7.211 -0.5137  0.2879  0.1841
16586SOL    HW156616   3.158   3.443   7.221  0.0946  0.0792 -0.0922
16586SOL    HW256617   3.163   3.304   7.281 -0.3371  0.0667 -0.0786
16587SOL     OW56618   7.898   8.041   8.489  0.0866 -0.2261 -0.3892
16587SOL    HW156619   7.880   8.020   8.581  0.5640  0.0675 -0.2236
16587SOL    HW256620   7.947   7.966   8.456 -0.5760 -0.5870 -0.5662
16588SOL     OW56621   1.288   1.721   3.761  0.3031 -0.2903 -0.1173
16588SOL    HW156622   1.359   1.657   3.757  1.1498  0.5895  0.3236
16588SOL    HW256623   1.258   1.731   3.671  1.2389 -0.1426 -0.4244
16589SOL     OW56624  10.436   7.026   0.825  0.4801  0.3436  0.0376
16589SOL    HW156625  10.527   7.041   0.847  0.4024  1.2428 -0.2262
16589SOL    HW256626  10.398   7.113   0.815  0.0520 -0.0054 -1.7587
16590SOL     OW56627   1.799   0.966   0.455 -0.1951  0.5453 -0.3490
16590SOL    HW156628   1.815   0.926   0.541  2.8602 -1.0517 -1.5162
16590SOL    HW256629   1.836   1.054   0.463  0.7361  0.1569 -0.1769
16591SOL     OW56630   8.851   3.913   9.685 -0.5272  0.2955  0.0337
16591SOL    HW156631   8.815   3.826   9.667 -0.0781 -0.3197  1.8479
16591SOL    HW256632   8.799   3.946   9.758  1.0672  0.3214  1.2374
16592SOL     OW56633   0.344   2.605   7.487  0.0175  0.0696  0.1633
16592SOL    HW156634   0.267   2.619   7.432 -0.4879 -0.7739  0.6187
16592SOL    HW256635   0.385   2.525   7.452  0.4062  0.2397  0.2239
16593SOL     OW56636   9.325  10.359   5.657  1.4124  0.1485  0.1083
16593SOL    HW156637   9.276  10.353   5.739 -1.7402 -0.9502 -1.7079
16593SOL    HW256638   9.344  10.452   5.648  0.2180  0.5340  1.2003
16594SOL     OW56639  11.453   9.831   4.585 -0.2888 -0.0096 -0.3331
16594SOL    HW156640  11.416   9.919   4.580  1.3142  0.8686  1.7801
16594SOL    HW256641  11.490   9.815   4.498 -0.0813  1.6504 -0.5660
16595SOL     OW56642   2.275   7.171   6.583 -0.4366 -0.2158  0.2244
16595SOL    HW156643   2.205   7.177   6.518 -1.1853  1.2254  1.1111
16595SOL    HW256644   2.342   7.117   6.541 -0.2197  1.8862 -2.3887
16596SOL     OW56645  12.461   8.100  10.558 -0.7315 -0.1599  0.1331
16596SOL    HW156646  12.464   8.036  10.629 -1.9585 -1.9989 -1.3327
16596SOL    HW256647  12.543   8.088  10.511 -0.6440 -0.1497  0.2843
16597SOL     OW56648   3.163  11.329   5.701  0.0443  0.9903  0.1704
16597SOL    HW156649   3.171  11.234   5.710  0.4838  0.9223 -0.7885
16597SOL    HW256650   3.147  11.343   5.607  0.5460  1.8966  0.2104
16598SOL     OW56651   9.661   3.486   4.081  0.0472  0.1235  0.1484
16598SOL    HW156652   9.604   3.418   4.117  0.2033 -0.8212 -1.3031
16598SOL    HW256653   9.634   3.494   3.989  0.4245  1.6260  0.1404
16599SOL     OW56654   6.503   9.904   3.241 -0.0955 -0.4694 -1.0271
16599SOL    HW156655   6.557   9.980   3.263 -1.1615 -0.2423  1.1057
16599SOL    HW256656   6.506   9.849   3.319 -1.4292 -1.3547 -1.5582
16600SOL     OW56657   1.284   0.465   1.254  0.1317  0.7812 -0.1098
16600SOL    HW156658   1.336   0.524   1.199 -1.1325  1.5777 -0.4921
16600SOL    HW256659   1.217   0.521   1.292  1.5913  0.4838  3.1938
16601SOL     OW56660   9.892  11.661   3.421 -0.0316 -0.1235  0.2573
16601SOL    HW156661   9.896  11.568   3.399  3.3273  0.0352 -0.3783
16601SOL    HW256662   9.926  11.666   3.510  2.5190  0.5907 -0.6447
16602SOL     OW56663   8.400   4.475   3.084  0.2316  0.3371  0.0938
16602SOL    HW156664   8.355   4.560   3.080  0.4657  0.4160 -1.0422
16602SOL    HW256665   8.486   4.496   3.122  0.0098  0.4728  0.5378
16603SOL     OW56666  10.172   0.950   1.036 -0.1562 -0.0731  0.2762
16603SOL    HW156667  10.201   0.904   0.957 -0.3490  1.6795 -0.8618
16603SOL    HW256668  10.180   0.885   1.106 -0.8008 -1.9464 -1.3098
16604SOL     OW56669   6.394   6.039  10.636 -0.1346 -0.1851 -0.1774
16604SOL    HW156670   6.316   6.044  10.580  0.1733  0.3442 -0.5677
16604SOL    HW256671   6.360   6.034  10.725 -0.6964 -2.8776 -0.4558
16605SOL     OW56672   9.568   0.264   3.346 -0.5878 -0.0676  0.1416
16605SOL    HW156673   9.550   0.357   3.339 -1.3347 -0.2745 -0.9102
16605SOL    HW256674   9.585   0.236   3.256 -1.4331 -1.1413  0.2989
16606SOL     OW56675   1.451   7.451   1.439  0.1121 -0.2073  0.3513
16606SOL    HW156676   1.525   7.508   1.415  0.6234 -0.7996  0.4872
16606SOL    HW256677   1.374   7.506   1.428  0.4573  0.0429 -1.0825
16607SOL     OW56678   5.869   2.743   6.566 -0.0333 -0.5538  0.1322
16607SOL    HW156679   5.791   2.775   6.520  1.1824  1.1238 -0.8994
16607SOL    HW256680   5.940   2.755   6.502  1.1901 -1.3016  1.3141
16608SOL     OW56681   4.212   6.760   1.923  0.2646  0.0076  0.2666
16608SOL    HW156682   4.182   6.746   1.833  3.0284  0.2023 -0.8009
16608SOL    HW256683   4.133   6.755   1.976 -1.2079 -2.3294 -1.9036
16609SOL     OW56684   8.545  11.918   5.575 -0.7800  0.0045 -0.1605
16609SOL    HW156685   8.575  11.961   5.655  0.1097 -0.4484 -0.2451
16609SOL    HW256686   8.589  11.833   5.575 -0.6482  0.0651 -1.2196
16610SOL     OW56687  10.000   0.623   2.122 -0.1727  0.0096  0.8440
16610SOL    HW156688  10.093   0.599   2.120 -0.6959 -2.3296  1.1148
16610SOL    HW256689   9.969   0.606   2.033 -0.3058  1.0849  0.6701
16611SOL     OW56690  10.437   3.267  10.780 -0.0497 -0.0410  0.3456
16611SOL    HW156691  10.367   3.251  10.843 -0.7712 -1.4294 -0.7405
16611SOL    HW256692  10.417   3.354  10.744  0.4983  0.8726  2.1120
16612SOL     OW56693  10.248  11.721   2.476 -0.7311 -0.4917 -0.0007
16612SOL    HW156694  10.265  11.639   2.430  1.7975  0.1299 -0.3339
16612SOL    HW256695  10.294  11.788   2.425 -1.5320  0.9128  1.0270
16613SOL     OW56696  11.897   5.094   6.886  0.2576  0.1049 -1.3020
16613SOL    HW156697  11.933   5.111   6.973 -1.8073 -0.5120 -0.2618
16613SOL    HW256698  11.974   5.085   6.829  1.6866 -0.1705  0.5782
16614SOL     OW56699   1.051   5.019   6.846  0.6511  0.3847 -0.8241
16614SOL    HW156700   1.026   5.078   6.917  0.3233 -0.1878 -0.4542
16614SOL    HW256701   1.083   5.077   6.777  1.0145  0.9439 -0.1961
16615SOL     OW56702   8.414   2.688   9.876  0.1027 -0.2573 -0.2273
16615SOL    HW156703   8.391   2.757   9.938  0.2055 -1.1228  0.8051
16615SOL    HW256704   8.493   2.647   9.913  0.2545 -0.6953 -1.0047
16616SOL     OW56705  10.648   6.131  11.927  0.2852 -0.2773  0.5750
16616SOL    HW156706  10.608   6.150  11.843  0.8697 -0.6051  0.2192
16616SOL    HW256707  10.685   6.044  11.917  1.7368  0.3036  0.6432
16617SOL     OW56708   4.292   0.649   1.330  0.5553 -0.0400 -0.1688
16617SOL    HW156709   4.228   0.600   1.383 -1.5920 -0.5824 -2.9942
16617SOL    HW256710   4.369   0.594   1.328  0.2685 -0.5481  1.3829
16618SOL     OW56711   4.187  11.329  10.053 -0.2650 -0.1768 -0.2120
16618SOL    HW156712   4.272  11.369  10.069 -0.3523 -0.5832  1.4961
16618SOL    HW256713   4.167  11.281  10.134 -2.2792  0.2054 -0.4139
16619SOL     OW56714   0.727   5.707   7.016 -0.2966  0.7448  0.6391
16619SOL    HW156715   0.791   5.743   6.954 -0.2045  0.5162  0.5975
16619SOL    HW256716   0.652   5.765   7.010  0.0277  1.1964  0.9181
16620SOL     OW56717   2.700   2.575  11.029 -0.0764  0.5620  0.1106
16620SOL    HW156718   2.724   2.542  10.943  1.8678  1.2615  0.3395
16620SOL    HW256719   2.629   2.637  11.012 -0.7758 -0.4512 -0.7840
16621SOL     OW56720   1.398   9.067  11.146 -0.0552  0.5727 -0.3200
16621SOL    HW156721   1.330   9.088  11.082 -0.5027 -0.6699 -0.2904
16621SOL    HW256722   1.395   9.139  11.209  0.9862  2.2849 -2.1100
16622SOL     OW56723   5.683   1.491   4.787  0.1356 -0.4090  0.1086
16622SOL    HW156724   5.729   1.409   4.801  0.3166 -0.3566 -0.1818
16622SOL    HW256725   5.651   1.486   4.697 -0.7790 -0.6204  0.4271
16623SOL     OW56726  10.895   3.489   8.271  0.8402  0.1612 -0.2208
16623SOL    HW156727  10.957   3.561   8.276 -0.3140  1.3185 -1.5786
16623SOL    HW256728  10.866   3.489   8.179  1.3646 -2.5439 -0.4712
16624SOL     OW56729   7.023   3.818   2.224 -0.3279 -0.0515  0.1230
16624SOL    HW156730   7.065   3.745   2.179  2.8949  1.8833 -0.3741
16624SOL    HW256731   7.059   3.815   2.313 -2.0773 -0.4161  0.8562
16625SOL     OW56732   5.532  10.076   5.479 -0.5357 -0.3265  0.1687
16625SOL    HW156733   5.500   9.998   5.523 -0.5720 -0.2523  0.2750
16625SOL    HW256734   5.454  10.121   5.448 -0.5261 -0.2315  0.2814
16626SOL     OW56735   7.828  12.370   3.086 -0.0805  0.4673 -0.0700
16626SOL    HW156736   7.884  12.425   3.031  1.4094 -0.5631  0.3671
16626SOL    HW256737   7.762  12.430   3.120 -1.5847  1.0557 -3.5559
16627SOL     OW56738  10.662   5.256   0.477 -0.5037  0.4734 -0.6350
16627SOL    HW156739  10.611   5.180   0.508 -0.3640  0.1905 -1.0871
16627SOL    HW256740  10.668   5.313   0.554 -2.0555  0.8150 -0.7328
16628SOL     OW56741  12.202  10.579  12.107  0.0900 -0.1259  0.1747
16628SOL    HW156742  12.129  10.577  12.045 -0.1583  0.8853  0.4117
16628SOL    HW256743  12.232  10.489  12.112 -0.8626 -0.4811 -0.2617
16629SOL     OW56744   7.078   5.974   3.445 -0.2411  0.8166  1.0212
16629SOL    HW156745   7.154   5.941   3.398  0.0828  2.9492 -0.1179
16629SOL    HW256746   7.087   5.940   3.534 -0.6419 -3.0062 -0.2238
16630SOL     OW56747   2.452   5.790   0.473 -0.2721 -0.0795 -0.5402
16630SOL    HW156748   2.399   5.800   0.394 -1.1965  0.3255  0.1238
16630SOL    HW256749   2.469   5.880   0.502 -1.1152 -0.2431  0.4938
16631SOL     OW56750  11.300   7.880  11.801  0.0375 -0.0034 -0.2870
16631SOL    HW156751  11.305   7.974  11.783  0.1504  0.0905  0.2368
16631SOL    HW256752  11.334   7.870  11.890  2.3633 -0.8171 -1.1774
16632SOL     OW56753   5.376   0.268   3.208  0.7390  0.2828  0.2071
16632SOL    HW156754   5.406   0.299   3.122 -2.6027  0.9606 -0.8455
16632SOL    HW256755   5.335   0.345   3.249 -1.2241 -0.9302  0.6687
16633SOL     OW56756   4.221   1.005   1.540 -0.8276  0.2075 -0.4232
16633SOL    HW156757   4.173   1.015   1.458 -0.3547  0.7343 -0.6501
16633SOL    HW256758   4.160   1.032   1.608 -1.3637 -0.6456 -0.5587
16634SOL     OW56759  11.615   5.541  12.550  0.2544 -0.0079  0.2216
16634SOL    HW156760  11.522   5.560  12.565  0.3520 -0.3150  1.2658
16634SOL    HW256761  11.661   5.593  12.616  0.7288 -1.0958  0.7755
16635SOL     OW56762   7.162   0.127   5.625  0.0800  0.2538 -0.2513
16635SOL    HW156763   7.183   0.048   5.675 -0.8935 -0.2648 -0.6445
16635SOL    HW256764   7.247   0.166   5.607  0.5000  0.0507  1.1495
16636SOL     OW56765   2.831  10.169  10.577 -0.4569  0.0712 -0.0468
16636SOL    HW156766   2.778  10.103  10.622  0.9408 -1.8451 -1.0965
16636SOL    HW256767   2.850  10.131  10.492  0.9964  1.5410 -0.4245
16637SOL     OW56768  10.406  11.865   0.090 -0.2800 -0.1592  0.3001
16637SOL    HW156769  10.392  11.786   0.143  1.1347 -1.0120 -0.5488
16637SOL    HW256770  10.379  11.840   0.002  2.7947 -0.6921 -0.6078
16638SOL     OW56771   2.716   2.075   8.017  0.0136 -1.1519 -0.1534
16638SOL    HW156772   2.680   2.103   8.101 -0.1014 -1.6421 -0.0383
16638SOL    HW256773   2.805   2.110   8.017 -0.3157 -0.3068 -0.2551
16639SOL     OW56774   7.508   1.276  12.122  0.6602 -0.0351  0.3646
16639SOL    HW156775   7.498   1.365  12.156  0.8126 -0.2783  1.0713
16639SOL    HW256776   7.435   1.266  12.060  0.0705  0.2558  0.9897
16640SOL     OW56777   5.738  10.215   4.539  0.0704 -0.1378  0.5259
16640SOL    HW156778   5.661  10.250   4.583  0.9954  0.3112  1.8581
16640SOL    HW256779   5.707  10.136   4.495 -1.2929  0.4251  0.4335
16641SOL     OW56780   1.674  10.746   8.947 -0.1753  0.5002  0.8020
16641SOL    HW156781   1.725  10.697   9.011  0.6738  0.3310  0.0155
16641SOL    HW256782   1.647  10.681   8.883  0.6707  0.9903 -0.0705
16642SOL     OW56783  10.229   6.108   5.217 -0.5207  0.2377  0.5732
16642SOL    HW156784  10.265   6.034   5.265 -0.7372 -0.5431 -0.4317
16642SOL    HW256785  10.301   6.172   5.214 -0.2995  0.0399  1.3552
16643SOL     OW56786   5.657   7.775   4.707 -0.0842 -0.0808  0.3873
16643SOL    HW156787   5.741   7.821   4.708 -1.4219  2.5494  0.8488
16643SOL    HW256788   5.637   7.758   4.799  0.0641 -1.0096  0.2597
16644SOL     OW56789   4.938   2.671   5.715  0.3031  0.6909  0.0606
16644SOL    HW156790   4.977   2.595   5.672  0.7220  1.1543 -0.4052
16644SOL    HW256791   4.850   2.643   5.739  0.8900 -0.3617  1.0898
16645SOL     OW56792   6.970   2.549   9.230 -0.1508  0.0759 -0.4299
16645SOL    HW156793   6.898   2.486   9.229 -0.2519  0.1390 -2.9406
16645SOL    HW256794   6.966   2.588   9.318 -2.1693 -1.0375  0.0446
16646SOL     OW56795   5.293   9.103  12.031 -0.0879 -0.1291 -0.2271
16646SOL    HW156796   5.206   9.094  12.070 -1.2755 -1.9553 -2.9936
16646SOL    HW256797   5.294   9.191  11.994 -0.1152  0.4594  1.0967
16647SOL     OW56798   7.555   0.405   8.012 -0.3054 -0.1934  0.1351
16647SOL    HW156799   7.480   0.398   8.071 -0.0561  0.8343  0.5884
16647SOL    HW256800   7.624   0.354   8.055 -0.7728 -1.2827 -0.3650
16648SOL     OW56801   5.757   7.241   1.169 -0.2613  0.1164  0.2697
16648SOL    HW156802   5.772   7.312   1.232  3.6461 -0.0659 -0.2328
16648SOL    HW256803   5.713   7.284   1.095  2.2103  2.2163 -0.1402
16649SOL     OW56804  11.354   4.850   7.488  0.2378  0.6463 -0.0703
16649SOL    HW156805  11.305   4.785   7.538 -0.1861  0.4626 -0.7139
16649SOL    HW256806  11.430   4.802   7.455 -0.3217  0.3381 -0.9446
16650SOL     OW56807   1.016   3.673  10.873 -0.5764 -0.6040 -0.4943
16650SOL    HW156808   1.103   3.689  10.836 -1.1110  0.5098 -1.3376
16650SOL    HW256809   0.980   3.602  10.819 -0.2367 -0.9998 -0.2064
16651SOL     OW56810   1.386   1.259   8.914  0.3812 -0.3439  0.8021
16651SOL    HW156811   1.311   1.299   8.958 -0.3448 -0.0622 -0.6419
16651SOL    HW256812   1.463   1.299   8.955 -0.3013  1.3489  0.4854
16652SOL     OW56813  11.979  11.019   0.790 -0.8520  0.1529 -0.1123
16652SOL    HW156814  12.066  10.980   0.799 -0.4865  0.7845 -0.8522
16652SOL    HW256815  11.942  11.014   0.879  0.0457  0.1427  0.2737
16653SOL     OW56816   1.074  10.882  12.442 -0.0038 -0.3234 -0.2574
16653SOL    HW156817   1.142  10.817  12.422 -0.5936 -1.3872  1.0129
16653SOL    HW256818   1.019  10.839  12.508 -0.4374  1.4649  0.6012
16654SOL     OW56819   4.315   6.424   2.051  0.3497 -0.1004  0.2975
16654SOL    HW156820   4.276   6.368   2.118 -0.2824 -0.6073 -0.4679
16654SOL    HW256821   4.241   6.447   1.994 -0.0768  3.9933  2.1939
16655SOL     OW56822  10.581   2.712   9.733  1.0310 -0.2089  0.5047
16655SOL    HW156823  10.487   2.697   9.740  0.7195  1.6582  0.8572
16655SOL    HW256824  10.617   2.629   9.701 -0.8906 -0.5337 -0.9765
16656SOL     OW56825   5.036   8.070   6.839  0.3067 -0.6648 -1.2348
16656SOL    HW156826   4.960   8.032   6.795 -3.3633 -0.6190  4.0947
16656SOL    HW256827   5.008   8.159   6.862  0.7128 -1.4374  3.0028
16657SOL     OW56828   1.367   2.564   0.873  0.1462  0.3209 -0.2697
16657SOL    HW156829   1.319   2.485   0.845 -0.1035 -0.4458  2.1262
16657SOL    HW256830   1.443   2.530   0.920  1.2837  1.5464 -1.1838
16658SOL     OW56831   3.692  11.385   7.315  0.2336 -0.4272 -0.4693
16658SOL    HW156832   3.625  11.317   7.325 -0.1118 -0.0263 -0.0311
16658SOL    HW256833   3.650  11.465   7.346  0.9280 -0.1749 -0.1581
16659SOL     OW56834   3.999   4.639   1.717 -0.2735 -0.2283  0.2563
16659SOL    HW156835   3.985   4.551   1.682  0.9327  0.8029 -3.2018
16659SOL    HW256836   3.911   4.674   1.732 -0.7662 -2.0884  2.1037
16660SOL     OW56837  11.635   6.489  10.895  0.7321 -0.1520  0.7792
16660SOL    HW156838  11.640   6.578  10.860 -2.4763  0.6393  1.9928
16660SOL    HW256839  11.592   6.499  10.980 -1.0261 -2.9846  0.3500
16661SOL     OW56840   6.518   0.979  10.777  0.1171  0.2459 -0.5815
16661SOL    HW156841   6.577   0.912  10.744 -1.6430 -0.6549 -2.0726
16661SOL    HW256842   6.538   0.984  10.871  1.3865 -1.2116 -0.7289
16662SOL     OW56843   3.082  10.655   7.024  0.0905  0.8470 -0.1041
16662SOL    HW156844   3.057  10.566   6.999  1.6097  0.1816  0.5852
16662SOL    HW256845   3.146  10.642   7.095  1.1200  2.4456 -0.6983
16663SOL     OW56846  10.368   6.438  12.430  0.0324 -0.3951 -0.3911
16663SOL    HW156847  10.335   6.462  12.517 -1.6372 -1.9938 -0.5415
16663SOL    HW256848  10.298   6.462  12.370  0.5071 -0.8053 -1.1255
16664SOL     OW56849   4.293   7.664   4.754  0.0442 -0.6644 -0.3512
16664SOL    HW156850   4.228   7.615   4.805 -0.1086  1.2741  1.4532
16664SOL    HW256851   4.330   7.599   4.694 -1.6119 -2.4576  0.4439
16665SOL     OW56852   3.582   3.102   2.615 -0.8884 -0.2028  0.6169
16665SOL    HW156853   3.650   3.169   2.614 -1.0250 -0.0347  1.5248
16665SOL    HW256854   3.625   3.023   2.646 -0.3190 -1.0470 -2.0519
16666SOL     OW56855   2.690   4.043  10.569  0.3289 -0.3228  0.1125
16666SOL    HW156856   2.667   4.136  10.562 -0.4973 -0.6326 -4.0207
16666SOL    HW256857   2.763   4.032  10.509  1.6990 -2.1031  1.9688
16667SOL     OW56858   5.198   5.189  11.156  0.1191  0.1089 -0.5369
16667SOL    HW156859   5.133   5.163  11.222 -1.9007  0.8519 -2.1429
16667SOL    HW256860   5.173   5.140  11.078  1.8635  0.0084 -1.0686
16668SOL     OW56861   9.100   0.754   6.525 -0.1686  0.5294 -0.0776
16668SOL    HW156862   9.070   0.780   6.612 -0.0620  2.4867 -0.5778
16668SOL    HW256863   9.021   0.726   6.480 -0.2356 -0.4471  0.6007
16669SOL     OW56864   2.833   8.371   9.350  0.4148 -0.3634  0.1706
16669SOL    HW156865   2.791   8.285   9.350  0.7804 -0.5793 -1.4945
16669SOL    HW256866   2.761   8.433   9.355 -0.1173 -0.7428 -1.8239
16670SOL     OW56867   3.059   5.546   0.882  0.4259  0.0521 -0.1702
16670SOL    HW156868   3.008   5.599   0.821  0.3465  0.1200 -0.0469
16670SOL    HW256869   3.057   5.458   0.845  0.4158  0.1013 -0.2878
16671SOL     OW56870   8.897   8.952   8.486 -0.3168 -0.8296 -0.5830
16671SOL    HW156871   8.978   8.995   8.460 -0.7537 -0.9940 -2.3577
16671SOL    HW256872   8.885   8.882   8.421 -0.3872 -2.7389  1.3523
16672SOL     OW56873   1.995   5.276  12.139  0.3538  0.1113 -0.2784
16672SOL    HW156874   1.962   5.341  12.201 -3.0685 -1.5146 -0.1593
16672SOL    HW256875   1.991   5.193  12.186  0.5896 -0.7519 -1.7096
16673SOL     OW56876   7.615   4.795   0.580 -0.3889 -0.6633 -0.4318
16673SOL    HW156877   7.624   4.891   0.579 -0.8287 -0.6043  0.2412
16673SOL    HW256878   7.568   4.775   0.499  0.1584 -0.3640 -0.8294
16674SOL     OW56879   8.135   2.464  12.045  0.1918  0.2314  0.2461
16674SOL    HW156880   8.159   2.549  12.007 -0.3844  0.4210  0.2953
16674SOL    HW256881   8.040   2.460  12.036  0.0087  0.3502  1.7994
16675SOL     OW56882   3.777   9.770   0.780  0.3302 -0.0932  0.5182
16675SOL    HW156883   3.804   9.691   0.734 -0.3905 -0.3825  0.5697
16675SOL    HW256884   3.788   9.840   0.716 -1.9944 -0.6724 -0.6536
16676SOL     OW56885   2.028   1.133   6.348  0.0622 -0.0079 -0.1341
16676SOL    HW156886   1.983   1.190   6.284 -0.3530  0.3476  0.4620
16676SOL    HW256887   2.082   1.193   6.399  1.3801 -0.4523 -0.9449
16677SOL     OW56888   1.225   3.088   0.937 -0.0652 -0.1557  0.1719
16677SOL    HW156889   1.223   3.014   0.998  0.7573 -0.4429 -0.1350
16677SOL    HW256890   1.193   3.162   0.989 -1.4679 -0.8311  0.3088
16678SOL     OW56891  11.394   3.621   8.717 -0.0596  0.4039 -0.0496
16678SOL    HW156892  11.425   3.533   8.737 -2.3697 -0.6289 -0.6591
16678SOL    HW256893  11.450   3.650   8.644  0.9897 -0.3663  0.4236
16679SOL     OW56894   5.302   6.868  11.241 -0.2642 -0.3656  0.4513
16679SOL    HW156895   5.339   6.938  11.294  0.1905 -0.3723  0.1469
16679SOL    HW256896   5.347   6.875  11.157 -2.2007  0.7875 -0.5713
16680SOL     OW56897   1.746   1.096   2.529  0.1112  0.8492 -0.2290
16680SOL    HW156898   1.766   1.020   2.584  0.8827  0.8072 -0.5602
16680SOL    HW256899   1.781   1.073   2.443  1.1313  1.9296 -0.1201
16681SOL     OW56900   5.685   8.214   8.919 -1.0848  0.0938 -0.1017
16681SOL    HW156901   5.755   8.278   8.924 -1.7246  0.7617  0.5332
16681SOL    HW256902   5.662   8.211   8.826  1.2562 -1.7912 -0.7208
16682SOL     OW56903  12.281   6.738   3.748 -0.8774 -0.2490 -0.2914
16682SOL    HW156904  12.306   6.802   3.815 -2.1882 -1.3922  1.3651
16682SOL    HW256905  12.363   6.693   3.727  0.0688  1.8659 -1.4768
16683SOL     OW56906  10.323   3.786  12.222 -0.2659 -0.7687  1.0045
16683SOL    HW156907  10.312   3.706  12.170  0.2208 -0.7163  0.8168
16683SOL    HW256908  10.355   3.755  12.306  0.7619 -0.7152  0.6477
16684SOL     OW56909  11.041   1.440   4.699  0.2282  0.0438 -0.4156
16684SOL    HW156910  11.031   1.522   4.748  1.3627  0.9060 -1.5609
16684SOL    HW256911  10.953   1.405   4.693 -0.0742  0.3133  1.5188
16685SOL     OW56912   3.247   1.672   1.327  0.2264  0.7061 -0.2787
16685SOL    HW156913   3.199   1.656   1.246  0.8659  0.2630 -0.5784
16685SOL    HW256914   3.334   1.634   1.312  0.0517 -0.2854  0.9690
16686SOL     OW56915   9.408   0.794   6.785  0.0730 -0.0714  0.3556
16686SOL    HW156916   9.427   0.741   6.708  0.4821 -0.3156  0.6210
16686SOL    HW256917   9.321   0.765   6.814 -0.3075  0.3868 -0.3139
16687SOL     OW56918   8.321   7.541  10.195 -0.7856  0.0074  0.0044
16687SOL    HW156919   8.347   7.594  10.120  0.8487  1.1985  1.3658
16687SOL    HW256920   8.269   7.470  10.157 -2.2991  2.0452 -1.9634
16688SOL     OW56921   5.105   0.799   8.432 -0.0036 -0.6965 -0.3057
16688SOL    HW156922   5.111   0.794   8.528  0.9876  1.4254 -0.1855
16688SOL    HW256923   5.098   0.893   8.414 -0.7780 -1.0991 -2.3061
16689SOL     OW56924   2.579   3.373   1.964  0.9700 -0.0915 -0.3222
16689SOL    HW156925   2.647   3.424   1.921  3.2521 -2.6827 -0.0669
16689SOL    HW256926   2.585   3.397   2.056  1.1938  0.0342 -0.3700
16690SOL     OW56927   9.056  11.494   1.209  0.1293  0.3674 -0.2566
16690SOL    HW156928   9.040  11.501   1.115  1.5188  1.1475 -0.4662
16690SOL    HW256929   9.107  11.413   1.218  2.4443  1.7047 -0.5851
16691SOL     OW56930   8.500   8.969  11.179 -0.6730  0.5357 -0.3272
16691SOL    HW156931   8.509   9.007  11.092  0.9346 -1.1000 -0.9442
16691SOL    HW256932   8.568   8.902  11.183 -3.1390 -2.1279  0.7652
16692SOL     OW56933   5.960   6.828  12.352  0.0600 -0.0905 -0.3217
16692SOL    HW156934   5.912   6.847  12.271 -0.5587  1.3106  0.3453
16692SOL    HW256935   6.052   6.842  12.328 -0.2497  2.5133 -0.2799
16693SOL     OW56936  11.764   6.957   8.693  0.1745 -0.1217 -0.4462
16693SOL    HW156937  11.840   7.010   8.716 -1.4065  1.9840  0.3021
16693SOL    HW256938  11.730   6.998   8.613 -1.5636  0.6347  0.6167
16694SOL     OW56939   9.280   7.823   1.860  0.1335  0.1770 -0.2030
16694SOL    HW156940   9.237   7.832   1.946  1.8909  2.2653  0.5482
16694SOL    HW256941   9.244   7.742   1.824 -2.8764  0.7366  1.2091
16695SOL     OW56942   7.267   5.268   6.191  0.0013 -0.5368 -0.0367
16695SOL    HW156943   7.307   5.225   6.116 -0.0584 -1.3831  0.3932
16695SOL    HW256944   7.173   5.263   6.175  0.0101 -0.0859 -0.2369
16696SOL     OW56945   9.980   1.487  11.334  0.0533  0.0952  0.1714
16696SOL    HW156946  10.031   1.563  11.364  0.5652 -0.2985  0.3030
16696SOL    HW256947  10.041   1.437  11.280 -0.1178 -0.5146  0.5396
16697SOL     OW56948   4.735   2.690   3.643  0.3481 -0.2142  0.1797
16697SOL    HW156949   4.743   2.655   3.732 -0.7887 -1.2917 -0.1118
16697SOL    HW256950   4.776   2.623   3.588 -0.7236 -0.5063 -0.2790
16698SOL     OW56951   6.133   4.057   0.464  0.2017 -0.2938  0.6353
16698SOL    HW156952   6.156   3.976   0.418 -1.1760  0.0473 -0.7411
16698SOL    HW256953   6.053   4.087   0.421 -0.0622  1.1008  2.0106
16699SOL     OW56954  10.224  10.665   0.652  0.8669  0.3416 -0.2899
16699SOL    HW156955  10.207  10.632   0.564 -1.3011  0.5556 -0.0030
16699SOL    HW256956  10.310  10.630   0.674  1.0606 -0.4754 -2.1265
16700SOL     OW56957   4.815  10.047   3.901 -0.2513  0.0063 -0.0779
16700SOL    HW156958   4.897  10.091   3.878  1.3574 -0.9805  3.1349
16700SOL    HW256959   4.750  10.085   3.842  2.0245  2.6867 -1.0852
16701SOL     OW56960   8.965   3.418   0.065 -0.0866  0.2663  0.1440
16701SOL    HW156961   8.886   3.443   0.016  0.0149  0.7580  0.2269
16701SOL    HW256962   9.004   3.501   0.091  1.0542  0.0707 -0.8306
16702SOL     OW56963   6.821   2.316   1.911  0.2825 -0.2015 -0.2763
16702SOL    HW156964   6.746   2.269   1.875 -0.5107  1.8422 -1.4374
16702SOL    HW256965   6.896   2.262   1.887 -0.6753 -1.5880 -0.2974
16703SOL     OW56966   9.263   6.062   1.642  0.6322  0.0101 -0.0420
16703SOL    HW156967   9.333   6.004   1.612 -0.3626 -0.3148 -1.8263
16703SOL    HW256968   9.305   6.118   1.707  2.3576 -0.6810 -0.5088
16704SOL     OW56969   9.265   6.505   0.396 -1.1906  0.2521  0.1026
16704SOL    HW156970   9.231   6.583   0.439 -1.3378 -0.3738  1.1598
16704SOL    HW256971   9.314   6.459   0.464 -0.1928 -0.0422 -0.7876
16705SOL     OW56972   3.353   5.052   7.149 -0.3081  0.3756 -0.4055
16705SOL    HW156973   3.416   5.060   7.221 -0.2405 -0.2097 -0.3985
16705SOL    HW256974   3.312   5.138   7.144  0.0151  0.5599  0.0327
16706SOL     OW56975   3.944   4.412   0.674  0.6068 -0.3931 -0.5563
16706SOL    HW156976   3.890   4.337   0.695  0.7482  0.0127  1.5505
16706SOL    HW256977   3.883   4.478   0.641  0.4591 -1.3174 -2.2319
16707SOL     OW56978  10.270   2.431   7.864  0.5296  0.1139 -0.3018
16707SOL    HW156979  10.214   2.436   7.787  1.5423  1.2880 -0.9968
16707SOL    HW256980  10.220   2.472   7.934 -0.5681 -1.3282 -0.1997
16708SOL     OW56981   7.432  12.365   4.227 -0.3446 -0.1553  0.3888
16708SOL    HW156982   7.519  12.382   4.264 -0.6694  0.7244  0.7830
16708SOL    HW256983   7.438  12.399   4.137  0.1590 -1.4483 -0.0895
16709SOL     OW56984   3.220   8.781   3.140  0.1205  0.0201 -0.0188
16709SOL    HW156985   3.281   8.848   3.172  0.8902 -0.4251 -0.5032
16709SOL    HW256986   3.276   8.722   3.089 -0.9638  0.4546 -1.7934
16710SOL     OW56987   9.736   5.198  10.801 -0.4945 -0.4527 -0.0525
16710SOL    HW156988   9.746   5.155  10.886 -0.5550  0.0602  0.2237
16710SOL    HW256989   9.642   5.211  10.792 -0.3853  1.1458  0.6701
16711SOL     OW56990   5.043   2.770   8.187 -0.3829 -0.0863 -0.0061
16711SOL    HW156991   5.107   2.795   8.253 -0.7155  1.4550 -0.2214
16711SOL    HW256992   5.020   2.679   8.208 -0.8421  0.5038  2.2885
16712SOL     OW56993   4.271  11.041  10.427  0.0929  0.5285 -0.8517
16712SOL    HW156994   4.302  11.081  10.508 -0.1299  1.7713 -1.3568
16712SOL    HW256995   4.282  10.947  10.441 -0.2965  0.6936  0.7561
16713SOL     OW56996  11.695  10.188   3.502 -0.2056  0.3217  0.7046
16713SOL    HW156997  11.610  10.223   3.477 -0.5032 -1.4039 -0.9150
16713SOL    HW256998  11.729  10.147   3.423  0.4031 -2.4124  2.2557
16714SOL     OW56999   6.557   2.098   5.217 -0.2226  0.1319  0.0479
16714SOL    HW157000   6.501   2.104   5.295 -0.4818  2.0631 -0.2377
16714SOL    HW257001   6.645   2.082   5.252 -0.5244 -0.2064  0.6682
16715SOL     OW57002  11.659   6.096   7.367 -0.2899  0.0840 -0.3878
16715SOL    HW157003  11.661   6.051   7.283 -2.9329 -0.5767 -0.1711
16715SOL    HW257004  11.669   6.026   7.432 -1.7676  0.1110 -0.1045
16716SOL     OW57005   1.123   6.669   0.368 -0.0197 -0.4111  0.2866
16716SOL    HW157006   1.132   6.747   0.422 -1.2900  0.7455 -1.1010
16716SOL    HW257007   1.078   6.606   0.425  1.2651 -0.2742  1.5150
16717SOL     OW57008   0.800   5.635  10.418 -0.5922 -0.3406  0.5587
16717SOL    HW157009   0.795   5.539  10.422 -2.2193 -0.2608  1.7726
16717SOL    HW257010   0.718   5.661  10.375  0.2864  0.4856 -0.6476
16718SOL     OW57011   0.687   3.530   7.913 -0.0036 -0.3924 -0.0249
16718SOL    HW157012   0.620   3.513   7.847 -0.9179 -0.5756  0.9260
16718SOL    HW257013   0.747   3.456   7.906 -0.3799 -0.6716 -0.2933
16719SOL     OW57014   1.444  11.941   3.405 -0.0395 -0.1960  0.8623
16719SOL    HW157015   1.362  11.915   3.364 -0.0026 -0.1777  0.7775
16719SOL    HW257016   1.418  11.990   3.483 -0.1103 -0.4726  1.0144
16720SOL     OW57017   5.699   8.273  10.693  0.3131  0.1813 -0.0598
16720SOL    HW157018   5.733   8.241  10.777 -0.7599 -0.2959  0.2017
16720SOL    HW257019   5.680   8.193  10.643 -1.5693  0.3900  0.2629
16721SOL     OW57020   6.003   9.076   5.373 -0.1064 -0.4854  0.4708
16721SOL    HW157021   5.916   9.039   5.358 -0.5805  0.7943 -0.0654
16721SOL    HW257022   6.014   9.071   5.468 -0.4552 -1.3053  0.4833
16722SOL     OW57023   8.380   9.012   7.713 -0.3056 -0.1054  0.0143
16722SOL    HW157024   8.377   9.001   7.808  0.4326  1.2376  0.2131
16722SOL    HW257025   8.343   9.099   7.697  1.0998  0.3891 -0.7606
16723SOL     OW57026   1.408   4.061   2.562  0.1409 -0.3226 -0.2845
16723SOL    HW157027   1.433   3.969   2.555  1.5412 -0.2441  2.2845
16723SOL    HW257028   1.486   4.104   2.598 -1.1217  1.4775  0.4749
16724SOL     OW57029   7.430   3.787   4.247 -0.4802  0.1108 -0.0776
16724SOL    HW157030   7.342   3.785   4.285  0.2919 -2.0822  1.8952
16724SOL    HW257031   7.466   3.872   4.273 -1.4631  0.3610  0.5098
16725SOL     OW57032   2.798   9.954   3.027 -0.2458  0.0215  0.4190
16725SOL    HW157033   2.841   9.872   3.003  0.8530  0.9712 -1.0527
16725SOL    HW257034   2.870  10.016   3.041 -1.0767  1.1305 -0.0877
16726SOL     OW57035   9.656   6.630   3.202  0.2387 -0.2027 -0.3986
16726SOL    HW157036   9.635   6.537   3.197  1.8380 -0.5991 -0.3624
16726SOL    HW257037   9.597   6.671   3.139 -1.7589 -0.9580  0.8784
16727SOL     OW57038   9.374  12.577   5.383  0.5286 -0.4093  0.4719
16727SOL    HW157039   9.322  12.498   5.375  1.2356 -0.8544  0.1784
16727SOL    HW257040   9.379  12.612   5.293 -0.5539  0.4785  0.7391
16728SOL     OW57041   4.752   8.622   4.776  0.1287  0.0738  0.2453
16728SOL    HW157042   4.791   8.542   4.740  0.4012  0.0659  0.5491
16728SOL    HW257043   4.693   8.653   4.707  0.2269 -0.2401  0.0157
16729SOL     OW57044  11.514   6.083   8.193 -0.0419 -0.6743 -0.2103
16729SOL    HW157045  11.424   6.054   8.180 -0.0210 -1.2825  0.9044
16729SOL    HW257046  11.550   6.090   8.104 -0.3142 -3.2079 -0.5864
16730SOL     OW57047   9.061  11.239   7.031 -0.2600  0.8630  0.1888
16730SOL    HW157048   9.039  11.299   7.102 -0.7350  0.7412  0.1486
16730SOL    HW257049   9.154  11.221   7.042 -0.2848  1.0115  0.6521
16731SOL     OW57050   1.764   0.933   2.725 -0.0339 -0.1062  0.9243
16731SOL    HW157051   1.725   0.850   2.752  0.6978 -0.0380  2.2871
16731SOL    HW257052   1.728   0.997   2.786  0.4347  0.3422  0.7359
16732SOL     OW57053   9.752   5.203   2.700  1.2459 -0.4511  0.0956
16732SOL    HW157054   9.693   5.205   2.625  2.7196 -1.0495 -1.1206
16732SOL    HW257055   9.839   5.212   2.662  2.1874 -2.7521  1.5298
16733SOL     OW57056   3.989  12.296   8.593 -0.8508  0.8366  0.7392
16733SOL    HW157057   3.945  12.239   8.656 -0.8772  0.6741  0.5754
16733SOL    HW257058   3.921  12.356   8.562 -1.4259 -0.5655 -0.8684
16734SOL     OW57059  11.994   7.482   4.998 -0.3341 -0.2580  0.1866
16734SOL    HW157060  12.008   7.389   5.017  1.1161  0.5184  3.9154
16734SOL    HW257061  11.905   7.500   5.029 -0.0861 -0.1517  0.8570
16735SOL     OW57062   3.633   0.002   1.360  0.3108 -0.3876  0.4359
16735SOL    HW157063   3.666   0.049   1.437 -0.0018 -0.2582  0.4895
16735SOL    HW257064   3.575   0.064   1.317 -0.5658 -0.9200  0.8249
16736SOL     OW57065   1.563   0.344  10.929 -0.1385 -0.3678 -0.3658
16736SOL    HW157066   1.658   0.334  10.929  0.3269  2.9006 -1.3635
16736SOL    HW257067   1.543   0.376  10.841 -1.9018  0.7885  0.4083
16737SOL     OW57068   9.279   4.755   5.547 -0.3489 -0.0091  0.1605
16737SOL    HW157069   9.213   4.822   5.525  0.4660  0.3970 -1.1368
16737SOL    HW257070   9.361   4.805   5.556  0.2964 -0.8362 -0.9566
16738SOL     OW57071   1.255   3.696   5.952 -0.2652  0.1840 -0.1218
16738SOL    HW157072   1.221   3.694   5.862 -1.0922  1.9645  0.1159
16738SOL    HW257073   1.252   3.788   5.977  0.6150 -0.1919  1.5069
16739SOL     OW57074   5.115   4.094   7.857  0.3934  0.8538 -0.1253
16739SOL    HW157075   5.022   4.109   7.841  0.4123  1.7980  0.5216
16739SOL    HW257076   5.118   4.043   7.937  0.4171 -0.1523 -0.7484
16740SOL     OW57077   6.141   4.668   0.120 -0.2790  0.1270 -0.3142
16740SOL    HW157078   6.229   4.660   0.083 -0.1461 -0.0032  0.0228
16740SOL    HW257079   6.083   4.673   0.044 -0.0621 -0.6445 -0.5366
16741SOL     OW57080   9.829   6.104   6.059  0.4122 -0.1153 -0.3083
16741SOL    HW157081   9.748   6.094   6.108 -0.1046  0.9938 -0.9109
16741SOL    HW257082   9.860   6.014   6.046 -1.1354 -0.6110 -0.7596
16742SOL     OW57083   4.300  10.532   4.611  0.0637 -0.6318 -0.8328
16742SOL    HW157084   4.339  10.488   4.686  1.0051  0.8877 -0.3816
16742SOL    HW257085   4.345  10.496   4.535  0.9766 -0.3061 -0.4537
16743SOL     OW57086   0.301   2.799   5.900 -1.0196 -0.0145  0.2128
16743SOL    HW157087   0.337   2.860   5.836 -4.2322  0.0856 -1.7412
16743SOL    HW257088   0.312   2.843   5.984 -1.6657  2.5323 -0.9243
16744SOL     OW57089   8.528   8.691  12.445  0.1897 -0.2000  0.7934
16744SOL    HW157090   8.616   8.708  12.479  1.2789  0.0378 -1.9183
16744SOL    HW257091   8.537   8.700  12.350 -2.2681 -2.3738  0.2374
16745SOL     OW57092  10.724   3.724   5.157 -0.2817  0.0595 -0.2835
16745SOL    HW157093  10.732   3.793   5.222 -0.1490 -1.3088  1.2019
16745SOL    HW257094  10.813   3.710   5.125 -0.3558  0.7652 -0.8212
16746SOL     OW57095  12.022   7.251   5.134  0.2329 -0.2260  0.0372
16746SOL    HW157096  11.958   7.218   5.196 -0.4253  0.6436 -0.1545
16746SOL    HW257097  12.030   7.183   5.068 -2.0616  0.4647 -1.0616
16747SOL     OW57098   9.199   5.721  11.405  0.2201  0.4283  0.8916
16747SOL    HW157099   9.112   5.686  11.384  0.9255 -1.0059  0.2482
16747SOL    HW257100   9.222   5.681  11.489  0.7320 -0.1251  0.4976
16748SOL     OW57101   4.976   6.033   1.256  0.3103  0.2622  0.5720
16748SOL    HW157102   4.902   6.024   1.316 -1.6711  3.1407 -1.1547
16748SOL    HW257103   4.936   6.026   1.169  1.4172  4.4635 -0.4888
16749SOL     OW57104   7.908   0.378  10.076  0.1105 -0.6076 -0.7526
16749SOL    HW157105   7.973   0.309  10.061  0.9857  0.3592 -1.6425
16749SOL    HW257106   7.834   0.354  10.021 -0.3317 -1.7451  0.3033
16750SOL     OW57107  10.674   2.228   3.828  0.1587  0.6494  0.3377
16750SOL    HW157108  10.660   2.151   3.772  0.5157  1.1268 -0.4250
16750SOL    HW257109  10.673   2.193   3.917 -1.5215  0.0314  0.1138
16751SOL     OW57110   4.113   6.543   8.617  0.7010 -0.2059 -0.0946
16751SOL    HW157111   4.108   6.632   8.583  0.0787 -0.8168 -1.6922
16751SOL    HW257112   4.178   6.500   8.561  0.5537 -0.9195  0.2696
16752SOL     OW57113   5.851  11.659   7.375  0.3142 -0.3312  0.3671
16752SOL    HW157114   5.940  11.676   7.405 -0.0930  0.6534  1.0749
16752SOL    HW257115   5.828  11.735   7.322  0.2125 -1.0084 -0.5794
16753SOL     OW57116   4.187  10.751   9.544  0.5340 -0.1057  0.0320
16753SOL    HW157117   4.148  10.807   9.611 -0.1293 -0.5867  0.0540
16753SOL    HW257118   4.181  10.803   9.463 -0.9230 -0.4922 -0.1265
16754SOL     OW57119   4.856   1.875   9.515 -0.1579  0.2991  0.0132
16754SOL    HW157120   4.911   1.829   9.577  1.8601  1.4063 -0.8417
16754SOL    HW257121   4.841   1.961   9.555 -1.5897 -0.1053  0.3874
16755SOL     OW57122   9.101   3.977   4.393  0.1870 -0.0807  0.1967
16755SOL    HW157123   9.142   4.044   4.448 -0.4676  0.0897  0.4827
16755SOL    HW257124   9.040   3.933   4.451  0.3311 -0.6747 -0.0968
16756SOL     OW57125   6.119   3.632   6.342  0.4566  0.0766 -0.3010
16756SOL    HW157126   6.165   3.627   6.258  0.6189 -1.4895 -0.1370
16756SOL    HW257127   6.114   3.726   6.360  1.8527  0.3739 -1.2643
16757SOL     OW57128   2.219   6.818   3.233  0.1502 -0.1014  0.2318
16757SOL    HW157129   2.201   6.911   3.217  0.3753 -0.2872 -1.2442
16757SOL    HW257130   2.143   6.773   3.197 -0.1577 -0.4882  1.3272
16758SOL     OW57131   5.520   2.734  12.149 -0.2673 -0.1610  0.4548
16758SOL    HW157132   5.549   2.823  12.168  2.4220 -0.5367 -1.4148
16758SOL    HW257133   5.523   2.690  12.234 -0.9423  1.3044  1.2770
16759SOL     OW57134   3.030  10.194   2.026  0.4220  0.2216 -0.4729
16759SOL    HW157135   3.010  10.265   1.965 -1.8533 -0.6340 -0.8205
16759SOL    HW257136   2.945  10.158   2.050  1.4227 -1.3593  0.9665
16760SOL     OW57137   9.836   1.500   8.830 -0.0228 -0.1889  0.6296
16760SOL    HW157138   9.841   1.405   8.817 -0.0389 -0.4335  2.1621
16760SOL    HW257139   9.774   1.511   8.902 -1.0735  1.0925 -0.4177
16761SOL     OW57140   1.576   3.925   0.270 -0.3612 -0.0315  0.1414
16761SOL    HW157141   1.671   3.919   0.276 -0.3576  0.6931  0.9707
16761SOL    HW257142   1.560   3.995   0.208 -0.3788 -1.1506 -1.1691
16762SOL     OW57143   2.590  10.427   1.875  0.0575  0.1368 -0.0940
16762SOL    HW157144   2.651  10.373   1.826  0.5192  0.1886  0.4114
16762SOL    HW257145   2.607  10.516   1.845 -0.6893  0.0060 -0.9119
16763SOL     OW57146   5.569   8.393   4.399  0.0833 -0.0620 -0.1600
16763SOL    HW157147   5.510   8.318   4.386  1.3830 -0.8455 -1.9832
16763SOL    HW257148   5.532   8.462   4.344 -0.2251  0.1154  0.2645
16764SOL     OW57149   1.488  11.416  10.294 -0.1345  0.0492  0.2683
16764SOL    HW157150   1.452  11.403  10.381  0.7025 -1.1506  0.4577
16764SOL    HW257151   1.450  11.346  10.241 -0.5844  0.7267 -0.3255
16765SOL     OW57152   1.864   1.938  10.982 -0.3841  0.3308 -0.2310
16765SOL    HW157153   1.863   1.842  10.980  0.2338  0.3273 -1.1270
16765SOL    HW257154   1.900   1.963  10.897 -2.4898  1.4154 -0.8778
16766SOL     OW57155  11.288   4.203   2.390  0.0155  0.5421 -0.0366
16766SOL    HW157156  11.244   4.280   2.353  0.3452  0.0828 -1.4245
16766SOL    HW257157  11.218   4.156   2.435  0.1138  2.4930  2.3994
16767SOL     OW57158   8.367   8.474   5.275 -0.2285  0.3828 -0.0316
16767SOL    HW157159   8.369   8.535   5.202 -0.7432  0.3256 -0.0937
16767SOL    HW257160   8.410   8.396   5.243 -0.0898  0.5033 -0.1400
16768SOL     OW57161   7.837   5.627   5.539  0.0184  0.5671 -0.1856
16768SOL    HW157162   7.836   5.640   5.634  0.9409  2.3840 -0.3635
16768SOL    HW257163   7.923   5.660   5.511  0.1338 -0.7662 -1.5723
16769SOL     OW57164   6.872   3.667   6.014 -0.5596 -0.0470  0.0822
16769SOL    HW157165   6.866   3.711   5.928  2.0876 -1.8371 -1.1528
16769SOL    HW257166   6.913   3.732   6.071  1.1239 -0.0352 -1.0709
16770SOL     OW57167   5.448   2.332   6.395  0.4548 -0.1370 -0.5238
16770SOL    HW157168   5.367   2.299   6.356 -0.6469  0.4138  1.2003
16770SOL    HW257169   5.491   2.253   6.429 -1.5039 -0.1463  2.3602
16771SOL     OW57170   4.004   4.268   2.961 -0.1960 -0.0346  0.4931
16771SOL    HW157171   4.056   4.189   2.946  1.1207  0.6971  1.1079
16771SOL    HW257172   3.969   4.290   2.874 -0.7710 -1.4006  0.3502
16772SOL     OW57173  11.406   1.292   9.036  0.1877  0.1379 -0.5810
16772SOL    HW157174  11.489   1.271   9.080  0.4207 -0.6832 -1.3873
16772SOL    HW257175  11.343   1.301   9.107  1.0433  1.1622  0.0805
16773SOL     OW57176   0.938   4.073  10.150 -0.6154 -0.1263 -0.3996
16773SOL    HW157177   0.967   4.165  10.150 -0.4992 -0.1441 -1.5238
16773SOL    HW257178   0.983   4.034  10.075  0.1575 -1.3908  0.6613
16774SOL     OW57179   9.454   4.529   1.002  0.2363  0.2800 -0.5575
16774SOL    HW157180   9.532   4.484   0.970  0.6817  0.1240  0.6896
16774SOL    HW257181   9.400   4.460   1.040 -1.0511  0.2239 -2.3845
16775SOL     OW57182  11.212   6.741   2.916 -0.9213  0.2786  0.0406
16775SOL    HW157183  11.120   6.755   2.938 -0.5288  0.3555  1.7662
16775SOL    HW257184  11.213   6.659   2.868 -2.0699  1.0820 -1.4537
16776SOL     OW57185   0.583   6.191  10.575  0.2109 -0.0346 -0.0729
16776SOL    HW157186   0.599   6.285  10.572 -0.3456  0.0592 -0.1674
16776SOL    HW257187   0.556   6.174  10.665  1.8068 -0.3633  0.3815
16777SOL     OW57188   0.033   1.191   0.526 -0.0839 -0.0698 -0.0939
16777SOL    HW157189   0.047   1.224   0.614  1.6826 -0.8442 -0.0386
16777SOL    HW257190   0.120   1.167   0.495 -0.9365 -2.2586 -1.0477
16778SOL     OW57191   4.270   2.552   2.453  0.0826 -0.2065  0.0836
16778SOL    HW157192   4.254   2.498   2.376 -1.6890 -1.6461  1.3569
16778SOL    HW257193   4.362   2.535   2.475  0.4270 -0.2690 -1.3042
16779SOL     OW57194   2.459   0.218   6.601 -0.3277 -0.8292 -0.1560
16779SOL    HW157195   2.443   0.141   6.546 -0.5814 -0.5548 -0.4745
16779SOL    HW257196   2.457   0.292   6.539 -0.2893 -0.5504  0.1757
16780SOL     OW57197   7.631   5.818  10.671 -0.3377 -0.2159 -0.0075
16780SOL    HW157198   7.561   5.753  10.664 -0.1579 -0.7456  2.2021
16780SOL    HW257199   7.620   5.856  10.758 -0.4533  2.8038 -1.2119
16781SOL     OW57200  10.109  12.068   3.952 -0.0948 -0.2732  0.0938
16781SOL    HW157201  10.040  12.107   3.897  0.7874 -1.5587 -2.0341
16781SOL    HW257202  10.144  12.142   4.002 -1.1126  0.9079 -0.8599
16782SOL     OW57203   1.877   0.473   5.499 -0.2273 -0.2697 -0.1500
16782SOL    HW157204   1.849   0.565   5.491 -0.1026 -0.2260 -0.0794
16782SOL    HW257205   1.818   0.426   5.440  0.3748 -0.0069 -0.9976
16783SOL     OW57206  10.249   4.245   5.737 -0.3396 -0.6085 -0.3579
16783SOL    HW157207  10.266   4.332   5.771 -1.9406  0.1059 -1.2861
16783SOL    HW257208  10.293   4.244   5.652  1.0535 -1.3244  0.3226
16784SOL     OW57209   1.972   6.347   6.182  0.2904  0.0342  0.4006
16784SOL    HW157210   2.030   6.346   6.106 -1.2274  1.4064 -0.8497
16784SOL    HW257211   1.996   6.269   6.232  2.6906  0.1828 -0.4124
16785SOL     OW57212   6.692   2.928  12.222 -0.1565 -0.2303 -0.3685
16785SOL    HW157213   6.657   2.924  12.311 -1.6654 -0.2657 -0.9399
16785SOL    HW257214   6.677   3.018  12.194 -1.0645 -0.5956 -1.1058
16786SOL     OW57215   4.567   9.152   6.298  0.6076 -0.1540 -0.1026
16786SOL    HW157216   4.599   9.158   6.208  1.1388  0.2210  0.1031
16786SOL    HW257217   4.630   9.203   6.349  0.4570 -0.5723  0.5185
16787SOL     OW57218   7.436   3.201  12.159  0.6788 -0.0712 -0.0638
16787SOL    HW157219   7.481   3.200  12.244  2.1525  1.5910 -0.7682
16787SOL    HW257220   7.502   3.232  12.097 -0.8055  0.2329 -1.5704
16788SOL     OW57221   7.182   1.919   2.382 -0.5532 -0.1635  0.8352
16788SOL    HW157222   7.162   1.881   2.467  2.1967  0.0190  1.6690
16788SOL    HW257223   7.245   1.989   2.401  0.7781 -0.6569 -1.3728
16789SOL     OW57224   8.295   7.915   8.030 -0.6484 -0.2112 -0.4849
16789SOL    HW157225   8.211   7.908   7.987 -0.2713 -0.0200 -1.2596
16789SOL    HW257226   8.357   7.934   7.960 -0.1883  1.2596  0.2823
16790SOL     OW57227   6.062  11.119   0.077  0.0644  0.2461  0.3156
16790SOL    HW157228   6.112  11.178   0.020 -1.0976 -0.1186 -1.1440
16790SOL    HW257229   6.126  11.053   0.104  1.0843  1.4390  0.9639
16791SOL     OW57230  12.445   3.905   3.838  0.2890 -0.3824  0.3601
16791SOL    HW157231  12.457   4.000   3.829  1.4528 -0.5540 -0.0325
16791SOL    HW257232  12.467   3.888   3.930  1.0476 -0.3972  0.1829
16792SOL     OW57233   6.257   8.280   0.712 -0.2016 -0.0312 -0.8773
16792SOL    HW157234   6.240   8.373   0.723 -0.0313 -0.1451  0.7023
16792SOL    HW257235   6.177   8.246   0.672 -1.1574  0.4803  0.5102
16793SOL     OW57236   1.104   3.871  11.058  0.2779  0.2447 -0.0161
16793SOL    HW157237   1.070   3.828  10.980 -0.4687 -1.3779  1.1635
16793SOL    HW257238   1.188   3.907  11.031  0.8015 -1.7183 -1.1449
16794SOL     OW57239   5.091   8.290   1.197 -0.2393  1.0004 -0.1256
16794SOL    HW157240   5.151   8.313   1.268  1.0855  0.8459 -1.1424
16794SOL    HW257241   5.136   8.319   1.118 -1.6313  1.0766 -0.9189
16795SOL     OW57242   7.206   5.083   8.363 -1.0056  0.3018  0.4604
16795SOL    HW157243   7.164   5.000   8.343  0.1976 -0.3970  0.7206
16795SOL    HW257244   7.279   5.060   8.421  1.6508  0.9957 -2.3392
16796SOL     OW57245   1.867   6.022  11.680  0.8321  0.0856  0.0862
16796SOL    HW157246   1.860   6.037  11.586 -0.4910  0.3623  0.2095
16796SOL    HW257247   1.869   5.927  11.690  2.4137  0.0533 -0.2877
16797SOL     OW57248   5.186   2.369   1.285  0.7079  0.1937  0.1223
16797SOL    HW157249   5.108   2.414   1.252 -1.5049 -2.3500  1.4962
16797SOL    HW257250   5.209   2.417   1.364 -0.0252  0.4441  0.1914
16798SOL     OW57251   9.542   8.028  11.785  0.3196  0.5513  0.2749
16798SOL    HW157252   9.495   8.103  11.820 -0.6686  1.1316 -2.1221
16798SOL    HW257253   9.487   7.997  11.712  1.4570 -1.5601  0.2264
16799SOL     OW57254  10.672   5.473   2.364 -0.3214  0.0007  0.0964
16799SOL    HW157255  10.591   5.506   2.404 -0.4168  2.0637 -1.6559
16799SOL    HW257256  10.642   5.410   2.299 -0.4949  0.2358 -0.0558
16800SOL     OW57257   9.195  10.482   8.804 -0.3837 -0.4269 -0.2655
16800SOL    HW157258   9.267  10.499   8.744 -0.0987  1.4006  0.5468
16800SOL    HW257259   9.132  10.552   8.788 -1.2448 -1.0811  0.1531
16801SOL     OW57260   8.866   6.773  11.218  0.4528 -0.1193  0.2177
16801SOL    HW157261   8.810   6.848  11.196 -0.6142  1.0900  5.6152
16801SOL    HW257262   8.805   6.699  11.222  0.6569 -0.3506 -0.7412
16802SOL     OW57263   9.947   3.160   2.114  0.2958  0.1213  0.2331
16802SOL    HW157264   9.925   3.249   2.142  1.4198 -0.1913  2.3376
16802SOL    HW257265   9.912   3.104   2.183  0.2154 -1.0436 -0.7153
16803SOL     OW57266   7.288  11.019  10.510 -0.5122  0.1816 -0.2237
16803SOL    HW157267   7.292  10.928  10.538 -3.7609  0.1680  0.5500
16803SOL    HW257268   7.284  11.069  10.591  3.1329  1.3014 -0.5661
16804SOL     OW57269   8.637  11.960   1.981  0.1080  0.0071 -0.0547
16804SOL    HW157270   8.717  11.932   1.935 -1.0166 -0.6712 -1.6947
16804SOL    HW257271   8.601  12.029   1.925 -3.1182 -3.1198 -2.2818
16805SOL     OW57272   6.273   0.829   8.179  0.1951  0.2285  0.4152
16805SOL    HW157273   6.366   0.806   8.183  0.3399  0.4020 -1.2154
16805SOL    HW257274   6.272   0.922   8.160 -0.3214  0.3064  0.8111
16806SOL     OW57275   5.662   6.415   8.349 -0.0863 -0.1179 -0.4343
16806SOL    HW157276   5.618   6.339   8.386  2.4574 -1.9184 -0.8313
16806SOL    HW257277   5.628   6.420   8.259 -0.3628 -0.7394 -0.3731
16807SOL     OW57278   8.660   1.585   7.230  0.2908 -0.9660  0.3498
16807SOL    HW157279   8.713   1.621   7.159 -1.4168  0.7805 -0.1107
16807SOL    HW257280   8.612   1.513   7.191  0.0436 -0.5882 -0.0570
16808SOL     OW57281   0.113   1.840   2.462  0.4144 -0.6432  0.2663
16808SOL    HW157282   0.184   1.783   2.433  0.6481 -0.4054  0.3779
16808SOL    HW257283   0.098   1.899   2.388  0.4416 -0.5838  0.3093
16809SOL     OW57284   7.785   3.056  11.169 -0.4616 -0.0346  0.3696
16809SOL    HW157285   7.784   3.146  11.138  0.6040  0.1626  0.8645
16809SOL    HW257286   7.775   3.003  11.090  1.2325  0.4757 -0.2336
16810SOL     OW57287   0.541  11.204  11.269  0.6750  0.3425  0.4172
16810SOL    HW157288   0.474  11.189  11.336 -0.0957  0.3731 -0.3287
16810SOL    HW257289   0.491  11.222  11.190  1.5350 -1.4467 -0.5835
16811SOL     OW57290  10.222   5.034   5.867  0.9661 -0.3007  0.4075
16811SOL    HW157291  10.257   4.977   5.936  2.0600 -0.0909  0.0411
16811SOL    HW257292  10.131   5.048   5.893  1.1255 -0.8938  1.3718
16812SOL     OW57293  11.840   6.915   8.338  0.2768 -0.1708  0.5212
16812SOL    HW157294  11.757   6.873   8.316  0.0981  0.5041 -0.1300
16812SOL    HW257295  11.815   7.001   8.373  0.7152  0.2421 -0.1636
16813SOL     OW57296   4.484   3.602   4.093  0.4668 -0.1481 -0.3383
16813SOL    HW157297   4.531   3.562   4.019  0.9316 -1.1652  0.4776
16813SOL    HW257298   4.546   3.663   4.131  0.6353 -0.4748 -0.0908
16814SOL     OW57299   6.692   3.314   4.234  0.1254  0.5630 -0.1819
16814SOL    HW157300   6.768   3.351   4.189 -0.4523 -0.9899 -2.6680
16814SOL    HW257301   6.714   3.222   4.248 -0.4182  0.6207  1.1940
16815SOL     OW57302  12.208   5.730   7.402 -0.3742  0.3592 -0.3924
16815SOL    HW157303  12.138   5.681   7.359  0.2398  0.5704 -1.6975
16815SOL    HW257304  12.285   5.715   7.347  0.5635  0.3016  0.8952
16816SOL     OW57305   7.423  12.214   0.452 -0.4135 -1.5368  0.1322
16816SOL    HW157306   7.336  12.242   0.421 -0.4501 -1.2809  0.4535
16816SOL    HW257307   7.404  12.143   0.514 -0.3932 -1.4911  0.1904
16817SOL     OW57308   0.043   9.239   8.685 -0.2630  0.4985  0.7530
16817SOL    HW157309  -0.010   9.215   8.761 -1.1646 -2.6482 -0.6829
16817SOL    HW257310  -0.018   9.285   8.627  0.0643  1.6717  1.3126
16818SOL     OW57311   2.147  12.009   1.774  0.3273  0.9208  0.1254
16818SOL    HW157312   2.061  12.005   1.731 -0.1217 -0.3794  1.0862
16818SOL    HW257313   2.140  12.083   1.834 -0.9092 -0.4724  1.7625
16819SOL     OW57314   0.960   2.772   6.043 -0.0274 -0.2315  0.3101
16819SOL    HW157315   0.911   2.853   6.032  1.1084  0.2948 -1.2059
16819SOL    HW257316   0.896   2.711   6.082 -1.1277  1.1235  0.7258
16820SOL     OW57317   1.544   9.165   0.903  0.0793  0.0814  0.2380
16820SOL    HW157318   1.512   9.168   0.813 -0.7617  0.3698  0.5382
16820SOL    HW257319   1.635   9.196   0.898 -0.3540  1.3117 -0.3347
16821SOL     OW57320  10.252  12.097   0.565 -0.1571  0.1008 -0.4753
16821SOL    HW157321  10.267  12.191   0.560 -3.4238  0.9245  2.0488
16821SOL    HW257322  10.179  12.081   0.506 -0.1827 -0.6782 -0.2442
16822SOL     OW57323   7.700   0.519   7.818  1.2615  0.3297 -0.1925
16822SOL    HW157324   7.661   0.465   7.886 -0.4122  1.3963 -0.2438
16822SOL    HW257325   7.769   0.568   7.863  0.6593  0.4899  0.5688
16823SOL     OW57326   3.986  10.637   3.985 -0.8814  0.0098 -0.0576
16823SOL    HW157327   3.960  10.549   3.960 -0.3727 -0.7409  1.8318
16823SOL    HW257328   4.074  10.648   3.948 -1.8097  0.6309 -2.1945
16824SOL     OW57329   3.538  12.196   2.299 -0.0049 -0.0249 -0.0689
16824SOL    HW157330   3.552  12.102   2.285  1.6509  0.2970 -0.7851
16824SOL    HW257331   3.626  12.232   2.312 -0.4718  1.6648 -1.3277
16825SOL     OW57332   6.887   7.295   7.369 -0.0880  0.2863  0.9064
16825SOL    HW157333   6.824   7.358   7.405  0.5337  1.6270 -0.2444
16825SOL    HW257334   6.943   7.272   7.443  0.1630  1.7231  1.1904
16826SOL     OW57335   7.918   4.136  10.384  0.3928 -0.0016 -0.5799
16826SOL    HW157336   7.919   4.221  10.340  1.6374  0.3651  0.1008
16826SOL    HW257337   7.995   4.090  10.350 -0.7981 -1.2833 -1.6773
16827SOL     OW57338   4.554   9.301  10.068  0.0153  0.3125  0.3413
16827SOL    HW157339   4.628   9.310  10.007 -1.6725 -0.1195 -1.8928
16827SOL    HW257340   4.526   9.211  10.058 -1.0590  0.5771  0.8427
16828SOL     OW57341   2.908   6.232   1.458 -0.4561 -0.2054 -0.2568
16828SOL    HW157342   2.997   6.268   1.457 -0.8573  0.8779  0.5029
16828SOL    HW257343   2.918   6.141   1.486  0.3186  0.2457  1.0203
16829SOL     OW57344   9.474   3.146  12.286 -0.2691  0.2063  0.2610
16829SOL    HW157345   9.528   3.199  12.227  0.0123 -0.6581 -0.2725
16829SOL    HW257346   9.454   3.205  12.358 -1.3765  1.5944 -1.1049
16830SOL     OW57347   1.802   8.251   6.919 -0.1471 -0.7560  0.1313
16830SOL    HW157348   1.712   8.282   6.919 -0.2501 -1.0472  0.2215
16830SOL    HW257349   1.843   8.296   6.992 -0.0801 -0.2372 -0.2168
16831SOL     OW57350   3.305  12.102   9.654 -0.2021  0.2775  0.4564
16831SOL    HW157351   3.390  12.146   9.651 -0.6594  1.4055  2.3350
16831SOL    HW257352   3.326  12.010   9.673  0.6864 -0.0563 -1.8773
16832SOL     OW57353   1.595   5.335   0.820  0.2605  0.1059 -0.2622
16832SOL    HW157354   1.549   5.351   0.738 -0.0573 -0.2357 -0.1562
16832SOL    HW257355   1.530   5.355   0.888  0.8414  1.4516 -0.0478
16833SOL     OW57356   6.482   5.716   0.573  0.1371  0.2047  0.1895
16833SOL    HW157357   6.572   5.720   0.541 -0.0956  0.8551 -0.3994
16833SOL    HW257358   6.462   5.805   0.602 -0.5734  0.2440 -0.4021
16834SOL     OW57359   3.541   0.582   2.265  0.8099 -0.1687 -0.0298
16834SOL    HW157360   3.627   0.623   2.260  0.8529 -0.2000  0.3835
16834SOL    HW257361   3.489   0.642   2.317  0.2226  0.4428 -1.2949
16835SOL     OW57362   7.745   3.972   9.428  0.0487 -0.1145 -0.1933
16835SOL    HW157363   7.665   4.010   9.392  0.0313  0.9444  0.8656
16835SOL    HW257364   7.719   3.887   9.462 -0.4990 -0.0173 -0.3657
16836SOL     OW57365  12.468  11.982   9.335  0.4392 -0.3836  0.0579
16836SOL    HW157366  12.448  12.037   9.260 -0.2491  2.1232  1.9536
16836SOL    HW257367  12.385  11.937   9.355 -0.0903  0.8181  0.7081
16837SOL     OW57368   6.744  11.807   6.094 -0.0100  0.1222 -0.2077
16837SOL    HW157369   6.807  11.737   6.111 -1.0025 -1.2771 -1.9398
16837SOL    HW257370   6.797  11.887   6.092  1.5912 -0.8994 -0.7913
16838SOL     OW57371   4.246   5.243   6.659 -0.3400  0.5054  0.2465
16838SOL    HW157372   4.171   5.235   6.601 -0.4956 -0.9568  0.6057
16838SOL    HW257373   4.301   5.167   6.638 -0.0115  0.3882  1.4447
16839SOL     OW57374   2.579   4.719   7.290 -0.4325 -0.1475  0.2544
16839SOL    HW157375   2.535   4.652   7.342 -1.8100  0.5766  0.0818
16839SOL    HW257376   2.572   4.687   7.200  0.0116 -0.3525  0.2890
16840SOL     OW57377   9.318  10.055   7.713 -0.6608 -0.7272 -0.3219
16840SOL    HW157378   9.281  10.013   7.791  1.3501 -0.1366  1.0019
16840SOL    HW257379   9.262  10.131   7.698 -1.3452 -1.1087  0.2399
16841SOL     OW57380  11.556   8.656   7.697 -0.0767  0.0410 -0.3629
16841SOL    HW157381  11.498   8.580   7.692 -0.5180  0.3381  0.2121
16841SOL    HW257382  11.577   8.676   7.606 -1.5647  0.4560 -0.6412
16842SOL     OW57383   9.730   4.998   5.424 -0.5967 -0.2299 -0.2061
16842SOL    HW157384   9.685   5.055   5.362  1.3860  1.0742 -0.5541
16842SOL    HW257385   9.792   5.056   5.469 -0.9542 -1.4396  1.9678
16843SOL     OW57386   1.698   9.101   8.292  0.7401  0.0954  0.3070
16843SOL    HW157387   1.632   9.102   8.223  0.4016 -0.4555  0.6097
16843SOL    HW257388   1.667   9.164   8.356  1.3931  1.0991 -0.3345
16844SOL     OW57389   9.902   0.082  11.111 -0.4886 -0.1126 -0.0222
16844SOL    HW157390   9.883   0.101  11.019  0.9448 -1.9432 -0.7477
16844SOL    HW257391   9.997   0.091  11.118 -0.1430 -3.0993  0.4372
16845SOL     OW57392  12.072   1.238  10.719  0.2066  0.2091  0.1239
16845SOL    HW157393  12.019   1.238  10.798 -2.5286  1.1778 -1.5997
16845SOL    HW257394  12.142   1.301  10.737  0.0067 -0.0374  1.9404
16846SOL     OW57395   6.907   6.603   9.794 -1.2348  0.0846  0.5641
16846SOL    HW157396   6.823   6.577   9.832 -0.6623 -2.6344  0.1234
16846SOL    HW257397   6.969   6.599   9.866 -1.2231  0.9054  0.6167
16847SOL     OW57398   7.544   8.540  10.287  0.1697  0.0789  0.5089
16847SOL    HW157399   7.515   8.493  10.209  0.1194  1.0633 -0.0774
16847SOL    HW257400   7.590   8.474  10.339 -1.4331 -1.0494  0.5550
16848SOL     OW57401   3.613   8.222   6.988 -0.1394 -0.1861 -0.5393
16848SOL    HW157402   3.572   8.250   7.070  0.4774  0.8024 -0.5533
16848SOL    HW257403   3.559   8.261   6.919 -0.0502 -0.1516 -0.5895
16849SOL     OW57404   9.601   7.710   0.439 -0.0327 -0.0350  0.0544
16849SOL    HW157405   9.548   7.633   0.456 -0.3653  0.4229  1.1637
16849SOL    HW257406   9.678   7.677   0.393 -1.4558 -0.6556 -2.0432
16850SOL     OW57407   4.047   5.993   2.457 -0.3043  0.0506 -0.0892
16850SOL    HW157408   4.136   6.025   2.443 -0.9858  2.0060 -0.3198
16850SOL    HW257409   4.033   6.002   2.551  0.1563 -1.4957  0.1468
16851SOL     OW57410  12.113   9.284  12.446 -0.2329  0.7702  0.3791
16851SOL    HW157411  12.074   9.347  12.386 -0.2339  0.4598  0.0481
16851SOL    HW257412  12.199   9.321  12.466 -0.1577  0.7891  0.0371
16852SOL     OW57413   5.651   7.664   1.720  0.1866  0.1164  0.3901
16852SOL    HW157414   5.622   7.662   1.628  1.4606 -0.3287 -0.0212
16852SOL    HW257415   5.585   7.716   1.765  1.0420  2.8523 -1.3098
16853SOL     OW57416  11.567   6.527   3.744  0.2752 -0.3699  0.6844
16853SOL    HW157417  11.572   6.447   3.691 -1.7718 -0.4651  0.5806
16853SOL    HW257418  11.532   6.593   3.684 -0.7148 -0.1185  1.5184
16854SOL     OW57419   0.004   3.182   9.447 -0.3549 -0.4823  0.6800
16854SOL    HW157420  -0.044   3.256   9.410 -0.0836  0.4187  2.0603
16854SOL    HW257421   0.096   3.203   9.430 -0.3287 -1.1854 -0.1167
16855SOL     OW57422   2.284   2.013   1.393 -0.0338  0.1844  0.3999
16855SOL    HW157423   2.318   1.944   1.450 -0.3702  0.8793  1.4787
16855SOL    HW257424   2.191   2.019   1.416  0.1679  1.5863  0.9931
16856SOL     OW57425   2.714  10.761   5.182 -0.3712  0.5978  0.1393
16856SOL    HW157426   2.730  10.802   5.267 -1.0334  1.7951 -0.2953
16856SOL    HW257427   2.677  10.675   5.204 -1.6582  1.3517  1.0699
16857SOL     OW57428   0.882   3.206   8.697  0.0851 -0.4618  0.5249
16857SOL    HW157429   0.830   3.287   8.687  0.6357 -0.2089 -0.4238
16857SOL    HW257430   0.895   3.175   8.608 -0.3851 -1.7960  0.8923
16858SOL     OW57431   1.185   4.263   2.153  0.0195  0.1816  1.1424
16858SOL    HW157432   1.201   4.354   2.130 -0.7213  0.2495  0.8506
16858SOL    HW257433   1.199   4.259   2.248  0.4759  0.5019  1.0879
16859SOL     OW57434   9.052  11.328  10.734  0.2353  0.1164  0.3457
16859SOL    HW157435   9.072  11.406  10.684 -1.4711  1.3643  1.4953
16859SOL    HW257436   9.001  11.273  10.674 -0.3805  0.8498  0.1945
16860SOL     OW57437   1.507   1.005   4.041 -0.0051  0.1277  0.2487
16860SOL    HW157438   1.588   0.981   4.086 -0.3737 -0.2632  0.7195
16860SOL    HW257439   1.440   1.001   4.109 -0.2165  1.8046  0.1935
16861SOL     OW57440   3.828   6.611   5.463  0.7214  0.3384 -0.3489
16861SOL    HW157441   3.813   6.621   5.369  0.7526 -0.5500 -0.4524
16861SOL    HW257442   3.837   6.701   5.495  1.3572  0.6263 -1.3005
16862SOL     OW57443   3.497   0.367  11.493 -0.4969  0.2574 -0.0488
16862SOL    HW157444   3.561   0.296  11.495  0.1560  0.8107 -0.8702
16862SOL    HW257445   3.489   0.395  11.585 -1.1205 -1.1686  0.3666
16863SOL     OW57446   4.153   4.643  11.034  1.0803  0.5946  0.9038
16863SOL    HW157447   4.069   4.684  11.016  0.6875 -0.4642  0.2105
16863SOL    HW257448   4.206   4.713  11.073  0.8483  2.1038 -1.2921
16864SOL     OW57449  11.345   0.289   1.719 -0.1035 -0.0951 -0.2365
16864SOL    HW157450  11.300   0.288   1.804  2.4888  1.5264  1.3097
16864SOL    HW257451  11.288   0.341   1.662 -1.4233 -0.3411  0.8056
16865SOL     OW57452   0.258   7.295   9.258  0.0892 -0.2885 -0.0236
16865SOL    HW157453   0.250   7.350   9.335  1.1905 -0.3724  0.1618
16865SOL    HW257454   0.209   7.216   9.280 -1.6017  0.6146 -0.3339
16866SOL     OW57455   1.144   9.880  10.191  0.1795  0.4303 -0.2400
16866SOL    HW157456   1.108   9.963  10.224  0.0812  0.4842 -0.4796
16866SOL    HW257457   1.189   9.904  10.111  2.9758  0.8106  1.3153
16867SOL     OW57458  10.592  10.536   9.811 -0.3830 -0.1704  0.1530
16867SOL    HW157459  10.664  10.558   9.870 -0.4227 -0.7245  0.4214
16867SOL    HW257460  10.588  10.609   9.749 -0.6535  0.6566  1.1193
16868SOL     OW57461   2.503   0.107   1.826 -0.1971  0.1826 -0.0268
16868SOL    HW157462   2.490   0.091   1.732 -0.3701  0.6077 -0.0774
16868SOL    HW257463   2.503   0.203   1.834  1.7041  0.2016  0.1447
16869SOL     OW57464   1.652   4.407   0.167  0.3192  0.2474 -0.2907
16869SOL    HW157465   1.571   4.432   0.122 -0.3768  0.7050  1.1543
16869SOL    HW257466   1.717   4.398   0.097 -0.0539  3.3959 -1.1716
16870SOL     OW57467   7.144  10.683   3.296  0.0496  0.0182 -0.0005
16870SOL    HW157468   7.166  10.750   3.360 -0.5932  0.0159  0.2311
16870SOL    HW257469   7.109  10.611   3.348 -1.6425  0.4931 -0.4309
16871SOL     OW57470   8.858   7.735   6.151 -0.7719  0.2368  0.3911
16871SOL    HW157471   8.859   7.675   6.077  1.6267 -0.0272  0.5542
16871SOL    HW257472   8.944   7.722   6.193 -1.8836  0.6700  2.9712
16872SOL     OW57473   8.882   7.965   9.149 -0.0746  0.1890 -0.4928
16872SOL    HW157474   8.789   7.983   9.164 -0.2854 -0.2858 -1.2114
16872SOL    HW257475   8.923   7.981   9.234 -0.8802 -0.0526 -0.0475
16873SOL     OW57476   8.198   1.523   5.852  0.2346 -0.0481 -0.4047
16873SOL    HW157477   8.285   1.563   5.850  0.3178 -0.2344 -1.9224
16873SOL    HW257478   8.172   1.519   5.760 -0.2992 -2.3344 -0.2121
16874SOL     OW57479   3.512  10.143   1.747  0.3381  0.0360  0.3523
16874SOL    HW157480   3.605  10.130   1.728 -0.0107 -0.5899 -1.0255
16874SOL    HW257481   3.501  10.110   1.837  1.4977  0.4396  0.6582
16875SOL     OW57482   3.739   3.454   8.721  0.4729 -0.1908  0.1042
16875SOL    HW157483   3.650   3.462   8.757 -0.2527  0.1336 -1.6656
16875SOL    HW257484   3.733   3.381   8.660  1.2286  0.3464 -0.6288
16876SOL     OW57485  11.804   3.580   6.700  0.3940  0.0737 -0.5718
16876SOL    HW157486  11.742   3.513   6.730 -0.3829  1.1700  0.3524
16876SOL    HW257487  11.858   3.535   6.634 -0.1201 -1.4366 -0.0015
16877SOL     OW57488   4.887   3.972   9.064 -0.4091 -0.3721 -0.1376
16877SOL    HW157489   4.867   3.897   9.008 -1.3514 -1.6453  1.7941
16877SOL    HW257490   4.872   3.940   9.153 -1.0851  2.2030  0.7600
16878SOL     OW57491   3.810   3.558   2.645  0.7085  0.2103  0.6866
16878SOL    HW157492   3.882   3.616   2.623  1.0777 -0.3682  0.3479
16878SOL    HW257493   3.753   3.560   2.568 -0.1650  1.4359  1.3323
16879SOL     OW57494   3.383   0.258  11.229  0.3157 -0.0299  0.0071
16879SOL    HW157495   3.322   0.281  11.299 -0.1876  0.0160 -0.4394
16879SOL    HW257496   3.465   0.299  11.256 -0.5519  2.4550 -0.7753
16880SOL     OW57497   0.304   3.578   8.601  0.1045 -0.3999 -0.2682
16880SOL    HW157498   0.386   3.534   8.577  0.2165  1.0715 -2.8422
16880SOL    HW257499   0.235   3.519   8.570  0.1435 -1.3379  1.3332
16881SOL     OW57500  11.248   4.734   7.864 -0.5977 -0.6571  0.5723
16881SOL    HW157501  11.333   4.698   7.890 -0.3882 -0.8051 -0.2629
16881SOL    HW257502  11.230   4.692   7.779 -1.0120  0.1621  0.2450
16882SOL     OW57503   9.613   2.764   0.199  0.2267  0.4328  0.2084
16882SOL    HW157504   9.688   2.704   0.196 -1.5140 -1.8359 -0.4060
16882SOL    HW257505   9.619   2.805   0.286  2.2439  0.4785  0.0961
16883SOL     OW57506   6.969   1.691   4.872  0.4208  0.0147  0.5293
16883SOL    HW157507   7.014   1.704   4.789  1.0071  0.5361  0.9207
16883SOL    HW257508   7.015   1.617   4.912  0.0131 -0.3629  0.3114
16884SOL     OW57509   5.784   7.885   3.188  0.3052 -0.0857  0.0568
16884SOL    HW157510   5.720   7.928   3.245 -1.1559 -1.2088 -0.6614
16884SOL    HW257511   5.797   7.947   3.116 -0.8898 -0.3091 -0.3769
16885SOL     OW57512  11.453   1.514   4.240  0.5834  0.6238 -0.3254
16885SOL    HW157513  11.430   1.494   4.149 -0.6126 -0.0188  0.0980
16885SOL    HW257514  11.452   1.610   4.244 -0.9513  0.6436 -0.6187
16886SOL     OW57515   5.122   4.848   3.688 -0.1494  0.1355 -0.4013
16886SOL    HW157516   5.162   4.865   3.773  1.3633  0.8636 -1.1983
16886SOL    HW257517   5.193   4.864   3.625 -1.0160 -1.1016 -1.7561
16887SOL     OW57518  11.881   4.968   4.580 -0.8316  0.2638  0.1826
16887SOL    HW157519  11.922   5.034   4.525  1.3395 -0.6247  0.6218
16887SOL    HW257520  11.910   4.989   4.669 -1.3794 -0.3892  0.5291
16888SOL     OW57521   8.844  10.288   0.254 -0.0979  0.0364 -0.8507
16888SOL    HW157522   8.896  10.238   0.191  1.7817  0.1632  0.5049
16888SOL    HW257523   8.773  10.229   0.278  1.0954 -1.3652 -0.5776
16889SOL     OW57524   0.753   3.432   2.814  0.1694 -0.8293 -0.0325
16889SOL    HW157525   0.750   3.483   2.895  0.8943 -0.2741 -0.3382
16889SOL    HW257526   0.703   3.485   2.751  0.3557 -0.8255 -0.1772
16890SOL     OW57527   4.568   8.356   3.208 -0.3149  0.0685  0.8129
16890SOL    HW157528   4.651   8.322   3.173 -0.7577 -0.8137  0.6035
16890SOL    HW257529   4.520   8.385   3.130 -0.6513 -0.4405  0.8260
16891SOL     OW57530   6.406   1.230   1.367  0.0697  0.3025 -0.3290
16891SOL    HW157531   6.353   1.298   1.325  0.1578  1.8073  1.8293
16891SOL    HW257532   6.491   1.272   1.382  1.0261 -1.1919 -1.2901
16892SOL     OW57533  10.446  12.111   4.489 -0.7657 -0.1253 -0.0307
16892SOL    HW157534  10.476  12.162   4.413 -0.5034 -0.2601 -0.0190
16892SOL    HW257535  10.398  12.038   4.450  0.1987 -0.7347 -0.1099
16893SOL     OW57536  11.936   4.371   9.878  0.3569 -0.6142  0.0989
16893SOL    HW157537  11.851   4.327   9.870 -0.5623  1.3510 -2.4235
16893SOL    HW257538  11.946   4.418   9.795  2.4398  1.7642  1.5626
16894SOL     OW57539   8.808   7.205  11.248 -0.3144  0.0891  0.2730
16894SOL    HW157540   8.845   7.271  11.306 -1.5693  0.6480  0.4630
16894SOL    HW257541   8.722   7.239  11.224  0.5328  0.3412 -2.7258
16895SOL     OW57542   0.129   7.898  11.483  0.0640 -0.2808 -0.1903
16895SOL    HW157543   0.157   7.928  11.396 -0.6044  0.0954 -0.2743
16895SOL    HW257544   0.156   7.968  11.542 -0.3655 -0.0885 -0.2222
16896SOL     OW57545  12.092   6.580   7.622 -0.1876 -0.1701  0.4117
16896SOL    HW157546  12.159   6.644   7.601  0.1758 -0.3852  0.8940
16896SOL    HW257547  12.073   6.594   7.714  0.4400 -1.2388  0.7219
16897SOL     OW57548   0.775   0.895   2.706 -0.3183 -0.4439 -0.4244
16897SOL    HW157549   0.780   0.950   2.785  1.5382  1.2529 -1.6323
16897SOL    HW257550   0.706   0.934   2.654  0.7846  0.6383 -1.1371
16898SOL     OW57551   8.602  10.296   1.056 -0.0708 -0.3894  0.3389
16898SOL    HW157552   8.524  10.333   1.097 -1.0962  0.2696 -2.0774
16898SOL    HW257553   8.572  10.262   0.972  2.0872 -0.9244 -0.2743
16899SOL     OW57554   3.355   1.391   9.596  0.0577 -0.0900 -0.0735
16899SOL    HW157555   3.443   1.364   9.570  0.1842  0.4655 -0.2375
16899SOL    HW257556   3.349   1.483   9.569 -0.9641 -0.4240 -1.0410
16900SOL     OW57557  11.087   1.194   0.479  0.3605 -0.2050 -0.1596
16900SOL    HW157558  11.023   1.132   0.514 -0.2935  0.0316 -0.9000
16900SOL    HW257559  11.081   1.269   0.538 -0.3612 -0.0158 -0.4629
16901SOL     OW57560   7.769   7.007  12.032  0.1106  0.3924 -0.2351
16901SOL    HW157561   7.678   7.015  12.062  0.1495  2.6195 -0.5587
16901SOL    HW257562   7.779   7.077  11.968  0.9124 -2.3072 -3.3683
16902SOL     OW57563   0.763   8.478   2.782  0.2310 -0.4104  0.1509
16902SOL    HW157564   0.743   8.570   2.763 -2.8542 -1.1675 -0.8671
16902SOL    HW257565   0.787   8.477   2.875 -1.0838  1.2755  0.5585
16903SOL     OW57566  12.166   2.302   8.575  0.7090 -0.3695 -0.3288
16903SOL    HW157567  12.076   2.269   8.579 -0.0485  1.6958  1.4522
16903SOL    HW257568  12.199   2.292   8.664  0.9047  2.2015 -0.0324
16904SOL     OW57569  11.271   9.146  12.153 -0.3229 -0.2285 -0.0467
16904SOL    HW157570  11.188   9.156  12.200 -1.1553  0.3385 -1.5690
16904SOL    HW257571  11.301   9.235  12.139  1.0001 -0.4415  1.1964
16905SOL     OW57572   0.910   1.452   4.718  0.0983 -0.2518  0.3763
16905SOL    HW157573   0.815   1.466   4.720 -0.1586 -1.7520  0.1323
16905SOL    HW257574   0.946   1.523   4.771 -1.0035  1.4116 -0.9916
16906SOL     OW57575   6.631   5.591   5.219 -0.3062  0.0632 -0.5724
16906SOL    HW157576   6.675   5.647   5.283 -1.7726  1.5403 -0.8078
16906SOL    HW257577   6.558   5.552   5.267 -0.4546 -0.0951 -0.9222
16907SOL     OW57578   8.471   1.158  11.977  0.0587  0.0719 -0.2946
16907SOL    HW157579   8.560   1.164  12.011  0.8464 -0.8912 -2.0582
16907SOL    HW257580   8.442   1.070  12.000 -1.3789  1.0986  2.2704
16908SOL     OW57581   3.380   5.021   4.735 -0.8164 -0.6709  0.2768
16908SOL    HW157582   3.302   4.999   4.787 -1.4393  0.2704 -0.2329
16908SOL    HW257583   3.345   5.066   4.659  0.2806  0.2669  0.3144
16909SOL     OW57584   7.678   6.608   0.737  0.0292  0.2295 -0.2941
16909SOL    HW157585   7.620   6.683   0.753  1.1278  0.8713  0.8420
16909SOL    HW257586   7.642   6.567   0.659 -0.8972  1.6564 -0.6650
16910SOL     OW57587  10.595   3.395   8.489 -0.1337 -0.1995 -0.2066
16910SOL    HW157588  10.659   3.448   8.537 -1.9529  0.8191  1.2304
16910SOL    HW257589  10.535   3.459   8.450 -0.3742 -1.1219 -1.4059
16911SOL     OW57590   5.331   7.217   3.579  0.4023  0.2023 -0.3654
16911SOL    HW157591   5.347   7.125   3.601  0.3774 -0.4135 -2.6758
16911SOL    HW257592   5.415   7.260   3.594  0.4706 -0.2183  0.5456
16912SOL     OW57593   7.749  10.221   4.577 -0.3347  0.3915  0.1457
16912SOL    HW157594   7.695  10.160   4.527 -0.8725  1.0478 -0.0813
16912SOL    HW257595   7.834  10.220   4.531  0.0108 -0.9378  0.7364
16913SOL     OW57596   3.639   0.983   7.495 -0.5281  0.6439  0.0150
16913SOL    HW157597   3.554   1.017   7.521 -1.8410  0.2604 -3.3019
16913SOL    HW257598   3.619   0.911   7.435  2.1627 -0.1844 -0.0279
16914SOL     OW57599  12.023  10.270   8.160  0.3345  0.4053 -0.3431
16914SOL    HW157600  11.934  10.289   8.131 -0.4328 -0.0133  1.5432
16914SOL    HW257601  12.050  10.349   8.208  1.0927  0.6335 -1.1311
16915SOL     OW57602   7.435   2.690   1.881 -0.4118 -0.2622 -0.5134
16915SOL    HW157603   7.497   2.689   1.809 -1.0675 -0.6451 -1.0880
16915SOL    HW257604   7.400   2.779   1.882 -1.4382 -0.6186 -1.6020
16916SOL     OW57605   4.528   7.644   4.416 -0.4424 -0.0911  0.4352
16916SOL    HW157606   4.595   7.607   4.473 -0.7561  0.8173  1.4395
16916SOL    HW257607   4.460   7.577   4.413 -0.5159 -0.0769  1.3280
16917SOL     OW57608   9.522   3.386   9.522  0.1042  0.5624 -0.1636
16917SOL    HW157609   9.482   3.300   9.508  2.4381 -0.8133  0.9367
16917SOL    HW257610   9.513   3.431   9.438 -1.7460 -0.4648 -0.5716
16918SOL     OW57611   5.446   9.156  10.687 -0.6277  0.0344 -0.0231
16918SOL    HW157612   5.525   9.119  10.727  0.3451  1.2230 -0.7584
16918SOL    HW257613   5.458   9.141  10.593 -2.1955 -1.4393 -0.0213
16919SOL     OW57614   3.433   4.809   5.333  0.4003  0.2041 -0.0254
16919SOL    HW157615   3.429   4.897   5.371 -1.4416  0.1251  0.0624
16919SOL    HW257616   3.447   4.825   5.239  1.1765  0.5448  0.1457
16920SOL     OW57617   0.982   7.969   4.174 -0.7523  0.2547 -0.4353
16920SOL    HW157618   1.052   8.017   4.130 -0.0174 -0.8491 -0.5124
16920SOL    HW257619   0.998   7.984   4.267 -0.2226 -0.2342 -0.4421
16921SOL     OW57620   5.749   5.661   5.882 -0.1414 -0.2906 -0.5028
16921SOL    HW157621   5.691   5.735   5.865 -1.1690 -1.2406 -1.2845
16921SOL    HW257622   5.734   5.640   5.975 -0.0974  0.2627 -0.3689
16922SOL     OW57623   6.130   7.063   4.247  0.3373  0.3289 -0.2581
16922SOL    HW157624   6.115   7.069   4.153 -0.6984 -2.6839 -0.3976
16922SOL    HW257625   6.221   7.033   4.255  0.3603  0.3872 -0.2970
16923SOL     OW57626   5.329   5.930   4.625 -0.6237  0.0348 -0.0725
16923SOL    HW157627   5.284   5.856   4.583 -1.7272  0.4719  0.3142
16923SOL    HW257628   5.309   5.921   4.718  1.7747 -0.9004  0.4517
16924SOL     OW57629   1.699   9.567  12.141 -0.0216  0.1268  0.3562
16924SOL    HW157630   1.778   9.544  12.191  0.6848  2.5056  0.4605
16924SOL    HW257631   1.699   9.506  12.068  1.4666 -0.4774  0.8038
16925SOL     OW57632   4.237   4.647   6.217  0.8945  0.4580  0.5832
16925SOL    HW157633   4.323   4.679   6.189  0.0674  0.6544 -2.0546
16925SOL    HW257634   4.175   4.710   6.180 -0.4227  0.7701  3.0912
16926SOL     OW57635  10.931   5.893   1.716  0.3209 -0.4089  0.5029
16926SOL    HW157636  10.898   5.942   1.640  1.7536 -0.2122 -0.0248
16926SOL    HW257637  10.869   5.913   1.786 -0.9598 -0.4936 -0.5710
16927SOL     OW57638   6.838   6.454  11.999 -0.1538 -0.1553 -0.3298
16927SOL    HW157639   6.848   6.476  11.907  0.7964 -0.8075 -0.3976
16927SOL    HW257640   6.809   6.535  12.040  0.6415  0.4855 -1.0019
16928SOL     OW57641   4.564   8.378   3.764  0.3314  0.0102 -0.3307
16928SOL    HW157642   4.617   8.404   3.839  0.4609  0.3274 -0.5316
16928SOL    HW257643   4.626   8.367   3.692  0.1390  0.3159 -0.5499
16929SOL     OW57644   3.765   3.016   9.977 -0.0613  0.5021  0.1426
16929SOL    HW157645   3.740   3.099   9.937 -1.8311 -1.2437 -2.7082
16929SOL    HW257646   3.682   2.973   9.998  0.7071 -1.4011 -0.4472
16930SOL     OW57647   4.269   3.738   4.644  0.1588 -0.6257  0.3541
16930SOL    HW157648   4.216   3.713   4.569  1.3638  1.3292 -1.2617
16930SOL    HW257649   4.346   3.682   4.640  0.5435 -0.0708 -0.3261
16931SOL     OW57650   1.363   7.598   8.997  0.0035  0.5900 -0.3410
16931SOL    HW157651   1.333   7.515   9.035 -0.3880  0.8734 -0.0241
16931SOL    HW257652   1.298   7.617   8.929 -0.6674  1.3023  0.4747
16932SOL     OW57653   0.196  11.324   4.792  0.0362  0.2356  0.2236
16932SOL    HW157654   0.258  11.380   4.745 -0.0466 -0.9283 -1.3946
16932SOL    HW257655   0.243  11.294   4.869  1.0898  0.2806 -0.3906
16933SOL     OW57656   3.243   9.756   5.939  0.2937 -0.3905  0.9671
16933SOL    HW157657   3.228   9.694   6.011 -1.1261 -1.4254 -0.1723
16933SOL    HW257658   3.166   9.746   5.883  1.3240  0.4719 -0.6500
16934SOL     OW57659   0.237   5.948   9.871  0.3046  0.4807  0.5599
16934SOL    HW157660   0.237   5.923   9.963  1.2106  0.5691  0.5953
16934SOL    HW257661   0.295   5.884   9.829  3.0232  2.6430  0.7109
16935SOL     OW57662   0.662   5.478   8.077  0.4425 -0.4636 -0.1587
16935SOL    HW157663   0.604   5.425   8.131  0.0680  0.5295  0.4287
16935SOL    HW257664   0.748   5.469   8.118  0.1135  0.4887  0.7704
16936SOL     OW57665   6.268   9.306   4.367  0.2957  0.7450  0.8256
16936SOL    HW157666   6.225   9.384   4.404 -1.0794  0.6154 -0.3889
16936SOL    HW257667   6.294   9.332   4.279 -1.8812 -0.6464 -0.3306
16937SOL     OW57668   9.760   4.482   1.793  0.2389  0.3279  0.2310
16937SOL    HW157669   9.816   4.502   1.718 -0.8622 -0.0395 -0.7245
16937SOL    HW257670   9.684   4.539   1.782 -0.1288 -0.0419  0.8304
16938SOL     OW57671  10.576   0.102   0.673  0.3973  0.0147  0.5556
16938SOL    HW157672  10.639   0.128   0.606  0.3300  1.4159  0.9988
16938SOL    HW257673  10.490   0.111   0.631  0.3793  0.4895  0.6802
16939SOL     OW57674  11.917   8.995   1.096  0.1820 -0.1083  0.5964
16939SOL    HW157675  11.987   9.025   1.038  0.5451  0.1383  1.1471
16939SOL    HW257676  11.963   8.968   1.176 -0.3619  0.2087  1.0241
16940SOL     OW57677   0.582   7.188   7.040 -0.4874 -0.1255 -0.0484
16940SOL    HW157678   0.573   7.283   7.046  0.6926 -0.0617  2.5899
16940SOL    HW257679   0.666   7.175   6.996 -0.9112  0.0128 -0.9171
16941SOL     OW57680   8.178   5.756  10.227 -0.3236  0.0974  0.2909
16941SOL    HW157681   8.238   5.721  10.293 -0.0940  0.4518  0.2746
16941SOL    HW257682   8.122   5.816  10.276 -1.4260 -1.0944  0.5245
16942SOL     OW57683   6.447   8.657   6.236  0.6896 -0.0511 -0.1252
16942SOL    HW157684   6.528   8.699   6.265  0.2127  0.3025  0.7615
16942SOL    HW257685   6.435   8.687   6.146  1.7779 -0.4875 -0.4378
16943SOL     OW57686   6.076  11.622   0.214  0.6946 -0.1553  0.1295
16943SOL    HW157687   6.080  11.575   0.131  1.6217 -0.1199  0.1349
16943SOL    HW257688   6.152  11.590   0.263 -0.3631 -0.8865  1.3663
16944SOL     OW57689   6.727   8.884   2.558 -0.2129  0.4615 -0.3573
16944SOL    HW157690   6.798   8.939   2.590  0.9134 -0.3349 -1.4240
16944SOL    HW257691   6.671   8.871   2.634  1.4593  0.0558  0.8523
16945SOL     OW57692   4.457   0.242   9.906  0.3753 -0.2371 -0.0622
16945SOL    HW157693   4.520   0.283   9.965 -0.5942  2.4767 -0.7369
16945SOL    HW257694   4.373   0.248   9.953  0.2452 -1.7578 -0.0769
16946SOL     OW57695   3.725   6.871   3.575  0.4014 -0.0247  0.6994
16946SOL    HW157696   3.803   6.893   3.524 -0.1101 -2.4472 -1.3446
16946SOL    HW257697   3.657   6.930   3.542  0.9166  0.8230  1.1413
16947SOL     OW57698   2.761   3.602   2.869 -0.3562  0.1066 -0.3948
16947SOL    HW157699   2.822   3.665   2.907 -0.6541 -0.1285  0.4949
16947SOL    HW257700   2.702   3.579   2.941 -0.6693 -0.6761 -0.8871
16948SOL     OW57701   3.851   7.339   7.211  0.7579 -0.0043 -0.2802
16948SOL    HW157702   3.922   7.379   7.160  1.4852 -2.1820 -1.0789
16948SOL    HW257703   3.817   7.270   7.154 -1.0458  0.0508  0.6876
16949SOL     OW57704   8.468   1.765   8.011 -0.0154  0.7523  0.2482
16949SOL    HW157705   8.515   1.777   8.094  0.2914 -1.8219  0.5117
16949SOL    HW257706   8.400   1.701   8.030  0.8779 -0.9111 -1.7406
16950SOL     OW57707   2.167  11.090   2.901 -0.0933 -0.3887  0.1284
16950SOL    HW157708   2.172  11.181   2.871 -0.8341 -0.2637  0.3733
16950SOL    HW257709   2.080  11.081   2.938  0.5206 -0.7725  1.5405
16951SOL     OW57710   6.141   8.637   3.458 -0.0560  0.2454  0.0585
16951SOL    HW157711   6.056   8.680   3.450 -0.9160 -1.2771  0.5057
16951SOL    HW257712   6.137   8.591   3.542  0.5101 -1.2635 -0.7001
16952SOL     OW57713   5.229  11.141  11.882 -0.2805  0.1939  0.1662
16952SOL    HW157714   5.144  11.120  11.919 -0.1592  0.3667  0.5458
16952SOL    HW257715   5.264  11.210  11.938  0.0895  0.1577 -0.0133
16953SOL     OW57716   9.807  10.544   5.711  0.4389  0.3262  0.3597
16953SOL    HW157717   9.858  10.488   5.653  1.3026 -0.6754  1.9873
16953SOL    HW257718   9.868  10.567   5.781 -0.6346  1.2160  1.0286
16954SOL     OW57719   4.536   4.686   4.402  0.3691  0.6744 -0.1166
16954SOL    HW157720   4.485   4.643   4.334  0.0700  0.6894  0.0944
16954SOL    HW257721   4.521   4.632   4.480  1.6896 -0.0539 -0.3385
16955SOL     OW57722   8.171   8.294  10.265 -0.0424  0.1630 -0.4834
16955SOL    HW157723   8.237   8.335  10.322  0.7326 -0.6154 -0.7841
16955SOL    HW257724   8.096   8.279  10.322 -0.6624  2.6175 -0.5281
16956SOL     OW57725   9.230   7.923   6.047  0.1777  0.5583  0.1793
16956SOL    HW157726   9.209   7.895   5.958 -0.0898 -0.6970  0.6182
16956SOL    HW257727   9.147   7.952   6.084  0.1432  0.3482  0.2690
16957SOL     OW57728   2.327   9.968   8.895  0.2690 -0.4292 -0.7335
16957SOL    HW157729   2.372  10.048   8.869 -0.2408  0.5527  1.2598
16957SOL    HW257730   2.394   9.915   8.938  0.4564 -0.8219 -1.4882
16958SOL     OW57731   7.185   7.189  12.106  0.1393  0.0229  0.1045
16958SOL    HW157732   7.111   7.146  12.150  1.2904  0.0007  2.1610
16958SOL    HW257733   7.257   7.126  12.114  1.3380  1.4742  1.4559
16959SOL     OW57734   8.080   1.090   5.930 -0.6072 -0.4102  0.2951
16959SOL    HW157735   8.139   1.144   5.981  2.2900 -1.9359 -1.1644
16959SOL    HW257736   8.035   1.035   5.995 -2.4287  2.4202  1.6409
16960SOL     OW57737   0.588   5.626   0.917  0.0752  0.2938 -0.0303
16960SOL    HW157738   0.634   5.546   0.890 -1.4943 -0.3163 -1.0618
16960SOL    HW257739   0.591   5.683   0.840  2.0720  1.7209  1.0192
16961SOL     OW57740   0.431   2.133   6.278  0.2597  0.1575  0.3551
16961SOL    HW157741   0.477   2.172   6.204 -1.8342  0.1744 -1.0382
16961SOL    HW257742   0.361   2.195   6.298  0.0411 -0.4377  1.5676
16962SOL     OW57743   4.757  10.485   2.884  0.2896 -0.4755  0.1024
16962SOL    HW157744   4.673  10.488   2.838 -0.4236 -1.0872  1.3017
16962SOL    HW257745   4.810  10.423   2.833 -0.4449 -1.0633  0.0233
16963SOL     OW57746   4.091   2.750   1.624 -0.4441 -0.7386 -0.0365
16963SOL    HW157747   4.066   2.833   1.581  0.2466  0.1352  1.2087
16963SOL    HW257748   4.168   2.721   1.576  0.7847  0.6305  1.0456
16964SOL     OW57749   4.041   5.314   8.349  1.1355 -0.2063 -0.3146
16964SOL    HW157750   3.966   5.264   8.381  0.0908  0.7137 -1.2080
16964SOL    HW257751   4.098   5.324   8.425 -0.9613  1.4098  1.1812
16965SOL     OW57752   7.865   4.041  12.115 -0.7738 -0.3612  0.2837
16965SOL    HW157753   7.778   4.016  12.144 -1.1622  0.4656 -0.1135
16965SOL    HW257754   7.871   4.135  12.135  1.2917 -1.0168  3.4031
16966SOL     OW57755   2.243   0.852   9.762 -0.3286  0.2957  0.1193
16966SOL    HW157756   2.295   0.877   9.686  0.7725 -0.3159  0.6479
16966SOL    HW257757   2.286   0.773   9.796 -1.6977 -0.3227  0.4891
16967SOL     OW57758   4.736  10.155  10.919 -0.2351 -0.1442  0.0742
16967SOL    HW157759   4.732  10.065  10.952 -0.6611 -0.0418  0.3069
16967SOL    HW257760   4.672  10.202  10.971 -2.4280 -0.4070 -2.2238
16968SOL     OW57761   4.082   9.613  10.970  0.3101 -0.0700  0.4547
16968SOL    HW157762   3.997   9.588  11.006 -1.0664  1.5940 -1.4316
16968SOL    HW257763   4.130   9.647  11.045 -1.2876  0.4358  1.3045
16969SOL     OW57764   7.630  10.122   8.618 -0.2200  0.3321 -0.3855
16969SOL    HW157765   7.711  10.143   8.665  0.3189 -1.9590 -0.1620
16969SOL    HW257766   7.647  10.037   8.578 -2.9469 -0.9119  0.8149
16970SOL     OW57767   6.416   1.445   0.628 -0.2895 -0.3957  0.0949
16970SOL    HW157768   6.504   1.483   0.626 -1.2721  2.0428 -1.5045
16970SOL    HW257769   6.373   1.487   0.702 -0.2029 -1.4694  0.7800
16971SOL     OW57770  10.093  10.916   2.160  0.0126 -0.0298  0.1947
16971SOL    HW157771  10.038  10.990   2.185 -1.1756 -0.2141 -1.6864
16971SOL    HW257772  10.085  10.854   2.233  2.0131  2.1068  2.4132
16972SOL     OW57773   3.804   3.708   8.054  0.0800 -0.2510  0.0967
16972SOL    HW157774   3.860   3.644   8.011 -1.7470 -2.5062  0.8981
16972SOL    HW257775   3.727   3.714   7.997  0.5387  1.9246 -0.3889
16973SOL     OW57776   2.110   3.677   5.744  0.0002  0.1958 -0.1024
16973SOL    HW157777   2.183   3.616   5.758  0.2560  0.6323  0.5189
16973SOL    HW257778   2.036   3.636   5.788  0.1192  0.2377  0.1360
16974SOL     OW57779   8.813   1.753   7.942  0.3036 -0.6570 -0.6036
16974SOL    HW157780   8.883   1.693   7.969  0.6250 -1.2647 -2.5944
16974SOL    HW257781   8.835   1.774   7.851 -1.1804  0.5146 -0.7044
16975SOL     OW57782  12.363   2.052   3.713 -0.2001  0.2418  0.1355
16975SOL    HW157783  12.343   1.961   3.736  1.9194  0.0632  1.5347
16975SOL    HW257784  12.399   2.090   3.793 -0.0605  2.0338 -0.7161
16976SOL     OW57785   6.125   2.792   5.996  0.3776 -0.4357  0.0667
16976SOL    HW157786   6.204   2.837   6.027  1.7660 -2.6138 -0.0321
16976SOL    HW257787   6.145   2.699   6.008 -2.3719 -1.0695  0.4018
16977SOL     OW57788   2.098   4.608  10.093  0.1689 -0.0095 -0.4830
16977SOL    HW157789   2.105   4.524  10.140 -0.3756 -1.0673 -2.2138
16977SOL    HW257790   2.165   4.603  10.025 -1.1927  0.0981 -1.8589
16978SOL     OW57791   9.422   2.130  12.524 -0.8575  0.8955 -0.4379
16978SOL    HW157792   9.474   2.081  12.460 -0.7746  2.3364 -1.5181
16978SOL    HW257793   9.449   2.094  12.609  0.9137  0.6921 -1.0468
16979SOL     OW57794   9.933   0.723   5.061  0.3429  0.1551  0.3227
16979SOL    HW157795   9.891   0.776   4.993  2.0779 -0.3274 -1.2225
16979SOL    HW257796   9.860   0.684   5.109 -0.9823  3.1567  0.9614
16980SOL     OW57797  11.437  12.433  11.543 -0.0028 -0.5851 -0.6947
16980SOL    HW157798  11.417  12.378  11.467 -0.6497 -3.2969  1.3105
16980SOL    HW257799  11.352  12.450  11.583  0.3296  0.8205 -0.5235
16981SOL     OW57800   3.460  10.726   3.597  0.5392  0.2893  0.0871
16981SOL    HW157801   3.381  10.770   3.564  0.7045  0.8386  0.4113
16981SOL    HW257802   3.466  10.754   3.688  1.0475  0.1621  0.0936
16982SOL     OW57803  11.798   6.635   9.501 -0.1798 -0.2628  0.8155
16982SOL    HW157804  11.879   6.583   9.500 -0.0984 -0.1706  1.6528
16982SOL    HW257805  11.729   6.574   9.477  0.0720 -0.4600  0.5847
16983SOL     OW57806   6.299  11.258   8.144  0.2710  0.3102 -0.2535
16983SOL    HW157807   6.275  11.243   8.053 -0.7239  4.0321 -0.7798
16983SOL    HW257808   6.215  11.266   8.190  0.6768  1.7288  0.2809
16984SOL     OW57809   9.484   0.662  10.519  0.6168 -0.1896 -0.1583
16984SOL    HW157810   9.453   0.743  10.559  0.2300  0.2283 -1.2671
16984SOL    HW257811   9.522   0.689  10.435  1.6009 -1.0119 -0.0005
16985SOL     OW57812   9.514   5.989   9.351  0.1059  0.0086  0.1604
16985SOL    HW157813   9.492   5.912   9.298 -0.8003  0.5914 -0.3436
16985SOL    HW257814   9.572   6.041   9.294 -0.9404  0.6790 -0.3364
16986SOL     OW57815   5.501   4.812   9.332  0.2193 -0.3250 -0.1340
16986SOL    HW157816   5.541   4.730   9.362  0.6312  0.1416  0.6153
16986SOL    HW257817   5.575   4.867   9.306 -0.0576 -0.1888 -0.6347
16987SOL     OW57818   3.309   2.809   1.973  0.4750  0.3156  0.1710
16987SOL    HW157819   3.251   2.770   1.908  0.7906  1.2439 -0.6919
16987SOL    HW257820   3.263   2.799   2.056 -0.6831  0.5754 -0.4233
16988SOL     OW57821  10.222   8.319   0.831  0.0055  0.1815 -0.0382
16988SOL    HW157822  10.260   8.389   0.778 -0.5546  0.6199  0.1299
16988SOL    HW257823  10.159   8.363   0.888  0.8358 -0.2415  1.2421
16989SOL     OW57824   7.929   9.428   1.313  0.1062 -0.0822 -0.3199
16989SOL    HW157825   7.940   9.508   1.261  2.3645 -0.5377 -0.6354
16989SOL    HW257826   7.950   9.357   1.252 -0.2029 -0.8220  0.4208
16990SOL     OW57827  12.037   6.936  10.901  0.2961  0.1865  0.3103
16990SOL    HW157828  12.028   6.879  10.825  0.2353  0.3435  0.2000
16990SOL    HW257829  12.131   6.951  10.909  0.4591 -1.1672  1.2489
16991SOL     OW57830  11.960   9.924  11.907  0.2311  0.3962  0.2148
16991SOL    HW157831  11.868   9.935  11.885 -0.1038 -3.6776 -1.2690
16991SOL    HW257832  12.007   9.957  11.830 -0.3050 -1.5306 -1.0102
16992SOL     OW57833   3.919  10.426  10.520 -0.2586  0.2404  0.0828
16992SOL    HW157834   3.834  10.383  10.508 -0.2456 -0.4960  2.1956
16992SOL    HW257835   3.920  10.450  10.612  1.4816  1.0488 -0.1242
16993SOL     OW57836   5.849   5.284   7.046  0.0829 -0.1367 -0.0125
16993SOL    HW157837   5.808   5.307   7.130 -0.3357 -0.8694 -0.0036
16993SOL    HW257838   5.939   5.314   7.054  0.5161 -1.7002  1.3568
16994SOL     OW57839   2.665   9.031   4.618  0.0252 -0.3078 -0.1656
16994SOL    HW157840   2.752   9.019   4.655 -0.3638 -2.0451  0.2742
16994SOL    HW257841   2.635   9.114   4.654  0.2435 -1.2215  2.3329
16995SOL     OW57842  11.748  12.504   0.202 -0.0983  0.4009 -0.4060
16995SOL    HW157843  11.835  12.471   0.177 -0.1916 -0.0531 -0.1497
16995SOL    HW257844  11.759  12.534   0.292 -0.5009 -0.8155  0.0649
16996SOL     OW57845   5.903   9.766   9.221  0.1500  0.8007 -0.0337
16996SOL    HW157846   5.875   9.847   9.262  2.6371  2.1066 -0.6726
16996SOL    HW257847   5.943   9.715   9.292  0.1049  0.8966  0.0601
16997SOL     OW57848   9.832   8.104   7.164 -0.5814 -0.0677 -0.1804
16997SOL    HW157849   9.840   8.074   7.255 -1.9650 -2.1218 -0.6678
16997SOL    HW257850   9.778   8.183   7.169 -0.2906  0.0770  0.8077
16998SOL     OW57851   4.289   2.903   9.934 -0.8693  0.1092  0.5311
16998SOL    HW157852   4.244   2.829   9.973  0.1524 -0.2727  1.0148
16998SOL    HW257853   4.331   2.948  10.008 -0.6204  0.5702  0.1227
16999SOL     OW57854  11.044   5.742   0.910  0.1497 -0.2388  0.3127
16999SOL    HW157855  11.097   5.797   0.967 -1.1150 -0.0694  1.3582
16999SOL    HW257856  10.953   5.762   0.934 -0.3667 -2.6525  0.6550
17000SOL     OW57857   9.246   8.843  12.039 -0.3814  0.1769 -0.4117
17000SOL    HW157858   9.157   8.871  12.022 -0.7518 -1.2349 -0.9597
17000SOL    HW257859   9.301   8.909  11.998 -1.1806  0.8193 -0.4601
17001SOL     OW57860   1.807   2.199   7.367 -0.6643  0.0571  0.8379
17001SOL    HW157861   1.809   2.126   7.305 -0.6944  1.1287 -0.4964
17001SOL    HW257862   1.882   2.253   7.343 -0.3777  0.2518  2.1006
17002SOL     OW57863   7.295   7.204   8.602  0.2465 -0.4418 -0.0018
17002SOL    HW157864   7.213   7.170   8.566  0.9557 -0.9729 -1.1526
17002SOL    HW257865   7.270   7.286   8.645 -0.7530 -0.2097 -0.9897
17003SOL     OW57866   2.245   4.163   7.110 -0.1514  0.1128  0.3661
17003SOL    HW157867   2.152   4.156   7.089 -0.3246  0.9234  0.8345
17003SOL    HW257868   2.289   4.117   7.038 -0.9007 -0.1976  0.0933
17004SOL     OW57869   3.021   3.761   3.522 -0.7221  0.3252 -0.5444
17004SOL    HW157870   3.074   3.823   3.472  1.1504 -2.1233 -1.8895
17004SOL    HW257871   3.014   3.685   3.464 -3.3839 -0.5307  0.7650
17005SOL     OW57872   2.678  12.348   4.790  0.0552 -0.4447  0.0448
17005SOL    HW157873   2.600  12.334   4.843 -0.0587  0.8134  0.2362
17005SOL    HW257874   2.647  12.392   4.711  0.2828 -1.9181 -0.9138
17006SOL     OW57875   1.414   4.061   3.578 -0.0426 -0.2634 -0.4298
17006SOL    HW157876   1.458   4.139   3.544 -0.7352  0.6930  0.7874
17006SOL    HW257877   1.383   4.015   3.499  1.2218  0.1692 -1.1979
17007SOL     OW57878   0.093   0.160   1.215  0.4701 -0.2810 -0.4688
17007SOL    HW157879   0.037   0.087   1.242 -0.0883 -0.1075 -1.1606
17007SOL    HW257880   0.113   0.143   1.123  1.3063 -0.1757 -0.3173
17008SOL     OW57881   3.546   3.603   4.836 -0.1001  0.0226  0.3511
17008SOL    HW157882   3.570   3.681   4.785  1.4638 -0.1149  0.8501
17008SOL    HW257883   3.613   3.596   4.903 -1.4704 -0.4855  1.7281
17009SOL     OW57884   5.657   8.953   8.031  0.2157 -0.3230  0.3233
17009SOL    HW157885   5.673   8.927   8.122 -0.5975 -1.1514  0.2340
17009SOL    HW257886   5.562   8.953   8.021  0.2017  1.5549 -0.0294
17010SOL     OW57887   9.939   3.540   8.534 -0.0216 -0.1084 -0.1114
17010SOL    HW157888   9.985   3.471   8.485 -0.6762  1.0214 -2.4710
17010SOL    HW257889   9.891   3.589   8.467  0.1907  2.4819  1.4903
17011SOL     OW57890   6.337   2.352   4.024 -0.0384  0.4526 -0.2285
17011SOL    HW157891   6.375   2.296   3.956  0.5242  2.0836 -1.3137
17011SOL    HW257892   6.335   2.439   3.985 -2.0957  0.9987  0.9217
17012SOL     OW57893   4.301   6.404   6.255 -0.6774  0.8003 -0.8209
17012SOL    HW157894   4.369   6.380   6.318 -0.2736  0.8659 -1.2296
17012SOL    HW257895   4.309   6.499   6.246 -1.3642  0.9201 -0.2539
17013SOL     OW57896   7.066   0.026   4.968  0.1531 -0.4830  0.3972
17013SOL    HW157897   6.974   0.027   4.939  0.3710 -2.7131 -0.5976
17013SOL    HW257898   7.111   0.083   4.905 -0.3791 -0.2343  0.2306
17014SOL     OW57899   4.095   7.489   1.219  0.2896  0.0683  0.4995
17014SOL    HW157900   4.161   7.489   1.288 -0.3943 -2.0211  1.2293
17014SOL    HW257901   4.033   7.421   1.245 -2.9750  2.8192  0.5965
17015SOL     OW57902   9.421   7.443   1.526 -0.2363 -0.9747  0.3276
17015SOL    HW157903   9.441   7.359   1.485  1.1984 -0.0803 -0.8811
17015SOL    HW257904   9.385   7.496   1.456  1.3692  0.2659  0.3755
17016SOL     OW57905   6.084   2.460  10.504  0.0239  0.1523 -0.1246
17016SOL    HW157906   6.154   2.490  10.446 -0.8203  2.4875 -0.0276
17016SOL    HW257907   6.121   2.466  10.592  0.7615 -1.8562 -0.2374
17017SOL     OW57908  12.470   3.727  12.451  0.2154  0.1440  0.1659
17017SOL    HW157909  12.483   3.636  12.423 -0.8367 -0.5069  1.6075
17017SOL    HW257910  12.550   3.749  12.499  1.6085  0.9406 -2.3631
17018SOL     OW57911   7.731   7.919  12.356  0.4152 -0.1450 -0.3716
17018SOL    HW157912   7.690   8.002  12.381 -1.3651 -1.4613  1.3066
17018SOL    HW257913   7.685   7.893  12.276  3.4092  2.0938 -3.1175
17019SOL     OW57914   2.024   0.090   2.450 -0.0895  0.0816  0.2126
17019SOL    HW157915   2.095   0.059   2.507  1.3457 -1.4588 -2.2197
17019SOL    HW257916   2.069   0.137   2.379 -1.4835 -0.6901 -1.2575
17020SOL     OW57917   0.558   6.355   2.177  0.2152  0.0916 -0.0648
17020SOL    HW157918   0.480   6.346   2.122  0.9248  0.9597 -1.2516
17020SOL    HW257919   0.561   6.448   2.201  0.0526 -0.2242  1.2759
17021SOL     OW57920   8.271   9.121  11.502  0.7603 -0.4688 -0.3419
17021SOL    HW157921   8.332   9.191  11.527 -0.6895  0.4171  0.8429
17021SOL    HW257922   8.211   9.163  11.440  0.4608 -0.9159 -0.3575
17022SOL     OW57923   9.202  11.877   6.707  0.6245  0.2213  0.5903
17022SOL    HW157924   9.140  11.818   6.750  1.3427 -2.1189 -1.3393
17022SOL    HW257925   9.283  11.826   6.701  1.2930  1.3802 -1.1508
17023SOL     OW57926   0.207   6.912  12.381 -0.0032  0.5192 -0.2000
17023SOL    HW157927   0.207   6.819  12.403 -0.8813  0.8222  1.1698
17023SOL    HW257928   0.291   6.944  12.414  0.2052  0.2736 -0.4787
17024SOL     OW57929   1.774   4.873  12.270  0.2518 -0.1608  0.0891
17024SOL    HW157930   1.732   4.891  12.354  0.5495  0.1003  0.1823
17024SOL    HW257931   1.843   4.810  12.290 -0.6894 -1.3376 -0.2097
17025SOL     OW57932   1.453   4.791   9.124  0.2777 -0.0395  0.2464
17025SOL    HW157933   1.531   4.812   9.174 -0.2727  1.5334  0.4958
17025SOL    HW257934   1.483   4.730   9.056  1.8082  0.8972  0.0428
17026SOL     OW57935  12.444   2.969   2.397  0.2904 -0.4618 -0.1318
17026SOL    HW157936  12.429   2.978   2.490  0.2262  2.4578 -0.3412
17026SOL    HW257937  12.366   2.926   2.363 -0.0935 -0.6882  1.0144
17027SOL     OW57938   3.815  10.594  10.728  0.3054  0.3032  0.2234
17027SOL    HW157939   3.800  10.524  10.793  0.0834  0.0781 -0.0661
17027SOL    HW257940   3.846  10.668  10.780  0.0615  0.1470  0.5988
17028SOL     OW57941   9.861   2.207   2.378 -0.0509  0.0756 -0.0623
17028SOL    HW157942   9.801   2.269   2.337  0.4230  1.4472  1.1982
17028SOL    HW257943   9.874   2.242   2.467  2.5394 -0.1937 -0.2601
17029SOL     OW57944   4.443   9.489   1.926  0.1958  0.3723  0.3367
17029SOL    HW157945   4.374   9.508   1.990 -1.0083 -0.8380 -0.5429
17029SOL    HW257946   4.497   9.567   1.925 -0.8893  1.1731  1.4174
17030SOL     OW57947   0.350   6.218   7.048 -0.0544 -0.2651 -0.1695
17030SOL    HW157948   0.397   6.258   7.121 -0.2932  0.0433 -0.1861
17030SOL    HW257949   0.263   6.198   7.082 -0.2094 -0.0016 -0.4049
17031SOL     OW57950   4.136   5.592   6.778 -0.7961 -0.1036 -0.2125
17031SOL    HW157951   4.167   5.682   6.782 -1.7751  0.2403 -0.1616
17031SOL    HW257952   4.092   5.577   6.862 -0.1416 -0.8226  0.0180
17032SOL     OW57953   0.603  12.122   3.442 -0.1667  0.0504 -0.2255
17032SOL    HW157954   0.553  12.200   3.464 -0.2709  0.3038 -1.3119
17032SOL    HW257955   0.625  12.133   3.349 -2.2826 -2.3404 -1.1230
17033SOL     OW57956   8.006  10.416   4.772  0.2163  0.1990  0.1506
17033SOL    HW157957   7.985  10.351   4.705  1.8862 -0.4571  0.2310
17033SOL    HW257958   7.935  10.410   4.835  1.1568 -2.8015  1.0758
17034SOL     OW57959   7.132   3.242   7.042  0.4027 -0.4522  0.2483
17034SOL    HW157960   7.101   3.211   7.127  0.6269 -0.2057  0.4203
17034SOL    HW257961   7.057   3.232   6.984  0.5182 -1.4849  0.2608
17035SOL     OW57962   8.996   1.791   1.620 -0.4322  0.3487 -0.2008
17035SOL    HW157963   8.990   1.887   1.615  0.0531  0.3425 -1.0749
17035SOL    HW257964   8.909   1.764   1.649 -0.7173  1.0263 -0.3921
17036SOL     OW57965   2.147   0.804   2.001 -0.3110  0.0705 -0.2540
17036SOL    HW157966   2.079   0.772   1.941 -0.8089 -0.0260  0.3457
17036SOL    HW257967   2.101   0.819   2.083  0.5922 -1.0421  0.4946
17037SOL     OW57968   4.460   1.678   6.212  0.2361 -0.2234 -0.3189
17037SOL    HW157969   4.371   1.711   6.196  0.5785  1.3364  0.7898
17037SOL    HW257970   4.501   1.745   6.266  1.4694 -1.8419  0.8549
17038SOL     OW57971   0.140   8.595   4.029 -0.0320 -0.5164 -0.3709
17038SOL    HW157972   0.221   8.544   4.018 -0.3293 -1.1725  0.3613
17038SOL    HW257973   0.118   8.585   4.121 -0.5259  0.3196 -0.3877
17039SOL     OW57974   4.264   1.995   7.071  0.3237  0.3961 -0.0243
17039SOL    HW157975   4.335   1.972   7.130  0.9050 -0.0131 -0.8587
17039SOL    HW257976   4.204   2.048   7.124  1.1826  0.6333  0.7266
17040SOL     OW57977   8.412   7.769   7.608  0.4489  0.4758 -0.1647
17040SOL    HW157978   8.456   7.771   7.693  0.3636 -0.3247 -0.0982
17040SOL    HW257979   8.476   7.807   7.547  0.4403  1.2250  0.2793
17041SOL     OW57980   1.039  10.121   7.969 -0.0662  0.4115  0.1840
17041SOL    HW157981   1.008  10.199   7.923 -1.4022 -0.0771  0.2035
17041SOL    HW257982   0.962  10.088   8.015  0.5639 -0.7136  0.4779
17042SOL     OW57983  12.436  10.756   1.345  0.2212  0.6025  0.7420
17042SOL    HW157984  12.450  10.664   1.367  0.4013  0.2599 -0.6847
17042SOL    HW257985  12.501  10.774   1.277 -0.4936  1.4940  0.2741
17043SOL     OW57986   0.223   3.308   1.306 -0.2565  0.5633 -0.1221
17043SOL    HW157987   0.221   3.212   1.300 -0.8420  0.6103 -0.8252
17043SOL    HW257988   0.260   3.326   1.392 -1.0365 -0.3109  0.4047
17044SOL     OW57989   7.303   3.658   9.447 -0.5408  1.2451 -0.2722
17044SOL    HW157990   7.273   3.691   9.362 -0.3084  0.8002 -0.5321
17044SOL    HW257991   7.228   3.610   9.482  0.3479 -1.4688 -1.7536
17045SOL     OW57992   6.857   5.780   8.886 -0.3064  0.5454  0.1738
17045SOL    HW157993   6.947   5.753   8.866 -0.2143 -0.3963  1.6509
17045SOL    HW257994   6.842   5.857   8.832  1.5360  0.9332  0.1499
17046SOL     OW57995   7.718  12.277   6.113  0.0806  0.3046  0.1554
17046SOL    HW157996   7.628  12.309   6.113 -0.0742  0.1337  3.0610
17046SOL    HW257997   7.711  12.187   6.145  1.2105 -0.0388 -0.5163
17047SOL     OW57998   4.082   1.479   9.627  0.0154  0.1441 -0.7968
17047SOL    HW157999   4.036   1.492   9.710  1.9615  0.8023  0.2667
17047SOL    HW258000   4.081   1.564   9.584  4.3483  1.7661  1.6083
17048SOL     OW58001   3.367   1.346   7.377  0.1117 -1.0566  0.0172
17048SOL    HW158002   3.291   1.352   7.436 -0.2703 -1.6799 -0.3929
17048SOL    HW258003   3.413   1.429   7.388  0.7050 -1.6030  2.0769
17049SOL     OW58004   4.474   6.140   0.510 -0.2245 -0.1480 -0.4358
17049SOL    HW158005   4.383   6.149   0.482 -0.4394 -1.4493 -0.2387
17049SOL    HW258006   4.475   6.172   0.600 -0.5624 -0.4122 -0.3371
17050SOL     OW58007   7.097   0.549   5.702 -0.6651  0.0035  0.3666
17050SOL    HW158008   7.018   0.591   5.736 -0.4588  0.6430  0.0604
17050SOL    HW258009   7.064   0.488   5.636 -1.1148 -1.6068  2.0069
17051SOL     OW58010   3.089   6.349   2.721  0.1426  0.8536  0.1860
17051SOL    HW158011   3.115   6.399   2.644  2.5286 -0.7112 -0.1341
17051SOL    HW258012   3.126   6.396   2.795 -1.3630  1.8516  0.3550
17052SOL     OW58013   6.035  10.495   1.632 -0.0212 -0.5683  0.0400
17052SOL    HW158014   6.065  10.444   1.707  0.3379  0.0850  0.3512
17052SOL    HW258015   5.966  10.441   1.593  1.5633 -2.1216 -0.7300
17053SOL     OW58016   4.371   9.325  12.193  0.1555 -0.0270 -0.0656
17053SOL    HW158017   4.348   9.321  12.286  1.3657 -1.6659  0.2113
17053SOL    HW258018   4.310   9.389  12.156 -1.4175 -0.5086  1.5466
17054SOL     OW58019   6.496   2.682   5.627  0.1406 -0.4996 -0.4075
17054SOL    HW158020   6.479   2.660   5.718 -1.2860 -0.6428 -0.6769
17054SOL    HW258021   6.550   2.761   5.630  1.2256 -1.2527  0.5495
17055SOL     OW58022   7.204   4.744   7.722  0.3037 -0.4306 -1.0481
17055SOL    HW158023   7.211   4.805   7.649  1.4377  1.4379  0.4974
17055SOL    HW258024   7.295   4.719   7.741  0.2977  0.7462  0.9030
17056SOL     OW58025   6.859  10.946   1.842 -0.2717  0.3466 -0.8117
17056SOL    HW158026   6.865  10.854   1.816 -1.8176  0.4871 -1.7654
17056SOL    HW258027   6.786  10.949   1.903 -1.4686  1.1991 -2.2168
17057SOL     OW58028   1.260   8.287   9.451 -0.2720 -0.2051  0.2186
17057SOL    HW158029   1.267   8.273   9.356  1.4392  1.2907  0.0713
17057SOL    HW258030   1.171   8.322   9.463 -0.5923 -0.6129 -0.7974
17058SOL     OW58031  10.170   7.956   8.431 -0.4993  0.3644  0.7660
17058SOL    HW158032  10.143   8.042   8.462  0.3275  1.0222 -0.2932
17058SOL    HW258033  10.175   7.903   8.510 -1.9332  1.0099  1.3383
17059SOL     OW58034  11.424   6.759   0.533 -0.5014  0.0610  0.0175
17059SOL    HW158035  11.489   6.769   0.463 -2.6849 -1.2664 -2.3536
17059SOL    HW258036  11.356   6.822   0.510 -2.1761 -1.7683 -0.2768
17060SOL     OW58037   9.649   4.004   0.927 -0.2102  0.1925  0.3533
17060SOL    HW158038   9.721   3.945   0.950 -0.6903 -1.0844 -1.2705
17060SOL    HW258039   9.572   3.966   0.969 -0.6681 -0.8526 -1.3429
17061SOL     OW58040   1.875   1.819  12.275  0.6272  0.5274 -0.1133
17061SOL    HW158041   1.895   1.829  12.182  1.0469  0.0474 -0.0773
17061SOL    HW258042   1.784   1.848  12.283  0.0389 -0.9561 -0.9654
17062SOL     OW58043   4.645   5.000   7.142 -0.2846 -0.1804 -0.1879
17062SOL    HW158044   4.638   5.008   7.237 -0.6980 -1.1627 -0.1133
17062SOL    HW258045   4.566   5.043   7.108 -1.3724 -1.8731  0.0701
17063SOL     OW58046   4.795   6.657   6.546  0.5156  0.2120 -0.0803
17063SOL    HW158047   4.875   6.700   6.577  0.5211  1.9397 -2.2253
17063SOL    HW258048   4.823   6.569   6.522  1.4484  0.3103  0.5856
17064SOL     OW58049   6.844   8.699   9.410  0.5859  0.6239 -0.3999
17064SOL    HW158050   6.889   8.774   9.370 -0.6740  2.0431  0.7158
17064SOL    HW258051   6.770   8.738   9.457  0.5208 -1.2214  1.1478
17065SOL     OW58052   0.252   4.161   8.573 -0.0200  0.1840  0.2191
17065SOL    HW158053   0.331   4.131   8.617 -0.5209 -0.6845  0.5494
17065SOL    HW258054   0.187   4.169   8.643 -0.8792 -1.3795 -0.3446
17066SOL     OW58055   1.345   7.770  12.289 -0.1690 -0.2237  0.2460
17066SOL    HW158056   1.383   7.842  12.339 -0.4660 -0.6364  1.0755
17066SOL    HW258057   1.406   7.757  12.216 -0.2445  1.0373 -0.0716
17067SOL     OW58058  12.332   1.250   1.820 -0.5148  0.2952  0.1336
17067SOL    HW158059  12.392   1.294   1.880 -1.0312 -0.1904  1.0175
17067SOL    HW258060  12.273   1.319   1.791 -0.2194  0.5473  0.1276
17068SOL     OW58061   0.812   8.589   6.785 -0.0485 -0.6150 -0.0201
17068SOL    HW158062   0.832   8.619   6.874 -0.5733  0.8316 -0.3588
17068SOL    HW258063   0.845   8.500   6.782 -1.1441 -1.1640  2.0423
17069SOL     OW58064   5.335  10.422   0.531  0.1144  0.2835  0.6427
17069SOL    HW158065   5.419  10.467   0.538  0.7794 -0.7880 -0.0876
17069SOL    HW258066   5.309  10.433   0.439 -1.0192  1.3720  1.0557
17070SOL     OW58067   9.461   6.397   0.547  0.6376 -0.1274 -0.0532
17070SOL    HW158068   9.514   6.331   0.591  2.2194  1.5535  0.6939
17070SOL    HW258069   9.522   6.468   0.527 -0.8430  0.8293 -1.4624
17071SOL     OW58070   7.178   7.066  11.505  0.2677 -0.0484  0.0380
17071SOL    HW158071   7.214   7.155  11.496 -1.0715  0.3831 -1.3723
17071SOL    HW258072   7.104   7.064  11.445 -0.5464 -1.7137  1.0386
17072SOL     OW58073   9.970   5.528   2.738 -0.2974  0.6940  0.2627
17072SOL    HW158074   9.979   5.521   2.833 -0.8145 -0.0431  0.2630
17072SOL    HW258075  10.004   5.616   2.717  2.0218  0.0158  0.8425
17073SOL     OW58076   3.536   1.161  11.654 -0.3723  0.3117 -0.1368
17073SOL    HW158077   3.569   1.233  11.600 -0.8651  1.2021  0.7235
17073SOL    HW258078   3.522   1.200  11.740 -1.5588 -0.5891  0.0961
17074SOL     OW58079   3.427   7.552  12.197 -0.0270 -0.2509  0.4161
17074SOL    HW158080   3.436   7.597  12.113 -0.0290  0.2638  0.6886
17074SOL    HW258081   3.411   7.461  12.173 -0.9086  0.0377 -0.1594
17075SOL     OW58082  11.897   4.935   7.710 -0.2232  0.2891  0.3793
17075SOL    HW158083  11.869   4.910   7.622 -0.0988 -0.4322  0.5351
17075SOL    HW258084  11.881   5.029   7.715 -0.6423  0.2569 -0.2626
17076SOL     OW58085   4.365   9.087   2.482  0.1501 -0.0009 -0.0270
17076SOL    HW158086   4.308   9.161   2.503  0.1831 -0.3563  1.4057
17076SOL    HW258087   4.452   9.125   2.472 -0.1894  0.4471 -1.5490
17077SOL     OW58088   5.823   2.022   3.112 -0.2088 -0.3403 -0.2253
17077SOL    HW158089   5.830   1.956   3.181  1.8824  1.3331  1.3307
17077SOL    HW258090   5.914   2.036   3.084 -0.7465  0.9224 -1.4491
17078SOL     OW58091   9.390   8.376   0.848  0.2751  0.0239 -1.2094
17078SOL    HW158092   9.397   8.428   0.928 -1.4256  1.5276 -1.9742
17078SOL    HW258093   9.456   8.413   0.789 -0.0992  0.5159 -1.3241
17079SOL     OW58094   9.592   6.777   0.225  0.7821  0.5623  0.3777
17079SOL    HW158095   9.564   6.704   0.169  0.1779  1.2416 -0.2232
17079SOL    HW258096   9.549   6.760   0.309 -0.2501  0.7845 -0.0839
17080SOL     OW58097   3.387  10.911   2.251  0.7263 -0.3248 -0.5397
17080SOL    HW158098   3.392  10.937   2.159 -0.9014 -0.8367 -0.8035
17080SOL    HW258099   3.293  10.906   2.269  1.0234  0.2737  1.3096
17081SOL     OW58100   6.781   6.845  12.291 -0.0285  0.1297 -0.1355
17081SOL    HW158101   6.759   6.938  12.292  0.0633  0.1687 -0.9161
17081SOL    HW258102   6.845   6.834  12.361 -1.7601  0.2030  1.5164
17082SOL     OW58103   7.228   3.054   7.501 -0.1337 -0.5043  0.1166
17082SOL    HW158104   7.221   3.105   7.582 -0.6767 -0.7372  0.2248
17082SOL    HW258105   7.322   3.039   7.490 -0.1016 -1.0857  1.0946
17083SOL     OW58106   5.394   5.400   2.104 -0.3848 -0.0710 -0.5988
17083SOL    HW158107   5.445   5.386   2.184  1.3197  0.4316 -1.5532
17083SOL    HW258108   5.378   5.312   2.070 -1.9187 -0.3519  0.7252
17084SOL     OW58109  11.264   4.041   0.785 -0.6020  0.0524 -0.8469
17084SOL    HW158110  11.266   3.973   0.717 -0.3356 -0.5935 -0.2047
17084SOL    HW258111  11.172   4.044   0.812 -0.6479  0.0745 -1.0022
17085SOL     OW58112   6.692   1.536   2.436  0.2729  0.0306  0.5804
17085SOL    HW158113   6.669   1.553   2.527 -2.0280 -1.8163  0.4414
17085SOL    HW258114   6.609   1.515   2.393  1.5814 -1.7285 -1.3279
17086SOL     OW58115   1.613   3.588   5.195 -0.1557 -0.0950 -0.0496
17086SOL    HW158116   1.552   3.515   5.204 -0.2094 -0.3801 -2.1772
17086SOL    HW258117   1.563   3.656   5.149  0.5554  0.4132 -0.0899
17087SOL     OW58118  11.770   8.870   0.140  0.0257 -0.4104 -0.2714
17087SOL    HW158119  11.677   8.875   0.163  0.5084  1.7107  1.5483
17087SOL    HW258120  11.800   8.960   0.140  2.3399 -1.1038  0.3575
17088SOL     OW58121   6.254  11.507   9.619 -0.1347 -0.4946 -0.4094
17088SOL    HW158122   6.294  11.592   9.638  2.4928 -1.5973 -0.5678
17088SOL    HW258123   6.328  11.447   9.614 -1.7535 -2.4962 -2.0173
17089SOL     OW58124   4.191   5.682   2.850 -0.1146  0.2158 -0.3303
17089SOL    HW158125   4.219   5.773   2.859  0.9829 -0.2231  1.1253
17089SOL    HW258126   4.190   5.667   2.755 -1.7195  2.1104 -0.6809
17090SOL     OW58127   2.539   0.557   5.209 -0.1785 -0.2166 -0.1590
17090SOL    HW158128   2.513   0.538   5.119 -0.4431  1.1809 -0.4121
17090SOL    HW258129   2.476   0.511   5.264  0.1601 -1.3176 -0.6764
17091SOL     OW58130  10.878   0.347   3.191 -0.3945  0.9974 -0.2577
17091SOL    HW158131  10.930   0.267   3.182 -0.1879  1.1824 -0.7561
17091SOL    HW258132  10.867   0.379   3.101 -0.2017  1.6993 -0.0382
17092SOL     OW58133   6.186  10.818   9.650  0.2471  0.2887 -0.0897
17092SOL    HW158134   6.111  10.877   9.660  0.5608  0.3939  2.5356
17092SOL    HW258135   6.252  10.854   9.709  2.2813 -0.0011 -2.0739
17093SOL     OW58136   9.761   3.975   6.487  0.2438 -0.2205  0.5051
17093SOL    HW158137   9.683   3.973   6.542 -1.5074  0.3950 -1.8231
17093SOL    HW258138   9.759   3.892   6.439 -0.1010  0.6091 -0.9707
17094SOL     OW58139   8.862  11.044   8.415  0.1768 -0.3179  0.3951
17094SOL    HW158140   8.883  11.035   8.323  1.7768 -0.1034  0.7158
17094SOL    HW258141   8.775  11.004   8.424  0.6193 -1.6582 -0.9314
17095SOL     OW58142   1.108   3.585   1.682  0.4950  0.5603  0.7027
17095SOL    HW158143   1.014   3.580   1.698  0.4443  0.7784  0.4809
17095SOL    HW258144   1.147   3.529   1.749  0.2010  0.3949  0.7357
17096SOL     OW58145  11.934   5.203   8.157  0.4794 -0.9378  0.0450
17096SOL    HW158146  11.961   5.136   8.220  2.0387 -0.6546 -0.2807
17096SOL    HW258147  11.845   5.227   8.183  0.9352 -1.1308  1.8818
17097SOL     OW58148   6.231  11.156  11.922  0.1080 -0.3751  0.2611
17097SOL    HW158149   6.320  11.174  11.953  0.0796  0.6137 -0.1764
17097SOL    HW258150   6.213  11.227  11.860 -0.1081 -1.8697 -1.4549
17098SOL     OW58151   7.931   3.789   1.977 -0.0239 -0.1689 -0.5565
17098SOL    HW158152   7.900   3.760   2.063  2.3372  2.3812  1.3525
17098SOL    HW258153   7.923   3.885   1.979  0.8556  0.0274 -2.8667
17099SOL     OW58154   4.350   2.021   2.734  0.3693  0.2432  0.7536
17099SOL    HW158155   4.421   2.009   2.671 -0.0148  1.4068  0.0693
17099SOL    HW258156   4.395   2.046   2.815  0.7936 -0.0326  0.6099
17100SOL     OW58157  10.683  10.010   5.806 -0.0539 -0.4993  0.1861
17100SOL    HW158158  10.697   9.933   5.752  0.2027 -0.8384  0.7378
17100SOL    HW258159  10.588  10.016   5.815 -0.0451 -1.1790  0.7566
17101SOL     OW58160  11.140   7.149   0.047  0.1015  0.2891  0.0459
17101SOL    HW158161  11.074   7.135   0.115  0.1818  2.0225  0.5427
17101SOL    HW258162  11.205   7.206   0.088 -0.7572  2.9395 -1.9270
17102SOL     OW58163   9.791   0.380   3.532 -0.4234 -0.7692  0.3916
17102SOL    HW158164   9.809   0.322   3.459 -1.5945 -0.8971  0.1891
17102SOL    HW258165   9.715   0.341   3.576 -0.1809 -0.3054  1.2460
17103SOL     OW58166   9.006   6.257  11.064  0.2572 -0.1863 -0.0038
17103SOL    HW158167   9.044   6.247  10.976  0.4995 -0.4790  0.1333
17103SOL    HW258168   8.956   6.338  11.059  0.7302  0.0946 -0.2451
17104SOL     OW58169   6.636   5.827   7.622 -0.2879  0.0269  0.4169
17104SOL    HW158170   6.545   5.799   7.621 -0.2022 -0.4240 -2.4501
17104SOL    HW258171   6.678   5.771   7.687 -1.7489 -0.8275  0.6494
17105SOL     OW58172   3.440   3.594   8.900  0.1134 -0.6162  0.0233
17105SOL    HW158173   3.375   3.636   8.955  1.0533  1.1132 -0.1265
17105SOL    HW258174   3.518   3.588   8.955  1.6992  2.9277 -1.5362
17106SOL     OW58175   2.997   2.663   3.596 -0.2225 -0.4872  0.4930
17106SOL    HW158176   3.069   2.725   3.588 -0.0909 -0.7211 -0.1429
17106SOL    HW258177   2.919   2.712   3.572 -0.0990 -0.6082 -0.1579
17107SOL     OW58178   1.889   4.272   7.933 -0.1378 -0.4019  0.2872
17107SOL    HW158179   1.871   4.357   7.893  1.2684 -0.3090 -0.2008
17107SOL    HW258180   1.902   4.292   8.026  1.3463  0.1316 -0.0015
17108SOL     OW58181   4.907   8.086   9.934 -0.0315  0.5451  0.4433
17108SOL    HW158182   4.940   8.026  10.001  1.8081 -0.3568 -1.1560
17108SOL    HW258183   4.834   8.039   9.894  1.6443 -0.9605 -1.0660
17109SOL     OW58184   5.853   8.000   6.365 -0.0619  0.3002  0.7908
17109SOL    HW158185   5.765   7.974   6.392 -1.3991  2.1256 -1.4080
17109SOL    HW258186   5.848   8.005   6.270  2.4298  0.5936  0.6075
17110SOL     OW58187   2.248   0.765   2.571 -0.1488  0.0301  0.3241
17110SOL    HW158188   2.166   0.813   2.557 -0.0691 -0.2542 -1.3112
17110SOL    HW258189   2.306   0.829   2.613 -0.6884  0.7435  0.0058
17111SOL     OW58190  11.955   0.098  12.333 -0.1515 -0.2924  0.7036
17111SOL    HW158191  11.974   0.006  12.351 -0.1788  0.0260  2.4791
17111SOL    HW258192  11.977   0.109  12.240 -0.4406 -2.1473  0.3789
17112SOL     OW58193   9.223   8.816   6.323  0.3593  0.1661  0.2023
17112SOL    HW158194   9.149   8.798   6.382 -1.3251  1.7949 -1.3061
17112SOL    HW258195   9.187   8.806   6.235  2.6146 -1.4223 -0.6306
17113SOL     OW58196  12.537   1.932   9.741  0.0588 -0.1131 -0.5323
17113SOL    HW158197  12.614   1.928   9.797  0.2325 -0.8490 -0.8205
17113SOL    HW258198  12.550   1.862   9.677  0.3512  1.3299 -2.1157
17114SOL     OW58199   4.583   8.489   9.715 -0.1110  0.0516  0.5728
17114SOL    HW158200   4.526   8.489   9.792 -0.1066 -1.3045  0.6031
17114SOL    HW258201   4.662   8.443   9.744  0.4836  0.7914  0.1597
17115SOL     OW58202   9.121   1.636  10.780  0.8735  0.2747  0.2943
17115SOL    HW158203   9.149   1.546  10.794  1.4682  0.5188  0.7155
17115SOL    HW258204   9.189   1.689  10.822  0.1902  0.9067  0.6227
17116SOL     OW58205   0.383  11.872   4.699 -0.5297 -0.2649 -0.5514
17116SOL    HW158206   0.456  11.933   4.697  0.8768 -1.8853 -2.9655
17116SOL    HW258207   0.306  11.927   4.679  0.1694  1.2255  0.6585
17117SOL     OW58208   8.755   7.453   3.344  0.0230 -0.5003 -0.2377
17117SOL    HW158209   8.768   7.376   3.399 -0.2723 -0.4775 -0.1345
17117SOL    HW258210   8.825   7.448   3.279 -0.1274 -0.9792 -0.3710
17118SOL     OW58211   4.947   5.874  11.851 -0.1776 -0.2564  0.0297
17118SOL    HW158212   4.884   5.947  11.851 -0.9322 -0.8693 -1.1368
17118SOL    HW258213   4.936   5.833  11.937 -0.4960  0.3736  0.2981
17119SOL     OW58214   9.635   0.222   0.489 -0.0415  0.5103  0.0841
17119SOL    HW158215   9.612   0.129   0.489 -1.1460  0.7522  1.3668
17119SOL    HW258216   9.729   0.223   0.468 -0.0174 -0.8845  0.0179
17120SOL     OW58217   6.471   8.052  12.215  0.0520  0.0052 -0.7093
17120SOL    HW158218   6.482   8.144  12.189  0.7016  0.2671  0.4260
17120SOL    HW258219   6.544   8.035  12.274 -0.5631 -0.9779 -0.2047
17121SOL     OW58220   3.713  12.084   3.922 -0.2941 -0.9387 -1.1423
17121SOL    HW158221   3.678  12.148   3.861 -2.4036  0.3190  1.2084
17121SOL    HW258222   3.807  12.102   3.925 -0.6958  1.5079 -1.2024
17122SOL     OW58223  10.723   4.814   6.665 -0.4300  0.0405  0.3776
17122SOL    HW158224  10.685   4.893   6.626  0.9086  0.6915  0.3277
17122SOL    HW258225  10.790   4.847   6.725 -0.6949 -1.0350  1.3002
17123SOL     OW58226   8.059   0.355   4.271 -0.9919  0.2877 -0.2818
17123SOL    HW158227   8.030   0.286   4.212 -1.9171  0.4797 -0.0664
17123SOL    HW258228   8.088   0.308   4.349 -0.0061  0.0503 -0.7820
17124SOL     OW58229   7.874  10.283   5.740 -0.2831 -0.6685  0.6898
17124SOL    HW158230   7.828  10.359   5.704  1.9845  0.4418 -0.0443
17124SOL    HW258231   7.826  10.262   5.820 -1.3335  1.1579  0.6038
17125SOL     OW58232   7.059   9.108   7.548 -0.5103  0.0431  0.0261
17125SOL    HW158233   7.065   9.053   7.471 -0.5746  2.5081 -1.8623
17125SOL    HW258234   6.966   9.125   7.559 -0.3612  1.5344 -0.7989
17126SOL     OW58235  10.155   1.541   4.591 -0.1035 -0.7491 -0.2376
17126SOL    HW158236  10.228   1.485   4.618 -0.1175 -0.8621 -0.4344
17126SOL    HW258237  10.159   1.541   4.495  0.7040  0.6325 -0.2382
17127SOL     OW58238   1.909  11.010  10.619 -0.4171 -0.3546  0.0918
17127SOL    HW158239   1.905  11.091  10.568  0.3935 -0.6094 -0.4114
17127SOL    HW258240   1.877  10.943  10.559 -1.4323 -0.3600  0.6309
17128SOL     OW58241  10.205   7.679  11.485  0.2660  0.0169  0.2912
17128SOL    HW158242  10.131   7.637  11.529 -0.2281  0.5015 -0.0720
17128SOL    HW258243  10.168   7.759  11.448  0.3822 -0.9433 -2.0456
17129SOL     OW58244   1.455  12.369   1.439 -0.2749  0.6859 -0.4149
17129SOL    HW158245   1.435  12.451   1.394  2.2456  1.1794 -0.7595
17129SOL    HW258246   1.417  12.301   1.383 -1.1982  1.5167 -0.8369
17130SOL     OW58247  10.590   8.333   0.889 -0.8459  0.3015  0.5973
17130SOL    HW158248  10.533   8.330   0.966 -0.2161 -1.0060  1.0265
17130SOL    HW258249  10.640   8.252   0.892 -1.0944  0.0246 -1.4203
17131SOL     OW58250   2.024  10.765   2.863 -0.0545 -0.3602 -0.7469
17131SOL    HW158251   2.043  10.675   2.889  0.0291 -0.8231 -2.2888
17131SOL    HW258252   2.063  10.819   2.931 -0.3035 -1.4909  0.3249
17132SOL     OW58253   2.687   6.770  11.025 -0.4974  0.2751  0.5102
17132SOL    HW158254   2.631   6.760  11.102 -3.0611 -0.1974 -1.2694
17132SOL    HW258255   2.690   6.682  10.986  2.5044  0.0221  1.1192
17133SOL     OW58256   0.026   6.283   2.346 -0.5316  0.0342  0.2617
17133SOL    HW158257   0.032   6.203   2.295  1.5529  0.9802 -1.1126
17133SOL    HW258258   0.016   6.253   2.437 -0.9626 -1.7296 -0.3278
17134SOL     OW58259   5.238   5.492   5.564  0.1405 -0.1939 -0.2312
17134SOL    HW158260   5.178   5.420   5.584 -0.5845  0.6301  0.6575
17134SOL    HW258261   5.247   5.490   5.469 -1.2418 -0.3843 -0.3752
17135SOL     OW58262   2.755   7.699   8.566  0.2902 -0.0023 -0.9198
17135SOL    HW158263   2.781   7.771   8.510 -0.6728  1.8728  0.9071
17135SOL    HW258264   2.793   7.720   8.652 -0.1235 -1.6097 -0.2985
17136SOL     OW58265   1.092   4.879   5.518  0.7109 -0.0585 -0.0024
17136SOL    HW158266   1.058   4.951   5.571  0.1699  0.9531 -1.6424
17136SOL    HW258267   1.129   4.818   5.581 -4.1794 -1.3808  2.0750
17137SOL     OW58268  12.515   3.337   4.526 -0.2196  0.0467 -0.0606
17137SOL    HW158269  12.525   3.419   4.478 -1.3336 -0.3450 -0.9878
17137SOL    HW258270  12.532   3.268   4.461  1.8550 -0.5021  0.9610
17138SOL     OW58271   5.548  10.620   2.521  0.3706 -0.5736  0.0391
17138SOL    HW158272   5.583  10.675   2.590  1.0011  0.6169 -1.1793
17138SOL    HW258273   5.623  10.602   2.464 -0.6826  1.1659 -2.0634
17139SOL     OW58274   5.891   2.330   3.913 -0.1355 -0.1210  0.1202
17139SOL    HW158275   5.860   2.416   3.885  0.4866  0.5010  1.3087
17139SOL    HW258276   5.871   2.272   3.839  2.8833  1.7307 -2.3957
17140SOL     OW58277   2.398  10.694   6.484  0.4300  0.0795 -0.1158
17140SOL    HW158278   2.415  10.774   6.434  0.7849  0.2104  0.2053
17140SOL    HW258279   2.474  10.686   6.542 -0.4637  0.5234  1.1616
17141SOL     OW58280   2.886  11.268   4.739  0.0750  0.4223  0.1325
17141SOL    HW158281   2.981  11.267   4.751 -0.2118  1.5082  3.3716
17141SOL    HW258282   2.854  11.203   4.801 -1.3398  0.1881 -0.8094
17142SOL     OW58283   2.015   3.425  12.007 -0.7905  0.2474 -0.2201
17142SOL    HW158284   1.930   3.460  11.981 -0.5046  2.6069  1.6175
17142SOL    HW258285   2.079   3.474  11.956 -0.4569  0.5521  0.4700
17143SOL     OW58286   3.538   0.019   8.533  0.2343  0.2269 -0.0260
17143SOL    HW158287   3.514  -0.001   8.623 -2.5019 -0.3931 -0.8027
17143SOL    HW258288   3.515   0.111   8.521 -1.6412 -0.2853 -0.6837
17144SOL     OW58289  11.846   0.263   8.355 -0.1607 -0.1763  0.2107
17144SOL    HW158290  11.842   0.358   8.340  0.6040 -0.3384 -1.2497
17144SOL    HW258291  11.939   0.246   8.372  0.0946 -0.8935 -1.6107
17145SOL     OW58292   2.214   7.694   9.786  0.2724 -0.0082  0.0470
17145SOL    HW158293   2.163   7.747   9.725 -0.3613 -0.9815 -0.2987
17145SOL    HW258294   2.176   7.713   9.872 -0.4229 -0.4270 -0.1615
17146SOL     OW58295   2.128  10.031   9.085 -0.3056  0.0717 -0.7091
17146SOL    HW158296   2.200  10.026   9.022  0.5879 -1.6515  0.3794
17146SOL    HW258297   2.154  10.101   9.145  0.3539 -0.3313 -0.5029
17147SOL     OW58298   9.381   9.853  10.047 -0.0173 -0.0671  0.2226
17147SOL    HW158299   9.467   9.812  10.046 -0.5029 -1.1305  0.1008
17147SOL    HW258300   9.398   9.946  10.031  1.1793 -0.0810  1.2512
17148SOL     OW58301  11.737   3.134   0.699  0.7348 -0.1386 -0.6445
17148SOL    HW158302  11.673   3.135   0.628 -1.5467  0.0194  1.3137
17148SOL    HW258303  11.769   3.224   0.704 -1.4556  0.6447  0.4808
17149SOL     OW58304  10.067   4.335   2.583  0.0132 -0.1877 -0.4954
17149SOL    HW158305  10.080   4.240   2.581  0.2243 -0.1581 -0.5972
17149SOL    HW258306  10.130   4.369   2.519 -0.7543 -0.0622 -1.2139
17150SOL     OW58307  11.708   6.863   5.262  0.2258 -0.1105 -0.4767
17150SOL    HW158308  11.710   6.876   5.356 -0.1626 -0.1062 -0.4655
17150SOL    HW258309  11.792   6.822   5.241 -0.6423 -2.4008  0.2176
17151SOL     OW58310   3.496   6.648   7.473  0.0067  0.4641 -0.1023
17151SOL    HW158311   3.531   6.590   7.405 -1.6414 -0.6227 -0.0897
17151SOL    HW258312   3.546   6.628   7.551 -1.1484 -1.7205  0.1493
17152SOL     OW58313   0.113   4.588   0.773  0.5215 -0.4758 -0.0935
17152SOL    HW158314   0.053   4.580   0.847 -0.0351  2.9708 -0.0415
17152SOL    HW258315   0.074   4.654   0.717  2.7910 -0.3225 -1.6056
17153SOL     OW58316   6.822   2.786   4.388  0.0687  0.0491 -0.0310
17153SOL    HW158317   6.796   2.753   4.474 -0.0028  0.5014  0.1218
17153SOL    HW258318   6.915   2.805   4.397 -0.2675  1.6339  0.4511
17154SOL     OW58319   4.701   1.102   8.248  0.0246  0.2443  0.1860
17154SOL    HW158320   4.741   1.095   8.334  1.2889  0.6516 -0.3540
17154SOL    HW258321   4.771   1.131   8.190 -0.1579 -2.2578 -1.4569
17155SOL     OW58322   4.559  12.453   3.278 -0.6235  0.0218 -0.1558
17155SOL    HW158323   4.548  12.545   3.255 -1.9692  0.1995  1.0744
17155SOL    HW258324   4.551  12.406   3.195 -5.0943  0.6213 -0.2968
17156SOL     OW58325   8.901   7.572   9.778  0.2283  0.2254  0.4241
17156SOL    HW158326   8.898   7.577   9.873 -1.1417 -1.2167  0.4888
17156SOL    HW258327   8.817   7.533   9.752  0.5532  0.6042 -1.3761
17157SOL     OW58328   5.591   2.479  10.631 -0.5047 -0.2760 -0.7581
17157SOL    HW158329   5.683   2.465  10.608 -0.4231  1.8983 -1.9148
17157SOL    HW258330   5.578   2.421  10.707  1.4198 -1.6243 -1.3493
17158SOL     OW58331   0.219   9.897   3.135 -0.7651  0.1271 -0.5592
17158SOL    HW158332   0.268   9.827   3.180 -0.1153  0.6919 -0.3682
17158SOL    HW258333   0.128   9.869   3.139 -0.3665 -1.5439 -1.9583
17159SOL     OW58334   8.098   3.299  11.434  0.3399  0.0809 -0.1355
17159SOL    HW158335   8.158   3.333  11.500 -0.4173  2.1782 -0.4450
17159SOL    HW258336   8.018   3.278  11.482  1.2416 -2.8116  0.2953
17160SOL     OW58337   7.276  10.690   8.214 -0.0437  0.1176  0.1889
17160SOL    HW158338   7.341  10.732   8.157 -0.0988  0.9704  0.7279
17160SOL    HW258339   7.316  10.694   8.301 -0.6301  0.2364  0.4532
17161SOL     OW58340   5.486   8.391   8.420 -0.0024  0.7361  0.3826
17161SOL    HW158341   5.504   8.297   8.415  1.0932  0.8874  1.1394
17161SOL    HW258342   5.427   8.408   8.346  0.7787 -0.3263 -0.5310
17162SOL     OW58343   3.879   9.202   2.596  0.4228  0.9714  0.5093
17162SOL    HW158344   3.784   9.211   2.583  0.6218  1.9266 -0.4524
17162SOL    HW258345   3.908   9.147   2.523  0.5475  0.2198  1.1114
17163SOL     OW58346   7.583   6.791  12.392 -0.0788  0.2095  0.2307
17163SOL    HW158347   7.629   6.714  12.425  2.0556  1.2184 -0.2303
17163SOL    HW258348   7.573   6.775  12.298 -0.9242 -0.1022  0.3628
17164SOL     OW58349   6.961   6.193  11.973  0.5756  0.0231 -0.8500
17164SOL    HW158350   6.939   6.152  12.057 -0.4412  0.2591 -0.9835
17164SOL    HW258351   6.948   6.286  11.987  1.3635  0.1601 -0.9960
17165SOL     OW58352   8.108  10.225   7.360  0.0602  0.3693 -0.7060
17165SOL    HW158353   8.176  10.216   7.293 -0.3269 -1.2296 -0.9140
17165SOL    HW258354   8.039  10.164   7.333 -1.0311  1.2225  0.0382
17166SOL     OW58355   3.135   7.517   5.092  0.0383 -0.1272 -0.1021
17166SOL    HW158356   3.178   7.545   5.173 -1.5334  1.9382  0.0945
17166SOL    HW258357   3.078   7.445   5.119 -1.8422  1.6901  1.1001
17167SOL     OW58358  11.667   5.306   7.194  0.3603  0.5627  0.4204
17167SOL    HW158359  11.608   5.234   7.217 -0.3548  1.2705  0.8387
17167SOL    HW258360  11.670   5.305   7.099  1.1193 -0.6193  0.4372
17168SOL     OW58361   4.876   8.520  11.389 -0.6452  0.5417  0.6986
17168SOL    HW158362   4.911   8.606  11.364 -0.0216 -0.6323 -3.0683
17168SOL    HW258363   4.935   8.489  11.458  1.2945  1.6651 -0.3885
17169SOL     OW58364   3.954   2.135   8.193  0.0917  0.0840  0.0881
17169SOL    HW158365   3.872   2.180   8.213  0.8646  0.7586  1.9522
17169SOL    HW258366   4.007   2.202   8.148 -0.2182 -0.2355 -0.7736
17170SOL     OW58367  12.449   8.478   9.164 -0.1027  0.1069 -0.0233
17170SOL    HW158368  12.458   8.419   9.090 -0.2290 -0.0616  0.0938
17170SOL    HW258369  12.477   8.563   9.131  0.8000 -0.1660  0.0126
17171SOL     OW58370   5.017   9.857   0.641 -0.4360  0.0207 -0.1371
17171SOL    HW158371   5.003   9.951   0.643  1.3639  0.3314  2.7588
17171SOL    HW258372   4.932   9.820   0.618 -0.7390  2.3177 -3.3460
17172SOL     OW58373   3.721   1.139   0.416 -1.3173  0.4168 -0.0937
17172SOL    HW158374   3.705   1.049   0.446  3.0675 -0.5887 -0.0234
17172SOL    HW258375   3.742   1.187   0.496 -1.3686  0.9088 -0.3727
17173SOL     OW58376   5.170   8.264   0.546 -0.1574 -0.1973 -0.5540
17173SOL    HW158377   5.161   8.356   0.523  1.1105  0.1023  0.0593
17173SOL    HW258378   5.205   8.223   0.467 -0.1022 -0.0319 -0.6154
17174SOL     OW58379   2.309   4.411   7.213  0.1172  0.0547 -0.1602
17174SOL    HW158380   2.276   4.326   7.182  0.6744  0.1410 -1.0258
17174SOL    HW258381   2.301   4.469   7.137 -0.6669  0.9085  0.5460
17175SOL     OW58382  11.155   8.277   9.561  0.1182 -0.4981 -0.2806
17175SOL    HW158383  11.246   8.289   9.587 -0.4561 -1.5859  2.6736
17175SOL    HW258384  11.109   8.352   9.600 -0.4585 -0.8144 -0.3385
17176SOL     OW58385   2.406   6.052   2.144  0.3195  0.2092 -0.1867
17176SOL    HW158386   2.361   6.046   2.060 -1.8084 -1.0374  0.9360
17176SOL    HW258387   2.336   6.072   2.207  1.5252 -0.6239  1.5119
17177SOL     OW58388   6.946   0.244   3.453  0.5336 -0.5195  0.0829
17177SOL    HW158389   6.871   0.291   3.491  1.7874  0.3506  1.6070
17177SOL    HW258390   6.977   0.188   3.524  1.9840 -0.0566 -0.1612
17178SOL     OW58391   3.040  10.910   6.016 -0.1875  0.7081  0.5101
17178SOL    HW158392   3.063  10.874   6.101  0.2879  0.0735  0.1265
17178SOL    HW258393   2.994  10.840   5.971  3.1272 -0.5740 -1.2878
17179SOL     OW58394   7.202  12.013   6.448  0.7443 -0.9500 -0.0052
17179SOL    HW158395   7.249  11.931   6.462  0.8635 -0.9245 -0.2589
17179SOL    HW258396   7.270  12.080   6.449  0.6209 -0.8266  0.4342
17180SOL     OW58397   9.302   3.724  10.757 -0.1621 -0.2479  0.0497
17180SOL    HW158398   9.368   3.685  10.814 -0.1128  0.7102  0.6677
17180SOL    HW258399   9.352   3.775  10.692 -0.2718  1.3802  1.1735
17181SOL     OW58400   7.382   8.222   0.611  0.1554  0.0100 -0.1461
17181SOL    HW158401   7.398   8.216   0.705 -1.8309 -0.2757  0.2129
17181SOL    HW258402   7.322   8.296   0.601 -0.2615 -0.4384 -1.0978
17182SOL     OW58403   6.827   6.314   6.454 -0.6519  0.0510  0.2014
17182SOL    HW158404   6.763   6.384   6.449 -1.9503 -0.8904  2.1523
17182SOL    HW258405   6.887   6.341   6.524 -0.4361 -0.2440  0.1353
17183SOL     OW58406   0.361   1.834   6.243 -0.0872 -0.3652  0.6613
17183SOL    HW158407   0.388   1.925   6.258 -1.0179  0.3499 -1.5521
17183SOL    HW258408   0.398   1.813   6.157  0.6486 -2.3347  1.4115
17184SOL     OW58409   4.175   6.812   2.532 -0.1754  0.3032 -0.5789
17184SOL    HW158410   4.179   6.737   2.591 -0.9372  0.2412 -0.5867
17184SOL    HW258411   4.084   6.812   2.501 -0.0511  0.9437 -0.9535
17185SOL     OW58412  11.223  12.419   9.865 -0.3583  0.7344 -0.3583
17185SOL    HW158413  11.300  12.389   9.914 -0.8722 -0.2807 -0.1333
17185SOL    HW258414  11.152  12.364   9.897 -0.7756  0.2411 -2.0304
17186SOL     OW58415   8.567  10.483   0.130 -0.1963 -0.5508  0.2292
17186SOL    HW158416   8.583  10.465   0.037 -0.7681 -1.4098  0.2793
17186SOL    HW258417   8.652  10.510   0.164  0.2934 -1.3513 -0.3056
17187SOL     OW58418  11.045   1.875   9.808 -0.0728 -0.1249 -0.7199
17187SOL    HW158419  10.977   1.940   9.793  0.3475  0.5784  0.2715
17187SOL    HW258420  11.002   1.791   9.794 -0.6526  0.3608 -1.9126
17188SOL     OW58421   1.910   4.688  11.734 -0.3283  0.0533 -0.4790
17188SOL    HW158422   1.830   4.634  11.738  0.5773 -1.3070  0.0856
17188SOL    HW258423   1.878   4.776  11.716 -1.9479 -0.4961 -0.5005
17189SOL     OW58424   5.631  10.508   6.826  0.1568 -0.2582  0.7920
17189SOL    HW158425   5.616  10.433   6.884 -0.8351 -0.6912 -0.0036
17189SOL    HW258426   5.560  10.569   6.847  0.0252 -0.2440  0.3244
17190SOL     OW58427   9.818  11.091   0.203 -0.0374  0.0019 -0.5716
17190SOL    HW158428   9.868  11.052   0.274 -0.1522 -2.3175 -1.6603
17190SOL    HW258429   9.743  11.132   0.246  0.2400 -0.7720  0.6895
17191SOL     OW58430   5.847   5.964   2.251 -0.0579  0.0472  0.2706
17191SOL    HW158431   5.858   5.894   2.315 -0.9739 -1.0588 -0.7087
17191SOL    HW258432   5.936   5.993   2.230  0.4688 -1.8630 -0.3674
17192SOL     OW58433   4.290   9.811   9.222  0.1013  0.2291 -0.2698
17192SOL    HW158434   4.224   9.754   9.260  0.1778  0.2230 -0.1439
17192SOL    HW258435   4.270   9.813   9.129 -0.3008  0.5259 -0.1810
17193SOL     OW58436  12.541  11.226  11.419  0.4245 -0.1109 -0.2614
17193SOL    HW158437  12.632  11.256  11.420  0.7544 -1.0475 -0.6871
17193SOL    HW258438  12.509  11.252  11.333 -0.7947  3.1961  1.0499
17194SOL     OW58439   9.143  11.738   6.466 -0.1115  0.2546  0.5340
17194SOL    HW158440   9.092  11.674   6.417 -2.3062  0.3196  2.5656
17194SOL    HW258441   9.207  11.686   6.515 -0.4594 -0.1731  0.5324
17195SOL     OW58442   7.843   2.208  11.562 -0.0850 -0.1047 -0.1933
17195SOL    HW158443   7.849   2.300  11.534  0.9417 -0.2923 -0.6242
17195SOL    HW258444   7.894   2.160  11.497  1.7129 -0.6619  1.5365
17196SOL     OW58445   0.626   8.405  12.433 -0.1767  0.2418 -0.7041
17196SOL    HW158446   0.699   8.450  12.390 -0.2789  2.0691  0.9055
17196SOL    HW258447   0.661   8.318  12.454  0.8190  0.3365 -1.8327
17197SOL     OW58448  10.409   5.865   1.020  0.7795  0.1406 -0.0908
17197SOL    HW158449  10.458   5.808   1.081  0.0533  0.2636  0.6218
17197SOL    HW258450  10.477   5.913   0.973  1.4647 -1.8393 -1.2540
17198SOL     OW58451   5.477   1.227   0.094  0.6581  0.4639 -0.0035
17198SOL    HW158452   5.545   1.224   0.161  0.5299  1.0810  0.1556
17198SOL    HW258453   5.467   1.320   0.074 -0.2304  0.3876  0.0652
17199SOL     OW58454   4.545   0.272   5.789  0.2194 -0.2422 -0.5723
17199SOL    HW158455   4.566   0.331   5.716  0.2817 -0.8034 -1.0128
17199SOL    HW258456   4.469   0.222   5.759  0.2941 -0.5308 -0.2858
17200SOL     OW58457   5.265   8.897   3.023 -0.5268 -0.2705 -0.1626
17200SOL    HW158458   5.337   8.864   3.076 -0.2638  0.3974 -0.0916
17200SOL    HW258459   5.288   8.873   2.933 -0.0723  0.1764 -0.1722
17201SOL     OW58460   7.398  11.047   5.651  0.0941 -0.6818  0.0307
17201SOL    HW158461   7.410  11.059   5.745  0.3014  0.8381 -0.1617
17201SOL    HW258462   7.364  10.958   5.642 -2.0014 -0.1519  1.7228
17202SOL     OW58463   1.659   1.991  12.271  0.4474  0.7867 -0.2263
17202SOL    HW158464   1.713   2.070  12.279 -0.6072  1.3736  1.8294
17202SOL    HW258465   1.574   2.017  12.306 -0.2306 -1.0036 -0.4489
17203SOL     OW58466  12.306  10.558   2.280 -0.0200  0.5267  0.8353
17203SOL    HW158467  12.318  10.650   2.303 -0.1701  0.3220  1.7760
17203SOL    HW258468  12.251  10.560   2.202 -1.2007  1.2161  1.6435
17204SOL     OW58469   7.771   4.452   4.673 -0.3134 -0.9824  0.0289
17204SOL    HW158470   7.708   4.523   4.662  0.5075 -0.2124  0.1455
17204SOL    HW258471   7.727   4.389   4.730  0.3993  1.3822  3.5468
17205SOL     OW58472   2.060   1.200   8.481  0.1419  0.8795 -0.1009
17205SOL    HW158473   2.082   1.290   8.457  1.1228  0.8581  0.6382
17205SOL    HW258474   2.029   1.207   8.572  0.0979  0.4974 -0.0865
17206SOL     OW58475   0.615   6.069  12.146 -0.2716 -0.0419 -0.2944
17206SOL    HW158476   0.694   6.018  12.162  1.6569  1.9660 -2.5767
17206SOL    HW258477   0.639   6.159  12.167 -1.4912  0.8054 -2.2310
17207SOL     OW58478  11.158   1.978   3.408  0.1160  0.2440  0.4017
17207SOL    HW158479  11.121   1.896   3.441 -0.0136  0.7931  1.6655
17207SOL    HW258480  11.251   1.972   3.426  0.3195 -0.1412 -0.6651
17208SOL     OW58481   7.489   3.266   5.931  0.1215 -0.1688 -0.1033
17208SOL    HW158482   7.515   3.325   6.001 -1.9055  2.7066 -1.5329
17208SOL    HW258483   7.406   3.228   5.961 -0.9164  1.3098 -0.9167
17209SOL     OW58484   1.555   2.250   4.270  0.1636  0.2363  0.1882
17209SOL    HW158485   1.567   2.231   4.177 -1.0591  4.1535 -0.9479
17209SOL    HW258486   1.644   2.264   4.303  0.6557 -1.7131 -0.1629
17210SOL     OW58487   5.884   0.581  11.151 -0.8037 -0.0983  0.4339
17210SOL    HW158488   5.867   0.516  11.219 -1.6075  1.1888  1.5197
17210SOL    HW258489   5.946   0.642  11.191  0.4600 -0.5189 -0.8031
17211SOL     OW58490   4.652   5.275   9.098  0.1773  0.4406 -0.0857
17211SOL    HW158491   4.640   5.191   9.141 -2.7594  1.3431  1.1569
17211SOL    HW258492   4.636   5.340   9.167 -0.9852  1.9631 -1.6723
17212SOL     OW58493   1.964   2.544  12.075 -0.5690 -0.2443 -0.7793
17212SOL    HW158494   1.924   2.541  11.988 -0.5905  0.0583 -0.7818
17212SOL    HW258495   2.013   2.626  12.076  1.4440 -1.3532 -1.3985
17213SOL     OW58496  12.131   1.953   8.182  0.3394  0.0586 -0.0626
17213SOL    HW158497  12.142   2.026   8.243 -1.1776  1.4278 -1.3482
17213SOL    HW258498  12.099   1.994   8.101  0.6778 -1.8956 -1.2443
17214SOL     OW58499   8.072   7.631   8.865  0.3900 -0.5070  0.0711
17214SOL    HW158500   8.021   7.627   8.945 -0.3412  0.3949 -0.3278
17214SOL    HW258501   8.035   7.705   8.816 -0.1509 -1.8834 -1.7377
17215SOL     OW58502   3.922   6.994  12.267  0.6012 -0.0941  0.7169
17215SOL    HW158503   3.973   7.056  12.320  0.4627 -0.4913  1.3211
17215SOL    HW258504   3.902   6.922  12.327  0.0400 -0.3305  0.2527
17216SOL     OW58505   5.016  11.609   8.549  0.5815  0.1720  0.1257
17216SOL    HW158506   5.051  11.555   8.479  2.3044  0.0644  1.0216
17216SOL    HW258507   5.020  11.698   8.515 -0.3215 -0.0533 -0.5848
17217SOL     OW58508   9.053  11.871   3.313 -0.3379 -0.4944  0.2252
17217SOL    HW158509   9.077  11.894   3.223 -0.6515  0.9033  0.4676
17217SOL    HW258510   9.132  11.835   3.351  0.3135  0.5365 -0.1039
17218SOL     OW58511  11.855   1.362   4.954  0.9150  0.2491  0.0866
17218SOL    HW158512  11.813   1.384   5.037  0.6091 -1.0025  0.2856
17218SOL    HW258513  11.897   1.443   4.926  1.5194  0.5371  1.7430
17219SOL     OW58514   0.216   8.805   5.062  0.3457  0.2448  0.1728
17219SOL    HW158515   0.128   8.840   5.076 -0.3308 -0.6382 -1.5145
17219SOL    HW258516   0.208   8.711   5.077  0.8133  0.0502 -0.6942
17220SOL     OW58517   2.551   7.941   9.150 -0.4182 -0.1903 -0.2724
17220SOL    HW158518   2.473   7.926   9.202 -1.6304 -0.6477 -2.1380
17220SOL    HW258519   2.562   8.036   9.150 -0.2055 -0.1972  1.0247
17221SOL     OW58520   4.892   8.984   6.702 -0.5686 -0.3532  0.0188
17221SOL    HW158521   4.977   8.945   6.681 -1.2028 -1.9789  0.3774
17221SOL    HW258522   4.829   8.914   6.690 -1.6395  0.2605  1.6617
17222SOL     OW58523   8.229   7.584   0.906 -0.6414 -0.3763  0.4261
17222SOL    HW158524   8.300   7.537   0.863 -1.5699 -0.3476 -1.2297
17222SOL    HW258525   8.257   7.676   0.905 -1.4259 -0.1020 -1.8829
17223SOL     OW58526   3.341   9.507  10.478 -0.4015  0.2860 -0.6207
17223SOL    HW158527   3.311   9.470  10.561  0.5569 -0.4134 -0.5651
17223SOL    HW258528   3.363   9.597  10.499 -1.1865  0.4276 -0.3668
17224SOL     OW58529   3.614   3.929   3.015  0.7391  0.1531  0.4466
17224SOL    HW158530   3.621   4.022   3.033 -0.8257 -0.0362  2.4303
17224SOL    HW258531   3.587   3.924   2.923 -2.1037  1.8796  1.0630
17225SOL     OW58532  12.498   2.551   6.311  0.1003  0.2348 -0.1413
17225SOL    HW158533  12.557   2.488   6.351 -1.0018 -0.3021  0.6772
17225SOL    HW258534  12.497   2.625   6.371 -1.1100 -0.3343  0.5773
17226SOL     OW58535  10.747   2.968   1.070  1.0757 -0.3521  0.1043
17226SOL    HW158536  10.663   2.972   1.025  0.3065  3.1408  1.5394
17226SOL    HW258537  10.729   2.921   1.151  0.0322  1.5873  1.0718
17227SOL     OW58538   8.332   1.914   6.252  0.2153  0.2320 -0.3860
17227SOL    HW158539   8.336   2.009   6.256 -1.7290  0.3225  0.2968
17227SOL    HW258540   8.242   1.892   6.275  0.6873 -1.7990 -0.2482
17228SOL     OW58541   5.978   5.229   5.305  0.3848  0.3179  0.4718
17228SOL    HW158542   6.074   5.222   5.307  0.4115 -0.5629 -1.2268
17228SOL    HW258543   5.948   5.154   5.356  0.6698 -1.2008 -1.4309
17229SOL     OW58544   1.877   6.993   6.968  0.6033  0.2027  0.8290
17229SOL    HW158545   1.927   6.911   6.969 -0.6486 -0.6235 -0.4232
17229SOL    HW258546   1.916   7.045   6.898 -0.1390 -0.3709 -0.0327
17230SOL     OW58547   5.868   7.043   5.038  0.0427  0.0748 -0.7301
17230SOL    HW158548   5.870   7.138   5.025 -0.6323  0.0075 -1.3864
17230SOL    HW258549   5.877   7.032   5.133  1.1562  0.7470 -0.7364
17231SOL     OW58550  12.410   2.237  10.162  0.3619  0.3203 -0.6493
17231SOL    HW158551  12.417   2.184  10.083 -1.1556 -1.1530  0.1524
17231SOL    HW258552  12.445   2.181  10.232  0.8897  1.2801 -0.1109
17232SOL     OW58553   8.510   1.217   6.326  1.0772  0.1637  0.1888
17232SOL    HW158554   8.488   1.153   6.258  0.8532 -0.1101  0.5179
17232SOL    HW258555   8.598   1.247   6.303  1.0126  0.0561 -0.2098
17233SOL     OW58556   1.779   7.710   5.211 -0.2075 -0.4026  0.4042
17233SOL    HW158557   1.863   7.745   5.181  0.7986 -2.3522  0.7544
17233SOL    HW258558   1.789   7.703   5.306  0.5882 -3.6411  0.2110
17234SOL     OW58559   9.815   4.935   9.517 -0.3706  0.1571  0.1223
17234SOL    HW158560   9.822   4.901   9.606 -0.6747  1.6255  0.7187
17234SOL    HW258561   9.901   4.972   9.499 -0.0107 -0.9502 -0.5663
17235SOL     OW58562  10.707   1.651  10.645  0.2219 -0.0735 -0.5135
17235SOL    HW158563  10.670   1.674  10.730  0.5074  0.7013 -0.5833
17235SOL    HW258564  10.706   1.555  10.642 -0.1919 -0.0925  0.1774
17236SOL     OW58565   8.106   8.238   2.848 -0.1745  0.1753 -0.1401
17236SOL    HW158566   8.131   8.209   2.936 -1.8635 -0.1960  0.2418
17236SOL    HW258567   8.102   8.157   2.797 -0.2649  0.2693 -0.2807
17237SOL     OW58568  10.165   0.429   7.500  0.3694  0.3461  0.1694
17237SOL    HW158569  10.113   0.505   7.526 -0.8982 -0.1723 -0.7479
17237SOL    HW258570  10.104   0.356   7.502  1.6498 -0.7465  1.3787
17238SOL     OW58571   4.638   8.860   9.549  0.2552  0.6774  0.1636
17238SOL    HW158572   4.732   8.876   9.553  0.0201  2.6177 -0.9411
17238SOL    HW258573   4.605   8.887   9.635  0.5320  1.5159  0.0187
17239SOL     OW58574   3.565   3.788  10.397 -0.0824  0.0044  0.6483
17239SOL    HW158575   3.573   3.741  10.480 -1.6253  0.0930  0.8916
17239SOL    HW258576   3.493   3.745  10.352 -0.7876  1.3844  0.3762
17240SOL     OW58577   7.856  10.025  10.428  0.3416  0.4970 -0.0339
17240SOL    HW158578   7.941  10.063  10.448  0.7226 -0.3128 -0.0521
17240SOL    HW258579   7.856  10.014  10.333  0.5851 -0.3038  0.0459
17241SOL     OW58580   2.535   9.065   2.526 -0.0572  0.2247 -0.3027
17241SOL    HW158581   2.543   9.116   2.446 -0.7057  0.0684 -0.4759
17241SOL    HW258582   2.623   9.067   2.565  1.0802 -2.1222 -2.4868
17242SOL     OW58583   1.799  10.136   7.776  0.0564  0.0484 -0.1438
17242SOL    HW158584   1.811  10.182   7.859  0.1806  0.3316 -0.3162
17242SOL    HW258585   1.705  10.118   7.771 -0.0631  0.6763 -0.2760
17243SOL     OW58586   1.850   8.350   6.161  0.0443 -0.0382 -0.3605
17243SOL    HW158587   1.822   8.298   6.237 -1.2495  0.7824 -0.2501
17243SOL    HW258588   1.819   8.439   6.180  3.2886  1.1349  0.0520
17244SOL     OW58589   6.616  10.217   9.491 -0.1398 -0.2803  0.5476
17244SOL    HW158590   6.643  10.131   9.458 -1.5095 -0.4636 -0.1733
17244SOL    HW258591   6.600  10.203   9.585 -1.0671 -1.0222  0.2962
17245SOL     OW58592   1.602   6.669  10.188  0.0533  0.2546  0.0869
17245SOL    HW158593   1.574   6.731  10.121  0.5150  0.0396 -0.3136
17245SOL    HW258594   1.621   6.588  10.140  1.0248  0.2917  0.3873
17246SOL     OW58595   2.536   3.881   5.770  0.0327  0.0101  0.5157
17246SOL    HW158596   2.585   3.882   5.852 -2.1459 -0.0706  1.9001
17246SOL    HW258597   2.540   3.971   5.737 -1.2976  0.6967  2.1445
17247SOL     OW58598   1.397   4.876   0.013  0.1986  0.2157  0.1233
17247SOL    HW158599   1.321   4.886   0.071  0.1906  2.2337 -0.1714
17247SOL    HW258600   1.370   4.916  -0.069  1.5316  0.8338 -0.0303
17248SOL     OW58601  12.494   7.517   2.318 -0.4950 -0.4431 -0.1161
17248SOL    HW158602  12.563   7.550   2.261 -0.2942 -0.3503  0.1743
17248SOL    HW258603  12.463   7.595   2.364  1.0321 -0.8434  1.7167
17249SOL     OW58604   3.518   5.056   5.429  0.0783  0.3232 -0.3184
17249SOL    HW158605   3.586   5.110   5.388  1.3462  0.2018  1.4948
17249SOL    HW258606   3.566   4.996   5.486 -1.5316  1.8500  2.9577
17250SOL     OW58607   6.626   8.406   3.290 -0.2865 -0.3920  0.0322
17250SOL    HW158608   6.537   8.421   3.324 -1.2171 -0.3637 -2.2235
17250SOL    HW258609   6.617   8.414   3.195  2.1542 -0.4331 -0.2703
17251SOL     OW58610   9.051   0.366   8.227  0.0312  0.2650  0.1617
17251SOL    HW158611   9.038   0.427   8.155 -1.8296  0.5153  0.6617
17251SOL    HW258612   9.078   0.284   8.185 -1.5114  0.2667 -0.8870
17252SOL     OW58613   6.291   8.700   0.344 -0.3684  0.2225  0.6070
17252SOL    HW158614   6.234   8.735   0.277  0.9656 -0.5280 -0.9969
17252SOL    HW258615   6.315   8.776   0.398  1.3588  1.6206 -1.9351
17253SOL     OW58616   4.822  11.178   1.364 -0.0219  0.0068  0.5881
17253SOL    HW158617   4.879  11.118   1.315 -0.3389 -0.4510  0.7762
17253SOL    HW258618   4.869  11.261   1.364 -0.7758  0.5581 -2.0658
17254SOL     OW58619   6.528   4.328   8.842 -0.9440  0.1752 -0.4087
17254SOL    HW158620   6.513   4.238   8.872  0.1217 -0.7045 -2.3614
17254SOL    HW258621   6.586   4.366   8.908  0.5665 -1.3851 -0.7967
17255SOL     OW58622   8.986   7.877   1.709  0.0870 -0.1628 -1.0094
17255SOL    HW158623   9.012   7.944   1.772 -0.4495 -1.1214  0.2657
17255SOL    HW258624   8.926   7.922   1.650 -1.3574  0.1824  0.6432
17256SOL     OW58625  12.547   4.732   3.903 -0.2093  0.2514 -0.4141
17256SOL    HW158626  12.500   4.732   3.987  1.4208  2.0473  0.5685
17256SOL    HW258627  12.564   4.824   3.885 -0.1025 -0.1389 -2.5185
17257SOL     OW58628  11.917  10.854   9.234 -0.1266  0.1279  0.7058
17257SOL    HW158629  11.860  10.778   9.231 -1.3659  1.0022  1.1290
17257SOL    HW258630  11.901  10.899   9.151  1.1858 -0.4452  0.1067
17258SOL     OW58631   4.298   9.685   7.334  0.4416 -0.7309 -0.0947
17258SOL    HW158632   4.364   9.617   7.346 -0.6949 -2.0779 -1.1003
17258SOL    HW258633   4.330   9.759   7.385  3.1981 -0.9612 -1.2962
17259SOL     OW58634  10.347   6.000   2.450  0.7422 -0.5267  0.1089
17259SOL    HW158635  10.371   6.092   2.444 -0.5974 -0.1808 -0.1586
17259SOL    HW258636  10.375   5.962   2.367  0.3342 -0.1153 -0.2242
17260SOL     OW58637   5.158   3.913  10.983  0.0786 -0.1462 -0.3525
17260SOL    HW158638   5.125   3.825  11.001  0.2741 -0.1086  0.2287
17260SOL    HW258639   5.092   3.971  11.021  1.4711 -0.0758  2.1689
17261SOL     OW58640  11.176   0.618  11.833  0.2626  0.1493 -0.1068
17261SOL    HW158641  11.191   0.712  11.846  0.1330  0.2851 -0.9138
17261SOL    HW258642  11.223   0.597  11.752 -1.2964 -0.0656 -0.9921
17262SOL     OW58643   2.386   5.819   5.803  0.2814 -0.2122 -0.5527
17262SOL    HW158644   2.332   5.833   5.881  0.3709 -0.3544 -0.4645
17262SOL    HW258645   2.328   5.776   5.741  0.0706  0.3305 -0.7406
17263SOL     OW58646   1.391   4.548   4.117 -0.4140 -0.3418 -0.3344
17263SOL    HW158647   1.415   4.632   4.156  1.6464 -1.7148  1.6482
17263SOL    HW258648   1.340   4.571   4.040  0.6313  2.7310 -0.2513
17264SOL     OW58649   4.053   4.528   3.316  0.4269 -0.3267 -0.3944
17264SOL    HW158650   4.119   4.465   3.287  1.2058  0.1176  0.3417
17264SOL    HW258651   4.104   4.597   3.358 -0.5285 -0.0513  0.3458
17265SOL     OW58652   2.595  12.009   9.953 -0.4045  0.0085  0.1444
17265SOL    HW158653   2.579  11.948   9.881 -1.3067 -0.7726  0.9901
17265SOL    HW258654   2.526  12.075   9.945  1.4028  1.8423 -1.6502
17266SOL     OW58655   8.543   5.462   7.067 -0.4280 -0.7729 -0.2319
17266SOL    HW158656   8.552   5.374   7.032 -0.5604 -0.5722 -0.7816
17266SOL    HW258657   8.483   5.506   7.006 -0.9268 -0.5189  0.4375
17267SOL     OW58658   1.581  10.733   3.646 -1.1143  0.1186 -0.2546
17267SOL    HW158659   1.541  10.646   3.643 -1.5368  0.3291 -2.4948
17267SOL    HW258660   1.544  10.779   3.570  0.5744  1.5829 -0.2513
17268SOL     OW58661   5.106   9.215   3.052 -0.6271 -0.4789  0.5364
17268SOL    HW158662   5.090   9.136   3.104 -2.7715  0.8676  2.1121
17268SOL    HW258663   5.019   9.253   3.038  0.3911  2.5835  1.5429
17269SOL     OW58664   4.285   5.744   5.756  0.3625 -0.1168  0.0659
17269SOL    HW158665   4.325   5.658   5.765  0.4048  0.0751  2.2967
17269SOL    HW258666   4.191   5.727   5.753  0.3871 -0.2577  0.1044
17270SOL     OW58667   7.125   6.368   6.189  0.6016  0.2795  0.7014
17270SOL    HW158668   7.040   6.384   6.230  0.0953  0.2437 -0.3102
17270SOL    HW258669   7.188   6.411   6.248 -0.0050 -0.4814  1.9526
17271SOL     OW58670   8.118   3.754   7.511 -0.1347 -0.0995  0.1681
17271SOL    HW158671   8.081   3.836   7.477  0.7962  0.5145  0.5798
17271SOL    HW258672   8.212   3.772   7.519  0.0187 -1.0714  0.6686
17272SOL     OW58673   9.647   4.305   9.987 -0.5888  0.2068 -0.0644
17272SOL    HW158674   9.707   4.237  10.017 -1.3727  0.0566  1.2137
17272SOL    HW258675   9.646   4.296   9.891 -0.7421 -1.6305  0.0881
17273SOL     OW58676   2.311   2.220   3.115 -0.2325 -0.5946  0.0199
17273SOL    HW158677   2.366   2.158   3.163  1.4487  0.2903 -0.6656
17273SOL    HW258678   2.374   2.275   3.068 -1.7492 -0.2775 -1.7399
17274SOL     OW58679   1.450   7.958  12.451  0.2746 -0.2906  0.1548
17274SOL    HW158680   1.505   8.030  12.484 -0.3031  0.3121 -0.1889
17274SOL    HW258681   1.364   7.975  12.488  0.4002 -1.4890  1.0548
17275SOL     OW58682  11.063  10.600   8.932  0.2725 -0.1031 -1.1380
17275SOL    HW158683  11.123  10.644   8.992 -1.4670 -1.1162  1.5382
17275SOL    HW258684  11.012  10.670   8.893  0.6705  0.5377 -0.5327
17276SOL     OW58685   8.929  12.141   2.266 -0.3317  0.2852 -0.7465
17276SOL    HW158686   8.856  12.173   2.213  0.2985  1.4368 -0.9621
17276SOL    HW258687   8.937  12.204   2.337  0.9535  0.6464 -1.1777
17277SOL     OW58688   5.499   8.080   9.754 -0.0431  0.5394 -0.5972
17277SOL    HW158689   5.554   8.002   9.745 -1.5523 -0.5315 -1.0776
17277SOL    HW258690   5.491   8.115   9.666 -2.9723 -1.4440 -1.2792
17278SOL     OW58691   0.637   3.431   3.675  0.0948  0.0171  0.1577
17278SOL    HW158692   0.647   3.336   3.679 -0.5065 -0.0678 -0.2397
17278SOL    HW258693   0.711   3.465   3.726  1.6234 -0.6032 -1.5213
17279SOL     OW58694   5.152   7.040   1.336 -0.3078 -0.0963 -0.1319
17279SOL    HW158695   5.157   7.096   1.258  0.0126 -0.5153 -0.4170
17279SOL    HW258696   5.225   7.068   1.390 -0.1765 -0.2029 -0.2527
17280SOL     OW58697  12.046   6.151  10.453 -0.3670 -0.4286  0.0651
17280SOL    HW158698  12.083   6.130  10.367  2.2303 -1.0612  1.2447
17280SOL    HW258699  12.000   6.234  10.439  0.6848 -0.0909 -1.7655
17281SOL     OW58700  10.618   9.543   0.157  0.4111 -0.3894  0.4455
17281SOL    HW158701  10.583   9.631   0.154  0.1933 -0.4722 -2.6031
17281SOL    HW258702  10.552   9.492   0.204 -1.8821  0.1749 -1.9758
17282SOL     OW58703   7.108   9.324   5.243  0.0929  0.3310 -0.1520
17282SOL    HW158704   7.068   9.372   5.170  2.4665 -0.5440 -2.1506
17282SOL    HW258705   7.140   9.243   5.204 -0.2285 -1.0667  2.3128
17283SOL     OW58706   0.950   1.711   0.198  0.3727 -0.0732  0.0338
17283SOL    HW158707   0.948   1.628   0.246  1.4746 -0.0986  0.0570
17283SOL    HW258708   0.858   1.732   0.184  0.0591 -0.8488  0.8049
17284SOL     OW58709  11.473   4.202   4.532 -0.3863  0.3861 -0.0400
17284SOL    HW158710  11.485   4.108   4.546  0.5861  0.4030 -0.6587
17284SOL    HW258711  11.502   4.242   4.615  1.7058  0.2626 -0.6420
17285SOL     OW58712   3.698   6.411   6.166 -0.0625 -0.0454 -0.1196
17285SOL    HW158713   3.625   6.391   6.107 -0.3132  1.5586 -0.4244
17285SOL    HW258714   3.666   6.484   6.219  0.1637 -1.4630  2.0659
17286SOL     OW58715  10.744   9.981   6.064  0.0572 -0.5800  0.0203
17286SOL    HW158716  10.694  10.017   5.991 -0.4686  0.2230  0.7469
17286SOL    HW258717  10.737   9.886   6.055 -0.8650 -0.4783 -0.3923
17287SOL     OW58718   6.122   5.155   2.755 -0.2368  0.3311 -0.0927
17287SOL    HW158719   6.180   5.079   2.755  1.4808  1.5819  0.5959
17287SOL    HW258720   6.081   5.154   2.841 -1.0754 -0.4110 -0.4866
17288SOL     OW58721   5.728   2.070   6.215 -0.3953 -0.6874 -0.5234
17288SOL    HW158722   5.640   2.032   6.216 -0.9312  0.5006 -0.3411
17288SOL    HW258723   5.729   2.124   6.136  1.5228 -3.6024 -2.7244
17289SOL     OW58724   1.961  12.479   6.016  0.1270  0.5073 -0.2365
17289SOL    HW158725   1.982  12.531   6.094  2.7746 -0.5685 -0.1287
17289SOL    HW258726   1.896  12.416   6.047  2.1704 -0.8648  1.6102
17290SOL     OW58727   0.837   9.840   9.825 -0.6120 -0.3521  0.3095
17290SOL    HW158728   0.790   9.801   9.751  1.9332  0.0371 -1.6351
17290SOL    HW258729   0.857   9.766   9.882 -2.6989 -0.6449  0.7407
17291SOL     OW58730   3.555   9.966   9.207 -0.2536  0.4809  0.0161
17291SOL    HW158731   3.577   9.958   9.300 -0.0313 -0.8029 -0.1182
17291SOL    HW258732   3.631   9.929   9.162 -0.7626  0.2083 -0.6363
17292SOL     OW58733   3.258   3.839   9.872  0.6392 -0.1341  0.9990
17292SOL    HW158734   3.205   3.902   9.823 -1.0306 -1.7431  0.6255
17292SOL    HW258735   3.325   3.812   9.810  0.4555  0.1679  0.6607
17293SOL     OW58736   4.720   8.590   3.223 -0.0031  0.1531 -0.1996
17293SOL    HW158737   4.704   8.498   3.205 -0.2619  0.0816  0.3522
17293SOL    HW258738   4.638   8.621   3.263 -0.6437  1.1192 -2.1437
17294SOL     OW58739   3.174  10.420   0.697  0.1133  0.1959 -0.1950
17294SOL    HW158740   3.093  10.375   0.672 -0.1206  0.0707  0.7520
17294SOL    HW258741   3.209  10.367   0.769  0.6486  0.6694 -0.1043
17295SOL     OW58742   1.124   8.253  10.152  0.4410  0.0861 -0.0798
17295SOL    HW158743   1.185   8.320  10.183  0.8167 -0.0582 -0.4939
17295SOL    HW258744   1.180   8.184  10.115  0.1647 -1.3815  2.0622
17296SOL     OW58745  10.243   9.614   5.785  0.0889 -0.2179  0.5730
17296SOL    HW158746  10.233   9.569   5.702  0.6183  1.7202 -0.5977
17296SOL    HW258747  10.299   9.689   5.766 -2.1306  1.9638  1.9812
17297SOL     OW58748   9.933   8.133   2.990  0.3689  0.1963  0.0436
17297SOL    HW158749   9.862   8.084   2.947  0.4787  1.4819 -1.7205
17297SOL    HW258750   9.987   8.066   3.031 -0.7525 -0.9763 -0.3348
17298SOL     OW58751  11.091   7.802   4.083 -0.6512 -0.2594 -0.4866
17298SOL    HW158752  11.141   7.833   4.007 -1.8676  0.5837 -0.9672
17298SOL    HW258753  11.075   7.710   4.065 -1.9182  0.1965 -1.8456
17299SOL     OW58754   9.076  11.914   3.054 -0.0814 -0.0555  0.4634
17299SOL    HW158755   9.008  11.947   2.994  1.3142  1.0218 -0.5863
17299SOL    HW258756   9.066  11.819   3.051 -1.0943  0.0541 -0.2158
17300SOL     OW58757   4.766   1.680   2.259  0.1765  0.0027  0.0128
17300SOL    HW158758   4.764   1.584   2.260  1.3530 -0.0946 -2.0048
17300SOL    HW258759   4.676   1.706   2.277 -0.6741 -1.5632 -1.6632
17301SOL     OW58760   9.091  10.049   7.924  0.0455  0.0379  0.0523
17301SOL    HW158761   9.094  10.144   7.912  0.5953  0.0053 -0.0632
17301SOL    HW258762   9.110  10.036   8.017  1.2881 -0.0283 -0.1930
17302SOL     OW58763   5.104   5.270   5.240  0.9484  0.1712  0.1221
17302SOL    HW158764   5.099   5.184   5.199 -1.2799  0.3020 -0.0367
17302SOL    HW258765   5.092   5.252   5.334  0.8052  0.2870  0.1254
17303SOL     OW58766   7.051   6.565   5.101  0.3679 -0.2503  0.2887
17303SOL    HW158767   7.045   6.622   5.178 -0.2703 -0.5539  0.4660
17303SOL    HW258768   7.143   6.537   5.099  0.1913 -0.9492  1.4559
17304SOL     OW58769   6.182   3.516   0.720  0.4179 -0.3827 -0.4891
17304SOL    HW158770   6.272   3.521   0.753 -0.5326 -0.8313  2.4669
17304SOL    HW258771   6.172   3.595   0.666  1.6585  1.4786  1.8083
17305SOL     OW58772  12.281   4.966   3.789 -0.5962 -0.2959 -0.3130
17305SOL    HW158773  12.300   4.899   3.855 -0.1446 -0.6682 -0.8141
17305SOL    HW258774  12.242   4.917   3.717  0.2344 -0.0957 -0.9033
17306SOL     OW58775   5.357  10.311  10.615 -0.1594  0.1456  0.2422
17306SOL    HW158776   5.452  10.313  10.627  0.0673  0.7662 -1.3439
17306SOL    HW258777   5.345  10.282  10.525 -1.4678  0.4740  0.2896
17307SOL     OW58778   4.817   0.889   7.976  0.0304  0.2449  0.2413
17307SOL    HW158779   4.821   0.884   7.880  1.2504  1.6916  0.1760
17307SOL    HW258780   4.724   0.878   7.997 -0.5798  2.0846 -1.2750
17308SOL     OW58781  11.877   9.130  11.565 -0.0315  0.0820  0.0470
17308SOL    HW158782  11.866   9.119  11.659 -2.9936  0.1141 -0.1781
17308SOL    HW258783  11.846   9.048  11.527 -0.0273  0.5100 -0.9164
17309SOL     OW58784   9.768   2.435   1.744 -0.1074  0.2536 -0.7173
17309SOL    HW158785   9.692   2.387   1.711  0.1489  0.1989 -1.2309
17309SOL    HW258786   9.842   2.403   1.692  0.3922 -0.1944  0.2330
17310SOL     OW58787  11.975   5.398   6.727 -0.3395  0.2099 -0.1749
17310SOL    HW158788  11.990   5.412   6.820 -1.1198 -0.0593 -0.0033
17310SOL    HW258789  12.012   5.312   6.709  1.1311  0.8641 -0.4421
17311SOL     OW58790   2.467   1.486   6.358 -0.0945 -0.4630 -0.3426
17311SOL    HW158791   2.421   1.455   6.437 -1.3475  0.7496 -0.5567
17311SOL    HW258792   2.535   1.420   6.343 -0.2688 -1.0935  1.3431
17312SOL     OW58793   9.648   6.538   5.594  0.1864 -0.1826  0.2466
17312SOL    HW158794   9.626   6.596   5.520 -0.8525  2.2114  2.2920
17312SOL    HW258795   9.589   6.463   5.584  0.6749 -0.3601 -1.7855
17313SOL     OW58796  10.389   9.321  11.161 -0.4152  0.0294  0.1108
17313SOL    HW158797  10.344   9.253  11.110 -1.6928  0.8026  0.1680
17313SOL    HW258798  10.340   9.325  11.243 -1.1371  1.8606 -0.3760
17314SOL     OW58799  10.352   1.323   8.696  0.9496  0.7971  0.2396
17314SOL    HW158800  10.359   1.393   8.760  2.5172  1.2771 -0.4101
17314SOL    HW258801  10.326   1.246   8.747 -0.5621  1.7464  0.9976
17315SOL     OW58802   2.906  11.699   8.562 -0.2391 -0.3241 -0.3751
17315SOL    HW158803   2.964  11.670   8.491  0.1423  0.0221 -0.2119
17315SOL    HW258804   2.966  11.725   8.632 -0.5188  1.2083 -0.6507
17316SOL     OW58805   3.721   5.878   2.254 -0.2540 -0.4967 -0.0652
17316SOL    HW158806   3.680   5.951   2.208  0.5974 -0.0108 -0.0725
17316SOL    HW258807   3.808   5.871   2.214  0.1116 -0.7395  0.7612
17317SOL     OW58808  10.822   9.587   0.394 -0.1881 -0.2656 -0.1722
17317SOL    HW158809  10.788   9.498   0.386  0.3698 -0.3979 -1.2756
17317SOL    HW258810  10.769   9.639   0.334  1.7641 -0.5738 -2.3211
17318SOL     OW58811   5.094   2.523   3.250 -0.2716 -0.0173  0.2318
17318SOL    HW158812   5.121   2.545   3.339  0.8488 -1.2515  0.2332
17318SOL    HW258813   5.177   2.513   3.202 -0.8048 -0.9273 -0.5410
17319SOL     OW58814   8.991   0.246  11.246 -0.0092  0.4536 -0.0876
17319SOL    HW158815   8.916   0.299  11.220  1.3842  2.8367  0.3429
17319SOL    HW258816   8.987   0.245  11.342  0.0785 -0.0788 -0.0887
17320SOL     OW58817   6.320   5.821   7.277 -0.5052  0.1751  0.2231
17320SOL    HW158818   6.263   5.838   7.352  1.3700  2.0214  1.3485
17320SOL    HW258819   6.374   5.747   7.304 -0.3518  0.3467  0.3892
17321SOL     OW58820   7.386   3.464   0.279  0.7239 -0.2230  0.0892
17321SOL    HW158821   7.350   3.408   0.210 -1.2255 -0.8940  1.5319
17321SOL    HW258822   7.357   3.422   0.360  2.0864  1.0738  1.2903
17322SOL     OW58823   5.500   9.594   2.948 -0.0551 -0.3486  0.8552
17322SOL    HW158824   5.546   9.647   3.012 -1.0293  2.8481 -0.9038
17322SOL    HW258825   5.556   9.594   2.871 -1.4755  0.8815 -0.2295
17323SOL     OW58826   7.264  11.776   5.836  0.1715 -0.4967  0.3060
17323SOL    HW158827   7.206  11.720   5.887 -0.3190  1.4114  1.9640
17323SOL    HW258828   7.206  11.833   5.785  0.5558  0.7283  1.1903
17324SOL     OW58829   0.764   9.784   5.128 -0.1933 -0.0895  0.1110
17324SOL    HW158830   0.701   9.773   5.057  1.0759 -1.1699 -0.9017
17324SOL    HW258831   0.836   9.833   5.089  0.6264 -0.8998  0.5781
17325SOL     OW58832   9.551   6.388   1.583 -0.0646 -0.0255  0.1564
17325SOL    HW158833   9.600   6.470   1.590  0.5284 -0.2935 -0.8341
17325SOL    HW258834   9.612   6.326   1.543 -1.3123 -0.2458 -1.5179
17326SOL     OW58835  10.755   3.236   8.338 -0.2788 -0.3760  0.0370
17326SOL    HW158836  10.697   3.276   8.404  1.0018  0.5832  0.6317
17326SOL    HW258837  10.809   3.309   8.307  1.7014 -1.5129  0.6711
17327SOL     OW58838  12.323  12.095   6.780  0.5970 -0.2736 -0.2756
17327SOL    HW158839  12.360  12.054   6.858  0.4207 -1.2465 -0.6902
17327SOL    HW258840  12.235  12.120   6.805  0.0189 -1.8996 -0.5669
17328SOL     OW58841   1.069   0.242   9.681  0.0409  0.0455 -0.0543
17328SOL    HW158842   1.056   0.159   9.727 -0.6210  0.2430  0.1393
17328SOL    HW258843   1.007   0.238   9.607  0.4480  0.1083 -0.3997
17329SOL     OW58844   7.228   0.239   2.939 -0.0341  0.0773  0.5174
17329SOL    HW158845   7.296   0.253   2.872  0.0047 -1.1420  0.2747
17329SOL    HW258846   7.167   0.311   2.926  0.3820  0.3006 -0.3247
17330SOL     OW58847   4.614   7.287   7.517  0.1551  0.6613  0.4042
17330SOL    HW158848   4.524   7.294   7.484  0.2189 -1.4818 -0.3598
17330SOL    HW258849   4.667   7.264   7.441  1.1618  0.6729  1.0762
17331SOL     OW58850   8.374   5.666  11.109 -0.1947  0.1116 -0.6467
17331SOL    HW158851   8.296   5.721  11.117 -0.4711  0.3514 -3.7564
17331SOL    HW258852   8.447   5.727  11.114 -0.0735 -0.0998  2.1481
17332SOL     OW58853   4.719   8.077   2.633  0.2809 -0.2945 -0.4733
17332SOL    HW158854   4.796   8.041   2.589 -0.2959 -3.1543  0.6148
17332SOL    HW258855   4.737   8.065   2.726 -1.1580 -0.3438 -0.1833
17333SOL     OW58856   7.870   3.032   3.521  0.3620  0.2456  0.2089
17333SOL    HW158857   7.959   3.053   3.492  0.3736 -0.4080 -0.2577
17333SOL    HW258858   7.855   2.943   3.488 -0.0787 -0.0455  1.1777
17334SOL     OW58859   2.379  12.546   3.680 -0.1384 -0.3289 -0.4411
17334SOL    HW158860   2.418  12.562   3.594  1.4390 -1.9830 -0.0716
17334SOL    HW258861   2.393  12.628   3.728 -0.2262  0.2894 -1.4363
17335SOL     OW58862   1.279  10.674   8.681 -0.2790 -0.3291 -1.0269
17335SOL    HW158863   1.231  10.640   8.757  0.7722  0.8610  0.2501
17335SOL    HW258864   1.260  10.768   8.681  0.5439 -0.1465 -1.6069
17336SOL     OW58865  10.412   9.975  10.641 -0.0106 -0.1810 -0.4019
17336SOL    HW158866  10.479   9.923  10.597 -0.9255 -1.1458 -0.7074
17336SOL    HW258867  10.335   9.918  10.641 -0.6289  0.6322  0.5594
17337SOL     OW58868   7.340   7.682   8.517 -0.2688 -0.3577 -0.5712
17337SOL    HW158869   7.375   7.728   8.441 -1.7922  0.8564 -0.5983
17337SOL    HW258870   7.265   7.735   8.544 -0.8829 -1.7819  0.6451
17338SOL     OW58871   7.267   2.704   3.071  0.0854 -0.0207  0.1593
17338SOL    HW158872   7.205   2.664   3.010  0.8939 -0.1075 -0.6356
17338SOL    HW258873   7.279   2.793   3.038 -2.3842  1.2709  2.4281
17339SOL     OW58874  12.172   7.063   3.899 -0.2006  0.2418  0.0732
17339SOL    HW158875  12.255   7.069   3.851 -0.9674  1.0257 -1.1982
17339SOL    HW258876  12.188   6.995   3.965  1.7764  1.1009  0.5512
17340SOL     OW58877   9.320   9.630   1.878  0.4857 -0.1462 -0.3912
17340SOL    HW158878   9.250   9.567   1.890  0.3744 -0.5002 -2.5066
17340SOL    HW258879   9.392   9.580   1.840  0.8359  0.7571 -0.9654
17341SOL     OW58880   9.696   5.609  10.230 -0.7501  0.1497  0.1577
17341SOL    HW158881   9.714   5.702  10.243  0.6767 -0.0789 -0.0974
17341SOL    HW258882   9.614   5.594  10.277 -0.6165  1.3793  0.8158
17342SOL     OW58883   6.418   9.203   1.543 -0.3330 -0.3084  0.6672
17342SOL    HW158884   6.510   9.211   1.570  0.0298  0.1080 -0.6377
17342SOL    HW258885   6.419   9.214   1.448 -1.9341  1.5028  0.7932
17343SOL     OW58886   7.497   9.202   2.625 -0.6823 -0.3431  0.3175
17343SOL    HW158887   7.568   9.207   2.560 -0.2083 -2.5520  0.5991
17343SOL    HW258888   7.506   9.282   2.677  2.2106 -0.9654  0.9257
17344SOL     OW58889   1.122   2.711   1.588  0.0586 -0.3035 -0.5530
17344SOL    HW158890   1.111   2.807   1.590  1.7167 -0.0958  0.1536
17344SOL    HW258891   1.078   2.684   1.508  0.2020  1.1544 -1.1691
17345SOL     OW58892   2.105   2.551   6.877 -0.0073  0.1567 -0.5834
17345SOL    HW158893   2.130   2.641   6.898  0.2765  0.1806 -1.0273
17345SOL    HW258894   2.024   2.559   6.827 -0.5108  0.1137  0.1966
17346SOL     OW58895   8.054   5.347   1.053  0.0742 -0.0848 -0.3700
17346SOL    HW158896   8.076   5.255   1.036 -0.5343 -0.1543 -0.8006
17346SOL    HW258897   7.964   5.356   1.021 -1.1739 -0.2195  2.7988
17347SOL     OW58898   3.882   2.296   0.650 -0.4826 -0.3647  0.1008
17347SOL    HW158899   3.862   2.377   0.603 -1.4738 -0.5812  0.1216
17347SOL    HW258900   3.799   2.249   0.653  0.7399 -3.1367 -3.1744
17348SOL     OW58901   9.228   6.709   1.911 -0.4829  0.2741  0.2007
17348SOL    HW158902   9.270   6.693   1.827 -0.1958  1.8536  0.0111
17348SOL    HW258903   9.247   6.801   1.930 -0.7600  0.0162  1.8707
17349SOL     OW58904  11.282   6.169   0.546  0.0682 -0.8758  0.2507
17349SOL    HW158905  11.239   6.183   0.462  1.1704 -0.5892 -0.2785
17349SOL    HW258906  11.288   6.257   0.585 -2.4228 -1.2293  1.6750
17350SOL     OW58907  12.189   8.730   6.698  0.4360  0.5897 -0.3773
17350SOL    HW158908  12.135   8.651   6.702  0.5147  0.5148 -0.8386
17350SOL    HW258909  12.126   8.800   6.680  0.0543  0.9536  1.9467
17351SOL     OW58910   4.152   6.415  11.428 -0.0521 -0.1731  0.3848
17351SOL    HW158911   4.167   6.328  11.391  0.6502 -0.4909  1.3468
17351SOL    HW258912   4.210   6.418  11.505  1.0459  1.6773 -0.4421
17352SOL     OW58913  10.653   0.995   9.081 -0.1015 -0.6385 -0.4409
17352SOL    HW158914  10.699   1.064   9.033 -0.8466  1.5612  1.7903
17352SOL    HW258915  10.718   0.963   9.144 -0.3311 -0.5640 -0.1627
17353SOL     OW58916   6.175   2.847   0.593 -0.3179  0.0368 -0.3992
17353SOL    HW158917   6.171   2.756   0.564  0.9101 -0.1895  0.0609
17353SOL    HW258918   6.144   2.845   0.684  1.0363 -0.1884  0.0886
17354SOL     OW58919   2.375   1.587   2.134  0.1279 -0.5065 -0.0519
17354SOL    HW158920   2.456   1.604   2.181  0.6411  0.6109 -1.2706
17354SOL    HW258921   2.374   1.492   2.120 -0.3685 -0.9807  2.6987
17355SOL     OW58922   8.649   4.721   1.609  0.2411 -0.4432 -0.1229
17355SOL    HW158923   8.573   4.778   1.596  2.2051  1.9701 -1.9582
17355SOL    HW258924   8.700   4.764   1.677  0.3794 -1.6563  0.5770
17356SOL     OW58925   1.091  11.305  11.554  0.3488 -0.2856 -0.0816
17356SOL    HW158926   1.020  11.364  11.581 -2.2619 -2.9908 -0.4962
17356SOL    HW258927   1.170  11.356  11.567 -1.6610  3.2268 -0.2578
17357SOL     OW58928   1.646   4.905  11.562  1.1913 -0.6942 -0.0235
17357SOL    HW158929   1.582   4.903  11.633  1.3123  0.4265  0.1287
17357SOL    HW258930   1.634   4.821  11.517  0.4285 -0.9947  0.7105
17358SOL     OW58931   6.757  11.147  10.866  0.2432  0.5415 -0.1615
17358SOL    HW158932   6.676  11.180  10.826 -0.5797 -2.4506 -1.2096
17358SOL    HW258933   6.729  11.075  10.923  2.0042  0.8702  1.2312
17359SOL     OW58934  10.557  10.267   7.910  0.1599  0.2237  0.2785
17359SOL    HW158935  10.544  10.258   7.816  1.3852  0.8489  0.0327
17359SOL    HW258936  10.469  10.280   7.946 -0.3790 -0.6189 -0.6994
17360SOL     OW58937   6.921   3.542   4.712  0.4342 -0.1733  0.2879
17360SOL    HW158938   6.907   3.470   4.773 -1.4169  1.3002  1.7343
17360SOL    HW258939   6.887   3.511   4.628  1.4556 -1.6160  0.3697
17361SOL     OW58940   3.953  10.071   3.722 -0.3372  0.4911 -0.0893
17361SOL    HW158941   4.046  10.088   3.704 -0.0042  0.1991  1.2345
17361SOL    HW258942   3.947  10.073   3.818 -1.2126 -1.9233 -0.0453
17362SOL     OW58943  10.513   9.411  10.196  0.0502  0.2831  0.4983
17362SOL    HW158944  10.419   9.409  10.177 -0.3801 -0.1182  2.4173
17362SOL    HW258945  10.519   9.384  10.288  2.1243 -0.5129  0.1764
17363SOL     OW58946  10.911   5.241   3.322  0.7139 -0.9727  0.2747
17363SOL    HW158947  10.973   5.173   3.348  0.4243 -1.3642 -0.0408
17363SOL    HW258948  10.826   5.209   3.353  0.3393 -1.5266 -1.2610
17364SOL     OW58949  11.739   3.283   2.164  0.1686  0.3477  0.3967
17364SOL    HW158950  11.657   3.313   2.125  1.0293  0.7325 -1.2498
17364SOL    HW258951  11.792   3.362   2.172  0.2992  0.1484  1.7178
17365SOL     OW58952   5.988   7.694   5.585  0.2798 -0.1751 -0.6058
17365SOL    HW158953   6.034   7.635   5.526 -0.4019  0.2054 -1.5369
17365SOL    HW258954   6.027   7.779   5.569 -0.0964 -0.0204 -0.7151
17366SOL     OW58955  10.539   8.946   8.489 -0.2531  0.5772  0.0301
17366SOL    HW158956  10.562   9.027   8.535 -1.8411  0.9659  0.1973
17366SOL    HW258957  10.601   8.881   8.523 -0.2038  1.2747  1.3586
17367SOL     OW58958   8.489   9.391  10.037 -0.4678 -0.6823 -0.1115
17367SOL    HW158959   8.423   9.323  10.054 -0.8322 -0.2496  0.2451
17367SOL    HW258960   8.473   9.457  10.105  0.5243 -0.7072  0.1560
17368SOL     OW58961   6.485   8.189   1.436 -0.2246 -0.1592 -0.5523
17368SOL    HW158962   6.565   8.150   1.403  0.9491  0.6880  1.1390
17368SOL    HW258963   6.415   8.146   1.387  1.1338 -2.3430 -0.6953
17369SOL     OW58964   6.174  10.581   4.180 -0.3464 -0.5859  0.3334
17369SOL    HW158965   6.250  10.576   4.238 -0.1117 -0.1138  0.0747
17369SOL    HW258966   6.169  10.495   4.139  0.2162 -0.5407  0.1547
17370SOL     OW58967  11.642   6.822   6.567 -0.3826 -0.2984  0.2614
17370SOL    HW158968  11.718   6.802   6.512 -0.3569  1.3880 -0.3837
17370SOL    HW258969  11.573   6.844   6.504 -1.1269 -0.8889  0.8624
17371SOL     OW58970   3.589   8.581   5.462 -0.2967  0.4059  0.3832
17371SOL    HW158971   3.586   8.676   5.473  2.5028  0.5398  0.6814
17371SOL    HW258972   3.609   8.567   5.370  0.4029  0.1631  0.5637
17372SOL     OW58973  10.213   8.961  10.328  0.3118  0.3635  0.0773
17372SOL    HW158974  10.295   9.009  10.312  1.3358 -0.7787  1.6832
17372SOL    HW258975  10.160   9.022  10.380  1.0895  0.2637  1.0172
17373SOL     OW58976  11.514   2.893   1.767  0.0470  0.8766 -0.1387
17373SOL    HW158977  11.474   2.941   1.839  0.9380 -2.3078  2.7605
17373SOL    HW258978  11.603   2.927   1.762 -0.3851  1.9807 -0.6699
17374SOL     OW58979   5.733   0.961  12.572 -0.0795  0.2629  0.2937
17374SOL    HW158980   5.766   1.050  12.557  1.5839 -0.2624  0.6160
17374SOL    HW258981   5.765   0.910  12.498 -1.8140  0.0945 -0.3738
17375SOL     OW58982   6.615   0.206   5.666 -0.0590  0.5706 -0.0617
17375SOL    HW158983   6.615   0.279   5.727 -1.4520  1.3582 -0.9607
17375SOL    HW258984   6.675   0.142   5.705  1.7411  2.4441  0.4061
17376SOL     OW58985   1.589  10.465   8.150  0.0413 -0.0045  0.1223
17376SOL    HW158986   1.585  10.556   8.121 -3.0389 -0.4604 -1.2420
17376SOL    HW258987   1.606  10.471   8.244  0.4550  1.9214 -0.0235
17377SOL     OW58988   2.264   9.264   8.408  0.2248 -0.1291  0.5846
17377SOL    HW158989   2.190   9.255   8.469  0.0860 -2.0276  0.2203
17377SOL    HW258990   2.339   9.281   8.465 -0.2935  0.6877  1.0529
17378SOL     OW58991   9.593   0.206  11.414  0.1298  0.5270  0.4368
17378SOL    HW158992   9.669   0.166  11.456 -0.5640 -0.2058  1.0274
17378SOL    HW258993   9.590   0.166  11.327  0.3825  0.5109  0.4345
17379SOL     OW58994   7.616   3.146  11.406  0.2227  0.0300  0.0974
17379SOL    HW158995   7.643   3.078  11.468  0.3452 -0.8294 -0.8828
17379SOL    HW258996   7.698   3.181  11.371  0.1364  0.0431 -0.0917
17380SOL     OW58997   6.838  10.717   5.060  0.2298 -0.0065  0.0842
17380SOL    HW158998   6.925  10.704   5.098  0.0861  0.9225  0.7745
17380SOL    HW258999   6.798  10.785   5.115 -1.5770 -1.5933  0.8206
17381SOL     OW59000   7.116   5.135   1.776 -0.4196  0.2384  0.0024
17381SOL    HW159001   7.038   5.119   1.723 -0.4766  0.7135 -0.0645
17381SOL    HW259002   7.137   5.050   1.814 -1.0620  0.1358  0.1442
17382SOL     OW59003  10.850   6.754  10.877  0.3901 -0.4384  0.4985
17382SOL    HW159004  10.900   6.783  10.800 -2.1179  0.6723 -0.8310
17382SOL    HW259005  10.879   6.812  10.948  0.7552  0.4046 -0.3146
17383SOL     OW59006   4.344  10.224   2.383 -0.4351  0.4172  0.2999
17383SOL    HW159007   4.328  10.232   2.477 -1.7247  1.0983  0.0374
17383SOL    HW259008   4.409  10.292   2.364  0.5222 -0.3266  0.8403
17384SOL     OW59009   7.102   4.432   5.033  0.7947 -0.0875 -0.1266
17384SOL    HW159010   7.125   4.427   5.126 -1.2296  1.0765  0.4883
17384SOL    HW259011   7.186   4.450   4.989  1.9591 -1.6764  1.3086
17385SOL     OW59012   4.800  12.303   3.950 -0.3727 -0.0879  0.0027
17385SOL    HW159013   4.812  12.327   3.858  2.6784  0.7843  0.5147
17385SOL    HW259014   4.740  12.228   3.948  0.6789 -0.9817 -2.8396
17386SOL     OW59015   9.793   5.444  11.835 -0.1889  0.4139  0.0141
17386SOL    HW159016   9.837   5.501  11.898 -0.5469  0.2833  0.3802
17386SOL    HW259017   9.865   5.400  11.789  0.0846 -0.5388  1.2851
17387SOL     OW59018   8.861   6.388   5.181 -0.4543 -0.3626 -0.0110
17387SOL    HW159019   8.827   6.362   5.267 -1.5087 -1.1196 -0.6314
17387SOL    HW259020   8.853   6.309   5.127 -0.8891  0.4122 -1.1226
17388SOL     OW59021   7.489   3.689   1.988 -0.0615 -0.3181  0.2832
17388SOL    HW159022   7.471   3.598   2.014  0.0880 -0.4597 -0.1026
17388SOL    HW259023   7.429   3.706   1.916  0.0968 -0.2006  0.1782
17389SOL     OW59024   0.702   9.108   3.551 -0.0558 -0.1115 -0.0092
17389SOL    HW159025   0.613   9.119   3.518 -0.0552  0.6663  0.2244
17389SOL    HW259026   0.758   9.144   3.482 -0.0867  2.1392  1.0708
17390SOL     OW59027   3.259   0.411   7.234 -0.3622  0.5354 -0.5066
17390SOL    HW159028   3.350   0.435   7.214  0.2670 -1.4844 -0.2719
17390SOL    HW259029   3.208   0.488   7.208  1.4797  2.0875  0.1987
17391SOL     OW59030   6.533   6.090   7.648 -0.0919 -0.7544  0.8809
17391SOL    HW159031   6.571   6.003   7.633  2.5486  0.4856 -0.1850
17391SOL    HW259032   6.504   6.087   7.740  0.3335 -2.5993  1.0054
17392SOL     OW59033   1.214  10.823   2.610 -0.5353 -0.2530 -0.1279
17392SOL    HW159034   1.148  10.892   2.605  0.2612  0.5315 -0.1187
17392SOL    HW259035   1.238  10.819   2.703 -0.0616 -0.0398 -0.2389
17393SOL     OW59036   5.249   0.144  12.248 -0.4310 -0.1906 -0.2668
17393SOL    HW159037   5.276   0.093  12.325 -0.4584 -0.2626 -0.3040
17393SOL    HW259038   5.209   0.079  12.190 -0.0029 -0.2212 -0.5369
17394SOL     OW59039   3.211   2.231   3.207  0.3764  0.2163 -0.2317
17394SOL    HW159040   3.156   2.245   3.285  0.3348 -2.8983  0.4580
17394SOL    HW259041   3.152   2.189   3.144  1.2279 -0.4962 -0.5814
17395SOL     OW59042   1.983   8.911   7.479 -0.4082  0.0240 -0.6120
17395SOL    HW159043   2.059   8.867   7.442 -0.3371 -0.1017 -0.3152
17395SOL    HW259044   1.919   8.912   7.408 -0.0083  0.4325 -0.9696
17396SOL     OW59045   8.442   4.250   7.895  0.0753 -0.2430  0.5193
17396SOL    HW159046   8.472   4.285   7.978 -0.3886 -1.7052  1.3470
17396SOL    HW259047   8.387   4.320   7.858  0.7019  0.6207  1.1848
17397SOL     OW59048   5.326   4.689   5.293 -0.5773 -0.6150 -0.0593
17397SOL    HW159049   5.232   4.696   5.274 -0.6376  0.3211  0.5168
17397SOL    HW259050   5.368   4.703   5.208 -0.9523 -1.2634 -0.3655
17398SOL     OW59051   7.917   7.880   6.665  0.3411  0.4593  0.3921
17398SOL    HW159052   7.997   7.875   6.718  2.1961  0.8585 -2.1871
17398SOL    HW259053   7.908   7.972   6.643  1.0365  0.0465 -1.8940
17399SOL     OW59054   5.198   1.590   6.024  0.1153 -0.6513  0.3081
17399SOL    HW159055   5.161   1.677   6.012 -0.2124 -0.7480  0.6117
17399SOL    HW259056   5.280   1.592   5.975 -0.1303 -0.3327 -0.0954
17400SOL     OW59057   6.203   0.429   9.265 -0.7736 -0.1064 -0.3889
17400SOL    HW159058   6.143   0.373   9.216  0.2772  0.0757 -1.9583
17400SOL    HW259059   6.237   0.372   9.335 -3.2493  0.0061  1.0046
17401SOL     OW59060   5.873  11.314  12.294 -0.2719 -0.3191  0.4715
17401SOL    HW159061   5.780  11.336  12.308 -0.2430  0.5547 -0.5985
17401SOL    HW259062   5.902  11.281  12.379 -1.1615  0.8810  1.2763
17402SOL     OW59063   7.116   6.833   8.892  0.1980  0.0063  0.1531
17402SOL    HW159064   7.054   6.906   8.891 -0.8265 -0.8465  0.3574
17402SOL    HW259065   7.202   6.875   8.900 -0.4869  1.1281  2.6181
17403SOL     OW59066  11.766   3.976   5.969 -0.1695 -0.4065 -0.7604
17403SOL    HW159067  11.741   4.055   6.016 -1.1898 -1.1301 -0.0225
17403SOL    HW259068  11.698   3.965   5.903 -0.0962 -0.7128 -0.7884
17404SOL     OW59069  12.367   8.088   1.537 -0.1551 -0.6202  0.3440
17404SOL    HW159070  12.426   8.076   1.463  0.9905 -0.1133  1.1450
17404SOL    HW259071  12.297   8.144   1.503  0.2825 -0.5060 -0.3884
17405SOL     OW59072   8.521  11.807   9.517 -0.5769  0.1669 -0.2476
17405SOL    HW159073   8.610  11.840   9.527 -0.4993  0.5416 -1.9284
17405SOL    HW259074   8.529  11.730   9.460 -1.1520 -0.8301  0.9571
17406SOL     OW59075   3.444  11.082  10.083  0.7001 -0.1558  0.0677
17406SOL    HW159076   3.398  11.005  10.051 -0.2163  0.5247 -0.2757
17406SOL    HW259077   3.537  11.063  10.066  0.3620 -0.4839 -1.5472
17407SOL     OW59078   6.678   3.609   3.904 -0.3721  0.1293  0.1748
17407SOL    HW159079   6.742   3.566   3.846 -1.3072 -0.6428 -0.3112
17407SOL    HW259080   6.717   3.695   3.923 -0.0604  0.4382 -1.6512
17408SOL     OW59081   0.018  11.088   0.777  0.1311 -0.0272  0.4374
17408SOL    HW159082   0.033  11.066   0.685 -0.5249 -0.4831  0.4316
17408SOL    HW259083   0.100  11.128   0.805 -0.2887  1.9028 -0.8661
17409SOL     OW59084   2.408   6.502   1.777  0.3815  0.2531  0.3844
17409SOL    HW159085   2.372   6.440   1.840 -0.8951 -0.5219 -1.0454
17409SOL    HW259086   2.411   6.453   1.695  0.6627  1.6827 -0.4793
17410SOL     OW59087  10.981   8.119   8.669 -0.6392 -0.4757 -0.2251
17410SOL    HW159088  11.070   8.144   8.645 -0.1185 -1.0477  1.0313
17410SOL    HW259089  10.925   8.184   8.626  0.4771  0.8917  0.3374
17411SOL     OW59090   2.544   1.284   3.631  0.4329  0.1569 -0.1978
17411SOL    HW159091   2.621   1.246   3.590  0.4709  0.1673 -0.1359
17411SOL    HW259092   2.522   1.360   3.576  0.9433  0.6289  0.2371
17412SOL     OW59093   0.183   8.893   1.146 -0.0863  0.4037  0.1218
17412SOL    HW159094   0.178   8.960   1.214  0.3849  0.4842  0.0798
17412SOL    HW259095   0.209   8.940   1.067 -1.2030  0.4038 -0.2614
17413SOL     OW59096   2.472   4.943   9.592  0.2721  0.2302 -0.1073
17413SOL    HW159097   2.534   4.886   9.547 -1.4337 -1.7118 -0.0935
17413SOL    HW259098   2.392   4.938   9.540 -0.8328  0.2422  1.5116
17414SOL     OW59099  11.860   5.201   7.691 -0.3682  0.1362  0.4510
17414SOL    HW159100  11.776   5.217   7.733 -0.5899  1.7107 -0.5462
17414SOL    HW259101  11.850   5.233   7.602  1.6486  1.5010  0.6417
17415SOL     OW59102   9.099   3.351   6.092  0.3810 -0.1262  0.5795
17415SOL    HW159103   9.181   3.313   6.124  1.9478  1.0105 -1.7605
17415SOL    HW259104   9.097   3.328   5.999 -1.2400  1.1288  0.2544
17416SOL     OW59105   6.085   6.499   8.373  0.2418 -0.0366  0.4506
17416SOL    HW159106   6.164   6.511   8.426 -0.2532 -0.9182  1.4140
17416SOL    HW259107   6.115   6.512   8.283  1.5976 -0.8173  0.7612
17417SOL     OW59108  10.349   8.932   9.605  0.3462  0.2148 -0.1565
17417SOL    HW159109  10.256   8.912   9.618  0.7163 -2.1728 -0.7232
17417SOL    HW259110  10.362   8.923   9.510  0.9386  1.7510 -0.2535
17418SOL     OW59111   6.757   9.626  10.129  0.7945  0.1960  0.0959
17418SOL    HW159112   6.843   9.587  10.117  0.9080  0.4485  0.0731
17418SOL    HW259113   6.765   9.714  10.092  0.6921  0.4175  0.5927
17419SOL     OW59114   1.906   3.130   9.870  0.3080  0.2805 -0.3667
17419SOL    HW159115   1.937   3.161   9.785 -1.9326  0.7999 -1.0760
17419SOL    HW259116   1.872   3.208   9.914 -2.2641 -0.5258 -0.7449
17420SOL     OW59117   9.743   3.984   4.968 -0.3209 -0.4274 -0.1294
17420SOL    HW159118   9.731   4.058   5.027 -1.0357 -0.8388  0.2501
17420SOL    HW259119   9.834   3.990   4.941  0.2027 -0.5701  1.4843
17421SOL     OW59120  10.279   9.641   1.630  0.0256 -0.1079 -0.0306
17421SOL    HW159121  10.208   9.703   1.614  1.2086  0.8170 -2.0170
17421SOL    HW259122  10.351   9.695   1.664  0.1397 -0.8722  0.9928
17422SOL     OW59123   5.270   1.103   7.101 -1.1909  0.3698  0.0154
17422SOL    HW159124   5.320   1.080   7.023 -0.7312 -1.0728  0.6980
17422SOL    HW259125   5.178   1.101   7.072 -0.9405  2.4226 -1.0905
17423SOL     OW59126   1.719   9.781   0.202 -0.3296  0.3218  0.6523
17423SOL    HW159127   1.805   9.778   0.161 -1.0495 -4.0097 -1.0278
17423SOL    HW259128   1.659   9.804   0.131 -0.8395  1.0615  1.2953
17424SOL     OW59129   7.233   9.778   9.878 -0.3389  0.1135 -0.0266
17424SOL    HW159130   7.239   9.870   9.905  1.7637  0.1695 -0.4955
17424SOL    HW259131   7.163   9.776   9.813 -0.1334  1.4720 -0.3081
17425SOL     OW59132   7.301   5.938   8.978  0.0843 -0.3047 -0.3276
17425SOL    HW159133   7.349   5.856   8.979 -1.0187 -0.9640  0.3318
17425SOL    HW259134   7.352   5.995   8.921  2.9582 -0.1577  2.1392
17426SOL     OW59135   0.192   6.311   8.281 -0.2531 -0.5079  0.9120
17426SOL    HW159136   0.134   6.278   8.212  2.3323  0.9497 -2.1827
17426SOL    HW259137   0.134   6.361   8.338 -2.1563  1.1995 -2.1972
17427SOL     OW59138   5.373   3.872   9.217 -0.2258  0.4049 -0.1554
17427SOL    HW159139   5.292   3.923   9.214  0.0745  0.9538  0.8095
17427SOL    HW259140   5.353   3.792   9.168 -1.4114  0.4318  0.2661
17428SOL     OW59141  12.103   8.094   6.776  0.1301  0.1911  0.6482
17428SOL    HW159142  12.142   8.180   6.789  0.4499  0.1310  0.1346
17428SOL    HW259143  12.171   8.033   6.807  0.4411  0.0874 -0.2176
17429SOL     OW59144  12.118   9.202   9.014  0.5620 -0.2055 -0.2633
17429SOL    HW159145  12.028   9.226   9.038  0.5129  0.3221 -0.9454
17429SOL    HW259146  12.165   9.286   9.013  0.8564 -0.3749 -0.7404
17430SOL     OW59147  11.540   0.737   1.984 -0.2093  0.2689  0.5744
17430SOL    HW159148  11.520   0.795   2.057 -1.9458 -2.2491  2.2554
17430SOL    HW259149  11.580   0.660   2.024 -0.5726 -0.9142 -1.1800
17431SOL     OW59150  11.420   6.808  10.463  0.0888  0.4713 -0.3069
17431SOL    HW159151  11.481   6.736  10.446 -0.4889  0.1467 -1.0723
17431SOL    HW259152  11.341   6.784  10.414 -0.1258  1.6109 -0.5456
17432SOL     OW59153   5.934  10.870  11.659 -0.0267 -0.3566 -0.7694
17432SOL    HW159154   5.963  10.825  11.580 -0.9121  0.6117 -1.6789
17432SOL    HW259155   5.846  10.900  11.639 -0.0749  0.3633  0.3988
17433SOL     OW59156   3.911  12.090   8.216 -0.4402  0.0460  0.1518
17433SOL    HW159157   3.832  12.088   8.271 -0.9657 -1.7619 -0.5916
17433SOL    HW259158   3.952  12.174   8.236 -3.6539  2.0597 -0.9432
17434SOL     OW59159   2.507   1.792   9.352  0.1772 -0.1927 -0.0043
17434SOL    HW159160   2.566   1.798   9.277 -1.0095  2.2774 -0.8350
17434SOL    HW259161   2.542   1.854   9.416 -1.1617  0.9450 -0.3142
17435SOL     OW59162   1.882  12.401  12.003  0.4696  0.2187 -0.1210
17435SOL    HW159163   1.789  12.417  11.987  0.5377 -0.1909 -0.9619
17435SOL    HW259164   1.888  12.389  12.098 -0.5333 -0.9867 -0.1785
17436SOL     OW59165   7.274   8.415   6.219  0.4668  0.0198  0.8945
17436SOL    HW159166   7.280   8.483   6.152 -0.3418  0.3384  1.1298
17436SOL    HW259167   7.192   8.368   6.199  0.9575 -0.8233  0.7979
17437SOL     OW59168   6.299   5.737   1.513  0.2090  0.1101  0.4125
17437SOL    HW159169   6.261   5.669   1.569  3.6792 -2.6464 -0.2473
17437SOL    HW259170   6.246   5.736   1.434  0.3322 -2.1878  0.2825
17438SOL     OW59171   9.111   6.586   3.743  0.1155 -0.0449 -0.2048
17438SOL    HW159172   9.071   6.503   3.719 -1.1034  0.7796 -1.1196
17438SOL    HW259173   9.093   6.645   3.669  1.8024  0.7766 -0.0314
17439SOL     OW59174   9.938   0.210   2.896  0.2144 -0.4930 -0.1703
17439SOL    HW159175   9.871   0.142   2.887 -0.6900  0.3430  0.0976
17439SOL    HW259176   9.895   0.290   2.865  1.2485 -0.0283 -0.4446
17440SOL     OW59177  11.475   5.900   3.488  0.5326 -0.1827 -0.4219
17440SOL    HW159178  11.559   5.855   3.479  0.9855  0.6637 -0.5397
17440SOL    HW259179  11.475   5.933   3.577  0.5145  0.1762 -0.5515
17441SOL     OW59180   4.311   5.271   0.444 -0.0080 -0.2222  0.2175
17441SOL    HW159181   4.304   5.233   0.357  0.9701 -0.1553  0.0998
17441SOL    HW259182   4.236   5.331   0.450 -0.3117 -0.5262 -0.4150
17442SOL     OW59183   5.933   7.885   9.261  0.1139  0.5697  0.5649
17442SOL    HW159184   5.871   7.951   9.229 -0.5339 -0.1580  0.2735
17442SOL    HW259185   6.010   7.935   9.288 -0.0836  1.3801 -0.3117
17443SOL     OW59186   8.793  11.461   1.048  0.4189 -0.4361  0.7865
17443SOL    HW159187   8.829  11.466   0.960 -3.0311 -0.2240 -0.7305
17443SOL    HW259188   8.822  11.543   1.090  1.8062 -0.3758 -0.1980
17444SOL     OW59189  12.118   2.773  12.377  0.3356 -0.2246  0.3702
17444SOL    HW159190  12.145   2.836  12.444 -0.0900  0.0121  0.3205
17444SOL    HW259191  12.195   2.717  12.365  1.9237  2.1718 -1.8317
17445SOL     OW59192  10.270  12.459   4.428  0.3031 -0.9361  0.5884
17445SOL    HW159193  10.332  12.531   4.418 -1.3020  0.8161  2.4110
17445SOL    HW259194  10.196  12.483   4.373  0.9281 -2.7330 -1.1329
17446SOL     OW59195   2.110   6.235   5.720 -0.4031 -0.1555 -0.3161
17446SOL    HW159196   2.191   6.207   5.677 -0.2137 -0.6452  0.3288
17446SOL    HW259197   2.046   6.244   5.650 -0.5229 -2.3887 -0.5589
17447SOL     OW59198   2.380   7.414   9.541  0.2749 -0.2725 -0.2595
17447SOL    HW159199   2.369   7.493   9.488 -0.0094  0.5564  1.0023
17447SOL    HW259200   2.307   7.357   9.515  0.0803  0.1631 -0.6760
17448SOL     OW59201   3.405   1.523   2.574  0.3572  0.0395  0.4729
17448SOL    HW159202   3.378   1.582   2.503  0.6548 -0.5318 -0.1222
17448SOL    HW259203   3.478   1.473   2.538 -0.1244 -0.9572  0.8410
17449SOL     OW59204   8.249  10.849   7.270  0.0762  0.5186 -0.2651
17449SOL    HW159205   8.203  10.902   7.335 -1.1507 -1.2038  0.3457
17449SOL    HW259206   8.334  10.829   7.310  0.7052  2.2353 -0.6509
17450SOL     OW59207   9.801   5.758   6.957 -0.3155 -0.4884  0.2492
17450SOL    HW159208   9.735   5.727   6.894 -0.5593  0.0856  0.2120
17450SOL    HW259209   9.860   5.811   6.904  0.6024 -1.5709  0.1457
17451SOL     OW59210   8.340   4.349  11.527 -0.2991 -0.0405  0.3202
17451SOL    HW159211   8.361   4.442  11.519  0.3546 -0.1200  1.0821
17451SOL    HW259212   8.245   4.348  11.540 -0.7050  0.3664 -2.0819
17452SOL     OW59213   8.890   5.830   1.248 -0.3726 -0.3511 -0.0333
17452SOL    HW159214   8.804   5.789   1.258 -1.0424  1.0515  0.1591
17452SOL    HW259215   8.896   5.892   1.321 -0.3574  1.5152 -1.5346
17453SOL     OW59216   4.884   6.980   0.909 -0.0664 -0.2997 -0.2560
17453SOL    HW159217   4.824   7.038   0.862  1.3521  0.4198 -1.2489
17453SOL    HW259218   4.880   7.010   1.000  0.0093  0.8439 -0.6087
17454SOL     OW59219  10.005   2.688  11.517 -0.8410  0.0948  0.2923
17454SOL    HW159220  10.098   2.668  11.508 -0.9860 -1.6782  1.9386
17454SOL    HW259221   9.970   2.683  11.428  0.5578  0.4209 -0.2974
17455SOL     OW59222   3.006   1.738   1.765 -0.3663  0.6418 -0.2997
17455SOL    HW159223   2.996   1.826   1.728  0.7699  0.6707 -0.5512
17455SOL    HW259224   3.027   1.682   1.691  1.1641  0.5640  0.1607
17456SOL     OW59225  11.293   5.536   6.292 -0.0819 -0.5421 -0.7334
17456SOL    HW159226  11.344   5.548   6.372  1.4080 -0.2853 -1.6773
17456SOL    HW259227  11.307   5.445   6.268 -0.7589 -0.6972 -0.5681
17457SOL     OW59228   6.749   2.574   7.513  0.0115 -0.2251 -0.5817
17457SOL    HW159229   6.822   2.596   7.454 -0.6315  0.8405 -1.0113
17457SOL    HW259230   6.672   2.574   7.456 -0.7673  1.7604  0.3920
17458SOL     OW59231  11.162   7.560   7.968  0.4467 -0.3574  0.0126
17458SOL    HW159232  11.180   7.548   8.061  0.7100 -0.6908 -0.0788
17458SOL    HW259233  11.144   7.654   7.959 -1.0054 -0.5469  0.6302
17459SOL     OW59234  10.188   8.078   4.023 -0.6338 -0.7275 -0.2135
17459SOL    HW159235  10.258   8.019   4.053 -0.1596  0.3630  0.9094
17459SOL    HW259236  10.147   8.109   4.104 -0.2650  1.2151 -0.7257
17460SOL     OW59237  11.402   9.306  11.125  0.5175 -0.1029  0.5174
17460SOL    HW159238  11.364   9.232  11.172  1.4879 -0.3567  0.9257
17460SOL    HW259239  11.497   9.292  11.130  0.6606  0.0224 -1.2493
17461SOL     OW59240   6.973   7.781  10.189 -0.2309 -0.0597  0.1287
17461SOL    HW159241   7.022   7.857  10.221 -1.0935  0.6834 -0.2728
17461SOL    HW259242   6.962   7.726  10.266  2.3832 -0.9322 -0.0120
17462SOL     OW59243  12.027   4.072  11.493 -0.6892 -0.4832  0.2212
17462SOL    HW159244  12.050   3.986  11.458 -1.4985 -1.4358  1.9212
17462SOL    HW259245  12.015   4.058  11.587 -1.1473  1.4266  0.4906
17463SOL     OW59246   7.262   4.920  11.360  0.3166  0.0961 -0.3040
17463SOL    HW159247   7.310   4.988  11.313  2.0674 -0.4423  0.5929
17463SOL    HW259248   7.191   4.967  11.404  1.6959  1.4439  0.5821
17464SOL     OW59249   4.753   2.977  10.356  0.3566 -0.0109  0.0673
17464SOL    HW159250   4.778   3.063  10.390 -0.0601  0.8411 -1.6701
17464SOL    HW259251   4.666   2.961  10.394  1.2276 -0.5741  1.9140
17465SOL     OW59252   8.195   6.567   1.103 -0.6919 -0.3301 -0.0949
17465SOL    HW159253   8.121   6.580   1.163 -1.5667 -2.0006 -0.7526
17465SOL    HW259254   8.272   6.591   1.155 -1.6119  0.7769  0.8353
17466SOL     OW59255   4.035   2.625   3.748  0.1223  0.0531 -0.0269
17466SOL    HW159256   4.090   2.611   3.825 -1.1899 -0.0670  0.9317
17466SOL    HW259257   4.026   2.539   3.708  0.7858  0.1101 -0.3082
17467SOL     OW59258   4.889   0.159   5.291 -0.0805 -0.4693  0.3236
17467SOL    HW159259   4.841   0.076   5.296  0.0875 -0.6754 -0.9994
17467SOL    HW259260   4.874   0.189   5.201  0.9568  0.2646  0.3785
17468SOL     OW59261   5.419   0.553   6.132 -0.2171  0.1143 -0.0975
17468SOL    HW159262   5.340   0.521   6.088 -0.3490  1.9308 -1.3326
17468SOL    HW259263   5.463   0.474   6.163 -2.8831 -0.9419  1.3684
17469SOL     OW59264   2.679   7.433   3.576  0.5599 -0.5032  0.5111
17469SOL    HW159265   2.615   7.496   3.608  1.2857 -0.2996  1.6274
17469SOL    HW259266   2.733   7.413   3.652  3.4306  1.2344 -0.8633
17470SOL     OW59267   5.593   5.498   7.336 -0.5827  0.1053  0.5208
17470SOL    HW159268   5.680   5.517   7.370  0.1642 -1.8382 -0.2148
17470SOL    HW259269   5.554   5.439   7.400 -1.8553  1.8347  1.4295
17471SOL     OW59270   0.412   8.478   6.102  0.2737  0.8629  0.2608
17471SOL    HW159271   0.488   8.421   6.111 -0.3084  0.2711  1.7922
17471SOL    HW259272   0.447   8.566   6.115  1.3927  1.0965 -3.3042
17472SOL     OW59273   8.610   7.839   3.392  0.3457 -0.1515  0.4022
17472SOL    HW159274   8.545   7.774   3.418 -0.5956  1.1638  1.4627
17472SOL    HW259275   8.577   7.873   3.308  0.9264 -1.1070 -0.2394
17473SOL     OW59276   1.642   7.074   3.733 -0.2046  0.4747  0.0175
17473SOL    HW159277   1.719   7.129   3.746 -0.4981  0.8901  0.0165
17473SOL    HW259278   1.574   7.134   3.705 -0.7517  0.2284  0.7814
17474SOL     OW59279  10.349   8.319   6.239 -0.1165  0.7671  0.0609
17474SOL    HW159280  10.336   8.270   6.320  0.1848 -0.4832 -0.6111
17474SOL    HW259281  10.388   8.255   6.179  1.5771  2.1813 -0.4470
17475SOL     OW59282   7.108   7.806   8.639  0.1958  1.0394  0.5098
17475SOL    HW159283   7.055   7.806   8.559 -0.0476  0.8306  0.6657
17475SOL    HW259284   7.045   7.784   8.708  0.5761  0.2811  0.6305
17476SOL     OW59285   2.707   4.795   9.805 -0.2485  0.2334  0.2958
17476SOL    HW159286   2.691   4.844   9.886 -1.3823  0.1204  0.1591
17476SOL    HW259287   2.727   4.862   9.740  1.8249  0.2579  0.8928
17477SOL     OW59288   3.728   6.514   0.523 -0.0612 -0.3543  0.4388
17477SOL    HW159289   3.745   6.498   0.615  2.0921 -2.7650 -0.2529
17477SOL    HW259290   3.764   6.602   0.507  0.7239 -0.4367  1.6341
17478SOL     OW59291   9.277   8.811   2.745  0.4274 -0.4516  0.2212
17478SOL    HW159292   9.283   8.888   2.801 -1.5436 -0.1900  0.1671
17478SOL    HW259293   9.204   8.830   2.686  1.4862 -1.3636 -1.4441
17479SOL     OW59294   7.428   3.550   4.119  0.1046  0.5105  0.1972
17479SOL    HW159295   7.435   3.480   4.183  0.1526 -0.3504 -0.7229
17479SOL    HW259296   7.442   3.631   4.169  1.9814 -0.2389  0.9444
17480SOL     OW59297   7.711   3.930   1.052 -0.3397 -0.2165  0.6402
17480SOL    HW159298   7.666   3.991   1.111 -0.1560  0.6206 -0.0601
17480SOL    HW259299   7.721   3.979   0.970  0.9790 -0.7157  0.4750
17481SOL     OW59300   9.336   4.121   2.903  0.2337 -0.2081  0.4807
17481SOL    HW159301   9.274   4.191   2.923  0.6971  1.8279 -4.0334
17481SOL    HW259302   9.281   4.045   2.884 -0.5878  0.3458  0.5891
17482SOL     OW59303   9.909   4.027   4.131 -0.1894 -0.0524  0.0215
17482SOL    HW159304   9.816   4.043   4.117 -0.1888  0.3332  0.4591
17482SOL    HW259305   9.943   4.007   4.043 -0.5870  0.2802 -0.2122
17483SOL     OW59306   6.626   3.117   3.401 -0.3100 -0.1722 -0.2323
17483SOL    HW159307   6.683   3.178   3.446 -0.1296  0.6695 -1.5500
17483SOL    HW259308   6.664   3.108   3.314 -2.6204  1.1339 -1.4748
17484SOL     OW59309   6.166   8.538   7.009  0.3595  0.5148 -0.2292
17484SOL    HW159310   6.224   8.551   7.084  0.2082 -1.3048  0.2503
17484SOL    HW259311   6.105   8.470   7.037  1.3665 -1.4782 -2.5487
17485SOL     OW59312   6.485   6.998  11.221 -0.2164 -0.4231 -0.0873
17485SOL    HW159313   6.453   7.087  11.238  0.4412 -0.5055  1.8025
17485SOL    HW259314   6.529   7.004  11.136  0.3842  1.2232  0.3016
17486SOL     OW59315   3.825  10.350   7.685  0.1469 -0.7040  0.8165
17486SOL    HW159316   3.788  10.375   7.770 -0.0960  0.4081  0.4065
17486SOL    HW259317   3.750  10.318   7.635  0.1107 -0.4496  0.7043
17487SOL     OW59318   9.461  12.391   8.761 -0.1165  0.2243  0.2830
17487SOL    HW159319   9.457  12.309   8.712 -1.8341  1.1192 -1.1791
17487SOL    HW259320   9.538  12.436   8.726  0.7020 -0.6173  0.9353
17488SOL     OW59321   3.650  10.057   4.147  0.0288  0.2693 -0.0833
17488SOL    HW159322   3.686   9.977   4.185 -0.8439 -0.6329 -1.0722
17488SOL    HW259323   3.646  10.038   4.053 -0.9302  1.1808 -0.2353
17489SOL     OW59324   9.348   1.833   8.328  0.3592 -0.3672 -0.2857
17489SOL    HW159325   9.384   1.902   8.384 -0.1942 -1.3051  1.2911
17489SOL    HW259326   9.255   1.829   8.351  0.6014 -2.4136  0.5716
17490SOL     OW59327   8.898   4.708   0.952  0.5871  0.1928 -0.3983
17490SOL    HW159328   8.954   4.635   0.977 -1.3503 -1.6291 -1.0866
17490SOL    HW259329   8.915   4.720   0.859  0.0687 -0.1598 -0.5398
17491SOL     OW59330  11.955   3.587   9.374  0.1619 -0.0440 -0.1964
17491SOL    HW159331  11.879   3.549   9.418 -1.2167  0.7749 -1.8061
17491SOL    HW259332  12.021   3.517   9.377 -1.3600 -1.5627 -0.6543
17492SOL     OW59333   0.765   6.868   2.260  0.5401 -0.2940 -0.0603
17492SOL    HW159334   0.675   6.897   2.246  0.2000 -1.1882  0.2446
17492SOL    HW259335   0.762   6.773   2.254  1.3106 -0.3895  0.7622
17493SOL     OW59336  11.430   6.397  10.184  0.0796  0.3708  0.4846
17493SOL    HW159337  11.381   6.342  10.245 -0.2681  1.2259  0.9869
17493SOL    HW259338  11.477   6.335  10.129  1.0496 -0.4280  2.1291
17494SOL     OW59339   8.429   9.792  11.928  0.4164 -0.1897  0.7147
17494SOL    HW159340   8.467   9.877  11.949  0.7358 -0.1392 -0.0402
17494SOL    HW259341   8.414   9.796  11.834 -0.6793 -0.5227  0.8604
17495SOL     OW59342   0.745   5.767  11.355  0.0132 -0.5507 -0.1440
17495SOL    HW159343   0.692   5.688  11.366 -1.9894  0.6845 -0.5076
17495SOL    HW259344   0.682   5.839  11.352  1.8305  1.2171  1.2601
17496SOL     OW59345   1.146   0.416   4.825 -0.3152  0.6250 -0.0042
17496SOL    HW159346   1.146   0.407   4.729 -2.1004  1.3847 -0.1076
17496SOL    HW259347   1.055   0.401   4.851  0.0852  0.7150  1.5576
17497SOL     OW59348   6.891   9.526   8.901  0.3273 -0.2446 -0.2022
17497SOL    HW159349   6.853   9.440   8.919 -0.1449 -0.0609 -0.3132
17497SOL    HW259350   6.926   9.519   8.812 -1.4719  0.2785 -0.9824
17498SOL     OW59351   1.103   7.733  10.031  0.1355  0.0931  0.1280
17498SOL    HW159352   1.198   7.721  10.028 -0.1061 -2.0062 -0.8909
17498SOL    HW259353   1.068   7.653   9.992 -2.0431  1.1826 -0.2578
17499SOL     OW59354   1.619   7.322   1.667 -0.3027  0.7306  0.0655
17499SOL    HW159355   1.583   7.336   1.579  0.4491  1.1656 -0.1852
17499SOL    HW259356   1.707   7.287   1.652 -0.3178  0.4273  0.6528
17500SOL     OW59357   2.558   8.686  12.404  0.0578  0.1464 -0.3553
17500SOL    HW159358   2.653   8.691  12.393 -0.0421  0.2727 -1.1936
17500SOL    HW259359   2.523   8.684  12.315 -0.7860  1.2015 -0.0694
17501SOL     OW59360   9.034   3.692  12.307 -0.6427  0.0632 -0.1670
17501SOL    HW159361   9.009   3.779  12.274 -0.6145 -0.3488 -1.3046
17501SOL    HW259362   8.975   3.632  12.263 -0.0483 -0.5825 -0.0970
17502SOL     OW59363  12.336   3.046  10.925  0.0243 -0.0970 -0.0695
17502SOL    HW159364  12.371   3.112  10.865 -0.5780 -0.9307 -1.3874
17502SOL    HW259365  12.248   3.077  10.946 -0.4648 -0.7183 -1.1223
17503SOL     OW59366   0.087   1.700   1.717  1.0036  0.5782 -0.5019
17503SOL    HW159367   0.167   1.653   1.742  1.5518  0.7282 -1.9167
17503SOL    HW259368   0.077   1.767   1.785  1.5192 -0.0715  0.2338
17504SOL     OW59369   4.231   5.939   2.867 -0.1360 -0.1419  0.2017
17504SOL    HW159370   4.288   6.016   2.868  0.1938 -0.0442 -4.3376
17504SOL    HW259371   4.143   5.974   2.884  0.0126  1.3317 -1.6979
17505SOL     OW59372   1.149   3.042   9.380 -0.7119  0.3020  0.1615
17505SOL    HW159373   1.122   3.124   9.420 -1.1316  0.7383 -0.9751
17505SOL    HW259374   1.180   2.989   9.453  0.3346  1.7568  0.8420
17506SOL     OW59375   5.451   4.403   6.182  0.6642  0.2086  0.8958
17506SOL    HW159376   5.474   4.318   6.221 -2.5437 -0.7262  1.0464
17506SOL    HW259377   5.392   4.443   6.245 -2.8208 -0.2978 -1.7731
17507SOL     OW59378   0.151  10.484   3.503  0.1215 -0.1403 -0.1246
17507SOL    HW159379   0.208  10.453   3.573 -0.3937 -1.6786 -0.3462
17507SOL    HW259380   0.062  10.477   3.539 -0.3127 -2.7413 -1.4848
17508SOL     OW59381  10.316   4.777   5.413 -0.0186  0.2279 -0.3654
17508SOL    HW159382  10.380   4.708   5.433 -1.2886 -1.6408 -2.3576
17508SOL    HW259383  10.231   4.736   5.429 -0.8199  1.2917 -1.7375
17509SOL     OW59384   2.144   3.890  10.713 -0.1279  0.5221  0.7384
17509SOL    HW159385   2.092   3.969  10.729 -1.9999 -0.7694  1.3987
17509SOL    HW259386   2.090   3.837  10.655  1.2560 -0.1431  0.0086
17510SOL     OW59387  11.459   7.243   8.162  0.6184  0.2746  0.9195
17510SOL    HW159388  11.452   7.152   8.193 -0.1087  0.2348  0.6744
17510SOL    HW259389  11.370   7.277   8.168  0.4643  0.3246 -0.9200
17511SOL     OW59390   1.266  10.572   0.850  0.4615  0.4599  0.0008
17511SOL    HW159391   1.236  10.533   0.932 -1.7688 -0.8089 -1.3132
17511SOL    HW259392   1.340  10.517   0.823 -0.0587 -0.3599  0.2033
17512SOL     OW59393   0.288   6.037  12.571  0.1797 -0.1575  0.3599
17512SOL    HW159394   0.326   6.100  12.510 -0.1092  0.4732  0.8197
17512SOL    HW259395   0.200   6.070  12.588 -0.1437 -0.9394  0.2524
17513SOL     OW59396   8.279  11.642   8.938  0.1862 -0.4334  0.1866
17513SOL    HW159397   8.267  11.736   8.951 -0.7079 -0.7158  1.4649
17513SOL    HW259398   8.263  11.603   9.023  3.4896 -1.5241  0.4525
17514SOL     OW59399   4.457  12.546   4.561  0.5339 -0.2246 -0.3854
17514SOL    HW159400   4.477  12.510   4.647 -0.5147 -1.1557 -0.5013
17514SOL    HW259401   4.445  12.640   4.576 -0.2573 -0.4667  0.6027
17515SOL     OW59402   3.913   6.572   1.735  0.0220 -0.7138 -0.0272
17515SOL    HW159403   3.953   6.616   1.661 -1.7265  2.1004  0.5617
17515SOL    HW259404   3.824   6.549   1.705 -0.0182 -1.3872  0.5708
17516SOL     OW59405   4.564   3.596   1.382  0.1558 -0.2124  0.3290
17516SOL    HW159406   4.633   3.643   1.335 -0.8257  0.5215 -0.4313
17516SOL    HW259407   4.547   3.649   1.459  0.3202 -0.3119  0.4357
17517SOL     OW59408   2.888   5.697  10.097  0.3970  0.4373  0.3288
17517SOL    HW159409   2.886   5.791  10.077  1.5262  0.3244 -0.4432
17517SOL    HW259410   2.937   5.659  10.024 -0.6947 -0.8603  0.2515
17518SOL     OW59411   7.910   0.517   8.260 -0.5976 -0.0451 -0.5114
17518SOL    HW159412   7.956   0.463   8.196  0.3747 -0.0328  0.1549
17518SOL    HW259413   7.965   0.594   8.270  0.4402 -0.9991  1.9104
17519SOL     OW59414   4.987  10.538   1.262  0.1501  0.1929 -0.8390
17519SOL    HW159415   5.082  10.537   1.256  0.4482  3.1655  1.3746
17519SOL    HW259416   4.966  10.481   1.336  0.4317  1.0536 -0.0731
17520SOL     OW59417   2.095   1.286  12.247 -0.1822 -0.7247  0.1561
17520SOL    HW159418   2.138   1.214  12.293  0.0693  0.7518  2.4561
17520SOL    HW259419   2.009   1.293  12.288 -0.3319  0.0397 -0.2585
17521SOL     OW59420   4.870   9.990  12.382  0.5676 -0.2840 -0.6662
17521SOL    HW159421   4.839   9.946  12.461  1.1133 -0.9204 -0.7937
17521SOL    HW259422   4.842   9.932  12.310  2.3492 -1.0914 -0.7598
17522SOL     OW59423   5.959   8.330   3.163 -0.3414 -0.6136 -0.2863
17522SOL    HW159424   6.031   8.271   3.181 -0.8573 -1.7994 -1.9066
17522SOL    HW259425   5.894   8.311   3.231  0.5074 -0.0723  0.7140
17523SOL     OW59426   9.700   1.559  10.874 -0.4066 -0.3507  0.7911
17523SOL    HW159427   9.615   1.514  10.876 -0.0470 -1.0580  0.1678
17523SOL    HW259428   9.763   1.493  10.900  0.1361 -0.2450 -0.2200
17524SOL     OW59429  12.422   5.259   0.711 -0.1708 -0.5386  0.1724
17524SOL    HW159430  12.414   5.205   0.633 -2.0477  0.4863 -0.4079
17524SOL    HW259431  12.379   5.342   0.687  1.7797  0.9004  1.3186
17525SOL     OW59432   5.633   7.399   1.791  0.7456  0.0913 -0.2202
17525SOL    HW159433   5.625   7.493   1.773 -0.2030  0.2039  0.6445
17525SOL    HW259434   5.662   7.395   1.882 -0.0068 -0.4478  0.0075
17526SOL     OW59435   1.999  10.167   7.252 -0.2226 -0.1808  0.1535
17526SOL    HW159436   1.987  10.199   7.342 -2.1476 -0.5606  0.0812
17526SOL    HW259437   1.992  10.246   7.198 -0.5828 -0.1388  0.2553
17527SOL     OW59438   1.963   5.850   8.255 -0.3405 -0.2302 -0.2447
17527SOL    HW159439   1.889   5.790   8.262 -0.3978 -0.0722  0.5888
17527SOL    HW259440   1.997   5.857   8.344  2.0850 -2.0612 -0.9164
17528SOL     OW59441   9.635   8.712   2.853 -0.2954 -0.4126  0.0489
17528SOL    HW159442   9.627   8.749   2.764 -1.0700 -0.8950 -0.0870
17528SOL    HW259443   9.702   8.767   2.895 -0.2296  0.0964 -0.6914
17529SOL     OW59444   3.984   4.960   7.481  0.1209  0.2298 -0.5391
17529SOL    HW159445   3.943   4.882   7.520  2.8453 -1.0662  0.0061
17529SOL    HW259446   3.962   4.954   7.388 -0.3699 -0.7556 -0.3790
17530SOL     OW59447  12.392  10.117   8.310 -0.0005 -0.2188 -0.0439
17530SOL    HW159448  12.346  10.168   8.244 -1.0354 -0.3241  0.5762
17530SOL    HW259449  12.347  10.033   8.312 -1.2243  0.4065  2.0631
17531SOL     OW59450   1.163   4.847  12.426 -0.1019 -0.0069  0.3980
17531SOL    HW159451   1.120   4.811  12.503  0.6333  0.9554  1.2783
17531SOL    HW259452   1.107   4.821  12.353 -1.1583 -0.3797  1.3156
17532SOL     OW59453   0.604   2.947   1.307 -0.4167 -0.1619  0.9124
17532SOL    HW159454   0.512   2.931   1.287  0.0627  0.5392 -2.4640
17532SOL    HW259455   0.632   2.871   1.358 -2.0104 -2.3019 -1.1812
17533SOL     OW59456   4.276  12.469   7.353 -0.3052 -0.2457  0.2269
17533SOL    HW159457   4.345  12.417   7.393  1.1644  0.1410 -1.6246
17533SOL    HW259458   4.292  12.462   7.259 -2.2235  0.6556 -0.2245
17534SOL     OW59459   2.318   4.308   5.470 -0.2270 -0.3135  0.2678
17534SOL    HW159460   2.330   4.319   5.564 -1.2391  1.0419  0.2702
17534SOL    HW259461   2.391   4.356   5.430 -1.1066  1.2149  0.3774
17535SOL     OW59462   3.732   5.103   7.845 -0.4479 -0.2157 -0.1871
17535SOL    HW159463   3.684   5.179   7.877 -0.6495 -0.8231  1.0192
17535SOL    HW259464   3.806   5.141   7.797 -0.0977  0.7675  1.0609
17536SOL     OW59465   2.964   6.629   7.911  0.3916 -0.1498  0.0512
17536SOL    HW159466   2.933   6.558   7.968 -2.0388  1.4159  0.8377
17536SOL    HW259467   2.979   6.702   7.971  0.4453  0.7424 -1.0345
17537SOL     OW59468   2.698   1.169   2.723  0.0258  0.0428 -0.2048
17537SOL    HW159469   2.650   1.252   2.727  0.6981  0.3990  0.7763
17537SOL    HW259470   2.717   1.156   2.630 -1.3349  0.2541 -0.5284
17538SOL     OW59471   7.373   6.878   3.575  0.4902  0.3265  0.1783
17538SOL    HW159472   7.419   6.798   3.550  1.0459  0.6377  0.1824
17538SOL    HW259473   7.286   6.849   3.603 -0.3700  0.0259 -2.5954
17539SOL     OW59474   2.607   8.766   5.010  0.1128  0.0943  0.1295
17539SOL    HW159475   2.602   8.831   5.080  0.5526  0.9083 -0.5732
17539SOL    HW259476   2.568   8.810   4.934 -0.8922 -0.9839  0.0032
17540SOL     OW59477   4.862   4.756   2.739 -0.4664 -0.0182 -0.3991
17540SOL    HW159478   4.949   4.774   2.774 -0.1336  0.1905 -1.2935
17540SOL    HW259479   4.851   4.661   2.751 -0.9369  0.2468  1.4844
17541SOL     OW59480   4.485   7.660   9.249  0.0287  0.3545 -0.3823
17541SOL    HW159481   4.405   7.702   9.282  0.7363  0.7017  0.9728
17541SOL    HW259482   4.544   7.657   9.325  0.7817 -1.2057 -0.9686
17542SOL     OW59483  11.037   6.892  12.052  1.0543  0.2366 -0.0893
17542SOL    HW159484  10.988   6.936  12.121  1.9614 -2.9142  2.8436
17542SOL    HW259485  10.970   6.867  11.988 -0.7404 -0.9337  2.0791
17543SOL     OW59486   7.476  10.654   6.457 -0.7208  0.3062 -0.3039
17543SOL    HW159487   7.448  10.716   6.524  0.0394 -0.5411  0.8325
17543SOL    HW259488   7.493  10.708   6.380  0.3943  1.5835  0.7944
17544SOL     OW59489   9.397   5.031   0.124  0.4258 -0.1921 -0.0649
17544SOL    HW159490   9.304   5.037   0.103  0.0445  1.4178  1.8187
17544SOL    HW259491   9.431   4.966   0.062 -1.2931  1.3637 -2.8538
17545SOL     OW59492  10.626   5.324   5.165  0.2664  0.4630 -0.2076
17545SOL    HW159493  10.649   5.325   5.072  0.0601  1.7787 -0.2621
17545SOL    HW259494  10.534   5.351   5.168  0.2250  0.2738  0.3648
17546SOL     OW59495   4.529   8.565   4.927  0.5523 -0.1908  0.0448
17546SOL    HW159496   4.498   8.482   4.893  0.1264 -0.1398  0.3079
17546SOL    HW259497   4.600   8.590   4.868  0.7539 -0.7891  0.0293
17547SOL     OW59498   9.874   7.552   0.267 -0.1207 -0.4277 -0.3678
17547SOL    HW159499   9.892   7.468   0.310  3.5981  0.1833 -0.4095
17547SOL    HW259500   9.875   7.616   0.338 -2.6001 -0.2468 -0.3868
17548SOL     OW59501   8.884   6.152   4.821  0.1949  0.0393  0.2990
17548SOL    HW159502   8.878   6.243   4.791 -0.4135  0.3228  1.2657
17548SOL    HW259503   8.822   6.105   4.766  0.5437  0.1865 -0.2365
17549SOL     OW59504   4.095   5.133   0.048  0.0469 -0.1273 -0.2717
17549SOL    HW159505   4.061   5.081   0.121 -1.3362 -0.0262 -0.8138
17549SOL    HW259506   4.049   5.099  -0.029  1.0942  0.1175 -1.0265
17550SOL     OW59507   3.007  11.772   6.445  0.2645  0.0403  0.2527
17550SOL    HW159508   2.960  11.839   6.493 -1.1533 -2.1546  2.1838
17550SOL    HW259509   3.059  11.727   6.512  0.0530 -1.6611 -0.6672
17551SOL     OW59510   5.915   1.579   5.771 -0.3117  0.1297  0.4595
17551SOL    HW159511   5.950   1.498   5.809 -1.0399 -0.1100  0.6384
17551SOL    HW259512   5.871   1.550   5.691  0.3717  0.5032 -0.0559
17552SOL     OW59513  11.471   4.894   0.725  0.1329  0.0999 -0.7523
17552SOL    HW159514  11.428   4.945   0.793 -1.5137 -0.4241 -1.3487
17552SOL    HW259515  11.501   4.959   0.661  1.6958  0.5945  0.4073
17553SOL     OW59516   5.284   9.561   2.780 -0.4256  0.1175 -0.1504
17553SOL    HW159517   5.363   9.594   2.823 -0.5174 -0.0604  0.1562
17553SOL    HW259518   5.281   9.607   2.696 -0.3638  0.6313  0.1287
17554SOL     OW59519  10.192   8.643   2.365 -0.4427 -0.2027 -0.0754
17554SOL    HW159520  10.244   8.587   2.307  1.1286  1.2598 -0.1673
17554SOL    HW259521  10.103   8.637   2.330 -0.1075 -1.6734 -0.7890
17555SOL     OW59522   9.119   0.914   1.579  0.0083 -0.1966  0.6812
17555SOL    HW159523   9.028   0.919   1.610 -1.1994  2.1134 -2.6376
17555SOL    HW259524   9.164   0.985   1.625 -1.3374  2.1226 -1.3021
17556SOL     OW59525   1.509   3.475   2.354 -0.5939  0.6046 -0.3615
17556SOL    HW159526   1.558   3.407   2.401 -2.0227 -0.5130 -0.4019
17556SOL    HW259527   1.543   3.471   2.264 -0.9843 -0.4222 -0.4828
17557SOL     OW59528   0.090   9.801   7.201  0.5875  0.2621  0.3664
17557SOL    HW159529   0.050   9.883   7.170 -0.8415 -0.3481  0.4972
17557SOL    HW259530   0.071   9.800   7.295  1.5058  0.2606  0.5560
17558SOL     OW59531  12.169  12.301  12.092 -0.0310 -0.2464 -0.1437
17558SOL    HW159532  12.225  12.373  12.065  0.1237 -1.0585 -2.1718
17558SOL    HW259533  12.105  12.292  12.021 -2.6176  0.4603  1.9598
17559SOL     OW59534   6.358   0.593   7.669  0.2382 -0.2504 -0.4974
17559SOL    HW159535   6.297   0.562   7.602  0.6451 -0.0408 -0.9787
17559SOL    HW259536   6.429   0.528   7.668  1.1417  0.6943 -1.5727
17560SOL     OW59537   1.661   4.578  11.109 -0.0214 -0.0068  0.4758
17560SOL    HW159538   1.666   4.580  11.013  2.2011 -0.7907  0.5244
17560SOL    HW259539   1.569   4.557  11.127  0.1406 -3.2165 -1.5924
17561SOL     OW59540   9.431   8.885  11.262 -0.1794 -0.5271  0.2385
17561SOL    HW159541   9.372   8.823  11.305 -2.0555  0.3713 -0.8893
17561SOL    HW259542   9.519   8.854  11.283 -1.0448 -2.3127  1.4536
17562SOL     OW59543   6.949   5.570   0.575 -0.1787 -0.0184  0.1907
17562SOL    HW159544   6.967   5.558   0.482 -0.7622  1.6275 -0.1577
17562SOL    HW259545   6.928   5.482   0.606  3.6653 -1.3504 -0.3624
17563SOL     OW59546  10.682   8.607  11.840 -0.1933 -0.2873 -0.1086
17563SOL    HW159547  10.692   8.642  11.751 -1.3717 -2.9486 -1.4311
17563SOL    HW259548  10.601   8.647  11.873 -0.2175  0.0634 -0.5867
17564SOL     OW59549   4.313  10.053  10.938 -0.2171 -0.1621 -0.2907
17564SOL    HW159550   4.320  10.112  11.013 -0.2543  0.7334 -0.9759
17564SOL    HW259551   4.221  10.058  10.912 -0.1264 -0.1773 -0.6228
17565SOL     OW59552   6.362  12.179   0.642 -0.0329 -0.2124 -0.5133
17565SOL    HW159553   6.395  12.191   0.553 -1.9436  0.9954 -1.1336
17565SOL    HW259554   6.313  12.096   0.639 -0.1435 -0.1437 -0.6183
17566SOL     OW59555   6.375   8.447   2.732 -0.2109  0.3452  0.3553
17566SOL    HW159556   6.283   8.435   2.709  0.1574  0.6040 -1.3155
17566SOL    HW259557   6.400   8.364   2.773 -0.4715 -0.8049 -1.7098
17567SOL     OW59558   6.147  11.730   7.354  0.0902 -0.0516 -0.1400
17567SOL    HW159559   6.200  11.784   7.412 -1.4932  2.0958 -0.5653
17567SOL    HW259560   6.201  11.653   7.336  1.4129  0.1630  2.5312
17568SOL     OW59561   0.538  10.045   1.360 -0.3874  0.1214 -0.1510
17568SOL    HW159562   0.628  10.075   1.350 -1.0012  1.6095 -1.6454
17568SOL    HW259563   0.518  10.062   1.452  1.2708 -1.6191  0.6177
17569SOL     OW59564   0.774  12.569   0.439  0.1755 -0.1434  0.1189
17569SOL    HW159565   0.847  12.558   0.379  0.8720 -0.0174  0.9334
17569SOL    HW259566   0.736  12.481   0.447 -0.7775  0.0685 -1.5309
17570SOL     OW59567  10.256   7.774   2.805  0.0550  0.5347 -0.3140
17570SOL    HW159568  10.241   7.681   2.823 -0.1509  0.8792  1.4120
17570SOL    HW259569  10.205   7.820   2.870  1.2020  1.8528 -0.2958
17571SOL     OW59570   8.322   5.250  11.112 -0.4764  0.0781  0.1014
17571SOL    HW159571   8.397   5.296  11.074 -0.1073  0.2716  1.0424
17571SOL    HW259572   8.246   5.294  11.075 -0.1378  1.4949  1.0180
17572SOL     OW59573   9.462   4.312   8.474 -0.1223  0.1094  0.2139
17572SOL    HW159574   9.461   4.217   8.460 -0.7029  0.0681  0.5120
17572SOL    HW259575   9.374   4.332   8.503 -0.9811  1.1838 -2.7824
17573SOL     OW59576   6.772   3.658   2.150  0.5008 -0.0988 -0.1591
17573SOL    HW159577   6.826   3.722   2.197  0.6161  0.1068 -0.5717
17573SOL    HW259578   6.827   3.579   2.146  0.3153 -0.2612  0.4469
17574SOL     OW59579   6.575   5.132   3.709 -0.1027  0.2911  0.3064
17574SOL    HW159580   6.589   5.193   3.637  0.0685  2.0281  1.7397
17574SOL    HW259581   6.660   5.091   3.724  0.3822  1.4540  0.8266
17575SOL     OW59582   2.506   9.977   6.954 -0.2216 -0.2040 -0.2945
17575SOL    HW159583   2.469  10.051   7.001  0.5565 -0.0328  0.0630
17575SOL    HW259584   2.579   9.948   7.008  1.7182  1.0034 -2.1245
17576SOL     OW59585   2.173   5.821   8.078  0.1388 -0.2285 -0.0620
17576SOL    HW159586   2.103   5.860   8.130  1.3201  2.2590 -0.1762
17576SOL    HW259587   2.161   5.859   7.990  1.7046  0.4374 -0.0246
17577SOL     OW59588   9.738   1.182   8.728 -0.4002 -0.3122 -0.1165
17577SOL    HW159589   9.829   1.169   8.703 -1.0619 -0.5086 -2.8175
17577SOL    HW259590   9.703   1.241   8.660 -2.5378 -1.1315  0.1848
17578SOL     OW59591   2.720   5.650  11.832  0.3121  0.4745  0.0504
17578SOL    HW159592   2.792   5.611  11.782 -0.0601  0.3425 -0.3879
17578SOL    HW259593   2.647   5.653  11.770  0.0950  1.0975  0.3335
17579SOL     OW59594  12.406   5.221   3.480  0.3272  0.7614  0.1104
17579SOL    HW159595  12.497   5.191   3.474  0.9621  2.6888 -0.3303
17579SOL    HW259596  12.387   5.258   3.394 -1.1666 -0.2721 -0.0642
17580SOL     OW59597   8.191   4.717   2.073  0.1552  0.5801  0.3447
17580SOL    HW159598   8.233   4.674   2.147  2.0617 -0.6499 -1.3476
17580SOL    HW259599   8.246   4.696   1.998 -0.6687  3.2648 -1.1767
17581SOL     OW59600   7.181   5.569   6.180  0.3688 -0.2238  0.0431
17581SOL    HW159601   7.136   5.485   6.185 -2.5965  1.1839 -0.6899
17581SOL    HW259602   7.165   5.600   6.092  0.6817  1.4891  0.5537
17582SOL     OW59603   8.972   2.334   1.815  0.2635 -0.2121  0.0664
17582SOL    HW159604   9.067   2.340   1.802  0.0469  0.2173 -1.5152
17582SOL    HW259605   8.940   2.422   1.796 -0.6314 -0.7930 -1.1801
17583SOL     OW59606   1.531   1.665   1.667 -0.1987  0.1280  0.4300
17583SOL    HW159607   1.529   1.755   1.700 -1.4156  0.8009 -1.3204
17583SOL    HW259608   1.439   1.639   1.663  0.1659 -1.6073  1.8180
17584SOL     OW59609   9.660   7.534   1.984  0.6655 -0.6073  0.4303
17584SOL    HW159610   9.610   7.616   1.989  0.3382 -0.8836  2.9886
17584SOL    HW259611   9.752   7.561   1.988  0.6235 -0.2908 -0.5785
17585SOL     OW59612   9.789   9.843  10.932 -0.1233 -0.1840  0.4481
17585SOL    HW159613   9.764   9.930  10.899  0.7562 -0.1772 -0.2535
17585SOL    HW259614   9.822   9.797  10.855 -0.1449 -0.9828  0.9061
17586SOL     OW59615  11.833   3.462   0.984 -0.8012  0.2745 -0.0977
17586SOL    HW159616  11.881   3.544   0.996 -0.3629 -0.1348  1.1396
17586SOL    HW259617  11.749   3.476   1.029 -0.3010 -0.3045  1.0403
17587SOL     OW59618   8.694   8.651  11.771  0.0726 -0.7478 -0.0636
17587SOL    HW159619   8.720   8.696  11.691 -1.8621 -0.2982 -0.4910
17587SOL    HW259620   8.664   8.721  11.830  0.1791 -1.1947  0.5323
17588SOL     OW59621   5.124  11.323   4.710 -0.1362 -0.0629  0.2493
17588SOL    HW159622   5.213  11.350   4.729  0.2814 -1.5306  0.5277
17588SOL    HW259623   5.082  11.317   4.796  0.0617 -1.1815  0.2789
17589SOL     OW59624   3.245   7.485   9.399  0.1183  0.0883 -0.3825
17589SOL    HW159625   3.261   7.558   9.458 -0.2806 -0.3755  0.3064
17589SOL    HW259626   3.240   7.408   9.455  0.6146 -0.4915 -1.1079
17590SOL     OW59627   0.333   3.983   5.152 -1.2064 -0.2511  0.1713
17590SOL    HW159628   0.249   4.010   5.188 -1.2895 -0.7228  0.3381
17590SOL    HW259629   0.370   4.063   5.115 -2.3823 -0.3076 -1.2308
17591SOL     OW59630   2.502   8.398  11.329  0.0111 -0.5361  0.1102
17591SOL    HW159631   2.441   8.447  11.384  0.4352 -2.0714  2.0759
17591SOL    HW259632   2.469   8.308  11.330  0.9233 -0.9055 -0.8767
17592SOL     OW59633   6.086   8.549   5.492 -0.5321  0.3979  0.0384
17592SOL    HW159634   6.001   8.588   5.472 -0.1052  1.4331  0.1931
17592SOL    HW259635   6.123   8.526   5.407 -0.6905  0.5360 -0.0679
17593SOL     OW59636   7.110   3.041  10.216  0.4101 -0.0785 -0.2192
17593SOL    HW159637   7.021   3.062  10.188  0.6603  0.8972 -0.3118
17593SOL    HW259638   7.152   3.005  10.138  0.5241  0.8037 -0.5661
17594SOL     OW59639   6.645   4.863  10.083 -0.0751 -0.2124  0.1157
17594SOL    HW159640   6.593   4.942  10.064 -0.3613 -1.0088 -2.9731
17594SOL    HW259641   6.724   4.896  10.124 -0.3623  1.6972 -0.7363
17595SOL     OW59642   4.569   9.343   1.093 -0.3814  0.1650  0.2578
17595SOL    HW159643   4.601   9.355   1.003 -0.0528  0.9642  0.4648
17595SOL    HW259644   4.646   9.315   1.142 -0.8792 -1.7105  0.0274
17596SOL     OW59645  10.714   9.044   8.238  0.1254  0.2139  0.3249
17596SOL    HW159646  10.779   9.110   8.262  1.1003 -0.7324  0.3578
17596SOL    HW259647  10.717   8.979   8.308  0.7672 -0.9829 -0.7568
17597SOL     OW59648   1.779   2.088   7.640 -0.3836  0.7790 -0.2009
17597SOL    HW159649   1.837   2.045   7.577  2.6202  1.1033  2.0809
17597SOL    HW259650   1.772   2.178   7.610  0.3542  0.7382 -0.5071
17598SOL     OW59651   6.336   3.235   1.757 -0.0434 -0.9210  0.4126
17598SOL    HW159652   6.249   3.194   1.762 -0.3001 -0.2763  1.6026
17598SOL    HW259653   6.389   3.187   1.821 -0.5862  1.0752  2.4753
17599SOL     OW59654   4.578  11.449  11.893 -0.0065 -0.5357 -0.3611
17599SOL    HW159655   4.532  11.519  11.941 -0.0203 -1.2094  0.6502
17599SOL    HW259656   4.612  11.492  11.815  0.1747  0.6624  0.3444
17600SOL     OW59657  11.752   8.427   0.341 -0.3652  0.6294 -0.4901
17600SOL    HW159658  11.725   8.359   0.402  0.3712 -0.0703 -0.9135
17600SOL    HW259659  11.708   8.405   0.259 -0.7808  1.1485 -0.4130
17601SOL     OW59660   9.382   3.754   5.573 -0.0890  0.5293 -0.1495
17601SOL    HW159661   9.358   3.663   5.588  2.4610  0.0558  1.8118
17601SOL    HW259662   9.326   3.804   5.633  0.7677 -0.1250  1.2523
17602SOL     OW59663   6.955   3.552   2.431  0.2703  0.1165 -0.3827
17602SOL    HW159664   7.008   3.607   2.489 -0.1893 -0.6807  0.8238
17602SOL    HW259665   6.865   3.574   2.452  0.0934 -0.2870 -0.7056
17603SOL     OW59666  10.339   7.170   5.280 -0.7299  0.7469 -0.0594
17603SOL    HW159667  10.301   7.099   5.333 -0.9768  0.8584 -0.0873
17603SOL    HW259668  10.297   7.249   5.313  1.2211  1.1852  1.5857
17604SOL     OW59669   5.199  12.355  10.709 -0.2650  0.2304 -0.3661
17604SOL    HW159670   5.120  12.402  10.737 -0.8340 -0.7561 -0.2924
17604SOL    HW259671   5.191  12.268  10.748  1.9227  0.7565  1.5019
17605SOL     OW59672  11.016   9.443   0.660  0.0591  0.1961 -0.1817
17605SOL    HW159673  10.954   9.416   0.728 -0.8062  2.5702  0.0543
17605SOL    HW259674  11.100   9.448   0.705 -0.5639  2.0890  0.8906
17606SOL     OW59675   1.106   4.815   7.981 -0.0572 -0.1457  0.8468
17606SOL    HW159676   1.050   4.797   7.906  0.6198  3.3513 -0.7440
17606SOL    HW259677   1.187   4.768   7.962  0.2807  1.0469 -1.0138
17607SOL     OW59678   9.385   6.668   1.684  0.0189  0.1967 -0.3347
17607SOL    HW159679   9.413   6.719   1.608  0.3901  1.1919  0.4582
17607SOL    HW259680   9.448   6.596   1.689  1.5148  1.5066  0.4668
17608SOL     OW59681   2.277  10.314  10.494  0.3132 -0.6476 -0.0946
17608SOL    HW159682   2.291  10.370  10.418  1.1182 -0.7753 -0.0578
17608SOL    HW259683   2.304  10.227  10.464 -1.6663 -1.1895 -0.3951
17609SOL     OW59684   7.278   2.249   0.486 -0.0468 -0.0456  0.4694
17609SOL    HW159685   7.205   2.284   0.537  0.5052  1.8346  0.0472
17609SOL    HW259686   7.239   2.179   0.435 -1.3168  0.1839  1.0685
17610SOL     OW59687   5.914   5.418   0.141 -0.0710  0.2285 -0.1139
17610SOL    HW159688   5.848   5.400   0.208 -0.6580 -1.6966 -1.1235
17610SOL    HW259689   5.894   5.506   0.109 -1.4635  0.0985  0.3649
17611SOL     OW59690   9.628   1.467   6.755  0.5916  0.1565  0.1068
17611SOL    HW159691   9.545   1.469   6.803  0.6729 -0.0383  0.2531
17611SOL    HW259692   9.667   1.383   6.777 -0.1700 -0.7147 -1.6582
17612SOL     OW59693   4.998   4.062   0.469  0.4404 -0.0084 -0.1432
17612SOL    HW159694   4.990   3.971   0.496 -2.8959  0.3577  0.4567
17612SOL    HW259695   5.073   4.095   0.519  0.1107 -1.7516  1.6134
17613SOL     OW59696   6.606   3.494   0.077 -0.4920 -0.5879  0.1288
17613SOL    HW159697   6.694   3.531   0.074 -0.2522 -1.1718 -0.3760
17613SOL    HW259698   6.607   3.425   0.010 -0.6786 -2.0378  1.5395
17614SOL     OW59699   2.817   7.672   8.179 -0.2476  0.0348  0.0711
17614SOL    HW159700   2.850   7.727   8.108 -0.0275  1.8483  1.5005
17614SOL    HW259701   2.816   7.729   8.255 -0.8533 -1.7324  1.4656
17615SOL     OW59702   1.629  10.830   0.360 -0.0993  0.5230  0.4461
17615SOL    HW159703   1.684  10.904   0.336 -0.2466  0.9501  1.3761
17615SOL    HW259704   1.649  10.763   0.295  2.1112  0.3896  1.1679
17616SOL     OW59705   0.854   7.404  10.357 -0.6256  0.7309 -0.1037
17616SOL    HW159706   0.771   7.442  10.328 -1.2218  0.1752  0.8476
17616SOL    HW259707   0.832   7.315  10.382  0.0416  0.9046  1.1904
17617SOL     OW59708   6.981  11.608   8.791 -0.9446 -0.0335 -0.0376
17617SOL    HW159709   6.901  11.555   8.796 -1.8151  1.2788  0.5675
17617SOL    HW259710   6.975  11.651   8.706 -1.6067  1.1209  0.5689
17618SOL     OW59711   1.040   9.311  11.477  0.0410 -0.4545  0.2030
17618SOL    HW159712   1.096   9.370  11.528 -1.7948  1.1279  0.5003
17618SOL    HW259713   1.026   9.235  11.534  0.0435  0.1680  1.0569
17619SOL     OW59714   7.924  11.981   1.014  0.0718 -0.2800 -0.0234
17619SOL    HW159715   7.973  12.001   1.094 -0.6962  1.4065  0.0717
17619SOL    HW259716   7.832  11.983   1.042 -0.1632 -0.6627 -0.7557
17620SOL     OW59717   4.760   5.439   9.512 -0.4068 -0.8636  0.0584
17620SOL    HW159718   4.846   5.457   9.551 -0.6845 -1.8098  1.1299
17620SOL    HW259719   4.771   5.355   9.467 -0.9559 -1.3360  0.7967
17621SOL     OW59720   7.536   4.239  11.873  0.3867  0.4259  0.3871
17621SOL    HW159721   7.595   4.169  11.901 -0.4575  0.0629  1.3370
17621SOL    HW259722   7.553   4.250  11.780  2.9006  1.2498  0.8433
17622SOL     OW59723   8.059   6.013   6.204  0.3230 -0.5653  0.5210
17622SOL    HW159724   8.089   6.104   6.207 -0.2122 -0.4158  2.0350
17622SOL    HW259725   8.109   5.969   6.273 -0.3289 -1.1320  0.6383
17623SOL     OW59726   5.780   9.520   9.145  0.1059 -0.0404 -0.3270
17623SOL    HW159727   5.836   9.595   9.169 -2.0136  1.6531 -0.3624
17623SOL    HW259728   5.730   9.501   9.224 -0.2729 -0.6109 -0.6983
17624SOL     OW59729   8.965   8.406  10.631  0.1164 -0.2643  0.1091
17624SOL    HW159730   8.902   8.396  10.560  0.1451  0.4932 -0.0284
17624SOL    HW259731   9.019   8.480  10.606  0.0978  0.0466  0.9365
17625SOL     OW59732   1.444   9.256  12.183  0.2377 -0.3814 -0.1342
17625SOL    HW159733   1.502   9.283  12.112  2.4196 -0.4466  1.4900
17625SOL    HW259734   1.394   9.183  12.147  0.1934  0.5166 -2.0235
17626SOL     OW59735   8.735   4.015  10.384 -0.1688  0.0749 -0.5353
17626SOL    HW159736   8.692   3.963  10.452  0.4600 -0.5434 -0.5974
17626SOL    HW259737   8.735   4.104  10.418  1.6903 -0.4793  1.0940
17627SOL     OW59738  11.631   5.366   6.233 -0.1518  0.2651  0.0896
17627SOL    HW159739  11.638   5.449   6.187  0.5595 -0.7123 -1.6689
17627SOL    HW259740  11.543   5.334   6.214  0.2252 -0.2563 -0.8842
17628SOL     OW59741   9.871   2.013  11.609  0.7472 -0.1235  0.3652
17628SOL    HW159742   9.866   2.042  11.517  1.2757  0.0957  0.4010
17628SOL    HW259743   9.859   2.094  11.659  3.0487  0.2359  0.4647
17629SOL     OW59744   7.878   9.443   5.379  0.5036  0.3371 -0.7519
17629SOL    HW159745   7.891   9.529   5.339  1.4318  0.2139 -0.7387
17629SOL    HW259746   7.946   9.438   5.447 -0.5456  0.2218  0.3077
17630SOL     OW59747   9.965   9.420  11.593 -0.3894  0.3992  0.1037
17630SOL    HW159748   9.946   9.329  11.573 -0.6049  0.1826  1.2543
17630SOL    HW259749  10.036   9.417  11.657 -0.9719  0.9985  0.8005
17631SOL     OW59750   2.624   2.554   2.647 -0.1796 -0.6524 -0.5846
17631SOL    HW159751   2.694   2.585   2.705  0.7909  0.1486 -2.1231
17631SOL    HW259752   2.631   2.609   2.569 -2.9217 -0.1333 -0.5866
17632SOL     OW59753  11.562   8.598   0.205 -0.2167  0.3864  0.3785
17632SOL    HW159754  11.561   8.595   0.301 -0.9025  1.1626  0.4087
17632SOL    HW259755  11.529   8.686   0.184  1.4226  0.8364 -0.5340
17633SOL     OW59756   6.552   5.447   3.568  0.0428  0.3438 -0.1627
17633SOL    HW159757   6.529   5.463   3.659 -0.7254  0.3429 -0.3536
17633SOL    HW259758   6.496   5.507   3.518 -0.0736 -0.1822 -0.6708
17634SOL     OW59759   4.487  11.127   0.426 -0.6437  0.2792 -0.1065
17634SOL    HW159760   4.528  11.051   0.385 -0.4462 -1.9774  3.8608
17634SOL    HW259761   4.405  11.139   0.378 -0.6945 -2.4794 -0.8454
17635SOL     OW59762   8.127   1.226   7.684  0.3532  0.0621 -0.3029
17635SOL    HW159763   8.052   1.260   7.635  0.3845 -0.9555 -1.0887
17635SOL    HW259764   8.203   1.246   7.629  0.3292 -1.6173 -0.9885
17636SOL     OW59765   8.831   2.077  12.154  0.0456 -0.5789  0.3929
17636SOL    HW159766   8.888   2.153  12.159 -2.4098  1.5903 -1.6591
17636SOL    HW259767   8.800   2.064  12.243  1.7829 -0.2841  1.0804
17637SOL     OW59768   9.310   0.536   9.600  1.0583  0.2074 -0.0462
17637SOL    HW159769   9.328   0.580   9.683  0.5465 -1.7327  1.1552
17637SOL    HW259770   9.215   0.544   9.589  1.3468  2.4691 -1.7076
17638SOL     OW59771   2.176   8.642   0.500  0.4242 -0.5150 -0.3343
17638SOL    HW159772   2.224   8.607   0.575  0.5280 -0.0620 -0.1838
17638SOL    HW259773   2.120   8.710   0.537  0.0008 -0.7286 -0.5764
17639SOL     OW59774   0.562   0.779   4.819  0.6797  0.7140  0.0275
17639SOL    HW159775   0.496   0.815   4.759 -0.8016  0.2035  1.2722
17639SOL    HW259776   0.590   0.698   4.778 -0.3961  0.3158  0.0423
17640SOL     OW59777   6.237   4.146   5.664 -0.1212 -0.2850 -0.4896
17640SOL    HW159778   6.216   4.188   5.747 -2.2418 -0.2512 -0.9862
17640SOL    HW259779   6.240   4.052   5.684 -1.6971 -0.3649 -0.5448
17641SOL     OW59780   2.349   8.653   4.870 -0.7236 -0.1713 -0.2480
17641SOL    HW159781   2.265   8.693   4.891  0.3015  2.2313 -0.3497
17641SOL    HW259782   2.402   8.725   4.836  1.4048 -1.5875 -0.1432
17642SOL     OW59783  10.589   4.257   0.835 -0.1814 -0.1404  0.1950
17642SOL    HW159784  10.590   4.200   0.758 -1.0819 -1.5838  1.2100
17642SOL    HW259785  10.637   4.335   0.807  1.5753 -1.5790 -1.0732
17643SOL     OW59786   4.073   2.913  10.606  0.3535  0.3186 -0.4119
17643SOL    HW159787   4.029   2.992  10.575  0.4649  0.1932 -0.8986
17643SOL    HW259788   4.047   2.905  10.698  0.1163  0.7628 -0.4399
17644SOL     OW59789   8.506   7.195   4.571  0.0888 -0.0074  0.8089
17644SOL    HW159790   8.548   7.118   4.611 -1.4394 -1.2665  0.1117
17644SOL    HW259791   8.447   7.158   4.505  1.1508  1.8871 -1.3491
17645SOL     OW59792   7.313   2.150   0.003  0.7338 -0.0600  0.0650
17645SOL    HW159793   7.247   2.097  -0.042  0.4092 -0.6381  1.1855
17645SOL    HW259794   7.380   2.087   0.030  0.8815  0.2619  0.4648
17646SOL     OW59795   1.157   5.745  11.230 -0.0233  0.4260  0.0210
17646SOL    HW159796   1.240   5.697  11.240  0.1891  1.0381  1.4242
17646SOL    HW259797   1.104   5.716  11.305 -1.2055 -0.1649 -1.0149
17647SOL     OW59798   5.651   6.177   2.281 -0.0600 -0.0923  0.3129
17647SOL    HW159799   5.717   6.132   2.229 -0.0174 -0.5368  0.7492
17647SOL    HW259800   5.609   6.108   2.332 -1.9105 -0.0493 -1.0525
17648SOL     OW59801   9.936   8.113  11.248  0.1488 -0.7554 -0.5436
17648SOL    HW159802   9.963   8.089  11.160 -0.2057 -1.2294 -0.5295
17648SOL    HW259803   9.861   8.171  11.235 -0.1253 -1.1063 -0.5534
17649SOL     OW59804   6.143   8.457   4.809 -0.1210 -0.1078  0.9864
17649SOL    HW159805   6.121   8.513   4.883 -1.7906 -0.5578  0.8629
17649SOL    HW259806   6.236   8.436   4.822 -0.3807 -0.2160  2.9726
17650SOL     OW59807   4.895   7.813  12.318  0.6640  0.1274  0.6934
17650SOL    HW159808   4.892   7.733  12.370  2.3838 -0.1790  0.3676
17650SOL    HW259809   4.805   7.823  12.285  0.5999 -2.1922 -0.0337
17651SOL     OW59810   8.324   1.414   0.842  0.2664 -0.6328  0.1231
17651SOL    HW159811   8.245   1.414   0.787 -1.1458 -1.3036  2.0527
17651SOL    HW259812   8.367   1.497   0.822 -0.0649 -0.9192 -2.0942
17652SOL     OW59813   8.281  10.658  11.872 -0.2042 -0.5154 -0.3993
17652SOL    HW159814   8.293  10.696  11.785  0.2838  0.4474  0.0775
17652SOL    HW259815   8.262  10.566  11.855  0.3700 -0.4480 -1.5037
17653SOL     OW59816   9.983   9.217   9.640  0.0314  0.3594  0.6032
17653SOL    HW159817  10.002   9.309   9.623  2.1480 -0.2928 -0.8228
17653SOL    HW259818  10.006   9.171   9.559 -0.8176 -1.4710  1.3264
17654SOL     OW59819   7.275   1.381   7.209  0.0241  0.1541  0.1235
17654SOL    HW159820   7.314   1.444   7.149  0.6111 -2.2938 -2.2850
17654SOL    HW259821   7.209   1.430   7.257 -1.7426  2.0159 -3.7616
17655SOL     OW59822  10.803   2.135   1.920 -0.1012  0.1966 -1.1073
17655SOL    HW159823  10.765   2.066   1.975 -0.8078  1.4596  0.0537
17655SOL    HW259824  10.781   2.109   1.830  0.5192 -1.5823 -0.7693
17656SOL     OW59825   1.923   9.168   4.372 -0.0720 -0.7708  0.0454
17656SOL    HW159826   1.913   9.222   4.451 -0.5823 -1.9412  0.8100
17656SOL    HW259827   2.017   9.158   4.362  0.1511  1.7383 -1.1821
17657SOL     OW59828   0.565   5.696   3.603 -0.2196  0.7687 -0.1117
17657SOL    HW159829   0.580   5.693   3.698 -1.0113 -3.0042  0.0158
17657SOL    HW259830   0.470   5.700   3.593 -0.2106 -0.2303 -0.7144
17658SOL     OW59831   4.144   6.657   5.010  1.2628  0.2773 -0.2947
17658SOL    HW159832   4.177   6.645   4.922  1.4286 -1.8726  0.0276
17658SOL    HW259833   4.203   6.607   5.066 -1.0122 -1.6113  0.5623
17659SOL     OW59834   2.014   6.579   5.677  0.2176 -0.3233 -0.3879
17659SOL    HW159835   1.973   6.663   5.655  1.2517 -0.1085 -1.5597
17659SOL    HW259836   2.009   6.528   5.597  1.4016 -0.6329 -0.2737
17660SOL     OW59837  12.344   2.421   0.166  0.2049 -0.3361  0.2586
17660SOL    HW159838  12.398   2.495   0.137 -0.9025  1.3183  2.1929
17660SOL    HW259839  12.302   2.452   0.246 -0.5079 -3.0093  1.0023
17661SOL     OW59840   9.412  10.239   5.245  0.3041  0.4159  0.1234
17661SOL    HW159841   9.372  10.194   5.319  2.2441  1.9663  2.2384
17661SOL    HW259842   9.376  10.327   5.247  1.2040  0.7968 -0.0954
17662SOL     OW59843   6.952  12.395   3.787 -0.0780  0.6324  0.5777
17662SOL    HW159844   6.898  12.364   3.860 -1.2736 -0.6442 -0.7660
17662SOL    HW259845   6.919  12.482   3.767 -1.8133 -0.1603 -0.2793
17663SOL     OW59846   1.118  11.433  10.740  0.0176  0.2905  0.5525
17663SOL    HW159847   1.040  11.381  10.718 -0.2708  0.4338  1.2176
17663SOL    HW259848   1.170  11.377  10.797 -0.1493  0.6119  1.0276
17664SOL     OW59849  11.451   6.203   0.821  0.4081 -0.2341  0.1773
17664SOL    HW159850  11.441   6.108   0.832  2.3227 -0.3852  0.9307
17664SOL    HW259851  11.399   6.240   0.893  0.3468 -0.7354  0.3995
17665SOL     OW59852   6.739   1.321   5.483 -0.1307  0.3683  0.0391
17665SOL    HW159853   6.784   1.349   5.404  0.2203 -1.3437 -0.3946
17665SOL    HW259854   6.695   1.240   5.459  2.4468 -1.9110  2.3198
17666SOL     OW59855   3.562   5.294   0.551  0.1918  0.2594  0.7903
17666SOL    HW159856   3.594   5.335   0.471  2.1266 -1.8102  0.4321
17666SOL    HW259857   3.476   5.259   0.528  0.2266  0.6983 -0.0198
17667SOL     OW59858   3.024   5.056  12.085  0.0508 -0.2047  0.0738
17667SOL    HW159859   2.984   5.062  12.172  0.4696 -0.3858  0.2795
17667SOL    HW259860   3.110   5.018  12.101  0.1825 -0.1072 -0.4072
17668SOL     OW59861  10.371   8.795   0.087 -0.4955 -0.4566  0.2946
17668SOL    HW159862  10.357   8.762  -0.002  1.4930 -0.3851 -0.0914
17668SOL    HW259863  10.415   8.724   0.133  2.1217  0.8165 -0.0034
17669SOL     OW59864   0.761   5.168   3.505  0.2964  0.4286  0.1537
17669SOL    HW159865   0.735   5.216   3.427 -1.0096  0.3335  0.5182
17669SOL    HW259866   0.800   5.087   3.471 -1.3825 -0.1837 -0.4058
17670SOL     OW59867   3.239   8.058   1.022 -0.0199 -0.3274 -0.2075
17670SOL    HW159868   3.245   8.137   1.075 -1.9527 -0.5808  0.4614
17670SOL    HW259869   3.204   8.087   0.938  0.3133 -0.3325 -0.3513
17671SOL     OW59870   3.560  10.041   1.158 -0.0556 -0.4033 -0.0807
17671SOL    HW159871   3.534  10.000   1.240  1.1057  2.7289  2.0710
17671SOL    HW259872   3.640   9.995   1.133  0.0334 -0.8993  1.0411
17672SOL     OW59873  11.177   3.391   7.629  0.0203 -0.6969  0.2439
17672SOL    HW159874  11.171   3.327   7.558  0.5180 -0.8447  0.3249
17672SOL    HW259875  11.120   3.462   7.603  0.0289 -0.8522 -0.2026
17673SOL     OW59876   9.565   7.949   6.888  0.2382  0.1514  0.7010
17673SOL    HW159877   9.579   7.950   6.793 -0.0194  1.5027  0.6483
17673SOL    HW259878   9.549   8.041   6.910 -2.8890 -0.4792  1.5847
17674SOL     OW59879   8.895   4.782   2.029 -0.1659 -0.3102  0.3958
17674SOL    HW159880   8.960   4.834   2.076  0.1413 -1.6676  1.5545
17674SOL    HW259881   8.946   4.732   1.965 -0.3871  0.3743 -0.3244
17675SOL     OW59882   2.800  12.302   6.798 -0.0196  0.2613 -0.0057
17675SOL    HW159883   2.830  12.383   6.839 -0.7986  0.6210 -0.1279
17675SOL    HW259884   2.849  12.297   6.716 -0.6724  1.1207 -0.4586
17676SOL     OW59885  10.489   4.858   2.079  0.1883 -0.1041  0.8620
17676SOL    HW159886  10.552   4.870   2.009 -2.0195  3.2562 -0.8626
17676SOL    HW259887  10.529   4.899   2.155  1.3183 -0.9035  0.7138
17677SOL     OW59888   1.988   1.184   7.383 -0.5020  0.0231  0.1435
17677SOL    HW159889   1.983   1.108   7.324 -1.1729 -0.3718  0.6937
17677SOL    HW259890   1.984   1.147   7.471 -0.7965  0.6986  0.4202
17678SOL     OW59891  12.357   7.252   1.273 -0.1212 -0.1856 -0.1147
17678SOL    HW159892  12.397   7.332   1.238 -0.6254 -0.8412 -2.2892
17678SOL    HW259893  12.428   7.208   1.319 -0.1105  2.0520  2.2777
17679SOL     OW59894   2.382   8.218   4.346 -0.0946 -0.2001  0.2505
17679SOL    HW159895   2.447   8.189   4.410 -0.9530 -0.6690  0.9279
17679SOL    HW259896   2.323   8.275   4.395 -1.9833 -2.2079  0.4438
17680SOL     OW59897   9.218   4.376   8.125 -0.6749 -0.1049 -0.3310
17680SOL    HW159898   9.276   4.363   8.200 -1.3519 -2.4319 -0.1090
17680SOL    HW259899   9.258   4.325   8.055 -1.8842 -0.9407 -0.4556
17681SOL     OW59900   8.952   9.550   9.175 -0.4414  0.1335  0.2188
17681SOL    HW159901   9.041   9.523   9.152  0.0279  0.7997  1.1829
17681SOL    HW259902   8.900   9.529   9.098  0.5188 -0.4256 -0.2976
17682SOL     OW59903   2.072   6.203   7.822  0.0814  0.3508 -0.4109
17682SOL    HW159904   2.074   6.108   7.820  0.5852  0.3314  0.5713
17682SOL    HW259905   2.140   6.230   7.761 -2.3107  0.1718 -3.4454
17683SOL     OW59906   4.109   9.685   0.190  0.1089 -0.4295  0.6557
17683SOL    HW159907   4.126   9.610   0.248  1.9166 -0.7081 -0.1634
17683SOL    HW259908   4.162   9.756   0.227 -0.3663 -0.0083  0.5301
17684SOL     OW59909   2.017   5.577   2.872 -0.0619  0.0899 -0.1816
17684SOL    HW159910   2.036   5.559   2.780 -2.8302 -2.5193 -0.3720
17684SOL    HW259911   1.946   5.641   2.870 -0.5973 -0.4855  0.0995
17685SOL     OW59912   6.608   9.911   4.959 -0.4765  0.5925 -0.0424
17685SOL    HW159913   6.648   9.989   4.998 -0.4204  0.6176 -0.1510
17685SOL    HW259914   6.600   9.931   4.866 -0.0063  0.2772 -0.1541
17686SOL     OW59915  11.486   9.654   2.613 -0.0088 -0.2286 -0.4766
17686SOL    HW159916  11.420   9.639   2.681  0.1214 -1.6786 -0.6254
17686SOL    HW259917  11.511   9.566   2.585  2.4588  0.2532  0.0124
17687SOL     OW59918   9.574  11.354  11.314 -0.2547  0.4857 -0.2495
17687SOL    HW159919   9.629  11.339  11.390  0.2564  1.1100 -0.4876
17687SOL    HW259920   9.539  11.268  11.292  2.0684 -0.2846 -1.1913
17688SOL     OW59921  10.972   1.149  11.682  0.1376  0.0301 -0.3812
17688SOL    HW159922  10.914   1.074  11.697  1.3923 -0.7137  1.0820
17688SOL    HW259923  10.979   1.191  11.768  1.2293  0.4927 -0.6817
17689SOL     OW59924   6.485  10.909  11.775 -0.5887 -0.2644  0.0516
17689SOL    HW159925   6.481  10.841  11.708  0.5354 -0.5044  0.1924
17689SOL    HW259926   6.431  10.981  11.741 -0.7809 -0.7441 -0.6726
17690SOL     OW59927   8.559   1.510   1.760  0.4873  0.3879  0.0912
17690SOL    HW159928   8.583   1.457   1.836 -0.0163  0.2432  0.1569
17690SOL    HW259929   8.466   1.530   1.774  0.7212  1.4775  0.1772
17691SOL     OW59930  11.338  11.365   3.547 -0.3075  0.3526 -0.0971
17691SOL    HW159931  11.396  11.332   3.479 -0.8742 -0.2751 -0.2786
17691SOL    HW259932  11.274  11.295   3.562 -1.8271  1.5235 -0.8226
17692SOL     OW59933   8.753   3.465   0.310  0.6066  0.2072  0.5850
17692SOL    HW159934   8.761   3.560   0.316  0.5773  0.1753  1.1175
17692SOL    HW259935   8.762   3.446   0.216  0.7959  0.7152  0.5001
17693SOL     OW59936   0.784  11.562   9.522 -0.9227 -0.3549  0.2539
17693SOL    HW159937   0.827  11.626   9.465  1.7667 -3.1706 -1.1291
17693SOL    HW259938   0.793  11.600   9.610  0.7603  1.1040 -0.4690
17694SOL     OW59939   3.556  12.407  10.508  0.5087 -0.3871 -0.2065
17694SOL    HW159940   3.461  12.410  10.519  0.5937  0.3803  0.4437
17694SOL    HW259941   3.571  12.434  10.418  0.0469 -1.8319 -0.7412
17695SOL     OW59942   7.507   2.565   8.354  0.9125  0.5181 -0.4133
17695SOL    HW159943   7.521   2.507   8.429  2.2045 -0.5510 -1.4430
17695SOL    HW259944   7.423   2.538   8.318  0.2378  1.0956  0.6628
17696SOL     OW59945   0.123   8.417   1.961 -0.4392 -0.0119 -0.0792
17696SOL    HW159946   0.158   8.503   1.941 -0.1979 -0.1049 -0.0573
17696SOL    HW259947   0.148   8.401   2.052 -0.4724 -0.1110 -0.0869
17697SOL     OW59948   8.063   9.308   4.307  0.3573 -0.3775  0.0327
17697SOL    HW159949   8.037   9.268   4.224  0.4428 -2.5608  0.9809
17697SOL    HW259950   8.158   9.297   4.310  0.4892  0.6707 -0.0413
17698SOL     OW59951   7.434   8.072  10.643 -0.4470 -0.2651 -0.2970
17698SOL    HW159952   7.504   8.020  10.682  0.3715  1.0825  0.1242
17698SOL    HW259953   7.444   8.159  10.682 -2.1680  0.0513 -0.4746
17699SOL     OW59954   7.917  10.981   5.600  0.2989 -0.5306 -0.3981
17699SOL    HW159955   7.885  11.071   5.596  2.0998  0.2872  1.6657
17699SOL    HW259956   7.843  10.928   5.571 -1.9173  1.4102  1.2982
17700SOL     OW59957   6.091  11.915   0.948  0.0570 -0.1973  0.1039
17700SOL    HW159958   6.002  11.929   0.917  0.3739 -0.5349 -1.0308
17700SOL    HW259959   6.126  11.847   0.889  1.0067 -0.1795  0.6263
17701SOL     OW59960  11.499   2.616  11.716 -0.1578  0.0037 -1.3543
17701SOL    HW159961  11.517   2.658  11.632 -0.7627  1.3706 -0.8333
17701SOL    HW259962  11.420   2.659  11.748  2.2513  2.6812  1.8405
17702SOL     OW59963   6.575   8.539  12.396  0.5357 -0.0638  0.6740
17702SOL    HW159964   6.642   8.471  12.398  1.2652  0.6617  1.5400
17702SOL    HW259965   6.599   8.592  12.320 -0.0465 -0.7611 -0.0150
17703SOL     OW59966   2.715   6.760   3.580  0.2820 -0.0426  0.3473
17703SOL    HW159967   2.628   6.798   3.595  0.7743  0.9576  0.7408
17703SOL    HW259968   2.774   6.811   3.635  1.1428 -0.6711  0.0400
17704SOL     OW59969  12.348   6.451   1.134  0.2037  0.2325  0.4775
17704SOL    HW159970  12.373   6.539   1.162  0.5300  0.4164 -0.3610
17704SOL    HW259971  12.332   6.403   1.215 -0.1713  1.1209  0.9331
17705SOL     OW59972   0.783   2.590   7.216  0.9241  0.2577 -0.7939
17705SOL    HW159973   0.713   2.550   7.165  1.4278 -0.4661 -0.9292
17705SOL    HW259974   0.777   2.684   7.196 -0.5067  0.3180 -0.1699
17706SOL     OW59975   3.272   8.306   5.331  0.3666 -0.7041 -0.2004
17706SOL    HW159976   3.327   8.359   5.390  0.2578  0.7879 -1.3701
17706SOL    HW259977   3.194   8.287   5.382  1.1767 -1.2871  0.8637
17707SOL     OW59978   8.437   9.772   6.196 -0.4966 -0.3406 -0.0770
17707SOL    HW159979   8.522   9.743   6.163 -0.3949 -0.5152  0.3201
17707SOL    HW259980   8.395   9.691   6.227 -1.1041 -0.3611 -0.9164
17708SOL     OW59981   8.443   9.313   4.239 -0.2748  0.4742 -0.2044
17708SOL    HW159982   8.397   9.229   4.233  0.7543 -0.3570  2.1278
17708SOL    HW259983   8.533   9.294   4.212  0.1703  0.5655  1.1085
17709SOL     OW59984   2.052  10.469   6.316 -0.2989 -0.1343  0.3819
17709SOL    HW159985   2.014  10.554   6.338 -1.2640 -0.0649 -1.3640
17709SOL    HW259986   2.019  10.409   6.384  1.5714  1.0817  2.5034
17710SOL     OW59987  10.053  11.209   1.857 -0.6427 -0.6009  0.0251
17710SOL    HW159988  10.020  11.169   1.776  0.9683 -0.5576 -0.6798
17710SOL    HW259989   9.999  11.171   1.926 -0.7831 -2.1200 -0.8818
17711SOL     OW59990   0.960   1.480   3.451  0.3997  0.3750 -0.4810
17711SOL    HW159991   0.898   1.524   3.508 -1.2493 -1.3729 -0.8054
17711SOL    HW259992   1.040   1.473   3.502 -0.1296  1.4051  0.5109
17712SOL     OW59993  12.219   8.263   3.361  0.6945 -0.0277 -0.1899
17712SOL    HW159994  12.301   8.235   3.320  0.9997  0.9701 -0.2857
17712SOL    HW259995  12.162   8.186   3.356  2.3385 -1.4771  1.8474
17713SOL     OW59996   4.906  10.843   1.599  0.3596 -0.2318  0.2986
17713SOL    HW159997   4.895  10.749   1.613  0.2256 -0.3628 -0.5863
17713SOL    HW259998   4.858  10.860   1.518 -2.8831  1.2984  2.3244
17714SOL     OW59999   8.104   4.822  11.755  0.5978  0.3174 -0.0338
17714SOL    HW160000   8.087   4.745  11.701  1.2269 -0.0364  0.2604
17714SOL    HW260001   8.147   4.884  11.696 -1.3714  1.1030 -0.7051
17715SOL     OW60002   3.998   6.378   3.096  0.5177 -0.6819  0.4177
17715SOL    HW160003   3.973   6.296   3.139  0.4559 -0.3909  0.9428
17715SOL    HW260004   4.074   6.409   3.145  0.5905 -0.4590  0.1703
17716SOL     OW60005   7.766   3.946   5.000 -0.5493  0.1621 -0.1844
17716SOL    HW160006   7.840   3.988   4.957  0.7619 -0.7704  1.0607
17716SOL    HW260007   7.697   4.014   5.001  0.8695  1.6617  0.1704
17717SOL     OW60008   5.759   4.068   6.933 -0.3068 -0.6180  0.3678
17717SOL    HW160009   5.748   4.130   7.006 -1.6364  1.0582 -1.1700
17717SOL    HW260010   5.832   4.103   6.883 -0.4897 -0.7907 -0.0205
17718SOL     OW60011   6.847   8.535   6.621 -0.0454  0.0101  0.0150
17718SOL    HW160012   6.827   8.628   6.607 -0.9244 -0.0521  0.7375
17718SOL    HW260013   6.802   8.490   6.550  1.1249  0.1868 -0.8666
17719SOL     OW60014  12.017   3.141  10.354  0.2328  0.0595 -0.0911
17719SOL    HW160015  12.000   3.142  10.448  0.3819  1.2528 -0.0644
17719SOL    HW260016  11.934   3.114  10.315 -0.6429  2.1103  0.2555
17720SOL     OW60017   8.992  11.171   8.624  0.3280 -0.0148  0.0423
17720SOL    HW160018   8.977  11.132   8.538 -1.5133  1.6020 -0.4426
17720SOL    HW260019   8.985  11.098   8.685  0.5571 -1.0171 -1.0984
17721SOL     OW60020   1.736   6.459   6.217 -0.0291  0.3256 -0.2167
17721SOL    HW160021   1.674   6.388   6.236  0.8592 -0.4192 -0.0547
17721SOL    HW260022   1.817   6.414   6.194  0.5246  1.2964 -0.1916
17722SOL     OW60023   9.158   6.446   3.384 -0.1797  0.0487 -0.1705
17722SOL    HW160024   9.066   6.464   3.404 -0.2211  0.7764 -0.9824
17722SOL    HW260025   9.201   6.532   3.390  0.2811 -0.1424 -0.6982
17723SOL     OW60026   6.296   8.202   1.241  0.6065 -0.0568 -0.0919
17723SOL    HW160027   6.235   8.145   1.194  1.5583 -0.9516 -0.2845
17723SOL    HW260028   6.339   8.252   1.172 -1.5050  2.2844  0.1777
17724SOL     OW60029   0.045   4.087   2.332  0.1467 -0.1356 -0.6979
17724SOL    HW160030  -0.041   4.072   2.293  0.7344 -1.2646 -1.6032
17724SOL    HW260031   0.084   4.156   2.278  0.0951 -0.1358 -0.7356
17725SOL     OW60032  11.643   8.261  10.566 -0.0308 -0.3309  0.6860
17725SOL    HW160033  11.623   8.353  10.585 -0.6713 -0.2812 -0.1587
17725SOL    HW260034  11.693   8.231  10.642  0.7806  0.9069  0.6756
17726SOL     OW60035   7.589   5.115   4.476  0.4050 -1.0374 -0.5286
17726SOL    HW160036   7.602   5.195   4.527  0.2252 -0.7328 -0.9613
17726SOL    HW260037   7.641   5.049   4.522 -1.1748 -1.2097  1.1173
17727SOL     OW60038  10.220   4.573   1.992 -0.1780  0.0427 -0.1633
17727SOL    HW160039  10.254   4.599   2.077  1.1617 -1.6033 -0.1458
17727SOL    HW260040  10.262   4.633   1.930 -1.2510  1.3241  0.2957
17728SOL     OW60041   7.314   9.611   0.106  0.4022 -0.2974 -0.9949
17728SOL    HW160042   7.296   9.570   0.190  0.5973  0.4548 -0.5746
17728SOL    HW260043   7.283   9.701   0.116  0.8130 -0.0831 -1.5820
17729SOL     OW60044   5.991   9.417  12.435  0.4933 -0.1271  0.2220
17729SOL    HW160045   5.944   9.338  12.407 -0.6803  0.2581  0.9941
17729SOL    HW260046   6.073   9.415  12.386  0.0957 -1.3521 -0.4474
17730SOL     OW60047   8.486   4.146   2.109  0.4447  0.1466  0.7027
17730SOL    HW160048   8.411   4.203   2.092 -0.2753 -1.4702 -2.2162
17730SOL    HW260049   8.552   4.174   2.045  0.7418 -1.0795  0.4514
17731SOL     OW60050  12.232   6.914   6.740  0.0527  0.2955  0.4582
17731SOL    HW160051  12.241   6.819   6.735  0.5850  0.2519  1.7520
17731SOL    HW260052  12.153   6.933   6.691 -0.0904 -0.8234  0.2216
17732SOL     OW60053   5.443   1.989   5.485 -0.0660  0.1074  0.1055
17732SOL    HW160054   5.452   1.974   5.391  0.6080 -1.3264  0.3791
17732SOL    HW260055   5.508   2.057   5.504 -0.8003  1.0398 -0.5806
17733SOL     OW60056  10.117   6.831   5.305 -0.1125 -0.6054 -0.2778
17733SOL    HW160057  10.108   6.736   5.304 -0.0291 -0.6140 -1.8677
17733SOL    HW260058  10.038   6.863   5.262  0.4351 -0.0144 -0.8524
17734SOL     OW60059   7.838  10.493  11.848  0.4853  0.0537  0.1174
17734SOL    HW160060   7.743  10.487  11.841  0.5628 -1.4366  0.1335
17734SOL    HW260061   7.871  10.466  11.763  0.9239 -1.4400  0.7184
17735SOL     OW60062   8.691   1.007  10.666  0.5579 -0.2546 -0.0796
17735SOL    HW160063   8.623   1.071  10.688 -0.9152 -1.4047 -1.0136
17735SOL    HW260064   8.647   0.922  10.678  1.7873 -1.0261 -0.8840
17736SOL     OW60065   7.717   9.636   4.331 -0.0934 -0.2068 -0.0709
17736SOL    HW160066   7.765   9.679   4.260 -0.2623  0.0203 -0.0460
17736SOL    HW260067   7.772   9.648   4.408  0.2700 -0.7742 -0.2345
17737SOL     OW60068  11.075   3.576   4.679  0.2044 -0.4705 -0.2499
17737SOL    HW160069  11.045   3.542   4.594  2.2654 -1.6087 -0.5895
17737SOL    HW260070  11.121   3.503   4.719  1.5508  0.8383  0.6920
17738SOL     OW60071   3.978  11.128   9.952 -0.3805  0.0687 -0.1097
17738SOL    HW160072   4.058  11.168   9.987 -0.8943  0.4146  0.6952
17738SOL    HW260073   3.907  11.187   9.979 -1.0497 -0.8994  0.3085
17739SOL     OW60074   1.292   1.261  11.864  0.0527  0.3565  0.0011
17739SOL    HW160075   1.384   1.246  11.843  0.0288  1.8555 -1.3712
17739SOL    HW260076   1.283   1.356  11.867 -2.0560  0.4385 -3.2312
17740SOL     OW60077   1.066   3.648   4.591 -0.3044 -0.2668 -0.2161
17740SOL    HW160078   1.156   3.679   4.592 -1.0527  2.3515  2.7454
17740SOL    HW260079   1.062   3.582   4.660 -0.7062 -0.1625 -0.1347
17741SOL     OW60080   3.072   9.852  10.424  0.6595 -0.9433 -0.4514
17741SOL    HW160081   3.034   9.770  10.393 -0.2096 -0.5830 -0.3724
17741SOL    HW260082   3.002   9.917  10.413  1.4094 -0.1610 -0.7252
17742SOL     OW60083   5.059   6.756   5.790  0.1750 -0.2874  0.4048
17742SOL    HW160084   5.129   6.786   5.732  0.3730  0.8638  1.1864
17742SOL    HW260085   5.046   6.829   5.851 -0.8684 -0.9683  1.0340
17743SOL     OW60086   7.945   7.971  11.925  0.0366  0.2822 -0.0037
17743SOL    HW160087   7.950   7.994  12.018 -0.3209 -2.9314  0.9403
17743SOL    HW260088   7.852   7.975  11.904 -0.2295 -1.5299  0.6126
17744SOL     OW60089  11.693  10.967  10.973  0.5444 -0.1177 -0.1822
17744SOL    HW160090  11.758  10.912  10.930  1.0162  1.0017 -0.9607
17744SOL    HW260091  11.721  11.057  10.954  0.6801  0.4496  2.3485
17745SOL     OW60092  10.107   4.208   3.939 -0.5049 -0.1965 -0.1595
17745SOL    HW160093  10.116   4.182   4.031 -0.0919 -1.3799 -0.5204
17745SOL    HW260094  10.134   4.131   3.890 -0.5168  0.5034 -1.2823
17746SOL     OW60095   2.466   2.802   7.028  0.6126 -0.5094 -0.7208
17746SOL    HW160096   2.546   2.852   7.011  1.1261 -1.0358  0.1155
17746SOL    HW260097   2.475   2.723   6.975  0.3590 -0.2924 -1.0952
17747SOL     OW60098   2.104   1.568   6.295  0.0333  0.1226  0.5429
17747SOL    HW160099   2.144   1.487   6.261 -0.9043 -1.1097  2.2185
17747SOL    HW260100   2.118   1.632   6.225  1.8331 -1.1561 -0.3724
17748SOL     OW60101   3.638   3.628  12.371  0.1489  0.1441  0.8988
17748SOL    HW160102   3.560   3.604  12.321 -0.8679  0.8305  2.1100
17748SOL    HW260103   3.698   3.554  12.359 -0.7136 -0.4384  0.0348
17749SOL     OW60104   8.773   8.079   8.182  0.1137  0.0172  0.4040
17749SOL    HW160105   8.711   8.007   8.181 -1.1185  0.6799 -4.9772
17749SOL    HW260106   8.725   8.152   8.222  0.1509 -1.1166  2.6903
17750SOL     OW60107  12.487   8.847   0.252  0.0938  0.2924  0.3812
17750SOL    HW160108  12.422   8.777   0.241  2.4241 -2.1836  1.0839
17750SOL    HW260109  12.501   8.881   0.163 -1.1029 -0.1384  0.0131
17751SOL     OW60110  10.950   6.408  11.370 -0.1684  0.0678  0.3104
17751SOL    HW160111  10.997   6.391  11.289  0.3522 -0.7701  0.7756
17751SOL    HW260112  10.888   6.478  11.348  1.9178  1.8827 -0.0855
17752SOL     OW60113  12.468   9.782   0.535 -0.0428 -0.4642  0.5966
17752SOL    HW160114  12.432   9.856   0.584 -2.1407 -1.2184  0.2916
17752SOL    HW260115  12.535   9.745   0.593 -0.4874  0.3620  1.6679
17753SOL     OW60116   0.026   8.059   7.772  0.0345  0.2853  0.1299
17753SOL    HW160117   0.019   7.991   7.839  0.9497 -0.6309 -0.6699
17753SOL    HW260118   0.039   8.012   7.690  0.4780  1.4176 -0.4842
17754SOL     OW60119   5.299   2.913   8.625 -0.2186  0.2204  0.0775
17754SOL    HW160120   5.293   2.869   8.710 -0.5354  0.4687  0.1859
17754SOL    HW260121   5.281   3.005   8.644  2.4744  0.8138  0.1734
17755SOL     OW60122   0.901   5.307   7.218 -0.3415 -0.0525 -0.1957
17755SOL    HW160123   0.822   5.332   7.265 -0.0256 -0.4417  0.5514
17755SOL    HW260124   0.964   5.285   7.286 -0.0420 -1.1185 -0.7852
17756SOL     OW60125   7.513   4.124   8.460 -0.3663 -0.2349 -0.0507
17756SOL    HW160126   7.490   4.177   8.537  0.1553 -0.4067  0.2257
17756SOL    HW260127   7.531   4.189   8.392  0.8511 -0.0137  0.4454
17757SOL     OW60128   7.047   2.554  10.880 -0.2453 -0.1716  0.7206
17757SOL    HW160129   7.081   2.610  10.810 -0.9586 -1.4541 -0.7123
17757SOL    HW260130   6.985   2.609  10.927  0.5006  0.8200  0.5734
17758SOL     OW60131   5.565  12.472   5.304 -0.4873  0.2559 -0.2304
17758SOL    HW160132   5.592  12.387   5.339 -1.4154 -0.6049 -1.5037
17758SOL    HW260133   5.632  12.533   5.335  0.1637 -0.9124  0.7778
17759SOL     OW60134   9.124  10.717   6.032 -0.2486 -0.5733 -0.1673
17759SOL    HW160135   9.066  10.702   6.107 -1.8776  1.0163 -1.0087
17759SOL    HW260136   9.211  10.727   6.071 -0.8824 -0.7815  1.3976
17760SOL     OW60137   8.431  11.098   3.107  0.2458 -0.0393  0.4988
17760SOL    HW160138   8.371  11.173   3.112 -0.1829 -0.4106  1.0487
17760SOL    HW260139   8.382  11.025   3.146  0.8166 -0.5071  0.3600
17761SOL     OW60140  12.098  11.508   9.113 -0.0420 -0.1423  0.3115
17761SOL    HW160141  12.188  11.533   9.091 -0.7442  1.1172 -1.3528
17761SOL    HW260142  12.073  11.570   9.182 -0.5622  1.4804 -1.2703
17762SOL     OW60143   5.734  11.028  11.539 -0.3331  0.1185 -0.9337
17762SOL    HW160144   5.704  11.116  11.517 -0.6976  0.6379  1.4402
17762SOL    HW260145   5.656  10.974  11.535 -0.1989 -0.0337 -1.8857
17763SOL     OW60146   8.578   7.451   2.303 -0.0106  0.2750  0.3414
17763SOL    HW160147   8.601   7.404   2.383 -1.0199  3.4264  2.6704
17763SOL    HW260148   8.482   7.457   2.306 -0.1015  0.2190 -1.3176
17764SOL     OW60149   5.598  12.039   2.728  0.4207  0.9415 -0.4359
17764SOL    HW160150   5.670  11.982   2.757  0.0095  0.6329  0.0051
17764SOL    HW260151   5.519  11.987   2.744  0.1086  1.2350 -1.0201
17765SOL     OW60152  11.643   2.501  10.876 -0.2837  0.4615 -0.2801
17765SOL    HW160153  11.734   2.479  10.856  0.4886  1.2218  2.0850
17765SOL    HW260154  11.622   2.575  10.820  0.7114  0.5623 -0.5218
17766SOL     OW60155   9.880   5.925   4.077  0.2338 -0.3455 -0.2516
17766SOL    HW160156   9.789   5.916   4.048 -0.3988  0.5500  1.3258
17766SOL    HW260157   9.923   5.846   4.043 -1.3933 -1.3767 -0.0704
17767SOL     OW60158   5.487   2.020  10.638 -0.3884 -0.1920 -0.0150
17767SOL    HW160159   5.425   2.078  10.682 -1.0763 -0.4506 -0.6136
17767SOL    HW260160   5.568   2.070  10.634 -0.3565 -0.1086  1.3894
17768SOL     OW60161   9.119  10.924   8.586 -0.0459  0.0178 -0.2158
17768SOL    HW160162   9.088  10.919   8.495  0.0816  0.3640 -0.2804
17768SOL    HW260163   9.202  10.971   8.580  1.8851 -3.1401 -0.3842
17769SOL     OW60164   6.797   0.934   7.914  0.5602 -0.0662  0.8743
17769SOL    HW160165   6.781   1.021   7.951 -1.3470 -0.4611  1.0714
17769SOL    HW260166   6.864   0.896   7.971  2.1381  1.5934  0.2190
17770SOL     OW60167   9.952  10.287   5.850  0.2936  0.0987 -0.1115
17770SOL    HW160168   9.944  10.377   5.883  3.0751  0.7747 -0.9656
17770SOL    HW260169   9.965  10.298   5.756  0.7038 -1.2180 -0.2271
17771SOL     OW60170   1.181   6.857   6.257  0.2417 -0.3012  0.3642
17771SOL    HW160171   1.250   6.850   6.191 -0.4715 -1.0071 -0.3357
17771SOL    HW260172   1.142   6.943   6.242 -0.1703 -0.6103 -0.4117
17772SOL     OW60173   9.657  12.049  12.304 -0.1962  0.4146 -0.4709
17772SOL    HW160174   9.597  12.123  12.313  0.0358  0.4690  0.8126
17772SOL    HW260175   9.671  12.018  12.394  2.9265  1.3649 -0.5186
17773SOL     OW60176   8.579   7.825   6.638  0.4402  0.1184 -0.3261
17773SOL    HW160177   8.636   7.826   6.715  0.8778 -1.3097 -0.5935
17773SOL    HW260178   8.639   7.824   6.563  0.1137 -1.3985 -0.6122
17774SOL     OW60179   8.984   8.346   9.310  0.1740  0.0909  0.5432
17774SOL    HW160180   9.036   8.282   9.261  0.3006 -0.5268  1.4669
17774SOL    HW260181   8.896   8.309   9.312  0.1677  0.1158  0.7778
17775SOL     OW60182   1.329   6.905   8.119  0.1128  0.5462  0.0904
17775SOL    HW160183   1.256   6.966   8.133  0.0692  0.7613 -1.0145
17775SOL    HW260184   1.379   6.910   8.200 -0.2345  1.6007  0.2592
17776SOL     OW60185   9.644   2.329   9.395 -0.3815 -0.1627 -0.3507
17776SOL    HW160186   9.579   2.385   9.439 -1.5869 -1.0989 -0.8739
17776SOL    HW260187   9.673   2.268   9.463  0.8975  1.0248  0.2081
17777SOL     OW60188  10.398   1.521   8.925 -0.4460  0.4718 -0.0829
17777SOL    HW160189  10.313   1.482   8.947  0.0669  0.3089  1.7105
17777SOL    HW260190  10.460   1.483   8.987  1.0666  0.2174 -1.6859
17778SOL     OW60191   4.411   3.552   5.137  0.3694  0.5591 -0.0898
17778SOL    HW160192   4.451   3.567   5.051  1.2797  0.1921  0.2592
17778SOL    HW260193   4.480   3.511   5.189 -0.5342 -0.2813  0.4735
17779SOL     OW60194   1.570  11.746   3.802 -0.4336  0.3263 -0.5653
17779SOL    HW160195   1.603  11.696   3.877  2.3864  1.6753 -0.7841
17779SOL    HW260196   1.490  11.786   3.834  0.0942 -0.0443  1.3644
17780SOL     OW60197   8.371   8.304   4.272 -0.5099 -0.6050  0.3232
17780SOL    HW160198   8.411   8.309   4.185  1.3705  0.2528  1.1660
17780SOL    HW260199   8.277   8.311   4.256 -0.2745 -1.2992 -1.6827
17781SOL     OW60200   0.005   8.491  12.396 -0.3451  0.4140 -0.3326
17781SOL    HW160201   0.090   8.483  12.352  0.2929  2.5752  0.3814
17781SOL    HW260202  -0.040   8.561  12.348 -0.9669  0.5224  0.3987
17782SOL     OW60203   2.539   8.183   1.840  0.0619 -0.0444 -0.1626
17782SOL    HW160204   2.543   8.088   1.850  2.0558  0.0205  0.1332
17782SOL    HW260205   2.556   8.198   1.747  0.6102  0.0385 -0.0535
17783SOL     OW60206   3.780   0.854   8.647  0.2803 -0.1547  0.1362
17783SOL    HW160207   3.872   0.872   8.627 -0.0294  0.0642 -1.1989
17783SOL    HW260208   3.783   0.789   8.717  1.4413  1.2549  1.4925
17784SOL     OW60209  11.158  11.249  12.266  0.1346  0.0853  0.2228
17784SOL    HW160210  11.088  11.217  12.209  0.9747  2.0663 -2.0972
17784SOL    HW260211  11.131  11.338  12.289 -0.1084 -0.5991  2.9489
17785SOL     OW60212   4.244  11.529   2.226 -0.0167 -0.0236 -0.1630
17785SOL    HW160213   4.182  11.529   2.153  0.9636 -0.6631 -1.0295
17785SOL    HW260214   4.312  11.591   2.200 -0.9010  1.6617  1.3589
17786SOL     OW60215   0.747   7.815   1.852 -0.3860  0.9485  0.2391
17786SOL    HW160216   0.797   7.742   1.889 -0.8734  0.3579 -0.2471
17786SOL    HW260217   0.749   7.882   1.920 -0.3296  0.3009  0.8870
17787SOL     OW60218   8.508   4.381   8.154 -0.0504 -0.7114  0.0424
17787SOL    HW160219   8.488   4.311   8.217 -1.3630 -0.0236  0.4190
17787SOL    HW260220   8.455   4.455   8.183  2.5085  1.0195  0.6200
17788SOL     OW60221   0.522  11.835   8.760  0.5428  0.4830  0.4199
17788SOL    HW160222   0.487  11.750   8.786  0.1271 -0.1059 -1.8248
17788SOL    HW260223   0.447  11.894   8.767 -0.0084 -0.0216 -0.9641
17789SOL     OW60224   1.298   3.992   7.820 -0.8915  0.4797  0.4711
17789SOL    HW160225   1.258   4.074   7.793 -1.0834  0.3424  0.3307
17789SOL    HW260226   1.226   3.929   7.818 -0.3988 -0.0634 -1.0986
17790SOL     OW60227   6.293  10.874   8.549  0.0057  0.3130  0.2443
17790SOL    HW160228   6.316  10.966   8.561  0.3113  0.4878 -1.4476
17790SOL    HW260229   6.218  10.860   8.607 -0.9590  2.0046 -0.5276
17791SOL     OW60230   2.259   1.870   1.050 -0.0340 -0.0616 -0.8577
17791SOL    HW160231   2.292   1.784   1.075 -2.0841 -1.0995 -1.4710
17791SOL    HW260232   2.324   1.932   1.083  1.6829 -1.8510 -0.7170
17792SOL     OW60233   6.098   9.117   4.625  0.3012  0.3506 -0.0268
17792SOL    HW160234   6.074   9.193   4.573  0.4013 -0.4732 -1.3120
17792SOL    HW260235   6.050   9.128   4.707 -1.3549  0.7295 -1.0025
17793SOL     OW60236   1.722   2.471   4.011  0.5307  0.1676  0.0708
17793SOL    HW160237   1.668   2.403   3.970  1.6466  0.1766 -1.5107
17793SOL    HW260238   1.790   2.422   4.058 -0.2241  0.1758  1.2123
17794SOL     OW60239   4.874  11.045   3.123  0.1181  0.0334 -0.4734
17794SOL    HW160240   4.920  11.043   3.039 -0.9948 -1.2763 -1.0884
17794SOL    HW260241   4.838  10.957   3.132  3.0633 -1.0597  3.0637
17795SOL     OW60242   2.075  12.542   9.120  0.0947 -0.0637  0.3000
17795SOL    HW160243   1.999  12.555   9.177 -0.2665  3.9326 -0.8140
17795SOL    HW260244   2.040  12.499   9.043 -0.8306  0.6790  0.2878
17796SOL     OW60245   0.210   4.399   6.920 -0.0541  0.4412  0.1407
17796SOL    HW160246   0.178   4.387   7.010  2.7101 -0.4617  1.0973
17796SOL    HW260247   0.270   4.473   6.926 -1.5044  1.8558 -1.5241
17797SOL     OW60248  10.647   7.044   5.732  0.2389  0.1176 -0.1239
17797SOL    HW160249  10.582   7.114   5.739  0.8655  0.8421 -1.3120
17797SOL    HW260250  10.625   7.000   5.650  1.5273  0.6764 -0.7888
17798SOL     OW60251  10.273   4.553   6.569 -0.3340 -0.0130 -0.2838
17798SOL    HW160252  10.263   4.464   6.604 -0.6508 -0.3062 -1.0952
17798SOL    HW260253  10.304   4.604   6.643 -0.9088 -0.6377  0.4068
17799SOL     OW60254   3.487   9.239   6.488  0.2315 -0.3314 -0.0284
17799SOL    HW160255   3.484   9.243   6.584 -0.8250  1.6634 -0.0718
17799SOL    HW260256   3.450   9.323   6.460  0.7439 -0.7662 -2.1948
17800SOL     OW60257   0.568   5.491  12.407 -0.2886  0.2038  0.2130
17800SOL    HW160258   0.547   5.459  12.320  0.0736  2.4723 -0.7889
17800SOL    HW260259   0.573   5.413  12.462 -2.7513 -1.1193 -1.2980
17801SOL     OW60260   6.888   4.683   8.727 -0.2054 -1.1859  0.2005
17801SOL    HW160261   6.855   4.677   8.637  2.5900  1.4800 -1.1979
17801SOL    HW260262   6.940   4.603   8.738  1.0867 -0.6328 -1.4110
17802SOL     OW60263   9.995   5.981   1.206  0.2951  0.0601 -0.3333
17802SOL    HW160264  10.006   5.886   1.217 -2.3767 -0.4928 -1.7048
17802SOL    HW260265  10.074   6.008   1.158  1.3044 -1.3546  0.4399
17803SOL     OW60266   4.419   9.677   8.449 -0.5307 -0.2581  0.1323
17803SOL    HW160267   4.350   9.679   8.515 -1.6925 -0.3083 -1.0271
17803SOL    HW260268   4.373   9.655   8.368  0.6385  1.0996 -0.9502
17804SOL     OW60269   4.017   7.930   8.567 -0.1091  0.0472  0.4311
17804SOL    HW160270   3.936   7.892   8.533  0.3130 -1.3647  0.9422
17804SOL    HW260271   4.066   7.856   8.603  0.5214  1.1461  1.9589
17805SOL     OW60272   6.677   6.219   7.269 -0.1097 -0.0142 -0.5032
17805SOL    HW160273   6.589   6.243   7.241  0.0175 -0.7587 -1.6119
17805SOL    HW260274   6.673   6.123   7.278  1.2319 -0.3789 -3.0682
17806SOL     OW60275   4.973   7.140   8.351  0.6681  0.0535 -0.2248
17806SOL    HW160276   5.049   7.193   8.327  1.4057 -0.2498  1.2838
17806SOL    HW260277   4.993   7.110   8.440 -0.3534 -1.6201 -0.5273
17807SOL     OW60278  10.575   6.006   9.832  0.0538  0.5349  0.1235
17807SOL    HW160279  10.536   5.955   9.761  0.7417 -1.4617  1.1114
17807SOL    HW260280  10.661   5.967   9.845  1.7286  3.5733 -0.6927
17808SOL     OW60281   8.165   0.604   1.912  0.1206 -0.5361 -0.1608
17808SOL    HW160282   8.159   0.696   1.887 -0.5734 -0.6499 -0.4564
17808SOL    HW260283   8.244   0.598   1.965  0.0721  0.2642  0.0127
17809SOL     OW60284   0.794   0.407   9.202  0.1361  0.1006 -0.2150
17809SOL    HW160285   0.784   0.322   9.160  0.7857  0.1667 -0.5196
17809SOL    HW260286   0.705   0.441   9.209 -0.0224 -0.0908 -1.1655
17810SOL     OW60287   4.685   8.594   0.785 -0.1638 -0.0946  0.0414
17810SOL    HW160288   4.626   8.647   0.838 -0.5875 -1.0852  0.5821
17810SOL    HW260289   4.743   8.657   0.743 -2.0583  0.9713 -1.0911
17811SOL     OW60290   0.486  11.195  12.566  0.1685  0.2360  0.2602
17811SOL    HW160291   0.516  11.108  12.540 -0.3342  0.4012 -0.9194
17811SOL    HW260292   0.549  11.255  12.525  0.7375  0.4385  1.3770
17812SOL     OW60293   9.196   2.009   2.200 -0.9805 -0.1764 -0.0808
17812SOL    HW160294   9.256   2.025   2.127  0.0618  2.4867  1.2013
17812SOL    HW260295   9.233   1.932   2.245 -0.7215 -0.8530 -1.4046
17813SOL     OW60296   1.221   8.484   1.998  0.1417 -0.4011  0.1188
17813SOL    HW160297   1.201   8.465   1.907 -2.3048  0.0219  0.4992
17813SOL    HW260298   1.251   8.401   2.035  1.7670 -0.4344 -1.1534
17814SOL     OW60299   6.298   7.868   0.899 -0.2605  0.1958  0.4478
17814SOL    HW160300   6.362   7.866   0.970 -0.8208  2.6840  1.0887
17814SOL    HW260301   6.306   7.955   0.860 -1.9480 -0.0947 -0.6975
17815SOL     OW60302  10.421   3.917  11.322 -0.4844 -0.2365  0.3901
17815SOL    HW160303  10.498   3.968  11.296  1.3674 -1.3873  3.0996
17815SOL    HW260304  10.424   3.839  11.267 -0.7633  0.4864 -0.6896
17816SOL     OW60305   2.919   2.360   4.791 -0.1030 -0.7307 -0.4042
17816SOL    HW160306   2.855   2.386   4.725  0.7401  0.5169 -0.7789
17816SOL    HW260307   2.902   2.267   4.806 -2.7576 -0.1931  0.3946
17817SOL     OW60308  11.836  10.929   1.295  0.2135  0.0661  0.4599
17817SOL    HW160309  11.823  10.836   1.315  0.3895  0.1778  1.0931
17817SOL    HW260310  11.880  10.964   1.371  1.2922  0.4036 -0.3055
17818SOL     OW60311   0.828   5.665   7.258  0.1996  0.0400  0.4007
17818SOL    HW160312   0.783   5.676   7.174 -0.9979 -2.0652  0.6804
17818SOL    HW260313   0.784   5.590   7.298  1.0139  0.7274  2.7418
17819SOL     OW60314  11.021   0.709  12.333  0.3535 -0.0755 -0.0519
17819SOL    HW160315  10.982   0.727  12.247  0.9176 -0.1589 -0.3263
17819SOL    HW260316  11.030   0.614  12.336 -1.1279 -0.2128  0.7466
17820SOL     OW60317   3.406   7.443   1.049  0.0922 -0.5767 -0.0526
17820SOL    HW160318   3.446   7.489   0.975 -0.0431  1.4018  1.0394
17820SOL    HW260319   3.312   7.450   1.034  0.0473  0.3681  0.5780
17821SOL     OW60320   6.624   0.638   3.172  0.7397  0.8768 -0.0420
17821SOL    HW160321   6.710   0.660   3.136  1.0255 -0.6467 -0.3315
17821SOL    HW260322   6.641   0.573   3.240 -0.0184  2.0054  1.2833
17822SOL     OW60323   2.415   0.602  11.882 -0.3315  0.0231 -0.4884
17822SOL    HW160324   2.372   0.609  11.967  1.7173 -1.3862  0.7363
17822SOL    HW260325   2.455   0.687  11.868  0.4407 -0.1422  0.6169
17823SOL     OW60326   1.267   1.085   2.402  0.4816 -0.1370 -0.2027
17823SOL    HW160327   1.223   1.043   2.329 -0.2434 -0.8170  0.5940
17823SOL    HW260328   1.316   1.014   2.445 -0.1769 -0.0424  0.7402
17824SOL     OW60329  11.665  11.394  10.114 -0.6292 -0.2823  0.1196
17824SOL    HW160330  11.606  11.322  10.094  0.8013 -1.1122 -1.3577
17824SOL    HW260331  11.749  11.352  10.134  0.1296  0.9462 -0.3383
17825SOL     OW60332   4.215   4.961  10.711 -0.2248  0.0464  0.0171
17825SOL    HW160333   4.232   5.055  10.704 -0.5117  0.5529  3.8161
17825SOL    HW260334   4.297   4.919  10.685 -0.4701  1.1702 -2.9444
17826SOL     OW60335   8.891   3.668   2.373  0.2326 -0.4099 -0.1163
17826SOL    HW160336   8.847   3.583   2.383 -1.0594  0.2655  0.2580
17826SOL    HW260337   8.820   3.729   2.352  0.7116  1.0506  2.0939
17827SOL     OW60338   0.075   5.442   0.263  0.3947 -0.1408  0.0069
17827SOL    HW160339   0.099   5.533   0.282 -0.3125  0.1042 -0.2245
17827SOL    HW260340   0.070   5.437   0.168 -2.9794  0.5577  0.0209
17828SOL     OW60341   3.892  10.525  10.075 -0.0948  0.5302  0.0144
17828SOL    HW160342   3.820  10.537  10.137 -0.9863  3.6031 -1.4412
17828SOL    HW260343   3.921  10.614  10.054  1.8337 -0.4906 -2.0745
17829SOL     OW60344   2.895   7.223   8.138 -0.6258  0.0087 -0.2439
17829SOL    HW160345   2.840   7.175   8.200 -1.8432  0.7572 -0.7180
17829SOL    HW260346   2.985   7.205   8.167 -1.0161 -2.4020 -0.2998
17830SOL     OW60347   8.841   7.205   3.824  0.1510 -0.4316  0.1222
17830SOL    HW160348   8.839   7.288   3.872  0.3474  1.1668 -2.4177
17830SOL    HW260349   8.873   7.141   3.887  0.0239  1.4343  2.1785
17831SOL     OW60350   6.634   4.649   4.846  0.6838  0.1296  0.3037
17831SOL    HW160351   6.686   4.692   4.914  0.6664  0.5626  0.0481
17831SOL    HW260352   6.684   4.663   4.765 -0.4459  1.7066 -0.1780
17832SOL     OW60353  11.316   4.678   2.041  0.2484  0.3872  0.1567
17832SOL    HW160354  11.368   4.751   2.007 -1.4401  1.3919 -0.3827
17832SOL    HW260355  11.269   4.645   1.964  0.0654 -0.4916  0.6396
17833SOL     OW60356   0.273   3.174   3.068 -0.3459 -0.5717  0.4794
17833SOL    HW160357   0.254   3.139   3.155 -0.1908 -2.6532 -0.2745
17833SOL    HW260358   0.306   3.099   3.018 -0.5580  0.5275 -1.4198
17834SOL     OW60359   9.378  12.414  12.106 -0.0985 -0.2934  0.3755
17834SOL    HW160360   9.371  12.504  12.137  0.9053 -0.0669 -0.0246
17834SOL    HW260361   9.409  12.365  12.182  1.8471  0.1695 -0.0656
17835SOL     OW60362  12.060   4.794   7.311 -0.1747  0.0991  0.4290
17835SOL    HW160363  12.029   4.793   7.220  0.6664  0.9301  0.1125
17835SOL    HW260364  11.993   4.845   7.358  0.1294  0.9582 -0.0366
17836SOL     OW60365  11.900   1.876   3.370 -0.3961  0.1108  0.4080
17836SOL    HW160366  11.805   1.876   3.358 -0.5703 -1.8832  1.4463
17836SOL    HW260367  11.932   1.813   3.306  0.5215  2.2869 -1.4152
17837SOL     OW60368   3.001   4.713   0.384 -0.1311  0.3515  0.1953
17837SOL    HW160369   2.965   4.802   0.381 -1.0556 -0.0375 -1.8220
17837SOL    HW260370   2.957   4.672   0.458 -0.8117  1.1326  0.2453
17838SOL     OW60371   9.768  10.686  12.317  0.5153 -0.0458 -0.1623
17838SOL    HW160372   9.808  10.616  12.265  1.0470 -0.5483  0.8953
17838SOL    HW260373   9.742  10.751  12.252  0.3664 -1.0417 -1.1391
17839SOL     OW60374  11.753   9.734   7.970  0.2024  0.0700  0.0690
17839SOL    HW160375  11.661   9.750   7.951  0.0981 -0.5019  0.0710
17839SOL    HW260376  11.793   9.715   7.885  0.6334  1.7548 -0.1414
17840SOL     OW60377   4.636   2.288  11.087  0.5143  0.2680  0.3287
17840SOL    HW160378   4.643   2.206  11.037 -2.5459 -1.4018  2.2714
17840SOL    HW260379   4.590   2.348  11.028  0.9513 -0.1116 -0.4087
17841SOL     OW60380   8.182   3.559   7.850  0.2852  0.4054 -0.6721
17841SOL    HW160381   8.244   3.556   7.923 -1.3513  1.8547  0.8792
17841SOL    HW260382   8.203   3.640   7.803 -0.6936  1.1584  0.1512
17842SOL     OW60383   6.999   5.992   7.803  0.4138  0.0605 -0.2170
17842SOL    HW160384   7.063   5.989   7.732 -1.0316  0.2431 -1.5774
17842SOL    HW260385   6.963   5.904   7.808  0.7347 -0.0372  0.5280
17843SOL     OW60386  10.587   4.622  10.031  0.7691  0.0966 -0.2259
17843SOL    HW160387  10.548   4.641  10.116 -0.9808 -2.9260 -0.2011
17843SOL    HW260388  10.680   4.641  10.042  0.4199  0.8205  1.9842
17844SOL     OW60389   7.251   7.239   7.253 -0.2170  0.2020  0.1163
17844SOL    HW160390   7.204   7.186   7.317  1.4813 -1.2958  0.2037
17844SOL    HW260391   7.293   7.176   7.196  1.8525  1.4269  0.1915
17845SOL     OW60392   5.802  11.739   3.581  0.0420 -0.0560 -0.4907
17845SOL    HW160393   5.827  11.780   3.664  0.4311 -1.2042 -0.0187
17845SOL    HW260394   5.779  11.812   3.524  1.8999  0.8836 -0.0914
17846SOL     OW60395  11.182   0.311   2.891  0.7250  0.6434 -0.3354
17846SOL    HW160396  11.165   0.392   2.939  0.2071  0.2207  0.2113
17846SOL    HW260397  11.113   0.251   2.920  1.7095 -0.3373  0.0636
17847SOL     OW60398  12.335   6.705   5.364  0.2579  0.1374 -0.0944
17847SOL    HW160399  12.248   6.685   5.398  0.8220 -1.6895  0.3436
17847SOL    HW260400  12.390   6.633   5.392  2.3943  2.1375  1.2257
17848SOL     OW60401   5.169   4.164   8.251  0.0127  0.3315  0.1503
17848SOL    HW160402   5.092   4.217   8.231  0.2726 -0.0310 -2.1898
17848SOL    HW260403   5.162   4.090   8.191  2.1389  0.2830 -0.1162
17849SOL     OW60404   3.524  10.819   3.336  0.3618  0.3667 -0.2702
17849SOL    HW160405   3.514  10.812   3.431  0.9907  1.7808 -0.0660
17849SOL    HW260406   3.441  10.787   3.300 -0.8600  2.0864  0.8652
17850SOL     OW60407   4.716   0.266  11.440 -0.5340 -0.3187 -0.0995
17850SOL    HW160408   4.694   0.204  11.509  1.5956  1.0857  1.9686
17850SOL    HW260409   4.774   0.330  11.482  0.8478  0.6380 -3.1899
17851SOL     OW60410   0.742   1.601  12.499  0.1871  0.9535 -0.8374
17851SOL    HW160411   0.837   1.609  12.499  0.3148 -0.2285  0.2215
17851SOL    HW260412   0.724   1.525  12.445  0.0094 -0.0850  0.6318
17852SOL     OW60413   2.495   6.295   6.775 -0.2652  0.8792  0.1061
17852SOL    HW160414   2.495   6.381   6.817 -2.1227  1.9195 -1.8508
17852SOL    HW260415   2.418   6.251   6.812 -0.8369  1.0975 -0.7908
17853SOL     OW60416   1.053   4.457   1.057 -0.4200  0.0867  0.5238
17853SOL    HW160417   1.053   4.418   1.144 -0.6424  1.8401  1.3586
17853SOL    HW260418   0.963   4.450   1.027 -0.0796 -1.7618 -0.1999
17854SOL     OW60419   5.940   9.626   8.237  0.3453 -0.3915  0.3128
17854SOL    HW160420   5.984   9.542   8.226 -0.4737 -0.8341  0.3400
17854SOL    HW260421   5.913   9.651   8.148  2.3119  0.8275  0.0051
17855SOL     OW60422   8.278   6.192   2.085 -0.2354 -0.3123 -0.1226
17855SOL    HW160423   8.199   6.186   2.032 -1.1846  0.0707  1.2207
17855SOL    HW260424   8.259   6.141   2.164  0.4801  0.5986  0.6595
17856SOL     OW60425   9.851   5.087   5.109  0.0607  0.2453  0.5799
17856SOL    HW160426   9.872   5.013   5.052 -0.5352 -0.1698  0.8869
17856SOL    HW260427   9.931   5.103   5.159  0.3382  0.1162  0.1800
17857SOL     OW60428  10.787   8.634   5.783 -0.1686  0.0194  0.5736
17857SOL    HW160429  10.835   8.645   5.700 -0.9717  1.8683  0.3049
17857SOL    HW260430  10.849   8.662   5.850 -0.2492  0.6745  0.3834
17858SOL     OW60431   4.501   5.679  10.359  0.1902 -0.0873  0.2175
17858SOL    HW160432   4.596   5.668  10.361  0.1667 -0.8555 -1.1128
17858SOL    HW260433   4.477   5.662  10.268 -1.2300  0.0971  0.5259
17859SOL     OW60434   4.089   8.917   9.129  0.4253 -0.2049  0.1966
17859SOL    HW160435   4.094   8.890   9.221 -1.9014 -0.8209  0.2001
17859SOL    HW260436   4.001   8.891   9.101  0.3721  1.7166 -1.6673
17860SOL     OW60437  10.745  12.151   1.127  0.3923  0.2074  0.2653
17860SOL    HW160438  10.835  12.151   1.161  0.7685 -0.1592 -0.7039
17860SOL    HW260439  10.755  12.146   1.032 -0.6219  1.9509  0.0158
17861SOL     OW60440   0.043   2.518   5.431 -0.5459 -0.7526  0.5974
17861SOL    HW160441  -0.033   2.564   5.397 -0.0265  1.0246  1.7206
17861SOL    HW260442   0.099   2.502   5.355 -1.5353 -1.1111 -0.0638
17862SOL     OW60443   4.924   8.803   3.926 -0.1158  0.8405  0.8252
17862SOL    HW160444   4.910   8.884   3.877 -0.4934  1.0791  1.3300
17862SOL    HW260445   4.990   8.825   3.991  1.9222  0.0061 -0.8290
17863SOL     OW60446  12.559   3.964   9.947  0.2206 -0.4520  0.3288
17863SOL    HW160447  12.603   3.971  10.032 -2.3071 -0.7408  1.7690
17863SOL    HW260448  12.629   3.946   9.885  2.0914 -0.9925  2.4715
17864SOL     OW60449   9.132   2.344   6.248  0.8682  0.1705 -0.3061
17864SOL    HW160450   9.177   2.336   6.164  2.4555 -0.9462  0.5925
17864SOL    HW260451   9.143   2.259   6.290 -0.8110  0.3556  0.6177
17865SOL     OW60452   3.824   9.525  11.115  0.1713  0.5799 -0.0901
17865SOL    HW160453   3.767   9.601  11.104 -0.1723  0.5838  1.4040
17865SOL    HW260454   3.839   9.520  11.210  0.1290 -1.2372 -0.1367
17866SOL     OW60455   4.201   3.180   2.599  0.2149 -0.4618 -0.0026
17866SOL    HW160456   4.142   3.142   2.535 -0.2092  1.0571 -0.5594
17866SOL    HW260457   4.191   3.125   2.677 -0.5807 -1.2798 -0.6644
17867SOL     OW60458   0.062   1.930  12.415  0.0361  0.2166  0.0965
17867SOL    HW160459   0.007   1.905  12.341  2.3670 -2.8265 -0.8209
17867SOL    HW260460   0.012   1.904  12.492 -0.6582 -0.6098 -0.6112
17868SOL     OW60461  11.284   0.473   0.906 -0.3501  0.1179  0.0006
17868SOL    HW160462  11.290   0.410   0.833  1.5457 -2.0966  1.9109
17868SOL    HW260463  11.224   0.432   0.968 -0.7096  1.2056  0.3808
17869SOL     OW60464   0.525  10.106   8.147 -0.5338 -0.4468 -0.4365
17869SOL    HW160465   0.557  10.181   8.097  1.8777 -0.0487  1.5077
17869SOL    HW260466   0.553  10.030   8.098  1.9338 -0.0647  0.2700
17870SOL     OW60467   2.341   8.733  11.129  0.0240  0.0577  0.0617
17870SOL    HW160468   2.399   8.682  11.074 -0.9848  0.8624 -1.8581
17870SOL    HW260469   2.321   8.811  11.077 -1.6456  0.4644  1.2148
17871SOL     OW60470   4.924   2.868   8.884 -0.0685  0.0053  0.5858
17871SOL    HW160471   4.967   2.812   8.948  0.0680  0.8582  1.2525
17871SOL    HW260472   4.985   2.941   8.871 -0.4718  0.2660  0.1209
17872SOL     OW60473   4.063   2.703  11.152  0.1888 -1.0519 -0.4811
17872SOL    HW160474   3.977   2.744  11.167  0.2009 -1.3385  0.4761
17872SOL    HW260475   4.068   2.635  11.219  0.9573 -1.3740 -0.8619
17873SOL     OW60476   9.265   6.002   5.568 -0.2457 -0.2432 -0.7233
17873SOL    HW160477   9.287   5.912   5.592  0.6945 -0.2516 -1.5671
17873SOL    HW260478   9.172   5.999   5.545 -0.2704 -0.9525 -0.5340
17874SOL     OW60479   0.609   5.488   9.393  0.6992  0.6042 -0.3055
17874SOL    HW160480   0.584   5.413   9.339 -1.0381  1.2756 -0.4980
17874SOL    HW260481   0.664   5.541   9.336  0.9698  0.0603 -0.5569
17875SOL     OW60482   9.821   7.552   1.423 -0.0220 -0.0373 -0.3423
17875SOL    HW160483   9.744   7.608   1.419  1.4507  2.1885  0.5931
17875SOL    HW260484   9.891   7.609   1.454  2.6613 -1.2061 -3.6220
17876SOL     OW60485   5.627   4.781   1.987 -0.4685 -0.3600 -0.3175
17876SOL    HW160486   5.606   4.783   2.080 -2.0916  0.8656 -0.6577
17876SOL    HW260487   5.719   4.808   1.982 -0.4527 -0.1512  0.9032
17877SOL     OW60488   3.548  12.564   2.944  0.0202  0.4444 -0.1071
17877SOL    HW160489   3.539  12.596   2.854  0.0402 -0.6754 -0.5176
17877SOL    HW260490   3.642  12.559   2.958  0.0510 -1.2508 -0.7288
17878SOL     OW60491   0.865   5.589  11.865 -0.0369  0.2225 -0.6680
17878SOL    HW160492   0.782   5.570  11.821  0.1055  1.1801 -1.3870
17878SOL    HW260493   0.840   5.613  11.954 -0.3551 -1.4372 -0.2809
17879SOL     OW60494   6.125  10.258   4.502 -0.3349 -0.5394  0.6172
17879SOL    HW160495   6.165  10.331   4.549 -1.0678  0.4896 -0.3131
17879SOL    HW260496   6.160  10.180   4.545  1.9608  0.3120  0.4303
17880SOL     OW60497   0.551   3.338   9.266 -0.9175  0.0096 -0.4436
17880SOL    HW160498   0.584   3.255   9.299 -1.2799 -0.0772 -0.3027
17880SOL    HW260499   0.487   3.367   9.331  0.5891  1.3645  0.5361
17881SOL     OW60500   7.205   4.965   7.489  0.2826 -0.5247  0.4355
17881SOL    HW160501   7.289   4.964   7.534  0.3135 -1.9138  0.3892
17881SOL    HW260502   7.223   4.931   7.402 -0.1765  0.0094  0.1236
17882SOL     OW60503  10.901   8.432   4.862 -0.2244 -0.1880 -0.7929
17882SOL    HW160504  10.881   8.341   4.884 -0.7494 -0.2061 -1.3150
17882SOL    HW260505  10.992   8.430   4.834 -0.2557 -0.5763 -0.8789
17883SOL     OW60506   7.781   6.258   5.633 -0.1661  0.1383  0.0162
17883SOL    HW160507   7.852   6.212   5.590 -0.8876  0.4438 -1.5943
17883SOL    HW260508   7.702   6.208   5.610 -0.7610  1.2353 -0.4227
17884SOL     OW60509   4.384   0.502   5.299 -0.1601 -0.6664  0.2103
17884SOL    HW160510   4.375   0.503   5.394  0.7741 -0.1234  0.3120
17884SOL    HW260511   4.321   0.567   5.268  1.5265  1.3313  0.7057
17885SOL     OW60512   7.211   5.303   2.150 -0.1314  0.0529  0.1817
17885SOL    HW160513   7.268   5.227   2.156  0.2369  0.2941 -0.2178
17885SOL    HW260514   7.235   5.358   2.225 -1.3096 -0.8257  1.2479
17886SOL     OW60515   5.092   7.509   1.479  0.4490 -0.6664  0.6476
17886SOL    HW160516   5.001   7.536   1.495  0.5889  0.6569 -0.5292
17886SOL    HW260517   5.090   7.468   1.393  1.3563  1.9686 -0.7534
17887SOL     OW60518  11.476   7.152   3.296  0.0928  0.5615  0.3117
17887SOL    HW160519  11.487   7.185   3.207 -0.7308  1.5594  0.5690
17887SOL    HW260520  11.381   7.145   3.308  0.2101 -0.2781  0.8645
17888SOL     OW60521   0.947   4.122  11.364  0.3452 -0.1255  0.6332
17888SOL    HW160522   1.040   4.103  11.358  0.0879 -1.3241  0.3490
17888SOL    HW260523   0.932   4.189  11.297  0.7216 -1.0352 -0.3947
17889SOL     OW60524   1.991   2.771   9.996 -0.1496 -0.1901  0.2718
17889SOL    HW160525   1.901   2.804  10.002 -0.6346 -1.5325  0.6735
17889SOL    HW260526   2.010   2.772   9.902 -0.3498  0.6656  0.2275
17890SOL     OW60527   2.656  10.707  12.300  0.5585  0.3717  0.5576
17890SOL    HW160528   2.685  10.750  12.219 -0.3207  1.6356  0.8872
17890SOL    HW260529   2.641  10.616  12.274  0.1814  0.7808 -0.7414
17891SOL     OW60530   4.718  11.966   9.899 -0.3360 -0.4458 -0.8542
17891SOL    HW160531   4.686  12.044   9.945 -1.8431 -1.0725 -0.7798
17891SOL    HW260532   4.778  12.001   9.833 -0.8303  0.7727 -0.6898
17892SOL     OW60533   7.162   7.619   7.986 -0.0160 -0.8827 -0.2472
17892SOL    HW160534   7.185   7.705   7.952 -0.8695 -0.3508  0.4725
17892SOL    HW260535   7.230   7.561   7.954  1.2306  0.2731  0.2287
17893SOL     OW60536   1.743   2.599   8.316  0.2378 -0.4380 -0.1179
17893SOL    HW160537   1.711   2.560   8.235 -2.9698 -0.9386  1.2343
17893SOL    HW260538   1.749   2.526   8.378 -2.6732  0.5205  1.5222
17894SOL     OW60539   8.936   1.303   8.544 -0.2013 -0.1124 -0.1742
17894SOL    HW160540   8.875   1.258   8.485 -0.7046 -0.3374  0.5022
17894SOL    HW260541   9.017   1.254   8.537 -0.5902 -0.8271  0.1540
17895SOL     OW60542   6.471   8.058   7.433  0.1343 -0.1026 -0.3432
17895SOL    HW160543   6.452   7.992   7.367  0.0660 -1.1419  0.6769
17895SOL    HW260544   6.566   8.054   7.444  0.2930  0.9078 -1.2048
17896SOL     OW60545   6.855   2.315   0.376  0.4265  0.6652  0.0692
17896SOL    HW160546   6.886   2.319   0.285  0.1451  1.1872 -0.0050
17896SOL    HW260547   6.814   2.229   0.383  1.1983  0.2792 -0.0544
17897SOL     OW60548   3.304   9.885   9.105  0.1633 -0.3845 -0.2022
17897SOL    HW160549   3.383   9.902   9.156 -0.0570 -0.8388  0.2977
17897SOL    HW260550   3.329   9.904   9.015  1.0056 -1.0284 -0.1144
17898SOL     OW60551   3.832   8.859   3.986  0.7492  0.3508  0.1346
17898SOL    HW160552   3.914   8.880   3.940 -1.3093  3.6856 -2.4584
17898SOL    HW260553   3.818   8.932   4.046  0.5468 -1.1712  2.0297
17899SOL     OW60554   7.874   3.647   9.784  0.0276 -0.1269 -0.0116
17899SOL    HW160555   7.931   3.714   9.822 -0.1621 -0.3380  0.6721
17899SOL    HW260556   7.852   3.591   9.858  0.5186 -1.1944 -0.6462
17900SOL     OW60557   9.854   3.474   4.756  0.1062  0.5336  0.1339
17900SOL    HW160558   9.851   3.416   4.833  0.4191 -1.4080 -1.2592
17900SOL    HW260559   9.766   3.514   4.753 -0.3941 -0.4842  0.6668
17901SOL     OW60560   0.296   0.251   4.202  0.4426  0.2781  0.0822
17901SOL    HW160561   0.388   0.234   4.183 -0.0825 -0.7972 -1.7288
17901SOL    HW260562   0.248   0.180   4.159 -1.2635  0.9436  0.7669
17902SOL     OW60563   5.474   4.294   8.652  0.0169 -0.1918  0.3038
17902SOL    HW160564   5.403   4.272   8.712 -0.0969 -1.7829 -0.3869
17902SOL    HW260565   5.439   4.277   8.565  0.9298 -0.0845 -0.0971
17903SOL     OW60566   1.080   4.266  11.165  0.6934 -0.4721 -0.2121
17903SOL    HW160567   1.099   4.358  11.183  2.1317 -0.9414  0.8316
17903SOL    HW260568   1.134   4.244  11.089 -1.1982  0.0267 -1.8112
17904SOL     OW60569   0.787   5.946   1.363 -0.0554 -0.0482 -0.2860
17904SOL    HW160570   0.868   5.996   1.357  0.1607 -0.3351  0.1658
17904SOL    HW260571   0.729   6.000   1.417  0.4670 -0.6461  0.9019
17905SOL     OW60572  10.947   3.589   0.403  0.2850  0.1148 -0.2086
17905SOL    HW160573  10.853   3.602   0.416  0.5595  0.1800  2.2542
17905SOL    HW260574  10.953   3.534   0.325 -1.7713  0.4025 -0.6296
17906SOL     OW60575   0.753   2.136   3.579 -0.5214 -0.2159 -0.5745
17906SOL    HW160576   0.755   2.168   3.489 -0.0067  2.0555  0.1987
17906SOL    HW260577   0.844   2.118   3.601 -0.6899 -1.2010 -0.6164
17907SOL     OW60578   2.595   9.688   5.316 -0.1171  0.5164  0.0414
17907SOL    HW160579   2.546   9.675   5.234  1.8742 -1.0406 -0.9968
17907SOL    HW260580   2.574   9.610   5.368  0.0246  0.6212  0.2526
17908SOL     OW60581   9.876   7.486   3.365 -0.1354 -0.4042 -0.3900
17908SOL    HW160582   9.902   7.402   3.403 -1.3528 -1.1508 -1.1207
17908SOL    HW260583   9.790   7.503   3.403  0.0745  0.4934 -0.2996
17909SOL     OW60584   8.837   9.466   8.921 -0.2427 -0.4255  0.2753
17909SOL    HW160585   8.788   9.455   8.840 -2.2615 -1.4388  1.5484
17909SOL    HW260586   8.847   9.377   8.956  1.4287 -0.1057  0.6954
17910SOL     OW60587   9.670   3.365   0.783  0.2668  0.2470 -0.2750
17910SOL    HW160588   9.731   3.298   0.754  0.1576  0.0987 -0.1608
17910SOL    HW260589   9.608   3.319   0.840  1.4318  0.8046  1.5511
17911SOL     OW60590  11.897   2.538   9.327 -0.3653  0.2313 -0.3767
17911SOL    HW160591  11.901   2.466   9.389 -1.0106 -0.3107 -0.9504
17911SOL    HW260592  11.852   2.608   9.374  0.6322  0.4251  0.3186
17912SOL     OW60593   6.512   2.624   3.135 -0.1223  0.3864 -1.0398
17912SOL    HW160594   6.577   2.682   3.175 -0.7601  0.8450 -0.6431
17912SOL    HW260595   6.434   2.634   3.190 -0.8664  0.6713 -2.1047
17913SOL     OW60596   2.467   0.565   2.559 -0.3450 -0.2069  0.2876
17913SOL    HW160597   2.473   0.661   2.565  1.2268 -0.2123 -0.5014
17913SOL    HW260598   2.382   0.549   2.517 -0.8920  0.7990  0.9649
17914SOL     OW60599   0.466  10.451   4.583  0.5104 -0.0476  0.4926
17914SOL    HW160600   0.557  10.474   4.602  0.8124  0.7265 -1.6368
17914SOL    HW260601   0.420  10.534   4.586 -0.5195 -0.6305  3.1949
17915SOL     OW60602  12.040  10.782  10.501  0.4400 -0.3007  0.1813
17915SOL    HW160603  12.069  10.781  10.592  1.1366  2.7105  0.0972
17915SOL    HW260604  12.119  10.803  10.451 -0.5928  1.7483 -0.7052
17916SOL     OW60605   9.152  10.058   2.661  0.5664  0.7490  0.2408
17916SOL    HW160606   9.087  10.083   2.727 -0.7981 -1.5648 -0.1290
17916SOL    HW260607   9.206   9.991   2.704  0.2564 -0.1028 -0.6589
17917SOL     OW60608   4.768   8.743   5.860 -0.2315 -0.4860 -0.0104
17917SOL    HW160609   4.773   8.829   5.818 -1.7979  0.0805  0.8661
17917SOL    HW260610   4.713   8.691   5.801 -0.6583 -0.3568  0.2686
17918SOL     OW60611   6.961  10.111   1.843  0.0602  0.3894 -0.0200
17918SOL    HW160612   6.966  10.196   1.798  0.9343  0.7752  0.7839
17918SOL    HW260613   6.879  10.116   1.893 -0.3386  0.4020 -0.6561
17919SOL     OW60614   6.103   0.607   8.803 -0.3545  0.1746  0.0327
17919SOL    HW160615   6.037   0.662   8.844  0.7569  1.0187  0.7382
17919SOL    HW260616   6.155   0.574   8.875  0.9844  0.8316 -0.6039
17920SOL     OW60617   0.814   6.316   6.507  1.0819  0.0683 -0.8620
17920SOL    HW160618   0.823   6.224   6.482  0.7702 -0.3999  0.6079
17920SOL    HW260619   0.756   6.354   6.441 -0.2779 -1.2616 -0.5065
17921SOL     OW60620   6.315   3.962   0.920  0.2677  0.5663  0.7533
17921SOL    HW160621   6.280   4.008   0.844  2.5867  1.3341  0.0866
17921SOL    HW260622   6.359   3.885   0.883 -1.4910 -0.9685  1.6622
17922SOL     OW60623   9.177   2.875   5.486  0.2140  0.0629 -0.1506
17922SOL    HW160624   9.110   2.861   5.420  0.3557  2.4163 -0.8905
17922SOL    HW260625   9.259   2.878   5.436  0.6108 -0.5317  0.4532
17923SOL     OW60626  11.491  12.081   8.924  0.1094 -0.1461  0.2425
17923SOL    HW160627  11.578  12.056   8.895  0.0777  0.7568 -0.6695
17923SOL    HW260628  11.505  12.120   9.011  0.6352  0.1806  0.0118
17924SOL     OW60629   8.791   2.217   0.117 -0.1728  0.6592  0.5975
17924SOL    HW160630   8.750   2.298   0.148  1.1975  1.3235  0.7380
17924SOL    HW260631   8.720   2.170   0.074 -0.7916  2.4118 -0.4148
17925SOL     OW60632   8.006  11.700  12.466 -0.2036  0.6393 -0.1730
17925SOL    HW160633   8.019  11.728  12.556 -1.5599  2.2630 -0.4210
17925SOL    HW260634   8.027  11.777  12.413 -0.1154 -0.0588 -1.1986
17926SOL     OW60635   1.714   0.188   5.698 -0.1265  0.3663  0.2440
17926SOL    HW160636   1.706   0.172   5.604  0.4577 -1.8917  0.5202
17926SOL    HW260637   1.676   0.275   5.711  0.4070  1.0344 -2.1596
17927SOL     OW60638   6.439   6.464   5.167  0.3761  0.5730  0.1350
17927SOL    HW160639   6.524   6.494   5.201  0.6816 -1.8797  1.8330
17927SOL    HW260640   6.461   6.411   5.091  0.1590  1.5686 -0.6374
17928SOL     OW60641  10.441   1.478   0.848  0.0746  0.2043  0.3638
17928SOL    HW160642  10.468   1.559   0.805 -1.1471  0.6191  0.3340
17928SOL    HW260643  10.383   1.435   0.785 -2.0968  1.0378  1.6754
17929SOL     OW60644   3.982   1.299  11.602 -0.2467 -0.0949  0.1775
17929SOL    HW160645   4.028   1.363  11.548 -0.9970 -0.5285 -0.9891
17929SOL    HW260646   3.933   1.352  11.665  0.7354  0.4040  0.5575
17930SOL     OW60647  10.631   0.288   7.589 -0.3915  0.4627 -0.0465
17930SOL    HW160648  10.700   0.266   7.527 -0.5244 -0.6584  0.1694
17930SOL    HW260649  10.553   0.302   7.534 -0.4330 -0.1992 -0.1674
17931SOL     OW60650   7.733   3.017   2.423  0.1296  0.7459 -0.2794
17931SOL    HW160651   7.766   2.952   2.484 -3.0418 -0.1635  0.6740
17931SOL    HW260652   7.729   3.098   2.474 -0.8596  0.3968  0.2295
17932SOL     OW60653   0.981   6.224   7.283  0.0442  0.1023  0.5070
17932SOL    HW160654   0.905   6.187   7.328 -0.6581 -0.0645 -0.7559
17932SOL    HW260655   1.057   6.185   7.326 -0.6198 -0.6443  1.0237
17933SOL     OW60656   2.114   8.348   5.469  0.0066 -0.0325  0.0463
17933SOL    HW160657   2.024   8.321   5.491  0.0648  1.6418  2.7403
17933SOL    HW260658   2.103   8.424   5.413 -0.3097  0.8846  1.3263
17934SOL     OW60659   3.783   9.340   2.309 -0.1062  1.1665  0.5353
17934SOL    HW160660   3.745   9.426   2.325 -0.2242  0.8020  2.4527
17934SOL    HW260661   3.758   9.288   2.385 -1.2226 -1.0042 -1.1707
17935SOL     OW60662   7.250  12.524  12.016 -0.3256  0.3001  0.4053
17935SOL    HW160663   7.165  12.480  12.005 -0.7915  1.7658 -3.1856
17935SOL    HW260664   7.314  12.453  12.009 -1.1734 -0.3579 -1.5290
17936SOL     OW60665   2.410   2.934   4.338 -0.2960 -0.1894  0.1550
17936SOL    HW160666   2.449   2.894   4.417  1.5514  0.5767 -0.3116
17936SOL    HW260667   2.348   2.999   4.372 -2.5500 -2.5819  0.9238
17937SOL     OW60668   9.757   4.171   1.959 -0.0280  0.3699  0.3981
17937SOL    HW160669   9.804   4.089   1.975 -0.5620  0.1935  1.1483
17937SOL    HW260670   9.819   4.239   1.984  0.5816  0.2155 -0.6699
17938SOL     OW60671   7.077   4.804   2.867 -0.0461  0.7347  0.2822
17938SOL    HW160672   6.994   4.815   2.820  0.6534  0.8659 -0.9521
17938SOL    HW260673   7.106   4.894   2.885 -0.2527  0.6865  0.8844
17939SOL     OW60674   4.836   3.769   8.610  0.2389 -0.2564 -0.4688
17939SOL    HW160675   4.902   3.786   8.544  2.3718  1.2142  1.8367
17939SOL    HW260676   4.772   3.840   8.599  1.6006  1.1244  0.1873
17940SOL     OW60677   4.318   3.730   9.110  0.2600  0.1280  0.2696
17940SOL    HW160678   4.233   3.767   9.088  0.3625 -0.4332 -1.1835
17940SOL    HW260679   4.378   3.805   9.108 -0.1899  0.5614  1.5017
17941SOL     OW60680   5.283   9.216   0.551  0.1425  0.7291  0.6651
17941SOL    HW160681   5.355   9.274   0.527 -0.0410  0.6635 -0.0614
17941SOL    HW260682   5.219   9.274   0.595  0.1356  1.0022  0.2998
17942SOL     OW60683   9.829   6.037  12.110 -0.5500 -0.0588 -0.1738
17942SOL    HW160684   9.912   6.046  12.158 -0.9485  1.1746  0.3154
17942SOL    HW260685   9.855   6.016  12.021  0.4962  3.3611 -0.8365
17943SOL     OW60686   1.362   4.723   2.826  0.2266  0.0561  0.0005
17943SOL    HW160687   1.374   4.798   2.767 -1.1509  0.3149  0.0039
17943SOL    HW260688   1.410   4.652   2.784  2.7313  1.2240  0.6833
17944SOL     OW60689   5.643  10.043   8.906 -0.1437 -0.2752  0.1172
17944SOL    HW160690   5.662  10.024   8.998 -0.2945  2.1621  0.7204
17944SOL    HW260691   5.573  10.107   8.909 -0.0793 -0.0734 -1.7041
17945SOL     OW60692   0.656   8.788   0.841  0.3226 -0.1635 -0.3845
17945SOL    HW160693   0.697   8.722   0.897 -0.3696 -0.3278 -0.0535
17945SOL    HW260694   0.629   8.739   0.763  0.7195 -0.0649 -0.5833
17946SOL     OW60695  12.212   7.629  11.559 -0.2601 -0.1888 -0.0446
17946SOL    HW160696  12.293   7.659  11.517  0.1048 -0.7232  0.2601
17946SOL    HW260697  12.144   7.687  11.526 -0.1167 -1.0082 -1.9204
17947SOL     OW60698  12.252   0.638  11.375 -0.2085 -0.0543 -0.3809
17947SOL    HW160699  12.340   0.634  11.339 -0.0083 -2.0176  0.1997
17947SOL    HW260700  12.221   0.726  11.354  1.7671  0.5738 -0.8421
17948SOL     OW60701   3.562   0.262   0.607 -0.0707  0.5788 -0.0857
17948SOL    HW160702   3.520   0.214   0.678  2.5773 -0.4539  0.9126
17948SOL    HW260703   3.513   0.237   0.529 -0.1007 -2.1585  0.7161
17949SOL     OW60704   5.540  10.825   9.446  0.4254  0.7887  0.4295
17949SOL    HW160705   5.617  10.867   9.485 -1.3819  4.1534  0.7538
17949SOL    HW260706   5.547  10.843   9.352  1.3989 -1.4951 -0.0140
17950SOL     OW60707   3.124   9.951  12.096 -0.0527 -0.2143  0.5876
17950SOL    HW160708   3.037   9.992  12.088 -0.1146  0.2399  2.9256
17950SOL    HW260709   3.105   9.857  12.102 -0.1651 -0.3459 -1.1475
17951SOL     OW60710   4.149   9.938   1.862  0.9771 -0.0711 -0.3829
17951SOL    HW160711   4.111   9.938   1.950  1.5459 -2.0721 -0.0938
17951SOL    HW260712   4.086   9.987   1.809  2.2820  4.4484  1.7185
17952SOL     OW60713  12.561   8.690   7.063  0.3977  0.1502 -0.2920
17952SOL    HW160714  12.529   8.724   6.979 -0.6746  0.2718  0.1418
17952SOL    HW260715  12.489   8.706   7.124  0.3964 -1.6370  0.2403
17953SOL     OW60716   3.878   9.005  11.174 -0.1247 -0.4159  0.5137
17953SOL    HW160717   3.887   8.952  11.253  2.9578 -0.1820  0.4560
17953SOL    HW260718   3.914   9.091  11.198 -3.1589  1.1307  0.0310
17954SOL     OW60719   3.919   1.525  11.717  0.0016  0.2739 -0.0331
17954SOL    HW160720   3.825   1.514  11.731  0.2960 -1.6014  0.7561
17954SOL    HW260721   3.936   1.617  11.735 -1.8018  0.8319 -0.9786
17955SOL     OW60722   6.040   1.688   0.918  0.9378 -0.2226 -0.0073
17955SOL    HW160723   5.974   1.744   0.878  0.9621 -0.1120  0.1043
17955SOL    HW260724   5.998   1.654   0.997  1.6680  1.4496  1.1723
17956SOL     OW60725   5.772   8.590  12.037 -0.3121 -0.3606 -0.2709
17956SOL    HW160726   5.682   8.622  12.040 -0.1573  0.0330  0.3012
17956SOL    HW260727   5.796   8.597  11.945 -0.8991 -0.5617 -0.4450
17957SOL     OW60728   6.571  10.510   7.152 -0.2152 -0.1201 -0.1895
17957SOL    HW160729   6.619  10.427   7.140  0.2275  0.2528 -1.0841
17957SOL    HW260730   6.484  10.492   7.116 -0.2700 -0.3433  0.0527
17958SOL     OW60731  10.733   7.703   2.481  0.0181 -0.5397  0.1548
17958SOL    HW160732  10.715   7.660   2.565  2.5858 -0.4854  0.8074
17958SOL    HW260733  10.788   7.640   2.434 -0.7332 -0.2243 -1.1828
17959SOL     OW60734   4.643   0.787   5.239 -0.4166  0.7733 -0.0883
17959SOL    HW160735   4.688   0.722   5.294 -3.1533  0.0885  1.5421
17959SOL    HW260736   4.667   0.763   5.150 -1.5503 -2.8550  0.3846
17960SOL     OW60737   7.850   8.576  11.812 -0.0428  0.1700 -0.0999
17960SOL    HW160738   7.900   8.500  11.844  0.6244  0.1277 -1.2007
17960SOL    HW260739   7.897   8.652  11.848 -0.2876  0.0891  0.4024
17961SOL     OW60740  10.224   7.550   7.041  0.7067  0.2861 -0.3633
17961SOL    HW160741  10.170   7.557   7.120  0.0740  1.3964 -0.8704
17961SOL    HW260742  10.245   7.456   7.035 -0.3397 -0.0243  0.3924
17962SOL     OW60743   2.041   0.952   8.909  0.1779  0.6521  0.2095
17962SOL    HW160744   2.087   0.899   8.845 -0.6701 -1.1910  1.0564
17962SOL    HW260745   2.077   1.040   8.898  2.3734 -0.2712 -0.5643
17963SOL     OW60746   2.632   0.418   0.009  0.2162 -0.1728  0.3540
17963SOL    HW160747   2.663   0.507  -0.011 -0.8135 -0.1984 -1.5382
17963SOL    HW260748   2.691   0.361  -0.039  0.3913 -0.4975  0.9410
17964SOL     OW60749  10.036   9.843   2.962 -0.4931 -0.2797  0.0268
17964SOL    HW160750  10.075   9.931   2.963 -0.2050 -0.3918  1.7297
17964SOL    HW260751  10.017   9.824   3.054 -0.6140 -1.9832 -0.3149
17965SOL     OW60752   7.271  10.383   2.502  0.4521 -0.0541  0.7731
17965SOL    HW160753   7.304  10.331   2.428  0.3776  0.9469  0.0095
17965SOL    HW260754   7.297  10.334   2.580  0.7059 -1.0355  0.0841
17966SOL     OW60755   4.460   0.170   0.643 -0.0913 -0.3345  0.3141
17966SOL    HW160756   4.373   0.150   0.679  0.4789 -0.6764  1.5782
17966SOL    HW260757   4.520   0.117   0.695  1.0822  1.4701  0.9267
17967SOL     OW60758   3.797   8.505   6.628 -0.6866 -0.4461  0.2145
17967SOL    HW160759   3.858   8.454   6.680 -0.3329  0.5694  0.8181
17967SOL    HW260760   3.796   8.462   6.543 -0.3571 -1.4125  0.6886
17968SOL     OW60761   3.078   8.373   4.758 -0.4577  0.3382 -0.4584
17968SOL    HW160762   3.118   8.382   4.672  0.2302  0.8453 -0.0888
17968SOL    HW260763   3.128   8.303   4.800 -0.8251  0.0557 -0.4837
17969SOL     OW60764  10.098   8.534   8.488 -0.2478  0.0822 -0.3929
17969SOL    HW160765  10.117   8.628   8.481 -1.8013  0.4550 -0.0782
17969SOL    HW260766  10.051   8.526   8.571  0.5500 -1.1199 -0.0333
17970SOL     OW60767   6.313  11.615   8.744 -0.1133  0.5199 -0.6264
17970SOL    HW160768   6.300  11.561   8.666 -0.8042 -2.9860  1.6577
17970SOL    HW260769   6.400  11.590   8.776 -1.0705 -0.5954  1.3264
17971SOL     OW60770   4.454   7.476  10.764 -0.0387  0.1288  0.0934
17971SOL    HW160771   4.458   7.454  10.857 -1.3409  3.5135  1.1077
17971SOL    HW260772   4.535   7.524  10.748  0.4900 -1.0015 -0.7618
17972SOL     OW60773   8.405  11.577   2.808 -0.1264 -0.0274  0.0519
17972SOL    HW160774   8.406  11.544   2.898  0.3238 -0.3980 -0.0850
17972SOL    HW260775   8.315  11.607   2.794 -0.4131 -0.7232  0.3530
17973SOL     OW60776   9.981   1.280   4.330  0.4582 -0.0111  0.4361
17973SOL    HW160777   9.929   1.356   4.303 -0.7569 -0.6393  0.9519
17973SOL    HW260778  10.040   1.264   4.256  0.5319  1.2447  0.1990
17974SOL     OW60779   5.995  12.224   6.053 -0.6411  0.1111 -0.1737
17974SOL    HW160780   5.999  12.283   5.978 -0.4234  0.7284  0.3112
17974SOL    HW260781   6.082  12.230   6.093  0.1847 -2.2900 -1.3891
17975SOL     OW60782  11.616   5.550  10.115  0.0822  0.2194 -0.0979
17975SOL    HW160783  11.673   5.617  10.078  0.1342  0.2505  0.0370
17975SOL    HW260784  11.635   5.552  10.209  2.8749 -2.5395 -0.4492
17976SOL     OW60785   1.123   8.382   3.274 -1.1887  0.0415 -0.5234
17976SOL    HW160786   1.162   8.432   3.202 -0.6621  0.8017  0.2740
17976SOL    HW260787   1.030   8.404   3.270 -0.9842  0.9655 -0.2835
17977SOL     OW60788   0.650   0.603   9.390 -0.0922  0.4567  0.6325
17977SOL    HW160789   0.577   0.549   9.361  0.7076 -0.9232  1.0992
17977SOL    HW260790   0.616   0.693   9.389 -0.6042  0.3772 -3.0371
17978SOL     OW60791  12.355   1.932   8.989 -0.1916 -0.1028 -0.3928
17978SOL    HW160792  12.426   1.878   8.955  0.5700  1.2384 -1.0003
17978SOL    HW260793  12.374   1.939   9.083  0.8477  0.7707 -0.6577
17979SOL     OW60794   5.983  10.518   9.628  0.7503  0.2335  0.1705
17979SOL    HW160795   5.938  10.531   9.711  2.4548  0.1335  1.1563
17979SOL    HW260796   5.918  10.474   9.573 -1.6269  3.3357  0.2028
17980SOL     OW60797   6.066  11.544  12.527 -0.1791 -0.1455 -0.4456
17980SOL    HW160798   6.041  11.531  12.435 -0.9069  0.1628 -0.2985
17980SOL    HW260799   6.153  11.505  12.534  0.6345  1.3741 -1.6733
17981SOL     OW60800   1.238   8.882   1.910  0.0637  0.3745 -0.2838
17981SOL    HW160801   1.197   8.804   1.870 -0.5313  0.7609 -0.4428
17981SOL    HW260802   1.296   8.915   1.842  1.0954 -0.5040  0.1459
17982SOL     OW60803   8.409  11.146   7.145  0.1263  0.0883  0.0304
17982SOL    HW160804   8.383  11.087   7.215 -1.7346 -0.1275 -0.7908
17982SOL    HW260805   8.371  11.231   7.169 -1.1490 -0.1489 -1.0141
17983SOL     OW60806  10.321   2.393  10.379 -0.2353  0.0324 -0.2532
17983SOL    HW160807  10.289   2.457  10.316  1.3405  0.5442 -0.5922
17983SOL    HW260808  10.305   2.308  10.338  0.8636  0.3603 -1.4356
17984SOL     OW60809   0.097   2.200   4.893  0.5254  0.1755  0.4522
17984SOL    HW160810   0.081   2.186   4.800  0.9982  0.1958  0.3618
17984SOL    HW260811   0.010   2.203   4.933  0.3273 -0.1963  0.0630
17985SOL     OW60812   7.139   1.299   5.335  0.4748 -0.6066  0.2869
17985SOL    HW160813   7.165   1.299   5.427  0.8413  0.5387  0.2019
17985SOL    HW260814   7.209   1.348   5.290 -0.2327 -0.2254 -0.4314
17986SOL     OW60815  12.291   9.347   1.969 -0.2332 -0.2449  0.1953
17986SOL    HW160816  12.251   9.413   2.025 -1.1850 -0.0054 -0.7420
17986SOL    HW260817  12.295   9.268   2.023  0.2882  0.3822  1.0946
17987SOL     OW60818   0.983   8.703   5.697  0.7597 -0.4207 -0.0724
17987SOL    HW160819   0.937   8.684   5.779  0.9515 -0.5016  0.0174
17987SOL    HW260820   0.925   8.763   5.650 -0.6259 -2.4762 -1.1071
17988SOL     OW60821   4.323   2.307   9.133  0.0867  0.2264  0.1243
17988SOL    HW160822   4.300   2.398   9.114  0.8278  0.5912  0.8955
17988SOL    HW260823   4.360   2.273   9.052  0.4814  0.8410  0.0432
17989SOL     OW60824   1.772  10.712   2.481  0.0968  0.2806  0.4488
17989SOL    HW160825   1.681  10.717   2.510 -0.5891 -0.7053 -1.3529
17989SOL    HW260826   1.818  10.779   2.532 -2.0023  2.0939  0.0955
17990SOL     OW60827   1.093   0.050   9.964 -0.1039 -0.2686  0.6518
17990SOL    HW160828   0.999   0.051   9.976 -0.1917  1.8103  0.2086
17990SOL    HW260829   1.125   0.120  10.020  0.8859  0.6857 -1.0251
17991SOL     OW60830   1.747   8.887   9.280  0.2417  0.3339  0.1345
17991SOL    HW160831   1.661   8.847   9.269  0.3077  0.5253 -1.2463
17991SOL    HW260832   1.803   8.841   9.218  0.7507  1.2961 -0.1428
17992SOL     OW60833  10.259   2.020   3.438  0.0385  0.1024 -0.0386
17992SOL    HW160834  10.232   2.099   3.486  0.9736  0.2540  0.2644
17992SOL    HW260835  10.292   2.052   3.354  0.1935  0.0200 -0.0110
17993SOL     OW60836   6.719   4.226   7.362 -0.0165  0.2375  0.6439
17993SOL    HW160837   6.676   4.172   7.428 -0.2110 -0.3682  0.0316
17993SOL    HW260838   6.729   4.311   7.404 -1.3557  0.2515  1.0001
17994SOL     OW60839   8.577   0.177   4.144  0.2557 -0.2627 -0.0333
17994SOL    HW160840   8.646   0.229   4.101 -0.4836  1.6935  1.0239
17994SOL    HW260841   8.623   0.130   4.213  0.7762 -0.1899 -0.3203
17995SOL     OW60842  10.392   4.629   0.190 -0.9241 -0.0505 -0.5218
17995SOL    HW160843  10.385   4.724   0.184  0.9004  0.3794  2.2698
17995SOL    HW260844  10.465   4.606   0.132 -0.7455  0.3865 -0.4758
17996SOL     OW60845   6.107  11.129   4.853 -0.4840 -0.3833  0.3440
17996SOL    HW160846   6.080  11.218   4.875  3.0596  0.6295  1.3798
17996SOL    HW260847   6.108  11.083   4.937 -0.5634 -0.8203  0.1036
17997SOL     OW60848  10.463   7.698   3.618  0.2394 -0.0649 -0.3845
17997SOL    HW160849  10.491   7.607   3.604  0.0289 -0.3807  1.0675
17997SOL    HW260850  10.515   7.749   3.557  1.5842 -0.9957 -0.0538
17998SOL     OW60851   0.817   6.112  10.044 -0.2281  0.0141  0.1748
17998SOL    HW160852   0.802   6.131   9.952  2.6666  0.0706 -0.3688
17998SOL    HW260853   0.912   6.101  10.052 -0.3331  0.3668  3.2195
17999SOL     OW60854   5.431   5.984   2.899  0.0040  0.0805 -0.2872
17999SOL    HW160855   5.513   5.987   2.850 -0.2807 -1.3850 -0.9115
17999SOL    HW260856   5.417   5.891   2.917 -1.0494  0.3925  0.6361
18000SOL     OW60857  11.653   2.962   4.545  0.1349  0.0373  0.5843
18000SOL    HW160858  11.601   3.029   4.501  0.7709  0.9745  1.2090
18000SOL    HW260859  11.608   2.948   4.628  0.0835 -0.2044  0.5159
18001SOL     OW60860   2.995   2.193  10.113 -0.0147 -0.2040  0.4150
18001SOL    HW160861   3.026   2.209  10.202  0.5605  1.0022  0.0210
18001SOL    HW260862   2.900   2.185  10.121  0.2031 -2.4938  1.4517
18002SOL     OW60863   9.123   0.904   0.697  0.2720 -0.3790 -0.5509
18002SOL    HW160864   9.128   0.987   0.651 -0.8492  0.1798  0.2865
18002SOL    HW260865   9.140   0.838   0.630  0.5347  0.4877 -1.3540
18003SOL     OW60866  11.756   4.119   5.487 -0.0729 -0.2098 -0.1371
18003SOL    HW160867  11.670   4.159   5.479  0.6859  1.4492 -0.5318
18003SOL    HW260868  11.755   4.076   5.572 -1.3618 -0.4221 -0.2419
18004SOL     OW60869   8.287   4.321   2.018  0.1298  0.2650 -0.5259
18004SOL    HW160870   8.242   4.359   1.943  0.6154  1.9527 -0.0077
18004SOL    HW260871   8.226   4.254   2.051 -0.9802  0.9075 -1.2104
18005SOL     OW60872   7.007   0.603   1.339  0.2439 -0.4520  0.1049
18005SOL    HW160873   6.954   0.626   1.415 -0.9737 -1.3812 -0.4168
18005SOL    HW260874   7.076   0.548   1.373 -1.3736 -2.4404  0.3598
18006SOL     OW60875   7.617   5.838   7.198 -0.2806  0.6760 -0.7151
18006SOL    HW160876   7.632   5.920   7.152 -1.5892  1.3759  0.0308
18006SOL    HW260877   7.568   5.864   7.277  2.6112 -0.3182  1.6072
18007SOL     OW60878   7.414   1.057  11.207 -0.1802  0.3611 -0.0712
18007SOL    HW160879   7.464   1.133  11.179 -0.4889  0.2660 -0.9172
18007SOL    HW260880   7.463   0.982  11.171  0.3200  0.1235  1.0552
18008SOL     OW60881  11.763   6.955   6.984  0.0421  0.1114 -0.3389
18008SOL    HW160882  11.806   7.033   6.950 -0.6872  0.3508 -0.7501
18008SOL    HW260883  11.834   6.893   7.002  0.4583 -0.1864 -2.6934
18009SOL     OW60884   2.832  10.614   9.705  0.2533  0.2559  0.3929
18009SOL    HW160885   2.751  10.665   9.711  1.0849  1.6116  0.5560
18009SOL    HW260886   2.820  10.542   9.766 -1.1366  0.0022 -0.1643
18010SOL     OW60887   0.934   6.749   8.792  0.0617 -0.4699 -0.2470
18010SOL    HW160888   0.865   6.759   8.858  1.2496 -0.1877  1.0099
18010SOL    HW260889   0.937   6.654   8.775 -0.7079 -0.4706 -0.4050
18011SOL     OW60890   2.217   3.498   7.335  0.3581  0.0731  0.0881
18011SOL    HW160891   2.214   3.593   7.332  0.0558  0.0281 -1.5763
18011SOL    HW260892   2.148   3.469   7.276  1.5922 -1.1571 -0.8337
18012SOL     OW60893   6.062  11.832   9.385 -0.6221 -0.2976  0.6333
18012SOL    HW160894   5.985  11.834   9.328 -0.3198  0.1968  0.2357
18012SOL    HW260895   6.130  11.790   9.332 -0.7780 -1.3198  1.2067
18013SOL     OW60896   2.403   2.558   8.445 -0.7435 -0.3323 -0.3090
18013SOL    HW160897   2.339   2.620   8.481  0.4648 -0.3860  2.1307
18013SOL    HW260898   2.395   2.480   8.500 -1.1279 -1.8366 -2.3458
18014SOL     OW60899   8.407  12.426   3.584 -0.2685 -0.1290  0.2041
18014SOL    HW160900   8.369  12.395   3.502  0.5933  1.8200 -1.0167
18014SOL    HW260901   8.418  12.520   3.570  2.5921 -0.1762  1.4265
18015SOL     OW60902   3.221   3.122  11.248 -0.2054 -0.0427 -0.8266
18015SOL    HW160903   3.311   3.139  11.219 -0.4630  0.0888 -1.5686
18015SOL    HW260904   3.214   3.170  11.330  0.3821  0.0104 -0.7994
18016SOL     OW60905  11.915   5.081   1.879  0.6652  0.3039  0.1189
18016SOL    HW160906  11.872   5.118   1.956  3.1904  0.7435  1.4331
18016SOL    HW260907  11.861   5.005   1.856 -0.3365  0.3379  2.1317
18017SOL     OW60908  11.267   8.692   2.331  0.7185 -0.0591 -0.5639
18017SOL    HW160909  11.240   8.743   2.406  1.2362 -2.5588  1.4672
18017SOL    HW260910  11.185   8.661   2.292  0.4736 -0.5488  0.3256
18018SOL     OW60911   0.462   8.365   9.797  0.1864  0.8282 -0.2903
18018SOL    HW160912   0.556   8.351   9.790  0.6437  3.8325 -1.4760
18018SOL    HW260913   0.425   8.318   9.723  0.4309 -1.9012  1.1757
18019SOL     OW60914   3.667   1.446   8.489  0.3604 -0.0654  0.1503
18019SOL    HW160915   3.606   1.414   8.555 -1.7582  0.8150 -1.2416
18019SOL    HW260916   3.717   1.515   8.533 -0.8779  0.3817  0.9204
18020SOL     OW60917   6.673   1.940   7.212 -0.3290 -0.0974 -0.3091
18020SOL    HW160918   6.664   2.032   7.188  0.3898 -0.0281 -0.3426
18020SOL    HW260919   6.650   1.938   7.305  1.8694  0.5448  0.3174
18021SOL     OW60920   4.656   9.069   5.492 -0.6228 -0.8571 -0.1919
18021SOL    HW160921   4.680   9.160   5.509 -0.4499 -1.0973  0.9625
18021SOL    HW260922   4.563   9.072   5.470 -0.7817 -0.4600  0.4892
18022SOL     OW60923  12.342  12.228   1.958  0.1277 -0.0415  0.1837
18022SOL    HW160924  12.249  12.218   1.937  0.1634  0.7774 -0.4103
18022SOL    HW260925  12.382  12.145   1.931 -0.3698 -0.2631  0.1169
18023SOL     OW60926   7.180   2.765   1.295  0.4141 -0.3690 -0.1153
18023SOL    HW160927   7.124   2.732   1.366  0.6006 -0.1518  0.1352
18023SOL    HW260928   7.126   2.831   1.252 -0.1381 -1.3142 -0.9140
18024SOL     OW60929  11.076   6.193   7.089 -0.5029  0.6767  0.3586
18024SOL    HW160930  11.154   6.248   7.099 -0.6662  0.9469  0.1548
18024SOL    HW260931  11.004   6.250   7.115 -0.6901  0.6062 -0.0072
18025SOL     OW60932   8.992   4.438   1.043 -0.2347 -0.0879 -0.6447
18025SOL    HW160933   9.042   4.425   0.963 -1.7791 -0.9911 -1.5268
18025SOL    HW260934   8.953   4.352   1.061 -2.8450  0.9158 -1.0073
18026SOL     OW60935  10.537   9.409  10.946 -0.5766  0.3377 -0.3042
18026SOL    HW160936  10.564   9.500  10.959 -0.2760  0.3787 -1.1320
18026SOL    HW260937  10.492   9.385  11.027 -0.5741  1.1911 -0.0420
18027SOL     OW60938   8.920  11.200   3.856  0.4318  0.2491 -0.4972
18027SOL    HW160939   8.867  11.275   3.881  1.7859  1.1999 -0.3570
18027SOL    HW260940   8.883  11.127   3.905 -1.0102  0.7704 -0.7667
18028SOL     OW60941   4.055   8.203  11.711  0.2588 -0.2761 -0.5891
18028SOL    HW160942   4.013   8.289  11.717  0.1190 -0.4583  1.7766
18028SOL    HW260943   4.149   8.222  11.715  0.3607 -0.1164 -2.5477
18029SOL     OW60944  10.707   6.112  11.034  0.2291  0.0988 -0.4817
18029SOL    HW160945  10.624   6.157  11.018 -0.5464 -0.9356  0.4704
18029SOL    HW260946  10.760   6.176  11.082 -1.0589 -0.1251  1.3543
18030SOL     OW60947   1.611  12.558   2.776 -0.1659 -0.0843 -0.5049
18030SOL    HW160948   1.608  12.463   2.766 -0.9396 -0.2933  1.3236
18030SOL    HW260949   1.556  12.591   2.705 -2.3053 -1.1954  0.5354
18031SOL     OW60950  12.232   0.739   9.600  0.8379 -0.0623  0.0184
18031SOL    HW160951  12.288   0.720   9.675 -0.1406 -2.8895  0.1524
18031SOL    HW260952  12.240   0.662   9.543 -1.1457  0.4406 -1.0410
18032SOL     OW60953  10.426   0.372   3.915  0.3046 -0.5036 -0.9309
18032SOL    HW160954  10.444   0.466   3.918  1.4273 -0.6798  2.6179
18032SOL    HW260955  10.488   0.338   3.850  1.0555  1.0145 -1.0648
18033SOL     OW60956   7.030  10.956   6.724 -0.4784 -0.3790  0.2465
18033SOL    HW160957   7.096  11.015   6.687 -0.7282 -1.1157 -1.4341
18033SOL    HW260958   7.078  10.903   6.788  0.8663 -1.6601 -1.7217
18034SOL     OW60959   1.346   1.880   6.477  0.5328  0.0998  0.0330
18034SOL    HW160960   1.412   1.821   6.512  1.2778  0.2396 -1.0722
18034SOL    HW260961   1.294   1.826   6.417  0.3053  0.2265  0.1152
18035SOL     OW60962  10.010   7.503   9.621  0.2326 -0.0665  0.5574
18035SOL    HW160963   9.973   7.449   9.691  0.8907 -1.9844 -0.4983
18035SOL    HW260964  10.042   7.440   9.556  1.6681  1.5893 -0.4364
18036SOL     OW60965   1.877   1.217   5.951 -0.2320 -0.2136 -0.7581
18036SOL    HW160966   1.919   1.286   6.003 -2.8264  1.1783 -0.3207
18036SOL    HW260967   1.831   1.164   6.016  0.3216 -1.3475 -1.2664
18037SOL     OW60968   8.281   4.500   1.623 -0.0172  0.3073  0.1398
18037SOL    HW160969   8.255   4.428   1.566  0.6803  0.5051 -0.4476
18037SOL    HW260970   8.316   4.566   1.563  0.1836  0.7617  0.7519
18038SOL     OW60971  11.893   4.922   6.159  0.1050  0.0838 -0.0505
18038SOL    HW160972  11.943   5.003   6.151  1.0327 -0.6747 -3.3708
18038SOL    HW260973  11.805   4.944   6.128  0.5148 -0.2372 -1.5246
18039SOL     OW60974   9.861   6.085   7.964  0.0164  0.2423  0.1166
18039SOL    HW160975   9.782   6.033   7.979 -0.8112  1.6405  0.7618
18039SOL    HW260976   9.909   6.082   8.047  2.0186 -2.6953 -0.9665
18040SOL     OW60977   2.838   1.586  12.229 -0.1900  0.1283  0.0861
18040SOL    HW160978   2.818   1.526  12.302  0.3505 -0.5011 -0.2706
18040SOL    HW260979   2.752   1.607  12.192 -0.3553 -1.0651 -0.2651
18041SOL     OW60980  10.491   5.921   8.357  0.1335  0.0260  0.2677
18041SOL    HW160981  10.440   5.840   8.363 -0.1987  0.2218  0.1418
18041SOL    HW260982  10.428   5.990   8.380  0.6365  0.1746  1.2460
18042SOL     OW60983   4.513   8.601   1.592 -0.4354 -0.2042 -0.5790
18042SOL    HW160984   4.584   8.663   1.573 -0.1315 -0.7332 -1.2050
18042SOL    HW260985   4.472   8.586   1.507  0.8528 -2.5159 -0.8677
18043SOL     OW60986   6.048   3.925  11.804  0.4262 -0.3034 -0.4463
18043SOL    HW160987   6.040   3.842  11.759 -0.8554 -0.5751  0.2458
18043SOL    HW260988   6.033   3.904  11.896 -0.5149  0.7834 -0.3344
18044SOL     OW60989   0.160   3.418  10.091 -0.2565  0.2208 -0.0467
18044SOL    HW160990   0.146   3.434  10.184 -0.7821  1.2019 -0.2855
18044SOL    HW260991   0.084   3.367  10.063 -0.7921  1.0889 -0.2176
18045SOL     OW60992   5.266  10.352   6.173  1.0976  0.1059  0.0656
18045SOL    HW160993   5.197  10.400   6.219  0.5195 -0.0430 -0.6208
18045SOL    HW260994   5.318  10.312   6.243 -0.5050 -1.1663  0.6029
18046SOL     OW60995   3.743   1.262  12.555  0.0603 -0.3258 -0.4747
18046SOL    HW160996   3.816   1.236  12.499 -0.7079 -0.1859 -1.5619
18046SOL    HW260997   3.769   1.346  12.592  0.1110  0.1439 -1.5347
18047SOL     OW60998  11.034   7.361  10.690 -0.0757 -0.0861 -0.1586
18047SOL    HW160999  11.089   7.284  10.677 -2.4111 -1.9546  0.2399
18047SOL    HW261000  11.080   7.413  10.756  0.8481 -1.9470  0.7318
18048SOL     OW61001   1.082   1.572  11.176 -0.4337  0.3955 -0.0927
18048SOL    HW161002   1.081   1.611  11.089 -1.6851 -0.1690 -0.3564
18048SOL    HW261003   1.032   1.634  11.230 -1.9437 -0.5154 -0.3890
18049SOL     OW61004   4.449   9.691   6.756  0.0302  0.2856  0.8152
18049SOL    HW161005   4.357   9.665   6.762 -0.2696  1.3976  1.2806
18049SOL    HW261006   4.495   9.610   6.734 -1.1447 -0.1394 -0.2443
18050SOL     OW61007  12.166   4.784  12.569 -0.2658  0.2353  0.8745
18050SOL    HW161008  12.212   4.794  12.652 -0.3381 -0.6201  1.0251
18050SOL    HW261009  12.135   4.872  12.548  0.5780  0.6402  1.2701
18051SOL     OW61010   2.164  12.443   8.414 -0.2977  0.4502 -0.2823
18051SOL    HW161011   2.202  12.360   8.445 -0.8467 -0.1371 -1.1175
18051SOL    HW261012   2.092  12.461   8.474 -0.4313  0.1032 -0.3357
18052SOL     OW61013   9.317   0.282   1.919  0.0386 -0.1351  0.1160
18052SOL    HW161014   9.359   0.225   1.855 -0.0994 -0.0736 -0.0262
18052SOL    HW261015   9.294   0.223   1.991 -1.0550 -0.4532 -0.4738
18053SOL     OW61016   9.202  11.948   2.139 -0.1351  0.4052 -0.3936
18053SOL    HW161017   9.201  12.039   2.109 -2.4178  0.0909 -1.4722
18053SOL    HW261018   9.287  11.915   2.111  1.1897  2.4382  0.9236
18054SOL     OW61019   9.346   2.665   4.147  0.3188 -0.7544  0.5931
18054SOL    HW161020   9.435   2.635   4.129  0.1122 -2.4297  2.0547
18054SOL    HW261021   9.346   2.688   4.240 -0.8957 -1.3078  0.7560
18055SOL     OW61022   3.355   3.116   8.007 -0.2885  0.2304  0.2181
18055SOL    HW161023   3.431   3.061   7.989 -1.0112 -0.6040 -0.3657
18055SOL    HW261024   3.386   3.205   7.994  1.2081  0.0905  2.2501
18056SOL     OW61025   7.815   4.070   1.623 -0.5936 -0.2654  0.0814
18056SOL    HW161026   7.758   4.147   1.632 -0.1821 -0.1636  2.2062
18056SOL    HW261027   7.755   3.996   1.620 -0.9531  0.0455 -1.0627
18057SOL     OW61028   8.131   9.251   0.718  0.6846 -0.3799 -0.7202
18057SOL    HW161029   8.129   9.254   0.623  0.7599  1.9477 -0.7074
18057SOL    HW261030   8.119   9.342   0.746 -1.4638 -1.2484  1.5594
18058SOL     OW61031  11.580   2.706   4.485 -0.5648  0.6466 -0.1089
18058SOL    HW161032  11.629   2.782   4.517 -1.3217  0.3882  1.7637
18058SOL    HW261033  11.496   2.743   4.456 -0.1383  0.7825 -1.2362
18059SOL     OW61034   4.750   3.774   6.363 -0.1710 -0.2779  0.5043
18059SOL    HW161035   4.657   3.752   6.368 -0.5729  0.5483 -1.9983
18059SOL    HW261036   4.754   3.866   6.388  0.1333 -0.5086  1.3713
18060SOL     OW61037   5.064   2.509   7.521  0.5799 -0.4173  0.1140
18060SOL    HW161038   5.153   2.479   7.542  0.2651 -0.7158  1.1211
18060SOL    HW261039   5.010   2.431   7.531  0.1597 -0.1642 -0.1646
18061SOL     OW61040   5.780   1.461   3.241 -0.0119 -0.3345 -0.5288
18061SOL    HW161041   5.874   1.448   3.253 -0.2032 -1.3366 -0.0245
18061SOL    HW261042   5.774   1.538   3.183  1.1048 -0.2281 -0.5333
18062SOL     OW61043   0.779   0.642   0.938 -0.2687  0.4618 -0.2729
18062SOL    HW161044   0.734   0.597   0.867  0.5570  1.4685 -1.4912
18062SOL    HW261045   0.728   0.722   0.952 -0.9955 -0.2054  0.9790
18063SOL     OW61046   4.180   6.252   7.674 -0.4703  0.6563 -0.5929
18063SOL    HW161047   4.212   6.306   7.746  0.0295 -1.1887  0.6479
18063SOL    HW261048   4.085   6.253   7.683 -0.3890 -1.6255  1.8293
18064SOL     OW61049   7.212   2.716  11.220  0.2874  0.0358 -0.1767
18064SOL    HW161050   7.197   2.806  11.251  1.0318  0.2924 -0.5339
18064SOL    HW261051   7.306   2.712  11.203 -0.0397 -0.1541 -2.2072
18065SOL     OW61052   1.440   9.053   2.330  0.1851 -0.2305 -0.2561
18065SOL    HW161053   1.393   9.015   2.405  3.0110  0.9790  2.3403
18065SOL    HW261054   1.412   9.001   2.255 -3.8615 -0.6798  1.2920
18066SOL     OW61055   2.142   2.242   1.987 -0.0965 -0.2293 -0.7142
18066SOL    HW161056   2.133   2.327   2.030  0.8753 -0.4087 -0.1168
18066SOL    HW261057   2.108   2.180   2.050  1.3488 -0.4963 -0.1597
18067SOL     OW61058   2.902   3.061   9.785  0.7409 -0.3305 -0.1808
18067SOL    HW161059   2.938   2.975   9.766 -2.7497 -2.0451  0.2088
18067SOL    HW261060   2.840   3.046   9.856 -1.4379  2.0693 -1.4009
18068SOL     OW61061   1.995  12.370   3.058 -0.0862 -0.0168 -0.1785
18068SOL    HW161062   1.946  12.437   3.010 -0.5359  0.7468  1.2965
18068SOL    HW261063   2.084  12.403   3.060 -0.2026  0.2861  0.0931
18069SOL     OW61064   0.367  11.331   7.292  0.2259  0.5532 -0.2119
18069SOL    HW161065   0.359  11.423   7.316  0.0171  0.4940 -0.0555
18069SOL    HW261066   0.288  11.290   7.327 -0.5830  0.6413 -1.8359
18070SOL     OW61067   2.197   8.093   1.714  0.0992  0.1829 -0.2573
18070SOL    HW161068   2.114   8.128   1.681 -0.2672  0.7675  1.1907
18070SOL    HW261069   2.228   8.034   1.645 -1.9222 -0.6941 -0.4807
18071SOL     OW61070   2.642   9.797  11.393  0.0696 -0.0605 -0.2646
18071SOL    HW161071   2.577   9.867  11.396 -0.3366 -0.4537  0.3405
18071SOL    HW261072   2.643   9.761  11.481  0.3726 -0.7342 -0.5347
18072SOL     OW61073   2.551  11.916   4.116  0.2944 -0.2324 -0.2802
18072SOL    HW161074   2.563  11.999   4.162  0.6255 -0.1278 -0.5553
18072SOL    HW261075   2.630  11.866   4.135  0.5356 -0.0986 -0.9246
18073SOL     OW61076   6.832   9.268   0.833 -0.1768  0.3853  0.5375
18073SOL    HW161077   6.896   9.201   0.808  0.3953  1.3314 -0.6627
18073SOL    HW261078   6.845   9.338   0.769 -1.8511  0.9655  0.7786
18074SOL     OW61079   9.150   1.654   4.750 -0.5780 -0.1285 -0.1727
18074SOL    HW161080   9.106   1.727   4.794 -0.4961  0.4280 -1.0030
18074SOL    HW261081   9.080   1.594   4.727 -0.9070  0.6416 -1.2767
18075SOL     OW61082   2.651   8.483   0.787 -0.4691 -0.3885  0.2938
18075SOL    HW161083   2.683   8.482   0.877  4.0177 -1.1142 -1.0592
18075SOL    HW261084   2.622   8.393   0.771  0.1762 -0.6664  0.6342
18076SOL     OW61085   3.064   6.351   2.237 -0.2268 -0.4069  0.0711
18076SOL    HW161086   3.061   6.255   2.242 -0.2126 -0.3586  1.1541
18076SOL    HW261087   3.016   6.372   2.157 -1.9926 -1.2325  0.8469
18077SOL     OW61088   4.028   9.886  10.147 -0.2488  0.0139 -0.0312
18077SOL    HW161089   4.028   9.974  10.109  1.4217 -0.1023 -0.3953
18077SOL    HW261090   4.070   9.896  10.232  0.0606 -0.4465 -0.1235
18078SOL     OW61091   2.539   1.484   8.501  0.1423  0.1609  0.6272
18078SOL    HW161092   2.496   1.496   8.416 -0.9752 -1.3812  0.9231
18078SOL    HW261093   2.599   1.411   8.488 -0.3853 -0.4041  1.2549
18079SOL     OW61094   5.739   2.902   1.062  0.3892 -0.2149 -0.1220
18079SOL    HW161095   5.715   2.994   1.078  0.0406  0.0420 -1.9172
18079SOL    HW261096   5.776   2.872   1.145  1.1662  1.7560  0.2886
18080SOL     OW61097   1.413   9.097   9.656  0.6460 -0.0428  0.4318
18080SOL    HW161098   1.483   9.087   9.591  0.8778 -0.3867  0.7370
18080SOL    HW261099   1.334   9.073   9.608  1.1314 -3.3312  1.0675
18081SOL     OW61100   1.550   3.554  10.145 -0.4932  0.2723 -0.4410
18081SOL    HW161101   1.578   3.639  10.180 -1.8171  0.4836  0.1630
18081SOL    HW261102   1.522   3.505  10.222  0.8012 -0.9586 -0.7056
18082SOL     OW61103   6.684   0.941   8.396  0.3562  0.2411  0.1328
18082SOL    HW161104   6.667   0.937   8.490  1.0828  3.4198  0.4975
18082SOL    HW261105   6.644   0.861   8.361 -0.8905 -0.4906  2.9597
18083SOL     OW61106   8.433  12.122   1.888  0.3062  0.2539  0.6283
18083SOL    HW161107   8.442  12.029   1.864 -0.2985  0.1443  0.8136
18083SOL    HW261108   8.341  12.132   1.909  0.5807  0.6474  1.6782
18084SOL     OW61109  11.417   5.981   7.679 -0.3890  0.6416  0.1701
18084SOL    HW161110  11.372   5.975   7.595 -3.2624  0.5637  1.6024
18084SOL    HW261111  11.375   5.915   7.734  1.9851  0.1126  1.4906
18085SOL     OW61112   1.348  12.305   4.222  0.1390  0.5419 -0.2061
18085SOL    HW161113   1.296  12.234   4.184 -0.8561  2.1464 -2.0028
18085SOL    HW261114   1.295  12.337   4.295  0.3297 -0.1645  0.2536
18086SOL     OW61115   5.890  10.020  11.002 -0.1001  0.7751 -0.2194
18086SOL    HW161116   5.830   9.971  11.058  0.5284  0.8019  0.4951
18086SOL    HW261117   5.880   9.981  10.916  0.5947 -0.8316  0.3878
18087SOL     OW61118   2.590  10.655  11.565  0.2150  0.7856 -0.2116
18087SOL    HW161119   2.609  10.740  11.604 -1.3603  1.6486 -1.1871
18087SOL    HW261120   2.503  10.631  11.599  0.6206 -0.4338  0.0241
18088SOL     OW61121   7.258  10.972   8.551  0.0081 -0.4229 -0.0474
18088SOL    HW161122   7.313  10.898   8.575 -0.6021 -1.2149 -1.0228
18088SOL    HW261123   7.168  10.942   8.565 -0.2205  0.8673  1.5528
18089SOL     OW61124   7.528   0.776   3.561 -0.6493 -0.3172  0.3824
18089SOL    HW161125   7.502   0.684   3.559  0.8640 -0.8243  1.7629
18089SOL    HW261126   7.621   0.775   3.539 -1.0282  1.1161 -1.5294
18090SOL     OW61127   9.887   2.623   9.970 -0.5288  0.2209  0.0158
18090SOL    HW161128   9.908   2.716   9.983  2.2352 -0.4047  0.8002
18090SOL    HW261129   9.969   2.577   9.990 -0.9132 -2.2221 -3.2477
18091SOL     OW61130   0.427   8.049   1.004  0.4558 -0.0731  0.0420
18091SOL    HW161131   0.457   8.068   0.915  2.4579 -2.0908  0.1999
18091SOL    HW261132   0.498   7.999   1.043 -1.6498 -1.9493  1.7459
18092SOL     OW61133   1.986   7.973   2.163  0.4611 -0.3001 -0.9153
18092SOL    HW161134   1.959   7.957   2.254 -0.1071  1.7234 -0.6753
18092SOL    HW261135   2.011   8.066   2.162  2.0412 -0.6928 -2.4672
18093SOL     OW61136   4.061   0.041   8.294  0.2839  0.1852 -0.3226
18093SOL    HW161137   3.988   0.066   8.238 -0.8671  0.4508  1.2452
18093SOL    HW261138   4.067   0.111   8.359 -1.4766 -2.2717  2.7247
18094SOL     OW61139   6.820  11.275   4.571  0.1061 -0.0774 -0.1483
18094SOL    HW161140   6.751  11.337   4.550  1.7488  2.9442  2.4418
18094SOL    HW261141   6.900  11.314   4.535  1.1632 -0.7027  1.3794
18095SOL     OW61142   6.480   5.153   7.175  0.2777 -0.2260 -0.8116
18095SOL    HW161143   6.412   5.170   7.110  1.6279 -0.6232 -2.3965
18095SOL    HW261144   6.494   5.059   7.172  0.6564 -0.1965 -0.2552
18096SOL     OW61145   2.141   8.848   9.249  0.0746  0.5308 -0.1986
18096SOL    HW161146   2.105   8.917   9.304 -1.5834 -0.9067  0.5931
18096SOL    HW261147   2.067   8.792   9.228  1.3590 -1.0250 -0.8234
18097SOL     OW61148  10.912   3.337  11.371  0.3000  0.2271 -0.2959
18097SOL    HW161149  10.968   3.274  11.417  1.9508 -0.7477 -3.3652
18097SOL    HW261150  10.824   3.301  11.379  0.8653 -1.1269  0.1499
18098SOL     OW61151  11.103   5.335   8.220  0.6073  0.4686  0.2874
18098SOL    HW161152  11.025   5.286   8.246  0.6990  0.7738  1.1710
18098SOL    HW261153  11.143   5.282   8.151 -0.2049  0.1486  0.0508
18099SOL     OW61154   1.720   6.357   3.501 -0.3732 -0.0898  0.1708
18099SOL    HW161155   1.813   6.346   3.481 -0.4144  1.3531 -1.0107
18099SOL    HW261156   1.676   6.290   3.450 -0.3049  2.2882 -3.3620
18100SOL     OW61157   0.398  11.656  12.397  0.3935  0.0419 -0.1997
18100SOL    HW161158   0.370  11.705  12.320 -0.0387  0.9972  0.5348
18100SOL    HW261159   0.426  11.571  12.364 -1.3941 -0.1837 -1.2062
18101SOL     OW61160  11.466  12.361   8.738  0.6580  0.2056  0.2130
18101SOL    HW161161  11.513  12.395   8.662 -0.8669  1.2552 -0.2990
18101SOL    HW261162  11.491  12.268   8.742  2.4412  0.6344 -0.2435
18102SOL     OW61163  10.691  11.510   9.820  0.6626 -0.1450 -0.4527
18102SOL    HW161164  10.620  11.504   9.884  0.3539 -0.0616 -0.7843
18102SOL    HW261165  10.663  11.453   9.748  0.1582  1.1686 -1.3227
18103SOL     OW61166   9.744   2.291   4.672  0.6054 -0.8088  0.1372
18103SOL    HW161167   9.738   2.386   4.660 -1.1696 -0.7605  1.0700
18103SOL    HW261168   9.766   2.258   4.585  0.8641  0.4306 -0.2879
18104SOL     OW61169   5.684   9.131   9.095 -0.9131  0.7512  0.1247
18104SOL    HW161170   5.709   9.200   9.034 -3.3318  1.3578 -0.2781
18104SOL    HW261171   5.725   9.157   9.178 -0.4673  1.7908 -0.3908
18105SOL     OW61172   6.127   1.734   2.247 -0.5269  0.3249 -0.0782
18105SOL    HW161173   6.096   1.665   2.190  1.0941 -0.3787 -0.1743
18105SOL    HW261174   6.223   1.731   2.238 -0.2919  0.9621  1.7696
18106SOL     OW61175   1.266   8.824   8.719  0.0868 -0.3041  0.6533
18106SOL    HW161176   1.266   8.780   8.804  0.6810  0.7280  1.2077
18106SOL    HW261177   1.304   8.760   8.659  0.7586 -0.6259  1.4050
18107SOL     OW61178   5.064   7.514  11.018 -0.7972 -0.6699 -0.2524
18107SOL    HW161179   5.060   7.592  10.962  0.0548 -0.7769 -0.4742
18107SOL    HW261180   5.136   7.531  11.078 -0.7872 -1.1696 -0.1161
18108SOL     OW61181   9.735   9.546   8.783  0.5712  0.2964 -0.5791
18108SOL    HW161182   9.706   9.617   8.841  0.9788  0.3056 -0.3803
18108SOL    HW261183   9.825   9.528   8.810  0.2662 -0.7472 -0.1749
18109SOL     OW61184   2.965  11.375  12.075 -0.7341 -0.4876  0.5291
18109SOL    HW161185   3.014  11.357  12.155  3.8374 -1.0259 -2.0587
18109SOL    HW261186   2.952  11.288  12.035  1.6249  0.0217 -1.5741
18110SOL     OW61187   3.054   6.915   8.629  0.5452 -0.7020 -0.1134
18110SOL    HW161188   3.132   6.942   8.677 -0.1552  0.0387  0.6445
18110SOL    HW261189   3.022   6.839   8.677 -0.1752  0.0598  0.6357
18111SOL     OW61190   5.648   3.219   5.314 -0.2629 -0.0420 -0.1114
18111SOL    HW161191   5.628   3.313   5.324 -0.3637 -0.1126  0.4111
18111SOL    HW261192   5.652   3.187   5.404 -2.4998 -1.0078 -0.2922
18112SOL     OW61193  10.902   9.844   2.315 -0.6725  0.1277 -0.0269
18112SOL    HW161194  10.996   9.844   2.332 -0.7582  0.0248  0.4370
18112SOL    HW261195  10.863   9.890   2.389 -0.8793  1.3676 -0.8649
18113SOL     OW61196   7.756   7.416   8.389 -0.4948 -0.1852 -0.1410
18113SOL    HW161197   7.681   7.448   8.438 -1.6791 -2.3730 -0.4064
18113SOL    HW261198   7.793   7.347   8.444  0.4935 -0.0727 -0.6384
18114SOL     OW61199   4.231   6.315   9.570  0.1981 -0.0758 -0.3300
18114SOL    HW161200   4.203   6.225   9.587 -0.0847 -0.4624 -2.4608
18114SOL    HW261201   4.185   6.340   9.490 -0.5989  2.4098  0.7959
18115SOL     OW61202   4.798   7.292   9.588  0.1055  0.0402  0.3466
18115SOL    HW161203   4.819   7.369   9.535 -1.2776  1.9466  2.3890
18115SOL    HW261204   4.829   7.315   9.676 -1.6952 -1.0862  1.3150
18116SOL     OW61205   3.443   1.826   2.513  0.1283  0.1840 -0.4196
18116SOL    HW161206   3.379   1.855   2.578  0.8192  1.1090 -0.1274
18116SOL    HW261207   3.489   1.906   2.488  2.4409 -0.6938  0.7544
18117SOL     OW61208   5.686   0.237   1.687 -0.0757 -0.3193  0.2965
18117SOL    HW161209   5.668   0.325   1.655  1.4639  0.7731  2.1916
18117SOL    HW261210   5.781   0.230   1.685 -0.0766 -1.2174  1.8560
18118SOL     OW61211  11.369   9.977   1.520  0.1606  0.4398  0.1983
18118SOL    HW161212  11.459   9.948   1.536  0.7468  2.7006  1.4460
18118SOL    HW261213  11.340  10.012   1.604 -1.0029  1.9141 -0.7725
18119SOL     OW61214   0.524   6.474   2.847 -0.3043  0.3569  0.3811
18119SOL    HW161215   0.555   6.396   2.801  3.0446  1.1892  0.9155
18119SOL    HW261216   0.488   6.530   2.778  1.5000  0.1816 -0.7687
18120SOL     OW61217  10.248   5.142   0.082  0.3333  0.2017  0.2415
18120SOL    HW161218  10.252   5.221   0.135 -0.8129  0.9367 -0.7155
18120SOL    HW261219  10.160   5.107   0.098  0.9709 -1.1326  0.9827
18121SOL     OW61220   4.173   1.391   8.753 -0.4337 -0.0413 -0.4695
18121SOL    HW161221   4.171   1.408   8.659  0.5772 -0.3660 -0.5696
18121SOL    HW261222   4.144   1.300   8.761 -1.5578  0.3136 -0.3537
18122SOL     OW61223   2.314   0.534   4.596 -0.4617  0.3446 -0.3974
18122SOL    HW161224   2.256   0.605   4.569 -0.1691  1.1409  0.9599
18122SOL    HW261225   2.402   0.572   4.591 -0.2751 -0.0360 -0.0424
18123SOL     OW61226   7.417   9.551   5.496 -0.2234  0.1565 -0.1366
18123SOL    HW161227   7.455   9.635   5.468 -0.1455 -0.4620 -2.0513
18123SOL    HW261228   7.493   9.499   5.522 -0.1776  0.3556  0.1296
18124SOL     OW61229   1.121   7.178   9.050  0.0708 -0.1783  0.0292
18124SOL    HW161230   1.211   7.148   9.034 -0.1917 -0.8488 -0.2560
18124SOL    HW261231   1.108   7.251   8.990 -0.0245 -0.9682 -0.9335
18125SOL     OW61232  10.817  10.641   3.444  0.1248  0.0560  0.1364
18125SOL    HW161233  10.851  10.603   3.363 -0.3339 -0.8613  0.3636
18125SOL    HW261234  10.728  10.668   3.422  0.7149  1.8016 -0.2564
18126SOL     OW61235  11.820   7.936   6.048 -0.0125 -0.3287 -0.0368
18126SOL    HW161236  11.864   7.947   6.132  0.3493 -0.0684 -0.2576
18126SOL    HW261237  11.762   8.012   6.041 -1.3421 -1.2199  0.7491
18127SOL     OW61238   8.344   0.651   4.979  0.3354 -0.8543  0.0279
18127SOL    HW161239   8.265   0.605   4.949 -0.0824 -0.6194  0.7447
18127SOL    HW261240   8.372   0.603   5.057  0.1070 -0.1307  0.5672
18128SOL     OW61241   4.230   9.683   3.776 -0.3557 -0.2438  0.9363
18128SOL    HW161242   4.305   9.644   3.731 -1.9163  0.4374 -2.6077
18128SOL    HW261243   4.246   9.778   3.769 -1.0152 -0.1124  1.1829
18129SOL     OW61244   0.074   9.693  10.442 -0.1933  0.1785 -0.5306
18129SOL    HW161245   0.126   9.666  10.366  0.4015 -1.7018  0.5078
18129SOL    HW261246   0.136   9.695  10.514 -1.0212  0.6598  0.1850
18130SOL     OW61247   8.726  10.580   8.374  0.6089  0.0899  0.2649
18130SOL    HW161248   8.640  10.614   8.398  0.8615  1.1006 -0.2449
18130SOL    HW261249   8.739  10.505   8.432 -0.1917  0.5247  1.0161
18131SOL     OW61250   8.794   0.702   8.413  0.1834  0.5933  0.0562
18131SOL    HW161251   8.704   0.734   8.410 -0.2179 -0.2168  1.7094
18131SOL    HW261252   8.787   0.608   8.397  0.9377  0.7507 -1.3388
18132SOL     OW61253   0.165   6.135   9.332 -0.3035  0.7749 -0.5641
18132SOL    HW161254   0.097   6.185   9.378 -3.4983 -2.4382 -1.3107
18132SOL    HW261255   0.231   6.117   9.399 -1.8818  1.1659  1.1871
18133SOL     OW61256   3.814   6.726  10.753  0.1888  0.5662 -0.1733
18133SOL    HW161257   3.842   6.697  10.666  0.7100 -1.0805  0.4855
18133SOL    HW261258   3.894   6.724  10.806 -0.2632  0.7361  0.5360
18134SOL     OW61259   4.790   8.637   9.143 -0.0347 -0.3042 -0.4813
18134SOL    HW161260   4.830   8.564   9.094  1.4556 -0.7268  1.2753
18134SOL    HW261261   4.792   8.609   9.234 -0.2286  1.6051  0.1485
18135SOL     OW61262   7.818   9.767   4.094  0.3871  0.5870  0.4060
18135SOL    HW161263   7.770   9.728   4.021  0.0300 -0.6638  1.2857
18135SOL    HW261264   7.816   9.861   4.075  1.2322  0.2292 -1.7290
18136SOL     OW61265  12.206   7.398  11.284  0.3197  0.2618 -0.2705
18136SOL    HW161266  12.179   7.329  11.224 -0.9164 -0.5723  1.1918
18136SOL    HW261267  12.302   7.389  11.289  0.2511 -0.8160 -0.7108
18137SOL     OW61268   3.918   2.225   2.139  0.5461  0.6172  0.2642
18137SOL    HW161269   3.967   2.300   2.104  1.6032 -1.2702 -2.6601
18137SOL    HW261270   3.937   2.227   2.233  4.2167  1.5106 -0.3175
18138SOL     OW61271   4.444   9.269   5.206  0.6679 -0.5744  0.0827
18138SOL    HW161272   4.506   9.200   5.187  0.0068 -1.4564  1.0127
18138SOL    HW261273   4.408   9.246   5.292  0.0500  0.6324  0.1714
18139SOL     OW61274  12.012   9.499   9.750  0.1870  0.2955  0.4784
18139SOL    HW161275  12.002   9.411   9.713  0.6148  0.2525  0.4522
18139SOL    HW261276  11.961   9.497   9.830  1.4199 -0.4882  1.2876
18140SOL     OW61277   6.271   5.923   3.873 -0.0259  0.0212  0.3874
18140SOL    HW161278   6.259   5.830   3.895  0.7659 -0.2753 -0.3871
18140SOL    HW261279   6.210   5.938   3.801 -0.6085  0.2762  0.9227
18141SOL     OW61280   9.848   5.072   6.660  0.1014 -0.2982  0.6406
18141SOL    HW161281   9.859   5.167   6.653  0.8760 -0.4338 -0.1928
18141SOL    HW261282   9.861   5.053   6.753  0.1200  0.3930  0.7854
18142SOL     OW61283   9.136   7.039  11.336 -0.5845 -0.0968  0.0412
18142SOL    HW161284   9.157   6.946  11.335  2.0583  0.3783 -2.0380
18142SOL    HW261285   9.178   7.072  11.416 -1.4963 -0.6388  0.7618
18143SOL     OW61286   3.492   0.788  12.456  0.3038  0.3569 -0.7602
18143SOL    HW161287   3.418   0.728  12.448  0.6283  0.0406 -1.5467
18143SOL    HW261288   3.481   0.830  12.541 -1.4033  1.1525 -1.3346
18144SOL     OW61289   2.547  12.493  10.521 -0.1379  0.3690  0.3512
18144SOL    HW161290   2.547  12.583  10.489  2.7307  0.3423 -0.0177
18144SOL    HW261291   2.609  12.447  10.464  0.1423 -1.2977  1.9039
18145SOL     OW61292  11.386   4.908   5.521 -0.1396  0.0465 -0.2292
18145SOL    HW161293  11.376   4.842   5.589  0.5533  1.4989  1.3523
18145SOL    HW261294  11.348   4.868   5.443 -2.0960 -1.2175  1.2796
18146SOL     OW61295   8.706   5.784   6.099  0.3418  0.7408  0.0229
18146SOL    HW161296   8.782   5.749   6.147  0.5159 -0.1149 -0.8237
18146SOL    HW261297   8.745   5.828   6.023  0.0073  0.5492 -0.2620
18147SOL     OW61298  11.528   6.456   3.387  0.2865 -0.5698  0.0602
18147SOL    HW161299  11.462   6.391   3.365 -0.4507  0.9737 -2.8512
18147SOL    HW261300  11.541   6.505   3.306  2.9977  0.9887  1.2961
18148SOL     OW61301   3.267   0.803   3.769 -0.6901  0.5008  0.4003
18148SOL    HW161302   3.357   0.822   3.742 -0.3898  0.3643  1.2506
18148SOL    HW261303   3.261   0.707   3.767 -0.2251  0.4045  2.0738
18149SOL     OW61304   5.187   2.127   2.867 -0.2140  0.2984  0.1594
18149SOL    HW161305   5.221   2.183   2.798 -2.1342  1.6058  0.1784
18149SOL    HW261306   5.094   2.115   2.844 -0.2913 -1.3858  1.1520
18150SOL     OW61307   3.427  10.332   3.057 -0.0324  0.5494  0.6991
18150SOL    HW161308   3.516  10.366   3.063  1.3419 -2.7487  1.0520
18150SOL    HW261309   3.386  10.359   3.139  1.8145 -0.6600  2.1177
18151SOL     OW61310   3.782   0.368   0.791 -0.0764 -0.9376 -0.7525
18151SOL    HW161311   3.688   0.380   0.806 -0.1593 -0.8734 -1.2892
18151SOL    HW261312   3.796   0.401   0.702  0.2079 -2.1546 -1.1802
18152SOL     OW61313   2.300   1.646  10.240  0.0292 -1.0559 -0.8248
18152SOL    HW161314   2.287   1.604  10.325  0.1058  0.4927 -0.0137
18152SOL    HW261315   2.320   1.737  10.261  0.0972 -0.6496 -2.5090
18153SOL     OW61316   4.793   6.317   8.857  0.7201 -0.3572  0.1066
18153SOL    HW161317   4.759   6.364   8.934 -1.1295 -1.8389  0.2427
18153SOL    HW261318   4.765   6.227   8.870  0.0702 -0.5859 -2.4708
18154SOL     OW61319   1.707   8.254   3.980  0.0218 -0.5137  0.1444
18154SOL    HW161320   1.797   8.286   3.982 -0.1575 -0.0343  1.0205
18154SOL    HW261321   1.663   8.302   4.050 -1.7036  1.5585 -2.2151
18155SOL     OW61322   1.300   6.227  12.473  0.3722  0.3422  0.1399
18155SOL    HW161323   1.312   6.312  12.515 -0.8267  0.3055  0.6208
18155SOL    HW261324   1.247   6.177  12.536  0.2994 -0.4455 -0.5249
18156SOL     OW61325   3.553  12.281   6.018  0.7279 -0.0118 -0.6162
18156SOL    HW161326   3.466  12.318   6.034  0.6999 -1.2358  3.4019
18156SOL    HW261327   3.539  12.214   5.951 -1.9019 -1.2296  0.9550
18157SOL     OW61328  10.017   7.426   4.934  0.0654  0.1804 -0.5766
18157SOL    HW161329   9.979   7.492   4.992 -0.4245 -0.2270 -0.4339
18157SOL    HW261330   9.943   7.387   4.888  0.4051  0.1487 -1.1178
18158SOL     OW61331   4.584   9.701   7.530  0.5449  0.3369  0.1936
18158SOL    HW161332   4.603   9.711   7.623 -0.1830  0.6073  0.3203
18158SOL    HW261333   4.526   9.775   7.509 -0.2650 -0.3811 -0.1905
18159SOL     OW61334   8.811  10.526   5.117  0.3710 -0.0702 -0.1258
18159SOL    HW161335   8.746  10.463   5.084 -0.3304  0.1605  0.7728
18159SOL    HW261336   8.811  10.513   5.212  0.5807  0.9305  0.0222
18160SOL     OW61337   3.728   4.790   8.138 -0.7976 -0.4537  0.3991
18160SOL    HW161338   3.819   4.762   8.130 -0.6581 -0.3355  1.4574
18160SOL    HW261339   3.685   4.719   8.186 -1.1930 -0.3735  0.1684
18161SOL     OW61340   8.241   8.342  12.296 -0.2743  0.6284  0.3891
18161SOL    HW161341   8.270   8.362  12.208  0.9110  0.0050  0.6160
18161SOL    HW261342   8.181   8.413  12.319 -1.3579  0.2860 -1.2527
18162SOL     OW61343   6.958   5.488   8.357  0.3097  0.1349 -0.1792
18162SOL    HW161344   7.048   5.487   8.324  0.1159  0.1147 -0.7162
18162SOL    HW261345   6.949   5.406   8.405  0.5223  0.0517 -0.2803
18163SOL     OW61346   8.794   5.718   4.365 -0.0966  0.0229  0.3500
18163SOL    HW161347   8.792   5.813   4.376 -0.1432 -0.0146  0.6537
18163SOL    HW261348   8.852   5.705   4.290  0.5519  0.2452  0.8041
18164SOL     OW61349  10.658   8.232   3.230 -0.0700  0.6242  0.8855
18164SOL    HW161350  10.643   8.318   3.268 -2.5207  0.2692  0.9045
18164SOL    HW261351  10.595   8.226   3.158  0.5870 -0.8524  0.3960
18165SOL     OW61352   3.635  12.089   7.943 -0.6392 -0.4350  0.0758
18165SOL    HW161353   3.587  12.007   7.944 -0.2390 -0.6642  0.4756
18165SOL    HW261354   3.726  12.065   7.963 -0.5207  0.0996  0.1982
18166SOL     OW61355   1.989   8.570   0.312 -0.5068  0.2107 -0.7738
18166SOL    HW161356   2.064   8.578   0.370 -1.8194 -1.1798  1.2617
18166SOL    HW261357   2.009   8.495   0.255 -0.4058 -0.2422 -0.1439
18167SOL     OW61358  10.951   1.551   4.390 -0.5769 -0.0405 -0.0899
18167SOL    HW161359  10.913   1.539   4.477 -0.3307  1.9065  0.3282
18167SOL    HW261360  10.885   1.601   4.342  0.0906  0.5819 -0.3831
18168SOL     OW61361   3.551   7.474   8.459 -0.4373 -0.3354 -0.0734
18168SOL    HW161362   3.632   7.425   8.448  0.9357  2.1325 -1.8656
18168SOL    HW261363   3.558   7.514   8.545  1.2030  1.3400 -0.9234
18169SOL     OW61364  11.975   3.074   5.824 -0.3536  0.7231 -0.1526
18169SOL    HW161365  11.967   3.017   5.748  0.1665  1.4052 -0.7325
18169SOL    HW261366  11.962   3.015   5.899 -0.9524  0.0592 -0.7556
18170SOL     OW61367   7.773   2.208   6.314 -0.1150  0.1641  0.4949
18170SOL    HW161368   7.729   2.123   6.303  0.4995 -0.1369  0.3090
18170SOL    HW261369   7.725   2.267   6.257 -2.7963  0.8189  3.1765
18171SOL     OW61370   7.011   8.036   4.275 -0.5449 -0.8103  0.3221
18171SOL    HW161371   6.939   7.987   4.313 -1.8107  0.5538 -0.2352
18171SOL    HW261372   6.976   8.070   4.193  0.7127 -0.0522  0.0726
18172SOL     OW61373   2.456   5.999  12.022  0.0998  0.3118  0.4131
18172SOL    HW161374   2.409   6.076  12.054  0.4150  0.8160 -0.3077
18172SOL    HW261375   2.519   5.979  12.091 -0.8682 -0.1293  1.2125
18173SOL     OW61376   1.938   7.722   1.437  0.9589  0.5902  0.0004
18173SOL    HW161377   2.006   7.771   1.391  0.9748  0.2889 -0.3057
18173SOL    HW261378   1.985   7.661   1.493  0.9610 -0.0443 -0.6646
18174SOL     OW61379   8.009   9.250   1.875 -0.2948  0.3728  0.1433
18174SOL    HW161380   8.029   9.309   1.802  0.2312 -1.2300 -1.0714
18174SOL    HW261381   8.023   9.303   1.954 -2.6057  2.6849 -0.8765
18175SOL     OW61382   4.561   5.202  12.239 -0.3571 -0.1062 -0.3904
18175SOL    HW161383   4.622   5.168  12.304  0.4418 -0.1867 -1.1746
18175SOL    HW261384   4.481   5.221  12.289  0.0614 -0.6731  0.5100
18176SOL     OW61385   3.114  11.851  11.553  0.0143  0.4337 -0.4015
18176SOL    HW161386   3.169  11.916  11.596  0.8926 -0.3499 -0.3174
18176SOL    HW261387   3.174  11.803  11.496 -0.5790 -0.4354 -0.3076
18177SOL     OW61388   8.794   5.924   3.732  0.1631  0.3930  0.2329
18177SOL    HW161389   8.794   5.860   3.661 -0.6298 -0.1412  0.7054
18177SOL    HW261390   8.737   5.887   3.799  0.3101  1.2322  0.8477
18178SOL     OW61391  11.094   3.354  10.925  0.1624  0.4375 -0.1886
18178SOL    HW161392  11.102   3.279  10.865 -0.2672 -1.0222  1.4885
18178SOL    HW261393  11.002   3.379  10.919 -0.2151 -0.5972  0.8047
18179SOL     OW61394   3.228  12.084  10.497 -0.5467  0.6105  0.6031
18179SOL    HW161395   3.322  12.085  10.482 -0.6402 -0.8623 -0.2473
18179SOL    HW261396   3.217  12.118  10.586  0.5949  2.7765 -0.0020
18180SOL     OW61397   9.162   3.616   7.215 -0.2687  0.3240 -0.1469
18180SOL    HW161398   9.207   3.551   7.269  0.4140  0.5557 -0.4342
18180SOL    HW261399   9.110   3.667   7.277 -0.5189 -0.2447  0.1260
18181SOL     OW61400   4.911   7.560  12.088  0.4298  0.1008  1.0935
18181SOL    HW161401   4.981   7.512  12.044  0.8575  1.7783 -0.1378
18181SOL    HW261402   4.927   7.545  12.181  1.4425 -0.8697  0.7852
18182SOL     OW61403   1.449  11.776   2.726 -0.2787  0.1579 -0.1142
18182SOL    HW161404   1.409  11.855   2.764 -0.5269 -0.7758  1.6796
18182SOL    HW261405   1.377  11.731   2.682 -0.5531 -0.0084  0.5000
18183SOL     OW61406  11.556  11.354  10.847 -0.0550  0.8417  0.0479
18183SOL    HW161407  11.516  11.418  10.788 -1.2446  0.5695  0.5231
18183SOL    HW261408  11.564  11.399  10.930 -0.9065  0.4106  0.3875
18184SOL     OW61409   0.844  10.047   7.600 -0.6820  0.4579 -0.3412
18184SOL    HW161410   0.811  10.035   7.511 -1.6324  3.0453 -0.4198
18184SOL    HW261411   0.766  10.061   7.653 -0.0587  4.8530 -0.2149
18185SOL     OW61412   2.979  12.399   7.136 -0.4929 -0.2240 -0.6695
18185SOL    HW161413   2.897  12.444   7.158  0.5095  0.6416  1.6744
18185SOL    HW261414   3.028  12.462   7.084 -0.3592  0.2105 -0.0311
18186SOL     OW61415   7.116   7.434   8.655  0.1781  0.1598 -0.1806
18186SOL    HW161416   7.177   7.490   8.703  0.0332 -1.2613  1.8055
18186SOL    HW261417   7.102   7.479   8.572  2.9501  1.1460 -0.2016
18187SOL     OW61418   8.734   7.593   6.371 -0.1853  0.5546  0.1851
18187SOL    HW161419   8.807   7.593   6.432  1.3370 -2.6430 -1.4303
18187SOL    HW261420   8.764   7.648   6.298  0.5765 -0.5198 -0.3441
18188SOL     OW61421  10.547   4.490  11.202  0.3838  0.2860 -0.0934
18188SOL    HW161422  10.613   4.449  11.145  0.2881 -0.1617  0.1170
18188SOL    HW261423  10.573   4.582  11.206  1.3688 -0.0123  0.5114
18189SOL     OW61424  12.295   6.752   6.152  0.2319 -0.6032  0.2385
18189SOL    HW161425  12.311   6.727   6.243 -1.5552 -0.9745  0.4981
18189SOL    HW261426  12.311   6.672   6.103  0.8533 -0.4989  0.2689
18190SOL     OW61427   0.916   9.984  11.345 -0.2440  0.7990  0.7982
18190SOL    HW161428   0.931   9.894  11.316 -1.1174  1.3994 -1.7099
18190SOL    HW261429   0.940   9.983  11.438  1.1374 -1.6629  0.5034
18191SOL     OW61430  11.517  10.449  11.420 -0.0683 -0.2415  0.3085
18191SOL    HW161431  11.531  10.544  11.418 -0.8878 -0.0706  1.3918
18191SOL    HW261432  11.467  10.430  11.341  0.2434  0.2013 -0.0005
18192SOL     OW61433  11.110  11.751   4.058  0.4606  0.0995  0.4797
18192SOL    HW161434  11.190  11.699   4.069 -0.6731 -1.3797  2.4303
18192SOL    HW261435  11.040  11.687   4.067 -0.9796  1.4959 -0.4127
18193SOL     OW61436   3.771   5.819  12.409 -0.3274  0.0741 -0.1874
18193SOL    HW161437   3.814   5.786  12.330  0.1985 -0.2608  0.2268
18193SOL    HW261438   3.753   5.911  12.389  0.5638  0.2198 -0.4001
18194SOL     OW61439   0.147   4.054   4.047  0.3818 -0.0713 -0.0562
18194SOL    HW161440   0.097   4.136   4.046  0.8816  0.2303 -0.6562
18194SOL    HW261441   0.127   4.016   4.133 -1.3279 -0.2410 -0.4889
18195SOL     OW61442   6.056   9.109   8.119 -0.2585 -0.0075 -0.4500
18195SOL    HW161443   6.072   9.041   8.184 -0.4647 -0.7595 -1.1723
18195SOL    HW261444   6.021   9.063   8.043 -0.4171  0.9061 -0.9545
18196SOL     OW61445   4.780   6.539  10.762 -0.3485  0.5821 -0.1031
18196SOL    HW161446   4.783   6.634  10.758 -1.1458  0.5730 -2.2472
18196SOL    HW261447   4.706   6.515  10.707  0.0368 -1.2890  0.1260
18197SOL     OW61448  12.254   0.864   0.473  0.0184  0.1135 -0.3306
18197SOL    HW161449  12.302   0.808   0.534  1.2295 -0.1629 -1.4986
18197SOL    HW261450  12.162   0.846   0.492  0.3594 -0.3421  1.0480
18198SOL     OW61451   1.843   8.902   9.553 -0.1119  0.3424  0.3317
18198SOL    HW161452   1.823   8.934   9.465 -2.2447  0.2930  0.7528
18198SOL    HW261453   1.853   8.808   9.543 -0.9872  0.2521  0.2138
18199SOL     OW61454   8.155   3.526   4.346 -0.6137 -0.4768  0.1423
18199SOL    HW161455   8.228   3.566   4.299  0.6668 -0.4396  2.0294
18199SOL    HW261456   8.154   3.435   4.318 -1.6255  0.1177 -1.9229
18200SOL     OW61457   9.468   8.462  11.109  0.5272 -0.3037  0.2099
18200SOL    HW161458   9.486   8.481  11.201  0.8279 -1.1074  0.3241
18200SOL    HW261459   9.553   8.470  11.066  0.0292  2.4999 -0.4803
18201SOL     OW61460   1.328  10.110  10.578  0.4035  0.7925  0.5547
18201SOL    HW161461   1.345  10.144  10.490 -0.1954  0.6025  0.3621
18201SOL    HW261462   1.317  10.016  10.566  0.5415  0.7355  0.8650
18202SOL     OW61463   5.022   0.961   0.287 -0.0180  0.0266 -0.4497
18202SOL    HW161464   5.097   0.969   0.229  0.8640  1.0447  0.7800
18202SOL    HW261465   5.042   0.886   0.343  0.7744  1.1116  0.7855
18203SOL     OW61466   5.424   1.691  11.771 -0.3888 -0.1160 -0.0146
18203SOL    HW161467   5.375   1.663  11.848 -1.8316  2.0826 -0.0305
18203SOL    HW261468   5.444   1.783  11.788  0.3154  0.0934 -1.7618
18204SOL     OW61469   3.376   6.215   6.512  0.0126 -0.0247  0.8985
18204SOL    HW161470   3.310   6.233   6.580 -0.0242 -0.4888  0.9919
18204SOL    HW261471   3.432   6.292   6.512 -0.6198  0.4518  0.7127
18205SOL     OW61472   8.300   8.165   1.889 -0.1791  0.0138  0.1698
18205SOL    HW161473   8.271   8.075   1.901 -0.1280  0.1533  1.4124
18205SOL    HW261474   8.236   8.203   1.829 -0.5119 -0.6848  0.0691
18206SOL     OW61475   9.107   9.540  10.805 -0.2790  0.5306 -0.1830
18206SOL    HW161476   9.127   9.605  10.872  1.5877 -0.1269 -0.0491
18206SOL    HW261477   9.022   9.567  10.770 -1.0137  1.2307  2.0047
18207SOL     OW61478   4.620   4.374   8.995 -0.1663 -0.7579  0.6785
18207SOL    HW161479   4.599   4.392   8.904 -0.8829 -0.1577  0.9566
18207SOL    HW261480   4.671   4.450   9.024 -0.1634 -0.8245  0.8547
18208SOL     OW61481   4.117   5.766   7.037  0.7948 -0.7440  0.3424
18208SOL    HW161482   4.150   5.691   7.086  1.0563  0.4288  2.0239
18208SOL    HW261483   4.168   5.840   7.069 -1.4314  0.6512  0.8858
18209SOL     OW61484  12.523  12.268  11.132  0.2747 -0.3236 -0.9720
18209SOL    HW161485  12.449  12.325  11.153  0.4730 -0.1518 -0.7246
18209SOL    HW261486  12.526  12.267  11.037 -0.2484 -0.5987 -0.9919
18210SOL     OW61487   6.140   3.919   8.175 -0.0985 -0.5616  0.3116
18210SOL    HW161488   6.190   3.997   8.199  0.2858 -0.1352 -1.6390
18210SOL    HW261489   6.184   3.847   8.219  1.5129 -0.0374 -0.3859
18211SOL     OW61490   0.426   0.376  12.023 -0.2951 -0.1338  0.1510
18211SOL    HW161491   0.472   0.334  11.950  0.6112  0.6426  0.2488
18211SOL    HW261492   0.467   0.340  12.102 -0.0922  0.2965  0.2448
18212SOL     OW61493   0.213  11.215   9.927 -0.2769 -0.1827 -1.1155
18212SOL    HW161494   0.208  11.120   9.938 -0.7935 -0.1741 -1.2659
18212SOL    HW261495   0.132  11.238   9.882 -0.4701  0.4171 -0.4780
18213SOL     OW61496   0.985  10.792   1.662  0.0743  0.1078 -0.3195
18213SOL    HW161497   0.899  10.794   1.705  0.7184 -0.3617  1.0412
18213SOL    HW261498   0.990  10.705   1.623  1.2858 -1.2773  2.6192
18214SOL     OW61499  11.231   8.487   5.413  0.6760  0.0107  0.3311
18214SOL    HW161500  11.154   8.430   5.416  0.0524  0.7651 -0.7591
18214SOL    HW261501  11.284   8.452   5.341  0.5855  0.4302  0.0560
18215SOL     OW61502   8.795   4.165   4.604  0.2411  0.0210 -0.0511
18215SOL    HW161503   8.754   4.239   4.648 -1.7202  0.3165 -2.1682
18215SOL    HW261504   8.879   4.199   4.572  0.3939  0.6138  0.9236
18216SOL     OW61505   3.430   6.174   3.347  0.4964 -0.0919 -0.4730
18216SOL    HW161506   3.372   6.138   3.414  0.4682 -0.0317 -0.4653
18216SOL    HW261507   3.381   6.163   3.265  0.2406  0.4572 -0.4004
18217SOL     OW61508   8.339   9.324   5.496 -0.0643 -0.5885 -0.3963
18217SOL    HW161509   8.394   9.314   5.574  1.6111  0.8414 -1.3196
18217SOL    HW261510   8.359   9.413   5.464 -2.8838 -0.0105 -0.8297
18218SOL     OW61511   5.453  10.509   7.200  0.2794 -0.3161  0.2651
18218SOL    HW161512   5.500  10.446   7.145 -1.4756 -1.1436 -0.3442
18218SOL    HW261513   5.507  10.588   7.197  1.1349 -0.9181 -1.1932
18219SOL     OW61514   5.644   0.179   2.270  0.4936  0.2986 -0.7367
18219SOL    HW161515   5.663   0.167   2.177 -2.1217  0.0997 -1.3107
18219SOL    HW261516   5.554   0.147   2.281  0.1616  1.7868  1.5341
18220SOL     OW61517   8.108   1.499   4.123  0.9530  0.3426  0.3385
18220SOL    HW161518   8.089   1.405   4.132 -0.7493  0.6928  0.6455
18220SOL    HW261519   8.129   1.527   4.212  1.6876  0.2305  0.2111
18221SOL     OW61520  10.769   6.006  12.279 -0.1744  0.1907  0.0147
18221SOL    HW161521  10.809   6.085  12.317  0.4670  0.3104 -0.8768
18221SOL    HW261522  10.800   6.004  12.189 -0.2450 -1.0468 -0.0040
18222SOL     OW61523   6.096   8.221   5.431  0.3723 -0.4954  0.5161
18222SOL    HW161524   6.110   8.244   5.339  0.9541  0.1257  0.7467
18222SOL    HW261525   6.018   8.270   5.457  0.9495  0.3553  0.6923
18223SOL     OW61526  11.684   0.740   2.680 -0.4359 -0.0999  0.1612
18223SOL    HW161527  11.693   0.815   2.622  0.7740 -0.7742 -0.5576
18223SOL    HW261528  11.624   0.681   2.634  0.0580 -0.3755 -0.1315
18224SOL     OW61529   3.820   0.953  10.937 -0.3219  0.2721 -0.1947
18224SOL    HW161530   3.898   0.949  10.881 -0.0758  0.6239  0.1236
18224SOL    HW261531   3.844   0.902  11.015  0.1746  1.6784  0.6083
18225SOL     OW61532   5.667   7.818   3.757  0.0996  0.1539 -0.3934
18225SOL    HW161533   5.736   7.779   3.810 -1.7968 -3.1027 -0.0560
18225SOL    HW261534   5.667   7.910   3.782  1.9054 -0.4569  2.2840
18226SOL     OW61535   2.694   0.435   7.822  0.4774  0.1675  0.2174
18226SOL    HW161536   2.603   0.434   7.793  1.0178 -0.2754 -1.5816
18226SOL    HW261537   2.707   0.523   7.856 -0.4455  0.4448 -0.1171
18227SOL     OW61538   4.568   0.846   8.078  0.4664 -0.3531 -0.0822
18227SOL    HW161539   4.529   0.909   8.018 -1.5008 -0.0738  1.3773
18227SOL    HW261540   4.601   0.900   8.151  2.9786 -0.6640 -0.8952
18228SOL     OW61541   6.800   5.001   1.073 -0.8478 -0.0228  0.0953
18228SOL    HW161542   6.871   5.065   1.076  0.0802 -1.0324  1.8064
18228SOL    HW261543   6.821   4.944   0.999  0.1273 -0.2577  0.5325
18229SOL     OW61544   1.305   9.420   1.271  0.2268  0.0389  0.1975
18229SOL    HW161545   1.302   9.394   1.179 -0.6996  0.9400 -0.0466
18229SOL    HW261546   1.243   9.361   1.315 -1.5913  1.4843 -0.2923
18230SOL     OW61547   2.877   1.006   5.435 -0.6219  0.2577 -0.1873
18230SOL    HW161548   2.791   1.032   5.403 -1.0728 -1.6380 -0.6437
18230SOL    HW261549   2.903   1.077   5.494 -1.9062  1.4868 -1.0296
18231SOL     OW61550   4.628   7.618   5.458 -0.4969  0.5313  0.9634
18231SOL    HW161551   4.592   7.544   5.506 -2.4873  0.5383 -0.3623
18231SOL    HW261552   4.723   7.606   5.462 -0.7347 -2.1808  0.6884
18232SOL     OW61553   4.906  12.577   6.539 -0.2694 -0.2283  0.1369
18232SOL    HW161554   4.988  12.532   6.560  0.2991 -1.1524 -3.3662
18232SOL    HW261555   4.930  12.640   6.471 -2.3414 -0.0084 -0.4511
18233SOL     OW61556   1.313   7.201   1.472  0.0047 -0.3801  0.1742
18233SOL    HW161557   1.307   7.229   1.564  2.1806  0.5157  0.1084
18233SOL    HW261558   1.355   7.274   1.428  1.1273 -1.7163 -1.0629
18234SOL     OW61559   1.789   6.710   5.231  0.0406  0.1469 -0.1692
18234SOL    HW161560   1.720   6.667   5.181  0.1207  0.0606 -0.2048
18234SOL    HW261561   1.842   6.639   5.267  0.7907  0.2222 -1.0925
18235SOL     OW61562   3.085   1.345   7.278  0.2085 -0.0191  0.3414
18235SOL    HW161563   3.063   1.389   7.361 -0.3767 -1.1362  0.8021
18235SOL    HW261564   3.174   1.373   7.259 -0.6551  2.6698 -0.2559
18236SOL     OW61565   3.695  11.004   7.606 -0.2027  0.5389 -0.6987
18236SOL    HW161566   3.648  11.087   7.621 -0.1795  0.6478 -1.2312
18236SOL    HW261567   3.773  11.029   7.557  0.6125  0.4058  0.4898
18237SOL     OW61568   2.165  10.641   9.192  0.0992  0.0524 -0.1507
18237SOL    HW161569   2.091  10.655   9.251  0.2270 -1.2543  0.3610
18237SOL    HW261570   2.125  10.600   9.115 -0.2092  2.5706 -1.4295
18238SOL     OW61571   9.104   6.781  10.209  0.7398  0.7050 -0.4076
18238SOL    HW161572   9.064   6.748  10.129  0.1726 -0.0593  0.1776
18238SOL    HW261573   9.178   6.722  10.225 -0.4107 -0.5020  0.7649
18239SOL     OW61574   2.843   6.043   5.744  0.0035 -0.2105 -0.7101
18239SOL    HW161575   2.880   5.957   5.764 -3.0896 -1.6886 -0.6734
18239SOL    HW261576   2.838   6.045   5.648  0.5222  0.1518 -0.7309
18240SOL     OW61577   7.642  11.312   3.756  0.2335  0.6424  0.0371
18240SOL    HW161578   7.601  11.397   3.771 -2.4313 -0.4507 -0.4979
18240SOL    HW261579   7.645  11.303   3.661 -0.6831 -0.3427  0.0789
18241SOL     OW61580   0.053   6.885  10.305  0.3745  0.1827  0.3363
18241SOL    HW161581   0.053   6.873  10.210  1.5783  1.1593  0.1943
18241SOL    HW261582   0.047   6.796  10.340 -0.0179 -0.1911 -0.6368
18242SOL     OW61583   2.008   9.050   8.568 -0.2685  0.2432  0.4549
18242SOL    HW161584   2.095   9.087   8.577 -0.1903  0.1781  0.0211
18242SOL    HW261585   1.948   9.122   8.585 -0.1167  0.7238 -0.9287
18243SOL     OW61586   8.117   2.412   7.437 -0.0292  0.1989  0.0222
18243SOL    HW161587   8.059   2.443   7.507 -0.1745  0.2382 -0.1164
18243SOL    HW261588   8.182   2.482   7.427  0.4881 -0.1774  0.6951
18244SOL     OW61589   8.572   1.938   1.152  0.1653 -0.6586  0.0305
18244SOL    HW161590   8.527   1.915   1.071 -1.5162  2.2288  0.0080
18244SOL    HW261591   8.527   1.889   1.220 -1.7516  0.5950 -0.2597
18245SOL     OW61592  11.962  10.218  10.056 -0.0641 -0.0993 -0.0810
18245SOL    HW161593  11.870  10.206  10.035 -0.0544  0.5301 -0.5294
18245SOL    HW261594  12.003  10.134  10.035 -0.4665 -0.2574 -0.2433
18246SOL     OW61595   2.718  10.026   3.360 -0.2305 -0.0035  0.5203
18246SOL    HW161596   2.677  10.002   3.443 -1.1227  0.5445  0.2573
18246SOL    HW261597   2.781   9.957   3.343  0.1902  0.0311  1.8079
18247SOL     OW61598  10.548   1.833  12.193 -0.7040  0.0054  0.7379
18247SOL    HW161599  10.460   1.821  12.231 -0.9144  0.1256  0.2932
18247SOL    HW261600  10.605   1.778  12.248 -1.2545 -1.0779  0.2636
18248SOL     OW61601  10.408  11.194   0.035  0.3120  0.2693  0.2192
18248SOL    HW161602  10.478  11.131   0.017  0.0350  0.1338 -0.4026
18248SOL    HW261603  10.454  11.273   0.064  0.8850  0.8606 -2.0604
18249SOL     OW61604   2.678   9.471   6.268 -0.4006 -0.0816 -0.3091
18249SOL    HW161605   2.707   9.465   6.359 -0.9105  0.7855 -0.0805
18249SOL    HW261606   2.669   9.565   6.252  0.2365 -0.1957 -1.4395
18250SOL     OW61607  10.029   5.893   0.420  0.4957  0.0243  0.0514
18250SOL    HW161608  10.063   5.908   0.331  0.0786  0.2487 -0.0730
18250SOL    HW261609  10.048   5.801   0.438  0.4314 -0.0671 -0.3388
18251SOL     OW61610   9.298   5.591   1.563 -0.0689 -0.1573  0.1124
18251SOL    HW161611   9.269   5.554   1.480 -0.0351  0.9977 -0.4296
18251SOL    HW261612   9.388   5.560   1.574  0.0939  0.0880 -0.5244
18252SOL     OW61613   9.535   6.460   6.742  0.1507 -0.6214  0.6188
18252SOL    HW161614   9.451   6.476   6.699  0.9734  0.3233 -0.7037
18252SOL    HW261615   9.593   6.527   6.706  1.5320 -1.4057  1.3356
18253SOL     OW61616   7.105   6.826   6.372  0.4031 -0.0229 -0.2056
18253SOL    HW161617   7.073   6.827   6.463 -0.1573  0.7976 -0.4040
18253SOL    HW261618   7.100   6.917   6.344  1.0197 -0.2010 -0.9191
18254SOL     OW61619   5.880   4.000   1.389 -0.7557 -0.0872 -0.2061
18254SOL    HW161620   5.803   3.962   1.346 -1.0316  1.6148 -1.3119
18254SOL    HW261621   5.845   4.074   1.438  0.0314 -0.0124  0.2501
18255SOL     OW61622   0.954   0.901  12.482 -0.0746 -0.1723  0.1931
18255SOL    HW161623   0.899   0.890  12.405 -0.9723  0.2097  0.7624
18255SOL    HW261624   0.931   0.987  12.516 -0.0425 -0.5280  1.1442
18256SOL     OW61625   5.659   1.610   8.315 -0.3021  0.1038 -0.7700
18256SOL    HW161626   5.754   1.623   8.320 -0.3406  0.2611 -0.4250
18256SOL    HW261627   5.649   1.525   8.272  0.0320 -0.5664  0.4155
18257SOL     OW61628   5.332   4.820  11.656 -0.3331  0.0824 -0.0562
18257SOL    HW161629   5.301   4.893  11.602  0.0110  0.0434 -0.3108
18257SOL    HW261630   5.263   4.755  11.649 -1.1712  0.8121  1.0744
18258SOL     OW61631   5.985   7.192   6.022  0.1176  0.1166 -0.4128
18258SOL    HW161632   6.027   7.107   6.035 -0.3914 -0.3942 -1.8698
18258SOL    HW261633   6.024   7.249   6.089  1.1742 -1.0081 -0.0350
18259SOL     OW61634   0.231  10.172   8.195 -0.0357 -0.2832 -0.6146
18259SOL    HW161635   0.320  10.138   8.198 -0.0748 -0.3386  0.6089
18259SOL    HW261636   0.175  10.094   8.194 -0.0832 -0.2476 -0.8126
18260SOL     OW61637   9.998   9.866   0.018 -0.7558  0.3072  0.0199
18260SOL    HW161638   9.928   9.911   0.064  0.0671 -0.3847  2.0528
18260SOL    HW261639   9.958   9.786  -0.015 -1.4065  0.9216 -0.7288
18261SOL     OW61640  11.832   7.612  10.205 -0.0654 -0.4094 -0.0882
18261SOL    HW161641  11.743   7.614  10.240  0.2288  0.6045  0.6706
18261SOL    HW261642  11.879   7.551  10.263 -0.2524 -0.9052 -0.4574
18262SOL     OW61643   9.563   7.866  12.060  0.3769  0.0956  0.1596
18262SOL    HW161644   9.575   7.960  12.046  2.2327 -0.1897 -0.5266
18262SOL    HW261645   9.653   7.832  12.070 -0.2847 -1.5017  1.1223
18263SOL     OW61646   2.658   9.252  12.201 -0.8239  0.2553  0.7034
18263SOL    HW161647   2.651   9.159  12.180  2.2454  0.3431 -1.1887
18263SOL    HW261648   2.575   9.273  12.245 -2.3243 -2.9322 -0.3548
18264SOL     OW61649   6.372   7.834  10.360 -0.0378 -0.3237  0.0074
18264SOL    HW161650   6.344   7.797  10.277 -1.3770 -2.1484  1.2073
18264SOL    HW261651   6.467   7.840  10.353  0.1776 -3.2406 -0.6202
18265SOL     OW61652   5.872   9.505  10.657  0.4106  0.4267  0.1470
18265SOL    HW161653   5.853   9.524  10.749 -0.6234 -0.7377  0.2066
18265SOL    HW261654   5.915   9.419  10.659 -2.1779 -0.9814 -0.6119
18266SOL     OW61655  11.034  10.697   0.133 -0.4452 -0.1651  0.3978
18266SOL    HW161656  11.014  10.632   0.201 -0.5914 -0.0977  0.4184
18266SOL    HW261657  11.126  10.721   0.150 -0.5876  0.1131  0.7921
18267SOL     OW61658   6.159   9.072  11.833 -0.1126 -0.0089 -0.6142
18267SOL    HW161659   6.253   9.062  11.847  0.3667  1.0727 -2.6981
18267SOL    HW261660   6.126   8.983  11.827  0.6937 -0.4082  0.4754
18268SOL     OW61661  10.080   7.997  12.287  0.2709 -0.7945 -0.2246
18268SOL    HW161662  10.037   8.067  12.239 -2.1757 -1.3518  0.9776
18268SOL    HW261663  10.109   7.935  12.220  0.5881  0.3355 -1.1629
18269SOL     OW61664   2.004  10.535  10.159 -0.2699  0.0810  0.8044
18269SOL    HW161665   2.037  10.449  10.133  0.3009  0.0542  1.5918
18269SOL    HW261666   1.911  10.534  10.133 -0.6054 -1.2548  1.9618
18270SOL     OW61667   0.210   3.699   3.663 -0.1083  0.0377  0.0559
18270SOL    HW161668   0.201   3.663   3.575  0.3923 -1.6738  0.6699
18270SOL    HW261669   0.121   3.697   3.699 -0.3324  0.8487 -0.4374
18271SOL     OW61670   2.349   7.170   4.611 -0.1443  0.2565 -0.1562
18271SOL    HW161671   2.332   7.151   4.703  0.0174 -0.9129 -0.3433
18271SOL    HW261672   2.305   7.098   4.564  0.9219  0.0691 -0.9111
18272SOL     OW61673   5.944   4.728   9.326  0.3184  0.0163 -0.4251
18272SOL    HW161674   5.987   4.789   9.267  1.7729  0.3156  0.8767
18272SOL    HW261675   5.917   4.781   9.401  0.9511 -0.7888  0.4035
18273SOL     OW61676   7.073  10.939  10.960  0.1486 -0.3005 -0.0661
18273SOL    HW161677   7.145  10.989  10.997  0.0741  1.4054 -2.0338
18273SOL    HW261678   7.012  10.927  11.033  0.7894  1.3606  0.7889
18274SOL     OW61679   4.792   5.667   9.732  0.6796  0.8714 -0.7779
18274SOL    HW161680   4.738   5.744   9.715 -0.7158 -0.2048 -1.4344
18274SOL    HW261681   4.759   5.601   9.672  2.2376 -0.0818 -0.6460
18275SOL     OW61682  11.266   7.032   2.615 -0.2700 -0.1578  0.0251
18275SOL    HW161683  11.275   7.126   2.633  0.5338 -0.3369  0.6380
18275SOL    HW261684  11.336   7.012   2.553  1.1740 -0.7847  1.7358
18276SOL     OW61685  10.817   8.468  12.199 -0.6204  0.2077 -0.5925
18276SOL    HW161686  10.733   8.507  12.225  0.8752  1.9673  2.0863
18276SOL    HW261687  10.837   8.510  12.115 -2.2480 -0.0008 -1.1143
18277SOL     OW61688   7.011   0.186  12.356 -0.2587  0.3701 -0.3040
18277SOL    HW161689   7.028   0.163  12.448  0.0101  2.2973  0.1661
18277SOL    HW261690   7.085   0.148  12.308  0.2187  0.3481  0.4309
18278SOL     OW61691   3.899   6.593   1.319 -0.3941  0.2401 -0.0877
18278SOL    HW161692   3.908   6.663   1.383 -3.0741  1.5545 -1.0236
18278SOL    HW261693   3.860   6.634   1.242  2.0216 -1.4265 -2.3868
18279SOL     OW61694   8.705   6.800   7.009 -0.6032  0.1541 -0.1442
18279SOL    HW161695   8.634   6.850   7.051  0.3309  0.9411  0.5434
18279SOL    HW261696   8.761   6.866   6.970 -0.7040 -0.5129 -1.4594
18280SOL     OW61697   6.489   4.240   8.447 -0.8174  0.7882 -0.1501
18280SOL    HW161698   6.407   4.274   8.483 -1.0937  2.7397 -2.3715
18280SOL    HW261699   6.539   4.318   8.423  0.2301 -0.3543 -1.9122
18281SOL     OW61700  11.620   5.347   3.231 -0.1563  0.4057 -0.3171
18281SOL    HW161701  11.576   5.281   3.285 -0.9026  0.0862 -1.2803
18281SOL    HW261702  11.589   5.431   3.266 -0.9709  0.1929 -0.5086
18282SOL     OW61703  11.606   6.934  10.617 -0.8093  0.4101  0.3902
18282SOL    HW161704  11.537   6.889  10.568 -1.8693  0.3127  1.8937
18282SOL    HW261705  11.558   6.988  10.681  0.4646 -0.6626  2.3614
18283SOL     OW61706  10.825   0.735  11.153  0.7890 -0.1633  0.1559
18283SOL    HW161707  10.792   0.665  11.209  1.7545 -1.4701 -0.8616
18283SOL    HW261708  10.795   0.816  11.196 -0.9778 -1.1928  0.9475
18284SOL     OW61709   0.800   3.722   1.642 -0.4272  0.3397  0.3930
18284SOL    HW161710   0.859   3.790   1.611  0.3268  1.7401  4.2975
18284SOL    HW261711   0.717   3.767   1.658 -0.3593  0.0689  1.6448
18285SOL     OW61712   0.632   8.632  12.110  0.4539  0.1696 -0.0214
18285SOL    HW161713   0.697   8.688  12.067  1.0069  0.6469  1.3835
18285SOL    HW261714   0.680   8.590  12.182 -1.0358  1.4685  1.8249
18286SOL     OW61715   6.312  11.234   2.811 -0.1757 -0.1553 -0.2455
18286SOL    HW161716   6.356  11.154   2.840 -0.4150  0.4782  1.9974
18286SOL    HW261717   6.228  11.204   2.777 -0.0172 -0.9083  0.0194
18287SOL     OW61718   4.991   7.486   2.514 -0.5510  0.3028  0.5031
18287SOL    HW161719   4.910   7.492   2.464 -0.8419 -0.2390  0.8991
18287SOL    HW261720   4.998   7.570   2.559 -2.1980 -0.4860  2.4150
18288SOL     OW61721  10.200   6.932   1.289 -0.3616 -0.3889  0.3809
18288SOL    HW161722  10.194   6.947   1.384 -1.3183 -0.4359  0.3444
18288SOL    HW261723  10.157   6.848   1.276  1.2488 -1.1928  0.0831
18289SOL     OW61724   5.221   4.761   7.254  0.0613 -0.1180  0.1664
18289SOL    HW161725   5.222   4.712   7.171  0.7388  0.4679 -0.1766
18289SOL    HW261726   5.313   4.775   7.275 -0.0299 -1.6059  1.8438
18290SOL     OW61727   1.187   8.624  11.781  0.1828 -0.2987  0.0881
18290SOL    HW161728   1.173   8.592  11.692 -0.5131  1.9828 -0.7135
18290SOL    HW261729   1.128   8.571  11.835  0.0639 -1.2212 -0.9082
18291SOL     OW61730   4.527   8.313   4.212 -0.4678 -0.2109 -0.1054
18291SOL    HW161731   4.465   8.369   4.164 -1.4085 -1.2773 -0.1703
18291SOL    HW261732   4.592   8.374   4.246 -0.6686  0.7709 -1.3748
18292SOL     OW61733  10.484   5.112   2.934 -0.0926  0.2069 -0.2634
18292SOL    HW161734  10.474   5.197   2.977  0.5061  1.0298 -1.6941
18292SOL    HW261735  10.407   5.104   2.879  0.5852  0.5553 -1.2989
18293SOL     OW61736  10.036   5.466   0.844  0.4435 -1.1473 -0.1954
18293SOL    HW161737  10.087   5.440   0.767  0.9302 -0.5343 -0.0950
18293SOL    HW261738  10.065   5.556   0.861  0.3989 -1.3084  0.7485
18294SOL     OW61739   1.755   5.274  11.718  0.4811 -0.4566 -0.2041
18294SOL    HW161740   1.667   5.238  11.707  0.9201 -1.8625  0.6421
18294SOL    HW261741   1.743   5.369  11.717 -0.8585 -0.6098 -1.4516
18295SOL     OW61742   1.780   2.069   0.498 -0.1784 -0.0172  0.2337
18295SOL    HW161743   1.704   2.014   0.515 -1.2735  0.9559 -1.2656
18295SOL    HW261744   1.854   2.020   0.536 -1.4832 -1.0862  1.5270
18296SOL     OW61745  10.368   9.245   9.371 -0.3823  0.2594 -0.3576
18296SOL    HW161746  10.317   9.313   9.328  0.3246  0.2023 -1.3240
18296SOL    HW261747  10.448   9.238   9.318  0.3535 -0.0711  0.7680
18297SOL     OW61748   2.664   6.443   3.221 -0.3806 -0.4558  0.3304
18297SOL    HW161749   2.606   6.519   3.220 -2.0338 -1.6398 -1.3025
18297SOL    HW261750   2.699   6.438   3.132 -0.6958 -1.8334  0.2588
18298SOL     OW61751   4.517   0.957   0.626  0.0472  0.1565  0.6265
18298SOL    HW161752   4.501   1.031   0.568  1.3747 -0.9805 -1.3260
18298SOL    HW261753   4.433   0.912   0.632 -0.3830  0.9370  0.5533
18299SOL     OW61754   6.098  10.503   7.610 -0.2532  0.0809 -0.0985
18299SOL    HW161755   6.054  10.461   7.683 -2.2967  1.5608 -0.3963
18299SOL    HW261756   6.036  10.496   7.537  0.8912  0.3870 -1.1430
18300SOL     OW61757   1.252   8.925   7.316  0.1903  0.6743  0.6701
18300SOL    HW161758   1.257   8.918   7.220 -3.0613  2.5002  0.2283
18300SOL    HW261759   1.321   8.987   7.339 -0.4879  2.0559 -0.8470
18301SOL     OW61760   6.025  11.191   8.296  0.5567  0.2374  0.5309
18301SOL    HW161761   5.959  11.228   8.355  0.6628  0.5763  0.4394
18301SOL    HW261762   6.033  11.099   8.323 -0.9425 -0.1790 -0.3557
18302SOL     OW61763   6.213   6.437  12.226 -0.1983  0.0282  0.2769
18302SOL    HW161764   6.126   6.431  12.263 -0.3600  1.2869  0.1594
18302SOL    HW261765   6.246   6.347  12.224 -0.9500 -0.2917  1.5984
18303SOL     OW61766  10.525   7.895   8.044  0.0671  0.1222  0.3355
18303SOL    HW161767  10.554   7.973   7.997 -2.4493 -0.4914 -2.5415
18303SOL    HW261768  10.463   7.928   8.110  0.4063  0.6821  0.3783
18304SOL     OW61769   8.390   6.025   6.652 -0.4884  0.3276 -0.4715
18304SOL    HW161770   8.420   5.934   6.644  0.4168  0.6706 -1.1215
18304SOL    HW261771   8.449   6.075   6.595  0.0031  1.5398  1.0180
18305SOL     OW61772   6.168  11.743   4.633  0.2467 -0.8214  0.0071
18305SOL    HW161773   6.099  11.804   4.656  0.6996 -0.5416  0.6500
18305SOL    HW261774   6.195  11.769   4.545  1.1186  0.5491  0.6508
18306SOL     OW61775  11.522  12.004   1.956  0.0074  0.5570  0.5109
18306SOL    HW161776  11.517  11.987   2.050 -1.4185  1.5015  0.6223
18306SOL    HW261777  11.582  11.936   1.923 -0.1756 -0.3446  1.9462
18307SOL     OW61778   7.812   6.608   0.352 -0.5351  0.1684  0.1188
18307SOL    HW161779   7.812   6.540   0.285  0.7368  1.0179 -0.7921
18307SOL    HW261780   7.766   6.568   0.427 -1.0489 -1.1709 -0.8673
18308SOL     OW61781   6.179   0.579   3.410  0.6494  0.2343  0.7358
18308SOL    HW161782   6.235   0.502   3.405  1.2606  0.7083  0.1115
18308SOL    HW261783   6.091   0.546   3.392  1.3118  0.1698 -3.4290
18309SOL     OW61784  11.140  10.506   8.668 -0.4456  0.0641  0.7358
18309SOL    HW161785  11.135  10.537   8.759  0.1607  0.0045  0.7963
18309SOL    HW261786  11.209  10.440   8.669 -0.9606 -0.4876  0.3766
18310SOL     OW61787  11.257   4.078  12.269  0.1877  0.7549  0.3352
18310SOL    HW161788  11.312   4.082  12.347  0.7444 -0.5443  0.0394
18310SOL    HW261789  11.209   3.996  12.277 -0.9212  1.3505  0.0487
18311SOL     OW61790   5.385   7.875   8.649 -0.0796  0.1096  0.5173
18311SOL    HW161791   5.329   7.816   8.699  0.5975  0.9470  2.3575
18311SOL    HW261792   5.453   7.819   8.612 -0.8467 -0.5918  0.1536
18312SOL     OW61793   2.736   7.492   8.396  0.3237  0.1296  0.2974
18312SOL    HW161794   2.788   7.524   8.322 -0.2525 -0.6020 -0.4563
18312SOL    HW261795   2.734   7.565   8.457 -0.2571  1.2424 -0.9869
18313SOL     OW61796  12.428   8.113   0.102  0.0358  0.1357  0.0191
18313SOL    HW161797  12.344   8.158   0.110 -1.5149 -1.8855 -2.7485
18313SOL    HW261798  12.466   8.147   0.021  0.8586 -0.4593  0.1416
18314SOL     OW61799   9.497   0.808   3.303 -0.5731  0.3933  0.0814
18314SOL    HW161800   9.552   0.729   3.306 -1.2783 -0.1111 -0.0707
18314SOL    HW261801   9.495   0.832   3.211 -0.8931  0.2012  0.0357
18315SOL     OW61802  10.367   9.284   3.558  0.1256 -0.4926  0.0623
18315SOL    HW161803  10.341   9.373   3.581  0.2428 -0.1854 -0.9534
18315SOL    HW261804  10.406   9.249   3.638 -0.8400  0.0067  0.7822
18316SOL     OW61805   5.385   8.482   8.660  0.6495  0.0229 -0.5302
18316SOL    HW161806   5.305   8.536   8.660  1.5630  1.4506  1.0426
18316SOL    HW261807   5.407   8.473   8.567  0.3998  2.3152 -0.8614
18317SOL     OW61808   6.641   0.820   1.753 -0.5347  0.2338  0.1772
18317SOL    HW161809   6.612   0.865   1.674  0.4923 -1.0278 -0.9567
18317SOL    HW261810   6.654   0.729   1.726 -1.3697 -0.5180  2.1025
18318SOL     OW61811   5.940   3.682   0.325 -0.2192 -0.2048  0.5786
18318SOL    HW161812   5.995   3.756   0.299 -0.9093 -0.2228 -1.0272
18318SOL    HW261813   5.995   3.605   0.309 -1.0211 -0.3078 -2.1639
18319SOL     OW61814  12.132   1.207   3.990 -0.3198 -0.8457 -0.4796
18319SOL    HW161815  12.102   1.233   4.077 -1.4584 -3.2275 -0.1006
18319SOL    HW261816  12.176   1.123   4.004  0.4833 -0.7197 -2.0673
18320SOL     OW61817   2.754   8.649   9.086 -0.1906  0.4017 -0.1854
18320SOL    HW161818   2.843   8.680   9.103 -0.0306  0.3689 -0.9213
18320SOL    HW261819   2.752   8.635   8.991 -0.2780 -1.7426  0.0815
18321SOL     OW61820  12.194   8.616   9.191 -0.2931  0.0811 -0.4999
18321SOL    HW161821  12.204   8.638   9.283 -2.8701 -1.8033  0.3310
18321SOL    HW261822  12.273   8.565   9.170 -0.0669 -0.1827  0.8974
18322SOL     OW61823   3.999   6.679   0.049 -0.2768  0.9901 -0.5695
18322SOL    HW161824   3.909   6.647   0.055  0.0651  0.1384  0.1476
18322SOL    HW261825   4.033   6.672   0.139  0.1071  2.5032 -0.5620
18323SOL     OW61826   7.755   1.712  11.101 -0.5517  0.0081  0.2062
18323SOL    HW161827   7.721   1.796  11.072  1.0881 -0.0151 -1.9780
18323SOL    HW261828   7.701   1.690  11.177 -2.9933  1.5882 -0.9411
18324SOL     OW61829   7.120   0.984   8.290  0.1780 -0.1847  0.3192
18324SOL    HW161830   7.197   0.961   8.342  0.6190  0.0415 -0.2295
18324SOL    HW261831   7.104   0.906   8.237  0.7435  0.1874 -0.4183
18325SOL     OW61832   1.080   6.234   2.472 -0.0585 -0.2293 -0.6565
18325SOL    HW161833   1.135   6.292   2.525  0.5661 -0.3945 -1.1085
18325SOL    HW261834   1.000   6.223   2.524 -0.0853  0.8237 -0.4417
18326SOL     OW61835   8.792   1.356   4.885  0.0866 -0.2658  0.3546
18326SOL    HW161836   8.721   1.415   4.912  0.3215  0.4620 -0.5702
18326SOL    HW261837   8.747   1.278   4.852 -0.2527 -0.2790  0.8513
18327SOL     OW61838   1.712   2.628   9.887  0.0932  0.4863 -0.3038
18327SOL    HW161839   1.726   2.709   9.936  2.8199 -0.3207  0.4689
18327SOL    HW261840   1.674   2.567   9.951 -0.0578  0.5805 -0.3053
18328SOL     OW61841   0.992   9.561  11.874  0.2832 -0.1617 -0.1216
18328SOL    HW161842   1.050   9.637  11.878  1.4488 -1.0782  1.7734
18328SOL    HW261843   1.007   9.515  11.956  0.9106 -3.4033 -1.8968
18329SOL     OW61844   6.200   5.370   2.199  0.4301 -0.1067 -0.1678
18329SOL    HW161845   6.204   5.298   2.262  0.8009 -0.3254 -0.4346
18329SOL    HW261846   6.272   5.428   2.224 -0.4542  0.6784  0.6400
18330SOL     OW61847  11.173  11.252   0.797 -0.3201 -0.0416 -0.0907
18330SOL    HW161848  11.155  11.199   0.874  0.2040 -0.1579 -0.0459
18330SOL    HW261849  11.261  11.226   0.769 -1.6880 -2.4747 -2.7049
18331SOL     OW61850   6.682  12.341   4.219 -0.5913 -0.5819 -0.7352
18331SOL    HW161851   6.697  12.318   4.311 -0.3215  1.5659 -0.1995
18331SOL    HW261852   6.610  12.284   4.192 -1.3444 -0.5630  1.1084
18332SOL     OW61853   7.220   1.361   1.367 -0.4937  0.0665 -0.1973
18332SOL    HW161854   7.279   1.346   1.293  0.8951 -2.0590  1.2356
18332SOL    HW261855   7.272   1.410   1.430 -0.6001 -0.8263  0.6093
18333SOL     OW61856   9.261   4.869   9.728  0.0575  0.4457  0.6488
18333SOL    HW161857   9.323   4.806   9.765  0.6985  0.4176 -0.4375
18333SOL    HW261858   9.177   4.823   9.729  0.4697 -0.3421  0.1262
18334SOL     OW61859   3.552  10.907   1.189 -0.4351  0.2243  0.6529
18334SOL    HW161860   3.545  10.814   1.164 -1.7050  0.7107 -1.0504
18334SOL    HW261861   3.486  10.919   1.257  0.0801 -0.2199  1.2362
18335SOL     OW61862   5.959  12.066   2.697 -0.4245  0.1604  0.3048
18335SOL    HW161863   5.933  12.157   2.710 -1.1557 -0.0418  0.3147
18335SOL    HW261864   5.914  12.039   2.616 -1.9275 -0.7971  1.3970
18336SOL     OW61865   5.875   0.757  10.312 -0.3327  0.2238  0.5081
18336SOL    HW161866   5.969   0.765  10.324 -0.3535  1.5055 -0.0543
18336SOL    HW261867   5.837   0.797  10.390 -0.4137  0.4780  0.3390
18337SOL     OW61868  10.008   6.439  10.029  0.3382 -0.1443  0.2119
18337SOL    HW161869  10.022   6.520   9.979  1.9734 -0.8407 -0.5357
18337SOL    HW261870   9.984   6.470  10.116  0.3466  1.1503 -0.2123
18338SOL     OW61871  11.311   3.709   4.627 -0.5265  0.0064  0.0403
18338SOL    HW161872  11.245   3.643   4.650 -3.1732  1.9407 -1.4003
18338SOL    HW261873  11.293   3.730   4.535  2.1734  0.6553 -0.4364
18339SOL     OW61874   6.443   5.335   9.283  0.4335 -0.1690  0.0637
18339SOL    HW161875   6.369   5.325   9.225  1.1911 -0.9260 -0.8037
18339SOL    HW261876   6.518   5.348   9.225  0.9341  0.9784  0.9247
18340SOL     OW61877   8.933   3.152   3.792  0.6461  0.1528 -0.4279
18340SOL    HW161878   9.001   3.093   3.761  1.1612  1.2351 -1.4175
18340SOL    HW261879   8.932   3.140   3.887  2.6031  0.4936 -0.3296
18341SOL     OW61880   3.400   0.847  11.942 -0.5036  0.6371 -0.4437
18341SOL    HW161881   3.341   0.773  11.928  0.9335 -1.3704  2.8327
18341SOL    HW261882   3.481   0.822  11.897 -0.1236  0.2806  0.3993
18342SOL     OW61883   9.969  11.313   3.099  0.0120  0.7986 -0.2636
18342SOL    HW161884  10.022  11.281   3.172  0.2190 -0.2324 -0.8430
18342SOL    HW261885   9.879  11.309   3.130  0.0650 -0.0384 -0.2034
18343SOL     OW61886  11.400   9.564   0.298 -0.0098  0.1419  0.2312
18343SOL    HW161887  11.356   9.568   0.383  0.5193  1.1470  0.4706
18343SOL    HW261888  11.484   9.521   0.317  0.4561  1.0995  0.3833
18344SOL     OW61889  11.255   0.355  12.297 -0.0328 -0.1631 -0.1415
18344SOL    HW161890  11.328   0.343  12.358  0.4023  1.7108 -0.2132
18344SOL    HW261891  11.281   0.430  12.243 -1.8281  0.3128 -0.4323
18345SOL     OW61892   0.114  10.738   9.761  0.6658 -0.2691 -0.0071
18345SOL    HW161893   0.032  10.764   9.720  0.5030  0.7049  0.8695
18345SOL    HW261894   0.174  10.724   9.689  0.3868  1.3649 -0.6068
18346SOL     OW61895   0.150  10.696   4.289 -0.7309  0.0368  0.5151
18346SOL    HW161896   0.212  10.767   4.303 -0.1937  0.0250 -1.5125
18346SOL    HW261897   0.186  10.622   4.339  0.8148  0.0851 -0.4683
18347SOL     OW61898   8.661   4.495   5.786  0.4602  0.0647  0.3444
18347SOL    HW161899   8.702   4.579   5.767 -0.7905  0.2278 -1.9768
18347SOL    HW261900   8.572   4.516   5.812  0.0244 -0.5166 -0.6065
18348SOL     OW61901   0.771   1.809   3.927  0.1654  0.4695 -0.3046
18348SOL    HW161902   0.827   1.732   3.924 -1.3809 -0.7710  0.7182
18348SOL    HW261903   0.824   1.875   3.972  0.4690 -1.0354  1.7167
18349SOL     OW61904   3.831   1.854   7.103  0.1442  0.8850  0.4772
18349SOL    HW161905   3.746   1.845   7.148  0.7188  1.6107  1.7698
18349SOL    HW261906   3.853   1.764   7.077 -1.2613  0.7595 -0.3636
18350SOL     OW61907   8.457   4.793   0.277  0.4512  1.0216  0.4279
18350SOL    HW161908   8.511   4.740   0.335  0.6691  1.6022  0.7627
18350SOL    HW261909   8.519   4.835   0.218  0.3217  1.3170  0.5038
18351SOL     OW61910   7.274   0.318  11.653  0.2231 -0.0401 -0.2615
18351SOL    HW161911   7.328   0.240  11.642 -0.8619 -0.6852 -1.2880
18351SOL    HW261912   7.193   0.299  11.605  0.5240  2.3028 -1.9155
18352SOL     OW61913   8.959   5.045   2.578 -0.1090  0.2580 -0.1328
18352SOL    HW161914   9.046   5.044   2.539  1.1016 -0.8679  2.3517
18352SOL    HW261915   8.967   5.107   2.651 -0.7413 -1.3343  1.3525
18353SOL     OW61916  11.243   6.772   4.296 -0.0761 -0.1467 -0.2491
18353SOL    HW161917  11.308   6.702   4.287 -0.5194 -0.4690 -1.0562
18353SOL    HW261918  11.249   6.798   4.387  0.2750 -1.0720  0.0088
18354SOL     OW61919   8.866   8.659   3.340 -0.0757 -0.0913 -0.1110
18354SOL    HW161920   8.930   8.723   3.309 -0.7316  0.2666 -0.7546
18354SOL    HW261921   8.876   8.659   3.435 -0.1619  1.0779 -0.0883
18355SOL     OW61922   2.799   1.933  12.482  0.3115  0.5181 -0.1759
18355SOL    HW161923   2.887   1.932  12.444  0.1664  1.6780 -0.5641
18355SOL    HW261924   2.763   2.018  12.458 -0.9328  0.0509 -0.0406
18356SOL     OW61925   8.519   0.953   6.957 -0.0105  0.3038  0.1988
18356SOL    HW161926   8.465   0.987   7.029 -0.4514  1.3141 -0.5842
18356SOL    HW261927   8.461   0.955   6.881  0.4085 -0.9062 -0.1666
18357SOL     OW61928   3.311   6.564  12.406 -0.2816  0.0279 -0.1145
18357SOL    HW161929   3.227   6.554  12.451  1.0864  0.1135  2.6295
18357SOL    HW261930   3.313   6.655  12.378 -1.4651 -0.2171 -1.1088
18358SOL     OW61931   8.297  10.784  11.611  0.3736 -0.5009  0.3133
18358SOL    HW161932   8.319  10.694  11.586  0.6611 -0.3546  0.0293
18358SOL    HW261933   8.245  10.817  11.538 -2.1893 -1.3495  1.6500
18359SOL     OW61934   7.889   8.227   5.860  0.3540 -0.6821 -0.2009
18359SOL    HW161935   7.978   8.199   5.878  0.8233 -0.4915 -2.0396
18359SOL    HW261936   7.834   8.159   5.899  1.2442 -0.4805  1.5051
18360SOL     OW61937   4.049   1.090   1.724  0.1323  0.0761  0.4294
18360SOL    HW161938   4.084   1.146   1.793 -0.2454  1.1472 -0.2114
18360SOL    HW261939   3.999   1.023   1.770 -0.2082  0.8354  1.2030
18361SOL     OW61940   2.619   7.156   4.951  1.2302 -0.1779  0.8119
18361SOL    HW161941   2.679   7.113   5.013  1.5193  1.0041  1.3731
18361SOL    HW261942   2.676   7.213   4.899  1.2553 -2.2859 -1.6572
18362SOL     OW61943   8.733   0.112   7.872  0.2968  0.5086  0.0031
18362SOL    HW161944   8.727   0.055   7.795  0.3431  0.8887 -0.2807
18362SOL    HW261945   8.824   0.105   7.901 -0.4266 -2.2965  2.0624
18363SOL     OW61946  10.465   5.379   6.527  0.3825  0.1296 -0.1979
18363SOL    HW161947  10.448   5.468   6.556 -0.0817 -1.0780  3.8853
18363SOL    HW261948  10.559   5.368   6.536  0.3032 -0.1002  0.3654
18364SOL     OW61949   0.446   5.610   9.179  0.1176  1.1166 -0.1786
18364SOL    HW161950   0.358   5.621   9.213  0.2599 -0.2751  0.7049
18364SOL    HW261951   0.503   5.618   9.256  0.6694  0.7359 -0.5402
18365SOL     OW61952   8.360   0.552   5.264 -0.2068 -0.8090 -0.3129
18365SOL    HW161953   8.409   0.632   5.248 -2.0710  0.5874  0.5870
18365SOL    HW261954   8.423   0.493   5.306  1.2898  0.0027 -1.3238
18366SOL     OW61955   8.809   2.914   0.927  0.8029 -0.2304  0.1368
18366SOL    HW161956   8.774   3.001   0.944  0.3564 -0.5716  1.0439
18366SOL    HW261957   8.811   2.871   1.013 -0.1820 -1.5389 -0.4537
18367SOL     OW61958  11.681   7.845   7.013 -0.1107 -0.0023 -1.0092
18367SOL    HW161959  11.635   7.907   6.957  1.0140 -0.4973 -2.5484
18367SOL    HW261960  11.753   7.895   7.050 -0.1718  0.0278 -0.9301
18368SOL     OW61961  12.094   3.190   0.865  0.2823 -0.2414 -0.3164
18368SOL    HW161962  12.076   3.161   0.776 -2.2542  0.4075 -0.0888
18368SOL    HW261963  12.059   3.279   0.870  3.4610  1.1472  0.4093
18369SOL     OW61964   0.870   7.230   8.372 -0.3223  0.4158 -0.5362
18369SOL    HW161965   0.962   7.225   8.399 -0.1621 -0.4575 -1.1919
18369SOL    HW261966   0.829   7.288   8.436  0.3164 -0.5516  0.7861
18370SOL     OW61967   2.825   6.780  11.511 -0.5624 -0.7185  0.0228
18370SOL    HW161968   2.900   6.825  11.472  0.4841 -1.3147  1.2859
18370SOL    HW261969   2.784   6.845  11.569 -0.4746 -0.6750  0.0347
18371SOL     OW61970   7.348  10.691   5.111 -0.2207  0.0051  0.3028
18371SOL    HW161971   7.388  10.605   5.119  0.6030  0.2001 -1.3957
18371SOL    HW261972   7.255  10.673   5.099  0.1630 -0.8020 -2.0097
18372SOL     OW61973  12.049   6.082   2.398  0.4419  0.4664  0.0686
18372SOL    HW161974  12.124   6.135   2.368  0.5482  0.9365  1.1263
18372SOL    HW261975  12.071   5.993   2.371  0.5970  0.8365 -1.1080
18373SOL     OW61976   9.924  11.849   3.228 -0.1355  0.1698  0.2931
18373SOL    HW161977   9.906  11.811   3.142  0.2035 -0.8139  0.6436
18373SOL    HW261978   9.908  11.778   3.290  0.1343  0.7135  1.0020
18374SOL     OW61979   4.463   2.924   7.265 -0.1572 -0.5561 -0.1374
18374SOL    HW161980   4.427   2.909   7.352  2.9775 -1.1613  1.1788
18374SOL    HW261981   4.512   2.844   7.244  1.5037  0.6476 -1.1611
18375SOL     OW61982   4.767   0.388   2.874 -0.0742  0.2281  0.0317
18375SOL    HW161983   4.838   0.326   2.886  0.9329  1.4015  0.3352
18375SOL    HW261984   4.713   0.378   2.953 -1.4666 -2.1056 -1.0985
18376SOL     OW61985   2.763  11.385  10.007 -0.3115 -0.2720  1.0808
18376SOL    HW161986   2.825  11.451  10.039 -0.5242 -0.0558  1.0472
18376SOL    HW261987   2.762  11.398   9.912 -0.2210 -0.4406  1.0559
18377SOL     OW61988   6.676   3.540   5.477  0.4156 -0.2453  0.2470
18377SOL    HW161989   6.654   3.599   5.548 -1.7609  0.3526 -0.8387
18377SOL    HW261990   6.716   3.597   5.410  0.3080 -0.3797  0.0664
18378SOL     OW61991  10.211   9.577   1.334  0.3403 -0.2220 -0.3110
18378SOL    HW161992  10.223   9.610   1.423 -0.1352  0.2792 -0.4226
18378SOL    HW261993  10.197   9.483   1.344  0.6420 -0.2217  0.1142
18379SOL     OW61994   3.092   5.253   8.791  0.0324  0.2383 -0.2891
18379SOL    HW161995   3.060   5.343   8.799  1.6076  0.7444  0.9241
18379SOL    HW261996   3.137   5.250   8.707 -0.6127  0.3695 -0.6461
18380SOL     OW61997   3.887   3.313   7.849 -0.4412  0.4108  0.3987
18380SOL    HW161998   3.836   3.322   7.929  0.2451  1.6421  0.7346
18380SOL    HW261999   3.975   3.342   7.874  0.3279 -1.1965 -0.2775
18381SOL     OW62000  12.091   7.889   8.449 -0.0416  0.4701 -0.4755
18381SOL    HW162001  12.023   7.956   8.457  1.1706  1.5368  2.5136
18381SOL    HW262002  12.170   7.932   8.481  1.5870 -1.4070 -1.7160
18382SOL     OW62003   9.493   7.343   8.929 -0.0972 -0.2070  0.0745
18382SOL    HW162004   9.448   7.335   9.013 -0.1787 -0.6308 -0.0084
18382SOL    HW262005   9.428   7.317   8.864  0.1975 -0.6198 -0.0613
18383SOL     OW62006  11.080   4.377   4.114  0.0590 -0.2929  0.0771
18383SOL    HW162007  11.144   4.346   4.050  0.1624 -2.1009  0.9939
18383SOL    HW262008  10.999   4.387   4.065  0.9264  1.8397 -1.0634
18384SOL     OW62009   4.994   3.324   0.021  0.5772  0.3228  0.0270
18384SOL    HW162010   5.073   3.376   0.035  1.2426 -0.2628 -1.3295
18384SOL    HW262011   5.006   3.246   0.074  0.6130  0.5256  0.3172
18385SOL     OW62012  10.773   4.692   1.030  0.5128 -0.4980  0.9681
18385SOL    HW162013  10.782   4.600   1.056 -0.5506 -0.3672  1.8616
18385SOL    HW262014  10.863   4.722   1.015  0.8142 -2.0002 -0.5416
18386SOL     OW62015  10.249   6.385   1.668  0.2232 -0.4682  0.1815
18386SOL    HW162016  10.231   6.478   1.657  1.1297  0.0066  2.3126
18386SOL    HW262017  10.280   6.356   1.582 -1.8817  0.7067 -1.0613
18387SOL     OW62018  10.378   9.004   4.384  0.6070  0.0818 -0.2168
18387SOL    HW162019  10.438   9.010   4.310 -0.6063  1.1500 -1.1431
18387SOL    HW262020  10.422   8.944   4.445  3.2898  1.8878 -0.1962
18388SOL     OW62021   0.008   6.289   0.197 -0.3658  0.2266 -0.1389
18388SOL    HW162022  -0.033   6.376   0.194  0.8686  0.7991 -1.4574
18388SOL    HW262023   0.068   6.294   0.272 -0.5662  0.3885  0.0113
18389SOL     OW62024   5.872   1.407   9.457 -0.1415  0.1700 -0.2349
18389SOL    HW162025   5.829   1.323   9.446  1.4150 -0.4254 -2.5675
18389SOL    HW262026   5.871   1.423   9.551 -1.9141 -1.6513  0.1078
18390SOL     OW62027   3.085   5.389   2.581  0.5688  0.0888 -0.6414
18390SOL    HW162028   3.001   5.347   2.563 -0.3883  0.3202  2.5475
18390SOL    HW262029   3.137   5.320   2.622  2.2146 -0.1860 -3.0038
18391SOL     OW62030   7.341   5.390  11.982 -0.4309  0.2236 -0.2651
18391SOL    HW162031   7.257   5.432  12.002 -2.2256 -3.2043  0.3214
18391SOL    HW262032   7.361   5.337  12.059  0.0591 -2.1546 -1.8900
18392SOL     OW62033   3.704   6.136   8.811  0.4888  0.0696  0.0539
18392SOL    HW162034   3.743   6.224   8.807  0.0862  0.2702  0.4393
18392SOL    HW262035   3.658   6.134   8.895  0.0032 -0.3061 -0.2146
18393SOL     OW62036   3.168  11.007   3.256  0.4251  0.0162  0.0591
18393SOL    HW162037   3.249  11.029   3.211 -0.0066 -0.0765 -0.7860
18393SOL    HW262038   3.190  10.931   3.311  1.1768  0.6890  0.7080
18394SOL     OW62039   5.060   7.721   3.143  0.8185  0.3421  0.3237
18394SOL    HW162040   5.043   7.775   3.220  2.7060 -0.2154  1.1786
18394SOL    HW262041   5.078   7.634   3.177 -0.6243 -0.5204 -0.9398
18395SOL     OW62042   1.248   2.527   4.722 -0.2291 -0.5353 -0.1898
18395SOL    HW162043   1.306   2.456   4.696  0.5648 -0.3352  0.9762
18395SOL    HW262044   1.177   2.483   4.771  0.1342 -0.5593  0.3227
18396SOL     OW62045   3.277   4.903   1.139  0.0892  0.2548 -1.0130
18396SOL    HW162046   3.300   4.875   1.050  0.5004  0.2544 -0.9079
18396SOL    HW262047   3.348   4.961   1.165  0.5894 -0.6745 -0.2338
18397SOL     OW62048  11.227   1.604   7.997 -0.3619 -0.1900  0.2722
18397SOL    HW162049  11.195   1.568   7.914 -0.2722  0.2154  0.0547
18397SOL    HW262050  11.267   1.687   7.972  0.5030 -0.5023  0.5944
18398SOL     OW62051   8.613   9.387   8.275 -0.1933 -0.6154  0.0659
18398SOL    HW162052   8.578   9.369   8.362 -0.6264 -2.5855 -0.4609
18398SOL    HW262053   8.537   9.414   8.223 -0.1346 -0.5127  0.0342
18399SOL     OW62054   1.104   4.713  12.185  0.3354  0.0490 -0.2357
18399SOL    HW162055   1.033   4.706  12.121  0.4050 -0.6966 -0.2398
18399SOL    HW262056   1.183   4.723  12.133  0.5896 -2.0628 -0.3677
18400SOL     OW62057   9.366  11.911  10.827 -0.2093 -0.0602  0.6579
18400SOL    HW162058   9.279  11.939  10.854 -0.3624  0.1945 -0.0677
18400SOL    HW262059   9.391  11.844  10.890 -1.6319 -1.3460 -0.0843
18401SOL     OW62060   3.438   9.082  10.873  0.1531 -0.6211  0.3642
18401SOL    HW162061   3.448   9.168  10.832  1.9592 -2.1377 -2.7225
18401SOL    HW262062   3.500   9.082  10.945  0.1105  0.6481  0.4193
18402SOL     OW62063   3.972   2.204   6.228 -0.3270  0.3505  0.0954
18402SOL    HW162064   3.980   2.118   6.187  1.2003  0.2422  0.5518
18402SOL    HW262065   3.948   2.262   6.156  0.9371 -0.0764 -0.7110
18403SOL     OW62066   8.593  10.414   7.855  0.1650  0.5052 -0.0723
18403SOL    HW162067   8.677  10.412   7.808  0.3035  2.7698 -0.0093
18403SOL    HW262068   8.541  10.479   7.809 -0.5385  1.1185  1.5089
18404SOL     OW62069  10.388  10.186   2.772  0.2408  0.4087 -0.0212
18404SOL    HW162070  10.337  10.203   2.851 -0.3382  0.0170 -0.3037
18404SOL    HW262071  10.461  10.247   2.777 -0.0336  0.6933  0.5966
18405SOL     OW62072  11.356   9.056   5.342  0.3177  0.1475 -0.0093
18405SOL    HW162073  11.363   8.999   5.266 -1.1226  0.3832 -0.3306
18405SOL    HW262074  11.404   9.010   5.411  0.3480 -0.7854 -0.6458
18406SOL     OW62075   2.429   9.557   4.850 -0.1645 -0.1964 -0.0160
18406SOL    HW162076   2.462   9.630   4.901 -2.7085  1.1140 -0.0904
18406SOL    HW262077   2.404   9.596   4.766 -1.5875 -1.1155 -0.0479
18407SOL     OW62078   1.841  10.308   4.745  0.1921  0.0185  0.3530
18407SOL    HW162079   1.838  10.278   4.836  1.6611  0.1348  0.4549
18407SOL    HW262080   1.845  10.403   4.751 -2.3494  0.2087  0.0732
18408SOL     OW62081   9.970   6.112   2.649  0.2224  0.1208 -0.2699
18408SOL    HW162082   9.979   6.025   2.609  3.0085  0.6498 -0.9959
18408SOL    HW262083   9.962   6.171   2.574  2.2738  0.8129  0.0040
18409SOL     OW62084   2.104  11.505   0.827  0.6637  0.3981  0.1323
18409SOL    HW162085   2.077  11.481   0.739  1.4639 -0.1959  0.0389
18409SOL    HW262086   2.091  11.426   0.880  0.2655  0.7247  0.5302
18410SOL     OW62087   0.897  10.711  10.183 -0.1997 -0.1502 -0.9990
18410SOL    HW162088   0.878  10.704  10.277 -0.5786 -0.8263 -1.1183
18410SOL    HW262089   0.991  10.699  10.176  0.1007  1.6439 -0.5462
18411SOL     OW62090   4.741   1.229   7.530  0.3196  0.4429  0.2788
18411SOL    HW162091   4.759   1.135   7.531  0.9013  0.4616 -2.3198
18411SOL    HW262092   4.676   1.240   7.460 -2.8026  1.5898  3.0752
18412SOL     OW62093   9.862   7.979  12.032  0.1691 -0.0885  0.2469
18412SOL    HW162094   9.900   7.898  12.067  0.5958 -0.5360 -1.2042
18412SOL    HW262095   9.912   8.049  12.074  0.6284 -0.6044  0.5772
18413SOL     OW62096  12.554   1.478  10.449  0.2518 -0.2283  0.1252
18413SOL    HW162097  12.565   1.572  10.461 -0.5473  0.0598 -1.1558
18413SOL    HW262098  12.643   1.444  10.437  0.5800  0.2751  1.0474
18414SOL     OW62099  12.449  12.116   2.422 -0.3952 -0.0468  0.2040
18414SOL    HW162100  12.446  12.189   2.484 -0.7012 -1.7179  2.2915
18414SOL    HW262101  12.542  12.095   2.415 -0.4031 -0.2055  0.5517
18415SOL     OW62102  10.010   3.157   0.046  0.5384  0.0610  0.1147
18415SOL    HW162103  10.013   3.220  -0.027 -1.1579  0.4340  0.3213
18415SOL    HW262104  10.079   3.094   0.026  1.3139  1.1690 -0.8642
18416SOL     OW62105   9.565  10.888   0.315 -0.8317 -0.0150 -0.2134
18416SOL    HW162106   9.567  10.934   0.399 -0.8989  1.8134 -1.1722
18416SOL    HW262107   9.632  10.820   0.323  1.4863  2.1845  0.2344
18417SOL     OW62108   5.995   0.221   7.281  0.1048 -0.2732 -0.0901
18417SOL    HW162109   5.907   0.247   7.255  0.8302  0.2333 -2.2367
18417SOL    HW262110   6.049   0.237   7.203  2.2572  0.2039  1.4245
18418SOL     OW62111   5.605   1.160   1.950 -0.1948  0.3587 -0.0166
18418SOL    HW162112   5.525   1.210   1.967 -0.8900  0.3759 -2.8196
18418SOL    HW262113   5.578   1.069   1.958 -0.2022  0.3703  0.1031
18419SOL     OW62114   6.978   6.118   5.854  0.0060 -0.2967  0.2827
18419SOL    HW162115   6.905   6.082   5.804 -2.0349  0.5395  2.4642
18419SOL    HW262116   6.976   6.071   5.937  1.3722  0.4078  0.7492
18420SOL     OW62117  10.270  11.565  12.260 -0.1659 -0.2164  0.7758
18420SOL    HW162118  10.268  11.563  12.164 -1.5598  1.0123  0.7510
18420SOL    HW262119  10.283  11.473  12.285 -0.2569 -0.6243 -0.5852
18421SOL     OW62120   9.471   6.763   6.207 -0.4086 -0.1698  0.1993
18421SOL    HW162121   9.410   6.836   6.222 -1.4741 -1.1205  0.6162
18421SOL    HW262122   9.553   6.806   6.183 -1.2806  1.1495 -0.5756
18422SOL     OW62123   8.262   5.168  10.537 -0.2624 -0.1209  0.4558
18422SOL    HW162124   8.281   5.211  10.620  0.5699  1.8044 -0.6583
18422SOL    HW262125   8.204   5.095  10.560  0.3137  0.0760  2.7468
18423SOL     OW62126   3.482   0.415   5.149  0.0363 -0.2841 -0.6557
18423SOL    HW162127   3.460   0.505   5.125  0.8082 -0.1478 -0.8846
18423SOL    HW262128   3.406   0.363   5.120 -0.6431  0.3475 -0.0424
18424SOL     OW62129   0.663   8.943  10.860 -0.2638 -0.0145 -0.4875
18424SOL    HW162130   0.743   8.926  10.909 -0.6399  1.5218  0.7551
18424SOL    HW262131   0.681   8.912  10.772  0.6346 -2.4088  0.4637
18425SOL     OW62132  10.555   3.361   7.656 -0.1119  0.1270  0.0162
18425SOL    HW162133  10.634   3.314   7.685 -0.4800 -0.4838  0.0518
18425SOL    HW262134  10.490   3.292   7.645 -1.3362  0.8338  2.2034
18426SOL     OW62135   6.302   7.350   5.740 -0.6906 -0.0823  0.4435
18426SOL    HW162136   6.317   7.345   5.835 -1.6612 -0.1387  0.6052
18426SOL    HW262137   6.322   7.441   5.717  0.0463 -0.1930  0.6007
18427SOL     OW62138   7.971   7.740  12.302 -0.3158  0.3983 -0.1881
18427SOL    HW162139   8.063   7.766  12.301 -0.4548  0.9138 -1.2034
18427SOL    HW262140   7.955   7.707  12.213 -1.1528  0.4780 -0.0723
18428SOL     OW62141  11.698  10.227   0.351  0.2247 -0.3114  0.2799
18428SOL    HW162142  11.703  10.281   0.430 -0.1503  1.0400 -0.5902
18428SOL    HW262143  11.638  10.155   0.375  1.2767 -0.7650  1.6683
18429SOL     OW62144   9.794   4.371   7.301  0.2097 -0.1485  0.7089
18429SOL    HW162145   9.866   4.337   7.354  0.1642 -0.8442  0.3396
18429SOL    HW262146   9.829   4.372   7.212  0.4316  1.4233  0.7873
18430SOL     OW62147   9.275   6.168   7.015 -0.1569  0.2940  0.0518
18430SOL    HW162148   9.247   6.219   7.091 -2.5313  0.8691 -1.1025
18430SOL    HW262149   9.313   6.088   7.051  0.2458  1.2450  1.8309
18431SOL     OW62150   7.369   2.507   8.873 -0.5209 -0.4059 -0.0146
18431SOL    HW162151   7.319   2.511   8.955  0.0619 -0.0165  0.3335
18431SOL    HW262152   7.438   2.443   8.891  1.8921  2.2492  1.1566
18432SOL     OW62153   4.648   6.021   8.252  0.1912  0.2682  0.1800
18432SOL    HW162154   4.671   5.928   8.261 -0.3286  0.1519  0.3447
18432SOL    HW262155   4.553   6.021   8.241  0.0572  0.8405  1.1692
18433SOL     OW62156   5.509   4.733   0.903 -1.1775 -0.3178 -0.2850
18433SOL    HW162157   5.538   4.822   0.919  0.4939 -0.7016 -0.9596
18433SOL    HW262158   5.431   4.722   0.958 -0.7044  1.1569  0.7106
18434SOL     OW62159   0.041  12.236  12.118 -0.5397  0.2804 -0.1859
18434SOL    HW162160  -0.052  12.225  12.139 -1.0949  1.2455 -1.9339
18434SOL    HW262161   0.083  12.252  12.202 -2.4487  2.9187  0.3664
18435SOL     OW62162   8.769   6.685   3.223 -0.0383 -0.5161 -0.0086
18435SOL    HW162163   8.680   6.704   3.252 -0.2497  0.9723 -1.4600
18435SOL    HW262164   8.824   6.742   3.277  0.2875 -2.6747  2.1112
18436SOL     OW62165   7.391   4.177   2.291 -0.3452 -0.1569 -0.1291
18436SOL    HW162166   7.361   4.098   2.246 -1.2267 -0.0668  0.2874
18436SOL    HW262167   7.472   4.150   2.335  0.3499 -0.3446 -1.4469
18437SOL     OW62168   3.645   1.677   3.464  0.6715  0.3919 -0.3089
18437SOL    HW162169   3.591   1.725   3.526  1.3494 -1.0540  1.5225
18437SOL    HW262170   3.604   1.691   3.379 -1.7877  0.4572  0.8105
18438SOL     OW62171   0.132   2.612   6.027  0.4415 -0.3582  0.2380
18438SOL    HW162172   0.188   2.682   5.994 -0.7561  0.4372 -0.1638
18438SOL    HW262173   0.144   2.615   6.122  1.4777 -0.5638  0.1255
18439SOL     OW62174  11.337   0.978   8.557  0.3941 -0.6594  0.5052
18439SOL    HW162175  11.369   1.017   8.476 -0.6704 -1.8756 -0.5441
18439SOL    HW262176  11.408   0.921   8.587  0.1640 -1.5294 -0.5355
18440SOL     OW62177   4.868   2.523   3.510  0.4242  0.8100  0.3113
18440SOL    HW162178   4.833   2.438   3.485 -0.5129  0.9839  0.9931
18440SOL    HW262179   4.962   2.517   3.490 -0.0250  0.4793 -1.9065
18441SOL     OW62180   7.789   2.785   4.447 -0.7909  0.0724 -0.1594
18441SOL    HW162181   7.816   2.693   4.446  0.6318  0.4483 -1.8960
18441SOL    HW262182   7.839   2.824   4.518  0.6439  0.0201 -1.1107
18442SOL     OW62183   8.732   6.967   1.378 -0.4181  0.4940  0.1376
18442SOL    HW162184   8.642   6.945   1.354 -0.5335  0.9339  0.1641
18442SOL    HW262185   8.725   7.008   1.464 -0.7086  4.3726 -1.5658
18443SOL     OW62186  10.609   6.595   3.974 -0.4395 -0.1107 -0.1513
18443SOL    HW162187  10.586   6.638   4.056 -1.7827 -0.2449 -0.4387
18443SOL    HW262188  10.640   6.508   4.000 -0.7175 -0.0986  0.2186
18444SOL     OW62189   7.987   5.091   3.527 -0.0761  0.2368  0.1192
18444SOL    HW162190   7.894   5.092   3.504  0.2095 -1.6842 -1.3875
18444SOL    HW262191   7.998   5.167   3.584 -2.3112  1.2392 -0.6459
18445SOL     OW62192   9.166   3.930  10.507 -0.0342 -0.3450  0.0581
18445SOL    HW162193   9.225   3.894  10.442  0.9974  1.2115  0.0623
18445SOL    HW262194   9.090   3.961  10.457  0.1934 -0.2929 -0.2570
18446SOL     OW62195  11.154   8.032   9.944  0.4342  0.2073  0.1556
18446SOL    HW162196  11.154   8.039   9.849 -1.2186 -0.8625  0.0299
18446SOL    HW262197  11.122   7.944   9.962 -1.1950  1.0303  1.6830
18447SOL     OW62198  12.203   5.791  11.057  0.2730 -0.6858 -0.2268
18447SOL    HW162199  12.280   5.745  11.025  0.3707 -0.5749 -0.1521
18447SOL    HW262200  12.138   5.781  10.987  0.3755 -0.7275 -0.3173
18448SOL     OW62201   9.232   2.200   8.656  0.4493 -0.3324 -0.1342
18448SOL    HW162202   9.159   2.204   8.595  1.1839 -1.0886 -1.0914
18448SOL    HW262203   9.225   2.280   8.708 -0.4481  0.0998 -0.9082
18449SOL     OW62204   8.535   0.439  10.871 -0.0086  0.2222  0.0373
18449SOL    HW162205   8.622   0.405  10.890  0.5323  1.5110 -0.0818
18449SOL    HW262206   8.536   0.455  10.777 -1.3430 -2.3840 -0.5048
18450SOL     OW62207   6.600   2.501   6.258 -0.1044 -0.3034  0.8132
18450SOL    HW162208   6.637   2.510   6.347  0.6896  1.0897  0.3808
18450SOL    HW262209   6.552   2.583   6.244 -3.0234 -1.8469  1.1419
18451SOL     OW62210   9.070  11.651   8.119 -0.0478  0.4522 -0.3066
18451SOL    HW162211   9.050  11.591   8.191 -0.2753  0.4647 -0.3576
18451SOL    HW262212   9.152  11.693   8.145  0.0663  0.1856 -0.2272
18452SOL     OW62213   1.512   5.200  11.032 -0.1550  0.0107 -0.0576
18452SOL    HW162214   1.584   5.175  10.974  0.5137  1.0354  0.3042
18452SOL    HW262215   1.448   5.243  10.974  0.2226  0.4641 -0.1449
18453SOL     OW62216   7.604   0.075  12.409 -0.2568 -0.3773 -0.1300
18453SOL    HW162217   7.518   0.107  12.383 -0.1981 -0.1948 -0.1051
18453SOL    HW262218   7.622   0.119  12.493  0.2045  0.2141 -0.5304
18454SOL     OW62219   6.133   5.295   3.162 -0.0154  0.4388  0.7926
18454SOL    HW162220   6.158   5.243   3.086 -0.4250  1.7666 -0.2859
18454SOL    HW262221   6.055   5.252   3.196  0.5142 -0.5089  0.8377
18455SOL     OW62222   7.294   5.564   8.526  0.1755  0.3904  0.2037
18455SOL    HW162223   7.202   5.580   8.549  0.2525  0.4871  0.4492
18455SOL    HW262224   7.290   5.499   8.456 -0.0814  0.4106  0.1978
18456SOL     OW62225   0.015   2.348   0.746  0.7810 -0.0702 -0.0827
18456SOL    HW162226   0.007   2.440   0.772  2.7465  0.3102 -0.6417
18456SOL    HW262227  -0.064   2.331   0.695  1.1681  1.8887 -1.4789
18457SOL     OW62228   4.103   2.293   5.696  0.1878 -0.4621  0.1631
18457SOL    HW162229   4.158   2.371   5.708  0.2518  0.0637 -2.8078
18457SOL    HW262230   4.138   2.230   5.758  2.3954  0.7722  0.2996
18458SOL     OW62231   1.767   3.394   2.921 -0.0972  0.1902 -0.6435
18458SOL    HW162232   1.813   3.475   2.944 -1.7982  1.1521 -0.4281
18458SOL    HW262233   1.742   3.356   3.006 -2.1532  1.2038 -0.7332
18459SOL     OW62234   1.502   2.862   4.842  0.6690 -0.2658 -0.0967
18459SOL    HW162235   1.471   2.772   4.853 -0.0507  0.0536  0.6345
18459SOL    HW262236   1.516   2.893   4.932 -0.2161  0.7271 -0.2836
18460SOL     OW62237  10.398   0.109   3.980 -0.6957  0.2413 -0.7788
18460SOL    HW162238  10.399   0.204   3.968  0.7903  0.2287 -0.9315
18460SOL    HW262239  10.448   0.075   3.906 -0.7989 -0.6269 -0.4611
18461SOL     OW62240  11.689   6.599   4.229 -0.4592  0.1213  0.3244
18461SOL    HW162241  11.697   6.686   4.191 -1.1275  0.2285  0.4153
18461SOL    HW262242  11.690   6.540   4.154  1.5072  0.0749  0.3409
18462SOL     OW62243   6.055   9.336   2.194  0.5270 -0.5367  0.0585
18462SOL    HW162244   5.988   9.352   2.128 -0.3618  0.6195  1.1911
18462SOL    HW262245   6.104   9.418   2.198  2.5462 -1.6011 -1.2794
18463SOL     OW62246   5.166   9.286   9.346  0.1587 -0.5403  0.0694
18463SOL    HW162247   5.231   9.298   9.277 -1.0452 -0.6792 -1.1269
18463SOL    HW262248   5.185   9.199   9.383  1.8254  0.1950  1.0712
18464SOL     OW62249   8.195   8.709  12.477  0.4388 -0.0569  0.0355
18464SOL    HW162250   8.288   8.703  12.453  0.6737  0.1451  0.8739
18464SOL    HW262251   8.167   8.619  12.489  0.2175 -0.1959 -1.3077
18465SOL     OW62252   3.016   7.737   1.231  0.4237 -0.1949  0.3674
18465SOL    HW162253   2.921   7.737   1.214  0.2713 -3.4651  0.5068
18465SOL    HW262254   3.055   7.716   1.146  1.2808  2.9149 -0.1275
18466SOL     OW62255   1.987   3.107  11.134 -0.7105 -0.2894  0.2266
18466SOL    HW162256   1.925   3.171  11.100 -0.3660  0.0222  0.1841
18466SOL    HW262257   1.932   3.043  11.179 -0.9183  1.2665  2.3204
18467SOL     OW62258   1.387  11.734   9.026 -0.4293 -0.2190 -0.2509
18467SOL    HW162259   1.452  11.664   9.035 -0.5540 -0.6865 -2.3364
18467SOL    HW262260   1.361  11.730   8.934 -3.1600  0.1836  0.3974
18468SOL     OW62261   7.610   3.383  10.701 -0.4053 -0.6229  0.2696
18468SOL    HW162262   7.699   3.407  10.676 -0.6545  0.8083  0.6666
18468SOL    HW262263   7.558   3.400  10.623 -0.8142  1.6295  0.9760
18469SOL     OW62264   7.738   6.169   0.516  0.2720 -0.6283  0.7294
18469SOL    HW162265   7.831   6.165   0.492 -0.0876  0.5340 -1.0627
18469SOL    HW262266   7.697   6.102   0.461 -0.2065  0.2253  0.0231
18470SOL     OW62267   2.453   6.421   1.089  0.0223 -0.0910  0.5039
18470SOL    HW162268   2.430   6.339   1.045 -3.5501 -0.2287  2.2430
18470SOL    HW262269   2.390   6.485   1.056 -0.1772  0.7800  2.4052
18471SOL     OW62270   0.579   5.438   0.583 -0.1362 -0.0607 -0.2481
18471SOL    HW162271   0.559   5.390   0.503 -0.6238  0.7869 -0.6495
18471SOL    HW262272   0.559   5.377   0.654 -0.0785 -0.6809 -0.7633
18472SOL     OW62273   2.702  11.619  12.115  0.1103 -0.1917  0.0765
18472SOL    HW162274   2.775  11.622  12.053 -0.1074  0.9433 -0.1310
18472SOL    HW262275   2.676  11.526  12.116  0.8902 -0.4291 -0.6123
18473SOL     OW62276   8.118   5.711   8.088 -0.3365 -0.2842  0.3226
18473SOL    HW162277   8.160   5.631   8.056 -1.4634 -0.8328  0.1746
18473SOL    HW262278   8.191   5.766   8.118  0.4024 -1.7244  1.2643
18474SOL     OW62279   6.517   1.037   4.416  0.2265  0.4928 -0.0371
18474SOL    HW162280   6.591   1.095   4.429 -0.6817  1.5838  0.4101
18474SOL    HW262281   6.551   0.949   4.434  2.2754  0.4990 -3.1419
18475SOL     OW62282   8.951   6.553  11.853 -0.7360 -0.5480  0.2027
18475SOL    HW162283   8.862   6.576  11.881 -0.4555  2.2811 -0.8110
18475SOL    HW262284   9.008   6.602  11.912  0.0983 -1.1445 -0.0906
18476SOL     OW62285   5.421   6.474   9.513  0.0035 -0.2459  0.2846
18476SOL    HW162286   5.457   6.395   9.473 -1.2959 -1.7335  1.8955
18476SOL    HW262287   5.327   6.469   9.496 -0.3634 -0.1113  2.0897
18477SOL     OW62288   3.219   7.017   8.417 -0.7453  0.1289 -0.4454
18477SOL    HW162289   3.138   6.979   8.450 -0.5550  0.0246 -0.1007
18477SOL    HW262290   3.193   7.058   8.334 -1.5959  1.9209  0.6485
18478SOL     OW62291   0.714   0.484   3.727  0.3617 -0.6850 -0.3435
18478SOL    HW162292   0.784   0.460   3.666  0.9556 -0.3136  0.1749
18478SOL    HW262293   0.716   0.580   3.729 -0.3016 -0.6632 -0.4759
18479SOL     OW62294   6.501   5.317   2.214  0.4046  0.4720  0.2426
18479SOL    HW162295   6.498   5.268   2.132 -1.6766  1.0350 -0.0719
18479SOL    HW262296   6.472   5.405   2.191 -1.8756  0.2306  1.7923
18480SOL     OW62297   4.281   5.010   5.873  1.0721  0.2887 -0.1538
18480SOL    HW162298   4.265   5.097   5.910  1.0671 -1.2459  3.9737
18480SOL    HW262299   4.215   5.000   5.805 -0.3322  2.6992  0.7285
18481SOL     OW62300   9.980  10.097   4.979  0.3534  0.2589 -0.2691
18481SOL    HW162301  10.060  10.147   4.962 -0.2729  1.2064 -0.5115
18481SOL    HW262302   9.949  10.072   4.892  0.8111 -0.8136 -0.1374
18482SOL     OW62303  11.130   9.473   4.146  0.2753  0.0592 -0.3177
18482SOL    HW162304  11.223   9.467   4.125  0.3495  0.4957 -0.1276
18482SOL    HW262305  11.120   9.421   4.225  0.3762  0.0858 -0.2872
18483SOL     OW62306  10.999   3.852   6.098 -0.1967  0.0536  0.1326
18483SOL    HW162307  11.081   3.830   6.142 -0.3816 -0.6412  0.1578
18483SOL    HW262308  11.021   3.924   6.039  0.3319  0.1618  0.4570
18484SOL     OW62309   2.654   1.622   3.582 -0.2799 -0.4200 -0.4298
18484SOL    HW162310   2.606   1.573   3.515 -1.0862 -2.1448  1.3181
18484SOL    HW262311   2.590   1.637   3.651  1.0383 -0.5203  0.8536
18485SOL     OW62312   0.445   1.347   0.709 -0.0458 -0.0765  0.5012
18485SOL    HW162313   0.421   1.439   0.719 -1.4578 -0.2974 -0.5307
18485SOL    HW262314   0.521   1.348   0.650 -1.5861  0.3397 -1.5730
18486SOL     OW62315   6.888   4.051   7.227 -0.3236 -0.0055 -0.5961
18486SOL    HW162316   6.828   4.111   7.272 -0.2470 -0.4032  0.0517
18486SOL    HW262317   6.971   4.097   7.224 -0.2831 -0.0460 -0.1600
18487SOL     OW62318   8.610   7.877  12.176 -0.1562  0.0470 -0.6078
18487SOL    HW162319   8.591   7.845  12.264  0.1034 -0.0435 -0.5835
18487SOL    HW262320   8.675   7.815  12.142 -0.1631  0.1536 -0.8164
18488SOL     OW62321  11.996   5.053   4.814 -0.4339 -0.0486  0.5170
18488SOL    HW162322  12.086   5.081   4.796 -0.2083 -1.4707 -0.7113
18488SOL    HW262323  12.005   4.982   4.877 -0.6883 -0.1735  0.4135
18489SOL     OW62324   2.708   6.041   2.612  0.3680 -0.1300  0.0987
18489SOL    HW162325   2.754   5.957   2.615  0.9514  0.2089  1.1234
18489SOL    HW262326   2.764   6.101   2.662 -1.3300  0.2116  1.6906
18490SOL     OW62327   0.843   4.721   5.220  0.4654  0.3040  0.3830
18490SOL    HW162328   0.759   4.675   5.223  1.4334 -1.8095 -1.4387
18490SOL    HW262329   0.909   4.652   5.231  2.0009  1.2326 -1.9747
18491SOL     OW62330   9.296   3.706  12.066 -0.5385 -0.1874  0.4327
18491SOL    HW162331   9.258   3.629  12.109  0.3874 -0.1363  1.3698
18491SOL    HW262332   9.378   3.722  12.112  0.6951 -0.3352 -1.5690
18492SOL     OW62333   9.714   1.790   6.876  0.0687 -0.0113  0.3158
18492SOL    HW162334   9.748   1.747   6.798 -2.5915  0.4229 -1.1986
18492SOL    HW262335   9.654   1.725   6.915 -0.9170  0.8404  0.2649
18493SOL     OW62336   2.168   3.142   4.695  0.5192 -0.0257 -0.2260
18493SOL    HW162337   2.257   3.145   4.729  0.4714  0.4537 -0.1376
18493SOL    HW262338   2.168   3.205   4.622 -0.1506  1.1457  0.7519
18494SOL     OW62339   2.787   0.236   1.341 -0.2243  0.2105 -0.3561
18494SOL    HW162340   2.777   0.301   1.272 -3.2935 -0.3846 -0.6498
18494SOL    HW262341   2.807   0.154   1.295 -0.8673  0.0900 -0.4301
18495SOL     OW62342  10.701   4.538   0.357  0.1157 -0.0151 -0.2913
18495SOL    HW162343  10.738   4.623   0.330  1.1016 -0.3178  0.0653
18495SOL    HW262344  10.620   4.561   0.402 -0.7103  0.6018 -1.9945
18496SOL     OW62345  11.835   8.412   5.347 -0.0883  0.0744 -0.1963
18496SOL    HW162346  11.743   8.437   5.345 -0.3181 -0.7803 -1.5887
18496SOL    HW262347  11.844   8.349   5.275  1.2990 -0.8314  0.7234
18497SOL     OW62348  12.231   1.454   9.170  0.7926  0.2389  0.2322
18497SOL    HW162349  12.240   1.359   9.178 -0.0838  0.2717  2.1963
18497SOL    HW262350  12.150   1.467   9.122 -0.1254 -0.0333  1.6634
18498SOL     OW62351   2.867   5.799   1.436  0.6162 -0.2087 -0.1781
18498SOL    HW162352   2.877   5.893   1.425  0.9918 -0.0756  1.1678
18498SOL    HW262353   2.872   5.764   1.347  2.4996  0.8564 -0.5358
18499SOL     OW62354   4.943   1.367   3.037  0.0230 -0.0587  0.3520
18499SOL    HW162355   4.887   1.428   3.086  0.4558  0.5521  0.1009
18499SOL    HW262356   4.918   1.281   3.069 -1.6146  0.1366 -0.2965
18500SOL     OW62357   3.306   1.303   3.949 -0.9206  0.1637  0.0380
18500SOL    HW162358   3.313   1.294   4.044 -2.0407  2.7389  0.4526
18500SOL    HW262359   3.396   1.317   3.920 -0.7058  0.7032  0.9128
18501SOL     OW62360   4.649   9.776   3.964  0.0731  0.3782  0.2172
18501SOL    HW162361   4.643   9.727   4.046  2.1622  1.4773  1.0969
18501SOL    HW262362   4.640   9.710   3.895  0.0262 -0.8160  1.3340
18502SOL     OW62363   2.644   1.313   7.740  0.5442  0.0403 -0.2278
18502SOL    HW162364   2.638   1.360   7.656 -0.7096  0.8201  0.2573
18502SOL    HW262365   2.679   1.378   7.801  0.8515 -0.3287 -0.0084
18503SOL     OW62366   2.849   9.207   1.834  0.0959  0.2473  0.0111
18503SOL    HW162367   2.821   9.288   1.792  1.6209  0.3795 -0.8261
18503SOL    HW262368   2.942   9.199   1.811 -0.3247 -2.4316 -1.0438
18504SOL     OW62369   5.672   4.547   1.017  0.3710 -0.2671  0.2351
18504SOL    HW162370   5.617   4.618   0.986  0.5182  0.4898  1.6044
18504SOL    HW262371   5.722   4.519   0.940 -0.5658  0.2860 -0.5893
18505SOL     OW62372   1.271   7.539   4.191  0.1620  0.1139  0.4860
18505SOL    HW162373   1.228   7.454   4.185 -0.0308  0.2899 -1.8904
18505SOL    HW262374   1.210   7.595   4.238 -0.4927 -0.6294  0.5289
18506SOL     OW62375  12.510   5.377  11.261  0.5085  0.3283 -0.1397
18506SOL    HW162376  12.573   5.305  11.275  2.0279  1.7216  0.5566
18506SOL    HW262377  12.553   5.434  11.197  0.3542  1.7419  0.9651
18507SOL     OW62378   7.087   5.247   3.723 -0.1468 -0.1217  0.2666
18507SOL    HW162379   7.135   5.323   3.689  0.8050 -0.3864  0.9709
18507SOL    HW262380   7.033   5.218   3.650  1.5573 -0.4511 -0.9415
18508SOL     OW62381  10.177   1.935  10.909 -0.7207  0.1658  0.0330
18508SOL    HW162382  10.209   1.905  10.994 -0.1123  1.9711  0.4780
18508SOL    HW262383  10.205   1.867  10.848  0.0818 -0.4676  1.0708
18509SOL     OW62384   6.220   9.979   9.503  0.3083 -0.0830  1.1493
18509SOL    HW162385   6.245   9.976   9.595 -0.4613  0.5681  1.3941
18509SOL    HW262386   6.303   9.986   9.455  0.6635  0.5015  1.8408
18510SOL     OW62387  11.475   7.738   2.298  0.3938  0.1643  0.1218
18510SOL    HW162388  11.563   7.733   2.336 -0.4870 -0.4047  2.2622
18510SOL    HW262389  11.422   7.777   2.368 -1.1167  0.2202 -1.0175
18511SOL     OW62390   3.541   5.303   4.868 -0.2532 -0.2217  0.1611
18511SOL    HW162391   3.558   5.210   4.852 -0.3828 -0.1808 -0.2424
18511SOL    HW262392   3.583   5.348   4.794 -2.3712 -0.1445 -1.0584
18512SOL     OW62393   9.821   7.665   8.836  0.4253  0.3557 -0.7823
18512SOL    HW162394   9.735   7.624   8.828  0.4035  0.3014 -0.3256
18512SOL    HW262395   9.869   7.610   8.898  0.0585  1.5313  0.6041
18513SOL     OW62396   3.328   3.623   3.587  0.0051 -0.1860 -0.3341
18513SOL    HW162397   3.325   3.716   3.566 -2.3588  0.3443  1.8410
18513SOL    HW262398   3.246   3.588   3.552  1.6198 -1.9337 -2.6916
18514SOL     OW62399   8.397  10.866  11.290 -0.0922  0.0603 -0.4817
18514SOL    HW162400   8.397  10.926  11.216 -0.2915  0.6135 -0.0397
18514SOL    HW262401   8.304  10.849  11.307 -0.0469 -2.2926 -2.1181
18515SOL     OW62402   3.067   8.944   7.615 -0.2160 -0.4092  0.7084
18515SOL    HW162403   3.055   8.862   7.568 -1.9799 -0.2015  0.7418
18515SOL    HW262404   3.148   8.932   7.665  1.0650 -1.0697 -1.4167
18516SOL     OW62405   1.882  11.135   1.279  0.8605 -0.5518 -0.1581
18516SOL    HW162406   1.789  11.152   1.297  1.3730  1.7722  0.6287
18516SOL    HW262407   1.881  11.072   1.207 -1.3870  1.5504 -2.1728
18517SOL     OW62408   5.012  11.942   5.664 -0.2462  0.1230 -0.1916
18517SOL    HW162409   5.043  11.855   5.688  1.8374  0.7446 -0.4199
18517SOL    HW262410   5.089  11.998   5.669 -1.6196  2.1081  0.5083
18518SOL     OW62411   3.732   8.619   2.618 -0.2226 -0.8938  0.4589
18518SOL    HW162412   3.814   8.668   2.613 -1.0411  0.4660 -0.5441
18518SOL    HW262413   3.697   8.640   2.705 -0.3300 -0.0471  0.2244
18519SOL     OW62414   5.813   6.512   1.512 -0.4479 -0.2020 -0.3309
18519SOL    HW162415   5.848   6.449   1.575  2.2331 -0.1683 -1.6790
18519SOL    HW262416   5.762   6.459   1.450 -0.0470 -0.7306 -0.2055
18520SOL     OW62417   3.409   5.224   8.100 -0.1584  0.0457 -0.5960
18520SOL    HW162418   3.487   5.272   8.073 -0.8180 -0.0835 -2.9141
18520SOL    HW262419   3.364   5.285   8.160  0.8713  0.7744 -0.5314
18521SOL     OW62420  11.060   9.309   3.895 -0.3260  0.2795 -0.4174
18521SOL    HW162421  11.122   9.236   3.902 -0.3228  0.3825  0.9554
18521SOL    HW262422  11.103   9.381   3.941 -0.2539  1.2289 -1.8950
18522SOL     OW62423  10.394  11.133   5.040 -0.1306 -0.3354 -0.2972
18522SOL    HW162424  10.371  11.065   5.104 -1.2064 -0.3504 -0.6855
18522SOL    HW262425  10.377  11.215   5.086 -1.3256 -0.3447 -0.6849
18523SOL     OW62426   2.635   6.233   2.205 -0.1106  0.3209 -0.0140
18523SOL    HW162427   2.561   6.177   2.228  1.3154 -0.5278  3.0072
18523SOL    HW262428   2.710   6.174   2.201  1.0182  1.6275  0.7832
18524SOL     OW62429   2.770   5.625  10.947 -0.6580  0.5355  0.6257
18524SOL    HW162430   2.796   5.590  10.861 -1.1691  0.8327  0.3471
18524SOL    HW262431   2.851   5.624  10.998  0.0992  2.1711 -0.4664
18525SOL     OW62432   0.464   8.811   9.592 -0.3813  0.3052 -0.2068
18525SOL    HW162433   0.536   8.871   9.572  0.4656 -0.5613  0.1760
18525SOL    HW262434   0.500   8.724   9.576 -0.6010 -0.2778  2.1175
18526SOL     OW62435   5.650   8.313   5.071 -0.4286  0.4080  0.5081
18526SOL    HW162436   5.724   8.367   5.098  0.4105 -0.7256  0.5005
18526SOL    HW262437   5.600   8.370   5.012  0.6573  1.0431  0.1820
18527SOL     OW62438   4.134   9.129   0.094 -0.6217 -0.4647  0.1783
18527SOL    HW162439   4.059   9.085   0.054 -0.8123  0.0554 -0.0362
18527SOL    HW262440   4.097   9.202   0.142 -0.5072 -1.7219  2.2911
18528SOL     OW62441   2.813   6.338   7.329 -0.0718 -0.2762 -0.1348
18528SOL    HW162442   2.791   6.278   7.257  0.5531  3.0379 -3.3803
18528SOL    HW262443   2.905   6.319   7.348  0.0531 -0.5528 -0.9432
18529SOL     OW62444   8.940   5.648   6.556  0.1398 -0.6737  0.0783
18529SOL    HW162445   9.025   5.612   6.529  1.8999  0.3103  3.5989
18529SOL    HW262446   8.945   5.650   6.652 -1.4377  4.8213  0.3758
18530SOL     OW62447   2.754   2.475   4.127 -0.1055 -0.4595 -0.0882
18530SOL    HW162448   2.770   2.444   4.216 -0.9314  0.0033  0.2280
18530SOL    HW262449   2.823   2.434   4.075  0.4739 -0.6198  0.7859
18531SOL     OW62450   9.055   3.653   3.403 -0.2076  0.2897  0.2350
18531SOL    HW162451   9.065   3.737   3.449  0.2221  0.3415  0.0540
18531SOL    HW262452   8.987   3.669   3.339 -1.6267 -0.1011  1.5855
18532SOL     OW62453   1.643  12.418  10.191  0.3818  0.5470 -0.0621
18532SOL    HW162454   1.661  12.443  10.282  2.4016  0.2632 -0.3356
18532SOL    HW262455   1.723  12.375  10.162  0.1519  1.4924 -2.2844
18533SOL     OW62456   6.685   6.207   3.033  0.1766 -0.0475  0.2315
18533SOL    HW162457   6.644   6.287   3.066  3.1450  0.8586  2.1423
18533SOL    HW262458   6.736   6.236   2.957  0.0346 -0.4407 -0.0159
18534SOL     OW62459   8.814   6.535   5.637  0.5290 -0.2410 -0.4836
18534SOL    HW162460   8.734   6.586   5.626  0.9256  1.1111  2.2207
18534SOL    HW262461   8.860   6.577   5.710  2.9437 -1.9467 -0.9101
18535SOL     OW62462   1.507   4.255   7.249  0.3250  0.0961  0.0226
18535SOL    HW162463   1.513   4.331   7.190 -0.0023  0.8789  0.9778
18535SOL    HW262464   1.431   4.206   7.217  0.4509  0.2432 -0.5144
18536SOL     OW62465   6.039   9.547  11.861  0.3195 -0.3530  1.0390
18536SOL    HW162466   6.118   9.601  11.863 -0.3539  0.9533 -1.5768
18536SOL    HW262467   5.968   9.610  11.873 -0.4466 -0.7173 -1.1370
18537SOL     OW62468  11.956   1.914   8.508 -0.1730  0.3555 -0.4971
18537SOL    HW162469  11.963   1.822   8.534  0.9372  1.1865  2.6753
18537SOL    HW262470  11.937   1.912   8.415 -2.7814 -3.1218 -0.0891
18538SOL     OW62471   5.980   3.286   5.242  0.0494 -0.2962  0.0423
18538SOL    HW162472   5.933   3.224   5.298 -2.4024  0.2737 -1.2371
18538SOL    HW262473   6.007   3.234   5.166 -1.2420 -0.0521 -0.6212
18539SOL     OW62474  11.658   7.326   0.112  0.7618  0.0377  0.6342
18539SOL    HW162475  11.694   7.372   0.036  0.1974  1.4141  1.1652
18539SOL    HW262476  11.731   7.277   0.147  1.5994  1.1098  0.4488
18540SOL     OW62477  11.252   5.191   0.714  0.2946  0.1424  0.0620
18540SOL    HW162478  11.240   5.116   0.772 -0.3163  1.3916  1.6243
18540SOL    HW262479  11.282   5.153   0.631  1.2755 -1.7032  1.1948
18541SOL     OW62480   3.859   0.577   2.376 -0.1442  0.0905 -0.0726
18541SOL    HW162481   3.824   0.663   2.354  1.3965  1.2347  1.7157
18541SOL    HW262482   3.927   0.594   2.441 -1.2101 -2.6553  1.9549
18542SOL     OW62483  11.340   1.838   1.562 -0.1443 -0.4255  0.7595
18542SOL    HW162484  11.391   1.863   1.639 -1.4986 -0.7165  1.7981
18542SOL    HW262485  11.342   1.915   1.506  0.8898 -0.2185  1.0675
18543SOL     OW62486   4.921   6.711  11.526  0.5001  0.1560 -0.0399
18543SOL    HW162487   4.962   6.680  11.607 -0.1510 -1.5429 -0.3138
18543SOL    HW262488   4.912   6.632  11.472 -0.9489  0.8845 -0.9268
18544SOL     OW62489  10.564   2.606  10.308 -0.1712  0.2347 -0.4583
18544SOL    HW162490  10.643   2.554  10.318 -0.2799 -0.3688 -2.2686
18544SOL    HW262491  10.511   2.557  10.245 -0.6423  2.0979 -1.6159
18545SOL     OW62492  11.338   5.811  10.634 -0.5179 -0.0426 -0.9659
18545SOL    HW162493  11.359   5.720  10.614 -0.5166 -0.0576 -0.8995
18545SOL    HW262494  11.243   5.812  10.646 -0.9957  0.5666 -4.0570
18546SOL     OW62495  10.136   1.883   6.442 -0.6325  0.1500 -0.1702
18546SOL    HW162496  10.220   1.842   6.424 -0.6581 -0.1348  0.3435
18546SOL    HW262497  10.124   1.946   6.370 -0.5183 -0.6098 -0.8700
18547SOL     OW62498   9.149   8.981   7.582 -0.3769 -0.4664  0.5334
18547SOL    HW162499   9.117   8.958   7.495 -1.2349 -0.3591  0.8100
18547SOL    HW262500   9.148   9.077   7.584  1.3539 -0.4080  0.0519
18548SOL     OW62501   1.752   5.441   0.210 -0.0291 -0.0492 -0.5086
18548SOL    HW162502   1.771   5.522   0.258  0.7957 -0.6203  0.1555
18548SOL    HW262503   1.825   5.433   0.148 -0.2478 -0.1556 -0.7551
18549SOL     OW62504  11.618   4.502  12.313 -0.0816  0.5383  0.1193
18549SOL    HW162505  11.710   4.510  12.289 -0.0042  1.7533  0.7442
18549SOL    HW262506  11.616   4.435  12.382 -0.0517 -1.4749 -1.7103
18550SOL     OW62507   5.388   9.731  11.161  0.2224  0.2066 -0.1182
18550SOL    HW162508   5.399   9.657  11.221  0.2749 -1.9791 -2.6342
18550SOL    HW262509   5.307   9.712  11.113  0.1596  1.8559 -0.7481
18551SOL     OW62510   9.121   3.891   9.844 -0.1603  0.4789  0.2966
18551SOL    HW162511   9.134   3.835   9.920 -2.5827 -1.9918 -0.9123
18551SOL    HW262512   9.028   3.914   9.847 -0.4446 -0.0940 -2.0937
18552SOL     OW62513   4.042   4.366   1.054  0.1303 -0.6535  0.1335
18552SOL    HW162514   4.117   4.423   1.037  0.5116 -0.5906  1.8415
18552SOL    HW262515   4.053   4.340   1.145 -2.6260  0.4048  0.8560
18553SOL     OW62516  11.819  10.322  11.775 -0.3042  0.0907  0.5987
18553SOL    HW162517  11.819  10.335  11.680  0.3586  2.2376  0.8442
18553SOL    HW262518  11.910  10.303  11.797 -0.6267 -1.4996  0.7331
18554SOL     OW62519  10.994   0.919   3.084  0.2373 -0.5599 -0.4028
18554SOL    HW162520  10.940   0.982   3.037 -0.2013  0.4789  1.3888
18554SOL    HW262521  11.064   0.971   3.123 -1.0884 -0.7817  2.5442
18555SOL     OW62522   1.872  12.253   0.928 -0.2164  0.3185 -0.5262
18555SOL    HW162523   1.886  12.347   0.926 -1.9601  0.6357 -0.0344
18555SOL    HW262524   1.957  12.215   0.907  0.8563  1.9664  0.5737
18556SOL     OW62525   1.696   1.134   8.423 -0.4932  0.2394 -0.4693
18556SOL    HW162526   1.755   1.064   8.449 -0.6592  1.0501  2.5821
18556SOL    HW262527   1.722   1.209   8.477 -1.8690  1.7955 -1.8245
18557SOL     OW62528   2.556  10.412   7.995 -0.2752 -0.2926  0.1777
18557SOL    HW162529   2.500  10.339   8.020 -0.5013  0.6621  2.8274
18557SOL    HW262530   2.644  10.374   7.993 -0.6172 -1.0783 -0.6536
18558SOL     OW62531   3.616   1.014  10.576 -0.0722  0.1777  0.1438
18558SOL    HW162532   3.646   1.049  10.492  0.1499  0.2843  0.2660
18558SOL    HW262533   3.656   1.072  10.642  0.4493 -0.4090  0.3575
18559SOL     OW62534   4.617   8.854  11.379 -0.1578 -0.1489  0.3338
18559SOL    HW162535   4.523   8.861  11.394 -0.4180 -1.5606 -0.4461
18559SOL    HW262536   4.624   8.803  11.298  1.2171  3.1347 -1.8337
18560SOL     OW62537   9.073   8.809   3.269 -0.4604  0.6813 -0.2288
18560SOL    HW162538   9.155   8.814   3.319 -0.7542  1.0245  0.2215
18560SOL    HW262539   9.094   8.752   3.195  0.2380  0.9115 -0.2146
18561SOL     OW62540   5.656   5.961   5.063 -0.2801 -0.1338 -0.8551
18561SOL    HW162541   5.738   5.960   5.113 -1.2867 -1.6131  0.9283
18561SOL    HW262542   5.661   5.884   5.007 -0.7088 -0.6707 -0.1873
18562SOL     OW62543   5.159   6.455   6.482 -0.4405  0.0684 -0.0524
18562SOL    HW162544   5.145   6.547   6.505 -0.3879  0.4451 -1.4006
18562SOL    HW262545   5.146   6.407   6.563 -0.0609  1.3067  0.7620
18563SOL     OW62546   5.966   3.981   0.221  0.8607  0.4031  0.0467
18563SOL    HW162547   5.970   4.074   0.246 -0.4312 -0.0651  2.2256
18563SOL    HW262548   5.874   3.966   0.201  1.0647 -0.4284 -0.2811
18564SOL     OW62549   8.701   5.307   9.647  0.3137  0.0538  0.1362
18564SOL    HW162550   8.764   5.254   9.597 -0.5538  1.0241 -2.1213
18564SOL    HW262551   8.647   5.242   9.693 -0.2495 -1.0618 -1.9568
18565SOL     OW62552  12.483   6.852   5.840 -0.1875  0.1592 -0.0827
18565SOL    HW162553  12.411   6.856   5.904 -0.7761 -0.8086 -0.6656
18565SOL    HW262554  12.555   6.813   5.888 -0.3179  0.3269  0.2581
18566SOL     OW62555   8.762  12.507   3.954 -0.1980 -0.6441  0.0553
18566SOL    HW162556   8.687  12.496   3.896 -0.4520 -1.9429  0.5987
18566SOL    HW262557   8.802  12.421   3.958  0.6011 -0.2553  0.7572
18567SOL     OW62558   2.700  10.824   0.842  0.7266 -0.3459  0.1999
18567SOL    HW162559   2.703  10.854   0.751  2.8852  2.3732  1.0261
18567SOL    HW262560   2.637  10.882   0.885  2.1178  0.5972  1.0485
18568SOL     OW62561   3.841   3.574   4.412  0.3572 -0.2479  0.0524
18568SOL    HW162562   3.762   3.521   4.427  0.5453 -0.6895 -0.5164
18568SOL    HW262563   3.812   3.664   4.427  0.3472 -0.5722  2.3822
18569SOL     OW62564   6.223   8.868   4.890  0.0504  0.1045  0.4561
18569SOL    HW162565   6.222   8.948   4.942 -1.6164  0.2655  0.2363
18569SOL    HW262566   6.133   8.836   4.894  0.2121 -0.6560 -1.1542
18570SOL     OW62567  12.227   5.254   5.874 -0.2653 -0.5479 -0.6566
18570SOL    HW162568  12.295   5.228   5.937  0.2556  2.1186  0.0295
18570SOL    HW262569  12.221   5.180   5.813  1.8968 -1.6816  0.3744
18571SOL     OW62570   3.829   8.881   9.035 -0.2767  0.0251  0.1458
18571SOL    HW162571   3.866   8.823   8.969 -0.8612 -0.1717 -0.0053
18571SOL    HW262572   3.735   8.879   9.020 -0.2340  2.0343 -0.7341
18572SOL     OW62573   7.159   9.087   0.957 -0.0433  0.3706 -0.2834
18572SOL    HW162574   7.195   9.003   0.982 -0.2608 -0.1407 -1.5982
18572SOL    HW262575   7.151   9.083   0.862 -0.6247  1.6458 -0.3202
18573SOL     OW62576   3.017   3.063   4.914 -0.0668  0.2518  0.4495
18573SOL    HW162577   2.992   3.099   4.829 -1.6951 -0.8765  0.4052
18573SOL    HW262578   2.975   3.121   4.978  0.5434  0.6734  0.4692
18574SOL     OW62579   6.398   3.554   1.081  0.2804  0.5477 -0.6319
18574SOL    HW162580   6.396   3.463   1.111 -0.2990  0.4994 -0.8262
18574SOL    HW262581   6.362   3.605   1.154  1.1616  0.6975 -0.2788
18575SOL     OW62582   8.719   3.888  10.624  0.0790  0.1763 -0.2530
18575SOL    HW162583   8.710   3.836  10.704  0.7563  0.1384 -0.1957
18575SOL    HW262584   8.803   3.933  10.634 -0.5715  1.4368 -0.2177
18576SOL     OW62585   6.041  11.777   1.713  0.6187 -0.3665 -0.0415
18576SOL    HW162586   6.087  11.728   1.781  0.1728 -0.8516 -0.0867
18576SOL    HW262587   5.992  11.844   1.761  0.6915 -0.3982  0.0758
18577SOL     OW62588   7.872   8.490   8.360  0.3571 -0.0335 -0.2244
18577SOL    HW162589   7.964   8.466   8.377  0.2360 -1.0692 -0.9271
18577SOL    HW262590   7.877   8.580   8.327  0.9277  0.6281  1.5067
18578SOL     OW62591   6.897   3.359   0.841  0.2267 -0.8756  0.3056
18578SOL    HW162592   6.942   3.402   0.768 -0.2043 -3.6429 -1.7459
18578SOL    HW262593   6.964   3.351   0.909  1.0083  0.6152 -0.2376
18579SOL     OW62594   1.306   2.156   6.798 -0.2155  0.0653 -0.4280
18579SOL    HW162595   1.292   2.247   6.824 -0.3262 -0.3261  0.9560
18579SOL    HW262596   1.245   2.141   6.726  0.0576  1.1777 -0.9111
18580SOL     OW62597   6.644   4.317   1.474 -0.2332 -0.0278  0.0973
18580SOL    HW162598   6.622   4.242   1.529 -0.9246 -0.4759 -0.7755
18580SOL    HW262599   6.732   4.343   1.502 -0.4461 -0.4512  1.1776
18581SOL     OW62600   2.053  11.554   1.252 -0.1473  0.2761  0.3891
18581SOL    HW162601   2.033  11.539   1.344 -2.5483  1.1040  0.0712
18581SOL    HW262602   1.968  11.574   1.212  0.8202 -0.0867 -2.0159
18582SOL     OW62603   8.828   3.584   3.784  0.3541 -0.5512 -0.4395
18582SOL    HW162604   8.902   3.551   3.734  0.8716 -1.2128  0.7154
18582SOL    HW262605   8.802   3.511   3.839 -0.8681 -0.1742 -0.4905
18583SOL     OW62606   7.969   5.858   7.346  0.0339  0.2580  0.2352
18583SOL    HW162607   8.036   5.863   7.277 -0.0842 -0.0232  0.0982
18583SOL    HW262608   7.896   5.813   7.305  0.3468 -0.8325  0.8430
18584SOL     OW62609  12.428   4.307  10.610 -0.1332 -0.6879 -0.1190
18584SOL    HW162610  12.357   4.303  10.674 -0.7864 -1.6099 -0.8694
18584SOL    HW262611  12.404   4.380  10.553  0.2187 -0.1545  0.3984
18585SOL     OW62612   0.883   0.696   2.921 -0.0253  0.1388  0.6436
18585SOL    HW162613   0.844   0.742   2.846  1.0130  0.4767  0.2933
18585SOL    HW262614   0.887   0.604   2.893  0.5588  0.2986  0.1928
18586SOL     OW62615   0.692   3.978   0.578 -0.1134  0.0766 -0.0690
18586SOL    HW162616   0.737   3.998   0.496 -0.6603 -2.1262 -1.0009
18586SOL    HW262617   0.705   3.883   0.590 -2.0177 -0.0941  1.1486
18587SOL     OW62618   9.866   1.667   7.339 -0.5403 -0.2154 -0.3113
18587SOL    HW162619   9.845   1.709   7.255 -0.2985  3.0153  1.1013
18587SOL    HW262620   9.901   1.738   7.393 -0.7041 -2.1726  2.5712
18588SOL     OW62621  10.747  10.357   0.782  0.2315  0.1373  0.4823
18588SOL    HW162622  10.655  10.346   0.757  0.1783  0.5993  0.4716
18588SOL    HW262623  10.790  10.279   0.748 -0.0925  0.0890  0.1742
18589SOL     OW62624   4.202   7.274   6.773 -0.4431 -0.2231  0.4654
18589SOL    HW162625   4.274   7.216   6.750  0.3504  0.6773  0.5939
18589SOL    HW262626   4.126   7.239   6.726 -0.0263 -1.4188  0.6478
18590SOL     OW62627   2.626   7.241  12.098 -0.0006  0.0227 -0.3696
18590SOL    HW162628   2.651   7.296  12.024 -2.1177  0.8363 -0.5258
18590SOL    HW262629   2.555   7.186  12.065 -2.3288  1.7267  1.4982
18591SOL     OW62630   8.798   5.073   6.377  0.0970 -0.3629  0.4456
18591SOL    HW162631   8.874   5.127   6.400 -0.5153  0.4877  0.5376
18591SOL    HW262632   8.836   4.990   6.347  1.1544  0.5995 -1.0861
18592SOL     OW62633   4.572   1.724   9.787 -0.3465  0.3024 -0.6109
18592SOL    HW162634   4.645   1.675   9.825 -0.1093  1.9408  1.2275
18592SOL    HW262635   4.519   1.658   9.741  0.3974 -1.5156  1.0167
18593SOL     OW62636   3.559  10.820   5.174  0.6905  0.1326 -0.3799
18593SOL    HW162637   3.523  10.796   5.260  0.7324  0.7773 -0.1756
18593SOL    HW262638   3.569  10.915   5.178 -2.1248  0.6137 -2.1544
18594SOL     OW62639   2.348   4.561   2.012 -0.4053 -0.1126 -0.1004
18594SOL    HW162640   2.362   4.652   1.986  1.2066 -0.2146  0.2694
18594SOL    HW262641   2.331   4.566   2.106 -1.0225 -0.1407 -0.2104
18595SOL     OW62642   6.180   2.907  11.296 -0.1273  0.2315  0.0780
18595SOL    HW162643   6.104   2.964  11.299 -0.6602 -0.3964 -0.8909
18595SOL    HW262644   6.189   2.875  11.386 -2.1016 -1.0495 -0.1106
18596SOL     OW62645   8.096   3.995   1.619 -0.1176  0.1504  0.0364
18596SOL    HW162646   8.130   4.067   1.673  0.2576 -0.2298  0.3204
18596SOL    HW262647   8.001   4.008   1.618 -0.0690  0.5291  0.2605
18597SOL     OW62648   9.071  10.076  12.254  0.2855  0.1899  0.2132
18597SOL    HW162649   9.158  10.104  12.284  0.3512  0.0373  0.1627
18597SOL    HW262650   9.076  10.078  12.159 -0.1979  1.5518  0.1867
18598SOL     OW62651  10.963  11.928  11.662  0.1902 -0.6782 -0.1165
18598SOL    HW162652  11.035  11.866  11.650  1.2664  0.3693  0.7261
18598SOL    HW262653  10.979  11.995  11.596  0.1158 -0.3382  0.2074
18599SOL     OW62654   7.336  11.299   0.609 -0.1562  0.1771  0.3554
18599SOL    HW162655   7.393  11.358   0.658 -0.1448  0.4312  0.0445
18599SOL    HW262656   7.300  11.240   0.675 -1.6691  1.7294  1.0022
18600SOL     OW62657   0.603  10.707   2.347 -0.5171 -0.6550 -0.1671
18600SOL    HW162658   0.556  10.634   2.308 -0.1402 -0.0475 -1.8207
18600SOL    HW262659   0.695  10.679   2.346 -0.4114 -0.3027 -0.4975
18601SOL     OW62660  10.616   4.194   4.101  0.0902 -0.6917  0.2614
18601SOL    HW162661  10.650   4.229   4.018  2.8768 -1.2245  1.1020
18601SOL    HW262662  10.521   4.193   4.088  0.0958  2.8536 -1.5023
18602SOL     OW62663   1.738  10.875  10.259  0.1615 -0.2659 -0.3960
18602SOL    HW162664   1.701  10.953  10.302 -1.4235 -1.1005 -0.1918
18602SOL    HW262665   1.788  10.831  10.328  0.0257 -0.0826 -0.1783
18603SOL     OW62666   7.228   5.145   9.485  0.5783  0.1811 -0.4612
18603SOL    HW162667   7.271   5.209   9.542  0.6791 -1.2331  1.1084
18603SOL    HW262668   7.136   5.147   9.513  0.5197 -0.1555 -0.6292
18604SOL     OW62669  11.137   1.696  10.794  0.5678  0.0798 -0.5830
18604SOL    HW162670  11.089   1.636  10.852 -1.2878  0.2812 -1.8330
18604SOL    HW262671  11.180   1.758  10.853  1.4129 -1.6263  0.6796
18605SOL     OW62672  11.177  12.484  10.470 -0.0994 -0.5976 -0.4437
18605SOL    HW162673  11.191  12.566  10.516 -0.2640 -0.2859 -0.9396
18605SOL    HW262674  11.208  12.500  10.381 -3.2039  0.0636 -1.5407
18606SOL     OW62675   3.922   2.723   1.326  0.5754 -0.6755  0.1823
18606SOL    HW162676   3.979   2.785   1.372  0.1633 -0.1486 -0.0217
18606SOL    HW262677   3.891   2.770   1.249 -1.2815 -0.4297  1.0212
18607SOL     OW62678   1.583   9.843   9.395 -0.0436 -0.2003 -0.0361
18607SOL    HW162679   1.560   9.891   9.475 -1.0403  1.3343 -1.1889
18607SOL    HW262680   1.643   9.774   9.425  0.3239  0.8778  1.8977
18608SOL     OW62681   1.710   0.357   5.331 -0.1801 -0.2385 -0.6553
18608SOL    HW162682   1.718   0.322   5.242  4.0389 -0.3304 -0.4504
18608SOL    HW262683   1.728   0.283   5.388 -1.6691  0.0859  0.2943
18609SOL     OW62684   9.953   8.780   2.618 -0.5226 -0.5172 -0.3123
18609SOL    HW162685  10.016   8.804   2.550  0.3110 -2.6879 -0.3921
18609SOL    HW262686   9.992   8.703   2.661 -1.2625  0.4492  2.2944
18610SOL     OW62687   7.921   0.403   0.787 -0.3308  0.4007  0.1829
18610SOL    HW162688   7.987   0.431   0.850 -0.7763 -0.8197  1.2362
18610SOL    HW262689   7.937   0.310   0.775 -0.5435  0.5176 -1.1981
18611SOL     OW62690   6.864   6.804  10.276 -0.0198 -0.1879  0.1722
18611SOL    HW162691   6.860   6.846  10.362  1.1170  1.2953 -0.4633
18611SOL    HW262692   6.833   6.870  10.215  0.0093 -0.9211 -0.6585
18612SOL     OW62693   0.864   6.029   9.484 -0.4061  0.1696 -0.3956
18612SOL    HW162694   0.934   6.092   9.466  0.9779 -0.8779  1.0622
18612SOL    HW262695   0.906   5.959   9.534 -2.0005 -1.6846 -1.5012
18613SOL     OW62696   3.115   9.703   2.307  0.3262 -0.3590  0.2823
18613SOL    HW162697   3.046   9.659   2.257  0.7167  0.2223 -0.8071
18613SOL    HW262698   3.153   9.634   2.361 -0.4236 -0.9005  0.1388
18614SOL     OW62699   2.281   0.853   1.444  0.2135  0.2728 -0.1652
18614SOL    HW162700   2.194   0.838   1.481  0.7379  0.5197  1.2260
18614SOL    HW262701   2.281   0.945   1.420 -0.1417  0.1028 -0.8503
18615SOL     OW62702   5.532   5.146   7.026 -0.3370 -0.0730 -0.4637
18615SOL    HW162703   5.485   5.071   6.990  0.4319 -0.4049 -0.7945
18615SOL    HW262704   5.624   5.122   7.019 -0.1380 -0.3023  2.0496
18616SOL     OW62705   9.365  10.473   3.511  0.2640 -0.0426  0.1936
18616SOL    HW162706   9.339  10.554   3.468  0.8884  0.1901  0.2459
18616SOL    HW262707   9.398  10.500   3.596  0.0883 -0.3948  0.3762
18617SOL     OW62708   4.259   5.519  10.520  0.0671 -0.1830  0.0321
18617SOL    HW162709   4.319   5.554  10.454 -1.2369 -0.6024 -1.4458
18617SOL    HW262710   4.233   5.595  10.571  1.4608  0.0776  0.3758
18618SOL     OW62711   0.853   1.194   4.319  0.1592 -0.0087 -0.6455
18618SOL    HW162712   0.811   1.165   4.400  0.6340  1.0972  0.0285
18618SOL    HW262713   0.826   1.130   4.253 -3.7298  1.3233 -0.6216
18619SOL     OW62714   1.871   1.347   6.245 -0.3647  0.1826 -0.1205
18619SOL    HW162715   1.893   1.415   6.182 -0.1864 -0.0422 -0.3058
18619SOL    HW262716   1.776   1.350   6.252 -0.4709 -0.4092 -1.1111
18620SOL     OW62717   3.981  10.484   4.672 -0.1399  0.5728 -0.1647
18620SOL    HW162718   4.032  10.553   4.630  2.1702 -0.3447  0.9922
18620SOL    HW262719   4.000  10.493   4.765 -0.0670 -1.3819  0.0476
18621SOL     OW62720   4.073   4.595   5.734  0.0032  0.2963 -0.6898
18621SOL    HW162721   4.167   4.600   5.751 -0.3639  0.7246  1.5865
18621SOL    HW262722   4.034   4.657   5.796 -1.9219 -1.4621 -0.0091
18622SOL     OW62723  10.592   6.960  11.318  0.2908 -0.0271 -0.1391
18622SOL    HW162724  10.645   7.039  11.315  0.8934 -0.4005  0.3846
18622SOL    HW262725  10.531   6.974  11.390  0.3065  0.0183 -0.1352
18623SOL     OW62726  10.597  11.178  12.091  0.2731  0.3502  0.1917
18623SOL    HW162727  10.650  11.254  12.066  2.4868 -0.7270  1.2601
18623SOL    HW262728  10.661  11.115  12.126 -1.3050 -2.3615 -1.4149
18624SOL     OW62729   3.979   4.684  11.369  0.4617 -0.0779 -0.3392
18624SOL    HW162730   4.034   4.615  11.407 -0.7063  0.6545  3.1305
18624SOL    HW262731   4.022   4.766  11.395 -1.2782  0.4762  0.9821
18625SOL     OW62732   0.276  10.176   3.251 -0.0673 -0.8220  0.1290
18625SOL    HW162733   0.231  10.091   3.251  1.3072 -1.5914  1.1875
18625SOL    HW262734   0.347  10.165   3.187  1.1914 -1.1220  1.5166
18626SOL     OW62735   3.370   3.049   7.572  0.1729 -0.1173 -0.0776
18626SOL    HW162736   3.402   3.019   7.657  0.9094  2.4802  0.6795
18626SOL    HW262737   3.438   3.024   7.510 -0.7446 -2.7739 -0.1413
18627SOL     OW62738   6.594   6.088   8.322 -0.3481  0.5459 -0.0737
18627SOL    HW162739   6.526   6.128   8.376 -1.1074  0.1515 -0.7141
18627SOL    HW262740   6.661   6.156   8.313 -0.9154  1.1378  0.1004
18628SOL     OW62741  10.857   4.157   8.268  0.6069 -0.3605 -0.1740
18628SOL    HW162742  10.836   4.246   8.241 -1.0409 -0.1371  1.6754
18628SOL    HW262743  10.787   4.104   8.232 -0.7990 -0.2599  2.2235
18629SOL     OW62744   6.707   0.817  10.689 -0.0184 -0.5996  0.1879
18629SOL    HW162745   6.767   0.746  10.708  0.3019 -0.9361 -1.8206
18629SOL    HW262746   6.754   0.873  10.627  0.5328  2.5512  3.1382
18630SOL     OW62747   4.288   6.652  11.373  0.8300 -0.7332  0.4660
18630SOL    HW162748   4.359   6.600  11.335 -0.0027 -1.0379 -0.7273
18630SOL    HW262749   4.212   6.593  11.372  0.1856  0.0887  0.3023
18631SOL     OW62750  12.031   0.285   1.336  0.2899  0.2721 -0.0063
18631SOL    HW162751  12.078   0.220   1.284 -0.1520  1.9166 -2.6732
18631SOL    HW262752  12.081   0.366   1.325 -0.9772  1.1497  0.3956
18632SOL     OW62753   9.667  11.041   1.230 -0.4901  0.0433  0.3054
18632SOL    HW162754   9.745  11.014   1.278 -1.2587 -1.4997  0.7406
18632SOL    HW262755   9.671  10.993   1.147 -1.2277 -0.4635  0.5503
18633SOL     OW62756   3.739   5.288  12.108  0.4309  0.1043  0.6327
18633SOL    HW162757   3.811   5.240  12.068 -1.9893 -1.5446 -2.1046
18633SOL    HW262758   3.682   5.221  12.145 -1.6949  0.9644 -0.8889
18634SOL     OW62759   6.202   9.178   8.577 -0.4041  0.0054 -0.1971
18634SOL    HW162760   6.179   9.182   8.670  1.7140  0.3677  0.3602
18634SOL    HW262761   6.121   9.151   8.534 -1.0683 -1.7573  1.9235
18635SOL     OW62762   2.266   4.957  10.116  0.1890 -0.6354  0.4207
18635SOL    HW162763   2.197   4.991  10.059  0.4310  1.0269  1.0565
18635SOL    HW262764   2.336   4.932  10.056 -0.9499 -2.4541 -0.2407
18636SOL     OW62765   7.207   6.635  11.666 -0.0788  0.0700  0.1213
18636SOL    HW162766   7.256   6.715  11.682 -1.0916  1.0482 -1.4314
18636SOL    HW262767   7.189   6.635  11.572 -1.6508 -1.0493  0.3634
18637SOL     OW62768   5.860   5.130   6.421  0.6833 -0.1328  0.3798
18637SOL    HW162769   5.867   5.116   6.326  0.2887 -0.9092  0.4604
18637SOL    HW262770   5.951   5.133   6.451  0.8248 -2.1674  0.2907
18638SOL     OW62771   1.986  11.972  10.644  0.2580 -0.1894  0.1855
18638SOL    HW162772   2.065  12.025  10.632 -0.0565  0.3506  0.4431
18638SOL    HW262773   1.980  11.919  10.565 -0.5344  1.6589 -1.0709
18639SOL     OW62774   7.043   2.606   0.608 -0.0114 -0.0783 -0.1662
18639SOL    HW162775   7.116   2.665   0.588  0.7722 -0.7249  0.6950
18639SOL    HW262776   6.980   2.661   0.653  0.1038  0.4116 -0.5932
18640SOL     OW62777  10.168   4.579   7.345 -0.4174 -0.1074 -0.1301
18640SOL    HW162778  10.112   4.592   7.422  1.0398 -0.2452  0.9812
18640SOL    HW262779  10.198   4.489   7.352  1.3123  0.4613  0.2610
18641SOL     OW62780   1.343  10.663  11.814 -0.2834 -0.9109  0.0459
18641SOL    HW162781   1.281  10.731  11.788  0.6543 -0.5099 -1.2855
18641SOL    HW262782   1.310  10.583  11.774  0.3513 -0.5801 -1.1922
18642SOL     OW62783   5.500   3.230  11.367  0.3434  0.2227  0.0719
18642SOL    HW162784   5.517   3.324  11.368 -0.5714  0.4768 -2.1155
18642SOL    HW262785   5.446   3.217  11.289  0.8033 -2.1877  0.1018
18643SOL     OW62786  11.339  12.431   7.332 -0.2154 -0.3443 -0.5567
18643SOL    HW162787  11.401  12.490   7.289  0.6117  0.1242  1.1891
18643SOL    HW262788  11.393  12.360   7.366 -0.4381  0.5331  1.7901
18644SOL     OW62789   2.594  12.323   1.665 -0.2080 -0.5050 -0.4567
18644SOL    HW162790   2.669  12.374   1.634  1.1732 -1.7363  0.7122
18644SOL    HW262791   2.570  12.268   1.590  1.3080 -1.4579 -0.2849
18645SOL     OW62792   9.627   2.694   7.850  0.0947  0.0836  0.3576
18645SOL    HW162793   9.538   2.664   7.870 -0.0261 -0.2950 -0.7185
18645SOL    HW262794   9.650   2.650   7.769  0.6027  1.5212 -0.3177
18646SOL     OW62795   4.737  10.011   0.868 -0.3821 -0.1679 -0.2420
18646SOL    HW162796   4.807   9.989   0.930 -0.9971  1.9854  1.3587
18646SOL    HW262797   4.782  10.039   0.789  0.4617 -1.5953 -0.2971
18647SOL     OW62798   7.412   9.340  10.272  0.0952 -0.2903 -0.2843
18647SOL    HW162799   7.488   9.398  10.265  2.1940 -3.0791 -2.8884
18647SOL    HW262800   7.421   9.300  10.359 -0.8375  2.3273  1.1352
18648SOL     OW62801   5.321  12.056   9.665 -0.0491  0.2486 -0.2191
18648SOL    HW162802   5.247  12.046   9.605 -1.4905  0.5003  1.4338
18648SOL    HW262803   5.313  12.145   9.699  1.0729  0.3052 -0.0600
18649SOL     OW62804  11.619   5.537   1.275  0.3046  0.8676  0.3621
18649SOL    HW162805  11.698   5.489   1.251 -0.5008 -0.2153 -0.1712
18649SOL    HW262806  11.579   5.486   1.345 -0.0261  1.3201  0.5143
18650SOL     OW62807  10.878   4.814   2.057 -0.2140 -0.4541 -0.5476
18650SOL    HW162808  10.919   4.787   2.139  0.2886 -0.1878 -0.7101
18650SOL    HW262809  10.820   4.886   2.083 -1.2727 -1.4064 -0.1764
18651SOL     OW62810   8.433   9.855   7.104 -0.2183 -0.5288  0.6905
18651SOL    HW162811   8.454   9.926   7.164  1.7461  1.1008 -1.6988
18651SOL    HW262812   8.398   9.899   7.026  0.8898 -2.1650 -0.8009
18652SOL     OW62813   9.816   9.613   9.227 -0.2588  0.4761 -0.0147
18652SOL    HW162814   9.904   9.580   9.244 -0.6370 -0.7702 -0.3321
18652SOL    HW262815   9.828   9.683   9.163  0.6321  1.4507  1.1578
18653SOL     OW62816   7.206   7.589   7.610 -0.1433 -0.4446  0.7783
18653SOL    HW162817   7.122   7.546   7.623 -1.3306  1.2443 -0.7121
18653SOL    HW262818   7.253   7.533   7.548 -0.3412 -1.1931  1.3022
18654SOL     OW62819  10.023   5.594   5.470  0.5397 -0.1487 -0.1529
18654SOL    HW162820   9.948   5.542   5.500  2.0358 -2.8888 -0.7941
18654SOL    HW262821  10.087   5.586   5.541  0.3567  2.0703  0.3394
18655SOL     OW62822   3.086   0.196   6.324  0.1770  0.8281 -0.2051
18655SOL    HW162823   2.991   0.202   6.325  0.0020 -1.0735 -0.8672
18655SOL    HW262824   3.107   0.168   6.234  1.0775 -1.7226  0.7229
18656SOL     OW62825  12.254   0.629   8.864 -0.1838 -0.5770  0.3261
18656SOL    HW162826  12.261   0.664   8.776 -1.9137 -0.7680  0.0691
18656SOL    HW262827  12.289   0.698   8.921 -0.4561  0.1794 -0.4049
18657SOL     OW62828   6.333   2.419   5.244  0.5599 -1.0345  0.2913
18657SOL    HW162829   6.377   2.418   5.329  0.0346  0.1829  0.6063
18657SOL    HW262830   6.255   2.364   5.257 -0.8469  1.0825  1.4008
18658SOL     OW62831   1.970   9.933   4.480 -0.4192 -0.6070 -0.1832
18658SOL    HW162832   2.014  10.017   4.489 -0.6428 -0.6275  1.3309
18658SOL    HW262833   1.915   9.942   4.403  2.8270 -0.8598 -2.7382
18659SOL     OW62834   7.638   7.027   0.681 -0.4984 -0.0508  0.0568
18659SOL    HW162835   7.673   7.105   0.637 -0.1295 -0.1017  0.2560
18659SOL    HW262836   7.713   6.968   0.689 -0.5154  0.0316  0.9160
18660SOL     OW62837  10.059   1.997  10.172  0.1474  0.3701  0.2601
18660SOL    HW162838  10.083   1.970  10.260  0.0275  1.5358  0.6642
18660SOL    HW262839  10.054   2.092  10.176 -0.3434  0.4150 -0.8849
18661SOL     OW62840   6.561  10.318   4.901  0.1116 -0.5395 -0.2589
18661SOL    HW162841   6.599  10.392   4.855 -1.2891  0.3187 -0.0931
18661SOL    HW262842   6.475  10.349   4.930  0.3175 -1.5549  1.5847
18662SOL     OW62843   3.230  10.765   3.369  0.3661  0.2793 -0.1508
18662SOL    HW162844   3.169  10.698   3.400  0.1550  0.1471 -0.8218
18662SOL    HW262845   3.258  10.733   3.283 -0.1412  1.2899 -0.7107
18663SOL     OW62846   7.850  12.576   9.911 -0.1762  0.5953 -0.0704
18663SOL    HW162847   7.779  12.560   9.972 -0.7631  1.1528 -0.5870
18663SOL    HW262848   7.814  12.639   9.848  0.6536  0.6120 -0.5494
18664SOL     OW62849   8.678  11.747   8.075 -0.8499 -0.9710 -0.1879
18664SOL    HW162850   8.771  11.755   8.057 -0.8388 -1.9009 -0.6422
18664SOL    HW262851   8.665  11.653   8.091 -1.9140 -1.0465 -1.3832
18665SOL     OW62852  11.456   8.139   8.467  0.7764 -0.2651  0.3262
18665SOL    HW162853  11.454   8.129   8.371 -1.8727 -0.6744  0.3545
18665SOL    HW262854  11.533   8.090   8.495  1.8164  0.1541 -1.6078
18666SOL     OW62855   6.691   5.686   9.392 -0.1705  0.0378 -0.2297
18666SOL    HW162856   6.700   5.674   9.297 -2.4349  1.7116 -0.7434
18666SOL    HW262857   6.766   5.740   9.416  0.2785 -0.1627 -1.1258
18667SOL     OW62858   1.811   0.984   8.199  0.2395 -0.1609 -0.0189
18667SOL    HW162859   1.823   0.969   8.293 -1.4472  2.5556  0.7477
18667SOL    HW262860   1.760   0.908   8.170  0.5405 -0.9087  1.3065
18668SOL     OW62861  10.163  11.597   3.388  0.0978  0.5216 -0.2087
18668SOL    HW162862  10.114  11.539   3.447 -0.0120  1.3341  0.5004
18668SOL    HW262863  10.099  11.662   3.359  0.4809  0.9277 -0.1578
18669SOL     OW62864   6.290   8.242   6.247  0.0001  0.0029  0.5584
18669SOL    HW162865   6.259   8.214   6.161  0.9878 -1.7147  0.7048
18669SOL    HW262866   6.232   8.199   6.309 -2.7409  3.6771  0.8877
18670SOL     OW62867   4.019   7.885   6.809 -0.5699  0.7668  0.4298
18670SOL    HW162868   4.100   7.850   6.773 -0.8124  0.9146 -0.2951
18670SOL    HW262869   3.957   7.812   6.802 -0.0671  0.0476  2.6736
18671SOL     OW62870   9.687  10.419   8.688 -0.2008 -0.3386 -0.5071
18671SOL    HW162871   9.660  10.429   8.779  1.2026  0.9105 -0.2044
18671SOL    HW262872   9.782  10.425   8.689 -0.1549 -0.2514 -2.0630
18672SOL     OW62873  11.455   7.405   5.960 -0.2324 -0.6606  0.0495
18672SOL    HW162874  11.429   7.323   6.002 -2.3296  0.3482  0.8569
18672SOL    HW262875  11.390   7.419   5.892 -1.3523  1.4481  1.4431
18673SOL     OW62876   9.653   7.503  11.442  0.2952 -0.6476 -0.2086
18673SOL    HW162877   9.607   7.493  11.525 -0.4029  0.0557 -0.4904
18673SOL    HW262878   9.670   7.413  11.413 -0.6602 -0.9306  0.0559
18674SOL     OW62879   6.551   0.189   6.301 -0.4320 -0.1760 -0.1081
18674SOL    HW162880   6.481   0.198   6.364 -0.7044  1.7967 -0.6188
18674SOL    HW262881   6.612   0.126   6.340 -1.1933  0.0709  1.5247
18675SOL     OW62882   7.278   0.184   4.265  0.3440 -0.3677 -0.4979
18675SOL    HW162883   7.225   0.242   4.211 -0.5215  0.0897  0.7871
18675SOL    HW262884   7.365   0.187   4.225  0.8415  3.2473  0.4807
18676SOL     OW62885   9.875   7.424   5.822  0.6315  0.0433 -0.0690
18676SOL    HW162886   9.924   7.346   5.797  2.0292  0.2372  1.8663
18676SOL    HW262887   9.836   7.402   5.907  0.3702  1.1425  0.1188
18677SOL     OW62888  11.893   6.834   6.433 -0.8339 -0.5245 -0.1924
18677SOL    HW162889  11.947   6.755   6.438  1.6633  1.0225 -0.8592
18677SOL    HW262890  11.922   6.878   6.353 -1.6374  1.4066  0.5131
18678SOL     OW62891   8.953   4.111   2.171  0.3965  0.7164  0.4425
18678SOL    HW162892   8.934   4.205   2.175 -0.2999  0.5682  0.7467
18678SOL    HW262893   8.998   4.099   2.087  1.3434  1.4650  0.8178
18679SOL     OW62894   2.256   6.773   7.518 -0.2339  0.0335 -0.0535
18679SOL    HW162895   2.331   6.819   7.556 -0.8317  1.1728 -0.1913
18679SOL    HW262896   2.193   6.843   7.498 -1.7972 -0.9833  1.0644
18680SOL     OW62897   1.662   2.695   1.653 -0.2482 -0.8176  0.2764
18680SOL    HW162898   1.602   2.649   1.711 -2.5556  0.4722 -0.9435
18680SOL    HW262899   1.608   2.725   1.580  1.9432  0.2322 -1.0545
18681SOL     OW62900   6.014   4.140   7.628 -0.3901  0.4417 -0.2940
18681SOL    HW162901   5.936   4.107   7.672  0.8600 -2.0075  0.2594
18681SOL    HW262902   6.071   4.170   7.699  0.3615 -0.6077 -0.4289
18682SOL     OW62903   4.496   8.435   8.076  0.0708 -0.0109  0.4332
18682SOL    HW162904   4.520   8.342   8.074  0.1727  0.0306 -0.6523
18682SOL    HW262905   4.580   8.481   8.088  0.1772 -0.0124 -0.2492
18683SOL     OW62906  10.374   7.450   6.657  0.5627 -0.3822  0.7038
18683SOL    HW162907  10.300   7.472   6.714  1.0806  1.0821  0.8487
18683SOL    HW262908  10.420   7.380   6.703 -0.4097 -0.9255  0.8764
18684SOL     OW62909   8.983   7.847   7.240 -0.1517  0.8218  0.0888
18684SOL    HW162910   9.001   7.941   7.247  1.4649  0.4690  1.4745
18684SOL    HW262911   9.070   7.806   7.247 -0.7638 -0.7627 -1.1185
18685SOL     OW62912   2.008  10.127   4.201  0.3965 -0.9396  0.2992
18685SOL    HW162913   2.078  10.138   4.266  0.1057 -1.1881  0.6605
18685SOL    HW262914   2.009  10.033   4.180 -1.2729 -1.4196  1.9951
18686SOL     OW62915   0.210   3.580   3.409 -0.1985 -0.8565  0.0679
18686SOL    HW162916   0.222   3.631   3.329 -0.2964 -3.4569 -1.7247
18686SOL    HW262917   0.298   3.553   3.433 -0.1990 -0.3037  0.7445
18687SOL     OW62918   1.453   3.257   1.486 -0.6069 -0.2013 -0.7461
18687SOL    HW162919   1.490   3.214   1.409 -1.0363 -0.2612 -0.9213
18687SOL    HW262920   1.513   3.329   1.504  0.7501 -1.5249  0.2226
18688SOL     OW62921  11.213   3.320   0.506  0.6828 -0.1261  0.0945
18688SOL    HW162922  11.131   3.358   0.536  0.3806 -0.0663 -0.7975
18688SOL    HW262923  11.243   3.266   0.580  0.1178  0.2719  0.6179
18689SOL     OW62924   2.734   2.710   1.121  0.3799 -0.4722 -0.2377
18689SOL    HW162925   2.792   2.740   1.191 -2.5729  1.6854  1.4732
18689SOL    HW262926   2.764   2.758   1.043  0.7463  0.7722  0.6460
18690SOL     OW62927   9.421  11.837   1.805 -0.1665  0.7217  0.5608
18690SOL    HW162928   9.356  11.766   1.812  0.1387  0.3166 -0.4646
18690SOL    HW262929   9.505  11.793   1.819  0.1029  0.6719 -1.0080
18691SOL     OW62930  10.925   0.497   1.097  0.5570  0.0196  0.1651
18691SOL    HW162931  10.994   0.443   1.138 -0.9307 -1.3774  0.9362
18691SOL    HW262932  10.906   0.452   1.014  0.7822  0.5801 -0.1929
18692SOL     OW62933   0.461   0.601  11.295  0.3402  0.8330  0.1120
18692SOL    HW162934   0.471   0.547  11.374  0.6961 -1.1613 -1.2309
18692SOL    HW262935   0.370   0.588  11.269  0.5904  0.3803 -0.5527
18693SOL     OW62936   6.335   4.005  12.387  0.3956 -0.0256  0.2056
18693SOL    HW162937   6.387   3.926  12.402  0.4293 -0.5571 -2.2524
18693SOL    HW262938   6.334   4.015  12.292 -1.4077  1.7417  0.3428
18694SOL     OW62939   7.050   5.126   1.127 -0.0248 -0.1077  0.5108
18694SOL    HW162940   7.092   5.093   1.048 -1.5252 -1.8890  0.3848
18694SOL    HW262941   7.099   5.085   1.199  0.6013  0.5927  0.5026
18695SOL     OW62942   9.444   1.466  10.916 -0.1091  0.1122 -0.6496
18695SOL    HW162943   9.374   1.437  10.858  0.6287 -1.4354 -0.8394
18695SOL    HW262944   9.422   1.427  11.001  0.7940 -0.9363 -0.8574
18696SOL     OW62945   5.705   2.065   8.249 -0.0251  0.2022 -0.0795
18696SOL    HW162946   5.743   2.101   8.329  1.3637  1.4101 -1.2022
18696SOL    HW262947   5.659   1.986   8.277  0.9954  0.2137  1.7971
18697SOL     OW62948   2.060   6.719   5.001  0.3861 -0.0662 -0.2884
18697SOL    HW162949   2.063   6.623   5.000  0.9247 -0.0518 -0.1044
18697SOL    HW262950   2.117   6.745   4.929  1.1270  0.1311  0.3553
18698SOL     OW62951  10.526   5.027   8.836 -0.3306 -0.2279 -0.2652
18698SOL    HW162952  10.483   5.088   8.776  0.7120  0.1177 -0.6709
18698SOL    HW262953  10.515   4.941   8.795  0.2948 -0.0056 -0.9083
18699SOL     OW62954   8.617   4.719   7.656 -0.2982 -0.1212  0.8769
18699SOL    HW162955   8.693   4.664   7.677 -0.7584 -1.4584 -0.7558
18699SOL    HW262956   8.606   4.774   7.733  1.7969 -0.4920  1.5115
18700SOL     OW62957   7.036   3.124   3.547 -0.1167 -0.2187 -0.5842
18700SOL    HW162958   7.001   3.163   3.466  0.3935  0.6213 -0.4135
18700SOL    HW262959   7.122   3.091   3.522 -0.7444 -1.7437 -0.8549
18701SOL     OW62960   3.705  10.442   2.512  0.0693  0.2656 -0.0077
18701SOL    HW162961   3.717  10.434   2.417 -1.7716  0.1629 -0.2664
18701SOL    HW262962   3.703  10.352   2.544  1.6811  0.3086  0.3077
18702SOL     OW62963   7.167   5.796   0.173  0.7920 -0.4998  0.4254
18702SOL    HW162964   7.151   5.723   0.114  0.0980 -1.8690  2.2163
18702SOL    HW262965   7.260   5.816   0.162  0.8987 -1.3822 -0.3580
18703SOL     OW62966  10.303   7.562  11.777  0.5172  0.2876  0.5426
18703SOL    HW162967  10.305   7.657  11.771  2.0671  0.3326  1.2444
18703SOL    HW262968  10.345   7.532  11.696  0.3607  0.2104  0.4888
18704SOL     OW62969   7.841   0.922   1.709 -0.2203  0.0333  0.0431
18704SOL    HW162970   7.881   1.001   1.672 -0.6776  0.6139  0.7634
18704SOL    HW262971   7.749   0.945   1.720 -0.4952 -0.8374 -0.3560
18705SOL     OW62972   1.140   4.434  12.485 -0.0581 -0.7501 -0.1557
18705SOL    HW162973   1.175   4.487  12.413 -1.2915 -2.3704 -2.0443
18705SOL    HW262974   1.202   4.361  12.493  0.5698 -0.1162  1.1050
18706SOL     OW62975   2.833   5.702   0.141 -0.7115  0.1081 -0.1899
18706SOL    HW162976   2.908   5.645   0.123 -1.3477 -0.9951  0.5268
18706SOL    HW262977   2.842   5.725   0.233 -1.3008 -0.1334 -0.0654
18707SOL     OW62978   0.921   0.890   4.599 -0.3970 -0.0788 -0.6574
18707SOL    HW162979   0.898   0.798   4.594 -0.8382  0.0596 -1.2257
18707SOL    HW262980   0.838   0.937   4.590 -0.0657  0.3925 -1.3630
18708SOL     OW62981   8.243   2.969  12.406  0.0164 -0.1545 -0.0313
18708SOL    HW162982   8.294   3.040  12.369  1.0887 -0.6662  0.4037
18708SOL    HW262983   8.215   3.002  12.492  1.0547 -0.4639  0.4457
18709SOL     OW62984   9.994   9.371   0.547 -0.4079  0.2796  0.6429
18709SOL    HW162985   9.991   9.280   0.518 -0.8794 -0.2084  2.1291
18709SOL    HW262986  10.058   9.371   0.619 -0.6412  1.0501  0.8581
18710SOL     OW62987   0.830   0.833   2.366 -0.1535 -0.4867  0.3064
18710SOL    HW162988   0.831   0.913   2.314 -0.9561  1.0538  2.5204
18710SOL    HW262989   0.752   0.786   2.336 -1.0227  0.7225  0.6023
18711SOL     OW62990   4.060   1.234   4.087  0.1571 -0.1296 -0.2757
18711SOL    HW162991   3.985   1.226   4.028 -0.0649  0.6745 -0.1183
18711SOL    HW262992   4.020   1.251   4.173  0.5067 -0.2715 -0.0828
18712SOL     OW62993   3.837   7.983   1.593  0.0971  0.3009  0.3208
18712SOL    HW162994   3.889   8.029   1.527 -0.0337 -1.1698 -0.8659
18712SOL    HW262995   3.870   7.893   1.591 -2.2485 -0.6293 -0.3016
18713SOL     OW62996   9.325   0.781   9.026  0.4436 -0.0153  0.2696
18713SOL    HW162997   9.299   0.693   9.053  1.2374 -0.3577 -0.0576
18713SOL    HW262998   9.375   0.768   8.946 -0.5917  0.8572 -0.5502
18714SOL     OW62999   3.747  11.761   7.414 -0.2330 -0.2919 -0.0018
18714SOL    HW163000   3.667  11.708   7.417 -0.1549 -0.3911  0.3304
18714SOL    HW263001   3.719  11.849   7.440 -0.7986  0.3878 -2.6060
18715SOL     OW63002   5.473  10.803   4.654  0.2670 -0.3470 -0.6179
18715SOL    HW163003   5.512  10.759   4.730 -0.4805  0.2085  0.0977
18715SOL    HW263004   5.421  10.873   4.691  0.5765  0.4761 -1.6979
18716SOL     OW63005  10.156   6.619   6.913 -0.1486  0.1116 -0.6129
18716SOL    HW163006  10.167   6.564   6.991  1.7977 -0.3295 -1.1460
18716SOL    HW263007  10.114   6.562   6.849  0.3063 -0.2329 -0.6092
18717SOL     OW63008   9.897   5.126   3.513 -0.2005  0.4919 -0.3273
18717SOL    HW163009   9.902   5.061   3.443 -0.2185  1.4706 -1.2577
18717SOL    HW263010   9.987   5.159   3.521 -0.3191  0.8138 -0.3114
18718SOL     OW63011   8.797   4.954  10.424  0.0564 -0.2513  0.4451
18718SOL    HW163012   8.737   4.998  10.484  1.6720 -0.7293  2.5366
18718SOL    HW263013   8.781   4.861  10.437 -0.6776 -0.3818 -1.1226
18719SOL     OW63014   0.504   7.152   8.711 -0.0653 -0.5603  0.4538
18719SOL    HW163015   0.476   7.101   8.788  0.4077  0.4826  1.3508
18719SOL    HW263016   0.598   7.164   8.724  0.4111 -2.0281 -1.3196
18720SOL     OW63017  11.250   3.016  11.282 -0.5584  0.6638 -0.5072
18720SOL    HW163018  11.238   3.093  11.227 -0.2455  1.2894  0.2763
18720SOL    HW263019  11.164   2.998  11.319 -0.3451  1.5507  0.4683
18721SOL     OW63020  10.224   1.743   8.297  0.4750 -0.3135 -0.0171
18721SOL    HW163021  10.253   1.829   8.328 -0.4375 -0.0186  0.0540
18721SOL    HW263022  10.305   1.693   8.286  1.0055  0.4957  0.1091
18722SOL     OW63023   8.215   1.537   1.437  0.5147 -0.1884 -0.1331
18722SOL    HW163024   8.292   1.514   1.385  0.1241 -0.2907 -0.6774
18722SOL    HW263025   8.157   1.582   1.375  0.3662  0.3652  0.4010
18723SOL     OW63026   6.345   1.108   2.380  0.3837  0.2179 -0.3781
18723SOL    HW163027   6.331   1.015   2.362  0.5161 -0.1827  1.4111
18723SOL    HW263028   6.300   1.124   2.463 -0.0356  1.8792 -0.8830
18724SOL     OW63029   6.439   6.721   8.426  0.0731 -0.3119  0.1976
18724SOL    HW163030   6.484   6.783   8.483 -0.0948  0.5960 -0.6483
18724SOL    HW263031   6.486   6.724   8.344 -0.1987 -0.9956  0.0080
18725SOL     OW63032  12.434   2.906   1.893 -0.4779 -0.2846 -0.3433
18725SOL    HW163033  12.415   2.997   1.914 -2.3490 -0.5428 -0.6827
18725SOL    HW263034  12.487   2.874   1.966 -1.5156  0.5340  0.8085
18726SOL     OW63035   1.858   3.400   0.014  0.1532  0.1799  0.0414
18726SOL    HW163036   1.918   3.474   0.001 -0.3294  0.3597 -1.2197
18726SOL    HW263037   1.823   3.414   0.103 -0.3645  1.8022 -0.3751
18727SOL     OW63038   0.929  10.796   1.323  0.1976  0.6883 -0.0929
18727SOL    HW163039   0.990  10.723   1.335 -0.1963  0.5590  1.2931
18727SOL    HW263040   0.971  10.851   1.257  1.6710  0.4273  0.5748
18728SOL     OW63041  11.735   6.638   6.993 -1.2518  0.2196  0.5650
18728SOL    HW163042  11.751   6.579   6.919  1.9144 -1.0284  2.0542
18728SOL    HW263043  11.682   6.709   6.956 -1.7280 -1.4690 -2.2979
18729SOL     OW63044  12.361   2.825   4.402 -1.0126  0.2560 -0.4725
18729SOL    HW163045  12.391   2.827   4.311  1.5936  1.5667  0.3095
18729SOL    HW263046  12.298   2.897   4.408  0.8890  2.0252 -0.6711
18730SOL     OW63047   0.909   8.379  11.388 -1.1248 -0.0598 -0.1016
18730SOL    HW163048   0.816   8.389  11.410 -0.6962 -0.1939  1.9657
18730SOL    HW263049   0.919   8.286  11.366 -1.0894 -0.5622  1.8928
18731SOL     OW63050   8.955  10.840  10.140 -0.2241 -0.5826 -0.5375
18731SOL    HW163051   8.903  10.766  10.172 -0.0571 -0.7509 -0.6562
18731SOL    HW263052   9.029  10.846  10.201 -1.2274  0.6883  0.6300
18732SOL     OW63053   8.501   4.269  10.307  0.0739 -0.3321  0.0988
18732SOL    HW163054   8.591   4.277  10.340 -0.5119  3.6179  1.3244
18732SOL    HW263055   8.456   4.216  10.372  1.5397 -3.0206 -0.9075
18733SOL     OW63056   1.221   3.973   5.116  0.4956 -0.3964 -0.5660
18733SOL    HW163057   1.224   4.067   5.103  0.4159 -0.3595 -0.3155
18733SOL    HW263058   1.133   3.947   5.088  0.6282 -0.4420 -0.9415
18734SOL     OW63059   2.788   4.807   2.072 -0.4638 -0.1660  0.2467
18734SOL    HW163060   2.792   4.712   2.082  0.1008 -0.0167  1.6612
18734SOL    HW263061   2.877   4.832   2.046  0.1324  0.2092  2.4669
18735SOL     OW63062   4.837   6.549   4.137 -0.1599 -0.1095 -0.3381
18735SOL    HW163063   4.833   6.475   4.198  1.1403 -1.2104 -1.5206
18735SOL    HW263064   4.901   6.609   4.176 -0.4053 -0.1162  0.0832
18736SOL     OW63065   5.325  12.488   5.424 -0.5790 -0.0512 -0.2017
18736SOL    HW163066   5.383  12.508   5.350  1.5383 -0.0634  1.3842
18736SOL    HW263067   5.383  12.468   5.496 -2.5116  1.8079  2.0598
18737SOL     OW63068   5.747  12.191   5.720 -0.2256  0.0663  0.4615
18737SOL    HW163069   5.831  12.236   5.723 -0.4706  0.6234 -0.4221
18737SOL    HW263070   5.691  12.239   5.781  0.3147 -0.8062  1.6718
18738SOL     OW63071   1.511   4.353  10.485 -0.2705 -0.1575 -0.0292
18738SOL    HW163072   1.448   4.380  10.418 -0.4444  0.2504  0.2907
18738SOL    HW263073   1.461   4.293  10.541 -0.5082  0.4753  0.4576
18739SOL     OW63074   1.152   9.540   3.471 -0.0211  0.3190  0.2950
18739SOL    HW163075   1.223   9.476   3.482 -0.8497 -0.6510  0.1625
18739SOL    HW263076   1.124   9.559   3.561 -1.0487 -1.0146  0.2989
18740SOL     OW63077  12.459   2.481  10.876 -0.9614 -0.8681  0.7838
18740SOL    HW163078  12.546   2.504  10.907  0.3907 -0.5687 -2.7818
18740SOL    HW263079  12.410   2.563  10.879 -0.0579 -0.2671 -0.2027
18741SOL     OW63080   5.083  12.285   5.870  0.1199 -0.3277 -0.5657
18741SOL    HW163081   5.032  12.325   5.940  0.8083  2.1196 -1.3585
18741SOL    HW263082   5.108  12.199   5.904  2.0811  1.4443  3.0877
18742SOL     OW63083  11.983   9.850  10.531 -0.3850 -0.3641  0.0971
18742SOL    HW163084  11.906   9.873  10.582 -0.1347 -1.1479  0.8558
18742SOL    HW263085  12.057   9.874  10.586 -0.1103 -2.4804  0.7667
18743SOL     OW63086   8.777   8.317   3.083 -0.0066 -0.1763 -0.6940
18743SOL    HW163087   8.851   8.262   3.055 -0.4336 -0.7793 -0.6577
18743SOL    HW263088   8.735   8.267   3.152  0.3314  0.7723  0.2214
18744SOL     OW63089   7.061   4.632   1.568 -0.5186 -0.0771 -0.2569
18744SOL    HW163090   7.074   4.541   1.595  2.4423  0.3516 -0.0043
18744SOL    HW263091   7.147   4.662   1.541 -1.2476  2.9345  0.4307
18745SOL     OW63092  12.366   3.774   2.353  0.9086 -0.1615 -0.0687
18745SOL    HW163093  12.274   3.767   2.376  0.4402  0.1871 -1.7340
18745SOL    HW263094  12.387   3.690   2.310  1.8468 -0.9285  1.7760
18746SOL     OW63095   2.462   1.757   3.300  0.1092 -0.2025  0.3859
18746SOL    HW163096   2.492   1.666   3.304  1.4343  0.2464  2.8227
18746SOL    HW263097   2.368   1.751   3.285 -0.0321 -2.0398  1.6589
18747SOL     OW63098   2.672   3.649   4.832 -0.1762  0.1548  0.0949
18747SOL    HW163099   2.693   3.714   4.765  0.7458 -1.4283 -1.2131
18747SOL    HW263100   2.585   3.617   4.809  1.2216 -2.3854 -2.1203
18748SOL     OW63101  12.355   4.795   8.125  0.6259 -0.1292 -0.3456
18748SOL    HW163102  12.420   4.865   8.122 -1.9426  2.4048 -0.7596
18748SOL    HW263103  12.325   4.787   8.035 -0.2106 -0.6915 -0.0215
18749SOL     OW63104   7.955   9.209   0.048  0.0736 -0.0279  0.0608
18749SOL    HW163105   8.028   9.223   0.109 -1.2864 -0.8816  1.9816
18749SOL    HW263106   7.995   9.214  -0.039  2.4005 -0.3708  1.0472
18750SOL     OW63107   5.913   1.602   1.686  0.2466 -0.2165  0.9051
18750SOL    HW163108   6.002   1.593   1.652  0.6653 -0.7033  2.0685
18750SOL    HW263109   5.879   1.512   1.687 -1.1509  0.1887 -1.7330
18751SOL     OW63110   2.089   6.143   6.335  0.0917 -0.2148 -0.4516
18751SOL    HW163111   2.139   6.169   6.412  0.9272 -2.0463 -0.3528
18751SOL    HW263112   2.074   6.049   6.345 -0.2457 -0.3975 -2.2597
18752SOL     OW63113   4.190   9.846  11.600 -0.0996  0.3199 -0.1841
18752SOL    HW163114   4.129   9.777  11.573  0.0358 -0.2371  0.8664
18752SOL    HW263115   4.182   9.849  11.696 -1.7246  3.2858 -0.2997
18753SOL     OW63116   4.077  11.959   8.606 -0.1261 -0.3928  0.4260
18753SOL    HW163117   4.049  11.905   8.532  1.3139 -2.6965  1.4290
18753SOL    HW263118   4.021  11.930   8.679 -0.6727  0.9297  0.5499
18754SOL     OW63119  11.280   4.570  10.456  0.3195 -0.4293  0.0359
18754SOL    HW163120  11.333   4.536  10.385  0.7179  0.0444  0.1013
18754SOL    HW263121  11.331   4.552  10.535  0.4549  0.1610  0.0859
18755SOL     OW63122   6.325   4.188   7.651  0.2153 -0.3898 -0.1578
18755SOL    HW163123   6.308   4.168   7.742 -1.7851  0.3249 -0.3193
18755SOL    HW263124   6.268   4.129   7.602  0.2926  0.1376 -0.9021
18756SOL     OW63125   9.485  12.522   7.896  0.1911  0.1257 -0.8825
18756SOL    HW163126   9.419  12.464   7.859  1.6395 -0.8386 -2.0076
18756SOL    HW263127   9.488  12.597   7.836  0.6422 -0.1862 -1.2551
18757SOL     OW63128   3.339   6.878  11.615 -0.0712 -0.0356  0.2292
18757SOL    HW163129   3.316   6.962  11.655  0.3461 -0.1275  0.6706
18757SOL    HW263130   3.286   6.874  11.536  0.8539  1.2298 -0.4814
18758SOL     OW63131   3.432   8.136   3.374 -0.1522  0.9858 -0.2986
18758SOL    HW163132   3.413   8.209   3.316 -1.7593  0.1976 -0.8355
18758SOL    HW263133   3.466   8.067   3.316 -0.4968  0.6482 -0.1035
18759SOL     OW63134   5.495   3.375  10.913  0.2507 -0.0186 -0.3631
18759SOL    HW163135   5.475   3.439  10.981  2.9814 -0.9736  1.5041
18759SOL    HW263136   5.583   3.398  10.884  0.3316 -1.4923 -1.3885
18760SOL     OW63137   9.192  11.088  10.648  0.0740 -0.4558 -0.0966
18760SOL    HW163138   9.255  11.157  10.628 -0.7293  0.2609 -0.2021
18760SOL    HW263139   9.120  11.103  10.587 -0.5561 -0.7733  0.5645
18761SOL     OW63140  10.374   6.929   0.303  0.6520 -0.1645 -0.0942
18761SOL    HW163141  10.340   6.987   0.236  1.1854 -0.7737 -0.9138
18761SOL    HW263142  10.419   6.987   0.365  1.7733  0.2564 -1.2574
18762SOL     OW63143   2.626   0.638   1.495  0.4351 -1.2133  0.2655
18762SOL    HW163144   2.708   0.654   1.449  0.8614 -1.2358  0.9946
18762SOL    HW263145   2.651   0.583   1.570 -0.0825 -0.3854  1.0644
18763SOL     OW63146   5.403   4.091   7.809  0.4612 -0.5216 -0.0440
18763SOL    HW163147   5.347   4.160   7.844  1.5559  0.7164 -0.6174
18763SOL    HW263148   5.454   4.060   7.884  0.3736 -0.3004  0.1064
18764SOL     OW63149  11.252  10.846   3.376  0.8938  0.7025 -0.3229
18764SOL    HW163150  11.328  10.904   3.373  1.6732 -0.2657 -0.0338
18764SOL    HW263151  11.282  10.770   3.426  0.4669 -0.7394 -2.1680
18765SOL     OW63152   8.473   7.398   8.681  0.1130 -0.3414 -0.2077
18765SOL    HW163153   8.387   7.434   8.703 -0.7737 -0.9792 -2.3425
18765SOL    HW263154   8.500   7.350   8.760 -0.7409  1.1629  1.0448
18766SOL     OW63155   6.238   7.286   1.451 -0.4042 -0.0686  0.3059
18766SOL    HW163156   6.180   7.360   1.467 -2.7907 -1.7502  0.0436
18766SOL    HW263157   6.255   7.289   1.357  1.2461  1.2683  0.6023
18767SOL     OW63158   2.977   9.857   3.823  0.2050  0.6878  0.2108
18767SOL    HW163159   2.999   9.936   3.774 -0.5300  0.2262 -0.9103
18767SOL    HW263160   2.928   9.888   3.900 -3.0892  1.2177 -1.8943
18768SOL     OW63161   7.125   3.464  11.099 -0.3641  0.3052 -0.0380
18768SOL    HW163162   7.185   3.472  11.025 -0.0573  0.5204  0.2266
18768SOL    HW263163   7.080   3.381  11.085  1.5304 -0.9598  0.8587
18769SOL     OW63164   0.601   7.171   8.248 -0.1778  0.3108 -0.0398
18769SOL    HW163165   0.679   7.224   8.263 -0.7242  0.6684  1.7548
18769SOL    HW263166   0.634   7.093   8.203  0.9518  1.1817 -0.7803
18770SOL     OW63167   5.225  10.745   1.954 -0.2823 -0.0890  0.5974
18770SOL    HW163168   5.209  10.738   2.048 -1.3609 -0.7026  0.3871
18770SOL    HW263169   5.143  10.779   1.918 -0.0910 -0.4229 -0.1806
18771SOL     OW63170   7.598  10.827   3.615 -0.2357  0.3229  0.0056
18771SOL    HW163171   7.690  10.822   3.639 -0.0287 -2.2475 -1.0046
18771SOL    HW263172   7.556  10.757   3.665 -1.3128  0.3171 -0.8558
18772SOL     OW63173  12.067   2.876   3.254  0.2596 -0.1804  0.2614
18772SOL    HW163174  12.022   2.943   3.202  0.4179  0.0580  0.4290
18772SOL    HW263175  12.043   2.794   3.212 -1.0538 -0.1410  0.8622
18773SOL     OW63176   9.592   4.786  11.718 -0.0587 -0.2453 -0.3119
18773SOL    HW163177   9.639   4.703  11.708 -0.7239 -0.8071  0.9864
18773SOL    HW263178   9.537   4.792  11.641  1.6437  0.1158 -1.5588
18774SOL     OW63179   4.451  11.254   6.533 -0.0280 -0.0399  0.6572
18774SOL    HW163180   4.517  11.188   6.516  0.2244  0.5001 -0.5884
18774SOL    HW263181   4.368  11.209   6.519  0.0949 -0.5018  1.3964
18775SOL     OW63182   0.636  11.303   4.507 -0.1334 -0.4519 -0.0516
18775SOL    HW163183   0.723  11.331   4.477  0.5407 -0.7964  1.4475
18775SOL    HW263184   0.619  11.222   4.458  0.1628 -0.1119 -0.7253
18776SOL     OW63185   2.947   1.401   8.882  0.2910  0.5023 -0.5539
18776SOL    HW163186   2.863   1.369   8.850  1.3408 -1.1676 -1.8494
18776SOL    HW263187   2.954   1.368   8.971 -0.2392  0.2786 -0.5965
18777SOL     OW63188  10.820   7.524   7.393 -0.3223 -0.1296  0.1400
18777SOL    HW163189  10.904   7.569   7.390  0.1194 -0.8044  1.4945
18777SOL    HW263190  10.810   7.498   7.484 -0.4596 -2.8876 -0.5622
18778SOL     OW63191   3.485   8.060   0.512 -0.2039 -0.6150  0.4473
18778SOL    HW163192   3.412   8.086   0.455  0.0285 -1.3568 -0.2059
18778SOL    HW263193   3.524   7.984   0.468  0.8470 -0.3439  0.8850
18779SOL     OW63194   5.987   5.802   1.113 -0.4477  0.4141 -0.2679
18779SOL    HW163195   5.908   5.785   1.164 -0.1636  0.3945  0.1660
18779SOL    HW263196   5.963   5.875   1.056 -0.3904  1.2330  0.7379
18780SOL     OW63197  10.119   9.507   8.422  0.8545 -0.0894 -0.0208
18780SOL    HW163198  10.081   9.586   8.382  0.6743 -0.1947 -0.0601
18780SOL    HW263199  10.186   9.479   8.360  0.5854 -0.2433 -0.2477
18781SOL     OW63200   7.685   6.995  11.106  0.2503  0.1155 -0.2452
18781SOL    HW163201   7.712   7.076  11.151 -0.2999  1.2768 -1.9008
18781SOL    HW263202   7.759   6.936  11.117  1.0291  1.1557  0.2878
18782SOL     OW63203   9.828   1.881   9.668 -0.0037  0.6132 -0.1190
18782SOL    HW163204   9.880   1.816   9.620  0.5027 -0.8292  2.2381
18782SOL    HW263205   9.818   1.953   9.606  0.3327 -1.2368 -2.4839
18783SOL     OW63206   8.145   3.235  11.758  0.4634 -0.1714 -0.6691
18783SOL    HW163207   8.221   3.178  11.747  0.7845 -0.0906  0.8501
18783SOL    HW263208   8.182   3.323  11.766  0.2877 -0.2105  0.7727
18784SOL     OW63209   7.444  10.922   1.842  0.2362 -0.2573 -0.0666
18784SOL    HW163210   7.481  10.978   1.911 -2.4748 -1.9200  3.0444
18784SOL    HW263211   7.414  10.982   1.775  0.8474  1.6946  1.3164
18785SOL     OW63212   8.697   0.352   3.573  0.3431  0.4601  0.0872
18785SOL    HW163213   8.752   0.427   3.548  1.1743 -0.6983 -1.7780
18785SOL    HW263214   8.753   0.300   3.630  0.8398 -0.1755 -0.9508
18786SOL     OW63215   7.485   6.323   8.680 -0.2724  0.1080  0.5036
18786SOL    HW163216   7.526   6.335   8.595 -0.9962 -1.4176 -0.0858
18786SOL    HW263217   7.559   6.323   8.742  0.3726 -0.0016 -0.2477
18787SOL     OW63218   6.820   7.058   1.941  0.3313  0.2928 -0.2895
18787SOL    HW163219   6.738   7.030   1.981  1.2964 -3.0200 -0.3261
18787SOL    HW263220   6.871   7.095   2.013 -0.0952 -0.3320  0.3425
18788SOL     OW63221   2.175   4.318  11.555  0.2071  0.6054  0.5046
18788SOL    HW163222   2.169   4.398  11.607 -0.7234  0.3474  0.8089
18788SOL    HW263223   2.241   4.338  11.489 -0.4570  1.8498  0.1824
18789SOL     OW63224   5.531   2.423   8.429  0.6209 -0.0267 -0.1629
18789SOL    HW163225   5.604   2.384   8.477  2.1759  0.8737 -1.6555
18789SOL    HW263226   5.558   2.418   8.337 -0.4026  1.9196 -0.6286
18790SOL     OW63227   7.498   5.783   2.097 -0.0250  0.0171  0.0338
18790SOL    HW163228   7.593   5.785   2.109  0.2297  0.8672 -1.8919
18790SOL    HW263229   7.480   5.693   2.069  0.1000 -0.3312  1.0204
18791SOL     OW63230   3.089   8.113  10.771  0.5467 -0.0114 -0.4777
18791SOL    HW163231   3.168   8.150  10.732  0.9494 -1.4266 -1.0740
18791SOL    HW263232   3.022   8.125  10.704  0.9908 -1.4968 -1.2282
18792SOL     OW63233   5.181   2.047  12.566  0.0329  0.1751  0.2060
18792SOL    HW163234   5.158   1.967  12.518  1.6913 -0.1445 -0.1141
18792SOL    HW263235   5.135   2.116  12.520  0.0858 -0.3739 -0.6989
18793SOL     OW63236   0.355   2.400   6.345 -0.0064  0.1386 -0.5628
18793SOL    HW163237   0.318   2.463   6.283  0.4406  1.2889  0.2935
18793SOL    HW263238   0.422   2.450   6.392  0.1546 -0.9057  0.3535
18794SOL     OW63239   6.876   4.127   7.971 -0.2516 -0.6087 -0.4470
18794SOL    HW163240   6.854   4.034   7.960 -0.0701 -0.7174  0.0867
18794SOL    HW263241   6.921   4.131   8.055  0.3814 -0.1480 -0.7997
18795SOL     OW63242   9.902  12.205   8.117 -0.3314  0.0061 -0.0971
18795SOL    HW163243   9.948  12.289   8.116 -0.5524  0.1230 -0.9123
18795SOL    HW263244   9.932  12.160   8.038 -0.6558 -0.4426  0.0310
18796SOL     OW63245   5.304   4.809  10.872  0.5993 -0.1234  0.0485
18796SOL    HW163246   5.327   4.886  10.924  2.8362 -1.7934  1.7060
18796SOL    HW263247   5.209   4.799  10.885  0.1036  2.6774 -0.7977
18797SOL     OW63248   2.719  10.537   9.944 -0.0663  0.3211 -0.1709
18797SOL    HW163249   2.674  10.475  10.002  1.8198 -0.2934  0.7201
18797SOL    HW263250   2.724  10.618   9.994  1.3054 -0.1248  0.4613
18798SOL     OW63251   5.687   2.477   1.608 -0.2179 -0.1262 -0.2957
18798SOL    HW163252   5.712   2.396   1.653 -0.4486 -0.0984 -0.1161
18798SOL    HW263253   5.770   2.515   1.580 -0.0680 -0.1106  0.1637
18799SOL     OW63254   9.313  12.001   8.145 -0.3208 -0.1200 -0.4079
18799SOL    HW163255   9.392  11.948   8.136 -0.0901  0.1673 -0.1196
18799SOL    HW263256   9.329  12.076   8.088  0.2252  0.6334  0.6836
18800SOL     OW63257   7.876   1.373  11.887 -0.3220 -0.4217  0.2318
18800SOL    HW163258   7.890   1.384  11.981  1.3601  1.3852 -0.1647
18800SOL    HW263259   7.892   1.460  11.850  0.8902 -1.4615 -1.9149
18801SOL     OW63260   2.185   6.354  11.872  0.2592  0.1568  0.0963
18801SOL    HW163261   2.245   6.392  11.808 -0.2723  0.7689 -0.0601
18801SOL    HW263262   2.180   6.262  11.849 -0.4810  0.4950 -1.2275
18802SOL     OW63263  11.450   2.329  11.267  0.0833 -0.1744  0.0803
18802SOL    HW163264  11.521   2.384  11.234 -0.4553 -0.1206 -1.0110
18802SOL    HW263265  11.426   2.369  11.351 -0.7419  1.6825 -0.9916
18803SOL     OW63266   9.554   2.735   5.145 -0.0057  0.2228 -0.2137
18803SOL    HW163267   9.541   2.790   5.069  0.0627  1.2536  0.4980
18803SOL    HW263268   9.538   2.646   5.114 -1.1031  0.7245 -1.1507
18804SOL     OW63269   3.825   4.670   9.421  0.7236  0.1438  0.3864
18804SOL    HW163270   3.852   4.739   9.361 -1.0460  0.2892 -0.3095
18804SOL    HW263271   3.766   4.714   9.483  0.3617 -0.5417  0.5442
18805SOL     OW63272   3.705   3.777   8.822  0.0801  0.2694  0.4120
18805SOL    HW163273   3.698   3.800   8.729 -2.5933 -0.8113  0.2785
18805SOL    HW263274   3.771   3.707   8.823 -1.6687 -1.5523 -1.1426
18806SOL     OW63275   8.331   2.844   3.404 -0.0160  0.0659 -0.0620
18806SOL    HW163276   8.416   2.853   3.448 -1.2829  1.5755  2.2580
18806SOL    HW263277   8.268   2.876   3.467 -2.1798  0.7466 -2.4144
18807SOL     OW63278   5.755  10.892   8.159  0.4006 -0.1163  0.4266
18807SOL    HW163279   5.706  10.810   8.157  1.1973 -0.6404 -2.1615
18807SOL    HW263280   5.693  10.958   8.129 -0.2886  0.3346  2.6663
18808SOL     OW63281   8.686   1.828   2.481  0.1597  0.0408  0.2629
18808SOL    HW163282   8.753   1.790   2.538 -0.3067 -1.6554 -0.2727
18808SOL    HW263283   8.706   1.793   2.394 -0.4136  0.8931 -0.2243
18809SOL     OW63284   9.760   1.444   7.469 -0.5140  0.2623  0.4577
18809SOL    HW163285   9.736   1.502   7.397  0.2167 -1.4029 -1.2013
18809SOL    HW263286   9.697   1.372   7.464 -0.3860  0.0769  1.4027
18810SOL     OW63287   7.888   7.698   4.888  0.7740  0.5639  0.2382
18810SOL    HW163288   7.912   7.791   4.889 -0.4405  0.8843  1.1668
18810SOL    HW263289   7.970   7.652   4.906  1.4059  1.4483 -0.3260
18811SOL     OW63290   4.368  11.579   5.332 -0.5865 -0.0565 -0.5258
18811SOL    HW163291   4.300  11.640   5.360 -2.8764 -1.7088 -2.1082
18811SOL    HW263292   4.420  11.629   5.269 -1.0552  0.8963 -0.1813
18812SOL     OW63293   7.048   5.068   9.167 -0.0879  0.1543  0.3145
18812SOL    HW163294   7.108   5.143   9.169 -0.7369  0.7192 -0.4893
18812SOL    HW263295   7.103   4.995   9.137  0.2171  0.6533 -0.3777
18813SOL     OW63296   6.006   0.607   2.724  0.3180  0.7760  0.5260
18813SOL    HW163297   6.038   0.615   2.634  2.1751 -0.5808  1.0058
18813SOL    HW263298   5.954   0.686   2.737  2.7142  2.7032 -0.6971
18814SOL     OW63299   5.511  10.760   0.058  0.0593  0.1613  0.2021
18814SOL    HW163300   5.545  10.777  -0.030 -1.9779 -1.6116 -1.0510
18814SOL    HW263301   5.443  10.826   0.070  0.7629  0.8003  0.7427
18815SOL     OW63302   1.869   4.711   3.292  0.4419 -0.4158 -0.1996
18815SOL    HW163303   1.811   4.638   3.312  2.4090 -1.6039  1.6681
18815SOL    HW263304   1.906   4.690   3.206 -1.8356  0.4239 -1.4715
18816SOL     OW63305   5.974   0.372   8.342 -0.0933 -0.2120 -0.0428
18816SOL    HW163306   5.982   0.448   8.285  1.9168 -0.0410  0.4017
18816SOL    HW263307   5.940   0.302   8.286 -1.5427  0.8728 -0.5610
18817SOL     OW63308   4.483   2.222   8.899  0.7454  0.0254  0.8233
18817SOL    HW163309   4.564   2.176   8.922  1.5768  1.2051  0.3936
18817SOL    HW263310   4.451   2.179   8.820  0.6913 -0.7488  1.2594
18818SOL     OW63311   2.815  11.197   8.321 -0.3669 -0.3261  0.3241
18818SOL    HW163312   2.847  11.202   8.231 -0.5699 -0.3302  0.2507
18818SOL    HW263313   2.853  11.116   8.356 -0.7049 -0.5993  0.0750
18819SOL     OW63314   7.000   5.829   9.708 -0.1639 -0.2311 -0.2651
18819SOL    HW163315   7.058   5.899   9.740  0.4830  0.2877 -2.4267
18819SOL    HW263316   7.045   5.748   9.734 -0.2023  0.1227  1.0034
18820SOL     OW63317   6.169   2.425   1.163 -0.3447  0.6595  0.0350
18820SOL    HW163318   6.222   2.420   1.083  0.2394  0.0145  0.4581
18820SOL    HW263319   6.112   2.349   1.159  0.0453  0.3385  0.4802
18821SOL     OW63320   1.813   3.968   2.701  0.5852 -0.3098 -0.2961
18821SOL    HW163321   1.837   3.906   2.632 -1.1639 -0.4905 -0.7904
18821SOL    HW263322   1.735   3.930   2.742  1.4692 -0.1071  1.6903
18822SOL     OW63323   3.380   8.992   3.174  0.0893  0.1978 -0.0605
18822SOL    HW163324   3.462   8.990   3.224 -0.6686  0.9259  1.2517
18822SOL    HW263325   3.351   9.082   3.179 -0.2278  0.1970 -1.5118
18823SOL     OW63326   8.889   4.169   7.460  0.8665  0.8210  0.0781
18823SOL    HW163327   8.831   4.173   7.384 -0.0095 -0.7369  0.6164
18823SOL    HW263328   8.873   4.083   7.498  2.1895  1.0832  1.3268
18824SOL     OW63329  11.779   7.208   6.232  0.1039  0.4435  0.3044
18824SOL    HW163330  11.797   7.301   6.237 -1.1638  0.6417  2.2016
18824SOL    HW263331  11.765   7.181   6.323  0.5728 -1.6306 -0.1860
18825SOL     OW63332   4.610   0.384   3.098  0.1505  0.0010  0.3705
18825SOL    HW163333   4.589   0.478   3.097  0.4508  0.0637 -0.0840
18825SOL    HW263334   4.687   0.377   3.155  0.2452  0.0567  0.2502
18826SOL     OW63335   6.472  12.570   6.148 -0.4739  0.8577  0.2052
18826SOL    HW163336   6.427  12.513   6.210 -0.2365  0.8696  0.3885
18826SOL    HW263337   6.489  12.651   6.196 -0.8625  1.1095 -0.0715
18827SOL     OW63338  10.173  10.280   7.369  0.1653  0.1559  0.0901
18827SOL    HW163339  10.090  10.234   7.363  0.9088 -1.4694  1.4742
18827SOL    HW263340  10.220  10.256   7.289 -0.6457  1.0451 -0.6733
18828SOL     OW63341   0.495   1.719   1.094 -0.2170 -0.2990 -0.4260
18828SOL    HW163342   0.512   1.785   1.161 -3.8322  2.8479 -2.1986
18828SOL    HW263343   0.401   1.700   1.103 -0.8262  0.0807 -4.2244
18829SOL     OW63344  11.881   1.481  10.041 -0.5494  0.0359  0.7591
18829SOL    HW163345  11.816   1.419  10.007 -0.3401 -1.1426  2.4275
18829SOL    HW263346  11.828   1.553  10.078 -0.9263 -0.7785  1.8478
18830SOL     OW63347   0.314  10.711   0.515 -0.2771 -0.3931 -0.4054
18830SOL    HW163348   0.226  10.708   0.554 -0.5565  3.1461 -0.4262
18830SOL    HW263349   0.298  10.706   0.421 -0.7300  1.7490 -0.5091
18831SOL     OW63350   7.811  10.378   4.969  0.2416  0.2760 -0.3292
18831SOL    HW163351   7.815  10.307   5.032 -1.3836 -0.7588 -1.3264
18831SOL    HW263352   7.856  10.451   5.012  2.1630 -1.3741  0.6347
18832SOL     OW63353   9.670   4.628  11.366  0.0639  0.1833  0.1873
18832SOL    HW163354   9.649   4.722  11.363 -0.6908  0.0368  0.6857
18832SOL    HW263355   9.679   4.609  11.460  0.9942 -0.0830  0.0541
18833SOL     OW63356  12.080   6.313  11.110 -0.5733 -0.1106  0.5115
18833SOL    HW163357  12.022   6.383  11.079 -1.3097 -0.8380  0.1873
18833SOL    HW263358  12.151   6.311  11.046 -0.8847 -0.0746  0.1595
18834SOL     OW63359   4.838  12.104   3.000 -0.1205  0.1759  0.1438
18834SOL    HW163360   4.872  12.190   3.025 -1.8856  0.7008  0.9000
18834SOL    HW263361   4.859  12.048   3.075  0.0718  0.2205  0.1235
18835SOL     OW63362   4.979   7.804   8.628  0.3023  0.0892 -0.3125
18835SOL    HW163363   4.948   7.892   8.604  0.3782  0.0825 -0.4346
18835SOL    HW263364   5.074   7.809   8.617  0.6758  0.8592  2.3950
18836SOL     OW63365   3.210   0.035   4.933  0.2685 -0.0005  0.4901
18836SOL    HW163366   3.261  -0.002   5.005  0.8230  1.2894  0.7990
18836SOL    HW263367   3.123  -0.002   4.944  0.2675  0.3588  2.0102
18837SOL     OW63368   8.038  10.209   5.546  0.0504  0.0768  0.5644
18837SOL    HW163369   7.976  10.220   5.617  1.5846 -0.2427  2.0183
18837SOL    HW263370   8.116  10.257   5.574  1.0401 -0.8771 -0.4344
18838SOL     OW63371   7.612   3.045   6.069 -0.3939  0.5865  0.4249
18838SOL    HW163372   7.627   2.966   6.017  0.1915  0.3928  0.8744
18838SOL    HW263373   7.551   3.097   6.017 -3.1085 -1.4131  1.3528
18839SOL     OW63374  12.187   5.792   3.003  0.4143 -0.2580  0.4487
18839SOL    HW163375  12.272   5.748   3.002  0.0668 -0.9729  0.7940
18839SOL    HW263376  12.207   5.885   2.998  1.2758 -0.3410  1.7079
18840SOL     OW63377   5.911   9.835   9.941 -0.4093  0.1329  0.0655
18840SOL    HW163378   5.858   9.777   9.886  0.6405 -0.6498 -0.1465
18840SOL    HW263379   5.914   9.791  10.026 -0.2481  0.2665  0.1296
18841SOL     OW63380  11.270   9.925   2.794 -0.0232 -0.2280 -0.2631
18841SOL    HW163381  11.331   9.995   2.772  0.8127 -0.6493  0.6685
18841SOL    HW263382  11.227   9.953   2.875  0.6716 -0.9966  0.3853
18842SOL     OW63383   0.480   9.940   8.939 -0.4210 -0.6925 -0.2653
18842SOL    HW163384   0.409   9.896   8.985 -1.3663  0.9348 -0.0756
18842SOL    HW263385   0.552   9.944   9.002 -0.2872 -1.9581 -0.3128
18843SOL     OW63386   1.105   9.336  10.238  0.1186 -0.5213  0.3475
18843SOL    HW163387   1.155   9.344  10.319 -0.0370 -0.9263  0.4870
18843SOL    HW263388   1.074   9.424  10.220  0.6349 -0.3187  0.4168
18844SOL     OW63389  11.069   7.922  10.640  0.5807  0.1212 -0.5106
18844SOL    HW163390  10.989   7.975  10.635  0.8433  0.3997 -1.9598
18844SOL    HW263391  11.069   7.870  10.561  0.9801 -1.1581  0.3015
18845SOL     OW63392   9.336   3.205   4.002 -0.0562 -0.4265  0.5434
18845SOL    HW163393   9.253   3.251   3.987 -0.5232 -1.0286  1.2122
18845SOL    HW263394   9.312   3.112   3.999  0.7033 -0.6217  0.1730
18846SOL     OW63395  11.197   0.150  11.111  0.0549  0.5319  0.4116
18846SOL    HW163396  11.180   0.239  11.078  1.3847  0.5908 -0.1655
18846SOL    HW263397  11.114   0.124  11.152 -0.4994  1.8644  0.2044
18847SOL     OW63398   2.280  10.616   2.182 -0.2084 -0.2231  0.0537
18847SOL    HW163399   2.233  10.532   2.179 -0.4611 -0.0756 -0.1433
18847SOL    HW263400   2.241  10.668   2.111 -2.2986  1.2534  2.1418
18848SOL     OW63401  10.957   1.571   8.972  0.1299 -0.3717 -0.3413
18848SOL    HW163402  11.009   1.574   9.052 -0.5779 -0.6893  0.1325
18848SOL    HW263403  11.015   1.528   8.908  0.7367 -0.0069 -0.0452
18849SOL     OW63404  10.922   1.271   1.188  0.6802 -0.2970 -0.0046
18849SOL    HW163405  10.843   1.322   1.209  1.4657  0.8240  0.3118
18849SOL    HW263406  10.931   1.209   1.261 -0.6371 -1.3829 -0.7041
18850SOL     OW63407   0.111   2.042   3.948 -0.3042 -0.5306 -0.1019
18850SOL    HW163408   0.020   2.071   3.957 -0.5399 -1.7062  1.8811
18850SOL    HW263409   0.111   1.986   3.870 -0.9693  0.4779 -0.8564
18851SOL     OW63410   5.566  10.338   3.696 -0.0574 -0.2656  0.0609
18851SOL    HW163411   5.509  10.267   3.726 -0.5572  0.4751  0.9037
18851SOL    HW263412   5.567  10.329   3.601 -0.8342 -0.8624  0.0978
18852SOL     OW63413   2.903   4.003  10.416  0.1183  0.3154 -0.1143
18852SOL    HW163414   2.905   3.960  10.330  1.0614  1.7777 -0.8720
18852SOL    HW263415   2.990   4.044  10.424 -1.1368  3.2416 -0.0982
18853SOL     OW63416   3.864   3.735   2.363  0.2205 -0.6128  0.1028
18853SOL    HW163417   3.779   3.750   2.405  0.2547 -2.0768  0.7284
18853SOL    HW263418   3.926   3.787   2.414 -0.5125  2.0848 -1.5235
18854SOL     OW63419   4.561  11.261   5.022 -0.3484  0.2106  0.0665
18854SOL    HW163420   4.650  11.245   4.991  0.2233  0.0131  1.7210
18854SOL    HW263421   4.559  11.355   5.039  0.0544 -0.0193  1.4776
18855SOL     OW63422  10.305   8.666   4.308 -0.4306 -0.2139  0.1780
18855SOL    HW163423  10.359   8.625   4.241 -0.4064  1.3069 -0.7806
18855SOL    HW263424  10.260   8.737   4.262 -1.3450  0.1028  1.5117
18856SOL     OW63425   8.714   8.185   4.163 -0.3581  0.0787  0.0870
18856SOL    HW163426   8.728   8.137   4.082  0.7966  0.6106 -0.0472
18856SOL    HW263427   8.685   8.272   4.134 -1.5887 -0.2283  0.3082
18857SOL     OW63428   3.856   8.862   4.918  0.7761 -0.2148  0.0519
18857SOL    HW163429   3.940   8.895   4.949  1.1467 -1.3744  0.3356
18857SOL    HW263430   3.858   8.768   4.938 -0.6636 -0.2285  0.2491
18858SOL     OW63431   8.222  11.506   6.006 -0.0599  0.0040 -0.1422
18858SOL    HW163432   8.158  11.489   6.075  0.3681 -0.5868  0.1180
18858SOL    HW263433   8.171  11.511   5.926 -0.3570 -1.2449 -0.0539
18859SOL     OW63434   5.625  10.414   0.980  0.2274  0.8312 -0.4650
18859SOL    HW163435   5.682  10.356   0.930  0.3585  3.0975 -3.1261
18859SOL    HW263436   5.681  10.488   1.003 -1.1003  2.1862 -1.4477
18860SOL     OW63437   8.840  11.424   8.942 -0.3690 -0.2224 -0.0610
18860SOL    HW163438   8.791  11.348   8.973 -1.0978 -0.2824 -1.2813
18860SOL    HW263439   8.844  11.483   9.017 -1.7654 -0.5100  0.2733
18861SOL     OW63440   5.207   6.738   3.692  0.0387 -0.6479  0.1121
18861SOL    HW163441   5.144   6.790   3.641  1.2266  1.3251  0.5347
18861SOL    HW263442   5.276   6.717   3.629  0.2399 -0.4918  0.2820
18862SOL     OW63443   6.709   4.237   2.101  0.2794  0.4712 -0.3789
18862SOL    HW163444   6.662   4.299   2.158 -2.3310 -1.3294 -0.3904
18862SOL    HW263445   6.759   4.183   2.162  0.9990  1.2962 -0.2102
18863SOL     OW63446   9.712   6.570  11.476 -0.4265 -0.5133 -0.2069
18863SOL    HW163447   9.643   6.604  11.533  1.1932  0.8322  1.0573
18863SOL    HW263448   9.739   6.645  11.423  0.9076 -0.6603  0.2260
18864SOL     OW63449   9.185   7.605   4.790 -0.6772 -0.1578 -0.0789
18864SOL    HW163450   9.153   7.649   4.868  0.1411 -0.7746  0.6267
18864SOL    HW263451   9.272   7.574   4.814 -1.5418 -2.9589 -0.1998
18865SOL     OW63452   1.083   1.771   6.530 -0.1551  0.4616 -0.6484
18865SOL    HW163453   1.080   1.866   6.525  1.2693  0.6006  0.4437
18865SOL    HW263454   1.173   1.751   6.558 -0.6664 -1.1492 -0.0138
18866SOL     OW63455  11.934   7.586   2.571  0.0027  0.3883 -0.0537
18866SOL    HW163456  11.937   7.495   2.602 -0.3471  0.6297  0.6941
18866SOL    HW263457  11.989   7.585   2.492 -1.3578 -0.8395 -1.0528
18867SOL     OW63458   0.957   5.648   7.527 -0.0579 -0.3128 -0.1524
18867SOL    HW163459   0.914   5.672   7.446  0.1626  0.6539  0.0128
18867SOL    HW263460   1.006   5.726   7.554  0.4468 -0.8443  0.5355
18868SOL     OW63461   4.428   0.702   2.784  0.1476 -0.2960 -0.0307
18868SOL    HW163462   4.409   0.720   2.876 -1.4896  0.2873 -0.4590
18868SOL    HW263463   4.421   0.607   2.776  1.1768 -0.4472  0.6058
18869SOL     OW63464   7.788   9.494   8.980  0.0237  0.4686  0.2033
18869SOL    HW163465   7.778   9.419   8.923  0.8068  0.5833 -0.0978
18869SOL    HW263466   7.857   9.469   9.042 -0.4248  0.5531  0.7450
18870SOL     OW63467   8.833   5.244   7.607 -0.1634  0.1637 -0.1857
18870SOL    HW163468   8.861   5.173   7.665  1.5532  0.3298 -0.7563
18870SOL    HW263469   8.739   5.229   7.593 -0.2453 -0.8583  1.2389
18871SOL     OW63470  11.460  11.090   2.142 -0.7094 -1.0189  0.3551
18871SOL    HW163471  11.441  11.095   2.049  1.9893 -0.2054 -0.2190
18871SOL    HW263472  11.541  11.040   2.148 -0.2421 -0.1410  2.1774
18872SOL     OW63473   5.283  12.325   2.075  0.1176  0.6182 -0.0170
18872SOL    HW163474   5.376  12.304   2.071  0.1239  0.2643  1.4601
18872SOL    HW263475   5.274  12.406   2.024  1.3282  0.9615  0.2885
18873SOL     OW63476   4.184  10.751   3.259 -1.2360 -0.2731 -0.0330
18873SOL    HW163477   4.225  10.666   3.244  0.5681  0.7350 -1.1671
18873SOL    HW263478   4.101  10.746   3.211 -1.1460 -1.3633 -0.1060
18874SOL     OW63479   5.204   6.913   5.240  0.2934 -0.2695 -0.0468
18874SOL    HW163480   5.288   6.871   5.259  0.4787  0.1897  0.1701
18874SOL    HW263481   5.139   6.845   5.254  0.5891 -0.4789  0.3231
18875SOL     OW63482  11.636   2.499   8.415  0.3068 -0.1502  1.1266
18875SOL    HW163483  11.628   2.496   8.510  0.6909 -0.9053  1.1480
18875SOL    HW263484  11.652   2.408   8.390 -3.1194 -0.5954  0.0160
18876SOL     OW63485  10.069   0.174   3.125  0.3109  0.2882 -0.0616
18876SOL    HW163486  10.143   0.234   3.135  0.7263  0.0878 -1.6567
18876SOL    HW263487  10.035   0.193   3.037 -1.2962  0.0968  0.4871
18877SOL     OW63488  10.762   0.993   8.373  0.1735 -0.5313  0.2430
18877SOL    HW163489  10.847   1.026   8.404 -0.5271  1.6670  0.0077
18877SOL    HW263490  10.752   1.032   8.286 -0.4901 -1.9099 -0.3307
18878SOL     OW63491  10.732   8.914   1.883 -0.4010 -0.0582  0.1920
18878SOL    HW163492  10.786   8.943   1.957 -1.4054  0.7254  0.6301
18878SOL    HW263493  10.663   8.980   1.875 -0.4810 -0.2696 -1.2777
18879SOL     OW63494  11.480   8.116   3.915  0.3696 -0.0324 -0.1789
18879SOL    HW163495  11.551   8.056   3.891  0.5969  0.4800 -0.8357
18879SOL    HW263496  11.509   8.157   3.996  0.2059 -0.8108  0.2829
18880SOL     OW63497   9.131  11.189   2.832 -0.3655 -0.0948 -0.0801
18880SOL    HW163498   9.173  11.166   2.749  0.5435  0.3718  0.2453
18880SOL    HW263499   9.097  11.106   2.866  0.7243 -0.5601 -0.1085
18881SOL     OW63500   2.638   0.558   2.777 -0.3339 -0.2369 -0.4193
18881SOL    HW163501   2.656   0.651   2.765  0.2208 -0.6307 -4.0043
18881SOL    HW263502   2.552   0.545   2.736 -1.7145 -0.9762  2.4338
18882SOL     OW63503  10.284   5.361   7.204 -0.5054 -0.1860  0.2797
18882SOL    HW163504  10.296   5.317   7.288 -0.4505 -0.9651 -0.1221
18882SOL    HW263505  10.337   5.310   7.143 -0.4247  0.4665 -0.1990
18883SOL     OW63506   2.460  12.289   8.833 -0.2839 -0.1657 -0.0113
18883SOL    HW163507   2.546  12.255   8.858  0.0936  1.1718  0.5812
18883SOL    HW263508   2.419  12.314   8.916 -1.3945 -1.0916 -0.2586
18884SOL     OW63509   3.064   1.193   3.311  0.6141  0.4219  0.0699
18884SOL    HW163510   3.074   1.119   3.371 -0.9073  0.0283 -0.1304
18884SOL    HW263511   3.058   1.270   3.369 -2.5073 -0.1036  0.6278
18885SOL     OW63512   5.251   3.264   4.794 -0.4942 -0.4102 -0.2065
18885SOL    HW163513   5.218   3.333   4.737 -1.1626 -0.2737  0.3367
18885SOL    HW263514   5.262   3.306   4.879  0.6513 -0.5730 -0.2580
18886SOL     OW63515  11.338   7.779   2.533  0.8993  0.1808  0.7948
18886SOL    HW163516  11.255   7.731   2.529  1.0264  0.0356 -0.7548
18886SOL    HW263517  11.329   7.835   2.610  0.0997 -1.1280  1.7113
18887SOL     OW63518   5.135   8.494   9.977  0.2929 -0.1121 -0.1954
18887SOL    HW163519   5.203   8.476   9.913  0.2728  1.7792 -0.8076
18887SOL    HW263520   5.173   8.560  10.035 -0.6479  0.1967  0.0951
18888SOL     OW63521   4.862  10.568   1.606  0.6576 -0.7978  0.2621
18888SOL    HW163522   4.817  10.488   1.580 -1.0104 -0.0376  0.6482
18888SOL    HW263523   4.951  10.540   1.628  1.1780 -2.0034 -2.8733
18889SOL     OW63524   4.962   4.603   7.070 -0.0323  0.1401 -0.0721
18889SOL    HW163525   4.961   4.617   6.976  2.2877  0.1161 -0.1630
18889SOL    HW263526   4.933   4.686   7.108  0.7260  0.7360 -0.7882
18890SOL     OW63527   8.422   6.841   1.019  0.5549 -0.0799 -0.0114
18890SOL    HW163528   8.338   6.886   1.025  1.0880  0.8601  0.5327
18890SOL    HW263529   8.484   6.908   0.990  1.2270 -0.6315  0.1078
18891SOL     OW63530   9.170   1.202   9.275  0.0861 -0.3597  0.4946
18891SOL    HW163531   9.228   1.127   9.284  1.5803  0.5666 -0.8873
18891SOL    HW263532   9.219   1.263   9.219 -2.6410  0.0326 -1.6724
18892SOL     OW63533   2.154   0.799  11.647  0.4513 -0.4210 -0.6569
18892SOL    HW163534   2.066   0.835  11.652  0.2082 -1.1429  1.0908
18892SOL    HW263535   2.149   0.733  11.578 -1.4064 -2.9298  1.6738
18893SOL     OW63536  10.100   9.727  11.656  0.1208  0.6092  0.1102
18893SOL    HW163537  10.137   9.650  11.698 -1.2292  1.0027  2.1596
18893SOL    HW263538  10.145   9.801  11.696  1.0910  0.9412 -1.5173
18894SOL     OW63539  11.630   7.183   4.293  0.1095 -0.4341 -0.2600
18894SOL    HW163540  11.592   7.203   4.207 -2.0429 -0.7567  0.5574
18894SOL    HW263541  11.570   7.120   4.332  0.3035  0.7085  2.0379
18895SOL     OW63542   2.199   6.903  11.488 -0.4435  0.2028 -0.0995
18895SOL    HW163543   2.189   6.986  11.442 -0.4889  0.3012  0.0837
18895SOL    HW263544   2.152   6.916  11.570 -1.0691 -0.2518 -0.3805
18896SOL     OW63545   4.693   6.846   3.286  0.2099 -0.3287 -0.4308
18896SOL    HW163546   4.741   6.817   3.209  0.2692  1.7639 -1.2562
18896SOL    HW263547   4.753   6.904   3.332 -1.1687  1.7666 -1.0981
18897SOL     OW63548   7.398   0.802   7.278 -0.2637  0.3447  0.1462
18897SOL    HW163549   7.405   0.719   7.325 -1.8395 -0.2801 -0.6507
18897SOL    HW263550   7.445   0.788   7.196  0.9428  0.8373  0.7316
18898SOL     OW63551  11.334   7.221   0.419 -0.0891  0.3470  0.4267
18898SOL    HW163552  11.334   7.248   0.327  0.6108  2.3447  0.9588
18898SOL    HW263553  11.426   7.217   0.443 -0.1915  3.3265  1.8944
18899SOL     OW63554  10.407  10.002   4.023  0.1786 -0.2043 -0.1760
18899SOL    HW163555  10.373   9.914   4.006 -1.5909  0.4110 -0.0715
18899SOL    HW263556  10.346  10.039   4.087  0.3110  1.4441 -0.9407
18900SOL     OW63557   6.631   3.575  10.738  0.7459 -0.7238 -0.2099
18900SOL    HW163558   6.714   3.589  10.692  0.1931  1.6091 -0.6503
18900SOL    HW263559   6.566   3.567  10.669  0.1436  1.1298  0.0695
18901SOL     OW63560   1.048   6.217   9.415  0.1728  0.1739  0.1078
18901SOL    HW163561   1.053   6.280   9.486  2.1026 -1.2836  1.3485
18901SOL    HW263562   1.139   6.198   9.392 -0.3118 -2.1895 -0.1479
18902SOL     OW63563   4.934  10.610   7.969  0.0032  0.8308  0.1164
18902SOL    HW163564   4.847  10.625   7.930 -0.0900 -0.1044 -0.0580
18902SOL    HW263565   4.974  10.544   7.914  0.5434  0.7172  0.6358
18903SOL     OW63566   2.402   3.482   1.219 -0.6041 -0.1434  0.2200
18903SOL    HW163567   2.313   3.500   1.250 -0.5962  0.8008 -0.2520
18903SOL    HW263568   2.391   3.410   1.157 -1.0131 -0.1763  0.3247
18904SOL     OW63569  10.093  11.891   3.660  0.3307 -0.6320 -0.5627
18904SOL    HW163570  10.101  11.927   3.749  2.1374 -2.3748  0.0496
18904SOL    HW263571  10.018  11.937   3.623  2.0064  3.2906  0.3440
18905SOL     OW63572   6.598   6.337  11.906  0.5541  0.3998 -0.0133
18905SOL    HW163573   6.535   6.409  11.910 -0.4253 -0.4344  0.0562
18905SOL    HW263574   6.665   6.361  11.970 -0.0335  0.9907  0.3969
18906SOL     OW63575   2.727   9.105   7.501 -0.0127  0.1558 -0.7343
18906SOL    HW163576   2.747   9.065   7.585 -1.1590  1.8379  0.3881
18906SOL    HW263577   2.652   9.162   7.518  0.1745  1.0858 -2.7221
18907SOL     OW63578   3.027   9.580  10.396 -0.2111  0.1062 -0.2655
18907SOL    HW163579   3.008   9.568  10.489 -0.8051  0.3431 -0.3538
18907SOL    HW263580   3.005   9.495  10.356 -1.6647  0.5351 -0.4505
18908SOL     OW63581   2.802   3.825   6.715  0.4186  0.4537  0.1338
18908SOL    HW163582   2.735   3.772   6.758  1.4788 -1.7755 -0.7555
18908SOL    HW263583   2.761   3.854   6.633 -0.0590  0.7177  0.4635
18909SOL     OW63584  11.604   4.827   3.280  0.1323  0.4586 -0.2988
18909SOL    HW163585  11.563   4.913   3.275 -0.6508  0.0768 -0.4841
18909SOL    HW263586  11.611   4.809   3.374  1.1723  1.1273 -0.2326
18910SOL     OW63587   3.729  11.924  10.262  0.2657  0.3396  0.4789
18910SOL    HW163588   3.806  11.975  10.237 -0.6422  1.3847 -0.2692
18910SOL    HW263589   3.761  11.864  10.329  1.9627  0.0107 -0.5704
18911SOL     OW63590   7.073   3.318   1.860  0.5744  0.2538 -0.3853
18911SOL    HW163591   7.131   3.332   1.936 -0.1763 -0.0897  0.2627
18911SOL    HW263592   7.061   3.224   1.857 -0.8445  0.4014  0.1705
18912SOL     OW63593   6.075  12.004   3.790 -0.1322 -0.1342  0.6738
18912SOL    HW163594   6.098  12.081   3.739 -0.6110  1.3682  2.6082
18912SOL    HW263595   6.151  11.946   3.784  0.5184  0.7994 -0.2277
18913SOL     OW63596   9.475   4.734   5.139 -0.0653 -0.1932 -0.1360
18913SOL    HW163597   9.536   4.790   5.091  1.7275 -1.2688  0.7767
18913SOL    HW263598   9.426   4.794   5.195  2.3847  0.5215  1.4363
18914SOL     OW63599   7.597   6.716   8.548 -0.4517 -0.1533 -0.6990
18914SOL    HW163600   7.690   6.702   8.531  0.4117  0.2556  2.9082
18914SOL    HW263601   7.578   6.662   8.625 -2.9122  0.6396 -0.6521
18915SOL     OW63602   5.972   5.955   3.434  0.2689 -0.0177  0.3454
18915SOL    HW163603   5.987   6.049   3.425  1.8639 -0.1010  1.7985
18915SOL    HW263604   6.010   5.916   3.355  0.0497  0.5067 -0.0194
18916SOL     OW63605   5.515   0.029   1.695 -0.0519  0.6352  0.0518
18916SOL    HW163606   5.530  -0.027   1.771 -0.3772  0.9228  0.3310
18916SOL    HW263607   5.584   0.095   1.699  0.6993 -0.0895 -0.6136
18917SOL     OW63608  11.589  11.252  12.463  0.0320  0.4129 -0.2143
18917SOL    HW163609  11.534  11.292  12.530  0.3782 -0.8729  0.8841
18917SOL    HW263610  11.528  11.213  12.401 -0.2893  1.4987 -0.5982
18918SOL     OW63611   6.662   5.011   2.316 -0.3692  0.0876  0.8056
18918SOL    HW163612   6.744   4.982   2.275 -0.2916 -0.7842  1.5326
18918SOL    HW263613   6.600   5.017   2.243  0.5259  1.5625  0.1175
18919SOL     OW63614   8.877   9.285  10.584 -0.6424  0.1711 -0.3568
18919SOL    HW163615   8.932   9.292  10.506 -1.5404  0.7413 -0.9629
18919SOL    HW263616   8.938   9.285  10.657  0.1025  3.9683 -0.7959
18920SOL     OW63617   7.652   2.230   0.762 -0.1486 -0.8200 -0.1996
18920SOL    HW163618   7.657   2.182   0.845 -0.2888  0.4194  0.5432
18920SOL    HW263619   7.608   2.312   0.784  0.0393 -0.3607 -1.4606
18921SOL     OW63620   7.089   9.662   1.344 -0.0635  0.2660  0.2371
18921SOL    HW163621   7.054   9.586   1.296 -0.3232 -0.3906  1.4388
18921SOL    HW263622   7.183   9.648   1.346  0.0359  0.7037 -0.7449
18922SOL     OW63623   2.865   8.928  11.659 -0.2991 -0.4994  0.0910
18922SOL    HW163624   2.922   8.851  11.656 -0.8319 -0.8755 -0.7691
18922SOL    HW263625   2.903   8.983  11.727  1.2700 -0.6070 -0.6531
18923SOL     OW63626   4.863   2.839   7.314  0.0507 -0.2585  0.3352
18923SOL    HW163627   4.927   2.798   7.372  0.4705  0.6678  0.5477
18923SOL    HW263628   4.880   2.933   7.322  0.5559 -0.1129 -1.7684
18924SOL     OW63629  10.750  11.155   1.504 -0.4707 -0.4205  0.0849
18924SOL    HW163630  10.784  11.066   1.508  0.0705 -0.2100  0.2658
18924SOL    HW263631  10.655  11.145   1.512 -0.6688 -1.1856 -2.3251
18925SOL     OW63632  11.166   6.070  11.259  0.2054  0.2719  0.4302
18925SOL    HW163633  11.172   6.125  11.337 -1.1254  1.7848 -0.4949
18925SOL    HW263634  11.114   5.994  11.288  0.2048  0.5388  1.1553
18926SOL     OW63635  11.070   3.868   1.558 -0.3576 -0.5946 -0.3429
18926SOL    HW163636  10.986   3.823   1.559 -0.3260 -0.6525 -0.2456
18926SOL    HW263637  11.127   3.814   1.612 -0.6282  0.1710  0.7278
18927SOL     OW63638  11.198   6.386   2.889  0.1010  0.2206  0.2761
18927SOL    HW163639  11.178   6.320   2.823 -0.7796 -1.9060  2.4990
18927SOL    HW263640  11.291   6.372   2.909 -0.0917 -0.4054  0.7651
18928SOL     OW63641   2.377   8.040   3.702 -0.3530 -0.0263  0.1047
18928SOL    HW163642   2.422   8.103   3.758 -1.7482  0.0393  1.2117
18928SOL    HW263643   2.285   8.065   3.707 -0.5346 -0.0200 -2.2666
18929SOL     OW63644   7.430   9.808  11.772 -0.5944 -0.5176 -0.4041
18929SOL    HW163645   7.458   9.798  11.862  0.2800 -1.5671 -0.7691
18929SOL    HW263646   7.339   9.778  11.772 -0.5065 -0.7989  0.0806
18930SOL     OW63647   9.283   5.207   6.759 -0.1380  0.4978  0.1387
18930SOL    HW163648   9.355   5.180   6.816 -0.0291 -0.0647 -0.2484
18930SOL    HW263649   9.312   5.289   6.721 -0.5531  1.3078  1.4971
18931SOL     OW63650   1.930   7.818   6.567 -0.3573  0.5962 -0.2386
18931SOL    HW163651   1.907   7.750   6.503  2.3090 -1.3616  0.6977
18931SOL    HW263652   1.877   7.797   6.644 -0.6752  0.5158 -0.4789
18932SOL     OW63653   5.964   7.628   1.210 -0.0064  0.1930  0.6217
18932SOL    HW163654   5.903   7.565   1.249 -1.3998  1.9680  1.4633
18932SOL    HW263655   6.046   7.580   1.202 -0.3122 -1.0229  3.5267
18933SOL     OW63656   2.480   2.841   1.088  0.1542  0.2727 -0.5420
18933SOL    HW163657   2.513   2.834   0.999 -0.3842 -0.7794 -0.6797
18933SOL    HW263658   2.544   2.794   1.141  0.8794  1.5568 -0.2472
18934SOL     OW63659   3.459   4.805   1.528 -0.2602  0.1769  0.2439
18934SOL    HW163660   3.548   4.770   1.538 -0.6470 -0.8500  0.2016
18934SOL    HW263661   3.419   4.793   1.615 -0.7501 -0.4901 -0.0722
18935SOL     OW63662   0.952   6.141   1.481  0.4133  0.1548  0.2533
18935SOL    HW163663   0.863   6.133   1.515  0.6057  0.7009  0.9110
18935SOL    HW263664   1.002   6.179   1.553  1.0792  0.2870 -0.2653
18936SOL     OW63665   3.854   9.991   6.795  0.1140  0.1534  0.5597
18936SOL    HW163666   3.800  10.022   6.868 -1.5314  0.7569 -0.8783
18936SOL    HW263667   3.844   9.896   6.797  1.1855  0.0314  1.9170
18937SOL     OW63668   4.411   2.784   0.174  0.1891 -0.4130  0.7222
18937SOL    HW163669   4.483   2.737   0.131  0.0135 -0.5267  0.5490
18937SOL    HW263670   4.434   2.783   0.267  0.0012 -1.1932  0.7710
18938SOL     OW63671   7.394   4.887  11.736  0.5894  0.0861  0.0446
18938SOL    HW163672   7.442   4.814  11.696 -0.8424  0.3722 -2.4538
18938SOL    HW263673   7.384   4.862  11.828  1.7849 -1.9631 -0.3216
18939SOL     OW63674   0.085   3.188   8.350 -0.2595  0.7078 -0.8979
18939SOL    HW163675   0.165   3.136   8.342 -0.8385 -0.2280 -0.8329
18939SOL    HW263676   0.082   3.241   8.271  1.0748  1.7101 -0.3051
18940SOL     OW63677   9.532   0.462   4.964 -0.7972 -0.1482 -0.1339
18940SOL    HW163678   9.577   0.393   4.918 -1.5724 -0.6464 -0.1670
18940SOL    HW263679   9.541   0.539   4.908  0.2672 -0.1489  0.0149
18941SOL     OW63680  10.181   1.306   4.775 -0.1657 -0.0443  0.5804
18941SOL    HW163681  10.244   1.277   4.709  0.2672 -1.2540  1.4865
18941SOL    HW263682  10.144   1.387   4.739  0.5885 -0.2776 -0.7940
18942SOL     OW63683  12.374  11.916   4.164 -0.1176  0.5555 -0.2556
18942SOL    HW163684  12.460  11.874   4.172 -1.0025 -1.5831 -1.1125
18942SOL    HW263685  12.352  11.907   4.071 -0.2246  3.3753 -0.5834
18943SOL     OW63686   4.253  10.687   3.901 -0.0499  0.1521 -0.5484
18943SOL    HW163687   4.264  10.616   3.965  0.6250  1.7415  1.1742
18943SOL    HW263688   4.342  10.715   3.881 -0.3286  2.5016  1.1680
18944SOL     OW63689  10.286   6.688   9.328 -0.6531  0.4781 -0.0436
18944SOL    HW163690  10.332   6.750   9.385 -1.8053  1.3572 -0.0467
18944SOL    HW263691  10.348   6.672   9.256  1.1257 -1.2035  1.7067
18945SOL     OW63692   1.633   9.995  12.319 -0.9379 -0.3298  0.3441
18945SOL    HW163693   1.551  10.045  12.314 -0.9858 -0.4927 -0.9444
18945SOL    HW263694   1.638   9.951  12.234  0.2496 -0.7099  0.6041
18946SOL     OW63695   3.542   2.192   1.758  0.3134 -0.2789 -0.2330
18946SOL    HW163696   3.596   2.222   1.831  1.0323 -0.0313 -0.8488
18946SOL    HW263697   3.547   2.096   1.763  3.3926 -0.3738 -2.0254
18947SOL     OW63698   2.776   1.080   4.594  0.2425  0.7625 -0.4507
18947SOL    HW163699   2.761   1.140   4.520 -1.7210  2.1044  0.9380
18947SOL    HW263700   2.693   1.035   4.605  0.8813 -0.2848  0.2532
18948SOL     OW63701  11.437   2.055  11.506 -0.5371  0.2361  0.7711
18948SOL    HW163702  11.512   2.053  11.565  0.1634 -3.2143 -0.0061
18948SOL    HW263703  11.463   1.998  11.433 -2.7380  1.4851 -1.1231
18949SOL     OW63704   5.016   9.090   0.372 -0.3991 -1.2907  0.3200
18949SOL    HW163705   5.058   9.174   0.355  0.1809 -1.8057 -0.8590
18949SOL    HW263706   4.985   9.061   0.287 -0.1480 -2.5109  0.6262
18950SOL     OW63707   9.151   3.555   9.885  0.3893 -0.1175 -0.4518
18950SOL    HW163708   9.182   3.569   9.796 -0.9809  0.4021 -0.8663
18950SOL    HW263709   9.134   3.461   9.890  0.5557 -0.1604 -0.7048
18951SOL     OW63710   5.386  10.573  10.914 -0.4298 -0.0394  0.1083
18951SOL    HW163711   5.330  10.557  10.990 -0.6166  1.6318  0.3582
18951SOL    HW263712   5.327  10.609  10.849  0.1065  0.4211 -0.1272
18952SOL     OW63713   6.544  11.510   9.110 -0.0511  0.0997  0.1736
18952SOL    HW163714   6.549  11.605   9.101  0.3283  0.0678  0.0300
18952SOL    HW263715   6.633  11.484   9.136 -0.1570 -0.2141  0.2222
18953SOL     OW63716   1.460   1.038   4.635 -0.2087 -0.0852 -0.4757
18953SOL    HW163717   1.396   1.005   4.697 -0.3396 -0.8605 -1.0094
18953SOL    HW263718   1.540   1.051   4.686 -0.4822 -0.1525 -0.0333
18954SOL     OW63719   7.679   8.601   4.228  0.1777 -0.1037 -0.0293
18954SOL    HW163720   7.760   8.649   4.215 -0.1001  1.2306  2.5908
18954SOL    HW263721   7.621   8.633   4.158  0.8549  1.4002  0.0715
18955SOL     OW63722  11.367  11.583  11.857 -0.1536  0.6833  0.5745
18955SOL    HW163723  11.349  11.670  11.893 -0.5406  0.7720  0.1771
18955SOL    HW263724  11.286  11.560  11.811 -0.3034 -0.1785  1.2500
18956SOL     OW63725   2.482   5.631   3.327 -0.4909  0.2847  0.4985
18956SOL    HW163726   2.505   5.549   3.371 -0.2939  0.0798  0.0226
18956SOL    HW263727   2.448   5.603   3.242  2.6019  0.7786 -1.0602
18957SOL     OW63728   5.649   8.846   4.578 -0.1220 -0.0358 -0.1427
18957SOL    HW163729   5.681   8.763   4.544  0.0759 -0.1998  0.4380
18957SOL    HW263730   5.560   8.827   4.609  0.1395 -0.1845  0.5427
18958SOL     OW63731   6.010   3.194   9.029 -0.3219  0.1657 -0.3440
18958SOL    HW163732   6.080   3.253   9.056 -1.0091  0.3032  1.2739
18958SOL    HW263733   5.931   3.250   9.029 -0.9718 -0.7014  1.1581
18959SOL     OW63734   1.105   0.145  11.068 -0.1665 -0.0302  0.5242
18959SOL    HW163735   1.130   0.183  10.983 -0.9684  0.1729  0.3689
18959SOL    HW263736   1.140   0.205  11.133  1.5653 -0.8490  0.3957
18960SOL     OW63737   6.615  10.093   4.686 -0.5423 -0.0432  0.4957
18960SOL    HW163738   6.705  10.119   4.705 -0.7746  0.8740  0.4153
18960SOL    HW263739   6.562  10.147   4.745 -1.1717  1.4794 -1.3446
18961SOL     OW63740   5.278   6.018  10.000 -0.1814 -0.0217 -0.1260
18961SOL    HW163741   5.209   6.011  10.067 -1.2481  0.5504 -1.1272
18961SOL    HW263742   5.336   5.945  10.018  0.4911  1.0197  2.4326
18962SOL     OW63743   9.408   9.108   4.154  0.0096  0.3383  0.1844
18962SOL    HW163744   9.422   9.043   4.223 -0.1991  1.8489  1.7453
18962SOL    HW263745   9.494   9.122   4.116  0.2042 -0.2557  0.4001
18963SOL     OW63746   9.750   6.905   2.759 -0.9305 -0.1891 -0.1000
18963SOL    HW163747   9.683   6.844   2.730 -1.8185  1.3679 -1.4872
18963SOL    HW263748   9.702   6.981   2.791  0.1053  1.3568 -1.9953
18964SOL     OW63749   9.978  10.553   5.933  0.3483  0.0704 -0.0122
18964SOL    HW163750  10.054  10.536   5.877  0.0605  1.3997 -0.8522
18964SOL    HW263751  10.003  10.630   5.985 -0.2677  0.2578  0.0108
18965SOL     OW63752   5.518  11.801   4.176  0.1427  0.0932  0.2374
18965SOL    HW163753   5.545  11.775   4.088  0.5487  1.0286  0.0710
18965SOL    HW263754   5.525  11.721   4.228  0.3963 -0.3531 -0.4704
18966SOL     OW63755   0.478   1.627   9.938  0.7137  0.6663 -0.1969
18966SOL    HW163756   0.435   1.631  10.023  2.5974  1.5837  0.7757
18966SOL    HW263757   0.423   1.569   9.885 -0.1974 -0.4036  1.8233
18967SOL     OW63758   2.230   2.333   5.924  0.4123 -0.0981 -0.0855
18967SOL    HW163759   2.135   2.332   5.915  0.2707 -0.0442  1.1647
18967SOL    HW263760   2.253   2.426   5.928  0.1361 -0.0625  2.6492
18968SOL     OW63761  11.168   0.986   2.602  0.4423  0.3485  0.1781
18968SOL    HW163762  11.262   0.975   2.609  0.1259 -2.1655  1.4180
18968SOL    HW263763  11.149   0.974   2.509  1.1001 -1.9181  0.2922
18969SOL     OW63764  11.185   9.500   9.406 -0.2733  0.9299 -0.4856
18969SOL    HW163765  11.133   9.528   9.480 -1.5881  1.6170 -1.6300
18969SOL    HW263766  11.164   9.562   9.336  1.5848  0.8331 -1.1995
18970SOL     OW63767   4.604   9.406   6.695 -0.3337 -0.4875 -0.1447
18970SOL    HW163768   4.679   9.359   6.730 -0.5088 -0.2971  0.4955
18970SOL    HW263769   4.542   9.338   6.670 -1.2985 -0.6191  2.3323
18971SOL     OW63770   6.667  12.502   0.058  0.0168  0.5980 -0.7280
18971SOL    HW163771   6.647  12.594   0.076 -1.6285  0.3585 -1.1712
18971SOL    HW263772   6.618  12.453   0.124  0.5965  0.0149 -0.7161
18972SOL     OW63773  12.495   4.026   6.084  0.0990  0.3606 -0.1975
18972SOL    HW163774  12.505   4.003   6.177 -0.7212  0.7842  0.0108
18972SOL    HW263775  12.401   4.045   6.075  0.2707  0.8426 -0.9975
18973SOL     OW63776   0.145  11.524   3.203 -0.0667 -0.3078 -0.3767
18973SOL    HW163777   0.210  11.523   3.273 -1.5613 -1.8165  1.0939
18973SOL    HW263778   0.193  11.551   3.125  1.8906  0.3799  1.0083
18974SOL     OW63779  12.103   9.931  10.030 -0.3090 -0.0001  0.1196
18974SOL    HW163780  12.134   9.904  10.117  1.2233 -1.1647 -0.7477
18974SOL    HW263781  12.169   9.898   9.970 -1.0051  1.3687 -1.4601
18975SOL     OW63782  11.849   6.629  12.471  0.5374  0.4002 -0.3808
18975SOL    HW163783  11.778   6.621  12.407  0.4637 -0.1874 -0.2300
18975SOL    HW263784  11.853   6.543  12.513 -0.2522  1.1213  1.2875
18976SOL     OW63785   6.181   7.250   2.372 -0.7675 -0.1547 -0.0462
18976SOL    HW163786   6.143   7.224   2.456 -1.5426  0.2256 -0.2726
18976SOL    HW263787   6.266   7.288   2.395 -0.5894 -0.8397  0.4808
18977SOL     OW63788   1.021   4.654   9.400 -0.6634  0.4225  0.1494
18977SOL    HW163789   1.101   4.670   9.349 -0.7901 -1.0028 -0.5325
18977SOL    HW263790   1.052   4.638   9.489 -0.1164 -0.6249 -0.2107
18978SOL     OW63791   9.574   0.276   5.157  0.6780 -0.1066 -0.4726
18978SOL    HW163792   9.663   0.251   5.132  1.3343  0.6520  0.9766
18978SOL    HW263793   9.556   0.356   5.108  2.2032  1.7418  1.7895
18979SOL     OW63794   3.157   1.368  12.308  0.1014  0.3592  0.4636
18979SOL    HW163795   3.070   1.387  12.341  0.4679  2.0026  0.5696
18979SOL    HW263796   3.213   1.369  12.385  0.3693  0.3080  0.2734
18980SOL     OW63797  11.854   8.038   6.706 -0.3551  0.2658  0.3643
18980SOL    HW163798  11.920   8.093   6.749 -0.8600  0.6659  0.6468
18980SOL    HW263799  11.865   8.054   6.613  0.6969 -0.5415  0.3337
18981SOL     OW63800   4.029   4.776   6.098 -0.1590 -0.0378  0.6199
18981SOL    HW163801   3.980   4.806   6.021 -0.5675 -1.1449  0.4210
18981SOL    HW263802   3.981   4.699   6.128  1.5907 -1.3288  0.2621
18982SOL     OW63803   0.574   7.602   9.396 -0.1955 -0.0977 -0.1223
18982SOL    HW163804   0.499   7.613   9.337  0.5334  0.0059 -1.0676
18982SOL    HW263805   0.639   7.663   9.362 -0.6011  1.7956  2.3056
18983SOL     OW63806   2.923   9.955   1.804 -0.8878  0.4973  0.0892
18983SOL    HW163807   2.913   9.925   1.895  0.1638 -3.5889 -0.9390
18983SOL    HW263808   2.838   9.936   1.764 -0.3031 -1.0442 -0.5042
18984SOL     OW63809   1.024  11.248   2.517  0.1208 -0.2283  0.3985
18984SOL    HW163810   1.099  11.236   2.575  0.2007  0.1695  0.3844
18984SOL    HW263811   1.061  11.284   2.437 -0.0309 -0.4536  0.2284
18985SOL     OW63812   9.040   4.933   1.826 -0.1146 -0.5837  0.2355
18985SOL    HW163813   9.134   4.938   1.814 -0.3369  0.6231 -1.3053
18985SOL    HW263814   9.020   4.839   1.823  0.9273 -0.7982 -0.2336
18986SOL     OW63815   3.018  10.402   2.738 -0.0075 -0.4926 -0.0235
18986SOL    HW163816   2.983  10.346   2.668 -0.5899 -0.5143  0.2838
18986SOL    HW263817   3.051  10.340   2.803  2.0514 -0.4996 -0.9891
18987SOL     OW63818   6.995   4.420   6.646 -0.1694  0.7068  0.1231
18987SOL    HW163819   7.025   4.470   6.570  1.6776 -0.4145  0.0610
18987SOL    HW263820   7.075   4.405   6.697 -0.4730 -2.7735 -0.2242
18988SOL     OW63821   7.929  10.426   6.342  0.2641 -0.2670  0.0124
18988SOL    HW163822   7.986  10.449   6.269 -0.2543 -1.2686 -0.7300
18988SOL    HW263823   7.841  10.450   6.313  0.2579  1.0965  1.0771
18989SOL     OW63824   9.794   7.860  11.233 -0.3697 -0.4221 -0.2964
18989SOL    HW163825   9.837   7.802  11.296 -0.9613  0.5395  1.0489
18989SOL    HW263826   9.817   7.948  11.263 -1.7213  0.0762 -0.6415
18990SOL     OW63827  10.915   2.045   4.633 -0.2667 -0.3344 -0.0326
18990SOL    HW163828  10.820   2.042   4.620 -0.3255  0.7406  0.0678
18990SOL    HW263829  10.928   2.111   4.701  0.5191 -0.8679  0.3480
18991SOL     OW63830   4.895  11.435   1.469  0.0037 -0.2181  0.3351
18991SOL    HW163831   4.983  11.413   1.499  0.1380  0.6948  0.6235
18991SOL    HW263832   4.859  11.490   1.538  0.0356  1.2654 -0.7757
18992SOL     OW63833  10.301   5.385  10.001  0.4063 -0.2061 -0.5460
18992SOL    HW163834  10.362   5.404   9.929  1.7107 -0.2537  0.5082
18992SOL    HW263835  10.341   5.311  10.047 -0.7460 -0.5964 -0.1366
18993SOL     OW63836   2.900   2.318   2.991 -0.3818 -0.3333 -0.3634
18993SOL    HW163837   2.839   2.311   2.918  1.3510 -0.7662 -1.8321
18993SOL    HW263838   2.935   2.229   3.002  0.5558  0.0590 -0.0831
18994SOL     OW63839   0.017   3.114   4.363 -0.5749 -0.0113  0.2451
18994SOL    HW163840   0.013   3.020   4.383 -1.7807 -0.1976 -0.7453
18994SOL    HW263841   0.037   3.117   4.270 -0.3119  0.7381  0.3224
18995SOL     OW63842   9.733   1.949   3.926  0.3795 -0.4008 -0.6862
18995SOL    HW163843   9.764   1.870   3.883  0.2639  0.4640 -2.4553
18995SOL    HW263844   9.812   2.002   3.938  0.1528  0.1536 -1.5888
18996SOL     OW63845   5.098   6.167  11.864 -0.2620  0.3451 -0.1635
18996SOL    HW163846   5.052   6.182  11.946 -0.4857  0.9049 -0.3888
18996SOL    HW263847   5.041   6.204  11.797  0.6763  1.3873 -0.4161
18997SOL     OW63848   0.428   2.936   7.182  0.4641 -0.0136 -0.2726
18997SOL    HW163849   0.460   2.901   7.266 -0.0731  0.1024 -0.0150
18997SOL    HW263850   0.347   2.982   7.205  0.8000  0.8163 -0.7186
18998SOL     OW63851   8.119   9.101   8.264 -0.4672  0.2257 -0.2211
18998SOL    HW163852   8.120   9.081   8.358  0.2132  0.4601 -0.1709
18998SOL    HW263853   8.029   9.126   8.246 -0.8909 -1.0084  0.1155
18999SOL     OW63854   5.720   8.262   2.302  0.2581 -0.2638  0.0699
18999SOL    HW163855   5.660   8.248   2.375  0.1847  0.9884  0.2736
18999SOL    HW263856   5.721   8.179   2.255  0.5709 -1.2040  1.6762
19000SOL     OW63857   5.702  11.023  12.139 -0.4017  0.0455  0.4106
19000SOL    HW163858   5.693  11.032  12.044 -2.0220 -0.7666  0.4442
19000SOL    HW263859   5.650  11.096  12.174 -1.4190 -0.7544  0.6404
19001SOL     OW63860   3.076  12.568   2.712  0.8187 -0.1130 -0.4529
19001SOL    HW163861   3.003  12.609   2.666  1.8081  1.5761 -0.6043
19001SOL    HW263862   3.082  12.480   2.673 -3.2728 -1.7809  1.9882
19002SOL     OW63863   0.813   0.776   5.816 -0.0277  0.1465  0.2211
19002SOL    HW163864   0.900   0.805   5.788 -0.0330 -1.0334 -1.1072
19002SOL    HW263865   0.756   0.852   5.802  0.3662  0.2139 -1.0993
19003SOL     OW63866   3.435  11.911   5.714  0.0401  0.0583 -0.1858
19003SOL    HW163867   3.521  11.951   5.704 -1.1572  3.4358  1.5683
19003SOL    HW263868   3.409  11.932   5.804 -2.0985 -2.0492 -0.2212
19004SOL     OW63869   4.410   9.660   4.154 -0.1064 -0.0931  0.9902
19004SOL    HW163870   4.429   9.639   4.063 -1.9052  0.1727  0.5125
19004SOL    HW263871   4.425   9.754   4.161  0.5442 -0.2041  1.1120
19005SOL     OW63872   2.842  11.748  11.536 -0.2641 -0.0707  0.3818
19005SOL    HW163873   2.922  11.801  11.534 -0.0567 -0.3313  1.4579
19005SOL    HW263874   2.831  11.719  11.445  0.4220  0.6179  0.0687
19006SOL     OW63875   9.351   5.894   4.387 -0.2088  0.0331  0.0931
19006SOL    HW163876   9.393   5.977   4.363  1.0332  0.1929  2.5341
19006SOL    HW263877   9.370   5.835   4.314  2.2029  0.8113  0.0155
19007SOL     OW63878  11.863   8.769   3.541 -1.1442 -0.1221  0.1677
19007SOL    HW163879  11.794   8.830   3.514 -1.1294  0.0305  0.4784
19007SOL    HW263880  11.909   8.815   3.611 -0.1533  0.1608 -0.6422
19008SOL     OW63881   9.122   8.536   2.627  0.0676 -0.3986 -0.0793
19008SOL    HW163882   9.064   8.611   2.622 -0.3331 -0.7392 -0.5983
19008SOL    HW263883   9.210   8.572   2.614 -0.0932  0.0116 -0.0384
19009SOL     OW63884   4.854  10.280   5.402 -0.2726 -0.2076 -0.2816
19009SOL    HW163885   4.802  10.346   5.448  1.0934  1.1016 -0.5689
19009SOL    HW263886   4.810  10.269   5.318 -1.2981 -0.7153  0.2986
19010SOL     OW63887   7.136   9.475   2.710  0.1898 -0.0085  0.1038
19010SOL    HW163888   7.221   9.432   2.725 -0.5435 -1.4785  0.1619
19010SOL    HW263889   7.141   9.507   2.620  0.7511 -0.1926  0.0642
19011SOL     OW63890   6.669   8.195   5.500 -0.0157  0.2380 -0.3472
19011SOL    HW163891   6.759   8.179   5.472 -0.9608 -0.9037 -3.1920
19011SOL    HW263892   6.643   8.114   5.544  0.1037  0.2513 -0.2532
19012SOL     OW63893   8.435   9.655   3.804 -0.2007  0.5584  0.1413
19012SOL    HW163894   8.513   9.606   3.828  0.8167  1.6850 -0.7751
19012SOL    HW263895   8.363   9.592   3.814  0.8632 -0.6036  0.6260
19013SOL     OW63896  10.616   6.501   1.415  0.1911 -0.0813 -0.6163
19013SOL    HW163897  10.579   6.557   1.347 -1.6868 -0.7182 -0.1898
19013SOL    HW263898  10.592   6.545   1.497  1.5739  0.1723 -0.3356
19014SOL     OW63899   2.470   4.848  12.404 -0.2603  0.3665  0.4296
19014SOL    HW163900   2.466   4.908  12.478  0.6563  0.3246  0.5202
19014SOL    HW263901   2.562   4.846  12.378 -0.2414 -1.0551  0.4846
19015SOL     OW63902   5.813   4.930   2.897  0.1559 -0.0335 -0.3309
19015SOL    HW163903   5.834   4.893   2.811 -0.2728 -0.1673 -0.3805
19015SOL    HW263904   5.824   5.024   2.886  0.0274 -0.0435 -0.5541
19016SOL     OW63905  12.486   9.825  11.916  0.6506  0.5876  0.0372
19016SOL    HW163906  12.476   9.746  11.969  1.8028 -0.4935 -1.2708
19016SOL    HW263907  12.573   9.858  11.938  0.9322  0.4173 -0.7722
19017SOL     OW63908   3.230  11.302   1.307  0.2641 -0.0816 -0.5608
19017SOL    HW163909   3.304  11.260   1.350  0.3492 -1.2191 -1.7326
19017SOL    HW263910   3.262  11.388   1.282  0.6728  0.0279  0.3424
19018SOL     OW63911   2.692  10.793  10.077 -0.4618 -0.3230  0.4103
19018SOL    HW163912   2.762  10.854  10.057 -1.3833  0.5585 -0.2428
19018SOL    HW263913   2.643  10.836  10.148 -0.5736 -0.7378  0.5878
19019SOL     OW63914  11.522   5.309  10.233  0.0223 -0.0067 -0.2374
19019SOL    HW163915  11.550   5.382  10.179 -0.7380  0.9557  0.6294
19019SOL    HW263916  11.436   5.286  10.200 -0.0465 -0.0304 -0.0433
19020SOL     OW63917   8.875   4.851   7.445 -0.6722  0.2424 -0.6759
19020SOL    HW163918   8.895   4.759   7.466 -0.1274  0.2314 -1.2236
19020SOL    HW263919   8.783   4.861   7.471 -0.8486 -0.5621 -0.9464
19021SOL     OW63920   5.937  10.556   4.553 -0.2723  0.1480 -0.1727
19021SOL    HW163921   5.971  10.516   4.632  0.8041  0.4692 -0.4647
19021SOL    HW263922   5.851  10.515   4.541 -0.2053 -0.3185  0.8317
19022SOL     OW63923   2.965   3.793   9.728 -0.0294 -0.3345  0.2749
19022SOL    HW163924   2.995   3.879   9.759 -2.0891  0.4885  0.1109
19022SOL    HW263925   3.045   3.750   9.697  1.3456  0.7689  2.0675
19023SOL     OW63926   1.360  11.801   1.457 -0.5930 -0.0593  0.5101
19023SOL    HW163927   1.435  11.745   1.435  0.5071  1.0463  1.2633
19023SOL    HW263928   1.379  11.884   1.413 -2.4268 -0.3713 -0.9819
19024SOL     OW63929   2.720   8.635   9.444 -0.0439 -0.0781 -0.3897
19024SOL    HW163930   2.695   8.720   9.482  0.3681  0.0630 -0.4325
19024SOL    HW263931   2.671   8.631   9.361  0.4010  0.3912 -0.6836
19025SOL     OW63932   1.603  12.195  10.451  0.1535 -0.0888 -0.3261
19025SOL    HW163933   1.696  12.218  10.450  0.1458  0.1817  1.4222
19025SOL    HW263934   1.601  12.100  10.456  0.3259 -0.1238 -0.9507
19026SOL     OW63935  11.581   1.971   9.417  0.0865 -0.1377  0.6359
19026SOL    HW163936  11.580   1.891   9.365 -0.3196  0.4769 -0.3275
19026SOL    HW263937  11.622   2.036   9.360 -0.4658  0.5789  1.0382
19027SOL     OW63938   0.645  12.547  11.130  0.4710 -0.5032  0.2424
19027SOL    HW163939   0.656  12.620  11.191  3.6840 -0.6348 -0.0337
19027SOL    HW263940   0.622  12.473  11.185 -0.1815  0.1150  0.8292
19028SOL     OW63941   8.598  11.701   1.754  0.0962 -0.5917 -0.2328
19028SOL    HW163942   8.613  11.791   1.723 -0.7727 -1.0144 -2.0123
19028SOL    HW263943   8.502  11.692   1.755  0.1716 -1.4510  0.0630
19029SOL     OW63944   4.444   4.826  10.629  0.0529  0.5775  0.3048
19029SOL    HW163945   4.419   4.749  10.578  1.6793 -0.3344  0.7901
19029SOL    HW263946   4.535   4.809  10.654 -0.4238  1.3165  2.8675
19030SOL     OW63947   4.252  12.074   3.799  0.0309  0.4746 -0.3494
19030SOL    HW163948   4.271  11.981   3.788 -0.9969  0.3881 -1.5975
19030SOL    HW263949   4.313  12.118   3.739  1.7694  0.7852  1.5237
19031SOL     OW63950   5.019   5.652   2.465  0.3064 -0.0649 -0.0965
19031SOL    HW163951   5.087   5.701   2.421  0.3108 -0.3557 -0.4150
19031SOL    HW263952   4.938   5.676   2.419  0.2804 -0.1938 -0.1190
19032SOL     OW63953  11.975   8.001   9.212 -0.0658  0.0477 -0.1450
19032SOL    HW163954  12.037   7.939   9.173 -0.9419 -1.4761  0.7810
19032SOL    HW263955  11.991   7.996   9.306  1.7514  3.3886 -0.0993
19033SOL     OW63956   7.976   5.623   9.362  0.3005  0.1220 -0.0415
19033SOL    HW163957   8.009   5.543   9.403 -0.2462  0.2258  0.6256
19033SOL    HW263958   8.049   5.685   9.367  1.0931 -0.6300 -1.5003
19034SOL     OW63959   0.208   5.420   1.088 -0.0850  0.4411 -0.0850
19034SOL    HW163960   0.242   5.336   1.057  0.8235  0.8092 -0.1071
19034SOL    HW263961   0.150   5.397   1.161 -2.6077 -0.4892 -2.2323
19035SOL     OW63962   8.230  10.813   5.066  0.3869  0.5783 -0.1581
19035SOL    HW163963   8.267  10.893   5.029  0.2237 -0.2317 -2.1667
19035SOL    HW263964   8.296  10.746   5.048 -1.1413 -0.4925 -2.0037
19036SOL     OW63965   4.959   9.860   1.902  0.1806  0.0086  0.1352
19036SOL    HW163966   4.940   9.826   1.989 -0.3374  1.2431  0.5234
19036SOL    HW263967   4.875   9.894   1.870  0.5215  0.2532 -0.5320
19037SOL     OW63968   2.316   7.444   6.695  0.2604  0.1101  0.1107
19037SOL    HW163969   2.280   7.367   6.650 -0.1832  0.6739 -0.5287
19037SOL    HW263970   2.368   7.408   6.766 -1.7514 -0.7553  1.2429
19038SOL     OW63971   2.995   4.605   4.729  0.5270 -0.3700 -0.3172
19038SOL    HW163972   3.027   4.517   4.750 -1.2019 -1.1736 -0.8650
19038SOL    HW263973   2.918   4.590   4.675  0.0015  1.4867 -0.1486
19039SOL     OW63974  11.631   3.275  10.669  0.4198  0.0403  0.7648
19039SOL    HW163975  11.677   3.257  10.751 -0.3398  0.8450  1.3874
19039SOL    HW263976  11.583   3.356  10.686  0.9274  0.7038 -0.7567
19040SOL     OW63977   3.209  11.894  10.061  0.2953  0.4083 -0.1659
19040SOL    HW163978   3.281  11.909  10.000  0.4152  1.0705  0.1367
19040SOL    HW263979   3.221  11.959  10.130  1.6822 -1.9200  1.9663
19041SOL     OW63980   4.704   6.031   8.906 -0.0017 -0.1640  0.0583
19041SOL    HW163981   4.772   6.044   8.841 -0.1439  0.6347  0.0702
19041SOL    HW263982   4.747   5.979   8.975  0.4308 -0.1489 -0.1990
19042SOL     OW63983   3.396   9.382   2.175 -0.0519 -0.0952 -0.1481
19042SOL    HW163984   3.318   9.339   2.208 -1.4848  0.8411 -2.0860
19042SOL    HW263985   3.424   9.439   2.246 -1.2140 -0.3684  0.5501
19043SOL     OW63986   3.012   8.660  11.405 -0.3779 -0.4813  0.0555
19043SOL    HW163987   2.966   8.693  11.327  0.4156 -1.1299 -0.7146
19043SOL    HW263988   3.033   8.739  11.455  0.4136  0.1011 -1.1475
19044SOL     OW63989  10.724   2.346   2.321 -0.3054  0.1501 -0.3221
19044SOL    HW163990  10.792   2.322   2.385  0.4532 -0.3020 -1.2745
19044SOL    HW263991  10.682   2.423   2.360  1.5628  1.2050 -0.2444
19045SOL     OW63992   5.521   3.181  12.424 -0.5494  0.1823  0.5799
19045SOL    HW163993   5.543   3.091  12.402  0.4758  0.1724  1.5793
19045SOL    HW263994   5.479   3.215  12.345  3.9768  0.5337 -2.0350
19046SOL     OW63995   0.978   8.131   7.726 -0.1683  0.2884 -0.2326
19046SOL    HW163996   0.922   8.096   7.796  1.8096  1.1230  1.9242
19046SOL    HW263997   1.038   8.059   7.706 -1.1763 -0.1920 -1.6568
19047SOL     OW63998  12.218  12.463   3.047 -0.4830 -0.4564 -0.6423
19047SOL    HW163999  12.289  12.501   3.098 -0.0572  0.6227 -1.9824
19047SOL    HW264000  12.221  12.370   3.067  1.3981 -0.4574 -0.7604
19048SOL     OW64001   7.595   2.371   3.897  0.2376 -0.7305  0.0328
19048SOL    HW164002   7.639   2.301   3.944  0.1848 -1.5521 -1.0876
19048SOL    HW264003   7.507   2.373   3.934  0.2500 -1.2521  0.1045
19049SOL     OW64004   4.721   1.044   3.403 -0.1416  0.0265 -0.4219
19049SOL    HW164005   4.813   1.048   3.430 -0.4299  1.4671  0.4179
19049SOL    HW264006   4.704   1.129   3.362 -1.4240  0.2686  0.5659
19050SOL     OW64007   6.184   5.385  12.024  0.2939  0.0909  0.0286
19050SOL    HW164008   6.187   5.477  12.051 -0.2554  0.3046 -0.6225
19050SOL    HW264009   6.180   5.388  11.929 -0.7854 -0.5835  0.0406
19051SOL     OW64010   0.499  12.516   0.928  0.0442  0.0437 -0.4576
19051SOL    HW164011   0.523  12.459   0.856 -0.9325 -1.5942  0.4559
19051SOL    HW264012   0.403  12.520   0.926 -0.0647 -0.8086  1.2792
19052SOL     OW64013   3.644  10.635   4.534  0.0658 -0.3898  0.0320
19052SOL    HW164014   3.658  10.650   4.628  1.1270 -0.5985 -0.0710
19052SOL    HW264015   3.554  10.604   4.528  0.2455 -1.2251  1.0998
19053SOL     OW64016   1.516   1.889  10.694  0.1858  0.2075 -0.4534
19053SOL    HW164017   1.540   1.798  10.678  0.5939  0.3098 -0.4599
19053SOL    HW264018   1.565   1.939  10.628  0.1715  0.4517 -0.2832
19054SOL     OW64019  12.549   6.921   1.243  0.1695  0.4212  0.2500
19054SOL    HW164020  12.574   6.989   1.306  2.3240  1.2117 -1.3290
19054SOL    HW264021  12.486   6.963   1.186 -0.2759  0.3321  0.6686
19055SOL     OW64022   2.376   2.178   6.543  0.0469 -0.1443 -0.2854
19055SOL    HW164023   2.345   2.169   6.453 -0.7149  1.5300 -0.2325
19055SOL    HW264024   2.324   2.250   6.580  0.7717 -0.3771  1.2999
19056SOL     OW64025  10.514   1.167   9.213 -0.0477 -0.4404  0.0703
19056SOL    HW164026  10.558   1.109   9.150  1.5650  1.1913 -0.3954
19056SOL    HW264027  10.431   1.124   9.231  0.5525 -2.2562 -1.2072
19057SOL     OW64028   6.541  12.501   3.903 -0.4772  0.0730 -0.1226
19057SOL    HW164029   6.591  12.435   3.854 -0.1646 -0.5592  1.0274
19057SOL    HW264030   6.451  12.488   3.873 -0.2638 -0.1544 -0.6974
19058SOL     OW64031   7.638  10.711   1.087 -0.0313 -0.0297  0.0668
19058SOL    HW164032   7.586  10.749   1.159  0.1420 -0.2474  0.3090
19058SOL    HW264033   7.720  10.760   1.088 -0.7844  1.3105 -1.2562
19059SOL     OW64034   7.366  11.531   3.251 -0.2276 -0.3077  0.3480
19059SOL    HW164035   7.386  11.623   3.268 -0.8419  0.0492 -0.7937
19059SOL    HW264036   7.330  11.530   3.162 -0.0791 -1.6719  0.2847
19060SOL     OW64037  11.051  10.615  11.313  0.5296  0.4989  0.2790
19060SOL    HW164038  10.999  10.694  11.294 -0.0138  0.4255  1.4080
19060SOL    HW264039  11.141  10.647  11.320  0.1935  1.2040  1.6929
19061SOL     OW64040   0.083   6.856   1.584  0.0275 -0.0763 -0.2568
19061SOL    HW164041   0.160   6.894   1.541  0.8146  0.2826  1.3815
19061SOL    HW264042   0.032   6.932   1.614 -1.5447 -0.2872 -2.2007
19062SOL     OW64043  11.351   3.664  11.509  0.3617  0.0407  0.1518
19062SOL    HW164044  11.422   3.615  11.468  1.1510  0.2122  1.2520
19062SOL    HW264045  11.310   3.600  11.568  0.0591  0.1408  0.0508
19063SOL     OW64046  12.547  12.148   9.990  0.0281  0.1913 -0.1798
19063SOL    HW164047  12.548  12.065   9.944  1.0181  0.6059 -0.9461
19063SOL    HW264048  12.544  12.214   9.921 -2.1925  0.8060  0.4236
19064SOL     OW64049  11.120   7.515  12.505 -0.1744  0.5243 -0.6640
19064SOL    HW164050  11.055   7.555  12.563  0.4788  0.2044  0.3175
19064SOL    HW264051  11.184   7.584  12.489 -1.3906  1.2602 -2.7103
19065SOL     OW64052   4.529   5.698   7.495  0.1092 -0.1564 -0.1685
19065SOL    HW164053   4.518   5.624   7.555 -0.1329 -0.6795 -0.8391
19065SOL    HW264054   4.599   5.670   7.436  0.1792  0.2509 -0.2821
19066SOL     OW64055   7.681   1.997   9.540 -0.5182 -0.2241 -0.5225
19066SOL    HW164056   7.604   2.047   9.512 -0.0991  0.3694 -0.6497
19066SOL    HW264057   7.659   1.966   9.627 -0.6111  0.5868 -0.2494
19067SOL     OW64058   1.029   7.958  11.506  0.0781 -0.3655 -0.3339
19067SOL    HW164059   1.091   7.970  11.578 -2.0823 -1.9016  1.9678
19067SOL    HW264060   1.057   7.877  11.464  0.1106 -0.6352  0.1961
19068SOL     OW64061   7.477   8.972   7.970  0.1631  0.7554 -0.6310
19068SOL    HW164062   7.544   8.910   8.000  1.0540  1.9586 -0.0500
19068SOL    HW264063   7.503   9.056   8.009 -2.4000  1.0217  0.6606
19069SOL     OW64064  10.622  12.358   1.249  0.4847 -0.1870 -0.6843
19069SOL    HW164065  10.535  12.374   1.212  0.1744 -2.1389 -0.8974
19069SOL    HW264066  10.653  12.280   1.205  2.7340  0.9182 -1.1750
19070SOL     OW64067   6.017  11.552  12.260 -0.4870  0.2343  0.4375
19070SOL    HW164068   5.955  11.618  12.228 -0.4438  0.3128  0.5152
19070SOL    HW264069   5.977  11.468  12.236  0.1107  0.3045 -0.9093
19071SOL     OW64070   5.731  11.673  11.664 -0.6034  0.1377 -0.3388
19071SOL    HW164071   5.758  11.693  11.574 -0.3557  0.6156 -0.1618
19071SOL    HW264072   5.758  11.583  11.678  3.2099  1.2769  0.6465
19072SOL     OW64073   0.445  11.297   8.719 -0.2744 -0.2355 -0.1892
19072SOL    HW164074   0.480  11.209   8.728  1.0363  0.3784  1.0581
19072SOL    HW264075   0.508  11.354   8.763 -1.2247  1.3091 -0.6990
19073SOL     OW64076   9.064   8.094  11.489  0.2960  0.2826 -0.8980
19073SOL    HW164077   9.071   8.005  11.522  0.9251 -0.1541 -2.1587
19073SOL    HW264078   9.139   8.105  11.431  0.4425  1.7650 -0.4871
19074SOL     OW64079   0.051  10.265   1.287  0.4671 -0.1435  0.9396
19074SOL    HW164080   0.009  10.180   1.270  2.2797 -1.1487  1.2302
19074SOL    HW264081   0.105  10.250   1.365  0.9977  1.2153  0.8567
19075SOL     OW64082  10.009   0.825  10.925  0.2710 -0.2157  0.2767
19075SOL    HW164083  10.070   0.786  10.988 -0.1220 -2.5149 -0.6633
19075SOL    HW264084   9.924   0.820  10.967 -0.0840 -2.3019 -0.5902
19076SOL     OW64085   5.465   8.423  11.656  0.2810  0.2241 -0.8191
19076SOL    HW164086   5.430   8.367  11.587 -0.7512 -0.4758  0.2440
19076SOL    HW264087   5.520   8.365  11.708 -0.1703  0.3872 -0.1567
19077SOL     OW64088   6.479   6.167   4.247 -0.2072  0.2687 -0.4078
19077SOL    HW164089   6.436   6.084   4.268 -1.0009  0.3480 -1.5854
19077SOL    HW264090   6.453   6.226   4.317 -1.0463 -0.0247 -0.4584
19078SOL     OW64091   2.123   7.842   1.284 -0.4719  0.2475  0.5772
19078SOL    HW164092   2.142   7.913   1.222  1.5839  0.2536  1.1234
19078SOL    HW264093   2.147   7.762   1.236  1.7765  0.2957  1.4975
19079SOL     OW64094   5.343  10.813   9.965  0.6090  0.0178  0.4920
19079SOL    HW164095   5.344  10.852   9.877  0.7828  0.2541  0.5976
19079SOL    HW264096   5.286  10.871  10.016 -0.9196 -1.0969  0.0967
19080SOL     OW64097   9.030  10.233   9.066  0.1777  0.3539  0.1733
19080SOL    HW164098   9.096  10.301   9.050  2.1817 -1.0983  1.6422
19080SOL    HW264099   8.983  10.263   9.143  0.5517  0.4409  0.3716
19081SOL     OW64100   8.078   0.873   6.789  0.6688  0.0580  0.2994
19081SOL    HW164101   8.040   0.909   6.869 -0.0315  2.0360 -0.8509
19081SOL    HW264102   8.034   0.790   6.777 -0.3328  0.4412  1.1690
19082SOL     OW64103   6.530   9.995   7.744  0.2465 -0.3258  0.2085
19082SOL    HW164104   6.481  10.077   7.736  1.3115  0.4309  1.1807
19082SOL    HW264105   6.561   9.978   7.655 -0.5676 -0.0642 -0.1437
19083SOL     OW64106   5.218   4.489   7.404  0.4289  0.2403 -0.0012
19083SOL    HW164107   5.143   4.430   7.399  0.4196  0.3454 -1.8400
19083SOL    HW264108   5.208   4.548   7.329  0.5646  2.4729  1.6461
19084SOL     OW64109   3.655   4.595   8.530 -0.3015  0.2406 -0.4133
19084SOL    HW164110   3.634   4.647   8.607 -0.6441 -0.0039 -0.3372
19084SOL    HW264111   3.750   4.603   8.521 -0.3559  0.9375 -0.4505
19085SOL     OW64112  11.247   9.190   9.465  0.1899  0.4373  0.0193
19085SOL    HW164113  11.233   9.161   9.375  2.2966 -0.7068 -0.0079
19085SOL    HW264114  11.190   9.267   9.475  0.5688  1.1379 -2.5810
19086SOL     OW64115   9.991   5.151   1.710  0.5450  0.0731  0.0295
19086SOL    HW164116   9.973   5.097   1.633 -5.7184  0.0456  1.0157
19086SOL    HW264117  10.016   5.089   1.778  0.9503 -0.5458 -0.6649
19087SOL     OW64118   4.648   3.071   0.127 -0.0844  0.0735  0.1667
19087SOL    HW164119   4.662   3.034   0.040 -1.8071  1.5340 -0.8074
19087SOL    HW264120   4.735   3.071   0.168  0.6303 -1.3121 -1.2505
19088SOL     OW64121   7.751   6.297  10.543 -0.0974 -0.0383 -0.2395
19088SOL    HW164122   7.732   6.206  10.519  0.7103 -0.4576  0.6551
19088SOL    HW264123   7.708   6.349  10.475 -2.3906 -0.9990  0.4076
19089SOL     OW64124   6.227   4.978   8.613  0.6991  0.0406 -0.1006
19089SOL    HW164125   6.264   4.904   8.661  0.4913  0.4436  0.7040
19089SOL    HW264126   6.295   5.002   8.550 -0.2607 -2.5022 -2.2742
19090SOL     OW64127  12.498   4.012  10.840 -0.4771  1.0384 -0.3035
19090SOL    HW164128  12.514   4.069  10.915  2.5568 -0.6524  0.5012
19090SOL    HW264129  12.544   4.056  10.767  1.7316 -0.1612  0.2829
19091SOL     OW64130  11.335   3.923   7.854  0.3954 -0.2082  0.4543
19091SOL    HW164131  11.307   3.921   7.946 -0.4994  0.3349  0.2108
19091SOL    HW264132  11.430   3.926   7.858  0.4012 -0.9369  1.3507
19092SOL     OW64133   5.017   1.504   0.841 -0.0527  0.0157 -0.0026
19092SOL    HW164134   5.014   1.478   0.750 -1.7563  0.6078 -0.1522
19092SOL    HW264135   5.013   1.600   0.839 -1.8958 -0.0117  0.7056
19093SOL     OW64136   8.619   3.402  12.064 -0.2393  0.8060  0.5544
19093SOL    HW164137   8.608   3.309  12.043 -1.2547  1.1712 -0.6549
19093SOL    HW264138   8.533   3.441  12.046  0.7270  2.3503 -1.0309
19094SOL     OW64139   1.763   1.056   6.164  0.1955 -0.2475 -0.9059
19094SOL    HW164140   1.687   1.082   6.217 -0.2574  0.4425 -1.8622
19094SOL    HW264141   1.800   0.982   6.211  0.0652  0.5926  0.6016
19095SOL     OW64142   8.370  11.154   4.507  0.6437 -0.5563  0.2177
19095SOL    HW164143   8.435  11.098   4.464  0.0367 -0.2879 -1.1325
19095SOL    HW264144   8.420  11.230   4.537  0.9710 -0.3128 -0.8703
19096SOL     OW64145   1.105  12.566   3.319 -0.3710  0.2956 -0.1466
19096SOL    HW164146   1.148  12.647   3.293 -1.2817  0.7532 -0.2714
19096SOL    HW264147   1.088  12.578   3.413 -0.4703  0.2328 -0.1568
19097SOL     OW64148   8.024   3.005   7.382  0.1882  0.2142 -0.8040
19097SOL    HW164149   8.021   2.915   7.417  3.1851 -0.4899 -2.0089
19097SOL    HW264150   8.101   3.044   7.424 -0.8329  2.1404 -0.6203
19098SOL     OW64151   1.716   4.941   4.906 -0.2450 -0.0130  0.3071
19098SOL    HW164152   1.717   5.037   4.901 -1.3259 -0.0186 -0.1274
19098SOL    HW264153   1.737   4.922   4.998 -1.6594  0.6890  0.7982
19099SOL     OW64154   9.969   9.371   5.609  0.1875  0.1396  0.1529
19099SOL    HW164155  10.017   9.387   5.528 -0.3627  1.0374 -0.0207
19099SOL    HW264156   9.954   9.277   5.611 -0.8742  0.2354 -1.4439
19100SOL     OW64157   1.097   6.495  12.110  0.1425 -0.0065 -0.4163
19100SOL    HW164158   1.168   6.430  12.111 -1.7294 -2.2049 -1.4807
19100SOL    HW264159   1.057   6.488  12.196  0.1322 -0.0502 -0.4244
19101SOL     OW64160   5.082   4.067   9.495 -0.1071  0.3158 -0.2724
19101SOL    HW164161   5.106   4.028   9.579 -1.3472  0.7625  0.2985
19101SOL    HW264162   5.158   4.120   9.471  0.7464 -0.7626 -0.0416
19102SOL     OW64163   7.667   2.782   6.616  0.4221 -0.1074  0.1362
19102SOL    HW164164   7.612   2.706   6.635 -0.5708  0.7552  0.8326
19102SOL    HW264165   7.717   2.756   6.539  0.4385 -1.6304  0.6116
19103SOL     OW64166   7.787  11.499  11.901  0.5253 -0.5495  0.0017
19103SOL    HW164167   7.790  11.459  11.988  0.2788  0.3541  0.4445
19103SOL    HW264168   7.702  11.474  11.866  0.2004 -0.0988  0.4434
19104SOL     OW64169   0.113   3.979   6.359 -0.1340  0.0921  0.8432
19104SOL    HW164170   0.121   3.976   6.454  0.8604  0.6550  0.7869
19104SOL    HW264171   0.193   4.022   6.329 -0.9842  1.0303 -0.1716
19105SOL     OW64172  10.038   8.319  10.187  0.0136 -0.2407 -0.4290
19105SOL    HW164173   9.951   8.350  10.214  0.4239  0.2766  0.3323
19105SOL    HW264174  10.058   8.371  10.110 -1.3277 -1.9845 -2.0545
19106SOL     OW64175   8.634   9.942  12.504 -0.3860 -0.1725 -0.1424
19106SOL    HW164176   8.593   9.949  12.418 -0.1656  0.9875 -0.1766
19106SOL    HW264177   8.635   9.849  12.523 -1.0770 -0.3853 -1.0873
19107SOL     OW64178   7.260   1.797   6.760 -0.2437  0.3395  0.0394
19107SOL    HW164179   7.227   1.829   6.844 -0.9649  0.0709 -0.1288
19107SOL    HW264180   7.186   1.749   6.722  0.1953  0.1335 -0.5784
19108SOL     OW64181   2.692   0.362   9.546  0.3219 -0.5178 -0.0119
19108SOL    HW164182   2.641   0.427   9.497  0.5730  1.9215  2.6811
19108SOL    HW264183   2.637   0.284   9.547 -2.1315  1.1062  0.3904
19109SOL     OW64184   7.757  11.401   5.572 -0.2953 -0.4373  0.0185
19109SOL    HW164185   7.722  11.323   5.529 -0.4563 -0.9657  1.0640
19109SOL    HW264186   7.798  11.452   5.502  0.3668 -1.7668 -0.5926
19110SOL     OW64187   6.850   3.590  11.722  0.5552  0.0187 -0.0365
19110SOL    HW164188   6.944   3.595  11.705  0.4863  1.5477 -0.1028
19110SOL    HW264189   6.811   3.648  11.657 -0.2736  0.7817  1.1087
19111SOL     OW64190   5.680   1.235   7.652 -0.8376  0.0547 -0.1578
19111SOL    HW164191   5.763   1.194   7.677 -0.6685  1.9620  2.8474
19111SOL    HW264192   5.614   1.168   7.670 -0.0792 -1.3516 -2.2326
19112SOL     OW64193   5.229  12.118   5.680 -0.2068  0.3000 -0.5772
19112SOL    HW164194   5.193  12.197   5.720 -0.8715 -0.2118 -0.1502
19112SOL    HW264195   5.300  12.092   5.738 -0.9679 -0.2646  0.1318
19113SOL     OW64196   4.016  10.132   4.869 -0.3759 -0.3697 -0.5793
19113SOL    HW164197   4.017  10.149   4.774  2.7963  1.9235 -0.2841
19113SOL    HW264198   4.092  10.076   4.884  0.6360  1.2834  0.8127
19114SOL     OW64199   2.922   7.397   0.048  0.5285  0.7541  0.1642
19114SOL    HW164200   2.953   7.344  -0.026 -1.6440 -0.3466 -0.0461
19114SOL    HW264201   2.867   7.337   0.099  1.1707  1.7628  2.1560
19115SOL     OW64202   6.916  12.350  11.392  0.0395 -0.5616  0.2384
19115SOL    HW164203   6.922  12.422  11.454 -0.3154  1.3062 -1.7654
19115SOL    HW264204   6.956  12.384  11.312 -1.3401 -2.0906 -1.1827
19116SOL     OW64205   1.399   6.138   3.791  0.5847  0.0435 -0.2538
19116SOL    HW164206   1.345   6.161   3.867  1.0576  1.3560 -0.2837
19116SOL    HW264207   1.352   6.066   3.749 -0.4558  0.2835  0.4572
19117SOL     OW64208  10.970   7.855  10.135 -0.1179  0.4817 -0.1768
19117SOL    HW164209  10.918   7.837  10.056 -1.6503  1.5330  0.5416
19117SOL    HW264210  10.906   7.852  10.206  1.2003 -0.2398  1.0192
19118SOL     OW64211   8.880  10.925   9.244  0.3254  0.3145 -0.1348
19118SOL    HW164212   8.836  10.915   9.159  0.1085  0.6817 -0.0653
19118SOL    HW264213   8.949  10.990   9.228  0.5365  0.0974 -0.1230
19119SOL     OW64214   6.085   5.143   9.331 -0.8074 -0.2638 -0.5536
19119SOL    HW164215   6.074   5.149   9.426 -0.1065 -1.5004 -0.3822
19119SOL    HW264216   6.093   5.050   9.313  0.6498  0.0287 -1.6410
19120SOL     OW64217   9.972  10.592   6.408  0.1125  0.4441  0.4164
19120SOL    HW164218   9.890  10.632   6.379  0.4419  0.0680 -1.1545
19120SOL    HW264219   9.946  10.507   6.443 -0.2633  0.7170  0.8046
19121SOL     OW64220   8.870   4.002   3.670 -0.3886 -0.2374  0.1182
19121SOL    HW164221   8.831   3.992   3.583  1.1141 -0.3992 -0.5596
19121SOL    HW264222   8.851   3.919   3.715 -2.1085  0.2439  0.3783
19122SOL     OW64223  12.560   7.443   7.535  0.4015 -0.0577 -0.1068
19122SOL    HW164224  12.614   7.509   7.493  1.8351 -0.1874  1.4519
19122SOL    HW264225  12.621   7.374   7.560 -0.8819 -1.4470 -0.6035
19123SOL     OW64226   9.680   0.635   7.170 -0.0603 -0.0225 -0.2086
19123SOL    HW164227   9.764   0.630   7.215 -0.0313 -0.3196 -0.2943
19123SOL    HW264228   9.703   0.646   7.078 -0.1191  1.8649 -0.0270
19124SOL     OW64229   2.768   2.256   3.678 -0.1165  0.7099  0.2126
19124SOL    HW164230   2.731   2.168   3.686  1.1142  0.2860  1.7098
19124SOL    HW264231   2.730   2.290   3.597  2.5177 -2.7983 -2.8996
19125SOL     OW64232   2.411   5.357  11.554  0.0930 -0.7027 -0.4998
19125SOL    HW164233   2.398   5.265  11.532  0.6582 -1.0587  0.5940
19125SOL    HW264234   2.503   5.364  11.577 -0.0084  0.0707 -0.2956
19126SOL     OW64235  12.065   4.509  10.802 -0.3295 -0.2589 -0.3786
19126SOL    HW164236  12.041   4.598  10.827 -0.5416 -1.0179  2.3708
19126SOL    HW264237  12.114   4.474  10.876 -0.1643 -2.4242 -1.4025
19127SOL     OW64238  10.893   4.348   1.533  0.3483  0.0931  0.0559
19127SOL    HW164239  10.938   4.264   1.523 -0.4931 -0.3535  0.0043
19127SOL    HW264240  10.907   4.393   1.450  0.8775  0.0497  0.1181
19128SOL     OW64241   8.234   1.447   8.544  0.2721 -0.4027  0.5068
19128SOL    HW164242   8.181   1.493   8.479  0.6564 -2.0929 -1.0824
19128SOL    HW264243   8.324   1.454   8.511  0.8036  0.5711  2.0372
19129SOL     OW64244   5.407   4.786   5.916 -0.0228 -0.5169 -0.0302
19129SOL    HW164245   5.398   4.821   6.004  0.2253 -0.4875 -0.0141
19129SOL    HW264246   5.460   4.852   5.869 -1.6007  0.3245 -0.7018
19130SOL     OW64247   4.704   7.879   7.730 -0.5434 -0.3330 -0.1079
19130SOL    HW164248   4.720   7.838   7.644  0.8139 -0.7886  0.3344
19130SOL    HW264249   4.638   7.823   7.771  0.4578 -1.4690  0.0299
19131SOL     OW64250   9.682   8.364   4.135  0.5003 -0.4184  0.0045
19131SOL    HW164251   9.643   8.277   4.147  1.2201 -0.7135  0.2220
19131SOL    HW264252   9.610   8.425   4.153 -0.8496 -0.9497 -2.8785
19132SOL     OW64253   3.148   8.929   9.433 -0.6235 -0.1998  0.2415
19132SOL    HW164254   3.143   8.980   9.352 -0.6238  1.4195  1.2134
19132SOL    HW264255   3.081   8.861   9.423 -1.8877  1.0809 -0.3981
19133SOL     OW64256   4.091   0.483   1.445  0.2950 -0.3319  0.1106
19133SOL    HW164257   4.002   0.515   1.428  0.2814  0.8435  2.1131
19133SOL    HW264258   4.086   0.389   1.427 -1.0391 -0.1044 -0.8899
19134SOL     OW64259   1.990   1.760  12.545 -0.1341 -0.7717 -0.3846
19134SOL    HW164260   2.069   1.762  12.492  0.3698 -1.5923  0.3129
19134SOL    HW264261   1.919   1.780  12.483  0.6641  0.7146 -0.8712
19135SOL     OW64262   8.059   9.736  11.762  0.0734 -0.0645  0.1366
19135SOL    HW164263   8.084   9.826  11.742 -0.4669  0.4491  1.6127
19135SOL    HW264264   7.963   9.738  11.765  0.0284 -0.8421 -0.4369
19136SOL     OW64265   4.031   9.703   2.968 -0.1984  0.0036  0.3770
19136SOL    HW164266   4.090   9.629   2.956  1.2236  1.3802 -1.8750
19136SOL    HW264267   4.021   9.740   2.880 -2.3997  1.3482  1.1131
19137SOL     OW64268   6.675   0.140   7.503  0.3308  0.0629 -0.3685
19137SOL    HW164269   6.769   0.144   7.486  0.4797  0.8161  0.5704
19137SOL    HW264270   6.635   0.137   7.415  1.2061  0.2129 -0.7793
19138SOL     OW64271   3.256   3.127   8.258 -0.3963 -0.4484  0.4241
19138SOL    HW164272   3.306   3.204   8.285  0.3304 -0.1720 -1.5215
19138SOL    HW264273   3.279   3.115   8.166 -2.5494 -1.4091 -0.0506
19139SOL     OW64274   0.521   2.342   9.749  0.1347 -0.5051  0.0983
19139SOL    HW164275   0.489   2.263   9.792 -0.0516 -0.1428  0.6374
19139SOL    HW264276   0.533   2.405   9.821 -1.1525  0.4421 -0.4851
19140SOL     OW64277   4.072   3.384  10.941  0.1961 -0.0878  0.2506
19140SOL    HW164278   4.092   3.378  10.847  0.0788  0.9501  0.1499
19140SOL    HW264279   4.156   3.403  10.982 -0.1464  1.9396  0.0775
19141SOL     OW64280   6.998   4.556  10.394 -0.0265  0.2124  0.2636
19141SOL    HW164281   6.961   4.496  10.458  2.4269 -1.2481  0.4141
19141SOL    HW264282   7.053   4.502  10.339  0.9035  2.0635 -0.7087
19142SOL     OW64283   5.808   8.616   3.977 -0.6219  0.7367  0.1928
19142SOL    HW164284   5.738   8.550   3.977  1.4838 -1.7258 -1.6253
19142SOL    HW264285   5.787   8.672   3.903 -1.7419  1.3871  0.9592
19143SOL     OW64286   5.773   5.883   7.831  0.5220 -0.2616 -0.5266
19143SOL    HW164287   5.780   5.857   7.739  1.0070  0.0980 -0.5979
19143SOL    HW264288   5.860   5.869   7.867  0.0132 -1.6589  0.2335
19144SOL     OW64289   8.877   5.122   9.285  0.2222 -0.9548 -0.5247
19144SOL    HW164290   8.874   5.135   9.380  2.4490  0.2801 -0.5605
19144SOL    HW264291   8.840   5.202   9.248  1.0848 -0.6203 -0.6866
19145SOL     OW64292   1.788  11.078   0.335  0.4513  0.3444 -0.6497
19145SOL    HW164293   1.748  11.152   0.290 -0.9580 -0.3563 -0.5902
19145SOL    HW264294   1.869  11.061   0.286  0.4602  1.4913 -1.0551
19146SOL     OW64295   3.011   6.293   9.130 -0.0713  0.4547  0.1403
19146SOL    HW164296   3.071   6.334   9.068  0.6877 -0.0129  0.5475
19146SOL    HW264297   2.927   6.337   9.115  0.4761  1.4297 -0.1256
19147SOL     OW64298   3.616  12.106  10.537 -0.0357 -0.2119  0.3513
19147SOL    HW164299   3.606  12.067  10.450 -1.0795 -0.6306  0.6515
19147SOL    HW264300   3.663  12.188  10.521 -0.5976 -0.0750 -0.6532
19148SOL     OW64301   9.843   3.998   5.558 -0.0277 -0.2277 -0.6210
19148SOL    HW164302   9.871   3.907   5.544  0.2283 -0.3495  0.5499
19148SOL    HW264303   9.900   4.050   5.501  1.5477 -0.6054  0.5402
19149SOL     OW64304   0.751   8.838   7.511  0.6087 -0.2291  0.2825
19149SOL    HW164305   0.706   8.772   7.563  2.3669 -0.4299  1.6406
19149SOL    HW264306   0.784   8.790   7.434 -0.6290 -0.2643 -0.2567
19150SOL     OW64307   0.757   1.552   1.719  0.1761  0.1500  0.6771
19150SOL    HW164308   0.747   1.498   1.797 -1.2040  0.6767  0.8837
19150SOL    HW264309   0.679   1.533   1.666 -0.0354  1.4684  0.4761
19151SOL     OW64310  12.097  12.057   0.187 -0.1388 -0.0959 -1.1381
19151SOL    HW164311  12.189  12.074   0.168 -0.4421  0.5511 -2.1279
19151SOL    HW264312  12.062  12.022   0.105 -0.6352 -1.0019 -0.5689
19152SOL     OW64313  11.808  10.120   7.896 -0.8035  0.1830  0.7901
19152SOL    HW164314  11.726  10.086   7.931 -0.7735 -0.9862 -0.1692
19152SOL    HW264315  11.835  10.187   7.958 -1.7159 -0.4482  1.9238
19153SOL     OW64316   9.022   4.053   8.493  0.2344 -0.6872 -0.0895
19153SOL    HW164317   8.949   3.991   8.485  0.8063 -1.3853 -0.0696
19153SOL    HW264318   9.018   4.083   8.584 -0.1145 -0.6170 -0.1285
19154SOL     OW64319   3.955   6.708   2.034 -0.2244 -0.3860 -0.0028
19154SOL    HW164320   3.876   6.672   1.995 -0.9025 -0.4072  1.3314
19154SOL    HW264321   3.957   6.799   2.005 -1.7408  0.1310  1.3802
19155SOL     OW64322  10.038  12.535  12.295  0.4407 -0.1160  0.0103
19155SOL    HW164323   9.945  12.554  12.288  0.8876  2.6562  0.4774
19155SOL    HW264324  10.067  12.523  12.204 -0.1499  0.3122 -0.2406
19156SOL     OW64325   4.462   2.597   2.062 -0.2939  0.4745 -0.2289
19156SOL    HW164326   4.393   2.585   1.996  2.4846 -0.2542 -3.2314
19156SOL    HW264327   4.513   2.672   2.031  1.7688 -0.5914  0.4198
19157SOL     OW64328   1.160   9.239   2.287  0.1209  0.0414 -0.0499
19157SOL    HW164329   1.122   9.153   2.272  0.0488 -0.0470  0.6114
19157SOL    HW264330   1.122   9.268   2.370  0.0255  0.7746 -0.3347
19158SOL     OW64331   7.387   5.856  11.119 -0.3212  0.1239 -0.0190
19158SOL    HW164332   7.362   5.768  11.088 -0.2222 -0.0683  0.4470
19158SOL    HW264333   7.380   5.851  11.214  1.4973  0.0659  0.1344
19159SOL     OW64334   0.586   5.554  11.776  0.9546 -0.9837 -0.2397
19159SOL    HW164335   0.547   5.640  11.762  3.4850 -0.1972 -3.6666
19159SOL    HW264336   0.512   5.494  11.778 -0.7016  0.7522 -2.9924
19160SOL     OW64337  10.145   6.187   6.821  0.5265  0.2781 -0.6464
19160SOL    HW164338  10.175   6.170   6.911  0.2627  2.0252 -0.1846
19160SOL    HW264339  10.085   6.261   6.830 -1.5026 -1.0868 -1.9636
19161SOL     OW64340   6.943   8.950  11.682  0.1786  0.4628  0.5618
19161SOL    HW164341   6.929   9.023  11.743 -0.8144  1.3423 -0.6711
19161SOL    HW264342   6.984   8.991  11.605  1.0143 -0.5512  0.4532
19162SOL     OW64343   1.881   3.901  10.298  0.2535 -0.5447 -0.3966
19162SOL    HW164344   1.960   3.901  10.353  0.5804 -1.9757 -0.8418
19162SOL    HW264345   1.893   3.976  10.239  0.3820  0.3821  0.7555
19163SOL     OW64346   0.482   4.283   8.955  0.1670  0.3088 -0.1561
19163SOL    HW164347   0.538   4.206   8.947 -0.9254 -0.3949 -1.3985
19163SOL    HW264348   0.497   4.332   8.874  0.3101  1.0375  0.3039
19164SOL     OW64349  10.260   4.933   6.131  0.5626  0.2598 -0.1502
19164SOL    HW164350  10.260   5.016   6.178 -0.2761 -0.7993  1.8751
19164SOL    HW264351  10.229   4.869   6.195  0.1163 -1.4505 -1.9462
19165SOL     OW64352  10.835   7.722  10.365  0.3308  0.0352 -0.2764
19165SOL    HW164353  10.884   7.692  10.442  0.5614  1.3096  0.0948
19165SOL    HW264354  10.825   7.644  10.312  0.9993 -0.6791  0.6037
19166SOL     OW64355   5.458   8.309  11.096 -0.0760 -0.1315  0.4981
19166SOL    HW164356   5.500   8.307  11.181 -1.8424  0.2671  1.4266
19166SOL    HW264357   5.499   8.383  11.050  1.0779 -0.5214  0.8698
19167SOL     OW64358  11.611   6.666   9.842  0.2558 -0.5109 -0.5468
19167SOL    HW164359  11.540   6.720   9.807  1.1260  1.1381  0.1053
19167SOL    HW264360  11.637   6.711   9.923  0.6459 -2.2521  0.3359
19168SOL     OW64361   5.687   7.093  10.600 -0.6562  0.2180 -0.4908
19168SOL    HW164362   5.758   7.034  10.626 -0.9069 -0.1721 -0.6735
19168SOL    HW264363   5.685   7.086  10.505 -1.7046 -0.6860 -0.4173
19169SOL     OW64364   5.277   0.158   0.794  0.1838  0.7585  0.6821
19169SOL    HW164365   5.340   0.222   0.826 -0.2240  1.1255  0.7463
19169SOL    HW264366   5.264   0.181   0.702  0.0108  0.7924  0.7144
19170SOL     OW64367  12.134   1.301  11.287  0.0451  0.2871  0.3301
19170SOL    HW164368  12.095   1.214  11.291 -0.3502  0.4348 -0.1566
19170SOL    HW264369  12.077   1.356  11.342 -0.2825  0.4430 -0.1562
19171SOL     OW64370   1.477   8.960   4.499  0.1446 -0.6978 -0.3921
19171SOL    HW164371   1.421   8.914   4.562 -1.0966  1.0592 -0.1335
19171SOL    HW264372   1.562   8.966   4.543 -0.5766  0.1079  0.9772
19172SOL     OW64373   9.875   3.756  12.261  0.1760 -0.2892 -0.2707
19172SOL    HW164374   9.822   3.787  12.334  1.8313 -0.9017  1.2441
19172SOL    HW264375   9.942   3.823  12.249 -0.4156  0.1033 -1.6735
19173SOL     OW64376   7.572   6.899   2.000  0.4785 -0.0599  0.5968
19173SOL    HW164377   7.593   6.990   2.023 -3.4233  1.2955 -0.3839
19173SOL    HW264378   7.620   6.882   1.919  0.4012  1.5915  0.1727
19174SOL     OW64379  10.484   0.517   7.298  0.2381 -0.5440  0.0037
19174SOL    HW164380  10.471   0.597   7.348 -1.0863  1.5013 -3.3270
19174SOL    HW264381  10.579   0.505   7.295  0.4419  0.6779  0.8361
19175SOL     OW64382  11.044   2.180   2.753 -0.3118 -0.3628  0.2495
19175SOL    HW164383  11.036   2.141   2.666 -0.2516 -0.8239  0.4477
19175SOL    HW264384  11.130   2.224   2.752 -0.4775 -0.0388 -0.0477
19176SOL     OW64385   4.703   8.533   4.308  0.4701 -0.0339 -0.0007
19176SOL    HW164386   4.791   8.570   4.297  0.4483 -0.2330 -0.9243
19176SOL    HW264387   4.648   8.608   4.331  0.5787  0.3691 -1.0292
19177SOL     OW64388  11.424   2.643   0.405  0.2069  0.1228 -0.0254
19177SOL    HW164389  11.505   2.676   0.366 -1.1282  1.1678 -2.1605
19177SOL    HW264390  11.384   2.591   0.336 -2.2684  2.0035 -0.1821
19178SOL     OW64391   7.038   8.888   9.071  0.6755  0.0341  0.0854
19178SOL    HW164392   7.128   8.862   9.090 -0.0999 -3.1228 -0.0074
19178SOL    HW264393   7.000   8.906   9.157  0.8876 -0.4508  0.2808
19179SOL     OW64394  10.500   5.766   1.790 -0.0507 -0.0990 -0.1767
19179SOL    HW164395  10.425   5.815   1.824  0.2527 -0.1693  0.6256
19179SOL    HW264396  10.489   5.678   1.827 -0.2435 -0.4631 -1.0817
19180SOL     OW64397   8.243   6.493   3.237 -0.4639 -0.5131 -0.2839
19180SOL    HW164398   8.220   6.584   3.218  0.6487 -0.3355 -0.8318
19180SOL    HW264399   8.281   6.495   3.325  1.8445 -0.0115 -1.2241
19181SOL     OW64400   6.406   6.336  10.052  0.4928  0.0315  0.0167
19181SOL    HW164401   6.413   6.331   9.957 -0.5854  0.4009 -0.0985
19181SOL    HW264402   6.324   6.384  10.068  1.5273  1.5213  1.1331
19182SOL     OW64403   4.298   8.189   5.890 -0.2028 -0.3526  0.3980
19182SOL    HW164404   4.389   8.160   5.888  0.9098  2.6559  1.3125
19182SOL    HW264405   4.266   8.161   5.976  0.4144 -0.0610  0.7356
19183SOL     OW64406  10.732   0.556  11.328 -0.3418 -0.1535 -0.7142
19183SOL    HW164407  10.691   0.470  11.321 -0.2033 -0.2990  0.1097
19183SOL    HW264408  10.671   0.607  11.382 -1.1495  0.7475 -2.3863
19184SOL     OW64409   5.530  10.776  12.195 -0.0417  0.2789 -0.1195
19184SOL    HW164410   5.624  10.787  12.177  0.5990 -0.3330  2.3326
19184SOL    HW264411   5.486  10.835  12.135  1.9881  1.2555 -0.7235
19185SOL     OW64412   7.168  10.464   4.424  0.0817 -0.5608  0.2154
19185SOL    HW164413   7.193  10.395   4.485  0.3123 -1.4749 -0.8727
19185SOL    HW264414   7.230  10.454   4.351 -0.4495  0.2203 -0.3523
19186SOL     OW64415   2.725   5.438   4.803 -0.3640 -0.0516  0.2954
19186SOL    HW164416   2.667   5.500   4.846 -1.4245 -1.5616  1.1305
19186SOL    HW264417   2.806   5.441   4.854 -0.0439  1.3000 -0.2501
19187SOL     OW64418   6.061   5.185   3.817  0.2436 -0.2240 -0.4649
19187SOL    HW164419   6.038   5.151   3.731  0.4349 -0.4408 -0.4326
19187SOL    HW264420   6.103   5.111   3.861  1.0293  0.1723 -0.5338
19188SOL     OW64421  12.577   9.005   0.021  0.8380  0.1185 -0.1483
19188SOL    HW164422  12.527   8.947  -0.036 -0.0408  0.5376  0.1700
19188SOL    HW264423  12.512   9.066   0.056  1.7192  1.2800 -0.4521
19189SOL     OW64424   2.958  12.059   1.648  0.1083  0.2867  0.0436
19189SOL    HW164425   3.047  12.068   1.683  0.9833  1.1529 -2.2285
19189SOL    HW264426   2.968  12.070   1.554 -2.3740 -0.0827 -0.3265
19190SOL     OW64427   4.318   0.073  10.172  0.6329 -0.3726 -0.0727
19190SOL    HW164428   4.291   0.134  10.241  0.9267  2.6911 -2.4556
19190SOL    HW264429   4.368   0.006  10.218 -0.0438  0.9228  2.8103
19191SOL     OW64430   0.473   4.175   1.890 -0.7400 -0.0222 -0.2546
19191SOL    HW164431   0.431   4.184   1.975  1.0486  1.4666  0.5367
19191SOL    HW264432   0.415   4.222   1.829 -1.4716 -0.1533  0.3280
19192SOL     OW64433   2.518   7.669  10.848  0.2564  0.9255  0.1853
19192SOL    HW164434   2.587   7.691  10.910  0.6943  0.6977 -0.2239
19192SOL    HW264435   2.513   7.573  10.850  0.3816  0.9098 -0.2563
19193SOL     OW64436   4.050   1.996   0.925  0.1005  0.0944 -0.7811
19193SOL    HW164437   4.115   2.053   0.967  1.6718 -2.1693  0.0714
19193SOL    HW264438   3.968   2.045   0.930  0.5816  0.8209  3.1588
19194SOL     OW64439  10.679   9.846   3.830  0.1688  0.3523 -0.2979
19194SOL    HW164440  10.605   9.797   3.866 -0.6126  1.3251 -0.5473
19194SOL    HW264441  10.721   9.784   3.770  0.2418 -0.5818  0.6795
19195SOL     OW64442   2.813   9.502   1.822  0.0874  0.0041 -0.0429
19195SOL    HW164443   2.745   9.524   1.885 -0.5408  0.7137 -0.9587
19195SOL    HW264444   2.811   9.572   1.757  2.3083  0.5573  0.3751
19196SOL     OW64445  12.068   6.964   4.714 -0.4686 -0.0822 -0.4422
19196SOL    HW164446  11.989   6.938   4.667 -1.0773  0.3366  0.3145
19196SOL    HW264447  12.133   6.898   4.690 -0.7317  0.1516 -1.8960
19197SOL     OW64448   4.262  10.450  11.390 -0.2164 -0.0386 -0.1870
19197SOL    HW164449   4.294  10.422  11.476  1.8369  0.5229 -0.7310
19197SOL    HW264450   4.274  10.545  11.390  0.5970 -0.1246 -1.3933
19198SOL     OW64451   7.952  11.544   2.501 -0.5121  0.0795  0.2210
19198SOL    HW164452   8.011  11.610   2.538 -1.8792  0.2790  2.1958
19198SOL    HW264453   7.992  11.460   2.526 -0.9604  0.2105  1.4336
19199SOL     OW64454   4.411   9.352   9.440 -0.5257  0.4310  0.4815
19199SOL    HW164455   4.343   9.406   9.399  0.4492  1.2042 -0.1843
19199SOL    HW264456   4.461   9.317   9.367 -1.0195 -1.2608  0.9197
19200SOL     OW64457   5.175   5.550   5.003  0.3381  0.0069  0.2465
19200SOL    HW164458   5.255   5.575   5.048  1.3763 -0.8390 -1.0672
19200SOL    HW264459   5.196   5.556   4.910 -1.2368  0.0954 -0.1417
19201SOL     OW64460   5.385   2.684  10.743  0.1525  0.7008  0.8110
19201SOL    HW164461   5.464   2.632  10.726 -0.1021  0.4436  0.4032
19201SOL    HW264462   5.313   2.620  10.741 -0.2538  1.1672 -0.4625
19202SOL     OW64463   1.501   3.423   9.250 -0.3109  0.0487  0.5001
19202SOL    HW164464   1.409   3.404   9.232 -1.4092  5.0096 -0.6870
19202SOL    HW264465   1.500   3.470   9.334  1.3277 -0.6531  0.9603
19203SOL     OW64466  10.512   8.607   0.295 -0.3652  0.0374  0.0610
19203SOL    HW164467  10.567   8.569   0.227  1.3976  2.0128  0.2762
19203SOL    HW264468  10.546   8.570   0.377  0.4235  0.9445  0.1614
19204SOL     OW64469  10.242   0.979   9.167 -0.3903 -0.2656 -0.1907
19204SOL    HW164470  10.265   0.910   9.228 -0.5014 -0.3170 -0.2052
19204SOL    HW264471  10.301   0.967   9.093 -1.2759 -1.1773 -0.7899
19205SOL     OW64472  10.390   7.741   9.001  0.5896 -0.2871  0.8777
19205SOL    HW164473  10.365   7.670   8.942  0.4345  0.3274  0.1812
19205SOL    HW264474  10.306   7.776   9.033  0.5291  1.0865 -0.6292
19206SOL     OW64475   0.825   5.760   1.080 -0.1643 -0.3823 -0.7413
19206SOL    HW164476   0.766   5.697   1.038 -0.1455 -0.2549 -0.9624
19206SOL    HW264477   0.875   5.708   1.142  1.0995 -0.9504 -2.1595
19207SOL     OW64478   0.624  12.075  10.960  0.3265 -0.4543  0.3936
19207SOL    HW164479   0.624  11.980  10.971  2.0317 -0.9068 -2.4731
19207SOL    HW264480   0.708  12.103  10.997  0.6053 -0.3151 -0.3398
19208SOL     OW64481   4.537   8.084   3.266  0.5542 -0.0811  0.0290
19208SOL    HW164482   4.513   8.169   3.230 -1.7229 -0.8517 -0.4437
19208SOL    HW264483   4.524   8.022   3.194  0.3397 -1.0577  0.8772
19209SOL     OW64484   3.619   7.008   9.186 -0.5385  0.1284  0.3828
19209SOL    HW164485   3.685   6.964   9.240 -1.4206  1.0555  2.3373
19209SOL    HW264486   3.561   7.050   9.250  0.8558  5.1424 -1.1928
19210SOL     OW64487   2.887   0.114   9.266  0.5347 -0.4121 -0.4388
19210SOL    HW164488   2.797   0.083   9.264 -0.2208  1.5489  0.3009
19210SOL    HW264489   2.893   0.177   9.194  1.1662 -0.1896 -0.2028
19211SOL     OW64490   9.039   7.021  11.892 -0.1635 -0.1379  0.6452
19211SOL    HW164491   9.060   7.007  11.984  0.4123 -0.6976  0.4311
19211SOL    HW264492   9.115   6.988  11.844  0.1420  1.4044  0.0173
19212SOL     OW64493  10.375   9.762   7.676  0.8249  0.0442  0.2347
19212SOL    HW164494  10.349   9.817   7.750  1.3625  0.5778  0.0347
19212SOL    HW264495  10.401   9.679   7.715 -4.2327 -1.8559  0.2980
19213SOL     OW64496  11.178   6.358   0.133  0.3442  0.4405 -0.8336
19213SOL    HW164497  11.101   6.396   0.092  0.7143  0.5448 -1.4366
19213SOL    HW264498  11.251   6.383   0.076  0.6329 -0.9307 -1.0941
19214SOL     OW64499   1.166   8.128   0.641 -0.7132  0.1780 -0.6905
19214SOL    HW164500   1.166   8.203   0.581  0.3452  1.9720  1.3986
19214SOL    HW264501   1.211   8.160   0.719 -2.5058 -1.8323  1.3023
19215SOL     OW64502   3.533   4.263   1.841 -0.1021 -0.0943 -0.4958
19215SOL    HW164503   3.603   4.255   1.775  0.7385 -0.1489  0.3772
19215SOL    HW264504   3.540   4.353   1.873  1.5549 -0.9243  1.6983
19216SOL     OW64505   2.343   8.259   6.086 -0.1265 -0.1467  0.3222
19216SOL    HW164506   2.377   8.264   6.175 -0.6661  0.8758  0.4888
19216SOL    HW264507   2.269   8.320   6.085  1.4857  1.9326 -1.5130
19217SOL     OW64508   1.172   3.799   9.578  0.0410 -0.5782  0.4038
19217SOL    HW164509   1.164   3.709   9.547 -2.2651 -0.6330  1.0167
19217SOL    HW264510   1.116   3.850   9.519  0.4073  0.2667  0.7643
19218SOL     OW64511   4.945   3.626   2.974 -0.1113 -0.5250  0.0892
19218SOL    HW164512   4.977   3.700   2.923 -2.6952  0.3051 -0.4482
19218SOL    HW264513   4.957   3.550   2.917  0.4589 -0.1766 -0.2538
19219SOL     OW64514   2.020  11.624   2.577 -0.1280 -0.1670 -0.2191
19219SOL    HW164515   2.102  11.603   2.532 -0.7371  0.2397 -1.5544
19219SOL    HW264516   2.042  11.615   2.670  1.3503 -0.3448 -0.5493
19220SOL     OW64517  12.331   5.896   0.120  0.0376  0.4361 -0.0280
19220SOL    HW164518  12.273   5.942   0.060  0.7895  1.0676 -0.2919
19220SOL    HW264519  12.378   5.966   0.166 -0.6943 -0.0160  1.4890
19221SOL     OW64520   1.875   0.003  11.370 -0.0602 -0.4478 -0.2781
19221SOL    HW164521   1.819   0.080  11.381  0.6189  0.0482 -0.2048
19221SOL    HW264522   1.837  -0.044  11.296 -0.0045  0.4031 -0.8699
19222SOL     OW64523   3.447   6.379   9.946  0.2288 -0.5547  0.1512
19222SOL    HW164524   3.530   6.349   9.910 -0.7573 -2.9679 -0.2951
19222SOL    HW264525   3.413   6.441   9.881  0.1308 -2.1666 -1.3948
19223SOL     OW64526   5.785   9.690   1.195 -0.3452  0.2856  0.2155
19223SOL    HW164527   5.822   9.777   1.211 -0.6876  0.4004  0.3913
19223SOL    HW264528   5.729   9.673   1.270 -1.0338  0.3221 -0.2821
19224SOL     OW64529   3.873   1.620   3.642 -0.0883 -0.1133 -0.1302
19224SOL    HW164530   3.903   1.530   3.629  1.3170  0.0871  1.3394
19224SOL    HW264531   3.817   1.638   3.567 -0.4986 -2.2437 -0.4066
19225SOL     OW64532  12.543   5.341   9.188 -0.2315  0.5526 -0.1620
19225SOL    HW164533  12.577   5.320   9.275 -1.5458  0.4593  0.3594
19225SOL    HW264534  12.536   5.436   9.187  3.0252  0.9114 -1.4804
19226SOL     OW64535  11.447   8.291   3.336 -0.4773 -0.3434 -0.0646
19226SOL    HW164536  11.453   8.386   3.348 -0.8586 -0.3152 -0.0686
19226SOL    HW264537  11.537   8.262   3.322 -0.4478  0.1436 -0.9700
19227SOL     OW64538   7.257   1.262  11.324 -0.0376 -0.6746  0.2866
19227SOL    HW164539   7.290   1.187  11.274  0.4940  1.1356 -2.2531
19227SOL    HW264540   7.172   1.233  11.357  1.2881 -3.2857  1.7717
19228SOL     OW64541   1.074   6.014  10.026 -0.1934  0.4828  0.2440
19228SOL    HW164542   1.154   5.966  10.005 -1.0191 -1.0917  0.5073
19228SOL    HW264543   1.081   6.033  10.120 -1.1123 -1.7374  0.8256
19229SOL     OW64544   4.451   0.833   1.450  0.1690 -0.1708  0.1109
19229SOL    HW164545   4.391   0.904   1.472 -0.8189 -0.8050 -0.4780
19229SOL    HW264546   4.395   0.765   1.412  1.3653 -0.4040 -1.3309
19230SOL     OW64547   8.193   8.948   6.926  0.8718 -0.5218 -0.6458
19230SOL    HW164548   8.184   8.861   6.887 -1.9604 -0.2789 -0.7403
19230SOL    HW264549   8.124   8.952   6.993  1.9249  1.1266  0.4253
19231SOL     OW64550   8.856   3.312   4.841 -0.1255 -0.3126 -0.9445
19231SOL    HW164551   8.901   3.328   4.759 -0.2448  0.4713 -0.8653
19231SOL    HW264552   8.811   3.228   4.829  1.0339 -0.9160 -1.1572
19232SOL     OW64553   8.457   2.306   1.165  0.4897 -0.4091  0.6833
19232SOL    HW164554   8.525   2.348   1.111  0.1776  0.2837  0.8131
19232SOL    HW264555   8.493   2.307   1.253  0.0175  0.6655  0.8896
19233SOL     OW64556   5.513   7.448   3.980 -0.2930 -0.0168  0.6957
19233SOL    HW164557   5.484   7.433   3.890 -0.4113  0.3839  0.6673
19233SOL    HW264558   5.546   7.363   4.009  0.1280 -0.0472  0.1336
19234SOL     OW64559   6.734  11.168  10.142  0.3450 -0.2045  0.2325
19234SOL    HW164560   6.734  11.259  10.113 -0.1805 -0.3544 -0.2768
19234SOL    HW264561   6.806  11.128  10.093  2.0050  0.3959  2.0699
19235SOL     OW64562   6.709   2.487   0.547 -0.2155 -0.4914  0.3821
19235SOL    HW164563   6.756   2.564   0.515 -0.6877  0.1863  1.2524
19235SOL    HW264564   6.758   2.413   0.514  1.9864  0.1605  1.9511
19236SOL     OW64565   6.610   6.270   1.501 -0.9143 -0.2404  0.3663
19236SOL    HW164566   6.570   6.335   1.558 -2.4830  0.6961 -1.6733
19236SOL    HW264567   6.681   6.316   1.457 -1.6526 -0.0030 -0.6385
19237SOL     OW64568   5.414   0.275   9.566  0.6418 -0.0426  0.1421
19237SOL    HW164569   5.501   0.314   9.568  0.1718  1.1085 -0.8089
19237SOL    HW264570   5.429   0.184   9.539  1.6862 -0.3820  1.7300
19238SOL     OW64571  10.607   6.804   1.284 -0.9941  0.1965 -0.4601
19238SOL    HW164572  10.701   6.804   1.300 -0.9681 -0.6891 -0.5712
19238SOL    HW264573  10.568   6.825   1.369 -0.6874  1.1066 -0.5372
19239SOL     OW64574   8.466   3.791   2.771  0.0816 -0.1750 -0.1350
19239SOL    HW164575   8.416   3.820   2.848  0.5222  2.1373 -0.6443
19239SOL    HW264576   8.438   3.700   2.757 -0.9347 -0.2518  1.9945
19240SOL     OW64577   6.818   9.963   0.562  0.1804 -0.4130 -0.5265
19240SOL    HW164578   6.889   9.991   0.505  0.0725 -0.8849 -0.9115
19240SOL    HW264579   6.791  10.042   0.609  0.6098 -0.1235 -0.7610
19241SOL     OW64580   7.164  10.220   0.658  0.4875  0.3341  0.0164
19241SOL    HW164581   7.073  10.232   0.630  0.2745 -1.0403  0.0655
19241SOL    HW264582   7.160  10.149   0.722  1.2851  1.8247  1.8318
19242SOL     OW64583   4.696   3.644   0.604 -0.6091 -0.0594  0.0888
19242SOL    HW164584   4.642   3.650   0.525  1.6032 -0.1814 -1.5137
19242SOL    HW264585   4.738   3.558   0.598 -0.3376 -0.0410  1.3857
19243SOL     OW64586   4.422   9.549  11.615 -0.6127  0.6263 -0.3334
19243SOL    HW164587   4.471   9.467  11.620 -0.7624  0.5384 -0.3121
19243SOL    HW264588   4.392   9.553  11.524 -0.7833  0.5528 -0.2822
19244SOL     OW64589   0.995   8.335  11.931 -0.6138 -0.3115  0.0046
19244SOL    HW164590   0.957   8.293  11.854 -2.4681 -0.6343  1.0358
19244SOL    HW264591   0.941   8.306  12.004  1.0035  0.0966  1.4469
19245SOL     OW64592   8.299   4.152   7.552 -0.0610 -0.4677 -0.2351
19245SOL    HW164593   8.278   4.138   7.460  1.0208  1.6055 -0.8428
19245SOL    HW264594   8.279   4.244   7.568  0.4608 -0.6064  1.4247
19246SOL     OW64595   1.411   0.635   4.491  0.5716  0.1674 -0.1636
19246SOL    HW164596   1.406   0.639   4.586 -3.0411 -0.7326 -0.1532
19246SOL    HW264597   1.403   0.726   4.463 -0.1785  0.2997  0.4354
19247SOL     OW64598   9.277  10.699   3.373 -0.2734 -0.1618  0.0559
19247SOL    HW164599   9.267  10.792   3.350  1.4093 -0.5158 -2.6396
19247SOL    HW264600   9.200  10.657   3.336  0.1009 -0.0829 -0.8645
19248SOL     OW64601   0.823   2.594   8.933  0.0036 -0.2396  0.0426
19248SOL    HW164602   0.813   2.615   8.840 -0.3253 -0.1638  0.0949
19248SOL    HW264603   0.754   2.531   8.951  1.3101 -1.8338 -0.2536
19249SOL     OW64604  10.844  12.404  10.104  0.4510 -0.1589 -0.1752
19249SOL    HW164605  10.905  12.348  10.152 -1.3258 -0.4696  1.8223
19249SOL    HW264606  10.782  12.436  10.169 -2.1696 -0.6734 -2.2112
19250SOL     OW64607  11.214   5.206   1.717 -0.3116 -0.3933  0.0990
19250SOL    HW164608  11.190   5.150   1.642 -1.3676 -0.7138  0.6532
19250SOL    HW264609  11.139   5.263   1.729  0.3637  0.5000  0.1574
19251SOL     OW64610   0.496   5.089   5.734 -0.3961 -0.0775 -0.0257
19251SOL    HW164611   0.567   5.039   5.775  0.2302  0.3962 -0.5163
19251SOL    HW264612   0.445   5.123   5.808 -0.1617 -0.4897  0.3313
19252SOL     OW64613   7.374   8.355   2.256  0.5156  0.4103 -0.3545
19252SOL    HW164614   7.326   8.438   2.251 -1.2247 -0.4614  0.8016
19252SOL    HW264615   7.307   8.287   2.246  1.7976 -0.8730 -0.5827
19253SOL     OW64616  10.544  10.026   0.762  0.2795 -0.2430  0.5844
19253SOL    HW164617  10.534   9.942   0.807  0.8299  0.0817  1.3285
19253SOL    HW264618  10.581  10.085   0.828  0.6276  0.3775 -0.1451
19254SOL     OW64619   3.399  11.869   1.840  0.7572  0.0629 -0.2737
19254SOL    HW164620   3.442  11.798   1.792  1.3242 -1.7864  2.7068
19254SOL    HW264621   3.428  11.858   1.930 -1.5750  2.2430  0.8742
19255SOL     OW64622   1.542   3.130  10.371  0.4158 -0.7046 -0.5198
19255SOL    HW164623   1.562   3.039  10.348 -1.0214 -1.2683  0.3788
19255SOL    HW264624   1.514   3.127  10.462 -1.1473  0.4066 -0.9319
19256SOL     OW64625   3.841   1.981   3.260 -0.1964 -0.0338  0.4376
19256SOL    HW164626   3.820   1.969   3.353 -0.0485 -0.4649  0.4180
19256SOL    HW264627   3.913   1.920   3.244 -0.9890 -0.8331 -0.2445
19257SOL     OW64628   1.548  10.017   4.234 -0.3112 -0.6194  0.0912
19257SOL    HW164629   1.557  10.084   4.167 -3.7143 -1.3298 -1.3148
19257SOL    HW264630   1.564  10.063   4.317 -0.4819  1.4274 -0.9464
19258SOL     OW64631   0.060  12.492  11.353  0.5175  0.1895  0.5548
19258SOL    HW164632   0.048  12.452  11.267  0.8517  2.2767 -0.5220
19258SOL    HW264633   0.121  12.434  11.398 -0.0531 -1.2076 -0.4114
19259SOL     OW64634   1.720   4.224   4.962  0.2585  0.1326  0.7136
19259SOL    HW164635   1.793   4.233   4.902  0.4597  1.4198  1.1220
19259SOL    HW264636   1.644   4.256   4.913  0.3822  0.9553  1.0311
19260SOL     OW64637   1.579   7.479   5.648 -0.4597 -0.1673  0.4791
19260SOL    HW164638   1.607   7.564   5.615 -0.0916 -0.6522 -0.4812
19260SOL    HW264639   1.507   7.454   5.591  0.1091 -0.9643  0.0950
19261SOL     OW64640   8.259   0.415   2.555  0.6757 -0.4764  0.4417
19261SOL    HW164641   8.170   0.391   2.531  0.2969  1.8126 -0.7671
19261SOL    HW264642   8.266   0.395   2.648 -1.0124 -0.9269  0.4929
19262SOL     OW64643   8.824   0.782   8.870 -0.2512 -0.7272 -0.0543
19262SOL    HW164644   8.749   0.743   8.825  0.0225  0.0498 -1.2302
19262SOL    HW264645   8.799   0.784   8.962 -2.4781  1.2490 -0.6218
19263SOL     OW64646   6.086   4.762   6.390 -0.2846  0.1142 -0.2940
19263SOL    HW164647   6.014   4.817   6.357  0.8313  1.4213 -0.6524
19263SOL    HW264648   6.063   4.673   6.364 -2.5647  0.2520  0.9846
19264SOL     OW64649   8.549   7.750  12.420  0.2938  0.4463  0.4587
19264SOL    HW164650   8.473   7.722  12.472  1.3661  0.9400  2.4153
19264SOL    HW264651   8.617   7.687  12.444  0.4163 -0.2668 -1.6180
19265SOL     OW64652  11.891   7.274   9.381 -0.1665 -0.3736 -0.0534
19265SOL    HW164653  11.914   7.367   9.382 -0.3150 -0.3304  0.9480
19265SOL    HW264654  11.974   7.229   9.392  0.2431 -0.4832 -3.0036
19266SOL     OW64655   0.367   2.021  10.465 -0.1774  0.9721  0.0927
19266SOL    HW164656   0.446   2.074  10.470  0.4701  0.3481 -2.2819
19266SOL    HW264657   0.323   2.051  10.385 -1.1052 -0.3083  0.0842
19267SOL     OW64658   5.254   3.190  11.217 -0.5042 -0.6145 -0.5723
19267SOL    HW164659   5.211   3.114  11.256  0.4648 -1.0976 -0.4213
19267SOL    HW264660   5.299   3.156  11.140  0.3746 -0.3027 -0.2109
19268SOL     OW64661   7.814  10.934   4.901  0.4030  0.7093 -0.3223
19268SOL    HW164662   7.906  10.910   4.891  0.5750  0.7940  0.9291
19268SOL    HW264663   7.770  10.892   4.827  0.8988 -2.3580  0.9879
19269SOL     OW64664   0.559  10.764   0.758 -0.2942  0.2559  0.5737
19269SOL    HW164665   0.500  10.820   0.707  0.7474 -1.0006 -2.1984
19269SOL    HW264666   0.511  10.682   0.768  0.0731 -0.0072  0.2461
19270SOL     OW64667   3.103   8.319   0.164  0.5837 -0.6220  0.2240
19270SOL    HW164668   3.154   8.366   0.098 -0.5258 -0.2356 -0.3947
19270SOL    HW264669   3.131   8.228   0.156  2.5336 -0.1723  1.2155
19271SOL     OW64670   9.202   3.014   9.145 -0.3917 -0.1582  0.2591
19271SOL    HW164671   9.184   3.108   9.136 -2.0634 -0.6010 -1.5624
19271SOL    HW264672   9.191   2.996   9.239  1.4817  1.6973  0.9270
19272SOL     OW64673   2.055   4.372   3.968 -0.3442  0.2422  0.3645
19272SOL    HW164674   1.986   4.305   3.973 -0.2081  0.0755  0.0317
19272SOL    HW264675   2.112   4.342   3.897  0.4479  0.0185  1.0717
19273SOL     OW64676   2.079   0.491   7.721  0.3577  0.1706 -0.1347
19273SOL    HW164677   2.078   0.524   7.632  0.2967 -0.4389 -0.3658
19273SOL    HW264678   2.056   0.566   7.776 -1.5739  0.0900 -0.7851
19274SOL     OW64679   9.501   9.153   1.025  0.0798  0.1747 -0.7067
19274SOL    HW164680   9.464   9.128   0.940  1.6412  1.4365 -1.8361
19274SOL    HW264681   9.460   9.238   1.044  0.6362  0.4800 -0.8365
19275SOL     OW64682   7.870  12.515   6.241 -0.0152  0.7439  0.1680
19275SOL    HW164683   7.786  12.508   6.195  0.5109  0.4851 -0.7778
19275SOL    HW264684   7.936  12.500   6.173  0.7828 -2.4128  1.4509
19276SOL     OW64685   2.215  10.537   3.198  0.1615  0.2803  0.4690
19276SOL    HW164686   2.201  10.487   3.278  1.0050 -0.5306  0.1393
19276SOL    HW264687   2.277  10.606   3.222  2.9693 -1.8672 -0.1024
19277SOL     OW64688   9.336   2.633   1.738 -0.0270  0.1124  0.1599
19277SOL    HW164689   9.391   2.698   1.782  0.4433 -0.2721  0.1564
19277SOL    HW264690   9.249   2.671   1.738  0.0149  0.2592  1.1705
19278SOL     OW64691   8.041   3.040  10.094  0.5013  0.2737 -0.1128
19278SOL    HW164692   8.020   2.994  10.012 -4.0962 -1.2152  1.5704
19278SOL    HW264693   8.070   2.971  10.153  0.5066  0.7621  0.4583
19279SOL     OW64694   5.565  10.551   0.555 -0.3224  0.0764  0.7984
19279SOL    HW164695   5.596  10.609   0.625 -0.0899  0.3119  0.5079
19279SOL    HW264696   5.556  10.609   0.479 -0.0699 -0.2732  0.5009
19280SOL     OW64697   3.179   2.227   2.598  0.5799 -0.2484  0.1958
19280SOL    HW164698   3.123   2.281   2.542  0.7778 -0.5347 -0.2808
19280SOL    HW264699   3.122   2.204   2.672  0.3913  0.3267  0.2410
19281SOL     OW64700   9.025   3.371  12.372 -0.1520  0.3439  0.2547
19281SOL    HW164701   9.082   3.333  12.438 -1.0965 -1.0679  0.3139
19281SOL    HW264702   9.084   3.411  12.308  0.8282  0.1268  1.0158
19282SOL     OW64703  11.695   4.922   5.124  0.0134  0.2053 -0.0437
19282SOL    HW164704  11.678   4.870   5.202  1.3721  0.1956  0.2825
19282SOL    HW264705  11.759   4.988   5.153  1.1905 -0.3281 -1.3293
19283SOL     OW64706   3.507   3.793   3.222 -0.4280 -0.4546  0.1776
19283SOL    HW164707   3.545   3.850   3.155 -1.4888  0.6858  0.4909
19283SOL    HW264708   3.435   3.749   3.178 -1.2879  0.4884  0.6006
19284SOL     OW64709   8.392   0.742   8.884 -0.0146 -0.6710 -0.5763
19284SOL    HW164710   8.412   0.667   8.941  1.6162  0.2956  0.1858
19284SOL    HW264711   8.395   0.818   8.942 -2.0980 -0.0138 -1.2477
19285SOL     OW64712   9.811   4.458   2.665 -0.4755 -0.0046 -0.0879
19285SOL    HW164713   9.892   4.410   2.649  1.2150  2.5152  0.3996
19285SOL    HW264714   9.753   4.393   2.706  1.7006 -1.6043  0.6855
19286SOL     OW64715   0.265   3.089  10.001 -0.0922  0.4050 -0.1514
19286SOL    HW164716   0.300   3.174  10.027 -0.7176  0.4393  0.6339
19286SOL    HW264717   0.176   3.088  10.037 -1.6561  1.0714 -3.6179
19287SOL     OW64718   9.050   4.815   6.604  0.6262 -0.4498 -0.3565
19287SOL    HW164719   9.112   4.867   6.656 -2.6072  0.9101  2.5181
19287SOL    HW264720   9.059   4.726   6.637  0.9321 -0.2433  0.1203
19288SOL     OW64721   7.509   1.120   7.156  0.9149  0.2582 -0.0032
19288SOL    HW164722   7.450   1.059   7.201 -0.0575 -0.0070 -1.5560
19288SOL    HW264723   7.596   1.100   7.190  0.5208 -1.5561  0.0158
19289SOL     OW64724   7.144   6.745   8.459  0.5584  0.0570  0.2514
19289SOL    HW164725   7.118   6.804   8.389  1.4176  1.7216  1.2782
19289SOL    HW264726   7.109   6.784   8.539  3.5280  0.8129  1.3146
19290SOL     OW64727   4.606   6.397   9.582 -0.2320  0.1599 -0.1536
19290SOL    HW164728   4.595   6.454   9.506 -3.5762 -1.3874 -1.0280
19290SOL    HW264729   4.517   6.385   9.615  0.8883 -0.8313  2.8614
19291SOL     OW64730   6.778   6.946   2.461 -0.7119 -0.5108  0.5412
19291SOL    HW164731   6.694   6.983   2.431  0.8865  1.4909 -1.8853
19291SOL    HW264732   6.786   6.864   2.412 -2.0871 -1.8157  2.3455
19292SOL     OW64733   9.324   4.110   5.269  0.6374 -0.4637 -0.1952
19292SOL    HW164734   9.347   4.082   5.357  0.4976  0.5567  0.1870
19292SOL    HW264735   9.395   4.171   5.244 -0.7217  1.4535  0.3617
19293SOL     OW64736   8.851   3.662   4.286  0.0150 -0.1597  0.0093
19293SOL    HW164737   8.861   3.567   4.290 -1.4372 -0.3072  1.1328
19293SOL    HW264738   8.936   3.694   4.256  0.1463 -1.8764 -1.6344
19294SOL     OW64739   7.725   2.489   6.916 -0.0984 -0.3173  0.0869
19294SOL    HW164740   7.688   2.577   6.927 -0.0971 -0.3681  0.5292
19294SOL    HW264741   7.715   2.448   7.002 -0.5886 -0.9429 -0.2533
19295SOL     OW64742   7.353   6.119   6.429  0.0611 -0.0352 -0.0315
19295SOL    HW164743   7.309   6.086   6.351  1.3600 -1.6320 -0.1440
19295SOL    HW264744   7.430   6.164   6.396  0.4070 -0.3711  0.2991
19296SOL     OW64745   6.830   7.273   8.383  0.2013  0.6479 -0.2641
19296SOL    HW164746   6.790   7.217   8.316 -1.0150  0.7391  0.3603
19296SOL    HW264747   6.792   7.360   8.368 -1.5135  0.2962  1.6343
19297SOL     OW64748   3.879  11.706   2.108 -0.2245  0.2517 -0.2365
19297SOL    HW164749   3.962  11.676   2.072  0.7219  2.1351  0.2770
19297SOL    HW264750   3.874  11.668   2.195  0.6577  1.0376  0.1657
19298SOL     OW64751   9.847   6.467   5.760  0.0957  0.7265 -0.5129
19298SOL    HW164752   9.937   6.482   5.734  0.0881  2.8510  0.4603
19298SOL    HW264753   9.795   6.486   5.681  0.4024  1.5580 -0.5289
19299SOL     OW64754   7.762   8.917  11.266 -0.6020  0.6344 -0.0244
19299SOL    HW164755   7.777   8.943  11.175 -0.1382 -0.9147 -0.4146
19299SOL    HW264756   7.757   8.822  11.264  1.3398  0.4219  1.8300
19300SOL     OW64757   8.174   4.664   7.717  0.9027 -0.4322  0.2204
19300SOL    HW164758   8.139   4.721   7.649  2.8321  0.4847 -0.0746
19300SOL    HW264759   8.100   4.646   7.774  0.2412  2.5836  0.4669
19301SOL     OW64760   4.022   1.837   3.627 -0.2056 -0.5946 -0.3547
19301SOL    HW164761   3.977   1.754   3.642 -0.5689 -0.7579 -2.2240
19301SOL    HW264762   4.095   1.814   3.569  0.5300  0.1850  0.2284
19302SOL     OW64763   6.471   8.871   8.132  0.1062  0.0533  0.4690
19302SOL    HW164764   6.394   8.886   8.078 -0.5988  0.1932  1.4923
19302SOL    HW264765   6.530   8.943   8.110 -0.8860  1.0914  1.1331
19303SOL     OW64766  10.919   1.490   3.677  0.3772 -0.0533 -0.3703
19303SOL    HW164767  11.015   1.484   3.683  0.2915 -0.2323  1.4446
19303SOL    HW264768  10.888   1.401   3.692 -0.1023  0.1615 -0.0762
19304SOL     OW64769   6.909   6.504   3.993 -0.3568  0.0140  0.0525
19304SOL    HW164770   6.871   6.589   3.974 -1.4648 -0.2350  1.0215
19304SOL    HW264771   6.902   6.455   3.911  0.2577  0.8328 -0.4980
19305SOL     OW64772   6.054   8.160  11.455 -0.0672  0.2219  0.5943
19305SOL    HW164773   6.126   8.134  11.396 -1.8878 -1.2964 -1.0870
19305SOL    HW264774   6.013   8.078  11.481  0.1660  0.9064  3.4631
19306SOL     OW64775   8.477   5.525  12.567 -0.0445  0.1171 -0.3141
19306SOL    HW164776   8.554   5.532  12.510 -0.8162  1.2627 -1.2348
19306SOL    HW264777   8.514   5.524  12.656  1.1448 -1.2955 -0.7694
19307SOL     OW64778  11.657   6.178   8.737 -0.7056 -0.4197  0.6204
19307SOL    HW164779  11.742   6.150   8.703 -0.9255  0.5652 -0.8119
19307SOL    HW264780  11.674   6.199   8.829  0.6449 -0.0834  0.3124
19308SOL     OW64781   5.606   5.154  11.906 -0.0876  0.1910  0.3645
19308SOL    HW164782   5.691   5.135  11.947 -0.7137 -1.9196  0.8265
19308SOL    HW264783   5.548   5.173  11.980 -0.0607  1.5002  0.0606
19309SOL     OW64784   3.190   1.669   0.509 -0.1710  0.3472 -0.4106
19309SOL    HW164785   3.277   1.691   0.543 -0.1927 -0.0291 -0.1098
19309SOL    HW264786   3.130   1.720   0.563 -0.1876 -0.0315 -0.0686
19310SOL     OW64787   6.661   9.585   8.304  0.5818  0.1751 -0.2315
19310SOL    HW164788   6.667   9.519   8.373  0.7491 -2.0145 -2.2174
19310SOL    HW264789   6.623   9.539   8.229 -0.9585  2.8093 -1.2189
19311SOL     OW64790   7.081   3.957   3.585 -0.1147  0.4017 -0.2190
19311SOL    HW164791   7.122   4.040   3.608 -0.2440  1.1535 -2.4332
19311SOL    HW264792   7.107   3.897   3.655  1.6052  1.8020  0.4300
19312SOL     OW64793  10.665   2.051   9.353  0.2014  0.2847  0.1079
19312SOL    HW164794  10.720   1.980   9.320 -1.8505 -0.5439 -1.8350
19312SOL    HW264795  10.653   2.031   9.446  0.2930 -1.5095 -0.2259
19313SOL     OW64796  11.993   2.366   3.984 -0.6137  0.1053  0.1469
19313SOL    HW164797  11.939   2.429   4.031 -1.1535  0.7655 -1.3000
19313SOL    HW264798  11.988   2.393   3.892  0.2452 -1.2421 -0.3344
19314SOL     OW64799   5.103   7.642   6.773  0.0960 -0.2177  0.7014
19314SOL    HW164800   5.047   7.715   6.800  0.3803  0.0988  0.4435
19314SOL    HW264801   5.184   7.684   6.745 -0.8410 -0.3225 -2.5191
19315SOL     OW64802   7.966   6.936   7.941  0.4616 -0.1827  0.6780
19315SOL    HW164803   8.039   6.969   7.993  0.0174 -1.3715  2.1623
19315SOL    HW264804   8.002   6.861   7.894  0.4392 -0.1892  0.6709
19316SOL     OW64805  12.306   3.323  10.614  0.0549 -0.1078  0.1594
19316SOL    HW164806  12.326   3.407  10.572 -1.1485 -0.5044 -1.2932
19316SOL    HW264807  12.226   3.340  10.663  0.3393 -0.1653  0.6417
19317SOL     OW64808   7.454  12.190   2.338 -0.0643  0.6754  0.2151
19317SOL    HW164809   7.401  12.119   2.300 -0.3937  0.7580  0.5130
19317SOL    HW264810   7.544  12.157   2.335 -0.1050  0.6158 -0.4959
19318SOL     OW64811   3.340   7.722   3.618  0.2544 -0.7025 -0.4733
19318SOL    HW164812   3.311   7.725   3.709  2.1616  0.5804  0.1359
19318SOL    HW264813   3.424   7.767   3.617 -0.5623  1.0489 -3.1985
19319SOL     OW64814  10.672   5.819   8.605  0.4238  0.0197  0.1387
19319SOL    HW164815  10.673   5.908   8.570  1.6135 -0.5482 -1.4340
19319SOL    HW264816  10.580   5.791   8.595 -0.0584  1.2021  1.0825
19320SOL     OW64817   7.344   1.387  10.421 -0.3270 -0.1614  0.5272
19320SOL    HW164818   7.426   1.370  10.376  0.0969  1.6838  0.5200
19320SOL    HW264819   7.336   1.483  10.421 -1.5579 -0.2190  2.1436
19321SOL     OW64820   1.874   6.927   8.564  0.1242 -0.2254 -0.0256
19321SOL    HW164821   1.917   6.903   8.482 -0.5985  0.6060 -0.6801
19321SOL    HW264822   1.912   6.869   8.630  1.5166 -0.1657 -0.7459
19322SOL     OW64823   3.290   6.921   2.344 -0.2181 -0.1799  0.3349
19322SOL    HW164824   3.244   6.997   2.380 -0.9386 -1.3297  1.9923
19322SOL    HW264825   3.376   6.923   2.387 -0.7263 -1.0090  1.4500
19323SOL     OW64826   7.157   7.417   0.545 -0.3766  0.0490 -0.0904
19323SOL    HW164827   7.196   7.436   0.460 -1.6138  2.9166 -0.1425
19323SOL    HW264828   7.063   7.408   0.527 -0.5912  0.1592  0.8875
19324SOL     OW64829   5.735  10.961   5.567  0.0067 -0.0709  0.5877
19324SOL    HW164830   5.689  10.901   5.510 -1.4695  1.8740 -0.3896
19324SOL    HW264831   5.807  10.994   5.513  2.1351 -2.3908  1.7998
19325SOL     OW64832   7.672   0.785   3.145 -0.0452  0.1453 -0.6035
19325SOL    HW164833   7.753   0.747   3.182  0.7299  1.2049 -1.1623
19325SOL    HW264834   7.659   0.865   3.195 -0.9023 -0.1349 -0.3629
19326SOL     OW64835   3.887  10.651  11.535 -0.0015 -0.8640  0.9358
19326SOL    HW164836   3.910  10.649  11.442  0.0629 -1.8624  0.9585
19326SOL    HW264837   3.958  10.700  11.576 -0.1124 -0.2759  0.4449
19327SOL     OW64838   6.450   9.529   7.195  0.0022  0.9336  0.3978
19327SOL    HW164839   6.379   9.481   7.153  0.6346  0.1999  0.1400
19327SOL    HW264840   6.414   9.556   7.280 -0.2281 -0.3864  0.7385
19328SOL     OW64841  11.474   5.237   9.700 -0.7815  0.6208  0.3264
19328SOL    HW164842  11.462   5.217   9.793 -1.2072  0.8719  0.3302
19328SOL    HW264843  11.562   5.272   9.694 -0.2895 -0.5453  0.4371
19329SOL     OW64844  11.608   1.649  10.600  0.3163 -0.3025  0.2254
19329SOL    HW164845  11.642   1.627  10.687 -0.6524  0.7725  0.9003
19329SOL    HW264846  11.544   1.580  10.582  1.4636 -1.2792 -0.2406
19330SOL     OW64847   5.985   6.905   2.862  0.0606 -0.1848  0.1194
19330SOL    HW164848   5.972   6.942   2.775  2.2163  1.0957  0.2691
19330SOL    HW264849   5.997   6.811   2.847  2.1337  0.2420 -1.2086
19331SOL     OW64850   3.820   2.185  10.804 -0.0523 -0.6179 -0.6012
19331SOL    HW164851   3.859   2.189  10.717  0.4483 -0.3961 -0.3691
19331SOL    HW264852   3.843   2.098  10.837  0.8626 -0.2215 -0.1822
19332SOL     OW64853   9.925   4.411   5.158  0.0084 -0.2648  0.0261
19332SOL    HW164854   9.939   4.432   5.250 -0.0234  2.1532 -0.4749
19332SOL    HW264855  10.001   4.358   5.134 -0.4057 -1.6758  1.6063
19333SOL     OW64856   1.239   8.419  11.995 -0.2822  0.5497 -0.3118
19333SOL    HW164857   1.152   8.397  11.963 -0.8098 -0.2856  1.5400
19333SOL    HW264858   1.227   8.496  12.050 -0.5855 -1.4697  2.7258
19334SOL     OW64859   2.998   4.519  12.108 -0.4572  0.0128  0.2408
19334SOL    HW164860   3.056   4.591  12.134  1.5558 -0.6916 -1.9033
19334SOL    HW264861   2.909   4.555  12.119  0.3079  1.1974  3.4602
19335SOL     OW64862  10.136   5.658   2.304 -0.2942 -0.6568  0.7970
19335SOL    HW164863  10.206   5.659   2.369 -1.3005  1.1783  1.9445
19335SOL    HW264864  10.093   5.743   2.313 -1.1729 -0.7710 -1.5501
19336SOL     OW64865   0.236  11.479   3.719  0.1203  0.0755  0.0225
19336SOL    HW164866   0.273  11.392   3.705  1.6635  0.8875 -1.2060
19336SOL    HW264867   0.243  11.522   3.634  1.6471  2.2232  1.1553
19337SOL     OW64868   5.552   4.710   9.782  0.2192  0.1808  0.5460
19337SOL    HW164869   5.521   4.634   9.832 -0.0667 -0.1945 -0.1962
19337SOL    HW264870   5.496   4.782   9.812 -0.1141 -0.0936  0.5968
19338SOL     OW64871   4.504   4.822   9.795 -0.5097 -0.1613 -0.8388
19338SOL    HW164872   4.592   4.814   9.757 -0.1393 -2.8556  0.3900
19338SOL    HW264873   4.445   4.815   9.720  0.2714 -1.9627 -1.3285
19339SOL     OW64874  11.041   1.245   8.918 -0.1159 -0.5048  0.6156
19339SOL    HW164875  10.953   1.211   8.904 -0.2924  0.3876 -0.5814
19339SOL    HW264876  11.096   1.193   8.860  0.1467 -0.9740  1.2684
19340SOL     OW64877  10.154   0.826  10.114 -0.2966  0.2198 -0.3264
19340SOL    HW164878  10.173   0.858  10.026 -0.2418  1.0258 -0.0263
19340SOL    HW264879  10.071   0.779  10.105 -1.1732  1.7341 -0.4990
19341SOL     OW64880  10.034  12.301   0.677 -0.6477  0.6120  0.2573
19341SOL    HW164881  10.114  12.350   0.663 -0.0331 -0.6869 -1.0221
19341SOL    HW264882  10.020  12.305   0.772  1.1858  0.4827  0.5731
19342SOL     OW64883   3.723   4.897   9.113 -0.0961 -0.4948  0.0702
19342SOL    HW164884   3.735   4.985   9.076  0.7772 -0.2505  0.8884
19342SOL    HW264885   3.810   4.872   9.143 -0.2301 -1.8616 -0.5863
19343SOL     OW64886  11.959   6.626   7.219  0.8091  0.0251 -0.0539
19343SOL    HW164887  11.886   6.664   7.170  0.8618  0.5477  0.2649
19343SOL    HW264888  11.964   6.535   7.188 -0.4597 -0.2458  0.4633
19344SOL     OW64889  10.339   5.455   3.871 -0.5487 -0.2292 -0.0514
19344SOL    HW164890  10.270   5.434   3.808 -0.2868 -2.0219  0.2049
19344SOL    HW264891  10.324   5.396   3.944 -0.3369  1.2430  1.2282
19345SOL     OW64892   1.862   9.152   7.332 -0.1417 -0.2220  0.2437
19345SOL    HW164893   1.928   9.172   7.398  0.4861 -0.4219 -0.3063
19345SOL    HW264894   1.816   9.075   7.367  0.0679 -0.2188  0.5299
19346SOL     OW64895   2.368   7.022   5.933 -0.0134 -0.5590  0.0588
19346SOL    HW164896   2.435   6.964   5.969  0.1680 -0.1569  0.3819
19346SOL    HW264897   2.417   7.098   5.901 -0.4319  0.6495  2.0716
19347SOL     OW64898  10.526   3.736   0.662 -0.2147 -0.4182  0.0050
19347SOL    HW164899  10.507   3.830   0.658 -0.6354 -0.5441 -1.8649
19347SOL    HW264900  10.457   3.700   0.718 -0.6381  0.2452 -0.0787
19348SOL     OW64901  10.843   8.147  12.493  0.2874  0.7478 -0.1079
19348SOL    HW164902  10.791   8.160  12.572 -1.1917  2.5639 -1.2864
19348SOL    HW264903  10.928   8.187  12.513 -0.0571  1.1604  0.5750
19349SOL     OW64904  11.371  11.983  11.401  0.0134 -0.0287  0.3498
19349SOL    HW164905  11.352  12.038  11.325  2.2124 -0.0644 -0.2889
19349SOL    HW264906  11.463  11.961  11.392 -0.0183 -1.1778  2.3224
19350SOL     OW64907   4.708   2.593  12.452  0.1653  0.0269  0.1811
19350SOL    HW164908   4.675   2.631  12.371 -0.1266  0.1633  0.3645
19350SOL    HW264909   4.658   2.512  12.463  1.3208 -0.8422 -0.6201
19351SOL     OW64910   8.872   4.628  11.130 -0.1438  0.0036 -1.0460
19351SOL    HW164911   8.963   4.649  11.150  0.2120 -1.6517 -0.8404
19351SOL    HW264912   8.875   4.589  11.043 -0.2115 -2.6459  0.0384
19352SOL     OW64913  12.448   8.633  12.223 -0.4948  0.0737  0.1884
19352SOL    HW164914  12.352   8.639  12.219 -0.4272  1.7835  0.3227
19352SOL    HW264915  12.477   8.663  12.137 -0.0510  1.5933  0.8340
19353SOL     OW64916   1.552   1.069   5.209  0.0727 -0.2135  0.1200
19353SOL    HW164917   1.581   0.999   5.267 -0.5936 -1.1506 -0.6487
19353SOL    HW264918   1.618   1.137   5.220 -0.3527 -0.0769  2.4254
19354SOL     OW64919   6.036   2.900   6.699 -0.2780  0.5989  0.0106
19354SOL    HW164920   6.098   2.897   6.626 -1.0226  2.8409 -0.8169
19354SOL    HW264921   5.961   2.849   6.669 -0.7952  1.9194 -1.0970
19355SOL     OW64922   9.140  11.815  10.536 -0.2857 -0.6158 -0.1696
19355SOL    HW164923   9.155  11.780  10.624  0.8998 -0.6684 -0.3777
19355SOL    HW264924   9.157  11.908  10.544 -0.3338 -0.5957 -0.3016
19356SOL     OW64925   8.040   4.915   4.250  0.4495  0.5817  0.1162
19356SOL    HW164926   8.059   4.986   4.188  0.7759 -0.9152 -1.5783
19356SOL    HW264927   8.113   4.918   4.312  0.6341  1.4981 -0.1201
19357SOL     OW64928   4.103   5.461   4.017 -0.3971  0.4290  0.6966
19357SOL    HW164929   4.077   5.420   3.935 -0.8544  0.2198  0.9429
19357SOL    HW264930   4.117   5.388   4.077  1.5131  0.4773  0.3761
19358SOL     OW64931   2.766   5.535   6.475  0.1571  0.1690 -0.0977
19358SOL    HW164932   2.850   5.554   6.434  0.5748 -2.3500 -0.6042
19358SOL    HW264933   2.701   5.582   6.422  1.0793  0.5576 -0.9055
19359SOL     OW64934  11.108   7.589   8.256  0.0500 -0.4975 -0.4131
19359SOL    HW164935  11.029   7.639   8.276 -0.0384 -0.9472  0.3816
19359SOL    HW264936  11.176   7.629   8.311 -0.1536 -1.6083  0.6937
19360SOL     OW64937   6.804   7.682   9.668 -0.1499 -0.5687 -0.5312
19360SOL    HW164938   6.734   7.707   9.729  0.1229 -0.5051 -0.2397
19360SOL    HW264939   6.763   7.686   9.582 -0.4555 -0.3412 -0.3797
19361SOL     OW64940  10.260   7.882   0.753 -0.4137  0.1507  0.0800
19361SOL    HW164941  10.175   7.845   0.777 -0.9312  0.6509 -0.9178
19361SOL    HW264942  10.295   7.916   0.836 -1.8446  1.2378  0.2875
19362SOL     OW64943   3.699  12.213  10.920 -0.5396 -0.1848 -0.3490
19362SOL    HW164944   3.691  12.294  10.971  0.3911  1.1490 -2.2423
19362SOL    HW264945   3.790  12.212  10.890 -0.0368 -2.8152  0.9648
19363SOL     OW64946   3.767   2.726  10.497  0.2171  0.4556 -0.3993
19363SOL    HW164947   3.712   2.653  10.525  0.0964  0.8844  0.4993
19363SOL    HW264948   3.790   2.772  10.578  1.1650  0.7997 -0.8432
19364SOL     OW64949   9.014   3.018   7.652 -0.4809 -0.1504 -0.1964
19364SOL    HW164950   9.033   3.063   7.734  1.1311 -0.7127 -0.2233
19364SOL    HW264951   8.924   2.988   7.662 -0.4721  0.1995  1.1756
19365SOL     OW64952   6.244   2.679  11.825  0.0944  0.2303  0.0450
19365SOL    HW164953   6.318   2.631  11.862 -1.0523 -1.4423  0.2742
19365SOL    HW264954   6.248   2.766  11.866  1.6131  0.0128  0.4124
19366SOL     OW64955   4.094   6.506   8.905  0.0703  0.2172  0.2343
19366SOL    HW164956   4.000   6.496   8.896 -0.1171  0.4127  1.7184
19366SOL    HW264957   4.124   6.528   8.817 -1.1100 -0.8889 -0.4842
19367SOL     OW64958   1.401   7.041  10.645  0.2802 -0.7447 -0.3725
19367SOL    HW164959   1.466   6.974  10.623 -0.4085 -1.7206  0.4980
19367SOL    HW264960   1.356   7.059  10.562  0.4008 -1.4425 -0.5951
19368SOL     OW64961   9.611   3.409   8.355  0.0849  0.3559 -0.0442
19368SOL    HW164962   9.579   3.334   8.305  0.0770  0.5249 -0.2943
19368SOL    HW264963   9.656   3.370   8.430  0.6708  0.0849 -0.5248
19369SOL     OW64964   3.547   9.388   6.010  0.3247  0.7340  0.4200
19369SOL    HW164965   3.553   9.293   6.000 -0.2114  0.6653  0.7273
19369SOL    HW264966   3.619   9.411   6.068  0.7587  0.5824 -0.0442
19370SOL     OW64967   2.039   8.850   2.275  0.0065  0.4840 -0.3155
19370SOL    HW164968   2.078   8.874   2.359 -0.5695 -2.8252  1.0628
19370SOL    HW264969   2.114   8.824   2.220  0.2818  1.3483 -0.3553
19371SOL     OW64970  10.935  12.325  12.400  0.3637 -0.2151 -0.1008
19371SOL    HW164971  10.963  12.400  12.452  1.0821 -0.6571  0.1631
19371SOL    HW264972  10.870  12.281  12.456 -0.7867  0.7251 -0.6527
19372SOL     OW64973   4.798   0.629   2.517  0.1702 -0.0233 -0.0794
19372SOL    HW164974   4.732   0.656   2.453  1.1858 -1.4679 -1.8465
19372SOL    HW264975   4.858   0.703   2.522 -0.3731  0.4279 -0.1534
19373SOL     OW64976   7.496   7.528  11.094  0.2097 -0.3320  1.1515
19373SOL    HW164977   7.566   7.490  11.042  1.4919  0.7117  2.0435
19373SOL    HW264978   7.444   7.454  11.123  1.1403 -1.1661  0.7422
19374SOL     OW64979  10.344   5.132   3.341  0.0761 -0.7045 -0.0440
19374SOL    HW164980  10.346   5.044   3.378  1.5602 -0.1158  1.4429
19374SOL    HW264981  10.318   5.188   3.414  1.0754  0.2866 -0.4108
19375SOL     OW64982  12.503   7.729  12.410  0.1808  0.4361  0.3802
19375SOL    HW164983  12.507   7.633  12.413 -0.4366  0.4061  0.3715
19375SOL    HW264984  12.438   7.753  12.476 -1.2392  0.7166 -1.0621
19376SOL     OW64985   5.486   2.642   7.677  0.1281  0.0864 -0.4355
19376SOL    HW164986   5.540   2.693   7.617 -1.5174  0.8166 -1.3721
19376SOL    HW264987   5.540   2.630   7.755  1.3840  1.3132 -1.0891
19377SOL     OW64988   6.202  12.101   3.132 -0.7304 -0.0851  0.1023
19377SOL    HW164989   6.128  12.044   3.113 -0.1754 -1.0293  0.6824
19377SOL    HW264990   6.248  12.110   3.049 -0.0461 -1.6480  0.2706
19378SOL     OW64991   2.142   8.379  12.009  0.4927  0.4711  0.5783
19378SOL    HW164992   2.168   8.468  11.986 -0.9174  1.8406  3.7436
19378SOL    HW264993   2.056   8.389  12.050  0.6730 -2.2625  1.8162
19379SOL     OW64994   6.912   3.070   2.108  0.4682  0.3025 -0.1106
19379SOL    HW164995   6.923   3.085   2.014 -0.7451  1.4571 -0.0883
19379SOL    HW264996   6.998   3.085   2.145  1.0270 -0.4221 -1.0565
19380SOL     OW64997   5.588  11.592   7.505  0.4551 -0.0446 -0.1204
19380SOL    HW164998   5.533  11.521   7.470 -0.6771  1.0843 -0.7155
19380SOL    HW264999   5.674  11.577   7.465  0.6475 -1.9053  0.9030
19381SOL     OW65000   0.825  11.620   8.918  0.1432 -0.3870 -0.3612
19381SOL    HW165001   0.893  11.554   8.934  0.3669 -0.4284 -1.4043
19381SOL    HW265002   0.870  11.703   8.930 -0.1343 -0.4039  0.9357
19382SOL     OW65003   0.623   6.439   4.133  0.3706 -0.2351  0.4347
19382SOL    HW165004   0.642   6.508   4.196 -0.7497 -0.2111  0.7735
19382SOL    HW265005   0.613   6.360   4.186 -0.6979 -0.1922  0.3347
19383SOL     OW65006   2.405   7.387  11.252 -0.2545  0.2275 -0.2939
19383SOL    HW165007   2.352   7.453  11.208 -1.6974  0.3747  1.5580
19383SOL    HW265008   2.366   7.304  11.227  0.6719  0.1069 -1.4633
19384SOL     OW65009   3.167  12.563   4.093  0.2210 -0.0225  0.5519
19384SOL    HW165010   3.112  12.485   4.099 -0.9595  0.7237 -0.1541
19384SOL    HW265011   3.254  12.530   4.069 -0.2633 -1.1120  0.2359
19385SOL     OW65012   3.924   4.372  11.570 -0.6246 -0.1357 -0.5102
19385SOL    HW165013   3.929   4.330  11.656  1.6434  1.7044  0.3439
19385SOL    HW265014   3.921   4.466  11.589  0.3757  0.3368 -2.4484
19386SOL     OW65015   5.056   1.563   2.521  0.3190  0.3919  0.4123
19386SOL    HW165016   5.107   1.542   2.600  1.8011 -0.0421 -0.6290
19386SOL    HW265017   5.028   1.653   2.534 -0.4175 -0.0179  1.9249
19387SOL     OW65018   2.451  10.346   1.427  0.5177 -0.2521 -0.5183
19387SOL    HW165019   2.364  10.312   1.448  0.2353 -0.3281 -1.7258
19387SOL    HW265020   2.503  10.268   1.406  1.4452 -0.3909  2.0056
19388SOL     OW65021   5.673   9.439  11.686  0.2261  0.5064  0.0992
19388SOL    HW165022   5.656   9.430  11.780  1.8197 -0.0927  0.3594
19388SOL    HW265023   5.644   9.356  11.648  1.5926 -0.1486  0.4112
19389SOL     OW65024   4.711   6.991   1.408  0.5833  0.0391 -0.5347
19389SOL    HW165025   4.779   7.040   1.455  0.7070 -0.1257 -0.5425
19389SOL    HW265026   4.751   6.906   1.390  0.1251 -0.3129  0.0832
19390SOL     OW65027  10.200   5.752   2.828 -0.4904 -0.5676  0.0143
19390SOL    HW165028  10.254   5.736   2.906  1.8912  0.3714 -1.3444
19390SOL    HW265029  10.176   5.844   2.833 -1.8849 -0.9193  0.4851
19391SOL     OW65030   2.939  12.155  10.952  0.4375 -0.1201  0.3267
19391SOL    HW165031   3.028  12.175  10.982  1.0101 -0.4497 -1.0736
19391SOL    HW265032   2.915  12.229  10.897 -0.7239  0.6257  1.7683
19392SOL     OW65033   1.431   2.858   5.962 -0.2358 -0.2538  1.1687
19392SOL    HW165034   1.341   2.843   5.936 -0.2544  1.0517  0.3734
19392SOL    HW265035   1.460   2.931   5.907  2.0256 -2.0551 -0.2389
19393SOL     OW65036   1.519   0.868   8.411  0.5618  0.1509 -0.2656
19393SOL    HW165037   1.463   0.887   8.487 -0.0243 -1.2317 -0.3106
19393SOL    HW265038   1.564   0.950   8.393 -1.1610  1.2177  0.0345
19394SOL     OW65039   7.704   8.109   7.373  0.5818 -0.5508  0.2303
19394SOL    HW165040   7.668   8.037   7.322  0.9120  0.9863 -2.3550
19394SOL    HW265041   7.789   8.127   7.333  0.2915  1.5648  0.4317
19395SOL     OW65042   1.823  11.985   8.110 -0.1223 -0.1095 -0.1434
19395SOL    HW165043   1.803  11.951   8.197 -4.1743 -1.1975 -1.2957
19395SOL    HW265044   1.880  12.060   8.127 -1.4461  0.2923  3.5605
19396SOL     OW65045   9.351   1.460   9.784 -0.0909 -0.4415 -0.3009
19396SOL    HW165046   9.388   1.540   9.747 -1.8881  0.8494  0.5667
19396SOL    HW265047   9.394   1.452   9.869 -2.7780  2.0444  1.5050
19397SOL     OW65048   1.452  11.747  12.211  0.3580 -0.0421  0.6996
19397SOL    HW165049   1.400  11.786  12.140  1.0205  1.3073  0.9277
19397SOL    HW265050   1.394  11.681  12.249  0.0048 -0.8531 -1.1231
19398SOL     OW65051   1.939  10.152  12.020  0.3813 -0.2668 -0.3814
19398SOL    HW165052   1.947  10.094  11.944  1.3349  0.4179 -0.8264
19398SOL    HW265053   1.937  10.093  12.096  0.2062 -0.9215 -0.8887
19399SOL     OW65054   2.721   1.698   6.082 -0.0027 -0.5303  0.0839
19399SOL    HW165055   2.763   1.683   5.997 -1.4330 -1.7342 -0.4495
19399SOL    HW265056   2.628   1.684   6.065 -0.3528 -0.4302  1.7814
19400SOL     OW65057   5.547   8.613  12.373 -0.2377 -0.1138  0.5358
19400SOL    HW165058   5.527   8.626  12.280  0.2882  1.1993  0.5776
19400SOL    HW265059   5.462   8.610  12.417 -0.5347 -1.6925 -0.0644
19401SOL     OW65060  10.244   0.536   0.745 -0.1052 -0.0076  0.0588
19401SOL    HW165061  10.198   0.471   0.797 -0.2809  0.7958  0.9455
19401SOL    HW265062  10.334   0.504   0.740  0.1329  0.3247  1.6443
19402SOL     OW65063   3.726   6.339   2.535 -0.1709  0.0803  0.0402
19402SOL    HW165064   3.662   6.397   2.493  0.3703  0.9277  0.3632
19402SOL    HW265065   3.808   6.389   2.533  0.4062 -0.8455 -0.0471
19403SOL     OW65066   9.157   1.135   8.539  0.2127 -0.0765 -0.0808
19403SOL    HW165067   9.113   1.065   8.491  0.9272 -2.2272  2.2198
19403SOL    HW265068   9.240   1.147   8.494 -0.1944 -0.2340 -0.8864
19404SOL     OW65069   0.136   6.085   4.528 -0.6967  0.3401 -0.7141
19404SOL    HW165070   0.166   6.102   4.618 -1.7693  0.0496 -0.2887
19404SOL    HW265071   0.129   6.172   4.489  1.3089  0.3943 -1.0524
19405SOL     OW65072   1.271   6.430  10.388 -0.7724  0.2343  0.0215
19405SOL    HW165073   1.198   6.489  10.371  0.2048  1.4546 -0.0981
19405SOL    HW265074   1.235   6.364  10.448 -1.6619  1.4851  0.9231
19406SOL     OW65075   7.009   0.185   6.323 -0.1529 -0.3919 -0.0525
19406SOL    HW165076   7.020   0.247   6.250 -0.3667 -0.4675 -0.1492
19406SOL    HW265077   6.961   0.112   6.286 -0.5088 -0.3073  0.2305
19407SOL     OW65078  11.047   7.572   5.701  0.0023  0.0152  0.0126
19407SOL    HW165079  11.101   7.563   5.779  0.1522 -0.1770 -0.1115
19407SOL    HW265080  11.101   7.624   5.640 -0.5453  1.1015  0.4341
19408SOL     OW65081   0.984   5.416   2.763 -0.0001 -0.3175 -0.0597
19408SOL    HW165082   0.922   5.489   2.757 -1.0871 -1.2112 -0.0921
19408SOL    HW265083   1.025   5.426   2.849  0.4002  0.7367 -0.3650
19409SOL     OW65084  10.291  12.294   9.034 -0.3688  0.9325  0.0677
19409SOL    HW165085  10.323  12.205   9.047  1.7385  1.3539 -1.5543
19409SOL    HW265086  10.237  12.312   9.111 -1.8780 -2.1252 -0.1478
19410SOL     OW65087   3.995   8.694   0.301 -0.1174 -0.2424 -0.3005
19410SOL    HW165088   3.922   8.750   0.277 -0.7567 -0.5715  0.7733
19410SOL    HW265089   4.073   8.747   0.287 -0.7411  1.3195  1.6227
19411SOL     OW65090   4.210   8.340   7.065  0.1655  0.6088 -0.1761
19411SOL    HW165091   4.228   8.434   7.073  0.0871  0.6337 -0.2914
19411SOL    HW265092   4.159   8.319   7.143  0.6450  0.5491  0.1254
19412SOL     OW65093   4.794  10.197   1.731  0.0755  0.5648 -0.9328
19412SOL    HW165094   4.737  10.270   1.755 -0.7722 -0.1770 -0.6444
19412SOL    HW265095   4.753  10.159   1.653 -1.1684 -1.3669  0.5491
19413SOL     OW65096   4.408   3.609  12.443  0.2610  0.2175 -0.3315
19413SOL    HW165097   4.391   3.606  12.349  0.9183 -0.6552 -0.4418
19413SOL    HW265098   4.504   3.613  12.449  0.2876 -0.9769  0.3045
19414SOL     OW65099   4.103   0.622   0.250 -0.5974 -0.2685 -0.3163
19414SOL    HW165100   4.174   0.565   0.280 -1.5568 -0.7014  1.2737
19414SOL    HW265101   4.132   0.711   0.273 -0.3088 -0.3859 -0.2249
19415SOL     OW65102   9.226   6.668   6.900 -0.2689 -0.2494  0.8325
19415SOL    HW165103   9.320   6.673   6.916 -0.0805 -0.7246 -0.0067
19415SOL    HW265104   9.212   6.576   6.875 -1.2458 -0.6244  2.6257
19416SOL     OW65105   5.512   1.895   5.957 -0.0071 -0.1966 -0.3470
19416SOL    HW165106   5.606   1.886   5.943  0.0228 -0.6211  0.1215
19416SOL    HW265107   5.501   1.889   6.051 -0.2197  2.4218 -0.1118
19417SOL     OW65108   1.842   1.321  11.769 -0.0416  0.1746  0.7428
19417SOL    HW165109   1.909   1.348  11.707 -1.1777  1.5420  0.0318
19417SOL    HW265110   1.890   1.280  11.841  1.4555  0.3067 -0.1404
19418SOL     OW65111   6.102   5.596  10.837 -0.3079 -0.1285  0.3136
19418SOL    HW165112   6.159   5.519  10.842  0.4082  0.3045 -0.7918
19418SOL    HW265113   6.013   5.560  10.835 -0.0171 -0.8834  0.6207
19419SOL     OW65114   6.990  10.036  10.491 -0.3511 -0.4258 -0.3024
19419SOL    HW165115   6.984   9.969  10.423 -0.0891 -0.1336 -0.6150
19419SOL    HW265116   6.967   9.991  10.572  3.0174 -1.7507  0.0599
19420SOL     OW65117   9.698   3.479   2.356 -0.0211  0.2808 -0.4468
19420SOL    HW165118   9.614   3.475   2.311  1.4146  2.4730 -3.7072
19420SOL    HW265119   9.695   3.560   2.407 -0.3514 -0.3457  0.5430
19421SOL     OW65120   1.650   4.871   6.133  0.1230 -0.4509 -0.0633
19421SOL    HW165121   1.726   4.902   6.183  0.0475 -1.8618  0.9721
19421SOL    HW265122   1.588   4.943   6.138  1.3671  0.7431 -0.9409
19422SOL     OW65123   2.016   7.811   2.903 -0.1945 -0.6071  0.0882
19422SOL    HW165124   2.071   7.877   2.945 -0.1194 -0.9600  0.5513
19422SOL    HW265125   1.954   7.861   2.850 -1.8693 -0.0221  2.4885
19423SOL     OW65126   6.220   7.333   8.118  0.5110 -0.6028  0.5633
19423SOL    HW165127   6.290   7.386   8.156 -0.8985  0.3279  2.0029
19423SOL    HW265128   6.173   7.297   8.194 -1.3041 -0.1936 -0.3110
19424SOL     OW65129   4.693  11.756   6.612  0.0435  0.2978  0.6913
19424SOL    HW165130   4.602  11.768   6.640  0.1231  0.7518  0.7654
19424SOL    HW265131   4.742  11.750   6.694 -0.1654 -2.0578  0.6917
19425SOL     OW65132   8.411   3.772   1.152 -0.3241  0.1282 -0.0507
19425SOL    HW165133   8.450   3.734   1.073  2.6345  0.8540  0.9406
19425SOL    HW265134   8.318   3.784   1.129  0.0833 -1.1441 -2.8129
19426SOL     OW65135   0.983   1.087   2.518  0.3065 -0.3847  0.0377
19426SOL    HW165136   0.940   1.009   2.483  0.4200 -0.8584  0.9079
19426SOL    HW265137   1.066   1.091   2.471 -0.7650  0.7180 -1.8821
19427SOL     OW65138   1.532   0.609   8.525 -0.1001  0.3349  0.4249
19427SOL    HW165139   1.529   0.680   8.460  2.5609 -1.7103 -2.2293
19427SOL    HW265140   1.465   0.547   8.496  0.4820 -0.1669  0.1294
19428SOL     OW65141   7.224   6.193   1.404  0.1601  0.0542  0.5748
19428SOL    HW165142   7.275   6.112   1.398 -0.2483 -0.1578 -0.0794
19428SOL    HW265143   7.149   6.171   1.459 -0.5866 -0.3605 -0.5702
19429SOL     OW65144  10.499   5.716  10.043 -0.0099  0.0996 -0.0818
19429SOL    HW165145  10.556   5.792  10.059 -0.3413  0.2725  0.2891
19429SOL    HW265146  10.539   5.672   9.967  0.7291  0.1047  0.2937
19430SOL     OW65147   2.628   5.542   4.139 -0.4744 -0.4821  0.2147
19430SOL    HW165148   2.669   5.466   4.097 -1.4695 -0.3960 -0.9696
19430SOL    HW265149   2.544   5.509   4.171 -0.7592  0.0279  0.0017
19431SOL     OW65150   0.335   6.648   8.538 -0.0840 -0.1565 -0.2417
19431SOL    HW165151   0.309   6.732   8.576 -1.4173  0.4849 -2.3754
19431SOL    HW265152   0.430   6.654   8.530  0.3286 -0.4589  3.0637
19432SOL     OW65153   7.152   1.568  10.118 -0.4472 -0.1779 -0.5781
19432SOL    HW165154   7.081   1.509  10.090 -1.6685  1.1266 -0.2945
19432SOL    HW265155   7.116   1.656  10.110  0.9431  0.5009  0.1756
19433SOL     OW65156  11.989  10.830   7.737 -0.6016  0.0862  0.1835
19433SOL    HW165157  12.050  10.887   7.691 -0.4102 -0.0569  0.2609
19433SOL    HW265158  11.929  10.798   7.669 -1.4530  1.3237  0.3268
19434SOL     OW65159   2.436   7.685   8.401  0.4256  0.0680 -0.0489
19434SOL    HW165160   2.447   7.778   8.420  0.1979  0.1204 -0.1702
19434SOL    HW265161   2.444   7.642   8.486  0.8649  0.1680 -0.0391
19435SOL     OW65162   4.002   5.768   8.653 -0.2003  0.0577 -0.3047
19435SOL    HW165163   3.972   5.696   8.596 -2.0342 -0.0585  0.7399
19435SOL    HW265164   4.004   5.844   8.595  0.1978 -0.4883 -1.0445
19436SOL     OW65165   2.198   8.303   3.033  0.0926  0.1287  0.0392
19436SOL    HW165166   2.277   8.340   3.074  0.4969  0.9161 -1.3668
19436SOL    HW265167   2.133   8.304   3.102  1.5514 -1.4265  1.5207
19437SOL     OW65168   9.915   0.283  11.342  0.2206 -0.7537  0.6214
19437SOL    HW165169  10.000   0.288  11.386  0.0571  1.2448  0.7880
19437SOL    HW265170   9.919   0.201  11.292  1.7293 -1.3492  1.6307
19438SOL     OW65171   6.245  11.002   2.239  0.3432  0.3264 -0.6262
19438SOL    HW165172   6.325  10.985   2.288 -0.0387 -0.0882 -0.1319
19438SOL    HW265173   6.272  11.001   2.147  1.2299  1.9992 -0.4186
19439SOL     OW65174   8.264   3.181   8.679  0.0993 -0.6075  0.1799
19439SOL    HW165175   8.356   3.189   8.704  0.2348  0.7137 -0.6480
19439SOL    HW265176   8.257   3.231   8.598 -1.2099 -1.2636 -0.1317
19440SOL     OW65177   3.724   7.378  11.965 -0.5735 -0.5705 -0.2060
19440SOL    HW165178   3.781   7.403  12.037 -0.9597 -1.8259  0.5502
19440SOL    HW265179   3.635   7.385  12.000 -0.7487 -1.5817 -0.4290
19441SOL     OW65180   3.536   9.884  11.617  0.4812  0.1291  0.1609
19441SOL    HW165181   3.568   9.794  11.620  0.1509  0.0316  0.8763
19441SOL    HW265182   3.545   9.916  11.706  0.9364  0.9342 -0.1627
19442SOL     OW65183   3.392   4.507   1.358  0.2760  0.5921  0.2292
19442SOL    HW165184   3.374   4.505   1.452 -2.3176  2.0142 -0.1352
19442SOL    HW265185   3.439   4.589   1.344  2.2068 -0.4333  0.4535
19443SOL     OW65186   1.205   2.518   7.306  0.7027  0.0041  0.1092
19443SOL    HW165187   1.175   2.547   7.220 -1.3108  0.0526  0.7917
19443SOL    HW265188   1.232   2.599   7.350  0.5596  0.1250 -0.0245
19444SOL     OW65189   7.682   4.954   8.908 -0.2562 -0.9322  0.0231
19444SOL    HW165190   7.768   4.935   8.947  0.0156 -1.5617 -0.8372
19444SOL    HW265191   7.703   5.002   8.828 -0.6934 -1.3105 -0.3201
19445SOL     OW65192   1.255   9.248   4.518 -0.0815  0.9410 -0.1374
19445SOL    HW165193   1.293   9.303   4.587 -1.0595  1.3344  0.0984
19445SOL    HW265194   1.257   9.159   4.555  1.7710  0.7242 -0.6347
19446SOL     OW65195   3.525   1.275  11.926 -0.9261 -0.1474 -0.4218
19446SOL    HW165196   3.459   1.341  11.945  1.9303  2.4130  1.6017
19446SOL    HW265197   3.522   1.215  12.000 -1.8085 -0.8241 -0.9906
19447SOL     OW65198   6.671   1.537  11.263 -0.5262  0.0238  0.3262
19447SOL    HW165199   6.639   1.496  11.343  0.3867 -0.2868  0.5475
19447SOL    HW265200   6.661   1.631  11.278 -3.0359 -0.0700 -0.3562
19448SOL     OW65201   6.853  11.377  12.073  0.1009 -0.6934 -0.1579
19448SOL    HW165202   6.923  11.433  12.042  0.3328 -1.8897 -1.9750
19448SOL    HW265203   6.781  11.437  12.094  0.9103  0.3808 -0.3982
19449SOL     OW65204  11.522   0.414   1.206  0.9467  0.0679 -0.3767
19449SOL    HW165205  11.500   0.507   1.210  3.1565  0.5864  0.9802
19449SOL    HW265206  11.528   0.396   1.112 -1.6884  0.6653 -0.7536
19450SOL     OW65207   4.466   3.536   5.576 -0.1095 -0.4308 -0.0319
19450SOL    HW165208   4.418   3.455   5.556  1.2842 -0.9602 -1.4385
19450SOL    HW265209   4.552   3.523   5.537  0.8633  0.9026  1.5288
19451SOL     OW65210  11.376   9.704  12.192  0.1636  0.3339  0.4925
19451SOL    HW165211  11.328   9.727  12.112  0.5796 -1.3004 -0.2654
19451SOL    HW265212  11.343   9.764  12.258 -2.6030 -0.4241 -0.0942
19452SOL     OW65213   2.333   9.204   1.732 -0.1424  0.2170  0.2118
19452SOL    HW165214   2.298   9.141   1.669 -0.1742  0.1362  0.3104
19452SOL    HW265215   2.275   9.279   1.726 -0.2303  0.1518  0.2496
19453SOL     OW65216   5.103   2.383   0.425  0.0972 -0.1924 -0.9520
19453SOL    HW165217   5.196   2.360   0.428  1.4787  4.3918  0.0231
19453SOL    HW265218   5.071   2.344   0.344  2.8745 -1.9029 -1.3573
19454SOL     OW65219   8.774   3.572   8.198 -0.5636 -0.0983 -0.4358
19454SOL    HW165220   8.736   3.659   8.191 -0.2609  0.0294 -0.4528
19454SOL    HW265221   8.804   3.565   8.288 -0.5130 -0.1574 -0.4572
19455SOL     OW65222   3.155   1.298   0.571 -0.0401  0.3722 -0.0296
19455SOL    HW165223   3.248   1.278   0.579 -0.1771 -0.0740  0.5436
19455SOL    HW265224   3.128   1.323   0.659 -0.3979  0.8149 -0.2588
19456SOL     OW65225   3.626   3.980  12.223  0.6370  0.2198  0.1137
19456SOL    HW165226   3.591   3.987  12.312  2.3790 -0.7938  0.9287
19456SOL    HW265227   3.714   3.944  12.234 -0.5693 -4.2268 -2.2845
19457SOL     OW65228   3.972   9.385   1.254 -0.6210 -0.2740 -0.4882
19457SOL    HW165229   4.052   9.400   1.304 -1.3698  1.5809  0.2362
19457SOL    HW265230   3.923   9.320   1.305 -0.7520  0.5608  0.4565
19458SOL     OW65231   2.418   3.116   2.097 -0.0834  0.3530 -0.6860
19458SOL    HW165232   2.394   3.136   2.006  0.0850  0.4408 -0.7120
19458SOL    HW265233   2.378   3.187   2.148  0.5325  0.7812 -0.7808
19459SOL     OW65234   9.030  10.924   7.516 -0.5232 -0.1220 -0.5173
19459SOL    HW165235   9.070  11.006   7.547  0.8439 -0.3402 -1.5920
19459SOL    HW265236   8.945  10.951   7.480 -0.8511  0.5510  0.7066
19460SOL     OW65237   0.400   9.387   9.800 -0.3583 -0.0630 -0.4363
19460SOL    HW165238   0.413   9.366   9.893 -1.0579 -0.4188 -0.4102
19460SOL    HW265239   0.411   9.482   9.796  0.1069 -0.0945 -0.0669
19461SOL     OW65240   3.300   0.608  12.399 -0.0216 -0.9841 -0.0955
19461SOL    HW165241   3.266   0.590  12.311  0.3903  1.5248 -0.8526
19461SOL    HW265242   3.232   0.662  12.440  2.1798  2.9776 -1.1544
19462SOL     OW65243   5.794   0.002   9.563  0.1900 -0.9766 -0.0894
19462SOL    HW165244   5.746   0.042   9.635 -1.0722 -0.9796 -0.9017
19462SOL    HW265245   5.877   0.049   9.561 -0.7226  0.6923 -0.1595
19463SOL     OW65246   0.409   9.675   4.655 -0.1039 -0.3226 -0.0061
19463SOL    HW165247   0.380   9.593   4.696  1.7133 -1.6451 -1.1929
19463SOL    HW265248   0.342   9.694   4.589 -1.1288 -0.1944  1.0328
19464SOL     OW65249  10.980   2.920   6.514 -0.5732 -0.4139  0.0394
19464SOL    HW165250  10.963   3.014   6.519  1.3569 -0.0282 -0.0052
19464SOL    HW265251  10.900   2.880   6.547 -1.6131  1.2243 -0.3710
19465SOL     OW65252   7.765   1.786   7.310 -0.2492  0.0658  0.5164
19465SOL    HW165253   7.827   1.852   7.339  2.4398 -2.5064  1.0631
19465SOL    HW265254   7.734   1.744   7.390  0.7902 -1.5663  0.1196
19466SOL     OW65255   4.329   4.748   9.425  0.1999 -0.3708 -0.7137
19466SOL    HW165256   4.248   4.711   9.390  0.0771 -0.1983 -0.6120
19466SOL    HW265257   4.301   4.805   9.496  0.4862 -1.1915  0.0772
19467SOL     OW65258   4.038   0.806  11.568 -0.2254 -0.1547  0.2406
19467SOL    HW165259   3.979   0.881  11.572 -0.7924 -0.4587 -1.6088
19467SOL    HW265260   4.078   0.811  11.481  2.1572 -0.2247  1.2474
19468SOL     OW65261   4.551   6.757   0.544 -1.0196 -0.1463  0.0950
19468SOL    HW165262   4.596   6.770   0.461 -1.2763 -0.2044 -0.0558
19468SOL    HW265263   4.466   6.720   0.520 -0.5328 -1.5624  0.4860
19469SOL     OW65264   7.789   4.897   7.557 -0.3641  0.0610 -0.4409
19469SOL    HW165265   7.738   4.909   7.477 -2.3473 -0.3468  0.6926
19469SOL    HW265266   7.790   4.983   7.599  1.5309  0.5184 -1.3367
19470SOL     OW65267   5.635   2.931   9.123 -0.7948 -0.7407  0.1102
19470SOL    HW165268   5.644   2.851   9.175  0.2809 -1.0188 -0.4808
19470SOL    HW265269   5.625   2.900   9.033  1.8132 -0.2383 -0.4408
19471SOL     OW65270   8.744   1.848   9.426 -0.1225 -0.3327 -0.6836
19471SOL    HW165271   8.697   1.785   9.481  1.4056  0.9519  2.3801
19471SOL    HW265272   8.676   1.892   9.376 -1.8608 -0.7450  1.1822
19472SOL     OW65273   3.657   0.477   8.102 -0.1344  0.0128 -0.3262
19472SOL    HW165274   3.636   0.428   8.022  0.5410 -0.5442 -0.1808
19472SOL    HW265275   3.740   0.519   8.083  1.4961 -2.3661  0.9793
19473SOL     OW65276   9.491  11.007   2.988  0.2044 -0.1648 -0.1365
19473SOL    HW165277   9.408  10.958   2.985 -0.6669  1.2874 -0.4682
19473SOL    HW265278   9.537  10.971   3.064 -1.3534 -0.0210  0.9237
19474SOL     OW65279   2.272   1.893   0.688 -0.1476 -0.1977  0.0920
19474SOL    HW165280   2.337   1.944   0.736 -0.2459 -0.5477  0.6064
19474SOL    HW265281   2.253   1.818   0.745 -0.6551 -0.3456 -0.2611
19475SOL     OW65282   8.120   5.034   8.081  0.1877  0.1192  0.7960
19475SOL    HW165283   8.110   4.978   8.158  1.8167 -0.0354  0.9192
19475SOL    HW265284   8.112   5.123   8.115 -2.0386  0.0314  0.6550
19476SOL     OW65285  10.163  12.364  11.699 -0.4773  0.1382  0.6532
19476SOL    HW165286  10.245  12.397  11.735  1.3053 -3.1442  0.0797
19476SOL    HW265287  10.100  12.371  11.771  1.5691 -1.3241  2.7528
19477SOL     OW65288   1.750   5.780   0.981  0.1836  0.3443 -0.2147
19477SOL    HW165289   1.792   5.700   0.948 -0.3672 -0.5886  1.2260
19477SOL    HW265290   1.707   5.752   1.062 -1.2452  1.7811 -0.4279
19478SOL     OW65291  10.131   3.767   1.006 -0.1141 -0.2014 -0.2917
19478SOL    HW165292  10.118   3.698   1.071 -1.7759  0.6592  0.3463
19478SOL    HW265293  10.092   3.733   0.926  1.5087 -1.0661 -0.7651
19479SOL     OW65294   5.082   8.394   8.350 -0.1800  0.0106  0.3449
19479SOL    HW165295   4.998   8.419   8.312  0.3070  0.7435 -0.2907
19479SOL    HW265296   5.084   8.299   8.345 -0.8908 -0.0008  0.1919
19480SOL     OW65297   4.130  12.415   7.594 -0.8216  0.0362  0.1859
19480SOL    HW165298   4.155  12.423   7.502  1.3827  0.5136  0.7755
19480SOL    HW265299   4.040  12.446   7.597 -1.4143 -1.2512 -2.0092
19481SOL     OW65300  12.051   9.064   3.981  0.0351  0.8505  0.5825
19481SOL    HW165301  12.061   9.003   4.054 -1.5022 -0.8519 -0.5313
19481SOL    HW265302  11.956   9.075   3.973  0.0354 -0.2628 -2.0645
19482SOL     OW65303   6.316  10.522  12.100  0.3530 -0.3746 -0.0494
19482SOL    HW165304   6.284  10.499  12.187  0.6058 -2.2030 -0.3918
19482SOL    HW265305   6.332  10.438  12.057 -0.0190  0.4690 -1.9723
19483SOL     OW65306   3.363   2.694  11.487  0.1041 -0.1356 -0.4235
19483SOL    HW165307   3.373   2.748  11.409  1.0307 -0.2932 -0.4203
19483SOL    HW265308   3.365   2.604  11.454 -2.6277 -0.2342 -0.5853
19484SOL     OW65309   4.781   9.932   6.193  0.6344  0.1252  0.2834
19484SOL    HW165310   4.844   9.912   6.124  0.3184  1.5431 -0.4589
19484SOL    HW265311   4.803  10.021   6.220 -0.9103  0.5815  0.1352
19485SOL     OW65312   9.279   3.488   5.572 -0.4934  0.7905 -0.1334
19485SOL    HW165313   9.324   3.444   5.644 -1.8843  0.7082  0.7296
19485SOL    HW265314   9.336   3.475   5.496  0.6342  0.2083  0.7824
19486SOL     OW65315   2.548   4.041   9.782 -0.1126 -0.6206 -0.4898
19486SOL    HW165316   2.597   3.979   9.728  1.8986 -0.5177  1.0795
19486SOL    HW265317   2.485   3.986   9.830 -0.6886 -0.9436 -1.5902
19487SOL     OW65318  11.855   0.659   6.620 -0.0740  0.4845 -0.1973
19487SOL    HW165319  11.898   0.627   6.700 -0.4468 -3.8823 -1.4867
19487SOL    HW265320  11.781   0.710   6.652 -0.8362 -1.9802  2.3755
19488SOL     OW65321   1.946  11.588   3.912  0.8027 -0.8090 -0.4367
19488SOL    HW165322   1.942  11.519   3.979  0.9134  0.7597  1.2581
19488SOL    HW265323   1.869  11.572   3.858 -0.9419 -0.5038  1.7874
19489SOL     OW65324   1.795   1.274   7.090 -0.1548  0.1129 -0.3653
19489SOL    HW165325   1.872   1.305   7.043  0.3840 -0.3011  0.2333
19489SOL    HW265326   1.723   1.286   7.028  0.5342 -0.3670 -1.2811
19490SOL     OW65327   3.751  10.910   8.120  0.3647  0.4804 -0.1064
19490SOL    HW165328   3.804  10.972   8.169  0.7600  0.6842 -0.7917
19490SOL    HW265329   3.788  10.909   8.032 -0.5482  0.3732 -0.5074
19491SOL     OW65330   4.988   2.158   1.939 -0.0781 -0.5726  0.9390
19491SOL    HW165331   5.059   2.094   1.930 -0.4855 -0.7109 -2.0782
19491SOL    HW265332   4.912   2.116   1.900 -0.5458  1.4323 -0.4524
19492SOL     OW65333   6.279  11.433   0.278 -0.1914  0.3316 -0.2695
19492SOL    HW165334   6.252  11.352   0.320  0.6723  0.4265  0.5036
19492SOL    HW265335   6.306  11.408   0.190 -1.4916  0.0419 -0.5980
19493SOL     OW65336   2.154   9.337   6.272 -0.4380 -0.2467 -0.5626
19493SOL    HW165337   2.218   9.269   6.249 -0.2814 -0.9987  1.8263
19493SOL    HW265338   2.208   9.408   6.308 -0.6891  0.7720 -2.1086
19494SOL     OW65339   3.936   4.478   8.658  0.8507  0.0186 -0.5423
19494SOL    HW165340   3.910   4.422   8.732  0.6546 -1.5440 -1.7417
19494SOL    HW265341   3.944   4.565   8.696  1.1835 -0.8065  1.4233
19495SOL     OW65342  12.020  12.490  11.405  0.1367  0.5412 -0.3518
19495SOL    HW165343  12.102  12.465  11.364  0.5272 -0.4205  0.9488
19495SOL    HW265344  12.002  12.577  11.371  1.4006  0.5407 -1.0851
19496SOL     OW65345   2.436   2.442   6.253 -0.0660  0.1045 -0.1724
19496SOL    HW165346   2.370   2.512   6.244 -0.8006 -0.6400 -0.7263
19496SOL    HW265347   2.385   2.361   6.254  0.8299 -0.4766 -0.3751
19497SOL     OW65348   3.380   8.313   5.585  0.2495 -0.4180 -0.0967
19497SOL    HW165349   3.318   8.245   5.610  0.5751 -0.1182  1.6337
19497SOL    HW265350   3.460   8.291   5.632  1.3306 -0.4876 -1.8648
19498SOL     OW65351  10.076  10.814   5.255 -0.1557  0.2812  0.1554
19498SOL    HW165352  10.055  10.735   5.206  0.3525  0.6157 -0.6226
19498SOL    HW265353  10.031  10.803   5.339 -3.0039  0.7376 -1.1987
19499SOL     OW65354   5.473   9.817  12.478 -0.0513  0.2668 -0.1894
19499SOL    HW165355   5.488   9.911  12.486  0.1701  0.1299  1.3687
19499SOL    HW265356   5.553   9.782  12.440  1.5352  0.2557  2.8700
19500SOL     OW65357   7.465  11.435   7.222 -0.0234 -0.0416 -0.2513
19500SOL    HW165358   7.467  11.340   7.217 -2.7899 -0.2731  0.8703
19500SOL    HW265359   7.501  11.465   7.139  0.1888 -2.0812 -0.9344
19501SOL     OW65360   8.220   0.050   6.118  0.2754  0.1964 -0.3891
19501SOL    HW165361   8.313   0.074   6.124  0.3403 -0.2687  0.7514
19501SOL    HW265362   8.194   0.077   6.030  2.3288 -2.6605 -2.0259
19502SOL     OW65363   7.906   1.689   9.168  0.4913  0.3438 -0.0287
19502SOL    HW165364   7.933   1.733   9.087  1.0688  0.0029 -0.0269
19502SOL    HW265365   7.940   1.600   9.159 -1.4444 -0.3891 -0.4469
19503SOL     OW65366   2.876   5.902   3.545 -0.0793  0.1870 -0.0073
19503SOL    HW165367   2.789   5.889   3.508 -0.5919 -1.0510  1.5559
19503SOL    HW265368   2.898   5.819   3.586  1.8520  0.4828 -0.3452
19504SOL     OW65369   7.062   6.810   5.882  0.0768 -0.0663  0.8844
19504SOL    HW165370   7.152   6.841   5.884  0.4192 -1.0363  0.8764
19504SOL    HW265371   7.031   6.822   5.972  0.5029 -0.5215  1.1011
19505SOL     OW65372   2.914  10.765   2.531 -0.1561 -0.0112  0.1783
19505SOL    HW165373   2.993  10.720   2.561  0.6899  0.5434 -1.0858
19505SOL    HW265374   2.850  10.695   2.517 -0.5905 -0.2894  3.0821
19506SOL     OW65375   5.468   9.744  11.842  0.3145 -0.4935 -0.1328
19506SOL    HW165376   5.558   9.727  11.869 -0.1834 -1.7025  0.8765
19506SOL    HW265377   5.474   9.821  11.785  2.1111 -1.1446 -0.9173
19507SOL     OW65378   7.030   9.226   1.541 -0.0057  0.2906  0.0132
19507SOL    HW165379   7.041   9.315   1.574  0.0250  0.1784  0.3074
19507SOL    HW265380   7.117   9.201   1.509  0.0122  0.3243  0.0359
19508SOL     OW65381   1.246  11.770   1.093  0.1740  0.5427  0.1120
19508SOL    HW165382   1.221  11.759   1.002 -0.7701  1.1045  0.2809
19508SOL    HW265383   1.181  11.831   1.128  0.7190  0.5950  1.0727
19509SOL     OW65384   4.427   6.000   8.898 -0.1786  0.0932  0.0338
19509SOL    HW165385   4.391   5.912   8.892  1.3508 -0.6117  0.6641
19509SOL    HW265386   4.519   5.987   8.921  0.2652  1.8387 -0.5911
19510SOL     OW65387   6.480   8.957   7.044 -0.2893 -0.3637  0.0536
19510SOL    HW165388   6.531   8.993   6.971 -0.5783  0.5430  0.2840
19510SOL    HW265389   6.510   8.866   7.052  0.2167 -0.2783 -0.7664
19511SOL     OW65390  12.170   6.024  12.540  0.3009  0.0496 -0.1137
19511SOL    HW165391  12.088   5.999  12.498  0.1007  1.3545 -0.5609
19511SOL    HW265392  12.206   6.092  12.483  0.5453  1.1216  1.2679
19512SOL     OW65393   2.171   4.483   9.001 -0.3686  0.2465  0.8011
19512SOL    HW165394   2.113   4.521   8.934  0.3892 -1.5746 -1.0091
19512SOL    HW265395   2.121   4.409   9.036  0.2692 -0.4755  0.2338
19513SOL     OW65396   9.184   6.099   0.874  0.1993  0.5046  0.4886
19513SOL    HW165397   9.093   6.119   0.849 -0.1438 -1.5491 -0.1193
19513SOL    HW265398   9.176   6.054   0.958  0.5337 -0.7016 -0.1114
19514SOL     OW65399   6.224  11.619   7.657  0.0983  0.0629  0.5160
19514SOL    HW165400   6.199  11.548   7.597  1.4145 -0.9971  1.1595
19514SOL    HW265401   6.280  11.676   7.605  0.1736 -0.1283  0.3868
19515SOL     OW65402   7.182   6.467   1.837 -0.6048 -0.2756 -0.6413
19515SOL    HW165403   7.138   6.488   1.919 -0.0407  0.9047 -0.6181
19515SOL    HW265404   7.276   6.475   1.857 -0.4074 -1.2314 -1.0863
19516SOL     OW65405   1.823  10.556  12.286 -0.0830  0.6565 -0.5423
19516SOL    HW165406   1.796  10.550  12.194  0.2895  0.3534 -0.6324
19516SOL    HW265407   1.861  10.471  12.306 -1.1937  0.3129  0.2315
19517SOL     OW65408   2.171   8.714  10.297 -0.0705 -0.3081  0.0866
19517SOL    HW165409   2.225   8.754  10.366  0.2937 -0.3832 -0.1522
19517SOL    HW265410   2.231   8.704  10.223  0.0432 -1.9772  0.3712
19518SOL     OW65411   2.536  10.269   0.010 -0.1084  0.3362 -0.3533
19518SOL    HW165412   2.612  10.290   0.065 -0.7495  1.1918  0.2291
19518SOL    HW265413   2.522  10.348  -0.043 -0.7003  0.2533 -0.3274
19519SOL     OW65414   3.026   4.651   7.731  0.2506 -0.2997 -0.3144
19519SOL    HW165415   3.088   4.704   7.681 -0.7919 -1.1158 -2.5922
19519SOL    HW265416   3.052   4.664   7.823  1.0057  2.8764 -0.8510
19520SOL     OW65417   9.665   4.432   0.885 -0.0276  0.2323 -0.0910
19520SOL    HW165418   9.688   4.477   0.804  2.2004 -0.7776 -0.0856
19520SOL    HW265419   9.679   4.340   0.867 -0.7948 -0.1429  1.0733
19521SOL     OW65420   3.012   9.694  11.405  0.1825 -0.6953  0.0153
19521SOL    HW165421   2.963   9.775  11.416 -1.7305 -1.7727 -0.2461
19521SOL    HW265422   3.090   9.720  11.355 -0.1756  1.0259  0.2858
19522SOL     OW65423  12.061   4.511   7.121  0.0861 -0.3438  0.4842
19522SOL    HW165424  12.012   4.591   7.100  0.3679 -0.2476  0.1781
19522SOL    HW265425  12.153   4.535   7.106  0.1643 -0.7496  0.2992
19523SOL     OW65426  11.123   1.241   9.759  0.5500 -0.3940  0.1138
19523SOL    HW165427  11.143   1.305   9.690 -1.3654 -0.1644 -0.2868
19523SOL    HW265428  11.135   1.156   9.717 -2.6382 -0.3061 -1.3211
19524SOL     OW65429  12.016   9.470   1.397 -0.0693 -0.4305  0.5293
19524SOL    HW165430  12.055   9.463   1.310  1.6258  1.7177  1.0203
19524SOL    HW265431  12.031   9.385   1.438 -0.6238 -1.3778 -1.1279
19525SOL     OW65432   6.545  10.937   7.472  0.0037  0.0567  0.4562
19525SOL    HW165433   6.560  11.017   7.422 -0.6728 -0.1607 -0.1158
19525SOL    HW265434   6.589  10.868   7.422  0.7154  0.0932  1.0286
19526SOL     OW65435   6.024   1.166   4.717 -0.5358 -0.2395 -0.5167
19526SOL    HW165436   5.934   1.143   4.693 -0.8537  0.8864 -0.4513
19526SOL    HW265437   6.031   1.259   4.697  1.1260 -0.6318 -2.0252
19527SOL     OW65438   5.691   7.642   7.704  0.0668 -0.4405  0.5488
19527SOL    HW165439   5.640   7.636   7.623 -0.2784  1.3695  0.5920
19527SOL    HW265440   5.683   7.734   7.731  2.9237 -0.1851  0.8566
19528SOL     OW65441   2.785   5.667   4.986  0.2916  0.1658 -0.6005
19528SOL    HW165442   2.830   5.693   5.066  0.5522  1.5203 -1.1587
19528SOL    HW265443   2.832   5.713   4.916 -1.2432  0.7202 -1.3085
19529SOL     OW65444  11.510   9.497   3.848  0.1425  0.3480  0.0706
19529SOL    HW165445  11.501   9.486   3.753  2.3795 -0.2143 -0.1204
19529SOL    HW265446  11.571   9.570   3.858  0.5390 -0.1028  1.0496
19530SOL     OW65447   9.123   6.622  11.016  0.3252  0.3698 -0.6733
19530SOL    HW165448   9.107   6.714  10.995 -0.3682  1.0473  2.2760
19530SOL    HW265449   9.037   6.589  11.044  0.9536 -0.5551  0.2292
19531SOL     OW65450  10.017   9.743   2.669  0.2994  0.6380  0.3733
19531SOL    HW165451  10.024   9.803   2.743 -0.5418 -0.1388  1.1133
19531SOL    HW265452   9.939   9.690   2.688  1.0068 -0.6814 -0.2538
19532SOL     OW65453   6.057   1.069   1.722  0.1202  0.3841 -0.0376
19532SOL    HW165454   6.056   0.974   1.715  2.6472  0.1975  1.0780
19532SOL    HW265455   6.041   1.087   1.814  1.3391  0.9062  0.0988
19533SOL     OW65456   5.324   8.234   2.266  0.0466 -0.4672 -0.1123
19533SOL    HW165457   5.303   8.301   2.331 -0.8816 -0.1885 -0.6696
19533SOL    HW265458   5.260   8.249   2.195  0.7262 -1.0572 -0.8693
19534SOL     OW65459   5.695   7.231  11.244  0.9188  0.1456  0.5041
19534SOL    HW165460   5.763   7.265  11.187  0.0766  0.6153 -0.2438
19534SOL    HW265461   5.640   7.307  11.264 -0.0479 -0.4501  0.1540
19535SOL     OW65462  11.504   3.220   0.043  0.3214 -0.6284 -0.4579
19535SOL    HW165463  11.513   3.169   0.124 -0.4431  1.0472  0.7331
19535SOL    HW265464  11.583   3.274   0.041  0.5260 -0.9427 -1.0641
19536SOL     OW65465   9.517  11.676   4.820 -0.3734  0.0868 -0.0897
19536SOL    HW165466   9.544  11.592   4.855  1.3000  0.4643 -0.4079
19536SOL    HW265467   9.470  11.654   4.739  0.6023 -0.5344 -0.5120
19537SOL     OW65468   7.748   2.010  11.085 -0.0144  0.1254  0.5209
19537SOL    HW165469   7.659   1.998  11.053  0.5093 -1.2572 -0.5281
19537SOL    HW265470   7.801   2.017  11.006  0.9336 -0.1291  1.1186
19538SOL     OW65471   9.191   2.072   6.211 -0.2972  0.6122 -0.0834
19538SOL    HW165472   9.248   2.100   6.139  0.5108  0.6433  0.5483
19538SOL    HW265473   9.110   2.044   6.168  0.3697  0.0984 -1.0586
19539SOL     OW65474   9.627   3.596   4.846  0.2541 -0.6440 -0.1770
19539SOL    HW165475   9.606   3.564   4.934 -0.1856 -0.2961 -0.1547
19539SOL    HW265476   9.582   3.680   4.839 -1.0101 -1.3872 -1.3201
19540SOL     OW65477   8.334   2.348   1.623  0.5447 -0.5670  0.4134
19540SOL    HW165478   8.253   2.300   1.605  0.6328 -0.8890  0.8610
19540SOL    HW265479   8.333   2.362   1.718 -0.9155  2.8839  0.0555
19541SOL     OW65480  12.384   5.809   5.224 -0.4625  0.1061 -0.0087
19541SOL    HW165481  12.290   5.806   5.209 -0.7685  0.1279  1.6988
19541SOL    HW265482  12.395   5.773   5.312  1.4637 -3.1904 -1.4321
19542SOL     OW65483   9.172  10.350  10.391  0.1673 -0.0315  0.0577
19542SOL    HW165484   9.257  10.383  10.361 -0.0476 -1.1943 -1.9632
19542SOL    HW265485   9.112  10.369  10.320 -0.4996 -2.3800 -0.0873
19543SOL     OW65486   3.137   3.311  10.008 -0.1038 -0.0781  0.0559
19543SOL    HW165487   3.159   3.341  10.096 -0.9523 -2.9054  1.3516
19543SOL    HW265488   3.207   3.249   9.986  1.1230  1.9306 -2.1349
19544SOL     OW65489   7.484   2.541   7.512  0.1829 -0.4215  0.1381
19544SOL    HW165490   7.449   2.568   7.427 -0.2228 -1.1021  0.0807
19544SOL    HW265491   7.411   2.557   7.573  0.1939 -0.6971  0.2229
19545SOL     OW65492   3.682   6.996   4.786  0.1170 -0.3696 -0.4801
19545SOL    HW165493   3.661   7.058   4.716  1.2299 -0.0244 -0.5333
19545SOL    HW265494   3.663   7.044   4.867 -1.6926 -0.9595 -0.5207
19546SOL     OW65495   2.332   3.112   7.047 -0.9885 -0.4438 -0.0453
19546SOL    HW165496   2.396   3.057   7.092 -0.4713  0.5336  0.4570
19546SOL    HW265497   2.298   3.169   7.116  0.5084  1.7509 -1.0155
19547SOL     OW65498   5.305   9.036   8.643  0.0418  0.4576 -0.1395
19547SOL    HW165499   5.331   8.952   8.681 -0.3350  0.3363 -0.1417
19547SOL    HW265500   5.382   9.066   8.597  0.1565  0.0698 -0.2075
19548SOL     OW65501   6.606   0.765   4.004 -0.5787  0.3905  0.6424
19548SOL    HW165502   6.516   0.736   4.008 -0.7411  0.9832  1.7709
19548SOL    HW265503   6.644   0.717   3.931 -2.0354  0.7961 -0.4366
19549SOL     OW65504  11.842   4.111   8.760 -0.1929  0.0664 -0.6439
19549SOL    HW165505  11.751   4.129   8.736 -0.2395 -0.7200 -1.1025
19549SOL    HW265506  11.854   4.156   8.844 -0.2691  2.1928 -1.7148
19550SOL     OW65507  10.337   8.156   7.419  0.3035 -0.4238  0.1243
19550SOL    HW165508  10.338   8.073   7.371 -1.5479 -0.3170 -0.1709
19550SOL    HW265509  10.244   8.174   7.433  0.7377  0.7759  1.6563
19551SOL     OW65510   0.099  11.090   0.149  0.0402 -0.1910 -0.4663
19551SOL    HW165511   0.163  11.026   0.117  1.4067  1.1687 -0.5569
19551SOL    HW265512   0.146  11.141   0.214 -1.0386  0.6880 -0.3366
19552SOL     OW65513   8.034   6.061   0.216  0.2970 -1.0782  0.1383
19552SOL    HW165514   8.126   6.074   0.191  0.1323  0.9228  0.4012
19552SOL    HW265515   8.037   6.041   0.310  0.4374 -0.3383  0.2968
19553SOL     OW65516   5.066  12.324   9.961  0.5772 -0.1684  0.0401
19553SOL    HW165517   5.084  12.335  10.055  0.8360 -0.7638  0.0630
19553SOL    HW265518   4.977  12.358   9.950  1.1233  1.3966  0.1990
19554SOL     OW65519   6.980   2.980  12.233 -0.1269  0.3813 -0.0012
19554SOL    HW165520   6.888   2.956  12.223  0.0020  0.3753 -1.4274
19554SOL    HW265521   7.024   2.898  12.254 -0.3982  0.3325  0.3951
19555SOL     OW65522   1.550   6.376   3.810  0.5785 -0.3942 -0.5515
19555SOL    HW165523   1.641   6.350   3.820  0.6969 -0.1933 -1.0649
19555SOL    HW265524   1.504   6.295   3.785  1.0040 -0.0976 -2.4921
19556SOL     OW65525   6.971   6.439  10.822 -0.0804 -0.3790  0.1433
19556SOL    HW165526   6.896   6.439  10.762  0.5134  0.6861 -0.6521
19556SOL    HW265527   7.026   6.512  10.790  1.4251 -1.3113  0.5227
19557SOL     OW65528   6.171   8.269   8.514 -0.3972  0.3319 -0.0705
19557SOL    HW165529   6.220   8.291   8.593  0.2398  0.2705 -0.4378
19557SOL    HW265530   6.120   8.192   8.538  2.1455 -1.6601 -0.5683
19558SOL     OW65531   5.844   9.501   1.952 -0.1059 -0.0440  0.5918
19558SOL    HW165532   5.786   9.574   1.970 -0.0888  0.6388 -1.7814
19558SOL    HW265533   5.818   9.470   1.865  2.6291 -0.1103 -0.2985
19559SOL     OW65534  10.868   5.650   3.969 -0.6030 -0.3203 -0.8209
19559SOL    HW165535  10.960   5.637   3.949 -0.4800 -1.5296  0.4056
19559SOL    HW265536  10.829   5.678   3.886  1.1021  1.7109 -1.0397
19560SOL     OW65537   6.290   5.952   9.982 -0.1963  0.2605 -0.1373
19560SOL    HW165538   6.343   5.964  10.061  0.5597  0.9577 -0.7431
19560SOL    HW265539   6.241   5.871   9.999 -0.4103  0.6360  1.2426
19561SOL     OW65540   3.003   6.284   0.316 -0.1325  0.4393 -0.2458
19561SOL    HW165541   3.074   6.333   0.356 -0.5852  0.5778  0.4091
19561SOL    HW265542   2.958   6.348   0.260 -0.2363  0.5698 -0.0161
19562SOL     OW65543  10.752   6.103   1.215  0.4419  0.4026 -0.3232
19562SOL    HW165544  10.729   6.111   1.308 -0.7937 -1.0669 -0.4685
19562SOL    HW265545  10.833   6.053   1.215  0.6495  0.7322 -0.0298
19563SOL     OW65546   0.530   6.082   8.631 -0.0688  0.1830 -0.6131
19563SOL    HW165547   0.590   6.141   8.675 -0.9579  1.0929 -0.5905
19563SOL    HW265548   0.476   6.139   8.576  0.4277 -0.8245 -2.2224
19564SOL     OW65549   5.565  10.037   6.645  0.0524 -0.0376  0.0754
19564SOL    HW165550   5.478  10.054   6.607 -0.1799  0.8134  0.9392
19564SOL    HW265551   5.557  10.065   6.736  1.4659  0.8356 -0.0317
19565SOL     OW65552   1.214  10.028   5.118 -0.1027 -0.3666  0.3331
19565SOL    HW165553   1.299  10.061   5.089 -0.5646 -0.6992 -1.5929
19565SOL    HW265554   1.234   9.958   5.179  0.9589  0.7126  1.2643
19566SOL     OW65555   6.523   3.117   6.108  0.3371 -0.1685  0.1312
19566SOL    HW165556   6.577   3.187   6.070  2.5068 -1.3235  0.9015
19566SOL    HW265557   6.515   3.141   6.200 -3.3938  1.6878 -0.4784
19567SOL     OW65558   5.294   4.544   7.938  0.6677 -0.1278  0.0662
19567SOL    HW165559   5.259   4.576   7.856  0.5779 -0.5945 -0.0825
19567SOL    HW265560   5.237   4.581   8.005  0.8317  0.3750 -0.0699
19568SOL     OW65561   7.627   6.792   0.278 -0.0425 -0.3022 -0.0912
19568SOL    HW165562   7.698   6.749   0.325 -0.2796 -1.2842 -0.5948
19568SOL    HW265563   7.548   6.767   0.326 -0.1572 -0.1686 -0.2093
19569SOL     OW65564   5.567   0.008   6.506 -0.0937  0.6999 -0.3922
19569SOL    HW165565   5.528   0.056   6.579  0.4175  1.7332 -0.7831
19569SOL    HW265566   5.513  -0.071   6.499 -0.5894  0.9174  0.6394
19570SOL     OW65567   8.202   5.642   5.195  0.2923  0.4065 -0.0244
19570SOL    HW165568   8.221   5.734   5.178  0.4410  0.7768  1.9794
19570SOL    HW265569   8.284   5.607   5.231  0.6585 -0.8759 -1.9043
19571SOL     OW65570  12.307   3.823  11.083 -0.5227  0.0137 -0.5655
19571SOL    HW165571  12.257   3.880  11.024 -0.5472 -0.9187 -1.4876
19571SOL    HW265572  12.351   3.761  11.024  0.3811 -0.2309  0.3390
19572SOL     OW65573  10.654   0.866  11.638  0.0370 -0.0998 -0.2027
19572SOL    HW165574  10.735   0.829  11.673  0.6964  1.4416  0.0025
19572SOL    HW265575  10.649   0.953  11.677 -1.9556 -0.2984  0.1144
19573SOL     OW65576   1.707   4.074   4.373 -0.4353 -0.7059  0.0437
19573SOL    HW165577   1.695   4.117   4.458 -0.1783 -2.0899  0.8229
19573SOL    HW265578   1.620   4.070   4.335 -0.4701  0.4125 -0.0094
19574SOL     OW65579   2.420   7.222   8.610 -0.3966 -0.1708  0.1215
19574SOL    HW165580   2.465   7.165   8.672 -0.9513 -0.4079  0.3176
19574SOL    HW265581   2.348   7.260   8.661 -1.3275 -0.9646 -0.5698
19575SOL     OW65582   9.982   2.559   4.852 -0.5667 -0.2292 -0.2350
19575SOL    HW165583   9.886   2.567   4.852 -0.7038 -1.5617 -1.6063
19575SOL    HW265584  10.001   2.507   4.930 -0.8707  0.6960  0.4775
19576SOL     OW65585  11.557   5.273  10.489  0.2926  0.7028  0.2280
19576SOL    HW165586  11.467   5.294  10.515 -0.1896  0.2939 -1.0320
19576SOL    HW265587  11.560   5.290  10.395  1.2217 -0.3199  0.0422
19577SOL     OW65588   8.062   3.441   7.288 -0.4866  0.0910 -0.0548
19577SOL    HW165589   8.148   3.478   7.312 -0.0513 -0.5720 -0.5608
19577SOL    HW265590   8.024   3.414   7.372  0.4334 -0.9495  0.0588
19578SOL     OW65591   9.560   5.316   8.427  0.2487  0.3303  0.5154
19578SOL    HW165592   9.465   5.308   8.420  0.0935  0.4097  2.1139
19578SOL    HW265593   9.594   5.248   8.370 -0.8118 -0.8013  1.1804
19579SOL     OW65594  10.828  10.887  11.519  0.2987  0.5225  0.5025
19579SOL    HW165595  10.775  10.818  11.558  1.5838 -0.4290  0.6340
19579SOL    HW265596  10.911  10.884  11.567  1.8595 -0.5423 -2.0260
19580SOL     OW65597  11.569   9.786   1.694  0.1267 -0.1536  0.6757
19580SOL    HW165598  11.590   9.699   1.727  0.3343 -0.2331  0.3304
19580SOL    HW265599  11.564   9.841   1.773 -0.6485 -0.6093  0.9508
19581SOL     OW65600   4.654  11.484   9.174 -0.1313 -0.0536 -0.1330
19581SOL    HW165601   4.748  11.469   9.163 -0.0216 -0.2827  0.9703
19581SOL    HW265602   4.641  11.488   9.269 -1.4084 -1.2409 -0.2138
19582SOL     OW65603   2.954   1.226   2.435 -0.4383 -0.0180 -0.2076
19582SOL    HW165604   2.955   1.131   2.429 -0.7829 -0.0365  0.0411
19582SOL    HW265605   2.955   1.256   2.344  0.2838 -0.2515 -0.2818
19583SOL     OW65606   1.590  10.520   9.205 -0.1062  0.4874 -0.6632
19583SOL    HW165607   1.643  10.444   9.228  1.5896  1.6990 -0.3828
19583SOL    HW265608   1.652  10.581   9.165 -0.5191  3.2547  2.4694
19584SOL     OW65609   4.416   9.887   7.506  0.2299 -0.2460  0.1588
19584SOL    HW165610   4.342   9.850   7.554 -0.1856 -1.0342 -1.0344
19584SOL    HW265611   4.398   9.982   7.503 -0.0356 -0.2642  1.0203
19585SOL     OW65612   7.623   4.242   0.487 -0.1921 -0.2091 -0.0545
19585SOL    HW165613   7.562   4.199   0.548  0.9523 -2.5453 -0.4331
19585SOL    HW265614   7.590   4.218   0.400 -0.4242  1.0803 -0.3461
19586SOL     OW65615   0.167   3.957   6.631  0.0986  0.2972 -0.1764
19586SOL    HW165616   0.110   3.896   6.677  1.1207 -2.0413 -1.8232
19586SOL    HW265617   0.190   4.023   6.697 -1.2395 -0.9572  1.6337
19587SOL     OW65618  10.276   9.636  11.866 -0.0651  0.1594 -0.1602
19587SOL    HW165619  10.244   9.665  11.952  0.7427 -0.5235  0.3841
19587SOL    HW265620  10.370   9.626  11.877  0.1309  0.5478 -1.2853
19588SOL     OW65621   7.452  12.073   9.470 -0.1562  0.1761 -0.3908
19588SOL    HW165622   7.387  12.143   9.465 -1.6410 -1.1379 -0.0097
19588SOL    HW265623   7.477  12.069   9.562  0.3964  0.5852 -0.5136
19589SOL     OW65624   2.265   5.919   2.381 -0.0219  0.2634  0.1726
19589SOL    HW165625   2.214   5.943   2.459  0.1777  0.8032  0.1424
19589SOL    HW265626   2.221   5.964   2.309  0.2468  0.3831  0.0834
19590SOL     OW65627   6.264   0.654   2.944 -0.0332 -0.3122 -0.1579
19590SOL    HW165628   6.236   0.739   2.977  0.5208 -1.1456  2.8661
19590SOL    HW265629   6.354   0.645   2.976 -0.2997 -2.2618  0.1934
19591SOL     OW65630   2.897   2.629   0.692 -0.1280 -0.0511 -0.2375
19591SOL    HW165631   2.964   2.574   0.734 -0.8250 -0.4199  0.4168
19591SOL    HW265632   2.884   2.701   0.753 -0.7802 -0.3207 -0.0482
19592SOL     OW65633  10.719   2.813  11.349  0.4260 -0.1102  0.4103
19592SOL    HW165634  10.768   2.881  11.393 -0.4139  0.4937  0.4346
19592SOL    HW265635  10.650   2.859  11.301 -0.4646 -0.9599  0.8283
19593SOL     OW65636   5.726   1.753  11.159  0.2135  0.4597  0.4620
19593SOL    HW165637   5.803   1.704  11.129 -0.8263 -0.4065 -0.8934
19593SOL    HW265638   5.658   1.732  11.096 -2.0581 -1.2421  3.2613
19594SOL     OW65639  11.782   6.541  10.174  0.4863 -0.0710  0.2090
19594SOL    HW165640  11.798   6.632  10.148 -1.3208  0.3052  0.2412
19594SOL    HW265641  11.805   6.489  10.097 -1.0152  0.6778 -0.7934
19595SOL     OW65642   9.499   0.049   2.380 -0.1453 -0.1878  0.2620
19595SOL    HW165643   9.441   0.060   2.455  0.2971 -0.1046  0.6026
19595SOL    HW265644   9.565   0.119   2.391  0.2360 -0.5179  0.0975
19596SOL     OW65645  12.345   8.721   4.218 -0.0314  0.2719  0.5285
19596SOL    HW165646  12.308   8.803   4.187 -1.7390  0.0108  1.7680
19596SOL    HW265647  12.279   8.655   4.198  0.7204 -0.5928  0.8072
19597SOL     OW65648   5.095  10.091   7.406  0.4901  0.1231 -0.5464
19597SOL    HW165649   5.082  10.049   7.321 -0.4628  0.6424 -0.6748
19597SOL    HW265650   5.035  10.045   7.464 -0.3479  1.0889 -0.6224
19598SOL     OW65651   9.906   8.328   0.435  0.1280 -0.3272 -0.0600
19598SOL    HW165652   9.941   8.364   0.353 -1.4241 -1.2565 -1.1803
19598SOL    HW265653   9.934   8.390   0.502  0.8471  0.8370 -1.3749
19599SOL     OW65654   5.171   4.018   2.469 -0.2205  0.3513 -0.2698
19599SOL    HW165655   5.201   4.066   2.392 -0.2226 -1.0982 -1.2176
19599SOL    HW265656   5.249   3.973   2.502 -0.0700  1.4880  1.0107
19600SOL     OW65657   7.349   2.151   2.481 -0.1285 -0.1683  0.7460
19600SOL    HW165658   7.288   2.219   2.456 -2.6960 -2.2269  0.9509
19600SOL    HW265659   7.382   2.178   2.567 -0.0496  1.3845  0.2590
19601SOL     OW65660  11.917   1.121   1.436 -0.4967 -0.3737  0.8966
19601SOL    HW165661  11.860   1.044   1.428 -0.4617 -0.3541  0.4063
19601SOL    HW265662  11.857   1.195   1.426 -0.6667 -0.3048  2.2053
19602SOL     OW65663   6.063   0.215   2.249 -0.4081  0.3914  0.4026
19602SOL    HW165664   6.042   0.309   2.257  1.4803  0.7812  1.2880
19602SOL    HW265665   6.156   0.213   2.227 -0.4308 -1.2876  0.3402
19603SOL     OW65666  12.375   3.091   1.536  0.0433 -0.2694 -0.2056
19603SOL    HW165667  12.294   3.061   1.578 -0.1955  2.2711  1.3098
19603SOL    HW265668  12.374   3.047   1.451 -1.7463 -2.0861  0.6474
19604SOL     OW65669   3.661   1.047   6.687 -0.0053 -0.1809 -0.7224
19604SOL    HW165670   3.724   1.011   6.749 -2.0695  0.7178  2.1188
19604SOL    HW265671   3.612   0.970   6.657 -0.0919 -0.4691  0.1192
19605SOL     OW65672  10.933   2.793  12.345 -0.2062 -0.4909  0.0571
19605SOL    HW165673  10.886   2.877  12.342 -0.3339 -0.5514  0.3826
19605SOL    HW265674  11.012   2.811  12.395  0.0842 -0.4109 -0.4202
19606SOL     OW65675  11.533   0.198  10.558  1.0055  0.1934 -0.1060
19606SOL    HW165676  11.590   0.246  10.498  1.1483 -0.5042 -0.5265
19606SOL    HW265677  11.554   0.106  10.545 -1.2607 -0.2165 -1.3913
19607SOL     OW65678  11.600   1.282   0.072 -0.2690  0.2692  0.0126
19607SOL    HW165679  11.589   1.354   0.134  0.0219  0.4344 -0.1264
19607SOL    HW265680  11.545   1.212   0.107  1.5560 -0.4283  1.6643
19608SOL     OW65681   4.707   7.926   9.314 -0.1612  0.4648  0.1513
19608SOL    HW165682   4.683   7.834   9.311 -0.2051  0.4520  0.8649
19608SOL    HW265683   4.718   7.946   9.407 -1.5380  1.5369  0.1252
19609SOL     OW65684  11.368   6.616   2.359  0.2837  0.3580  0.4945
19609SOL    HW165685  11.315   6.539   2.379  0.5196  0.4243  1.4282
19609SOL    HW265686  11.322   6.688   2.403 -1.6304  1.3578 -2.7744
19610SOL     OW65687   8.131   6.781   7.647  0.3238  0.2152  0.3338
19610SOL    HW165688   8.226   6.774   7.646  0.2246 -1.3614  0.4355
19610SOL    HW265689   8.105   6.742   7.731 -0.4187  0.7071  0.3456
19611SOL     OW65690   3.924   0.941   8.933 -0.4368  0.3310 -0.6276
19611SOL    HW165691   3.858   0.986   8.987  0.2995  1.5717 -0.7078
19611SOL    HW265692   3.879   0.864   8.899 -1.6537  0.8136 -0.1724
19612SOL     OW65693   6.300   1.004  11.247 -0.2555  0.1757 -0.0479
19612SOL    HW165694   6.248   1.016  11.326  0.3100  2.7381  0.0066
19612SOL    HW265695   6.307   0.909  11.237 -2.4725 -0.2181  1.5250
19613SOL     OW65696   2.838   4.102   3.126 -0.1601 -0.3248 -0.3777
19613SOL    HW165697   2.799   4.185   3.156 -0.3525 -0.0360 -1.3849
19613SOL    HW265698   2.915   4.090   3.182 -1.6460 -0.9024  1.6587
19614SOL     OW65699   7.354  11.306   7.626 -0.1572  0.0303  0.4970
19614SOL    HW165700   7.421  11.238   7.618  1.4327  1.5484  0.5024
19614SOL    HW265701   7.394  11.384   7.589 -2.2644  0.8015 -0.3246
19615SOL     OW65702   6.032   5.364  12.497  0.0282 -0.0154 -0.2124
19615SOL    HW165703   5.974   5.416  12.441 -1.0174 -1.0599 -0.1398
19615SOL    HW265704   6.000   5.379  12.585 -0.5946 -1.1115 -0.2270
19616SOL     OW65705   7.951   6.441   7.868  0.4579  0.3823 -0.7624
19616SOL    HW165706   8.020   6.377   7.885  0.3520  0.6017  0.6124
19616SOL    HW265707   7.870   6.394   7.883  0.3798  1.2350  2.2099
19617SOL     OW65708   6.342   3.189  11.236 -0.5713  0.1405 -0.1908
19617SOL    HW165709   6.372   3.112  11.285  1.0474 -0.8149 -2.4652
19617SOL    HW265710   6.261   3.215  11.279 -0.8102 -2.4174  1.1297
19618SOL     OW65711  10.766   9.670   8.031 -0.6456 -0.2006  0.7433
19618SOL    HW165712  10.676   9.703   8.027 -0.0335  1.4645 -0.5070
19618SOL    HW265713  10.820   9.748   8.041  0.7550 -1.0128 -0.0724
19619SOL     OW65714  10.928   1.811   0.696 -0.2644  0.6411  0.0324
19619SOL    HW165715  10.953   1.792   0.606  2.7162  2.0509  0.4449
19619SOL    HW265716  10.924   1.725   0.738  1.8457  0.1509 -0.6592
19620SOL     OW65717   2.598   0.339  12.193 -0.1573 -0.0532  0.7278
19620SOL    HW165718   2.658   0.412  12.208 -0.9128  0.4800  1.2845
19620SOL    HW265719   2.609   0.317  12.101 -0.0400  0.9002  0.5017
19621SOL     OW65720  12.472   6.706  11.617  0.6938  0.2667 -0.6760
19621SOL    HW165721  12.526   6.731  11.692  0.2715 -0.1096 -0.2405
19621SOL    HW265722  12.469   6.785  11.563 -0.2396  1.0282  0.4528
19622SOL     OW65723   8.094   2.265   7.233 -0.1038  0.5595 -0.1202
19622SOL    HW165724   8.093   2.323   7.309 -0.4573  1.3657 -0.7261
19622SOL    HW265725   8.009   2.222   7.236  0.3167 -0.2619  0.5624
19623SOL     OW65726   0.267   4.552   0.389 -0.0882 -0.5485 -0.2538
19623SOL    HW165727   0.286   4.488   0.458  0.0297 -0.1891  0.0513
19623SOL    HW265728   0.192   4.601   0.423  0.4600  0.1449 -0.0308
19624SOL     OW65729   9.469  10.742   1.698 -0.0118 -0.4157  0.3163
19624SOL    HW165730   9.396  10.750   1.637  0.4643 -0.1632 -0.2293
19624SOL    HW265731   9.534  10.805   1.667  0.1307 -0.0851  1.2452
19625SOL     OW65732   6.251   5.085   1.118  0.3683 -0.3625 -0.1456
19625SOL    HW165733   6.330   5.067   1.169  1.1087  1.6822 -0.4675
19625SOL    HW265734   6.222   5.000   1.086  5.2766 -0.9701 -4.2017
19626SOL     OW65735   4.062   5.602   4.362 -0.0129  0.4720  0.2754
19626SOL    HW165736   4.014   5.537   4.311 -0.4411  0.9559  0.0574
19626SOL    HW265737   4.121   5.643   4.299 -0.7466  1.2701  0.0919
19627SOL     OW65738   6.107   6.831   9.678 -0.0127  0.0210  0.1068
19627SOL    HW165739   6.156   6.787   9.609 -0.5064  0.5764 -0.6117
19627SOL    HW265740   6.016   6.831   9.647  0.0883  2.2853 -0.3427
19628SOL     OW65741  11.165   0.835   9.264  0.2494 -0.0833  0.2486
19628SOL    HW165742  11.233   0.895   9.295 -0.7757  0.8133  0.8247
19628SOL    HW265743  11.210   0.751   9.254  1.5439  0.6020  0.1379
19629SOL     OW65744   0.836   6.922   4.644 -0.0144  0.2433  0.2007
19629SOL    HW165745   0.819   6.985   4.714  0.5941  0.6366  0.0068
19629SOL    HW265746   0.802   6.839   4.677 -1.9706  0.9078 -0.0629
19630SOL     OW65747   1.813   5.860   5.753 -0.3280  0.2321 -0.0472
19630SOL    HW165748   1.901   5.876   5.719 -0.0728 -0.3322  0.3261
19630SOL    HW265749   1.825   5.792   5.819 -0.9580  0.6052  0.4599
19631SOL     OW65750   2.610   2.352   8.932  0.3274 -0.1432  0.2727
19631SOL    HW165751   2.546   2.416   8.963  1.8401  0.4948  2.3526
19631SOL    HW265752   2.649   2.392   8.855 -0.2296  0.4501  0.2860
19632SOL     OW65753   6.928   7.208   5.131 -0.0059  0.1062 -0.2868
19632SOL    HW165754   6.938   7.139   5.066 -1.5666  1.5205 -2.1568
19632SOL    HW265755   6.858   7.176   5.189  0.0594 -0.3647 -0.4688
19633SOL     OW65756  10.382   9.958   0.328  0.3972 -0.1414  0.7926
19633SOL    HW165757  10.304  10.003   0.297 -0.4859 -2.4573 -0.6368
19633SOL    HW265758  10.369   9.948   0.422 -1.3805 -0.9957  0.4999
19634SOL     OW65759   4.583   5.979   7.952  1.0162  0.5751  0.0382
19634SOL    HW165760   4.558   5.892   7.923 -1.3203  0.1918  2.7481
19634SOL    HW265761   4.673   5.969   7.985  0.8766 -0.7533  0.0529
19635SOL     OW65762   4.004   7.436   5.797 -0.2526  0.2031 -0.1702
19635SOL    HW165763   4.062   7.420   5.872 -0.0831  1.3778 -0.0281
19635SOL    HW265764   3.921   7.464   5.836  0.1241  1.7484 -0.3982
19636SOL     OW65765  12.417  10.412  10.380  0.2869  0.1057  0.5558
19636SOL    HW165766  12.402  10.362  10.300  1.7115 -0.0970  0.4046
19636SOL    HW265767  12.455  10.494  10.351 -1.0739  0.8896  0.8935
19637SOL     OW65768   4.877   1.395   0.473 -0.0798  0.4601  0.1750
19637SOL    HW165769   4.964   1.431   0.456 -0.2976  1.9073  1.8071
19637SOL    HW265770   4.819   1.471   0.472 -0.8211 -0.0186  2.1008
19638SOL     OW65771   3.476   0.698   5.560  0.1296  0.4634 -0.5233
19638SOL    HW165772   3.504   0.616   5.520 -0.1420 -1.1212  2.2864
19638SOL    HW265773   3.545   0.760   5.537  2.9105 -1.7874  1.1182
19639SOL     OW65774   1.897   1.179   5.673 -0.3365 -0.9481  0.1919
19639SOL    HW165775   1.878   1.198   5.765 -0.4180  1.6816 -0.2876
19639SOL    HW265776   1.933   1.261   5.638  0.4989 -2.1227 -1.9310
19640SOL     OW65777   0.092   2.680  10.100  0.0412  0.4506  0.0293
19640SOL    HW165778  -0.002   2.680  10.083 -0.0985 -0.7191  0.6804
19640SOL    HW265779   0.126   2.604  10.053  0.8832  1.5517 -1.2092
19641SOL     OW65780   2.170   1.628   1.481 -0.4752 -0.0198  0.0523
19641SOL    HW165781   2.231   1.588   1.419  0.8412 -0.9937  1.8693
19641SOL    HW265782   2.124   1.554   1.521 -0.8820  0.5380  0.6478
19642SOL     OW65783   5.946   2.072   7.421  0.0451  0.0079 -0.1083
19642SOL    HW165784   5.920   2.155   7.460 -1.3335  0.2226 -1.3751
19642SOL    HW265785   5.997   2.028   7.489 -1.2472  0.8419  1.4776
19643SOL     OW65786   6.001   6.125   7.682 -0.4755  0.1121  0.3631
19643SOL    HW165787   6.039   6.212   7.672  0.8632 -0.5785 -1.0635
19643SOL    HW265788   5.917   6.130   7.637 -0.1206  0.5070 -0.2746
19644SOL     OW65789   9.973   9.376   8.620 -0.4229  0.2697 -0.2466
19644SOL    HW165790   9.929   9.317   8.558  2.5184 -1.9923 -0.3822
19644SOL    HW265791  10.036   9.424   8.566  1.6873 -1.2237  0.7426
19645SOL     OW65792   1.937   8.380   8.502  0.6862  0.7600 -0.0336
19645SOL    HW165793   1.935   8.394   8.407 -0.8176  0.8444 -0.0119
19645SOL    HW265794   1.940   8.468   8.539  0.9315  0.7377 -0.0024
19646SOL     OW65795   1.774   8.955   4.325 -0.3185 -0.2053  0.1461
19646SOL    HW165796   1.682   8.976   4.309  0.1000 -0.3387 -3.1487
19646SOL    HW265797   1.812   9.036   4.359 -1.4152  0.1772  0.4941
19647SOL     OW65798   7.336   0.962   8.438 -0.8648 -0.2033 -0.4977
19647SOL    HW165799   7.385   1.020   8.497  0.0382 -0.0710 -1.3616
19647SOL    HW265800   7.383   0.967   8.355 -1.8995 -0.6879 -1.1291
19648SOL     OW65801   5.717  12.239  12.357  0.4466  0.9867 -0.5686
19648SOL    HW165802   5.750  12.179  12.424 -2.4885 -0.6349 -0.4349
19648SOL    HW265803   5.759  12.210  12.276  0.8623  0.2754 -0.1110
19649SOL     OW65804   9.593  10.332   3.367 -0.1580  0.5552 -0.3527
19649SOL    HW165805   9.660  10.388   3.329  0.2679  0.3219  0.0425
19649SOL    HW265806   9.539  10.391   3.420  0.2817  0.6031  0.0508
19650SOL     OW65807   0.744   4.664   6.919 -0.1393 -0.3202  0.4237
19650SOL    HW165808   0.787   4.667   6.834 -2.1156 -1.7739 -0.7043
19650SOL    HW265809   0.814   4.678   6.982  1.7039 -1.0628 -1.3650
19651SOL     OW65810   1.941  12.456   9.758 -0.4896 -0.0298  0.0817
19651SOL    HW165811   1.861  12.468   9.706 -0.6726 -1.0550  0.0966
19651SOL    HW265812   1.976  12.544   9.769 -1.2732  0.3670 -0.4778
19652SOL     OW65813   4.044  11.457   5.727 -0.0187  0.0780 -0.1162
19652SOL    HW165814   3.957  11.446   5.764  0.0911  0.8948  0.3952
19652SOL    HW265815   4.042  11.404   5.647 -0.5033 -1.0813  0.6366
19653SOL     OW65816  10.736   2.848   8.532 -0.3107 -0.5081  0.1665
19653SOL    HW165817  10.828   2.870   8.549  0.0260 -1.8702  0.2180
19653SOL    HW265818  10.687   2.898   8.597  0.3012  0.9894 -0.4829
19654SOL     OW65819   6.356   7.328   5.448  0.4604 -1.0376  0.2332
19654SOL    HW165820   6.320   7.326   5.537  0.2044 -2.0257  0.1168
19654SOL    HW265821   6.449   7.346   5.460  0.7617 -2.8074  0.8305
19655SOL     OW65822   8.378   3.861   8.484  0.2270 -0.3638  0.2413
19655SOL    HW165823   8.335   3.925   8.541 -0.7942  0.2551 -1.1730
19655SOL    HW265824   8.318   3.849   8.411  1.1442 -1.7332 -0.3311
19656SOL     OW65825   5.381   8.158   4.934  0.4104  0.0900 -0.4744
19656SOL    HW165826   5.300   8.179   4.980 -1.1959 -1.7974 -2.2331
19656SOL    HW265827   5.411   8.077   4.975  1.1435  0.4839 -0.2057
19657SOL     OW65828   0.986  12.553   1.669 -0.0010  0.1877 -0.5334
19657SOL    HW165829   0.983  12.623   1.603 -1.2298  1.8408  1.1486
19657SOL    HW265830   0.895  12.524   1.677 -0.0573  0.7010  1.0458
19658SOL     OW65831   8.495   0.506   6.481  0.7344 -0.2669 -0.1871
19658SOL    HW165832   8.429   0.437   6.482 -0.1378  0.5317  1.8194
19658SOL    HW265833   8.477   0.556   6.401 -0.0794 -0.9925 -0.4703
19659SOL     OW65834   7.770   0.779   4.536  0.1278 -0.3664  0.4707
19659SOL    HW165835   7.842   0.780   4.599 -0.0559  0.8686  0.6858
19659SOL    HW265836   7.699   0.824   4.581  0.3734  1.6374 -1.0041
19660SOL     OW65837   1.714   5.448   1.732  0.0768 -0.1451  0.5014
19660SOL    HW165838   1.646   5.384   1.710  1.5615 -1.7093  0.3104
19660SOL    HW265839   1.684   5.529   1.691 -1.4257 -0.9027  0.0069
19661SOL     OW65840   2.230   1.323   6.203  0.1865  0.1067 -0.0659
19661SOL    HW165841   2.281   1.284   6.274  1.2407 -1.3066 -1.5091
19661SOL    HW265842   2.196   1.248   6.154 -0.9978  1.0379 -0.7280
19662SOL     OW65843   7.582   2.611   4.201 -0.2976 -0.3655 -0.2391
19662SOL    HW165844   7.496   2.612   4.158 -1.5681  2.5912  1.9760
19662SOL    HW265845   7.564   2.644   4.289  2.9813 -0.7946  0.6953
19663SOL     OW65846  10.790   6.689   9.719 -0.3041  0.1816  0.2488
19663SOL    HW165847  10.738   6.686   9.800  2.3049  0.1995  2.0772
19663SOL    HW265848  10.844   6.610   9.723  0.5587  0.6848 -0.9997
19664SOL     OW65849   9.080  11.349   0.702 -0.0665 -0.2743  0.1174
19664SOL    HW165850   9.089  11.326   0.610  1.0317  0.8864 -0.0889
19664SOL    HW265851   9.170  11.362   0.733 -0.4875  0.9134  0.9313
19665SOL     OW65852   1.618   9.905   2.158 -0.0661  0.3598 -0.1543
19665SOL    HW165853   1.704   9.901   2.199 -0.7469 -0.6564  1.2964
19665SOL    HW265854   1.627   9.971   2.089  1.6681  0.7785  0.4092
19666SOL     OW65855   2.268  10.548   7.574 -0.5855 -0.5825 -0.7034
19666SOL    HW165856   2.284  10.575   7.664  1.2420 -0.0672 -1.1371
19666SOL    HW265857   2.250  10.630   7.527  1.1966 -0.4846 -1.2935
19667SOL     OW65858   2.609  11.141   5.142  0.1260 -0.1148  0.3983
19667SOL    HW165859   2.551  11.106   5.210 -0.3427  0.3459  0.2424
19667SOL    HW265860   2.599  11.083   5.068  1.6448 -1.4114  1.1425
19668SOL     OW65861   7.561   5.420  11.189  0.2654 -0.0968  0.1477
19668SOL    HW165862   7.512   5.338  11.178  1.2335 -0.8545  1.2767
19668SOL    HW265863   7.569   5.430  11.284 -2.2109  2.7683  0.2098
19669SOL     OW65864   9.670   4.505   5.199 -0.2049 -0.6616  0.2161
19669SOL    HW165865   9.607   4.562   5.154  1.2054 -0.8778 -2.2371
19669SOL    HW265866   9.738   4.565   5.231  1.6238 -0.8378 -2.9493
19670SOL     OW65867   6.015   3.344   1.050  0.3054 -0.3817 -0.0844
19670SOL    HW165868   5.988   3.286   1.121  1.3700 -0.7157  0.0598
19670SOL    HW265869   6.051   3.421   1.095 -0.9695  0.3453 -0.2724
19671SOL     OW65870   7.207   3.950   8.497 -0.5968 -0.1015  0.3166
19671SOL    HW165871   7.293   3.918   8.470 -0.2546  1.7856 -1.0555
19671SOL    HW265872   7.148   3.876   8.481  0.5667 -1.0261  0.1354
19672SOL     OW65873   5.403  12.287  12.564  0.3669  0.7543 -0.1163
19672SOL    HW165874   5.407  12.213  12.625 -0.6512  0.6705 -0.1432
19672SOL    HW265875   5.360  12.252  12.486 -0.8668  1.5640  0.1734
19673SOL     OW65876   5.019   4.947   8.087  0.5999 -0.0329 -0.0667
19673SOL    HW165877   5.065   5.010   8.031  0.9017  0.0757  0.2980
19673SOL    HW265878   4.995   4.998   8.164 -1.0782  0.1902 -0.7061
19674SOL     OW65879   2.490  10.620  10.614 -0.1436 -0.4285 -0.2970
19674SOL    HW165880   2.467  10.597  10.704 -1.1013 -0.5450 -0.5576
19674SOL    HW265881   2.407  10.614  10.566  0.3298 -0.2383 -1.1594
19675SOL     OW65882  11.258   3.130  10.041  0.0318  0.4891  0.4597
19675SOL    HW165883  11.260   3.170  10.127 -0.0933  1.0475  0.2045
19675SOL    HW265884  11.328   3.064  10.044  0.7071  1.1946  0.6616
19676SOL     OW65885   1.672  11.583   2.014 -0.5212  0.1928  0.6822
19676SOL    HW165886   1.595  11.620   2.058 -1.3129 -1.2791  0.5932
19676SOL    HW265887   1.711  11.657   1.968 -0.5822  1.4584  2.5332
19677SOL     OW65888   8.012   8.586  10.550 -0.3884 -0.3671 -0.2367
19677SOL    HW165889   7.981   8.500  10.578 -0.2007 -1.0717 -2.0483
19677SOL    HW265890   7.954   8.648  10.594 -2.1257 -1.5167 -0.7897
19678SOL     OW65891   7.925   4.024   8.302  0.1800 -0.5163  0.0164
19678SOL    HW165892   7.832   4.047   8.304  0.0749 -0.9280 -0.0448
19678SOL    HW265893   7.968   4.101   8.265  0.3896  1.2928  3.6238
19679SOL     OW65894   7.800   4.905   5.381 -0.5601 -0.5557  0.1463
19679SOL    HW165895   7.840   4.990   5.366  0.3913 -1.2510 -1.5434
19679SOL    HW265896   7.814   4.857   5.299 -4.3840 -1.0786 -0.3866
19680SOL     OW65897   1.615   7.725   5.462  0.3102  0.6251 -0.3742
19680SOL    HW165898   1.708   7.743   5.480  0.5559 -0.2005 -0.7955
19680SOL    HW265899   1.573   7.811   5.469  0.9756  0.8934  0.5799
19681SOL     OW65900   8.530   4.943   7.474  0.1565 -0.2343  0.1239
19681SOL    HW165901   8.498   5.029   7.501 -0.2899 -0.6148  0.8549
19681SOL    HW265902   8.550   4.899   7.556 -0.8513 -1.2879 -0.1700
19682SOL     OW65903  11.992  11.883  11.191  0.4845 -0.7839 -0.2974
19682SOL    HW165904  11.903  11.847  11.194  0.6469 -1.2105 -0.5338
19682SOL    HW265905  11.990  11.955  11.254  0.3895 -1.7426  0.8216
19683SOL     OW65906   2.387   4.071  12.089  0.1239 -0.1066 -0.2390
19683SOL    HW165907   2.302   4.028  12.079 -0.6267  1.2787  0.0300
19683SOL    HW265908   2.412   4.097  12.001 -1.1905  2.1558 -0.0036
19684SOL     OW65909   2.525   8.189   9.490 -0.1154  0.8298  0.3760
19684SOL    HW165910   2.558   8.265   9.536 -0.2438  1.3213 -0.3252
19684SOL    HW265911   2.586   8.176   9.417  0.0411  0.1146  0.6254
19685SOL     OW65912   5.336  12.001  12.148  0.1115 -0.0008  0.2724
19685SOL    HW165913   5.290  12.018  12.067 -0.4935 -0.5157  0.4946
19685SOL    HW265914   5.315  11.910  12.169  1.0420 -0.1789  0.5038
19686SOL     OW65915   1.710   9.274   3.960 -0.4317 -0.0200 -0.3269
19686SOL    HW165916   1.740   9.263   3.870 -0.0551 -1.2523 -0.0652
19686SOL    HW265917   1.787   9.254   4.013 -1.7356 -3.9153  0.3853
19687SOL     OW65918   3.814   3.646  11.561  0.5034 -0.7596  0.4186
19687SOL    HW165919   3.852   3.563  11.587  1.0819  0.2979  3.2935
19687SOL    HW265920   3.887   3.708  11.564  0.0333 -0.0555 -1.4068
19688SOL     OW65921  11.290  10.739  11.947 -0.0724  0.0432 -0.1184
19688SOL    HW165922  11.378  10.777  11.952 -0.5604  1.6634 -2.2614
19688SOL    HW265923  11.304  10.650  11.916  0.8020  0.5213 -1.1636
19689SOL     OW65924   1.875   7.471  11.467  0.0660 -0.3716 -0.5442
19689SOL    HW165925   1.943   7.503  11.527 -2.1320 -0.4466  2.1764
19689SOL    HW265926   1.913   7.484  11.380  3.1588  0.4586  0.7713
19690SOL     OW65927   4.086   6.113  10.697 -0.3632 -0.2879  0.1502
19690SOL    HW165928   4.090   6.206  10.674  0.3435 -0.4802 -0.5217
19690SOL    HW265929   4.109   6.110  10.789 -0.8364  0.2439  0.2957
19691SOL     OW65930   4.733   0.982   2.603 -0.3591  0.6180  0.6512
19691SOL    HW165931   4.759   1.057   2.657 -0.8454  0.1574  1.5562
19691SOL    HW265932   4.639   0.973   2.619 -0.8479  1.3874 -1.4688
19692SOL     OW65933   4.913  10.980  12.568  0.0328 -0.2121  0.1442
19692SOL    HW165934   4.860  10.910  12.530 -1.0884 -0.3193  1.8029
19692SOL    HW265935   4.968  10.935  12.633 -0.8546  0.4223  1.3837
19693SOL     OW65936   3.796   6.625   5.839 -0.3892  0.2844 -0.2499
19693SOL    HW165937   3.776   6.535   5.814 -0.4192 -0.1671  1.2630
19693SOL    HW265938   3.747   6.638   5.921  2.4971  0.3559  1.6313
19694SOL     OW65939   2.586  12.208   3.037 -0.5203 -0.0379  0.1702
19694SOL    HW165940   2.599  12.296   3.002  0.8167 -0.0152  0.6536
19694SOL    HW265941   2.526  12.165   2.976 -0.6257  0.9791 -0.4478
19695SOL     OW65942   8.219   3.001   2.227  0.4122 -0.0979 -0.0927
19695SOL    HW165943   8.299   2.987   2.176 -0.4769 -0.0773 -1.5418
19695SOL    HW265944   8.198   3.093   2.215 -0.8060 -0.4827 -1.2832
19696SOL     OW65945   2.215   1.968   3.025 -0.2047  0.4996  0.3962
19696SOL    HW165946   2.227   2.055   3.063 -1.1592 -0.3619  2.9471
19696SOL    HW265947   2.300   1.946   2.986  0.5248  1.9533  1.0938
19697SOL     OW65948  12.471   7.805   6.560 -0.0059  0.5975 -0.2838
19697SOL    HW165949  12.521   7.742   6.613 -0.1985 -0.9497 -1.8275
19697SOL    HW265950  12.535   7.873   6.537  0.3854  0.6433  0.8665
19698SOL     OW65951   2.178  10.522  11.046  0.0007  0.5402  0.3451
19698SOL    HW165952   2.103  10.464  11.060  0.8180 -1.0940 -1.5334
19698SOL    HW265953   2.141  10.602  11.010 -0.7747 -0.9760 -2.4856
19699SOL     OW65954   1.380   8.666   3.373 -0.1668  0.1650  0.0926
19699SOL    HW165955   1.427   8.738   3.415 -0.5810 -0.0603  0.9479
19699SOL    HW265956   1.448   8.620   3.323  0.2976  0.5227  0.3850
19700SOL     OW65957   1.527   1.257  10.379 -0.2904  0.5044  0.2902
19700SOL    HW165958   1.613   1.231  10.412 -1.3043 -2.1114  1.1655
19700SOL    HW265959   1.502   1.187  10.319 -1.3686  1.7719 -0.8142
19701SOL     OW65960   8.682   1.005   4.041  0.0773 -0.1515 -0.2345
19701SOL    HW165961   8.670   1.043   4.128 -0.1347  1.6768 -1.0247
19701SOL    HW265962   8.640   0.919   4.047 -2.0230  0.8699  0.8268
19702SOL     OW65963  10.480   0.468   9.518 -0.5298 -0.2462  0.6619
19702SOL    HW165964  10.430   0.407   9.464  2.3665 -0.3477 -2.3064
19702SOL    HW265965  10.427   0.548   9.520 -1.4789 -0.7746 -1.0955
19703SOL     OW65966   4.197  11.500   2.665  0.2005 -0.0386  0.3457
19703SOL    HW165967   4.198  11.581   2.613  1.4982 -0.4086 -0.2544
19703SOL    HW265968   4.190  11.530   2.756 -0.1584  0.7084  0.0778
19704SOL     OW65969   1.670   6.685   3.403  0.6422  0.0074 -0.2713
19704SOL    HW165970   1.703   6.602   3.369 -0.4576 -0.3043 -0.6352
19704SOL    HW265971   1.736   6.749   3.380  0.1172 -0.2435 -2.7168
19705SOL     OW65972  11.482   3.034   0.283 -0.2007  0.2077  0.2494
19705SOL    HW165973  11.543   2.967   0.317 -0.1999  0.5101  0.8612
19705SOL    HW265974  11.470   3.094   0.356 -2.0382 -0.3882  0.4989
19706SOL     OW65975   5.760   0.468   0.915 -0.6511 -0.1074 -0.1312
19706SOL    HW165976   5.798   0.506   0.836 -1.3550 -0.0673 -0.4561
19706SOL    HW265977   5.738   0.378   0.890  0.4444 -0.5584  0.4545
19707SOL     OW65978   3.940  12.307  10.892  0.2986 -0.5418  0.1703
19707SOL    HW165979   4.023  12.261  10.881  0.6866 -0.2752  1.7342
19707SOL    HW265980   3.963  12.387  10.939 -0.6344  0.3359 -0.8265
19708SOL     OW65981   0.072   1.476   4.807  0.0527 -0.1594 -0.4277
19708SOL    HW165982   0.013   1.434   4.870  0.6009 -0.0860  0.1413
19708SOL    HW265983   0.144   1.510   4.861  0.2583  0.3720 -1.0326
19709SOL     OW65984   5.523   8.542   3.195  0.5449 -0.4185  0.2329
19709SOL    HW165985   5.595   8.544   3.131 -0.2599  1.2561 -0.6868
19709SOL    HW265986   5.465   8.473   3.164 -0.0412  0.6448 -1.1394
19710SOL     OW65987   7.389   6.915   8.919  0.4187  0.0517  0.1195
19710SOL    HW165988   7.431   6.834   8.888 -0.9271 -1.2097  1.4171
19710SOL    HW265989   7.410   6.918   9.013 -1.9175 -0.3713  0.7013
19711SOL     OW65990   8.697  10.004  10.284  0.4395 -0.0296 -0.4846
19711SOL    HW165991   8.636   9.951  10.336  0.9304 -1.1762 -1.0474
19711SOL    HW265992   8.746   9.941  10.232  2.3864  0.8189  0.2158
19712SOL     OW65993   2.359  10.312  10.091  0.3319  0.0010 -0.2214
19712SOL    HW165994   2.433  10.253  10.104 -1.0247 -1.2898  2.3452
19712SOL    HW265995   2.367  10.377  10.161 -1.1203 -0.3732  0.3245
19713SOL     OW65996   0.677   7.991   2.055  0.5093  1.0845 -0.3390
19713SOL    HW165997   0.683   8.084   2.034  0.5266  1.2312  0.2893
19713SOL    HW265998   0.707   7.985   2.146  1.8335  0.2790 -0.7954
19714SOL     OW65999   1.503  10.495  10.505  0.3187 -0.0322 -0.1002
19714SOL    HW166000   1.503  10.409  10.548  0.5024  0.0995  0.1679
19714SOL    HW266001   1.412  10.525  10.512  0.4157  0.1352  0.5027
19715SOL     OW66002   2.639   0.822   5.227 -0.8622 -0.1023 -0.0483
19715SOL    HW166003   2.578   0.752   5.205  0.3196 -1.0510 -0.4531
19715SOL    HW266004   2.674   0.797   5.313  0.3146 -0.5710 -0.6441
19716SOL     OW66005  12.530  10.055   0.954  0.0863  0.0277  0.3926
19716SOL    HW166006  12.474  10.132   0.958 -0.7249 -0.5626  0.6827
19716SOL    HW266007  12.613  10.087   0.919 -0.6528  0.8000 -0.7391
19717SOL     OW66008   2.227  10.591   8.688 -0.3102  0.0156 -0.2417
19717SOL    HW166009   2.238  10.546   8.604  1.3299 -0.7879  0.3648
19717SOL    HW266010   2.263  10.678   8.674  1.5917 -0.6837  0.0782
19718SOL     OW66011   7.764   6.437   3.986  0.1991  0.7655  0.0578
19718SOL    HW166012   7.832   6.491   4.025 -0.1229  1.5004 -0.3704
19718SOL    HW266013   7.709   6.499   3.938 -0.3053  0.0826 -0.2643
19719SOL     OW66014   6.878   2.848   3.541  0.4915 -0.1998 -0.4706
19719SOL    HW166015   6.939   2.777   3.521  0.0416 -0.5076 -0.7707
19719SOL    HW266016   6.919   2.896   3.613  0.1583 -1.5878  0.6831
19720SOL     OW66017   0.134   3.609  11.738 -0.1016  0.4039  0.4616
19720SOL    HW166018   0.178   3.658  11.808 -1.0576  3.2232 -0.7750
19720SOL    HW266019   0.052   3.655  11.724 -0.9791 -1.4744 -1.0007
19721SOL     OW66020  12.050   2.644   6.459 -0.7090  0.1992 -0.3155
19721SOL    HW166021  12.105   2.567   6.475  1.4766  1.6471 -0.3214
19721SOL    HW266022  11.998   2.621   6.382 -0.8183 -1.6082  0.2636
19722SOL     OW66023   9.064   9.778  10.960  0.3156 -0.4394  0.6671
19722SOL    HW166024   9.033   9.853  10.908 -0.7722 -1.5886 -0.4001
19722SOL    HW266025   9.156   9.797  10.976  0.6850  0.0338 -1.6351
19723SOL     OW66026   5.484   7.051   3.218 -0.1317  0.2998 -0.3037
19723SOL    HW166027   5.523   7.103   3.148  0.4983  2.5123  1.5742
19723SOL    HW266028   5.558   7.021   3.271 -0.7081  1.3803  1.1822
19724SOL     OW66029   0.015  10.145   3.014  0.1733 -0.2894 -0.2234
19724SOL    HW166030  -0.038  10.072   2.984 -0.0237 -0.1232 -0.2789
19724SOL    HW266031   0.104  10.122   2.986  0.6019 -1.8217  2.1439
19725SOL     OW66032   2.056   4.459   0.791 -0.0593  0.6604  0.1247
19725SOL    HW166033   1.999   4.393   0.751  0.5010  0.1651  0.1269
19725SOL    HW266034   2.028   4.542   0.752 -0.3150  0.3368 -0.3965
19726SOL     OW66035   1.585   2.226   8.705  0.3147  0.0209  0.5670
19726SOL    HW166036   1.664   2.193   8.661  0.5753  0.3800  0.7556
19726SOL    HW266037   1.515   2.168   8.676  0.4949  0.2084 -0.2653
19727SOL     OW66038   0.932   1.460   0.309 -0.1954 -0.3144  0.3257
19727SOL    HW166039   1.015   1.456   0.356  1.3245  0.6873 -2.0578
19727SOL    HW266040   0.917   1.370   0.280  0.5394 -0.3481  0.0317
19728SOL     OW66041   9.865  11.034   0.795  0.4589 -0.2874  0.1833
19728SOL    HW166042   9.920  10.973   0.745  0.0272  0.3035 -1.0283
19728SOL    HW266043   9.917  11.114   0.799 -0.5277  0.4760 -1.4958
19729SOL     OW66044   9.212   6.375   9.393  0.2113 -0.1174 -0.6271
19729SOL    HW166045   9.282   6.310   9.404 -0.4312 -0.9139 -1.1501
19729SOL    HW266046   9.255   6.459   9.412  1.7961 -0.3730 -2.6984
19730SOL     OW66047   4.457   5.882   5.464  0.0356 -0.1399  0.3917
19730SOL    HW166048   4.417   5.942   5.527 -0.4769  0.8770 -0.8644
19730SOL    HW266049   4.383   5.836   5.425  0.2389  0.1506 -0.3558
19731SOL     OW66050   2.668  12.498   5.995 -1.1473  0.7372  0.3179
19731SOL    HW166051   2.689  12.417   6.042  1.6148  0.7707 -0.6698
19731SOL    HW266052   2.654  12.563   6.064 -0.4476  0.0709  1.1114
19732SOL     OW66053   2.819   7.814   8.800 -0.5788  0.3212 -0.0870
19732SOL    HW166054   2.837   7.794   8.892 -0.9414 -0.3877 -0.1557
19732SOL    HW266055   2.728   7.845   8.800 -1.1711 -1.3097 -0.4002
19733SOL     OW66056   7.185   8.023  11.754  0.1029  0.3579 -0.1147
19733SOL    HW166057   7.144   7.991  11.673 -0.4128  2.2271 -0.6332
19733SOL    HW266058   7.278   8.007  11.741 -0.0240  0.1889 -0.8816
19734SOL     OW66059   6.263   2.352   6.143 -0.5159 -0.3713 -0.2143
19734SOL    HW166060   6.350   2.352   6.103  1.8015  1.4408  4.1778
19734SOL    HW266061   6.229   2.263   6.127  2.4023 -1.3586 -1.5281
19735SOL     OW66062   0.228   3.749   5.002 -0.1386 -0.3173 -0.0027
19735SOL    HW166063   0.133   3.750   5.010 -0.0185  1.5174  2.3806
19735SOL    HW266064   0.256   3.837   5.026  2.2723 -1.4836  2.0858
19736SOL     OW66065   8.768   7.560   3.631  0.1280 -0.3551  0.4472
19736SOL    HW166066   8.696   7.505   3.664  1.4105 -1.2228  1.9379
19736SOL    HW266067   8.756   7.560   3.536 -1.7410 -0.6054  0.6418
19737SOL     OW66068   7.837  10.410   9.212  0.0313 -0.4876 -0.5087
19737SOL    HW166069   7.834  10.442   9.302  1.2279  0.3515 -0.7392
19737SOL    HW266070   7.928  10.382   9.199  0.7976  2.3506 -2.3638
19738SOL     OW66071   5.609   1.489   3.582  0.5796 -0.2728 -0.3792
19738SOL    HW166072   5.579   1.497   3.491 -1.2840  1.7775  0.3295
19738SOL    HW266073   5.704   1.481   3.575  0.7557  2.2526 -2.4867
19739SOL     OW66074   1.373   7.418   7.605 -0.5297 -0.1484  0.1583
19739SOL    HW166075   1.360   7.471   7.683 -1.3895 -1.7816  1.1932
19739SOL    HW266076   1.377   7.481   7.533 -0.6323  1.3385  1.4013
19740SOL     OW66077   1.961   6.951   9.977 -0.1723  0.4808  0.1202
19740SOL    HW166078   1.880   6.957  10.029 -0.1155  1.5670  0.0890
19740SOL    HW266079   2.029   6.986  10.035  0.3971 -0.9079  0.3460
19741SOL     OW66080  11.548   6.768  12.326 -0.5867  0.5933 -0.3629
19741SOL    HW166081  11.561   6.811  12.241 -1.1855  0.9153 -0.3015
19741SOL    HW266082  11.478   6.705  12.310  0.1838 -0.2697 -0.4150
19742SOL     OW66083  12.557   0.017   2.736 -0.4415 -0.2516  0.6683
19742SOL    HW166084  12.467  -0.010   2.756 -0.0138 -0.7846  1.9999
19742SOL    HW266085  12.611  -0.050   2.777  0.5737 -0.9343 -1.6324
19743SOL     OW66086   0.485   7.226   6.051  0.3990 -0.1550  0.0345
19743SOL    HW166087   0.487   7.147   5.997  0.2805  0.1042 -0.3530
19743SOL    HW266088   0.402   7.268   6.029 -0.0640 -0.4790  1.0534
19744SOL     OW66089  11.717   9.442   3.192 -0.3255  0.3933  0.5609
19744SOL    HW166090  11.771   9.416   3.117 -2.6664  0.5796 -1.2814
19744SOL    HW266091  11.737   9.376   3.259  0.2941 -1.0400 -0.9588
19745SOL     OW66092   1.662   7.786   9.891 -0.3887  0.1787 -0.5038
19745SOL    HW166093   1.757   7.795   9.889 -0.2887 -0.6262  0.1316
19745SOL    HW266094   1.631   7.843   9.820  0.4020  2.3153  0.7894
19746SOL     OW66095   8.288   3.628   8.859  0.5564  0.3128  0.6690
19746SOL    HW166096   8.193   3.642   8.861  0.4565 -0.2955  0.3783
19746SOL    HW266097   8.325   3.713   8.880 -0.0546  0.5979  0.6150
19747SOL     OW66098   4.788   0.539   8.660  0.1668 -0.1641  0.2476
19747SOL    HW166099   4.843   0.554   8.737  0.5544 -0.1828 -0.0217
19747SOL    HW266100   4.704   0.509   8.696  1.1499 -2.7645  0.6183
19748SOL     OW66101   5.805   2.095  10.501  0.0799 -0.5993 -0.4997
19748SOL    HW166102   5.784   2.118  10.592  0.3305 -1.0089 -0.3295
19748SOL    HW266103   5.725   2.111  10.452  0.5051  1.5584 -0.5934
19749SOL     OW66104  10.711   4.345   7.422 -0.0001 -0.2595 -0.2436
19749SOL    HW166105  10.661   4.283   7.370 -2.3008  0.2593  1.1925
19749SOL    HW266106  10.786   4.294   7.454 -1.9890 -2.5003  1.1986
19750SOL     OW66107   2.604   1.296   0.375  0.2153 -0.1795 -0.2076
19750SOL    HW166108   2.579   1.387   0.363 -0.9065 -0.3574  0.6004
19750SOL    HW266109   2.681   1.299   0.432  0.6015  0.2791 -0.7447
19751SOL     OW66110  11.072   4.811   4.275 -0.0397  0.1118 -0.7085
19751SOL    HW166111  11.024   4.734   4.305  0.4852 -0.0007 -0.1426
19751SOL    HW266112  11.019   4.885   4.306 -0.4163 -0.0123 -1.0416
19752SOL     OW66113   1.682   8.510  10.723 -0.2765 -0.2161  0.3773
19752SOL    HW166114   1.673   8.537  10.814  0.4767  0.0568  0.3817
19752SOL    HW266115   1.596   8.477  10.699 -1.2410  2.1529  0.3803
19753SOL     OW66116   5.753   0.781   3.300  0.0467  0.1213 -0.4767
19753SOL    HW166117   5.841   0.781   3.260  0.8122  0.4841  1.1177
19753SOL    HW266118   5.713   0.862   3.269  0.3463  0.0636 -1.0401
19754SOL     OW66119  12.133   6.485   2.668 -0.2985  0.7330 -0.4447
19754SOL    HW166120  12.152   6.399   2.707  0.5737  1.7767  1.5875
19754SOL    HW266121  12.038   6.483   2.653  0.0613 -1.6584 -3.3432
19755SOL     OW66122   2.797   9.480   8.145  0.1388  0.1713 -0.2137
19755SOL    HW166123   2.710   9.460   8.180 -0.2334  1.8942 -0.0782
19755SOL    HW266124   2.843   9.521   8.218  0.3165  1.2338 -0.9091
19756SOL     OW66125   9.271   4.592   3.420 -0.2021 -0.4079  0.3894
19756SOL    HW166126   9.281   4.651   3.345  1.9339  0.6420  1.4189
19756SOL    HW266127   9.194   4.626   3.467  0.2402  0.7967  0.2758
19757SOL     OW66128   7.319   2.823   6.661  0.0544  0.2555  0.7936
19757SOL    HW166129   7.289   2.885   6.728 -3.7680  1.4775 -1.7052
19757SOL    HW266130   7.333   2.877   6.583  0.7873 -1.5492 -0.3775
19758SOL     OW66131   4.139   8.474   4.163  0.2001  0.2113 -0.2184
19758SOL    HW166132   4.233   8.489   4.155  0.2913 -0.9669 -1.9136
19758SOL    HW266133   4.127   8.382   4.142 -1.4059  0.5045 -0.7417
19759SOL     OW66134   0.176   2.780   5.238  0.8535 -0.3046 -0.4219
19759SOL    HW166135   0.106   2.736   5.191  1.0634 -0.8730 -0.2177
19759SOL    HW266136   0.131   2.834   5.303  0.5828  0.0278 -0.8859
19760SOL     OW66137   7.212   2.190   6.427 -0.1430 -0.1477  0.2888
19760SOL    HW166138   7.249   2.130   6.362  0.2109  1.2216 -0.8248
19760SOL    HW266139   7.255   2.274   6.410 -2.8192  1.2357 -0.2770
19761SOL     OW66140   3.775  10.352   1.125  0.0619 -0.9777 -0.0222
19761SOL    HW166141   3.715  10.426   1.119 -1.2904 -2.1180 -1.2154
19761SOL    HW266142   3.736  10.294   1.190  0.4262 -1.2598 -0.0493
19762SOL     OW66143   2.434   2.005   8.671  1.0591  0.9116  0.1875
19762SOL    HW166144   2.451   2.019   8.765  2.5681  0.2731  0.0387
19762SOL    HW266145   2.508   2.047   8.627  1.6053 -0.8208 -0.6012
19763SOL     OW66146   0.706   5.809   4.707 -0.1308  0.1135  0.5791
19763SOL    HW166147   0.736   5.742   4.769  0.5011 -1.4405 -1.3156
19763SOL    HW266148   0.625   5.775   4.672  0.0689  0.4550 -0.2379
19764SOL     OW66149  11.619   6.255   0.035  0.0556  0.5780  0.2753
19764SOL    HW166150  11.571   6.205   0.101  0.2247 -1.3371 -0.9691
19764SOL    HW266151  11.551   6.308  -0.007 -0.6541 -0.5778 -0.1025
19765SOL     OW66152   8.444   2.617  11.844 -0.1133  0.7421  0.0955
19765SOL    HW166153   8.412   2.528  11.862 -0.2663  0.2585 -2.2031
19765SOL    HW266154   8.366   2.672  11.853 -1.0926 -0.0260 -2.5792
19766SOL     OW66155   6.668  10.918  10.259  0.0291 -0.2637 -0.3849
19766SOL    HW166156   6.707  11.004  10.275  0.1086 -0.3783  0.0494
19766SOL    HW266157   6.573  10.932  10.265  0.0450 -0.2196 -0.2440
19767SOL     OW66158   9.797   4.510   7.558  0.0891  0.3302 -0.2760
19767SOL    HW166159   9.830   4.421   7.575 -1.6153  0.0369  1.9217
19767SOL    HW266160   9.806   4.555   7.642 -1.0939  1.5451 -0.7744
19768SOL     OW66161  10.796   0.826   2.432  0.1257  0.0983  0.0416
19768SOL    HW166162  10.880   0.856   2.469  0.7481 -1.8691  0.3461
19768SOL    HW266163  10.735   0.831   2.505  0.0191  1.2620 -0.1027
19769SOL     OW66164   1.797   9.870  10.222  0.3503 -0.3593  0.1084
19769SOL    HW166165   1.778   9.827  10.305  0.1439  0.2321  0.3723
19769SOL    HW266166   1.760   9.958  10.231  1.8791  0.3131  0.0555
19770SOL     OW66167  11.912   2.271   2.914 -0.1537  0.1873  0.7235
19770SOL    HW166168  11.838   2.213   2.901  0.2553 -0.9365  2.9704
19770SOL    HW266169  11.878   2.359   2.895 -0.8168 -0.6475 -2.5515
19771SOL     OW66170   1.756   3.864   5.381  0.1600  0.1917  0.3384
19771SOL    HW166171   1.765   3.878   5.475 -0.7461 -2.0539  0.8121
19771SOL    HW266172   1.840   3.828   5.353  0.0874 -0.0909  0.4840
19772SOL     OW66173  10.649   2.096   8.617 -0.3465  0.8670 -0.2332
19772SOL    HW166174  10.675   2.147   8.540  1.6226  1.2857  0.6233
19772SOL    HW266175  10.637   2.162   8.685 -1.3333  0.4429  0.0119
19773SOL     OW66176   5.909   9.918   1.232  0.4938  0.1777 -0.0589
19773SOL    HW166177   5.972   9.946   1.299  0.3435 -0.5032  0.3701
19773SOL    HW266178   5.901   9.994   1.174  1.3941  0.4183  0.1145
19774SOL     OW66179   6.640   3.716  10.294 -0.2663 -0.3574  0.3731
19774SOL    HW166180   6.690   3.699  10.214  1.3349 -2.1217  1.6665
19774SOL    HW266181   6.691   3.783  10.340  0.5182 -1.5573  1.3050
19775SOL     OW66182   5.983   4.278   2.099 -0.1805 -0.2124 -0.0033
19775SOL    HW166183   5.889   4.262   2.096 -0.0729 -0.9551  0.3121
19775SOL    HW266184   5.991   4.367   2.134 -0.7714  0.0189 -0.4437
19776SOL     OW66185   2.069   4.258   8.453 -0.9933  0.2084  0.1332
19776SOL    HW166186   2.086   4.230   8.543 -0.3286  3.8613  1.3110
19776SOL    HW266187   2.016   4.338   8.462  0.4607  1.6207 -2.5760
19777SOL     OW66188   8.660   3.835   8.184  0.3623 -0.0443  0.1035
19777SOL    HW166189   8.673   3.911   8.241 -0.3128  0.9112 -0.9862
19777SOL    HW266190   8.567   3.836   8.161  0.4287 -0.9526 -0.2836
19778SOL     OW66191   0.357   1.932   7.562 -0.1497 -0.2087 -0.2120
19778SOL    HW166192   0.404   1.999   7.511  2.6451 -1.8021  0.0646
19778SOL    HW266193   0.351   1.857   7.503  0.2366 -0.9848  0.7057
19779SOL     OW66194  11.987  10.850   2.136  0.0195 -0.5953 -0.4135
19779SOL    HW166195  12.053  10.820   2.073  2.4036 -0.5215  1.8693
19779SOL    HW266196  11.981  10.779   2.200  0.7569  0.9293  1.4540
19780SOL     OW66197   7.075   1.265   3.769  0.3116 -0.2177 -0.1928
19780SOL    HW166198   7.161   1.275   3.810  0.8471 -0.9354 -1.1006
19780SOL    HW266199   7.017   1.318   3.823  0.8719 -1.4985  1.7907
19781SOL     OW66200  11.969   2.965   7.204  0.6324 -0.3979  0.4540
19781SOL    HW166201  12.027   3.036   7.174  1.2082 -0.0389  2.2891
19781SOL    HW266202  11.958   2.909   7.127 -1.6013  2.7572 -1.7805
19782SOL     OW66203   2.674  11.368  11.854 -0.1645 -0.7437  0.2096
19782SOL    HW166204   2.655  11.325  11.770 -0.9043 -0.0296 -0.0086
19782SOL    HW266205   2.709  11.453  11.829 -0.1223 -0.6385  0.6343
19783SOL     OW66206   0.810  10.506   2.629 -0.4512 -0.7718 -0.0249
19783SOL    HW166207   0.863  10.567   2.578  0.8359 -0.9661  1.0264
19783SOL    HW266208   0.873  10.456   2.680 -1.6548 -0.4583  1.9046
19784SOL     OW66209   7.085   2.587  11.440 -0.0061  0.4680  0.2603
19784SOL    HW166210   7.132   2.629  11.368  1.0116  0.3166  0.8134
19784SOL    HW266211   7.065   2.499  11.408 -0.3756  0.7057 -0.1706
19785SOL     OW66212   5.687   1.561  12.438  0.2112 -0.3344 -0.1670
19785SOL    HW166213   5.637   1.630  12.395 -0.4087 -1.5238 -1.4235
19785SOL    HW266214   5.633   1.535  12.512  0.2549  0.2199  0.0684
19786SOL     OW66215   5.797   4.111  11.889  0.0438 -0.1779  0.3435
19786SOL    HW166216   5.807   4.118  11.984  0.9471  0.3306  0.2179
19786SOL    HW266217   5.857   4.042  11.863 -0.0893 -0.2134  0.1221
19787SOL     OW66218   0.045   9.735   0.773  0.7262  0.3246 -0.3043
19787SOL    HW166219  -0.007   9.659   0.801 -0.3982  0.3975 -2.0441
19787SOL    HW266220   0.035   9.798   0.843  1.4227 -0.9980  1.0374
19788SOL     OW66221  11.262   1.034  10.742 -0.4411  0.0622 -1.1065
19788SOL    HW166222  11.328   1.080  10.692  1.3140 -1.7457 -0.5718
19788SOL    HW266223  11.311   0.973  10.797 -2.5244 -1.0338 -0.3378
19789SOL     OW66224   3.432   1.419   1.022 -0.2935 -0.4217  0.2259
19789SOL    HW166225   3.403   1.332   0.999 -1.2385  0.4352 -2.0380
19789SOL    HW266226   3.433   1.468   0.940  1.5938  1.3349  1.1745
19790SOL     OW66227   8.981   8.653   5.334  0.1694 -0.5657 -0.2300
19790SOL    HW166228   8.905   8.666   5.277  2.1469 -0.9268 -3.2047
19790SOL    HW266229   9.010   8.564   5.315  1.3356 -0.4361  0.8492
19791SOL     OW66230   9.316   6.808   5.478  0.3771 -0.2355 -0.4702
19791SOL    HW166231   9.262   6.834   5.552  1.5546 -0.2573  0.4190
19791SOL    HW266232   9.265   6.834   5.401 -0.4530  0.6238  0.3457
19792SOL     OW66233   7.325   0.917   8.007  0.3133  0.0164 -0.0669
19792SOL    HW166234   7.388   0.900   7.936 -0.9277 -3.1505 -0.5833
19792SOL    HW266235   7.247   0.950   7.962  0.0722 -0.4668 -0.0118
19793SOL     OW66236   6.996   1.756   8.574 -0.0608 -0.0142  0.3535
19793SOL    HW166237   6.998   1.722   8.663  0.6184 -0.4913  0.1623
19793SOL    HW266238   7.007   1.850   8.584 -1.2962  0.0990  0.8454
19794SOL     OW66239  10.872   5.351  11.632 -0.0269  0.6488  0.0842
19794SOL    HW166240  10.944   5.413  11.627  1.4523 -0.9308  0.7267
19794SOL    HW266241  10.879   5.299  11.552  1.3698 -1.3289  1.3974
19795SOL     OW66242   8.113   0.722   2.217 -0.5995 -0.6891 -0.0405
19795SOL    HW166243   8.187   0.671   2.251  0.0188 -0.1536 -0.5486
19795SOL    HW266244   8.107   0.698   2.125 -1.6360 -1.3887  0.1958
19796SOL     OW66245   2.560   1.819   5.875 -0.2249 -0.0782  0.0333
19796SOL    HW166246   2.529   1.861   5.955  0.1140 -1.0217  0.6727
19796SOL    HW266247   2.495   1.842   5.809 -0.1570  1.2721  0.4016
19797SOL     OW66248   4.142   9.786   7.546  0.3159 -0.2744  0.4874
19797SOL    HW166249   4.063   9.797   7.493 -0.1395 -0.4838  1.1132
19797SOL    HW266250   4.142   9.863   7.604  1.3467  0.4834 -0.4772
19798SOL     OW66251   2.316   9.038  10.938  0.0307 -0.1434 -0.0948
19798SOL    HW166252   2.333   9.122  10.894  2.7497 -1.6618 -2.3279
19798SOL    HW266253   2.247   8.998  10.885 -1.0087  0.5006  0.7511
19799SOL     OW66254   8.448   9.265   5.817  0.2978 -0.7384 -0.0848
19799SOL    HW166255   8.418   9.175   5.828  1.2189 -1.1218 -0.5600
19799SOL    HW266256   8.535   9.266   5.858  0.7840 -0.3695 -1.1016
19800SOL     OW66257   5.921   7.616  11.308 -0.0127  0.3231 -0.2386
19800SOL    HW166258   5.981   7.610  11.234  0.3497  1.7255 -0.0889
19800SOL    HW266259   5.836   7.592  11.272  0.3569 -0.1052 -0.8424
19801SOL     OW66260   1.542  10.601   3.059 -0.1606  0.9277  0.3842
19801SOL    HW166261   1.632  10.595   3.027  0.0953  1.0764  1.0672
19801SOL    HW266262   1.549  10.589   3.154 -0.8802  0.7615  0.4179
19802SOL     OW66263   0.279   9.575   8.052 -0.7908  0.1582 -0.3871
19802SOL    HW166264   0.253   9.643   8.115  0.4062  1.6005 -1.3596
19802SOL    HW266265   0.357   9.535   8.092 -1.6926 -0.9084  0.3427
19803SOL     OW66266   0.647   4.184   9.527  0.2536 -0.2224  0.0761
19803SOL    HW166267   0.643   4.212   9.619  0.3633  1.2424 -0.3497
19803SOL    HW266268   0.558   4.197   9.494  0.3766 -0.1204 -0.2111
19804SOL     OW66269   1.177   7.707   5.344 -0.3413  0.8850 -0.0423
19804SOL    HW166270   1.197   7.801   5.343 -0.4454  0.9010 -1.0117
19804SOL    HW266271   1.112   7.697   5.413  1.0251  1.2354  1.3674
19805SOL     OW66272   7.351   5.344   9.904 -0.5753  0.0507 -0.9895
19805SOL    HW166273   7.324   5.255   9.929 -1.0619  0.1885 -1.0169
19805SOL    HW266274   7.435   5.356   9.948 -0.3380 -0.5514 -1.2618
19806SOL     OW66275   2.680   4.852   8.359 -0.0202 -0.1043 -0.2210
19806SOL    HW166276   2.705   4.944   8.351  0.7436 -0.2753  0.1266
19806SOL    HW266277   2.590   4.854   8.391 -0.5056  0.5264 -1.5425
19807SOL     OW66278   7.932  10.669   4.385 -0.0676 -0.1841  0.0940
19807SOL    HW166279   7.892  10.665   4.472  1.2399 -0.2875  0.7165
19807SOL    HW266280   7.938  10.763   4.366 -0.2527 -0.1598  0.1475
19808SOL     OW66281   9.913  12.421   9.937 -0.3365 -0.0742 -0.0859
19808SOL    HW166282   9.896  12.348   9.877 -1.0371  0.3165 -0.3855
19808SOL    HW266283   9.829  12.435   9.982  0.1378 -0.2652  0.8852
19809SOL     OW66284   8.109   8.344   8.794 -0.2588  0.0529  0.0133
19809SOL    HW166285   8.083   8.435   8.781 -0.1311  0.2109  0.7649
19809SOL    HW266286   8.099   8.302   8.709 -0.6258  0.6954 -0.2587
19810SOL     OW66287   2.288   7.853   6.187 -1.0091  0.5451 -0.2686
19810SOL    HW166288   2.272   7.905   6.265 -0.3937  0.7224 -0.2523
19810SOL    HW266289   2.266   7.763   6.213  0.6310  0.3455  0.6161
19811SOL     OW66290   9.862   2.998   0.941  0.0006 -0.4238 -0.0224
19811SOL    HW166291   9.942   2.961   0.905  0.1467 -1.2039  1.0241
19811SOL    HW266292   9.826   3.053   0.872  0.6838 -1.2174 -1.0265
19812SOL     OW66293   9.819  11.798   2.099 -0.2361  0.2525 -0.6717
19812SOL    HW166294   9.893  11.738   2.103 -0.7591 -0.5141 -1.8774
19812SOL    HW266295   9.784  11.799   2.188 -0.6549 -1.8349 -0.7746
19813SOL     OW66296   5.320  11.397  10.801 -0.1749 -1.0659 -0.2760
19813SOL    HW166297   5.245  11.388  10.860  1.0020 -0.7681  1.3460
19813SOL    HW266298   5.309  11.483  10.760  0.1468 -0.2313  1.3015
19814SOL     OW66299   1.929   9.726   7.169 -0.0462  0.0353  0.3343
19814SOL    HW166300   1.976   9.660   7.221 -0.8638 -0.4173  0.5086
19814SOL    HW266301   1.936   9.695   7.079  1.3743  0.8219  0.1341
19815SOL     OW66302  11.920   0.727   3.379 -0.2643  0.5171 -0.0254
19815SOL    HW166303  11.835   0.773   3.374  0.1565  1.2054 -1.7521
19815SOL    HW266304  11.898   0.635   3.370 -0.7858  0.7708 -1.6892
19816SOL     OW66305   9.716   8.533   2.573 -0.2631  0.5247  0.2679
19816SOL    HW166306   9.803   8.494   2.561 -0.3420  0.9593 -2.3056
19816SOL    HW266307   9.716   8.563   2.664  2.5139  1.0150  0.2077
19817SOL     OW66308   4.359   7.764   4.177 -0.0023  0.4158 -0.3121
19817SOL    HW166309   4.425   7.728   4.236 -0.0829 -1.9638 -1.5463
19817SOL    HW266310   4.276   7.747   4.220 -0.0057 -0.2933 -0.5967
19818SOL     OW66311   6.380   6.783   1.147 -0.1202 -0.0615 -0.0009
19818SOL    HW166312   6.330   6.862   1.167  1.8791  0.9707  1.1730
19818SOL    HW266313   6.342   6.715   1.203  0.0932  0.8226  1.2505
19819SOL     OW66314   2.013   6.141   6.733 -0.1192 -0.4839  0.2584
19819SOL    HW166315   1.971   6.079   6.674  3.2378 -1.1923 -1.6319
19819SOL    HW266316   2.057   6.087   6.798 -0.6233  0.1428  1.1393
19820SOL     OW66317   7.202   4.640  12.536 -0.0618 -0.3043  0.2104
19820SOL    HW166318   7.223   4.696  12.462 -1.6595 -1.7632 -1.4266
19820SOL    HW266319   7.282   4.640  12.589  0.9840  1.1247 -1.2658
19821SOL     OW66320  10.912  11.397  10.014  0.7680  0.1792  0.1817
19821SOL    HW166321  10.852  11.428   9.946 -0.4919  0.4321  1.3419
19821SOL    HW266322  10.925  11.304   9.995 -2.5389 -0.7361  1.5677
19822SOL     OW66323   5.809   0.891   3.554 -0.2523 -0.0419  0.5188
19822SOL    HW166324   5.745   0.878   3.624 -1.8923  2.6335 -0.3645
19822SOL    HW266325   5.777   0.839   3.481 -1.4459  1.2367  0.1031
19823SOL     OW66326   4.830   2.501   8.503 -0.0524  0.2268  0.1514
19823SOL    HW166327   4.815   2.593   8.522  0.1555  0.2165  0.3721
19823SOL    HW266328   4.924   2.488   8.519  0.1679  0.2469 -0.9842
19824SOL     OW66329   5.241   2.154   8.014  0.2700 -0.3150 -0.0789
19824SOL    HW166330   5.261   2.191   8.100  1.7286 -2.2845  0.5042
19824SOL    HW266331   5.298   2.077   8.008 -2.3943 -2.3126 -1.3107
19825SOL     OW66332  10.725   6.135   0.624  0.4879 -0.1602 -0.5657
19825SOL    HW166333  10.798   6.195   0.634  0.6873 -0.6450  1.1566
19825SOL    HW266334  10.647   6.188   0.642  0.5515 -0.0983 -0.4775
19826SOL     OW66335   0.041   8.180   4.966 -0.0781  0.1459  0.4112
19826SOL    HW166336   0.104   8.170   4.896 -0.5407  1.2741 -0.2008
19826SOL    HW266337   0.093   8.178   5.046  0.7742  1.2445 -0.0866
19827SOL     OW66338  12.460   4.924   2.924 -0.0864 -0.0003  0.0863
19827SOL    HW166339  12.407   4.844   2.934 -1.8036  0.8498 -1.5357
19827SOL    HW266340  12.549   4.896   2.943 -0.8535 -1.9393  1.1349
19828SOL     OW66341   5.654   6.841   1.727 -0.0238 -0.0508 -0.2333
19828SOL    HW166342   5.589   6.781   1.763 -1.1355  1.1360 -0.1813
19828SOL    HW266343   5.726   6.841   1.791 -1.0086  0.3786  0.8963
19829SOL     OW66344   1.534   8.817   5.164  0.1380  0.1483  0.3048
19829SOL    HW166345   1.584   8.848   5.240  0.2546  1.0870 -0.1442
19829SOL    HW266346   1.452   8.868   5.168 -1.2206 -1.9569  1.5247
19830SOL     OW66347   8.134   9.978   0.306 -0.0622  0.3961 -0.4293
19830SOL    HW166348   8.042  10.003   0.301  0.0917  1.1832  0.3926
19830SOL    HW266349   8.133   9.892   0.347 -0.3579  1.2496  1.4902
19831SOL     OW66350   3.833  11.155   8.772  0.1932 -0.5581 -0.2212
19831SOL    HW166351   3.918  11.195   8.753  0.3858 -1.5870 -1.6825
19831SOL    HW266352   3.788  11.154   8.687 -1.4268  0.2486  0.5796
19832SOL     OW66353  12.355   7.033   0.484 -0.2521 -0.5448  0.2037
19832SOL    HW166354  12.344   6.952   0.434  1.3795 -0.1950 -0.8075
19832SOL    HW266355  12.448   7.033   0.509  0.3038  1.9330 -1.5588
19833SOL     OW66356   3.470   7.688  11.964  0.0527 -0.3228  0.4464
19833SOL    HW166357   3.554   7.730  11.944  0.6813 -1.2205  1.0884
19833SOL    HW266358   3.451   7.635  11.887  1.1280 -1.7023  1.0775
19834SOL     OW66359   6.664  10.486  11.891 -0.1850 -0.1282 -0.0045
19834SOL    HW166360   6.598  10.555  11.883 -0.8057 -0.6609  0.4098
19834SOL    HW266361   6.677  10.476  11.985 -1.2039 -1.5803  0.0256
19835SOL     OW66362  11.836  11.790   2.265 -0.3696 -0.0674  0.1439
19835SOL    HW166363  11.742  11.792   2.247 -0.6796 -1.0841  1.5363
19835SOL    HW266364  11.867  11.877   2.240 -1.4753 -0.0457 -1.3065
19836SOL     OW66365   0.806   6.806   5.753  0.2351  0.1598  0.5671
19836SOL    HW166366   0.794   6.730   5.696  0.8747  1.0854 -0.8553
19836SOL    HW266367   0.724   6.812   5.803 -0.1222 -1.0049  0.1517
19837SOL     OW66368   9.189   1.331   3.551  0.2592  0.4133 -0.6104
19837SOL    HW166369   9.208   1.411   3.600 -1.1030 -0.4556  1.5193
19837SOL    HW266370   9.169   1.267   3.619  0.1439 -1.4153 -2.3070
19838SOL     OW66371  10.348   2.143  10.258 -0.6900 -0.1035  0.0983
19838SOL    HW166372  10.352   2.048  10.264 -0.5991 -0.0624  0.7549
19838SOL    HW266373  10.425   2.174  10.306 -3.1050  0.4053  4.1047
19839SOL     OW66374   1.384   5.667  11.955  0.3277 -0.1934  0.0352
19839SOL    HW166375   1.369   5.572  11.955  0.2081 -0.2354  2.2627
19839SOL    HW266376   1.297   5.705  11.946  0.3544 -0.2925 -0.6625
19840SOL     OW66377  10.880   0.509  10.998  0.3103  0.4474 -0.6124
19840SOL    HW166378  10.871   0.590  11.049  1.7959  1.2116 -1.5219
19840SOL    HW266379  10.809   0.513  10.934 -1.5024 -0.4620  1.2037
19841SOL     OW66380   9.244   4.446   3.735 -0.1301  0.0602  0.2616
19841SOL    HW166381   9.149   4.456   3.736 -0.3480 -1.4548  2.6314
19841SOL    HW266382   9.274   4.489   3.814  0.8833 -1.4004  0.7157
19842SOL     OW66383  12.346   5.025  11.729 -0.2721  0.8800 -0.2215
19842SOL    HW166384  12.376   5.113  11.753 -0.3725  0.7474  0.4049
19842SOL    HW266385  12.251   5.034  11.720 -0.2114  0.9750 -0.7782
19843SOL     OW66386  10.200   4.887  10.951 -0.0425 -0.4675 -0.0052
19843SOL    HW166387  10.218   4.912  10.860 -0.9965 -0.1236 -0.1064
19843SOL    HW266388  10.114   4.924  10.970 -0.4516 -1.6746  0.6020
19844SOL     OW66389   4.074   3.490  10.180 -0.0434  0.5249  0.4309
19844SOL    HW166390   4.166   3.502  10.158 -0.2165 -0.7752 -1.1679
19844SOL    HW266391   4.058   3.397  10.167 -1.2788  0.4797  1.9908
19845SOL     OW66392   8.093   2.298  10.365 -0.0364  0.5594 -0.6521
19845SOL    HW166393   8.058   2.231  10.423  0.6143  0.9283  0.1824
19845SOL    HW266394   8.123   2.368  10.423 -1.7033  2.0932 -1.5397
19846SOL     OW66395   4.482  10.877   9.634  0.4662 -0.2015 -0.4322
19846SOL    HW166396   4.409  10.883   9.696 -1.2243 -0.2150 -2.3222
19846SOL    HW266397   4.503  10.784   9.631  1.5987 -0.0430  1.1881
19847SOL     OW66398   6.224   4.807   1.549  0.0199  0.0937 -0.3664
19847SOL    HW166399   6.191   4.890   1.513  0.4896  0.2725 -0.3889
19847SOL    HW266400   6.303   4.832   1.597 -1.7077  0.2087  2.6720
19848SOL     OW66401   3.674   0.609   6.133 -0.1634  0.0098 -0.5116
19848SOL    HW166402   3.687   0.573   6.045 -0.1632  0.6664 -0.7886
19848SOL    HW266403   3.595   0.662   6.126 -0.4197 -0.3031  0.0036
19849SOL     OW66404   5.266   6.847  11.819  0.1444  0.3024 -0.3004
19849SOL    HW166405   5.298   6.902  11.890 -0.4900 -0.5690  0.6938
19849SOL    HW266406   5.325   6.865  11.746  1.3259  0.6077  0.6992
19850SOL     OW66407  12.382   9.454  11.329 -0.4166 -0.7135  0.2282
19850SOL    HW166408  12.389   9.457  11.425 -0.4603  0.3428  0.2082
19850SOL    HW266409  12.364   9.544  11.304  2.9868 -0.2577 -1.0604
19851SOL     OW66410   5.656   4.685  10.724 -0.0183 -0.3680 -0.0680
19851SOL    HW166411   5.698   4.629  10.790  0.8582  0.3056 -0.0350
19851SOL    HW266412   5.593   4.627  10.681 -0.6099 -0.8219  1.3549
19852SOL     OW66413   0.987   1.123   1.879 -0.6300 -0.0399 -0.5107
19852SOL    HW166414   1.039   1.082   1.948  1.3372 -0.8752 -2.3502
19852SOL    HW266415   0.960   1.050   1.823 -2.5363  0.5613 -0.4722
19853SOL     OW66416  11.537   1.944   6.107  0.0222 -0.6306  0.2510
19853SOL    HW166417  11.586   1.999   6.168  1.3778 -0.2989 -1.0913
19853SOL    HW266418  11.595   1.933   6.032 -2.0324 -0.0233 -1.5286
19854SOL     OW66419   6.860   1.424   4.687 -0.0366 -0.4315 -0.2221
19854SOL    HW166420   6.936   1.481   4.698  0.1038 -0.6377 -0.1111
19854SOL    HW266421   6.897   1.337   4.673 -0.2327 -0.3680 -1.2124
19855SOL     OW66422   8.581   2.412  10.877 -0.2155 -0.2391 -0.4182
19855SOL    HW166423   8.501   2.364  10.897 -0.8566  0.2753 -1.6887
19855SOL    HW266424   8.573   2.494  10.925  0.6778 -1.1376  1.3920
19856SOL     OW66425   4.112   6.344   7.296  0.3483  0.4338  0.3753
19856SOL    HW166426   4.135   6.251   7.287 -1.2496 -0.1527  1.7098
19856SOL    HW266427   4.105   6.376   7.206  0.1981 -0.9587 -0.1347
19857SOL     OW66428   3.996   5.582  12.334  0.2303  0.6069 -0.5870
19857SOL    HW166429   4.022   5.633  12.258 -0.1185  0.3304 -0.8963
19857SOL    HW266430   3.901   5.573  12.326  0.1778  0.6590 -0.0687
19858SOL     OW66431  12.473   5.269   7.650 -0.4970 -0.0644 -0.2192
19858SOL    HW166432  12.393   5.215   7.653 -1.3512  0.9763 -2.4110
19858SOL    HW266433  12.453   5.343   7.708  0.2293 -1.4271  1.8730
19859SOL     OW66434  10.385   6.010  10.274 -0.0271  0.0114  0.1285
19859SOL    HW166435  10.480   6.010  10.285  0.0458  0.9251 -0.3265
19859SOL    HW266436  10.372   6.042  10.184 -0.7764  0.8091  0.5018
19860SOL     OW66437   2.502   9.676   2.616 -0.2702 -0.1880  0.2781
19860SOL    HW166438   2.527   9.588   2.642  0.0787 -0.2550 -0.2679
19860SOL    HW266439   2.566   9.733   2.659  0.2713 -0.2948 -0.3677
19861SOL     OW66440   8.798  12.566   1.580  0.0333  0.3461 -0.1744
19861SOL    HW166441   8.715  12.534   1.546 -0.4138  1.4302 -0.1469
19861SOL    HW266442   8.847  12.596   1.503 -0.1008  0.8154 -0.0825
19862SOL     OW66443   5.406  12.488  11.103 -0.4034  0.5238  0.6300
19862SOL    HW166444   5.485  12.494  11.157 -1.1539  1.9896  1.6240
19862SOL    HW266445   5.403  12.571  11.055 -0.8932  0.1167 -0.0744
19863SOL     OW66446  10.858  10.123   8.468 -0.1866 -0.4822 -0.1398
19863SOL    HW166447  10.855  10.094   8.559 -0.9585  3.6239  1.3633
19863SOL    HW266448  10.788  10.074   8.425 -2.2372  0.0056  2.4146
19864SOL     OW66449  10.473   7.120   8.727  0.2870 -0.3350  0.1545
19864SOL    HW166450  10.499   7.036   8.689 -2.1607 -1.6979  1.1689
19864SOL    HW266451  10.521   7.125   8.810  0.2121 -0.9051  0.2359
19865SOL     OW66452   7.453   0.840   1.240 -0.2766  0.1162 -0.2565
19865SOL    HW166453   7.413   0.761   1.274 -1.2479  1.1784  1.1570
19865SOL    HW266454   7.459   0.899   1.315  0.3858  1.4099 -1.2767
19866SOL     OW66455   4.797   3.804  11.519  0.3687 -0.2581 -0.0521
19866SOL    HW166456   4.784   3.898  11.531  1.2001 -0.2490  0.8640
19866SOL    HW266457   4.891   3.790  11.532 -0.1642 -1.7053  3.6057
19867SOL     OW66458   5.145   3.380   1.058 -0.2557 -0.1639  0.0257
19867SOL    HW166459   5.134   3.313   1.125 -0.9255  0.9943  1.1080
19867SOL    HW266460   5.143   3.463   1.105  0.3461  0.6517 -1.3038
19868SOL     OW66461   0.449   6.394   0.257  0.0334  0.5157  0.2975
19868SOL    HW166462   0.525   6.337   0.268  0.4241  0.7587 -1.0636
19868SOL    HW266463   0.374   6.335   0.258  0.4333 -0.0514 -1.0869
19869SOL     OW66464   3.119   2.951   7.645 -0.4184 -0.5054  0.0315
19869SOL    HW166465   3.078   3.036   7.661 -1.9878 -1.2127  0.0004
19869SOL    HW266466   3.206   2.972   7.612 -0.5187  1.0750  0.6706
19870SOL     OW66467  12.433   6.004   1.357 -0.0762  0.5340  0.3710
19870SOL    HW166468  12.428   5.909   1.371  2.9911  0.3757  1.0718
19870SOL    HW266469  12.363   6.023   1.295 -0.6035 -2.2147 -0.0007
19871SOL     OW66470   6.727   1.020  10.507  0.2209  0.6244 -0.3243
19871SOL    HW166471   6.662   1.090  10.509 -0.7896 -0.3071 -0.1272
19871SOL    HW266472   6.808   1.062  10.538  0.0243  2.0772 -1.6540
19872SOL     OW66473  11.735   7.651   5.572  0.0133 -0.0475 -0.3865
19872SOL    HW166474  11.683   7.588   5.522  0.5404 -0.5047 -0.3709
19872SOL    HW266475  11.675   7.684   5.639 -0.1919 -0.7462 -0.2202
19873SOL     OW66476  12.153   2.604  10.907  0.2005  0.1543  0.6141
19873SOL    HW166477  12.126   2.561  10.826 -0.6521  2.7014 -0.5562
19873SOL    HW266478  12.221   2.666  10.880 -0.4422  1.4032  1.7399
19874SOL     OW66479   7.031   9.952  11.352 -0.1294  0.0941  0.2106
19874SOL    HW166480   7.024   9.942  11.447 -0.6407 -0.1879  0.1462
19874SOL    HW266481   6.946   9.925  11.319  0.3815 -0.7915 -0.4095
19875SOL     OW66482  12.080   3.721   1.849 -0.3426 -0.3088  0.0223
19875SOL    HW166483  11.999   3.673   1.864  1.2986 -3.1656  0.3003
19875SOL    HW266484  12.070   3.759   1.761 -1.2096 -2.3465 -0.8157
19876SOL     OW66485   6.184   2.074   6.538 -0.0601  0.3671  0.0072
19876SOL    HW166486   6.110   2.126   6.506 -0.0381  0.3033 -0.1489
19876SOL    HW266487   6.258   2.134   6.537  0.1322  0.1326 -0.8982
19877SOL     OW66488   1.064   9.308  10.589  1.1366  0.2102 -0.4552
19877SOL    HW166489   1.044   9.234  10.532 -0.5409 -0.3099  0.7185
19877SOL    HW266490   1.134   9.355  10.545 -0.5045  0.2121 -3.2943
19878SOL     OW66491  11.790  10.306   7.701  0.6862 -0.6699 -0.6500
19878SOL    HW166492  11.880  10.324   7.728 -0.0706  0.4553  1.2608
19878SOL    HW266493  11.764  10.229   7.752 -0.3071  0.6670  0.9545
19879SOL     OW66494   5.695   3.063   3.719 -0.7101 -0.4524  0.1295
19879SOL    HW166495   5.683   3.001   3.648 -2.0110 -1.7425  1.4032
19879SOL    HW266496   5.790   3.068   3.731 -0.4619 -0.0198 -1.8083
19880SOL     OW66497   3.501   5.592   7.232  0.5138 -0.2954 -0.2027
19880SOL    HW166498   3.561   5.667   7.235 -0.2075  0.3075 -0.5556
19880SOL    HW266499   3.440   5.613   7.162 -0.2404 -0.8100  0.2851
19881SOL     OW66500   1.451   3.674   9.429 -0.1173 -0.4240 -0.1992
19881SOL    HW166501   1.544   3.678   9.406 -0.3525 -1.0691 -1.3076
19881SOL    HW266502   1.431   3.763   9.459  1.0228 -0.4620  0.7846
19882SOL     OW66503   5.362   6.533   5.251  0.5514 -0.4337 -0.1216
19882SOL    HW166504   5.380   6.627   5.250  0.8835 -0.4960 -0.3116
19882SOL    HW266505   5.294   6.522   5.318 -0.1398  0.0477 -0.7335
19883SOL     OW66506   6.259   7.407   4.578 -0.5269  0.2680  0.2913
19883SOL    HW166507   6.243   7.390   4.485 -0.7750  0.3765  0.3127
19883SOL    HW266508   6.334   7.353   4.600  0.3285  1.1823 -0.2797
19884SOL     OW66509   4.008   9.524   1.033  0.1729 -0.6233 -0.0106
19884SOL    HW166510   4.005   9.496   1.124  0.1821  0.0460  0.1995
19884SOL    HW266511   3.954   9.603   1.030  0.5648 -0.3644 -0.4808
19885SOL     OW66512   0.200   7.841  10.918  0.0660  0.4231  0.1518
19885SOL    HW166513   0.243   7.818  11.001 -0.1887  0.2069  0.2242
19885SOL    HW266514   0.256   7.910  10.881  0.0119  0.7363  0.6445
19886SOL     OW66515   9.060   6.607   7.298 -0.4638 -0.3663 -1.0563
19886SOL    HW166516   9.010   6.615   7.217 -1.2103 -1.3436 -0.7248
19886SOL    HW266517   9.012   6.541   7.349  0.6774 -0.6802 -0.3427
19887SOL     OW66518  12.350   7.998   8.510 -0.4046 -1.0007 -0.1860
19887SOL    HW166519  12.368   8.014   8.602  1.7165  0.8618 -0.8313
19887SOL    HW266520  12.409   7.926   8.486 -0.1729 -0.7654 -0.3249
19888SOL     OW66521   8.850   6.113   5.631 -0.0470  0.3273 -0.2004
19888SOL    HW166522   8.851   6.162   5.714 -1.6560 -1.8035  1.1843
19888SOL    HW266523   8.807   6.030   5.653 -2.2139  0.3729 -3.5597
19889SOL     OW66524  11.646   5.613   8.363  0.0319  0.3283  0.3059
19889SOL    HW166525  11.579   5.660   8.312 -1.8297 -1.3742  1.0452
19889SOL    HW266526  11.701   5.572   8.296 -0.2679  0.9300 -0.3345
19890SOL     OW66527   8.105   5.987   2.759  0.1396 -0.0972  0.0265
19890SOL    HW166528   8.081   5.982   2.851  1.4279 -0.8488  0.3598
19890SOL    HW266529   8.193   5.949   2.756 -0.3802 -1.2840 -1.6981
19891SOL     OW66530  10.874   7.447   8.788  0.4363 -0.3117  0.6930
19891SOL    HW166531  10.881   7.368   8.736 -1.0981  0.9533 -1.6236
19891SOL    HW266532  10.952   7.499   8.765 -0.6484  0.6070 -1.1307
19892SOL     OW66533  11.030   1.470   0.040  0.5051  0.1066 -0.1879
19892SOL    HW166534  11.040   1.380   0.009  1.8756  0.3864 -0.6047
19892SOL    HW266535  11.078   1.472   0.123 -0.4203  0.2033  0.3708
19893SOL     OW66536   4.464  11.991   1.729  0.2133  0.1821  0.1150
19893SOL    HW166537   4.505  11.915   1.688  0.0729  0.1182  0.0916
19893SOL    HW266538   4.537  12.050   1.747  0.1750  0.6700 -1.1871
19894SOL     OW66539   6.774   0.923   9.352  0.1095  0.1282  0.4100
19894SOL    HW166540   6.737   0.871   9.281  1.4397 -0.8159  0.3545
19894SOL    HW266541   6.796   0.858   9.420 -1.8541  1.0771  2.0615
19895SOL     OW66542  10.400   1.784  11.445 -0.0461  0.0164 -0.5723
19895SOL    HW166543  10.325   1.731  11.419  0.1701 -0.2601 -0.6293
19895SOL    HW266544  10.434   1.741  11.523 -0.3649  0.5374 -0.1377
19896SOL     OW66545   3.370   7.115   0.082  0.0726  0.0158  0.0375
19896SOL    HW166546   3.386   7.022   0.101  1.0061  0.2018  0.1788
19896SOL    HW266547   3.288   7.114   0.031  1.4680 -1.1541 -2.3778
19897SOL     OW66548   2.472   7.039   7.244 -0.8499  0.0403 -0.5628
19897SOL    HW166549   2.529   6.983   7.297 -0.2781  0.7591 -0.3987
19897SOL    HW266550   2.391   6.990   7.236  0.7438 -2.4423 -3.3779
19898SOL     OW66551  11.286   3.855   8.772  0.5287  0.0637  0.2598
19898SOL    HW166552  11.194   3.854   8.744  1.1251  0.0149 -1.9074
19898SOL    HW266553  11.320   3.770   8.744  1.1570 -0.0891  1.4258
19899SOL     OW66554   9.113   3.067   8.300  0.0807 -0.3860  0.2334
19899SOL    HW166555   9.068   3.054   8.216  3.0731 -0.4249 -1.5139
19899SOL    HW266556   9.120   2.979   8.338 -1.3394 -0.3597  0.5971
19900SOL     OW66557  11.586   3.591   4.699 -0.1935 -0.4056  0.0918
19900SOL    HW166558  11.500   3.626   4.674 -0.7143 -0.3254  1.8383
19900SOL    HW266559  11.590   3.505   4.658 -0.2480  0.3765 -1.6289
19901SOL     OW66560   7.135   4.073   2.556 -0.4738 -0.4135  0.4554
19901SOL    HW166561   7.089   4.125   2.490 -0.5868 -1.6544 -0.4670
19901SOL    HW266562   7.224   4.107   2.556 -0.9704  0.9741  1.1562
19902SOL     OW66563  10.032   6.678   1.896 -0.0493 -0.1159 -0.6423
19902SOL    HW166564  10.001   6.652   1.809 -0.6827  2.6650 -1.3390
19902SOL    HW266565  10.127   6.674   1.889 -0.0917  0.0920 -1.4912
19903SOL     OW66566   1.759  11.363   5.676  0.1201  0.9340  0.4142
19903SOL    HW166567   1.800  11.401   5.754  0.1127  0.5468  0.6058
19903SOL    HW266568   1.729  11.277   5.704 -0.2365  0.9534  0.0916
19904SOL     OW66569   5.331  12.461   4.009 -0.0462  0.2266 -0.1851
19904SOL    HW166570   5.331  12.390   4.073  2.1285 -0.4497 -0.8671
19904SOL    HW266571   5.320  12.540   4.062  0.6438 -0.3888  0.9251
19905SOL     OW66572   7.144   7.196  10.036  0.1647  0.2719 -0.0643
19905SOL    HW166573   7.128   7.284  10.070  1.0416  0.3139  0.2522
19905SOL    HW266574   7.161   7.143  10.114 -0.6625 -0.2535 -0.2280
19906SOL     OW66575   2.827  11.671   6.992 -0.3055  0.9133 -0.6463
19906SOL    HW166576   2.757  11.613   7.023  1.2107  0.0094  1.2869
19906SOL    HW266577   2.840  11.734   7.062  2.2110 -0.2619  0.0535
19907SOL     OW66578   7.676  10.064   5.594  0.1131 -0.2761  0.2391
19907SOL    HW166579   7.682  10.144   5.540 -0.1782 -1.9029 -2.3968
19907SOL    HW266580   7.654  10.095   5.681  3.0400  2.7689  0.1159
19908SOL     OW66581   2.672   2.120   7.323  0.0325 -0.0628  0.0014
19908SOL    HW166582   2.695   2.187   7.388 -1.8627  0.3743  0.3010
19908SOL    HW266583   2.725   2.142   7.246  0.1577  1.2118  0.4200
19909SOL     OW66584   9.616   2.924   3.818  0.2937  0.3241 -0.6119
19909SOL    HW166585   9.646   3.015   3.815  0.2100  0.3366 -2.1264
19909SOL    HW266586   9.690   2.873   3.784 -0.5765  0.1474 -2.4038
19910SOL     OW66587  10.405   6.401  11.850 -0.4877 -0.3026  0.2594
19910SOL    HW166588  10.444   6.433  11.768  0.4682 -0.4289  0.6589
19910SOL    HW266589  10.354   6.324  11.824  0.5708 -0.9010 -0.0899
19911SOL     OW66590   3.664   9.494   0.097  0.5990  0.7294  0.1675
19911SOL    HW166591   3.756   9.514   0.081  1.1941 -1.4735  0.5159
19911SOL    HW266592   3.627   9.478   0.011  1.3209 -1.2491  0.1676
19912SOL     OW66593   6.316  10.142   8.405 -0.5521  0.1422 -0.1778
19912SOL    HW166594   6.299  10.052   8.376  0.4872  0.5943 -2.4398
19912SOL    HW266595   6.229  10.177   8.425 -0.9506 -1.4107  0.9664
19913SOL     OW66596   5.228   3.906  10.116  0.2794  0.3712 -0.6588
19913SOL    HW166597   5.279   3.853  10.177  1.3329  2.4062  0.3456
19913SOL    HW266598   5.213   3.849  10.040  1.5029 -1.2514  0.2641
19914SOL     OW66599   6.410   7.980   9.224  0.6935 -0.0557  0.3744
19914SOL    HW166600   6.438   7.890   9.207  0.8221 -0.1554  1.0985
19914SOL    HW266601   6.484   8.020   9.270  1.7984  1.2434 -2.2457
19915SOL     OW66602  12.326   2.346   5.868 -0.0185 -0.1743  0.2127
19915SOL    HW166603  12.260   2.401   5.910  1.6038  0.6191  1.8392
19915SOL    HW266604  12.394   2.408   5.841 -0.1588 -0.8981 -2.0124
19916SOL     OW66605   5.090  10.340   6.839  0.2083  0.3134 -0.4697
19916SOL    HW166606   5.019  10.299   6.887  0.2158  1.1037  0.2334
19916SOL    HW266607   5.144  10.381   6.906  0.7670  0.5867 -1.0762
19917SOL     OW66608   5.251   8.383   2.846  0.0416 -0.0557  0.1674
19917SOL    HW166609   5.192   8.457   2.832  1.2750  1.3373  1.9159
19917SOL    HW266610   5.337   8.416   2.821  0.2738 -1.7627 -1.4713
19918SOL     OW66611   9.021   7.936   8.458 -0.4741 -0.4466 -0.0533
19918SOL    HW166612   9.084   7.868   8.482 -0.2120 -0.3928 -0.5620
19918SOL    HW266613   8.959   7.939   8.531  0.2476 -0.3401  0.5657
19919SOL     OW66614   5.376  11.313  12.049 -0.6022 -0.4134  0.2859
19919SOL    HW166615   5.460  11.297  12.006 -1.0857 -0.7363 -0.5529
19919SOL    HW266616   5.349  11.400  12.018 -1.2277 -0.8914 -0.5387
19920SOL     OW66617   2.477   8.473   7.671 -0.2042 -0.0689 -0.4179
19920SOL    HW166618   2.425   8.527   7.730  1.3586  0.7696  0.2482
19920SOL    HW266619   2.565   8.474   7.708  0.7542  0.1807 -2.5542
19921SOL     OW66620  11.946   1.942   4.396  0.0190 -0.3021 -0.2417
19921SOL    HW166621  11.914   1.861   4.434  3.2617 -0.9274  1.5340
19921SOL    HW266622  11.936   2.007   4.466  0.5212 -0.0026 -0.4430
19922SOL     OW66623   0.750   4.872  11.431  0.5302  0.7722  0.4041
19922SOL    HW166624   0.772   4.965  11.430 -0.4254  1.0070 -0.5229
19922SOL    HW266625   0.708   4.857  11.346  0.3393 -0.4241  0.7002
19923SOL     OW66626   0.494   9.326   2.738 -0.1673 -0.1776  1.0487
19923SOL    HW166627   0.474   9.240   2.702  0.6733 -0.4294  1.1535
19923SOL    HW266628   0.430   9.384   2.698  0.2020 -0.5960 -0.2083
19924SOL     OW66629   2.822  10.107   7.011  0.8261 -0.1565  0.1722
19924SOL    HW166630   2.808  10.013   7.010  1.3101 -0.2344 -1.2570
19924SOL    HW266631   2.897  10.122   6.953  1.2405  1.0408  0.9662
19925SOL     OW66632   0.720  12.542   9.716  0.3232  0.5341  0.0763
19925SOL    HW166633   0.710  12.625   9.669 -0.5834  0.7280  0.5975
19925SOL    HW266634   0.720  12.476   9.646  1.5948  0.9928 -0.3826
19926SOL     OW66635   7.563   3.160  10.410  0.3718 -0.4274 -0.3118
19926SOL    HW166636   7.636   3.184  10.353  0.6573  1.1104  0.6481
19926SOL    HW266637   7.517   3.242  10.427  0.4861 -0.7549  1.9079
19927SOL     OW66638  11.904   1.645   2.583  0.1382 -0.2973  0.1725
19927SOL    HW166639  11.838   1.590   2.541  1.2662  0.2761 -2.5349
19927SOL    HW266640  11.863   1.731   2.590  0.2705 -0.1535 -0.7110
19928SOL     OW66641  10.109  10.378  12.137  0.0421 -0.2766 -0.2088
19928SOL    HW166642  10.180  10.377  12.201 -0.0891 -0.3299 -0.0634
19928SOL    HW266643  10.153  10.379  12.052  0.2390  1.2848 -0.1198
19929SOL     OW66644   7.173  10.827   6.119  0.4070 -0.2877  0.5288
19929SOL    HW166645   7.207  10.862   6.201 -0.8718 -1.3595  1.5623
19929SOL    HW266646   7.110  10.760   6.145  0.7059 -1.3833 -1.3418
19930SOL     OW66647   7.948   4.040   4.214 -0.2222  0.6050 -0.1393
19930SOL    HW166648   7.944   4.113   4.276  0.2305 -0.4019  1.1174
19930SOL    HW266649   7.860   4.038   4.174 -0.9712  0.4603  1.4389
19931SOL     OW66650  11.797   3.139   3.490  0.1185 -0.6429 -0.1615
19931SOL    HW166651  11.876   3.173   3.531  1.0844 -1.2399 -1.4613
19931SOL    HW266652  11.772   3.064   3.544  1.2631 -1.3040 -0.5217
19932SOL     OW66653   2.093  11.906  11.193  0.1196  0.3472  0.7989
19932SOL    HW166654   2.042  11.827  11.213 -0.3243  0.5483  0.4905
19932SOL    HW266655   2.102  11.904  11.097  0.0953  0.6782  0.7908
19933SOL     OW66656   3.973   3.735   6.084 -0.0221  0.3681  0.8331
19933SOL    HW166657   3.928   3.668   6.034  0.5586 -0.1453  0.9821
19933SOL    HW266658   4.045   3.689   6.127 -1.8192  0.2370  4.0906
19934SOL     OW66659  11.671  10.850  10.286  0.4832  0.5176 -0.1073
19934SOL    HW166660  11.674  10.904  10.206  0.4037  0.8038  0.0802
19934SOL    HW266661  11.716  10.903  10.351 -1.3800  1.2718  0.6242
19935SOL     OW66662   7.950   1.532  10.081 -0.6699  0.5919  0.1863
19935SOL    HW166663   7.924   1.585  10.006 -2.3073 -1.3956 -0.7397
19935SOL    HW266664   8.043   1.513  10.066 -1.5820 -2.1458 -3.0042
19936SOL     OW66665   5.421   7.318   8.588  0.0859  0.0923  0.3885
19936SOL    HW166666   5.387   7.387   8.531 -0.7744 -0.9285 -0.4085
19936SOL    HW266667   5.429   7.358   8.674  2.2295  1.9321 -0.5846
19937SOL     OW66668   3.786   6.320   4.193 -0.0499 -0.4190  0.2711
19937SOL    HW166669   3.744   6.238   4.167 -2.8055  0.9754 -0.0585
19937SOL    HW266670   3.833   6.349   4.114 -1.6384 -0.2093 -0.6371
19938SOL     OW66671  10.729   5.058   2.847 -1.0626 -0.1359 -0.2469
19938SOL    HW166672  10.635   5.054   2.863 -1.8368 -0.7340 -4.0558
19938SOL    HW266673  10.743   5.141   2.802  0.1724 -0.2849 -0.1865
19939SOL     OW66674  10.780   3.535   6.769 -0.2910  0.0243  0.5134
19939SOL    HW166675  10.709   3.471   6.774 -0.5097  0.3352  2.1332
19939SOL    HW266676  10.756   3.593   6.697 -1.0857 -0.5661  0.2970
19940SOL     OW66677   0.971  11.217   1.973  0.2255 -0.1212 -0.0172
19940SOL    HW166678   0.918  11.292   2.000  0.3527  0.8079 -2.1871
19940SOL    HW266679   0.933  11.190   1.890  1.1631 -1.5032 -0.0250
19941SOL     OW66680  11.819   5.464  12.390  0.0525 -0.1529  0.0402
19941SOL    HW166681  11.885   5.514  12.437  1.4525 -1.7348 -0.1365
19941SOL    HW266682  11.738   5.479  12.438  0.4869  1.8939  0.2222
19942SOL     OW66683  10.105   6.982   3.923 -0.1816 -0.0659 -0.0188
19942SOL    HW166684  10.085   7.043   3.852  0.2156  0.2287  0.1193
19942SOL    HW266685  10.180   7.021   3.968  0.8007 -1.2262 -0.6135
19943SOL     OW66686   0.056   3.406   6.371  0.0787 -0.2390 -0.1208
19943SOL    HW166687   0.144   3.370   6.358  0.3009 -0.3681  1.5042
19943SOL    HW266688   0.070   3.488   6.418 -0.5521  1.1006 -2.1139
19944SOL     OW66689   4.197   8.497   2.011  0.2812  0.5357  0.4104
19944SOL    HW166690   4.216   8.554   2.086  0.8272  1.9952 -0.7872
19944SOL    HW266691   4.283   8.461   1.987  0.2442  0.7576 -0.0517
19945SOL     OW66692   5.883   1.711   6.862 -0.0181 -0.0518 -0.0790
19945SOL    HW166693   5.847   1.709   6.951 -0.6618 -2.3375 -0.3220
19945SOL    HW266694   5.808   1.731   6.806  0.4170  1.5358 -0.1359
19946SOL     OW66695   5.111   6.276   0.950  0.1417 -0.0478 -0.3490
19946SOL    HW166696   5.162   6.356   0.966 -0.7307  0.3911  0.3092
19946SOL    HW266697   5.177   6.207   0.948  0.7400  0.4137  1.1685
19947SOL     OW66698  11.932   1.204  11.937  0.5202 -0.9038 -0.0378
19947SOL    HW166699  11.845   1.214  11.975  0.2841 -0.3803 -0.6831
19947SOL    HW266700  11.921   1.140  11.867  0.4555 -0.2182 -0.6744
19948SOL     OW66701   6.337  10.531   7.443  0.2081 -0.1009  0.2375
19948SOL    HW166702   6.393  10.453   7.437 -0.2387 -0.6557  2.4718
19948SOL    HW266703   6.257  10.500   7.485 -1.0856  1.0745 -1.2336
19949SOL     OW66704   5.801   2.559   3.788  0.6467 -0.0146 -0.0192
19949SOL    HW166705   5.819   2.553   3.695 -2.8913 -1.9329 -0.7494
19949SOL    HW266706   5.756   2.642   3.799  0.9057  0.1288 -0.0297
19950SOL     OW66707   8.293   3.686   0.306  0.2998 -0.1854  0.4014
19950SOL    HW166708   8.199   3.689   0.323  0.2955  0.2645  0.3177
19950SOL    HW266709   8.333   3.688   0.393  0.2425  0.3409  0.4196
19951SOL     OW66710   0.610   2.413  10.353 -0.4061  0.1365  0.2537
19951SOL    HW166711   0.543   2.469  10.314 -1.2357 -0.2838  1.0329
19951SOL    HW266712   0.693   2.452  10.325 -0.9655  0.4123 -1.0756
19952SOL     OW66713   4.015   5.096   5.331  0.0012  0.0720 -0.0653
19952SOL    HW166714   4.069   5.148   5.272 -1.1487  1.0690 -0.2806
19952SOL    HW266715   4.068   5.019   5.351  0.8747  0.2787 -1.4659
19953SOL     OW66716   8.334   5.687  12.325  0.2276  0.5656  0.1206
19953SOL    HW166717   8.305   5.651  12.241 -2.0129  1.3739  0.4838
19953SOL    HW266718   8.270   5.657  12.388  0.7426  1.6285  1.1890
19954SOL     OW66719   5.636   6.132   5.836  0.4511 -0.0580 -0.5150
19954SOL    HW166720   5.547   6.158   5.858  0.6054  0.0024  0.0493
19954SOL    HW266721   5.689   6.162   5.910  0.8730 -0.4923 -0.6328
19955SOL     OW66722   3.803   2.425   8.121 -0.4232  0.0716 -0.2379
19955SOL    HW166723   3.758   2.377   8.191 -0.2619  1.4539  0.8658
19955SOL    HW266724   3.737   2.435   8.052 -0.9428 -0.3345  0.1899
19956SOL     OW66725   5.141   6.176   3.243  0.3459 -0.2392  0.1147
19956SOL    HW166726   5.220   6.210   3.201 -0.2829 -0.0402 -0.9345
19956SOL    HW266727   5.089   6.254   3.263 -0.5725 -0.4823 -1.2241
19957SOL     OW66728  12.300   4.775   4.042 -0.7281 -0.0808  0.0464
19957SOL    HW166729  12.213   4.810   4.027  0.5084  2.8636 -1.2066
19957SOL    HW266730  12.321   4.801   4.132 -0.5302  0.8093 -0.2440
19958SOL     OW66731   9.894   3.887   9.704  0.3328  0.9563 -0.3728
19958SOL    HW166732   9.821   3.934   9.664 -0.2589  1.1136  0.8750
19958SOL    HW266733   9.932   3.950   9.766  0.0725  0.0944  0.6869
19959SOL     OW66734  12.386   5.632   7.236 -0.3602 -0.8218 -0.0385
19959SOL    HW166735  12.481   5.637   7.228 -0.3969  2.9263  0.0523
19959SOL    HW266736  12.354   5.687   7.164 -2.3755 -0.6299  0.9600
19960SOL     OW66737   4.032   0.124  11.599 -0.1596 -0.1902 -0.5319
19960SOL    HW166738   4.076   0.055  11.550 -1.0728 -0.0950 -1.5434
19960SOL    HW266739   3.970   0.078  11.655 -2.8490 -0.2267 -3.2568
19961SOL     OW66740   2.206   9.037   4.327 -0.3508  0.3521  0.0022
19961SOL    HW166741   2.264   8.998   4.392 -0.8367  2.1411  1.6185
19961SOL    HW266742   2.174   8.963   4.275  2.6778 -0.7912 -0.4426
19962SOL     OW66743   9.359   7.902   4.970  0.2292 -0.3375 -0.1257
19962SOL    HW166744   9.298   7.829   4.961 -0.4538  0.0326  1.2728
19962SOL    HW266745   9.317   7.975   4.925 -0.4735 -0.0415  0.9649
19963SOL     OW66746   4.273   6.602   3.399 -0.1601  0.4281  0.0978
19963SOL    HW166747   4.262   6.603   3.304 -1.3957  0.7844  0.2245
19963SOL    HW266748   4.367   6.599   3.413  0.0037 -0.6831 -1.1412
19964SOL     OW66749  10.667   0.155   2.992  0.1251  0.3383 -0.0518
19964SOL    HW166750  10.648   0.085   3.055 -1.0638 -1.7167 -2.4999
19964SOL    HW266751  10.650   0.236   3.040 -2.3789 -1.1292  1.8074
19965SOL     OW66752   4.401   9.641  10.605 -0.7300 -0.2584  0.0727
19965SOL    HW166753   4.386   9.672  10.516  0.1405  3.0505  0.9459
19965SOL    HW266754   4.351   9.701  10.660  0.1793 -1.1216  1.9262
19966SOL     OW66755  11.648  10.674   8.277 -0.5913 -0.1934 -1.0694
19966SOL    HW166756  11.604  10.643   8.356  1.2821 -0.0063  0.0986
19966SOL    HW266757  11.709  10.605   8.255  0.0406  0.4622 -1.4030
19967SOL     OW66758  10.187   0.900   2.470  0.0059  1.2321  0.1891
19967SOL    HW166759  10.168   0.835   2.402  1.2921  1.7364 -0.6904
19967SOL    HW266760  10.123   0.882   2.539 -1.1236  0.4799 -0.9998
19968SOL     OW66761  12.281  12.548  12.015 -0.1367 -0.2135  0.1386
19968SOL    HW166762  12.372  12.520  12.010  0.1212  0.5008  0.6081
19968SOL    HW266763  12.286  12.640  12.041 -1.0261 -0.5693  1.6489
19969SOL     OW66764   7.119   4.595   5.492 -0.2828 -0.2370  0.7207
19969SOL    HW166765   7.100   4.689   5.501  2.5017  0.6845 -1.4880
19969SOL    HW266766   7.215   4.590   5.491 -0.2662 -2.5809 -2.9352
19970SOL     OW66767   1.035   2.062   0.269 -0.4371 -0.5778  0.0413
19970SOL    HW166768   0.967   2.127   0.254 -1.7666 -1.9617 -0.0999
19970SOL    HW266769   1.058   2.032   0.181  1.0360  0.5007  0.0140
19971SOL     OW66770   5.024   5.699   4.235 -0.5680  0.3054  0.3446
19971SOL    HW166771   4.960   5.746   4.288 -1.0254  0.4855 -0.3599
19971SOL    HW266772   5.043   5.620   4.286 -1.8679 -0.0923  0.2596
19972SOL     OW66773  11.831   6.914   4.577 -0.4454  0.0632  0.5401
19972SOL    HW166774  11.758   6.873   4.530 -0.1442 -0.4285  0.4872
19972SOL    HW266775  11.849   6.994   4.528 -0.8590  0.1217  0.4758
19973SOL     OW66776   2.216   2.647   3.751 -0.2408  0.0729 -0.1755
19973SOL    HW166777   2.272   2.719   3.782 -1.6381  1.0516  0.1712
19973SOL    HW266778   2.190   2.601   3.830 -1.4319  0.7782 -0.1415
19974SOL     OW66779  12.254   8.012   5.514 -0.3542 -0.0058  0.5581
19974SOL    HW166780  12.279   7.937   5.567  1.0571  0.4823  0.6242
19974SOL    HW266781  12.214   8.073   5.576  0.7327  0.3082  0.9565
19975SOL     OW66782   0.681   1.467   1.080  0.2338 -0.2470  0.0267
19975SOL    HW166783   0.633   1.548   1.068 -0.8980 -1.2298 -2.9141
19975SOL    HW266784   0.770   1.495   1.103 -0.4488  1.7347  0.4442
19976SOL     OW66785   5.938  11.133   8.612  0.1367 -0.1462  0.2400
19976SOL    HW166786   5.897  11.084   8.541  1.0056 -0.4432 -0.0659
19976SOL    HW266787   5.910  11.223   8.598 -3.5896 -0.7612  2.2606
19977SOL     OW66788   8.749   9.560   3.942 -0.4726 -0.7442  0.0412
19977SOL    HW166789   8.737   9.547   4.036 -1.4938  0.4097  0.0883
19977SOL    HW266790   8.844   9.562   3.930 -0.2962 -2.7587  0.7517
19978SOL     OW66791  10.824   5.836   6.863  0.0353 -0.3821  0.9794
19978SOL    HW166792  10.760   5.776   6.900  0.0514 -0.9130  0.1771
19978SOL    HW266793  10.868   5.875   6.939 -1.6370  0.4510  1.5731
19979SOL     OW66794   4.824   1.453   1.714  0.2581  0.4678  0.3666
19979SOL    HW166795   4.763   1.458   1.640 -0.1264  0.1761  0.6585
19979SOL    HW266796   4.840   1.544   1.739 -1.8900  0.5437  1.7698
19980SOL     OW66797   8.657   4.521   4.021 -0.1315  0.8475 -0.1050
19980SOL    HW166798   8.720   4.458   3.986 -0.3993  0.4267  0.1680
19980SOL    HW266799   8.673   4.601   3.971 -1.0769  0.0362 -1.7767
19981SOL     OW66800   1.896   3.880   4.924 -0.1483 -0.3765  0.3438
19981SOL    HW166801   1.962   3.930   4.972 -0.2351  1.1222 -1.0063
19981SOL    HW266802   1.931   3.791   4.922  0.8748 -0.0223  1.3310
19982SOL     OW66803   7.903  11.707   6.636 -0.1498  0.0702 -0.1954
19982SOL    HW166804   7.953  11.680   6.558 -0.3164  3.1997 -1.5210
19982SOL    HW266805   7.968  11.744   6.695 -0.1121 -1.7454  0.9685
19983SOL     OW66806   3.356   8.967   2.877 -0.3965 -0.2275  0.1678
19983SOL    HW166807   3.365   8.982   2.971  0.0865 -0.5772  0.1760
19983SOL    HW266808   3.328   8.876   2.870 -0.0485 -0.3161 -0.0483
19984SOL     OW66809   4.143   8.031   8.335 -0.4171  0.1291  0.2023
19984SOL    HW166810   4.117   8.010   8.425 -0.5998 -1.7246 -0.2403
19984SOL    HW266811   4.062   8.062   8.293 -0.6358 -0.2747  0.3247
19985SOL     OW66812   0.570   8.376  10.330 -0.1506  0.4598 -0.3859
19985SOL    HW166813   0.626   8.453  10.325  0.5334  0.1047  1.1120
19985SOL    HW266814   0.623   8.305  10.295 -0.3330  0.4368 -0.6228
19986SOL     OW66815   7.249   8.011   0.897 -0.4557  0.0336  0.4800
19986SOL    HW166816   7.243   8.047   0.986 -0.7670  1.4768 -0.0982
19986SOL    HW266817   7.338   8.034   0.869 -0.2617 -0.6680  0.5188
19987SOL     OW66818   3.063   8.883   4.613 -0.1399 -0.5291 -0.4386
19987SOL    HW166819   2.993   8.915   4.669 -0.4964  0.7996 -1.5869
19987SOL    HW266820   3.115   8.961   4.593  1.2598 -1.3627 -0.2010
19988SOL     OW66821   9.441   3.679   2.981 -0.0511 -0.2839 -0.4847
19988SOL    HW166822   9.367   3.619   2.975  0.4615 -0.9196 -0.5359
19988SOL    HW266823   9.481   3.677   2.895  1.2364 -1.5478  0.0947
19989SOL     OW66824   4.354   7.388   1.517  0.1056  0.0649 -0.2061
19989SOL    HW166825   4.300   7.339   1.578 -0.1895 -0.2791 -0.7378
19989SOL    HW266826   4.297   7.459   1.487  0.3154  0.3523  0.0598
19990SOL     OW66827   0.819   3.317   4.117  0.2765  0.6092  0.6494
19990SOL    HW166828   0.760   3.246   4.144  0.7011  0.2080  0.5261
19990SOL    HW266829   0.766   3.396   4.128 -0.0695  0.3165  1.1683
19991SOL     OW66830   7.724   5.290  11.823  0.3474  0.6401  0.6804
19991SOL    HW166831   7.652   5.350  11.802  0.3436  0.0513 -1.2147
19991SOL    HW266832   7.683   5.204  11.824  1.2640  0.0565 -2.3931
19992SOL     OW66833   9.061   9.129   1.444 -0.1184 -0.4597  0.2321
19992SOL    HW166834   9.034   9.042   1.417 -0.6884 -0.5407  1.0069
19992SOL    HW266835   9.003   9.150   1.518 -0.6525  0.9645 -0.5557
19993SOL     OW66836   6.314   9.424   5.792  0.2402 -0.2258  0.4450
19993SOL    HW166837   6.257   9.430   5.715 -0.4003  3.9353  0.9924
19993SOL    HW266838   6.380   9.359   5.768 -0.1093  0.6330 -3.5460
19994SOL     OW66839   8.841   3.332   5.802 -0.0480  0.6647 -0.0527
19994SOL    HW166840   8.788   3.322   5.723 -2.1932  0.4502  1.3272
19994SOL    HW266841   8.876   3.244   5.818 -1.7894  0.0360  0.6199
19995SOL     OW66842   1.421  11.708  10.439 -0.3165  0.2619  0.2684
19995SOL    HW166843   1.445  11.680  10.351 -3.0165  1.6836 -1.0366
19995SOL    HW266844   1.351  11.648  10.465 -1.6817  1.7239  0.1042
19996SOL     OW66845   9.212  11.397   5.942 -0.1747 -0.8911  0.2385
19996SOL    HW166846   9.199  11.305   5.964  0.1924 -0.9480  0.2143
19996SOL    HW266847   9.288  11.424   5.994  1.7708 -1.4570 -2.1689
19997SOL     OW66848   8.523  10.800   7.329 -0.1749  0.2356 -0.0604
19997SOL    HW166849   8.537  10.865   7.398 -0.1550  0.4796 -0.2907
19997SOL    HW266850   8.581  10.727   7.352  0.5336  0.7036 -0.3124
19998SOL     OW66851  10.735   3.906   1.622  0.4632 -0.1689  0.3308
19998SOL    HW166852  10.702   3.969   1.687  0.5134  1.2165 -0.9386
19998SOL    HW266853  10.697   3.823   1.649 -0.3076  0.5511  1.5797
19999SOL     OW66854   4.407   2.081   3.132 -0.2282  0.8006  0.0541
19999SOL    HW166855   4.464   2.129   3.071 -0.6213  0.0925 -0.8927
19999SOL    HW266856   4.443   1.993   3.133 -0.1292  0.8473  0.9924
20000SOL     OW66857   4.379   6.714   2.112  0.0383  0.2283 -0.3738
20000SOL    HW166858   4.343   6.629   2.136 -0.3194  0.6414  0.5836
20000SOL    HW266859   4.322   6.744   2.041  0.4008 -0.4897 -0.9821
20001SOL     OW66860   0.403   5.669  11.013  0.0318 -0.1491  0.0662
20001SOL    HW166861   0.331   5.732  11.004 -1.8323 -1.9599  1.2647
20001SOL    HW266862   0.367   5.587  10.980  2.3599 -0.6792 -1.3812
20002SOL     OW66863   4.425   9.244   7.549 -0.1994 -0.6061  0.4258
20002SOL    HW166864   4.508   9.197   7.543 -1.3712 -2.9998  1.3154
20002SOL    HW266865   4.418   9.292   7.467  2.5780  0.7016  0.8464
20003SOL     OW66866   6.655   5.362   0.711  0.4979  0.2672 -0.9382
20003SOL    HW166867   6.648   5.284   0.655  3.5215 -0.6594 -0.1950
20003SOL    HW266868   6.628   5.434   0.654 -1.1928 -1.1215 -2.0344
20004SOL     OW66869   3.093   0.041  11.898 -0.1033 -0.0709 -0.1035
20004SOL    HW166870   3.015  -0.004  11.865  1.8911 -3.2023 -0.9450
20004SOL    HW266871   3.134   0.078  11.820 -0.7010  1.5841  0.3399
20005SOL     OW66872   0.451   9.769  12.202  0.2837 -0.1998  0.2589
20005SOL    HW166873   0.487   9.771  12.113 -0.3258  0.4746  0.0149
20005SOL    HW266874   0.489   9.690  12.241  1.5061  0.1320 -0.1929
20006SOL     OW66875   5.621  11.670  10.359  0.1638 -0.0214  0.1819
20006SOL    HW166876   5.601  11.659  10.266  0.2509 -2.3259  0.3752
20006SOL    HW266877   5.711  11.705  10.360 -0.3395  1.3823 -0.5714
20007SOL     OW66878  11.078   2.909   4.385  0.3235  0.7298  0.2825
20007SOL    HW166879  11.038   2.913   4.472 -2.5610 -0.0029 -0.8751
20007SOL    HW266880  11.014   2.861   4.331  1.0632  2.7623 -2.6988
20008SOL     OW66881  10.739   8.065   4.331  0.6374 -0.6385 -0.1087
20008SOL    HW166882  10.692   8.071   4.248  0.9960 -1.9757 -0.4321
20008SOL    HW266883  10.829   8.044   4.307  1.1049  0.4543  0.5747
20009SOL     OW66884   6.087   5.593   0.974  0.3760 -0.3104 -0.2238
20009SOL    HW166885   6.180   5.598   0.953  0.3767 -1.2862 -0.4833
20009SOL    HW266886   6.061   5.684   0.988  1.1516  0.0659 -1.0989
20010SOL     OW66887   4.813   6.871  12.155 -0.0401 -0.1080  0.6317
20010SOL    HW166888   4.747   6.937  12.133 -0.9528 -0.8590  1.0359
20010SOL    HW266889   4.793   6.798  12.096  0.8504 -0.0948  0.3083
20011SOL     OW66890  11.901  11.267   1.696  0.0022 -0.2300 -0.1930
20011SOL    HW166891  11.983  11.264   1.647  0.6728 -1.0670  0.9282
20011SOL    HW266892  11.855  11.343   1.662  1.1539  0.1343 -0.9831
20012SOL     OW66893   2.146   6.245   8.241  0.0167 -0.0512 -0.2216
20012SOL    HW166894   2.054   6.232   8.217  0.4474 -0.6170 -1.7137
20012SOL    HW266895   2.156   6.196   8.323 -0.3823 -2.4460 -1.5017
20013SOL     OW66896   6.667   6.357   8.217 -0.4604  0.4113 -0.1051
20013SOL    HW166897   6.606   6.426   8.243 -0.9840  0.0258 -0.2834
20013SOL    HW266898   6.674   6.367   8.122  0.1396  0.7603 -0.0285
20014SOL     OW66899   9.158   3.821   0.721 -0.5935  0.6556 -0.1466
20014SOL    HW166900   9.242   3.852   0.755  0.0096  1.3003 -2.1172
20014SOL    HW266901   9.093   3.867   0.773  0.2118 -0.3732  1.8891
20015SOL     OW66902  10.004   3.105   3.717 -0.2618 -0.9760  0.0943
20015SOL    HW166903   9.929   3.096   3.659 -0.9853  0.0720  0.8171
20015SOL    HW266904   9.977   3.172   3.780  0.6366 -1.7960  1.3981
20016SOL     OW66905   5.675  10.205   2.904  0.2365 -0.2114  0.0678
20016SOL    HW166906   5.661  10.299   2.919  0.6020 -0.3365  1.2678
20016SOL    HW266907   5.586  10.168   2.902  0.1030  0.1145 -0.0865
20017SOL     OW66908   4.489   1.015   2.738 -0.0212 -0.1051 -0.1103
20017SOL    HW166909   4.488   1.111   2.739  3.4997  0.0598  0.6011
20017SOL    HW266910   4.422   0.990   2.801 -0.3486  1.9372  0.4317
20018SOL     OW66911   5.937   2.224   6.687  0.3103 -0.6300 -0.7371
20018SOL    HW166912   5.899   2.278   6.618 -1.4975  0.0711  0.7106
20018SOL    HW266913   5.902   2.137   6.671 -2.3982  0.0582  0.7417
20019SOL     OW66914   1.927   0.956   0.726 -0.1787  0.3336 -0.3174
20019SOL    HW166915   2.018   0.929   0.731 -0.3985 -0.5549 -0.8367
20019SOL    HW266916   1.899   0.962   0.818  0.3269  0.3661 -0.1617
20020SOL     OW66917   1.954   8.736   4.454  0.6778 -0.0053 -0.5209
20020SOL    HW166918   1.893   8.808   4.438 -0.0391 -0.7757 -1.3842
20020SOL    HW266919   1.898   8.661   4.475  1.2712 -0.8257 -1.7162
20021SOL     OW66920   1.089   9.031  11.605  0.3147 -0.7359 -0.0237
20021SOL    HW166921   1.177   9.069  11.608  0.6333 -1.3206 -1.4584
20021SOL    HW266922   1.076   9.005  11.514 -1.0542 -1.3584  0.3164
20022SOL     OW66923  11.014   9.303   7.120  0.1030 -0.0172  0.5006
20022SOL    HW166924  11.011   9.278   7.027 -1.6137  0.1629  0.4770
20022SOL    HW266925  11.069   9.381   7.122  1.3596 -0.8661 -0.1537
20023SOL     OW66926   4.091   3.118   3.056 -0.6221  0.3691 -0.1025
20023SOL    HW166927   4.013   3.081   3.013 -1.9156  1.8967  0.8125
20023SOL    HW266928   4.061   3.202   3.092  0.5629 -0.4710  3.1790
20024SOL     OW66929   6.348   7.068   5.317 -0.1413  0.1412  0.0058
20024SOL    HW166930   6.355   7.156   5.354 -0.9489 -0.7269  2.4431
20024SOL    HW266931   6.410   7.016   5.367 -1.6969 -1.2205  0.6274
20025SOL     OW66932   3.066  10.300   2.280 -0.2224 -0.3357 -0.3386
20025SOL    HW166933   3.160  10.314   2.285 -0.0365 -1.5793 -0.0566
20025SOL    HW266934   3.055  10.223   2.224 -0.9877 -1.0021  0.6885
20026SOL     OW66935   6.233   0.515  10.894 -0.3060  0.3546 -0.0342
20026SOL    HW166936   6.267   0.426  10.901 -0.6747  0.1723 -0.4478
20026SOL    HW266937   6.309   0.568  10.868  0.2317  0.4207  1.5950
20027SOL     OW66938   8.136   9.164   9.398 -0.2210 -0.0274  0.1415
20027SOL    HW166939   8.184   9.084   9.376 -0.8694 -0.5691  0.6568
20027SOL    HW266940   8.203   9.226   9.426  0.3877 -0.0705 -1.1636
20028SOL     OW66941   5.920   2.764   9.233 -0.3795 -0.0413  0.2733
20028SOL    HW166942   5.975   2.832   9.194  1.4373 -2.1375 -1.0700
20028SOL    HW266943   5.980   2.712   9.287 -1.8248 -0.3203  1.6967
20029SOL     OW66944   5.345  11.662   6.979 -0.4581 -0.1480 -0.1262
20029SOL    HW166945   5.255  11.681   7.003 -0.5127  0.3005 -0.6656
20029SOL    HW266946   5.353  11.691   6.888  0.7882  1.7784  0.5372
20030SOL     OW66947   4.231   8.848   0.578 -0.3213 -0.8148  0.2649
20030SOL    HW166948   4.236   8.754   0.559  1.1506 -0.9943  1.3602
20030SOL    HW266949   4.310   8.866   0.631 -0.4725  1.0723 -0.0913
20031SOL     OW66950  12.439   0.031   1.574  0.1680 -0.2537  0.7612
20031SOL    HW166951  12.454   0.067   1.661  1.7286  0.4059  0.2581
20031SOL    HW266952  12.457  -0.063   1.584  0.0641 -0.2301  1.2030
20032SOL     OW66953   4.963   8.558   2.083 -0.0529 -0.4061 -0.6328
20032SOL    HW166954   4.910   8.481   2.100 -1.9319  1.2408  1.5909
20032SOL    HW266955   5.005   8.578   2.166 -1.7267  2.3877 -0.3215
20033SOL     OW66956  12.515   9.394  11.903 -0.2481 -0.1264  0.2561
20033SOL    HW166957  12.497   9.472  11.955  0.4423 -1.2591  2.3125
20033SOL    HW266958  12.593   9.416  11.852  0.1189  0.4369  1.0435
20034SOL     OW66959   8.292   8.948   6.609 -0.2050  0.4069  0.3291
20034SOL    HW166960   8.259   9.016   6.667 -1.4625  0.1904 -0.1117
20034SOL    HW266961   8.384   8.936   6.636  0.1344  2.4498  0.2220
20035SOL     OW66962   5.489   7.274   8.209  0.2439  0.1058 -0.3209
20035SOL    HW166963   5.484   7.181   8.187 -3.1165 -0.2686  1.2853
20035SOL    HW266964   5.454   7.319   8.132  0.3033 -0.1047 -0.4703
20036SOL     OW66965   9.566   3.814   7.220 -0.0248 -0.1030 -0.0650
20036SOL    HW166966   9.511   3.812   7.142 -1.3806 -2.0218  0.8547
20036SOL    HW266967   9.527   3.882   7.275 -0.4272 -0.2694 -0.1419
20037SOL     OW66968   6.358   1.893   9.230  0.0674  0.4457 -0.8722
20037SOL    HW166969   6.372   1.940   9.312 -1.0530  0.7573 -0.8531
20037SOL    HW266970   6.335   1.804   9.256 -2.5921  1.1001 -0.7259
20038SOL     OW66971   1.216   1.901   8.846  0.6567 -0.2096 -0.2894
20038SOL    HW166972   1.150   1.965   8.871 -0.0146 -0.7320 -0.6762
20038SOL    HW266973   1.247   1.865   8.929 -0.4428 -0.8318 -0.1280
20039SOL     OW66974  10.010   2.218   8.830  0.4834 -0.0353 -0.4129
20039SOL    HW166975  10.091   2.185   8.790 -0.0064 -3.0219  0.7389
20039SOL    HW266976  10.033   2.228   8.923  0.5559  3.0704 -0.6682
20040SOL     OW66977   7.591   3.001   6.720  0.2356  0.4713  0.0885
20040SOL    HW166978   7.515   3.009   6.662 -0.8593  0.1615  1.4002
20040SOL    HW266979   7.634   2.920   6.692 -0.4163  0.1966 -0.1362
20041SOL     OW66980   8.176   0.412   4.953  0.0514 -0.5169  0.0449
20041SOL    HW166981   8.115   0.436   4.883  0.1498  0.9027  0.4352
20041SOL    HW266982   8.128   0.348   5.006 -0.3127 -1.0008 -0.8442
20042SOL     OW66983  10.738  12.008   2.953 -0.3099 -0.5011  0.0236
20042SOL    HW166984  10.706  11.919   2.958  0.7059 -0.8137  1.8605
20042SOL    HW266985  10.670  12.061   2.994 -1.2053 -0.2971 -1.6361
20043SOL     OW66986   1.592  10.819  10.916  0.0354 -0.5093 -0.4905
20043SOL    HW166987   1.571  10.790  10.828 -0.9190  1.2537 -0.8736
20043SOL    HW266988   1.650  10.894  10.904 -2.2087  1.4493  0.2233
20044SOL     OW66989   7.849   2.340   3.167  0.5931 -0.3240 -0.2326
20044SOL    HW166990   7.853   2.256   3.212  1.1293  0.6881  1.7300
20044SOL    HW266991   7.820   2.319   3.078  0.9591 -2.5837  0.1323
20045SOL     OW66992   2.876   8.851  11.233  0.0440  0.1974  0.7427
20045SOL    HW166993   2.790   8.893  11.243  1.0704  2.9976 -1.2773
20045SOL    HW266994   2.935   8.904  11.287  1.1058  0.5315 -0.6859
20046SOL     OW66995   9.386  12.035   3.941  0.4637 -0.6820 -0.2420
20046SOL    HW166996   9.352  12.073   4.023  0.0111 -0.2674 -0.6173
20046SOL    HW266997   9.475  12.007   3.963  0.4349 -0.3513  0.3290
20047SOL     OW66998   5.766  10.334   6.311  0.0314  0.2868 -0.0363
20047SOL    HW166999   5.804  10.344   6.398  0.4073  1.7535 -0.3393
20047SOL    HW267000   5.773  10.241   6.292 -0.8003 -0.1746  1.8168
20048SOL     OW67001   6.209   1.441  11.632  0.0255 -0.1365  0.5903
20048SOL    HW167002   6.299   1.462  11.658  0.4840 -0.3431 -0.7615
20048SOL    HW267003   6.154   1.489  11.695  1.0758  1.4369  0.3587
20049SOL     OW67004   2.802   2.860   9.239 -0.1248 -0.8646 -0.1834
20049SOL    HW167005   2.793   2.851   9.333  0.2231  1.7598  0.1958
20049SOL    HW267006   2.712   2.868   9.207 -0.1987 -0.3762  0.1345
20050SOL     OW67007   3.240  10.394   3.898  0.4791  0.1324 -0.2562
20050SOL    HW167008   3.165  10.360   3.947 -0.4480  0.2548 -1.5662
20050SOL    HW267009   3.315  10.378   3.956  0.1477 -4.0551 -0.6133
20051SOL     OW67010  12.330   7.510  10.487  0.0473  0.3786 -0.2496
20051SOL    HW167011  12.366   7.537  10.402 -1.4289  0.2482 -0.9395
20051SOL    HW267012  12.364   7.575  10.549  1.9487 -0.0807 -0.7389
20052SOL     OW67013   6.765   8.073  11.531 -0.1933  0.5315  0.1594
20052SOL    HW167014   6.792   8.164  11.544 -1.6850  0.8847  1.0151
20052SOL    HW267015   6.810   8.024  11.600  0.6772  0.5806 -0.3525
20053SOL     OW67016   8.370   7.653  10.771  0.4878  0.3516  0.3122
20053SOL    HW167017   8.316   7.576  10.788  2.0551 -0.6792  0.8291
20053SOL    HW267018   8.404   7.639  10.682  0.9925  0.2968  0.5091
20054SOL     OW67019  12.523   8.959   8.879 -0.1854  0.1636 -0.2224
20054SOL    HW167020  12.478   9.043   8.868 -1.6894 -0.5981 -0.1444
20054SOL    HW267021  12.533   8.925   8.791 -0.7073 -0.1390 -0.1665
20055SOL     OW67022   0.391  11.519   2.032  0.2389 -0.0410 -0.6897
20055SOL    HW167023   0.412  11.430   2.059 -1.2633 -0.0656  0.5608
20055SOL    HW267024   0.415  11.523   1.940 -0.6838 -2.0764 -1.0632
20056SOL     OW67025   7.814   1.257   7.561 -0.0367 -0.3214 -0.3322
20056SOL    HW167026   7.878   1.316   7.522 -1.4623  0.5306 -1.5113
20056SOL    HW267027   7.774   1.309   7.631  1.6164 -1.4064  1.5236
20057SOL     OW67028   7.421  10.074   3.083  0.2333 -0.2064  0.1824
20057SOL    HW167029   7.350  10.087   3.021 -1.5053 -1.8125  1.7135
20057SOL    HW267030   7.423  10.155   3.134  0.5424  0.4419 -0.8318
20058SOL     OW67031  11.763   4.702   3.113 -0.2015 -0.8849  0.5003
20058SOL    HW167032  11.784   4.619   3.156 -0.3156 -1.4129 -0.4296
20058SOL    HW267033  11.731   4.758   3.183 -1.2422 -2.0216  0.9781
20059SOL     OW67034   7.499   4.490   7.983 -0.0379 -0.0386 -0.5495
20059SOL    HW167035   7.464   4.408   7.948 -0.4075  0.6112 -1.7399
20059SOL    HW267036   7.586   4.466   8.017 -0.4475 -1.0648 -0.1776
20060SOL     OW67037   2.790   5.746   3.171 -0.3366 -0.4677  0.0067
20060SOL    HW167038   2.731   5.781   3.237  0.1881  0.5364 -0.0342
20060SOL    HW267039   2.766   5.792   3.090 -0.6353 -1.3095 -0.3901
20061SOL     OW67040   1.098   0.906   2.843  0.5045  0.6061 -0.1030
20061SOL    HW167041   1.026   0.843   2.836  0.9596  0.0137  0.4327
20061SOL    HW267042   1.157   0.884   2.771  1.6870 -0.9389  1.2736
20062SOL     OW67043  11.368   5.671   3.078 -0.1311  0.2105  0.2599
20062SOL    HW167044  11.379   5.702   3.167 -0.9158 -1.3158  0.9327
20062SOL    HW267045  11.400   5.581   3.079  1.9054  0.8176 -1.5662
20063SOL     OW67046   1.465   6.836   9.679  0.0634 -0.0203  0.5786
20063SOL    HW167047   1.379   6.811   9.646 -0.0855 -0.1467  1.0645
20063SOL    HW267048   1.524   6.822   9.604 -0.2205 -0.6130  0.4582
20064SOL     OW67049   3.102   3.328   3.067  0.0562  1.0481  0.1088
20064SOL    HW167050   3.101   3.407   3.012  1.2645 -0.1958 -1.7941
20064SOL    HW267051   3.195   3.312   3.083 -0.2051  0.2821  0.9017
20065SOL     OW67052   5.806   8.350   0.884  0.0915  0.0955 -0.2797
20065SOL    HW167053   5.827   8.266   0.843 -1.2742 -0.1181 -0.5872
20065SOL    HW267054   5.850   8.347   0.969 -0.0680 -1.0074 -0.2195
20066SOL     OW67055   4.004   7.191   1.538  0.9414 -0.0112  0.8126
20066SOL    HW167056   4.094   7.161   1.557  1.4188 -0.4811 -1.8013
20066SOL    HW267057   3.949   7.137   1.595  2.1818 -1.6186  0.5718
20067SOL     OW67058   6.113   5.121   1.543  0.3220  0.0086 -0.3345
20067SOL    HW167059   6.115   5.057   1.471  1.1376 -0.8063  0.3706
20067SOL    HW267060   6.152   5.200   1.506 -0.5728  0.0675 -1.1844
20068SOL     OW67061   2.941   3.057  10.845 -0.1244 -0.1180  0.0642
20068SOL    HW167062   2.888   3.027  10.918  0.5687 -0.4607  0.4393
20068SOL    HW267063   2.947   2.981  10.787  1.4964 -0.6906  0.9341
20069SOL     OW67064   9.612   3.084   4.282 -0.0632 -0.0212  0.4906
20069SOL    HW167065   9.574   3.005   4.319  0.5114  0.3258  1.9182
20069SOL    HW267066   9.658   3.055   4.204 -1.7912 -0.7058 -0.3219
20070SOL     OW67067   3.601   6.680  12.320 -0.3712  0.4536  0.6948
20070SOL    HW167068   3.580   6.734  12.244  0.6594  0.8640  0.6756
20070SOL    HW267069   3.519   6.637  12.344 -1.2070  2.0122  0.7026
20071SOL     OW67070   4.167  11.840   4.346  0.4762  0.0467 -0.3359
20071SOL    HW167071   4.192  11.880   4.263 -1.0385  0.4904 -0.6103
20071SOL    HW267072   4.183  11.908   4.412  2.3688 -0.5521 -0.1314
20072SOL     OW67073   2.430   6.685   8.790  1.0833  0.0024  0.2354
20072SOL    HW167074   2.514   6.697   8.746  0.8319  0.3389 -0.1628
20072SOL    HW267075   2.424   6.591   8.805  2.0301  0.0841  1.2768
20073SOL     OW67076  11.761  12.095   9.625 -0.1403 -0.0568  0.2668
20073SOL    HW167077  11.726  12.173   9.668 -1.3700 -0.8701  0.7964
20073SOL    HW267078  11.719  12.022   9.671  0.4810 -1.0145 -0.6515
20074SOL     OW67079   2.030  11.052  11.764 -0.7662 -0.2447  0.5803
20074SOL    HW167080   2.059  10.988  11.699  0.3954  1.4452 -0.6882
20074SOL    HW267081   2.012  11.001  11.843 -1.1503 -2.2451 -0.7395
20075SOL     OW67082   0.893  10.214   2.119  0.0122 -0.2832  0.0150
20075SOL    HW167083   0.982  10.187   2.100  0.2311  0.7407 -0.4668
20075SOL    HW267084   0.900  10.269   2.197 -0.0764  0.4459 -0.4791
20076SOL     OW67085   4.596  11.833  10.676 -0.3705 -0.8157 -0.0848
20076SOL    HW167086   4.635  11.772  10.614  1.0723 -0.2026  0.1948
20076SOL    HW267087   4.639  11.917  10.659  1.9399 -1.1084  3.2747
20077SOL     OW67088   1.676   9.941  11.188  0.0776 -0.1617  0.4103
20077SOL    HW167089   1.744   9.875  11.174 -0.6438 -1.0445  0.9665
20077SOL    HW267090   1.670   9.988  11.105  0.4117 -0.9747 -0.0819
20078SOL     OW67091   8.714   2.445   8.725 -0.8515 -0.4045 -0.1913
20078SOL    HW167092   8.749   2.370   8.676  0.3498  0.4419 -0.6828
20078SOL    HW267093   8.685   2.506   8.658 -0.9601 -0.0350  0.1888
20079SOL     OW67094  10.419   1.560   8.264  0.0728 -0.4231  0.3945
20079SOL    HW167095  10.423   1.491   8.330  1.4188 -0.6641  0.0820
20079SOL    HW267096  10.371   1.519   8.191  0.2867 -0.8114  0.4677
20080SOL     OW67097   8.629  11.190  10.649 -0.5381 -0.2919  0.0203
20080SOL    HW167098   8.571  11.118  10.621 -0.5965  0.2292 -1.2792
20080SOL    HW267099   8.702  11.187  10.587 -0.3708  0.5633  0.1638
20081SOL     OW67100  11.048   7.024   7.895  0.3281  0.7902  0.5426
20081SOL    HW167101  11.061   6.954   7.960  0.3504 -0.5541 -0.8521
20081SOL    HW267102  11.113   7.090   7.918 -0.4066  0.8642  2.5473
20082SOL     OW67103   3.143   9.175   5.070  0.6060  0.4191 -0.0386
20082SOL    HW167104   3.233   9.145   5.079  1.0702  1.5706 -0.6902
20082SOL    HW267105   3.144   9.234   4.995 -0.8926 -0.2962 -0.6739
20083SOL     OW67106   4.903   3.813   4.841  0.2359 -0.0590 -0.1671
20083SOL    HW167107   4.809   3.824   4.855  0.1487 -0.2504 -0.5929
20083SOL    HW267108   4.922   3.725   4.875  0.2021 -0.1446 -0.3694
20084SOL     OW67109   9.624   4.530   5.539  0.2743  0.6095  0.4265
20084SOL    HW167110   9.541   4.483   5.539 -0.1485  1.3554  0.4546
20084SOL    HW267111   9.603   4.618   5.509  0.9760  0.9407  0.8726
20085SOL     OW67112  12.311   6.655   0.651 -0.3728  0.1959  0.9052
20085SOL    HW167113  12.291   6.704   0.571 -1.9551 -0.5444  0.7974
20085SOL    HW267114  12.406   6.644   0.650 -0.4993 -2.0209 -2.2851
20086SOL     OW67115   8.538  10.369   5.339 -0.2465 -0.0753  0.3262
20086SOL    HW167116   8.492  10.441   5.383 -0.5703 -0.6138  0.8991
20086SOL    HW267117   8.540  10.393   5.247  0.2493  0.9845  0.6093
20087SOL     OW67118  11.890  11.492  12.130  0.3262  0.1874  0.1567
20087SOL    HW167119  11.865  11.492  12.222  2.4337 -1.0735  0.8017
20087SOL    HW267120  11.846  11.415  12.093  1.8744 -1.1403  0.9224
20088SOL     OW67121   7.939   5.639  12.064  0.2798  0.2927 -0.0791
20088SOL    HW167122   7.983   5.558  12.090  0.7388  0.4852 -0.2603
20088SOL    HW267123   7.854   5.610  12.030  0.3007 -0.0837  0.1804
20089SOL     OW67124   7.515   4.051   9.324  0.3047  0.3385 -0.0614
20089SOL    HW167125   7.495   4.143   9.307 -0.5561  0.4030  1.1701
20089SOL    HW267126   7.463   4.029   9.401  2.9754 -0.2419  1.7213
20090SOL     OW67127   7.670   1.120   2.752 -0.1072 -0.4325  0.0774
20090SOL    HW167128   7.724   1.043   2.736 -2.2254 -1.8519 -0.7987
20090SOL    HW267129   7.632   1.141   2.666 -1.9519 -0.3552  0.8689
20091SOL     OW67130   9.327   6.771   1.131  0.2412 -0.0994 -0.2975
20091SOL    HW167131   9.282   6.687   1.130  0.0992 -0.0215 -0.7465
20091SOL    HW267132   9.283   6.821   1.199 -1.8438  0.7592 -2.1537
20092SOL     OW67133   0.492   6.228   2.431 -0.1373  0.1579 -0.1057
20092SOL    HW167134   0.398   6.213   2.418 -0.2235  0.3539  0.2613
20092SOL    HW267135   0.524   6.256   2.345 -0.4956  0.4763 -0.1393
20093SOL     OW67136  12.274   9.816   1.611  0.3885  0.6143  0.0599
20093SOL    HW167137  12.274   9.790   1.703 -0.7283  0.4062  0.0090
20093SOL    HW267138  12.223   9.898   1.610  0.0757  0.4136 -0.4266
20094SOL     OW67139   6.439   8.141   0.856  0.6953 -0.0577  0.4834
20094SOL    HW167140   6.512   8.202   0.869  0.3873 -0.0786  2.7087
20094SOL    HW267141   6.373   8.194   0.810  2.1643 -0.1505 -1.9164
20095SOL     OW67142   9.133   4.711  11.135 -0.4397 -0.5125  0.7154
20095SOL    HW167143   9.187   4.706  11.213 -0.5403 -0.6629  0.7759
20095SOL    HW267144   9.195   4.720  11.063 -0.3955  1.7434  0.9724
20096SOL     OW67145  11.927   6.647   3.209 -0.2070 -0.2428 -0.3589
20096SOL    HW167146  11.844   6.692   3.224  0.2911  0.6433 -0.2014
20096SOL    HW267147  11.990   6.717   3.191  0.8881 -0.7480  1.2441
20097SOL     OW67148   7.581   9.268  11.036  0.4576 -0.4049 -0.4416
20097SOL    HW167149   7.559   9.245  10.946  0.2595  1.1204 -0.8125
20097SOL    HW267150   7.525   9.344  11.056  0.5796 -0.6491  0.9250
20098SOL     OW67151   9.385   4.178   1.455  0.1570 -0.3956  0.1624
20098SOL    HW167152   9.363   4.237   1.384 -1.0253 -0.4825  0.4387
20098SOL    HW267153   9.301   4.148   1.489  0.7068 -2.2601  0.0184
20099SOL     OW67154   6.130   3.417   2.334 -0.1607  0.2694 -0.2445
20099SOL    HW167155   6.224   3.412   2.319 -0.3259 -1.2828 -0.9898
20099SOL    HW267156   6.120   3.480   2.405  1.4664  0.1849  0.0973
20100SOL     OW67157  12.204   7.227   6.118 -0.2505  0.2628  0.3239
20100SOL    HW167158  12.120   7.189   6.144 -0.8661  2.2011  1.3772
20100SOL    HW267159  12.241   7.164   6.057 -1.7927 -1.3452  0.9660
20101SOL     OW67160   7.830   8.208   3.230 -0.0062  0.3296  0.1427
20101SOL    HW167161   7.834   8.114   3.215  0.1421  0.3155  0.2707
20101SOL    HW267162   7.753   8.220   3.286 -0.2336  0.3230 -0.1680
20102SOL     OW67163   3.969   1.252   6.594  0.3019  0.2637  0.2163
20102SOL    HW167164   4.042   1.312   6.581  1.2583 -0.7359  0.7434
20102SOL    HW267165   3.994   1.200   6.671 -0.7146 -0.4609  0.0819
20103SOL     OW67166   7.723   1.265   9.416  0.4277 -0.5378  0.2929
20103SOL    HW167167   7.683   1.211   9.349  0.8571 -0.0271 -0.3868
20103SOL    HW267168   7.810   1.228   9.430  0.8656  0.1778 -0.4425
20104SOL     OW67169   8.205   2.592   5.902 -0.5653  0.0260  0.7286
20104SOL    HW167170   8.135   2.584   5.967 -0.5065 -0.1447  0.7707
20104SOL    HW267171   8.205   2.509   5.855 -0.7458  0.2266  0.3686
20105SOL     OW67172  11.083   8.641   4.146  0.4101 -0.6181  0.3592
20105SOL    HW167173  11.003   8.597   4.173  0.1298 -1.6410 -1.8865
20105SOL    HW267174  11.145   8.570   4.129  0.8396 -0.0175 -0.6946
20106SOL     OW67175   1.266   7.777   9.241  0.2010 -0.0977  0.0668
20106SOL    HW167176   1.277   7.708   9.307  0.0327  0.7780  1.0374
20106SOL    HW267177   1.351   7.783   9.199  0.5102 -0.2266  0.6599
20107SOL     OW67178   0.062   6.914   8.087 -0.0201 -0.5654  0.0669
20107SOL    HW167179   0.143   6.959   8.065  0.0829  0.4459  2.2778
20107SOL    HW267180   0.085   6.857   8.160 -1.0348 -1.2407 -0.1169
20108SOL     OW67181   1.527   1.614   5.973  0.3220 -0.2401 -0.2459
20108SOL    HW167182   1.533   1.684   5.907 -2.8593 -1.1602 -1.6904
20108SOL    HW267183   1.528   1.660   6.057  0.7751  1.3163 -1.0693
20109SOL     OW67184   3.713   3.522   5.016  0.2226  0.8155 -0.3440
20109SOL    HW167185   3.771   3.582   5.063  2.9991 -0.0936 -2.3521
20109SOL    HW267186   3.748   3.435   5.034  0.3105  0.3165 -2.6135
20110SOL     OW67187  10.793   3.346   4.470 -0.1304 -0.1331 -0.6705
20110SOL    HW167188  10.872   3.400   4.479 -0.6300  0.6548 -0.9212
20110SOL    HW267189  10.750   3.379   4.391 -1.2736  0.1988  0.0680
20111SOL     OW67190   7.416   7.844   4.225 -0.0907  0.3140  0.7227
20111SOL    HW167191   7.348   7.853   4.292 -1.3697  0.5989 -0.5530
20111SOL    HW267192   7.426   7.933   4.190  1.9122  0.5450  1.7497
20112SOL     OW67193   0.393   3.964   9.262 -0.2102  0.3088  0.0935
20112SOL    HW167194   0.361   4.026   9.327 -0.4167  0.0173  0.2718
20112SOL    HW267195   0.380   4.008   9.178 -0.3987  0.4870  0.2164
20113SOL     OW67196  11.895   1.862   0.733 -0.1211 -0.8183  0.2166
20113SOL    HW167197  11.826   1.825   0.678 -0.2879 -1.0414  0.5723
20113SOL    HW267198  11.870   1.839   0.822  1.0661 -1.9955  0.2726
20114SOL     OW67199   6.642   8.165  11.103  0.1407  0.0057  0.1256
20114SOL    HW167200   6.683   8.210  11.177 -2.3845  1.1624  0.9484
20114SOL    HW267201   6.711   8.159  11.037  0.8783  4.6943  0.1519
20115SOL     OW67202   1.547   3.728   9.820 -0.5533 -0.3958 -0.6823
20115SOL    HW167203   1.483   3.663   9.850 -2.1258  1.1121 -0.6230
20115SOL    HW267204   1.497   3.809   9.813  1.8794  1.4827  1.8058
20116SOL     OW67205   6.111  10.573   2.280  0.5910  0.3942  0.2470
20116SOL    HW167206   6.058  10.610   2.209 -0.1468 -0.4859  0.3240
20116SOL    HW267207   6.097  10.632   2.354 -0.3913  0.1125  0.3025
20117SOL     OW67208  11.778   2.509   6.719 -0.0180  0.2771  0.1531
20117SOL    HW167209  11.823   2.456   6.653 -0.0806  0.8850 -0.3830
20117SOL    HW267210  11.756   2.447   6.788 -0.2147 -0.4274 -0.5305
20118SOL     OW67211   1.057   0.507   2.044  0.0901  0.2275 -0.3461
20118SOL    HW167212   1.140   0.465   2.064  0.6388  0.5089 -1.9326
20118SOL    HW267213   1.005   0.439   2.000  0.4328  0.7395 -1.5919
20119SOL     OW67214   2.668   5.741   9.122  0.1820 -0.2597 -0.7408
20119SOL    HW167215   2.738   5.797   9.154  0.0630 -0.1891 -0.6055
20119SOL    HW267216   2.711   5.656   9.107 -0.2466 -1.1142  2.1221
20120SOL     OW67217   9.271   5.325  10.524  0.2967  0.0215 -0.1290
20120SOL    HW167218   9.189   5.277  10.512 -0.6211  1.2133  1.0970
20120SOL    HW267219   9.279   5.378  10.445 -0.1145 -0.0826 -0.2433
20121SOL     OW67220   8.780  11.837   0.411 -0.4228  0.3195 -0.2597
20121SOL    HW167221   8.773  11.744   0.432 -0.7282  0.3156 -0.3648
20121SOL    HW267222   8.873  11.851   0.394 -0.3074  0.1385  0.2300
20122SOL     OW67223   1.210  10.303  11.848  0.0934  0.1743 -0.5182
20122SOL    HW167224   1.182  10.213  11.867  0.4585  0.4156  1.4600
20122SOL    HW267225   1.215  10.344  11.935  3.4114  1.0689 -1.0118
20123SOL     OW67226  10.998   2.120   5.751  0.8005 -0.1657  0.2044
20123SOL    HW167227  10.939   2.087   5.683  1.0186  1.9946 -1.1041
20123SOL    HW267228  11.077   2.066   5.742  0.8514  0.1203 -1.3185
20124SOL     OW67229   0.891   8.301   8.042  0.5298 -0.6271  0.2709
20124SOL    HW167230   0.964   8.348   8.082  1.6665  0.7039 -3.0554
20124SOL    HW267231   0.825   8.295   8.112  3.1438 -0.5075  2.9258
20125SOL     OW67232   0.256   9.172  10.644 -0.4253  0.5654  0.1981
20125SOL    HW167233   0.290   9.157  10.556  0.4060  0.4543  0.5255
20125SOL    HW267234   0.162   9.157  10.637 -0.0356 -2.2022 -0.0934
20126SOL     OW67235   4.818   4.724   8.869 -0.0417 -0.5099 -0.3801
20126SOL    HW167236   4.761   4.787   8.912 -0.9016 -2.2514  1.1614
20126SOL    HW267237   4.784   4.717   8.780 -2.4654 -1.6995  0.5737
20127SOL     OW67238   5.990   2.961   0.235  0.0568  0.3047  0.1884
20127SOL    HW167239   6.077   2.931   0.209  0.1860  0.8899 -0.0807
20127SOL    HW267240   5.953   2.889   0.285  0.9320  0.2851  0.8180
20128SOL     OW67241  12.173   7.077   2.214  0.2401  0.2305 -0.0745
20128SOL    HW167242  12.234   7.083   2.140  1.2444 -0.5169  0.6706
20128SOL    HW267243  12.226   7.098   2.291 -0.4003 -0.5546  0.6002
20129SOL     OW67244  12.082   1.945   2.860 -0.4007 -0.2492  0.0140
20129SOL    HW167245  12.108   2.007   2.793  1.4742  0.1536  1.0337
20129SOL    HW267246  12.000   1.908   2.828  0.3112  0.0582 -2.3859
20130SOL     OW67247   0.650  10.996   3.255 -0.3806  0.1023 -0.6509
20130SOL    HW167248   0.661  10.903   3.276 -0.1015 -0.0573 -1.4766
20130SOL    HW267249   0.591  10.997   3.180 -1.7049  0.6886  0.3518
20131SOL     OW67250   2.968   5.760   4.789 -0.4942 -0.0751 -0.2426
20131SOL    HW167251   2.982   5.670   4.818  1.3468  0.5695  1.0539
20131SOL    HW267252   3.014   5.764   4.705 -0.6824 -0.3677 -0.3626
20132SOL     OW67253   1.183   5.978   6.301 -0.3369  0.0738  0.0584
20132SOL    HW167254   1.207   6.059   6.346 -1.0466  0.4352 -0.1983
20132SOL    HW267255   1.113   5.941   6.355 -1.1314  0.4640 -0.6781
20133SOL     OW67256   0.757   3.294  10.251 -0.0608  0.3829  0.0780
20133SOL    HW167257   0.698   3.220  10.237 -0.8542  0.9438  0.3359
20133SOL    HW267258   0.834   3.256  10.293 -0.5918 -0.2454  0.5013
20134SOL     OW67259   6.880   9.051   2.664  0.3700  0.0676 -0.0009
20134SOL    HW167260   6.874   9.120   2.597  2.0029  0.4331  0.1932
20134SOL    HW267261   6.886   9.099   2.747 -0.0645 -0.3514  0.2785
20135SOL     OW67262   2.583   6.039  10.404 -0.3000 -0.1818 -0.3600
20135SOL    HW167263   2.582   6.025  10.310  0.8851  0.4078 -0.4738
20135SOL    HW267264   2.594   5.952  10.442 -0.1932 -0.3539 -0.7848
20136SOL     OW67265  10.214   9.533   2.858  0.6778 -0.5612 -0.4988
20136SOL    HW167266  10.124   9.537   2.827 -0.8726  0.7152  3.4205
20136SOL    HW267267  10.248   9.622   2.844  1.1914 -0.9170 -1.5616
20137SOL     OW67268   7.001   7.483   9.638  0.1786  0.0339  0.1952
20137SOL    HW167269   7.060   7.515   9.570 -0.9551 -0.1119 -0.8835
20137SOL    HW267270   6.939   7.555   9.652 -0.7068 -0.6154 -0.2707
20138SOL     OW67271   3.873   7.339  12.184 -0.4897  0.6439  0.3147
20138SOL    HW167272   3.796   7.332  12.241 -0.9805  1.0199 -0.2850
20138SOL    HW267273   3.947   7.313  12.239 -1.2781 -1.9286  0.3030
20139SOL     OW67274   1.613   6.307   7.493 -0.1612 -0.2587  0.5002
20139SOL    HW167275   1.543   6.345   7.546  1.3788  2.9326  0.5060
20139SOL    HW267276   1.669   6.262   7.557 -2.0191 -2.8184  0.4948
20140SOL     OW67277   1.369   8.553   9.003  0.0692 -0.3408 -0.3750
20140SOL    HW167278   1.308   8.500   8.952  0.7082 -1.3386 -0.1383
20140SOL    HW267279   1.328   8.639   9.008 -1.3067 -0.9725 -0.2312
20141SOL     OW67280   8.108   8.431  11.594 -0.2556  0.2285 -0.2138
20141SOL    HW167281   8.055   8.418  11.672 -1.4734 -0.8531 -1.1805
20141SOL    HW267282   8.064   8.499  11.545 -0.8966 -0.8000 -1.1088
20142SOL     OW67283   4.775   6.782   5.316  0.2731 -0.1284  0.6920
20142SOL    HW167284   4.805   6.755   5.229  0.0073  0.7086  0.3394
20142SOL    HW267285   4.834   6.737   5.376 -0.5116 -1.9805  0.1490
20143SOL     OW67286   8.483   0.276  12.503  0.3472  0.0126  0.4496
20143SOL    HW167287   8.457   0.283  12.595 -0.1306 -1.3620  0.4513
20143SOL    HW267288   8.406   0.238  12.460  0.3649  1.1635 -0.6292
20144SOL     OW67289   5.669  10.667   8.883 -0.3666  0.4530 -0.5473
20144SOL    HW167290   5.628  10.614   8.951 -0.2452 -0.3707 -1.0834
20144SOL    HW267291   5.721  10.732   8.930 -1.5086  0.8947  0.1316
20145SOL     OW67292  10.363   0.240  11.356  0.5224  0.7311  0.1417
20145SOL    HW167293  10.311   0.237  11.436  1.4924  0.9055  0.7943
20145SOL    HW267294  10.332   0.318  11.310  2.5228  2.8966  2.1755
20146SOL     OW67295   6.502  10.726   5.476  0.0279  0.1249 -0.4867
20146SOL    HW167296   6.571  10.790   5.492  0.0893 -0.5266  2.6569
20146SOL    HW267297   6.421  10.772   5.498 -0.0608 -0.4001  0.3360
20147SOL     OW67298   5.769   0.311   0.139  0.5970 -0.0343 -0.3253
20147SOL    HW167299   5.717   0.337   0.215  0.1615 -0.8390 -0.3357
20147SOL    HW267300   5.825   0.240   0.171  0.6632 -0.1405 -0.6691
20148SOL     OW67301   0.937   4.272   2.702 -0.2177  0.2953 -0.0238
20148SOL    HW167302   1.024   4.261   2.740 -0.0263  0.2324 -0.4768
20148SOL    HW267303   0.906   4.355   2.737  0.4254  0.8015 -0.6324
20149SOL     OW67304  10.168   6.043   4.950  0.5800 -0.1697 -0.5368
20149SOL    HW167305  10.185   6.036   5.044  2.0764 -1.3987 -0.8618
20149SOL    HW267306  10.162   6.137   4.934 -0.3933  0.0485  0.8797
20150SOL     OW67307   7.976   9.735   7.098 -0.1383 -0.1595  0.5479
20150SOL    HW167308   7.969   9.703   7.008  1.0096 -0.2700  0.4872
20150SOL    HW267309   7.885   9.741   7.128 -0.5352 -0.1237 -0.6106
20151SOL     OW67310   9.844   0.440  12.421  0.0550  0.3764 -0.1318
20151SOL    HW167311   9.757   0.430  12.462 -0.0445  2.0255  0.1303
20151SOL    HW267312   9.894   0.491  12.484  0.6960  0.8273 -0.9865
20152SOL     OW67313   2.507   1.109  11.974  0.5545 -0.0454  0.0687
20152SOL    HW167314   2.470   1.165  12.042  0.1594 -0.5627  0.2934
20152SOL    HW267315   2.540   1.169  11.908 -1.4761  0.4518 -0.5508
20153SOL     OW67316   3.829  10.996   6.219 -0.4639 -0.2141  0.8388
20153SOL    HW167317   3.915  10.963   6.194 -0.0562  0.5268  1.2205
20153SOL    HW267318   3.796  11.038   6.140  0.5221  1.5039  1.2826
20154SOL     OW67319  11.687   5.386  11.318 -0.3102  0.7498  0.0271
20154SOL    HW167320  11.764   5.436  11.343  1.1726 -0.2266 -2.2301
20154SOL    HW267321  11.715   5.294  11.322 -1.1776  0.3904 -1.2581
20155SOL     OW67322  11.724   6.692   1.775  0.5016  0.3648  0.1861
20155SOL    HW167323  11.690   6.608   1.806  2.3150  0.0942  1.6292
20155SOL    HW267324  11.798   6.668   1.718  0.0178  0.9793 -0.7307
20156SOL     OW67325  10.793   8.256   9.114 -0.0913 -0.6067 -0.3626
20156SOL    HW167326  10.724   8.208   9.159  1.2689 -1.4044  0.9512
20156SOL    HW267327  10.801   8.339   9.162  0.9699 -1.2169  0.5498
20157SOL     OW67328   6.752   8.432   5.251  0.1738  0.2910 -0.3319
20157SOL    HW167329   6.726   8.500   5.189  1.3494  1.7376  0.7087
20157SOL    HW267330   6.705   8.453   5.331 -0.1822 -0.7006 -0.2648
20158SOL     OW67331   5.555  10.106  12.385  0.4857 -0.4727  0.0420
20158SOL    HW167332   5.466  10.139  12.392  0.1706 -1.6121  2.6246
20158SOL    HW267333   5.598  10.166  12.324 -1.3676  1.5755  0.6048
20159SOL     OW67334   6.975   6.812   6.958  0.0122  0.2339 -0.1502
20159SOL    HW167335   7.053   6.787   7.008  0.5972  1.5049 -0.3995
20159SOL    HW267336   6.942   6.730   6.921  0.8082 -0.4131  0.5591
20160SOL     OW67337   3.100   3.489  11.981 -0.2139 -0.2151  0.3074
20160SOL    HW167338   3.042   3.514  12.054 -2.3989  2.8253 -2.2091
20160SOL    HW267339   3.051   3.421  11.934 -0.3320  0.1815 -0.1424
20161SOL     OW67340   9.932  10.359   6.589 -0.3733  0.6009  0.3170
20161SOL    HW167341   9.911  10.349   6.682 -1.8184 -0.3657 -0.0926
20161SOL    HW267342   9.939  10.270   6.555 -2.0738  0.9076 -0.9587
20162SOL     OW67343   8.455   0.208   6.121 -0.3335 -0.0419  0.1792
20162SOL    HW167344   8.535   0.186   6.170 -0.4306  2.1602  1.4501
20162SOL    HW267345   8.480   0.195   6.029  1.1663 -0.3891  0.5958
20163SOL     OW67346   7.267   9.014   4.574 -0.4861 -0.5323  0.0434
20163SOL    HW167347   7.362   8.998   4.571 -0.4454 -1.1948  2.6013
20163SOL    HW267348   7.259   9.108   4.586 -0.0801 -0.6100  1.0065
20164SOL     OW67349   6.922   8.634   3.410 -0.0154 -0.0630 -0.1804
20164SOL    HW167350   6.939   8.715   3.458 -2.9086 -1.0754  2.9933
20164SOL    HW267351   6.876   8.661   3.331 -0.7404  1.4590  0.7261
20165SOL     OW67352   4.739   4.209   3.611  0.1420  0.1456 -0.6681
20165SOL    HW167353   4.790   4.155   3.672  3.0946  1.6118 -1.6528
20165SOL    HW267354   4.728   4.155   3.534 -0.0093 -0.2645 -0.3617
20166SOL     OW67355   0.674   6.341  10.028  0.6249 -0.1293  0.2009
20166SOL    HW167356   0.594   6.287  10.027  1.0225 -0.7538 -1.1437
20166SOL    HW267357   0.744   6.279  10.049  0.9267  0.1208 -0.0636
20167SOL     OW67358  11.025   5.240   4.667  0.0026 -0.4982 -0.1305
20167SOL    HW167359  11.084   5.275   4.600  1.0349 -0.0128  0.9925
20167SOL    HW267360  10.939   5.239   4.625  0.2151  1.8493 -0.7543
20168SOL     OW67361   3.649  11.108   5.238  0.1910 -0.2465 -0.3101
20168SOL    HW167362   3.610  11.186   5.277 -1.9082 -0.8555 -1.0732
20168SOL    HW267363   3.635  11.118   5.144  2.3409 -0.3087 -0.6958
20169SOL     OW67364   7.571   1.869   6.100  0.0906 -0.4526 -0.1476
20169SOL    HW167365   7.608   1.880   6.187  0.2005  1.3012 -0.3604
20169SOL    HW267366   7.479   1.896   6.109 -0.1980 -1.3263 -0.3603
20170SOL     OW67367  12.487   5.755   9.949  0.0156  0.1411 -0.6053
20170SOL    HW167368  12.564   5.717   9.906  1.1827  3.2031 -1.5044
20170SOL    HW267369  12.523   5.803  10.023 -1.1432  0.8442 -0.4866
20171SOL     OW67370   0.437   7.827   6.032 -0.0341 -0.2405  0.7422
20171SOL    HW167371   0.356   7.782   6.055  0.5018 -1.7823 -0.2401
20171SOL    HW267372   0.478   7.771   5.966  1.8703  0.4527  1.2683
20172SOL     OW67373  10.719   0.592   1.263  0.4757 -0.3683  0.3333
20172SOL    HW167374  10.798   0.572   1.214 -0.6565 -0.8878 -1.3878
20172SOL    HW267375  10.660   0.519   1.245 -0.9327  0.7130  0.3370
20173SOL     OW67376   3.836   8.170  11.528  0.6043  0.4094  0.5128
20173SOL    HW167377   3.908   8.164  11.591  0.8801 -1.5870  0.0988
20173SOL    HW267378   3.877   8.157  11.443 -0.3307 -2.2635  0.3725
20174SOL     OW67379   1.971   1.891   2.932  0.1053  0.0424 -0.0506
20174SOL    HW167380   1.941   1.959   2.872  2.1547  1.2331  0.1972
20174SOL    HW267381   2.041   1.932   2.983  0.3480 -1.7856  1.2056
20175SOL     OW67382   3.059  10.989   5.394  0.5354  0.3678 -0.2530
20175SOL    HW167383   3.134  11.038   5.360  0.7134 -0.1170 -0.5651
20175SOL    HW267384   3.018  10.951   5.316  0.4576 -0.0643 -0.0031
20176SOL     OW67385   5.620   7.821   4.409 -0.2611  0.4085 -0.1245
20176SOL    HW167386   5.526   7.808   4.396 -0.0924 -1.8144  0.3585
20176SOL    HW267387   5.632   7.815   4.504  0.6210 -2.2065 -0.3053
20177SOL     OW67388   1.015  11.364   5.060  0.0793  0.3675 -0.0920
20177SOL    HW167389   1.047  11.283   5.021 -0.1158  0.0467  0.4064
20177SOL    HW267390   1.082  11.429   5.038  0.4182 -0.0075 -0.1882
20178SOL     OW67391   6.580   9.280   2.722  0.2220  0.0932 -0.1250
20178SOL    HW167392   6.668   9.316   2.731  0.1055  0.4691 -0.4566
20178SOL    HW267393   6.583   9.226   2.643  0.0453  0.4468 -0.3763
20179SOL     OW67394   8.430   0.626  12.087  0.6023 -0.2753  0.1288
20179SOL    HW167395   8.425   0.630  12.183 -2.3035  0.6938  0.0253
20179SOL    HW267396   8.354   0.574  12.061  0.9219  0.1197 -1.6949
20180SOL     OW67397   1.297   0.177   3.424  0.1502  0.2332 -0.6100
20180SOL    HW167398   1.357   0.138   3.360  0.1326 -0.1448 -0.3954
20180SOL    HW267399   1.347   0.181   3.505  0.0773  0.4528 -0.5765
20181SOL     OW67400   7.306   0.187  11.311  0.0432 -0.5116  0.3908
20181SOL    HW167401   7.226   0.208  11.359  0.7358 -0.6105  1.6388
20181SOL    HW267402   7.317   0.092  11.323 -0.8261 -0.9316 -1.6703
20182SOL     OW67403  10.518   7.085   3.771 -0.9380 -0.4017 -0.3175
20182SOL    HW167404  10.521   7.166   3.821 -1.0182 -1.4539  1.4618
20182SOL    HW267405  10.594   7.089   3.713 -0.0520  0.2487  0.8656
20183SOL     OW67406   5.006   8.103  11.562 -0.0480 -0.5058 -0.1412
20183SOL    HW167407   5.101   8.095  11.547 -0.3321 -0.3216 -2.4828
20183SOL    HW267408   4.987   8.036  11.627  1.5755 -1.1499 -0.2611
20184SOL     OW67409   0.747   8.085   6.781 -0.1761  0.0868  0.0847
20184SOL    HW167410   0.823   8.033   6.805 -1.1145 -0.8551  1.1342
20184SOL    HW267411   0.714   8.045   6.701 -0.5555 -0.6012  0.5736
20185SOL     OW67412  10.160  11.821   1.072 -0.0706  0.7227  0.0056
20185SOL    HW167413  10.090  11.830   1.137 -1.3390 -1.4936 -0.9105
20185SOL    HW267414  10.151  11.899   1.016 -1.3675  0.8342  0.3369
20186SOL     OW67415  11.510   8.647   3.208 -0.2784  0.0915 -0.1662
20186SOL    HW167416  11.453   8.654   3.131  0.7247 -0.5075 -0.9907
20186SOL    HW267417  11.450   8.627   3.280 -0.9466 -3.4812 -1.4764
20187SOL     OW67418  11.977   6.095   7.193 -0.1597 -0.2150  0.1051
20187SOL    HW167419  12.048   6.145   7.231  1.1471 -0.7946 -1.4667
20187SOL    HW267420  11.954   6.031   7.260 -0.0358  0.7361  1.0841
20188SOL     OW67421  11.503   4.969  11.172 -0.0676  0.1518 -0.0209
20188SOL    HW167422  11.549   4.887  11.185  0.2265  0.4783  1.0693
20188SOL    HW267423  11.504   5.012  11.257  1.2650  2.0512 -0.8981
20189SOL     OW67424   8.699   6.267   1.315 -0.2355  0.1650 -0.1113
20189SOL    HW167425   8.612   6.278   1.277  0.5317 -0.4632 -2.2109
20189SOL    HW267426   8.751   6.339   1.279  0.0720  0.7082  1.3526
20190SOL     OW67427   7.300   0.124   3.626  0.2085  0.0606  0.2298
20190SOL    HW167428   7.235   0.121   3.696 -0.8744  1.4958 -0.6649
20190SOL    HW267429   7.307   0.034   3.596 -1.8808 -0.0434 -0.0793
20191SOL     OW67430   1.411  11.957   4.494  0.1240  0.3026 -0.5001
20191SOL    HW167431   1.458  11.914   4.566 -1.7221 -0.4139  0.3636
20191SOL    HW267432   1.396  11.886   4.431 -1.0194  0.1521 -0.0860
20192SOL     OW67433   2.893   0.463   0.834  0.8935 -0.2956 -0.6328
20192SOL    HW167434   2.953   0.392   0.813  0.8997 -0.1154 -1.2348
20192SOL    HW267435   2.949   0.536   0.861  0.8686 -0.6705  0.4945
20193SOL     OW67436   2.422   9.610  11.693  0.0249  0.3396  0.1237
20193SOL    HW167437   2.397   9.576  11.607 -0.6309  0.2442  0.3435
20193SOL    HW267438   2.499   9.664  11.677  0.8840 -0.9651 -0.2963
20194SOL     OW67439   4.598  10.624   1.485 -0.1588  0.0251 -0.2907
20194SOL    HW167440   4.674  10.630   1.542 -0.3515 -0.2544 -0.0015
20194SOL    HW267441   4.523  10.624   1.545 -0.3132 -1.9429 -0.4188
20195SOL     OW67442  12.470   3.847   5.573 -0.1204 -0.4718  0.4031
20195SOL    HW167443  12.392   3.792   5.559  1.2400 -2.7237  1.1748
20195SOL    HW267444  12.509   3.854   5.486 -2.0081  2.1933 -0.3697
20196SOL     OW67445   9.990   8.563   4.402 -0.0088 -0.0283 -0.3534
20196SOL    HW167446  10.077   8.524   4.404 -0.1486 -0.2992  0.9780
20196SOL    HW267447   9.931   8.489   4.389 -0.0314  0.2066 -1.7295
20197SOL     OW67448   8.946   8.704  11.605 -0.8174 -0.1939 -0.1265
20197SOL    HW167449   8.967   8.686  11.513  0.5896 -2.2435  0.5332
20197SOL    HW267450   8.895   8.785  11.602  0.8235  0.8803 -2.5619
20198SOL     OW67451   3.200  11.772  12.248 -0.2760 -0.8719  0.1579
20198SOL    HW167452   3.217  11.718  12.325  0.4375 -0.4748  0.2907
20198SOL    HW267453   3.237  11.722  12.175 -0.3593 -0.9406  0.1618
20199SOL     OW67454   3.801   9.292   0.774  0.1905  0.1598  0.5303
20199SOL    HW167455   3.752   9.312   0.854 -0.7162  0.3432 -0.0699
20199SOL    HW267456   3.818   9.198   0.779  0.0918  0.1611  0.9106
20200SOL     OW67457   4.610   1.124   0.382  0.5248 -0.3387  0.2252
20200SOL    HW167458   4.620   1.030   0.398  0.9348 -0.5157 -0.9579
20200SOL    HW267459   4.692   1.149   0.339 -1.1259 -0.2918 -3.1686
20201SOL     OW67460   9.626   9.920   7.836  0.2125 -0.6270  0.2355
20201SOL    HW167461   9.685   9.858   7.879  0.8118  0.9973  1.8956
20201SOL    HW267462   9.539   9.900   7.871  0.4403 -0.3792  0.9454
20202SOL     OW67463   8.583   2.497  11.599  0.2920  0.4168  0.5878
20202SOL    HW167464   8.539   2.540  11.673  0.0307  1.7920 -0.3195
20202SOL    HW267465   8.669   2.473  11.632  0.4436  1.6656  1.1623
20203SOL     OW67466   5.955   6.653   5.086 -0.0112  0.1243  0.0583
20203SOL    HW167467   5.902   6.575   5.104  1.0089 -0.5200  0.3954
20203SOL    HW267468   5.993   6.637   5.000 -0.3615  0.5816 -0.1827
20204SOL     OW67469   3.532   8.934   8.678  0.2269 -0.8942 -0.1499
20204SOL    HW167470   3.518   8.999   8.609  2.1366 -0.5001 -0.2238
20204SOL    HW267471   3.470   8.958   8.747 -2.1175 -1.6212 -1.8714
20205SOL     OW67472   3.844   6.374   8.331  0.0747 -0.0428 -0.6158
20205SOL    HW167473   3.776   6.441   8.322  0.3756  0.2558 -0.6701
20205SOL    HW267474   3.866   6.349   8.241 -0.6455 -0.8423 -0.5888
20206SOL     OW67475   3.849  12.081   9.521  0.6609 -0.0076  0.2183
20206SOL    HW167476   3.779  12.040   9.571  1.1273 -0.2436  0.6962
20206SOL    HW267477   3.912  12.109   9.588  2.5353 -2.5732 -0.3195
20207SOL     OW67478  12.225   4.580   7.485 -0.3143  0.1010  0.0411
20207SOL    HW167479  12.207   4.522   7.559  1.4436 -0.7887 -0.1805
20207SOL    HW267480  12.164   4.653   7.496 -1.7673 -1.2003  0.9984
20208SOL     OW67481   7.315   7.934   2.796  0.1082 -0.5590 -0.3351
20208SOL    HW167482   7.274   7.984   2.866  0.3431  1.2372 -1.4090
20208SOL    HW267483   7.242   7.901   2.744 -0.0444 -0.7693  0.0151
20209SOL     OW67484   9.376   7.871  11.631  0.3381 -0.2058 -0.3769
20209SOL    HW167485   9.417   7.831  11.554  2.2362  1.1032 -0.1243
20209SOL    HW267486   9.416   7.827  11.706 -0.8432 -0.8599 -0.1116
20210SOL     OW67487   2.899   3.681   9.963  0.4953  0.5695 -0.2168
20210SOL    HW167488   2.898   3.594   9.924 -0.4869 -0.1768  1.3988
20210SOL    HW267489   2.906   3.740   9.888 -0.5700 -0.8243 -1.4653
20211SOL     OW67490   9.952   6.808  11.088  0.1779 -0.2401 -0.4183
20211SOL    HW167491   9.883   6.795  11.153  0.5224 -1.1436 -0.2196
20211SOL    HW267492   9.915   6.870  11.026 -0.6404 -0.3621 -0.0614
20212SOL     OW67493   5.905   8.447  10.644  0.2121  0.9122  0.2486
20212SOL    HW167494   5.830   8.415  10.693  0.1099  0.4454 -0.1984
20212SOL    HW267495   5.922   8.378  10.580  1.3762  0.7552  0.7117
20213SOL     OW67496   4.030   3.943   1.182 -0.0674 -0.0797 -0.0664
20213SOL    HW167497   4.069   3.957   1.096  2.3569 -2.0082  0.5843
20213SOL    HW267498   3.936   3.944   1.167  0.1203  3.3876 -2.0156
20214SOL     OW67499   6.977   4.137  12.183 -0.0651 -0.4367 -0.0114
20214SOL    HW167500   6.891   4.166  12.151  0.4191  0.3356 -0.6473
20214SOL    HW267501   7.030   4.126  12.104  1.1178  1.3960  0.4523
20215SOL     OW67502   3.767  12.315   0.129  0.2254  0.4695  0.6683
20215SOL    HW167503   3.779  12.221   0.120 -0.4592  0.4829 -0.5146
20215SOL    HW267504   3.709  12.324   0.205 -1.1041 -0.1849 -0.2183
20216SOL     OW67505   2.131   5.224   7.238  0.5569 -0.3512  0.1819
20216SOL    HW167506   2.206   5.187   7.284 -0.7336 -4.3223 -0.5554
20216SOL    HW267507   2.064   5.156   7.242 -1.2060  0.8788 -3.6589
20217SOL     OW67508  10.328  10.423   1.394  0.0370 -0.6899  0.5665
20217SOL    HW167509  10.283  10.351   1.348  1.0529 -0.4008 -0.9228
20217SOL    HW267510  10.262  10.493   1.399 -0.7858 -1.4856  1.5526
20218SOL     OW67511   9.578   6.079   3.341 -0.3526  0.1729 -0.2219
20218SOL    HW167512   9.582   5.989   3.308 -0.5552  0.2462 -0.4471
20218SOL    HW267513   9.490   6.110   3.317 -1.2852 -0.4344  2.0609
20219SOL     OW67514  10.364   3.604   1.967  0.3620  0.0239  0.4150
20219SOL    HW167515  10.421   3.529   1.947  1.7406  1.1563 -0.0123
20219SOL    HW267516  10.315   3.618   1.886 -0.6102 -0.9965  0.8050
20220SOL     OW67517   2.500   6.430  10.192 -0.2493  0.0451 -0.0202
20220SOL    HW167518   2.556   6.394  10.123  1.5429 -0.5383  1.6430
20220SOL    HW267519   2.414   6.438  10.151  0.7039 -0.3382 -2.2858
20221SOL     OW67520   6.477   1.707   6.602  0.2651  0.5491  0.4992
20221SOL    HW167521   6.563   1.669   6.618  0.3773  0.8265  0.5508
20221SOL    HW267522   6.423   1.676   6.675 -0.1356 -1.0118 -0.4105
20222SOL     OW67523   9.577   0.333  10.693 -0.1869  0.1813  0.0064
20222SOL    HW167524   9.492   0.291  10.708 -0.3868 -0.0917 -1.6433
20222SOL    HW267525   9.596   0.378  10.775 -1.8785  0.1572  0.4620
20223SOL     OW67526   6.974   1.954   0.977 -0.2798  0.0637 -0.0565
20223SOL    HW167527   7.014   2.037   1.005 -0.3710  0.2190 -0.3727
20223SOL    HW267528   6.965   1.903   1.057  1.6082 -0.4366 -0.0969
20224SOL     OW67529   0.511  10.169   3.397  0.0344 -0.1681 -0.4451
20224SOL    HW167530   0.527  10.075   3.404 -2.2169 -0.5479  0.4603
20224SOL    HW267531   0.432  10.175   3.343 -0.6554  1.1061  0.6712
20225SOL     OW67532   3.379   7.458   3.759  0.6719  0.7296  0.0106
20225SOL    HW167533   3.441   7.396   3.799  0.7351 -0.2451 -1.5276
20225SOL    HW267534   3.435   7.521   3.713  0.6560  2.5897  2.3513
20226SOL     OW67535   9.403   0.522   8.053 -0.4886  0.2611  0.5186
20226SOL    HW167536   9.383   0.587   8.120  0.9659  1.4300 -0.1305
20226SOL    HW267537   9.341   0.539   7.982  1.5666  2.8289 -0.8228
20227SOL     OW67538   7.510   6.263   4.535  0.1915 -0.6105 -0.1946
20227SOL    HW167539   7.485   6.295   4.621 -2.1899  1.5070 -1.5447
20227SOL    HW267540   7.439   6.205   4.509 -0.0621  0.1899 -1.4027
20228SOL     OW67541   2.267   5.077   6.959  0.5527 -0.1510  0.6466
20228SOL    HW167542   2.301   5.135   6.891  0.7269 -0.9027  0.0733
20228SOL    HW267543   2.196   5.126   6.999 -0.2253 -0.0840 -0.7642
20229SOL     OW67544   9.478  11.313  11.629 -0.2885  0.0593  0.2038
20229SOL    HW167545   9.533  11.387  11.606 -1.7792  1.2424  0.3130
20229SOL    HW267546   9.488  11.304  11.724 -1.7177  1.5313  0.5415
20230SOL     OW67547   5.165  10.926  12.205  0.0017  0.0493  0.3936
20230SOL    HW167548   5.110  10.859  12.165  0.4991 -0.0371 -0.1583
20230SOL    HW267549   5.253  10.910  12.169 -0.0609  1.5924 -0.5062
20231SOL     OW67550  12.321   4.480   3.324  0.0400  0.4894  0.3549
20231SOL    HW167551  12.234   4.466   3.286  0.4491  0.5800 -0.6429
20231SOL    HW267552  12.348   4.392   3.353  0.7508 -0.1130 -1.8830
20232SOL     OW67553   8.194   4.090   5.323 -0.8749 -0.2087  0.0140
20232SOL    HW167554   8.231   4.005   5.299 -2.3873 -0.4747 -1.5807
20232SOL    HW267555   8.210   4.098   5.417  1.1634 -1.2822 -0.1898
20233SOL     OW67556   4.526  11.236   7.638  0.1212 -0.9657  0.2314
20233SOL    HW167557   4.608  11.207   7.677  0.8624 -0.4390 -0.8853
20233SOL    HW267558   4.536  11.218   7.544  1.0438  3.4758 -0.7807
20234SOL     OW67559  10.531   4.464   2.024 -0.0106 -0.1527  0.7344
20234SOL    HW167560  10.496   4.512   2.099 -0.1784  0.4557  0.2732
20234SOL    HW267561  10.588   4.398   2.063  1.2356  1.2195  1.3508
20235SOL     OW67562   5.426   8.177   3.546  0.1868 -0.2123  0.1163
20235SOL    HW167563   5.458   8.260   3.510  0.8591 -1.5703 -2.7273
20235SOL    HW267564   5.491   8.154   3.612  0.3829  1.1450  0.4426
20236SOL     OW67565   5.151   4.702   8.103 -0.7538  0.2392  0.3118
20236SOL    HW167566   5.098   4.782   8.104  1.5487  1.8619  1.3558
20236SOL    HW267567   5.163   4.680   8.195 -1.6270 -1.5647  0.0291
20237SOL     OW67568   8.934   5.892   4.036  0.0596 -0.1654  0.1149
20237SOL    HW167569   8.881   5.965   4.068  0.2489 -0.2030  0.5178
20237SOL    HW267570   9.006   5.934   3.987 -2.1531 -0.1393 -3.4647
20238SOL     OW67571   1.227   2.606  10.371 -0.1453 -0.5660 -0.4243
20238SOL    HW167572   1.188   2.597  10.457 -0.5265 -3.1037 -0.7893
20238SOL    HW267573   1.269   2.692  10.373 -1.1183 -0.0644  1.8546
20239SOL     OW67574   0.983   2.879   5.307  0.1500  0.0812 -0.1440
20239SOL    HW167575   1.044   2.941   5.266  0.6814 -0.7764 -0.6874
20239SOL    HW267576   1.038   2.827   5.366 -0.6136  1.3422  1.7650
20240SOL     OW67577   9.723   2.680   9.727 -0.1908  0.8469  0.1099
20240SOL    HW167578   9.679   2.738   9.789 -0.8394  1.1899 -0.6459
20240SOL    HW267579   9.802   2.652   9.772 -0.2118  1.7738  0.7591
20241SOL     OW67580  10.106   3.028   1.561  0.6266  0.6099 -0.8632
20241SOL    HW167581  10.058   3.091   1.614 -0.0246 -0.0456 -0.6558
20241SOL    HW267582  10.185   3.008   1.612 -0.6434 -1.0471  0.5647
20242SOL     OW67583  10.179   4.116  12.481  0.3953  0.2886  0.3382
20242SOL    HW167584  10.208   4.204  12.453  1.2712 -0.0311  0.2071
20242SOL    HW267585  10.255   4.080  12.526  0.3992 -0.7959 -0.5049
20243SOL     OW67586  11.131  10.721   0.458  0.8399 -0.5464  0.3737
20243SOL    HW167587  11.113  10.635   0.419 -0.5359 -0.9451  1.8162
20243SOL    HW267588  11.201  10.757   0.404 -0.2118 -1.5389 -1.7672
20244SOL     OW67589  11.545   3.822  11.729  0.1541 -0.0119  0.2669
20244SOL    HW167590  11.471   3.850  11.676  2.0779 -2.1531 -4.0653
20244SOL    HW267591  11.603   3.898  11.732  0.6263 -0.2146 -2.1039
20245SOL     OW67592   8.963   5.788   5.705  0.0526 -0.2235  0.1968
20245SOL    HW167593   8.868   5.794   5.716  0.1008  1.0400  0.0378
20245SOL    HW267594   8.985   5.858   5.643  1.3137  0.8296  1.7494
20246SOL     OW67595   7.079   1.263   7.030  0.3042  0.1523  0.1359
20246SOL    HW167596   7.091   1.313   7.110 -1.1206  0.9660 -0.1216
20246SOL    HW267597   7.130   1.311   6.964  1.2608 -0.3696  0.4731
20247SOL     OW67598  10.942   2.540   7.642 -0.5956  0.5378  0.5648
20247SOL    HW167599  10.850   2.535   7.669 -0.8974 -2.5306 -0.6225
20247SOL    HW267600  10.939   2.574   7.553 -0.6784 -0.3907  0.2080
20248SOL     OW67601   5.189  10.858   3.921  0.3731 -0.1513  0.2766
20248SOL    HW167602   5.236  10.907   3.853 -0.0882  1.0202  0.7794
20248SOL    HW267603   5.097  10.881   3.908  0.1210 -1.0538  0.4050
20249SOL     OW67604   9.621  12.205  11.717  0.0882  0.0742  0.4316
20249SOL    HW167605   9.624  12.295  11.685 -2.6770  0.2282  0.3519
20249SOL    HW267606   9.686  12.159  11.665  0.1528  1.6298 -0.9402
20250SOL     OW67607   2.735  12.439   4.325  0.4498  0.0523 -0.0645
20250SOL    HW167608   2.655  12.489   4.345  1.3244  1.4648  0.0684
20250SOL    HW267609   2.730  12.422   4.231 -1.0662 -1.8711  0.3013
20251SOL     OW67610   2.532   7.052   0.356  0.1719  0.2371 -0.2542
20251SOL    HW167611   2.499   7.115   0.292  0.8684 -1.2104 -2.1545
20251SOL    HW267612   2.521   6.967   0.313  2.4033 -0.6443  0.7684
20252SOL     OW67613   1.702   9.094   9.055 -0.2075 -0.3359 -0.6943
20252SOL    HW167614   1.612   9.065   9.073 -0.1369 -1.2530 -1.7062
20252SOL    HW267615   1.741   9.107   9.142 -1.8197  1.8087 -0.2046
20253SOL     OW67616   1.867   3.112   7.849 -0.1589  0.3783  0.2978
20253SOL    HW167617   1.919   3.178   7.896  0.3510  1.6009 -1.8522
20253SOL    HW267618   1.804   3.163   7.799 -0.4276 -0.8407 -0.6458
20254SOL     OW67619   1.453   6.619  10.407 -0.4602  0.0133 -0.3321
20254SOL    HW167620   1.399   6.541  10.389 -0.1248 -0.1744 -0.5397
20254SOL    HW267621   1.506   6.629  10.328  2.6384 -2.1091  1.2555
20255SOL     OW67622   9.910   9.258   7.542 -0.2876  0.3390  0.1120
20255SOL    HW167623   9.930   9.352   7.544 -0.9479  0.4768  0.3440
20255SOL    HW267624   9.904   9.237   7.448  0.0360  0.4875  0.0564
20256SOL     OW67625   2.376   7.089   3.705  0.3383 -0.2103 -0.1232
20256SOL    HW167626   2.456   7.141   3.716  0.2167 -0.0439 -0.0078
20256SOL    HW267627   2.399   7.021   3.642  0.5729 -0.1677 -0.0821
20257SOL     OW67628  11.107   9.556   7.127  0.1307 -0.3181  0.1914
20257SOL    HW167629  11.106   9.615   7.052 -0.4367  0.7662  1.0269
20257SOL    HW267630  11.033   9.583   7.181  1.6051  0.2132  2.0879
20258SOL     OW67631  10.926   5.563   3.414  0.7137 -0.2221 -0.1664
20258SOL    HW167632  10.895   5.557   3.323  3.5198 -0.1212 -1.2147
20258SOL    HW267633  10.938   5.657   3.428  1.1223 -0.2948 -0.0192
20259SOL     OW67634   7.695  12.105   4.318  0.2471  0.2135 -0.2122
20259SOL    HW167635   7.681  12.115   4.224  0.8723  0.7978 -0.2546
20259SOL    HW267636   7.610  12.126   4.358  0.1516  0.6119 -0.6157
20260SOL     OW67637   0.112   5.137   3.432 -0.0133 -0.0665  0.3032
20260SOL    HW167638   0.116   5.053   3.386  0.5230 -0.1049  0.4132
20260SOL    HW267639   0.198   5.176   3.418  1.3425 -1.4443  3.8265
20261SOL     OW67640   7.911   2.208   9.502  0.2976  0.1515  0.1449
20261SOL    HW167641   7.955   2.200   9.586 -0.9083 -0.2712  0.7513
20261SOL    HW267642   7.829   2.162   9.513  0.2046 -0.0816 -1.3394
20262SOL     OW67643   5.747   6.837   7.413 -0.1419  0.5219  0.5142
20262SOL    HW167644   5.735   6.930   7.432 -2.5372  0.2477  0.6218
20262SOL    HW267645   5.750   6.833   7.317  1.0998  0.7831  0.5197
20263SOL     OW67646  11.473   9.204   8.219  0.0362  0.1716 -0.5881
20263SOL    HW167647  11.463   9.145   8.145 -1.9254 -0.0350 -0.1931
20263SOL    HW267648  11.456   9.150   8.296 -1.2839  1.0942 -0.1915
20264SOL     OW67649   4.862   6.613   0.336 -0.5380  0.8700 -0.0799
20264SOL    HW167650   4.832   6.703   0.322 -1.5275  1.0240  2.4788
20264SOL    HW267651   4.943   6.623   0.387  0.9548  0.3125 -2.2173
20265SOL     OW67652  10.451   5.438   0.378 -0.1401  0.1137 -0.2019
20265SOL    HW167653  10.528   5.385   0.396 -0.0810  0.3350  0.2060
20265SOL    HW267654  10.479   5.528   0.392 -0.2506  0.2526 -0.8509
20266SOL     OW67655   8.201   9.963   8.977 -0.3364  0.4051 -0.0604
20266SOL    HW167656   8.138   9.892   8.962  0.1548 -0.1590  0.5331
20266SOL    HW267657   8.151  10.043   8.957 -0.4406 -0.1569 -2.2624
20267SOL     OW67658   6.174  10.145   9.293 -0.6529  0.3112  0.3548
20267SOL    HW167659   6.227  10.217   9.325 -0.8123  0.2695  0.7239
20267SOL    HW267660   6.170  10.083   9.366 -0.0043 -0.3641 -0.1642
20268SOL     OW67661   1.181   4.644   6.120  0.3755 -0.7098 -0.4577
20268SOL    HW167662   1.276   4.644   6.132  0.5790 -0.0098 -1.9147
20268SOL    HW267663   1.150   4.719   6.171  0.5484 -1.0915  0.2323
20269SOL     OW67664   1.452   3.304   7.579  0.7013  0.0872  0.3299
20269SOL    HW167665   1.452   3.391   7.540  0.3503 -0.8124 -1.8626
20269SOL    HW267666   1.362   3.274   7.570  1.1417 -1.0904 -0.5030
20270SOL     OW67667   2.732   9.443   6.556  0.2696 -0.0717  1.0247
20270SOL    HW167668   2.685   9.486   6.628  0.1064  1.0378  0.2895
20270SOL    HW267669   2.720   9.350   6.571 -2.0636  0.1601  0.9736
20271SOL     OW67670   5.396  10.329   8.083 -0.1419 -0.1763  0.6724
20271SOL    HW167671   5.373  10.422   8.094 -1.6894 -0.7076  2.5347
20271SOL    HW267672   5.456  10.328   8.008 -0.9116  2.1952 -0.0853
20272SOL     OW67673  11.198  12.129   0.913  0.7440 -0.7132 -0.1123
20272SOL    HW167674  11.162  12.044   0.938 -0.3757  0.2572  1.7679
20272SOL    HW267675  11.164  12.144   0.825 -0.4282 -1.4740  0.1890
20273SOL     OW67676  11.450  11.204  12.222  0.2431  0.3344 -0.0197
20273SOL    HW167677  11.476  11.223  12.132  0.2593  0.0806 -0.0696
20273SOL    HW267678  11.356  11.186  12.217  0.6027 -1.8314 -0.3542
20274SOL     OW67679  12.209   5.319   8.802  0.1986 -0.4130  0.1644
20274SOL    HW167680  12.154   5.379   8.751 -1.1752 -1.0254  0.8797
20274SOL    HW267681  12.253   5.375   8.866 -0.5217 -0.0747  0.3694
20275SOL     OW67682   8.577   5.736  10.261  0.5275  0.1144 -0.6699
20275SOL    HW167683   8.502   5.746  10.320  0.7160 -0.2654 -0.3626
20275SOL    HW267684   8.601   5.826  10.237  0.2333  0.2551 -0.4420
20276SOL     OW67685   4.119   4.667   6.971  0.4040  0.8860  0.1356
20276SOL    HW167686   4.200   4.686   7.017 -0.3382 -0.9579  2.4182
20276SOL    HW267687   4.121   4.572   6.957 -0.3064  1.1264 -1.9673
20277SOL     OW67688   6.081   0.706  11.307  0.3069 -0.0248 -0.1434
20277SOL    HW167689   6.172   0.716  11.280  0.2609  0.5206 -0.1063
20277SOL    HW267690   6.057   0.790  11.345 -0.4768  0.1413 -0.9559
20278SOL     OW67691   1.350   3.280   0.162 -0.5300  0.5445 -0.5594
20278SOL    HW167692   1.389   3.226   0.230  0.0389  0.9594 -0.5478
20278SOL    HW267693   1.270   3.233   0.137  0.0108 -0.3635 -0.6353
20279SOL     OW67694   2.916   9.100   0.942  0.1791 -0.4294  0.5836
20279SOL    HW167695   2.874   9.024   0.900 -0.7860 -1.2346  2.8680
20279SOL    HW267696   2.992   9.063   0.987  0.9839  0.3603 -0.0837
20280SOL     OW67697   0.946   9.164   9.672 -0.1029 -0.6544  0.3434
20280SOL    HW167698   0.867   9.176   9.724 -0.1876  0.9612 -0.0947
20280SOL    HW267699   0.993   9.093   9.715  0.2500  1.1441  3.1628
20281SOL     OW67700  11.336  11.695  12.517  0.2157 -0.1018 -0.1854
20281SOL    HW167701  11.300  11.763  12.461 -1.6602 -0.0193  1.0522
20281SOL    HW267702  11.411  11.736  12.560  0.9080  0.2180 -1.6282
20282SOL     OW67703   7.739   7.852   0.918 -0.0774 -0.3183  0.0475
20282SOL    HW167704   7.644   7.842   0.910  0.0122  0.3484 -3.3035
20282SOL    HW267705   7.751   7.921   0.983 -1.9221  0.1784 -0.0942
20283SOL     OW67706  11.897   3.419   9.141 -0.2800 -0.3428 -0.4371
20283SOL    HW167707  11.866   3.506   9.163 -0.3942 -0.0639 -1.6087
20283SOL    HW267708  11.993   3.427   9.138 -0.2245 -0.5664  0.6614
20284SOL     OW67709   1.073   1.037   9.205 -0.6401  0.0690 -0.1372
20284SOL    HW167710   1.021   0.976   9.256  0.2458 -0.1635  0.5256
20284SOL    HW267711   1.080   1.115   9.260 -2.6035  1.2164 -1.3845
20285SOL     OW67712   8.546   3.489   5.780 -0.1687 -0.3460 -0.8327
20285SOL    HW167713   8.621   3.495   5.721  0.7597 -0.9179  0.2611
20285SOL    HW267714   8.562   3.555   5.847  0.0047 -1.2990  0.0958
20286SOL     OW67715   4.424   7.629   6.395  0.3653  0.3899  0.0248
20286SOL    HW167716   4.499   7.685   6.378 -0.6002  1.2896 -1.5090
20286SOL    HW267717   4.349   7.678   6.361 -1.0803 -0.0308  2.4175
20287SOL     OW67718   0.617   8.271   2.707  0.3931  0.2384 -0.1333
20287SOL    HW167719   0.676   8.339   2.740  1.4532 -0.4443 -0.5742
20287SOL    HW267720   0.556   8.318   2.650  0.7243  0.9018  0.0419
20288SOL     OW67721   8.571   6.667   5.543 -0.0679  0.1881  0.0463
20288SOL    HW167722   8.621   6.704   5.470  1.3941 -0.6630  0.5807
20288SOL    HW267723   8.571   6.736   5.609  2.8486 -0.7108  1.1342
20289SOL     OW67724   6.265   7.090   7.987  0.2352  0.4555  0.1948
20289SOL    HW167725   6.238   7.124   7.902  0.4962  2.3468  0.8308
20289SOL    HW267726   6.236   7.155   8.050 -0.1288 -1.0015  1.6101
20290SOL     OW67727  12.027   3.963  10.005  0.2927 -0.1291 -0.0199
20290SOL    HW167728  12.086   3.948   9.930 -0.1566  0.8926 -0.5971
20290SOL    HW267729  11.943   3.984   9.965 -0.1157 -0.1749  0.7954
20291SOL     OW67730   2.331   9.828   7.383 -0.7215  0.7139  0.5461
20291SOL    HW167731   2.258   9.769   7.364 -1.1812  1.5298 -0.2695
20291SOL    HW267732   2.365   9.797   7.468  0.5909 -2.2378 -0.8884
20292SOL     OW67733   8.386   0.914  11.541  0.0374 -0.5781 -0.7468
20292SOL    HW167734   8.430   0.863  11.473  0.8086 -0.3742 -0.3975
20292SOL    HW267735   8.325   0.852  11.581 -0.9598 -0.5242 -2.0893
20293SOL     OW67736  11.688   7.359  11.923  0.2316  0.3892  0.9141
20293SOL    HW167737  11.655   7.287  11.976 -1.8084  0.1417 -0.5671
20293SOL    HW267738  11.712   7.319  11.840 -0.7152  1.3492  0.1521
20294SOL     OW67739   3.056   1.608   0.301  0.2212 -0.9112 -0.1414
20294SOL    HW167740   3.121   1.576   0.238  0.2449  0.3826 -0.8116
20294SOL    HW267741   3.104   1.616   0.383  0.1644 -2.7212  0.0968
20295SOL     OW67742   4.695   2.674   3.936  0.1828 -0.0790 -0.0234
20295SOL    HW167743   4.774   2.628   3.967 -0.6641 -2.1674 -0.7590
20295SOL    HW267744   4.634   2.603   3.915 -1.8975  1.4961  0.5107
20296SOL     OW67745  11.453   3.822   1.305 -0.6502  0.5248 -0.1637
20296SOL    HW167746  11.429   3.862   1.389 -0.2765  1.4600 -0.4935
20296SOL    HW267747  11.396   3.745   1.298  0.0167 -0.1411  1.4114
20297SOL     OW67748   6.800   2.397   8.420  0.2769 -0.5755  0.5430
20297SOL    HW167749   6.717   2.395   8.468 -0.3836 -0.9016 -0.5682
20297SOL    HW267750   6.837   2.483   8.439 -1.1299  0.2487 -0.2495
20298SOL     OW67751   8.768  10.337   3.589 -0.7566 -0.4443  0.2421
20298SOL    HW167752   8.858  10.308   3.604 -0.3696  0.4369 -0.2901
20298SOL    HW267753   8.775  10.400   3.517 -2.0638 -1.8839 -1.2285
20299SOL     OW67754   7.984   2.439   4.032 -0.2795 -0.1588 -0.1282
20299SOL    HW167755   7.918   2.432   4.101 -2.1782 -0.0941 -1.8415
20299SOL    HW267756   8.011   2.348   4.015 -2.6341 -0.6480 -1.8015
20300SOL     OW67757   2.949   8.669   5.832 -0.1106 -0.2086  0.2094
20300SOL    HW167758   2.977   8.756   5.805 -1.0528 -0.4886 -1.8677
20300SOL    HW267759   2.858   8.680   5.858 -0.3760 -0.6372 -0.5096
20301SOL     OW67760  12.418   0.666   3.700  0.3695 -0.1987 -0.0483
20301SOL    HW167761  12.397   0.680   3.608  1.7082  2.3283 -0.0434
20301SOL    HW267762  12.508   0.634   3.700  0.5459  0.2865  0.4013
20302SOL     OW67763   2.172  11.157   3.978 -0.1325  0.0349  0.1688
20302SOL    HW167764   2.163  11.189   3.889 -0.1045 -0.2022  0.0788
20302SOL    HW267765   2.151  11.232   4.034  0.2640  0.2979 -0.0347
20303SOL     OW67766   7.081   5.145   7.821  0.4408 -0.2554 -0.2409
20303SOL    HW167767   7.011   5.142   7.886  0.4102 -0.0959 -0.2661
20303SOL    HW267768   7.037   5.130   7.737  0.4056  0.0573 -0.2793
20304SOL     OW67769   5.464   9.340   3.983 -0.5979 -0.1555 -0.3436
20304SOL    HW167770   5.388   9.323   3.928 -1.0693 -0.1573  0.2920
20304SOL    HW267771   5.480   9.257   4.028 -0.2658 -0.1339 -0.4246
20305SOL     OW67772   5.260   8.985   4.601 -0.2825  0.4066  0.1374
20305SOL    HW167773   5.325   8.925   4.640 -0.9249 -0.1200  0.4281
20305SOL    HW267774   5.254   9.056   4.664 -0.5243  0.0905  0.4783
20306SOL     OW67775   2.710   8.670   5.615 -0.3747  0.0797  0.3453
20306SOL    HW167776   2.623   8.687   5.580  0.6881  2.0868 -1.6279
20306SOL    HW267777   2.703   8.689   5.708 -1.5128  2.8326 -0.2008
20307SOL     OW67778   1.681   8.760   2.473  0.9742  0.7861 -0.1324
20307SOL    HW167779   1.666   8.836   2.529  1.6204  0.9344 -0.1543
20307SOL    HW267780   1.716   8.693   2.532  2.2687  1.1492 -0.4498
20308SOL     OW67781  11.350   4.040  11.721  0.1147 -0.3390  0.2123
20308SOL    HW167782  11.269   4.088  11.706  0.0721 -0.6386 -0.5447
20308SOL    HW267783  11.413   4.106  11.747  0.5830  0.4679 -2.6698
20309SOL     OW67784   4.894   4.017   2.244  0.1530 -0.4685  0.3284
20309SOL    HW167785   4.834   3.950   2.275 -1.5467  0.8729  0.0880
20309SOL    HW267786   4.884   4.089   2.307 -1.2683  1.2052 -1.6609
20310SOL     OW67787  10.623   9.360   1.481 -0.0612 -0.1891  0.3915
20310SOL    HW167788  10.598   9.337   1.392  1.5810  2.7438 -0.9712
20310SOL    HW267789  10.545   9.401   1.519  0.1144  1.4668 -0.9198
20311SOL     OW67790   4.490  10.463   2.306  0.3723  0.2553  0.3342
20311SOL    HW167791   4.516  10.554   2.317 -0.3845  0.5481 -0.2329
20311SOL    HW267792   4.559  10.425   2.252  1.5486  0.0567  1.9271
20312SOL     OW67793   8.510   4.904  12.480  0.2339  0.2851  0.1037
20312SOL    HW167794   8.463   4.862  12.409  1.4561 -1.0327  0.0230
20312SOL    HW267795   8.445   4.961  12.522 -0.0420  2.7967 -3.3001
20313SOL     OW67796  10.112  10.335   7.745  0.0384 -0.0588  0.4521
20313SOL    HW167797  10.056  10.299   7.814 -0.6563 -1.3097 -0.7226
20313SOL    HW267798  10.051  10.374   7.682  0.5816 -0.1967 -0.1649
20314SOL     OW67799   2.567   3.336   5.099 -0.4799  0.1105  0.5721
20314SOL    HW167800   2.644   3.333   5.155 -0.0366  0.1777 -0.0349
20314SOL    HW267801   2.531   3.247   5.103  0.1249 -0.1588  0.1688
20315SOL     OW67802  10.421   9.333   0.271  0.3128 -0.1330 -0.3032
20315SOL    HW167803  10.492   9.286   0.227  0.6418  0.3724 -0.3342
20315SOL    HW267804  10.399   9.279   0.347  1.2786  0.0842  0.1504
20316SOL     OW67805   4.933  10.158   9.127  0.3879  0.8662 -0.1862
20316SOL    HW167806   4.838  10.145   9.123  0.5897 -0.5245 -1.2806
20316SOL    HW267807   4.943  10.245   9.166 -1.2864  0.5203  1.1409
20317SOL     OW67808   4.239  10.933   0.532  0.2018 -0.4746 -0.8860
20317SOL    HW167809   4.298  10.972   0.597 -0.6527  1.4266 -1.2183
20317SOL    HW267810   4.228  10.842   0.562  2.3142 -0.5483 -0.1557
20318SOL     OW67811   5.047   2.718   6.153  0.1532 -0.1419  0.2426
20318SOL    HW167812   5.104   2.791   6.129 -3.6924  2.6155 -1.3450
20318SOL    HW267813   5.057   2.710   6.248  1.7491  1.4605  0.2660
20319SOL     OW67814   4.372  12.064   1.464  0.4642  0.2677  0.0494
20319SOL    HW167815   4.394  12.064   1.557  1.4308 -0.4477 -0.1559
20319SOL    HW267816   4.386  12.154   1.435  3.2765 -0.1115 -0.0552
20320SOL     OW67817  10.205   5.570   4.278  0.5909  0.3760 -0.3190
20320SOL    HW167818  10.145   5.566   4.353 -1.6244  2.5431 -1.8173
20320SOL    HW267819  10.270   5.635   4.303  0.6617  0.1013  0.2287
20321SOL     OW67820   2.833  12.431   1.570  0.2142 -0.2214 -0.4208
20321SOL    HW167821   2.924  12.420   1.543  0.8104  0.2838  1.2831
20321SOL    HW267822   2.837  12.488   1.647 -1.5383 -0.2477 -0.2705
20322SOL     OW67823  10.140   7.925  11.327 -0.7950 -0.2930 -0.1981
20322SOL    HW167824  10.217   7.979  11.309 -0.5270 -1.3126 -2.6278
20322SOL    HW267825  10.066   7.981  11.306 -0.5691 -0.3158 -1.1133
20323SOL     OW67826   5.848  12.070   9.175 -0.2250 -0.4169  0.1215
20323SOL    HW167827   5.774  12.015   9.149 -0.0373 -0.3307 -0.6083
20323SOL    HW267828   5.919  12.042   9.118 -0.0230  0.3226  0.0094
20324SOL     OW67829   6.219   2.485   2.112 -0.1768 -0.3619  0.0278
20324SOL    HW167830   6.263   2.406   2.145 -0.5610 -0.9079 -0.7202
20324SOL    HW267831   6.275   2.557   2.140  0.3490 -0.9222  0.4626
20325SOL     OW67832   2.836   3.121   3.615  0.1397  0.3743  0.0296
20325SOL    HW167833   2.911   3.063   3.632 -0.5839 -0.6004 -0.0265
20325SOL    HW267834   2.875   3.199   3.576  1.0265 -0.5888 -1.1098
20326SOL     OW67835   2.301   2.061  11.581  0.0906 -0.2645 -0.1484
20326SOL    HW167836   2.361   2.132  11.560 -0.8705  0.9288  0.9123
20326SOL    HW267837   2.310   2.049  11.676 -0.5726 -0.7667 -0.1388
20327SOL     OW67838   0.761   9.064   9.251  0.0930 -0.1825 -0.1042
20327SOL    HW167839   0.778   8.970   9.248 -0.3447 -0.2624 -0.1752
20327SOL    HW267840   0.677   9.074   9.205 -0.8937 -0.0071  1.6728
20328SOL     OW67841   4.254   9.495  10.184  0.4215 -0.9316  0.1155
20328SOL    HW167842   4.288   9.422  10.234 -0.5997 -1.7060 -0.2808
20328SOL    HW267843   4.298   9.489  10.099 -1.0487 -2.2864 -0.6079
20329SOL     OW67844   0.348   8.412   3.894  0.3255  0.0564 -0.0231
20329SOL    HW167845   0.337   8.358   3.816  1.6825  0.7414 -0.7222
20329SOL    HW267846   0.441   8.434   3.895  0.1988  0.6299  1.4184
20330SOL     OW67847   7.221   9.347   0.897 -0.4186 -0.1406 -0.2192
20330SOL    HW167848   7.200   9.260   0.932  0.7685 -0.2537  0.2331
20330SOL    HW267849   7.305   9.336   0.853  0.0909  0.9366  0.4579
20331SOL     OW67850   5.278   1.672  12.041  0.7247 -0.2942 -0.6479
20331SOL    HW167851   5.187   1.657  12.065  1.4614 -1.8395  1.5692
20331SOL    HW267852   5.299   1.756  12.081  0.8254 -0.9827  0.8349
20332SOL     OW67853   2.981   4.039   6.783  0.6055 -0.2759 -0.1732
20332SOL    HW167854   2.904   3.983   6.793 -0.1149  0.4176 -1.5104
20332SOL    HW267855   3.049   3.982   6.747  0.3871 -0.6538  0.0128
20333SOL     OW67856   5.060   0.008   4.437  0.1441 -0.0164 -0.1372
20333SOL    HW167857   5.056   0.081   4.374 -0.1837 -0.5416 -0.7393
20333SOL    HW267858   5.008  -0.061   4.396 -1.8445  0.3240  1.6447
20334SOL     OW67859   1.980  10.246   1.408 -0.1896 -0.4658  0.5402
20334SOL    HW167860   2.036  10.320   1.434 -1.2666  1.7185 -2.7078
20334SOL    HW267861   2.026  10.169   1.441  1.9853  1.4898  2.5139
20335SOL     OW67862   7.295   2.255   3.479  0.5893  0.5508 -0.5114
20335SOL    HW167863   7.269   2.330   3.426 -1.6730  0.6431  0.6122
20335SOL    HW267864   7.389   2.268   3.494  0.9424  1.4207 -2.9814
20336SOL     OW67865   5.392   1.770   4.244  0.4769 -0.2022 -0.1431
20336SOL    HW167866   5.395   1.697   4.306  1.4749 -0.0094  0.0478
20336SOL    HW267867   5.363   1.730   4.162 -0.3414 -0.5542  0.3019
20337SOL     OW67868   3.121   5.886   6.045 -0.0980  0.1878 -0.1491
20337SOL    HW167869   3.108   5.879   5.950  1.0410  4.3612 -0.8157
20337SOL    HW267870   3.215   5.881   6.057 -0.3271 -2.5739  1.1727
20338SOL     OW67871  11.625   1.382   9.549 -0.3237 -0.3892  0.5316
20338SOL    HW167872  11.566   1.396   9.623  0.2601  0.3623  0.8644
20338SOL    HW267873  11.710   1.414   9.579 -0.1565  0.2629 -0.5831
20339SOL     OW67874  10.136   5.701   0.986  0.0065 -0.1391 -0.0727
20339SOL    HW167875  10.109   5.692   1.077  0.6832  0.9977  0.2599
20339SOL    HW267876  10.222   5.742   0.991  0.8239 -1.6222 -1.1716
20340SOL     OW67877   8.153   6.987   8.654  0.0591  0.2913  0.0758
20340SOL    HW167878   8.148   7.073   8.612 -0.1368  0.8235  1.1713
20340SOL    HW267879   8.245   6.978   8.679 -0.0695  0.5089  0.6308
20341SOL     OW67880   9.232  11.947  11.063 -0.0669 -0.4338  0.5114
20341SOL    HW167881   9.189  12.008  11.122 -0.2729 -2.1567  2.2223
20341SOL    HW267882   9.326  11.962  11.077 -0.0269  1.4086 -1.2106
20342SOL     OW67883   6.773  11.694   5.648 -0.5097 -0.4381 -0.3604
20342SOL    HW167884   6.785  11.659   5.736 -0.3135 -0.2798 -0.3227
20342SOL    HW267885   6.694  11.748   5.654 -0.7258 -0.7526 -0.3825
20343SOL     OW67886   0.380   2.031   5.889  0.1864 -0.1735 -0.4001
20343SOL    HW167887   0.458   1.986   5.921 -0.2305  0.2746  1.3528
20343SOL    HW267888   0.328   1.962   5.847 -1.9793 -2.3966  4.9542
20344SOL     OW67889   7.990   6.904   9.040 -0.5834  0.6082 -0.2129
20344SOL    HW167890   7.987   6.933   8.949 -2.5234 -1.3786 -0.8764
20344SOL    HW267891   7.928   6.831   9.044  0.7807 -0.5416  2.3086
20345SOL     OW67892  12.236   2.170   8.825 -0.2578  0.2570  0.1205
20345SOL    HW167893  12.255   2.079   8.848 -2.8476 -0.3789 -0.0105
20345SOL    HW267894  12.166   2.196   8.884 -0.4463  1.7472 -0.7099
20346SOL     OW67895   5.013   1.526   6.549 -0.3875  0.0605 -0.1041
20346SOL    HW167896   5.082   1.462   6.565  1.5965  1.2088 -3.2409
20346SOL    HW267897   5.007   1.532   6.454 -3.6750  1.2966  0.0358
20347SOL     OW67898  10.449   8.956  10.938 -0.0030 -0.2856 -0.3746
20347SOL    HW167899  10.518   9.021  10.928 -0.5011  0.6876  1.8983
20347SOL    HW267900  10.381   9.000  10.988 -1.0529 -2.0690 -0.1292
20348SOL     OW67901   1.364   4.381   1.846  0.2859 -0.3402  0.6662
20348SOL    HW167902   1.382   4.434   1.923 -1.6390  1.9705 -0.3472
20348SOL    HW267903   1.395   4.434   1.772  0.9606 -1.9409 -0.2724
20349SOL     OW67904  10.777   4.692   2.953 -0.1532  0.3678  0.0301
20349SOL    HW167905  10.829   4.724   2.879  1.6461  0.0828  1.0949
20349SOL    HW267906  10.693   4.738   2.945  0.8930  2.2857 -0.7548
20350SOL     OW67907   5.022  10.950  11.026 -0.6145  0.0366  0.6269
20350SOL    HW167908   4.934  10.933  11.061 -0.5761  1.0826  1.2517
20350SOL    HW267909   5.013  11.033  10.980 -0.0881 -0.1559  0.1740
20351SOL     OW67910   6.236   0.171   3.867  0.2269  0.3916 -0.0035
20351SOL    HW167911   6.254   0.182   3.960  0.7062  0.3216 -0.0844
20351SOL    HW267912   6.258   0.079   3.849 -0.0625  0.3487 -0.1395
20352SOL     OW67913   5.785   5.508   2.510  0.0672 -0.1653  0.3324
20352SOL    HW167914   5.852   5.474   2.569  0.1492  0.3155  0.5258
20352SOL    HW267915   5.832   5.529   2.430  0.1280  0.0556  0.4248
20353SOL     OW67916   2.676   9.483   4.402  0.3974 -0.0130 -0.4154
20353SOL    HW167917   2.730   9.405   4.415 -0.3925 -0.4283  0.5713
20353SOL    HW267918   2.738   9.553   4.382  1.4514 -0.1782  1.9785
20354SOL     OW67919  12.166   8.628   5.876 -0.0698 -0.1446 -0.4344
20354SOL    HW167920  12.115   8.548   5.871 -0.5227  0.0626  0.4774
20354SOL    HW267921  12.101   8.698   5.875  0.2363  0.1545 -0.0649
20355SOL     OW67922   4.975   4.595   6.166 -0.3307 -0.4103 -0.6514
20355SOL    HW167923   4.962   4.610   6.072  0.3489 -0.1815 -0.7162
20355SOL    HW267924   5.060   4.551   6.172 -0.5687 -0.8160 -0.1710
20356SOL     OW67925   8.186  11.632   4.943 -0.4701  0.5686  0.5452
20356SOL    HW167926   8.185  11.727   4.947  2.4859  0.8439 -1.6996
20356SOL    HW267927   8.224  11.605   5.027 -0.8560  1.3642  0.9869
20357SOL     OW67928  12.390   6.701   1.216  0.5860 -0.3156  0.6140
20357SOL    HW167929  12.453   6.771   1.233  0.0364 -0.0844  1.7748
20357SOL    HW267930  12.312   6.746   1.183  0.4742 -0.4564  0.6845
20358SOL     OW67931   4.053  12.532   2.241 -0.1227  0.3029 -0.1271
20358SOL    HW167932   4.075  12.456   2.294  0.4006  1.0473  0.7539
20358SOL    HW267933   4.018  12.496   2.159  3.4045 -1.0225 -1.2420
20359SOL     OW67934   8.165   6.174   1.692  0.6201  0.7404  0.1632
20359SOL    HW167935   8.120   6.153   1.774  0.2966 -1.8485 -0.5690
20359SOL    HW267936   8.096   6.168   1.625  0.8712  2.8303 -0.3397
20360SOL     OW67937   9.093   3.525   1.773 -0.0884 -0.2655  0.0662
20360SOL    HW167938   9.040   3.546   1.696 -3.6060 -0.1274  2.3159
20360SOL    HW267939   9.130   3.609   1.800 -0.1620 -0.0281 -0.5411
20361SOL     OW67940   0.693  11.701   1.038 -0.4992 -0.3794  0.1957
20361SOL    HW167941   0.622  11.671   0.982  0.1837  0.7467 -1.3456
20361SOL    HW267942   0.755  11.628   1.041 -0.8473 -0.6809  0.0177
20362SOL     OW67943   4.121   9.047   5.651  0.2936  0.0183 -0.3522
20362SOL    HW167944   4.054   9.115   5.644  0.9890  0.7577  0.0022
20362SOL    HW267945   4.177   9.061   5.574 -0.3670 -1.0713 -1.0571
20363SOL     OW67946   8.536   9.483   7.252 -0.3435  0.2789  0.4249
20363SOL    HW167947   8.566   9.409   7.304  0.4439  0.4242  0.1901
20363SOL    HW267948   8.517   9.551   7.317  0.5221  0.4198  0.5382
20364SOL     OW67949  11.504   2.118   9.632 -0.2274  0.1020  0.4030
20364SOL    HW167950  11.455   2.184   9.583 -1.7898 -0.5620  1.0021
20364SOL    HW267951  11.546   2.065   9.565 -0.1077  0.8458 -0.1226
20365SOL     OW67952   3.170   0.258   8.876  0.3108 -0.0131  0.3652
20365SOL    HW167953   3.233   0.330   8.867  1.7450 -1.3946 -1.5263
20365SOL    HW267954   3.124   0.256   8.792  0.4614 -1.4140  0.2966
20366SOL     OW67955   7.964   5.738   0.940 -0.3718  0.0355  0.3553
20366SOL    HW167956   7.945   5.694   1.023 -0.4272  0.6924  0.6967
20366SOL    HW267957   7.904   5.812   0.938 -0.4887 -0.0704 -0.3575
20367SOL     OW67958   7.224  12.437   3.258 -0.5294  0.4312 -0.3828
20367SOL    HW167959   7.180  12.445   3.342  0.5068 -0.3521  0.2449
20367SOL    HW267960   7.295  12.502   3.262  1.7590 -1.9541  0.8278
20368SOL     OW67961   2.769  11.313  10.950 -0.5864 -0.5808 -0.3350
20368SOL    HW167962   2.859  11.314  10.917 -0.6668 -0.2919 -0.5448
20368SOL    HW267963   2.775  11.358  11.035 -0.7235  0.4561 -0.8572
20369SOL     OW67964   2.611   1.497   8.946  0.1234 -0.1045 -0.5239
20369SOL    HW167965   2.555   1.527   9.018 -0.4710  3.8823 -2.3781
20369SOL    HW267966   2.551   1.483   8.873  1.0802 -0.6376 -1.2351
20370SOL     OW67967   9.312   6.187   7.323 -0.5615 -0.0906 -0.6598
20370SOL    HW167968   9.327   6.266   7.271  1.2313  1.4334  1.9355
20370SOL    HW267969   9.362   6.119   7.278  0.6412  1.0801 -1.1615
20371SOL     OW67970   9.374   4.726   4.731  0.6259 -0.8277  0.2432
20371SOL    HW167971   9.467   4.702   4.734  1.3033  1.4982 -0.3318
20371SOL    HW267972   9.339   4.693   4.814  2.2111 -0.8418  0.9551
20372SOL     OW67973  10.878   2.290   4.402 -0.0196  0.3559  0.1314
20372SOL    HW167974  10.837   2.363   4.356  0.8695  0.7625 -0.0519
20372SOL    HW267975  10.931   2.247   4.336  0.3905  0.2694  0.5112
20373SOL     OW67976   3.889   0.914  12.504  0.2404  0.5565 -0.1572
20373SOL    HW167977   3.853   0.928  12.591  0.1099  1.2611 -0.3155
20373SOL    HW267978   3.948   0.839  12.513 -0.9255 -0.3426  0.2048
20374SOL     OW67979   7.213   5.539  10.153  0.1329  0.1637  0.5325
20374SOL    HW167980   7.297   5.545  10.107 -0.1422 -0.3693 -0.0444
20374SOL    HW267981   7.161   5.610  10.118  0.4190  0.6542  1.0732
20375SOL     OW67982   1.484   1.255   9.380 -0.0206  0.4985 -0.2065
20375SOL    HW167983   1.437   1.209   9.311 -0.1920  1.1685 -0.5381
20375SOL    HW267984   1.576   1.235   9.364 -0.0961  0.2533 -0.3357
20376SOL     OW67985   7.786   8.828   6.909 -0.4749 -0.0072  0.3240
20376SOL    HW167986   7.763   8.822   6.816 -0.2664  0.9813  0.1974
20376SOL    HW267987   7.800   8.921   6.924  0.1426 -0.2325  1.1988
20377SOL     OW67988   8.584   2.102  12.042 -0.0533 -0.0439  0.1441
20377SOL    HW167989   8.572   2.060  11.957  0.1912  0.2832 -0.0551
20377SOL    HW267990   8.670   2.073  12.071  1.0259  1.8300 -0.9002
20378SOL     OW67991   3.666   2.357   5.200 -0.0589  0.2233  0.1409
20378SOL    HW167992   3.709   2.409   5.268  0.3507  0.8447 -0.5810
20378SOL    HW267993   3.590   2.409   5.174 -0.1028  0.0852 -0.0097
20379SOL     OW67994   3.830   5.811   5.352 -0.5716 -0.4952 -0.6431
20379SOL    HW167995   3.765   5.773   5.412 -0.1860  0.9101  0.7288
20379SOL    HW267996   3.783   5.883   5.310 -0.0905  0.1853 -0.0413
20380SOL     OW67997   3.696   0.149   3.276 -0.0330 -0.3018  0.3297
20380SOL    HW167998   3.659   0.062   3.293 -1.2470  0.3535  1.2006
20380SOL    HW267999   3.620   0.207   3.275  0.7183  0.7011 -0.6805
20381SOL     OW68000   6.224  10.917   4.328  1.2932  0.1135 -0.1914
20381SOL    HW168001   6.296  10.903   4.267  1.3995 -0.5964  0.0954
20381SOL    HW268002   6.157  10.961   4.275  0.8507 -1.6822 -1.1996
20382SOL     OW68003   3.142   4.855   8.931 -0.5009  0.2688  0.4054
20382SOL    HW168004   3.187   4.807   9.000  0.0337  1.6498  1.0560
20382SOL    HW268005   3.211   4.905   8.887 -1.4456  3.9849  2.6782
20383SOL     OW68006   6.550   2.459  11.656 -0.3677  0.5786  0.6208
20383SOL    HW168007   6.639   2.486  11.675 -0.6504  0.9833  1.4095
20383SOL    HW268008   6.541   2.375  11.702 -0.4582  0.6345  0.7039
20384SOL     OW68009   8.612   8.879  11.909  0.2430 -0.0728  0.2954
20384SOL    HW168010   8.593   8.921  11.993 -0.4528  1.1661 -0.4429
20384SOL    HW268011   8.612   8.951  11.846 -1.9442 -1.2609 -1.1954
20385SOL     OW68012   2.843   5.691   2.397  0.2037  0.2116  0.1442
20385SOL    HW168013   2.787   5.670   2.473 -0.1041 -2.7605 -0.7989
20385SOL    HW268014   2.929   5.707   2.435 -0.2236  0.0902  1.2181
20386SOL     OW68015   5.143   0.857   6.597  0.0843  0.1659  0.0267
20386SOL    HW168016   5.127   0.774   6.552 -0.7362 -0.9588  2.2431
20386SOL    HW268017   5.212   0.899   6.545 -1.0589 -0.8255 -2.4350
20387SOL     OW68018   2.478  11.372  10.952  0.2093 -0.3454 -0.2078
20387SOL    HW168019   2.574  11.370  10.953  0.2268  0.4554 -0.0233
20387SOL    HW268020   2.456  11.463  10.933 -0.5090  0.1749  2.6199
20388SOL     OW68021   9.160  10.628   0.179  0.8438 -0.1930 -0.2942
20388SOL    HW168022   9.248  10.666   0.175  0.3179  1.2173  0.8535
20388SOL    HW268023   9.105  10.691   0.133  0.1661 -0.1964  0.4921
20389SOL     OW68024   5.913   7.467   3.018  0.1463 -0.1050 -0.5382
20389SOL    HW168025   5.896   7.559   2.998 -1.1600 -0.4454 -1.1092
20389SOL    HW268026   5.946   7.430   2.935 -1.2762 -0.5865 -0.9120
20390SOL     OW68027   4.687  12.300   9.354  0.1342  0.2854 -0.0328
20390SOL    HW168028   4.640  12.243   9.415  0.8038 -1.3300 -0.9473
20390SOL    HW268029   4.621  12.328   9.291  0.0324 -0.5431 -0.3065
20391SOL     OW68030   0.384   4.855  10.522 -0.1298 -0.3457  0.5390
20391SOL    HW168031   0.380   4.937  10.571 -1.5208 -0.5482  0.8006
20391SOL    HW268032   0.335   4.793  10.575  1.8193 -1.6785  0.8994
20392SOL     OW68033   9.893   7.258   3.491  0.2914  0.9189 -0.1154
20392SOL    HW168034   9.826   7.207   3.444 -0.9258  0.6067  1.8558
20392SOL    HW268035   9.895   7.220   3.579  2.5662  1.4214  0.1149
20393SOL     OW68036   1.291   3.014   1.770 -0.5411 -0.1443 -0.2969
20393SOL    HW168037   1.221   2.969   1.723  0.3313 -2.1803  0.2626
20393SOL    HW268038   1.351   2.945   1.797  1.2065  1.4380  0.0964
20394SOL     OW68039   8.221   4.947   1.310  0.0615  0.1541 -0.9239
20394SOL    HW168040   8.152   4.995   1.265 -0.4329 -0.1233 -0.4700
20394SOL    HW268041   8.298   5.004   1.304 -1.3275  2.8817  2.7881
20395SOL     OW68042  12.371   9.375  10.408 -0.2511  1.2106 -0.3348
20395SOL    HW168043  12.457   9.386  10.450 -0.1058  0.1264 -0.3092
20395SOL    HW268044  12.392   9.340  10.321 -0.7110 -1.7968  0.6440
20396SOL     OW68045   1.127   9.555   7.497  0.1768  0.2791 -0.0608
20396SOL    HW168046   1.061   9.541   7.565  1.3516  1.6117  1.4120
20396SOL    HW268047   1.078   9.592   7.424 -1.0339 -0.6978  0.2111
20397SOL     OW68048   7.364  12.279  10.349  0.5844 -0.0581  0.0386
20397SOL    HW168049   7.370  12.353  10.409 -0.1235 -0.3553  0.4875
20397SOL    HW268050   7.315  12.312  10.274  1.3739  0.2806 -0.3473
20398SOL     OW68051  11.800   5.251   0.573 -0.3953 -0.0224  0.0002
20398SOL    HW168052  11.741   5.302   0.519  0.6050  1.8455  0.6013
20398SOL    HW268053  11.854   5.202   0.511  0.2521  1.5209 -0.6777
20399SOL     OW68054  11.528   9.584   9.474 -0.7213 -0.3124  0.0242
20399SOL    HW168055  11.456   9.578   9.538 -1.6880  0.7963 -0.9152
20399SOL    HW268056  11.494   9.541   9.396 -0.8309  1.2520 -0.8113
20400SOL     OW68057  11.349  11.899  10.264  0.2469  0.0226 -0.4091
20400SOL    HW168058  11.378  11.868  10.179  1.6016 -1.7648  0.6266
20400SOL    HW268059  11.338  11.993  10.253 -1.2327 -0.3820 -2.9507
20401SOL     OW68060   2.075  10.532   8.942 -0.2215  0.4267 -0.1345
20401SOL    HW168061   2.063  10.437   8.944 -0.0095  0.3844  2.3559
20401SOL    HW268062   2.113  10.549   8.856 -0.8496 -1.6422 -0.8970
20402SOL     OW68063   1.122   7.037   4.407 -0.0815  0.0091 -0.1864
20402SOL    HW168064   1.194   6.999   4.356  0.7236 -0.6435  1.3754
20402SOL    HW268065   1.163   7.071   4.486 -1.0324  2.6886 -0.7474
20403SOL     OW68066   6.820   6.618   2.583  0.3945  0.1633 -0.3495
20403SOL    HW168067   6.813   6.651   2.493 -0.1581 -0.6641 -0.6203
20403SOL    HW268068   6.908   6.581   2.589  0.3718  0.0664 -0.6064
20404SOL     OW68069   1.486   7.594   4.594 -0.0492 -0.7799 -1.0673
20404SOL    HW168070   1.394   7.617   4.610  0.1830  0.8457 -1.9463
20404SOL    HW268071   1.485   7.498   4.586 -1.3527 -0.9885  0.8496
20405SOL     OW68072   7.069   3.253  10.387  0.0625  0.4623  0.1463
20405SOL    HW168073   7.110   3.242  10.473 -1.5436  0.0156  0.9001
20405SOL    HW268074   7.089   3.171  10.340  0.9898  0.7297  0.0531
20406SOL     OW68075   5.397  12.321   4.802  0.0495  0.0125  0.3540
20406SOL    HW168076   5.432  12.395   4.851 -1.5290  0.5398  0.7349
20406SOL    HW268077   5.302  12.333   4.804 -0.3681 -2.7471  1.5768
20407SOL     OW68078   9.982   0.978   9.185  0.9075  0.5315 -1.0264
20407SOL    HW168079   9.945   0.988   9.097 -0.0490  1.6306 -0.5262
20407SOL    HW268080  10.077   0.980   9.172  0.7720  0.9035 -2.0006
20408SOL     OW68081   0.619   6.328   6.319  0.3051 -0.3510  0.1716
20408SOL    HW168082   0.596   6.395   6.254 -1.5054 -0.4573  0.6394
20408SOL    HW268083   0.538   6.316   6.370  1.3062 -1.1941  1.6166
20409SOL     OW68084  10.169  12.233  12.007 -0.2552  0.1014 -0.3596
20409SOL    HW168085  10.185  12.165  11.941 -1.9522 -0.1965 -0.5168
20409SOL    HW268086  10.091  12.204  12.053 -1.1309  2.0170 -0.5350
20410SOL     OW68087  10.962  10.412   4.555 -0.5128 -0.3610 -0.0356
20410SOL    HW168088  10.883  10.457   4.527 -0.4226  0.7739  1.3698
20410SOL    HW268089  10.982  10.450   4.641  1.1737 -1.0989 -0.0482
20411SOL     OW68090   6.844   9.248  10.309  0.0909 -0.5019 -0.1899
20411SOL    HW168091   6.834   9.294  10.393 -2.1181 -0.9676 -0.1173
20411SOL    HW268092   6.852   9.318  10.244 -1.2097 -0.0311  0.1286
20412SOL     OW68093   3.703   4.980   1.086  0.2800 -0.7432  0.4824
20412SOL    HW168094   3.666   4.959   1.172  1.1225  0.6645  1.2199
20412SOL    HW268095   3.785   4.932   1.082  0.3576 -0.6199  0.5766
20413SOL     OW68096   0.877   8.495   3.048  0.1315  0.6042  0.3283
20413SOL    HW168097   0.925   8.576   3.029  2.4915 -0.4796  1.2782
20413SOL    HW268098   0.867   8.495   3.143 -1.3892  0.5618  0.1877
20414SOL     OW68099   4.388   2.683   6.842  0.9445  0.4299 -0.3525
20414SOL    HW168100   4.352   2.613   6.788 -1.3400  2.0344 -1.0338
20414SOL    HW268101   4.369   2.656   6.932  0.2158  0.1001 -0.5951
20415SOL     OW68102   0.350   7.687  10.466 -0.3919 -0.0448  0.1410
20415SOL    HW168103   0.343   7.608  10.412 -0.3665 -1.5597  2.2073
20415SOL    HW268104   0.290   7.671  10.539 -0.3603  1.8637  0.6256
20416SOL     OW68105  10.806   8.127   4.034 -0.4968  0.6177  0.0642
20416SOL    HW168106  10.853   8.139   3.951 -0.6878  1.3012  0.0469
20416SOL    HW268107  10.825   8.037   4.060  2.7205  1.4917  1.2281
20417SOL     OW68108   8.253   3.475  11.599  0.1764  0.0929 -0.7158
20417SOL    HW168109   8.313   3.535  11.642  1.4713 -0.1685 -2.0603
20417SOL    HW268110   8.199   3.531  11.543 -1.1940  0.3780  0.8143
20418SOL     OW68111  12.500   0.803  11.346 -0.3181  0.1357 -0.5379
20418SOL    HW168112  12.516   0.804  11.440 -1.7287  1.0482 -0.2677
20418SOL    HW268113  12.558   0.870  11.310  1.9737 -1.8223 -0.6951
20419SOL     OW68114   4.393   8.695  10.425 -0.0079  0.0090 -0.4097
20419SOL    HW168115   4.313   8.652  10.395  1.1938 -1.3495 -1.8385
20419SOL    HW268116   4.364   8.756  10.493 -2.3444  0.1516 -1.4503
20420SOL     OW68117   4.612   4.532  12.368 -0.2681 -0.0857 -0.2794
20420SOL    HW168118   4.546   4.493  12.311  0.3360 -0.4397 -0.7537
20420SOL    HW268119   4.623   4.621  12.336  0.5951 -0.5018 -1.2154
20421SOL     OW68120  12.574   2.058   8.713 -0.1356 -0.0254 -0.1433
20421SOL    HW168121  12.514   2.001   8.666 -0.2934 -2.1502  2.3702
20421SOL    HW268122  12.517   2.114   8.767  0.0557 -0.6234  0.7068
20422SOL     OW68123   9.591  10.960   9.223 -0.3856 -0.0942 -0.5627
20422SOL    HW168124   9.534  10.971   9.299 -0.3355 -1.3570 -0.3122
20422SOL    HW268125   9.555  10.883   9.178  0.1537  0.0720 -1.2989
20423SOL     OW68126   9.177   0.657   7.923  0.2396 -0.4758  0.4935
20423SOL    HW168127   9.120   0.580   7.926 -0.0241 -0.3185 -0.3562
20423SOL    HW268128   9.121   0.728   7.892  1.1628 -0.5979 -1.6006
20424SOL     OW68129  10.641   9.550   4.461 -0.2571  0.1439 -0.1673
20424SOL    HW168130  10.688   9.540   4.379  1.3885  2.2054  0.4331
20424SOL    HW268131  10.605   9.639   4.458 -1.0948 -0.1327  0.8879
20425SOL     OW68132  12.212   4.497   9.503  0.2118 -0.2674 -0.7018
20425SOL    HW168133  12.212   4.554   9.579 -1.0920 -0.7043 -0.3598
20425SOL    HW268134  12.280   4.432   9.522  1.0805  0.6176 -0.6991
20426SOL     OW68135   3.916   8.540  11.417  0.4537  0.8239  0.0382
20426SOL    HW168136   3.833   8.548  11.464 -0.0970 -1.1888 -0.4563
20426SOL    HW268137   3.890   8.530  11.325  1.2601  0.5732 -0.1682
20427SOL     OW68138  10.914  10.472   3.689 -0.1106 -0.0174  0.0340
20427SOL    HW168139  10.902  10.511   3.603  2.8341  1.7255  0.2699
20427SOL    HW268140  10.956  10.387   3.672 -0.0550  0.0745 -0.2802
20428SOL     OW68141   9.489   9.892   9.577  0.7066  0.3065 -0.5415
20428SOL    HW168142   9.478   9.798   9.562 -0.2331 -0.1181  2.2189
20428SOL    HW268143   9.421   9.933   9.524 -1.1834 -0.8977  0.8012
20429SOL     OW68144   8.032  12.030   0.759  0.2501 -0.3608  0.1221
20429SOL    HW168145   8.039  12.113   0.712 -0.0042 -0.3574  0.0890
20429SOL    HW268146   7.985  12.052   0.839 -1.6529 -0.8259 -0.7950
20430SOL     OW68147   4.574   6.936   6.539 -0.4540 -0.7007 -0.4310
20430SOL    HW168148   4.558   6.939   6.444 -2.0234 -0.2168 -0.1704
20430SOL    HW268149   4.624   7.015   6.557 -2.3383  0.5641 -0.5086
20431SOL     OW68150   7.293   2.240   2.737  0.0632  0.1394 -0.4481
20431SOL    HW168151   7.334   2.163   2.776  0.9334  1.4802  1.4456
20431SOL    HW268152   7.255   2.287   2.811 -1.7181  0.8387 -1.7292
20432SOL     OW68153   8.519  11.726   9.250  0.0928 -0.0562  0.0134
20432SOL    HW168154   8.581  11.779   9.200  0.6347 -1.2834 -0.6522
20432SOL    HW268155   8.527  11.638   9.213 -1.0852 -0.5239  0.8157
20433SOL     OW68156   4.498  12.440   8.217 -0.1791  0.1628  0.3754
20433SOL    HW168157   4.510  12.494   8.295 -1.1868  0.0489  0.6154
20433SOL    HW268158   4.587  12.429   8.182  0.0799  1.7642  0.4532
20434SOL     OW68159   8.628  11.838   5.135 -0.2751  0.1117  0.2544
20434SOL    HW168160   8.703  11.837   5.194 -0.5892 -2.4648  0.7300
20434SOL    HW268161   8.552  11.845   5.193 -0.5084 -0.1914 -0.0110
20435SOL     OW68162   7.914   6.440   2.575 -0.0418 -0.3814 -0.2300
20435SOL    HW168163   7.850   6.477   2.635  1.6601  0.9529  0.8756
20435SOL    HW268164   7.929   6.351   2.607 -0.4302 -0.2721  0.2619
20436SOL     OW68165   6.596  10.064  10.727  0.2436  0.1127  0.3221
20436SOL    HW168166   6.671  10.076  10.784  0.6997 -0.4150 -0.1464
20436SOL    HW268167   6.628  10.006  10.657 -0.0751  1.3273 -0.8675
20437SOL     OW68168   3.441   6.532  11.951  0.7383 -0.1255 -0.3741
20437SOL    HW168169   3.382   6.491  12.015  0.6394  1.0757  0.3311
20437SOL    HW268170   3.384   6.577  11.890  0.9031  1.3048  0.4915
20438SOL     OW68171  11.374   1.223   1.275  0.2145  0.0299 -0.2300
20438SOL    HW168172  11.451   1.219   1.219 -0.0202  0.1850 -0.5654
20438SOL    HW268173  11.383   1.147   1.333  1.1133  0.5820  0.3936
20439SOL     OW68174  11.701   1.544  11.684 -0.4829  0.4455 -0.0997
20439SOL    HW168175  11.715   1.449  11.692  0.7724  0.7186  1.6650
20439SOL    HW268176  11.627   1.552  11.625  0.2174 -1.5845 -1.3764
20440SOL     OW68177   8.106   2.788  11.040  0.0888 -0.5753 -0.1192
20440SOL    HW168178   8.165   2.751  10.974  0.9718  1.6008 -0.6708
20440SOL    HW268179   8.113   2.729  11.115  2.5615 -0.7425 -0.3886
20441SOL     OW68180   0.765   6.847  11.101 -1.0705 -0.7524  0.1624
20441SOL    HW168181   0.832   6.897  11.147 -1.5231 -0.7322  0.8303
20441SOL    HW268182   0.809   6.810  11.025 -0.4629 -0.2352  0.2599
20442SOL     OW68183   7.518   8.617   7.947 -0.2208 -0.5305 -0.0197
20442SOL    HW168184   7.538   8.524   7.955  0.9313 -0.1947  2.0012
20442SOL    HW268185   7.433   8.627   7.989  0.1473 -0.5531  0.7585
20443SOL     OW68186   5.305   7.452   1.724  0.4311  0.5892  0.1641
20443SOL    HW168187   5.255   7.446   1.643  0.3058 -0.5651  0.3114
20443SOL    HW268188   5.374   7.385   1.715  0.3955  0.4266  1.0095
20444SOL     OW68189   4.237   8.196   3.173 -0.1369 -0.6286 -0.1367
20444SOL    HW168190   4.188   8.224   3.096  0.3724 -1.2408 -0.6988
20444SOL    HW268191   4.273   8.111   3.149  0.2477 -0.7131  0.6865
20445SOL     OW68192   0.988   7.256   2.882  0.1123  0.6710  0.4788
20445SOL    HW168193   1.073   7.274   2.921  0.8184 -0.8350 -0.2686
20445SOL    HW268194   0.935   7.222   2.954  0.2076  1.3533  0.8831
20446SOL     OW68195  10.107   1.739   1.818 -0.4565 -0.4338 -0.5834
20446SOL    HW168196  10.084   1.780   1.734 -0.7844  0.5125 -0.0450
20446SOL    HW268197  10.118   1.813   1.878 -2.7777 -1.1796  0.8465
20447SOL     OW68198   6.783   7.307   0.779  0.4272  0.5675  0.1626
20447SOL    HW168199   6.707   7.266   0.821 -1.0494  2.3785 -0.5730
20447SOL    HW268200   6.803   7.383   0.833  2.3775 -0.3646  0.8551
20448SOL     OW68201   3.864  10.933   1.176  0.2169 -0.1105 -0.5310
20448SOL    HW168202   3.931  10.986   1.220 -0.0108  0.4547 -0.8567
20448SOL    HW268203   3.824  10.992   1.113 -0.5163 -0.4749 -0.4204
20449SOL     OW68204   9.705   5.555   3.671  0.3392 -0.1151  0.8215
20449SOL    HW168205   9.790   5.516   3.689  0.4500  0.0071  0.5621
20449SOL    HW268206   9.650   5.481   3.644  1.1940  0.1741 -2.0804
20450SOL     OW68207   1.094   9.747   2.916 -0.4743 -0.0880  0.4436
20450SOL    HW168208   1.158   9.807   2.879  0.2660  0.4915  2.5053
20450SOL    HW268209   1.140   9.663   2.923 -0.7861 -0.3375 -0.3893
20451SOL     OW68210   7.030   7.032   2.491  0.6513 -0.1722  0.2493
20451SOL    HW168211   7.021   7.102   2.555  2.4644  0.3487  0.0028
20451SOL    HW268212   6.944   6.990   2.489  0.1915  0.5684  2.0988
20452SOL     OW68213   9.885   2.595   1.955  0.9025 -0.0071 -0.5355
20452SOL    HW168214   9.822   2.545   1.902  1.8549 -0.6547 -1.0829
20452SOL    HW268215   9.844   2.681   1.964 -0.0049 -0.3694 -0.9934
20453SOL     OW68216   1.943   2.812   7.852 -0.4230 -0.2222  1.2362
20453SOL    HW168217   1.936   2.906   7.833 -1.4368  0.1087  3.0061
20453SOL    HW268218   1.859   2.776   7.825  0.5122 -0.9540 -0.8802
20454SOL     OW68219   6.308   0.460   8.048 -0.0297  0.6777  0.1674
20454SOL    HW168220   6.227   0.445   8.000  0.9536 -0.1005 -1.3066
20454SOL    HW268221   6.338   0.373   8.074  0.1266  0.9893  1.0659
20455SOL     OW68222   3.756  11.127   0.457  0.5258  0.2418  0.0104
20455SOL    HW168223   3.750  11.067   0.531 -0.9662  0.3614  0.0175
20455SOL    HW268224   3.834  11.099   0.410 -1.2457 -3.2133 -1.2462
20456SOL     OW68225   2.819  11.193  10.437 -0.1707  0.1012 -0.0588
20456SOL    HW168226   2.750  11.230  10.491  1.1742  1.5955  0.7447
20456SOL    HW268227   2.810  11.099  10.447 -1.7884  0.2786  0.3849
20457SOL     OW68228   7.487   0.940   0.530  0.2888  0.3932 -0.4196
20457SOL    HW168229   7.472   0.981   0.445  0.3417 -1.6798 -1.4962
20457SOL    HW268230   7.404   0.899   0.552  0.9593 -1.2124 -0.7314
20458SOL     OW68231   9.297   2.360   0.214 -0.0846 -0.5309  0.2767
20458SOL    HW168232   9.333   2.449   0.217  0.1826 -0.6470  2.6265
20458SOL    HW268233   9.216   2.368   0.164  0.7544  0.6796 -0.9774
20459SOL     OW68234   0.265   6.998   1.465 -0.3195 -0.1125  0.0568
20459SOL    HW168235   0.351   7.001   1.424 -0.7987 -0.2860 -0.9951
20459SOL    HW268236   0.228   7.085   1.450 -1.1602 -0.6826 -1.4057
20460SOL     OW68237  10.310   6.804   5.663 -0.1910  1.3244 -0.0711
20460SOL    HW168238  10.341   6.714   5.650 -0.6753  1.3317 -1.4722
20460SOL    HW268239  10.327   6.822   5.755 -1.2038 -0.6274  0.5441
20461SOL     OW68240  11.012   1.988  10.746 -0.3084  0.0649 -0.3832
20461SOL    HW168241  10.941   1.947  10.796 -2.5556 -1.1171 -4.1243
20461SOL    HW268242  11.090   1.976  10.801 -2.3933 -1.6322  2.4744
20462SOL     OW68243   9.022   9.932   5.472 -0.5628  1.0351 -0.2559
20462SOL    HW168244   8.960   9.859   5.481  0.4269  0.1339 -0.5889
20462SOL    HW268245   8.966  10.009   5.464 -1.6352  0.3263  0.1380
20463SOL     OW68246   3.366   6.487   8.530 -0.0186 -0.0249  0.3567
20463SOL    HW168247   3.348   6.475   8.624 -3.1183  1.0180 -0.0088
20463SOL    HW268248   3.369   6.582   8.518 -0.0038 -0.1443 -0.6685
20464SOL     OW68249   3.664  10.555  10.236  0.2845  0.2980  0.4007
20464SOL    HW168250   3.641  10.463  10.249  0.9948 -0.1717 -1.2740
20464SOL    HW268251   3.659  10.594  10.323  0.0842 -1.3561  1.1722
20465SOL     OW68252   9.565   7.685   6.006 -0.3278  0.0660 -0.3800
20465SOL    HW168253   9.570   7.781   6.013 -1.5909  0.0786  0.5873
20465SOL    HW268254   9.650   7.654   6.037  0.0668  0.8539 -0.6337
20466SOL     OW68255   7.953   9.752   5.313 -0.3974 -0.4939  0.7123
20466SOL    HW168256   7.891   9.800   5.259 -0.7653  1.3191  2.6069
20466SOL    HW268257   8.019   9.818   5.337  0.3985 -1.5447  1.4915
20467SOL     OW68258  10.046   4.491   8.245  0.7183 -0.4101  0.7026
20467SOL    HW168259  10.102   4.537   8.308  0.6118 -1.8009  1.8497
20467SOL    HW268260  10.101   4.482   8.167  0.8176  1.4158  0.5085
20468SOL     OW68261   6.291  10.310   3.280 -0.4239 -0.6450  0.1396
20468SOL    HW168262   6.321  10.343   3.364 -0.1853 -0.3707 -0.0489
20468SOL    HW268263   6.213  10.258   3.300 -2.1645  1.8356  0.2593
20469SOL     OW68264  11.268   8.057   2.403  0.6978 -0.2556  1.0394
20469SOL    HW168265  11.195   8.119   2.408  0.5019 -0.3724 -0.2046
20469SOL    HW268266  11.227   7.971   2.410  0.6902 -0.3280  0.1376
20470SOL     OW68267  11.068   6.079   5.784  0.3443  0.4981 -0.1395
20470SOL    HW168268  11.124   6.017   5.830 -0.0978 -1.1124 -1.6422
20470SOL    HW268269  11.128   6.132   5.732  0.7251  1.4064  1.1639
20471SOL     OW68270   6.284   9.427   1.122  0.4872  0.4916  0.1101
20471SOL    HW168271   6.254   9.517   1.114  1.7803  1.0405  1.2325
20471SOL    HW268272   6.290   9.396   1.031  2.1710  2.2657 -0.4446
20472SOL     OW68273   4.065   0.605   2.879 -0.2032 -0.2491  0.0479
20472SOL    HW168274   4.005   0.671   2.845  0.3064  0.4660  0.5107
20472SOL    HW268275   4.042   0.596   2.972  0.0834 -0.3283  0.1149
20473SOL     OW68276   8.511   7.361   3.738 -0.6048 -0.2636  0.1983
20473SOL    HW168277   8.543   7.431   3.795 -0.9426  0.2348 -0.2126
20473SOL    HW268278   8.502   7.402   3.653  0.2702 -1.1015 -0.3199
20474SOL     OW68279   2.429   4.787   2.892 -0.3098  0.2628 -0.0519
20474SOL    HW168280   2.509   4.839   2.888  0.8018 -1.2555  1.2163
20474SOL    HW268281   2.361   4.845   2.859  1.5622  1.0504 -2.8652
20475SOL     OW68282   4.761   0.025  12.181  0.3474  0.2959 -0.4599
20475SOL    HW168283   4.711   0.098  12.218 -1.1823 -0.4564 -0.9872
20475SOL    HW268284   4.791   0.058  12.096  0.0503  0.4837 -0.4944
20476SOL     OW68285   8.776   0.198   3.077 -0.6620 -0.2481  0.3336
20476SOL    HW168286   8.772   0.112   3.035 -2.3763  0.2201 -0.5434
20476SOL    HW268287   8.718   0.191   3.152 -0.3885  0.0002  0.5738
20477SOL     OW68288  12.306   4.386  11.409 -0.1731 -0.5267  0.2016
20477SOL    HW168289  12.311   4.304  11.360 -0.6957 -1.2065  1.2355
20477SOL    HW268290  12.213   4.394  11.431 -0.3014  0.8930 -0.7695
20478SOL     OW68291   5.771   9.057   5.079 -0.6177 -0.4838 -0.4562
20478SOL    HW168292   5.728   9.141   5.097  0.1460 -0.2790  0.4584
20478SOL    HW268293   5.760   9.007   5.159  1.1216 -0.3081 -0.0722
20479SOL     OW68294   2.261   6.847  10.131  0.1702  0.1541  0.5706
20479SOL    HW168295   2.226   6.809  10.212 -1.2316  0.1828  0.0134
20479SOL    HW268296   2.236   6.939  10.135  0.5940  0.2781  0.3628
20480SOL     OW68297   1.415   3.818   9.016  0.1608 -0.0849 -0.0830
20480SOL    HW168298   1.385   3.815   9.107  0.7411 -0.4724  0.1047
20480SOL    HW268299   1.354   3.761   8.969 -1.3363  1.6584 -0.3179
20481SOL     OW68300   3.277   3.811  10.321 -0.5579  0.2390 -0.4862
20481SOL    HW168301   3.224   3.751  10.268 -1.1438  0.6671 -0.3853
20481SOL    HW268302   3.291   3.887  10.265 -1.0267  0.6161 -0.1018
20482SOL     OW68303   7.218   8.998   9.480 -0.3492 -0.0344 -0.3567
20482SOL    HW168304   7.173   9.081   9.468 -0.3197 -0.0722 -0.7334
20482SOL    HW268305   7.311   9.021   9.478 -0.3121 -0.2370 -1.7236
20483SOL     OW68306  11.335   8.968   7.684  0.0316 -0.2376  0.6350
20483SOL    HW168307  11.430   8.960   7.683  0.0943  0.4424  0.4348
20483SOL    HW268308  11.303   8.882   7.711  0.5091 -1.8558 -3.3099
20484SOL     OW68309   7.997   4.728   1.323  0.4695 -0.5203  0.1424
20484SOL    HW168310   7.991   4.786   1.399 -0.6780 -0.7245  0.2296
20484SOL    HW268311   8.088   4.700   1.322  0.0808 -2.2844  2.8032
20485SOL     OW68312   4.974  11.544   5.795  0.3951  0.3756  0.8594
20485SOL    HW168313   4.936  11.457   5.785  2.9926 -0.9503  1.6862
20485SOL    HW268314   5.015  11.562   5.710  1.2368  0.0519  1.1875
20486SOL     OW68315   8.645  11.993   4.601 -0.0426  0.8259 -0.5354
20486SOL    HW168316   8.656  11.922   4.665 -1.6208 -0.9758 -2.1311
20486SOL    HW268317   8.725  12.045   4.609  1.5049 -1.5086  0.2857
20487SOL     OW68318   4.701   6.437  11.011 -0.3494  0.1422 -0.1081
20487SOL    HW168319   4.613   6.406  10.993 -0.3221 -1.2972  1.9327
20487SOL    HW268320   4.734   6.466  10.925 -2.1152 -0.9939 -1.2433
20488SOL     OW68321   0.115   5.583   4.721 -0.0688 -0.0458 -0.2093
20488SOL    HW168322   0.100   5.678   4.711  0.0919 -0.0102 -0.1034
20488SOL    HW268323   0.035   5.543   4.686 -0.1499  0.1301 -0.2270
20489SOL     OW68324   3.773   4.315   7.220  0.5057 -0.6433  0.4144
20489SOL    HW168325   3.837   4.386   7.226 -0.3362  0.3101 -1.4018
20489SOL    HW268326   3.825   4.236   7.235  2.0691  0.1311 -0.6430
20490SOL     OW68327   8.918   4.475   9.431 -0.1780 -0.0869 -0.1167
20490SOL    HW168328   8.923   4.382   9.451 -0.0869  0.0459  0.5009
20490SOL    HW268329   8.848   4.508   9.487  1.2242  0.6195  1.2931
20491SOL     OW68330   4.055  11.250   3.157  0.3363  0.5693  0.1249
20491SOL    HW168331   4.139  11.290   3.135  0.3397  1.0826  1.0119
20491SOL    HW268332   4.038  11.278   3.247 -0.1282 -0.6620  0.4439
20492SOL     OW68333   0.523   5.694   5.431  0.3841  0.0416 -0.2667
20492SOL    HW168334   0.615   5.721   5.434  0.6378 -0.7068 -0.9039
20492SOL    HW268335   0.513   5.654   5.345 -0.5024 -0.0212 -0.1394
20493SOL     OW68336   8.906   6.504   6.828 -0.5059 -0.2322 -0.8575
20493SOL    HW168337   8.986   6.453   6.841 -0.0992  0.4061 -0.8235
20493SOL    HW268338   8.917   6.547   6.743 -0.6090  0.2178 -0.6480
20494SOL     OW68339   1.602   3.337   2.578 -0.0045 -0.3537 -0.3554
20494SOL    HW168340   1.550   3.258   2.595 -1.0544  0.2889 -0.4987
20494SOL    HW268341   1.576   3.398   2.647  0.9719 -0.1925 -0.1050
20495SOL     OW68342   5.890  11.601   3.946 -0.1083  0.3553 -0.3151
20495SOL    HW168343   5.945  11.580   3.870  1.1780 -0.0922  0.7121
20495SOL    HW268344   5.914  11.691   3.968  1.9487 -0.5480  1.4889
20496SOL     OW68345   9.162   5.316  10.009  0.2410 -0.1396 -0.3047
20496SOL    HW168346   9.118   5.395   9.976 -0.0132 -0.9052 -1.8649
20496SOL    HW268347   9.131   5.245   9.953  1.4179 -1.1585  0.2719
20497SOL     OW68348   2.156   5.378   3.257  0.0159  0.1143  0.3068
20497SOL    HW168349   2.169   5.298   3.308  2.6082  0.1908 -0.0942
20497SOL    HW268350   2.241   5.395   3.216 -0.7443  2.4915 -0.4901
20498SOL     OW68351   9.370   1.258   8.387  0.5706 -0.6467 -0.4583
20498SOL    HW168352   9.300   1.298   8.335  0.9171  0.4980 -0.0841
20498SOL    HW268353   9.414   1.199   8.325  1.2309  0.9917 -1.6251
20499SOL     OW68354   4.988  10.807   8.182 -0.4079  0.0871  0.5211
20499SOL    HW168355   4.935  10.773   8.255 -0.5920  0.4193  0.5407
20499SOL    HW268356   5.014  10.728   8.134  1.1158 -0.3020  1.8813
20500SOL     OW68357   2.938   9.135   8.052  0.2252  0.3793  0.0825
20500SOL    HW168358   2.952   9.150   7.959  1.5886 -0.5787  0.0981
20500SOL    HW268359   2.998   9.195   8.096  1.3388 -0.8128  0.2624
20501SOL     OW68360   2.136   4.023  12.138 -0.2880 -0.3292  0.6414
20501SOL    HW168361   2.063   3.962  12.134 -0.9913  0.3827  2.0113
20501SOL    HW268362   2.106   4.093  12.196  1.7267 -0.3467  1.7820
20502SOL     OW68363   4.250   7.472   6.933  0.2124 -0.0990 -0.4544
20502SOL    HW168364   4.226   7.397   6.879 -1.2725  0.2045 -0.2460
20502SOL    HW268365   4.255   7.546   6.871 -3.7715  0.7599 -0.0392
20503SOL     OW68366   7.104  10.811  12.101  0.3382 -0.4482  0.0034
20503SOL    HW168367   7.082  10.903  12.117 -0.3286 -0.6534  0.2998
20503SOL    HW268368   7.021  10.765  12.111  0.8120 -1.1817  0.6435
20504SOL     OW68369   0.061  12.299   8.785 -0.6429  0.4837  0.2460
20504SOL    HW168370  -0.023  12.338   8.809 -1.7397 -0.9025 -1.1494
20504SOL    HW268371   0.039  12.210   8.758  1.4036 -0.1769  0.6357
20505SOL     OW68372  10.825   3.277   5.714 -0.2443  0.5568 -0.1103
20505SOL    HW168373  10.796   3.335   5.643  0.8595  0.7219 -0.4465
20505SOL    HW268374  10.821   3.333   5.792  1.3137  1.2738 -0.5155
20506SOL     OW68375   1.505   2.744  11.474 -0.0770  0.4010  0.1019
20506SOL    HW168376   1.443   2.731  11.402 -1.9526 -0.2768  1.7683
20506SOL    HW268377   1.455   2.789  11.542  1.3643  0.1783  1.3762
20507SOL     OW68378   6.477   2.937   7.589 -0.1307  0.0637  0.1988
20507SOL    HW168379   6.546   2.984   7.543  0.5252  2.0169  2.8948
20507SOL    HW268380   6.415   3.006   7.615 -1.0148 -1.0884  1.2317
20508SOL     OW68381   6.297  11.320   3.772 -0.1686 -0.0155  0.1259
20508SOL    HW168382   6.264  11.280   3.691 -1.8097 -2.4520  1.8438
20508SOL    HW268383   6.374  11.268   3.794  0.7652  1.1762 -0.2473
20509SOL     OW68384   8.706   5.556  12.217  0.6965 -0.0678  0.2794
20509SOL    HW168385   8.780   5.553  12.156 -1.2493 -2.2256 -2.2108
20509SOL    HW268386   8.701   5.467  12.252 -1.7683 -0.5460 -1.0896
20510SOL     OW68387  11.611   5.696   7.371  0.5198 -0.2073 -0.4408
20510SOL    HW168388  11.644   5.748   7.445  1.1265  0.0432 -0.8769
20510SOL    HW268389  11.622   5.754   7.296 -1.1674 -0.0217 -0.5723
20511SOL     OW68390   1.460   4.886  11.766 -0.5332 -0.3271 -0.1720
20511SOL    HW168391   1.514   4.857  11.839  0.0593  1.9891  0.3822
20511SOL    HW268392   1.383   4.830  11.769 -0.7232 -0.0393  2.5101
20512SOL     OW68393   8.434   8.204   5.410 -0.1007 -0.1317 -0.6025
20512SOL    HW168394   8.469   8.138   5.470 -1.1390 -0.8660 -0.7588
20512SOL    HW268395   8.471   8.287   5.439  1.0480 -0.7522 -0.2477
20513SOL     OW68396   4.057   4.738   0.777 -0.6658  0.2512 -0.5914
20513SOL    HW168397   4.096   4.806   0.831 -0.0630 -0.4647 -0.1009
20513SOL    HW268398   4.098   4.657   0.808 -2.1154 -0.4580 -0.4792
20514SOL     OW68399   9.945   9.062  12.030  0.3178 -0.7243  0.6872
20514SOL    HW168400   9.885   9.020  11.968 -0.3916 -0.2852  1.0630
20514SOL    HW268401   9.960   8.997  12.098  0.4159 -0.8987  0.4997
20515SOL     OW68402  10.960   4.360  10.758 -0.1195 -0.1870 -0.2225
20515SOL    HW168403  10.978   4.452  10.779  0.3196 -0.1646 -0.6989
20515SOL    HW268404  10.984   4.313  10.838 -0.6262  0.1387  0.1289
20516SOL     OW68405   9.190   5.481   1.889 -0.0663  0.1261  0.5873
20516SOL    HW168406   9.237   5.473   1.805 -0.0637 -0.3299  0.6280
20516SOL    HW268407   9.100   5.455   1.869  0.1048 -0.7244  0.8809
20517SOL     OW68408   8.260   8.341   1.150 -0.3980 -0.3110  0.2668
20517SOL    HW168409   8.214   8.420   1.122  0.8362  0.4225  0.2723
20517SOL    HW268410   8.222   8.271   1.097 -0.6757  0.4672 -0.5787
20518SOL     OW68411  10.015   5.984  11.341 -0.2198 -0.2402  0.1650
20518SOL    HW168412   9.996   5.892  11.320  1.6353 -0.9398  1.3052
20518SOL    HW268413  10.077   5.979  11.414 -1.3175  1.9565  1.3425
20519SOL     OW68414   5.660   1.052  11.308  0.4252 -0.5128 -0.4090
20519SOL    HW168415   5.647   1.146  11.290 -0.6622 -0.6459 -0.3963
20519SOL    HW268416   5.637   1.042  11.400  1.9699 -0.5515 -0.0106
20520SOL     OW68417   0.984   4.113   5.672  0.2426 -0.1524 -0.1691
20520SOL    HW168418   1.037   4.067   5.607 -1.3984  0.2303 -1.8435
20520SOL    HW268419   0.968   4.200   5.634 -0.3375  0.2738  0.9842
20521SOL     OW68420   3.068   8.467   6.101 -0.3844 -0.7088  0.2333
20521SOL    HW168421   3.065   8.505   6.013  2.0842 -0.8806  0.0095
20521SOL    HW268422   2.999   8.514   6.150  0.5926  2.0178 -0.8067
20522SOL     OW68423   0.359   2.358   3.985 -0.1427  0.7688 -0.1057
20522SOL    HW168424   0.321   2.359   4.073  0.9396 -0.2105  0.3954
20522SOL    HW268425   0.433   2.418   3.989 -0.4389  1.1708 -0.5252
20523SOL     OW68426   7.455   6.483   1.928  0.2045 -0.2368  0.0811
20523SOL    HW168427   7.483   6.413   1.987  0.0570 -0.3067  0.0672
20523SOL    HW268428   7.522   6.484   1.859  1.4880  1.1527  1.2803
20524SOL     OW68429   1.485   2.686   6.230 -0.0694 -0.4878  0.0462
20524SOL    HW168430   1.452   2.597   6.224 -0.0345 -0.4163 -1.4808
20524SOL    HW268431   1.424   2.739   6.179  0.9829  0.0431 -0.7164
20525SOL     OW68432  11.580   9.750  11.251 -0.5500  0.2667  0.1625
20525SOL    HW168433  11.529   9.695  11.191  1.6476 -1.1088 -0.5792
20525SOL    HW268434  11.602   9.828  11.200  1.5946 -1.0423 -1.0781
20526SOL     OW68435   9.111  10.417   2.052  0.8042 -0.5404  0.2606
20526SOL    HW168436   9.106  10.509   2.079  2.7382  0.4419 -2.2798
20526SOL    HW268437   9.158  10.373   2.122  0.9838  0.7053  0.9418
20527SOL     OW68438   2.593  11.736   4.955  0.7011 -0.0620  0.0272
20527SOL    HW168439   2.619  11.688   4.876 -2.3860 -0.8345 -0.6727
20527SOL    HW268440   2.577  11.825   4.924  1.9423  0.2876  0.3529
20528SOL     OW68441   7.191   0.183  10.469  0.4548  0.1192 -0.1097
20528SOL    HW168442   7.112   0.197  10.418  0.6532  0.1984 -0.3995
20528SOL    HW268443   7.162   0.134  10.546  0.4225 -1.6470 -1.1716
20529SOL     OW68444   3.293   6.930   9.291  0.3196  0.2153  0.3178
20529SOL    HW168445   3.202   6.959   9.298  0.0770 -0.7766  1.6297
20529SOL    HW268446   3.335   6.966   9.369  0.4186 -1.4516  1.0594
20530SOL     OW68447   8.371   4.830   2.740  0.1548 -0.3371  0.3392
20530SOL    HW168448   8.366   4.922   2.715  0.0952 -0.3151  0.4324
20530SOL    HW268449   8.461   4.819   2.772  0.2224 -0.3583  0.1454
20531SOL     OW68450   1.284   4.146  11.018 -0.4883  0.7058 -0.2498
20531SOL    HW168451   1.287   4.174  10.927  0.1201 -0.0114 -0.4633
20531SOL    HW268452   1.362   4.090  11.028 -1.1525 -0.1254  0.4044
20532SOL     OW68453   5.269   8.152   4.025 -0.1345 -0.2857 -0.2644
20532SOL    HW168454   5.191   8.199   4.053 -0.9755 -0.7575 -1.7131
20532SOL    HW268455   5.298   8.104   4.103 -1.6011 -0.5240  0.1596
20533SOL     OW68456  12.459   6.348  10.008  0.4873 -0.1898 -0.1731
20533SOL    HW168457  12.532   6.330  10.066  1.3931  1.0053 -0.8843
20533SOL    HW268458  12.428   6.262   9.979  2.4410 -0.7138 -0.8616
20534SOL     OW68459  11.294   1.226   3.419  0.4349  0.0215 -0.1134
20534SOL    HW168460  11.261   1.149   3.466 -0.2136 -0.2953 -1.0426
20534SOL    HW268461  11.323   1.286   3.487 -0.4091 -0.4524  0.6896
20535SOL     OW68462   1.040   4.523   8.680 -0.9687  0.0468  0.0337
20535SOL    HW168463   1.080   4.519   8.767 -0.3420  0.4652 -0.2281
20535SOL    HW268464   0.980   4.597   8.684 -2.3857 -1.0814  0.6851
20536SOL     OW68465   2.720   9.418   5.773  0.4027  0.5234  0.1057
20536SOL    HW168466   2.683   9.393   5.858  1.0902  1.8627  0.8407
20536SOL    HW268467   2.766   9.500   5.791  4.8865 -1.5622 -0.3961
20537SOL     OW68468  10.592   5.950   0.431 -0.0268 -0.4898 -0.4639
20537SOL    HW168469  10.561   5.874   0.480  1.1174 -0.6347  0.0628
20537SOL    HW268470  10.634   6.006   0.496 -1.3931  0.9214 -0.7258
20538SOL     OW68471   4.010  12.055   3.940  0.1870  0.4216  0.0026
20538SOL    HW168472   4.086  12.074   3.885  1.7471 -1.1449  1.4960
20538SOL    HW268473   4.033  12.092   4.026 -0.7782 -0.0051  0.4597
20539SOL     OW68474   9.093   3.358   4.010  0.8177 -0.1254  0.0808
20539SOL    HW168475   9.141   3.433   3.973  0.0927  0.0728 -0.4596
20539SOL    HW268476   9.002   3.374   3.988  0.6629 -1.2399 -0.1433
20540SOL     OW68477   9.261  11.305   8.636  0.2584  0.0304  0.1249
20540SOL    HW168478   9.282  11.247   8.563  2.3463  0.0209  0.6928
20540SOL    HW268479   9.188  11.261   8.680 -0.0725 -0.6938 -1.0807
20541SOL     OW68480  11.248   9.746   7.606 -0.0716  0.1484  0.0869
20541SOL    HW168481  11.284   9.657   7.609  0.6418  0.3899 -0.8482
20541SOL    HW268482  11.258   9.778   7.696 -2.3949 -1.4665  1.0268
20542SOL     OW68483   2.380   6.386  10.658 -0.0807 -0.0318 -0.2943
20542SOL    HW168484   2.315   6.359  10.723 -2.4858  1.9264 -1.7056
20542SOL    HW268485   2.439   6.312  10.650 -0.4262 -0.8093  3.1574
20543SOL     OW68486  11.241   6.903   0.110  0.0314 -0.3417 -0.2682
20543SOL    HW168487  11.190   6.979   0.080 -0.5326 -0.0915  1.2168
20543SOL    HW268488  11.314   6.897   0.049 -2.0599 -1.0785 -2.8493
20544SOL     OW68489   5.580   0.933   2.879 -0.6723 -0.4955  1.1292
20544SOL    HW168490   5.606   0.922   2.787 -2.4407  0.2354  0.4963
20544SOL    HW268491   5.640   1.000   2.913 -0.3274 -0.4071  0.3748
20545SOL     OW68492   3.958   1.610   1.055 -0.0468 -0.1987  0.0683
20545SOL    HW168493   3.970   1.635   0.963  1.4385 -2.1112 -0.3154
20545SOL    HW268494   3.944   1.516   1.053 -0.5695 -0.1884  1.7850
20546SOL     OW68495   6.199   9.110   2.912  0.2146  0.3305 -0.2676
20546SOL    HW168496   6.167   9.112   2.822 -1.5221  0.7966  0.3232
20546SOL    HW268497   6.209   9.017   2.932 -4.6788 -0.2416  0.7282
20547SOL     OW68498   3.582   7.353   1.964  0.5808 -0.1979 -0.2757
20547SOL    HW168499   3.518   7.423   1.977 -1.6594 -2.1251 -0.2696
20547SOL    HW268500   3.620   7.370   1.878 -1.2543  0.0614 -1.0810
20548SOL     OW68501   0.830   3.053   4.991  0.4666  0.2439  0.1611
20548SOL    HW168502   0.847   2.978   4.933  0.6872 -0.4558  1.0943
20548SOL    HW268503   0.737   3.046   5.011 -0.1014  1.6890 -1.7002
20549SOL     OW68504   2.893  11.812   7.464  0.5551 -0.8459 -0.0751
20549SOL    HW168505   2.943  11.838   7.541 -0.3245 -2.0788  0.9637
20549SOL    HW268506   2.812  11.864   7.468  0.6298 -0.7069 -0.3299
20550SOL     OW68507   7.783   3.818   8.860 -0.0813  0.3809 -0.9278
20550SOL    HW168508   7.763   3.825   8.953 -0.4846  1.4699 -1.0767
20550SOL    HW268509   7.698   3.824   8.816 -0.2580 -3.1158 -1.3047
20551SOL     OW68510   5.360   8.480   6.094  0.5308 -0.4184  0.3024
20551SOL    HW168511   5.297   8.449   6.029  0.1033  0.0109  0.5089
20551SOL    HW268512   5.306   8.523   6.161  1.1506  1.1442 -0.1756
20552SOL     OW68513   6.078   2.937   9.077  0.2013  0.0360 -1.1307
20552SOL    HW168514   6.064   3.029   9.055 -1.6547  0.5177  1.6671
20552SOL    HW268515   6.163   2.936   9.121  0.0770  0.4643 -0.8727
20553SOL     OW68516   2.413   1.445   8.763  0.4327 -0.2067  0.0413
20553SOL    HW168517   2.348   1.515   8.771  0.2282 -0.3687 -0.1838
20553SOL    HW268518   2.426   1.434   8.669  1.7452  0.6892  0.0911
20554SOL     OW68519   2.540   3.891   7.169 -0.0916  0.7202 -0.2891
20554SOL    HW168520   2.538   3.911   7.263 -2.0094  0.1849 -0.1783
20554SOL    HW268521   2.501   3.968   7.127  0.9801  1.0598 -0.6858
20555SOL     OW68522   4.387  11.751   9.436  0.2665 -0.3009  0.2311
20555SOL    HW168523   4.320  11.694   9.473  0.8284 -1.9119 -1.0898
20555SOL    HW268524   4.400  11.718   9.347  0.3126  2.1910 -0.7861
20556SOL     OW68525  11.604   5.901   6.693  0.2860  0.1960  0.2845
20556SOL    HW168526  11.559   5.875   6.612 -1.0283 -1.0047  1.3495
20556SOL    HW268527  11.675   5.838   6.702 -0.5076 -0.6386  0.8361
20557SOL     OW68528   9.876   4.674   2.859 -0.1108  0.2764 -0.0284
20557SOL    HW168529   9.924   4.616   2.800  0.1493  0.8384 -0.3776
20557SOL    HW268530   9.849   4.617   2.931  0.8122 -0.1152  0.0192
20558SOL     OW68531   1.277   5.524   5.384 -0.5553 -0.2450 -0.5896
20558SOL    HW168532   1.199   5.566   5.349 -0.9620 -1.6065 -1.3757
20558SOL    HW268533   1.341   5.595   5.393 -2.3333  1.2225  1.6023
20559SOL     OW68534   9.427   9.485   8.906 -0.1333  0.2664  0.4268
20559SOL    HW168535   9.447   9.572   8.870  0.5946  0.4022  1.1393
20559SOL    HW268536   9.512   9.449   8.932 -0.4505 -0.5815  0.3342
20560SOL     OW68537   0.554   7.856   5.534  0.6384 -0.6118 -0.1623
20560SOL    HW168538   0.594   7.927   5.584 -0.8308  0.2842 -0.1935
20560SOL    HW268539   0.619   7.834   5.468  0.0086  2.9079 -2.2350
20561SOL     OW68540   8.270   0.998   7.175  0.9299 -0.2067  0.2314
20561SOL    HW168541   8.303   1.083   7.205  1.5552  0.2401 -1.5988
20561SOL    HW268542   8.313   0.934   7.232 -0.0645  0.6862  2.0876
20562SOL     OW68543   6.468   2.039   1.016 -0.1145  0.5503  0.3435
20562SOL    HW168544   6.428   2.118   0.982 -1.6697  0.2555  1.3737
20562SOL    HW268545   6.419   2.020   1.097  0.5122 -1.1909  0.3667
20563SOL     OW68546   4.854  12.330   0.105  0.3032 -0.0478 -0.4780
20563SOL    HW168547   4.886  12.417   0.079  0.0735 -0.0901 -0.9106
20563SOL    HW268548   4.930  12.287   0.143  0.3628  0.4279 -0.0479
20564SOL     OW68549   0.600   9.502  11.725 -0.4807 -0.1797  0.4951
20564SOL    HW168550   0.603   9.436  11.656  0.1651 -0.6293  0.9426
20564SOL    HW268551   0.629   9.456  11.804 -0.6615  0.4681  0.9487
20565SOL     OW68552   4.858   4.684   1.365 -0.1364 -0.5348 -0.0568
20565SOL    HW168553   4.763   4.678   1.381 -0.3343 -3.0266 -1.7021
20565SOL    HW268554   4.897   4.621   1.426  0.5248  0.6196  0.7497
20566SOL     OW68555   2.909   2.795   7.546 -0.3424 -0.6602 -0.1296
20566SOL    HW168556   2.993   2.822   7.583  0.0365  0.4294 -1.6792
20566SOL    HW268557   2.933   2.748   7.466 -1.2137  0.4629 -1.0734
20567SOL     OW68558  10.806  10.475   4.158  0.1543  0.0179 -0.2935
20567SOL    HW168559  10.830  10.514   4.074 -0.5019 -0.8716 -0.9106
20567SOL    HW268560  10.723  10.431   4.141  0.6307 -1.2277  0.5090
20568SOL     OW68561   0.421   4.394  10.837  0.0239 -0.0298 -0.0969
20568SOL    HW168562   0.441   4.349  10.754 -1.3044  0.1021 -0.5106
20568SOL    HW268563   0.479   4.352  10.901  1.7914  0.5245 -1.2491
20569SOL     OW68564   9.435   6.156   4.302  0.5961  0.0366  0.0765
20569SOL    HW168565   9.491   6.201   4.366 -1.2050  0.5008  1.4133
20569SOL    HW268566   9.400   6.226   4.247 -0.0989 -0.0165  0.4382
20570SOL     OW68567   1.880   2.758   8.475  0.1633 -0.3009 -0.0928
20570SOL    HW168568   1.825   2.699   8.422 -0.1500 -0.3046  0.2280
20570SOL    HW268569   1.932   2.806   8.411 -0.5717  0.0557 -0.4397
20571SOL     OW68570  10.576   5.139   1.981  0.4088  0.5226 -0.2137
20571SOL    HW168571  10.550   5.231   1.988 -0.4672  0.4410 -1.9460
20571SOL    HW268572  10.614   5.119   2.067 -0.0386  2.2851  0.4504
20572SOL     OW68573   0.937   4.068  11.020  0.3348 -0.1643 -0.1825
20572SOL    HW168574   0.932   4.134  11.089 -0.2467  0.0317 -0.4056
20572SOL    HW268575   1.011   4.012  11.045  0.6100  0.3607  0.1898
20573SOL     OW68576   5.072   9.215  12.134  0.3371  0.5928 -0.5921
20573SOL    HW168577   4.978   9.197  12.143  0.6341 -0.6625  0.4260
20573SOL    HW268578   5.077   9.304  12.101 -1.2355  0.2337 -1.9160
20574SOL     OW68579  10.760   8.989   5.820  0.4018  0.1334 -0.0350
20574SOL    HW168580  10.689   9.052   5.815 -0.6933 -1.0546  0.1659
20574SOL    HW268581  10.724   8.908   5.782  2.0380 -0.1541 -1.1153
20575SOL     OW68582   8.802   7.261   5.514  0.0747  0.0578 -0.0197
20575SOL    HW168583   8.749   7.341   5.503  0.5745  0.2107 -1.4856
20575SOL    HW268584   8.739   7.190   5.507 -0.3238  0.2859  0.9545
20576SOL     OW68585   6.739   4.851   7.874  0.2345 -0.2323  0.3476
20576SOL    HW168586   6.796   4.924   7.849 -1.2466  1.2431  1.0809
20576SOL    HW268587   6.670   4.891   7.927 -1.6623 -1.8706 -0.7346
20577SOL     OW68588   2.690   1.848   9.109  0.2714  0.1296 -0.4995
20577SOL    HW168589   2.625   1.826   9.042 -0.8679 -0.2240  0.6765
20577SOL    HW268590   2.662   1.933   9.142  1.8602  1.1634 -1.6587
20578SOL     OW68591   3.312   2.673   5.825 -0.2001 -0.0669 -0.2306
20578SOL    HW168592   3.257   2.743   5.860  0.6626  0.0721  0.9247
20578SOL    HW268593   3.383   2.718   5.780 -0.3863 -0.2303 -0.6948
20579SOL     OW68594   5.106  10.873  10.595  0.2325  0.2171 -0.0419
20579SOL    HW168595   5.166  10.858  10.522 -0.6204  1.3108 -1.0076
20579SOL    HW268596   5.135  10.956  10.633 -1.2893  1.3890 -1.2551
20580SOL     OW68597   8.551   9.704  10.679 -0.0867 -0.1984 -0.1956
20580SOL    HW168598   8.632   9.692  10.727 -0.3116 -0.5648  0.0951
20580SOL    HW268599   8.504   9.621  10.690 -1.1167  0.4898  0.7955
20581SOL     OW68600   4.507   3.730   8.876 -0.4401 -0.3644 -0.2233
20581SOL    HW168601   4.441   3.680   8.923 -0.3100  0.1669  0.5397
20581SOL    HW268602   4.582   3.735   8.936  0.1899 -0.7148 -0.9658
20582SOL     OW68603   6.106   3.045   7.900  0.3915 -0.4829  0.1825
20582SOL    HW168604   6.037   3.056   7.834 -0.3751 -1.3859  0.8082
20582SOL    HW268605   6.065   3.070   7.982  0.5091 -1.8946  0.6981
20583SOL     OW68606  10.111   9.959  12.286 -0.4462  0.1619 -0.1856
20583SOL    HW168607  10.166   9.970  12.364  1.0423 -2.0113 -0.8542
20583SOL    HW268608  10.023   9.982  12.316  0.3494  0.9873  1.6801
20584SOL     OW68609   6.132   5.498   7.463  0.0934 -0.6606  0.9040
20584SOL    HW168610   6.192   5.423   7.466  2.6185  1.1801 -0.6026
20584SOL    HW268611   6.144   5.542   7.547  0.4589 -0.5618  0.7973
20585SOL     OW68612   3.741   3.144   3.225  0.7862  0.3076  0.6109
20585SOL    HW168613   3.661   3.179   3.264  0.5743  1.0415 -0.4398
20585SOL    HW268614   3.746   3.185   3.139  1.4033 -1.0234 -0.0267
20586SOL     OW68615   9.592   7.835  10.890 -0.1715  0.2151 -0.0173
20586SOL    HW168616   9.620   7.770  10.825  0.6072  0.9518 -0.4350
20586SOL    HW268617   9.569   7.912  10.837 -3.0109 -0.3128  0.2805
20587SOL     OW68618   7.605   7.615   6.775  0.1557 -0.1623  0.2391
20587SOL    HW168619   7.623   7.558   6.850  2.6771  1.1301  0.7252
20587SOL    HW268620   7.603   7.703   6.812 -1.8517  0.2657 -0.7744
20588SOL     OW68621   1.478   3.170   0.962  0.1323  0.0455  0.4054
20588SOL    HW168622   1.400   3.118   0.978  0.3259 -0.5771 -0.5926
20588SOL    HW268623   1.448   3.243   0.908  0.2871 -0.3436 -0.2086
20589SOL     OW68624   5.134   7.792   2.580  0.4105 -0.0481  0.1613
20589SOL    HW168625   5.115   7.847   2.503  0.6086  0.6127  0.5815
20589SOL    HW268626   5.202   7.732   2.550  2.1716  1.7167  0.4640
20590SOL     OW68627   0.148   8.919  10.333 -0.1599  0.1145  0.2537
20590SOL    HW168628   0.088   8.878  10.271  0.0706  0.8697 -0.4901
20590SOL    HW268629   0.104   9.000  10.359  0.2002  0.2972  0.2985
20591SOL     OW68630   7.393   0.151   5.489 -0.3458  0.3146  0.3209
20591SOL    HW168631   7.469   0.100   5.516 -1.8125 -1.2170  1.7768
20591SOL    HW268632   7.425   0.205   5.417  2.2165  0.0857  1.1908
20592SOL     OW68633   6.140   4.670   4.813  0.2930  0.2217  0.6826
20592SOL    HW168634   6.090   4.720   4.749  0.8625  0.3277  0.3165
20592SOL    HW268635   6.145   4.581   4.776 -2.0280 -0.5659  2.0347
20593SOL     OW68636   4.837  12.480   4.142  0.0325  0.2806 -0.5576
20593SOL    HW168637   4.904  12.537   4.104 -0.8319  0.6475 -1.5907
20593SOL    HW268638   4.823  12.412   4.076  0.0723 -0.3343  0.0654
20594SOL     OW68639   2.721   5.931   7.710  0.1885 -0.2472 -0.7799
20594SOL    HW168640   2.774   5.897   7.638 -1.6325 -0.8419 -1.9360
20594SOL    HW268641   2.741   5.875   7.784  1.7709  0.0863 -0.9348
20595SOL     OW68642   5.802   8.054   5.494  0.9610  0.0491 -0.0110
20595SOL    HW168643   5.870   8.119   5.513  1.2688 -0.2967  0.0627
20595SOL    HW268644   5.837   8.001   5.423  0.6195  0.0941 -0.2167
20596SOL     OW68645   5.336   0.680  10.554 -0.3783 -0.0824  0.5476
20596SOL    HW168646   5.418   0.730  10.557 -0.2715 -0.1203 -1.1875
20596SOL    HW268647   5.350   0.609  10.617  1.5170 -0.9068 -0.7015
20597SOL     OW68648   4.240   4.221   3.758  0.3412  0.0074  0.0542
20597SOL    HW168649   4.257   4.130   3.782 -1.5531 -0.6638 -0.9182
20597SOL    HW268650   4.244   4.221   3.662 -1.5269  0.4911 -0.0613
20598SOL     OW68651   5.493   7.028   8.505  0.1184  0.0928 -0.2814
20598SOL    HW168652   5.402   7.013   8.531 -0.5331  1.0457 -1.8080
20598SOL    HW268653   5.515   7.114   8.542  0.2007  0.0929 -0.3297
20599SOL     OW68654   0.210   6.960   6.058  0.1238 -0.3760 -0.3330
20599SOL    HW168655   0.171   6.874   6.045 -1.6986  0.4633 -0.7084
20599SOL    HW268656   0.174   7.014   5.988  0.4876  0.9317  0.4418
20600SOL     OW68657   1.152   5.660   2.462  0.0960 -0.3710 -0.1648
20600SOL    HW168658   1.168   5.720   2.535 -1.3953  1.0501 -0.9283
20600SOL    HW268659   1.062   5.631   2.473 -0.4649  0.5674 -1.8560
20601SOL     OW68660   7.737   4.560   3.728  0.3599  0.4927  0.2149
20601SOL    HW168661   7.823   4.519   3.738  1.1406  1.8686 -0.6161
20601SOL    HW268662   7.753   4.653   3.740 -0.2281  1.3051 -3.8600
20602SOL     OW68663   0.558   3.436   6.061  0.0208  0.1171  0.1550
20602SOL    HW168664   0.499   3.364   6.085  0.8023 -0.8963 -0.8457
20602SOL    HW268665   0.609   3.401   5.987  0.4496  1.6931 -0.3271
20603SOL     OW68666   1.458   7.434  12.357 -0.0733  0.1050 -0.3963
20603SOL    HW168667   1.473   7.526  12.382  2.3139  0.2360 -1.9869
20603SOL    HW268668   1.532   7.387  12.394  0.5035 -0.5909 -2.3182
20604SOL     OW68669   4.605  11.478   3.961 -0.1922 -0.4675 -0.0718
20604SOL    HW168670   4.659  11.432   3.896 -1.2722  0.8652 -2.0234
20604SOL    HW268671   4.538  11.522   3.909 -1.7565 -0.1649  2.0870
20605SOL     OW68672   4.992   2.818  10.405  0.4737  0.6361 -0.3936
20605SOL    HW168673   5.047   2.891  10.377 -0.3038  1.2819 -0.2683
20605SOL    HW268674   4.903   2.851  10.398  0.1857  0.9120  2.9013
20606SOL     OW68675   6.904   8.151   3.733 -0.0773  0.0967 -0.1100
20606SOL    HW168676   6.860   8.128   3.815 -1.3379  0.9246 -0.5315
20606SOL    HW268677   6.861   8.097   3.666  2.1471 -1.9500 -0.0596
20607SOL     OW68678   1.442  12.221   9.896  0.0694 -0.0225  0.6517
20607SOL    HW168679   1.526  12.219   9.942  0.9340 -0.5755 -0.8930
20607SOL    HW268680   1.444  12.144   9.839 -0.7662  0.8819 -0.6520
20608SOL     OW68681  10.808   4.374   0.166 -0.3633 -0.0126  0.2153
20608SOL    HW168682  10.731   4.321   0.144  0.9747 -2.4549  1.0366
20608SOL    HW268683  10.777   4.432   0.236 -1.9997  0.7406 -1.0392
20609SOL     OW68684   8.606   1.189   0.544 -0.2692 -0.0537 -0.1312
20609SOL    HW168685   8.680   1.197   0.484 -0.4956 -2.3644 -0.8142
20609SOL    HW268686   8.553   1.117   0.509 -1.5128 -0.1343  1.7141
20610SOL     OW68687   1.148  10.948   8.142 -0.0158 -0.0262  0.4350
20610SOL    HW168688   1.053  10.959   8.141  0.1342  1.9400  1.8387
20610SOL    HW268689   1.173  10.962   8.233  1.5795 -1.2647  0.2414
20611SOL     OW68690   8.279   4.063   3.590  0.0835  0.7677 -0.0006
20611SOL    HW168691   8.365   4.035   3.621 -0.6526 -2.0994 -0.2919
20611SOL    HW268692   8.283   4.054   3.495 -0.6829  0.0898  0.0239
20612SOL     OW68693   4.240   8.327  10.562  0.5259  0.4602  0.2278
20612SOL    HW168694   4.277   8.242  10.538 -0.4107  0.2328 -0.4778
20612SOL    HW268695   4.223   8.370  10.478 -1.7730  0.1100  0.4537
20613SOL     OW68696  11.652   8.249   0.537  0.2061 -0.9324 -0.0760
20613SOL    HW168697  11.578   8.299   0.572  0.7404  0.5543 -0.9613
20613SOL    HW268698  11.674   8.187   0.606 -0.3792  0.1819  1.1499
20614SOL     OW68699   0.219   6.539   6.996 -0.5693  0.5202 -0.1598
20614SOL    HW168700   0.139   6.493   7.023 -0.0396 -0.9559 -0.9565
20614SOL    HW268701   0.286   6.506   7.056  0.0285 -0.6043 -1.3929
20615SOL     OW68702   5.048   7.177   3.545 -0.0515 -0.3639 -0.4459
20615SOL    HW168703   5.002   7.256   3.574 -1.2577 -0.6380 -1.5618
20615SOL    HW268704   5.138   7.207   3.529 -0.1930  0.5095  0.2779
20616SOL     OW68705   4.882   0.965   6.609  0.0643  0.0771  0.4671
20616SOL    HW168706   4.880   1.060   6.603  0.8283  0.1337  1.0786
20616SOL    HW268707   4.971   0.941   6.583  0.0284 -0.4315  0.8025
20617SOL     OW68708  11.383   4.136   9.494 -0.4346 -0.7233  0.3112
20617SOL    HW168709  11.343   4.124   9.580  1.0411 -0.3939  1.0806
20617SOL    HW268710  11.361   4.225   9.469 -3.0703 -1.6121 -0.9040
20618SOL     OW68711   5.707   3.767   2.128  0.1421  0.2499  0.7274
20618SOL    HW168712   5.712   3.706   2.201 -0.8762  0.8815  1.3514
20618SOL    HW268713   5.636   3.828   2.152  0.3496  0.9701 -0.3981
20619SOL     OW68714  12.010   2.876   3.736  0.2582  0.1967 -0.1456
20619SOL    HW168715  12.037   2.960   3.772  1.9117 -0.1840 -0.4251
20619SOL    HW268716  12.021   2.814   3.807 -1.3242  0.2409  0.1770
20620SOL     OW68717   1.276   4.274   6.367  0.0336  0.2453 -0.5715
20620SOL    HW168718   1.201   4.314   6.409  0.1993  0.4176 -0.4389
20620SOL    HW268719   1.259   4.284   6.273 -0.6393 -0.6998 -0.5631
20621SOL     OW68720   0.355   8.108   8.866 -1.1930 -0.5413  0.9369
20621SOL    HW168721   0.331   8.081   8.777  0.2321  0.6224  0.1654
20621SOL    HW268722   0.287   8.169   8.892 -2.0450 -1.4805  0.9814
20622SOL     OW68723   5.420   0.332   6.929  0.0586 -0.1597  0.4329
20622SOL    HW168724   5.419   0.399   6.861 -0.7631 -0.9199 -0.3291
20622SOL    HW268725   5.409   0.381   7.011  2.5079  0.9126  0.2116
20623SOL     OW68726   2.202   2.882  10.192 -0.4945 -0.8391  0.1509
20623SOL    HW168727   2.148   2.912  10.119  0.0803  0.6134  0.3015
20623SOL    HW268728   2.143   2.881  10.267 -0.6126 -0.4339  0.0658
20624SOL     OW68729   2.918   7.419   7.178 -0.5298 -0.2489  0.1453
20624SOL    HW168730   2.856   7.486   7.149 -0.2533 -0.0785 -0.0639
20624SOL    HW268731   2.907   7.347   7.115 -1.6840 -0.9154  1.0695
20625SOL     OW68732   5.588  10.052   7.061  0.1053  0.5494  0.2709
20625SOL    HW168733   5.647  10.030   7.133  0.9618  1.5822 -0.0992
20625SOL    HW268734   5.508  10.002   7.080  0.1570  1.1059  2.1511
20626SOL     OW68735   8.068   4.336  11.624 -0.2270  0.0540 -0.1582
20626SOL    HW168736   8.112   4.410  11.665  0.1908  0.9168 -2.0819
20626SOL    HW268737   8.021   4.293  11.696  0.8339  1.2167  1.2790
20627SOL     OW68738   6.646   2.244   3.108 -0.0698  0.1595  0.3457
20627SOL    HW168739   6.670   2.302   3.036 -1.4616  0.6334  0.2362
20627SOL    HW268740   6.551   2.248   3.112 -0.0482 -0.0269  2.0746
20628SOL     OW68741   7.064   2.474   4.573 -0.5070 -0.3088  0.1271
20628SOL    HW168742   7.053   2.566   4.594 -0.1365 -0.6019  1.7086
20628SOL    HW268743   6.979   2.434   4.592 -0.8065 -0.2360 -0.9903
20629SOL     OW68744   5.050   5.496  12.221  0.2532  0.0747  0.1423
20629SOL    HW168745   5.058   5.529  12.131  0.1100  0.4421  0.2620
20629SOL    HW268746   4.996   5.417  12.213  0.1994  0.1326 -0.0869
20630SOL     OW68747  11.685   2.358   6.934  0.6620 -0.2487 -0.4651
20630SOL    HW168748  11.734   2.292   6.885  1.2536 -0.8090  0.8350
20630SOL    HW268749  11.748   2.395   6.995  0.1286  0.9627 -0.6050
20631SOL     OW68750   5.271   7.814   7.597  0.1535  0.0620  0.0664
20631SOL    HW168751   5.207   7.777   7.536  0.3961 -1.0945  0.4969
20631SOL    HW268752   5.302   7.894   7.554 -0.6086 -0.0646 -0.7377
20632SOL     OW68753   6.773  10.104   8.064 -0.0624  0.4501  0.4417
20632SOL    HW168754   6.730  10.037   8.010 -0.2998  0.2391  0.8891
20632SOL    HW268755   6.719  10.182   8.051  1.6542  1.3246 -2.1355
20633SOL     OW68756  12.151  10.820   3.197  0.2792 -0.1097  0.1573
20633SOL    HW168757  12.166  10.729   3.170 -1.6435 -1.1620  2.3930
20633SOL    HW268758  12.058  10.834   3.184  0.1851  0.8722  1.6920
20634SOL     OW68759   0.368   8.468  11.415  0.5398  0.1120 -0.2767
20634SOL    HW168760   0.393   8.481  11.507 -1.3691  0.7665  0.1932
20634SOL    HW268761   0.279   8.433  11.419 -0.6951  2.7657 -1.8971
20635SOL     OW68762   7.126   3.255   9.880 -0.6355 -0.2963 -0.5768
20635SOL    HW168763   7.130   3.160   9.870 -0.0285 -0.5720  1.7290
20635SOL    HW268764   7.200   3.287   9.829  0.9945 -1.3582  0.9857
20636SOL     OW68765   3.697   3.751  10.952 -0.4245  0.1067  0.6888
20636SOL    HW168766   3.728   3.664  10.929  0.3363  0.3937  0.5725
20636SOL    HW268767   3.638   3.737  11.026 -2.8243 -0.8113 -1.2502
20637SOL     OW68768   4.467   9.642   2.940 -0.0308 -0.1969 -0.3691
20637SOL    HW168769   4.436   9.680   2.858  1.9839 -0.4412 -1.3073
20637SOL    HW268770   4.485   9.717   2.997 -2.4431 -0.0561  0.3034
20638SOL     OW68771  12.101   6.167   1.404  0.1328  0.1158 -0.1868
20638SOL    HW168772  12.013   6.198   1.380 -0.8822 -0.1505  2.6903
20638SOL    HW268773  12.086   6.078   1.435  0.6028  1.1838  3.7352
20639SOL     OW68774   7.618  10.247   0.248  0.1090  0.1341 -0.1821
20639SOL    HW168775   7.621  10.322   0.307  0.2698  0.6894 -0.8951
20639SOL    HW268776   7.681  10.266   0.180  0.3245 -0.7618 -0.2508
20640SOL     OW68777   0.634  10.926   3.572 -0.1810 -0.5766 -0.3321
20640SOL    HW168778   0.611  10.860   3.507  0.4734  0.2716 -1.4613
20640SOL    HW268779   0.706  10.975   3.532 -0.1039  0.2920  0.8229
20641SOL     OW68780   7.386  12.250   2.625 -0.2109  0.8709  0.3339
20641SOL    HW168781   7.359  12.163   2.657 -0.6740  0.5971 -0.7654
20641SOL    HW268782   7.474  12.262   2.660  0.0139 -0.2150  0.1703
20642SOL     OW68783  10.135   4.894   1.025  0.8653  0.3218 -0.0183
20642SOL    HW168784  10.068   4.943   0.977  1.3485  0.6174 -0.4070
20642SOL    HW268785  10.096   4.807   1.039  0.4652  0.4377 -0.3848
20643SOL     OW68786   3.926   6.169   3.247 -0.3144 -0.1621 -0.0979
20643SOL    HW168787   3.884   6.096   3.202 -2.2288  0.5993  0.3690
20643SOL    HW268788   3.857   6.209   3.298  1.2539  0.4943  1.6260
20644SOL     OW68789   8.592   4.264   5.605  0.2798 -0.0684  0.3181
20644SOL    HW168790   8.607   4.316   5.526  1.0763 -0.0090  0.4969
20644SOL    HW268791   8.625   4.318   5.677 -1.8350  0.5289  0.9056
20645SOL     OW68792   7.277  12.410   3.659  0.4962  0.7069 -0.4158
20645SOL    HW168793   7.331  12.344   3.615 -0.6240  0.2993 -1.2524
20645SOL    HW268794   7.275  12.382   3.750  0.6108 -0.0405 -0.6325
20646SOL     OW68795   6.764   5.327   7.030  0.1700  0.9517  0.1047
20646SOL    HW168796   6.728   5.284   7.107 -0.7397  1.4469 -0.0351
20646SOL    HW268797   6.859   5.318   7.040  0.0312 -0.5139  0.4037
20647SOL     OW68798   1.681  10.830   9.275 -0.2838 -0.2156  0.2156
20647SOL    HW168799   1.727  10.913   9.267  0.4582 -0.7689 -1.9670
20647SOL    HW268800   1.747  10.764   9.256 -1.1569 -1.2351  0.6275
20648SOL     OW68801   3.110   1.109  10.438 -0.1340  0.2666 -0.3412
20648SOL    HW168802   3.030   1.058  10.433 -0.1457  0.3935 -2.2851
20648SOL    HW268803   3.115   1.137  10.530 -0.4137 -2.6644  0.6639
20649SOL     OW68804   6.584  11.319   1.975 -0.0940  0.1526  0.0177
20649SOL    HW168805   6.652  11.351   1.916  1.0956  0.9565  1.7407
20649SOL    HW268806   6.594  11.371   2.055  0.3133 -2.7778  2.0706
20650SOL     OW68807   4.465   2.649   7.392 -0.4650 -0.1490  0.1242
20650SOL    HW168808   4.392   2.704   7.422 -0.4123  0.9416 -1.6330
20650SOL    HW268809   4.512   2.627   7.472 -0.9336  1.7336  0.9829
20651SOL     OW68810  10.614   7.282  12.022 -0.3838 -0.0563 -0.5051
20651SOL    HW168811  10.596   7.207  12.078 -2.8311  0.7538 -0.0873
20651SOL    HW268812  10.705   7.306  12.042 -0.3029 -1.4872  1.0264
20652SOL     OW68813  11.499  11.310   2.809 -0.3123 -0.6923 -0.5008
20652SOL    HW168814  11.428  11.274   2.863 -1.1587 -1.4805 -2.0537
20652SOL    HW268815  11.557  11.236   2.794  1.0172  0.0060  0.9573
20653SOL     OW68816   9.115   1.116   5.163 -0.7612  0.2328  0.1971
20653SOL    HW168817   9.109   1.195   5.109 -0.0278 -0.2889 -0.6627
20653SOL    HW268818   9.026   1.105   5.199 -1.0981  0.9344 -0.3958
20654SOL     OW68819   2.941  10.551   2.108  0.2424  0.2458 -0.0631
20654SOL    HW168820   2.950  10.496   2.031 -1.8787 -0.9552  0.4670
20654SOL    HW268821   2.906  10.493   2.176 -0.8340  1.9380  0.9175
20655SOL     OW68822   8.017  10.519  12.063 -0.1061  0.3914  0.0805
20655SOL    HW168823   7.956  10.592  12.067  1.3483  1.7248 -0.7028
20655SOL    HW268824   7.997  10.474  11.981 -0.0624  0.8107 -0.1631
20656SOL     OW68825   3.671   6.771   0.180 -0.8962 -0.6877  0.3411
20656SOL    HW168826   3.578   6.751   0.169 -1.2062  0.1692  1.2485
20656SOL    HW268827   3.717   6.700   0.134 -2.0039 -0.1224 -1.7938
20657SOL     OW68828  12.314   3.600   5.523  0.1322  0.2422 -0.3767
20657SOL    HW168829  12.247   3.600   5.455 -1.0822  0.6081  0.7891
20657SOL    HW268830  12.269   3.571   5.602  1.2484  0.8928  0.5390
20658SOL     OW68831  11.556  10.814  11.973 -0.0385  0.2136  0.3124
20658SOL    HW168832  11.586  10.742  12.029  0.7045  0.3260  0.0630
20658SOL    HW268833  11.595  10.796  11.888 -2.5786 -0.9216 -0.6963
20659SOL     OW68834   4.974   0.186  10.577  0.0649  0.4259 -0.0232
20659SOL    HW168835   5.013   0.227  10.499 -2.4584  2.4154 -0.3928
20659SOL    HW268836   4.918   0.117  10.542 -0.4678  0.8087  0.0555
20660SOL     OW68837  10.101   1.485   3.576  0.3527  0.5665  0.4290
20660SOL    HW168838  10.125   1.574   3.549 -0.4545  0.5971 -0.2171
20660SOL    HW268839  10.006   1.487   3.582  0.3279 -0.2786  0.3346
20661SOL     OW68840  10.489   0.432   0.108  0.1287 -0.2388  0.1083
20661SOL    HW168841  10.584   0.429   0.100  0.1397  2.7820 -2.3150
20661SOL    HW268842  10.466   0.524   0.095 -3.3105 -1.2578 -2.5187
20662SOL     OW68843   8.599   9.617   2.067 -0.0763  0.0888  0.6817
20662SOL    HW168844   8.541   9.665   2.008 -1.4079 -2.0025  0.1739
20662SOL    HW268845   8.630   9.683   2.129 -1.7361  1.5968 -0.0030
20663SOL     OW68846   6.168   8.555   0.661  0.1883 -0.4622 -0.3481
20663SOL    HW168847   6.206   8.641   0.680 -0.2845  0.0453 -1.5716
20663SOL    HW268848   6.100   8.573   0.596 -1.4196 -1.5017  0.9808
20664SOL     OW68849   7.805   4.237   3.362 -0.6042  0.3940  0.3652
20664SOL    HW168850   7.786   4.311   3.304 -1.1870  0.0718  0.1324
20664SOL    HW268851   7.856   4.176   3.308  0.1345  0.7520  0.6469
20665SOL     OW68852   5.175   1.634   1.292  0.2492 -0.3271 -0.4422
20665SOL    HW168853   5.121   1.710   1.267 -0.4782  0.0487  1.9797
20665SOL    HW268854   5.222   1.663   1.370  2.3229 -1.4192 -1.2098
20666SOL     OW68855   9.975  11.178   4.291 -0.2610  0.0838  0.7238
20666SOL    HW168856   9.926  11.258   4.272  2.2866  1.7293  0.6049
20666SOL    HW268857  10.047  11.207   4.346 -0.8610 -2.6812  3.1816
20667SOL     OW68858   1.862   8.035   7.767  0.3150 -0.0478 -0.2084
20667SOL    HW168859   1.794   8.093   7.732  1.4788  0.0650 -2.5137
20667SOL    HW268860   1.842   7.949   7.730  1.2503 -0.0667 -0.7100
20668SOL     OW68861   7.391   5.995   7.282  0.3336 -0.3627  0.0200
20668SOL    HW168862   7.376   5.964   7.372 -0.6772 -1.7468 -0.5845
20668SOL    HW268863   7.347   6.080   7.279 -2.3821 -1.6439  0.0316
20669SOL     OW68864   8.707   9.505  10.225  0.3091  0.1927  0.0119
20669SOL    HW168865   8.700   9.411  10.243  0.9745  0.3367  1.1417
20669SOL    HW268866   8.646   9.546  10.287  0.3816  0.5408 -0.1420
20670SOL     OW68867   6.288  10.734  12.419  0.1054  0.4967 -0.1507
20670SOL    HW168868   6.282  10.821  12.379  0.1171  0.1546 -0.9073
20670SOL    HW268869   6.295  10.752  12.513 -0.3059  1.3011 -0.2616
20671SOL     OW68870   6.376   8.375  10.078  0.4229 -0.5053 -0.6799
20671SOL    HW168871   6.453   8.380  10.135  0.1210  0.2210 -0.3195
20671SOL    HW268872   6.371   8.283  10.052  0.5040 -0.8851  0.5711
20672SOL     OW68873   7.883   2.733  11.552  0.3430  0.3396 -0.1506
20672SOL    HW168874   7.941   2.751  11.626 -1.0931  0.3239  1.0333
20672SOL    HW268875   7.921   2.782  11.479 -0.2142  3.4711  1.5021
20673SOL     OW68876   7.960   7.609   4.025  0.8775 -0.2758  0.2485
20673SOL    HW168877   7.918   7.676   3.971 -0.2243 -1.7473 -0.8007
20673SOL    HW268878   7.954   7.644   4.114 -0.4270  0.6532 -0.1705
20674SOL     OW68879   4.765  10.322   8.544  0.2744 -0.1262 -0.7319
20674SOL    HW168880   4.675  10.302   8.518  0.1875  0.4009 -0.8588
20674SOL    HW268881   4.775  10.280   8.630 -0.2535  0.2148 -0.4981
20675SOL     OW68882   0.337  12.319   4.767  0.4676  0.1095  0.3769
20675SOL    HW168883   0.366  12.229   4.783 -0.6413 -0.4152 -0.4611
20675SOL    HW268884   0.372  12.340   4.681 -0.0412  0.1409  0.1745
20676SOL     OW68885  12.211  10.347   4.052 -0.3785  0.4647 -0.1258
20676SOL    HW168886  12.160  10.417   4.092 -1.0124  0.0791 -0.2397
20676SOL    HW268887  12.157  10.316   3.979 -0.1163 -0.1457 -0.0700
20677SOL     OW68888   5.107   4.399   0.947  0.2457  0.3541 -0.2635
20677SOL    HW168889   5.037   4.438   1.000  1.2404  1.3961  0.3163
20677SOL    HW268890   5.061   4.356   0.875 -1.1089 -0.6168  1.1232
20678SOL     OW68891   2.804   8.219  11.695  0.1270 -0.2728  0.2522
20678SOL    HW168892   2.801   8.124  11.690  1.3638 -0.3779  1.1725
20678SOL    HW268893   2.874   8.245  11.636 -0.0667  0.0504  0.1598
20679SOL     OW68894   6.154   2.882   9.390  0.1384 -0.0943 -0.0486
20679SOL    HW168895   6.073   2.923   9.420  1.0023  0.8707  1.0549
20679SOL    HW268896   6.203   2.952   9.347  2.0462  0.4605  2.6701
20680SOL     OW68897  12.335   6.162   3.158  0.4715 -0.4297 -0.5104
20680SOL    HW168898  12.370   6.106   3.227 -0.3726  0.3143  0.5677
20680SOL    HW268899  12.398   6.234   3.151  0.0219  0.0655  0.2935
20681SOL     OW68900   2.353   3.382   1.505 -1.2679  0.8380  0.6458
20681SOL    HW168901   2.406   3.458   1.482  2.0117 -0.9838  1.4684
20681SOL    HW268902   2.302   3.410   1.581  1.1349  1.8193  2.0017
20682SOL     OW68903  12.450  10.867   0.718  0.6402  0.2446 -0.2558
20682SOL    HW168904  12.492  10.784   0.697 -0.3935 -0.5680  0.7430
20682SOL    HW268905  12.518  10.917   0.765  0.8615 -0.5889  0.3424
20683SOL     OW68906  10.836   8.501   9.550  0.1269 -0.0421 -0.0254
20683SOL    HW168907  10.765   8.539   9.603  0.0833  2.5869 -1.7578
20683SOL    HW268908  10.916   8.524   9.597 -0.0328 -2.2778  1.4918
20684SOL     OW68909   4.052   2.532   6.490  0.4539 -0.6819  0.1856
20684SOL    HW168910   4.052   2.527   6.585 -0.0514 -2.3783  0.1284
20684SOL    HW268911   3.963   2.508   6.465 -0.2081  2.2715 -0.6617
20685SOL     OW68912   0.744   7.537   9.826 -0.4322  0.1330 -0.7469
20685SOL    HW168913   0.665   7.590   9.817  0.1305  0.7339 -2.5819
20685SOL    HW268914   0.797   7.560   9.750  0.7175 -1.6031 -0.5244
20686SOL     OW68915   8.736   5.111  10.859  0.3505  0.1990 -0.3289
20686SOL    HW168916   8.799   5.040  10.872 -1.0397 -0.7873  1.4382
20686SOL    HW268917   8.780   5.188  10.895  1.4538  0.0493 -1.2819
20687SOL     OW68918   4.183  10.966   3.907  0.6052  0.2057  0.6732
20687SOL    HW168919   4.089  10.980   3.908  0.8871  3.0250 -1.4120
20687SOL    HW268920   4.193  10.875   3.877 -1.4539  0.3909 -0.8250
20688SOL     OW68921   2.116  12.170   0.783 -0.0930  0.2908 -0.5941
20688SOL    HW168922   2.113  12.206   0.695  0.7214 -0.2995 -0.8795
20688SOL    HW268923   2.182  12.100   0.778 -1.7118 -1.3643 -0.1132
20689SOL     OW68924   0.581   5.504   5.621  0.2166  0.3554  0.7527
20689SOL    HW168925   0.587   5.550   5.705 -1.2571 -1.4138  1.9126
20689SOL    HW268926   0.547   5.569   5.560 -0.7747  1.1224  2.0665
20690SOL     OW68927   5.275   0.348   7.753  0.0225  0.2439  0.4375
20690SOL    HW168928   5.236   0.363   7.839 -0.4501 -0.4916  0.3636
20690SOL    HW268929   5.248   0.423   7.701 -1.4962 -0.3382  0.3296
20691SOL     OW68930   3.404   8.547   7.025 -0.4197  0.1244 -0.8336
20691SOL    HW168931   3.496   8.542   6.999 -0.5382 -0.7370 -1.1152
20691SOL    HW268932   3.404   8.531   7.119 -0.2173  0.8511 -0.7056
20692SOL     OW68933  12.108   2.776  11.494 -0.0294  0.2742 -0.2338
20692SOL    HW168934  12.166   2.731  11.432 -1.9889 -2.4101 -0.2709
20692SOL    HW268935  12.136   2.867  11.490  3.2577 -0.6336 -1.2521
20693SOL     OW68936  12.244   1.623   5.317  0.7334  0.2730  0.1564
20693SOL    HW168937  12.220   1.531   5.323 -0.6827  0.4963 -1.4126
20693SOL    HW268938  12.335   1.622   5.287  0.9312 -0.5886  0.7385
20694SOL     OW68939   9.258  11.432  10.239  0.2196 -0.1314  0.4793
20694SOL    HW168940   9.342  11.410  10.198 -0.6472 -0.0880 -1.4163
20694SOL    HW268941   9.254  11.528  10.233 -0.7676 -0.2349 -1.2226
20695SOL     OW68942   8.980   6.037   6.456 -0.1821  0.1668 -0.2697
20695SOL    HW168943   8.891   6.010   6.436 -0.1994  0.4970 -0.6582
20695SOL    HW268944   9.033   5.958   6.444 -0.7270 -0.7183  2.4146
20696SOL     OW68945  11.414   6.907   3.923 -0.0304  0.2426  0.1738
20696SOL    HW168946  11.369   6.836   3.970 -0.0700  0.6147  0.7009
20696SOL    HW268947  11.369   6.911   3.838  1.6022 -2.0682 -0.9216
20697SOL     OW68948   8.077   1.550  12.509 -0.2760  0.0950  0.0480
20697SOL    HW168949   8.024   1.544  12.589 -1.4328 -1.4393 -0.7682
20697SOL    HW268950   8.108   1.461  12.495 -1.8292 -0.1751 -2.2934
20698SOL     OW68951   7.611  11.234   8.010  0.4384  0.2962  0.4395
20698SOL    HW168952   7.625  11.196   7.923  1.6188 -1.4831  1.3571
20698SOL    HW268953   7.680  11.300   8.019  0.4011  0.3825  0.1020
20699SOL     OW68954   5.158   5.755   4.020 -0.6013 -0.0002 -0.2873
20699SOL    HW168955   5.232   5.694   4.021  0.9069  1.7370 -0.0318
20699SOL    HW268956   5.101   5.725   4.091 -1.1785 -2.5077 -1.6967
20700SOL     OW68957  12.249  10.232   1.902 -0.1423 -0.7700  0.6744
20700SOL    HW168958  12.239  10.137   1.892  0.4984 -0.7999  0.2592
20700SOL    HW268959  12.319  10.242   1.966 -0.8809 -0.5658  1.4732
20701SOL     OW68960  10.728   7.369   9.874  0.6366 -0.5895  0.5601
20701SOL    HW168961  10.791   7.305   9.841 -0.8177 -1.4176 -0.7723
20701SOL    HW268962  10.677   7.322   9.940  1.0738 -0.0702  1.2857
20702SOL     OW68963  10.712   7.352   6.416 -0.0835 -0.1816  0.6040
20702SOL    HW168964  10.770   7.419   6.453 -2.2607  2.9658 -1.1912
20702SOL    HW268965  10.728   7.356   6.322 -0.8202 -1.6760  0.3864
20703SOL     OW68966   9.671   4.057   6.159  0.9879  0.6316 -0.4648
20703SOL    HW168967   9.597   4.024   6.210  0.4917  1.4015 -0.6704
20703SOL    HW268968   9.631   4.103   6.085  1.6111  2.5538  0.3424
20704SOL     OW68969   2.077   1.030   5.086 -0.5850  0.6714  0.0633
20704SOL    HW168970   2.046   1.009   5.174 -2.1186  0.5516 -0.4648
20704SOL    HW268971   2.040   0.960   5.031 -0.1633  1.0849 -0.7637
20705SOL     OW68972   0.904   6.958   5.562  0.0530 -0.2862  0.0663
20705SOL    HW168973   0.867   6.910   5.636 -0.7584  0.1558 -0.0381
20705SOL    HW268974   0.946   6.891   5.508  1.2484 -0.5198  1.2607
20706SOL     OW68975   8.359  11.310   1.246 -0.7537 -0.2165 -0.5630
20706SOL    HW168976   8.365  11.362   1.165 -1.3016  0.8227  0.0407
20706SOL    HW268977   8.449  11.288   1.267 -0.3909  1.4120 -0.2713
20707SOL     OW68978   7.922   9.380   7.013  0.6275 -0.4537 -0.1836
20707SOL    HW168979   7.982   9.382   7.088  1.9359  0.8159 -1.2021
20707SOL    HW268980   7.844   9.427   7.043  0.0876 -2.0867  1.1428
20708SOL     OW68981   8.902  10.980   1.628  0.4398 -0.0079 -0.1863
20708SOL    HW168982   8.934  10.962   1.540 -0.1723 -1.1506 -0.1942
20708SOL    HW268983   8.980  10.980   1.683  0.6504 -1.0403 -0.4642
20709SOL     OW68984   8.472   2.936   7.134 -0.2632  0.2190  0.3877
20709SOL    HW168985   8.451   2.864   7.075  0.0008  0.4834 -0.0333
20709SOL    HW268986   8.491   3.010   7.076  1.0024  0.2163  0.7777
20710SOL     OW68987   6.499   8.429   7.952 -0.0910 -0.2726 -0.1036
20710SOL    HW168988   6.573   8.370   7.937  0.6331  0.0864  1.7237
20710SOL    HW268989   6.504   8.493   7.881  1.4551 -0.1990  0.0403
20711SOL     OW68990   7.256   2.182   6.971  0.0462 -0.1027 -0.0965
20711SOL    HW168991   7.227   2.173   6.880 -0.0252  0.8098 -0.1733
20711SOL    HW268992   7.230   2.100   7.013 -1.0812 -0.0031 -0.5816
20712SOL     OW68993   1.926   1.777   2.292  0.4057  0.4934 -0.1594
20712SOL    HW168994   1.876   1.735   2.363  1.1814 -1.4125 -0.6880
20712SOL    HW268995   1.973   1.848   2.336  0.5857 -0.4113  1.2036
20713SOL     OW68996   8.685   1.499   9.217 -0.1926 -0.0525  0.1498
20713SOL    HW168997   8.713   1.421   9.167  0.8403 -0.4584  1.2942
20713SOL    HW268998   8.744   1.568   9.188 -0.3860  0.0246 -0.0626
20714SOL     OW68999   3.580   8.550   4.263 -0.8285 -0.3098 -0.0113
20714SOL    HW169000   3.663   8.526   4.223 -2.2934 -0.6501 -3.1504
20714SOL    HW269001   3.602   8.620   4.324  1.9386 -1.5044  0.5184
20715SOL     OW69002   3.347   4.546   5.139 -0.1747 -0.6342 -0.2251
20715SOL    HW169003   3.351   4.609   5.211  1.0841  0.2655 -1.0491
20715SOL    HW269004   3.254   4.529   5.128 -1.2129  4.6919 -3.0130
20716SOL     OW69005   6.552  10.749   1.829 -0.4090 -0.3578 -0.8144
20716SOL    HW169006   6.540  10.781   1.739  1.7667 -0.2735 -1.1423
20716SOL    HW269007   6.587  10.823   1.877  0.8742 -1.0924 -0.5663
20717SOL     OW69008   7.112   8.583   8.273  0.5981  0.2795 -0.7048
20717SOL    HW169009   7.102   8.496   8.311 -0.8520  0.3549 -0.8562
20717SOL    HW269010   7.039   8.634   8.308  0.5989  1.0324 -1.7276
20718SOL     OW69011   9.794   7.622   5.278  0.5010 -0.4164 -0.3492
20718SOL    HW169012   9.849   7.546   5.298  0.4369 -0.8835 -1.7983
20718SOL    HW269013   9.842   7.697   5.313  1.1159 -1.0196  0.1051
20719SOL     OW69014  11.734   3.928   3.794 -0.3970  0.2764 -0.1674
20719SOL    HW169015  11.648   3.931   3.754 -1.3380 -1.7888  1.5152
20719SOL    HW269016  11.794   3.909   3.721 -1.5556  0.1609 -1.1138
20720SOL     OW69017   4.884   8.042  11.005 -0.8137 -0.7133  0.0956
20720SOL    HW169018   4.880   7.997  10.920 -1.5877  1.0127 -0.8339
20720SOL    HW269019   4.794   8.040  11.037 -0.8802  0.2125 -0.0068
20721SOL     OW69020   1.601   4.315   2.326 -0.6706  0.0876  1.0574
20721SOL    HW169021   1.611   4.229   2.285 -0.8857  0.6198 -0.1693
20721SOL    HW269022   1.544   4.363   2.266 -0.5377  1.0947  1.7147
20722SOL     OW69023   1.007   1.874  10.728 -0.0107 -0.0478  0.1296
20722SOL    HW169024   0.935   1.864  10.666 -1.4543  0.4704  1.6621
20722SOL    HW269025   0.972   1.931  10.797  1.5203 -0.6053  1.4302
20723SOL     OW69026   6.691   5.973  11.951  0.6351  0.0477  0.3253
20723SOL    HW169027   6.654   5.951  11.866 -0.6553 -2.4765  1.4395
20723SOL    HW269028   6.723   5.890  11.986  0.2284  0.8133  2.7138
20724SOL     OW69029  11.083   3.026   2.372 -0.0549  0.3941  0.7991
20724SOL    HW169030  11.169   2.990   2.394 -0.2240 -0.4292  0.1681
20724SOL    HW269031  11.095   3.068   2.286 -0.1738  0.6881  0.9239
20725SOL     OW69032   4.021   8.147   6.936 -0.1000  0.0102 -0.1275
20725SOL    HW169033   4.048   8.072   6.884  1.0964 -0.6572  1.3499
20725SOL    HW269034   4.104   8.189   6.961 -0.6608  0.6736  0.6614
20726SOL     OW69035  11.244   3.595   2.723  0.1800  0.0903 -0.1315
20726SOL    HW169036  11.207   3.661   2.781  1.1203  1.2455 -0.8155
20726SOL    HW269037  11.242   3.635   2.636 -2.9713 -2.2893 -1.3636
20727SOL     OW69038  11.049   1.380   3.091  0.3703 -0.1295 -0.2383
20727SOL    HW169039  11.013   1.395   3.179  0.4230  0.3118 -0.2883
20727SOL    HW269040  11.120   1.444   3.084  0.1301  0.0844 -0.7363
20728SOL     OW69041  11.538   3.295  12.083 -0.0324  0.2423 -0.7635
20728SOL    HW169042  11.547   3.204  12.110  2.0689  0.3322 -0.9972
20728SOL    HW269043  11.585   3.300  12.000 -0.0379  1.5440 -0.7056
20729SOL     OW69044   6.018   4.781   7.688  0.5103 -0.0618  0.5930
20729SOL    HW169045   6.026   4.868   7.649 -1.5175  0.2566  0.7562
20729SOL    HW269046   6.106   4.745   7.686  1.2629  1.7254 -0.1160
20730SOL     OW69047   2.260   8.613   1.957 -0.0259 -0.3571  0.0380
20730SOL    HW169048   2.230   8.525   1.934 -0.1209 -0.0197 -1.1471
20730SOL    HW269049   2.243   8.666   1.880 -0.8660  0.9310  1.0542
20731SOL     OW69050  10.429   4.350   3.782  0.3598 -0.3269  0.0519
20731SOL    HW169051  10.385   4.430   3.752 -0.0807 -0.4294  0.4137
20731SOL    HW269052  10.424   4.355   3.878  0.4283 -0.7361  0.0774
20732SOL     OW69053   9.393   9.600   5.580  0.2958 -0.6485  0.1284
20732SOL    HW169054   9.409   9.657   5.655 -1.0401 -0.3393  0.2065
20732SOL    HW269055   9.360   9.659   5.512 -0.0028 -1.1576 -0.1749
20733SOL     OW69056   8.155   9.794   1.189 -0.7290  0.7044  0.2796
20733SOL    HW169057   8.182   9.859   1.124 -0.6774  0.4751  0.0710
20733SOL    HW269058   8.119   9.846   1.261 -1.5388  0.9303 -0.2734
20734SOL     OW69059   7.431   7.277   0.039 -0.3921 -0.2767  0.1184
20734SOL    HW169060   7.348   7.230   0.028 -0.3412 -0.6042  1.0499
20734SOL    HW269061   7.491   7.213   0.076 -0.4379  0.5841  1.8065
20735SOL     OW69062   6.814   5.759  11.771  0.4370 -0.0614 -0.3200
20735SOL    HW169063   6.739   5.813  11.748  2.2321  0.6204 -6.3389
20735SOL    HW269064   6.796   5.674  11.731  1.5576 -0.9769  1.0161
20736SOL     OW69065   3.884   1.605   5.727  0.3637  0.0380 -0.4503
20736SOL    HW169066   3.861   1.660   5.802 -3.2216  0.4979 -1.6959
20736SOL    HW269067   3.963   1.646   5.691 -0.1828  2.2906  0.7036
20737SOL     OW69068   8.105  10.327   9.190  0.2642 -0.3984  0.2115
20737SOL    HW169069   8.173  10.289   9.134  1.1592 -1.2596  1.8354
20737SOL    HW269070   8.136  10.416   9.209 -0.0701 -0.0802 -0.6565
20738SOL     OW69071  11.995   5.832   1.786  0.0167  0.0204  0.3343
20738SOL    HW169072  11.911   5.804   1.820  0.1857  0.9541  1.6382
20738SOL    HW269073  12.056   5.821   1.859  1.4452 -2.2845 -1.0863
20739SOL     OW69074   1.461   4.827   2.497  0.0492 -0.3646 -0.2305
20739SOL    HW169075   1.398   4.782   2.441 -0.1780 -1.4219  0.8541
20739SOL    HW269076   1.458   4.918   2.467 -0.9371 -0.6709 -1.1328
20740SOL     OW69077   1.776   0.661  12.293 -0.8001  0.4390 -0.1830
20740SOL    HW169078   1.706   0.721  12.319 -1.2807  0.0957 -0.6615
20740SOL    HW269079   1.754   0.635  12.203  0.3489  0.9145 -0.6297
20741SOL     OW69080   1.080   1.196   9.988  0.1545 -0.3189 -0.3441
20741SOL    HW169081   1.158   1.248   9.969 -0.2563  1.4237  2.1653
20741SOL    HW269082   1.007   1.258   9.980 -0.4662 -0.7037  1.6261
20742SOL     OW69083  11.121   5.822   8.773  0.1345 -0.1790 -0.3630
20742SOL    HW169084  11.157   5.802   8.686  0.3842  0.3454 -0.3811
20742SOL    HW269085  11.045   5.877   8.755  0.0531 -0.2573 -0.2580
20743SOL     OW69086   2.046   2.501   3.599  0.6375 -0.4814 -0.1303
20743SOL    HW169087   2.106   2.556   3.649  0.5932 -0.3214 -0.2543
20743SOL    HW269088   2.103   2.440   3.553  0.7330 -0.0318 -0.6114
20744SOL     OW69089   4.954   5.300   6.690  0.2812  0.8046 -0.2028
20744SOL    HW169090   5.009   5.378   6.683  1.5318  0.0063  0.2673
20744SOL    HW269091   4.921   5.302   6.780 -0.0519  1.0119 -0.3266
20745SOL     OW69092   8.409   3.038   3.019 -0.2182  0.0115 -0.4548
20745SOL    HW169093   8.440   3.121   2.983  0.3902 -0.2365 -0.5131
20745SOL    HW269094   8.329   3.019   2.970 -0.1040  0.3257 -0.7679
20746SOL     OW69095  10.872   4.269   6.482 -0.2423  0.0612 -0.2687
20746SOL    HW169096  10.866   4.358   6.514  0.9955  1.7001 -4.0470
20746SOL    HW269097  10.964   4.244   6.494  0.1151  0.5001 -1.8486
20747SOL     OW69098  11.116   0.375   0.452 -0.6725 -0.0733  0.0452
20747SOL    HW169099  11.176   0.342   0.385 -0.4519 -0.1764  0.2897
20747SOL    HW269100  11.133   0.470   0.454 -2.8563  0.4682 -2.2030
20748SOL     OW69101   3.531   7.757   4.503 -0.5456 -0.0770  0.2000
20748SOL    HW169102   3.523   7.663   4.519  0.8528 -0.1614  0.5169
20748SOL    HW269103   3.524   7.797   4.590  0.5864 -0.0363  0.2843
20749SOL     OW69104   6.231   2.762   8.456 -0.1922 -0.1602  0.1420
20749SOL    HW169105   6.179   2.781   8.534 -0.2907 -1.2668  0.3668
20749SOL    HW269106   6.167   2.755   8.385 -0.2256 -0.2968  0.1844
20750SOL     OW69107   9.766   3.656   3.708  0.0119  0.2410 -0.2374
20750SOL    HW169108   9.812   3.711   3.772  0.7339 -1.1665  0.5143
20750SOL    HW269109   9.727   3.587   3.761  2.6946 -2.4166 -1.4411
20751SOL     OW69110   3.951   7.704  10.958 -0.2684 -0.1079 -0.1290
20751SOL    HW169111   4.021   7.683  10.897 -0.8013 -0.0175 -0.7922
20751SOL    HW269112   3.982   7.782  11.005  0.0089  0.0283 -0.5340
20752SOL     OW69113   3.980  11.799  12.178  0.1641 -0.2375 -0.0636
20752SOL    HW169114   3.986  11.707  12.203  1.7601 -0.2657 -0.4534
20752SOL    HW269115   4.011  11.847  12.254  4.5858 -0.3080 -1.5515
20753SOL     OW69116   5.111   4.954  11.556 -0.4966  0.8641  0.4545
20753SOL    HW169117   5.103   5.043  11.522 -0.6910  0.4071 -0.7345
20753SOL    HW269118   5.038   4.945  11.617  0.0062  1.7797  1.2097
20754SOL     OW69119  10.651  11.554   2.506  0.4777 -0.4977 -0.1782
20754SOL    HW169120  10.665  11.545   2.600 -0.9657 -0.9035  0.0316
20754SOL    HW269121  10.570  11.504   2.489 -0.0682  0.7347 -1.3839
20755SOL     OW69122   6.127   3.688  11.246  0.7033 -0.5982  0.1853
20755SOL    HW169123   6.221   3.701  11.231  0.5777  1.7869  1.0070
20755SOL    HW269124   6.089   3.686  11.158  1.5241 -1.8481 -0.1636
20756SOL     OW69125   7.460  10.164   3.728 -0.2267 -0.1286 -0.3360
20756SOL    HW169126   7.421  10.113   3.799 -1.6977  0.7300 -0.4940
20756SOL    HW269127   7.456  10.106   3.651 -0.6704 -0.2514 -0.2193
20757SOL     OW69128   0.572   9.224  12.144  0.1981  0.4232  0.2014
20757SOL    HW169129   0.624   9.150  12.175 -0.6039  1.0182  3.2479
20757SOL    HW269130   0.499   9.230  12.205 -1.6362  1.7073 -1.9482
20758SOL     OW69131   8.313   1.806   8.313 -0.1684  0.3022  0.3006
20758SOL    HW169132   8.380   1.748   8.277 -1.6301 -0.7392 -0.8885
20758SOL    HW269133   8.346   1.831   8.399  2.5901  1.3437 -0.9457
20759SOL     OW69134   2.607   2.456   6.011  0.1387  0.1174 -0.4557
20759SOL    HW169135   2.632   2.534   5.962  0.2453 -0.5983 -1.5681
20759SOL    HW269136   2.548   2.489   6.079  1.0481  1.3034 -0.2062
20760SOL     OW69137   1.996   8.217   3.519  0.5993  0.1049 -0.9858
20760SOL    HW169138   1.919   8.162   3.506  0.0036  1.2132 -2.5765
20760SOL    HW269139   1.961   8.299   3.554  1.1489  0.3309 -0.9497
20761SOL     OW69140   3.288   1.774   6.484 -0.0523  0.0202 -0.4704
20761SOL    HW169141   3.306   1.867   6.474  2.2495 -0.2933  0.2213
20761SOL    HW269142   3.349   1.744   6.552 -0.7139 -1.9948 -0.6838
20762SOL     OW69143   0.699   8.152  10.266 -0.1257 -0.0746  0.0506
20762SOL    HW169144   0.654   8.068  10.263  0.5285 -0.4268 -0.0876
20762SOL    HW269145   0.747   8.150  10.349  0.3634 -0.0892 -0.2303
20763SOL     OW69146   0.762  10.974   9.854 -0.2111  0.2389  0.4098
20763SOL    HW169147   0.856  10.962   9.846 -0.1022  1.1098  0.3535
20763SOL    HW269148   0.751  11.039   9.923 -0.6128  2.7091 -1.8356
20764SOL     OW69149   8.207   6.597   2.645  0.0767 -0.2940  0.5248
20764SOL    HW169150   8.165   6.587   2.560  1.8896 -0.3495 -0.4028
20764SOL    HW269151   8.138   6.573   2.708 -1.2842 -0.2967 -0.8925
20765SOL     OW69152  10.093   3.695   9.737 -0.9276 -0.0957 -0.0460
20765SOL    HW169153  10.138   3.678   9.654  0.4042  0.0731  0.6178
20765SOL    HW269154  10.056   3.783   9.727  0.4826  0.5335  0.0543
20766SOL     OW69155   3.591   9.680  10.749  0.1293  0.0963  0.3476
20766SOL    HW169156   3.611   9.630  10.828  1.0329  1.1567  0.8163
20766SOL    HW269157   3.527   9.745  10.777 -0.8700 -0.6121 -0.2087
20767SOL     OW69158   0.216   2.186   5.697 -0.4457 -0.0837 -0.7749
20767SOL    HW169159   0.238   2.227   5.780  0.0665 -1.2982 -0.2842
20767SOL    HW269160   0.212   2.092   5.717  1.2454 -0.5647 -2.4489
20768SOL     OW69161   6.514   7.126   3.138  0.4781 -0.3463 -0.0754
20768SOL    HW169162   6.528   7.052   3.079 -0.9467  1.0518 -2.3748
20768SOL    HW269163   6.459   7.092   3.208 -1.7356 -1.1599 -2.0653
20769SOL     OW69164  11.442   0.079   3.541 -0.4565 -0.0604 -0.1649
20769SOL    HW169165  11.434   0.109   3.631 -0.2926  0.3860 -0.2983
20769SOL    HW269166  11.366   0.114   3.496 -1.1410 -1.2133  0.0432
20770SOL     OW69167   2.350   1.398   2.765  0.5506  0.1729 -0.0744
20770SOL    HW169168   2.351   1.305   2.789  2.7188  0.1363 -0.1075
20770SOL    HW269169   2.346   1.398   2.670 -0.6398  0.1775 -0.0468
20771SOL     OW69170   1.883   6.768   2.103  0.4446 -0.4380 -0.0979
20771SOL    HW169171   1.832   6.707   2.157  1.3933  0.3756  1.8224
20771SOL    HW269172   1.914   6.834   2.165 -0.5951  2.0749 -2.0880
20772SOL     OW69173   9.347  12.504   5.860  0.6369 -0.2236 -0.2657
20772SOL    HW169174   9.292  12.493   5.782 -0.8061  2.0130  0.3444
20772SOL    HW269175   9.432  12.532   5.825  0.0814  0.5080 -1.0678
20773SOL     OW69176   7.250   9.481   2.446  0.6046 -0.1714 -0.5102
20773SOL    HW169177   7.266   9.507   2.355  0.3792 -1.2744 -0.8831
20773SOL    HW269178   7.312   9.533   2.497 -0.4230  1.7337 -1.1055
20774SOL     OW69179   4.198   9.809  11.889 -0.0212  0.4056 -0.0365
20774SOL    HW169180   4.129   9.743  11.882 -0.4441  0.8150  0.2119
20774SOL    HW269181   4.280   9.758  11.890 -0.1125  0.0125 -2.9361
20775SOL     OW69182   6.233   8.953   6.624  0.3380 -0.3271  0.0788
20775SOL    HW169183   6.306   8.920   6.678 -1.2411 -1.9228  1.3721
20775SOL    HW269184   6.155   8.915   6.665 -1.2667  1.6550 -1.0187
20776SOL     OW69185   0.763   9.050   6.609 -0.3273  0.4414 -0.4195
20776SOL    HW169186   0.708   9.021   6.682 -0.4119 -1.1128 -1.0712
20776SOL    HW269187   0.830   9.106   6.649 -0.6953  0.0437  0.7677
20777SOL     OW69188   7.526   1.057   8.917  0.3008 -0.1275 -0.3230
20777SOL    HW169189   7.434   1.082   8.926  0.3266  0.2538 -1.0259
20777SOL    HW269190   7.567   1.132   8.873  0.6087 -0.9776 -1.5027
20778SOL     OW69191   4.099   7.693   4.284  0.2262 -0.1201 -0.1985
20778SOL    HW169192   4.016   7.652   4.259  0.5345 -0.9793  0.1764
20778SOL    HW269193   4.116   7.662   4.373  1.4888 -0.8257 -0.6617
20779SOL     OW69194   7.569   4.175   9.931  1.0056 -0.3416 -0.6009
20779SOL    HW169195   7.562   4.082   9.951 -0.9882 -0.3920 -1.2508
20779SOL    HW269196   7.557   4.180   9.836  0.6993  0.5949 -0.5238
20780SOL     OW69197  10.250   8.033  12.499 -0.5758 -0.2648 -0.1121
20780SOL    HW169198  10.335   7.989  12.489 -1.5607 -2.4363  0.5499
20780SOL    HW269199  10.221   8.049  12.409  0.2054 -0.1508 -0.3560
20781SOL     OW69200   5.909   0.305   9.909 -0.4349 -0.2715  0.0964
20781SOL    HW169201   5.892   0.250   9.985 -1.1956 -0.4899 -0.2177
20781SOL    HW269202   5.888   0.394   9.939 -0.9243 -0.3810  0.0925
20782SOL     OW69203  12.010   4.712  12.208  0.7138 -0.4451  0.4058
20782SOL    HW169204  12.017   4.726  12.303  0.3434  0.2345  0.3399
20782SOL    HW269205  11.919   4.733  12.188  0.8208 -0.4771 -0.1191
20783SOL     OW69206   3.841   9.749   1.053  0.2857  0.5766  0.1859
20783SOL    HW169207   3.803   9.750   0.965 -1.0575  0.8153  0.7407
20783SOL    HW269208   3.888   9.832   1.059 -1.1399  1.4280  0.2890
20784SOL     OW69209  10.192   2.480   5.920 -0.0265 -0.0011 -1.0084
20784SOL    HW169210  10.214   2.496   5.828  0.6877  3.8675 -0.3662
20784SOL    HW269211  10.261   2.525   5.968 -1.8461  0.4540  1.3528
20785SOL     OW69212   5.577   4.307  10.114  0.0818 -0.6674 -0.0391
20785SOL    HW169213   5.500   4.254  10.099 -0.2672  0.1280 -1.2311
20785SOL    HW269214   5.562   4.348  10.199 -0.2747 -1.4016  0.2543
20786SOL     OW69215   8.021  11.541   0.702  0.1562  0.6406 -0.9210
20786SOL    HW169216   8.020  11.622   0.752 -0.2091  0.3455 -0.4375
20786SOL    HW269217   7.978  11.477   0.759  0.6477  0.0501 -1.1977
20787SOL     OW69218   2.152  10.109   7.724  0.8635 -0.3650  0.9687
20787SOL    HW169219   2.184  10.100   7.634 -0.4215 -1.4724  0.5936
20787SOL    HW269220   2.191  10.190   7.755  0.2362  0.8042 -1.0824
20788SOL     OW69221   1.489   2.209  10.664 -0.3482 -0.0433 -0.5209
20788SOL    HW169222   1.436   2.219  10.585 -0.6418  0.4097 -0.2687
20788SOL    HW269223   1.535   2.126  10.651 -2.2658 -1.2460 -0.0861
20789SOL     OW69224  12.529  12.494  11.930 -0.1463  0.3621 -0.5401
20789SOL    HW169225  12.608  12.444  11.947 -0.2317  0.6589  0.8182
20789SOL    HW269226  12.547  12.541  11.849  0.9570  0.2194 -0.3880
20790SOL     OW69227   6.309   1.949   3.903 -0.1748  0.0767  0.4205
20790SOL    HW169228   6.328   1.973   3.993  0.5766  0.9541  0.0392
20790SOL    HW269229   6.387   1.974   3.854 -1.0917  0.8485 -0.6853
20791SOL     OW69230   7.370  12.318  12.543 -0.2220 -0.5150 -0.2516
20791SOL    HW169231   7.387  12.267  12.623 -1.0506  1.5527  1.3332
20791SOL    HW269232   7.456  12.354  12.519 -0.1062 -0.4837  0.2007
20792SOL     OW69233   2.103   9.952   3.348 -0.0535 -0.0237  0.0464
20792SOL    HW169234   2.088   9.880   3.408 -0.4781 -0.0263 -0.0574
20792SOL    HW269235   2.183   9.995   3.380  0.1997 -0.5343  0.1057
20793SOL     OW69236   4.886  11.344   7.700 -0.1429  0.1253  0.6351
20793SOL    HW169237   4.824  11.274   7.679 -1.7565  1.5758  0.3515
20793SOL    HW269238   4.871  11.364   7.792  0.9691 -0.4878  0.9741
20794SOL     OW69239  11.784   3.807   4.037 -0.5446 -0.4083  0.3441
20794SOL    HW169240  11.753   3.873   4.098 -1.1172  0.5256 -0.8972
20794SOL    HW269241  11.770   3.846   3.950  0.6722 -1.4806 -0.3781
20795SOL     OW69242   7.208   9.880   4.188  0.6337 -0.0811 -0.3352
20795SOL    HW169243   7.202   9.969   4.223  1.3575  0.5725 -1.7896
20795SOL    HW269244   7.302   9.865   4.178  0.7127 -2.0039  2.2013
20796SOL     OW69245   3.793   7.075  11.638 -0.1717 -0.3476  0.8199
20796SOL    HW169246   3.777   7.084  11.544 -1.3073 -0.5726  0.9780
20796SOL    HW269247   3.764   6.986  11.658 -2.7885  0.6712  1.9077
20797SOL     OW69248  10.042   6.214  11.976 -0.2608 -0.4981 -0.3740
20797SOL    HW169249  10.100   6.166  12.036  1.0961  1.4618 -0.0231
20797SOL    HW269250  10.101   6.250  11.910 -0.4531  3.9391  1.5378
20798SOL     OW69251   3.269   8.962   1.394  0.3055 -0.5940 -0.0608
20798SOL    HW169252   3.309   9.044   1.421  1.5006 -0.6088 -1.6276
20798SOL    HW269253   3.343   8.902   1.381 -0.4839 -1.6934  0.2984
20799SOL     OW69254  12.401   0.347   1.202  0.3940 -0.2384 -0.3020
20799SOL    HW169255  12.377   0.271   1.255 -0.0035 -0.2193 -0.4492
20799SOL    HW269256  12.481   0.381   1.242  0.2541 -0.3942  0.1092
20800SOL     OW69257  10.634   0.805   0.502  0.4071  0.3615  0.1892
20800SOL    HW169258  10.670   0.721   0.473 -2.5914 -0.6483 -1.1108
20800SOL    HW269259  10.701   0.869   0.481  1.7429 -1.4162 -1.2923
20801SOL     OW69260   6.070   1.097   9.447 -1.0135 -0.1651 -0.2770
20801SOL    HW169261   6.082   1.002   9.440 -0.5369 -0.1779  0.6163
20801SOL    HW269262   5.990   1.114   9.398 -0.4386 -0.8525 -1.5163
20802SOL     OW69263   7.269   0.481  10.057 -0.5215  0.1757 -0.0469
20802SOL    HW169264   7.225   0.558  10.091  0.2901  0.8931 -0.5740
20802SOL    HW269265   7.278   0.497   9.963  1.3957  0.3704  0.1159
20803SOL     OW69266   4.133   9.628   2.164 -0.6566  0.2460 -0.0151
20803SOL    HW169267   4.107   9.570   2.092  0.2942  0.3260 -0.4439
20803SOL    HW269268   4.213   9.588   2.199 -1.1933  0.1258  1.1039
20804SOL     OW69269   6.202   7.145   9.005  0.4352  0.5175 -0.7104
20804SOL    HW169270   6.289   7.166   9.041  0.8570 -0.1163 -1.3475
20804SOL    HW269271   6.141   7.170   9.075  1.0846  1.5023 -0.4699
20805SOL     OW69272   0.540   5.385  10.736 -0.2729 -0.2038 -0.3193
20805SOL    HW169273   0.601   5.459  10.737 -1.6954  1.0584  0.8865
20805SOL    HW269274   0.499   5.388  10.650 -2.9804  2.9283  0.8165
20806SOL     OW69275  11.355   4.172   2.740  0.7528  0.3139 -0.6966
20806SOL    HW169276  11.367   4.217   2.824  0.2886  0.2130 -0.5747
20806SOL    HW269277  11.260   4.158   2.734  0.8476 -0.2153 -0.9611
20807SOL     OW69278   9.660   5.295   9.100  0.2569 -0.8042 -0.0217
20807SOL    HW169279   9.747   5.330   9.118  0.4424 -1.6657  0.8776
20807SOL    HW269280   9.668   5.253   9.014  0.8031 -1.0979  0.1700
20808SOL     OW69281   3.594  12.527   3.408 -0.7156 -0.7862  0.0653
20808SOL    HW169282   3.674  12.488   3.444 -0.7153 -0.9009 -0.0600
20808SOL    HW269283   3.539  12.544   3.485 -0.4560 -0.4443  0.1804
20809SOL     OW69284   8.460   9.249   7.445  0.3027  0.2287  0.5186
20809SOL    HW169285   8.413   9.169   7.420  1.0252 -0.5000  1.4368
20809SOL    HW269286   8.434   9.265   7.535 -0.5913  1.6135  0.0562
20810SOL     OW69287   0.731  10.846   1.786  0.2906 -0.0268 -0.4888
20810SOL    HW169288   0.683  10.803   1.857 -1.8371  2.8467 -0.0258
20810SOL    HW269289   0.665  10.864   1.719  1.5172  0.6360 -1.5815
20811SOL     OW69290   2.916  10.439   0.457 -0.0260  0.1846 -0.5896
20811SOL    HW169291   2.856  10.380   0.502  0.6771 -0.8848 -1.0080
20811SOL    HW269292   3.003  10.400   0.471  0.5634  1.5917 -0.1548
20812SOL     OW69293  10.141   5.201  10.497 -0.1438  0.3362 -0.4131
20812SOL    HW169294  10.158   5.123  10.444  0.3684  0.4178 -0.3662
20812SOL    HW269295  10.193   5.270  10.456  2.9990 -0.3185  2.1323
20813SOL     OW69296   9.688   1.125   1.446 -0.2033 -0.0433  0.6001
20813SOL    HW169297   9.761   1.077   1.406  0.7855  0.0096  2.2335
20813SOL    HW269298   9.635   1.154   1.372  0.8677 -0.9773 -0.5871
20814SOL     OW69299  10.591   0.344   1.557  0.3623 -0.8825 -0.4482
20814SOL    HW169300  10.681   0.332   1.586  0.3989  1.2467  0.4396
20814SOL    HW269301  10.540   0.283   1.612  1.0553 -0.7912  0.3110
20815SOL     OW69302  10.805   7.193   6.982  0.3493 -0.2481  0.4309
20815SOL    HW169303  10.843   7.230   6.902 -2.2622 -1.0953 -1.3147
20815SOL    HW269304  10.857   7.114   6.998 -0.2106 -1.0678 -1.5396
20816SOL     OW69305   1.465   9.238  10.516  0.2188  0.5881  0.4552
20816SOL    HW169306   1.435   9.184  10.443 -1.4587  0.9111  0.8750
20816SOL    HW269307   1.557   9.214  10.527  0.4482  0.3470 -1.5807
20817SOL     OW69308  12.237   2.434   4.906  0.5025 -0.0524  0.0292
20817SOL    HW169309  12.210   2.480   4.985  1.0377 -0.7112  0.6110
20817SOL    HW269310  12.272   2.503   4.849  1.2137  0.2929  0.8494
20818SOL     OW69311   3.444   4.150   8.938 -0.1671  0.5681  0.4267
20818SOL    HW169312   3.534   4.117   8.937  0.1571  1.4330  0.3367
20818SOL    HW269313   3.436   4.196   9.022 -0.6279  0.2110  0.5780
20819SOL     OW69314  10.141   5.255   5.557  0.4530  0.5850  0.3136
20819SOL    HW169315  10.199   5.223   5.488  0.5904  0.2202  0.5967
20819SOL    HW269316  10.199   5.270   5.632  0.1516  0.0132  0.6649
20820SOL     OW69317   2.731   0.952   7.300  0.6412  0.6760  0.2976
20820SOL    HW169318   2.805   0.976   7.245 -1.0900  0.2294 -2.4389
20820SOL    HW269319   2.746   0.998   7.383  2.8756  2.2278 -0.8733
20821SOL     OW69320   7.078   6.858   7.911 -0.1226  0.1623  0.2809
20821SOL    HW169321   7.040   6.941   7.881 -0.9125  0.3594  1.7425
20821SOL    HW269322   7.052   6.852   8.003 -0.1110 -1.7394  0.1885
20822SOL     OW69323   9.632   9.710  11.656  0.0997 -0.0665  0.3151
20822SOL    HW169324   9.671   9.628  11.624  0.2664 -0.3936  1.3395
20822SOL    HW269325   9.649   9.710  11.750  0.0707  1.1341  0.3381
20823SOL     OW69326   0.533  12.395  11.960  0.0275 -0.7116  0.5525
20823SOL    HW169327   0.528  12.430  11.871  1.2022  0.8250  1.0284
20823SOL    HW269328   0.508  12.303  11.952  0.4778 -0.7061 -1.4237
20824SOL     OW69329   0.664   5.314   0.031 -0.4059 -0.2018  0.3171
20824SOL    HW169330   0.581   5.328   0.078 -0.0161 -0.3308  1.0597
20824SOL    HW269331   0.731   5.315   0.100  0.1494 -0.6737 -0.2064
20825SOL     OW69332   2.036  11.753   9.321 -0.5388 -0.0905  0.0285
20825SOL    HW169333   2.091  11.830   9.328 -0.6766  0.0763 -0.6450
20825SOL    HW269334   1.974  11.774   9.251 -0.1069 -1.0838 -0.6810
20826SOL     OW69335   1.111   2.015   7.325 -0.3484  0.2812 -0.2211
20826SOL    HW169336   1.135   2.090   7.271  2.8891 -1.3403 -1.2562
20826SOL    HW269337   1.027   1.986   7.290  0.4830  0.7820 -2.7979
20827SOL     OW69338   2.621   5.410  12.038 -0.3316 -0.3442 -0.4230
20827SOL    HW169339   2.695   5.463  12.010 -0.7168  0.4229 -0.0333
20827SOL    HW269340   2.645   5.320  12.015 -0.3836  0.1669 -2.6312
20828SOL     OW69341   7.351   2.896   7.842  0.1169  0.0707 -0.4068
20828SOL    HW169342   7.434   2.924   7.804  0.5286 -1.5993 -0.8051
20828SOL    HW269343   7.316   2.974   7.885  1.2811  1.1201 -1.3156
20829SOL     OW69344  10.721   1.661   0.323  0.9892  0.0484  0.1765
20829SOL    HW169345  10.747   1.736   0.378  0.4410  0.6146 -0.3284
20829SOL    HW269346  10.632   1.681   0.296  0.7597 -0.9068  0.2161
20830SOL     OW69347   8.956  12.359   7.852  0.4542 -0.2550  0.0079
20830SOL    HW169348   8.936  12.419   7.780  2.3371  0.6109  0.1698
20830SOL    HW269349   8.943  12.272   7.814  1.1117  0.1933 -1.3003
20831SOL     OW69350  10.524   2.361   8.479  0.0461 -0.0533  0.4161
20831SOL    HW169351  10.619   2.369   8.483 -0.0988  1.7638  1.1303
20831SOL    HW269352  10.499   2.408   8.399 -0.3560  1.1335  1.2011
20832SOL     OW69353   9.073   0.813   7.698  0.0303  0.6841 -0.0986
20832SOL    HW169354   9.138   0.870   7.657 -0.7523  0.8093 -1.2066
20832SOL    HW269355   9.071   0.735   7.642 -0.6224  0.5938  0.0443
20833SOL     OW69356   9.475   1.984   5.042 -0.0235  0.0749  0.2043
20833SOL    HW169357   9.482   1.901   4.994  3.0909  1.1352 -1.5183
20833SOL    HW269358   9.495   1.960   5.133 -0.4791 -1.2389 -0.0124
20834SOL     OW69359   6.141   6.146   3.070  0.0752 -0.3803  0.1725
20834SOL    HW169360   6.232   6.120   3.082  0.4403  0.3147 -0.9945
20834SOL    HW269361   6.145   6.222   3.011 -1.3504 -1.3463 -1.2452
20835SOL     OW69362   8.661   4.084   8.363 -0.3401 -0.1782  0.0051
20835SOL    HW169363   8.572   4.094   8.327  0.0917  0.4785 -0.9168
20835SOL    HW269364   8.700   4.171   8.354  0.3366 -0.4146  0.6008
20836SOL     OW69365   9.552   8.405  12.153  0.5937  0.1169 -0.3085
20836SOL    HW169366   9.488   8.403  12.224  1.7226  2.7089  0.9159
20836SOL    HW269367   9.538   8.489  12.110  1.1115 -0.6488 -2.0663
20837SOL     OW69368   0.923   7.426   9.177  0.0181  0.0538 -0.3769
20837SOL    HW169369   0.902   7.431   9.270 -0.5625  2.0499 -0.5607
20837SOL    HW269370   0.882   7.345   9.147 -1.8174  0.5533  0.6401
20838SOL     OW69371  11.952   7.760  10.420  0.2122 -0.0581  0.4385
20838SOL    HW169372  12.025   7.794  10.368 -1.1479 -0.4465 -1.9028
20838SOL    HW269373  11.904   7.839  10.447  0.4414  0.1282  0.3097
20839SOL     OW69374   2.917  10.816   1.121 -0.0137  0.4525  0.1116
20839SOL    HW169375   2.868  10.891   1.088 -0.2487 -0.4404 -1.7214
20839SOL    HW269376   2.950  10.844   1.206 -1.5268  1.9986  0.2421
20840SOL     OW69377   9.709   1.781  12.233 -0.6980  0.2181  0.5514
20840SOL    HW169378   9.620   1.753  12.212 -0.2854 -0.9293  0.2571
20840SOL    HW269379   9.744   1.709  12.286  0.5381 -0.0247 -0.5596
20841SOL     OW69380   7.940   2.904   0.683 -0.3240 -0.5412 -0.2365
20841SOL    HW169381   7.846   2.907   0.669 -0.6044  0.1120  1.5230
20841SOL    HW269382   7.955   2.820   0.728 -0.3800  0.2177  1.2617
20842SOL     OW69383  11.768  10.570  10.832 -0.5879 -0.3570  0.2311
20842SOL    HW169384  11.788  10.616  10.913  0.1281 -0.0107 -0.1338
20842SOL    HW269385  11.722  10.635  10.778 -0.1481 -0.2708 -0.0378
20843SOL     OW69386   4.725  11.870   1.945 -0.6119  0.3843  0.2021
20843SOL    HW169387   4.692  11.856   1.856  0.3258 -0.1748 -0.0643
20843SOL    HW269388   4.684  11.952   1.973  2.2414  2.9111 -2.2900
20844SOL     OW69389   1.775   0.701   4.394  0.2345  0.1436 -0.4917
20844SOL    HW169390   1.808   0.789   4.410 -0.2039  0.0528  1.0554
20844SOL    HW269391   1.681   0.706   4.415  0.3307 -0.8328  0.2285
20845SOL     OW69392  11.816  10.010   9.639  0.2633 -0.1599  0.2197
20845SOL    HW169393  11.767   9.941   9.595  1.8098 -0.5832 -0.9360
20845SOL    HW269394  11.904   9.974   9.649  1.1403  1.6363 -0.4802
20846SOL     OW69395   6.983   6.047   3.882  0.3457 -0.8822 -0.4856
20846SOL    HW169396   7.037   6.119   3.914 -1.0886  0.4583 -0.9131
20846SOL    HW269397   7.041   5.996   3.826  1.4208 -0.0803 -0.1307
20847SOL     OW69398   7.304   6.925   5.954 -0.4390 -0.4434  0.0858
20847SOL    HW169399   7.248   6.987   6.000 -0.0362 -0.0175  0.0141
20847SOL    HW269400   7.393   6.955   5.973 -0.2580 -0.4644 -0.6905
20848SOL     OW69401   3.524   1.460   4.230  0.1993 -0.0301  0.1926
20848SOL    HW169402   3.483   1.513   4.163 -0.3219  0.0515  0.5676
20848SOL    HW269403   3.616   1.454   4.204 -0.2454 -1.1022 -1.2211
20849SOL     OW69404   8.265   1.410  12.121 -0.1817 -0.7210  0.3293
20849SOL    HW169405   8.174   1.394  12.094 -0.2054 -1.1822  0.6638
20849SOL    HW269406   8.292   1.328  12.162 -0.4236  0.1898  2.4462
20850SOL     OW69407   9.012   3.644   9.199 -0.2138 -0.6539 -0.4202
20850SOL    HW169408   8.980   3.713   9.141 -0.2671 -1.1874 -1.0395
20850SOL    HW269409   8.950   3.643   9.272 -1.1178 -1.0891 -1.1736
20851SOL     OW69410   3.192   1.220   7.736  0.4986  0.4498  0.1376
20851SOL    HW169411   3.122   1.224   7.801  0.5016 -0.8938  0.2502
20851SOL    HW269412   3.268   1.257   7.780  0.9975 -2.1332  1.6337
20852SOL     OW69413   0.386   3.549  11.578  0.2823  0.1679 -0.1798
20852SOL    HW169414   0.321   3.539  11.648  1.2458 -0.7066  0.6361
20852SOL    HW269415   0.459   3.593  11.620  0.1383  1.3996 -1.1623
20853SOL     OW69416   8.885   5.544   3.376 -0.3964  0.2901 -0.5782
20853SOL    HW169417   8.808   5.600   3.376 -0.2464  0.4959 -1.4013
20853SOL    HW269418   8.957   5.602   3.401 -0.2827  0.4158 -1.1845
20854SOL     OW69419   2.444   1.548   7.453 -0.0967  0.2315  0.6615
20854SOL    HW169420   2.492   1.519   7.376 -0.3462  1.1042  0.1639
20854SOL    HW269421   2.376   1.482   7.465 -1.7193  1.3623 -1.4639
20855SOL     OW69422   1.156   4.064   0.669 -0.2308  0.0787  0.2165
20855SOL    HW169423   1.092   4.008   0.712  0.4823 -0.9733 -0.0373
20855SOL    HW269424   1.148   4.043   0.576 -0.5352  1.0307  0.0145
20856SOL     OW69425   0.158   2.314   9.422 -0.1946 -0.2887 -0.3327
20856SOL    HW169426   0.249   2.301   9.449 -0.4389 -0.5026  0.4196
20856SOL    HW269427   0.109   2.312   9.504 -1.0889 -1.8828 -0.8683
20857SOL     OW69428   7.050   9.439  10.415 -0.1249 -0.6459  0.5658
20857SOL    HW169429   7.016   9.514  10.464 -0.7014 -0.7318  0.3027
20857SOL    HW269430   7.123   9.474  10.365 -1.0080 -0.0212 -0.3268
20858SOL     OW69431  12.195   3.851  11.368  0.1862  0.2668  0.1925
20858SOL    HW169432  12.145   3.771  11.351  1.6825 -0.7355  0.3387
20858SOL    HW269433  12.275   3.841  11.317  1.0563  0.9870  1.3552
20859SOL     OW69434   1.884   9.035   1.179  0.3307  0.0130  0.0591
20859SOL    HW169435   1.806   9.085   1.202 -0.4948  0.1683 -2.7271
20859SOL    HW269436   1.909   8.992   1.261 -0.7658  2.4403  1.7960
20860SOL     OW69437   2.963   9.667  10.884  0.1632 -0.3420  0.4570
20860SOL    HW169438   2.907   9.664  10.961  0.4181 -0.1419  0.6539
20860SOL    HW269439   3.051   9.683  10.919  0.2239  0.1307  0.0970
20861SOL     OW69440   2.603  10.852   7.603  0.0408  0.2636 -0.4238
20861SOL    HW169441   2.510  10.864   7.582 -0.3891 -0.8944  0.6545
20861SOL    HW269442   2.622  10.920   7.668 -0.8942 -1.2845  1.5693
20862SOL     OW69443   9.336   7.270   8.725 -0.2254  0.0307 -0.2678
20862SOL    HW169444   9.414   7.254   8.671 -0.7992 -0.6510 -0.9194
20862SOL    HW269445   9.286   7.189   8.718 -0.6620  0.2004  0.7241
20863SOL     OW69446   3.968   0.182   7.375  0.1289  0.1479 -0.4538
20863SOL    HW169447   3.989   0.276   7.382  1.3459 -0.1622  0.5971
20863SOL    HW269448   4.040   0.146   7.324  0.6351 -0.4755  0.6598
20864SOL     OW69449   0.053   4.938   3.262  0.5130 -0.2817 -0.1880
20864SOL    HW169450   0.049   4.987   3.180 -0.1723 -0.9688 -0.5815
20864SOL    HW269451  -0.039   4.920   3.284  0.7273 -0.9097  0.2303
20865SOL     OW69452   8.032   0.743   3.004 -0.3298 -0.1836  0.4538
20865SOL    HW169453   8.035   0.790   3.087 -2.4699 -0.5844  0.8314
20865SOL    HW269454   8.063   0.655   3.026  1.4556  0.3600  0.2505
20866SOL     OW69455   4.930   2.052  11.598 -0.8256 -0.1514 -0.5629
20866SOL    HW169456   4.864   2.032  11.531  0.2766 -1.0183 -1.4416
20866SOL    HW269457   5.007   2.078  11.547 -0.1036 -0.3950  0.3870
20867SOL     OW69458   6.270   5.995   4.894  0.3144  0.3484 -0.6321
20867SOL    HW169459   6.305   5.987   4.983  0.6703 -1.7969 -0.9236
20867SOL    HW269460   6.232   6.083   4.891  1.3890  0.9216  1.2375
20868SOL     OW69461   9.384   8.176  10.135  0.2821 -0.1908  0.2951
20868SOL    HW169462   9.389   8.272  10.143  2.4251 -0.3572  1.8105
20868SOL    HW269463   9.328   8.149  10.208  1.2319 -0.1999  1.0316
20869SOL     OW69464   9.222  10.031  10.713  0.0660 -0.0835  0.2191
20869SOL    HW169465   9.265   9.977  10.646 -0.7476  0.4809 -0.7824
20869SOL    HW269466   9.176   9.967  10.768 -0.4582 -0.4667 -0.6418
20870SOL     OW69467   2.100  10.286   6.106 -0.2162 -0.0442  0.0055
20870SOL    HW169468   2.082  10.210   6.162  0.2978 -1.1467 -1.2856
20870SOL    HW269469   2.094  10.361   6.166 -1.4969 -1.0136  1.1500
20871SOL     OW69470   0.886   4.977  12.090 -0.2808  0.0254 -0.5508
20871SOL    HW169471   0.961   5.034  12.113 -0.8662  0.4290  0.4501
20871SOL    HW269472   0.926   4.894  12.066  0.5194  0.3337 -0.3391
20872SOL     OW69473   6.013   3.079   2.104 -0.3381  0.2659  0.4893
20872SOL    HW169474   6.000   3.142   2.174  0.0063 -0.7074  1.4537
20872SOL    HW269475   6.108   3.069   2.099 -0.3398  0.5611 -0.3476
20873SOL     OW69476   5.121   8.720   9.314  1.3454 -0.3342 -0.1221
20873SOL    HW169477   5.110   8.720   9.218  0.4712 -2.1778 -0.0634
20873SOL    HW269478   5.103   8.630   9.340  3.8175 -0.4373  1.5681
20874SOL     OW69479   2.580   1.699   1.477  0.0479  0.3948  0.3415
20874SOL    HW169480   2.609   1.696   1.385  3.3616  2.9702  1.1166
20874SOL    HW269481   2.653   1.661   1.526 -0.8491  0.7846  2.0582
20875SOL     OW69482  10.259   9.127  11.006 -0.0747  0.0222 -0.3513
20875SOL    HW169483  10.236   9.124  10.913  0.7680 -1.8667 -0.5437
20875SOL    HW269484  10.176   9.146  11.051 -0.4465  1.1746 -1.4742
20876SOL     OW69485   3.997  11.711   6.180  0.0614 -0.5980  0.0182
20876SOL    HW169486   3.962  11.677   6.262  0.1004 -2.5710 -0.7036
20876SOL    HW269487   4.092  11.703   6.189  0.1159  0.1315  0.1445
20877SOL     OW69488   7.850  11.476  11.061  0.2096  0.2132 -0.3389
20877SOL    HW169489   7.890  11.482  10.974  0.8061 -1.7922 -0.2501
20877SOL    HW269490   7.758  11.458  11.045  0.4571 -0.8694 -0.5688
20878SOL     OW69491   7.904  10.486   4.195 -0.1535  0.1123 -0.3841
20878SOL    HW169492   7.921  10.556   4.257 -0.6413 -0.7324  0.7326
20878SOL    HW269493   7.953  10.511   4.116 -0.9577  2.0932 -0.3033
20879SOL     OW69494  12.377  11.611   9.166 -0.5378  0.5192  0.3549
20879SOL    HW169495  12.376  11.521   9.132 -0.5088  0.1372  1.3487
20879SOL    HW269496  12.453  11.614   9.224 -1.6653  0.5875  1.8876
20880SOL     OW69497   9.526   2.585   4.792  0.1544 -0.2992  0.3009
20880SOL    HW169498   9.432   2.568   4.794 -0.1757  1.3526  0.4375
20880SOL    HW269499   9.561   2.536   4.866 -0.7085 -0.2949  0.7259
20881SOL     OW69500   4.744   8.336   9.874  0.0992 -0.0123 -0.1046
20881SOL    HW169501   4.654   8.311   9.895 -0.3512  1.4798 -0.1314
20881SOL    HW269502   4.789   8.253   9.861 -0.7795 -0.8620  1.8513
20882SOL     OW69503   6.161   3.307   0.504  0.0197 -0.3733 -0.1975
20882SOL    HW169504   6.253   3.329   0.495 -0.7796  3.8376 -0.2828
20882SOL    HW269505   6.138   3.336   0.592 -1.7000  1.2032 -1.0977
20883SOL     OW69506  10.506   3.316  11.293  0.1824  0.2143 -0.2038
20883SOL    HW169507  10.472   3.289  11.208  0.8704  1.3467 -0.8673
20883SOL    HW269508  10.441   3.377  11.327  0.2275  0.2673 -0.2144
20884SOL     OW69509   9.253  10.728  10.766 -0.2466  0.6096 -0.3236
20884SOL    HW169510   9.243  10.634  10.752 -0.3055  0.4818  0.5128
20884SOL    HW269511   9.288  10.761  10.683 -3.6026  0.4563 -1.9529
20885SOL     OW69512  10.496   4.589   8.874 -0.5325 -0.0154  0.6678
20885SOL    HW169513  10.410   4.605   8.912 -0.0007  0.9652  1.4986
20885SOL    HW269514  10.513   4.496   8.893 -0.9222  0.0731  1.5295
20886SOL     OW69515   4.714   0.700   2.762  0.1436  0.4315  0.4616
20886SOL    HW169516   4.620   0.680   2.766 -0.2443  2.0019  0.0092
20886SOL    HW269517   4.738   0.681   2.671  0.0216  0.9543  0.3153
20887SOL     OW69518   0.338   4.244   5.811  0.2918 -0.0718  0.2702
20887SOL    HW169519   0.387   4.176   5.857  1.8029  0.7923  0.0123
20887SOL    HW269520   0.309   4.202   5.730 -0.6089 -0.9964  1.0415
20888SOL     OW69521   2.036   5.855   3.940  0.6180 -0.4539 -0.4426
20888SOL    HW169522   2.065   5.792   3.874  2.5472 -0.5033  0.3979
20888SOL    HW269523   2.025   5.803   4.019 -0.0983 -0.1085 -0.3033
20889SOL     OW69524   8.542   6.170   5.487  0.3618 -0.1147  0.0311
20889SOL    HW169525   8.611   6.232   5.464  0.1196 -0.2348 -1.0705
20889SOL    HW269526   8.580   6.084   5.469 -0.1489 -0.1699 -0.8540
20890SOL     OW69527   8.700   8.658  10.300  0.2294  0.5562  0.0689
20890SOL    HW169528   8.712   8.730  10.362 -0.5496  1.3191 -0.6313
20890SOL    HW269529   8.616   8.677  10.257  0.4283 -0.3135 -0.7391
20891SOL     OW69530   6.970   7.322   7.100  0.0690 -0.4035 -0.4745
20891SOL    HW169531   7.058   7.288   7.115  0.1967  0.4203  0.7207
20891SOL    HW269532   6.926   7.314   7.184 -0.9072 -0.4824 -0.9702
20892SOL     OW69533   9.508  11.815   8.800  0.7361  0.6979  0.0393
20892SOL    HW169534   9.460  11.780   8.874  0.3347 -0.6415 -0.8078
20892SOL    HW269535   9.449  11.880   8.761 -0.2184 -0.5643 -0.6936
20893SOL     OW69536   9.769   7.034  10.040 -0.2421 -0.3643 -0.1458
20893SOL    HW169537   9.742   7.068   9.954  0.3990 -1.6212 -0.8710
20893SOL    HW269538   9.754   7.108  10.100 -1.6915  0.2120 -1.1348
20894SOL     OW69539   7.787   8.997  12.579  0.2654  0.5054 -0.0513
20894SOL    HW169540   7.846   8.954  12.517  0.4130 -1.3507  1.3007
20894SOL    HW269541   7.829   9.080  12.598  1.3247  0.1620 -0.7808
20895SOL     OW69542   1.554   1.896   0.514  0.4656 -0.3905 -0.4412
20895SOL    HW169543   1.504   1.912   0.594  1.5058  0.6188  0.0495
20895SOL    HW269544   1.603   1.815   0.532 -0.9849 -1.4236 -0.9553
20896SOL     OW69545   8.487  10.018  10.821 -0.2075  0.0070 -0.1598
20896SOL    HW169546   8.495  10.113  10.820  2.0575 -0.1241  0.1238
20896SOL    HW269547   8.570   9.987  10.784 -0.6088 -1.8718  0.4153
20897SOL     OW69548   7.311   9.019  11.377 -0.8153  0.7510 -0.2829
20897SOL    HW169549   7.375   9.051  11.313  2.3631 -0.6344  1.9638
20897SOL    HW269550   7.306   9.089  11.442  0.5683 -0.2364  0.9258
20898SOL     OW69551   2.326   0.261  12.320  0.0916 -0.0270  0.5353
20898SOL    HW169552   2.411   0.272  12.277 -0.3415 -1.6979 -0.8586
20898SOL    HW269553   2.285   0.347  12.316  1.6262  0.7628  1.0896
20899SOL     OW69554   8.548   3.167   1.351 -1.1051 -0.1851  0.3988
20899SOL    HW169555   8.581   3.251   1.321 -1.1163 -0.9471 -1.9276
20899SOL    HW269556   8.472   3.149   1.296 -0.9628 -1.8293  0.6778
20900SOL     OW69557   5.783   5.176   2.229 -0.4104  0.3105  0.1466
20900SOL    HW169558   5.736   5.146   2.151 -0.2419  0.2648  0.0627
20900SOL    HW269559   5.816   5.095   2.269  1.5975  0.4939 -1.0546
20901SOL     OW69560   8.357  10.496   2.184 -0.7963 -0.0240 -0.5259
20901SOL    HW169561   8.418  10.570   2.174 -1.3071  0.1793 -2.4547
20901SOL    HW269562   8.278  10.524   2.137 -1.6811 -1.0852  0.2760
20902SOL     OW69563   1.731   1.361  12.080 -0.5329 -0.3988 -0.2742
20902SOL    HW169564   1.757   1.445  12.044 -2.1606  0.5296  0.6007
20902SOL    HW269565   1.656   1.381  12.136 -1.0686 -2.4535 -0.1803
20903SOL     OW69566  11.178   4.204  11.992 -0.3240  0.3232 -0.0638
20903SOL    HW169567  11.253   4.182  11.936  0.3272  0.0143  0.9213
20903SOL    HW269568  11.209   4.190  12.081 -1.3949  0.7018  0.3826
20904SOL     OW69569  11.277   0.091  10.627  0.4153 -0.1283 -0.6413
20904SOL    HW169570  11.222   0.160  10.665 -0.6933 -1.0302 -0.5637
20904SOL    HW269571  11.364   0.131  10.622  0.1438  0.7478  0.8544
20905SOL     OW69572   7.992   9.597   1.114  0.1982  0.0379 -0.0582
20905SOL    HW169573   8.058   9.661   1.139 -0.1208  0.7216 -0.9066
20905SOL    HW269574   7.939   9.641   1.047  0.2923 -1.2793 -1.0634
20906SOL     OW69575  10.841   5.926   5.005  0.6121  0.0991 -0.2177
20906SOL    HW169576  10.834   5.864   5.078  0.3044 -0.7175 -0.9298
20906SOL    HW269577  10.901   5.993   5.037  2.5968 -1.6095 -0.1230
20907SOL     OW69578   6.295   8.069   6.840  0.2112  0.1218  0.4349
20907SOL    HW169579   6.206   8.046   6.869  0.7039 -2.3197  0.2108
20907SOL    HW269580   6.285   8.092   6.748 -0.2678  0.4351  0.5619
20908SOL     OW69581   3.774  11.633   4.535  0.6792 -0.3395  0.0438
20908SOL    HW169582   3.848  11.635   4.473  0.5130  0.7384 -0.1421
20908SOL    HW269583   3.717  11.704   4.506  0.0900 -0.4790  0.8300
20909SOL     OW69584   0.370   6.999   5.006  0.3667 -0.1527 -0.0759
20909SOL    HW169585   0.410   6.933   5.063 -0.0464 -0.3617 -0.0242
20909SOL    HW269586   0.400   6.976   4.918 -0.1732 -0.7084 -0.1195
20910SOL     OW69587   5.336   7.885   9.393  0.1357 -0.7189  0.3049
20910SOL    HW169588   5.410   7.835   9.429 -0.3331 -1.1260  0.7273
20910SOL    HW269589   5.291   7.919   9.470  0.9542  1.1401  0.0120
20911SOL     OW69590  12.529  11.186   2.228 -0.5494  0.4695  0.1588
20911SOL    HW169591  12.434  11.180   2.240 -0.3791 -0.5038  1.2238
20911SOL    HW269592  12.565  11.134   2.299  0.7593 -0.1942 -0.9351
20912SOL     OW69593   2.162  10.298   6.910  0.4825 -0.0847  0.2132
20912SOL    HW169594   2.197  10.325   6.825 -0.8488  3.2633  0.5531
20912SOL    HW269595   2.067  10.299   6.897  0.3083 -1.2617  1.3089
20913SOL     OW69596   2.605   7.362   2.994 -0.2665  0.3535 -0.7376
20913SOL    HW169597   2.638   7.432   2.938  1.5670 -0.4234 -0.6834
20913SOL    HW269598   2.680   7.335   3.046 -1.3550 -0.5448  0.4255
20914SOL     OW69599   6.225   7.802  10.083 -0.4044  0.4387 -0.0977
20914SOL    HW169600   6.177   7.722  10.104 -0.8219  0.8110  0.3626
20914SOL    HW269601   6.163   7.873  10.098  0.6441  1.0275  1.7900
20915SOL     OW69602   4.193   3.360   5.825 -0.2389 -0.5821 -0.0181
20915SOL    HW169603   4.201   3.444   5.778  0.7754 -0.5141  0.2599
20915SOL    HW269604   4.100   3.340   5.821 -0.4177  0.2877 -0.5726
20916SOL     OW69605   4.797   5.205  12.418 -0.9508  0.6163  0.7572
20916SOL    HW169606   4.872   5.232  12.471 -0.3101 -0.3340  0.3634
20916SOL    HW269607   4.760   5.130  12.465 -0.2883 -0.3256 -0.1821
20917SOL     OW69608   1.038   8.102   2.998 -0.3070  0.1589 -0.8491
20917SOL    HW169609   1.119   8.120   2.951 -0.0685  0.3612 -0.3683
20917SOL    HW269610   1.066   8.084   3.088 -0.8529  1.0839 -0.4746
20918SOL     OW69611   4.809   2.574   5.039  0.5845 -0.0370 -0.0700
20918SOL    HW169612   4.896   2.582   5.001  0.6615 -0.5146  0.0015
20918SOL    HW269613   4.817   2.614   5.126  0.0581  2.3648 -1.0292
20919SOL     OW69614   1.382   5.712  11.472  0.3784 -0.7196  0.1691
20919SOL    HW169615   1.456   5.772  11.477  1.3467 -1.7539 -1.1678
20919SOL    HW269616   1.315   5.753  11.528  0.8514  1.7598 -0.9315
20920SOL     OW69617   6.770   1.686  10.910 -0.1041 -0.0075  0.0083
20920SOL    HW169618   6.839   1.675  10.975 -1.0117  0.2032  1.0283
20920SOL    HW269619   6.720   1.605  10.913 -0.0350 -0.0767 -0.5761
20921SOL     OW69620  12.107  11.352   4.253 -0.4561 -0.0767  0.0185
20921SOL    HW169621  12.096  11.343   4.158 -2.9989  1.0037  0.1231
20921SOL    HW269622  12.133  11.444   4.265 -0.1716 -0.2013  0.3666
20922SOL     OW69623   2.059   6.765   4.353  0.2801 -0.2713 -0.0467
20922SOL    HW169624   2.048   6.737   4.262  2.0933 -0.4347 -0.2629
20922SOL    HW269625   2.003   6.706   4.403 -1.8961  0.7625 -1.1423
20923SOL     OW69626   3.076   8.562   4.931  0.6033  0.2710 -0.5064
20923SOL    HW169627   3.091   8.491   4.869 -0.3605 -0.9793  0.6225
20923SOL    HW269628   3.143   8.627   4.910 -0.8243  0.8443 -4.1341
20924SOL     OW69629   4.679  12.515   7.314 -0.7845  0.0565 -0.0048
20924SOL    HW169630   4.653  12.537   7.225 -1.4111  1.1043  0.4210
20924SOL    HW269631   4.718  12.595   7.348 -2.4315  0.3491  1.3376
20925SOL     OW69632   1.284   0.959   8.590 -0.1601 -0.5526 -0.0330
20925SOL    HW169633   1.234   0.886   8.552 -1.6971  0.6916 -0.4882
20925SOL    HW269634   1.260   1.035   8.537 -0.3241  0.7286  1.7910
20926SOL     OW69635   3.274   4.155   3.218 -0.3904 -0.0795  0.1453
20926SOL    HW169636   3.296   4.198   3.300  1.8015 -0.7759 -0.0201
20926SOL    HW269637   3.237   4.070   3.245  0.1010 -0.2072  0.4349
20927SOL     OW69638   1.589   3.045  11.261 -0.1771 -0.3814  0.3477
20927SOL    HW169639   1.663   3.104  11.280  0.4233 -0.4519 -1.5350
20927SOL    HW269640   1.628   2.958  11.258 -0.5129 -0.5287  0.2529
20928SOL     OW69641   0.282   3.722   4.015  0.5703  0.3531  0.1992
20928SOL    HW169642   0.230   3.783   3.963  0.9150  0.2715 -0.2498
20928SOL    HW269643   0.369   3.726   3.976  1.5415  2.1890  2.3493
20929SOL     OW69644   9.872   0.916   1.360  0.3182 -0.1876 -0.3565
20929SOL    HW169645   9.873   0.826   1.325  1.5881  0.0851 -1.1053
20929SOL    HW269646   9.923   0.966   1.296 -0.0917  1.0012  0.2342
20930SOL     OW69647   9.730   2.557   4.604  0.1810 -0.3600 -0.0498
20930SOL    HW169648   9.697   2.580   4.517  1.7945  0.4224 -0.5024
20930SOL    HW269649   9.658   2.578   4.664 -1.5447 -2.3624 -1.2824
20931SOL     OW69650   9.992   5.751   6.669  0.1510 -0.1325  0.7652
20931SOL    HW169651  10.008   5.662   6.703 -3.4004 -0.7629  1.1735
20931SOL    HW269652  10.008   5.808   6.744 -0.1864 -0.7458  1.3233
20932SOL     OW69653  12.550   9.563   7.380 -0.1752 -0.4170  0.0865
20932SOL    HW169654  12.509   9.478   7.364 -0.4894 -0.5762  1.5789
20932SOL    HW269655  12.488   9.627   7.347 -1.2714 -0.6894  1.5391
20933SOL     OW69656   0.091   5.208   5.190 -0.4643 -0.4309 -0.1369
20933SOL    HW169657   0.183   5.217   5.214 -0.0915 -0.7454 -1.3580
20933SOL    HW269658   0.082   5.117   5.160 -1.2850 -0.5392  0.3887
20934SOL     OW69659   5.218   8.340   0.941 -0.3310  0.1843  0.8483
20934SOL    HW169660   5.298   8.305   0.902 -0.4013 -1.2399  1.8983
20934SOL    HW269661   5.216   8.432   0.915  1.6504  0.2533  0.8226
20935SOL     OW69662  12.305   1.218   1.413 -0.3738  0.1419 -0.3100
20935SOL    HW169663  12.380   1.170   1.379 -0.3662 -0.9504  1.1263
20935SOL    HW269664  12.343   1.290   1.463 -0.2465 -0.3939  0.3930
20936SOL     OW69665   0.758   3.933   9.215  0.0935 -0.4521  0.1640
20936SOL    HW169666   0.673   3.970   9.189  0.5805  0.1085 -0.6715
20936SOL    HW269667   0.783   3.983   9.292  0.1899  0.1614 -0.2573
20937SOL     OW69668   5.289   7.348  12.446  0.3223 -1.0233  0.3899
20937SOL    HW169669   5.383   7.352  12.466  0.5087 -3.4059  0.2894
20937SOL    HW269670   5.284   7.291  12.370 -1.1081  0.6360 -0.8413
20938SOL     OW69671   6.537   2.160   3.904  0.0699  0.3128 -0.3042
20938SOL    HW169672   6.610   2.213   3.935  0.1705 -0.0555  0.1055
20938SOL    HW269673   6.572   2.071   3.898  0.2005  0.4568 -2.0131
20939SOL     OW69674   2.809  12.440   2.749  0.1209  0.9143  0.2874
20939SOL    HW169675   2.766  12.470   2.669  1.1492  1.2308 -0.1638
20939SOL    HW269676   2.737  12.414   2.806 -0.7236  2.2438 -0.1154
20940SOL     OW69677   3.055   4.704  10.276  0.6088  0.1918  0.6460
20940SOL    HW169678   3.017   4.773  10.222  0.4778  0.2052  0.7565
20940SOL    HW269679   3.132   4.745  10.316  1.1480 -0.0335 -0.1216
20941SOL     OW69680  11.640   6.636  11.964 -0.3004 -0.5116 -0.3885
20941SOL    HW169681  11.599   6.619  11.879 -1.5605  1.2667 -0.1843
20941SOL    HW269682  11.606   6.722  11.990  1.0779 -0.4404  1.3194
20942SOL     OW69683  11.255   9.116   9.189  0.0781  0.0843 -0.5750
20942SOL    HW169684  11.254   9.021   9.174  1.6411  0.1467 -1.3003
20942SOL    HW269685  11.281   9.153   9.104 -1.4466  1.2412 -0.5745
20943SOL     OW69686  11.672   2.066   6.640 -0.5104  0.3903 -0.3232
20943SOL    HW169687  11.741   2.030   6.584 -0.5649  0.3212 -0.3448
20943SOL    HW269688  11.719   2.121   6.703 -0.3059 -0.6933  0.4936
20944SOL     OW69689  11.020   3.054   5.401 -0.1625 -0.0162  0.2028
20944SOL    HW169690  11.022   3.064   5.496  0.9843  0.1737  0.1749
20944SOL    HW269691  11.079   3.122   5.368 -1.8293  1.0346 -0.7710
20945SOL     OW69692   6.290   1.531   4.505 -0.3043 -0.0220  0.4172
20945SOL    HW169693   6.233   1.471   4.456  0.3570  0.1417 -0.5943
20945SOL    HW269694   6.238   1.611   4.514 -0.3684  0.0099 -0.1888
20946SOL     OW69695   8.738   6.391   8.298 -0.2781 -0.2849 -0.2615
20946SOL    HW169696   8.692   6.366   8.377  0.5437 -1.3142 -0.0827
20946SOL    HW269697   8.759   6.484   8.309 -1.6919  0.0237 -0.0637
20947SOL     OW69698   0.676   7.812  12.438 -0.4202 -0.0323  0.2476
20947SOL    HW169699   0.743   7.791  12.373 -1.1283 -1.7045  0.0019
20947SOL    HW269700   0.593   7.790  12.396 -1.1087  1.4639  0.7548
20948SOL     OW69701   5.288  11.076   0.325 -0.0167  0.1324 -0.1290
20948SOL    HW169702   5.341  11.105   0.399  0.3032 -0.1443 -0.2436
20948SOL    HW269703   5.213  11.032   0.366 -0.5232  1.1426  0.0402
20949SOL     OW69704   4.117   6.429   7.051 -0.2425 -0.5562  0.1073
20949SOL    HW169705   4.196   6.427   6.995  0.2899  2.9138  0.5093
20949SOL    HW269706   4.053   6.477   6.999 -1.7849 -2.2875  0.2955
20950SOL     OW69707   7.922   8.028   6.271  0.3842  0.2252 -0.4760
20950SOL    HW169708   7.882   8.115   6.274 -0.3812 -0.1248 -0.3778
20950SOL    HW269709   7.855   7.969   6.303  1.3102 -0.2678  0.6273
20951SOL     OW69710   3.771   9.002   0.817  0.4777  0.3325 -0.1978
20951SOL    HW169711   3.769   8.963   0.729 -1.1538  2.1832 -1.0604
20951SOL    HW269712   3.759   8.928   0.876  1.6923 -0.9792 -1.4934
20952SOL     OW69713   6.403   8.799   4.339 -0.0092  0.0621  0.0097
20952SOL    HW169714   6.344   8.859   4.384  1.1000  1.0916  0.1610
20952SOL    HW269715   6.422   8.731   4.404 -1.1736 -0.4157 -0.1218
20953SOL     OW69716   2.147   6.564  10.686  0.0031  0.0672  0.2457
20953SOL    HW169717   2.069   6.517  10.656  0.8034 -0.5419 -0.9553
20953SOL    HW269718   2.139   6.565  10.781 -0.7181 -1.3350  0.2321
20954SOL     OW69719   2.504  11.511   2.613  0.2663  0.4755  0.2895
20954SOL    HW169720   2.599  11.500   2.621  0.0711 -1.5761  0.2196
20954SOL    HW269721   2.480  11.455   2.539 -0.9518  1.4104 -0.0581
20955SOL     OW69722   8.284   5.317  11.491  0.6164  0.3735 -0.5233
20955SOL    HW169723   8.339   5.394  11.502 -0.4552  1.2933 -1.4367
20955SOL    HW269724   8.201   5.350  11.458 -0.4535 -1.0006  0.6520
20956SOL     OW69725   7.090   0.808   5.008  0.6286 -0.2712  0.3215
20956SOL    HW169726   7.122   0.718   5.004 -0.2620 -0.6410  1.0702
20956SOL    HW269727   7.164   0.858   5.042  0.8069 -0.9015  0.8794
20957SOL     OW69728   2.813  10.123   9.617 -0.0267  0.2946  0.0124
20957SOL    HW169729   2.845  10.162   9.699  0.6365 -0.1574 -0.0191
20957SOL    HW269730   2.891  10.084   9.578 -0.4030  0.2249 -0.6796
20958SOL     OW69731   9.983   8.676   5.001  0.0777  0.0403 -0.3298
20958SOL    HW169732  10.011   8.603   4.946 -2.1666 -2.3195  1.4281
20958SOL    HW269733  10.029   8.752   4.965  1.9368 -2.0532 -2.7527
20959SOL     OW69734  12.290   1.881   2.435 -0.1976  0.0091 -0.0484
20959SOL    HW169735  12.381   1.909   2.441 -0.5862  1.5101 -0.5753
20959SOL    HW269736  12.243   1.940   2.494 -0.7841 -1.0409  0.5599
20960SOL     OW69737  11.088   7.805  11.995  0.3847 -0.3723 -0.1214
20960SOL    HW169738  11.147   7.871  12.032 -1.3722  1.4575 -0.3937
20960SOL    HW269739  11.117   7.723  12.033  1.5800  0.7889  1.6444
20961SOL     OW69740  11.053   3.563   3.735 -0.2445 -0.0126  0.6054
20961SOL    HW169741  11.085   3.627   3.799  0.5749  1.1397 -0.9105
20961SOL    HW269742  11.043   3.482   3.786  3.2884  0.0302  1.6354
20962SOL     OW69743   2.082   6.937   1.787 -0.0293  0.5327  0.3799
20962SOL    HW169744   2.147   6.878   1.825 -1.0596 -0.0262  1.3305
20962SOL    HW269745   2.004   6.927   1.842 -1.0950  0.8347 -0.9907
20963SOL     OW69746  11.016  11.011  10.978  0.2927 -0.1363  0.2145
20963SOL    HW169747  11.077  10.967  11.038 -1.9883 -0.1329  2.7275
20963SOL    HW269748  10.938  11.026  11.030 -0.5612  3.2646 -1.7436
20964SOL     OW69749   8.125   5.866   0.739 -0.1581 -0.0105  0.0823
20964SOL    HW169750   8.192   5.800   0.722  1.0908  0.6017  2.2727
20964SOL    HW269751   8.076   5.833   0.814 -1.2826  0.3122 -0.4846
20965SOL     OW69752   5.381   9.208  12.377 -0.2921 -0.1200 -0.0885
20965SOL    HW169753   5.387   9.212  12.281 -0.9376  2.9769 -0.0883
20965SOL    HW269754   5.340   9.123  12.395 -0.9771 -0.3961 -2.5863
20966SOL     OW69755   7.029   1.455   7.318  0.1560  0.3315  0.0860
20966SOL    HW169756   7.009   1.406   7.398 -1.7808  0.8301 -0.0525
20966SOL    HW269757   7.028   1.546   7.345 -2.3672  0.6406 -0.7898
20967SOL     OW69758   0.647   4.860  11.201 -0.6559 -0.2202  0.2995
20967SOL    HW169759   0.691   4.933  11.158 -0.5140 -0.0389  0.7447
20967SOL    HW269760   0.595   4.819  11.132 -2.3843  1.5535  0.4704
20968SOL     OW69761   6.821   0.572   5.364  0.2030 -0.6005 -0.4956
20968SOL    HW169762   6.890   0.633   5.338  0.1072  0.4349  1.4755
20968SOL    HW269763   6.833   0.496   5.307  0.7983  0.9280 -2.5334
20969SOL     OW69764   5.080   6.455   3.258 -0.5407  0.0583  0.5183
20969SOL    HW169765   5.145   6.467   3.189 -1.0488 -1.4524 -0.2584
20969SOL    HW269766   5.058   6.544   3.286  2.1522  0.6286  1.1333
20970SOL     OW69767  11.753  11.561   1.957  0.5549 -0.0845  0.2533
20970SOL    HW169768  11.703  11.593   2.033 -0.0578 -0.8495  0.1861
20970SOL    HW269769  11.696  11.495   1.917  0.8658  0.3075 -0.8834
20971SOL     OW69770   2.486   0.003   2.076 -0.5401 -0.0331 -0.2557
20971SOL    HW169771   2.577   0.004   2.105 -0.7446  1.8789  0.4639
20971SOL    HW269772   2.490   0.023   1.982 -0.1846 -0.9905 -0.4571
20972SOL     OW69773  11.014   4.714   8.626  0.1548  0.1598  0.8567
20972SOL    HW169774  11.099   4.750   8.651  0.6481 -0.6850  0.4196
20972SOL    HW269775  10.952   4.785   8.644  1.0693  1.1598  0.2337
20973SOL     OW69776   4.563  12.461  11.951 -0.0622 -0.1198  0.1950
20973SOL    HW169777   4.553  12.547  11.992  2.4389  0.1868  0.3474
20973SOL    HW269778   4.525  12.400  12.013 -1.7680  0.8352  0.1454
20974SOL     OW69779  10.807   5.770   2.591  0.2909 -0.5131  0.4465
20974SOL    HW169780  10.852   5.782   2.674  0.9708  0.2749 -0.0215
20974SOL    HW269781  10.866   5.714   2.540 -0.0674 -0.8945  0.4443
20975SOL     OW69782   8.145   9.986   5.229 -0.1119  0.9239  0.5425
20975SOL    HW169783   8.188   9.975   5.314  0.4195  3.7187  0.7341
20975SOL    HW269784   8.061  10.027   5.251 -0.4944  0.5609 -0.2202
20976SOL     OW69785   0.916   7.646   9.648 -0.2619  0.7157  0.1116
20976SOL    HW169786   0.999   7.605   9.624 -0.6184 -1.3330  2.0379
20976SOL    HW269787   0.894   7.701   9.572  0.2887 -2.6442 -2.7677
20977SOL     OW69788   6.297   0.221  10.436  0.3267 -0.3540  0.1452
20977SOL    HW169789   6.238   0.279  10.482  1.6601  0.0189  1.4681
20977SOL    HW269790   6.330   0.273  10.362  0.1396 -0.0505  0.2753
20978SOL     OW69791   8.115  11.087   3.376  0.2426 -0.6602 -0.3581
20978SOL    HW169792   8.096  11.122   3.463  0.6095  0.6602 -0.7824
20978SOL    HW269793   8.029  11.078   3.334  0.1659  0.1755 -0.3905
20979SOL     OW69794   2.394  11.038   1.274 -0.3756  0.5975  0.5905
20979SOL    HW169795   2.432  10.973   1.215 -1.2593 -0.7948  1.4943
20979SOL    HW269796   2.323  11.077   1.223 -2.5437 -2.0899  1.2828
20980SOL     OW69797   7.431   4.164   5.219  0.1903  0.7290  0.2636
20980SOL    HW169798   7.432   4.102   5.146  0.8570 -0.5431  1.2998
20980SOL    HW269799   7.402   4.246   5.181 -0.8284 -0.2436 -1.1531
20981SOL     OW69800   3.151   7.695   0.727  0.1212 -0.1683 -0.8257
20981SOL    HW169801   3.222   7.664   0.672 -0.8737 -0.1850 -2.1646
20981SOL    HW269802   3.074   7.646   0.698 -0.7416  0.9144 -0.4843
20982SOL     OW69803   8.382   2.184   0.604 -0.0836  0.2242 -0.5457
20982SOL    HW169804   8.333   2.188   0.686  0.8785 -0.7297  0.1012
20982SOL    HW269805   8.464   2.228   0.623  1.0539 -1.8692 -0.2865
20983SOL     OW69806   5.199  10.970  11.611  0.0540 -0.2301 -0.2539
20983SOL    HW169807   5.116  10.922  11.619 -1.5469  2.1553 -1.3295
20983SOL    HW269808   5.200  11.029  11.686 -0.5722  1.5444 -1.5634
20984SOL     OW69809   2.672   8.641   5.277 -0.0545 -0.0229  0.2604
20984SOL    HW169810   2.756   8.686   5.271  0.9471 -1.6223  1.4651
20984SOL    HW269811   2.639   8.641   5.187  1.9917 -0.6842 -0.5495
20985SOL     OW69812   6.542   1.679   0.868 -0.4058  0.3111 -0.1183
20985SOL    HW169813   6.594   1.760   0.868 -1.1839  0.8282  0.2138
20985SOL    HW269814   6.489   1.685   0.789  0.1014 -0.2632 -0.5088
20986SOL     OW69815   6.043   0.581   6.944  0.1851  0.6255  0.3595
20986SOL    HW169816   6.036   0.598   6.850 -1.0566  1.5118  0.5927
20986SOL    HW269817   6.005   0.494   6.955  0.3437  0.5145  0.0422
20987SOL     OW69818   3.288   0.856   7.823 -0.4210  0.5068 -0.3658
20987SOL    HW169819   3.320   0.907   7.898 -2.1868  0.2589  0.6204
20987SOL    HW269820   3.194   0.872   7.822 -0.4250  0.5690 -2.6285
20988SOL     OW69821  10.927   8.112   2.131 -0.3031 -0.1213 -0.2161
20988SOL    HW169822  10.905   8.196   2.090  0.0790 -0.5186 -1.2664
20988SOL    HW269823  10.957   8.057   2.058 -1.3442 -1.4399  0.3131
20989SOL     OW69824   0.186  12.013  11.262 -0.0274 -0.2685 -0.6353
20989SOL    HW169825   0.266  11.981  11.303  0.7928 -0.1569 -2.1086
20989SOL    HW269826   0.209  12.027  11.170 -1.5130  0.5519 -0.9174
20990SOL     OW69827   3.932   2.912   0.150  0.1992 -0.1424 -0.0386
20990SOL    HW169828   3.992   2.842   0.123 -0.8341 -1.2576  0.4539
20990SOL    HW269829   3.963   2.990   0.104  0.7605 -1.1566 -1.4266
20991SOL     OW69830   3.531   8.936   4.900  0.6123 -0.1721  0.3121
20991SOL    HW169831   3.484   8.877   4.959 -0.8100  0.8541  0.2525
20991SOL    HW269832   3.585   8.989   4.958 -2.0902  2.0511  1.0276
20992SOL     OW69833  11.000   3.856   7.009  0.0733  0.7951  0.0642
20992SOL    HW169834  10.981   3.931   6.953 -2.3397  0.6033  0.5241
20992SOL    HW269835  11.009   3.783   6.949  0.2606  1.0681 -0.2440
20993SOL     OW69836   0.005   4.598   4.205 -0.7306  0.2866  0.6200
20993SOL    HW169837   0.093   4.571   4.177 -1.5325 -1.1863 -0.6562
20993SOL    HW269838   0.014   4.692   4.223  0.9960  0.2753  0.0609
20994SOL     OW69839   3.289   7.679   2.616 -0.3262 -0.4254  0.3623
20994SOL    HW169840   3.379   7.677   2.586 -0.2311  0.5654  0.5267
20994SOL    HW269841   3.259   7.768   2.595 -0.9173 -0.3958  1.2577
20995SOL     OW69842  12.248   1.275   0.925 -0.0839 -0.2058  0.0642
20995SOL    HW169843  12.324   1.274   0.983 -0.8470 -2.8046  1.1417
20995SOL    HW269844  12.204   1.358   0.944  0.3933 -0.4044  2.2743
20996SOL     OW69845   6.772   5.070   4.151  0.3417  0.5975 -0.1844
20996SOL    HW169846   6.787   4.984   4.113 -0.3960  0.6687 -0.6597
20996SOL    HW269847   6.817   5.068   4.235 -1.0932 -0.8482  0.6003
20997SOL     OW69848   9.590   5.291   8.030 -0.4320  0.2698  0.3730
20997SOL    HW169849   9.557   5.381   8.029 -2.6599 -0.4708  0.5725
20997SOL    HW269850   9.547   5.248   7.956 -0.0176 -0.8212  0.7390
20998SOL     OW69851   9.815  10.351   0.241 -0.2211 -0.1857  0.0774
20998SOL    HW169852   9.836  10.336   0.334 -0.9889  0.9457  0.4490
20998SOL    HW269853   9.897  10.381   0.203 -0.2533  0.7558  0.7240
20999SOL     OW69854   2.425  12.045   4.497  0.1282  0.2118 -0.0450
20999SOL    HW169855   2.480  11.969   4.516 -0.4876 -0.0023  0.9191
20999SOL    HW269856   2.384  12.024   4.413 -0.2887 -0.6817  0.3614
21000SOL     OW69857   9.840   9.892   6.935  0.4378  0.5454 -0.4380
21000SOL    HW169858   9.776   9.916   6.869  1.6924  1.2914 -1.4315
21000SOL    HW269859   9.874   9.975   6.968  1.0184  0.1729 -0.0721
21001SOL     OW69860  10.313   2.122   7.895 -0.3489 -0.1738  0.2259
21001SOL    HW169861  10.373   2.195   7.908  1.5273 -1.3681 -1.1470
21001SOL    HW269862  10.355   2.048   7.939 -1.4961 -0.7787  0.3638
21002SOL     OW69863   4.833   0.108   3.473  0.1408 -0.0651 -0.0900
21002SOL    HW169864   4.762   0.085   3.533  0.7796 -2.0512 -0.0273
21002SOL    HW269865   4.910   0.119   3.529  0.7881 -2.1265 -0.4727
21003SOL     OW69866  11.750   5.648   0.450 -0.7286 -0.4101  0.4775
21003SOL    HW169867  11.724   5.690   0.532 -1.6828  0.6788 -0.3534
21003SOL    HW269868  11.668   5.626   0.406 -0.2753  0.4390 -0.8769
21004SOL     OW69869   4.487   1.789   3.875 -0.6978 -0.0407  0.2367
21004SOL    HW169870   4.530   1.838   3.946 -0.1814  1.9783 -1.3591
21004SOL    HW269871   4.429   1.727   3.920  0.5169  0.3023  2.4077
21005SOL     OW69872   8.839   3.841   1.475 -0.4913 -0.7341 -0.0147
21005SOL    HW169873   8.750   3.854   1.442  0.1243 -0.9313 -1.8572
21005SOL    HW269874   8.866   3.928   1.507 -0.5594 -0.1179 -1.5493
21006SOL     OW69875   3.663   4.699  12.035  0.0719 -0.2076 -0.1906
21006SOL    HW169876   3.643   4.736  12.121  2.2699  0.0361  0.2665
21006SOL    HW269877   3.679   4.776  11.980  3.9616 -0.2759  0.5911
21007SOL     OW69878   9.568   5.879   5.257  0.4294  0.0811  0.3472
21007SOL    HW169879   9.651   5.893   5.210 -0.3018 -2.1947 -1.8420
21007SOL    HW269880   9.520   5.961   5.246  1.7850  0.9298  0.4418
21008SOL     OW69881  11.465   5.915   2.225 -0.3500  0.0134  0.2684
21008SOL    HW169882  11.497   5.836   2.180 -1.9016 -0.0562 -0.7864
21008SOL    HW269883  11.538   5.942   2.280  0.1709 -2.2585  0.7824
21009SOL     OW69884   8.324  11.023   7.700  0.1185 -0.2773 -0.2812
21009SOL    HW169885   8.234  11.056   7.703  0.2080 -0.0011 -0.5135
21009SOL    HW269886   8.351  11.017   7.792  0.3083  0.9076 -0.2388
21010SOL     OW69887   6.217   0.987  10.116  0.4370  0.1384  0.0773
21010SOL    HW169888   6.260   1.054  10.063 -0.6752  2.1240  1.5830
21010SOL    HW269889   6.128   0.983  10.082 -0.5084  1.9462  2.0961
21011SOL     OW69890   7.966  11.522   8.547 -0.4287  0.1633 -0.0415
21011SOL    HW169891   8.043  11.489   8.594  0.4569  0.2029 -1.4249
21011SOL    HW269892   7.901  11.451   8.554  0.7839 -1.1415 -1.3459
21012SOL     OW69893   0.638   8.149  11.015  0.0682  0.3207 -0.2647
21012SOL    HW169894   0.569   8.089  10.987  1.0061 -0.3904 -1.1105
21012SOL    HW269895   0.595   8.234  11.022 -0.8418 -0.0674 -0.9782
21013SOL     OW69896  10.868   0.209   7.428 -0.1910  0.3138 -0.2989
21013SOL    HW169897  10.867   0.120   7.393 -0.3546  0.5648 -0.9510
21013SOL    HW269898  10.955   0.219   7.465 -0.4405 -0.3891  0.4978
21014SOL     OW69899   5.610   0.125  11.685  0.5157  0.1112 -0.0346
21014SOL    HW169900   5.575   0.108  11.773 -0.9448  0.9413 -0.4260
21014SOL    HW269901   5.534   0.119  11.627  1.6336 -1.4869 -1.4185
21015SOL     OW69902  11.341  10.440  10.040  0.0652  0.3989 -0.4305
21015SOL    HW169903  11.282  10.506  10.005  0.3639  0.0343 -1.6665
21015SOL    HW269904  11.424  10.485  10.053 -0.2689  0.7305  0.5962
21016SOL     OW69905   9.130   5.530   0.119  0.0455  0.3062 -0.2606
21016SOL    HW169906   9.141   5.609   0.066 -0.0880 -0.2426 -1.1303
21016SOL    HW269907   9.144   5.559   0.209  0.3137  1.2528 -0.5977
21017SOL     OW69908   3.270   2.727   4.364  0.2309  0.4646 -0.2576
21017SOL    HW169909   3.213   2.775   4.304  1.4576  0.6751 -1.2889
21017SOL    HW269910   3.323   2.795   4.406  1.6306  0.0718 -1.3577
21018SOL     OW69911   6.782   3.728   2.778  0.6362 -0.5666  0.4839
21018SOL    HW169912   6.824   3.643   2.762  0.2742 -0.7482  0.4801
21018SOL    HW269913   6.728   3.713   2.855 -1.1941 -0.9791 -0.8247
21019SOL     OW69914  10.073   9.158   5.919 -0.7608 -0.4765 -0.1187
21019SOL    HW169915  10.118   9.169   6.002 -0.2792 -1.4651 -0.2325
21019SOL    HW269916   9.992   9.209   5.928 -0.6783 -0.5104  0.9169
21020SOL     OW69917   2.996   8.873   4.332  0.2207  0.0508  0.0701
21020SOL    HW169918   3.014   8.862   4.425  1.0500 -0.8882 -0.1963
21020SOL    HW269919   3.065   8.931   4.301 -0.5280  1.0422  0.1821
21021SOL     OW69920   0.383  11.441   4.384 -0.2016 -0.2788  0.3637
21021SOL    HW169921   0.464  11.392   4.371  1.1478  2.2712 -2.0179
21021SOL    HW269922   0.378  11.455   4.478  1.2490 -1.8316  0.7201
21022SOL     OW69923   0.003   9.084   1.742  0.2515  0.1041 -0.1657
21022SOL    HW169924   0.089   9.120   1.720  0.2795  0.5988  0.7050
21022SOL    HW269925  -0.026   9.136   1.817 -0.5952 -0.3791 -0.1520
21023SOL     OW69926   0.436   6.847   9.286  0.5147  0.0609 -0.2654
21023SOL    HW169927   0.424   6.920   9.346  1.3524  0.3391 -0.4327
21023SOL    HW269928   0.382   6.777   9.323 -1.4558  1.1794 -0.8725
21024SOL     OW69929   0.308   6.395   2.032 -0.1400 -0.3838 -0.1331
21024SOL    HW169930   0.305   6.488   2.009  1.4368  0.1666  1.6341
21024SOL    HW269931   0.221   6.376   2.065 -0.3698  0.5667 -0.1544
21025SOL     OW69932   7.816   1.567   6.490  0.5527  0.2584  0.3513
21025SOL    HW169933   7.830   1.507   6.417 -0.1743 -1.4219  1.5243
21025SOL    HW269934   7.721   1.582   6.491  0.6061  0.6017  0.7012
21026SOL     OW69935   2.646  11.083   6.595  0.1922  1.0090 -0.3757
21026SOL    HW169936   2.696  11.031   6.532  0.4959  0.9485 -0.0889
21026SOL    HW269937   2.708  11.146   6.630  1.0951 -1.2863  2.5610
21027SOL     OW69938   0.860   0.448   4.859  0.0711 -0.0261  0.7065
21027SOL    HW169939   0.821   0.362   4.849 -0.8850  0.4254  0.3823
21027SOL    HW269940   0.796   0.508   4.820  0.9546  0.7751  0.4412
21028SOL     OW69941   7.698  10.719  11.536 -0.2670  0.3805  0.2313
21028SOL    HW169942   7.721  10.721  11.443 -2.0752 -1.0485 -0.3142
21028SOL    HW269943   7.779  10.744  11.581  0.6752  1.0594 -1.7029
21029SOL     OW69944  10.795   1.560   2.637  0.0967 -0.1129  0.0344
21029SOL    HW169945  10.788   1.567   2.732 -0.1799  0.8266 -0.0357
21029SOL    HW269946  10.880   1.521   2.621  0.6139  0.7363  0.6485
21030SOL     OW69947  10.942   4.835   7.182  0.1107  0.0010  0.6178
21030SOL    HW169948  10.977   4.781   7.111  1.4617  1.1097  0.3993
21030SOL    HW269949  10.891   4.774   7.235  1.4103 -1.4606  0.2688
21031SOL     OW69950   1.497   9.256   6.005 -0.0838 -0.1765  0.2504
21031SOL    HW169951   1.527   9.279   6.093  0.5646  1.8000 -0.4182
21031SOL    HW269952   1.465   9.167   6.013  0.3507 -0.2004  2.3917
21032SOL     OW69953   0.375   4.416   8.166  0.3038 -0.5043 -0.0796
21032SOL    HW169954   0.357   4.509   8.176  0.5878 -0.5926  1.5502
21032SOL    HW269955   0.329   4.375   8.239 -0.3054 -1.7287 -1.0987
21033SOL     OW69956   1.586   6.301   9.515 -0.2085 -0.1447 -0.3572
21033SOL    HW169957   1.556   6.270   9.430  1.9073 -1.0017 -0.8620
21033SOL    HW269958   1.660   6.359   9.495  0.1337 -0.1149  0.8750
21034SOL     OW69959   8.477   4.027   7.703  0.1053  0.1073 -0.6383
21034SOL    HW169960   8.477   4.084   7.780  1.3628  0.6321 -1.0029
21034SOL    HW269961   8.414   4.067   7.643  1.2507  1.3740 -1.0505
21035SOL     OW69962  11.146   7.057   8.388 -1.2317 -0.0204  0.0770
21035SOL    HW169963  11.062   7.061   8.341 -1.3858  1.1733  0.4288
21035SOL    HW269964  11.209   7.094   8.327  0.0041 -4.8393 -2.0168
21036SOL     OW69965   6.137   4.118   3.687 -0.4002  0.0884 -0.0166
21036SOL    HW169966   6.085   4.138   3.765 -0.1555 -0.1307  0.2039
21036SOL    HW269967   6.094   4.166   3.616 -0.9720 -0.1810  0.1408
21037SOL     OW69968   4.746   5.995   6.986 -0.8532 -0.9165 -0.8759
21037SOL    HW169969   4.796   5.960   7.059 -2.1544 -1.6554 -0.3172
21037SOL    HW269970   4.794   6.074   6.960  0.1754 -1.1928  0.1085
21038SOL     OW69971   3.150   2.805   2.187  0.0611 -0.0117 -0.0748
21038SOL    HW169972   3.077   2.746   2.207  0.2811  0.3822  2.1444
21038SOL    HW269973   3.114   2.893   2.203  0.4198  0.3238 -1.0618
21039SOL     OW69974  12.530   6.960  12.362  0.6194 -0.2517 -0.3862
21039SOL    HW169975  12.621   6.934  12.375  0.1029 -1.7332  0.4581
21039SOL    HW269976  12.512   7.021  12.434  1.0182  0.3126 -0.7506
21040SOL     OW69977  11.286  11.845  11.882  0.1615 -0.4619 -0.0189
21040SOL    HW169978  11.253  11.865  11.794  0.1307  0.6541  0.2362
21040SOL    HW269979  11.342  11.919  11.905  1.9306 -1.7658  0.0477
21041SOL     OW69980   7.248   8.048   8.512  0.4128 -0.5999 -0.0054
21041SOL    HW169981   7.300   7.981   8.468  0.8333  0.2131 -0.7919
21041SOL    HW269982   7.194   8.000   8.575  1.1886 -1.5885 -0.0798
21042SOL     OW69983   2.376   7.641   9.371 -0.3403 -0.0332 -0.3354
21042SOL    HW169984   2.424   7.609   9.294  0.5712 -0.2899  0.3184
21042SOL    HW269985   2.334   7.721   9.341  1.1899  0.6609 -0.7355
21043SOL     OW69986   6.275   5.359   0.985  0.1465 -0.3137  0.2629
21043SOL    HW169987   6.363   5.394   1.001  0.1926 -0.1325 -0.3770
21043SOL    HW269988   6.285   5.265   0.996  0.2425 -0.2310  0.9809
21044SOL     OW69989   4.131   8.677   3.977  0.6500  0.4376 -0.1355
21044SOL    HW169990   4.142   8.607   4.041  0.8379  0.3882 -0.2230
21044SOL    HW269991   4.209   8.731   3.986  0.2097  1.0118  0.3916
21045SOL     OW69992   1.436   2.420   8.159  0.2462  0.1368  0.3010
21045SOL    HW169993   1.433   2.367   8.079 -1.2164 -0.1602  0.5261
21045SOL    HW269994   1.480   2.365   8.223 -2.0994 -1.2337  0.8064
21046SOL     OW69995   0.750   4.398  11.506 -0.4972  0.3965  0.6278
21046SOL    HW169996   0.662   4.397  11.544 -0.8441  1.0034 -0.1440
21046SOL    HW269997   0.755   4.481  11.458 -0.2350 -0.5334 -1.0249
21047SOL     OW69998   7.011   0.799  10.353  0.1545  0.1963 -0.0122
21047SOL    HW169999   7.012   0.726  10.415 -0.0075  0.4874  0.3422
21047SOL    HW270000   7.025   0.877  10.408 -0.0404  0.4637 -0.3356
21048SOL     OW70001   9.627   8.860   9.737  0.0395 -0.2064  0.5420
21048SOL    HW170002   9.669   8.789   9.689  1.3392 -0.2965  1.7431
21048SOL    HW270003   9.534   8.852   9.715  0.2833 -1.7057 -0.0659
21049SOL     OW70004   4.876   0.712   2.200  0.0177 -0.0842  0.0242
21049SOL    HW170005   4.843   0.719   2.111  0.8247  0.7923 -0.2205
21049SOL    HW270006   4.874   0.801   2.234  1.0712 -0.1781  0.3735
21050SOL     OW70007   9.905   5.739   9.887 -0.1901  0.0222 -0.2783
21050SOL    HW170008   9.974   5.706   9.945  0.1535 -1.2685 -1.3846
21050SOL    HW270009   9.872   5.661   9.842 -1.1382  0.8654 -1.0840
21051SOL     OW70010   4.551   4.957   8.236 -1.1136  0.8351 -0.3870
21051SOL    HW170011   4.610   4.980   8.308 -1.7606  0.6977  0.1880
21051SOL    HW270012   4.522   4.868   8.256 -1.1171  0.7063 -0.9444
21052SOL     OW70013   7.346   8.386   3.954 -0.6114  0.1772 -0.1554
21052SOL    HW170014   7.395   8.313   3.916 -1.2063  0.5881 -1.7821
21052SOL    HW270015   7.258   8.352   3.969 -0.2226 -0.1639  1.4969
21053SOL     OW70016   0.846   7.933   5.629  0.1425  0.2788  0.1965
21053SOL    HW170017   0.847   7.936   5.725 -2.0004 -0.0070  0.2605
21053SOL    HW270018   0.833   8.024   5.602 -2.6602 -0.0267  0.3197
21054SOL     OW70019   9.989   8.517   4.677 -0.0984  0.1059 -0.1511
21054SOL    HW170020  10.006   8.501   4.584  2.1298 -0.2893  0.2867
21054SOL    HW270021  10.072   8.499   4.721 -0.8376  1.1927  1.8260
21055SOL     OW70022   2.499   0.828   7.202  0.1751 -0.7686 -0.3198
21055SOL    HW170023   2.420   0.846   7.253 -0.7677  1.7894 -2.4432
21055SOL    HW270024   2.562   0.893   7.234  1.0895 -2.0132  0.5178
21056SOL     OW70025   2.612  11.931   6.679 -0.4052  0.2461 -0.0974
21056SOL    HW170026   2.708  11.923   6.679 -0.4744 -0.8761  0.3388
21056SOL    HW270027   2.582  11.857   6.625 -1.0707 -0.6037  1.3649
21057SOL     OW70028   1.340  10.879   0.997  0.0683  0.6331  0.0171
21057SOL    HW170029   1.429  10.867   0.965  0.0332 -0.9126  0.4336
21057SOL    HW270030   1.289  10.902   0.919  0.4597 -0.5311 -0.6025
21058SOL     OW70031   1.236   1.355   9.115  0.2294  0.1830 -0.3624
21058SOL    HW170032   1.186   1.436   9.104 -0.4588 -0.4568 -2.2236
21058SOL    HW270033   1.194   1.311   9.189 -2.2047 -0.4266 -1.9756
21059SOL     OW70034  12.175  11.429   0.929 -0.7262 -0.5830  0.3677
21059SOL    HW170035  12.222  11.466   0.855  1.4950  0.2930  2.0772
21059SOL    HW270036  12.223  11.349   0.950 -0.7091 -0.3079  1.4257
21060SOL     OW70037   0.735   3.737  10.366 -0.0246  0.1744  0.1673
21060SOL    HW170038   0.703   3.803  10.427  0.2154 -0.3625  0.8921
21060SOL    HW270039   0.779   3.673  10.422 -1.1719 -1.1457 -0.4013
21061SOL     OW70040   3.582   4.130  11.842  0.1163  0.7003 -0.3560
21061SOL    HW170041   3.648   4.133  11.911  1.3720 -1.1867 -1.3742
21061SOL    HW270042   3.499   4.141  11.887  0.9197 -0.2212  1.4443
21062SOL     OW70043   4.625   8.698   3.670  0.3698 -0.0185 -0.1701
21062SOL    HW170044   4.626   8.632   3.740  0.5037  0.9415  0.7599
21062SOL    HW270045   4.602   8.780   3.714  0.8226  0.6870 -1.1965
21063SOL     OW70046   7.018   3.963  11.822  0.4404 -0.0053  0.2434
21063SOL    HW170047   7.099   4.008  11.845 -1.1596  3.0668  0.4247
21063SOL    HW270048   6.992   4.002  11.738 -0.8905 -0.8422  0.2331
21064SOL     OW70049   7.794   6.822   3.646  0.5533 -0.2175 -0.4434
21064SOL    HW170050   7.735   6.898   3.651  1.5150  0.4860  0.6745
21064SOL    HW270051   7.880   6.857   3.671  1.0451 -1.6511 -0.0516
21065SOL     OW70052   5.531  11.214  12.236  0.0702 -0.5864 -0.7279
21065SOL    HW170053   5.471  11.253  12.172  1.6641  1.2385 -1.2160
21065SOL    HW270054   5.476  11.192  12.311 -1.0894  2.2269 -0.6399
21066SOL     OW70055   9.309   8.815   9.048  0.6926  0.2520  0.2316
21066SOL    HW170056   9.259   8.829   8.968  0.6989 -0.1509  0.1530
21066SOL    HW270057   9.303   8.898   9.095  1.6706  0.8797 -0.7217
21067SOL     OW70058   9.577   5.162   2.482 -0.0296 -0.1353  0.5623
21067SOL    HW170059   9.541   5.180   2.395  1.5669  0.9694  0.0835
21067SOL    HW270060   9.514   5.102   2.522 -1.8757  0.9346 -0.5633
21068SOL     OW70061   5.465   9.227   0.814 -0.7007 -0.2290  0.1124
21068SOL    HW170062   5.442   9.273   0.732  0.2406  0.9956  0.5014
21068SOL    HW270063   5.404   9.262   0.879  0.1636  0.6793  0.4593
21069SOL     OW70064   6.212   5.285   9.135  0.1319  0.3867  0.8159
21069SOL    HW170065   6.168   5.226   9.196  0.0782 -0.2219  0.1964
21069SOL    HW270066   6.271   5.229   9.085  2.7013  1.3348  2.5297
21070SOL     OW70067   1.446   1.271   9.642  0.4674  0.0396 -0.0688
21070SOL    HW170068   1.352   1.255   9.650  0.2717  0.8462 -0.5933
21070SOL    HW270069   1.467   1.246   9.552 -0.1426  3.7971 -1.4422
21071SOL     OW70070   2.463  11.801  11.400  0.2981 -0.4896 -0.7382
21071SOL    HW170071   2.445  11.807  11.494 -0.2642  3.0168 -0.9603
21071SOL    HW270072   2.400  11.736  11.368 -2.7395  1.5352  0.6664
21072SOL     OW70073   3.773   4.968   0.499  0.4055 -0.3092  0.0405
21072SOL    HW170074   3.740   4.932   0.582 -0.3475  0.3257  0.0148
21072SOL    HW270075   3.868   4.972   0.512  0.1422  2.1148  1.8444
21073SOL     OW70076   7.308   7.830   5.433 -0.4685  0.2004  0.3256
21073SOL    HW170077   7.375   7.797   5.492  0.4002 -0.5057 -1.0030
21073SOL    HW270078   7.338   7.805   5.346 -0.3892  3.4490 -0.6887
21074SOL     OW70079   9.395   5.738   0.727 -0.7183  0.2282  0.1572
21074SOL    HW170080   9.486   5.742   0.697 -0.9943 -2.1254 -1.2967
21074SOL    HW270081   9.399   5.691   0.810 -0.7019 -1.9021 -0.9680
21075SOL     OW70082  11.920  12.028   7.957  0.0865  0.3974  0.2370
21075SOL    HW170083  11.850  12.092   7.946 -0.8433 -0.3780  1.3978
21075SOL    HW270084  11.960  12.020   7.871 -1.0990  1.0386 -0.3882
21076SOL     OW70085   4.504   8.271   0.657  0.0584 -0.6182 -0.0878
21076SOL    HW170086   4.438   8.339   0.657  0.7157  0.0368 -0.2862
21076SOL    HW270087   4.513   8.245   0.749 -1.6003 -1.8593 -0.2319
21077SOL     OW70088   5.852   5.501   7.419  0.4305 -0.5212 -0.0983
21077SOL    HW170089   5.944   5.525   7.412  0.1376  0.5267 -0.5265
21077SOL    HW270090   5.853   5.405   7.424  1.5905 -0.4703  1.0385
21078SOL     OW70091   0.442   2.015   3.609  0.0859  0.2811  0.4807
21078SOL    HW170092   0.512   1.976   3.661  0.6963 -0.4284 -0.8215
21078SOL    HW270093   0.385   2.057   3.673 -0.6552 -2.7590  2.0321
21079SOL     OW70094   8.655  10.257  10.835 -0.4417 -0.3376 -0.3117
21079SOL    HW170095   8.697  10.320  10.894 -0.0856 -1.2980  0.4748
21079SOL    HW270096   8.712  10.180  10.837 -2.0609 -1.5855  0.5824
21080SOL     OW70097  11.332   5.603   6.837 -0.0613 -0.6670  0.2669
21080SOL    HW170098  11.260   5.541   6.847  0.1399 -1.2561 -1.5591
21080SOL    HW270099  11.289   5.685   6.814 -0.1594 -1.4216 -2.5503
21081SOL     OW70100   3.340   0.273   4.265 -0.0807 -0.3384 -0.5710
21081SOL    HW170101   3.328   0.256   4.359  1.2952 -0.7766 -0.4488
21081SOL    HW270102   3.252   0.272   4.229 -0.7081  0.5916  0.8434
21082SOL     OW70103   0.300   2.335  10.874  0.0295  0.5441 -0.0252
21082SOL    HW170104   0.396   2.331  10.866  0.0809 -1.9774  0.9858
21082SOL    HW270105   0.268   2.332  10.784  0.8722  1.2942 -0.3677
21083SOL     OW70106   1.231   3.238   0.670 -0.7032 -0.0872  0.0817
21083SOL    HW170107   1.193   3.189   0.743 -1.4648  0.6442  0.1914
21083SOL    HW270108   1.316   3.267   0.703 -0.4228 -0.9713  0.1606
21084SOL     OW70109   7.502   4.727  11.290  0.6578  0.4343  0.6419
21084SOL    HW170110   7.525   4.803  11.237  1.0643  0.4028  0.7689
21084SOL    HW270111   7.572   4.664  11.275 -0.0659 -0.2274 -0.0625
21085SOL     OW70112   8.519   9.637   8.655  0.2809  0.1542  0.0318
21085SOL    HW170113   8.519   9.683   8.738  0.3346  4.4900 -2.1128
21085SOL    HW270114   8.612   9.627   8.633  0.3399 -2.5309  1.0764
21086SOL     OW70115  12.139   2.038   1.252  0.0695  0.0196 -0.2317
21086SOL    HW170116  12.061   1.990   1.281 -1.1192  1.3809 -1.0604
21086SOL    HW270117  12.158   2.097   1.325  0.7917 -0.8204  0.2762
21087SOL     OW70118   9.755   4.663   6.246 -0.2754  0.2366  0.0145
21087SOL    HW170119   9.733   4.598   6.179  2.7942 -0.5370 -0.4393
21087SOL    HW270120   9.775   4.743   6.196 -0.9599  0.5794  0.2870
21088SOL     OW70121   8.894   6.412   1.692  0.6536  0.0568 -0.3033
21088SOL    HW170122   8.854   6.479   1.636 -0.4428  1.0235  1.4980
21088SOL    HW270123   8.831   6.340   1.692  0.3385  0.3233  0.1515
21089SOL     OW70124   9.197   9.550  10.035  0.1787  0.5808 -0.1752
21089SOL    HW170125   9.243   9.590   9.961  2.8730 -2.6511 -0.4796
21089SOL    HW270126   9.132   9.492   9.994  1.3755 -0.8757 -0.1088
21090SOL     OW70127   5.532   5.783   2.336 -0.5119  0.6942  0.3717
21090SOL    HW170128   5.624   5.765   2.357 -0.2371  2.7421  1.1460
21090SOL    HW270129   5.534   5.815   2.246 -0.7556 -1.1235 -0.3155
21091SOL     OW70130  11.958   3.687  12.497  0.4247  0.8340  0.5002
21091SOL    HW170131  11.957   3.622  12.427 -2.5489 -0.3794  1.5029
21091SOL    HW270132  12.049   3.717  12.502  1.4400 -1.6403 -1.4680
21092SOL     OW70133   5.996   6.883   7.053  0.0962 -0.2962 -0.0977
21092SOL    HW170134   6.001   6.904   6.960  1.1242  1.8678  0.3721
21092SOL    HW270135   5.907   6.909   7.078  0.8073  2.2346  0.1056
21093SOL     OW70136   4.312   3.007   8.791  0.5910 -0.3158 -0.2099
21093SOL    HW170137   4.217   3.008   8.776  0.5740 -0.0186 -0.0836
21093SOL    HW270138   4.339   3.098   8.781  1.2318 -0.6790 -2.6005
21094SOL     OW70139   2.291  10.502   2.449 -0.5205  0.2761  0.1190
21094SOL    HW170140   2.243  10.536   2.524 -1.4195 -0.1691 -0.2429
21094SOL    HW270141   2.266  10.559   2.377 -0.3422  0.1673 -0.0311
21095SOL     OW70142  10.049   0.156  11.750 -0.5765 -0.2854 -0.3832
21095SOL    HW170143   9.999   0.228  11.791 -0.3905  1.3120 -2.7608
21095SOL    HW270144   9.984   0.109  11.698 -0.5458 -1.4227  0.5742
21096SOL     OW70145   8.320   7.057   1.358  1.0483  0.0586  0.2153
21096SOL    HW170146   8.377   7.003   1.304 -0.6264 -1.9657  0.3507
21096SOL    HW270147   8.282   7.121   1.297  1.0749 -0.6019 -0.5001
21097SOL     OW70148   1.316   1.919   9.951  0.6942 -0.2307 -0.5648
21097SOL    HW170149   1.230   1.877   9.944  0.6621 -0.4119  0.6662
21097SOL    HW270150   1.352   1.913   9.863 -0.5272 -0.2088 -1.0903
21098SOL     OW70151  12.367   5.403   0.253 -0.7211 -0.0093  1.2054
21098SOL    HW170152  12.457   5.377   0.276 -0.9669 -1.7786  0.3205
21098SOL    HW270153  12.378   5.467   0.182 -0.1615 -0.6834  0.6687
21099SOL     OW70154   8.468   5.522   0.829 -0.5274  0.3867 -0.2339
21099SOL    HW170155   8.480   5.543   0.736  0.7637  0.6320 -0.0301
21099SOL    HW270156   8.374   5.511   0.839 -0.5719 -1.1688 -1.8892
21100SOL     OW70157   8.844   9.136  10.970  0.2559  0.3667  0.0712
21100SOL    HW170158   8.852   9.133  11.065  1.8784 -0.7148 -0.0600
21100SOL    HW270159   8.837   9.230  10.950  0.3830  0.6417  1.2179
21101SOL     OW70160   6.026   3.480   4.374  0.2085  0.5612 -0.0090
21101SOL    HW170161   5.956   3.544   4.392 -1.3567 -1.0656  0.0148
21101SOL    HW270162   6.071   3.470   4.458 -0.0376  1.0430  0.1855
21102SOL     OW70163   6.856   1.106   7.010  0.1870 -0.1128  0.0182
21102SOL    HW170164   6.876   1.054   6.932  1.1639  2.3308 -1.4736
21102SOL    HW270165   6.938   1.152   7.030 -1.1472  2.4448 -0.0511
21103SOL     OW70166   1.782   2.781  11.522  0.0350  0.1346 -0.3855
21103SOL    HW170167   1.693   2.745  11.522 -1.0409  2.5815 -0.9777
21103SOL    HW270168   1.798   2.808  11.612  1.2962 -2.6415  0.3242
21104SOL     OW70169  10.415  11.027   9.875  0.3593  0.3630 -0.0139
21104SOL    HW170170  10.361  10.949   9.886 -2.5283  1.9648 -1.6258
21104SOL    HW270171  10.458  11.015   9.790  0.1900  0.3542 -0.0990
21105SOL     OW70172   9.111   9.982   6.889 -0.7821  0.0146 -0.0150
21105SOL    HW170173   9.082   9.982   6.798 -2.1507  1.6037  0.3845
21105SOL    HW270174   9.146  10.070   6.903 -2.4196  0.4755  1.5140
21106SOL     OW70175  12.109   2.563  10.067  0.0711  0.3343  0.6952
21106SOL    HW170176  12.133   2.500  10.135 -1.0839 -0.2411  0.6000
21106SOL    HW270177  12.128   2.516   9.985  0.4991  0.6347  0.6235
21107SOL     OW70178  10.987   5.508   5.352  0.1132  0.1449  0.2450
21107SOL    HW170179  11.050   5.575   5.326  0.3493 -0.2135 -0.1046
21107SOL    HW270180  11.012   5.430   5.303 -0.7947  0.0856 -0.1618
21108SOL     OW70181  10.305   1.354   9.999  0.2692 -0.5086  0.2086
21108SOL    HW170182  10.274   1.347   9.909 -1.0324  0.9586  0.5006
21108SOL    HW270183  10.234   1.398  10.046  2.5304  2.6027  1.0438
21109SOL     OW70184  10.781   1.495  10.307  0.3531  0.1168  0.2338
21109SOL    HW170185  10.859   1.479  10.360  0.4196  1.6300  0.6552
21109SOL    HW270186  10.717   1.431  10.338  1.4020 -1.1404 -0.1141
21110SOL     OW70187   0.587   6.365   7.767 -0.0332  0.2224 -0.3138
21110SOL    HW170188   0.549   6.377   7.855  0.8179  2.3702 -0.1898
21110SOL    HW270189   0.511   6.367   7.708 -0.4679  0.3736  0.2394
21111SOL     OW70190   9.137   3.570  10.326 -0.3297  0.6038  0.1984
21111SOL    HW170191   9.108   3.653  10.287 -1.7266 -0.1421 -0.4500
21111SOL    HW270192   9.089   3.565  10.408 -0.0271  0.5615  0.3723
21112SOL     OW70193   9.457   6.524  11.995 -0.1288 -0.3229  0.2189
21112SOL    HW170194   9.529   6.578  12.027 -0.3149 -0.1177  0.2982
21112SOL    HW270195   9.411   6.496  12.075 -0.0579 -0.5646  0.1769
21113SOL     OW70196   2.598  12.362  11.196 -0.2350  0.3075  0.3376
21113SOL    HW170197   2.675  12.345  11.250  1.2361  3.8156 -0.3279
21113SOL    HW270198   2.622  12.440  11.145 -2.8387 -0.7066 -2.7911
21114SOL     OW70199   4.336  11.614  10.128 -0.9879 -0.1946  0.1817
21114SOL    HW170200   4.406  11.673  10.101 -1.1237 -0.5358 -0.9886
21114SOL    HW270201   4.367  11.527  10.103 -0.6806 -0.6856  2.1125
21115SOL     OW70202  11.928   2.251   5.329  0.0998 -0.2257 -0.0736
21115SOL    HW170203  11.862   2.316   5.351 -0.1726 -0.6046  0.2391
21115SOL    HW270204  11.880   2.168   5.326  0.6739 -0.5947  0.7500
21116SOL     OW70205   1.997   0.486   5.788 -0.6742  0.6314  0.4042
21116SOL    HW170206   1.951   0.421   5.734  0.5471  0.0450  0.0393
21116SOL    HW270207   1.947   0.567   5.776 -1.6954 -0.0179  0.1437
21117SOL     OW70208  11.526   8.601   4.178  0.0178 -0.1311 -0.0960
21117SOL    HW170209  11.544   8.687   4.216 -1.0510  0.1518 -0.1968
21117SOL    HW270210  11.581   8.540   4.227 -0.7464  0.3358  1.3971
21118SOL     OW70211   9.677   2.737   5.740  0.3095 -0.1875 -0.3059
21118SOL    HW170212   9.610   2.732   5.672  0.1356 -2.1771 -0.0599
21118SOL    HW270213   9.755   2.698   5.699  0.8167  0.5300 -0.0340
21119SOL     OW70214   1.836   2.565  11.187  0.3404 -0.2034 -0.3255
21119SOL    HW170215   1.777   2.564  11.112  0.2703  0.4092 -0.2826
21119SOL    HW270216   1.878   2.651  11.183 -0.7676  0.4490  1.1955
21120SOL     OW70217  12.330   6.453  12.247  0.0891 -0.2217 -0.4659
21120SOL    HW170218  12.244   6.485  12.272  0.1748 -0.6941  0.4959
21120SOL    HW270219  12.345   6.489  12.160 -0.7977  0.3988 -0.3747
21121SOL     OW70220   0.545   5.279   2.544  0.2213 -0.3680  0.1371
21121SOL    HW170221   0.501   5.344   2.599 -0.9904 -1.5840  0.6316
21121SOL    HW270222   0.534   5.312   2.455  1.4727  1.1844  0.5024
21122SOL     OW70223   7.631  11.391   6.181  0.6569  0.0922  0.2881
21122SOL    HW170224   7.592  11.463   6.131  1.4698 -0.8848 -1.8754
21122SOL    HW270225   7.580  11.314   6.156  2.4044 -0.7927 -0.7488
21123SOL     OW70226   1.179   9.962   7.342 -0.5278  0.0089 -0.1263
21123SOL    HW170227   1.243  10.032   7.327 -0.6522  0.0853 -0.2897
21123SOL    HW270228   1.108   9.980   7.282 -1.0122  0.3022  0.5195
21124SOL     OW70229  12.232   4.150   2.908 -0.1871  0.2529 -0.2344
21124SOL    HW170230  12.185   4.233   2.919 -1.8342 -0.6130 -0.4346
21124SOL    HW270231  12.199   4.095   2.979 -0.6259 -0.8752 -1.2816
21125SOL     OW70232   5.803  10.331   8.982  0.9380  0.4816 -0.6495
21125SOL    HW170233   5.751  10.297   9.055 -0.5285  0.1591 -1.7959
21125SOL    HW270234   5.894  10.318   9.009  0.4272 -1.2573  0.3794
21126SOL     OW70235   0.622   4.296  10.964 -0.7031 -0.3192  0.5760
21126SOL    HW170236   0.688   4.295  11.033 -0.1920 -0.6900  0.0837
21126SOL    HW270237   0.666   4.262  10.887 -1.5800 -0.9544  0.3367
21127SOL     OW70238   5.575  10.011   5.104  0.0250  0.0056 -0.0759
21127SOL    HW170239   5.658   9.965   5.118  0.0869 -0.2292 -1.1264
21127SOL    HW270240   5.600  10.102   5.090 -0.1702  0.7007  3.1519
21128SOL     OW70241   6.398   6.323   5.975 -0.4974 -0.1241  0.0998
21128SOL    HW170242   6.488   6.335   5.945  0.1384 -0.2199  1.8469
21128SOL    HW270243   6.344   6.346   5.899  0.9400  1.7951 -0.4236
21129SOL     OW70244   4.664   8.585   9.481  0.6108  0.2630 -0.4118
21129SOL    HW170245   4.630   8.674   9.483 -4.3699 -1.3125 -1.5650
21129SOL    HW270246   4.635   8.546   9.563  0.7747 -0.8791 -0.8777
21130SOL     OW70247   7.212   8.314   7.234  0.1035 -0.0191  0.8213
21130SOL    HW170248   7.243   8.293   7.323 -1.0681 -1.4617  0.9316
21130SOL    HW270249   7.287   8.293   7.178  0.2953 -0.7321  1.3243
21131SOL     OW70250   7.478   4.061   7.580 -0.0092  0.8953  0.4364
21131SOL    HW170251   7.562   4.106   7.589 -0.3337  1.3682  1.1872
21131SOL    HW270252   7.502   3.969   7.568  0.6170  0.7763  2.2524
21132SOL     OW70253  11.673   9.460   1.862 -0.1813 -0.4631  0.1639
21132SOL    HW170254  11.748   9.461   1.922  0.2430  1.5069 -0.3464
21132SOL    HW270255  11.598   9.482   1.917  0.2336  1.5211  0.0031
21133SOL     OW70256   5.445  12.011   1.882 -0.0531  0.1572  0.3564
21133SOL    HW170257   5.476  12.097   1.910  0.8481 -0.3700  1.0346
21133SOL    HW270258   5.440  11.960   1.963 -0.4854 -0.4602 -0.0495
21134SOL     OW70259   0.444  12.517   9.861 -0.0731  0.3914 -0.0572
21134SOL    HW170260   0.531  12.493   9.827 -0.3171 -1.8478  0.7342
21134SOL    HW270261   0.446  12.613   9.864  3.0759  0.4181  1.6459
21135SOL     OW70262   3.329   7.360   4.216 -0.6434 -0.2660  0.1317
21135SOL    HW170263   3.318   7.413   4.137  0.6236 -1.0801 -0.6360
21135SOL    HW270264   3.417   7.324   4.208  0.1820  0.9622  2.7721
21136SOL     OW70265   7.175   9.952   6.542 -0.4475  0.2329 -0.2296
21136SOL    HW170266   7.240   9.924   6.606 -0.9413  0.1041  0.2190
21136SOL    HW270267   7.213  10.030   6.501 -0.6960  1.1213  1.1618
21137SOL     OW70268   7.886   5.407   3.598 -0.8638  0.1119 -0.1690
21137SOL    HW170269   7.932   5.407   3.682  3.2080 -0.6208 -2.1248
21137SOL    HW270270   7.794   5.424   3.620  0.1800  1.2532  4.2267
21138SOL     OW70271   6.161   6.999   1.410 -0.1115 -0.5372  0.7363
21138SOL    HW170272   6.073   7.027   1.386  0.0462 -0.7197 -0.1022
21138SOL    HW270273   6.206   7.080   1.436 -0.6200 -0.4941  1.5149
21139SOL     OW70274   1.105   0.989   9.528  0.1915 -0.4257 -0.2581
21139SOL    HW170275   1.031   0.940   9.494 -0.1911  0.8518 -1.3691
21139SOL    HW270276   1.095   1.077   9.491  1.3429  0.2410  0.9195
21140SOL     OW70277  10.709   0.014  12.352 -0.2263  0.4328  0.4742
21140SOL    HW170278  10.674  -0.008  12.438  0.4719  1.3531  1.0038
21140SOL    HW270279  10.804   0.014  12.363 -0.1450  1.5760 -0.0127
21141SOL     OW70280   9.220  11.621  12.098 -0.1958  0.4219 -0.0041
21141SOL    HW170281   9.275  11.695  12.072 -1.0217  0.5911 -1.3451
21141SOL    HW270282   9.216  11.565  12.020 -0.7287 -0.3266  0.5438
21142SOL     OW70283   3.568  10.206   0.906  0.3497  0.0723 -0.1837
21142SOL    HW170284   3.546  10.176   0.994  1.0395 -1.7193 -0.5707
21142SOL    HW270285   3.662  10.187   0.898 -0.0945 -1.6123 -1.9497
21143SOL     OW70286   9.422   7.796   1.072  0.0165 -0.2924 -0.0536
21143SOL    HW170287   9.330   7.822   1.077 -0.2473 -0.8796 -1.4867
21143SOL    HW270288   9.465   7.866   1.024  0.0883 -0.5515 -0.3740
21144SOL     OW70289   3.790   2.779   0.330  0.2443 -0.2709  0.3841
21144SOL    HW170290   3.829   2.805   0.247 -0.1755 -4.2295 -1.2518
21144SOL    HW270291   3.865   2.768   0.389  0.6617  1.1832  0.1822
21145SOL     OW70292   6.951   0.133   7.030  0.5171  0.3387  0.3693
21145SOL    HW170293   6.867   0.169   7.001  0.5626  1.6160  1.7131
21145SOL    HW270294   6.944   0.127   7.125  1.1105 -1.8284  0.3346
21146SOL     OW70295  11.725   7.613   6.832 -0.1256  0.4701 -0.4518
21146SOL    HW170296  11.761   7.650   6.752  2.0922  0.1390  0.3057
21146SOL    HW270297  11.701   7.689   6.886 -2.0703  0.6907 -1.5641
21147SOL     OW70298   7.976   9.042   7.146 -0.2783  0.4966  0.5929
21147SOL    HW170299   7.948   9.080   7.229 -2.2355  1.1499 -0.3101
21147SOL    HW270300   7.940   9.100   7.079  0.0854 -0.7501 -0.7566
21148SOL     OW70301   7.423   6.674  12.165 -0.9142 -0.3278 -0.1852
21148SOL    HW170302   7.514   6.649  12.153 -1.1585 -0.1611 -3.1460
21148SOL    HW270303   7.374   6.592  12.152 -1.2939  0.0907 -1.5550
21149SOL     OW70304  12.554   7.640   8.391  1.1547 -0.4965  0.5558
21149SOL    HW170305  12.527   7.548   8.382  0.6271 -0.4931  1.8702
21149SOL    HW270306  12.489   7.678   8.450  0.4479  1.1528 -1.2169
21150SOL     OW70307   5.337   6.793   7.833  0.0753  0.1262 -0.2813
21150SOL    HW170308   5.308   6.828   7.749 -1.8697  0.0132  0.2911
21150SOL    HW270309   5.433   6.793   7.828  0.0242  1.3981 -1.9499
21151SOL     OW70310   1.008   0.721   2.596  0.1353  0.3009 -0.0855
21151SOL    HW170311   0.947   0.794   2.600  0.1452  0.4223 -1.4305
21151SOL    HW270312   0.987   0.677   2.513  1.9799  0.4827 -0.7039
21152SOL     OW70313   5.905   3.261   8.270  0.5531 -0.3604 -0.2766
21152SOL    HW170314   5.941   3.345   8.241  1.5181 -0.4809  0.5084
21152SOL    HW270315   5.906   3.266   8.366  0.2345 -1.1136 -0.2274
21153SOL     OW70316   6.435   8.251  10.352  0.1407  0.5100 -0.1521
21153SOL    HW170317   6.367   8.195  10.316  1.0951 -0.5487 -0.3598
21153SOL    HW270318   6.517   8.206  10.331  0.8558  1.1639  1.0957
21154SOL     OW70319   0.124  11.523  10.082  0.9376 -0.0436 -0.3679
21154SOL    HW170320   0.117  11.446  10.138  0.2085  0.5920  0.4593
21154SOL    HW270321   0.090  11.495   9.997  1.5926 -0.8886 -0.3535
21155SOL     OW70322   3.362   7.209  11.832  0.3746 -0.4912  0.5650
21155SOL    HW170323   3.382   7.119  11.855  1.4691 -0.8058 -1.3881
21155SOL    HW270324   3.434   7.236  11.775 -0.9815  0.9034 -0.5910
21156SOL     OW70325   5.445   4.860   1.633 -0.5541 -0.3667 -0.6448
21156SOL    HW170326   5.473   4.923   1.700  1.5978 -0.8950 -0.9594
21156SOL    HW270327   5.435   4.777   1.681  1.5058 -0.8676 -0.9886
21157SOL     OW70328   6.616   4.608   5.520  0.0091 -0.1690 -0.0133
21157SOL    HW170329   6.614   4.513   5.508  1.7202 -0.3418  0.7829
21157SOL    HW270330   6.696   4.636   5.474  0.8067  0.5421  1.7085
21158SOL     OW70331   5.992   2.074  10.983 -1.2493 -0.4531 -0.1874
21158SOL    HW170332   6.058   2.014  10.948 -1.0229 -0.3686  0.0958
21158SOL    HW270333   6.039   2.156  10.999 -2.1534  0.8028 -3.3460
21159SOL     OW70334   8.100  10.341   1.280  0.2671  0.5873 -0.0738
21159SOL    HW170335   8.089  10.433   1.256  0.6933  0.8776  0.8322
21159SOL    HW270336   8.060  10.293   1.207  1.9544  1.4290 -1.6386
21160SOL     OW70337   7.258   6.365   4.174 -0.4393  0.6444  0.4196
21160SOL    HW170338   7.326   6.316   4.222 -1.1890 -0.9264 -0.0369
21160SOL    HW270339   7.304   6.441   4.139  0.6557  0.6084  1.6595
21161SOL     OW70340   0.073   3.076   4.081 -0.9086  0.0089  0.3084
21161SOL    HW170341   0.130   3.139   4.126 -0.7853 -0.3104  0.6079
21161SOL    HW270342   0.127   3.041   4.011 -0.6832 -0.4021  0.6835
21162SOL     OW70343   3.364   5.548   3.613  0.9347  0.0124  0.0907
21162SOL    HW170344   3.348   5.592   3.530  0.4680 -0.5021 -0.0987
21162SOL    HW270345   3.276   5.534   3.650  1.1359  0.2077  0.6544
21163SOL     OW70346   7.672   3.983   7.035 -0.2781 -0.6167 -0.9932
21163SOL    HW170347   7.711   3.919   7.094 -1.1853 -2.4456 -2.2727
21163SOL    HW270348   7.644   3.932   6.959 -0.3895  1.4258 -2.4240
21164SOL     OW70349   2.207   1.377  11.729  0.4897 -0.1904 -0.4043
21164SOL    HW170350   2.171   1.426  11.803  1.7062 -0.6022  0.4919
21164SOL    HW270351   2.176   1.288  11.742  1.1672 -0.3809 -0.0663
21165SOL     OW70352   0.392   6.597   2.288  0.1572  0.5975  0.1744
21165SOL    HW170353   0.405   6.654   2.212 -0.0348 -2.1755 -2.1492
21165SOL    HW270354   0.297   6.591   2.297  0.1716  0.4469  0.2299
21166SOL     OW70355   8.684   2.200   4.120  0.2461 -0.3710 -0.4527
21166SOL    HW170356   8.770   2.160   4.109 -0.8405 -3.5623  1.4193
21166SOL    HW270357   8.640   2.183   4.037  0.3230 -1.8636 -0.2227
21167SOL     OW70358   5.291  11.242   5.712 -0.6802  0.4359  0.4012
21167SOL    HW170359   5.370  11.203   5.675 -0.0647 -0.7122  2.6868
21167SOL    HW270360   5.221  11.214   5.654  0.6130  2.2484 -2.2096
21168SOL     OW70361   5.413   4.662   2.388 -0.2121  0.3460 -0.4128
21168SOL    HW170362   5.320   4.668   2.366  0.2969 -0.5246 -3.2343
21168SOL    HW270363   5.435   4.570   2.372  1.3183  0.7425 -0.7429
21169SOL     OW70364   2.200   1.617  10.682 -0.5208  0.2485 -0.5912
21169SOL    HW170365   2.154   1.689  10.639  1.3452  1.8239 -0.0958
21169SOL    HW270366   2.273   1.597  10.623 -0.1015 -0.1440  0.0490
21170SOL     OW70367   1.622   2.920   4.250 -0.0059 -0.2331 -0.4674
21170SOL    HW170368   1.705   2.876   4.266 -0.6996 -1.0219  1.1695
21170SOL    HW270369   1.647   3.004   4.211  1.6594  0.1304  1.2112
21171SOL     OW70370   9.233   3.216   4.498  0.0093 -0.2702  0.4704
21171SOL    HW170371   9.319   3.242   4.532 -0.4710 -0.4310  1.8826
21171SOL    HW270372   9.253   3.156   4.427  1.0690 -0.5252  0.9580
21172SOL     OW70373   0.500   8.464   1.662  0.0656  0.3477 -0.2128
21172SOL    HW170374   0.510   8.416   1.580  0.7206 -2.4801  1.4124
21172SOL    HW270375   0.589   8.490   1.685  0.2676 -1.1498  0.8323
21173SOL     OW70376   6.330   6.119   8.405  0.5487  0.0153 -0.2179
21173SOL    HW170377   6.305   6.183   8.472  0.6503 -1.9131  1.7781
21173SOL    HW270378   6.288   6.038   8.433  1.2567 -1.0592 -2.0964
21174SOL     OW70379   6.755   6.188   4.944  0.6695  0.0518  0.2711
21174SOL    HW170380   6.694   6.206   4.873 -0.9659  0.3520  1.6762
21174SOL    HW270381   6.814   6.121   4.910 -1.0044 -0.8915 -0.8586
21175SOL     OW70382   6.012   9.951   8.891 -0.1939  0.1932 -0.0501
21175SOL    HW170383   6.060   9.954   8.974  0.4150  3.4347 -0.3830
21175SOL    HW270384   6.079   9.949   8.824 -0.6874 -2.1699 -0.5742
21176SOL     OW70385  10.993   8.445   1.493 -0.0359  0.4148 -0.2491
21176SOL    HW170386  10.978   8.365   1.443 -2.3239  0.6781 -0.0862
21176SOL    HW270387  10.939   8.511   1.450  0.9524  1.6254  0.2937
21177SOL     OW70388   0.481   3.901   6.527 -0.0810 -0.6349  0.5851
21177SOL    HW170389   0.470   3.806   6.520  0.1596 -0.6154 -0.0352
21177SOL    HW270390   0.417   3.937   6.466  0.7323 -0.4281 -0.1605
21178SOL     OW70391   4.798  11.499   8.287 -0.7668 -0.1245 -0.5439
21178SOL    HW170392   4.717  11.547   8.272 -0.2361  1.2131  0.6642
21178SOL    HW270393   4.867  11.565   8.280  0.1875 -1.1486 -1.0947
21179SOL     OW70394   4.271   8.405   8.750  0.2330 -0.0022  0.0665
21179SOL    HW170395   4.313   8.324   8.722 -0.6782 -0.2477 -0.6345
21179SOL    HW270396   4.266   8.397   8.846  1.0023 -0.3463  0.0813
21180SOL     OW70397   8.225   2.192   6.369  0.0024 -0.0619  0.3520
21180SOL    HW170398   8.297   2.242   6.330  2.1327 -2.1700  1.3008
21180SOL    HW270399   8.253   2.175   6.459 -2.4218  0.2919  1.2388
21181SOL     OW70400   1.610   3.400   0.196 -0.4692 -0.9668 -0.4381
21181SOL    HW170401   1.577   3.479   0.153 -1.5803 -0.1548  1.7454
21181SOL    HW270402   1.574   3.328   0.145 -1.4046 -0.0456 -1.1209
21182SOL     OW70403   6.543   2.059   3.544 -0.2982  0.8790  0.3293
21182SOL    HW170404   6.620   2.115   3.551 -0.3804  0.9259  0.9098
21182SOL    HW270405   6.547   2.025   3.455  1.0030  0.0137  0.6776
21183SOL     OW70406   9.191   3.281   6.670  0.1892  0.2787 -0.3561
21183SOL    HW170407   9.161   3.258   6.758 -2.0822  1.4782 -0.7550
21183SOL    HW270408   9.166   3.207   6.616 -2.8042  1.4318 -0.7711
21184SOL     OW70409   7.234  11.093   6.607  0.1211 -0.5039  0.3508
21184SOL    HW170410   7.278  11.043   6.538 -0.0823  1.5396 -1.3686
21184SOL    HW270411   7.304  11.133   6.657  0.2750 -2.1198  1.5130
21185SOL     OW70412   3.333   4.336   8.364  0.1241 -0.4571  0.3198
21185SOL    HW170413   3.284   4.393   8.422  1.4109 -0.0399  1.0333
21185SOL    HW270414   3.418   4.325   8.406  0.7528 -0.9403 -1.0048
21186SOL     OW70415   9.923   1.926   4.425 -0.2920  0.4196 -0.4069
21186SOL    HW170416   9.879   1.931   4.510 -1.4185  3.3738 -1.0337
21186SOL    HW270417   9.885   1.849   4.383 -0.8009 -0.2516  1.1897
21187SOL     OW70418   2.985  11.517   4.184  0.3432 -0.5228 -0.4846
21187SOL    HW170419   2.992  11.512   4.089 -0.1832 -2.0192 -0.4767
21187SOL    HW270420   3.022  11.435   4.215 -1.7581 -1.2000  0.4331
21188SOL     OW70421  12.273   6.247   5.325 -0.1635 -0.3520  0.0216
21188SOL    HW170422  12.215   6.204   5.387  0.7810 -3.3382 -1.0270
21188SOL    HW270423  12.225   6.248   5.243 -0.1788  0.7109  0.0245
21189SOL     OW70424   4.212   4.692   1.188 -0.4467 -0.0424 -0.4402
21189SOL    HW170425   4.182   4.748   1.117  0.2423  1.7034  0.5714
21189SOL    HW270426   4.289   4.647   1.153 -0.3721  0.4637 -0.9412
21190SOL     OW70427  10.563   8.318  10.903  0.3566  0.5575  0.4544
21190SOL    HW170428  10.587   8.226  10.893 -0.3296  0.4642 -0.4199
21190SOL    HW270429  10.467   8.318  10.905  0.3506  1.2511  0.4958
21191SOL     OW70430   8.516  10.997  11.514  0.2756  0.1696 -0.1969
21191SOL    HW170431   8.578  11.055  11.472 -0.9176  0.0492 -2.2478
21191SOL    HW270432   8.495  10.931  11.448  0.6885 -1.9581  1.6537
21192SOL     OW70433   9.338   9.939   0.890  0.3044  0.2945 -0.3606
21192SOL    HW170434   9.273   9.910   0.826 -1.5379  1.9125  0.6540
21192SOL    HW270435   9.404   9.870   0.891 -1.6230 -1.6676 -1.1250
21193SOL     OW70436   4.945   8.995   4.711  0.0770  0.1476  0.6613
21193SOL    HW170437   4.897   8.953   4.783 -0.5382 -0.7248 -0.2396
21193SOL    HW270438   5.000   9.060   4.755 -0.6614 -0.0060  1.8817
21194SOL     OW70439   7.125  11.533   9.709  0.4507 -0.1115  0.2120
21194SOL    HW170440   7.116  11.608   9.650 -0.6760 -0.8907 -0.6371
21194SOL    HW270441   7.170  11.467   9.656  0.8368 -0.2823  0.7467
21195SOL     OW70442   4.995   2.618   0.513  0.3949 -0.1590 -0.0477
21195SOL    HW170443   5.064   2.676   0.545 -0.3823  1.5169 -1.3040
21195SOL    HW270444   5.042   2.541   0.480  1.7475  1.1749 -1.3671
21196SOL     OW70445   8.008   4.365  10.209  0.2570  0.5224  0.1787
21196SOL    HW170446   8.084   4.372  10.150 -0.0111 -0.7024 -0.3531
21196SOL    HW270447   7.933   4.388  10.154 -0.0832 -1.3801 -0.2327
21197SOL     OW70448   9.415  10.175  10.002  0.0854 -0.5545 -0.1162
21197SOL    HW170449   9.420  10.151   9.909 -0.0076 -0.3248 -0.1803
21197SOL    HW270450   9.329  10.215  10.011  0.0292 -0.7263  0.1048
21198SOL     OW70451   7.072  12.237  12.484 -0.2663  0.3554 -0.2018
21198SOL    HW170452   7.165  12.236  12.508 -0.6146 -2.3409  1.4086
21198SOL    HW270453   7.030  12.290  12.553 -0.2430 -0.6977  0.6388
21199SOL     OW70454   4.950   9.142   9.579  0.1484  0.1879  0.5396
21199SOL    HW170455   4.947   9.046   9.581  0.7537  0.0891 -1.1248
21199SOL    HW270456   5.031   9.164   9.625  0.2352 -0.1356  0.5442
21200SOL     OW70457   3.725   1.396   1.931 -0.6114 -0.2637 -0.2122
21200SOL    HW170458   3.737   1.304   1.951  0.9404 -0.2435 -0.9091
21200SOL    HW270459   3.652   1.424   1.987 -0.3061 -1.6074  0.8977
21201SOL     OW70460   9.233  12.464   2.339  0.5468 -0.1299 -0.0793
21201SOL    HW170461   9.215  12.556   2.358 -0.2014 -0.5894  1.6853
21201SOL    HW270462   9.179  12.444   2.262  0.7383  0.9021 -0.4924
21202SOL     OW70463   9.053   7.389   8.443 -0.2955 -0.2374 -0.7131
21202SOL    HW170464   9.045   7.337   8.523 -2.7612 -1.2705 -1.5653
21202SOL    HW270465   9.102   7.467   8.471 -1.3707 -0.3826  1.9051
21203SOL     OW70466   7.050   0.438   4.379 -0.4812  0.0986  0.3640
21203SOL    HW170467   7.008   0.351   4.379  0.2994 -0.2883  0.9274
21203SOL    HW270468   7.142   0.420   4.398 -0.0718  0.9539 -0.7305
21204SOL     OW70469   0.263   1.656   4.944 -0.0228  0.6402  0.1386
21204SOL    HW170470   0.327   1.710   4.989 -0.7450  1.8637 -0.2640
21204SOL    HW270471   0.197   1.717   4.912 -1.9879 -0.6558  1.4687
21205SOL     OW70472   5.943   4.795   9.014 -0.5185  0.0611 -0.1299
21205SOL    HW170473   5.930   4.735   8.941 -0.5102 -0.8025  0.5677
21205SOL    HW270474   5.937   4.882   8.975 -0.8985 -0.3872 -1.0919
21206SOL     OW70475  10.772   3.172   9.170 -0.5964  0.4297 -0.2243
21206SOL    HW170476  10.846   3.128   9.212 -0.5480  1.1980  0.5176
21206SOL    HW270477  10.740   3.233   9.236 -1.5511  0.5014 -0.7418
21207SOL     OW70478   1.247   8.732   2.800  0.6186 -0.0224  0.4436
21207SOL    HW170479   1.190   8.693   2.734  2.6671 -1.9322 -0.3340
21207SOL    HW270480   1.230   8.826   2.794 -1.4789 -0.4197 -0.6043
21208SOL     OW70481  10.486   3.477   0.337 -0.0508 -0.8876 -0.1862
21208SOL    HW170482  10.490   3.398   0.284  0.5318 -1.0180  0.0460
21208SOL    HW270483  10.448   3.450   0.420  1.2206 -1.1763  0.3235
21209SOL     OW70484   7.075   4.193  10.057 -0.0448 -0.2099  0.4914
21209SOL    HW170485   7.056   4.242  10.137  0.2598 -0.0111  0.4408
21209SOL    HW270486   7.001   4.213   9.999 -0.1101 -0.1089  0.6090
21210SOL     OW70487   2.111   8.448  10.237  0.6707  0.0602  0.3622
21210SOL    HW170488   2.125   8.538  10.266  0.5912  0.6468 -1.3055
21210SOL    HW270489   2.150   8.445  10.150  1.4243 -1.7681  0.7121
21211SOL     OW70490   4.903   5.564  10.352 -0.0550  0.1384  0.2309
21211SOL    HW170491   4.902   5.498  10.421 -2.1328 -1.6074 -1.3117
21211SOL    HW270492   4.986   5.549  10.306  0.3370 -0.1299  1.0055
21212SOL     OW70493   7.180   4.690   3.393  0.0613 -0.0121 -0.0572
21212SOL    HW170494   7.140   4.735   3.318 -1.0121  0.3800  0.7249
21212SOL    HW270495   7.220   4.760   3.444 -1.3956  0.0732  1.0338
21213SOL     OW70496  12.121   1.519  10.415 -0.1278  0.0716 -0.5162
21213SOL    HW170497  12.193   1.456  10.423  0.1331  0.2152 -1.5637
21213SOL    HW270498  12.077   1.517  10.500 -0.3153 -1.7571 -0.6196
21214SOL     OW70499   1.570   4.634   8.282  0.4188 -0.0445 -0.5378
21214SOL    HW170500   1.582   4.568   8.213 -0.8237 -0.0162 -0.7928
21214SOL    HW270501   1.607   4.593   8.360  3.5971  0.6380 -1.5289
21215SOL     OW70502  11.852   6.728  10.468 -0.1885  0.4256  0.1348
21215SOL    HW170503  11.910   6.731  10.392  0.3543  1.3500  0.5619
21215SOL    HW270504  11.790   6.799  10.454 -0.0309  0.6611  0.5854
21216SOL     OW70505   7.831   1.127   0.715  0.7405 -0.1003  0.3306
21216SOL    HW170506   7.926   1.135   0.703  0.4764  1.9214 -0.9162
21216SOL    HW270507   7.801   1.217   0.728 -1.1009 -0.6175 -0.0065
21217SOL     OW70508   7.450   4.001  10.673  0.2672  0.1031 -0.0006
21217SOL    HW170509   7.357   3.981  10.688 -0.4377  3.2071  0.3653
21217SOL    HW270510   7.449   4.068  10.605  2.1876  1.0831  0.8799
21218SOL     OW70511  11.910   8.656   4.291  0.7232 -0.3743 -0.5043
21218SOL    HW170512  11.960   8.687   4.366  0.8849 -0.0837 -0.7310
21218SOL    HW270513  11.825   8.632   4.327  1.3702 -1.9434  0.0789
21219SOL     OW70514  12.288  10.733   4.185  0.0677 -0.0790  0.5632
21219SOL    HW170515  12.363  10.714   4.240  0.6613  1.7638  0.4631
21219SOL    HW270516  12.320  10.723   4.096 -0.4515 -1.4898  0.5165
21220SOL     OW70517   4.681   6.345   4.572  0.6829 -0.5704 -0.5809
21220SOL    HW170518   4.684   6.424   4.626 -2.5444 -0.4981 -0.2806
21220SOL    HW270519   4.694   6.273   4.633 -1.2394 -0.4132  0.0752
21221SOL     OW70520   6.409   0.288   2.200 -0.3721  0.0226  0.0110
21221SOL    HW170521   6.464   0.363   2.175  0.4078  0.0210  1.6281
21221SOL    HW270522   6.461   0.212   2.175  0.1006  0.0274  0.9214
21222SOL     OW70523   4.251   1.399  12.159  0.6806  0.2362 -0.1358
21222SOL    HW170524   4.198   1.319  12.159 -0.8497  1.2083 -0.7693
21222SOL    HW270525   4.204   1.459  12.101  1.4621  1.8192  0.8026
21223SOL     OW70526  10.141   5.385   1.692 -0.5349  0.3150  0.6832
21223SOL    HW170527  10.083   5.309   1.703 -3.2057  1.9374 -1.0633
21223SOL    HW270528  10.095   5.456   1.736  2.0788  0.9841  2.5888
21224SOL     OW70529   1.934   4.955   8.164 -0.7674 -0.1268  0.5046
21224SOL    HW170530   1.841   4.971   8.147 -0.6717  1.4676  1.3129
21224SOL    HW270531   1.980   5.000   8.094 -0.5870 -0.7055  0.2438
21225SOL     OW70532   1.319   1.938   2.024  0.3460  0.5063 -0.2203
21225SOL    HW170533   1.402   1.982   2.010  0.9625 -0.3444  0.6084
21225SOL    HW270534   1.256   2.008   2.037  0.6641  1.2002 -2.1775
21226SOL     OW70535   5.700   7.321   4.498 -0.2691 -0.5855  0.4240
21226SOL    HW170536   5.737   7.372   4.569 -0.4851  0.3136 -0.0926
21226SOL    HW270537   5.675   7.386   4.432 -0.1419 -1.3846 -0.4389
21227SOL     OW70538   0.950  12.202   9.891  0.4593 -0.5988 -0.8977
21227SOL    HW170539   0.917  12.126   9.842  0.1131 -2.0769  1.4594
21227SOL    HW270540   1.031  12.171   9.932 -0.5389 -0.3258  1.4491
21228SOL     OW70541   1.026  10.874   4.820  0.1523 -0.2898 -0.0842
21228SOL    HW170542   1.055  10.868   4.911 -0.0821  1.4085  0.1411
21228SOL    HW270543   0.931  10.869   4.825  0.1040  0.3688 -0.1459
21229SOL     OW70544   2.498  12.240   5.334  0.6909 -0.1699  0.1278
21229SOL    HW170545   2.434  12.185   5.289 -0.3086 -1.7821  3.2553
21229SOL    HW270546   2.447  12.311   5.372  0.4661 -1.7474  3.0872
21230SOL     OW70547   1.593  11.707   1.369 -0.1529  0.6256  0.3580
21230SOL    HW170548   1.686  11.726   1.361 -0.6263  3.6543  0.5947
21230SOL    HW270549   1.563  11.690   1.280  0.8430 -2.1228  0.4630
21231SOL     OW70550  10.825   1.534   8.403  0.1563  0.5758 -0.6338
21231SOL    HW170551  10.754   1.522   8.466 -0.8367 -1.3092 -2.0538
21231SOL    HW270552  10.808   1.470   8.334  2.9333  0.4581 -1.3071
21232SOL     OW70553   6.113   2.007   2.196  0.1169  0.1879  0.3311
21232SOL    HW170554   6.085   1.988   2.107  0.4772  0.4998  0.1534
21232SOL    HW270555   6.122   1.921   2.237 -0.0823  0.0466  0.0794
21233SOL     OW70556   3.442  10.437   3.677  0.6446 -0.1710 -0.0545
21233SOL    HW170557   3.360  10.425   3.726  0.3719  0.8424 -0.2444
21233SOL    HW270558   3.452  10.532   3.670  1.5617 -0.2940 -0.5021
21234SOL     OW70559   2.430   7.940   8.545 -0.0141 -0.4529  0.2295
21234SOL    HW170560   2.370   7.878   8.588 -0.2274  0.5284  1.4124
21234SOL    HW270561   2.381   8.022   8.542  0.2497 -0.3295 -1.3485
21235SOL     OW70562   4.913   6.346   9.986 -0.6909 -0.6207 -0.2255
21235SOL    HW170563   4.948   6.364  10.073  0.0919 -0.8709 -0.4777
21235SOL    HW270564   4.971   6.395   9.927  0.0970 -2.1408 -0.7487
21236SOL     OW70565   1.242   0.874  10.637 -0.8671  0.3969  0.0989
21236SOL    HW170566   1.297   0.859  10.714 -0.0404 -3.4079 -1.0226
21236SOL    HW270567   1.155   0.843  10.663 -0.2496 -2.3318 -0.8103
21237SOL     OW70568   4.408   7.984   2.566  0.3161 -0.0791  0.3807
21237SOL    HW170569   4.483   7.967   2.622 -0.7730  2.1166  2.7165
21237SOL    HW270570   4.333   7.954   2.617 -0.8503  3.3439  0.9472
21238SOL     OW70571   7.220   5.069  11.613  0.6263  0.0535  0.2567
21238SOL    HW170572   7.284   5.006  11.645 -0.0029  0.0142  1.5352
21238SOL    HW270573   7.251   5.153  11.644  0.4785  0.1362  0.1822
21239SOL     OW70574  12.442   5.976   6.573  0.5216 -0.2401  0.2913
21239SOL    HW170575  12.372   5.964   6.637  0.2940 -1.5532 -0.1710
21239SOL    HW270576  12.481   5.889   6.563  0.5367 -0.0784 -1.3724
21240SOL     OW70577  10.584   9.709   2.619 -0.4604  0.3499  0.3420
21240SOL    HW170578  10.555   9.738   2.705  0.5602  2.2613  0.1079
21240SOL    HW270579  10.679   9.698   2.627 -0.7005 -2.7533  0.2843
21241SOL     OW70580   5.029   5.476   8.572 -0.0946  0.6477  0.1127
21241SOL    HW170581   5.111   5.516   8.603  0.0724 -0.2264  0.8296
21241SOL    HW270582   4.986   5.445   8.651 -0.5157 -0.0376 -0.3737
21242SOL     OW70583   9.724   1.987   2.957  0.3733 -0.2424 -0.1937
21242SOL    HW170584   9.730   1.906   3.006 -2.8907 -1.4013 -1.4310
21242SOL    HW270585   9.638   2.023   2.980  0.5496  1.3769 -1.7861
21243SOL     OW70586   9.832   0.376   9.583 -0.0763 -0.5451  0.1760
21243SOL    HW170587   9.851   0.412   9.669 -1.3929 -1.5021  0.9154
21243SOL    HW270588   9.845   0.449   9.522  0.4561  0.2600  1.2312
21244SOL     OW70589   4.323   1.751  11.950  0.8398 -0.1754  0.0392
21244SOL    HW170590   4.319   1.760  12.045  0.9657 -0.7796  0.1080
21244SOL    HW270591   4.401   1.800  11.925  0.0095  1.2253  0.0706
21245SOL     OW70592   3.230  10.210  10.367  0.4980  0.2485  0.0450
21245SOL    HW170593   3.267  10.149  10.304 -1.3029 -1.7280  0.7675
21245SOL    HW270594   3.271  10.187  10.450  1.7454  1.8464 -0.0712
21246SOL     OW70595   2.040   6.474   2.070  0.0811 -0.6785  0.2338
21246SOL    HW170596   2.040   6.449   1.977 -0.2490  2.6163 -0.7871
21246SOL    HW270597   1.958   6.522   2.081 -0.3451 -1.8300  2.5460
21247SOL     OW70598   0.398   1.928   4.702  0.7822 -0.3401 -0.6320
21247SOL    HW170599   0.338   1.919   4.776  0.7257 -1.9294 -0.8383
21247SOL    HW270600   0.431   1.839   4.687  2.8385  0.3986 -0.8215
21248SOL     OW70601   3.036   6.557  12.473  0.3759  0.1037 -0.2641
21248SOL    HW170602   2.964   6.508  12.514  1.0465  0.0150  0.8648
21248SOL    HW270603   3.009   6.569  12.382 -0.4973 -1.0212 -0.1696
21249SOL     OW70604   8.069   9.619  11.199 -0.0993 -0.3872  0.3019
21249SOL    HW170605   8.063   9.715  11.198 -0.5862 -0.4067 -0.8240
21249SOL    HW270606   8.079   9.596  11.291 -1.1195  0.6952  0.7068
21250SOL     OW70607   4.052   0.116   3.976  0.1646  0.2749 -0.2413
21250SOL    HW170608   4.091   0.123   3.889 -2.1787 -1.0091 -1.4740
21250SOL    HW270609   3.979   0.177   3.975 -0.5153 -0.5007  0.4540
21251SOL     OW70610   1.779   6.930  10.193 -0.2480  0.0823  0.2860
21251SOL    HW170611   1.814   7.006  10.239 -0.0804  0.6097 -0.6806
21251SOL    HW270612   1.758   6.867  10.262 -1.2339  1.3355  1.1828
21252SOL     OW70613   4.274   0.460   2.813 -0.1719  0.0084  0.1646
21252SOL    HW170614   4.199   0.511   2.841  0.0585  0.5916 -0.2549
21252SOL    HW270615   4.286   0.484   2.721  0.5783 -0.0084  0.2510
21253SOL     OW70616   7.751  10.914   7.854  0.0287 -0.1827 -0.1817
21253SOL    HW170617   7.673  10.861   7.872 -0.2337  0.0682 -0.5496
21253SOL    HW270618   7.765  10.905   7.760  0.3952 -0.1552 -0.1323
21254SOL     OW70619   8.636  10.302  11.318  0.2423  0.9995  0.6782
21254SOL    HW170620   8.657  10.284  11.409 -2.6575 -0.7488  1.1174
21254SOL    HW270621   8.565  10.367  11.322 -1.1897 -0.4479 -0.1922
21255SOL     OW70622   1.111  12.314  11.704  0.4626  0.4228 -0.2102
21255SOL    HW170623   1.083  12.315  11.613 -0.4324 -0.9412  0.0111
21255SOL    HW270624   1.079  12.396  11.741 -0.0745  0.5180 -0.8785
21256SOL     OW70625   3.600   4.368  11.713 -0.1505  0.1495  0.2673
21256SOL    HW170626   3.610   4.279  11.747  0.6227 -0.1922 -0.8035
21256SOL    HW270627   3.674   4.417  11.750  0.0670  0.0553 -0.0391
21257SOL     OW70628   9.316  10.162   4.968  0.4263 -0.0318  0.4794
21257SOL    HW170629   9.237  10.109   4.959  0.6577 -0.2567 -0.3870
21257SOL    HW270630   9.339  10.157   5.061 -0.6026  0.0842  0.7500
21258SOL     OW70631   2.622   8.212  11.949 -0.1683 -0.1864 -0.1259
21258SOL    HW170632   2.675   8.190  11.873 -0.9359 -1.7232 -0.2496
21258SOL    HW270633   2.673   8.181  12.024  0.4232  1.0032 -0.0151
21259SOL     OW70634   0.703  11.071  12.242  0.0614 -0.2245  0.1135
21259SOL    HW170635   0.798  11.056  12.232  0.3143  1.2427  0.1534
21259SOL    HW270636   0.675  11.105  12.158 -0.4885 -0.8323  0.0419
21260SOL     OW70637   1.007   1.846   7.734  0.4783 -0.6016 -0.3999
21260SOL    HW170638   1.021   1.924   7.789  1.1795 -0.8901 -0.1588
21260SOL    HW270639   1.088   1.838   7.683  0.1620 -0.8229 -0.8686
21261SOL     OW70640   4.162   6.142   8.975 -0.5034  0.6320 -0.1978
21261SOL    HW170641   4.099   6.127   8.905  1.5230 -0.5660 -1.8724
21261SOL    HW270642   4.224   6.069   8.969 -1.0764 -0.4698  3.9298
21262SOL     OW70643  10.852   6.288  11.924  0.4139  0.0334  0.2375
21262SOL    HW170644  10.797   6.367  11.920  1.1260  0.5228 -0.1792
21262SOL    HW270645  10.790   6.217  11.938 -0.5463  0.3677 -1.8365
21263SOL     OW70646  12.061   3.580   5.337 -0.2033  0.1620  0.4414
21263SOL    HW170647  12.134   3.583   5.275  1.7250  1.0440  2.6301
21263SOL    HW270648  12.071   3.494   5.380  1.9317  1.6480  3.2785
21264SOL     OW70649   9.943   7.032   1.554 -0.4968 -0.1613  0.5763
21264SOL    HW170650   9.935   7.107   1.496  0.4567  0.2635  0.9776
21264SOL    HW270651   9.879   7.048   1.624 -0.4202  0.1949  0.5645
21265SOL     OW70652   3.803   4.216  12.034  0.6198  0.4484  0.3347
21265SOL    HW170653   3.778   4.280  12.101  0.7651  0.0202  0.8062
21265SOL    HW270654   3.866   4.159  12.078  1.2223  0.5607 -0.3733
21266SOL     OW70655  10.607   9.188   6.878 -0.3932 -0.5070  0.1064
21266SOL    HW170656  10.516   9.203   6.852  0.0911 -0.6997 -1.8633
21266SOL    HW270657  10.604   9.180   6.973 -2.2176  1.0003  0.2355
21267SOL     OW70658  11.528   0.527   4.305  0.4985 -0.0994 -0.0783
21267SOL    HW170659  11.593   0.477   4.353  1.1060 -0.1025 -0.8706
21267SOL    HW270660  11.574   0.556   4.226 -1.1524 -2.3540 -2.0421
21268SOL     OW70661  12.551   6.896   3.969  0.3125  0.0328 -0.0093
21268SOL    HW170662  12.538   6.899   4.064  0.6301  1.1859  0.0123
21268SOL    HW270663  12.586   6.809   3.952 -1.3122 -0.8075  0.7202
21269SOL     OW70664   4.782   6.119   1.974  0.0950 -0.7331  0.3198
21269SOL    HW170665   4.777   6.151   2.064  1.8224 -0.9389  0.5203
21269SOL    HW270666   4.707   6.061   1.965  1.2110 -2.6655  2.4558
21270SOL     OW70667   5.407  10.087   3.601 -0.1563 -0.1462 -0.2925
21270SOL    HW170668   5.446  10.004   3.628 -0.6417  0.2148  1.7108
21270SOL    HW270669   5.320  10.086   3.640 -1.0085  0.3731 -2.1204
21271SOL     OW70670  10.304  10.200   8.715 -0.4349  0.6054 -0.2593
21271SOL    HW170671  10.281  10.293   8.713 -0.4132  0.6204  0.0955
21271SOL    HW270672  10.399  10.199   8.704 -0.5249  0.5805 -1.0577
21272SOL     OW70673   4.916  11.713   6.812 -0.1362  0.4957  0.6895
21272SOL    HW170674   4.970  11.705   6.891 -0.8639 -1.0985  1.0608
21272SOL    HW270675   4.933  11.634   6.762  0.7290  1.7413 -1.0786
21273SOL     OW70676   3.038   3.651   8.732  0.6616 -0.0718 -0.1830
21273SOL    HW170677   3.019   3.667   8.824  1.4747 -0.4069  0.0476
21273SOL    HW270678   2.990   3.571   8.711  0.9252 -0.3005  0.0945
21274SOL     OW70679   7.662   4.110   7.995 -0.1044 -0.3169 -0.3505
21274SOL    HW170680   7.609   4.030   8.000  1.6473 -1.4642  1.1775
21274SOL    HW270681   7.741   4.083   7.950  0.6957  0.4413  0.5630
21275SOL     OW70682   2.997   4.996   3.312 -0.2833 -0.3982  0.0694
21275SOL    HW170683   3.092   4.986   3.323 -0.1231 -1.3291 -1.7478
21275SOL    HW270684   2.964   5.009   3.400  1.4358 -0.9643  0.8494
21276SOL     OW70685   1.564  11.114   3.998 -0.4041  0.0115 -0.0013
21276SOL    HW170686   1.629  11.172   4.036 -1.3740  1.6713 -0.7702
21276SOL    HW270687   1.507  11.171   3.947  0.3963 -1.9993 -3.4103
21277SOL     OW70688   6.796   9.352   4.205 -0.1663 -0.0575  0.3367
21277SOL    HW170689   6.785   9.270   4.157  0.1145 -0.1332  0.3971
21277SOL    HW270690   6.783   9.328   4.297 -0.0681 -0.0390  0.3557
21278SOL     OW70691  12.179   7.162  11.148  0.2904  1.5979  0.3681
21278SOL    HW170692  12.255   7.157  11.090 -0.1246 -0.2519 -0.0754
21278SOL    HW270693  12.194   7.093  11.213 -1.4607  0.4541 -0.3483
21279SOL     OW70694   5.425   1.442   3.313  0.3697  0.1130  0.2619
21279SOL    HW170695   5.349   1.465   3.259  1.3395  0.9166 -0.8287
21279SOL    HW270696   5.483   1.395   3.254  1.4753  1.0404  0.5777
21280SOL     OW70697   4.812  10.425   5.112 -0.4262 -0.3783  0.0985
21280SOL    HW170698   4.735  10.368   5.113 -1.0566  0.4598  0.5274
21280SOL    HW270699   4.781  10.508   5.150  0.1187  0.6924 -1.6934
21281SOL     OW70700   7.390   1.908  11.252  0.3086 -0.0366 -0.1038
21281SOL    HW170701   7.370   1.867  11.336 -0.2445  0.9317  0.2457
21281SOL    HW270702   7.395   1.835  11.190 -2.7653 -0.5094  0.0800
21282SOL     OW70703   6.792   0.581   8.344 -0.2956  0.1998 -0.2093
21282SOL    HW170704   6.838   0.585   8.428 -0.1805  1.3561 -0.3021
21282SOL    HW270705   6.741   0.501   8.348 -0.1369  0.1370  0.8886
21283SOL     OW70706   2.892   6.290  12.505  0.1679 -0.4379 -0.0319
21283SOL    HW170707   2.890   6.301  12.600 -1.7492 -1.9420  0.1790
21283SOL    HW270708   2.946   6.212  12.491  2.5056  1.1582 -0.4391
21284SOL     OW70709   6.423   7.606  10.524  0.5000  0.0895  0.0104
21284SOL    HW170710   6.503   7.582  10.477  1.4553  0.6167  1.3016
21284SOL    HW270711   6.392   7.685  10.479  1.3181  0.5049  0.1463
21285SOL     OW70712   2.130   2.594   4.818  0.1348  0.1776  0.0573
21285SOL    HW170713   2.139   2.574   4.725 -0.2554 -1.5762  0.3515
21285SOL    HW270714   2.068   2.667   4.822 -1.7937 -1.3186 -0.9672
21286SOL     OW70715   1.755   1.036   9.583 -0.1783  0.4278 -0.3427
21286SOL    HW170716   1.784   1.087   9.659 -1.3514  0.1693  0.3043
21286SOL    HW270717   1.715   0.958   9.621 -0.2244 -0.0047 -1.2549
21287SOL     OW70718   5.377   2.021   8.980 -0.1889  0.2746 -0.2178
21287SOL    HW170719   5.354   1.997   8.890  0.9869  0.2767 -0.5338
21287SOL    HW270720   5.395   2.115   8.975  0.4068  0.1689 -0.0952
21288SOL     OW70721  11.742  11.423   8.636  0.3120  0.1156  0.1310
21288SOL    HW170722  11.669  11.394   8.691 -0.3854  0.5980 -0.5259
21288SOL    HW270723  11.716  11.401   8.547  0.1858  1.8373 -0.2933
21289SOL     OW70724   0.209   4.851   6.873 -0.5391  0.2773  0.3997
21289SOL    HW170725   0.263   4.892   6.940  0.6936 -0.2853 -0.2249
21289SOL    HW270726   0.167   4.924   6.828 -0.5081  0.7107  1.0614
21290SOL     OW70727   3.639   1.487  11.741 -0.8183  0.1552  0.4209
21290SOL    HW170728   3.589   1.417  11.784  0.7585 -0.0171  2.0697
21290SOL    HW270729   3.621   1.475  11.648 -2.7608 -0.7174  0.8600
21291SOL     OW70730   9.792  10.826  11.133 -0.0931  0.3524 -0.7557
21291SOL    HW170731   9.786  10.921  11.126 -2.1150  0.3226 -0.0005
21291SOL    HW270732   9.724  10.793  11.075  0.3606 -0.6326 -0.7522
21292SOL     OW70733   6.772   8.629   7.586  0.0402 -0.2612 -0.0766
21292SOL    HW170734   6.683   8.595   7.577 -0.3045  0.9439 -1.6666
21292SOL    HW270735   6.764   8.701   7.648 -0.3094  0.5005 -0.9878
21293SOL     OW70736   6.324  12.504   6.595  0.2106 -0.0340 -0.2635
21293SOL    HW170737   6.371  12.531   6.674 -0.4099 -0.4148  0.2491
21293SOL    HW270738   6.296  12.415   6.613 -2.7028  0.8999  0.4423
21294SOL     OW70739   6.022   2.300   2.515  0.3124 -0.4165 -0.2528
21294SOL    HW170740   5.979   2.293   2.600  0.5059 -1.1326 -0.2133
21294SOL    HW270741   6.042   2.394   2.506  3.5886 -0.7027  2.1544
21295SOL     OW70742   3.828   9.640   4.544  0.2282  0.1093 -0.1070
21295SOL    HW170743   3.901   9.607   4.596 -0.3794  0.6838  1.1398
21295SOL    HW270744   3.867   9.660   4.459  1.1602 -1.2146 -0.0177
21296SOL     OW70745   1.558   4.836   8.791 -0.5219 -0.3860 -0.2714
21296SOL    HW170746   1.474   4.882   8.792  0.8232  2.2993 -1.5500
21296SOL    HW270747   1.546   4.765   8.728 -1.7688  0.0569 -0.5601
21297SOL     OW70748   6.829   9.854   6.293  0.1048  0.7204  0.4309
21297SOL    HW170749   6.893   9.812   6.351  1.0332  0.3070 -0.8417
21297SOL    HW270750   6.745   9.814   6.317  0.5649  0.1022  1.0689
21298SOL     OW70751   0.490   1.055  10.339 -0.3177 -0.3030 -0.2160
21298SOL    HW170752   0.475   0.981  10.397 -1.0591 -1.0082 -1.2571
21298SOL    HW270753   0.477   1.132  10.393 -1.1028 -0.9405  0.5127
21299SOL     OW70754  12.082   4.781   1.850 -0.3389  0.1824 -0.1714
21299SOL    HW170755  12.118   4.853   1.902  0.0758 -0.5487  0.5724
21299SOL    HW270756  11.989   4.778   1.874 -0.4277  0.6483 -0.4328
21300SOL     OW70757   0.356   0.443  10.810  0.0510 -0.3540  0.0179
21300SOL    HW170758   0.325   0.363  10.768  0.0957  0.1170 -0.9242
21300SOL    HW270759   0.301   0.452  10.888 -1.2769 -0.2835 -0.8797
21301SOL     OW70760  12.576   5.568   0.840  0.9131 -0.3011  0.1427
21301SOL    HW170761  12.643   5.619   0.885 -0.5232  1.8185 -0.0030
21301SOL    HW270762  12.600   5.573   0.748  0.9865 -0.2103  0.1661
21302SOL     OW70763   1.532   8.733   2.851  0.6146  0.2973 -0.0393
21302SOL    HW170764   1.559   8.808   2.798  0.6291  0.2415 -0.1111
21302SOL    HW270765   1.436   8.736   2.850  0.6121  0.1546 -0.2712
21303SOL     OW70766   3.542   8.317   7.251  0.5424  0.1895 -0.0117
21303SOL    HW170767   3.576   8.399   7.285  0.1712  0.0881  0.6299
21303SOL    HW270768   3.534   8.261   7.328  2.6331 -1.1321 -0.6819
21304SOL     OW70769  10.037   8.714   7.597 -0.2904  0.0117 -0.2557
21304SOL    HW170770   9.967   8.754   7.648 -0.7464  0.8062 -1.4676
21304SOL    HW270771  10.080   8.787   7.554  0.8802 -0.5329 -0.0497
21305SOL     OW70772   9.003  11.786   1.609 -0.0907 -0.7313  0.2006
21305SOL    HW170773   9.055  11.809   1.532 -0.0005 -0.3710  0.3686
21305SOL    HW270774   9.058  11.725   1.658 -0.2105 -1.0849 -0.0957
21306SOL     OW70775   4.740   5.102   1.268  0.3672 -0.0437  0.0908
21306SOL    HW170776   4.804   5.051   1.218 -0.4832 -1.1269  0.0742
21306SOL    HW270777   4.718   5.047   1.343  1.3184  1.3874  1.4888
21307SOL     OW70778   4.092   0.187   2.637 -0.0286 -0.0084 -0.3463
21307SOL    HW170779   4.161   0.205   2.574 -0.4528  0.0960 -0.7809
21307SOL    HW270780   4.128   0.218   2.721  1.0402 -1.2724 -0.2870
21308SOL     OW70781   6.414   4.347   4.049 -0.4384 -0.0443  0.3468
21308SOL    HW170782   6.482   4.318   3.988 -0.7296 -1.5480  0.6818
21308SOL    HW270783   6.431   4.440   4.063  1.1983 -0.2624 -0.0143
21309SOL     OW70784   4.742   5.233   5.834  0.6394  0.3005 -0.3447
21309SOL    HW170785   4.731   5.256   5.927  0.2802 -1.5800  0.1236
21309SOL    HW270786   4.725   5.315   5.787  0.4067  1.1971  1.2296
21310SOL     OW70787  10.127   3.461   5.222  0.1800 -0.8460  0.1784
21310SOL    HW170788  10.167   3.507   5.296  0.8560  0.3240 -0.8717
21310SOL    HW270789  10.148   3.369   5.236  1.2126 -0.5208  0.8849
21311SOL     OW70790   0.681   1.334   7.086 -0.0617  0.3592  0.4553
21311SOL    HW170791   0.665   1.301   7.174  0.6318 -2.9136 -0.5056
21311SOL    HW270792   0.596   1.327   7.042 -0.0734  0.5718  0.4422
21312SOL     OW70793   8.615   8.385  11.216 -0.1982  0.5575  0.1453
21312SOL    HW170794   8.638   8.463  11.267  0.6793 -0.3373  1.1701
21312SOL    HW270795   8.630   8.312  11.276 -0.0908 -0.4719 -1.0909
21313SOL     OW70796   3.702   0.149   4.011 -0.0655  0.0601  0.2387
21313SOL    HW170797   3.778   0.197   3.977  1.5709 -1.4356  1.5743
21313SOL    HW270798   3.684   0.191   4.095  1.4393 -1.5889  1.4632
21314SOL     OW70799   2.986   0.928   2.442 -0.5557 -0.4773  0.4497
21314SOL    HW170800   2.950   0.862   2.501 -3.3390  0.3813 -0.1182
21314SOL    HW270801   3.024   0.877   2.370 -1.1046 -1.4798  0.8469
21315SOL     OW70802   1.911   0.760  11.015  0.3776  0.1446  0.3237
21315SOL    HW170803   1.948   0.673  11.002  2.1963  0.5179  2.4090
21315SOL    HW270804   1.899   0.795  10.926  0.5047 -1.8408 -0.5178
21316SOL     OW70805   7.341   3.422   3.355 -0.1518  0.1566  0.3679
21316SOL    HW170806   7.431   3.445   3.377 -0.7270  1.5057  1.4996
21316SOL    HW270807   7.301   3.505   3.327 -1.0287 -0.4239 -0.1382
21317SOL     OW70808   6.090   2.838  10.444 -0.4520  0.7199 -0.7276
21317SOL    HW170809   6.132   2.765  10.397  0.5238  0.8728 -0.1119
21317SOL    HW270810   6.121   2.829  10.534  2.1219  3.5701 -1.1604
21318SOL     OW70811   2.131   1.629   6.949 -0.0769 -0.1323  0.1323
21318SOL    HW170812   2.045   1.590   6.964 -0.8868  2.1244  1.9851
21318SOL    HW270813   2.112   1.718   6.919  1.6165  0.3011  0.2351
21319SOL     OW70814  11.952   0.102   1.531  0.0415 -0.0632  0.7187
21319SOL    HW170815  11.951   0.170   1.464 -0.9441 -0.2483  0.5285
21319SOL    HW270816  11.888   0.132   1.596  0.4161 -0.2677  1.1867
21320SOL     OW70817   6.086   6.530   6.153  0.4713  0.6940  0.3598
21320SOL    HW170818   6.033   6.609   6.155 -0.4089  0.1973 -1.2040
21320SOL    HW270819   6.037   6.467   6.207 -0.0758  0.5387 -0.2875
21321SOL     OW70820   7.145  10.251  10.242  0.5298  0.5901 -0.1339
21321SOL    HW170821   7.149  10.346  10.227  0.6907  0.5464 -0.3683
21321SOL    HW270822   7.134  10.242  10.336 -2.8560  0.9532 -0.3577
21322SOL     OW70823   2.415   9.581   9.951 -0.0013 -0.1039  0.1143
21322SOL    HW170824   2.449   9.531  10.025  1.9411  0.8450 -0.0566
21322SOL    HW270825   2.335   9.535   9.925  0.2319 -1.4827  1.6598
21323SOL     OW70826   9.209   8.477   4.888  0.1827  0.1535 -0.1884
21323SOL    HW170827   9.272   8.549   4.894 -0.1888  0.3984  1.1447
21323SOL    HW270828   9.189   8.455   4.979 -0.3238 -1.1037 -0.5813
21324SOL     OW70829   6.381   3.763  11.169  0.4439 -0.2431 -0.3082
21324SOL    HW170830   6.406   3.845  11.211 -0.8360  1.0431 -1.8742
21324SOL    HW270831   6.453   3.744  11.108  0.1916  0.4330 -0.8373
21325SOL     OW70832   9.203   3.097   1.629 -0.0662 -0.4001  0.3551
21325SOL    HW170833   9.135   3.150   1.586 -0.1090  1.2359  2.3195
21325SOL    HW270834   9.213   3.021   1.571  1.2726  2.4526 -3.6023
21326SOL     OW70835   3.022  10.700   1.392  0.0548  0.1802 -0.6302
21326SOL    HW170836   2.986  10.788   1.406  2.9774  1.2595  1.1563
21326SOL    HW270837   3.062  10.677   1.476 -0.7999 -3.0285 -0.9713
21327SOL     OW70838   4.641   4.114   8.442  0.0278  0.1783 -0.5400
21327SOL    HW170839   4.651   4.065   8.523  2.9013  0.6859 -0.4965
21327SOL    HW270840   4.546   4.125   8.432 -0.4469 -0.8430  2.1435
21328SOL     OW70841   9.666   6.727   4.799  0.2511  0.5387 -0.6008
21328SOL    HW170842   9.599   6.691   4.856  0.8307 -4.3385 -2.5285
21328SOL    HW270843   9.638   6.817   4.783 -3.6843 -0.0401  1.7043
21329SOL     OW70844   5.250   8.954  11.417  0.1557 -0.5305 -0.7081
21329SOL    HW170845   5.270   8.867  11.382 -0.6006 -0.2631 -1.8608
21329SOL    HW270846   5.217   9.003  11.342 -3.8302 -0.6103  0.7523
21330SOL     OW70847  11.600   8.553   5.314  0.3591  0.6457 -0.1334
21330SOL    HW170848  11.530   8.489   5.303  1.7431 -0.6424 -2.3238
21330SOL    HW270849  11.586   8.591   5.401 -2.2740 -0.4436 -0.0172
21331SOL     OW70850   7.132   9.250   9.421  0.2977  0.2835  0.2781
21331SOL    HW170851   7.090   9.270   9.504 -1.0355 -1.6155  0.1210
21331SOL    HW270852   7.067   9.274   9.355  0.9206  0.7461 -0.1882
21332SOL     OW70853  12.028  10.287  10.393 -0.0832  0.4613 -0.6878
21332SOL    HW170854  11.993  10.324  10.473  0.4476 -0.0091 -0.2254
21332SOL    HW270855  12.036  10.361  10.333  2.2090  1.4031  0.6367
21333SOL     OW70856   7.497   0.160   0.109 -0.1101  0.1413 -0.2323
21333SOL    HW170857   7.428   0.151   0.043  2.0279  0.1807 -2.5804
21333SOL    HW270858   7.469   0.101   0.179 -1.7505 -1.0440 -1.7778
21334SOL     OW70859  11.662   5.884   7.154 -0.1229  0.3073  0.5500
21334SOL    HW170860  11.592   5.888   7.089 -0.3871  0.1299  0.8230
21334SOL    HW270861  11.743   5.882   7.102 -0.2737  1.3853  0.2468
21335SOL     OW70862  10.511   3.398   0.727 -0.4288  0.1634  0.6247
21335SOL    HW170863  10.455   3.362   0.659 -1.9556  0.4948  1.6566
21335SOL    HW270864  10.458   3.467   0.768 -1.0435 -2.3039  4.4867
21336SOL     OW70865   0.506   3.704   9.348  0.0018 -0.7473 -0.1359
21336SOL    HW170866   0.467   3.776   9.297 -1.2116 -2.2850 -1.4986
21336SOL    HW270867   0.432   3.649   9.371  0.8528 -1.3137  1.3390
21337SOL     OW70868  10.134   0.684   3.339  0.4058 -0.3235 -0.0579
21337SOL    HW170869  10.057   0.739   3.355 -0.4656 -1.2572 -0.9309
21337SOL    HW270870  10.106   0.595   3.360  1.5877 -0.5510  0.6501
21338SOL     OW70871   3.754   9.804   3.470  0.5434 -0.3258  0.0140
21338SOL    HW170872   3.739   9.753   3.390  0.9725  0.8077 -0.8130
21338SOL    HW270873   3.669   9.804   3.514 -0.0693  0.1498 -1.1160
21339SOL     OW70874   3.222  11.736   4.088  0.1877 -0.5216  0.0263
21339SOL    HW170875   3.211  11.648   4.125 -0.7246  0.2866  1.7968
21339SOL    HW270876   3.275  11.783   4.152  1.3956  0.0230 -1.3053
21340SOL     OW70877   0.881  10.281   2.812 -0.1723 -0.7535  0.5975
21340SOL    HW170878   0.885  10.193   2.774 -0.7517 -1.0339  1.1582
21340SOL    HW270879   0.856  10.266   2.903 -1.9566  0.0787  0.2775
21341SOL     OW70880   9.533   6.735  12.485 -0.6277 -0.3820  0.6498
21341SOL    HW170881   9.552   6.642  12.499  1.1538  0.0372  1.2921
21341SOL    HW270882   9.618   6.774  12.468 -1.2575  1.2791  1.1746
21342SOL     OW70883   0.469   2.679   4.910  0.2622  0.1487  0.1795
21342SOL    HW170884   0.397   2.740   4.893 -0.2286 -0.7284 -1.0564
21342SOL    HW270885   0.427   2.602   4.948  0.5942 -0.2114 -0.1733
21343SOL     OW70886   9.321  10.112  11.735  0.3761  0.2607 -0.2006
21343SOL    HW170887   9.318  10.158  11.651  1.4327  0.7643  0.0146
21343SOL    HW270888   9.252  10.151  11.787 -2.0057 -1.7644 -1.6286
21344SOL     OW70889   6.425  11.348   4.649 -0.1216  0.0301  0.3539
21344SOL    HW170890   6.338  11.384   4.667 -0.9757 -0.6483 -2.0520
21344SOL    HW270891   6.408  11.260   4.617  1.1470  0.9074 -3.0882
21345SOL     OW70892   8.968   5.890  11.326 -0.2462  0.1702 -0.5389
21345SOL    HW170893   9.062   5.877  11.336 -0.3865 -0.3558  0.1438
21345SOL    HW270894   8.946   5.959  11.389 -0.3129  0.3271 -0.7319
21346SOL     OW70895   8.728   6.959  11.985 -0.2183 -0.1282 -0.1816
21346SOL    HW170896   8.815   6.977  11.951 -0.3631  1.1774  0.0780
21346SOL    HW270897   8.669   6.987  11.915 -0.4993  1.9874  0.8334
21347SOL     OW70898  11.486   2.498   2.675 -0.4180  0.1576  0.2287
21347SOL    HW170899  11.485   2.583   2.631 -0.0849  0.3328  0.5611
21347SOL    HW270900  11.546   2.445   2.623  0.4505  0.5509  0.8134
21348SOL     OW70901  11.017   2.428   9.686 -0.4512  0.4759  0.2071
21348SOL    HW170902  11.024   2.519   9.714 -0.3962  0.0244  1.7664
21348SOL    HW270903  10.935   2.397   9.725 -0.3962 -0.1865 -0.1786
21349SOL     OW70904   8.191   7.252   9.688 -0.8368  0.2659  0.6317
21349SOL    HW170905   8.123   7.203   9.733  0.7407 -0.6609  2.1523
21349SOL    HW270906   8.155   7.340   9.677 -2.3110 -0.2396  1.2517
21350SOL     OW70907   7.449   3.913   1.345 -0.1108  0.0273  0.0167
21350SOL    HW170908   7.516   3.853   1.378 -0.2585 -0.1495 -0.0007
21350SOL    HW270909   7.439   3.890   1.253 -2.4050 -2.0985  0.6912
21351SOL     OW70910   0.716   6.779   3.565  0.2656  0.0635  0.4822
21351SOL    HW170911   0.717   6.762   3.471  0.9561 -1.3446  0.7169
21351SOL    HW270912   0.706   6.874   3.572  0.0724  0.1808 -0.9985
21352SOL     OW70913   4.823   9.858  12.138 -0.2886  0.1546  0.2641
21352SOL    HW170914   4.849   9.948  12.116 -1.0131 -0.0583 -1.6107
21352SOL    HW270915   4.827   9.811  12.055  0.1166 -1.5757  1.2256
21353SOL     OW70916   6.458   8.409  11.496 -0.4553 -0.5877  0.0091
21353SOL    HW170917   6.517   8.465  11.548  0.3298 -0.4422 -1.0031
21353SOL    HW270918   6.438   8.335  11.554  0.1067 -0.2525  0.6476
21354SOL     OW70919   8.469   4.050  11.146  0.2784 -0.2662  0.6827
21354SOL    HW170920   8.508   4.128  11.186 -0.5623  1.2657 -1.2723
21354SOL    HW270921   8.410   4.016  11.214 -0.3797  1.6444  1.1642
21355SOL     OW70922  11.376   8.836   6.431 -0.3654  0.5931 -0.0184
21355SOL    HW170923  11.376   8.891   6.509  0.5989  0.7794 -0.1377
21355SOL    HW270924  11.431   8.761   6.453  1.0328  1.3003 -0.9362
21356SOL     OW70925   8.006   0.310   9.299 -0.3034 -0.6827  0.4326
21356SOL    HW170926   8.042   0.257   9.227  1.2649  0.5012  0.2791
21356SOL    HW270927   7.944   0.252   9.343 -0.3298 -1.8740 -1.0802
21357SOL     OW70928   5.580   1.450   8.550 -0.7361  0.0872 -0.0090
21357SOL    HW170929   5.596   1.517   8.484 -0.2357 -1.2990 -1.3685
21357SOL    HW270930   5.497   1.474   8.591 -1.1389  0.8890 -1.2659
21358SOL     OW70931   0.708   2.870   4.327 -0.1587 -1.0901 -0.4518
21358SOL    HW170932   0.618   2.866   4.294 -1.5697  4.1047  1.6170
21358SOL    HW270933   0.699   2.861   4.422  1.3986 -0.1374 -0.1678
21359SOL     OW70934   9.121   9.082  11.356 -0.2812 -0.0176  0.1905
21359SOL    HW170935   9.172   9.106  11.433 -0.3897  1.0833 -0.0744
21359SOL    HW270936   9.174   9.110  11.281 -0.3212 -0.7849 -0.1397
21360SOL     OW70937   6.386   2.763   6.727 -0.3687 -0.1862 -0.6159
21360SOL    HW170938   6.337   2.697   6.775 -1.6225  0.4440 -0.9620
21360SOL    HW270939   6.473   2.726   6.717 -0.5543 -1.0432  0.6615
21361SOL     OW70940   7.777   2.621   0.644 -0.1415  0.3954  0.5504
21361SOL    HW170941   7.730   2.541   0.671  1.3759 -1.1972 -1.2326
21361SOL    HW270942   7.753   2.633   0.552  2.8084 -0.5018 -0.4364
21362SOL     OW70943   1.373   9.620   0.666  0.0254  0.1587  0.0684
21362SOL    HW170944   1.353   9.691   0.728  0.4147  2.0546 -1.8795
21362SOL    HW270945   1.410   9.551   0.721 -2.8226  0.3370  2.4327
21363SOL     OW70946   8.938   8.050   4.001 -0.0894  0.0243 -0.7725
21363SOL    HW170947   9.029   8.052   4.029 -0.0513 -1.0221 -0.7820
21363SOL    HW270948   8.942   8.020   3.910 -0.5252 -1.9516 -0.2039
21364SOL     OW70949  12.167   2.255  11.984  0.1551 -0.5286 -0.9026
21364SOL    HW170950  12.161   2.159  11.978  1.2024 -0.6054 -0.8931
21364SOL    HW270951  12.186   2.283  11.895 -2.0702 -0.1422 -1.3046
21365SOL     OW70952   0.181   9.669   7.823 -0.7115 -0.1177  0.0319
21365SOL    HW170953   0.263   9.712   7.798 -1.4641  1.9350  0.9323
21365SOL    HW270954   0.197   9.638   7.912 -0.9827  0.5151  0.3054
21366SOL     OW70955   6.503   6.764   5.179  0.1991  0.3077 -0.6253
21366SOL    HW170956   6.426   6.738   5.129 -0.1027  0.4963 -0.2607
21366SOL    HW270957   6.490   6.724   5.265  0.6636  0.0763 -0.6589
21367SOL     OW70958  11.455   5.138   9.301  0.0124 -0.1169  0.1274
21367SOL    HW170959  11.461   5.201   9.229  2.1274  0.8960  1.0890
21367SOL    HW270960  11.394   5.179   9.363 -0.1588  0.0328 -0.1363
21368SOL     OW70961   4.721   4.686   6.556 -0.5412  0.3236  0.1218
21368SOL    HW170962   4.641   4.641   6.582  0.8062 -1.6281  1.1779
21368SOL    HW270963   4.773   4.620   6.510  1.4423  0.7805  1.5343
21369SOL     OW70964   5.838   7.614   6.901 -0.1571 -0.7711 -0.3127
21369SOL    HW170965   5.889   7.605   6.981 -0.8125 -1.7395  0.0207
21369SOL    HW270966   5.902   7.636   6.833  0.3605  0.3965  0.5238
21370SOL     OW70967   1.156  12.326  12.312 -0.4420 -0.1751 -0.1253
21370SOL    HW170968   1.214  12.393  12.346  0.7955 -0.3583 -1.7595
21370SOL    HW270969   1.079  12.374  12.282 -0.5294  0.2380  0.7242
21371SOL     OW70970   5.455   4.076  12.420  0.1399 -0.5607  0.4218
21371SOL    HW170971   5.461   3.981  12.409 -3.9419 -0.9961  0.7461
21371SOL    HW270972   5.398   4.089  12.495 -2.7840  2.0218 -1.9764
21372SOL     OW70973  12.015  11.092   2.248  0.2697  0.6427  0.0527
21372SOL    HW170974  12.013  11.015   2.191  0.7573  0.7297 -0.0897
21372SOL    HW270975  11.942  11.146   2.217 -1.1467 -0.5207  1.2625
21373SOL     OW70976   4.964   0.519   0.399 -0.1947  0.0421  0.6116
21373SOL    HW170977   4.897   0.524   0.331  0.9880 -0.6517 -0.6570
21373SOL    HW270978   4.951   0.432   0.438  0.8003 -0.6846 -0.5903
21374SOL     OW70979   6.656   7.437  11.755  0.0165  0.6757 -0.2462
21374SOL    HW170980   6.640   7.482  11.839  0.9304 -1.6914  1.2970
21374SOL    HW270981   6.577   7.387  11.739  0.8392 -1.0031  0.6899
21375SOL     OW70982   5.204   4.108  12.545  0.9046 -0.6268 -0.4411
21375SOL    HW170983   5.187   4.041  12.610  1.9365  0.2450  0.7874
21375SOL    HW270984   5.151   4.083  12.470 -0.9080 -1.2660  0.9814
21376SOL     OW70985   9.183  10.006   8.186 -0.2198 -0.0320  0.1625
21376SOL    HW170986   9.238  10.045   8.254  0.1889  0.9500 -0.7213
21376SOL    HW270987   9.148   9.927   8.228 -1.0812  1.2398  1.9880
21377SOL     OW70988   4.782   5.068   7.821 -1.0184 -0.2223  0.0877
21377SOL    HW170989   4.714   5.080   7.887  0.9420 -0.2748  2.2476
21377SOL    HW270990   4.763   4.982   7.782 -2.3530 -0.0832  0.3944
21378SOL     OW70991   6.404   6.512   4.612 -0.5444 -0.6076 -0.5331
21378SOL    HW170992   6.333   6.462   4.651 -1.4260  1.0803  0.0996
21378SOL    HW270993   6.367   6.599   4.596  0.6558 -0.3795 -2.4451
21379SOL     OW70994  11.320   1.060   2.085 -0.2256  0.2886 -0.2002
21379SOL    HW170995  11.381   1.062   2.011  0.6293 -1.1696  0.4155
21379SOL    HW270996  11.322   1.149   2.120  1.5779  0.2970 -0.2124
21380SOL     OW70997   9.554  10.201   6.085 -0.3547  0.1780 -0.7756
21380SOL    HW170998   9.499  10.278   6.076 -0.5899  0.3540  1.5845
21380SOL    HW270999   9.496  10.133   6.119  0.2837 -0.4640 -0.9335
21381SOL     OW71000   0.217   8.248   4.075  0.0123 -0.2108 -0.0046
21381SOL    HW171001   0.266   8.322   4.039  0.1197  0.2874  1.1124
21381SOL    HW271002   0.141   8.239   4.018 -0.2393  1.0704  0.1016
21382SOL     OW71003   4.848   4.726   8.498 -0.1456  0.4622  0.3117
21382SOL    HW171004   4.777   4.756   8.554 -0.0124  1.2354  0.0827
21382SOL    HW271005   4.818   4.745   8.409  0.0456  0.1251  0.1732
21383SOL     OW71006  11.869   2.628   4.437 -0.5097 -0.1768 -0.3544
21383SOL    HW171007  11.879   2.546   4.485  1.7193 -0.4379 -1.1734
21383SOL    HW271008  11.775   2.646   4.441 -0.9998 -2.5073  0.2276
21384SOL     OW71009   0.994  11.083   0.004  0.4463  0.1457 -0.5945
21384SOL    HW171010   1.072  11.116   0.049  1.1698 -1.9130 -0.2462
21384SOL    HW271011   1.023  11.003  -0.039 -1.7258 -1.3365  0.5170
21385SOL     OW71012   0.059   5.603   6.296  0.1501  0.2518  0.6643
21385SOL    HW171013   0.130   5.613   6.234 -1.6590  0.0393 -1.5725
21385SOL    HW271014   0.047   5.508   6.304  0.3570  0.2747  1.3656
21386SOL     OW71015  12.063  12.211   1.913 -0.1081  0.7187  0.5112
21386SOL    HW171016  12.030  12.124   1.889 -0.9724  0.9975  0.6378
21386SOL    HW271017  11.990  12.270   1.895  1.3181  1.8257 -2.1067
21387SOL     OW71018   7.205   0.989   1.719  0.2623 -0.4362 -0.2279
21387SOL    HW171019   7.116   0.966   1.748  0.2668 -0.4294 -0.2089
21387SOL    HW271020   7.229   1.063   1.774 -0.0066  0.0366 -0.7332
21388SOL     OW71021   3.015   9.492   4.930  0.3222 -0.0643 -0.0265
21388SOL    HW171022   2.951   9.483   4.859  1.2663  0.9453 -1.0353
21388SOL    HW271023   3.094   9.452   4.895  0.4324 -0.7748  0.9939
21389SOL     OW71024   0.207  11.778   4.038  0.1089 -0.3519  0.1081
21389SOL    HW171025   0.213  11.861   4.086  3.9269 -2.0889  3.1954
21389SOL    HW271026   0.128  11.787   3.986 -1.6644  3.8260  2.9302
21390SOL     OW71027   0.052   2.525   9.275 -0.3828 -0.3515 -0.2864
21390SOL    HW171028  -0.016   2.577   9.318 -1.2050 -1.5526 -0.0733
21390SOL    HW271029   0.080   2.463   9.343  0.1762 -0.5419 -0.6902
21391SOL     OW71030   8.085   3.871   5.044 -0.2722  0.1962  0.2712
21391SOL    HW171031   8.114   3.789   5.005 -1.2658 -1.7862  3.3379
21391SOL    HW271032   8.149   3.890   5.112 -1.4206  0.5342  1.2982
21392SOL     OW71033   3.377  12.373  12.493 -0.1770 -0.0695  0.3385
21392SOL    HW171034   3.389  12.281  12.517 -0.8388  0.3081  2.3328
21392SOL    HW271035   3.463  12.413  12.510  0.1381 -0.3057 -0.6191
21393SOL     OW71036   4.944  11.920   7.193 -0.2573  0.4943 -0.5123
21393SOL    HW171037   4.861  11.899   7.236 -1.0473 -0.3802 -2.3203
21393SOL    HW271038   4.998  11.959   7.261 -1.7897  0.1365  0.9693
21394SOL     OW71039   1.866   1.933   4.392  0.6511 -0.3826 -0.3368
21394SOL    HW171040   1.894   1.860   4.447 -2.3511 -0.2654  1.5845
21394SOL    HW271041   1.799   1.896   4.335 -0.0448  0.5960 -0.1899
21395SOL     OW71042   4.157   0.068   4.536 -0.3852  0.1030 -0.3512
21395SOL    HW171043   4.177   0.150   4.491 -1.0467  0.8029  0.5650
21395SOL    HW271044   4.150   0.003   4.466  0.8081  0.6809 -1.0369
21396SOL     OW71045   7.560   1.015   1.691 -0.2727 -0.3658  0.3646
21396SOL    HW171046   7.519   0.992   1.608 -0.7982  1.0725  0.2039
21396SOL    HW271047   7.487   1.043   1.746  0.1969 -0.3322  0.9749
21397SOL     OW71048  11.183   0.138  11.431  0.2486  0.2294 -0.4135
21397SOL    HW171049  11.265   0.169  11.393  1.0166 -1.1564  0.0407
21397SOL    HW271050  11.181   0.044  11.411 -0.2655 -0.1565  1.2566
21398SOL     OW71051   7.029   3.566   8.690  0.0372  0.2882 -0.3057
21398SOL    HW171052   6.964   3.570   8.761 -1.3696  1.8386 -1.5952
21398SOL    HW271053   6.995   3.498   8.631  1.5010 -1.4038  0.7034
21399SOL     OW71054  10.450   5.583   7.340  0.3229 -0.1997  0.4377
21399SOL    HW171055  10.526   5.640   7.333  0.8556 -1.0593 -1.3378
21399SOL    HW271056  10.410   5.606   7.424  1.9897  0.9297  0.9648
21400SOL     OW71057   0.984   5.772   0.642  0.5376  0.2512 -0.4430
21400SOL    HW171058   1.074   5.780   0.675 -0.6751  2.2015  2.9244
21400SOL    HW271059   0.957   5.684   0.667  0.6508  0.6653  1.2874
21401SOL     OW71060   3.018   6.077   2.779  0.3510 -0.1649  0.4927
21401SOL    HW171061   3.055   6.092   2.866 -0.6985 -0.6759  1.0468
21401SOL    HW271062   3.053   6.147   2.725  1.0645  0.1198  1.3186
21402SOL     OW71063   2.433  10.907  10.486  0.3171  0.2810  0.0867
21402SOL    HW171064   2.404  10.820  10.514 -0.4460  0.9518  1.4193
21402SOL    HW271065   2.367  10.967  10.520  0.5762  1.3635 -1.2279
21403SOL     OW71066   5.291   6.846   6.033  0.4496  0.1249  0.0109
21403SOL    HW171067   5.320   6.937   6.041  0.5139  0.1091 -0.0475
21403SOL    HW271068   5.223   6.848   5.964 -0.4801  0.3501  0.9073
21404SOL     OW71069   5.551  11.136   9.657  0.2277  0.1211  0.1915
21404SOL    HW171070   5.550  11.125   9.561 -2.6819 -0.4238  0.1791
21404SOL    HW271071   5.543  11.231   9.670 -0.0549  0.1416 -0.1152
21405SOL     OW71072   1.811   8.006  10.040  0.4318 -0.0906 -0.0062
21405SOL    HW171073   1.906   7.994  10.045  0.4041 -0.5023 -0.4075
21405SOL    HW271074   1.788   7.986   9.949 -0.3663 -2.5746  0.6694
21406SOL     OW71075   9.769  10.463   3.190  0.0911 -0.7209  0.5086
21406SOL    HW171076   9.757  10.433   3.100 -2.6192  0.6716  0.3101
21406SOL    HW271077   9.767  10.559   3.184  1.1500 -0.5871  1.9173
21407SOL     OW71078   8.724   2.054   7.740  0.6465  0.2000  0.3134
21407SOL    HW171079   8.676   1.986   7.788  2.2412 -0.3858  1.1403
21407SOL    HW271080   8.716   2.029   7.648 -0.3363 -0.0587  0.4579
21408SOL     OW71081   0.142   3.972  11.975  0.1940 -0.4806 -0.5506
21408SOL    HW171082   0.177   3.984  11.887  1.3407 -0.8203 -0.1649
21408SOL    HW271083   0.166   3.882  11.999 -3.4904 -1.8319 -1.3341
21409SOL     OW71084   8.817  10.585  12.179 -0.5518  0.0662  0.0696
21409SOL    HW171085   8.858  10.581  12.265 -1.4665  0.6298  0.5374
21409SOL    HW271086   8.754  10.513  12.178  0.2303 -0.6473 -0.5651
21410SOL     OW71087  11.268  10.130   4.129 -0.0687 -0.6971  0.5521
21410SOL    HW171088  11.253  10.093   4.041  2.4433 -1.4315  0.3365
21410SOL    HW271089  11.214  10.076   4.187  0.9819 -2.6710 -0.1746
21411SOL     OW71090   9.949   7.339   0.945 -1.1069  0.3903 -0.9097
21411SOL    HW171091  10.007   7.392   0.891 -1.0627  0.8146 -0.4490
21411SOL    HW271092  10.007   7.281   0.993 -0.8564  2.1374  1.0334
21412SOL     OW71093   6.747   0.501   7.046 -0.0142 -0.1858 -0.4665
21412SOL    HW171094   6.831   0.548   7.038 -0.6152  0.9700 -0.1966
21412SOL    HW271095   6.769   0.410   7.027  1.2332  0.1642 -0.8156
21413SOL     OW71096   1.411   2.227   5.833 -0.1300  0.1877 -0.1582
21413SOL    HW171097   1.339   2.220   5.896 -0.4281  1.1285 -0.3828
21413SOL    HW271098   1.386   2.300   5.775  0.0717 -0.7457 -1.4613
21414SOL     OW71099   3.497  11.873   4.638  0.4542 -0.3048 -0.2016
21414SOL    HW171100   3.439  11.838   4.706  1.0290 -1.2331 -0.1656
21414SOL    HW271101   3.472  11.826   4.559  0.1228  0.4187 -0.5353
21415SOL     OW71102   6.795  12.482   9.858  0.2630 -0.5422  0.3111
21415SOL    HW171103   6.817  12.494   9.951 -0.1946 -0.0205  0.3550
21415SOL    HW271104   6.776  12.389   9.851 -0.0636 -0.5228  0.8256
21416SOL     OW71105   5.070   4.859   0.153  0.7331  0.4781  0.4529
21416SOL    HW171106   5.110   4.916   0.218 -0.5335  1.9287  0.0375
21416SOL    HW271107   5.004   4.810   0.201  0.2731  1.0416  0.4043
21417SOL     OW71108   9.336   7.738   0.248  0.1534 -0.0719 -0.5850
21417SOL    HW171109   9.279   7.709   0.319  0.0830 -0.1362 -0.6670
21417SOL    HW271110   9.423   7.744   0.287 -0.2693  2.2799  0.1707
21418SOL     OW71111   1.383   9.200   5.377  0.2159  0.2919 -0.0013
21418SOL    HW171112   1.339   9.116   5.391  1.1037 -0.1122  0.5421
21418SOL    HW271113   1.447   9.182   5.308 -1.8600  1.4223 -2.3342
21419SOL     OW71114  10.309   4.767   1.447  0.2965 -0.1212  0.2447
21419SOL    HW171115  10.318   4.824   1.371 -0.6655  0.3570  0.4732
21419SOL    HW271116  10.393   4.720   1.452  0.9151  0.8887 -0.2471
21420SOL     OW71117   7.644   2.012   8.755  0.4266 -0.2530  0.0075
21420SOL    HW171118   7.720   2.024   8.812  0.4190 -0.8514  0.1558
21420SOL    HW271119   7.636   2.094   8.707  0.8626 -0.0024  0.3585
21421SOL     OW71120  11.699   0.124   2.076  0.0471 -0.2226  0.0293
21421SOL    HW171121  11.647   0.049   2.105  0.0387  0.6349  2.4738
21421SOL    HW271122  11.637   0.179   2.029 -0.7884 -0.1824  1.1452
21422SOL     OW71123   5.330   6.830   3.155  0.2694 -0.7111 -0.2076
21422SOL    HW171124   5.369   6.915   3.175  0.1430 -0.8668  0.7408
21422SOL    HW271125   5.378   6.768   3.210  0.5211 -1.2951 -1.0669
21423SOL     OW71126   0.890   3.010  11.174  0.5794  0.4127  0.3317
21423SOL    HW171127   0.940   3.056  11.108  0.8639  1.8037  1.4724
21423SOL    HW271128   0.798   3.027  11.153  0.6777  1.1675  0.5055
21424SOL     OW71129  11.083   8.517   9.695 -0.3634 -0.4673  0.2037
21424SOL    HW171130  11.125   8.600   9.716 -0.9458  0.1648 -1.0817
21424SOL    HW271131  11.065   8.477   9.781  0.9624  0.1831  0.8093
21425SOL     OW71132   4.482   6.180   1.943 -0.2819 -0.3502  0.3271
21425SOL    HW171133   4.432   6.120   1.998 -1.2195  0.2081  0.1022
21425SOL    HW271134   4.472   6.265   1.985 -1.1281  0.1121 -0.7677
21426SOL     OW71135   4.097   7.352   6.031  0.6647  0.2991  0.0130
21426SOL    HW171136   4.048   7.419   6.078  0.4978  1.3960 -1.6353
21426SOL    HW271137   4.153   7.312   6.098 -0.7361  0.6338  1.4499
21427SOL     OW71138   9.354   4.108   5.565 -0.1780 -0.0588 -0.3814
21427SOL    HW171139   9.361   4.199   5.539 -1.7328  0.4431  0.7711
21427SOL    HW271140   9.424   4.096   5.630  1.2206 -0.2466 -1.8723
21428SOL     OW71141  12.413   7.178   6.508  0.3679  0.0572 -0.0019
21428SOL    HW171142  12.508   7.186   6.515  0.3317 -0.4079  1.2776
21428SOL    HW271143  12.381   7.268   6.508  0.6626  0.2290  2.5076
21429SOL     OW71144   7.215   7.322   3.770  0.2987 -0.0876 -0.5059
21429SOL    HW171145   7.289   7.344   3.827  0.8259 -0.2012 -1.1343
21429SOL    HW271146   7.187   7.236   3.800 -0.6136  0.6018  0.7720
21430SOL     OW71147   0.951   3.092   4.640 -0.0887  0.3864  0.8277
21430SOL    HW171148   0.898   3.013   4.646  0.3830  0.0484  0.5812
21430SOL    HW271149   0.903   3.157   4.691 -0.0989 -0.2637  1.6651
21431SOL     OW71150  12.469   7.094   8.878  0.7325  0.3822 -0.0005
21431SOL    HW171151  12.524   7.018   8.898  1.5217  0.8323 -0.4107
21431SOL    HW271152  12.522   7.169   8.905 -1.0781  0.7400  2.8761
21432SOL     OW71153   3.745   5.596   2.458  0.2508 -0.4557  0.1911
21432SOL    HW171154   3.672   5.650   2.490  0.0539 -0.1132 -0.7841
21432SOL    HW271155   3.702   5.530   2.402  0.5388 -1.3144  0.9640
21433SOL     OW71156   6.306   4.305   0.813 -0.2690  0.2396 -0.6758
21433SOL    HW171157   6.353   4.263   0.885 -0.0259  2.5831  0.6405
21433SOL    HW271158   6.265   4.233   0.765  2.9190 -1.7479 -0.6639
21434SOL     OW71159   0.083   4.554   2.243 -0.3719  0.1812  0.2106
21434SOL    HW171160   0.165   4.539   2.289  0.6461 -2.6094 -2.2478
21434SOL    HW271161   0.077   4.649   2.237  2.7962  0.4944  0.2700
21435SOL     OW71162   1.629   2.936   5.636  0.1767 -0.6687 -0.0030
21435SOL    HW171163   1.704   2.875   5.637  1.3880  0.6847 -1.9904
21435SOL    HW271164   1.660   3.012   5.686 -0.2018 -0.4477 -0.1036
21436SOL     OW71165   9.352   4.066   7.675 -0.3264 -0.2087  0.4100
21436SOL    HW171166   9.268   4.088   7.715  0.0979  1.3488  0.4891
21436SOL    HW271167   9.408   4.043   7.749 -0.2707  0.1770  0.4895
21437SOL     OW71168  11.308   0.300   0.697  0.2101 -0.7810  0.6299
21437SOL    HW171169  11.228   0.248   0.693 -1.3445  1.5301 -1.9004
21437SOL    HW271170  11.366   0.261   0.632 -0.5870  0.0175 -0.5956
21438SOL     OW71171   5.608   7.793   4.976  0.1338  0.3622 -0.0422
21438SOL    HW171172   5.665   7.870   4.982  0.5755 -0.0000  0.6147
21438SOL    HW271173   5.656   7.724   5.023 -0.3031 -0.2839 -0.5210
21439SOL     OW71174   3.106  10.872   2.332 -0.3847  0.3675  0.0970
21439SOL    HW171175   3.117  10.918   2.415 -1.2616  0.6421  0.0670
21439SOL    HW271176   3.034  10.811   2.347 -0.2128  0.0591 -0.3107
21440SOL     OW71177   2.913   4.436   7.984 -0.1148 -0.4787 -0.2014
21440SOL    HW171178   2.946   4.488   8.058 -1.1218 -0.5063  0.2825
21440SOL    HW271179   2.829   4.402   8.014 -0.8863  0.0744 -1.6072
21441SOL     OW71180   3.243   4.499   5.923  0.1152 -0.0805  0.3580
21441SOL    HW171181   3.326   4.463   5.893  1.4985  2.8337  0.3372
21441SOL    HW271182   3.234   4.466   6.013  1.2499 -0.5067  0.3306
21442SOL     OW71183   6.776   4.343  11.757 -0.0520 -0.3737  0.0371
21442SOL    HW171184   6.709   4.401  11.722  1.2791  0.4448 -1.3240
21442SOL    HW271185   6.846   4.345  11.691  2.2913  0.6112  2.3313
21443SOL     OW71186   4.253   6.338   1.545  0.2199 -0.3117  0.1256
21443SOL    HW171187   4.223   6.388   1.621 -1.2812 -1.8710  0.6366
21443SOL    HW271188   4.327   6.287   1.578  0.8782  0.5229 -0.0317
21444SOL     OW71189   9.116   2.198  10.293  0.0255 -0.0562 -0.1888
21444SOL    HW171190   9.115   2.282  10.338 -1.8848 -0.1326  0.0213
21444SOL    HW271191   9.190   2.203  10.232 -0.7522  2.2424 -1.0375
21445SOL     OW71192   3.896   1.897   8.304  0.4674  0.2069  0.2298
21445SOL    HW171193   3.929   1.972   8.256 -0.7389  0.6511  0.0582
21445SOL    HW271194   3.803   1.893   8.281 -0.0722  0.2258  2.2259
21446SOL     OW71195   8.683   2.053   8.351  0.1549 -0.0405  0.1207
21446SOL    HW171196   8.640   2.012   8.426 -1.0632 -2.2443 -1.6683
21446SOL    HW271197   8.616   2.108   8.311  0.1335 -0.5153 -0.5191
21447SOL     OW71198   8.002   0.562  10.881 -0.9753 -0.5245 -0.3471
21447SOL    HW171199   7.933   0.530  10.938 -0.1469 -3.0663 -0.6150
21447SOL    HW271200   8.082   0.557  10.934 -0.8507  2.0608 -0.1394
21448SOL     OW71201   1.447   0.776   8.724 -0.3014  0.4471 -0.1961
21448SOL    HW171202   1.398   0.838   8.670 -0.3399  0.3919 -0.2266
21448SOL    HW271203   1.469   0.705   8.663 -0.2326  0.4456 -0.1691
21449SOL     OW71204   8.863   3.028   9.391  0.2282 -0.0356 -0.0768
21449SOL    HW171205   8.769   3.029   9.410 -0.1151 -1.0076 -1.5803
21449SOL    HW271206   8.880   3.111   9.348 -0.0903 -0.1721 -0.4651
21450SOL     OW71207   8.613   5.086  10.609 -0.3615 -0.2696 -0.2868
21450SOL    HW171208   8.672   5.116  10.678  1.2476  0.1541 -1.7705
21450SOL    HW271209   8.587   5.166  10.563 -1.5443 -0.5298 -0.1070
21451SOL     OW71210   5.926   2.675  12.227 -0.1505 -0.2972  0.0018
21451SOL    HW171211   5.965   2.711  12.147  1.3773  1.1815  1.3315
21451SOL    HW271212   5.882   2.749  12.268 -0.5550 -0.9377  0.7470
21452SOL     OW71213   9.400   6.984   5.104 -0.8567  0.1194  0.1009
21452SOL    HW171214   9.383   6.970   5.011 -1.5953  0.4686  0.1788
21452SOL    HW271215   9.328   6.941   5.149  0.5577 -1.8363  0.6253
21453SOL     OW71216   3.047   6.621   8.611 -0.1701 -0.4742 -0.7629
21453SOL    HW171217   3.076   6.660   8.528  1.1906 -1.3744 -0.7506
21453SOL    HW271218   2.953   6.637   8.614  0.3324  3.1837 -0.5293
21454SOL     OW71219   0.133  12.027   0.256  0.0779 -0.1177  0.4148
21454SOL    HW171220   0.060  11.975   0.289  0.9055  0.0133  2.5917
21454SOL    HW271221   0.096  12.112   0.234 -0.9202 -0.9383 -1.3252
21455SOL     OW71222   5.556   9.985   9.171 -0.6960 -0.1474 -0.1845
21455SOL    HW171223   5.483  10.010   9.227 -0.1207  4.3738 -1.0350
21455SOL    HW271224   5.634  10.012   9.219  0.0807 -0.1449 -1.3793
21456SOL     OW71225   5.477   5.573  10.035  0.5407 -0.2134 -0.6785
21456SOL    HW171226   5.458   5.550  10.126  0.1810  1.7411 -0.2229
21456SOL    HW271227   5.572   5.568  10.028  0.6834  1.0082  0.2164
21457SOL     OW71228   8.161   4.462   4.174  0.0645 -0.1231 -0.4071
21457SOL    HW171229   8.174   4.377   4.215  1.4828  0.3645  0.2389
21457SOL    HW271230   8.249   4.493   4.154 -0.4797  0.7379 -1.6205
21458SOL     OW71231   2.387   3.208   1.847  0.4704 -0.6219  0.9046
21458SOL    HW171232   2.465   3.186   1.797 -0.4745  1.2887 -1.6429
21458SOL    HW271233   2.415   3.281   1.903  0.2512  1.2080 -1.2221
21459SOL     OW71234   0.368   1.838   6.945 -0.3532  0.1331 -0.3701
21459SOL    HW171235   0.414   1.804   6.868  0.0921  1.1308 -0.5578
21459SOL    HW271236   0.428   1.823   7.017 -1.0615 -1.4461 -0.0821
21460SOL     OW71237   9.517   1.605   2.784 -0.4108  0.1299 -0.1560
21460SOL    HW171238   9.576   1.567   2.849 -1.0510  0.5664  0.7069
21460SOL    HW271239   9.430   1.594   2.822 -0.7988  0.3339 -0.9765
21461SOL     OW71240   4.750   1.440  12.248 -0.1382 -0.0745  0.0800
21461SOL    HW171241   4.701   1.381  12.305  0.2460  0.2783  0.7956
21461SOL    HW271242   4.684   1.497  12.208 -0.3770 -0.0409  0.5193
21462SOL     OW71243   9.485   7.427   9.778 -0.2904 -0.2963  0.2059
21462SOL    HW171244   9.566   7.448   9.824 -0.7834  1.5291  0.3250
21462SOL    HW271245   9.437   7.370   9.837  1.0342 -1.6916 -0.0147
21463SOL     OW71246   9.001  10.134   8.337 -0.4950  0.2894 -0.1272
21463SOL    HW171247   9.073  10.088   8.294  0.2848  1.9684 -0.7275
21463SOL    HW271248   8.953  10.176   8.265 -1.0630  0.5680  0.4058
21464SOL     OW71249   5.316   3.741   2.211  0.4799 -0.0412 -0.0492
21464SOL    HW171250   5.358   3.656   2.224 -0.5497 -0.3200  1.7881
21464SOL    HW271251   5.247   3.725   2.148 -0.1526 -0.7658  0.7997
21465SOL     OW71252   3.118   2.587   8.328 -0.1233  0.4779  0.4081
21465SOL    HW171253   3.116   2.574   8.233 -0.0320  0.2912  0.4321
21465SOL    HW271254   3.127   2.682   8.339  0.2092  0.4698  0.2273
21466SOL     OW71255  10.821   5.797   1.413  0.1384 -0.5486 -0.1629
21466SOL    HW171256  10.888   5.774   1.476 -0.6937  0.2169  1.0411
21466SOL    HW271257  10.867   5.849   1.346  1.6420 -3.7742 -1.8808
21467SOL     OW71258   3.327  11.493   1.518  0.0893 -0.5767 -0.1322
21467SOL    HW171259   3.365  11.405   1.519  0.0955 -0.5897 -0.9452
21467SOL    HW271260   3.346  11.527   1.431 -0.1911  0.1143  0.0632
21468SOL     OW71261   9.826  10.799   9.006 -0.3175  0.2843  0.0552
21468SOL    HW171262   9.919  10.819   8.996 -0.0031 -1.1689 -0.1665
21468SOL    HW271263   9.786  10.882   9.031  1.4792  0.4158  3.0986
21469SOL     OW71264  10.659   9.068   3.954 -0.0545  0.2887 -0.2662
21469SOL    HW171265  10.720   9.127   3.999  0.8352 -0.3642 -0.5885
21469SOL    HW271266  10.715   9.002   3.913 -0.9403  0.0362 -1.1143
21470SOL     OW71267   3.172   4.728   7.975 -0.0979  0.5865  0.0014
21470SOL    HW171268   3.229   4.773   7.913  0.8810  1.8834  1.7635
21470SOL    HW271269   3.159   4.791   8.045 -1.8728 -0.5260  0.7335
21471SOL     OW71270   3.252   8.831   2.072  0.4942 -0.4191 -0.5482
21471SOL    HW171271   3.234   8.909   2.020  2.0363 -0.5496 -1.3697
21471SOL    HW271272   3.182   8.827   2.136 -1.7304 -0.4216 -2.8238
21472SOL     OW71273   5.842   7.764  10.933 -0.0402  0.2850 -0.0964
21472SOL    HW171274   5.809   7.746  10.844 -2.4740 -0.8180  0.9330
21472SOL    HW271275   5.773   7.817  10.973 -0.9430 -2.4469  2.3130
21473SOL     OW71276  11.685   7.847   0.191 -0.0908  0.6153  0.0400
21473SOL    HW171277  11.738   7.816   0.265 -0.5355  0.0260  0.1200
21473SOL    HW271278  11.646   7.929   0.222  0.0213  0.5623  0.3246
21474SOL     OW71279   1.632   1.008   6.687 -0.1450 -0.7468 -0.0319
21474SOL    HW171280   1.695   1.059   6.738 -0.2394 -1.1273  0.4762
21474SOL    HW271281   1.554   1.063   6.684  0.6287  0.3557 -1.8635
21475SOL     OW71282  10.021   9.309   2.308 -0.0844  0.5066  0.7203
21475SOL    HW171283  10.017   9.264   2.223 -4.1171 -1.6883  1.8002
21475SOL    HW271284  10.109   9.346   2.311  0.8874 -0.7940 -3.6165
21476SOL     OW71285   2.865   0.112  10.196  0.9057  0.7308 -0.0785
21476SOL    HW171286   2.792   0.061  10.161  1.2357  0.0962  0.1555
21476SOL    HW271287   2.932   0.108  10.127  0.9210  0.8830 -0.0745
21477SOL     OW71288   8.112   2.547  11.200 -0.0769  0.2244  0.0475
21477SOL    HW171289   8.183   2.516  11.257  1.9125 -0.5287 -2.6686
21477SOL    HW271290   8.087   2.470  11.150 -1.5575  0.9375 -0.3474
21478SOL     OW71291   6.795   9.755  11.780 -0.1023 -0.4182  0.1406
21478SOL    HW171292   6.855   9.687  11.809  0.7385 -0.7845 -2.2396
21478SOL    HW271293   6.716   9.708  11.753  0.1620 -0.3903 -0.7098
21479SOL     OW71294  11.661   1.452   2.831  0.1638  0.4785  0.1857
21479SOL    HW171295  11.723   1.478   2.900  1.2179  0.6404 -0.7946
21479SOL    HW271296  11.661   1.356   2.835  0.8979  0.4557 -0.1477
21480SOL     OW71297  11.545   2.483   7.300 -0.3968  0.2031 -0.6309
21480SOL    HW171298  11.635   2.458   7.321 -0.5252  1.0807  1.1856
21480SOL    HW271299  11.492   2.436   7.364 -1.0877  0.8636 -0.7098
21481SOL     OW71300   5.970   9.645   1.505 -0.0102  0.2658  0.0717
21481SOL    HW171301   5.876   9.657   1.510 -0.0031  0.8243 -0.8296
21481SOL    HW271302   5.989   9.645   1.411  0.8151 -0.4271  0.2263
21482SOL     OW71303   5.752   8.252   3.330  0.3506 -0.4223  0.0491
21482SOL    HW171304   5.698   8.188   3.376  0.7682 -1.2473 -0.5715
21482SOL    HW271305   5.707   8.266   3.247  0.5108 -0.2776 -0.0127
21483SOL     OW71306  10.700   4.955  11.016  0.1211  0.7268  0.1784
21483SOL    HW171307  10.784   4.988  11.046 -0.4942  1.6898  0.9130
21483SOL    HW271308  10.716   4.923  10.928  1.2186  1.0370  0.2572
21484SOL     OW71309  11.187   3.757   0.992  0.2382 -0.6921  0.0262
21484SOL    HW171310  11.196   3.743   1.086 -1.9495  0.3858  0.4702
21484SOL    HW271311  11.092   3.767   0.978  0.5676  0.0316 -2.1507
21485SOL     OW71312   5.858   9.828   2.284  0.1165  0.5542  0.0632
21485SOL    HW171313   5.924   9.818   2.353  1.3491 -1.0028 -1.2554
21485SOL    HW271314   5.905   9.809   2.203 -2.0599 -1.2471 -0.8991
21486SOL     OW71315   0.974   3.817   9.389  0.3683  0.2731 -0.1860
21486SOL    HW171316   0.905   3.751   9.383  0.9091 -0.3965  0.7350
21486SOL    HW271317   0.928   3.900   9.384 -0.4516 -0.1707 -0.1654
21487SOL     OW71318   2.082   7.601   6.777  0.2361 -0.2238 -0.6845
21487SOL    HW171319   2.063   7.586   6.870  0.0432 -1.0836 -0.8558
21487SOL    HW271320   2.171   7.567   6.765  0.2002 -0.2546 -0.8574
21488SOL     OW71321   5.049   5.344   1.627 -0.2020  0.5363 -0.0602
21488SOL    HW171322   4.977   5.389   1.673 -0.1777  1.5149 -0.9537
21488SOL    HW271323   5.090   5.290   1.695 -1.3663  0.4613  0.6176
21489SOL     OW71324   4.080   8.298   6.402  0.0934  0.2209 -0.0646
21489SOL    HW171325   4.128   8.347   6.469 -0.6542  0.8256  0.0392
21489SOL    HW271326   4.059   8.215   6.444  0.2320  0.3197  0.2048
21490SOL     OW71327   7.751  10.512  10.260  0.1624  0.2142 -0.7579
21490SOL    HW171328   7.774  10.499  10.168 -1.2089 -0.0216 -1.0900
21490SOL    HW271329   7.810  10.453  10.308  1.6949  1.1874 -1.3616
21491SOL     OW71330  10.294   6.687   1.996  0.3040  0.0379  0.2422
21491SOL    HW171331  10.323   6.610   1.948  1.3568  2.2375 -3.0401
21491SOL    HW271332  10.363   6.703   2.060  1.0358 -0.6972 -0.3414
21492SOL     OW71333   2.410   9.190   1.440  0.4893 -0.4982 -0.4745
21492SOL    HW171334   2.471   9.258   1.410  1.8882 -1.6148 -0.3012
21492SOL    HW271335   2.323   9.228   1.429  1.1855  0.8973 -1.4029
21493SOL     OW71336   5.422   4.541  10.550  0.0767 -0.8247  0.8498
21493SOL    HW171337   5.373   4.459  10.546 -1.7091  0.1989  0.7462
21493SOL    HW271338   5.357   4.609  10.529  1.0597  0.7790  2.6813
21494SOL     OW71339  11.633   4.419   8.355 -0.1618 -0.2641 -0.8069
21494SOL    HW171340  11.639   4.514   8.362  1.4443 -0.4042  0.3313
21494SOL    HW271341  11.654   4.401   8.264  1.1808  0.4094 -0.6649
21495SOL     OW71342   0.444   3.577  12.505 -0.5799 -0.0415  0.3208
21495SOL    HW171343   0.452   3.503  12.444  1.2773  0.1007  0.3242
21495SOL    HW271344   0.436   3.654  12.448  2.2970  0.2232  0.1036
21496SOL     OW71345   4.663  12.496   8.799  0.0773 -0.1556 -0.0122
21496SOL    HW171346   4.632  12.423   8.746 -0.3039  0.3007 -0.4291
21496SOL    HW271347   4.755  12.507   8.774 -0.0522 -0.0547 -0.4567
21497SOL     OW71348  12.570  10.611   0.767  0.1005 -0.0717 -0.9051
21497SOL    HW171349  12.578  10.545   0.697 -2.1416 -1.6488  0.1994
21497SOL    HW271350  12.603  10.566   0.845 -1.1909  0.1911 -0.1919
21498SOL     OW71351  12.263   1.805   1.739 -0.8319 -0.5557 -0.3064
21498SOL    HW171352  12.215   1.836   1.663 -0.2082  1.4292  0.0462
21498SOL    HW271353  12.281   1.884   1.790  1.7945 -1.3543  0.1493
21499SOL     OW71354   2.768   5.571  11.561  0.3147 -0.1050 -0.2716
21499SOL    HW171355   2.749   5.477  11.562  1.6393 -0.4182 -1.2000
21499SOL    HW271356   2.804   5.587  11.473  0.4450  1.2087 -0.0030
21500SOL     OW71357   3.139   2.430   3.620 -0.9208  0.4446 -0.2132
21500SOL    HW171358   3.108   2.396   3.704 -1.4160  1.0212 -0.1555
21500SOL    HW271359   3.092   2.512   3.608 -0.4311  0.6529 -0.7890
21501SOL     OW71360   6.922   5.812   5.712 -0.4032  0.0232 -0.5134
21501SOL    HW171361   6.982   5.846   5.645 -0.3468 -0.5374 -0.7546
21501SOL    HW271362   6.959   5.841   5.795 -0.0628  0.0961 -0.6895
21502SOL     OW71363   1.610  12.234   4.267  0.3849 -0.1703  0.4626
21502SOL    HW171364   1.642  12.316   4.305 -0.2323 -0.2335  1.1333
21502SOL    HW271365   1.519  12.253   4.243  0.4774 -0.4285 -0.1087
21503SOL     OW71366   8.194   8.705   0.729  0.3918  1.0780  0.0736
21503SOL    HW171367   8.256   8.640   0.762 -0.8882 -0.2929 -0.1122
21503SOL    HW271368   8.226   8.727   0.642 -0.7228 -1.5483 -1.0779
21504SOL     OW71369   1.732   2.915   9.615  0.3002 -0.3057 -0.2837
21504SOL    HW171370   1.645   2.934   9.650  0.6011 -0.2719  0.4596
21504SOL    HW271371   1.715   2.885   9.526 -0.4940 -0.5510 -0.0636
21505SOL     OW71372   6.860   6.451   0.444  0.0939 -0.1215 -0.5154
21505SOL    HW171373   6.908   6.397   0.381 -1.5639 -0.1747 -1.8106
21505SOL    HW271374   6.800   6.390   0.488 -1.5497  0.5143 -1.7504
21506SOL     OW71375   9.375   2.633   7.877 -0.0945  0.0911 -0.0121
21506SOL    HW171376   9.316   2.706   7.897  0.0224 -0.2025  1.5109
21506SOL    HW271377   9.340   2.595   7.796 -1.4695  0.4710  0.3880
21507SOL     OW71378   4.552   0.567   8.789 -0.1131  0.4623 -0.1060
21507SOL    HW171379   4.597   0.651   8.800  2.2134 -0.6073 -0.8726
21507SOL    HW271380   4.490   0.563   8.862  3.2075  0.6873  2.9621
21508SOL     OW71381   6.779  11.412   8.250 -0.1321 -0.7422 -0.0435
21508SOL    HW171382   6.846  11.467   8.291 -0.4515 -0.2251 -0.2006
21508SOL    HW271383   6.828  11.345   8.203  0.2525 -1.0017  0.7019
21509SOL     OW71384  10.158   8.258   8.445  0.0742  0.0223 -0.6791
21509SOL    HW171385  10.162   8.353   8.441  1.3424  0.0908  1.1689
21509SOL    HW271386  10.089   8.234   8.382  0.8774  2.0177 -2.4226
21510SOL     OW71387   9.261   8.909   9.920  0.4606  0.3291 -0.1192
21510SOL    HW171388   9.272   8.923   9.826  0.3835 -0.6737 -0.2919
21510SOL    HW271389   9.255   8.813   9.930  0.3935  0.4209  0.8950
21511SOL     OW71390   0.828   6.373   4.523 -0.5996 -0.2115  0.0388
21511SOL    HW171391   0.816   6.289   4.569  0.2668 -0.4467 -0.1315
21511SOL    HW271392   0.742   6.395   4.489 -0.9714 -0.7192  0.6302
21512SOL     OW71393   2.586   4.881   2.337 -0.1017 -0.1197 -0.3312
21512SOL    HW171394   2.498   4.875   2.300 -0.1236  0.5843 -0.4100
21512SOL    HW271395   2.644   4.876   2.261 -0.1383  1.0757 -0.4575
21513SOL     OW71396   6.187   8.246   3.733 -0.0052 -0.0839 -0.1084
21513SOL    HW171397   6.158   8.315   3.792  1.3279  0.2311  0.2249
21513SOL    HW271398   6.273   8.221   3.766  0.3028 -0.6647 -1.2731
21514SOL     OW71399   6.347   7.045   6.929 -0.1224  0.0979  0.0383
21514SOL    HW171400   6.281   7.054   6.998  0.0009  0.2097  0.1416
21514SOL    HW271401   6.368   6.951   6.928 -0.0966  0.1023  0.1778
21515SOL     OW71402   3.316   7.960   5.507 -0.1191  0.1556  0.6666
21515SOL    HW171403   3.279   7.882   5.548 -1.0252  0.6482  0.8210
21515SOL    HW271404   3.241   8.018   5.493  0.2180  0.1889 -1.3046
21516SOL     OW71405  10.241   8.580   9.820  0.4420 -0.3304  0.0948
21516SOL    HW171406  10.321   8.628   9.844  0.3297  0.1087 -0.3876
21516SOL    HW271407  10.170   8.639   9.845  0.2795 -0.6364  0.3417
21517SOL     OW71408   7.677   6.312   4.844 -0.1731  0.1648  0.8023
21517SOL    HW171409   7.613   6.346   4.907  1.5741  2.7050  1.3469
21517SOL    HW271410   7.722   6.242   4.891 -1.3202 -0.4490  1.0341
21518SOL     OW71411   4.332   8.755   1.704 -0.5152 -0.2525 -0.3078
21518SOL    HW171412   4.398   8.695   1.670 -0.8379 -0.6103 -0.3032
21518SOL    HW271413   4.332   8.828   1.642  0.5850  0.2269  0.2309
21519SOL     OW71414   1.230   5.914   5.379  0.1263 -0.3413  0.4215
21519SOL    HW171415   1.276   5.905   5.295  1.0352  0.4685  0.8159
21519SOL    HW271416   1.294   5.884   5.444  0.1702  0.9333  0.9924
21520SOL     OW71417  12.372   6.321   9.225  0.5721 -0.2420  0.5009
21520SOL    HW171418  12.286   6.349   9.195  0.5287 -1.3820 -0.5623
21520SOL    HW271419  12.407   6.396   9.273 -0.5734  0.6224  0.0339
21521SOL     OW71420  12.566   1.684  11.897  0.5714  0.2464 -0.2609
21521SOL    HW171421  12.576   1.722  11.810  2.5406  2.9504  1.0259
21521SOL    HW271422  12.644   1.629  11.909  0.9422  0.8747  0.2450
21522SOL     OW71423   1.346   7.652   8.504 -0.0160  0.0881  0.2348
21522SOL    HW171424   1.283   7.699   8.560  0.4114 -1.2322  1.9290
21522SOL    HW271425   1.409   7.615   8.566  0.3684 -1.6483 -1.1139
21523SOL     OW71426   8.606   6.520   2.859  0.1295 -0.6411  0.2999
21523SOL    HW171427   8.562   6.449   2.905  0.3523 -0.2454  1.1409
21523SOL    HW271428   8.541   6.590   2.855  0.1265 -0.6574  0.0491
21524SOL     OW71429   3.527   3.558   3.420 -0.3337 -0.4822  0.0324
21524SOL    HW171430   3.516   3.615   3.344 -0.1975 -1.4508 -0.7201
21524SOL    HW271431   3.455   3.583   3.479  0.0409  0.8397 -0.0265
21525SOL     OW71432   5.907   4.809   1.982 -0.0676  0.0068  0.2184
21525SOL    HW171433   5.920   4.861   1.903 -0.2081 -0.9775 -0.4652
21525SOL    HW271434   5.964   4.849   2.047  1.0650  0.0103 -0.7557
21526SOL     OW71435   8.559  10.616   0.878  0.0617  0.1910  0.2486
21526SOL    HW171436   8.529  10.707   0.874 -0.7949 -0.0628  0.6662
21526SOL    HW271437   8.526  10.583   0.962  0.3801 -0.5027  0.1127
21527SOL     OW71438  11.287   3.869   2.274  0.1215  0.3295  0.6974
21527SOL    HW171439  11.255   3.809   2.206  0.2980  0.3630  0.5844
21527SOL    HW271440  11.239   3.843   2.352 -1.1858  1.2670  0.2316
21528SOL     OW71441   6.455  11.088   8.648 -0.0513 -0.2035  0.3595
21528SOL    HW171442   6.500  11.037   8.581  0.5429 -0.0182  0.6066
21528SOL    HW271443   6.525  11.121   8.704 -0.2233  2.2973 -0.7524
21529SOL     OW71444   3.441  11.461   0.032  0.9904  0.1205 -0.4261
21529SOL    HW171445   3.382  11.480   0.104  0.2914 -1.5571 -0.5260
21529SOL    HW271446   3.473  11.373   0.049  0.9695 -0.2363 -2.0405
21530SOL     OW71447  12.396   6.005   7.250 -0.9152  0.6010  0.4032
21530SOL    HW171448  12.344   5.927   7.229 -1.8071  1.3228 -0.1008
21530SOL    HW271449  12.390   6.060   7.172 -0.3231  1.2007  0.7709
21531SOL     OW71450   3.213   8.267   4.008  0.6279  0.2953 -0.6605
21531SOL    HW171451   3.259   8.336   4.057 -0.3292  1.1048 -0.8553
21531SOL    HW271452   3.123   8.271   4.041  0.4426 -0.5207 -1.0560
21532SOL     OW71453   3.900   4.663   0.011  0.7283  0.8058  0.1595
21532SOL    HW171454   3.816   4.635   0.047 -0.7674  3.6507 -0.7763
21532SOL    HW271455   3.958   4.588   0.023 -1.3045 -0.5009  2.8777
21533SOL     OW71456   5.173   3.474   0.613  0.4173  0.1244  0.4521
21533SOL    HW171457   5.241   3.463   0.546 -0.2362 -2.4001  0.1229
21533SOL    HW271458   5.201   3.417   0.685 -0.2245  0.8084  1.2631
21534SOL     OW71459   6.868  11.088   6.928 -0.1703  0.2070  0.5568
21534SOL    HW171460   6.930  11.114   6.997  0.5441 -2.7678  1.1966
21534SOL    HW271461   6.921  11.038   6.867 -1.1238  1.4936 -1.4071
21535SOL     OW71462   5.829   2.094   4.468 -0.7018 -0.1440 -0.3112
21535SOL    HW171463   5.869   2.147   4.537  0.0179  0.4288 -1.1484
21535SOL    HW271464   5.883   2.111   4.391 -2.0131 -0.0799 -1.2455
21536SOL     OW71465   1.654  11.998  12.405  0.3906  0.7796  0.3414
21536SOL    HW171466   1.701  11.959  12.332  0.6879 -0.7731  1.3245
21536SOL    HW271467   1.721  12.015  12.472 -0.1077  0.6247  0.8961
21537SOL     OW71468   8.966  10.587   8.692  0.6573  0.0387 -0.1666
21537SOL    HW171469   8.874  10.560   8.691  1.0594 -1.3594 -1.1068
21537SOL    HW271470   8.995  10.578   8.601  2.2458 -1.4449  0.4451
21538SOL     OW71471   5.236   3.620   1.485  0.7646  0.2323  0.7661
21538SOL    HW171472   5.299   3.606   1.414  0.8814 -0.1251  0.9351
21538SOL    HW271473   5.193   3.535   1.495  0.0467  0.5493  0.4604
21539SOL     OW71474   4.430   0.700   0.992  0.1644 -0.2877  0.7577
21539SOL    HW171475   4.380   0.773   1.030  1.3325  1.1932 -0.4194
21539SOL    HW271476   4.503   0.687   1.053  0.1846 -0.1904  0.7546
21540SOL     OW71477  12.452   1.654   0.628  0.0758  0.1942 -0.0565
21540SOL    HW171478  12.464   1.578   0.686  1.6838  0.8916  0.5828
21540SOL    HW271479  12.430   1.726   0.686  0.1914  0.5751 -0.4745
21541SOL     OW71480  10.471   8.805   3.187 -0.1401 -0.6945 -0.2217
21541SOL    HW171481  10.424   8.787   3.105  0.5438  0.6358 -0.9355
21541SOL    HW271482  10.544   8.743   3.187 -0.1205 -0.6742 -0.6406
21542SOL     OW71483   5.534  11.147   9.383 -0.0774  0.2205  0.0561
21542SOL    HW171484   5.488  11.194   9.313 -0.1709 -0.2224 -0.1841
21542SOL    HW271485   5.583  11.078   9.337 -1.1120 -0.8544  0.5326
21543SOL     OW71486   6.121   9.892   5.639 -0.4856 -0.6787  0.3988
21543SOL    HW171487   6.182   9.872   5.709  2.7901  2.6451 -1.1195
21543SOL    HW271488   6.064   9.960   5.675  0.7764  0.5580  0.1839
21544SOL     OW71489   6.233   5.343   1.421 -0.5738 -0.4579  0.0511
21544SOL    HW171490   6.244   5.384   1.507 -0.6110  0.2168 -0.2567
21544SOL    HW271491   6.322   5.341   1.384 -0.2627 -2.3204  0.7785
21545SOL     OW71492   4.493  11.266  11.153 -0.0225 -0.3917  0.2903
21545SOL    HW171493   4.415  11.252  11.099 -0.9382  0.8080  1.2369
21545SOL    HW271494   4.481  11.354  11.190  1.2505 -0.6296  1.3410
21546SOL     OW71495   0.009   0.772   9.907  0.3303  0.0422  0.0715
21546SOL    HW171496  -0.028   0.685   9.896 -0.0647 -0.0803  2.1379
21546SOL    HW271497   0.085   0.773   9.847 -2.3240  0.0328 -3.6712
21547SOL     OW71498   8.752  10.543  10.037  0.1383 -0.4688  0.3508
21547SOL    HW171499   8.741  10.616   9.976  1.0731 -1.6281 -1.3034
21547SOL    HW271500   8.664  10.522  10.066 -0.1304  1.3541  0.9259
21548SOL     OW71501   9.951   9.551   4.481  0.5145  0.5450  0.1890
21548SOL    HW171502  10.034   9.541   4.434 -0.1785  2.8414 -1.6921
21548SOL    HW271503   9.912   9.630   4.444 -3.1886 -1.1876 -0.0689
21549SOL     OW71504   1.537   2.293   7.639  0.4590 -0.1806 -0.2564
21549SOL    HW171505   1.555   2.267   7.549  0.4837 -0.0280 -0.2970
21549SOL    HW271506   1.581   2.378   7.648 -1.2327  0.7950 -0.7342
21550SOL     OW71507   0.648   4.161   1.183 -0.0203 -0.4169  0.2032
21550SOL    HW171508   0.620   4.238   1.232  0.6324  0.5523 -0.8890
21550SOL    HW271509   0.588   4.092   1.211  1.4394 -0.4683  3.7963
21551SOL     OW71510   5.322   4.015  10.372 -0.2542 -0.0063  0.3079
21551SOL    HW171511   5.236   3.976  10.388 -0.3064 -1.1458 -2.2148
21551SOL    HW271512   5.384   3.951  10.407 -0.4066 -0.8393 -0.8884
21552SOL     OW71513   2.031  10.207  10.670 -0.3686 -0.7943  0.1724
21552SOL    HW171514   1.937  10.203  10.650 -0.4194 -1.0467  0.4558
21552SOL    HW271515   2.035  10.212  10.765 -0.1673  1.5032  0.1039
21553SOL     OW71516   8.775   6.473   8.645  0.6795  0.3845 -0.2536
21553SOL    HW171517   8.731   6.401   8.599  1.2833 -0.1397 -0.0323
21553SOL    HW271518   8.763   6.453   8.737  0.2601  0.9392 -0.1902
21554SOL     OW71519   9.788   8.658   5.649 -0.9458 -0.3839  0.2753
21554SOL    HW171520   9.858   8.603   5.684 -1.7908 -1.2565  0.6556
21554SOL    HW271521   9.744   8.693   5.726 -2.3983 -1.7721  0.1466
21555SOL     OW71522   0.540   6.417   4.521 -0.1980  0.3116 -0.0476
21555SOL    HW171523   0.477   6.406   4.593 -1.0478 -1.7809 -1.0100
21555SOL    HW271524   0.489   6.454   4.449 -0.0150 -0.0935 -0.3924
21556SOL     OW71525   1.890   9.440   6.187  0.2792  0.1742  0.2946
21556SOL    HW171526   1.971   9.401   6.220  0.2946  0.2690  0.3706
21556SOL    HW271527   1.916   9.485   6.106  0.3818  0.5285  0.5182
21557SOL     OW71528   9.922   6.975   0.364 -0.4936  0.4325 -0.0734
21557SOL    HW171529   9.977   7.051   0.379  0.7452 -0.8167  2.4338
21557SOL    HW271530   9.841   6.994   0.412  0.0241  0.0177  1.0082
21558SOL     OW71531   5.712   9.558   8.728  0.0452 -0.7045 -0.4103
21558SOL    HW171532   5.701   9.618   8.654 -2.4320  1.6520  1.6564
21558SOL    HW271533   5.758   9.609   8.794  0.6432 -2.1606  0.3463
21559SOL     OW71534  12.146   3.249   3.342  0.0591 -0.0795  0.1591
21559SOL    HW171535  12.110   3.283   3.424 -1.2465  0.3043 -0.5396
21559SOL    HW271536  12.180   3.163   3.364  1.6685  0.8560  1.5534
21560SOL     OW71537   9.530   5.413   5.723  0.1564 -0.0070  0.9597
21560SOL    HW171538   9.527   5.429   5.818  2.7287  0.8844  0.9675
21560SOL    HW271539   9.579   5.332   5.713  0.3347  0.1633  0.3899
21561SOL     OW71540  10.371   0.949  12.520  0.0393 -0.6395 -0.2651
21561SOL    HW171541  10.417   0.975  12.439  1.4549  1.0890  1.0234
21561SOL    HW271542  10.345   1.031  12.560  0.5959 -1.3839  1.7181
21562SOL     OW71543   7.344   2.729   1.577  0.5438 -0.5869 -0.2276
21562SOL    HW171544   7.354   2.810   1.527  2.5274  0.8684  2.2770
21562SOL    HW271545   7.252   2.727   1.602  0.1906  0.2046 -1.3903
21563SOL     OW71546   0.085   6.498   6.770  0.1607  0.4905 -0.0318
21563SOL    HW171547   0.161   6.523   6.822 -0.0900  0.2348  0.4575
21563SOL    HW271548   0.092   6.403   6.759 -0.3637  0.3871  0.4624
21564SOL     OW71549   0.220   3.372   9.362  0.5211 -0.1166 -0.1316
21564SOL    HW171550   0.223   3.370   9.267  0.0527 -0.0319 -0.1467
21564SOL    HW271551   0.225   3.464   9.385 -0.2305 -0.0821 -0.1014
21565SOL     OW71552  11.927   6.395   0.348  0.0118 -0.3685  0.3260
21565SOL    HW171553  11.866   6.464   0.373  1.7074  0.5102  2.3551
21565SOL    HW271554  11.943   6.346   0.429 -0.8178 -2.9580 -0.9647
21566SOL     OW71555   8.116   9.893   4.962 -0.6416  0.2853 -0.4341
21566SOL    HW171556   8.126   9.802   4.936 -1.2255  0.1333 -0.1351
21566SOL    HW271557   8.156   9.898   5.049  0.2873  0.5413 -0.8635
21567SOL     OW71558   0.628   6.631  12.161  0.1882 -0.2019 -0.2877
21567SOL    HW171559   0.708   6.641  12.109  0.4874  1.8721  0.4934
21567SOL    HW271560   0.562   6.600  12.098  1.5819 -2.1334 -0.9185
21568SOL     OW71561   1.303   6.187   8.221  0.0234 -0.7410  0.0060
21568SOL    HW171562   1.347   6.248   8.281 -1.1379 -0.0804  0.2218
21568SOL    HW271563   1.266   6.244   8.154 -1.2698 -1.1721  0.3330
21569SOL     OW71564   5.562   0.971   8.123  0.1675  0.8739  0.1878
21569SOL    HW171565   5.652   0.983   8.152  1.2844 -0.9108 -2.1637
21569SOL    HW271566   5.543   0.879   8.141 -0.5571  0.8046 -0.8243
21570SOL     OW71567   3.218   4.111   7.432 -0.4972  0.1845  0.1360
21570SOL    HW171568   3.146   4.166   7.461 -1.6035 -0.4356 -1.3021
21570SOL    HW271569   3.190   4.021   7.450  0.7160 -0.0048  1.2280
21571SOL     OW71570   8.789   0.416   8.383  0.4125  0.4879  0.4615
21571SOL    HW171571   8.734   0.357   8.333  0.6171  0.0816  0.7103
21571SOL    HW271572   8.878   0.390   8.361  0.5575 -1.1377  2.6264
21572SOL     OW71573   5.341   0.339   4.729  0.0400 -0.6211  0.0657
21572SOL    HW171574   5.382   0.423   4.709  0.7468 -0.4582  2.0000
21572SOL    HW271575   5.310   0.306   4.644  0.0476  1.4145 -0.7711
21573SOL     OW71576   8.274  10.951   5.622 -0.2579  0.2753 -0.5766
21573SOL    HW171577   8.211  10.889   5.584  1.6211 -1.8159 -0.4604
21573SOL    HW271578   8.340  10.962   5.554  1.3403 -0.7863  0.7470
21574SOL     OW71579   3.606   4.613   2.480 -0.5204  0.3211 -0.6800
21574SOL    HW171580   3.562   4.696   2.497 -0.9548 -0.3537  2.0178
21574SOL    HW271581   3.658   4.597   2.559  0.5769 -1.3479 -1.6775
21575SOL     OW71582   6.647  11.751   1.954  0.3707 -0.4994 -1.2770
21575SOL    HW171583   6.625  11.843   1.969  0.9349 -0.2277 -2.0307
21575SOL    HW271584   6.711  11.730   2.022 -0.3175 -0.5590 -0.6403
21576SOL     OW71585   6.620  12.453   0.578 -0.4123  0.2182 -0.1247
21576SOL    HW171586   6.681  12.402   0.525 -0.7444  1.2275 -1.5278
21576SOL    HW271587   6.627  12.415   0.666  1.1759 -0.6005 -0.5717
21577SOL     OW71588  10.896   9.933   3.993  0.0956  0.2119  0.7813
21577SOL    HW171589  10.822   9.926   3.933  0.6022  2.5875 -0.2490
21577SOL    HW271590  10.912   9.844   4.022 -0.4592 -1.0345 -2.3156
21578SOL     OW71591   6.368   1.897   4.442  0.5897 -0.3043 -0.2253
21578SOL    HW171592   6.377   1.908   4.536  1.5596  0.0667 -0.3458
21578SOL    HW271593   6.282   1.934   4.421  0.3197 -0.4986  0.5201
21579SOL     OW71594   1.838   0.848   6.331  0.1214  0.0716 -0.1622
21579SOL    HW171595   1.888   0.766   6.336 -1.1488 -0.6713  1.1915
21579SOL    HW271596   1.844   0.885   6.419 -0.8641  0.4586 -0.2453
21580SOL     OW71597  11.024   7.637   9.027 -0.1628  0.1046 -0.2573
21580SOL    HW171598  11.014   7.589   8.944  1.0989 -1.0268  0.2047
21580SOL    HW271599  11.067   7.719   9.003  1.3220 -0.7428 -0.6134
21581SOL     OW71600   4.027   5.485   6.567  0.7448  0.0699 -0.1636
21581SOL    HW171601   3.939   5.524   6.570  1.5225  1.9990 -0.6983
21581SOL    HW271602   4.069   5.518   6.647  0.9635 -0.9411  0.1475
21582SOL     OW71603   4.247   3.032   6.042 -0.5316  0.2147 -0.2024
21582SOL    HW171604   4.225   3.028   5.949 -0.0127  1.9883 -0.4377
21582SOL    HW271605   4.338   3.003   6.046  0.2313  2.3880 -0.6172
21583SOL     OW71606   1.429   9.524   9.185  0.6749 -0.2410 -0.1896
21583SOL    HW171607   1.380   9.501   9.107 -0.3632 -0.4786  0.5139
21583SOL    HW271608   1.419   9.449   9.243  0.7640  0.2560  0.4862
21584SOL     OW71609   1.007   5.392  12.534 -0.3794  0.4811 -0.3849
21584SOL    HW171610   1.064   5.380  12.611 -1.3043 -1.3438  0.0712
21584SOL    HW271611   0.943   5.458  12.562 -0.0714  0.6154  0.0269
21585SOL     OW71612   5.283   0.659   4.863  0.3725  0.6346  0.2894
21585SOL    HW171613   5.198   0.653   4.906 -0.1700  0.4537 -0.7713
21585SOL    HW271614   5.268   0.621   4.776  1.4141  1.0612 -0.0880
21586SOL     OW71615   2.645  11.871   7.629  0.8101  0.2496 -0.2647
21586SOL    HW171616   2.559  11.873   7.671  1.2804 -1.2900  0.8580
21586SOL    HW271617   2.700  11.820   7.689  2.2438  0.3473 -1.4385
21587SOL     OW71618   0.627   4.355   0.659  0.3331  0.4533 -0.0659
21587SOL    HW171619   0.618   4.428   0.598  1.0471 -0.5609 -1.4679
21587SOL    HW271620   0.713   4.368   0.699  1.2279 -0.4362 -1.5632
21588SOL     OW71621   0.898   1.852   0.700 -0.3752  0.1811  0.2774
21588SOL    HW171622   0.988   1.863   0.671 -0.2782  4.1916  1.5354
21588SOL    HW271623   0.847   1.913   0.646 -1.6906  0.8019  2.1291
21589SOL     OW71624   6.394   9.712   1.886  0.1342 -0.5765 -0.0299
21589SOL    HW171625   6.458   9.737   1.952 -1.0485  0.2274  0.8549
21589SOL    HW271626   6.381   9.791   1.834 -0.9207 -0.4024  0.4758
21590SOL     OW71627   4.117  10.611   5.140 -0.2018  0.2302 -0.1473
21590SOL    HW171628   4.066  10.577   5.213 -0.1042  1.1226  0.3611
21590SOL    HW271629   4.083  10.566   5.063 -1.2847  0.3132  0.2678
21591SOL     OW71630  10.891   3.319  10.345  0.4548 -0.2129  0.4228
21591SOL    HW171631  10.921   3.409  10.357 -1.9539  1.0479 -2.0046
21591SOL    HW271632  10.955   3.280  10.287  0.9479  0.2612  0.6389
21592SOL     OW71633  11.493   7.165  10.831  0.0315  0.4376  0.2489
21592SOL    HW171634  11.516   7.257  10.817 -0.0064  0.3219 -0.6358
21592SOL    HW271635  11.463   7.161  10.922 -1.9998  1.7215 -0.3007
21593SOL     OW71636   0.082   7.472   1.828 -0.0473  0.0863  0.1484
21593SOL    HW171637  -0.008   7.469   1.795 -0.5071 -1.0240  1.4063
21593SOL    HW271638   0.102   7.565   1.835 -1.8995  0.4202  1.8568
21594SOL     OW71639  10.480   9.661   4.100 -0.3333 -0.2516  0.2554
21594SOL    HW171640  10.399   9.627   4.138  0.5009 -1.4120  1.1235
21594SOL    HW271641  10.531   9.582   4.080  1.5387  0.4213  1.9714
21595SOL     OW71642   9.144   9.562   0.424  0.7867 -0.8084 -0.1523
21595SOL    HW171643   9.101   9.626   0.481  1.6970 -0.3724  0.0538
21595SOL    HW271644   9.073   9.503   0.398 -0.0444  0.1778 -0.2147
21596SOL     OW71645   1.928   2.751   9.718 -0.0749 -0.9049 -0.1978
21596SOL    HW171646   1.906   2.669   9.674 -1.0972 -0.9928  0.4482
21596SOL    HW271647   1.859   2.812   9.690  0.4990 -0.3453 -0.4207
21597SOL     OW71648   3.759  10.867   4.335  0.4492 -0.3204 -0.0395
21597SOL    HW171649   3.734  10.823   4.416  0.0584 -1.0716 -0.5487
21597SOL    HW271650   3.791  10.953   4.362 -0.4298 -0.2549  0.8410
21598SOL     OW71651   6.749   1.418   2.927  0.6161 -0.1760 -0.5423
21598SOL    HW171652   6.751   1.417   3.023  1.8331  0.8160 -0.5358
21598SOL    HW271653   6.748   1.326   2.903 -0.3633 -0.4460  0.4181
21599SOL     OW71654   7.661   2.001   2.883 -0.1279  0.2966  0.1983
21599SOL    HW171655   7.707   2.082   2.860 -0.1348  0.9016  2.1023
21599SOL    HW271656   7.637   1.962   2.799 -0.5539  2.5161 -0.7825
21600SOL     OW71657   2.898   9.624   7.096 -0.1751 -0.5714 -0.0381
21600SOL    HW171658   2.939   9.569   7.162  0.2370 -2.8036 -1.9938
21600SOL    HW271659   2.894   9.568   7.018 -2.6946  1.1333 -1.2745
21601SOL     OW71660   1.730   1.397   8.553  0.0997  0.1211  0.4735
21601SOL    HW171661   1.650   1.436   8.588 -0.0024  0.0996  0.2641
21601SOL    HW271662   1.743   1.440   8.469 -0.5916 -1.0394 -0.2515
21602SOL     OW71663   4.392   7.508  12.489  0.1376 -0.9494 -0.2232
21602SOL    HW171664   4.361   7.418  12.489 -0.9023 -0.6073 -0.2531
21602SOL    HW271665   4.312   7.561  12.490  0.7291 -0.0242  1.2450
21603SOL     OW71666  11.593  12.398   6.667 -0.3602 -0.2652 -0.3285
21603SOL    HW171667  11.577  12.416   6.575 -1.0371  1.5857  0.1078
21603SOL    HW271668  11.666  12.455   6.691 -0.7326 -0.1171  0.4759
21604SOL     OW71669   4.422   0.568   4.622 -0.1313  0.9918  0.5797
21604SOL    HW171670   4.489   0.501   4.633 -1.6015 -0.5709  0.4154
21604SOL    HW271671   4.360   0.531   4.560 -1.2509  2.3115  0.8463
21605SOL     OW71672   9.373  10.844  10.541  0.2925  0.0578 -0.3833
21605SOL    HW171673   9.457  10.855  10.585  0.9107 -0.2350 -1.4513
21605SOL    HW271674   9.338  10.932  10.532  0.2193  0.1278  0.5703
21606SOL     OW71675   5.744   3.187   1.402 -0.6299 -0.5932 -0.3026
21606SOL    HW171676   5.776   3.098   1.384  1.4704  0.4453 -2.0717
21606SOL    HW271677   5.659   3.173   1.444  1.0030 -3.4940  2.5411
21607SOL     OW71678   1.013  10.929  10.409  0.1959 -0.4598 -0.3498
21607SOL    HW171679   1.090  10.884  10.373  0.4668 -0.5229  0.2970
21607SOL    HW271680   1.001  11.005  10.352  0.0872 -1.0388 -1.1044
21608SOL     OW71681   3.340   5.443   0.901  0.3540  0.1212 -0.5439
21608SOL    HW171682   3.388   5.397   0.970 -2.2174 -0.3830  1.0751
21608SOL    HW271683   3.340   5.535   0.929  0.0964  0.0634 -0.3478
21609SOL     OW71684   2.014   2.541   8.759  0.0678  0.0419 -0.1639
21609SOL    HW171685   1.956   2.611   8.729  0.3653 -0.0807 -1.0267
21609SOL    HW271686   1.954   2.471   8.785 -0.1848 -0.0497 -0.9669
21610SOL     OW71687   0.366  10.214   1.210 -0.1327 -0.4561  0.2565
21610SOL    HW171688   0.412  10.148   1.263  2.1137  0.7462 -0.0507
21610SOL    HW271689   0.339  10.281   1.273 -0.0429 -0.4095  0.2459
21611SOL     OW71690   0.913   2.012   6.937 -0.4767 -0.1592  0.4341
21611SOL    HW171691   1.007   2.020   6.952 -0.7702  0.1470  2.3866
21611SOL    HW271692   0.874   2.080   6.991 -1.7438  1.5698 -2.3874
21612SOL     OW71693   6.177   4.176   8.835 -0.1006 -0.1416  0.0271
21612SOL    HW171694   6.139   4.237   8.898  0.2097 -1.5528  1.6717
21612SOL    HW271695   6.103   4.121   8.809  0.3705 -1.8661  2.0120
21613SOL     OW71696   2.153   8.465   6.956 -0.3537 -0.0082  0.5361
21613SOL    HW171697   2.098   8.535   6.922 -0.8386 -0.9209 -0.6357
21613SOL    HW271698   2.242   8.497   6.946 -0.5993  0.8879  1.0815
21614SOL     OW71699   2.800   9.163   6.462  0.4288  0.1679 -0.7232
21614SOL    HW171700   2.811   9.080   6.417 -1.7215  0.3309 -1.6950
21614SOL    HW271701   2.777   9.225   6.393 -0.5150  0.9826  0.2760
21615SOL     OW71702   0.538   5.763  10.318  0.0305  0.7392 -0.3563
21615SOL    HW171703   0.605   5.790  10.256  2.9602 -1.6011  1.5438
21615SOL    HW271704   0.554   5.817  10.396 -0.4551  0.3107  0.0462
21616SOL     OW71705   8.109   7.357   6.705 -0.2164 -0.0335  0.1323
21616SOL    HW171706   8.117   7.279   6.759 -0.6303 -0.1243  0.0664
21616SOL    HW271707   8.189   7.359   6.652  0.5432  0.4419  1.2503
21617SOL     OW71708   3.161   4.565   3.996 -0.3592  0.2557 -0.1880
21617SOL    HW171709   3.192   4.555   4.086 -0.8639  2.5614  0.3133
21617SOL    HW271710   3.076   4.521   3.995 -0.8965  1.2049  0.8392
21618SOL     OW71711   9.126   8.634  10.552  0.2012 -0.3899  0.0816
21618SOL    HW171712   9.064   8.680  10.609 -0.2383 -0.2564 -0.4885
21618SOL    HW271713   9.210   8.640  10.597  0.4194  1.9992 -0.4894
21619SOL     OW71714  11.264   2.727   0.635 -0.0189 -0.6063 -0.0840
21619SOL    HW171715  11.323   2.710   0.562 -0.5621 -0.6797 -0.5122
21619SOL    HW271716  11.218   2.807   0.610 -1.7866 -1.7984 -0.8562
21620SOL     OW71717   5.188   7.220   8.706 -0.4060 -0.0065 -0.4890
21620SOL    HW171718   5.162   7.312   8.711  2.0069  0.7017  0.4479
21620SOL    HW271719   5.263   7.219   8.646  1.3245 -0.8454  1.5326
21621SOL     OW71720  11.655   2.642  12.147 -0.2965  0.3828  0.1121
21621SOL    HW171721  11.666   2.733  12.121 -1.4704  0.5665  0.2116
21621SOL    HW271722  11.565   2.637  12.180 -0.1650 -0.7534  0.3351
21622SOL     OW71723   2.996   6.995   3.250 -0.5586 -0.3665 -0.1496
21622SOL    HW171724   3.048   7.072   3.228  0.3641 -0.9739 -0.1554
21622SOL    HW271725   3.053   6.921   3.228 -1.4283 -1.0491 -0.1428
21623SOL     OW71726   1.471   9.006   9.150 -0.1452 -0.5048  0.2080
21623SOL    HW171727   1.390   9.029   9.105 -1.7200 -1.3371  2.4110
21623SOL    HW271728   1.443   8.947   9.220  2.4001 -0.8638  1.0270
21624SOL     OW71729   1.892   7.055   6.504 -0.2492  0.0486  0.7159
21624SOL    HW171730   1.820   7.016   6.553  1.0533 -0.5917  2.2605
21624SOL    HW271731   1.860   7.063   6.414 -1.7108 -1.5626  1.0447
21625SOL     OW71732  10.112   2.924   7.607  0.0333  0.1332 -0.5470
21625SOL    HW171733  10.074   2.976   7.536  0.3943  1.1413 -0.0266
21625SOL    HW271734  10.169   2.986   7.654  2.0454 -1.2127 -1.0830
21626SOL     OW71735   5.782  12.002   7.955 -0.2513 -0.2092  0.4530
21626SOL    HW171736   5.855  11.991   7.894 -0.2404  0.5738  0.3193
21626SOL    HW271737   5.757  12.094   7.947 -0.9015 -0.3392  0.8988
21627SOL     OW71738  12.561   6.374   9.024  0.0347 -0.1616  0.1737
21627SOL    HW171739  12.505   6.333   9.090  2.8017  0.6151  3.2814
21627SOL    HW271740  12.607   6.300   8.984 -1.7168 -0.6483 -1.0540
21628SOL     OW71741   7.402   7.348   3.976  0.1697 -0.2789 -0.2987
21628SOL    HW171742   7.430   7.427   4.022 -1.9077 -0.1649  0.8997
21628SOL    HW271743   7.436   7.276   4.028 -0.9558 -0.1457  0.6478
21629SOL     OW71744   7.376   2.223   0.933 -0.6659  0.0695 -0.5070
21629SOL    HW171745   7.314   2.173   0.880 -1.2008  0.5650 -0.3535
21629SOL    HW271746   7.387   2.172   1.013  0.6563 -1.0276 -1.3410
21630SOL     OW71747   3.919   3.091   7.718  0.5736 -0.1777  0.3664
21630SOL    HW171748   3.830   3.058   7.723 -0.7252  1.6889 -4.3757
21630SOL    HW271749   3.921   3.166   7.778 -1.2885  0.0628  0.1828
21631SOL     OW71750   5.278   0.035   4.603 -0.0879  0.0855  0.2908
21631SOL    HW171751   5.227   0.039   4.684 -1.2705  0.6093 -0.4521
21631SOL    HW271752   5.216   0.001   4.537  0.4306  0.9847 -0.6938
21632SOL     OW71753   4.217   6.890   6.400 -0.4276 -0.3989 -0.0293
21632SOL    HW171754   4.261   6.819   6.446  0.1849  0.6566  1.0604
21632SOL    HW271755   4.287   6.946   6.368 -0.9193  0.1648 -0.1434
21633SOL     OW71756  12.094   3.998   0.244 -0.2589 -0.2314  0.0786
21633SOL    HW171757  12.157   4.054   0.199  0.4309  0.3137  1.6582
21633SOL    HW271758  12.136   3.911   0.245 -0.6042 -0.4277 -0.9235
21634SOL     OW71759   3.814   9.712   0.360  0.2034  0.1172  0.3939
21634SOL    HW171760   3.825   9.634   0.414 -0.5208  0.3861  0.9507
21634SOL    HW271761   3.863   9.780   0.406  0.9005 -0.0100 -0.1320
21635SOL     OW71762   4.620  11.731   3.442 -0.5792  0.2092 -0.2776
21635SOL    HW171763   4.652  11.660   3.387 -1.6863 -0.2015 -0.4219
21635SOL    HW271764   4.571  11.788   3.382 -0.5956  0.5181  0.0253
21636SOL     OW71765   5.738   3.128   5.940  0.2143  0.4064  0.6759
21636SOL    HW171766   5.679   3.203   5.928 -0.4537 -0.4508 -2.3609
21636SOL    HW271767   5.803   3.138   5.871  1.8402 -0.3442  2.0403
21637SOL     OW71768   9.177   4.228  11.579 -0.3967  0.2362  0.0345
21637SOL    HW171769   9.081   4.230  11.575 -0.3743  2.8209 -1.4030
21637SOL    HW271770   9.201   4.313  11.616  1.3657 -0.3210  0.2610
21638SOL     OW71771   6.944   8.282   1.751 -0.1629  0.4867  0.0098
21638SOL    HW171772   6.871   8.341   1.736 -0.6144  0.2415  1.1425
21638SOL    HW271773   7.014   8.338   1.787 -0.3898  0.4478  0.5274
21639SOL     OW71774   8.911  11.221   7.807  0.0355 -0.1427 -0.3776
21639SOL    HW171775   8.981  11.199   7.745 -0.4105 -0.4886 -0.7655
21639SOL    HW271776   8.946  11.295   7.857  1.3570 -1.3617  0.5907
21640SOL     OW71777  12.231   4.780  10.698  0.1474  0.3429  0.1604
21640SOL    HW171778  12.143   4.818  10.701 -1.0992 -2.0942 -1.6732
21640SOL    HW271779  12.266   4.806  10.613  0.1154 -0.7818 -0.2188
21641SOL     OW71780  10.569   3.998   9.813  0.2258 -0.2664  0.1189
21641SOL    HW171781  10.637   4.022   9.750  0.4932  1.1232  0.9076
21641SOL    HW271782  10.550   3.906   9.793  0.3072  0.1121 -1.9608
21642SOL     OW71783   6.880   1.775   2.399  0.2799  0.3162 -0.2073
21642SOL    HW171784   6.905   1.755   2.309  2.0235  0.4551  0.2188
21642SOL    HW271785   6.827   1.701   2.426 -0.9166  0.6226 -1.5718
21643SOL     OW71786   9.977  10.405   8.638 -0.0654  0.3037  0.1091
21643SOL    HW171787  10.070  10.422   8.652  0.0413 -0.8100  0.9219
21643SOL    HW271788   9.974  10.349   8.561 -0.1889  1.5272 -0.7945
21644SOL     OW71789   9.951   9.242   3.245  0.0945 -0.7436  0.3662
21644SOL    HW171790   9.959   9.337   3.246  0.7369 -0.7504 -1.4503
21644SOL    HW271791  10.037   9.210   3.273  0.3576 -0.7687 -0.4347
21645SOL     OW71792   3.088  10.728   6.705 -0.5155 -0.4893 -0.0613
21645SOL    HW171793   3.089  10.689   6.793  1.5351  0.6917  0.5281
21645SOL    HW271794   3.180  10.731   6.679 -1.0390 -0.3368 -2.0613
21646SOL     OW71795   4.647   2.071   7.168  0.3165  0.1022  0.0589
21646SOL    HW171796   4.675   2.077   7.077 -2.5787 -1.6448 -1.0726
21646SOL    HW271797   4.595   2.150   7.182 -0.9591 -0.6087 -0.5217
21647SOL     OW71798   1.143  11.188   1.172 -0.0189 -0.4235 -0.1236
21647SOL    HW171799   1.058  11.224   1.148 -0.5422 -1.7406 -0.3224
21647SOL    HW271800   1.206  11.251   1.136 -0.8870  0.3631 -0.3180
21648SOL     OW71801   4.188   7.751   6.322  0.2601 -0.0583  0.1228
21648SOL    HW171802   4.184   7.829   6.376  0.2093 -2.1656  3.4661
21648SOL    HW271803   4.098   7.737   6.292 -0.4285 -0.5585  2.2873
21649SOL     OW71804   3.077   1.646   4.399 -0.2637  0.3541  0.2937
21649SOL    HW171805   3.051   1.646   4.307 -1.5984  1.8607  0.6328
21649SOL    HW271806   3.145   1.579   4.405 -2.0428 -1.7193 -1.2391
21650SOL     OW71807   0.251   6.750   0.164  0.0665  0.4400 -0.0599
21650SOL    HW171808   0.187   6.719   0.228  0.7574 -2.7853 -0.7429
21650SOL    HW271809   0.336   6.730   0.204  0.5310  0.3498 -1.0704
21651SOL     OW71810   1.553   3.195  12.552 -0.4411 -0.7076  0.4514
21651SOL    HW171811   1.543   3.269  12.492 -1.7991  0.1087  1.6143
21651SOL    HW271812   1.467   3.152  12.552 -0.9528  0.1705  2.8440
21652SOL     OW71813   2.228   5.422   3.632 -0.1058  0.1306  0.2760
21652SOL    HW171814   2.313   5.379   3.642  0.6948  1.5146 -0.2367
21652SOL    HW271815   2.241   5.484   3.561 -1.4291  0.6956  0.4932
21653SOL     OW71816   0.595   8.587   7.264  0.0100  0.7344 -0.0073
21653SOL    HW171817   0.632   8.524   7.326 -0.5664  1.3298  0.9783
21653SOL    HW271818   0.509   8.552   7.243  0.8380 -0.3114 -1.7811
21654SOL     OW71819   6.441   6.147  11.779  0.6517 -0.2887 -0.0491
21654SOL    HW171820   6.499   6.098  11.720 -0.8248  0.2271 -2.0216
21654SOL    HW271821   6.498   6.214  11.818  1.5058 -0.0021 -1.6740
21655SOL     OW71822   7.053  12.333   4.693 -0.3490  0.1052  0.2796
21655SOL    HW171823   7.109  12.320   4.770  0.7512  0.3116 -0.4614
21655SOL    HW271824   6.979  12.273   4.706  0.4393 -0.7477  0.9169
21656SOL     OW71825   9.314   2.554   1.022 -0.2170 -0.0007 -0.2427
21656SOL    HW171826   9.249   2.620   0.998  0.8348  1.4022  0.6308
21656SOL    HW271827   9.369   2.545   0.945  0.5097  1.2494  0.1034
21657SOL     OW71828   7.283   0.778   0.637 -0.0380 -0.0388  0.6576
21657SOL    HW171829   7.256   0.866   0.664 -1.0108 -0.0044 -0.3389
21657SOL    HW271830   7.301   0.733   0.719 -0.9693  0.6529  1.2737
21658SOL     OW71831   3.557  11.488  11.016  0.3236  0.1824 -0.3359
21658SOL    HW171832   3.526  11.519  10.931  0.4935 -1.3141 -0.9751
21658SOL    HW271833   3.637  11.440  10.996  0.7412  0.4038  0.7691
21659SOL     OW71834   0.122   2.292   3.146 -0.4702  0.4219  0.2879
21659SOL    HW171835   0.045   2.336   3.181 -2.6612 -1.5521 -1.6251
21659SOL    HW271836   0.087   2.238   3.075  2.5817 -1.2840 -0.0644
21660SOL     OW71837   8.073  10.952   4.747  0.5018  0.2556  1.0678
21660SOL    HW171838   8.153  11.003   4.760  0.1504  1.5593 -1.3447
21660SOL    HW271839   8.104  10.862   4.733  1.6568  0.8759 -0.6509
21661SOL     OW71840   3.079   5.047   9.991  0.5774 -0.1675  0.1187
21661SOL    HW171841   3.069   4.953  10.006  0.2397  0.1352  2.0736
21661SOL    HW271842   3.141   5.054   9.918 -0.1258 -1.8928 -0.7005
21662SOL     OW71843   3.552   7.857   5.865 -0.4390  0.7698 -0.1121
21662SOL    HW171844   3.626   7.915   5.882 -0.2937  0.8563 -1.0261
21662SOL    HW271845   3.533   7.868   5.772  1.2755 -2.5313 -1.0098
21663SOL     OW71846   3.956   0.501  10.552  0.2360 -0.1569 -0.0631
21663SOL    HW171847   3.967   0.500  10.648  0.6166 -1.1602 -0.1086
21663SOL    HW271848   3.988   0.588  10.526 -1.5866  0.8547  0.8973
21664SOL     OW71849   4.887   6.786   4.404 -0.3053  0.1928 -0.1734
21664SOL    HW171850   4.887   6.690   4.400  0.3285  0.2248 -1.7857
21664SOL    HW271851   4.976   6.811   4.379 -0.7284  1.2208 -0.7233
21665SOL     OW71852   3.247   8.374   6.605  0.6134 -0.4562 -0.5009
21665SOL    HW171853   3.286   8.381   6.692 -0.3693  0.1846 -0.0934
21665SOL    HW271854   3.222   8.464   6.583  0.0852 -0.7397 -1.0813
21666SOL     OW71855   2.081  10.752   0.568 -0.0756  0.5805  0.8241
21666SOL    HW171856   2.016  10.684   0.552 -0.2117  0.6921  0.9024
21666SOL    HW271857   2.165  10.706   0.567  0.1303  0.8170 -2.1507
21667SOL     OW71858   8.608   7.132   7.020 -0.0188  0.0264 -0.0708
21667SOL    HW171859   8.560   7.061   7.062  0.9813 -0.6947 -0.1173
21667SOL    HW271860   8.699   7.103   7.019  0.2962  0.9649 -0.8051
21668SOL     OW71861   1.548   6.514   0.426  0.5372 -0.5345  0.1105
21668SOL    HW171862   1.579   6.425   0.406  0.0816 -0.7650  0.4201
21668SOL    HW271863   1.560   6.522   0.521 -1.1697 -0.9589  0.3893
21669SOL     OW71864   6.102  10.503   5.350 -0.1551  0.4151 -0.4580
21669SOL    HW171865   6.059  10.433   5.398 -2.0279  0.6045 -1.7400
21669SOL    HW271866   6.088  10.581   5.404  1.5160 -0.0545  0.7314
21670SOL     OW71867   5.093  10.112   8.477 -0.1993  0.1150 -0.0076
21670SOL    HW171868   5.183  10.085   8.495  0.4133  0.9457 -1.6242
21670SOL    HW271869   5.041  10.032   8.488  0.8919 -0.6378 -0.1776
21671SOL     OW71870   2.568  12.012   5.048  0.3520 -0.2166 -0.1512
21671SOL    HW171871   2.655  12.042   5.023  0.1667 -1.5980 -2.7683
21671SOL    HW271872   2.509  12.079   5.015  0.2748 -0.6701 -0.9535
21672SOL     OW71873   5.097   6.653  12.571  0.1832  0.3050  0.0710
21672SOL    HW171874   5.104   6.714  12.644  1.1906  0.8611 -0.4621
21672SOL    HW271875   5.031   6.590  12.598 -1.1870  1.8492  0.4937
21673SOL     OW71876   8.314   6.399  11.243 -0.2753  0.1010  0.0898
21673SOL    HW171877   8.265   6.433  11.318  1.7339 -0.8437  1.9067
21673SOL    HW271878   8.391   6.454  11.237 -0.6440  0.4980 -1.6805
21674SOL     OW71879   6.506   8.844  12.298  0.0943  0.8259  0.4674
21674SOL    HW171880   6.573   8.856  12.365 -0.3770  1.9096  0.7759
21674SOL    HW271881   6.530   8.763  12.253  1.2929  0.9114  0.9243
21675SOL     OW71882   5.506  11.284   7.645 -0.2797  0.4191 -0.6807
21675SOL    HW171883   5.594  11.305   7.613 -0.4043  1.3561 -0.4571
21675SOL    HW271884   5.516  11.277   7.740 -0.5363  1.0818 -0.5979
21676SOL     OW71885   4.187   5.883   1.984 -0.2892  0.4065  0.1902
21676SOL    HW171886   4.183   5.809   1.923 -0.9822  0.5842  0.0110
21676SOL    HW271887   4.097   5.917   1.987 -0.1048  0.8685  0.7322
21677SOL     OW71888   5.498   9.613  10.867  0.7939  0.0272 -0.3307
21677SOL    HW171889   5.517   9.630  10.959  1.1198  0.8449 -0.5388
21677SOL    HW271890   5.462   9.524  10.865  2.1370 -0.5627  0.4121
21678SOL     OW71891   9.567   2.299   2.912  0.4707 -0.9684  0.2332
21678SOL    HW171892   9.503   2.234   2.944  0.0010 -1.3471 -1.3767
21678SOL    HW271893   9.617   2.252   2.845 -0.5977  0.5625 -1.7784
21679SOL     OW71894   5.344  11.300   2.782 -0.3509 -0.2345  0.3222
21679SOL    HW171895   5.370  11.335   2.697 -0.5921  1.6440  0.9741
21679SOL    HW271896   5.418  11.246   2.810  0.0266 -0.2934 -0.7444
21680SOL     OW71897  12.373   5.021  12.175 -0.2588  0.7412 -0.1619
21680SOL    HW171898  12.345   5.112  12.188  1.1296  1.0357  1.0350
21680SOL    HW271899  12.379   4.985  12.263 -0.3180 -0.3730 -0.6012
21681SOL     OW71900   2.012  12.469  11.121  0.1614  0.3284 -0.4005
21681SOL    HW171901   2.072  12.401  11.090  0.8347  0.6465  0.1521
21681SOL    HW271902   1.925  12.433  11.108  0.4975 -0.4577 -0.5332
21682SOL     OW71903   8.455   0.226   6.932 -0.0314  0.0393  0.2757
21682SOL    HW171904   8.450   0.142   6.977  0.5354 -0.3991 -0.4545
21682SOL    HW271905   8.371   0.235   6.888  0.0003 -0.2734  0.1452
21683SOL     OW71906   0.268   7.255   5.608 -0.0029  0.1629 -0.6631
21683SOL    HW171907   0.192   7.301   5.572 -0.6590 -1.6032 -1.6461
21683SOL    HW271908   0.324   7.239   5.532 -0.0986 -1.1800 -0.4764
21684SOL     OW71909   3.837   7.581  11.765  0.1007  0.1055  0.3294
21684SOL    HW171910   3.811   7.549  11.852  2.0238  0.5959  1.1472
21684SOL    HW271911   3.820   7.507  11.706  0.3278 -0.8502  1.4269
21685SOL     OW71912   2.180   0.328   3.394 -0.8518 -0.3341  0.4171
21685SOL    HW171913   2.220   0.243   3.413  1.7200  0.1705 -2.0292
21685SOL    HW271914   2.112   0.308   3.330 -0.3958 -0.6036  0.0074
21686SOL     OW71915   0.523   1.443   2.056 -0.2808 -0.3949  0.2443
21686SOL    HW171916   0.589   1.444   2.125  1.8319 -0.9993 -1.6476
21686SOL    HW271917   0.546   1.516   1.999  0.7452 -2.3844 -2.0881
21687SOL     OW71918   2.033   6.237  10.417 -0.5804  0.0817 -0.4776
21687SOL    HW171919   2.070   6.149  10.422  0.4566  0.5016 -0.4198
21687SOL    HW271920   1.987   6.238  10.333  1.2516  0.1348 -1.5481
21688SOL     OW71921   8.299   1.694   1.137  0.6718 -1.0202 -0.2678
21688SOL    HW171922   8.224   1.656   1.092 -0.2165 -0.3779  0.6540
21688SOL    HW271923   8.266   1.774   1.178  1.8893 -0.6334  0.0239
21689SOL     OW71924   6.520   4.741   0.276 -0.2281  0.1297  0.5991
21689SOL    HW171925   6.483   4.694   0.350  1.0030 -0.8971  0.6065
21689SOL    HW271926   6.611   4.711   0.272 -0.3090 -0.0231 -1.4533
21690SOL     OW71927   6.419   9.148  11.420  0.4556  0.7649  0.1389
21690SOL    HW171928   6.431   9.147  11.514 -1.4548  0.3854  0.4169
21690SOL    HW271929   6.325   9.160  11.407  0.5117 -0.2613 -1.6924
21691SOL     OW71930   4.175   5.557   1.562 -0.0661 -0.9120  0.1362
21691SOL    HW171931   4.165   5.646   1.529  2.7893 -0.7296 -0.4424
21691SOL    HW271932   4.134   5.502   1.495  1.1485 -0.2133 -1.2303
21692SOL     OW71933   3.062   3.337   2.287 -0.1866 -0.6176  0.5196
21692SOL    HW171934   2.986   3.394   2.274 -1.0527 -1.7878  0.2611
21692SOL    HW271935   3.055   3.309   2.379  0.1232 -0.4551  0.5919
21693SOL     OW71936   3.365   5.746  12.331 -0.5512  0.0203 -0.8495
21693SOL    HW171937   3.421   5.820  12.354 -0.9594  0.1956 -0.3947
21693SOL    HW271938   3.296   5.783  12.278 -0.5275 -0.1064 -0.9698
21694SOL     OW71939  10.845   1.955  11.265 -0.0561 -0.5046  0.6628
21694SOL    HW171940  10.750   1.952  11.252 -0.0448 -0.2242  0.5064
21694SOL    HW271941  10.880   1.900  11.195 -0.1129 -0.7511  0.8276
21695SOL     OW71942  11.012   2.892   8.508  0.0591  0.2347 -0.7095
21695SOL    HW171943  11.095   2.847   8.520 -0.4056 -0.9792 -1.7631
21695SOL    HW271944  11.034   2.985   8.506  0.9697  0.1494  2.1528
21696SOL     OW71945   1.302   9.631   2.532 -0.3965  0.6538 -0.3226
21696SOL    HW171946   1.241   9.609   2.462 -0.1093  0.7512 -0.6056
21696SOL    HW271947   1.388   9.631   2.490  0.0790 -1.6999  0.5152
21697SOL     OW71948   6.425   2.448   6.638 -0.4359 -0.5345  0.3105
21697SOL    HW171949   6.351   2.409   6.683 -0.5080  1.3880  1.9984
21697SOL    HW271950   6.502   2.413   6.682 -0.3805 -1.0279 -0.1605
21698SOL     OW71951   7.979   2.867   6.058 -0.0791 -0.2432 -0.7376
21698SOL    HW171952   8.037   2.835   6.127 -0.4459 -0.4816 -0.5388
21698SOL    HW271953   7.935   2.943   6.096  0.5044  0.2789 -1.0774
21699SOL     OW71954   9.636   3.128   7.218  0.4769  0.2423  0.2578
21699SOL    HW171955   9.710   3.180   7.248 -0.1804  0.5438  1.4353
21699SOL    HW271956   9.627   3.058   7.283 -0.7231  0.6570  0.5666
21700SOL     OW71957   4.053   6.391   0.366 -0.0658  0.3342  0.6395
21700SOL    HW171958   4.084   6.349   0.285 -3.8708 -2.4661  0.3386
21700SOL    HW271959   4.029   6.480   0.339  0.0940 -0.0806 -1.0007
21701SOL     OW71960   1.862   1.990   1.756 -0.0504 -0.5334  0.0249
21701SOL    HW171961   1.778   1.945   1.754  0.6465 -1.8831  0.1163
21701SOL    HW271962   1.899   1.970   1.842  0.4622 -0.1253 -0.0905
21702SOL     OW71963   8.185   5.921   1.156  0.7540  0.4323 -0.6211
21702SOL    HW171964   8.110   5.979   1.170  1.0055  0.3989  1.0769
21702SOL    HW271965   8.174   5.851   1.220  3.2490  1.5014  1.1643
21703SOL     OW71966  10.251   9.509   5.547  0.2428 -0.2351  0.0905
21703SOL    HW171967  10.203   9.447   5.491 -0.5723 -1.1321  1.7242
21703SOL    HW271968  10.341   9.504   5.515 -0.3268 -0.0925 -1.6785
21704SOL     OW71969   7.941   0.641   5.643 -0.2906 -0.3503 -0.7164
21704SOL    HW171970   7.911   0.676   5.559 -1.0682 -0.2069 -0.3908
21704SOL    HW271971   7.925   0.547   5.637 -1.6592 -0.1732 -0.2256
21705SOL     OW71972   2.759   7.577   3.244  0.0111 -0.1588 -0.1251
21705SOL    HW171973   2.831   7.605   3.300 -0.8321  1.5627  0.1836
21705SOL    HW271974   2.781   7.487   3.219  1.0183 -0.5732  1.9733
21706SOL     OW71975   4.581  12.572   6.418 -0.6083 -0.0523 -0.0113
21706SOL    HW171976   4.576  12.530   6.503  0.3279 -0.0244  0.0597
21706SOL    HW271977   4.493  12.607   6.404 -1.3550 -1.8142  0.0265
21707SOL     OW71978   9.144   3.341   3.218 -0.2142  0.1327 -0.7564
21707SOL    HW171979   9.068   3.333   3.160 -0.2946 -0.7297 -0.5401
21707SOL    HW271980   9.149   3.257   3.263  1.0302  0.0781 -0.9609
21708SOL     OW71981   5.215   4.408   5.630  0.3133 -0.2114 -0.1674
21708SOL    HW171982   5.276   4.451   5.569  1.4223  0.4802  1.3678
21708SOL    HW271983   5.271   4.368   5.696 -0.8711 -0.4687  0.7166
21709SOL     OW71984   5.318   8.507   9.759  0.4127  0.5692  0.2661
21709SOL    HW171985   5.379   8.526   9.688  0.4513  1.4512  0.5193
21709SOL    HW271986   5.366   8.531   9.839 -0.6066  2.3433  0.4079
21710SOL     OW71987   7.709  10.844   5.510 -0.1917  0.3697 -0.3115
21710SOL    HW171988   7.675  10.833   5.422 -0.1861  2.2763 -0.5904
21710SOL    HW271989   7.638  10.815   5.567 -0.6173  0.1850 -0.9295
21711SOL     OW71990   9.341   1.283   7.826  0.2545 -0.0558 -0.2862
21711SOL    HW171991   9.263   1.305   7.878  0.8367  0.7532  0.2732
21711SOL    HW271992   9.345   1.350   7.759  1.1618  0.6753  0.4661
21712SOL     OW71993  11.822   5.925   5.546  0.1104 -0.3113  0.5050
21712SOL    HW171994  11.865   5.859   5.602 -0.5538  0.1086  1.5388
21712SOL    HW271995  11.744   5.880   5.514 -0.1990 -0.1283  0.9893
21713SOL     OW71996   4.714   3.319   8.472 -0.5741  0.2549  0.4881
21713SOL    HW171997   4.727   3.396   8.416  2.0554 -0.5002 -0.0969
21713SOL    HW271998   4.688   3.354   8.557 -0.3761  1.7229 -0.0327
21714SOL     OW71999  10.170   9.421  11.338  0.3546  0.4053  0.6798
21714SOL    HW172000  10.111   9.408  11.412 -1.8862 -0.1538 -1.0700
21714SOL    HW272001  10.152   9.511  11.309  1.6583  0.8348  1.1232
21715SOL     OW72002   9.527  11.843   3.217  0.2502  0.3398  0.0217
21715SOL    HW172003   9.440  11.881   3.225  1.2067  2.5175  0.9077
21715SOL    HW272004   9.571  11.896   3.151  1.1138 -0.2791  0.0835
21716SOL     OW72005   2.460   6.273   2.913  0.3836 -0.0724 -0.1909
21716SOL    HW172006   2.407   6.234   2.982 -1.1228  2.5689  0.2569
21716SOL    HW272007   2.406   6.344   2.878  1.8456 -0.1216 -2.8502
21717SOL     OW72008  10.302   9.993   4.371 -0.2373 -0.2187 -0.1986
21717SOL    HW172009  10.271   9.999   4.281 -0.0073  0.0117 -0.2633
21717SOL    HW272010  10.226   9.961   4.421 -0.9898  1.5798 -0.1309
21718SOL     OW72011  11.478   4.660   5.216 -0.1528  0.2461  0.0523
21718SOL    HW172012  11.414   4.623   5.277  0.0839  1.1913  0.8953
21718SOL    HW272013  11.426   4.687   5.140 -0.3114 -1.9514 -0.6996
21719SOL     OW72014  11.849   5.154  11.364 -0.3103  0.4050 -0.0889
21719SOL    HW172015  11.872   5.074  11.411  0.1929  1.3376  1.3282
21719SOL    HW272016  11.927   5.175  11.313 -0.5161 -0.1031 -0.6233
21720SOL     OW72017   3.246   7.507   3.994 -0.7297  0.0868  0.4375
21720SOL    HW172018   3.280   7.597   3.992  1.4989 -0.6829  0.4670
21720SOL    HW272019   3.249   7.479   3.903 -0.2368 -0.3338  0.5756
21721SOL     OW72020   3.785   8.815   0.587 -0.1662  0.9137  0.3668
21721SOL    HW172021   3.745   8.733   0.558 -1.8277  1.2924  1.4306
21721SOL    HW272022   3.878   8.794   0.598 -0.5521 -0.8264  0.6099
21722SOL     OW72023   6.973   9.931   3.301 -0.7182 -0.0133  0.0037
21722SOL    HW172024   7.009  10.016   3.326 -3.1645  1.5289 -1.2587
21722SOL    HW272025   6.962   9.937   3.206 -0.6653 -1.8775 -0.1514
21723SOL     OW72026   7.908   3.263  11.639 -0.4457  0.3981  0.4846
21723SOL    HW172027   7.823   3.220  11.631 -0.4107  0.1296  1.3822
21723SOL    HW272028   7.964   3.197  11.681 -0.3038  1.2032  1.6017
21724SOL     OW72029   9.541  10.253   6.949 -0.3635  0.0563 -0.0470
21724SOL    HW172030   9.549  10.325   6.887  2.5779 -0.1712 -0.0605
21724SOL    HW272031   9.589  10.181   6.909  0.7589 -0.4182  1.9977
21725SOL     OW72032   2.272   4.205   2.396  0.1752  0.6443  0.4566
21725SOL    HW172033   2.288   4.264   2.470  0.7367 -0.5539  1.3312
21725SOL    HW272034   2.193   4.157   2.421 -0.3837  1.1416 -0.3326
21726SOL     OW72035   1.478   6.091   7.274  0.0850  0.0397 -0.4120
21726SOL    HW172036   1.450   6.150   7.344  1.3114  0.8118 -0.5449
21726SOL    HW272037   1.431   6.122   7.196  0.9786  1.1108 -0.5602
21727SOL     OW72038   8.119   5.008   9.884  0.0354 -0.1572 -0.6321
21727SOL    HW172039   8.115   5.051   9.970  1.8711  0.3551 -0.7548
21727SOL    HW272040   8.044   4.948   9.884 -0.2413  0.1168  1.1715
21728SOL     OW72041  10.449   8.026   8.971 -0.4618  0.7262 -0.1997
21728SOL    HW172042  10.429   7.932   8.967 -0.5418  0.6348  1.4970
21728SOL    HW272043  10.433   8.058   8.883 -1.8309 -0.5910 -0.4652
21729SOL     OW72044   8.296   7.280   7.271  0.1217  0.3958  0.5407
21729SOL    HW172045   8.262   7.198   7.236  1.3914  0.5809 -1.2666
21729SOL    HW272046   8.238   7.347   7.235 -1.8053  0.3156  3.1522
21730SOL     OW72047   2.447   5.863   4.250  0.4571  0.3052  0.6540
21730SOL    HW172048   2.503   5.924   4.202 -0.4978  1.3838  0.8771
21730SOL    HW272049   2.440   5.901   4.338 -2.0028  1.1756  0.1650
21731SOL     OW72050  11.453   1.320   5.630  0.2143  0.5409  0.0004
21731SOL    HW172051  11.444   1.395   5.689  0.4454  0.5917 -0.0309
21731SOL    HW272052  11.471   1.246   5.688  0.1363  0.5354  0.0183
21732SOL     OW72053  12.535   6.910   8.432 -0.7699 -0.5356  0.1315
21732SOL    HW172054  12.615   6.958   8.411 -0.5004  0.0021  2.1370
21732SOL    HW272055  12.513   6.862   8.352  1.3529 -0.4195 -0.5762
21733SOL     OW72056   4.451   0.779   6.889 -0.0101  0.4576 -0.4331
21733SOL    HW172057   4.379   0.841   6.897  1.8942  2.6643  1.1694
21733SOL    HW272058   4.521   0.816   6.944  1.1305 -3.3970  1.0636
21734SOL     OW72059   6.107   3.939   9.638 -0.2683  0.7124 -0.5749
21734SOL    HW172060   6.056   4.017   9.616  0.1257  0.5053 -2.3993
21734SOL    HW272061   6.198   3.970   9.641 -0.0959  0.3413 -1.4352
21735SOL     OW72062   9.086   9.026   4.897  0.1786 -0.0226 -0.5329
21735SOL    HW172063   9.078   8.932   4.912  0.9864 -0.2359 -1.3211
21735SOL    HW272064   8.996   9.056   4.880 -0.3504 -0.2830  1.5495
21736SOL     OW72065   1.448   8.920  12.230  0.3498  0.5437  0.5162
21736SOL    HW172066   1.373   8.969  12.197  1.2466  2.0892  0.6686
21736SOL    HW272067   1.465   8.853  12.163 -0.1321  1.2554 -0.3313
21737SOL     OW72068   9.396   0.226   0.372  0.6422 -0.6102  0.4952
21737SOL    HW172069   9.422   0.159   0.309 -0.2717 -0.9783  0.4913
21737SOL    HW272070   9.468   0.230   0.434 -0.0199 -2.8382  1.4863
21738SOL     OW72071  11.442   3.081   9.587 -0.5210 -0.1193 -0.1132
21738SOL    HW172072  11.406   3.147   9.647 -0.6902  0.1741 -0.5301
21738SOL    HW272073  11.366   3.041   9.547 -0.3967  1.2257 -1.7744
21739SOL     OW72074   2.954  11.237   9.373  0.4691  0.5233 -0.8066
21739SOL    HW172075   2.977  11.177   9.302  1.3603 -2.5574  1.8446
21739SOL    HW272076   3.037  11.257   9.416  0.0022  2.6679 -0.7543
21740SOL     OW72077   6.265   1.831   3.513 -0.2788 -0.3255  0.2190
21740SOL    HW172078   6.361   1.832   3.514 -0.2392 -1.6698 -0.4206
21740SOL    HW272079   6.241   1.893   3.444  0.1859 -1.0445 -0.6094
21741SOL     OW72080  12.211   9.250   0.967  0.2443 -0.1751  0.2734
21741SOL    HW172081  12.287   9.199   0.938 -1.9552 -3.4686 -0.2362
21741SOL    HW272082  12.152   9.251   0.892  0.1328  3.4144  0.2302
21742SOL     OW72083   2.702  10.422   4.990 -0.2733 -0.4746  0.1225
21742SOL    HW172084   2.792  10.455   4.995 -0.2786 -0.3495 -0.4744
21742SOL    HW272085   2.693  10.364   5.065  1.6757 -3.8228 -1.9491
21743SOL     OW72086   6.766  11.786  10.769 -0.3420 -0.2216  0.2068
21743SOL    HW172087   6.769  11.779  10.673 -0.4505 -0.1779  0.1997
21743SOL    HW272088   6.857  11.797  10.795 -0.3664  0.3934  0.0606
21744SOL     OW72089   5.948   9.586   6.899 -0.4969  0.2283 -0.2549
21744SOL    HW172090   5.925   9.493   6.900  1.6647 -0.3974  2.2636
21744SOL    HW272091   5.919   9.619   6.983 -0.4610  1.6683 -0.7835
21745SOL     OW72092   6.370   3.004   6.580 -0.4869  0.2668 -0.1871
21745SOL    HW172093   6.344   3.051   6.659 -2.1377  0.4315 -0.8019
21745SOL    HW272094   6.373   2.912   6.607 -1.3109  0.2909  0.0242
21746SOL     OW72095   1.344   8.894   8.262 -0.1979  0.0838 -0.3409
21746SOL    HW172096   1.435   8.870   8.244 -0.6555 -2.8927  0.7843
21746SOL    HW272097   1.293   8.846   8.196 -1.1273 -1.4410  1.4105
21747SOL     OW72098   7.972  12.321   9.164  0.4855  0.2030  0.1020
21747SOL    HW172099   8.043  12.275   9.210 -0.6003 -1.3209  0.3370
21747SOL    HW272100   7.910  12.252   9.140 -1.0721  1.5149  0.1603
21748SOL     OW72101   3.464   2.150   5.998  0.4591 -0.5680 -0.2341
21748SOL    HW172102   3.413   2.113   5.925 -0.9097  0.0511  0.3774
21748SOL    HW272103   3.478   2.077   6.057 -2.4845 -0.1968  1.1119
21749SOL     OW72104  12.467   6.955   0.860  0.0511  0.4995  0.0024
21749SOL    HW172105  12.423   6.950   0.774  0.0617 -1.6314  0.0686
21749SOL    HW272106  12.408   7.009   0.913 -2.1549 -1.5883 -0.1586
21750SOL     OW72107   6.195   2.856   4.734 -0.5965  0.3366 -0.0168
21750SOL    HW172108   6.210   2.948   4.755  0.4863  0.6153 -1.7941
21750SOL    HW272109   6.277   2.812   4.756 -0.6419  0.0461 -0.4005
21751SOL     OW72110   0.404   5.969   5.618 -0.0915 -0.0466 -0.1790
21751SOL    HW172111   0.487   6.016   5.618  0.2780 -0.5866 -2.4379
21751SOL    HW272112   0.363   5.991   5.534 -1.4888 -1.0569  0.1908
21752SOL     OW72113   2.002   4.135   2.489 -0.2902  0.1556 -0.0503
21752SOL    HW172114   2.039   4.132   2.577 -1.4109 -2.4068  0.4112
21752SOL    HW272115   1.943   4.211   2.490  0.5898  0.8534  0.9889
21753SOL     OW72116  12.250   8.897   3.576 -0.3130  0.2899 -0.1255
21753SOL    HW172117  12.273   8.838   3.504  0.2504  1.1824 -0.6926
21753SOL    HW272118  12.257   8.843   3.655  2.8431  0.2329 -0.3303
21754SOL     OW72119   3.706   1.440   3.098  0.3660 -0.2640 -0.4235
21754SOL    HW172120   3.616   1.447   3.068  0.9446  0.1643 -2.1402
21754SOL    HW272121   3.739   1.530   3.097  0.6179 -0.3181  0.9036
21755SOL     OW72122   6.712   5.966  10.166  0.5155 -0.0540 -0.1728
21755SOL    HW172123   6.626   5.995  10.196  0.6653 -0.4982  0.7004
21755SOL    HW272124   6.730   6.020  10.089 -1.8826 -2.0236 -2.3001
21756SOL     OW72125   0.774   7.155   5.437  0.2591 -0.2510  0.2479
21756SOL    HW172126   0.809   7.177   5.350  0.6634  1.3629  0.7842
21756SOL    HW272127   0.838   7.095   5.474  1.2403  0.7895  0.2769
21757SOL     OW72128   7.907   6.735  10.657 -0.2363 -0.0934 -0.0093
21757SOL    HW172129   7.931   6.645  10.639 -1.9477 -0.8871  1.3578
21757SOL    HW272130   7.865   6.732  10.743 -1.0480  1.8789 -0.2756
21758SOL     OW72131   2.391  10.910   8.019 -0.0400  0.2021 -0.5432
21758SOL    HW172132   2.295  10.919   8.013 -0.0921 -0.1235 -0.2391
21758SOL    HW272133   2.411  10.928   8.111  0.1111 -0.4184 -0.4493
21759SOL     OW72134   4.676   8.000   4.051 -0.6738 -0.0157  0.0854
21759SOL    HW172135   4.696   7.932   4.116 -2.8154 -3.5045 -2.5570
21759SOL    HW272136   4.755   8.007   3.998 -0.4551 -0.4939  0.3471
21760SOL     OW72137   7.636  10.816   8.624 -0.4461 -0.4844 -0.2954
21760SOL    HW172138   7.552  10.816   8.669 -0.6005  1.7488 -0.4797
21760SOL    HW272139   7.654  10.723   8.606 -3.0609 -0.9862 -0.6399
21761SOL     OW72140  10.553   4.434   9.692 -0.0697 -0.3078  0.3472
21761SOL    HW172141  10.588   4.523   9.703 -2.5242  0.6199  1.4028
21761SOL    HW272142  10.630   4.378   9.693  1.5217  1.7445  0.3909
21762SOL     OW72143  10.111   3.402   6.702  0.2611 -0.1398  0.3785
21762SOL    HW172144  10.060   3.323   6.720 -1.1552  0.9204  1.2035
21762SOL    HW272145  10.153   3.423   6.785  0.5657  0.0304  0.1829
21763SOL     OW72146  12.063   0.413  11.439  0.1475  0.2242  0.0517
21763SOL    HW172147  11.978   0.441  11.472 -0.4624  0.9770 -2.0008
21763SOL    HW272148  12.125   0.474  11.479 -0.0957 -0.8249  2.2088
21764SOL     OW72149   7.158   4.036   7.304 -0.3660  0.2389  0.0003
21764SOL    HW172150   7.183   3.960   7.252 -2.2254  0.3857 -1.1966
21764SOL    HW272151   7.136   4.001   7.390  0.3162 -0.3453 -0.0559
21765SOL     OW72152  10.325  10.284   9.721  0.1451  0.4173 -0.3476
21765SOL    HW172153  10.414  10.251   9.708  0.0527  0.0499 -0.0635
21765SOL    HW272154  10.329  10.376   9.693  0.9494  0.7962  0.9159
21766SOL     OW72155   0.943  11.533  11.259 -0.0434 -0.1007  0.3263
21766SOL    HW172156   0.925  11.494  11.173  0.3727 -0.7557  0.5286
21766SOL    HW272157   0.875  11.498  11.316 -0.8862  1.0631  0.0775
21767SOL     OW72158   0.470   9.522   6.953  0.5277  0.3887  0.3453
21767SOL    HW172159   0.375   9.539   6.955  0.0635 -1.7897 -0.1420
21767SOL    HW272160   0.509   9.608   6.939 -1.4750  1.1653 -1.0966
21768SOL     OW72161  11.688   8.704   0.453  0.5275  0.0414  0.1002
21768SOL    HW172162  11.672   8.651   0.531 -0.3895 -0.3475 -0.3370
21768SOL    HW272163  11.727   8.644   0.390  1.3586  0.3782  0.2799
21769SOL     OW72164   2.993   9.103   2.781 -0.3053 -0.1314  0.3137
21769SOL    HW172165   2.925   9.096   2.847 -0.5537 -0.1670  0.0579
21769SOL    HW272166   3.057   9.163   2.818  0.0638 -0.9343  1.0146
21770SOL     OW72167   6.387  11.609   7.253  0.0105 -0.1802  0.0878
21770SOL    HW172168   6.424  11.697   7.256  1.3432 -0.7469  1.2732
21770SOL    HW272169   6.443  11.557   7.310 -0.6312 -1.8584 -0.7359
21771SOL     OW72170   1.209   0.925   0.172  0.4443 -0.2039  0.2775
21771SOL    HW172171   1.173   0.961   0.253  1.4247 -0.1065  0.6943
21771SOL    HW272172   1.275   0.862   0.201  0.8470 -0.1272 -0.4316
21772SOL     OW72173   3.008   0.690   3.207 -0.6287 -0.3187  0.1684
21772SOL    HW172174   2.956   0.692   3.126 -1.1175 -1.1947  0.4480
21772SOL    HW272175   3.088   0.642   3.184  0.2730  1.3610 -0.3639
21773SOL     OW72176   5.751   4.455   9.586 -0.1638 -0.3160 -0.0293
21773SOL    HW172177   5.785   4.539   9.619 -0.5654 -0.6218  1.2522
21773SOL    HW272178   5.797   4.389   9.638  0.0033 -0.8928 -0.8956
21774SOL     OW72179   5.463  10.130  10.855 -0.0397  0.9219 -0.8751
21774SOL    HW172180   5.376  10.170  10.858  0.2372  1.4826  1.8057
21774SOL    HW272181   5.466  10.072  10.931  1.6121  0.1910 -1.4438
21775SOL     OW72182   6.205   9.187   0.029  0.3127  0.3492 -0.0293
21775SOL    HW172183   6.169   9.174   0.117 -1.5057 -2.2788 -1.0572
21775SOL    HW272184   6.146   9.250  -0.012  0.4786  0.6690  0.2109
21776SOL     OW72185   7.658   4.975  11.614 -0.6843  0.0566 -0.5996
21776SOL    HW172186   7.676   4.907  11.679 -1.7135 -1.2133 -1.5810
21776SOL    HW272187   7.609   5.042  11.662 -2.3601 -1.3479 -0.2732
21777SOL     OW72188  10.364   2.701   4.121  0.2972  0.3862  0.0971
21777SOL    HW172189  10.367   2.615   4.163 -0.2889 -0.1288 -0.8724
21777SOL    HW272190  10.328   2.759   4.188 -0.0646 -0.2954  0.5061
21778SOL     OW72191   8.111   4.545   7.137  0.2824 -0.1299 -0.8276
21778SOL    HW172192   8.029   4.593   7.133  1.1258  1.2763 -2.2843
21778SOL    HW272193   8.179   4.612   7.149  1.4465 -0.9100 -2.4619
21779SOL     OW72194   6.415  12.034   4.813  0.0819 -0.1333 -0.1326
21779SOL    HW172195   6.488  12.004   4.867  0.4402 -0.3344 -0.7254
21779SOL    HW272196   6.343  11.974   4.834  0.4416 -0.6753 -0.4265
21780SOL     OW72197   0.081   4.973   2.011  0.0224  0.0002 -0.1898
21780SOL    HW172198   0.018   5.045   2.014  0.2514  0.2526 -1.2452
21780SOL    HW272199   0.047   4.910   2.075 -1.0470  0.3464 -0.3913
21781SOL     OW72200  10.862  10.298  11.773 -0.2062 -0.0804 -0.3211
21781SOL    HW172201  10.773  10.277  11.746 -0.5027 -0.0802  0.6043
21781SOL    HW272202  10.891  10.365  11.711 -1.2129  0.6185 -0.0678
21782SOL     OW72203   0.266   6.981  11.427 -0.0155  0.0331  0.2999
21782SOL    HW172204   0.317   6.914  11.382 -0.1409 -0.2778  0.6062
21782SOL    HW272205   0.284   6.966  11.520 -0.4768  0.0673  0.3976
21783SOL     OW72206  11.494   4.633  10.622 -0.6024 -0.0964 -0.2141
21783SOL    HW172207  11.516   4.699  10.557 -0.4167 -2.0177 -2.2302
21783SOL    HW272208  11.574   4.582  10.633 -0.7826 -0.1234  1.1793
21784SOL     OW72209   5.875   1.948   6.641 -0.1314  0.1391 -0.3825
21784SOL    HW172210   5.792   1.956   6.595 -0.4664 -2.9523 -0.5132
21784SOL    HW272211   5.927   1.888   6.587  1.1630 -0.0788  1.0290
21785SOL     OW72212   0.412   7.223  11.145 -0.1659  0.5472 -0.6027
21785SOL    HW172213   0.384   7.216  11.237 -1.2400 -0.4216 -0.9741
21785SOL    HW272214   0.445   7.136  11.124 -0.7999  0.4926 -1.4015
21786SOL     OW72215  11.132   3.168   8.755  0.3038 -0.1899  0.1525
21786SOL    HW172216  11.056   3.113   8.768 -1.2691  1.9436  0.4931
21786SOL    HW272217  11.191   3.116   8.700 -1.3613 -1.9093 -0.0709
21787SOL     OW72218   1.402   2.112   0.884 -0.3494 -0.4069  0.1911
21787SOL    HW172219   1.350   2.191   0.894 -1.2043 -0.9975  0.5344
21787SOL    HW272220   1.482   2.129   0.934 -0.3718  0.3547 -0.0191
21788SOL     OW72221   4.844   5.221   6.465  0.0016  0.1334 -0.5995
21788SOL    HW172222   4.830   5.126   6.456 -1.7146  0.5055 -2.8861
21788SOL    HW272223   4.881   5.232   6.552  0.9633 -2.7058 -0.5613
21789SOL     OW72224   9.094   9.097   6.525 -0.4451 -0.6910 -0.6412
21789SOL    HW172225   9.054   9.169   6.572 -0.1129  0.0666 -1.4837
21789SOL    HW272226   9.188   9.108   6.538 -0.3372 -0.3744 -1.5763
21790SOL     OW72227   2.899   7.991   9.983  0.2336 -0.3134  0.0945
21790SOL    HW172228   2.901   7.907   9.937 -0.3601 -0.1712 -0.2028
21790SOL    HW272229   2.821   8.035   9.949 -1.0829 -0.7974  2.2745
21791SOL     OW72230   1.228   4.224   2.443 -0.0859  0.5193  0.2721
21791SOL    HW172231   1.251   4.314   2.466 -0.1056  0.2157  1.5538
21791SOL    HW272232   1.310   4.176   2.450 -0.2484  0.2701  0.4895
21792SOL     OW72233   1.968   5.130   5.636 -0.2167 -0.2797 -0.4313
21792SOL    HW172234   1.992   5.194   5.568 -1.9553  1.2295  0.3103
21792SOL    HW272235   2.011   5.049   5.607  1.0550  0.8813 -2.0614
21793SOL     OW72236   6.886   3.935  10.024 -0.5715 -0.0703  0.1755
21793SOL    HW172237   6.974   3.948  10.057 -0.4500  2.3394 -0.9165
21793SOL    HW272238   6.836   4.009  10.060 -1.8827 -0.7868 -0.1245
21794SOL     OW72239   8.180   4.269   4.380 -0.0931 -0.5379  0.3373
21794SOL    HW172240   8.109   4.208   4.398  0.7742 -1.1125  1.9979
21794SOL    HW272241   8.170   4.338   4.446  0.3890 -0.1783  0.0429
21795SOL     OW72242  11.526   9.541   7.436 -0.2037  0.4643 -0.3610
21795SOL    HW172243  11.464   9.594   7.384  1.0579  2.3110 -0.0949
21795SOL    HW272244  11.478   9.519   7.516 -1.6872 -1.1980 -1.6282
21796SOL     OW72245   2.172  11.969   3.367  0.0601  0.1705 -0.2443
21796SOL    HW172246   2.123  11.925   3.435  0.9905  0.1244  0.4163
21796SOL    HW272247   2.106  11.996   3.303 -0.4439 -3.2615 -1.3560
21797SOL     OW72248   9.473   0.014   2.873 -0.0907  0.0830 -0.1204
21797SOL    HW172249   9.558  -0.023   2.849  0.0651  0.3516  0.0241
21797SOL    HW272250   9.457  -0.019   2.961  0.0003  0.2757 -0.0318
21798SOL     OW72251   5.458   7.498  10.461 -0.0330 -0.5856  0.1014
21798SOL    HW172252   5.537   7.527  10.415  0.9452 -1.7724  0.9513
21798SOL    HW272253   5.464   7.402  10.459 -0.9952 -0.6695  0.9540
21799SOL     OW72254   3.573   3.627   9.354 -0.2101  0.2115  0.5373
21799SOL    HW172255   3.518   3.684   9.300 -1.0973 -0.2206  0.9637
21799SOL    HW272256   3.637   3.591   9.293 -0.1213  1.0545  0.1157
21800SOL     OW72257  11.115   5.736   5.178 -0.4195 -0.3656  0.1575
21800SOL    HW172258  11.101   5.705   5.089 -0.7781  1.1006 -0.3275
21800SOL    HW272259  11.027   5.743   5.215 -0.4445  1.0621 -0.1173
21801SOL     OW72260   5.779   6.656  10.207  0.0932  0.0140  0.0744
21801SOL    HW172261   5.726   6.625  10.134  0.8188 -1.2941  0.0851
21801SOL    HW272262   5.716   6.671  10.277 -0.2111 -2.4439  0.4072
21802SOL     OW72263   1.842   2.426  10.079  0.5494 -0.0008 -0.4950
21802SOL    HW172264   1.807   2.343  10.113  0.7519  0.6001  1.2721
21802SOL    HW272265   1.845   2.413   9.984 -1.7710 -1.1066 -0.4912
21803SOL     OW72266   1.589   8.683   7.159 -0.1620  0.1839 -0.0164
21803SOL    HW172267   1.548   8.676   7.072 -1.1359 -0.7726  0.4976
21803SOL    HW272268   1.565   8.602   7.204 -1.1051  1.3640  1.7345
21804SOL     OW72269  11.214   3.698   0.078 -0.2510  0.2919  0.5307
21804SOL    HW172270  11.218   3.764   0.147 -1.1764  0.1989  0.6747
21804SOL    HW272271  11.137   3.720   0.026 -0.0468 -0.1362  0.0235
21805SOL     OW72272   9.498   2.354  11.375 -0.0906 -0.1748  0.5835
21805SOL    HW172273   9.427   2.401  11.331  0.2694 -0.5737 -0.4565
21805SOL    HW272274   9.527   2.289  11.311  1.6707  0.4466  0.7039
21806SOL     OW72275   7.048  10.049   0.368 -0.0841  0.6575  0.5441
21806SOL    HW172276   7.060   9.954   0.377  0.0188  0.4140 -1.5701
21806SOL    HW272277   7.137  10.083   0.361 -0.1132  0.3913 -2.4224
21807SOL     OW72278  11.679   2.109   2.888 -0.1625  0.7139  0.2146
21807SOL    HW172279  11.657   2.041   2.952 -1.8768 -0.1194 -1.1872
21807SOL    HW272280  11.629   2.186   2.916  0.7641  1.0432  1.0504
21808SOL     OW72281   5.666   3.794   5.184  0.1706 -0.4358 -0.4102
21808SOL    HW172282   5.688   3.707   5.152  2.4354  0.0446 -0.3606
21808SOL    HW272283   5.578   3.786   5.219  0.0620 -2.5205 -1.0658
21809SOL     OW72284   9.358   4.054   9.942  0.0358  0.0089 -0.2372
21809SOL    HW172285   9.342   4.145   9.918 -0.5336  0.2322  0.9316
21809SOL    HW272286   9.271   4.018   9.961  0.2740 -0.7114 -0.4509
21810SOL     OW72287   5.357  10.746   4.105  0.2926  0.3301  0.4751
21810SOL    HW172288   5.374  10.813   4.171 -2.0361  2.3439 -0.8224
21810SOL    HW272289   5.309  10.791   4.036  2.4226 -1.7005 -2.5832
21811SOL     OW72290  12.251   9.128   4.379  0.0492  0.3377 -0.6820
21811SOL    HW172291  12.254   9.203   4.319  0.1659  0.9942  0.1400
21811SOL    HW272292  12.330   9.136   4.432 -1.3241  1.2906  1.3648
21812SOL     OW72293  11.304   5.863   7.421 -0.0385  0.1961  0.6429
21812SOL    HW172294  11.359   5.787   7.405  0.3091  0.7183 -0.8480
21812SOL    HW272295  11.296   5.905   7.335 -2.1047  0.5855  0.9674
21813SOL     OW72296   6.244   6.977   0.663 -0.4765 -0.2011 -1.0221
21813SOL    HW172297   6.248   6.916   0.589 -0.1392 -0.8600 -0.4745
21813SOL    HW272298   6.332   7.012   0.671 -0.7467  0.6154 -1.5365
21814SOL     OW72299  12.152   3.160   7.967 -0.4426  0.5974 -0.3136
21814SOL    HW172300  12.166   3.243   8.013  2.3701 -1.2449  2.5967
21814SOL    HW272301  12.098   3.108   8.028 -0.3032 -0.4670 -1.0707
21815SOL     OW72302   7.035  10.454   5.466  1.0109 -0.0147  0.0016
21815SOL    HW172303   7.057  10.472   5.557 -0.7332 -1.3056  0.7395
21815SOL    HW272304   6.976  10.525   5.441  2.5364  1.1057 -0.6309
21816SOL     OW72305  11.757  12.470  11.675  0.1419 -0.2750  0.3462
21816SOL    HW172306  11.703  12.506  11.746 -0.6400  0.8333 -0.7590
21816SOL    HW272307  11.754  12.538  11.607 -1.3213 -2.3690 -1.8227
21817SOL     OW72308   6.160   4.989   5.865  0.9522  0.3143  0.3715
21817SOL    HW172309   6.208   5.063   5.903  0.4050  0.8040  0.1301
21817SOL    HW272310   6.215   4.913   5.883  2.2242  0.9594 -0.6129
21818SOL     OW72311   2.580   9.301   5.130 -0.5959  0.1180 -0.3630
21818SOL    HW172312   2.603   9.210   5.152  1.4864  0.7485  0.3089
21818SOL    HW272313   2.659   9.351   5.150 -1.6817  2.0939 -0.7728
21819SOL     OW72314   6.345   0.646   1.726 -0.4657  0.3938 -0.0406
21819SOL    HW172315   6.391   0.563   1.717 -2.7729 -1.0813  0.6208
21819SOL    HW272316   6.393   0.693   1.794 -0.0783 -1.1748  0.8217
21820SOL     OW72317   4.668   1.715   6.964 -0.2345 -0.6845 -0.3227
21820SOL    HW172318   4.714   1.677   6.890  0.3192 -0.7580  0.0542
21820SOL    HW272319   4.737   1.733   7.028 -0.7896 -1.2609  0.4504
21821SOL     OW72320  12.444   8.650   4.924 -0.5611 -0.6091  0.4408
21821SOL    HW172321  12.393   8.685   4.997  0.6727 -1.2678  1.6689
21821SOL    HW272322  12.458   8.558   4.946 -1.2126 -1.1600 -1.2606
21822SOL     OW72323   4.800  12.163   2.211 -0.3587 -0.4082 -0.2446
21822SOL    HW172324   4.824  12.125   2.296  0.6101 -0.5675 -0.5850
21822SOL    HW272325   4.882  12.194   2.174 -0.5628 -1.5114 -1.7148
21823SOL     OW72326   6.064   8.945   6.352 -0.1019  0.4798  0.4217
21823SOL    HW172327   6.021   8.898   6.424  1.4224 -0.6118  0.6721
21823SOL    HW272328   6.122   9.007   6.396 -1.1501  1.7680  0.0849
21824SOL     OW72329   2.060  10.889   1.326 -0.1938 -0.1652 -0.1020
21824SOL    HW172330   1.966  10.897   1.338 -0.4498 -2.1425 -0.6127
21824SOL    HW272331   2.091  10.850   1.408  0.5547  2.5200  0.9994
21825SOL     OW72332  11.259   3.693   3.576  0.7563  0.3179 -0.0267
21825SOL    HW172333  11.253   3.652   3.489 -0.2596  1.3026 -0.4422
21825SOL    HW272334  11.201   3.641   3.631  1.6829 -0.5325  0.1693
21826SOL     OW72335  11.352   7.293  10.365  0.2076  0.2874 -0.2238
21826SOL    HW172336  11.416   7.323  10.300  1.9640 -1.2325  0.7113
21826SOL    HW272337  11.314   7.373  10.401  0.9920  1.2077 -1.3783
21827SOL     OW72338   4.940   8.040   7.659 -0.1463  0.2727 -0.6577
21827SOL    HW172339   4.937   7.951   7.696  1.4422  0.3444 -0.2550
21827SOL    HW272340   4.927   8.027   7.566 -1.6823 -0.1882 -0.3976
21828SOL     OW72341   2.824   3.246  11.436 -0.0566  0.2791 -0.1411
21828SOL    HW172342   2.739   3.280  11.464  0.0160  0.5627 -0.2608
21828SOL    HW272343   2.805   3.193  11.359 -0.1700  0.0482  0.0433
21829SOL     OW72344   0.487   7.702   1.420 -0.4593 -0.4752  0.4429
21829SOL    HW172345   0.418   7.724   1.357 -0.9408 -0.8726  0.8309
21829SOL    HW272346   0.490   7.777   1.479 -0.7665 -0.5939  0.6081
21830SOL     OW72347   7.683   2.477   2.467 -0.2492 -0.3698 -0.2102
21830SOL    HW172348   7.687   2.390   2.506 -0.0989  0.1369  0.9508
21830SOL    HW272349   7.772   2.493   2.434 -0.3339 -0.7297 -0.6317
21831SOL     OW72350   2.980   2.103   2.780 -0.3367  0.6445 -0.2326
21831SOL    HW172351   2.922   2.048   2.728  0.6011  0.4776 -1.1360
21831SOL    HW272352   3.005   2.048   2.854  1.0220 -0.3833 -1.4062
21832SOL     OW72353   5.690   6.411  11.143  0.0921  0.7503  0.7204
21832SOL    HW172354   5.684   6.319  11.116  0.8344  0.9124 -0.0303
21832SOL    HW272355   5.732   6.408  11.229  2.3173  0.4824 -0.2975
21833SOL     OW72356  10.402   0.359  12.056  0.1144 -0.2433  0.2467
21833SOL    HW172357  10.357   0.278  12.030  1.9392 -1.0148 -0.7724
21833SOL    HW272358  10.345   0.429  12.026 -0.3603 -1.1753 -1.1335
21834SOL     OW72359   0.693   4.410   1.051  0.1294 -0.0160 -0.5604
21834SOL    HW172360   0.702   4.315   1.040  0.5581 -0.1328  0.6419
21834SOL    HW272361   0.598   4.424   1.058  0.1271 -0.5305  0.5971
21835SOL     OW72362   9.009   1.671   6.344 -0.1065 -0.7306 -0.1277
21835SOL    HW172363   9.025   1.737   6.411  1.5770 -1.3813  0.1835
21835SOL    HW272364   8.932   1.701   6.297 -0.3444  0.5854  1.0540
21836SOL     OW72365  11.583   5.586   6.903  0.1246  0.6126  0.7430
21836SOL    HW172366  11.636   5.535   6.841  0.1786 -1.5762  2.4491
21836SOL    HW272367  11.494   5.584   6.866 -0.1629 -1.9835  1.3736
21837SOL     OW72368   7.613  11.253   0.365  0.5357 -0.6706  0.1979
21837SOL    HW172369   7.613  11.201   0.445 -1.6233 -0.8793  0.1183
21837SOL    HW272370   7.659  11.198   0.301 -1.7699 -2.6413  0.0749
21838SOL     OW72371   5.181   5.949   9.535 -0.1959 -0.1067  0.4546
21838SOL    HW172372   5.127   5.930   9.611  0.3285  0.8331  1.0922
21838SOL    HW272373   5.267   5.914   9.558 -0.5662 -1.9055 -0.6936
21839SOL     OW72374   3.686   2.262   5.861 -0.0472  0.0087 -0.5076
21839SOL    HW172375   3.647   2.329   5.804 -0.3028 -0.3651 -0.7783
21839SOL    HW272376   3.610   2.218   5.901 -0.0111 -2.0231 -2.5140
21840SOL     OW72377   3.153   9.071   8.323 -0.1293  0.0679  0.1746
21840SOL    HW172378   3.160   9.148   8.266  2.8445 -1.2966 -1.5966
21840SOL    HW272379   3.164   9.106   8.412 -3.6436  2.1178 -0.0015
21841SOL     OW72380  11.140   0.391  11.011 -0.3390 -0.3016 -0.0374
21841SOL    HW172381  11.188   0.474  11.015  0.4993 -0.7967  0.3711
21841SOL    HW272382  11.048   0.417  11.016 -0.0643  0.5012  2.4383
21842SOL     OW72383  12.291   5.970  10.539  0.6778  0.2607 -0.1545
21842SOL    HW172384  12.221   5.905  10.523  2.2686 -2.0703  1.6862
21842SOL    HW272385  12.262   6.017  10.617  0.4638  0.3302 -0.2750
21843SOL     OW72386   8.005  10.034   3.455  0.6417  0.2451 -0.5947
21843SOL    HW172387   8.055  10.108   3.420  0.8991 -0.2124 -1.2081
21843SOL    HW272388   7.919  10.072   3.476  1.0039  0.8722 -0.2219
21844SOL     OW72389   0.758   8.455   2.474  0.6727  0.3376  0.0723
21844SOL    HW172390   0.729   8.371   2.438 -0.3874  1.3682 -1.5987
21844SOL    HW272391   0.840   8.435   2.520  0.1733 -1.6845  0.1623
21845SOL     OW72392   9.512   9.638   1.310 -0.3127 -0.3236  0.4675
21845SOL    HW172393   9.569   9.562   1.322 -0.5361 -0.2960  1.7764
21845SOL    HW272394   9.433   9.601   1.270  0.2418 -0.4960 -0.5210
21846SOL     OW72395   3.211   8.660  12.350  0.5492 -0.0464  0.3177
21846SOL    HW172396   3.286   8.653  12.291 -0.0442 -0.4625 -0.4066
21846SOL    HW272397   3.164   8.738  12.319  0.0554 -0.4559  0.0192
21847SOL     OW72398  11.104   5.790   6.870  0.3526  0.0777 -0.2502
21847SOL    HW172399  11.115   5.876   6.830  1.4045  0.1831  0.2266
21847SOL    HW272400  11.015   5.764   6.847 -0.0055  1.3201 -0.3359
21848SOL     OW72401   3.298   0.892   4.125  0.2613  0.0711 -0.4340
21848SOL    HW172402   3.381   0.853   4.097  1.7927 -0.6791  4.2910
21848SOL    HW272403   3.318   0.985   4.138 -0.1808  0.2470 -0.9791
21849SOL     OW72404   2.241   0.595  10.838 -0.5938  0.4714  0.0423
21849SOL    HW172405   2.162   0.546  10.859 -0.5729  0.3618 -0.1342
21849SOL    HW272406   2.312   0.531  10.845 -0.8308 -0.2365 -2.8299
21850SOL     OW72407   4.928   2.075  10.861  0.5851  0.9147 -0.0402
21850SOL    HW172408   4.855   2.048  10.917 -0.4783 -0.4083 -1.9534
21850SOL    HW272409   4.990   2.116  10.920 -1.3969  1.4404  1.7786
21851SOL     OW72410   5.820   2.873   2.871 -0.4926  0.1302 -0.3062
21851SOL    HW172411   5.860   2.835   2.949 -0.4785 -1.7341 -1.1594
21851SOL    HW272412   5.743   2.920   2.904  0.4800  0.8682  0.9836
21852SOL     OW72413   7.373  12.541  10.847  0.1604  0.1847  0.6310
21852SOL    HW172414   7.341  12.630  10.833  0.8907  0.1687 -1.5275
21852SOL    HW272415   7.439  12.550  10.916  1.0554  1.5490 -0.3510
21853SOL     OW72416  12.379   8.170   9.047 -0.2084 -0.4751  0.0535
21853SOL    HW172417  12.332   8.194   9.127  0.1481  0.0812  0.1071
21853SOL    HW272418  12.334   8.092   9.015  0.0205 -1.0793  1.1274
21854SOL     OW72419   1.325   1.857   4.403  0.7359  0.3592 -0.4057
21854SOL    HW172420   1.394   1.791   4.415 -0.1656 -0.8022 -1.4358
21854SOL    HW272421   1.244   1.810   4.420  0.1750  1.9307  1.7145
21855SOL     OW72422   0.647   4.343   5.174  0.0763  0.4214  0.0508
21855SOL    HW172423   0.562   4.307   5.151 -0.3642  0.6735  1.2402
21855SOL    HW272424   0.663   4.313   5.264  0.7325  1.2981  0.2428
21856SOL     OW72425   3.138  11.427   7.520  0.5477 -0.5528  0.3294
21856SOL    HW172426   3.060  11.458   7.472  1.0152  1.4184  0.7299
21856SOL    HW272427   3.105  11.402   7.606  0.3103  0.0250  0.4109
21857SOL     OW72428   2.745   7.010   2.813 -0.1845 -0.2095 -0.3122
21857SOL    HW172429   2.660   7.024   2.853 -0.7326 -0.7522 -1.2485
21857SOL    HW272430   2.728   6.948   2.742  0.9006  0.0818 -0.8453
21858SOL     OW72431   5.022   0.280   1.482  0.3093 -0.0149 -0.3785
21858SOL    HW172432   5.099   0.251   1.530  0.8463  1.7940 -0.0746
21858SOL    HW272433   4.999   0.364   1.522 -0.7243  0.3549 -1.6672
21859SOL     OW72434   2.912  10.828   4.981  0.0772 -0.1845  0.0250
21859SOL    HW172435   2.993  10.784   5.006 -0.0575 -0.5144 -0.1134
21859SOL    HW272436   2.846  10.793   5.041  0.2599  0.9850  0.9603
21860SOL     OW72437   7.225   1.168  10.102 -0.2790  0.4855 -0.2151
21860SOL    HW172438   7.138   1.129  10.099 -0.3044  0.4361  0.7778
21860SOL    HW272439   7.209   1.262  10.112 -0.2264  0.4394  0.3359
21861SOL     OW72440   0.787   8.065   8.704 -0.3852  1.0289  0.3095
21861SOL    HW172441   0.822   8.078   8.616  1.2504  0.5561  0.8562
21861SOL    HW272442   0.845   8.000   8.744 -1.5385  0.6815  1.4875
21862SOL     OW72443   5.278   0.163   2.700  0.5203 -0.3178  0.5142
21862SOL    HW172444   5.225   0.122   2.769 -0.5010 -0.3647 -0.2778
21862SOL    HW272445   5.235   0.247   2.684  2.8435  1.3686  2.4257
21863SOL     OW72446   9.776   6.478  11.167  0.2133  0.0171  0.0499
21863SOL    HW172447   9.747   6.397  11.210  0.9716 -0.1909  0.1882
21863SOL    HW272448   9.745   6.469  11.077  2.2364 -1.5261 -0.5764
21864SOL     OW72449   2.505   0.586   3.909 -0.0590  0.3699  0.7564
21864SOL    HW172450   2.551   0.670   3.920 -2.7480  1.8878  1.3173
21864SOL    HW272451   2.568   0.520   3.939  2.7429  1.9685 -1.1530
21865SOL     OW72452   7.282   7.431   3.081  0.0788 -0.0771  0.7568
21865SOL    HW172453   7.294   7.519   3.116  0.4878  0.2516 -0.1747
21865SOL    HW272454   7.354   7.420   3.018 -1.5244 -0.0076 -1.1990
21866SOL     OW72455   7.599   8.008   0.354  0.6925 -0.0153  0.1095
21866SOL    HW172456   7.600   8.100   0.325 -0.4760  1.0503  3.0699
21866SOL    HW272457   7.548   8.009   0.435 -1.8787 -3.7981 -1.2082
21867SOL     OW72458   1.655  12.576   5.900  0.4526 -0.0396  0.5716
21867SOL    HW172459   1.658  12.648   5.838 -2.9339  0.2987  0.6161
21867SOL    HW272460   1.663  12.618   5.986  0.2510  0.1066  0.5213
21868SOL     OW72461   6.975  11.670   6.690 -0.3810 -0.2498 -0.7585
21868SOL    HW172462   6.902  11.648   6.632  0.3252  1.8281 -2.5719
21868SOL    HW272463   6.944  11.745   6.740  0.5858  0.9257 -1.8509
21869SOL     OW72464   8.562   0.909   2.978 -0.3797 -0.2059 -0.1992
21869SOL    HW172465   8.643   0.949   3.009 -0.6049 -0.2603  0.4662
21869SOL    HW272466   8.586   0.867   2.895  0.3577 -0.5488  0.1819
21870SOL     OW72467   7.253  10.491  10.001  0.3466 -0.0752  0.5305
21870SOL    HW172468   7.250  10.505  10.096 -0.5908 -0.1324  0.5171
21870SOL    HW272469   7.316  10.420   9.989  0.6017  0.0518  1.0946
21871SOL     OW72470   0.774   4.123  10.756 -0.1850 -0.6063  0.1085
21871SOL    HW172471   0.825   4.098  10.678 -0.1111 -0.2762  0.0487
21871SOL    HW272472   0.817   4.078  10.828  1.1240  0.8426  0.2796
21872SOL     OW72473   9.303   1.778   9.259  0.6713 -0.6735  0.1286
21872SOL    HW172474   9.267   1.866   9.267  0.4942 -0.7101 -0.2533
21872SOL    HW272475   9.226   1.722   9.248  0.8664 -0.5312 -2.9014
21873SOL     OW72476   1.658   8.742   0.012  0.0501  0.1449  0.0314
21873SOL    HW172477   1.600   8.788   0.073 -0.5067  0.9215 -1.0283
21873SOL    HW272478   1.745   8.747   0.052 -0.6081 -1.1126  1.6860
21874SOL     OW72479   0.482  12.054   4.488 -0.1752  0.1904  0.1483
21874SOL    HW172480   0.508  12.087   4.574 -1.4278  0.1439  0.5548
21874SOL    HW272481   0.491  12.129   4.429 -0.9289  0.6878  0.6531
21875SOL     OW72482   0.134   5.078   3.011  0.1062  0.1989  0.0811
21875SOL    HW172483   0.225   5.066   3.039 -0.0634  0.1613  0.6355
21875SOL    HW272484   0.140   5.099   2.918  0.5759 -1.5596 -0.3127
21876SOL     OW72485   4.456  11.551  10.399  0.7513 -0.2889  0.3910
21876SOL    HW172486   4.407  11.574  10.320  1.8908 -0.0410 -0.2650
21876SOL    HW272487   4.409  11.476  10.435  0.2420 -0.4408 -0.5510
21877SOL     OW72488   5.434   6.388  11.330 -0.1872 -0.1483 -1.0060
21877SOL    HW172489   5.518   6.395  11.376 -0.6114 -1.1851 -0.0096
21877SOL    HW272490   5.417   6.294  11.326 -2.2995  0.0704  0.7623
21878SOL     OW72491  11.507   5.646   9.770 -0.2167  0.2123  0.2660
21878SOL    HW172492  11.455   5.717   9.734  0.8418  0.5257 -0.6844
21878SOL    HW272493  11.571   5.689   9.827 -0.3043 -0.0724  0.5825
21879SOL     OW72494   7.536   8.991   7.083 -0.1928  0.2589 -0.5730
21879SOL    HW172495   7.478   9.067   7.091 -0.9442 -0.3085 -0.5051
21879SOL    HW272496   7.617   9.026   7.047 -0.6589  1.0311 -0.8900
21880SOL     OW72497   6.362  11.003   5.263  0.9062  0.3227 -0.1003
21880SOL    HW172498   6.338  10.912   5.282  2.1568 -0.1424 -0.6639
21880SOL    HW272499   6.379  11.042   5.348 -0.4171  0.2855  0.2153
21881SOL     OW72500   0.158   6.216   3.497 -0.2036 -0.2191  0.1568
21881SOL    HW172501   0.212   6.246   3.570  0.0766  0.7055 -0.4132
21881SOL    HW272502   0.071   6.202   3.535  0.3312 -1.4378  1.0266
21882SOL     OW72503   6.674   8.921  12.045  0.0952 -0.4631  0.0551
21882SOL    HW172504   6.662   8.871  12.126  0.2311 -0.6262 -0.0256
21882SOL    HW272505   6.692   8.855  11.978 -3.5978 -0.7470 -0.8988
21883SOL     OW72506   8.559   2.968   4.562 -0.1606  0.4712 -0.2457
21883SOL    HW172507   8.551   3.049   4.513 -1.5887  0.8164  0.5051
21883SOL    HW272508   8.653   2.951   4.566  0.1670  2.1724 -0.2607
21884SOL     OW72509   7.585  10.387   3.734 -0.2761 -0.2271 -0.0723
21884SOL    HW172510   7.550  10.298   3.745  0.6593 -0.7413 -1.1498
21884SOL    HW272511   7.578  10.405   3.640  1.9566 -0.2044 -0.2872
21885SOL     OW72512  12.549   5.963   5.049  0.1257 -0.6435  0.3809
21885SOL    HW172513  12.595   6.017   5.112  0.2292 -0.7163  0.3679
21885SOL    HW272514  12.486   5.914   5.101  0.0333 -0.5115  0.3932
21886SOL     OW72515   4.414   1.829   1.222 -0.1694 -0.1420 -0.0155
21886SOL    HW172516   4.320   1.832   1.205 -0.1084 -0.3766 -0.4256
21886SOL    HW272517   4.439   1.920   1.235 -0.3634 -0.0185 -0.4668
21887SOL     OW72518   8.219   0.143   3.368 -0.2020  0.0818 -0.2386
21887SOL    HW172519   8.157   0.093   3.421  0.7684 -0.3204  0.5618
21887SOL    HW272520   8.298   0.149   3.423  0.6528  0.1166 -1.4323
21888SOL     OW72521   6.648   5.576   8.681 -0.0882  0.3516  0.8077
21888SOL    HW172522   6.625   5.640   8.614 -1.1626 -0.0015  0.8249
21888SOL    HW272523   6.706   5.624   8.741 -1.7737  1.6820  1.4615
21889SOL     OW72524   7.318   8.706   9.942 -0.8806  0.0902  0.4123
21889SOL    HW172525   7.251   8.697   9.874 -1.9894  2.1822  1.1304
21889SOL    HW272526   7.377   8.774   9.908 -0.1562 -0.4305  0.6035
21890SOL     OW72527   5.735   1.696   7.118 -0.1745 -0.2988 -0.3598
21890SOL    HW172528   5.761   1.759   7.185 -0.5531  0.1497 -0.6267
21890SOL    HW272529   5.642   1.682   7.133 -0.6104  0.9355 -1.6857
21891SOL     OW72530   6.615  12.032   1.866  0.2538 -0.0697 -0.4929
21891SOL    HW172531   6.595  11.992   1.782 -1.8725  0.8700 -0.5030
21891SOL    HW272532   6.538  12.086   1.886  0.4927 -0.5583  2.2220
21892SOL     OW72533   0.069   0.211   0.533 -0.2252  0.5757 -0.6235
21892SOL    HW172534   0.121   0.247   0.462 -0.2970  1.1924 -0.3703
21892SOL    HW272535   0.071   0.278   0.601 -1.5442  0.7287 -0.6998
21893SOL     OW72536   8.421   0.162  10.874 -0.2084  0.7802  0.8117
21893SOL    HW172537   8.480   0.233  10.903  0.5692 -0.3984  2.2433
21893SOL    HW272538   8.424   0.098  10.945 -2.6535  0.3147  0.5543
21894SOL     OW72539   3.023   8.068   1.983  0.3748 -0.1794  0.3172
21894SOL    HW172540   2.949   8.095   2.038 -0.0770  0.0778 -0.4022
21894SOL    HW272541   3.017   7.973   1.980 -0.7086 -0.1016 -0.7756
21895SOL     OW72542   1.455  10.840   8.377  0.7845  0.5822 -0.4596
21895SOL    HW172543   1.537  10.888   8.388  0.7812  0.4826  0.0195
21895SOL    HW272544   1.479  10.764   8.324  0.8159  1.0323 -1.1053
21896SOL     OW72545  10.607  11.348   2.273  0.0099 -0.3504  0.1514
21896SOL    HW172546  10.588  11.393   2.190 -1.2775 -0.1214  0.5506
21896SOL    HW272547  10.688  11.388   2.304  0.0426  0.1699 -0.5709
21897SOL     OW72548   7.075   4.967  11.125  0.0538  0.7308  0.1627
21897SOL    HW172549   7.062   5.023  11.201 -0.4050  1.0728 -0.1614
21897SOL    HW272550   7.048   5.021  11.050  1.5520  0.7945 -0.3618
21898SOL     OW72551   4.989   3.962   9.831 -0.6473  0.2235 -0.8226
21898SOL    HW172552   4.901   3.975   9.865 -1.3629  1.4554 -2.9574
21898SOL    HW272553   5.041   4.033   9.869 -0.4808 -0.6170  0.5912
21899SOL     OW72554  11.107   0.877  11.963  0.2148 -0.0086  0.3805
21899SOL    HW172555  11.037   0.826  12.003 -0.0545 -0.0445 -0.1202
21899SOL    HW272556  11.137   0.936  12.032 -0.7579  0.4618  0.4249
21900SOL     OW72557   0.266  11.906   5.201 -0.1357 -0.3671 -0.3373
21900SOL    HW172558   0.257  11.863   5.116 -1.2783 -0.2360 -0.2985
21900SOL    HW272559   0.198  11.973   5.200  0.4228  0.2095  0.3389
21901SOL     OW72560  11.139   5.878   5.581  0.1937  0.3295 -0.1548
21901SOL    HW172561  11.232   5.855   5.587  0.7984  2.2762 -1.0553
21901SOL    HW272562  11.105   5.864   5.669  1.0518 -1.4583 -0.0606
21902SOL     OW72563   3.400   1.203   4.210 -0.4791 -0.3017 -0.6318
21902SOL    HW172564   3.417   1.296   4.229 -1.9511  0.0803 -1.0430
21902SOL    HW272565   3.358   1.170   4.289  1.1628 -0.9680 -0.0067
21903SOL     OW72566   3.139  11.732   9.036 -0.2036  0.1718 -0.2324
21903SOL    HW172567   3.152  11.773   8.951  1.9055 -2.2728 -1.1971
21903SOL    HW272568   3.172  11.797   9.099  3.0853  0.1436 -1.7036
21904SOL     OW72569   4.838  10.411   9.520 -0.6332  0.6110  0.2574
21904SOL    HW172570   4.830  10.347   9.590  1.2201  1.2146  1.0694
21904SOL    HW272571   4.853  10.494   9.564  0.7154  0.9774 -0.8234
21905SOL     OW72572   4.445   7.118   9.337 -0.3887  0.1808  0.4263
21905SOL    HW172573   4.376   7.165   9.291 -0.8233 -0.8281  0.0186
21905SOL    HW272574   4.505   7.089   9.268  0.7544  1.5066  0.8245
21906SOL     OW72575   8.608  10.051   9.183 -0.5277  0.0743 -0.4454
21906SOL    HW172576   8.667  10.029   9.255 -1.6115  1.3058  0.8818
21906SOL    HW272577   8.566   9.969   9.160 -2.7061  0.1140  2.7384
21907SOL     OW72578   8.888   1.683   3.959 -0.4298 -0.0288 -0.0026
21907SOL    HW172579   8.912   1.621   3.890 -4.0716 -2.5572  0.7152
21907SOL    HW272580   8.864   1.763   3.912 -0.1161 -0.7305 -1.4161
21908SOL     OW72581   8.192   2.527   1.932 -0.6289  0.3625  0.0068
21908SOL    HW172582   8.285   2.508   1.920 -0.9399 -0.9170 -0.5443
21908SOL    HW272583   8.175   2.509   2.024 -0.4549 -0.0503 -0.0371
21909SOL     OW72584   2.761   4.488   7.053  0.0881 -0.3793 -0.6323
21909SOL    HW172585   2.786   4.563   7.108 -0.4040 -1.8063  1.6741
21909SOL    HW272586   2.839   4.432   7.051 -0.2348 -0.8414 -0.4818
21910SOL     OW72587   9.835   4.358   1.469  0.1500  0.0128 -0.0791
21910SOL    HW172588   9.783   4.409   1.407 -1.4962 -0.0883  1.1694
21910SOL    HW272589   9.886   4.423   1.517 -1.4641  0.4858  1.0680
21911SOL     OW72590   4.407   6.094   7.631 -0.0185 -1.2648  0.1408
21911SOL    HW172591   4.316   6.102   7.602  0.4121 -1.6707 -1.3923
21911SOL    HW272592   4.423   6.174   7.681 -1.6692 -1.9057  1.8199
21912SOL     OW72593  12.170   8.416   7.295 -0.1180 -0.3350  0.3237
21912SOL    HW172594  12.091   8.471   7.301 -0.3844 -0.5807 -0.6594
21912SOL    HW272595  12.212   8.424   7.381 -0.1524  1.3975  0.2160
21913SOL     OW72596   3.022   6.804  10.365 -0.2618  0.6094 -0.1109
21913SOL    HW172597   2.987   6.760  10.288  0.3117 -0.3180  0.1327
21913SOL    HW272598   2.946   6.844  10.407 -0.9779 -0.9983  0.1881
21914SOL     OW72599   8.153   6.108   8.959  0.9769 -0.3050  0.3933
21914SOL    HW172600   8.100   6.164   9.015 -0.7257 -1.2233 -0.2214
21914SOL    HW272601   8.139   6.142   8.870 -0.3283 -1.8077 -0.0290
21915SOL     OW72602   1.242  12.159   3.215 -0.0188 -0.0984 -0.0844
21915SOL    HW172603   1.313  12.221   3.231 -0.6896  0.6941 -0.0938
21915SOL    HW272604   1.162  12.212   3.218 -0.5527 -0.8089 -0.9401
21916SOL     OW72605   0.329  11.555   4.138 -0.0851  0.6164 -0.5897
21916SOL    HW172606   0.335  11.528   4.230  0.5390 -3.1934 -1.5869
21916SOL    HW272607   0.269  11.630   4.140 -0.4716  0.4141  2.8445
21917SOL     OW72608  10.034   2.025   1.210 -0.2133  0.1848 -0.3789
21917SOL    HW172609  10.027   1.980   1.125 -1.5671 -2.0438  0.8207
21917SOL    HW272610   9.959   1.993   1.260  0.9468  0.8754  1.9432
21918SOL     OW72611   6.086  12.448  11.331  0.8102  0.1448 -0.0696
21918SOL    HW172612   6.180  12.466  11.333  0.5649  1.5564  0.4507
21918SOL    HW272613   6.053  12.502  11.258  0.5327 -1.1264 -0.9144
21919SOL     OW72614   5.494  12.413   7.260  0.1987  0.4042  0.1428
21919SOL    HW172615   5.480  12.328   7.218  0.3672  0.7300 -0.5908
21919SOL    HW272616   5.457  12.476   7.198 -0.1577  0.8490  0.8008
21920SOL     OW72617   9.809   1.028   7.826  0.6298 -0.4007  0.0043
21920SOL    HW172618   9.900   1.012   7.800  0.5673  1.2611 -1.4602
21920SOL    HW272619   9.815   1.094   7.895  0.5424  0.4429 -0.7662
21921SOL     OW72620   2.279   6.663   3.492  0.5384  0.1336  0.4661
21921SOL    HW172621   2.272   6.716   3.412  1.5588 -1.4685 -0.7428
21921SOL    HW272622   2.189   6.659   3.525  0.5727  3.5999  1.3537
21922SOL     OW72623   7.582   1.019  10.046 -0.1087 -0.5525 -0.2237
21922SOL    HW172624   7.554   1.039   9.957  0.1000 -2.6646 -0.8051
21922SOL    HW272625   7.667   1.062  10.055 -0.7201  0.7939 -0.5350
21923SOL     OW72626   4.065   0.339  11.415  0.5277  0.5501  0.2860
21923SOL    HW172627   4.050   0.266  11.474 -0.2985  0.9378  0.5643
21923SOL    HW272628   4.156   0.365  11.431  0.9156 -0.5752 -0.0112
21924SOL     OW72629   3.280   9.611   0.121 -0.2564 -0.5224 -0.2270
21924SOL    HW172630   3.295   9.698   0.085  1.3576 -1.2132 -1.3526
21924SOL    HW272631   3.186   9.597   0.113 -0.3709  0.6588 -1.1334
21925SOL     OW72632  10.110   7.120   6.140 -0.1580  0.4414 -0.1710
21925SOL    HW172633  10.114   7.138   6.046 -1.8677  0.8622 -0.2056
21925SOL    HW272634  10.101   7.206   6.180  1.7137  0.3650  0.5064
21926SOL     OW72635   3.379  10.768   5.668  0.0606  0.4275 -0.2359
21926SOL    HW172636   3.301  10.713   5.669  0.0433  0.4524  0.1371
21926SOL    HW272637   3.407  10.770   5.577 -1.6381  2.2263 -0.7924
21927SOL     OW72638   0.550   6.629   6.602  0.2518 -0.3104 -0.0795
21927SOL    HW172639   0.501   6.606   6.523  1.0188 -1.0002 -0.3748
21927SOL    HW272640   0.488   6.614   6.674 -0.8661  1.5304 -0.5944
21928SOL     OW72641   2.094   9.224  10.781 -0.1054  0.5110  0.6638
21928SOL    HW172642   2.085   9.130  10.765 -0.6602  0.6911 -0.2197
21928SOL    HW272643   2.186   9.243  10.763 -0.5183  0.5590 -1.8685
21929SOL     OW72644   0.341   7.960   3.716 -0.0440  0.3539 -0.1904
21929SOL    HW172645   0.354   8.010   3.796  0.6095  0.5075 -0.3830
21929SOL    HW272646   0.371   8.018   3.646 -0.5556  0.2009 -0.5425
21930SOL     OW72647   6.025  12.410   0.424  0.1967  0.4513  0.3549
21930SOL    HW172648   5.982  12.404   0.510 -0.7660 -0.4413 -0.1628
21930SOL    HW272649   5.996  12.494   0.389  0.6931  0.8755  0.9578
21931SOL     OW72650   6.800   1.450   6.418  0.5905 -0.7062 -0.4845
21931SOL    HW172651   6.857   1.401   6.478  0.8002  1.5754  1.3434
21931SOL    HW272652   6.725   1.393   6.405  1.1582 -1.8484  0.8943
21932SOL     OW72653  11.706   6.528   4.478 -0.4335 -0.0263  0.3601
21932SOL    HW172654  11.681   6.550   4.389 -1.3855  1.7643  1.0290
21932SOL    HW272655  11.801   6.517   4.474 -0.5130 -0.3918 -0.9413
21933SOL     OW72656  10.035   3.047   9.517  0.5756  0.4052  0.1736
21933SOL    HW172657  10.103   3.096   9.565 -1.1151  1.1117  1.9878
21933SOL    HW272658   9.981   3.115   9.477 -0.2788 -0.0366  0.5450
21934SOL     OW72659   0.173   1.081   2.253  0.3316  0.6282 -0.1837
21934SOL    HW172660   0.149   0.990   2.236  0.0368  0.8368 -0.9162
21934SOL    HW272661   0.235   1.076   2.326  1.8999 -0.3434 -1.5259
21935SOL     OW72662  10.020  12.518   9.401  0.6105  0.2154 -0.3747
21935SOL    HW172663  10.048  12.440   9.353  0.4291  0.0514 -0.2152
21935SOL    HW272664  10.049  12.503   9.491  1.1122  0.6051 -0.4687
21936SOL     OW72665   4.256   2.837   3.895  0.2617 -0.0046  0.7344
21936SOL    HW172666   4.234   2.757   3.942 -0.1441  0.6975  1.7848
21936SOL    HW272667   4.324   2.879   3.948 -0.2424  0.8313  0.7458
21937SOL     OW72668   3.901  11.886   9.338  0.6174  0.3930  0.1402
21937SOL    HW172669   3.876  11.931   9.418  1.2537  1.7487 -0.3992
21937SOL    HW272670   3.828  11.826   9.321  0.7126 -0.3203  1.9842
21938SOL     OW72671  11.381   8.172   2.619 -0.3730  0.3229 -0.2514
21938SOL    HW172672  11.365   8.118   2.696 -0.9171  0.2385 -0.4185
21938SOL    HW272673  11.341   8.124   2.547  0.2430  0.3370 -0.6172
21939SOL     OW72674   6.674   8.652   5.112 -0.7917  0.1212  0.6278
21939SOL    HW172675   6.607   8.697   5.163  0.1394  3.2266 -0.6420
21939SOL    HW272676   6.726   8.723   5.073  1.5969 -2.1205 -0.5700
21940SOL     OW72677  10.184   4.065   8.586 -0.4531 -0.1338 -0.1072
21940SOL    HW172678  10.210   4.154   8.608 -1.1220 -0.3145  1.5874
21940SOL    HW272679  10.113   4.075   8.522  1.8588  0.4044 -2.7931
21941SOL     OW72680   3.140   8.170   2.394 -0.0094  0.3058 -0.0689
21941SOL    HW172681   3.126   8.220   2.313 -1.0062  1.0071  0.5224
21941SOL    HW272682   3.089   8.216   2.460  0.5381 -0.4492  0.9027
21942SOL     OW72683   7.673  12.054   5.145  0.8342  0.6408  0.2358
21942SOL    HW172684   7.607  12.009   5.092  0.4881 -0.3039  1.4275
21942SOL    HW272685   7.632  12.137   5.170  0.0857  0.0525  0.9773
21943SOL     OW72686   9.707   6.923   5.586  0.1203  0.2168  0.6569
21943SOL    HW172687   9.668   6.954   5.504  2.2061 -2.3832 -1.5436
21943SOL    HW272688   9.641   6.866   5.624  0.0607 -0.7180 -0.7456
21944SOL     OW72689   0.118   6.810   3.092 -0.0912  0.2595  0.2486
21944SOL    HW172690   0.193   6.862   3.123  0.1287  0.6189 -0.8394
21944SOL    HW272691   0.142   6.785   3.003 -0.6782 -0.7962  0.3782
21945SOL     OW72692   8.279   6.892   8.968 -0.2295 -0.2317 -0.3620
21945SOL    HW172693   8.197   6.926   9.004  0.6187  1.1478  0.3441
21945SOL    HW272694   8.322   6.851   9.043 -0.3754 -1.2050 -0.7917
21946SOL     OW72695  11.029   8.932   0.325  0.0885 -0.0704  0.1156
21946SOL    HW172696  10.994   8.918   0.413 -0.9329 -0.6288 -0.3621
21946SOL    HW272697  11.040   9.027   0.319  0.7907 -0.0732  1.0586
21947SOL     OW72698   6.596   7.347   8.143  0.5046 -0.4191 -0.3964
21947SOL    HW172699   6.669   7.409   8.139 -0.9593  1.3566 -0.7198
21947SOL    HW272700   6.571   7.334   8.052 -0.6623  0.3724 -0.2149
21948SOL     OW72701   7.376   3.969   8.253  0.2696 -0.0124 -0.1975
21948SOL    HW172702   7.439   3.899   8.274 -0.6603 -1.2493 -1.3572
21948SOL    HW272703   7.391   4.036   8.320  0.7619 -1.5980  1.3414
21949SOL     OW72704   2.593   3.202   4.703 -0.5164 -0.3625  0.2785
21949SOL    HW172705   2.624   3.269   4.642  0.9978 -1.3912 -0.1378
21949SOL    HW272706   2.554   3.252   4.775 -0.1861  0.9368 -0.3999
21950SOL     OW72707   4.863   1.558   3.650 -0.3005 -0.1691  0.0696
21950SOL    HW172708   4.920   1.605   3.711 -1.3381  2.1771 -0.6769
21950SOL    HW272709   4.914   1.552   3.569  0.8882 -2.8675  0.8797
21951SOL     OW72710   9.028  10.470   8.026 -0.4453  0.0062 -1.0424
21951SOL    HW172711   9.117  10.447   8.000 -0.3358 -0.0886 -0.5906
21951SOL    HW272712   8.986  10.498   7.944 -0.7538 -2.2917 -1.7619
21952SOL     OW72713   1.606   3.215   0.452  0.2118  0.0923  0.0122
21952SOL    HW172714   1.667   3.160   0.403 -1.6032 -1.5807 -0.5038
21952SOL    HW272715   1.601   3.296   0.401  1.4496  0.0082 -0.2851
21953SOL     OW72716   0.320  12.325  10.323  0.5276  0.6786  0.7823
21953SOL    HW172717   0.287  12.264  10.257 -0.8832  0.7150  1.4215
21953SOL    HW272718   0.404  12.288  10.349  1.1557  0.7205 -1.0783
21954SOL     OW72719   6.469   3.267   3.225 -0.2716  0.5215  0.4679
21954SOL    HW172720   6.505   3.352   3.248  2.2450 -0.8567  2.0731
21954SOL    HW272721   6.504   3.207   3.291 -0.3651 -2.1073 -1.6700
21955SOL     OW72722   9.686   2.595  10.143  0.0347 -0.2446  0.5658
21955SOL    HW172723   9.604   2.562  10.106  0.4052 -2.8886  1.9223
21955SOL    HW272724   9.744   2.605  10.068 -1.1904  0.7265 -0.2906
21956SOL     OW72725   7.902   8.965   4.502  0.1991 -0.0996 -0.1927
21956SOL    HW172726   7.872   9.033   4.442  0.0165 -0.3424 -0.3786
21956SOL    HW272727   7.827   8.906   4.511  1.3475 -2.2026 -2.7348
21957SOL     OW72728   0.345   2.022   3.025  0.4278  0.0100  0.3220
21957SOL    HW172729   0.343   2.087   3.096 -1.6532 -0.4582  0.7484
21957SOL    HW272730   0.256   2.021   2.990  1.2810 -0.1383 -2.0194
21958SOL     OW72731  10.864   7.707  10.998 -0.6688 -0.4071  0.7420
21958SOL    HW172732  10.814   7.766  10.941 -1.0288 -2.1681 -0.8774
21958SOL    HW272733  10.802   7.640  11.023  0.7211 -2.5963 -1.2289
21959SOL     OW72734   3.189   3.206   3.445  0.2152  0.2942 -0.3945
21959SOL    HW172735   3.118   3.183   3.504 -0.0048  0.2205 -0.6861
21959SOL    HW272736   3.178   3.148   3.370 -0.3578  1.3480 -1.1512
21960SOL     OW72737   9.850   3.673   8.291  0.2590 -0.1692  0.3113
21960SOL    HW172738   9.879   3.734   8.223 -0.9948  1.1917  0.9460
21960SOL    HW272739   9.757   3.660   8.273  0.3990 -1.6183  0.4478
21961SOL     OW72740   8.866   4.084   4.289 -0.1999 -0.1807  0.0869
21961SOL    HW172741   8.804   4.043   4.349 -0.8267  1.0888  0.3467
21961SOL    HW272742   8.946   4.034   4.298 -0.6037 -0.6436  1.2176
21962SOL     OW72743   2.703  12.440   4.064 -0.2380  0.1244 -0.4397
21962SOL    HW172744   2.714  12.489   3.983 -1.4465 -1.1191 -1.4139
21962SOL    HW272745   2.636  12.374   4.043  1.1057 -1.7662  0.8365
21963SOL     OW72746  10.687   1.452   9.016 -0.0813 -0.1200 -0.4569
21963SOL    HW172747  10.776   1.479   8.994  0.9729 -2.3424  0.7623
21963SOL    HW272748  10.674   1.484   9.106 -0.8306  0.8381 -0.8858
21964SOL     OW72749   2.233  10.535   4.232  0.1996 -0.0427  0.6668
21964SOL    HW172750   2.312  10.556   4.183  0.3563 -1.3870  0.3058
21964SOL    HW272751   2.264  10.515   4.320  0.3407 -1.0746  0.3945
21965SOL     OW72752   5.393  11.082   7.529 -0.0000 -0.1377 -0.4020
21965SOL    HW172753   5.446  11.141   7.584 -0.0311 -0.5855  0.1143
21965SOL    HW272754   5.330  11.044   7.590  0.2041 -0.9225 -0.6780
21966SOL     OW72755   6.825   1.866   9.246 -0.2574  0.0094  0.4525
21966SOL    HW172756   6.758   1.820   9.195 -3.1783  0.8350  3.2356
21966SOL    HW272757   6.822   1.956   9.213  1.6950 -0.5125 -1.3818
21967SOL     OW72758   3.187  10.796   2.904 -0.0015  0.3174  0.2460
21967SOL    HW172759   3.238  10.770   2.827 -0.9166  0.3717 -0.3867
21967SOL    HW272760   3.158  10.714   2.943 -0.4981  0.3072 -0.1305
21968SOL     OW72761   6.958   6.361   9.058 -0.4645 -0.1237 -0.5480
21968SOL    HW172762   6.994   6.349   8.970  0.1757  0.5822 -0.3951
21968SOL    HW272763   6.915   6.278   9.078  0.4741 -0.7478 -1.0330
21969SOL     OW72764  11.053   6.593   9.537  0.4019  0.3849  0.2301
21969SOL    HW172765  10.991   6.534   9.580 -0.7793 -0.9127 -2.9462
21969SOL    HW272766  10.999   6.666   9.506  1.3176  1.5761  1.3375
21970SOL     OW72767   8.544   3.304   2.556  0.6049  0.5462  0.2652
21970SOL    HW172768   8.559   3.365   2.484  0.9465  0.6036  0.3804
21970SOL    HW272769   8.615   3.240   2.549  1.3260  1.2044  1.2223
21971SOL     OW72770  10.195   1.762   8.959 -0.2785 -0.5440  0.1010
21971SOL    HW172771  10.162   1.709   8.886 -0.1438 -1.4567  0.6854
21971SOL    HW272772  10.290   1.751   8.955 -0.2271 -0.1303  0.0819
21972SOL     OW72773   2.090   1.747   7.786  0.2346 -0.0749  0.4897
21972SOL    HW172774   2.007   1.795   7.784  0.7560  0.9965  2.0750
21972SOL    HW272775   2.098   1.709   7.699 -1.7407  0.0830  0.1902
21973SOL     OW72776   8.021   9.152   7.702 -0.4915  0.0114  0.1460
21973SOL    HW172777   8.094   9.184   7.755 -0.3470 -1.9409  1.1997
21973SOL    HW272778   8.045   9.062   7.680 -3.4670 -1.4697  2.3309
21974SOL     OW72779   5.086   3.127   0.370  0.1082 -0.0259  0.2523
21974SOL    HW172780   5.068   3.134   0.463  0.2740  1.6268  0.1938
21974SOL    HW272781   5.179   3.151   0.361  0.5541 -1.7750 -0.1802
21975SOL     OW72782   5.692   9.405   1.420  0.2031  0.0668  0.0832
21975SOL    HW172783   5.666   9.496   1.434  0.1165  0.3103 -1.4291
21975SOL    HW272784   5.609   9.359   1.407  0.3223  0.2604 -1.6067
21976SOL     OW72785   5.400   9.464  10.509 -0.3807  0.7371  0.1299
21976SOL    HW172786   5.425   9.540  10.562  0.8397 -0.5282  1.4538
21976SOL    HW272787   5.457   9.394  10.540 -2.1523 -0.9995 -0.3729
21977SOL     OW72788  10.823   4.908  12.020 -0.0387 -0.2614  0.1681
21977SOL    HW172789  10.882   4.930  12.092 -1.0535 -0.6597  1.1473
21977SOL    HW272790  10.810   4.991  11.974  1.8962 -0.3285 -0.5611
21978SOL     OW72791   2.082   0.086   9.764 -0.1347 -0.6903  0.2463
21978SOL    HW172792   2.014   0.154   9.770 -0.3688 -0.9633  0.7296
21978SOL    HW272793   2.149   0.125   9.707 -1.7694 -1.3558 -2.2868
21979SOL     OW72794  10.594  11.788   3.677  0.2420  0.2210 -0.7376
21979SOL    HW172795  10.661  11.778   3.609  0.6639 -0.5046 -0.2221
21979SOL    HW272796  10.564  11.879   3.667 -0.6289 -0.2186 -2.7575
21980SOL     OW72797  11.790   7.232   4.779  0.3148 -0.1270 -0.1408
21980SOL    HW172798  11.757   7.198   4.697 -0.5606  1.8429 -0.6600
21980SOL    HW272799  11.885   7.240   4.766  0.3094 -0.7331 -0.5788
21981SOL     OW72800   0.574   6.726   4.570 -0.2973 -0.3167 -0.7987
21981SOL    HW172801   0.649   6.683   4.611 -0.7826 -0.6666 -0.2788
21981SOL    HW272802   0.525   6.655   4.529 -0.8097 -0.1970 -0.4007
21982SOL     OW72803   5.532   0.851  10.615 -0.0299 -0.8984  0.3991
21982SOL    HW172804   5.503   0.940  10.635 -2.3988 -0.9342 -2.2745
21982SOL    HW272805   5.614   0.863  10.568 -0.8578  0.0173 -0.8939
21983SOL     OW72806  10.715   3.207   4.683 -0.0397  0.1122 -0.3767
21983SOL    HW172807  10.759   3.249   4.610 -0.5592 -0.4822 -1.0470
21983SOL    HW272808  10.638   3.262   4.700  1.2843  1.5624  1.2699
21984SOL     OW72809   7.460   6.782   8.018  0.2315 -0.5918  0.1950
21984SOL    HW172810   7.514   6.758   8.093  1.7881 -0.2598 -0.7703
21984SOL    HW272811   7.446   6.877   8.027  1.4991 -0.3152 -0.5771
21985SOL     OW72812   7.590   1.957   2.577 -0.4370  0.0161  0.1838
21985SOL    HW172813   7.641   1.934   2.499  0.3914  1.0012  0.4236
21985SOL    HW272814   7.501   1.970   2.544 -0.3538 -0.7808 -0.3907
21986SOL     OW72815   1.203  12.219   0.729 -0.2680 -0.4593 -0.1808
21986SOL    HW172816   1.280  12.198   0.677  0.2961 -1.7043  1.0768
21986SOL    HW272817   1.171  12.302   0.693  0.3746 -1.0076 -2.1249
21987SOL     OW72818   6.481   8.840   9.332  0.4681  0.5185  0.2610
21987SOL    HW172819   6.417   8.768   9.331 -1.5375  2.1455  1.5314
21987SOL    HW272820   6.530   8.827   9.413 -0.1224  0.7380  0.6616
21988SOL     OW72821   7.895   8.333  12.109 -0.2643  0.2636 -0.0404
21988SOL    HW172822   7.924   8.403  12.168  0.1279 -0.1801  0.3024
21988SOL    HW272823   7.848   8.272  12.167  1.6849 -1.0995  0.1791
21989SOL     OW72824   0.382   8.351   7.948 -0.6177 -0.1079 -0.1456
21989SOL    HW172825   0.401   8.422   8.008 -0.6862  0.5160 -0.8408
21989SOL    HW272826   0.454   8.288   7.960  2.0390  2.1542 -2.6778
21990SOL     OW72827   1.270   0.001   1.718 -0.1535 -0.2536 -0.0227
21990SOL    HW172828   1.356  -0.038   1.733 -0.2922 -0.8502 -0.6816
21990SOL    HW272829   1.267   0.019   1.624 -0.1455  1.2742  0.2471
21991SOL     OW72830   1.431   1.617   9.983  0.0889  0.1003  0.2575
21991SOL    HW172831   1.376   1.648  10.055 -1.1383  1.5988 -1.2306
21991SOL    HW272832   1.395   1.531   9.960 -0.5349  0.3139  0.4203
21992SOL     OW72833   2.283  11.571  11.422  0.3922 -0.8793 -0.6763
21992SOL    HW172834   2.253  11.638  11.484  1.2816 -1.4466  0.3932
21992SOL    HW272835   2.265  11.488  11.466  0.5593 -1.3150 -1.4146
21993SOL     OW72836   4.202   5.612  10.168  0.2890  0.3748 -0.1931
21993SOL    HW172837   4.281   5.665  10.155 -0.4012  1.3888 -0.3890
21993SOL    HW272838   4.147   5.665  10.225  0.1186 -0.7282  0.7034
21994SOL     OW72839   0.292   1.851   3.439 -0.0990  0.0100 -0.1799
21994SOL    HW172840   0.234   1.898   3.499 -0.4548 -0.0427 -0.4795
21994SOL    HW272841   0.374   1.902   3.440 -0.0712 -0.0473  0.4188
21995SOL     OW72842   2.033   3.157   1.540 -0.0138 -0.4211 -0.3441
21995SOL    HW172843   1.942   3.187   1.552  0.3384  1.0996 -1.1992
21995SOL    HW272844   2.071   3.162   1.628  0.2646  2.6411 -0.5254
21996SOL     OW72845   2.242   9.793  11.242 -0.6208 -0.5514  0.0900
21996SOL    HW172846   2.149   9.780  11.264  0.0318 -1.7482  2.4244
21996SOL    HW272847   2.255   9.741  11.162 -2.1982  0.6819 -1.0434
21997SOL     OW72848   2.772   0.683   7.895 -0.4424  0.2481 -0.2250
21997SOL    HW172849   2.791   0.774   7.875  0.9229  0.3879  1.4711
21997SOL    HW272850   2.739   0.685   7.985 -0.6894 -0.9032 -0.2743
21998SOL     OW72851   1.789   3.789   1.927 -0.2238  0.3021 -0.2501
21998SOL    HW172852   1.733   3.789   2.005 -0.8100 -1.1498 -0.6445
21998SOL    HW272853   1.865   3.737   1.953  0.3540  1.1738 -0.1438
21999SOL     OW72854  10.673   5.607   7.728  0.5836 -0.3774  0.1599
21999SOL    HW172855  10.582   5.617   7.700 -0.1122  1.5030  2.7515
21999SOL    HW272856  10.712   5.551   7.661 -2.2478 -0.6048 -1.4735
22000SOL     OW72857   6.318   2.223   0.909  0.2992  0.0530 -0.3271
22000SOL    HW172858   6.309   2.315   0.885 -2.6167 -0.1181 -0.2793
22000SOL    HW272859   6.229   2.195   0.930  1.4274 -2.1589  2.0606
22001SOL     OW72860   5.478   8.066   0.122 -0.4213  0.1432 -0.0170
22001SOL    HW172861   5.562   8.111   0.127  0.0771 -0.3426 -2.5824
22001SOL    HW272862   5.420   8.127   0.076 -1.0167 -0.1610  0.3152
22002SOL     OW72863   5.636  10.353  10.614  0.3310  0.0101  0.1409
22002SOL    HW172864   5.642  10.422  10.548  0.7270 -2.3912 -2.5631
22002SOL    HW272865   5.649  10.398  10.698 -0.5193  3.2941 -1.3321
22003SOL     OW72866   5.717   7.930   9.717  0.0189 -0.2403 -0.4337
22003SOL    HW172867   5.797   7.932   9.664 -0.0010  2.4505 -0.4800
22003SOL    HW272868   5.718   7.843   9.758  3.3502 -0.0552  0.1793
22004SOL     OW72869   8.695  11.595   8.478 -0.4793  0.5102 -0.1756
22004SOL    HW172870   8.680  11.515   8.528 -3.3554  0.3616 -1.0934
22004SOL    HW272871   8.713  11.662   8.544  2.4056 -0.8689  0.5811
22005SOL     OW72872  10.143   0.066   8.237 -0.1012  0.6601  0.0851
22005SOL    HW172873  10.198   0.054   8.159 -1.3715 -0.2295 -0.7344
22005SOL    HW272874  10.190   0.020   8.307 -0.6874 -1.8998 -1.0554
22006SOL     OW72875   0.555   3.885   3.928 -0.5158  0.4774 -0.5120
22006SOL    HW172876   0.500   3.938   3.870 -0.1596  3.0522  1.2946
22006SOL    HW272877   0.635   3.937   3.939  0.2110 -0.8287  0.7654
22007SOL     OW72878   1.985   1.450   5.604  0.2468  0.3364 -0.2067
22007SOL    HW172879   1.937   1.446   5.521 -0.6170 -1.0622  0.3374
22007SOL    HW272880   1.931   1.507   5.660 -0.0605 -0.0786 -0.0701
22008SOL     OW72881   0.136   3.383   8.130  0.6041 -0.0830  0.2935
22008SOL    HW172882   0.063   3.445   8.137  1.0886  1.4124 -4.2501
22008SOL    HW272883   0.212   3.432   8.160  0.1033 -1.2548  3.9198
22009SOL     OW72884  11.247   4.338  10.903  0.3616 -0.1565  0.2325
22009SOL    HW172885  11.230   4.431  10.894  0.2335  0.0145  1.9894
22009SOL    HW272886  11.308   4.331  10.976 -1.0664 -1.5581  1.3547
22010SOL     OW72887   3.065   9.698   8.520 -0.8673  0.3172 -0.2789
22010SOL    HW172888   3.134   9.661   8.575 -0.9446  0.6510  0.0479
22010SOL    HW272889   3.020   9.622   8.483  0.3602  0.0862 -1.3767
22011SOL     OW72890  11.160   9.284   5.353  0.1905  0.3197 -0.3341
22011SOL    HW172891  11.192   9.300   5.265  0.1769 -1.7787 -0.7857
22011SOL    HW272892  11.211   9.208   5.383  0.5774  1.3087  1.6801
22012SOL     OW72893   1.615  11.242   4.733 -0.0319  0.0956 -0.9219
22012SOL    HW172894   1.534  11.246   4.783  0.1409  1.0505 -0.7042
22012SOL    HW272895   1.684  11.248   4.799  0.2035  0.2256 -1.1773
22013SOL     OW72896   2.914  10.411   7.768  0.4532 -0.0209  0.4440
22013SOL    HW172897   2.933  10.352   7.695 -0.7228  1.4782 -1.1339
22013SOL    HW272898   2.840  10.463   7.739  0.8806  1.6466  2.1442
22014SOL     OW72899   0.327   8.749   7.994  0.1440  0.6421 -0.1655
22014SOL    HW172900   0.351   8.675   8.050  0.7598  1.0889  0.1660
22014SOL    HW272901   0.409   8.775   7.952  0.1789  1.8841  0.6242
22015SOL     OW72902   1.423   4.985   5.749  0.9418  0.0665 -0.5501
22015SOL    HW172903   1.462   5.071   5.732  1.5979 -0.4289 -1.6446
22015SOL    HW272904   1.339   5.005   5.790  2.0502  1.1876  1.3307
22016SOL     OW72905   1.792  11.068   2.533 -0.4656  0.7577 -0.1797
22016SOL    HW172906   1.836  10.999   2.583 -0.8454  1.3238  0.9577
22016SOL    HW272907   1.748  11.122   2.599 -2.4137  0.5463 -1.2339
22017SOL     OW72908  11.897   9.790   5.002 -0.6791  0.1150 -0.4343
22017SOL    HW172909  11.836   9.861   5.022 -0.1686  0.4321  0.0164
22017SOL    HW272910  11.901   9.788   4.907  0.4806  1.7318 -0.4629
22018SOL     OW72911   7.609  11.847  10.401  0.0960 -0.1680 -0.3886
22018SOL    HW172912   7.550  11.784  10.360 -1.0614  0.3783  0.3661
22018SOL    HW272913   7.590  11.930  10.357  0.4466 -0.0220 -0.2711
22019SOL     OW72914   0.982   6.054   8.066 -0.0321 -0.4873 -0.5635
22019SOL    HW172915   1.041   6.029   8.137  0.1330  1.0975 -0.1114
22019SOL    HW272916   0.947   6.139   8.092  0.5431  0.4569 -2.6760
22020SOL     OW72917   1.781   4.950  11.298  0.0905  0.1285 -0.2318
22020SOL    HW172918   1.781   4.908  11.384  2.2576  0.4614 -0.0255
22020SOL    HW272919   1.749   5.038  11.315 -0.1240 -0.0117  0.1137
22021SOL     OW72920   1.854   7.486   6.150  0.4870 -0.1818  0.4563
22021SOL    HW172921   1.853   7.576   6.118  0.0250 -0.8155 -1.4071
22021SOL    HW272922   1.935   7.449   6.115 -0.0648 -0.9198 -0.0654
22022SOL     OW72923   7.908   1.839   6.505  0.6336 -0.7424  0.3850
22022SOL    HW172924   7.957   1.839   6.423  0.2435  1.0097  0.1125
22022SOL    HW272925   7.868   1.752   6.509 -0.6447 -0.3604 -2.1293
22023SOL     OW72926  12.289   4.318   5.674  0.5030 -0.1054  0.3169
22023SOL    HW172927  12.246   4.399   5.647 -0.8358 -1.6830 -2.8330
22023SOL    HW272928  12.218   4.254   5.680  1.6606 -1.3325  1.5381
22024SOL     OW72929   3.426   9.704   1.229  0.8129  0.1288  0.2235
22024SOL    HW172930   3.362   9.765   1.191  0.1127 -1.4304 -1.2928
22024SOL    HW272931   3.440   9.735   1.318  1.1399  2.9516 -0.7164
22025SOL     OW72932   2.535   6.670   5.374 -0.5111  0.6189  0.1432
22025SOL    HW172933   2.617   6.718   5.359 -1.1932  1.4847 -0.9567
22025SOL    HW272934   2.507   6.642   5.287 -0.8243 -0.6649  0.6230
22026SOL     OW72935   8.999   2.845   1.556  0.2023  0.7128  0.3017
22026SOL    HW172936   9.089   2.844   1.522  0.2185 -1.0555  0.2663
22026SOL    HW272937   9.009   2.842   1.651  0.1619  1.6177  0.3427
22027SOL     OW72938   5.308   3.563   9.373  0.0027 -0.8303 -0.3218
22027SOL    HW172939   5.226   3.605   9.347 -0.6718 -1.6406  0.4008
22027SOL    HW272940   5.354   3.547   9.291  0.5023  1.6772 -0.5990
22028SOL     OW72941   3.546   4.755   6.639 -0.1661 -0.1052 -0.2404
22028SOL    HW172942   3.624   4.722   6.594 -0.6949 -0.2877 -1.0482
22028SOL    HW272943   3.523   4.686   6.701 -0.6419 -0.8011 -1.1667
22029SOL     OW72944   6.806   4.855   4.346 -0.3398 -0.1318 -0.2178
22029SOL    HW172945   6.728   4.805   4.324 -0.0661  0.3421 -2.5141
22029SOL    HW272946   6.780   4.908   4.421 -1.3754 -1.8636  0.7258
22030SOL     OW72947   5.219   6.388   3.035  0.1092 -0.7609 -0.3431
22030SOL    HW172948   5.292   6.448   3.051 -0.3972  1.1400 -4.1242
22030SOL    HW272949   5.246   6.335   2.961 -1.5972 -1.4186 -0.5516
22031SOL     OW72950   8.840   6.377   4.626  0.5055  0.0915 -0.7762
22031SOL    HW172951   8.880   6.445   4.570  2.1356 -0.1959 -0.0045
22031SOL    HW272952   8.785   6.327   4.566  0.0440  1.4705 -1.5656
22032SOL     OW72953   2.613   1.480   7.240  0.2036 -0.4355 -0.2281
22032SOL    HW172954   2.610   1.402   7.184  0.6621 -0.4361 -0.2571
22032SOL    HW272955   2.588   1.552   7.183  2.3765 -0.1744 -0.9219
22033SOL     OW72956   5.598  12.148   6.334  0.0323  0.2832  0.3143
22033SOL    HW172957   5.657  12.124   6.263  0.3097  0.4774  0.4769
22033SOL    HW272958   5.647  12.129   6.414 -0.0327  0.6743  0.4501
22034SOL     OW72959   0.853   7.601   8.793 -0.1287  0.3924 -0.3832
22034SOL    HW172960   0.767   7.613   8.752 -0.1626  0.8074 -0.1925
22034SOL    HW272961   0.839   7.627   8.884  0.2074  0.4863 -0.3582
22035SOL     OW72962  10.340   2.678   3.842 -0.4426  0.4193  0.2681
22035SOL    HW172963  10.355   2.693   3.935  0.7390  1.1717 -0.0149
22035SOL    HW272964  10.248   2.699   3.828 -0.4061  1.2032  1.1042
22036SOL     OW72965  11.060   5.075   6.655 -0.4314  0.0590 -0.1507
22036SOL    HW172966  11.099   5.138   6.716 -0.8158  0.9511 -0.8068
22036SOL    HW272967  11.120   5.001   6.657 -0.2553  0.2041  1.0476
22037SOL     OW72968  10.076   4.744  11.942 -0.6328  0.0907  0.1133
22037SOL    HW172969  10.055   4.751  11.849 -0.8530  1.1206  0.2342
22037SOL    HW272970  10.028   4.666  11.972 -1.3230  0.3089 -0.4252
22038SOL     OW72971  11.215   5.639  12.018  0.0410 -0.8134  0.4873
22038SOL    HW172972  11.298   5.686  12.009 -0.0302 -0.5505  1.1640
22038SOL    HW272973  11.240   5.553  12.052  0.1098 -1.0417 -0.1244
22039SOL     OW72974   7.266   0.027   9.435 -0.1031 -0.1801  0.4985
22039SOL    HW172975   7.317   0.043   9.356  1.7716 -0.7283  1.5514
22039SOL    HW272976   7.262   0.111   9.480 -0.8323  0.0410  0.0384
22040SOL     OW72977   9.214  12.450   5.074 -0.4131  0.4476  0.2537
22040SOL    HW172978   9.213  12.427   4.981 -0.1359  1.3504  0.0197
22040SOL    HW272979   9.286  12.512   5.083 -1.2216  1.3419  0.8307
22041SOL     OW72980  10.795   9.050   9.476 -0.0291 -0.4471 -0.2252
22041SOL    HW172981  10.713   9.057   9.525 -0.4748  0.4651 -1.0698
22041SOL    HW272982  10.825   8.960   9.493 -0.9472 -0.6323  0.4924
22042SOL     OW72983  11.186  10.105   8.815  0.6171  0.0574  0.1766
22042SOL    HW172984  11.278  10.078   8.819  0.3529 -0.7944  0.6144
22042SOL    HW272985  11.142  10.034   8.767 -0.1343 -0.4564  1.5856
22043SOL     OW72986   6.839   2.815   0.035  0.5063 -0.4675  0.5011
22043SOL    HW172987   6.796   2.897   0.061 -1.3036 -0.9906 -0.6283
22043SOL    HW272988   6.777   2.747   0.061  1.1995 -1.3606 -0.1412
22044SOL     OW72989  11.316   6.656  11.211 -0.2244  0.6273  0.8179
22044SOL    HW172990  11.351   6.727  11.157  0.1072  1.7959  2.4886
22044SOL    HW272991  11.245   6.619  11.159  0.6294  1.1255 -0.7631
22045SOL     OW72992   7.212   4.128   5.797  0.4069  0.2723  0.3037
22045SOL    HW172993   7.128   4.134   5.751  0.6047 -0.2445 -0.1316
22045SOL    HW272994   7.278   4.136   5.728  0.7056 -0.7586  0.4500
22046SOL     OW72995   0.081   1.745   6.061  0.2222  0.4990 -0.1635
22046SOL    HW172996   0.148   1.803   6.097  1.2797 -0.5222 -0.4368
22046SOL    HW272997   0.125   1.697   5.990 -0.3173 -1.3145  0.6535
22047SOL     OW72998  12.501   8.232   4.660 -0.3939  0.2943  0.1196
22047SOL    HW172999  12.543   8.305   4.615  0.6861  0.7560  1.7608
22047SOL    HW273000  12.538   8.235   4.749 -1.3910 -1.3865  0.6322
22048SOL     OW73001   3.656  11.418   1.440 -0.2046  0.4158  0.1684
22048SOL    HW173002   3.644  11.464   1.357  1.4674 -1.6430 -1.3248
22048SOL    HW273003   3.751  11.403   1.445 -0.5818 -2.0119  0.9905
22049SOL     OW73004  10.346   9.392   5.907 -0.6353  0.0734 -0.2193
22049SOL    HW173005  10.380   9.346   5.830  1.4706  0.3899  0.4458
22049SOL    HW273006  10.308   9.473   5.872  1.2317  0.7174 -0.8833
22050SOL     OW73007  11.147   7.322   0.612  0.0703 -0.3196 -0.6066
22050SOL    HW173008  11.143   7.346   0.519  2.5204 -1.6075 -1.0977
22050SOL    HW273009  11.233   7.350   0.641 -0.9579  0.8763  1.5981
22051SOL     OW73010   7.315  10.366   7.642 -0.2849 -0.1333  0.2312
22051SOL    HW173011   7.314  10.456   7.673 -0.3004 -0.1996  0.4297
22051SOL    HW273012   7.408  10.342   7.640 -0.3188 -0.3409  0.8637
22052SOL     OW73013   1.185   7.345   3.348 -0.3653 -0.1330  0.2263
22052SOL    HW173014   1.278   7.368   3.340 -0.9885  1.9069 -2.2567
22052SOL    HW273015   1.186   7.252   3.371  2.2672 -0.0040  1.0012
22053SOL     OW73016   4.633   7.678   9.472 -0.3584  0.2724  0.1913
22053SOL    HW173017   4.718   7.636   9.486 -0.3320  0.5780  1.0082
22053SOL    HW273018   4.607   7.709   9.559  0.3519  3.3167 -0.5374
22054SOL     OW73019   7.468   6.227   9.114 -0.3975 -0.4635 -0.2131
22054SOL    HW173020   7.402   6.296   9.115 -0.2618 -0.3246  1.5368
22054SOL    HW273021   7.546   6.268   9.078 -0.1238  0.5106  1.4207
22055SOL     OW73022   2.486   6.047   1.532 -0.2356  0.0250 -0.2809
22055SOL    HW173023   2.433   5.968   1.540  0.3251 -0.2850  0.5460
22055SOL    HW273024   2.570   6.023   1.572  0.3527  0.6633 -1.1034
22056SOL     OW73025  11.932   3.924   1.673  0.6991 -0.8065 -0.3879
22056SOL    HW173026  11.852   3.950   1.627  0.5737  1.1771  0.8280
22056SOL    HW273027  11.979   3.868   1.611 -0.8943 -0.7413 -1.7064
22057SOL     OW73028   8.814   5.040   4.882 -0.0911  0.6526 -0.4514
22057SOL    HW173029   8.882   5.080   4.828  1.0420 -0.8197 -0.1762
22057SOL    HW273030   8.824   4.946   4.868  0.4750  0.1562  2.4604
22058SOL     OW73031   6.417   4.725   7.945 -0.6433 -0.1164  0.0369
22058SOL    HW173032   6.426   4.805   7.998  0.1372 -0.1817  0.0174
22058SOL    HW273033   6.505   4.686   7.947 -0.5333  0.0055 -1.5096
22059SOL     OW73034   7.153   3.201   9.545 -0.2235  0.1763  0.3542
22059SOL    HW173035   7.114   3.121   9.582  0.5237 -1.8270 -2.8374
22059SOL    HW273036   7.077   3.254   9.520 -0.7340  0.6397  2.6571
22060SOL     OW73037   3.064   1.027   0.436 -0.6763  0.2554  0.0582
22060SOL    HW173038   3.071   1.003   0.529  1.0607 -0.5458 -0.2378
22060SOL    HW273039   3.123   1.101   0.426 -1.4653  0.8540 -0.2682
22061SOL     OW73040   3.254  12.386   9.299  0.2503 -0.7435  0.0007
22061SOL    HW173041   3.230  12.479   9.306  1.4412 -0.4211 -0.0071
22061SOL    HW273042   3.179  12.346   9.254 -0.5261  0.0993  0.4988
22062SOL     OW73043   8.442   0.420   9.419 -0.4066 -0.1005  0.1814
22062SOL    HW173044   8.479   0.342   9.459 -0.4768  1.1353  2.8659
22062SOL    HW273045   8.350   0.398   9.405 -0.1609 -0.8933 -0.2353
22063SOL     OW73046  12.007   3.464  11.708  0.2895  0.0034 -0.3813
22063SOL    HW173047  11.927   3.451  11.759  0.1924 -0.5181 -0.6506
22063SOL    HW273048  12.066   3.394  11.738  0.8192  0.6698  0.1491
22064SOL     OW73049  10.915  12.474   1.327 -0.2601 -0.7739  0.3004
22064SOL    HW173050  10.838  12.420   1.312 -2.0860  1.7807 -0.1633
22064SOL    HW273051  10.909  12.543   1.261  2.3395 -0.3630  0.3917
22065SOL     OW73052  10.872   1.982   2.222  0.4651  0.2662  0.6762
22065SOL    HW173053  10.802   2.036   2.259 -0.4142 -1.0080  0.9520
22065SOL    HW273054  10.946   2.042   2.212  0.1276  1.1130  2.7099
22066SOL     OW73055   5.096   6.146   3.870 -0.4995 -0.2615 -0.0356
22066SOL    HW173056   5.178   6.175   3.830 -0.2515  1.0914  1.3492
22066SOL    HW273057   5.051   6.228   3.894 -2.0433 -0.9825 -0.3278
22067SOL     OW73058   1.236   8.695   3.702 -0.3630 -0.5390  0.0684
22067SOL    HW173059   1.251   8.777   3.656  1.8147 -1.8685 -1.8717
22067SOL    HW273060   1.174   8.648   3.647  0.1737 -1.0692 -0.1030
22068SOL     OW73061   2.381   2.543   1.958 -0.3498 -0.1814 -0.2006
22068SOL    HW173062   2.328   2.540   2.037  0.5255  0.6499  0.4557
22068SOL    HW273063   2.352   2.469   1.906 -2.0625  0.1881  0.1757
22069SOL     OW73064   3.931   3.991  11.082  0.6559 -0.0244  0.1094
22069SOL    HW173065   3.884   4.066  11.116  1.5962  0.4677  0.3622
22069SOL    HW273066   3.947   4.013  10.990  2.6775  1.0327  0.6544
22070SOL     OW73067   2.295   0.657   0.123  0.1730 -0.0929  0.3384
22070SOL    HW173068   2.246   0.598   0.181 -0.8607  1.3232  0.9638
22070SOL    HW273069   2.364   0.694   0.178  1.1252 -1.0497 -0.1816
22071SOL     OW73070   6.525  12.325   8.912 -0.4744 -0.3194  0.0520
22071SOL    HW173071   6.506  12.396   8.851  0.0382 -0.1205  0.1204
22071SOL    HW273072   6.600  12.357   8.963  1.0545 -1.6838 -1.2195
22072SOL     OW73073   0.819  11.235   0.102 -0.1223  0.0767 -0.1432
22072SOL    HW173074   0.877  11.164   0.074 -0.6709 -0.2606 -0.4345
22072SOL    HW273075   0.873  11.286   0.163 -0.3462 -1.7532  1.7151
22073SOL     OW73076  12.104   6.859   8.496  0.2527  0.0597 -0.3682
22073SOL    HW173077  12.156   6.940   8.495  2.0367 -0.8893 -3.9924
22073SOL    HW273078  12.022   6.883   8.454  0.9053  0.0198 -1.7390
22074SOL     OW73079   7.556   3.450   5.530  0.0104  0.2763 -0.1292
22074SOL    HW173080   7.541   3.469   5.623 -1.2134 -1.1799 -0.0042
22074SOL    HW273081   7.484   3.492   5.485  0.5010  0.8181 -0.4274
22075SOL     OW73082   0.696  12.363  10.285  0.4427 -0.7218 -0.3772
22075SOL    HW173083   0.643  12.297  10.329 -0.0909 -2.1112 -2.8861
22075SOL    HW273084   0.748  12.314  10.222  0.4427  1.1718 -1.9687
22076SOL     OW73085   4.253   3.292  10.734 -0.1756 -0.6754 -0.0590
22076SOL    HW173086   4.235   3.284  10.640  1.4969  0.1890 -0.4907
22076SOL    HW273087   4.327   3.234  10.749 -1.8293 -2.5951  1.2496
22077SOL     OW73088   5.352   3.277   7.861  0.7610 -0.0370  0.7410
22077SOL    HW173089   5.353   3.222   7.940  1.8475 -0.6558  0.3208
22077SOL    HW273090   5.268   3.321   7.864  0.8734  0.1443  2.3933
22078SOL     OW73091   3.598   4.114   4.381 -0.7576 -0.3730  0.1851
22078SOL    HW173092   3.582   4.080   4.293  0.0230 -1.8565  0.5704
22078SOL    HW273093   3.516   4.097   4.428 -1.0531  0.0940 -0.1549
22079SOL     OW73094   0.143   9.885  10.119 -0.2186  0.0883 -0.6942
22079SOL    HW173095   0.068   9.829  10.098 -0.0204  0.6632 -3.2344
22079SOL    HW273096   0.115   9.973  10.095  0.7376  0.5346 -0.2207
22080SOL     OW73097   2.754   1.475   4.902 -0.0918 -0.2485  0.2582
22080SOL    HW173098   2.727   1.388   4.929  0.1710 -0.6646 -0.7820
22080SOL    HW273099   2.709   1.490   4.819  0.4759  0.2888  0.0348
22081SOL     OW73100  10.038   4.025   6.573 -0.3078 -0.3085  0.2209
22081SOL    HW173101   9.946   4.003   6.556 -0.7622  0.6004  1.3718
22081SOL    HW273102  10.080   3.940   6.586 -0.8669 -0.7643 -0.7774
22082SOL     OW73103   0.968   6.590   1.144 -0.6191  0.1677 -0.3755
22082SOL    HW173104   1.030   6.637   1.201  0.2441 -0.4386 -0.7906
22082SOL    HW273105   0.901   6.558   1.204  0.0794 -0.1486  0.2651
22083SOL     OW73106   8.231   7.013   7.817  0.1814 -0.2497  0.0542
22083SOL    HW173107   8.296   7.078   7.844  1.1992 -0.5911 -1.4490
22083SOL    HW273108   8.190   7.050   7.739 -0.9083 -0.3957  0.5326
22084SOL     OW73109   9.903   0.725   3.009 -0.1929 -0.3132  0.3278
22084SOL    HW173110   9.952   0.674   3.073  2.2830  2.0529  0.4674
22084SOL    HW273111   9.902   0.814   3.044 -1.5752  0.4200 -1.4043
22085SOL     OW73112   7.624  11.706   9.134 -0.3408 -0.0292 -0.2069
22085SOL    HW173113   7.561  11.726   9.204 -0.1682  2.8795 -0.7397
22085SOL    HW273114   7.573  11.713   9.053  0.0940 -0.3604 -0.5091
22086SOL     OW73115   8.123   9.672   4.601  0.1956  0.4353  0.5939
22086SOL    HW173116   8.185   9.628   4.660  0.4181  2.2115  1.7580
22086SOL    HW273117   8.040   9.627   4.615  0.9889 -1.4911 -0.4395
22087SOL     OW73118   0.831   6.776   7.839  0.2833 -0.3559  0.0918
22087SOL    HW173119   0.872   6.839   7.779  0.7498 -0.9622 -0.2419
22087SOL    HW273120   0.738   6.800   7.839  0.4838  0.4618  0.1349
22088SOL     OW73121   1.902   7.445   4.668 -0.5397 -0.5289  0.2799
22088SOL    HW173122   1.943   7.401   4.594 -0.9345  1.0668 -0.9547
22088SOL    HW273123   1.932   7.397   4.745  1.7774 -0.8267 -0.7326
22089SOL     OW73124   7.333   1.273   4.297  0.1730 -0.4548 -0.1416
22089SOL    HW173125   7.402   1.212   4.326 -0.2831 -0.4482  0.9935
22089SOL    HW273126   7.374   1.322   4.226  2.0876  0.9678  1.8098
22090SOL     OW73127   7.525   2.733   4.426  0.3089 -0.1794 -0.1228
22090SOL    HW173128   7.516   2.729   4.521  0.2442  0.3159 -0.1023
22090SOL    HW273129   7.618   2.755   4.412 -0.1398  2.0324 -0.0797
22091SOL     OW73130   3.753  11.848   0.312  0.5524 -0.9106 -0.1753
22091SOL    HW173131   3.829  11.879   0.363  0.4251 -1.0840  0.1262
22091SOL    HW273132   3.760  11.893   0.228  0.8513 -0.7322 -0.0567
22092SOL     OW73133   2.764   9.427   0.668  0.0842 -0.0214 -0.0426
22092SOL    HW173134   2.673   9.432   0.639 -0.0041 -0.2928  0.1848
22092SOL    HW273135   2.815   9.439   0.588 -0.1560 -0.5925 -0.2875
22093SOL     OW73136   6.361  12.113   2.361 -0.8325  0.6165  0.0415
22093SOL    HW173137   6.359  12.147   2.450  0.1430  0.6910  0.0374
22093SOL    HW273138   6.277  12.141   2.323 -0.8691  1.3396  0.6479
22094SOL     OW73139   9.463   7.551   4.664 -0.3713 -0.1009 -0.1670
22094SOL    HW173140   9.475   7.456   4.664 -1.5456 -0.2559 -0.4205
22094SOL    HW273141   9.513   7.581   4.740 -3.3164 -1.3810  2.5155
22095SOL     OW73142   5.730  11.429   8.030 -0.4164 -0.8081 -0.5399
22095SOL    HW173143   5.819  11.415   7.996  0.3143  1.5590  0.1853
22095SOL    HW273144   5.735  11.396   8.120 -0.0209  0.0291 -0.2471
22096SOL     OW73145   8.138   2.083  12.364 -0.1905 -0.2839 -0.3353
22096SOL    HW173146   8.155   2.097  12.271  1.0095 -2.5220 -0.5097
22096SOL    HW273147   8.043   2.069  12.368 -0.9248  3.6059 -0.5941
22097SOL     OW73148   2.475   6.215   1.885  0.1752 -0.0242 -0.1738
22097SOL    HW173149   2.385   6.185   1.873 -0.0684  0.7680 -0.4018
22097SOL    HW273150   2.529   6.140   1.862 -0.4111 -0.2251 -0.9126
22098SOL     OW73151   2.180  10.126   4.408 -0.1167  0.4021  0.3640
22098SOL    HW173152   2.216  10.038   4.413 -3.6776 -1.2117  0.4468
22098SOL    HW273153   2.166  10.152   4.499 -0.7220  0.2436  0.3255
22099SOL     OW73154   3.409   9.568   1.960  0.2108 -0.5114  0.1402
22099SOL    HW173155   3.381   9.492   2.013  0.7131  0.2256  1.5129
22099SOL    HW273156   3.348   9.637   1.985 -0.0672 -0.3759 -0.8985
22100SOL     OW73157   4.423   8.812   7.985  0.6000  0.6345 -0.1268
22100SOL    HW173158   4.373   8.763   7.920  1.1206  0.1601 -0.1722
22100SOL    HW273159   4.357   8.860   8.035  0.0742 -0.2490  0.0409
22101SOL     OW73160   6.617   5.338   3.099  0.0296 -0.3063 -0.1460
22101SOL    HW173161   6.623   5.417   3.152  4.4366 -1.0844  0.8947
22101SOL    HW273162   6.564   5.278   3.152  0.1804  0.5757  1.0507
22102SOL     OW73163   0.020   3.499   2.665  0.1130 -0.0621  0.1454
22102SOL    HW173164  -0.006   3.413   2.632  1.0892 -0.8790  1.3883
22102SOL    HW273165   0.113   3.505   2.646 -0.0500  0.9811 -0.4195
22103SOL     OW73166  11.004  11.248   0.545  0.3332 -0.3856  0.3548
22103SOL    HW173167  11.051  11.188   0.487  1.9989  0.8081  0.3801
22103SOL    HW273168  11.058  11.252   0.624 -0.4615  0.1042  0.8916
22104SOL     OW73169  10.591   3.990   5.025 -0.3900  0.1018  0.2064
22104SOL    HW173170  10.533   3.936   4.971 -0.5314  0.2694  0.1896
22104SOL    HW273171  10.679   3.958   5.006 -0.4498  0.0865 -0.0385
22105SOL     OW73172   2.719   4.046  12.498  0.1867 -0.2018  0.3151
22105SOL    HW173173   2.696   4.066  12.408 -0.1440 -0.3089  0.3722
22105SOL    HW273174   2.685   3.957  12.512  1.0884 -0.5738  0.2500
22106SOL     OW73175   7.527   0.447   7.125 -0.6124 -0.2986  1.1140
22106SOL    HW173176   7.581   0.516   7.089 -0.7297 -0.9325 -0.3655
22106SOL    HW273177   7.511   0.473   7.216  1.5211  0.2749  1.3782
22107SOL     OW73178   8.189   7.097   5.989 -0.2865  0.1227  0.6457
22107SOL    HW173179   8.173   7.167   5.926 -0.2927 -0.8182 -0.4183
22107SOL    HW273180   8.212   7.143   6.070 -3.5276  1.4710  0.9545
22108SOL     OW73181   1.110   7.660   1.605  0.0480  0.8643 -0.2242
22108SOL    HW173182   1.065   7.679   1.522 -0.6980 -0.8862 -0.2730
22108SOL    HW273183   1.140   7.570   1.594  1.5419  1.2276  0.7347
22109SOL     OW73184   7.339   1.532   7.725 -0.2282  0.0349  0.5197
22109SOL    HW173185   7.368   1.591   7.795 -1.3544  0.7843  0.3760
22109SOL    HW273186   7.372   1.572   7.645 -0.4939  0.1516  0.4696
22110SOL     OW73187   1.694  11.657   8.172  0.0491  0.0162  0.0152
22110SOL    HW173188   1.691  11.658   8.077  0.7419 -1.3055 -0.0424
22110SOL    HW273189   1.785  11.678   8.194 -0.2098  0.7636  0.4062
22111SOL     OW73190   0.240   8.477   9.922  0.2432 -0.0696  0.0932
22111SOL    HW173191   0.188   8.470   9.842 -0.6038  1.6025  0.4659
22111SOL    HW273192   0.320   8.426   9.903 -1.7214 -3.3473 -0.2538
22112SOL     OW73193   1.209   9.755  11.119 -0.5389 -0.3478 -0.4890
22112SOL    HW173194   1.146   9.738  11.189  2.0932  0.1223  2.1713
22112SOL    HW273195   1.216   9.850  11.115  0.9322 -0.4036  0.1989
22113SOL     OW73196  11.888   6.779   2.879 -0.9664  0.1377  0.5847
22113SOL    HW173197  11.937   6.698   2.896 -0.5948  0.4297  0.9391
22113SOL    HW273198  11.897   6.794   2.785 -2.0219 -0.8568  0.3075
22114SOL     OW73199   9.188   8.175   6.819 -0.0732  0.2942  0.9013
22114SOL    HW173200   9.104   8.140   6.849  0.7185 -2.3246  0.3646
22114SOL    HW273201   9.165   8.246   6.760 -1.9313 -0.3981  0.7230
22115SOL     OW73202   0.120   3.121   5.835  0.2062 -0.3326 -0.8233
22115SOL    HW173203   0.163   3.192   5.787 -0.0076 -0.0328 -0.5778
22115SOL    HW273204   0.086   3.163   5.915 -1.0284 -0.4360 -1.2648
22116SOL     OW73205   2.828   5.161   6.662  0.3994 -0.9346 -0.2622
22116SOL    HW173206   2.769   5.216   6.609 -1.4558 -2.5651  0.0078
22116SOL    HW273207   2.779   5.145   6.742  2.3156 -0.2692  1.0984
22117SOL     OW73208   3.831  11.837   5.964  0.6061 -0.3022  0.0022
22117SOL    HW173209   3.801  11.804   6.048 -1.6799  2.1755  0.2986
22117SOL    HW273210   3.903  11.897   5.985  1.5397 -1.3681 -0.0755
22118SOL     OW73211   2.841   8.701  10.241 -0.0667  0.7910 -0.2269
22118SOL    HW173212   2.902   8.685  10.169 -0.5677 -2.2992 -0.0920
22118SOL    HW273213   2.897   8.718  10.317  0.5209  1.2098 -0.7491
22119SOL     OW73214   6.970   8.648   2.303 -0.2502 -0.1873 -0.2703
22119SOL    HW173215   6.948   8.670   2.212 -0.9050  0.9828  0.1617
22119SOL    HW273216   6.889   8.660   2.351 -0.1703 -1.7639  0.3363
22120SOL     OW73217   4.986  11.908   7.649  0.2002  0.3240 -0.0525
22120SOL    HW173218   4.938  11.964   7.587 -0.1772 -0.7983 -0.8130
22120SOL    HW273219   4.929  11.901   7.725  0.6437  1.6780  0.4226
22121SOL     OW73220  11.991   9.636  10.857 -0.2351  0.1078 -0.2497
22121SOL    HW173221  12.029   9.601  10.776  0.6602  0.2625  0.0997
22121SOL    HW273222  11.933   9.566  10.888  0.6269 -0.5857 -0.1922
22122SOL     OW73223   2.512   3.728   1.078 -0.4565 -0.1448 -0.2429
22122SOL    HW173224   2.568   3.716   1.001  1.0666  2.0067  0.4262
22122SOL    HW273225   2.506   3.641   1.117  2.1443 -0.5595 -0.5760
22123SOL     OW73226   7.018   7.844   3.883 -0.1004 -0.0518 -0.0803
22123SOL    HW173227   7.114   7.849   3.891 -0.1853 -0.3322  1.5166
22123SOL    HW273228   7.002   7.845   3.789  1.6169 -2.5765 -0.5142
22124SOL     OW73229   8.456   8.756   3.111 -0.5258  0.4547  0.0527
22124SOL    HW173230   8.522   8.687   3.114  1.4728  2.2079 -1.0345
22124SOL    HW273231   8.498   8.829   3.065 -2.1320  2.8237  2.0313
22125SOL     OW73232   6.419   9.489   2.658 -0.0409 -0.8400  0.1390
22125SOL    HW173233   6.485   9.556   2.639 -0.4166 -0.6735 -0.5980
22125SOL    HW273234   6.470   9.409   2.673  0.3604 -0.5966  0.0840
22126SOL     OW73235  10.506   9.054   6.010  1.2270  0.2840  0.1185
22126SOL    HW173236  10.504   9.084   5.919  1.7539  2.7095  0.8425
22126SOL    HW273237  10.424   9.005   6.020  1.0043  0.2324 -1.5601
22127SOL     OW73238  12.297   8.981   0.649  0.6185 -0.0578 -0.5175
22127SOL    HW173239  12.300   8.985   0.553 -1.9958  1.4601 -0.6605
22127SOL    HW273240  12.206   8.957   0.669  0.6087  1.3663  1.5380
22128SOL     OW73241   2.452  10.488   4.914 -0.2861 -0.3395  0.3223
22128SOL    HW173242   2.460  10.581   4.894 -2.5948 -0.0963  0.1649
22128SOL    HW273243   2.541  10.459   4.933  0.5504  1.7852 -0.0749
22129SOL     OW73244   3.672   0.330   2.930 -0.1289  0.2358  0.6828
22129SOL    HW173245   3.627   0.267   2.873  1.0295  0.8075 -0.9354
22129SOL    HW273246   3.719   0.388   2.869  0.6973  1.2323  2.2139
22130SOL     OW73247  11.006   8.505   4.425 -0.1665 -0.7583  0.3064
22130SOL    HW173248  10.951   8.431   4.454  0.4364 -1.2885  0.1206
22130SOL    HW273249  11.093   8.467   4.415  0.4841  0.3067  1.6488
22131SOL     OW73250   6.474   1.433   3.657  0.0740 -0.5533 -0.0184
22131SOL    HW173251   6.397   1.489   3.658  0.6226  0.2277 -0.7475
22131SOL    HW273252   6.495   1.421   3.565 -0.3096 -2.3781  0.0928
22132SOL     OW73253   0.766   8.273   4.532 -0.1479  0.1999  0.0447
22132SOL    HW173254   0.784   8.298   4.622 -1.2781 -2.1688  1.0302
22132SOL    HW273255   0.849   8.284   4.486  0.9924 -0.4116  1.8641
22133SOL     OW73256   1.276  10.643   8.107 -0.5069  0.0269  0.5959
22133SOL    HW173257   1.207  10.693   8.150  0.5382  2.4721 -0.3675
22133SOL    HW273258   1.350  10.703   8.103  1.1398 -1.9102  0.0587
22134SOL     OW73259   3.203   3.108   9.071  0.2959 -0.6571 -0.3145
22134SOL    HW173260   3.276   3.094   9.130  0.8429 -0.6842 -0.9908
22134SOL    HW273261   3.190   3.024   9.027 -1.4258 -1.2630  1.1904
22135SOL     OW73262   3.373  12.359   2.138  0.1611  0.7817 -0.2060
22135SOL    HW173263   3.440  12.303   2.178 -0.8335 -0.3987 -0.1138
22135SOL    HW273264   3.321  12.391   2.211  0.8452  2.0490 -0.2393
22136SOL     OW73265   4.861   6.084   6.592  0.1948 -0.3093 -0.3065
22136SOL    HW173266   4.825   6.021   6.654 -1.3536 -0.6435 -1.4802
22136SOL    HW273267   4.829   6.055   6.507  1.4282  0.7153 -1.1548
22137SOL     OW73268   3.404   9.943   6.048  0.2564 -0.8275 -0.0771
22137SOL    HW173269   3.356   9.883   5.991 -0.4411  0.2314 -0.6251
22137SOL    HW273270   3.468   9.985   5.991  1.3014 -1.5974  0.4732
22138SOL     OW73271   5.266   8.046  11.598 -0.0280  0.3181 -0.2082
22138SOL    HW173272   5.283   8.080  11.686 -0.5371  1.4330 -0.5264
22138SOL    HW273273   5.298   7.956  11.601  1.1153  0.7223  0.7501
22139SOL     OW73274   9.808   2.029   7.341  0.1881  0.5394  0.0464
22139SOL    HW173275   9.750   2.075   7.401  0.8150  3.2074 -1.2779
22139SOL    HW273276   9.868   1.982   7.398 -1.2221  0.3293  1.4475
22140SOL     OW73277  12.293   6.292   3.414 -0.1562  0.4808 -0.5243
22140SOL    HW173278  12.274   6.268   3.323  2.0386  1.3786 -1.2992
22140SOL    HW273279  12.208   6.309   3.453 -1.2042 -0.6040 -2.2081
22141SOL     OW73280   3.539  10.465   7.809 -0.1407  0.3389  0.1655
22141SOL    HW173281   3.623  10.494   7.844  0.2134 -0.8954  0.3694
22141SOL    HW273282   3.489  10.439   7.886  0.9877 -3.3207 -0.1447
22142SOL     OW73283   8.317   2.122   8.293 -0.3185  0.3197 -0.6837
22142SOL    HW173284   8.310   2.049   8.356 -1.7689  0.7200 -0.3291
22142SOL    HW273285   8.294   2.083   8.209 -0.1276  0.1541 -0.6592
22143SOL     OW73286   4.195   8.820  12.186 -0.1908 -0.5217  0.1592
22143SOL    HW173287   4.134   8.761  12.142  0.9123 -1.7093  0.1895
22143SOL    HW273288   4.277   8.810  12.139  0.0310  1.0198  0.1516
22144SOL     OW73289   2.874   8.957   9.972 -0.7779 -0.1155 -0.3578
22144SOL    HW173290   2.802   9.017   9.988  0.0020  0.5382  0.7493
22144SOL    HW273291   2.949   9.013   9.951 -0.8246 -0.8030 -2.7562
22145SOL     OW73292  11.218   6.641   7.196  0.1142 -0.2427  0.3189
22145SOL    HW173293  11.193   6.672   7.284  0.8514 -0.1055  0.4820
22145SOL    HW273294  11.281   6.706   7.165 -0.0865 -0.3306 -0.2913
22146SOL     OW73295   2.265   7.576  11.108  0.0468  0.3755 -0.8718
22146SOL    HW173296   2.211   7.653  11.089 -0.6735  0.1652  0.2198
22146SOL    HW273297   2.344   7.588  11.055  1.2707  3.3054  1.3557
22147SOL     OW73298   9.290   5.341  10.236 -0.0145 -0.1424 -0.0859
22147SOL    HW173299   9.324   5.252  10.233  0.3679 -0.0429  0.9099
22147SOL    HW273300   9.224   5.344  10.167 -0.0797 -1.2085 -0.0812
22148SOL     OW73301   7.016  11.747  10.902 -0.3961 -0.2325 -0.0949
22148SOL    HW173302   7.046  11.773  10.989  0.0803 -0.7099 -0.1077
22148SOL    HW273303   7.095  11.718  10.857 -0.5390  0.6342 -0.9251
22149SOL     OW73304  12.300   8.113   5.172 -0.0756  0.0951 -0.2896
22149SOL    HW173305  12.362   8.042   5.189 -0.3373 -0.6382 -2.1728
22149SOL    HW273306  12.352   8.193   5.181  0.9251 -0.4624 -0.8846
22150SOL     OW73307   2.330   6.712   0.033  0.5169 -0.2015 -0.4442
22150SOL    HW173308   2.263   6.662  -0.014  0.2482 -1.4529  1.1769
22150SOL    HW273309   2.367   6.771  -0.033 -0.5922 -1.0995 -1.9262
22151SOL     OW73310   8.631   6.850   6.108  0.0020 -0.2265  0.5183
22151SOL    HW173311   8.599   6.863   6.197 -2.1985 -1.6084  0.0184
22151SOL    HW273312   8.618   6.934   6.065 -1.9959 -0.4095  0.6821
22152SOL     OW73313   1.822  10.502   1.565  0.0442 -0.0655 -0.2068
22152SOL    HW173314   1.756  10.469   1.503  0.4273 -1.0404 -0.1241
22152SOL    HW273315   1.780  10.494   1.651 -0.2886  0.7752 -0.2848
22153SOL     OW73316   6.581   2.265  12.433  0.3247 -0.4663  0.3418
22153SOL    HW173317   6.606   2.221  12.352  1.5452 -0.9835  0.9702
22153SOL    HW273318   6.553   2.195  12.492 -1.0980 -0.0427  0.2157
22154SOL     OW73319   4.076   9.049   0.592  0.2115 -0.1042  0.5431
22154SOL    HW173320   4.139   8.977   0.596 -0.0734 -0.3650  0.3246
22154SOL    HW273321   3.993   9.008   0.571 -0.0019  0.2613  0.6599
22155SOL     OW73322   1.414  11.100   9.719 -0.3990 -0.1239 -0.1057
22155SOL    HW173323   1.373  11.157   9.784 -0.0170 -0.3393  0.3321
22155SOL    HW273324   1.438  11.022   9.768  1.6491  0.4885 -0.0506
22156SOL     OW73325   8.327   3.132   1.204  0.2583 -0.2743 -0.2042
22156SOL    HW173326   8.296   3.131   1.113 -0.7601 -0.1294  0.1198
22156SOL    HW273327   8.280   3.060   1.246 -2.5067  2.0810  1.1493
22157SOL     OW73328  10.547   4.430   7.649 -0.8136  0.1124 -0.6303
22157SOL    HW173329  10.604   4.403   7.577  1.5336  2.7929  0.0401
22157SOL    HW273330  10.536   4.350   7.701  3.9674 -0.3296  0.1753
22158SOL     OW73331   0.268  10.961   2.946  0.6412 -0.0140 -0.5769
22158SOL    HW173332   0.175  10.979   2.933  0.6912  1.2035  0.5774
22158SOL    HW273333   0.271  10.870   2.973 -0.3186  0.2077  0.3181
22159SOL     OW73334   6.310  11.230   3.508 -0.4426 -0.0703 -0.1543
22159SOL    HW173335   6.268  11.152   3.546 -0.6915 -0.4728 -1.2293
22159SOL    HW273336   6.238  11.281   3.472 -0.1402 -0.1107 -0.8301
22160SOL     OW73337   5.805   7.994   1.540 -0.0984  0.1685  0.0844
22160SOL    HW173338   5.772   7.980   1.451  1.5408 -1.2516 -0.3524
22160SOL    HW273339   5.873   8.060   1.530  0.1934 -0.1049  0.2526
22161SOL     OW73340   0.336   7.729   1.005 -0.3026 -0.1833 -0.0895
22161SOL    HW173341   0.297   7.807   0.965  0.2537  0.0710 -0.1496
22161SOL    HW273342   0.353   7.756   1.096 -1.8445 -0.8534  0.4424
22162SOL     OW73343  11.140   1.362   3.985 -0.1793  0.2186  0.1473
22162SOL    HW173344  11.159   1.447   3.947  0.0847  0.1943  0.2252
22162SOL    HW273345  11.145   1.301   3.911 -2.3032  0.5173 -0.3087
22163SOL     OW73346  10.494   3.091   8.938  0.3251  0.3840  0.1310
22163SOL    HW173347  10.484   3.177   8.898  2.0819  1.1932  1.2835
22163SOL    HW273348  10.483   3.106   9.032  1.4298 -0.4727  0.4292
22164SOL     OW73349   0.031   6.454   2.154  0.4228  0.2944  0.1883
22164SOL    HW173350  -0.029   6.527   2.166 -0.9119 -0.7925  0.3766
22164SOL    HW273351   0.038   6.414   2.241  1.5988  0.5196  0.2167
22165SOL     OW73352  11.393   2.825   0.069  0.6585 -0.2697  0.6606
22165SOL    HW173353  11.438   2.743   0.048  0.8658  0.5582 -2.7244
22165SOL    HW273354  11.456   2.873   0.123  1.6678 -1.2338  0.3896
22166SOL     OW73355   9.936  11.563   2.485  0.0217  0.2520  0.1262
22166SOL    HW173356  10.006  11.623   2.462  0.2642  0.4162  1.2280
22166SOL    HW273357   9.912  11.587   2.575  0.2883 -1.4469  0.6875
22167SOL     OW73358   9.209   2.907  10.718 -0.5282 -0.3202  0.3171
22167SOL    HW173359   9.146   2.949  10.776 -2.0245 -2.7385  0.6260
22167SOL    HW273360   9.165   2.826  10.691  1.0188 -0.3780 -2.4117
22168SOL     OW73361   6.284   9.553   8.197  0.3075 -0.1640 -0.1031
22168SOL    HW173362   6.346   9.598   8.255  2.3185 -3.5017  0.6180
22168SOL    HW273363   6.210   9.532   8.254  0.0839  0.7196 -0.0443
22169SOL     OW73364  10.552  10.607   0.691 -0.1727  0.9323  0.2381
22169SOL    HW173365  10.603  10.660   0.752  0.8702  0.4714 -0.2119
22169SOL    HW273366  10.570  10.517   0.717  1.7542  0.6409 -1.8292
22170SOL     OW73367  12.208  11.560  10.512 -0.0443  0.7689 -1.0322
22170SOL    HW173368  12.126  11.608  10.496 -0.4371  0.4890  0.0778
22170SOL    HW273369  12.271  11.629  10.534 -0.0491  0.9542 -1.5640
22171SOL     OW73370   5.440  11.004   2.585  0.3644 -0.1477 -0.1113
22171SOL    HW173371   5.402  10.935   2.530 -1.9611 -0.3634  1.6370
22171SOL    HW273372   5.506  11.046   2.529 -1.2434 -0.9060 -2.7245
22172SOL     OW73373   2.696   4.480   5.040 -0.0957  0.1037 -0.0604
22172SOL    HW173374   2.785   4.446   5.034 -0.8678 -2.3092  1.0967
22172SOL    HW273375   2.640   4.403   5.037 -2.2141  1.5615 -1.0227
22173SOL     OW73376   1.785   1.595   1.270 -0.0997  0.3625 -0.2234
22173SOL    HW173377   1.788   1.615   1.364 -3.2159  0.6342 -0.1011
22173SOL    HW273378   1.849   1.655   1.232  0.3707  1.0903  1.5861
22174SOL     OW73379   7.338   4.143   3.806  0.4557  0.2693 -0.0303
22174SOL    HW173380   7.292   4.217   3.846  1.7845  0.8868  0.4179
22174SOL    HW273381   7.321   4.153   3.712 -0.4704  0.3650  0.1413
22175SOL     OW73382   3.154  10.384   9.909  0.2260  0.2995 -0.1112
22175SOL    HW173383   3.215  10.341   9.970 -0.7283 -2.5760 -1.0372
22175SOL    HW273384   3.208  10.405   9.833  0.1941 -2.2760 -0.9526
22176SOL     OW73385  11.590  12.477   1.380  0.2422 -0.2839 -0.3559
22176SOL    HW173386  11.636  12.508   1.457  0.8661 -0.7481 -0.5340
22176SOL    HW273387  11.525  12.415   1.414  0.5960 -0.5785 -0.2055
22177SOL     OW73388  10.666   6.215   1.444 -0.1306  0.3134  0.2768
22177SOL    HW173389  10.670   6.310   1.431  0.3199  0.3271  0.5120
22177SOL    HW273390  10.573   6.194   1.436 -0.5574  1.1081  2.5554
22178SOL     OW73391   4.377   6.213   0.877  0.6627 -0.6949 -0.4238
22178SOL    HW173392   4.411   6.279   0.817  0.9279 -0.4070  0.0379
22178SOL    HW273393   4.286   6.238   0.891 -0.1555 -2.1605 -2.6263
22179SOL     OW73394   8.573   1.233   9.159  0.3939  0.0465 -0.4538
22179SOL    HW173395   8.530   1.270   9.081 -1.4756 -2.5845 -0.7736
22179SOL    HW273396   8.615   1.153   9.127  2.4354  0.6024  0.6595
22180SOL     OW73397   6.101  12.199   0.035 -0.2762 -0.9392 -0.0850
22180SOL    HW173398   6.176  12.169   0.086  1.1549  1.2667 -0.7632
22180SOL    HW273399   6.139  12.253  -0.035 -2.5100  0.9188  0.0184
22181SOL     OW73400  11.388   1.737   1.301  0.2971  0.1355  0.3026
22181SOL    HW173401  11.409   1.645   1.314 -1.0148 -0.2586 -0.1633
22181SOL    HW273402  11.350   1.765   1.384  0.5496  0.2142  0.3919
22182SOL     OW73403   1.493   2.250   1.362 -0.8169 -0.0096  0.3095
22182SOL    HW173404   1.560   2.257   1.430  0.6515  0.1078 -1.0858
22182SOL    HW273405   1.532   2.194   1.295 -2.4186 -0.5389 -0.2365
22183SOL     OW73406   4.051   7.994  12.294 -0.5345 -0.1028  0.2665
22183SOL    HW173407   4.140   8.010  12.325 -1.0576  2.8490  0.6004
22183SOL    HW273408   4.057   8.000  12.199 -0.3000 -0.4466  0.2584
22184SOL     OW73409   4.865   7.622   3.484  0.2419 -0.2680 -0.1020
22184SOL    HW173410   4.868   7.704   3.433 -0.2873  0.8851  1.6162
22184SOL    HW273411   4.804   7.641   3.555 -2.1427 -3.1370 -1.2151
22185SOL     OW73412  12.425   7.448   1.661 -0.2870  0.1703  0.1785
22185SOL    HW173413  12.349   7.398   1.630 -0.4674  0.9432 -0.6633
22185SOL    HW273414  12.484   7.452   1.585  0.3134  0.1135  0.6379
22186SOL     OW73415   2.802  12.285  10.714  0.3350  0.7838 -0.6230
22186SOL    HW173416   2.797  12.373  10.751 -1.2926  0.1869  0.7621
22186SOL    HW273417   2.774  12.295  10.623  0.4112  1.7204 -0.5517
22187SOL     OW73418   8.268   9.423   4.688  0.3839  0.1451  0.0795
22187SOL    HW173419   8.250   9.366   4.763  0.8542 -1.6252 -1.0805
22187SOL    HW273420   8.346   9.473   4.713  0.2145 -0.0265  0.9672
22188SOL     OW73421   4.490   6.033  12.184  0.1412 -0.0290 -0.1281
22188SOL    HW173422   4.420   6.082  12.228 -2.1747 -0.4097 -3.0561
22188SOL    HW273423   4.536   6.099  12.131  1.2287 -0.0083  0.8066
22189SOL     OW73424  10.797   7.921   9.021  0.5262  0.8158  0.5294
22189SOL    HW173425  10.757   7.968   9.095  0.9145  1.0905  0.5680
22189SOL    HW273426  10.773   7.829   9.036  0.2212  0.9292  0.7514
22190SOL     OW73427   6.320   6.225   3.372  0.2502  0.3449 -0.6921
22190SOL    HW173428   6.344   6.191   3.286  0.0003  2.5305 -1.7073
22190SOL    HW273429   6.353   6.315   3.373 -0.4697  0.6513  1.1896
22191SOL     OW73430   6.584  10.072   6.845  0.0288  0.1750  0.1738
22191SOL    HW173431   6.578  10.166   6.828 -0.9847  0.0990  0.0248
22191SOL    HW273432   6.660  10.062   6.902  0.5525  1.0017 -0.3636
22192SOL     OW73433   6.803  11.631  10.121 -0.2615  0.5421  0.0971
22192SOL    HW173434   6.710  11.611  10.110  0.2541 -1.2277 -1.6299
22192SOL    HW273435   6.843  11.605  10.038  1.6406  2.2897  0.3869
22193SOL     OW73436   3.153   3.989   6.193  0.0570  0.3986  0.1228
22193SOL    HW173437   3.105   3.908   6.176 -0.7532  0.7887  0.5541
22193SOL    HW273438   3.087   4.058   6.192  0.7384  1.0650 -0.2236
22194SOL     OW73439   6.831   9.658   9.587 -0.1029 -0.4597  0.2176
22194SOL    HW173440   6.741   9.677   9.560 -0.1495 -0.3693  0.4289
22194SOL    HW273441   6.871   9.616   9.511 -0.3908 -0.7055  0.1995
22195SOL     OW73442   2.050   8.805   3.665  0.1492 -0.4249  0.0152
22195SOL    HW173443   1.962   8.832   3.690  0.6820  0.7827  0.6731
22195SOL    HW273444   2.080   8.751   3.739  1.5821  2.8368  2.0806
22196SOL     OW73445   5.391   6.895   6.824 -0.3086  0.2327  0.0941
22196SOL    HW173446   5.326   6.953   6.785  0.1590  0.4136 -0.4229
22196SOL    HW273447   5.358   6.807   6.807  0.3977  0.2637 -1.6597
22197SOL     OW73448   6.158   3.457   3.820  0.0640  0.4423 -0.3776
22197SOL    HW173449   6.254   3.460   3.816  0.1236 -0.6678 -0.1088
22197SOL    HW273450   6.138   3.465   3.913 -0.0589 -0.0461 -0.3579
22198SOL     OW73451  11.917   2.181   7.713 -0.4615 -0.3309 -0.2750
22198SOL    HW173452  11.988   2.213   7.658  0.3167 -0.6444  0.5310
22198SOL    HW273453  11.866   2.259   7.735 -1.4234 -0.3221 -2.2702
22199SOL     OW73454  11.659   6.880  11.170  0.2557 -0.4229 -0.4232
22199SOL    HW173455  11.651   6.961  11.220  0.7889  0.0466 -1.0799
22199SOL    HW273456  11.576   6.871  11.124 -0.0550 -0.6060  0.1533
22200SOL     OW73457  10.650   7.894  10.470 -0.1032  0.2204 -0.3691
22200SOL    HW173458  10.563   7.854  10.469 -0.2150  0.4144 -2.1906
22200SOL    HW273459  10.705   7.832  10.422  0.8255  0.0319  0.8942
22201SOL     OW73460   3.501   0.150  11.881  0.5806  0.6901 -0.0101
22201SOL    HW173461   3.538   0.070  11.917  1.4821  1.0576 -0.0854
22201SOL    HW273462   3.457   0.192  11.955  0.7883  0.5162  0.2134
22202SOL     OW73463   1.795   3.865  11.669  0.0047 -0.2395 -0.3274
22202SOL    HW173464   1.833   3.778  11.685 -0.3519 -0.0719  1.6479
22202SOL    HW273465   1.838   3.922  11.732  0.0679  1.0045 -1.4578
22203SOL     OW73466   5.556  10.435  11.639  0.0038 -0.0606  0.2344
22203SOL    HW173467   5.608  10.516  11.638  0.2706 -0.1782 -2.4515
22203SOL    HW273468   5.470  10.461  11.606 -0.6766 -0.4840  1.5989
22204SOL     OW73469   6.020  10.402  12.321  0.2612  0.0296  0.3264
22204SOL    HW173470   6.078  10.452  12.379  1.0938 -0.3088 -0.2004
22204SOL    HW273471   6.078  10.340  12.277 -0.7243 -1.2350  0.7735
22205SOL     OW73472   5.936   4.455   7.752 -0.0343  0.6089  1.2525
22205SOL    HW173473   5.906   4.447   7.843 -0.1006  0.4286  1.2148
22205SOL    HW273474   5.883   4.392   7.703 -0.3214  1.0309  1.0097
22206SOL     OW73475   4.607   3.575   6.004  0.9857  0.6808 -0.2414
22206SOL    HW173476   4.539   3.643   6.010 -1.6743 -1.8968  1.6577
22206SOL    HW273477   4.688   3.621   6.027 -0.5209  3.3312  0.2793
22207SOL     OW73478   1.584   3.624   4.075  0.3670  0.0324 -0.4422
22207SOL    HW173479   1.509   3.617   4.134  1.2009 -0.1762  0.6206
22207SOL    HW273480   1.566   3.560   4.006  0.6431 -1.7721  1.0558
22208SOL     OW73481   1.475  11.242   4.982  1.0569 -0.0316 -0.1076
22208SOL    HW173482   1.494  11.151   5.003 -0.8814 -1.0351 -2.3020
22208SOL    HW273483   1.471  11.285   5.068  2.4798 -1.8463  0.9613
22209SOL     OW73484  10.436  11.935   4.178 -0.7115  0.1017  0.2604
22209SOL    HW173485  10.460  11.862   4.236  0.3032 -0.1281 -0.4151
22209SOL    HW273486  10.390  11.893   4.105 -0.9426  0.2497  0.3213
22210SOL     OW73487   0.306   4.489   1.220 -0.1959  0.2400  0.3545
22210SOL    HW173488   0.226   4.528   1.254 -0.9520 -0.9555 -0.0003
22210SOL    HW273489   0.372   4.508   1.287 -0.8595  0.9148  0.8295
22211SOL     OW73490   2.391   8.559   6.871 -0.4812  0.5998  0.4563
22211SOL    HW173491   2.478   8.537   6.836 -0.7469 -0.6732  0.5680
22211SOL    HW273492   2.408   8.582   6.962 -0.0760  1.8615  0.0932
22212SOL     OW73493   6.902   0.337   7.666  0.3701  0.0336  0.1130
22212SOL    HW173494   6.984   0.343   7.715  1.1793 -1.4970 -0.9694
22212SOL    HW273495   6.928   0.335   7.574 -0.9952  0.9515 -0.3415
22213SOL     OW73496  12.132   7.404   0.781 -0.4713 -0.0321 -0.0125
22213SOL    HW173497  12.206   7.359   0.741 -0.2306  0.1265  0.2443
22213SOL    HW273498  12.088   7.449   0.709 -0.1238  0.1398 -0.1178
22214SOL     OW73499  12.359   8.532   2.881 -0.0114 -0.2004 -0.3911
22214SOL    HW173500  12.449   8.543   2.852  0.3213  1.1690  0.9869
22214SOL    HW273501  12.306   8.553   2.805  0.8275  1.6303 -0.5264
22215SOL     OW73502   8.125  10.271   0.301  0.1760  0.0126  0.6235
22215SOL    HW173503   8.098  10.189   0.260  0.3412 -0.2158  0.9679
22215SOL    HW273504   8.173  10.318   0.233  0.1340 -0.2051  0.4457
22216SOL     OW73505   4.830   2.281   8.667 -0.0801  0.1560 -0.1729
22216SOL    HW173506   4.814   2.367   8.629 -1.3538  0.4222  0.8713
22216SOL    HW273507   4.768   2.223   8.622 -3.7442  1.0003  3.1967
22217SOL     OW73508   8.546   5.208   7.506  0.1255  0.5424 -0.2974
22217SOL    HW173509   8.505   5.277   7.558 -0.0343  1.0968 -1.1404
22217SOL    HW273510   8.498   5.209   7.424  0.5665 -0.1236 -0.5670
22218SOL     OW73511   8.428  11.854  10.576  0.0776 -0.3743 -0.2537
22218SOL    HW173512   8.424  11.759  10.587 -0.6074 -0.6786 -2.6106
22218SOL    HW273513   8.469  11.867  10.491  1.4953  1.5366  0.6334
22219SOL     OW73514   7.074   6.461   7.736  0.0806  0.2282 -0.1265
22219SOL    HW173515   7.102   6.414   7.657 -0.9812 -1.3457  0.3740
22219SOL    HW273516   7.079   6.396   7.806  0.9251  1.5713  1.1202
22220SOL     OW73517   3.562   8.563   9.113 -0.4349 -0.5049 -0.4509
22220SOL    HW173518   3.579   8.543   9.020  2.7983  0.3896 -0.1667
22220SOL    HW273519   3.581   8.481   9.159 -3.6443 -1.4714 -0.5587
22221SOL     OW73520   5.229  10.577   3.819 -0.4543 -0.5016 -0.2376
22221SOL    HW173521   5.319  10.567   3.789 -0.2195  0.6994  0.0162
22221SOL    HW273522   5.225  10.666   3.854 -1.4887 -0.8609  0.6178
22222SOL     OW73523   4.771   8.982   5.722  0.4891 -0.2274  0.3539
22222SOL    HW173524   4.706   9.013   5.658  1.5629 -1.9054 -1.6672
22222SOL    HW273525   4.814   9.062   5.752  0.6477  0.5906 -1.8357
22223SOL     OW73526   2.180   9.904   9.323  0.3698  0.4350 -0.2269
22223SOL    HW173527   2.121   9.966   9.366  0.0256 -0.5343  0.7477
22223SOL    HW273528   2.164   9.917   9.230 -1.7129 -0.0726  0.0093
22224SOL     OW73529   5.427   3.220   1.756 -0.1473 -0.8125  0.5098
22224SOL    HW173530   5.406   3.154   1.823 -0.5224  0.1203  1.3543
22224SOL    HW273531   5.425   3.303   1.804  1.5725 -0.2938 -0.2514
22225SOL     OW73532   1.188   5.217   5.264 -0.6698 -0.0759 -0.2041
22225SOL    HW173533   1.226   5.304   5.269  0.4947 -0.5980  0.5012
22225SOL    HW273534   1.127   5.221   5.190 -0.7269  1.3578 -0.0967
22226SOL     OW73535   5.760   3.662   8.214 -0.3110 -0.5898  0.8655
22226SOL    HW173536   5.706   3.642   8.138 -0.9593 -0.6113  1.3128
22226SOL    HW273537   5.802   3.745   8.193  0.5427 -1.2211 -0.0361
22227SOL     OW73538  11.824  11.011   1.021 -0.3122  0.2211 -0.0858
22227SOL    HW173539  11.824  11.034   1.114  2.1148  1.3596 -0.2828
22227SOL    HW273540  11.800  10.919   1.019 -2.3376  0.6465  1.4822
22228SOL     OW73541   4.601  11.715   8.288 -0.3432  0.2775  0.0478
22228SOL    HW173542   4.656  11.783   8.325  2.2331 -0.6332 -1.8053
22228SOL    HW273543   4.602  11.732   8.194  0.1159 -2.0723 -0.4403
22229SOL     OW73544   1.227   7.634   1.293 -0.0783  0.5307 -0.5323
22229SOL    HW173545   1.177   7.700   1.246  1.5961  1.9490 -0.4012
22229SOL    HW273546   1.318   7.650   1.267  0.7350  0.3989  2.0264
22230SOL     OW73547  12.012  10.263  11.197  0.2808 -0.2386  0.2056
22230SOL    HW173548  11.976  10.175  11.183  0.1684 -0.2508  0.5596
22230SOL    HW273549  11.952  10.321  11.150  1.7425 -0.5449 -2.2343
22231SOL     OW73550  10.802   3.024  11.043 -0.0794 -0.3929 -0.1576
22231SOL    HW173551  10.730   3.014  10.981  0.8186  0.7927 -1.4773
22231SOL    HW273552  10.779   3.101  11.094  0.7655  0.7645 -1.4326
22232SOL     OW73553   0.702   6.485  10.598  0.0735  0.2127  0.1276
22232SOL    HW173554   0.745   6.484  10.512  0.4055  0.9797  0.2720
22232SOL    HW273555   0.774   6.483  10.661 -0.1624 -0.1642  0.3884
22233SOL     OW73556   1.568   2.756   6.477 -0.0683 -0.1248  0.9851
22233SOL    HW173557   1.533   2.741   6.389 -0.9721 -1.0186  1.4809
22233SOL    HW273558   1.597   2.670   6.506  1.2880  0.3603  1.1419
22234SOL     OW73559   1.252   5.704   6.275  0.2142 -0.4994 -0.3701
22234SOL    HW173560   1.223   5.794   6.290 -0.1855 -0.6198 -0.3909
22234SOL    HW273561   1.285   5.675   6.360  2.1362  0.2827 -0.8029
22235SOL     OW73562   9.033   3.722   2.134 -0.1429  0.3831 -0.5836
22235SOL    HW173563   9.058   3.806   2.172  1.2319 -0.2045 -0.1247
22235SOL    HW273564   8.977   3.682   2.200 -0.6144  0.8298 -0.7047
22236SOL     OW73565  10.893   8.559  10.357  0.4562  0.3442  0.4101
22236SOL    HW173566  10.800   8.583  10.349  0.8590  2.7704  1.9447
22236SOL    HW273567  10.925   8.559  10.267 -1.0215 -0.6599 -0.1670
22237SOL     OW73568   3.649   4.200  10.650 -0.0440  0.3095 -0.0799
22237SOL    HW173569   3.715   4.247  10.700 -1.6415  1.3171  1.1685
22237SOL    HW273570   3.653   4.110  10.683  0.3064  0.4930  0.3760
22238SOL     OW73571   6.890   6.940  10.539  0.1924  0.5319  0.3231
22238SOL    HW173572   6.978   6.977  10.529  1.1636 -1.3882  1.1220
22238SOL    HW273573   6.900   6.875  10.609 -1.8945  0.3233  0.4757
22239SOL     OW73574   2.487  12.238  11.969  0.4732 -0.3021  0.1686
22239SOL    HW173575   2.474  12.168  11.905  0.3439 -0.1153 -0.0105
22239SOL    HW273576   2.570  12.217  12.012 -0.2903 -1.3677  1.1475
22240SOL     OW73577   1.318   9.829   2.764  0.2275  0.4916 -0.2069
22240SOL    HW173578   1.299   9.781   2.683  0.7818 -2.1047  1.0983
22240SOL    HW273579   1.413   9.829   2.770  0.2511  2.1456 -0.3636
22241SOL     OW73580   1.330   3.660   2.027 -0.0582 -0.1248 -0.0956
22241SOL    HW173581   1.376   3.687   1.948  1.0016 -1.7354 -0.0521
22241SOL    HW273582   1.370   3.712   2.097 -0.4086  0.6715 -0.4748
22242SOL     OW73583   2.916  12.218   2.896  0.1278  0.2491  0.5860
22242SOL    HW173584   2.917  12.139   2.842  1.0909  0.8135 -0.2693
22242SOL    HW273585   2.866  12.282   2.845 -0.1496  0.3703  1.0034
22243SOL     OW73586   2.561  11.779   3.490  0.3463  0.0443 -0.2359
22243SOL    HW173587   2.502  11.843   3.450  0.2224 -0.7147 -1.3245
22243SOL    HW273588   2.528  11.694   3.459  0.2016 -0.6008  1.5651
22244SOL     OW73589  12.266   5.395  11.147  0.5911 -0.9794 -0.1154
22244SOL    HW173590  12.322   5.386  11.224  2.1231  0.1966 -1.0539
22244SOL    HW273591  12.223   5.480  11.158  0.6484 -0.9046 -0.4528
22245SOL     OW73592   4.047   3.480   5.084  0.1070 -0.0705 -0.2668
22245SOL    HW173593   4.016   3.569   5.067 -0.0675 -0.4127 -1.9373
22245SOL    HW273594   4.096   3.486   5.166 -1.3102  1.2113  0.5233
22246SOL     OW73595   1.914   4.006  11.873  0.5740  0.0244 -0.0732
22246SOL    HW173596   1.862   4.000  11.953  1.3766 -0.4851  0.4269
22246SOL    HW273597   1.989   4.060  11.896  1.9160 -1.8277  0.1718
22247SOL     OW73598   9.079   9.811   6.508 -0.3245 -0.1596  0.4764
22247SOL    HW173599   9.170   9.840   6.516  0.0536 -1.1467 -0.0905
22247SOL    HW273600   9.080   9.721   6.539 -1.0369 -0.2974  0.1143
22248SOL     OW73601   5.651   6.565   9.153  0.4901  0.1560 -0.1323
22248SOL    HW173602   5.695   6.481   9.159  0.0405 -0.0285  0.8250
22248SOL    HW273603   5.608   6.564   9.068 -0.3084 -0.9943  0.2639
22249SOL     OW73604   3.458   5.308   7.596 -0.4294  0.2728  0.6081
22249SOL    HW173605   3.447   5.399   7.570 -0.7573  0.4330  1.2706
22249SOL    HW273606   3.386   5.292   7.658  0.5670  0.0458  1.7361
22250SOL     OW73607   8.890   6.114   6.112 -0.7915 -0.1186  0.0931
22250SOL    HW173608   8.818   6.111   6.176 -0.8474 -0.8801  0.0046
22250SOL    HW273609   8.906   6.022   6.091  0.9081 -0.0408  0.8884
22251SOL     OW73610   7.040   9.298  11.403 -0.3495 -0.1710 -0.6758
22251SOL    HW173611   7.052   9.269  11.313  0.3233 -0.1280 -0.6066
22251SOL    HW273612   7.055   9.392  11.400  0.1884 -0.2455 -0.4352
22252SOL     OW73613   0.062   4.639   8.862  0.3353 -0.4190 -0.4648
22252SOL    HW173614   0.144   4.664   8.905  0.1118  0.1299 -0.3428
22252SOL    HW273615   0.000   4.708   8.887 -0.1269 -0.7538 -0.6693
22253SOL     OW73616   1.100   3.546   2.702  0.1288 -0.4093  0.5507
22253SOL    HW173617   1.040   3.574   2.771 -0.4848 -0.4727  0.0510
22253SOL    HW273618   1.043   3.521   2.629  0.7635 -0.4030  0.0431
22254SOL     OW73619   0.271   9.489  11.638  0.3125  0.0237  0.2201
22254SOL    HW173620   0.360   9.526  11.634  0.6023 -0.4172  1.9529
22254SOL    HW273621   0.280   9.410  11.691 -1.1797  0.1311  0.6691
22255SOL     OW73622   7.113   1.652   9.701 -0.2773 -0.2393  0.4611
22255SOL    HW173623   7.201   1.643   9.665  0.4815 -0.6038  2.3200
22255SOL    HW273624   7.058   1.599   9.644  0.9827 -1.3480  0.2446
22256SOL     OW73625   5.246   4.423   4.291  0.9409  0.7697  0.3434
22256SOL    HW173626   5.197   4.504   4.303  0.3170  0.4972 -0.3225
22256SOL    HW273627   5.217   4.389   4.207  2.5314  0.7693 -0.2402
22257SOL     OW73628   6.781   9.771   2.205  0.2198  0.2489  0.5207
22257SOL    HW173629   6.860   9.740   2.160  1.3633 -0.2776  2.7350
22257SOL    HW273630   6.778   9.865   2.185  0.2813 -0.0686 -1.1471
22258SOL     OW73631   9.366   4.277   7.936 -0.3536 -0.3793  0.5822
22258SOL    HW173632   9.407   4.203   7.891 -2.5043 -1.9020  0.9673
22258SOL    HW273633   9.438   4.337   7.955  1.5585 -2.6005  0.7093
22259SOL     OW73634   6.732   1.198   8.038  0.0934 -0.1909 -0.3452
22259SOL    HW173635   6.801   1.264   8.044 -1.8525  1.8508  1.2917
22259SOL    HW273636   6.674   1.230   7.969 -0.1904 -0.8964 -0.4418
22260SOL     OW73637   0.931   5.732   0.373 -0.0697  0.0775  0.1552
22260SOL    HW173638   0.958   5.732   0.464  0.3556 -1.9603  0.0815
22260SOL    HW273639   0.920   5.639   0.351 -2.3639  0.5937 -1.2340
22261SOL     OW73640   0.683   5.341  11.190  0.6090 -0.2120 -0.0413
22261SOL    HW173641   0.607   5.335  11.133 -0.2621  2.1744  0.7214
22261SOL    HW273642   0.653   5.392  11.265  2.6216 -0.3129  0.9084
22262SOL     OW73643   3.890   5.956   4.435  0.2709 -0.1353  0.8373
22262SOL    HW173644   3.871   5.924   4.523 -1.3891  1.5546  1.1583
22262SOL    HW273645   3.913   6.048   4.448 -0.9532  0.4013 -0.5721
22263SOL     OW73646  11.197   1.772   0.894 -0.1716  0.1317  0.1909
22263SOL    HW173647  11.168   1.759   0.984  0.1939  1.2820  0.4887
22263SOL    HW273648  11.117   1.797   0.846 -0.5603 -1.4627 -0.0412
22264SOL     OW73649   4.656   9.118   4.984  0.5954 -0.1272  0.2521
22264SOL    HW173650   4.641   9.209   5.008 -1.8721 -1.0318  2.6691
22264SOL    HW273651   4.734   9.093   5.033  1.2593  0.6061 -0.3866
22265SOL     OW73652   1.931  11.719   4.408 -0.8996  0.1907  0.0778
22265SOL    HW173653   1.990  11.692   4.337  1.5122  1.7445  1.3569
22265SOL    HW273654   1.857  11.758   4.362 -0.0652 -0.0783 -1.6204
22266SOL     OW73655   7.494   0.998   3.340 -0.5703  0.1768 -0.3696
22266SOL    HW173656   7.518   0.927   3.400 -0.8578  0.0939 -0.3523
22266SOL    HW273657   7.400   0.989   3.329 -0.4802  0.0369 -1.0361
22267SOL     OW73658   1.866  12.507  11.655 -0.3868 -0.0113  0.3989
22267SOL    HW173659   1.948  12.519  11.702 -0.7992  1.1205  0.8687
22267SOL    HW273660   1.893  12.486  11.565  0.4470  1.0749  0.3623
22268SOL     OW73661   7.644  11.853   6.356  0.0618 -0.1424 -0.1912
22268SOL    HW173662   7.642  11.785   6.424 -1.2224  0.8364  0.7907
22268SOL    HW273663   7.690  11.926   6.397  0.1815  0.0887 -0.7352
22269SOL     OW73664   0.441   3.958   1.222  0.3151 -0.5075 -0.4566
22269SOL    HW173665   0.380   3.986   1.291 -0.2860 -0.5396 -0.9627
22269SOL    HW273666   0.407   3.873   1.193  0.6995 -0.6047 -0.6278
22270SOL     OW73667   0.774   9.412  12.525  0.4855 -0.1750  0.2102
22270SOL    HW173668   0.813   9.393  12.440 -0.7310 -0.5536 -0.2828
22270SOL    HW273669   0.754   9.327  12.563  1.4614 -0.0205  1.1017
22271SOL     OW73670   0.459   3.095  10.351  0.2887  0.0536 -0.3389
22271SOL    HW173671   0.373   3.129  10.374 -1.3813 -3.9138  0.0138
22271SOL    HW273672   0.505   3.088  10.435 -0.4596 -1.2046 -0.0188
22272SOL     OW73673  12.298  10.313   3.463 -0.8302  0.0458  0.5097
22272SOL    HW173674  12.235  10.372   3.420  0.5587  0.9423 -0.3904
22272SOL    HW273675  12.244  10.255   3.516 -2.3787  1.1044  0.1723
22273SOL     OW73676   2.628  11.640   5.204  0.3602  0.3232 -0.2760
22273SOL    HW173677   2.632  11.690   5.122  1.3241  0.8552  0.0847
22273SOL    HW273678   2.719  11.634   5.233 -0.0334  0.6357  1.0550
22274SOL     OW73679   2.276   0.185   9.223 -0.4035  0.5705 -0.6463
22274SOL    HW173680   2.211   0.137   9.273 -0.1581  0.2435 -0.6333
22274SOL    HW273681   2.227   0.254   9.178 -1.0035 -0.6577 -1.9033
22275SOL     OW73682   3.271   6.043   8.464 -0.5742  0.0916  0.2542
22275SOL    HW173683   3.241   6.133   8.451  1.4030  0.7104 -0.4376
22275SOL    HW273684   3.319   6.046   8.547 -0.9251 -0.4447  0.4786
22276SOL     OW73685   1.880   4.056   1.960 -0.5212  0.5796  0.0248
22276SOL    HW173686   1.842   3.978   1.921 -1.1986  0.8941  0.0404
22276SOL    HW273687   1.937   4.092   1.892 -0.9660  0.6094 -0.3361
22277SOL     OW73688   6.888   3.584   6.690 -0.2922 -0.2748  0.2433
22277SOL    HW173689   6.861   3.675   6.679  1.0862  0.1839  0.4944
22277SOL    HW273690   6.827   3.534   6.636 -1.1976  0.7636  0.2644
22278SOL     OW73691   8.209  11.060   4.270 -0.7126 -0.7795 -0.0764
22278SOL    HW173692   8.212  11.124   4.341 -0.7306 -0.0403 -0.7245
22278SOL    HW273693   8.301  11.045   4.247 -0.6295 -2.1364  1.0682
22279SOL     OW73694   1.640   5.158   0.208 -0.3489  0.3682  0.3202
22279SOL    HW173695   1.678   5.106   0.279  0.1132 -1.0256 -0.8815
22279SOL    HW273696   1.681   5.244   0.217  0.8143 -0.2116  0.8745
22280SOL     OW73697   4.364   7.908   1.255  0.3460  0.1897 -0.1600
22280SOL    HW173698   4.328   7.874   1.173  0.5007 -0.7119  0.1387
22280SOL    HW273699   4.393   7.996   1.233  0.5487 -0.1008 -1.1241
22281SOL     OW73700   7.086   9.721   6.413  0.0571 -0.2110  0.4544
22281SOL    HW173701   7.145   9.695   6.342 -3.1859  2.4993 -3.6731
22281SOL    HW273702   7.132   9.793   6.457  0.8306  0.2417 -1.0398
22282SOL     OW73703   3.574  11.291  10.263 -0.1493 -0.1515  0.1102
22282SOL    HW173704   3.508  11.359  10.247  0.9311  1.1226  0.8362
22282SOL    HW273705   3.562  11.229  10.191 -2.1175  0.0258  0.2146
22283SOL     OW73706   2.107   2.071   2.529  0.1134  0.7652  0.0826
22283SOL    HW173707   2.198   2.091   2.551  0.5267  0.3631 -1.1935
22283SOL    HW273708   2.099   2.093   2.436  0.5642 -4.3727 -1.5041
22284SOL     OW73709   0.007   5.907   3.745 -0.2820 -0.0939 -0.2916
22284SOL    HW173710  -0.077   5.949   3.767 -0.1169  0.2337 -0.2853
22284SOL    HW273711   0.072   5.958   3.793  0.0363  0.3188 -1.1466
22285SOL     OW73712   1.204  12.133   9.346 -0.2941  0.0205 -0.1216
22285SOL    HW173713   1.116  12.158   9.318  0.1006 -0.0038 -1.4524
22285SOL    HW273714   1.221  12.051   9.301  0.3263 -0.0914  0.3052
22286SOL     OW73715   6.981   3.674   3.516  0.0568  0.1494  0.0200
22286SOL    HW173716   7.074   3.692   3.525 -0.1208  0.7087  0.8325
22286SOL    HW273717   6.957   3.711   3.431  1.0936 -2.3023 -1.4655
22287SOL     OW73718   2.827   0.168   8.876 -0.1190  0.1969  0.3799
22287SOL    HW173719   2.859   0.087   8.915 -2.8704 -2.3341 -2.1475
22287SOL    HW273720   2.893   0.190   8.810  0.1307 -0.6336  0.3397
22288SOL     OW73721   6.485   4.074   2.652  0.0585  0.0176  0.6370
22288SOL    HW173722   6.467   4.038   2.739 -2.5443 -0.5605 -0.0341
22288SOL    HW273723   6.537   4.007   2.609 -0.0316 -0.4447  1.2326
22289SOL     OW73724   1.118   3.909   6.756 -0.0156 -0.4303  0.6651
22289SOL    HW173725   1.138   3.842   6.822 -2.5920 -0.5640  1.4130
22289SOL    HW273726   1.078   3.860   6.684  0.2049  0.0415  0.2186
22290SOL     OW73727   8.342   9.681   0.243  0.1129  0.2398  0.2181
22290SOL    HW173728   8.355   9.763   0.196 -0.2439 -0.2534 -0.7840
22290SOL    HW273729   8.247   9.672   0.248  0.1181 -0.7773 -0.9400
22291SOL     OW73730   4.563   0.057   2.780 -0.2056 -0.5660 -0.6096
22291SOL    HW173731   4.533   0.126   2.838 -1.0241 -0.6334 -0.9466
22291SOL    HW273732   4.632   0.013   2.829 -2.5019 -2.2052  1.3903
22292SOL     OW73733   0.293   8.076   2.532 -0.3705  0.3323 -0.0719
22292SOL    HW173734   0.230   8.004   2.534  1.5552 -1.5364 -1.4392
22292SOL    HW273735   0.344   8.066   2.613 -1.1058  1.1778  0.5107
22293SOL     OW73736   2.332   1.888   6.994 -0.5325  0.4725 -0.0457
22293SOL    HW173737   2.369   1.886   6.905  0.4351  0.5426  0.3417
22293SOL    HW273738   2.272   1.813   6.996 -0.7242  0.5890 -0.8197
22294SOL     OW73739   1.269   7.771   4.955 -0.1329  0.2133 -0.3015
22294SOL    HW173740   1.363   7.768   4.941 -0.1611  1.1132 -0.7135
22294SOL    HW273741   1.246   7.863   4.950 -0.9374  0.0763  0.5118
22295SOL     OW73742   2.206   7.254   0.607 -0.0258 -0.0021 -0.0113
22295SOL    HW173743   2.219   7.232   0.514  1.9744 -0.5308  0.3377
22295SOL    HW273744   2.293   7.282   0.637 -0.5310 -0.2550  1.8075
22296SOL     OW73745   2.353   2.853  10.569  0.7331  0.0347 -0.1287
22296SOL    HW173746   2.393   2.899  10.495  0.2305 -0.0204 -0.4392
22296SOL    HW273747   2.291   2.915  10.605 -0.5695 -0.6740 -1.0764
22297SOL     OW73748   1.168   4.836   9.846 -0.5311 -0.3088  0.2319
22297SOL    HW173749   1.173   4.925   9.812  0.1716  0.2353  1.6714
22297SOL    HW273750   1.085   4.832   9.894 -2.4193 -1.6192 -2.8226
22298SOL     OW73751  10.154   9.689   6.999  0.3417  0.0281 -0.2155
22298SOL    HW173752  10.122   9.756   7.059 -1.3986  2.2418 -3.3247
22298SOL    HW273753  10.076   9.639   6.974  1.1958 -1.5185  0.0957
22299SOL     OW73754   0.676   1.383   7.527  0.3030 -0.1696  0.1415
22299SOL    HW173755   0.763   1.394   7.564  0.0705 -1.0073  0.9789
22299SOL    HW273756   0.660   1.463   7.478  1.7520 -0.2291 -0.4620
22300SOL     OW73757  11.955   1.282   4.686  0.6143  0.0696 -0.1035
22300SOL    HW173758  11.919   1.211   4.634  1.1971 -0.8938  0.7596
22300SOL    HW273759  11.896   1.290   4.761  0.5327  0.5254 -0.2131
22301SOL     OW73760   3.869   5.061  10.597  0.0426 -0.7239 -0.0957
22301SOL    HW173761   3.864   4.974  10.557  1.1379 -0.5625 -0.6134
22301SOL    HW273762   3.955   5.094  10.572 -1.0689  1.2935 -1.5020
22302SOL     OW73763   7.207   6.831   2.872  0.0415  0.9178 -0.1009
22302SOL    HW173764   7.285   6.810   2.923 -0.7294 -0.4963  0.5429
22302SOL    HW273765   7.133   6.809   2.929 -0.8350  0.1813 -1.4416
22303SOL     OW73766   1.547   9.256   8.863 -0.0471  0.1312  0.7967
22303SOL    HW173767   1.520   9.195   8.931 -0.8662  0.5457  0.8542
22303SOL    HW273768   1.542   9.205   8.782 -0.8053  0.1427  0.8334
22304SOL     OW73769  12.028   8.804   0.288  0.1396  0.2319  0.1239
22304SOL    HW173770  11.944   8.844   0.266  0.5029  0.3204 -1.1838
22304SOL    HW273771  12.014   8.710   0.272  0.8421  0.4450 -2.1330
22305SOL     OW73772   7.298   4.565   9.823 -0.2660 -0.4918 -0.2874
22305SOL    HW173773   7.227   4.587   9.764 -1.8394 -0.4839  1.5158
22305SOL    HW273774   7.300   4.469   9.825  0.5226 -0.5076 -1.1571
22306SOL     OW73775   1.575   7.722   3.275  0.4500 -0.0026 -0.1625
22306SOL    HW173776   1.532   7.804   3.299  1.9906  0.3765  1.4930
22306SOL    HW273777   1.666   7.745   3.260  0.6860 -1.2360 -0.8091
22307SOL     OW73778  12.273   6.335   0.899 -0.6755  0.5269 -0.5347
22307SOL    HW173779  12.190   6.375   0.925 -1.0546 -0.7423  0.3317
22307SOL    HW273780  12.334   6.359   0.969 -0.2298  1.6587 -1.2921
22308SOL     OW73781   7.482   0.950   2.213 -0.6322 -0.3576 -0.2206
22308SOL    HW173782   7.412   0.999   2.170 -0.9319 -1.1180 -0.6315
22308SOL    HW273783   7.485   0.867   2.165 -0.0066 -0.6598  0.3290
22309SOL     OW73784  10.362  11.049  10.307 -0.5988  0.5062 -0.9865
22309SOL    HW173785  10.306  10.983  10.267 -0.0100 -0.7543  0.1869
22309SOL    HW273786  10.305  11.095  10.368 -1.3231  1.9749 -2.6610
22310SOL     OW73787   2.266   2.719  11.037  0.0058  0.7206  0.7233
22310SOL    HW173788   2.306   2.788  11.089  2.7510 -0.5498  0.4929
22310SOL    HW273789   2.302   2.730  10.949  0.2811 -0.7721  0.6100
22311SOL     OW73790   8.058   7.340   7.532  0.0791 -0.0019 -0.3547
22311SOL    HW173791   8.122   7.398   7.575 -1.4057 -0.5569  2.9673
22311SOL    HW273792   8.077   7.253   7.568 -2.1017 -0.2625  0.2907
22312SOL     OW73793   3.837   4.475  11.226 -0.1093  0.1132 -0.0922
22312SOL    HW173794   3.922   4.430  11.220 -0.2359  0.0705 -3.5456
22312SOL    HW273795   3.773   4.409  11.200 -0.9551  0.7957  0.2238
22313SOL     OW73796   5.924   4.921   9.509 -0.0034 -0.3958 -0.2155
22313SOL    HW173797   5.967   4.984   9.567 -1.2456 -1.2941  1.7964
22313SOL    HW273798   5.848   4.967   9.475  1.4692  0.6020 -2.3591
22314SOL     OW73799   0.235   2.717  12.179  0.2593  0.2819 -0.1502
22314SOL    HW173800   0.148   2.709  12.220  0.0909 -0.3808 -0.6169
22314SOL    HW273801   0.232   2.657  12.105  1.2906 -0.1143  0.1168
22315SOL     OW73802   6.227   8.573  11.771  0.7827 -0.2127  0.1283
22315SOL    HW173803   6.313   8.570  11.812  0.9119 -0.8751 -0.1802
22315SOL    HW273804   6.177   8.504  11.814  0.5139 -0.0576  0.0697
22316SOL     OW73805   5.130   6.052   5.728 -0.4157 -0.3475 -0.1174
22316SOL    HW173806   5.152   5.975   5.780  0.1461 -0.5160 -0.6053
22316SOL    HW273807   5.190   6.050   5.654 -0.3089  0.6275 -0.0733
22317SOL     OW73808   3.076   9.368   2.837 -0.4932 -0.2012 -0.7775
22317SOL    HW173809   3.141   9.415   2.889 -0.9235  0.5107 -0.8694
22317SOL    HW273810   2.995   9.375   2.887 -1.1185  1.2540 -1.9264
22318SOL     OW73811   8.140   7.159   5.583 -0.0383 -0.4995  0.3584
22318SOL    HW173812   8.138   7.090   5.517 -1.1117  0.7049 -0.9385
22318SOL    HW273813   8.070   7.219   5.556 -0.2576  0.2238  2.3962
22319SOL     OW73814   4.212  10.965   7.041  0.8826 -0.4824  0.2689
22319SOL    HW173815   4.194  10.874   7.065 -2.9709  0.6970  2.8233
22319SOL    HW273816   4.181  10.972   6.951 -0.4233 -1.3490  0.6206
22320SOL     OW73817   6.503   3.095   1.908  0.0551 -0.0485  0.1363
22320SOL    HW173818   6.547   3.027   1.857  0.4280  0.3499 -0.0779
22320SOL    HW273819   6.551   3.098   1.991 -0.1291 -0.2298  0.2507
22321SOL     OW73820   2.270   2.657  12.420  0.5305  0.5566 -0.0543
22321SOL    HW173821   2.357   2.699  12.420  0.9628 -0.3171  0.0701
22321SOL    HW273822   2.243   2.658  12.328  0.4554  1.2449 -0.0348
22322SOL     OW73823   6.992   8.811   7.507 -0.2675 -0.3855  0.3236
22322SOL    HW173824   7.035   8.820   7.592  0.2017 -0.6846  0.1195
22322SOL    HW273825   6.919   8.751   7.524 -0.9609  0.5744  0.7942
22323SOL     OW73826   3.716   3.162  12.047 -0.1654  0.1046 -0.0531
22323SOL    HW173827   3.713   3.257  12.060  0.9484  0.4089 -1.7112
22323SOL    HW273828   3.654   3.145  11.976  0.6121 -0.1968 -0.6811
22324SOL     OW73829   7.416   7.578   4.142 -0.0703 -0.3381 -0.1096
22324SOL    HW173830   7.360   7.527   4.201 -0.2288 -0.7369 -0.6061
22324SOL    HW273831   7.424   7.663   4.186 -0.3708 -0.5556  0.3795
22325SOL     OW73832   8.387   7.641   6.889  0.0154  0.8574 -0.1699
22325SOL    HW173833   8.341   7.621   6.808  0.5714 -0.8302 -0.1118
22325SOL    HW273834   8.434   7.560   6.911 -0.4007  1.1290  2.0086
22326SOL     OW73835   0.802   7.212  11.011 -0.1124  0.0636  0.1060
22326SOL    HW173836   0.868   7.203  11.080 -2.3195 -1.2320  2.2026
22326SOL    HW273837   0.732   7.264  11.051 -1.1835 -0.1713 -1.3865
22327SOL     OW73838  10.654  12.398   2.918  0.3330  0.2784  0.0218
22327SOL    HW173839  10.679  12.371   2.830 -0.5492 -0.5547  0.0154
22327SOL    HW273840  10.570  12.443   2.907  0.4812  0.6493  0.3739
22328SOL     OW73841   5.291   2.698   2.204  0.2664  0.0326  0.0271
22328SOL    HW173842   5.320   2.775   2.155  1.2329 -1.0071 -1.1176
22328SOL    HW273843   5.371   2.651   2.226 -0.3079 -0.7304  0.5583
22329SOL     OW73844   2.588   1.220   8.807  1.0777 -0.1325  0.2225
22329SOL    HW173845   2.548   1.304   8.788  0.4725  0.3237  3.0327
22329SOL    HW273846   2.535   1.156   8.760 -1.3548  0.7104  1.6412
22330SOL     OW73847   1.750   8.202   4.990  0.2582  0.6139  0.4645
22330SOL    HW173848   1.829   8.230   5.037  0.4544  2.0180 -0.6430
22330SOL    HW273849   1.678   8.227   5.048  0.5856 -0.2170  1.2569
22331SOL     OW73850   1.588   0.797   6.881  0.4861 -0.5423 -0.4085
22331SOL    HW173851   1.639   0.869   6.842 -1.0984  0.9133  0.0538
22331SOL    HW273852   1.569   0.739   6.808  2.3407 -0.8735 -0.6822
22332SOL     OW73853   1.476   9.955   3.056  0.0670 -0.1907  0.4634
22332SOL    HW173854   1.515  10.041   3.070  2.4557 -1.2723  0.9146
22332SOL    HW273855   1.500   9.932   2.966  2.0284 -1.5345  1.2507
22333SOL     OW73856   0.661   5.080   6.721 -0.3553  0.1660 -0.3952
22333SOL    HW173857   0.693   5.110   6.806 -0.6654 -0.5510 -0.0182
22333SOL    HW273858   0.677   5.154   6.663  2.0746 -0.1581 -0.2693
22334SOL     OW73859  11.900   6.023   6.556  0.0069  0.3060 -0.1648
22334SOL    HW173860  11.899   5.934   6.592 -2.2891 -0.0349 -0.8977
22334SOL    HW273861  11.951   6.015   6.475 -1.1793 -0.6513 -0.8498
22335SOL     OW73862   7.237   8.611   2.233  0.3660 -0.1084 -0.5112
22335SOL    HW173863   7.150   8.626   2.268  0.6353  1.7128 -0.5420
22335SOL    HW273864   7.293   8.674   2.279  1.1569  0.6493 -2.4198
22336SOL     OW73865   2.402   6.756   6.310 -0.0012 -0.3919  0.6395
22336SOL    HW173866   2.357   6.737   6.227 -0.1794 -0.2428  0.7009
22336SOL    HW273867   2.368   6.690   6.371 -2.5245  1.5903  1.5314
22337SOL     OW73868   6.876  11.331  11.339  0.1427  0.0383  0.5659
22337SOL    HW173869   6.852  11.239  11.331 -1.3523  0.4637 -0.2019
22337SOL    HW273870   6.883  11.346  11.433 -3.6022  0.0472  0.9765
22338SOL     OW73871  12.448   0.020   3.130  0.4949  0.0742  1.2219
22338SOL    HW173872  12.486  -0.068   3.124  0.6677  0.1955  0.2785
22338SOL    HW273873  12.500   0.064   3.197  1.4156 -0.0712  0.6329
22339SOL     OW73874   5.331   9.992   0.558 -0.5081 -0.3364 -0.8918
22339SOL    HW173875   5.408   9.989   0.615  0.2920  0.1729 -1.9148
22339SOL    HW273876   5.286   9.909   0.574  0.6556 -0.9746 -0.8256
22340SOL     OW73877   1.004   5.346   7.464  0.1591  0.4460 -0.5083
22340SOL    HW173878   1.092   5.315   7.442 -0.1070 -0.1520 -0.7715
22340SOL    HW273879   1.017   5.406   7.538  0.5172 -2.0396  1.6014
22341SOL     OW73880  10.971   4.884   5.871 -0.0830  0.0364 -0.3877
22341SOL    HW173881  10.927   4.799   5.871 -0.1843  0.0751  0.7246
22341SOL    HW273882  10.982   4.905   5.963 -0.6959  1.5592 -0.6327
22342SOL     OW73883   4.938   5.862   1.954  0.1221 -0.7046  0.1592
22342SOL    HW173884   4.843   5.862   1.945  0.0905 -1.2305  0.4633
22342SOL    HW273885   4.960   5.954   1.974 -0.4240 -0.7639  1.1144
22343SOL     OW73886   8.677   5.866   5.711  0.0253 -0.0838  0.2972
22343SOL    HW173887   8.604   5.834   5.764 -0.8040  0.2817 -0.5930
22343SOL    HW273888   8.640   5.880   5.624  0.7780  1.5628  0.1971
22344SOL     OW73889  11.778   8.683   2.901 -0.1096  0.0538 -0.1169
22344SOL    HW173890  11.767   8.767   2.946 -0.3151  0.1190 -0.2913
22344SOL    HW273891  11.690   8.648   2.892 -0.0200 -0.2200  0.0217
22345SOL     OW73892  11.743   7.148   6.515 -0.2195 -0.7913  0.0199
22345SOL    HW173893  11.793   7.200   6.578 -0.3951 -0.4496 -0.1231
22345SOL    HW273894  11.772   7.058   6.531 -0.0040 -0.6674  0.3510
22346SOL     OW73895  12.223   3.296  11.689  0.0322 -0.2906  0.5828
22346SOL    HW173896  12.284   3.264  11.624 -1.7789 -1.3851 -0.6736
22346SOL    HW273897  12.256   3.383  11.713  0.5728  0.3121 -2.0665
22347SOL     OW73898   8.761   0.651   5.518 -0.4520 -0.0565  0.4315
22347SOL    HW173899   8.668   0.632   5.529 -0.7200  1.1877  0.4635
22347SOL    HW273900   8.769   0.676   5.426 -0.3677  0.9253  0.6940
22348SOL     OW73901   9.786  12.473   4.284 -0.2846 -0.4210  0.1314
22348SOL    HW173902   9.838  12.397   4.257 -2.2988 -1.7162 -0.3606
22348SOL    HW273903   9.848  12.529   4.331  1.2069 -2.6135  0.9834
22349SOL     OW73904  10.413   3.007   2.492 -0.0960 -0.4510  0.2909
22349SOL    HW173905  10.485   2.987   2.431 -0.0591  0.9730 -0.1682
22349SOL    HW273906  10.383   2.922   2.522  1.8353 -1.0969  0.5435
22350SOL     OW73907   1.187  11.590   4.936 -0.1116  0.2760 -0.0536
22350SOL    HW173908   1.200  11.624   5.025 -1.8844  0.2303  0.2624
22350SOL    HW273909   1.271  11.551   4.913  0.4172  0.3736  1.5680
22351SOL     OW73910   9.525   2.754   3.545 -0.2916  0.1037  0.2191
22351SOL    HW173911   9.514   2.699   3.467  0.8252 -1.5316  1.1503
22351SOL    HW273912   9.583   2.825   3.517 -1.1691  0.4317 -0.8240
22352SOL     OW73913   5.898   9.591   6.625  0.2289 -0.1377  0.2924
22352SOL    HW173914   5.830   9.657   6.608  0.9726  0.7055  0.5165
22352SOL    HW273915   5.896   9.578   6.720  0.0183 -0.5213  0.2383
22353SOL     OW73916   7.109   9.353   4.622 -0.3070  0.2903  0.1468
22353SOL    HW173917   7.088   9.287   4.555 -1.3118  0.7021  0.0459
22353SOL    HW273918   7.100   9.307   4.705  2.0045 -0.5310  0.0236
22354SOL     OW73919   5.988   8.486   4.592  0.4566  0.2451  0.2722
22354SOL    HW173920   5.962   8.401   4.556  1.6278  1.1558 -3.0536
22354SOL    HW273921   6.052   8.464   4.660 -1.6129 -1.5634  1.7829
22355SOL     OW73922   0.703   2.532  11.048  0.8332  0.5519  0.0406
22355SOL    HW173923   0.707   2.600  11.115  0.2135 -0.0594  0.7171
22355SOL    HW273924   0.646   2.465  11.085  0.0786  0.4161 -1.2907
22356SOL     OW73925   6.503   8.806   7.642  0.2814 -0.0900 -0.5800
22356SOL    HW173926   6.588   8.827   7.681  0.0029  0.3320 -0.1839
22356SOL    HW273927   6.453   8.887   7.649 -0.6776 -0.7507  0.5976
22357SOL     OW73928   5.932  10.510   7.366  0.0168  0.7138  0.2843
22357SOL    HW173929   5.972  10.555   7.292  0.8320  0.4017  0.5257
22357SOL    HW273930   5.889  10.434   7.328  1.0687  0.1458  0.2096
22358SOL     OW73931   0.912   2.160   4.189  0.5366  0.2417  0.1425
22358SOL    HW173932   0.821   2.188   4.195  0.2094 -0.9123  1.0710
22358SOL    HW273933   0.963   2.241   4.191 -0.4661  0.9112 -0.5387
22359SOL     OW73934   0.930   0.810   6.086 -0.5614  0.1448  0.0636
22359SOL    HW173935   0.869   0.808   6.012  1.0083  0.5548 -1.2857
22359SOL    HW273936   0.983   0.730   6.077  0.9603  1.1732 -0.4439
22360SOL     OW73937   3.491   0.485   0.764 -0.3002 -0.3880 -0.2245
22360SOL    HW173938   3.512   0.570   0.725 -1.4733 -0.1789 -0.4338
22360SOL    HW273939   3.481   0.426   0.690 -1.2055 -0.2973 -0.1885
22361SOL     OW73940  12.100   6.062  10.121 -0.1095  0.2373 -0.6045
22361SOL    HW173941  12.065   5.973  10.123  0.1741  0.1462  0.5808
22361SOL    HW273942  12.187   6.053  10.082 -0.4888  0.1469 -1.4445
22362SOL     OW73943   5.603   1.414   4.315 -0.3467 -0.2423 -0.1607
22362SOL    HW173944   5.584   1.398   4.222 -1.1026 -2.9045  0.3712
22362SOL    HW273945   5.673   1.479   4.314  1.4036 -1.9839 -2.7056
22363SOL     OW73946   6.795   6.815   9.319 -0.1993  0.1922  0.1040
22363SOL    HW173947   6.793   6.762   9.399 -0.6856 -0.9197 -0.6144
22363SOL    HW273948   6.887   6.837   9.307  0.0903 -0.8901  0.1892
22364SOL     OW73949  10.361  12.457   3.254 -0.0861  0.5572  0.0667
22364SOL    HW173950  10.268  12.473   3.233 -0.2309 -1.4909 -1.0861
22364SOL    HW273951  10.363  12.367   3.285  1.5293  0.5892  0.1111
22365SOL     OW73952   5.821  10.095   9.609 -0.5224 -0.1810 -0.0702
22365SOL    HW173953   5.897  10.133   9.653  0.0497 -2.9848  1.6111
22365SOL    HW273954   5.760  10.075   9.679 -2.8761  1.8577 -1.3727
22366SOL     OW73955   1.633   7.113   6.999  0.0027  0.3787 -0.0191
22366SOL    HW173956   1.716   7.064   7.002  0.0638  0.4783  2.4189
22366SOL    HW273957   1.655   7.196   6.956  0.6849 -0.3670 -1.1500
22367SOL     OW73958   5.748   4.045   7.533  0.0518  0.5183  0.0266
22367SOL    HW173959   5.738   3.950   7.526 -1.0368  0.4772  1.6183
22367SOL    HW273960   5.810   4.068   7.463 -1.9820 -0.9371 -2.4247
22368SOL     OW73961  11.607   4.119  10.083  0.1609  0.3183 -0.0546
22368SOL    HW173962  11.560   4.202  10.095 -0.4133 -0.0721  0.4217
22368SOL    HW273963  11.538   4.053  10.074  0.5892  0.0378 -1.6714
22369SOL     OW73964   4.035   7.057  10.035  0.0185 -0.0916  0.5663
22369SOL    HW173965   4.088   6.999   9.982  1.1177  0.6817  0.7918
22369SOL    HW273966   4.078   7.058  10.121 -0.7009  0.0737  0.9355
22370SOL     OW73967   4.886   5.642   9.275  0.1100  0.2246  0.1371
22370SOL    HW173968   4.871   5.730   9.309 -0.4078 -0.2657  1.2176
22370SOL    HW273969   4.920   5.592   9.350 -0.7252 -0.7935 -0.1349
22371SOL     OW73970   7.572   0.547   1.758  0.1946 -0.3079 -0.1420
22371SOL    HW173971   7.640   0.554   1.691  0.2462 -0.1101 -0.0672
22371SOL    HW273972   7.515   0.622   1.744  1.4580  1.0253  1.4442
22372SOL     OW73973   0.300   7.450   6.527  0.5977  0.3071  0.4609
22372SOL    HW173974   0.209   7.451   6.497  1.1524  0.6210 -1.3676
22372SOL    HW273975   0.343   7.517   6.474  2.1164 -0.5760  0.5091
22373SOL     OW73976   0.961   8.204  12.190  0.0162  0.3530  0.0726
22373SOL    HW173977   1.021   8.230  12.259 -0.6371 -0.6159  1.0455
22373SOL    HW273978   0.924   8.121  12.220 -1.4313  0.6675 -0.7107
22374SOL     OW73979   7.802   4.649   0.221 -0.0611 -0.2723  0.2009
22374SOL    HW173980   7.762   4.612   0.299  1.1636 -0.4893  0.7503
22374SOL    HW273981   7.887   4.682   0.251  0.4642 -0.4325 -1.0421
22375SOL     OW73982   5.242  10.889   9.154 -0.4567 -0.1271  0.1601
22375SOL    HW173983   5.198  10.813   9.116 -1.0752  0.4284 -0.2486
22375SOL    HW273984   5.313  10.909   9.094 -1.1118  0.4284 -0.4429
22376SOL     OW73985   5.176   7.215   9.674  0.0176 -0.1886  0.0233
22376SOL    HW173986   5.109   7.148   9.658 -0.6487  0.5877 -0.4929
22376SOL    HW273987   5.245   7.168   9.720 -0.6659 -1.1212  0.1390
22377SOL     OW73988   2.613   1.473  11.013  0.5550 -0.1912 -0.2418
22377SOL    HW173989   2.553   1.426  10.956  1.0848  0.2479 -1.1813
22377SOL    HW273990   2.579   1.458  11.101 -0.0317 -1.2457 -0.6240
22378SOL     OW73991   0.914  10.872   0.354  0.0858 -0.7084 -0.6858
22378SOL    HW173992   0.840  10.894   0.411 -1.0361 -1.1601 -1.9144
22378SOL    HW273993   0.955  10.796   0.396 -0.1655 -0.4731 -0.0051
22379SOL     OW73994   4.947   4.664   0.285  0.2091  0.4979  0.0591
22379SOL    HW173995   4.995   4.581   0.290 -2.3705 -1.1820 -1.1157
22379SOL    HW273996   4.930   4.688   0.376 -0.3717 -1.1234  0.3948
22380SOL     OW73997   6.910  12.532  11.585  0.0108 -0.2874  0.0210
22380SOL    HW173998   6.919  12.585  11.665 -0.1590 -0.6030  0.2513
22380SOL    HW273999   6.817  12.532  11.566 -0.1226 -1.3764  0.6273
22381SOL     OW74000   4.255   8.828   2.596 -0.2984 -0.1534  0.1565
22381SOL    HW174001   4.265   8.854   2.687 -1.2315  0.7870  0.0136
22381SOL    HW274002   4.279   8.906   2.546  0.2506 -0.6755 -0.3992
22382SOL     OW74003   0.696   4.771   3.734 -0.3076  0.3225 -0.3390
22382SOL    HW174004   0.620   4.807   3.779 -0.5155 -0.4366 -0.0690
22382SOL    HW274005   0.766   4.834   3.752 -0.5692  0.4116  0.4334
22383SOL     OW74006   9.589   3.251   4.883 -0.4577 -0.1691  0.3395
22383SOL    HW174007   9.519   3.248   4.948  0.5474  0.6431  1.4926
22383SOL    HW274008   9.657   3.306   4.922  0.1559  0.4155 -1.4176
22384SOL     OW74009   4.918  11.778   9.916  0.6627  0.3257 -0.4377
22384SOL    HW174010   4.997  11.833   9.915 -0.4307  1.9877 -1.8076
22384SOL    HW274011   4.846  11.840   9.925 -0.5031 -1.2876  3.2060
22385SOL     OW74012   9.586   2.233   7.077  0.8306 -0.0395  0.5287
22385SOL    HW174013   9.596   2.143   7.108 -1.9476 -0.2332  1.0682
22385SOL    HW274014   9.523   2.227   7.005  1.3183  1.3916 -0.0623
22386SOL     OW74015   9.459   5.715   4.162 -0.3144 -0.2436 -0.1515
22386SOL    HW174016   9.491   5.647   4.220  0.9050  1.2650  1.0439
22386SOL    HW274017   9.521   5.716   4.089  0.2653  0.2281  0.3346
22387SOL     OW74018   1.298   9.494  11.110 -0.3581  0.5182  0.1501
22387SOL    HW174019   1.267   9.582  11.130 -1.1104  0.2387  0.2545
22387SOL    HW274020   1.240   9.465  11.039 -1.1184 -0.4570  1.1417
22388SOL     OW74021   3.374   1.386   5.761  0.4171 -0.2744  0.0914
22388SOL    HW174022   3.289   1.405   5.720 -0.1324 -0.4394  1.1206
22388SOL    HW274023   3.370   1.293   5.783  0.7949 -0.2438  0.3011
22389SOL     OW74024   0.522   6.202  11.179  0.0530 -0.4738 -0.0090
22389SOL    HW174025   0.446   6.251  11.209  0.8754  2.7996 -2.5867
22389SOL    HW274026   0.495   6.165  11.095  0.1990 -2.6970  0.8438
22390SOL     OW74027   8.062   9.531   7.987 -0.1243  0.1734  0.5452
22390SOL    HW174028   8.091   9.614   8.026 -0.6928  0.5239  0.2415
22390SOL    HW274029   8.052   9.472   8.062  0.4035  0.3442  0.7516
22391SOL     OW74030  11.688   8.027   0.730  0.3224 -0.0945  0.1701
22391SOL    HW174031  11.665   7.935   0.721  0.9522 -0.1505 -1.1084
22391SOL    HW274032  11.605   8.070   0.749 -0.0706 -0.8619  0.2361
22392SOL     OW74033  11.402   4.191   3.216  0.0041  0.0230  0.4477
22392SOL    HW174034  11.402   4.235   3.132  1.1955  1.4109  1.1442
22392SOL    HW274035  11.451   4.110   3.201  0.2719  0.2929 -0.1617
22393SOL     OW74036   0.616   0.980   3.508 -0.3164  0.1088 -0.5922
22393SOL    HW174037   0.624   1.001   3.601 -2.0784 -1.9844  0.1074
22393SOL    HW274038   0.664   0.898   3.498  0.9590  0.9573 -1.8596
22394SOL     OW74039   6.871   8.456   3.883 -0.0831 -0.5797 -0.0543
22394SOL    HW174040   6.886   8.493   3.970 -1.4368  0.5343 -0.2625
22394SOL    HW274041   6.948   8.484   3.832  0.1941 -0.3206  0.4945
22395SOL     OW74042   0.190  11.162   1.079  0.0355 -0.1203 -0.6618
22395SOL    HW174043   0.175  11.254   1.101  2.0854 -0.0732  0.8537
22395SOL    HW274044   0.263  11.164   1.018  0.7069 -0.7611  0.1019
22396SOL     OW74045   2.244   9.869  12.514 -0.2606  0.0776 -0.5132
22396SOL    HW174046   2.269   9.949  12.560  1.5208 -0.4199 -0.5573
22396SOL    HW274047   2.197   9.900  12.436 -0.7674  1.0208  0.1502
22397SOL     OW74048   4.269   7.675   7.493 -0.7226 -0.0008  0.8073
22397SOL    HW174049   4.183   7.706   7.521 -1.2294  0.0970 -0.7273
22397SOL    HW274050   4.255   7.584   7.468 -0.1488 -0.2770  1.4541
22398SOL     OW74051   6.319   1.663   3.196  0.6072  0.0891  0.1904
22398SOL    HW174052   6.256   1.599   3.229 -0.0687  0.4580 -0.3628
22398SOL    HW274053   6.291   1.681   3.106 -0.8451  3.1222  1.1001
22399SOL     OW74054   8.957   5.879   0.191  0.2305  0.3062  0.2824
22399SOL    HW174055   8.978   5.815   0.123  0.4948 -0.4012  1.0169
22399SOL    HW274056   9.042   5.904   0.227  0.0516  0.1915  0.7891
22400SOL     OW74057   6.613   1.949   8.197  0.2019  0.5954 -0.3534
22400SOL    HW174058   6.595   1.917   8.286  1.6173  1.8752  0.4355
22400SOL    HW274059   6.634   2.041   8.209 -0.8837  1.1263 -2.2159
22401SOL     OW74060  12.011  11.478   8.639  0.1177 -0.1837 -0.1729
22401SOL    HW174061  12.021  11.533   8.716 -1.5224  0.9450 -0.7041
22401SOL    HW274062  11.916  11.466   8.630  0.1968  0.3288 -2.4043
22402SOL     OW74063   6.533  11.040   3.369 -0.2189  0.1577  0.3042
22402SOL    HW174064   6.505  11.120   3.413  0.2313  1.7130 -2.0891
22402SOL    HW274065   6.627  11.035   3.387 -0.0329  0.7970 -0.4400
22403SOL     OW74066   3.451   2.759   3.567  0.0055  0.1797 -0.2921
22403SOL    HW174067   3.489   2.743   3.654 -0.6839  3.0033  0.6324
22403SOL    HW274068   3.524   2.752   3.507  0.6994 -0.7881  0.6219
22404SOL     OW74069   9.398   8.657   1.255 -0.1332  0.5847 -0.0905
22404SOL    HW174070   9.473   8.673   1.312 -0.3502  0.6695  0.1707
22404SOL    HW274071   9.418   8.706   1.175 -1.0803  2.7710  0.9317
22405SOL     OW74072   6.411   9.233  12.154 -0.0710 -0.7450 -0.3259
22405SOL    HW174073   6.499   9.269  12.147 -0.2223 -0.2579  0.1859
22405SOL    HW274074   6.370   9.251  12.069 -0.2881  0.6969  0.0581
22406SOL     OW74075   9.915   9.563   5.340 -0.1037  0.3425 -0.2206
22406SOL    HW174076   9.869   9.596   5.417 -0.0103 -1.0015  0.4290
22406SOL    HW274077   9.901   9.631   5.273 -0.7077  1.2307  0.7761
22407SOL     OW74078   7.048   3.730   5.133 -0.6860 -0.0705 -0.1304
22407SOL    HW174079   7.064   3.823   5.119  0.1540 -0.4758 -2.3825
22407SOL    HW274080   6.954   3.719   5.118 -0.2264 -0.0900 -4.1726
22408SOL     OW74081   6.256   7.604  11.217 -0.2183  0.0450  0.6709
22408SOL    HW174082   6.294   7.527  11.174 -0.3017 -0.1943  1.0232
22408SOL    HW274083   6.185   7.631  11.159  0.1413  0.1672  0.2856
22409SOL     OW74084   1.763   7.298   8.039  0.5455 -0.0003 -0.4656
22409SOL    HW174085   1.846   7.280   8.084 -0.2193  1.0271  1.4505
22409SOL    HW274086   1.697   7.296   8.108 -0.8408  0.5762 -1.7212
22410SOL     OW74087   1.313   2.127   4.105 -0.3168  0.1852 -0.0083
22410SOL    HW174088   1.281   2.168   4.185 -3.2080 -0.6688 -0.5985
22410SOL    HW274089   1.339   2.039   4.133 -2.4471 -0.5411 -0.0813
22411SOL     OW74090   5.910   8.323   6.559 -0.3287  0.3743  0.6335
22411SOL    HW174091   5.852   8.378   6.611 -0.8345 -0.2288  0.7149
22411SOL    HW274092   5.921   8.371   6.476  0.3328  1.2464  1.2109
22412SOL     OW74093   6.859   3.801  11.066  0.0672 -0.0455  0.0978
22412SOL    HW174094   6.768   3.798  11.034 -0.1642  0.0188  0.7276
22412SOL    HW274095   6.852   3.774  11.157  0.4097  1.8618  0.7328
22413SOL     OW74096   1.586   3.847   5.747 -0.4103  0.1518 -0.7906
22413SOL    HW174097   1.521   3.916   5.733  0.1318  0.4348 -2.1662
22413SOL    HW274098   1.546   3.768   5.709 -0.8535 -0.2200  0.3964
22414SOL     OW74099  10.760   0.432   0.055  0.2436 -0.2050  0.1824
22414SOL    HW174100  10.755   0.365  -0.013  0.5461 -1.5414  1.4318
22414SOL    HW274101  10.842   0.414   0.101  0.8967  1.7140 -0.0931
22415SOL     OW74102   7.151   7.354   5.220 -0.4502 -0.1470 -0.1583
22415SOL    HW174103   7.212   7.288   5.252 -0.2510 -0.8970 -1.9237
22415SOL    HW274104   7.077   7.304   5.186 -0.2854  0.4824 -1.5519
22416SOL     OW74105   3.632   8.163  11.219 -0.2162  0.4327  0.2250
22416SOL    HW174106   3.597   8.225  11.154 -1.3830 -0.4732 -0.0540
22416SOL    HW274107   3.563   8.096  11.227  0.8100 -0.5825  0.8496
22417SOL     OW74108   6.235   4.312   7.060 -0.1921 -0.1589 -0.1037
22417SOL    HW174109   6.239   4.307   7.156  2.2899 -0.8986 -0.1766
22417SOL    HW274110   6.254   4.223   7.031  2.8776  0.7344 -1.2409
22418SOL     OW74111   6.136   1.884  11.621  0.1576 -0.0161  0.0879
22418SOL    HW174112   6.149   1.803  11.669 -1.9068 -0.4745 -0.0363
22418SOL    HW274113   6.164   1.953  11.681  2.0643 -0.7919  0.1404
22419SOL     OW74114  12.360  12.483   0.468  0.1149  0.2465  0.1448
22419SOL    HW174115  12.298  12.431   0.520  0.8766  0.5174  1.3683
22419SOL    HW274116  12.306  12.553   0.431 -0.1737  1.1073  2.0725
22420SOL     OW74117   3.915   2.360   7.684  0.1035 -0.1189  0.4253
22420SOL    HW174118   3.949   2.321   7.765  0.1364 -1.0158 -0.0119
22420SOL    HW274119   3.981   2.425   7.659 -0.5923  1.2218  1.8816
22421SOL     OW74120   6.206   0.397   9.820 -0.5246  0.4688  0.8092
22421SOL    HW174121   6.261   0.321   9.797 -0.1334  1.5587 -2.3311
22421SOL    HW274122   6.119   0.360   9.834 -0.3686 -0.6069 -0.7936
22422SOL     OW74123   3.924  11.690   5.198 -0.1747  0.2622 -0.3599
22422SOL    HW174124   3.957  11.719   5.113  0.2230 -1.4391 -0.8230
22422SOL    HW274125   3.995  11.710   5.259  0.2639 -0.0793 -0.7447
22423SOL     OW74126   9.660   8.764   4.397 -0.2086 -0.5652  0.0370
22423SOL    HW174127   9.566   8.771   4.382 -0.1855  0.1513  0.2062
22423SOL    HW274128   9.699   8.829   4.339  0.1071 -0.1366  0.7103
22424SOL     OW74129   8.638   3.122  12.067 -0.0437 -0.9946  0.1470
22424SOL    HW174130   8.666   3.047  12.119  2.0107 -0.3648  0.0564
22424SOL    HW274131   8.716   3.145  12.015 -1.6778 -0.9775 -2.4857
22425SOL     OW74132   1.768   0.548   0.161  0.1324  0.4283 -0.5248
22425SOL    HW174133   1.803   0.477   0.214  0.3050  2.4049  2.2416
22425SOL    HW274134   1.828   0.554   0.086  1.1900 -1.1254  0.1489
22426SOL     OW74135  11.200   4.456   2.318  0.3221 -0.1289  0.1259
22426SOL    HW174136  11.119   4.431   2.363  0.3387  1.2774  1.0267
22426SOL    HW274137  11.172   4.517   2.250  0.5940  0.2564  0.3528
22427SOL     OW74138   4.212   7.008   0.742 -0.1189 -0.1054  0.5215
22427SOL    HW174139   4.144   7.059   0.784 -0.0715  0.1048  0.3439
22427SOL    HW274140   4.212   7.037   0.651 -0.5144 -0.8590  0.2655
22428SOL     OW74141   1.060  10.791   4.008 -0.4746  0.0595  0.0171
22428SOL    HW174142   1.021  10.704   4.022  1.7737 -1.0944 -0.3164
22428SOL    HW274143   1.011  10.828   3.935  0.3930 -2.2540 -1.8753
22429SOL     OW74144   2.708   9.834   9.479  0.1994  0.0030  0.0739
22429SOL    HW174145   2.792   9.809   9.516  0.8282  0.7930 -0.7801
22429SOL    HW274146   2.675   9.902   9.539  0.2512 -0.1816  0.3120
22430SOL     OW74147  12.113   6.544  10.816 -0.1103  0.9306 -0.4574
22430SOL    HW174148  12.022   6.526  10.842 -0.2771  2.4985  0.1566
22430SOL    HW274149  12.108   6.625  10.764  0.9229  0.9705 -0.5194
22431SOL     OW74150   3.444   7.056  11.115 -0.0581 -0.4829  0.0096
22431SOL    HW174151   3.427   7.148  11.138 -0.7548 -0.8497  1.0378
22431SOL    HW274152   3.406   7.046  11.028  0.8883  0.4391 -0.5439
22432SOL     OW74153   5.983   3.960   8.552 -0.4732  0.0113 -0.2660
22432SOL    HW174154   5.943   4.033   8.599 -0.3299  0.5710 -1.0002
22432SOL    HW274155   5.934   3.955   8.470 -0.0222 -0.2707 -0.5187
22433SOL     OW74156   8.848   6.520   7.093 -0.0315  0.3216 -0.1812
22433SOL    HW174157   8.788   6.592   7.111  1.5396  1.6210  0.0640
22433SOL    HW274158   8.852   6.515   6.998 -0.8315 -0.0744 -0.2083
22434SOL     OW74159   3.703   0.860   9.411  0.8625  0.1641  0.3463
22434SOL    HW174160   3.776   0.882   9.353  1.4524  1.1951  1.4477
22434SOL    HW274161   3.645   0.807   9.356  2.1380 -0.1914 -0.7296
22435SOL     OW74162   6.909   2.719   9.030 -0.0767  0.4061 -0.2687
22435SOL    HW174163   6.941   2.666   9.103 -1.7706 -0.2279  0.0524
22435SOL    HW274164   6.875   2.655   8.968  2.5830  0.8224 -2.3511
22436SOL     OW74165   0.244   0.947  11.090 -0.4550 -0.3410  0.2482
22436SOL    HW174166   0.202   0.972  11.008 -2.4513 -3.2630  0.2293
22436SOL    HW274167   0.189   0.988  11.158 -0.3714 -0.0666  0.1485
22437SOL     OW74168   7.708   0.681  10.314 -0.0726 -0.0525 -0.2051
22437SOL    HW174169   7.625   0.637  10.295 -0.1478 -0.3268  0.7095
22437SOL    HW274170   7.775   0.612  10.303 -0.0547 -0.0535 -0.0923
22438SOL     OW74171   1.992   9.340   5.023  0.2375 -0.0312 -0.3448
22438SOL    HW174172   2.013   9.423   4.979  1.0281  1.1164  2.0043
22438SOL    HW274173   1.902   9.351   5.053  0.6404  0.3948  0.7580
22439SOL     OW74174   5.462  10.994  11.300  0.2252  0.0712 -0.5470
22439SOL    HW174175   5.367  11.008  11.297  0.3377  1.8343  1.7613
22439SOL    HW274176   5.500  11.079  11.278  1.1781  0.1833  1.3193
22440SOL     OW74177   2.950   9.075   0.069 -0.0060 -0.4238  0.0915
22440SOL    HW174178   2.993   9.137   0.129 -1.4718  1.1357 -0.3764
22440SOL    HW274179   2.864   9.114   0.053 -0.9752 -2.5965 -0.2867
22441SOL     OW74180   7.416   2.395  12.485  0.1993 -0.0927  0.3756
22441SOL    HW174181   7.377   2.307  12.491  0.0740 -0.0641  0.0064
22441SOL    HW274182   7.475   2.400  12.561 -0.1818 -0.3009  0.6937
22442SOL     OW74183  10.467   6.050   1.964  0.3481  0.2104  0.2279
22442SOL    HW174184  10.539   6.041   2.026  0.2028  0.9802  0.5123
22442SOL    HW274185  10.429   6.136   1.983 -0.6044 -0.1536  0.0391
22443SOL     OW74186   7.526   9.200   6.509 -0.2686  0.0872  0.2975
22443SOL    HW174187   7.585   9.274   6.498  0.0412 -0.2472 -0.3199
22443SOL    HW274188   7.583   9.123   6.509 -0.6800 -0.2227 -0.0831
22444SOL     OW74189  10.084   6.012   7.811  0.0685 -0.1515 -0.4156
22444SOL    HW174190  10.099   6.099   7.775 -0.2749  0.5397  1.0255
22444SOL    HW274191  10.002   6.020   7.860 -0.9727 -1.7850 -1.7726
22445SOL     OW74192   3.994   1.300   7.360  0.1756 -1.2849  0.9090
22445SOL    HW174193   3.988   1.376   7.302 -0.6201 -2.7464 -1.0134
22445SOL    HW274194   3.908   1.296   7.402  0.2333 -1.1023  1.0453
22446SOL     OW74195   1.442  10.899   3.460  0.6567 -0.1967  0.2303
22446SOL    HW174196   1.453  10.852   3.377  0.5908 -0.4450  0.3587
22446SOL    HW274197   1.477  10.986   3.444 -0.6143  0.2023 -0.4856
22447SOL     OW74198   5.526   2.368  12.370  0.4743  0.1052  0.1600
22447SOL    HW174199   5.594   2.435  12.373  1.0382 -0.4342 -0.1666
22447SOL    HW274200   5.466   2.397  12.301  1.6254 -0.5327 -1.1810
22448SOL     OW74201  12.165   0.617  10.946  0.1681  0.8985 -0.0235
22448SOL    HW174202  12.113   0.571  11.011  1.6929  0.2124  0.7437
22448SOL    HW274203  12.189   0.700  10.988 -0.9244  1.5647 -0.6698
22449SOL     OW74204   0.163   5.635  10.147  0.9670  0.0692  0.8768
22449SOL    HW174205   0.238   5.689  10.122  0.6864  0.0238 -0.1276
22449SOL    HW274206   0.139   5.589  10.066 -0.2685  0.2419  1.1256
22450SOL     OW74207   1.229   7.489  10.619 -0.1201 -0.3269 -0.1026
22450SOL    HW174208   1.166   7.489  10.691 -0.8167  1.4246 -0.6784
22450SOL    HW274209   1.275   7.405  10.628 -1.8364 -1.2126  0.9248
22451SOL     OW74210   2.109  12.206   4.501 -0.4242 -0.3070  0.3620
22451SOL    HW174211   2.192  12.237   4.464 -0.7676 -0.2098 -0.3410
22451SOL    HW274212   2.064  12.164   4.428 -0.6194 -1.1444  0.9499
22452SOL     OW74213   8.076   3.631   1.152 -0.0144 -0.0254  0.6439
22452SOL    HW174214   8.143   3.573   1.115  0.2856  1.2481 -0.9466
22452SOL    HW274215   8.115   3.665   1.232  0.2799 -1.0793  0.9690
22453SOL     OW74216   6.305   4.317   6.771 -0.4884  0.5117  0.1140
22453SOL    HW174217   6.231   4.356   6.724 -0.2622  0.9498  0.1114
22453SOL    HW274218   6.309   4.365   6.854  1.1455  2.0797 -0.7723
22454SOL     OW74219  11.810   4.655   9.197 -0.2513 -0.1406 -0.3748
22454SOL    HW174220  11.882   4.655   9.260  0.0637  1.5193 -0.6788
22454SOL    HW274221  11.731   4.656   9.251 -0.1557 -3.1129 -0.0242
22455SOL     OW74222   2.993   7.634   4.345 -0.0092 -0.0072  0.0191
22455SOL    HW174223   2.962   7.609   4.432  1.3734  0.7626  0.7729
22455SOL    HW274224   3.079   7.672   4.361  1.1790 -1.6857 -1.9011
22456SOL     OW74225   3.824   6.322   2.235  0.2827 -0.6321 -0.2589
22456SOL    HW174226   3.772   6.402   2.227  0.0329 -0.6777  0.7188
22456SOL    HW274227   3.893   6.345   2.297  1.0846 -0.7552 -1.0884
22457SOL     OW74228   4.192  11.437   0.349 -0.0070  0.0411 -0.1106
22457SOL    HW174229   4.165  11.351   0.382 -0.1085 -0.4695 -1.4626
22457SOL    HW274230   4.287  11.439   0.361  0.0859 -0.5518 -0.7216
22458SOL     OW74231  11.155   7.407   5.075 -0.2842 -0.1723 -0.3819
22458SOL    HW174232  11.189   7.496   5.064 -0.8641  0.0692 -0.2339
22458SOL    HW274233  11.065   7.419   5.106 -0.4774 -0.8096 -0.6833
22459SOL     OW74234   1.725  11.747   1.745 -0.1183  1.0818 -0.3947
22459SOL    HW174235   1.668  11.823   1.733  0.1879  1.3138 -0.3918
22459SOL    HW274236   1.800  11.780   1.793  0.5660  1.0415 -1.3966
22460SOL     OW74237   3.929   6.827   8.936  0.1246 -0.2364 -0.1316
22460SOL    HW174238   3.917   6.789   8.849 -0.9380 -0.6220  0.1664
22460SOL    HW274239   4.014   6.870   8.933  1.1195 -2.1732 -0.6584
22461SOL     OW74240   6.823  10.368   3.383 -0.0083 -0.0423 -0.0867
22461SOL    HW174241   6.791  10.309   3.314 -1.2036  0.2306  0.2074
22461SOL    HW274242   6.918  10.363   3.377 -0.0288  1.1173 -2.7496
22462SOL     OW74243  11.735   3.576   1.632  0.1833  0.3942 -0.1603
22462SOL    HW174244  11.646   3.560   1.602 -0.0389 -0.9852  1.1066
22462SOL    HW274245  11.783   3.604   1.554 -1.2754  0.8512 -0.9114
22463SOL     OW74246   0.422   5.256  11.364 -0.1094  0.0507  0.0489
22463SOL    HW174247   0.451   5.215  11.282  4.3652  3.1306 -0.2380
22463SOL    HW274248   0.469   5.210  11.433 -0.8833 -0.0356  0.5381
22464SOL     OW74249  10.793   5.445   0.672  0.4847  0.8994 -0.3757
22464SOL    HW174250  10.862   5.383   0.644 -0.8399 -1.1835  0.6982
22464SOL    HW274251  10.841   5.521   0.703  2.2978 -0.1468 -0.4254
22465SOL     OW74252  12.267   5.779   0.364  0.6008 -0.5360 -0.4154
22465SOL    HW174253  12.345   5.746   0.408  1.1337  2.9889  1.7174
22465SOL    HW274254  12.298   5.806   0.277  1.4779 -0.2498 -0.0203
22466SOL     OW74255   8.218   0.274   0.727  0.1040 -0.1860 -0.2342
22466SOL    HW174256   8.307   0.271   0.763  0.7093 -0.9190 -1.7337
22466SOL    HW274257   8.191   0.183   0.721 -1.2978  0.0654  1.4224
22467SOL     OW74258   3.167   7.564   3.364  0.2804  0.5041 -0.1154
22467SOL    HW174259   3.177   7.582   3.270  1.4824  0.1573 -0.0653
22467SOL    HW274260   3.102   7.628   3.393  2.2204  2.8054 -0.5495
22468SOL     OW74261   4.534   8.328   6.250 -0.0799 -0.5149 -0.0187
22468SOL    HW174262   4.460   8.386   6.233  1.0574  0.5937 -1.4374
22468SOL    HW274263   4.510   8.245   6.208 -1.3263 -0.8162  1.2370
22469SOL     OW74264   5.696   7.213   0.399 -0.5423  0.5323  0.6717
22469SOL    HW174265   5.764   7.245   0.340 -0.0529  1.7282  1.8197
22469SOL    HW274266   5.744   7.178   0.474 -1.1656  0.9111  1.2658
22470SOL     OW74267   9.273   9.989   9.415 -0.0146 -0.3456  0.4702
22470SOL    HW174268   9.295  10.074   9.375 -2.6465  0.3494  0.2885
22470SOL    HW274269   9.297   9.925   9.348  0.0665  0.4279 -0.2720
22471SOL     OW74270   2.319   6.120   8.075  0.5368 -0.0732 -0.3470
22471SOL    HW174271   2.275   6.078   8.001  0.3128  0.0201 -0.2667
22471SOL    HW274272   2.252   6.177   8.113  0.6942 -0.0155 -0.1582
22472SOL     OW74273   0.931   5.334   5.888 -0.6164  0.1940 -0.0692
22472SOL    HW174274   0.893   5.345   5.801 -0.6234 -3.0680 -0.6065
22472SOL    HW274275   1.026   5.343   5.873 -0.6395  0.0308 -0.3148
22473SOL     OW74276   3.796   7.122   7.018  0.3777  0.4312  0.1710
22473SOL    HW174277   3.853   7.113   6.941 -0.8282  0.3889 -0.7372
22473SOL    HW274278   3.716   7.163   6.985 -0.0467  0.7177  1.4712
22474SOL     OW74279   4.169   4.219   8.038  0.1874  0.4364  0.2607
22474SOL    HW174280   4.233   4.237   8.107  1.0460 -0.3498 -0.3056
22474SOL    HW274281   4.154   4.125   8.044  1.1848  0.1482 -1.3751
22475SOL     OW74282   0.561   1.166  12.466  0.1158  0.4132 -0.1577
22475SOL    HW174283   0.623   1.148  12.537 -0.2061 -0.1020 -0.0035
22475SOL    HW274284   0.591   1.249  12.429  0.6545  0.3767  0.1814
22476SOL     OW74285   0.388   5.320   9.542  0.1497 -0.0060 -0.0308
22476SOL    HW174286   0.430   5.395   9.498 -1.1582  0.8186  0.0570
22476SOL    HW274287   0.458   5.256   9.553  1.2798  1.1539 -0.2395
22477SOL     OW74288   4.386   0.839  12.571  0.8488 -0.1536 -0.2434
22477SOL    HW174289   4.357   0.813  12.658  0.1424  0.6914 -0.2095
22477SOL    HW274290   4.462   0.895  12.586  1.1219 -0.5338 -0.2075
22478SOL     OW74291   1.109   6.057   9.751  0.1453  0.5795 -0.1090
22478SOL    HW174292   1.184   6.113   9.774  1.5771 -1.1527 -0.3542
22478SOL    HW274293   1.070   6.034   9.836 -1.0445  2.5862 -0.0275
22479SOL     OW74294   1.148   5.121   8.992 -0.3726 -0.1361  0.3461
22479SOL    HW174295   1.159   5.039   9.040 -0.3833  1.4843  3.3313
22479SOL    HW274296   1.053   5.134   8.988 -0.4931 -1.1853 -1.9835
22480SOL     OW74297  12.130   5.288   4.997  0.3731 -0.8793 -0.4694
22480SOL    HW174298  12.192   5.257   5.063  0.3305  1.4779  0.7806
22480SOL    HW274299  12.044   5.265   5.031  0.2513  1.6454  1.1852
22481SOL     OW74300  10.086  12.490  12.004 -0.0018 -0.5796  0.7956
22481SOL    HW174301  10.135  12.408  12.014 -0.1211 -0.9016 -1.0772
22481SOL    HW274302  10.025  12.474  11.933  0.4490  1.3487 -0.0939
22482SOL     OW74303   8.045   8.117   0.116 -0.4107  0.7182  0.4725
22482SOL    HW174304   7.996   8.183   0.163 -0.9026  0.9217 -0.3099
22482SOL    HW274305   8.119   8.165   0.078  1.3859  0.1440  2.9665
22483SOL     OW74306   2.537   5.585   5.131  0.0638  0.2742  0.5916
22483SOL    HW174307   2.612   5.604   5.075  0.1412 -0.7743  0.3182
22483SOL    HW274308   2.488   5.518   5.084 -1.5005  1.5134  0.3816
22484SOL     OW74309  12.462   1.758   9.550  0.4893  0.4468 -0.3438
22484SOL    HW174310  12.368   1.754   9.537  0.0993  1.6024  1.7274
22484SOL    HW274311  12.499   1.727   9.467 -1.6798  0.8179 -1.5198
22485SOL     OW74312   5.935   1.115   5.072  0.5126 -0.2182  0.4853
22485SOL    HW174313   6.027   1.099   5.092  0.8274 -0.1423 -0.7920
22485SOL    HW274314   5.915   1.050   5.004 -0.1479  0.3036  0.1783
22486SOL     OW74315   0.032   6.257   8.053 -0.1581  0.2694  0.0037
22486SOL    HW174316   0.058   6.348   8.035 -0.2521  0.0538 -1.2987
22486SOL    HW274317  -0.061   6.262   8.072  0.4081  0.8376  3.1299
22487SOL     OW74318   6.222   1.733   0.361 -0.1523  0.1353 -0.2039
22487SOL    HW174319   6.259   1.651   0.328 -1.0119  0.0908 -1.1357
22487SOL    HW274320   6.184   1.710   0.446 -0.9255 -0.6088 -0.7214
22488SOL     OW74321   5.865   7.359   5.444 -0.4835  0.2051 -0.6010
22488SOL    HW174322   5.930   7.290   5.459 -1.1025  0.0190  1.5828
22488SOL    HW274323   5.781   7.316   5.460 -0.8905  1.3904  0.6375
22489SOL     OW74324   5.999   0.459   0.342  0.3341 -0.0531 -0.0546
22489SOL    HW174325   6.086   0.441   0.308 -0.2676 -2.6621 -0.4534
22489SOL    HW274326   5.992   0.406   0.422 -0.6738  0.5965  0.3200
22490SOL     OW74327   0.830   1.409   9.226 -1.1822 -0.1954  0.3675
22490SOL    HW174328   0.916   1.396   9.265 -1.1198  2.0942  1.1331
22490SOL    HW274329   0.769   1.397   9.299 -1.1947  2.1110  0.8103
22491SOL     OW74330   6.328   6.162   9.798  0.3404 -0.4567 -0.0896
22491SOL    HW174331   6.329   6.077   9.842 -1.5305 -1.6227 -2.0972
22491SOL    HW274332   6.272   6.149   9.722  0.7219  2.3642 -0.9733
22492SOL     OW74333  10.599  11.315   9.657  0.5773  0.3691  0.0372
22492SOL    HW174334  10.619  11.313   9.563 -0.2606 -2.5488 -0.1914
22492SOL    HW274335  10.513  11.272   9.663 -0.2067  2.0873  2.0114
22493SOL     OW74336   0.029   7.766  12.025 -0.3883  0.2308  0.3030
22493SOL    HW174337   0.059   7.811  12.104 -1.5813  0.9446  0.3786
22493SOL    HW274338   0.109   7.741  11.979  0.3501  2.4871  0.2372
22494SOL     OW74339   8.278  11.213   6.052 -0.8867 -0.8295  0.0870
22494SOL    HW174340   8.262  11.308   6.047  1.2846 -0.2796  2.1491
22494SOL    HW274341   8.279  11.185   5.960 -0.5095  1.3403 -0.6370
22495SOL     OW74342   3.399   9.181   9.434  0.8154  0.1126  0.1012
22495SOL    HW174343   3.439   9.129   9.364  2.0865  1.1654 -0.0009
22495SOL    HW274344   3.473   9.224   9.477  0.0167 -0.2040  1.8598
22496SOL     OW74345   8.216   0.977   7.636  0.4187  0.3580 -0.3579
22496SOL    HW174346   8.159   1.054   7.632 -0.4481 -0.3076 -1.5234
22496SOL    HW274347   8.166   0.908   7.593  1.8692 -0.4054 -0.8986
22497SOL     OW74348  12.541   4.861  10.768  0.3834  0.3174  0.3404
22497SOL    HW174349  12.501   4.836  10.685 -0.5441  2.5873  0.0320
22497SOL    HW274350  12.500   4.804  10.833  0.2653 -0.6936 -0.6085
22498SOL     OW74351   2.652   9.692   1.976 -0.5437  0.0039 -0.0339
22498SOL    HW174352   2.647   9.788   1.974  0.1905  0.0944  1.2305
22498SOL    HW274353   2.726   9.673   2.035 -0.8732 -1.3376 -0.0184
22499SOL     OW74354   3.966   8.371   0.710 -0.2503 -0.4282 -0.0159
22499SOL    HW174355   3.887   8.326   0.679 -0.7877  0.6366 -0.2664
22499SOL    HW274356   4.008   8.308   0.768 -1.4317 -0.9407  0.3324
22500SOL     OW74357   7.844   1.630   0.646 -0.3613 -0.2638  0.3243
22500SOL    HW174358   7.818   1.718   0.673  1.4543  0.6899 -0.8315
22500SOL    HW274359   7.914   1.644   0.583  0.9154 -2.5734  1.0961
22501SOL     OW74360   1.995   9.183   2.310  0.0321  0.1453 -0.2885
22501SOL    HW174361   1.914   9.168   2.261 -0.1550 -1.7962  0.5113
22501SOL    HW274362   2.064   9.180   2.243 -0.5621  2.9487 -1.1392
22502SOL     OW74363   5.693   6.160   0.826 -0.0209  0.0275 -0.4102
22502SOL    HW174364   5.621   6.223   0.825 -0.7907 -0.7514 -3.2937
22502SOL    HW274365   5.654   6.079   0.793  1.5708 -1.2252  0.6350
22503SOL     OW74366  11.706   1.413   4.366  0.1430  0.0099 -0.5857
22503SOL    HW174367  11.766   1.487   4.374  1.0408 -0.7250 -0.2968
22503SOL    HW274368  11.620   1.453   4.357  0.6087  1.0869 -0.4553
22504SOL     OW74369   5.893   9.264   6.129  0.0030 -0.2762 -0.4737
22504SOL    HW174370   5.819   9.288   6.074  0.3396 -0.9001 -1.2244
22504SOL    HW274371   5.877   9.308   6.213 -1.3377 -0.6221 -0.5341
22505SOL     OW74372   0.819   6.651   0.926  0.3570  0.2989  0.4164
22505SOL    HW174373   0.852   6.601   1.000 -0.4500 -1.5667 -0.4313
22505SOL    HW274374   0.731   6.678   0.952  0.5765  0.8292  0.6406
22506SOL     OW74375   2.330   9.179  10.032 -0.5502  0.0240  0.2770
22506SOL    HW174376   2.290   9.094  10.013  0.4407 -0.1305 -1.3077
22506SOL    HW274377   2.261   9.242  10.015 -0.8523 -0.3860 -0.0550
22507SOL     OW74378   1.871   9.339   8.250  0.4365  0.0843 -0.3093
22507SOL    HW174379   1.878   9.286   8.171  0.5056 -0.5918  0.1401
22507SOL    HW274380   1.961   9.343   8.284  0.3864  0.2783 -0.1984
22508SOL     OW74381   1.948  11.506   1.937  0.2142  0.2114  0.5548
22508SOL    HW174382   1.925  11.510   1.844  1.5980 -0.3373  0.1603
22508SOL    HW274383   2.043  11.492   1.937  0.5562  2.1815  2.0788
22509SOL     OW74384   8.680   1.664   1.418 -0.6626  0.4285  0.5552
22509SOL    HW174385   8.600   1.707   1.389 -2.0447 -0.8062  2.3567
22509SOL    HW274386   8.691   1.692   1.509  1.4538  1.2219  0.1222
22510SOL     OW74387  11.836   0.343   1.021  0.4372  0.1852 -0.2005
22510SOL    HW174388  11.899   0.292   0.970 -0.9445  0.4801 -2.3167
22510SOL    HW274389  11.882   0.424   1.042  0.9028  0.2435 -1.3923
22511SOL     OW74390   5.769   4.109   9.493 -0.6096  0.2280 -0.1010
22511SOL    HW174391   5.745   4.185   9.441 -2.3107  0.0614  0.3599
22511SOL    HW274392   5.688   4.058   9.499  0.2917 -1.2319  0.2429
22512SOL     OW74393   5.480  10.771  11.778  0.7158 -0.7027  0.0957
22512SOL    HW174394   5.566  10.747  11.810  0.9441 -0.1907 -0.1252
22512SOL    HW274395   5.495  10.806  11.690  0.7779  2.6444  1.2843
22513SOL     OW74396   8.958  11.738  11.642 -0.3053  0.0194 -0.0816
22513SOL    HW174397   8.999  11.653  11.626  0.2549 -0.0177  1.3794
22513SOL    HW274398   8.995  11.795  11.574  0.5223 -0.5287 -0.1158
22514SOL     OW74399   1.737   3.645   9.649  0.4049 -0.5047  0.6019
22514SOL    HW174400   1.697   3.655   9.562  2.1096  0.9905 -0.0622
22514SOL    HW274401   1.672   3.683   9.709 -1.2771 -2.5250  0.1813
22515SOL     OW74402  11.980   3.785   0.729 -0.0504  0.3238  0.0602
22515SOL    HW174403  11.996   3.755   0.818 -0.9525  1.5789  0.6667
22515SOL    HW274404  12.038   3.730   0.675 -1.6864 -2.5906  1.0518
22516SOL     OW74405   0.559  12.035   4.025 -0.3584 -0.5557  0.2047
22516SOL    HW174406   0.516  11.961   3.981 -0.5182 -1.0857  1.2276
22516SOL    HW274407   0.559  12.011   4.117 -1.5208  1.2663  0.7259
22517SOL     OW74408   8.061   8.186   7.592 -0.3274  0.2467 -0.0128
22517SOL    HW174409   8.033   8.214   7.505  2.1954 -0.0480 -1.0086
22517SOL    HW274410   8.052   8.091   7.591  2.4431 -0.0966 -1.1329
22518SOL     OW74411   6.130   3.260  11.960  0.0231 -0.0168  0.0790
22518SOL    HW174412   6.046   3.287  11.997  0.8002  0.4066  1.6163
22518SOL    HW274413   6.151   3.326  11.895  0.6926  1.7793  2.0109
22519SOL     OW74414   3.118   9.033   7.067 -0.0263  0.2871  0.0838
22519SOL    HW174415   3.088   9.009   6.980  0.4648 -0.8319  0.2047
22519SOL    HW274416   3.135   9.127   7.062 -1.0802  0.4569 -0.6927
22520SOL     OW74417   2.936   1.525   2.181 -0.2053  0.0031 -0.1079
22520SOL    HW174418   2.928   1.609   2.136  1.5464 -0.5047 -1.4875
22520SOL    HW274419   2.979   1.467   2.118 -0.8383 -1.7807  1.0090
22521SOL     OW74420   4.673   3.349   4.280 -0.0932 -0.2133  0.2273
22521SOL    HW174421   4.614   3.296   4.334  0.6742 -0.0324  1.2519
22521SOL    HW274422   4.626   3.359   4.197 -1.2437 -0.5744  0.8164
22522SOL     OW74423  10.083   9.851   4.518 -0.1479  0.2374  0.1414
22522SOL    HW174424  10.005   9.811   4.480  0.9168 -0.6467 -1.2316
22522SOL    HW274425  10.122   9.782   4.572 -0.0330  0.5133  0.4202
22523SOL     OW74426   1.755   8.226   8.673 -0.2764  0.5940 -0.3228
22523SOL    HW174427   1.733   8.142   8.633  1.3092 -0.7101  1.3758
22523SOL    HW274428   1.796   8.276   8.603 -0.8850 -0.1830 -1.2601
22524SOL     OW74429   1.944   8.165   8.044  0.2136  0.2358  0.4564
22524SOL    HW174430   1.900   8.249   8.025 -0.4475  0.3013  2.1349
22524SOL    HW274431   1.940   8.118   7.960 -2.2765  0.6193  0.2571
22525SOL     OW74432   3.160   4.965   3.827 -0.6012 -0.0892  0.3727
22525SOL    HW174433   3.242   4.975   3.877 -0.7608 -0.0881  0.6388
22525SOL    HW274434   3.177   5.006   3.743 -0.0350 -0.8479  0.1035
22526SOL     OW74435   5.459   9.104   4.797 -0.1207 -0.0542  0.0096
22526SOL    HW174436   5.433   9.130   4.886  0.3948  1.6506 -0.3046
22526SOL    HW274437   5.451   9.008   4.797  0.5717 -0.1654  2.1251
22527SOL     OW74438  12.259   9.930  11.831  0.1152  0.0920 -0.2302
22527SOL    HW174439  12.254   9.916  11.736  1.1412  0.8675 -0.4129
22527SOL    HW274440  12.322   9.865  11.862  1.0898  0.9685 -0.3442
22528SOL     OW74441   1.412   2.083   4.503 -0.2102  0.4972 -0.2483
22528SOL    HW174442   1.386   2.005   4.454  1.8647 -1.0525  0.9448
22528SOL    HW274443   1.454   2.140   4.438  0.5009 -0.5281 -0.7079
22529SOL     OW74444   7.880   1.778   8.542 -0.1084 -0.2103  0.2351
22529SOL    HW174445   7.969   1.748   8.558 -0.8543 -2.1553  0.9393
22529SOL    HW274446   7.889   1.873   8.530  2.2404 -0.5424 -1.2986
22530SOL     OW74447   1.658   3.227   9.432 -0.3615  0.1523  0.4759
22530SOL    HW174448   1.731   3.261   9.380  1.9624 -3.0399  1.3279
22530SOL    HW274449   1.590   3.209   9.367  0.5686  0.8234 -0.7492
22531SOL     OW74450   3.924   6.314   7.714 -0.1510  0.2433  0.2918
22531SOL    HW174451   3.868   6.260   7.769 -0.7188  2.0460  1.5953
22531SOL    HW274452   3.866   6.348   7.646  0.4804 -1.7147 -1.3306
22532SOL     OW74453   7.377   9.600   1.364 -0.7910 -0.4529 -0.1402
22532SOL    HW174454   7.414   9.539   1.427 -0.0806  1.4378  1.3780
22532SOL    HW274455   7.447   9.615   1.301 -1.2338 -1.7488 -0.9706
22533SOL     OW74456   3.248   1.053  10.955 -0.0563  0.1755 -0.0724
22533SOL    HW174457   3.279   1.094  11.036  0.9754 -0.7958  0.0414
22533SOL    HW274458   3.180   0.992  10.984  0.5968 -0.4704  0.1169
22534SOL     OW74459  10.118   2.182   3.042  0.4295  0.0457 -0.5210
22534SOL    HW174460  10.153   2.095   3.063 -0.0200 -0.3534 -1.3843
22534SOL    HW274461  10.190   2.226   2.997  0.3844 -0.1681 -0.8004
22535SOL     OW74462   9.860   8.623   6.527  0.2390  0.3332  0.4235
22535SOL    HW174463   9.856   8.584   6.440  0.1738  2.3058 -0.4997
22535SOL    HW274464   9.771   8.655   6.544 -0.0368 -1.0028  1.7207
22536SOL     OW74465  11.800   6.435   6.446 -0.2194 -0.2191  0.5351
22536SOL    HW174466  11.895   6.421   6.442  0.1055  1.0609  2.4902
22536SOL    HW274467  11.765   6.354   6.483  0.1276 -0.6070  0.0268
22537SOL     OW74468   6.754   5.295   3.471  0.4953 -0.5584  0.0152
22537SOL    HW174469   6.819   5.362   3.488  0.7641 -1.2358  1.8462
22537SOL    HW274470   6.673   5.329   3.509  0.4524 -0.9443  0.2766
22538SOL     OW74471   0.365   1.669   3.763  0.7390  0.4995 -0.7368
22538SOL    HW174472   0.428   1.736   3.789 -2.0766  2.7592  0.7787
22538SOL    HW274473   0.373   1.665   3.668  2.0073  1.9213 -0.7366
22539SOL     OW74474   2.512  12.578   9.772  0.8527 -0.1760 -0.1588
22539SOL    HW174475   2.441  12.522   9.802  0.4676  0.4234  0.0666
22539SOL    HW274476   2.528  12.551   9.681 -1.6715  1.6216 -1.2371
22540SOL     OW74477   8.163   1.796   9.936 -0.2162  0.0322 -0.4652
22540SOL    HW174478   8.094   1.736   9.908  0.2479  0.4942 -2.8459
22540SOL    HW274479   8.119   1.881   9.945 -0.1154  0.1703 -1.2284
22541SOL     OW74480   4.529   7.581   2.360  0.8349  0.0253 -0.6169
22541SOL    HW174481   4.590   7.541   2.421  0.7681 -0.7878 -1.0792
22541SOL    HW274482   4.575   7.580   2.276  1.1491  1.6294 -0.5134
22542SOL     OW74483   2.874   5.403   3.561 -0.3143 -0.2031 -0.6011
22542SOL    HW174484   2.921   5.487   3.560 -1.0943  0.2394 -1.3566
22542SOL    HW274485   2.785   5.425   3.532 -0.8007 -1.1378  0.1468
22543SOL     OW74486   5.078   0.127   3.273  0.9439 -0.6116  0.4942
22543SOL    HW174487   5.165   0.150   3.308 -0.2393  0.2883  3.1483
22543SOL    HW274488   5.056   0.046   3.319  0.5387 -1.0720 -0.5031
22544SOL     OW74489   5.717   0.858   1.840 -0.2545  0.4584  0.8995
22544SOL    HW174490   5.654   0.801   1.885 -0.2402  0.9212  1.5210
22544SOL    HW274491   5.664   0.907   1.777 -0.3307  0.0386  0.6388
22545SOL     OW74492   1.748   3.174   2.206 -0.0464 -0.3161  0.0832
22545SOL    HW174493   1.732   3.184   2.112  1.5563 -1.2355 -0.3094
22545SOL    HW274494   1.721   3.084   2.226  0.2973 -0.3592  0.3610
22546SOL     OW74495   6.124   3.906   6.396 -0.0724  0.0826 -0.0670
22546SOL    HW174496   6.086   3.983   6.352  0.0706 -0.7799 -1.7851
22546SOL    HW274497   6.214   3.931   6.414  0.0923  0.2146 -0.9885
22547SOL     OW74498  10.198   3.190   6.115  0.4630  0.3766 -0.4637
22547SOL    HW174499  10.105   3.183   6.093  0.1950  2.0236  0.0141
22547SOL    HW274500  10.208   3.135   6.192 -0.0309 -0.1180 -0.7435
22548SOL     OW74501   8.297   1.021   1.695 -0.2062 -0.8387 -0.4020
22548SOL    HW174502   8.378   1.053   1.655 -0.0311  1.0982  1.3553
22548SOL    HW274503   8.304   0.925   1.691  0.3427 -0.7744 -3.7552
22549SOL     OW74504   8.902   1.563   9.579 -0.3411 -0.1972 -0.4434
22549SOL    HW174505   8.936   1.549   9.490 -2.9224 -1.5902 -1.3204
22549SOL    HW274506   8.956   1.506   9.634  1.1130  0.4680 -1.1403
22550SOL     OW74507   9.173   1.724   2.623  0.2132  0.0989  0.1291
22550SOL    HW174508   9.134   1.707   2.537  0.6442  0.6464 -0.1813
22550SOL    HW274509   9.250   1.776   2.604  1.2265 -1.1292  0.7207
22551SOL     OW74510   8.487  10.554   9.313  0.2189  0.4860 -0.3325
22551SOL    HW174511   8.538  10.529   9.236 -0.5708  1.0473 -1.0519
22551SOL    HW274512   8.544  10.613   9.362  0.2603  1.1336 -1.1467
22552SOL     OW74513   5.669   8.996  11.041  0.5101  0.8842 -0.1622
22552SOL    HW174514   5.710   9.046  10.970  1.2720  2.8092  1.5396
22552SOL    HW274515   5.619   9.062  11.090 -1.9683 -0.8007 -0.2255
22553SOL     OW74516   7.991   9.919   4.543 -0.6971 -0.3605  0.2589
22553SOL    HW174517   8.030   9.837   4.572  1.1978  0.4306  0.0878
22553SOL    HW274518   8.004   9.920   4.448  0.6585  0.7822  0.4297
22554SOL     OW74519   5.847  11.701   1.427 -0.7517  0.0390 -0.3830
22554SOL    HW174520   5.772  11.657   1.467  0.1894  0.9068  2.6163
22554SOL    HW274521   5.908  11.630   1.407 -0.6926 -0.3588  1.0899
22555SOL     OW74522   3.683  10.155   2.550  0.0408  0.2162  0.2150
22555SOL    HW174523   3.679  10.081   2.490  0.7622  0.2398  0.1241
22555SOL    HW274524   3.630  10.130   2.625 -0.8278  0.1609 -0.4046
22556SOL     OW74525  10.397  12.298  10.000 -0.1085 -0.4020  0.2254
22556SOL    HW174526  10.304  12.304  10.020 -0.5328  1.1311 -1.8243
22556SOL    HW274527  10.435  12.377  10.038 -0.3770  0.9045 -2.0272
22557SOL     OW74528   8.899   0.649  12.388 -0.8347 -0.3823 -0.0320
22557SOL    HW174529   8.882   0.555  12.384 -1.9813 -0.2178  0.4467
22557SOL    HW274530   8.812   0.689  12.384 -0.2994  0.7330 -1.6821
22558SOL     OW74531   0.665  11.944  11.827  0.0439  0.0768  0.0037
22558SOL    HW174532   0.733  11.882  11.800  0.0599 -0.7391  1.7542
22558SOL    HW274533   0.585  11.913  11.785  0.3112 -0.3224 -0.2122
22559SOL     OW74534   7.127   0.450   2.696  0.2105 -0.1040 -0.3998
22559SOL    HW174535   7.203   0.504   2.721  1.1067 -2.1084  1.5781
22559SOL    HW274536   7.053   0.511   2.697  1.6501  1.8048 -1.8760
22560SOL     OW74537   2.486   5.941   8.249  0.4950 -0.0497  0.4993
22560SOL    HW174538   2.482   5.987   8.333  1.9175  2.2527 -0.5933
22560SOL    HW274539   2.412   5.975   8.199 -0.9808 -2.1815  1.0680
22561SOL     OW74540   3.186   7.573   4.818 -0.5655 -0.0902  0.4166
22561SOL    HW174541   3.184   7.669   4.825  0.6445  0.0184 -0.4551
22561SOL    HW274542   3.173   7.543   4.908 -1.2170  0.8773  0.6697
22562SOL     OW74543   9.208   4.007   4.051 -0.1082  0.1474 -0.3428
22562SOL    HW174544   9.162   3.985   3.970 -0.5320 -0.0001 -0.0694
22562SOL    HW274545   9.164   3.955   4.118  1.1402 -0.8085 -0.2281
22563SOL     OW74546   4.177   8.198   4.139 -0.0746 -0.1980 -0.7481
22563SOL    HW174547   4.153   8.166   4.226 -1.0927  1.2012 -0.4812
22563SOL    HW274548   4.266   8.166   4.125 -0.1111 -0.9416  0.5475
22564SOL     OW74549  12.239   4.377   8.933 -0.7503  0.4384 -0.3199
22564SOL    HW174550  12.331   4.401   8.945 -0.2767 -0.2600 -2.1723
22564SOL    HW274551  12.203   4.376   9.022  1.0726  0.5314  0.4761
22565SOL     OW74552  10.805   7.396  12.571 -0.0764  0.1024 -0.0172
22565SOL    HW174553  10.731   7.400  12.631  0.9067  0.8107  1.1814
22565SOL    HW274554  10.867   7.461  12.604  0.7679  0.0520 -1.4262
22566SOL     OW74555  10.435   3.501   3.891 -0.0210 -0.2018  0.1800
22566SOL    HW174556  10.430   3.417   3.937  0.2292  0.8681  2.3332
22566SOL    HW274557  10.480   3.558   3.954  1.9645  0.9510 -2.1350
22567SOL     OW74558   8.191   0.691   8.099  0.1268  0.4677 -0.1258
22567SOL    HW174559   8.153   0.636   8.031  0.2695 -0.4428  0.5034
22567SOL    HW274560   8.272   0.646   8.123  0.3623  1.0795  0.2452
22568SOL     OW74561   5.596   1.236   8.205  0.6066  0.0595 -0.2792
22568SOL    HW174562   5.554   1.152   8.188 -0.0161  0.7819 -2.8048
22568SOL    HW274563   5.526   1.300   8.193  1.6908  1.0990 -1.3124
22569SOL     OW74564  10.096   5.935   2.402  0.0178  0.1100 -0.1389
22569SOL    HW174565  10.184   5.957   2.432 -1.2593  3.6498  1.4397
22569SOL    HW274566  10.083   5.988   2.324 -0.5358 -0.9220 -0.7818
22570SOL     OW74567   3.406   5.902   6.078  0.6691 -0.2561 -0.5731
22570SOL    HW174568   3.382   5.964   6.147  0.8928 -1.3902  0.5694
22570SOL    HW274569   3.452   5.955   6.013 -1.0491  1.1688 -0.7154
22571SOL     OW74570   2.862   0.557   2.960 -0.0249  0.0064  0.2274
22571SOL    HW174571   2.834   0.500   3.032  1.8868 -0.8118  0.3706
22571SOL    HW274572   2.795   0.544   2.893 -1.2960  0.0056  1.4381
22572SOL     OW74573   1.757   8.282   1.124  0.4380  0.2245  0.5034
22572SOL    HW174574   1.803   8.359   1.093  1.3555  0.0663  1.4113
22572SOL    HW274575   1.788   8.211   1.067  0.4139  0.3284  0.3604
22573SOL     OW74576   0.708   5.964   8.016 -0.3723 -0.3952 -0.0043
22573SOL    HW174577   0.623   6.002   8.039 -0.4738 -0.7132  0.1452
22573SOL    HW274578   0.772   6.026   8.050 -0.5434 -0.0692 -0.2610
22574SOL     OW74579   7.680   0.552   4.691  0.7277 -0.2811 -0.1827
22574SOL    HW174580   7.710   0.633   4.649  0.4468 -0.2788 -0.3813
22574SOL    HW274581   7.596   0.574   4.730  0.1158 -0.7590 -1.1862
22575SOL     OW74582   5.047  10.995   1.810 -0.0361 -0.1044 -0.2795
22575SOL    HW174583   5.013  10.931   1.747  0.3009  0.5164 -1.1118
22575SOL    HW274584   5.051  11.077   1.761 -1.5118  0.8344  1.0842
22576SOL     OW74585   0.285  10.489   1.285  0.2409 -0.1561 -0.0357
22576SOL    HW174586   0.268  10.479   1.191  0.4898  1.1538 -0.2360
22576SOL    HW274587   0.201  10.474   1.327  0.0723 -0.4883 -0.4870
22577SOL     OW74588   9.305   7.053   2.954 -0.6773  0.2720  0.6301
22577SOL    HW174589   9.253   7.057   2.874 -1.1672  0.9201  0.9722
22577SOL    HW274590   9.347   7.140   2.960  1.5705 -0.6553 -0.3650
22578SOL     OW74591   4.406   9.942   1.566 -0.8285  0.2336 -0.5303
22578SOL    HW174592   4.414   9.909   1.477  0.5026  2.5105 -1.3404
22578SOL    HW274593   4.313   9.940   1.585 -1.4565  1.9839 -2.9571
22579SOL     OW74594   8.153  12.523   9.888 -0.1781 -1.2549 -0.0304
22579SOL    HW174595   8.159  12.615   9.911  0.8225 -1.9416  2.9087
22579SOL    HW274596   8.061  12.501   9.901 -0.2152 -0.8866  0.3538
22580SOL     OW74597   4.947   0.139   1.833  0.8627  0.4218 -0.1137
22580SOL    HW174598   4.976   0.155   1.923  0.0128  1.1599  0.0454
22580SOL    HW274599   4.890   0.214   1.813  0.6825  0.0308 -1.1065
22581SOL     OW74600   2.085   5.854   7.591  0.0047  0.3646 -0.1247
22581SOL    HW174601   2.053   5.939   7.558 -1.0760 -0.7376 -2.0879
22581SOL    HW274602   2.114   5.807   7.513 -0.7930 -1.6417  0.7171
22582SOL     OW74603   1.238   4.465   0.534  0.0334  0.4467 -0.2726
22582SOL    HW174604   1.303   4.536   0.527 -0.8543  1.2609 -0.4851
22582SOL    HW274605   1.232   4.448   0.628  0.1494  0.7649 -0.2031
22583SOL     OW74606   1.562   4.475  12.094 -0.5930 -0.6819 -0.1595
22583SOL    HW174607   1.613   4.423  12.031 -0.4576  1.0470 -1.5637
22583SOL    HW274608   1.609   4.465  12.176  0.0110 -1.9250 -0.6208
22584SOL     OW74609   4.154   6.338  11.929  0.3157  0.3005 -0.6133
22584SOL    HW174610   4.144   6.258  11.981 -1.3443  1.2366  0.5800
22584SOL    HW274611   4.066   6.359  11.900  1.1989 -0.5031 -4.4781
22585SOL     OW74612   3.811   6.222   1.665  0.0838 -0.1580 -0.3625
22585SOL    HW174613   3.834   6.160   1.596  0.5374  0.9513 -1.2581
22585SOL    HW274614   3.892   6.233   1.715 -0.6506 -2.1613  1.3953
22586SOL     OW74615  11.670  10.006   8.603 -0.3990 -0.4051 -0.7009
22586SOL    HW174616  11.732  10.017   8.532 -0.3637 -2.1166 -0.9663
22586SOL    HW274617  11.724   9.993   8.681 -0.4031 -1.3990 -0.8515
22587SOL     OW74618   2.092   9.997   6.743 -0.3252 -0.0867 -0.5082
22587SOL    HW174619   2.055  10.006   6.831 -0.9454  1.5714 -0.9053
22587SOL    HW274620   2.017   9.979   6.687 -0.1311  0.3491 -0.9117
22588SOL     OW74621   9.999   8.320  10.679 -0.0598 -0.0164  0.6196
22588SOL    HW174622   9.953   8.310  10.762 -0.7680  0.1253  0.2509
22588SOL    HW274623  10.032   8.410  10.679 -0.2906  0.0664  0.6269
22589SOL     OW74624   5.515  11.648   1.445  0.2432  0.3284  0.4834
22589SOL    HW174625   5.514  11.727   1.499 -0.3639  0.0913  0.8299
22589SOL    HW274626   5.484  11.677   1.359  1.1912  0.7015  0.2543
22590SOL     OW74627   0.627   8.783   1.686  1.1778  0.4609  0.0899
22590SOL    HW174628   0.554   8.843   1.700  1.5922  1.1275 -0.5233
22590SOL    HW274629   0.620   8.757   1.594  1.8712  0.7579 -0.0525
22591SOL     OW74630   4.566  11.433   6.247 -0.1587 -0.4108 -0.3644
22591SOL    HW174631   4.633  11.465   6.308 -0.3381 -2.4050  0.9903
22591SOL    HW274632   4.583  11.339   6.241 -3.4417 -1.2151  0.9311
22592SOL     OW74633   8.362   1.412  12.506 -0.3054 -0.0454  0.2757
22592SOL    HW174634   8.396   1.372  12.586 -0.4802 -0.8203 -0.0270
22592SOL    HW274635   8.379   1.506  12.516 -1.4100  0.0340  1.7765
22593SOL     OW74636   8.978  11.615   8.744 -0.5628 -0.3703 -0.2427
22593SOL    HW174637   8.960  11.708   8.753 -0.2800 -0.0742 -2.1854
22593SOL    HW274638   8.933  11.574   8.818 -2.5625  1.0911 -0.5594
22594SOL     OW74639   6.452   9.021  11.853  0.3951  0.0977  0.4111
22594SOL    HW174640   6.499   9.102  11.834  1.1112 -0.6129 -1.0826
22594SOL    HW274641   6.509   8.974  11.914  0.0708  0.6225  1.1247
22595SOL     OW74642   4.276   9.892   5.110 -0.2767  0.4196 -0.6353
22595SOL    HW174643   4.341   9.925   5.171 -0.3341  0.1028 -0.4015
22595SOL    HW274644   4.242   9.813   5.151 -0.4561  0.3126 -0.9858
22596SOL     OW74645   9.983   3.720   7.148 -0.3162  0.6726  0.0261
22596SOL    HW174646  10.072   3.703   7.179  0.5402 -2.3849 -3.3252
22596SOL    HW274647   9.994   3.784   7.078 -0.6910  0.1416 -0.5281
22597SOL     OW74648   9.175   6.981   1.567  0.4046 -0.3964 -0.0823
22597SOL    HW174649   9.137   7.066   1.588 -0.6733 -1.1630  1.2342
22597SOL    HW274650   9.269   6.991   1.583  0.3627  0.6764 -0.4612
22598SOL     OW74651   6.725   6.070   2.102  0.5797  0.2328  0.0191
22598SOL    HW174652   6.642   6.117   2.103 -0.2642 -1.1505 -1.0396
22598SOL    HW274653   6.733   6.037   2.013  2.2525  0.2945  0.1175
22599SOL     OW74654   3.797   7.758   4.735  0.4851  0.5483  0.1389
22599SOL    HW174655   3.824   7.681   4.685  0.1131 -0.5605  1.5820
22599SOL    HW274656   3.702   7.749   4.743  0.3597  1.4596 -0.1175
22600SOL     OW74657   5.440   3.554   1.285  0.1136  0.3053 -0.1583
22600SOL    HW174658   5.412   3.463   1.287  1.5281 -0.1553  0.0189
22600SOL    HW274659   5.412   3.586   1.199 -3.6355  0.8541  1.1090
22601SOL     OW74660   9.177   5.186   5.582 -0.3990  0.3011  0.1952
22601SOL    HW174661   9.219   5.262   5.541 -0.7828  1.4440  1.7829
22601SOL    HW274662   9.099   5.171   5.529  0.1328  0.4565 -0.6532
22602SOL     OW74663   7.278   1.934   9.010  0.2959  0.0834 -0.2141
22602SOL    HW174664   7.340   1.997   8.973  1.5055 -1.2664 -0.5331
22602SOL    HW274665   7.265   1.869   8.941  0.1681 -0.7947  0.6186
22603SOL     OW74666   3.268   5.691   3.403 -0.1167 -0.6929  0.1796
22603SOL    HW174667   3.267   5.677   3.308  0.5976 -2.3165  0.3776
22603SOL    HW274668   3.310   5.776   3.414 -1.9638  0.4285 -1.0295
22604SOL     OW74669   5.138  12.069  11.967  0.8153 -0.2677  0.0446
22604SOL    HW174670   5.187  12.067  11.884  0.1778  0.8412 -0.3929
22604SOL    HW274671   5.052  12.103  11.942  1.0541  1.4561  1.3447
22605SOL     OW74672   6.109   7.510   5.404  0.3909  0.1554 -0.0831
22605SOL    HW174673   6.033   7.455   5.420 -0.5600  1.2445 -0.7119
22605SOL    HW274674   6.182   7.464   5.446 -0.8706 -0.1105  1.9305
22606SOL     OW74675  10.809   3.809   8.892 -0.0261 -0.2480 -0.6379
22606SOL    HW174676  10.875   3.852   8.946 -0.9820  1.2074 -0.5967
22606SOL    HW274677  10.807   3.719   8.924 -1.2717  0.7776  2.4531
22607SOL     OW74678  11.398   6.834   8.020  0.0687 -0.1844 -0.2585
22607SOL    HW174679  11.374   6.742   8.020 -0.7513  0.0137 -1.2348
22607SOL    HW274680  11.364   6.868   7.937  2.4001  0.4983 -0.9948
22608SOL     OW74681   9.412   2.457   3.912  0.2172 -0.2531  0.3302
22608SOL    HW174682   9.316   2.455   3.920  0.0979  0.1073 -0.7728
22608SOL    HW274683   9.429   2.422   3.824  0.9432  1.5750 -0.3054
22609SOL     OW74684   4.124   7.910   9.031  0.2611 -0.1920  0.3876
22609SOL    HW174685   4.203   7.857   9.039  0.7848  0.7476  1.5826
22609SOL    HW274686   4.096   7.926   9.121  0.2727  1.7734  0.0897
22610SOL     OW74687   3.226   5.542  10.460 -0.0728  0.4812  0.0310
22610SOL    HW174688   3.301   5.575  10.509  0.2506 -1.6502  1.0611
22610SOL    HW274689   3.164   5.615  10.459  0.9189  1.3908  1.5086
22611SOL     OW74690   8.526   7.287  12.467 -0.4184 -0.2987 -0.0521
22611SOL    HW174691   8.570   7.221  12.414 -0.5092  0.2839 -0.8718
22611SOL    HW274692   8.435   7.258  12.471 -0.4910 -0.1451 -0.5459
22612SOL     OW74693   9.019   8.386   5.307 -0.0736 -0.1212  0.4422
22612SOL    HW174694   9.103   8.342   5.322  0.4974  0.4525 -0.9418
22612SOL    HW274695   9.010   8.390   5.212 -1.2308  0.6732  0.5602
22613SOL     OW74696   0.829   5.230   8.302 -0.0803  0.0573 -0.1283
22613SOL    HW174697   0.833   5.306   8.244 -0.6730 -0.1725 -0.4681
22613SOL    HW274698   0.747   5.187   8.281  0.9161 -1.5138 -0.9691
22614SOL     OW74699  11.341   0.770   1.772 -0.1536  0.4819 -0.0953
22614SOL    HW174700  11.259   0.727   1.796  1.0678 -1.2803  1.2896
22614SOL    HW274701  11.383   0.789   1.856  0.9184  1.2142 -0.7747
22615SOL     OW74702   6.647  10.530   8.686  0.2912 -0.0459  0.2616
22615SOL    HW174703   6.556  10.543   8.658 -0.1431 -1.5285  0.8864
22615SOL    HW274704   6.684  10.618   8.689 -0.7899  0.4911 -1.0813
22616SOL     OW74705   7.259  11.091   4.093  0.0372 -0.5055 -0.1761
22616SOL    HW174706   7.198  11.022   4.067  0.9194 -1.2161 -0.4220
22616SOL    HW274707   7.271  11.143   4.013 -1.5863  0.7199  0.3252
22617SOL     OW74708   2.556   8.109   4.604 -0.0476  0.4997  0.4758
22617SOL    HW174709   2.495   8.036   4.602 -0.1746  0.5938 -1.6117
22617SOL    HW274710   2.638   8.072   4.637  0.0731 -0.7875 -1.1442
22618SOL     OW74711   5.252   3.576   8.348  0.1985  0.0305  0.6864
22618SOL    HW174712   5.301   3.542   8.423  0.5394  0.1674  0.5285
22618SOL    HW274713   5.310   3.561   8.273  0.8437  1.9034  0.7378
22619SOL     OW74714   7.496  11.041   9.401 -0.7906 -0.1392 -0.2079
22619SOL    HW174715   7.525  11.029   9.492  1.2983 -1.3215 -0.9655
22619SOL    HW274716   7.525  10.961   9.357 -0.5186  1.0206 -2.2136
22620SOL     OW74717   0.830   2.125  10.558  0.2057  0.3982  0.2432
22620SOL    HW174718   0.816   2.076  10.477 -2.6064  1.3110  0.0777
22620SOL    HW274719   0.822   2.059  10.627  2.1778 -0.3021 -0.1319
22621SOL     OW74720   0.782  12.242   0.327  0.3104 -0.5512 -0.5552
22621SOL    HW174721   0.828  12.179   0.381  2.0218 -0.6053 -1.9628
22621SOL    HW274722   0.852  12.295   0.287 -0.8986  0.0452 -1.9988
22622SOL     OW74723   9.336   5.092   4.776  0.1803  0.2503  0.5131
22622SOL    HW174724   9.327   5.015   4.720 -0.2189  0.8824 -0.3054
22622SOL    HW274725   9.369   5.057   4.859 -0.4246 -0.8578  0.3069
22623SOL     OW74726  11.694   6.788   3.326  0.4051 -0.0420 -0.2449
22623SOL    HW174727  11.634   6.818   3.258  1.3444  0.6775 -0.7955
22623SOL    HW274728  11.641   6.785   3.406 -0.7967 -1.2375 -1.0588
22624SOL     OW74729   9.139   3.292   9.131  0.0428 -0.2484  0.4780
22624SOL    HW174730   9.143   3.320   9.223 -0.5503 -0.5527  0.6005
22624SOL    HW274731   9.053   3.323   9.101  1.2788  2.2955 -0.7845
22625SOL     OW74732   8.778   6.101   2.152  0.0967 -0.6546  0.4147
22625SOL    HW174733   8.716   6.174   2.160 -1.3461 -1.8222  0.1834
22625SOL    HW274734   8.807   6.084   2.242 -1.8711 -1.7173  0.8907
22626SOL     OW74735  12.453   3.660   9.665  0.0260 -0.4025 -0.2382
22626SOL    HW174736  12.432   3.569   9.643 -1.2633 -0.3250  0.5079
22626SOL    HW274737  12.490   3.655   9.753  1.3267 -0.3353 -0.7732
22627SOL     OW74738   9.138   0.700   1.832  0.2581  0.6334 -0.5103
22627SOL    HW174739   9.220   0.732   1.794 -0.2814  1.4592 -1.0194
22627SOL    HW274740   9.129   0.611   1.799  0.3340  0.9732 -1.4791
22628SOL     OW74741  10.908  12.334   1.856  0.2047  0.2616  0.0820
22628SOL    HW174742  10.928  12.369   1.769 -1.7213  1.9125  0.2355
22628SOL    HW274743  10.983  12.361   1.910  2.4332 -2.5110 -1.3701
22629SOL     OW74744  10.142   0.852   4.589 -0.0254 -0.0369 -0.7833
22629SOL    HW174745  10.093   0.785   4.638  0.2719  0.5302  0.3283
22629SOL    HW274746  10.157   0.922   4.653  1.6479  0.0961 -1.2808
22630SOL     OW74747   6.318   1.331   0.965 -0.3088 -0.5396 -0.4387
22630SOL    HW174748   6.300   1.407   0.909 -1.7125 -2.0304 -2.1190
22630SOL    HW274749   6.409   1.308   0.945 -1.0080 -1.5068 -2.7862
22631SOL     OW74750   5.897   0.795  11.644 -0.5513  0.0321 -0.1960
22631SOL    HW174751   5.902   0.883  11.605 -0.4801  0.3516  0.5154
22631SOL    HW274752   5.987   0.775  11.667 -0.4337 -0.6082 -1.1475
22632SOL     OW74753   3.757   2.774   6.723 -0.7170 -0.1863 -0.1522
22632SOL    HW174754   3.830   2.810   6.672 -1.4485  0.8972 -0.4690
22632SOL    HW274755   3.680   2.792   6.669 -1.3277 -0.4703  0.6176
22633SOL     OW74756  11.313   7.660   5.006  0.2950 -0.2961  0.8654
22633SOL    HW174757  11.399   7.678   4.968 -0.3519 -0.3231 -0.7060
22633SOL    HW274758  11.253   7.717   4.957 -0.4832  0.3962  2.5468
22634SOL     OW74759   9.315   1.920   3.365 -0.2654  0.6345  0.5717
22634SOL    HW174760   9.255   1.875   3.305 -1.2140  1.3077  0.9980
22634SOL    HW274761   9.312   2.011   3.338  0.1192  0.7703  0.9733
22635SOL     OW74762   3.212   7.777   4.493 -0.0695 -0.3494  0.0304
22635SOL    HW174763   3.245   7.689   4.512 -0.3604 -0.4332  0.1564
22635SOL    HW274764   3.290   7.831   4.489  0.1097 -0.6088 -0.0161
22636SOL     OW74765   0.449   7.077   7.724 -0.2135  0.1080 -0.7159
22636SOL    HW174766   0.399   7.079   7.643 -1.2353 -0.7219 -0.1314
22636SOL    HW274767   0.395   7.126   7.787 -0.5942 -1.2509  0.0613
22637SOL     OW74768   1.600   0.099   1.326  0.4007  0.0148 -0.2518
22637SOL    HW174769   1.519   0.056   1.300  1.1517 -1.0501 -0.9080
22637SOL    HW274770   1.642   0.123   1.243  0.8012  0.4577  0.0779
22638SOL     OW74771   8.905   9.907   4.431  0.9831  0.5983  0.1355
22638SOL    HW174772   8.877   9.998   4.436  0.2879  0.5079 -1.4082
22638SOL    HW274773   8.931   9.895   4.340 -1.0029 -1.2938 -0.2736
22639SOL     OW74774  11.416   6.556  10.666  0.2952 -0.1467  0.3915
22639SOL    HW174775  11.481   6.546  10.735  1.7961  0.8968 -0.8150
22639SOL    HW274776  11.457   6.520  10.588 -1.1070 -0.6795 -0.1381
22640SOL     OW74777   2.071   1.211   2.625 -0.4985  0.2105 -0.1073
22640SOL    HW174778   2.042   1.245   2.709 -1.5737  1.7713 -1.0488
22640SOL    HW274779   2.056   1.284   2.564 -0.9219 -1.2865 -1.8663
22641SOL     OW74780   2.785   9.851   6.978 -0.2987 -0.2167  0.0654
22641SOL    HW174781   2.811   9.782   7.039  0.4479  0.8174  0.9562
22641SOL    HW274782   2.811   9.819   6.892  2.9349  0.2385  0.7683
22642SOL     OW74783   9.357   5.743   5.985  0.0601 -0.5773  0.0378
22642SOL    HW174784   9.280   5.700   5.949 -0.0669 -0.4479  0.1578
22642SOL    HW274785   9.324   5.820   6.030 -0.0146 -1.8331  2.2538
22643SOL     OW74786   3.688   7.605   5.508  0.5185 -0.1536 -0.5073
22643SOL    HW174787   3.624   7.611   5.578  0.6721  0.3037 -0.3985
22643SOL    HW274788   3.716   7.696   5.494  1.0854 -0.3398 -0.5975
22644SOL     OW74789  11.265   4.278   6.934 -0.4075  0.0469 -0.2862
22644SOL    HW174790  11.355   4.307   6.927 -0.1930 -0.8101 -1.4981
22644SOL    HW274791  11.242   4.289   7.026  1.6616 -1.7769  0.5235
22645SOL     OW74792   0.457  10.149   3.048 -0.2529  0.4839 -0.0714
22645SOL    HW174793   0.544  10.111   3.062 -0.4793  0.3618  1.0697
22645SOL    HW274794   0.414  10.087   2.990 -0.4221 -0.7694  1.3282
22646SOL     OW74795  12.142   1.580   3.876 -0.0834 -0.1225 -0.2165
22646SOL    HW174796  12.200   1.522   3.827  0.3512 -0.7769  1.0497
22646SOL    HW274797  12.055   1.565   3.838 -0.3917 -3.2326  1.4217
22647SOL     OW74798   2.786  11.957  12.334 -0.7037  0.7411  0.1332
22647SOL    HW174799   2.725  11.906  12.387  0.3695 -0.8326 -0.0748
22647SOL    HW274800   2.754  12.047  12.340 -2.4867  0.1013  0.7581
22648SOL     OW74801   0.994   1.151   7.139 -0.2257 -0.2771 -0.4371
22648SOL    HW174802   1.040   1.159   7.223 -0.5693  1.2015 -0.3643
22648SOL    HW274803   0.934   1.077   7.152 -0.2132 -0.1214  0.5986
22649SOL     OW74804   1.749  10.159   4.109 -0.4066 -0.6198 -0.0146
22649SOL    HW174805   1.831  10.149   4.157 -1.2503 -0.3851  1.5495
22649SOL    HW274806   1.752  10.249   4.075  0.2748 -0.8488 -0.6100
22650SOL     OW74807   3.629  11.082   3.285  0.1975  0.2533  0.3574
22650SOL    HW174808   3.693  11.109   3.351  0.8353  0.0410 -0.1706
22650SOL    HW274809   3.603  10.994   3.312  0.7700  0.0015  0.0955
22651SOL     OW74810   4.204  10.594   0.251  0.0407  0.1186  0.6624
22651SOL    HW174811   4.208  10.688   0.233  0.6211  0.0468  0.3847
22651SOL    HW274812   4.143  10.586   0.324 -0.9488  0.5957 -0.0859
22652SOL     OW74813   7.912  11.171   5.030  0.1218 -0.0458 -0.1190
22652SOL    HW174814   7.912  11.216   4.945  2.5775 -2.0615 -1.3519
22652SOL    HW274815   7.852  11.097   5.018  0.0874 -0.0481  0.0726
22653SOL     OW74816   1.097   4.524   6.921  0.1167 -0.3992 -0.3156
22653SOL    HW174817   1.022   4.580   6.943  0.2431 -0.6033  0.6330
22653SOL    HW274818   1.092   4.451   6.982  1.6466  0.0753  0.4175
22654SOL     OW74819  11.519   5.419   4.216 -0.0934 -0.4432 -0.5897
22654SOL    HW174820  11.499   5.496   4.270 -0.1868 -1.9205  1.6396
22654SOL    HW274821  11.607   5.435   4.183 -0.5465  1.1029 -1.1359
22655SOL     OW74822  10.485   2.152   4.675  0.3101 -0.0876 -0.6588
22655SOL    HW174823  10.519   2.152   4.764 -2.2879 -1.0503  0.4478
22655SOL    HW274824  10.562   2.142   4.619  1.9653  0.0324  1.4805
22656SOL     OW74825  10.560   4.519   5.706 -0.4060  0.5629 -0.0926
22656SOL    HW174826  10.637   4.463   5.713 -0.3960  0.5566 -0.2376
22656SOL    HW274827  10.587   4.603   5.742  0.1422  1.0259 -1.5033
22657SOL     OW74828   3.505  12.487   0.552 -0.8085 -0.2060 -0.5425
22657SOL    HW174829   3.417  12.478   0.589 -0.5889 -1.7816 -0.3286
22657SOL    HW274830   3.496  12.550   0.481 -1.8365  0.6523  0.3391
22658SOL     OW74831   0.273   8.202   7.432  0.2241 -0.0576 -0.0053
22658SOL    HW174832   0.285   8.248   7.515  0.4380  1.2339 -0.7310
22658SOL    HW274833   0.355   8.216   7.384  0.7907 -2.2252  0.2015
22659SOL     OW74834   2.596   3.778   1.447 -0.1365  0.3443  0.3011
22659SOL    HW174835   2.516   3.805   1.402 -0.0520  0.1948  0.0594
22659SOL    HW274836   2.663   3.838   1.416 -0.1987  0.6209  0.6832
22660SOL     OW74837   6.361  10.451   9.093  0.3732 -0.0002  0.2975
22660SOL    HW174838   6.369  10.539   9.057 -0.4974  0.2942  0.7953
22660SOL    HW274839   6.338  10.464   9.185  1.1047 -0.7478  0.6101
22661SOL     OW74840   3.917  10.633  11.875  0.3431  0.0419 -0.5536
22661SOL    HW174841   4.003  10.672  11.858  0.0901  0.6243 -0.4795
22661SOL    HW274842   3.854  10.697  11.843 -0.1066  0.3257  0.8362
22662SOL     OW74843   1.988  10.404  11.184 -0.1063  0.2352  0.3736
22662SOL    HW174844   2.069  10.417  11.234  1.1147 -1.6279 -0.9694
22662SOL    HW274845   1.933  10.353  11.242 -0.1589  1.1056  1.1209
22663SOL     OW74846   5.952  11.698   7.714 -0.2713  0.3773 -0.5972
22663SOL    HW174847   6.034  11.658   7.685  0.6248  0.4431  1.6665
22663SOL    HW274848   5.977  11.786   7.742 -0.8649  0.0594  1.0587
22664SOL     OW74849   1.587   6.929   3.138  0.3252  0.4309  0.1057
22664SOL    HW174850   1.561   6.982   3.213  0.7306 -1.3154  1.5796
22664SOL    HW274851   1.652   6.982   3.092  0.2548  1.4555  1.1371
22665SOL     OW74852   3.189   9.980   2.560  0.3131  0.2579  0.0709
22665SOL    HW174853   3.109  10.012   2.517 -0.6173 -1.7104  0.2230
22665SOL    HW274854   3.233   9.929   2.493  0.0363 -0.9022  0.7472
22666SOL     OW74855   9.299  10.374   4.260 -0.0411 -0.4588 -0.4397
22666SOL    HW174856   9.218  10.421   4.280 -0.6456 -1.2588 -0.9140
22666SOL    HW274857   9.282  10.334   4.174  1.4846  0.7250 -1.3273
22667SOL     OW74858   1.743   3.478   1.224 -0.1749 -0.0573  1.0691
22667SOL    HW174859   1.830   3.491   1.185 -0.9549  0.4564 -0.5465
22667SOL    HW274860   1.730   3.383   1.222 -0.7637  0.0252 -1.2679
22668SOL     OW74861   6.823   6.342   3.678  0.1047 -0.2520 -0.1723
22668SOL    HW174862   6.802   6.411   3.615 -0.2312 -2.5602 -2.7360
22668SOL    HW274863   6.908   6.309   3.651 -1.1369 -2.9492 -1.0657
22669SOL     OW74864  10.244   3.320   9.689  0.3809 -0.3483 -0.0560
22669SOL    HW174865  10.191   3.330   9.768  0.8626 -1.3703  0.4244
22669SOL    HW274866  10.181   3.327   9.617 -0.4880 -1.8613  0.5061
22670SOL     OW74867   2.461   4.154   3.041  0.0282 -0.6002 -0.3050
22670SOL    HW174868   2.369   4.144   3.067  0.0387 -0.7122 -0.3088
22670SOL    HW274869   2.468   4.102   2.961  0.3748 -1.5687  0.3273
22671SOL     OW74870  11.512   8.990   3.097 -0.0470  0.0196  0.0641
22671SOL    HW174871  11.546   9.034   3.019  2.3962 -1.4297  0.1970
22671SOL    HW274872  11.587   8.941   3.131 -1.3296 -0.2678  2.7175
22672SOL     OW74873   6.278  10.673   8.032 -0.1595  0.0905 -0.8859
22672SOL    HW174874   6.253  10.764   8.051 -1.6781 -0.1956 -1.3154
22672SOL    HW274875   6.195  10.630   8.013  0.1437 -2.1003  2.0299
22673SOL     OW74876   8.224   6.695  11.762  0.2761 -0.3726  0.4515
22673SOL    HW174877   8.184   6.780  11.746  0.9407 -0.0260  0.5851
22673SOL    HW274878   8.291   6.712  11.828  0.2265 -1.0547  0.6877
22674SOL     OW74879  10.858   2.252   0.076 -0.0508 -1.0575  0.0382
22674SOL    HW174880  10.775   2.289   0.048  1.2301  1.3876 -0.8468
22674SOL    HW274881  10.877   2.183   0.013  0.6580  1.4142 -2.6685
22675SOL     OW74882   6.508   3.567   7.879  0.6272  0.5250 -0.0549
22675SOL    HW174883   6.500   3.492   7.820 -1.2072 -0.0122  0.7913
22675SOL    HW274884   6.540   3.530   7.961  0.8723  0.8755  0.0113
22676SOL     OW74885   3.327   1.346   2.332 -0.0338 -0.1649  0.7055
22676SOL    HW174886   3.298   1.347   2.423 -0.3888 -0.6695  0.5981
22676SOL    HW274887   3.270   1.283   2.289 -1.2628  1.5973 -0.3463
22677SOL     OW74888  11.032   8.774   2.119  0.1964  0.9618  0.3901
22677SOL    HW174889  11.010   8.699   2.174  1.1292 -0.0866 -0.6378
22677SOL    HW274890  11.029   8.741   2.030 -0.5919  2.4623 -0.1798
22678SOL     OW74891   4.109  11.366   6.004 -0.4818  0.1179 -0.8330
22678SOL    HW174892   4.144  11.442   5.958 -1.1995  1.7286  1.0986
22678SOL    HW274893   4.026  11.397   6.041 -1.5657 -2.1098 -1.2545
22679SOL     OW74894  11.480  11.597   2.572 -0.2119  0.4796 -0.6883
22679SOL    HW174895  11.572  11.575   2.588 -0.2483  0.7460 -0.1146
22679SOL    HW274896  11.472  11.597   2.476  0.4205  0.6168 -0.7430
22680SOL     OW74897  11.595   2.207   3.354 -0.6012  0.0689  0.7111
22680SOL    HW174898  11.650   2.264   3.300  1.8268 -2.0933  0.7373
22680SOL    HW274899  11.543   2.157   3.291 -0.8532  0.4622  0.5976
22681SOL     OW74900   8.748   8.619   5.183 -0.3515 -0.4861 -0.1434
22681SOL    HW174901   8.702   8.537   5.161  0.2370 -0.4897 -1.4583
22681SOL    HW274902   8.749   8.668   5.101  0.0020  0.5048  0.4391
22682SOL     OW74903   7.437   1.318  11.800  0.1067 -0.0666 -0.0067
22682SOL    HW174904   7.369   1.308  11.866  1.1075  0.2974  1.1147
22682SOL    HW274905   7.433   1.237  11.749 -1.9024  0.4253 -0.7186
22683SOL     OW74906   9.876   7.326   2.658 -0.2806  0.8447  0.0450
22683SOL    HW174907   9.822   7.347   2.582 -1.5623 -1.7562  0.1285
22683SOL    HW274908   9.817   7.333   2.732 -0.4420 -1.4183  0.2069
22684SOL     OW74909   0.447   9.923   4.002 -0.7280 -0.3118  0.5137
22684SOL    HW174910   0.503   9.964   3.936 -0.6555  0.1462  0.8558
22684SOL    HW274911   0.364   9.969   3.996 -0.5967  0.0020  1.0067
22685SOL     OW74912   0.369  11.348  11.106  0.1337 -0.6626  0.1288
22685SOL    HW174913   0.353  11.300  11.024 -0.0060  0.2363 -0.3895
22685SOL    HW274914   0.284  11.384  11.130 -0.1099 -1.9958  1.4034
22686SOL     OW74915  10.677   2.752   4.017  0.2585  0.0874  0.1446
22686SOL    HW174916  10.690   2.738   3.923 -1.5121 -1.1659  0.0204
22686SOL    HW274917  10.692   2.845   4.030  0.0584  0.3841 -1.4782
22687SOL     OW74918   6.760   5.820   2.799  0.0394 -0.1613 -0.2035
22687SOL    HW174919   6.846   5.779   2.792  0.1927 -0.0348  0.8494
22687SOL    HW274920   6.770   5.884   2.869 -0.2455  1.5640 -1.6630
22688SOL     OW74921  10.486  11.710   3.931 -0.0608 -0.7053  0.2349
22688SOL    HW174922  10.404  11.758   3.920  0.2958 -0.0164  0.5318
22688SOL    HW274923  10.542  11.743   3.861  0.9139  0.9068  1.7025
22689SOL     OW74924   6.033   3.410   7.394 -0.2697  0.2916  0.3035
22689SOL    HW174925   6.082   3.476   7.345 -1.0029 -0.0933 -1.0099
22689SOL    HW274926   6.085   3.393   7.472  2.0559 -0.5940 -1.3305
22690SOL     OW74927   0.355   6.017  12.118  0.0013 -0.1723 -0.0424
22690SOL    HW174928   0.312   6.100  12.097  0.9852  0.3125 -0.2352
22690SOL    HW274929   0.445   6.042  12.138  0.8199 -1.3672 -1.9407
22691SOL     OW74930   2.988   0.987   9.882 -0.2478  0.1040 -0.2050
22691SOL    HW174931   2.910   0.995   9.827  0.9114 -1.6251 -2.2371
22691SOL    HW274932   3.013   0.895   9.876  0.4082  0.0009  2.6848
22692SOL     OW74933   8.975   3.648   7.975  0.3892  0.2589 -0.2807
22692SOL    HW174934   9.026   3.678   8.050  0.6324  0.0856 -0.3783
22692SOL    HW274935   8.887   3.633   8.011  1.1015 -2.3483  0.5798
22693SOL     OW74936   7.058   1.891   3.982  0.1565  0.1291  0.0116
22693SOL    HW174937   6.969   1.905   3.951 -0.1570  0.3776  0.9684
22693SOL    HW274938   7.075   1.799   3.966  0.2864  0.4005 -1.5317
22694SOL     OW74939  12.121   7.140   7.128 -0.0766 -0.4371 -0.2981
22694SOL    HW174940  12.066   7.061   7.135 -2.2069  0.9084 -1.1091
22694SOL    HW274941  12.186   7.117   7.062  0.4909 -2.1218  0.7614
22695SOL     OW74942   7.313  10.442   4.187 -0.8670  0.3672 -0.2373
22695SOL    HW174943   7.382  10.390   4.146  0.4516  1.3796  0.6187
22695SOL    HW274944   7.329  10.531   4.156 -1.7961  0.6208 -0.0053
22696SOL     OW74945  11.431   2.174   5.742 -0.4066 -0.3145 -0.2744
22696SOL    HW174946  11.371   2.220   5.683 -0.9435  1.0770  1.2980
22696SOL    HW274947  11.518   2.187   5.704 -0.3947  2.9745  0.6323
22697SOL     OW74948   4.581  12.227   5.824  0.0862 -0.1068  0.5258
22697SOL    HW174949   4.647  12.225   5.894  0.9257 -0.4817 -0.2609
22697SOL    HW274950   4.616  12.168   5.757 -1.1195 -0.4097  0.1534
22698SOL     OW74951   3.612   3.277  11.788 -0.0748  0.2048 -0.9427
22698SOL    HW174952   3.541   3.212  11.791 -0.3259  0.4553 -1.4459
22698SOL    HW274953   3.666   3.250  11.714  0.4632 -0.0862 -0.4551
22699SOL     OW74954   7.754   2.551   6.247  0.3958 -0.0645  0.2483
22699SOL    HW174955   7.706   2.477   6.212 -1.5618  0.8152  0.9474
22699SOL    HW274956   7.689   2.621   6.255  1.4590  0.7702  2.4990
22700SOL     OW74957   4.126   6.332  10.398  0.2138 -0.2993  0.0861
22700SOL    HW174958   4.114   6.371  10.311 -0.6235  0.2687  0.4451
22700SOL    HW274959   4.219   6.345  10.417  0.3536 -0.2060 -0.6205
22701SOL     OW74960   5.157   2.302  10.281 -0.4195  0.2939 -0.1451
22701SOL    HW174961   5.135   2.274  10.192  2.5919  0.6428 -1.1205
22701SOL    HW274962   5.074   2.333  10.318 -1.8018 -0.0217 -2.7612
22702SOL     OW74963  12.355  11.010  12.013  0.6232 -0.5232  0.0970
22702SOL    HW174964  12.268  11.022  11.975  0.2065 -2.0233  0.5111
22702SOL    HW274965  12.358  10.917  12.037  2.8577 -0.8645 -1.2206
22703SOL     OW74966   0.521   2.241   7.205  0.2029  0.6559 -0.5736
22703SOL    HW174967   0.475   2.200   7.132 -1.6193  0.5834  0.5521
22703SOL    HW274968   0.515   2.177   7.276  2.8444  0.2729 -0.5920
22704SOL     OW74969   3.855   0.498   9.126  0.5669  0.4013  0.3313
22704SOL    HW174970   3.777   0.548   9.102  0.2495 -0.6259 -0.8924
22704SOL    HW274971   3.905   0.491   9.044  0.4076 -1.5820  0.3428
22705SOL     OW74972   3.825  11.830   8.072 -0.3124  0.3411 -0.3722
22705SOL    HW174973   3.823  11.815   8.166  1.5382  0.0369 -0.3511
22705SOL    HW274974   3.871  11.914   8.062 -0.5971  0.4273 -1.0005
22706SOL     OW74975  10.177   9.973  10.903  0.6043 -0.2208  1.0436
22706SOL    HW174976  10.264  10.001  10.930  1.4577 -0.5429 -1.1065
22706SOL    HW274977  10.157  10.027  10.826 -0.1784 -1.5729  0.2577
22707SOL     OW74978   1.187   8.855  12.449 -0.4355  0.1083 -1.1485
22707SOL    HW174979   1.243   8.811  12.386  0.9444 -2.4304  1.6023
22707SOL    HW274980   1.147   8.927  12.400  1.8049 -0.6467 -4.3823
22708SOL     OW74981  11.423   6.045   9.452  0.4517 -0.3966  0.2235
22708SOL    HW174982  11.428   6.004   9.538  0.1246 -1.5611 -0.2880
22708SOL    HW274983  11.377   6.128   9.467 -1.4562 -1.5079  0.8824
22709SOL     OW74984   4.604   6.116   8.520  0.0577 -0.2119 -0.1870
22709SOL    HW174985   4.636   6.111   8.430  0.8831 -1.4605  0.1436
22709SOL    HW274986   4.683   6.126   8.573 -0.4898  1.5422  0.3646
22710SOL     OW74987  10.950   0.643   9.471  0.1895  0.6199  0.0345
22710SOL    HW174988  10.970   0.554   9.442  0.6793  0.8504 -0.3639
22710SOL    HW274989  10.859   0.656   9.447  0.1928  0.3185 -0.1537
22711SOL     OW74990   5.807   3.474   5.655  0.2708  0.3074  0.3470
22711SOL    HW174991   5.715   3.472   5.626 -0.2086  2.8017  1.4264
22711SOL    HW274992   5.848   3.401   5.609 -2.4378 -1.4841  0.5347
22712SOL     OW74993   1.977   1.209   5.392 -0.1872  0.6215  0.4019
22712SOL    HW174994   2.000   1.125   5.352  0.3791  0.6639  0.6287
22712SOL    HW274995   1.967   1.189   5.485 -1.2582  0.5695  0.2842
22713SOL     OW74996  12.435   1.631   9.246 -0.1971  0.0689 -0.1789
22713SOL    HW174997  12.362   1.585   9.205  0.0072 -1.0391  0.6322
22713SOL    HW274998  12.481   1.562   9.296 -1.0635  1.4809  2.8052
22714SOL     OW74999   4.441  10.856   0.058  0.4305 -0.0300  0.4401
22714SOL    HW175000   4.464  10.764   0.044  2.3101  0.5788 -1.0046
22714SOL    HW275001   4.441  10.895  -0.029  0.5808  1.5301  1.0928
22715SOL     OW75002   6.839   6.737   0.195 -0.5486  0.6138  0.3145
22715SOL    HW175003   6.834   6.690   0.112  0.7589  1.2078 -0.1222
22715SOL    HW275004   6.861   6.827   0.172 -0.8713  0.9580  1.2685
22716SOL     OW75005   3.324   6.826   6.443 -0.0589  0.9161 -0.8107
22716SOL    HW175006   3.275   6.894   6.396 -1.6952  0.4272  0.1106
22716SOL    HW275007   3.393   6.874   6.489  1.4289  1.4514 -3.3829
22717SOL     OW75008   0.328   6.959   0.883  0.2825 -0.1549 -0.5716
22717SOL    HW175009   0.332   6.926   0.793 -2.2590  1.0680 -1.2318
22717SOL    HW275010   0.272   6.897   0.929  2.3752 -1.3383  0.5340
22718SOL     OW75011   3.589   0.794  10.353  0.0166  0.1763  0.2492
22718SOL    HW175012   3.597   0.806  10.448 -1.6320 -2.2108  0.7840
22718SOL    HW275013   3.557   0.704  10.343 -0.6573  0.6318 -2.5409
22719SOL     OW75014   8.194   8.598   6.209 -0.4411 -0.1394  0.2652
22719SOL    HW175015   8.160   8.514   6.238  2.1303 -1.5057 -0.3482
22719SOL    HW275016   8.194   8.593   6.113  2.4365 -0.7336  0.2170
22720SOL     OW75017   3.959  10.192   7.391  0.0984 -0.5358  0.3455
22720SOL    HW175018   3.900  10.247   7.339  0.7515  0.5469  0.7072
22720SOL    HW275019   4.045  10.231   7.378  0.1614  0.3861  2.9734
22721SOL     OW75020   6.575   9.553  12.373 -0.1310  0.3803  0.2684
22721SOL    HW175021   6.503   9.598  12.329  0.2869  1.0770  0.2903
22721SOL    HW275022   6.532   9.496  12.437 -0.6501  1.3928  0.8532
22722SOL     OW75023   5.997   0.747   5.979  0.4947 -1.0299 -0.1064
22722SOL    HW175024   6.029   0.657   5.981  1.9982 -0.5153  0.0035
22722SOL    HW275025   6.075   0.801   5.992 -0.3464  0.3033 -0.3762
22723SOL     OW75026   3.293   3.164  10.642  0.7955  0.4134  0.2733
22723SOL    HW175027   3.317   3.186  10.732  0.2670  0.2196  0.4687
22723SOL    HW275028   3.316   3.071  10.634 -0.1148  0.1544  0.5496
22724SOL     OW75029   1.952   6.928   4.860 -0.1815 -0.1124  0.4074
22724SOL    HW175030   1.871   6.972   4.886 -1.2616 -0.9416 -1.3281
22724SOL    HW275031   1.964   6.857   4.923  0.1557  1.0516  1.6817
22725SOL     OW75032   8.700  11.586   1.988  0.0178  0.5387  0.0162
22725SOL    HW175033   8.668  11.629   1.909 -1.2645  0.8475  0.6934
22725SOL    HW275034   8.674  11.643   2.060 -0.9629 -0.9070  0.8628
22726SOL     OW75035   7.931  10.295   3.788 -0.3269  0.0437 -0.0350
22726SOL    HW175036   7.874  10.274   3.862  0.7832 -1.1231  0.5251
22726SOL    HW275037   7.890  10.250   3.713 -0.8568  0.3100  0.0919
22727SOL     OW75038  12.167   7.457   6.303 -0.5468 -0.5172  0.1244
22727SOL    HW175039  12.237   7.457   6.237 -0.8213  1.5489 -0.2559
22727SOL    HW275040  12.191   7.387   6.363  0.8332 -1.1048 -1.0380
22728SOL     OW75041   6.631   0.760   9.182  0.1476  0.0785 -0.5849
22728SOL    HW175042   6.672   0.804   9.108  0.6335 -3.4057 -2.6358
22728SOL    HW275043   6.543   0.797   9.187  1.8845  4.6075  1.1088
22729SOL     OW75044   5.244   2.531  11.850 -0.4050 -0.5209  0.3207
22729SOL    HW175045   5.251   2.591  11.775  0.4638 -1.3239 -0.2487
22729SOL    HW275046   5.203   2.585  11.918 -0.2000  0.5527 -0.3663
22730SOL     OW75047   9.233   4.504  10.803  0.2689  0.5690 -0.2808
22730SOL    HW175048   9.282   4.511  10.721  0.3404 -0.2985 -0.3177
22730SOL    HW275049   9.164   4.441  10.784  0.8231 -0.3291  0.5755
22731SOL     OW75050  11.994   2.310   4.759 -0.1842 -0.4237  0.2051
22731SOL    HW175051  11.991   2.349   4.671 -1.2356 -0.4516  0.2146
22731SOL    HW275052  12.037   2.376   4.813  1.4125 -0.8301 -0.5269
22732SOL     OW75053   1.682  11.911   2.742 -0.2597 -0.8158  0.9949
22732SOL    HW175054   1.751  11.854   2.777  0.0099 -0.8680  0.4030
22732SOL    HW275055   1.607  11.853   2.730 -0.2098 -0.8928  1.0576
22733SOL     OW75056   8.579   6.399  10.817 -0.4444 -0.7116  0.3175
22733SOL    HW175057   8.625   6.443  10.746  0.1701  0.6684  1.5044
22733SOL    HW275058   8.507   6.459  10.840 -0.0061 -0.6092  1.5230
22734SOL     OW75059   5.172   6.506  11.556  0.1392  0.5685 -0.3962
22734SOL    HW175060   5.223   6.425  11.557 -1.2807 -0.3705 -1.6711
22734SOL    HW275061   5.180   6.539  11.467  0.1387  1.5090 -0.0694
22735SOL     OW75062   9.295   1.501   0.041  0.0132 -0.0888 -0.5873
22735SOL    HW175063   9.279   1.426   0.097  2.8493 -1.1756 -1.1127
22735SOL    HW275064   9.207   1.530   0.015 -1.2054 -2.2318  0.8530
22736SOL     OW75065  11.002   3.481   5.375 -0.1358  0.7367 -0.2916
22736SOL    HW175066  11.037   3.505   5.461 -1.0432 -0.1831  0.3525
22736SOL    HW275067  11.046   3.398   5.355  0.8441  1.4530 -1.2014
22737SOL     OW75068   4.474  11.147   4.512  0.4870 -0.1801  0.3073
22737SOL    HW175069   4.497  11.204   4.585  0.0188  1.6228 -0.8922
22737SOL    HW275070   4.540  11.166   4.445  0.2362 -0.9568 -0.1744
22738SOL     OW75071   0.892   2.308   3.199 -0.5214  0.3004 -0.3684
22738SOL    HW175072   0.920   2.227   3.157 -2.9511 -0.3435 -0.9085
22738SOL    HW275073   0.858   2.362   3.127 -0.4622  1.1083  0.1951
22739SOL     OW75074   2.629  10.154   4.083 -0.5240 -0.7512  0.4626
22739SOL    HW175075   2.548  10.202   4.100  0.2159  1.3025 -1.2619
22739SOL    HW275076   2.691  10.222   4.053  1.0597 -2.6042 -0.7011
22740SOL     OW75077   9.735   4.786   8.828  0.2717 -0.1074 -0.5217
22740SOL    HW175078   9.740   4.857   8.764 -0.2894 -1.8204 -2.5981
22740SOL    HW275079   9.641   4.768   8.835  0.1990  0.8941  1.8700
22741SOL     OW75080   7.422   0.580   1.383 -0.1334 -0.0377  0.1470
22741SOL    HW175081   7.392   0.504   1.332 -1.5591  0.2399  0.5224
22741SOL    HW275082   7.374   0.572   1.466  2.0496 -0.4249  1.4405
22742SOL     OW75083   6.038  10.472  11.099 -0.7820  0.4241  0.0975
22742SOL    HW175084   5.977  10.415  11.053  0.1497  0.8488 -1.7960
22742SOL    HW275085   5.994  10.557  11.103 -0.5374  0.6171 -0.8796
22743SOL     OW75086   9.006   1.845   9.394  0.4478 -0.0896  0.8168
22743SOL    HW175087   8.911   1.852   9.402  0.5549  1.0791  1.3164
22743SOL    HW275088   9.023   1.752   9.382 -0.7883 -0.2641  0.3243
22744SOL     OW75089   3.553   3.509   5.699 -0.1744 -0.0166  0.2390
22744SOL    HW175090   3.470   3.485   5.658 -0.6923 -0.4586  1.4862
22744SOL    HW275091   3.601   3.557   5.631 -0.6737 -1.3368 -1.1031
22745SOL     OW75092   8.432   6.702   9.172  0.5853 -0.0964  0.1821
22745SOL    HW175093   8.423   6.655   9.089  0.9501 -0.5858  0.4188
22745SOL    HW275094   8.436   6.634   9.239  0.8997  0.2741  0.5460
22746SOL     OW75095   7.624  10.530   4.197  0.1873  0.2521 -0.0640
22746SOL    HW175096   7.597  10.511   4.287 -0.3434 -1.3704 -0.5346
22746SOL    HW275097   7.705  10.479   4.186 -0.9884 -1.4710 -1.1984
22747SOL     OW75098  12.274   6.053   6.807  0.8673 -0.6141  0.4211
22747SOL    HW175099  12.200   5.994   6.796 -0.0068  0.1942  1.6721
22747SOL    HW275100  12.241   6.138   6.777  1.2638 -0.2500  0.9897
22748SOL     OW75101   7.258   6.846  11.310 -0.3851 -0.3314  0.1171
22748SOL    HW175102   7.185   6.842  11.372  0.0579  2.2175  0.9296
22748SOL    HW275103   7.249   6.931  11.267  0.2287 -1.3780 -2.2502
22749SOL     OW75104  10.677   2.557  11.754  0.3677 -0.2682  0.6684
22749SOL    HW175105  10.626   2.480  11.777 -0.2943  0.5283  1.9972
22749SOL    HW275106  10.752   2.556  11.814  0.9128 -0.4021  0.0068
22750SOL     OW75107   3.757   9.573   5.663 -0.1340 -0.2257 -0.6627
22750SOL    HW175108   3.767   9.487   5.621 -3.9594 -1.3843  0.3389
22750SOL    HW275109   3.744   9.634   5.590 -0.2410 -1.0432 -1.3509
22751SOL     OW75110  12.494   8.489   3.869 -0.1328 -0.3335 -0.1379
22751SOL    HW175111  12.494   8.516   3.777 -1.5010  3.7091  0.8793
22751SOL    HW275112  12.576   8.524   3.905 -0.6128 -0.0107  0.6584
22752SOL     OW75113   2.063   0.165   0.790  0.5083 -0.1863 -0.1103
22752SOL    HW175114   2.027   0.244   0.830  0.4807 -0.4561  0.4047
22752SOL    HW275115   2.003   0.144   0.718  0.0153 -0.2488  0.3176
22753SOL     OW75116   4.920   8.535   9.390 -0.3090 -0.0207 -0.4289
22753SOL    HW175117   4.830   8.526   9.420 -0.4155  0.0309 -0.7283
22753SOL    HW275118   4.965   8.583   9.460 -0.2941 -0.8350  0.1306
22754SOL     OW75119  11.208   6.617   5.287 -0.2584  0.0360 -0.1213
22754SOL    HW175120  11.195   6.567   5.206  1.2166 -2.1215  0.8873
22754SOL    HW275121  11.152   6.574   5.351 -1.7705  2.0179 -0.0245
22755SOL     OW75122   9.493   3.663  11.237 -0.2391 -0.2096  0.0257
22755SOL    HW175123   9.466   3.724  11.305  1.6091  0.6561  0.0438
22755SOL    HW275124   9.410   3.630  11.201 -1.2611 -0.1401  2.1475
22756SOL     OW75125   6.581   9.604  12.014 -0.2314 -0.2575  0.0554
22756SOL    HW175126   6.486   9.607  12.005 -0.6260  3.2090  3.1723
22756SOL    HW275127   6.614   9.628  11.927 -2.4796  3.4481  0.0443
22757SOL     OW75128   0.137  10.962   9.998  0.3810  0.3286  0.5557
22757SOL    HW175129   0.042  10.953  10.007  0.1957  2.5008  1.3186
22757SOL    HW275130   0.159  10.904   9.925 -1.5767  0.0696  0.0969
22758SOL     OW75131   5.592   8.577   5.984  0.0750  0.0031  0.5311
22758SOL    HW175132   5.638   8.613   6.060 -0.8354  0.5658  0.8405
22758SOL    HW275133   5.522   8.524   6.023  1.2979 -2.0462  0.0909
22759SOL     OW75134   0.922   8.870  12.179 -0.2694  0.0818 -0.4273
22759SOL    HW175135   0.901   8.802  12.116  0.8773 -1.5668  0.8939
22759SOL    HW275136   0.946   8.823  12.259 -3.7440  2.0254  2.0612
22760SOL     OW75137   4.074   9.286   6.466 -0.3235  0.1416 -0.6130
22760SOL    HW175138   4.057   9.273   6.559  0.8950 -1.5014 -0.5761
22760SOL    HW275139   4.053   9.378   6.450  0.9224  0.8831  1.6184
22761SOL     OW75140  11.328   1.774   5.050  0.2560 -0.0698  0.3706
22761SOL    HW175141  11.284   1.848   5.092 -0.6430  0.6445 -1.7079
22761SOL    HW275142  11.260   1.708   5.039  0.0028  0.4481 -1.4911
22762SOL     OW75143   2.527   4.085   4.812  0.3849 -0.3282  0.5623
22762SOL    HW175144   2.605   4.090   4.757  1.1300  0.8537  1.6710
22762SOL    HW275145   2.553   4.126   4.894 -2.3348  3.1720 -0.1263
22763SOL     OW75146   2.597   6.557   9.186 -0.0521  0.3075  0.9286
22763SOL    HW175147   2.652   6.532   9.260  2.0497  2.1378  0.1162
22763SOL    HW275148   2.612   6.652   9.177  1.1156 -0.0716 -2.7681
22764SOL     OW75149   2.007   3.450   2.530  0.3936  0.2828  0.8325
22764SOL    HW175150   2.098   3.464   2.557  0.3597  0.1600  1.0103
22764SOL    HW275151   2.000   3.356   2.517  0.7373  0.4629 -0.7882
22765SOL     OW75152   0.350  12.123   3.746 -0.0344  0.4077  0.2515
22765SOL    HW175153   0.421  12.109   3.683  0.8820  3.1059  0.5717
22765SOL    HW275154   0.304  12.201   3.714 -2.9028 -1.1988  0.1085
22766SOL     OW75155   3.249  11.957   8.850 -0.6341 -0.7188 -0.1988
22766SOL    HW175156   3.325  11.977   8.904  0.5884 -1.5714 -1.5281
22766SOL    HW275157   3.235  12.036   8.798 -1.4424 -0.1187  0.8814
22767SOL     OW75158   8.917   4.406   7.188  0.2680  0.1088 -0.1536
22767SOL    HW175159   8.994   4.368   7.145  0.9688 -0.1698  1.2808
22767SOL    HW275160   8.945   4.420   7.278 -1.2879  0.2730  0.3311
22768SOL     OW75161   9.560   3.191  11.492  0.2260  0.4282 -0.1888
22768SOL    HW175162   9.639   3.188  11.546 -0.0566  0.2855  0.2289
22768SOL    HW275163   9.576   3.128  11.422 -0.4835 -1.4998  1.2811
22769SOL     OW75164   7.035   6.282   5.537  0.1081 -0.1967  0.7586
22769SOL    HW175165   7.098   6.255   5.604 -0.7459 -3.3912  0.4337
22769SOL    HW275166   6.950   6.274   5.579 -0.3306 -0.1310 -0.0874
22770SOL     OW75167   9.020   6.963   0.196 -0.2454  0.1961 -0.2538
22770SOL    HW175168   8.947   6.956   0.135  0.3497 -0.6884 -0.8786
22770SOL    HW275169   9.094   6.990   0.142  0.3724 -0.9454 -0.0100
22771SOL     OW75170   5.762   8.338  12.221  0.1616 -0.4763 -0.2166
22771SOL    HW175171   5.734   8.413  12.169 -1.6190 -1.0971 -0.2238
22771SOL    HW275172   5.791   8.376  12.304  1.6600  0.3924 -1.0821
22772SOL     OW75173   1.202  10.104   2.709 -0.0104 -0.0615 -0.1861
22772SOL    HW175174   1.146  10.064   2.776  0.2672 -0.5818 -0.2633
22772SOL    HW275175   1.247  10.030   2.668  0.5681  0.3356 -0.2721
22773SOL     OW75176  10.537  11.729  11.252 -0.1445 -0.2375  0.2302
22773SOL    HW175177  10.606  11.770  11.200 -0.6732  0.6497  0.1963
22773SOL    HW275178  10.456  11.752  11.207 -0.9330  3.1947  2.9347
22774SOL     OW75179   6.615   6.329   8.717  0.1281  0.3060  0.1841
22774SOL    HW175180   6.667   6.260   8.759 -0.6069 -0.6205 -0.3642
22774SOL    HW275181   6.659   6.345   8.634  0.7312  1.0558  0.6419
22775SOL     OW75182   2.791  10.103   6.569 -0.3207  0.2639  0.3237
22775SOL    HW175183   2.748  10.152   6.499  0.7776  0.5400 -0.1796
22775SOL    HW275184   2.883  10.127   6.562  0.1593 -1.4326  0.4263
22776SOL     OW75185   0.378   3.340   2.398 -0.3658 -0.2421  0.0807
22776SOL    HW175186   0.470   3.314   2.394 -0.2572  0.2155 -0.5816
22776SOL    HW275187   0.363   3.388   2.316 -0.9363  0.5107  0.6145
22777SOL     OW75188   0.726   2.260   8.234  0.3433  0.2001  0.0686
22777SOL    HW175189   0.717   2.165   8.228 -1.0033  0.3158  0.0616
22777SOL    HW275190   0.734   2.277   8.328  0.7152  0.0751  0.0614
22778SOL     OW75191   4.294   6.813  10.740 -0.2285  0.0317  0.3960
22778SOL    HW175192   4.381   6.840  10.711  0.3508 -1.4267  0.6666
22778SOL    HW275193   4.235   6.843  10.672  0.8550 -1.5494 -1.3265
22779SOL     OW75194   1.018   2.134   3.631 -0.0061  0.0685 -0.1241
22779SOL    HW175195   1.075   2.063   3.604  0.1902 -0.4318  1.5067
22779SOL    HW275196   1.069   2.214   3.616  0.6136 -0.2861  0.1066
22780SOL     OW75197   1.037   7.874   3.576  0.2720 -0.4158 -0.3942
22780SOL    HW175198   0.997   7.923   3.648  0.3714 -1.1931  0.1949
22780SOL    HW275199   0.998   7.912   3.497  1.0369  1.2637 -0.0136
22781SOL     OW75200   3.676   0.432   0.419  0.2394  0.1735 -0.2754
22781SOL    HW175201   3.720   0.505   0.463  1.6489 -0.8870  0.1443
22781SOL    HW275202   3.670   0.363   0.485  0.0555 -0.5336 -1.0013
22782SOL     OW75203   9.182   6.624  12.282 -0.0398  0.1554 -0.3169
22782SOL    HW175204   9.250   6.557  12.279 -0.3901 -0.1804 -0.7683
22782SOL    HW275205   9.223   6.697  12.329  0.6769  0.0140 -0.7108
22783SOL     OW75206   0.183   6.247   4.069 -0.5629 -0.0077 -0.4808
22783SOL    HW175207   0.272   6.260   4.104 -0.3889 -1.8563 -0.1455
22783SOL    HW275208   0.133   6.321   4.103  0.8699  1.1575 -0.7961
22784SOL     OW75209   8.910   3.378   2.682 -0.2557 -0.0900  0.0104
22784SOL    HW175210   9.000   3.411   2.680  0.4201 -1.7182  0.9743
22784SOL    HW275211   8.856   3.456   2.694  1.0041  0.9484 -0.7664
22785SOL     OW75212   0.980   2.934   4.276 -0.0109  0.5551 -0.0189
22785SOL    HW175213   0.886   2.938   4.291 -0.2839  0.9750 -1.6175
22785SOL    HW275214   1.001   2.840   4.278 -0.1789  0.5281  1.7567
22786SOL     OW75215   4.755   6.722  11.108  0.3116  0.4994 -0.0856
22786SOL    HW175216   4.733   6.630  11.093 -1.6183  1.2003 -1.9554
22786SOL    HW275217   4.847   6.720  11.134  0.8611 -1.8175 -1.8428
22787SOL     OW75218   4.646   1.919   2.525 -0.1298 -0.7377  0.2053
22787SOL    HW175219   4.643   1.898   2.432  1.5708 -0.7757  0.1161
22787SOL    HW275220   4.620   2.011   2.530  0.9269 -0.3795 -0.4786
22788SOL     OW75221   8.692  11.063   7.749  0.1312 -0.6824 -0.4848
22788SOL    HW175222   8.687  10.999   7.820  1.3145 -0.6707 -0.3757
22788SOL    HW275223   8.769  11.117   7.770 -1.4305  1.5096  0.0201
22789SOL     OW75224   5.608  11.707   1.955 -0.2696  0.2638  0.2644
22789SOL    HW175225   5.651  11.687   2.039 -1.3501  0.3263  0.8449
22789SOL    HW275226   5.560  11.628   1.933 -4.3654  1.8519  2.4495
22790SOL     OW75227   0.051   4.070   5.865 -0.2775  0.0339  0.1627
22790SOL    HW175228   0.023   4.059   5.956 -2.1806 -1.7393 -0.5622
22790SOL    HW275229   0.062   3.981   5.832 -0.6277  0.6148 -1.6192
22791SOL     OW75230   5.134   3.892   5.701  0.3378 -0.2421  0.2884
22791SOL    HW175231   5.144   3.906   5.796  1.8715 -1.6846  0.3923
22791SOL    HW275232   5.157   3.976   5.662  1.5335 -0.1318  1.1589
22792SOL     OW75233   0.759   2.326   7.835 -0.7037  0.3853  0.0822
22792SOL    HW175234   0.667   2.322   7.860 -1.1417  1.3679 -1.3153
22792SOL    HW275235   0.759   2.340   7.741  0.8551  1.5139  0.1976
22793SOL     OW75236   9.540   8.095   2.710  0.5148  0.0243  0.2584
22793SOL    HW175237   9.528   8.174   2.763 -1.0077 -0.7631  1.1856
22793SOL    HW275238   9.464   8.093   2.652 -0.8045 -1.9235  1.8980
22794SOL     OW75239   6.361   0.187   5.956  0.1651  0.0600 -0.1166
22794SOL    HW175240   6.277   0.190   5.911 -0.8374 -0.2210  1.6487
22794SOL    HW275241   6.378   0.094   5.968 -0.1109  0.1319  0.9706
22795SOL     OW75242   6.892   8.794   6.137  0.8308 -0.3456  0.2471
22795SOL    HW175243   6.868   8.707   6.171 -1.1780 -0.1852 -0.6927
22795SOL    HW275244   6.851   8.855   6.198  0.9364 -0.0448  0.0140
22796SOL     OW75245   7.828   1.127  10.021  0.7658 -0.2611 -0.3133
22796SOL    HW175246   7.874   1.066  10.079  1.3931 -1.5368 -2.0804
22796SOL    HW275247   7.894   1.194  10.000  1.2041 -0.9542 -1.1996
22797SOL     OW75248   8.551   8.447   4.006  0.4546  1.0555 -0.0141
22797SOL    HW175249   8.472   8.498   4.023 -0.3330 -0.1544  0.0922
22797SOL    HW275250   8.519   8.359   3.987  1.8719 -0.1327  2.5718
22798SOL     OW75251   5.731   3.341   0.163 -0.4771 -0.3910  0.1296
22798SOL    HW175252   5.809   3.395   0.165 -1.9235  1.8039  1.5822
22798SOL    HW275253   5.755   3.263   0.214  0.0327  1.4533  2.9185
22799SOL     OW75254   7.996   8.662  11.500 -0.0348 -0.2491  0.0208
22799SOL    HW175255   8.010   8.756  11.512  1.0512 -0.5167  1.0536
22799SOL    HW275256   7.905   8.648  11.523 -0.0519  0.4630  0.4253
22800SOL     OW75257  11.989   2.698   4.220  0.4090  0.0124  0.0820
22800SOL    HW175258  11.961   2.675   4.309 -1.3447 -0.6060 -0.5903
22800SOL    HW275259  11.921   2.759   4.189  1.4228  0.8390 -0.5627
22801SOL     OW75260   6.790   5.557   4.615  0.0652 -0.3629  0.6097
22801SOL    HW175261   6.710   5.506   4.624 -0.0327 -0.5610 -1.0655
22801SOL    HW275262   6.839   5.540   4.695 -0.5930 -1.9731  0.6937
22802SOL     OW75263   9.088   2.309  12.099 -0.5848  0.2996 -0.1227
22802SOL    HW175264   9.083   2.403  12.079 -0.5278  0.3969  0.2962
22802SOL    HW275265   9.049   2.302  12.186  0.4997  0.1030  0.3660
22803SOL     OW75266   7.636   4.043   4.720 -0.0822  0.3752  0.0981
22803SOL    HW175267   7.726   4.075   4.708 -0.1241 -0.1268 -1.8630
22803SOL    HW275268   7.581   4.112   4.683 -0.4773  0.2702  0.4752
22804SOL     OW75269   1.001   1.171   4.840 -0.3391 -0.0116 -0.3708
22804SOL    HW175270   1.070   1.211   4.788  0.8021  0.7018  1.5820
22804SOL    HW275271   0.980   1.237   4.906 -3.5050  0.1251 -1.3554
22805SOL     OW75272   4.167   2.423   3.019  0.7452  0.1351  0.3475
22805SOL    HW175273   4.090   2.457   2.974 -1.7297 -2.4976  2.1999
22805SOL    HW275274   4.201   2.356   2.961 -0.6116 -1.1432  0.9406
22806SOL     OW75275   4.321   5.423   1.925 -0.4629  0.0221 -0.6535
22806SOL    HW175276   4.351   5.465   2.006 -0.2346  1.3070 -1.3714
22806SOL    HW275277   4.401   5.387   1.886 -0.7512 -1.7194  0.2842
22807SOL     OW75278  11.581   9.686   4.394  0.0605 -0.3618  0.0543
22807SOL    HW175279  11.523   9.614   4.422  0.1176 -1.1238 -1.6504
22807SOL    HW275280  11.536   9.724   4.318  2.2975 -1.7643 -2.0964
22808SOL     OW75281  11.504   4.572   2.939  0.6313 -0.9548 -0.5635
22808SOL    HW175282  11.458   4.654   2.919  0.7950 -0.9423 -0.9070
22808SOL    HW275283  11.596   4.592   2.922  0.6131 -1.3670 -1.1978
22809SOL     OW75284  11.308   5.561   2.009 -0.3112  0.3301 -0.1012
22809SOL    HW175285  11.359   5.637   2.036 -0.5565  1.1586 -1.8367
22809SOL    HW275286  11.253   5.541   2.085  0.4258  1.2853  0.7126
22810SOL     OW75287   2.786   1.960  11.314 -0.3008  0.1147 -0.0592
22810SOL    HW175288   2.860   2.020  11.309 -0.6393  0.4933 -0.5546
22810SOL    HW275289   2.719   1.999  11.259 -1.9276  1.2569  2.5386
22811SOL     OW75290   5.056   0.947   1.586  0.0033 -0.1141  0.5877
22811SOL    HW175291   5.036   0.962   1.678  0.3021 -0.7812  0.7656
22811SOL    HW275292   5.131   1.003   1.568  1.6854 -1.9662  1.4806
22812SOL     OW75293   8.897   9.288   2.283  0.1834 -0.6001 -0.1664
22812SOL    HW175294   8.843   9.366   2.274  1.5841  0.6628  1.6024
22812SOL    HW275295   8.986   9.317   2.263  0.4549 -2.3240 -1.7486
22813SOL     OW75296   0.395   1.364   0.052 -0.0354  0.1982  0.3340
22813SOL    HW175297   0.302   1.342   0.051 -0.3051  1.3279 -0.3351
22813SOL    HW275298   0.408   1.418  -0.026  1.4459 -0.9983 -0.2937
22814SOL     OW75299   1.582   8.620   8.273  0.4301  0.6558  0.2965
22814SOL    HW175300   1.638   8.611   8.350 -0.3866 -0.7784  0.7648
22814SOL    HW275301   1.542   8.534   8.263  1.1774  0.5388 -2.2847
22815SOL     OW75302  10.857  11.637   9.175  1.0628  0.3672  0.0088
22815SOL    HW175303  10.826  11.709   9.230  2.2063 -0.8746  2.4080
22815SOL    HW275304  10.946  11.618   9.206  1.5683 -0.7581 -1.9338
22816SOL     OW75305  10.638   0.800   3.638 -0.0967  0.5681  0.5087
22816SOL    HW175306  10.635   0.856   3.716  0.4585 -0.3535  1.2067
22816SOL    HW275307  10.730   0.776   3.630  0.0176  1.3915 -0.9865
22817SOL     OW75308  11.218   8.201   3.443 -0.0995  0.0547  0.4099
22817SOL    HW175309  11.307   8.211   3.409 -0.9376  0.6035 -1.7915
22817SOL    HW275310  11.230   8.165   3.531  2.2730 -0.0443  0.1165
22818SOL     OW75311   7.454   4.049   0.019 -0.3154  0.1031 -0.2084
22818SOL    HW175312   7.398   3.984  -0.025  0.3596 -0.0190 -0.9103
22818SOL    HW275313   7.441   4.129  -0.032 -1.5965  0.7140  1.0009
22819SOL     OW75314   7.362   7.580   6.251  0.1097 -0.3414  0.1081
22819SOL    HW175315   7.333   7.671   6.253  0.0940 -0.3524  1.7159
22819SOL    HW275316   7.282   7.529   6.250  0.1008 -0.3404  0.5769
22820SOL     OW75317   3.719   7.641  10.789  0.5136  0.2396  0.2936
22820SOL    HW175318   3.798   7.662  10.838  1.0851  0.0720 -0.5212
22820SOL    HW275319   3.723   7.546  10.777  0.1296  0.2166  0.3534
22821SOL     OW75320   0.836   9.156   8.034 -0.1635  0.5198 -0.1453
22821SOL    HW175321   0.753   9.110   8.022 -1.9063  3.6158 -1.1678
22821SOL    HW275322   0.833   9.187   8.125  0.5240 -0.4635  0.2246
22822SOL     OW75323   8.103  10.562   2.058 -0.3682  0.5827  0.0948
22822SOL    HW175324   8.023  10.596   2.098 -0.5305  2.1819 -1.4520
22822SOL    HW275325   8.132  10.632   1.999  0.2300 -1.3535 -2.0613
22823SOL     OW75326   0.383   5.263   7.926  0.0607  0.5515  0.4434
22823SOL    HW175327   0.456   5.314   7.891 -0.8729  1.6525  0.0425
22823SOL    HW275328   0.383   5.284   8.020 -1.0299  2.2889  0.1066
22824SOL     OW75329   9.806   5.290  12.124  0.3655  0.0430 -1.3378
22824SOL    HW175330   9.737   5.289  12.057 -1.1540 -0.4955  0.1745
22824SOL    HW275331   9.790   5.211  12.176  0.6573  1.1636  0.5114
22825SOL     OW75332   0.952   3.882   4.746  0.4334  0.7701 -0.2102
22825SOL    HW175333   1.008   3.836   4.684 -2.0185  0.7550 -2.6184
22825SOL    HW275334   0.945   3.823   4.821  1.7616 -0.2264 -0.8366
22826SOL     OW75335   9.931   1.852  12.070  0.0228  0.1854 -0.0837
22826SOL    HW175336   9.892   1.938  12.050  0.6072  0.5464  0.3074
22826SOL    HW275337   9.870   1.813  12.134  1.2020  1.5322  1.9804
22827SOL     OW75338  10.715   6.819   7.150 -0.8952 -0.3240 -0.3953
22827SOL    HW175339  10.629   6.780   7.130 -0.0850 -1.2262 -2.3336
22827SOL    HW275340  10.774   6.783   7.084  1.0633  0.0802  1.0400
22828SOL     OW75341  11.797  10.600   9.796  0.2128 -0.1015  0.1587
22828SOL    HW175342  11.810  10.621   9.889  2.6731  1.4306 -0.4665
22828SOL    HW275343  11.738  10.524   9.798  1.0403 -0.8147  3.0268
22829SOL     OW75344   1.680   3.835   8.855  0.0023  0.2346  0.1593
22829SOL    HW175345   1.604   3.872   8.898 -0.5804  0.1646 -0.7689
22829SOL    HW275346   1.654   3.745   8.833  0.0573  0.4455 -0.8348
22830SOL     OW75347  10.613   0.844   4.739 -0.0450  0.1714 -0.2695
22830SOL    HW175348  10.527   0.809   4.766  1.0804 -1.3981  1.5632
22830SOL    HW275349  10.596   0.886   4.655 -2.5019 -0.6144 -0.2609
22831SOL     OW75350   5.740   1.367   5.518  0.6507  0.1845  0.1303
22831SOL    HW175351   5.741   1.328   5.430  4.1466 -0.6888  0.3843
22831SOL    HW275352   5.665   1.326   5.561  0.2114 -1.1355 -1.7452
22832SOL     OW75353   5.360   5.017   2.844  0.0885 -0.0082 -0.2744
22832SOL    HW175354   5.394   4.956   2.909 -2.0671 -1.1220 -0.0786
22832SOL    HW275355   5.414   5.002   2.766  1.0989 -0.4573  0.4945
22833SOL     OW75356  11.879   5.047   0.870 -0.6357  0.1055 -0.2296
22833SOL    HW175357  11.956   5.008   0.911 -1.5395 -1.2116  0.2908
22833SOL    HW275358  11.838   4.975   0.822 -2.0682  0.5172  0.3114
22834SOL     OW75359   4.463  11.480   4.504  0.5021  0.4755  0.8373
22834SOL    HW175360   4.537  11.429   4.537  1.0419  1.8814  1.9249
22834SOL    HW275361   4.468  11.472   4.409  1.8240  0.2165  0.9089
22835SOL     OW75362   9.131   7.778  11.300  0.3008  0.0940  0.3703
22835SOL    HW175363   9.100   7.802  11.388 -2.5536 -0.0325 -0.4954
22835SOL    HW275364   9.178   7.856  11.270 -0.3449  0.8728  1.2915
22836SOL     OW75365  10.544   6.991   7.331 -0.2510  1.0068  0.4478
22836SOL    HW175366  10.608   7.061   7.320 -0.0160  0.6613 -0.4471
22836SOL    HW275367  10.565   6.927   7.263  0.2969 -0.5285  1.9648
22837SOL     OW75368   3.462   9.018   1.123  0.4058  0.3104 -0.2326
22837SOL    HW175369   3.374   9.031   1.158 -0.0721 -2.1387 -0.2952
22837SOL    HW275370   3.516   9.085   1.166 -0.7451 -0.6197  2.9496
22838SOL     OW75371   8.343   8.532   7.753 -1.2055 -0.1295 -0.5713
22838SOL    HW175372   8.403   8.533   7.678 -0.4220  0.0713  0.0452
22838SOL    HW275373   8.336   8.624   7.779 -1.9610 -0.1251 -0.7696
22839SOL     OW75374   5.920  11.344   0.498  0.1039 -0.1823  0.2564
22839SOL    HW175375   5.922  11.337   0.403 -1.7487  0.7014  0.1138
22839SOL    HW275376   5.836  11.306   0.523  0.8814 -1.0649  1.6212
22840SOL     OW75377   2.500   4.957   3.113  0.4935 -0.3397 -0.4806
22840SOL    HW175378   2.542   4.929   3.195  1.6839  2.3649 -0.0583
22840SOL    HW275379   2.408   4.932   3.123  0.6209 -0.1568  1.6765
22841SOL     OW75380   0.246  12.010   1.722  0.4843  0.4978  0.1062
22841SOL    HW175381   0.186  11.936   1.729  0.4348  0.1787 -2.6390
22841SOL    HW275382   0.276  12.009   1.631  2.6786  2.1873  0.6994
22842SOL     OW75383  10.603   9.553   3.770  0.0259 -0.5595  0.3428
22842SOL    HW175384  10.517   9.546   3.729  0.3608  1.1499 -0.7465
22842SOL    HW275385  10.663   9.512   3.709  0.2081 -0.1837  0.2661
22843SOL     OW75386  12.270  11.635  10.912 -0.3329 -0.1099 -0.5851
22843SOL    HW175387  12.354  11.591  10.901  1.0693  1.8133  1.4629
22843SOL    HW275388  12.273  11.708  10.850 -1.1695 -0.8027 -1.4970
22844SOL     OW75389   5.438   7.319  10.888  0.5589  0.5249  0.2089
22844SOL    HW175390   5.413   7.281  10.972 -0.9954  1.5699  0.2600
22844SOL    HW275391   5.357   7.320  10.837  1.9089 -2.2911 -2.2694
22845SOL     OW75392   8.938   1.213   5.421  1.4245  0.0097  0.2165
22845SOL    HW175393   8.913   1.303   5.400 -0.7357  0.2564  3.1757
22845SOL    HW275394   8.858   1.162   5.408  2.1910 -1.2133  0.0848
22846SOL     OW75395   5.007   1.247  11.127  0.3293 -0.5268  0.5404
22846SOL    HW175396   5.069   1.265  11.057 -0.7435  2.1235  0.1556
22846SOL    HW275397   5.062   1.231  11.204  1.4988 -2.3461 -0.5994
22847SOL     OW75398   4.663   6.763   2.283  0.4336  0.4659 -0.6066
22847SOL    HW175399   4.693   6.827   2.348  1.2559 -1.4383  0.9929
22847SOL    HW275400   4.568   6.760   2.294  0.3248  1.6703 -1.0078
22848SOL     OW75401   6.583  10.502   0.675  0.2139 -0.0911 -0.0529
22848SOL    HW175402   6.640  10.565   0.631  0.6037  0.4554  1.2181
22848SOL    HW275403   6.642  10.437   0.712 -0.2361 -2.5524 -3.1637
22849SOL     OW75404   8.580   8.406   5.523 -0.7820  0.2603  0.1007
22849SOL    HW175405   8.614   8.443   5.605  0.0229 -0.4281  0.0948
22849SOL    HW275406   8.554   8.482   5.471  0.6379  0.8187  0.1594
22850SOL     OW75407   3.668   4.452   4.645 -0.1174 -0.4907 -0.0595
22850SOL    HW175408   3.746   4.461   4.700 -0.7323 -0.0728  0.7668
22850SOL    HW275409   3.624   4.374   4.678 -0.9346  0.2411  0.6394
22851SOL     OW75410   3.542   4.466   6.690 -0.2906 -0.2961 -0.1874
22851SOL    HW175411   3.540   4.387   6.636  0.7610 -1.9107  2.0220
22851SOL    HW275412   3.635   4.482   6.706 -0.5215  1.0046 -0.0293
22852SOL     OW75413   1.920   3.366   8.083  0.0057 -0.4730  0.7250
22852SOL    HW175414   1.969   3.418   8.019 -0.0893 -0.4600  0.6624
22852SOL    HW275415   1.963   3.384   8.166 -1.4350  1.5538  1.1222
22853SOL     OW75416   4.461   2.185   6.765  0.0314  0.5040  0.3671
22853SOL    HW175417   4.387   2.154   6.819  0.3089 -0.5751  0.1464
22853SOL    HW275418   4.455   2.280   6.769 -0.5849  0.4365  1.4516
22854SOL     OW75419   3.680   0.026   2.457 -0.2869  0.2048 -0.7998
22854SOL    HW175420   3.630   0.106   2.473 -0.0109  0.3921 -0.8766
22854SOL    HW275421   3.761   0.056   2.416 -0.4005 -0.1558 -1.2969
22855SOL     OW75422  10.159   2.595   0.353  0.5404  0.1190  0.1742
22855SOL    HW175423  10.155   2.623   0.444  0.7148  2.5770 -0.5030
22855SOL    HW275424  10.165   2.500   0.357  1.5630  0.2212  2.7455
22856SOL     OW75425   0.220  11.916  12.504  0.3470 -0.1104 -0.1224
22856SOL    HW175426   0.151  11.874  12.556  0.6435 -0.1934  0.2087
22856SOL    HW275427   0.301  11.890  12.548  0.7295 -1.5825 -1.5919
22857SOL     OW75428   7.936   5.539   9.065 -0.2475  0.0815 -0.3518
22857SOL    HW175429   7.857   5.506   9.108 -1.6706 -0.0286 -2.8307
22857SOL    HW275430   7.951   5.625   9.105 -1.9029  0.2789 -0.0772
22858SOL     OW75431  12.112   9.524   3.436 -0.0748 -0.4538 -0.2423
22858SOL    HW175432  12.159   9.606   3.452 -0.4207 -0.2933 -0.0427
22858SOL    HW275433  12.080   9.532   3.346  0.4300 -0.6415 -0.4439
22859SOL     OW75434   4.360   8.110   8.909 -0.1985  0.0620 -0.4367
22859SOL    HW175435   4.426   8.137   8.973 -0.8828 -0.2773  0.4289
22859SOL    HW275436   4.315   8.036   8.950 -1.2964  0.4511 -0.8909
22860SOL     OW75437   8.980   0.293   0.461 -0.2422 -0.1534 -0.7120
22860SOL    HW175438   9.054   0.314   0.519  0.3566 -1.8700 -0.8093
22860SOL    HW275439   9.018   0.234   0.396 -1.7145 -1.1050 -0.7364
22861SOL     OW75440   4.621   9.093   3.904 -0.1133 -0.3504 -0.4441
22861SOL    HW175441   4.694   9.151   3.882  1.6413 -1.6104  1.7005
22861SOL    HW275442   4.617   9.093   3.999 -2.3743 -1.0498 -0.4660
22862SOL     OW75443   4.013   8.571   9.002 -0.2415 -0.7836  0.0959
22862SOL    HW175444   4.105   8.547   9.003  0.1626  0.6081 -0.8491
22862SOL    HW275445   3.978   8.538   9.085  1.1238 -1.2522  0.4981
22863SOL     OW75446   8.125  11.398  12.130  0.4513 -0.5481 -0.2110
22863SOL    HW175447   8.089  11.418  12.217  0.1303 -1.3792 -0.1463
22863SOL    HW275448   8.215  11.371  12.147 -0.2237 -2.7902  0.1270
22864SOL     OW75449   5.273  10.012   4.310  0.3284 -0.5505 -0.7125
22864SOL    HW175450   5.312  10.011   4.397 -1.1580 -1.8270 -0.0027
22864SOL    HW275451   5.323  10.078   4.261  1.5550 -0.2189  0.9210
22865SOL     OW75452   7.503   8.689   2.110 -0.0292 -0.2800  0.9252
22865SOL    HW175453   7.564   8.702   2.183  0.3675 -0.1460  0.5767
22865SOL    HW275454   7.462   8.775   2.097 -0.4265 -0.4175  1.2799
22866SOL     OW75455   1.482   2.453  10.242  0.1916 -0.1543  0.3164
22866SOL    HW175456   1.463   2.438  10.150 -0.8776  0.2882  0.4476
22866SOL    HW275457   1.479   2.548  10.252  0.5175 -0.1891  0.7580
22867SOL     OW75458   5.427   6.327   9.182  0.1621  0.3341 -0.0205
22867SOL    HW175459   5.479   6.363   9.110  0.1398 -1.7133 -1.1488
22867SOL    HW275460   5.488   6.324   9.256  1.0510 -0.0761 -0.7463
22868SOL     OW75461  11.218   6.788   3.662  0.1589  0.0764  0.3684
22868SOL    HW175462  11.212   6.699   3.627  0.8000  0.1890 -0.0237
22868SOL    HW275463  11.154   6.789   3.734 -1.5200 -0.0266 -1.0386
22869SOL     OW75464   2.907   4.105   0.257  0.1879 -0.2208  0.0145
22869SOL    HW175465   2.932   4.076   0.170  0.5376  0.0781  0.0120
22869SOL    HW275466   2.965   4.179   0.275 -0.5932  0.3967  0.0714
22870SOL     OW75467   8.856   1.692   4.236 -0.1724 -0.1646  0.8859
22870SOL    HW175468   8.869   1.598   4.250 -1.3942 -0.5444 -0.3046
22870SOL    HW275469   8.829   1.699   4.144  1.4614  1.5231  0.4664
22871SOL     OW75470   2.677  10.415  12.238  0.7272 -0.2051 -0.2278
22871SOL    HW175471   2.747  10.402  12.302 -0.9043 -1.2672  1.4211
22871SOL    HW275472   2.646  10.327  12.219 -1.1418  0.3255  0.2154
22872SOL     OW75473   1.422   2.778   3.210 -0.0378 -0.0947  0.0630
22872SOL    HW175474   1.483   2.759   3.280 -0.5138  0.8633  0.7683
22872SOL    HW275475   1.378   2.859   3.238  0.3179  0.7605 -1.6977
22873SOL     OW75476   5.070   7.231   6.913 -0.3805 -0.3968 -0.4576
22873SOL    HW175477   5.124   7.198   6.841 -0.5349 -0.0661 -0.7271
22873SOL    HW275478   5.045   7.320   6.886 -2.2733 -1.0460 -1.0292
22874SOL     OW75479  11.814   3.217   8.751  0.1920  0.1319 -0.3758
22874SOL    HW175480  11.754   3.221   8.826  1.7490 -1.1200  1.0115
22874SOL    HW275481  11.900   3.236   8.788  0.7280  1.8595 -2.3129
22875SOL     OW75482   6.270  10.781   4.801  0.9606 -0.1740  0.2629
22875SOL    HW175483   6.347  10.724   4.791  0.7105 -1.0740  2.8356
22875SOL    HW275484   6.223  10.771   4.718  0.9611 -3.7067  0.5273
22876SOL     OW75485   8.425   4.600   6.122 -0.1631  0.0191 -0.4918
22876SOL    HW175486   8.422   4.565   6.033 -1.2218 -1.8211  0.2155
22876SOL    HW275487   8.334   4.595   6.154 -0.0161  1.7190  0.3166
22877SOL     OW75488  12.151   4.537   2.740 -0.4483 -0.0399 -0.0761
22877SOL    HW175489  12.118   4.523   2.651 -1.4864 -0.1578  0.3214
22877SOL    HW275490  12.115   4.465   2.791 -0.1779  0.2435  0.5226
22878SOL     OW75491   1.480   0.872   3.396 -0.6693  0.1996  0.1838
22878SOL    HW175492   1.548   0.939   3.401 -0.2550 -0.1295 -0.7758
22878SOL    HW275493   1.481   0.843   3.305 -2.5042  0.5811  0.0104
22879SOL     OW75494   4.875  11.601   9.483 -0.1246  0.0303 -0.0586
22879SOL    HW175495   4.859  11.528   9.423 -0.4083  0.8672 -1.0169
22879SOL    HW275496   4.962  11.582   9.520 -0.4441 -1.0910  0.1573
22880SOL     OW75497   7.498   7.124   8.743 -0.5668 -0.2946 -0.4014
22880SOL    HW175498   7.425   7.140   8.683 -0.2946 -2.6064 -1.4501
22880SOL    HW275499   7.459   7.071   8.813 -0.5236  1.0523  0.6867
22881SOL     OW75500   2.232   1.534   2.535  0.1718 -0.3092 -0.2211
22881SOL    HW175501   2.145   1.494   2.533  0.4880 -1.0067 -0.1821
22881SOL    HW275502   2.221   1.612   2.590  0.0034 -1.4369  1.4140
22882SOL     OW75503   3.343   4.595  11.991  0.8121  0.0405 -0.7936
22882SOL    HW175504   3.365   4.584  12.083  0.2989  0.7839 -0.5722
22882SOL    HW275505   3.338   4.506  11.957  0.1712 -0.2826  0.1007
22883SOL     OW75506   5.508   4.350   3.487  0.2303 -0.5549  0.2295
22883SOL    HW175507   5.427   4.401   3.495  0.5288 -0.0793  0.2797
22883SOL    HW275508   5.485   4.279   3.427 -0.2262 -0.4270  0.2462
22884SOL     OW75509   4.251   5.241   9.712 -0.5302 -0.2961  0.2127
22884SOL    HW175510   4.157   5.234   9.700 -0.5449  1.8726 -1.7743
22884SOL    HW275511   4.263   5.321   9.764  0.2219  0.0983 -0.5324
22885SOL     OW75512   3.793   3.904   8.548 -0.2578 -0.4788  0.7125
22885SOL    HW175513   3.877   3.932   8.585 -0.3317  0.4423  0.2055
22885SOL    HW275514   3.777   3.965   8.476 -1.3638 -0.6476  0.8007
22886SOL     OW75515   5.557   1.202   7.400 -0.1230 -0.4286 -0.0079
22886SOL    HW175516   5.608   1.221   7.479  0.0560  0.0768 -0.2379
22886SOL    HW275517   5.468   1.228   7.422  0.3067  1.7754 -0.6765
22887SOL     OW75518   2.782   6.324   4.868  0.1042 -0.2810  0.0159
22887SOL    HW175519   2.773   6.233   4.839  1.8947  0.0263 -1.6902
22887SOL    HW275520   2.870   6.328   4.906 -0.5249  0.4164  1.4708
22888SOL     OW75521   6.832   1.383   0.530 -0.0089 -0.5799  1.1449
22888SOL    HW175522   6.756   1.328   0.510  0.7974 -1.3588  0.1131
22888SOL    HW275523   6.842   1.375   0.625  0.0786 -2.2367  1.0224
22889SOL     OW75524  10.307   0.336  10.700 -0.4325  0.1217  0.1412
22889SOL    HW175525  10.320   0.251  10.740 -1.1160 -0.7338 -1.3487
22889SOL    HW275526  10.394   0.375  10.696 -0.1514 -0.3969  1.0641
22890SOL     OW75527   9.709   5.838   2.611  0.0110 -0.0161 -0.5807
22890SOL    HW175528   9.799   5.825   2.639  0.1855 -2.6627 -2.0673
22890SOL    HW275529   9.669   5.751   2.615 -2.0458  0.8147 -1.4024
22891SOL     OW75530   5.144   2.338   3.915  0.8282  0.1535  0.0074
22891SOL    HW175531   5.162   2.412   3.974  0.2481 -1.1965  1.9654
22891SOL    HW275532   5.167   2.261   3.966 -0.0817 -1.1104 -1.4202
22892SOL     OW75533   8.808   0.662   2.257 -0.0606 -0.0426  0.0669
22892SOL    HW175534   8.883   0.681   2.202  0.5449 -2.1926  0.0697
22892SOL    HW275535   8.775   0.578   2.225 -0.1705 -0.9742  2.4203
22893SOL     OW75536  11.087   5.055   9.330  0.0441 -0.0512  0.7315
22893SOL    HW175537  11.113   5.093   9.414  0.0995  0.2244  0.5897
22893SOL    HW275538  11.050   4.970   9.353 -0.3919  0.2280  1.0866
22894SOL     OW75539  10.406   2.425   3.719  0.5275  0.0624  0.3999
22894SOL    HW175540  10.428   2.362   3.788  1.6208 -0.8434 -0.7240
22894SOL    HW275541  10.386   2.506   3.766 -2.1084 -1.3577  1.9846
22895SOL     OW75542  10.660   2.516   4.127 -0.7104 -0.4631  0.4770
22895SOL    HW175543  10.734   2.478   4.080 -1.6448 -0.0329 -1.4445
22895SOL    HW275544  10.646   2.601   4.085 -1.8032 -0.1865  1.3462
22896SOL     OW75545   3.885   1.849   2.868 -0.1069  0.3542  0.2339
22896SOL    HW175546   3.895   1.893   2.784 -0.6042 -1.2535 -0.7128
22896SOL    HW275547   3.971   1.856   2.910  0.3600  0.5198 -0.7342
22897SOL     OW75548   4.451   5.810   3.034 -0.3468 -0.3853  1.2436
22897SOL    HW175549   4.505   5.883   3.063 -0.4772 -0.2705  1.1997
22897SOL    HW275550   4.385   5.850   2.977  0.4158 -0.7275  0.0875
22898SOL     OW75551   7.255   9.682   6.193  0.1473  0.4461  0.3087
22898SOL    HW175552   7.294   9.646   6.113  0.1804 -1.3231  1.0651
22898SOL    HW275553   7.319   9.745   6.225  0.4183  0.7073 -0.7152
22899SOL     OW75554   4.237  12.162  11.141 -0.1433  0.3028 -0.3149
22899SOL    HW175555   4.193  12.090  11.187  1.9432 -0.2457  0.9640
22899SOL    HW275556   4.285  12.119  11.071 -0.2495  0.6699 -0.6128
22900SOL     OW75557   5.013   4.616  11.811 -0.8169 -0.9054 -0.1519
22900SOL    HW175558   5.074   4.645  11.743  0.7146 -1.0101  1.1179
22900SOL    HW275559   5.012   4.688  11.874 -2.4022 -0.7054 -0.3640
22901SOL     OW75560   8.001   8.430  11.016 -0.2944  0.2519 -0.0910
22901SOL    HW175561   8.044   8.345  11.016  1.7098  1.1791 -1.2907
22901SOL    HW275562   8.073   8.493  11.001 -1.8691  2.0352 -0.5526
22902SOL     OW75563   3.765   8.446   7.581 -0.3848 -0.7362 -0.7556
22902SOL    HW175564   3.679   8.457   7.621 -0.1039 -3.0383  0.6636
22902SOL    HW275565   3.808   8.379   7.635  1.4558 -1.2650 -2.7434
22903SOL     OW75566   3.364   1.998   0.205 -0.6932  0.4289  0.6708
22903SOL    HW175567   3.364   2.093   0.194 -0.0869  0.8348  3.4907
22903SOL    HW275568   3.434   1.968   0.146  0.7420  2.0165  1.4464
22904SOL     OW75569   6.523   0.222   9.879  0.1026 -0.3809  0.1282
22904SOL    HW175570   6.580   0.296   9.902  1.1514 -1.4959  1.2160
22904SOL    HW275571   6.574   0.171   9.817 -0.3044 -0.6071 -0.0193
22905SOL     OW75572   1.908   7.504   2.263  0.5427  0.1462  0.4053
22905SOL    HW175573   1.819   7.474   2.246 -0.0636  0.7715  2.2219
22905SOL    HW275574   1.918   7.582   2.209  0.6499 -0.8820 -1.1349
22906SOL     OW75575   3.557   2.087   4.920 -0.7490  0.0785 -0.1259
22906SOL    HW175576   3.609   2.167   4.916 -0.1791 -0.1034  2.2087
22906SOL    HW275577   3.466   2.117   4.920 -0.5434  0.7079  0.3964
22907SOL     OW75578  11.789  11.200  10.871 -0.1971  0.8517  0.3393
22907SOL    HW175579  11.725  11.271  10.870 -0.2332  0.8785  2.3143
22907SOL    HW275580  11.872  11.242  10.847 -0.3168  1.4496  0.9645
22908SOL     OW75581   0.760  11.869   9.607 -0.4362  0.2821  0.0718
22908SOL    HW175582   0.774  11.833   9.520 -0.7770  0.3382 -0.0083
22908SOL    HW275583   0.679  11.919   9.599 -0.9477 -0.4354  0.6400
22909SOL     OW75584   8.673   1.134   2.400  0.0429  0.0098 -0.0564
22909SOL    HW175585   8.594   1.138   2.346 -2.7138 -0.9200  3.5341
22909SOL    HW275586   8.717   1.054   2.372 -3.1477 -2.3690  1.1687
22910SOL     OW75587  12.561   6.205   6.004 -0.4723  0.0545 -0.3549
22910SOL    HW175588  12.608   6.128   5.970  0.7505  0.4146  0.4534
22910SOL    HW275589  12.478   6.169   6.036 -0.6380 -0.6562 -1.5084
22911SOL     OW75590   0.749   6.182   2.119  0.3029  0.1367  0.0893
22911SOL    HW175591   0.691   6.252   2.152 -0.1345 -0.2728  0.1967
22911SOL    HW275592   0.837   6.218   2.129  0.0034  1.7347 -2.3033
22912SOL     OW75593  10.128   6.550   8.466  0.0300 -0.6606 -0.4270
22912SOL    HW175594  10.068   6.624   8.466  0.8311  0.0328  0.9539
22912SOL    HW275595  10.100   6.496   8.540  2.1082  0.5850  1.3914
22913SOL     OW75596   8.274   8.451  12.047  0.1867  0.4483 -0.2349
22913SOL    HW175597   8.270   8.529  11.991  2.8891  0.5400 -0.4326
22913SOL    HW275598   8.270   8.378  11.986 -0.4779  0.4603 -0.2110
22914SOL     OW75599   6.694   4.680  11.856  0.4805  0.1372 -0.1040
22914SOL    HW175600   6.746   4.626  11.915 -0.6350 -0.3229  0.5033
22914SOL    HW275601   6.646   4.617  11.802  1.4834  0.5454 -1.5533
22915SOL     OW75602   1.139   5.726   2.170  0.1040  0.0984 -0.0655
22915SOL    HW175603   1.169   5.647   2.215  1.0752  0.3682 -0.2339
22915SOL    HW275604   1.101   5.694   2.088 -1.4777 -0.3742  0.7948
22916SOL     OW75605   7.568   3.214   7.903 -0.0962 -0.7016  0.5534
22916SOL    HW175606   7.650   3.262   7.912 -0.5150 -0.3642  4.1230
22916SOL    HW275607   7.591   3.135   7.856  1.8442  0.2893 -0.2662
22917SOL     OW75608   0.591   0.260  11.331 -0.3613  0.5982 -0.2983
22917SOL    HW175609   0.559   0.315  11.402  0.0119 -1.0115  1.1713
22917SOL    HW275610   0.681   0.240  11.355  0.8913  2.5362 -2.8370
22918SOL     OW75611   5.211   4.190   9.893 -0.1110  0.9190 -0.7481
22918SOL    HW175612   5.248   4.199   9.981 -0.9079 -0.4639 -0.2304
22918SOL    HW275613   5.274   4.233   9.836  2.4608 -1.4647  0.0594
22919SOL     OW75614   2.121   9.252   1.406  0.3892 -0.5929 -0.4015
22919SOL    HW175615   2.119   9.178   1.467 -0.6969  0.4678  0.9186
22919SOL    HW275616   2.048   9.307   1.433  1.6681  1.4101 -0.7823
22920SOL     OW75617   3.362   6.351   8.153 -0.2908  0.1582  0.0351
22920SOL    HW175618   3.337   6.437   8.119 -0.7266  0.0749  0.1381
22920SOL    HW275619   3.284   6.320   8.199 -0.1590 -0.3205 -0.0583
22921SOL     OW75620   7.302   6.108   5.939 -0.1610  0.2317  0.3860
22921SOL    HW175621   7.276   6.017   5.927  1.2533 -0.2145  0.4974
22921SOL    HW275622   7.252   6.137   6.016  0.3299 -0.8634  1.1483
22922SOL     OW75623   7.201   8.752   3.537  0.4786 -0.2720 -0.5533
22922SOL    HW175624   7.267   8.711   3.479 -0.6966 -1.2271 -1.2615
22922SOL    HW275625   7.236   8.740   3.625  1.1131 -1.0460 -0.8953
22923SOL     OW75626   3.257   1.268   3.128  0.8053  0.5073  0.2900
22923SOL    HW175627   3.182   1.246   3.184  0.6988 -0.4088 -0.1923
22923SOL    HW275628   3.217   1.292   3.044  0.9247  2.5128  0.7608
22924SOL     OW75629   9.384   1.973   2.769 -0.0598  0.0895 -0.1652
22924SOL    HW175630   9.408   1.952   2.679  0.2095 -0.7856  0.0979
22924SOL    HW275631   9.347   2.061   2.764 -0.4853 -0.1279 -1.2045
22925SOL     OW75632  12.474  10.368   3.895  0.0557  0.2132 -0.3880
22925SOL    HW175633  12.538  10.436   3.916  1.4495 -0.7915 -1.1826
22925SOL    HW275634  12.422  10.358   3.975  0.1949  1.7761 -0.0709
22926SOL     OW75635   8.189   8.429   5.491 -0.3880 -0.4419  0.4499
22926SOL    HW175636   8.098   8.429   5.462 -0.2657  2.0413 -0.1503
22926SOL    HW275637   8.239   8.448   5.412  0.5750 -0.6821  0.9857
22927SOL     OW75638  10.817   7.467   7.107 -0.7731  0.2310 -0.2689
22927SOL    HW175639  10.844   7.466   7.199  2.2845 -0.1672 -1.0688
22927SOL    HW275640  10.804   7.375   7.085 -0.0908  0.2082 -0.5899
22928SOL     OW75641   5.060  11.647   9.157  0.6826  0.1062  0.7316
22928SOL    HW175642   5.117  11.724   9.146  0.9152 -0.2504 -0.7197
22928SOL    HW275643   5.059  11.632   9.251  0.0387  2.3365  1.1456
22929SOL     OW75644  10.190   6.492  10.406 -0.5683  0.0663  0.4208
22929SOL    HW175645  10.167   6.562  10.468  2.5313  2.8262 -1.1628
22929SOL    HW275646  10.130   6.504  10.333 -0.6163  0.5626  0.5356
22930SOL     OW75647   0.075   3.492  10.713  0.3628  0.0134 -0.0334
22930SOL    HW175648   0.003   3.555  10.707  1.8365  1.5927 -2.6095
22930SOL    HW275649   0.049   3.420  10.656  0.6991  0.4871 -0.7974
22931SOL     OW75650   6.182   3.603   0.152  0.1700  0.2722  1.0125
22931SOL    HW175651   6.271   3.605   0.116  0.2869 -1.1104  1.1661
22931SOL    HW275652   6.130   3.561   0.083 -0.6805  2.2809  0.3486
22932SOL     OW75653   6.027   2.356   9.634 -0.1011  0.1068  0.0495
22932SOL    HW175654   5.952   2.414   9.644 -0.7325 -0.8072  0.8181
22932SOL    HW275655   6.027   2.303   9.713  0.8368 -0.5076 -0.3418
22933SOL     OW75656   1.523   1.508   5.401  0.2119 -0.1221 -0.2170
22933SOL    HW175657   1.452   1.457   5.360  0.0727 -0.3337  0.2749
22933SOL    HW275658   1.489   1.597   5.404  1.1079  0.3712 -2.6050
22934SOL     OW75659  11.583   8.143   8.955 -0.0012 -0.3706  0.1825
22934SOL    HW175660  11.640   8.069   8.932  0.2332 -0.3214  0.5818
22934SOL    HW275661  11.581   8.141   9.051 -1.8237 -1.2466  0.1741
22935SOL     OW75662  10.118   2.700   1.186  0.3234  0.6691  1.0890
22935SOL    HW175663  10.036   2.690   1.233 -0.6679  0.6022 -0.5792
22935SOL    HW275664  10.175   2.749   1.246 -1.8211  3.1156  1.2890
22936SOL     OW75665   1.205   1.292   5.065  0.6499 -0.1492  0.3121
22936SOL    HW175666   1.285   1.300   5.013  0.5745 -0.5701  0.1313
22936SOL    HW275667   1.196   1.198   5.081  0.5082 -0.0543  0.8312
22937SOL     OW75668   5.671   3.024   5.561 -0.0959 -0.3197 -0.3334
22937SOL    HW175669   5.638   2.936   5.541 -0.9050 -0.2083  0.4477
22937SOL    HW275670   5.754   3.009   5.607 -0.8942 -0.7439  1.0291
22938SOL     OW75671   5.968   7.609   7.559 -0.1975 -0.0432 -0.5843
22938SOL    HW175672   5.906   7.601   7.631  0.1313 -1.5843 -0.4335
22938SOL    HW275673   6.051   7.630   7.601  0.3622 -2.5560 -0.2797
22939SOL     OW75674   7.909   0.593   6.481 -0.2651 -0.2395 -0.2264
22939SOL    HW175675   7.972   0.528   6.449  0.2948  0.2634 -0.1595
22939SOL    HW275676   7.827   0.544   6.490  0.3693 -1.1647  0.7238
22940SOL     OW75677  10.161  10.491   4.760 -0.2517  0.1026  0.4934
22940SOL    HW175678  10.072  10.455   4.766 -0.1228 -0.2706  0.2194
22940SOL    HW275679  10.148  10.582   4.731 -0.4502 -0.7248 -2.3139
22941SOL     OW75680   9.809   7.025   9.075  0.3978  0.0867 -0.0305
22941SOL    HW175681   9.904   7.040   9.079  0.0969  1.9842  1.8518
22941SOL    HW275682   9.775   7.099   9.025 -0.1853  0.0553  0.3160
22942SOL     OW75683   0.138   6.854  10.037  0.0673 -0.0095 -0.1599
22942SOL    HW175684   0.204   6.800   9.995 -0.5028 -0.7008 -0.1819
22942SOL    HW275685   0.153   6.942  10.001  1.6570  0.0884  0.6530
22943SOL     OW75686   0.713   8.694  10.570  0.4368 -0.0489  0.1007
22943SOL    HW175687   0.790   8.741  10.538 -0.6634  0.9013 -1.2821
22943SOL    HW275688   0.648   8.706  10.501 -1.6971  1.0907  2.1870
22944SOL     OW75689   3.235   1.429   4.458  0.1582 -0.2056  0.5789
22944SOL    HW175690   3.165   1.381   4.501  0.2772 -2.3402 -1.3790
22944SOL    HW275691   3.315   1.399   4.502  0.1089 -0.6954  0.3471
22945SOL     OW75692  11.877   7.895   5.649 -0.5155  0.2848 -0.1195
22945SOL    HW175693  11.882   7.800   5.652 -0.3576  0.3020  2.1393
22945SOL    HW275694  11.956   7.925   5.694 -0.0907  1.5333 -1.6095
22946SOL     OW75695   8.127   8.088   0.436 -0.5555 -0.8981  0.1175
22946SOL    HW175696   8.182   8.152   0.393 -0.4939 -1.0741 -0.0644
22946SOL    HW275697   8.170   8.071   0.520 -0.0298 -1.4436 -0.2484
22947SOL     OW75698   0.651  10.739   2.926 -0.0557 -0.0194  0.7524
22947SOL    HW175699   0.680  10.682   2.997  1.5725 -1.2937 -0.8412
22947SOL    HW275700   0.732  10.769   2.885 -0.8958  2.7366  0.9369
22948SOL     OW75701   5.314   5.277   4.138  0.2589 -0.2243  0.0529
22948SOL    HW175702   5.335   5.246   4.226 -1.1674  0.0767  0.5253
22948SOL    HW275703   5.292   5.198   4.090  2.1712 -0.5297 -0.4094
22949SOL     OW75704   6.401   8.503   4.889 -0.1438  0.9260  0.2220
22949SOL    HW175705   6.398   8.566   4.961  3.6979  0.0331  1.4318
22949SOL    HW275706   6.417   8.419   4.931 -0.2963 -0.0446 -1.5801
22950SOL     OW75707   1.733   5.641   0.399  0.2600  0.1466 -0.1157
22950SOL    HW175708   1.742   5.634   0.495  0.6802  3.2826  0.1753
22950SOL    HW275709   1.639   5.652   0.385  0.0088 -1.7690 -0.2822
22951SOL     OW75710   3.284   2.994   4.886 -0.0837 -0.1095 -0.4179
22951SOL    HW175711   3.203   3.036   4.916  0.6062  0.4013  0.8209
22951SOL    HW275712   3.347   3.066   4.881  0.4880 -0.6175 -0.6508
22952SOL     OW75713   8.672   5.019   0.779 -0.5612 -0.1519 -0.4361
22952SOL    HW175714   8.637   5.105   0.800 -0.6097 -0.5005  1.0121
22952SOL    HW275715   8.628   4.960   0.840  2.9560 -0.5207  2.0450
22953SOL     OW75716   0.932   7.742  11.673  0.2541 -0.0026  0.0762
22953SOL    HW175717   0.962   7.816  11.620 -1.3220  0.9663  0.4828
22953SOL    HW275718   0.906   7.676  11.608 -0.6287  0.7534 -0.3575
22954SOL     OW75719   8.258   4.629   0.159  0.2494 -0.2344 -0.0393
22954SOL    HW175720   8.297   4.561   0.105 -0.4247 -0.5382 -0.1534
22954SOL    HW275721   8.332   4.680   0.191  0.7568 -0.9969  0.0201
22955SOL     OW75722   8.837   8.051   3.286  0.3208  0.2802 -0.2151
22955SOL    HW175723   8.895   8.061   3.211 -0.8676 -1.7926 -1.5212
22955SOL    HW275724   8.841   7.957   3.307  0.9783  0.8602  2.6734
22956SOL     OW75725   0.397   5.217   3.353 -0.4024  0.2113  0.3660
22956SOL    HW175726   0.419   5.163   3.276  1.6628  1.3634  0.0759
22956SOL    HW275727   0.453   5.294   3.345 -1.8574  1.4951  1.8122
22957SOL     OW75728   9.802  12.392  10.957  0.2752 -0.1299  0.0810
22957SOL    HW175729   9.839  12.474  10.924 -0.4862 -0.0777 -0.6658
22957SOL    HW275730   9.750  12.358  10.885  0.0783 -0.9636  0.6016
22958SOL     OW75731   2.239   3.642   8.532  0.0882  0.0882  0.1282
22958SOL    HW175732   2.224   3.717   8.590  0.2748  0.5641 -0.4307
22958SOL    HW275733   2.197   3.666   8.449  0.4161 -0.2949 -0.1540
22959SOL     OW75734  10.284   2.404   0.526 -0.5379 -0.4618 -0.4412
22959SOL    HW175735  10.345   2.386   0.455 -0.0364  0.6444 -0.3078
22959SOL    HW275736  10.319   2.355   0.601 -0.3209 -0.5444 -0.5976
22960SOL     OW75737  12.315   6.788   9.768 -0.2679 -0.0362 -0.5039
22960SOL    HW175738  12.356   6.702   9.774 -0.3077 -0.0133  0.1460
22960SOL    HW275739  12.354   6.838   9.840  0.9518  1.0080 -1.8090
22961SOL     OW75740   4.804   7.164   2.938 -0.4283 -0.0169 -0.3895
22961SOL    HW175741   4.837   7.150   3.026 -1.0024 -1.4776 -0.3692
22961SOL    HW275742   4.881   7.186   2.886 -0.1320  1.1739  0.5213
22962SOL     OW75743   9.645  10.224   9.515  0.1995 -0.2105  0.1950
22962SOL    HW175744   9.659  10.131   9.495 -3.1441 -0.5693 -1.1047
22962SOL    HW275745   9.652  10.268   9.431  1.0646  0.6531  0.6992
22963SOL     OW75746  12.474   8.221   0.729 -0.3064 -0.1275  0.1280
22963SOL    HW175747  12.407   8.167   0.770  0.5122 -1.8212 -0.6682
22963SOL    HW275748  12.449   8.311   0.751 -1.9309 -0.7861  1.1705
22964SOL     OW75749  11.691   1.425   2.449 -0.7713 -0.2233  0.3100
22964SOL    HW175750  11.678   1.334   2.478  1.0793 -0.8594 -0.7064
22964SOL    HW275751  11.616   1.442   2.392 -1.4997 -0.8619  1.0431
22965SOL     OW75752   9.191   4.138   4.761  0.2067 -0.2502 -0.0922
22965SOL    HW175753   9.106   4.117   4.799 -1.0225 -1.2475 -3.0809
22965SOL    HW275754   9.178   4.223   4.719  1.0023  0.0584  0.2696
22966SOL     OW75755   3.517   0.839   3.966  0.1963 -0.3171 -0.0003
22966SOL    HW175756   3.516   0.816   3.873  0.7975  1.4530 -0.4811
22966SOL    HW275757   3.609   0.855   3.986  0.0336 -0.3314  0.8056
22967SOL     OW75758  10.695   8.226   8.250  0.2449 -0.1476 -0.0256
22967SOL    HW175759  10.617   8.281   8.242 -0.0270 -0.7010 -1.6802
22967SOL    HW275760  10.662   8.137   8.247  0.8133 -0.4107  1.1233
22968SOL     OW75761   9.604   8.488   1.486 -0.2386  0.3195 -0.0665
22968SOL    HW175762   9.614   8.434   1.564  0.3178  0.0823 -0.3003
22968SOL    HW275763   9.523   8.458   1.446 -0.8360  0.8329  0.7223
22969SOL     OW75764   7.091   0.358   0.739 -0.0609  0.8110 -0.0089
22969SOL    HW175765   7.064   0.360   0.831 -0.0407 -2.7561  0.2261
22969SOL    HW275766   7.183   0.329   0.742 -0.6108 -1.2417 -1.1038
22970SOL     OW75767   7.868   9.694   0.870  0.5953  0.0510  0.2116
22970SOL    HW175768   7.789   9.674   0.820  1.8393 -1.4227 -1.2759
22970SOL    HW275769   7.884   9.787   0.854 -0.1167  0.0540 -0.5170
22971SOL     OW75770   4.215   2.756  11.509  0.1479 -0.1952 -0.2327
22971SOL    HW175771   4.302   2.794  11.497  0.8402 -0.5949  2.7459
22971SOL    HW275772   4.214   2.680  11.450  1.5074  0.2662 -0.8962
22972SOL     OW75773  10.857   8.005   7.702 -0.2166 -0.0472 -0.4877
22972SOL    HW175774  10.859   7.991   7.607  2.4888  0.4659 -0.6168
22972SOL    HW275775  10.846   7.918   7.739 -3.1582 -0.0717 -1.2055
22973SOL     OW75776   4.511  11.994  11.907 -0.0235  0.2827 -0.1661
22973SOL    HW175777   4.434  12.051  11.902 -1.1181 -0.4897  3.9196
22973SOL    HW275778   4.547  12.012  11.994  0.5871 -3.9005  0.6287
22974SOL     OW75779   5.796   2.490   6.646  0.1956 -0.2325 -0.3180
22974SOL    HW175780   5.812   2.585   6.643  0.7652 -0.3508 -1.9253
22974SOL    HW275781   5.703   2.481   6.623  0.6741 -0.1509 -2.4856
22975SOL     OW75782   2.995  11.417   8.747 -0.0448 -0.0731  0.4019
22975SOL    HW175783   3.032  11.332   8.771 -2.0331 -1.3730 -0.7854
22975SOL    HW275784   2.912  11.395   8.703 -0.8214  2.5100  0.4183
22976SOL     OW75785  10.037   9.171  10.401  0.2814 -0.0064  0.2493
22976SOL    HW175786  10.005   9.167  10.311  0.2293  2.4811  0.0906
22976SOL    HW275787  10.088   9.252  10.405  1.0446 -0.5141  2.2451
22977SOL     OW75788   8.860   1.732  11.549 -0.1322 -0.5584  0.0754
22977SOL    HW175789   8.845   1.818  11.509 -0.9804 -1.3339 -1.3616
22977SOL    HW275790   8.953   1.716  11.537 -0.2317 -0.4431 -0.9927
22978SOL     OW75791   2.320   0.362   2.719  0.6446  0.7067  0.5720
22978SOL    HW175792   2.318   0.383   2.625 -0.0071  1.0668  0.6638
22978SOL    HW275793   2.411   0.334   2.735  0.4376 -0.6662 -0.4353
22979SOL     OW75794   6.095   7.948  10.389  0.1764  0.1087 -0.6511
22979SOL    HW175795   6.164   7.885  10.413  0.5477  0.7427 -0.0075
22979SOL    HW275796   6.017   7.916  10.434  0.3344  0.0360 -0.4264
22980SOL     OW75797   3.340   1.399   5.318 -0.2378  0.5808  0.3898
22980SOL    HW175798   3.341   1.482   5.269  0.0954 -0.3277 -1.2451
22980SOL    HW275799   3.433   1.381   5.334 -0.0074 -0.9545 -2.0586
22981SOL     OW75800   2.388   1.003  11.660  0.7655 -0.3776  0.1825
22981SOL    HW175801   2.412   1.015  11.752  0.3854 -0.0433  0.2449
22981SOL    HW275802   2.313   0.944  11.663  0.8839 -0.5316  0.0739
22982SOL     OW75803  10.346  11.492   9.502  0.3299 -0.5410  1.2678
22982SOL    HW175804  10.299  11.466   9.423  0.7886 -1.0910  1.1687
22982SOL    HW275805  10.358  11.411   9.551 -0.3056 -0.1402  2.1038
22983SOL     OW75806  12.076   5.513   8.660  0.4320  0.5316  0.4397
22983SOL    HW175807  12.138   5.583   8.676 -0.7449  1.6230  0.4232
22983SOL    HW275808  12.046   5.528   8.570 -2.4959  2.2778  1.5615
22984SOL     OW75809   5.254   2.524  12.374 -0.2616 -0.2774  0.0603
22984SOL    HW175810   5.326   2.581  12.402 -1.3736  1.6544 -0.8130
22984SOL    HW275811   5.215   2.493  12.456  1.7855 -1.7404  0.5549
22985SOL     OW75812  10.163  11.395   1.036 -0.4596  0.7370  0.3093
22985SOL    HW175813  10.110  11.335   1.089 -0.8610  0.0301 -0.8658
22985SOL    HW275814  10.235  11.420   1.094 -1.1735  0.4124  1.3735
22986SOL     OW75815   8.908   5.376   8.088 -0.2782  0.2229 -0.5948
22986SOL    HW175816   8.888   5.283   8.081 -3.2809  0.7318 -0.3657
22986SOL    HW275817   8.882   5.413   8.004 -0.9578  1.0798 -0.0370
22987SOL     OW75818   8.729   6.895  10.798  0.1626  0.0787 -0.1673
22987SOL    HW175819   8.729   6.899  10.893 -1.4412 -2.0175 -0.0119
22987SOL    HW275820   8.740   6.986  10.770 -0.2906  0.8535  2.0232
22988SOL     OW75821   6.504   2.240   4.215  0.1011 -0.3467  0.1609
22988SOL    HW175822   6.499   2.313   4.277  1.8195  0.8555 -1.0012
22988SOL    HW275823   6.452   2.269   4.140 -0.6773 -1.1200  0.3857
22989SOL     OW75824   3.518  10.012   6.325  0.1702 -0.1285 -0.5061
22989SOL    HW175825   3.530   9.917   6.328 -3.5229 -0.7384 -1.1459
22989SOL    HW275826   3.508  10.032   6.232 -0.8322  0.5932 -0.2535
22990SOL     OW75827   4.268   3.466  11.088  0.7614  0.4218 -0.1916
22990SOL    HW175828   4.324   3.488  11.162  0.1023  1.9162 -0.1226
22990SOL    HW275829   4.293   3.527  11.019 -0.4055  0.7563 -0.3405
22991SOL     OW75830   7.646  11.066   6.188 -0.4344 -0.7270  0.4364
22991SOL    HW175831   7.700  11.007   6.135  1.5791  0.9383  0.4880
22991SOL    HW275832   7.570  11.084   6.133 -0.7759 -2.7921  0.1549
22992SOL     OW75833   6.110   6.081   2.002  0.2067  0.0576  0.4587
22992SOL    HW175834   6.129   5.989   1.986  1.2705  0.3139  0.1737
22992SOL    HW275835   6.166   6.129   1.940 -1.7481  0.8729 -0.7941
22993SOL     OW75836  10.688   2.195  11.088  0.5467 -0.2758 -0.4392
22993SOL    HW175837  10.629   2.215  11.161 -1.6611  0.7134 -2.3552
22993SOL    HW275838  10.773   2.231  11.115 -0.7196  2.0793  0.7669
22994SOL     OW75839   5.237  10.432   5.659 -0.0235  0.0534 -0.0163
22994SOL    HW175840   5.321  10.473   5.640 -0.1511  0.0839 -0.5080
22994SOL    HW275841   5.250  10.390   5.744  0.9305 -1.1105 -0.7008
22995SOL     OW75842   3.911   2.056   9.650 -0.6501 -0.0020  0.6447
22995SOL    HW175843   3.980   2.009   9.603 -1.5843 -0.8496  0.0733
22995SOL    HW275844   3.848   2.081   9.582  0.7154  3.9457  0.5430
22996SOL     OW75845   7.040   7.447   8.182 -0.2926  0.4898 -0.2876
22996SOL    HW175846   6.953   7.432   8.146  0.0389 -0.3317 -0.7773
22996SOL    HW275847   7.078   7.514   8.124 -0.3949  0.4539 -0.3964
22997SOL     OW75848   1.226   6.959   7.861  0.3388 -0.0224 -0.3923
22997SOL    HW175849   1.289   6.976   7.791  0.0919  1.9531 -0.1930
22997SOL    HW275850   1.281   6.940   7.937  0.7736  1.9315 -0.1568
22998SOL     OW75851   6.767   1.631   3.419 -0.0129  0.2145 -0.4253
22998SOL    HW175852   6.800   1.613   3.507 -1.7142  0.3891  0.2841
22998SOL    HW275853   6.829   1.695   3.383  0.6273  0.2506  0.6836
22999SOL     OW75854   0.347  10.779  11.140 -0.1317  0.1780  0.5441
22999SOL    HW175855   0.347  10.813  11.051 -0.0856 -1.2125 -0.0100
22999SOL    HW275856   0.314  10.690  11.132  2.6279 -1.0295  1.4878
23000SOL     OW75857   3.884   4.071   3.595 -0.2866 -0.2708  1.0033
23000SOL    HW175858   3.919   4.160   3.586  1.2052 -0.9897 -1.7921
23000SOL    HW275859   3.960   4.019   3.621 -0.1523 -1.2342 -1.0991
23001SOL     OW75860   0.081   4.820  10.277 -0.0378 -0.4922 -0.1687
23001SOL    HW175861   0.008   4.822  10.339 -1.0173  0.7192 -1.2827
23001SOL    HW275862   0.143   4.759  10.315 -1.8149 -1.9077  0.6246
23002SOL     OW75863  12.082   1.924  11.536  0.0741 -0.5667 -0.3734
23002SOL    HW175864  12.151   1.938  11.600 -0.5705  0.8130  0.0730
23002SOL    HW275865  12.125   1.933  11.451  0.5720 -0.3569 -0.1003
23003SOL     OW75866   2.892   2.377   4.367 -0.0499 -0.4731 -0.2678
23003SOL    HW175867   2.933   2.438   4.428 -1.4928 -1.2837  1.6185
23003SOL    HW275868   2.964   2.323   4.335  0.8677  0.5488 -0.0004
23004SOL     OW75869  12.046   2.090   7.965 -0.5825 -0.4113 -0.6148
23004SOL    HW175870  12.003   2.097   7.880 -1.5428  0.2823 -0.0930
23004SOL    HW275871  12.083   2.176   7.981 -1.0624 -0.3107 -0.0029
23005SOL     OW75872   8.198   7.252  11.572 -0.3947  0.3933 -0.1015
23005SOL    HW175873   8.136   7.320  11.547 -0.6947  0.0857 -0.2033
23005SOL    HW275874   8.226   7.214  11.489  0.1647  0.7342 -0.0743
23006SOL     OW75875   0.347   2.273   0.360 -0.3923 -0.3314  0.2046
23006SOL    HW175876   0.275   2.273   0.297 -0.8392 -0.1844  0.7063
23006SOL    HW275877   0.311   2.319   0.437 -0.1127 -1.1799  0.8519
23007SOL     OW75878   5.365   5.471   8.350 -0.2327  0.5455  0.2688
23007SOL    HW175879   5.438   5.448   8.293  0.3804 -0.7098  1.5163
23007SOL    HW275880   5.335   5.556   8.317 -0.1190 -0.2687 -2.1080
23008SOL     OW75881   8.534   2.991   6.238  0.1141  0.1568  0.2883
23008SOL    HW175882   8.452   3.033   6.213  0.2760 -0.0211 -0.6018
23008SOL    HW275883   8.590   3.002   6.162  0.9463  0.3441  0.9227
23009SOL     OW75884   1.179   2.925   7.586 -0.2828  0.4851  0.0084
23009SOL    HW175885   1.105   2.984   7.571  0.5550  1.4271 -0.4875
23009SOL    HW275886   1.199   2.935   7.679 -1.4076 -0.5470  0.3895
23010SOL     OW75887  10.713   2.103   7.855  0.2916  0.1374 -0.2124
23010SOL    HW175888  10.648   2.171   7.838  1.2548  1.6167  1.6010
23010SOL    HW275889  10.784   2.149   7.899  1.5909 -1.8279 -0.1508
23011SOL     OW75890   4.333   0.721   8.442 -0.0775  0.0353 -0.0544
23011SOL    HW175891   4.429   0.722   8.450  0.0480 -2.8657 -0.0807
23011SOL    HW275892   4.317   0.671   8.362 -1.5922 -1.2062  0.9748
23012SOL     OW75893   0.020   4.125  10.519 -0.4927  0.0053 -0.4513
23012SOL    HW175894  -0.057   4.172  10.550 -0.0152  1.5789 -1.5055
23012SOL    HW275895  -0.008   4.085  10.437 -0.3393  0.1259 -0.5620
23013SOL     OW75896   3.599   5.660  11.789 -0.3159  0.0621  0.1995
23013SOL    HW175897   3.525   5.641  11.847  0.3930 -0.9024  0.7962
23013SOL    HW275898   3.669   5.603  11.819  0.8737  1.3843  0.0038
23014SOL     OW75899   6.913   3.021   9.337 -0.5412 -0.1082 -0.2104
23014SOL    HW175900   6.892   3.106   9.376  1.0897  0.0905  0.3146
23014SOL    HW275901   6.995   3.036   9.291  0.3898 -1.6719  0.8799
23015SOL     OW75902   0.279   9.050   0.928 -0.3846  0.0109 -0.3206
23015SOL    HW175903   0.259   9.043   0.835  0.2632 -1.0534 -0.3963
23015SOL    HW275904   0.328   9.132   0.937  0.3814 -0.3519 -1.0801
23016SOL     OW75905   1.910   9.700   2.675  0.1523 -0.1395  0.4921
23016SOL    HW175906   1.961   9.780   2.685 -0.8934  0.6622 -0.3820
23016SOL    HW275907   1.833   9.727   2.624 -0.7195 -1.4852  1.0612
23017SOL     OW75908   4.521   1.592   3.266 -0.7762 -0.0366 -0.1488
23017SOL    HW175909   4.435   1.551   3.263 -1.1679  0.5009  2.1164
23017SOL    HW275910   4.534   1.616   3.357  0.8626  1.8767 -0.7924
23018SOL     OW75911   1.277   8.435  10.285 -0.1578  0.0760 -0.0721
23018SOL    HW175912   1.372   8.429  10.275 -0.3710 -0.8956 -2.1440
23018SOL    HW275913   1.253   8.513  10.236 -0.4422  0.3427  0.4862
23019SOL     OW75914   9.941   6.369   1.190  0.6620 -0.2705  0.6331
23019SOL    HW175915  10.025   6.328   1.171  0.2947  0.2875 -2.7288
23019SOL    HW275916   9.876   6.308   1.156 -0.0493  1.1920 -0.7545
23020SOL     OW75917   4.382   9.931   2.315 -0.1232  0.1137  0.3653
23020SOL    HW175918   4.461   9.922   2.369  0.2118 -0.4108 -0.1929
23020SOL    HW275919   4.348  10.017   2.337  0.5992  0.3421  0.6360
23021SOL     OW75920  11.391   2.752  12.313 -0.4090  0.8161 -0.3512
23021SOL    HW175921  11.445   2.825  12.342 -0.5462  0.1881  1.6372
23021SOL    HW275922  11.319   2.748  12.376  0.9443 -2.5538  1.2487
23022SOL     OW75923   9.149   6.709   9.532 -0.0548 -0.3387  0.2572
23022SOL    HW175924   9.140   6.714   9.437  0.9632  2.5108  0.2327
23022SOL    HW275925   9.239   6.679   9.545  0.2915  0.6648  0.2733
23023SOL     OW75926   0.508   4.574   3.406  0.0476 -0.2368 -0.4567
23023SOL    HW175927   0.459   4.549   3.328  1.1131 -0.8959 -0.9413
23023SOL    HW275928   0.498   4.669   3.412 -0.5668 -0.2622 -1.0289
23024SOL     OW75929   3.963   8.372   6.785 -0.2587 -0.3433 -0.4945
23024SOL    HW175930   3.969   8.301   6.850 -0.3337 -1.1974 -1.3994
23024SOL    HW275931   4.011   8.445   6.825 -0.9599 -0.5856  0.8534
23025SOL     OW75932   0.039  12.403   4.242 -0.3025  0.1454 -0.0174
23025SOL    HW175933   0.053  12.479   4.185 -0.3066  0.6799  0.6714
23025SOL    HW275934  -0.033  12.356   4.202  0.0438  0.2169 -0.7461
23026SOL     OW75935   6.645   9.529  11.669 -0.3129  0.4149 -0.7000
23026SOL    HW175936   6.598   9.566  11.594  0.5081 -0.0753 -1.4748
23026SOL    HW275937   6.704   9.464  11.630  3.1563  2.9955 -0.1764
23027SOL     OW75938   4.316   0.846   4.056 -0.0857 -0.0709  0.0146
23027SOL    HW175939   4.267   0.791   3.995 -1.7822 -0.2026  1.4266
23027SOL    HW275940   4.286   0.819   4.143  2.8699 -0.4786  1.0177
23028SOL     OW75941  12.474   6.959   6.197 -0.0475  0.3513 -0.3189
23028SOL    HW175942  12.529   6.896   6.244 -0.0577  1.0329  0.6321
23028SOL    HW275943  12.408   6.905   6.153  0.1363 -0.3255  0.2212
23029SOL     OW75944   9.223   3.509   2.955  0.0336 -0.0330 -1.3282
23029SOL    HW175945   9.141   3.516   3.004 -0.2211 -0.0264 -1.7519
23029SOL    HW275946   9.246   3.416   2.959 -0.2851 -0.1280 -1.6761
23030SOL     OW75947   2.859   8.037   5.620  0.2039  0.2786 -0.3860
23030SOL    HW175948   2.881   8.062   5.710 -2.0336  0.0174  0.2961
23030SOL    HW275949   2.801   7.961   5.629  0.3806 -0.1041 -2.0854
23031SOL     OW75950   9.261   8.963   7.972 -0.1614 -0.3330 -0.1257
23031SOL    HW175951   9.310   8.984   8.052  0.5413  0.6977 -0.8131
23031SOL    HW275952   9.247   8.868   7.978 -0.6153 -0.2052  1.4855
23032SOL     OW75953   7.055   3.744  12.230  0.1059  0.0504  0.1857
23032SOL    HW175954   7.069   3.731  12.136  0.3795 -0.7473  0.3355
23032SOL    HW275955   7.107   3.676  12.272  0.0552  0.4593  0.9246
23033SOL     OW75956   7.987   8.882  12.425 -0.3139  0.7380  0.1578
23033SOL    HW175957   8.026   8.969  12.414  1.0610  0.4665  2.3588
23033SOL    HW275958   8.059   8.827  12.456 -1.1215 -1.2631 -1.3134
23034SOL     OW75959   7.155   2.106   1.246 -0.6189 -0.6052  0.0753
23034SOL    HW175960   7.137   2.151   1.163  0.3026 -2.5604 -1.2637
23034SOL    HW275961   7.250   2.098   1.249 -0.5637  0.3033  1.8533
23035SOL     OW75962   8.305   1.541   3.309 -0.6900  0.2939  0.4834
23035SOL    HW175963   8.342   1.476   3.368 -2.1641 -0.5274  0.5554
23035SOL    HW275964   8.377   1.600   3.290  0.3053 -0.5207  1.5864
23036SOL     OW75965   4.438   0.300   3.730 -0.0924  0.0822 -0.5335
23036SOL    HW175966   4.513   0.293   3.789 -0.7900 -2.6981  0.1778
23036SOL    HW275967   4.366   0.330   3.786 -0.1657 -0.0977 -0.5287
23037SOL     OW75968   8.616   7.070   0.985 -0.2182  0.6082 -0.1826
23037SOL    HW175969   8.673   7.139   1.020 -0.2433  1.0952 -1.0885
23037SOL    HW275970   8.529   7.111   0.981 -0.5453  0.0399  0.6774
23038SOL     OW75971  10.428   1.727   1.242  0.7910 -0.1058  0.0753
23038SOL    HW175972  10.424   1.650   1.184 -0.4175 -0.2096  0.2629
23038SOL    HW275973  10.517   1.761   1.231  1.3745 -1.5734  0.0492
23039SOL     OW75974   5.731   6.350   6.532 -0.3761  0.1086 -0.1441
23039SOL    HW175975   5.640   6.355   6.504 -0.9006  0.2546  1.4792
23039SOL    HW275976   5.768   6.435   6.509 -0.8752  0.3461 -0.0777
23040SOL     OW75977   2.410   2.709   8.771 -0.3133  0.1107 -0.1581
23040SOL    HW175978   2.362   2.669   8.844  1.1240 -3.5400 -0.9727
23040SOL    HW275979   2.356   2.689   8.694 -0.2375  1.0387 -0.4580
23041SOL     OW75980  10.852   4.507  10.526  0.3682  0.6751 -0.4451
23041SOL    HW175981  10.843   4.458  10.444  1.2466  0.2639 -0.3083
23041SOL    HW275982  10.762   4.516  10.558  0.2181 -1.8001  0.0623
23042SOL     OW75983   6.078   2.272  11.699  0.4117 -0.6287  0.1172
23042SOL    HW175984   6.138   2.207  11.734  0.2709 -0.0144  1.5935
23042SOL    HW275985   6.125   2.312  11.627  0.7550 -1.8914 -0.3931
23043SOL     OW75986   2.355   1.683   5.214  0.0449  0.1315 -0.3741
23043SOL    HW175987   2.321   1.600   5.246  0.5383 -0.4994 -1.4076
23043SOL    HW275988   2.447   1.684   5.241  0.1501  0.1374 -0.7139
23044SOL     OW75989  10.428   2.928   9.619 -0.3418 -0.3778 -0.6073
23044SOL    HW175990  10.409   2.962   9.707 -0.1752 -0.9375 -0.3506
23044SOL    HW275991  10.490   2.857   9.634 -2.2785 -2.2197 -0.9159
23045SOL     OW75992   0.081   1.817   3.154 -0.6008  0.6401  0.4887
23045SOL    HW175993   0.096   1.812   3.060 -1.4772  0.9779  0.3177
23045SOL    HW275994   0.016   1.887   3.164 -1.1032  0.0812  1.2698
23046SOL     OW75995  10.846   9.652   1.384  0.3621  0.1615 -0.2246
23046SOL    HW175996  10.933   9.617   1.366  0.6277 -0.0283  1.3447
23046SOL    HW275997  10.859   9.717   1.453 -0.9205 -1.0566  1.2474
23047SOL     OW75998   9.878   0.125   4.012  0.0771  0.3296  0.0602
23047SOL    HW175999   9.875   0.074   4.092 -1.1313  0.0768 -0.1363
23047SOL    HW276000   9.971   0.125   3.987  0.5268  0.6828  1.6036
23048SOL     OW76001   6.191   6.204  12.012 -0.0482  0.1022  0.1311
23048SOL    HW176002   6.285   6.214  12.000  0.1629  0.5836  1.8912
23048SOL    HW276003   6.180   6.111  12.034  0.1620  0.2456  0.8882
23049SOL     OW76004   2.159   2.054   4.471 -0.0285 -0.3381  0.1003
23049SOL    HW176005   2.068   2.050   4.439  0.6644  1.3893 -2.3878
23049SOL    HW276006   2.154   2.022   4.561 -3.2899  0.7490  0.4427
23050SOL     OW76007  11.713   2.612   3.137 -0.5564  0.2433 -0.0966
23050SOL    HW176008  11.628   2.572   3.155 -0.1846 -0.9013 -0.8082
23050SOL    HW276009  11.709   2.698   3.180 -1.0001 -0.9528  2.4321
23051SOL     OW76010  10.051  10.317   9.024 -0.0776  0.5383  0.2541
23051SOL    HW176011  10.008  10.402   9.014  0.0862  0.5984  0.0547
23051SOL    HW276012  10.138  10.339   9.058 -0.2460  0.4080  0.7771
23052SOL     OW76013  11.048   8.071   6.901  0.2594 -0.0140 -0.3980
23052SOL    HW176014  11.079   8.104   6.817  0.8770  1.8418  0.5057
23052SOL    HW276015  10.960   8.037   6.883 -0.4125  2.1146 -1.4390
23053SOL     OW76016   0.927   9.151  11.833  0.1738 -0.5381 -0.8037
23053SOL    HW176017   0.967   9.089  11.893 -0.3742  1.9621  2.4392
23053SOL    HW276018   0.997   9.178  11.774  2.0932  0.1640  1.6397
23054SOL     OW76019   1.144   0.951   9.846 -1.1715 -0.0338  0.0591
23054SOL    HW176020   1.108   1.023   9.898  1.0580 -0.5480  2.5182
23054SOL    HW276021   1.113   0.968   9.757  0.2275  4.7564  0.2093
23055SOL     OW76022   3.471   8.241   8.369 -0.3708  0.1126  0.0775
23055SOL    HW176023   3.447   8.165   8.423  1.2011  1.3195  2.6850
23055SOL    HW276024   3.489   8.205   8.283 -1.4385 -2.1846  0.7332
23056SOL     OW76025   3.129  10.624   5.675 -0.2039  0.0442 -0.1476
23056SOL    HW176026   3.081  10.666   5.747 -1.2773 -0.2059 -0.7015
23056SOL    HW276027   3.066  10.619   5.603  0.3510 -1.1505 -0.5871
23057SOL     OW76028  11.989   4.826   6.686  0.1564 -0.4373  0.0033
23057SOL    HW176029  12.014   4.892   6.751  0.2395 -0.3572 -0.1112
23057SOL    HW276030  12.059   4.827   6.622 -1.1889  1.4198 -1.5492
23058SOL     OW76031   6.461   2.977   1.177  0.5585  0.6984  0.1673
23058SOL    HW176032   6.545   2.938   1.155 -0.3474 -0.1517 -2.1142
23058SOL    HW276033   6.458   2.976   1.273  1.7315 -2.4439  0.2911
23059SOL     OW76034  10.460  12.428  11.541  0.0462  0.4645 -0.2450
23059SOL    HW176035  10.402  12.393  11.473  0.5670 -1.1461  0.0970
23059SOL    HW276036  10.523  12.357  11.558 -0.3436  0.6223  2.2204
23060SOL     OW76037   9.700  11.388   0.816 -0.3197  0.2578  0.2135
23060SOL    HW176038   9.648  11.342   0.882 -0.0493 -0.4424 -0.0524
23060SOL    HW276039   9.656  11.370   0.733 -0.3844  0.7368  0.1415
23061SOL     OW76040  10.839   7.394  11.850 -0.2445 -0.1500 -0.2220
23061SOL    HW176041  10.903   7.347  11.796 -0.4392 -1.0546  0.3113
23061SOL    HW276042  10.765   7.409  11.791  0.4241  0.8572 -0.8269
23062SOL     OW76043   1.996   3.527   9.945 -0.1724  0.2673 -0.0792
23062SOL    HW176044   1.938   3.575  10.003  0.1740  0.1883  0.3372
23062SOL    HW276045   2.016   3.446   9.992 -1.2796 -0.6152 -1.0497
23063SOL     OW76046   4.877   3.926   4.210 -0.0952  0.7656 -0.0163
23063SOL    HW176047   4.939   3.970   4.268  0.1009 -0.0993  0.4354
23063SOL    HW276048   4.830   3.998   4.167  2.0633  1.4653 -1.3297
23064SOL     OW76049   3.868   0.351   3.441 -0.0736  0.2301 -0.1983
23064SOL    HW176050   3.878   0.439   3.404 -1.5469  0.5851  0.1636
23064SOL    HW276051   3.876   0.293   3.365  0.3721  0.7155 -0.5325
23065SOL     OW76052   9.091   9.242   2.804  0.2282 -0.3851  0.4319
23065SOL    HW176053   9.079   9.300   2.880 -0.2059 -0.8597  0.7329
23065SOL    HW276054   9.035   9.279   2.736  0.2467 -0.2372  0.4972
23066SOL     OW76055   8.950   6.676   0.081 -0.1783 -0.3790  0.0250
23066SOL    HW176056   8.900   6.641   0.154  2.5388 -3.5824  0.6087
23066SOL    HW276057   8.969   6.600   0.026  0.3029  1.4381 -2.5282
23067SOL     OW76058   7.686  12.129   6.488 -0.1322  0.0771 -0.0765
23067SOL    HW176059   7.747  12.081   6.432 -0.5487  0.3520 -0.7965
23067SOL    HW276060   7.715  12.220   6.483 -0.5428  0.2005 -0.3749
23068SOL     OW76061   9.585   9.330   2.280 -0.4457 -0.6277 -0.0415
23068SOL    HW176062   9.498   9.308   2.247  0.0365 -0.4777 -1.4676
23068SOL    HW276063   9.640   9.336   2.202  0.3547  1.5921  0.6120
23069SOL     OW76064  10.265   8.222   4.245 -0.1846 -0.4305  0.2806
23069SOL    HW176065  10.273   8.318   4.239 -0.6020 -0.2776  1.8456
23069SOL    HW276066  10.185   8.208   4.295  0.2881 -1.5975  0.7320
23070SOL     OW76067   0.095   7.589   6.983 -0.6106 -0.3434 -0.3923
23070SOL    HW176068   0.024   7.577   7.047  0.9264  1.4609  1.8247
23070SOL    HW276069   0.156   7.518   7.002 -0.0977  0.2603  0.2928
23071SOL     OW76070   4.685   5.681   8.527  0.7451 -0.2056  0.8386
23071SOL    HW176071   4.670   5.706   8.435 -0.0155 -1.7826  0.4999
23071SOL    HW276072   4.664   5.587   8.530  2.4614 -0.5920  2.2556
23072SOL     OW76073   1.486  10.181   2.355  0.0766  0.0720  0.3477
23072SOL    HW176074   1.441  10.164   2.272  0.9468 -1.5719  0.1646
23072SOL    HW276075   1.415  10.201   2.417 -0.7206 -0.2885 -0.4311
23073SOL     OW76076   9.127   2.133   6.881 -0.5636  0.7132  0.1939
23073SOL    HW176077   9.126   2.039   6.863  1.6609  0.2107  2.1550
23073SOL    HW276078   9.048   2.148   6.934 -2.0884  0.4392 -1.9032
23074SOL     OW76079   4.075   4.858   3.714 -0.2884  0.6347 -0.2042
23074SOL    HW176080   4.094   4.767   3.736  1.4755  1.6152  2.9672
23074SOL    HW276081   4.130   4.876   3.638  0.8450 -0.4350  0.3330
23075SOL     OW76082   2.325  11.935   3.811  0.2088 -0.1352 -0.1483
23075SOL    HW176083   2.353  11.875   3.741 -0.8807 -0.3282 -0.4258
23075SOL    HW276084   2.375  12.015   3.794  0.3967 -0.3817 -0.7991
23076SOL     OW76085   1.776   1.464  11.378 -0.6206 -0.5951  0.4943
23076SOL    HW176086   1.869   1.441  11.373 -0.5397 -1.1006  2.9157
23076SOL    HW276087   1.775   1.558  11.393 -0.6075 -0.2771 -1.3490
23077SOL     OW76088   8.442  12.522   8.226 -0.0920  0.0433 -0.2735
23077SOL    HW176089   8.472  12.510   8.136  1.7798  0.7091  0.2256
23077SOL    HW276090   8.370  12.585   8.220  1.4269  1.7606 -1.1161
23078SOL     OW76091   7.094   1.321   0.574 -0.0503  0.0296 -0.1171
23078SOL    HW176092   7.003   1.346   0.559 -0.3035 -0.8887 -0.2077
23078SOL    HW276093   7.139   1.402   0.598 -1.1014  0.3299  0.8924
23079SOL     OW76094   9.376   9.362   0.109 -0.5616 -0.3414 -0.1911
23079SOL    HW176095   9.461   9.381   0.069 -0.8829 -0.6611 -1.0449
23079SOL    HW276096   9.398   9.319   0.192  0.1296  1.4735  0.6125
23080SOL     OW76097   6.457   0.159   4.471  0.8482 -0.2879  0.2342
23080SOL    HW176098   6.440   0.068   4.496 -0.4759 -0.4665 -1.1821
23080SOL    HW276099   6.545   0.177   4.506  0.1060 -1.2221  2.8821
23081SOL     OW76100   4.285   9.885   1.325  0.2466 -0.0163 -0.1878
23081SOL    HW176101   4.272   9.929   1.241 -0.8490  0.9497  0.4556
23081SOL    HW276102   4.250   9.947   1.390  2.1601 -0.1950  1.1066
23082SOL     OW76103  10.735   3.277   1.043 -0.3538  0.2449 -0.1426
23082SOL    HW176104  10.641   3.291   1.039 -0.4056  1.2359  2.5856
23082SOL    HW276105  10.746   3.182   1.045 -1.1671  0.0913 -1.8238
23083SOL     OW76106   4.850   0.330   1.198  0.2847  0.1428  0.2343
23083SOL    HW176107   4.827   0.365   1.284  0.4889 -1.3365  0.9067
23083SOL    HW276108   4.932   0.375   1.175  1.4649 -1.0896  1.8548
23084SOL     OW76109   5.306  11.564   4.543  0.0815 -0.2537  0.2069
23084SOL    HW176110   5.334  11.509   4.617 -0.8587 -0.0405  0.7286
23084SOL    HW276111   5.277  11.645   4.584  0.5144  0.2554 -0.4855
23085SOL     OW76112   6.607   5.242  11.813  0.8676 -0.0989 -0.5567
23085SOL    HW176113   6.632   5.199  11.895  0.4145  0.0638 -0.3289
23085SOL    HW276114   6.642   5.331  11.822  0.1228  0.1652 -0.1871
23086SOL     OW76115   8.011   1.839   3.088  0.3456 -0.4283 -0.3831
23086SOL    HW176116   7.982   1.752   3.116 -0.7716  0.4054  1.2244
23086SOL    HW276117   8.017   1.889   3.169 -1.1235  1.5838 -1.4468
23087SOL     OW76118   8.833   0.746  11.726  0.6341  0.0764  0.6953
23087SOL    HW176119   8.747   0.703  11.729  0.8012 -0.2225  1.4451
23087SOL    HW276120   8.839   0.793  11.809  0.9884  0.5042  0.4290
23088SOL     OW76121   5.533   5.871   2.066 -0.2583  0.2972  0.3070
23088SOL    HW176122   5.445   5.894   2.036 -0.5378 -0.6756  0.3520
23088SOL    HW276123   5.540   5.777   2.051  0.5792  0.2698  0.8045
23089SOL     OW76124   9.093   9.676  10.243  0.0501  0.0302 -0.2691
23089SOL    HW176125   9.079   9.608  10.308  0.7337  0.0855 -0.0615
23089SOL    HW276126   9.136   9.632  10.170  1.1852  0.3677  0.1707
23090SOL     OW76127   6.186  11.979   8.165  0.1058  0.1408  0.1133
23090SOL    HW176128   6.101  11.958   8.205 -0.2047  0.2592 -0.4797
23090SOL    HW276129   6.246  11.917   8.205  0.1386  1.2982  1.9910
23091SOL     OW76130   3.126   4.480  11.691  0.2408 -0.0996  0.1043
23091SOL    HW176131   3.102   4.455  11.601 -1.3254 -1.4129  0.8319
23091SOL    HW276132   3.105   4.573  11.697 -0.1786 -0.1303 -0.7239
23092SOL     OW76133   7.988   6.630   2.099  0.5349 -0.1307  0.0222
23092SOL    HW176134   7.900   6.628   2.138  0.8690  3.0793  1.2483
23092SOL    HW276135   7.972   6.653   2.007  0.0422 -1.1269 -0.1542
23093SOL     OW76136  11.376   2.670   9.813 -0.1680 -0.1591  0.3395
23093SOL    HW176137  11.449   2.731   9.810  1.1022 -1.5507  1.3105
23093SOL    HW276138  11.301   2.720   9.782  1.4175  0.9845 -1.9296
23094SOL     OW76139   8.891   3.187   9.686  0.0974  0.1268 -0.4323
23094SOL    HW176140   8.910   3.095   9.707 -0.1734  0.0411 -0.5617
23094SOL    HW276141   8.970   3.234   9.713 -0.1355 -0.0141  0.5357
23095SOL     OW76142   4.401   9.383  10.662 -0.0939 -0.0833 -0.4600
23095SOL    HW176143   4.477   9.375  10.719 -0.6799 -0.4794  0.2830
23095SOL    HW276144   4.388   9.478  10.653 -0.9232  0.0323  1.3800
23096SOL     OW76145   0.511   2.000   5.135  0.5936  0.3156 -0.2498
23096SOL    HW176146   0.432   2.053   5.127 -0.1834 -0.8708 -0.7011
23096SOL    HW276147   0.485   1.913   5.105  1.7278 -0.4210  0.7848
23097SOL     OW76148   6.178   5.339   4.534  0.3123 -0.1769  0.2029
23097SOL    HW176149   6.200   5.380   4.618 -0.2203  0.2350  0.1465
23097SOL    HW276150   6.216   5.251   4.540  2.5636  0.6815 -0.1543
23098SOL     OW76151   7.178   5.563  10.483  0.2976 -0.2076 -0.7803
23098SOL    HW176152   7.126   5.644  10.486 -0.2903 -0.5680 -1.0434
23098SOL    HW276153   7.180   5.539  10.390 -0.1760 -0.9017 -0.6194
23099SOL     OW76154   1.339   7.713  10.760 -0.2633  0.2793  0.4202
23099SOL    HW176155   1.304   7.793  10.720 -0.3922  0.4074  0.7888
23099SOL    HW276156   1.311   7.643  10.700 -0.3215  0.4859  0.2023
23100SOL     OW76157   5.911   3.259   9.982 -0.3609 -0.4500  0.1645
23100SOL    HW176158   5.987   3.242  10.037  0.9103 -1.2133 -1.7233
23100SOL    HW276159   5.899   3.354   9.985  0.8186 -0.3006  0.3136
23101SOL     OW76160   4.568   1.070   7.890 -0.0193  0.0972 -0.6828
23101SOL    HW176161   4.657   1.099   7.868  0.0293 -0.2686 -0.9747
23101SOL    HW276162   4.529   1.145   7.936  0.2470  0.4683 -1.0547
23102SOL     OW76163   6.995  10.867   9.864 -0.3442 -0.0806 -0.0040
23102SOL    HW176164   6.925  10.902   9.809 -2.0685 -2.0088  0.8417
23102SOL    HW276165   7.067  10.849   9.803 -0.9365  0.9946 -1.0568
23103SOL     OW76166  10.743  10.863   1.101  0.4324 -0.6281  0.8458
23103SOL    HW176167  10.776  10.858   1.011 -0.9122 -0.7721  0.3466
23103SOL    HW276168  10.655  10.826   1.097  0.7347 -1.6163  2.4386
23104SOL     OW76169   1.470   4.851   0.734 -0.4851 -0.1306  0.1343
23104SOL    HW176170   1.547   4.873   0.682  1.9840  2.0898  4.1669
23104SOL    HW276171   1.408   4.921   0.716  0.3478  0.6452  0.1806
23105SOL     OW76172   8.235   4.094  11.766 -0.0145  0.1301  0.5142
23105SOL    HW176173   8.286   4.168  11.733 -0.5944 -0.1583 -1.1299
23105SOL    HW276174   8.167   4.133  11.820  0.6446  0.6673  0.9719
23106SOL     OW76175   6.398   0.108  11.873 -0.2540 -0.6196 -0.0561
23106SOL    HW176176   6.356   0.087  11.956  2.0417 -1.7567  0.9295
23106SOL    HW276177   6.342   0.069  11.806 -1.2531 -1.1918  1.0909
23107SOL     OW76178  11.937  10.513   2.104  0.0443 -0.1044 -0.7451
23107SOL    HW176179  12.008  10.557   2.057  0.0664 -0.7152 -1.2919
23107SOL    HW276180  11.959  10.525   2.196  1.0641 -0.6095 -0.9070
23108SOL     OW76181   1.551   4.218   0.991 -0.1062  0.0663 -0.0651
23108SOL    HW176182   1.580   4.133   1.025 -0.9026 -0.4960 -0.7487
23108SOL    HW276183   1.631   4.259   0.959  1.0322  1.4066  3.9596
23109SOL     OW76184   0.562   7.498   0.137  0.1901  0.4417 -0.0132
23109SOL    HW176185   0.552   7.402   0.139 -0.0732  0.4655 -0.1486
23109SOL    HW276186   0.655   7.512   0.154  0.1406  0.1804  0.4983
23110SOL     OW76187   7.948  10.018   0.941 -0.5808  0.0692  0.3281
23110SOL    HW176188   7.976  10.018   0.849 -0.3891 -1.2707  0.3681
23110SOL    HW276189   7.853  10.016   0.937 -0.5765  0.1062  0.1716
23111SOL     OW76190   9.559   5.378   9.629  0.3363 -0.6706  0.5257
23111SOL    HW176191   9.557   5.292   9.672 -0.4909 -1.3809 -0.8431
23111SOL    HW276192   9.610   5.363   9.549  0.8531  0.3228  0.6549
23112SOL     OW76193  11.260   0.626   0.348 -0.1808 -0.2786  0.3755
23112SOL    HW176194  11.267   0.662   0.260  2.0030  1.7280  1.2956
23112SOL    HW276195  11.318   0.679   0.401 -0.3502 -2.3215  2.7888
23113SOL     OW76196  11.554   3.076   5.234 -0.1830  0.2783 -0.1376
23113SOL    HW176197  11.494   3.025   5.181 -1.5297  1.0471  0.6031
23113SOL    HW276198  11.634   3.023   5.239 -0.8891 -0.8805 -0.9008
23114SOL     OW76199   4.281   1.045  10.093  0.2126  0.7088 -0.5979
23114SOL    HW176200   4.231   1.126  10.105 -0.4970  0.3136 -0.8637
23114SOL    HW276201   4.261   1.018  10.004 -2.8422 -1.9570  0.7272
23115SOL     OW76202   9.922   1.330   3.363 -0.6487  0.1369 -0.2696
23115SOL    HW176203   9.972   1.371   3.292 -0.4447 -0.9701 -0.7785
23115SOL    HW276204   9.832   1.325   3.330 -0.0985 -2.8667 -1.6557
23116SOL     OW76205   4.553   8.862   6.303  0.2751  0.0713 -0.2429
23116SOL    HW176206   4.467   8.904   6.307 -0.3043 -0.7923 -2.3733
23116SOL    HW276207   4.586   8.884   6.216  1.3839 -1.1689 -0.1590
23117SOL     OW76208   1.915   1.371   6.522  0.0324  0.5721  0.0841
23117SOL    HW176209   1.864   1.447   6.551  0.9929  1.2644  0.0101
23117SOL    HW276210   1.896   1.364   6.429  0.7396  1.3704 -0.1286
23118SOL     OW76211   9.911   2.798   3.008  0.1876  0.0029  0.3395
23118SOL    HW176212   9.873   2.830   3.089  0.1587  1.5033 -0.2342
23118SOL    HW276213   9.944   2.877   2.963  0.0613 -0.7552 -1.1691
23119SOL     OW76214   8.767  12.064  11.590 -0.6819  0.0068  0.2586
23119SOL    HW176215   8.814  12.031  11.666 -0.0426  0.5608  0.1217
23119SOL    HW276216   8.780  12.159  11.593 -2.5877  0.2918  0.7329
23120SOL     OW76217  10.265   6.575   1.299 -0.1511 -0.0207 -0.4852
23120SOL    HW176218  10.241   6.486   1.273  1.7748 -0.3239 -1.4567
23120SOL    HW276219  10.185   6.626   1.291 -0.9881 -1.3945 -1.1735
23121SOL     OW76220   6.802   9.205   6.260 -0.1437  0.3629  0.4783
23121SOL    HW176221   6.806   9.253   6.178 -1.8904  0.3134  0.3246
23121SOL    HW276222   6.820   9.270   6.328  0.5835  0.5486  0.1183
23122SOL     OW76223   7.224  10.942   4.804 -0.2377 -0.7733  0.4781
23122SOL    HW176224   7.258  10.929   4.715 -1.1864 -1.2257  0.1729
23122SOL    HW276225   7.206  10.854   4.836 -0.6327 -0.5669  0.8316
23123SOL     OW76226   1.737  12.414  11.084  0.2578  0.1024 -0.0849
23123SOL    HW176227   1.737  12.456  10.998  0.4812 -2.0800 -1.2247
23123SOL    HW276228   1.652  12.371  11.089  0.2587  0.1885  0.7989
23124SOL     OW76229  10.832   9.012   6.152  0.2043  0.0314 -0.6185
23124SOL    HW176230  10.915   8.995   6.108 -0.7211 -1.7436 -1.7549
23124SOL    HW276231  10.772   9.040   6.083 -0.3355  0.7015  0.0927
23125SOL     OW76232   5.025   7.993   1.997  0.8495  0.5480 -0.6077
23125SOL    HW176233   5.074   7.924   1.951 -0.5886 -1.4718  0.6956
23125SOL    HW276234   4.936   7.986   1.963  0.3458  0.7045  0.6388
23126SOL     OW76235   5.840   1.166  10.239  0.2716 -0.5882 -0.0130
23126SOL    HW176236   5.920   1.126  10.271  0.5645 -0.0556 -0.0641
23126SOL    HW276237   5.870   1.240  10.186 -0.2281 -0.9214 -0.7746
23127SOL     OW76238   8.963   3.527   3.001 -0.1757  0.5143 -0.2873
23127SOL    HW176239   8.907   3.582   3.055 -0.4699 -1.1140  1.1314
23127SOL    HW276240   8.925   3.534   2.913 -0.8786  1.6542  0.0808
23128SOL     OW76241   8.781   1.288   6.263 -0.0221 -0.1088  0.4224
23128SOL    HW176242   8.815   1.209   6.221  0.7854  0.0321  0.7715
23128SOL    HW276243   8.766   1.350   6.191 -0.4855 -0.5210  0.1663
23129SOL     OW76244   8.631   0.953  10.008 -0.0479 -0.5301 -0.1595
23129SOL    HW176245   8.556   0.989  10.055  0.0956 -1.1931  0.5839
23129SOL    HW276246   8.676   0.898  10.072  1.5061  0.4519 -0.3587
23130SOL     OW76247   4.041  12.225   8.937 -0.6806  0.3049 -0.5396
23130SOL    HW176248   3.978  12.206   8.867 -0.9077 -0.0127 -0.2474
23130SOL    HW276249   4.072  12.314   8.917  1.2686 -0.7151 -2.6004
23131SOL     OW76250   9.356   0.302  11.703  0.5144  0.3468  0.1792
23131SOL    HW176251   9.446   0.276  11.722  0.5730  2.1461  2.9945
23131SOL    HW276252   9.363   0.356  11.624  1.5989 -0.9218 -0.6373
23132SOL     OW76253   1.672   2.679   7.846  0.5561  0.2858 -0.3968
23132SOL    HW176254   1.681   2.605   7.786  1.8588 -0.2308  0.4060
23132SOL    HW276255   1.595   2.726   7.813 -0.8054 -1.8323 -0.4798
23133SOL     OW76256   7.612   3.093   4.626 -0.3222 -0.5158 -0.1230
23133SOL    HW176257   7.532   3.075   4.577 -0.1691 -0.5663 -0.3533
23133SOL    HW276258   7.681   3.095   4.560 -0.1340 -0.4641  0.0744
23134SOL     OW76259   0.225   8.045   0.373  0.0310 -0.0393 -0.0397
23134SOL    HW176260   0.212   7.956   0.404  0.5972 -0.8996 -2.1017
23134SOL    HW276261   0.276   8.087   0.442  0.0490 -1.3912  0.8126
23135SOL     OW76262   3.561   1.004   8.441  0.0805  0.6485 -0.2597
23135SOL    HW176263   3.474   0.993   8.404  0.0603  0.3188 -0.1126
23135SOL    HW276264   3.568   0.936   8.508  0.2329  1.0423  0.1286
23136SOL     OW76265   3.689   7.902   8.550  0.3275  0.3637 -0.4459
23136SOL    HW176266   3.690   7.910   8.645  1.0784  2.2284 -0.5755
23136SOL    HW276267   3.599   7.919   8.525 -0.5232 -2.7702  0.0466
23137SOL     OW76268   9.417  12.362   0.009 -0.0968 -0.5240 -0.2737
23137SOL    HW176269   9.378  12.425   0.069 -1.8192 -0.5343 -1.3194
23137SOL    HW276270   9.485  12.318   0.061 -2.0849 -1.1472  1.9707
23138SOL     OW76271  12.437   9.300   3.855  0.2212 -0.4100  0.8337
23138SOL    HW176272  12.525   9.267   3.871  0.4387 -1.7569 -2.3076
23138SOL    HW276273  12.391   9.228   3.812 -1.5308  1.1167 -0.0501
23139SOL     OW76274  10.312   5.823   4.919 -0.0530 -0.2070  0.5062
23139SOL    HW176275  10.268   5.907   4.936  0.6883 -0.1834  2.6374
23139SOL    HW276276  10.245   5.757   4.938  0.0271 -0.1142  1.1601
23140SOL     OW76277   5.103  11.422   0.066 -0.0294  0.7879  0.1314
23140SOL    HW176278   5.070  11.337   0.036  1.7252  0.6406 -1.5706
23140SOL    HW276279   5.093  11.480  -0.010 -1.4020  2.2144  1.3260
23141SOL     OW76280   3.520   5.981   5.248  0.5576 -0.3262 -0.5112
23141SOL    HW176281   3.476   5.924   5.185 -1.7345  2.3950 -1.6132
23141SOL    HW276282   3.457   5.993   5.319  0.7581  1.1505 -0.5392
23142SOL     OW76283  11.275   4.653   4.080 -0.0808  0.3563  0.3861
23142SOL    HW176284  11.223   4.713   4.133  1.0576  2.3182 -0.6039
23142SOL    HW276285  11.318   4.596   4.145  1.5338  2.8896  1.7013
23143SOL     OW76286   7.189   7.537   5.015  0.3340 -0.1659 -0.0721
23143SOL    HW176287   7.257   7.589   5.057 -0.1298  0.7884 -0.4394
23143SOL    HW276288   7.161   7.475   5.081  0.1247  0.8121  0.7880
23144SOL     OW76289   4.005   0.497   3.164 -0.3641  0.3621  0.4535
23144SOL    HW176290   3.985   0.404   3.159 -2.3468  0.5032  3.1693
23144SOL    HW276291   4.044   0.509   3.251  1.0967  1.9201 -0.3406
23145SOL     OW76292   3.752   4.282   0.402 -0.0825 -0.1074 -0.2666
23145SOL    HW176293   3.842   4.254   0.387  0.1171  0.4343 -0.1292
23145SOL    HW276294   3.709   4.205   0.438  0.3038 -0.3966 -0.4058
23146SOL     OW76295   1.556   4.221   3.992 -0.5479  0.0683 -0.3923
23146SOL    HW176296   1.572   4.127   3.999 -0.1750  0.1559 -0.0275
23146SOL    HW276297   1.505   4.231   3.912 -0.8969 -0.4809 -0.2375
23147SOL     OW76298   5.889   8.335   1.128 -0.6113  0.1661 -0.0990
23147SOL    HW176299   5.814   8.380   1.167 -1.1062 -0.2502 -0.5579
23147SOL    HW276300   5.962   8.356   1.186 -0.9130  1.2101 -0.0696
23148SOL     OW76301   8.012   1.818   6.251  0.1126  0.2017  0.5275
23148SOL    HW176302   8.032   1.728   6.225  1.2514  0.1856  1.3794
23148SOL    HW276303   7.979   1.859   6.171  1.1496 -0.5137 -0.3075
23149SOL     OW76304  10.955   7.823   0.918 -0.2880 -0.1310 -0.1701
23149SOL    HW176305  10.897   7.893   0.887  0.2846 -0.0070 -1.0021
23149SOL    HW276306  11.010   7.803   0.842 -0.3736 -1.4169  0.0805
23150SOL     OW76307  11.860   1.271  11.481  0.0033 -0.2978  0.1683
23150SOL    HW176308  11.831   1.271  11.572 -1.3174  0.6620 -0.2327
23150SOL    HW276309  11.930   1.336  11.478 -1.8307  1.7745 -0.0242
23151SOL     OW76310   7.782   6.046   2.931 -0.2582 -0.1437  0.1011
23151SOL    HW176311   7.746   6.090   2.854  1.3278 -2.1312 -1.8739
23151SOL    HW276312   7.725   5.970   2.945 -0.0201 -0.2769  0.3657
23152SOL     OW76313   3.076   0.673  11.298 -0.1152 -0.2773  0.1890
23152SOL    HW176314   3.025   0.652  11.220 -0.9315  1.2214  0.2873
23152SOL    HW276315   3.166   0.651  11.275 -0.6684 -2.1843 -0.2831
23153SOL     OW76316   3.726   2.394   8.687  0.5487 -0.0636  0.1204
23153SOL    HW176317   3.817   2.370   8.668  0.8008 -0.7125  1.9434
23153SOL    HW276318   3.733   2.475   8.736  0.2317 -0.7036  1.2470
23154SOL     OW76319   9.586   7.641   5.687  0.3387 -0.1846  0.3087
23154SOL    HW176320   9.663   7.697   5.679  0.4475 -0.3901 -0.0801
23154SOL    HW276321   9.550   7.663   5.773 -0.1840  1.1902 -0.2297
23155SOL     OW76322  11.332   1.520   0.880 -0.3034  0.1991 -0.5019
23155SOL    HW176323  11.246   1.486   0.907 -0.6441  0.7612 -0.8657
23155SOL    HW276324  11.326   1.614   0.894  0.5682  0.1532  0.3055
23156SOL     OW76325   1.264   9.981   9.986  0.2453 -0.3269  0.2700
23156SOL    HW176326   1.314   9.933   9.920 -1.1904  0.7123 -1.6867
23156SOL    HW276327   1.286  10.073   9.970  0.8757 -0.0892  2.1735
23157SOL     OW76328   5.055   7.183   0.005 -0.3223  0.3918  0.5235
23157SOL    HW176329   5.138   7.229   0.019  0.4197 -0.0827 -1.8412
23157SOL    HW276330   5.066   7.100   0.051  1.2010 -0.3217 -1.0196
23158SOL     OW76331   7.390   3.259   9.385  0.1977 -0.1372 -0.2240
23158SOL    HW176332   7.355   3.252   9.296 -2.7322 -1.1075  0.8743
23158SOL    HW276333   7.316   3.237   9.441  2.6403 -2.3032  2.4319
23159SOL     OW76334  12.113   5.688   6.173  0.6926 -0.3034 -0.8663
23159SOL    HW176335  12.154   5.689   6.260  0.5418  0.3492 -0.7914
23159SOL    HW276336  12.125   5.599   6.141 -0.8144 -1.0754  0.5832
23160SOL     OW76337   0.582  11.901   3.616  0.4857  0.8075 -0.3455
23160SOL    HW176338   0.587  11.986   3.572 -1.4347  1.3222  0.3065
23160SOL    HW276339   0.532  11.846   3.556  0.4211  0.6102 -0.1093
23161SOL     OW76340   8.731   1.149   5.926 -0.1917 -0.3316  0.3353
23161SOL    HW176341   8.797   1.083   5.948  1.2439  1.5718  2.2286
23161SOL    HW276342   8.751   1.174   5.836 -0.1117 -1.7185 -0.0535
23162SOL     OW76343   2.375   4.814   1.942  0.0873 -0.2533 -0.8619
23162SOL    HW176344   2.283   4.815   1.915  0.0298  0.0353 -0.6588
23162SOL    HW276345   2.418   4.874   1.880 -0.1647  0.9593  0.0856
23163SOL     OW76346   5.463  10.527   9.293 -0.4735 -0.4037 -0.2070
23163SOL    HW176347   5.445  10.531   9.387 -0.8045 -0.4588 -0.2634
23163SOL    HW276348   5.429  10.441   9.266 -0.5375 -0.3175 -0.4069
23164SOL     OW76349   7.418   4.666   2.361  0.4354 -0.4586 -0.5733
23164SOL    HW176350   7.438   4.579   2.328  0.1416 -0.8686  0.3294
23164SOL    HW276351   7.335   4.657   2.408  0.4338  0.2915 -0.4088
23165SOL     OW76352   6.968  12.042   9.858 -0.5450  0.2709  0.2614
23165SOL    HW176353   6.962  11.975   9.789  0.6564  0.1861  0.2134
23165SOL    HW276354   6.895  12.101   9.840  0.0400  0.5495 -1.4356
23166SOL     OW76355   9.385   1.582   1.419 -0.9180 -0.2831  0.2740
23166SOL    HW176356   9.292   1.603   1.413 -0.4823  1.5794 -0.4892
23166SOL    HW276357   9.407   1.544   1.334 -0.9078 -0.4654  0.3561
23167SOL     OW76358   6.638   6.680  10.581 -0.0251 -0.2066  0.1387
23167SOL    HW176359   6.687   6.718  10.654 -1.5250 -0.5542  1.3881
23167SOL    HW276360   6.575   6.747  10.557 -1.3165 -1.0776  0.9807
23168SOL     OW76361   7.141   5.903   3.704  0.5391 -0.4878 -0.0910
23168SOL    HW176362   7.155   5.808   3.698  0.7894 -0.6571  2.1472
23168SOL    HW276363   7.229   5.939   3.719  0.1443 -0.3022  2.2258
23169SOL     OW76364   0.516   1.691   5.507  0.1727  0.0680  0.4523
23169SOL    HW176365   0.610   1.707   5.511  0.3780 -0.8822 -0.1835
23169SOL    HW276366   0.507   1.596   5.511 -0.7086  0.0994 -0.2625
23170SOL     OW76367   1.089   4.249   8.444 -0.0350 -0.4428 -0.4686
23170SOL    HW176368   1.035   4.328   8.449  0.5140  0.0533 -1.8433
23170SOL    HW276369   1.031   4.182   8.410 -0.8169 -0.9898  1.7456
23171SOL     OW76370  11.774   9.035   3.868 -0.2898  0.0923 -0.2373
23171SOL    HW176371  11.731   8.975   3.929 -0.6162  0.5180 -0.0482
23171SOL    HW276372  11.708   9.101   3.848  0.9524  2.1151  1.8546
23172SOL     OW76373   8.970   8.045   6.126 -0.3685  0.1047 -0.5664
23172SOL    HW176374   8.952   8.099   6.203 -0.3123  0.7614 -1.0090
23172SOL    HW276375   8.903   7.977   6.129 -0.6345  0.3780 -0.1702
23173SOL     OW76376   7.044   7.908   3.363 -0.1461 -0.4224  0.2703
23173SOL    HW176377   7.092   7.991   3.373  0.8550 -1.0143  0.5187
23173SOL    HW276378   6.966   7.932   3.313  0.5178  0.5443 -0.3585
23174SOL     OW76379   5.103   5.898   2.731 -0.2874 -0.8692  0.0342
23174SOL    HW176380   5.097   5.951   2.651  0.9858  0.5220  0.8162
23174SOL    HW276381   5.188   5.855   2.726  0.0225 -0.3821  0.8478
23175SOL     OW76382   2.227   3.596   5.438  0.4678  0.3191 -0.4960
23175SOL    HW176383   2.141   3.628   5.464  1.4557  2.2786  0.6713
23175SOL    HW276384   2.288   3.662   5.473  2.5677 -1.9099  0.3347
23176SOL     OW76385   0.866   0.090  11.758  0.3492  0.9382 -0.6055
23176SOL    HW176386   0.868   0.178  11.720 -0.3113  0.5004 -1.6989
23176SOL    HW276387   0.954   0.078  11.795  1.0884  1.3397 -2.1289
23177SOL     OW76388   6.474   6.957  11.854  0.4245  0.4664 -0.0242
23177SOL    HW176389   6.541   6.909  11.805 -0.6698 -0.4496 -0.6869
23177SOL    HW276390   6.397   6.954  11.797  0.7176  4.5376 -0.9058
23178SOL     OW76391   2.278   1.122  11.128  0.6036 -0.0969  0.4242
23178SOL    HW176392   2.271   1.082  11.040 -0.3878 -1.0641  0.9091
23178SOL    HW276393   2.368   1.106  11.154  1.1655  0.9649 -0.7571
23179SOL     OW76394  11.556  10.498   3.342  0.6874  0.3257  0.3983
23179SOL    HW176395  11.519  10.410   3.345  2.6265 -0.5541  0.1890
23179SOL    HW276396  11.536  10.535   3.428 -2.1310  0.6084 -0.2841
23180SOL     OW76397  11.313  11.108   9.391  0.1052  0.0078 -0.3597
23180SOL    HW176398  11.370  11.033   9.374 -0.4686 -0.3818 -0.5840
23180SOL    HW276399  11.371  11.174   9.429  0.3599 -1.0050  1.0528
23181SOL     OW76400   0.652  11.567   3.574  0.2381  0.0546 -0.3159
23181SOL    HW176401   0.581  11.503   3.574 -0.3305  0.6831 -0.1012
23181SOL    HW276402   0.680  11.572   3.665  1.6370 -1.3488 -0.6105
23182SOL     OW76403   2.371  12.570   7.370  0.3808 -0.3876  0.0694
23182SOL    HW176404   2.393  12.543   7.281 -0.4357  1.6431 -0.8040
23182SOL    HW276405   2.455  12.596   7.408  0.6113 -0.3701 -0.4402
23183SOL     OW76406   3.193   5.728   2.314  0.2002 -0.2937 -0.8640
23183SOL    HW176407   3.182   5.726   2.409  0.4293  0.9642 -0.8018
23183SOL    HW276408   3.189   5.821   2.290 -1.6670 -0.6728 -2.3095
23184SOL     OW76409   0.796  11.034   5.135 -0.6841 -0.1482  0.0115
23184SOL    HW176410   0.773  10.971   5.066  3.9624 -0.1968 -1.8280
23184SOL    HW276411   0.743  11.111   5.115 -3.1957 -1.8296 -0.3649
23185SOL     OW76412   0.297   1.183   0.514  1.2088 -0.4206  0.0325
23185SOL    HW176413   0.322   1.091   0.520  0.7516 -0.5286  0.3527
23185SOL    HW276414   0.316   1.219   0.600  1.2648 -0.2444 -0.0524
23186SOL     OW76415   6.500   5.185  12.555  0.4462  0.5514  0.3034
23186SOL    HW176416   6.484   5.117  12.621  0.1999  0.2173 -0.0978
23186SOL    HW276417   6.417   5.233  12.549  1.2093  2.2193  2.0708
23187SOL     OW76418   3.096   2.486  11.033 -0.2629 -0.8744  0.4316
23187SOL    HW176419   3.174   2.470  10.980 -0.5879  0.3450 -0.4497
23187SOL    HW276420   3.030   2.426  10.997  0.1840 -1.7775  1.0614
23188SOL     OW76421   3.259   9.179   0.443 -0.0936  0.1630 -0.0124
23188SOL    HW176422   3.234   9.241   0.512 -1.6367  0.9178 -1.1919
23188SOL    HW276423   3.355   9.179   0.444 -0.0615  2.0731  0.4632
23189SOL     OW76424   9.344  12.315   4.013 -0.0309  0.1566 -0.3436
23189SOL    HW176425   9.405  12.323   3.940  0.4101  0.5863  0.0691
23189SOL    HW276426   9.380  12.244   4.067 -0.4195 -0.2413 -0.5989
23190SOL     OW76427   9.114   2.560   9.080 -0.0981  0.2978 -0.5101
23190SOL    HW176428   9.134   2.651   9.057 -0.8676  1.2726  2.2105
23190SOL    HW276429   9.180   2.536   9.145 -0.3038 -0.8512 -0.6959
23191SOL     OW76430   7.834   5.367  11.149 -0.5571 -0.1552 -0.0298
23191SOL    HW176431   7.742   5.365  11.175 -0.8719  1.1479 -0.9342
23191SOL    HW276432   7.879   5.406  11.224 -0.6605 -1.1956  0.5897
23192SOL     OW76433   5.790   8.925  11.505 -0.1564  0.0113 -0.6012
23192SOL    HW176434   5.704   8.918  11.546  0.0628  0.7503  0.0198
23192SOL    HW276435   5.818   8.835  11.491 -0.2726 -0.2713  0.8493
23193SOL     OW76436   7.741  10.090   3.198 -0.3575 -0.4396  0.0728
23193SOL    HW176437   7.703  10.005   3.173  0.4026 -0.5974 -0.6185
23193SOL    HW276438   7.828  10.089   3.158 -0.0112  0.3197  0.7826
23194SOL     OW76439   5.493   2.289   2.992 -0.4174 -0.2493 -0.2525
23194SOL    HW176440   5.564   2.348   2.969  0.2645  0.5895  3.3125
23194SOL    HW276441   5.534   2.202   2.992  0.0254 -0.0457 -0.3686
23195SOL     OW76442   8.463  11.454   5.848  0.1566  0.0044  0.2746
23195SOL    HW176443   8.388  11.473   5.904  0.5290  0.4003  0.6448
23195SOL    HW276444   8.534  11.508   5.883  0.7227 -0.6515  0.1750
23196SOL     OW76445   1.397   9.309   3.811 -0.0609 -0.1217 -0.2155
23196SOL    HW176446   1.418   9.235   3.869 -0.2758  0.1714  0.2476
23196SOL    HW276447   1.358   9.374   3.869 -0.3787  0.1398 -0.7154
23197SOL     OW76448   3.686   0.343   1.442 -0.1330 -0.2197  0.0488
23197SOL    HW176449   3.756   0.408   1.442  0.4422 -0.8031 -1.4419
23197SOL    HW276450   3.621   0.378   1.503  1.0431  0.7674  0.7841
23198SOL     OW76451   3.874   2.494   5.334 -0.9157  0.1904 -0.1123
23198SOL    HW176452   3.861   2.468   5.425  3.1007  1.4167  1.0019
23198SOL    HW276453   3.881   2.589   5.337  1.8108  0.1149 -1.1617
23199SOL     OW76454   0.408   0.563   9.705 -0.6600 -0.0691 -0.0023
23199SOL    HW176455   0.435   0.602   9.621 -1.8005 -0.1421 -0.4345
23199SOL    HW276456   0.487   0.561   9.758 -0.2541  1.5524 -0.4763
23200SOL     OW76457   5.935   1.616  11.084 -0.0703  0.2263 -0.2675
23200SOL    HW176458   6.020   1.659  11.077 -0.4505  0.9747 -0.3084
23200SOL    HW276459   5.952   1.541  11.143 -0.0678  2.2426  2.5031
23201SOL     OW76460   3.684   1.420  10.447  0.4397 -0.6374 -0.6772
23201SOL    HW176461   3.682   1.372  10.365 -0.9215 -1.7250 -0.0451
23201SOL    HW276462   3.649   1.507  10.425 -0.5105 -1.1238 -1.1400
23202SOL     OW76463   1.425   9.155  11.774  0.4221  0.3901  0.0150
23202SOL    HW176464   1.388   9.182  11.691  0.2699  0.6246  0.1611
23202SOL    HW276465   1.441   9.061  11.763  1.7784  0.6785 -0.8043
23203SOL     OW76466   6.476   7.116   9.077 -1.5081 -0.6473 -0.3392
23203SOL    HW176467   6.554   7.161   9.045 -1.4266 -1.4231 -1.2747
23203SOL    HW276468   6.509   7.058   9.146 -0.8456 -2.6328 -2.2248
23204SOL     OW76469   6.661   7.665   7.896  0.2521 -0.2636 -0.1993
23204SOL    HW176470   6.619   7.580   7.881  0.4544 -0.2980 -0.5892
23204SOL    HW276471   6.588   7.726   7.906  0.0904 -0.6574  1.1768
23205SOL     OW76472   3.018  10.832  11.559  0.0386 -0.1037  0.3125
23205SOL    HW176473   3.043  10.742  11.540  3.4373  0.9896 -1.1073
23205SOL    HW276474   2.972  10.861  11.480  1.2156  0.1353 -0.2954
23206SOL     OW76475  12.400  12.462  10.172  0.1641  0.6441 -0.1773
23206SOL    HW176476  12.481  12.465  10.223  0.0876  2.2035 -0.1231
23206SOL    HW276477  12.339  12.412  10.226  0.2324  1.8719  1.0720
23207SOL     OW76478   7.003  11.212   3.983 -0.6744 -0.4304 -0.1923
23207SOL    HW176479   7.017  11.249   4.070  0.4844 -1.4355  0.0749
23207SOL    HW276480   7.040  11.277   3.923  1.4994 -1.1451  0.2776
23208SOL     OW76481   5.661   1.321   9.966  0.3345 -0.3006 -0.5597
23208SOL    HW176482   5.742   1.281   9.936  1.1107  1.8901 -1.6064
23208SOL    HW276483   5.689   1.398  10.015 -1.1013 -0.1487  0.0772
23209SOL     OW76484   6.307   0.374   3.671  0.0090  0.1222 -0.7367
23209SOL    HW176485   6.276   0.305   3.731  0.0915  0.2408 -0.5553
23209SOL    HW276486   6.325   0.329   3.589 -1.8165  0.2245 -1.2397
23210SOL     OW76487  11.139   5.806   7.621  0.3168 -0.3516  0.1819
23210SOL    HW176488  11.195   5.827   7.546  0.2829  0.1239  0.2826
23210SOL    HW276489  11.060   5.768   7.583  0.1460  0.2255 -0.0548
23211SOL     OW76490   9.642   3.069   9.378 -0.1387  0.3959 -0.0357
23211SOL    HW176491   9.674   3.077   9.289  1.3576  0.2230  0.4606
23211SOL    HW276492   9.685   2.991   9.412 -0.0762  0.8963  1.0835
23212SOL     OW76493   2.316  10.673   0.846 -0.0052 -1.2017  0.1571
23212SOL    HW176494   2.257  10.703   0.778 -0.1760 -0.1195  0.7524
23212SOL    HW276495   2.371  10.606   0.804 -0.1325 -0.5878 -1.0107
23213SOL     OW76496  10.620   8.193   1.355 -0.0070 -0.3156 -0.3230
23213SOL    HW176497  10.642   8.118   1.300 -0.2809 -1.9994  1.7162
23213SOL    HW276498  10.675   8.182   1.433 -0.8522  1.0050  0.4972
23214SOL     OW76499   6.211   6.484   7.061 -0.4779  0.0013  0.4470
23214SOL    HW176500   6.184   6.398   7.092  2.1100 -1.1727 -0.2967
23214SOL    HW276501   6.178   6.489   6.971 -0.0947 -0.4670  0.2829
23215SOL     OW76502   5.682   7.575  10.324  0.0569 -0.0505 -0.8993
23215SOL    HW176503   5.713   7.652  10.277  1.5144  0.6189  1.0097
23215SOL    HW276504   5.761   7.537  10.362 -0.9873 -0.6885  0.7418
23216SOL     OW76505   5.277   5.787   1.950  0.0180 -0.6314  0.0950
23216SOL    HW176506   5.250   5.840   2.025  1.2312 -0.9362  0.7797
23216SOL    HW276507   5.278   5.697   1.983  1.9619 -0.6187  0.1614
23217SOL     OW76508  10.743   1.468   8.682 -0.1092 -0.0091 -0.3199
23217SOL    HW176509  10.733   1.373   8.684 -1.2912  0.0758 -0.9497
23217SOL    HW276510  10.837   1.483   8.692  0.4355 -1.3612 -2.6488
23218SOL     OW76511   6.453   5.929   9.251 -0.4702  0.4524  0.4432
23218SOL    HW176512   6.490   5.941   9.338 -0.8122 -3.2645  1.2301
23218SOL    HW276513   6.527   5.938   9.192  0.6382 -1.2592  1.5183
23219SOL     OW76514   4.296   4.899   8.051 -0.0574 -0.5129 -0.4134
23219SOL    HW176515   4.337   4.877   8.135  0.1055  0.0587 -0.3380
23219SOL    HW276516   4.255   4.984   8.067 -0.4450 -0.6320 -0.7731
23220SOL     OW76517   3.199   7.892   8.566  0.2650  0.2185 -0.0014
23220SOL    HW176518   3.157   7.924   8.486 -2.3490  0.1862  1.2410
23220SOL    HW276519   3.148   7.931   8.637 -0.5090 -3.3079  1.6259
23221SOL     OW76520   6.689   4.018   3.041 -0.5206  0.2453 -0.1436
23221SOL    HW176521   6.699   4.035   3.135 -0.5006 -1.2786  0.1717
23221SOL    HW276522   6.599   4.041   3.022 -0.1705  1.7737 -0.0555
23222SOL     OW76523   3.254  10.945   9.430 -0.3089  0.8615 -0.1214
23222SOL    HW176524   3.256  10.919   9.338  0.5757  0.3285  0.0336
23222SOL    HW276525   3.169  10.916   9.462 -0.6294  1.0742 -0.7753
23223SOL     OW76526   6.488   7.907  11.160  0.2571 -0.0825 -0.7671
23223SOL    HW176527   6.545   7.980  11.137  0.5094 -0.0313 -0.0041
23223SOL    HW276528   6.486   7.852  11.082  0.4387  0.5006 -1.1857
23224SOL     OW76529   2.164  11.868   0.459  0.1734  0.1257  0.1451
23224SOL    HW176530   2.104  11.942   0.462 -0.5353 -0.4557  2.3269
23224SOL    HW276531   2.237  11.893   0.516  0.3170 -0.5165  0.2565
23225SOL     OW76532   9.137   5.270   7.004  0.5840  0.2125 -0.5175
23225SOL    HW176533   9.184   5.240   6.926  1.6986 -0.4777  0.3917
23225SOL    HW276534   9.139   5.366   6.998  0.7050  0.1637 -1.3092
23226SOL     OW76535   5.428  11.714   1.182  0.3231 -0.2112  0.1122
23226SOL    HW176536   5.464  11.648   1.123 -1.5429 -0.3540 -0.9508
23226SOL    HW276537   5.334  11.714   1.164  0.1811  2.4225  0.3612
23227SOL     OW76538   4.672  12.312   1.161  0.4499 -0.3305 -0.3303
23227SOL    HW176539   4.688  12.389   1.216  0.9805 -0.0125 -0.9191
23227SOL    HW276540   4.751  12.259   1.170 -0.6001 -1.6959  1.4579
23228SOL     OW76541   3.568   9.143   2.121  0.4665 -0.3032 -0.1628
23228SOL    HW176542   3.536   9.232   2.109 -0.1501 -0.2232  1.8175
23228SOL    HW276543   3.651   9.153   2.166  0.2327 -0.7356  0.3733
23229SOL     OW76544   3.513   6.954  10.678  0.3039 -0.1488  0.4119
23229SOL    HW176545   3.499   6.865  10.644  2.1230 -0.3324  0.0390
23229SOL    HW276546   3.573   6.942  10.752  0.8720  0.7982  0.1175
23230SOL     OW76547   1.963   3.334   5.548  0.4217  0.2002  0.4804
23230SOL    HW176548   2.046   3.296   5.518  0.0289 -1.0420  0.8853
23230SOL    HW276549   1.955   3.305   5.639  0.0774  1.2699  0.8043
23231SOL     OW76550   1.365   4.747  11.202 -0.5282 -0.5088  0.3725
23231SOL    HW176551   1.423   4.807  11.156 -0.7860 -2.2824 -2.5346
23231SOL    HW276552   1.372   4.772  11.294  3.9637  0.0728  0.0858
23232SOL     OW76553  10.299   4.772  10.445  0.3755 -0.1339 -0.6491
23232SOL    HW176554  10.249   4.834  10.392  1.7875  0.0499 -1.8372
23232SOL    HW276555  10.233   4.722  10.492 -0.8613  1.0346 -1.0715
23233SOL     OW76556   5.222   9.744  12.215 -0.2244  0.4363  0.0400
23233SOL    HW176557   5.158   9.680  12.247  0.8762 -0.3578  0.7121
23233SOL    HW276558   5.233   9.805  12.288  0.1988  0.2405  0.1431
23234SOL     OW76559   1.305   6.944  11.969 -0.2725 -0.0394 -0.3109
23234SOL    HW176560   1.289   6.851  11.953 -1.7705 -0.4961  3.0877
23234SOL    HW276561   1.400   6.950  11.981 -0.2635 -1.3812  0.4724
23235SOL     OW76562   6.336   7.355   8.777 -0.0174 -1.0117 -0.6921
23235SOL    HW176563   6.336   7.260   8.766  2.0431 -1.3482  1.3880
23235SOL    HW276564   6.418   7.383   8.734 -0.2787 -0.2630 -0.7062
23236SOL     OW76565   7.551   6.078   6.041  0.5185 -0.5240  0.3518
23236SOL    HW176566   7.605   6.136   5.987  1.0923 -0.7042  0.7294
23236SOL    HW276567   7.462   6.089   6.005  1.0646 -1.5913 -1.4606
23237SOL     OW76568   9.082   0.748   5.156 -0.2073  0.3467  0.0005
23237SOL    HW176569   9.038   0.666   5.179 -1.4682  1.6761  2.8414
23237SOL    HW276570   9.023   0.817   5.188  0.5228  2.4416 -2.7780
23238SOL     OW76571   3.433   6.570   5.063 -0.3254  0.3854  0.7734
23238SOL    HW176572   3.402   6.547   5.151  2.3776 -2.3845  1.1787
23238SOL    HW276573   3.504   6.632   5.077 -0.9526  1.2110  0.3837
23239SOL     OW76574   7.039   3.640   6.939  0.3324  0.4424 -0.6022
23239SOL    HW176575   6.988   3.570   6.981 -0.5505  2.0421  1.1290
23239SOL    HW276576   7.008   3.640   6.849  2.2978 -3.1139 -1.5085
23240SOL     OW76577   7.185   2.715  12.455  0.0756  0.2657 -0.0415
23240SOL    HW176578   7.092   2.692  12.460  0.2848 -0.6397 -0.1402
23240SOL    HW276579   7.189   2.805  12.486 -0.9461  0.5905 -0.7948
23241SOL     OW76580   1.794   4.265   8.234 -0.5842  0.7618 -0.7247
23241SOL    HW176581   1.710   4.220   8.220 -1.5521  1.8735  1.2068
23241SOL    HW276582   1.773   4.340   8.288  2.0256 -0.4858  2.3666
23242SOL     OW76583   1.038   2.754  10.542 -0.3525  0.1656  0.3475
23242SOL    HW176584   1.035   2.748  10.637  0.0392 -0.8245  0.3162
23242SOL    HW276585   1.076   2.839  10.524  1.2753 -0.3608  1.1241
23243SOL     OW76586   8.937   7.813   8.807 -0.0863  0.6243 -0.2599
23243SOL    HW176587   8.977   7.826   8.893  0.2972  0.0933 -0.3538
23243SOL    HW276588   8.861   7.758   8.824 -0.3482  1.0041 -0.1849
23244SOL     OW76589   8.038  11.822   2.663 -0.6613  0.2844 -0.1789
23244SOL    HW176590   8.010  11.895   2.608 -0.9819  1.5971  1.6432
23244SOL    HW276591   8.106  11.859   2.720 -1.6702 -0.4770  1.6115
23245SOL     OW76592   7.919   1.905   9.392 -0.3578  0.5294  0.0142
23245SOL    HW176593   7.868   1.976   9.432 -0.1604  1.5759 -1.4771
23245SOL    HW276594   7.854   1.852   9.347 -0.4325  0.1349  0.5768
23246SOL     OW76595  10.951   7.469   2.334 -0.1405  0.0434 -0.3244
23246SOL    HW176596  10.994   7.392   2.295  0.7142 -1.1856  2.7277
23246SOL    HW276597  10.861   7.440   2.351 -0.2698  0.2836 -0.5886
23247SOL     OW76598  12.547   4.774   1.502 -0.3707  0.8526  0.2816
23247SOL    HW176599  12.612   4.828   1.546  0.8359 -1.2613  1.2550
23247SOL    HW276600  12.504   4.726   1.573  1.4896 -2.5266 -0.6592
23248SOL     OW76601   2.435   7.401   0.431  0.0878 -0.0113 -0.3522
23248SOL    HW176602   2.408   7.333   0.370  0.1652 -0.2726 -0.0956
23248SOL    HW276603   2.436   7.481   0.378  0.5733 -0.3062 -0.7961
23249SOL     OW76604   3.307   8.488   7.343  0.0795  0.2536 -0.6624
23249SOL    HW176605   3.362   8.442   7.407 -0.3194 -1.2612 -1.3719
23249SOL    HW276606   3.229   8.434   7.336 -0.6780  1.3828 -1.0891
23250SOL     OW76607   1.734  11.427   2.305 -0.4991 -0.2290  0.5311
23250SOL    HW176608   1.765  11.484   2.375 -0.6884  0.5686 -0.0191
23250SOL    HW276609   1.653  11.389   2.340 -1.8598  1.9260 -0.0450
23251SOL     OW76610  11.732   3.543   3.872 -0.4550 -0.0900  0.6755
23251SOL    HW176611  11.641   3.538   3.842 -0.1974  1.3582 -0.4519
23251SOL    HW276612  11.743   3.634   3.900  0.2128 -0.6439  2.3650
23252SOL     OW76613  11.515   3.063   9.016  0.3377 -0.0964 -0.2857
23252SOL    HW176614  11.578   3.104   9.076  1.7628 -2.3713 -0.1145
23252SOL    HW276615  11.431   3.103   9.040  1.4189  1.7823  0.6508
23253SOL     OW76616   1.198   2.578   9.354  0.2333 -0.6848  0.2700
23253SOL    HW176617   1.254   2.502   9.335  0.9306 -0.6116  1.8799
23253SOL    HW276618   1.257   2.653   9.351 -0.0272 -0.4555  0.7429
23254SOL     OW76619   2.606  11.504   7.033 -0.0550  0.1961  0.4998
23254SOL    HW176620   2.569  11.586   7.066  0.7857  0.5647  0.5689
23254SOL    HW276621   2.530  11.451   7.010 -0.6480  0.4005  1.8803
23255SOL     OW76622   9.334  11.739  11.751 -0.9136  0.4804  0.1192
23255SOL    HW176623   9.426  11.713  11.754 -0.6512  1.1825 -1.3258
23255SOL    HW276624   9.315  11.772  11.839 -0.7494 -2.7596  1.5158
23256SOL     OW76625   1.605   4.695   6.793  0.2405  0.3774  0.8242
23256SOL    HW176626   1.560   4.683   6.876  1.2640 -1.0119  1.2232
23256SOL    HW276627   1.689   4.649   6.804  0.3514  0.0379 -1.0024
23257SOL     OW76628   5.706  12.171   9.765  0.1194 -0.1384  0.2040
23257SOL    HW176629   5.660  12.177   9.848  0.4594 -0.6749  0.4344
23257SOL    HW276630   5.716  12.262   9.736  2.3310  0.2811  2.0368
23258SOL     OW76631  12.028   8.381   5.821 -0.0226 -0.1292  0.2047
23258SOL    HW176632  11.953   8.360   5.876  0.2737  2.2858  1.6715
23258SOL    HW276633  12.086   8.305   5.830 -0.9289 -0.7026  1.5519
23259SOL     OW76634   9.867   4.355   7.024 -0.0813  0.0322 -0.6491
23259SOL    HW176635   9.941   4.304   6.990 -0.3636 -2.0431  1.5729
23259SOL    HW276636   9.902   4.443   7.036  2.0689 -0.8954  0.3448
23260SOL     OW76637   5.000   1.210   6.590  0.0684  0.4611 -0.4806
23260SOL    HW176638   5.067   1.259   6.637  0.2041  1.1483 -1.3713
23260SOL    HW276639   4.938   1.276   6.559 -1.2839 -0.2023  0.7111
23261SOL     OW76640   6.556   9.537   1.513 -0.0099  0.2896 -0.0781
23261SOL    HW176641   6.497   9.520   1.586  0.2641 -1.1237 -0.1759
23261SOL    HW276642   6.614   9.462   1.510  1.2321  1.2297 -0.5632
23262SOL     OW76643   5.565   7.542  10.762  0.2395  0.0333 -0.3044
23262SOL    HW176644   5.535   7.476  10.824 -1.0792  0.0510 -0.9032
23262SOL    HW276645   5.502   7.538  10.690  1.3458  0.4812 -1.3344
23263SOL     OW76646  11.153   5.347  10.585 -0.4513  0.1776  0.0755
23263SOL    HW176647  11.193   5.434  10.593 -1.5068  0.6300  0.7397
23263SOL    HW276648  11.085   5.358  10.518  0.4651 -0.5591 -0.9927
23264SOL     OW76649   7.308   5.989   9.701 -0.1610  0.1058  0.0885
23264SOL    HW176650   7.299   5.897   9.679 -1.4345  0.3170 -0.3387
23264SOL    HW276651   7.225   6.012   9.742  0.8748  0.5745  2.1024
23265SOL     OW76652   4.221   9.535   0.439 -0.2775 -0.2705 -0.1070
23265SOL    HW176653   4.194   9.455   0.484  0.7175 -1.1139 -0.9625
23265SOL    HW276654   4.175   9.606   0.485 -0.9666 -1.3021  0.8246
23266SOL     OW76655   3.553  10.649   6.381  0.2630  0.4719 -0.3025
23266SOL    HW176656   3.645  10.625   6.370  0.3732  0.5903  0.3236
23266SOL    HW276657   3.505  10.579   6.337  0.6779  1.6561 -2.8500
23267SOL     OW76658   0.350   1.308   3.364  0.2516 -0.0483  0.0662
23267SOL    HW176659   0.422   1.315   3.301  0.7574 -1.1806  0.4952
23267SOL    HW276660   0.277   1.274   3.312  0.6534 -0.9375  0.0512
23268SOL     OW76661   1.555   8.426   9.139  0.1300 -0.7173 -0.3816
23268SOL    HW176662   1.497   8.485   9.090  1.1892  1.2410  0.6075
23268SOL    HW276663   1.627   8.407   9.078  0.4849  0.1741 -0.2564
23269SOL     OW76664  10.778   5.490   2.928 -0.3754  0.0878 -0.1724
23269SOL    HW176665  10.694   5.522   2.961  0.0215  0.2889  0.6678
23269SOL    HW276666  10.789   5.405   2.969  0.3760  0.5742  0.6652
23270SOL     OW76667   9.843   1.043   4.377 -0.4129  0.2714 -0.6409
23270SOL    HW176668   9.793   1.018   4.298  0.2500 -1.1100 -0.6540
23270SOL    HW276669   9.859   1.136   4.366  0.1927  0.0014 -2.4637
23271SOL     OW76670   2.212   4.804   4.203 -0.4618 -0.1834 -0.0278
23271SOL    HW176671   2.278   4.736   4.217 -0.6650 -0.5361 -0.7379
23271SOL    HW276672   2.184   4.791   4.113 -1.3220  0.1292  0.1918
23272SOL     OW76673   2.691  10.400   2.249  0.0546  0.5213 -0.2255
23272SOL    HW176674   2.631  10.377   2.320  1.4149  0.6114  0.9904
23272SOL    HW276675   2.648  10.473   2.204 -1.9758 -1.0834 -1.0687
23273SOL     OW76676  10.166   8.623   7.092  0.1294  0.6141 -1.1670
23273SOL    HW176677  10.177   8.717   7.077  0.3778  0.5383 -1.4809
23273SOL    HW276678  10.232   8.602   7.158 -1.2998  1.0422  0.4679
23274SOL     OW76679   7.345   2.012   8.424  0.3704  0.8230 -0.0980
23274SOL    HW176680   7.368   2.006   8.517 -1.7093 -0.3158  0.4106
23274SOL    HW276681   7.382   1.934   8.385  0.6769  0.9655 -0.0950
23275SOL     OW76682   3.032   6.978   5.582  0.2254  0.4005  0.3001
23275SOL    HW176683   3.090   6.975   5.658  0.0487  1.0942  0.4762
23275SOL    HW276684   3.021   6.887   5.556 -0.5838  0.0540  1.7603
23276SOL     OW76685   7.204   5.566   0.041  0.1508  0.6699  0.5133
23276SOL    HW176686   7.285   5.517   0.060  0.5958  0.5291 -1.4634
23276SOL    HW276687   7.143   5.499   0.011  0.0910  1.0479 -0.2422
23277SOL     OW76688   4.255   8.915   6.300  0.0253  0.3868  0.0724
23277SOL    HW176689   4.245   9.006   6.273  0.0213  0.1685 -0.7041
23277SOL    HW276690   4.231   8.865   6.222  0.7630 -0.2593  0.2469
23278SOL     OW76691   9.659   7.451   4.305  0.1208  0.6898 -0.2914
23278SOL    HW176692   9.573   7.480   4.333  0.0375 -0.0716  0.2702
23278SOL    HW276693   9.719   7.484   4.372  0.1997  0.7757 -0.4035
23279SOL     OW76694   8.539   4.028   3.653 -0.7054  0.1873 -0.2623
23279SOL    HW176695   8.519   3.957   3.714 -0.0818 -1.6535 -2.0694
23279SOL    HW276696   8.626   4.058   3.679 -0.3349 -0.7602 -0.3732
23280SOL     OW76697   5.024  11.212  12.519 -0.6202  0.5443  0.3779
23280SOL    HW176698   5.028  11.209  12.423 -0.7832  2.0179  0.2993
23280SOL    HW276699   4.987  11.127  12.544 -1.3263  0.4463 -0.9140
23281SOL     OW76700   8.523   9.132  11.767  0.3037  0.2483 -0.1558
23281SOL    HW176701   8.429   9.117  11.777  0.6172 -1.0177  1.2835
23281SOL    HW276702   8.537   9.219  11.803 -0.2993  0.3928 -0.2577
23282SOL     OW76703  11.227   2.191  11.624 -0.2588 -0.8106  0.3995
23282SOL    HW176704  11.317   2.162  11.613  0.1193  0.7375 -1.1322
23282SOL    HW276705  11.189   2.185  11.537 -0.2220  2.7256 -0.0387
23283SOL     OW76706   0.112  11.022   8.850 -0.1194 -0.4797 -0.6049
23283SOL    HW176707   0.205  11.030   8.871 -0.5760  1.4174  1.0865
23283SOL    HW276708   0.086  10.938   8.888  0.8467 -0.9371 -0.9157
23284SOL     OW76709   0.081  12.046   4.821  0.2486  0.0826  0.1907
23284SOL    HW176710   0.013  11.990   4.782 -0.3137 -0.9968  2.5006
23284SOL    HW276711   0.114  12.099   4.749 -1.5768 -0.8750 -1.4293
23285SOL     OW76712  12.001   4.427   5.695  0.6103  0.0779 -0.5100
23285SOL    HW176713  11.925   4.420   5.637  1.5629 -2.4097 -1.6162
23285SOL    HW276714  12.055   4.494   5.655  0.1778  0.0269 -1.2025
23286SOL     OW76715   4.183  12.390  10.782 -0.2030  0.0726 -0.2079
23286SOL    HW176716   4.252  12.447  10.816  0.4470 -0.8732  0.1023
23286SOL    HW276717   4.152  12.435  10.703 -0.5179  1.4203  0.6358
23287SOL     OW76718   9.811   1.504   1.364  0.0674 -0.0488  0.0192
23287SOL    HW176719   9.765   1.457   1.433 -1.1784  0.4198 -0.4705
23287SOL    HW276720   9.887   1.543   1.408 -0.9783  0.6703  1.2397
23288SOL     OW76721   2.806   3.910  11.203  0.2457  0.5477  0.1584
23288SOL    HW176722   2.860   3.986  11.181  1.9194 -0.7709 -0.4339
23288SOL    HW276723   2.865   3.835  11.197 -1.3069 -0.8051  0.9382
23289SOL     OW76724   6.864  10.803   3.348 -0.9091 -0.2404  0.1155
23289SOL    HW176725   6.936  10.861   3.323 -0.4440 -1.0743 -0.5150
23289SOL    HW276726   6.793  10.825   3.288  0.2188 -2.2804 -2.1230
23290SOL     OW76727   7.686   9.191   7.975  0.2462 -0.6001 -0.3095
23290SOL    HW176728   7.714   9.160   7.890 -0.4220 -0.1574 -0.7061
23290SOL    HW276729   7.648   9.278   7.958  0.5426 -0.2975  0.5063
23291SOL     OW76730   4.319   0.128   6.716  0.2826 -0.0312  0.2469
23291SOL    HW176731   4.310   0.136   6.621 -1.3283 -0.9700  0.2945
23291SOL    HW276732   4.354   0.040   6.730 -0.5851 -0.3350  0.5637
23292SOL     OW76733   5.343   6.028   8.538 -0.0688 -0.8864  0.9695
23292SOL    HW176734   5.248   6.042   8.538 -0.2563 -2.0036  0.3092
23292SOL    HW276735   5.380   6.112   8.565 -1.2738 -0.6812  2.0971
23293SOL     OW76736   4.503   4.094   0.766  0.4556  0.0184 -0.7046
23293SOL    HW176737   4.472   4.024   0.708 -0.8400 -0.2962  0.3048
23293SOL    HW276738   4.596   4.103   0.745  0.0707 -0.1940 -2.6817
23294SOL     OW76739  10.295   2.336   2.894 -0.0887  0.0212  0.0557
23294SOL    HW176740  10.354   2.352   2.968 -0.8708  0.1739  0.6638
23294SOL    HW276741  10.276   2.424   2.860  0.5915 -0.0783 -0.5880
23295SOL     OW76742   6.434   6.174   8.093  0.0638 -0.0999 -0.1166
23295SOL    HW176743   6.487   6.249   8.068  0.5340 -0.5274 -0.4290
23295SOL    HW276744   6.460   6.156   8.183 -0.4111  0.4076  0.1308
23296SOL     OW76745   9.680  12.447   8.383 -0.2310 -0.1388  0.3366
23296SOL    HW176746   9.696  12.438   8.289 -1.0552 -1.7339  0.2987
23296SOL    HW276747   9.610  12.512   8.389 -0.8098 -0.6881 -0.2396
23297SOL     OW76748  10.635   4.268   4.971 -0.2142 -0.1025  0.2830
23297SOL    HW176749  10.594   4.330   5.031 -0.7128  0.5500 -0.7047
23297SOL    HW276750  10.614   4.182   5.007 -0.1605  0.2701  1.2533
23298SOL     OW76751   3.061   5.954   0.783 -0.7320  0.1566  0.1570
23298SOL    HW176752   3.039   6.038   0.743  0.0445 -0.0343 -0.7411
23298SOL    HW276753   2.993   5.939   0.848 -1.9403  0.6005 -0.9573
23299SOL     OW76754   8.974   7.809  10.555  0.7692 -0.2945 -0.7425
23299SOL    HW176755   8.914   7.827  10.628  1.3871  0.0206 -0.3071
23299SOL    HW276756   8.972   7.714  10.546 -0.1459 -0.2647 -1.0393
23300SOL     OW76757   3.690   4.295   2.742  0.2762 -0.4234 -0.2921
23300SOL    HW176758   3.694   4.202   2.721 -1.6984 -0.1922 -2.0329
23300SOL    HW276759   3.778   4.327   2.722  1.1004 -1.9393  0.6932
23301SOL     OW76760   0.381  11.413   0.134  0.1875  0.1444  0.5463
23301SOL    HW176761   0.439  11.477   0.175  0.7481  0.2390 -0.3735
23301SOL    HW276762   0.439  11.343   0.106 -0.0624  0.4958 -0.8893
23302SOL     OW76763   5.325  10.663   3.483 -0.0425 -0.3544 -0.4431
23302SOL    HW176764   5.316  10.729   3.415  0.0174 -0.2698 -0.3686
23302SOL    HW276765   5.373  10.592   3.440  0.3876 -0.1147 -0.3640
23303SOL     OW76766   2.544   8.725   0.459  0.0869 -0.8630 -0.0424
23303SOL    HW176767   2.473   8.768   0.411  0.8901 -0.8164 -1.2549
23303SOL    HW276768   2.520   8.632   0.461 -0.3904 -0.7340  0.2721
23304SOL     OW76769   6.945  12.473   0.031 -0.2110 -0.3716  0.1796
23304SOL    HW176770   6.852  12.480   0.052 -0.1700  1.9269 -0.1586
23304SOL    HW276771   6.990  12.496   0.112  0.1223 -1.8500  0.4544
23305SOL     OW76772   8.784  10.870   0.699  0.5773 -0.4646 -0.1304
23305SOL    HW176773   8.791  10.777   0.676  1.2147 -0.4667  0.0558
23305SOL    HW276774   8.700  10.897   0.662  0.7061 -0.9374 -0.7987
23306SOL     OW76775   4.191   9.154  10.026  0.4894 -0.1301  0.9042
23306SOL    HW176776   4.266   9.101  10.052 -0.6415 -1.2815  1.9643
23306SOL    HW276777   4.169   9.203  10.106 -0.3866 -0.4428  0.8657
23307SOL     OW76778  10.255   6.440   2.613 -0.3358  0.1972 -0.4670
23307SOL    HW176779  10.185   6.417   2.552 -0.4121  1.6697 -0.9589
23307SOL    HW276780  10.259   6.535   2.611  1.7204  0.1517 -0.4909
23308SOL     OW76781   3.811   9.242   1.431 -0.4320  0.0151  0.4206
23308SOL    HW176782   3.802   9.327   1.474  0.3969  0.8979 -1.0604
23308SOL    HW276783   3.846   9.185   1.499  0.5155  1.2758  1.0403
23309SOL     OW76784   8.575   3.753   5.271 -0.5125  0.6297 -0.0587
23309SOL    HW176785   8.530   3.743   5.354  0.6342  0.5672  0.5849
23309SOL    HW276786   8.668   3.741   5.292 -0.2493 -0.0977 -1.4557
23310SOL     OW76787   2.725  11.098   7.160 -0.6956  0.2587  0.1998
23310SOL    HW176788   2.711  11.029   7.095  0.8036 -0.5815  0.7086
23310SOL    HW276789   2.767  11.168   7.111 -1.6461  0.5580 -0.1938
23311SOL     OW76790   1.553   5.388  12.156 -0.2016  0.5014  0.1558
23311SOL    HW176791   1.596   5.307  12.130 -1.3176 -0.4468  1.1431
23311SOL    HW276792   1.467   5.385  12.114 -0.1186  1.3531 -0.0896
23312SOL     OW76793  12.228   2.388   7.336 -0.6367 -1.0442 -0.0814
23312SOL    HW176794  12.192   2.448   7.401  0.2817 -1.3507  0.7432
23312SOL    HW276795  12.189   2.303   7.358 -1.4369 -0.8871 -0.8441
23313SOL     OW76796   1.823   4.470   9.890  0.8522 -0.0285 -0.7257
23313SOL    HW176797   1.813   4.556   9.930  1.0839  0.2802 -1.3074
23313SOL    HW276798   1.789   4.409   9.955  2.6246  0.3075  0.5848
23314SOL     OW76799  11.042   7.552   6.914 -0.1738 -0.4685 -0.3424
23314SOL    HW176800  10.958   7.518   6.946 -0.9422  0.8574 -0.8538
23314SOL    HW276801  11.018   7.628   6.861  1.3622 -0.1126 -0.5749
23315SOL     OW76802   2.238   6.949   7.138  0.0598  0.4241 -0.0440
23315SOL    HW176803   2.155   6.906   7.159  0.1066  0.2423 -0.2227
23315SOL    HW276804   2.270   6.901   7.062 -0.7286  1.8867 -1.3568
23316SOL     OW76805   4.877   0.147   4.793  0.0867  0.5084  0.0112
23316SOL    HW176806   4.866   0.239   4.816  0.6197  0.6052 -0.1221
23316SOL    HW276807   4.828   0.100   4.860 -0.9015  0.9190 -0.4006
23317SOL     OW76808   6.941   9.281  10.594  0.5594  0.0631 -0.8252
23317SOL    HW176809   6.980   9.347  10.537 -0.8113  0.5278 -1.2384
23317SOL    HW276810   6.966   9.198  10.553  0.6484  0.3637 -1.3995
23318SOL     OW76811   9.778   0.640   3.652  0.0641  0.4515 -0.3524
23318SOL    HW176812   9.853   0.688   3.618  0.6010  0.0823  0.2960
23318SOL    HW276813   9.779   0.556   3.605 -0.5155  0.8168 -1.0389
23319SOL     OW76814   7.648   0.881   6.843  0.5607  0.9556 -0.4520
23319SOL    HW176815   7.705   0.958   6.852  0.0911  1.1476  1.2941
23319SOL    HW276816   7.561   0.914   6.863 -0.0537  0.4602 -2.1596
23320SOL     OW76817  10.308   5.885   6.933 -0.8766 -0.1186 -0.8956
23320SOL    HW176818  10.324   5.795   6.960 -1.3888 -0.1585 -0.7166
23320SOL    HW276819  10.359   5.895   6.852  2.0071  0.5049  0.8513
23321SOL     OW76820   1.627   5.449  11.084  0.0474 -0.4688 -0.4094
23321SOL    HW176821   1.558   5.383  11.097  0.2445 -0.6919 -0.4834
23321SOL    HW276822   1.703   5.398  11.057  0.0509 -0.1528 -0.9928
23322SOL     OW76823   3.863   2.654   7.620  0.2490  0.1464 -0.2933
23322SOL    HW176824   3.859   2.565   7.656  0.6279 -0.0912 -0.8351
23322SOL    HW276825   3.811   2.651   7.540 -0.6412  0.6944  0.2465
23323SOL     OW76826   9.497   0.008   1.040 -0.2820 -0.2359  0.2615
23323SOL    HW176827   9.456   0.019   1.126  1.0376 -0.9592  1.0168
23323SOL    HW276828   9.436   0.050   0.979 -1.7797 -0.6208  1.4098
23324SOL     OW76829  11.660   8.180   4.534 -0.7051 -0.7203 -0.0661
23324SOL    HW176830  11.732   8.189   4.471 -1.2187  0.8672 -0.4738
23324SOL    HW276831  11.701   8.143   4.612  1.0029  1.9443  0.4188
23325SOL     OW76832   7.282  11.564   5.407 -0.5173 -0.0315 -0.2296
23325SOL    HW176833   7.218  11.494   5.421 -0.1361 -0.2774  0.3369
23325SOL    HW276834   7.348  11.525   5.349 -0.4563 -0.0507 -0.1481
23326SOL     OW76835   2.127   4.394   1.905  0.4927  0.4070  0.1137
23326SOL    HW176836   2.175   4.475   1.889 -0.1040  0.9435  0.9547
23326SOL    HW276837   2.152   4.368   1.994 -0.1481  0.2609  0.2604
23327SOL     OW76838   9.137   5.410   1.425  0.6350 -0.1945  0.0678
23327SOL    HW176839   9.154   5.338   1.486 -1.4305 -1.9944 -1.3240
23327SOL    HW276840   9.067   5.461   1.467  2.0223  1.0217  1.0019
23328SOL     OW76841   1.034   5.007  11.176  0.3274 -0.2361 -0.3039
23328SOL    HW176842   0.956   5.050  11.141 -0.1356 -0.5020  0.3716
23328SOL    HW276843   1.087   5.079  11.211  0.5741 -0.0170 -1.0931
23329SOL     OW76844   2.951   7.550   0.620  0.0188 -0.8815 -0.1121
23329SOL    HW176845   2.870   7.521   0.662 -0.7176  0.4782 -0.5529
23329SOL    HW276846   2.934   7.538   0.526  0.4756 -0.9415 -0.1884
23330SOL     OW76847   5.996   9.527   7.363 -0.2641 -0.4299 -0.1579
23330SOL    HW176848   6.003   9.457   7.428  0.8920 -1.0520 -0.9062
23330SOL    HW276849   6.084   9.565   7.358 -0.3969 -0.2112 -1.1369
23331SOL     OW76850   3.914   3.977  12.234  0.1757  0.1613  0.2690
23331SOL    HW176851   3.989   4.032  12.259  0.6258  0.3312 -1.2857
23331SOL    HW276852   3.889   3.932  12.314  1.5217  0.6116  0.9815
23332SOL     OW76853  12.110   7.090   3.300 -0.0249 -0.4234  0.4945
23332SOL    HW176854  12.014   7.085   3.298 -0.0780  0.5256 -0.5211
23332SOL    HW276855  12.134   7.050   3.383 -1.2280 -1.7350  0.2539
23333SOL     OW76856   7.476   3.430   7.754  1.2091  0.1318  0.1496
23333SOL    HW176857   7.497   3.353   7.808  1.8787 -0.3567 -0.7861
23333SOL    HW276858   7.396   3.405   7.707  1.0927  0.2411  0.2880
23334SOL     OW76859   4.391   1.443   8.926 -0.3166  0.7516  0.3720
23334SOL    HW176860   4.311   1.471   8.882 -0.7107 -1.0923 -0.1778
23334SOL    HW276861   4.406   1.354   8.893  1.4248  0.7052  1.2039
23335SOL     OW76862  10.909   7.504   5.474  0.4844  0.3659 -0.1674
23335SOL    HW176863  10.947   7.536   5.555  1.8909  1.5805 -1.2385
23335SOL    HW276864  10.837   7.448   5.501 -0.3370  2.2655  1.8860
23336SOL     OW76865   6.027   7.885   9.704  0.3524  0.7916  0.4215
23336SOL    HW176866   5.993   7.799   9.730  0.4704  0.2765 -1.0362
23336SOL    HW276867   6.048   7.875   9.611  3.7126  1.2851  0.9717
23337SOL     OW76868   7.305   2.374   7.821 -0.0505 -0.1909  0.5092
23337SOL    HW176869   7.355   2.339   7.747 -0.8823 -0.1635 -0.0781
23337SOL    HW276870   7.346   2.459   7.839 -0.2749  0.1153 -0.3808
23338SOL     OW76871   4.114  11.899   8.296 -0.2196 -0.2617  0.0054
23338SOL    HW176872   4.067  11.834   8.348 -2.0205  0.4155 -0.6969
23338SOL    HW276873   4.051  11.970   8.284  1.0203  0.7254 -0.9290
23339SOL     OW76874   1.225   3.017   8.351 -0.2242  0.2682 -0.3013
23339SOL    HW176875   1.285   3.087   8.377 -0.4523 -0.0076  1.0457
23339SOL    HW276876   1.270   2.937   8.378 -0.6831 -0.0062 -0.3500
23340SOL     OW76877   0.502  10.408   7.492  0.4838  0.7287 -0.3943
23340SOL    HW176878   0.576  10.385   7.549  0.4644 -0.3849 -0.8097
23340SOL    HW276879   0.425  10.385   7.543  0.4449  0.6144 -0.5062
23341SOL     OW76880  10.010  10.341   9.737 -0.5817  0.0504 -0.3562
23341SOL    HW176881  10.101  10.368   9.739 -0.4543 -0.3695  1.4289
23341SOL    HW276882   9.960  10.420   9.758 -0.9358  1.0167 -4.0794
23342SOL     OW76883   9.748  10.704   0.641 -0.4256 -0.3119  0.4068
23342SOL    HW176884   9.827  10.729   0.688 -0.0938  1.1296 -0.8272
23342SOL    HW276885   9.766  10.728   0.550 -2.1783 -0.1937  0.0613
23343SOL     OW76886   7.089   6.821   2.043 -0.0687  0.1485 -0.2196
23343SOL    HW176887   7.167   6.773   2.071 -0.6010  0.9569  3.0086
23343SOL    HW276888   7.017   6.759   2.054 -0.2862  0.4546  0.0897
23344SOL     OW76889  10.845   1.775   2.440 -0.0797 -0.4398 -0.0245
23344SOL    HW176890  10.888   1.843   2.388 -1.2067  0.2706 -0.0515
23344SOL    HW276891  10.894   1.774   2.523  0.6825 -0.4373 -0.4624
23345SOL     OW76892  10.636   7.303  10.162 -0.1126  0.1352 -0.6299
23345SOL    HW176893  10.658   7.214  10.188  2.5549  1.0015  0.3842
23345SOL    HW276894  10.690   7.359  10.218 -0.7480  2.3672 -2.1039
23346SOL     OW76895   2.226   3.880   8.643  0.3739  0.2979  0.1025
23346SOL    HW176896   2.285   3.932   8.588  1.0784  0.1487  0.7002
23346SOL    HW276897   2.192   3.942   8.707 -0.0625  0.3615 -0.1805
23347SOL     OW76898   6.054  11.981   9.036 -0.0063  0.0577  0.3343
23347SOL    HW176899   6.101  12.017   8.961  1.7221 -0.7260  0.9728
23347SOL    HW276900   6.056  11.886   9.022  0.1207 -0.0815  1.2385
23348SOL     OW76901   6.414   5.577   1.811 -0.5993  0.2381  0.3855
23348SOL    HW176902   6.465   5.514   1.862 -0.2007 -0.7005 -1.1107
23348SOL    HW276903   6.367   5.524   1.746  0.6875  1.4955 -1.7251
23349SOL     OW76904   4.136   0.867   7.375 -0.2605 -0.3717  0.7331
23349SOL    HW176905   4.110   0.931   7.441 -1.1561 -0.5110  0.5181
23349SOL    HW276906   4.195   0.916   7.317 -1.4020  0.4459  0.2187
23350SOL     OW76907   3.167   7.148   2.025 -0.2101 -0.5345  0.1068
23350SOL    HW176908   3.149   7.211   1.956  1.2220  0.4223  0.5623
23350SOL    HW276909   3.193   7.201   2.100  0.6246 -1.6426  0.6340
23351SOL     OW76910   8.419   4.462   0.009  0.2470  0.0876  0.6303
23351SOL    HW176911   8.415   4.375   0.050 -1.5105 -0.1351  0.0328
23351SOL    HW276912   8.451   4.445  -0.080  1.8239  0.3158  1.1140
23352SOL     OW76913   2.380  11.229   5.753  0.2113  0.1881 -0.1363
23352SOL    HW176914   2.317  11.203   5.686 -1.2159  1.0785  0.8148
23352SOL    HW276915   2.387  11.324   5.744 -1.2356  0.5524  1.9672
23353SOL     OW76916  10.147   8.511   7.773 -0.7725  0.5360  0.0594
23353SOL    HW176917  10.128   8.597   7.735 -0.7611  0.5866  0.1687
23353SOL    HW276918  10.145   8.451   7.698  1.3355  0.9315 -0.3962
23354SOL     OW76919   9.298   2.807   7.606  0.2194  0.1684 -0.5416
23354SOL    HW176920   9.361   2.878   7.619 -0.0961  0.2623  0.5314
23354SOL    HW276921   9.225   2.828   7.664  0.5749 -1.5896  0.6286
23355SOL     OW76922   2.536   1.961   4.182  0.1024 -0.2910  0.2201
23355SOL    HW176923   2.538   2.053   4.208 -1.4193 -1.0210  3.4160
23355SOL    HW276924   2.446   1.946   4.153  0.0926 -0.9174  0.5381
23356SOL     OW76925  11.090   2.201   0.182  0.0444 -0.6566  0.3715
23356SOL    HW176926  10.999   2.218   0.160  0.1161 -0.6386  0.0875
23356SOL    HW276927  11.099   2.231   0.272 -0.4214 -1.3483  0.6553
23357SOL     OW76928  11.455  12.004   1.653 -0.1024 -0.0141 -0.4467
23357SOL    HW176929  11.451  11.976   1.745 -0.4394  0.2706 -0.3696
23357SOL    HW276930  11.391  12.075   1.648 -0.3272 -0.2553 -0.9810
23358SOL     OW76931   4.268   6.103   6.927  0.3003  0.5922 -0.1953
23358SOL    HW176932   4.187   6.154   6.923 -0.5184 -0.7073 -0.7791
23358SOL    HW276933   4.311   6.132   7.008 -1.8258 -0.2577  1.3297
23359SOL     OW76934  12.067  12.460   0.240  0.0915 -0.2743 -0.2572
23359SOL    HW176935  12.089  12.550   0.260  0.2011 -1.0883  4.1716
23359SOL    HW276936  12.152  12.415   0.233  0.0299 -0.6360  1.1535
23360SOL     OW76937   9.381  11.997   6.016  0.0352  0.7640 -0.0367
23360SOL    HW176938   9.401  11.986   5.923  0.0306 -0.2515  0.0722
23360SOL    HW276939   9.385  12.092   6.030 -1.2673  1.0463 -1.3471
23361SOL     OW76940  11.201   8.654  10.367 -0.0357  0.1897  0.2186
23361SOL    HW176941  11.183   8.560  10.369  2.1573 -0.2790  0.5792
23361SOL    HW276942  11.190   8.682  10.458 -0.7692  0.3068  0.0961
23362SOL     OW76943   1.198  11.388   0.023 -0.1461  0.1503  0.3736
23362SOL    HW176944   1.177  11.330  -0.050 -0.5998  0.2984  0.3821
23362SOL    HW276945   1.138  11.361   0.093 -0.8845  1.1113  0.1360
23363SOL     OW76946   3.139   6.781   1.259 -0.1901  0.9844 -0.4116
23363SOL    HW176947   3.052   6.745   1.272  0.3421 -0.2617 -0.1843
23363SOL    HW276948   3.180   6.723   1.194  0.3555  1.7590 -0.7870
23364SOL     OW76949   7.739   5.303   7.129  0.1236 -0.2996 -0.3817
23364SOL    HW176950   7.754   5.389   7.168  0.4909 -0.4165 -0.2616
23364SOL    HW276951   7.691   5.321   7.048 -1.8714 -0.1481  0.7628
23365SOL     OW76952   8.635   5.892   5.440  0.3478  0.0601  0.3488
23365SOL    HW176953   8.644   5.905   5.345  1.9474  0.3721  0.5197
23365SOL    HW276954   8.589   5.809   5.449  2.9851 -1.6604 -0.7314
23366SOL     OW76955   9.691   1.571   9.067  0.2283 -0.1345  0.7903
23366SOL    HW176956   9.596   1.584   9.074  0.4666  1.6718  1.3027
23366SOL    HW276957   9.724   1.657   9.040  1.5205 -1.3018 -1.7035
23367SOL     OW76958   2.326   0.449   5.348  0.7316  0.0733 -0.1850
23367SOL    HW176959   2.381   0.407   5.414 -0.5244  0.4220  1.1411
23367SOL    HW276960   2.257   0.385   5.330  1.2168 -0.1330 -1.3942
23368SOL     OW76961   0.816  10.611   0.328  0.3550 -0.3607  0.3100
23368SOL    HW176962   0.770  10.587   0.248  0.3923 -2.8326  0.9468
23368SOL    HW276963   0.747  10.623   0.393  0.4589 -1.1500  0.5682
23369SOL     OW76964  11.870   5.234   7.392  0.2822 -0.4190  0.1726
23369SOL    HW176965  11.810   5.267   7.325 -1.1617  0.5284  1.8304
23369SOL    HW276966  11.951   5.283   7.379 -0.2753  0.3921 -0.3354
23370SOL     OW76967   7.493   8.887   0.034 -0.8468  0.3286  0.4339
23370SOL    HW176968   7.585   8.901   0.056 -0.8242  1.4720 -0.2924
23370SOL    HW276969   7.462   8.824   0.099  0.1649  0.7588  1.3720
23371SOL     OW76970   7.589   2.494   0.822  0.6837 -0.3665 -0.2348
23371SOL    HW176971   7.523   2.556   0.793  0.4632  0.3962  1.7121
23371SOL    HW276972   7.641   2.543   0.886  1.5840 -1.6723  0.0734
23372SOL     OW76973   9.945   2.014  10.817 -0.2718  0.4854  0.0630
23372SOL    HW176974   9.901   1.929  10.813 -1.2806  1.0339 -2.1765
23372SOL    HW276975  10.023   1.998  10.871 -0.5018 -1.8251 -0.1673
23373SOL     OW76976  10.667   7.967   8.263 -0.3442  0.3700  0.3048
23373SOL    HW176977  10.676   7.903   8.192 -1.1143  0.5604  0.0313
23373SOL    HW276978  10.577   7.956   8.294  0.2058 -0.2299  1.7692
23374SOL     OW76979   7.244  12.530   5.957 -0.0385 -0.1557 -0.0220
23374SOL    HW176980   7.275  12.610   5.916 -0.4770 -0.6960 -1.4920
23374SOL    HW276981   7.157  12.552   5.990  0.5911  0.4754  1.2752
23375SOL     OW76982   6.806   5.769  12.428 -0.3542 -0.2449 -0.9403
23375SOL    HW176983   6.875   5.782  12.363 -0.5697  0.2257 -1.0807
23375SOL    HW276984   6.829   5.827  12.500 -0.1652 -0.6990 -0.6322
23376SOL     OW76985   7.117   5.063   0.027 -0.4387  0.1430 -0.6932
23376SOL    HW176986   7.094   5.071   0.119  0.0538 -0.0664 -0.5458
23376SOL    HW276987   7.051   5.004  -0.010 -0.4086 -0.0856 -0.3835
23377SOL     OW76988  10.610  10.689   3.969 -0.1019  0.3320 -0.8191
23377SOL    HW176989  10.640  10.607   3.928 -0.5150  0.3095 -1.0725
23377SOL    HW276990  10.686  10.747   3.963  0.7776 -0.5466  0.8261
23378SOL     OW76991  10.311  11.233   8.919  0.1797 -0.0171 -0.1448
23378SOL    HW176992  10.270  11.184   8.848 -0.4887 -0.6304  0.6413
23378SOL    HW276993  10.249  11.303   8.939  0.3855  0.1799 -0.2007
23379SOL     OW76994   5.308  10.021   5.665 -0.8114 -0.0731 -0.2529
23379SOL    HW176995   5.233  10.017   5.724 -1.0399  1.9678 -0.3440
23379SOL    HW276996   5.279  10.078   5.593 -0.0408 -1.3411 -1.6280
23380SOL     OW76997   5.685   2.536   1.008  0.5569 -0.1457  0.0803
23380SOL    HW176998   5.625   2.547   1.082  1.4949  2.3174  0.5632
23380SOL    HW276999   5.641   2.472   0.951 -1.9846  0.6850  0.9623
23381SOL     OW77000   3.582   1.742   7.173  0.7807  0.3219  0.4598
23381SOL    HW177001   3.573   1.666   7.117  3.4521 -0.1182  0.5154
23381SOL    HW277002   3.521   1.806   7.137 -0.0517 -1.1294 -0.8104
23382SOL     OW77003   9.211   8.014  10.811  0.2814 -0.6535  0.1795
23382SOL    HW177004   9.215   7.927  10.851  1.7974 -0.1092  1.3178
23382SOL    HW277005   9.123   8.045  10.831  0.0866 -1.4985  0.6949
23383SOL     OW77006   4.006   0.628  11.915  0.0058  0.0400 -0.0686
23383SOL    HW177007   4.033   0.641  12.005 -0.3473 -1.3222  0.2586
23383SOL    HW277008   3.978   0.715  11.886  2.8466  1.1279  0.1518
23384SOL     OW77009   1.703   6.301   0.303  0.5213  0.1016 -0.2214
23384SOL    HW177010   1.780   6.354   0.287  0.2741  0.6801  0.4746
23384SOL    HW277011   1.658   6.298   0.218  0.8613  0.4698 -0.4160
23385SOL     OW77012   6.058   0.587   4.120 -0.4839  0.1475  0.0280
23385SOL    HW177013   6.131   0.621   4.068  0.8141  1.0598  2.3042
23385SOL    HW277014   6.041   0.500   4.083 -1.1064  1.4878 -3.2302
23386SOL     OW77015   3.787   1.366   0.287 -0.1407 -0.4535  1.0172
23386SOL    HW177016   3.880   1.381   0.308 -0.1974  0.2597  0.8118
23386SOL    HW277017   3.764   1.286   0.334  1.5121 -2.6949 -1.7032
23387SOL     OW77018   0.510   0.868   9.717  0.1509  0.0049  0.2716
23387SOL    HW177019   0.567   0.849   9.792  1.7866  0.1171 -0.8983
23387SOL    HW277020   0.543   0.812   9.647 -0.5111  0.8531 -0.7455
23388SOL     OW77021   8.541   2.965   2.727 -0.7746 -0.0963  0.2629
23388SOL    HW177022   8.612   2.952   2.664 -1.6385 -2.2187 -0.3522
23388SOL    HW277023   8.574   3.034   2.785  1.9826 -1.2265  0.2331
23389SOL     OW77024   1.776   9.749   8.540  0.3644 -0.3755 -0.1461
23389SOL    HW177025   1.700   9.770   8.486 -1.0883 -1.0324  1.5488
23389SOL    HW277026   1.784   9.653   8.533  1.2005 -0.2846 -0.5171
23390SOL     OW77027   8.589   6.386   3.659 -0.3523  0.1787 -0.2983
23390SOL    HW177028   8.521   6.352   3.601 -1.2097 -0.7942  1.2038
23390SOL    HW277029   8.551   6.377   3.747  0.9541  1.4657  0.4239
23391SOL     OW77030   0.253   6.785   4.544 -0.7125  0.0108  0.4624
23391SOL    HW177031   0.292   6.868   4.515 -1.9266  0.4295 -0.0527
23391SOL    HW277032   0.215   6.806   4.630  0.7339 -0.5755  1.2816
23392SOL     OW77033  10.515   9.777   9.851 -0.0870  0.2302 -0.4786
23392SOL    HW177034  10.534   9.685   9.870 -0.7581  0.1809 -0.0444
23392SOL    HW277035  10.472   9.810   9.930  0.7021  1.0883 -0.3862
23393SOL     OW77036   7.090  12.125   8.045 -0.2987 -0.2243 -0.1812
23393SOL    HW177037   7.005  12.148   8.007  0.0668 -0.7838 -1.3931
23393SOL    HW277038   7.146  12.110   7.970  0.5183 -1.1774  0.5982
23394SOL     OW77039   5.873   6.790   8.220  0.1251 -0.1774  0.0713
23394SOL    HW177040   5.857   6.883   8.236  0.2383 -0.2449  0.6035
23394SOL    HW277041   5.963   6.787   8.188  0.0846 -0.0932 -0.0520
23395SOL     OW77042   0.403   7.604   7.190 -0.2165  0.7350 -1.1352
23395SOL    HW177043   0.477   7.607   7.129  0.8763 -0.6375  0.0467
23395SOL    HW277044   0.366   7.516   7.179 -0.9057  0.9798 -0.8240
23396SOL     OW77045   2.300  10.862   9.886  0.3397 -0.2717  0.1062
23396SOL    HW177046   2.273  10.770   9.882  0.1544 -0.2486  0.6654
23396SOL    HW277047   2.277  10.897   9.801 -0.9609 -0.3832  0.3935
23397SOL     OW77048   1.353   3.385  11.604  0.0362 -0.1214 -0.1495
23397SOL    HW177049   1.326   3.339  11.525 -1.1727  0.0021  0.1674
23397SOL    HW277050   1.444   3.408  11.589  0.3249 -1.6131 -0.7875
23398SOL     OW77051  11.285   4.429   9.466 -0.1058  0.5269  0.0901
23398SOL    HW177052  11.229   4.380   9.527 -0.2099  0.8995  0.2929
23398SOL    HW277053  11.241   4.513   9.456  0.3365  0.7633  0.1288
23399SOL     OW77054   5.101   6.335   4.489 -0.1884  0.7048  0.0301
23399SOL    HW177055   5.079   6.266   4.552 -1.6422  0.5909 -0.5675
23399SOL    HW277056   5.164   6.390   4.536 -0.2610 -0.0880  1.1140
23400SOL     OW77057   3.893   8.491  12.301  0.0842  0.2270 -0.1379
23400SOL    HW177058   3.854   8.416  12.347  2.5798  0.1845  2.1689
23400SOL    HW277059   3.830   8.562  12.311 -0.9114 -0.7143  0.4222
23401SOL     OW77060   3.437  10.614   5.378  0.5182 -0.5307 -0.1308
23401SOL    HW177061   3.417  10.531   5.422 -0.1943  0.4835  1.5672
23401SOL    HW277062   3.352  10.649   5.353  0.8513 -0.5533 -1.3884
23402SOL     OW77063   2.127   2.457   1.464 -0.1842  0.1861 -0.2094
23402SOL    HW177064   2.189   2.385   1.451 -0.8781 -0.1555 -1.8865
23402SOL    HW277065   2.154   2.497   1.547  0.5077 -1.7167  0.5484
23403SOL     OW77066  12.039   4.919   0.292 -0.1180  0.1292 -0.3192
23403SOL    HW177067  12.131   4.916   0.268  0.1223  0.4458  0.5199
23403SOL    HW277068  11.999   4.846   0.245  0.4233  0.3929 -1.2135
23404SOL     OW77069   9.029  12.034  12.255  0.1785 -0.1059 -0.2299
23404SOL    HW177070   8.967  12.003  12.321  3.4441  0.4172  3.4619
23404SOL    HW277071   9.005  12.126  12.242 -1.0539 -0.4460 -0.5280
23405SOL     OW77072   0.064   7.233   7.900  0.3534  0.1439  0.0467
23405SOL    HW177073   0.060   7.228   7.995 -1.7749  2.3083  0.1643
23405SOL    HW277074  -0.008   7.178   7.870  0.4953  0.1342 -0.2793
23406SOL     OW77075   2.986   8.209   3.549  0.4423 -0.7605  0.4999
23406SOL    HW177076   3.078   8.195   3.573  1.4513  1.5263 -1.6006
23406SOL    HW277077   2.970   8.301   3.568 -1.1424 -0.8951 -0.0347
23407SOL     OW77078   6.084   2.312   7.106 -0.2544  0.2676  0.0565
23407SOL    HW177079   6.023   2.333   7.034 -1.5524  2.2981  1.6281
23407SOL    HW277080   6.068   2.220   7.124  0.6233 -0.5184 -2.6591
23408SOL     OW77081   4.164   9.004   4.174 -0.0473  0.4938  0.0879
23408SOL    HW177082   4.172   9.086   4.222  0.1103  2.1710 -2.6501
23408SOL    HW277083   4.070   8.990   4.165 -0.0673  0.8236 -0.1959
23409SOL     OW77084   5.274   7.443  10.185 -0.1500  0.8335  0.8355
23409SOL    HW177085   5.316   7.359  10.204  0.3950 -0.0149 -3.1337
23409SOL    HW277086   5.187   7.436  10.223 -1.6296 -3.3729 -2.4775
23410SOL     OW77087   0.386   4.343   2.513  0.1388 -0.4911  0.2695
23410SOL    HW177088   0.308   4.365   2.564 -2.0300 -1.3523 -2.4239
23410SOL    HW277089   0.389   4.410   2.444  2.2168 -0.0985  0.6845
23411SOL     OW77090   5.959   9.623   9.447  0.1377  0.1944 -1.0280
23411SOL    HW177091   5.956   9.682   9.522 -3.8499 -1.0226  0.0367
23411SOL    HW277092   6.022   9.555   9.472 -0.3786  0.3432  0.8247
23412SOL     OW77093   2.037   1.117   4.653  0.3864 -0.1965 -0.1742
23412SOL    HW177094   1.988   1.175   4.712  3.2959 -0.1406  2.4276
23412SOL    HW277095   2.101   1.174   4.611  0.0209 -0.7193 -1.4829
23413SOL     OW77096  10.567   4.172   7.267 -0.6323  0.2707  0.4172
23413SOL    HW177097  10.542   4.209   7.182  0.1539  2.0211  0.8937
23413SOL    HW277098  10.534   4.082   7.265 -1.3141  0.5163 -1.4214
23414SOL     OW77099  10.122   0.917   7.928 -0.5963 -0.1062 -0.0298
23414SOL    HW177100  10.151   0.836   7.886 -0.3856 -0.8450  1.4668
23414SOL    HW277101  10.101   0.976   7.855 -0.1351 -1.2763 -1.1467
23415SOL     OW77102  10.564   8.373   2.201 -0.7094  0.0105 -0.4036
23415SOL    HW177103  10.606   8.304   2.149  0.7501  0.1053  0.5918
23415SOL    HW277104  10.562   8.449   2.144 -1.2478 -0.5069 -1.0967
23416SOL     OW77105   6.349   8.484  10.468  0.5480 -0.0981 -0.1161
23416SOL    HW177106   6.380   8.401  10.432 -0.1438  0.1932 -1.4285
23416SOL    HW277107   6.421   8.513  10.525  1.5006 -0.7835 -0.9381
23417SOL     OW77108  10.302   0.574   5.026  0.3495 -0.0988  0.2548
23417SOL    HW177109  10.236   0.523   4.980 -1.3749  1.6520  0.6520
23417SOL    HW277110  10.383   0.558   4.978 -0.6537 -1.1322 -1.1678
23418SOL     OW77111   4.756   7.210  10.074 -0.6065  0.4422 -0.1228
23418SOL    HW177112   4.740   7.265  10.151  1.7602 -0.3144  0.9983
23418SOL    HW277113   4.744   7.121  10.105 -1.5375  0.1899 -1.1641
23419SOL     OW77114   6.550   8.140   6.391 -0.2070  0.6445  0.3239
23419SOL    HW177115   6.531   8.180   6.476  0.0000  1.5990 -0.0711
23419SOL    HW277116   6.479   8.169   6.334  0.7085  1.6523 -0.3374
23420SOL     OW77117  10.864   9.874  12.394  0.1553  0.0008 -0.1386
23420SOL    HW177118  10.883   9.782  12.376  1.0123  0.1640 -0.1128
23420SOL    HW277119  10.831   9.875  12.484  0.7568 -0.2137  0.0916
23421SOL     OW77120   6.600   2.484   1.092 -0.1990  0.6412  0.0261
23421SOL    HW177121   6.639   2.489   1.004  1.0312  0.4923  0.5379
23421SOL    HW277122   6.656   2.423   1.139 -0.0732  1.6853  1.2873
23422SOL     OW77123   3.981   1.521   9.328 -0.7111  0.1780  0.8020
23422SOL    HW177124   3.925   1.572   9.269 -0.4502  0.7400  1.0317
23422SOL    HW277125   3.927   1.506   9.406 -1.1571 -0.8110  0.3190
23423SOL     OW77126   8.557   9.707   1.453 -0.2900 -0.3372 -0.0058
23423SOL    HW177127   8.519   9.786   1.415 -2.5016  0.1444  2.8640
23423SOL    HW277128   8.521   9.635   1.402 -0.9196  0.3543 -0.5563
23424SOL     OW77129   5.508   1.799   0.306  0.2384 -0.1283 -0.1100
23424SOL    HW177130   5.506   1.886   0.266  2.2937  0.4768  0.9747
23424SOL    HW277131   5.594   1.793   0.346 -0.4523 -2.0601  1.2291
23425SOL     OW77132   4.185   0.339   1.905 -0.4607  0.2543  0.0899
23425SOL    HW177133   4.258   0.387   1.943 -0.2608 -0.2628  0.3631
23425SOL    HW277134   4.109   0.396   1.919 -0.3796  0.1000  1.2066
23426SOL     OW77135   8.113   9.185   2.376 -0.2844 -0.4418  0.3105
23426SOL    HW177136   8.142   9.256   2.434 -0.3289  0.8552 -1.1769
23426SOL    HW277137   8.181   9.119   2.382  0.4731  0.3542  0.6597
23427SOL     OW77138  11.545  11.602   3.469 -0.0976  0.4394  0.4874
23427SOL    HW177139  11.629  11.613   3.424 -1.3429 -0.2355 -2.2094
23427SOL    HW277140  11.561  11.532   3.533  1.7639  1.4430  1.1877
23428SOL     OW77141   7.058   2.020   5.834 -0.4330 -0.2267 -0.9411
23428SOL    HW177142   7.023   2.083   5.771  1.1269  1.3029 -0.3646
23428SOL    HW277143   7.012   2.039   5.916  0.8086  0.9975 -0.4806
23429SOL     OW77144   5.547   0.737   2.021 -0.0361 -0.0665  0.3259
23429SOL    HW177145   5.469   0.743   1.967 -0.2455 -0.5429  0.5744
23429SOL    HW277146   5.515   0.744   2.111  0.4741  2.5388  0.3759
23430SOL     OW77147  10.791   5.099  10.593 -0.2144  0.2518 -0.0502
23430SOL    HW177148  10.801   5.160  10.519  2.8078  0.1320  0.1039
23430SOL    HW277149  10.850   5.134  10.660 -0.5340 -1.3404  1.1039
23431SOL     OW77150   4.253  12.224   4.926 -0.2413 -0.0974  0.5125
23431SOL    HW177151   4.295  12.177   4.854 -0.4599  0.1896  0.1912
23431SOL    HW277152   4.236  12.312   4.890  0.0492  0.1875  1.0558
23432SOL     OW77153   8.812  10.760   2.476 -0.5445 -0.0347  0.4876
23432SOL    HW177154   8.857  10.815   2.411  1.3123 -1.5283  0.4308
23432SOL    HW277155   8.789  10.680   2.428  0.2202 -0.8680  1.4787
23433SOL     OW77156  11.975   1.768   0.407 -0.1269 -0.4311 -0.3817
23433SOL    HW177157  11.915   1.792   0.477  0.1749 -0.1970 -0.1994
23433SOL    HW277158  12.055   1.742   0.453  0.0735 -0.2699 -0.6428
23434SOL     OW77159   8.469  11.701   3.996 -0.0700  0.4081  0.6753
23434SOL    HW177160   8.497  11.611   3.980  0.3375  0.7847 -0.8763
23434SOL    HW277161   8.386  11.692   4.043  1.1855 -0.7397  2.8632
23435SOL     OW77162   2.232   3.117   0.761 -0.3623  0.0902 -0.4163
23435SOL    HW177163   2.191   3.174   0.826  0.2869  2.0230 -1.6231
23435SOL    HW277164   2.324   3.145   0.759 -0.1826 -0.5199 -1.5237
23436SOL     OW77165   4.199  10.764   8.989 -0.1754  0.2365  0.2527
23436SOL    HW177166   4.104  10.777   8.979 -0.1803  0.7496  0.8856
23436SOL    HW277167   4.236  10.798   8.907 -0.4895  0.6974  0.2929
23437SOL     OW77168   6.042   8.935   8.346  1.3572  0.2453 -0.2780
23437SOL    HW177169   6.081   8.856   8.310  0.9946  0.1498 -0.4737
23437SOL    HW277170   6.052   8.926   8.441  1.6442  0.1399 -0.3176
23438SOL     OW77171   2.882   3.558  12.137  0.6612  0.2713  0.0905
23438SOL    HW177172   2.827   3.613  12.080 -1.3008 -1.9639 -0.3789
23438SOL    HW277173   2.877   3.599  12.223  0.4329  1.5859 -0.5305
23439SOL     OW77174   5.205   8.094   8.628  0.0160 -0.0284 -0.6043
23439SOL    HW177175   5.220   8.189   8.631 -1.7889  0.3218 -1.2352
23439SOL    HW277176   5.153   8.081   8.550  0.9770 -1.6946 -1.0085
23440SOL     OW77177   7.134   1.599   2.652 -0.5078  0.1804  0.2849
23440SOL    HW177178   7.067   1.566   2.712 -0.7464  0.4288  0.1531
23440SOL    HW277179   7.132   1.694   2.662 -1.7508  0.3864 -1.3615
23441SOL     OW77180   2.101   0.703   4.257  0.3867 -0.3339  0.3165
23441SOL    HW177181   2.089   0.798   4.260 -2.3973 -0.4442 -2.3315
23441SOL    HW277182   2.186   0.690   4.215 -0.1998  1.0853 -1.4501
23442SOL     OW77183   5.361   0.465  12.532 -0.0550 -0.1193 -0.0483
23442SOL    HW177184   5.347   0.473  12.627 -0.3991 -0.7974 -0.0296
23442SOL    HW277185   5.451   0.433  12.525 -0.1803 -0.5132  0.0794
23443SOL     OW77186   1.342   1.593   7.209  0.4203  0.8072 -0.0875
23443SOL    HW177187   1.346   1.570   7.116  0.7130  0.2482  0.0556
23443SOL    HW277188   1.352   1.688   7.211 -0.1844  0.8860 -0.6646
23444SOL     OW77189   9.012   3.849   7.773 -0.0747  0.1586 -0.4990
23444SOL    HW177190   8.994   3.794   7.849 -1.7167 -0.4418 -1.2861
23444SOL    HW277191   9.096   3.817   7.740  0.3001 -0.0564  0.6310
23445SOL     OW77192   0.754   4.126  11.587  0.0265 -0.6749  0.2891
23445SOL    HW177193   0.824   4.106  11.525  1.2406  0.8296  1.1170
23445SOL    HW277194   0.734   4.218  11.573 -2.8338 -1.3499 -0.8810
23446SOL     OW77195   6.939   5.369   2.161 -0.6873 -0.4709 -0.1018
23446SOL    HW177196   7.029   5.350   2.134 -1.3199 -2.1041 -1.2260
23446SOL    HW277197   6.924   5.311   2.236 -1.8301 -2.8025 -2.0082
23447SOL     OW77198   8.056  10.444   7.506 -0.2319 -0.7540  0.3938
23447SOL    HW177199   8.101  10.363   7.482 -0.7457 -0.3315 -2.3138
23447SOL    HW277200   7.986  10.453   7.441 -0.8679  1.3005  1.2910
23448SOL     OW77201   9.363   2.985   8.007 -0.0222 -0.0544  0.2429
23448SOL    HW177202   9.349   2.912   8.068  0.0017 -1.2351 -1.1254
23448SOL    HW277203   9.275   3.005   7.974  0.3702 -2.2770 -2.4812
23449SOL     OW77204   6.962   1.959   4.926  0.2030 -0.1020  0.0948
23449SOL    HW177205   6.877   2.002   4.924  0.5737  0.6779  0.6066
23449SOL    HW277206   6.943   1.867   4.907 -0.9368 -0.2202  1.5680
23450SOL     OW77207  10.999   9.275   2.286 -0.4178 -0.3969 -0.3991
23450SOL    HW177208  10.941   9.203   2.310  1.8404 -2.0410  0.3777
23450SOL    HW277209  11.000   9.331   2.363 -0.0133 -1.0292  0.0625
23451SOL     OW77210   8.979   0.218   6.925 -0.1810  0.0018  0.4363
23451SOL    HW177211   8.921   0.288   6.893  1.3892  1.1479  0.0098
23451SOL    HW277212   8.986   0.234   7.019  0.7138  0.8593  0.2367
23452SOL     OW77213   0.354  10.175   8.828  0.2031 -0.0361 -0.3584
23452SOL    HW177214   0.344  10.144   8.738 -0.9763 -0.7264 -0.0130
23452SOL    HW277215   0.380  10.097   8.878 -1.3336 -0.1787  0.2659
23453SOL     OW77216  11.421  10.166   4.549  0.4660  0.1695 -0.6573
23453SOL    HW177217  11.468  10.183   4.468  0.1551  1.9581 -0.4931
23453SOL    HW277218  11.343  10.222   4.545 -0.0346 -0.4067  0.4557
23454SOL     OW77219  11.837   2.605  11.778 -0.1111  0.1264 -0.3507
23454SOL    HW177220  11.836   2.510  11.768 -1.1620  0.2051 -1.2112
23454SOL    HW277221  11.820   2.620  11.871 -1.4295 -0.5116 -0.4653
23455SOL     OW77222   5.972   1.927   5.035 -0.1044  0.4524  0.2091
23455SOL    HW177223   6.053   1.882   5.011 -1.0687 -0.6332 -1.1378
23455SOL    HW277224   5.916   1.921   4.958 -1.1112  2.0862  0.7492
23456SOL     OW77225   5.334   2.793   5.901 -0.3406  0.0086 -0.3061
23456SOL    HW177226   5.420   2.799   5.944  0.2265  1.3993 -1.5485
23456SOL    HW277227   5.283   2.734   5.957  2.2788 -3.1923 -0.9471
23457SOL     OW77228   6.927   8.969   9.308  0.4015 -0.0483 -0.1346
23457SOL    HW177229   6.852   9.026   9.291  1.3137  1.1931 -0.2039
23457SOL    HW277230   6.970   9.008   9.384  2.1206  0.5318 -1.3311
23458SOL     OW77231   2.250   4.344   9.936 -0.0104  0.6385  0.0215
23458SOL    HW177232   2.264   4.434   9.908  0.8926  0.5079  0.0076
23458SOL    HW277233   2.173   4.315   9.887  0.4495  1.0046 -0.9513
23459SOL     OW77234  12.107  11.558   1.504  0.0989 -0.3620 -0.1770
23459SOL    HW177235  12.189  11.561   1.455  0.0435  0.4719 -0.2358
23459SOL    HW277236  12.058  11.486   1.465  0.6171 -0.5793 -0.4390
23460SOL     OW77237   2.547  12.229   3.999  0.0081 -0.4297 -1.0584
23460SOL    HW177238   2.458  12.263   4.004  0.3865  0.5591 -0.8663
23460SOL    HW277239   2.545  12.170   3.923 -0.5253  0.4808 -1.7788
23461SOL     OW77240   8.749   4.008   3.034 -0.3170  0.2450 -0.5314
23461SOL    HW177241   8.776   3.933   3.088 -1.4685 -0.2240 -0.5793
23461SOL    HW277242   8.692   4.059   3.091 -0.8647  0.1937 -1.0298
23462SOL     OW77243   0.051   8.820  10.820 -0.5043 -0.1264  0.1503
23462SOL    HW177244   0.134   8.866  10.830 -0.1178 -0.7146 -0.2665
23462SOL    HW277245  -0.015   8.884  10.845 -0.1600  1.4422 -2.5419
23463SOL     OW77246   5.433   6.903   1.106  0.3814 -0.5996 -0.0367
23463SOL    HW177247   5.506   6.866   1.056  0.6435  0.8432 -0.7846
23463SOL    HW277248   5.430   6.995   1.079 -0.0859  0.0006  1.9217
23464SOL     OW77249  11.985   0.405  10.548  0.2997 -0.6617 -0.2206
23464SOL    HW177250  11.890   0.397  10.545  0.3733 -1.2259 -1.2122
23464SOL    HW277251  12.005   0.481  10.493  0.3436  0.2852  1.0576
23465SOL     OW77252  12.027  11.967   8.844 -0.0121 -0.2545  0.4857
23465SOL    HW177253  11.981  12.037   8.890 -1.0272  0.8273 -1.9579
23465SOL    HW277254  12.120  11.988   8.856 -0.2789  2.0026 -0.7039
23466SOL     OW77255   1.787  12.111   4.432 -0.4941 -0.0103  0.0568
23466SOL    HW177256   1.714  12.141   4.378 -1.1906 -0.5718  0.6596
23466SOL    HW277257   1.862  12.111   4.373 -1.1082 -0.0495 -0.7456
23467SOL     OW77258   1.572   5.229   3.478 -0.1421 -0.3117  0.0391
23467SOL    HW177259   1.602   5.320   3.482  1.1935 -0.7396  0.1247
23467SOL    HW277260   1.596   5.200   3.390  0.3138 -0.8626  0.3396
23468SOL     OW77261  12.571   0.794   0.018  0.1208 -0.9174 -0.4000
23468SOL    HW177262  12.583   0.858   0.088  0.1599 -0.7793 -0.5305
23468SOL    HW277263  12.540   0.715   0.062  0.9272 -1.0862 -0.1336
23469SOL     OW77264   4.794   9.238   6.767  0.1237 -0.0327  0.5444
23469SOL    HW177265   4.755   9.193   6.841  1.7357 -0.6336  1.0713
23469SOL    HW277266   4.861   9.177   6.734 -0.2770  0.3885 -1.1457
23470SOL     OW77267  10.031   1.657  11.057  0.3150 -0.5097 -0.0890
23470SOL    HW177268  10.034   1.625  10.967 -2.3368 -1.1350 -0.0339
23470SOL    HW277269   9.981   1.591  11.104 -0.6842  1.1207  1.2441
23471SOL     OW77270   5.313   7.186  11.097 -0.8768  0.1713  0.6300
23471SOL    HW177271   5.222   7.174  11.072 -0.9599  1.7388  0.0621
23471SOL    HW277272   5.309   7.224  11.185 -0.8296  1.3508  0.1371
23472SOL     OW77273   7.863   0.582  12.268  0.6512  0.0637 -0.5301
23472SOL    HW177274   7.781   0.590  12.219  0.8990 -0.8666 -1.1120
23472SOL    HW277275   7.835   0.570  12.359  0.1075 -1.1768 -0.8431
23473SOL     OW77276   3.228   5.603  10.817  0.3277 -0.6423  0.2975
23473SOL    HW177277   3.307   5.563  10.783  2.1358  2.2635  0.7215
23473SOL    HW277278   3.206   5.671  10.753  1.5985  2.3783  2.8151
23474SOL     OW77279   7.260   9.587  10.308  0.2017 -0.2377  0.3535
23474SOL    HW177280   7.316   9.513  10.282  0.5231 -0.0101  0.3916
23474SOL    HW277281   7.293   9.660  10.256  0.8356  0.2244  1.3785
23475SOL     OW77282   9.062   0.938   4.114 -0.1324  0.4818 -0.9478
23475SOL    HW177283   9.062   0.904   4.204  0.6286  0.5762 -0.9075
23475SOL    HW277284   9.110   0.873   4.064  0.1089  0.8052 -1.1404
23476SOL     OW77285   6.287   5.383   8.309 -0.4134 -0.2093 -0.1503
23476SOL    HW177286   6.332   5.388   8.393 -0.3912  0.5154 -0.1980
23476SOL    HW277287   6.254   5.472   8.294  0.6109 -0.0140 -1.4792
23477SOL     OW77288   5.912   3.646   4.567 -0.2513 -0.2319  0.1226
23477SOL    HW177289   5.831   3.620   4.611 -0.5705  2.2710  1.2122
23477SOL    HW277290   5.977   3.650   4.638 -0.3627  2.2188  0.1856
23478SOL     OW77291  10.370   8.344   2.401 -0.0927 -0.3823  0.5364
23478SOL    HW177292  10.453   8.336   2.354  0.7992 -0.5740  2.0883
23478SOL    HW277293  10.318   8.270   2.370 -0.2757  0.5047 -1.4932
23479SOL     OW77294   4.089   8.338   7.709 -0.3068  0.2955 -0.4751
23479SOL    HW177295   4.159   8.276   7.726 -2.1397 -2.1388 -1.1924
23479SOL    HW277296   4.123   8.396   7.641  1.2296 -0.3501 -0.2859
23480SOL     OW77297  10.273  10.727   2.558  0.3773  0.4560 -0.4614
23480SOL    HW177298  10.263  10.764   2.646  2.5423  2.8400 -1.0771
23480SOL    HW277299  10.288  10.634   2.573 -2.4633  0.1703  1.4001
23481SOL     OW77300  10.126  11.109  10.117  0.1047  0.0034 -0.6231
23481SOL    HW177301  10.033  11.131  10.109 -0.0861 -0.7406 -0.5036
23481SOL    HW277302  10.166  11.189  10.152 -0.2759  0.7479 -1.8383
23482SOL     OW77303   5.862   1.255   4.162 -0.3486 -0.1000 -0.3242
23482SOL    HW177304   5.831   1.324   4.103 -0.2130  0.6355  0.4558
23482SOL    HW277305   5.913   1.197   4.105 -2.5652 -1.0055 -1.5245
23483SOL     OW77306  10.680   5.960   2.830  0.6563  0.5507 -0.0538
23483SOL    HW177307  10.605   5.921   2.785  2.0116 -0.0139 -1.9339
23483SOL    HW277308  10.701   5.898   2.899  0.5899 -0.2948 -0.7654
23484SOL     OW77309   9.812  12.367   1.317 -0.4053  0.4120  0.8615
23484SOL    HW177310   9.735  12.313   1.298 -0.1092  0.7821 -1.6706
23484SOL    HW277311   9.881  12.332   1.261  0.3187  2.2307  0.5557
23485SOL     OW77312   4.226   0.562   4.398  0.1734  0.3764 -0.2385
23485SOL    HW177313   4.260   0.501   4.332  0.4545  1.5437 -1.2215
23485SOL    HW277314   4.202   0.641   4.347  2.0023  1.9847  1.2434
23486SOL     OW77315   7.104   1.077   6.527 -0.4110 -0.0638 -0.7358
23486SOL    HW177316   7.154   1.057   6.606 -0.2369  2.3066 -0.1794
23486SOL    HW277317   7.170   1.092   6.460 -0.4255  0.8040 -0.5708
23487SOL     OW77318   1.426   3.372  10.311 -0.0529  0.2240  0.6788
23487SOL    HW177319   1.422   3.406  10.401  0.2426  0.7659  0.4875
23487SOL    HW277320   1.452   3.280  10.322 -1.7336 -0.2382  1.2608
23488SOL     OW77321   3.598   0.065   3.677  0.2875 -0.1022 -0.1782
23488SOL    HW177322   3.693   0.067   3.668  0.3308 -0.6387  0.0730
23488SOL    HW277323   3.576   0.149   3.717  0.4009  0.9870 -2.2731
23489SOL     OW77324  10.518   2.988  11.544  0.0346  1.2983  0.3543
23489SOL    HW177325  10.442   2.969  11.489  1.8843  1.8567 -2.6473
23489SOL    HW277326  10.518   2.919  11.610 -1.8180 -0.0270 -0.9358
23490SOL     OW77327   4.200   5.424   3.330  0.1268  0.6093  0.2361
23490SOL    HW177328   4.257   5.499   3.311 -2.9293  2.6362 -1.9105
23490SOL    HW277329   4.191   5.379   3.246 -0.6520 -0.2454  0.7626
23491SOL     OW77330  12.414   6.019   3.400  0.2403 -0.4058  0.1478
23491SOL    HW177331  12.328   5.994   3.433 -1.0561  1.0688 -1.8988
23491SOL    HW277332  12.443   6.089   3.459 -0.6126  0.0480  0.0474
23492SOL     OW77333   6.293  11.107   5.834  0.0747 -0.6412 -0.0224
23492SOL    HW177334   6.381  11.093   5.869  0.7657  2.1090 -0.4405
23492SOL    HW277335   6.307  11.139   5.745 -1.2064  1.9663  0.6282
23493SOL     OW77336   8.920   0.429  10.094  0.2302  0.7342 -0.4018
23493SOL    HW177337   8.879   0.366  10.035  0.1432  0.2646  0.1538
23493SOL    HW277338   8.940   0.504  10.039  3.2916 -0.9624 -1.8326
23494SOL     OW77339  10.941   4.406   4.855  0.6233 -0.3478  0.1211
23494SOL    HW177340  10.893   4.334   4.814  0.9847 -0.2287 -0.5250
23494SOL    HW277341  11.013   4.425   4.794  1.3166 -0.3312  0.9353
23495SOL     OW77342   7.796  11.933  11.448  0.3316  0.1358 -0.2204
23495SOL    HW177343   7.803  11.856  11.504  1.5551  0.5490  0.2221
23495SOL    HW277344   7.833  11.906  11.364 -1.4342 -0.4599 -0.8567
23496SOL     OW77345   7.991   9.351   4.554 -0.4010 -0.5255 -0.0960
23496SOL    HW177346   8.056   9.402   4.602 -1.6476  1.3616 -0.2923
23496SOL    HW277347   8.018   9.358   4.462 -0.7746  0.1409 -0.1630
23497SOL     OW77348  12.419   9.971   9.153 -0.1978  0.2532 -0.1131
23497SOL    HW177349  12.477  10.035   9.114 -0.0888  0.1796 -0.0730
23497SOL    HW277350  12.361   9.943   9.082 -0.2880  0.4452 -0.1146
23498SOL     OW77351   9.599   3.885   9.849  0.6393  0.1786  0.2441
23498SOL    HW177352   9.548   3.964   9.869  0.2583  0.1592 -0.6096
23498SOL    HW277353   9.656   3.911   9.777 -0.5043 -0.6874 -1.0415
23499SOL     OW77354  11.273   5.064   0.481  0.3407  0.0191  0.6270
23499SOL    HW177355  11.212   5.003   0.438  1.6840 -1.6736  0.9909
23499SOL    HW277356  11.329   5.096   0.411 -2.0643  3.1263 -0.0631
23500SOL     OW77357   4.227   1.159  11.948  0.2384 -0.1934  0.1624
23500SOL    HW177358   4.238   1.151  11.853  1.8805 -1.1727  0.3993
23500SOL    HW277359   4.306   1.121  11.984 -1.9973 -3.5360  2.0444
23501SOL     OW77360   2.483   6.677   8.266  0.4803 -0.0010 -0.1914
23501SOL    HW177361   2.533   6.631   8.198  0.3909 -0.0777 -0.2047
23501SOL    HW277362   2.391   6.663   8.242  0.4471  1.5809 -1.1547
23502SOL     OW77363  11.245   0.304   1.966 -0.2382 -0.8304 -0.3409
23502SOL    HW177364  11.230   0.387   2.010 -1.3318  0.2098 -2.5389
23502SOL    HW277365  11.160   0.259   1.971  0.4135 -1.9792  1.0613
23503SOL     OW77366  12.577   2.984   6.522  0.3946  0.0679 -0.3347
23503SOL    HW177367  12.484   2.988   6.545  0.0964 -0.6586 -1.3592
23503SOL    HW277368  12.616   3.059   6.567 -0.4849 -0.2288  0.9746
23504SOL     OW77369   3.088   2.137  10.691 -0.4051 -0.0924 -0.3959
23504SOL    HW177370   3.011   2.138  10.748 -0.2332 -1.3585 -0.1140
23504SOL    HW277371   3.099   2.045  10.667  0.1731  0.2660 -1.6023
23505SOL     OW77372  11.841   2.762  11.583  0.4525 -1.0189 -0.4602
23505SOL    HW177373  11.857   2.701  11.655  2.1733 -0.7216 -0.5528
23505SOL    HW277374  11.924   2.763  11.534 -0.0120  0.3417 -1.2468
23506SOL     OW77375   2.134   2.711   2.736  0.2291 -0.9784 -0.4584
23506SOL    HW177376   2.198   2.641   2.721 -0.6853 -1.9313 -0.0010
23506SOL    HW277377   2.085   2.683   2.813 -1.0308 -0.4854 -1.0505
23507SOL     OW77378   6.996   8.782  10.802 -0.0843  0.2672  0.3732
23507SOL    HW177379   6.972   8.863  10.846  1.2402 -0.1291  1.9415
23507SOL    HW277380   7.063   8.807  10.739 -2.5472  0.9660 -2.1696
23508SOL     OW77381  11.240   8.757   0.269  0.0807  0.1064 -0.1559
23508SOL    HW177382  11.279   8.785   0.186 -1.5905 -0.9416 -1.3562
23508SOL    HW277383  11.168   8.818   0.285  0.3263  0.2413  0.4949
23509SOL     OW77384  11.440   5.189   8.910 -0.0371  0.0010 -0.2446
23509SOL    HW177385  11.458   5.262   8.969 -0.0364  0.1707 -0.4515
23509SOL    HW277386  11.349   5.165   8.928 -1.4979  2.7969 -3.0718
23510SOL     OW77387   5.990   8.250   1.657  0.0953 -0.2906 -0.2340
23510SOL    HW177388   6.015   8.246   1.749  1.0383 -1.1045 -0.5167
23510SOL    HW277389   6.071   8.233   1.609 -0.3493  0.3126 -1.2195
23511SOL     OW77390   5.808   0.745   3.815 -0.1414 -0.2521 -0.5872
23511SOL    HW177391   5.714   0.734   3.827 -0.1003 -0.9100 -0.8678
23511SOL    HW277392   5.838   0.786   3.897 -0.7646  0.5626 -0.7533
23512SOL     OW77393   8.183  11.505   8.697 -0.0017 -0.1331 -0.1315
23512SOL    HW177394   8.181  11.584   8.751 -0.7864  0.4137 -0.9264
23512SOL    HW277395   8.233  11.442   8.749 -1.9793 -0.1469  1.9275
23513SOL     OW77396  10.420  12.098   9.391  0.0300  0.5330  0.4260
23513SOL    HW177397  10.411  12.080   9.484 -0.6219 -2.1824 -0.0716
23513SOL    HW277398  10.340  12.146   9.368 -1.7042 -2.0381  0.6524
23514SOL     OW77399  10.092   4.134   8.227  0.0085 -0.2580 -0.0045
23514SOL    HW177400  10.169   4.104   8.275  0.0772 -0.2078 -0.0826
23514SOL    HW277401  10.055   4.203   8.283  0.8439  0.7251 -0.6404
23515SOL     OW77402   8.001   2.747   6.763  0.5799  0.2669  0.1282
23515SOL    HW177403   8.044   2.802   6.697 -1.5802  0.8010 -0.9310
23515SOL    HW277404   7.916   2.727   6.725 -0.2051 -0.5872  2.2061
23516SOL     OW77405   4.099   8.944   0.305 -0.5140  0.3605  0.4431
23516SOL    HW177406   4.163   8.992   0.356  0.1796  0.8079 -0.7943
23516SOL    HW277407   4.075   9.004   0.234 -2.9868  0.5564  1.3551
23517SOL     OW77408  12.055   5.256   7.865 -0.6168  1.0251  0.1146
23517SOL    HW177409  11.997   5.247   7.790 -2.2035  4.0018  0.8249
23517SOL    HW277410  12.005   5.222   7.939 -0.1371  0.5598  0.2249
23518SOL     OW77411   8.646  11.669   5.650  0.1706  0.0548 -0.4553
23518SOL    HW177412   8.628  11.685   5.743 -0.5379 -2.0856 -0.1694
23518SOL    HW277413   8.739  11.650   5.646  0.1911  0.0950 -0.1774
23519SOL     OW77414   8.505   8.136  12.150  0.1523 -0.1119 -0.3825
23519SOL    HW177415   8.532   8.046  12.133  1.1288 -0.0278  0.5457
23519SOL    HW277416   8.410   8.135  12.146  0.1472 -1.2260 -0.2286
23520SOL     OW77417  12.183  11.911   1.955 -0.5660  0.5931 -0.2158
23520SOL    HW177418  12.088  11.904   1.968 -0.2445 -1.5366  1.8943
23520SOL    HW277419  12.217  11.930   2.042  0.9201  2.6490 -1.1739
23521SOL     OW77420   5.069   3.774   8.433  0.2839  0.3473  0.0326
23521SOL    HW177421   5.134   3.711   8.402 -0.0947 -0.9259  1.6595
23521SOL    HW277422   5.118   3.831   8.492  0.7318  1.9722 -1.7970
23522SOL     OW77423   3.571   9.872   3.909  0.5441 -0.0198  0.0170
23522SOL    HW177424   3.631   9.800   3.888 -1.2430 -1.1060 -1.7552
23522SOL    HW277425   3.572   9.927   3.830 -0.6470  0.0320  0.0256
23523SOL     OW77426   4.018   1.236   9.990  0.1732 -0.1277 -0.2549
23523SOL    HW177427   3.953   1.185  10.038 -0.2127  0.5059 -0.0968
23523SOL    HW277428   3.990   1.229   9.898 -0.0068 -0.0126 -0.2087
23524SOL     OW77429  10.203   0.530   7.261  0.3590  0.0746  0.5960
23524SOL    HW177430  10.189   0.482   7.342  1.0665 -3.4323 -1.1394
23524SOL    HW277431  10.298   0.534   7.251  0.3030  1.3888  0.3952
23525SOL     OW77432   4.793  11.760   0.661 -0.3038 -0.1135 -0.8342
23525SOL    HW177433   4.813  11.673   0.626 -1.2736 -0.1280 -1.4023
23525SOL    HW277434   4.733  11.744   0.733  1.5231 -0.0653  0.7587
23526SOL     OW77435   8.719   0.499   6.249  0.0974 -0.3851  0.2523
23526SOL    HW177436   8.636   0.536   6.219  0.1961  0.9013  1.4542
23526SOL    HW277437   8.740   0.432   6.184 -1.0353  0.4206 -1.0127
23527SOL     OW77438   9.269   2.821   8.204  0.1806 -0.1467  0.1435
23527SOL    HW177439   9.181   2.784   8.204  0.2203 -0.2583  0.6773
23527SOL    HW277440   9.315   2.772   8.273  0.3659  0.5757  0.5450
23528SOL     OW77441   0.800  12.232   3.720 -0.1468  0.6920  0.0798
23528SOL    HW177442   0.792  12.172   3.794  2.2523 -0.2124 -0.3116
23528SOL    HW277443   0.770  12.181   3.644  1.2446  0.1733 -0.1479
23529SOL     OW77444   8.027   0.594   4.428 -0.0317  0.6209 -0.8608
23529SOL    HW177445   8.017   0.517   4.373 -0.9896  1.0904 -1.3905
23529SOL    HW277446   7.940   0.635   4.427  0.7144  2.2782 -1.4696
23530SOL     OW77447   8.166   5.222   4.629  0.2052 -0.1368 -0.0799
23530SOL    HW177448   8.107   5.273   4.684 -0.8279 -0.8107 -0.5266
23530SOL    HW277449   8.108   5.174   4.570  1.2254 -0.5326 -0.7887
23531SOL     OW77450  10.395   5.303   4.662  0.2698 -0.2001 -0.3699
23531SOL    HW177451  10.458   5.300   4.591 -0.3911 -0.5355 -0.9589
23531SOL    HW277452  10.319   5.348   4.625  0.2040  0.2987  0.3573
23532SOL     OW77453   8.544   1.398   2.002  0.0969  0.4711 -0.1486
23532SOL    HW177454   8.457   1.361   2.015  1.0147 -1.0833  2.4521
23532SOL    HW277455   8.537   1.487   2.036 -0.5829  0.4820 -0.3081
23533SOL     OW77456   6.150   2.771   2.972 -0.9622 -0.7330 -0.5877
23533SOL    HW177457   6.199   2.748   3.051 -0.4144  0.6665 -0.4744
23533SOL    HW277458   6.062   2.792   3.003 -1.6131 -2.9672 -0.7526
23534SOL     OW77459   9.412   3.229   0.232 -0.1864 -0.2375  0.1781
23534SOL    HW177460   9.349   3.254   0.165 -0.6380 -0.3942  0.5402
23534SOL    HW277461   9.450   3.147   0.199  0.3636  0.2354 -0.3874
23535SOL     OW77462   7.845  11.991   8.346  0.0721 -0.0485  0.4619
23535SOL    HW177463   7.872  11.927   8.411  1.5022 -0.3068 -0.3321
23535SOL    HW277464   7.802  11.940   8.277  1.1512 -0.1883 -0.1385
23536SOL     OW77465   9.839   7.704  11.454 -0.7836  0.1828  0.3991
23536SOL    HW177466   9.765   7.644  11.456 -0.6968  0.0598 -0.0720
23536SOL    HW277467   9.883   7.690  11.539 -1.3267  0.3030  0.7023
23537SOL     OW77468   8.699   5.582   1.447  0.6372 -0.4200 -0.1239
23537SOL    HW177469   8.774   5.640   1.462  0.3378  0.5933 -2.2814
23537SOL    HW277470   8.730   5.519   1.381 -0.1792 -0.4430 -0.4989
23538SOL     OW77471   0.291  10.896   0.094 -0.0545 -0.4339  0.5331
23538SOL    HW177472   0.302  10.811   0.051 -0.3224  1.1345 -2.9767
23538SOL    HW277473   0.378  10.920   0.124 -0.1291 -2.2668  2.4920
23539SOL     OW77474   4.001   2.917  12.468  0.1245 -0.2761 -0.4598
23539SOL    HW177475   4.095   2.907  12.482  0.0399  0.1044  0.4729
23539SOL    HW277476   3.989   3.008  12.442  0.1231 -0.6161 -1.6889
23540SOL     OW77477   7.505   2.980   0.891 -0.4660  0.6022 -0.2598
23540SOL    HW177478   7.567   3.025   0.948 -0.7240  1.1340 -0.3877
23540SOL    HW277479   7.457   2.922   0.949  0.3336 -0.0255 -0.2041
23541SOL     OW77480   7.902   8.150   5.583  0.1700  0.3371 -0.7875
23541SOL    HW177481   7.902   8.235   5.540 -0.5567  1.1878  0.8279
23541SOL    HW277482   7.928   8.168   5.673 -0.0917 -1.1421 -0.3892
23542SOL     OW77483   0.916  11.561  12.424  0.5488  0.2056  0.4169
23542SOL    HW177484   0.848  11.606  12.375 -0.8488 -0.9610  1.1960
23542SOL    HW277485   0.947  11.492  12.366 -0.0196 -0.2104  0.6014
23543SOL     OW77486   7.626   9.200   1.022  0.1079 -0.0291  0.5095
23543SOL    HW177487   7.641   9.157   0.938 -0.9678  0.6364 -0.0442
23543SOL    HW277488   7.593   9.287   0.999 -1.4999 -0.3041  1.6092
23544SOL     OW77489   2.972   1.862   7.989  0.2224  0.2447 -0.1063
23544SOL    HW177490   3.035   1.790   7.995 -0.3385 -0.1512  1.5083
23544SOL    HW277491   2.989   1.916   8.066 -2.5265 -0.8790  1.4696
23545SOL     OW77492  10.345  11.643   4.990 -0.0407  0.2696  0.0293
23545SOL    HW177493  10.367  11.617   4.901 -0.9024  0.0424 -0.1226
23545SOL    HW277494  10.430  11.647   5.035  0.3077 -0.6891 -0.5156
23546SOL     OW77495  11.257   0.089  11.736 -0.5473 -0.3668 -0.0804
23546SOL    HW177496  11.220   0.122  11.817  1.5166 -0.0202  0.7814
23546SOL    HW277497  11.262   0.165  11.678  2.7241  0.6598  1.3421
23547SOL     OW77498   3.471   1.933   5.359 -1.1065 -0.4118  0.1867
23547SOL    HW177499   3.516   1.900   5.437 -0.3505  0.1770  0.0034
23547SOL    HW277500   3.538   1.934   5.291 -1.5707 -0.1816 -0.2740
23548SOL     OW77501  10.975   6.600   3.978  0.4527  0.3702 -0.2032
23548SOL    HW177502  10.985   6.543   4.055  1.1437  0.2422 -0.3746
23548SOL    HW277503  10.933   6.545   3.913  0.6425  0.2100 -0.1934
23549SOL     OW77504   5.960  12.358   4.961 -0.3365  0.2191 -0.3904
23549SOL    HW177505   6.018  12.289   4.992 -2.0668 -0.8672  0.6434
23549SOL    HW277506   5.874  12.316   4.955 -1.3237  2.1181 -0.3924
23550SOL     OW77507   9.221   2.289  10.730  0.2739 -1.2398  0.1418
23550SOL    HW177508   9.217   2.324  10.819  2.3221 -1.7135  0.4656
23550SOL    HW277509   9.168   2.210  10.732  3.0442 -3.2174  1.9769
23551SOL     OW77510   2.075   0.263   3.686 -0.0367  0.6069  0.0594
23551SOL    HW177511   1.992   0.312   3.680 -0.1111  0.6605  1.2739
23551SOL    HW277512   2.124   0.291   3.609 -1.2740  0.3215 -0.8698
23552SOL     OW77513   2.605   9.556   1.176 -0.5411 -0.8136  0.2574
23552SOL    HW177514   2.570   9.568   1.087  0.8827 -3.1389 -0.7100
23552SOL    HW277515   2.698   9.540   1.163 -0.2515 -0.9125  2.2207
23553SOL     OW77516   0.215   1.544  11.940  0.4587  0.3684 -0.0082
23553SOL    HW177517   0.270   1.510  11.870  1.0303  0.8630  0.1955
23553SOL    HW277518   0.243   1.495  12.018 -0.4522 -0.4703 -0.1846
23554SOL     OW77519   2.386   4.282   4.658  0.5086  0.1776 -0.4470
23554SOL    HW177520   2.321   4.250   4.595  1.0162  0.1761 -0.9694
23554SOL    HW277521   2.410   4.206   4.710 -0.9969  0.4535  0.7544
23555SOL     OW77522   8.604   7.904   9.378  0.1521 -0.0633  0.0873
23555SOL    HW177523   8.677   7.935   9.432  1.5378 -1.3140 -0.9867
23555SOL    HW277524   8.604   7.961   9.302  0.0133 -0.0911  0.0655
23556SOL     OW77525   3.560   8.833   5.830  0.2405 -0.4820  0.2255
23556SOL    HW177526   3.465   8.830   5.831  0.2422 -0.5274  0.2497
23556SOL    HW277527   3.583   8.849   5.738  0.1942  0.0868  0.3039
23557SOL     OW77528   1.717   6.999   5.222 -0.3277  0.2504  0.2645
23557SOL    HW177529   1.755   6.911   5.222  0.1080  0.4245  1.1657
23557SOL    HW277530   1.705   7.020   5.315  0.6292  1.5898  0.1233
23558SOL     OW77531   7.651   8.049   6.543 -0.1820  0.0243 -0.0955
23558SOL    HW177532   7.744   8.072   6.550 -0.1800  0.5405 -1.4832
23558SOL    HW277533   7.609   8.094   6.616  0.7420 -0.8304  1.0101
23559SOL     OW77534   1.001   4.919  11.809  1.0078  0.0017 -0.3457
23559SOL    HW177535   1.002   4.902  11.715 -0.5377 -0.1357 -0.3687
23559SOL    HW277536   0.978   5.012  11.816 -1.9010 -0.6290 -0.1339
23560SOL     OW77537   2.532   2.103  11.239  0.0633 -0.0436  0.0166
23560SOL    HW177538   2.486   2.185  11.223  0.6460  0.5532  1.2175
23560SOL    HW277539   2.536   2.060  11.154 -1.0645  0.7443 -0.4497
23561SOL     OW77540   2.293   5.722   3.500 -0.6077 -0.1792 -0.0074
23561SOL    HW177541   2.212   5.689   3.460 -0.6301  0.5348 -0.5774
23561SOL    HW277542   2.356   5.726   3.428 -0.5714  0.8677  0.0592
23562SOL     OW77543   3.434   3.381   8.036 -0.1921 -0.2368 -0.0056
23562SOL    HW177544   3.353   3.426   8.057 -0.2227 -0.3647  0.1518
23562SOL    HW277545   3.494   3.451   8.011 -0.4155 -0.1631 -0.3313
23563SOL     OW77546   8.366   0.549   1.264  0.7462  0.0753  0.8066
23563SOL    HW177547   8.401   0.594   1.187 -0.8838 -1.6593 -1.0895
23563SOL    HW277548   8.303   0.611   1.301 -0.9663 -0.2159 -1.3583
23564SOL     OW77549   5.174   4.625  11.587 -0.4577  0.3896 -0.3697
23564SOL    HW177550   5.099   4.569  11.567 -1.0189  1.3306 -0.9629
23564SOL    HW277551   5.246   4.588  11.536 -0.1609 -1.2820  1.1682
23565SOL     OW77552   6.713  11.081  11.883  0.1805  0.6236  0.0438
23565SOL    HW177553   6.652  11.007  11.875 -0.9261  1.6659 -1.7563
23565SOL    HW277554   6.799  11.043  11.865 -0.3073 -0.3135 -0.3921
23566SOL     OW77555   2.749   4.418   5.898  0.1627  0.0012 -0.0058
23566SOL    HW177556   2.778   4.486   5.959  1.4537 -0.3897 -0.1448
23566SOL    HW277557   2.774   4.336   5.941 -1.1580 -0.3884  0.0471
23567SOL     OW77558   1.782   2.847   2.972  0.3661  0.2935  0.2038
23567SOL    HW177559   1.866   2.805   2.991 -0.7391 -2.0216  0.3498
23567SOL    HW277560   1.727   2.776   2.939 -1.1283  2.0269 -1.2817
23568SOL     OW77561   2.760   4.020  12.021 -0.9554 -0.6436  0.2757
23568SOL    HW177562   2.840   4.060  11.987  0.6779 -1.0419  3.2785
23568SOL    HW277563   2.748   3.941  11.969 -0.6055  0.4692 -1.5570
23569SOL     OW77564   2.257   0.245   9.572 -0.1372  0.0044  0.3072
23569SOL    HW177565   2.335   0.216   9.525 -0.0958 -1.0156  0.9929
23569SOL    HW277566   2.185   0.227   9.511  0.2061  1.8367 -0.7263
23570SOL     OW77567   5.237   5.131   2.331 -0.1785  0.1342  0.4216
23570SOL    HW177568   5.206   5.193   2.397  0.5591  2.1232 -1.0246
23570SOL    HW277569   5.171   5.134   2.262 -0.1174 -0.7054  0.3166
23571SOL     OW77570   1.383  10.572  12.114  0.7646 -0.3345 -0.3197
23571SOL    HW177571   1.384  10.639  12.182  0.0883 -0.2407 -0.3940
23571SOL    HW277572   1.409  10.618  12.034 -0.1783 -0.0412 -0.4675
23572SOL     OW77573   3.870   2.374   6.048  0.3848 -0.5079 -0.6772
23572SOL    HW177574   3.822   2.328   5.978  2.7943 -3.5331 -0.5606
23572SOL    HW277575   3.802   2.409   6.105 -1.6496  0.1551 -3.3205
23573SOL     OW77576   5.806   3.139   0.329 -0.1931  0.1802  0.8198
23573SOL    HW177577   5.872   3.145   0.398  0.3616  0.4297  0.2748
23573SOL    HW277578   5.845   3.082   0.263 -1.1383 -0.9046  1.1614
23574SOL     OW77579   5.667   7.298   5.107 -0.3243 -0.5008 -0.4119
23574SOL    HW177580   5.686   7.269   5.018 -2.1066  0.9359 -1.3201
23574SOL    HW277581   5.683   7.392   5.106  2.1537 -0.7966  1.5649
23575SOL     OW77582   0.700  10.992   0.951 -0.0608  0.0539 -0.1622
23575SOL    HW177583   0.689  11.027   0.863 -2.8014  0.6110  0.2873
23575SOL    HW277584   0.636  10.921   0.956  0.8132 -0.6778  1.0379
23576SOL     OW77585   7.330   3.251   6.200  0.2169  0.1976 -0.0056
23576SOL    HW177586   7.417   3.287   6.216 -0.4850  1.7064  0.5573
23576SOL    HW277587   7.273   3.297   6.262 -1.2396  0.3422 -1.3990
23577SOL     OW77588   8.308   2.601  10.927  0.1177  0.4043  0.0116
23577SOL    HW177589   8.284   2.558  10.845  1.1860 -0.6189  0.1980
23577SOL    HW277590   8.293   2.534  10.994 -2.8555  1.9059  1.0043
23578SOL     OW77591   1.923   0.225   3.311  1.0388  0.2259 -0.3001
23578SOL    HW177592   1.851   0.225   3.374  0.8230  0.7750 -0.5437
23578SOL    HW277593   1.908   0.302   3.257  0.7728 -0.6809 -1.5469
23579SOL     OW77594   6.679  10.459   1.265  0.4222  0.0034  0.2758
23579SOL    HW177595   6.681  10.554   1.250  3.1493 -0.1872 -1.3221
23579SOL    HW277596   6.771  10.435   1.276 -0.2159 -2.4541  0.8125
23580SOL     OW77597   7.688  12.433   4.226  0.1866  0.2727 -0.2295
23580SOL    HW177598   7.767  12.379   4.232  0.9283  1.4223  0.8454
23580SOL    HW277599   7.721  12.522   4.210 -0.9728  0.5400 -1.2555
23581SOL     OW77600   1.562   2.753   0.763  0.6651 -0.2067  0.5482
23581SOL    HW177601   1.485   2.696   0.772  1.5884 -1.4169  1.0757
23581SOL    HW277602   1.631   2.695   0.731  0.9840  1.1983 -1.4956
23582SOL     OW77603   2.429   5.994   4.505 -0.0904  0.3615 -0.3415
23582SOL    HW177604   2.434   5.912   4.554 -2.1712  0.0455 -0.5617
23582SOL    HW277605   2.486   6.054   4.553  2.9339 -1.6207 -1.1668
23583SOL     OW77606  10.523   9.096  12.144 -0.1580  0.6197  0.1610
23583SOL    HW177607  10.474   9.016  12.126  0.2272 -0.8478  4.4955
23583SOL    HW277608  10.607   9.083  12.098 -0.3322 -1.2152  0.2665
23584SOL     OW77609   6.102   0.029   9.324 -0.2133 -0.2325  0.3471
23584SOL    HW177610   6.170   0.038   9.257 -1.7686 -1.8177 -1.6046
23584SOL    HW277611   6.043  -0.038   9.289 -1.3029 -0.9291  3.2140
23585SOL     OW77612   0.757   8.828   2.985 -0.2880 -0.1990  0.3464
23585SOL    HW177613   0.739   8.839   2.892  0.5528 -3.0302 -0.2430
23585SOL    HW277614   0.851   8.809   2.989  0.1694  1.9874  2.0595
23586SOL     OW77615   0.286   7.934  11.242 -0.1754  0.0893  0.4451
23586SOL    HW177616   0.318   8.020  11.213 -1.4673 -0.0524 -1.5612
23586SOL    HW277617   0.352   7.903  11.304  2.2995  0.8413 -1.6937
23587SOL     OW77618   9.763   8.063   4.401 -0.0879  0.2578 -0.2160
23587SOL    HW177619   9.722   8.011   4.470 -0.7704  1.2399  0.1429
23587SOL    HW277620   9.708   8.048   4.324  0.9988 -1.2953 -0.7577
23588SOL     OW77621   5.907   9.883   7.701 -0.1097  0.1270  0.3502
23588SOL    HW177622   5.922   9.789   7.685  0.5114  0.1955  0.4783
23588SOL    HW277623   5.838   9.907   7.640  0.9095 -0.0391 -0.9049
23589SOL     OW77624   7.722  12.482   8.460  0.3315  0.2129  0.2513
23589SOL    HW177625   7.728  12.447   8.549  1.3383 -1.4425 -0.4274
23589SOL    HW277626   7.800  12.450   8.416 -0.2420  0.8427 -1.3034
23590SOL     OW77627  12.267   4.649   9.728  0.4020 -0.5086 -0.8106
23590SOL    HW177628  12.193   4.703   9.756 -0.2852 -0.0788 -3.2226
23590SOL    HW277629  12.290   4.597   9.805 -1.1149  0.7748  0.5730
23591SOL     OW77630   6.186   8.873   8.617 -0.4241  0.8206  0.1880
23591SOL    HW177631   6.218   8.927   8.689  1.7746  1.6144 -1.2701
23591SOL    HW277632   6.260   8.868   8.556 -1.2729 -2.0950 -0.7563
23592SOL     OW77633   4.409  12.198   5.165  0.2938 -0.6849 -0.8128
23592SOL    HW177634   4.447  12.116   5.199  0.6507 -0.3421 -0.3689
23592SOL    HW277635   4.355  12.170   5.091  1.7401 -1.1628 -1.7416
23593SOL     OW77636   2.946   6.510  10.790  0.3709  0.2056 -0.1649
23593SOL    HW177637   2.973   6.577  10.728  2.3470 -1.2572 -0.9781
23593SOL    HW277638   2.909   6.440  10.736  0.3141 -0.2710  0.4713
23594SOL     OW77639   1.706   7.593  10.841 -0.4355 -0.5175 -0.1420
23594SOL    HW177640   1.742   7.677  10.814  0.3746 -0.2899  1.5026
23594SOL    HW277641   1.634   7.616  10.900 -0.7662 -0.9875 -0.3547
23595SOL     OW77642  10.794  12.420  11.218  0.0872  0.1043 -0.3365
23595SOL    HW177643  10.832  12.389  11.135  1.3044  1.1645 -0.2181
23595SOL    HW277644  10.868  12.421  11.279 -0.7936 -0.6433  0.7768
23596SOL     OW77645   4.500   8.759   7.295  0.4162 -0.2299 -0.2645
23596SOL    HW177646   4.418   8.746   7.343 -1.1010 -1.6206 -2.9929
23596SOL    HW277647   4.567   8.721   7.351 -1.2358 -1.7433  0.7897
23597SOL     OW77648   3.591   6.490   8.310  0.1309  0.2257 -0.0828
23597SOL    HW177649   3.541   6.416   8.276  1.0543 -0.3364 -0.2544
23597SOL    HW277650   3.555   6.506   8.397  2.6453 -3.1981  1.8317
23598SOL     OW77651   6.927   9.470   5.064 -0.0405 -0.5498 -0.2332
23598SOL    HW177652   6.911   9.535   5.133 -0.6520 -0.6783 -0.2463
23598SOL    HW277653   6.873   9.500   4.991 -2.3477 -2.3894  0.5836
23599SOL     OW77654   4.821   6.765   1.424 -0.6354  0.3236  0.1901
23599SOL    HW177655   4.815   6.684   1.476  0.9701 -1.0079 -1.5668
23599SOL    HW277656   4.904   6.804   1.451  0.4663 -0.6441 -1.6310
23600SOL     OW77657   9.401   8.164   3.483  0.3443  0.3777  0.1785
23600SOL    HW177658   9.421   8.257   3.497  0.0898  0.8022 -1.9757
23600SOL    HW277659   9.475   8.131   3.432  0.0313 -0.3885  0.2161
23601SOL     OW77660  12.529   3.406   5.458  0.3455 -0.2898 -0.3397
23601SOL    HW177661  12.441   3.439   5.445  0.3912 -0.2876 -0.6377
23601SOL    HW277662  12.551   3.432   5.548  1.1349  2.2559 -1.1800
23602SOL     OW77663   3.631  11.317   8.163  0.0347  0.3096 -0.9840
23602SOL    HW177664   3.550  11.336   8.211  0.1591 -0.3097 -0.5138
23602SOL    HW277665   3.666  11.403   8.142  0.1294  0.6160  0.3103
23603SOL     OW77666   8.983   0.867   8.524 -0.3160  0.0057  0.2774
23603SOL    HW177667   9.008   0.813   8.599  1.4632  0.8203  0.3197
23603SOL    HW277668   8.915   0.816   8.480 -0.2238 -1.2505  1.5123
23604SOL     OW77669   8.637  11.704   8.723 -0.0106 -0.3102  0.4628
23604SOL    HW177670   8.580  11.759   8.670 -0.3835 -1.0411  0.0871
23604SOL    HW277671   8.585  11.626   8.742 -0.0671  0.1283  2.3233
23605SOL     OW77672   1.187   9.095  10.138 -0.2836 -0.2549 -0.2601
23605SOL    HW177673   1.156   9.169  10.190  0.3797 -0.2447  0.1231
23605SOL    HW277674   1.280   9.112  10.123 -0.0479 -1.1669  0.1038
23606SOL     OW77675   2.477   2.625   3.447 -0.1604  0.1520 -0.2650
23606SOL    HW177676   2.436   2.563   3.507 -0.3443  1.3704  0.9079
23606SOL    HW277677   2.443   2.710   3.473  1.8032  1.0291 -0.3644
23607SOL     OW77678  11.691   4.721   2.028 -0.3723  0.0217  0.1207
23607SOL    HW177679  11.740   4.785   2.079 -1.8601  1.1898  0.1596
23607SOL    HW277680  11.690   4.756   1.939 -1.3784  0.1876  0.1843
23608SOL     OW77681   4.167   8.783  10.207  0.6079  0.2538 -0.5289
23608SOL    HW177682   4.241   8.788  10.147  0.5372  0.0846 -0.6310
23608SOL    HW277683   4.105   8.726  10.163 -0.2780  1.6579 -1.1914
23609SOL     OW77684   1.840   1.535  10.226  0.0316 -0.0518 -0.0416
23609SOL    HW177685   1.876   1.449  10.250  0.3689 -0.3804 -1.6475
23609SOL    HW277686   1.745   1.524  10.230  0.0260 -1.0709 -2.0133
23610SOL     OW77687  12.067   5.769   8.442  0.4117  0.6872 -0.4827
23610SOL    HW177688  12.103   5.846   8.399 -0.8817  1.9466  0.5812
23610SOL    HW277689  11.979   5.796   8.470 -0.7220 -1.7024 -1.4793
23611SOL     OW77690  12.339   2.760   1.128  0.1918  0.6668 -0.5314
23611SOL    HW177691  12.279   2.805   1.069 -0.4389 -0.6322 -0.9158
23611SOL    HW277692  12.287   2.689   1.165  0.5816  1.4411  1.6042
23612SOL     OW77693   5.653  10.924   5.817  0.0580 -0.1188  0.0921
23612SOL    HW177694   5.695  10.935   5.731  0.6040 -0.8264  0.2664
23612SOL    HW277695   5.565  10.894   5.796  0.1336 -0.1289 -0.2248
23613SOL     OW77696   0.189   5.689   1.738 -0.4555 -0.5751 -0.4122
23613SOL    HW177697   0.244   5.754   1.781 -0.7442 -0.5575 -0.0650
23613SOL    HW277698   0.099   5.720   1.753 -0.5541 -0.3578 -1.3513
23614SOL     OW77699   9.695  11.304   5.136  0.8610  0.1973  0.4214
23614SOL    HW177700   9.753  11.239   5.177  2.2698 -0.2595 -2.0859
23614SOL    HW277701   9.721  11.304   5.044 -1.1013  2.2493 -0.2110
23615SOL     OW77702   7.132  10.314   7.444  0.3270 -0.1260 -0.0116
23615SOL    HW177703   7.144  10.226   7.410  0.5952 -0.4579  0.8975
23615SOL    HW277704   7.195  10.320   7.516  2.9235  2.0244 -2.2438
23616SOL     OW77705  12.572  11.667  10.463 -0.1342 -0.0295  0.1498
23616SOL    HW177706  12.567  11.604  10.391  0.4013  0.7093 -0.5407
23616SOL    HW277707  12.605  11.616  10.537  0.8999 -0.4323 -0.5689
23617SOL     OW77708   1.143   0.434   4.189  0.0677 -0.4851 -0.0251
23617SOL    HW177709   1.227   0.447   4.232 -0.3272 -0.9213  0.9164
23617SOL    HW277710   1.156   0.358   4.133 -0.1139 -1.5709  1.3354
23618SOL     OW77711   5.115   4.102   4.068 -0.3243 -0.2858 -0.2750
23618SOL    HW177712   5.123   4.198   4.063  1.9693 -0.3925  0.2232
23618SOL    HW277713   5.096   4.084   4.159  1.5572 -0.3492  0.1584
23619SOL     OW77714  10.523   2.951  11.217 -0.2737 -0.1658 -0.1200
23619SOL    HW177715  10.435   2.923  11.240 -0.7390  1.6547  0.4967
23619SOL    HW277716  10.511   3.001  11.135 -0.0075  0.9825  0.5201
23620SOL     OW77717  12.439   5.043   2.396  0.0671 -0.2085 -0.0613
23620SOL    HW177718  12.413   5.133   2.372  1.3535 -0.1874 -1.5758
23620SOL    HW277719  12.482   5.052   2.481  0.0952  0.6034 -0.1538
23621SOL     OW77720   4.790   8.643  10.717 -0.2901  0.2279  0.1461
23621SOL    HW177721   4.789   8.738  10.701  0.6653  0.5456  1.7486
23621SOL    HW277722   4.881   8.624  10.740 -0.3853 -1.1710 -0.5444
23622SOL     OW77723   5.110  10.828   4.266  0.1228 -0.3210 -0.2524
23622SOL    HW177724   5.179  10.891   4.244  1.6392 -1.5503  0.7794
23622SOL    HW277725   5.040  10.846   4.202  2.0737 -0.1733 -2.4915
23623SOL     OW77726   4.686   0.365   0.505  0.5082 -0.2239  0.6016
23623SOL    HW177727   4.650   0.327   0.425 -0.9702 -0.8673  1.5380
23623SOL    HW277728   4.776   0.331   0.508  0.3068 -0.9028 -0.3200
23624SOL     OW77729   3.909   0.130  12.310 -0.4897  0.3529 -0.7894
23624SOL    HW177730   3.999   0.162  12.299  0.3841 -0.5665  2.5297
23624SOL    HW277731   3.872   0.187  12.378 -2.2122  0.2624 -1.6021
23625SOL     OW77732   6.698   0.563   0.577 -0.5210 -0.1304  0.0961
23625SOL    HW177733   6.772   0.568   0.517 -0.7766  0.1754 -0.2000
23625SOL    HW277734   6.621   0.578   0.521 -0.8562 -1.1432  0.2735
23626SOL     OW77735   3.095  10.348   9.557  0.1703 -0.3112  0.7025
23626SOL    HW177736   3.092  10.269   9.612 -0.4023 -0.2671  0.7391
23626SOL    HW277737   3.170  10.397   9.591  1.0935 -1.2610  0.0909
23627SOL     OW77738   4.359   2.987  12.566 -0.5901  0.0056  0.0672
23627SOL    HW177739   4.374   3.080  12.583  2.3752 -0.4432  0.5491
23627SOL    HW277740   4.358   2.947  12.653  1.1854 -0.6889 -0.1726
23628SOL     OW77741  10.919  11.735   2.487 -0.5867 -0.5760  0.1292
23628SOL    HW177742  10.836  11.727   2.533 -0.6294 -1.6404 -0.0880
23628SOL    HW277743  10.985  11.705   2.551  0.0666  3.0771  1.3817
23629SOL     OW77744   3.955   0.762   5.725 -0.6918  0.0083  0.3674
23629SOL    HW177745   4.014   0.706   5.774  0.0988  1.0088  0.6089
23629SOL    HW277746   3.996   0.771   5.639 -0.4631  0.7300  0.5452
23630SOL     OW77747   6.919   3.948   6.420 -0.0684  0.5957 -0.5054
23630SOL    HW177748   6.875   3.979   6.500  0.7023 -0.4363  0.3442
23630SOL    HW277749   6.928   3.854   6.432  1.1518  0.5913 -1.2668
23631SOL     OW77750   9.247   9.529   3.568  0.1262 -0.0568  0.2716
23631SOL    HW177751   9.292   9.444   3.565 -2.3959 -1.5863  1.7955
23631SOL    HW277752   9.207   9.539   3.482 -2.1236 -2.0577  0.9688
23632SOL     OW77753   8.555  10.047   9.680 -0.1416  0.4270  0.4235
23632SOL    HW177754   8.552  10.068   9.587  0.1282  2.5852  0.8505
23632SOL    HW277755   8.464  10.027   9.703  0.0739 -2.3491 -0.6776
23633SOL     OW77756   8.666   7.428   9.796  0.4245  0.5268  0.2199
23633SOL    HW177757   8.599   7.473   9.745  0.7728  0.4873 -0.2853
23633SOL    HW277758   8.620   7.357   9.840  0.2001  0.2791 -0.4076
23634SOL     OW77759   8.570   8.414  10.876 -0.4720 -0.0479 -0.4426
23634SOL    HW177760   8.610   8.333  10.906 -1.5405  0.4969  2.8717
23634SOL    HW277761   8.476   8.397  10.879 -0.6846  1.0180 -0.6053
23635SOL     OW77762  11.879  11.328   1.121  0.5307 -1.1098  0.0075
23635SOL    HW177763  11.897  11.344   1.029 -0.3068 -0.3002 -0.0306
23635SOL    HW277764  11.946  11.265   1.148  2.2943  0.4170 -0.5538
23636SOL     OW77765  11.766   0.046   6.697  0.4580  0.0502 -0.0420
23636SOL    HW177766  11.843   0.096   6.723 -0.7976  1.4049  1.2193
23636SOL    HW277767  11.706   0.110   6.660 -0.7667 -0.6717  0.6051
23637SOL     OW77768   9.740   9.347   4.458 -0.2448 -0.6748  0.1692
23637SOL    HW177769   9.800   9.277   4.430 -1.7573 -1.8204 -0.3358
23637SOL    HW277770   9.793   9.426   4.453  1.1088 -1.5711 -0.6988
23638SOL     OW77771   8.237  12.462  12.339  0.1862  0.0987  0.0305
23638SOL    HW177772   8.187  12.507  12.407  0.8768  2.1742 -0.7699
23638SOL    HW277773   8.174  12.447  12.269 -0.1273 -0.5185  0.4360
23639SOL     OW77774   3.056   3.524  10.919  0.4337  0.2436  0.1864
23639SOL    HW177775   2.977   3.575  10.898  0.3401 -0.2832 -0.7974
23639SOL    HW277776   3.054   3.515  11.014 -1.6181 -1.1922  0.0630
23640SOL     OW77777   6.039   8.678   4.097 -0.1395 -0.3016 -0.1515
23640SOL    HW177778   6.022   8.648   4.186  0.9052 -0.2365  0.0836
23640SOL    HW277779   5.957   8.662   4.050 -0.7951 -0.0741  0.8855
23641SOL     OW77780   7.651   4.951   2.697 -0.3906 -0.2436 -0.2328
23641SOL    HW177781   7.615   4.881   2.643 -0.8202 -0.4697  0.3360
23641SOL    HW277782   7.604   4.943   2.780  0.5373 -0.1412  0.3055
23642SOL     OW77783   6.920   3.607   3.768 -0.0977 -0.3568  0.0085
23642SOL    HW177784   7.011   3.622   3.795 -0.1168 -0.5915  0.2070
23642SOL    HW277785   6.917   3.635   3.677  0.0435  0.1593  0.1572
23643SOL     OW77786   3.759   2.505   6.320  0.2025 -0.0484 -0.1947
23643SOL    HW177787   3.683   2.478   6.270  1.4289 -0.9249 -1.6834
23643SOL    HW277788   3.783   2.429   6.373 -0.4933  0.5450  1.0219
23644SOL     OW77789  10.560   6.482  11.367 -0.4554 -0.0616 -0.3021
23644SOL    HW177790  10.509   6.561  11.347  0.9955  1.3813  1.3643
23644SOL    HW277791  10.649   6.503  11.336 -0.0434 -1.0444  0.1659
23645SOL     OW77792   2.267   6.068   3.691  0.1591  0.2282 -0.1802
23645SOL    HW177793   2.239   5.986   3.650  2.5709 -0.5850 -0.3494
23645SOL    HW277794   2.253   6.055   3.785 -1.1275  0.3358 -0.3470
23646SOL     OW77795   4.988  10.736   8.831  0.2185 -0.0265 -0.4212
23646SOL    HW177796   4.930  10.681   8.778 -2.0855  2.1903 -0.3763
23646SOL    HW277797   4.932  10.766   8.903  0.9579  3.2483 -1.0742
23647SOL     OW77798   9.009   6.043  11.724 -0.2563  0.2264 -0.1194
23647SOL    HW177799   8.985   6.122  11.774  0.2075  1.0142 -1.1106
23647SOL    HW277800   9.101   6.057  11.701 -0.6082  0.1279 -1.6489
23648SOL     OW77801   4.052   2.674  12.206 -0.0006  0.4642 -0.0601
23648SOL    HW177802   4.096   2.741  12.257  0.2087  0.0477  0.3114
23648SOL    HW277803   4.072   2.696  12.115 -0.7258  1.4534  0.0032
23649SOL     OW77804   6.485  10.988   8.157 -0.5167  0.1117  0.2390
23649SOL    HW177805   6.561  10.963   8.105 -2.5518 -4.1274 -1.1365
23649SOL    HW277806   6.432  11.042   8.098 -0.2094  0.0305 -0.1168
23650SOL     OW77807   5.592   0.285   4.764 -0.0912 -0.2298  0.4276
23650SOL    HW177808   5.499   0.264   4.756 -0.1177  0.3490 -1.0976
23650SOL    HW277809   5.593   0.373   4.803 -0.2246  0.1045 -0.3040
23651SOL     OW77810   9.686   1.937   1.064 -0.2676 -0.7126 -0.1158
23651SOL    HW177811   9.673   2.012   1.006 -1.4107 -2.7070 -2.6955
23651SOL    HW277812   9.779   1.917   1.057 -0.0062  0.2597  0.3904
23652SOL     OW77813   5.296   1.651   4.036 -0.3368  0.1920  0.5564
23652SOL    HW177814   5.339   1.606   3.963  1.1447 -0.6029  1.8711
23652SOL    HW277815   5.215   1.601   4.050 -0.5442  0.2426 -0.3964
23653SOL     OW77816   1.471  12.008   5.299 -0.7699  0.2438 -0.0192
23653SOL    HW177817   1.566  12.012   5.308 -0.3522 -3.1635 -1.2518
23653SOL    HW277818   1.438  12.002   5.388  0.8942 -5.2749  0.5963
23654SOL     OW77819  12.244   1.768   5.034  0.4290  0.1660  0.1014
23654SOL    HW177820  12.245   1.833   5.104 -0.1020  0.1996  0.0786
23654SOL    HW277821  12.336   1.758   5.009  0.6894 -0.2192  1.1558
23655SOL     OW77822  12.424   1.765  11.064  0.0925  0.0279 -0.3627
23655SOL    HW177823  12.351   1.731  11.013 -0.9084  0.6796  0.5797
23655SOL    HW277824  12.428   1.858  11.041 -0.8240  0.4876  1.2233
23656SOL     OW77825   1.301  10.231   8.502 -0.3735  0.0845 -0.8338
23656SOL    HW177826   1.340  10.303   8.452 -1.7665  1.7407  0.3381
23656SOL    HW277827   1.318  10.253   8.593 -0.1001 -1.5441 -0.4673
23657SOL     OW77828   8.692   6.715   8.392  0.2968  0.2155  0.0583
23657SOL    HW177829   8.625   6.765   8.344 -1.4979 -0.6705  1.5259
23657SOL    HW277830   8.701   6.760   8.476  1.5595  0.2905 -0.0910
23658SOL     OW77831   0.472   6.393   1.717  0.3183  0.3409  0.7941
23658SOL    HW177832   0.510   6.454   1.780  2.4670 -0.3948  0.2968
23658SOL    HW277833   0.464   6.311   1.766 -0.6709  0.4764  0.8821
23659SOL     OW77834   6.499   4.604   9.395 -0.3073 -0.2246  0.7657
23659SOL    HW177835   6.528   4.520   9.362  0.3034 -0.3214  1.5275
23659SOL    HW277836   6.428   4.583   9.456 -1.4830 -0.0426 -0.4904
23660SOL     OW77837  10.753   0.887   9.971  0.1514  0.4893 -0.4449
23660SOL    HW177838  10.835   0.936   9.970  0.2048  0.3922 -0.8946
23660SOL    HW277839  10.739   0.862   9.880 -1.1962  1.8627 -0.6631
23661SOL     OW77840   2.163   4.988   8.325 -0.7464  0.3366 -0.2329
23661SOL    HW177841   2.073   4.979   8.294 -1.3336  0.5284  1.3450
23661SOL    HW277842   2.157   5.050   8.398  0.7624  0.8266 -0.4904
23662SOL     OW77843   1.700   5.327   9.004  0.2642  0.1485  0.4842
23662SOL    HW177844   1.739   5.374   9.077 -0.5081  1.0659  0.3279
23662SOL    HW277845   1.608   5.315   9.030 -0.2554  1.3075 -0.6949
23663SOL     OW77846   5.763   8.287   2.742 -0.0812  0.2526  0.1942
23663SOL    HW177847   5.849   8.249   2.723 -0.6177 -0.2407 -1.3978
23663SOL    HW277848   5.777   8.382   2.738  0.2159  0.1700 -0.9847
23664SOL     OW77849   6.113  12.289  10.514 -0.1422 -0.5966  0.0892
23664SOL    HW177850   6.189  12.232  10.501  0.9748  0.5843  1.0196
23664SOL    HW277851   6.148  12.377  10.498 -1.9958 -0.1625 -2.1249
23665SOL     OW77852   7.627   2.864   8.431  0.4373 -0.0015 -0.9352
23665SOL    HW177853   7.706   2.909   8.402 -0.1815  1.9898  0.3090
23665SOL    HW277854   7.656   2.811   8.505  0.6756  0.4410 -0.7113
23666SOL     OW77855   6.954  11.541   2.414 -0.5270  0.1865  0.1415
23666SOL    HW177856   6.918  11.599   2.347 -1.8013  0.2096  0.8180
23666SOL    HW277857   6.893  11.547   2.487  0.7080 -0.0234  1.2297
23667SOL     OW77858   0.160   8.521  12.008 -0.4863 -0.4968  0.0732
23667SOL    HW177859   0.071   8.555  11.996 -1.3495 -2.3566  0.9009
23667SOL    HW277860   0.204   8.542  11.925 -2.8669 -2.8760 -1.9744
23668SOL     OW77861   4.224  10.244   1.418  0.1527 -0.1653  0.3359
23668SOL    HW177862   4.158  10.276   1.356 -1.2199  1.8407  2.6640
23668SOL    HW277863   4.306  10.282   1.387  0.2293 -2.0737 -2.1628
23669SOL     OW77864   9.534   0.651  10.817 -0.3720 -0.8493  0.0527
23669SOL    HW177865   9.502   0.642  10.727 -0.6589  2.0515 -0.2230
23669SOL    HW277866   9.626   0.628  10.812 -0.9293 -3.2952 -0.3810
23670SOL     OW77867   6.619   1.559   2.690 -0.8241  0.2865 -0.8427
23670SOL    HW177868   6.533   1.590   2.716 -1.0192 -0.2088 -0.8965
23670SOL    HW277869   6.651   1.510   2.765 -1.2275 -0.8124 -1.3691
23671SOL     OW77870  10.539   6.106   3.918  0.1241  0.0732  0.5554
23671SOL    HW177871  10.534   6.082   3.825  1.9029  0.8534  0.2254
23671SOL    HW277872  10.447   6.113   3.945 -0.4451 -1.1840 -0.8484
23672SOL     OW77873   4.941  10.187   0.455  0.3491  0.1075 -0.0270
23672SOL    HW177874   5.012  10.250   0.464  0.5416 -0.2998  1.7125
23672SOL    HW277875   4.866  10.238   0.424  1.1540  0.7049 -1.0117
23673SOL     OW77876   5.764   0.526   3.615 -0.0619  0.7342 -0.0380
23673SOL    HW177877   5.786   0.592   3.681 -0.5764  0.6209  0.2482
23673SOL    HW277878   5.800   0.444   3.650  1.4976  1.0114 -0.8722
23674SOL     OW77879   3.969   4.133   0.351 -0.0590  0.0651  0.4065
23674SOL    HW177880   4.040   4.083   0.314 -0.1628  0.7594 -0.7799
23674SOL    HW277881   3.963   4.104   0.442  1.8310  0.1117  0.5752
23675SOL     OW77882   1.087   4.210   4.529  0.0925 -0.3560 -0.0039
23675SOL    HW177883   1.074   4.179   4.439 -0.6544 -0.7474  0.2249
23675SOL    HW277884   1.181   4.207   4.543  0.2019 -0.4166 -0.7323
23676SOL     OW77885  10.267   9.113   5.726  0.0846 -0.1691 -0.1437
23676SOL    HW177886  10.194   9.130   5.785  0.3321 -0.5188  0.2652
23676SOL    HW277887  10.225   9.088   5.643 -0.3518  3.4659 -1.2026
23677SOL     OW77888   1.792   8.843   5.740  0.4546  0.1971  0.1496
23677SOL    HW177889   1.829   8.917   5.788 -1.2176  1.9317 -1.0920
23677SOL    HW277890   1.732   8.882   5.677 -0.1133 -2.2047 -0.9397
23678SOL     OW77891   4.931  12.575  12.520  0.8691 -0.0361 -0.3473
23678SOL    HW177892   5.006  12.625  12.553 -0.3901  0.5776  1.7638
23678SOL    HW277893   4.970  12.508  12.463  2.9362  0.7959  0.0064
23679SOL     OW77894   9.884   3.591   1.653 -0.3272  0.0187  0.5507
23679SOL    HW177895   9.841   3.557   1.574 -0.3708  0.1093  0.5359
23679SOL    HW277896   9.896   3.684   1.636  0.6940 -0.1712  0.1807
23680SOL     OW77897   2.024  12.004  10.143  0.6675  0.1672  0.1032
23680SOL    HW177898   1.952  11.952  10.109  0.3159  0.8797 -0.2806
23680SOL    HW277899   1.987  12.092  10.153  1.9353  0.9788 -1.7566
23681SOL     OW77900   6.881   0.574   2.739 -0.7646  0.0078  0.2177
23681SOL    HW177901   6.819   0.539   2.676 -1.1030  1.2897 -0.1854
23681SOL    HW277902   6.829   0.632   2.795 -0.4209 -0.8768  1.5261
23682SOL     OW77903   8.778  11.338   2.131  0.4437  0.1527  0.1064
23682SOL    HW177904   8.815  11.299   2.052 -0.1908  0.8709 -0.5659
23682SOL    HW277905   8.744  11.423   2.102 -2.3350 -0.7247  0.4831
23683SOL     OW77906   7.496   4.880   7.845 -0.2282  0.6931  0.0275
23683SOL    HW177907   7.470   4.790   7.825 -0.4181  0.4566  1.2839
23683SOL    HW277908   7.495   4.885   7.940  0.6410  1.7815 -0.0006
23684SOL     OW77909  11.106   5.935   6.537  0.0048 -0.0989 -0.2055
23684SOL    HW177910  11.105   6.016   6.485  3.1893  0.2630  0.0751
23684SOL    HW277911  11.125   5.964   6.626 -0.4281 -1.0635  0.2106
23685SOL     OW77912   5.403   1.735   3.111 -0.1967  0.0955 -0.5525
23685SOL    HW177913   5.381   1.812   3.059 -0.7868  0.6544  0.4994
23685SOL    HW277914   5.497   1.744   3.130 -0.1441  0.2630 -0.8907
23686SOL     OW77915   6.654   8.557   9.279 -0.9359  0.3954  0.3136
23686SOL    HW177916   6.741   8.587   9.304  0.0798 -2.4645  0.5424
23686SOL    HW277917   6.614   8.530   9.361 -1.3770  0.1080  0.0067
23687SOL     OW77918   8.435   8.517   6.445  0.0828 -0.6006  0.1340
23687SOL    HW177919   8.416   8.424   6.459  0.6095 -0.4763  1.8960
23687SOL    HW277920   8.378   8.563   6.506 -0.0547  0.2372 -0.6051
23688SOL     OW77921   9.340   6.541   6.577  0.6319  0.5224 -0.1279
23688SOL    HW177922   9.247   6.553   6.595  0.9220 -1.0759  3.0048
23688SOL    HW277923   9.365   6.621   6.529 -1.9879  1.7113  0.3124
23689SOL     OW77924   4.533   6.083  10.499 -0.2329 -0.2670  0.0475
23689SOL    HW177925   4.623   6.051  10.493 -0.5012 -0.7845 -2.0771
23689SOL    HW277926   4.514   6.119  10.412 -1.4844  1.5481  1.0043
23690SOL     OW77927   7.038   3.415   1.444 -0.6512 -0.2266  0.4414
23690SOL    HW177928   7.014   3.465   1.366 -1.2285 -1.5166 -0.2479
23690SOL    HW277929   6.989   3.456   1.515 -0.6434  0.5489  0.0088
23691SOL     OW77930   1.041   3.004   9.857 -0.1662  0.0412  0.4423
23691SOL    HW177931   1.098   2.927   9.855  1.1366  0.9820 -0.3201
23691SOL    HW277932   0.957   2.971   9.889 -0.2854 -2.1410 -1.8226
23692SOL     OW77933  10.843   6.147   1.630  0.1962  0.1075  0.2406
23692SOL    HW177934  10.779   6.097   1.681  0.7382 -1.3624 -0.4703
23692SOL    HW277935  10.791   6.197   1.567 -0.3198  0.0468  0.6171
23693SOL     OW77936   4.867   5.427   5.400 -0.1560  0.0611 -0.6208
23693SOL    HW177937   4.839   5.336   5.398 -0.9636  0.2748  0.1174
23693SOL    HW277938   4.944   5.430   5.344 -0.7646 -0.8496 -1.5451
23694SOL     OW77939   1.039   9.746  12.182  0.4403 -0.5962 -0.1032
23694SOL    HW177940   1.026   9.726  12.274 -0.8204 -1.2661 -0.4091
23694SOL    HW277941   0.957   9.723  12.140  0.8476  0.0896 -1.3429
23695SOL     OW77942   9.987   4.908   5.735  0.0592  0.4248 -0.2383
23695SOL    HW177943   9.899   4.881   5.759 -0.3732  0.9900 -1.1420
23695SOL    HW277944  10.044   4.854   5.790 -0.8402  0.0366  0.3382
23696SOL     OW77945   0.035   1.051  11.276 -0.1065 -0.0148 -0.3844
23696SOL    HW177946   0.064   1.120  11.335 -1.5764 -0.5451  1.0363
23696SOL    HW277947  -0.050   1.081  11.242 -1.1656 -1.4036  0.8854
23697SOL     OW77948   4.223  12.576   0.263 -0.2708  0.2029  0.4526
23697SOL    HW177949   4.280  12.504   0.289  0.4323  0.9416  1.0514
23697SOL    HW277950   4.144  12.535   0.230  0.4506 -0.8503 -0.0174
23698SOL     OW77951   6.828  10.100  10.874 -0.7832 -0.5167 -0.2228
23698SOL    HW177952   6.870  10.058  10.949 -1.5267 -0.1205  0.4211
23698SOL    HW277953   6.834  10.193  10.893 -2.5291 -0.4655  0.2056
23699SOL     OW77954   2.045  10.231  10.950 -0.5495 -0.1814 -0.2108
23699SOL    HW177955   2.056  10.153  11.004  0.8477  0.5102  0.5608
23699SOL    HW277956   1.994  10.291  11.004  1.4510  0.7824  0.6969
23700SOL     OW77957   7.428   9.736   2.027 -0.0384  0.2036  0.2961
23700SOL    HW177958   7.405   9.789   1.951  2.1015 -1.4935 -1.6882
23700SOL    HW277959   7.492   9.673   1.994 -0.6735 -2.0991  3.0245
23701SOL     OW77960  11.162   0.197  12.053 -0.0082 -0.0330 -0.4063
23701SOL    HW177961  11.200   0.112  12.076 -2.4676 -1.1964 -0.2281
23701SOL    HW277962  11.186   0.255  12.126  0.1626 -1.1092  0.4194
23702SOL     OW77963   7.599   5.356  10.011  0.2296 -0.0110  0.2702
23702SOL    HW177964   7.651   5.365  10.091 -0.5356 -1.0363  0.9203
23702SOL    HW277965   7.611   5.438   9.965  0.3063  0.8004  1.6787
23703SOL     OW77966   9.177   9.199   6.138 -0.4413 -0.7160 -0.1970
23703SOL    HW177967   9.106   9.135   6.144  0.2021 -1.4545 -0.3514
23703SOL    HW277968   9.229   9.171   6.064 -1.2154  1.1167 -1.5347
23704SOL     OW77969   3.761   0.840   7.976 -0.1491  0.4636  0.2386
23704SOL    HW177970   3.852   0.816   7.992 -1.0316 -1.9513  2.3041
23704SOL    HW277971   3.748   0.826   7.882  0.7712 -2.6853  0.4634
23705SOL     OW77972   8.022   2.289   9.256 -0.2456  0.0452  0.0092
23705SOL    HW177973   7.948   2.263   9.311  0.2260  2.1265  1.7335
23705SOL    HW277974   8.099   2.258   9.304  0.0968 -1.4095 -1.3850
23706SOL     OW77975  11.533   1.827  11.361 -0.1508 -0.6598 -0.3336
23706SOL    HW177976  11.591   1.866  11.426  0.7033 -0.2115 -1.3396
23706SOL    HW277977  11.568   1.856  11.277 -0.0369 -2.8322 -1.0989
23707SOL     OW77978   8.469   1.935   1.684 -0.3932 -0.5437 -0.6981
23707SOL    HW177979   8.478   2.010   1.624  1.3759 -1.1479 -1.2634
23707SOL    HW277980   8.514   1.963   1.764  0.0124 -0.8759 -0.8056
23708SOL     OW77981   9.168   2.778   0.927 -0.0496  0.2234  0.8747
23708SOL    HW177982   9.080   2.773   0.963  0.4412  0.1964  2.1174
23708SOL    HW277983   9.155   2.787   0.832 -1.4031  1.2350  1.1272
23709SOL     OW77984   9.829   8.075  10.302  0.6494 -0.2750  0.1956
23709SOL    HW177985   9.765   8.116  10.244  2.0002  0.8083 -0.5879
23709SOL    HW277986   9.853   8.144  10.364  0.7911 -0.7871  0.7208
23710SOL     OW77987  11.903   5.929  10.574  0.2827  0.9257 -0.5444
23710SOL    HW177988  11.849   5.904  10.500  1.6924 -1.2269 -0.9373
23710SOL    HW277989  11.946   6.010  10.547  1.1152 -0.0597 -2.3015
23711SOL     OW77990   9.648   2.130  10.061  0.6921  0.0176  0.4596
23711SOL    HW177991   9.611   2.115  10.148  0.2808 -1.9193  0.0080
23711SOL    HW277992   9.572   2.144  10.005  0.9759  1.6728  0.4590
23712SOL     OW77993   8.045   9.582   4.003  0.2453 -0.7459  0.1838
23712SOL    HW177994   8.100   9.583   4.081  2.7482  2.4659 -1.3673
23712SOL    HW277995   7.991   9.662   4.010  2.1110  0.8936 -2.1832
23713SOL     OW77996   6.946   7.649   2.549  0.1932  0.5285  0.4483
23713SOL    HW177997   6.944   7.570   2.496  0.8489  0.9522 -0.2197
23713SOL    HW277998   6.924   7.720   2.489 -3.0423  0.6478  1.5493
23714SOL     OW77999  11.169   7.088  10.466 -0.4041  0.0531  0.5108
23714SOL    HW178000  11.236   7.156  10.455  0.4937 -0.9107 -0.2168
23714SOL    HW278001  11.180   7.032  10.390 -2.8024  0.4707 -0.2129
23715SOL     OW78002   8.703   9.283   5.964 -0.0957 -0.1949 -0.0672
23715SOL    HW178003   8.702   9.324   6.050  0.4625  1.0167 -0.6103
23715SOL    HW278004   8.784   9.315   5.923 -0.0364 -1.2452 -0.8127
23716SOL     OW78005   5.642   5.879   9.201  0.4667  0.0042  0.5631
23716SOL    HW178006   5.547   5.882   9.205  0.4476  0.5494 -0.0877
23716SOL    HW278007   5.663   5.788   9.182 -0.0471  0.3003 -1.7542
23717SOL     OW78008  10.065   8.192   2.030  0.0191  0.5479 -0.1434
23717SOL    HW178009  10.012   8.268   2.006 -0.0145  0.4443 -0.3957
23717SOL    HW278010  10.148   8.230   2.059 -0.5744  0.7829  1.3650
23718SOL     OW78011   6.666   8.450   4.888  0.5063  0.1186  0.3739
23718SOL    HW178012   6.706   8.520   4.939  1.6126 -1.0810  1.2598
23718SOL    HW278013   6.576   8.477   4.875  1.1707  2.1896 -0.2592
23719SOL     OW78014   4.547  11.876   4.999  0.1637  0.1683  0.2615
23719SOL    HW178015   4.527  11.844   4.911 -1.2959  2.4435 -0.3010
23719SOL    HW278016   4.465  11.867   5.048  0.0755  1.7825  0.4545
23720SOL     OW78017   2.092   8.270   0.553  0.0413  0.0717 -0.3098
23720SOL    HW178018   2.010   8.227   0.576 -1.8750  1.9259 -2.9968
23720SOL    HW278019   2.117   8.319   0.631 -1.1118 -0.9675  0.7432
23721SOL     OW78020   5.696   2.370  10.166  0.4095  0.1451  0.0873
23721SOL    HW178021   5.635   2.442  10.150  2.4951  1.8425 -0.7228
23721SOL    HW278022   5.756   2.403  10.232  0.7685 -1.3009  0.5292
23722SOL     OW78023   8.756   3.638  11.511 -0.0975  0.7539 -0.1947
23722SOL    HW178024   8.809   3.716  11.526 -0.3803  0.8079  0.5314
23722SOL    HW278025   8.788   3.573  11.574  1.1945 -0.2576 -1.8169
23723SOL     OW78026   5.112  10.256   8.222  0.1971  0.2777 -0.3812
23723SOL    HW178027   5.118  10.201   8.300  2.0806  0.3850 -0.3951
23723SOL    HW278028   5.057  10.207   8.162 -0.8260 -0.0657  0.7949
23724SOL     OW78029   6.576   5.979   3.651 -0.0713 -0.1697 -0.0327
23724SOL    HW178030   6.583   6.019   3.565 -3.4081 -1.6625 -1.1645
23724SOL    HW278031   6.641   6.025   3.704  2.5921  0.4085 -3.4049
23725SOL     OW78032   2.328   5.396   9.757  0.5211  0.1678  0.0074
23725SOL    HW178033   2.262   5.417   9.691  0.7472  1.5833  0.1833
23725SOL    HW278034   2.307   5.308   9.786  0.6670 -0.6821 -2.2735
23726SOL     OW78035   2.747   1.541   2.701  0.6215 -0.1855 -0.0432
23726SOL    HW178036   2.710   1.525   2.614  0.0017  0.8786  0.0075
23726SOL    HW278037   2.828   1.490   2.702 -0.2672 -1.6568 -0.5756
23727SOL     OW78038   4.675  12.134   1.814 -0.4658 -0.1583 -0.3002
23727SOL    HW178039   4.661  12.206   1.874  1.8400 -0.0456  0.1950
23727SOL    HW278040   4.734  12.169   1.747 -0.2375 -1.2430 -0.6915
23728SOL     OW78041  11.950   3.383   4.705  0.1802  0.0921 -0.0975
23728SOL    HW178042  11.856   3.391   4.689  0.2230 -1.4917 -1.4253
23728SOL    HW278043  11.958   3.370   4.799 -1.1458 -1.9903 -0.2229
23729SOL     OW78044   9.677   7.163   3.342 -0.2675 -0.1607 -0.0160
23729SOL    HW178045   9.588   7.127   3.333  0.0610 -0.7025 -1.2945
23729SOL    HW278046   9.707   7.176   3.252  0.4301  1.3560  0.4040
23730SOL     OW78047   8.394   6.083   5.920 -0.1766  0.1573 -0.6823
23730SOL    HW178048   8.370   6.077   5.827  0.5196 -1.0126 -0.8121
23730SOL    HW278049   8.461   6.150   5.923 -0.0832  0.0840 -1.0570
23731SOL     OW78050   6.969   8.548   0.706  0.0569 -0.2909  0.0471
23731SOL    HW178051   6.891   8.574   0.656 -1.4210 -0.0581  2.2865
23731SOL    HW278052   6.988   8.624   0.761  2.7226  0.1351 -1.3474
23732SOL     OW78053  12.083   8.391   4.455 -0.0977 -0.4961  0.1943
23732SOL    HW178054  12.139   8.358   4.526 -0.0151  0.7485  0.7279
23732SOL    HW278055  12.144   8.415   4.386  0.1724  1.8562  1.1789
23733SOL     OW78056   1.820   6.388   4.256  0.0862 -0.1855 -0.2869
23733SOL    HW178057   1.756   6.428   4.196  0.7154 -0.8709 -1.4641
23733SOL    HW278058   1.905   6.407   4.216  0.8315  2.2278  2.1514
23734SOL     OW78059   2.852   5.952   9.573 -0.3114 -0.2566 -0.2185
23734SOL    HW178060   2.930   6.002   9.552  0.3033 -0.4838  1.4197
23734SOL    HW278061   2.844   5.957   9.668 -1.2157 -1.8254 -0.1716
23735SOL     OW78062   5.855   7.267  11.019 -0.2519 -0.3123  0.1012
23735SOL    HW178063   5.940   7.228  10.997  0.5225  2.0398 -1.3817
23735SOL    HW278064   5.810   7.276  10.935 -0.6832  1.2739  0.4731
23736SOL     OW78065   0.771   0.843  11.123 -0.0909  0.4736 -0.4945
23736SOL    HW178066   0.824   0.817  11.047 -1.6127  0.1264 -1.4985
23736SOL    HW278067   0.796   0.934  11.140  0.4141  0.4961 -1.2867
23737SOL     OW78068   6.090  10.306   4.235 -0.2059 -0.6036  0.0301
23737SOL    HW178069   6.143  10.238   4.192  0.3050 -0.0595 -0.2072
23737SOL    HW278070   6.101  10.288   4.329  1.1462  0.0369  0.0209
23738SOL     OW78071   4.002   4.408   0.069  0.6436  0.5300 -0.3369
23738SOL    HW178072   3.971   4.325   0.033  1.1571 -1.1534  2.7693
23738SOL    HW278073   4.092   4.416   0.037  0.3256  0.3589 -1.3211
23739SOL     OW78074   1.257   8.427   3.511 -0.7557 -0.1417  0.9146
23739SOL    HW178075   1.276   8.520   3.506 -1.2616 -0.0280  1.0673
23739SOL    HW278076   1.210   8.407   3.430  0.2057 -0.4731  0.4233
23740SOL     OW78077   5.279   9.780   3.261 -0.4641 -0.0026 -0.2481
23740SOL    HW178078   5.361   9.732   3.269 -0.1070  0.6107 -0.1801
23740SOL    HW278079   5.293   9.840   3.187  0.3880  2.4767  1.7905
23741SOL     OW78080   1.912   6.146   9.037  0.7853 -0.1631 -0.3802
23741SOL    HW178081   1.836   6.199   9.057  0.5060 -0.0654 -1.6282
23741SOL    HW278082   1.977   6.171   9.103 -0.4178 -0.6404  1.0369
23742SOL     OW78083   2.572   1.931  10.413 -0.2111  0.1522  0.2148
23742SOL    HW178084   2.600   1.859  10.471  1.7639  2.0428  1.8009
23742SOL    HW278085   2.640   1.935  10.345  0.6735  1.5184  1.1216
23743SOL     OW78086   8.769  10.658   1.668  0.3566  0.6740  0.4729
23743SOL    HW178087   8.678  10.674   1.642  0.3370  0.0922  0.1602
23743SOL    HW278088   8.804  10.602   1.598  0.4098 -0.6503  1.5164
23744SOL     OW78089  11.268  10.625   3.931  0.2289 -0.2042 -0.0308
23744SOL    HW178090  11.234  10.542   3.966  0.0819 -1.2257 -2.3838
23744SOL    HW278091  11.191  10.679   3.919  0.2667  0.1090  1.0291
23745SOL     OW78092   4.188   8.051   4.367  0.4969  0.0924 -0.4388
23745SOL    HW178093   4.105   8.006   4.382  1.0336 -0.6879  0.2135
23745SOL    HW278094   4.255   7.990   4.396  1.2477  1.2913  0.4490
23746SOL     OW78095   7.808   5.474   5.265  0.4502 -0.5532  0.0636
23746SOL    HW178096   7.816   5.509   5.354 -0.0735 -0.5823  0.1291
23746SOL    HW278097   7.896   5.448   5.241  0.7565  0.2821  0.2337
23747SOL     OW78098   7.552   8.016   2.781 -0.3292 -0.4390 -0.3090
23747SOL    HW178099   7.468   7.972   2.791 -0.8310  0.1416 -1.7357
23747SOL    HW278100   7.542   8.099   2.827 -1.2416  0.4820 -2.0883
23748SOL     OW78101   1.184   7.403  11.786  0.2162  0.1396 -0.2656
23748SOL    HW178102   1.153   7.341  11.853  0.2047 -1.4632 -1.6729
23748SOL    HW278103   1.279   7.405  11.798  0.3637 -1.1916 -1.0066
23749SOL     OW78104   5.781   3.872   6.462  0.1703 -0.2647  0.2728
23749SOL    HW178105   5.743   3.929   6.396 -2.1415 -2.4610 -0.4298
23749SOL    HW278106   5.836   3.811   6.413  0.3744 -0.3927  0.6563
23750SOL     OW78107   5.134   9.220   4.173  0.1747 -0.1915 -0.0020
23750SOL    HW178108   5.164   9.288   4.233  1.3863  0.4989 -1.3130
23750SOL    HW278109   5.044   9.245   4.151  0.4052  0.6769 -0.0028
23751SOL     OW78110  11.419   8.814   0.692 -0.0654 -0.1207  0.7858
23751SOL    HW178111  11.399   8.901   0.660  2.1201  0.3757  0.6682
23751SOL    HW278112  11.350   8.796   0.756 -1.2768  1.1324 -0.1078
23752SOL     OW78113   2.820  11.783   4.161  0.5333  1.0179  0.1167
23752SOL    HW178114   2.865  11.830   4.091  2.0283  1.6280  1.4112
23752SOL    HW278115   2.879  11.709   4.181 -1.4461 -1.1264 -1.4261
23753SOL     OW78116   0.943   4.453   9.175 -0.8021  0.0939  0.2421
23753SOL    HW178117   0.956   4.537   9.219 -4.1020  1.4918 -1.1224
23753SOL    HW278118   0.984   4.464   9.089  1.0760 -0.7582  0.9639
23754SOL     OW78119  11.693   2.482  11.157  0.4513 -0.2862  0.0195
23754SOL    HW178120  11.770   2.473  11.212 -0.3889 -0.7736  1.1647
23754SOL    HW278121  11.719   2.444  11.073  0.5167 -3.4559  1.3282
23755SOL     OW78122   0.145  12.371   3.364 -0.1174 -0.6796 -0.0465
23755SOL    HW178123   0.188  12.455   3.376 -0.2906 -0.4191 -1.1214
23755SOL    HW278124   0.055  12.385   3.393  0.4254 -1.1669  2.0072
23756SOL     OW78125  11.743  11.601   0.152  0.5291  0.5213  0.4571
23756SOL    HW178126  11.716  11.514   0.184 -0.6585  1.6831  2.8780
23756SOL    HW278127  11.834  11.608   0.179  0.4727  0.2284  0.7366
23757SOL     OW78128   5.896   4.688   9.666  0.0544  0.8256 -0.1381
23757SOL    HW178129   5.885   4.691   9.761  2.0895  0.6798  0.1522
23757SOL    HW278130   5.897   4.780   9.640  0.6332  0.9147  0.1673
23758SOL     OW78131   0.981   5.092  10.803  0.6026  0.3429 -0.7405
23758SOL    HW178132   1.053   5.029  10.800  0.8532  0.5052  0.8881
23758SOL    HW278133   0.975   5.117  10.896  1.0996  3.3716 -1.4260
23759SOL     OW78134   2.752   7.728   3.879 -0.3463  0.5741 -0.1551
23759SOL    HW178135   2.766   7.774   3.962  0.3923 -0.6335  0.4104
23759SOL    HW278136   2.830   7.675   3.867 -2.0114 -2.1429  0.2727
23760SOL     OW78137  10.884   0.931   9.269 -0.1168  0.3322 -0.2976
23760SOL    HW178138  10.866   0.839   9.287  0.5397  0.1309 -0.6393
23760SOL    HW278139  10.978   0.934   9.250 -0.3301  0.8936 -1.3607
23761SOL     OW78140   0.843   5.174   7.984 -0.5943 -0.2512  0.0282
23761SOL    HW178141   0.794   5.255   7.973  0.7837  0.6734  0.4903
23761SOL    HW278142   0.782   5.115   8.029 -1.2285  0.9102  0.7341
23762SOL     OW78143  10.805   8.868   3.838 -0.1168  0.0942 -0.4421
23762SOL    HW178144  10.893   8.839   3.813  0.4265  1.5655 -0.3656
23762SOL    HW278145  10.769   8.907   3.759 -0.6256 -0.3157 -0.4148
23763SOL     OW78146   4.552   6.268   2.524  0.1644  0.3828  0.0746
23763SOL    HW178147   4.563   6.255   2.618  2.2700  0.8171 -0.0588
23763SOL    HW278148   4.516   6.356   2.515 -1.3815 -0.1758  0.4870
23764SOL     OW78149   8.826   6.107  11.543  0.0407 -0.0460 -0.4235
23764SOL    HW178150   8.879   6.085  11.620 -0.8273 -1.8130 -0.2608
23764SOL    HW278151   8.785   6.190  11.566 -0.8358 -0.9102  1.4439
23765SOL     OW78152   4.771   9.199   7.251  0.1724 -1.0064 -0.3152
23765SOL    HW178153   4.774   9.106   7.227 -2.1601 -1.3790  0.5933
23765SOL    HW278154   4.738   9.200   7.341  0.0612  0.7035 -0.3363
23766SOL     OW78155  10.528   8.932   0.297 -0.0226  0.4165  0.0716
23766SOL    HW178156  10.441   8.932   0.338  0.1306 -0.9798  0.4242
23766SOL    HW278157  10.543   8.841   0.273  1.1844  0.7167 -0.3445
23767SOL     OW78158  12.148   6.151  11.599  0.2023 -0.6826 -0.0756
23767SOL    HW178159  12.190   6.149  11.685 -3.3727 -2.8646  1.8953
23767SOL    HW278160  12.089   6.227  11.604  0.4436 -0.4439 -0.8576
23768SOL     OW78161   4.535   0.879   9.773 -0.1773  0.1506  0.4860
23768SOL    HW178162   4.602   0.938   9.809 -1.1937  1.9793 -0.4452
23768SOL    HW278163   4.452   0.915   9.806 -0.9312  0.1599 -1.3077
23769SOL     OW78164  11.136   7.137  10.996 -0.2834 -0.4933 -0.6192
23769SOL    HW178165  11.068   7.204  11.004  0.3379  0.0299  0.4683
23769SOL    HW278166  11.156   7.134  10.902  0.3267  1.5035 -0.6035
23770SOL     OW78167   1.766   4.652  11.429  0.1917  0.2318  0.1603
23770SOL    HW178168   1.683   4.608  11.446  0.2086  0.4809  0.9327
23770SOL    HW278169   1.832   4.584  11.435 -0.0222 -0.1378 -1.3176
23771SOL     OW78170   6.483   9.662   5.317  0.3881  0.3854  0.3003
23771SOL    HW178171   6.458   9.629   5.403  2.1622 -0.6599  0.4587
23771SOL    HW278172   6.542   9.735   5.335  1.9160 -0.7471  0.0165
23772SOL     OW78173   7.865   3.156   6.024 -0.0586 -0.1791 -0.1893
23772SOL    HW178174   7.777   3.136   6.056 -0.5739  1.9909 -0.1056
23772SOL    HW278175   7.852   3.231   5.966  1.7972  0.4804  0.2007
23773SOL     OW78176   2.192   4.422   1.033 -0.5143  0.5595 -0.0200
23773SOL    HW178177   2.135   4.420   0.955 -1.2195  0.4936  0.4811
23773SOL    HW278178   2.150   4.360   1.093  0.2547  0.3024  0.2540
23774SOL     OW78179   1.128   1.917  11.770  0.3226 -1.3854 -0.0524
23774SOL    HW178180   1.049   1.963  11.739  1.0195 -0.0846  0.0334
23774SOL    HW278181   1.200   1.976  11.749  0.9924 -1.0222  2.7619
23775SOL     OW78182   4.546   5.719   4.527  0.1545  0.6955  0.3887
23775SOL    HW178183   4.557   5.703   4.621 -2.2809 -0.2313  0.5981
23775SOL    HW278184   4.463   5.677   4.506  0.8338  0.5435 -2.2918
23776SOL     OW78185  11.149  10.624   9.949  0.9053 -0.4758  0.1293
23776SOL    HW178186  11.102  10.708   9.947 -0.7076 -1.2395  2.1880
23776SOL    HW278187  11.094  10.564   9.899  1.0643 -0.7507  0.2813
23777SOL     OW78188   8.224   9.562   8.791 -0.1294 -0.0622  0.3411
23777SOL    HW178189   8.155   9.621   8.822  1.1755  1.2704  0.7749
23777SOL    HW278190   8.230   9.580   8.697  0.1832  0.4074  0.4514
23778SOL     OW78191   5.982   1.751   8.487 -0.8012 -0.1604 -0.4882
23778SOL    HW178192   6.009   1.718   8.401  0.3951 -2.5151  0.6767
23778SOL    HW278193   6.052   1.724   8.545 -1.1825  2.1238  1.1335
23779SOL     OW78194   6.937  10.989   3.003  0.3906  0.2073  0.2028
23779SOL    HW178195   6.993  11.038   2.943  1.0321 -2.0745 -1.2197
23779SOL    HW278196   6.854  11.037   3.004  0.3304  0.3260 -2.6262
23780SOL     OW78197  11.286   6.813   5.037 -0.1274  0.4071  0.3454
23780SOL    HW178198  11.300   6.806   5.131 -0.6810 -1.1059  0.3452
23780SOL    HW278199  11.284   6.907   5.020 -1.4143  0.7464  2.0729
23781SOL     OW78200  10.474  12.236   4.089  0.0645  0.2083 -0.4718
23781SOL    HW178201  10.529  12.295   4.142  0.9612 -0.2621 -0.8512
23781SOL    HW278202  10.490  12.149   4.125 -1.4529  0.1979  0.2528
23782SOL     OW78203   6.089  11.783  11.893 -0.2399  0.1885  0.0659
23782SOL    HW178204   5.996  11.803  11.907 -0.8381 -1.9473 -0.4756
23782SOL    HW278205   6.093  11.755  11.802  0.9200  0.0893  0.1399
23783SOL     OW78206   2.437   4.944   0.858  0.0798 -0.4658 -0.6322
23783SOL    HW178207   2.358   4.904   0.822 -0.1655  0.8299 -1.6053
23783SOL    HW278208   2.421   5.039   0.854  1.2686 -0.2027  0.1132
23784SOL     OW78209   6.856   6.501   3.105 -0.0691  0.3024  0.0410
23784SOL    HW178210   6.939   6.548   3.102 -0.9898  2.0274 -0.0513
23784SOL    HW278211   6.815   6.520   3.020 -0.1510 -1.3485 -0.3154
23785SOL     OW78212   8.705   3.202   3.622 -0.3988  0.1350 -0.1495
23785SOL    HW178213   8.764   3.174   3.692 -0.7816  0.9644  0.5328
23785SOL    HW278214   8.763   3.232   3.552  0.0281  1.7246  0.8385
23786SOL     OW78215  12.521   3.660   3.721  0.4566 -0.6543  0.3745
23786SOL    HW178216  12.484   3.744   3.748  0.9755  0.0333 -0.9587
23786SOL    HW278217  12.488   3.598   3.786  0.2308  0.5985  1.5184
23787SOL     OW78218   3.605   4.282   9.146  0.4049 -0.3867  0.0044
23787SOL    HW178219   3.588   4.365   9.191 -0.0982 -0.3411 -0.2617
23787SOL    HW278220   3.687   4.297   9.099  1.7102 -0.9014  2.0116
23788SOL     OW78221   3.975   5.254   9.698 -0.0465 -0.0591 -0.2760
23788SOL    HW178222   3.929   5.239   9.781 -1.7485  2.2708 -0.7086
23788SOL    HW278223   3.940   5.186   9.639 -1.6601  0.5434 -0.0769
23789SOL     OW78224   7.527   7.200   6.967 -0.1447 -0.2697  0.1609
23789SOL    HW178225   7.531   7.172   6.876  2.5097 -2.6277  0.8405
23789SOL    HW278226   7.480   7.284   6.965  0.4587  0.1390 -3.4328
23790SOL     OW78227   7.883  10.152   2.531 -0.1686  0.8222  0.4140
23790SOL    HW178228   7.909  10.073   2.483  0.5204  0.3664  1.4984
23790SOL    HW278229   7.796  10.172   2.497 -1.0473 -1.3251  1.1756
23791SOL     OW78230   7.580   5.982   2.365  0.0168  0.5250  0.4405
23791SOL    HW178231   7.564   5.930   2.444 -1.3916  1.6017  0.9171
23791SOL    HW278232   7.674   5.978   2.352  0.2750  0.2670  2.1500
23792SOL     OW78233   8.257   7.809   4.875  0.1593 -0.0483  0.0256
23792SOL    HW178234   8.175   7.844   4.911  0.8692  2.5612 -0.6471
23792SOL    HW278235   8.242   7.803   4.781 -0.0490 -2.0290  0.1529
23793SOL     OW78236   3.646   7.735   1.998 -0.2324  0.4127 -0.6586
23793SOL    HW178237   3.619   7.816   1.955 -0.3305  1.4407  1.2457
23793SOL    HW278238   3.741   7.731   1.983 -0.3425  0.4681 -1.4063
23794SOL     OW78239  10.982   6.227   2.231  0.2938 -0.1390 -0.0833
23794SOL    HW178240  10.890   6.224   2.260 -0.0284  1.3761 -0.8528
23794SOL    HW278241  11.032   6.201   2.308 -0.7030  0.9356  0.9810
23795SOL     OW78242   4.108  10.361   5.649  0.3456  0.4853  0.0215
23795SOL    HW178243   4.019  10.335   5.626  0.6017  0.0859 -0.5390
23795SOL    HW278244   4.164  10.315   5.585  0.9070  1.1975 -0.0127
23796SOL     OW78245   3.752   7.993   5.949  0.2363  0.4387 -0.0788
23796SOL    HW178246   3.835   7.953   5.975 -0.6595 -1.5187 -0.0952
23796SOL    HW278247   3.776   8.083   5.925  2.4457 -0.2479 -0.7093
23797SOL     OW78248   5.866   4.541  11.427 -0.1134  0.0456 -0.0292
23797SOL    HW178249   5.915   4.599  11.368  2.1944 -1.9695 -0.2691
23797SOL    HW278250   5.914   4.545  11.510 -0.3193 -0.9720  0.1518
23798SOL     OW78251   6.526   3.487   1.808  0.4478  0.2873  0.1724
23798SOL    HW178252   6.544   3.394   1.824  1.4226  0.6526  1.2902
23798SOL    HW278253   6.510   3.492   1.714 -0.0006 -1.0737  0.1557
23799SOL     OW78254   2.573   4.338   9.901  0.0049  0.3556  0.3970
23799SOL    HW178255   2.527   4.377   9.975  1.8272  0.6453  1.4291
23799SOL    HW278256   2.516   4.266   9.874 -0.4559 -0.1465  2.4724
23800SOL     OW78257   9.390   7.294   9.216  0.3937 -0.3132  0.1454
23800SOL    HW178258   9.298   7.308   9.238  0.4820  0.2467  0.1923
23800SOL    HW278259   9.432   7.377   9.238  0.9244 -0.5940  0.2005
23801SOL     OW78260   1.674  12.214   5.273 -0.3787  0.5243 -0.2636
23801SOL    HW178261   1.693  12.298   5.230 -0.6332  0.0954 -1.2491
23801SOL    HW278262   1.760  12.174   5.284 -0.2800  0.7914 -0.0522
23802SOL     OW78263   7.288   6.136  12.501 -0.2221 -0.2299 -0.0313
23802SOL    HW178264   7.225   6.193  12.459 -0.5216  0.6441  1.5270
23802SOL    HW278265   7.331   6.090  12.429  0.0039  1.9272 -1.3479
23803SOL     OW78266   7.979   5.053  10.433 -0.2668 -0.5687  0.0485
23803SOL    HW178267   7.972   5.130  10.378 -0.6313 -0.3296  0.4210
23803SOL    HW278268   8.057   5.007  10.402  1.0786  0.9440  1.0674
23804SOL     OW78269  12.009   2.731   2.056  0.3868  0.2165  0.0944
23804SOL    HW178270  11.990   2.824   2.069 -0.5474  0.3693 -1.9461
23804SOL    HW278271  11.961   2.687   2.126 -0.7837  1.1653 -0.0775
23805SOL     OW78272   3.619   2.364   7.902 -0.2032 -0.6879  0.2180
23805SOL    HW178273   3.596   2.272   7.890 -1.0837 -0.2596 -1.8492
23805SOL    HW278274   3.536   2.411   7.897  0.4989  0.4551 -1.9121
23806SOL     OW78275   5.740   1.558   0.518 -0.1925 -0.5976 -0.1294
23806SOL    HW178276   5.747   1.647   0.484 -1.1002 -0.0947  0.9316
23806SOL    HW278277   5.668   1.519   0.469  0.3504 -0.8314 -0.7511
23807SOL     OW78278   8.157   0.592   4.678 -0.4965 -0.0847 -0.1419
23807SOL    HW178279   8.128   0.581   4.588 -2.0374  0.7582  0.2054
23807SOL    HW278280   8.253   0.591   4.674 -0.5545 -0.4655 -1.7168
23808SOL     OW78281   3.286  11.720   4.522 -0.4929 -0.0952 -0.5235
23808SOL    HW178282   3.226  11.785   4.486  0.5722  0.1371 -2.0037
23808SOL    HW278283   3.235  11.640   4.526 -1.6234  0.6617  0.6759
23809SOL     OW78284   7.073   1.972   8.773 -0.0998  0.2651 -0.1300
23809SOL    HW178285   7.070   2.044   8.710  2.0554 -0.4943 -1.2354
23809SOL    HW278286   7.038   2.009   8.854  1.7688  2.9006 -0.3706
23810SOL     OW78287   5.325   2.455   7.593  0.0687  0.4053  0.5710
23810SOL    HW178288   5.383   2.514   7.639  1.1427  0.6273 -0.9832
23810SOL    HW278289   5.376   2.423   7.518 -1.4325 -0.2554 -0.2407
23811SOL     OW78290   4.839   2.823   4.804  0.1093  0.9492 -0.5215
23811SOL    HW178291   4.756   2.794   4.842 -0.4480  1.2443 -1.4757
23811SOL    HW278292   4.897   2.748   4.813 -0.4975  0.4713 -0.5466
23812SOL     OW78293   8.413   9.294   2.693  0.2218 -0.0619  0.0988
23812SOL    HW178294   8.402   9.362   2.626  0.1969  0.4116  0.5763
23812SOL    HW278295   8.459   9.224   2.648  1.3337  0.7618 -0.0883
23813SOL     OW78296   6.671   7.335   2.347 -0.1063 -0.2166 -0.2121
23813SOL    HW178297   6.744   7.381   2.306  0.4556 -0.7537  0.1656
23813SOL    HW278298   6.697   7.325   2.439 -0.6764 -0.3680 -0.0578
23814SOL     OW78299   7.824   9.337   7.720 -0.2170 -0.0535 -0.5259
23814SOL    HW178300   7.907   9.290   7.712  0.1598  0.5956 -0.5510
23814SOL    HW278301   7.757   9.271   7.705  0.2779 -0.7378  0.1922
23815SOL     OW78302   1.200   8.719   1.322 -0.1377 -0.3333  0.0359
23815SOL    HW178303   1.197   8.786   1.390 -1.2783 -0.6148  0.2774
23815SOL    HW278304   1.159   8.759   1.246 -0.2733 -0.5520 -0.0072
23816SOL     OW78305   2.509   2.526   3.738  0.0829 -0.0922  0.1834
23816SOL    HW178306   2.557   2.607   3.755  0.3025  0.6420 -3.2073
23816SOL    HW278307   2.576   2.457   3.740  0.0082 -0.1627  2.3792
23817SOL     OW78308   0.953   5.669   3.844 -0.4524 -0.0437  0.3947
23817SOL    HW178309   1.030   5.713   3.881  0.4431 -0.4127 -0.9675
23817SOL    HW278310   0.928   5.724   3.770 -0.4881 -0.8099 -0.1667
23818SOL     OW78311   9.866   7.991  10.979 -0.2212 -0.1377 -0.0245
23818SOL    HW178312   9.849   7.975  10.886  2.1647 -1.0389 -0.3773
23818SOL    HW278313   9.823   7.919  11.024 -0.5993 -0.2247 -0.5218
23819SOL     OW78314   2.666   0.272   5.228 -0.9976 -0.4722 -0.2648
23819SOL    HW178315   2.675   0.177   5.225  0.4942 -0.3556 -0.6678
23819SOL    HW278316   2.601   0.288   5.296 -1.3887 -1.7836 -0.2989
23820SOL     OW78317   0.813  10.983   9.028  0.7469 -0.3141  0.0156
23820SOL    HW178318   0.787  11.046   8.960  2.8680  1.0066  0.3341
23820SOL    HW278319   0.803  10.898   8.986 -1.2684  0.2486 -0.7669
23821SOL     OW78320   8.362   7.209   9.465  0.3465  0.3945  0.4343
23821SOL    HW178321   8.356   7.121   9.427 -0.4023  1.8963 -3.3271
23821SOL    HW278322   8.299   7.207   9.538 -1.3217 -1.5603 -0.9492
23822SOL     OW78323   7.130   3.780   4.381 -0.1367  0.0258  0.5239
23822SOL    HW178324   7.157   3.783   4.473 -3.2449  0.4907  1.5357
23822SOL    HW278325   7.083   3.697   4.373  0.4519 -0.1992 -0.7841
23823SOL     OW78326   4.790   1.894   0.914  0.5659  0.2809 -1.0945
23823SOL    HW178327   4.803   1.822   0.975  0.7056  1.0476 -0.1979
23823SOL    HW278328   4.825   1.862   0.831  0.1173 -0.8774 -0.8555
23824SOL     OW78329   2.255   8.387   2.782  0.0589  0.0310 -0.3600
23824SOL    HW178330   2.250   8.314   2.721 -0.2700 -0.4297  0.2089
23824SOL    HW278331   2.216   8.354   2.863  0.6749  0.5663  0.1685
23825SOL     OW78332   4.642  10.450  11.359  0.1055  0.2092 -0.5842
23825SOL    HW178333   4.712  10.439  11.424 -0.8516 -0.0720  0.4358
23825SOL    HW278334   4.562  10.430  11.407 -0.9184  2.7603 -1.0798
23826SOL     OW78335   2.186   1.628   8.708  0.2027 -0.4556 -0.4713
23826SOL    HW178336   2.104   1.676   8.694 -0.7839 -2.2466 -1.1660
23826SOL    HW278337   2.251   1.675   8.655 -0.3270  1.0374  0.1475
23827SOL     OW78338  12.553   1.397  12.176 -0.1884  0.4217 -0.1567
23827SOL    HW178339  12.531   1.335  12.245  2.1818 -0.5010 -0.1157
23827SOL    HW278340  12.598   1.468  12.222 -0.9535  1.1198 -0.4674
23828SOL     OW78341  10.049  10.200   0.727  0.2166  0.0498 -0.5383
23828SOL    HW178342   9.973  10.243   0.766 -0.2206  0.6062 -1.9533
23828SOL    HW278343  10.012  10.130   0.673  0.9037 -2.1653  1.6395
23829SOL     OW78344   3.342  10.489  10.392  0.4234 -0.1880  0.3036
23829SOL    HW178345   3.315  10.521  10.478 -0.1354  0.3923 -0.0746
23829SOL    HW278346   3.289  10.410  10.379  1.2710 -0.8753  0.9281
23830SOL     OW78347  10.078  10.393   9.461 -0.2802  0.3636 -0.2297
23830SOL    HW178348  10.040  10.314   9.422  0.8260  0.5525 -1.7612
23830SOL    HW278349  10.119  10.363   9.541 -2.5172 -0.0571  0.8489
23831SOL     OW78350   1.950   7.701   0.781 -0.5714 -0.4167 -0.0806
23831SOL    HW178351   2.010   7.636   0.744 -0.3633  0.1673 -0.7815
23831SOL    HW278352   1.922   7.753   0.706 -0.9549  0.1251  0.4351
23832SOL     OW78353   2.470   8.977   0.156 -0.6334 -0.6927  0.0841
23832SOL    HW178354   2.416   8.905   0.189  0.5940 -1.8857 -0.4014
23832SOL    HW278355   2.559   8.941   0.151 -0.5286 -0.3432 -3.5019
23833SOL     OW78356   1.198   5.742   0.815  0.1588 -0.1455 -0.1903
23833SOL    HW178357   1.210   5.758   0.908 -2.9877  0.9766  0.1570
23833SOL    HW278358   1.211   5.647   0.805  0.8782 -0.2242  1.3137
23834SOL     OW78359  10.394   4.421   2.631 -0.1120 -0.6036 -0.2220
23834SOL    HW178360  10.421   4.445   2.719  2.0593  0.5688 -1.1316
23834SOL    HW278361  10.375   4.327   2.637 -0.3368 -0.4771  1.5474
23835SOL     OW78362   0.367   3.511   4.400 -0.0944 -0.0365  0.3244
23835SOL    HW178363   0.395   3.454   4.472  1.7144 -0.7723 -0.8712
23835SOL    HW278364   0.418   3.591   4.412 -0.8429  0.3922  0.6491
23836SOL     OW78365   6.182   1.783  11.100 -0.1257 -0.1186  0.1988
23836SOL    HW178366   6.204   1.821  11.185  1.9185  0.8294 -0.6770
23836SOL    HW278367   6.245   1.711  11.090 -1.4911 -1.3584  0.2030
23837SOL     OW78368   8.394  11.176   9.760  0.1860  0.2533 -0.6124
23837SOL    HW178369   8.453  11.239   9.801  1.6987 -0.0600 -2.1533
23837SOL    HW278370   8.445  11.095   9.754 -1.4226 -0.9053  0.5520
23838SOL     OW78371   4.517   6.561   2.468  0.3650 -0.3605 -0.6591
23838SOL    HW178372   4.475   6.647   2.458 -0.4619 -0.7041 -0.1947
23838SOL    HW278373   4.519   6.546   2.562 -2.9595 -2.4910 -0.7665
23839SOL     OW78374   0.004  11.647   0.628 -0.1373 -0.0436 -0.0330
23839SOL    HW178375   0.067  11.581   0.657 -0.9614  0.0128  2.0945
23839SOL    HW278376   0.054  11.728   0.622  0.2728 -0.2654  0.3589
23840SOL     OW78377   0.259   0.385   1.031 -0.8683  0.0426  0.8164
23840SOL    HW178378   0.330   0.333   1.068  0.4296  0.4488 -1.0065
23840SOL    HW278379   0.206   0.322   0.982  0.5328  0.3274 -1.1409
23841SOL     OW78380   7.867   5.426  12.558  0.2063  0.0089 -0.6645
23841SOL    HW178381   7.815   5.469  12.490  0.7426  1.4182 -0.2311
23841SOL    HW278382   7.802   5.389  12.618 -0.2789  0.1031 -1.1254
23842SOL     OW78383  10.715   0.726   9.313 -0.3414 -0.9065 -0.2814
23842SOL    HW178384  10.657   0.694   9.243 -0.7727  2.0961 -1.4179
23842SOL    HW278385  10.656   0.771   9.374  0.2510 -2.0752  1.2295
23843SOL     OW78386   3.381  11.490   4.710  0.5556  0.6210  0.0671
23843SOL    HW178387   3.470  11.455   4.713  0.2987 -0.0592 -0.0219
23843SOL    HW278388   3.364  11.504   4.617  0.7539  1.2449  0.1220
23844SOL     OW78389   5.158  12.087  10.811 -0.7808 -0.0807  0.9330
23844SOL    HW178390   5.064  12.100  10.815 -0.9914 -1.3319  0.3816
23844SOL    HW278391   5.189  12.110  10.898 -1.3971  1.6789  0.7288
23845SOL     OW78392   4.053   7.280  10.922 -0.3067  0.0719 -0.2790
23845SOL    HW178393   3.960   7.261  10.928 -0.7837  2.4072  0.7449
23845SOL    HW278394   4.059   7.356  10.865  0.6509  1.5235  1.6338
23846SOL     OW78395   7.544   0.924   0.815  0.3606  0.0569  0.0230
23846SOL    HW178396   7.538   0.974   0.733  0.8366  3.6082  1.9748
23846SOL    HW278397   7.633   0.887   0.813  0.4972  0.3938 -0.9024
23847SOL     OW78398   7.357   9.310   1.576 -0.0668  0.3557  0.4528
23847SOL    HW178399   7.433   9.301   1.634  0.4900 -1.6828 -0.4714
23847SOL    HW278400   7.391   9.287   1.490 -1.4198  0.9408 -0.2546
23848SOL     OW78401   9.084  11.813   1.176 -0.3321  0.2315  0.0924
23848SOL    HW178402   9.049  11.802   1.088 -1.2965 -2.0320  0.6798
23848SOL    HW278403   9.007  11.818   1.233  0.2374 -1.1128  1.0455
23849SOL     OW78404   2.609  10.681   4.007 -0.1593  0.2421  0.1398
23849SOL    HW178405   2.555  10.704   3.932  2.4545  2.5923 -1.1900
23849SOL    HW278406   2.652  10.599   3.982 -1.6158 -0.6500  0.4456
23850SOL     OW78407  12.173   2.220   8.300 -0.2863 -0.1177 -0.3513
23850SOL    HW178408  12.260   2.244   8.268 -1.1751  1.0419 -2.1249
23850SOL    HW278409  12.176   2.236   8.394  0.7310  2.3080 -0.7108
23851SOL     OW78410   9.056   2.068   9.010  0.1039 -0.5717  0.1219
23851SOL    HW178411   9.102   1.994   8.971  0.1899 -0.8172  0.6826
23851SOL    HW278412   8.982   2.084   8.951  0.9692 -0.0851 -0.8590
23852SOL     OW78413  10.031   4.066  11.260  0.1923 -0.2769  0.0874
23852SOL    HW178414  10.094   4.131  11.231  0.1177  1.1780  2.8135
23852SOL    HW278415  10.084   3.994  11.294  0.3946  0.2452  0.9106
23853SOL     OW78416   3.970   6.983   0.525  0.4509  0.0335 -0.1300
23853SOL    HW178417   3.967   6.958   0.617  1.5856  0.7342  0.1111
23853SOL    HW278418   3.904   7.052   0.517  0.1717 -0.2028  0.0859
23854SOL     OW78419   6.254  10.067  11.637  0.0049  0.0554 -0.4529
23854SOL    HW178420   6.264   9.997  11.701  0.5741 -0.4361 -1.0630
23854SOL    HW278421   6.162  10.092  11.642  0.4568  1.5940  2.1464
23855SOL     OW78422  12.068   6.365   6.460 -0.6150  0.2220 -0.0928
23855SOL    HW178423  12.114   6.306   6.400 -0.5035  0.3956 -0.1756
23855SOL    HW278424  12.059   6.314   6.541 -1.8014 -0.4477 -0.6204
23856SOL     OW78425   4.650   5.553   5.266  0.4203  0.3446 -0.0010
23856SOL    HW178426   4.640   5.499   5.188  1.6701  0.1725 -0.0675
23856SOL    HW278427   4.690   5.495   5.330  0.2561  0.7424  0.4685
23857SOL     OW78428   8.253   2.847   3.883 -0.2816 -0.1644  0.3017
23857SOL    HW178429   8.208   2.764   3.866  1.5095 -1.2462  0.5858
23857SOL    HW278430   8.334   2.822   3.928  0.7280  1.6540 -0.3772
23858SOL     OW78431   3.961   8.771   2.612 -0.4447 -0.3631  0.0610
23858SOL    HW178432   3.976   8.836   2.681  0.6552 -1.4931  0.9308
23858SOL    HW278433   4.042   8.773   2.560 -1.4935  0.9293 -1.6559
23859SOL     OW78434   5.985   8.800   5.059 -0.0937  0.0945 -1.1494
23859SOL    HW178435   5.996   8.878   5.113  0.7411  0.5416 -1.9282
23859SOL    HW278436   5.990   8.727   5.120 -0.6123  0.6384 -0.4469
23860SOL     OW78437   7.095  10.883   4.015  0.6646 -0.1101 -0.1774
23860SOL    HW178438   7.009  10.865   4.053  0.5150 -0.0110 -0.4671
23860SOL    HW278439   7.129  10.797   3.991  1.3507 -0.3217  1.4174
23861SOL     OW78440   0.340   8.612   8.912  0.1221 -0.4405  0.1261
23861SOL    HW178441   0.255   8.585   8.948  0.4919  1.2195  2.4902
23861SOL    HW278442   0.405   8.568   8.966  0.7133  1.3715  0.9880
23862SOL     OW78443   1.653   2.053   3.340  0.0513 -0.0670  0.2862
23862SOL    HW178444   1.598   1.977   3.360 -0.4974  0.0219 -0.7733
23862SOL    HW278445   1.591   2.118   3.307  0.5847  0.6538  0.6935
23863SOL     OW78446   1.326  10.417   8.279  0.2193  0.3122  0.1873
23863SOL    HW178447   1.299  10.361   8.205 -0.4608  0.7741  0.0749
23863SOL    HW278448   1.367  10.492   8.237 -1.3237  1.2020  0.1886
23864SOL     OW78449   5.459  12.113   9.360  0.2748 -0.0318  0.8859
23864SOL    HW178450   5.450  12.021   9.336 -1.7348  0.4048 -0.2193
23864SOL    HW278451   5.517  12.112   9.436  2.3150 -1.9811 -0.5482
23865SOL     OW78452   7.743   8.705  10.041  0.2655  0.1100  0.3568
23865SOL    HW178453   7.761   8.701  10.135  0.4805 -2.1544  0.2791
23865SOL    HW278454   7.654   8.740  10.035 -0.5754 -1.6301  1.5741
23866SOL     OW78455   4.992   9.837   6.868 -0.4765  0.3536  0.4380
23866SOL    HW178456   4.995   9.788   6.786 -2.0286 -0.7193  0.9880
23866SOL    HW278457   5.081   9.872   6.878  0.0889 -0.5826 -1.0296
23867SOL     OW78458   1.658  11.435   3.463  0.2993  0.5058 -0.0124
23867SOL    HW178459   1.733  11.426   3.523 -1.0250 -0.5111  1.5794
23867SOL    HW278460   1.585  11.462   3.519 -0.5010  1.7951 -1.5718
23868SOL     OW78461  10.885   6.858   0.402  0.0359  0.1373  0.4232
23868SOL    HW178462  10.819   6.789   0.410 -1.1939  1.1893 -0.2762
23868SOL    HW278463  10.918   6.870   0.490 -1.4310  0.2511  0.9886
23869SOL     OW78464  11.876   4.290  11.487 -0.2949 -1.1856 -0.3358
23869SOL    HW178465  11.894   4.196  11.484 -0.4127 -1.2399  0.6078
23869SOL    HW278466  11.913   4.319  11.570  1.1358 -0.0912 -1.3027
23870SOL     OW78467  10.914   0.336   0.259 -0.3728  0.1088  0.0377
23870SOL    HW178468  10.989   0.342   0.318 -0.2907  1.0816 -0.1530
23870SOL    HW278469  10.932   0.258   0.206  0.4187  0.2295  0.1186
23871SOL     OW78470   4.938   8.297   6.572  0.3603 -0.1252 -0.2180
23871SOL    HW178471   4.937   8.205   6.600 -1.3570 -0.5361 -1.4592
23871SOL    HW278472   4.887   8.298   6.491  1.3444  1.7518 -0.8745
23872SOL     OW78473  10.443   0.826   9.690 -0.5810  0.2961 -0.6102
23872SOL    HW178474  10.537   0.842   9.694 -0.2931 -1.3726  0.1339
23872SOL    HW278475  10.404   0.914   9.690  0.9613  1.0226 -1.2728
23873SOL     OW78476   6.278   3.027   2.104  0.3328  0.8865 -0.3466
23873SOL    HW178477   6.340   3.025   2.177  0.6282 -2.3832 -0.5470
23873SOL    HW278478   6.326   3.067   2.032  1.4457  0.5024  0.1591
23874SOL     OW78479   0.089   0.562   3.746 -0.1149  0.2112 -0.7181
23874SOL    HW178480   0.168   0.616   3.737 -1.0288  1.6855 -0.3629
23874SOL    HW278481   0.076   0.555   3.841  0.1912 -0.9552 -0.7556
23875SOL     OW78482   9.982   2.297   9.670  0.4094 -0.5115 -0.6178
23875SOL    HW178483   9.898   2.301   9.716  1.2531  0.8948  0.9072
23875SOL    HW278484   9.994   2.384   9.633  1.8997 -0.1738  0.5648
23876SOL     OW78485   6.355   5.862   3.569  0.2318  0.0434  0.0577
23876SOL    HW178486   6.375   5.774   3.537 -1.3216 -0.1294 -0.5160
23876SOL    HW278487   6.430   5.885   3.623  1.0923 -1.2596 -0.5279
23877SOL     OW78488   7.261   3.508  10.350 -0.0312 -0.4533  0.0371
23877SOL    HW178489   7.219   3.468  10.275  0.4557 -1.4490  0.2840
23877SOL    HW278490   7.211   3.477  10.425 -0.0385 -0.0866  0.1868
23878SOL     OW78491   9.498  11.931   2.156 -0.7866  0.4461  0.0837
23878SOL    HW178492   9.561  11.860   2.146 -2.5477 -1.1670 -0.2483
23878SOL    HW278493   9.538  12.006   2.112  0.8299 -0.5507 -0.1911
23879SOL     OW78494   0.105   2.742  11.748  0.5546  0.4375  0.1371
23879SOL    HW178495   0.119   2.715  11.657 -0.7197 -3.0400  0.8158
23879SOL    HW278496   0.151   2.676  11.800  1.3195  2.3817  2.0892
23880SOL     OW78497   8.506   6.555   8.920 -0.6941 -0.0585 -0.5109
23880SOL    HW178498   8.582   6.501   8.938  0.7985  2.3420  0.9238
23880SOL    HW278499   8.519   6.587   8.831 -0.0828  0.2306 -0.3182
23881SOL     OW78500   3.190   8.169   6.387  0.1539  0.4968 -0.0743
23881SOL    HW178501   3.210   8.243   6.444  0.5140 -0.2025  0.7272
23881SOL    HW278502   3.189   8.207   6.299 -0.8126  1.6809  0.3986
23882SOL     OW78503   8.057   4.823   6.180 -0.6722  0.2168  0.6327
23882SOL    HW178504   8.144   4.852   6.153 -0.4270 -0.1462  1.0114
23882SOL    HW278505   8.023   4.893   6.235 -1.5854  1.4237 -1.3527
23883SOL     OW78506   2.249   1.674   3.670 -0.1635 -0.8282  0.4271
23883SOL    HW178507   2.239   1.764   3.638 -0.3703 -1.8183 -2.6597
23883SOL    HW278508   2.342   1.667   3.692 -0.0012 -0.0291  0.0361
23884SOL     OW78509   4.235  12.269   5.393 -0.0972 -0.3278 -0.4672
23884SOL    HW178510   4.290  12.236   5.322  0.7243 -1.9235  0.8276
23884SOL    HW278511   4.290  12.263   5.471 -0.6490  2.2670  0.2017
23885SOL     OW78512  12.002   9.199   3.326  0.0688 -0.5656 -0.2820
23885SOL    HW178513  11.921   9.222   3.372  0.5250  0.9357 -0.1638
23885SOL    HW278514  11.985   9.223   3.235 -0.0347 -1.3916 -0.4851
23886SOL     OW78515   5.434  12.348   6.467  0.1962 -0.4448 -1.0081
23886SOL    HW178516   5.499  12.309   6.409  2.1119  1.4608 -0.3088
23886SOL    HW278517   5.352  12.303   6.447  1.1501 -1.0771 -3.8816
23887SOL     OW78518   9.285   2.790  12.329 -0.4082  0.4860 -0.3141
23887SOL    HW178519   9.267   2.715  12.273  0.7615  0.4555 -0.6874
23887SOL    HW278520   9.270   2.758  12.418  0.1603 -0.2333 -0.4647
23888SOL     OW78521   3.655   8.630  10.563 -0.4225 -0.6748 -0.1999
23888SOL    HW178522   3.654   8.657  10.471  0.0842 -1.2170 -0.3715
23888SOL    HW278523   3.567   8.649  10.595 -0.2790  0.5679 -0.4829
23889SOL     OW78524  11.069   3.339   6.084 -0.3639  0.3325 -0.2728
23889SOL    HW178525  11.021   3.422   6.079 -1.6966 -0.5071 -2.6053
23889SOL    HW278526  11.014   3.283   6.140 -0.8450  0.1782 -0.8914
23890SOL     OW78527   7.812   2.662   7.265 -1.0582 -0.4719 -0.7059
23890SOL    HW178528   7.847   2.711   7.339 -0.7416 -0.5356 -0.8087
23890SOL    HW278529   7.878   2.674   7.196 -0.2153 -2.2294 -0.2832
23891SOL     OW78530   5.085   8.035  12.301  0.3784  0.1496 -0.0505
23891SOL    HW178531   5.100   8.101  12.369 -2.4558 -0.6747  1.5458
23891SOL    HW278532   5.012   7.982  12.335 -0.8631 -0.6171 -3.5236
23892SOL     OW78533   4.860   3.526  11.079 -0.9428 -0.1549 -0.1471
23892SOL    HW178534   4.788   3.471  11.109  0.0001 -1.3154  0.0360
23892SOL    HW278535   4.865   3.596  11.144 -0.7087 -1.1085  0.8903
23893SOL     OW78536   0.201   9.712  11.403  0.5332  0.0790 -0.0412
23893SOL    HW178537   0.284   9.697  11.358 -0.1758 -0.9387 -1.0533
23893SOL    HW278538   0.172   9.624  11.429 -0.1343  0.4453  0.4821
23894SOL     OW78539   9.771   7.468   2.445 -0.2141 -0.1204 -0.3865
23894SOL    HW178540   9.835   7.429   2.385 -1.2953 -2.3241 -0.1917
23894SOL    HW278541   9.732   7.540   2.395  1.6108  0.5839 -0.8889
23895SOL     OW78542   6.476  11.549   8.103 -0.8607  0.3723  0.1393
23895SOL    HW178543   6.558  11.595   8.116 -1.0259  0.6280  0.2793
23895SOL    HW278544   6.501  11.464   8.065 -0.7141  1.5196 -2.5680
23896SOL     OW78545  10.944  11.693  11.255 -0.0579  0.6130 -0.2032
23896SOL    HW178546  10.918  11.760  11.192 -0.0708  0.4553 -0.3662
23896SOL    HW278547  10.879  11.623  11.244 -1.2925  1.4278  1.4078
23897SOL     OW78548  12.343  12.131   7.578 -0.0894 -0.2777  0.6496
23897SOL    HW178549  12.437  12.114   7.580 -0.1317 -0.4340  1.5549
23897SOL    HW278550  12.305  12.054   7.534  0.1622 -0.3838  0.6210
23898SOL     OW78551   4.195   4.150  12.158  0.3866 -0.1775  0.5413
23898SOL    HW178552   4.161   4.121  12.073  1.5785  1.2715 -0.4599
23898SOL    HW278553   4.261   4.084  12.180  0.3440 -0.3539  0.1625
23899SOL     OW78554   8.573   8.446   5.897  0.8283 -0.3858 -0.1150
23899SOL    HW178555   8.558   8.481   5.985  1.3780 -0.4129 -0.0057
23899SOL    HW278556   8.497   8.475   5.846  0.3458 -0.6369  0.4417
23900SOL     OW78557   4.872   5.975   9.164  0.4749 -0.2546 -0.1271
23900SOL    HW178558   4.964   5.964   9.189  0.6670  3.0553  1.2525
23900SOL    HW278559   4.823   5.952   9.243  0.4015  0.9754  0.2125
23901SOL     OW78560   1.827   2.313   0.743 -0.1814  0.1120  0.0838
23901SOL    HW178561   1.825   2.310   0.648  0.1455 -1.4277  0.0928
23901SOL    HW278562   1.824   2.221   0.770  0.0969  0.5020  1.5559
23902SOL     OW78563  10.652   8.612   9.743  0.0344  0.2036 -0.0580
23902SOL    HW178564  10.594   8.673   9.787  2.2190  1.9270  0.6003
23902SOL    HW278565  10.671   8.545   9.808  1.2342  1.3636  0.8325
23903SOL     OW78566   0.955   6.778   5.982 -0.4703  0.0987 -0.3768
23903SOL    HW178567   0.913   6.795   5.897 -1.2767 -0.2731 -0.0609
23903SOL    HW278568   1.049   6.778   5.962 -0.6526 -0.1183 -1.2962
23904SOL     OW78569  12.024   9.378   3.655 -0.2961  0.1901  0.5223
23904SOL    HW178570  12.063   9.420   3.578  0.5695 -1.5355 -0.0307
23904SOL    HW278571  12.077   9.300   3.670 -1.4491 -0.3830  1.8927
23905SOL     OW78572   0.569   8.414   1.401  0.0509 -0.7707  0.5412
23905SOL    HW178573   0.562   8.423   1.306  1.0125 -0.8117  0.4602
23905SOL    HW278574   0.612   8.330   1.415 -0.5267 -0.9943  1.0340
23906SOL     OW78575  12.362   0.221   1.827  0.3969 -0.5019  0.0443
23906SOL    HW178576  12.298   0.231   1.756 -0.1103 -0.7092  0.4657
23906SOL    HW278577  12.345   0.133   1.863  1.7264 -1.0634 -0.6214
23907SOL     OW78578   5.072   4.778   3.258  0.9495 -0.2818  0.2079
23907SOL    HW178579   5.111   4.811   3.339  0.4426  0.1012  0.3042
23907SOL    HW278580   5.029   4.697   3.285  0.0338  0.2904  0.5231
23908SOL     OW78581   0.541   4.346   1.355 -0.0528 -0.5084 -0.4649
23908SOL    HW178582   0.620   4.390   1.387  0.3253 -1.3783 -0.1915
23908SOL    HW278583   0.482   4.345   1.430 -0.6233  0.8003 -0.8753
23909SOL     OW78584   0.510  10.867  10.518  0.1981 -0.1411 -0.2127
23909SOL    HW178585   0.414  10.868  10.517  0.1859  0.8574  0.6914
23909SOL    HW278586   0.532  10.821  10.599  0.4528  1.0150  0.3998
23910SOL     OW78587   1.588   0.125  11.433  0.1158  0.0568  0.2458
23910SOL    HW178588   1.538   0.097  11.356  0.3177 -0.0219  0.1419
23910SOL    HW278589   1.551   0.073  11.505  0.9024 -0.9554 -0.0559
23911SOL     OW78590   4.319   7.000   5.081  0.1782  0.4816 -0.2130
23911SOL    HW178591   4.380   6.956   5.021  1.8833  0.4135  1.4469
23911SOL    HW278592   4.257   6.931   5.106  1.1545 -0.2864  0.2182
23912SOL     OW78593   6.577   7.221  10.854  0.4792  0.3339 -0.4328
23912SOL    HW178594   6.609   7.195  10.768  1.3621  0.2734 -0.0960
23912SOL    HW278595   6.609   7.154  10.914 -0.4745  0.1497 -0.0995
23913SOL     OW78596   6.518  12.368   0.264 -0.1306  0.1806 -0.0325
23913SOL    HW178597   6.490  12.416   0.342  1.0380 -0.2988  0.6999
23913SOL    HW278598   6.559  12.289   0.298 -0.1089 -0.3102 -1.1626
23914SOL     OW78599   4.406   0.605  11.284  0.2788 -0.0789  0.4672
23914SOL    HW178600   4.333   0.622  11.225  0.4153  0.5517  0.4712
23914SOL    HW278601   4.365   0.570  11.363  0.0455 -0.3862  0.2072
23915SOL     OW78602   0.811   8.928   5.049 -0.7153  0.3030 -0.0534
23915SOL    HW178603   0.877   8.863   5.074 -1.4057  0.1542  1.5072
23915SOL    HW278604   0.755   8.883   4.985 -0.2948 -0.1243 -0.1236
23916SOL     OW78605   7.063  10.798   1.587  0.0132 -0.0209 -0.1740
23916SOL    HW178606   7.127  10.764   1.649  0.6831  3.3917  1.2248
23916SOL    HW278607   6.978  10.772   1.623  0.4783 -0.4537  0.6314
23917SOL     OW78608   2.049   3.132   0.006  0.2607 -0.0910  0.7984
23917SOL    HW178609   1.981   3.197   0.023  0.5690  0.4516  0.0229
23917SOL    HW278610   2.004   3.062  -0.041  0.0329 -0.2127  1.1920
23918SOL     OW78611   0.387  12.092   0.880 -0.1119 -0.3901 -0.3911
23918SOL    HW178612   0.472  12.057   0.906  1.6498  1.7290 -2.8665
23918SOL    HW278613   0.325  12.022   0.903  2.2274 -2.0373  1.4502
23919SOL     OW78614   8.628   9.840  11.371  0.6807 -0.0560 -0.0771
23919SOL    HW178615   8.704   9.834  11.313 -0.1069 -0.0394 -1.1303
23919SOL    HW278616   8.564   9.893  11.322 -0.1627 -0.4099  0.6154
23920SOL     OW78617  11.637   8.564   7.972 -0.4111  0.5319 -0.0383
23920SOL    HW178618  11.678   8.636   8.019 -0.7107  0.0969  0.9127
23920SOL    HW278619  11.642   8.589   7.880 -0.1420  1.5686  0.2497
23921SOL     OW78620   1.592   9.877   2.826  0.3030  0.3214 -0.2352
23921SOL    HW178621   1.670   9.881   2.882 -0.9715 -2.0989  1.9265
23921SOL    HW278622   1.619   9.917   2.744  3.0653  1.7609  1.2410
23922SOL     OW78623   2.263   9.736   0.170  0.3173  0.0342 -0.0044
23922SOL    HW178624   2.270   9.782   0.086  0.4385 -0.2617 -0.1597
23922SOL    HW278625   2.263   9.805   0.235  2.2927  0.2228 -0.1201
23923SOL     OW78626   2.451   0.863   7.525 -0.1248 -0.0555  0.0898
23923SOL    HW178627   2.530   0.812   7.542 -1.0443 -1.7022 -0.3299
23923SOL    HW278628   2.467   0.948   7.567  1.9655 -0.2422 -0.2620
23924SOL     OW78629   6.218  11.819  10.160  0.2276 -0.5853  0.1503
23924SOL    HW178630   6.189  11.837  10.250  0.1836 -1.5056  0.3285
23924SOL    HW278631   6.179  11.889  10.108 -0.6613 -0.6634  0.6864
23925SOL     OW78632   4.457   8.180   4.567  0.4881 -0.1948  0.6507
23925SOL    HW178633   4.464   8.088   4.543  0.8333  0.2135 -0.9263
23925SOL    HW278634   4.393   8.216   4.505 -1.0554  0.2750  2.3930
23926SOL     OW78635   7.188  11.977   4.554  0.3521 -0.3373  0.1174
23926SOL    HW178636   7.143  12.027   4.486 -2.1619 -0.4111  1.5819
23926SOL    HW278637   7.216  11.897   4.511  0.1429  0.2416 -1.1485
23927SOL     OW78638   2.129   3.014  10.629  0.3309 -0.2443 -0.4066
23927SOL    HW178639   2.091   2.982  10.547 -0.5374 -0.3638  0.0229
23927SOL    HW278640   2.070   3.084  10.657 -0.4323 -1.3837  1.0051
23928SOL     OW78641   5.406   3.110   6.578  0.0083  0.4073 -0.0630
23928SOL    HW178642   5.488   3.159   6.576 -0.8209  1.9686  1.6531
23928SOL    HW278643   5.378   3.107   6.487  0.8752  1.7616 -0.4098
23929SOL     OW78644   9.338   8.801   1.748  0.2035  0.3788 -0.0434
23929SOL    HW178645   9.326   8.812   1.654 -3.1446 -1.4439  0.0310
23929SOL    HW278646   9.264   8.847   1.788 -0.9738 -2.4722  1.3595
23930SOL     OW78647   9.862   5.875   2.926  0.0195  0.0717 -0.0250
23930SOL    HW178648   9.863   5.918   2.841  0.8851  0.1501  0.0133
23930SOL    HW278649   9.949   5.892   2.963 -1.5081  3.3562  2.5733
23931SOL     OW78650   2.177   6.466  10.402  0.1436  0.4968 -0.3782
23931SOL    HW178651   2.208   6.459  10.312 -0.2464  1.8454 -0.6282
23931SOL    HW278652   2.103   6.405  10.406 -0.2825  0.9482 -1.1674
23932SOL     OW78653   3.391  11.823   2.199 -0.0988  0.0324  0.3215
23932SOL    HW178654   3.474  11.840   2.154  1.4235 -0.1640  2.8449
23932SOL    HW278655   3.407  11.852   2.289 -2.6870 -0.3537  0.9681
23933SOL     OW78656  10.817   5.581   5.699  0.2766 -0.6705 -0.1070
23933SOL    HW178657  10.788   5.492   5.681  0.9875 -0.9290 -0.0097
23933SOL    HW278658  10.912   5.574   5.708  0.2952  0.0243  0.3282
23934SOL     OW78659   5.486   8.798   3.219  0.0752  0.2058  0.6485
23934SOL    HW178660   5.397   8.799   3.256 -0.1669  0.8818  0.0688
23934SOL    HW278661   5.510   8.706   3.217 -1.8756 -0.3621 -2.1478
23935SOL     OW78662  12.504   1.190   2.136  0.2154 -0.6157  0.2835
23935SOL    HW178663  12.592   1.184   2.174 -0.6461 -0.8416  2.4236
23935SOL    HW278664  12.455   1.245   2.198 -1.3355 -1.0996 -0.4495
23936SOL     OW78665   2.045  11.272   1.457 -0.0521 -0.1847 -0.0148
23936SOL    HW178666   1.966  11.326   1.457  1.8256  2.8052 -1.5503
23936SOL    HW278667   2.048  11.232   1.370 -0.1071 -0.7314  0.2262
23937SOL     OW78668  11.929   8.590   6.089  0.2723 -0.5156 -0.5992
23937SOL    HW178669  11.942   8.596   6.184 -2.0539 -0.6109 -0.2167
23937SOL    HW278670  11.858   8.651   6.070 -0.5374 -1.8066 -1.9833
23938SOL     OW78671   6.503   5.341   5.109 -0.0905  0.3124 -0.1379
23938SOL    HW178672   6.536   5.300   5.029 -1.6327  0.7669 -1.0418
23938SOL    HW278673   6.559   5.305   5.178 -0.4677 -2.2590 -1.0456
23939SOL     OW78674   5.494   2.152  12.067 -0.0872 -0.1946  0.2272
23939SOL    HW178675   5.540   2.224  12.025 -1.0809  0.4733  0.2367
23939SOL    HW278676   5.428   2.195  12.122  1.2787 -1.0360  2.6216
23940SOL     OW78677  10.302   7.769   7.916  0.4040  0.1896  0.1041
23940SOL    HW178678  10.248   7.753   7.993  1.0387 -0.0448  0.5121
23940SOL    HW278679  10.386   7.799   7.951  0.0539  2.0750 -0.5673
23941SOL     OW78680   9.438   4.158   4.907 -0.2932 -0.2146  0.9154
23941SOL    HW178681   9.494   4.221   4.863  0.6382 -2.4898 -1.4643
23941SOL    HW278682   9.353   4.167   4.863 -0.5894  0.3409  1.5865
23942SOL     OW78683  11.868   6.293   9.648 -0.2845  0.1151 -0.1486
23942SOL    HW178684  11.855   6.230   9.578  0.2130 -0.2643  0.0907
23942SOL    HW278685  11.942   6.258   9.698 -0.5260  0.4618  0.4642
23943SOL     OW78686   5.718   0.274   6.680 -0.1401  0.1549 -0.1769
23943SOL    HW178687   5.632   0.245   6.652  0.7767 -2.1183 -0.8981
23943SOL    HW278688   5.737   0.351   6.627 -1.5594  0.4727 -0.2486
23944SOL     OW78689   9.478   0.760   8.800  0.3356  0.3054 -0.3705
23944SOL    HW178690   9.436   0.843   8.777  0.4406  0.2447 -0.7883
23944SOL    HW278691   9.547   0.749   8.734 -0.3922 -0.6535 -0.9994
23945SOL     OW78692   1.152   5.865   4.992 -0.9270 -0.6048 -0.0359
23945SOL    HW178693   1.158   5.898   5.082 -0.9650 -1.6646  0.3629
23945SOL    HW278694   1.237   5.886   4.953  0.1898 -2.6846  1.1470
23946SOL     OW78695  11.549  10.874   3.386 -0.1693 -0.1347 -0.2596
23946SOL    HW178696  11.564  10.805   3.449  1.8688 -0.4129 -0.9602
23946SOL    HW278697  11.606  10.946   3.414  0.7199 -0.2342 -1.6691
23947SOL     OW78698   2.618  12.509   9.510 -0.4438  0.3090 -0.5016
23947SOL    HW178699   2.712  12.503   9.528 -0.4696 -0.0090 -0.4684
23947SOL    HW278700   2.599  12.435   9.453 -0.3383  1.3785 -1.9941
23948SOL     OW78701   0.042  12.152   7.607 -0.1420 -0.1763  0.0923
23948SOL    HW178702   0.057  12.241   7.575 -3.5310  1.6248  2.7623
23948SOL    HW278703   0.130  12.114   7.615  1.3140  2.0206 -3.2433
23949SOL     OW78704   6.782   0.092   4.916 -0.1177 -0.0611  0.1929
23949SOL    HW178705   6.768   0.186   4.903  0.6916  0.0416 -0.0331
23949SOL    HW278706   6.698   0.052   4.896 -0.2391  0.5471 -0.5938
23950SOL     OW78707   7.838   0.178   4.790  0.0850 -0.0524 -0.0887
23950SOL    HW178708   7.922   0.132   4.777  0.0109 -0.1079 -0.3712
23950SOL    HW278709   7.862   0.270   4.799  0.3409 -0.2563  1.5578
23951SOL     OW78710   7.745   0.310   6.995 -0.9467 -0.1997  0.3716
23951SOL    HW178711   7.676   0.348   7.050 -2.4571  0.6888 -2.0063
23951SOL    HW278712   7.699   0.254   6.934  0.4101  0.4218 -1.3061
23952SOL     OW78713   1.604   6.159  11.014 -0.1946  0.1185  0.3544
23952SOL    HW178714   1.656   6.113  11.080 -1.8332 -0.8419  1.0343
23952SOL    HW278715   1.574   6.239  11.058  0.6131  0.6256 -0.0063
23953SOL     OW78716   4.657   7.870   5.538 -0.0825 -0.2794 -0.6782
23953SOL    HW178717   4.657   7.782   5.500  0.6847 -1.9494  2.7621
23953SOL    HW278718   4.684   7.927   5.467  1.1118 -3.0752 -2.6389
23954SOL     OW78719  12.225   6.170   6.315  0.7010  0.4519 -0.3164
23954SOL    HW178720  12.170   6.096   6.343  0.1351  1.0188  0.0833
23954SOL    HW278721  12.233   6.158   6.220  0.8239 -0.2609 -0.2221
23955SOL     OW78722   5.281  10.585   7.983 -0.2324 -0.6713 -0.3131
23955SOL    HW178723   5.236  10.619   7.905 -1.7365 -2.2518 -0.1814
23955SOL    HW278724   5.210  10.562   8.043  0.8615 -0.9714  0.8948
23956SOL     OW78725   9.607   6.638   8.650 -0.0868  0.0645 -0.1480
23956SOL    HW178726   9.656   6.570   8.603  0.4615  1.5699 -1.8965
23956SOL    HW278727   9.673   6.705   8.671 -0.8036  0.5865  0.4668
23957SOL     OW78728   3.285   3.494   3.823 -0.2197  0.0619  0.0333
23957SOL    HW178729   3.321   3.441   3.752 -0.0054  1.5285 -1.0099
23957SOL    HW278730   3.294   3.584   3.791 -0.4345  0.7318  1.7959
23958SOL     OW78731   7.531   9.756  10.856  0.9926  0.2650  0.5501
23958SOL    HW178732   7.585   9.679  10.835  1.1158  0.8550 -1.6199
23958SOL    HW278733   7.529   9.806  10.774  0.0336  2.0450  1.5971
23959SOL     OW78734  10.698   4.203   2.426 -0.0798 -0.8143  0.4327
23959SOL    HW178735  10.676   4.247   2.508 -0.2515 -1.8231  0.9466
23959SOL    HW278736  10.632   4.134   2.417 -1.0626  0.2845 -1.3915
23960SOL     OW78737  11.769   7.041   5.730 -0.3977  0.3997 -0.2652
23960SOL    HW178738  11.861   7.049   5.756 -0.5499 -1.0358  0.8333
23960SOL    HW278739  11.744   7.130   5.706  0.9266  1.0640  0.6362
23961SOL     OW78740   3.883   0.513  11.302  0.2571  0.4250  0.2574
23961SOL    HW178741   3.869   0.552  11.388  1.3982  0.0250  0.6434
23961SOL    HW278742   3.944   0.441  11.318  2.1356  1.6148 -1.1901
23962SOL     OW78743   2.689   6.791   0.895 -0.2312 -0.0933  0.2551
23962SOL    HW178744   2.643   6.807   0.977  0.8321 -0.8006  1.0140
23962SOL    HW278745   2.755   6.860   0.890 -1.0519  0.6557 -0.6100
23963SOL     OW78746  10.342   0.865  11.112 -0.2050  0.2561 -0.3220
23963SOL    HW178747  10.389   0.804  11.056 -1.7217 -1.0127 -0.3060
23963SOL    HW278748  10.272   0.812  11.151 -0.5546  1.6257  1.0168
23964SOL     OW78749   0.317  11.854   9.566 -0.2272  0.0482  0.2348
23964SOL    HW178750   0.371  11.776   9.580  0.4896  0.3377 -0.8029
23964SOL    HW278751   0.329  11.906   9.645 -0.5503 -0.7852  0.8515
23965SOL     OW78752   7.297  11.475   2.052  0.6421  0.0316 -0.0731
23965SOL    HW178753   7.228  11.418   2.019  0.1409  0.6554 -0.1315
23965SOL    HW278754   7.313  11.536   1.980  2.5714 -1.2230 -0.7861
23966SOL     OW78755   7.586  10.203   2.432  0.5597 -0.2438 -0.1563
23966SOL    HW178756   7.494  10.184   2.418  0.5775 -0.1740 -0.3722
23966SOL    HW278757   7.631  10.121   2.412  0.5388 -0.3028  0.0330
23967SOL     OW78758   7.619   0.451   9.623  0.5060 -0.5486  0.3769
23967SOL    HW178759   7.697   0.507   9.625 -0.4863  0.9258 -0.5832
23967SOL    HW278760   7.615   0.419   9.533  0.3592 -1.1869  0.5986
23968SOL     OW78761  10.885  12.471   7.472 -0.4221 -0.8616 -0.3172
23968SOL    HW178762  10.937  12.398   7.439  0.0706 -1.0652  0.8679
23968SOL    HW278763  10.880  12.456   7.566 -1.9763 -0.4163 -0.3098
23969SOL     OW78764   6.466   6.048   0.329 -0.2584 -0.2756 -0.0379
23969SOL    HW178765   6.440   6.035   0.420 -0.6689  3.1718  0.4450
23969SOL    HW278766   6.556   6.082   0.334  0.5952 -2.1985 -1.1181
23970SOL     OW78767   8.469   6.692   7.468  0.3978 -0.4699 -0.8137
23970SOL    HW178768   8.459   6.707   7.562  0.5869 -1.0379 -0.7014
23970SOL    HW278769   8.454   6.598   7.457 -0.1434 -0.3206 -1.4243
23971SOL     OW78770   3.085   6.661   6.281 -0.1875 -0.3785 -0.5966
23971SOL    HW178771   3.168   6.708   6.288  0.1679 -1.2829  2.3366
23971SOL    HW278772   3.104   6.589   6.221 -0.0133  1.5559 -3.0277
23972SOL     OW78773   5.437   0.735   8.627 -0.1243  0.2305  0.4873
23972SOL    HW178774   5.392   0.816   8.651 -1.2353  0.2627 -1.5162
23972SOL    HW278775   5.493   0.716   8.703  1.2565  3.5871  0.5296
23973SOL     OW78776   3.479  11.208   1.435 -0.3276  0.3898  0.0089
23973SOL    HW178777   3.531  11.132   1.409 -0.5112  0.3422 -0.2216
23973SOL    HW278778   3.540  11.282   1.430 -0.4202  0.4191 -0.7826
23974SOL     OW78779   5.127   4.566   3.880  0.5295 -0.3558  0.1759
23974SOL    HW178780   5.158   4.639   3.826  0.3411 -1.5650 -1.6380
23974SOL    HW278781   5.081   4.609   3.953  0.3230  1.3451 -0.8858
23975SOL     OW78782   5.614   9.048   3.507  0.2963  0.6417  0.1325
23975SOL    HW178783   5.551   9.087   3.569  0.6346  0.5681  0.5290
23975SOL    HW278784   5.582   9.074   3.421 -1.8778 -1.6161  0.1192
23976SOL     OW78785   7.087  11.655   7.991 -0.0294 -0.4375  0.2133
23976SOL    HW178786   7.085  11.673   7.896  0.7692  0.2945  0.3150
23976SOL    HW278787   7.059  11.564   7.999 -2.7044  0.2320 -0.5022
23977SOL     OW78788   5.107   7.648   9.942 -0.3896  0.1418 -0.2141
23977SOL    HW178789   5.177   7.703   9.977  1.2350  0.1557 -3.1629
23977SOL    HW278790   5.141   7.558   9.949 -1.8459 -0.3288  1.9558
23978SOL     OW78791   7.401   7.754   5.142 -0.4080 -0.0818 -0.2864
23978SOL    HW178792   7.346   7.829   5.119  1.1755  0.8958 -1.1342
23978SOL    HW278793   7.462   7.747   5.069 -0.0888 -1.8086  0.1016
23979SOL     OW78794   2.131   7.728  10.044 -0.2741 -0.0118 -0.2940
23979SOL    HW178795   2.137   7.812  10.089 -2.8521  0.3110 -0.4204
23979SOL    HW278796   2.042   7.697  10.062 -0.9690 -0.5741 -3.8482
23980SOL     OW78797  11.702   9.313  10.524  0.1088 -0.3768  0.2125
23980SOL    HW178798  11.658   9.323  10.609  0.3261 -0.7635  0.3748
23980SOL    HW278799  11.775   9.254  10.542  0.0592 -0.5910 -0.2814
23981SOL     OW78800   3.404   1.802   0.618 -0.4040  0.2426  0.0742
23981SOL    HW178801   3.428   1.724   0.668 -1.5836 -0.7715 -0.8533
23981SOL    HW278802   3.487   1.845   0.599  0.3547 -1.1645  0.0383
23982SOL     OW78803   3.334   9.603  11.502 -0.4175 -0.3449 -0.6456
23982SOL    HW178804   3.241   9.588  11.483 -1.0402 -1.0600  2.4312
23982SOL    HW278805   3.357   9.533  11.563  1.3252  1.5081  0.9670
23983SOL     OW78806  11.914   8.242   4.089 -0.0867 -0.0887  0.2651
23983SOL    HW178807  11.918   8.305   4.017 -0.1995  0.2480  0.5485
23983SOL    HW278808  11.898   8.158   4.047  0.0509  0.0756 -0.1175
23984SOL     OW78809   7.470  10.611   3.843  0.3139 -0.4805  0.6124
23984SOL    HW178810   7.525  10.652   3.910  0.8047 -0.2487  0.0716
23984SOL    HW278811   7.503  10.521   3.838  0.7150 -0.3138  0.2172
23985SOL     OW78812  11.178  10.303   8.106 -0.3213 -0.2469 -0.3636
23985SOL    HW178813  11.126  10.249   8.165  0.3413  0.0714  0.5286
23985SOL    HW278814  11.263  10.310   8.149 -0.1918  0.9518 -0.7938
23986SOL     OW78815   0.426  11.568   0.491  0.6648 -0.2140  0.2733
23986SOL    HW178816   0.402  11.589   0.401 -1.6605  0.3882  0.9537
23986SOL    HW278817   0.350  11.520   0.525  0.5619  1.3713  2.5045
23987SOL     OW78818   4.607   0.350   4.603  0.0229  0.1729  0.6822
23987SOL    HW178819   4.651   0.275   4.562 -0.5303  0.7664 -1.0782
23987SOL    HW278820   4.538   0.312   4.657  1.5203 -0.6865  2.0715
23988SOL     OW78821   2.066   4.087   5.557 -0.1592  0.3170  0.3251
23988SOL    HW178822   2.120   4.129   5.491 -1.0166  0.9859  0.0258
23988SOL    HW278823   2.128   4.056   5.623  0.7909 -1.1711 -1.2021
23989SOL     OW78824  11.698   5.976   0.134  0.0144  0.6128 -0.0845
23989SOL    HW178825  11.774   6.028   0.109  0.0034  0.2063 -1.0066
23989SOL    HW278826  11.640   5.980   0.058  0.0454 -0.7843 -0.2048
23990SOL     OW78827   6.983   4.407   1.356 -0.7715 -0.2185 -0.2528
23990SOL    HW178828   6.906   4.397   1.300 -2.7646 -1.6262  2.4834
23990SOL    HW278829   6.950   4.392   1.445  2.0972  2.2586  1.4109
23991SOL     OW78830   8.024   9.464   7.378  1.1555  0.2876 -0.0138
23991SOL    HW178831   7.933   9.440   7.394  1.7921 -2.2185  0.2507
23991SOL    HW278832   8.035   9.548   7.423 -0.5587 -0.2100  1.4560
23992SOL     OW78833   3.676   4.008   8.976 -0.3285  0.2519 -0.2982
23992SOL    HW178834   3.687   3.929   8.924  0.5616  1.0524 -1.3738
23992SOL    HW278835   3.762   4.048   8.977 -0.8048  1.3045  0.0805
23993SOL     OW78836   9.225   4.920  10.768  0.3603  0.8625 -0.4314
23993SOL    HW178837   9.149   4.919  10.710  1.0826  0.3028 -1.3930
23993SOL    HW278838   9.217   5.001  10.817 -1.3859  0.3602  0.1986
23994SOL     OW78839   6.449  10.908   2.731 -0.0310  0.6247  0.4366
23994SOL    HW178840   6.480  10.824   2.698 -0.7968 -0.3382  2.1019
23994SOL    HW278841   6.356  10.909   2.712 -0.1015  0.9248  0.7945
23995SOL     OW78842   5.019   8.835   5.764  0.0301  0.1296 -0.3100
23995SOL    HW178843   4.960   8.903   5.731 -0.1456  0.0877 -0.0802
23995SOL    HW278844   5.029   8.856   5.857  2.2678  1.5772 -0.7932
23996SOL     OW78845   6.477   8.920   1.620 -0.1101 -0.2419  0.1565
23996SOL    HW178846   6.412   8.861   1.658 -0.1162 -0.3962 -0.0932
23996SOL    HW278847   6.434   9.005   1.620 -0.3614 -0.3656 -0.1192
23997SOL     OW78848   4.857   9.316   7.730 -0.2306  0.0990 -0.0343
23997SOL    HW178849   4.879   9.311   7.823  0.2718 -1.7591 -0.1974
23997SOL    HW278850   4.941   9.333   7.686 -0.2492 -0.2638 -0.2158
23998SOL     OW78851   0.099   4.643   1.291  0.2140 -0.1920  0.1443
23998SOL    HW178852   0.092   4.696   1.212  0.6498  1.1400  0.9612
23998SOL    HW278853   0.063   4.699   1.360  1.6354 -0.5533  1.2211
23999SOL     OW78854   7.376   0.068  11.786  1.0040  0.7130 -0.2933
23999SOL    HW178855   7.306   0.027  11.736  2.8124 -0.5681 -1.9047
23999SOL    HW278856   7.354   0.049  11.878 -0.4373 -0.1274 -0.7791
24000SOL     OW78857  10.909   0.792   3.523  0.8527 -0.2813 -0.1816
24000SOL    HW178858  10.981   0.746   3.566  1.1137 -0.1745 -0.4966
24000SOL    HW278859  10.900   0.748   3.438  0.7917 -0.0573 -0.2923
24001SOL     OW78860   9.115  10.248   6.424 -0.1216 -0.4160  0.1168
24001SOL    HW178861   9.124  10.261   6.330  0.6922 -0.2996  0.2090
24001SOL    HW278862   9.029  10.287   6.445 -1.8299 -3.2637 -1.0639
24002SOL     OW78863  11.618   4.052   4.055 -0.2888  0.0854 -0.0090
24002SOL    HW178864  11.618   4.060   3.960  2.2265 -1.7550 -0.2604
24002SOL    HW278865  11.557   3.981   4.073  1.7231 -1.9013 -0.6324
24003SOL     OW78866  11.440   2.235   1.778  0.0126  0.1570  0.3544
24003SOL    HW178867  11.466   2.327   1.772 -0.4060  0.2539 -0.1027
24003SOL    HW278868  11.501   2.189   1.721  0.9641 -0.0268  1.4765
24004SOL     OW78869   6.148   5.214   2.427  0.1208 -0.3243  0.1329
24004SOL    HW178870   6.133   5.120   2.436  0.3874 -0.3825 -0.0430
24004SOL    HW278871   6.088   5.253   2.490 -1.4984 -0.5023 -1.2324
24005SOL     OW78872   5.581  10.867   9.165  0.3160 -0.2131  0.3530
24005SOL    HW178873   5.515  10.925   9.127  1.7439  1.9078  0.9229
24005SOL    HW278874   5.569  10.783   9.120  0.6032  1.5418 -3.2778
24006SOL     OW78875   0.358   7.006   7.081 -0.4200  0.3101 -0.8624
24006SOL    HW178876   0.440   7.050   7.101 -0.2635 -0.3094 -0.0801
24006SOL    HW278877   0.304   7.019   7.159 -1.5978  1.8815 -1.8843
24007SOL     OW78878   4.323   0.092   6.443  0.1275 -0.1359  0.3057
24007SOL    HW178879   4.284   0.014   6.403  1.4844 -1.5449  1.5934
24007SOL    HW278880   4.351   0.146   6.369  1.8379 -2.2595 -0.6867
24008SOL     OW78881   2.590   7.609   4.534  0.5243  0.4299 -0.0775
24008SOL    HW178882   2.587   7.513   4.523  0.0211  0.5192 -0.8151
24008SOL    HW278883   2.628   7.622   4.621  1.6701 -0.4233 -0.4202
24009SOL     OW78884  12.191   9.849   1.211 -0.5523 -0.7214 -0.7159
24009SOL    HW178885  12.155   9.816   1.293  0.0677 -0.6478 -0.4065
24009SOL    HW278886  12.237   9.775   1.173  0.6274 -0.3246 -0.1414
24010SOL     OW78887  10.092   8.824   9.587  0.3062  0.1972  0.0867
24010SOL    HW178888  10.046   8.815   9.671  1.2278 -1.0488  0.4988
24010SOL    HW278889  10.039   8.885   9.536 -0.7665  0.2594  1.2383
24011SOL     OW78890   5.121   7.976   7.141 -0.0661 -0.0759 -0.0444
24011SOL    HW178891   5.173   8.018   7.209  1.2086 -1.4959 -0.0654
24011SOL    HW278892   5.183   7.962   7.069 -0.2801 -2.2688  0.1098
24012SOL     OW78893   3.698   8.299   0.638 -0.3383  0.0444 -0.0087
24012SOL    HW178894   3.700   8.275   0.545  0.4227 -0.0967  0.0354
24012SOL    HW278895   3.632   8.241   0.676  2.2083 -2.8955  0.3019
24013SOL     OW78896   2.702   1.278   8.448  0.0529  0.1991  0.5340
24013SOL    HW178897   2.689   1.183   8.446  0.6631  0.1102 -1.3018
24013SOL    HW278898   2.797   1.289   8.446 -0.0260  0.8323 -0.0972
24014SOL     OW78899   5.923   4.807   9.897 -0.1524  0.6447  0.2329
24014SOL    HW178900   5.848   4.864   9.917 -0.3088  0.5029  0.0534
24014SOL    HW278901   5.968   4.796   9.981  0.3059  1.6391  0.1331
24015SOL     OW78902   0.565   5.974   4.347 -0.3200  0.2051 -0.3367
24015SOL    HW178903   0.620   5.929   4.283  0.9007  0.1434  0.7245
24015SOL    HW278904   0.500   5.909   4.373  1.0799 -0.8080  0.7535
24016SOL     OW78905   0.243  11.534   6.245 -0.0315  0.2262  0.2056
24016SOL    HW178906   0.311  11.586   6.289  0.7026 -1.8918  1.7799
24016SOL    HW278907   0.292  11.477   6.185 -0.7676  0.9251 -1.1001
24017SOL     OW78908   2.597  10.954  10.272  0.0592  0.1498 -0.1342
24017SOL    HW178909   2.668  10.953  10.337 -0.4043 -0.0933  0.3707
24017SOL    HW278910   2.517  10.940  10.323 -0.5175  1.8539 -0.5163
24018SOL     OW78911   1.869   0.545   8.908  0.2966 -0.2482  0.1352
24018SOL    HW178912   1.878   0.513   8.818  0.1220  0.1660 -0.0313
24018SOL    HW278913   1.782   0.584   8.912 -0.3011 -1.5745  0.9095
24019SOL     OW78914   6.819   1.768   9.921 -0.0834  0.4337 -0.3761
24019SOL    HW178915   6.823   1.855   9.882  1.3611  0.9660  0.8439
24019SOL    HW278916   6.905   1.755   9.960 -0.5788 -1.1535  0.2975
24020SOL     OW78917  11.162   5.244   8.692  0.0827 -0.4058 -0.0668
24020SOL    HW178918  11.207   5.327   8.678  0.2460 -0.8517 -2.7669
24020SOL    HW278919  11.094   5.264   8.757  0.6646  1.6028 -0.0157
24021SOL     OW78920   2.374  10.382   7.411 -0.4251 -0.7278  0.8665
24021SOL    HW178921   2.389  10.311   7.474  2.0323  0.8708  2.2569
24021SOL    HW278922   2.321  10.445   7.458 -0.9185 -0.7338  0.3309
24022SOL     OW78923   5.155  10.021   9.870  0.1650  0.0098 -0.4265
24022SOL    HW178924   5.082   9.995   9.926  1.4326 -0.0036  1.2772
24022SOL    HW278925   5.118  10.021   9.781 -0.8412 -4.1575 -0.1934
24023SOL     OW78926  11.600   3.786  10.270  0.3093  0.2148  0.0161
24023SOL    HW178927  11.648   3.771  10.189 -0.5053  2.5194 -0.9765
24023SOL    HW278928  11.514   3.746  10.255  0.2396  0.4327 -0.1705
24024SOL     OW78929   1.198  11.192   2.813  0.4878 -0.2799  0.4676
24024SOL    HW178930   1.239  11.197   2.727 -1.0499  2.0142 -0.2383
24024SOL    HW278931   1.268  11.215   2.874  0.9760  0.6890 -0.4255
24025SOL     OW78932   1.446   9.216   1.377 -0.5160 -0.8580 -0.4421
24025SOL    HW178933   1.535   9.237   1.349  0.5346  1.1465  3.5674
24025SOL    HW278934   1.390   9.276   1.327  0.9677  1.1511  0.1607
24026SOL     OW78935  11.866   3.153   1.060 -0.2121 -0.2589 -0.4479
24026SOL    HW178936  11.948   3.169   1.106 -0.3783 -0.0022 -0.2314
24026SOL    HW278937  11.844   3.238   1.020 -0.0624 -0.4848 -1.0127
24027SOL     OW78938  10.495   9.115  10.646  0.2903 -0.1879 -0.1817
24027SOL    HW178939  10.564   9.112  10.712  0.3384 -0.5004 -0.2478
24027SOL    HW278940  10.541   9.115  10.562  0.2883  1.5431 -0.2227
24028SOL     OW78941   3.376   3.072  10.929 -0.1909 -0.6450  0.4059
24028SOL    HW178942   3.448   3.126  10.960 -0.8917 -0.9546  2.7580
24028SOL    HW278943   3.415   3.017  10.861  0.8911  1.6514 -0.9450
24029SOL     OW78944   4.915   5.071   2.001  0.1845  0.2079 -0.1419
24029SOL    HW178945   4.842   5.018   1.969 -0.3381  1.5052 -1.1801
24029SOL    HW278946   4.957   5.015   2.067  0.3548 -1.9494 -1.9326
24030SOL     OW78947   0.317   7.684   4.761 -0.1635  0.4849 -0.2790
24030SOL    HW178948   0.256   7.754   4.737  2.8328  3.9025  1.2256
24030SOL    HW278949   0.377   7.677   4.686  0.0990  0.1305 -0.0437
24031SOL     OW78950   6.784   0.665   5.649 -0.2372  0.4517  0.4710
24031SOL    HW178951   6.794   0.760   5.642 -0.2405  0.4510  0.4572
24031SOL    HW278952   6.748   0.638   5.564 -1.5568  0.6101  0.9662
24032SOL     OW78953  10.339   5.006  11.165 -0.2106  0.2912 -0.1110
24032SOL    HW178954  10.322   4.928  11.113  2.3796 -0.8103  0.5425
24032SOL    HW278955  10.336   5.078  11.102  0.9130 -0.7746 -1.4434
24033SOL     OW78956   6.203   6.525   2.620  0.2413 -0.0260 -0.1483
24033SOL    HW178957   6.194   6.471   2.541  1.5540  0.0250 -0.3563
24033SOL    HW278958   6.251   6.470   2.682 -1.4043 -0.3283  0.9085
24034SOL     OW78959   3.746   1.156   9.883  0.2870  0.9007  0.3183
24034SOL    HW178960   3.713   1.122   9.966 -2.3249  2.1174 -0.1166
24034SOL    HW278961   3.702   1.103   9.816  3.1812 -0.7982 -0.3933
24035SOL     OW78962   6.382   9.871   5.109 -0.0844 -0.0459  0.1892
24035SOL    HW178963   6.413   9.830   5.189  0.3219 -2.4252 -1.0907
24035SOL    HW278964   6.458   9.873   5.051 -1.1944 -2.0556 -1.4872
24036SOL     OW78965   0.452   2.663  11.305 -0.5090  0.6140  0.1788
24036SOL    HW178966   0.463   2.743  11.253 -1.2146  0.7590  0.2415
24036SOL    HW278967   0.459   2.592  11.241 -0.0971  0.7294  0.0900
24037SOL     OW78968   8.169   8.056   7.306 -0.2151 -0.1437  0.4546
24037SOL    HW178969   8.262   8.078   7.307 -0.4909  1.0579  0.6194
24037SOL    HW278970   8.164   7.972   7.351  0.4743  1.0616  2.9185
24038SOL     OW78971   6.399   9.995   9.743  0.2138  0.4717  0.3266
24038SOL    HW178972   6.427   9.942   9.817  0.7785 -1.1590 -0.9804
24038SOL    HW278973   6.412  10.086   9.771  1.4536 -0.1270  1.8075
24039SOL     OW78974   0.257   3.207  11.115  0.0770 -0.0606  0.0860
24039SOL    HW178975   0.235   3.249  11.032 -0.5456 -0.7604 -0.1170
24039SOL    HW278976   0.319   3.267  11.157  1.1197 -0.1383 -1.2843
24040SOL     OW78977  10.511  10.389   4.630  0.5873  0.7817  0.6765
24040SOL    HW178978  10.538  10.299   4.615  0.8299  1.0608 -0.7466
24040SOL    HW278979  10.576  10.442   4.584 -0.6282  1.5850 -0.1877
24041SOL     OW78980   7.126   0.754   7.166 -0.4675  0.0040  0.3695
24041SOL    HW178981   7.123   0.849   7.159  0.6405  0.2059  2.0605
24041SOL    HW278982   7.211   0.736   7.207 -0.1557 -1.7941 -0.9713
24042SOL     OW78983  10.911  10.118   6.221 -0.1170  0.4859  0.3074
24042SOL    HW178984  10.826  10.079   6.199  0.3888  0.6651 -2.3506
24042SOL    HW278985  10.888  10.195   6.274 -1.4706 -0.3677  1.0257
24043SOL     OW78986   2.913  12.576   1.253 -0.4994  0.0187  0.0596
24043SOL    HW178987   2.962  12.557   1.333 -1.4172 -0.6832  0.4785
24043SOL    HW278988   2.917  12.495   1.202  1.6550  1.0323 -1.5007
24044SOL     OW78989  11.753   7.213   2.015  0.6260 -0.6870  0.0488
24044SOL    HW178990  11.846   7.195   1.999  0.7902  0.7229 -0.7173
24044SOL    HW278991  11.721   7.250   1.933 -0.5812 -0.9647  0.3719
24045SOL     OW78992   1.737   6.650  12.039  0.5500 -0.0448 -0.2415
24045SOL    HW178993   1.792   6.602  11.978 -0.5703 -2.7132  0.7037
24045SOL    HW278994   1.659   6.673  11.989  1.0391  0.7185 -0.6663
24046SOL     OW78995   0.845   3.404  12.454 -0.0855 -0.1528  0.3202
24046SOL    HW178996   0.783   3.440  12.517 -0.3239  0.8492 -0.4660
24046SOL    HW278997   0.800   3.327  12.417 -0.5099  0.0645  0.3756
24047SOL     OW78998   8.513   6.147  12.558 -0.3934 -0.5242  0.7510
24047SOL    HW178999   8.448   6.130  12.490  0.1803 -0.5058  0.1900
24047SOL    HW279000   8.472   6.115  12.639 -0.3677 -2.2206  0.1351
24048SOL     OW79001   6.754   8.086   1.417 -0.0929  0.0997  0.1519
24048SOL    HW179002   6.786   8.031   1.489 -2.3871 -2.2195 -0.4439
24048SOL    HW279003   6.762   8.030   1.339 -2.6493  0.4829 -0.4710
24049SOL     OW79004   3.301   4.244   9.645  0.4252 -0.1303 -0.1400
24049SOL    HW179005   3.266   4.266   9.558 -1.4774  0.2827  0.6836
24049SOL    HW279006   3.373   4.307   9.658 -0.0912  0.6406 -0.8922
24050SOL     OW79007   2.556   9.828  10.452 -0.6844 -0.0863 -0.1860
24050SOL    HW179008   2.574   9.785  10.368  1.1995  0.1797  0.0247
24050SOL    HW279009   2.530   9.757  10.510 -2.0383 -0.2720 -0.9917
24051SOL     OW79010   6.543   8.204   3.574  0.0326 -0.3780  0.2923
24051SOL    HW179011   6.623   8.257   3.569 -0.5898  0.7201  1.3810
24051SOL    HW279012   6.566   8.131   3.632  0.2884 -0.1339  0.5013
24052SOL     OW79013  11.380  11.809   2.705  0.0477 -0.4524  0.1578
24052SOL    HW179014  11.427  11.735   2.667  1.6621  0.9691 -0.7474
24052SOL    HW279015  11.406  11.810   2.797  1.2732 -0.1144 -0.1709
24053SOL     OW79016  10.416  12.236   2.463  0.4587 -0.3701 -0.1561
24053SOL    HW179017  10.493  12.209   2.513  1.0135  0.0316 -0.7730
24053SOL    HW279018  10.402  12.327   2.489 -0.6570 -0.8417  0.9890
24054SOL     OW79019   2.777   7.437   9.712 -0.1185 -0.1136  0.1480
24054SOL    HW179020   2.779   7.342   9.697 -0.1674 -0.2431  0.9381
24054SOL    HW279021   2.689   7.454   9.744 -0.1974  0.2474 -0.2534
24055SOL     OW79022   7.796   3.150  10.159  0.0155  0.0655 -0.3336
24055SOL    HW179023   7.883   3.122  10.128 -0.1374 -0.2730 -0.4659
24055SOL    HW279024   7.749   3.175  10.079  0.2299  0.9434 -0.1937
24056SOL     OW79025   1.886   2.912  11.297  0.2602  0.5535 -0.1201
24056SOL    HW179026   1.911   2.865  11.218 -1.2193  1.3398 -1.1066
24056SOL    HW279027   1.880   2.845  11.364  1.5201 -0.1315 -0.6728
24057SOL     OW79028   5.920   2.785   3.098 -0.1025 -0.4945  0.0608
24057SOL    HW179029   5.914   2.857   3.161  0.7745  1.0853 -1.5608
24057SOL    HW279030   5.927   2.706   3.152 -0.4022  0.6839  1.9127
24058SOL     OW79031   6.964   1.795   3.289  0.0993  0.5219 -0.1913
24058SOL    HW179032   6.976   1.890   3.298  0.5686  0.5764 -1.2459
24058SOL    HW279033   6.904   1.786   3.215 -2.0649  0.0539  1.5071
24059SOL     OW79034   2.298  10.376   3.669 -0.5149 -0.1696  0.2570
24059SOL    HW179035   2.224  10.403   3.724  0.8663  0.3964  1.9654
24059SOL    HW279036   2.349  10.318   3.725  1.9828  1.9473  0.3628
24060SOL     OW79037   5.857   6.468   7.246 -0.1977 -0.2530 -0.6252
24060SOL    HW179038   5.857   6.524   7.323  3.1414  0.2253 -0.7973
24060SOL    HW279039   5.911   6.393   7.271  0.2881 -0.4741 -2.2134
24061SOL     OW79040   0.450   0.791  12.375 -0.4319  0.2108  0.0886
24061SOL    HW179041   0.431   0.775  12.467 -0.5553 -0.3960 -0.0381
24061SOL    HW279042   0.389   0.734  12.328  0.4813 -0.4211 -0.3520
24062SOL     OW79043   2.075   5.550  10.932 -0.3378  0.2103  0.1121
24062SOL    HW179044   2.070   5.593  11.018  0.8392  0.7340 -0.0634
24062SOL    HW279045   1.999   5.583  10.884  0.0798  1.4719  0.2753
24063SOL     OW79046   4.605   0.779  11.283 -0.7680 -0.2756 -0.3798
24063SOL    HW179047   4.671   0.713  11.265 -1.1132 -0.1004 -2.5452
24063SOL    HW279048   4.525   0.730  11.300 -0.7975 -0.4456 -0.9929
24064SOL     OW79049   9.294   8.070   6.592 -0.5616 -0.1273  0.0909
24064SOL    HW179050   9.270   8.117   6.672  1.4055  0.8044  0.2003
24064SOL    HW279051   9.389   8.073   6.590 -0.4645 -2.1118 -1.1540
24065SOL     OW79052  12.057   1.608   1.774  0.0447 -0.1076 -0.4093
24065SOL    HW179053  12.106   1.525   1.781  0.0343 -0.2198 -1.4772
24065SOL    HW279054  12.118   1.667   1.729 -0.8823 -0.3472 -2.0607
24066SOL     OW79055   0.203   3.828  11.220 -0.8229 -0.0217 -0.1557
24066SOL    HW179056   0.234   3.806  11.132  3.0031  1.3750  0.6724
24066SOL    HW279057   0.218   3.748  11.270 -0.3552  0.0383 -0.1930
24067SOL     OW79058   3.686   7.128   2.128  0.1787 -0.3053 -0.5551
24067SOL    HW179059   3.636   7.189   2.073  0.2075 -1.5104 -1.9670
24067SOL    HW279060   3.626   7.106   2.199  0.1656  1.3349 -0.0175
24068SOL     OW79061  10.415   9.910  12.081  0.4694 -0.0778 -0.0957
24068SOL    HW179062  10.352   9.843  12.103  1.5164 -0.3473  2.3621
24068SOL    HW279063  10.371   9.993  12.100  0.4282 -0.2251  0.4694
24069SOL     OW79064   1.949   8.597   6.510 -0.2183 -0.1561  0.2253
24069SOL    HW179065   2.041   8.622   6.509  0.1833 -1.4790 -1.5508
24069SOL    HW279066   1.947   8.516   6.562 -0.2890 -0.3855 -0.1299
24070SOL     OW79067   5.945   8.600   2.535  0.8461  0.2462 -0.5521
24070SOL    HW179068   5.933   8.507   2.517  0.7584  0.4308 -1.5062
24070SOL    HW279069   5.872   8.643   2.490  0.4043  0.7193  0.5736
24071SOL     OW79070   7.320   2.928  10.375 -0.4124  0.1442  0.8759
24071SOL    HW179071   7.256   2.973  10.320 -1.2525 -1.6279  0.3173
24071SOL    HW279072   7.387   2.994  10.394 -1.6645  1.6392  0.2678
24072SOL     OW79073   9.359  12.444   3.100  0.0831 -0.2880 -0.5146
24072SOL    HW179074   9.356  12.365   3.046  0.2890 -0.9838  0.4613
24072SOL    HW279075   9.272  12.482   3.091  0.1872 -0.2604 -1.5174
24073SOL     OW79076   1.273   1.367   2.502  0.0777 -0.3624 -0.1220
24073SOL    HW179077   1.180   1.386   2.508 -0.1306 -1.6497  3.6877
24073SOL    HW279078   1.278   1.281   2.461 -0.4612 -0.5735  0.2548
24074SOL     OW79079   1.445   7.990   3.267  0.8201  0.1419  0.0472
24074SOL    HW179080   1.469   8.053   3.336  0.7981 -0.4440  0.5929
24074SOL    HW279081   1.498   8.017   3.192  1.6954  0.0948  0.6301
24075SOL     OW79082  11.701   7.990  11.459  0.1636  0.8056 -0.1362
24075SOL    HW179083  11.675   8.054  11.525  0.7359  1.3547 -0.4360
24075SOL    HW279084  11.638   7.918  11.469  0.4991  0.6876  1.2794
24076SOL     OW79085   7.603   8.233   1.928  0.3534 -0.1176 -0.2246
24076SOL    HW179086   7.587   8.227   2.023 -0.1042 -1.3137 -0.3674
24076SOL    HW279087   7.631   8.324   1.915 -2.2220  0.8980  0.6802
24077SOL     OW79088   8.661   6.979   8.011 -0.3376 -0.4119 -0.3732
24077SOL    HW179089   8.669   7.043   7.941  0.9518  0.3540  0.4445
24077SOL    HW279090   8.666   6.894   7.966 -0.7820  0.0529 -1.3288
24078SOL     OW79091   7.703   3.705   9.511  0.4754 -0.1071 -0.1788
24078SOL    HW179092   7.733   3.658   9.589 -2.4740 -0.5899  0.8002
24078SOL    HW279093   7.640   3.645   9.470  1.2566  0.5226 -2.4636
24079SOL     OW79094   1.163   2.572  12.553 -0.4319 -0.1346  0.1014
24079SOL    HW179095   1.230   2.621  12.506  1.1421 -1.6356  0.6807
24079SOL    HW279096   1.193   2.570  12.644 -1.5416 -0.3953  0.4860
24080SOL     OW79097   8.444   0.374   3.647 -0.2807 -0.0529  0.1033
24080SOL    HW179098   8.417   0.466   3.642 -0.4838 -0.1647 -1.5461
24080SOL    HW279099   8.538   0.377   3.628 -0.6100 -0.2952 -1.8173
24081SOL     OW79100   0.591   7.646  11.208  0.4702 -0.4377 -0.1347
24081SOL    HW179101   0.534   7.618  11.280  0.6592  0.6378  0.4449
24081SOL    HW279102   0.608   7.565  11.160 -2.4035 -0.6727 -0.9889
24082SOL     OW79103  11.561   9.270   2.869  0.6793 -0.9805 -0.1398
24082SOL    HW179104  11.523   9.203   2.812  1.8992 -0.5458 -1.5276
24082SOL    HW279105  11.651   9.279   2.838  0.7892  0.6926  0.5745
24083SOL     OW79106  10.906   8.635  11.105 -0.2991  0.6612  0.0099
24083SOL    HW179107  10.843   8.685  11.157 -2.3418 -0.0927 -1.5960
24083SOL    HW279108  10.888   8.661  11.015 -1.0716 -2.4797 -0.8525
24084SOL     OW79109   8.294   0.840  11.254  0.4869 -0.1408 -0.4353
24084SOL    HW179110   8.242   0.914  11.285 -0.2455 -0.4738 -0.8444
24084SOL    HW279111   8.272   0.768  11.313  2.1823  0.2702  0.7845
24085SOL     OW79112  12.309   4.119   1.167 -0.1057 -0.0098  0.9718
24085SOL    HW179113  12.216   4.120   1.189 -0.7657  1.7461 -1.5039
24085SOL    HW279114  12.315   4.060   1.092  0.7624  0.0904  0.9510
24086SOL     OW79115   5.073   8.283   8.887 -0.1570 -0.0155  0.7811
24086SOL    HW179116   5.150   8.280   8.832  0.4992  1.3317  1.5640
24086SOL    HW279117   5.004   8.318   8.831  0.4932  1.3037  0.7567
24087SOL     OW79118   8.923   7.451   8.695 -0.2629 -0.0474  0.4874
24087SOL    HW179119   8.873   7.371   8.713  1.6897 -1.4706 -0.0183
24087SOL    HW279120   8.966   7.471   8.778  3.2129 -2.5746 -0.4320
24088SOL     OW79121   1.659   4.742   7.981  0.8723  0.1399 -0.1867
24088SOL    HW179122   1.568   4.745   7.951  0.1691  2.4570  1.8661
24088SOL    HW279123   1.707   4.795   7.916  0.9300 -1.4920 -1.5497
24089SOL     OW79124   7.423   5.342  12.526 -0.0553  0.3645  0.4281
24089SOL    HW179125   7.383   5.306  12.447  0.3734  0.6461  0.0725
24089SOL    HW279126   7.431   5.267  12.586  0.9390 -0.1802 -0.3454
24090SOL     OW79127  10.639   6.684   3.713 -0.1812  0.4467 -0.0378
24090SOL    HW179128  10.634   6.624   3.787  0.0243  0.4157 -0.0484
24090SOL    HW279129  10.695   6.755   3.743  1.2916 -0.3666 -0.7063
24091SOL     OW79130   2.668  10.809   5.794  0.5745  0.3473  0.5958
24091SOL    HW179131   2.618  10.887   5.818  0.8668  1.3802 -1.7783
24091SOL    HW279132   2.614  10.766   5.727  1.2011 -0.5534  0.6561
24092SOL     OW79133   0.951   9.784   7.965  0.6705  0.1261  0.7003
24092SOL    HW179134   0.985   9.869   7.992  0.1355  0.5462  0.0831
24092SOL    HW279135   0.878   9.767   8.024 -0.3995  0.9693 -0.3455
24093SOL     OW79136   2.676   1.004   5.917  0.0537  0.2508  0.0832
24093SOL    HW179137   2.691   1.063   5.843 -0.6349  0.5895  0.2047
24093SOL    HW279138   2.582   1.008   5.932 -0.0515 -1.1529 -0.1199
24094SOL     OW79139   1.719   4.323  11.918  0.0252 -0.4946 -0.5316
24094SOL    HW179140   1.800   4.303  11.872 -0.2818 -2.5716 -0.2851
24094SOL    HW279141   1.656   4.341  11.849  0.9127  2.4004 -0.7025
24095SOL     OW79142   9.510   9.418   5.397  0.4841  0.3777  0.6868
24095SOL    HW179143   9.460   9.346   5.359 -1.0081  2.3365 -1.2697
24095SOL    HW279144   9.457   9.449   5.470 -0.0692  0.9885  0.0382
24096SOL     OW79145  11.363   4.043   6.132 -0.9474 -0.0680 -0.2048
24096SOL    HW179146  11.453   4.011   6.146  0.3093  2.3409 -1.9615
24096SOL    HW279147  11.309   3.965   6.140  1.3936 -1.7869  0.0921
24097SOL     OW79148   6.017   2.285   8.817 -0.2217 -0.1913 -0.2652
24097SOL    HW179149   6.103   2.245   8.830  0.1844 -0.6475 -3.4321
24097SOL    HW279150   6.030   2.344   8.742 -1.9904  2.1573  1.1555
24098SOL     OW79151   2.681   1.780   2.436 -0.0713 -0.4368 -0.5067
24098SOL    HW179152   2.742   1.707   2.430  0.2760 -0.1053 -1.1015
24098SOL    HW279153   2.597   1.739   2.459  0.3898 -0.8755  0.4780
24099SOL     OW79154   8.558  10.434   4.771  0.3038  0.0106  1.0065
24099SOL    HW179155   8.590  10.374   4.702  0.3278  0.6478  0.4500
24099SOL    HW279156   8.471  10.460   4.741  0.9799  1.6163  0.3275
24100SOL     OW79157   1.064   7.243  12.521 -0.7247 -0.8661 -0.0903
24100SOL    HW179158   0.978   7.235  12.480  0.1121 -1.2599 -1.8665
24100SOL    HW279159   1.123   7.262  12.448  0.4328  1.4344  1.3181
24101SOL     OW79160   5.345   5.349   6.982 -0.1552 -0.0221 -0.2668
24101SOL    HW179161   5.256   5.360   7.015  0.1921  3.1571 -0.0576
24101SOL    HW279162   5.377   5.270   7.024 -2.6220 -0.8877  0.1654
24102SOL     OW79163   0.009  11.067   2.943  0.1295  0.2107 -0.7241
24102SOL    HW179164  -0.002  11.141   2.883 -0.8463 -0.3835 -1.2915
24102SOL    HW279165  -0.077  11.026   2.947  0.7683 -1.1952 -0.8048
24103SOL     OW79166  11.404   5.336   4.782  0.1789  0.2950  0.9480
24103SOL    HW179167  11.497   5.359   4.776  0.2387 -0.1300  0.1058
24103SOL    HW279168  11.370   5.348   4.693 -0.2760 -0.7700  0.9605
24104SOL     OW79169   5.999   8.517   7.784 -0.2667  0.4048  0.1716
24104SOL    HW179170   6.088   8.489   7.761 -0.5806 -0.4789 -0.0062
24104SOL    HW279171   5.947   8.436   7.782 -0.8829  0.7554  1.2136
24105SOL     OW79172   9.834   1.638   0.299 -0.0526  0.1773  0.1971
24105SOL    HW179173   9.907   1.699   0.286 -0.6363  0.7911 -0.2462
24105SOL    HW279174   9.759   1.694   0.320 -0.6206 -0.3758 -0.2991
24106SOL     OW79175   2.799   0.510   5.603  0.2723 -0.4577  0.2614
24106SOL    HW179176   2.788   0.576   5.671  1.6950  1.5222 -1.3007
24106SOL    HW279177   2.865   0.450   5.637  0.6719  0.2772  0.8053
24107SOL     OW79178  10.146   4.581   3.442  0.4648  0.3146 -0.0699
24107SOL    HW179179  10.134   4.486   3.440  1.5563  0.1576  0.2489
24107SOL    HW279180  10.211   4.595   3.511  0.1647  1.3092  0.0131
24108SOL     OW79181   3.254   8.181   4.869 -0.4461  0.2240  0.4256
24108SOL    HW179182   3.284   8.120   4.802  0.3518 -1.9772  2.6593
24108SOL    HW279183   3.322   8.178   4.936 -1.1814  2.4060  1.3528
24109SOL     OW79184   4.293  11.284   8.056 -0.1443  0.1049  0.1584
24109SOL    HW179185   4.321  11.192   8.055 -1.2859 -0.2576 -0.6684
24109SOL    HW279186   4.309  11.315   7.967  0.2836  0.7293  0.4485
24110SOL     OW79187   9.497   4.654   8.556  0.3014  0.0159 -0.6564
24110SOL    HW179188   9.503   4.746   8.579  1.7875 -0.5656  1.7158
24110SOL    HW279189   9.547   4.645   8.475  0.3337  1.2404 -0.7805
24111SOL     OW79190   8.893   0.553  11.433 -0.1624 -0.3372 -0.5060
24111SOL    HW179191   8.984   0.529  11.449 -0.1244 -0.9179 -1.5018
24111SOL    HW279192   8.847   0.529  11.514  0.5500 -0.0854 -0.0169
24112SOL     OW79193   3.898   3.107   6.461 -0.2652 -0.3685 -0.4168
24112SOL    HW179194   3.824   3.108   6.402 -0.3691 -2.5058 -0.4075
24112SOL    HW279195   3.876   3.170   6.529 -1.6594 -0.3200 -0.8961
24113SOL     OW79196   6.079   9.867   8.240 -0.3119  0.1848 -0.6335
24113SOL    HW179197   6.131   9.863   8.160  1.8688 -2.4388  0.7557
24113SOL    HW279198   6.039   9.780   8.247 -0.6269  0.4287  1.0055
24114SOL     OW79199   7.258   6.963   4.046  0.0116 -0.3984 -0.4077
24114SOL    HW179200   7.336   6.942   4.096 -0.0462  2.1551  0.9163
24114SOL    HW279201   7.190   6.976   4.112 -1.1693 -1.0376 -1.4511
24115SOL     OW79202   4.714   8.861  11.630 -0.5740 -0.4829 -0.4674
24115SOL    HW179203   4.709   8.778  11.677 -1.8012 -0.1282  0.0684
24115SOL    HW279204   4.697   8.837  11.538 -2.6323 -0.6451 -0.0864
24116SOL     OW79205   5.764   7.463   3.401  0.3946  0.1304 -0.2442
24116SOL    HW179206   5.851   7.494   3.426  0.9893 -0.6341 -1.2984
24116SOL    HW279207   5.777   7.371   3.378 -0.8022 -0.1469  0.1032
24117SOL     OW79208   7.816   6.088   5.277 -0.6928 -0.6677 -0.3537
24117SOL    HW179209   7.857   6.108   5.361 -1.0799 -1.8156  0.1275
24117SOL    HW279210   7.768   6.167   5.254  1.7647  0.7546 -0.9676
24118SOL     OW79211   4.322   0.238   2.169 -0.3685  0.0476  0.4275
24118SOL    HW179212   4.385   0.173   2.137 -1.5374 -1.0737  0.3465
24118SOL    HW279213   4.239   0.212   2.131 -0.7753  2.0050 -0.1683
24119SOL     OW79214   4.121  10.479   3.652 -0.3564 -0.1349 -0.6144
24119SOL    HW179215   4.123  10.574   3.642 -1.3374  0.2647  2.1880
24119SOL    HW279216   4.209  10.450   3.625  0.1366  1.6071 -0.9721
24120SOL     OW79217   5.833   0.228   8.167 -0.2062  0.3899 -0.6318
24120SOL    HW179218   5.775   0.238   8.091  1.5371  0.9077 -1.9443
24120SOL    HW279219   5.911   0.186   8.133  1.2612  2.0345  0.5378
24121SOL     OW79220   1.018   5.159   5.601 -0.2282 -0.0446 -0.1744
24121SOL    HW179221   0.931   5.198   5.601 -0.9327 -1.4754  1.2066
24121SOL    HW279222   1.065   5.203   5.530 -0.6382  3.8665  1.7357
24122SOL     OW79223  11.956   9.505   0.718 -0.0245  0.4795  0.0182
24122SOL    HW179224  11.996   9.419   0.732  0.2592  0.5990 -0.0547
24122SOL    HW279225  12.030   9.565   0.708 -0.2230  0.6389 -0.5319
24123SOL     OW79226   8.374   9.318   1.246 -0.0928 -0.1844 -0.4201
24123SOL    HW179227   8.356   9.300   1.339 -0.1838  2.8542  0.2473
24123SOL    HW279228   8.433   9.248   1.220  1.2864 -0.2611  2.4423
24124SOL     OW79229   6.847   8.149   9.224 -0.3806 -0.0595  0.2479
24124SOL    HW179230   6.798   8.227   9.198 -1.0971 -0.4509  0.4032
24124SOL    HW279231   6.874   8.167   9.314 -0.6548 -0.0398  0.3283
24125SOL     OW79232   7.185   8.201   2.737 -0.2659  0.0040  0.7133
24125SOL    HW179233   7.257   8.207   2.673 -0.0659 -0.1603  0.9245
24125SOL    HW279234   7.111   8.243   2.692 -0.3179 -0.7199  0.1068
24126SOL     OW79235  11.482   9.014   3.780 -0.6587  0.2226  0.2622
24126SOL    HW179236  11.510   8.947   3.843 -0.3211 -1.6624 -1.7692
24126SOL    HW279237  11.521   9.095   3.813 -1.3332 -0.4552  2.9847
24127SOL     OW79238   4.754  11.244   0.751  0.4596  0.5841  0.1877
24127SOL    HW179239   4.811  11.233   0.827 -1.8191 -1.0242  1.8395
24127SOL    HW279240   4.720  11.156   0.734 -1.3242  1.4017 -0.8068
24128SOL     OW79241   2.730   0.345   4.725  0.0257  0.0060  0.2601
24128SOL    HW179242   2.745   0.368   4.817 -0.4384 -0.0738  0.3563
24128SOL    HW279243   2.816   0.355   4.684  0.6322 -1.6593  1.0587
24129SOL     OW79244   5.897   5.261   4.051  0.4277  0.2696  0.3300
24129SOL    HW179245   5.955   5.231   3.981  0.8701  1.0128  0.3749
24129SOL    HW279246   5.952   5.313   4.109  0.2366 -0.9486  1.6670
24130SOL     OW79247   6.813   4.953  11.790 -0.2530  0.1146 -0.2294
24130SOL    HW179248   6.786   4.865  11.817 -2.1514  0.5532 -0.5742
24130SOL    HW279249   6.889   4.938  11.733 -0.2218 -1.2524  0.1212
24131SOL     OW79250   1.920   9.301   9.891 -0.5826  0.7380  0.6503
24131SOL    HW179251   1.837   9.314   9.938 -0.6005 -0.0154  0.8472
24131SOL    HW279252   1.912   9.213   9.853  0.0740  0.7173  0.5534
24132SOL     OW79253   6.530   8.740   1.228  0.9569 -0.7196 -0.0574
24132SOL    HW179254   6.609   8.758   1.279  0.7076  0.3012 -0.0201
24132SOL    HW279255   6.561   8.726   1.139  1.1510 -0.0241 -0.1006
24133SOL     OW79256   4.685   1.471  11.710  0.2422 -0.1247  0.1037
24133SOL    HW179257   4.708   1.536  11.777 -2.0515  0.7123  0.1697
24133SOL    HW279258   4.619   1.416  11.752  1.8607 -2.3570 -0.0821
24134SOL     OW79259   8.563   7.085  11.448  0.0585  0.0367 -0.2237
24134SOL    HW179260   8.543   7.178  11.439  0.4889  0.1049 -0.4821
24134SOL    HW279261   8.651   7.082  11.486  0.4979 -0.2641 -1.2318
24135SOL     OW79262  10.254  12.123   4.693  0.2267 -0.2361 -0.4728
24135SOL    HW179263  10.324  12.157   4.748 -0.0816  0.6374 -0.6016
24135SOL    HW279264  10.290  12.126   4.604  0.7870 -1.8082 -0.3183
24136SOL     OW79265   1.808   9.335  10.650 -0.3056 -0.3210 -0.0814
24136SOL    HW179266   1.888   9.359  10.603 -0.3454  0.7758  0.3847
24136SOL    HW279267   1.820   9.242  10.670  1.4272  0.0923  1.0545
24137SOL     OW79268   9.235   1.000   4.655 -0.1267  0.0659 -0.2941
24137SOL    HW179269   9.221   0.912   4.620 -1.8015 -0.4332  1.4354
24137SOL    HW279270   9.312   0.991   4.712 -0.0080 -0.1516 -0.4877
24138SOL     OW79271  10.469   1.720   1.491 -0.2896 -0.2072 -0.3491
24138SOL    HW179272  10.564   1.710   1.486 -0.4560 -1.8404 -0.8534
24138SOL    HW279273  10.440   1.723   1.400 -0.6881  0.7178 -0.1962
24139SOL     OW79274   6.596   5.630   1.514 -0.4151  0.4113  0.3380
24139SOL    HW179275   6.517   5.667   1.553 -0.1062  1.5796 -0.1074
24139SOL    HW279276   6.616   5.687   1.441 -0.5182 -1.2708 -1.0789
24140SOL     OW79277   6.732   0.252   6.895  0.3491 -0.1854 -0.2256
24140SOL    HW179278   6.677   0.197   6.839 -1.1236  0.5610  0.4351
24140SOL    HW279279   6.765   0.321   6.837 -1.5524  0.8627 -0.1425
24141SOL     OW79280  10.406   9.232   7.770 -0.2946  0.0487  0.0850
24141SOL    HW179281  10.445   9.147   7.750  0.9341  0.3275  1.1847
24141SOL    HW279282  10.311   9.217   7.767 -0.1210 -1.8049  2.0383
24142SOL     OW79283   7.717   8.289   3.677 -0.5155 -0.0126  0.1496
24142SOL    HW179284   7.813   8.296   3.678 -0.5354  0.2746  1.2878
24142SOL    HW279285   7.687   8.380   3.679 -0.8542  0.0340 -2.8504
24143SOL     OW79286   3.271  11.152   5.299 -0.5191 -0.1996  0.0511
24143SOL    HW179287   3.355  11.178   5.339 -1.7840  0.3614  2.5528
24143SOL    HW279288   3.253  11.222   5.236  0.1504  0.5106  0.6164
24144SOL     OW79289   9.940   9.497   1.865  0.0952 -0.3164 -0.0387
24144SOL    HW179290  10.030   9.526   1.854  0.1635 -0.8196 -0.8824
24144SOL    HW279291   9.887   9.576   1.851  0.2650 -0.6002 -2.5895
24145SOL     OW79292   0.760   1.958   2.722  0.2831 -0.6400 -0.5739
24145SOL    HW179293   0.722   2.045   2.734  2.0285 -0.0139  0.9282
24145SOL    HW279294   0.694   1.898   2.756 -0.7426  0.1291 -1.1648
24146SOL     OW79295  10.201   5.489   1.192 -0.1588 -0.2274  0.2480
24146SOL    HW179296  10.228   5.504   1.283  0.4288 -1.4056  0.2936
24146SOL    HW279297  10.119   5.536   1.183 -0.0019  0.2654  1.2665
24147SOL     OW79298   3.306  10.680   6.031  0.3327 -0.1571  0.5233
24147SOL    HW179299   3.359  10.751   5.996 -1.5674  0.3551 -1.5178
24147SOL    HW279300   3.370  10.614   6.060  2.1227  0.1302 -2.3787
24148SOL     OW79301  12.520   6.850   4.230 -0.1811  0.1717  0.3119
24148SOL    HW179302  12.518   6.894   4.315  0.9278  1.2342 -0.1800
24148SOL    HW279303  12.497   6.759   4.249  1.4130  0.0652  1.9827
24149SOL     OW79304   7.354   5.217  11.776  0.1889 -0.3430 -0.0952
24149SOL    HW179305   7.382   5.136  11.820 -0.6321 -0.4536  0.2470
24149SOL    HW279306   7.332   5.276  11.848  0.7942  0.1938 -0.3448
24150SOL     OW79307  11.059   3.827   0.486  0.0525 -0.1189 -1.4496
24150SOL    HW179308  11.027   3.744   0.450 -1.6643 -0.1086 -0.0686
24150SOL    HW279309  11.102   3.802   0.568 -0.9872  0.3836 -0.7333
24151SOL     OW79310  11.156   4.133   9.183  0.1499 -0.0232  0.1298
24151SOL    HW179311  11.201   4.190   9.120  1.0538 -0.6449  0.2046
24151SOL    HW279312  11.219   4.065   9.204 -0.4504 -0.3174  1.0577
24152SOL     OW79313   7.223  11.800   8.231  0.9203  0.0957  0.7078
24152SOL    HW179314   7.300  11.803   8.175 -0.1429  0.3297 -0.8143
24152SOL    HW279315   7.165  11.737   8.188  0.5004 -0.5643  2.1729
24153SOL     OW79316   2.505  10.543  10.922  0.1639  0.1136  0.8342
24153SOL    HW179317   2.431  10.488  10.897  0.4771  0.0494  0.0227
24153SOL    HW279318   2.515  10.529  11.016 -0.6830 -0.0843  0.8980
24154SOL     OW79319   6.405   3.757   8.582 -0.1641 -0.0477  0.0434
24154SOL    HW179320   6.343   3.830   8.581 -1.3224 -0.8114 -4.1658
24154SOL    HW279321   6.491   3.798   8.569 -0.4945  0.7245  0.2267
24155SOL     OW79322   0.351   4.861   8.576  0.5758  0.7480  0.3597
24155SOL    HW179323   0.412   4.922   8.535 -0.2750  0.0372 -2.1600
24155SOL    HW279324   0.375   4.862   8.669  2.0512  3.1480  0.0445
24156SOL     OW79325   1.479   6.905   0.796  0.2434 -0.4062  0.6650
24156SOL    HW179326   1.459   6.821   0.755 -1.0864  0.1853  0.0482
24156SOL    HW279327   1.399   6.929   0.842 -0.5873  2.0271 -1.8256
24157SOL     OW79328   3.472   8.821  10.747 -0.3795  0.6415 -0.2589
24157SOL    HW179329   3.524   8.773  10.812  1.0440 -0.3616 -2.0345
24157SOL    HW279330   3.463   8.909  10.783  1.3238  0.4290  0.7812
24158SOL     OW79331   1.991  12.043  12.179 -0.4994 -0.2027 -0.5678
24158SOL    HW179332   1.900  12.021  12.159 -0.2260 -1.1567 -0.8174
24158SOL    HW279333   2.021  12.094  12.104 -0.2381 -1.6029 -1.4319
24159SOL     OW79334   4.158   2.466   9.514 -0.2749 -0.1394  0.6422
24159SOL    HW179335   4.117   2.511   9.440 -1.1221 -0.6876  0.7644
24159SOL    HW279336   4.139   2.522   9.589  0.2489  0.2211  0.5065
24160SOL     OW79337   1.819   2.390   8.503  0.0101 -0.1690  0.7313
24160SOL    HW179338   1.822   2.409   8.596 -0.4037 -2.3589  1.2329
24160SOL    HW279339   1.911   2.382   8.476  0.1119 -0.4651  1.1659
24161SOL     OW79340   6.996   6.153   8.547 -0.3032 -0.0540  0.2941
24161SOL    HW179341   7.087   6.180   8.534  0.2062 -1.4330  0.8523
24161SOL    HW279342   6.979   6.089   8.477 -0.5751 -0.4315  0.7012
24162SOL     OW79343   2.499   6.857   7.624 -0.0588 -0.4502  1.0096
24162SOL    HW179344   2.490   6.843   7.718 -0.0763  1.0153  1.2534
24162SOL    HW279345   2.567   6.924   7.617  0.3696 -0.9776 -0.0609
24163SOL     OW79346   1.435   1.799   0.146  0.5575 -0.3660  0.2709
24163SOL    HW179347   1.374   1.797   0.219  1.6482  1.3436  1.3129
24163SOL    HW279348   1.491   1.722   0.158 -1.4578 -2.0989 -0.8504
24164SOL     OW79349  11.791   8.956   1.478 -0.4665 -0.2729  0.7344
24164SOL    HW179350  11.805   8.896   1.405  1.6172 -1.1957  1.8200
24164SOL    HW279351  11.815   9.042   1.443  0.8563 -0.7565  0.4067
24165SOL     OW79352   3.730   0.176  11.459  0.0905  0.7877  0.3765
24165SOL    HW179353   3.793   0.207  11.394 -1.8692  2.8057 -0.6932
24165SOL    HW279354   3.701   0.091  11.425 -0.0863  1.3043 -0.8360
24166SOL     OW79355  10.334   9.466   7.282  0.0620 -0.1284  0.0438
24166SOL    HW179356  10.322   9.375   7.256 -0.7241  0.1953 -0.7879
24166SOL    HW279357  10.259   9.483   7.341  0.6657 -0.2480  0.8669
24167SOL     OW79358   2.827   4.094   8.121  0.3414 -0.4942  0.1379
24167SOL    HW179359   2.765   4.163   8.093  2.5698  2.1321  1.2104
24167SOL    HW279360   2.879   4.076   8.042  1.2187  0.7975  0.3866
24168SOL     OW79361   2.678   8.165   7.706  0.1140 -0.1392 -0.1043
24168SOL    HW179362   2.646   8.085   7.748  0.5295 -0.7194 -0.8603
24168SOL    HW279363   2.617   8.179   7.633  0.1981  0.0805 -0.1334
24169SOL     OW79364   7.605  10.035  11.823  0.8473 -0.3026 -0.3299
24169SOL    HW179365   7.598   9.955  11.770 -2.5732 -0.1873 -0.2277
24169SOL    HW279366   7.560  10.102  11.772  0.7098  0.7345  1.1070
24170SOL     OW79367   5.168  11.056   1.477  0.3456  0.0330 -0.1781
24170SOL    HW179368   5.228  11.004   1.424  0.6842 -0.5856  0.7809
24170SOL    HW279369   5.091  10.999   1.489  0.6882 -0.2408  0.8147
24171SOL     OW79370   2.177   3.672   1.310 -0.1654  0.4424 -0.1709
24171SOL    HW179371   2.142   3.616   1.380 -0.0052  0.9081  0.2845
24171SOL    HW279372   2.152   3.761   1.336 -0.4487  0.5810 -0.9111
24172SOL     OW79373   0.344   4.468  12.262  0.3119 -0.5904 -0.1870
24172SOL    HW179374   0.310   4.467  12.172  1.0161  0.4845 -0.4844
24172SOL    HW279375   0.416   4.406  12.260  1.7403  1.0123 -0.9822
24173SOL     OW79376   1.356  10.662   9.295  0.3201  0.2630  0.8847
24173SOL    HW179377   1.351  10.744   9.247  0.8246 -0.8204 -1.1496
24173SOL    HW279378   1.440  10.624   9.270 -0.5532 -1.5658  0.5020
24174SOL     OW79379   3.333   5.265  12.198 -0.3917  0.5959  0.0659
24174SOL    HW179380   3.291   5.351  12.201 -2.1240 -0.1620 -0.8555
24174SOL    HW279381   3.293   5.216  12.270  0.0226  0.3301  0.1166
24175SOL     OW79382   8.900   4.126  11.660  0.2494 -0.0153 -0.5985
24175SOL    HW179383   8.869   4.168  11.740  0.9454  0.0650 -0.3619
24175SOL    HW279384   8.861   4.178  11.590  0.9361  0.9224 -0.3094
24176SOL     OW79385   7.405   6.002   1.450  0.1288  0.5446 -0.1699
24176SOL    HW179386   7.466   5.966   1.386  0.0227  0.5136 -0.2537
24176SOL    HW279387   7.386   5.929   1.510 -0.6085  0.2633 -0.7295
24177SOL     OW79388   2.461   5.079   4.989 -0.4193  0.1548 -0.4784
24177SOL    HW179389   2.490   5.048   4.903  0.0914 -0.6846 -0.0175
24177SOL    HW279390   2.440   4.999   5.037 -1.1881  0.6445  0.0108
24178SOL     OW79391   7.648   5.096   0.594  0.1407  0.0964 -0.2865
24178SOL    HW179392   7.664   5.094   0.688 -2.2337 -2.6276  0.2040
24178SOL    HW279393   7.735   5.103   0.554  1.2697  0.1739  2.0718
24179SOL     OW79394   8.338   5.385   3.965  0.5254 -0.0260  0.1869
24179SOL    HW179395   8.339   5.410   4.057 -0.7102 -2.3534  0.9242
24179SOL    HW279396   8.381   5.299   3.963 -0.4986 -0.5514 -1.1734
24180SOL     OW79397  11.029   6.798  10.516 -0.1506  0.2490 -0.2068
24180SOL    HW179398  11.070   6.774  10.433 -0.6521  2.3762 -1.1322
24180SOL    HW279399  10.945   6.751  10.516 -0.7595  1.2557 -1.5905
24181SOL     OW79400   9.205   1.891   0.919 -0.6735  0.6103  0.2711
24181SOL    HW179401   9.185   1.935   0.836 -0.3898  0.9835  0.3988
24181SOL    HW279402   9.267   1.822   0.895 -3.3445 -1.7530 -0.4344
24182SOL     OW79403   7.263   6.500   8.715  0.1904 -0.2087 -0.1242
24182SOL    HW179404   7.291   6.582   8.756  0.4602 -1.3161  2.0754
24182SOL    HW279405   7.343   6.464   8.676  0.2042  0.2445 -0.5217
24183SOL     OW79406   0.986   1.063   3.041  0.2206  0.4803 -0.2463
24183SOL    HW179407   0.927   1.007   3.091  0.5527  0.5922  0.2847
24183SOL    HW279408   1.021   1.006   2.973 -2.0272  0.9226 -1.8716
24184SOL     OW79409  10.718   5.293   2.725 -0.1502  0.9368  0.1055
24184SOL    HW179410  10.751   5.273   2.638  1.3860  0.3507  0.7908
24184SOL    HW279411  10.746   5.383   2.741 -0.1794  0.9445  0.1148
24185SOL     OW79412  10.735   9.691  11.637 -0.8976 -0.2723  0.0673
24185SOL    HW179413  10.727   9.778  11.675  0.1565 -1.0236  2.2186
24185SOL    HW279414  10.689   9.634  11.699  0.8468 -1.5695  0.2561
24186SOL     OW79415   4.685   1.967   6.162 -0.2704  0.3271  0.9792
24186SOL    HW179416   4.740   1.896   6.193 -0.0865  0.8550  1.9169
24186SOL    HW279417   4.662   1.943   6.073  2.1556  0.4774  0.2419
24187SOL     OW79418   0.291   7.393   5.847  0.2601 -0.2322  0.7117
24187SOL    HW179419   0.209   7.436   5.873  0.9745 -0.6742  4.1769
24187SOL    HW279420   0.265   7.328   5.782 -1.8019  1.0273  0.1931
24188SOL     OW79421   2.355   8.660   8.876 -0.1087  0.3634 -0.1817
24188SOL    HW179422   2.319   8.666   8.788 -1.8214  0.4335  0.4883
24188SOL    HW279423   2.432   8.604   8.867  0.6393  1.5931 -1.9590
24189SOL     OW79424   6.313   3.869   1.186  0.5231 -0.0413 -0.5066
24189SOL    HW179425   6.291   3.895   1.097  0.5634 -0.4331 -0.6343
24189SOL    HW279426   6.284   3.942   1.241 -4.1899 -1.7613 -0.2422
24190SOL     OW79427   6.153   3.596  12.356 -0.5486  0.0442 -0.3270
24190SOL    HW179428   6.182   3.523  12.410  1.2027  1.7279  1.1461
24190SOL    HW279429   6.089   3.642  12.409 -0.2088  0.6577 -0.4380
24191SOL     OW79430   0.852   1.362   9.656  0.3637 -0.5948  0.1784
24191SOL    HW179431   0.923   1.340   9.596 -0.2389 -2.1740  0.0059
24191SOL    HW279432   0.817   1.445   9.623  0.8114 -0.8302 -0.9264
24192SOL     OW79433   6.193   2.004   8.488  0.5392 -0.4388  0.7511
24192SOL    HW179434   6.209   1.990   8.394  1.0302  1.4173  0.5184
24192SOL    HW279435   6.100   2.024   8.493  0.5125 -0.5364  0.6582
24193SOL     OW79436   2.038   7.246   3.279 -0.0935  0.1756 -0.3103
24193SOL    HW179437   2.058   7.165   3.232  0.0868  0.5868 -0.9558
24193SOL    HW279438   1.978   7.293   3.222 -1.7922 -0.3638  0.9487
24194SOL     OW79439   0.218   5.424   4.413  0.5905 -0.3312  0.3891
24194SOL    HW179440   0.282   5.439   4.343  1.4126  2.6658  1.6102
24194SOL    HW279441   0.144   5.480   4.390 -0.1318 -1.0966  0.7828
24195SOL     OW79442   7.945   6.109   1.086  0.1675 -0.9220 -0.0694
24195SOL    HW179443   7.880   6.040   1.077 -0.0240 -0.6812 -0.5906
24195SOL    HW279444   7.956   6.143   0.998 -1.8735  1.6192  0.5122
24196SOL     OW79445   0.249  10.130   9.593  0.0701  0.5001 -0.1783
24196SOL    HW179446   0.270  10.080   9.513  0.8704  1.2174 -0.4287
24196SOL    HW279447   0.235  10.219   9.563 -2.1470  0.3371  0.1631
24197SOL     OW79448   3.237   0.255   9.566  0.3713 -0.2062  0.2779
24197SOL    HW179449   3.143   0.272   9.576  0.4200  0.3085 -0.0864
24197SOL    HW279450   3.277   0.300   9.640  0.6563  2.8938 -1.5927
24198SOL     OW79451  10.126   8.186   5.834  0.2747 -0.3826  0.0407
24198SOL    HW179452  10.195   8.252   5.842  0.6909 -0.8428  0.3327
24198SOL    HW279453  10.070   8.201   5.911 -1.5155  1.7116 -1.5302
24199SOL     OW79454   8.518   4.293  11.273 -0.1541  0.1192 -0.0843
24199SOL    HW179455   8.468   4.372  11.290 -0.4264  0.1043 -0.7813
24199SOL    HW279456   8.584   4.319  11.208 -2.0285 -0.8175 -2.5491
24200SOL     OW79457   7.375   5.792  12.564  0.1120 -0.3114 -0.2901
24200SOL    HW179458   7.308   5.727  12.584 -0.9655  0.7874 -0.2343
24200SOL    HW279459   7.373   5.801  12.469 -1.0230  0.9281 -0.1772
24201SOL     OW79460   2.595   5.455   7.420  0.4149 -0.3542 -0.1083
24201SOL    HW179461   2.625   5.377   7.467 -0.3942 -1.1060 -0.7909
24201SOL    HW279462   2.508   5.473   7.455 -0.9552 -1.9444 -2.3564
24202SOL     OW79463   8.438   9.364   1.807  0.1135 -0.5699 -0.3570
24202SOL    HW179464   8.526   9.372   1.769  0.6558  1.0459  1.1492
24202SOL    HW279465   8.385   9.425   1.755 -0.1448 -1.5096 -1.2350
24203SOL     OW79466   8.679   5.989   7.828 -0.2244  0.3207  0.3666
24203SOL    HW179467   8.692   6.005   7.922  0.7787  0.9095  0.1397
24203SOL    HW279468   8.710   6.069   7.786 -0.2456 -0.1198 -0.5002
24204SOL     OW79469  11.188   4.151   8.758 -0.1386 -0.1585 -0.7595
24204SOL    HW179470  11.219   4.088   8.822  0.7475  1.1212  0.1045
24204SOL    HW279471  11.167   4.098   8.681 -0.8157 -1.6653  0.4167
24205SOL     OW79472   5.554   6.565   4.068  0.2763  0.2390  0.3829
24205SOL    HW179473   5.562   6.608   4.153  0.7972 -0.8184  0.8966
24205SOL    HW279474   5.639   6.577   4.027  0.8030 -1.1697  0.9865
24206SOL     OW79475   4.822   0.758   3.524 -0.1695 -0.3129 -0.3789
24206SOL    HW179476   4.857   0.711   3.449  0.1585  0.6406 -0.8492
24206SOL    HW279477   4.779   0.835   3.485 -2.0274 -0.9988  0.2429
24207SOL     OW79478   9.996  10.162  12.040 -0.0376  0.1079  0.1115
24207SOL    HW179479  10.038  10.243  12.069  0.1851 -0.2261  0.7245
24207SOL    HW279480   9.951  10.128  12.117 -2.3391  0.9818 -0.7577
24208SOL     OW79481   9.215   5.425   8.009 -0.2494 -0.4627  0.3050
24208SOL    HW179482   9.121   5.434   7.990 -0.0588  0.9360 -0.0894
24208SOL    HW279483   9.230   5.330   8.010 -1.2042 -0.7186 -2.0897
24209SOL     OW79484  11.336   3.840  11.925 -0.1575  0.1027  0.1385
24209SOL    HW179485  11.376   3.878  11.847 -1.6528 -1.7462 -1.6395
24209SOL    HW279486  11.410   3.814  11.980  0.9590  0.5028 -1.1240
24210SOL     OW79487   6.204   2.323   6.753 -0.4198 -0.1929  0.0321
24210SOL    HW179488   6.114   2.324   6.720 -0.8236  1.1938  1.0831
24210SOL    HW279489   6.205   2.251   6.816 -1.8236  1.8196  2.5361
24211SOL     OW79490   8.240   3.796   4.571 -0.4682 -0.1370 -0.0808
24211SOL    HW179491   8.202   3.862   4.629 -0.0948  0.5950 -0.6617
24211SOL    HW279492   8.321   3.769   4.615 -0.6536 -0.2624  0.1891
24212SOL     OW79493   1.640   0.123   2.256 -0.1258  0.3098  0.3305
24212SOL    HW179494   1.565   0.082   2.215  0.0653  0.4663 -0.1904
24212SOL    HW279495   1.623   0.217   2.250  0.9174  0.4295 -1.4217
24213SOL     OW79496   0.906  11.358   4.477 -0.1774 -0.1174 -0.3322
24213SOL    HW179497   0.961  11.372   4.554  0.6810 -1.8451 -0.5874
24213SOL    HW279498   0.930  11.428   4.417  1.5413 -0.6417 -0.2996
24214SOL     OW79499   7.375  10.297   4.888 -0.2027 -0.1991  0.1563
24214SOL    HW179500   7.470  10.298   4.876 -0.0982 -0.3717  0.9429
24214SOL    HW279501   7.340  10.270   4.802  0.3090  2.2656 -0.9305
24215SOL     OW79502  10.389   4.759   9.613 -0.1020 -0.2847 -0.1223
24215SOL    HW179503  10.475   4.799   9.607  0.1791 -0.6491  1.2359
24215SOL    HW279504  10.397   4.676   9.565  0.2007 -0.1702 -0.2706
24216SOL     OW79505  10.762   7.926  10.727  0.1659 -0.5167  0.5631
24216SOL    HW179506  10.713   7.912  10.646  0.4734  1.6206 -0.0563
24216SOL    HW279507  10.699   7.965  10.787  0.4466 -0.1663  0.6353
24217SOL     OW79508   1.745   0.348  11.331 -0.1613 -0.4236  0.1978
24217SOL    HW179509   1.735   0.387  11.418  1.0292 -0.2009  0.2511
24217SOL    HW279510   1.680   0.277  11.329 -0.0917 -0.5436  1.3334
24218SOL     OW79511   7.497   1.987   5.593  0.2999  0.5373  0.2524
24218SOL    HW179512   7.589   1.984   5.619 -0.0609 -0.2476  1.5623
24218SOL    HW279513   7.466   2.072   5.622  0.4005  0.4474  0.6281
24219SOL     OW79514   1.923   4.418   5.737  0.0693  0.0076 -0.2193
24219SOL    HW179515   1.924   4.375   5.651 -1.3133 -3.0861  1.1797
24219SOL    HW279516   2.008   4.396   5.775  0.3060  0.5793 -0.4074
24220SOL     OW79517   6.410   2.697   7.472 -0.3330  0.4912  0.0045
24220SOL    HW179518   6.333   2.735   7.430 -0.9346  1.3654  1.8233
24220SOL    HW279519   6.457   2.772   7.509  1.0483 -0.0953 -0.4559
24221SOL     OW79520   4.306   9.451   8.338 -0.0483 -0.1326  0.0311
24221SOL    HW179521   4.311   9.399   8.418  0.3873  0.5385  0.4564
24221SOL    HW279522   4.302   9.387   8.267 -0.2558 -0.7339  0.5813
24222SOL     OW79523   5.159   3.058  11.626 -0.3502  0.1906  0.0617
24222SOL    HW179524   5.120   3.037  11.541 -0.3171  3.3553 -0.8592
24222SOL    HW279525   5.092   3.107  11.672  0.5685  0.7980  0.7884
24223SOL     OW79526   8.950   2.642   7.810 -0.0950  0.0543  0.5655
24223SOL    HW179527   8.878   2.580   7.795  1.8186 -1.8507 -1.3439
24223SOL    HW279528   9.008   2.598   7.872 -0.6436  1.7348  2.3834
24224SOL     OW79529   5.675   2.197   1.724 -0.6850  0.1524  0.1596
24224SOL    HW179530   5.695   2.232   1.811  1.7684  2.2489 -1.1524
24224SOL    HW279531   5.653   2.105   1.741  2.2594 -0.2511  2.8006
24225SOL     OW79532   2.899   5.490   4.192 -0.0113  0.1674  0.2028
24225SOL    HW179533   2.956   5.549   4.240  0.1913  0.6200 -0.5789
24225SOL    HW279534   2.818   5.540   4.179 -0.2020 -0.0868  0.3801
24226SOL     OW79535   3.288   0.984  12.339  0.3052 -0.0802 -0.7517
24226SOL    HW179536   3.367   0.930  12.351 -0.5345 -1.5719 -1.6103
24226SOL    HW279537   3.220   0.937  12.389 -0.7910 -0.6721 -2.7157
24227SOL     OW79538   2.776   0.622  12.405 -0.3561  0.1330  0.2215
24227SOL    HW179539   2.746   0.615  12.315 -0.1652  0.1773  0.1552
24227SOL    HW279540   2.788   0.716  12.420 -0.6637  0.1482  0.3814
24228SOL     OW79541   7.126   1.031   0.629  0.1318  0.5071 -0.0085
24228SOL    HW179542   7.124   1.127   0.636 -0.6767  0.5753 -0.9424
24228SOL    HW279543   7.038   1.004   0.655  0.8100 -0.1255  1.7796
24229SOL     OW79544   3.834   0.002  12.083 -0.0652  0.1944  0.6678
24229SOL    HW179545   3.868   0.070  12.025 -0.0980 -1.0091 -0.8281
24229SOL    HW279546   3.851   0.035  12.171  0.7743  1.6948 -0.0156
24230SOL     OW79547  12.140   2.516   5.985  0.6367  0.1315 -0.5190
24230SOL    HW179548  12.049   2.515   6.015  0.9709  0.8269  0.5763
24230SOL    HW279549  12.192   2.526   6.065  1.8212 -2.4681 -0.8360
24231SOL     OW79550  11.596  11.886   9.162 -0.4069  0.1481 -0.3001
24231SOL    HW179551  11.646  11.876   9.081 -0.5144 -0.9869 -0.2436
24231SOL    HW279552  11.642  11.954   9.211  0.3102  0.0446 -0.8195
24232SOL     OW79553   2.829   0.046   8.095  0.1812 -0.1808  0.0967
24232SOL    HW179554   2.774   0.056   8.017  0.0295  1.9682  0.4042
24232SOL    HW279555   2.915   0.023   8.061 -0.2949 -1.0529 -0.5611
24233SOL     OW79556   4.882   6.504  11.902 -0.3104  0.2958 -0.5244
24233SOL    HW179557   4.939   6.563  11.854 -0.0758  0.3800 -0.1510
24233SOL    HW279558   4.908   6.515  11.994 -0.8132  0.2112 -0.3690
24234SOL     OW79559   5.128  11.581   1.298  0.1852  0.0106 -0.1898
24234SOL    HW179560   5.116  11.495   1.338  0.9833 -0.9438 -1.9120
24234SOL    HW279561   5.101  11.643   1.366 -2.7489 -1.6093  0.3079
24235SOL     OW79562   5.708   4.763   0.700 -0.1526  0.1005  0.0827
24235SOL    HW179563   5.664   4.817   0.634 -0.3017 -1.1373 -0.8715
24235SOL    HW279564   5.637   4.721   0.749 -0.0483 -0.1835 -0.0038
24236SOL     OW79565   0.551   6.839   5.438  0.7417  0.1132  0.2934
24236SOL    HW179566   0.536   6.888   5.357  0.9713  0.6259  0.5576
24236SOL    HW279567   0.575   6.751   5.409  0.9725  0.3355 -0.1982
24237SOL     OW79568   3.076  12.021   9.151 -0.2346 -0.1578  0.1014
24237SOL    HW179569   2.994  11.979   9.175 -0.8456  1.5745  1.2280
24237SOL    HW279570   3.143  11.974   9.199 -0.6223 -1.1930 -0.3487
24238SOL     OW79571   4.149   5.025   6.261 -0.0360 -0.1437 -0.3398
24238SOL    HW179572   4.096   5.041   6.339 -0.9956 -0.0913 -0.9795
24238SOL    HW279573   4.098   4.962   6.210 -0.4292  1.3139 -1.8656
24239SOL     OW79574   3.157   3.722   8.138 -0.1076  0.0129  0.3470
24239SOL    HW179575   3.177   3.629   8.146 -0.8476 -0.1891 -0.1384
24239SOL    HW279576   3.070   3.731   8.177  1.1590  1.0213  3.2193
24240SOL     OW79577   7.971  11.669  11.452 -0.2025 -0.2529  0.2756
24240SOL    HW179578   8.041  11.653  11.516 -0.1239 -0.7517  0.0728
24240SOL    HW279579   8.008  11.640  11.368 -0.2745  0.4665 -0.0152
24241SOL     OW79580   7.972   8.229  10.428  0.9797 -0.0624  0.8824
24241SOL    HW179581   7.907   8.159  10.434  0.4230  0.3878  0.2951
24241SOL    HW279582   7.929   8.304  10.469  2.1922 -0.4544  3.0253
24242SOL     OW79583   8.970  10.427   8.431  0.1908 -0.3149  0.0248
24242SOL    HW179584   8.994  10.497   8.370 -2.0455 -0.2103 -0.7948
24242SOL    HW279585   8.961  10.349   8.377 -1.1762 -0.3666  0.2925
24243SOL     OW79586   6.429   5.702   2.044 -0.5387 -0.0600  0.1434
24243SOL    HW179587   6.391   5.788   2.028 -0.5062  0.2533  1.6613
24243SOL    HW279588   6.453   5.670   1.957  1.2296  2.2511 -0.2989
24244SOL     OW79589   7.122   8.638   6.351  0.3973  0.1523  0.0002
24244SOL    HW179590   7.184   8.567   6.332  0.3741  0.1068  0.0994
24244SOL    HW279591   7.038   8.594   6.365  0.2159  0.2521 -0.6990
24245SOL     OW79592   4.288   0.808  12.076  0.9693 -0.0813 -0.3692
24245SOL    HW179593   4.378   0.823  12.048  0.3131  1.4657 -1.8376
24245SOL    HW279594   4.235   0.848  12.008 -0.8078  0.9756  1.5069
24246SOL     OW79595   6.822  12.105   2.427 -0.0754 -0.0762 -0.1379
24246SOL    HW179596   6.752  12.084   2.489 -1.3298  0.5167 -1.2909
24246SOL    HW279597   6.828  12.028   2.371  2.1396 -1.2651  1.5946
24247SOL     OW79598   6.448  11.728  12.281  0.2681  0.3498 -0.0817
24247SOL    HW179599   6.366  11.723  12.232 -0.1429  0.3558  0.5843
24247SOL    HW279600   6.506  11.780  12.226  0.1171 -0.3736 -0.9536
24248SOL     OW79601   4.427   3.836   9.866  0.1419 -0.8587 -0.2066
24248SOL    HW179602   4.408   3.837   9.960  0.3603  0.8583 -0.1500
24248SOL    HW279603   4.454   3.746   9.848 -0.1252 -1.2762  1.3263
24249SOL     OW79604   4.335   5.121   3.254 -0.4267 -0.1745 -0.1581
24249SOL    HW179605   4.268   5.113   3.322 -0.3580  0.0283 -0.0652
24249SOL    HW279606   4.324   5.043   3.201 -0.5705 -0.2693  0.0078
24250SOL     OW79607  11.360   5.285   6.199 -0.0114  0.1412 -0.2343
24250SOL    HW179608  11.328   5.299   6.110  0.7556  1.0247 -0.3758
24250SOL    HW279609  11.335   5.194   6.219  1.7247 -0.8297 -2.1518
24251SOL     OW79610   0.438   2.752   6.502 -0.0340 -0.0331  0.2197
24251SOL    HW179611   0.362   2.784   6.551  1.8402  1.8649  2.1148
24251SOL    HW279612   0.465   2.672   6.548 -0.0535  0.0753  0.4197
24252SOL     OW79613  10.771   9.386   6.976  0.6305  0.1118  0.3108
24252SOL    HW179614  10.715   9.317   6.940 -0.9089  0.7140  1.4326
24252SOL    HW279615  10.812   9.346   7.052  0.8841 -0.0117  0.1082
24253SOL     OW79616   0.303  12.152   7.752 -0.0618  0.3061 -0.0636
24253SOL    HW179617   0.361  12.109   7.689  0.1060  1.0260 -0.4138
24253SOL    HW279618   0.361  12.178   7.824 -0.1595 -0.0453  0.1396
24254SOL     OW79619   2.670   4.325   8.012  0.0183  0.5943  0.2801
24254SOL    HW179620   2.614   4.276   7.952 -0.4247  1.2818  0.1120
24254SOL    HW279621   2.609   4.381   8.061  0.3505 -0.1093  1.5261
24255SOL     OW79622  11.147   6.663   4.869  0.3363  0.0890 -0.2163
24255SOL    HW179623  11.091   6.730   4.831  2.1974  1.9205  0.0599
24255SOL    HW279624  11.196   6.709   4.937  1.6108 -1.5731  0.0520
24256SOL     OW79625   7.290   6.048   2.489  0.1655 -0.1375 -0.3749
24256SOL    HW179626   7.273   5.957   2.463  0.0438  0.3309 -2.0632
24256SOL    HW279627   7.206   6.092   2.482  0.3929  0.2963 -0.4441
24257SOL     OW79628   1.705   2.524   5.694 -0.0721 -0.5839  0.1137
24257SOL    HW179629   1.742   2.481   5.618  1.3870 -0.1228  0.5185
24257SOL    HW279630   1.618   2.553   5.666  0.4002 -0.4961 -1.3421
24258SOL     OW79631   1.619   3.258   4.919  0.7825  0.1055  0.4230
24258SOL    HW179632   1.684   3.194   4.945  0.6156 -0.3385 -0.2140
24258SOL    HW279633   1.587   3.226   4.834 -0.3592  0.2375  0.7929
24259SOL     OW79634   8.662   3.082  11.729 -0.4627  0.8995 -0.6471
24259SOL    HW179635   8.744   3.119  11.762 -0.1004  2.1198 -2.6977
24259SOL    HW279636   8.683   2.991  11.710 -0.0921  0.7470  0.4144
24260SOL     OW79637  11.817   4.073   2.001  0.2671  0.3605 -0.6629
24260SOL    HW179638  11.902   4.069   1.958  0.3203  0.1813 -0.5399
24260SOL    HW279639  11.834   4.119   2.084  0.1962  0.5569 -0.7561
24261SOL     OW79640   6.769  10.216   6.587 -0.1975  0.0769 -0.1873
24261SOL    HW179641   6.709  10.177   6.524  0.3291 -1.9365  0.4816
24261SOL    HW279642   6.713  10.262   6.649 -0.9232 -0.2860 -0.5669
24262SOL     OW79643   9.473   0.042   9.093  0.2492 -0.1130 -0.1054
24262SOL    HW179644   9.444  -0.044   9.065 -1.3236  0.2506  0.3205
24262SOL    HW279645   9.418   0.063   9.168  0.1507  1.5290 -0.5899
24263SOL     OW79646   6.394  11.240   9.800  0.0301  0.2686 -0.2185
24263SOL    HW179647   6.401  11.168   9.737 -2.9303 -0.3157 -0.0278
24263SOL    HW279648   6.428  11.205   9.881 -1.7251 -1.1430 -0.0351
24264SOL     OW79649   3.524  10.580   8.244 -0.8690  0.1366  0.1747
24264SOL    HW179650   3.542  10.673   8.264  1.2604 -0.3984  1.1386
24264SOL    HW279651   3.430  10.571   8.254 -1.0990  2.1704  0.2666
24265SOL     OW79652  10.740   5.753  12.364 -0.2746  0.0041  0.1978
24265SOL    HW179653  10.770   5.842  12.383 -1.3745  0.7617 -1.3680
24265SOL    HW279654  10.720   5.755  12.270 -0.6525 -1.8061  0.2175
24266SOL     OW79655  12.338   3.278   2.747  0.2530  0.0416  0.8939
24266SOL    HW179656  12.259   3.310   2.702  0.3982 -0.0464  0.5710
24266SOL    HW279657  12.357   3.195   2.704  0.6962  0.2060  0.7680
24267SOL     OW79658   8.166  11.032   2.568 -0.0813 -0.1475  0.0185
24267SOL    HW179659   8.109  10.978   2.623 -0.3854  0.0762 -0.0704
24267SOL    HW279660   8.138  11.012   2.479 -1.2517  1.2858  0.0262
24268SOL     OW79661   2.225   9.432   5.694  0.0674  0.5134 -0.0595
24268SOL    HW179662   2.267   9.461   5.613  1.2216 -0.5830  0.1234
24268SOL    HW279663   2.136   9.407   5.666  0.1745  0.9417 -0.8205
24269SOL     OW79664   4.587   9.891   3.074  0.1233 -0.1723 -0.7528
24269SOL    HW179665   4.629   9.977   3.078 -1.2906  0.5096  0.0880
24269SOL    HW279666   4.497   9.907   3.100 -0.5193 -1.7029 -1.9001
24270SOL     OW79667   7.675  11.359  10.627  0.0325 -0.0122 -0.5687
24270SOL    HW179668   7.619  11.436  10.616  0.0973 -0.1222 -1.7564
24270SOL    HW279669   7.762  11.389  10.599  0.4948  0.0271  0.8296
24271SOL     OW79670  10.661  10.339  11.990  0.3483 -0.1166 -0.1897
24271SOL    HW179671  10.652  10.248  12.017 -0.8260  0.0836  0.1338
24271SOL    HW279672  10.755  10.350  11.975  0.5272 -1.3223 -0.0524
24272SOL     OW79673  12.267   5.430   4.239  0.3599 -0.4479  0.0927
24272SOL    HW179674  12.341   5.409   4.295 -1.5830  0.4501  3.2771
24272SOL    HW279675  12.235   5.345   4.208  1.4244 -0.9802  0.4075
24273SOL     OW79676   8.599   1.045   5.112 -0.0456  0.4152  0.6230
24273SOL    HW179677   8.647   1.114   5.066 -0.7921 -0.1052 -1.0438
24273SOL    HW279678   8.508   1.074   5.111 -0.5009 -0.8589 -0.7884
24274SOL     OW79679   6.541  11.255  11.375 -0.2747 -0.1323  0.4400
24274SOL    HW179680   6.539  11.350  11.366  0.9922 -0.0505  0.8274
24274SOL    HW279681   6.510  11.239  11.464 -0.3618 -0.0859  0.4191
24275SOL     OW79682   9.162   0.616   2.858 -0.4718 -0.4413 -0.0700
24275SOL    HW179683   9.217   0.662   2.920 -1.3507  0.4702  0.0557
24275SOL    HW279684   9.163   0.671   2.780 -0.3028 -0.9972 -0.4710
24276SOL     OW79685   4.881  11.246   8.324  0.6096  0.0575  0.2927
24276SOL    HW179686   4.838  11.332   8.320 -0.9165 -0.5607  1.7550
24276SOL    HW279687   4.903  11.235   8.417 -2.2052 -2.4132  0.8162
24277SOL     OW79688   1.504   5.562   8.253  0.0317 -0.0919 -0.0731
24277SOL    HW179689   1.504   5.473   8.289  2.2959 -0.2401 -0.2972
24277SOL    HW279690   1.464   5.616   8.321  1.6729 -0.7860  1.4940
24278SOL     OW79691   2.900   8.478  11.176 -0.5758  0.0926  0.0770
24278SOL    HW179692   2.994   8.469  11.163 -0.6820 -0.8936 -0.0799
24278SOL    HW279693   2.880   8.567  11.147  0.3944  0.5077  0.6811
24279SOL     OW79694   6.112  11.081   3.652 -0.1228  0.1589 -0.2668
24279SOL    HW179695   6.170  11.070   3.727 -0.4045 -0.7945 -0.1767
24279SOL    HW279696   6.123  11.001   3.601 -1.8444 -0.3549  0.0969
24280SOL     OW79697   8.848   3.067   0.213  0.2551 -0.1118 -0.7678
24280SOL    HW179698   8.904   3.008   0.163  0.6404 -0.0022 -0.4815
24280SOL    HW279699   8.767   3.074   0.163  1.0836  0.9989 -2.0448
24281SOL     OW79700   3.588  12.245   5.196  0.0273 -0.2147  0.3292
24281SOL    HW179701   3.515  12.228   5.256 -1.1229  0.6451 -0.7734
24281SOL    HW279702   3.550  12.236   5.109  0.8910  1.5818 -0.2753
24282SOL     OW79703   5.678  12.230   5.370  0.0425  0.0822 -0.5218
24282SOL    HW179704   5.681  12.165   5.300  0.4344  0.7894 -1.1789
24282SOL    HW279705   5.607  12.201   5.427  1.3026 -1.8430  0.1415
24283SOL     OW79706   4.148   1.968   2.934  0.4593 -0.4874 -0.2847
24283SOL    HW179707   4.204   2.028   2.885 -0.2952  0.4799  0.0012
24283SOL    HW279708   4.148   2.003   3.023  1.2902 -1.8549  0.2755
24284SOL     OW79709   5.675   7.502   0.229 -0.1469  0.0086  0.0358
24284SOL    HW179710   5.688   7.582   0.179 -1.6799  1.4033  1.7457
24284SOL    HW279711   5.751   7.498   0.288 -0.8310  1.1300  1.0491
24285SOL     OW79712   9.745   4.163   3.632  0.2070  0.4370  0.0584
24285SOL    HW179713   9.695   4.155   3.551  0.8830 -2.3871 -0.2024
24285SOL    HW279714   9.822   4.215   3.608 -1.2677  2.6198 -0.1653
24286SOL     OW79715   2.386   8.496   5.095 -0.0715 -0.4714 -0.0930
24286SOL    HW179716   2.348   8.539   5.018  1.8727  2.6325  0.4877
24286SOL    HW279717   2.470   8.463   5.064  0.3908  0.1350  0.4786
24287SOL     OW79718   3.131   5.869  11.116 -0.4173 -0.2139  0.4898
24287SOL    HW179719   3.104   5.783  11.085 -1.1519 -0.4026  1.6219
24287SOL    HW279720   3.135   5.861  11.211 -1.0038  1.1383  0.6531
24288SOL     OW79721  10.386  11.866  10.038  0.5077 -0.2244  0.1895
24288SOL    HW179722  10.410  11.848   9.947  0.3240 -0.6908  0.2329
24288SOL    HW279723  10.417  11.790  10.087  0.9061  0.1800  0.5694
24289SOL     OW79724   8.809  10.564   0.228 -0.2047 -0.1874  0.0435
24289SOL    HW179725   8.869  10.580   0.156 -0.0730 -1.3579 -0.1248
24289SOL    HW279726   8.827  10.474   0.256 -3.7359 -1.7148 -1.8771
24290SOL     OW79727   4.472   0.149   7.284 -0.0449 -0.0051 -0.4996
24290SOL    HW179728   4.451   0.239   7.258 -0.1554 -0.2845 -1.4226
24290SOL    HW279729   4.500   0.106   7.203  0.5145 -0.6651  0.0274
24291SOL     OW79730   9.060   5.960   1.833 -0.2038  0.2716 -0.1208
24291SOL    HW179731   9.097   5.874   1.849 -1.5401 -0.4547 -0.7241
24291SOL    HW279732   9.118   6.000   1.768 -0.4865 -0.8739 -1.1216
24292SOL     OW79733   2.292   5.654   0.188 -0.2729 -0.6852  0.0600
24292SOL    HW179734   2.378   5.618   0.166 -1.0155 -1.3430 -2.0967
24292SOL    HW279735   2.234   5.578   0.187 -1.0770 -0.0869  0.2919
24293SOL     OW79736   3.749   5.062   1.706 -0.2736  0.5512 -0.1352
24293SOL    HW179737   3.711   5.134   1.756 -1.0826 -0.4992  0.8130
24293SOL    HW279738   3.817   5.026   1.763 -2.5747 -1.9757  1.2549
24294SOL     OW79739   2.234   9.252   4.674 -0.0154  0.2898 -0.7862
24294SOL    HW179740   2.254   9.283   4.762 -0.2563  0.3194 -0.7418
24294SOL    HW279741   2.256   9.159   4.676  1.5651  0.6291 -1.1816
24295SOL     OW79742   6.292   5.877   8.910  0.0557  0.4582 -0.1016
24295SOL    HW179743   6.295   5.931   8.831  0.6169  0.5647 -0.0137
24295SOL    HW279744   6.383   5.875   8.941 -0.1200  0.2207  0.4072
24296SOL     OW79745   7.676   9.429   8.535  0.0055  0.4956  0.1336
24296SOL    HW179746   7.743   9.496   8.523  0.4700 -0.2420 -1.6308
24296SOL    HW279747   7.725   9.351   8.564 -0.3236  0.4373  0.5436
24297SOL     OW79748   1.921   0.616   6.712 -0.0456 -0.2194 -0.3380
24297SOL    HW179749   1.831   0.642   6.733 -0.3975 -0.4225 -1.5056
24297SOL    HW279750   1.964   0.697   6.684 -0.0928 -0.2522 -0.5087
24298SOL     OW79751   5.901   3.082   4.692 -0.3045 -0.0146 -0.1002
24298SOL    HW179752   5.892   3.070   4.598 -2.8062 -0.2406  0.0908
24298SOL    HW279753   5.860   3.004   4.730 -0.9376  0.8832  1.1498
24299SOL     OW79754   5.740   6.317   3.393  0.0040  0.4467  0.5042
24299SOL    HW179755   5.824   6.278   3.369 -0.3310 -0.2288  0.4001
24299SOL    HW279756   5.739   6.402   3.348  0.6101  0.4391  0.4753
24300SOL     OW79757   8.030   7.004   9.294  0.0311  0.4416 -0.2154
24300SOL    HW179758   7.946   7.030   9.330 -0.1539 -1.5379  0.9667
24300SOL    HW279759   8.011   6.977   9.204 -0.3017  1.3788 -0.4352
24301SOL     OW79760  12.453   2.874   5.114  0.0661  0.0359  0.4386
24301SOL    HW179761  12.455   2.932   5.190  0.9531  1.0522 -0.3329
24301SOL    HW279762  12.397   2.919   5.051  2.6039  1.3218 -1.0768
24302SOL     OW79763   2.985  11.043   7.278  0.2516 -0.8360 -1.2700
24302SOL    HW179764   2.995  11.134   7.249 -0.7442 -0.2121  0.1970
24302SOL    HW279765   2.890  11.027   7.274  0.0688 -0.8189  1.0884
24303SOL     OW79766   5.477   4.682   2.703  0.4137 -0.1019 -0.0617
24303SOL    HW179767   5.496   4.735   2.781  1.1212 -0.3517 -0.0557
24303SOL    HW279768   5.451   4.746   2.637  1.1035  0.2503 -0.0075
24304SOL     OW79769   4.289  10.875   5.857  0.7121 -0.3480 -0.1691
24304SOL    HW179770   4.257  10.957   5.895 -2.9540 -1.7150  0.0066
24304SOL    HW279771   4.367  10.854   5.910 -0.2957  1.2416  2.1225
24305SOL     OW79772   2.552   8.016  10.098 -0.3730  0.0538  0.3306
24305SOL    HW179773   2.512   8.002  10.184 -0.1380 -1.8616  0.1785
24305SOL    HW279774   2.638   7.974  10.104  0.1851  1.0447 -0.4429
24306SOL     OW79775   3.622   8.421  11.792  0.2492  0.3949 -0.1861
24306SOL    HW179776   3.684   8.359  11.831 -0.1119 -0.2703 -0.6407
24306SOL    HW279777   3.670   8.503  11.787  0.3941  0.4489  1.4138
24307SOL     OW79778   0.651  10.567  11.007  0.0997 -0.1758 -0.5414
24307SOL    HW179779   0.649  10.598  11.097  0.2855  0.1785 -0.6570
24307SOL    HW279780   0.689  10.480  11.012 -0.3381 -0.3557 -0.2250
24308SOL     OW79781   2.739   8.125   1.468  0.2925 -0.3194  0.3539
24308SOL    HW179782   2.727   8.030   1.471  0.9093 -0.5594 -2.3098
24308SOL    HW279783   2.656   8.159   1.435 -0.3044  0.2363  2.2947
24309SOL     OW79784   5.657   3.515   1.661  0.1357  0.4254  0.6070
24309SOL    HW179785   5.571   3.474   1.650  0.3733  0.0896 -0.0300
24309SOL    HW279786   5.684   3.538   1.572  0.8529  0.2278  0.7677
24310SOL     OW79787   3.238   9.680   9.544 -0.3342  0.4773 -0.0705
24310SOL    HW179788   3.241   9.652   9.453  0.7775 -0.4495  0.2378
24310SOL    HW279789   3.310   9.742   9.553  0.9117 -1.0409  0.6787
24311SOL     OW79790   3.664   7.236   0.094 -0.0343  0.4414  0.1832
24311SOL    HW179791   3.585   7.206   0.139 -1.0347  1.4504 -0.8301
24311SOL    HW279792   3.684   7.320   0.134 -2.1964  2.4450 -2.4744
24312SOL     OW79793   5.699   8.634  10.755  0.1799 -0.4132  0.0825
24312SOL    HW179794   5.736   8.683  10.828  0.7404  0.6440 -0.8679
24312SOL    HW279795   5.776   8.597  10.711 -0.0748 -0.3068 -0.4602
24313SOL     OW79796   0.584   6.038  10.374 -0.1835 -0.3089  0.0963
24313SOL    HW179797   0.591   6.106  10.441 -1.6456 -1.7638  1.8354
24313SOL    HW279798   0.490   6.023  10.365 -0.0052 -0.4357 -2.0671
24314SOL     OW79799   1.633   1.023   9.974 -0.3648 -0.6763  0.4285
24314SOL    HW179800   1.597   0.968   9.904 -1.0844 -1.5429  1.4420
24314SOL    HW279801   1.615   1.113   9.946  1.2873 -0.8921 -1.5137
24315SOL     OW79802   9.025  11.437   7.963  0.1433  0.1413  0.1834
24315SOL    HW179803   9.085  11.446   7.889 -0.2868 -0.0727 -0.1960
24315SOL    HW279804   9.038  11.517   8.015  2.9040 -1.1552  1.7344
24316SOL     OW79805   8.436   9.843   3.150  0.3526  0.3552  0.6711
24316SOL    HW179806   8.398   9.926   3.120  2.2943  0.7075 -1.0500
24316SOL    HW279807   8.523   9.867   3.182  0.5034 -0.8664  1.2270
24317SOL     OW79808  10.892   2.580  11.933  0.5794  0.4151  0.0048
24317SOL    HW179809  10.899   2.509  11.997 -0.5274 -0.3266 -0.6675
24317SOL    HW279810  10.965   2.564  11.873 -0.8902 -1.5055 -1.4026
24318SOL     OW79811  12.458   1.688   7.484 -0.1148 -0.5329  0.0679
24318SOL    HW179812  12.499   1.722   7.563 -0.5910 -0.9014  0.4750
24318SOL    HW279813  12.407   1.762   7.450 -1.6758 -0.9854  1.3083
24319SOL     OW79814   9.125   7.841   1.189  0.2664  0.4022  0.1997
24319SOL    HW179815   9.060   7.774   1.207 -0.4074  0.4450 -1.8528
24319SOL    HW279816   9.074   7.917   1.161  1.1799  0.1520 -2.3068
24320SOL     OW79817   9.257   8.360   1.461 -0.0806 -0.2023 -0.2920
24320SOL    HW179818   9.257   8.453   1.483  0.8884 -0.1150 -0.6396
24320SOL    HW279819   9.253   8.316   1.546 -1.0859  0.1422 -0.1449
24321SOL     OW79820   3.962   4.741   9.971 -0.1872 -0.3548 -0.1722
24321SOL    HW179821   3.964   4.679   9.898 -1.5400  0.0957 -0.6236
24321SOL    HW279822   3.892   4.709  10.028 -1.1801  0.9292 -0.6106
24322SOL     OW79823   6.589   5.213  10.285 -0.5052 -0.2817 -0.2571
24322SOL    HW179824   6.682   5.236  10.298  0.0938 -1.3861 -2.3005
24322SOL    HW279825   6.577   5.133  10.336  0.1937 -1.1666 -1.4315
24323SOL     OW79826   0.744   7.675   2.394  0.0046  0.4903  0.1481
24323SOL    HW179827   0.775   7.734   2.463  2.6429 -0.2229 -0.3275
24323SOL    HW279828   0.791   7.704   2.316  0.2206 -1.2893 -0.4152
24324SOL     OW79829  11.432   8.394  10.184 -0.0551  0.3332 -0.1210
24324SOL    HW179830  11.389   8.379  10.269 -0.0474  1.3385  0.0758
24324SOL    HW279831  11.419   8.312  10.136  2.0861 -1.2573  1.7402
24325SOL     OW79832   0.507   3.922   3.360 -0.2368 -0.2001 -0.1076
24325SOL    HW179833   0.492   4.000   3.307  0.8995 -0.4262 -0.7984
24325SOL    HW279834   0.440   3.926   3.429 -0.2044  1.3688 -0.1337
24326SOL     OW79835  12.236  11.969   8.519  0.0082 -0.1708  0.0567
24326SOL    HW179836  12.270  11.880   8.527 -1.2884 -0.5864  1.5287
24326SOL    HW279837  12.244  12.006   8.607 -3.7636 -0.5460  0.7230
24327SOL     OW79838   1.897   4.251   5.186  0.3716 -0.3416  0.4766
24327SOL    HW179839   1.840   4.280   5.115 -1.1316 -3.1865  0.3565
24327SOL    HW279840   1.954   4.185   5.147  0.7424 -0.6679  1.5181
24328SOL     OW79841   3.302   7.005  10.861  0.1934 -0.2222 -0.1293
24328SOL    HW179842   3.364   6.976  10.795  0.3285  0.4596 -0.3163
24328SOL    HW279843   3.274   7.091  10.831 -1.0669 -0.6428 -0.1963
24329SOL     OW79844   9.446   0.994   3.521 -0.2925 -0.1344 -0.4689
24329SOL    HW179845   9.424   0.933   3.450  0.9108 -1.4871  0.2668
24329SOL    HW279846   9.367   0.998   3.574 -1.1140  0.6693 -1.6983
24330SOL     OW79847   6.608   3.307  11.291 -0.1067 -0.1224  0.8165
24330SOL    HW179848   6.617   3.261  11.207 -0.1912 -0.0674  0.7770
24330SOL    HW279849   6.603   3.237  11.356 -0.2286 -0.1678  0.7575
24331SOL     OW79850   4.716   8.581  11.752  0.0922  1.1030  0.1932
24331SOL    HW179851   4.711   8.493  11.716 -1.7563  0.8702  0.9062
24331SOL    HW279852   4.746   8.569  11.842  0.7801  1.3034 -0.0056
24332SOL     OW79853   2.446   0.122  11.854 -0.4380  0.0314 -0.1111
24332SOL    HW179854   2.433   0.113  11.760  0.9704 -0.7092 -0.2655
24332SOL    HW279855   2.493   0.205  11.863 -0.6137  0.1250 -0.0531
24333SOL     OW79856   9.457   0.590   7.308 -0.1981  0.4473  0.2928
24333SOL    HW179857   9.438   0.667   7.361 -0.4730  0.4230  0.2320
24333SOL    HW279858   9.532   0.616   7.254  0.1925  0.4077  0.8180
24334SOL     OW79859   2.541  11.313  10.484  0.6043  0.5268  0.3076
24334SOL    HW179860   2.505  11.288  10.570 -0.1423  1.9718  0.4400
24334SOL    HW279861   2.469  11.296  10.423  0.5809  0.9941  0.2041
24335SOL     OW79862   3.205   3.944  10.535 -0.8184 -0.2651 -0.4141
24335SOL    HW179863   3.162   4.021  10.497 -0.3261  0.1949 -0.0701
24335SOL    HW279864   3.226   3.889  10.459  0.7904  0.9689 -0.9286
24336SOL     OW79865   5.393   2.250   7.390  0.4980 -0.1632 -0.3308
24336SOL    HW179866   5.317   2.198   7.418  0.0872  0.3328 -0.5215
24336SOL    HW279867   5.460   2.231   7.456 -0.3253  0.6537  0.7905
24337SOL     OW79868   6.622   6.364   3.967 -0.3344  0.1728  0.5131
24337SOL    HW179869   6.650   6.455   3.967 -0.6696  0.2799 -0.1966
24337SOL    HW279870   6.573   6.353   3.886 -0.3488 -0.6264  0.6147
24338SOL     OW79871   6.527   9.233   7.062 -0.3039 -0.1234 -0.3856
24338SOL    HW179872   6.527   9.244   6.967 -0.7918 -0.0415 -0.3785
24338SOL    HW279873   6.528   9.138   7.075  2.4772 -0.1794 -0.4512
24339SOL     OW79874   5.265   8.451   7.860  0.0413  0.5207  0.2992
24339SOL    HW179875   5.330   8.399   7.907  1.0350  0.7291 -0.8000
24339SOL    HW279876   5.219   8.388   7.804 -1.0039  0.3070  1.3505
24340SOL     OW79877   9.856  11.118   2.026 -0.3560  0.1290  0.2003
24340SOL    HW179878   9.793  11.189   2.021  1.8660  2.3964  2.1628
24340SOL    HW279879   9.847  11.083   2.114  0.4201 -0.2041  0.1605
24341SOL     OW79880   6.693   3.160  12.025  0.0803  0.0752 -0.2443
24341SOL    HW179881   6.697   3.237  11.968  1.4743 -0.2091 -0.5745
24341SOL    HW279882   6.626   3.105  11.985 -1.4351  1.3904  0.3860
24342SOL     OW79883   5.989  10.153  11.611 -0.2855 -0.5198  0.0006
24342SOL    HW179884   5.933  10.182  11.539  0.4770 -0.0274 -0.4008
24342SOL    HW279885   5.931  10.153  11.687 -0.0573  3.5045  0.3776
24343SOL     OW79886   7.464   3.982   3.975  0.4989 -0.1955  0.3793
24343SOL    HW179887   7.437   4.057   3.921  0.0330 -0.4241  0.2944
24343SOL    HW279888   7.384   3.955   4.020  0.6136 -0.7916  0.2308
24344SOL     OW79889   9.498  12.335   9.045 -0.6829  0.2110  0.0675
24344SOL    HW179890   9.486  12.336   8.950 -1.5465 -1.7752  0.1182
24344SOL    HW279891   9.568  12.272   9.060 -1.5294 -0.5671  0.8270
24345SOL     OW79892  11.904   8.540   4.623 -0.4734 -0.4177 -0.2759
24345SOL    HW179893  11.920   8.473   4.689 -2.3462 -0.8490 -0.2214
24345SOL    HW279894  11.967   8.520   4.553  1.4152 -0.0653  1.2224
24346SOL     OW79895   0.215   4.714   3.551 -0.2123 -0.4695  0.1371
24346SOL    HW179896   0.255   4.665   3.623  0.2010  0.0427  0.2591
24346SOL    HW279897   0.288   4.759   3.508 -0.1236 -2.3461 -1.8741
24347SOL     OW79898   5.774  12.215   4.274 -0.5786  0.4821  0.0370
24347SOL    HW179899   5.824  12.145   4.317 -0.8370  2.0379  3.1132
24347SOL    HW279900   5.829  12.242   4.201  1.2878 -0.3878  1.0566
24348SOL     OW79901   1.891   1.292  10.842  0.0668 -0.9395  0.5580
24348SOL    HW179902   1.969   1.331  10.801  0.6792 -1.5155  1.1574
24348SOL    HW279903   1.922   1.211  10.881 -1.6423 -3.5237 -2.9001
24349SOL     OW79904   0.037   4.421   7.162  0.5143 -0.0745 -0.0896
24349SOL    HW179905   0.024   4.511   7.194  2.1935  0.4020 -0.6751
24349SOL    HW279906   0.058   4.371   7.241 -0.3927  0.0240  0.2365
24350SOL     OW79907   8.980   8.429  11.395 -0.6400 -0.0913  0.5415
24350SOL    HW179908   8.894   8.430  11.354 -0.4786  2.2601  0.1133
24350SOL    HW279909   9.040   8.459  11.326  0.1777  0.3782  1.4217
24351SOL     OW79910  10.259   0.369   1.007  0.1073 -0.0962 -0.0895
24351SOL    HW179911  10.353   0.383   1.001  0.2169 -0.4035  0.8021
24351SOL    HW279912  10.224   0.454   1.034  0.0985  0.0844 -0.6615
24352SOL     OW79913  10.933   4.581   9.534 -0.0948  0.3770  0.2215
24352SOL    HW179914  10.841   4.605   9.526 -0.1025  0.4115  0.4018
24352SOL    HW279915  10.941   4.499   9.484  0.3350  1.7059 -2.0224
24353SOL     OW79916  10.047   5.506   4.045  0.2926  0.3886  0.1544
24353SOL    HW179917  10.109   5.486   4.116  0.6905 -0.6690 -0.4733
24353SOL    HW279918  10.065   5.598   4.023  1.0972  0.3250  0.5070
24354SOL     OW79919   3.898   6.281   6.049 -0.5234  0.1213 -0.0978
24354SOL    HW179920   3.958   6.242   6.113 -1.1778 -3.1600 -1.2965
24354SOL    HW279921   3.830   6.323   6.102  0.5302  0.1659  1.2865
24355SOL     OW79922   1.081   9.248   1.334 -0.3491 -0.1781 -0.1337
24355SOL    HW179923   1.012   9.199   1.378 -0.4899  0.4927  0.4103
24355SOL    HW279924   1.036   9.300   1.268 -0.2131 -0.6991 -0.6376
24356SOL     OW79925  10.323   6.646   7.156 -0.0169 -0.0273 -0.0905
24356SOL    HW179926  10.348   6.720   7.100 -0.0483  0.0713  0.0259
24356SOL    HW279927  10.276   6.686   7.229 -1.6425 -0.3087 -0.9370
24357SOL     OW79928   3.769   8.390   8.946 -0.0980  0.7083  0.1067
24357SOL    HW179929   3.820   8.315   8.915 -2.3516 -1.6691  1.7203
24357SOL    HW279930   3.818   8.467   8.916  1.7208 -1.3509 -2.6890
24358SOL     OW79931   3.326   3.216  12.178  0.1151 -0.3352  0.2725
24358SOL    HW179932   3.363   3.135  12.213 -0.4760 -0.0775  1.5902
24358SOL    HW279933   3.235   3.195  12.159 -0.2615  0.2080  1.3906
24359SOL     OW79934   7.652  12.540   5.227 -0.4558 -0.2161  0.4222
24359SOL    HW179935   7.728  12.582   5.266 -0.3989 -0.3719  0.4822
24359SOL    HW279936   7.632  12.593   5.149 -0.5541  0.0788  0.6471
24360SOL     OW79937   6.294   5.226   5.314  0.4520  0.0949  0.4001
24360SOL    HW179938   6.301   5.132   5.327 -1.1937 -0.2543 -0.8271
24360SOL    HW279939   6.377   5.252   5.276 -0.3709 -1.6151 -2.9334
24361SOL     OW79940   9.817   6.236   5.438 -0.0139 -0.5343  0.4456
24361SOL    HW179941   9.747   6.301   5.443 -0.6898 -0.7457 -3.3029
24361SOL    HW279942   9.778   6.156   5.473 -0.6583  0.0375  1.0598
24362SOL     OW79943   2.599   8.601   4.341 -0.0885  0.2473  0.3003
24362SOL    HW179944   2.521   8.652   4.324 -0.9151 -1.7337 -2.5638
24362SOL    HW279945   2.571   8.536   4.406 -0.5117  0.2530  0.1270
24363SOL     OW79946   5.273   5.134  10.633  0.0533 -0.2439 -0.7582
24363SOL    HW179947   5.361   5.158  10.661  0.3764 -0.7423 -1.3105
24363SOL    HW279948   5.215   5.198  10.674  0.6951  0.2151 -0.5709
24364SOL     OW79949   8.201   2.702  11.935  0.1183 -0.3090 -0.0245
24364SOL    HW179950   8.214   2.786  11.979  0.2974  0.3953 -1.4032
24364SOL    HW279951   8.122   2.714  11.883 -0.0101 -1.0869 -0.0173
24365SOL     OW79952  10.360   9.804   7.254  0.4044  0.1718  0.1387
24365SOL    HW179953  10.346   9.710   7.261  2.1595 -0.1505 -0.0895
24365SOL    HW279954  10.382   9.832   7.343 -1.5722  0.6747  0.5089
24366SOL     OW79955   3.200   4.877   7.691 -0.1483 -0.4168  0.4578
24366SOL    HW179956   3.275   4.856   7.747 -0.2703  0.3447  0.9154
24366SOL    HW279957   3.221   4.834   7.607  1.0806  0.2569  0.3933
24367SOL     OW79958   2.871   6.049   4.845 -0.2505  0.5368  0.2615
24367SOL    HW179959   2.925   6.033   4.922 -0.5926  0.0962  0.4176
24367SOL    HW279960   2.882   5.970   4.791 -1.4849 -0.0039  0.7545
24368SOL     OW79961  11.885   9.237   3.058 -0.2223 -0.0011  0.4827
24368SOL    HW179962  11.825   9.178   3.013  1.6197 -1.0392 -0.7729
24368SOL    HW279963  11.953   9.257   2.994  0.2122  2.0171  1.4828
24369SOL     OW79964  11.736   7.002   0.503  0.3204  0.1208 -0.7859
24369SOL    HW179965  11.768   6.945   0.573 -2.5424  2.8881  3.2514
24369SOL    HW279966  11.678   6.946   0.451 -1.7346 -1.0967  2.4822
24370SOL     OW79967   0.969   6.267   4.085  0.1786  0.0781 -0.0530
24370SOL    HW179968   0.998   6.357   4.105  1.0394 -0.4054  1.0050
24370SOL    HW279969   1.022   6.241   4.010  1.3333 -0.2114  0.8417
24371SOL     OW79970  11.061   2.077   8.002  0.0869  0.3647  0.1686
24371SOL    HW179971  11.044   2.038   8.088  0.6827  2.4970  1.3398
24371SOL    HW279972  11.006   2.156   8.001  1.1174  1.1050 -0.8204
24372SOL     OW79973   5.057   9.239   5.261  0.7265 -0.0220  0.4919
24372SOL    HW179974   4.982   9.293   5.238  1.6297  0.2718 -2.1015
24372SOL    HW279975   5.125   9.302   5.285  0.6877 -0.2172  1.1484
24373SOL     OW79976   3.216   2.802   7.916  0.2875 -0.0399  0.7556
24373SOL    HW179977   3.251   2.790   7.828  0.5047 -0.3896  0.8893
24373SOL    HW279978   3.293   2.816   7.971  0.1782 -0.1984  0.9513
24374SOL     OW79979   2.213  10.787   2.546 -0.0232 -0.5009  0.0593
24374SOL    HW179980   2.202  10.744   2.631  0.0648 -0.2028  0.2244
24374SOL    HW279981   2.307  10.801   2.538 -0.0473 -0.3730 -0.0093
24375SOL     OW79982   6.772   3.286   1.611 -0.3885 -0.4065  0.2500
24375SOL    HW179983   6.844   3.341   1.641  0.7811 -0.2589 -2.4940
24375SOL    HW279984   6.703   3.348   1.587  0.2488 -0.2117 -1.1572
24376SOL     OW79985   3.725   4.901   4.482  0.1691  0.2719  0.3493
24376SOL    HW179986   3.736   4.983   4.529  0.2644 -0.1535  1.0761
24376SOL    HW279987   3.645   4.863   4.519 -0.0231  0.1610 -0.1707
24377SOL     OW79988   6.317  11.851   5.026 -0.3317  0.0310 -0.2476
24377SOL    HW179989   6.330  11.757   5.017  1.3819  0.3385 -1.5684
24377SOL    HW279990   6.335  11.869   5.118  2.7452 -0.5352 -0.6417
24378SOL     OW79991   1.023   6.471   1.564 -0.0093  0.0003  0.0191
24378SOL    HW179992   1.050   6.404   1.628  0.6917  0.6628  0.4365
24378SOL    HW279993   1.102   6.523   1.550 -0.8764  1.5741  0.7377
24379SOL     OW79994   7.238  12.419   5.666 -0.7473  0.4284  0.4891
24379SOL    HW179995   7.233  12.336   5.713  0.0739  0.9330  1.5046
24379SOL    HW279996   7.273  12.395   5.580  0.3083 -0.2016  1.0646
24380SOL     OW79997   1.398   4.504   7.833  0.0440 -0.0966 -0.2168
24380SOL    HW179998   1.392   4.599   7.841  1.1378 -0.1295  1.2444
24380SOL    HW279999   1.398   4.488   7.738 -0.1676  1.3422 -0.4773
24381SOL     OW80000   7.497   6.616   4.254  0.3261  0.1660 -0.2739
24381SOL    HW180001   7.493   6.588   4.345 -0.8735 -0.5839 -0.5362
24381SOL    HW280002   7.576   6.670   4.249  1.1636 -0.8985  0.8844
24382SOL     OW80003   3.465   8.565   6.310  0.0574  0.7317  0.0908
24382SOL    HW180004   3.394   8.507   6.282  0.7126 -0.8301  1.4676
24382SOL    HW280005   3.439   8.592   6.398 -0.9956  3.9121 -1.0357
24383SOL     OW80006   2.710   7.344   6.034 -0.6458  0.0566 -0.3792
24383SOL    HW180007   2.723   7.292   5.955  0.8569 -0.1773 -0.0096
24383SOL    HW280008   2.650   7.291   6.087 -0.9864 -0.1868 -0.9930
24384SOL     OW80009   1.863   4.454   2.563  0.4116 -0.0166  0.4575
24384SOL    HW180010   1.955   4.437   2.540  0.1348 -1.3546  0.2626
24384SOL    HW280011   1.852   4.548   2.546  1.0889 -0.2907 -1.9020
24385SOL     OW80012   9.932   6.040   8.228  0.2172 -0.4262 -0.0088
24385SOL    HW180013   9.862   6.063   8.289 -0.2637 -0.0616 -0.6879
24385SOL    HW280014   9.995   5.992   8.281 -0.2815 -0.2734  0.7345
24386SOL     OW80015   5.573   1.036   6.613 -0.0159 -0.3129 -0.8402
24386SOL    HW180016   5.572   1.004   6.523 -0.2123 -0.2101 -0.8729
24386SOL    HW280017   5.665   1.026   6.640  0.2896  0.7715 -1.4413
24387SOL     OW80018   8.547   8.334   1.904 -1.1981 -0.3635  0.3108
24387SOL    HW180019   8.489   8.260   1.890 -0.5366 -0.8911  0.3052
24387SOL    HW280020   8.492   8.411   1.891 -1.9685 -0.8479  0.6285
24388SOL     OW80021   9.317  10.565   6.937 -0.1299 -0.0138  0.6809
24388SOL    HW180022   9.328  10.505   6.863 -1.9073  0.9553 -0.4335
24388SOL    HW280023   9.377  10.637   6.918 -0.4335  0.1358  0.2518
24389SOL     OW80024   1.782  11.421   0.600  0.2906 -0.5096 -0.2397
24389SOL    HW180025   1.728  11.479   0.545  0.5225  0.5079  0.5670
24389SOL    HW280026   1.720  11.357   0.635  0.1576 -1.2452 -1.7354
24390SOL     OW80027  10.378   7.471  11.542 -0.1243  0.4624  0.1045
24390SOL    HW180028  10.323   7.400  11.510  1.4210 -0.1349 -1.3530
24390SOL    HW280029  10.330   7.551  11.518 -0.2640 -0.0393 -1.4019
24391SOL     OW80030   2.516  10.118   8.544 -0.2190  0.6773 -0.2903
24391SOL    HW180031   2.601  10.075   8.554 -0.0007  0.5239 -2.3649
24391SOL    HW280032   2.453  10.045   8.541 -0.2391  0.6991 -0.4000
24392SOL     OW80033   5.064   4.607  12.576  0.5879  0.3803  0.1244
24392SOL    HW180034   5.067   4.694  12.616  0.3407 -0.0120  1.0083
24392SOL    HW280035   5.025   4.551  12.642  0.7307 -0.4106 -0.4447
24393SOL     OW80036  11.874   6.769   0.882  0.5300 -0.3797  0.4560
24393SOL    HW180037  11.889   6.675   0.890  0.8525 -0.4672 -0.9672
24393SOL    HW280038  11.962   6.807   0.871  0.2466 -0.1798 -1.3091
24394SOL     OW80039  11.720  12.041   9.342  0.3145 -0.2912  0.0269
24394SOL    HW180040  11.729  12.078   9.430 -1.2937 -1.6023  0.7945
24394SOL    HW280041  11.715  12.118   9.284  0.2849  0.6193  1.2004
24395SOL     OW80042   1.914   3.859   1.698  0.2625 -0.4629 -0.1343
24395SOL    HW180043   1.848   3.902   1.643 -1.1517  0.2975  2.0314
24395SOL    HW280044   1.866   3.831   1.776  2.5113  0.3453  1.6586
24396SOL     OW80045  11.744   6.131   7.966  0.0184 -0.0358  0.0260
24396SOL    HW180046  11.825   6.180   7.960 -0.2231  0.2292 -1.3713
24396SOL    HW280047  11.696   6.152   7.886 -0.5971 -1.6451 -0.0824
24397SOL     OW80048   9.564   9.650   5.272  0.9182  0.0245 -0.9044
24397SOL    HW180049   9.484   9.696   5.245  0.8731 -0.3912 -1.5073
24397SOL    HW280050   9.535   9.564   5.299  1.2347 -0.4003 -1.8630
24398SOL     OW80051   8.864   3.379   1.171 -0.2912 -0.3632 -0.0677
24398SOL    HW180052   8.788   3.389   1.228  0.2802 -1.6807  0.9966
24398SOL    HW280053   8.865   3.285   1.150  0.7079 -0.2604 -0.5193
24399SOL     OW80054  11.410   1.800  11.682 -0.8523  0.0642  0.2793
24399SOL    HW180055  11.403   1.816  11.776  1.6024 -1.5654  0.8340
24399SOL    HW280056  11.495   1.836  11.658 -0.7227 -0.9739 -0.9499
24400SOL     OW80057   3.682   1.632   4.710  0.5002 -0.1922 -0.9740
24400SOL    HW180058   3.608   1.651   4.652  0.2558  1.5603 -0.1522
24400SOL    HW280059   3.743   1.583   4.655  0.6429  2.0640 -2.9903
24401SOL     OW80060  10.716   8.805   6.314  0.3491 -0.3678 -0.0445
24401SOL    HW180061  10.684   8.838   6.397  1.1656 -0.7848  0.4462
24401SOL    HW280062  10.743   8.883   6.266 -1.8149  0.0553 -0.6876
24402SOL     OW80063   0.485  12.304   3.959  0.5740 -0.7973  0.0685
24402SOL    HW180064   0.467  12.331   4.049 -1.9445 -0.7128 -0.4068
24402SOL    HW280065   0.501  12.209   3.965 -0.1292 -0.8913  0.5462
24403SOL     OW80066   3.602  10.771   2.274 -0.4751 -0.2323 -0.2155
24403SOL    HW180067   3.670  10.833   2.301  0.6057 -1.8716  1.0388
24403SOL    HW280068   3.527  10.826   2.252 -0.4145  1.4805  3.1610
24404SOL     OW80069   5.906   2.969   1.484  0.4172  0.8526  0.1364
24404SOL    HW180070   5.936   2.922   1.561  0.7554  0.5568 -0.1719
24404SOL    HW280071   5.899   2.902   1.416  0.1665  1.1162 -0.1006
24405SOL     OW80072   0.656   8.842   8.226 -0.1982  0.0559  0.5076
24405SOL    HW180073   0.709   8.797   8.293  1.0843  0.6759 -0.0468
24405SOL    HW280074   0.579   8.872   8.273 -0.8869 -2.2892  0.9975
24406SOL     OW80075   9.563   6.124   7.751  0.0945 -0.1356  0.2288
24406SOL    HW180076   9.651   6.132   7.712 -0.3759  1.4357 -0.5948
24406SOL    HW280077   9.564   6.185   7.825 -0.0344 -0.7708  0.7630
24407SOL     OW80078   2.686   3.459  11.095 -0.1895  0.2795 -0.1378
24407SOL    HW180079   2.777   3.483  11.110  1.3246 -4.4129 -0.3188
24407SOL    HW280080   2.647   3.457  11.182  0.0859  1.4440  0.0296
24408SOL     OW80081   0.933   9.511   6.994 -0.0147 -0.5166 -0.7314
24408SOL    HW180082   1.023   9.501   6.965  0.4302  1.1401 -0.0396
24408SOL    HW280083   0.887   9.550   6.919  0.1023 -0.3122 -0.6954
24409SOL     OW80084   6.252   5.845  10.819 -0.1998 -0.2985 -0.2036
24409SOL    HW180085   6.175   5.899  10.839  0.3329  1.0223 -1.5545
24409SOL    HW280086   6.218   5.756  10.815 -1.3510  0.0662  0.7770
24410SOL     OW80087   2.149   2.528   0.045  0.1444  0.0659  0.5755
24410SOL    HW180088   2.182   2.562  -0.038  0.7239  0.4373  0.9531
24410SOL    HW280089   2.094   2.453   0.020 -1.4274  1.4437 -0.2920
24411SOL     OW80090   8.047   0.013   3.530  0.9311  0.4159  0.2217
24411SOL    HW180091   8.025   0.071   3.603  2.0322 -0.7969  1.5855
24411SOL    HW280092   7.962  -0.015   3.496  0.2113 -1.6823  3.2962
24412SOL     OW80093   3.644   1.494   1.582 -0.4010  0.4718 -0.2428
24412SOL    HW180094   3.707   1.422   1.590 -0.0786  0.9687  3.2331
24412SOL    HW280095   3.698   1.570   1.561  0.0342  0.6015  1.2068
24413SOL     OW80096  12.322   4.928  11.097  0.3271  0.3326  0.2009
24413SOL    HW180097  12.327   5.011  11.050 -0.0993  0.3295  0.1465
24413SOL    HW280098  12.382   4.938  11.171  1.7033  0.0158 -0.8337
24414SOL     OW80099   7.826   6.294   6.262 -0.1432 -0.3085  0.2662
24414SOL    HW180100   7.849   6.261   6.176  1.3783 -2.5836  1.4551
24414SOL    HW280101   7.903   6.343   6.291 -0.8168  0.8346  0.2031
24415SOL     OW80102  11.320  10.044  11.280 -0.4584 -0.0547  0.1702
24415SOL    HW180103  11.337   9.951  11.298  0.5198  0.1814  0.4880
24415SOL    HW280104  11.385  10.091  11.331 -0.8506  0.8118 -0.1105
24416SOL     OW80105   4.138   6.159   8.310  0.0659 -0.4862  0.0157
24416SOL    HW180106   4.066   6.170   8.247  0.2449 -1.2136 -0.3282
24416SOL    HW280107   4.094   6.140   8.393 -0.2397  2.2023  0.5488
24417SOL     OW80108   5.778   4.048   5.278 -0.1267 -0.4371  0.2186
24417SOL    HW180109   5.756   3.972   5.225  2.4785 -1.6742  0.7610
24417SOL    HW280110   5.782   4.015   5.368  0.7444  0.3831  0.4997
24418SOL     OW80111  11.528   2.302   0.163 -0.4098 -0.1275 -0.5212
24418SOL    HW180112  11.583   2.317   0.087  1.1897  0.6451  0.7269
24418SOL    HW280113  11.523   2.207   0.171 -0.2620 -0.2064 -1.3343
24419SOL     OW80114   1.903   5.249   2.251 -0.5254  0.3251  0.3502
24419SOL    HW180115   1.821   5.272   2.294 -1.9466 -0.3454 -1.8513
24419SOL    HW280116   1.914   5.316   2.183 -2.1582 -2.4334 -2.9028
24420SOL     OW80117   7.870   9.202   2.672 -0.8247  0.0231  0.5720
24420SOL    HW180118   7.952   9.251   2.676 -0.6659 -0.1054 -0.7316
24420SOL    HW280119   7.809   9.261   2.627 -1.2306 -0.1793  0.8501
24421SOL     OW80120   5.259  10.782   9.442 -0.1201  0.7074 -0.2625
24421SOL    HW180121   5.343  10.828   9.448  1.3293 -1.5045 -1.8489
24421SOL    HW280122   5.218  10.819   9.364  0.0238  0.8161 -0.2877
24422SOL     OW80123   4.226  10.516  10.835  0.0176  0.0988  0.1571
24422SOL    HW180124   4.247  10.496  10.743 -3.1779 -0.0492 -0.6380
24422SOL    HW280125   4.234  10.611  10.841  1.0260  0.0417  0.0012
24423SOL     OW80126   5.236  12.471  11.396  0.3290 -0.2265 -0.0237
24423SOL    HW180127   5.173  12.430  11.336 -0.0079  0.3265 -0.0654
24423SOL    HW280128   5.295  12.401  11.422 -2.4998 -1.7559  3.0079
24424SOL     OW80129   4.051  10.565   5.827  0.1130  0.0339  0.0903
24424SOL    HW180130   4.091  10.509   5.761 -1.0690  0.2147 -0.8188
24424SOL    HW280131   4.042  10.650   5.784 -0.8388  0.1048  0.3961
24425SOL     OW80132  10.364   6.199   5.759 -0.0551 -0.1004  0.5261
24425SOL    HW180133  10.419   6.188   5.682 -0.2927 -1.7276  0.5660
24425SOL    HW280134  10.416   6.162   5.831 -1.3668 -2.1932  0.4765
24426SOL     OW80135   7.739   9.354   7.346  0.1703  0.2210  0.1247
24426SOL    HW180136   7.691   9.281   7.385  2.0485 -1.8620 -1.2111
24426SOL    HW280137   7.682   9.385   7.276 -0.8666  0.4124  1.0185
24427SOL     OW80138   9.164   3.261   9.712 -0.2794 -0.2215 -0.1123
24427SOL    HW180139   9.246   3.282   9.756  0.2362 -0.5428 -0.8947
24427SOL    HW280140   9.182   3.179   9.665 -0.3388  0.8640 -2.1141
24428SOL     OW80141   3.656   2.501   3.928 -0.6870  0.5065  0.2555
24428SOL    HW180142   3.601   2.444   3.981 -2.0585  1.3798 -0.1762
24428SOL    HW280143   3.658   2.459   3.842  1.8079 -1.0863  0.9832
24429SOL     OW80144   7.774   1.924  10.536 -0.4158  0.1087 -1.0006
24429SOL    HW180145   7.695   1.872  10.547 -0.5714  0.0370 -2.3466
24429SOL    HW280146   7.806   1.902  10.449  0.5951  0.8154 -0.8308
24430SOL     OW80147  10.045   1.528   6.832  0.0483 -0.2060  0.0807
24430SOL    HW180148  10.053   1.623   6.826  0.0402 -0.2428 -0.6424
24430SOL    HW280149   9.989   1.504   6.758  0.0910 -0.7772  0.2293
24431SOL     OW80150  12.285   3.768   0.162 -0.1043  0.1692 -0.4082
24431SOL    HW180151  12.255   3.752   0.072 -1.0069 -0.2526 -0.0408
24431SOL    HW280152  12.351   3.837   0.153  0.1214 -0.1651 -1.4401
24432SOL     OW80153   5.082   9.396   2.418  0.1192  0.1271  0.0767
24432SOL    HW180154   5.155   9.405   2.356  0.4592 -1.2286  0.2452
24432SOL    HW280155   5.033   9.478   2.409  0.2077  0.0041 -1.9065
24433SOL     OW80156  10.668   8.712  11.196  0.3599  0.3372  0.2943
24433SOL    HW180157  10.620   8.795  11.206 -0.8117 -0.4510  1.4749
24433SOL    HW280158  10.620   8.665  11.128  0.5077  0.2546  0.2457
24434SOL     OW80159   5.169  11.279  11.007  0.3238 -0.0186  0.3153
24434SOL    HW180160   5.100  11.331  10.965  0.4778 -0.4528 -0.5046
24434SOL    HW280161   5.143  11.273  11.099  0.0421  1.0771  0.3182
24435SOL     OW80162   0.323   7.346   8.662  0.1504  0.4824  0.3658
24435SOL    HW180163   0.393   7.281   8.674 -1.8842 -2.0598 -0.4327
24435SOL    HW280164   0.283   7.355   8.748 -0.6550 -0.7790  0.1585
24436SOL     OW80165   1.856   4.134   5.772 -0.2431 -1.2194 -1.1947
24436SOL    HW180166   1.904   4.148   5.854  0.2875 -1.3309 -1.4866
24436SOL    HW280167   1.843   4.222   5.736 -0.5002 -1.1673 -0.9854
24437SOL     OW80168   4.259  10.759   0.777  0.1149  0.3096  0.1623
24437SOL    HW180169   4.274  10.849   0.807  0.7896  0.3482 -0.2750
24437SOL    HW280170   4.345  10.730   0.746  0.2212 -0.9619  1.5280
24438SOL     OW80171   0.545   3.656   3.309  0.4241  0.5473 -0.2184
24438SOL    HW180172   0.576   3.655   3.219  2.3977  1.5159  0.3870
24438SOL    HW280173   0.557   3.747   3.337 -1.1165  0.5011  0.7421
24439SOL     OW80174   5.576  11.004   0.391  0.5405  0.5190 -0.2221
24439SOL    HW180175   5.649  11.065   0.401 -0.4056  1.7816 -0.7546
24439SOL    HW280176   5.552  11.012   0.298  0.3304 -0.6034 -0.2733
24440SOL     OW80177   2.146   7.794   8.584  0.7413  1.0742 -0.2588
24440SOL    HW180178   2.142   7.843   8.501  0.5164 -0.2130 -1.0309
24440SOL    HW280179   2.094   7.716   8.568  1.9362  0.0668  0.6129
24441SOL     OW80180  10.016   9.335   1.647  0.0408 -0.3447 -0.5257
24441SOL    HW180181  10.006   9.383   1.730  0.2971 -0.6914 -0.2946
24441SOL    HW280182   9.988   9.398   1.581 -5.5618 -1.6604  0.1067
24442SOL     OW80183   0.974  11.940   9.782 -0.0169  0.3948 -0.0404
24442SOL    HW180184   0.901  11.913   9.726 -0.6369  1.1551  0.3816
24442SOL    HW280185   1.001  11.859   9.826 -1.5069  0.3267  0.8158
24443SOL     OW80186  12.333   5.503   6.287 -0.3254 -0.2169 -0.2890
24443SOL    HW180187  12.388   5.448   6.345 -0.4413 -0.8927 -0.8034
24443SOL    HW280188  12.248   5.505   6.330 -0.4765 -0.9100 -0.5417
24444SOL     OW80189   5.302   9.581   2.358  0.7015 -0.6270 -0.4196
24444SOL    HW180190   5.391   9.549   2.340  1.2061  0.4680  0.0477
24444SOL    HW280191   5.315   9.655   2.416 -0.5833 -0.9431  0.2968
24445SOL     OW80192  10.062   4.351  11.142  0.1507  0.2051  0.3752
24445SOL    HW180193  10.102   4.424  11.188  0.0284  0.5180 -0.0127
24445SOL    HW280194  10.135   4.293  11.120  0.4686  1.0185 -0.7718
24446SOL     OW80195   4.813   7.011   6.241 -0.2278  0.4906 -0.2933
24446SOL    HW180196   4.872   6.939   6.261 -0.2503  0.7962  0.9939
24446SOL    HW280197   4.780   6.992   6.154  1.7597  0.3059 -1.0616
24447SOL     OW80198   3.655  12.033   4.498  0.0458  0.1598  0.3801
24447SOL    HW180199   3.580  12.003   4.550  0.7478 -0.6897  0.9401
24447SOL    HW280200   3.725  12.046   4.562  0.6590  0.0002 -0.2446
24448SOL     OW80201   8.729   6.416   9.278 -0.1591  0.1437 -0.1479
24448SOL    HW180202   8.646   6.465   9.277  0.3489  1.0337  0.4227
24448SOL    HW280203   8.702   6.325   9.265 -1.1739  0.4942 -0.6604
24449SOL     OW80204  11.806   1.056   0.009  0.5726  0.1983  0.3396
24449SOL    HW180205  11.726   1.092   0.048  0.0212  0.0477 -0.6086
24449SOL    HW280206  11.871   1.059   0.079 -0.9697 -2.1633  2.0180
24450SOL     OW80207   1.722   5.055   9.395  0.1195 -0.4449 -0.6625
24450SOL    HW180208   1.793   5.055   9.332 -0.2336  0.0566 -1.0748
24450SOL    HW280209   1.721   5.144   9.430  1.4528 -1.1571  1.3857
24451SOL     OW80210   7.562   5.363   9.412 -0.1745  0.0656 -0.8044
24451SOL    HW180211   7.532   5.304   9.342  1.0993 -1.2814 -0.2704
24451SOL    HW280212   7.648   5.330   9.436 -0.6665  0.3316  1.5810
24452SOL     OW80213   0.305   1.671   2.348 -0.0005 -1.3408  0.1798
24452SOL    HW180214   0.293   1.591   2.297  0.5685 -1.6160  0.4659
24452SOL    HW280215   0.399   1.689   2.343 -0.2042 -0.3656 -0.3578
24453SOL     OW80216   1.991   2.475   0.904 -0.1402 -0.4648  0.1602
24453SOL    HW180217   2.049   2.398   0.912  1.9177  0.6724 -2.4530
24453SOL    HW280218   1.922   2.447   0.845  0.6282 -0.3321 -0.8206
24454SOL     OW80219   1.549   3.848   1.377  0.1395 -0.5197 -0.0568
24454SOL    HW180220   1.486   3.782   1.406 -2.0246  1.1968 -0.4951
24454SOL    HW280221   1.546   3.844   1.282  3.0132 -2.3777 -0.1667
24455SOL     OW80222   9.208  12.484  11.257  0.3939  0.2536 -0.2116
24455SOL    HW180223   9.119  12.460  11.231  0.5667  1.0401 -1.6871
24455SOL    HW280224   9.262  12.461  11.181  1.3041  0.6261  0.3036
24456SOL     OW80225   9.107   8.338   6.383  0.1969 -0.2138  0.5359
24456SOL    HW180226   9.199   8.348   6.361 -0.0251  1.7101  0.3208
24456SOL    HW280227   9.061   8.398   6.324 -1.4812 -2.9542 -1.1204
24457SOL     OW80228   6.640   3.099  11.509  0.4779 -0.0220 -0.1685
24457SOL    HW180229   6.719   3.046  11.521  0.5124 -0.4116 -1.8943
24457SOL    HW280230   6.578   3.040  11.468 -0.5655  0.4311  0.7052
24458SOL     OW80231   6.742   5.862  11.441  0.5047 -0.0255  0.3151
24458SOL    HW180232   6.765   5.769  11.435  0.2564  0.0069 -2.2859
24458SOL    HW280233   6.804   5.905  11.382 -0.8605  1.1300 -0.3352
24459SOL     OW80234  10.608   7.678   6.281 -0.7027 -0.0415 -0.1634
24459SOL    HW180235  10.654   7.673   6.197 -0.1741  1.6512 -0.0068
24459SOL    HW280236  10.516   7.691   6.256 -0.4677  1.0771 -0.5097
24460SOL     OW80237   3.925   0.291  10.191  0.2116 -0.4976  0.1733
24460SOL    HW180238   3.927   0.239  10.110  0.8707 -1.1604  0.5990
24460SOL    HW280239   3.877   0.370  10.168 -0.9153 -1.3415 -0.4755
24461SOL     OW80240   8.906   5.721  12.518 -0.2345 -0.2667 -0.1961
24461SOL    HW180241   8.935   5.710  12.427  1.5873  0.5624  0.2245
24461SOL    HW280242   8.840   5.790  12.513 -0.6042 -0.6540 -0.9490
24462SOL     OW80243  11.504   8.934   1.181  1.0493  0.4665  0.4129
24462SOL    HW180244  11.457   9.002   1.131 -1.5489 -0.7543  1.0333
24462SOL    HW280245  11.584   8.978   1.211  0.2390  2.7677 -0.5278
24463SOL     OW80246   2.683   3.417   4.520  0.5609  0.0278 -0.2148
24463SOL    HW180247   2.680   3.513   4.513 -1.5187  0.1248  1.2207
24463SOL    HW280248   2.698   3.387   4.430  0.9473  1.6861 -0.7319
24464SOL     OW80249   9.347   6.057  10.550 -0.0937  0.0741  0.0346
24464SOL    HW180250   9.433   6.092  10.528 -0.2261  0.3839  0.0001
24464SOL    HW280251   9.290   6.134  10.552  0.0145  0.1715  1.9699
24465SOL     OW80252   8.258  10.688   0.501 -0.2256 -0.0809  0.4459
24465SOL    HW180253   8.309  10.622   0.455 -0.5133 -0.1171  0.1803
24465SOL    HW280254   8.167  10.669   0.478 -0.2680  0.7514 -0.0765
24466SOL     OW80255   6.016  12.192   8.068 -0.1969 -0.5462  0.3736
24466SOL    HW180256   6.053  12.126   8.126  0.7209 -0.4610 -0.0913
24466SOL    HW280257   5.922  12.188   8.083  0.1235  0.7878  3.2469
24467SOL     OW80258   5.171  11.070   2.698  0.1744 -0.0918 -0.2394
24467SOL    HW180259   5.206  11.157   2.716 -1.6332  1.3428 -2.9316
24467SOL    HW280260   5.247  11.012   2.703  1.6090  1.7664  0.7108
24468SOL     OW80261   8.739   6.656  11.979 -0.2272 -0.2333  0.1286
24468SOL    HW180262   8.667   6.696  11.931 -0.9790 -0.3384  1.1307
24468SOL    HW280263   8.733   6.693  12.067  0.0486 -1.3295  0.6292
24469SOL     OW80264   9.428   3.094  10.191  0.0469 -0.0720  0.6028
24469SOL    HW180265   9.395   3.067  10.105 -0.9148  0.9819  0.6258
24469SOL    HW280266   9.399   3.024  10.250  0.2794 -0.5463  0.1670
24470SOL     OW80267  12.030   7.722  10.682 -0.2131  0.1282 -0.4206
24470SOL    HW180268  12.034   7.714  10.586  0.0032 -0.9414 -0.3343
24470SOL    HW280269  11.936   7.716  10.702 -0.1222 -1.9771 -0.4131
24471SOL     OW80270   1.506   7.504   5.301  0.3776 -0.1308  0.2530
24471SOL    HW180271   1.441   7.560   5.259 -0.0895 -0.3241  0.7188
24471SOL    HW280272   1.551   7.562   5.362  0.9369  0.1070 -0.3710
24472SOL     OW80273   2.219   6.207   0.381  0.0476  0.2682  0.1200
24472SOL    HW180274   2.183   6.279   0.330  1.9045  2.5521  1.7950
24472SOL    HW280275   2.146   6.147   0.394 -1.5975  1.8679 -1.2908
24473SOL     OW80276   7.482   9.876  12.518 -0.2753 -0.1342  0.0242
24473SOL    HW180277   7.539   9.949  12.494 -0.9253  0.3785  0.0375
24473SOL    HW280278   7.525   9.799  12.480  0.3444  0.2684 -0.0998
24474SOL     OW80279   5.824   4.836  10.566  0.4127  0.6871 -0.2826
24474SOL    HW180280   5.758   4.778  10.603  0.7710 -0.4216 -1.3155
24474SOL    HW280281   5.908   4.797  10.591  0.6618  1.1015 -0.4563
24475SOL     OW80282   3.452   1.649   4.542  0.2722  0.5527 -0.8822
24475SOL    HW180283   3.372   1.658   4.594  2.0832 -1.6350  2.6453
24475SOL    HW280284   3.456   1.556   4.521  1.9737  0.5886 -0.8110
24476SOL     OW80285   5.203  11.629   1.038  0.8796 -0.5818  0.0842
24476SOL    HW180286   5.128  11.670   0.994  0.9913 -0.8884 -0.4058
24476SOL    HW280287   5.166  11.585   1.114  0.9410  1.6257  1.4794
24477SOL     OW80288   0.167  10.372   7.397 -0.0969 -0.4280  0.0027
24477SOL    HW180289   0.153  10.355   7.490 -0.4457  2.0449  0.4669
24477SOL    HW280290   0.226  10.447   7.395 -1.0109  0.2975 -1.7405
24478SOL     OW80291   9.085   2.563   2.722  0.4329 -0.1451  0.6884
24478SOL    HW180292   9.109   2.516   2.801  1.3105  0.3853  0.7583
24478SOL    HW280293   9.165   2.563   2.669 -0.1092 -0.3965 -0.1526
24479SOL     OW80294  11.447   1.431   4.603  0.1847  0.4088  0.1929
24479SOL    HW180295  11.533   1.461   4.632  0.6592  1.4578 -1.9925
24479SOL    HW280296  11.464   1.391   4.517 -1.3059 -0.8576  0.4517
24480SOL     OW80297   4.743   4.401   8.476 -0.3921 -0.3311 -0.2172
24480SOL    HW180298   4.763   4.445   8.394 -0.3340  0.3601  0.1555
24480SOL    HW280299   4.713   4.314   8.451 -0.3724 -0.1252 -0.9633
24481SOL     OW80300   3.434   9.839   9.807  0.2288 -0.0993  0.2302
24481SOL    HW180301   3.518   9.821   9.766  0.3296 -0.0519  0.4165
24481SOL    HW280302   3.427   9.775   9.877 -1.7528 -2.9498 -2.3311
24482SOL     OW80303   5.427   3.372   3.942 -0.1594 -0.3483 -0.4893
24482SOL    HW180304   5.457   3.328   3.862  0.1211 -1.0083 -0.0278
24482SOL    HW280305   5.416   3.302   4.005 -1.0623  0.0856 -0.1456
24483SOL     OW80306   1.786  11.531   9.078  0.1522  0.4554  0.1413
24483SOL    HW180307   1.846  11.473   9.125  0.8872 -0.2763 -1.6055
24483SOL    HW280308   1.834  11.613   9.069  0.8026 -0.0288 -0.9792
24484SOL     OW80309   6.941   6.929   2.984  0.0906 -0.8071  0.0674
24484SOL    HW180310   6.913   6.877   2.908  2.5029  0.3821 -1.7269
24484SOL    HW280311   6.978   7.008   2.947 -2.0987  1.6605  2.6849
24485SOL     OW80312   0.037   5.341   4.957  0.1255  0.3327  0.2007
24485SOL    HW180313   0.070   5.429   4.975 -1.6240  0.9561  0.5057
24485SOL    HW280314   0.055   5.292   5.038  1.7791  0.1634 -0.2360
24486SOL     OW80315  11.851   1.921  10.352  0.6465 -0.6049 -0.2159
24486SOL    HW180316  11.928   1.977  10.363  0.7436 -0.5631 -1.0110
24486SOL    HW280317  11.887   1.835  10.330  0.4634 -0.4009 -1.3553
24487SOL     OW80318   0.201   4.027  10.693  0.1180 -0.3796 -0.2532
24487SOL    HW180319   0.138   4.069  10.635  0.0133 -1.1197 -0.6793
24487SOL    HW280320   0.192   4.074  10.776  0.9440  1.3357 -1.0762
24488SOL     OW80321   5.195   9.898   7.757  0.3866  0.3631 -0.0071
24488SOL    HW180322   5.119   9.883   7.700 -0.7270  1.3514  1.1490
24488SOL    HW280323   5.191   9.991   7.778  1.3106  0.2016  0.9262
24489SOL     OW80324   8.461   1.755   4.491 -0.3604 -0.3495 -0.5839
24489SOL    HW180325   8.503   1.672   4.466 -0.6693 -0.4136 -0.8868
24489SOL    HW280326   8.479   1.763   4.585  1.2950  0.1684 -0.8976
24490SOL     OW80327   6.193   6.339   6.589  0.0991 -0.1017 -0.2438
24490SOL    HW180328   6.172   6.432   6.592  0.6911  0.0337 -0.0719
24490SOL    HW280329   6.112   6.297   6.559 -0.6163  0.3213  1.0284
24491SOL     OW80330   3.079   0.996   8.695  0.1914 -0.4690 -0.3474
24491SOL    HW180331   3.147   1.044   8.648  1.3093 -0.2252  1.4347
24491SOL    HW280332   3.126   0.939   8.755 -1.1711 -1.2121  0.0724
24492SOL     OW80333   4.404   2.671   3.094  0.0367 -0.4817 -0.1569
24492SOL    HW180334   4.461   2.747   3.108 -0.9818  0.5536 -1.3714
24492SOL    HW280335   4.316   2.708   3.091 -0.5595 -1.8359  0.0163
24493SOL     OW80336   9.421   2.114   8.862  0.7380  0.0044  0.4130
24493SOL    HW180337   9.458   2.040   8.815  2.0828  0.8728  0.0598
24493SOL    HW280338   9.373   2.164   8.795  0.4202 -0.1673  0.5099
24494SOL     OW80339   3.152   6.416   9.376 -0.4303  0.6258 -0.2011
24494SOL    HW180340   3.163   6.439   9.283 -1.2771 -0.1474 -0.5038
24494SOL    HW280341   3.117   6.327   9.375  2.5779 -0.7009  0.9290
24495SOL     OW80342   8.170   5.134   1.904  0.1131  0.1185 -0.9103
24495SOL    HW180343   8.179   5.040   1.885 -0.6334 -0.2667  0.5340
24495SOL    HW280344   8.239   5.175   1.852  1.9078 -1.4512  0.1211
24496SOL     OW80345   1.166   3.280   7.538 -0.9339 -0.7413  0.1581
24496SOL    HW180346   1.105   3.207   7.532 -0.5405 -1.0532 -0.1472
24496SOL    HW280347   1.113   3.354   7.569 -1.4015 -1.0730  0.1580
24497SOL     OW80348   0.178  10.596   9.984 -0.2516 -0.3392 -0.2275
24497SOL    HW180349   0.105  10.620   9.927  0.5349  1.6944 -0.4681
24497SOL    HW280350   0.200  10.507   9.958 -1.6206 -0.4193 -1.2489
24498SOL     OW80351   3.655   9.341   0.989 -0.3342 -0.4937 -0.7267
24498SOL    HW180352   3.611   9.424   1.008 -0.5516 -0.8486  0.3806
24498SOL    HW280353   3.629   9.283   1.061  0.3562 -1.3163 -1.1247
24499SOL     OW80354   7.221   4.495   6.754  0.2168 -0.4242  0.3612
24499SOL    HW180355   7.221   4.544   6.836  1.0848  0.1433  0.0426
24499SOL    HW280356   7.268   4.551   6.693 -1.5894 -0.2282 -0.9153
24500SOL     OW80357   6.641  10.630   3.826  0.2684 -0.5222 -0.3462
24500SOL    HW180358   6.726  10.672   3.816  1.0610 -2.1563 -0.7205
24500SOL    HW280359   6.650  10.546   3.782 -1.6257 -0.6351 -0.6035
24501SOL     OW80360   8.480   2.213   4.798  0.2797  0.0308 -0.2127
24501SOL    HW180361   8.541   2.140   4.806  0.1935 -0.0015  0.1512
24501SOL    HW280362   8.440   2.221   4.884 -1.8112 -1.3152 -0.9752
24502SOL     OW80363   3.529  10.906  12.027  0.9799  0.5987  0.1903
24502SOL    HW180364   3.473  10.943  11.959 -0.8371 -0.7986  0.8453
24502SOL    HW280365   3.603  10.867  11.979  2.3460  3.8378 -0.5862
24503SOL     OW80366   0.723   4.743   1.484 -0.2478 -0.0329  0.0085
24503SOL    HW180367   0.765   4.804   1.544  2.2494 -2.4196  0.9003
24503SOL    HW280368   0.634   4.734   1.518  0.2354  0.8758  1.6232
24504SOL     OW80369   2.454   5.509   6.754  0.0559 -0.3105  0.7002
24504SOL    HW180370   2.431   5.575   6.820 -0.5603 -0.9070  1.0872
24504SOL    HW280371   2.549   5.502   6.761  0.1386  0.5728  0.6176
24505SOL     OW80372   9.459   1.883   6.129  0.2303  0.1552 -0.0311
24505SOL    HW180373   9.451   1.788   6.114  1.1110 -0.0562  0.7662
24505SOL    HW280374   9.469   1.891   6.223  1.6257  0.9289 -0.2230
24506SOL     OW80375   9.370   2.093   6.005 -0.2164 -0.3140 -0.2049
24506SOL    HW180376   9.389   2.006   6.038  0.0419 -0.6256 -1.1545
24506SOL    HW280377   9.405   2.094   5.916  0.2711  0.9275 -0.0314
24507SOL     OW80378  10.942   3.691  11.005 -0.0917 -0.4246 -0.4480
24507SOL    HW180379  11.030   3.656  11.020 -0.2372 -1.8681 -2.4115
24507SOL    HW280380  10.885   3.633  11.055 -0.0106 -0.0067  0.1431
24508SOL     OW80381   1.723   8.087  11.480  0.3734  0.4106 -0.4405
24508SOL    HW180382   1.736   8.132  11.564 -0.4572  0.2436 -0.2175
24508SOL    HW280383   1.629   8.094  11.463  0.0937 -1.8899 -0.0395
24509SOL     OW80384  11.550   5.107  11.839  0.8463  0.2914 -0.1911
24509SOL    HW180385  11.575   5.017  11.817  0.3106  0.2737 -0.7556
24509SOL    HW280386  11.457   5.103  11.860  0.7009  0.7900 -0.7008
24510SOL     OW80387   5.192   8.637   7.035 -0.1486 -0.1508 -0.6807
24510SOL    HW180388   5.158   8.723   7.060 -0.0593 -0.0474 -0.9094
24510SOL    HW280389   5.187   8.636   6.940 -0.6889 -0.6250 -0.6522
24511SOL     OW80390   0.954   7.811   0.521 -0.1386  0.3516  0.1898
24511SOL    HW180391   0.926   7.889   0.567  1.7799  1.7828 -0.9249
24511SOL    HW280392   0.953   7.742   0.588 -1.2990  1.4406  1.3352
24512SOL     OW80393   5.271   5.451   8.010  0.1005  0.2380 -0.0703
24512SOL    HW180394   5.360   5.443   7.975  0.1266  0.0257  0.0412
24512SOL    HW280395   5.225   5.375   7.975 -0.2456  0.7434 -0.7270
24513SOL     OW80396   8.526  12.193   6.674  0.3434  0.4232 -0.3919
24513SOL    HW180397   8.447  12.215   6.723  0.4007  2.0906 -0.9815
24513SOL    HW280398   8.494  12.145   6.597  0.0239  0.0667 -0.0433
24514SOL     OW80399   7.057   0.840  12.154  0.3534 -0.4062  0.1221
24514SOL    HW180400   7.049   0.915  12.213 -0.2181 -1.7656  1.8515
24514SOL    HW280401   6.966   0.819  12.130  0.5469 -0.2005 -0.8245
24515SOL     OW80402  12.004   3.506   2.481 -0.2131 -0.2443 -0.3868
24515SOL    HW180403  11.997   3.465   2.395  1.9688 -0.0387 -0.7254
24515SOL    HW280404  12.048   3.440   2.536  2.4462  1.1262 -0.6813
24516SOL     OW80405  10.050   9.062   1.631  0.4782 -0.2731  0.1017
24516SOL    HW180406  10.063   9.152   1.659  0.5375  0.1682 -1.2653
24516SOL    HW280407  10.096   9.056   1.547 -0.1468 -1.3588 -0.1845
24517SOL     OW80408   8.763   5.709  11.977 -0.1350 -0.3758  0.8538
24517SOL    HW180409   8.804   5.629  11.943 -0.9163 -1.1225  1.6236
24517SOL    HW280410   8.732   5.685  12.064 -0.9501  0.5811  0.8457
24518SOL     OW80411   7.284   0.424   1.646 -0.3648 -0.6860 -0.4655
24518SOL    HW180412   7.345   0.367   1.692 -0.6492 -0.8083 -0.2308
24518SOL    HW280413   7.238   0.365   1.586 -0.6089 -0.6931 -0.2739
24519SOL     OW80414   5.726  10.667   3.234  0.3302 -0.9181  0.3334
24519SOL    HW180415   5.797  10.631   3.286 -0.0676 -2.1506  0.0469
24519SOL    HW280416   5.676  10.722   3.295  0.0333 -2.1128  1.2036
24520SOL     OW80417   9.088   9.857   6.237  0.4474 -0.0660  0.3781
24520SOL    HW180418   9.071   9.844   6.330 -0.1907 -0.2848  0.2316
24520SOL    HW280419   9.175   9.897   6.235  0.3982  0.0961  1.0722
24521SOL     OW80420   9.299  10.292   9.304  0.6982  0.7217  0.2170
24521SOL    HW180421   9.345  10.342   9.371  0.8529 -0.1323  0.7579
24521SOL    HW280422   9.245  10.357   9.259  1.2597  1.4576  0.5830
24522SOL     OW80423  12.149   4.886   5.586 -0.2588 -0.3978 -0.0610
24522SOL    HW180424  12.223   4.931   5.546  2.5040 -2.8716  1.8522
24522SOL    HW280425  12.154   4.908   5.679  0.8576 -3.9014  0.8572
24523SOL     OW80426   9.960   1.877   2.880 -0.4008  0.0754  0.1292
24523SOL    HW180427   9.878   1.926   2.880 -0.2993  0.2695  1.1499
24523SOL    HW280428   9.967   1.842   2.969  0.2890 -0.5050 -0.1462
24524SOL     OW80429   2.494   4.071   5.287  0.0834 -0.4302 -0.2635
24524SOL    HW180430   2.421   4.018   5.321 -0.6814 -1.7338 -3.5511
24524SOL    HW280431   2.534   4.109   5.365 -2.8823 -1.2539  1.8520
24525SOL     OW80432   9.945   0.877   2.231  0.1349 -0.4204  0.4873
24525SOL    HW180433   9.969   0.793   2.192 -0.0590 -0.3548  0.2257
24525SOL    HW280434  10.006   0.940   2.190 -0.3069 -0.2933  0.0098
24526SOL     OW80435   1.012   5.693   9.299 -0.1675  0.2512  0.0791
24526SOL    HW180436   1.052   5.748   9.366  2.2265 -0.8777 -0.3328
24526SOL    HW280437   1.068   5.704   9.222 -0.6081 -1.4654 -0.5256
24527SOL     OW80438   7.944   2.077   8.569  0.4684  0.1434  0.5330
24527SOL    HW180439   7.893   2.139   8.516 -2.9836 -3.2014 -0.5674
24527SOL    HW280440   7.929   2.104   8.659 -1.0511  0.8747  0.0953
24528SOL     OW80441   0.518   2.472   6.078  0.3560 -0.3401  0.1960
24528SOL    HW180442   0.448   2.436   6.024  0.8129 -0.4988 -0.2972
24528SOL    HW280443   0.584   2.402   6.083 -0.1392 -0.7372  1.8456
24529SOL     OW80444   1.433   0.333  12.256 -0.3624  0.0119 -0.0187
24529SOL    HW180445   1.455   0.422  12.230  0.9670 -0.1034  0.6352
24529SOL    HW280446   1.466   0.278  12.185  0.1063 -0.0532  0.2457
24530SOL     OW80447  12.219   6.333   8.591 -0.1873  0.1336  0.1902
24530SOL    HW180448  12.244   6.241   8.598  2.1403  0.6870 -0.0876
24530SOL    HW280449  12.184   6.342   8.503 -0.4991 -0.4854  0.2459
24531SOL     OW80450   1.729   5.219   5.810 -0.4410  0.7066  0.2267
24531SOL    HW180451   1.791   5.188   5.744  0.8535  0.5896  1.4484
24531SOL    HW280452   1.651   5.243   5.760  0.5771  0.8566 -1.3661
24532SOL     OW80453   0.446   5.817   7.237  0.1127 -0.2889 -0.1916
24532SOL    HW180454   0.494   5.900   7.249 -0.1749  0.2772 -2.4617
24532SOL    HW280455   0.398   5.829   7.155 -1.3582 -2.0729  0.3474
24533SOL     OW80456   3.207   3.575   1.328 -0.1069  0.6539 -0.0429
24533SOL    HW180457   3.286   3.561   1.380  0.9533  0.3056 -1.6619
24533SOL    HW280458   3.239   3.607   1.244 -1.5524 -0.9327 -1.2859
24534SOL     OW80459   2.801   5.008  11.866  0.0759  0.9158 -0.2460
24534SOL    HW180460   2.862   4.985  11.936  0.5676  1.3948 -0.5124
24534SOL    HW280461   2.778   5.099  11.882  0.3821  1.1069 -0.8367
24535SOL     OW80462   0.219  10.668   3.099 -0.1331  0.5482 -0.4340
24535SOL    HW180463   0.254  10.731   3.162 -2.0358  0.4697  0.8016
24535SOL    HW280464   0.198  10.591   3.152 -2.3498  0.6910 -0.9855
24536SOL     OW80465   2.782   1.105   7.033 -0.0769  0.4918 -0.0862
24536SOL    HW180466   2.818   1.063   6.955  1.1459  0.1921  0.6097
24536SOL    HW280467   2.845   1.174   7.055 -1.2573  1.6771 -0.3029
24537SOL     OW80468   3.778   8.943   9.449  0.5744 -0.3763 -0.2755
24537SOL    HW180469   3.728   8.877   9.402  0.2225 -0.6833  0.5199
24537SOL    HW280470   3.759   9.025   9.402  0.4478 -0.7160 -0.8254
24538SOL     OW80471   3.493   8.441   7.595 -0.3411 -0.3168 -0.7773
24538SOL    HW180472   3.417   8.388   7.621 -0.1745  0.2268  0.9813
24538SOL    HW280473   3.479   8.525   7.638  0.9394  0.0013 -0.9470
24539SOL     OW80474  11.551   1.519   8.227  0.2363 -0.0351  0.4454
24539SOL    HW180475  11.516   1.561   8.305 -0.0340 -1.1138  0.9269
24539SOL    HW280476  11.549   1.587   8.160  1.2200  1.1455  1.5615
24540SOL     OW80477   2.184   3.583  11.874 -0.6901  0.3230 -0.4172
24540SOL    HW180478   2.201   3.539  11.791 -2.3849 -0.2478 -0.5115
24540SOL    HW280479   2.189   3.676  11.853 -1.4508  0.1904 -1.2744
24541SOL     OW80480   4.345   6.639   4.369  0.1319  0.3371  0.1072
24541SOL    HW180481   4.346   6.562   4.312  0.2759  1.3178 -1.2582
24541SOL    HW280482   4.432   6.641   4.409  0.8401  0.8684 -1.3908
24542SOL     OW80483  10.824  11.968   0.595  0.3835 -0.1013 -0.3448
24542SOL    HW180484  10.846  11.904   0.663 -0.6945 -0.6978 -0.5434
24542SOL    HW280485  10.771  11.920   0.532 -0.3999  0.9727 -0.5297
24543SOL     OW80486   4.323   1.173   7.689 -0.6650  0.5036 -0.0111
24543SOL    HW180487   4.410   1.171   7.729 -0.7831  0.5893  0.2528
24543SOL    HW280488   4.276   1.243   7.735 -1.1219 -0.0426  0.3754
24544SOL     OW80489  12.554   2.742  11.324  0.3311 -0.9311 -0.5242
24544SOL    HW180490  12.607   2.673  11.363 -0.5905 -0.0935  2.4808
24544SOL    HW280491  12.617   2.797  11.278  1.6886 -1.4286  0.6661
24545SOL     OW80492   4.694   5.906   4.933 -0.5576  0.3780  0.1776
24545SOL    HW180493   4.670   5.998   4.923 -0.1503  0.7450  2.0623
24545SOL    HW280494   4.767   5.907   4.995 -1.1334 -1.2549  0.9498
24546SOL     OW80495   1.745   7.714   3.883 -0.2397  0.4917 -0.4980
24546SOL    HW180496   1.695   7.643   3.923 -0.0042  0.5077 -0.1726
24546SOL    HW280497   1.716   7.793   3.929  0.8297  0.3795  0.4361
24547SOL     OW80498   6.785   8.995  11.348  0.3902 -0.2803 -0.1638
24547SOL    HW180499   6.866   8.972  11.394 -0.8371 -2.7432  0.9428
24547SOL    HW280500   6.780   8.933  11.276 -0.8174 -0.6356  0.1971
24548SOL     OW80501   0.309   1.855  12.188 -0.0658  0.0678  0.2277
24548SOL    HW180502   0.214   1.855  12.196 -0.0057  0.6323  0.9751
24548SOL    HW280503   0.327   1.912  12.113 -0.2901  0.3149  0.3630
24549SOL     OW80504   2.871   6.148  12.116 -0.1731 -0.5151 -0.0640
24549SOL    HW180505   2.852   6.061  12.080 -2.7399  0.4211 -1.2094
24549SOL    HW280506   2.832   6.146  12.204  0.8148 -0.8713  0.3792
24550SOL     OW80507   9.429  10.288   9.677  0.0474 -0.5691 -0.0685
24550SOL    HW180508   9.492  10.268   9.607 -0.6310 -1.2225 -0.5067
24550SOL    HW280509   9.385  10.205   9.694  1.8676 -1.0861  2.8826
24551SOL     OW80510   2.857   9.267   9.003  0.5840 -0.2422  0.2907
24551SOL    HW180511   2.872   9.209   9.077 -0.1554 -1.4546 -0.4669
24551SOL    HW280512   2.924   9.335   9.011  1.4427 -1.1716  1.2320
24552SOL     OW80513   0.721   3.354  12.067 -0.0344  0.0941  0.3990
24552SOL    HW180514   0.788   3.322  12.006 -1.5213  1.3709 -2.0574
24552SOL    HW280515   0.649   3.291  12.059 -0.1024  0.0533  1.1989
24553SOL     OW80516   4.481  10.040   5.543 -0.0190  0.4723 -0.4635
24553SOL    HW180517   4.464   9.993   5.624  2.1316 -0.0672 -0.2758
24553SOL    HW280518   4.520  10.123   5.571  0.1208  0.5622 -0.9190
24554SOL     OW80519   4.233   2.184   3.292 -0.3736 -0.3653 -0.1524
24554SOL    HW180520   4.296   2.130   3.244 -0.4368 -0.5799  0.0070
24554SOL    HW280521   4.226   2.143   3.378 -0.2774  0.0073  0.0363
24555SOL     OW80522   3.551   7.208  10.602  0.0447  0.3212 -0.0941
24555SOL    HW180523   3.471   7.219  10.552  0.6773 -0.0665 -1.2351
24555SOL    HW280524   3.556   7.114  10.620  1.2978 -0.0135 -1.9207
24556SOL     OW80525   4.337   7.957   3.061  0.1564  0.0459 -0.1778
24556SOL    HW180526   4.325   7.881   3.119  0.5327  0.6306  0.6880
24556SOL    HW280527   4.297   7.930   2.979 -1.1361 -0.5038  0.5899
24557SOL     OW80528   8.973   9.346   3.648  0.0660  0.1690  0.1938
24557SOL    HW180529   8.941   9.259   3.623  0.6268 -0.7586  2.4797
24557SOL    HW280530   9.034   9.370   3.578  0.1529 -1.4241 -0.3073
24558SOL     OW80531   1.441   2.032  10.150  0.1804 -0.1144  0.6447
24558SOL    HW180532   1.411   1.959  10.204  1.5130 -1.3050 -0.1626
24558SOL    HW280533   1.410   2.012  10.062  1.4450 -0.2881  0.2095
24559SOL     OW80534   8.366  10.248  10.293  0.1147 -0.6528 -0.0905
24559SOL    HW180535   8.415  10.195  10.230 -1.3066 -1.8704 -0.2271
24559SOL    HW280536   8.387  10.209  10.378 -1.1992 -1.7349 -0.2196
24560SOL     OW80537   9.173   6.134  12.162 -0.2885  0.1020 -0.7977
24560SOL    HW180538   9.216   6.099  12.084  0.6959  0.1147 -0.2783
24560SOL    HW280539   9.222   6.097  12.235 -1.4050 -0.1681 -0.1642
24561SOL     OW80540   1.335   9.219   6.242  0.6325 -0.0686 -0.4073
24561SOL    HW180541   1.271   9.277   6.283 -0.3130 -3.1831  3.1795
24561SOL    HW280542   1.416   9.269   6.241 -0.6409  2.1406  0.0647
24562SOL     OW80543   7.936   5.859  12.244 -0.0069 -0.2717 -0.5873
24562SOL    HW180544   7.915   5.843  12.337 -0.8431  1.1818 -0.4879
24562SOL    HW280545   7.928   5.773  12.203 -2.0400 -0.5664  0.2703
24563SOL     OW80546   1.067  10.366   3.296 -0.3662  0.0585 -0.3034
24563SOL    HW180547   1.110  10.289   3.259 -1.2330 -1.2314  1.2830
24563SOL    HW280548   1.136  10.432   3.302  0.8996 -1.2804  0.2537
24564SOL     OW80549   3.160  10.911   5.087 -0.0922 -0.2456  0.7565
24564SOL    HW180550   3.217  10.942   5.016 -0.1628 -0.9943  0.3690
24564SOL    HW280551   3.092  10.978   5.093 -1.2030 -1.1385 -1.2209
24565SOL     OW80552  12.162   5.873   3.981 -0.3603 -0.0139 -0.0969
24565SOL    HW180553  12.107   5.948   4.005 -1.2443 -1.0348  1.1903
24565SOL    HW280554  12.192   5.838   4.065  1.4896 -0.0723 -0.7496
24566SOL     OW80555  11.924  11.968   1.872 -0.2371 -0.1220  0.4830
24566SOL    HW180556  11.830  11.951   1.877 -0.4736  1.2270  1.0972
24566SOL    HW280557  11.951  11.929   1.789 -1.5799  0.5226 -0.2928
24567SOL     OW80558   5.488   3.768   0.105 -0.0597 -1.2232 -0.2200
24567SOL    HW180559   5.482   3.682   0.145 -0.1118 -0.4221  1.5901
24567SOL    HW280560   5.579   3.795   0.119 -0.6130 -0.0342  1.4046
24568SOL     OW80561  11.644  11.843   1.476 -0.2843 -0.1734 -0.0323
24568SOL    HW180562  11.601  11.827   1.393  0.2200  1.6200 -0.7036
24568SOL    HW280563  11.573  11.866   1.536 -0.5917 -0.8253 -0.1471
24569SOL     OW80564   8.200   8.938   3.935  0.2109  0.4534  0.1631
24569SOL    HW180565   8.245   9.022   3.922  1.7813 -0.1325  1.5755
24569SOL    HW280566   8.228   8.884   3.861 -1.4037  1.3309 -1.1891
24570SOL     OW80567  11.370   9.476   7.663  0.1926  0.5176 -0.1066
24570SOL    HW180568  11.381   9.473   7.758 -0.6575 -1.1582 -0.0204
24570SOL    HW280569  11.304   9.409   7.645  0.5707  0.5932 -1.9070
24571SOL     OW80570   1.405   6.080   0.181 -0.2093  0.4259 -0.2393
24571SOL    HW180571   1.456   6.029   0.119  0.3739 -0.4997  0.9627
24571SOL    HW280572   1.317   6.042   0.177  0.7205 -2.3931  2.3136
24572SOL     OW80573   0.271   7.938   4.303 -0.0425 -0.0731  0.4487
24572SOL    HW180574   0.234   8.026   4.307  0.4784  0.1714  0.0674
24572SOL    HW280575   0.289   7.915   4.394  0.3635  0.4561  0.5062
24573SOL     OW80576   5.730   9.690  11.706 -0.5613 -0.3323  0.4600
24573SOL    HW180577   5.703   9.598  11.699  0.2841 -0.5477 -0.2679
24573SOL    HW280578   5.748   9.716  11.615 -0.3867  0.4231  0.7075
24574SOL     OW80579   2.274   8.814   2.151  0.6655 -0.1512 -0.0516
24574SOL    HW180580   2.281   8.890   2.094 -1.8226  0.3599  0.1829
24574SOL    HW280581   2.279   8.739   2.093 -0.0458  0.3148 -0.7344
24575SOL     OW80582   3.391   1.284   3.591  0.0201 -0.0009 -0.1451
24575SOL    HW180583   3.351   1.370   3.589  0.1194  0.0649  0.4574
24575SOL    HW280584   3.325   1.227   3.630 -0.6698 -0.5494 -2.0317
24576SOL     OW80585   7.461   4.318   9.308  0.4640  0.1456 -0.6519
24576SOL    HW180586   7.439   4.298   9.217 -0.4311 -1.3058 -0.1459
24576SOL    HW280587   7.420   4.404   9.324 -1.0339 -0.4614 -1.0691
24577SOL     OW80588   4.576   0.870   3.166 -0.0406  0.1086 -0.0730
24577SOL    HW180589   4.593   0.953   3.121 -2.0795  0.7954  0.3047
24577SOL    HW280590   4.573   0.892   3.259  1.9537 -0.9021  0.2795
24578SOL     OW80591   1.345   2.916   2.471  0.4127 -0.5567 -0.0733
24578SOL    HW180592   1.439   2.900   2.484  0.4038 -0.1620  0.5090
24578SOL    HW280593   1.337   3.011   2.470  0.1425 -0.5735 -1.1131
24579SOL     OW80594   2.093   8.614  11.291  0.1095  0.8579 -0.2337
24579SOL    HW180595   2.144   8.650  11.218  0.5110  0.6592 -0.0558
24579SOL    HW280596   2.078   8.523  11.267  0.1194  0.8304 -0.1380
24580SOL     OW80597   6.545   5.460   1.009  0.1694  0.3048 -0.0680
24580SOL    HW180598   6.619   5.469   0.949  0.1219  0.5039 -0.0970
24580SOL    HW280599   6.551   5.537   1.066  0.6316 -0.2391  0.6387
24581SOL     OW80600   9.198   3.952   6.314 -0.2228  0.2844 -0.1772
24581SOL    HW180601   9.128   4.003   6.273  0.3467  1.4298  0.2485
24581SOL    HW280602   9.202   3.983   6.404  0.4039 -0.2199 -0.0216
24582SOL     OW80603   5.690   0.977   9.225 -0.0247 -0.0862  0.0484
24582SOL    HW180604   5.753   0.922   9.272  0.9991  1.1359  0.1581
24582SOL    HW280605   5.720   0.975   9.134 -1.2058 -1.3489 -0.3420
24583SOL     OW80606  12.365   7.494   6.111  0.5349  0.2082 -0.1946
24583SOL    HW180607  12.406   7.537   6.185  1.4100  0.2466 -0.6925
24583SOL    HW280608  12.433   7.489   6.044 -0.1173 -0.1903 -0.8546
24584SOL     OW80609   6.981   6.165   3.016 -0.0135  0.0789  0.4662
24584SOL    HW180610   6.990   6.163   2.921 -1.5228 -3.5417  0.2096
24584SOL    HW280611   6.908   6.225   3.033  1.9585  2.8777 -0.2885
24585SOL     OW80612   8.641   6.225   7.100  0.3793 -0.1920  0.0653
24585SOL    HW180613   8.607   6.308   7.135 -0.5287 -1.3348  2.0512
24585SOL    HW280614   8.735   6.231   7.115  0.0928 -0.4208  2.4576
24586SOL     OW80615   0.454   8.825   7.327  0.0414 -0.3131 -0.3733
24586SOL    HW180616   0.533   8.776   7.352 -0.3098 -1.2620 -1.0692
24586SOL    HW280617   0.464   8.841   7.233  1.3902  3.2990  0.2396
24587SOL     OW80618   5.096   3.084   1.096 -0.1441 -0.3037  0.5245
24587SOL    HW180619   5.093   2.990   1.114 -1.0677 -0.5891 -0.9572
24587SOL    HW280620   5.010   3.105   1.060  0.5773  0.7788 -0.6747
24588SOL     OW80621   1.225   1.513  11.897 -0.3489 -0.2924 -0.1342
24588SOL    HW180622   1.285   1.533  11.825  1.0226 -1.8213  0.5294
24588SOL    HW280623   1.170   1.591  11.905  0.5706  0.5608 -1.7377
24589SOL     OW80624   9.561   3.844   8.756  0.1671 -0.4935  0.2906
24589SOL    HW180625   9.549   3.862   8.663  1.3225 -1.4073 -0.0531
24589SOL    HW280626   9.478   3.806   8.784  0.2685 -1.5100 -0.7118
24590SOL     OW80627   7.014   8.282   7.012 -0.2991 -0.2281  0.0926
24590SOL    HW180628   7.092   8.303   7.063  0.1333 -2.0334  0.2728
24590SOL    HW280629   7.048   8.257   6.926 -0.8163  0.4758 -0.3183
24591SOL     OW80630   9.456   3.198   0.939 -0.1270 -0.8073  0.4415
24591SOL    HW180631   9.462   3.103   0.947 -0.4158 -0.8375  0.2970
24591SOL    HW280632   9.411   3.212   0.856  2.8365 -0.5020 -1.2652
24592SOL     OW80633   2.199  12.147   6.760 -0.9543 -0.7653  0.2952
24592SOL    HW180634   2.111  12.184   6.770  0.0816  1.9275  0.3199
24592SOL    HW280635   2.254  12.199   6.820  1.2162 -0.0827 -2.1101
24593SOL     OW80636   1.937   3.884   8.867  0.2971  0.0013  0.1196
24593SOL    HW180637   1.957   3.878   8.773  1.8778 -1.1261  0.4767
24593SOL    HW280638   1.844   3.860   8.873  0.5062 -1.2669 -1.0460
24594SOL     OW80639   7.909   3.667   6.483 -0.1757  0.5120 -0.3255
24594SOL    HW180640   7.956   3.598   6.436 -0.9406  0.6729 -1.3699
24594SOL    HW280641   7.978   3.724   6.516  0.4130  1.3300 -2.7461
24595SOL     OW80642   6.038   1.954   9.681 -0.2367 -0.5685  0.5258
24595SOL    HW180643   6.084   1.983   9.602 -1.7683  0.7551  0.0530
24595SOL    HW280644   6.035   2.032   9.736 -0.7879 -0.9801  1.0931
24596SOL     OW80645   7.058   2.778   8.033  0.5939  0.2095  0.2877
24596SOL    HW180646   7.076   2.840   7.963  2.5658  0.0926  0.6395
24596SOL    HW280647   7.005   2.710   7.992 -0.3082  1.3305 -0.4721
24597SOL     OW80648   0.572   5.954   5.239 -0.1066  0.3801  0.0252
24597SOL    HW180649   0.479   5.963   5.258 -0.0585  1.2416 -0.1064
24597SOL    HW280650   0.604   6.044   5.229  0.4073  0.0631 -1.5513
24598SOL     OW80651   5.873   2.298  11.390  0.1024  0.0842  0.2724
24598SOL    HW180652   5.801   2.278  11.331  1.4749  0.1472 -1.5321
24598SOL    HW280653   5.832   2.330  11.470 -1.8226  0.9987 -1.0339
24599SOL     OW80654   2.397   4.400   1.416 -0.0064 -0.0021 -0.0544
24599SOL    HW180655   2.477   4.391   1.468  0.3837  0.0926 -0.6234
24599SOL    HW280656   2.361   4.485   1.441  1.5142  1.2108 -1.7021
24600SOL     OW80657   5.315   8.148   7.818 -0.3343  0.4570 -0.7654
24600SOL    HW180658   5.231   8.116   7.850 -0.1913 -0.6807 -1.4711
24600SOL    HW280659   5.297   8.177   7.729 -0.1646  1.0521 -0.6076
24601SOL     OW80660   9.814   8.633   8.329  0.4943 -0.0664 -0.4768
24601SOL    HW180661   9.844   8.646   8.419 -1.0295  0.0514  0.0405
24601SOL    HW280662   9.746   8.565   8.336  1.5912 -1.3695 -1.8042
24602SOL     OW80663   1.769   9.238   0.231 -0.0855 -0.4811  0.0228
24602SOL    HW180664   1.708   9.193   0.288  0.1992 -3.8925 -2.1015
24602SOL    HW280665   1.725   9.320   0.209 -2.9476 -1.8381  0.2808
24603SOL     OW80666   4.737   2.289   3.449 -0.0339 -0.2668 -0.1381
24603SOL    HW180667   4.747   2.214   3.390  0.6208  0.0551 -0.4394
24603SOL    HW280668   4.642   2.303   3.453 -0.2533 -1.7077  0.6835
24604SOL     OW80669   7.504   7.454   8.027 -0.5580 -0.0497 -0.3391
24604SOL    HW180670   7.479   7.546   8.031 -0.4283  0.0446 -1.4096
24604SOL    HW280671   7.599   7.454   8.039 -0.7342 -0.1934  1.2241
24605SOL     OW80672   1.790   6.912   2.591  0.0444  0.0606  0.0126
24605SOL    HW180673   1.861   6.862   2.550  0.7812  0.6332  0.5695
24605SOL    HW280674   1.812   7.004   2.574 -0.0715  0.2752  0.9797
24606SOL     OW80675   5.199   0.662  12.082 -0.2949 -0.1146 -0.0094
24606SOL    HW180676   5.260   0.735  12.083 -0.0063 -0.3536  0.1043
24606SOL    HW280677   5.113   0.702  12.082 -0.1573  0.2243  1.7602
24607SOL     OW80678   7.845   6.081   9.828  0.1950  0.5182 -0.0432
24607SOL    HW180679   7.913   6.145   9.848  1.1776  0.0315 -1.6206
24607SOL    HW280680   7.890   5.997   9.824 -0.8473 -0.1017  0.6890
24608SOL     OW80681   7.826   9.066   6.677 -0.5329 -0.2871 -0.3738
24608SOL    HW180682   7.832   9.161   6.680 -2.3611 -0.1306  0.3030
24608SOL    HW280683   7.907   9.037   6.635  0.7158  1.4679  0.6911
24609SOL     OW80684   0.726   6.213   0.065  0.0233 -0.3529 -0.0705
24609SOL    HW180685   0.673   6.141   0.098 -0.7411  0.8082  1.3886
24609SOL    HW280686   0.781   6.238   0.140  1.1029 -0.1639 -0.9083
24610SOL     OW80687   1.939  11.954   4.947  0.0452  0.3695  0.0443
24610SOL    HW180688   1.861  11.985   4.992 -1.0049 -1.4734 -0.3970
24610SOL    HW280689   1.924  11.975   4.855  0.4312  0.6755  0.0462
24611SOL     OW80690  11.902  10.779   2.538  0.0059  0.6527 -0.2225
24611SOL    HW180691  11.818  10.781   2.492 -0.4359 -0.8920  0.4362
24611SOL    HW280692  11.890  10.840   2.611  0.2151  2.0178 -1.2755
24612SOL     OW80693   6.565   1.618   0.229  0.2424 -0.1234  0.0221
24612SOL    HW180694   6.512   1.570   0.292 -0.2716  0.0980 -0.2367
24612SOL    HW280695   6.583   1.555   0.159 -0.9879  0.2302 -0.6391
24613SOL     OW80696   4.533   8.943   8.437  0.2437 -0.0591  0.3412
24613SOL    HW180697   4.623   8.914   8.423  0.8946  1.5923  0.9142
24613SOL    HW280698   4.517   9.006   8.367 -0.9998 -1.3941 -0.6309
24614SOL     OW80699   8.322  10.404   4.247 -0.2553  0.3578  0.0361
24614SOL    HW180700   8.414  10.433   4.250 -0.0140 -0.3154 -0.5608
24614SOL    HW280701   8.273  10.477   4.284  0.4075  1.2193 -0.7291
24615SOL     OW80702   4.378   0.364   8.664 -1.3102 -0.3931  0.0905
24615SOL    HW180703   4.445   0.305   8.698  0.7664  1.0777 -1.1604
24615SOL    HW280704   4.408   0.451   8.690 -2.7575  0.3247 -0.5079
24616SOL     OW80705   3.180   3.146   5.247  0.3100  0.8575 -0.2675
24616SOL    HW180706   3.124   3.195   5.187 -0.5794  0.6602  0.3790
24616SOL    HW280707   3.206   3.210   5.314 -2.2416  0.1791  1.5500
24617SOL     OW80708   4.379  12.321   9.160  0.1361  0.4449 -0.4818
24617SOL    HW180709   4.321  12.356   9.228 -1.3422 -0.3881 -1.2546
24617SOL    HW280710   4.349  12.361   9.079 -1.1395 -1.9271 -1.2880
24618SOL     OW80711  12.530   3.695   5.054  0.3282 -0.2351  0.5475
24618SOL    HW180712  12.532   3.619   5.112 -0.9928  1.2373  2.6284
24618SOL    HW280713  12.462   3.673   4.989  0.0334 -0.8658  1.0611
24619SOL     OW80714   6.833   5.444   1.436  0.7160 -0.4680  0.4658
24619SOL    HW180715   6.771   5.511   1.464  1.9223  0.1642  1.7666
24619SOL    HW280716   6.804   5.364   1.481  1.5601  0.1216  2.1259
24620SOL     OW80717   3.734   0.065   7.320  0.0405  0.0431  0.2084
24620SOL    HW180718   3.691   0.087   7.237  0.4200  1.0098  0.2547
24620SOL    HW280719   3.800   0.133   7.332 -0.0837 -0.0168  1.3630
24621SOL     OW80720   1.517  10.630   0.565 -0.1422 -0.4166 -0.2251
24621SOL    HW180721   1.479  10.660   0.648  0.3146 -1.0491  0.2264
24621SOL    HW280722   1.552  10.710   0.525  0.1730 -0.1808  0.4842
24622SOL     OW80723   2.180  11.417  10.418 -0.1857 -0.4170  0.3251
24622SOL    HW180724   2.216  11.330  10.397 -0.0360 -0.2584 -0.0794
24622SOL    HW280725   2.093  11.399  10.453 -0.7757 -0.6430 -1.1852
24623SOL     OW80726   9.161   0.992   3.260 -0.2470 -0.1482  0.3205
24623SOL    HW180727   9.079   0.943   3.271  0.2850 -1.7029 -1.8503
24623SOL    HW280728   9.228   0.931   3.290  0.2450  0.4386  0.4136
24624SOL     OW80729   8.429   7.993   7.051 -0.3913 -0.1307  0.0645
24624SOL    HW180730   8.422   8.045   6.970 -0.3654 -0.3023 -0.0485
24624SOL    HW280731   8.520   7.963   7.052 -0.5835 -0.7394 -0.2234
24625SOL     OW80732   3.703   8.404  10.114  0.5846 -0.0924 -0.3047
24625SOL    HW180733   3.696   8.499  10.115  1.3216  0.0273 -2.0924
24625SOL    HW280734   3.736   8.383  10.026  2.8552 -1.8084  0.8395
24626SOL     OW80735   2.545   6.550   8.049  0.0920  0.4940 -0.5760
24626SOL    HW180736   2.604   6.500   7.993  3.1898  2.1267  0.9875
24626SOL    HW280737   2.475   6.488   8.072 -0.5210 -0.6904 -4.7866
24627SOL     OW80738   3.573   6.786   5.285 -0.5174  0.0622 -0.2413
24627SOL    HW180739   3.496   6.771   5.339  0.3549 -1.5797  0.5836
24627SOL    HW280740   3.611   6.700   5.271  0.9031  0.7777 -1.0621
24628SOL     OW80741   3.926   8.040   2.751  0.1840  0.7108 -0.8015
24628SOL    HW180742   3.973   8.026   2.669 -1.9426  0.1644 -1.9698
24628SOL    HW280743   3.877   8.121   2.738 -0.6679  0.2852 -0.3123
24629SOL     OW80744   6.038   3.999   2.111  0.2633 -0.3633 -0.3065
24629SOL    HW180745   5.976   3.961   2.049  0.3810 -0.8518 -0.1273
24629SOL    HW280746   6.024   4.094   2.104 -1.9897 -0.4910  1.2286
24630SOL     OW80747   6.808   9.206   5.736  0.4626 -0.3461  0.2532
24630SOL    HW180748   6.888   9.209   5.788  0.2627  2.4355  0.5462
24630SOL    HW280749   6.837   9.189   5.647  1.2683 -0.4940  0.5382
24631SOL     OW80750   6.341   6.644   7.771  0.6293  0.0587 -0.5562
24631SOL    HW180751   6.368   6.577   7.835 -0.1308 -0.3662 -0.6655
24631SOL    HW280752   6.375   6.726   7.807  1.6284 -0.3884 -0.4475
24632SOL     OW80753   0.466  11.236   2.146  0.0264 -0.0257  0.5949
24632SOL    HW180754   0.428  11.257   2.231  1.4133 -0.6276  1.3967
24632SOL    HW280755   0.490  11.144   2.153  0.4401  0.0056 -0.3444
24633SOL     OW80756   6.227   8.189   4.364  0.2058  0.1693  0.0154
24633SOL    HW180757   6.302   8.247   4.353  1.3159 -1.2978 -0.6070
24633SOL    HW280758   6.192   8.179   4.275 -2.0242  2.3877  0.5423
24634SOL     OW80759  10.357   2.104   1.000  0.2066  0.1275 -0.3793
24634SOL    HW180760  10.351   2.044   1.075 -0.1444  1.0942  0.3817
24634SOL    HW280761  10.451   2.109   0.981  0.2402 -0.6600 -0.4566
24635SOL     OW80762   3.247   6.970  10.368  0.2126 -0.0599 -0.1616
24635SOL    HW180763   3.257   7.015  10.284 -1.5061  0.3660 -0.1673
24635SOL    HW280764   3.164   6.922  10.361 -0.1094  0.2045  1.3819
24636SOL     OW80765   6.327   1.278   4.349 -0.6724 -0.1051 -0.3267
24636SOL    HW180766   6.283   1.302   4.267  2.0579 -1.8524 -2.5038
24636SOL    HW280767   6.411   1.323   4.345 -0.7659  0.3963  1.9905
24637SOL     OW80768   8.797   8.925  11.618  0.0150  0.1933 -0.4869
24637SOL    HW180769   8.812   8.988  11.689 -0.0468  0.7487 -0.9594
24637SOL    HW280770   8.747   8.974  11.552 -1.7085 -0.9013 -0.0543
24638SOL     OW80771   9.038   2.526   6.031  0.0921 -0.7190  0.0420
24638SOL    HW180772   8.991   2.455   5.987 -0.6135 -0.3338  0.1572
24638SOL    HW280773   9.038   2.501   6.124  1.1874 -1.3096 -0.0937
24639SOL     OW80774   0.426   2.333   2.734 -0.3581 -0.4822 -0.1512
24639SOL    HW180775   0.449   2.422   2.708 -1.0653 -0.5624 -1.1005
24639SOL    HW280776   0.487   2.312   2.804 -1.8011  1.6764  1.9040
24640SOL     OW80777   6.254   8.490   4.395 -0.0718  0.1652 -0.0723
24640SOL    HW180778   6.277   8.489   4.302  0.0892 -0.2885 -0.0272
24640SOL    HW280779   6.190   8.561   4.402 -1.4916 -0.9668 -0.8666
24641SOL     OW80780  11.925  10.491  10.589  0.3223  0.1407  0.0848
24641SOL    HW180781  11.914  10.556  10.520 -1.0237 -0.6779 -0.5083
24641SOL    HW280782  11.898  10.537  10.669  1.6461  1.0133  0.0464
24642SOL     OW80783   9.474   9.150   3.411 -0.2469 -0.5432 -0.3752
24642SOL    HW180784   9.510   9.128   3.325 -1.6613  0.7034 -1.3310
24642SOL    HW280785   9.414   9.078   3.431  0.8069 -1.3348  0.0584
24643SOL     OW80786  11.861   2.223   6.783 -0.3406  0.2784 -0.2691
24643SOL    HW180787  11.880   2.251   6.694 -2.4469 -0.7604 -1.1236
24643SOL    HW280788  11.939   2.174   6.810  1.4759  2.8754 -0.4348
24644SOL     OW80789  11.364   7.637   0.567  0.2087  0.0352 -0.1537
24644SOL    HW180790  11.313   7.716   0.585 -0.8285 -0.7772  0.5943
24644SOL    HW280791  11.426   7.664   0.500 -1.1505  1.0949 -1.0545
24645SOL     OW80792   2.186  11.383   6.192 -0.1040  0.2635 -0.9330
24645SOL    HW180793   2.199  11.365   6.099  1.0842 -1.3660 -0.5021
24645SOL    HW280794   2.094  11.410   6.198 -1.0311 -2.2415 -2.2663
24646SOL     OW80795   3.953   2.337  12.100  0.3557  0.1821 -0.0623
24646SOL    HW180796   3.955   2.375  12.012 -0.0650  0.3452 -0.0018
24646SOL    HW280797   3.946   2.243  12.085  1.9140  0.0700 -0.2211
24647SOL     OW80798   6.670  12.151  10.577 -0.3350  0.0505  0.1718
24647SOL    HW180799   6.611  12.156  10.501 -0.6402  0.0191  0.4035
24647SOL    HW280800   6.758  12.150  10.539 -0.4934 -0.2225 -0.1904
24648SOL     OW80801  11.800   7.669  11.216 -0.6203 -0.2595 -0.1357
24648SOL    HW180802  11.775   7.761  11.226 -0.8323 -0.3333  0.0087
24648SOL    HW280803  11.838   7.664  11.128  1.0053  0.3318  0.4954
24649SOL     OW80804   4.024   1.452   6.230 -0.2603 -0.2434  0.1346
24649SOL    HW180805   4.003   1.395   6.156  0.3618  0.4311 -0.5667
24649SOL    HW280806   4.114   1.429   6.253  0.0630  0.6067 -0.2842
24650SOL     OW80807   7.841  10.997   1.167 -0.2351  0.9107 -0.3020
24650SOL    HW180808   7.909  11.054   1.131  1.1951 -0.6188 -0.1433
24650SOL    HW280809   7.759  11.043   1.150  0.9356  3.7884  1.2760
24651SOL     OW80810   3.125  12.276   4.819  0.2404  0.2705 -0.0230
24651SOL    HW180811   3.052  12.337   4.827  1.2448  1.3164  1.7871
24651SOL    HW280812   3.145  12.274   4.725 -1.4989  0.6540 -0.4326
24652SOL     OW80813   2.043  10.994   0.246 -0.1691 -0.1434  0.5292
24652SOL    HW180814   2.045  10.906   0.285  0.4514 -0.5084 -0.3138
24652SOL    HW280815   1.983  10.985   0.172  0.9207 -0.2016 -0.3600
24653SOL     OW80816   9.298   0.249  10.541  0.7856  0.2360  0.6431
24653SOL    HW180817   9.220   0.199  10.517  1.9845 -1.1542 -0.4828
24653SOL    HW280818   9.348   0.257  10.460  2.1771  0.4434  1.4825
24654SOL     OW80819  10.748   4.292   9.244  0.4025 -0.3346  0.1174
24654SOL    HW180820  10.826   4.320   9.292 -0.3032 -0.1997  1.2359
24654SOL    HW280821  10.778   4.279   9.154  1.3151  1.5909  0.0925
24655SOL     OW80822   9.633   3.713   7.791 -0.4796  0.1506  0.2270
24655SOL    HW180823   9.625   3.619   7.778 -2.3440  0.0110  1.8430
24655SOL    HW280824   9.607   3.751   7.707  0.7954 -0.7484 -0.6098
24656SOL     OW80825   0.052   2.956  11.927 -0.2499  0.7213 -0.2240
24656SOL    HW180826   0.068   2.895  11.855  1.6505 -1.7671  2.1187
24656SOL    HW280827  -0.031   2.926  11.965  0.4070 -0.0891  0.5933
24657SOL     OW80828  10.205  12.237   9.790 -0.0934 -0.3988  0.7921
24657SOL    HW180829  10.215  12.298   9.716 -0.5781  0.0989  1.1263
24657SOL    HW280830  10.269  12.267   9.854 -0.7631  0.1503  1.2094
24658SOL     OW80831   3.017   4.187   9.492 -0.1771 -0.0376  0.1916
24658SOL    HW180832   3.088   4.161   9.434  0.4126 -0.3280  1.0272
24658SOL    HW280833   2.950   4.120   9.479 -0.5793  0.5674 -1.0512
24659SOL     OW80834  10.908   2.137   9.130  0.7852  0.1068  0.3171
24659SOL    HW180835  10.835   2.196   9.149  0.8352  0.7238 -1.2393
24659SOL    HW280836  10.882   2.054   9.169 -1.5512 -0.1463 -1.5112
24660SOL     OW80837  11.166   1.545   3.784  0.2737 -0.1698  0.5154
24660SOL    HW180838  11.191   1.637   3.775  1.0620 -0.2065  2.0591
24660SOL    HW280839  11.241   1.496   3.751  0.0481 -0.2626  0.1388
24661SOL     OW80840  10.946   9.900   1.195  0.2478  0.4718  0.0263
24661SOL    HW180841  10.923   9.856   1.277  0.7244  1.3009  0.6188
24661SOL    HW280842  11.036   9.930   1.209 -0.1688  1.9071 -0.2373
24662SOL     OW80843  11.507   3.092   3.195  0.4463 -0.2016  0.4149
24662SOL    HW180844  11.414   3.072   3.206  0.3631 -0.3587 -0.4943
24662SOL    HW280845  11.510   3.187   3.190  0.5055 -0.1110  1.8216
24663SOL     OW80846   9.893  12.537   0.583  0.1121  0.0155  0.1163
24663SOL    HW180847   9.947  12.472   0.627  0.3479  0.2041  0.1030
24663SOL    HW280848   9.925  12.538   0.493  0.0219  0.0569  0.0845
24664SOL     OW80849   3.933   3.844   8.260  0.6932  0.0400  0.1655
24664SOL    HW180850   3.890   3.800   8.186 -3.7170  1.3593  1.6005
24664SOL    HW280851   3.896   3.802   8.338 -1.5495  4.0765  1.5640
24665SOL     OW80852   8.302   1.403  10.579 -0.4514  0.5536 -0.6112
24665SOL    HW180853   8.258   1.395  10.664 -0.3049 -0.4803 -0.6262
24665SOL    HW280854   8.327   1.314  10.556 -1.6347  0.6298 -2.3527
24666SOL     OW80855   3.298   5.886   0.892  0.1104  0.1304  0.0739
24666SOL    HW180856   3.233   5.943   0.852 -0.6061  0.0137  1.0490
24666SOL    HW280857   3.382   5.920   0.861 -0.1999  2.5621  1.6384
24667SOL     OW80858   2.539   0.976   1.540  0.1661 -0.2842 -0.2020
24667SOL    HW180859   2.574   0.894   1.574 -1.6920  0.1314  3.0243
24667SOL    HW280860   2.458   0.951   1.495 -0.1529 -0.2831  0.3670
24668SOL     OW80861   1.594  11.940   5.999 -0.3343 -0.3979  0.6673
24668SOL    HW180862   1.539  12.014   5.974  0.0262 -0.1957  0.4663
24668SOL    HW280863   1.539  11.888   6.058 -1.4113 -1.1700 -0.9424
24669SOL     OW80864   1.478   6.080   8.506  0.5043 -0.0074 -0.6846
24669SOL    HW180865   1.409   6.077   8.439 -0.2717  1.1270  0.0247
24669SOL    HW280866   1.510   6.170   8.504  1.1171 -0.2108 -0.1690
24670SOL     OW80867   9.611   7.442   3.785 -0.2981 -0.0379 -0.1796
24670SOL    HW180868   9.523   7.460   3.817  0.3024 -1.6932  2.7936
24670SOL    HW280869   9.663   7.517   3.816 -0.3438  0.0362 -0.2837
24671SOL     OW80870   9.280   5.333   6.098  0.3218  0.4558  0.1841
24671SOL    HW180871   9.296   5.323   6.192 -0.1979 -0.3764  0.1975
24671SOL    HW280872   9.366   5.345   6.060  0.6791 -0.5876  0.6210
24672SOL     OW80873  11.314   4.045   9.864 -0.2632  0.4128  0.0246
24672SOL    HW180874  11.219   4.046   9.872 -0.3441 -1.9604 -0.1986
24672SOL    HW280875  11.343   3.976   9.924  1.2827  0.7699 -0.2719
24673SOL     OW80876   2.566   3.194  10.552 -0.1411 -0.5483 -0.6730
24673SOL    HW180877   2.520   3.148  10.482  0.0000  0.4016 -1.4070
24673SOL    HW280878   2.546   3.144  10.631 -0.4249 -1.5513 -1.3603
24674SOL     OW80879   5.220   2.209   6.074  0.3497  0.5740  0.2065
24674SOL    HW180880   5.156   2.166   6.132  1.4839 -0.5998  0.6363
24674SOL    HW280881   5.238   2.144   6.007 -1.1211  2.0031 -1.6783
24675SOL     OW80882  11.638   1.766   2.351  0.7827  0.4783  0.1671
24675SOL    HW180883  11.598   1.793   2.268 -0.0442  0.1590  0.4540
24675SOL    HW280884  11.722   1.812   2.353 -0.2400  2.4548  0.2711
24676SOL     OW80885   2.628   7.193   2.013 -0.6719  0.4794  0.7959
24676SOL    HW180886   2.554   7.151   2.057 -0.2685  2.6116  3.8314
24676SOL    HW280887   2.700   7.131   2.022 -1.3049 -0.3032  0.5989
24677SOL     OW80888   2.789   3.338   3.462 -0.0244  0.2996 -0.4799
24677SOL    HW180889   2.781   3.430   3.437  0.8583  0.5785  0.2328
24677SOL    HW280890   2.827   3.296   3.385  3.7846  1.3652  0.6227
24678SOL     OW80891   2.437  11.265   8.033 -0.3373 -0.7060  0.7349
24678SOL    HW180892   2.515  11.228   8.074  0.3697 -1.0461 -0.8695
24678SOL    HW280893   2.462  11.281   7.943 -1.2383  1.8890  0.8704
24679SOL     OW80894   1.840  10.083   0.977  0.3173  0.0406 -0.7120
24679SOL    HW180895   1.770  10.057   0.918  0.3361 -1.5489 -0.0782
24679SOL    HW280896   1.912  10.109   0.920 -0.4399  0.7596 -1.3635
24680SOL     OW80897   1.551   4.559   9.016 -0.3618  0.3212  0.0372
24680SOL    HW180898   1.551   4.493   9.086  0.5141  0.8543  0.5577
24680SOL    HW280899   1.491   4.524   8.950 -0.2746 -0.7722  0.5175
24681SOL     OW80900   6.934   0.879   2.067  0.5211 -0.2481 -0.0835
24681SOL    HW180901   6.949   0.787   2.089  1.4067 -0.6365 -2.0545
24681SOL    HW280902   7.017   0.922   2.088  0.3583 -0.0472  0.1438
24682SOL     OW80903   2.646  11.529   5.547 -0.0161 -0.4190  0.2701
24682SOL    HW180904   2.668  11.616   5.513  1.4750 -1.6673 -2.1963
24682SOL    HW280905   2.552  11.520   5.532  0.1375  0.1219 -1.0797
24683SOL     OW80906   0.588   7.847   8.915  0.4893 -0.2720  0.1728
24683SOL    HW180907   0.664   7.906   8.921  0.7448 -0.6749  1.1175
24683SOL    HW280908   0.572   7.839   8.821 -0.3730  2.3144  0.0014
24684SOL     OW80909   1.090  12.391   3.119  0.0889 -0.3191  0.2809
24684SOL    HW180910   1.003  12.351   3.120  0.2516 -0.6831  0.0946
24684SOL    HW280911   1.092  12.446   3.198 -0.7408  0.6333 -0.3387
24685SOL     OW80912   3.232   9.090   0.789 -0.3332  0.5056 -0.1397
24685SOL    HW180913   3.190   9.171   0.819 -2.4134 -0.9394  1.1943
24685SOL    HW280914   3.169   9.053   0.727 -1.3768 -1.9159  2.1785
24686SOL     OW80915   3.891   3.592   6.974 -0.1468  0.0373 -0.2288
24686SOL    HW180916   3.872   3.680   7.006  0.8193  0.1584  0.0438
24686SOL    HW280917   3.985   3.592   6.958 -0.4052 -0.4060 -1.9428
24687SOL     OW80918  10.085   6.554   5.631  0.2638  0.4862 -0.3076
24687SOL    HW180919  10.166   6.560   5.582  0.6209 -2.1667 -0.1556
24687SOL    HW280920  10.038   6.635   5.609  2.1189  1.2222 -1.8361
24688SOL     OW80921   8.697   1.363   8.229 -0.0028  0.8564  0.1557
24688SOL    HW180922   8.771   1.401   8.276  1.2750 -2.5266  1.1781
24688SOL    HW280923   8.704   1.400   8.141  2.9360  0.6828  0.2070
24689SOL     OW80924   2.668   5.065   2.546  0.3142 -0.2665 -0.3526
24689SOL    HW180925   2.645   5.158   2.554  0.3334 -0.3329  0.5807
24689SOL    HW280926   2.604   5.030   2.485  0.9691  0.5801 -1.5741
24690SOL     OW80927   1.631   3.858   8.199 -0.0358  0.6388 -0.1390
24690SOL    HW180928   1.643   3.833   8.291 -0.5490  1.2048  0.0896
24690SOL    HW280929   1.635   3.954   8.200 -0.5477  0.6666 -0.6335
24691SOL     OW80930   5.932   2.131   0.579 -0.1097 -0.5988 -0.4180
24691SOL    HW180931   5.895   2.218   0.591 -0.2276 -0.6127 -0.6772
24691SOL    HW280932   5.892   2.099   0.498  1.1975 -0.2278 -1.2551
24692SOL     OW80933   5.680   9.374  10.901 -0.6743 -0.1601  0.3663
24692SOL    HW180934   5.586   9.381  10.917 -1.0638 -1.2296 -1.1565
24692SOL    HW280935   5.703   9.457  10.859 -0.9012  0.1543  0.8523
24693SOL     OW80936  10.586   4.658   1.447  0.1721  0.1332 -0.3211
24693SOL    HW180937  10.633   4.724   1.395  2.3579 -0.3969  0.8484
24693SOL    HW280938  10.656   4.605   1.487 -1.4851 -1.5079  0.5318
24694SOL     OW80939   6.066   7.782   0.798  0.0378 -0.2317  0.2803
24694SOL    HW180940   6.097   7.710   0.742  1.3571 -0.6915  1.5364
24694SOL    HW280941   6.139   7.798   0.859  0.0457  2.5770 -0.3156
24695SOL     OW80942   0.253   3.231   4.220  0.5007  0.1933  0.0226
24695SOL    HW180943   0.278   3.249   4.311  0.4509  2.6788 -0.3904
24695SOL    HW280944   0.328   3.261   4.169 -0.8835  2.2821 -0.9069
24696SOL     OW80945  11.178   9.788   4.473 -0.0383  0.6883 -0.0892
24696SOL    HW180946  11.175   9.698   4.505 -0.1675  0.1280 -1.6219
24696SOL    HW280947  11.165   9.841   4.551 -0.2880 -0.6206  0.7923
24697SOL     OW80948   4.809   5.105   4.411 -0.2012  0.1259 -0.3987
24697SOL    HW180949   4.802   5.009   4.415  0.3249  0.0898 -0.2909
24697SOL    HW280950   4.783   5.127   4.322 -0.2386 -0.1280 -0.4516
24698SOL     OW80951  11.927   7.143  11.042 -0.9976 -0.2963 -0.3315
24698SOL    HW180952  12.000   7.149  11.103 -0.6051  0.5013 -0.8510
24698SOL    HW280953  11.955   7.077  10.978 -0.1142  0.9292 -1.2810
24699SOL     OW80954   3.484   2.773   5.291  0.3782  0.2360  0.0375
24699SOL    HW180955   3.436   2.703   5.246  0.4179 -0.1359  0.5702
24699SOL    HW280956   3.466   2.851   5.238 -0.9072  0.1361  0.2833
24700SOL     OW80957   9.451   2.272   6.639  0.5760 -0.5544  0.1814
24700SOL    HW180958   9.478   2.357   6.675  1.7145 -1.1473  0.7940
24700SOL    HW280959   9.440   2.216   6.716  1.0982 -1.3093 -0.2827
24701SOL     OW80960   1.873   7.605  10.079  0.0036  0.1585  0.1120
24701SOL    HW180961   1.862   7.637  10.168  2.4385 -0.6417  0.7949
24701SOL    HW280962   1.809   7.534  10.070  0.0931 -0.1153  1.4389
24702SOL     OW80963   0.471   0.834  11.079  0.2042 -0.6909 -0.5051
24702SOL    HW180964   0.463   0.770  11.008  2.5449 -3.2030  1.2814
24702SOL    HW280965   0.389   0.883  11.076 -1.3721 -3.1745 -2.5886
24703SOL     OW80966   6.159   7.955   7.449  0.4827  0.4330  0.6551
24703SOL    HW180967   6.110   7.942   7.368 -0.7680  1.7026  1.1604
24703SOL    HW280968   6.220   8.026   7.429  1.1180 -0.1633  0.4486
24704SOL     OW80969   3.931   2.736  11.925  0.0558 -0.1606 -0.5646
24704SOL    HW180970   3.967   2.821  11.952  1.3558 -0.4983 -1.1584
24704SOL    HW280971   3.977   2.715  11.844  0.8336 -2.0856  0.2975
24705SOL     OW80972   0.559   1.647   0.769 -0.4390  0.1168  0.2062
24705SOL    HW180973   0.590   1.667   0.680  1.3573  1.3659  1.0370
24705SOL    HW280974   0.564   1.731   0.815 -2.9297 -0.1466  1.1012
24706SOL     OW80975   3.759   2.714   5.621  0.1994 -0.6690  0.5416
24706SOL    HW180976   3.797   2.712   5.709  1.0767 -0.1267  0.1827
24706SOL    HW280977   3.831   2.737   5.564 -0.3655 -1.0201 -0.3360
24707SOL     OW80978   0.101   0.489  10.318  0.0886  0.1949 -0.0985
24707SOL    HW180979   0.042   0.553  10.358  0.9933 -0.0304  1.6782
24707SOL    HW280980   0.104   0.417  10.381  1.0324 -0.4973 -0.9132
24708SOL     OW80981   3.234   7.971   2.590  0.1117 -0.3697 -0.0807
24708SOL    HW180982   3.216   7.997   2.499 -0.9308 -0.0904  0.1826
24708SOL    HW280983   3.256   8.053   2.634 -1.6604 -0.1095  0.4094
24709SOL     OW80984  10.995   7.250   5.638  0.1855  0.4125  0.0060
24709SOL    HW180985  11.067   7.264   5.699  0.2579 -2.1621  0.6444
24709SOL    HW280986  11.019   7.172   5.589 -1.9416 -0.2881 -0.0570
24710SOL     OW80987   4.539  12.073  12.206  0.9197 -0.6137 -0.4058
24710SOL    HW180988   4.531  12.168  12.197 -0.2357 -0.4634  1.5900
24710SOL    HW280989   4.625  12.060  12.248  1.6191 -0.5769 -1.7707
24711SOL     OW80990  12.481   3.521   2.309  0.1374  0.1602  0.1356
24711SOL    HW180991  12.554   3.577   2.333  0.5945 -0.4883  0.2905
24711SOL    HW280992  12.493   3.441   2.361 -0.4863 -0.0896 -0.0876
24712SOL     OW80993   8.585   7.595   2.915 -0.0197 -0.3403  0.0318
24712SOL    HW180994   8.617   7.507   2.895 -0.8032 -0.4389 -0.9160
24712SOL    HW280995   8.577   7.636   2.829  0.9257  0.8844  0.5073
24713SOL     OW80996   5.805   6.919  12.142  0.6951  0.2185 -0.5315
24713SOL    HW180997   5.784   6.991  12.200  1.3453 -0.4113  0.5200
24713SOL    HW280998   5.724   6.869  12.134  0.7251  0.0265  0.2652
24714SOL     OW80999   1.572   4.127   8.135  0.1825  0.6556 -0.3089
24714SOL    HW181000   1.508   4.165   8.196  0.3466  0.2455  0.1242
24714SOL    HW281001   1.554   4.170   8.052  0.5636  1.9325  0.2326
24715SOL     OW81002   2.946   8.903   6.322 -0.6191 -0.0450  0.1320
24715SOL    HW181003   3.013   8.966   6.298  0.1969  0.1869  2.6547
24715SOL    HW281004   2.996   8.826   6.352 -1.5707 -1.4164 -1.6449
24716SOL     OW81005   3.173   7.225  10.752 -0.9421 -0.1372  0.7088
24716SOL    HW181006   3.079   7.213  10.760 -0.9086 -0.3088  0.8468
24716SOL    HW281007   3.186   7.255  10.662 -0.8794 -2.6470 -0.2104
24717SOL     OW81008   4.184  11.594   9.504 -0.0436 -0.0722  0.0581
24717SOL    HW181009   4.201  11.533   9.576 -2.3005 -0.4206  0.3459
24717SOL    HW281010   4.118  11.654   9.538 -1.7589 -0.7183 -1.9478
24718SOL     OW81011   8.401   9.194   0.537 -0.3065  0.4422  0.0498
24718SOL    HW181012   8.496   9.192   0.549 -0.4309  1.3397  1.4765
24718SOL    HW281013   8.385   9.272   0.485 -0.2175 -0.1144 -0.8230
24719SOL     OW81014   2.062   3.877   2.318 -0.0595 -0.1527 -0.1297
24719SOL    HW181015   2.041   3.792   2.355 -0.1083  0.0756  0.3841
24719SOL    HW281016   2.063   3.936   2.393  3.0554 -0.2310  0.0388
24720SOL     OW81017   9.294   9.925   4.493 -0.2995  0.4499  0.1446
24720SOL    HW181018   9.230   9.890   4.555  0.2535 -0.1628  0.3697
24720SOL    HW281019   9.284  10.020   4.501  0.3931  0.4126  1.8450
24721SOL     OW81020  11.509   3.320   3.862  0.2188  0.6152  0.6042
24721SOL    HW181021  11.542   3.267   3.935  1.9364  0.1213 -0.4828
24721SOL    HW281022  11.490   3.405   3.901 -0.9042 -0.2504  2.0299
24722SOL     OW81023   0.140   4.343   3.934 -0.2103  0.4703  0.5283
24722SOL    HW181024   0.222   4.391   3.940  0.3300 -0.5672  3.0509
24722SOL    HW281025   0.076   4.401   3.975 -0.7387  1.1627 -1.1878
24723SOL     OW81026   6.953   6.592   1.735 -0.2927 -0.2119 -0.3927
24723SOL    HW181027   6.981   6.588   1.643 -0.2121 -2.2923 -0.3295
24723SOL    HW281028   7.022   6.545   1.783 -0.3391  0.8489  0.7454
24724SOL     OW81029   4.001   6.880   3.523 -0.1130 -0.0250  0.5350
24724SOL    HW181030   4.014   6.938   3.448  3.9802 -1.5261 -0.1696
24724SOL    HW281031   4.034   6.930   3.598 -1.5121  0.4138  0.8823
24725SOL     OW81032  10.863   9.893  12.116 -0.1651 -0.3152  0.1129
24725SOL    HW181033  10.854   9.799  12.105 -0.7951 -0.3549  0.9236
24725SOL    HW281034  10.885   9.905  12.209  0.9651  0.2668 -0.2105
24726SOL     OW81035   8.274   6.330   0.443  0.1308 -0.0280 -0.4829
24726SOL    HW181036   8.318   6.280   0.512 -1.3802 -0.3818  0.2682
24726SOL    HW281037   8.266   6.418   0.479  0.8659  0.2342 -0.9313
24727SOL     OW81038   7.809  10.914   9.974 -0.3512 -0.5514  0.1592
24727SOL    HW181039   7.751  10.961  10.033  0.6579 -0.4295  1.0801
24727SOL    HW281040   7.851  10.982   9.921 -0.1534 -0.5371  0.3308
24728SOL     OW81041  12.109   7.437   3.011 -0.1902  0.3907  0.0268
24728SOL    HW181042  12.144   7.387   3.085  1.2428 -0.5750 -1.2441
24728SOL    HW281043  12.063   7.372   2.958  0.4704  0.6816 -0.9128
24729SOL     OW81044   3.251   3.388   4.235  0.1209 -0.4999  0.0295
24729SOL    HW181045   3.254   3.467   4.289 -1.5658 -0.6135  0.3565
24729SOL    HW281046   3.170   3.345   4.262 -0.3441 -0.9893 -2.0270
24730SOL     OW81047  10.502   4.824  11.761 -0.0779  0.2755 -0.4889
24730SOL    HW181048  10.543   4.905  11.731 -1.7402  1.1494 -0.5357
24730SOL    HW281049  10.474   4.780  11.681 -2.2886  1.3997 -0.4090
24731SOL     OW81050   0.769  11.025  11.295 -0.1850 -0.2113 -0.0442
24731SOL    HW181051   0.691  11.080  11.288  1.1484  1.7837 -0.0997
24731SOL    HW281052   0.827  11.058  11.225  1.1822 -0.7851  0.7855
24732SOL     OW81053   8.646   3.780   6.936 -0.6308 -0.6543 -0.3328
24732SOL    HW181054   8.687   3.781   7.022 -1.1471 -0.3231 -0.0824
24732SOL    HW281055   8.649   3.689   6.908  0.5663 -0.5967 -0.4719
24733SOL     OW81056   2.196   1.853   6.465 -0.2841  0.0737 -0.1464
24733SOL    HW181057   2.230   1.864   6.376 -0.7104 -0.0695 -0.3278
24733SOL    HW281058   2.245   1.780   6.501  0.4406  0.6242  0.0121
24734SOL     OW81059   6.269   0.048  10.865  0.1574  0.1675  0.7666
24734SOL    HW181060   6.294  -0.037  10.903  0.6816 -0.2410 -0.4343
24734SOL    HW281061   6.317   0.051  10.782 -0.8815  1.0730  0.1885
24735SOL     OW81062   4.781   4.334  11.650  0.1234  0.2095 -0.4192
24735SOL    HW181063   4.724   4.383  11.710  0.4623 -0.5384  0.5452
24735SOL    HW281064   4.721   4.285  11.594 -0.1924 -0.2205  0.2861
24736SOL     OW81065   3.614   1.113   2.842 -0.1351  0.5781 -0.4461
24736SOL    HW181066   3.545   1.159   2.795 -1.4505  1.7878  2.3971
24736SOL    HW281067   3.571   1.082   2.922  2.1955 -0.2565  0.5602
24737SOL     OW81068   7.153   6.498   2.485 -0.2570  0.7378  0.2835
24737SOL    HW181069   7.077   6.462   2.438 -0.3372  0.2295  0.7900
24737SOL    HW281070   7.203   6.544   2.418 -1.2234  1.4264  0.0121
24738SOL     OW81071   7.036   9.003   5.994 -0.1505 -0.4519 -0.3240
24738SOL    HW181072   6.972   8.949   6.040 -0.0223 -1.1056 -0.8961
24738SOL    HW281073   7.117   8.952   5.997  0.9102  1.1791  2.0706
24739SOL     OW81074   2.695   1.983   1.725 -0.0716  0.4898 -0.1245
24739SOL    HW181075   2.671   2.029   1.806 -1.2279  0.5838 -0.5083
24739SOL    HW281076   2.656   1.896   1.735  0.9471  0.0279 -0.0029
24740SOL     OW81077   0.276   1.434   2.181 -0.1919 -0.6089 -0.0399
24740SOL    HW181078   0.230   1.486   2.116  0.4994  0.3917  0.2491
24740SOL    HW281079   0.360   1.412   2.140  0.5426  0.6182  0.7329
24741SOL     OW81080   8.919   6.408   7.880 -0.0830 -0.0712  0.4003
24741SOL    HW181081   8.998   6.354   7.880 -0.9276 -1.3926 -0.8528
24741SOL    HW281082   8.925   6.458   7.799 -0.1197  0.4832  0.7362
24742SOL     OW81083   0.284   7.772  11.904  0.5370  0.1376 -0.1377
24742SOL    HW181084   0.365   7.721  11.905  0.3074 -0.2337 -0.0091
24742SOL    HW281085   0.311   7.861  11.929  0.8895 -0.0041 -0.0067
24743SOL     OW81086   9.221   2.883   3.289  0.1060 -0.2045 -0.2771
24743SOL    HW181087   9.192   2.884   3.197  0.0022 -3.4128 -0.3799
24743SOL    HW281088   9.316   2.877   3.283  0.1293 -0.0012 -0.1330
24744SOL     OW81089   9.834   8.591  10.783  0.1697 -0.5552 -0.3514
24744SOL    HW181090   9.818   8.681  10.755 -0.9287  0.0363  1.9196
24744SOL    HW281091   9.772   8.539  10.732  0.5963 -0.0017 -1.4561
24745SOL     OW81092   1.599  10.682   1.678 -0.3486 -0.6393  0.6275
24745SOL    HW181093   1.532  10.672   1.747 -2.0113 -0.0781 -0.8275
24745SOL    HW281094   1.566  10.754   1.624  1.3196 -0.5519 -0.3131
24746SOL     OW81095   2.029   1.448  11.963  0.7743 -0.0592 -0.1204
24746SOL    HW181096   1.946   1.494  11.950  0.2124 -1.1331 -0.5070
24746SOL    HW281097   2.008   1.378  12.024  1.3988 -0.3462 -0.2280
24747SOL     OW81098   6.490   9.483   4.654  0.1487  1.0284 -0.6676
24747SOL    HW181099   6.403   9.507   4.621  0.0666  2.2059  0.3438
24747SOL    HW281100   6.495   9.388   4.639 -0.5574  1.2321 -2.4274
24748SOL     OW81101   3.305   5.395   4.980  0.1804 -0.2483  0.3413
24748SOL    HW181102   3.305   5.324   5.044  0.7409 -1.8394 -1.3359
24748SOL    HW281103   3.390   5.390   4.937 -0.3408  0.4543 -0.8442
24749SOL     OW81104   4.924   9.358   7.056  1.0877  0.2011  0.8412
24749SOL    HW181105   4.926   9.309   6.974 -0.6822  1.4372 -0.0191
24749SOL    HW281106   4.872   9.303   7.115  0.4578  0.3026  0.3948
24750SOL     OW81107   4.437  11.757  11.677 -0.1508  0.2737 -0.1145
24750SOL    HW181108   4.512  11.757  11.617  0.8303  1.1986  1.0461
24750SOL    HW281109   4.384  11.831  11.647 -0.7983 -0.5922 -1.1510
24751SOL     OW81110   7.399   3.609   5.894  0.5923  0.1641 -0.0745
24751SOL    HW181111   7.407   3.663   5.972  2.8530 -0.5474  0.2732
24751SOL    HW281112   7.459   3.649   5.831 -0.3728  0.0840 -1.0646
24752SOL     OW81113  12.574   9.673   8.961  0.2388  0.5085  0.2942
24752SOL    HW181114  12.535   9.751   8.922  0.5402 -0.4571 -2.0803
24752SOL    HW281115  12.667   9.695   8.969 -0.1150  1.4558  2.5203
24753SOL     OW81116  11.068  11.646  10.924 -0.0502 -0.0065  0.0752
24753SOL    HW181117  10.974  11.666  10.925 -0.5583 -2.0892 -0.4048
24753SOL    HW281118  11.081  11.596  10.844  0.9804 -1.7560  1.2512
24754SOL     OW81119  10.386   8.746   2.955 -0.2104 -0.4711  0.1443
24754SOL    HW181120  10.414   8.655   2.940 -1.0072 -0.3437 -2.7834
24754SOL    HW281121  10.361   8.777   2.868 -3.4864  1.3874  1.5796
24755SOL     OW81122  12.507   6.478   2.582 -0.2863  0.1426 -0.1619
24755SOL    HW181123  12.446   6.404   2.580  0.1186 -0.2015 -2.4220
24755SOL    HW281124  12.529   6.493   2.490  0.8178  2.1178  0.3805
24756SOL     OW81125   0.767   1.549   5.613 -0.3075 -0.1904  0.4842
24756SOL    HW181126   0.768   1.548   5.709 -1.9779 -2.5172  0.5639
24756SOL    HW281127   0.750   1.458   5.588 -1.8911  0.6818 -1.9735
24757SOL     OW81128   3.636   8.444   8.188 -0.2849 -0.2782  0.1735
24757SOL    HW181129   3.677   8.383   8.249  1.6250 -0.4497 -1.1924
24757SOL    HW281130   3.601   8.514   8.244  0.3738 -0.9963  1.5251
24758SOL     OW81131  10.820   0.117   3.644 -0.0787 -0.7050  0.6592
24758SOL    HW181132  10.783   0.155   3.564 -1.4412  1.4000  2.1700
24758SOL    HW281133  10.902   0.164   3.657  0.8322 -2.0028 -0.1560
24759SOL     OW81134   1.246   7.510   5.123  0.2881  0.1867 -0.2300
24759SOL    HW181135   1.267   7.597   5.089 -0.8763 -0.5468 -3.0977
24759SOL    HW281136   1.203   7.526   5.207 -1.2836  2.5133 -1.3916
24760SOL     OW81137   5.286   1.354   3.054  0.2149 -0.3434  0.4905
24760SOL    HW181138   5.369   1.333   3.011  0.4060 -0.5672  0.9597
24760SOL    HW281139   5.238   1.272   3.057 -0.2774 -0.0937 -0.3081
24761SOL     OW81140   9.680  10.055   0.834 -0.7608 -0.0241 -0.4669
24761SOL    HW181141   9.681  10.142   0.873  2.3264  0.0668 -0.5532
24761SOL    HW281142   9.666   9.996   0.908  0.1338  0.4046  0.0580
24762SOL     OW81143  11.633   9.192  12.266  0.7245  0.1250 -0.3399
24762SOL    HW181144  11.646   9.230  12.180  2.5510  0.0240 -0.1562
24762SOL    HW281145  11.634   9.267  12.326  1.8378  0.0224 -0.2086
24763SOL     OW81146   9.774   6.839   0.773  0.6315 -0.1780 -0.1043
24763SOL    HW181147   9.850   6.897   0.766  0.7366 -0.2770  0.2052
24763SOL    HW281148   9.720   6.861   0.697  0.9133 -0.0257 -0.2619
24764SOL     OW81149   3.801   6.347  10.728  0.5850  0.1327 -0.0421
24764SOL    HW181150   3.808   6.283  10.799  0.5808 -0.2158 -0.3565
24764SOL    HW281151   3.815   6.431  10.771  0.9313 -0.1055  0.3174
24765SOL     OW81152   9.277   9.887   2.076  0.4855 -0.0309  0.2628
24765SOL    HW181153   9.328   9.939   2.137  0.4466 -1.0870  1.2296
24765SOL    HW281154   9.186   9.915   2.092  0.5271  0.1012  0.2736
24766SOL     OW81155   3.811   5.794   1.730  0.1688 -0.2235 -0.0382
24766SOL    HW181156   3.850   5.866   1.780 -1.1866  1.1120 -0.8295
24766SOL    HW281157   3.851   5.801   1.643 -0.0689 -0.3542 -0.1573
24767SOL     OW81158  12.093   1.078   1.014 -0.0765 -0.0741  0.1313
24767SOL    HW181159  12.098   1.120   1.100  1.9592 -2.6539  1.4383
24767SOL    HW281160  12.143   1.136   0.956 -0.0283  0.8782  1.0950
24768SOL     OW81161   3.674   6.274  11.412  0.1332  0.1276  0.2888
24768SOL    HW181162   3.644   6.276  11.321  0.6270  0.6021  0.1255
24768SOL    HW281163   3.718   6.190  11.421  1.1732  0.5915 -0.2889
24769SOL     OW81164   6.650   7.658   4.188  0.0886  0.0029  0.4764
24769SOL    HW181165   6.730   7.658   4.134  0.0059 -2.0621  0.2737
24769SOL    HW281166   6.663   7.729   4.250  0.4374  2.1221 -1.8920
24770SOL     OW81167   3.663   8.003   2.333  0.1153  0.2759  0.2104
24770SOL    HW181168   3.568   7.993   2.337  0.0300  1.4213  1.5204
24770SOL    HW281169   3.684   7.991   2.241 -1.4009  0.8503 -0.2428
24771SOL     OW81170   4.797   4.360   1.864 -0.0664  0.3260 -0.3235
24771SOL    HW181171   4.708   4.326   1.851 -0.5935  0.9093  1.4583
24771SOL    HW281172   4.849   4.283   1.884 -0.5654  0.1743  0.4226
24772SOL     OW81173   4.387   1.201   2.187 -0.2573  0.0453 -0.3365
24772SOL    HW181174   4.292   1.201   2.200 -0.2942  0.3261 -0.6167
24772SOL    HW281175   4.422   1.185   2.274 -0.5918 -1.3735 -0.4369
24773SOL     OW81176   5.132   5.264   7.136 -0.5447  0.0695 -0.1364
24773SOL    HW181177   5.168   5.287   7.222  0.1719 -1.1997 -0.0630
24773SOL    HW281178   5.094   5.177   7.149 -2.1215  0.6527 -0.6568
24774SOL     OW81179  10.250  10.177   6.889 -0.0075 -0.2442  0.0510
24774SOL    HW181180  10.280  10.198   6.800 -0.4881  1.1008  0.1807
24774SOL    HW281181  10.210  10.090   6.881 -1.5785  0.5525 -1.4443
24775SOL     OW81182   0.717   9.971   2.490  0.6810  0.2235 -0.7385
24775SOL    HW181183   0.656  10.018   2.547  0.6453  0.1997 -0.7577
24775SOL    HW281184   0.685   9.988   2.402  2.7563  3.2674 -1.0508
24776SOL     OW81185   3.439   5.367   2.474 -0.1525  0.1580 -0.5277
24776SOL    HW181186   3.448   5.440   2.535 -0.1156 -0.1188 -0.2031
24776SOL    HW281187   3.400   5.407   2.396  1.1492  0.8001 -0.8805
24777SOL     OW81188  11.989   3.569  12.116 -0.7130  0.1230 -0.4393
24777SOL    HW181189  11.937   3.546  12.193 -0.3461 -3.3323 -1.0659
24777SOL    HW281190  11.925   3.589  12.048 -1.3257 -2.8994 -0.8606
24778SOL     OW81191  12.384   4.830   7.318 -0.4316  0.1774 -1.0343
24778SOL    HW181192  12.386   4.920   7.286  0.9206  0.1030 -1.2406
24778SOL    HW281193  12.296   4.818   7.352 -1.6516  0.5833 -3.7809
24779SOL     OW81194   7.429   3.635  10.913  0.2808 -0.2550 -0.5147
24779SOL    HW181195   7.468   3.687  10.842  0.8173  0.5026  0.3143
24779SOL    HW281196   7.381   3.565  10.868 -0.3418  0.8659 -1.6625
24780SOL     OW81197   8.318   4.974   3.919 -0.0805 -0.1565 -0.1140
24780SOL    HW181198   8.378   5.042   3.949 -2.1346  1.2458  1.0681
24780SOL    HW281199   8.289   5.003   3.832 -0.1032 -0.0894 -0.0843
24781SOL     OW81200   8.112   4.464   1.843 -0.3948 -0.0530 -0.2795
24781SOL    HW181201   8.173   4.467   1.770 -1.2787 -0.4220 -1.0544
24781SOL    HW281202   8.040   4.522   1.817 -0.5652  0.0620  0.4332
24782SOL     OW81203   4.723   2.704   6.208 -1.0009  0.2371 -0.3995
24782SOL    HW181204   4.640   2.730   6.168 -1.0323 -0.0051 -0.4936
24782SOL    HW281205   4.787   2.767   6.175 -1.2237  0.6805  0.0014
24783SOL     OW81206   8.938  11.730   3.932 -0.0574 -0.3706 -0.0478
24783SOL    HW181207   8.885  11.664   3.886  0.2998 -1.2528  0.7741
24783SOL    HW281208   9.026  11.719   3.896  0.3105 -1.3254  1.0514
24784SOL     OW81209   5.509   2.113  11.010 -0.7196  0.2592 -0.0397
24784SOL    HW181210   5.503   2.151  10.922  1.0523 -0.4161 -0.5039
24784SOL    HW281211   5.569   2.039  10.999 -0.3733  0.2416  1.7749
24785SOL     OW81212   6.585  11.907   7.978 -0.1842  0.0551  0.5335
24785SOL    HW181213   6.539  11.981   8.017 -1.4842 -0.7978  0.6848
24785SOL    HW281214   6.635  11.869   8.050 -0.0315  0.4054  0.6111
24786SOL     OW81215   3.371   4.588  12.265 -0.6991 -1.0003  0.2830
24786SOL    HW181216   3.290   4.577  12.314 -1.1474 -1.8862 -0.6441
24786SOL    HW281217   3.437   4.544  12.318 -0.7140  0.0852  1.2537
24787SOL     OW81218   8.370   5.060   0.740 -0.4007 -0.3384  0.1821
24787SOL    HW181219   8.427   5.133   0.717 -1.1766 -0.0036 -0.7966
24787SOL    HW281220   8.411   5.019   0.816  1.9704 -1.0558 -1.3874
24788SOL     OW81221   3.255  11.321   3.922 -0.5222 -0.2092  0.5724
24788SOL    HW181222   3.257  11.344   4.015  0.4769 -1.1269  0.7918
24788SOL    HW281223   3.183  11.258   3.915 -1.1292  0.4653  0.5589
24789SOL     OW81224   0.496   5.977   0.529  0.2753 -0.4319  0.6698
24789SOL    HW181225   0.566   5.911   0.528 -1.3862 -2.3105 -0.6041
24789SOL    HW281226   0.463   5.975   0.619  0.8892 -0.6169  0.8963
24790SOL     OW81227   9.871   6.632   5.052  0.2078  0.1928  0.4734
24790SOL    HW181228   9.818   6.560   5.019  0.7067  0.2932 -0.5787
24790SOL    HW281229   9.813   6.679   5.112 -0.4436 -0.4780  0.3858
24791SOL     OW81230   6.339  10.739   3.830 -0.0565  0.0237  0.6002
24791SOL    HW181231   6.340  10.803   3.759  1.4880  0.0655  0.6259
24791SOL    HW281232   6.412  10.680   3.811  1.6724  1.1792  3.1378
24792SOL     OW81233   0.609   3.181  11.370  0.5649  0.1930 -0.0675
24792SOL    HW181234   0.536   3.180  11.431  0.5526  3.2089  0.1224
24792SOL    HW281235   0.580   3.128  11.296 -0.6624 -0.9367  1.1721
24793SOL     OW81236   3.199   9.105   4.545  0.0500  0.2327 -0.2985
24793SOL    HW181237   3.199   9.199   4.563 -1.2484  0.5896 -1.9412
24793SOL    HW281238   3.168   9.097   4.455  1.1389 -1.7234 -0.5801
24794SOL     OW81239   7.021   3.198   3.812 -0.0418 -0.4947  0.3470
24794SOL    HW181240   6.997   3.170   3.723  0.5721  0.4754 -0.1426
24794SOL    HW281241   7.114   3.219   3.806  0.3664 -1.7903  1.5957
24795SOL     OW81242  10.652   7.676  12.016 -0.1596 -0.5374 -0.1056
24795SOL    HW181243  10.668   7.583  12.035 -0.4215 -0.6907 -0.6365
24795SOL    HW281244  10.559   7.688  12.034  0.5421  0.5600  3.8550
24796SOL     OW81245   4.365   6.670  10.455 -0.0951 -0.2119  0.0153
24796SOL    HW181246   4.271   6.678  10.469 -0.1889  1.6674 -1.3112
24796SOL    HW281247   4.377   6.685  10.361  1.5649  0.1469  0.2457
24797SOL     OW81248   3.192   2.046   7.293 -0.2746 -0.7650  0.7163
24797SOL    HW181249   3.112   2.096   7.309 -0.2067  0.3618 -1.9036
24797SOL    HW281250   3.260   2.112   7.279  0.3137 -1.6096 -0.6589
24798SOL     OW81251   6.917   3.145   0.374  0.2750  0.1323  0.1997
24798SOL    HW181252   6.956   3.088   0.308 -0.5261  0.6295 -0.7175
24798SOL    HW281253   6.987   3.158   0.438  0.3082 -2.3852  0.8080
24799SOL     OW81254   0.039  11.975   3.237  0.2026 -0.2458  0.1208
24799SOL    HW181255   0.098  12.040   3.276 -0.7401  0.8813 -0.2980
24799SOL    HW281256   0.097  11.918   3.186  1.0665  0.1417  0.6486
24800SOL     OW81257   7.158  11.914   1.747  0.2050  0.2413 -0.0872
24800SOL    HW181258   7.147  11.940   1.656  0.5478 -0.8817 -0.4743
24800SOL    HW281259   7.118  11.827   1.751 -1.3603  0.9808  1.2566
24801SOL     OW81260   5.003   8.327   3.369  0.4973  0.3339 -0.3334
24801SOL    HW181261   5.057   8.326   3.448 -1.0685  0.4243  0.7776
24801SOL    HW281262   4.988   8.420   3.351 -1.0386  0.3002  0.6370
24802SOL     OW81263  12.285   9.375   3.166  0.4950 -0.4308  0.4811
24802SOL    HW181264  12.231   9.356   3.242  0.7198  0.3972  0.8570
24802SOL    HW281265  12.236   9.440   3.117  0.9001 -0.0809  0.5377
24803SOL     OW81266   5.982   5.418  11.400  0.3579  0.0642 -0.1628
24803SOL    HW181267   6.070   5.431  11.434  0.6635  1.3805 -1.3795
24803SOL    HW281268   5.943   5.353  11.459  0.3903  3.0256  3.4815
24804SOL     OW81269   2.552   0.683  11.119  0.3082 -0.2656  0.0261
24804SOL    HW181270   2.530   0.760  11.066  0.3370 -0.1953  0.1161
24804SOL    HW281271   2.497   0.691  11.197 -0.9890 -1.2447 -0.7363
24805SOL     OW81272   1.057   3.172  11.018  0.7749  0.2094  0.9133
24805SOL    HW181273   1.140   3.131  11.040  0.6891 -0.1417  0.5888
24805SOL    HW281274   1.066   3.262  11.048  1.1105  0.0571  1.2715
24806SOL     OW81275   3.310   7.740   0.399  0.2658 -0.2098 -0.0887
24806SOL    HW181276   3.369   7.801   0.443 -1.5404  1.0382  0.6892
24806SOL    HW281277   3.271   7.790   0.328 -1.2691 -0.3877  0.5826
24807SOL     OW81278   8.234   4.393   0.368 -0.4188  1.1140 -0.5280
24807SOL    HW181279   8.244   4.475   0.320 -0.8631 -0.0286 -2.7367
24807SOL    HW281280   8.144   4.366   0.349 -0.2501  0.0865  0.0670
24808SOL     OW81281   2.381  10.202   2.233  0.1763  0.4282 -0.2123
24808SOL    HW181282   2.438  10.186   2.158  1.5033  2.4048  0.2975
24808SOL    HW281283   2.316  10.264   2.201 -1.8810 -1.8406 -0.8042
24809SOL     OW81284   0.240   5.884   7.022  0.3413 -0.4547 -0.2853
24809SOL    HW181285   0.171   5.855   6.963  1.6345  0.6520 -2.4311
24809SOL    HW281286   0.201   5.956   7.072 -0.8155 -1.5207  0.4127
24810SOL     OW81287   9.458   4.688   2.968  0.0914 -0.2928  0.3514
24810SOL    HW181288   9.414   4.757   2.918  0.1057  0.3189  1.1664
24810SOL    HW281289   9.516   4.646   2.905 -0.2606  0.1357 -0.2670
24811SOL     OW81290   9.686   2.380   2.266 -0.2007 -0.1742  0.8223
24811SOL    HW181291   9.655   2.451   2.322 -1.5207  0.1615 -0.2985
24811SOL    HW281292   9.609   2.327   2.249  0.7194 -1.7813  1.4544
24812SOL     OW81293   7.144   3.218   5.125  0.0778  0.2310  0.2044
24812SOL    HW181294   7.132   3.312   5.144 -0.3452 -0.0951  1.7002
24812SOL    HW281295   7.150   3.214   5.030  0.6968  1.8506  0.1327
24813SOL     OW81296   7.335   1.638   1.805 -0.0604  0.7306  0.0006
24813SOL    HW181297   7.334   1.715   1.863  0.1641 -0.7993  2.1425
24813SOL    HW281298   7.387   1.573   1.851  0.2834 -0.5417 -2.0456
24814SOL     OW81299   3.908   0.138   2.388 -0.0873 -0.0113 -0.3388
24814SOL    HW181300   3.979   0.086   2.351 -0.6711 -1.7507  0.8353
24814SOL    HW281301   3.948   0.184   2.462  0.6167  1.9357 -1.8418
24815SOL     OW81302   9.250  10.562  11.276  0.4322 -0.2012 -0.1167
24815SOL    HW181303   9.204  10.643  11.254  3.1044  0.8376 -2.7603
24815SOL    HW281304   9.315  10.589  11.341 -0.2396 -0.8109  0.8234
24816SOL     OW81305   5.695   8.156   1.863  0.4364  0.4968  0.0449
24816SOL    HW181306   5.615   8.193   1.826  0.2785 -0.6745 -0.8552
24816SOL    HW281307   5.750   8.136   1.787  0.3581 -1.3905  0.4334
24817SOL     OW81308   1.364   3.269  12.364  0.2690 -0.5524  0.1473
24817SOL    HW181309   1.354   3.192  12.308  0.6329 -0.2321 -0.3671
24817SOL    HW281310   1.275   3.303  12.374  0.2535 -0.3523 -0.6162
24818SOL     OW81311   4.832  10.784  10.569 -0.6364  0.8148 -0.1544
24818SOL    HW181312   4.799  10.835  10.495  0.7266 -0.3825 -1.6721
24818SOL    HW281313   4.925  10.807  10.573 -0.6747  0.7869  1.1391
24819SOL     OW81314   2.115   3.571   6.805  0.0806 -0.1101 -0.5976
24819SOL    HW181315   2.173   3.496   6.811  0.9789  0.5403 -0.9137
24819SOL    HW281316   2.161   3.641   6.852 -0.2008  0.5571 -1.3008
24820SOL     OW81317   4.343  10.157  11.865 -0.2261 -0.3324 -0.5684
24820SOL    HW181318   4.392  10.179  11.944 -0.5492 -1.4710 -0.0425
24820SOL    HW281319   4.285  10.085  11.891 -2.1993  0.9496 -1.1658
24821SOL     OW81320   1.638   4.566   1.763  0.2234  0.7241 -0.2972
24821SOL    HW181321   1.667   4.509   1.835  0.0040  1.7210  0.6084
24821SOL    HW281322   1.577   4.627   1.804 -3.5405 -1.4317 -2.1214
24822SOL     OW81323   4.671  11.195   4.333  0.6895  0.1041  0.3342
24822SOL    HW181324   4.666  11.243   4.251  1.3285 -0.5008 -0.0624
24822SOL    HW281325   4.749  11.140   4.325  1.5505  1.0427  1.8949
24823SOL     OW81326  10.995  11.114   8.304  0.0234  0.1748 -0.2848
24823SOL    HW181327  11.054  11.089   8.233  0.7116 -0.5945  0.5324
24823SOL    HW281328  10.913  11.137   8.261  0.7584  0.7512 -1.4004
24824SOL     OW81329   5.461  10.536  10.007  0.6411  0.0759 -0.1528
24824SOL    HW181330   5.369  10.510  10.018  0.8251 -0.2583  0.6703
24824SOL    HW281331   5.457  10.630   9.986  0.1887  0.7009  2.3889
24825SOL     OW81332  12.359   2.644   4.766 -0.1542  0.0613  0.3011
24825SOL    HW181333  12.392   2.728   4.733  0.7502 -0.5505 -0.4267
24825SOL    HW281334  12.349   2.590   4.687  1.1299 -1.1347  0.9083
24826SOL     OW81335  10.243   0.406   3.046  0.0966  0.2908  0.2296
24826SOL    HW181336  10.240   0.501   3.039  2.6826  0.3218 -3.2376
24826SOL    HW281337  10.303   0.389   3.119 -0.4352  1.3036  0.9117
24827SOL     OW81338   9.894   5.718   0.875 -0.0058 -0.2706  0.2905
24827SOL    HW181339   9.987   5.719   0.900  0.3974  1.7613 -1.1009
24827SOL    HW281340   9.862   5.634   0.908  2.4077 -1.1997  0.4859
24828SOL     OW81341   1.945   7.369   7.402 -0.0142 -0.0068  0.2717
24828SOL    HW181342   2.015   7.424   7.438  0.4912 -0.5837  0.1847
24828SOL    HW281343   1.981   7.280   7.403 -1.8520 -0.8625  3.1794
24829SOL     OW81344   9.891   9.592   6.061 -0.1297  0.3670 -0.1853
24829SOL    HW181345   9.866   9.683   6.054 -2.3399 -0.2288 -0.6450
24829SOL    HW281346   9.902   9.563   5.971  0.6849  0.1913 -0.0385
24830SOL     OW81347   5.617  12.518   9.355 -0.1103 -0.5824 -0.2387
24830SOL    HW181348   5.677  12.551   9.422  1.0702 -0.7026 -1.2017
24830SOL    HW281349   5.663  12.444   9.315 -0.5534 -0.1857 -1.5493
24831SOL     OW81350   2.828   4.502  10.098 -0.2904 -0.0670  0.4189
24831SOL    HW181351   2.816   4.434  10.164  2.3069 -1.3407 -0.2828
24831SOL    HW281352   2.810   4.458  10.015  0.5644  0.3084  0.0176
24832SOL     OW81353   2.633  11.058   8.666  0.2254  0.5489 -0.0352
24832SOL    HW181354   2.666  10.969   8.653  1.3014  1.0573 -0.9880
24832SOL    HW281355   2.539  11.052   8.646  0.4742 -0.1748 -1.0877
24833SOL     OW81356   7.492   6.814   0.799 -0.1609  0.3299 -0.4181
24833SOL    HW181357   7.415   6.764   0.825 -0.4766  0.7778 -0.4787
24833SOL    HW281358   7.520   6.858   0.879 -0.6975  1.1295 -0.6589
24834SOL     OW81359   3.232   7.706   5.587 -0.4255 -0.8185 -0.0803
24834SOL    HW181360   3.138   7.698   5.569 -0.6901 -0.5638  1.0840
24834SOL    HW281361   3.240   7.684   5.680  0.8432 -2.0378 -0.4412
24835SOL     OW81362   3.725   5.417   2.223  0.0022  0.4516  0.5657
24835SOL    HW181363   3.694   5.340   2.175 -1.8456  1.7908 -0.5313
24835SOL    HW281364   3.809   5.438   2.183  0.0534 -0.4031  0.1927
24836SOL     OW81365   1.833   6.967  11.235  0.7921  0.3237  0.9234
24836SOL    HW181366   1.866   7.006  11.154  0.9126  0.4886  1.0505
24836SOL    HW281367   1.846   7.035  11.301  0.2221  0.3775  0.9806
24837SOL     OW81368   6.145   9.657  10.228 -0.1238  0.4990 -0.5650
24837SOL    HW181369   6.234   9.622  10.218 -0.5454 -0.3415 -1.5596
24837SOL    HW281370   6.120   9.636  10.318  0.8873  1.2715 -0.0818
24838SOL     OW81371   7.642   3.862   0.141 -0.1761  0.1326 -0.3060
24838SOL    HW181372   7.589   3.938   0.117 -0.4362 -0.4896 -1.7653
24838SOL    HW281373   7.580   3.801   0.180  0.2555  1.1691  2.2183
24839SOL     OW81374  11.287  10.653   9.577  0.6295 -0.8712 -0.2947
24839SOL    HW181375  11.363  10.710   9.586  0.9313 -1.3773  0.4938
24839SOL    HW281376  11.215  10.703   9.616  0.4260 -0.1747 -1.5163
24840SOL     OW81377  11.033   2.845   4.835  0.5039  0.5870 -0.1611
24840SOL    HW181378  10.989   2.787   4.773  1.9978 -0.4453 -0.3030
24840SOL    HW281379  10.999   2.932   4.815 -1.2055 -0.1251 -0.4632
24841SOL     OW81380   9.615   9.557   7.958  0.1546 -0.5607 -0.0588
24841SOL    HW181381   9.707   9.531   7.959  0.1191 -0.6909 -0.1314
24841SOL    HW281382   9.584   9.534   7.871  0.1115 -0.3156 -0.1089
24842SOL     OW81383   4.251   4.456  12.577  0.2620 -0.0527 -0.2117
24842SOL    HW181384   4.224   4.530  12.523 -0.2839 -0.2082 -0.1544
24842SOL    HW281385   4.342   4.475  12.599  0.9565 -0.6488 -2.3091
24843SOL     OW81386  10.006  11.416   4.467 -0.3008 -0.4404 -0.4262
24843SOL    HW181387  10.012  11.504   4.428 -1.1724 -1.0243 -1.9165
24843SOL    HW281388  10.073  11.417   4.536  2.2149  0.2559 -2.6760
24844SOL     OW81389   2.928  10.266   2.537  0.3405  0.0537 -0.0060
24844SOL    HW181390   2.922  10.174   2.511  2.8450 -0.0983 -0.2623
24844SOL    HW281391   2.959  10.311   2.459  0.4095  0.8977  0.4949
24845SOL     OW81392   9.238   9.597   5.298 -0.3412 -0.2985  0.4689
24845SOL    HW181393   9.264   9.515   5.257  1.8886  0.9013 -0.7616
24845SOL    HW281394   9.148   9.612   5.269  0.3225 -0.7379 -2.0214
24846SOL     OW81395   5.564   3.467   5.432  0.4166 -0.1941  0.0253
24846SOL    HW181396   5.472   3.463   5.405  0.0216  1.3089  1.0425
24846SOL    HW281397   5.584   3.560   5.436  1.3733 -0.4300  1.8008
24847SOL     OW81398   3.308   9.503   3.720 -0.9429 -0.3372 -0.1736
24847SOL    HW181399   3.348   9.533   3.801  0.4514 -0.6071 -0.7362
24847SOL    HW281400   3.267   9.419   3.743 -1.5170  0.1157  0.4921
24848SOL     OW81401   8.772   1.824   4.630 -0.6911 -0.0923  0.2574
24848SOL    HW181402   8.725   1.741   4.625 -0.7395 -0.0244 -0.4444
24848SOL    HW281403   8.864   1.801   4.616 -0.5947 -0.1329  0.9191
24849SOL     OW81404   2.296   1.913  10.311  0.1403 -0.2452  0.5913
24849SOL    HW181405   2.386   1.938  10.333 -0.1232  0.5993  0.7442
24849SOL    HW281406   2.272   1.972  10.241 -0.0212 -1.0280 -0.0301
24850SOL     OW81407   6.304   2.217  11.184 -0.0453  0.4783  0.2330
24850SOL    HW181408   6.344   2.262  11.258  0.8992 -1.1208  0.7434
24850SOL    HW281409   6.377   2.176  11.138 -0.8064 -0.1653 -0.4447
24851SOL     OW81410   8.388   6.924   3.585  0.5159  0.0732  0.3502
24851SOL    HW181411   8.473   6.967   3.584  0.1632  0.8711  1.7797
24851SOL    HW281412   8.353   6.941   3.673 -0.7167 -1.0297  0.1076
24852SOL     OW81413  12.454   1.086  12.554 -0.3110 -0.0699 -0.0715
24852SOL    HW181414  12.506   1.166  12.550  1.2208 -1.0450 -0.3796
24852SOL    HW281415  12.386   1.098  12.488 -0.0551  0.9479 -0.1604
24853SOL     OW81416   2.427   2.041   1.161  0.1053  0.1611  0.2618
24853SOL    HW181417   2.522   2.049   1.173  0.6912 -2.6800 -1.4408
24853SOL    HW281418   2.392   2.029   1.249  1.0757  2.5893  1.0615
24854SOL     OW81419   2.264  11.169  11.729 -0.2619  0.0212  0.1632
24854SOL    HW181420   2.183  11.148  11.776 -0.2446 -2.8634 -0.9152
24854SOL    HW281421   2.315  11.089  11.731  0.0990 -0.0717 -3.9296
24855SOL     OW81422   9.397   8.232   8.751 -0.2219 -0.2366  0.2987
24855SOL    HW181423   9.467   8.287   8.786 -1.0425  0.9775  0.0850
24855SOL    HW281424   9.434   8.144   8.751  1.0430  0.2670  0.8736
24856SOL     OW81425   0.661  10.467   0.124  0.3647 -0.0448  0.5062
24856SOL    HW181426   0.748  10.475   0.085 -0.5527 -0.2072 -1.7415
24856SOL    HW281427   0.612  10.413   0.062 -2.0210  1.9700  0.4827
24857SOL     OW81428   1.536   0.895   4.421 -0.4085  0.1968  0.0226
24857SOL    HW181429   1.508   0.950   4.494  2.1364  1.7002 -0.0097
24857SOL    HW281430   1.501   0.939   4.343  0.9405  1.4194  0.0575
24858SOL     OW81431  11.134   8.500   0.030 -0.3548  0.6325  0.1896
24858SOL    HW181432  11.209   8.533  -0.018 -1.1322  0.9094 -0.8801
24858SOL    HW281433  11.172   8.446   0.100  0.8339 -0.9047 -1.5239
24859SOL     OW81434   1.994   8.651   8.566 -0.3804  0.1972  0.8371
24859SOL    HW181435   2.025   8.713   8.499 -2.0761  0.2154 -0.0036
24859SOL    HW281436   1.962   8.707   8.637 -0.9669  0.2794  0.5187
24860SOL     OW81437   6.940   0.907   3.436  0.1556  0.2548 -0.1619
24860SOL    HW181438   6.860   0.899   3.487  1.2664  1.5882  1.9407
24860SOL    HW281439   6.932   0.992   3.393  0.7358  0.7683  0.7024
24861SOL     OW81440   5.003   6.491  11.047 -0.2791 -0.2757  0.1129
24861SOL    HW181441   4.955   6.465  10.969  0.7240  0.1272 -0.6643
24861SOL    HW281442   5.084   6.440  11.044  0.1472  0.3633  0.4230
24862SOL     OW81443   1.790   3.923  10.999 -0.3983 -0.5079  0.0613
24862SOL    HW181444   1.815   4.011  11.028 -1.3867  0.2219 -1.2418
24862SOL    HW281445   1.859   3.866  11.035 -0.0688  0.6909  1.4396
24863SOL     OW81446   8.064   5.605  10.500  0.0570 -0.2971  0.4481
24863SOL    HW181447   7.992   5.665  10.480  0.3909 -0.0479 -0.0141
24863SOL    HW281448   8.110   5.647  10.573 -0.0352 -0.2629  0.4864
24864SOL     OW81449   8.330   2.490   8.121 -0.3982 -0.0170 -0.0292
24864SOL    HW181450   8.420   2.523   8.129 -0.8882  1.1188  1.1219
24864SOL    HW281451   8.282   2.535   8.190 -1.9020 -0.4951 -0.7307
24865SOL     OW81452   3.349   6.019   4.723  0.0660  0.3033 -0.4449
24865SOL    HW181453   3.325   6.106   4.692  0.3180  0.1710 -1.0150
24865SOL    HW281454   3.423   5.993   4.668 -1.4980 -1.2618 -1.9675
24866SOL     OW81455   2.443   4.461  11.605 -0.2018 -0.0974 -0.0392
24866SOL    HW181456   2.504   4.402  11.648  0.8922  1.7562  1.0958
24866SOL    HW281457   2.424   4.420  11.521  3.4207 -0.3035 -0.8955
24867SOL     OW81458   9.594   6.111  10.150 -0.3095  0.1216 -0.2301
24867SOL    HW181459   9.531   6.061  10.099 -2.0235  1.1299  0.7870
24867SOL    HW281460   9.607   6.191  10.100 -1.2531  0.6868  0.3792
24868SOL     OW81461  10.000   1.585   7.644 -0.3367  0.0442  0.3941
24868SOL    HW181462   9.953   1.590   7.561  0.6627  0.1342 -0.1785
24868SOL    HW281463  10.092   1.594   7.620  0.0400 -0.9668  1.4099
24869SOL     OW81464  10.229   1.443   8.484 -0.2202  0.1281 -0.1005
24869SOL    HW181465  10.264   1.390   8.556  0.0993  0.8362  0.2800
24869SOL    HW281466  10.200   1.379   8.419  0.2689 -0.5091  0.2927
24870SOL     OW81467   2.579   2.241   5.023 -0.2395 -0.3314  0.5444
24870SOL    HW181468   2.596   2.264   5.114  3.2191 -1.7540  0.3861
24870SOL    HW281469   2.546   2.322   4.984  1.7996  1.4365  2.2326
24871SOL     OW81470  12.394   7.712   4.120  0.3653 -0.3386  0.9675
24871SOL    HW181471  12.425   7.788   4.070  3.1686 -0.5393  2.2287
24871SOL    HW281472  12.421   7.637   4.069  1.7644 -0.5065  1.8808
24872SOL     OW81473   8.420  11.856   4.917  0.2183  0.2785 -0.1914
24872SOL    HW181474   8.341  11.857   4.972  0.6148 -3.6742  0.7609
24872SOL    HW281475   8.491  11.881   4.977  0.1253  0.0817  0.0051
24873SOL     OW81476   3.497   8.778  11.855 -0.4429 -0.4482  0.0062
24873SOL    HW181477   3.547   8.754  11.933 -1.8070 -1.7434  0.5293
24873SOL    HW281478   3.420   8.823  11.890 -0.7232 -0.4143 -0.6414
24874SOL     OW81479   7.701   1.681  12.546 -0.1731 -0.0838 -0.2225
24874SOL    HW181480   7.622   1.685  12.493 -0.8866 -0.1203  0.8045
24874SOL    HW281481   7.765   1.734  12.498 -0.6550 -0.4836 -1.3216
24875SOL     OW81482   5.485   6.360  10.697  0.4384  0.2780  0.4138
24875SOL    HW181483   5.530   6.405  10.626  1.9714 -0.8175  0.6386
24875SOL    HW281484   5.513   6.405  10.776  0.1013  0.4057  0.4618
24876SOL     OW81485   1.211   9.938   1.564 -0.6946  0.6869 -0.0913
24876SOL    HW181486   1.205   9.998   1.490  1.1206 -0.3524 -1.1680
24876SOL    HW281487   1.147   9.869   1.543  0.5280 -0.1431 -1.2935
24877SOL     OW81488   9.182   3.433   7.727 -0.1741  0.5129 -0.3309
24877SOL    HW181489   9.242   3.364   7.697 -2.5966 -1.8916 -0.0413
24877SOL    HW281490   9.160   3.408   7.817 -0.4984  2.1452  0.0614
24878SOL     OW81491   0.253   8.765   5.782 -0.3674  0.3260  0.2827
24878SOL    HW181492   0.300   8.787   5.702  1.2470 -0.1923  1.0393
24878SOL    HW281493   0.189   8.699   5.755 -1.6416  2.0098 -1.0192
24879SOL     OW81494   4.546  11.692   1.584 -0.1551 -0.0884 -0.2989
24879SOL    HW181495   4.586  11.733   1.508  0.8829  0.2992  0.4472
24879SOL    HW281496   4.498  11.617   1.548 -1.0668  1.0409 -1.5253
24880SOL     OW81497   8.180  10.090   5.912  0.0315  0.2512  0.0668
24880SOL    HW181498   8.205  10.043   5.991  1.9058 -0.7815 -1.0854
24880SOL    HW281499   8.102  10.043   5.880  1.1122 -1.3309 -0.3632
24881SOL     OW81500   3.818   0.590   9.442 -0.0901 -0.4458 -0.3893
24881SOL    HW181501   3.834   0.556   9.354  1.2856  1.7601 -1.0671
24881SOL    HW281502   3.846   0.681   9.438 -2.1882  0.3975  1.7247
24882SOL     OW81503   0.425   0.836  10.520  0.0395  0.1614 -0.4106
24882SOL    HW181504   0.407   0.897  10.592 -0.5605  0.6985 -1.0083
24882SOL    HW281505   0.380   0.755  10.547 -0.0132  0.2951 -0.0853
24883SOL     OW81506   0.269  12.567  11.075 -0.0157 -0.7443  0.1033
24883SOL    HW181507   0.289  12.622  11.151 -0.9112  0.4492 -0.4866
24883SOL    HW281508   0.174  12.559  11.076 -0.0686 -0.4867 -1.0195
24884SOL     OW81509  11.503   3.391   2.081  0.0990 -0.2593 -0.3630
24884SOL    HW181510  11.438   3.385   2.012 -1.5577  1.5449  0.9076
24884SOL    HW281511  11.520   3.485   2.090  3.5809 -0.6737 -1.1771
24885SOL     OW81512   7.970   9.903   1.358 -0.2738 -0.3773  0.0975
24885SOL    HW181513   7.898   9.939   1.408  0.5280  0.0073  1.0116
24885SOL    HW281514   7.986   9.817   1.398 -0.5445 -0.6821 -0.4343
24886SOL     OW81515  11.617  12.129  10.267 -0.5270  0.1973 -0.6474
24886SOL    HW181516  11.553  12.154  10.334 -1.0924 -1.3710 -0.5539
24886SOL    HW281517  11.691  12.094  10.316  0.2577  1.5870 -0.7750
24887SOL     OW81518   6.422   5.261   3.922  0.2996  0.6890  0.0400
24887SOL    HW181519   6.501   5.282   3.972 -0.2209 -1.1911  1.7727
24887SOL    HW281520   6.451   5.199   3.856  0.1696 -0.7167  1.2588
24888SOL     OW81521   5.507   2.016   1.448  0.2339  0.1192 -0.5284
24888SOL    HW181522   5.514   1.935   1.396  1.3733 -0.7095  0.8425
24888SOL    HW281523   5.413   2.025   1.465  0.0720 -0.8167 -0.8424
24889SOL     OW81524   6.856   7.116   9.712 -0.6000  0.2770  0.0897
24889SOL    HW181525   6.934   7.075   9.675  1.1253  1.1466  2.4797
24889SOL    HW281526   6.793   7.044   9.721  0.8239 -0.9812  0.3411
24890SOL     OW81527  10.578   7.246   7.960 -0.1097  0.2648  0.0551
24890SOL    HW181528  10.573   7.202   8.045 -0.9511  1.3563  0.5874
24890SOL    HW281529  10.526   7.326   7.971  0.4127  0.8075 -1.2500
24891SOL     OW81530  10.042   3.837   8.442  0.4160  0.2859  0.4141
24891SOL    HW181531   9.964   3.802   8.400  0.0080  1.5831  0.0241
24891SOL    HW281532  10.010   3.881   8.521  0.8738  0.0625  0.7367
24892SOL     OW81533   6.789  10.354  12.365 -0.2285 -0.5468  0.0108
24892SOL    HW181534   6.696  10.340  12.384 -0.4602  0.8758  0.0487
24892SOL    HW281535   6.835  10.297  12.427 -1.0486  0.6339  1.8092
24893SOL     OW81536   6.705   3.041   0.083 -0.2404  0.1103  0.2158
24893SOL    HW181537   6.731   3.132   0.079 -1.9629  0.6008 -1.5132
24893SOL    HW281538   6.664   3.031   0.169  0.2085  0.8752  0.5267
24894SOL     OW81539   3.707   1.689  10.814 -0.3097 -0.3868  0.4723
24894SOL    HW181540   3.757   1.719  10.890 -1.6610 -0.4152  1.4226
24894SOL    HW281541   3.770   1.643  10.759  1.2151  1.6949  0.3859
24895SOL     OW81542  10.972   9.902   7.165  0.2083 -0.1614  0.5878
24895SOL    HW181543  11.028   9.912   7.243  1.1744  1.3469 -0.2521
24895SOL    HW281544  10.917   9.981   7.165 -1.5502 -1.3264  1.0487
24896SOL     OW81545   0.777   3.141   1.107  0.2527  0.1809 -0.1835
24896SOL    HW181546   0.736   3.185   1.182 -0.2871  0.6157 -0.7253
24896SOL    HW281547   0.704   3.110   1.054  0.6142  0.5988 -0.9495
24897SOL     OW81548  11.063  11.016   9.545 -0.5818  0.0659 -0.2191
24897SOL    HW181549  11.012  11.051   9.618  0.4343 -1.7562  1.4388
24897SOL    HW281550  11.138  11.075   9.537  0.3148 -0.7580  1.5385
24898SOL     OW81551   6.140   5.026   7.968 -0.7773  0.5995  0.6668
24898SOL    HW181552   6.104   5.106   8.006  0.7611  0.5272  2.4237
24898SOL    HW281553   6.142   4.964   8.040 -0.3929 -0.5092 -0.2593
24899SOL     OW81554   0.353   1.905  11.700 -0.2373 -0.7106 -0.3699
24899SOL    HW181555   0.443   1.899  11.668 -0.3086  2.9060 -1.6941
24899SOL    HW281556   0.363   1.933  11.791  0.0541  0.7417 -0.8186
24900SOL     OW81557   1.614   4.853   3.821  0.5196 -0.1709 -0.3412
24900SOL    HW181558   1.685   4.811   3.772  0.2467 -0.3699 -0.5703
24900SOL    HW281559   1.585   4.925   3.765 -0.8058 -1.3159 -1.1860
24901SOL     OW81560  11.869   1.003   4.057 -0.0768 -0.8255 -0.3146
24901SOL    HW181561  11.928   1.015   4.131 -1.1722  2.1801  0.2509
24901SOL    HW281562  11.927   0.991   3.981  1.1730 -0.6915  0.5929
24902SOL     OW81563  10.913   5.880   9.433  0.2544 -0.0052 -0.3235
24902SOL    HW181564  10.952   5.875   9.520 -0.7905  0.3816  0.1714
24902SOL    HW281565  10.945   5.802   9.388 -0.5987 -1.1546  0.9995
24903SOL     OW81566   2.703   8.818   2.684 -0.6288 -0.0309  0.1869
24903SOL    HW181567   2.641   8.807   2.612  0.2933  1.9535 -1.0009
24903SOL    HW281568   2.649   8.841   2.759 -1.5910 -1.8633  0.0949
24904SOL     OW81569   4.919   1.108  10.138  0.4156  0.1373 -0.0257
24904SOL    HW181570   4.852   1.128  10.203  0.4950  0.4573 -0.0392
24904SOL    HW281571   5.001   1.109  10.187  0.5998  1.5109 -0.3352
24905SOL     OW81572   2.917   9.355   3.515  0.8728 -0.1618 -0.2524
24905SOL    HW181573   2.861   9.418   3.559  0.7565 -0.6955  0.3726
24905SOL    HW281574   2.959   9.406   3.445 -1.3246 -0.0185 -1.5743
24906SOL     OW81575   9.954   6.726  11.750  0.4421 -0.3193  0.0884
24906SOL    HW181576   9.900   6.647  11.748 -0.6343  0.3465 -2.9322
24906SOL    HW281577  10.039   6.697  11.717  0.0603 -0.2833 -0.9792
24907SOL     OW81578   1.134   0.276   1.748 -0.6533 -0.1294  0.2411
24907SOL    HW181579   1.052   0.274   1.797 -0.2972 -1.3475  0.8069
24907SOL    HW281580   1.141   0.188   1.710  0.6300 -0.1979  0.6086
24908SOL     OW81581   8.115   6.788   5.806  0.0557 -0.3075 -0.8110
24908SOL    HW181582   8.087   6.879   5.804 -0.8502 -0.4766  1.1191
24908SOL    HW281583   8.059   6.744   5.742 -1.6614  0.0095  0.3866
24909SOL     OW81584   6.923   4.810  10.328  0.4668  0.4757 -0.3514
24909SOL    HW181585   6.839   4.825  10.372  0.4974  0.3753 -0.2565
24909SOL    HW281586   6.953   4.725  10.363  0.7962  0.6991 -0.0867
24910SOL     OW81587  10.645   6.227   2.910  0.0980 -0.1648  0.1539
24910SOL    HW181588  10.708   6.274   2.855  0.2251 -1.1370 -0.5439
24910SOL    HW281589  10.648   6.137   2.879 -2.1249 -0.1295 -0.3343
24911SOL     OW81590  10.339   0.830  10.445  0.4014  0.3311  0.0551
24911SOL    HW181591  10.380   0.842  10.531 -0.4615 -0.2708  0.5618
24911SOL    HW281592  10.393   0.882  10.386  1.7045 -0.1534  0.7596
24912SOL     OW81593   4.142  11.753   2.835 -0.2732 -0.0885 -0.1701
24912SOL    HW181594   4.196  11.799   2.770 -0.4352 -0.8292 -0.8488
24912SOL    HW281595   4.065  11.808   2.845  0.6553  1.0845  0.9499
24913SOL     OW81596   8.711   6.960  11.072  0.2610  0.2079 -0.2058
24913SOL    HW181597   8.736   7.042  11.114  0.2954  0.5485 -0.8839
24913SOL    HW281598   8.621   6.973  11.045  0.0885 -0.1814  0.1627
24914SOL     OW81599   7.507   9.163   8.189  0.2090 -0.2595  0.1084
24914SOL    HW181600   7.596   9.154   8.154  0.6643 -0.5463  1.3001
24914SOL    HW281601   7.502   9.255   8.218  0.0432 -0.1905 -0.1328
24915SOL     OW81602   0.029   7.056  11.262 -0.2712 -0.3283  0.1696
24915SOL    HW181603   0.060   7.066  11.172 -0.5824  0.3629  0.1328
24915SOL    HW281604   0.106   7.025  11.310 -0.0557 -0.5308 -0.3002
24916SOL     OW81605   2.669   5.459   3.116 -0.1698 -0.2232 -0.1783
24916SOL    HW181606   2.686   5.467   3.022  0.1170  1.2749 -0.0340
24916SOL    HW281607   2.715   5.534   3.155 -0.7374 -0.5042  1.0945
24917SOL     OW81608   5.080   9.182   6.779 -0.2736 -0.0716  0.1355
24917SOL    HW181609   5.037   9.099   6.757  1.1203 -0.7671 -0.0778
24917SOL    HW281610   5.156   9.157   6.830  0.6960  0.9943 -0.7235
24918SOL     OW81611  11.312   4.639   6.222  0.7830 -0.0495 -0.4561
24918SOL    HW181612  11.325   4.701   6.150  2.9125  0.9255  0.6800
24918SOL    HW281613  11.273   4.562   6.180  0.7368  0.9645 -2.4094
24919SOL     OW81614   4.633   7.116   9.813  0.1823  0.4204  0.1334
24919SOL    HW181615   4.568   7.183   9.832 -2.0421 -1.7434  0.7764
24919SOL    HW281616   4.620   7.050   9.881 -0.2292 -2.2805 -2.3295
24920SOL     OW81617   6.138  12.287   6.530  0.1787 -0.1117 -0.0431
24920SOL    HW181618   6.174  12.239   6.456 -0.1202 -0.9883  0.3557
24920SOL    HW281619   6.056  12.242   6.550 -0.5098  1.0529 -0.1389
24921SOL     OW81620   5.326   4.967   0.693 -0.0394 -0.2531  0.4947
24921SOL    HW181621   5.330   4.975   0.788  0.1648  1.2307  0.3707
24921SOL    HW281622   5.256   5.026   0.666  2.0135  1.8645 -0.5333
24922SOL     OW81623   8.605   0.488  12.362  0.1520 -0.3409 -0.3608
24922SOL    HW181624   8.532   0.533  12.404 -0.1990 -0.3503 -0.9523
24922SOL    HW281625   8.610   0.404  12.406 -0.6754 -0.6395 -0.8055
24923SOL     OW81626   1.712   9.100   5.946 -0.1067  0.1467 -0.2567
24923SOL    HW181627   1.783   9.146   5.902  0.1655  1.8298  1.7888
24923SOL    HW281628   1.641   9.164   5.949 -0.2700 -0.0785  1.2737
24924SOL     OW81629   9.177   1.438   2.390 -0.1405  0.3354  0.7619
24924SOL    HW181630   9.164   1.419   2.482 -0.5700 -0.5605  0.5268
24924SOL    HW281631   9.269   1.417   2.373 -0.1804  0.0599  0.8857
24925SOL     OW81632   2.366  11.367  12.004  0.0395 -0.1677 -0.0609
24925SOL    HW181633   2.354  11.272  12.005 -0.1070 -0.1850 -1.1719
24925SOL    HW281634   2.296  11.401  12.059 -0.4006 -0.6718 -0.3020
24926SOL     OW81635  11.415   9.189   2.040 -0.6021  0.1258  0.1127
24926SOL    HW181636  11.335   9.160   2.083 -0.2996 -0.5884  0.2009
24926SOL    HW281637  11.485   9.157   2.096 -0.2065 -0.7354 -0.8540
24927SOL     OW81638  10.482   4.747   0.961  0.5039 -0.0161  0.1793
24927SOL    HW181639  10.442   4.684   1.020  1.4931  1.0642  2.0823
24927SOL    HW281640  10.576   4.741   0.978  0.9189 -0.2809 -1.9399
24928SOL     OW81641   0.345   8.079  10.870  0.3344  0.7106  0.1433
24928SOL    HW181642   0.425   8.049  10.827 -0.7968  0.2375 -1.7184
24928SOL    HW281643   0.313   8.150  10.815  0.1134  1.7421  1.5593
24929SOL     OW81644   1.579   7.692  12.149 -0.2579 -0.0069 -0.4545
24929SOL    HW181645   1.536   7.696  12.064  0.1436 -0.1723 -0.6716
24929SOL    HW281646   1.669   7.666  12.129  0.2474  1.3940 -0.1163
24930SOL     OW81647   6.221  10.740   1.640  0.0839  0.2374  0.4421
24930SOL    HW181648   6.168  10.664   1.614  0.2195  0.2831  0.0116
24930SOL    HW281649   6.159  10.813   1.641  0.1729  0.3286 -0.2611
24931SOL     OW81650  11.813  11.248   9.599 -0.4096 -0.2576  0.2911
24931SOL    HW181651  11.890  11.294   9.565 -0.0470 -0.6314  0.5765
24931SOL    HW281652  11.816  11.162   9.555 -0.1197 -0.6229  1.0037
24932SOL     OW81653  10.153   6.480   0.919 -0.4700  0.3126  0.5083
24932SOL    HW181654  10.149   6.404   0.977  1.0011 -0.6448 -0.5730
24932SOL    HW281655  10.213   6.454   0.850 -0.1543  2.3724 -0.0543
24933SOL     OW81656   8.509   7.488   3.495 -1.0262  0.4470 -0.4311
24933SOL    HW181657   8.465   7.573   3.503  0.7245  1.4242 -0.7462
24933SOL    HW281658   8.551   7.491   3.409  0.4228 -0.0522  0.2273
24934SOL     OW81659  10.822  10.280  11.028 -0.4146 -0.0873  0.4052
24934SOL    HW181660  10.813  10.365  10.985  2.2971  0.1883  0.2241
24934SOL    HW281661  10.893  10.237  10.981 -1.1099 -2.1128  1.0970
24935SOL     OW81662   8.589  10.386   5.049  0.8205  0.7114 -0.1339
24935SOL    HW181663   8.576  10.291   5.041  0.2211  0.8036 -0.2839
24935SOL    HW281664   8.573  10.420   4.961  0.1515  1.0486  0.1110
24936SOL     OW81665   7.049   7.724  12.128 -0.7973 -0.1222  0.3731
24936SOL    HW181666   7.063   7.633  12.103 -1.7327 -0.0656 -0.4169
24936SOL    HW281667   7.130   7.769  12.104 -0.4276 -0.6987  0.5398
24937SOL     OW81668   3.017   3.834  10.792 -0.3789  0.3559  0.4838
24937SOL    HW181669   3.112   3.833  10.778 -0.6485  0.4944 -1.6425
24937SOL    HW281670   3.000   3.917  10.835  0.2793  1.1583 -0.7631
24938SOL     OW81671  11.332   8.353   0.536 -0.5011  0.6382  0.4172
24938SOL    HW181672  11.325   8.445   0.512 -0.8169  0.6579  0.5814
24938SOL    HW281673  11.279   8.344   0.616 -0.5058  0.3090  0.3813
24939SOL     OW81674  12.156   0.609  12.552  0.1603  0.7103  0.5858
24939SOL    HW181675  12.110   0.624  12.469 -1.9502 -1.5995  1.1978
24939SOL    HW281676  12.102   0.654  12.617 -0.9470 -1.4066  1.2240
24940SOL     OW81677  11.853   1.233  10.470 -0.2813 -0.0892  0.0660
24940SOL    HW181678  11.925   1.171  10.483  0.0382  0.4831  1.1492
24940SOL    HW281679  11.812   1.205  10.388  2.1878  0.5859 -1.4944
24941SOL     OW81680   9.428   8.669   2.225  0.3688  0.4262 -0.2602
24941SOL    HW181681   9.433   8.744   2.166 -1.7948 -0.2568 -1.4124
24941SOL    HW281682   9.335   8.646   2.228  0.8541 -1.7069  0.6911
24942SOL     OW81683   8.587   2.974  10.924 -0.3825 -0.1358 -0.3515
24942SOL    HW181684   8.563   2.888  10.891  0.8683 -0.2469 -1.0491
24942SOL    HW281685   8.604   3.026  10.845  0.6533  0.2076  0.0798
24943SOL     OW81686   2.660   8.911   8.309  0.6643 -0.5189  0.1052
24943SOL    HW181687   2.641   8.827   8.268  0.5569 -0.5249  0.1661
24943SOL    HW281688   2.752   8.907   8.333  0.2888 -1.2121  1.5104
24944SOL     OW81689   0.037   9.432   1.290  0.3268  0.3973 -0.1954
24944SOL    HW181690   0.073   9.392   1.211  0.2911 -0.6515  0.2935
24944SOL    HW281691  -0.048   9.389   1.302  0.5082  0.2352  0.6276
24945SOL     OW81692   5.980  11.878   8.352  0.5923 -0.7555  0.3824
24945SOL    HW181693   5.984  11.783   8.350  0.5268 -0.7452 -0.6145
24945SOL    HW281694   5.887  11.899   8.343  0.7573 -0.5835 -1.1544
24946SOL     OW81695   7.566  11.104  11.827 -0.5288  0.3088  0.1007
24946SOL    HW181696   7.572  11.009  11.824  1.4131  0.3916 -1.0603
24946SOL    HW281697   7.655  11.134  11.804 -1.1488  2.3887  0.1754
24947SOL     OW81698   7.679   7.353  10.128  0.1228 -0.2243 -0.2537
24947SOL    HW181699   7.649   7.282  10.072 -0.0721 -1.5089  1.4132
24947SOL    HW281700   7.738   7.311  10.190  0.4577  1.1842  0.4116
24948SOL     OW81701   3.901   0.941  10.124  0.2383  0.4734 -0.7549
24948SOL    HW181702   3.817   0.924  10.080 -1.0364  0.3981  1.5305
24948SOL    HW281703   3.892   1.030  10.158  0.5354 -0.0166  0.6506
24949SOL     OW81704   8.876  11.298   6.031 -0.9189  0.1855  0.2082
24949SOL    HW181705   8.914  11.386   6.021 -1.1110  0.2105 -0.3635
24949SOL    HW281706   8.828  11.284   5.949  0.8179 -1.2906 -0.6392
24950SOL     OW81707   1.610   2.922   5.070 -0.1358 -0.2148 -0.5278
24950SOL    HW181708   1.659   3.002   5.083 -2.1477  0.9315  0.4442
24950SOL    HW281709   1.670   2.852   5.097  1.5187  0.9493 -1.0399
24951SOL     OW81710   7.834  10.830   2.507  0.2333  0.1067 -0.0854
24951SOL    HW181711   7.756  10.813   2.455  0.5617  0.2934 -0.6515
24951SOL    HW281712   7.836  10.760   2.572 -1.5097  1.2174  1.2566
24952SOL     OW81713   6.494  10.202   5.337 -0.4943 -0.5279  0.6701
24952SOL    HW181714   6.478  10.140   5.408 -0.0652 -2.0138 -0.4878
24952SOL    HW281715   6.409  10.242   5.320 -0.3462  1.0018  2.9774
24953SOL     OW81716   6.939   0.266   4.721  0.0112  0.1800 -0.0894
24953SOL    HW181717   7.025   0.309   4.713 -0.4917  1.3377  0.5490
24953SOL    HW281718   6.960   0.172   4.720  1.3401  0.4373  0.6140
24954SOL     OW81719   9.482   1.843   3.768  0.3946  0.1138 -0.0973
24954SOL    HW181720   9.496   1.848   3.863  0.1013 -0.1115 -0.0405
24954SOL    HW281721   9.424   1.916   3.748  0.8155  0.4272 -0.1718
24955SOL     OW81722   6.981   6.084   9.440 -0.1490  0.8753 -0.1244
24955SOL    HW181723   7.068   6.100   9.404  0.0035 -0.3580 -0.3319
24955SOL    HW281724   6.967   6.157   9.501 -0.2096  2.7226 -2.2313
24956SOL     OW81725   6.090  12.072   5.758  0.2622  0.4067  0.3252
24956SOL    HW181726   6.035  12.065   5.680 -1.0733 -0.4321  1.2927
24956SOL    HW281727   6.082  12.164   5.785  0.2938  0.5676 -0.2079
24957SOL     OW81728   5.689   3.157   7.996  0.4427  0.0658  0.2196
24957SOL    HW181729   5.660   3.126   8.082  1.2065 -0.4500  0.3099
24957SOL    HW281730   5.780   3.127   7.989  1.0942  1.9441  0.1110
24958SOL     OW81731   1.612   4.147  10.851 -0.1926  0.5515 -0.2928
24958SOL    HW181732   1.668   4.094  10.907 -2.3092 -0.1221  1.3442
24958SOL    HW281733   1.545   4.086  10.818 -1.0184  1.6304 -0.7189
24959SOL     OW81734   8.462   5.112   1.443  0.4885 -0.1203  0.5612
24959SOL    HW181735   8.386   5.169   1.438  0.8526  0.3624  0.4053
24959SOL    HW281736   8.532   5.168   1.477  1.2990 -0.0038 -1.1885
24960SOL     OW81737   1.758   3.265  10.509  0.0497 -0.0704 -0.1239
24960SOL    HW181738   1.726   3.200  10.447  1.1026 -0.0456 -0.7195
24960SOL    HW281739   1.782   3.215  10.587 -1.5546 -0.0675  0.4060
24961SOL     OW81740   0.077   7.432   6.351 -0.4293  0.2773 -0.4539
24961SOL    HW181741   0.058   7.352   6.302  0.0740 -0.1405  0.0184
24961SOL    HW281742   0.001   7.488   6.336 -1.3549 -0.7624  0.1909
24962SOL     OW81743   6.411   4.557   0.905  0.0627 -0.2316 -0.1123
24962SOL    HW181744   6.506   4.545   0.897  0.2746  0.9602  0.3166
24962SOL    HW281745   6.373   4.486   0.853  1.1630 -1.5317  0.7786
24963SOL     OW81746   6.028   1.108   3.320 -0.0799 -0.4765 -1.0111
24963SOL    HW181747   6.110   1.073   3.284 -0.1296  0.1099 -1.7234
24963SOL    HW281748   5.960   1.072   3.264 -0.2709 -0.5569 -0.7297
24964SOL     OW81749   9.449   6.980  12.117  0.1389 -0.5555  0.3596
24964SOL    HW181750   9.444   7.072  12.091 -0.0439 -0.9642 -1.1710
24964SOL    HW281751   9.540   6.955  12.098 -0.4486 -1.3303 -1.7128
24965SOL     OW81752   3.489   0.749   6.700 -0.3193 -0.6349  0.3866
24965SOL    HW181753   3.512   0.698   6.622  0.4475  0.8992 -0.4577
24965SOL    HW281754   3.421   0.698   6.743 -0.1932 -1.9313 -0.8541
24966SOL     OW81755   7.622   9.518  10.285  0.2741  0.1202  0.0841
24966SOL    HW181756   7.678   9.548  10.214 -0.0154  0.9167  0.1813
24966SOL    HW281757   7.660   9.557  10.364  0.2072 -0.2129  0.2830
24967SOL     OW81758  10.977   6.811   4.279  0.3796  0.1508  0.1774
24967SOL    HW181759  11.071   6.807   4.297  0.0583 -1.8381  1.7461
24967SOL    HW281760  10.946   6.721   4.291 -1.7615  0.7925 -0.0976
24968SOL     OW81761   1.945   0.085   5.803  0.1594 -0.4814 -0.0695
24968SOL    HW181762   1.863   0.106   5.758  0.5395 -0.4165 -0.7517
24968SOL    HW281763   1.918   0.042   5.884 -0.5435 -0.6626 -0.3931
24969SOL     OW81764   0.362  10.608   3.389 -0.3590  0.3432 -0.1234
24969SOL    HW181765   0.281  10.559   3.404  0.2228 -0.2888  1.0902
24969SOL    HW281766   0.431  10.542   3.398  0.3603  1.1373  0.2450
24970SOL     OW81767   6.426   1.824   4.806  0.3837 -0.3315 -0.1754
24970SOL    HW181768   6.462   1.737   4.791  0.4378 -0.8836  2.5562
24970SOL    HW281769   6.475   1.857   4.882 -1.4036  0.9612  0.4837
24971SOL     OW81770   9.131   7.534  11.130 -0.0607 -0.0738 -0.0614
24971SOL    HW181771   9.091   7.593  11.194  1.5738  1.7831 -0.6200
24971SOL    HW281772   9.170   7.464  11.183 -1.2202 -0.1568  0.7099
24972SOL     OW81773   7.750   0.713   9.670 -0.1811  0.5727  0.2254
24972SOL    HW181774   7.693   0.748   9.739 -0.9408 -1.0397  0.4657
24972SOL    HW281775   7.839   0.731   9.701 -0.5287  1.5871  0.6864
24973SOL     OW81776  11.130   1.898   7.813 -0.0716  0.3593  0.2288
24973SOL    HW181777  11.223   1.915   7.798 -0.0250 -0.6326 -0.6623
24973SOL    HW281778  11.105   1.963   7.879  1.1870  0.7996  0.3049
24974SOL     OW81779  11.044   2.021  11.812  0.0210  0.0407  0.0734
24974SOL    HW181780  10.970   2.026  11.752 -0.7459 -2.2786  0.7176
24974SOL    HW281781  11.118   2.055  11.761 -0.7472 -1.0914 -1.9420
24975SOL     OW81782  11.123   8.043   9.693 -0.0443  0.6371  0.4751
24975SOL    HW181783  11.126   8.126   9.645 -1.6772  0.3526 -0.1654
24975SOL    HW281784  11.158   7.978   9.633 -0.7565  0.5195  0.1797
24976SOL     OW81785   0.438  12.503  11.706  0.1062  0.1601 -0.6812
24976SOL    HW181786   0.366  12.549  11.750 -0.1000 -0.1447 -0.7007
24976SOL    HW281787   0.426  12.523  11.613  1.3788  2.0100 -0.5155
24977SOL     OW81788  11.839   9.344  11.367  0.7245 -0.5084  0.4646
24977SOL    HW181789  11.802   9.321  11.452 -0.9974  1.5029  0.3308
24977SOL    HW281790  11.886   9.426  11.382 -1.6501  1.2385 -0.8860
24978SOL     OW81791  10.444   8.319   8.261  0.2916  0.0031 -0.1681
24978SOL    HW181792  10.371   8.381   8.251  0.9017  0.5160 -1.8838
24978SOL    HW281793  10.408   8.235   8.232  0.2172  0.1349 -0.4649
24979SOL     OW81794   2.787  11.225   9.030  0.1786  0.0408  0.0393
24979SOL    HW181795   2.864  11.220   9.086 -0.3688  0.1971  0.8196
24979SOL    HW281796   2.775  11.318   9.014 -0.6299  0.1222  1.0381
24980SOL     OW81797   4.664   7.420  12.561 -0.4186 -0.3622 -0.4635
24980SOL    HW181798   4.578   7.417  12.520 -0.1370  1.8912 -1.3632
24980SOL    HW281799   4.664   7.501  12.612  1.0308 -0.5061 -0.1786
24981SOL     OW81800   8.079   6.832   3.933  0.0385 -0.2765  0.2921
24981SOL    HW181801   8.031   6.890   3.992 -1.5339 -0.6902 -0.5198
24981SOL    HW281802   8.160   6.879   3.914  0.0735  0.3637  1.8690
24982SOL     OW81803   9.720   6.582   1.707 -0.1224 -0.4144  0.4781
24982SOL    HW181804   9.789   6.648   1.717 -2.2740  2.2460 -0.9118
24982SOL    HW281805   9.732   6.524   1.783  1.9830  1.4537  1.7195
24983SOL     OW81806   8.419  10.755  10.962  0.4200  0.4142  0.7120
24983SOL    HW181807   8.370  10.810  10.901  1.4168  0.5040 -0.0331
24983SOL    HW281808   8.509  10.786  10.956  0.6835 -0.1184  1.6312
24984SOL     OW81809   0.509   1.419   6.710 -0.0739  0.1053 -0.4175
24984SOL    HW181810   0.463   1.411   6.627  0.7468  0.1421 -0.8828
24984SOL    HW281811   0.581   1.357   6.704  0.4482  0.6645 -0.0493
24985SOL     OW81812   7.339   3.650   8.510 -0.4139 -0.5158 -0.6483
24985SOL    HW181813   7.253   3.619   8.484 -1.0378 -0.0193  0.6991
24985SOL    HW281814   7.398   3.577   8.492 -1.7335 -2.3871  1.8887
24986SOL     OW81815   2.447   7.532   9.128 -0.2056 -0.3747  0.0846
24986SOL    HW181816   2.536   7.552   9.158 -0.6769  0.5212  0.9504
24986SOL    HW281817   2.450   7.439   9.104  0.4698 -0.8952  1.9988
24987SOL     OW81818   4.149   1.964   4.844  0.4759 -0.0643  0.8168
24987SOL    HW181819   4.127   1.948   4.936 -1.4760 -0.5512  0.3198
24987SOL    HW281820   4.064   1.970   4.800  1.3645  0.5405 -0.9037
24988SOL     OW81821   2.693   5.599   7.065 -0.1588  0.2518 -0.5320
24988SOL    HW181822   2.660   5.669   7.009 -0.8175 -0.5751 -1.1910
24988SOL    HW281823   2.625   5.532   7.063 -0.7843  0.6578  2.2022
24989SOL     OW81824   7.459   9.867   4.163 -1.0736  0.0388 -0.0567
24989SOL    HW181825   7.491   9.881   4.074 -1.5794 -0.5994 -0.3467
24989SOL    HW281826   7.454   9.772   4.172 -2.3746  0.1082  0.1561
24990SOL     OW81827  11.700  10.447   7.496  0.4843 -0.0580  0.1055
24990SOL    HW181828  11.728  10.384   7.562  0.4711 -0.2437 -0.0664
24990SOL    HW281829  11.618  10.411   7.462  0.3472  0.1792  0.1844
24991SOL     OW81830  12.148   7.535  12.340  0.3577 -0.1839  0.0165
24991SOL    HW181831  12.147   7.440  12.336  1.2203 -0.1935 -0.1479
24991SOL    HW281832  12.112   7.563  12.256 -1.8289 -0.3361  0.8349
24992SOL     OW81833  11.246   3.793   2.955 -0.4864  0.5882  0.6099
24992SOL    HW181834  11.235   3.883   2.986  0.5568  1.0925 -0.3978
24992SOL    HW281835  11.341   3.784   2.941 -0.8272  0.2919 -2.0316
24993SOL     OW81836   7.853   7.705   3.118  0.4634 -0.1119  0.0011
24993SOL    HW181837   7.944   7.688   3.096  0.7300  0.8347  0.2969
24993SOL    HW281838   7.809   7.718   3.034  0.5148 -0.9688 -0.1591
24994SOL     OW81839   6.189   2.876   7.416  0.3914 -0.3272  0.5236
24994SOL    HW181840   6.170   2.969   7.431  2.2738  0.0327  0.8931
24994SOL    HW281841   6.150   2.857   7.330  2.0756  1.5010 -0.7334
24995SOL     OW81842   8.066   5.865   1.580 -0.1077 -0.5531 -0.4634
24995SOL    HW181843   8.141   5.916   1.613 -0.6980  0.2434 -0.3227
24995SOL    HW281844   7.998   5.931   1.563 -0.4129 -1.1450 -1.6210
24996SOL     OW81845   0.176   4.883   6.208 -0.3554  0.1845  0.4824
24996SOL    HW181846   0.217   4.831   6.138  1.1145  0.2907  1.2212
24996SOL    HW281847   0.098   4.834   6.232  1.1929 -1.9981  1.4466
24997SOL     OW81848   2.911   0.395   4.484 -0.3633 -0.0257  0.3459
24997SOL    HW181849   2.965   0.455   4.535  1.1980  0.0762 -1.3254
24997SOL    HW281850   2.875   0.448   4.413 -0.0991 -0.7436 -0.3500
24998SOL     OW81851   4.836   3.167   0.988 -1.0578  0.2308  0.3287
24998SOL    HW181852   4.763   3.156   1.049 -1.3864 -0.3227 -0.1512
24998SOL    HW281853   4.795   3.167   0.901 -0.6220  1.2073  0.1118
24999SOL     OW81854   8.563  11.978   0.745  0.2615  0.0849  0.4679
24999SOL    HW181855   8.615  12.058   0.753 -1.2806  1.2069 -0.1422
24999SOL    HW281856   8.624  11.912   0.712  1.5553  1.0102  0.9403
25000SOL     OW81857   4.300   7.895   2.090 -0.1259  0.7270  0.4327
25000SOL    HW181858   4.210   7.865   2.097  0.1056 -0.6075 -1.5246
25000SOL    HW281859   4.340   7.870   2.173 -0.8190 -1.4223  0.1688
25001SOL     OW81860   1.889   4.968   6.229 -0.0202  0.1083 -0.5623
25001SOL    HW181861   1.889   5.056   6.192 -1.4831  0.5276  0.3285
25001SOL    HW281862   1.906   4.981   6.322 -0.4765 -0.5210 -0.3821
25002SOL     OW81863   3.973   1.150   8.777 -0.5124 -0.1910  0.1992
25002SOL    HW181864   3.955   1.110   8.692 -0.2291 -2.1002  0.9792
25002SOL    HW281865   3.956   1.080   8.841  2.4216  0.1010  1.4883
25003SOL     OW81866   5.800  10.285   1.701 -0.1070 -0.1271  0.9880
25003SOL    HW181867   5.751  10.299   1.783 -0.3499 -2.0310  1.2148
25003SOL    HW281868   5.822  10.192   1.702 -0.4168 -0.2788 -1.2936
25004SOL     OW81869   6.359   9.856   4.171  0.2940 -0.2332 -0.1623
25004SOL    HW181870   6.383   9.845   4.079 -3.0248 -2.5460 -0.9003
25004SOL    HW281871   6.406   9.786   4.216  0.9128  0.1042 -0.2606
25005SOL     OW81872   1.267  11.139  12.521  0.1739  0.2594  0.2278
25005SOL    HW181873   1.321  11.083  12.465  0.7347  2.6811 -1.8109
25005SOL    HW281874   1.303  11.126  12.609 -0.2755 -3.1128  0.0305
25006SOL     OW81875   6.667   3.882   8.595  0.2181  0.6357 -0.0758
25006SOL    HW181876   6.728   3.881   8.668  0.8089  0.6976 -0.5554
25006SOL    HW281877   6.644   3.975   8.584 -1.0560  0.4661  0.9811
25007SOL     OW81878   7.911  12.180   5.382  0.4180 -0.0145 -0.4844
25007SOL    HW181879   7.967  12.124   5.437  0.0664 -0.0417 -0.1479
25007SOL    HW281880   7.958  12.186   5.299  0.1590 -1.3416 -0.7478
25008SOL     OW81881   2.632   1.271   0.780  0.1991 -0.1620  0.5719
25008SOL    HW181882   2.637   1.203   0.847 -0.0250  0.5737  1.3477
25008SOL    HW281883   2.591   1.346   0.824 -0.0224  0.3087 -0.4072
25009SOL     OW81884   8.729   4.329   0.639  0.3380 -0.1744  0.4287
25009SOL    HW181885   8.662   4.336   0.708 -0.9960  0.7114 -0.8986
25009SOL    HW281886   8.743   4.235   0.628 -1.7643 -0.4526 -0.2320
25010SOL     OW81887   3.163   8.437  11.428 -0.6117 -0.0058 -0.5828
25010SOL    HW181888   3.245   8.447  11.380  0.0047  2.4968  0.7978
25010SOL    HW281889   3.108   8.508  11.396 -1.1463  0.0945  0.5061
25011SOL     OW81890   0.084   2.326  11.739  0.1998  0.3746 -0.1865
25011SOL    HW181891   0.149   2.396  11.748  0.1515  0.3584  0.3148
25011SOL    HW281892   0.127   2.260  11.685  0.9320 -0.0277  0.8505
25012SOL     OW81893   7.208   1.973   4.807 -0.3090 -0.2042  1.0578
25012SOL    HW181894   7.265   1.928   4.869  0.9784  1.4980  1.1601
25012SOL    HW281895   7.120   1.945   4.832  0.1527  0.4586  3.7158
25013SOL     OW81896   3.499   1.879   4.086  0.0055  0.0317 -0.3487
25013SOL    HW181897   3.572   1.870   4.025  0.1977 -1.2789  0.0441
25013SOL    HW281898   3.541   1.887   4.172 -0.2660 -1.9968  0.0350
25014SOL     OW81899   1.345   6.549   7.789  0.2995 -0.1710 -0.4900
25014SOL    HW181900   1.378   6.586   7.871  2.0846 -1.2258 -0.6730
25014SOL    HW281901   1.263   6.595   7.773  1.3878  2.2212  0.3234
25015SOL     OW81902   3.621   3.936   8.331 -0.3944 -0.5491 -0.3977
25015SOL    HW181903   3.559   3.997   8.291  0.2848 -0.8052 -1.9213
25015SOL    HW281904   3.634   3.869   8.264  1.2976 -0.6408 -0.0127
25016SOL     OW81905   5.902   0.673   8.965  0.7783 -0.2623 -0.1308
25016SOL    HW181906   5.869   0.763   8.955 -1.3587 -1.0061 -0.1893
25016SOL    HW281907   5.932   0.670   9.056 -0.3724  0.1496  0.2838
25017SOL     OW81908  10.698   1.378  10.663 -0.1463  0.0357 -0.1260
25017SOL    HW181909  10.752   1.299  10.672  1.6589  1.2877  0.5802
25017SOL    HW281910  10.621   1.361  10.718  0.0468 -1.3588 -0.2599
25018SOL     OW81911   8.926   4.184   5.696 -0.2442 -0.1676  0.3437
25018SOL    HW181912   8.982   4.251   5.657 -1.6762  0.6669 -0.3348
25018SOL    HW281913   8.900   4.128   5.623  0.1396 -0.9028  0.7518
25019SOL     OW81914   1.817   7.849   8.324  0.3177  0.2643  0.4715
25019SOL    HW181915   1.862   7.933   8.336 -0.2379  0.6258  0.1061
25019SOL    HW281916   1.857   7.791   8.388  0.1578  1.0356  1.2956
25020SOL     OW81917   1.864   7.931   1.901 -0.1571  0.2142 -0.5980
25020SOL    HW181918   1.820   7.931   1.816  0.9422  1.5853 -1.2181
25020SOL    HW281919   1.793   7.931   1.965 -1.0099 -0.2552 -1.5097
25021SOL     OW81920   1.204  11.805  12.378 -0.4873 -0.8380 -0.2029
25021SOL    HW181921   1.295  11.823  12.403 -1.1581 -0.4819  2.2322
25021SOL    HW281922   1.178  11.732  12.434 -2.0875 -0.0657  0.1187
25022SOL     OW81923  10.225  11.387  12.526 -0.4465  0.2074 -0.2414
25022SOL    HW181924  10.142  11.364  12.566 -0.8587  1.2551 -0.4545
25022SOL    HW281925  10.287  11.322  12.559 -0.7837  0.9403  1.9961
25023SOL     OW81926   2.127   2.490   2.156  0.6353  0.0423  0.0292
25023SOL    HW181927   2.167   2.524   2.237 -1.9757 -1.2922  2.0415
25023SOL    HW281928   2.095   2.568   2.111 -1.3759  0.6899  2.3577
25024SOL     OW81929   7.955   5.422   6.413 -0.1169  0.6626 -0.1833
25024SOL    HW181930   7.890   5.412   6.482 -0.4590  2.6791 -0.1380
25024SOL    HW281931   7.922   5.370   6.340 -0.5324 -0.2539  0.6352
25025SOL     OW81932   5.120  11.223   0.544  0.0390  0.2997  0.2135
25025SOL    HW181933   5.132  11.135   0.581  2.3952  1.6881  3.2675
25025SOL    HW281934   5.124  11.281   0.620 -1.4171  3.1282 -1.6756
25026SOL     OW81935  10.509   7.851   2.728  0.1037 -0.0155  0.1199
25026SOL    HW181936  10.455   7.833   2.805 -0.2962 -0.0476 -0.1626
25026SOL    HW281937  10.541   7.765   2.701 -0.6783 -0.1552 -0.4108
25027SOL     OW81938   3.552   2.764   6.275  0.5233  0.2230  0.0509
25027SOL    HW181939   3.634   2.789   6.317  1.5842  1.1333 -2.3850
25027SOL    HW281940   3.550   2.668   6.282  1.5319  0.2212  0.5458
25028SOL     OW81941   5.696   4.443   8.715 -0.2097 -0.0451 -0.4168
25028SOL    HW181942   5.624   4.390   8.683  1.4805 -1.7208 -1.6378
25028SOL    HW281943   5.719   4.500   8.642  0.1882 -0.0706 -0.3160
25029SOL     OW81944   4.898   0.577   3.305 -0.8133  0.1156 -0.2393
25029SOL    HW181945   4.948   0.587   3.224 -1.0143  0.3163 -0.3411
25029SOL    HW281946   4.861   0.489   3.300 -2.1496  0.6969 -1.1288
25030SOL     OW81947   4.432   4.129   5.617  0.4891  0.1729  0.6952
25030SOL    HW181948   4.518   4.171   5.609 -0.1926  1.2773 -2.2088
25030SOL    HW281949   4.370   4.202   5.613 -0.6151 -0.7301  1.0281
25031SOL     OW81950   4.920   6.672   9.915  0.1288  0.2343  0.1920
25031SOL    HW181951   4.990   6.628   9.867  0.4252  1.5971 -0.6746
25031SOL    HW281952   4.840   6.625   9.891  0.7742 -1.8782  1.8432
25032SOL     OW81953   7.874   4.980  11.864 -0.2098  0.1298  0.2943
25032SOL    HW181954   7.913   4.958  11.780 -1.7611 -1.2197 -0.1316
25032SOL    HW281955   7.938   5.037  11.906  1.7319 -1.1647 -0.7517
25033SOL     OW81956   6.503  10.083   1.757  0.1872 -0.4166 -0.0070
25033SOL    HW181957   6.570  10.136   1.799  0.0432 -0.3999  0.2048
25033SOL    HW281958   6.524   9.993   1.782  0.5789 -0.4867 -0.5745
25034SOL     OW81959   3.698   9.448   5.402 -0.1775  0.0169 -0.0115
25034SOL    HW181960   3.608   9.417   5.394 -0.6412  1.5037 -0.9948
25034SOL    HW281961   3.692   9.543   5.393  1.3806  0.2563  0.9680
25035SOL     OW81962  11.832   2.453   7.766  0.0082  0.6066  0.0112
25035SOL    HW181963  11.787   2.535   7.743  0.8916  1.6623  1.7667
25035SOL    HW281964  11.798   2.431   7.853  1.4563  0.4003  0.5569
25036SOL     OW81965  11.937   9.587  10.395  0.2078  0.0332  0.4423
25036SOL    HW181966  11.945   9.671  10.440  1.4832 -0.1284  0.5471
25036SOL    HW281967  12.003   9.531  10.436  2.4036  0.2690 -2.4763
25037SOL     OW81968  10.029   8.839   0.697  0.8816  0.1720  0.4295
25037SOL    HW181969   9.999   8.848   0.787  0.2246  2.4823  0.0301
25037SOL    HW281970  10.085   8.915   0.682 -0.4061  0.8019 -1.5978
25038SOL     OW81971   6.099   3.287   9.571  0.2902  0.9682  0.3494
25038SOL    HW181972   6.183   3.319   9.538  0.7943 -0.0773  0.5626
25038SOL    HW281973   6.044   3.279   9.493  0.0283  2.6316  0.3312
25039SOL     OW81974   7.337   2.538   6.097 -0.2014 -0.2919  0.1188
25039SOL    HW181975   7.259   2.585   6.069 -0.6026 -0.3421  1.1054
25039SOL    HW281976   7.393   2.536   6.020 -0.2678  1.6102 -0.0191
25040SOL     OW81977  11.570  11.501  12.041 -0.2668  0.1440  0.2607
25040SOL    HW181978  11.532  11.563  11.978 -0.1423  0.0737  0.1166
25040SOL    HW281979  11.555  11.541  12.126  0.2407  0.6031  0.1383
25041SOL     OW81980   1.304   1.194   8.363  0.3259  0.1913  0.1418
25041SOL    HW181981   1.370   1.178   8.295  0.6698  0.7151  0.3432
25041SOL    HW281982   1.348   1.251   8.426  0.0019 -0.2587  0.7942
25042SOL     OW81983   4.265   1.087   2.560 -0.7046 -0.4769  0.1635
25042SOL    HW181984   4.327   1.159   2.568 -0.9173 -0.2828  0.0742
25042SOL    HW281985   4.223   1.080   2.646 -0.8769 -0.3160  0.0944
25043SOL     OW81986   8.903   6.693  10.782  0.1200 -0.0514 -0.3679
25043SOL    HW181987   8.846   6.768  10.765 -1.2629 -1.0462 -0.2421
25043SOL    HW281988   8.979   6.731  10.827 -0.8077  1.1904  0.2215
25044SOL     OW81989  10.046   4.395   3.752  0.1675  0.0828 -0.2341
25044SOL    HW181990  10.128   4.442   3.767 -0.7058  1.4595  0.4532
25044SOL    HW281991  10.042   4.331   3.824  0.2017  0.6563  0.2887
25045SOL     OW81992   5.710   4.096   2.703 -0.1788  0.4765  0.3080
25045SOL    HW181993   5.627   4.109   2.656 -0.7464  0.5009  1.3042
25045SOL    HW281994   5.713   4.002   2.721 -0.6925  0.6876  1.5397
25046SOL     OW81995   3.097   6.543  11.033  0.3360  0.4828  0.4144
25046SOL    HW181996   3.117   6.632  11.002  1.7775  0.5630  1.4512
25046SOL    HW281997   3.033   6.510  10.971  1.4026  1.4580 -1.2891
25047SOL     OW81998   9.061   6.558  11.522  0.0120  0.9740 -0.2270
25047SOL    HW181999   9.030   6.605  11.599 -2.3383  2.0162 -1.7255
25047SOL    HW282000   9.107   6.481  11.559 -1.1592  1.3259  2.1877
25048SOL     OW82001   8.492   4.619  12.036  0.3200  0.6753 -0.5569
25048SOL    HW182002   8.502   4.658  11.950  2.6932 -1.3626 -1.3203
25048SOL    HW282003   8.577   4.630  12.078 -0.6337  1.1714  1.3551
25049SOL     OW82004   6.318   3.185   3.602 -0.2311 -0.4410  0.7191
25049SOL    HW182005   6.334   3.198   3.695 -0.7020 -0.5077  0.8111
25049SOL    HW282006   6.231   3.222   3.587 -0.0179 -0.1210  0.2389
25050SOL     OW82007  11.553   4.894   6.342  0.2603  1.0173 -0.5542
25050SOL    HW182008  11.560   4.943   6.261 -1.7174  1.3127 -0.5917
25050SOL    HW282009  11.497   4.820   6.321  0.3303  0.6854  0.3640
25051SOL     OW82010   7.933  11.213   5.949  0.7719  1.0866 -0.6939
25051SOL    HW182011   7.931  11.234   6.042 -0.9724 -0.4983 -0.3101
25051SOL    HW282012   7.887  11.285   5.906 -1.6883  0.1047  0.1399
25052SOL     OW82013   5.111   5.734  10.723 -0.4147  0.7948  0.5075
25052SOL    HW182014   5.155   5.679  10.658  0.5434  1.4408  0.5838
25052SOL    HW282015   5.140   5.699  10.807 -2.4721 -0.7103  0.6667
25053SOL     OW82016   3.940   6.177   7.440  0.0431  0.6744 -0.0504
25053SOL    HW182017   3.912   6.140   7.356  0.2348 -1.0026  0.5865
25053SOL    HW282018   4.016   6.231   7.418 -0.1171  0.5425 -0.9876
25054SOL     OW82019   5.248  12.163   6.418 -0.3651 -0.5367  0.3462
25054SOL    HW182020   5.240  12.146   6.512  0.5430 -0.4182  0.4519
25054SOL    HW282021   5.195  12.095   6.377 -0.8619 -0.5200  0.9489
25055SOL     OW82022  11.275   5.243   9.512 -0.0609  0.1520 -0.2092
25055SOL    HW182023  11.194   5.231   9.561  0.2981 -0.2460  0.2898
25055SOL    HW282024  11.345   5.225   9.575  0.4467  1.3908 -0.3793
25056SOL     OW82025   4.964   8.501   4.582 -0.4726  0.1469  0.4343
25056SOL    HW182026   4.893   8.436   4.586  0.8565 -1.4480 -0.8745
25056SOL    HW282027   5.012   8.480   4.503  1.6311  1.0349  1.4018
25057SOL     OW82028   9.158   5.225   1.626  0.0916  0.2416  0.3634
25057SOL    HW182029   9.208   5.152   1.663 -1.6938 -1.3593 -0.2740
25057SOL    HW282030   9.094   5.247   1.694 -2.3036 -1.8156 -1.0481
25058SOL     OW82031  10.870   1.712   8.198  0.5035 -0.8768  0.3575
25058SOL    HW182032  10.883   1.639   8.258  0.2636 -0.8305  0.4669
25058SOL    HW282033  10.784   1.747   8.221  0.6611 -0.4957  0.3754
25059SOL     OW82034  11.067  12.156  12.244 -0.4440  0.3842  1.1184
25059SOL    HW182035  11.034  12.232  12.292 -0.5609  1.0641  0.0154
25059SOL    HW282036  10.988  12.109  12.218 -0.5478  1.3681 -0.5000
25060SOL     OW82037   5.607   1.820  10.462  0.3217  0.7222 -0.2480
25060SOL    HW182038   5.554   1.848  10.387 -0.6032  1.5529  0.6825
25060SOL    HW282039   5.571   1.868  10.537 -0.0825 -1.5244  1.1046
25061SOL     OW82040   0.287   0.959   2.785  0.8346  0.2622  0.3238
25061SOL    HW182041   0.276   1.054   2.793  0.2202  0.3064 -0.8030
25061SOL    HW282042   0.281   0.926   2.874 -2.0132  0.9770  0.4748
25062SOL     OW82043  12.482   1.375  12.502 -0.6079  0.5271  0.4399
25062SOL    HW182044  12.565   1.417  12.481  0.2154 -0.9357  0.6249
25062SOL    HW282045  12.475   1.383  12.597  0.5107 -1.3409  0.7381
25063SOL     OW82046   5.930   4.673   5.949  0.0593  0.1098 -0.9570
25063SOL    HW182047   5.911   4.749   5.893  0.8053 -0.6721 -2.3187
25063SOL    HW282048   5.897   4.598   5.900  1.4528 -0.6773 -0.7523
25064SOL     OW82049   1.779   2.381   8.797  0.0344  0.0872 -0.0640
25064SOL    HW182050   1.687   2.361   8.781 -0.1496  0.6306  0.2647
25064SOL    HW282051   1.798   2.340   8.882  0.6504 -1.6921 -1.0153
25065SOL     OW82052  10.341   1.212   3.315  0.2500 -0.1340  0.0256
25065SOL    HW182053  10.417   1.252   3.272 -0.4689  2.4611  0.9798
25065SOL    HW282054  10.360   1.220   3.409  0.1928 -2.4640  0.3045
25066SOL     OW82055  11.909  11.519   3.805  1.0696  0.4844 -0.5247
25066SOL    HW182056  11.854  11.524   3.726  1.5543 -0.7123 -0.9548
25066SOL    HW282057  11.851  11.483   3.872  0.4524  2.1505 -0.1078
25067SOL     OW82058   1.013   8.962   2.528 -0.1744  0.2272 -0.1320
25067SOL    HW182059   0.992   8.964   2.621  0.4254 -1.8439  0.0888
25067SOL    HW282060   0.953   9.025   2.488 -1.3396  0.1823  1.4705
25068SOL     OW82061   4.610   0.197   8.766 -0.2837 -0.2117 -0.2562
25068SOL    HW182062   4.693   0.223   8.726  0.7311 -1.8923  0.5971
25068SOL    HW282063   4.608   0.102   8.757 -0.8550 -0.4855  1.9980
25069SOL     OW82064   3.394   7.560  11.738 -0.2798  0.6326  0.8818
25069SOL    HW182065   3.431   7.628  11.682 -1.3746  0.2451 -0.3748
25069SOL    HW282066   3.439   7.479  11.712 -1.6158  0.2310 -0.3786
25070SOL     OW82067   2.674   9.748   3.944 -0.1258 -0.2540 -0.6489
25070SOL    HW182068   2.728   9.822   3.972  0.5258 -0.6650 -0.8038
25070SOL    HW282069   2.685   9.682   4.012 -0.6290 -0.2527 -0.5590
25071SOL     OW82070   7.368  11.188   3.781  0.1607  0.0184  0.5831
25071SOL    HW182071   7.377  11.094   3.766  1.5643  0.5072 -2.2998
25071SOL    HW282072   7.457  11.217   3.801  0.1571  1.0013 -0.7079
25072SOL     OW82073   1.828   2.776   4.356  0.3524  0.0866 -0.1959
25072SOL    HW182074   1.909   2.729   4.333 -0.4418 -1.2799 -0.2849
25072SOL    HW282075   1.772   2.709   4.396 -0.5573  1.1300  0.3211
25073SOL     OW82076   5.276   7.450   2.863  0.1626  0.4229 -0.3895
25073SOL    HW182077   5.287   7.355   2.870  0.3987  0.4090 -0.9423
25073SOL    HW282078   5.300   7.483   2.950 -4.2158 -0.3712  1.4095
25074SOL     OW82079   1.619   1.240   3.936 -0.5687  0.0089 -0.3892
25074SOL    HW182080   1.575   1.156   3.934  1.6638 -1.3297  1.4201
25074SOL    HW282081   1.600   1.275   4.023  0.2118  0.3638 -0.3513
25075SOL     OW82082   2.731  11.885   8.451  0.4918  0.5270  0.1297
25075SOL    HW182083   2.796  11.829   8.493  1.5000  1.9520  0.5340
25075SOL    HW282084   2.781  11.945   8.397 -0.6839 -0.1063 -1.7664
25076SOL     OW82085   9.497   0.381   2.213  0.3243 -0.5487  1.1859
25076SOL    HW182086   9.470   0.446   2.278 -0.8872 -0.3808  0.5362
25076SOL    HW282087   9.416   0.348   2.176  0.9752 -0.2708 -0.5946
25077SOL     OW82088   0.577   5.755  12.467 -0.0464  0.3669 -0.4117
25077SOL    HW182089   0.522   5.794  12.399 -3.5740 -2.1846  0.7000
25077SOL    HW282090   0.579   5.661  12.445  3.5609  0.2044 -0.0419
25078SOL     OW82091  10.018   9.032   6.785  0.5465  0.5261 -0.6536
25078SOL    HW182092   9.941   9.063   6.736 -0.7139 -0.2242  0.7598
25078SOL    HW282093   9.984   8.964   6.843  2.2222  0.4512  0.3119
25079SOL     OW82094   1.774   4.884   8.968  0.2644  0.1694  0.3774
25079SOL    HW182095   1.787   4.808   9.025 -0.8724  0.3815  0.9499
25079SOL    HW282096   1.696   4.862   8.916  1.4827 -0.1684 -1.3814
25080SOL     OW82097   0.345   2.639   9.364 -0.2554  0.3871  0.1970
25080SOL    HW182098   0.287   2.578   9.319 -0.6273 -0.8195  2.2182
25080SOL    HW282099   0.428   2.592   9.373 -0.5771  0.0933  1.8634
25081SOL     OW82100   2.892   6.674   1.317  0.2889 -0.4307  0.0706
25081SOL    HW182101   2.920   6.611   1.383 -0.1435 -0.3125  0.3699
25081SOL    HW282102   2.802   6.650   1.297 -0.9055  1.7430  2.2399
25082SOL     OW82103   6.552   8.887   0.662  0.3172 -0.3803  0.6998
25082SOL    HW182104   6.582   8.945   0.591  0.7401 -0.3900  0.8634
25082SOL    HW282105   6.583   8.930   0.742  1.4901 -1.3155  0.7720
25083SOL     OW82106   5.087   0.660   6.369 -0.6106  0.0165 -0.1351
25083SOL    HW182107   5.080   0.566   6.354 -0.3881  0.0349 -0.3850
25083SOL    HW282108   5.156   0.688   6.308 -0.8127  0.3718 -0.2055
25084SOL     OW82109   8.471  10.667   8.494  0.0811 -0.1232  0.1318
25084SOL    HW182110   8.474  10.646   8.587  0.2706 -0.5781  0.0245
25084SOL    HW282111   8.385  10.708   8.481  0.0453 -0.0845  0.4998
25085SOL     OW82112   3.199   0.458   9.136  0.4195 -0.3829  0.5820
25085SOL    HW182113   3.190   0.541   9.182 -0.5693  0.0669 -0.3758
25085SOL    HW282114   3.113   0.416   9.145 -0.5384  0.6504 -2.5314
25086SOL     OW82115  12.233  11.788   2.745 -0.0677 -0.4552  0.2165
25086SOL    HW182116  12.140  11.799   2.765 -0.0806  1.6811 -0.6774
25086SOL    HW282117  12.260  11.873   2.710  2.1093 -1.1819 -0.0460
25087SOL     OW82118   9.311   4.427  11.890 -0.8075 -0.0747 -0.4430
25087SOL    HW182119   9.241   4.456  11.830 -2.8658 -1.2883  1.2203
25087SOL    HW282120   9.351   4.508  11.921 -1.6517  0.6736 -1.2342
25088SOL     OW82121   8.155   8.318   9.454 -0.4630 -0.2477  0.4998
25088SOL    HW182122   8.109   8.307   9.370  0.7383 -0.8437 -0.1035
25088SOL    HW282123   8.177   8.229   9.481 -1.7661 -0.1607  2.0202
25089SOL     OW82124   5.377   5.353   6.709 -0.2783  0.8205 -0.1628
25089SOL    HW182125   5.377   5.353   6.805  0.0169  0.6662 -0.1612
25089SOL    HW282126   5.440   5.285   6.685 -0.9437  0.2977 -0.4701
25090SOL     OW82127   8.205   2.927  12.097 -0.0931 -0.5968 -0.2001
25090SOL    HW182128   8.224   2.891  12.184 -0.8331 -0.5453 -0.0111
25090SOL    HW282129   8.243   3.014  12.098  0.3913 -0.8049 -0.1282
25091SOL     OW82130   9.195   2.373   5.759 -0.4315 -0.5214  0.0133
25091SOL    HW182131   9.164   2.458   5.790  0.6141  0.3281 -1.1797
25091SOL    HW282132   9.204   2.320   5.838 -0.1998  0.7821  0.8834
25092SOL     OW82133   5.361   9.291   7.916 -0.0245  0.1865 -0.0049
25092SOL    HW182134   5.313   9.300   7.834  1.6328  0.3937 -1.0038
25092SOL    HW282135   5.371   9.197   7.929 -0.1590  0.1567 -0.1242
25093SOL     OW82136   6.827   0.325   6.465  0.3540  0.1976 -0.1347
25093SOL    HW182137   6.785   0.363   6.388  0.2056  1.3755  0.5154
25093SOL    HW282138   6.897   0.270   6.429 -1.6444 -1.7800 -1.2430
25094SOL     OW82139  12.042   1.464   8.781  0.3760 -0.5953 -0.2378
25094SOL    HW182140  12.049   1.511   8.864 -0.5001 -0.4883 -0.2093
25094SOL    HW282141  12.132   1.455   8.750  0.5603  1.2578 -0.3393
25095SOL     OW82142  11.823   8.214   5.150  0.2963  0.2773 -0.2239
25095SOL    HW182143  11.739   8.169   5.155 -0.4816  1.5676 -1.0857
25095SOL    HW282144  11.884   8.157   5.197 -1.1847 -0.3758  0.9828
25096SOL     OW82145   2.103   3.490   7.901 -0.4091 -0.2767  0.1607
25096SOL    HW182146   2.174   3.517   7.843 -0.0653  0.2543  0.8207
25096SOL    HW282147   2.128   3.402   7.931  0.2598  0.1243  0.8249
25097SOL     OW82148   7.696   6.219   3.838  0.2085 -0.1730 -1.0399
25097SOL    HW182149   7.718   6.292   3.896 -0.3010 -0.4058 -0.5563
25097SOL    HW282150   7.779   6.199   3.794  0.5424  0.1596 -0.5756
25098SOL     OW82151   3.057   0.682   5.145 -0.2049  0.1560 -0.3802
25098SOL    HW182152   3.064   0.746   5.216 -1.0536 -1.0696  0.8715
25098SOL    HW282153   2.965   0.656   5.146  0.1935 -1.3421 -0.6036
25099SOL     OW82154   8.796   7.021  12.235  0.1604  0.0622 -0.0655
25099SOL    HW182155   8.772   6.934  12.267 -0.4796  0.3098  0.1216
25099SOL    HW282156   8.801   7.010  12.140 -1.5310  0.2105 -0.1874
25100SOL     OW82157  12.432   5.549   4.657 -0.3271  0.0305 -0.0116
25100SOL    HW182158  12.367   5.541   4.728 -1.1001  0.2639 -0.6715
25100SOL    HW282159  12.399   5.492   4.588 -1.3233  2.1344 -1.4124
25101SOL     OW82160   8.310   0.384  11.984  0.4553  0.7597  0.3516
25101SOL    HW182161   8.235   0.330  11.960 -0.1422  1.1645  1.2701
25101SOL    HW282162   8.361   0.390  11.903 -0.4388  0.3907 -0.2624
25102SOL     OW82163   7.349   2.947   1.852 -0.0981 -0.1336 -0.2545
25102SOL    HW182164   7.264   2.913   1.878  0.2851 -1.3296 -0.4908
25102SOL    HW282165   7.376   3.003   1.925 -0.0261 -1.6762  0.9622
25103SOL     OW82166  10.054   6.706   7.510 -0.1646 -0.2415  0.7260
25103SOL    HW182167  10.031   6.686   7.601 -0.7062 -1.2692  0.3864
25103SOL    HW282168  10.020   6.631   7.461  0.8658 -0.1009 -0.2246
25104SOL     OW82169   2.229  11.600   3.859  0.0398  0.4484 -0.3050
25104SOL    HW182170   2.134  11.600   3.867  0.0580  1.4329  0.0609
25104SOL    HW282171   2.251  11.512   3.827 -0.9202 -0.0635  0.4064
25105SOL     OW82172  10.623   4.440  11.868 -0.3594  0.0371  0.0832
25105SOL    HW182173  10.658   4.398  11.790 -2.8261 -0.2628 -0.9414
25105SOL    HW282174  10.673   4.521  11.876  0.4547 -0.2884 -1.3734
25106SOL     OW82175   1.802   3.862   6.558  0.1721  0.5672 -0.2823
25106SOL    HW182176   1.828   3.770   6.548 -2.3059 -0.0747 -1.6527
25106SOL    HW282177   1.876   3.912   6.524  1.6401 -0.8867  0.6519
25107SOL     OW82178   2.346   8.685   3.838  0.2080  0.3812  0.0902
25107SOL    HW182179   2.430   8.645   3.816  0.2392  0.5383 -0.0732
25107SOL    HW282180   2.280   8.625   3.803  0.2583  0.9919 -1.0804
25108SOL     OW82181   4.700   6.922   9.170 -0.2057  0.0879  0.2231
25108SOL    HW182182   4.695   7.009   9.130  0.3031 -0.6979 -1.6481
25108SOL    HW282183   4.793   6.908   9.187 -0.2778 -0.1362  0.4540
25109SOL     OW82184   0.972   5.226   3.216  0.0272  0.0523  0.0335
25109SOL    HW182185   1.044   5.170   3.189  1.1094  0.7835  1.3017
25109SOL    HW282186   0.927   5.175   3.284  1.4370  0.9335  1.7013
25110SOL     OW82187   3.390   7.756   5.010 -1.1242 -0.4582  0.3033
25110SOL    HW182188   3.381   7.677   5.064  1.1147 -0.6570  0.4819
25110SOL    HW282189   3.371   7.828   5.070  1.1419 -0.6869  1.4006
25111SOL     OW82190   4.821   7.371   1.367  0.4489 -0.1236 -0.3646
25111SOL    HW182191   4.788   7.460   1.376  0.1147 -0.3276  0.5659
25111SOL    HW282192   4.798   7.345   1.278  0.2022  0.5768 -0.5076
25112SOL     OW82193  12.118   8.671  10.703 -0.2217 -0.3560 -0.0069
25112SOL    HW182194  12.139   8.581  10.729 -1.7482 -0.6788  0.2324
25112SOL    HW282195  12.087   8.712  10.784 -0.3865  0.1106 -0.3057
25113SOL     OW82196   5.123   3.403   7.832 -0.4656 -0.6892  0.2656
25113SOL    HW182197   5.057   3.453   7.881 -0.0366  0.5908 -0.4208
25113SOL    HW282198   5.080   3.384   7.748  0.1917  0.6365 -0.4062
25114SOL     OW82199  11.464   3.824   4.847 -0.2547 -0.3511  0.6907
25114SOL    HW182200  11.371   3.812   4.824  0.3575  0.7331 -2.9815
25114SOL    HW282201  11.507   3.746   4.814  0.3503 -0.1300  0.9416
25115SOL     OW82202   0.956   3.433   7.611  0.6417 -0.4950  0.1495
25115SOL    HW182203   0.913   3.517   7.593 -0.6574 -0.9788  0.8918
25115SOL    HW282204   0.893   3.385   7.664  1.8305 -1.5155  0.6733
25116SOL     OW82205   3.347   5.217   0.734  0.4263  0.0861  0.2806
25116SOL    HW182206   3.398   5.154   0.784 -1.5558 -0.8329  1.2831
25116SOL    HW282207   3.320   5.283   0.799  0.2334  0.4849 -0.1935
25117SOL     OW82208   5.484   4.173   0.195 -0.1492 -0.1167 -0.3578
25117SOL    HW182209   5.489   4.268   0.187  0.9469 -0.1834 -0.6392
25117SOL    HW282210   5.392   4.152   0.182  0.0898  0.5670 -4.5386
25118SOL     OW82211   4.868   6.644   4.960  0.6588 -0.0222 -0.1373
25118SOL    HW182212   4.777   6.624   4.981  0.5722  1.2901  0.8671
25118SOL    HW282213   4.865   6.680   4.872  0.1990  0.0400 -0.0988
25119SOL     OW82214   8.295   9.754   7.987  0.3205 -0.8374 -0.0372
25119SOL    HW182215   8.365   9.817   8.002 -0.9112  0.1418  1.9246
25119SOL    HW282216   8.238   9.797   7.923  0.2400 -0.5965  0.1970
25120SOL     OW82217   4.321   3.148  11.564  0.0705 -0.4296 -0.5854
25120SOL    HW182218   4.398   3.114  11.518 -0.1796 -0.1265 -1.2298
25120SOL    HW282219   4.354   3.171  11.651  0.8055  0.1095 -0.9964
25121SOL     OW82220   7.797   1.413   5.440 -0.0721 -0.4919  0.2087
25121SOL    HW182221   7.767   1.498   5.471 -0.5436 -0.1884 -1.0179
25121SOL    HW282222   7.729   1.385   5.378  0.7747 -1.1136 -0.4535
25122SOL     OW82223   2.800   2.022   0.187 -0.0538  0.2532 -0.2029
25122SOL    HW182224   2.817   1.991   0.098 -0.1002  1.3287 -0.6020
25122SOL    HW282225   2.869   1.983   0.240  2.3488  2.5502 -1.3582
25123SOL     OW82226  10.677   3.985  12.278 -0.4219  0.6413  0.0793
25123SOL    HW182227  10.590   4.021  12.264 -1.3764 -0.5213  2.5475
25123SOL    HW282228  10.719   3.991  12.192 -4.2207 -2.3745 -2.3029
25124SOL     OW82229   3.925   1.063   5.439  0.0706  0.6606  0.3451
25124SOL    HW182230   3.993   1.113   5.393  0.1367  0.7308  0.5200
25124SOL    HW282231   3.929   1.094   5.529 -0.8473  1.3760  0.1518
25125SOL     OW82232  12.079   4.625   5.136  0.5255 -0.1384  0.0204
25125SOL    HW182233  12.002   4.595   5.184 -0.6290  0.0900 -1.5909
25125SOL    HW282234  12.153   4.596   5.188 -0.6338 -1.5124  0.9690
25126SOL     OW82235  10.469   0.288   2.669 -0.0518  0.4044  0.5220
25126SOL    HW182236  10.470   0.370   2.619  0.2564 -0.4593 -0.9374
25126SOL    HW282237  10.555   0.249   2.653  0.3407  0.4319  2.3488
25127SOL     OW82238   6.609   3.726   5.664  0.0694  0.6211 -0.5211
25127SOL    HW182239   6.543   3.769   5.719 -0.7723 -1.1105 -0.1274
25127SOL    HW282240   6.685   3.717   5.722 -0.9628 -1.5997  0.5829
25128SOL     OW82241   0.098   6.260  10.867  0.8066 -0.5216 -0.3525
25128SOL    HW182242   0.068   6.305  10.946 -0.2057 -1.4875 -0.1618
25128SOL    HW282243   0.142   6.328  10.816  1.3139  0.1615  0.9404
25129SOL     OW82244   5.062   3.316   3.412 -0.6701 -0.4724 -0.5380
25129SOL    HW182245   5.131   3.317   3.478 -0.1940 -0.4159 -1.0279
25129SOL    HW282246   5.045   3.408   3.394  0.4147 -0.4796 -1.7255
25130SOL     OW82247   5.559   0.279   7.402  0.1253 -0.5854 -0.0169
25130SOL    HW182248   5.609   0.276   7.320  1.4702  0.3005  0.7243
25130SOL    HW282249   5.599   0.211   7.456  0.2146 -0.1876  0.4190
25131SOL     OW82250   8.911   3.684   6.264 -0.0152 -0.1958 -0.6452
25131SOL    HW182251   8.944   3.674   6.174 -0.2907 -0.3479 -0.7333
25131SOL    HW282252   8.962   3.622   6.316  0.1977 -0.0528 -0.6823
25132SOL     OW82253  10.263   9.522   0.127 -0.0508 -0.4044 -0.3264
25132SOL    HW182254  10.173   9.532   0.159  0.5457  0.9738  1.0631
25132SOL    HW282255  10.300   9.454   0.184  0.5495  0.9611  1.0019
25133SOL     OW82256  11.686   1.291  11.742 -0.2041 -0.0123 -0.2090
25133SOL    HW182257  11.599   1.284  11.781 -0.3044 -1.0418 -0.5962
25133SOL    HW282258  11.737   1.222  11.784  0.0059 -0.3866 -1.0758
25134SOL     OW82259   4.468   6.317   8.609  0.0683 -0.1241  0.1381
25134SOL    HW182260   4.433   6.302   8.697 -0.8603 -0.7329 -0.3233
25134SOL    HW282261   4.522   6.240   8.591  1.6627  0.7691  0.8128
25135SOL     OW82262   9.268   4.571   5.308 -0.4478  0.2879  0.6714
25135SOL    HW182263   9.283   4.641   5.372 -0.6966  0.9552  0.0102
25135SOL    HW282264   9.192   4.600   5.258 -0.4775 -0.4046  0.3067
25136SOL     OW82265   8.166   4.811   1.692  0.5873  0.2843  0.1560
25136SOL    HW182266   8.219   4.826   1.770  0.1180 -0.6261  0.6788
25136SOL    HW282267   8.229   4.785   1.625  0.9427  0.5526  0.3839
25137SOL     OW82268   8.043   6.570   8.968 -0.3905 -0.1300  0.0655
25137SOL    HW182269   8.121   6.526   8.936  1.2020  0.9700  2.1883
25137SOL    HW282270   8.052   6.660   8.938 -1.0771 -0.0811 -0.0187
25138SOL     OW82271  12.081   1.828   8.859 -0.2925 -0.5301 -0.2604
25138SOL    HW182272  12.146   1.841   8.928 -1.3076 -2.5608  1.1904
25138SOL    HW282273  12.131   1.835   8.778  1.7075 -1.6412  0.7977
25139SOL     OW82274   2.025   7.167  10.978  0.1795 -0.3457 -0.2938
25139SOL    HW182275   2.106   7.117  10.968  0.9385  0.9993 -1.1951
25139SOL    HW282276   1.974   7.145  10.900 -0.0140 -0.6547 -0.0791
25140SOL     OW82277   5.591   2.965   2.124  0.7216 -0.4137 -0.1526
25140SOL    HW182278   5.662   2.942   2.184 -0.8090 -0.1487  1.8588
25140SOL    HW282279   5.575   2.886   2.073  0.2323 -1.6103  1.7618
25141SOL     OW82280  11.745   2.307  12.279 -0.2683 -0.0108 -0.5603
25141SOL    HW182281  11.671   2.366  12.275 -0.0136  0.4211  0.7034
25141SOL    HW282282  11.812   2.348  12.225 -0.4145  0.3841 -0.4416
25142SOL     OW82283   9.304   8.065   7.074 -0.8149  0.3177 -0.1997
25142SOL    HW182284   9.351   8.146   7.096 -1.5516  0.4898  0.8508
25142SOL    HW282285   9.286   8.072   6.981  1.4070  0.1414 -0.7102
25143SOL     OW82286   7.037   5.346  10.052  0.4726  0.1644 -0.0963
25143SOL    HW182287   6.986   5.333  10.132  1.4460  0.0161  0.5284
25143SOL    HW282288   7.099   5.416  10.075 -0.5481  1.5436 -1.3819
25144SOL     OW82289   5.286   2.749  10.151 -0.4068 -0.5170  0.2361
25144SOL    HW182290   5.216   2.692  10.183  0.1462 -0.1971  2.1034
25144SOL    HW282291   5.366   2.701  10.170 -0.0248 -0.0743 -0.2255
25145SOL     OW82292   4.688   6.158  11.517 -0.5164  0.0871  0.5542
25145SOL    HW182293   4.666   6.182  11.607  1.8467  1.0174  0.9711
25145SOL    HW282294   4.777   6.190  11.505 -1.3759  1.7785 -2.7543
25146SOL     OW82295  11.418   1.429   5.374  0.0973  0.5553  0.7487
25146SOL    HW182296  11.444   1.513   5.413  1.3022  0.6303 -0.1575
25146SOL    HW282297  11.433   1.365   5.444  0.8147  0.8846  0.9155
25147SOL     OW82298   6.055  12.333  10.787 -0.2766  0.2947 -0.1196
25147SOL    HW182299   6.050  12.418  10.743  0.3058  0.0714 -0.6254
25147SOL    HW282300   6.113  12.281  10.732 -1.1513 -0.6564 -0.1779
25148SOL     OW82301   5.377   1.476  11.207  0.0649  0.3575  0.0241
25148SOL    HW182302   5.297   1.528  11.198 -0.9068 -1.1402 -0.3684
25148SOL    HW282303   5.380   1.453  11.300  0.7826  1.4964  0.3083
25149SOL     OW82304   6.118   9.188   3.799 -0.5654  0.2409  0.2797
25149SOL    HW182305   6.154   9.105   3.766 -0.3305  0.4827 -0.0804
25149SOL    HW282306   6.175   9.210   3.873 -0.8890 -0.1344  0.6424
25150SOL     OW82307   3.727   9.723   5.423 -0.2879 -0.2545 -0.5107
25150SOL    HW182308   3.682   9.781   5.485  1.3498  0.2086  0.2967
25150SOL    HW282309   3.755   9.782   5.352 -1.5641 -0.6689 -1.3960
25151SOL     OW82310  11.200   2.867   8.208 -0.4730 -0.4759  0.1125
25151SOL    HW182311  11.277   2.819   8.237  0.6933  1.6397  0.6851
25151SOL    HW282312  11.178   2.925   8.281 -2.1276 -0.4538 -0.3574
25152SOL     OW82313  10.016   9.811   8.569 -0.0258  0.2828  0.1935
25152SOL    HW182314  10.081   9.740   8.574 -1.1427 -0.8059 -0.3010
25152SOL    HW282315   9.934   9.767   8.550 -0.9030  1.6602  0.6801
25153SOL     OW82316  11.187   1.421   0.339  0.5451 -0.2490  0.5894
25153SOL    HW182317  11.184   1.328   0.358  1.3134 -0.2670  0.6564
25153SOL    HW282318  11.100   1.453   0.361 -0.1108 -1.1542 -0.5441
25154SOL     OW82319   2.105   5.470   2.344  0.3590 -0.5419  0.5310
25154SOL    HW182320   2.087   5.466   2.250  1.4680 -0.7570  0.3135
25154SOL    HW282321   2.052   5.543   2.376 -1.2369 -1.4340  0.0333
25155SOL     OW82322   4.704   5.808   5.428  0.2116  0.4765 -0.6181
25155SOL    HW182323   4.690   5.741   5.361  1.0227  0.6141 -0.9390
25155SOL    HW282324   4.625   5.862   5.426 -0.2371 -0.1795 -0.6955
25156SOL     OW82325   1.870   7.710   5.572  0.0774  0.2929  0.2986
25156SOL    HW182326   1.950   7.658   5.562 -0.5074 -0.8825  1.3951
25156SOL    HW282327   1.862   7.723   5.667  0.4686  2.8797  0.0617
25157SOL     OW82328   8.323   1.117   0.116 -0.3540  0.3177 -0.0241
25157SOL    HW182329   8.299   1.100   0.207  0.4949  0.8706  0.3099
25157SOL    HW282330   8.240   1.120   0.069 -0.7411 -1.1218  0.5279
25158SOL     OW82331   9.493   5.916  11.547 -0.4391 -0.2762 -0.8838
25158SOL    HW182332   9.470   5.899  11.456 -2.0351 -2.3672 -0.1567
25158SOL    HW282333   9.554   5.846  11.570 -0.7585 -0.3013 -0.0925
25159SOL     OW82334   9.804   4.492   8.802  0.5197  0.1584 -0.1531
25159SOL    HW182335   9.893   4.458   8.789 -0.7823 -2.5667 -3.3666
25159SOL    HW282336   9.817   4.575   8.847  4.4844 -1.2691  1.8570
25160SOL     OW82337  11.254   8.399  11.071  0.9171  0.2807 -0.4321
25160SOL    HW182338  11.219   8.480  11.032  0.7378  0.3605 -0.1096
25160SOL    HW282339  11.332   8.379  11.019 -0.3071 -0.6302 -2.0516
25161SOL     OW82340   9.748   3.797   3.451  0.4413 -0.1430  0.0328
25161SOL    HW182341   9.666   3.773   3.408  0.7437 -0.6629 -0.2663
25161SOL    HW282342   9.747   3.748   3.534  0.8902 -0.9299 -0.4126
25162SOL     OW82343   9.173   1.720   3.857  0.5135  0.0526  0.2197
25162SOL    HW182344   9.113   1.758   3.793 -0.3756  0.4776  1.2773
25162SOL    HW282345   9.190   1.790   3.920  0.7614 -0.5789  0.8809
25163SOL     OW82346   4.892   3.268   8.075  0.3788  0.0914 -0.2372
25163SOL    HW182347   4.957   3.321   8.121 -0.1481  0.1893  0.4062
25163SOL    HW282348   4.944   3.215   8.014  0.9097  1.4486 -1.0154
25164SOL     OW82349   0.249   6.949  11.697  0.2554 -0.1119  0.3220
25164SOL    HW182350   0.184   7.012  11.728 -0.9553 -1.0347 -0.2381
25164SOL    HW282351   0.324   6.962  11.755 -1.1114 -0.2900  2.2535
25165SOL     OW82352  10.017  10.082   1.953  0.6051  0.8199 -0.6535
25165SOL    HW182353  10.104  10.085   1.913  1.4317  0.5066  1.0207
25165SOL    HW282354   9.973  10.010   1.908  2.1656 -0.7632  0.2057
25166SOL     OW82355   1.938   5.964  10.306 -0.3908 -0.4494  0.2454
25166SOL    HW182356   1.985   5.882  10.291  1.1189  0.1231  1.5817
25166SOL    HW282357   1.890   5.950  10.388  1.4303  0.5897  1.5667
25167SOL     OW82358   2.890   5.316   1.222  0.7265  0.1449 -0.2776
25167SOL    HW182359   2.844   5.340   1.142  2.8232  1.2269 -1.2404
25167SOL    HW282360   2.859   5.379   1.287  0.9476  0.9746 -0.9553
25168SOL     OW82361  12.510   3.668   7.401 -0.3190  0.0073  0.6504
25168SOL    HW182362  12.579   3.654   7.336 -0.7529  0.7535  0.0097
25168SOL    HW282363  12.452   3.732   7.360 -1.2649 -0.4329  1.2723
25169SOL     OW82364   5.030   7.300   4.907  0.2997 -0.3341 -0.5041
25169SOL    HW182365   5.064   7.244   4.977  0.5663 -0.3678 -0.6612
25169SOL    HW282366   5.081   7.380   4.914 -2.3645  1.3776  2.0036
25170SOL     OW82367   1.318   5.227   4.419  0.2163  0.2293  0.2509
25170SOL    HW182368   1.404   5.186   4.419  0.2086  0.0693  2.9808
25170SOL    HW282369   1.256   5.154   4.420  0.0887  0.3342 -0.0233
25171SOL     OW82370   8.764   9.997   1.482  0.0830  0.6779 -0.2583
25171SOL    HW182371   8.780  10.045   1.401  2.4366  2.8111  1.3078
25171SOL    HW282372   8.693  10.046   1.525  0.6399  1.1669  0.1222
25172SOL     OW82373   0.257   5.151   0.003  0.4069  1.0784 -0.1753
25172SOL    HW182374   0.244   5.083  -0.063 -1.3949  0.8834  0.3178
25172SOL    HW282375   0.170   5.187   0.019  1.1581  2.8026  0.3511
25173SOL     OW82376   1.691   1.963   1.375  0.5687 -0.2321  0.0673
25173SOL    HW182377   1.720   2.008   1.296  0.1647  1.3935  0.7900
25173SOL    HW282378   1.668   2.034   1.436 -0.1971 -1.4297  1.2445
25174SOL     OW82379  11.551   1.924  11.034 -0.2034  0.1356 -0.6844
25174SOL    HW182380  11.588   1.836  11.025  0.7670  0.5629 -0.9386
25174SOL    HW282381  11.499   1.936  10.954 -0.7805 -0.3999 -0.4027
25175SOL     OW82382  10.158   1.323  11.213  0.2969  0.3210 -0.0092
25175SOL    HW182383  10.185   1.256  11.150  1.4781  2.2133 -1.6320
25175SOL    HW282384  10.219   1.313  11.286  0.2167 -0.6177 -0.0642
25176SOL     OW82385  11.745   2.612   8.164  0.1763 -0.4097  0.7080
25176SOL    HW182386  11.837   2.612   8.193  0.4427  1.0541 -0.0301
25176SOL    HW282387  11.696   2.577   8.238  1.5886 -4.5653 -0.0038
25177SOL     OW82388   0.457   4.179  11.873  0.0542  0.4800 -0.2110
25177SOL    HW182389   0.496   4.259  11.838  1.5752 -0.7295 -1.4315
25177SOL    HW282390   0.372   4.172  11.830 -1.2304  2.6294  1.7230
25178SOL     OW82391  12.177  10.476   1.342  0.3594  0.1692  0.1266
25178SOL    HW182392  12.092  10.435   1.324  1.6709 -2.2437 -1.0464
25178SOL    HW282393  12.212  10.426   1.416  1.0912  0.6409  0.1031
25179SOL     OW82394   3.491   3.514   4.551 -0.0988 -0.1522 -0.0394
25179SOL    HW182395   3.406   3.476   4.571 -0.1215  0.4482  1.1240
25179SOL    HW282396   3.547   3.487   4.624  0.8697 -0.9815 -1.0567
25180SOL     OW82397   9.635   8.351   0.289 -0.0125 -0.0723  0.4138
25180SOL    HW182398   9.611   8.282   0.228  0.8634 -1.8141  1.9519
25180SOL    HW282399   9.698   8.405   0.241  0.7135 -1.4352 -0.2046
25181SOL     OW82400   6.011  10.974   4.150 -0.1870 -0.3322  0.5271
25181SOL    HW182401   5.917  10.960   4.137 -0.5137  1.2499  0.9946
25181SOL    HW282402   6.053  10.913   4.090 -1.5135 -1.0312  0.2775
25182SOL     OW82403   1.371  10.102   2.023  0.1624 -0.0534 -0.1728
25182SOL    HW182404   1.368  10.111   1.928 -1.7645 -0.6393 -0.2195
25182SOL    HW282405   1.325  10.020   2.041 -2.0487  1.4071  1.3685
25183SOL     OW82406   7.584   8.373   4.837  0.0507 -1.0880 -0.0734
25183SOL    HW182407   7.575   8.311   4.765  0.5510  0.0818 -1.1871
25183SOL    HW282408   7.500   8.420   4.839 -0.4671 -2.0267  1.0116
25184SOL     OW82409  12.195  10.653   2.048 -0.1925 -1.0941  0.4650
25184SOL    HW182410  12.274  10.704   2.030 -0.9836  0.1136  0.2295
25184SOL    HW282411  12.187  10.593   1.974  1.1218 -2.0436  1.0788
25185SOL     OW82412   4.963  11.120   2.486  0.4086  0.3341 -0.1911
25185SOL    HW182413   4.935  11.203   2.525  0.7966 -0.5498  2.1746
25185SOL    HW282414   5.027  11.085   2.549  2.3507 -0.4818 -2.4748
25186SOL     OW82415   7.824   3.372   8.880  0.0712  0.2580  0.5673
25186SOL    HW182416   7.743   3.321   8.877  0.0144  0.3450  0.5931
25186SOL    HW282417   7.894   3.307   8.880  0.0948  0.1911 -2.2396
25187SOL     OW82418   3.409   0.465   6.840  0.2654 -0.5241  0.7661
25187SOL    HW182419   3.377   0.377   6.861  0.3790 -1.2566 -1.7450
25187SOL    HW282420   3.348   0.524   6.885 -1.3145 -1.8946  0.5359
25188SOL     OW82421   3.758   0.131   8.813 -0.0600 -0.2779 -0.5997
25188SOL    HW182422   3.673   0.165   8.842  0.5262 -0.0339  0.9322
25188SOL    HW282423   3.759   0.147   8.719 -1.3063  0.6197 -0.4921
25189SOL     OW82424   1.174  10.800  11.633  0.5811 -0.0272  0.0851
25189SOL    HW182425   1.190  10.818  11.541 -2.2939 -0.4917 -0.6191
25189SOL    HW282426   1.125  10.876  11.664  0.3920 -0.4503  0.8527
25190SOL     OW82427   3.382  11.121   6.896  0.0817 -0.0784 -0.1526
25190SOL    HW182428   3.437  11.138   6.972 -0.8749  0.8723  0.3539
25190SOL    HW282429   3.304  11.079   6.932 -0.1443 -0.1128 -0.6743
25191SOL     OW82430   5.256   8.914  10.071  0.1668 -0.0886 -0.7134
25191SOL    HW182431   5.330   8.869  10.111 -0.4719 -0.1372  0.4534
25191SOL    HW282432   5.180   8.860  10.094 -0.7001  1.7762  1.1673
25192SOL     OW82433   9.742   6.925  11.841 -0.4980 -0.3632 -0.0058
25192SOL    HW182434   9.812   6.886  11.789 -1.9647 -4.2691  0.6333
25192SOL    HW282435   9.664   6.917  11.785 -1.3991 -1.1877  1.3109
25193SOL     OW82436   3.609  12.031  11.110  0.2049  0.1766  0.7041
25193SOL    HW182437   3.574  11.962  11.053 -0.8979 -0.4652  2.1108
25193SOL    HW282438   3.639  12.099  11.049 -0.8356 -0.5319 -0.6537
25194SOL     OW82439  11.996   7.769   4.796  0.0774  0.1675  0.1327
25194SOL    HW182440  11.921   7.760   4.855 -0.5287 -0.1529 -0.6727
25194SOL    HW282441  12.051   7.693   4.817  1.0988  1.3168  1.9535
25195SOL     OW82442   1.976   9.467  12.050 -0.4045 -0.0377 -0.0180
25195SOL    HW182443   2.070   9.454  12.045 -0.2087  1.2719 -0.0848
25195SOL    HW282444   1.954   9.447  12.141 -0.2270 -1.2274 -0.2187
25196SOL     OW82445   8.377   9.968   0.215 -0.4165 -0.0717  0.2817
25196SOL    HW182446   8.369  10.022   0.136 -2.5192 -0.5175  0.1414
25196SOL    HW282447   8.290   9.969   0.254 -0.3990 -2.9463  0.5765
25197SOL     OW82448   5.228  11.929   8.712  0.2824  0.2215  0.0637
25197SOL    HW182449   5.270  11.885   8.785  0.1599 -2.4202 -1.3491
25197SOL    HW282450   5.301  11.969   8.664  0.9385 -1.8029 -0.7337
25198SOL     OW82451   9.144   6.316   3.692  0.3766 -0.2502 -0.3252
25198SOL    HW182452   9.232   6.285   3.670 -0.0300 -0.7964 -1.2307
25198SOL    HW282453   9.086   6.272   3.629 -0.7173 -1.0040  1.1542
25199SOL     OW82454   0.126   5.159   4.794  0.3509  0.0223 -0.1696
25199SOL    HW182455   0.076   5.214   4.855  1.9221 -0.4323  1.6352
25199SOL    HW282456   0.213   5.199   4.794  0.4791 -0.2287 -1.8661
25200SOL     OW82457  10.159   7.560   1.360 -0.4520 -0.0734  0.1772
25200SOL    HW182458  10.102   7.598   1.427  1.5702  0.3005  1.7662
25200SOL    HW282459  10.195   7.636   1.314 -0.0909 -0.2549  0.1627
25201SOL     OW82460   7.066  11.534   5.675  0.3755  0.0679 -0.0349
25201SOL    HW182461   7.064  11.534   5.770 -1.0984  0.0624 -0.0484
25201SOL    HW282462   7.081  11.626   5.651  1.0712  0.0164  0.2016
25202SOL     OW82463  12.129   9.990   3.326 -0.4939 -0.1452 -0.0914
25202SOL    HW182464  12.207  10.021   3.280  0.3213 -0.8901  0.7464
25202SOL    HW282465  12.063   9.982   3.258  1.0275 -2.4735 -1.4506
25203SOL     OW82466  11.626   3.938   0.203 -0.3025  0.1273  0.0197
25203SOL    HW182467  11.669   4.019   0.228  1.1648 -0.9814  1.2873
25203SOL    HW282468  11.630   3.883   0.281 -0.8786 -1.3317 -0.9235
25204SOL     OW82469   1.734   0.100   5.433  0.4703  0.1170  0.3009
25204SOL    HW182470   1.806   0.043   5.407 -0.6550 -1.0557 -0.4080
25204SOL    HW282471   1.661   0.040   5.449 -0.5067  1.3000  0.4377
25205SOL     OW82472  10.508   4.930  10.536 -0.3490  0.1470  0.1400
25205SOL    HW182473  10.588   4.880  10.549 -0.3602  0.3536  1.0688
25205SOL    HW282474  10.437   4.867  10.550 -0.3611  0.0696 -0.2426
25206SOL     OW82475   3.629   4.532   1.660 -0.1058 -0.2515 -0.8447
25206SOL    HW182476   3.639   4.552   1.753  0.3596 -0.8433 -0.7624
25206SOL    HW282477   3.545   4.487   1.654 -0.1545 -0.1779 -0.7144
25207SOL     OW82478   3.492  12.037   7.258  0.4013  0.9822  0.2755
25207SOL    HW182479   3.567  12.022   7.316  1.5178 -0.5772 -1.4511
25207SOL    HW282480   3.514  12.117   7.210  1.5235  0.0150 -0.9255
25208SOL     OW82481   4.477  12.021   7.083 -0.2214  0.3225 -0.1163
25208SOL    HW182482   4.455  12.017   6.990  1.4305  0.8690 -0.5683
25208SOL    HW282483   4.526  11.940   7.099 -0.6006  0.1748  0.3203
25209SOL     OW82484  10.746   6.283  10.475  0.5276  0.4027  0.3681
25209SOL    HW182485  10.744   6.262  10.568  0.9653  1.1995  0.5681
25209SOL    HW282486  10.818   6.345  10.466  1.9324 -1.2793 -0.8517
25210SOL     OW82487  10.121   1.348   7.446  0.0558  0.2603 -0.0853
25210SOL    HW182488  10.148   1.438   7.463 -2.2084  1.5870 -2.7578
25210SOL    HW282489  10.136   1.336   7.352  0.0046 -2.1044  0.1355
25211SOL     OW82490  11.520   2.503   9.674  0.2480 -0.0543  0.3893
25211SOL    HW182491  11.471   2.550   9.741  1.5104 -0.2729  1.5333
25211SOL    HW282492  11.478   2.417   9.670 -0.5530  0.3468  0.0576
25212SOL     OW82493   8.960   5.780   9.412 -0.0169  0.4731 -0.2671
25212SOL    HW182494   8.924   5.691   9.408  0.5813 -0.0426  2.6969
25212SOL    HW282495   8.958   5.801   9.506  1.4716  2.9038 -0.7137
25213SOL     OW82496   6.215   9.947   0.634 -0.1284  0.2076  0.1726
25213SOL    HW182497   6.276   9.987   0.696 -0.2700 -1.7513  1.6856
25213SOL    HW282498   6.213   9.854   0.659 -0.3157 -0.6544 -2.7228
25214SOL     OW82499   3.044   8.021   4.505 -0.1995  0.1780 -0.3974
25214SOL    HW182500   3.117   7.958   4.509  0.9612  1.4673 -0.6152
25214SOL    HW282501   3.052   8.061   4.418 -0.6641  0.9215 -0.0994
25215SOL     OW82502   3.085  11.053   5.659 -0.0672  0.4243  0.2099
25215SOL    HW182503   2.992  11.054   5.683  0.3253 -0.4976  1.9410
25215SOL    HW282504   3.085  11.025   5.568 -1.4689 -0.8850  0.5508
25216SOL     OW82505   2.939   9.290   8.745 -0.2055 -0.7504  0.2881
25216SOL    HW182506   2.867   9.329   8.696 -0.3477 -0.4264  0.7436
25216SOL    HW282507   2.902   9.273   8.832  0.1745 -0.8692  0.4295
25217SOL     OW82508   0.363   3.927   2.759 -0.0478  0.5234 -0.1880
25217SOL    HW182509   0.404   3.987   2.696 -0.5091  1.0720  0.0261
25217SOL    HW282510   0.273   3.957   2.765 -0.3949 -0.4518 -0.3737
25218SOL     OW82511   9.438  10.025   2.512 -0.5923  0.3409 -1.0110
25218SOL    HW182512   9.481  10.084   2.574 -0.8677  2.1332 -2.4606
25218SOL    HW282513   9.357   9.999   2.556  0.2266 -0.2079  0.2568
25219SOL     OW82514   0.279   1.300   9.445  0.3661  0.1140  0.5692
25219SOL    HW182515   0.310   1.226   9.497 -0.7125  0.1739  1.3415
25219SOL    HW282516   0.270   1.372   9.508  0.4032  0.6016  0.0282
25220SOL     OW82517   1.707   9.897   9.965 -0.0035 -0.0389  0.2884
25220SOL    HW182518   1.726   9.901  10.059 -1.6659  1.5672  0.6195
25220SOL    HW282519   1.773   9.838   9.930  1.3901  0.2082  2.2861
25221SOL     OW82520  10.809   9.587  10.376  0.3694 -0.1100 -0.6132
25221SOL    HW182521  10.887   9.628  10.414  0.2781 -0.0367 -0.5012
25221SOL    HW282522  10.748   9.580  10.450  0.5836 -0.9434 -0.5055
25222SOL     OW82523   7.035  12.249   2.702 -0.4252  0.1752 -0.0279
25222SOL    HW182524   7.099  12.271   2.770  0.2793 -1.8446  0.0355
25222SOL    HW282525   6.957  12.222   2.750 -0.8565  1.2676 -0.0887
25223SOL     OW82526   2.691  12.544   6.975  0.0252  0.1289  0.0414
25223SOL    HW182527   2.716  12.625   7.019 -2.9412  0.4209  1.4370
25223SOL    HW282528   2.683  12.568   6.883 -0.4119  1.3485  0.3790
25224SOL     OW82529   1.845   6.815   4.047  0.5305  0.6399 -0.0773
25224SOL    HW182530   1.843   6.888   4.109  1.3928  0.1241  0.5602
25224SOL    HW282531   1.937   6.794   4.037  0.4882  1.1285 -2.0525
25225SOL     OW82532   0.300   4.410   6.056  0.2301 -0.3220  0.0441
25225SOL    HW182533   0.244   4.353   6.109  0.2839 -0.1096  0.3352
25225SOL    HW282534   0.321   4.359   5.979  1.3272 -1.1788  0.8893
25226SOL     OW82535   6.802   7.618   0.602  0.1802  0.3637 -0.4240
25226SOL    HW182536   6.713   7.623   0.568  0.2332  0.6259 -0.5285
25226SOL    HW282537   6.852   7.575   0.534  0.1870  0.4543 -0.4767
25227SOL     OW82538   6.135   6.364   0.538  0.3360  0.2883  0.2953
25227SOL    HW182539   6.040   6.379   0.542 -0.0257 -1.5634 -0.2790
25227SOL    HW282540   6.160   6.392   0.450 -0.0758 -1.0796 -0.2806
25228SOL     OW82541   1.566  10.099   9.004  0.1546  0.2695  0.4810
25228SOL    HW182542   1.612  10.114   8.921  0.3097 -0.4012  0.4361
25228SOL    HW282543   1.533  10.009   8.997  0.1600  0.2097  1.1391
25229SOL     OW82544   0.497   9.011   7.112  0.5814  0.3755  0.3070
25229SOL    HW182545   0.485   9.093   7.064  0.6267 -1.1214 -2.4413
25229SOL    HW282546   0.500   9.037   7.204  0.9888  3.4721 -0.4892
25230SOL     OW82547   1.845   6.572   5.956 -0.7911 -0.8178  0.1855
25230SOL    HW182548   1.813   6.533   6.038 -0.9452 -2.0703 -0.4518
25230SOL    HW282549   1.939   6.560   5.959 -0.9491 -2.3833 -0.5641
25231SOL     OW82550   5.866   8.972  10.084 -0.1322 -0.5811 -0.8428
25231SOL    HW182551   5.933   9.040  10.090 -1.1039  0.2785  1.5309
25231SOL    HW282552   5.798   9.012  10.028 -0.1678 -0.0666 -0.4421
25232SOL     OW82553   4.854   5.881   3.192 -0.2306 -0.1593 -0.0192
25232SOL    HW182554   4.857   5.971   3.226 -0.5453  0.1496 -0.7763
25232SOL    HW282555   4.902   5.885   3.110 -0.8938 -0.5122 -0.4331
25233SOL     OW82556  12.430   3.446   9.110 -0.2184  0.3021  0.1372
25233SOL    HW182557  12.499   3.410   9.054  1.3429 -0.4957  2.4116
25233SOL    HW282558  12.441   3.540   9.104  0.8405  0.1928  0.1621
25234SOL     OW82559   0.103   0.828   2.263  0.0674 -0.1900 -0.3973
25234SOL    HW182560   0.135   0.744   2.296  1.0480 -0.0531 -0.9863
25234SOL    HW282561   0.046   0.861   2.333  2.7220  0.4999  1.5599
25235SOL     OW82562   3.105  11.767   2.248 -0.6022  0.7275 -0.1473
25235SOL    HW182563   3.046  11.715   2.194  0.3279 -2.2660  1.5304
25235SOL    HW282564   3.050  11.836   2.285 -2.5240 -0.6395 -0.3694
25236SOL     OW82565  12.493   6.704   9.344 -0.1205  0.5253  0.0266
25236SOL    HW182566  12.554   6.685   9.274 -1.4355  0.3016 -1.0936
25236SOL    HW282567  12.443   6.780   9.313 -1.9971 -0.7236 -0.1506
25237SOL     OW82568   0.228   1.795  10.359 -0.1875  0.0280  0.1923
25237SOL    HW182569   0.171   1.769  10.432  1.6765 -2.7496  0.8297
25237SOL    HW282570   0.274   1.873  10.390 -1.1403  0.2809  1.0102
25238SOL     OW82571   9.463   8.501  11.375 -0.2094 -0.4119 -0.5992
25238SOL    HW182572   9.536   8.505  11.437  0.0288  1.0003 -0.9323
25238SOL    HW282573   9.412   8.580  11.393  0.1823  0.3600 -2.5373
25239SOL     OW82574   9.135   9.566   4.917  0.2360 -0.4863  0.3376
25239SOL    HW182575   9.095   9.492   4.872 -0.1387  0.0387 -0.1988
25239SOL    HW282576   9.096   9.643   4.877 -0.0849 -0.0067  1.5451
25240SOL     OW82577  11.169   2.900   6.694  0.3139  0.0390  0.2524
25240SOL    HW182578  11.235   2.851   6.646 -1.1444 -1.0712 -0.7285
25240SOL    HW282579  11.090   2.893   6.640 -0.6510  1.1957  1.4315
25241SOL     OW82580   9.846   1.291   4.009  0.3485 -0.2544  0.8935
25241SOL    HW182581   9.939   1.275   4.023  0.8295  1.7501  0.4444
25241SOL    HW282582   9.815   1.215   3.960  2.5396  0.3772 -1.7709
25242SOL     OW82583   8.200   0.110   8.159  0.2334 -0.2666 -0.0019
25242SOL    HW182584   8.195   0.203   8.181 -2.5015 -0.0116 -1.3407
25242SOL    HW282585   8.191   0.107   8.064 -2.6400 -1.9701  0.2088
25243SOL     OW82586  10.522   5.897   9.589 -0.2716 -0.0248  0.2351
25243SOL    HW182587  10.438   5.903   9.544 -0.9800  2.3066  1.7009
25243SOL    HW282588  10.578   5.960   9.543 -0.7295  1.7061  1.9398
25244SOL     OW82589   8.458   0.782   4.093  0.9027 -0.0723 -0.3851
25244SOL    HW182590   8.418   0.793   4.007  0.8686  1.8091 -0.1634
25244SOL    HW282591   8.432   0.694   4.120  0.6323 -0.5814 -2.1360
25245SOL     OW82592   2.781   9.531   0.938  0.1673 -0.1600  0.3854
25245SOL    HW182593   2.741   9.523   0.851 -2.1066  0.9306  1.2624
25245SOL    HW282594   2.820   9.618   0.939 -0.0590 -0.0600  0.5533
25246SOL     OW82595   7.794  12.535  11.301  0.1662 -0.5429  0.7495
25246SOL    HW182596   7.875  12.557  11.348 -0.2305  2.3111  0.2961
25246SOL    HW282597   7.727  12.585  11.347 -1.1466 -1.8301  0.2868
25247SOL     OW82598  10.958   5.773   5.993 -0.0200  0.6528 -0.0882
25247SOL    HW182599  10.917   5.700   6.040 -0.3747  0.2570 -0.9888
25247SOL    HW282600  11.029   5.732   5.943 -0.9525  0.6936 -1.5289
25248SOL     OW82601   2.816   6.326   2.716  0.0459 -0.3338 -0.4394
25248SOL    HW182602   2.912   6.336   2.717  0.3562 -2.0653 -3.1629
25248SOL    HW282603   2.786   6.391   2.653 -0.6361  0.3167  0.5337
25249SOL     OW82604   0.349   2.798  10.365  0.5909  0.0261 -0.0896
25249SOL    HW182605   0.361   2.823  10.274 -1.2388  1.8163  0.0851
25249SOL    HW282606   0.426   2.833  10.410  0.5698  0.8175 -0.6618
25250SOL     OW82607   3.317   3.352   6.443 -0.1342  0.3071 -0.6916
25250SOL    HW182608   3.355   3.397   6.519 -0.4241  0.5358 -0.6810
25250SOL    HW282609   3.371   3.382   6.369  0.2603 -0.0539 -0.5562
25251SOL     OW82610   3.976   7.796   1.136  0.3157 -0.0328  0.0683
25251SOL    HW182611   3.911   7.864   1.121  2.0690  1.5600 -0.7555
25251SOL    HW282612   3.947   7.752   1.216 -1.5205  0.8789 -0.0507
25252SOL     OW82613   3.550   6.033   4.228  0.0689  0.1528 -0.3255
25252SOL    HW182614   3.505   6.118   4.234  1.6188  1.0743 -0.9522
25252SOL    HW282615   3.507   5.987   4.157 -0.7281  0.4584 -0.0494
25253SOL     OW82616   5.110  10.247   5.528 -0.1857  0.1330 -0.3631
25253SOL    HW182617   5.153  10.320   5.572 -0.4074 -0.2670  0.5446
25253SOL    HW282618   5.022  10.279   5.509  0.5639  1.0683 -2.5190
25254SOL     OW82619   0.322   0.595   0.867 -1.4265  0.6945  0.1973
25254SOL    HW182620   0.299   0.671   0.920  0.2029  1.4445 -0.1021
25254SOL    HW282621   0.287   0.520   0.915 -1.6308  1.5077  1.3528
25255SOL     OW82622   1.637   7.678   7.939 -0.0362 -0.3787 -0.4986
25255SOL    HW182623   1.591   7.598   7.912 -0.5990 -0.0389 -0.5625
25255SOL    HW282624   1.730   7.655   7.934 -0.1726 -0.7962 -1.2642
25256SOL     OW82625   7.338   1.948   7.799 -0.3460 -0.2223 -0.0427
25256SOL    HW182626   7.279   2.022   7.789 -0.8318 -0.8792 -2.7921
25256SOL    HW282627   7.323   1.894   7.722  1.3620 -2.2219  0.9131
25257SOL     OW82628   8.820   6.447   6.553 -0.2092  0.8543  0.1648
25257SOL    HW182629   8.881   6.376   6.569  0.0686  1.5657  2.5793
25257SOL    HW282630   8.773   6.421   6.473  1.7714 -0.6754 -0.5653
25258SOL     OW82631   0.748   6.800   8.989 -1.0167 -0.0236 -0.2476
25258SOL    HW182632   0.668   6.815   8.940 -0.4867  1.7435 -0.6485
25258SOL    HW282633   0.723   6.813   9.081 -1.0977  1.0970 -0.4137
25259SOL     OW82634   9.758   0.989  11.505  0.0232 -0.5695  0.0312
25259SOL    HW182635   9.771   0.976  11.411  0.2230 -0.4900  0.0482
25259SOL    HW282636   9.728   1.080  11.513  0.7619 -0.3307  0.1159
25260SOL     OW82637   0.290   3.431  10.345  0.0242 -0.4715  0.1192
25260SOL    HW182638   0.340   3.392  10.273 -1.4147 -2.5443  0.1229
25260SOL    HW282639   0.291   3.364  10.413 -1.8246 -0.1568  0.5086
25261SOL     OW82640   8.373  11.009   4.978  0.0838  0.1608 -0.3770
25261SOL    HW182641   8.424  11.056   5.045  1.0227 -0.9854 -0.2452
25261SOL    HW282642   8.349  11.076   4.915  0.9236  0.9216  0.0830
25262SOL     OW82643  11.683   5.430   9.837 -0.0220  0.5390  0.7937
25262SOL    HW182644  11.622   5.495   9.802 -0.0547  0.2554  0.3118
25262SOL    HW282645  11.663   5.427   9.930 -1.7125 -0.5199  0.4496
25263SOL     OW82646   5.871   3.358  11.988  0.0137  0.2963 -0.3151
25263SOL    HW182647   5.851   3.378  12.080 -1.5597  0.0002 -0.5727
25263SOL    HW282648   5.806   3.407  11.938 -0.9369 -1.6740 -1.1401
25264SOL     OW82649   6.167   0.718  11.648  0.5275 -0.0708 -0.2899
25264SOL    HW182650   6.164   0.631  11.609  0.4640  0.0109 -0.4667
25264SOL    HW282651   6.208   0.705  11.734  0.2088 -0.3254 -0.1770
25265SOL     OW82652   2.761   1.184   8.032 -0.8151  0.2931  0.2383
25265SOL    HW182653   2.762   1.270   8.073 -0.0440  0.4272 -0.0521
25265SOL    HW282654   2.682   1.142   8.066 -1.7157  1.4651 -0.3615
25266SOL     OW82655  12.060   7.385  10.812 -0.2896 -0.1930  0.1795
25266SOL    HW182656  12.035   7.304  10.857 -0.0313 -0.0261  0.6290
25266SOL    HW282657  12.151   7.370  10.784  0.4619  0.6708  2.0101
25267SOL     OW82658  12.531  10.263  10.590 -0.8051 -0.0757 -0.5586
25267SOL    HW182659  12.446  10.257  10.547 -0.4505 -0.6003 -1.1950
25267SOL    HW282660  12.585  10.314  10.530 -1.2258  2.0458  0.7539
25268SOL     OW82661   7.562   2.364   9.385  0.2938  0.4001 -0.4140
25268SOL    HW182662   7.626   2.431   9.360 -0.5276  1.1727 -0.5020
25268SOL    HW282663   7.520   2.340   9.303  0.9275 -0.6113 -0.4599
25269SOL     OW82664  10.259   7.006   8.087  0.2425  0.1586 -0.0054
25269SOL    HW182665  10.201   6.933   8.069  1.0002 -0.2199 -1.0027
25269SOL    HW282666  10.210   7.061   8.148 -1.3258  0.0668 -1.1319
25270SOL     OW82667   0.878   3.027   0.179  0.2681 -0.2297 -0.2405
25270SOL    HW182668   0.877   2.936   0.210  0.1654 -0.5258 -1.0766
25270SOL    HW282669   0.786   3.050   0.171  0.2878 -0.3030 -0.7184
25271SOL     OW82670   6.536   1.929   7.462  0.7554 -0.2147 -0.2072
25271SOL    HW182671   6.552   1.835   7.456 -0.7880 -0.8216  3.1381
25271SOL    HW282672   6.567   1.953   7.549  0.9923  2.3852 -0.9362
25272SOL     OW82673  12.511   1.956   6.040  0.5942 -0.2935  0.8145
25272SOL    HW182674  12.557   1.872   6.053  2.6236  0.5860 -0.2786
25272SOL    HW282675  12.579   2.017   6.013 -1.6171  0.3490 -4.4403
25273SOL     OW82676   3.220   8.374   8.314 -0.2678 -0.0795  0.5006
25273SOL    HW182677   3.309   8.342   8.323 -0.0565  0.1778 -0.5177
25273SOL    HW282678   3.219   8.459   8.358  0.1233  0.1397  0.0926
25274SOL     OW82679   5.564   9.113   8.568  0.3945 -0.0482  0.1717
25274SOL    HW182680   5.613   9.086   8.645  0.1083  1.1189  0.7851
25274SOL    HW282681   5.626   9.106   8.495  1.2725  0.7440  0.8283
25275SOL     OW82682   2.946   2.961   1.213 -0.3013 -0.0198 -0.5295
25275SOL    HW182683   2.989   2.953   1.128 -0.1034 -0.9119 -0.3551
25275SOL    HW282684   2.853   2.973   1.192 -0.1163  0.9488 -0.8823
25276SOL     OW82685   8.795   6.360   2.435 -0.0598  0.8137 -0.1749
25276SOL    HW182686   8.735   6.338   2.363  1.4141 -0.1608 -1.1666
25276SOL    HW282687   8.808   6.277   2.480 -0.9984  1.4287  1.2867
25277SOL     OW82688  10.465   3.424   7.940 -0.4786 -0.0081  0.6624
25277SOL    HW182689  10.450   3.429   7.845 -2.0347  2.2351  0.9433
25277SOL    HW282690  10.380   3.447   7.978  0.6549  1.2836  2.5724
25278SOL     OW82691  12.452  11.925   0.319  0.4415 -0.3371  0.3426
25278SOL    HW182692  12.481  11.869   0.247 -0.3078 -0.5658  0.2036
25278SOL    HW282693  12.373  11.882   0.353 -0.9840  1.3141 -0.6839
25279SOL     OW82694  11.777   6.585   8.347 -0.1415  0.3570  0.2773
25279SOL    HW182695  11.766   6.619   8.435 -0.0795 -0.6129  0.6733
25279SOL    HW282696  11.864   6.614   8.321 -0.1739  0.6762  0.5188
25280SOL     OW82697  12.423  10.757  12.051  0.2585  0.4812  0.0142
25280SOL    HW182698  12.349  10.696  12.056  0.8318 -0.1670  0.9452
25280SOL    HW282699  12.482  10.718  11.987  0.1985  0.5456 -0.0804
25281SOL     OW82700  11.897  12.047   2.576 -0.6755  0.5361 -0.0895
25281SOL    HW182701  11.946  12.039   2.494 -0.7466 -1.9955  0.0378
25281SOL    HW282702  11.813  12.085   2.550 -0.0180  1.4803 -0.8876
25282SOL     OW82703  11.219   1.415  10.075  0.1543  0.1673 -0.1626
25282SOL    HW182704  11.196   1.488  10.133 -1.2383 -0.6655  0.3849
25282SOL    HW282705  11.294   1.375  10.118  0.2355  0.6153  0.1307
25283SOL     OW82706   5.244   3.754   4.842 -0.0770  0.0284  0.2909
25283SOL    HW182707   5.288   3.815   4.782 -0.3323  0.2688  0.3503
25283SOL    HW282708   5.193   3.697   4.784 -0.2362  0.1904  0.2712
25284SOL     OW82709   1.749   4.485   2.825  0.2033  0.1496 -0.6393
25284SOL    HW182710   1.791   4.404   2.856 -3.6999 -1.9599 -0.1944
25284SOL    HW282711   1.767   4.549   2.893 -0.2500 -1.6835  1.3255
25285SOL     OW82712  10.089   2.006   1.935 -0.2155 -0.1896  0.3730
25285SOL    HW182713  10.061   2.046   2.018 -0.8479 -0.1889  0.1632
25285SOL    HW282714  10.032   2.045   1.869  0.7359  0.3081 -0.1609
25286SOL     OW82715   0.280   7.252  11.392  0.5342  0.0488  0.3185
25286SOL    HW182716   0.215   7.282  11.454  1.3377 -0.5825  1.5212
25286SOL    HW282717   0.299   7.162  11.419  0.3022 -0.5518 -1.3703
25287SOL     OW82718   4.121   8.083  12.054  0.1428  0.1201  0.4301
25287SOL    HW182719   4.200   8.114  12.098 -1.1060 -0.6645  3.4362
25287SOL    HW282720   4.152   8.009  12.000  1.4048 -0.6704  2.1211
25288SOL     OW82721   0.462   5.927   9.607 -0.3116  0.0181  0.2892
25288SOL    HW182722   0.487   5.951   9.696 -1.4452 -1.9583  1.2035
25288SOL    HW282723   0.430   6.009   9.569  1.6507  1.2583  1.1124
25289SOL     OW82724   2.993   3.738  11.771 -0.1916  0.1803 -0.0123
25289SOL    HW182725   3.064   3.731  11.835 -1.1363 -0.4103  1.0124
25289SOL    HW282726   3.010   3.668  11.708  1.0271  1.0834 -0.7119
25290SOL     OW82727   2.628   1.052   7.721 -0.5384  0.0172 -0.0024
25290SOL    HW182728   2.680   1.040   7.800  0.5646  2.9116 -0.1843
25290SOL    HW282729   2.612   1.146   7.717  0.3916  0.1448 -3.7997
25291SOL     OW82730   8.691   4.578  12.245  0.0761 -0.7868  0.4289
25291SOL    HW182731   8.742   4.502  12.272  2.6089  0.1454 -1.4034
25291SOL    HW282732   8.648   4.608  12.325  1.8290 -2.0805  1.9257
25292SOL     OW82733   6.995   7.070   6.710  0.0132  0.1137  0.9604
25292SOL    HW182734   6.944   7.080   6.790  0.8729 -0.7092  1.6354
25292SOL    HW282735   7.086   7.067   6.740  0.2852 -1.2675  0.0596
25293SOL     OW82736   3.047   0.447   1.424 -0.0606  0.1861  0.2679
25293SOL    HW182737   2.990   0.521   1.441 -1.0126 -0.5617  0.4424
25293SOL    HW282738   3.108   0.478   1.357 -1.6940  0.5341 -1.1236
25294SOL     OW82739   5.979   4.233   5.219 -0.2711 -0.5377 -0.5001
25294SOL    HW182740   5.982   4.263   5.310  0.5095  1.5216 -1.1607
25294SOL    HW282741   5.900   4.179   5.214 -1.2127  0.6378  1.0024
25295SOL     OW82742   2.805   8.210   0.910  0.5222 -0.2455  0.0300
25295SOL    HW182743   2.744   8.278   0.883 -0.3817 -0.3330  1.7089
25295SOL    HW282744   2.767   8.175   0.991  1.4659 -2.0736 -0.2631
25296SOL     OW82745   4.540  10.779   1.853  0.6185 -0.1252  0.1437
25296SOL    HW182746   4.559  10.686   1.859  0.7329 -0.1457 -0.4642
25296SOL    HW282747   4.446  10.787   1.869  0.6084 -0.3479  0.1841
25297SOL     OW82748   2.987   8.175  12.472  0.0210  0.5024  0.0936
25297SOL    HW182749   3.006   8.264  12.441 -3.4687  1.5342  0.4190
25297SOL    HW282750   3.008   8.177  12.565 -1.3769  1.5529  0.4294
25298SOL     OW82751   4.424   8.912   1.931  0.8315 -0.1158 -0.0887
25298SOL    HW182752   4.479   8.846   1.973 -0.1761 -0.2127  1.1533
25298SOL    HW282753   4.370   8.863   1.869 -2.3817 -1.2078  3.2158
25299SOL     OW82754   5.829   9.639   7.168  0.3145 -0.9094 -0.1584
25299SOL    HW182755   5.880   9.571   7.212  1.0180 -0.1784  0.1704
25299SOL    HW282756   5.821   9.709   7.232  0.6931 -0.1420 -0.9291
25300SOL     OW82757   9.050   0.069   4.515  0.8725  0.0844 -1.2067
25300SOL    HW182758   8.964   0.027   4.520  0.0115  1.8195  2.2479
25300SOL    HW282759   9.036   0.146   4.460  0.2038  0.2916 -0.7607
25301SOL     OW82760  10.087   8.673   3.518 -0.1621 -0.4426  0.1940
25301SOL    HW182761  10.050   8.721   3.444  0.3355 -0.0139  0.2180
25301SOL    HW282762  10.039   8.590   3.520 -1.9017  0.5443  0.9114
25302SOL     OW82763   0.043  11.770   3.793  0.1306  0.1279 -0.1571
25302SOL    HW182764   0.035  11.737   3.704  1.4510  0.9303 -0.6120
25302SOL    HW282765   0.064  11.863   3.782  0.2169  0.2598  0.9967
25303SOL     OW82766  11.319   2.297   0.724  0.1468  0.0535 -0.2009
25303SOL    HW182767  11.340   2.213   0.683  0.5663 -0.5171  1.1299
25303SOL    HW282768  11.384   2.358   0.689  2.4656 -1.0985  1.8596
25304SOL     OW82769   6.890   0.657   3.987 -0.1748 -0.2240 -0.5803
25304SOL    HW182770   6.861   0.582   3.934 -0.5532 -0.6959  0.2699
25304SOL    HW282771   6.824   0.724   3.971  1.3315  0.8114 -3.1175
25305SOL     OW82772   4.365   8.397  11.561  0.6932  0.4062  0.2458
25305SOL    HW182773   4.455   8.423  11.540  0.7132  0.3964  0.3182
25305SOL    HW282774   4.370   8.366  11.651  0.6876  0.0648  0.1297
25306SOL     OW82775  11.361   5.554  10.589 -0.4322  0.1858  0.4384
25306SOL    HW182776  11.451   5.546  10.619 -0.9578  2.3543  3.0130
25306SOL    HW282777  11.365   5.534  10.496  2.3385 -1.6112  0.8237
25307SOL     OW82778   9.007  10.991   7.990 -0.3229  0.1004  0.9235
25307SOL    HW182779   8.981  11.071   7.945 -1.0769  0.4589  1.9403
25307SOL    HW282780   8.924  10.955   8.023 -0.2960 -2.2276 -1.2570
25308SOL     OW82781   5.171   2.265   6.660  0.6561 -0.2249 -0.3685
25308SOL    HW182782   5.157   2.340   6.602 -1.8825 -0.0614  0.3077
25308SOL    HW282783   5.260   2.276   6.694  0.7622  1.8266 -1.1926
25309SOL     OW82784   8.105   5.561   1.576 -0.2620 -0.0783  0.1652
25309SOL    HW182785   8.081   5.647   1.612 -0.1740  0.0249 -0.0223
25309SOL    HW282786   8.117   5.506   1.653 -0.0756  0.1414  0.2960
25310SOL     OW82787   7.631   1.412   8.422  0.1715 -0.2667 -0.4469
25310SOL    HW182788   7.656   1.426   8.331  0.3287  0.1133 -0.3457
25310SOL    HW282789   7.676   1.481   8.471 -1.5150  0.7880 -0.3196
25311SOL     OW82790   1.771   0.335   1.652 -0.1673 -0.2709 -0.1950
25311SOL    HW182791   1.761   0.250   1.611  0.4703 -0.1862 -0.5371
25311SOL    HW282792   1.737   0.323   1.741 -0.3854 -0.7877 -0.3465
25312SOL     OW82793   7.896   5.614   1.170 -0.9291 -0.2276  0.3726
25312SOL    HW182794   7.972   5.638   1.222 -0.3540 -0.1922 -0.4722
25312SOL    HW282795   7.825   5.604   1.235 -0.4031  0.4871  1.0812
25313SOL     OW82796  11.853   6.442   8.834  0.1914 -0.2876  0.0667
25313SOL    HW182797  11.947   6.426   8.847  0.5146  0.6437 -0.9393
25313SOL    HW282798  11.840   6.431   8.740 -0.8171 -0.8568  0.2547
25314SOL     OW82799   7.702   5.109   4.798  0.4939 -0.1915 -0.1438
25314SOL    HW182800   7.723   5.087   4.888  1.2431 -0.9302 -0.4832
25314SOL    HW282801   7.718   5.028   4.749 -0.2659  0.0872 -0.8857
25315SOL     OW82802  11.452   3.093   1.163 -0.1111  0.8777 -0.0848
25315SOL    HW182803  11.403   3.111   1.083  0.3646  0.6747 -0.4171
25315SOL    HW282804  11.387   3.053   1.221 -0.3109  0.5030 -0.5641
25316SOL     OW82805   3.697   8.563   0.508 -0.0613 -0.0150 -0.2980
25316SOL    HW182806   3.608   8.561   0.474 -1.0451  3.8659  1.4857
25316SOL    HW282807   3.708   8.478   0.551 -3.3401 -0.2879  0.2806
25317SOL     OW82808   2.599   6.271  11.427 -0.1446 -0.4272  0.2586
25317SOL    HW182809   2.560   6.256  11.341  1.8731 -0.0109 -0.7833
25317SOL    HW282810   2.647   6.353  11.417  2.1616 -1.6173  1.0238
25318SOL     OW82811   5.500   4.800  12.263 -0.0015  0.4141  0.0597
25318SOL    HW182812   5.405   4.803  12.253  0.1207  1.3835 -1.0621
25318SOL    HW282813   5.517   4.853  12.342 -0.4984 -1.4217  1.4604
25319SOL     OW82814   4.788  11.969   6.484  0.0850 -0.4660 -0.5566
25319SOL    HW182815   4.754  11.897   6.537  2.2450 -0.9585  0.2547
25319SOL    HW282816   4.775  12.047   6.539  3.3670 -1.1119  1.4104
25320SOL     OW82817   0.867   5.283   4.575 -0.0959  1.2325  0.1140
25320SOL    HW182818   0.843   5.201   4.533  0.3444  1.1004  0.1212
25320SOL    HW282819   0.802   5.346   4.544 -0.0942  1.0129 -0.3303
25321SOL     OW82820   6.987   0.369   7.391 -0.3425 -0.3855 -0.2730
25321SOL    HW182821   7.049   0.343   7.324 -0.1308 -0.9360  0.1360
25321SOL    HW282822   6.985   0.465   7.386  0.1021 -0.3979 -0.6721
25322SOL     OW82823   6.154  12.160   9.243 -0.2726 -0.1118  0.0141
25322SOL    HW182824   6.180  12.082   9.194 -0.9005  0.1134 -0.6985
25322SOL    HW282825   6.184  12.233   9.189 -0.2456  0.1390  0.3686
25323SOL     OW82826   1.795   9.113   6.310  0.0397 -0.6258 -0.1592
25323SOL    HW182827   1.758   9.026   6.293 -0.9538 -0.3045  0.3061
25323SOL    HW282828   1.890   9.100   6.302 -0.0547 -1.8892  0.4831
25324SOL     OW82829   4.416  11.436   3.416 -0.4185 -0.0244  0.5501
25324SOL    HW182830   4.398  11.517   3.463 -0.4010  0.5936 -0.4591
25324SOL    HW282831   4.500  11.450   3.373 -0.9066 -0.1369 -0.5031
25325SOL     OW82832   9.398   3.563   8.815  0.3006 -0.1060  0.5744
25325SOL    HW182833   9.338   3.491   8.833  0.0316 -0.1218 -0.3170
25325SOL    HW282834   9.385   3.582   8.722  0.4229  1.0416  0.7776
25326SOL     OW82835   4.711  12.059  10.598  0.0577  1.0202 -0.0789
25326SOL    HW182836   4.642  12.120  10.622 -1.3356 -0.0502 -1.2214
25326SOL    HW282837   4.717  12.065  10.503 -0.7515 -1.2231 -0.3353
25327SOL     OW82838   5.920   2.626   1.907  0.4237 -0.5917 -0.1429
25327SOL    HW182839   5.824   2.625   1.911  0.2994  1.5560 -1.3634
25327SOL    HW282840   5.947   2.568   1.979 -1.7638 -2.6007 -0.7941
25328SOL     OW82841   0.247   0.800   2.045  0.0558  0.1375  0.0603
25328SOL    HW182842   0.192   0.818   2.120  0.6890 -0.2075  0.6198
25328SOL    HW282843   0.188   0.801   1.970 -0.7357 -0.4342  0.6697
25329SOL     OW82844   9.304   4.546  10.185  0.1027 -0.2707  0.2217
25329SOL    HW182845   9.391   4.552  10.224 -0.2293 -1.6898  1.2581
25329SOL    HW282846   9.285   4.635  10.153  2.4267 -0.2142 -1.1910
25330SOL     OW82847   4.011   2.005   5.082 -0.4744  0.4810 -0.3658
25330SOL    HW182848   3.968   1.941   5.139 -1.7448  0.3415 -1.4470
25330SOL    HW282849   4.001   2.089   5.128  0.3945  0.0665  0.6156
25331SOL     OW82850   7.129   6.536   5.489  0.0264 -0.3484 -0.2206
25331SOL    HW182851   7.077   6.474   5.438  0.2311 -0.5495 -0.1858
25331SOL    HW282852   7.088   6.537   5.575 -3.7491  3.9388 -1.6435
25332SOL     OW82853  10.410  10.392   9.240 -0.6790 -0.7318 -0.2542
25332SOL    HW182854  10.355  10.320   9.271 -0.9357  0.0135  1.0634
25332SOL    HW282855  10.438  10.437   9.319  0.0363  0.2253 -1.0277
25333SOL     OW82856  11.248  11.869  11.625 -0.1346 -0.5434  0.0231
25333SOL    HW182857  11.299  11.902  11.551 -1.0901 -2.3096 -1.4967
25333SOL    HW282858  11.265  11.774  11.626 -1.4450 -0.8011  1.0249
25334SOL     OW82859  10.576   0.247   4.598  0.6636 -0.2993  0.1206
25334SOL    HW182860  10.565   0.232   4.504 -1.3822  1.0372  0.0743
25334SOL    HW282861  10.520   0.181   4.639 -0.4019  0.6520  0.2616
25335SOL     OW82862   7.823  11.703   8.176  0.3100  0.5790 -0.6675
25335SOL    HW182863   7.736  11.672   8.199  0.6237 -1.2770 -1.8089
25335SOL    HW282864   7.808  11.777   8.118 -0.4710  1.5137  0.6759
25336SOL     OW82865  10.879   3.647  11.368  0.1206  0.6209  0.1029
25336SOL    HW182866  10.837   3.627  11.284  1.2697 -0.3225 -0.2694
25336SOL    HW282867  10.915   3.564  11.398  1.1961  1.2830  0.7008
25337SOL     OW82868   7.659   9.462   5.550  0.0432  0.2998  0.8072
25337SOL    HW182869   7.708   9.414   5.483 -0.5810  1.5429 -0.6067
25337SOL    HW282870   7.725   9.513   5.597  0.5018 -0.6741  1.2502
25338SOL     OW82871  11.755   5.231   5.161 -0.8686 -0.0139 -1.0603
25338SOL    HW182872  11.801   5.305   5.203 -0.5029 -1.5893  1.5636
25338SOL    HW282873  11.663   5.244   5.184 -0.6839 -0.8099  0.2592
25339SOL     OW82874   3.368   7.163   8.620 -0.0542 -0.5489 -0.4964
25339SOL    HW182875   3.341   7.093   8.679 -0.9337  0.1148 -0.0720
25339SOL    HW282876   3.320   7.147   8.539 -0.4348 -0.3246 -0.3210
25340SOL     OW82877   5.215   0.289   1.953  0.3533 -0.2134 -0.1754
25340SOL    HW182878   5.237   0.279   2.045 -0.7936 -1.2902  0.0196
25340SOL    HW282879   5.153   0.362   1.951  1.7243  0.9818 -0.3556
25341SOL     OW82880  10.214   4.369  11.753 -0.6553  0.9859  0.4307
25341SOL    HW182881  10.157   4.394  11.826  1.4456  0.3003  2.4168
25341SOL    HW282882  10.280   4.439  11.749  1.9230 -1.1618  2.3087
25342SOL     OW82883   2.673  10.684   6.116  0.2739  0.0165  0.5887
25342SOL    HW182884   2.608  10.753   6.125 -1.2943 -1.2092 -0.6746
25342SOL    HW282885   2.677  10.643   6.203 -0.3069  0.3956  0.7956
25343SOL     OW82886   4.994   8.819   9.047  0.4419 -0.3342 -0.2162
25343SOL    HW182887   4.979   8.902   9.003 -0.9902  0.2962  1.3417
25343SOL    HW282888   4.906   8.788   9.071  1.0482 -1.5168  0.5914
25344SOL     OW82889   7.656  11.621   5.370  0.5175 -0.0273 -0.0743
25344SOL    HW182890   7.626  11.578   5.450  2.7669 -0.8255  0.4083
25344SOL    HW282891   7.580  11.671   5.340 -0.3789  0.4383  2.6460
25345SOL     OW82892   6.660   7.293   0.488  0.1869 -0.1188 -0.2800
25345SOL    HW182893   6.624   7.205   0.499 -0.5776  0.3132  0.7312
25345SOL    HW282894   6.711   7.308   0.568 -0.0227  0.5137 -0.2640
25346SOL     OW82895   1.482  12.159  12.547 -0.0343 -0.0940  0.0775
25346SOL    HW182896   1.476  12.121  12.460  0.5867 -0.6943  0.2891
25346SOL    HW282897   1.571  12.195  12.552 -0.5007  1.1258 -0.0068
25347SOL     OW82898   9.408   8.712  10.893 -0.5318 -0.1329  0.2134
25347SOL    HW182899   9.407   8.625  10.853  0.6939  0.1648 -0.5354
25347SOL    HW282900   9.327   8.716  10.943 -2.6057 -0.2602 -2.8280
25348SOL     OW82901   6.452   1.495   5.238 -0.2188 -0.1068  0.0992
25348SOL    HW182902   6.375   1.523   5.190  0.2366  0.4695 -0.3216
25348SOL    HW282903   6.462   1.403   5.217  0.1257  0.1995 -1.1429
25349SOL     OW82904  10.425   5.633   8.719  0.1000 -0.8827  0.1225
25349SOL    HW182905  10.359   5.702   8.729  0.1457 -0.9929  1.3735
25349SOL    HW282906  10.397   5.584   8.641 -0.0931  0.3547 -0.6141
25350SOL     OW82907  10.765   9.290   0.066  0.0615 -0.2372  0.1377
25350SOL    HW182908  10.738   9.341  -0.011  0.1486 -0.2092  0.1265
25350SOL    HW282909  10.715   9.209   0.058 -0.1213 -0.1312  0.1866
25351SOL     OW82910   8.284   5.319   0.482 -0.0334 -0.4246 -0.3382
25351SOL    HW182911   8.203   5.359   0.514  0.1762  1.0358 -1.5258
25351SOL    HW282912   8.354   5.374   0.516  0.5331 -1.8136  0.8824
25352SOL     OW82913   7.229   9.150   6.150 -0.7177 -0.1397  0.3947
25352SOL    HW182914   7.279   9.217   6.104 -0.1852 -0.2296  0.8292
25352SOL    HW282915   7.140   9.185   6.155 -0.5462  0.3235  0.2027
25353SOL     OW82916   9.612  12.087  10.435  0.0205 -0.3201  0.1719
25353SOL    HW182917   9.561  12.031  10.376 -0.5118  1.4308 -1.1135
25353SOL    HW282918   9.548  12.121  10.497 -0.0496  0.3533 -0.2517
25354SOL     OW82919   1.648   8.806  10.614 -0.0258  0.3112  0.0749
25354SOL    HW182920   1.613   8.813  10.525  2.0284  0.5219 -0.7681
25354SOL    HW282921   1.647   8.712  10.632 -1.3429  0.3395  0.2375
25355SOL     OW82922   3.564   7.991   9.927 -0.3194 -0.2018  0.1427
25355SOL    HW182923   3.572   7.993  10.023  0.0998  0.1255  0.1054
25355SOL    HW282924   3.628   7.925   9.899  2.3321  2.2935 -0.1424
25356SOL     OW82925   8.624   4.880   3.388  0.7254 -0.3531  0.4841
25356SOL    HW182926   8.558   4.811   3.384  1.3784 -1.1583  2.2620
25356SOL    HW282927   8.583   4.950   3.439  0.2475  0.3884 -0.8793
25357SOL     OW82928   7.320   6.868   9.382  0.1524  0.5418 -0.7496
25357SOL    HW182929   7.264   6.798   9.415 -0.7728  1.3885 -0.4542
25357SOL    HW282930   7.356   6.909   9.460 -0.6431  1.4340 -0.8236
25358SOL     OW82931  12.015   0.886   8.956  0.0803 -0.0949  0.1189
25358SOL    HW182932  11.968   0.918   8.879  0.7280  0.7111  0.0458
25358SOL    HW282933  12.015   0.960   9.017 -1.9747 -1.2519  1.6696
25359SOL     OW82934   5.635   2.301   2.222  0.2064  0.0038 -0.6356
25359SOL    HW182935   5.718   2.256   2.236  2.7170  4.5992  1.7459
25359SOL    HW282936   5.583   2.280   2.300  1.8417  1.8307  1.0758
25360SOL     OW82937   9.733   8.312   3.237  0.0370  0.3849  0.5150
25360SOL    HW182938   9.651   8.261   3.235  0.6352 -0.7045  1.8307
25360SOL    HW282939   9.729   8.366   3.158 -1.7065 -0.0237  0.2662
25361SOL     OW82940   5.885   4.646   0.541  0.2799 -0.8293 -0.2963
25361SOL    HW182941   5.813   4.649   0.479  0.2208 -0.7352 -0.2236
25361SOL    HW282942   5.850   4.686   0.621  0.1464 -1.5480  0.0079
25362SOL     OW82943   0.152   8.301   0.191  0.2476 -0.3360  0.1182
25362SOL    HW182944   0.125   8.251   0.269  0.2475 -0.9436 -0.2672
25362SOL    HW282945   0.069   8.329   0.152  0.1089 -2.3544 -1.1639
25363SOL     OW82946   9.560   6.141  12.065 -0.1335 -0.4955  0.4714
25363SOL    HW182947   9.623   6.201  12.026  0.2112 -1.8530 -1.1662
25363SOL    HW282948   9.606   6.058  12.072 -1.6873 -1.5260 -0.7688
25364SOL     OW82949   5.144   2.553   2.769  0.2236  0.0903  0.8204
25364SOL    HW182950   5.090   2.580   2.844 -0.2460  1.9669 -0.1395
25364SOL    HW282951   5.228   2.596   2.783  0.0647  0.6212  0.1634
25365SOL     OW82952   7.972   7.705   6.466  0.2023 -0.2933 -0.1409
25365SOL    HW182953   8.035   7.770   6.437  1.5946 -0.9763  1.2099
25365SOL    HW282954   7.932   7.743   6.545  2.0887 -1.5833  1.5357
25366SOL     OW82955   4.016  10.760   7.334 -0.6755 -0.3947  0.7026
25366SOL    HW182956   4.087  10.776   7.272 -0.8748  2.0471  0.9821
25366SOL    HW282957   4.021  10.667   7.354  1.4041 -0.5992 -0.5332
25367SOL     OW82958  11.729   8.885   8.194 -0.9112 -0.3870  0.0944
25367SOL    HW182959  11.666   8.864   8.264 -1.3496 -1.9266 -0.7204
25367SOL    HW282960  11.746   8.979   8.205 -0.0349 -0.7944  3.0085
25368SOL     OW82961   7.534   4.887   8.636 -0.6411  0.2285  0.1245
25368SOL    HW182962   7.603   4.953   8.631 -1.4979  1.1232 -0.3730
25368SOL    HW282963   7.539   4.841   8.552 -0.9421  0.6097 -0.1065
25369SOL     OW82964   9.152  11.481   0.110  0.9808  0.2212 -0.1533
25369SOL    HW182965   9.174  11.431   0.032  0.5871  1.6270 -1.1931
25369SOL    HW282966   9.070  11.526   0.089  0.8888  0.6673  1.0435
25370SOL     OW82967   0.478   3.630   6.674 -0.0793  0.4592 -0.0136
25370SOL    HW182968   0.465   3.537   6.659 -0.6046  0.6685 -0.9180
25370SOL    HW282969   0.562   3.636   6.720  0.0620 -0.4324 -0.1485
25371SOL     OW82970   8.776   4.597   9.876  0.6911 -0.4948  0.1274
25371SOL    HW182971   8.699   4.643   9.909  1.9317  0.9024  1.2577
25371SOL    HW282972   8.833   4.587   9.953  3.2168  1.8898 -1.2254
25372SOL     OW82973   5.265  12.360   0.362  0.1656  0.4121 -0.3654
25372SOL    HW182974   5.329  12.370   0.292  1.3508  0.4219  0.6838
25372SOL    HW282975   5.193  12.312   0.323  1.5400 -1.0866 -1.1376
25373SOL     OW82976   1.830   4.146   8.645 -0.5131  0.0487  0.4593
25373SOL    HW182977   1.828   4.051   8.630  0.0484 -0.2214  1.8699
25373SOL    HW282978   1.743   4.176   8.620  0.0452 -0.4255 -2.2859
25374SOL     OW82979   8.750  10.742   4.108 -0.5558 -0.4655  0.4485
25374SOL    HW182980   8.828  10.709   4.063 -0.1451 -4.4945  3.4830
25374SOL    HW282981   8.686  10.756   4.038  1.4755 -1.4605 -1.7666
25375SOL     OW82982   0.460   7.282   9.891  0.2092  0.1200 -0.6150
25375SOL    HW182983   0.398   7.346   9.928 -2.6697 -2.4778 -0.5864
25375SOL    HW282984   0.459   7.300   9.797  1.2020  1.4852 -0.4033
25376SOL     OW82985   7.244  10.951  11.216 -0.1996  0.4146 -0.2515
25376SOL    HW182986   7.338  10.933  11.224 -0.3062  0.2861  0.8421
25376SOL    HW282987   7.214  10.962  11.306 -1.6701 -1.7236 -0.4170
25377SOL     OW82988  10.726   2.550   5.946 -0.0001 -0.1950 -0.6144
25377SOL    HW182989  10.661   2.528   5.879 -0.4823 -1.2748  0.1690
25377SOL    HW282990  10.796   2.486   5.935  0.2316  0.0364 -0.5121
25378SOL     OW82991  12.519   6.568   4.604 -0.2993  1.0237 -0.0705
25378SOL    HW182992  12.505   6.481   4.566  1.8665  0.5196  0.1171
25378SOL    HW282993  12.534   6.551   4.697  3.0857  1.1122 -0.4482
25379SOL     OW82994   1.501  10.112   0.193 -0.5361 -0.6564  0.0919
25379SOL    HW182995   1.530  10.050   0.259  0.2707 -1.6440 -1.1456
25379SOL    HW282996   1.481  10.058   0.116  1.3087  0.6584 -1.4136
25380SOL     OW82997   3.330   2.588  11.168  0.1837 -0.5121 -0.0178
25380SOL    HW182998   3.392   2.657  11.145 -0.3179 -0.0017  0.1587
25380SOL    HW282999   3.248   2.613  11.125 -0.0584 -0.8918  0.2144
25381SOL     OW83000  12.303   7.281   0.393 -0.0241 -0.2190  0.2475
25381SOL    HW183001  12.327   7.329   0.472  0.3432  0.7774 -0.4427
25381SOL    HW283002  12.324   7.190   0.413  1.4419  0.1960  0.7930
25382SOL     OW83003   2.363  10.660   1.131 -0.0044 -0.8101 -0.0808
25382SOL    HW183004   2.327  10.663   1.042 -1.5898  0.2833  0.5469
25382SOL    HW283005   2.425  10.734   1.134 -1.3737  0.3774  0.2455
25383SOL     OW83006   7.980   4.200  11.854 -0.1171  0.7172 -0.1919
25383SOL    HW183007   7.910   4.242  11.903 -0.3563  0.0787  0.0263
25383SOL    HW283008   7.952   4.109  11.846  0.9943  0.2936  0.4784
25384SOL     OW83009   7.947   0.811  12.462  0.4176  0.2393 -0.3176
25384SOL    HW183010   8.030   0.830  12.417 -0.2636  1.6744 -1.0256
25384SOL    HW283011   7.949   0.716  12.476  1.2619 -0.0637 -2.1582
25385SOL     OW83012   8.406  11.862   7.390 -0.5582 -0.1135  0.6525
25385SOL    HW183013   8.411  11.772   7.422  0.0260 -0.1065  0.5978
25385SOL    HW283014   8.318  11.892   7.415 -0.2768 -0.2442  1.8635
25386SOL     OW83015   1.310   3.050   7.091  0.1855  0.3359  0.4072
25386SOL    HW183016   1.352   2.964   7.091 -0.0828  0.1605 -1.3519
25386SOL    HW283017   1.311   3.078   7.183  1.1467 -1.1082  0.8653
25387SOL     OW83018   9.148   3.612   9.504 -0.9472  0.2162  0.3348
25387SOL    HW183019   9.202   3.684   9.539  0.9682 -2.0407  2.3567
25387SOL    HW283020   9.070   3.612   9.560 -1.0545  0.8418  0.1936
25388SOL     OW83021   5.715   8.102  11.280  0.0822  0.1391 -0.3998
25388SOL    HW183022   5.806   8.074  11.283 -0.2504 -1.3224 -2.1139
25388SOL    HW283023   5.713   8.182  11.332  1.7715 -1.2001  1.8961
25389SOL     OW83024   0.497   9.959   7.146  0.7848  0.6307  0.5679
25389SOL    HW183025   0.485  10.050   7.175 -1.9192  1.3336 -2.1608
25389SOL    HW283026   0.430   9.910   7.194  0.1203  0.7268 -0.2368
25390SOL     OW83027  10.561   2.980   3.709 -0.0479  0.0761  0.3838
25390SOL    HW183028  10.612   3.015   3.635  0.3776  1.6553  1.3707
25390SOL    HW283029  10.526   3.058   3.753 -1.3829 -0.8876  1.1040
25391SOL     OW83030   3.873  11.238   6.389  0.3115 -0.2441 -0.0783
25391SOL    HW183031   3.891  11.208   6.478 -0.1689  0.7209  0.3605
25391SOL    HW283032   3.845  11.159   6.342  1.5812 -0.9696  0.3198
25392SOL     OW83033   8.345   6.416   7.461 -0.0213 -0.2368  0.0776
25392SOL    HW183034   8.251   6.404   7.471  0.0337 -1.0635 -0.2910
25392SOL    HW283035   8.381   6.328   7.469  0.8723  0.2289  1.6626
25393SOL     OW83036   4.139  10.794   7.602  0.3269 -0.5664 -0.2768
25393SOL    HW183037   4.095  10.719   7.561 -0.3419  0.3565 -1.2921
25393SOL    HW283038   4.099  10.801   7.688 -0.9372 -0.2716 -0.8666
25394SOL     OW83039   9.993  11.659   4.017 -0.5066  0.4182 -0.1564
25394SOL    HW183040   9.901  11.659   3.991 -0.7947 -1.1264  0.7809
25394SOL    HW283041  10.000  11.728   4.082 -0.4178  2.2794 -2.0298
25395SOL     OW83042   6.186   2.547   9.157 -0.2401  0.4098 -0.4271
25395SOL    HW183043   6.234   2.604   9.096  2.0678 -2.1967 -1.2466
25395SOL    HW283044   6.252   2.485   9.189 -2.3726 -1.1517  1.2506
25396SOL     OW83045  11.120   4.993   0.850  0.6452 -0.4156  0.4170
25396SOL    HW183046  11.104   5.063   0.913  0.4463  1.2226 -1.3664
25396SOL    HW283047  11.115   4.912   0.902 -1.6611  0.6999  2.0993
25397SOL     OW83048  11.916   6.345   2.376  0.2905  0.3579 -0.0793
25397SOL    HW183049  11.928   6.341   2.281  2.2417 -0.4849  0.1631
25397SOL    HW283050  11.981   6.285   2.411 -0.3394  0.7144  1.8192
25398SOL     OW83051  11.827  10.264   0.121 -0.1175 -0.2885 -0.2465
25398SOL    HW183052  11.798  10.244   0.210 -0.9847  1.5032 -0.0732
25398SOL    HW283053  11.762  10.224   0.064  0.1506 -1.0001 -0.0525
25399SOL     OW83054   6.382   7.568   1.255  0.2811  0.2043 -0.1422
25399SOL    HW183055   6.476   7.574   1.274  0.3159 -1.1995  0.2185
25399SOL    HW283056   6.339   7.608   1.331  0.5573 -0.6089  0.4521
25400SOL     OW83057   5.060  10.171   5.966  0.1572 -0.2367  0.4019
25400SOL    HW183058   4.994  10.180   5.896 -1.0261 -0.1484  1.4822
25400SOL    HW283059   5.024  10.222   6.039  1.2885 -0.4569  1.1373
25401SOL     OW83060   7.076   8.512   8.658 -0.1869  0.6546 -0.2562
25401SOL    HW183061   7.070   8.443   8.593  1.1369  0.8288 -0.5793
25401SOL    HW283062   7.057   8.469   8.741  3.7604 -0.9127  0.0253
25402SOL     OW83063   8.999   7.515   8.937  0.3905 -0.2527 -0.0226
25402SOL    HW183064   9.095   7.515   8.941  0.3518 -1.0994  1.9163
25402SOL    HW283065   8.971   7.512   9.029 -1.4381 -3.3505 -0.5236
25403SOL     OW83066   7.346   7.079   2.241  0.3051  0.0796  0.0378
25403SOL    HW183067   7.297   7.119   2.169 -0.9533  1.8559  1.7663
25403SOL    HW283068   7.299   6.998   2.261  0.5242 -0.3037 -0.9308
25404SOL     OW83069   1.686   6.353  12.050 -0.4685 -0.0694 -0.0546
25404SOL    HW183070   1.680   6.448  12.060 -1.3960 -0.3114  2.3114
25404SOL    HW283071   1.612   6.331  11.993 -0.4954  0.5642 -0.2803
25405SOL     OW83072   3.330  10.997   3.054 -0.2010 -0.8753 -0.0830
25405SOL    HW183073   3.424  10.994   3.034 -0.0867 -0.9207  0.4428
25405SOL    HW283074   3.297  10.911   3.029 -0.2764 -0.5632 -1.0879
25406SOL     OW83075   2.848   9.292   4.209 -0.3374 -0.2186  0.0450
25406SOL    HW183076   2.899   9.328   4.136 -0.4420 -0.6552 -0.2487
25406SOL    HW283077   2.771   9.254   4.167 -0.8327  0.3104  0.4764
25407SOL     OW83078   8.050   5.862   7.610  0.1343  0.0938  0.4935
25407SOL    HW183079   8.004   5.838   7.529  1.8759  0.6002 -0.7022
25407SOL    HW283080   8.132   5.812   7.606  1.2773  1.8842  0.7723
25408SOL     OW83081   7.949   0.289   1.648 -0.6974 -0.4433  0.7559
25408SOL    HW183082   7.953   0.215   1.588 -0.9799 -0.2327  0.4767
25408SOL    HW283083   7.997   0.259   1.726 -0.4710 -0.7726  0.4930
25409SOL     OW83084   8.893   1.968   2.845  0.5733  0.0467 -0.6937
25409SOL    HW183085   8.897   1.989   2.938  0.2449 -3.1318  0.1585
25409SOL    HW283086   8.809   2.004   2.815  1.0216  1.7598 -0.0192
25410SOL     OW83087   6.984  10.593   0.882 -0.2249 -0.3179  0.0694
25410SOL    HW183088   6.992  10.530   0.953  0.5647  0.6075  0.8272
25410SOL    HW283089   7.055  10.571   0.822  1.7441  1.4039  1.6227
25411SOL     OW83090   1.811   5.331   4.147 -0.1197  0.3971  0.0242
25411SOL    HW183091   1.812   5.389   4.071 -2.1285 -0.7518 -0.9494
25411SOL    HW283092   1.854   5.251   4.116 -1.1340 -0.1524 -0.0167
25412SOL     OW83093   0.352   6.142  11.481  0.2096  0.3600 -0.1756
25412SOL    HW183094   0.282   6.078  11.464 -0.0152  0.4900  0.2432
25412SOL    HW283095   0.324   6.220  11.434  0.7368  0.0016 -1.1141
25413SOL     OW83096   1.453   2.600   4.896 -0.2555 -0.7961  0.3952
25413SOL    HW183097   1.502   2.518   4.893  0.3633 -0.4436 -2.1595
25413SOL    HW283098   1.374   2.583   4.843 -0.0504  0.2587 -0.2855
25414SOL     OW83099   7.688   3.230   3.406 -0.0691 -0.1484 -0.2487
25414SOL    HW183100   7.599   3.250   3.436 -0.4479 -0.5114 -1.0853
25414SOL    HW283101   7.721   3.166   3.469 -0.3727  0.0354  0.1028
25415SOL     OW83102   3.856   9.577   0.634  0.1688 -0.2620 -0.8840
25415SOL    HW183103   3.887   9.487   0.622  0.6342  0.0287 -1.9461
25415SOL    HW283104   3.936   9.629   0.636  0.0166 -0.0204  1.4227
25416SOL     OW83105  12.457   8.783   0.773 -0.4235  0.6656 -0.7567
25416SOL    HW183106  12.407   8.853   0.731 -0.8609  0.2769 -0.8919
25416SOL    HW283107  12.514   8.750   0.704 -1.3665 -0.1852 -1.1608
25417SOL     OW83108   7.408   0.183   8.645  0.5519 -0.1801  0.2216
25417SOL    HW183109   7.330   0.164   8.697  1.1273 -2.0179  0.5012
25417SOL    HW283110   7.472   0.213   8.709 -0.1559  2.3511 -0.1365
25418SOL     OW83111   6.619   6.324   7.958  0.2290  0.4121 -0.0249
25418SOL    HW183112   6.673   6.247   7.939  0.0114  0.4173 -0.6978
25418SOL    HW283113   6.650   6.390   7.896 -1.9442 -0.2370 -1.9379
25419SOL     OW83114   6.252   8.040   7.727  0.2463 -0.2854 -0.5744
25419SOL    HW183115   6.271   7.962   7.780  1.0508  0.0559 -0.3528
25419SOL    HW283116   6.260   8.009   7.637  0.3577 -0.5121 -0.4889
25420SOL     OW83117   1.573   1.260   9.875  0.2818 -0.3723 -0.1421
25420SOL    HW183118   1.655   1.308   9.859  0.3011 -1.2955 -3.5534
25420SOL    HW283119   1.529   1.260   9.790 -3.2041 -0.1346  1.5300
25421SOL     OW83120   1.846   8.181   0.594 -0.3723 -0.5957 -0.7522
25421SOL    HW183121   1.801   8.254   0.637  0.3411 -1.1622  1.0811
25421SOL    HW283122   1.824   8.190   0.502  1.6049  3.4184 -1.0869
25422SOL     OW83123   6.835   4.702   5.419 -0.3222  0.0837  0.1035
25422SOL    HW183124   6.855   4.609   5.411 -0.9691 -0.2631  2.1160
25422SOL    HW283125   6.920   4.744   5.430 -0.1853 -0.7589  3.1066
25423SOL     OW83126   9.768   2.860   1.916 -0.3595 -0.3183  0.1010
25423SOL    HW183127   9.712   2.874   1.839  0.2671 -0.4576 -0.3839
25423SOL    HW283128   9.786   2.948   1.948  0.0644 -0.2123 -0.4122
25424SOL     OW83129   8.406   6.656   7.988 -0.1865  0.0403  0.1178
25424SOL    HW183130   8.329   6.684   8.037 -1.7571 -1.4123 -1.3447
25424SOL    HW283131   8.433   6.574   8.030 -1.0406 -0.7822 -0.8817
25425SOL     OW83132  12.350   6.544   3.467  0.2959 -0.0345 -0.1583
25425SOL    HW183133  12.357   6.450   3.449  0.6637 -0.4965  2.1157
25425SOL    HW283134  12.381   6.586   3.387  1.1274 -1.8497 -0.8507
25426SOL     OW83135   9.483   5.004   4.319 -0.4141  0.2211  0.2797
25426SOL    HW183136   9.404   5.058   4.324 -1.4818 -1.1277 -0.8794
25426SOL    HW283137   9.481   4.968   4.230 -0.2635 -2.3879  1.2397
25427SOL     OW83138   4.368   6.468   9.758 -0.3195  0.3093  0.5760
25427SOL    HW183139   4.338   6.549   9.715 -1.2858 -0.2012  0.2617
25427SOL    HW283140   4.336   6.398   9.701 -0.0789 -0.3226  1.2078
25428SOL     OW83141   4.245   7.890   4.606  0.4895 -0.0010 -0.1670
25428SOL    HW183142   4.262   7.812   4.659  1.1247 -1.4292 -2.3380
25428SOL    HW283143   4.156   7.916   4.628  0.3199 -1.2579  0.6958
25429SOL     OW83144   6.874  10.857  11.115 -0.0193  0.1727 -0.0718
25429SOL    HW183145   6.828  10.797  11.174  1.4628  0.3380  1.3290
25429SOL    HW283146   6.821  10.858  11.036 -1.9439 -0.2932  1.1336
25430SOL     OW83147   2.583   2.967   1.988 -0.0468 -0.1993 -0.5966
25430SOL    HW183148   2.637   3.020   1.929 -1.7107  0.2124 -1.8123
25430SOL    HW283149   2.532   3.031   2.037 -1.0193 -0.6238 -1.0371
25431SOL     OW83150   5.068  11.707   4.234  0.3504 -0.0878  0.2846
25431SOL    HW183151   5.117  11.625   4.235 -0.6226 -0.6895  0.3326
25431SOL    HW283152   4.987  11.686   4.188  0.7925  1.2831 -1.1994
25432SOL     OW83153  10.142   1.355   8.961 -0.0284  0.3079  0.0032
25432SOL    HW183154  10.147   1.267   8.924  1.9811  0.6966 -0.7779
25432SOL    HW283155  10.125   1.341   9.054 -0.1166 -0.8853 -0.1791
25433SOL     OW83156   8.135   5.440   8.654  0.6507 -0.2675  0.0330
25433SOL    HW183157   8.060   5.493   8.678  0.2643 -0.8910  0.2257
25433SOL    HW283158   8.198   5.454   8.725 -0.3361 -1.8066  1.2902
25434SOL     OW83159   2.427   9.247   8.611 -0.4217  0.1008 -0.0899
25434SOL    HW183160   2.488   9.205   8.672 -1.4880  1.2679  1.9018
25434SOL    HW283161   2.340   9.219   8.641 -0.9897  0.8907 -0.9420
25435SOL     OW83162   2.399   7.282   7.548 -0.1554 -0.2652 -0.1045
25435SOL    HW183163   2.319   7.263   7.499 -0.7628  0.0910  0.7416
25435SOL    HW283164   2.445   7.347   7.494 -0.4938 -0.3703 -0.5276
25436SOL     OW83165   6.050   8.519  10.950 -0.2266 -0.0464  0.8413
25436SOL    HW183166   6.098   8.523  10.868 -0.0971  1.8253  0.9482
25436SOL    HW283167   6.117   8.502  11.017 -0.3096 -1.3984  0.6003
25437SOL     OW83168   0.220   3.039   7.776 -0.1325  0.7290 -0.3053
25437SOL    HW183169   0.214   3.051   7.871 -1.0240  0.9403 -0.3733
25437SOL    HW283170   0.190   3.122   7.740  0.4125  0.7267 -0.7779
25438SOL     OW83171   7.174   4.668   2.486 -0.5633  0.3700  0.4288
25438SOL    HW183172   7.154   4.588   2.536  0.4428 -0.3389 -0.2690
25438SOL    HW283173   7.214   4.726   2.551  0.3871 -0.4020  0.5626
25439SOL     OW83174  10.015   7.290   9.114  0.2687 -0.1644  0.2386
25439SOL    HW183175   9.953   7.290   9.186 -0.1909 -0.2999 -0.1529
25439SOL    HW283176  10.048   7.201   9.110 -0.5505 -0.4534 -0.4268
25440SOL     OW83177   7.515   0.610  12.464 -0.1644  0.1890  0.4416
25440SOL    HW183178   7.436   0.592  12.414 -0.7665 -0.3113  1.5462
25440SOL    HW283179   7.539   0.700  12.440 -1.3740  0.5390  0.5162
25441SOL     OW83180   4.379   5.367   9.335  0.2330  0.6426  0.3550
25441SOL    HW183181   4.320   5.435   9.367 -1.2860  0.7732 -2.3707
25441SOL    HW283182   4.458   5.414   9.309 -0.3692  1.2495 -0.4529
25442SOL     OW83183  11.427   4.966   7.749 -0.4405  0.1139 -0.3355
25442SOL    HW183184  11.353   4.915   7.781 -1.9801  1.8621 -0.9851
25442SOL    HW283185  11.425   4.955   7.654  0.0829  0.2611 -0.3670
25443SOL     OW83186   8.909   5.936   8.678  0.6590  0.2181 -0.1455
25443SOL    HW183187   8.928   5.918   8.586  2.1199 -2.0058  0.4935
25443SOL    HW283188   8.987   5.981   8.710 -0.0600  1.4568 -0.0836
25444SOL     OW83189   6.271   5.678   0.785 -0.0631  0.6464  0.5007
25444SOL    HW183190   6.318   5.599   0.759 -0.1275  1.1854 -1.4102
25444SOL    HW283191   6.189   5.674   0.735 -0.8456  1.0770  1.7089
25445SOL     OW83192   4.407  12.451  12.432 -0.1182 -0.0442 -0.2643
25445SOL    HW183193   4.430  12.517  12.497  1.0109  0.8208 -1.4932
25445SOL    HW283194   4.407  12.368  12.480  1.5952  0.4510  0.6657
25446SOL     OW83195   3.204   6.784   3.249 -0.5157 -0.1209  0.7425
25446SOL    HW183196   3.239   6.795   3.337  0.7539 -1.4067  0.4243
25446SOL    HW283197   3.201   6.690   3.235 -0.5322  0.0576 -0.6494
25447SOL     OW83198   3.709   2.225   8.296 -0.5558  0.2525  0.6546
25447SOL    HW183199   3.658   2.145   8.283 -2.3899  1.4565  0.0937
25447SOL    HW283200   3.656   2.277   8.357  0.2885  1.3017  0.5121
25448SOL     OW83201   3.528  10.966   6.398 -0.1835 -0.2942  0.0517
25448SOL    HW183202   3.502  11.002   6.313 -0.6309 -1.0919 -0.1613
25448SOL    HW283203   3.570  10.883   6.377 -0.6493 -0.6821  0.6329
25449SOL     OW83204   8.246   2.458  10.670 -0.7074 -0.6053  0.2008
25449SOL    HW183205   8.246   2.527  10.604 -1.0176  0.0300  0.8497
25449SOL    HW283206   8.290   2.384  10.628  0.6966  0.3640 -0.1202
25450SOL     OW83207  12.463   1.995   8.448  0.2121 -0.0577  0.3413
25450SOL    HW183208  12.490   2.086   8.435  1.6944 -0.5143  0.0197
25450SOL    HW283209  12.495   1.949   8.371  0.8849 -1.1310  1.2254
25451SOL     OW83210   7.652   8.460   2.398 -0.3624  0.1834  0.2946
25451SOL    HW183211   7.648   8.555   2.382 -0.8366  0.0385 -0.4921
25451SOL    HW283212   7.565   8.438   2.433 -0.8854 -0.2449 -1.2119
25452SOL     OW83213   3.288   9.387   1.475  0.1935 -0.0361  0.3899
25452SOL    HW183214   3.376   9.414   1.451  1.1384 -1.1399  2.3624
25452SOL    HW283215   3.264   9.321   1.409  1.8809 -1.5247  1.1821
25453SOL     OW83216   5.448  11.494   4.996  0.5422  0.4405 -0.2724
25453SOL    HW183217   5.357  11.519   5.012  0.9211  1.4285  0.4341
25453SOL    HW283218   5.493  11.512   5.078  1.3384 -0.2812 -0.5313
25454SOL     OW83219  12.364   8.195   2.884  0.5981  0.3959 -0.3343
25454SOL    HW183220  12.345   8.249   2.961 -0.0970  2.6995 -2.0094
25454SOL    HW283221  12.441   8.235   2.845  2.9176 -2.6511  0.7447
25455SOL     OW83222   1.295   2.570   3.101 -0.5990  0.1767  0.0359
25455SOL    HW183223   1.328   2.582   3.012  1.2232  0.6370  0.7157
25455SOL    HW283224   1.323   2.649   3.148 -1.9890  0.1890  0.9103
25456SOL     OW83225   5.926   4.696   2.282 -0.0894 -0.2537 -0.0630
25456SOL    HW183226   5.893   4.663   2.198 -0.8336 -1.8009  0.7785
25456SOL    HW283227   5.902   4.788   2.283  1.8742  0.3997 -2.4463
25457SOL     OW83228   9.325   2.626   7.413 -0.3143  0.0527 -0.4142
25457SOL    HW183229   9.392   2.588   7.469 -0.4268 -0.8888 -0.9024
25457SOL    HW283230   9.287   2.697   7.465  1.4439  1.0155 -0.3466
25458SOL     OW83231   3.903   9.241   3.483 -0.2634  0.7329 -0.3833
25458SOL    HW183232   3.842   9.303   3.443 -1.6267 -0.0513  0.4079
25458SOL    HW283233   3.850   9.164   3.503  0.9525  0.0806  0.4910
25459SOL     OW83234   6.839   1.367   8.435  0.1823 -0.4192 -0.2935
25459SOL    HW183235   6.860   1.273   8.440  1.1733 -0.2617 -1.2807
25459SOL    HW283236   6.924   1.410   8.426 -0.2892  0.5611 -0.1246
25460SOL     OW83237   5.853   9.543   4.622  0.0464 -0.7329  0.0431
25460SOL    HW183238   5.891   9.499   4.698  0.2301 -1.3808 -0.4124
25460SOL    HW283239   5.910   9.518   4.549  0.0185  0.0856 -0.2670
25461SOL     OW83240   9.560   1.850   8.116  0.2903 -0.1797  0.2738
25461SOL    HW183241   9.536   1.773   8.064  0.8050 -1.4951  1.8648
25461SOL    HW283242   9.497   1.850   8.188  1.0144  0.1841  0.9221
25462SOL     OW83243   0.542   2.226  11.597 -0.1930 -0.2948  0.2314
25462SOL    HW183244   0.574   2.232  11.507 -0.8107 -1.4895 -0.0832
25462SOL    HW283245   0.549   2.315  11.631 -0.0625  0.1927 -1.0334
25463SOL     OW83246   3.435   6.988   6.064 -0.1542 -0.3212 -0.5061
25463SOL    HW183247   3.458   7.075   6.031 -1.2212 -0.9555 -3.0909
25463SOL    HW283248   3.511   6.963   6.118  0.8858  1.5160 -1.0157
25464SOL     OW83249   3.732  11.526  11.593 -0.5548  0.5342 -0.3119
25464SOL    HW183250   3.705  11.567  11.675 -1.5379 -0.4245 -0.1369
25464SOL    HW283251   3.815  11.483  11.614 -0.4003  0.9600 -0.0360
25465SOL     OW83252   8.750   8.726   0.063  0.0028  0.1778 -0.3356
25465SOL    HW183253   8.836   8.737   0.023  1.3900 -1.5846  1.8849
25465SOL    HW283254   8.760   8.651   0.122 -2.9076  0.2716  0.4787
25466SOL     OW83255   8.918   0.060   6.701 -0.4189  0.1604 -0.2908
25466SOL    HW183256   8.969   0.105   6.768  0.2950  1.0524 -1.3991
25466SOL    HW283257   8.827   0.079   6.724 -0.2410 -0.4412  1.0139
25467SOL     OW83258  11.249  12.297   3.114 -0.1280 -0.3993  0.0311
25467SOL    HW183259  11.310  12.301   3.188 -0.6782  0.7658  0.4474
25467SOL    HW283260  11.282  12.361   3.052  0.2950 -1.3319 -0.7287
25468SOL     OW83261  11.171   2.860   3.545  0.9401  0.5299  0.6295
25468SOL    HW183262  11.255   2.904   3.556  1.4496  0.5027 -2.2605
25468SOL    HW283263  11.106   2.930   3.555  1.4857  1.0789  0.4125
25469SOL     OW83264  10.230   2.688   6.157 -0.1211  0.4690  0.1954
25469SOL    HW183265  10.313   2.676   6.111 -0.3588  0.0427 -0.1350
25469SOL    HW283266  10.243   2.642   6.241 -0.4830 -0.8181 -0.4214
25470SOL     OW83267   9.384   4.845  10.553 -0.3554  0.2849 -0.1699
25470SOL    HW183268   9.326   4.789  10.502 -1.9502  0.7677  1.0373
25470SOL    HW283269   9.333   4.868  10.630  0.8929  2.0176  0.1896
25471SOL     OW83270   2.311   9.001   3.044 -0.5193  0.0183 -0.0138
25471SOL    HW183271   2.301   8.998   3.139 -1.1052 -0.0508 -0.0733
25471SOL    HW283272   2.224   8.980   3.010 -0.2184 -0.3659 -0.5671
25472SOL     OW83273   1.128   4.511   8.109 -0.7093  0.3560 -0.0665
25472SOL    HW183274   1.044   4.470   8.088  0.1763 -0.8032 -1.4864
25472SOL    HW283275   1.184   4.438   8.135  0.5272  0.8139 -1.3700
25473SOL     OW83276   7.123   5.555   4.416  0.1106  1.0084  0.6663
25473SOL    HW183277   7.193   5.526   4.357  1.7344  1.6699  2.1947
25473SOL    HW283278   7.042   5.530   4.370  1.2973  0.7728 -1.4537
25474SOL     OW83279   2.082   1.406   0.024 -0.2224 -0.6424  0.2134
25474SOL    HW183280   2.160   1.350   0.024  0.7566  0.6555  1.4729
25474SOL    HW283281   2.013   1.350  -0.011  1.1924 -1.9327 -0.6647
25475SOL     OW83282   6.033   4.134   6.258  0.6802 -0.5617 -1.1037
25475SOL    HW183283   6.084   4.205   6.296 -0.0135 -0.1940 -0.8508
25475SOL    HW283284   5.969   4.177   6.202  0.3182 -0.9882 -1.0252
25476SOL     OW83285   8.756   3.422   3.969 -0.3006  0.5003  0.4820
25476SOL    HW183286   8.721   3.336   3.992  0.7662  0.2430  1.2109
25476SOL    HW283287   8.703   3.484   4.020 -1.4341  0.3423 -0.4583
25477SOL     OW83288   7.688   7.596   6.529 -0.3516  0.0429 -0.5325
25477SOL    HW183289   7.777   7.562   6.531 -1.5715 -3.5869 -0.5539
25477SOL    HW283290   7.657   7.589   6.619 -1.2175 -0.6601 -0.8664
25478SOL     OW83291   8.375   7.928  10.410  0.5494 -0.3563 -0.5052
25478SOL    HW183292   8.328   7.983  10.472  1.3498  1.4667 -1.4466
25478SOL    HW283293   8.364   7.971  10.325  1.6536 -1.3446 -1.1927
25479SOL     OW83294   7.027   1.367  11.099 -0.6056  0.1592  0.3672
25479SOL    HW183295   6.940   1.329  11.088 -1.0886  1.1251  0.7505
25479SOL    HW283296   7.020   1.420  11.178 -0.0346  1.2474 -0.2926
25480SOL     OW83297   9.467  11.059  12.264 -0.3915 -0.4091 -0.4647
25480SOL    HW183298   9.560  11.080  12.256  0.1247 -1.8708  1.0638
25480SOL    HW283299   9.438  11.044  12.174  0.7018  0.6274 -1.0114
25481SOL     OW83300  10.905   4.703   9.046 -0.6277  0.1219 -0.0496
25481SOL    HW183301  10.819   4.729   9.081  1.0486  1.2733  3.7406
25481SOL    HW283302  10.952   4.785   9.035  0.5459 -0.5954 -0.5650
25482SOL     OW83303   8.688   4.599   1.117  0.5925 -0.2260  0.9759
25482SOL    HW183304   8.767   4.637   1.078  0.6533 -0.2585  1.0670
25482SOL    HW283305   8.689   4.629   1.207  1.3197 -1.4504  1.4154
25483SOL     OW83306   8.281   7.738   9.125 -0.3414  0.2742 -0.2083
25483SOL    HW183307   8.344   7.775   9.062 -0.7776  1.1959 -0.1091
25483SOL    HW283308   8.197   7.739   9.078 -0.2800 -1.0848 -0.3921
25484SOL     OW83309   3.237   0.545   2.448 -0.0517 -0.4579  0.0441
25484SOL    HW183310   3.283   0.628   2.435 -0.7335 -0.1220 -0.2968
25484SOL    HW283311   3.167   0.566   2.510 -0.3553 -0.7270 -0.2030
25485SOL     OW83312   2.976   2.329   1.284  0.0444 -0.0220  0.3173
25485SOL    HW183313   3.060   2.286   1.268 -0.6997 -1.1688 -0.6975
25485SOL    HW283314   2.967   2.330   1.379  1.1410  0.0041  0.4322
25486SOL     OW83315   2.700   8.798   3.063  0.0203  0.0817  0.7804
25486SOL    HW183316   2.664   8.830   3.146 -0.0173  0.8152  0.4852
25486SOL    HW283317   2.625   8.796   3.004 -0.1080 -1.1459  0.9498
25487SOL     OW83318   3.784   8.252   8.375 -0.0967 -0.1212  0.2340
25487SOL    HW183319   3.774   8.210   8.460 -1.3407  0.3239  0.3132
25487SOL    HW283320   3.864   8.305   8.383  0.5524 -1.1380  0.6644
25488SOL     OW83321   7.296   6.072   4.676  0.2348 -0.2277 -0.3276
25488SOL    HW183322   7.227   6.057   4.741  0.9169 -0.3936  0.3825
25488SOL    HW283323   7.255   6.126   4.609 -0.2071  0.8292  0.7635
25489SOL     OW83324  11.902   4.424   7.680  0.5796 -0.3034  0.2656
25489SOL    HW183325  11.887   4.426   7.774  1.9196  0.0220  0.4987
25489SOL    HW283326  11.987   4.381   7.670  0.3657 -0.5123 -0.8097
25490SOL     OW83327   1.965   9.879   7.727 -0.0658  0.1260 -0.0152
25490SOL    HW183328   2.021   9.957   7.728 -1.1427  1.1969 -3.9629
25490SOL    HW283329   1.876   9.913   7.732 -0.5024 -1.0908  0.8260
25491SOL     OW83330   6.307   6.754   4.528 -0.3455 -0.1430 -0.2151
25491SOL    HW183331   6.276   6.841   4.553  0.0009  0.0043 -0.2820
25491SOL    HW283332   6.333   6.764   4.436  1.0546  0.0768  0.1734
25492SOL     OW83333   7.070   3.232   3.012 -0.2147  0.7770 -0.3127
25492SOL    HW183334   7.085   3.187   2.929 -1.6072  1.9840 -1.2662
25492SOL    HW283335   7.071   3.325   2.990 -0.8590  1.1156  0.9829
25493SOL     OW83336   2.731   7.838  10.193 -0.1218  0.2272 -0.2194
25493SOL    HW183337   2.814   7.796  10.171  0.1317  0.3348  0.5081
25493SOL    HW283338   2.732   7.845  10.289 -1.2018 -0.2431 -0.1546
25494SOL     OW83339   4.897   3.581   5.019  0.3549 -0.0335 -0.5713
25494SOL    HW183340   4.941   3.537   5.091  2.0475  0.2580 -1.3914
25494SOL    HW283341   4.845   3.649   5.061  0.6688 -0.3998  0.4275
25495SOL     OW83342   0.709   9.465  10.244 -0.3265 -0.2116 -0.1415
25495SOL    HW183343   0.768   9.436  10.175 -0.2144  1.8114 -0.9778
25495SOL    HW283344   0.715   9.561  10.242 -1.8041 -0.0361  1.3719
25496SOL     OW83345   5.351   8.177   9.539 -0.2814  0.3644 -0.0629
25496SOL    HW183346   5.259   8.152   9.547  0.2907 -1.3098  2.0580
25496SOL    HW283347   5.350   8.249   9.476 -3.4788  2.9691  2.5783
25497SOL     OW83348   4.574   5.572  10.856  0.5267  0.0302  0.1840
25497SOL    HW183349   4.662   5.610  10.863  0.3818  0.4993 -0.4241
25497SOL    HW283350   4.530   5.626  10.790  0.0653 -0.7433 -0.1562
25498SOL     OW83351   1.431   3.803   7.695 -0.3270 -0.3644 -0.0301
25498SOL    HW183352   1.359   3.861   7.722 -0.8727 -1.0965  0.1263
25498SOL    HW283353   1.504   3.862   7.677 -1.4003  0.5383 -1.6875
25499SOL     OW83354   5.710   3.775  10.672  0.0445  0.2377  0.0549
25499SOL    HW183355   5.705   3.781  10.768 -0.8015 -3.0344  0.3103
25499SOL    HW283356   5.680   3.687  10.651 -3.0587  1.8514 -3.5319
25500SOL     OW83357   7.124   2.792   7.044 -0.2582  0.1742 -0.4873
25500SOL    HW183358   7.083   2.720   7.091  0.9750  0.6619  1.4522
25500SOL    HW283359   7.164   2.846   7.113 -0.6514  2.4097 -1.9042
25501SOL     OW83360  11.976   8.375   1.357 -0.1101  0.8150 -0.2361
25501SOL    HW183361  12.033   8.376   1.434  1.6630  1.1609 -1.4921
25501SOL    HW283362  11.969   8.282   1.333  1.5002  0.8968 -1.1444
25502SOL     OW83363   3.463   8.457  11.349  0.0348 -0.1267  0.2137
25502SOL    HW183364   3.533   8.424  11.406  0.4806  0.4181 -0.0030
25502SOL    HW283365   3.492   8.544  11.325  0.6947 -0.9471 -2.2096
25503SOL     OW83366  10.533   5.709   2.585 -0.0457 -0.2208  0.0827
25503SOL    HW183367  10.628   5.716   2.575 -0.0508 -0.2252  0.0302
25503SOL    HW283368  10.519   5.704   2.679 -0.1498  2.0881  0.2396
25504SOL     OW83369   2.845   5.581   7.319 -0.3752 -0.0659 -0.5113
25504SOL    HW183370   2.818   5.616   7.234 -3.3464 -3.2057 -1.0947
25504SOL    HW283371   2.767   5.537   7.352  1.2631 -0.6653  2.9641
25505SOL     OW83372   6.075   0.698   9.160  0.1593  0.6706 -1.1051
25505SOL    HW183373   6.133   0.756   9.110  0.3376  0.7911 -0.7602
25505SOL    HW283374   6.131   0.623   9.183 -0.6332 -0.7594 -3.4799
25506SOL     OW83375   9.171  10.250   4.657 -0.0923 -0.5295  0.4068
25506SOL    HW183376   9.136  10.206   4.580  0.5620  0.2333 -0.3377
25506SOL    HW283377   9.193  10.338   4.628  1.2431 -0.5851  1.1659
25507SOL     OW83378   1.723   2.478   5.963  0.0576 -0.3332 -0.4060
25507SOL    HW183379   1.693   2.388   5.968 -2.6670  0.5259  0.2208
25507SOL    HW283380   1.699   2.507   5.875 -1.2377  0.4338  0.1745
25508SOL     OW83381   8.003  10.445   9.736 -0.5053 -0.4607  0.3659
25508SOL    HW183382   8.012  10.350   9.745 -2.9625 -0.7830 -0.0599
25508SOL    HW283383   8.021  10.478   9.824  1.9688 -1.0937  0.1911
25509SOL     OW83384   3.263   3.154   2.816  0.3050  0.1140 -0.3259
25509SOL    HW183385   3.298   3.232   2.773  0.4095 -0.6395 -1.6309
25509SOL    HW283386   3.332   3.129   2.878  1.4614 -0.4688 -1.7890
25510SOL     OW83387  12.022   5.290   0.758  0.4245 -0.1713 -0.1002
25510SOL    HW183388  12.103   5.299   0.808  0.1595  0.7323  0.1739
25510SOL    HW283389  12.034   5.345   0.681 -0.2221  0.5688  0.3182
25511SOL     OW83390   6.668  10.737   2.693  0.5115 -0.3111  0.0699
25511SOL    HW183391   6.635  10.664   2.641 -2.3853  0.8204  0.1381
25511SOL    HW283392   6.647  10.715   2.783 -2.0281  1.2428 -0.0403
25512SOL     OW83393   2.964  11.766   2.005 -0.3251  0.1066 -0.4782
25512SOL    HW183394   2.920  11.819   1.938 -1.2881  1.6550  1.3019
25512SOL    HW283395   3.041  11.818   2.030  0.3859 -0.7635 -0.8039
25513SOL     OW83396  10.895  11.291  12.158 -0.5544 -0.0462  0.2799
25513SOL    HW183397  10.906  11.385  12.169 -0.5642  0.1037 -0.8563
25513SOL    HW283398  10.869  11.281  12.067 -1.0317 -1.1137  0.5251
25514SOL     OW83399   3.802  11.897   9.073  0.3338  0.2013  0.2977
25514SOL    HW183400   3.841  11.919   9.158  0.4557  0.7730  0.0972
25514SOL    HW283401   3.734  11.963   9.060  0.1017 -0.0764  0.0953
25515SOL     OW83402   2.853   0.502  10.476  0.4785 -0.2862  0.3200
25515SOL    HW183403   2.856   0.555  10.396 -0.2233  2.0950  1.7968
25515SOL    HW283404   2.931   0.527  10.525 -0.8331  0.8889  1.9043
25516SOL     OW83405   4.735   3.147   9.598 -0.2332 -0.6561  0.3157
25516SOL    HW183406   4.830   3.146   9.582 -0.2222  0.2096  0.3037
25516SOL    HW283407   4.724   3.100   9.680 -0.0008 -2.6001 -0.6993
25517SOL     OW83408  11.078  11.558   9.355  0.6475 -0.2162 -1.1664
25517SOL    HW183409  11.169  11.568   9.329  1.8426 -1.5479  2.0705
25517SOL    HW283410  11.072  11.470   9.391 -1.7242  0.1503 -0.4693
25518SOL     OW83411   0.131   4.418   5.126 -0.4333  0.0606 -0.6979
25518SOL    HW183412   0.151   4.421   5.220 -0.0291 -0.7242 -0.7544
25518SOL    HW283413   0.036   4.422   5.122 -0.4754 -0.3626 -0.2297
25519SOL     OW83414  11.585  11.908  12.098 -0.1268 -0.8872  0.2550
25519SOL    HW183415  11.661  11.894  12.041  0.5727  0.3012  0.8586
25519SOL    HW283416  11.542  11.986  12.062  0.0380 -0.4222  1.0439
25520SOL     OW83417   8.835   8.392   5.974 -0.5030  0.3665  0.6291
25520SOL    HW183418   8.744   8.413   5.954 -0.7871 -0.7570  0.6931
25520SOL    HW283419   8.848   8.303   5.941  0.8115  0.7933 -0.0967
25521SOL     OW83420   5.173   0.808   1.065  0.5076  0.3509  0.3856
25521SOL    HW183421   5.231   0.732   1.076  1.6208  1.1935  0.4611
25521SOL    HW283422   5.212   0.858   0.994 -0.4993  0.6176  0.0039
25522SOL     OW83423   6.246   6.045   8.699  0.3857  0.0834 -0.0511
25522SOL    HW183424   6.156   6.066   8.675 -0.2411 -0.1905  1.8269
25522SOL    HW283425   6.296   6.125   8.682  0.0031 -0.0683 -2.0054
25523SOL     OW83426   5.137   3.245   3.789  0.1567 -0.1997  0.2669
25523SOL    HW183427   5.218   3.249   3.838 -0.2781 -0.7994  1.0447
25523SOL    HW283428   5.071   3.282   3.848 -0.3433 -0.7683  0.0726
25524SOL     OW83429   9.485   4.541   7.746 -0.3825 -0.4982  0.2655
25524SOL    HW183430   9.457   4.477   7.680 -0.8346  0.7019 -0.7524
25524SOL    HW283431   9.528   4.610   7.695  0.3253 -0.1055  1.3641
25525SOL     OW83432   3.259   5.787   9.993  0.2114 -0.5600 -0.7966
25525SOL    HW183433   3.322   5.857   9.978  0.8274 -0.5462  1.3937
25525SOL    HW283434   3.225   5.804  10.081 -1.5917 -1.5490 -1.2533
25526SOL     OW83435  11.974   5.808   2.731 -0.6840 -0.0924  0.2954
25526SOL    HW183436  12.067   5.800   2.710 -0.6211 -0.8942  0.8290
25526SOL    HW283437  11.970   5.794   2.826 -1.4376 -0.9206  0.1535
25527SOL     OW83438  10.017   3.108   0.606 -0.8956  0.1096  0.1005
25527SOL    HW183439  10.011   3.113   0.511 -1.2867  1.2029  0.1712
25527SOL    HW283440  10.087   3.044   0.623  0.6598  1.4654 -0.9369
25528SOL     OW83441   8.032   2.998   5.783 -0.1973  0.5381 -0.0057
25528SOL    HW183442   8.007   2.907   5.771 -0.1089  0.6682 -1.3474
25528SOL    HW283443   7.995   3.023   5.868 -1.2023 -0.4044 -0.1551
25529SOL     OW83444   2.770   9.400  11.986  0.3223  0.2182 -0.2715
25529SOL    HW183445   2.737   9.367  12.070 -1.8326 -2.7971 -2.0960
25529SOL    HW283446   2.739   9.490  11.981  1.5161  0.8874  2.5797
25530SOL     OW83447   1.645  10.953   1.254 -0.3965 -0.5412  0.6475
25530SOL    HW183448   1.563  10.998   1.235 -0.1323 -0.2271  0.2257
25530SOL    HW283449   1.687  10.942   1.169  0.3489 -0.0140  0.9319
25531SOL     OW83450   2.371   5.242   6.763  0.2193 -0.4683 -0.6534
25531SOL    HW183451   2.380   5.211   6.673  0.4229  0.5896 -1.0095
25531SOL    HW283452   2.383   5.337   6.758 -0.2097 -0.3347  0.4278
25532SOL     OW83453   5.363   8.576  12.566 -0.1795 -0.2323  0.2995
25532SOL    HW183454   5.310   8.503  12.598  1.1753 -0.5180  2.0599
25532SOL    HW283455   5.445   8.569  12.614  1.5636  0.1294 -2.3919
25533SOL     OW83456   5.333   1.287   7.790 -0.2078  0.5352  0.0767
25533SOL    HW183457   5.362   1.367   7.834 -2.3894  0.6891  1.3619
25533SOL    HW283458   5.362   1.216   7.847 -0.1013  0.5208  0.0062
25534SOL     OW83459   0.261   5.434   4.041  0.3824  0.5138  0.1405
25534SOL    HW183460   0.166   5.422   4.038  0.1449  1.8807  1.2488
25534SOL    HW283461   0.285   5.449   3.949 -0.5662  0.6888 -0.0988
25535SOL     OW83462   3.839   7.331   4.069 -0.4541  0.0123 -0.1225
25535SOL    HW183463   3.896   7.274   4.019 -1.1664  0.7364 -1.8314
25535SOL    HW283464   3.764   7.277   4.092 -0.2711 -0.2313 -0.0938
25536SOL     OW83465   0.584   7.159  12.055 -0.1037 -0.4917 -0.1831
25536SOL    HW183466   0.514   7.141  12.117  1.2327 -1.3100  1.1481
25536SOL    HW283467   0.623   7.241  12.084 -0.1585 -0.3151 -0.5963
25537SOL     OW83468   2.471  11.600   9.799 -0.7979 -0.3148 -0.4538
25537SOL    HW183469   2.503  11.525   9.848 -0.9381 -0.5423 -0.7067
25537SOL    HW283470   2.414  11.647   9.861 -4.2155 -2.7183 -1.4411
25538SOL     OW83471   7.015   8.347   8.423 -0.4385  0.1946 -0.4928
25538SOL    HW183472   7.034   8.255   8.404  0.8527  0.1599  0.8097
25538SOL    HW283473   6.924   8.348   8.452 -0.4303 -0.6728 -0.4201
25539SOL     OW83474   1.233   6.582   1.724  0.2830 -0.7169 -0.1920
25539SOL    HW183475   1.249   6.673   1.750 -2.3623  0.0867 -1.0522
25539SOL    HW283476   1.239   6.532   1.805 -0.9266  0.6569  0.7825
25540SOL     OW83477   2.105   1.456   3.525 -0.3930  0.4677 -0.0483
25540SOL    HW183478   2.161   1.528   3.552 -0.3104 -0.4229  2.4178
25540SOL    HW283479   2.027   1.498   3.489 -0.1791  1.7945  0.9705
25541SOL     OW83480  11.076  12.162  11.854  0.4769 -0.3264 -0.2164
25541SOL    HW183481  11.043  12.092  11.798 -1.4750  1.5135 -1.5494
25541SOL    HW283482  11.001  12.186  11.909  1.5955 -0.3555  1.3964
25542SOL     OW83483  12.165   0.058  10.941  0.1575 -0.3404 -0.2151
25542SOL    HW183484  12.080   0.016  10.950 -0.5472  0.7237 -1.4928
25542SOL    HW283485  12.147   0.139  10.893  1.6854  0.6305  0.7315
25543SOL     OW83486  11.233   6.473   6.858 -0.4435  0.0496  0.0595
25543SOL    HW183487  11.247   6.439   6.947 -1.0674  2.4280  1.1794
25543SOL    HW283488  11.155   6.427   6.827  0.0469 -1.1481  0.5521
25544SOL     OW83489   4.702   4.736   5.451  0.2283 -0.0642 -0.4900
25544SOL    HW183490   4.618   4.699   5.421  1.5554 -3.3806 -0.5878
25544SOL    HW283491   4.698   4.727   5.547 -0.2027  1.5785 -0.3155
25545SOL     OW83492   5.130   3.743   3.833  0.5080  0.2721  0.3051
25545SOL    HW183493   5.140   3.648   3.840  1.2109  0.4075  1.3845
25545SOL    HW283494   5.042   3.760   3.867 -0.4102 -0.1571 -1.7326
25546SOL     OW83495   4.764  10.197   6.280  0.2499  0.3048  0.4907
25546SOL    HW183496   4.676  10.175   6.248  0.6110 -0.3889 -0.0495
25546SOL    HW283497   4.749  10.265   6.346 -0.6487  0.5373  0.0630
25547SOL     OW83498   0.439  11.266  11.775  0.0573  0.5073 -0.1924
25547SOL    HW183499   0.453  11.171  11.765 -0.1914  0.5562 -1.1803
25547SOL    HW283500   0.412  11.277  11.866 -1.2334 -0.5518 -0.4154
25548SOL     OW83501   9.518   6.647   5.387  0.2615  0.1131  0.1426
25548SOL    HW183502   9.445   6.701   5.419 -0.1660  0.4175 -1.2658
25548SOL    HW283503   9.485   6.608   5.306  1.8815  0.8122 -0.9157
25549SOL     OW83504   3.155   2.997   2.431  0.4246  0.4796 -0.4614
25549SOL    HW183505   3.236   2.978   2.479  0.9120  0.0210 -1.4394
25549SOL    HW283506   3.089   2.944   2.475  0.7596  0.4505  0.0206
25550SOL     OW83507   3.212   7.584   3.105 -0.6187 -0.4248  0.4549
25550SOL    HW183508   3.146   7.640   3.065  0.5642 -0.2043 -1.2908
25550SOL    HW283509   3.265   7.552   3.032  1.7085  0.0485  1.8204
25551SOL     OW83510  11.159   3.138   0.125 -0.2698 -0.2865  0.3812
25551SOL    HW183511  11.200   3.224   0.139  0.4567 -0.6261  0.3878
25551SOL    HW283512  11.198   3.081   0.191  0.2644 -0.9496 -0.4845
25552SOL     OW83513   9.723   0.471   7.828  0.1397  0.1597 -0.1068
25552SOL    HW183514   9.699   0.532   7.897 -1.2959 -1.2333  0.6685
25552SOL    HW283515   9.686   0.387   7.855  2.6900 -1.3008 -0.7410
25553SOL     OW83516   4.480  10.786   3.809 -0.4528  0.5607  0.1938
25553SOL    HW183517   4.525  10.869   3.794  0.9504 -0.6386 -3.0654
25553SOL    HW283518   4.549  10.725   3.836 -0.8960 -0.2507 -0.4401
25554SOL     OW83519   9.646   9.643  11.296 -0.2197 -0.7779 -0.5572
25554SOL    HW183520   9.679   9.721  11.341 -1.8719 -1.0535  1.2092
25554SOL    HW283521   9.725   9.600  11.263  0.8237  0.9005 -0.3724
25555SOL     OW83522   8.080   0.011   9.507 -0.0162 -0.0379 -0.1991
25555SOL    HW183523   8.047  -0.079   9.518 -1.6583  0.6332  0.7930
25555SOL    HW283524   8.044   0.039   9.423  0.3786 -0.2672 -0.4436
25556SOL     OW83525   2.904   4.882   4.776 -0.1533  0.2683 -0.0031
25556SOL    HW183526   2.890   4.909   4.685 -1.8276  1.8596  0.6510
25556SOL    HW283527   2.943   4.795   4.770 -0.0357  0.4182 -2.2337
25557SOL     OW83528   7.746   4.705   7.971  0.8602  0.3582 -0.2444
25557SOL    HW183529   7.700   4.784   7.998  1.0431  0.3785  0.0056
25557SOL    HW283530   7.766   4.659   8.053  2.7670  1.1565 -0.2225
25558SOL     OW83531   4.932   1.826   6.261 -0.2725 -0.4964 -0.1288
25558SOL    HW183532   4.888   1.741   6.251 -0.1595 -0.5034 -0.6366
25558SOL    HW283533   4.980   1.819   6.344 -0.1569 -0.9824 -0.2285
25559SOL     OW83534  11.278  10.763   0.248 -0.1337 -0.0238 -0.0337
25559SOL    HW183535  11.279  10.790   0.156  0.4684 -1.6905 -0.5412
25559SOL    HW283536  11.369  10.738   0.266 -0.0254  1.1971  1.3199
25560SOL     OW83537   6.434   5.772   4.850  0.4724  0.3410 -0.1613
25560SOL    HW183538   6.391   5.856   4.862 -0.7880 -0.5231  1.9575
25560SOL    HW283539   6.386   5.712   4.907  3.2378 -1.1591  0.7765
25561SOL     OW83540   1.095  11.515   1.315  0.6154  0.0278  0.3147
25561SOL    HW183541   1.046  11.597   1.316  0.4495 -0.0026 -1.7109
25561SOL    HW283542   1.031  11.449   1.343 -0.2430  0.1458 -1.2455
25562SOL     OW83543   4.958   4.204   2.454 -0.2843  0.0061  0.0192
25562SOL    HW183544   4.985   4.285   2.499 -0.9100  1.2863 -1.8039
25562SOL    HW283545   5.039   4.154   2.445  0.5001  1.3030 -0.5153
25563SOL     OW83546   7.474  11.528  10.631 -0.1067 -0.8223 -0.2372
25563SOL    HW183547   7.386  11.526  10.593 -0.0494  0.5355 -0.4864
25563SOL    HW283548   7.465  11.582  10.710  0.4943 -0.7189 -0.2324
25564SOL     OW83549   3.149   7.902   3.290  0.5242  0.1087 -0.3937
25564SOL    HW183550   3.158   7.949   3.373  1.4836 -1.2642  0.3229
25564SOL    HW283551   3.230   7.921   3.242  1.0003 -0.8915 -0.0260
25565SOL     OW83552   0.907   9.334  10.060 -0.5177  0.3426  0.3734
25565SOL    HW183553   0.990   9.313  10.103 -1.0144  1.4218  1.9972
25565SOL    HW283554   0.881   9.254  10.016  1.4695  0.0409 -0.3292
25566SOL     OW83555   0.961   2.114  11.696 -0.0818  0.1988  0.2035
25566SOL    HW183556   1.028   2.183  11.708  0.5960 -0.2083 -1.0393
25566SOL    HW283557   0.958   2.101  11.602 -1.6191 -0.1224  0.2849
25567SOL     OW83558   5.047   4.867   8.963 -0.0462  0.3879  0.2650
25567SOL    HW183559   4.994   4.854   9.041  0.7793  1.2371  0.9907
25567SOL    HW283560   5.000   4.819   8.894 -2.2962  1.9281  0.6216
25568SOL     OW83561   3.788   9.122   8.378  0.1789 -0.1179  0.5857
25568SOL    HW183562   3.879   9.113   8.406  0.3052 -0.9448 -0.0504
25568SOL    HW283563   3.765   9.212   8.401  0.3125 -0.6760  3.1653
25569SOL     OW83564   3.845   0.048  10.982 -0.5429  0.1084 -0.1467
25569SOL    HW183565   3.805   0.079  10.901 -0.4980  1.3454  0.2741
25569SOL    HW283566   3.772   0.027  11.039 -0.6821  2.3643  0.6223
25570SOL     OW83567   5.195   6.179  11.543  0.6694  0.4669  0.5950
25570SOL    HW183568   5.226   6.179  11.452 -0.2997 -0.7395  0.2425
25570SOL    HW283569   5.220   6.093  11.577 -0.0078  0.4667  1.1062
25571SOL     OW83570  12.423   6.118   8.456 -0.2229 -0.2174 -0.3530
25571SOL    HW183571  12.454   6.196   8.501 -2.5017  0.8731 -0.5010
25571SOL    HW283572  12.373   6.071   8.523 -0.9814 -0.2240 -0.9082
25572SOL     OW83573   4.839   4.485   2.747  0.1597 -0.3392  0.2741
25572SOL    HW183574   4.768   4.482   2.811 -0.0914  1.5208  0.1365
25572SOL    HW283575   4.913   4.445   2.792 -0.2886  0.0302  1.3847
25573SOL     OW83576   6.915  11.897   6.860 -0.1876 -0.2143  0.0915
25573SOL    HW183577   6.836  11.932   6.902 -1.7824 -0.5671 -2.3969
25573SOL    HW283578   6.944  11.968   6.802  0.8876 -0.3820  0.4039
25574SOL     OW83579   6.585   0.047  10.204 -0.4171  0.0764 -0.2842
25574SOL    HW183580   6.527   0.107  10.156 -0.3310  1.9332  1.7862
25574SOL    HW283581   6.588   0.082  10.293  2.5960 -0.8865  0.1081
25575SOL     OW83582  11.408   7.877   2.078  0.0161 -0.1385  0.5606
25575SOL    HW183583  11.461   7.811   2.034  0.8905  0.7849  0.1930
25575SOL    HW283584  11.428   7.865   2.171 -0.5389 -0.9826  0.5808
25576SOL     OW83585   4.542  12.577   5.649 -0.0880 -0.5144 -0.3859
25576SOL    HW183586   4.593  12.602   5.572  1.4492  1.2540  1.1013
25576SOL    HW283587   4.467  12.636   5.649  0.1508 -0.2119 -0.2776
25577SOL     OW83588   9.737   8.354   7.202  0.1084 -0.2624  0.9065
25577SOL    HW183589   9.801   8.409   7.156 -0.4368  0.2728  0.7693
25577SOL    HW283590   9.760   8.361   7.294 -1.4102  2.2141  1.1888
25578SOL     OW83591  10.069   5.892   9.254  0.3240 -0.1150 -0.2124
25578SOL    HW183592   9.990   5.879   9.201  0.3628 -1.1226 -0.0463
25578SOL    HW283593  10.071   5.816   9.313  0.2343  1.0132  1.3047
25579SOL     OW83594  11.096  12.090   9.363  0.6404 -0.1190  0.2473
25579SOL    HW183595  11.181  12.045   9.368  0.4074 -0.4360  1.8397
25579SOL    HW283596  11.108  12.169   9.415  0.2159  0.2857 -0.2598
25580SOL     OW83597   0.828   2.562   5.471  0.3289  0.0540 -0.3693
25580SOL    HW183598   0.836   2.517   5.387 -2.5576  0.2709 -0.8652
25580SOL    HW283599   0.734   2.566   5.487  0.7515  0.8506  2.4554
25581SOL     OW83600   3.858   6.485  11.403  0.1644 -0.0234  0.0652
25581SOL    HW183601   3.892   6.521  11.485 -0.5075  2.3402 -0.5928
25581SOL    HW283602   3.814   6.404  11.428 -0.8499  1.1119  2.2401
25582SOL     OW83603   4.024   8.822   6.454  0.1978  0.2380 -0.6838
25582SOL    HW183604   3.937   8.785   6.468  0.0780  1.0778  1.0182
25582SOL    HW283605   4.009   8.894   6.393 -0.4226  0.7719  0.0735
25583SOL     OW83606   1.267   6.096  11.393  0.1280 -0.0180  0.1184
25583SOL    HW183607   1.285   6.078  11.485 -2.4339  1.1619  0.9431
25583SOL    HW283608   1.171   6.099  11.387  0.2298  0.6981 -2.4318
25584SOL     OW83609  11.932   6.881   3.578 -0.4539 -0.3724  0.4408
25584SOL    HW183610  11.944   6.786   3.575  0.1575 -0.3859  2.0926
25584SOL    HW283611  11.839   6.893   3.564 -0.3702 -1.1105 -0.9987
25585SOL     OW83612   7.612   2.826   1.216  0.0366  0.5236 -0.3069
25585SOL    HW183613   7.643   2.889   1.281 -0.3699  0.2119  0.1973
25585SOL    HW283614   7.677   2.755   1.218 -0.1837  0.3292  0.0469
25586SOL     OW83615  11.595   5.063   0.564 -0.2913 -0.3315  0.1839
25586SOL    HW183616  11.652   5.140   0.571  1.1459 -1.3861  0.5558
25586SOL    HW283617  11.586   5.048   0.470  0.3882 -0.3837  0.1218
25587SOL     OW83618  11.477   5.033   6.563 -0.5454  0.5441 -0.1914
25587SOL    HW183619  11.484   4.974   6.488 -0.4918 -0.5584  0.6565
25587SOL    HW283620  11.496   5.120   6.527  2.2208 -0.2755 -0.9650
25588SOL     OW83621  11.138   3.282   6.742 -0.6166 -0.1912 -0.3121
25588SOL    HW183622  11.115   3.233   6.821 -0.9504  0.0421 -0.2661
25588SOL    HW283623  11.211   3.232   6.705 -0.9827 -0.7577 -0.2943
25589SOL     OW83624   8.153  12.097   3.517 -0.0598 -0.4819 -0.1469
25589SOL    HW183625   8.110  12.183   3.512  2.1116  0.6722  0.0347
25589SOL    HW283626   8.171  12.085   3.610 -0.2627 -1.1171 -0.1828
25590SOL     OW83627   9.395   3.050   1.204  0.0203 -0.1478  0.4266
25590SOL    HW183628   9.300   3.052   1.202  0.0374  1.0827 -1.2472
25590SOL    HW283629   9.420   2.986   1.137  0.3904 -0.6723  1.0464
25591SOL     OW83630   8.895   8.599   7.649  0.3600 -0.4603 -0.1604
25591SOL    HW183631   8.846   8.679   7.629 -0.2922 -0.7128  0.4046
25591SOL    HW283632   8.949   8.584   7.571 -1.0844 -0.6533 -1.1599
25592SOL     OW83633   2.793  10.244   0.583  0.6531  0.1250 -0.3651
25592SOL    HW183634   2.701  10.246   0.610  0.3380 -1.6536 -1.1465
25592SOL    HW283635   2.838  10.197   0.653  1.4093  2.6946  1.0056
25593SOL     OW83636   7.224   6.861   2.367  0.2747 -0.3980 -0.4835
25593SOL    HW183637   7.135   6.893   2.355 -0.1393 -1.4799 -0.4847
25593SOL    HW283638   7.228   6.835   2.459  0.8306  0.3131 -0.2975
25594SOL     OW83639   0.458   8.079  11.762 -0.1595 -0.6192  0.2898
25594SOL    HW183640   0.425   8.101  11.849  1.5659 -0.6657  0.9841
25594SOL    HW283641   0.553   8.084  11.770  0.0282  0.6715 -1.9374
25595SOL     OW83642   7.998   2.508   6.071 -0.4176 -0.2595  0.0049
25595SOL    HW183643   7.912   2.527   6.108 -0.7726 -1.8396  0.0268
25595SOL    HW283644   8.041   2.452   6.136  0.3899 -0.0036 -0.2910
25596SOL     OW83645   3.098   2.410  12.223  0.6498  0.8048 -0.4102
25596SOL    HW183646   3.018   2.409  12.171  0.8503 -1.0168 -0.7602
25596SOL    HW283647   3.163   2.452  12.166  0.3158  0.8979 -0.7235
25597SOL     OW83648   0.300   7.539  10.937  0.2702 -0.2398  0.1129
25597SOL    HW183649   0.312   7.449  10.906  0.9348 -0.2244  0.3065
25597SOL    HW283650   0.210   7.560  10.914  0.1953 -0.8566 -0.1927
25598SOL     OW83651   3.680  10.651   1.462 -0.8030 -0.1750 -0.3377
25598SOL    HW183652   3.679  10.565   1.502  2.5313  0.2239  0.9685
25598SOL    HW283653   3.679  10.712   1.536 -3.0607  0.9721 -1.2290
25599SOL     OW83654   6.003   7.156  12.300  0.3883 -0.1148 -0.2555
25599SOL    HW183655   5.948   7.203  12.237 -0.0673 -0.1284  0.1324
25599SOL    HW283656   5.955   7.161  12.383  1.3964  0.6815  0.3071
25600SOL     OW83657   0.456   4.489   4.314 -0.1848  0.4150 -0.3319
25600SOL    HW183658   0.548   4.494   4.289 -0.0711  0.9037  0.1588
25600SOL    HW283659   0.442   4.397   4.336  0.8176  0.7311  1.8611
25601SOL     OW83660   4.394   1.836   5.504 -0.1320 -0.3938  0.0050
25601SOL    HW183661   4.378   1.863   5.414 -1.2753 -1.8220 -0.2537
25601SOL    HW283662   4.459   1.765   5.497 -0.3510 -0.6231  0.2864
25602SOL     OW83663   9.554   8.959   2.428 -0.3565 -0.0225 -0.2136
25602SOL    HW183664   9.597   8.912   2.356 -1.0569  2.2759 -2.2476
25602SOL    HW283665   9.601   9.042   2.433 -0.4921 -0.0233  1.8888
25603SOL     OW83666  10.694   2.804   8.271  0.4120 -0.8751 -0.0524
25603SOL    HW183667  10.698   2.844   8.358  1.3228 -2.0938  0.5034
25603SOL    HW283668  10.699   2.878   8.211 -0.3287  0.0034  0.9177
25604SOL     OW83669   2.297  10.013   0.893  0.4523  0.0284  0.0768
25604SOL    HW183670   2.242  10.032   0.969  0.7393  1.0770  0.0318
25604SOL    HW283671   2.247   9.949   0.842 -1.5706  2.2724 -0.8911
25605SOL     OW83672   3.811   8.399   9.684  0.1591  1.1616 -0.3296
25605SOL    HW183673   3.903   8.374   9.694 -0.0967  0.4439  0.2665
25605SOL    HW283674   3.763   8.336   9.737 -0.8319  0.3906 -2.0734
25606SOL     OW83675   9.786  10.715   0.346 -0.5994  0.1921  0.0016
25606SOL    HW183676   9.836  10.690   0.269 -1.5086 -0.6331 -0.3291
25606SOL    HW283677   9.787  10.638   0.403 -0.5965  0.5266  0.4644
25607SOL     OW83678   4.010  11.990   2.993 -0.5550  0.3316 -0.1295
25607SOL    HW183679   4.002  12.080   2.961  0.8822  0.8750  0.9172
25607SOL    HW283680   4.103  11.981   3.015 -0.8985 -1.0154  0.8908
25608SOL     OW83681  10.824   1.430   5.359  0.7161 -0.0970  0.1034
25608SOL    HW183682  10.822   1.481   5.279 -0.0280 -1.5651 -0.8542
25608SOL    HW283683  10.737   1.391   5.366  0.8371 -0.1975  1.5111
25609SOL     OW83684   3.445  11.207  12.353  0.1368  0.0532  0.0357
25609SOL    HW183685   3.432  11.112  12.354  4.1430 -0.7017 -0.1282
25609SOL    HW283686   3.518  11.221  12.413  0.3148  2.8926 -0.7199
25610SOL     OW83687   4.845  10.364  10.795 -0.5862 -0.4281  0.4300
25610SOL    HW183688   4.808  10.288  10.840 -0.6488 -1.1913 -0.8868
25610SOL    HW283689   4.846  10.340  10.703  0.7528  0.6053  0.1467
25611SOL     OW83690  10.899   3.894   7.540  0.1343 -0.4310 -0.5797
25611SOL    HW183691  10.990   3.914   7.566 -0.6514  1.2238  1.1625
25611SOL    HW283692  10.895   3.921   7.448  1.0732  0.8662 -0.2823
25612SOL     OW83693   9.908   6.850   3.548 -0.4682 -0.1056 -0.0187
25612SOL    HW183694   9.881   6.858   3.456 -1.4122  0.8953  0.3244
25612SOL    HW283695   9.999   6.820   3.544 -0.6652 -0.6206 -1.2678
25613SOL     OW83696   3.372  12.225   0.887 -0.0575  0.7847  0.2625
25613SOL    HW183697   3.356  12.203   0.979  0.5986  0.6788  0.3590
25613SOL    HW283698   3.467  12.216   0.877 -0.1208  0.8405 -0.4153
25614SOL     OW83699  12.257   9.811   0.378 -0.1876  0.1754 -0.8615
25614SOL    HW183700  12.272   9.785   0.287  0.1134 -1.8124 -0.2927
25614SOL    HW283701  12.335   9.781   0.424 -0.4846  0.8657  0.1123
25615SOL     OW83702   6.764   6.931  11.976 -0.8350  0.2096  0.0475
25615SOL    HW183703   6.737   6.851  12.022 -1.3519 -0.5802 -1.5531
25615SOL    HW283704   6.696   6.995  11.998 -0.7614  0.0339  0.8291
25616SOL     OW83705  10.904   3.940  10.804 -0.4084 -0.4460  0.3891
25616SOL    HW183706  10.956   4.016  10.829 -0.9727  0.0804  0.0079
25616SOL    HW283707  10.880   3.899  10.887  1.3126 -1.2012  0.5486
25617SOL     OW83708   9.792  11.259  11.849  0.3026 -0.2088 -0.9721
25617SOL    HW183709   9.802  11.346  11.888 -0.4262 -0.8793  0.8345
25617SOL    HW283710   9.875  11.242  11.806  2.3914 -0.5509  2.7911
25618SOL     OW83711   8.205   4.340   8.870 -0.4715  0.3075  0.2089
25618SOL    HW183712   8.295   4.369   8.884 -0.0433 -0.8233 -0.0890
25618SOL    HW283713   8.170   4.326   8.958 -0.4050  0.8802  0.3287
25619SOL     OW83714   4.450  11.742   6.784  0.5127 -0.1499  0.0424
25619SOL    HW183715   4.491  11.686   6.851 -0.3683  0.4584  1.1084
25619SOL    HW283716   4.422  11.680   6.716  0.1978 -0.9445  0.8685
25620SOL     OW83717   7.809   0.598  10.675  0.0299  0.1171  0.1406
25620SOL    HW183718   7.802   0.506  10.653 -0.1590  0.5588 -1.8447
25620SOL    HW283719   7.890   0.604  10.726 -0.0078 -1.1455  0.3761
25621SOL     OW83720  11.626  11.873   9.739  0.1891 -0.2899  0.2206
25621SOL    HW183721  11.600  11.888   9.830  0.6754  0.2986  0.2728
25621SOL    HW283722  11.574  11.798   9.711 -2.1255  1.2584  0.0754
25622SOL     OW83723   2.192   8.808   7.677 -0.1953  0.1542 -0.2314
25622SOL    HW183724   2.120   8.849   7.629  0.7876  1.2590 -0.8198
25622SOL    HW283725   2.201   8.861   7.756  2.0177  2.1785 -1.6525
25623SOL     OW83726   4.398  10.605  12.574 -0.0480  0.6953  0.6066
25623SOL    HW183727   4.392  10.541  12.645 -1.0818 -0.7424 -0.7118
25623SOL    HW283728   4.474  10.577  12.522 -0.6444  0.3862 -0.1101
25624SOL     OW83729   6.836   3.192   7.128  0.3577 -0.0974 -0.1527
25624SOL    HW183730   6.863   3.281   7.107 -1.1617  0.4888  0.2343
25624SOL    HW283731   6.889   3.167   7.203  0.4437  0.6662  0.0426
25625SOL     OW83732   4.623   8.709   5.286  0.1519 -0.2032  0.5712
25625SOL    HW183733   4.621   8.756   5.203  0.2197  1.1079  1.2961
25625SOL    HW283734   4.582   8.624   5.265  1.1861 -0.3529 -1.0473
25626SOL     OW83735   8.791   9.568   8.635 -0.6413  0.4757 -0.3441
25626SOL    HW183736   8.859   9.635   8.630 -0.2219  0.0466 -0.4676
25626SOL    HW283737   8.835   9.487   8.612 -1.4419  0.3566 -1.5683
25627SOL     OW83738   3.721  11.045   1.389 -0.5894 -0.2377 -0.0887
25627SOL    HW183739   3.814  11.064   1.386 -0.5262 -0.2340  1.3880
25627SOL    HW283740   3.703  11.000   1.307  0.7660 -0.4982 -0.2563
25628SOL     OW83741   8.906   5.616   7.123 -0.4572  0.0157  0.3563
25628SOL    HW183742   8.829   5.669   7.144 -0.0571  0.5723  0.4304
25628SOL    HW283743   8.927   5.570   7.205 -1.8134 -1.5972 -0.1394
25629SOL     OW83744   4.519   8.664   3.403  0.1197  0.3774  0.0609
25629SOL    HW183745   4.527   8.707   3.488  1.0137  1.5624 -0.5869
25629SOL    HW283746   4.469   8.726   3.350  0.3708  0.0664 -0.5402
25630SOL     OW83747  11.745   6.041   2.858 -0.8786  0.0353  0.1862
25630SOL    HW183748  11.754   6.017   2.766 -0.2830 -0.0084  0.2499
25630SOL    HW283749  11.720   5.960   2.902 -0.3320 -0.1424  0.1816
25631SOL     OW83750   4.112   8.005   5.300  0.1163 -0.0522 -0.1615
25631SOL    HW183751   4.203   7.978   5.313  0.2195  0.1228 -0.5222
25631SOL    HW283752   4.067   7.972   5.378  0.1395 -1.7292 -0.8195
25632SOL     OW83753   2.859  11.135  11.944 -0.1631 -0.2037 -0.2307
25632SOL    HW183754   2.886  11.098  11.860  0.9115  0.8608 -0.3788
25632SOL    HW283755   2.780  11.185  11.924 -1.0181 -1.4954 -0.2243
25633SOL     OW83756   7.605   5.990   1.819  0.1579 -1.1592 -0.0707
25633SOL    HW183757   7.551   5.921   1.858 -0.8047 -1.0979 -1.2329
25633SOL    HW283758   7.543   6.044   1.770  0.5843  1.5250  2.0851
25634SOL     OW83759   9.490   7.942  12.315  0.9507 -0.1069  0.0816
25634SOL    HW183760   9.425   7.895  12.366 -0.1987  1.5270  0.1958
25634SOL    HW283761   9.499   7.892  12.234 -0.5471 -0.2893  0.0080
25635SOL     OW83762   9.778   5.158   8.881  0.2321  0.7352 -0.2671
25635SOL    HW183763   9.842   5.227   8.863  0.8361 -0.2260 -2.0877
25635SOL    HW283764   9.722   5.157   8.803  0.2471 -0.8435 -0.2770
25636SOL     OW83765  11.548   4.502  11.730  0.4231 -1.1300 -0.4173
25636SOL    HW183766  11.590   4.429  11.775  2.5141 -0.3042 -0.9385
25636SOL    HW283767  11.528   4.564  11.800 -0.3914 -1.7224 -0.1076
25637SOL     OW83768   4.644   9.884   8.742 -0.1793  0.2008 -0.3057
25637SOL    HW183769   4.579   9.814   8.750  0.3104 -0.0895  1.9681
25637SOL    HW283770   4.653   9.919   8.831  1.4940  1.4008 -0.8863
25638SOL     OW83771   9.294   4.498   7.119  0.0293  0.1230  0.5394
25638SOL    HW183772   9.220   4.549   7.087  0.1051 -0.9716 -1.5804
25638SOL    HW283773   9.277   4.409   7.087  3.1386  0.1861 -1.7680
25639SOL     OW83774   1.718   0.040   3.998  0.1001  0.3518 -0.3284
25639SOL    HW183775   1.651  -0.027   3.983  0.1427  0.6445 -2.0725
25639SOL    HW283776   1.704   0.068   4.088 -0.0382 -1.8567  0.3920
25640SOL     OW83777   5.573   0.970  11.956  0.1446  0.0261  0.0890
25640SOL    HW183778   5.605   1.003  11.873 -0.7380  1.4618  0.2966
25640SOL    HW283779   5.626   0.891  11.972  1.0815  0.3436 -1.2673
25641SOL     OW83780   4.215   6.336   4.021  0.1491 -0.0556 -0.0104
25641SOL    HW183781   4.153   6.265   4.041 -0.5216  0.4554 -0.2241
25641SOL    HW283782   4.182   6.411   4.071 -0.2051  0.5953 -1.1957
25642SOL     OW83783  11.914   4.841   9.566  0.4536  0.0861  0.3711
25642SOL    HW183784  11.922   4.906   9.635  1.1494  1.6736 -1.1114
25642SOL    HW283785  11.851   4.878   9.505 -0.5416 -1.5159  0.3771
25643SOL     OW83786  10.643   6.641   9.949  0.0356  0.2870 -0.2302
25643SOL    HW183787  10.566   6.627   9.894  0.0073 -0.9914  0.1133
25643SOL    HW283788  10.613   6.703  10.016 -0.9802 -0.9091  0.4536
25644SOL     OW83789   5.483   5.435  10.897  0.4110 -0.0919 -0.2410
25644SOL    HW183790   5.565   5.439  10.947  0.4289  0.0950 -0.2831
25644SOL    HW283791   5.495   5.360  10.839  0.6616  0.0995 -0.4385
25645SOL     OW83792  11.417  10.179   8.525  0.2371 -0.1953  0.2569
25645SOL    HW183793  11.374  10.110   8.475  0.7666 -0.2020 -0.2051
25645SOL    HW283794  11.507  10.147   8.537  0.5659  0.5300 -0.1995
25646SOL     OW83795   5.659   3.228   6.583 -0.0545  0.2445 -0.2979
25646SOL    HW183796   5.742   3.210   6.538  0.1791  0.1380  0.1668
25646SOL    HW283797   5.627   3.309   6.544  0.3511  0.3737 -0.3612
25647SOL     OW83798   9.852  10.061  10.754 -0.0492  0.2552  0.0020
25647SOL    HW183799   9.929  10.119  10.753  1.6150 -1.8218 -0.0400
25647SOL    HW283800   9.883   9.980  10.713 -2.4159 -0.5244 -0.3789
25648SOL     OW83801   5.391   9.873   7.071 -0.0248  0.1378 -0.0299
25648SOL    HW183802   5.342   9.822   7.136 -0.7352  0.6839 -0.1216
25648SOL    HW283803   5.462   9.815   7.044 -0.1285 -0.3573  0.7243
25649SOL     OW83804   5.363  11.919   9.010  0.4420  0.5004 -0.5252
25649SOL    HW183805   5.363  11.884   9.099  0.2647 -0.8514 -1.0421
25649SOL    HW283806   5.340  12.011   9.021 -1.4158 -0.0459  0.6777
25650SOL     OW83807   6.480   3.781   4.148  0.3446  0.4724 -0.7653
25650SOL    HW183808   6.505   3.858   4.096 -1.3107  0.3182 -1.8548
25650SOL    HW283809   6.509   3.707   4.096  1.4734  0.3118  0.0445
25651SOL     OW83810   5.646   0.437  11.441 -0.1733 -0.1750  0.2784
25651SOL    HW183811   5.625   0.451  11.534  0.0164  1.6083  0.0997
25651SOL    HW283812   5.732   0.477  11.430 -0.8543  1.0444 -0.9714
25652SOL     OW83813   6.520   8.416  11.243 -0.4373  0.2753  0.0353
25652SOL    HW183814   6.526   8.399  11.337  0.3859 -1.7818 -0.3303
25652SOL    HW283815   6.542   8.333  11.202  0.2536  1.3834 -2.0046
25653SOL     OW83816   3.355   1.064  12.090  0.6008  0.1720  0.0110
25653SOL    HW183817   3.333   1.026  12.175 -0.9947  1.3877  0.1956
25653SOL    HW283818   3.377   0.989  12.035 -1.5471 -1.0017  0.6213
25654SOL     OW83819  11.111  10.570  11.594  0.1439 -0.6390  0.1305
25654SOL    HW183820  11.135  10.598  11.506 -0.8343 -0.8032 -0.1964
25654SOL    HW283821  11.021  10.538  11.586  0.6201 -2.2705  0.8357
25655SOL     OW83822   1.941   3.214   4.872 -0.4148  0.1653 -0.2067
25655SOL    HW183823   1.998   3.140   4.851  0.2897  0.6150  0.0789
25655SOL    HW283824   1.977   3.287   4.822 -0.1083  0.6970  0.7582
25656SOL     OW83825   2.462   7.012   2.136 -0.1460 -0.4516 -0.3408
25656SOL    HW183826   2.449   6.995   2.229 -0.9818 -0.6535 -0.4850
25656SOL    HW283827   2.373   7.022   2.101  0.1723 -0.0187 -1.0504
25657SOL     OW83828   6.004   6.393   9.639  0.3098  0.1842  0.3322
25657SOL    HW183829   5.922   6.344   9.638  0.4488 -0.0482  0.1742
25657SOL    HW283830   6.019   6.417   9.548 -0.6043  1.9591  0.5990
25658SOL     OW83831   6.114   4.818  10.111 -0.3466  0.1763 -0.4905
25658SOL    HW183832   6.151   4.730  10.115  0.5219  0.5626  1.4317
25658SOL    HW283833   6.183   4.872  10.073 -1.3405 -0.1397 -2.8590
25659SOL     OW83834   3.731   1.293   0.637 -1.2254 -0.1028  0.4194
25659SOL    HW183835   3.673   1.366   0.619 -3.3722 -1.0892  2.7192
25659SOL    HW283836   3.696   1.253   0.717  1.1941 -2.2726  0.5476
25660SOL     OW83837   5.635   2.974  11.286  0.3372 -0.0132  0.1996
25660SOL    HW183838   5.646   2.908  11.355  0.2285  1.9352  2.2152
25660SOL    HW283839   5.591   3.047  11.331 -1.0689  0.7944 -2.3303
25661SOL     OW83840   0.649   2.248   4.157 -0.1458  0.2326  0.7338
25661SOL    HW183841   0.613   2.331   4.189 -0.9739  0.0625  0.2723
25661SOL    HW283842   0.573   2.200   4.124  0.2664 -0.8890  1.3649
25662SOL     OW83843   3.517   0.493   7.268  0.5559 -0.1004 -0.3904
25662SOL    HW183844   3.566   0.471   7.189  1.4488 -1.5350  0.5113
25662SOL    HW283845   3.529   0.417   7.325  0.8492  1.3239  1.5342
25663SOL     OW83846   7.304  11.134  12.480 -0.3016  0.3608 -0.5722
25663SOL    HW183847   7.265  11.047  12.496 -0.0648  0.6504  2.0103
25663SOL    HW283848   7.246  11.195  12.525  1.6553  1.0787  1.1291
25664SOL     OW83849   8.345   7.903   3.730 -0.1325  0.2131  0.1711
25664SOL    HW183850   8.392   7.980   3.701  1.1883 -0.9595 -0.9285
25664SOL    HW283851   8.259   7.936   3.757 -0.2948  1.8341 -2.0357
25665SOL     OW83852   3.834   1.562   2.760 -0.3288  0.1558 -0.3243
25665SOL    HW183853   3.739   1.578   2.759 -0.5718 -1.0514  0.8335
25665SOL    HW283854   3.872   1.644   2.790 -0.9300  0.8910 -1.4736
25666SOL     OW83855  12.157   4.976   5.884 -0.1030  0.4960  0.0472
25666SOL    HW183856  12.083   4.916   5.881  0.8105 -0.6304 -0.6879
25666SOL    HW283857  12.229   4.926   5.922  0.4825  1.3352  0.0936
25667SOL     OW83858  11.188   8.129   6.685 -0.4563 -0.4669  0.0442
25667SOL    HW183859  11.257   8.193   6.669 -1.2878  0.2482 -0.8068
25667SOL    HW283860  11.229   8.045   6.664  0.6817 -0.2630  1.2957
25668SOL     OW83861  11.560   2.861   9.760 -0.1285 -0.7021  0.1330
25668SOL    HW183862  11.655   2.869   9.774 -0.2523 -0.5350  0.8798
25668SOL    HW283863  11.534   2.944   9.720 -0.3170  0.1192  1.9105
25669SOL     OW83864   8.378  12.271   0.859  0.7154  0.3712 -0.2505
25669SOL    HW183865   8.358  12.179   0.876  2.0033  0.1944  0.3967
25669SOL    HW283866   8.373  12.280   0.763 -0.6428 -0.0557 -0.2416
25670SOL     OW83867   8.044   1.524   5.323 -0.5229 -0.0207  0.1662
25670SOL    HW183868   7.966   1.469   5.331 -0.4167 -0.2729 -0.4597
25670SOL    HW283869   8.014   1.603   5.280 -0.1288 -0.8580 -1.7748
25671SOL     OW83870  12.154   9.465   1.133 -0.1829 -0.2560  0.8509
25671SOL    HW183871  12.229   9.524   1.136 -0.3579  0.1053 -0.9184
25671SOL    HW283872  12.175   9.402   1.064 -0.7170 -1.2750  1.5942
25672SOL     OW83873  10.560   1.930   7.305  0.6327  0.1415  0.2164
25672SOL    HW183874  10.622   2.001   7.282  0.3520  0.1143 -0.6834
25672SOL    HW283875  10.513   1.964   7.381 -0.1420  1.3417 -0.7515
25673SOL     OW83876   5.331   7.866  12.530  0.0627 -0.0685 -0.2157
25673SOL    HW183877   5.363   7.893  12.444 -1.0384 -0.7200 -0.8475
25673SOL    HW283878   5.380   7.920  12.592  1.5426 -0.2286 -1.1970
25674SOL     OW83879  10.035   4.002   2.012 -0.2872  0.2133 -0.1032
25674SOL    HW183880  10.021   3.993   2.106 -1.5217  0.7138 -0.2187
25674SOL    HW283881  10.073   4.090   2.002 -1.9379  0.9478 -0.2094
25675SOL     OW83882   4.382   6.161  11.198 -0.0282 -0.0371 -0.0023
25675SOL    HW183883   4.367   6.146  11.291 -0.4532 -0.1740 -0.0866
25675SOL    HW283884   4.394   6.255  11.190  0.0200 -0.0262  0.1921
25676SOL     OW83885   4.782   2.582   9.975  0.4768 -0.0863 -0.4052
25676SOL    HW183886   4.798   2.588   9.881 -0.1665  1.9603 -0.4327
25676SOL    HW283887   4.847   2.641  10.014  1.1035 -1.3349  0.5003
25677SOL     OW83888   8.970   4.106  10.229 -0.4793 -0.4515 -0.4702
25677SOL    HW183889   8.899   4.059  10.274  0.6656  0.0214  2.0081
25677SOL    HW283890   8.926   4.154  10.159 -2.6537 -0.0800  1.0486
25678SOL     OW83891  12.397   7.314   2.499  0.0670 -0.0401 -0.1554
25678SOL    HW183892  12.448   7.394   2.482  1.6649 -1.1046 -0.6174
25678SOL    HW283893  12.357   7.329   2.585 -1.4091  2.0961 -1.1520
25679SOL     OW83894  10.939   3.186  10.603 -0.1057  0.1363  0.4816
25679SOL    HW183895  10.934   3.215  10.512  0.7710 -0.0202  0.3761
25679SOL    HW283896  10.848   3.190  10.634 -0.2797  1.1137 -0.1041
25680SOL     OW83897   0.421   7.259   0.720  0.2213 -1.0615 -0.4072
25680SOL    HW183898   0.429   7.167   0.745 -1.7152 -1.1235  0.1276
25680SOL    HW283899   0.459   7.307   0.793  0.3683 -1.3961 -0.2580
25681SOL     OW83900   6.883   4.342   8.436 -0.1953  0.4274  0.4943
25681SOL    HW183901   6.836   4.358   8.517 -0.4072  1.3032  0.2053
25681SOL    HW283902   6.816   4.315   8.374 -0.4098  2.1126 -0.0397
25682SOL     OW83903   0.376   8.694  10.108  0.6773 -0.2431  0.1025
25682SOL    HW183904   0.308   8.626  10.106 -1.6659  1.8747  1.5277
25682SOL    HW283905   0.395   8.711  10.016 -1.0460 -0.6430 -0.3740
25683SOL     OW83906   4.426   1.341   5.656  0.1391  0.3049  0.1555
25683SOL    HW183907   4.350   1.393   5.630 -1.0541 -1.0770  0.7161
25683SOL    HW283908   4.443   1.367   5.746 -0.5040 -0.2916  0.4611
25684SOL     OW83909   5.293   9.300   2.667  0.1868 -0.1573 -0.1015
25684SOL    HW183910   5.371   9.323   2.617  0.3658 -0.9549 -0.2075
25684SOL    HW283911   5.258   9.384   2.699 -0.4199  0.4730 -2.2480
25685SOL     OW83912  10.552   9.567   6.037 -0.2668  0.2678 -0.4205
25685SOL    HW183913  10.478   9.516   6.007  0.7839 -0.0576 -2.6846
25685SOL    HW283914  10.625   9.505   6.039  0.8955  1.4333 -2.6188
25686SOL     OW83915   8.218   6.181  11.104 -0.2004 -0.2887 -0.2379
25686SOL    HW183916   8.252   6.259  11.147  0.2733 -0.4121 -0.3805
25686SOL    HW283917   8.170   6.215  11.028 -0.6037 -0.1001  0.0997
25687SOL     OW83918   8.621   0.853   9.408  0.0378 -0.2895  0.0827
25687SOL    HW183919   8.575   0.934   9.385  0.8009  0.3623  0.7945
25687SOL    HW283920   8.704   0.882   9.445 -0.2540 -1.3500  1.6608
25688SOL     OW83921  11.901   8.202   0.715 -0.0145 -0.7354 -1.2860
25688SOL    HW183922  11.834   8.136   0.733  0.3865 -0.9424 -0.4651
25688SOL    HW283923  11.975   8.152   0.679  0.2816 -0.7413 -0.6847
25689SOL     OW83924   5.164  11.294  10.087  0.2271  0.5226 -0.8275
25689SOL    HW183925   5.141  11.270   9.998 -1.9214 -2.3768  0.3517
25689SOL    HW283926   5.101  11.361  10.112 -0.5103 -0.1541 -0.8507
25690SOL     OW83927   7.960   8.319   6.883 -0.2789 -0.5180  1.0457
25690SOL    HW183928   7.976   8.228   6.906  0.5184 -0.5702  0.3096
25690SOL    HW283929   8.036   8.345   6.831 -1.5764 -0.1281 -0.7389
25691SOL     OW83930   5.516   4.879   6.702  0.0534 -0.1714 -0.1006
25691SOL    HW183931   5.586   4.822   6.671  0.0563 -0.3473  0.2264
25691SOL    HW283932   5.455   4.821   6.748  0.2318  0.1340  0.5406
25692SOL     OW83933   8.964   5.874   7.616 -0.0409  0.3403  0.3373
25692SOL    HW183934   8.900   5.926   7.568 -0.2175  0.2937  0.5232
25692SOL    HW283935   9.049   5.907   7.587 -0.1455  0.1974 -0.1362
25693SOL     OW83936   5.883   5.259  10.300 -0.2006 -0.2162 -0.1536
25693SOL    HW183937   5.923   5.176  10.276 -0.9031 -0.4862 -0.4166
25693SOL    HW283938   5.946   5.325  10.270  0.8118 -0.6560  0.9141
25694SOL     OW83939  12.202   1.920   6.436  0.0510  0.1339 -0.0804
25694SOL    HW183940  12.217   1.828   6.457  1.6053 -0.0667 -1.8269
25694SOL    HW283941  12.289   1.954   6.415 -0.8690  1.1564 -2.5782
25695SOL     OW83942   5.131   1.397  10.454 -0.7143 -0.6083  0.6126
25695SOL    HW183943   5.073   1.421  10.526 -1.8534  1.4986 -0.8687
25695SOL    HW283944   5.087   1.432  10.376  1.5754 -0.7188 -0.8149
25696SOL     OW83945  12.317   6.005   1.633 -0.3943 -0.1127 -0.1202
25696SOL    HW183946  12.338   6.032   1.544 -0.4691  0.0697 -0.0826
25696SOL    HW283947  12.245   6.062   1.659 -1.0139 -0.8132 -0.2901
25697SOL     OW83948   9.016   3.203   4.247  0.0486  0.1507 -0.1954
25697SOL    HW183949   9.038   3.259   4.173  2.0186  0.2717  0.4385
25697SOL    HW283950   9.005   3.264   4.320 -0.1839 -0.1011 -0.0220
25698SOL     OW83951   8.450   0.362   4.950  0.3417  0.4740 -0.1644
25698SOL    HW183952   8.359   0.378   4.975  0.3373  0.0450  0.1084
25698SOL    HW283953   8.445   0.329   4.861  0.2953  1.2712 -0.4611
25699SOL     OW83954   5.250   7.781   7.870 -0.6402 -0.2935 -0.4295
25699SOL    HW183955   5.327   7.820   7.910 -0.5083 -0.4569 -0.5257
25699SOL    HW283956   5.260   7.798   7.776 -0.9706  0.1302 -0.3930
25700SOL     OW83957   4.535   6.936  10.694  0.4752 -0.1467 -0.2151
25700SOL    HW183958   4.580   6.895  10.768 -0.2589  0.1769  0.4165
25700SOL    HW283959   4.604   6.985  10.649  0.5140  1.5183  1.5417
25701SOL     OW83960   1.302   5.269   3.492  0.0144 -0.2287  0.6059
25701SOL    HW183961   1.300   5.194   3.434 -0.4738 -0.5586  1.0413
25701SOL    HW283962   1.388   5.309   3.476 -0.0293 -0.4323 -0.1774
25702SOL     OW83963   2.797   1.610   3.891  0.1116  0.2305  0.5074
25702SOL    HW183964   2.758   1.695   3.911 -1.1584 -0.5173  1.3298
25702SOL    HW283965   2.799   1.606   3.795 -1.0966  0.6141  0.4589
25703SOL     OW83966  11.473   2.543   3.241 -0.5374 -0.0697 -0.1574
25703SOL    HW183967  11.412   2.498   3.299 -0.2609  2.3284  2.1724
25703SOL    HW283968  11.423   2.616   3.205 -0.1494 -0.4405 -1.5200
25704SOL     OW83969  10.011   4.876   5.438  0.3371  0.4913  0.1111
25704SOL    HW183970   9.968   4.943   5.384 -1.2605  0.3117  1.1030
25704SOL    HW283971   9.993   4.902   5.528  0.0505 -1.0215  0.5222
25705SOL     OW83972   6.415  10.584  10.462 -0.0874  0.1700 -0.8036
25705SOL    HW183973   6.417  10.677  10.484 -1.3151  0.1536 -0.5504
25705SOL    HW283974   6.388  10.541  10.543  1.8910 -0.5809 -0.4882
25706SOL     OW83975  10.923   9.378   1.518  0.2071  0.4561 -0.5229
25706SOL    HW183976  10.945   9.438   1.588 -0.5722 -0.3636  0.4589
25706SOL    HW283977  10.832   9.400   1.495 -0.3116 -0.7416  0.2963
25707SOL     OW83978   4.030   5.813   6.309 -0.3998 -0.0600  0.5080
25707SOL    HW183979   3.989   5.799   6.394  0.2036 -0.6927  0.7029
25707SOL    HW283980   4.036   5.726   6.270  0.6329  0.0229  0.4327
25708SOL     OW83981   9.920   3.865   8.107 -0.0208  0.2735  0.4727
25708SOL    HW183982   9.954   3.951   8.131 -1.9436  1.3682 -0.4536
25708SOL    HW283983   9.914   3.867   8.011 -0.6352 -0.6673  0.4750
25709SOL     OW83984   6.897   8.074   2.000  0.3431  0.2931  0.6213
25709SOL    HW183985   6.878   8.105   1.912  1.6228 -0.2202  0.1341
25709SOL    HW283986   6.989   8.048   1.997  0.1998 -0.4732  1.8932
25710SOL     OW83987   4.246   5.373   6.992  0.4848 -0.2726  0.0904
25710SOL    HW183988   4.278   5.410   6.910 -1.1918 -0.1081 -0.5329
25710SOL    HW283989   4.153   5.395   6.993  0.2592 -1.1718  1.5535
25711SOL     OW83990   0.310   7.054   9.553  0.8937  0.2960 -0.0425
25711SOL    HW183991   0.329   7.027   9.643  1.3418 -0.2871 -0.3097
25711SOL    HW283992   0.341   7.145   9.549  1.1876  0.2143  0.2957
25712SOL     OW83993   4.139   5.608   0.266 -1.3305  0.1945  0.4116
25712SOL    HW183994   4.152   5.523   0.223  0.0554  1.1273 -1.1279
25712SOL    HW283995   4.134   5.587   0.359 -0.9026 -1.5657  0.0800
25713SOL     OW83996   7.643   9.945   0.473  0.1022  0.4308  0.2598
25713SOL    HW183997   7.621   9.905   0.389  0.9121 -1.7042  1.0060
25713SOL    HW283998   7.566   9.998   0.495 -0.1156  1.0792 -1.7945
25714SOL     OW83999  11.797   3.907  10.582 -0.2968  0.0948 -0.3549
25714SOL    HW184000  11.711   3.871  10.602  0.1329 -1.9448 -1.8498
25714SOL    HW284001  11.788   3.942  10.494  0.7599 -1.6834 -1.2355
25715SOL     OW84002  12.393   2.760   2.635 -0.5272 -0.6779 -0.5720
25715SOL    HW184003  12.347   2.703   2.697 -1.6012  0.0151 -0.7237
25715SOL    HW284004  12.486   2.748   2.658 -0.9049  0.0406  1.6116
25716SOL     OW84005   8.877   7.285   3.535 -0.2668 -0.1960 -0.0313
25716SOL    HW184006   8.905   7.198   3.563  2.2417  0.1578 -1.1724
25716SOL    HW284007   8.887   7.340   3.613  0.0442 -0.5410  0.1737
25717SOL     OW84008   4.210   8.255  10.229 -0.3655  0.7221 -0.3111
25717SOL    HW184009   4.119   8.262  10.200 -0.2787 -0.9991 -1.1778
25717SOL    HW284010   4.233   8.163  10.212  0.7062  0.3893  2.4069
25718SOL     OW84011   0.659  10.636  11.531 -0.2802  0.3656 -0.1575
25718SOL    HW184012   0.724  10.590  11.479 -0.2074  0.3320 -0.0361
25718SOL    HW284013   0.592  10.571  11.550 -0.0584  0.2453  0.2203
25719SOL     OW84014   6.864   7.747   0.839 -0.3426 -0.6799  0.1027
25719SOL    HW184015   6.846   7.707   0.754  0.4215  0.2225 -0.5091
25719SOL    HW284016   6.915   7.826   0.818  0.8141 -1.0220  1.4614
25720SOL     OW84017   4.558   2.537  11.863  0.3550 -0.0206 -0.4113
25720SOL    HW184018   4.582   2.534  11.956  1.1118  0.6633 -0.5704
25720SOL    HW284019   4.584   2.452  11.829 -0.3370 -0.4435  0.0977
25721SOL     OW84020   1.420   0.304   4.728 -0.8997 -0.1002 -0.1868
25721SOL    HW184021   1.376   0.348   4.655 -1.3266 -0.3522 -0.0903
25721SOL    HW284022   1.493   0.361   4.750 -0.3923 -0.3266 -1.2118
25722SOL     OW84023   3.950   0.962   1.441  0.0123  0.3671 -0.0644
25722SOL    HW184024   3.941   1.057   1.440  0.4828  0.4067 -0.8971
25722SOL    HW284025   3.863   0.930   1.467 -0.4880  0.9786 -0.9618
25723SOL     OW84026   8.328   1.096   0.644  0.0587 -0.0265 -0.1174
25723SOL    HW184027   8.404   1.125   0.694  0.1647  1.6936 -1.1944
25723SOL    HW284028   8.312   1.007   0.674  1.1841  0.3255  1.6707
25724SOL     OW84029   8.911   7.126  11.666 -0.6208  0.0271  0.0406
25724SOL    HW184030   8.954   7.096  11.746  0.3457 -1.4638 -0.9817
25724SOL    HW284031   8.885   7.045  11.622  0.3960  0.7375 -1.9685
25725SOL     OW84032  12.545   5.404  12.031 -0.1831  0.3869 -0.4277
25725SOL    HW184033  12.626   5.454  12.041 -0.0628  0.4923 -1.6954
25725SOL    HW284034  12.485   5.441  12.095  1.0600 -0.3557  1.2532
25726SOL     OW84035   7.815   3.441  10.164  0.6801  0.0354 -0.6122
25726SOL    HW184036   7.800   3.347  10.174 -0.5127  0.3443  0.8299
25726SOL    HW284037   7.890   3.461  10.219  0.0437  0.1449  0.2348
25727SOL     OW84038   4.605   1.603   3.554  0.4011  0.2415  0.0551
25727SOL    HW184039   4.568   1.517   3.536  1.3525 -0.3437  0.7980
25727SOL    HW284040   4.698   1.587   3.572  0.7812  1.5209 -0.5992
25728SOL     OW84041   1.069   1.850   4.155 -0.5951 -0.7684 -0.1336
25728SOL    HW184042   1.057   1.909   4.081  2.9837  2.1326  1.2795
25728SOL    HW284043   1.129   1.783   4.123  1.2614  0.7018  0.1220
25729SOL     OW84044   3.242   9.993  11.015 -0.0687  0.0165  0.4171
25729SOL    HW184045   3.148  10.009  11.014  0.3485  3.1958 -1.3696
25729SOL    HW284046   3.277  10.063  11.070  1.4024  0.2566 -0.7829
25730SOL     OW84047   2.212   6.108   9.852  0.2459 -0.5031 -0.3977
25730SOL    HW184048   2.305   6.084   9.847  0.3282 -0.2620 -0.0784
25730SOL    HW284049   2.205   6.160   9.932 -0.7944 -3.3697  1.5114
25731SOL     OW84050   4.264   4.871   9.639  0.1990 -0.0616  0.2489
25731SOL    HW184051   4.238   4.950   9.686 -0.8833 -0.0190 -0.3804
25731SOL    HW284052   4.209   4.802   9.675 -0.1071 -0.1745 -0.4053
25732SOL     OW84053   8.055  10.524  10.005  0.3908  0.1674 -0.3112
25732SOL    HW184054   8.069  10.550  10.096  0.2125 -1.8728  0.3628
25732SOL    HW284055   7.979  10.465  10.008  0.6589 -0.2874 -1.6933
25733SOL     OW84056   0.858   4.473   6.329 -0.1154 -0.1026 -0.5155
25733SOL    HW184057   0.873   4.558   6.370  1.8745  0.9230 -3.0913
25733SOL    HW284058   0.935   4.421   6.353 -0.3791 -0.5163 -0.5530
25734SOL     OW84059   0.407  11.975  11.728 -0.1888  0.1105 -0.1306
25734SOL    HW184060   0.441  12.059  11.759 -0.6833 -0.1260  1.1450
25734SOL    HW284061   0.313  11.991  11.715 -0.2161 -0.1367 -0.2383
25735SOL     OW84062  12.205   7.580   9.399 -0.1414 -0.3061 -0.6768
25735SOL    HW184063  12.252   7.510   9.445 -1.2811 -0.3927  0.4286
25735SOL    HW284064  12.271   7.622   9.344  1.1343 -0.6525  0.5367
25736SOL     OW84065  12.035   4.855  11.893 -0.2786 -0.7244  0.5539
25736SOL    HW184066  12.106   4.874  11.955  0.7225 -0.6532 -0.5670
25736SOL    HW284067  12.047   4.762  11.871  0.2776 -0.3930 -0.6042
25737SOL     OW84068   2.008   1.250   9.284 -0.0576 -0.5207  0.9047
25737SOL    HW184069   2.022   1.252   9.379  1.5930  0.3192  0.6971
25737SOL    HW284070   2.084   1.202   9.250  0.2459  0.6046 -0.0779
25738SOL     OW84071  10.240  12.231  12.303  0.5348  0.1807  0.8562
25738SOL    HW184072  10.253  12.138  12.288 -0.1249  0.2380 -0.1366
25738SOL    HW284073  10.160  12.252  12.256  1.4623  1.5560 -0.1955
25739SOL     OW84074   7.822  12.366   4.973  0.2510  0.0378 -0.3030
25739SOL    HW184075   7.854  12.352   5.062 -0.8282  1.2492  0.3065
25739SOL    HW284076   7.900  12.362   4.919  1.0139 -0.0788  0.7680
25740SOL     OW84077   6.751  12.207   9.823  0.0884 -0.1580 -0.7877
25740SOL    HW184078   6.677  12.241   9.772  0.1438 -0.4526 -1.0749
25740SOL    HW284079   6.711  12.145   9.884  0.0850 -0.2255 -0.8582
25741SOL     OW84080   7.436   2.344  11.302  0.5607  0.0982  0.1238
25741SOL    HW184081   7.374   2.321  11.234  0.7461  1.3424 -0.4880
25741SOL    HW284082   7.488   2.265  11.315 -0.7753 -0.7780  0.2584
25742SOL     OW84083   8.506   2.578  12.274 -0.1702 -0.7004 -0.0589
25742SOL    HW184084   8.574   2.528  12.229  0.4034  0.2193 -0.2655
25742SOL    HW284085   8.426   2.527  12.264  0.3500 -1.4485 -0.4484
25743SOL     OW84086  11.989  12.102  10.247  0.1803  0.1202 -0.0971
25743SOL    HW184087  11.966  12.077  10.158  0.6558 -1.6952  0.2633
25743SOL    HW284088  12.018  12.194  10.239 -1.4108  0.5469 -1.4930
25744SOL     OW84089   9.702   6.750   5.237 -0.6799 -0.0920  0.0515
25744SOL    HW184090   9.636   6.722   5.300 -0.2848  0.8786  0.9199
25744SOL    HW284091   9.733   6.834   5.271 -1.6074  1.2869 -2.2869
25745SOL     OW84092  11.743   8.297   3.373 -0.3538  0.3084 -0.0574
25745SOL    HW184093  11.703   8.319   3.457 -0.3509 -1.4974  0.4545
25745SOL    HW284094  11.783   8.379   3.343  1.3586  0.5823  2.6454
25746SOL     OW84095   5.731   2.138   1.435 -0.0272 -0.4681 -0.2647
25746SOL    HW184096   5.644   2.101   1.448 -0.2448  0.0487 -0.2157
25746SOL    HW284097   5.760   2.163   1.523  1.4924 -3.4652  0.2120
25747SOL     OW84098  11.003   1.159   1.894  0.4891 -0.2340 -0.0752
25747SOL    HW184099  10.995   1.241   1.846 -1.1543  0.9280  1.9964
25747SOL    HW284100  11.008   1.186   1.986  0.1115 -2.4605  0.6619
25748SOL     OW84101   2.498   7.402   9.798 -0.4872  0.0298  0.8581
25748SOL    HW184102   2.456   7.335   9.852 -0.4197 -2.4501 -1.9508
25748SOL    HW284103   2.443   7.408   9.720  0.5698  1.9290  0.1982
25749SOL     OW84104   1.384   9.775   1.782 -0.4144 -0.6138  0.1833
25749SOL    HW184105   1.353   9.685   1.770 -1.6591 -0.6402  2.8817
25749SOL    HW284106   1.319   9.829   1.737 -0.3584 -0.9806 -0.3509
25750SOL     OW84107  10.374   5.607   6.341  0.3897  0.1260 -0.2753
25750SOL    HW184108  10.433   5.662   6.290 -0.2559  0.7685 -0.3370
25750SOL    HW284109  10.393   5.629   6.432 -0.0590  0.6555 -0.3075
25751SOL     OW84110   9.569   7.553  12.036  0.4218 -0.3711 -0.0332
25751SOL    HW184111   9.636   7.573  11.971 -0.7876  0.6752 -1.0012
25751SOL    HW284112   9.529   7.472  12.005  0.4603 -0.3784 -0.0644
25752SOL     OW84113   6.255   3.533   8.714  0.0232  0.3547  0.6421
25752SOL    HW184114   6.300   3.576   8.641 -0.0047  0.1419  0.4999
25752SOL    HW284115   6.324   3.518   8.779  0.3371 -0.7220  0.0891
25753SOL     OW84116   4.636   7.852  10.477 -0.0364  0.3646  0.7451
25753SOL    HW184117   4.651   7.788  10.407  0.5607 -0.0430  1.2406
25753SOL    HW284118   4.584   7.804  10.542 -1.2589  0.9716  0.2546
25754SOL     OW84119   7.096  11.862   1.232 -0.2776  0.1952 -0.7289
25754SOL    HW184120   7.050  11.855   1.315  0.6483  0.4375 -0.1800
25754SOL    HW284121   7.161  11.792   1.234  0.3968  0.8005 -0.8174
25755SOL     OW84122   7.966   9.066   1.159 -0.2093 -0.3296  0.2312
25755SOL    HW184123   7.884   9.103   1.192  0.7089  2.0992  0.0241
25755SOL    HW284124   8.010   9.140   1.117  2.1283 -1.5404  0.3884
25756SOL     OW84125  12.453   6.541   9.821 -0.1096  0.4365 -0.4966
25756SOL    HW184126  12.393   6.482   9.776 -0.6761  0.6069  0.0277
25756SOL    HW284127  12.459   6.506   9.910 -1.0697  1.6150  0.0508
25757SOL     OW84128   3.365   6.779   8.488 -0.5079  0.4861 -0.3054
25757SOL    HW184129   3.302   6.847   8.463  0.8190  1.6844 -0.4568
25757SOL    HW284130   3.409   6.813   8.565 -0.8734 -0.8949  0.5576
25758SOL     OW84131   5.955   3.742  10.223 -0.2128 -0.0957 -0.2218
25758SOL    HW184132   6.020   3.672  10.225  0.1702  0.2730  0.8406
25758SOL    HW284133   5.882   3.708  10.274 -0.4397 -0.1085 -0.5545
25759SOL     OW84134   0.301  11.794   0.964  0.5687  0.4025 -0.0818
25759SOL    HW184135   0.221  11.746   0.942  0.5279  1.1047 -1.5769
25759SOL    HW284136   0.370  11.747   0.917  0.5730  1.5590 -1.2999
25760SOL     OW84137   5.496   6.111   6.682  0.8371 -0.3854  0.2402
25760SOL    HW184138   5.524   6.021   6.666  0.2637 -0.5993  0.4204
25760SOL    HW284139   5.472   6.143   6.595  2.4546  0.0953 -0.0597
25761SOL     OW84140   3.279   5.315   1.622 -0.4649  0.6448 -0.0384
25761SOL    HW184141   3.184   5.308   1.635 -0.7609  1.0998 -1.7425
25761SOL    HW284142   3.301   5.401   1.659 -0.7959  0.7121  0.0114
25762SOL     OW84143  11.232   6.780   2.180  0.4020  0.3204 -0.2672
25762SOL    HW184144  11.256   6.688   2.187  0.2884  0.4264  2.4776
25762SOL    HW284145  11.137   6.781   2.172  0.4253  0.1992 -0.5595
25763SOL     OW84146   9.131   7.818   0.048  0.6294  0.0101  0.2065
25763SOL    HW184147   9.049   7.861   0.027  2.1673  3.1038 -0.0247
25763SOL    HW284148   9.118   7.727   0.022 -2.2824  0.6376 -0.8853
25764SOL     OW84149   0.822   3.177   2.120  0.3199  0.8654 -0.2282
25764SOL    HW184150   0.895   3.205   2.065 -0.0041 -0.0956 -1.1871
25764SOL    HW284151   0.748   3.229   2.090 -0.0342 -0.1874 -1.2746
25765SOL     OW84152   8.501   8.890   7.511 -0.0499  0.2623 -0.5871
25765SOL    HW184153   8.421   8.860   7.469 -0.0040  0.6004 -0.9256
25765SOL    HW284154   8.472   8.932   7.592 -0.1981  0.1966 -0.6064
25766SOL     OW84155  12.246   2.653   2.434 -0.1279 -0.4016 -0.0938
25766SOL    HW184156  12.280   2.706   2.362  2.8982 -2.7181 -0.5560
25766SOL    HW284157  12.307   2.667   2.506 -2.3402  0.8114  1.6407
25767SOL     OW84158   7.169   4.276   6.035 -0.0189 -0.4146  0.0977
25767SOL    HW184159   7.260   4.300   6.049 -0.2976  0.6754  0.1316
25767SOL    HW284160   7.169   4.227   5.953  0.3943  0.9558 -0.7486
25768SOL     OW84161   6.428  11.385   7.076 -0.0298 -0.2866 -0.1912
25768SOL    HW184162   6.446  11.475   7.052 -0.7139 -0.0464  0.1719
25768SOL    HW284163   6.372  11.391   7.154  1.6638 -1.0081  1.1780
25769SOL     OW84164   1.644   8.511   0.344 -1.0656 -0.0489  0.6239
25769SOL    HW184165   1.677   8.451   0.277 -2.0453  1.1647 -1.0129
25769SOL    HW284166   1.574   8.560   0.300 -1.3397  1.2065  2.3694
25770SOL     OW84167  10.218   2.118   4.629  0.1754 -0.5347  0.6591
25770SOL    HW184168  10.190   2.055   4.696 -0.8813 -2.0888 -1.1199
25770SOL    HW284169  10.310   2.133   4.648 -0.2762 -0.2373  2.9418
25771SOL     OW84170  10.773  11.187   3.545  0.1542  0.0213  0.0031
25771SOL    HW184171  10.708  11.140   3.597  0.2536  0.0955  0.1972
25771SOL    HW284172  10.846  11.202   3.606 -0.3909  1.5566  0.3164
25772SOL     OW84173   7.785   8.741  10.635 -0.2490  0.0479  0.2977
25772SOL    HW184174   7.738   8.770  10.556 -1.7520  0.4838  1.2959
25772SOL    HW284175   7.715   8.722  10.698  0.8726 -1.4810  1.1385
25773SOL     OW84176   5.228   6.702   6.245  0.6394  0.4546 -0.1407
25773SOL    HW184177   5.253   6.729   6.156 -1.4466 -0.2269 -1.0154
25773SOL    HW284178   5.277   6.622   6.261  0.5840  0.2465 -0.9528
25774SOL     OW84179   8.561   6.668   4.970  0.2212  0.1306 -0.8524
25774SOL    HW184180   8.566   6.590   4.916 -0.6567  0.4143 -1.3670
25774SOL    HW284181   8.652   6.690   4.989  0.5364 -2.6165  1.6626
25775SOL     OW84182   3.708   6.913   6.143  0.1002  0.6803 -0.6558
25775SOL    HW184183   3.709   6.957   6.058  0.1515  0.4665 -0.7663
25775SOL    HW284184   3.708   6.984   6.207  0.5524  0.8385 -0.8298
25776SOL     OW84185   7.069   0.367   1.969  0.3981  0.0240  0.0687
25776SOL    HW184186   7.071   0.418   1.888 -2.3961  1.6998  0.9133
25776SOL    HW284187   7.031   0.283   1.944 -1.5686  0.9502 -0.2642
25777SOL     OW84188   0.607   4.904   0.748 -0.3885 -0.2329 -0.0891
25777SOL    HW184189   0.689   4.856   0.755 -0.5167 -0.2478  1.5728
25777SOL    HW284190   0.544   4.840   0.714  0.1831 -0.3194 -1.0131
25778SOL     OW84191  11.084   5.024  11.360  0.2892  0.0658  0.5778
25778SOL    HW184192  11.091   4.983  11.274 -0.0563  0.9348  0.1306
25778SOL    HW284193  11.157   5.086  11.364 -1.1848  1.9540 -0.1709
25779SOL     OW84194  10.625   8.635   8.789 -0.2039 -0.2065 -0.1517
25779SOL    HW184195  10.613   8.699   8.859  3.4151  0.6977 -0.1778
25779SOL    HW284196  10.642   8.552   8.835  1.0615  0.1587  0.0836
25780SOL     OW84197   8.938   1.944   4.132 -0.0029 -0.2041 -0.3920
25780SOL    HW184198   8.856   1.897   4.117 -0.9641  1.4947 -0.7098
25780SOL    HW284199   8.925   1.990   4.215  1.0189 -0.6888  0.0588
25781SOL     OW84200   5.166   9.397   6.116  0.5906 -0.6463  0.2613
25781SOL    HW184201   5.071   9.387   6.107  0.3744  1.2189  0.0494
25781SOL    HW284202   5.194   9.426   6.029  1.5320 -2.0632  0.0524
25782SOL     OW84203   4.175  11.862   1.509  0.2041  0.5811  0.1429
25782SOL    HW184204   4.177  11.821   1.422  1.0631  0.4487  0.2138
25782SOL    HW284205   4.220  11.945   1.498  0.6491  0.4002  0.5346
25783SOL     OW84206   9.683   5.133   7.579  0.4913  0.2607 -0.1878
25783SOL    HW184207   9.750   5.172   7.523  2.2093 -0.3938  1.2920
25783SOL    HW284208   9.733   5.082   7.643 -1.5323 -3.6474 -1.4009
25784SOL     OW84209   4.250   3.062   0.311 -0.4963 -0.4640 -0.2832
25784SOL    HW184210   4.325   3.006   0.330 -0.2918 -0.0217  0.2212
25784SOL    HW284211   4.209   3.076   0.396 -1.7841 -1.5761 -0.6794
25785SOL     OW84212   0.941   2.485  11.628 -0.2858  0.6403 -0.4636
25785SOL    HW184213   1.027   2.504  11.590 -0.2844  2.9403  0.5148
25785SOL    HW284214   0.960   2.434  11.707  0.0124 -0.5188 -1.2679
25786SOL     OW84215   3.673   5.513   6.887 -0.0973 -0.9640 -0.0844
25786SOL    HW184216   3.654   5.580   6.821 -0.5149 -0.3854  0.6032
25786SOL    HW284217   3.592   5.504   6.936  1.2462  1.6096  2.9808
25787SOL     OW84218  10.982   8.784   4.993  0.2880 -0.1206  0.0209
25787SOL    HW184219  10.922   8.858   4.996 -0.1908 -0.5245  1.1641
25787SOL    HW284220  10.932   8.712   5.032  0.7966 -1.0148 -0.9243
25788SOL     OW84221   9.942   1.194   3.594 -0.2118  0.2158  0.3115
25788SOL    HW184222   9.862   1.175   3.643 -0.7507 -0.6098 -0.8307
25788SOL    HW284223   9.911   1.236   3.513  0.2580 -2.0478 -1.1542
25789SOL     OW84224   0.290   4.355   1.486 -0.7752  0.0643 -0.0256
25789SOL    HW184225   0.197   4.364   1.503 -0.6797  1.1696  0.0087
25789SOL    HW284226   0.296   4.299   1.408 -1.4593 -0.1210  0.0568
25790SOL     OW84227   4.367  10.156   8.894 -0.1748  0.2364  0.8110
25790SOL    HW184228   4.273  10.149   8.909 -0.4814 -0.5774 -1.1580
25790SOL    HW284229   4.385  10.250   8.894 -1.0366  0.4024  0.9988
25791SOL     OW84230   6.281   4.805   7.438 -0.4784 -0.0796 -0.2138
25791SOL    HW184231   6.213   4.869   7.457  0.7208  1.1928 -0.0271
25791SOL    HW284232   6.313   4.777   7.524  0.6990  0.9985 -0.2617
25792SOL     OW84233   0.655   8.826   4.838 -0.4855 -0.0607 -0.1317
25792SOL    HW184234   0.567   8.789   4.849 -0.6329  0.6087  1.1502
25792SOL    HW284235   0.685   8.791   4.754 -1.1462 -1.9633  0.3690
25793SOL     OW84236   7.020   2.115   9.781 -0.7004 -0.4252  0.3191
25793SOL    HW184237   7.088   2.181   9.767 -0.2672 -0.7174  1.0399
25793SOL    HW284238   7.052   2.037   9.735 -1.4076 -0.0286 -0.8938
25794SOL     OW84239   7.504   2.021   3.350  0.2070  0.6698 -0.4814
25794SOL    HW184240   7.516   2.052   3.261 -1.4599  1.7747 -0.3768
25794SOL    HW284241   7.416   2.052   3.374  0.4300 -0.0134  1.3644
25795SOL     OW84242   6.506  11.647   2.429  0.4136 -0.5854  0.9175
25795SOL    HW184243   6.591  11.618   2.460  1.0751 -0.6265 -0.8391
25795SOL    HW284244   6.487  11.590   2.355 -1.2102 -0.6604  1.3532
25796SOL     OW84245   8.214   1.462   9.995  0.2347 -0.2628 -0.2238
25796SOL    HW184246   8.241   1.525  10.062  1.9072  0.9606 -1.9122
25796SOL    HW284247   8.246   1.378  10.026 -0.1197  0.0555  1.0622
25797SOL     OW84248  11.416  10.972  11.434  0.2529  0.0309  0.7308
25797SOL    HW184249  11.502  10.986  11.395 -0.2803 -0.8372 -0.8475
25797SOL    HW284250  11.355  11.020  11.377 -0.3706  0.2649  1.5664
25798SOL     OW84251   3.390  10.373   0.516 -0.5273 -0.5592  0.2653
25798SOL    HW184252   3.313  10.390   0.570 -2.1937  1.8827 -2.6300
25798SOL    HW284253   3.356  10.330   0.438  1.0169  0.6143 -1.1142
25799SOL     OW84254  11.633  11.947   0.370 -0.0899 -0.4222  0.4737
25799SOL    HW184255  11.727  11.962   0.380 -0.0179 -1.4285  1.4656
25799SOL    HW284256  11.613  11.877   0.431 -1.3860 -0.6379 -0.1632
25800SOL     OW84257   1.719   4.516   1.490  0.0054 -0.4969 -0.0394
25800SOL    HW184258   1.690   4.529   1.580 -1.9285 -1.0605 -0.5451
25800SOL    HW284259   1.688   4.594   1.443  0.1923 -0.6396 -0.4025
25801SOL     OW84260   1.912   6.059  10.028  0.0847 -0.2222  0.0302
25801SOL    HW184261   1.939   6.005   9.954 -0.3653 -1.6563  0.8750
25801SOL    HW284262   1.944   6.011  10.105 -1.8695 -0.2315  0.8919
25802SOL     OW84263   9.551  10.370   7.185  0.5405  0.0243 -0.1001
25802SOL    HW184264   9.595  10.298   7.229  0.4535 -0.6647 -1.0919
25802SOL    HW284265   9.560  10.349   7.091 -1.4583  0.1076 -0.3548
25803SOL     OW84266   6.875  10.640   9.990  0.3645  0.2522  0.1290
25803SOL    HW184267   6.863  10.653  10.084  1.8132  0.1194  0.3617
25803SOL    HW284268   6.908  10.724   9.958 -0.7763  0.5151 -0.4071
25804SOL     OW84269  11.058   6.072   5.067 -0.2978 -0.3194 -0.5868
25804SOL    HW184270  11.066   6.032   5.154 -0.4917  1.1745  0.1590
25804SOL    HW284271  11.145   6.109   5.050 -0.6884  0.7492 -0.3127
25805SOL     OW84272   8.896   3.471   5.072  0.1005  0.5510 -0.4730
25805SOL    HW184273   8.878   3.415   4.996 -0.0399 -0.0303 -0.0199
25805SOL    HW284274   8.809   3.489   5.109  0.2435 -0.3839  0.3926
25806SOL     OW84275  10.447   4.217  12.242 -0.3648  0.4262 -0.4281
25806SOL    HW184276  10.414   4.265  12.318 -1.2515  0.9105 -1.0964
25806SOL    HW284277  10.413   4.265  12.166  0.8018  0.1744 -1.1462
25807SOL     OW84278   4.385   5.123   9.387 -0.0224 -0.0498  0.1564
25807SOL    HW184279   4.422   5.127   9.475  1.4362  0.0802 -0.4359
25807SOL    HW284280   4.376   5.215   9.361  0.6230 -0.0973 -0.2514
25808SOL     OW84281   9.558   9.026  10.744  0.2911 -0.1722 -0.6261
25808SOL    HW184282   9.540   8.990  10.831  0.7287 -0.7445 -0.7733
25808SOL    HW284283   9.531   8.958  10.683  0.1741  0.1500 -0.9397
25809SOL     OW84284  12.048   6.828   4.366  0.0387 -0.1425 -0.1206
25809SOL    HW184285  12.013   6.916   4.376 -0.8633 -0.5948  1.1224
25809SOL    HW284286  12.039   6.789   4.454  2.3652 -0.7821 -0.1086
25810SOL     OW84287  11.535   6.756   0.881 -0.1080  0.3367  0.6724
25810SOL    HW184288  11.511   6.675   0.927  0.7875 -0.6122 -0.4561
25810SOL    HW284289  11.587   6.805   0.944  0.2113 -0.4515  1.0363
25811SOL     OW84290  10.325   8.612  11.229 -0.2345 -0.4534  0.0318
25811SOL    HW184291  10.245   8.598  11.179 -0.5244 -0.0659  0.3789
25811SOL    HW284292  10.395   8.580  11.172 -0.1067  3.2457 -2.2490
25812SOL     OW84293   7.033   7.934   0.741  0.1323  0.2809  0.6347
25812SOL    HW184294   6.983   8.015   0.733 -0.3058  0.0663  1.1282
25812SOL    HW284295   7.119   7.962   0.772  0.2471  0.6251  0.0354
25813SOL     OW84296   9.684   9.681   0.126 -0.6052  0.0403  0.5065
25813SOL    HW184297   9.616   9.747   0.118 -0.4726  0.3691  1.8025
25813SOL    HW284298   9.740   9.713   0.197 -0.3186 -1.2551  0.9021
25814SOL     OW84299   3.373   1.507   8.782  0.2769 -0.2244 -0.2273
25814SOL    HW184300   3.286   1.484   8.749  1.2394 -0.3120 -2.9077
25814SOL    HW284301   3.398   1.586   8.734  1.5350  0.0269  0.7699
25815SOL     OW84302   8.697   5.520   3.946 -0.1182 -0.0072 -0.0805
25815SOL    HW184303   8.675   5.517   4.039  1.0505 -1.0782  0.1885
25815SOL    HW284304   8.707   5.428   3.921  0.9959  0.3161 -0.9027
25816SOL     OW84305   7.190   4.407   1.645 -0.2062  0.5143  0.0532
25816SOL    HW184306   7.269   4.427   1.595  0.0897  0.8138  0.6242
25816SOL    HW284307   7.215   4.424   1.736 -0.9118  0.5506  0.2440
25817SOL     OW84308   1.660   3.714   2.161 -0.1486 -0.1460 -0.2253
25817SOL    HW184309   1.590   3.742   2.219 -1.0705 -0.6169 -1.0850
25817SOL    HW284310   1.726   3.676   2.219 -0.9128 -0.3270  0.5363
25818SOL     OW84311   7.777   5.122  11.051  0.2148 -0.0788  0.2895
25818SOL    HW184312   7.809   5.191  11.109 -3.0410  0.3735  1.7532
25818SOL    HW284313   7.821   5.139  10.968  0.8270  2.7332  1.0801
25819SOL     OW84314   9.221  12.214  10.080  0.3125 -0.3961  0.1574
25819SOL    HW184315   9.152  12.268  10.119  0.9607  3.1312 -2.9603
25819SOL    HW284316   9.175  12.151  10.026 -0.6744  1.7858 -1.7295
25820SOL     OW84317   2.494   8.050  12.468  0.0241 -0.5481  0.2816
25820SOL    HW184318   2.409   8.023  12.432 -0.7412  1.2862  0.5913
25820SOL    HW284319   2.524   8.119  12.408  1.0531 -0.8218  0.4707
25821SOL     OW84320  10.701   8.822   2.967 -0.2962  0.2423  0.2671
25821SOL    HW184321  10.684   8.743   3.018  1.6055  0.3738  1.2057
25821SOL    HW284322  10.614   8.856   2.945 -1.2026 -0.3897  2.5596
25822SOL     OW84323   0.648   7.239   4.545 -0.3576  0.3348 -0.2360
25822SOL    HW184324   0.613   7.232   4.634 -0.6525  0.3321 -0.3494
25822SOL    HW284325   0.739   7.266   4.557 -0.7246  1.5051  0.0284
25823SOL     OW84326   6.969   0.174   8.650  0.2532 -0.1111  0.3286
25823SOL    HW184327   6.904   0.243   8.635 -0.5526 -0.3175  2.4685
25823SOL    HW284328   7.002   0.153   8.563 -1.9753  0.5644 -0.7633
25824SOL     OW84329   8.533   9.403   3.365 -0.7245  0.1887 -0.1765
25824SOL    HW184330   8.590   9.326   3.370 -0.8726  0.0797 -0.1425
25824SOL    HW284331   8.472   9.382   3.294 -1.0618  0.0741  0.1451
25825SOL     OW84332   4.576   7.823   7.093  0.0268  0.2196  0.0385
25825SOL    HW184333   4.617   7.861   7.170  0.5632  0.2772 -0.2689
25825SOL    HW284334   4.498   7.779   7.126  1.5650 -1.9771  1.0103
25826SOL     OW84335   5.938  11.494   6.541  0.0073  0.0134  0.4923
25826SOL    HW184336   5.925  11.437   6.465 -1.1181 -0.6402  1.1617
25826SOL    HW284337   5.912  11.581   6.510 -1.1140 -0.3720  0.3288
25827SOL     OW84338   9.949   4.391   9.092  0.3833  0.2354  0.2574
25827SOL    HW184339   9.962   4.372   8.999  0.6729 -0.8993  0.5159
25827SOL    HW284340  10.011   4.334   9.137 -0.1722  0.3377  1.1760
25828SOL     OW84341   2.811   0.879   0.454 -0.1339  0.5758  0.0056
25828SOL    HW184342   2.806   0.948   0.520  0.1119 -0.5879  1.2683
25828SOL    HW284343   2.897   0.891   0.415 -0.4642  1.5660 -0.4710
25829SOL     OW84344   4.620   2.261  12.329 -0.3429  0.3120  0.5202
25829SOL    HW184345   4.547   2.237  12.386 -0.1522  0.7213  0.9408
25829SOL    HW284346   4.650   2.178  12.292 -0.3833  0.0276  1.1192
25830SOL     OW84347   5.563  10.021   0.702 -0.5100 -0.5307  0.2057
25830SOL    HW184348   5.579   9.953   0.768 -0.4927 -1.4630 -0.7392
25830SOL    HW284349   5.601  10.100   0.740  1.9714 -1.6261  0.1722
25831SOL     OW84350   8.487   0.269  11.150 -0.1266 -0.0892  0.6551
25831SOL    HW184351   8.478   0.363  11.135 -0.6090 -0.3366 -0.8276
25831SOL    HW284352   8.581   0.256  11.166  0.0004  0.6050  0.5095
25832SOL     OW84353   5.077   3.058   3.341 -0.3569  0.5691 -0.0669
25832SOL    HW184354   4.989   3.022   3.353 -0.9756  1.2463 -2.1054
25832SOL    HW284355   5.068   3.151   3.357 -0.5250  0.9753 -2.1590
25833SOL     OW84356   4.093  11.167   1.125  0.2311  0.0840  0.5225
25833SOL    HW184357   4.176  11.190   1.083  0.1359 -1.1444 -0.3857
25833SOL    HW284358   4.028  11.177   1.055 -0.0152 -1.4390  0.5048
25834SOL     OW84359   2.623   2.340  10.607  0.1485 -0.5782  0.4493
25834SOL    HW184360   2.691   2.334  10.540  1.7630 -2.6810  2.1305
25834SOL    HW284361   2.561   2.405  10.573  3.0578  1.6411 -1.0959
25835SOL     OW84362   0.742   6.413   6.014 -0.1807 -0.6388  0.2861
25835SOL    HW184363   0.648   6.429   6.024 -0.0844  0.8154 -0.8963
25835SOL    HW284364   0.749   6.348   5.944 -0.2904 -0.5732  0.2149
25836SOL     OW84365  11.130   6.196   2.691 -0.3381  0.2007  0.5763
25836SOL    HW184366  11.075   6.168   2.764 -1.5832  0.8511 -0.0708
25836SOL    HW284367  11.108   6.136   2.619  0.6522 -0.2445  0.6288
25837SOL     OW84368   1.427   9.123   5.120  0.0735 -0.2689 -0.4375
25837SOL    HW184369   1.455   9.213   5.104 -0.4282  0.2883  1.5470
25837SOL    HW284370   1.341   9.117   5.077 -0.2141  0.4342  0.0149
25838SOL     OW84371   7.188   9.911   5.910  0.5441 -0.6635  0.1312
25838SOL    HW184372   7.190   9.885   5.817 -1.4549  1.6722 -0.6822
25838SOL    HW284373   7.098   9.891   5.938  0.7435 -0.1478  1.1722
25839SOL     OW84374   1.470   8.536   5.200 -0.4831 -0.3441 -0.3733
25839SOL    HW184375   1.487   8.630   5.189  0.8360 -0.7129 -1.7075
25839SOL    HW284376   1.387   8.521   5.155 -2.1921  0.6109  2.1746
25840SOL     OW84377   0.924  10.142   1.547 -0.1888  0.2969  0.0568
25840SOL    HW184378   0.906  10.058   1.590  0.7983 -0.0245 -0.1396
25840SOL    HW284379   1.012  10.166   1.576  0.2135  0.4170 -1.2073
25841SOL     OW84380  12.230   1.356   2.943 -0.1645 -0.0815  0.0838
25841SOL    HW184381  12.322   1.328   2.931  0.0746  0.8808 -0.4164
25841SOL    HW284382  12.236   1.449   2.965 -1.0660  0.3496 -1.3519
25842SOL     OW84383   0.343   7.643   3.437  0.2959 -0.0674  0.0352
25842SOL    HW184384   0.311   7.696   3.364 -0.1874 -0.9049 -0.3857
25842SOL    HW284385   0.430   7.677   3.456 -0.0584  0.9641 -0.1146
25843SOL     OW84386   8.563   6.117  11.812 -0.1952 -0.2377 -0.2475
25843SOL    HW184387   8.634   6.139  11.872  0.7767  0.0389 -1.4680
25843SOL    HW284388   8.550   6.196  11.759 -2.3724  0.2208  0.8197
25844SOL     OW84389   1.332   8.298   0.822  0.2475 -0.4460 -0.6346
25844SOL    HW184390   1.376   8.380   0.800  1.1227 -0.7150  0.0697
25844SOL    HW284391   1.265   8.323   0.886  1.1416 -0.3937  0.3104
25845SOL     OW84392  10.808   5.384  12.443  0.1215  0.2442  0.5139
25845SOL    HW184393  10.868   5.368  12.370  0.4331 -2.6066  1.2789
25845SOL    HW284394  10.723   5.354  12.411  0.5964 -2.8559  1.7772
25846SOL     OW84395   2.472   0.258   3.742  0.7632  0.1496 -0.2055
25846SOL    HW184396   2.466   0.292   3.831 -0.2323 -0.0596 -0.1757
25846SOL    HW284397   2.470   0.336   3.686  0.6226  0.2477 -0.0641
25847SOL     OW84398   3.218   2.335   9.993  0.5573 -0.4336  0.3743
25847SOL    HW184399   3.146   2.308  10.050  0.9595 -0.5600  0.8298
25847SOL    HW284400   3.243   2.422  10.025 -0.9562  0.6844 -1.3006
25848SOL     OW84401  10.946   9.178   1.914 -0.0518  0.4622 -0.0657
25848SOL    HW184402  10.926   9.122   1.988  0.4309 -0.0826 -0.3362
25848SOL    HW284403  10.870   9.171   1.857  0.0548 -0.0166 -0.1526
25849SOL     OW84404   4.672   5.546   3.839 -0.0734  0.2543  0.1960
25849SOL    HW184405   4.707   5.487   3.772  1.0270  0.6673  0.3786
25849SOL    HW284406   4.724   5.527   3.917 -0.6012  0.5414  0.6195
25850SOL     OW84407   2.385   0.247   5.866  0.1472  0.3167 -0.2072
25850SOL    HW184408   2.347   0.334   5.855  1.4322  0.8786 -0.4096
25850SOL    HW284409   2.462   0.262   5.921 -0.6485 -0.9813  1.3640
25851SOL     OW84410  10.957   9.909  11.577  0.4503  0.2065  0.5778
25851SOL    HW184411  10.982   9.880  11.664  0.8989 -0.3276  0.2762
25851SOL    HW284412  10.877   9.960  11.591  0.3160 -0.1785  1.2576
25852SOL     OW84413   7.927   0.424   2.283  0.2659  0.0713 -0.4663
25852SOL    HW184414   7.944   0.488   2.352 -0.7436 -0.3476  0.1943
25852SOL    HW284415   7.844   0.383   2.308  0.4779 -0.9198 -1.3074
25853SOL     OW84416   2.915   1.313   6.644  0.0442  0.0080 -0.1453
25853SOL    HW184417   2.837   1.321   6.590 -0.4607  1.9866  0.7908
25853SOL    HW284418   2.988   1.311   6.581 -0.6872 -1.1689 -0.9909
25854SOL     OW84419  12.516   5.720  10.371 -0.4377 -0.1145  0.1940
25854SOL    HW184420  12.593   5.681  10.330  0.2180  3.0754 -2.0220
25854SOL    HW284421  12.551   5.796  10.418 -2.1314  0.9641 -0.2238
25855SOL     OW84422   2.462   2.398   7.754  0.2161 -0.3493  0.1223
25855SOL    HW184423   2.452   2.425   7.845 -0.2834 -1.2651  0.3585
25855SOL    HW284424   2.478   2.479   7.706  0.5169  0.1382  1.0260
25856SOL     OW84425   5.752   3.286   4.968  0.2943  0.0660  0.2556
25856SOL    HW184426   5.791   3.214   5.017  0.6891  0.1834  0.1171
25856SOL    HW284427   5.658   3.276   4.981  0.3915  0.0484  0.9719
25857SOL     OW84428   3.627   2.859  12.450 -0.3913 -0.3591 -0.5912
25857SOL    HW184429   3.608   2.795  12.519  0.9904  0.1221  0.2642
25857SOL    HW284430   3.700   2.821  12.401 -0.2962  0.0591 -0.7770
25858SOL     OW84431   5.245   2.104   0.257 -0.2582 -0.0736  0.3788
25858SOL    HW184432   5.232   2.089   0.163 -0.6097 -1.1410  0.5805
25858SOL    HW284433   5.172   2.058   0.298  0.3484 -0.2893  1.2217
25859SOL     OW84434   8.731  10.524   3.832 -0.4372 -0.0439 -0.1593
25859SOL    HW184435   8.699  10.490   3.749  1.1906  0.6730 -1.1230
25859SOL    HW284436   8.698  10.615   3.835 -0.2395  0.0273 -0.1507
25860SOL     OW84437   8.772   4.489   4.552 -0.0172 -0.4566  0.4552
25860SOL    HW184438   8.856   4.462   4.515  0.3312  0.0169  0.8818
25860SOL    HW284439   8.773   4.453   4.641  1.0110  1.9255  1.5035
25861SOL     OW84440   9.977   0.029   8.525  0.0546  0.3793 -0.7444
25861SOL    HW184441   9.986   0.079   8.444  1.2258  0.1544 -0.7566
25861SOL    HW284442   9.976  -0.062   8.497 -1.6547  0.3343 -0.6800
25862SOL     OW84443   0.597   6.087   9.812  0.8495 -0.3094  0.3705
25862SOL    HW184444   0.537   6.119   9.880  0.4665  0.3884 -0.2781
25862SOL    HW284445   0.661   6.157   9.802  1.3384 -0.7319  0.5297
25863SOL     OW84446   5.438  11.842   5.629  0.5856  0.0477 -0.6367
25863SOL    HW184447   5.432  11.894   5.709 -0.8076 -1.0830  0.0375
25863SOL    HW284448   5.449  11.752   5.659  2.3147 -0.1641 -1.7749
25864SOL     OW84449   0.634   1.733   8.694 -0.3651  0.6375 -0.3352
25864SOL    HW184450   0.589   1.703   8.772  0.2819  0.2910 -0.0889
25864SOL    HW284451   0.704   1.670   8.680  1.4630  2.3245  0.5913
25865SOL     OW84452   6.075   3.622   0.974  0.5099 -0.4412  0.0046
25865SOL    HW184453   6.103   3.598   0.885  1.5328 -1.2084  0.5133
25865SOL    HW284454   6.156   3.626   1.024 -0.0326  0.3329  0.8319
25866SOL     OW84455   8.617   0.998   3.530 -0.0202  0.4711  0.7144
25866SOL    HW184456   8.560   0.987   3.606 -0.3300 -1.0285  0.2992
25866SOL    HW284457   8.660   0.913   3.521 -0.2062  0.5334 -0.9484
25867SOL     OW84458  12.210   6.889   4.155 -0.0565 -0.1871 -0.8632
25867SOL    HW184459  12.280   6.943   4.192  1.0515 -1.4308 -1.0666
25867SOL    HW284460  12.154   6.869   4.230 -1.4227  2.4990 -1.0542
25868SOL     OW84461   7.552   7.587  10.654  0.2873 -0.1537 -0.0705
25868SOL    HW184462   7.628   7.611  10.707  1.4055 -0.8841 -1.2931
25868SOL    HW284463   7.477   7.603  10.712  1.2106  2.1818  0.6109
25869SOL     OW84464   8.767   4.839   2.595 -0.0846  0.4698 -0.2282
25869SOL    HW184465   8.849   4.886   2.581  0.9366 -1.5606 -1.6375
25869SOL    HW284466   8.789   4.769   2.657 -0.1111 -1.3706 -2.1676
25870SOL     OW84467   5.120  12.273  11.585  0.1012  0.6718  0.0774
25870SOL    HW184468   5.191  12.338  11.584 -0.4998  1.3412 -0.4580
25870SOL    HW284469   5.064  12.300  11.658 -0.5604  1.2240 -0.6206
25871SOL     OW84470   8.562   9.873   5.881 -0.5152 -0.6459 -0.2721
25871SOL    HW184471   8.622   9.808   5.917  0.8247  0.0671 -1.1451
25871SOL    HW284472   8.482   9.824   5.862  0.6155 -2.1718 -1.3388
25872SOL     OW84473   3.131   0.063   6.081  0.1566 -0.8851  0.1583
25872SOL    HW184474   3.048   0.058   6.034 -1.2532 -0.3399  2.4584
25872SOL    HW284475   3.187   0.117   6.026 -1.5887  0.1655 -0.6529
25873SOL     OW84476   2.581   3.960   3.190  0.0498 -0.0842  0.1697
25873SOL    HW184477   2.531   4.032   3.152  0.5673 -0.6212 -1.6532
25873SOL    HW284478   2.672   3.991   3.188  0.2289 -0.6345 -0.2469
25874SOL     OW84479   3.781   0.752   4.522  0.2798  0.0985 -0.3029
25874SOL    HW184480   3.824   0.692   4.582  0.3537  0.3994 -0.0547
25874SOL    HW284481   3.687   0.739   4.537  0.2998  0.2811 -0.0156
25875SOL     OW84482   9.848   5.136   2.971 -0.2504 -0.1572  0.1440
25875SOL    HW184483   9.774   5.153   3.029 -0.4375  2.2836 -0.6683
25875SOL    HW284484   9.811   5.144   2.883  1.1062  2.1963 -0.2864
25876SOL     OW84485   7.344  11.590   4.823  0.1129  0.4402  0.0485
25876SOL    HW184486   7.410  11.603   4.892 -0.2504 -1.9571  0.9557
25876SOL    HW284487   7.284  11.663   4.833  1.7567  1.8204  0.2356
25877SOL     OW84488  11.955   4.682   1.181 -0.0959 -0.0222  0.2454
25877SOL    HW184489  11.903   4.609   1.147 -0.3951 -0.8592  2.3811
25877SOL    HW284490  11.895   4.757   1.179 -1.0132 -0.6887  1.4699
25878SOL     OW84491  12.446   3.318   3.142  0.3318  0.1453  0.1697
25878SOL    HW184492  12.509   3.280   3.081 -1.0123 -1.2684 -0.4165
25878SOL    HW284493  12.417   3.245   3.196 -0.7177  0.7718  0.4984
25879SOL     OW84494  11.227   6.420   5.807  0.4052 -0.1715 -0.3871
25879SOL    HW184495  11.299   6.380   5.855 -0.2478  0.2049  0.9692
25879SOL    HW284496  11.233   6.513   5.828 -0.4266 -0.1265 -0.3049
25880SOL     OW84497   0.333   7.228   2.289  0.3526  0.4075  0.0575
25880SOL    HW184498   0.293   7.250   2.373  0.8923  2.1952 -0.1189
25880SOL    HW284499   0.359   7.312   2.251 -0.6830 -0.2488 -2.3273
25881SOL     OW84500  10.632   0.187  10.232 -0.1086 -0.3102 -0.1061
25881SOL    HW184501  10.555   0.239  10.254 -0.0681 -0.0973 -0.4518
25881SOL    HW284502  10.694   0.205  10.303 -0.0266  0.2674 -0.3167
25882SOL     OW84503   9.606   2.048   3.282  0.0866 -0.3220 -0.1791
25882SOL    HW184504   9.696   2.075   3.267 -0.1658  2.3387  2.1016
25882SOL    HW284505   9.606   2.013   3.372 -1.1506 -0.1933 -0.1138
25883SOL     OW84506   0.201  10.545   0.995  0.0648  0.3523 -0.2088
25883SOL    HW184507   0.155  10.618   1.035  0.1460  1.4828 -2.0545
25883SOL    HW284508   0.133  10.480   0.979 -0.6085  1.2992 -1.3239
25884SOL     OW84509  10.744   6.852   0.916 -0.1285  0.4069 -0.0707
25884SOL    HW184510  10.727   6.773   0.968 -1.0989  0.3311 -0.4781
25884SOL    HW284511  10.803   6.823   0.846  0.2914  0.2668  0.3360
25885SOL     OW84512   6.406   7.665   4.478 -0.1902 -0.1732  0.5273
25885SOL    HW184513   6.347   7.592   4.457  0.8358 -0.5075 -1.4165
25885SOL    HW284514   6.363   7.742   4.439 -1.6890  0.5042  3.2817
25886SOL     OW84515   9.314   7.920   7.536  0.0345 -0.1881  0.2759
25886SOL    HW184516   9.385   7.877   7.584  0.5710  0.5906  0.1927
25886SOL    HW284517   9.270   7.975   7.600 -0.1562 -0.2525  0.2023
25887SOL     OW84518   5.853   7.822   1.754 -0.4110  0.4388  0.4892
25887SOL    HW184519   5.846   7.876   1.674  2.2002 -1.9010 -1.5326
25887SOL    HW284520   5.786   7.755   1.743 -1.3375  1.1927  1.3024
25888SOL     OW84521  11.568   3.154   6.217 -0.5507  0.3703  0.2666
25888SOL    HW184522  11.481   3.118   6.204 -0.2302 -0.0109 -0.9793
25888SOL    HW284523  11.574   3.169   6.312 -0.6881 -2.9138  0.9405
25889SOL     OW84524  12.101   3.165   7.076  0.0182 -0.5695 -0.7995
25889SOL    HW184525  12.087   3.236   7.139 -0.4214 -0.9045 -0.5089
25889SOL    HW284526  12.158   3.202   7.009  0.1153 -0.0671 -0.4398
25890SOL     OW84527   0.951   6.302  10.203 -0.1800 -0.3979  0.4917
25890SOL    HW184528   0.890   6.340  10.266 -1.2765 -0.6646 -0.3866
25890SOL    HW284529   0.990   6.377  10.159 -0.3431 -0.2353  0.6240
25891SOL     OW84530   0.947   5.645   5.034  0.4244 -0.3905  0.0169
25891SOL    HW184531   0.894   5.688   5.101 -0.3879  0.7206 -1.2946
25891SOL    HW284532   1.023   5.702   5.024  1.6958 -1.7055  1.5119
25892SOL     OW84533  11.442   8.652   6.806 -0.0956 -0.0130  0.3422
25892SOL    HW184534  11.451   8.656   6.711 -2.5488 -1.3969 -0.0342
25892SOL    HW284535  11.363   8.600   6.821 -0.8983  1.7592  3.1072
25893SOL     OW84536   0.914   6.634   9.795 -0.0598 -0.2713 -0.2093
25893SOL    HW184537   0.828   6.671   9.815  0.5642 -0.2146  2.8901
25893SOL    HW284538   0.970   6.710   9.777 -0.4042 -0.2581 -1.3205
25894SOL     OW84539  10.447   2.984   2.111  0.1480  0.1750  0.0691
25894SOL    HW184540  10.448   2.948   2.200 -1.2124 -0.1006 -0.0102
25894SOL    HW284541  10.471   2.909   2.055  0.2303  0.1441  0.1459
25895SOL     OW84542   4.240   8.336   8.019 -0.1572 -0.1587  0.3200
25895SOL    HW184543   4.262   8.261   7.964 -1.2560  0.3889 -0.9539
25895SOL    HW284544   4.324   8.375   8.041  0.4103 -1.5581  0.7299
25896SOL     OW84545   8.597   8.963   3.982  0.1218 -0.2785  0.1467
25896SOL    HW184546   8.516   8.937   4.026  0.3783 -0.8410  0.2876
25896SOL    HW284547   8.666   8.915   4.028  0.3237 -1.5525 -1.3924
25897SOL     OW84548   6.695   0.500   9.003  0.3309 -0.0700  0.1290
25897SOL    HW184549   6.777   0.548   9.016  0.2125  0.0057  0.6021
25897SOL    HW284550   6.649   0.550   8.936  0.2828  0.3847  0.4964
25898SOL     OW84551   1.673   1.967   2.618  0.5642 -0.2392  0.4605
25898SOL    HW184552   1.625   2.043   2.586 -0.8746 -0.9369  0.8757
25898SOL    HW284553   1.744   2.004   2.671  0.6279  0.8184 -0.3357
25899SOL     OW84554   9.785   5.881   1.500 -0.2266 -0.3303  0.2541
25899SOL    HW184555   9.731   5.803   1.487 -0.4071 -0.2674  0.6115
25899SOL    HW284556   9.780   5.928   1.417  1.1540 -1.4733 -0.5239
25900SOL     OW84557   3.547   6.318   1.882  0.4781 -0.2225 -0.0660
25900SOL    HW184558   3.589   6.297   1.798  0.2189 -0.5740 -0.1081
25900SOL    HW284559   3.542   6.414   1.883  1.1681 -0.1760 -0.1156
25901SOL     OW84560   1.223   7.888   6.116 -0.1083 -0.3433 -0.4684
25901SOL    HW184561   1.241   7.974   6.153 -2.4240  0.4288 -0.9640
25901SOL    HW284562   1.299   7.869   6.060  1.1774  0.6088  0.8856
25902SOL     OW84563  10.664   9.020   0.522 -0.6050  0.3323 -0.3063
25902SOL    HW184564  10.611   8.990   0.448  0.1816 -0.6496 -0.4942
25902SOL    HW284565  10.672   8.944   0.579 -0.4619  0.8331  0.3597
25903SOL     OW84566   2.081   6.794   6.908  0.4182  0.1707  0.3979
25903SOL    HW184567   2.058   6.772   6.817  0.7645  1.0843  0.0772
25903SOL    HW284568   2.177   6.790   6.910  0.4295  0.5170  0.6268
25904SOL     OW84569   7.037   5.668   9.222 -0.0026  0.3386 -0.2644
25904SOL    HW184570   7.117   5.713   9.251  0.0511  0.4142 -0.5245
25904SOL    HW284571   7.014   5.610   9.295  2.0390 -2.0625 -1.3772
25905SOL     OW84572   1.207   7.696   3.423  0.8773  0.6755 -0.1317
25905SOL    HW184573   1.256   7.627   3.467  0.6117  0.3429 -0.3545
25905SOL    HW284574   1.182   7.757   3.493  1.3771  0.7073  0.0183
25906SOL     OW84575   9.610   5.457   1.903  0.1617 -0.4334  0.0839
25906SOL    HW184576   9.642   5.368   1.918 -1.7395 -1.5444 -1.7813
25906SOL    HW284577   9.546   5.471   1.973  0.9429 -0.2506  0.7733
25907SOL     OW84578   8.634   5.669   8.028 -0.1354  0.2798  0.4524
25907SOL    HW184579   8.720   5.707   8.008 -0.2169  0.3995  0.3315
25907SOL    HW284580   8.616   5.698   8.118 -0.8435  1.7239 -0.1311
25908SOL     OW84581   7.912  10.529   6.625  0.3602  0.0791  0.6795
25908SOL    HW184582   7.906  10.443   6.667  0.8709  0.6517  1.9776
25908SOL    HW284583   7.907  10.510   6.531  0.8598 -1.3976  0.9193
25909SOL     OW84584   8.100   6.772   5.151  0.2027  0.6303  0.3339
25909SOL    HW184585   8.191   6.743   5.143 -0.4901 -1.3756 -1.8137
25909SOL    HW284586   8.085   6.825   5.073 -0.4210  1.0968  0.7614
25910SOL     OW84587   9.513   5.351  11.027  0.2257  0.0064  0.1088
25910SOL    HW184588   9.504   5.409  11.103 -2.3308 -0.6906  0.4325
25910SOL    HW284589   9.510   5.409  10.951 -0.3605  0.4668  0.4758
25911SOL     OW84590  10.585   3.752   8.605 -0.0230  0.3297 -0.1082
25911SOL    HW184591  10.665   3.714   8.569 -0.6876  0.9518 -2.3910
25911SOL    HW284592  10.615   3.819   8.667  1.2229  0.2807 -0.6452
25912SOL     OW84593   0.485   5.694   0.444  0.1471  0.6978 -0.8469
25912SOL    HW184594   0.458   5.776   0.485 -2.4503 -0.7947  0.6347
25912SOL    HW284595   0.532   5.647   0.513 -1.1145 -0.3398 -0.6769
25913SOL     OW84596   3.687   7.583   4.013 -0.2232  0.2264  0.0234
25913SOL    HW184597   3.757   7.522   4.033 -0.1001  0.8236  1.5166
25913SOL    HW284598   3.618   7.563   4.076 -1.0991  0.1674 -0.9166
25914SOL     OW84599   8.055   4.116   0.763 -0.3145 -0.9828  0.1404
25914SOL    HW184600   8.130   4.175   0.751  0.4786 -1.5285  2.0200
25914SOL    HW284601   7.997   4.137   0.690  0.9548  0.5479 -0.5116
25915SOL     OW84602   5.347   7.844   9.832 -0.4480  0.4723  0.5568
25915SOL    HW184603   5.370   7.930   9.796  0.9467 -0.2284 -0.2929
25915SOL    HW284604   5.297   7.865   9.911 -3.1856  2.0832 -1.3886
25916SOL     OW84605  10.648   5.037  12.269 -0.0019 -0.1287  0.1756
25916SOL    HW184606  10.564   5.060  12.228  0.3202 -0.6357 -0.7811
25916SOL    HW284607  10.709   5.105  12.240  0.1043 -0.1819  0.2712
25917SOL     OW84608  12.042   4.356   8.296  0.1427  0.1115 -0.8624
25917SOL    HW184609  12.020   4.448   8.306 -2.4052 -0.5948  1.3366
25917SOL    HW284610  12.124   4.355   8.247  0.8294  3.5565 -0.0011
25918SOL     OW84611   6.697   5.100  12.377  0.2231  0.5080 -0.2598
25918SOL    HW184612   6.647   5.134  12.451  2.0070 -1.2055  1.8561
25918SOL    HW284613   6.645   5.025  12.347  0.0989  0.4583  0.0682
25919SOL     OW84614   3.801   6.773   0.431  0.5811 -0.5030 -0.3512
25919SOL    HW184615   3.837   6.851   0.473 -0.7575 -0.9578  1.7879
25919SOL    HW284616   3.757   6.806   0.353 -1.7004  1.2732  1.5242
25920SOL     OW84617   1.351   5.787   4.544 -0.3070  0.3091  0.3484
25920SOL    HW184618   1.413   5.723   4.509 -1.5412 -0.8248  0.1287
25920SOL    HW284619   1.314   5.829   4.467 -0.5642  0.2315  0.4281
25921SOL     OW84620  11.071   0.355   1.713  0.5258 -0.2617 -0.2651
25921SOL    HW184621  11.087   0.293   1.784  1.7641 -1.8129 -1.8106
25921SOL    HW284622  10.977   0.351   1.698  0.5785 -1.8109 -0.3402
25922SOL     OW84623   5.846   6.950   0.203 -0.0710 -0.1856  0.1882
25922SOL    HW184624   5.841   6.912   0.290  1.6364  0.7895  0.7478
25922SOL    HW284625   5.883   7.037   0.216  2.3975 -0.8321 -1.6957
25923SOL     OW84626   7.669   7.064   9.647  0.9290  0.1719 -0.1594
25923SOL    HW184627   7.749   7.018   9.671  1.7351  1.0573 -1.0394
25923SOL    HW284628   7.659   7.131   9.715  1.5468  0.7548 -0.6332
25924SOL     OW84629   7.149   4.463   7.772  0.1045 -0.6646  0.1679
25924SOL    HW184630   7.163   4.557   7.781 -1.5265 -0.3559 -0.1676
25924SOL    HW284631   7.207   4.437   7.701  0.4691  0.1200  0.1644
25925SOL     OW84632   5.009   8.101  11.886 -0.4750  0.3975 -0.0497
25925SOL    HW184633   5.001   8.029  11.949 -1.2229  1.1987  0.7919
25925SOL    HW284634   5.103   8.105  11.867 -0.5741 -1.9062 -1.4608
25926SOL     OW84635   1.658   8.269   0.803  0.4918  0.5220  0.0052
25926SOL    HW184636   1.610   8.344   0.836 -2.2547 -1.1888  0.2281
25926SOL    HW284637   1.622   8.255   0.715  0.1182 -1.1491  0.3939
25927SOL     OW84638   2.993  12.319   3.922  0.0459 -0.0413 -0.2468
25927SOL    HW184639   2.990  12.241   3.866 -1.1333  0.5391 -1.0253
25927SOL    HW284640   2.913  12.367   3.900 -1.5194 -0.7041  3.2630
25928SOL     OW84641   9.924   6.269   3.028 -0.1772 -0.5654  0.1084
25928SOL    HW184642   9.980   6.306   3.096  0.4448 -2.9510  1.0239
25928SOL    HW284643   9.973   6.281   2.947  0.3225 -0.0454  0.4776
25929SOL     OW84644   6.888   2.971  11.359 -0.1345 -0.2223  0.1013
25929SOL    HW184645   6.867   2.906  11.292 -0.7237  1.5755 -1.5674
25929SOL    HW284646   6.984   2.976  11.358 -0.1463  0.4795 -1.4059
25930SOL     OW84647   5.586   4.431   2.389  0.3102  0.2579  0.1070
25930SOL    HW184648   5.545   4.406   2.306  1.3256  1.1273 -0.6747
25930SOL    HW284649   5.680   4.430   2.372  0.4893  1.9038  0.7961
25931SOL     OW84650   4.441   3.022   3.324  0.3321  0.1353 -0.0813
25931SOL    HW184651   4.472   2.935   3.353 -0.3583 -0.3959 -0.8972
25931SOL    HW284652   4.401   3.006   3.239  0.1462  1.2609 -0.2153
25932SOL     OW84653   2.399   7.282   2.762 -0.3562  0.0602 -0.1509
25932SOL    HW184654   2.419   7.376   2.755  0.7509 -0.2192 -0.9280
25932SOL    HW284655   2.415   7.261   2.854  0.2154  0.4566 -0.1555
25933SOL     OW84656   5.243   1.128   2.628 -0.2457 -0.0862 -0.5451
25933SOL    HW184657   5.207   1.040   2.614 -0.9523 -0.2267  1.6664
25933SOL    HW284658   5.247   1.137   2.724 -2.1037  3.0005 -0.5950
25934SOL     OW84659   4.951   2.984   5.542  0.2826 -0.4237 -0.6212
25934SOL    HW184660   5.036   2.993   5.499 -0.1723  0.7123 -1.3212
25934SOL    HW284661   4.898   2.933   5.480  0.6170 -1.6799  0.0884
25935SOL     OW84662   4.977   9.382   9.144  0.4037 -0.0974 -0.1658
25935SOL    HW184663   5.055   9.418   9.102 -0.2731 -0.6683 -2.0097
25935SOL    HW284664   5.008   9.349   9.228  1.8734  0.8750 -0.2907
25936SOL     OW84665   8.420   9.034   4.816 -0.5586 -0.4682 -0.5535
25936SOL    HW184666   8.343   9.051   4.870 -2.1211 -1.8512 -2.2266
25936SOL    HW284667   8.394   9.062   4.728  1.1455 -0.2655 -1.0293
25937SOL     OW84668   0.726  12.210   1.798  0.1943  0.5486  0.4352
25937SOL    HW184669   0.720  12.225   1.703  1.2833  0.0141  0.2665
25937SOL    HW284670   0.647  12.160   1.819 -0.2415  0.9868 -0.1166
25938SOL     OW84671   2.055  10.810   2.303 -0.0584  0.4760  0.4993
25938SOL    HW184672   2.035  10.727   2.346  0.4019  1.3716  2.5313
25938SOL    HW284673   2.150  10.820   2.311 -0.1153  1.2475  0.3632
25939SOL     OW84674   0.669   1.647   4.902 -0.4221 -0.3894 -0.1364
25939SOL    HW184675   0.627   1.680   4.823 -2.1241  0.2271  0.9835
25939SOL    HW284676   0.670   1.552   4.891 -1.7536 -0.3827 -0.3740
25940SOL     OW84677  11.594   2.541   6.512 -0.2353 -0.1808 -0.2608
25940SOL    HW184678  11.655   2.532   6.585 -0.6660 -1.3243 -0.0189
25940SOL    HW284679  11.570   2.451   6.490 -0.4647  0.1725 -1.5174
25941SOL     OW84680   9.049   1.772   0.224  0.2751 -0.4931  0.0830
25941SOL    HW184681   8.976   1.812   0.272 -0.0922  0.6644 -1.3805
25941SOL    HW284682   9.078   1.700   0.281 -0.2956  0.6457  1.9126
25942SOL     OW84683  12.434  12.418   3.804 -0.2393  0.0269  0.4750
25942SOL    HW184684  12.389  12.355   3.748 -2.2953  0.3768  1.6194
25942SOL    HW284685  12.507  12.449   3.751 -1.8246  0.0612 -1.8796
25943SOL     OW84686   2.443   4.060   9.060 -0.5503  0.4175 -0.7316
25943SOL    HW184687   2.428   4.082   9.152 -0.5190  0.4464 -0.7334
25943SOL    HW284688   2.454   4.145   9.017  1.7085  0.3680 -0.3816
25944SOL     OW84689   8.854   8.137   5.307 -0.2199  0.7947  0.1324
25944SOL    HW184690   8.939   8.095   5.298  0.4446  1.7386  1.6721
25944SOL    HW284691   8.870   8.228   5.282 -1.4858  0.4020 -2.4945
25945SOL     OW84692   2.775  12.370   7.902 -0.1284 -0.2681 -0.5871
25945SOL    HW184693   2.746  12.280   7.913 -0.8122 -0.1370 -1.1990
25945SOL    HW284694   2.849  12.365   7.842 -0.3474 -0.4012 -0.8478
25946SOL     OW84695   7.250   7.713  10.519 -0.6017  0.2311 -0.1643
25946SOL    HW184696   7.275   7.787  10.464  0.9190 -0.1438 -0.0284
25946SOL    HW284697   7.280   7.737  10.607 -1.6991  0.2047  0.2238
25947SOL     OW84698   5.557  11.372  10.433  0.0796  0.0414 -0.2107
25947SOL    HW184699   5.486  11.395  10.374  1.8970 -1.2737 -3.1382
25947SOL    HW284700   5.609  11.453  10.440 -0.5562  0.4184  0.2545
25948SOL     OW84701  11.651   9.447   0.363 -0.2961  0.2263 -0.1966
25948SOL    HW184702  11.737   9.487   0.350  1.3763 -2.6492  0.9916
25948SOL    HW284703  11.646   9.430   0.457 -1.2717 -1.4549 -0.5068
25949SOL     OW84704  11.041   2.552   1.553  0.8545 -0.1665  0.0037
25949SOL    HW184705  11.022   2.496   1.629 -0.9991  2.0455  1.3102
25949SOL    HW284706  10.957   2.561   1.508  1.0680  1.6041 -0.1051
25950SOL     OW84707   0.215   7.965   8.364  0.2716 -0.0661  0.2897
25950SOL    HW184708   0.140   7.920   8.323 -0.4833  0.8751  0.5874
25950SOL    HW284709   0.276   7.979   8.292  0.1011 -0.7193  0.0070
25951SOL     OW84710   9.938   9.412  10.014  0.0604  0.7407  0.0220
25951SOL    HW184711   9.975   9.492   9.974 -0.3971 -0.6970 -3.6685
25951SOL    HW284712   9.879   9.377   9.947 -0.2982 -2.3469  1.7834
25952SOL     OW84713   2.480   4.492   7.408 -0.2200 -0.1454  0.2129
25952SOL    HW184714   2.417   4.468   7.340 -1.5403 -1.0659  1.7008
25952SOL    HW284715   2.549   4.426   7.401  0.6983  0.9156 -1.4777
25953SOL     OW84716   3.482   2.689   1.380 -0.8211  0.0931 -0.0341
25953SOL    HW184717   3.563   2.696   1.429 -1.4789  0.2834  1.0661
25953SOL    HW284718   3.509   2.685   1.288  0.4028  0.4614  0.2947
25954SOL     OW84719   1.428   8.978   1.710  0.0600  0.3428  0.3264
25954SOL    HW184720   1.468   8.891   1.703  1.3437  0.8550  0.9763
25954SOL    HW284721   1.501   9.035   1.735 -1.1834  1.2337  2.0444
25955SOL     OW84722   6.353   8.311   7.638  0.2171  0.5166 -0.0299
25955SOL    HW184723   6.370   8.224   7.602 -1.5702 -0.1018  0.4946
25955SOL    HW284724   6.306   8.294   7.720  1.2485  1.9594  0.8977
25956SOL     OW84725  10.100   9.483   1.064  0.4748  0.2493  0.0731
25956SOL    HW184726  10.093   9.478   1.159 -2.1154 -1.2079 -0.0964
25956SOL    HW284727  10.107   9.577   1.045 -0.3611  0.6649  1.6625
25957SOL     OW84728   4.373   8.993   0.041  0.7889 -0.2016 -0.6210
25957SOL    HW184729   4.291   9.040   0.056  0.6857 -0.7791  0.7480
25957SOL    HW284730   4.350   8.921  -0.018 -0.4357 -2.2616  2.1673
25958SOL     OW84731   4.817   8.959   8.761  0.6536 -0.1487  0.0485
25958SOL    HW184732   4.736   8.992   8.800 -0.9599  1.3565 -4.0018
25958SOL    HW284733   4.870   9.038   8.746  2.2082 -0.9362  1.1324
25959SOL     OW84734   5.889   6.851   1.238 -0.2909 -0.4684  0.1466
25959SOL    HW184735   5.898   6.759   1.214  0.0134 -0.4259  0.0969
25959SOL    HW284736   5.838   6.850   1.319 -0.7642 -0.6491 -0.1479
25960SOL     OW84737   9.599   9.230   2.793 -0.2323 -0.2583  0.8118
25960SOL    HW184738   9.679   9.194   2.832  1.2043  1.5099 -0.3821
25960SOL    HW284739   9.602   9.202   2.702 -1.5327 -1.0155  0.9750
25961SOL     OW84740   3.324   2.242   8.262  0.5336  0.1515 -0.0597
25961SOL    HW184741   3.290   2.167   8.310  1.8292 -1.0929 -0.9917
25961SOL    HW284742   3.404   2.266   8.308  0.7160  0.2322 -0.4098
25962SOL     OW84743   3.206   2.708   8.828 -0.6270 -0.0356  0.2175
25962SOL    HW184744   3.221   2.711   8.733  0.9409 -0.0610  0.4348
25962SOL    HW284745   3.229   2.619   8.853  0.9475  0.5258  0.8894
25963SOL     OW84746   6.493   1.877   1.989  0.1083  0.6737  0.1114
25963SOL    HW184747   6.477   1.806   1.927 -0.4547 -0.0834  1.0923
25963SOL    HW284748   6.440   1.950   1.958 -2.0075 -0.4376  0.9419
25964SOL     OW84749   4.979   5.005   4.741 -0.5068  0.1111 -0.2431
25964SOL    HW184750   5.005   4.923   4.784 -2.7793 -1.0030 -0.8337
25964SOL    HW284751   5.023   5.002   4.656 -1.5194 -1.1645 -0.7655
25965SOL     OW84752   2.937   8.643   8.793  0.1174 -0.4064 -0.0337
25965SOL    HW184753   2.884   8.592   8.733 -0.2610 -1.2555  0.9810
25965SOL    HW284754   3.027   8.619   8.772 -0.0640 -1.7904  0.6326
25966SOL     OW84755   2.977   9.861   4.673 -0.3560  0.0828  0.1408
25966SOL    HW184756   2.906   9.869   4.610  0.3413 -0.6505 -0.7654
25966SOL    HW284757   2.946   9.907   4.751 -2.4540 -1.5024  0.3148
25967SOL     OW84758   5.214  10.002   6.882 -0.2695  0.4451  0.5011
25967SOL    HW184759   5.281   9.971   6.943 -1.2383 -1.7681  0.5566
25967SOL    HW284760   5.258  10.069   6.831  1.9647 -0.7870  0.6471
25968SOL     OW84761   0.772   8.379  10.643 -0.1802  0.2243  0.6649
25968SOL    HW184762   0.753   8.449  10.705 -1.3101 -1.4491  2.2890
25968SOL    HW284763   0.687   8.347  10.614  0.2563  1.5683 -2.6291
25969SOL     OW84764   4.084   5.005   5.049 -0.6658 -0.0945  0.2288
25969SOL    HW184765   4.135   4.935   5.088 -0.2807  0.1707  0.2065
25969SOL    HW284766   4.081   4.985   4.956 -0.5616 -0.0838  0.2238
25970SOL     OW84767   3.623   0.675  11.866  0.1497 -0.3820  1.0529
25970SOL    HW184768   3.613   0.601  11.926 -0.1110 -1.9377 -0.8046
25970SOL    HW284769   3.707   0.714  11.890  0.8168 -1.9508  1.4190
25971SOL     OW84770  10.199   1.107   0.295  0.1899  0.5308 -0.1941
25971SOL    HW184771  10.284   1.068   0.319 -0.2419 -0.8269 -0.7562
25971SOL    HW284772  10.166   1.050   0.225 -0.8128  1.5316 -0.5562
25972SOL     OW84773   3.951   9.025   2.372 -0.3012  0.6915  0.0277
25972SOL    HW184774   4.030   8.970   2.379 -0.0830  1.0283  0.2624
25972SOL    HW284775   3.883   8.966   2.340 -0.1878  0.1609  0.7402
25973SOL     OW84776   3.880   1.066   2.847  0.2264 -0.0572 -0.6063
25973SOL    HW184777   3.894   1.083   2.940  1.3624 -1.7425 -0.4231
25973SOL    HW284778   3.785   1.070   2.836  0.1908  2.6194  0.0748
25974SOL     OW84779   7.993   5.411   3.342  0.2027  0.1213  0.6564
25974SOL    HW184780   7.942   5.410   3.423  0.0175  2.3931  0.6102
25974SOL    HW284781   8.084   5.410   3.371  0.1406 -0.0475  0.8537
25975SOL     OW84782   8.041  11.033   9.456  0.2948  0.1249 -0.0174
25975SOL    HW184783   7.969  11.087   9.425  2.8647  2.9292 -1.6573
25975SOL    HW284784   8.080  11.084   9.528  1.7084 -0.3798 -0.3863
25976SOL     OW84785   0.318   5.158   5.939  0.2417  0.2294  0.1064
25976SOL    HW184786   0.229   5.140   5.910 -0.5823  1.1897  1.9430
25976SOL    HW284787   0.327   5.253   5.934  0.5513  0.2962  1.5647
25977SOL     OW84788   9.365   1.124   6.279 -0.7057  0.0023  0.2155
25977SOL    HW184789   9.318   1.098   6.359  0.0737  0.0330  0.6995
25977SOL    HW284790   9.440   1.175   6.311 -0.4532  0.1238 -0.5466
25978SOL     OW84791  10.546   4.269   8.843  0.1145 -0.2107  0.3772
25978SOL    HW184792  10.636   4.291   8.869  0.7286 -0.4388 -1.4024
25978SOL    HW284793  10.541   4.174   8.852  0.0193 -0.1890  0.5580
25979SOL     OW84794   8.838   0.326   2.157  0.5223  0.1777 -0.4853
25979SOL    HW184795   8.874   0.255   2.105 -1.6866 -1.0033 -0.5418
25979SOL    HW284796   8.812   0.284   2.240 -0.6674  0.9075 -0.4586
25980SOL     OW84797   5.293  12.571  12.473  0.1192  0.0816 -0.1167
25980SOL    HW184798   5.265  12.641  12.532 -0.3244 -0.4610  0.3388
25980SOL    HW284799   5.321  12.501  12.531  0.3001 -0.2189 -0.5623
25981SOL     OW84800   9.355   9.138   4.459 -0.2097 -0.1328 -0.3807
25981SOL    HW184801   9.299   9.105   4.530  0.0457 -1.1850 -0.6480
25981SOL    HW284802   9.429   9.078   4.458  0.3261  0.5308 -0.8298
25982SOL     OW84803   3.314   3.586  12.459  0.0661 -0.5587 -0.5232
25982SOL    HW184804   3.371   3.529  12.408  2.5987  0.2916  1.1462
25982SOL    HW284805   3.302   3.664  12.404  2.6199  0.2818 -0.0300
25983SOL     OW84806   1.017   5.707  10.581 -0.0012 -0.1297  0.0749
25983SOL    HW184807   0.951   5.660  10.531  0.9525  0.1850 -1.5442
25983SOL    HW284808   0.980   5.795  10.593 -0.5260 -0.4078  0.5462
25984SOL     OW84809   6.625   1.238  11.953  0.2191 -0.3849  0.0187
25984SOL    HW184810   6.714   1.203  11.954  0.6886  0.7399  1.7548
25984SOL    HW284811   6.606   1.258  12.045 -1.2566  0.7981 -0.5065
25985SOL     OW84812   3.524   3.328  10.843 -0.2782  0.7612 -0.1259
25985SOL    HW184813   3.457   3.396  10.840  1.8360  2.9212 -0.9163
25985SOL    HW284814   3.585   3.356  10.911  0.6150 -0.3924 -0.4099
25986SOL     OW84815   3.782   2.009   7.549 -0.0245  0.0734 -0.0425
25986SOL    HW184816   3.805   1.979   7.461 -1.8117  1.8093 -1.2083
25986SOL    HW284817   3.855   1.982   7.604 -0.4715 -4.3507 -1.2737
25987SOL     OW84818  10.232   0.001   8.855 -0.0793  0.1681  0.0645
25987SOL    HW184819  10.172   0.070   8.826  0.3775  0.7432  0.4516
25987SOL    HW284820  10.198  -0.024   8.941  0.3127  0.6048  0.3533
25988SOL     OW84821   2.627  10.507   7.374  0.1844  0.2715 -0.1453
25988SOL    HW184822   2.576  10.549   7.305  2.2090 -0.8672 -2.4948
25988SOL    HW284823   2.575  10.432   7.402  0.1128 -0.3293 -1.8172
25989SOL     OW84824   8.338  11.681   1.700  0.2110  0.0216 -0.4698
25989SOL    HW184825   8.301  11.594   1.712 -0.6504  0.3696 -0.5726
25989SOL    HW284826   8.318  11.704   1.609  2.7628 -0.7535 -1.3163
25990SOL     OW84827   4.881  10.351   5.791 -0.4666  0.1043 -0.2302
25990SOL    HW184828   4.810  10.406   5.823 -1.8215 -1.5606 -0.2210
25990SOL    HW284829   4.960  10.389   5.829 -1.6462  0.2973  2.2530
25991SOL     OW84830   7.852   3.525  11.665 -0.7140 -0.0268 -0.3572
25991SOL    HW184831   7.852   3.442  11.714 -0.4904  0.1296 -0.0873
25991SOL    HW284832   7.918   3.512  11.597  1.9124  1.1166  1.7749
25992SOL     OW84833   5.216   6.393   1.338 -0.1651  0.1947 -0.1422
25992SOL    HW184834   5.124   6.384   1.363  0.0268 -0.0654  0.4672
25992SOL    HW284835   5.247   6.469   1.388 -0.0013  0.1871 -0.2312
25993SOL     OW84836   4.258  10.285   3.983  0.2114  0.4582  0.2979
25993SOL    HW184837   4.262  10.366   4.033  2.5611  0.7851 -0.3169
25993SOL    HW284838   4.215  10.222   4.041  1.3801  1.2601  2.0900
25994SOL     OW84839   0.179   7.789  12.305 -0.3038 -0.0529 -0.2310
25994SOL    HW184840   0.098   7.748  12.336  0.5252 -1.0961  0.6285
25994SOL    HW284841   0.169   7.881  12.329 -1.0470 -0.2560  0.2791
25995SOL     OW84842   6.508   4.849   6.974  0.4627 -0.3174 -0.3218
25995SOL    HW184843   6.505   4.839   7.069 -1.7695  0.2023 -0.2870
25995SOL    HW284844   6.562   4.776   6.944  0.6939 -0.8468  1.3009
25996SOL     OW84845  10.273   7.061   9.303  0.1524 -0.0399  0.0481
25996SOL    HW184846  10.314   6.991   9.354 -0.4785 -0.7157 -0.3594
25996SOL    HW284847  10.346   7.104   9.258  0.7932  0.9151  1.8857
25997SOL     OW84848   0.994   8.011   4.428 -0.0645  0.1662 -0.0577
25997SOL    HW184849   0.938   8.088   4.439  0.2136  0.6337 -1.6997
25997SOL    HW284850   0.956   7.945   4.486  0.5374  1.9397  2.5387
25998SOL     OW84851   3.667  11.912   0.638 -0.3245  0.0076 -0.1983
25998SOL    HW184852   3.702  12.001   0.631  0.4570 -0.2199  0.5585
25998SOL    HW284853   3.741  11.855   0.617 -0.0300 -0.4940  1.9447
25999SOL     OW84854   9.705   9.189  11.368  0.0258  0.3246  0.2794
25999SOL    HW184855   9.680   9.271  11.325  0.1274 -0.4280 -1.2938
25999SOL    HW284856   9.632   9.129  11.350  2.0699 -1.4800 -3.1932
26000SOL     OW84857  10.298   9.380   3.910 -0.0834  0.0480  0.4768
26000SOL    HW184858  10.271   9.421   3.827 -0.7405 -0.8710  0.2191
26000SOL    HW284859  10.354   9.307   3.884 -1.9667 -1.5438  0.6902
26001SOL     OW84860   8.651   3.027   5.973  0.5007  0.0228  0.6092
26001SOL    HW184861   8.730   3.060   5.930 -0.9137  0.1424 -2.1309
26001SOL    HW284862   8.609   2.973   5.906 -1.6502 -0.1722  2.0470
26002SOL     OW84863   2.437   5.905   5.459  0.3884  0.1260  0.0091
26002SOL    HW184864   2.373   5.886   5.390  1.1630 -0.0229 -0.6878
26002SOL    HW284865   2.519   5.920   5.412  1.7085 -3.0839  1.0257
26003SOL     OW84866   3.463   3.339   4.019  1.1933 -0.0559  0.0167
26003SOL    HW184867   3.448   3.250   3.987 -1.4755  0.6792 -1.1025
26003SOL    HW284868   3.516   3.328   4.098  0.8820 -2.6336 -0.0626
26004SOL     OW84869   6.444   9.013   3.271  0.3183 -0.1195  0.1063
26004SOL    HW184870   6.358   9.021   3.313 -0.4823  0.2898 -1.5337
26004SOL    HW284871   6.449   8.921   3.243 -0.1439  0.1419 -0.8866
26005SOL     OW84872  11.857   7.439  11.314 -0.2119  0.0601 -0.2282
26005SOL    HW184873  11.846   7.524  11.272 -0.6806 -0.0550 -0.3407
26005SOL    HW284874  11.821   7.376  11.251 -0.3333 -0.1733  0.0717
26006SOL     OW84875   2.600   4.347   5.672  0.2891  0.1835 -0.2438
26006SOL    HW184876   2.513   4.340   5.712  0.8239 -1.3871  0.7669
26006SOL    HW284877   2.657   4.375   5.743  0.7370  0.4776 -0.7139
26007SOL     OW84878   9.594   4.577   4.110 -0.0543 -0.1340  0.0435
26007SOL    HW184879   9.618   4.487   4.088 -0.6408 -0.7055  1.5963
26007SOL    HW284880   9.660   4.605   4.172  0.2327  0.5977 -0.5751
26008SOL     OW84881  11.188   3.467   3.988 -0.3142 -0.2962 -0.3343
26008SOL    HW184882  11.126   3.407   3.946  1.1934 -1.1291 -1.4550
26008SOL    HW284883  11.250   3.410   4.033 -0.2335  0.5167  0.6198
26009SOL     OW84884   0.191   3.040   1.277 -0.1506 -0.7629 -0.3264
26009SOL    HW184885   0.223   3.044   1.367  1.4191  1.0176 -0.9011
26009SOL    HW284886   0.238   2.966   1.238 -1.3475 -1.9804  0.4453
26010SOL     OW84887   3.473   1.635  10.030  0.1622  0.4906  0.0847
26010SOL    HW184888   3.379   1.620  10.029  0.3745 -1.2047  1.0636
26010SOL    HW284889   3.504   1.596   9.948  0.2730 -1.4129  0.9673
26011SOL     OW84890   2.191   2.010   9.071 -0.7774  0.2616 -0.0890
26011SOL    HW184891   2.159   1.992   9.159  1.6892 -1.8751  0.5106
26011SOL    HW284892   2.253   1.939   9.053  2.3978  3.1374 -1.6729
26012SOL     OW84893   6.508   1.026   4.813  0.7506  0.0327  0.4075
26012SOL    HW184894   6.426   0.978   4.822  0.0731  0.8482 -1.1935
26012SOL    HW284895   6.507   1.089   4.886  0.5676 -0.8090  1.1423
26013SOL     OW84896  11.042   3.838   3.262  0.1043 -0.2877  0.0823
26013SOL    HW184897  11.058   3.893   3.185  0.8767  0.9675  1.0922
26013SOL    HW284898  11.021   3.752   3.226 -0.1760  0.4178 -1.5377
26014SOL     OW84899   2.880   0.569   4.241 -0.5479  0.3406 -0.5457
26014SOL    HW184900   2.936   0.624   4.295 -1.7566  0.1301  0.9687
26014SOL    HW284901   2.924   0.567   4.156  0.1615  2.6426 -0.3097
26015SOL     OW84902   1.536  10.523   3.349  0.7114 -0.3050 -0.1891
26015SOL    HW184903   1.570  10.526   3.438  0.4987 -0.2923 -0.1085
26015SOL    HW284904   1.581  10.448   3.309 -0.4793 -1.4013  0.4546
26016SOL     OW84905   3.975   3.027   1.994 -0.2442 -0.2920  0.2761
26016SOL    HW184906   3.895   3.039   1.943 -0.3130  0.0825  0.4639
26016SOL    HW284907   4.043   3.011   1.928 -0.3261  0.2176  0.0586
26017SOL     OW84908  11.111   9.143   5.722 -0.5310 -0.0416 -0.2651
26017SOL    HW184909  11.080   9.120   5.810  1.7085 -1.8708  0.1582
26017SOL    HW284910  11.070   9.079   5.664 -0.0751 -0.4446 -0.1543
26018SOL     OW84911   3.833   6.157   7.185  0.2891  0.3583 -0.3731
26018SOL    HW184912   3.804   6.217   7.116  1.2295  0.4260 -0.7273
26018SOL    HW284913   3.824   6.070   7.147 -0.1614  0.3368 -0.2118
26019SOL     OW84914   1.304  11.988   5.521 -0.0856  0.1059 -0.1745
26019SOL    HW184915   1.331  11.904   5.559 -1.7209 -1.2624 -1.8103
26019SOL    HW284916   1.316  12.051   5.591  1.3465 -1.4618  1.0789
26020SOL     OW84917   3.282  11.687  11.423 -0.2557 -0.2362  0.3337
26020SOL    HW184918   3.337  11.609  11.431  1.1741  0.6869 -0.1956
26020SOL    HW284919   3.291  11.713  11.331 -0.2829  0.8451  0.6273
26021SOL     OW84920  10.128   6.149   9.097  0.0457 -0.4310 -0.7324
26021SOL    HW184921  10.090   6.142   9.184  0.4822 -0.5255 -0.5512
26021SOL    HW284922  10.058   6.120   9.038 -1.9018  3.6289 -0.8128
26022SOL     OW84923  11.382   4.326   3.548  0.1005 -0.0960 -0.1335
26022SOL    HW184924  11.413   4.366   3.629 -0.2593  0.3861 -0.2299
26022SOL    HW284925  11.340   4.397   3.501 -0.8427 -0.6570 -0.1577
26023SOL     OW84926   2.988   1.866   4.127  0.2264  0.4654  0.6303
26023SOL    HW184927   2.925   1.865   4.055  1.8955  1.2378 -0.9271
26023SOL    HW284928   2.997   1.959   4.150  0.8424  0.3783  0.7652
26024SOL     OW84929   7.552  11.375   3.044 -0.1057  0.0684  0.2696
26024SOL    HW184930   7.465  11.404   3.071 -0.9944 -0.8514 -1.4832
26024SOL    HW284931   7.541  11.283   3.020  0.7619  0.5574 -2.3155
26025SOL     OW84932   7.527   1.767   3.785  0.1004 -0.3301 -0.3746
26025SOL    HW184933   7.498   1.836   3.845  0.2133  0.4015 -1.1291
26025SOL    HW284934   7.605   1.731   3.826 -0.1217 -0.1985  0.1736
26026SOL     OW84935   0.150   1.834   2.899  0.2620 -0.9431 -0.0362
26026SOL    HW184936   0.246   1.833   2.897  0.2675 -0.2305 -0.5214
26026SOL    HW284937   0.124   1.798   2.815  0.1174 -0.2002 -0.3145
26027SOL     OW84938   1.158   2.850   3.782 -0.5361  0.5183  0.5435
26027SOL    HW184939   1.152   2.759   3.809  0.7957  0.1082 -0.3916
26027SOL    HW284940   1.187   2.897   3.860 -2.2263  0.3382  1.3054
26028SOL     OW84941   7.163  11.644   7.342  0.2667 -1.0703  0.3817
26028SOL    HW184942   7.234  11.610   7.288  1.3281 -0.9330  1.6531
26028SOL    HW284943   7.153  11.580   7.413  0.4884 -0.0792  1.3243
26029SOL     OW84944  12.378   8.934  10.860 -0.4620  0.1951 -0.0211
26029SOL    HW184945  12.315   9.006  10.863 -0.7873  0.0138 -1.4789
26029SOL    HW284946  12.384   8.912  10.767  0.3818 -0.9999  0.2936
26030SOL     OW84947   1.336  11.050   0.206  0.2704  0.3913  0.4879
26030SOL    HW184948   1.354  11.127   0.259  0.0651  0.4950  0.4047
26030SOL    HW284949   1.358  10.976   0.263 -3.1498  0.3499  2.0192
26031SOL     OW84950   0.804   3.594   0.961  0.3143 -0.0414  0.4058
26031SOL    HW184951   0.769   3.667   1.012  0.6360 -0.2536  0.9430
26031SOL    HW284952   0.743   3.585   0.887 -1.4367 -1.1112  1.8939
26032SOL     OW84953   6.606  10.290   7.869  0.4892  0.0414  0.2261
26032SOL    HW184954   6.591  10.384   7.883  0.4015  0.1630 -0.6249
26032SOL    HW284955   6.553  10.269   7.791  1.4425 -0.4480 -0.3110
26033SOL     OW84956   1.814   9.541   1.994 -0.1496 -0.3708  0.3126
26033SOL    HW184957   1.731   9.589   1.995 -1.2393 -2.1895  1.2920
26033SOL    HW284958   1.805   9.478   1.922  1.3719  0.9612 -1.1376
26034SOL     OW84959  10.507   7.979   8.663 -0.1288 -0.3560 -0.4146
26034SOL    HW184960  10.507   8.075   8.657 -0.2023 -0.3276  0.0143
26034SOL    HW284961  10.597   7.958   8.690  0.1325 -0.4659 -1.3424
26035SOL     OW84962  12.533   1.665   2.245 -0.0416 -0.0303  0.2818
26035SOL    HW184963  12.439   1.682   2.244  0.1165  0.9856  1.0018
26035SOL    HW284964  12.558   1.676   2.337  1.0513  1.3671 -0.1483
26036SOL     OW84965   3.253  11.155   7.465  0.0130 -0.1885  0.2331
26036SOL    HW184966   3.224  11.120   7.549 -1.5306 -2.0958 -0.9980
26036SOL    HW284967   3.203  11.236   7.454 -2.6932 -1.8012 -0.3995
26037SOL     OW84968   2.021   5.022   7.899 -0.1097  0.1265  0.4222
26037SOL    HW184969   1.956   4.960   7.866 -1.1149  1.4321 -0.1138
26037SOL    HW284970   2.050   5.070   7.821  0.9204  0.1175  0.7815
26038SOL     OW84971   1.653  10.416   1.397  0.5473 -0.1090 -0.7594
26038SOL    HW184972   1.640  10.359   1.322 -1.8159 -0.7437  0.0604
26038SOL    HW284973   1.565  10.441   1.425  1.2619 -0.6060  2.3373
26039SOL     OW84974   3.662   3.779   5.775 -0.1720  0.1767  0.4166
26039SOL    HW184975   3.617   3.769   5.859 -1.7772  0.8162 -0.3218
26039SOL    HW284976   3.600   3.828   5.721  0.0478 -1.8083 -1.7549
26040SOL     OW84977   3.261   9.316  11.110 -0.0011 -0.2703 -0.0526
26040SOL    HW184978   3.204   9.269  11.049 -0.8023 -1.1733  1.3277
26040SOL    HW284979   3.227   9.405  11.111  0.2368 -0.1500 -1.1472
26041SOL     OW84980   4.048   7.826   2.176 -0.1101  0.2380  0.3507
26041SOL    HW184981   3.976   7.836   2.113 -0.2617  0.7528  0.6002
26041SOL    HW284982   4.075   7.916   2.194  0.8893  0.0294 -0.0743
26042SOL     OW84983   2.184   7.188   7.310  0.1296 -0.4917  0.2028
26042SOL    HW184984   2.192   7.281   7.288 -0.5464 -0.5224 -0.1907
26042SOL    HW284985   2.171   7.144   7.225 -1.7915 -0.6965  0.5700
26043SOL     OW84986  10.408   9.984   9.267  0.4832 -0.5961  0.2034
26043SOL    HW184987  10.493   9.976   9.223  0.2884  1.1033 -0.5456
26043SOL    HW284988  10.430  10.003   9.358  0.8960 -0.8959  0.1714
26044SOL     OW84989   4.303   7.365   6.444  0.8371  0.1561  0.0128
26044SOL    HW184990   4.354   7.437   6.406  2.8902 -1.1342  0.1459
26044SOL    HW284991   4.355   7.335   6.519 -0.6092 -0.6487  0.7470
26045SOL     OW84992  11.620   6.330   1.292  0.3900  0.0953 -0.1787
26045SOL    HW184993  11.584   6.329   1.381  0.0726  0.0611 -0.3045
26045SOL    HW284994  11.585   6.410   1.253 -0.0990 -0.2775 -0.5202
26046SOL     OW84995   9.296   1.094  11.961  0.2810 -0.5373 -0.3881
26046SOL    HW184996   9.290   1.016  12.017  0.2565  0.6432  1.3031
26046SOL    HW284997   9.210   1.135  11.967  1.5383  2.0615  2.5118
26047SOL     OW84998   5.588   0.600   3.376  0.4801  0.0074  0.1503
26047SOL    HW184999   5.617   0.544   3.447 -0.4993 -1.2762 -0.4100
26047SOL    HW285000   5.660   0.661   3.361  2.3502 -2.2069 -0.3641
26048SOL     OW85001   7.780   2.436   4.237  0.1056  0.3512  0.5999
26048SOL    HW185002   7.707   2.379   4.263  0.1930  0.4740  1.1078
26048SOL    HW285003   7.737   2.510   4.193 -0.0407  0.1695  0.4303
26049SOL     OW85004   9.602   4.620   3.396  0.3253 -0.1567 -0.2215
26049SOL    HW185005   9.644   4.593   3.315 -1.0247 -1.6531 -0.4849
26049SOL    HW285006   9.518   4.656   3.369  0.4047  0.5342  0.4295
26050SOL     OW85007   7.168   4.043   6.349 -0.2726 -0.0522 -0.1055
26050SOL    HW185008   7.078   4.032   6.381  0.0481 -0.5008  0.6591
26050SOL    HW285009   7.191   4.133   6.374 -0.2480 -0.1876  0.3650
26051SOL     OW85010   2.193   0.021   5.779 -0.4172 -0.5447  0.3919
26051SOL    HW185011   2.234   0.098   5.818  0.3211 -0.7411  0.0227
26051SOL    HW285012   2.099   0.040   5.781 -0.1991  0.7387 -0.4987
26052SOL     OW85013   0.411   8.732  10.848 -0.1456 -0.2850  0.4612
26052SOL    HW185014   0.380   8.803  10.792  0.8473 -1.0514 -1.1683
26052SOL    HW285015   0.337   8.710  10.903 -0.8192  1.2538  0.2194
26053SOL     OW85016   7.977  11.307   4.387 -0.0935  0.2372 -0.1097
26053SOL    HW185017   7.955  11.239   4.451  0.9954 -1.7725 -1.7385
26053SOL    HW285018   8.027  11.372   4.437 -0.2976 -0.6532  1.3014
26054SOL     OW85019  10.892   1.763   1.387 -0.5350  0.4963 -0.4256
26054SOL    HW185020  10.959   1.696   1.375 -2.2511 -1.2793 -0.5812
26054SOL    HW285021  10.835   1.727   1.455 -1.0809  2.1682  0.0368
26055SOL     OW85022   4.847  12.161   9.769  0.0208  0.3260  0.0710
26055SOL    HW185023   4.786  12.166   9.695  0.6313  0.1428 -0.4588
26055SOL    HW285024   4.868  12.253   9.789  0.3055  0.3603 -0.3728
26056SOL     OW85025   1.146   0.786   4.214 -0.0065  0.1884  0.5477
26056SOL    HW185026   1.147   0.742   4.130  1.4179  2.4534 -0.7389
26056SOL    HW285027   1.053   0.798   4.234 -0.3701 -1.1574 -0.2274
26057SOL     OW85028   3.245   5.699   6.583  0.1315 -0.4138  0.2764
26057SOL    HW185029   3.331   5.665   6.609 -0.3160 -2.2873 -0.5850
26057SOL    HW285030   3.264   5.782   6.540  1.1888  0.9962  3.2042
26058SOL     OW85031   2.662   6.191   3.331  0.5014 -0.1323  0.2265
26058SOL    HW185032   2.656   6.279   3.296  0.0264  0.7714  2.4332
26058SOL    HW285033   2.752   6.163   3.312  0.6432  0.7975 -0.5059
26059SOL     OW85034   2.241   1.807  12.436  0.0272  0.2740  0.8625
26059SOL    HW185035   2.276   1.877  12.490 -1.4663  0.6872  1.3475
26059SOL    HW285036   2.245   1.841  12.347  0.2672  0.5642  0.9829
26060SOL     OW85037   6.786   6.175  10.005  0.7608 -0.5833  0.2284
26060SOL    HW185038   6.717   6.179   9.939 -1.5097 -1.2321  2.3861
26060SOL    HW285039   6.825   6.263  10.004  0.2370 -0.3403 -1.3822
26061SOL     OW85040   0.207   9.637  12.007  0.3796  0.0751  0.4559
26061SOL    HW185041   0.286   9.589  11.983  0.9486  1.1204  0.1905
26061SOL    HW285042   0.186   9.605  12.095  1.9282  0.7869  1.1267
26062SOL     OW85043   0.717   6.822   9.248  0.2684 -0.5075  0.9703
26062SOL    HW185044   0.624   6.808   9.267 -0.2792  0.3530 -0.8549
26062SOL    HW285045   0.750   6.869   9.325 -0.4063 -2.1390  2.3181
26063SOL     OW85046   8.087   7.996   3.045 -0.3437  0.3573 -0.5627
26063SOL    HW185047   8.002   7.999   3.001  0.0718 -1.0219 -1.5281
26063SOL    HW285048   8.127   7.915   3.013 -0.1357 -0.9287  2.5945
26064SOL     OW85049  11.791  11.935   3.629 -0.3393 -0.2252 -0.0864
26064SOL    HW185050  11.723  11.993   3.594 -0.3030  0.0805  0.3436
26064SOL    HW285051  11.757  11.846   3.613 -0.6577 -0.0809 -0.2296
26065SOL     OW85052   2.519   4.875   8.050 -0.5855 -0.1844  0.3165
26065SOL    HW185053   2.456   4.947   8.054 -0.1092  0.4173 -1.8585
26065SOL    HW285054   2.493   4.825   7.973  0.8005 -0.6925  0.1541
26066SOL     OW85055  11.131   6.470   6.515 -0.7630 -0.4833  0.2695
26066SOL    HW185056  11.066   6.456   6.446 -0.6552 -0.3926  0.1486
26066SOL    HW285057  11.182   6.545   6.485 -0.6110 -0.5467  0.3717
26067SOL     OW85058   9.257   2.446   9.387  0.2989 -0.1507  0.2138
26067SOL    HW185059   9.332   2.434   9.329  0.2270  0.2946  0.0279
26067SOL    HW285060   9.287   2.411   9.471 -0.1743 -2.3776 -0.4905
26068SOL     OW85061  12.291  12.544   1.921  0.5193  0.3139  0.2850
26068SOL    HW185062  12.322  12.463   1.881  2.3118  0.9277  0.3347
26068SOL    HW285063  12.198  12.529   1.938  0.6823 -1.4902 -0.2560
26069SOL     OW85064   9.053   8.776   0.800 -0.2963  0.4756 -0.1061
26069SOL    HW185065   9.086   8.687   0.800  1.2587  1.0322 -0.2025
26069SOL    HW285066   8.962   8.768   0.830 -0.3765 -1.1912 -0.7349
26070SOL     OW85067   4.418   7.618   2.797 -0.1726 -0.0528  0.2108
26070SOL    HW185068   4.508   7.599   2.824 -0.0805  0.3023  0.1510
26070SOL    HW285069   4.412   7.583   2.708 -0.1727 -0.3074  0.3089
26071SOL     OW85070  11.005  10.753  10.253 -0.2037  0.2217  0.0222
26071SOL    HW185071  11.038  10.755  10.163 -0.3952 -0.1775 -0.0623
26071SOL    HW285072  10.930  10.693  10.250  0.3400 -0.5176  0.6192
26072SOL     OW85073   8.611   2.487   8.117 -0.1517  0.0709 -0.3339
26072SOL    HW185074   8.676   2.528   8.173  1.0072  0.4953 -1.9143
26072SOL    HW285075   8.644   2.499   8.028 -0.6473 -2.7317 -1.0022
26073SOL     OW85076   9.645   6.060   9.585  0.2087  0.4137  0.1126
26073SOL    HW185077   9.676   6.017   9.664  0.7143  0.7086  0.0763
26073SOL    HW285078   9.576   6.003   9.552 -0.0881  0.3504  0.8296
26074SOL     OW85079   3.500   7.986  10.858  0.1971 -0.0444 -0.1561
26074SOL    HW185080   3.495   7.934  10.938 -0.0733  2.2909  1.4449
26074SOL    HW285081   3.592   8.011  10.851 -0.0774  1.1351  0.3747
26075SOL     OW85082   2.945   2.878  11.410 -0.0736 -0.3830 -0.1976
26075SOL    HW185083   2.992   2.860  11.328  0.2793 -1.6761  0.2735
26075SOL    HW285084   2.910   2.967  11.398  0.9468 -0.0979 -1.2875
26076SOL     OW85085   1.467   1.899   8.151  0.1564  0.0537 -0.6428
26076SOL    HW185086   1.385   1.864   8.117 -0.6634  0.7465  0.5400
26076SOL    HW285087   1.458   1.894   8.246  1.4247  0.2958 -0.4855
26077SOL     OW85088   5.925   3.317   9.306  0.2231  0.2546 -0.5580
26077SOL    HW185089   5.859   3.356   9.249 -2.3978  0.8085  2.5710
26077SOL    HW285090   5.907   3.223   9.305 -1.9725  0.5420  1.5891
26078SOL     OW85091   5.929   0.243  11.391  0.2865  0.2162 -0.3294
26078SOL    HW185092   5.883   0.255  11.474  0.7087 -0.3044 -0.0225
26078SOL    HW285093   5.878   0.176  11.345  1.0185 -0.7340  0.2237
26079SOL     OW85094   8.700   0.843   9.101 -0.4687  0.2930  1.2894
26079SOL    HW185095   8.638   0.907   9.066  1.9797  1.5278 -1.1238
26079SOL    HW285096   8.655   0.759   9.092 -1.4796  1.0224 -1.3198
26080SOL     OW85097   0.229   0.120   3.876  0.1332  0.1510  0.1680
26080SOL    HW185098   0.207   0.027   3.888 -1.5640  0.5311  0.2936
26080SOL    HW285099   0.309   0.132   3.926 -0.4819 -0.9058  1.4687
26081SOL     OW85100   0.904   8.359   7.156 -0.0398 -0.3330 -0.5084
26081SOL    HW185101   0.835   8.296   7.177  0.8150 -1.4483 -0.9701
26081SOL    HW285102   0.930   8.338   7.067  1.5118 -0.5453 -0.0401
26082SOL     OW85103   3.990   4.729   5.278  0.0916 -0.3191  0.1437
26082SOL    HW185104   3.895   4.738   5.269 -0.0851 -0.8117  1.3425
26082SOL    HW285105   4.004   4.636   5.295  0.2520  0.3159  4.9138
26083SOL     OW85106   4.745   6.197   9.773 -0.1063 -0.0986  0.6424
26083SOL    HW185107   4.801   6.253   9.827 -0.0526 -0.7841  1.3272
26083SOL    HW285108   4.702   6.256   9.713  3.2394  0.2479 -1.6902
26084SOL     OW85109   1.116  10.618   5.216 -0.2867  0.1475 -0.6534
26084SOL    HW185110   1.124  10.534   5.261 -1.1340  0.4757  0.1589
26084SOL    HW285111   1.023  10.640   5.224  0.2273  2.0717  0.9042
26085SOL     OW85112   2.545  12.278   7.602  0.1429  0.4198  0.4738
26085SOL    HW185113   2.633  12.291   7.568  0.5297 -1.3208  0.7516
26085SOL    HW285114   2.505  12.214   7.543 -0.3786  0.0141  1.2452
26086SOL     OW85115   3.528   6.409   6.607  0.4970 -0.1730  0.1852
26086SOL    HW185116   3.459   6.475   6.613 -0.4112 -1.0382 -0.2940
26086SOL    HW285117   3.605   6.456   6.575 -0.8383  0.2153 -2.7434
26087SOL     OW85118   6.207  10.815   7.752  0.0193 -0.1398 -0.3447
26087SOL    HW185119   6.153  10.738   7.736 -0.6907 -0.3607  2.5418
26087SOL    HW285120   6.288  10.798   7.706 -0.9104 -1.6140 -1.5267
26088SOL     OW85121   2.956   7.953   2.676  0.1791 -0.5282 -0.3338
26088SOL    HW185122   3.050   7.953   2.660  0.4574 -0.7510  1.1377
26088SOL    HW285123   2.937   8.043   2.702  0.2518 -0.7967  0.6892
26089SOL     OW85124   1.443   8.389  11.605 -0.1104 -0.5038 -0.6724
26089SOL    HW185125   1.453   8.304  11.563 -2.2545 -1.3393  0.3908
26089SOL    HW285126   1.379   8.436  11.551 -1.2572 -0.7624  0.4453
26090SOL     OW85127   3.544   6.002  11.309  0.4477 -0.5367  0.7137
26090SOL    HW185128   3.497   5.924  11.339 -0.6286 -0.7519 -1.3389
26090SOL    HW285129   3.497   6.029  11.230  3.0276  0.0176 -0.7473
26091SOL     OW85130   0.015   7.638   4.278 -0.2717 -0.3959 -0.4642
26091SOL    HW185131  -0.068   7.676   4.249  0.0006  1.0382  0.4691
26091SOL    HW285132   0.047   7.701   4.343  0.9003 -1.6009  0.1564
26092SOL     OW85133   9.367  11.793  12.508 -0.6676 -0.5491 -0.9075
26092SOL    HW185134   9.353  11.707  12.468  0.8174 -0.6540 -1.2839
26092SOL    HW285135   9.348  11.780  12.601  0.0080 -1.4227 -0.8755
26093SOL     OW85136  11.480  10.108   4.287 -0.1952  0.1374 -0.3388
26093SOL    HW185137  11.427  10.147   4.218 -1.3834  1.7481  1.3966
26093SOL    HW285138  11.440  10.023   4.305 -0.9462  0.4721 -0.4337
26094SOL     OW85139   7.635   3.805   6.660  0.5746  0.1733  0.5354
26094SOL    HW185140   7.546   3.840   6.652  0.0130 -1.2051  0.3567
26094SOL    HW285141   7.630   3.747   6.736  1.4304  0.3647  0.7476
26095SOL     OW85142   0.341  12.292   8.814 -0.0129 -0.1287  0.1401
26095SOL    HW185143   0.246  12.289   8.826 -0.1119  0.7425 -0.3982
26095SOL    HW285144   0.354  12.321   8.724  0.7686 -0.1785  0.2240
26096SOL     OW85145   3.173   1.350   6.477 -0.5110 -0.3966  0.1730
26096SOL    HW185146   3.266   1.374   6.480 -0.8907  1.1523  1.0576
26096SOL    HW285147   3.144   1.379   6.390 -0.2999 -0.3193  0.1262
26097SOL     OW85148   4.288   6.413   4.859  0.1961 -0.0736  0.0261
26097SOL    HW185149   4.356   6.353   4.830 -1.1312 -1.7364  0.2206
26097SOL    HW285150   4.210   6.358   4.870 -1.2369  1.7843 -0.3544
26098SOL     OW85151  10.084   1.086   2.706 -0.0840 -0.3938 -0.0511
26098SOL    HW185152  10.049   1.151   2.645  1.5705  0.0149 -0.6127
26098SOL    HW285153  10.012   1.070   2.768 -2.2277 -1.6248 -2.6710
26099SOL     OW85154   8.612   1.326   6.867  0.2310  0.2533  0.1646
26099SOL    HW185155   8.580   1.360   6.783 -0.1398 -1.9377 -0.6682
26099SOL    HW285156   8.696   1.286   6.846  0.0700 -0.4356  0.7810
26100SOL     OW85157   0.135   8.240   8.634 -0.5994 -0.0920 -0.0119
26100SOL    HW185158   0.093   8.237   8.720 -0.7918  0.6746 -0.0693
26100SOL    HW285159   0.180   8.156   8.626 -2.5152 -1.1300 -0.1749
26101SOL     OW85160   7.544  11.469   9.719  0.1241 -0.2193  0.1861
26101SOL    HW185161   7.513  11.559   9.724 -0.7587 -0.5532  3.5142
26101SOL    HW285162   7.639  11.476   9.720  0.0661  0.6908  0.6292
26102SOL     OW85163   5.155  11.488   9.542  0.3707  0.1799 -0.1628
26102SOL    HW185164   5.096  11.450   9.607  0.8242  2.3909  1.6488
26102SOL    HW285165   5.203  11.413   9.506 -0.3656 -1.1801  1.5645
26103SOL     OW85166   0.395  12.531  11.432 -0.4737  0.8222  0.1488
26103SOL    HW185167   0.489  12.521  11.421  0.1670  3.5948  2.0038
26103SOL    HW285168   0.356  12.469  11.370  2.5278 -0.6847 -0.3847
26104SOL     OW85169   0.409   6.276   8.453 -0.1552  0.2552  0.0804
26104SOL    HW185170   0.453   6.359   8.434 -1.8845  1.3689  0.6599
26104SOL    HW285171   0.333   6.275   8.395 -0.1738 -0.9212  0.1002
26105SOL     OW85172   6.672   3.734   6.583  0.1636 -0.3318 -0.3834
26105SOL    HW185173   6.679   3.763   6.674 -1.3057  1.4958 -0.7821
26105SOL    HW285174   6.592   3.777   6.550  0.1462 -1.6749 -2.2732
26106SOL     OW85175   6.855  12.253   4.007  0.1311 -0.6483  0.0878
26106SOL    HW185176   6.873  12.169   4.050  1.6147 -1.3945 -1.8762
26106SOL    HW285177   6.779  12.288   4.055 -0.2645 -2.8892  1.2399
26107SOL     OW85178  10.131   1.710  12.316 -0.1619 -0.4268 -0.5225
26107SOL    HW185179  10.086   1.647  12.259 -0.3198  0.5315 -1.5061
26107SOL    HW285180  10.085   1.705  12.399 -0.9248 -0.7701 -0.9573
26108SOL     OW85181   7.512   6.808   2.526  0.0305  0.2225  0.5045
26108SOL    HW185182   7.479   6.735   2.579 -0.8857  0.0676 -0.2658
26108SOL    HW285183   7.509   6.777   2.436 -1.3376  1.5405  0.0526
26109SOL     OW85184   5.786   6.957   6.166 -0.2925  0.1646 -0.3714
26109SOL    HW185185   5.752   7.001   6.088 -1.2007  1.8362  0.8882
26109SOL    HW285186   5.804   7.028   6.228 -1.1266 -1.1619  1.5098
26110SOL     OW85187  11.634  10.162   9.465  0.4922  0.0531 -0.3941
26110SOL    HW185188  11.687  10.125   9.535 -0.5810  0.9006  0.9176
26110SOL    HW285189  11.543  10.145   9.492  0.0308  1.6901 -0.8180
26111SOL     OW85190   4.759   6.800   1.773  0.4201 -0.3814  0.5788
26111SOL    HW185191   4.731   6.802   1.865 -0.1080 -1.5417  0.4662
26111SOL    HW285192   4.687   6.839   1.725  0.0085 -1.1772  0.5248
26112SOL     OW85193   0.127   1.317   0.122 -0.0999  0.3892  0.2060
26112SOL    HW185194   0.165   1.382   0.182 -0.9627  0.4189  0.7512
26112SOL    HW285195   0.054   1.279   0.172  0.3491 -0.9625 -0.1367
26113SOL     OW85196   8.730   6.522   0.153  0.7159  0.1939 -0.2276
26113SOL    HW185197   8.643   6.481   0.154  0.7229  0.1832 -0.0438
26113SOL    HW285198   8.790   6.449   0.134  0.4905  0.5746 -2.7092
26114SOL     OW85199   5.120   3.827   8.884  0.2941  0.3807  0.1377
26114SOL    HW185200   5.122   3.836   8.789  0.0764  1.6957  0.2399
26114SOL    HW285201   5.181   3.894   8.916 -1.0770  1.2911  0.9691
26115SOL     OW85202   0.700   7.942   6.548 -0.5146 -0.0455  0.9644
26115SOL    HW185203   0.662   7.976   6.466 -0.1342 -0.2924  0.6851
26115SOL    HW285204   0.764   7.877   6.520  0.0487  0.2896  1.4328
26116SOL     OW85205   9.486  11.968  11.137  0.0953 -0.4106 -0.2021
26116SOL    HW185206   9.545  12.038  11.111  2.3365 -1.7943  0.8410
26116SOL    HW285207   9.434  12.005  11.208  0.1799  0.6404 -0.6754
26117SOL     OW85208   3.322   7.751   1.235  0.0702 -0.8660  0.4163
26117SOL    HW185209   3.231   7.750   1.205 -0.6522 -3.1569  2.3544
26117SOL    HW285210   3.374   7.757   1.154 -1.5483  5.8519 -0.7042
26118SOL     OW85211   4.324  12.428   8.885 -0.1228  0.0020 -0.3349
26118SOL    HW185212   4.354  12.519   8.888  0.1588 -0.1144  0.5826
26118SOL    HW285213   4.301  12.413   8.793  0.4502  0.7987 -0.6132
26119SOL     OW85214   5.489   5.121   2.397 -0.1634  0.3399  0.5806
26119SOL    HW185215   5.536   5.200   2.370 -0.9891  1.0664  1.2048
26119SOL    HW285216   5.399   5.136   2.370 -0.2206 -0.6551  0.1860
26120SOL     OW85217   0.160  11.510  12.552  0.1630 -0.1261  0.0024
26120SOL    HW185218   0.241  11.482  12.595 -0.5333 -0.8982  0.8528
26120SOL    HW285219   0.141  11.595  12.591  0.4104 -0.0712  0.0086
26121SOL     OW85220   5.779   7.764   7.408  0.3539 -0.2988 -0.1586
26121SOL    HW185221   5.831   7.716   7.473 -2.5794 -1.2316  1.7401
26121SOL    HW285222   5.725   7.696   7.367  0.3525  0.6530 -1.7869
26122SOL     OW85223   5.972   5.424  11.126 -0.4379  0.1306  0.5117
26122SOL    HW185224   5.945   5.380  11.206  1.3245 -0.4782  0.8139
26122SOL    HW285225   6.033   5.491  11.155  1.3687 -1.0418 -0.3719
26123SOL     OW85226   1.337   1.168   7.142 -0.1499  0.6959  0.1326
26123SOL    HW185227   1.268   1.184   7.206  0.5952  1.9485  0.6655
26123SOL    HW285228   1.413   1.143   7.196  0.3819  1.3994 -0.2721
26124SOL     OW85229   2.795  11.377  12.418 -0.2709  0.6390 -0.4240
26124SOL    HW185230   2.759  11.371  12.329 -2.5153  1.8318  0.3143
26124SOL    HW285231   2.749  11.452  12.457  1.7287  1.0756  1.2937
26125SOL     OW85232   9.117   7.744   5.010  0.1342  0.0568 -0.4748
26125SOL    HW185233   9.034   7.791   5.018  1.3554  2.3752 -0.5463
26125SOL    HW285234   9.127   7.698   5.094 -0.5460  0.9233  0.0996
26126SOL     OW85235   4.173   8.395  12.298  0.2038  0.0843 -0.5600
26126SOL    HW185236   4.170   8.374  12.391  0.7006 -0.2441 -0.6102
26126SOL    HW285237   4.100   8.455  12.284  0.1080  0.1117  0.0331
26127SOL     OW85238   0.846  12.311  10.786  0.4594 -0.4158 -0.5484
26127SOL    HW185239   0.846  12.406  10.796  0.5733 -0.5679  1.1004
26127SOL    HW285240   0.757  12.290  10.757  0.6390  0.2452 -1.6159
26128SOL     OW85241  10.894   5.257   6.003  0.7581  0.0352  0.9387
26128SOL    HW185242  10.959   5.255   5.933  2.7351  0.5380  2.6672
26128SOL    HW285243  10.811   5.240   5.959  2.0766 -1.0089 -1.3161
26129SOL     OW85244   4.480   3.966   2.517  0.3137 -0.7048  0.5706
26129SOL    HW185245   4.521   4.052   2.521  0.5662 -0.7316 -0.8594
26129SOL    HW285246   4.522   3.916   2.588  0.4407  0.2213  1.1584
26130SOL     OW85247  10.566   1.831  10.997 -0.3565 -0.0040  0.0078
26130SOL    HW185248  10.546   1.869  11.083  0.1087 -1.7671  0.9553
26130SOL    HW285249  10.530   1.742  11.002  0.3525 -0.3946 -1.3455
26131SOL     OW85250   5.403   9.583   8.875  0.3254 -0.1427  0.4210
26131SOL    HW185251   5.436   9.496   8.852  0.0771 -1.1100  3.3122
26131SOL    HW285252   5.482   9.633   8.896  0.3392 -1.2614  3.5132
26132SOL     OW85253   0.761   1.985   3.027 -0.1569 -0.0920  0.3317
26132SOL    HW185254   0.742   1.898   2.992  4.0899 -0.6821 -1.0274
26132SOL    HW285255   0.750   1.975   3.121  0.2118 -2.1277  0.2135
26133SOL     OW85256   7.301   6.394   2.756  0.1414 -0.8816 -0.1246
26133SOL    HW185257   7.250   6.457   2.807  1.2950  0.0190 -0.0417
26133SOL    HW285258   7.257   6.390   2.671  0.1807  0.2161 -0.2074
26134SOL     OW85259  11.707   2.255   4.943 -0.3006 -0.2849  0.8243
26134SOL    HW185260  11.759   2.255   5.023  1.6273 -0.7024 -0.3506
26134SOL    HW285261  11.759   2.307   4.881 -1.1340 -0.9695 -0.4928
26135SOL     OW85262   6.399   3.315   1.194  0.3369 -0.8842 -0.6455
26135SOL    HW185263   6.419   3.319   1.287  0.0149  0.8392 -0.6164
26135SOL    HW285264   6.348   3.235   1.183 -0.9227 -0.3464  0.9389
26136SOL     OW85265   4.950  10.167  10.281 -0.2398 -0.7939  0.7507
26136SOL    HW185266   4.902  10.085  10.271 -1.6686  0.0647  0.1598
26136SOL    HW285267   5.039  10.147  10.254 -0.6660 -2.0509  0.2134
26137SOL     OW85268  11.547   2.753   5.005  0.4024 -0.2775 -0.3992
26137SOL    HW185269  11.481   2.715   4.947  0.2970 -0.0502 -0.4296
26137SOL    HW285270  11.593   2.816   4.950  2.4601 -2.3076 -1.1998
26138SOL     OW85271   3.571   3.713   1.848  0.3304  0.1456  0.0714
26138SOL    HW185272   3.645   3.746   1.898  0.7781 -1.2115  0.3476
26138SOL    HW285273   3.599   3.716   1.757  0.7708 -0.4647  0.1841
26139SOL     OW85274   4.539   1.051   1.061 -0.3366 -0.0591 -0.7678
26139SOL    HW185275   4.581   1.025   1.143  0.8810  0.5467 -1.1654
26139SOL    HW285276   4.447   1.028   1.072  0.0366 -1.1280  0.2805
26140SOL     OW85277  10.269   4.452   2.396 -0.1385  0.2403 -0.4582
26140SOL    HW185278  10.315   4.463   2.479  1.8768  0.8115 -1.5849
26140SOL    HW285279  10.290   4.531   2.346 -2.7692  0.7758 -0.9075
26141SOL     OW85280   1.798   4.476   4.615  0.4540  0.5793 -0.5842
26141SOL    HW185281   1.792   4.428   4.533  1.6775  0.6005 -0.7082
26141SOL    HW285282   1.865   4.430   4.665 -1.0804 -0.1404  0.9083
26142SOL     OW85283   1.265   0.348   2.215  0.1922 -0.0898 -0.5610
26142SOL    HW185284   1.262   0.420   2.278 -0.6804 -0.6695  0.0845
26142SOL    HW285285   1.189   0.294   2.236  0.4524 -0.8435 -1.4659
26143SOL     OW85286   7.794   2.044   9.163 -0.3086  0.1206 -0.7562
26143SOL    HW185287   7.859   2.108   9.189  0.5967 -0.5395 -1.3213
26143SOL    HW285288   7.711   2.092   9.160 -0.3520  0.4562  2.3787
26144SOL     OW85289   8.932   5.021   8.862 -0.1060  0.1560 -0.4498
26144SOL    HW185290   8.979   4.960   8.805 -1.2292 -1.6103  0.4066
26144SOL    HW285291   8.981   5.019   8.944  0.5207  1.3607 -0.7700
26145SOL     OW85292   5.803   6.132   9.393  0.3741  0.4184  0.3581
26145SOL    HW185293   5.878   6.114   9.450 -0.6655 -0.2318  1.6080
26145SOL    HW285294   5.771   6.045   9.368  0.4493  0.6997 -0.7252
26146SOL     OW85295   3.928   0.948   3.169 -0.2207 -0.1547  0.6500
26146SOL    HW185296   3.864   1.016   3.149 -0.1039  0.0711  1.0347
26146SOL    HW285297   3.891   0.868   3.132 -0.0006  0.2457 -0.4813
26147SOL     OW85298   5.698   6.197  11.833  0.1610 -0.7957 -0.1978
26147SOL    HW185299   5.606   6.211  11.810  0.1095 -0.7560  0.0387
26147SOL    HW285300   5.740   6.177  11.749 -0.1939 -1.5108 -0.2118
26148SOL     OW85301   2.048   9.028   9.396 -1.2239 -0.2727 -0.2598
26148SOL    HW185302   2.048   9.084   9.473  0.2109  0.9004 -1.0559
26148SOL    HW285303   2.018   9.085   9.325 -1.3454 -0.9761 -0.7821
26149SOL     OW85304   5.216  11.623   3.302 -0.1169  0.0321  0.0069
26149SOL    HW185305   5.281  11.678   3.347 -0.0220  0.5210 -0.7186
26149SOL    HW285306   5.261  11.591   3.224  0.1658 -1.9238  0.9148
26150SOL     OW85307  10.507   2.031   8.877 -0.0926 -0.1639 -0.0047
26150SOL    HW185308  10.533   2.119   8.850  0.6580 -0.5852 -0.7044
26150SOL    HW285309  10.508   2.034   8.972  1.3486  0.2004 -0.0004
26151SOL     OW85310   8.827   4.333   4.173 -0.0749 -0.9641 -0.1347
26151SOL    HW185311   8.852   4.258   4.227 -0.2075 -0.3055  0.8624
26151SOL    HW285312   8.902   4.393   4.179 -0.7875 -0.1235  0.7546
26152SOL     OW85313   8.495   3.785   5.015  0.0711  0.1893  0.7710
26152SOL    HW185314   8.521   3.718   4.952 -0.7547  1.1111 -0.5971
26152SOL    HW285315   8.563   3.782   5.082  2.2355  0.6498 -1.2629
26153SOL     OW85316   6.619   0.733   0.229  0.0761  0.0431 -0.2891
26153SOL    HW185317   6.701   0.782   0.229  0.1974 -0.1579 -0.3991
26153SOL    HW285318   6.645   0.643   0.247 -0.2127  0.1263  0.5683
26154SOL     OW85319   8.143   5.957  12.526 -0.1466  0.1966 -0.6790
26154SOL    HW185320   8.067   5.899  12.520  0.1757 -0.3903  0.5524
26154SOL    HW285321   8.216   5.898  12.548  0.2076  1.0566  0.5079
26155SOL     OW85322   0.252   4.596   3.790  0.2090 -0.4078  0.2211
26155SOL    HW185323   0.339   4.586   3.828  0.0813 -1.1252  0.3432
26155SOL    HW285324   0.202   4.644   3.856  0.9522  1.5386 -0.5429
26156SOL     OW85325   0.406  10.395  11.012  0.8213 -0.3288  0.0439
26156SOL    HW185326   0.398  10.434  11.099  0.6160  1.9890 -0.9442
26156SOL    HW285327   0.491  10.350  11.014  1.7633  1.3991  0.8346
26157SOL     OW85328  10.698   1.404   3.386 -0.4690  0.3726 -0.0627
26157SOL    HW185329  10.657   1.408   3.473  1.8014  0.7141  1.0552
26157SOL    HW285330  10.624   1.406   3.325 -2.1554 -0.1943  1.8468
26158SOL     OW85331   8.130   0.661   7.635 -0.1791 -0.1565  0.0490
26158SOL    HW185332   8.218   0.645   7.669 -0.5656  0.1566  1.2559
26158SOL    HW285333   8.115   0.590   7.572  0.4448 -0.9629  0.7880
26159SOL     OW85334   8.017   3.093   2.431  0.1542 -0.0109  0.3064
26159SOL    HW185335   8.094   3.052   2.393 -0.2178 -1.2046  0.7635
26159SOL    HW285336   7.943   3.042   2.397 -0.1606 -1.7453  3.1867
26160SOL     OW85337   7.509   8.708   3.744  0.3479  0.3803  0.3515
26160SOL    HW185338   7.492   8.779   3.682  1.5895 -0.3222 -0.8662
26160SOL    HW285339   7.515   8.629   3.689  0.6212 -0.4059  1.4718
26161SOL     OW85340   6.307   9.378  11.924 -0.4122 -0.4614 -0.0388
26161SOL    HW185341   6.228   9.344  11.882 -0.7078 -0.0896  0.2123
26161SOL    HW285342   6.285   9.468  11.948 -0.5799 -0.9404  1.7534
26162SOL     OW85343   3.706   3.050   2.343 -0.0017  0.4791 -0.0069
26162SOL    HW185344   3.743   3.042   2.431 -3.0221  0.7914  1.4410
26162SOL    HW285345   3.635   2.985   2.342 -3.1163  3.5808 -0.3668
26163SOL     OW85346  11.361   9.046   0.566 -0.4257  0.0689  0.1401
26163SOL    HW185347  11.401   9.010   0.487 -1.5431  0.9914 -0.8949
26163SOL    HW285348  11.275   9.078   0.536 -0.2701  1.7692  1.4024
26164SOL     OW85349   4.092   1.365   9.082 -0.6762  0.5752 -0.2311
26164SOL    HW185350   4.085   1.434   9.016 -1.1252  1.0661  0.3168
26164SOL    HW285351   4.075   1.409   9.165 -1.6852 -0.3208  0.0667
26165SOL     OW85352   1.986   0.463  10.880 -0.0542  0.5096  0.2908
26165SOL    HW185353   1.962   0.489  10.791  0.5548  0.3953  0.0859
26165SOL    HW285354   1.917   0.402  10.907 -0.5661  1.0094  0.1278
26166SOL     OW85355   5.808   4.604   8.476  0.7709  0.3309  0.1897
26166SOL    HW185356   5.760   4.602   8.394 -0.9601 -2.0631  1.1364
26166SOL    HW285357   5.809   4.696   8.502 -1.3869  0.7537 -1.0074
26167SOL     OW85358   0.448   3.439   3.465  0.5943 -0.9442  0.2801
26167SOL    HW185359   0.515   3.483   3.412  1.4504 -0.9043  1.3557
26167SOL    HW285360   0.492   3.418   3.547 -0.9118 -0.3025  1.2966
26168SOL     OW85361   0.485   1.262   0.312 -0.5209  0.3492 -0.4056
26168SOL    HW185362   0.416   1.206   0.348 -1.8166  2.0816 -0.0194
26168SOL    HW285363   0.443   1.307   0.238  0.4315  0.8737 -0.6430
26169SOL     OW85364   3.607   6.617  11.458  0.3925 -0.2343 -0.1198
26169SOL    HW185365   3.695   6.594  11.428  0.8205  0.3373  0.6603
26169SOL    HW285366   3.563   6.533  11.472  1.2835 -0.5561  0.8192
26170SOL     OW85367   8.869   5.183   6.008 -0.3612  0.5096  0.4147
26170SOL    HW185368   8.933   5.164   5.939 -0.6156 -0.0878  0.3336
26170SOL    HW285369   8.910   5.251   6.061  0.0013  0.7023 -0.1032
26171SOL     OW85370   1.890   1.870  10.191  0.4422 -0.2288  0.3630
26171SOL    HW185371   1.914   1.891  10.101 -0.9555 -1.6936 -0.3764
26171SOL    HW285372   1.913   1.778  10.202 -2.1104 -0.9050  0.5242
26172SOL     OW85373  12.465  12.022  10.233 -0.0522 -0.0546  0.2499
26172SOL    HW185374  12.447  11.930  10.214 -1.4223  0.2192  0.1364
26172SOL    HW285375  12.495  12.058  10.150 -1.8391  0.1334 -0.3546
26173SOL     OW85376   6.277   9.396  10.695  0.2358 -0.2756 -1.0066
26173SOL    HW185377   6.298   9.485  10.723  2.0255 -0.9688 -0.0435
26173SOL    HW285378   6.318   9.388  10.609  0.7621 -0.4356 -0.7395
26174SOL     OW85379   5.165   5.092   6.692  0.0109  0.1350 -0.4401
26174SOL    HW185380   5.098   5.152   6.659  0.8041  1.2354 -0.1016
26174SOL    HW285381   5.234   5.149   6.726 -0.1195 -0.9457  1.8070
26175SOL     OW85382   8.004   5.620   4.897 -0.0106 -0.6817 -0.3562
26175SOL    HW185383   7.981   5.692   4.838 -0.0077  0.1438  0.6111
26175SOL    HW285384   8.011   5.662   4.983 -0.0655 -1.8606  0.2355
26176SOL     OW85385  12.089   5.828   0.566 -0.0978  0.3594  0.6882
26176SOL    HW185386  12.074   5.923   0.575 -0.6788  0.1686  1.9874
26176SOL    HW285387  12.152   5.821   0.495 -0.7859  1.6708 -0.0975
26177SOL     OW85388  10.347   3.495  11.430 -0.3042 -0.0022 -0.9854
26177SOL    HW185389  10.435   3.530  11.444  0.3553 -1.8526 -0.2474
26177SOL    HW285390  10.290   3.552  11.481  0.6552  0.3144 -0.2378
26178SOL     OW85391   7.410   0.892   9.342 -0.1547 -0.0396 -0.1696
26178SOL    HW185392   7.341   0.956   9.358  0.2585  0.0616  1.4465
26178SOL    HW285393   7.370   0.808   9.365  0.5953  0.1574  2.1090
26179SOL     OW85394  11.693   8.751  11.890  0.1310 -0.4625 -0.3346
26179SOL    HW185395  11.699   8.660  11.918 -0.9819 -0.5285 -0.2313
26179SOL    HW285396  11.770   8.793  11.926  0.0619 -1.1186  0.6086
26180SOL     OW85397   2.428   3.900   1.264 -0.0409 -0.0520 -0.2376
26180SOL    HW185398   2.449   3.836   1.195  1.3293 -1.3699  1.3288
26180SOL    HW285399   2.332   3.905   1.263 -0.0798 -0.3703 -1.9080
26181SOL     OW85400   5.092  10.447   1.920 -0.0528 -0.0561 -0.0083
26181SOL    HW185401   5.157  10.377   1.934  1.9843  1.5258 -0.9645
26181SOL    HW285402   5.105  10.474   1.829 -1.6948  0.7265 -0.0428
26182SOL     OW85403   1.837   5.707   5.352 -0.9264 -0.1371 -0.4621
26182SOL    HW185404   1.871   5.628   5.309  1.1746  0.9695 -0.9982
26182SOL    HW285405   1.809   5.677   5.439 -1.1263 -1.6265 -1.0085
26183SOL     OW85406   1.239   6.788  11.561  0.5992 -0.0662 -0.0136
26183SOL    HW185407   1.231   6.728  11.487 -2.8110 -0.0460  0.2187
26183SOL    HW285408   1.240   6.875  11.522 -0.6473 -0.0770 -0.0916
26184SOL     OW85409   1.440  10.410   2.570 -0.0515 -0.1083  0.6131
26184SOL    HW185410   1.519  10.453   2.605  0.2282 -1.4420  1.6952
26184SOL    HW285411   1.443  10.428   2.476  1.4089  0.0772  0.6724
26185SOL     OW85412   9.514  12.564   4.197  0.1090  0.0335  0.3010
26185SOL    HW185413   9.600  12.524   4.205  0.0244 -0.3820 -0.7493
26185SOL    HW285414   9.530  12.658   4.209  0.4669 -0.1851  1.6763
26186SOL     OW85415   4.410  10.693   4.348 -0.3796  0.4045 -0.5253
26186SOL    HW185416   4.363  10.769   4.314  0.5295  2.7036  2.8155
26186SOL    HW285417   4.468  10.729   4.416  2.2960 -2.9458 -0.7476
26187SOL     OW85418   6.004   4.257   6.913 -0.1249  0.2491  0.5385
26187SOL    HW185419   6.044   4.307   6.841 -1.4692  0.2881 -0.2240
26187SOL    HW285420   6.020   4.310   6.991  0.9580  0.4401  0.1973
26188SOL     OW85421   8.319   5.213   4.294 -0.0040  0.3878  0.2961
26188SOL    HW185422   8.258   5.187   4.224 -0.0078  0.4524  0.2746
26188SOL    HW285423   8.312   5.309   4.296  2.0194  0.6457 -1.4684
26189SOL     OW85424  11.525   9.543   2.930  0.0402 -0.0300  0.3077
26189SOL    HW185425  11.539   9.452   2.904 -0.7766 -0.5906  1.6990
26189SOL    HW285426  11.523   9.540   3.026 -1.5887  1.1829  0.3545
26190SOL     OW85427   3.584   8.077   4.847  0.3540 -0.2745  0.1339
26190SOL    HW185428   3.672   8.116   4.841  0.5008 -0.5122  0.6671
26190SOL    HW285429   3.563   8.081   4.940 -0.5274  0.4843 -0.0843
26191SOL     OW85430  11.444   7.428   9.200 -0.4544  0.1413  0.1624
26191SOL    HW185431  11.492   7.481   9.136  0.3264 -2.6038 -1.6886
26191SOL    HW285432  11.456   7.475   9.283  3.7486  0.7604 -0.5486
26192SOL     OW85433  10.002   1.756   6.119 -0.4123 -0.0523  0.1035
26192SOL    HW185434  10.052   1.836   6.100 -1.3353  0.3894 -0.5432
26192SOL    HW285435   9.931   1.786   6.177  2.0270 -1.2518  4.1130
26193SOL     OW85436   7.702  11.254   7.735  0.0730 -0.4967 -0.1278
26193SOL    HW185437   7.763  11.303   7.678  0.2902  0.8962  1.2472
26193SOL    HW285438   7.672  11.182   7.680  1.6369 -0.2265 -1.4309
26194SOL     OW85439   3.216   1.939   5.216  0.0049 -0.4420  0.1813
26194SOL    HW185440   3.311   1.933   5.215  0.0464 -0.0255  0.8288
26194SOL    HW285441   3.190   1.897   5.298 -0.2534  0.7209  0.7197
26195SOL     OW85442   6.203   1.490   5.075  0.0609  0.0918 -0.3364
26195SOL    HW185443   6.185   1.572   5.030  0.6663  0.9075  0.8367
26195SOL    HW285444   6.221   1.427   5.006  0.8409  1.2632 -1.2228
26196SOL     OW85445   5.740   9.338  10.385 -0.3292  0.2615  0.1185
26196SOL    HW185446   5.736   9.359  10.291  0.5070  0.4977  0.1219
26196SOL    HW285447   5.659   9.290  10.402 -0.1269 -0.4924 -0.9025
26197SOL     OW85448   7.548   3.446   1.532  0.1277 -0.3510  0.2059
26197SOL    HW185449   7.545   3.364   1.483 -0.8853 -1.0913  1.4274
26197SOL    HW285450   7.459   3.458   1.565  0.2989  1.1589  0.2100
26198SOL     OW85451  10.080   1.824  11.691 -0.0576 -0.7929  0.2712
26198SOL    HW185452  10.125   1.866  11.765  0.9060  0.5210 -0.9990
26198SOL    HW285453  10.005   1.881  11.674  1.8538  1.2176 -2.1583
26199SOL     OW85454   1.690   0.196   3.505  0.2763 -0.8614 -0.8109
26199SOL    HW185455   1.668   0.108   3.474  2.3570 -1.6493 -0.2288
26199SOL    HW285456   1.715   0.184   3.597  1.7541  0.0949 -1.0418
26200SOL     OW85457   1.088   3.465  11.651 -0.1319 -0.3468 -0.5382
26200SOL    HW185458   1.180   3.439  11.644 -0.1606 -0.3791 -0.7870
26200SOL    HW285459   1.069   3.509  11.569  0.1373  1.1891  0.1912
26201SOL     OW85460  11.195   1.588   5.365 -0.0005 -0.2956 -0.0105
26201SOL    HW185461  11.272   1.533   5.351 -0.2876 -0.4854 -0.8763
26201SOL    HW285462  11.187   1.593   5.461  0.9859 -0.4013  0.0900
26202SOL     OW85463   3.026   5.186   9.721  0.3006 -0.0868  0.0238
26202SOL    HW185464   2.940   5.144   9.720  0.0133  0.4824 -1.3590
26202SOL    HW285465   3.029   5.231   9.805  0.4808 -2.5260  1.4096
26203SOL     OW85466   3.443   5.205   4.355 -0.6100 -0.0143 -0.4834
26203SOL    HW185467   3.388   5.132   4.385 -1.3880  0.6890 -0.1530
26203SOL    HW285468   3.431   5.272   4.421  0.0568  0.4409 -0.8162
26204SOL     OW85469   8.634   6.601   2.252  0.0023  0.2468 -0.1493
26204SOL    HW185470   8.633   6.679   2.196 -1.4130 -0.1592 -0.7371
26204SOL    HW285471   8.721   6.563   2.239 -0.2278  0.2658 -1.9630
26205SOL     OW85472   7.273  12.563   2.020 -0.2330  0.0085  0.2385
26205SOL    HW185473   7.288  12.622   1.946  0.4547  1.5174  1.5236
26205SOL    HW285474   7.356  12.562   2.068 -1.1383  0.4624  1.9197
26206SOL     OW85475   9.049   3.142   4.667 -0.0385  0.7039 -0.2082
26206SOL    HW185476   8.989   3.110   4.600  0.3719  1.0844 -0.7652
26206SOL    HW285477   9.117   3.189   4.618  0.0938  1.2633  0.4908
26207SOL     OW85478   1.484   2.212  11.153 -0.3277  0.3299  0.7873
26207SOL    HW185479   1.539   2.139  11.124  0.4282  0.6237  1.4630
26207SOL    HW285480   1.426   2.229  11.079  0.6575  0.1876 -0.0373
26208SOL     OW85481   4.714  10.967   1.897  0.4851  0.0778  0.1584
26208SOL    HW185482   4.639  10.922   1.859 -0.8725  2.6158 -0.3752
26208SOL    HW285483   4.769  10.991   1.823  1.2411 -0.6820  0.4467
26209SOL     OW85484   2.832   1.537   5.876  0.2099  0.1940 -0.0827
26209SOL    HW185485   2.822   1.507   5.786 -1.4528 -0.4428  0.2835
26209SOL    HW285486   2.802   1.463   5.930  0.6902  0.7498  0.9759
26210SOL     OW85487   0.210   7.873   7.640  0.7931  0.0870  0.0443
26210SOL    HW185488   0.226   7.937   7.710 -0.5465 -0.4778  0.9058
26210SOL    HW285489   0.290   7.821   7.636  1.9593  1.8547 -0.7524
26211SOL     OW85490   6.605   6.197   0.951  0.4413  0.5971  0.3921
26211SOL    HW185491   6.552   6.271   0.921  0.9370  0.8593  0.1394
26211SOL    HW285492   6.667   6.236   1.012  3.1670  1.1477 -2.4268
26212SOL     OW85493   3.058   0.685   2.798 -0.3739 -0.1214 -0.0251
26212SOL    HW185494   2.976   0.661   2.843 -0.5099 -1.3127 -0.8576
26212SOL    HW285495   3.095   0.601   2.770  0.1767  0.5225 -1.3010
26213SOL     OW85496   7.882   2.163   3.685 -0.3705  0.4557 -0.0551
26213SOL    HW185497   7.835   2.129   3.761  0.4693  1.5608  0.9974
26213SOL    HW285498   7.882   2.258   3.697  1.5357  0.5361 -0.3470
26214SOL     OW85499   0.371   1.371  12.085  0.4152 -0.1534 -0.4230
26214SOL    HW185500   0.465   1.373  12.104  0.4409 -0.5887 -0.4878
26214SOL    HW285501   0.332   1.329  12.161  0.0256  1.8257  0.5102
26215SOL     OW85502   4.347   3.787   2.386  0.6565  0.2593 -0.7182
26215SOL    HW185503   4.358   3.827   2.299  1.1761  1.1449 -0.2691
26215SOL    HW285504   4.389   3.849   2.445 -0.8103  0.3097  0.3269
26216SOL     OW85505   1.109   3.212   5.520 -0.1462  0.4985  0.9256
26216SOL    HW185506   1.129   3.151   5.449  0.4848  0.4283  1.1574
26216SOL    HW285507   1.182   3.274   5.520 -0.5740  1.0083  0.9652
26217SOL     OW85508   5.173   0.803   5.822  0.3442  0.0802  0.1912
26217SOL    HW185509   5.119   0.859   5.878  0.0639 -0.6352  0.6645
26217SOL    HW285510   5.203   0.733   5.881  0.8102 -0.1739 -0.3443
26218SOL     OW85511  11.321   7.991   1.388 -0.0064 -0.6001 -0.4894
26218SOL    HW185512  11.352   7.910   1.428 -0.7323  0.2695  2.0092
26218SOL    HW285513  11.393   8.020   1.333  1.2485 -1.6283  0.5585
26219SOL     OW85514   5.527   2.442   5.627 -0.2911  0.0824 -0.4149
26219SOL    HW185515   5.488   2.526   5.651 -1.0808 -0.6062  0.8992
26219SOL    HW285516   5.521   2.439   5.532 -1.9985  0.7299 -0.3768
26220SOL     OW85517   2.447  12.179   1.862  0.7498  0.2507 -0.2190
26220SOL    HW185518   2.477  12.231   1.787 -0.7712  0.6847 -0.5578
26220SOL    HW285519   2.501  12.100   1.860  0.9113  0.3751 -1.6142
26221SOL     OW85520  11.406   9.902   8.736  0.0401  0.3041 -0.1154
26221SOL    HW185521  11.463   9.963   8.691 -0.1842  0.7881  0.2435
26221SOL    HW285522  11.417   9.819   8.690 -1.2523  1.1057 -1.9714
26222SOL     OW85523   0.225   7.936   4.622  0.5853  0.0026 -0.3356
26222SOL    HW185524   0.319   7.938   4.603  0.8154 -1.5043  0.5835
26222SOL    HW285525   0.208   8.018   4.668  0.9738  1.3684 -2.4649
26223SOL     OW85526   1.733   7.268   6.023  0.1683  1.0893 -0.4607
26223SOL    HW185527   1.772   7.341   6.071  1.6473  0.3642 -0.5042
26223SOL    HW285528   1.791   7.255   5.948  0.5148 -0.7449  0.0745
26224SOL     OW85529   0.807   0.773   3.504  0.4764  0.5589 -0.9102
26224SOL    HW185530   0.795   0.754   3.597 -0.2509  0.7726 -0.9490
26224SOL    HW285531   0.831   0.689   3.465  0.2694  0.3586 -0.6059
26225SOL     OW85532  12.338   8.557   8.127 -0.1191  0.1496 -0.3230
26225SOL    HW185533  12.345   8.567   8.222 -0.8358  1.4766 -0.3830
26225SOL    HW285534  12.325   8.463   8.113  1.4537 -0.2629  0.7763
26226SOL     OW85535   4.620   8.894   6.692 -0.5614 -0.1552 -0.2195
26226SOL    HW185536   4.614   8.954   6.766 -1.8976  0.1411 -0.5388
26226SOL    HW285537   4.529   8.885   6.660 -0.1489 -0.9857 -1.2498
26227SOL     OW85538   7.242   4.677   0.373  0.0319 -0.3510  0.0650
26227SOL    HW185539   7.324   4.648   0.333 -0.7816 -0.6397 -1.4851
26227SOL    HW285540   7.239   4.631   0.457  0.7514 -1.5147 -0.5157
26228SOL     OW85541   6.189   0.041   8.763 -0.3103  0.2948 -0.1101
26228SOL    HW185542   6.109   0.020   8.715  0.5024 -0.1068 -1.3455
26228SOL    HW285543   6.258  -0.008   8.718  0.9202  1.9873 -0.1721
26229SOL     OW85544   4.806   2.871   9.540  0.1455  0.0292 -0.0394
26229SOL    HW185545   4.792   2.794   9.486 -4.3926  1.7800 -1.8453
26229SOL    HW285546   4.890   2.907   9.510  1.0638 -2.6944 -0.9782
26230SOL     OW85547   2.353   1.203   2.545  0.2999  0.0569 -0.3194
26230SOL    HW185548   2.266   1.203   2.585 -0.0686 -0.9477 -1.0500
26230SOL    HW285549   2.342   1.150   2.466  1.7198 -0.6146 -0.0994
26231SOL     OW85550   3.172   6.911   7.206  0.6099 -0.0032  0.6096
26231SOL    HW185551   3.185   6.831   7.257  1.1389  0.5912  1.4311
26231SOL    HW285552   3.079   6.930   7.215  0.0681 -1.4752 -1.0768
26232SOL     OW85553   9.427   3.367  12.459  0.3968  0.4072 -0.0973
26232SOL    HW185554   9.371   3.372  12.536  0.4496  0.1553 -0.0426
26232SOL    HW285555   9.405   3.445  12.408  1.1567  1.1501  0.6952
26233SOL     OW85556   1.663   8.836  11.246 -0.0005  0.2902  0.6802
26233SOL    HW185557   1.757   8.848  11.263  0.1670 -0.7798  0.5625
26233SOL    HW285558   1.639   8.911  11.191  0.9538  0.1934  0.1027
26234SOL     OW85559   8.905   4.781  11.916  0.0513 -0.1801 -0.0517
26234SOL    HW185560   8.904   4.713  11.983  1.1364 -1.6730 -1.4918
26234SOL    HW285561   8.998   4.794  11.896 -0.2486  0.1760 -1.3073
26235SOL     OW85562  11.292   9.250   2.946 -0.1508  0.7503 -0.5571
26235SOL    HW185563  11.377   9.277   2.911 -0.1756  0.3722 -0.9269
26235SOL    HW285564  11.249   9.331   2.971 -0.1236  1.0393 -1.4017
26236SOL     OW85565   8.041   3.361   7.700  0.3639 -0.0005  0.4258
26236SOL    HW185566   8.106   3.342   7.632  0.7317 -0.5928  0.9307
26236SOL    HW285567   8.084   3.426   7.757  0.0549  0.4977  0.0943
26237SOL     OW85568   2.209   5.413   2.665 -0.0198  0.8649 -0.2081
26237SOL    HW185569   2.164   5.371   2.592 -1.5792  1.3180  0.4450
26237SOL    HW285570   2.203   5.506   2.647  0.0949  0.9550  0.2036
26238SOL     OW85571   7.487   1.032   2.468  0.4727 -0.2365 -0.4776
26238SOL    HW185572   7.475   1.005   2.377  3.9975  0.1970 -1.2019
26238SOL    HW285573   7.491   1.128   2.464 -2.8526  0.0795  0.7616
26239SOL     OW85574   0.454   0.181   1.080  0.0573 -0.6033 -0.0497
26239SOL    HW185575   0.544   0.212   1.095  0.0146 -0.0759 -0.8035
26239SOL    HW285576   0.464   0.105   1.023  0.0429 -0.7264  0.1121
26240SOL     OW85577   9.805   1.811   8.036 -0.4701  0.0878 -0.1072
26240SOL    HW185578   9.814   1.739   8.098  0.6891  1.3768  1.2888
26240SOL    HW285579   9.717   1.846   8.051 -0.6820 -0.4225 -0.1376
26241SOL     OW85580   6.768   2.844   9.704 -0.1955  0.0795  0.9368
26241SOL    HW185581   6.691   2.847   9.648  0.2694 -0.1057  0.2725
26241SOL    HW285582   6.760   2.921   9.760 -0.3080  0.6678  0.1261
26242SOL     OW85583   7.220   7.290   3.494  0.5380  0.1400  0.3960
26242SOL    HW185584   7.290   7.226   3.478  0.3501 -0.3515  1.4539
26242SOL    HW285585   7.216   7.297   3.590 -0.3220  0.7698  0.3228
26243SOL     OW85586  10.690   1.937   3.911  0.5531 -0.4145  0.8570
26243SOL    HW185587  10.782   1.933   3.889 -0.0377  0.7435 -2.2480
26243SOL    HW285588  10.655   1.852   3.884  0.4174 -0.2211  0.4183
26244SOL     OW85589   0.987   9.134  12.460 -0.1434 -0.1698 -0.2148
26244SOL    HW185590   1.033   9.217  12.462  0.7293 -0.6501  0.9063
26244SOL    HW285591   0.924   9.140  12.532  1.8533 -1.4810  1.7798
26245SOL     OW85592   9.464   9.624   6.368  0.1401  0.5253 -0.0636
26245SOL    HW185593   9.513   9.641   6.288 -0.8984  0.8707 -0.6483
26245SOL    HW285594   9.523   9.572   6.422  0.5079 -0.5837 -1.4660
26246SOL     OW85595   3.780   6.551   0.114  0.1997 -0.2315 -0.8288
26246SOL    HW185596   3.725   6.530   0.188  0.9651  0.6859  0.0389
26246SOL    HW285597   3.799   6.467   0.072 -1.7684 -0.5615 -1.1207
26247SOL     OW85598   9.354   5.579   5.065  0.1489  0.0202 -0.0613
26247SOL    HW185599   9.424   5.550   5.006 -0.8590 -1.8028 -0.4313
26247SOL    HW285600   9.289   5.618   5.006  0.1244  0.2372  0.1081
26248SOL     OW85601  10.994   8.359   5.382  0.1014  0.4723 -0.0444
26248SOL    HW185602  10.961   8.332   5.468  0.6551  0.6798  0.2401
26248SOL    HW285603  10.922   8.410   5.344 -0.8948 -1.2156 -0.5319
26249SOL     OW85604   6.829   9.600   1.761  0.2182 -0.6066 -0.2151
26249SOL    HW185605   6.858   9.557   1.680  0.3945 -1.6259  0.3798
26249SOL    HW285606   6.893   9.574   1.826 -0.5807 -0.7451  0.5276
26250SOL     OW85607   9.684   0.242   2.392  0.2942 -0.4352  0.0436
26250SOL    HW185608   9.685   0.306   2.322  0.6152 -0.0859  0.3600
26250SOL    HW285609   9.775   0.238   2.422  0.2085 -0.7685  0.2668
26251SOL     OW85610   2.300   6.327   2.303  0.1597  0.3643  0.0017
26251SOL    HW185611   2.232   6.278   2.257 -0.6572 -0.4884  1.9958
26251SOL    HW285612   2.368   6.262   2.320 -0.4450  0.1149  1.6983
26252SOL     OW85613  10.525   2.167   3.195 -0.1853  0.1141 -0.2539
26252SOL    HW185614  10.553   2.190   3.283  1.4961 -0.6002 -0.5664
26252SOL    HW285615  10.487   2.247   3.160  0.2142  0.7354  0.7124
26253SOL     OW85616   3.387   6.006   2.853 -0.7107 -0.5027  0.2046
26253SOL    HW185617   3.383   6.094   2.816 -0.2281  0.3049  1.9341
26253SOL    HW285618   3.476   5.998   2.886 -1.2710 -0.8955  1.7210
26254SOL     OW85619   9.203  11.796   8.533  0.1367 -0.3016 -0.2182
26254SOL    HW185620   9.182  11.828   8.446 -0.6443  0.2580  0.1596
26254SOL    HW285621   9.140  11.840   8.591  0.8914 -0.3496  0.6730
26255SOL     OW85622   0.681   4.140   6.533  1.2043  0.1419 -0.0005
26255SOL    HW185623   0.638   4.118   6.450 -3.9546 -1.3285  2.5853
26255SOL    HW285624   0.644   4.224   6.557  1.0272 -0.3798  1.6522
26256SOL     OW85625   5.141   3.269   8.642  0.0186  0.9908 -0.0034
26256SOL    HW185626   5.120   3.350   8.596  2.2503  0.6821 -1.7038
26256SOL    HW285627   5.236   3.260   8.635 -0.2684 -2.6089 -1.3951
26257SOL     OW85628   2.550   4.404   3.119  0.5070  0.9674  0.0895
26257SOL    HW185629   2.527   4.311   3.118  1.8312  0.6239  0.5922
26257SOL    HW285630   2.512   4.439   3.039  0.8150 -0.2081 -0.5834
26258SOL     OW85631   3.650   9.056  11.049  0.1994 -0.0107 -0.2931
26258SOL    HW185632   3.740   9.075  11.078  0.4525 -1.1918 -0.2539
26258SOL    HW285633   3.625   8.979  11.099 -0.6563  0.0098 -0.6801
26259SOL     OW85634   8.096   5.852   7.036  0.2196 -0.1675  0.0860
26259SOL    HW185635   8.186   5.844   7.067  0.1876  0.4812  0.3782
26259SOL    HW285636   8.073   5.943   7.055 -0.2635 -0.1337 -0.6255
26260SOL     OW85637   9.612   3.363  10.983 -0.3266 -0.0102 -0.1356
26260SOL    HW185638   9.564   3.347  10.901 -0.7015 -0.0783  0.0987
26260SOL    HW285639   9.546   3.354  11.052 -0.0732  0.3533  0.1544
26261SOL     OW85640   7.378   7.814   2.541 -0.2230  0.1190 -0.0578
26261SOL    HW185641   7.282   7.813   2.546 -0.3641  2.0270 -1.2615
26261SOL    HW285642   7.405   7.866   2.617  0.0409 -2.0158  1.3919
26262SOL     OW85643   4.662   5.171   7.463  0.2071  0.4874 -0.2999
26262SOL    HW185644   4.616   5.087   7.465  0.9864  0.0542 -0.3585
26262SOL    HW285645   4.634   5.215   7.544 -0.4219  0.2951 -0.4074
26263SOL     OW85646   9.898   2.004   0.467  0.2143  0.5939  0.1626
26263SOL    HW185647   9.922   1.919   0.502 -0.2515  0.1430 -0.5920
26263SOL    HW285648   9.969   2.062   0.495  1.3075 -0.3455 -0.5500
26264SOL     OW85649   6.464   9.233   4.547  0.3763 -0.7531  0.2078
26264SOL    HW185650   6.441   9.141   4.557  1.0263 -1.1335 -1.4360
26264SOL    HW285651   6.423   9.259   4.464 -0.7532  0.7745  1.1901
26265SOL     OW85652   8.856  12.165   0.126  0.3190 -0.1860 -0.2593
26265SOL    HW185653   8.802  12.200   0.055 -1.0346  3.6273  2.3430
26265SOL    HW285654   8.945  12.190   0.102 -0.2107  1.7989 -0.3521
26266SOL     OW85655   1.074   9.267   4.082  0.4725  0.5950  0.2596
26266SOL    HW185656   1.075   9.277   4.177 -1.4048 -0.6283  0.4616
26266SOL    HW285657   1.091   9.174   4.067  0.2096  0.6695 -0.5622
26267SOL     OW85658   5.102   2.614  11.541 -0.5779  0.1483 -0.0047
26267SOL    HW185659   5.164   2.547  11.514 -0.4582 -0.5888  1.9243
26267SOL    HW285660   5.028   2.603  11.481 -0.1463 -1.0682 -0.3538
26268SOL     OW85661   0.776   3.704  12.488 -0.0579 -0.2398  0.0447
26268SOL    HW185662   0.728   3.660  12.418  0.3643 -0.9608  0.2038
26268SOL    HW285663   0.776   3.642  12.561 -1.7454  1.0703  1.2258
26269SOL     OW85664   4.058  11.157   1.819 -0.1998  0.3572 -0.0954
26269SOL    HW185665   4.065  11.163   1.723  0.1274 -2.6382 -0.3435
26269SOL    HW285666   4.146  11.136   1.848 -0.6710 -0.6171  0.6645
26270SOL     OW85667   5.434   9.692   5.794 -0.7886 -0.4684  0.3293
26270SOL    HW185668   5.365   9.730   5.848  1.9585  0.8880  3.1969
26270SOL    HW285669   5.432   9.599   5.814 -1.7928 -0.4447  0.3601
26271SOL     OW85670   4.401   9.205  11.377 -0.3570  0.2832  0.1919
26271SOL    HW185671   4.405   9.158  11.293  0.2794 -0.3120  0.5456
26271SOL    HW285672   4.491   9.205  11.409 -0.7387 -0.2789  1.2999
26272SOL     OW85673   6.814   6.278   5.672 -0.2582  0.4543  0.5721
26272SOL    HW185674   6.778   6.219   5.739 -0.8516  0.5434  0.3397
26272SOL    HW285675   6.826   6.361   5.718  2.6752 -0.3676  1.5100
26273SOL     OW85676  11.184   6.112   7.451  0.1348 -0.4521  0.2045
26273SOL    HW185677  11.195   6.172   7.377  1.4690 -1.2633 -0.3021
26273SOL    HW285678  11.171   6.026   7.411  2.8007 -1.2506  0.8043
26274SOL     OW85679  11.186  10.293   0.068 -0.1225 -0.1252  0.1572
26274SOL    HW185680  11.237  10.212   0.079  0.6655  0.0191 -1.9936
26274SOL    HW285681  11.253  10.361   0.054 -0.8393  0.4113 -0.7528
26275SOL     OW85682   3.441   5.821   9.079  0.4455  0.0282  0.1724
26275SOL    HW185683   3.410   5.751   9.021 -1.7999  1.9955 -1.1623
26275SOL    HW285684   3.391   5.811   9.159 -0.8378  0.8101 -0.5002
26276SOL     OW85685   2.432  11.322   4.833  0.1776  0.3386  0.0229
26276SOL    HW185686   2.471  11.240   4.803  1.6776  1.1582 -0.3183
26276SOL    HW285687   2.486  11.391   4.795 -0.8111  1.5019  0.6295
26277SOL     OW85688   6.194   6.632   3.442 -0.1413 -0.5837 -0.5562
26277SOL    HW185689   6.274   6.580   3.432  0.4475 -0.1868  1.5784
26277SOL    HW285690   6.131   6.572   3.482  0.2009 -0.0067  0.9127
26278SOL     OW85691   0.410   1.225   1.529 -0.5791 -0.1707  0.0283
26278SOL    HW185692   0.317   1.247   1.532 -0.3967  0.5422  1.8874
26278SOL    HW285693   0.445   1.258   1.612  1.4668  0.1892 -0.9150
26279SOL     OW85694  11.193  11.666   0.237 -0.1393 -0.2101 -0.7260
26279SOL    HW185695  11.147  11.675   0.154 -0.7464  2.9465 -0.1878
26279SOL    HW285696  11.124  11.665   0.303  0.3654  1.9160 -0.0682
26280SOL     OW85697   7.538   2.930   3.259  0.4005  0.1584  0.4170
26280SOL    HW185698   7.504   2.989   3.192 -1.0844 -2.3041 -1.1318
26280SOL    HW285699   7.529   2.980   3.341  0.5005  2.5454 -0.9248
26281SOL     OW85700   8.164   2.536  10.227  0.1652 -0.5545  0.1214
26281SOL    HW185701   8.130   2.457  10.271  0.9802  0.4069  2.6920
26281SOL    HW285702   8.257   2.536  10.248  0.1793  1.0691  0.1977
26282SOL     OW85703   9.483   7.720   0.708 -0.0903  0.0374 -0.4746
26282SOL    HW185704   9.564   7.694   0.752 -0.7745 -1.3287  0.0328
26282SOL    HW285705   9.504   7.714   0.614  0.8820  1.3515 -0.3579
26283SOL     OW85706   0.770  10.546   4.969  0.7300  0.1932 -0.1890
26283SOL    HW185707   0.780  10.563   5.063 -0.9661  0.5785 -0.0382
26283SOL    HW285708   0.741  10.630   4.933  1.5871  0.1119 -1.1120
26284SOL     OW85709   6.088   8.372   1.945 -0.0101 -0.3722 -0.0842
26284SOL    HW185710   6.077   8.289   1.993 -1.8815  0.5934  1.2685
26284SOL    HW285711   6.127   8.431   2.008 -0.5995  0.3488 -0.3827
26285SOL     OW85712   9.491   8.299   2.852 -0.2258 -0.2623 -0.0175
26285SOL    HW185713   9.517   8.289   2.944 -1.0538  0.2821  0.2900
26285SOL    HW285714   9.444   8.382   2.850 -2.1835 -1.3390 -0.4807
26286SOL     OW85715   9.250   4.944   8.556 -0.5464  0.3526 -0.4625
26286SOL    HW185716   9.233   4.900   8.473  0.9949  1.1633 -1.2464
26286SOL    HW285717   9.184   4.909   8.615 -1.8210 -0.0817 -2.0748
26287SOL     OW85718   2.994   5.821   3.973  0.5659 -0.5848 -0.4217
26287SOL    HW185719   3.033   5.765   4.040 -1.3503 -1.9907 -0.4029
26287SOL    HW285720   2.904   5.835   4.003 -0.1612 -0.7421 -2.3823
26288SOL     OW85721   3.680   2.762   2.414 -0.2934  0.0426  0.4032
26288SOL    HW185722   3.671   2.727   2.326 -2.3850  2.6741 -0.5669
26288SOL    HW285723   3.591   2.766   2.448  0.4525 -0.7537  2.6277
26289SOL     OW85724  10.454   9.305   8.032 -0.1652  0.2157  0.3924
26289SOL    HW185725  10.444   9.292   7.938  0.9678 -2.0471  0.5062
26289SOL    HW285726  10.458   9.216   8.068  0.4996  1.0211  2.4473
26290SOL     OW85727  12.018   2.645   8.220 -0.2312 -0.3062 -0.1254
26290SOL    HW185728  12.031   2.739   8.232 -1.5755  0.1675 -1.9806
26290SOL    HW285729  12.078   2.604   8.283  1.5942  1.7663 -0.4105
26291SOL     OW85730  12.021  12.018   1.503 -0.1897 -0.3606 -0.0701
26291SOL    HW185731  12.065  12.100   1.524  1.2016 -1.0721 -0.0812
26291SOL    HW285732  11.947  12.043   1.448 -0.1749  0.9348  0.4705
26292SOL     OW85733   6.360   2.666   8.173 -0.2767  0.0307 -0.1522
26292SOL    HW185734   6.372   2.734   8.107 -0.3907  0.0399 -0.1645
26292SOL    HW285735   6.368   2.712   8.257  0.1069 -0.0236 -0.1597
26293SOL     OW85736   9.756   9.037   5.377  0.2433 -0.6853  0.1480
26293SOL    HW185737   9.670   9.019   5.416  0.6477 -2.5640  0.2843
26293SOL    HW285738   9.742   9.112   5.321 -1.8440 -1.7709 -0.8973
26294SOL     OW85739  10.746   0.477   7.379  0.0337 -0.1786  0.0051
26294SOL    HW185740  10.812   0.407   7.381 -1.2601 -1.4400  0.9509
26294SOL    HW285741  10.774   0.538   7.446  0.3467 -0.5946  0.2605
26295SOL     OW85742   5.357   7.621   1.493  0.2083 -0.5203  0.6299
26295SOL    HW185743   5.452   7.619   1.482  0.1123 -0.3474 -0.3218
26295SOL    HW285744   5.323   7.574   1.417 -0.5546  1.5958 -0.4205
26296SOL     OW85745   2.130   7.882   8.339 -0.1147  0.4724 -0.6371
26296SOL    HW185746   2.109   7.812   8.277 -1.3409  1.2648 -1.1482
26296SOL    HW285747   2.098   7.962   8.297 -2.5477  0.8600  1.6875
26297SOL     OW85748   4.351   1.491  11.233 -0.3036 -0.4145 -0.5996
26297SOL    HW185749   4.405   1.496  11.154  1.5915  2.6933  0.7315
26297SOL    HW285750   4.413   1.476  11.304 -1.2221  2.0655  0.8491
26298SOL     OW85751   0.057   9.411  10.015 -0.0537 -0.1013 -0.1662
26298SOL    HW185752   0.116   9.486  10.008  0.8666 -0.8568 -0.9925
26298SOL    HW285753   0.006   9.412   9.934 -1.1526  0.5033  0.5106
26299SOL     OW85754  10.788   9.562   4.241  0.1936 -0.2171  0.1327
26299SOL    HW185755  10.849   9.626   4.205  0.8724 -0.3235  1.0447
26299SOL    HW285756  10.843   9.486   4.263 -0.1753 -0.1460  1.3812
26300SOL     OW85757  11.377   8.391   3.773 -0.9864  0.6661 -0.1460
26300SOL    HW185758  11.286   8.411   3.797 -1.2137 -0.8883  0.3427
26300SOL    HW285759  11.425   8.394   3.856 -0.2081  3.1275 -0.5867
26301SOL     OW85760   3.125   9.749   7.816  0.0162  0.8577 -0.1119
26301SOL    HW185761   3.049   9.692   7.804  0.9346 -0.5757  0.6574
26301SOL    HW285762   3.103   9.802   7.893 -0.7619  1.4233 -0.7103
26302SOL     OW85763   6.791   5.863   3.909 -0.0343 -0.6528  0.9786
26302SOL    HW185764   6.855   5.933   3.901 -0.8186  0.0305  0.5243
26302SOL    HW285765   6.727   5.896   3.973 -1.2539 -0.2674 -0.3830
26303SOL     OW85766   5.718   6.584   2.824 -0.2345  0.2238 -1.0109
26303SOL    HW185767   5.754   6.585   2.735  1.5549 -1.0390 -0.3620
26303SOL    HW285768   5.792   6.557   2.879 -1.2908  0.9793  0.8755
26304SOL     OW85769   4.416   4.617   1.046  0.1608 -0.3257 -0.0207
26304SOL    HW185770   4.388   4.615   0.955 -1.3737 -0.6522  0.4190
26304SOL    HW285771   4.500   4.663   1.045  0.5108 -0.9281 -1.6674
26305SOL     OW85772   9.107  11.075   0.045 -0.4507 -0.9611  0.1350
26305SOL    HW185773   9.200  11.062   0.064 -0.0249  0.5566 -0.7545
26305SOL    HW285774   9.065  11.066   0.130  0.3238 -2.8678  0.3797
26306SOL     OW85775  11.618   1.769   8.486 -0.3573 -0.1280  0.5968
26306SOL    HW185776  11.711   1.752   8.477 -0.2457  1.2121 -1.8109
26306SOL    HW285777  11.609   1.810   8.572  1.4208  0.4977  0.5274
26307SOL     OW85778   3.631   1.873   8.753  0.1389  0.0536 -0.3868
26307SOL    HW185779   3.696   1.941   8.766  0.5650 -0.3631 -0.3232
26307SOL    HW285780   3.598   1.854   8.841 -0.3474  0.5317 -0.4609
26308SOL     OW85781  11.605  10.144  10.243 -0.0336 -0.3268 -0.0679
26308SOL    HW185782  11.632  10.152  10.152  0.1760 -1.1686 -0.0887
26308SOL    HW285783  11.687  10.132  10.291 -0.1595 -0.1088  0.2056
26309SOL     OW85784   9.373   0.740   7.621  0.2973 -0.4973  0.7687
26309SOL    HW185785   9.368   0.807   7.689  1.1459 -0.0541  0.4073
26309SOL    HW285786   9.442   0.770   7.562 -1.2363 -0.2292 -0.9982
26310SOL     OW85787   3.233  10.630  11.592 -0.2196 -0.4377  0.1263
26310SOL    HW185788   3.141  10.614  11.613 -0.5670 -0.1439 -1.0838
26310SOL    HW285789   3.250  10.575  11.516  1.2063 -2.0761  1.5446
26311SOL     OW85790  11.754   5.180   3.835 -0.1213  0.7018  0.2472
26311SOL    HW185791  11.832   5.161   3.888 -0.3381  2.4840  1.2831
26311SOL    HW285792  11.783   5.245   3.772 -0.0472 -0.9063 -1.4474
26312SOL     OW85793   8.121   3.212   5.582  0.3400 -0.3264 -0.2547
26312SOL    HW185794   8.073   3.288   5.549 -0.6667 -0.2972  1.2065
26312SOL    HW285795   8.207   3.247   5.607  1.0866 -0.3129 -2.5389
26313SOL     OW85796   8.734   4.524   2.910  0.5618  0.0248  0.0717
26313SOL    HW185797   8.687   4.446   2.880 -1.6719  0.4424  2.1532
26313SOL    HW285798   8.762   4.502   2.999  1.3689  1.0322  0.0799
26314SOL     OW85799  11.455   1.023   3.642 -0.0330 -0.1164 -0.1089
26314SOL    HW185800  11.539   1.011   3.685 -0.7012  0.2356  1.3638
26314SOL    HW285801  11.424   1.109   3.672 -1.5021 -0.8052  0.4568
26315SOL     OW85802   7.131   2.456   1.330 -0.5828  0.0108  0.6479
26315SOL    HW185803   7.205   2.502   1.291 -0.5975 -2.3215 -2.6089
26315SOL    HW285804   7.171   2.397   1.394  0.2159  0.0013  0.1579
26316SOL     OW85805   7.065   5.400   6.476  0.3880 -0.1480 -0.4725
26316SOL    HW185806   7.156   5.427   6.471  0.3230  0.4839  1.2728
26316SOL    HW285807   7.035   5.401   6.385  2.1601 -0.5796 -1.0985
26317SOL     OW85808   6.023  10.692   9.406 -0.0168 -0.0435 -0.9169
26317SOL    HW185809   6.029  10.638   9.485  0.1136 -0.8226 -1.4454
26317SOL    HW285810   5.934  10.727   9.407 -1.3177 -2.9724 -2.2431
26318SOL     OW85811   9.502   2.039   4.290  0.3288 -0.0044 -0.2446
26318SOL    HW185812   9.524   2.087   4.370  0.2512  0.2244 -0.3606
26318SOL    HW285813   9.420   1.993   4.311  0.6050 -0.3933 -0.0063
26319SOL     OW85814   7.583   6.945  10.573 -0.2949 -0.3507 -0.5034
26319SOL    HW185815   7.579   6.913  10.664  0.8139 -0.6746 -0.5636
26319SOL    HW285816   7.633   6.878  10.526 -0.3218  0.1314 -1.2290
26320SOL     OW85817   4.373  12.249   0.931 -0.0211  0.0523  0.3398
26320SOL    HW185818   4.324  12.217   1.006 -1.1303 -2.1777 -1.2199
26320SOL    HW285819   4.319  12.321   0.897 -0.4559 -0.1338  0.6253
26321SOL     OW85820   2.578   8.816   4.056  0.4001  0.4128 -0.1568
26321SOL    HW185821   2.531   8.798   4.137 -0.5887  1.3815 -0.4890
26321SOL    HW285822   2.667   8.786   4.073  1.0918  3.3106  2.4485
26322SOL     OW85823  12.464   6.485   6.592  0.1914 -0.3433 -0.6440
26322SOL    HW185824  12.533   6.478   6.657 -2.4880 -1.7324  2.3391
26322SOL    HW285825  12.459   6.397   6.553 -0.4743 -0.5393 -0.1360
26323SOL     OW85826  11.740   3.364   2.658 -0.2552  0.1539  0.1012
26323SOL    HW185827  11.796   3.330   2.588 -0.8092  0.1720 -0.3606
26323SOL    HW285828  11.738   3.294   2.724 -1.0033 -0.5275 -0.6272
26324SOL     OW85829   2.315   3.780   9.430 -0.6575  0.2516 -0.0179
26324SOL    HW185830   2.350   3.792   9.518 -1.4287  0.4727  0.2675
26324SOL    HW285831   2.291   3.687   9.426 -0.4970  0.2110 -0.0447
26325SOL     OW85832   0.640   2.001   8.692  0.6041  0.0005 -0.1899
26325SOL    HW185833   0.567   2.018   8.752 -1.0869  0.9278 -2.3524
26325SOL    HW285834   0.641   1.906   8.682 -1.6035  0.0359 -1.5096
26326SOL     OW85835   6.906   8.540  10.924 -0.7274  0.4478 -0.7972
26326SOL    HW185836   6.990   8.497  10.905 -0.8868 -1.3436  1.9835
26326SOL    HW285837   6.923   8.633  10.909  1.1446 -0.0529 -2.1698
26327SOL     OW85838   3.714   5.673   7.619  0.1599 -0.4020 -0.1466
26327SOL    HW185839   3.798   5.718   7.631 -0.6984  1.4736 -0.9456
26327SOL    HW285840   3.718   5.637   7.531  0.6481 -1.5417  0.3165
26328SOL     OW85841   8.002   7.881  10.959  0.1595 -0.4640 -0.0103
26328SOL    HW185842   7.984   7.816  11.027 -0.9655 -0.0618  0.0883
26328SOL    HW285843   8.020   7.962  11.007  1.2908 -0.6151 -0.1434
26329SOL     OW85844   8.319   8.963   0.399 -0.0118 -0.1787  0.0877
26329SOL    HW185845   8.356   9.010   0.325 -0.9220 -0.0998 -0.3368
26329SOL    HW285846   8.313   9.028   0.469 -0.0325 -0.0046 -0.0764
26330SOL     OW85847   6.404   1.243  10.796  0.2835 -0.3430 -0.2327
26330SOL    HW185848   6.395   1.251  10.891  0.1165  0.6043 -0.3136
26330SOL    HW285849   6.438   1.155  10.782 -2.3560 -1.5806  0.5235
26331SOL     OW85850  10.438  11.289   3.003 -0.0750  0.3929  0.2873
26331SOL    HW185851  10.367  11.231   3.030  0.0499 -0.4094 -1.0069
26331SOL    HW285852  10.426  11.369   3.055  0.2166 -1.0521  2.7070
26332SOL     OW85853  10.983   3.926   2.204 -0.2225  0.1955 -0.3848
26332SOL    HW185854  11.065   3.935   2.154 -0.6559 -0.5389 -1.2491
26332SOL    HW285855  10.917   3.907   2.138 -0.7858 -0.9685  0.4842
26333SOL     OW85856   6.451   4.970   4.228  0.4246 -0.9425  0.2679
26333SOL    HW185857   6.482   5.017   4.305 -0.3462 -1.1889  0.7427
26333SOL    HW285858   6.365   5.007   4.210  1.1508  0.0740 -1.3263
26334SOL     OW85859   7.654   9.694   1.599 -0.1698 -0.2899 -0.2005
26334SOL    HW185860   7.652   9.672   1.692  1.6167 -0.5754 -0.1816
26334SOL    HW285861   7.661   9.609   1.555  0.4605 -0.0945 -0.4958
26335SOL     OW85862   4.339   2.386   1.206  0.3103 -0.1374  1.0010
26335SOL    HW185863   4.314   2.466   1.160  0.1624 -1.3112 -1.1307
26335SOL    HW285864   4.291   2.388   1.288 -3.0114  0.0455 -0.7689
26336SOL     OW85865   8.009   5.898  11.379 -0.0994 -0.4348 -0.1090
26336SOL    HW185866   7.931   5.853  11.414  0.2647 -0.0771  1.2022
26336SOL    HW285867   8.083   5.853  11.421  0.3127  0.5776  0.2741
26337SOL     OW85868   4.414   6.205   4.754  0.4246  0.1642  0.3629
26337SOL    HW185869   4.392   6.112   4.753 -1.7921  0.6423  0.2526
26337SOL    HW285870   4.391   6.237   4.667  2.5900  0.5788 -0.1327
26338SOL     OW85871   2.008   9.257   3.252 -0.0531  0.3472  0.2714
26338SOL    HW185872   2.034   9.177   3.299 -0.2731 -0.3314 -0.7341
26338SOL    HW285873   1.993   9.321   3.321 -0.7986 -0.7509  1.1678
26339SOL     OW85874   4.613   7.795   8.962 -0.3183  0.1145  1.1372
26339SOL    HW185875   4.529   7.818   9.001 -1.3065  0.8320 -1.1795
26339SOL    HW285876   4.675   7.857   8.999 -1.0116  0.2409  2.1181
26340SOL     OW85877   6.801   7.849  12.152  0.0503 -0.3687  0.1401
26340SOL    HW185878   6.879   7.799  12.127 -0.3189 -0.8501 -0.0515
26340SOL    HW285879   6.819   7.938  12.123  1.2040 -0.1182  1.4847
26341SOL     OW85880   6.683  12.044   6.997  0.3277 -0.3996  0.9445
26341SOL    HW185881   6.588  12.046   6.999  0.2459  0.9129 -1.1422
26341SOL    HW285882   6.710  12.123   7.046  0.1352  1.4288 -1.6869
26342SOL     OW85883  10.873   4.887  11.552 -0.5641  0.1783 -0.1320
26342SOL    HW185884  10.831   4.825  11.493  0.7118 -0.4437 -0.4207
26342SOL    HW285885  10.942   4.928  11.500  0.9981 -0.8334  1.0465
26343SOL     OW85886  10.778   4.396  11.109 -0.3075  0.6274  0.4336
26343SOL    HW185887  10.816   4.480  11.084  1.8344 -0.5207 -0.4889
26343SOL    HW285888  10.810   4.381  11.198  1.0101 -0.0664 -0.1262
26344SOL     OW85889   2.901  11.640  11.295 -0.3616  0.4895 -0.5234
26344SOL    HW185890   2.995  11.650  11.287 -0.2124  0.0984  0.4849
26344SOL    HW285891   2.864  11.708  11.239  0.5226  1.0629 -0.4304
26345SOL     OW85892   7.331   9.836   0.467  0.5351 -0.3734 -0.3325
26345SOL    HW185893   7.295   9.820   0.379 -0.6891 -1.1057  0.2695
26345SOL    HW285894   7.296   9.765   0.520 -1.4188  1.7618  1.4656
26346SOL     OW85895   1.429   8.171   5.010  0.3575  0.0805  0.0026
26346SOL    HW185896   1.380   8.099   5.051 -0.2273  0.1062 -0.6224
26346SOL    HW285897   1.489   8.201   5.078 -0.3868 -0.0566  0.7442
26347SOL     OW85898   8.882   2.932   7.183 -0.4582  0.2663  0.2511
26347SOL    HW185899   8.860   2.892   7.267 -0.5231 -1.7301 -0.6634
26347SOL    HW285900   8.970   2.900   7.164 -1.7526 -2.2939 -2.0480
26348SOL     OW85901   7.839  10.086   2.093  0.3721 -0.1636 -0.6648
26348SOL    HW185902   7.784  10.043   2.028  1.2391  0.6160 -1.9514
26348SOL    HW285903   7.883  10.156   2.046  3.4829 -1.5244 -0.0746
26349SOL     OW85904   2.800  10.444   6.039  0.0531 -0.2161 -0.3200
26349SOL    HW185905   2.761  10.527   6.068  0.9467  0.0340  0.2012
26349SOL    HW285906   2.891  10.449   6.069  0.1597 -1.3137 -0.4389
26350SOL     OW85907  10.182   6.275   1.153 -0.5147  0.8148  0.5645
26350SOL    HW185908  10.205   6.244   1.241 -1.7480  0.6345  0.8396
26350SOL    HW285909  10.200   6.201   1.096 -0.1400  0.7773  0.7284
26351SOL     OW85910   9.752   2.798   6.351 -0.1090  0.5690  0.1702
26351SOL    HW185911   9.755   2.867   6.284 -2.5731  0.7892  0.1875
26351SOL    HW285912   9.809   2.730   6.317 -0.7509  0.9694 -1.8593
26352SOL     OW85913   8.034   3.736  10.771  0.1618  0.4332  0.3705
26352SOL    HW185914   7.984   3.755  10.692  0.4135  0.3048  0.1766
26352SOL    HW285915   8.125   3.755  10.747  0.4409 -0.9984  0.1509
26353SOL     OW85916   9.908   1.145   4.752 -0.0796  0.1614  0.1856
26353SOL    HW185917   9.982   1.107   4.799 -0.0844 -0.2057 -0.0975
26353SOL    HW285918   9.835   1.140   4.814 -0.0309 -0.1063  0.2248
26354SOL     OW85919   7.430   6.149   1.679 -0.3379 -0.1083 -0.2330
26354SOL    HW185920   7.388   6.121   1.597 -2.0649  1.1980  0.1620
26354SOL    HW285921   7.361   6.192   1.728  1.2612  1.3269  0.8740
26355SOL     OW85922   4.991   5.396   8.861  0.3465 -0.0201  0.2449
26355SOL    HW185923   4.998   5.479   8.909  1.2559  0.7633 -1.1508
26355SOL    HW285924   5.057   5.339   8.902  0.5386  0.3511  0.4532
26356SOL     OW85925   7.265   3.325   3.707  0.3898 -0.7846  0.3696
26356SOL    HW185926   7.315   3.396   3.667  0.4035 -0.1659  1.4554
26356SOL    HW285927   7.283   3.249   3.651  1.0409 -0.1361 -0.3299
26357SOL     OW85928   9.197   9.723   8.519  0.5857  0.2324 -0.2171
26357SOL    HW185929   9.206   9.666   8.596  1.1204  1.2487  0.4901
26357SOL    HW285930   9.256   9.685   8.454 -1.5442 -1.9963 -1.0206
26358SOL     OW85931   1.059   1.697   4.372 -0.5559  0.1867  0.0697
26358SOL    HW185932   1.088   1.608   4.357 -1.2429  0.1281 -0.9647
26358SOL    HW285933   1.062   1.739   4.286 -1.6075  0.7377  0.2792
26359SOL     OW85934  10.349   8.080   1.021 -0.1372  0.0655 -0.5536
26359SOL    HW185935  10.413   8.150   1.037 -0.2629  0.5299 -1.8672
26359SOL    HW285936  10.278   8.125   0.975 -0.2033 -0.9318 -1.4502
26360SOL     OW85937  11.545   3.967   2.203 -0.1913 -0.0506  0.2748
26360SOL    HW185938  11.463   3.919   2.192 -0.2436 -0.3777  1.8660
26360SOL    HW285939  11.531   4.050   2.157 -0.9290 -0.6217 -0.5584
26361SOL     OW85940   3.097   4.897   9.278  0.0451 -0.6436  0.4925
26361SOL    HW185941   3.005   4.890   9.251 -0.4302  0.1210  1.7949
26361SOL    HW285942   3.118   4.811   9.314  0.4454 -1.4162 -1.4849
26362SOL     OW85943  10.997   9.116  11.420  0.0924 -0.6073 -0.5896
26362SOL    HW185944  10.939   9.128  11.495  0.2252 -0.3620 -0.5255
26362SOL    HW285945  10.940   9.121  11.344  0.3186  1.9241 -0.6663
26363SOL     OW85946   4.928   3.225   0.692 -0.1298 -0.2854 -0.4429
26363SOL    HW185947   4.953   3.304   0.740  0.3087 -1.0167  0.5703
26363SOL    HW285948   4.853   3.252   0.639  0.5007  0.9966 -0.7119
26364SOL     OW85949   7.837   0.448   1.112 -0.1689 -0.2515  0.4362
26364SOL    HW185950   7.902   0.502   1.069 -0.7340  1.4391  1.5961
26364SOL    HW285951   7.850   0.464   1.206  0.0203 -2.6107  0.8888
26365SOL     OW85952   2.831   0.264   1.987  0.3386 -0.3026 -0.3237
26365SOL    HW185953   2.795   0.352   1.999 -1.7569 -1.2591  0.9342
26365SOL    HW285954   2.892   0.273   1.913  0.5004  2.2642  0.0383
26366SOL     OW85955   0.850   2.380   2.843  0.3899 -0.3917  0.2787
26366SOL    HW185956   0.779   2.426   2.888  0.1299 -0.0926 -0.4181
26366SOL    HW285957   0.930   2.415   2.882  0.1946  0.5960 -0.1608
26367SOL     OW85958  11.644   3.523  12.512  0.2117  0.6073  0.4783
26367SOL    HW185959  11.642   3.527  12.607 -0.2212  0.5466  0.4752
26367SOL    HW285960  11.563   3.566  12.484 -0.1799 -0.2847  0.1763
26368SOL     OW85961   2.994   5.305   1.635 -0.2274 -0.1230  0.4723
26368SOL    HW185962   2.946   5.384   1.609 -2.4399 -0.5596  2.7614
26368SOL    HW285963   3.006   5.314   1.730  2.1562 -1.2193  0.3506
26369SOL     OW85964   7.133   6.297   3.200 -0.5146  0.2856 -0.3048
26369SOL    HW185965   7.103   6.261   3.283 -0.8069  0.1096 -0.4832
26369SOL    HW285966   7.080   6.252   3.134  0.3970 -0.3109 -0.6575
26370SOL     OW85967   8.781   9.969   0.935  0.3119 -0.2641 -0.2134
26370SOL    HW185968   8.693   9.994   0.907  0.2090 -1.2514 -0.8236
26370SOL    HW285969   8.771   9.948   1.028  0.2990  1.3846  0.1888
26371SOL     OW85970   7.210  12.011   2.281 -0.2601 -0.5223  0.2191
26371SOL    HW185971   7.131  11.995   2.229  1.0883 -0.8362 -1.8712
26371SOL    HW285972   7.191  11.974   2.367 -2.5207 -0.1888 -0.0833
26372SOL     OW85973   7.689   9.039   1.268  0.1835 -0.7357  0.0645
26372SOL    HW185974   7.721   8.950   1.273 -1.2830 -1.3124 -0.2348
26372SOL    HW285975   7.687   9.059   1.174 -0.5823 -0.8325  0.0486
26373SOL     OW85976   3.372   0.676  10.047  0.0312  0.3682  0.3532
26373SOL    HW185977   3.417   0.658  10.129 -0.1690 -1.2942  0.1317
26373SOL    HW285978   3.442   0.688   9.983  0.2801 -3.2542 -0.2107
26374SOL     OW85979  11.491  10.922   8.635 -0.2818 -0.1475 -0.1959
26374SOL    HW185980  11.574  10.955   8.601 -1.3805  0.4925 -2.5174
26374SOL    HW285981  11.435  10.999   8.640 -1.0384 -0.7213  0.3871
26375SOL     OW85982   2.554   9.653   1.663 -0.2251  0.7837 -0.0496
26375SOL    HW185983   2.538   9.656   1.757 -0.9825  0.5158 -0.1651
26375SOL    HW285984   2.593   9.738   1.643 -0.2540  0.9249  0.4686
26376SOL     OW85985   1.561   9.588   1.340 -0.4287 -0.0093 -0.7708
26376SOL    HW185986   1.505   9.650   1.386 -0.4224 -0.4684 -0.1241
26376SOL    HW285987   1.506   9.511   1.328 -0.7091  0.4175 -2.3351
26377SOL     OW85988   8.022   8.893   0.415 -0.1865  0.7317 -0.4623
26377SOL    HW185989   8.117   8.900   0.417  0.0640 -1.8169 -0.2703
26377SOL    HW285990   8.003   8.839   0.338 -1.3937  0.2504  0.1439
26378SOL     OW85991   9.489   5.271   2.248 -0.5297 -0.0909 -0.6065
26378SOL    HW185992   9.464   5.359   2.277 -1.1512  0.0716 -1.5944
26378SOL    HW285993   9.429   5.252   2.175 -0.2013 -1.2106 -0.6002
26379SOL     OW85994   6.769  10.619   5.843 -0.3095  0.0291  0.5231
26379SOL    HW185995   6.709  10.629   5.916 -1.2208  1.6781 -0.3898
26379SOL    HW285996   6.715  10.590   5.770  0.3511 -0.3341  0.1616
26380SOL     OW85997   1.416  11.600  11.111  0.4202  0.1385  0.5347
26380SOL    HW185998   1.394  11.540  11.181  0.5434  0.2313  0.6544
26380SOL    HW285999   1.332  11.629  11.076  0.3619 -0.0566  0.5168
26381SOL     OW86000   3.252   7.178   5.473  0.0907 -0.2103 -0.0836
26381SOL    HW186001   3.183   7.111   5.472  0.1069 -0.2444 -1.6320
26381SOL    HW286002   3.210   7.255   5.511 -0.5527 -0.4763 -0.2437
26382SOL     OW86003  12.277   7.436   7.488  0.0814  0.1790  0.1321
26382SOL    HW186004  12.282   7.500   7.417 -1.2342 -1.6145 -1.6940
26382SOL    HW286005  12.368   7.426   7.517  0.4331  2.1505 -0.1377
26383SOL     OW86006  10.034   9.655   0.420  0.0462 -0.2561  0.1168
26383SOL    HW186007  10.045   9.569   0.460 -1.5360 -0.5083  0.0928
26383SOL    HW286008  10.016   9.636   0.328  3.3739  0.3037 -0.7920
26384SOL     OW86009   2.374   7.533   7.407  0.6677 -0.1811  0.2705
26384SOL    HW186010   2.407   7.622   7.396 -0.1330  0.2696  1.3235
26384SOL    HW286011   2.337   7.510   7.322 -1.5323  1.5320  0.6978
26385SOL     OW86012   2.755   9.617   7.658 -0.1212 -0.2556 -0.2829
26385SOL    HW186013   2.801   9.617   7.742  0.5123 -2.5941 -0.5611
26385SOL    HW286014   2.814   9.661   7.598 -0.3453  0.9529  0.3507
26386SOL     OW86015  11.143   1.319   1.623  0.4013 -0.0240 -0.4164
26386SOL    HW186016  11.236   1.342   1.629  0.5486 -0.6556 -0.1925
26386SOL    HW286017  11.143   1.224   1.610 -0.2456 -0.2391  0.9918
26387SOL     OW86018  12.431   4.861   9.828 -0.0843 -0.0939  0.0919
26387SOL    HW186019  12.405   4.769   9.822 -1.6882  0.1056  2.3368
26387SOL    HW286020  12.504   4.862   9.890 -0.0161  0.1417  0.0117
26388SOL     OW86021   2.212   5.623   5.608  0.4125 -0.8474  0.0000
26388SOL    HW186022   2.232   5.533   5.632 -0.0969 -1.2113 -0.9177
26388SOL    HW286023   2.209   5.623   5.513  1.0192  0.2757 -0.0477
26389SOL     OW86024   1.560   4.672   5.249  0.3451 -0.0073 -0.3731
26389SOL    HW186025   1.608   4.752   5.227 -1.4327  1.2349  0.0478
26389SOL    HW286026   1.599   4.643   5.332  1.1550  0.2809 -0.6435
26390SOL     OW86027   0.397   5.024   2.253  0.1622 -0.5203  0.1042
26390SOL    HW186028   0.425   4.994   2.340 -2.1359  0.0119  1.1158
26390SOL    HW286029   0.312   5.066   2.269  0.6893  1.5730 -2.0935
26391SOL     OW86030   0.973   4.053  10.585 -0.0776 -0.0950  0.3391
26391SOL    HW186031   1.011   4.030  10.500 -0.6988 -1.3520  0.3825
26391SOL    HW286032   1.047   4.085  10.636  0.1942  1.3547 -0.8855
26392SOL     OW86033  12.279  11.041  10.890  0.5148 -0.2322  0.2688
26392SOL    HW186034  12.316  10.956  10.916  0.3410 -0.6280 -0.7475
26392SOL    HW286035  12.186  11.024  10.877  0.6614 -0.1715 -1.0388
26393SOL     OW86036   7.142  10.096   0.908  0.0453  0.0910  0.1724
26393SOL    HW186037   7.147  10.003   0.929 -1.1057  0.3808  1.9175
26393SOL    HW286038   7.131  10.139   0.993  1.0837  1.8703 -0.5520
26394SOL     OW86039   1.798  10.670   2.028 -0.5149  0.6736  0.4388
26394SOL    HW186040   1.735  10.600   2.010 -0.3547  0.1358  1.7935
26394SOL    HW286041   1.814  10.712   1.944 -3.4130  1.4455  0.1658
26395SOL     OW86042  10.210   3.178  11.995 -0.1264 -0.1008 -0.0252
26395SOL    HW186043  10.165   3.256  11.964 -0.0465  0.3711  1.0006
26395SOL    HW286044  10.146   3.107  11.982  0.1238 -0.0536 -1.7877
26396SOL     OW86045  12.368  11.962   2.169 -0.2339 -0.1195 -0.2205
26396SOL    HW186046  12.360  12.029   2.237  1.1994  1.1204 -1.1903
26396SOL    HW286047  12.430  11.898   2.205  1.1142  0.9260 -0.5910
26397SOL     OW86048  11.430   6.389   8.695 -0.6424 -0.1531  0.4289
26397SOL    HW186049  11.475   6.306   8.674 -1.4009 -1.0043  2.0206
26397SOL    HW286050  11.352   6.388   8.639 -0.4716 -0.3511  0.1885
26398SOL     OW86051   9.119   6.840  10.841  0.7148 -0.4817 -0.6844
26398SOL    HW186052   9.065   6.906  10.796 -1.0813  0.1751  2.1181
26398SOL    HW286053   9.194   6.889  10.873 -0.6615  0.3811  1.4700
26399SOL     OW86054   6.697   3.379   7.473  0.1553  0.0131  0.0859
26399SOL    HW186055   6.777   3.352   7.519 -0.1366 -1.4096 -0.1966
26399SOL    HW286056   6.719   3.465   7.436  1.3647 -0.1024  0.4803
26400SOL     OW86057   9.444   1.096   5.590 -0.6335 -0.2666  0.1684
26400SOL    HW186058   9.362   1.103   5.541  0.1401  2.3625 -0.9007
26400SOL    HW286059   9.482   1.013   5.561 -2.6157 -1.2704  0.2748
26401SOL     OW86060   6.477   6.912   5.533 -0.2509  0.3544 -0.1134
26401SOL    HW186061   6.470   6.817   5.524  2.3605 -0.0254  0.9627
26401SOL    HW286062   6.546   6.925   5.598  0.9566  2.9814 -1.7339
26402SOL     OW86063   1.509   7.133  11.584  0.1576 -0.3326 -0.3624
26402SOL    HW186064   1.501   7.041  11.611 -0.0816 -0.1782  0.0999
26402SOL    HW286065   1.434   7.176  11.624  0.9454  0.3132  0.4621
26403SOL     OW86066  11.544   8.500  11.150 -0.0562  0.5897  0.6554
26403SOL    HW186067  11.485   8.429  11.173 -0.6935  0.5513 -0.9974
26403SOL    HW286068  11.625   8.480  11.198 -1.0900  0.2430  2.3519
26404SOL     OW86069   0.822   8.781   9.183 -0.0446  0.0404  0.4360
26404SOL    HW186070   0.745   8.759   9.234  1.1567  0.0424  2.3512
26404SOL    HW286071   0.860   8.696   9.159  1.1676 -0.0269  2.4270
26405SOL     OW86072   4.216   3.116   0.927 -0.6959 -0.3271  0.6081
26405SOL    HW186073   4.279   3.044   0.935  0.5573  0.6431 -0.0849
26405SOL    HW286074   4.221   3.162   1.010 -0.9288 -0.5854  0.7672
26406SOL     OW86075   6.407   3.488   6.548 -0.4843 -0.6913  0.6208
26406SOL    HW186076   6.421   3.431   6.473 -1.6160 -0.8930  0.5596
26406SOL    HW286077   6.475   3.555   6.539 -0.0488 -1.2089 -0.0888
26407SOL     OW86078   0.444   6.324   8.040 -0.5468  0.4496  1.0463
26407SOL    HW186079   0.506   6.258   8.072 -0.4577  0.7557  1.5230
26407SOL    HW286080   0.359   6.292   8.069 -0.5048  0.5371  1.2703
26408SOL     OW86081   4.131   7.096  11.467  0.1846 -0.3963  0.6265
26408SOL    HW186082   4.174   7.116  11.384 -1.3222 -1.1786 -0.3764
26408SOL    HW286083   4.127   7.181  11.512  1.1558  0.0099 -0.0044
26409SOL     OW86084   5.371   8.766   9.134  0.4089 -0.5049  0.5543
26409SOL    HW186085   5.390   8.859   9.129  1.0303 -0.6790 -0.4259
26409SOL    HW286086   5.316   8.748   9.059  0.0492 -0.8804  0.9014
26410SOL     OW86087  10.590   8.727   6.021 -0.0185 -0.1935  0.5031
26410SOL    HW186088  10.640   8.806   6.040  0.7599 -0.2902 -0.9829
26410SOL    HW286089  10.580   8.727   5.926  0.0724 -1.9100  0.4571
26411SOL     OW86090   4.609   0.727   7.689 -0.5971  0.0288  0.2981
26411SOL    HW186091   4.662   0.798   7.654  0.8577 -0.1295  2.0082
26411SOL    HW286092   4.667   0.650   7.684 -1.2167 -0.4800  0.8195
26412SOL     OW86093   9.395   2.620   0.237 -0.6075 -0.0798  0.2781
26412SOL    HW186094   9.476   2.650   0.196 -0.2913  0.4740  1.2762
26412SOL    HW286095   9.399   2.654   0.327 -0.8911 -1.9342  1.0458
26413SOL     OW86096   4.791   5.263   0.857  0.3175  0.1282 -0.0748
26413SOL    HW186097   4.704   5.277   0.820 -0.3373 -0.4619  1.1967
26413SOL    HW286098   4.829   5.194   0.803  0.0406  0.4316 -0.6722
26414SOL     OW86099   8.583   2.672   3.337  0.4018 -0.6528  0.1936
26414SOL    HW186100   8.514   2.618   3.375  0.1911  0.1776  1.0310
26414SOL    HW286101   8.540   2.717   3.264  0.1413 -0.3821  0.5123
26415SOL     OW86102   8.213   9.794   7.694 -0.4836 -0.3544 -0.2422
26415SOL    HW186103   8.121   9.820   7.698 -0.1298  0.9285  0.4327
26415SOL    HW286104   8.226   9.764   7.604 -1.6189 -0.8242 -0.2684
26416SOL     OW86105   1.017   7.094   1.807  0.1186  0.7099  0.1636
26416SOL    HW186106   1.023   7.002   1.782  0.7759  0.3646  1.5013
26416SOL    HW286107   0.994   7.092   1.900  0.4558  1.8918  0.2876
26417SOL     OW86108   4.958   6.498  11.300 -0.1609 -0.0354 -0.4828
26417SOL    HW186109   4.969   6.496  11.205  0.9494  1.8382 -0.4296
26417SOL    HW286110   5.042   6.469  11.335 -0.7336 -1.2215 -0.0503
26418SOL     OW86111   8.900   0.064   2.598 -0.5136 -0.4289  0.1508
26418SOL    HW186112   8.974   0.118   2.624  0.6309 -2.2670  0.9818
26418SOL    HW286113   8.871   0.100   2.515  0.5956  1.0316  0.3622
26419SOL     OW86114   2.396  10.954   7.038 -0.2553 -0.2548 -0.4635
26419SOL    HW186115   2.347  10.876   7.013  0.4350 -1.1117  0.7633
26419SOL    HW286116   2.420  10.995   6.955 -2.5579 -0.0809 -1.1002
26420SOL     OW86117   5.105   1.968   8.495  0.3999  0.1555 -0.7879
26420SOL    HW186118   5.068   1.936   8.412  1.1360  0.3129 -1.1835
26420SOL    HW286119   5.190   1.925   8.502 -0.5269 -1.5051  0.9581
26421SOL     OW86120   2.434  10.961   2.311 -0.1794  0.0859 -0.5972
26421SOL    HW186121   2.527  10.985   2.310 -0.2806  0.5782  0.3442
26421SOL    HW286122   2.424  10.906   2.389 -1.3618  3.1610  1.6228
26422SOL     OW86123   8.437   1.695   8.569 -0.1817  0.3355  0.1539
26422SOL    HW186124   8.463   1.623   8.511 -0.3246 -0.2728  0.8281
26422SOL    HW286125   8.508   1.759   8.560 -0.1645  0.2177 -0.6318
26423SOL     OW86126   7.744   3.176   6.332  0.5386  0.4869 -0.4626
26423SOL    HW186127   7.691   3.248   6.366  0.9423  0.1647  0.9282
26423SOL    HW286128   7.693   3.097   6.352  1.1084  0.2427  0.0532
26424SOL     OW86129   5.946   2.401   2.124 -0.3404  0.5325  0.4572
26424SOL    HW186130   5.939   2.347   2.203  0.1440 -1.1329 -0.5723
26424SOL    HW286131   6.040   2.421   2.117  0.1674 -1.9844 -1.2856
26425SOL     OW86132   6.397   9.180   2.263  0.7783 -0.4155 -0.2711
26425SOL    HW186133   6.423   9.148   2.349 -0.2288  1.7798  0.9212
26425SOL    HW286134   6.444   9.263   2.253 -1.6083  1.0208 -0.3370
26426SOL     OW86135   4.586   4.772   9.424  0.3324  0.1285 -0.8038
26426SOL    HW186136   4.615   4.686   9.394 -0.8249 -0.1913 -1.0744
26426SOL    HW286137   4.491   4.770   9.413  0.3346  1.6127 -1.2378
26427SOL     OW86138   0.290   9.333   0.805  0.6021 -0.4661  0.1642
26427SOL    HW186139   0.330   9.331   0.719  2.4651 -2.3901  0.9747
26427SOL    HW286140   0.197   9.320   0.788  0.7560  0.4303 -1.5878
26428SOL     OW86141   7.108   7.080  11.117 -0.0698  0.0055 -0.4153
26428SOL    HW186142   7.170   7.145  11.084 -0.7431  0.7236 -0.3034
26428SOL    HW286143   7.080   7.032  11.038 -0.2525  0.4604 -0.6310
26429SOL     OW86144   0.688   9.011   0.290  0.0143  0.8883  0.8842
26429SOL    HW186145   0.636   9.090   0.301  0.3322  1.2666 -0.2215
26429SOL    HW286146   0.687   8.969   0.376 -2.3833  0.7133  0.8504
26430SOL     OW86147  11.501   1.628   0.701  0.4826  0.5187 -0.1955
26430SOL    HW186148  11.435   1.567   0.734 -0.5254  1.6514 -0.0411
26430SOL    HW286149  11.452   1.686   0.642  1.5860  0.6409 -1.0228
26431SOL     OW86150  12.423   3.496   2.897  0.1425 -0.5499 -0.0375
26431SOL    HW186151  12.400   3.424   2.838 -1.4347 -0.2606  0.1732
26431SOL    HW286152  12.431   3.455   2.983 -1.2699 -0.4248  0.1744
26432SOL     OW86153   7.721   6.822   6.502  0.2828  0.1399  0.6395
26432SOL    HW186154   7.647   6.780   6.546 -0.6688  2.2104  1.1144
26432SOL    HW286155   7.780   6.749   6.480 -1.8126 -1.5682  0.3257
26433SOL     OW86156  10.275   7.984   5.726  0.0006  0.0240 -0.3289
26433SOL    HW186157  10.244   7.934   5.801 -0.0583  0.4825 -0.0393
26433SOL    HW286158  10.235   8.071   5.737  1.7285  0.7915  0.3183
26434SOL     OW86159  11.521   2.267   3.891 -0.2024 -0.0608 -0.3121
26434SOL    HW186160  11.588   2.219   3.843  0.0041  1.2617 -1.3942
26434SOL    HW286161  11.494   2.207   3.960 -0.5678 -2.0626 -2.1025
26435SOL     OW86162  11.399   9.760   8.488 -0.0495  0.0316  0.2636
26435SOL    HW186163  11.337   9.833   8.485  1.7125  1.6332  0.4561
26435SOL    HW286164  11.460   9.778   8.417 -0.4738 -2.2032 -0.7522
26436SOL     OW86165   0.958   9.213   8.684  0.3638 -0.4533  0.1124
26436SOL    HW186166   0.872   9.232   8.720  0.4688 -1.0313  0.6945
26436SOL    HW286167   0.943   9.144   8.620  0.2590  0.1821 -0.5759
26437SOL     OW86168   3.381  11.560   2.356 -0.2632 -0.0449  0.0862
26437SOL    HW186169   3.474  11.572   2.337 -0.2913  3.3068  1.4099
26437SOL    HW286170   3.378  11.501   2.431  0.7811 -0.3152 -0.0819
26438SOL     OW86171   4.469   6.142   7.156 -0.9471  0.2176  0.5811
26438SOL    HW186172   4.545   6.100   7.194 -0.4372 -1.1688 -1.7541
26438SOL    HW286173   4.475   6.233   7.183  1.7235  0.2084  0.2112
26439SOL     OW86174  10.833   9.978   2.549 -0.4081  0.4750 -0.1663
26439SOL    HW186175  10.757  10.035   2.548  0.2800  1.4447 -1.4475
26439SOL    HW286176  10.897  10.023   2.603  0.1201  0.9238 -1.1391
26440SOL     OW86177   4.243   8.288   8.427  0.5789  0.4925  0.0970
26440SOL    HW186178   4.322   8.258   8.472 -0.0317  0.2302  1.0068
26440SOL    HW286179   4.201   8.207   8.396  0.2688  0.5800  0.2884
26441SOL     OW86180   5.119   8.009  11.235 -0.2402  0.0621  0.0767
26441SOL    HW186181   5.154   8.095  11.257 -0.4597 -0.0172  0.7676
26441SOL    HW286182   5.051   8.026  11.169 -0.3007  0.4198  0.2301
26442SOL     OW86183   3.670  11.389   6.242 -0.0737  0.9187  0.2156
26442SOL    HW186184   3.578  11.398   6.266 -0.5441 -0.6717 -0.8125
26442SOL    HW286185   3.710  11.344   6.316 -0.1537  1.4543  0.5893
26443SOL     OW86186   7.929   4.378   4.914 -0.1438  0.4631 -0.5646
26443SOL    HW186187   7.838   4.403   4.933  0.0356 -0.4293  1.9413
26443SOL    HW286188   7.980   4.457   4.933 -0.1656  0.1241  1.1237
26444SOL     OW86189   9.142   2.290   4.811 -0.0572 -0.1297 -0.3880
26444SOL    HW186190   9.199   2.232   4.861  0.1794  0.5921  0.1900
26444SOL    HW286191   9.054   2.267   4.840  0.0058 -0.5038 -0.4874
26445SOL     OW86192   6.747   0.944   5.653  0.6730  0.2294 -0.4250
26445SOL    HW186193   6.769   0.963   5.745  0.1556 -1.4420  0.0810
26445SOL    HW286194   6.682   1.010   5.630  1.2450  1.0371  0.2077
26446SOL     OW86195   0.720   6.574   7.559 -0.1924 -0.4446 -0.4738
26446SOL    HW186196   0.727   6.565   7.464 -0.0077 -1.9186 -0.3430
26446SOL    HW286197   0.807   6.552   7.592 -0.3576 -0.3204  0.0580
26447SOL     OW86198   0.349  10.925  12.314  0.2869  0.8101  0.2290
26447SOL    HW186199   0.345  11.005  12.261 -0.5554  0.8315  0.3149
26447SOL    HW286200   0.366  10.855  12.251 -1.1019  0.7793 -0.1447
26448SOL     OW86201   8.254   4.994   4.425  0.0860 -0.0929 -0.5574
26448SOL    HW186202   8.307   5.065   4.390 -0.1766  0.4084  0.0616
26448SOL    HW286203   8.316   4.922   4.438  0.4291  0.1624 -0.7589
26449SOL     OW86204   5.943   4.724  11.123 -0.4239  0.1510  0.1841
26449SOL    HW186205   6.018   4.681  11.165 -0.1271  0.6148  0.1391
26449SOL    HW286206   5.980   4.769  11.047 -0.6412  0.8822  0.4969
26450SOL     OW86207   1.797   1.526   5.425 -0.6583  0.6437 -0.5325
26450SOL    HW186208   1.807   1.621   5.425 -1.7197  0.7745 -0.1865
26450SOL    HW286209   1.709   1.512   5.390 -0.8537 -0.1649  0.2476
26451SOL     OW86210   9.048   5.373  11.577  0.1143  0.6429  0.3557
26451SOL    HW186211   9.020   5.458  11.543 -1.2684  0.6931  1.5348
26451SOL    HW286212   8.989   5.310  11.537 -0.0838  0.4639  0.9122
26452SOL     OW86213   5.762   8.612   2.778 -0.3536 -0.0841 -0.3000
26452SOL    HW186214   5.763   8.649   2.689  0.3220 -0.0766 -0.2930
26452SOL    HW286215   5.689   8.657   2.821  1.5128  2.6854  0.2814
26453SOL     OW86216  12.534   1.021   9.125  0.3855  0.1328  0.0909
26453SOL    HW186217  12.461   0.964   9.101  0.7100 -0.8266  1.3005
26453SOL    HW286218  12.496   1.086   9.184  0.5837 -0.6596  1.1102
26454SOL     OW86219   9.784   9.757   1.073  0.3485  0.2405  0.5415
26454SOL    HW186220   9.825   9.740   1.157  0.0216  2.1780  1.1357
26454SOL    HW286221   9.710   9.815   1.093  0.2869  0.7694 -1.0583
26455SOL     OW86222  12.313  11.697  10.048 -0.0528  0.1690  0.0694
26455SOL    HW186223  12.266  11.781  10.044  0.4656  0.4706  0.2097
26455SOL    HW286224  12.401  11.720  10.078  0.1659 -0.4004 -0.1175
26456SOL     OW86225  10.427  12.065   9.103  0.5542  0.3658 -0.3450
26456SOL    HW186226  10.377  11.987   9.082  2.1079 -0.5448 -0.7999
26456SOL    HW286227  10.427  12.069   9.199 -0.8658  0.7344 -0.3395
26457SOL     OW86228   0.100   8.575   3.283  0.3604 -0.3508  0.0086
26457SOL    HW186229   0.011   8.601   3.260  1.0049  0.9500 -1.1192
26457SOL    HW286230   0.157   8.637   3.237  1.8965 -1.8769 -0.2850
26458SOL     OW86231  11.797   7.716   4.990 -0.3909  0.1153  0.1411
26458SOL    HW186232  11.715   7.717   4.940 -0.6350 -1.1086  0.4930
26458SOL    HW286233  11.791   7.638   5.045  0.6015  0.5314  0.8753
26459SOL     OW86234  12.575  12.269  10.861 -0.0936 -0.0482 -0.3478
26459SOL    HW186235  12.598  12.207  10.792  0.0418 -1.0487  0.5715
26459SOL    HW286236  12.541  12.345  10.814 -0.5421 -0.9213 -1.4980
26460SOL     OW86237   8.122   5.841   8.939  0.4685  0.0634  0.5918
26460SOL    HW186238   8.138   5.935   8.938 -0.5262  0.2799 -1.8296
26460SOL    HW286239   8.032   5.832   8.908  0.9618 -1.7278 -0.4657
26461SOL     OW86240   9.615  10.028   5.277  0.3223 -0.4824 -0.0800
26461SOL    HW186241   9.550  10.098   5.273  0.8037  0.2881  2.9061
26461SOL    HW286242   9.682  10.055   5.214 -0.9324  0.0998 -1.2305
26462SOL     OW86243   2.164   9.059   5.714  0.5787 -0.7440  0.1459
26462SOL    HW186244   2.198   9.003   5.644  0.6113 -0.8793  0.2685
26462SOL    HW286245   2.242   9.104   5.748  0.2063  1.8788 -2.0882
26463SOL     OW86246   3.132   5.528  11.997 -0.5455  0.0248  0.2314
26463SOL    HW186247   3.132   5.436  12.022 -0.3572  0.0714  0.4005
26463SOL    HW286248   3.062   5.535  11.931 -3.2838  0.5062  2.9614
26464SOL     OW86249   5.126   2.407   0.792 -0.4116  0.5013  0.9050
26464SOL    HW186250   5.096   2.337   0.851 -1.4975 -0.5712 -0.8498
26464SOL    HW286251   5.060   2.412   0.724  0.6444  1.9354 -0.0760
26465SOL     OW86252  10.603   8.653  12.308 -0.0258  0.1369  0.2057
26465SOL    HW186253  10.661   8.715  12.265 -2.7650  2.5362 -0.4139
26465SOL    HW286254  10.640   8.641  12.395  1.5141  1.3324 -0.2462
26466SOL     OW86255   7.961   4.828   5.069  0.5186 -0.4147  0.3712
26466SOL    HW186256   7.975   4.740   5.035  2.0060  0.0791 -0.3521
26466SOL    HW286257   7.968   4.885   4.993  0.8507  0.4484  1.0312
26467SOL     OW86258  10.253   8.502   8.270 -0.2803 -0.1077 -0.3136
26467SOL    HW186259  10.300   8.585   8.282 -0.2728  0.0307 -1.2410
26467SOL    HW286260  10.178   8.508   8.330  0.5996 -0.1262  0.8328
26468SOL     OW86261   6.372   9.613  11.150  0.1339  0.7581 -0.2358
26468SOL    HW186262   6.413   9.691  11.186 -1.4070  2.2078 -1.4305
26468SOL    HW286263   6.288   9.644  11.115  0.4579 -0.9481 -2.8199
26469SOL     OW86264  11.188   7.166   5.907  0.0067 -0.1170  0.0072
26469SOL    HW186265  11.106   7.120   5.893 -0.0274  0.2079 -0.9617
26469SOL    HW286266  11.244   7.138   5.835  0.5627  0.0716  0.3604
26470SOL     OW86267   3.870   9.794   9.406  0.0382  0.1345  0.0541
26470SOL    HW186268   3.873   9.836   9.492 -1.8018 -0.7617  0.6081
26470SOL    HW286269   3.937   9.726   9.409 -1.8446 -1.7861  1.8883
26471SOL     OW86270   0.661   8.111   3.932 -0.4217  0.4214 -0.3960
26471SOL    HW186271   0.711   8.186   3.963  2.2524 -0.9835 -0.9581
26471SOL    HW286272   0.666   8.116   3.836 -0.9761 -0.0168 -0.4565
26472SOL     OW86273   5.084  10.368   7.809  0.7337 -0.3188 -0.1830
26472SOL    HW186274   5.050  10.303   7.748  0.8858 -0.3757 -0.2076
26472SOL    HW286275   5.120  10.437   7.753  0.3841 -0.1120 -0.1581
26473SOL     OW86276   1.187  11.698   8.784 -0.5525 -0.0101 -0.1928
26473SOL    HW186277   1.117  11.751   8.823 -0.6926  0.7312 -1.4081
26473SOL    HW286278   1.231  11.757   8.723  0.3601 -0.8300 -0.3491
26474SOL     OW86279  10.324   0.746   9.288 -0.0174 -0.8627  0.1740
26474SOL    HW186280  10.244   0.703   9.257  0.7651 -2.2475 -0.0063
26474SOL    HW286281  10.319   0.739   9.384 -0.6143  0.0395  0.2251
26475SOL     OW86282   2.494   4.969   7.495  0.0360  0.6133 -0.3303
26475SOL    HW186283   2.585   4.951   7.469 -0.5195 -0.2140 -1.8238
26475SOL    HW286284   2.441   4.914   7.437 -1.4141  0.6762  0.8746
26476SOL     OW86285   6.768   4.089   0.104 -0.5469  0.1330 -0.2456
26476SOL    HW186286   6.728   4.005   0.128  0.5330 -0.8779 -1.7490
26476SOL    HW286287   6.736   4.106   0.016 -0.1144  0.8848 -0.2623
26477SOL     OW86288   7.841   7.642   7.908 -0.1784  0.4634 -0.2950
26477SOL    HW186289   7.766   7.699   7.889  0.7413  2.5458  1.8901
26477SOL    HW286290   7.801   7.560   7.938 -1.6656  1.6799  1.2804
26478SOL     OW86291   3.009   3.748   5.095 -0.1637 -0.1344 -0.4420
26478SOL    HW186292   3.084   3.799   5.063  1.2920 -2.0129 -0.2645
26478SOL    HW286293   2.976   3.797   5.170  0.7336  0.8808 -0.6883
26479SOL     OW86294  11.135   5.643   5.799 -0.5618 -0.2994 -0.3666
26479SOL    HW186295  11.217   5.626   5.846 -0.2871  0.2279 -0.6469
26479SOL    HW286296  11.111   5.558   5.762 -1.2423 -0.9348  1.4197
26480SOL     OW86297   9.459   3.883  10.609  0.2261  0.0886 -0.2004
26480SOL    HW186298   9.514   3.935  10.668 -1.5223 -0.0872  1.7225
26480SOL    HW286299   9.387   3.942  10.586  0.5694 -0.0515 -1.7299
26481SOL     OW86300  11.589   3.973   7.765 -0.0288  0.1929  0.0173
26481SOL    HW186301  11.639   3.993   7.844 -0.6625 -1.4550  0.8777
26481SOL    HW286302  11.613   4.042   7.704  1.7993  0.5439  1.0570
26482SOL     OW86303   7.405   5.516   7.435  0.0867  0.0359  0.7575
26482SOL    HW186304   7.458   5.563   7.371  0.1051 -1.3945 -0.3345
26482SOL    HW286305   7.389   5.579   7.505  3.6065  0.4205  1.3967
26483SOL     OW86306   0.168  12.195   2.181 -0.1564 -0.0097  0.2807
26483SOL    HW186307   0.264  12.195   2.179 -0.0865  2.3527 -0.0520
26483SOL    HW286308   0.143  12.123   2.124  1.4469  0.0883 -0.6176
26484SOL     OW86309   4.162   5.311   5.702  0.0657 -0.3380 -0.2200
26484SOL    HW186310   4.108   5.355   5.637  1.1983 -0.0099 -0.9733
26484SOL    HW286311   4.242   5.286   5.655  1.1624  0.4099  1.1480
26485SOL     OW86312   3.087   4.638   2.869 -0.4050  0.2897 -0.0875
26485SOL    HW186313   3.163   4.594   2.832  0.6261 -0.7422  2.9511
26485SOL    HW286314   3.016   4.622   2.807  1.4098 -0.2696 -2.1150
26486SOL     OW86315   6.754  11.538   7.104 -0.0931  0.4883  0.4480
26486SOL    HW186316   6.766  11.522   7.198  0.7013  2.2713  0.7012
26486SOL    HW286317   6.830  11.591   7.080  0.6391 -1.3733 -1.6112
26487SOL     OW86318   0.868  12.033  11.515  0.0039 -0.5884  0.1048
26487SOL    HW186319   0.866  12.086  11.594  1.3188  1.0170 -0.8569
26487SOL    HW286320   0.788  11.981  11.518 -2.7856  3.2794 -0.0581
26488SOL     OW86321   1.344   8.620   8.545 -0.2137  0.1507 -0.6386
26488SOL    HW186322   1.434   8.649   8.536 -0.6072  0.7878 -3.3965
26488SOL    HW286323   1.350   8.531   8.578  1.4220  0.1358 -0.9308
26489SOL     OW86324   4.556   5.440   8.512 -0.2595 -0.3179  0.3570
26489SOL    HW186325   4.634   5.384   8.514 -0.3467 -0.4338  0.5758
26489SOL    HW286326   4.512   5.416   8.430  1.5530  1.9946 -1.4288
26490SOL     OW86327   8.076   7.006  11.912  0.7325  0.5564 -0.5916
26490SOL    HW186328   7.981   7.015  11.899  0.5982 -0.7709 -0.6426
26490SOL    HW286329   8.085   6.970  12.000  1.0602 -1.1731 -1.2837
26491SOL     OW86330   6.948  10.747   6.242  0.1220  0.1500  0.3391
26491SOL    HW186331   6.903  10.831   6.234  0.2462  0.3165  1.2797
26491SOL    HW286332   6.917  10.711   6.326  0.9739 -0.1846  0.5183
26492SOL     OW86333   0.590   8.100   3.599  0.0653  0.9390 -0.1520
26492SOL    HW186334   0.607   8.094   3.505 -0.8589 -1.9371 -0.2266
26492SOL    HW286335   0.556   8.188   3.611 -0.4265  1.1707 -2.6412
26493SOL     OW86336  11.944  10.116   0.671 -0.6814  0.3679  0.1643
26493SOL    HW186337  11.980  10.204   0.660 -2.9795  1.5660  1.4703
26493SOL    HW286338  11.973  10.069   0.593  3.4335  1.1564  0.9498
26494SOL     OW86339  10.407  10.009   5.876 -0.0095  0.3978  0.0944
26494SOL    HW186340  10.394  10.100   5.900  1.9862  0.6391  0.3994
26494SOL    HW286341  10.359   9.960   5.943 -4.0101  1.1169 -1.9007
26495SOL     OW86342   6.824   5.525   8.042  0.5466 -0.2093 -0.1398
26495SOL    HW186343   6.839   5.438   8.078  0.5390 -0.1597 -0.0165
26495SOL    HW286344   6.729   5.537   8.048  0.6742  0.3311  1.0640
26496SOL     OW86345   4.886   3.100   6.348 -0.6210 -0.1783  0.0683
26496SOL    HW186346   4.967   3.104   6.399 -0.4195  2.1237 -0.3343
26496SOL    HW286347   4.914   3.071   6.261  0.0256  1.7280 -0.4134
26497SOL     OW86348  11.490   8.482   6.006 -0.0364  0.0640 -0.0844
26497SOL    HW186349  11.508   8.390   5.987 -2.2054 -1.1454  2.8644
26497SOL    HW286350  11.408   8.501   5.959  1.6668  1.4107 -2.7449
26498SOL     OW86351   0.010   7.395   6.705  0.5757  0.0339  0.1847
26498SOL    HW186352  -0.024   7.378   6.793 -2.5186  1.6865 -0.5607
26498SOL    HW286353   0.029   7.308   6.670 -0.7086 -0.8663  1.5939
26499SOL     OW86354   0.779   6.090   4.519 -0.3926 -0.0111  0.8649
26499SOL    HW186355   0.826   6.037   4.583  0.8787 -1.2618 -0.9775
26499SOL    HW286356   0.715   6.030   4.481  0.4210 -0.0120 -0.5892
26500SOL     OW86357   6.515  11.522   3.734  0.2058 -0.0266 -0.3616
26500SOL    HW186358   6.523  11.592   3.669  0.9583 -0.6992 -1.0232
26500SOL    HW286359   6.424  11.493   3.726 -0.4236  1.5935  0.7018
26501SOL     OW86360   8.409   5.592   1.384 -0.3027 -0.0492  0.1249
26501SOL    HW186361   8.443   5.546   1.461 -0.3353  0.1109  0.2361
26501SOL    HW286362   8.367   5.524   1.332 -1.1527 -0.0074  0.7313
26502SOL     OW86363   2.745  11.376   0.338  0.1539  0.0753  0.3477
26502SOL    HW186364   2.743  11.400   0.431 -0.7072  0.7509  0.1672
26502SOL    HW286365   2.672  11.315   0.328 -0.8883  1.3706 -0.2244
26503SOL     OW86366  10.805   4.855   3.304 -0.0616 -0.1493  0.6114
26503SOL    HW186367  10.751   4.933   3.306  1.9845  1.4098 -0.6881
26503SOL    HW286368  10.888   4.881   3.345  0.0539 -2.2010  1.8313
26504SOL     OW86369   4.259   0.890   1.085  0.1150 -0.3833  0.5753
26504SOL    HW186370   4.177   0.873   1.132 -0.7822  0.4739 -0.6082
26504SOL    HW286371   4.244   0.974   1.042  1.4549 -0.4514 -0.0480
26505SOL     OW86372   8.035  10.157   8.931  0.5499 -0.1050  0.9494
26505SOL    HW186373   8.039  10.243   8.973 -0.3319  1.2065 -1.4251
26505SOL    HW286374   7.970  10.109   8.982  0.0104  1.1601  1.4997
26506SOL     OW86375   8.081   4.512   8.497  0.0653 -0.4421  0.0311
26506SOL    HW186376   8.023   4.479   8.565 -0.0851 -1.5240 -0.5965
26506SOL    HW286377   8.123   4.434   8.461 -1.8653 -0.2982 -2.9542
26507SOL     OW86378  10.951   5.821   3.472 -0.4872 -0.7339 -0.2558
26507SOL    HW186379  11.046   5.826   3.483 -0.4771 -0.5718 -0.4179
26507SOL    HW286380  10.922   5.912   3.470 -0.5795 -0.7753 -0.8091
26508SOL     OW86381   3.271   8.735   0.526  0.4272  0.1931  0.0843
26508SOL    HW186382   3.249   8.701   0.613 -1.8461 -0.4014 -0.6405
26508SOL    HW286383   3.277   8.657   0.471  3.5192  0.4024 -0.0780
26509SOL     OW86384   5.211   9.827  10.518  0.5664 -0.4871  0.5823
26509SOL    HW186385   5.213   9.806  10.424  0.3093 -0.0561  0.4752
26509SOL    HW286386   5.297   9.802  10.550  0.4814 -1.1286  0.3417
26510SOL     OW86387   6.016   1.403   4.342  0.4752  0.4198 -0.3187
26510SOL    HW186388   6.067   1.334   4.300  2.0165 -0.1676  2.3229
26510SOL    HW286389   5.933   1.403   4.294  0.4281 -3.2303 -0.5053
26511SOL     OW86390   2.361   6.402   5.445 -0.5711 -0.0944  0.1805
26511SOL    HW186391   2.322   6.487   5.425 -1.4854 -0.9082 -1.7671
26511SOL    HW286392   2.453   6.422   5.463 -0.7892  1.3086 -0.1224
26512SOL     OW86393   9.431   0.131   1.752 -0.4246 -0.0052  0.3456
26512SOL    HW186394   9.481   0.174   1.683  0.9587 -1.4310  0.4005
26512SOL    HW286395   9.345   0.117   1.714 -0.3235  1.0986 -0.3296
26513SOL     OW86396  11.913  10.330   1.304  0.1816 -0.3340  0.0016
26513SOL    HW186397  11.902  10.339   1.399 -0.5983  1.8190 -0.2477
26513SOL    HW286398  11.836  10.280   1.276 -0.1910  0.0373  0.3575
26514SOL     OW86399  11.795   8.836  10.754  0.0562 -0.1425 -0.5528
26514SOL    HW186400  11.709   8.815  10.718  0.7177 -2.5485 -0.8863
26514SOL    HW286401  11.843   8.878  10.682  0.6134 -2.8796 -1.9026
26515SOL     OW86402   1.354   3.492   2.657  0.5530  0.0942 -0.1436
26515SOL    HW186403   1.363   3.475   2.564  0.9355  1.7120 -0.4348
26515SOL    HW286404   1.260   3.493   2.673  0.4847 -0.0844 -0.5318
26516SOL     OW86405   1.829   5.846   1.455 -0.0276  0.4617  0.2622
26516SOL    HW186406   1.884   5.868   1.530  1.9465  1.1648 -1.3057
26516SOL    HW286407   1.845   5.917   1.392 -3.9814  1.5984  0.2522
26517SOL     OW86408   9.865   7.963   2.261  0.2649 -0.0386 -0.4789
26517SOL    HW186409   9.862   8.026   2.333 -0.1354 -0.7796  0.1623
26517SOL    HW286410   9.879   7.878   2.303 -3.2995 -0.9857 -0.9094
26518SOL     OW86411   6.028  11.179   5.920  0.2626  0.8476 -0.2327
26518SOL    HW186412   6.018  11.249   5.855 -0.3371  1.2082  0.2497
26518SOL    HW286413   6.123  11.174   5.934  0.2550  2.2089  0.4372
26519SOL     OW86414  10.637   8.262  10.414 -0.2080 -0.0330  0.2442
26519SOL    HW186415  10.666   8.336  10.361  1.3761 -0.2446  0.7719
26519SOL    HW286416  10.717   8.218  10.440 -0.9599 -0.3787  2.1804
26520SOL     OW86417  11.468   8.636   2.894 -0.4724 -0.1150  0.5587
26520SOL    HW186418  11.417   8.663   2.818  0.5010  0.4937  0.1022
26520SOL    HW286419  11.455   8.541   2.899 -1.6590  0.0313  0.4822
26521SOL     OW86420   1.029   6.995   3.103 -0.2841 -0.1292  0.1312
26521SOL    HW186421   0.954   7.048   3.132 -0.1253  0.1193  0.0962
26521SOL    HW286422   1.005   6.905   3.125 -0.7356 -0.0886 -0.1882
26522SOL     OW86423   9.920   0.839   3.460  0.1905  0.7572  0.1032
26522SOL    HW186424   9.982   0.888   3.514  0.5821  0.6142 -0.2132
26522SOL    HW286425   9.850   0.901   3.441  0.8239  1.2846 -0.5374
26523SOL     OW86426   0.858   1.738   3.648 -0.1843  0.1844  0.0558
26523SOL    HW186427   0.817   1.749   3.562  0.4435  0.6302 -0.1962
26523SOL    HW286428   0.800   1.785   3.708 -1.1399 -0.9358  0.0416
26524SOL     OW86429   6.637   5.965   5.125  0.2687  0.3236 -0.1163
26524SOL    HW186430   6.691   5.888   5.108 -2.5642 -1.6408 -0.9715
26524SOL    HW286431   6.691   6.039   5.097  2.9586 -1.3238  0.3422
26525SOL     OW86432   1.626   4.609   5.572  0.2129 -0.4047 -0.3641
26525SOL    HW186433   1.562   4.539   5.559  0.6593 -1.1401  1.2606
26525SOL    HW286434   1.668   4.589   5.655 -2.2856  3.7858  2.2399
26526SOL     OW86435  10.349   5.907   5.879 -0.0705 -0.0972 -0.5928
26526SOL    HW186436  10.431   5.859   5.877 -0.2504 -0.3982 -1.1838
26526SOL    HW286437  10.307   5.886   5.795  0.2227  1.7392 -1.2554
26527SOL     OW86438   2.978   3.719   9.337  0.4026 -0.0469  0.2962
26527SOL    HW186439   3.072   3.702   9.341  0.7432  1.5640 -0.1875
26527SOL    HW286440   2.968   3.785   9.268 -1.0967 -0.2211  0.3051
26528SOL     OW86441   0.625   5.140  11.807  0.3277  0.3905  0.0739
26528SOL    HW186442   0.627   5.135  11.902  0.3238 -3.2341  0.0144
26528SOL    HW286443   0.717   5.132  11.781  0.0839 -2.6699 -0.1828
26529SOL     OW86444   3.528   2.595   6.013 -0.5155 -0.1155  0.1933
26529SOL    HW186445   3.555   2.685   6.032 -0.2568 -0.0821 -0.3124
26529SOL    HW286446   3.462   2.604   5.945 -0.2379 -0.3265 -0.1053
26530SOL     OW86447   7.885   1.728  12.356  0.8062  0.2157 -0.0778
26530SOL    HW186448   7.964   1.691  12.395 -0.5455 -1.4654  1.2304
26530SOL    HW286449   7.844   1.655  12.310 -0.4767  0.7932  0.0943
26531SOL     OW86450   1.276  11.009   5.277  0.0430  0.4182 -0.1005
26531SOL    HW186451   1.287  11.101   5.299 -0.5974  0.3601  0.4755
26531SOL    HW286452   1.198  11.007   5.221  0.6832  0.3532 -1.0145
26532SOL     OW86453   2.258   6.401   7.014 -0.6435 -0.4506  0.1510
26532SOL    HW186454   2.173   6.381   7.054  0.2967 -0.6186  2.1686
26532SOL    HW286455   2.308   6.445   7.083 -0.3055  3.0811 -2.0639
26533SOL     OW86456   9.551  10.399   0.191  0.4737  0.7405 -0.4420
26533SOL    HW186457   9.540  10.308   0.219  1.4638  0.9521  0.7463
26533SOL    HW286458   9.641  10.403   0.159  1.4071  1.8517  2.0206
26534SOL     OW86459   0.519   8.807   8.613 -0.2647  0.2577 -0.3823
26534SOL    HW186460   0.470   8.843   8.539 -0.5277 -1.4783 -1.0950
26534SOL    HW286461   0.596   8.766   8.573  1.0100  1.6010  0.5812
26535SOL     OW86462   6.379   6.531   8.905  0.0901  0.3223  0.3149
26535SOL    HW186463   6.413   6.592   8.839  0.9112 -0.5498 -0.0811
26535SOL    HW286464   6.452   6.473   8.925 -0.5590 -0.2873  0.9926
26536SOL     OW86465   3.497   8.734   0.810 -0.2254  0.3692 -0.2444
26536SOL    HW186466   3.475   8.671   0.742 -0.3200 -1.2065  1.1784
26536SOL    HW286467   3.584   8.767   0.785  0.4512 -1.3639 -0.3448
26537SOL     OW86468   1.766   2.524   3.615 -0.1740 -0.3710 -0.1683
26537SOL    HW186469   1.833   2.455   3.614  2.0935  1.6558  0.9141
26537SOL    HW286470   1.791   2.584   3.545 -0.7057  0.5442  0.3984
26538SOL     OW86471   3.255  11.338   6.514 -0.4441  0.2453  0.3566
26538SOL    HW186472   3.235  11.272   6.447  1.2940  1.4492 -1.4590
26538SOL    HW286473   3.207  11.309   6.591 -0.3704 -2.7071 -0.5906
26539SOL     OW86474   3.698   8.454   9.446  0.1056 -0.2811 -0.9408
26539SOL    HW186475   3.611   8.449   9.486 -0.2062  0.3299 -1.5164
26539SOL    HW286476   3.759   8.438   9.518 -0.4980 -1.5971 -0.6961
26540SOL     OW86477   6.833   0.342   4.111 -0.7939 -0.0520 -0.6261
26540SOL    HW186478   6.874   0.318   4.028 -1.3672 -1.5164 -0.5127
26540SOL    HW286479   6.745   0.371   4.087 -0.4532  1.0151 -0.6554
26541SOL     OW86480   8.790   6.082  10.389  0.1605 -0.1785  0.2191
26541SOL    HW186481   8.719   6.129  10.345 -0.5104 -0.0305  1.4081
26541SOL    HW286482   8.839   6.040  10.318 -1.0060 -0.1293 -0.6483
26542SOL     OW86483   1.684   8.924   4.648 -0.7484 -0.1959 -0.5495
26542SOL    HW186484   1.650   8.911   4.737 -1.0339 -1.6333 -0.8502
26542SOL    HW286485   1.771   8.962   4.662 -1.7991  2.1295  0.2564
26543SOL     OW86486   5.754   5.324  10.541  0.0129 -0.5150 -0.4684
26543SOL    HW186487   5.846   5.344  10.554 -0.0648  0.1947 -0.9748
26543SOL    HW286488   5.742   5.323  10.446 -1.1596  2.6580 -0.4746
26544SOL     OW86489   6.161   1.743   6.789  0.5612 -0.3468 -0.0206
26544SOL    HW186490   6.202   1.760   6.874  0.1270 -0.4039  0.2024
26544SOL    HW286491   6.068   1.734   6.809  0.3892  0.1594 -0.5763
26545SOL     OW86492   6.087   7.552   2.096  0.1759  0.2394 -0.5406
26545SOL    HW186493   6.148   7.564   2.023 -0.2651  0.2408 -0.9166
26545SOL    HW286494   6.008   7.597   2.068 -0.4100 -0.7941 -0.5846
26546SOL     OW86495   1.128   5.290   0.585  0.1256 -0.2364 -1.1084
26546SOL    HW186496   1.078   5.212   0.563  1.8921 -1.5816 -0.6492
26546SOL    HW286497   1.191   5.300   0.514 -0.2119  0.9109 -1.2660
26547SOL     OW86498  11.998   3.865  10.291  0.2844 -0.2171  0.0718
26547SOL    HW186499  11.976   3.919  10.367  0.2439 -0.3273  0.1379
26547SOL    HW286500  11.974   3.919  10.215  1.4129  0.3672  0.1101
26548SOL     OW86501   6.533  12.280   2.823 -0.1909  0.3109  0.1352
26548SOL    HW186502   6.472  12.212   2.853 -1.3299  1.7171  1.1127
26548SOL    HW286503   6.529  12.347   2.890 -0.0175  1.9038 -1.3784
26549SOL     OW86504   7.156  12.369   2.916 -0.4796  0.5303 -0.4727
26549SOL    HW186505   7.155  12.306   2.988  1.1014  0.5887 -0.3572
26549SOL    HW286506   7.248  12.376   2.891 -1.0793 -0.4090 -3.3351
26550SOL     OW86507   7.665   5.237   0.118  0.2100 -0.4308 -0.5165
26550SOL    HW186508   7.684   5.147   0.093  0.3585 -0.1828 -1.3333
26550SOL    HW286509   7.573   5.236   0.145  0.6288 -1.1324  1.0055
26551SOL     OW86510   5.202   6.005   3.540  0.9423 -0.5972 -0.5827
26551SOL    HW186511   5.147   6.078   3.512  1.8352 -0.1767 -1.2876
26551SOL    HW286512   5.160   5.973   3.620  1.1834  1.4664  0.4509
26552SOL     OW86513   7.304   2.300   1.523 -0.3021  0.4205 -0.3744
26552SOL    HW186514   7.260   2.224   1.560 -0.7984  0.9952  0.2299
26552SOL    HW286515   7.343   2.345   1.598  1.6255 -0.2394 -0.9175
26553SOL     OW86516   2.085   7.367   8.110 -0.5596 -0.4396  0.0930
26553SOL    HW186517   2.155   7.387   8.173  0.7234 -1.6313 -0.8900
26553SOL    HW286518   2.112   7.412   8.030 -2.7226  1.9790  0.5770
26554SOL     OW86519  10.411   7.665   9.291  0.2537  0.1812  0.0468
26554SOL    HW186520  10.430   7.690   9.200  1.4040 -0.1651  0.1769
26554SOL    HW286521  10.366   7.741   9.328  1.3748  1.0485 -0.3025
26555SOL     OW86522   8.643  10.699   4.581  0.8876  0.2593 -0.3939
26555SOL    HW186523   8.698  10.653   4.645  0.4694  1.1313  0.6261
26555SOL    HW286524   8.626  10.784   4.621  0.5719  0.8118 -1.6618
26556SOL     OW86525   4.796  10.301   8.018  0.5129  0.0414 -0.1699
26556SOL    HW186526   4.842  10.218   8.008  2.9147  1.2083  0.3167
26556SOL    HW286527   4.788  10.312   8.113 -0.9402 -0.1956 -0.2525
26557SOL     OW86528   9.517   9.368   0.738  0.1217 -0.5752 -0.0778
26557SOL    HW186529   9.482   9.409   0.658 -0.4172  0.0029  0.4495
26557SOL    HW286530   9.612   9.380   0.729  0.0242  0.1413 -0.2942
26558SOL     OW86531   5.633  10.340   1.909  0.0724  0.6147 -0.8807
26558SOL    HW186532   5.556  10.293   1.878  0.7096 -1.0619 -0.0685
26558SOL    HW286533   5.606  10.432   1.913 -1.2533  0.3292 -2.4501
26559SOL     OW86534   7.170   3.964   8.917  0.5967 -0.0657  0.4528
26559SOL    HW186535   7.160   3.879   8.876 -2.7500 -0.1778  1.2644
26559SOL    HW286536   7.262   3.988   8.901  0.9402 -2.6084 -2.0158
26560SOL     OW86537   4.981   4.451  11.508 -0.2302  0.4091  0.9228
26560SOL    HW186538   4.935   4.387  11.563 -1.4708 -0.0382 -0.5563
26560SOL    HW286539   4.918   4.522  11.497 -0.4077  0.0484 -0.6715
26561SOL     OW86540   9.304  11.854   3.421  0.5952 -0.1858 -0.1899
26561SOL    HW186541   9.309  11.833   3.514 -2.0077 -1.3689 -0.2299
26561SOL    HW286542   9.279  11.946   3.418 -1.5099 -0.6867  0.4039
26562SOL     OW86543   9.827   0.075   0.816  0.1534  0.1330 -0.5914
26562SOL    HW186544   9.897   0.066   0.881 -0.3384 -1.4783 -0.2234
26562SOL    HW286545   9.872   0.065   0.732  0.7077  1.6608 -0.5070
26563SOL     OW86546   5.917   7.902  10.607 -0.0576  0.6659  0.0431
26563SOL    HW186547   5.861   7.826  10.624  1.1784 -0.4910 -0.8588
26563SOL    HW286548   5.941   7.934  10.694 -1.5211  0.7787  0.4438
26564SOL     OW86549   5.373   1.386   4.649  0.2076 -0.1511  0.2900
26564SOL    HW186550   5.361   1.434   4.731 -0.2692  0.1426  0.0504
26564SOL    HW286551   5.289   1.341   4.635  0.2640 -0.1460 -0.0704
26565SOL     OW86552   5.239   7.185   2.021 -0.3805 -0.1289 -0.1787
26565SOL    HW186553   5.255   7.204   1.928  0.3822  0.9668  0.1608
26565SOL    HW286554   5.255   7.091   2.029 -0.2853 -0.2022 -1.1176
26566SOL     OW86555   0.176   3.718   4.267  0.5601  0.8121 -0.0638
26566SOL    HW186556   0.210   3.719   4.178 -0.4956 -1.3812 -0.5579
26566SOL    HW286557   0.236   3.660   4.314 -0.4268 -0.2527 -0.0728
26567SOL     OW86558   5.409   4.609  10.255  0.0368 -0.2520  0.6647
26567SOL    HW186559   5.438   4.551  10.326 -2.9619  0.2101  2.4431
26567SOL    HW286560   5.412   4.697  10.294  1.9807  0.5469 -1.1228
26568SOL     OW86561   4.542   4.092   2.931 -0.0665 -0.1989  0.4795
26568SOL    HW186562   4.558   4.056   3.018  0.5313  0.7116  0.7643
26568SOL    HW286563   4.627   4.092   2.888  0.2824  2.1684  1.0199
26569SOL     OW86564   8.058  10.918   2.349  0.0023  0.1716 -0.0376
26569SOL    HW186565   8.044  10.950   2.260  0.9909  1.6038  0.2938
26569SOL    HW286566   8.006  10.838   2.353 -0.7300  0.5126 -1.6322
26570SOL     OW86567   5.488   3.148   1.507 -0.2004 -0.1570 -0.0259
26570SOL    HW186568   5.485   3.057   1.537 -0.2146  0.0878  0.7325
26570SOL    HW286569   5.454   3.199   1.580  0.2767  0.5052 -0.2562
26571SOL     OW86570   0.329   2.691   2.811 -0.3603  0.1287  0.0995
26571SOL    HW186571   0.310   2.628   2.881  0.9313  0.5987  0.8989
26571SOL    HW286572   0.413   2.663   2.776 -0.7185  0.2501 -0.8874
26572SOL     OW86573  12.570   5.972  10.128 -0.0087  0.0521  0.1000
26572SOL    HW186574  12.613   6.057  10.125  0.1765  0.0600  1.9927
26572SOL    HW286575  12.602   5.931  10.208 -1.4137 -1.0814  0.1259
26573SOL     OW86576   7.343   6.646   4.037  0.2232  0.0036  0.3396
26573SOL    HW186577   7.260   6.686   4.061 -0.3530 -1.3286  0.6452
26573SOL    HW286578   7.399   6.656   4.114 -0.0260 -0.0521  0.5274
26574SOL     OW86579   7.783  12.052   7.771  0.6772 -0.4399  0.4194
26574SOL    HW186580   7.848  11.991   7.735  1.3655 -0.1034  1.0766
26574SOL    HW286581   7.804  12.136   7.731  0.9561 -0.2277  1.0111
26575SOL     OW86582   4.943  10.796   1.233  0.1633  0.2551 -0.1644
26575SOL    HW186583   4.952  10.701   1.246  0.6466  0.4209  0.8730
26575SOL    HW286584   4.852  10.815   1.256  0.3149  0.1651  0.5309
26576SOL     OW86585  12.093   2.375   3.122 -0.7432  0.3382 -0.5774
26576SOL    HW186586  12.174   2.383   3.072 -0.4304 -1.2243 -0.3672
26576SOL    HW286587  12.032   2.330   3.064 -1.1930  0.7455 -0.4313
26577SOL     OW86588   6.025   1.674   0.583 -0.7969 -0.0706 -0.3905
26577SOL    HW186589   5.966   1.712   0.518 -1.7215 -0.3003  0.2918
26577SOL    HW286590   5.983   1.692   0.667  1.3972  2.0363  0.3498
26578SOL     OW86591   5.104   7.054   5.469  0.3969 -0.3394  0.2492
26578SOL    HW186592   5.112   7.016   5.381 -2.6399  1.1445 -0.8103
26578SOL    HW286593   5.190   7.039   5.509  1.4596 -2.3168 -2.4304
26579SOL     OW86594   5.751   2.482   9.673 -0.6664  0.1426  0.0229
26579SOL    HW186595   5.742   2.542   9.598  0.1336  0.1978 -0.0416
26579SOL    HW286596   5.711   2.400   9.643  2.0130 -0.7222 -1.5291
26580SOL     OW86597   9.360   0.249  12.492  0.0627  0.1390 -0.3224
26580SOL    HW186598   9.376   0.196  12.414  0.8448  1.7556 -1.3316
26580SOL    HW286599   9.409   0.330  12.476  0.3721  0.4684  1.9261
26581SOL     OW86600   6.823  10.216   9.859  0.8024 -0.0346  0.4061
26581SOL    HW186601   6.891  10.150   9.872  0.4769 -0.5039 -0.2325
26581SOL    HW286602   6.871  10.293   9.828  0.8236 -1.3579 -3.4553
26582SOL     OW86603   0.058   9.168  11.989 -0.2560 -0.3485  0.0020
26582SOL    HW186604   0.006   9.122  12.056 -1.1663 -1.4096 -1.3793
26582SOL    HW286605   0.008   9.247  11.970 -0.7191 -0.7298 -0.3971
26583SOL     OW86606  11.614   3.561  12.164 -0.2487 -0.6228  0.6252
26583SOL    HW186607  11.675   3.560  12.238 -0.2660 -1.3564  0.6339
26583SOL    HW286608  11.579   3.472  12.161 -0.3873 -0.5427 -0.1601
26584SOL     OW86609   6.878  12.391   6.935 -0.2425 -0.3745 -0.3834
26584SOL    HW186610   6.952  12.379   6.875  0.9692 -0.2702  1.0101
26584SOL    HW286611   6.918  12.387   7.022 -1.6496  1.2245  0.3977
26585SOL     OW86612   2.673   2.355   3.441  0.2227 -0.3315  0.5911
26585SOL    HW186613   2.649   2.447   3.441  1.6264  0.0714  1.7216
26585SOL    HW286614   2.733   2.346   3.366  3.6269  0.7713  2.9384
26586SOL     OW86615   8.411   2.891   7.420 -0.6941  0.1597  0.2278
26586SOL    HW186616   8.422   2.899   7.326 -0.8350 -2.3569 -0.0784
26586SOL    HW286617   8.468   2.958   7.457 -1.5899  2.0392 -1.6275
26587SOL     OW86618   4.182   9.344   2.049  0.1048 -0.2790  0.3557
26587SOL    HW186619   4.255   9.286   2.031  0.5420  0.2113  0.5203
26587SOL    HW286620   4.154   9.321   2.138 -1.2486 -1.8384 -0.4227
26588SOL     OW86621  12.491   2.873  10.619  0.0462 -0.5709 -0.0860
26588SOL    HW186622  12.456   2.940  10.560 -0.0726 -0.0102  0.6066
26588SOL    HW286623  12.585   2.891  10.623  0.0396 -0.5513 -0.0278
26589SOL     OW86624   1.220   7.307   0.783  0.2398  0.0809  0.0081
26589SOL    HW186625   1.203   7.382   0.726  2.7069  0.3432 -0.4786
26589SOL    HW286626   1.218   7.231   0.725 -2.0548 -0.3083  0.4679
26590SOL     OW86627  11.695   9.465   9.783 -0.0882  0.0474 -0.2409
26590SOL    HW186628  11.607   9.500   9.768 -1.0222 -1.2216  1.7981
26590SOL    HW286629  11.723   9.504   9.866  1.9724  1.6074 -1.5674
26591SOL     OW86630   5.117   5.128  12.056 -0.4415 -0.3539  0.0456
26591SOL    HW186631   5.109   5.034  12.040 -2.8984 -0.2710  0.3594
26591SOL    HW286632   5.057   5.144  12.129  0.5792  1.3341  0.5397
26592SOL     OW86633   3.385   0.133   0.774 -0.4515  0.7736  0.5616
26592SOL    HW186634   3.344   0.047   0.763  0.0410  0.7311 -1.4037
26592SOL    HW286635   3.329   0.179   0.836 -0.8056 -0.9039  1.5364
26593SOL     OW86636  10.052   6.323   5.305  0.2144 -0.1530  0.5645
26593SOL    HW186637  10.105   6.244   5.295  0.3248 -0.2454  1.7551
26593SOL    HW286638   9.964   6.290   5.323 -0.1683  0.0047 -0.8657
26594SOL     OW86639  10.656  10.082  12.060  0.1898  0.4976  0.2192
26594SOL    HW186640  10.589  10.014  12.062 -0.9515  1.5636 -0.2870
26594SOL    HW286641  10.738  10.035  12.078 -0.4315 -1.1477 -0.9327
26595SOL     OW86642   7.570   0.925  11.021  0.5592  0.0913 -0.4707
26595SOL    HW186643   7.486   0.903  10.982 -0.0802 -1.2489  1.5197
26595SOL    HW286644   7.628   0.853  10.996  0.3285 -0.4248  0.4366
26596SOL     OW86645   9.839   9.880   1.888 -0.3513  0.4503 -0.0981
26596SOL    HW186646   9.763   9.859   1.943 -0.3237 -0.2688 -0.3258
26596SOL    HW286647   9.801   9.920   1.809 -0.3904  1.4962  0.4324
26597SOL     OW86648   2.171   3.422   4.813 -0.1364  0.1315  0.0987
26597SOL    HW186649   2.265   3.416   4.828  0.3923  2.8641 -1.6153
26597SOL    HW286650   2.162   3.435   4.719 -2.2082  0.5112  0.3066
26598SOL     OW86651   7.403   8.435   1.046  0.0889  0.7202 -0.7564
26598SOL    HW186652   7.493   8.455   1.073 -0.0990  0.7013 -0.0819
26598SOL    HW286653   7.412   8.367   0.979  0.5387 -0.4226  0.4016
26599SOL     OW86654   8.342   1.034   6.490 -0.0496  0.4753  0.1185
26599SOL    HW186655   8.404   0.967   6.463 -0.6850  0.3477 -1.0734
26599SOL    HW286656   8.377   1.115   6.455 -0.8628  0.3129 -1.1260
26600SOL     OW86657  11.963   9.028   8.576  0.1254 -0.1142 -0.1025
26600SOL    HW186658  11.998   9.002   8.661 -1.5871 -1.2467  0.2964
26600SOL    HW286659  12.031   9.000   8.513  0.4922 -1.1447  0.7228
26601SOL     OW86660   5.543   0.384   5.382 -0.1879 -0.0717 -0.0364
26601SOL    HW186661   5.617   0.324   5.382 -0.5170 -0.5013  1.0588
26601SOL    HW286662   5.526   0.401   5.474  0.8768  2.9593 -0.2727
26602SOL     OW86663   9.918   2.307   6.917  0.2920  0.5903 -0.0728
26602SOL    HW186664   9.879   2.222   6.900  1.4119  0.2959 -1.3246
26602SOL    HW286665   9.937   2.307   7.011  0.9626 -0.8496 -0.1881
26603SOL     OW86666   9.527   4.012   4.241  0.2497  0.0279  0.6081
26603SOL    HW186667   9.545   3.919   4.228  0.5621  0.1487  0.1544
26603SOL    HW286668   9.457   4.014   4.307 -1.4884 -0.6213 -1.1258
26604SOL     OW86669   7.662   3.553  11.070  0.0736  0.7099 -0.1973
26604SOL    HW186670   7.620   3.538  10.985 -0.6720  2.6020 -0.2054
26604SOL    HW286671   7.697   3.642  11.064 -0.9120  1.2873  1.8256
26605SOL     OW86672   3.663   5.167   6.574  0.5051  0.1591  0.0949
26605SOL    HW186673   3.585   5.212   6.606 -0.1934 -0.5771 -0.5129
26605SOL    HW286674   3.693   5.220   6.500 -1.3818 -1.2445 -1.8010
26606SOL     OW86675   5.123   0.402  12.402 -0.1216  0.3446 -0.0819
26606SOL    HW186676   5.195   0.441  12.451 -1.3814  0.0014  2.1705
26606SOL    HW286677   5.156   0.316  12.374  0.8960  0.8849 -0.5723
26607SOL     OW86678   3.416   4.845  11.230  0.3558 -0.8666  0.4775
26607SOL    HW186679   3.352   4.825  11.298  1.3478  0.5617  1.9161
26607SOL    HW286680   3.381   4.924  11.187  0.0133 -1.4438 -0.3502
26608SOL     OW86681   5.540   6.298  12.217 -0.0538  0.1915  0.7057
26608SOL    HW186682   5.569   6.387  12.238  0.6281  0.1372  0.0163
26608SOL    HW286683   5.542   6.253  12.301 -0.8196  0.9360  1.1388
26609SOL     OW86684   5.293   4.264   2.617 -0.5010  0.0878 -0.2041
26609SOL    HW186685   5.284   4.191   2.678  1.4788 -0.0045  0.0699
26609SOL    HW286686   5.372   4.243   2.566  0.2896  2.1237  0.0570
26610SOL     OW86687   5.188   8.146   7.563  0.1301 -0.1605 -0.0384
26610SOL    HW186688   5.109   8.152   7.616  0.1396  1.0972 -0.1257
26610SOL    HW286689   5.173   8.208   7.491  1.8341  1.4031  0.8541
26611SOL     OW86690  11.239   8.721   1.230  0.4446 -0.0750 -0.0649
26611SOL    HW186691  11.158   8.767   1.255 -0.7154 -2.1971  0.3484
26611SOL    HW286692  11.237   8.720   1.134 -0.1619 -0.2953 -0.0594
26612SOL     OW86693   5.732   3.497   7.681 -0.2735 -0.1245  0.3352
26612SOL    HW186694   5.687   3.465   7.759  0.8393 -0.1644  0.9869
26612SOL    HW286695   5.825   3.496   7.705  0.1069 -0.2944 -1.0452
26613SOL     OW86696   6.738   4.381   8.143 -0.0772  0.1851 -0.2007
26613SOL    HW186697   6.792   4.420   8.074 -0.5628  2.1418  0.4619
26613SOL    HW286698   6.679   4.321   8.097  2.7349 -2.3007 -0.9354
26614SOL     OW86699   7.276   0.658   9.621 -0.2142  0.3135 -0.0099
26614SOL    HW186700   7.181   0.662   9.629 -0.3218  0.9424 -1.4044
26614SOL    HW286701   7.292   0.656   9.527  1.1734  0.6308  0.2057
26615SOL     OW86702   3.080   3.414   6.803  0.2151  0.5115  0.0583
26615SOL    HW186703   3.128   3.332   6.814 -1.1455 -0.2433  0.6086
26615SOL    HW286704   3.146   3.482   6.816  2.0195 -0.4008 -3.1348
26616SOL     OW86705   4.016   4.391   3.917 -0.5049  0.2557  0.0771
26616SOL    HW186706   4.060   4.310   3.890 -0.0086 -0.0314  1.6326
26616SOL    HW286707   3.935   4.362   3.960 -1.0582  0.6704 -0.6626
26617SOL     OW86708  10.222   3.199   7.080  0.1907 -0.1479 -0.3650
26617SOL    HW186709  10.298   3.208   7.138  0.4270  0.1282 -0.7127
26617SOL    HW286710  10.257   3.154   7.003  0.3517  1.2652 -1.1611
26618SOL     OW86711   2.870   4.098   5.557 -0.5515  0.5481 -0.5525
26618SOL    HW186712   2.945   4.044   5.581 -1.1212 -0.2453 -0.5394
26618SOL    HW286713   2.896   4.187   5.583 -0.0836  0.1185  0.5196
26619SOL     OW86714   5.281  11.674   2.275  0.2682 -0.1672  0.5013
26619SOL    HW186715   5.262  11.581   2.264 -0.5007  0.0187  0.1978
26619SOL    HW286716   5.199  11.718   2.250  1.2929  0.7030 -1.5633
26620SOL     OW86717   9.269   7.483   4.113  0.2871  0.6696  0.8231
26620SOL    HW186718   9.326   7.510   4.185  0.4284 -1.4839  1.6215
26620SOL    HW286719   9.228   7.564   4.082  1.2808  1.8348  2.4119
26621SOL     OW86720  12.032  10.663   1.504 -0.5067  0.1634  0.0612
26621SOL    HW186721  11.976  10.589   1.528 -0.3920  0.0544 -0.0046
26621SOL    HW286722  12.079  10.633   1.426 -1.2216  0.6831 -0.5831
26622SOL     OW86723   4.468   6.938   1.077 -0.0224 -0.0930 -0.0457
26622SOL    HW186724   4.429   7.025   1.078  1.0464  0.4287 -1.2938
26622SOL    HW286725   4.506   6.929   0.990  1.0753 -1.2715  0.5168
26623SOL     OW86726   2.382   6.735   6.674  0.7994 -0.2755  0.6043
26623SOL    HW186727   2.359   6.658   6.622 -0.3965 -0.4667  1.3658
26623SOL    HW286728   2.304   6.791   6.670  0.6339 -0.3390  2.2242
26624SOL     OW86729   2.970   6.193  10.275 -0.1374 -0.7397 -0.2670
26624SOL    HW186730   2.932   6.280  10.260 -0.0533 -0.7626 -0.6330
26624SOL    HW286731   2.928   6.161  10.354  0.1492 -0.1817  0.1217
26625SOL     OW86732   5.940   5.003  10.767  0.4772  0.3849 -0.0276
26625SOL    HW186733   5.975   4.930  10.818  1.5880 -0.5546 -2.0225
26625SOL    HW286734   5.854   4.972  10.737 -0.9754  1.5927  2.5099
26626SOL     OW86735   4.904   8.566   9.852 -0.0955 -0.1027 -0.1275
26626SOL    HW186736   4.864   8.480   9.864  0.3502  0.0311  3.3246
26626SOL    HW286737   4.980   8.566   9.910 -0.8135  3.0120  1.0372
26627SOL     OW86738   7.977   7.946   2.617  0.5348 -0.6635  0.6031
26627SOL    HW186739   7.988   7.851   2.614 -1.6383 -0.9461 -0.1834
26627SOL    HW286740   7.940   7.963   2.703 -3.4656 -1.2234 -0.7613
26628SOL     OW86741   5.326  10.305  11.256 -0.4757 -0.2160  0.1089
26628SOL    HW186742   5.247  10.357  11.241  0.3457  0.5389 -1.9262
26628SOL    HW286743   5.327  10.290  11.350 -1.9246  1.5375  0.4574
26629SOL     OW86744   6.342   3.801   6.721  0.0078 -0.1300  0.4990
26629SOL    HW186745   6.337   3.896   6.725  0.1914 -0.1426  2.9124
26629SOL    HW286746   6.376   3.782   6.634  2.0337  2.1422  0.6856
26630SOL     OW86747   4.503   5.944   4.332 -0.4685 -0.5104 -0.1155
26630SOL    HW186748   4.534   5.908   4.415 -1.7955 -0.5574  0.3833
26630SOL    HW286749   4.410   5.921   4.329 -0.7390  0.6108 -1.0112
26631SOL     OW86750   5.751  12.574  10.526 -0.3303 -0.1610  0.1492
26631SOL    HW186751   5.656  12.563  10.517 -0.5800  1.2155  0.7876
26631SOL    HW286752   5.772  12.532  10.610 -0.4567 -0.0424  0.2396
26632SOL     OW86753  10.386   8.757   6.189 -0.0924 -0.4385 -0.2223
26632SOL    HW186754  10.446   8.730   6.120  0.6762 -1.3700  0.7907
26632SOL    HW286755  10.355   8.843   6.161  1.6681  0.0474 -0.7912
26633SOL     OW86756   8.383   5.451   3.548  0.6070  0.1859 -0.8067
26633SOL    HW186757   8.445   5.377   3.545  0.3175 -0.0729 -0.5432
26633SOL    HW286758   8.411   5.502   3.624 -1.5762 -1.8293  1.5582
26634SOL     OW86759   4.726   0.927  11.466  0.3220 -0.2872  0.4100
26634SOL    HW186760   4.692   0.862  11.404  1.0983 -1.2468  0.9542
26634SOL    HW286761   4.729   0.880  11.550  0.2727  0.6682  0.9660
26635SOL     OW86762   3.587  10.272  11.944 -0.1102 -0.0780  0.0111
26635SOL    HW186763   3.677  10.249  11.923  0.0567 -0.3714  1.0070
26635SOL    HW286764   3.591  10.311  12.031 -1.0083 -0.6131  0.3141
26636SOL     OW86765   8.941   2.038  11.056  0.4676  0.5598 -0.0267
26636SOL    HW186766   8.955   1.970  11.122 -0.6961  0.0069 -0.3232
26636SOL    HW286767   8.849   2.031  11.033  0.8672  0.6083 -1.8448
26637SOL     OW86768   5.447  11.062   0.726 -0.0530 -0.3379 -0.0679
26637SOL    HW186769   5.498  11.104   0.795 -0.3917 -0.4631  0.2621
26637SOL    HW286770   5.467  11.113   0.647  0.4759 -0.3089  0.0857
26638SOL     OW86771   7.578   2.419   4.530  0.1502 -0.9444 -0.0793
26638SOL    HW186772   7.587   2.420   4.626 -0.3688 -1.1654 -0.0229
26638SOL    HW286773   7.507   2.481   4.513  2.0990  1.3163 -0.5490
26639SOL     OW86774   3.835   8.401   7.105  0.0645  0.1438 -0.3740
26639SOL    HW186775   3.921   8.371   7.134 -0.5522  0.4117  1.9259
26639SOL    HW286776   3.785   8.320   7.092  0.2991  0.0207 -0.5268
26640SOL     OW86777   6.783   4.656   4.617 -0.1020  0.4962  0.1426
26640SOL    HW186778   6.734   4.584   4.578  2.0602 -0.9548 -0.0689
26640SOL    HW286779   6.812   4.709   4.543 -0.6027  0.8512  0.1999
26641SOL     OW86780   6.386  11.523   2.092  0.1004  0.5352  0.0275
26641SOL    HW186781   6.423  11.558   2.010  0.5622 -1.4776 -0.6895
26641SOL    HW286782   6.463  11.505   2.147  0.0172 -0.6960 -0.2200
26642SOL     OW86783   0.896   3.557  10.650  0.4091  0.9385  0.2396
26642SOL    HW186784   0.875   3.464  10.658  2.4601  0.1902 -1.8444
26642SOL    HW286785   0.811   3.601  10.657 -0.5591 -1.0059  1.7979
26643SOL     OW86786   7.297   9.857   7.577  0.4623  0.7766 -1.0848
26643SOL    HW186787   7.310   9.797   7.651 -1.2440 -0.3617 -1.6622
26643SOL    HW286788   7.220   9.908   7.601 -0.3075  0.1643 -2.2008
26644SOL     OW86789  11.135   6.454  11.568 -0.0390 -0.7094  0.2955
26644SOL    HW186790  11.076   6.431  11.495 -0.7090 -0.5240  0.7700
26644SOL    HW286791  11.105   6.399  11.641  0.1106 -0.3137  0.6567
26645SOL     OW86792  11.145   0.025   1.706 -0.4765  0.3558 -0.0048
26645SOL    HW186793  11.062   0.016   1.659 -0.2649 -2.2919 -0.0199
26645SOL    HW286794  11.120   0.052   1.794 -1.2941  0.2723 -0.2060
26646SOL     OW86795   6.686   6.341  11.203  0.3523  0.3801  0.5688
26646SOL    HW186796   6.657   6.253  11.227  1.9609 -0.2086  0.4752
26646SOL    HW286797   6.751   6.363  11.269 -0.5634  1.8448  1.0418
26647SOL     OW86798   6.616   5.318   6.271 -0.1265  0.2381  0.0795
26647SOL    HW186799   6.569   5.343   6.191 -0.4843 -1.5766 -0.3069
26647SOL    HW286800   6.590   5.384   6.336 -1.4255  0.5661 -0.7491
26648SOL     OW86801   3.193   8.055   0.068  0.5685 -0.3193 -0.4547
26648SOL    HW186802   3.178   7.978   0.123  2.8548 -0.3515  0.2331
26648SOL    HW286803   3.235   8.021  -0.011 -0.5790 -0.0062 -1.2264
26649SOL     OW86804   5.491   9.425   5.849  0.5721  0.1010 -0.2856
26649SOL    HW186805   5.485   9.374   5.768  1.3949  0.2239 -0.4373
26649SOL    HW286806   5.577   9.402   5.885  0.4023  0.3921  0.3138
26650SOL     OW86807   2.340   2.357   9.562  0.1276  0.6121  0.6509
26650SOL    HW186808   2.416   2.305   9.537 -0.5409  0.0648 -0.2980
26650SOL    HW286809   2.320   2.411   9.485 -1.4945 -0.5308  0.2112
26651SOL     OW86810   3.056   1.000   3.072 -0.1224  0.1903 -0.3157
26651SOL    HW186811   2.975   1.031   3.032  0.9976  2.1287 -1.2002
26651SOL    HW286812   3.057   1.040   3.159  0.4055  1.1061 -0.7331
26652SOL     OW86813   8.282   9.542   7.780 -0.5582 -0.2949 -0.3399
26652SOL    HW186814   8.258   9.627   7.744  1.9088  0.5376 -0.2318
26652SOL    HW286815   8.213   9.521   7.843 -1.1442  1.6897 -0.2691
26653SOL     OW86816   1.388   1.813   1.374  0.2928  0.5062 -0.2379
26653SOL    HW186817   1.464   1.871   1.384  0.8877 -0.0633 -1.2503
26653SOL    HW286818   1.348   1.840   1.291  0.4150 -0.3402 -0.5815
26654SOL     OW86819   0.091   5.391   2.001  0.1208  0.5020  0.8540
26654SOL    HW186820   0.109   5.400   2.094 -0.6407  0.8550  0.9731
26654SOL    HW286821   0.004   5.429   1.989  1.1101  2.6229 -0.3538
26655SOL     OW86822  10.331   1.829  10.552 -0.0096 -0.0428  0.5237
26655SOL    HW186823  10.378   1.835  10.469 -0.1576 -0.2524  0.4268
26655SOL    HW286824  10.391   1.869  10.615  0.3331 -0.3757  0.4109
26656SOL     OW86825   4.544   7.631   9.735 -0.1534 -0.9786 -0.2783
26656SOL    HW186826   4.556   7.664   9.824 -1.5708 -1.4092  0.1010
26656SOL    HW286827   4.558   7.536   9.742  0.4726 -0.9238 -0.6761
26657SOL     OW86828   4.141   4.035   9.987  0.7321  0.0457 -0.3624
26657SOL    HW186829   4.065   4.005  10.036  0.2659  0.4884 -0.8008
26657SOL    HW286830   4.147   4.129  10.005  1.5337 -0.0928  0.1382
26658SOL     OW86831  10.105   9.725   6.207 -0.4366  0.4830  0.0869
26658SOL    HW186832  10.145   9.641   6.231 -0.7286  1.1294  3.3690
26658SOL    HW286833  10.030   9.702   6.153  0.7782 -1.1656 -0.9863
26659SOL     OW86834   2.248   6.236  11.245  0.1952 -0.2868  0.0662
26659SOL    HW186835   2.203   6.305  11.294 -2.8230  0.9278 -3.8782
26659SOL    HW286836   2.314   6.282  11.193  0.4116 -0.8610 -0.1748
26660SOL     OW86837   9.938   2.495   4.092 -0.0157  0.4091 -0.6116
26660SOL    HW186838   9.915   2.405   4.114 -0.3290  0.7879  0.6946
26660SOL    HW286839   9.947   2.495   3.996  2.1489 -1.4963 -0.4884
26661SOL     OW86840   8.209   1.147  10.134 -0.3943 -0.2191 -0.5491
26661SOL    HW186841   8.178   1.217  10.192  1.6538  1.2415 -1.0703
26661SOL    HW286842   8.221   1.072  10.192 -0.2406  0.6283  0.5671
26662SOL     OW86843   9.259  10.006   5.398 -0.4434  0.5323 -0.3887
26662SOL    HW186844   9.172   9.968   5.414 -0.5455  2.0462  3.7020
26662SOL    HW286845   9.299  10.013   5.484  3.1904  1.3702 -1.9490
26663SOL     OW86846   1.182   9.173   0.524  0.3461 -0.0184  0.9483
26663SOL    HW186847   1.174   9.229   0.447 -0.3397  0.6116  1.4639
26663SOL    HW286848   1.092   9.145   0.543  0.6198 -0.9048  0.9862
26664SOL     OW86849   2.512   9.246   7.615  0.4029 -0.2421 -0.0225
26664SOL    HW186850   2.513   9.174   7.677 -0.0649 -0.8463 -0.7019
26664SOL    HW286851   2.420   9.269   7.606  0.4506 -0.2529 -0.5933
26665SOL     OW86852   5.496   2.550  11.545  0.1584 -0.5344  1.0658
26665SOL    HW186853   5.582   2.538  11.505  0.2480 -1.4402  1.4967
26665SOL    HW286854   5.513   2.547  11.639 -0.6691 -3.7593  1.2206
26666SOL     OW86855  11.483   6.569   1.231  0.4646 -0.1339  0.4456
26666SOL    HW186856  11.390   6.560   1.208  0.6583 -2.8291  0.3352
26666SOL    HW286857  11.483   6.613   1.316 -0.8396  0.7103  0.0418
26667SOL     OW86858   0.972  10.460   0.068  0.3033  0.4039 -0.2274
26667SOL    HW186859   1.061  10.484   0.096 -0.0683  1.0211  0.4467
26667SOL    HW286860   0.984  10.426  -0.021  1.5602 -1.9305  0.7440
26668SOL     OW86861   8.543  10.705   2.140 -0.1202 -0.3310  0.0656
26668SOL    HW186862   8.594  10.667   2.212  2.2256 -0.1078 -1.3841
26668SOL    HW286863   8.516  10.791   2.173 -1.2126 -1.1812  1.5331
26669SOL     OW86864   4.837   6.497  12.299  0.2996 -0.0944 -0.7723
26669SOL    HW186865   4.800   6.527  12.382  3.4241 -2.3024  1.6078
26669SOL    HW286866   4.780   6.426  12.271 -0.5608  0.4142 -0.3465
26670SOL     OW86867   0.192  12.229   3.142 -0.6721  0.2554  0.2954
26670SOL    HW186868   0.273  12.182   3.161  0.2302  1.2144 -1.0448
26670SOL    HW286869   0.187  12.297   3.210 -0.3592  0.1989  0.3729
26671SOL     OW86870   5.031   5.037   5.103  0.3179  0.4317  0.2185
26671SOL    HW186871   4.955   5.021   5.159  0.8410  1.3583  1.2215
26671SOL    HW286872   5.054   4.951   5.068 -0.8792  0.0682  0.2942
26672SOL     OW86873   6.267   6.578   3.893 -0.0779  0.0187  0.5276
26672SOL    HW186874   6.260   6.534   3.978 -1.0873 -1.3675 -0.2123
26672SOL    HW286875   6.205   6.530   3.838 -0.0985  1.4632 -0.7525
26673SOL     OW86876   8.646   3.506   5.134 -0.3037  0.0779 -0.0292
26673SOL    HW186877   8.615   3.571   5.197  1.1416 -0.7440  1.6144
26673SOL    HW286878   8.628   3.421   5.176  1.2154 -0.4802 -0.4350
26674SOL     OW86879   9.978   2.860  10.146 -0.0213 -0.2405  0.2731
26674SOL    HW186880  10.000   2.950  10.170  0.9961  0.0244 -1.4493
26674SOL    HW286881   9.883   2.854  10.156  0.0848  0.5396  1.8933
26675SOL     OW86882   5.812   7.483   4.692 -0.2498 -0.0857  0.1626
26675SOL    HW186883   5.878   7.476   4.760 -0.9483 -1.2730  0.7612
26675SOL    HW286884   5.795   7.577   4.684  0.7577  0.1529  0.7192
26676SOL     OW86885   8.298   2.238   2.560  0.3538  0.4156  0.2290
26676SOL    HW186886   8.364   2.208   2.497 -1.8540 -0.2035 -1.9539
26676SOL    HW286887   8.294   2.333   2.546  1.0609  0.5265  0.7060
26677SOL     OW86888   6.795   9.558   4.393 -0.3363 -0.0431  0.1571
26677SOL    HW186889   6.867   9.575   4.332  3.4883 -1.0584  3.9177
26677SOL    HW286890   6.792   9.635   4.449 -0.9498 -0.7689  1.1436
26678SOL     OW86891   1.085   5.386   3.021 -0.1241  0.3977  0.4839
26678SOL    HW186892   1.044   5.348   3.099 -1.1530 -0.0033 -0.2349
26678SOL    HW286893   1.169   5.419   3.052  0.3394 -1.4943  1.3793
26679SOL     OW86894   5.303   4.879   3.908  0.2515 -0.1914 -0.0482
26679SOL    HW186895   5.372   4.860   3.844 -0.1377 -0.2415 -0.4537
26679SOL    HW286896   5.345   4.863   3.993  1.1021  0.9093 -0.2346
26680SOL     OW86897   5.758   3.383   7.329 -0.0612  0.1018 -0.1585
26680SOL    HW186898   5.853   3.390   7.335 -0.0798  0.7234 -0.5287
26680SOL    HW286899   5.727   3.397   7.419  0.1528  0.6409 -0.1677
26681SOL     OW86900   0.505   9.584   1.922 -0.2865 -0.3838  0.0770
26681SOL    HW186901   0.477   9.671   1.893  0.1841  0.7003  2.5726
26681SOL    HW286902   0.448   9.563   1.996  0.9691 -1.2018  0.8695
26682SOL     OW86903  10.895   2.868  11.591  0.4856  0.3116  0.0052
26682SOL    HW186904  10.873   2.895  11.680 -1.7756  2.3065 -1.0605
26682SOL    HW286905  10.935   2.781  11.601 -1.9809 -0.6514  2.7755
26683SOL     OW86906   0.720   5.353   1.168  0.4248  0.2147  0.0393
26683SOL    HW186907   0.729   5.361   1.263  0.2307  1.8668 -0.0421
26683SOL    HW286908   0.653   5.287   1.156  0.9842 -0.5693  1.0277
26684SOL     OW86909   5.549   5.942   9.964 -0.1949 -0.1757  0.5749
26684SOL    HW186910   5.631   5.986   9.988 -0.0578 -0.9736  1.6532
26684SOL    HW286911   5.494   6.012   9.929  0.5692  0.5695  0.8196
26685SOL     OW86912  11.265   7.303   3.051  0.1918 -0.6027 -0.2503
26685SOL    HW186913  11.354   7.280   3.022 -0.0274  0.5347 -2.0309
26685SOL    HW286914  11.279   7.371   3.117  0.6719  1.0411 -1.9565
26686SOL     OW86915   7.949   6.361  10.922 -0.0857  0.1012 -0.0437
26686SOL    HW186916   8.007   6.437  10.914  2.3838 -1.3871  2.0721
26686SOL    HW286917   7.967   6.310  10.843 -1.1977  1.2993 -1.1053
26687SOL     OW86918   9.700  11.723  10.801 -0.5214  0.0204 -0.6509
26687SOL    HW186919   9.791  11.752  10.808 -0.1408 -1.5181  4.0940
26687SOL    HW286920   9.650  11.805  10.795  1.0075  0.9445 -1.7789
26688SOL     OW86921   5.413   7.897   5.574  0.2958  0.3586 -0.2908
26688SOL    HW186922   5.495   7.921   5.616  1.1793 -0.9970 -1.1667
26688SOL    HW286923   5.385   7.817   5.619 -0.5050  0.7558 -0.0594
26689SOL     OW86924   0.472   3.409  11.180 -0.2734  0.3546  0.6133
26689SOL    HW186925   0.547   3.426  11.236  0.1901  0.8794 -0.1381
26689SOL    HW286926   0.506   3.420  11.091 -0.6613 -1.6864  0.1560
26690SOL     OW86927  10.265   5.635  11.193 -0.0016 -0.0855 -0.3134
26690SOL    HW186928  10.287   5.727  11.178 -0.2261 -0.1946 -1.4041
26690SOL    HW286929  10.348   5.589  11.186  0.1214  0.0293  0.2957
26691SOL     OW86930  10.406  11.952   2.407  0.3496 -0.2485 -0.2664
26691SOL    HW186931  10.379  11.942   2.498 -0.1182  1.3149 -0.2117
26691SOL    HW286932  10.405  12.046   2.392 -4.2061 -0.4574 -3.2218
26692SOL     OW86933   2.364   6.707   9.309 -0.0456 -0.2990 -0.4441
26692SOL    HW186934   2.387   6.732   9.220 -1.4052 -0.2679 -0.8177
26692SOL    HW286935   2.280   6.752   9.325  1.0670  1.2427  1.5506
26693SOL     OW86936   3.203   4.112  12.407 -0.3985  0.1392 -0.4205
26693SOL    HW186937   3.223   4.027  12.369  1.6221 -0.4540  1.7344
26693SOL    HW286938   3.119   4.099  12.453  0.1532 -0.8732  0.3396
26694SOL     OW86939  11.947   6.124   8.699 -0.1772  0.4200 -0.1646
26694SOL    HW186940  11.946   6.220   8.704  0.7227  0.4396 -0.1883
26694SOL    HW286941  12.022   6.098   8.752  0.1071 -0.2276 -0.8653
26695SOL     OW86942   6.438  11.289   8.971  0.1592  0.0691  0.2862
26695SOL    HW186943   6.386  11.319   8.896  0.8569  0.3742 -0.0835
26695SOL    HW286944   6.458  11.370   9.020 -0.9906 -0.2078  1.2778
26696SOL     OW86945   7.839   9.907   7.912 -0.3087 -0.2662 -0.9224
26696SOL    HW186946   7.818   9.928   8.003 -1.1613  2.5477 -1.6631
26696SOL    HW286947   7.756   9.877   7.875 -0.2667 -0.2130 -1.0607
26697SOL     OW86948   2.080  11.953   0.179 -0.1959 -0.0756 -0.0989
26697SOL    HW186949   2.100  11.899   0.254  2.0785 -1.4902 -1.5908
26697SOL    HW286950   2.120  12.038   0.199  1.4009 -0.7862 -0.1299
26698SOL     OW86951   3.886   9.153  10.486  0.7839  0.5714 -0.3309
26698SOL    HW186952   3.877   9.217  10.416  0.9026  0.8614 -0.0859
26698SOL    HW286953   3.910   9.071  10.442 -0.6620  0.3586 -0.7674
26699SOL     OW86954   5.766   4.368   9.327 -0.2747 -0.0572  0.4966
26699SOL    HW186955   5.859   4.375   9.306  0.2839 -1.8698  2.0579
26699SOL    HW286956   5.753   4.427   9.401 -0.2174 -0.2693  0.6768
26700SOL     OW86957   2.161   4.736   7.681 -0.2436  0.6321  0.0945
26700SOL    HW186958   2.117   4.755   7.764  1.9243  2.6170  0.9054
26700SOL    HW286959   2.201   4.650   7.694 -0.3016  0.7269  0.9456
26701SOL     OW86960   4.954   6.238   4.997  0.3973  0.2649  0.2493
26701SOL    HW186961   4.993   6.165   5.045 -1.9009 -1.2040  0.0478
26701SOL    HW286962   4.884   6.270   5.054 -0.3237  0.5588 -0.7524
26702SOL     OW86963  10.193   8.897   7.090  0.5303  0.0053  0.4235
26702SOL    HW186964  10.273   8.926   7.133  0.0755 -0.3481  1.5634
26702SOL    HW286965  10.124   8.912   7.155 -0.5911  1.6888 -1.0444
26703SOL     OW86966   7.083   1.323   4.231  0.1129 -0.3771 -0.6428
26703SOL    HW186967   7.077   1.397   4.292 -2.2719 -1.5681  0.7154
26703SOL    HW286968   7.170   1.286   4.248 -0.0606 -0.0259  1.3145
26704SOL     OW86969   9.286  12.427   9.861  0.0461  0.3983  0.3794
26704SOL    HW186970   9.336  12.349   9.883  0.7345  0.7048 -0.0871
26704SOL    HW286971   9.208  12.394   9.817 -0.4243 -0.1095  1.5527
26705SOL     OW86972   4.595  10.952   0.244  0.3655  0.3042  0.1636
26705SOL    HW186973   4.657  10.888   0.278  2.1357  1.3588 -0.9255
26705SOL    HW286974   4.558  10.911   0.166 -0.1381 -0.2243  0.6721
26706SOL     OW86975   8.355   8.772   8.404  0.3542  0.0261 -0.3659
26706SOL    HW186976   8.322   8.755   8.315  1.2313 -1.8118 -0.3796
26706SOL    HW286977   8.438   8.818   8.390 -0.1512  0.9461 -0.4349
26707SOL     OW86978  12.503   0.063   4.623 -0.1792  0.1364 -0.9141
26707SOL    HW186979  12.435   0.016   4.575 -0.3777 -0.8635  0.3076
26707SOL    HW286980  12.554  -0.006   4.666  0.1376  0.9901  0.1141
26708SOL     OW86981   1.388   3.140   8.953  0.3338 -0.2736 -0.8362
26708SOL    HW186982   1.379   3.081   9.028  1.8229  1.0683  0.4556
26708SOL    HW286983   1.300   3.176   8.941  0.2325  0.0977  0.8055
26709SOL     OW86984   2.984   1.185   4.142 -0.1756 -0.0265 -0.0529
26709SOL    HW186985   2.920   1.207   4.210  0.8320 -1.6514  1.4962
26709SOL    HW286986   3.069   1.189   4.186  0.5190 -1.1256 -1.2131
26710SOL     OW86987   2.148   0.598   0.823  0.2684 -0.5743 -0.0466
26710SOL    HW186988   2.204   0.575   0.897  2.1335  0.3008 -1.1124
26710SOL    HW286989   2.159   0.527   0.761 -0.2136 -0.6295 -0.0782
26711SOL     OW86990   4.289   9.715  11.214  0.2155 -0.1699 -0.1781
26711SOL    HW186991   4.350   9.680  11.148  0.8542 -1.9591  1.3039
26711SOL    HW286992   4.346   9.755  11.280 -0.2738 -0.8949  0.6885
26712SOL     OW86993   3.856   4.319   6.750 -0.0919  0.1112  0.0969
26712SOL    HW186994   3.822   4.407   6.767 -0.1379  0.0860  0.1376
26712SOL    HW286995   3.862   4.279   6.837 -0.3304 -0.0197  0.0520
26713SOL     OW86996   7.451   6.118   2.995  0.2951  0.8287 -0.7090
26713SOL    HW186997   7.400   6.092   2.918 -0.5219  0.6712 -0.1310
26713SOL    HW286998   7.435   6.212   3.003  0.5477  0.8842 -0.8508
26714SOL     OW86999   3.562  12.104   3.083 -0.1860 -0.2061 -0.2618
26714SOL    HW187000   3.607  12.154   3.151  0.6749 -0.3095 -0.7477
26714SOL    HW287001   3.516  12.035   3.131 -0.1630  0.1457  0.2761
26715SOL     OW87002   9.335   5.659  11.703  0.0135 -0.2439 -0.4053
26715SOL    HW187003   9.384   5.609  11.769 -0.2538  1.1968  0.9532
26715SOL    HW287004   9.399   5.679  11.635  0.6349 -0.6698  0.0479
26716SOL     OW87005   6.028  10.721   0.315 -0.1700  0.4933  1.1333
26716SOL    HW187006   5.965  10.793   0.311 -1.3771 -0.5453  0.2181
26716SOL    HW287007   5.985  10.656   0.371 -0.2161 -0.4828  0.0070
26717SOL     OW87008   9.804   2.063   1.907  0.3985 -0.4011  0.0517
26717SOL    HW187009   9.781   2.141   1.958 -1.2705 -0.9341  0.1569
26717SOL    HW287010   9.814   2.096   1.817  2.0939  0.3156  0.4669
26718SOL     OW87011   4.084   6.658  10.181  0.1711  0.3472 -0.8294
26718SOL    HW187012   4.035   6.692  10.106  0.2323 -1.6170 -1.8542
26718SOL    HW287013   4.166   6.626  10.143 -0.0125 -1.1556 -0.0514
26719SOL     OW87014   8.322   8.783   4.733  0.1533  0.0611  0.7343
26719SOL    HW187015   8.369   8.865   4.749 -1.1915  0.6151  2.1723
26719SOL    HW287016   8.238   8.811   4.695 -0.6896 -0.5411  2.0718
26720SOL     OW87017   0.118   8.593   7.329  0.2598  0.4590  0.4016
26720SOL    HW187018   0.113   8.665   7.393 -1.3951 -0.4436  1.3470
26720SOL    HW287019   0.076   8.628   7.251 -0.5573  0.5206  0.8644
26721SOL     OW87020   9.656   8.018   2.107  0.2586  0.0275  0.3012
26721SOL    HW187021   9.733   7.970   2.136  0.5639  0.4983  0.2861
26721SOL    HW287022   9.654   8.096   2.162 -1.2087 -0.8170  1.5328
26722SOL     OW87023   9.849  11.045   0.498 -0.1629  0.1644  0.2907
26722SOL    HW187024   9.883  11.134   0.496 -0.4449  0.2557 -1.2650
26722SOL    HW287025   9.926  10.989   0.493 -0.1143  0.3541 -1.2844
26723SOL     OW87026   7.453   9.854   2.362  0.5217  0.0031  0.0234
26723SOL    HW187027   7.540   9.894   2.358  0.1721  1.0239  1.5224
26723SOL    HW287028   7.435   9.825   2.273  2.6529 -0.8102 -0.1933
26724SOL     OW87029   1.505   7.896  10.117  0.5350  0.0060  0.2066
26724SOL    HW187030   1.579   7.886  10.057  0.8318 -2.8724  0.9360
26724SOL    HW287031   1.544   7.894  10.204 -0.4017 -2.3891  0.6317
26725SOL     OW87032   0.396   5.198   3.063 -0.2678  0.1970  0.2196
26725SOL    HW187033   0.421   5.291   3.065 -0.6044  0.2800  0.7845
26725SOL    HW287034   0.478   5.152   3.046 -0.2991  0.6668 -1.4063
26726SOL     OW87035   1.816   6.055   1.000 -0.0119 -0.3735 -0.3224
26726SOL    HW187036   1.725   6.042   1.024 -0.4299  2.5917  0.0898
26726SOL    HW287037   1.850   5.967   0.985 -2.4882 -1.6678  1.0708
26727SOL     OW87038  10.441  10.876   2.897  0.0728  0.1829 -0.5623
26727SOL    HW187039  10.350  10.864   2.871 -0.3430  0.0031  0.9108
26727SOL    HW287040  10.455  10.811   2.967  1.5784 -0.3651 -1.3256
26728SOL     OW87041   4.906  11.131   0.256  0.2058  0.0318 -0.0376
26728SOL    HW187042   4.948  11.099   0.336  1.9198  1.8253 -0.1239
26728SOL    HW287043   4.937  11.073   0.187 -1.2488 -1.5030  0.5505
26729SOL     OW87044  10.081  11.552   0.589  0.0789  0.3785 -0.0570
26729SOL    HW187045   9.989  11.572   0.606  0.0795 -0.3304  0.8511
26729SOL    HW287046  10.125  11.568   0.672  0.5343 -0.6150 -0.0878
26730SOL     OW87047   4.316   6.018   1.152  0.0308  0.0613 -0.2750
26730SOL    HW187048   4.274   5.989   1.071 -1.6300 -0.5439  0.7536
26730SOL    HW287049   4.405   6.040   1.125 -0.4531 -0.1434 -2.2545
26731SOL     OW87050   4.359   8.747   8.863  0.7532 -0.4957 -0.1432
26731SOL    HW187051   4.435   8.767   8.809  1.3160  2.7291  1.5641
26731SOL    HW287052   4.396   8.710   8.944  0.4866  0.3807  0.3955
26732SOL     OW87053   8.270  12.232   0.109 -0.3165  0.3255  0.0474
26732SOL    HW187054   8.262  12.305   0.170 -2.8576 -0.5058  0.8217
26732SOL    HW287055   8.276  12.155   0.165 -1.6018 -0.3629 -0.7200
26733SOL     OW87056   5.895  10.424   6.537  0.3633 -0.2789 -0.0232
26733SOL    HW187057   5.895  10.482   6.613 -1.6071  1.1011 -0.9814
26733SOL    HW287058   5.983  10.431   6.500  0.4291  1.4297  0.4089
26734SOL     OW87059   6.852  10.223   9.103  0.2291 -0.0924 -0.2239
26734SOL    HW187060   6.855  10.140   9.056  1.4037 -0.0770 -0.2220
26734SOL    HW287061   6.777  10.269   9.066  0.4370 -0.5569 -1.2823
26735SOL     OW87062   0.275  11.246  10.873  0.1184  0.3227  0.5259
26735SOL    HW187063   0.189  11.205  10.883  1.4680 -2.6445  1.4309
26735SOL    HW287064   0.283  11.265  10.780 -1.2245 -0.0586  0.3195
26736SOL     OW87065  12.275   8.898   7.745  0.3280 -0.3885 -0.1495
26736SOL    HW187066  12.190   8.923   7.782  0.8964  1.0043  0.2933
26736SOL    HW287067  12.305   8.826   7.799 -0.0599 -0.1273  0.4245
26737SOL     OW87068   0.315   6.859   0.618  0.5148 -0.4443 -0.1932
26737SOL    HW187069   0.229   6.859   0.577 -0.3248  1.1098  1.3972
26737SOL    HW287070   0.352   6.774   0.596 -1.4162 -1.1584 -0.9488
26738SOL     OW87071   4.455  10.647  10.453  0.3001 -0.0417  0.2466
26738SOL    HW187072   4.482  10.724  10.503 -0.1488 -0.8447  1.7935
26738SOL    HW287073   4.399  10.682  10.384 -1.0466  0.9406  1.7521
26739SOL     OW87074   0.989   6.470  12.419 -0.2058  0.4272  0.0226
26739SOL    HW187075   0.950   6.556  12.438 -0.0108  0.0732  2.3749
26739SOL    HW287076   1.021   6.439  12.504 -0.9805 -2.3288 -0.5848
26740SOL     OW87077   6.304  11.441   8.520 -0.3529  0.1689  0.0338
26740SOL    HW187078   6.310  11.513   8.457 -1.6809  0.3186  0.0371
26740SOL    HW287079   6.338  11.365   8.472 -2.4139  0.0278 -1.3534
26741SOL     OW87080   7.130   4.766  12.307  0.0823  0.2431 -0.2869
26741SOL    HW187081   7.044   4.753  12.346  0.3518  0.0335  0.2560
26741SOL    HW287082   7.143   4.689  12.251  0.9426 -1.0701  1.5733
26742SOL     OW87083   0.281   2.770  11.487  0.4644 -0.2010  0.4338
26742SOL    HW187084   0.313   2.860  11.477 -0.4502  0.0147 -0.8265
26742SOL    HW287085   0.288   2.733  11.399  0.3319 -1.1930  0.8359
26743SOL     OW87086   0.457   1.019   3.035  0.4565 -0.0079  0.4741
26743SOL    HW187087   0.530   0.973   3.078 -0.1542  0.5076  2.1538
26743SOL    HW287088   0.379   0.985   3.079 -0.3252 -0.4391 -1.1974
26744SOL     OW87089   0.748  11.978   8.832  0.6124 -0.0706  0.5394
26744SOL    HW187090   0.673  11.918   8.825  0.1996  0.5023 -0.1436
26744SOL    HW287091   0.708  12.065   8.842  1.1791  0.2388  0.1972
26745SOL     OW87092  10.535   7.475   7.359  0.4135  0.2178  0.6679
26745SOL    HW187093  10.517   7.449   7.449  2.0969 -0.4151  0.8507
26745SOL    HW287094  10.610   7.535   7.366 -0.5871  1.6423 -0.1665
26746SOL     OW87095   0.512   3.418   6.480 -0.3633 -0.2261  0.3116
26746SOL    HW187096   0.475   3.381   6.560 -0.7554  1.7585  1.1068
26746SOL    HW287097   0.605   3.400   6.485 -0.2122  0.8625  1.7975
26747SOL     OW87098   6.778   7.819   1.878 -0.7067 -0.3493 -0.0819
26747SOL    HW187099   6.841   7.782   1.941  0.2885  0.8180 -0.3512
26747SOL    HW287100   6.829   7.882   1.827 -1.8794 -0.0904 -0.9856
26748SOL     OW87101  11.239   0.389   9.367  0.3508 -0.1045 -0.0707
26748SOL    HW187102  11.184   0.377   9.290 -1.3128  3.0537  0.4202
26748SOL    HW287103  11.199   0.333   9.434 -0.5800  0.0147 -0.5057
26749SOL     OW87104   5.406   0.799  11.684 -0.2867 -0.2328 -0.5375
26749SOL    HW187105   5.324   0.805  11.734  0.2376 -1.7566  0.5858
26749SOL    HW287106   5.378   0.792  11.593 -1.3192  1.2293 -0.3721
26750SOL     OW87107   9.958  10.231   6.860 -0.6153  0.4977  0.1177
26750SOL    HW187108   9.936  10.176   6.935  0.6714 -1.5695 -0.9457
26750SOL    HW287109  10.053  10.225   6.853 -0.8095 -0.7283 -2.6385
26751SOL     OW87110   7.482   5.445   5.456 -0.6828  0.5586  0.2607
26751SOL    HW187111   7.512   5.525   5.499  0.4294 -0.5757  1.6985
26751SOL    HW287112   7.496   5.461   5.363 -0.2253  1.9275  0.5388
26752SOL     OW87113   2.359   3.757   8.039 -0.1794 -0.1534 -0.3773
26752SOL    HW187114   2.364   3.688   7.972  0.1024  0.2381 -0.7667
26752SOL    HW287115   2.394   3.717   8.118  1.9256  0.1479 -1.1084
26753SOL     OW87116   1.289   2.511   6.302 -0.3745  0.0413  0.0726
26753SOL    HW187117   1.264   2.591   6.256 -0.2103  0.1882  0.2365
26753SOL    HW287118   1.256   2.523   6.391  0.4003  0.3036  0.3343
26754SOL     OW87119   4.664   7.740  11.044 -0.0015 -0.0083  0.7809
26754SOL    HW187120   4.706   7.729  11.130  0.2081  0.5685  0.7529
26754SOL    HW287121   4.625   7.827  11.047 -2.3047 -0.9798  1.2685
26755SOL     OW87122   6.333   8.713  11.176 -0.2268  0.2331  0.1277
26755SOL    HW187123   6.278   8.738  11.251 -0.6108  1.4747 -0.5335
26755SOL    HW287124   6.415   8.760  11.191 -0.2552  0.3727 -0.1451
26756SOL     OW87125   5.777   0.685   9.410  0.1103  0.0691 -0.1517
26756SOL    HW187126   5.759   0.614   9.348 -0.3870  0.5704 -0.6061
26756SOL    HW287127   5.770   0.645   9.496 -2.6074  0.0454 -0.3083
26757SOL     OW87128   6.705   7.924   2.792 -0.1863  0.5220 -0.1652
26757SOL    HW187129   6.760   7.861   2.745 -1.3790 -0.5986 -0.0992
26757SOL    HW287130   6.731   8.009   2.756  1.1733 -0.0211 -0.5428
26758SOL     OW87131   4.105   4.298   1.335  0.6779  0.2023 -0.4568
26758SOL    HW187132   4.133   4.381   1.373  0.1461  0.5195 -0.7377
26758SOL    HW287133   4.180   4.239   1.345  1.0216  0.6876 -0.1692
26759SOL     OW87134   4.345   0.862   3.635  0.1887  0.3714  0.1549
26759SOL    HW187135   4.397   0.874   3.715  0.1347 -0.5128  0.3318
26759SOL    HW287136   4.409   0.863   3.564  0.5999 -1.5749  0.4349
26760SOL     OW87137   1.695  10.074  10.955 -0.0400 -0.0433 -0.1181
26760SOL    HW187138   1.758  10.130  10.909  1.1237 -0.6732  0.6600
26760SOL    HW287139   1.611  10.119  10.944  0.7103  1.4132 -0.2400
26761SOL     OW87140   4.424   9.620   7.759  0.3443 -0.3967  0.1078
26761SOL    HW187141   4.350   9.586   7.709 -0.1633 -0.7091  1.0549
26761SOL    HW287142   4.390   9.697   7.804  0.6349 -0.4425  0.4109
26762SOL     OW87143   7.626  12.408  12.517 -0.0170  0.2429  0.3251
26762SOL    HW187144   7.611  12.494  12.477  0.2113  0.8100  1.4025
26762SOL    HW287145   7.721  12.398  12.516 -0.1030 -0.5480 -0.8851
26763SOL     OW87146   4.377   0.136  11.609 -0.5595  0.3221 -0.0419
26763SOL    HW187147   4.326   0.127  11.690  1.0034 -2.0895  0.7872
26763SOL    HW287148   4.436   0.210  11.626  0.5546 -0.8794  1.5434
26764SOL     OW87149   8.929   2.385   1.452  0.5701 -0.2586  0.0688
26764SOL    HW187150   8.912   2.310   1.396  0.8539  0.6095 -1.2447
26764SOL    HW287151   9.024   2.390   1.458  0.5526 -1.0074  1.6222
26765SOL     OW87152  11.620   7.124  12.405 -0.0885 -0.1824 -0.1974
26765SOL    HW187153  11.671   7.045  12.420 -1.1204 -0.5967  1.3972
26765SOL    HW287154  11.672   7.195  12.442 -0.7269 -0.6390  1.6782
26766SOL     OW87155   5.197   3.833   5.429  0.1771  0.1330 -0.0617
26766SOL    HW187156   5.186   3.918   5.387 -3.2030 -0.6027 -0.9793
26766SOL    HW287157   5.115   3.818   5.475  0.3493 -2.8892 -0.5242
26767SOL     OW87158   1.633   1.637  10.726 -0.2781  0.0281 -0.4270
26767SOL    HW187159   1.697   1.678  10.785 -0.5630  0.0127 -0.1033
26767SOL    HW287160   1.684   1.577  10.673  0.1470  0.7904 -0.8953
26768SOL     OW87161   9.895  11.995   1.915 -0.9533  0.3566  0.5026
26768SOL    HW187162   9.904  11.931   1.845 -0.3896  0.1011  0.7972
26768SOL    HW287163   9.865  11.944   1.990 -1.6698  0.6482  0.4216
26769SOL     OW87164   7.451  11.633  10.276 -0.4814 -0.5463  0.5118
26769SOL    HW187165   7.495  11.558  10.235  1.0567 -0.0847  1.2119
26769SOL    HW287166   7.392  11.593  10.341  0.2964 -1.1706  0.8550
26770SOL     OW87167   3.018   8.970   6.809 -0.8198  0.3931  0.1180
26770SOL    HW187168   3.047   9.031   6.742  1.2730 -1.7828 -1.1003
26770SOL    HW287169   2.947   8.921   6.767 -0.8699  0.3771  0.2209
26771SOL     OW87170   8.383   5.426  10.522 -0.5264 -0.5441  0.0509
26771SOL    HW187171   8.349   5.340  10.501 -0.9045 -0.2066 -0.7715
26771SOL    HW287172   8.477   5.420  10.504 -0.7677 -0.3974 -1.3894
26772SOL     OW87173   4.795   8.273   3.067  0.7763 -0.4101  0.2742
26772SOL    HW187174   4.883   8.272   3.028 -0.2143  1.0989 -2.2025
26772SOL    HW287175   4.755   8.192   3.036  0.6049 -0.0856 -0.3708
26773SOL     OW87176   5.971   5.011  10.283 -0.0231  0.2887 -0.3772
26773SOL    HW187177   5.986   4.933  10.229 -2.3462 -0.4854 -0.0057
26773SOL    HW287178   5.987   4.981  10.373 -1.0864  0.1709 -0.2190
26774SOL     OW87179   2.951   0.314   5.447 -0.2766 -0.1560  0.1065
26774SOL    HW187180   2.993   0.249   5.391  1.7426 -0.4247  1.8148
26774SOL    HW287181   2.918   0.263   5.522  0.0189  0.5712  0.7496
26775SOL     OW87182  11.661   5.269   8.253 -0.0023 -0.3633  0.5059
26775SOL    HW187183  11.569   5.287   8.274 -0.4963 -1.0586 -0.9499
26775SOL    HW287184  11.696   5.354   8.225  0.0984  0.1202  2.0321
26776SOL     OW87185   0.525   1.434   5.469  0.2548 -0.1652  0.3184
26776SOL    HW187186   0.604   1.400   5.510 -0.0246  1.2098  2.0939
26776SOL    HW287187   0.520   1.388   5.385  2.5646 -0.7555  0.4445
26777SOL     OW87188   8.632   1.606   9.612 -0.1085 -0.1480 -0.3259
26777SOL    HW187189   8.590   1.536   9.661  0.5940  1.3257  2.6326
26777SOL    HW287190   8.714   1.568   9.581 -0.5067 -1.0943 -0.2557
26778SOL     OW87191  10.374   6.090  10.013  0.4778  0.2593 -0.5085
26778SOL    HW187192  10.412   6.059   9.931 -3.1909 -2.0432 -1.5626
26778SOL    HW287193  10.329   6.171   9.989 -1.3474 -0.8747 -1.0990
26779SOL     OW87194   3.322   1.054  11.477 -0.0595 -0.1858 -0.1850
26779SOL    HW187195   3.300   0.984  11.539 -0.8746  1.4811  1.4994
26779SOL    HW287196   3.384   1.109  11.524  1.4824 -0.3446 -1.9176
26780SOL     OW87197   5.010   9.880  11.538  0.6898  0.1522 -0.5363
26780SOL    HW187198   4.915   9.897  11.539  0.8275  1.0106 -0.8274
26780SOL    HW287199   5.033   9.883  11.445  1.1707  0.9832 -0.3987
26781SOL     OW87200   7.028   9.674   2.082  0.2343  0.0892 -0.1125
26781SOL    HW187201   7.075   9.738   2.028  0.8973 -0.4472 -0.1884
26781SOL    HW287202   7.097   9.628   2.129 -0.0827 -1.8377 -1.4451
26782SOL     OW87203   0.940   5.430  11.279  0.1734 -0.2654 -0.1667
26782SOL    HW187204   0.849   5.421  11.248 -0.1745  1.4745  0.2124
26782SOL    HW287205   0.993   5.410  11.202 -0.6232  1.7982 -1.3366
26783SOL     OW87206   6.498   8.271   1.871 -0.4808 -0.9085 -0.5043
26783SOL    HW187207   6.520   8.292   1.962 -0.2052 -2.3672 -0.2043
26783SOL    HW287208   6.533   8.183   1.858  0.2814 -0.3974 -2.3077
26784SOL     OW87209  12.235  11.774   8.124 -0.4286 -0.7998  0.1240
26784SOL    HW187210  12.199  11.862   8.141  1.4405  0.3182 -1.2865
26784SOL    HW287211  12.159  11.720   8.104 -1.5159  0.9137 -0.6156
26785SOL     OW87212   4.692   0.267  10.324  0.0258  0.3197  0.5220
26785SOL    HW187213   4.650   0.291  10.406 -1.0885 -0.5843  0.2549
26785SOL    HW287214   4.776   0.229  10.349 -1.2997 -2.2192  1.4802
26786SOL     OW87215   1.942   4.067   9.217 -0.3958  0.3857 -0.7022
26786SOL    HW187216   1.991   4.038   9.294  0.3815  0.8823 -1.0032
26786SOL    HW287217   1.857   4.022   9.224 -0.2539  0.2695  0.3276
26787SOL     OW87218  11.547   1.101   9.537  0.2051 -0.0628 -0.2296
26787SOL    HW187219  11.573   1.012   9.563 -1.8172 -0.7351 -0.3773
26787SOL    HW287220  11.627   1.153   9.549  1.4946 -1.9111 -0.2975
26788SOL     OW87221   8.946  10.662   6.256  0.1610 -0.1820  0.4725
26788SOL    HW187222   8.871  10.722   6.261 -1.2653 -1.7034 -1.1041
26788SOL    HW287223   8.988  10.669   6.341 -1.0947  1.5879  1.0034
26789SOL     OW87224   1.740  10.836   4.592 -0.1402 -0.7223  0.7043
26789SOL    HW187225   1.790  10.900   4.643  0.7511 -0.6520 -0.2311
26789SOL    HW287226   1.664  10.885   4.561 -0.4160 -0.6243  1.5064
26790SOL     OW87227   3.575   5.232  12.351 -0.1867 -0.0905 -0.3778
26790SOL    HW187228   3.502   5.242  12.290 -0.7644  0.8524  0.4582
26790SOL    HW287229   3.554   5.153  12.401 -0.6606  0.2113 -0.0993
26791SOL     OW87230   3.578   6.226  12.001  0.3460 -0.1582 -0.4758
26791SOL    HW187231   3.559   6.231  11.908 -1.4862 -1.6889 -0.2491
26791SOL    HW287232   3.533   6.301  12.040 -1.6792 -1.2792 -0.4998
26792SOL     OW87233   2.408   6.356  10.959 -0.1369 -0.7400  0.1451
26792SOL    HW187234   2.472   6.408  10.911  0.7490 -1.6560  0.2922
26792SOL    HW287235   2.339   6.417  10.982  0.1588  0.0292 -0.9865
26793SOL     OW87236   9.861   4.760   9.270 -0.1388 -0.2689  0.5737
26793SOL    HW187237   9.849   4.827   9.203 -1.7907 -1.5368 -0.4834
26793SOL    HW287238   9.882   4.810   9.349  1.6005  1.2838 -0.7687
26794SOL     OW87239   7.093   8.234   3.951  0.0409 -0.8119 -0.2919
26794SOL    HW187240   7.087   8.198   3.863 -1.6168 -1.3578  0.0066
26794SOL    HW287241   7.002   8.256   3.974  0.1199 -2.4424  1.9632
26795SOL     OW87242   3.644   8.369  11.513 -0.1254 -0.1971 -0.3808
26795SOL    HW187243   3.702   8.294  11.522  0.8905  0.4888 -1.0183
26795SOL    HW287244   3.615   8.389  11.602  0.2483 -0.8397 -0.1144
26796SOL     OW87245   7.669   4.713  10.936 -0.1703 -0.8267 -0.0207
26796SOL    HW187246   7.640   4.707  10.845  1.6520 -2.4258 -0.5798
26796SOL    HW287247   7.755   4.755  10.930 -0.9352  1.0055  1.2270
26797SOL     OW87248   5.930   3.961   3.077  0.5474 -0.7493  0.1507
26797SOL    HW187249   5.848   3.940   3.121  2.2624 -2.9325  2.5747
26797SOL    HW287250   5.975   3.877   3.068  3.4374  0.5949  0.8929
26798SOL     OW87251  11.632   0.546   1.813  0.2637 -0.3390 -0.2432
26798SOL    HW187252  11.725   0.569   1.813  0.4021 -0.8790 -0.0500
26798SOL    HW287253  11.595   0.595   1.886  1.0159 -2.4589  1.6705
26799SOL     OW87254   4.197   4.245  10.169  0.3422 -0.0037  0.1511
26799SOL    HW187255   4.224   4.165  10.214  0.6404  1.1450  2.1383
26799SOL    HW287256   4.149   4.294  10.236 -0.4870  1.1487 -1.2442
26800SOL     OW87257   8.264  12.453   0.266 -0.3225  0.3453 -0.3634
26800SOL    HW187258   8.309  12.507   0.202  1.0895 -0.7127 -0.3029
26800SOL    HW287259   8.321  12.455   0.343  0.2319 -1.8878 -0.6465
26801SOL     OW87260   6.835  12.327   6.142 -0.4280 -0.2766 -0.4402
26801SOL    HW187261   6.758  12.273   6.158 -1.2590  1.5575  2.5782
26801SOL    HW287262   6.900  12.295   6.205 -0.4730  1.2879  0.4497
26802SOL     OW87263  12.145   2.954  11.192  0.4571  0.0150  0.2792
26802SOL    HW187264  12.212   2.896  11.228  0.9574  0.3314 -0.1278
26802SOL    HW287265  12.176   2.974  11.103 -0.6571 -0.5919 -0.2638
26803SOL     OW87266  10.070  11.199   9.181 -0.3766  0.1083  0.0356
26803SOL    HW187267  10.112  11.283   9.165 -0.1647 -0.0971 -0.5064
26803SOL    HW287268  10.021  11.212   9.263 -2.0751  1.4366 -1.0966
26804SOL     OW87269   7.590   8.095  10.376 -0.2478  0.1167  0.2076
26804SOL    HW187270   7.593   8.000  10.382 -1.7526  0.0025 -0.3772
26804SOL    HW287271   7.637   8.126  10.454 -0.2949 -1.1021  0.7333
26805SOL     OW87272  11.700   3.664  11.198  0.0488  0.4859  0.1899
26805SOL    HW187273  11.685   3.757  11.181 -0.6821  0.3596  0.1104
26805SOL    HW287274  11.692   3.622  11.113  0.0467  0.3042  0.2789
26806SOL     OW87275  12.254   2.162   9.752  0.0752 -0.3600  0.1323
26806SOL    HW187276  12.164   2.188   9.734  0.4824  1.6366  0.7417
26806SOL    HW287277  12.247   2.099   9.824 -0.8103  0.3993  0.7421
26807SOL     OW87278   3.922   1.820   6.379  0.3219 -0.6700  0.2568
26807SOL    HW187279   3.897   1.728   6.371 -1.5535 -0.3054  1.2692
26807SOL    HW287280   3.865   1.865   6.317  0.2000 -0.0504  0.8118
26808SOL     OW87281  10.171   5.744   5.220  0.6233  0.2765  0.7349
26808SOL    HW187282  10.257   5.785   5.232  0.0191  0.9702  3.4665
26808SOL    HW287283  10.140   5.727   5.310 -1.7961 -0.6131 -0.1819
26809SOL     OW87284  10.809   9.224  11.587  0.1390  0.7370  0.1484
26809SOL    HW187285  10.853   9.210  11.670 -0.9770  0.1686  0.6599
26809SOL    HW287286  10.716   9.216  11.607 -0.2344  2.0155 -0.8744
26810SOL     OW87287   3.016   8.594   2.836  0.0648 -0.4222 -0.5703
26810SOL    HW187288   3.040   8.591   2.928 -1.1084 -1.2717 -0.2770
26810SOL    HW287289   3.014   8.687   2.815  1.7008 -0.2499 -0.1321
26811SOL     OW87290   1.004   9.731   1.659  0.9168 -0.5091 -0.3572
26811SOL    HW187291   0.982   9.666   1.593 -0.2997 -2.1039  1.5102
26811SOL    HW287292   1.042   9.681   1.731  0.3466  0.8673  0.9752
26812SOL     OW87293   4.529   0.354  11.692 -0.3660  0.1060 -0.0768
26812SOL    HW187294   4.624   0.364  11.700 -0.2975  1.0951 -1.6541
26812SOL    HW287295   4.497   0.363  11.781  1.0384 -0.5022  0.5253
26813SOL     OW87296   9.048   8.421   4.349 -0.1347  0.1924 -0.3760
26813SOL    HW187297   8.975   8.362   4.327  2.2965 -2.8111 -1.1397
26813SOL    HW287298   9.054   8.480   4.274 -0.5439 -0.8688 -1.2766
26814SOL     OW87299   4.500  10.011   9.361  0.5135 -0.1805  0.3772
26814SOL    HW187300   4.568   9.956   9.398  0.7309 -1.7189 -2.0860
26814SOL    HW287301   4.437   9.950   9.323 -0.5739  1.2487 -0.2263
26815SOL     OW87302   1.181   2.745   2.305 -0.6559 -0.2401  0.2419
26815SOL    HW187303   1.239   2.816   2.333  1.2221 -1.0322 -1.3882
26815SOL    HW287304   1.160   2.697   2.385  1.1998 -0.0955  0.8477
26816SOL     OW87305   3.269  11.745   0.917 -0.1228  0.3045  0.3016
26816SOL    HW187306   3.290  11.788   0.834  0.2718  1.6109  1.0496
26816SOL    HW287307   3.179  11.714   0.907  0.0420  0.1501 -0.7301
26817SOL     OW87308  10.817   8.847   5.296  0.1223  0.0212 -0.0393
26817SOL    HW187309  10.889   8.882   5.243 -0.0485 -0.3469 -0.5288
26817SOL    HW287310  10.752   8.819   5.231  0.2617 -1.2108  0.3398
26818SOL     OW87311   8.586   4.932   1.237  0.2093  0.5968  0.1293
26818SOL    HW187312   8.636   4.998   1.190 -0.5817 -0.0007 -1.6076
26818SOL    HW287313   8.546   4.980   1.310 -0.5831  2.1271 -1.2455
26819SOL     OW87314  11.532   5.668   4.343  0.7198  0.4008 -0.1153
26819SOL    HW187315  11.542   5.649   4.436 -0.0721 -0.3194 -0.1664
26819SOL    HW287316  11.530   5.764   4.338  0.1814  0.4368  0.6847
26820SOL     OW87317   0.220   3.286   9.099  0.2399 -0.7337  0.1021
26820SOL    HW187318   0.300   3.234   9.087  0.6507 -0.2527  0.6660
26820SOL    HW287319   0.205   3.326   9.013  0.0053 -1.6539 -0.2927
26821SOL     OW87320   1.259  11.442   1.115 -0.0527 -0.3406  0.2815
26821SOL    HW187321   1.302  11.523   1.088 -2.0069 -0.1054 -2.5657
26821SOL    HW287322   1.205  11.467   1.190  0.9520  0.4746  0.7525
26822SOL     OW87323  11.525   6.779   3.585 -0.2595  0.3554 -0.5459
26822SOL    HW187324  11.569   6.864   3.591  0.7185 -0.2247  1.0500
26822SOL    HW287325  11.433   6.801   3.573 -0.2353  1.6948  1.3109
26823SOL     OW87326   8.391  11.152   6.710 -0.5643  0.0056  0.1558
26823SOL    HW187327   8.310  11.152   6.661  1.4914  0.8488 -3.6324
26823SOL    HW287328   8.421  11.243   6.707  1.9963 -0.7824 -1.4319
26824SOL     OW87329   6.820   2.326   0.928 -0.4241  0.1901 -0.3148
26824SOL    HW187330   6.757   2.384   0.885 -1.3693 -0.5507  0.0364
26824SOL    HW287331   6.786   2.316   1.017 -1.5012 -2.5321 -0.9069
26825SOL     OW87332   2.510   9.636  11.178 -0.0846 -0.1387  0.0926
26825SOL    HW187333   2.519   9.684  11.096  2.2348  1.3383  1.1119
26825SOL    HW287334   2.493   9.704  11.244  0.0843 -1.0534  1.1079
26826SOL     OW87335   9.628   4.670   1.542 -0.9378 -0.3613  0.0573
26826SOL    HW187336   9.670   4.636   1.462  0.8663  2.5850 -0.3925
26826SOL    HW287337   9.535   4.674   1.519 -0.6815 -1.1044 -1.2820
26827SOL     OW87338   4.949   9.013   9.912  0.2632  0.2487 -0.1818
26827SOL    HW187339   5.024   8.971   9.870  0.9518  1.3208 -0.0676
26827SOL    HW287340   4.890   8.941   9.934  0.8211 -0.5224 -1.1353
26828SOL     OW87341   0.456  11.255   2.417 -0.0107 -0.2872  0.1327
26828SOL    HW187342   0.550  11.274   2.422 -0.3204  1.4627 -0.1350
26828SOL    HW287343   0.430  11.241   2.508  0.2419  0.6809  0.3645
26829SOL     OW87344   3.161   0.211   3.046 -0.0816  0.0960  0.5398
26829SOL    HW187345   3.170   0.126   3.088 -0.7831  0.6406  1.8860
26829SOL    HW287346   3.088   0.253   3.092 -1.2210  0.5871 -1.5788
26830SOL     OW87347   1.112   8.800   9.508  0.1875 -0.2595 -0.1642
26830SOL    HW187348   1.111   8.893   9.530 -1.8198 -0.2134 -0.3082
26830SOL    HW287349   1.050   8.760   9.569  0.0147 -1.2752 -0.9772
26831SOL     OW87350   6.471   8.077   8.247  0.4398 -0.1538 -0.1321
26831SOL    HW187351   6.497   8.157   8.293 -1.2900  0.8542 -0.7690
26831SOL    HW287352   6.384   8.057   8.281 -0.5458  0.1549 -2.2811
26832SOL     OW87353  11.081   8.779   7.518  0.2844 -0.2812 -0.1115
26832SOL    HW187354  11.055   8.722   7.446  1.8434 -0.3871 -0.6402
26832SOL    HW287355  11.140   8.843   7.478 -1.6585  1.9419  0.4109
26833SOL     OW87356   2.667  11.590   8.668  0.1085  0.0381 -0.0071
26833SOL    HW187357   2.748  11.637   8.648  1.9375 -2.9777 -0.1708
26833SOL    HW287358   2.685  11.499   8.648 -3.3423 -0.8240  0.0452
26834SOL     OW87359  11.543   6.600   2.892 -0.6912  0.5811  0.1755
26834SOL    HW187360  11.536   6.695   2.877 -0.2391  0.5611 -0.2024
26834SOL    HW287361  11.492   6.561   2.821  0.0100  0.5250 -0.3151
26835SOL     OW87362   8.227   8.080  10.614 -0.2825  0.0492 -0.3285
26835SOL    HW187363   8.133   8.066  10.614 -0.1283 -1.2382 -1.4807
26835SOL    HW287364   8.238   8.170  10.582 -1.1809  1.6170  3.2495
26836SOL     OW87365   5.652  11.516   3.279  0.5318 -0.4166  0.5718
26836SOL    HW187366   5.730  11.462   3.270  0.3029 -0.7528  0.5573
26836SOL    HW287367   5.591  11.460   3.328  0.7696  0.3320  1.7629
26837SOL     OW87368   5.032   1.704   1.585  0.3803 -0.0827 -0.3023
26837SOL    HW187369   4.955   1.731   1.635  0.4943 -0.4695  0.0937
26837SOL    HW287370   5.058   1.621   1.625  0.8167 -0.1108 -0.6378
26838SOL     OW87371   1.983   0.796   5.014  0.0762  0.1296 -0.0993
26838SOL    HW187372   2.025   0.787   4.929 -2.1222 -0.4652 -1.1740
26838SOL    HW287373   1.938   0.713   5.028  0.9906 -0.0940  2.0450
26839SOL     OW87374   8.591  10.945   4.704  0.1212 -0.1200  0.0172
26839SOL    HW187375   8.534  10.997   4.647 -0.8457 -0.6260  0.4995
26839SOL    HW287376   8.559  10.963   4.792  0.3172 -0.8866  0.2497
26840SOL     OW87377   8.339   8.813   3.727 -0.0819  0.3133 -0.2212
26840SOL    HW187378   8.332   8.755   3.651 -1.3600  0.4271 -0.2091
26840SOL    HW287379   8.428   8.799   3.759  0.0469 -0.7017 -0.9636
26841SOL     OW87380   7.719   3.675   4.082 -0.3919  0.1401  0.1052
26841SOL    HW187381   7.774   3.725   4.141  0.2616  1.4772 -1.5466
26841SOL    HW287382   7.635   3.668   4.126  0.9673 -1.8541  2.6493
26842SOL     OW87383   2.687   9.498  11.372 -0.5988  0.1440  0.0199
26842SOL    HW187384   2.594   9.504  11.348 -0.2953 -0.8756 -1.5439
26842SOL    HW287385   2.725   9.581  11.345 -0.9222  0.2904  0.0131
26843SOL     OW87386   1.973   3.099   8.915 -0.8077  0.1970  0.0382
26843SOL    HW187387   2.067   3.082   8.920 -0.9311 -0.1430  1.9794
26843SOL    HW287388   1.963   3.155   8.839  0.7437 -1.1535 -1.2255
26844SOL     OW87389   2.601  10.950   2.812 -0.0880 -0.0969 -0.0039
26844SOL    HW187390   2.654  10.952   2.732 -1.3153 -1.1171 -0.8758
26844SOL    HW287391   2.664  10.965   2.883  1.2310 -0.4476 -1.0662
26845SOL     OW87392   0.487   3.745   1.940  0.0771  0.2875  0.3485
26845SOL    HW187393   0.423   3.802   1.982 -0.3457  1.6703 -1.9551
26845SOL    HW287394   0.571   3.773   1.975 -0.2320  1.5930  0.1148
26846SOL     OW87395   8.768   4.431   8.122  0.0005 -0.0288  0.9349
26846SOL    HW187396   8.677   4.401   8.130 -0.1501  0.1097 -0.1455
26846SOL    HW287397   8.808   4.409   8.207 -1.2591  0.7126  1.7507
26847SOL     OW87398   8.066   6.007   8.208 -0.0788 -0.1641 -0.0657
26847SOL    HW187399   8.035   6.095   8.188  0.0575  0.3665  1.7846
26847SOL    HW287400   8.046   5.996   8.301  0.8083 -1.7068 -0.0252
26848SOL     OW87401   5.982   3.979  11.501 -0.3695  0.2859 -0.3273
26848SOL    HW187402   5.965   3.887  11.525  0.8833  0.3288  0.8154
26848SOL    HW287403   5.895   4.018  11.497 -1.0212 -1.1934 -1.9646
26849SOL     OW87404   2.265   8.012   6.416  0.0900  0.1646 -0.5671
26849SOL    HW187405   2.260   7.961   6.496  0.8919  1.6872  0.5044
26849SOL    HW287406   2.205   8.085   6.430  1.8837  1.6818 -0.3537
26850SOL     OW87407   7.938   9.828   7.408 -0.3284  0.0405 -0.0629
26850SOL    HW187408   7.971   9.873   7.487  0.5416 -0.4921 -0.1076
26850SOL    HW287409   8.017   9.798   7.364 -0.8316  0.0319 -0.9682
26851SOL     OW87410   9.546   4.681  12.239 -0.2618  0.0642  0.0806
26851SOL    HW187411   9.515   4.662  12.150 -3.0470  0.1492  0.9348
26851SOL    HW287412   9.630   4.724  12.226 -1.1910  1.3218 -2.5971
26852SOL     OW87413   4.247   3.876  12.312  0.3037  0.1369 -0.1918
26852SOL    HW187414   4.338   3.879  12.282  0.1143  0.1292 -0.7723
26852SOL    HW287415   4.217   3.788  12.288  0.6539 -0.5037  1.5329
26853SOL     OW87416   7.274   6.904  12.256  0.6012 -0.3300  0.5742
26853SOL    HW187417   7.180   6.884  12.258  0.6475 -0.5089  1.2872
26853SOL    HW287418   7.314   6.828  12.214  0.3428  0.1422 -0.5668
26854SOL     OW87419   6.067  10.268   8.103 -0.6986  0.0767 -0.1767
26854SOL    HW187420   6.026  10.184   8.124 -0.1090 -0.6484 -1.7416
26854SOL    HW287421   6.054  10.322   8.181 -2.1360 -1.0623  0.4144
26855SOL     OW87422   4.390  10.336   9.166 -0.1030 -0.0647 -0.6454
26855SOL    HW187423   4.365  10.383   9.087 -0.7586  2.2339  0.8096
26855SOL    HW287424   4.321  10.271   9.179 -2.3411  2.2546  0.1233
26856SOL     OW87425   6.591  12.013   5.708  0.7827  0.5214 -0.7870
26856SOL    HW187426   6.561  11.991   5.796  2.0090  1.8194  0.0204
26856SOL    HW287427   6.511  12.031   5.658  0.0466 -0.7582 -0.1093
26857SOL     OW87428   1.675  11.402   5.417 -0.2185  0.4457  0.1748
26857SOL    HW187429   1.709  11.376   5.503  0.2395  0.7425  0.0897
26857SOL    HW287430   1.746  11.380   5.357  0.7820  3.1083  0.2460
26858SOL     OW87431   9.957   2.180   9.131 -0.2188  0.3568  0.1601
26858SOL    HW187432   9.991   2.091   9.124 -0.8778  0.1817 -1.4353
26858SOL    HW287433   9.862   2.169   9.133 -0.2956  1.0039  0.3262
26859SOL     OW87434   4.631   4.083   7.371 -0.1549  0.0043  0.7307
26859SOL    HW187435   4.571   4.090   7.445 -0.5357 -1.1905  0.5603
26859SOL    HW287436   4.573   4.083   7.294  0.2982  2.6490  0.2832
26860SOL     OW87437   7.430   8.983  10.607 -0.3078 -0.1344 -0.1282
26860SOL    HW187438   7.372   8.916  10.644 -0.1928 -0.2672 -0.1884
26860SOL    HW287439   7.450   8.951  10.519  0.6576 -0.5912  0.2408
26861SOL     OW87440   3.107   2.920  11.694  0.5722  0.0243 -0.0202
26861SOL    HW187441   3.098   2.908  11.600  1.6042  0.8419 -0.2390
26861SOL    HW287442   3.188   2.969  11.705 -0.5336  1.6788  1.1735
26862SOL     OW87443   7.562   5.660   7.715 -0.5010  1.0165 -0.0230
26862SOL    HW187444   7.521   5.575   7.729  0.5553  0.1941 -1.5789
26862SOL    HW287445   7.559   5.703   7.801  1.0473 -1.5433  1.4488
26863SOL     OW87446   4.637   2.069   4.486  0.2706  0.4809  0.3152
26863SOL    HW187447   4.585   2.105   4.414  1.1030  2.4164  0.6357
26863SOL    HW287448   4.580   2.004   4.527 -0.1865 -0.7905 -2.1388
26864SOL     OW87449   4.945   4.487   1.156 -0.1172 -0.2437 -0.5749
26864SOL    HW187450   4.853   4.465   1.135 -0.3909  2.3165 -2.4687
26864SOL    HW287451   4.939   4.541   1.235 -0.3382  0.4778 -1.0736
26865SOL     OW87452   5.428   0.458  10.685  0.5295 -0.0648 -0.5792
26865SOL    HW187453   5.507   0.511  10.694  1.0528 -1.2035  3.0284
26865SOL    HW287454   5.459   0.374  10.652  0.6213 -0.0865 -0.4367
26866SOL     OW87455   7.597   9.976   6.661  0.2684  0.2420  0.2570
26866SOL    HW187456   7.660   9.904   6.659  0.0200  0.0316 -1.0601
26866SOL    HW287457   7.513   9.934   6.679  0.1960  0.2469 -0.0542
26867SOL     OW87458   0.195   2.228   3.417 -0.0012 -0.0239  0.9536
26867SOL    HW187459   0.180   2.182   3.334  2.5049  1.7116 -0.6080
26867SOL    HW287460   0.149   2.175   3.482 -1.3536 -1.9597 -1.3932
26868SOL     OW87461  11.060   6.339   3.177 -0.4969 -0.2836  0.3967
26868SOL    HW187462  11.009   6.415   3.206  0.1650  0.4213 -0.2371
26868SOL    HW287463  11.097   6.366   3.093  1.0994 -0.6829  0.9386
26869SOL     OW87464   7.693   9.105  12.197  0.0430  0.0670 -0.0768
26869SOL    HW187465   7.788   9.108  12.207  0.0606 -1.0658  0.2551
26869SOL    HW287466   7.674   9.015  12.171 -0.8120  0.6596 -1.6895
26870SOL     OW87467   8.348   0.167   1.782  0.1914 -0.2342 -0.3883
26870SOL    HW187468   8.425   0.182   1.837 -0.7469 -1.0899  1.2260
26870SOL    HW287469   8.276   0.209   1.830 -0.4009  0.4078 -1.7825
26871SOL     OW87470   1.669  11.241   9.850 -0.3662 -0.1536  0.1796
26871SOL    HW187471   1.641  11.271   9.763 -1.0963 -2.0214 -0.2658
26871SOL    HW287472   1.764  11.244   9.846 -0.3958  0.1712 -0.5361
26872SOL     OW87473   4.947   2.828   0.975 -0.1672  0.0775  0.8383
26872SOL    HW187474   4.982   2.902   0.926 -1.6894  0.3022  0.0154
26872SOL    HW287475   5.024   2.782   1.007  0.8264  1.8501  1.1348
26873SOL     OW87476   4.807   4.930   5.293 -0.2801 -0.6339 -0.3799
26873SOL    HW187477   4.738   4.939   5.227 -0.7707 -1.5672 -0.0096
26873SOL    HW287478   4.774   4.863   5.353  0.4501 -0.2684  0.4476
26874SOL     OW87479   7.351   1.585  10.683 -0.2558 -0.3074  0.6001
26874SOL    HW187480   7.347   1.502  10.636  0.3126 -1.7961  3.0318
26874SOL    HW287481   7.263   1.621  10.676  0.0804  0.2417 -2.6292
26875SOL     OW87482  11.663   9.667   8.839 -0.2524  0.8916 -0.4873
26875SOL    HW187483  11.733   9.729   8.859 -0.7425  1.7890 -1.4320
26875SOL    HW287484  11.586   9.702   8.884 -0.3782  0.6249 -0.4967
26876SOL     OW87485   5.308   1.278   3.509  0.9794  0.4797  0.2372
26876SOL    HW187486   5.245   1.231   3.454 -0.0752  0.3827  1.4790
26876SOL    HW287487   5.348   1.343   3.451 -1.3308  1.5354 -0.2604
26877SOL     OW87488   1.527   3.965   9.522 -0.4004 -0.2075  0.1790
26877SOL    HW187489   1.511   3.941   9.613 -0.9686  0.3784  0.2375
26877SOL    HW287490   1.457   4.026   9.500 -1.2692 -1.6169 -1.1512
26878SOL     OW87491   0.753  10.399   8.889 -0.2732  0.1253  0.4240
26878SOL    HW187492   0.802  10.337   8.942 -2.8459 -2.1902  0.3237
26878SOL    HW287493   0.772  10.373   8.798 -1.1750 -0.4389  0.3794
26879SOL     OW87494   4.906   5.937   0.098  0.4870 -0.1236  0.3076
26879SOL    HW187495   4.905   5.904   0.188 -0.1404  1.1157  0.7778
26879SOL    HW287496   4.998   5.931   0.072  0.6750 -0.5221  1.0225
26880SOL     OW87497   5.050   0.690  11.514  0.1617 -0.3740 -0.8969
26880SOL    HW187498   5.140   0.677  11.483  0.5523  0.4047 -0.1415
26880SOL    HW287499   5.058   0.752  11.586 -1.1468  0.9977 -1.8459
26881SOL     OW87500   3.547  10.201   3.799 -0.4086 -0.8124  0.1829
26881SOL    HW187501   3.609  10.245   3.857 -0.5672 -0.9371  0.4514
26881SOL    HW287502   3.538  10.259   3.724 -1.1194 -0.0521  0.8366
26882SOL     OW87503   8.694   8.543   9.051  0.4441  0.3614 -0.1451
26882SOL    HW187504   8.778   8.509   9.018  1.0972  1.0276  0.7760
26882SOL    HW287505   8.671   8.613   8.989 -0.1820 -0.7534 -1.2217
26883SOL     OW87506   8.048   0.859   4.138 -0.0270  0.3146  0.4477
26883SOL    HW187507   7.991   0.884   4.064 -1.7683 -1.1743  1.2182
26883SOL    HW287508   8.108   0.794   4.101 -0.4648  0.0540  0.1818
26884SOL     OW87509  10.843   9.878   4.630  0.0820 -0.3795  0.1770
26884SOL    HW187510  10.859   9.870   4.536  0.3562 -2.0640  0.3425
26884SOL    HW287511  10.851   9.789   4.664  1.4791  0.3766  2.0229
26885SOL     OW87512   2.836   9.600   4.123  0.0818  0.1429  0.2645
26885SOL    HW187513   2.844   9.520   4.071  0.6329 -1.5058  2.7047
26885SOL    HW287514   2.925   9.634   4.130  0.3599 -0.8113  1.7703
26886SOL     OW87515   1.579   3.559  11.486 -0.3888 -0.2242  0.1794
26886SOL    HW187516   1.596   3.548  11.579  1.2703 -0.9143 -0.1745
26886SOL    HW287517   1.629   3.636  11.460  0.3381 -0.8839 -0.4162
26887SOL     OW87518   8.234   2.790   3.165 -0.4841 -0.4479 -0.7180
26887SOL    HW187519   8.282   2.798   3.247 -0.5295 -2.0025 -0.5141
26887SOL    HW287520   8.168   2.859   3.169 -0.3582 -0.3795  0.4666
26888SOL     OW87521   4.100   4.488  10.447  0.0448 -0.9587 -0.0871
26888SOL    HW187522   4.085   4.517  10.357 -2.6566 -0.5243  0.4296
26888SOL    HW287523   4.103   4.568  10.498  2.6403 -1.1307  0.1720
26889SOL     OW87524  11.077   7.862  11.096 -0.0271  0.5455 -0.2201
26889SOL    HW187525  11.085   7.954  11.069  0.2589  0.3666 -0.7693
26889SOL    HW287526  11.004   7.828  11.044 -0.5754  0.6306  0.4751
26890SOL     OW87527   3.306  10.318   1.870  0.2905  0.3140 -0.5642
26890SOL    HW187528   3.356  10.273   1.802  1.2060  1.1264 -0.4443
26890SOL    HW287529   3.265  10.391   1.825 -0.8360 -0.3523 -0.6637
26891SOL     OW87530   9.386  11.962   5.753  0.6893  0.4413 -0.3110
26891SOL    HW187531   9.297  11.930   5.765  0.1834  2.3992  1.9233
26891SOL    HW287532   9.383  12.016   5.675 -0.4106  1.4582  0.4134
26892SOL     OW87533   2.030   9.711   3.474 -0.2829 -0.3314  0.2351
26892SOL    HW187534   2.067   9.625   3.495  1.8141  0.5897  0.6302
26892SOL    HW287535   1.972   9.695   3.400 -0.2554 -2.1409  0.5602
26893SOL     OW87536   1.299  11.482   2.842 -0.0265 -0.2617  0.0255
26893SOL    HW187537   1.378  11.523   2.806 -0.7316  0.8951 -0.2501
26893SOL    HW287538   1.238  11.480   2.769 -1.2868  1.6083  0.9594
26894SOL     OW87539   3.580   2.845   4.983  0.1135 -0.0385 -0.3240
26894SOL    HW187540   3.669   2.878   4.995  0.5285 -0.9204 -0.8141
26894SOL    HW287541   3.527   2.892   5.047  0.6800  1.4759 -0.9260
26895SOL     OW87542  12.544  12.028   7.822 -0.8385  0.0175  0.1886
26895SOL    HW187543  12.566  12.089   7.751  0.2851 -0.4261  0.1326
26895SOL    HW287544  12.622  12.027   7.878 -0.7106 -1.5665  0.0285
26896SOL     OW87545   3.208   6.735  11.251  0.1192  0.3151  0.5099
26896SOL    HW187546   3.296   6.719  11.216 -0.5795  1.3891 -2.0205
26896SOL    HW287547   3.153   6.671  11.205 -0.8033  1.5586 -0.1748
26897SOL     OW87548   2.376   2.675  10.269  0.3989  0.3355  0.1104
26897SOL    HW187549   2.450   2.673  10.208 -0.5075 -2.2161 -1.0414
26897SOL    HW287550   2.321   2.748  10.239  1.2851  0.7915 -0.4382
26898SOL     OW87551  10.107   0.705   3.685 -0.4015 -0.2746  0.2735
26898SOL    HW187552  10.095   0.674   3.596 -0.8818 -1.0024  0.5872
26898SOL    HW287553  10.153   0.789   3.675 -0.7390 -0.1904 -0.6623
26899SOL     OW87554   4.012   1.043   0.246 -0.2677  0.1513  0.2664
26899SOL    HW187555   4.076   1.041   0.175 -1.7122  1.5255 -1.1741
26899SOL    HW287556   3.928   1.058   0.201 -1.4445 -0.4444  2.1606
26900SOL     OW87557  10.686   9.160   7.141 -0.2466 -0.3323  0.0780
26900SOL    HW187558  10.743   9.083   7.140 -0.5520 -0.5924  1.2255
26900SOL    HW287559  10.671   9.177   7.234 -0.8941  0.5839 -0.1864
26901SOL     OW87560   4.116   1.541  11.968  0.0658 -0.0288 -0.4055
26901SOL    HW187561   4.169   1.609  11.926  0.3939 -0.2139 -0.2938
26901SOL    HW287562   4.077   1.493  11.895 -0.2464  0.3429 -0.4826
26902SOL     OW87563   3.383   6.900   4.640 -0.0696 -0.4337  0.2010
26902SOL    HW187564   3.379   6.967   4.572  0.3826  0.0766  0.6688
26902SOL    HW287565   3.466   6.854   4.623  1.1529  1.1114  1.6906
26903SOL     OW87566  10.242   9.388  10.214 -0.0116 -0.3613  0.2032
26903SOL    HW187567  10.173   9.335  10.174 -0.8452  2.1764 -2.0070
26903SOL    HW287568  10.197   9.440  10.280  0.1528 -0.0945  0.1066
26904SOL     OW87569   8.671   2.237   6.185  0.0663  0.4548  0.1277
26904SOL    HW187570   8.756   2.279   6.200 -0.5816  2.0622 -0.4833
26904SOL    HW287571   8.631   2.288   6.115  0.3784 -2.9217 -2.7975
26905SOL     OW87572   5.451   7.267   0.566 -0.1419 -0.1158  0.7450
26905SOL    HW187573   5.400   7.310   0.497 -0.5152 -1.5035  0.1285
26905SOL    HW287574   5.537   7.253   0.526  0.0603  0.2717  1.0366
26906SOL     OW87575   9.389   3.329  11.170  0.2921 -0.0187 -0.1766
26906SOL    HW187576   9.336   3.256  11.204 -1.6581  0.9188 -1.0039
26906SOL    HW287577   9.329   3.403  11.171  2.3393  1.7055  0.9958
26907SOL     OW87578   3.340   5.075   6.702  0.0115 -0.1038 -0.3409
26907SOL    HW187579   3.291   5.099   6.624 -1.2202  1.0589  0.7304
26907SOL    HW287580   3.404   5.146   6.713  0.0869 -0.1884 -0.2263
26908SOL     OW87581  11.638   8.401   7.133  0.4551  0.0559 -0.0980
26908SOL    HW187582  11.673   8.363   7.213 -0.1064  1.1567  0.6923
26908SOL    HW287583  11.712   8.398   7.071  1.1150 -0.1268  0.6799
26909SOL     OW87584   5.704   9.116   4.627 -0.0125 -0.4836  0.2628
26909SOL    HW187585   5.704   9.021   4.626 -2.7909 -0.6076 -2.5542
26909SOL    HW287586   5.634   9.140   4.688 -0.9822 -0.3614 -0.8746
26910SOL     OW87587   8.719   6.808   2.087  0.1276  0.0228 -0.0663
26910SOL    HW187588   8.655   6.879   2.076  1.5026  1.0662 -2.1261
26910SOL    HW287589   8.715   6.760   2.004  0.7164 -1.0333  0.4990
26911SOL     OW87590   8.980   6.666   9.976 -0.2267 -0.1212  0.8838
26911SOL    HW187591   8.925   6.725   9.924 -0.2023  0.5243  1.5752
26911SOL    HW287592   9.030   6.616   9.912 -1.1084 -0.2304  0.2552
26912SOL     OW87593   8.182   3.704  12.165 -0.0393 -0.7623 -0.7832
26912SOL    HW187594   8.236   3.728  12.241 -0.0619  0.6422 -1.1877
26912SOL    HW287595   8.134   3.627  12.194 -1.5441  0.8687  1.4158
26913SOL     OW87596   6.476   9.307   6.806 -0.5392 -0.4385 -0.1792
26913SOL    HW187597   6.448   9.397   6.789  0.1577  0.4059  2.5957
26913SOL    HW287598   6.396   9.259   6.825 -0.6975  0.6332  2.2495
26914SOL     OW87599   7.087   5.600   7.976  0.0402 -0.1715 -0.4308
26914SOL    HW187600   6.992   5.597   7.982  0.1072  0.0627  1.8806
26914SOL    HW287601   7.115   5.515   8.009  0.6500 -0.0644 -0.6572
26915SOL     OW87602   6.412   8.425   2.407 -0.8796 -0.6676  0.8294
26915SOL    HW187603   6.343   8.491   2.404 -0.6843 -0.4935 -0.4717
26915SOL    HW287604   6.438   8.422   2.499  0.2249  2.2567  0.7167
26916SOL     OW87605   5.840   1.574   6.533  0.3018 -0.0143 -0.0757
26916SOL    HW187606   5.820   1.665   6.508  0.5368 -0.0199 -0.2932
26916SOL    HW287607   5.931   1.562   6.507  0.2629 -0.3223 -0.0694
26917SOL     OW87608  10.712   7.269   8.272 -0.0432 -0.2227 -0.3542
26917SOL    HW187609  10.746   7.330   8.205 -2.6674 -0.1224 -1.7488
26917SOL    HW287610  10.704   7.322   8.351  1.4658  0.1438 -0.4300
26918SOL     OW87611   2.510   6.889  10.273  0.5896 -0.2024 -0.3551
26918SOL    HW187612   2.435   6.875  10.214  0.1248  2.4234 -0.5320
26918SOL    HW287613   2.587   6.880  10.216  0.2090  0.7662 -1.0548
26919SOL     OW87614  11.447  12.448  11.207  0.0728 -0.4359 -0.1868
26919SOL    HW187615  11.410  12.403  11.131  0.8437 -2.9931  0.8249
26919SOL    HW287616  11.385  12.518  11.227 -0.9644 -0.7220 -2.1591
26920SOL     OW87617   3.565   1.885   3.670 -0.2611  0.5544  0.3360
26920SOL    HW187618   3.506   1.939   3.619 -1.6152 -1.1761 -0.0433
26920SOL    HW287619   3.514   1.860   3.747  0.0679 -0.6762  0.1878
26921SOL     OW87620   5.892   8.613  11.772 -0.3577  0.2430 -0.2397
26921SOL    HW187621   5.930   8.532  11.737  0.0855  1.2791 -2.3202
26921SOL    HW287622   5.825   8.637  11.709 -1.6570  0.6566  1.2328
26922SOL     OW87623   8.545   5.034   5.504  0.0970 -0.4379  0.3863
26922SOL    HW187624   8.635   5.009   5.486 -0.2574 -1.7619  0.3731
26922SOL    HW287625   8.517   4.977   5.575 -1.3494 -1.5008 -0.9513
26923SOL     OW87626   2.560   1.725   0.413 -0.7482  0.1979 -0.5602
26923SOL    HW187627   2.644   1.700   0.375 -0.5852  1.9349 -1.4644
26923SOL    HW287628   2.518   1.777   0.345 -1.2775  1.8460  0.9552
26924SOL     OW87629   0.682   5.458   7.348  0.3471  0.6658 -0.1583
26924SOL    HW187630   0.647   5.516   7.416  0.2587 -0.6457  0.9660
26924SOL    HW287631   0.604   5.423   7.304  0.3248  0.1234  0.2942
26925SOL     OW87632   6.348   7.795  11.369 -0.4193 -0.3442  0.5154
26925SOL    HW187633   6.405   7.832  11.301  0.9988 -1.5824  0.9673
26925SOL    HW287634   6.306   7.720  11.327 -2.9822  1.4166 -0.2808
26926SOL     OW87635   8.732   9.734   6.561  0.2982 -0.8345 -0.3977
26926SOL    HW187636   8.742   9.826   6.583  1.6316 -1.4264  1.7521
26926SOL    HW287637   8.642   9.712   6.588  0.1280 -0.2797 -0.5005
26927SOL     OW87638   3.652   4.976  10.197  0.2881 -0.0838  0.0236
26927SOL    HW187639   3.658   5.067  10.166 -1.4723 -0.0917 -0.4730
26927SOL    HW287640   3.617   4.984  10.286  2.6882 -0.1949  1.0429
26928SOL     OW87641  10.811   2.457   8.346 -0.8163  0.5211  0.4745
26928SOL    HW187642  10.883   2.520   8.345  0.1410 -0.5259  0.8512
26928SOL    HW287643  10.741   2.500   8.297 -1.0711  2.8691  2.6960
26929SOL     OW87644   8.914   5.307   6.408 -0.4024 -0.4392  0.1139
26929SOL    HW187645   8.834   5.336   6.452 -0.8104  0.5955 -1.2364
26929SOL    HW287646   8.975   5.286   6.480 -0.9137  1.4994  1.1959
26930SOL     OW87647   2.274   9.660  10.803 -0.3179  0.0164 -0.0185
26930SOL    HW187648   2.249   9.747  10.776 -3.2207 -1.0242 -1.0164
26930SOL    HW287649   2.226   9.645  10.885 -0.3506 -0.8373 -0.1783
26931SOL     OW87650  10.915   2.420  12.215  0.5251  0.6739  0.1729
26931SOL    HW187651  10.832   2.457  12.247  1.9315  4.1906  0.2045
26931SOL    HW287652  10.981   2.454  12.275  2.0687 -2.4239  0.4289
26932SOL     OW87653   7.741   8.042   7.805  0.2084 -0.0189 -0.5259
26932SOL    HW187654   7.744   8.136   7.787 -0.3445 -0.4278 -3.1421
26932SOL    HW287655   7.650   8.018   7.789 -0.3659 -0.6160  2.8625
26933SOL     OW87656   7.057   5.054   3.938 -0.1277 -0.1341 -0.0674
26933SOL    HW187657   6.964   5.051   3.958 -0.0559 -0.0126  0.2858
26933SOL    HW287658   7.066   5.127   3.876 -0.0762  0.7538  0.9508
26934SOL     OW87659   5.473   0.916   1.382  0.2781  0.0178  0.1332
26934SOL    HW187660   5.518   0.989   1.339 -0.8638 -0.3430 -1.8347
26934SOL    HW287661   5.385   0.917   1.343  0.5808 -3.1015 -0.8992
26935SOL     OW87662   0.511  10.494   2.144  0.5354  0.1129  0.1088
26935SOL    HW187663   0.424  10.466   2.117  0.0242  0.0736  1.6882
26935SOL    HW287664   0.553  10.415   2.179  0.9214  0.2901  0.0588
26936SOL     OW87665   7.443  11.763   8.931  0.2468  0.0606  0.1800
26936SOL    HW187666   7.374  11.698   8.920  1.5013 -1.3545  0.4113
26936SOL    HW287667   7.413  11.838   8.880 -0.8161 -1.0314 -0.8637
26937SOL     OW87668   4.121   5.208   4.115 -0.3603  0.2670 -0.8493
26937SOL    HW187669   4.076   5.166   4.189  1.3817 -0.7348 -0.3083
26937SOL    HW287670   4.111   5.147   4.043  2.2486 -1.2697 -0.0397
26938SOL     OW87671   3.765   8.564   3.778 -0.4305 -0.1740 -0.3403
26938SOL    HW187672   3.827   8.637   3.777 -0.6138  0.0486  1.5331
26938SOL    HW287673   3.714   8.575   3.698 -0.1623  1.4888 -0.3227
26939SOL     OW87674   5.400   3.186  10.133  0.2079 -0.4667 -0.3908
26939SOL    HW187675   5.491   3.157  10.135  0.3632  0.0591  0.5467
26939SOL    HW287676   5.353   3.115  10.089  1.2069 -0.3056 -1.8067
26940SOL     OW87677   2.756   7.286  10.345 -0.4523 -0.2338  0.0759
26940SOL    HW187678   2.696   7.314  10.414 -1.3743  2.2228 -1.5766
26940SOL    HW287679   2.700   7.267  10.270  0.6174 -1.3279 -0.4888
26941SOL     OW87680   8.304   6.859   5.447  0.4377  0.3066 -0.0521
26941SOL    HW187681   8.314   6.766   5.467  0.3580  0.1768 -0.6126
26941SOL    HW287682   8.213   6.878   5.467  0.5178  0.3222  0.3005
26942SOL     OW87683   8.742   3.770   0.472 -0.1712 -0.0526 -0.5548
26942SOL    HW187684   8.723   3.764   0.378  1.0708 -0.1536 -0.8173
26942SOL    HW287685   8.826   3.814   0.476 -0.6425  0.7711  0.5679
26943SOL     OW87686   4.267   5.678   4.185  0.1488 -0.1293 -0.1749
26943SOL    HW187687   4.346   5.641   4.225  0.5627  1.4540  0.6088
26943SOL    HW287688   4.257   5.632   4.102  1.8758 -0.4083 -0.2673
26944SOL     OW87689   2.825   6.660   1.781  0.4406  0.0161 -0.3441
26944SOL    HW187690   2.798   6.589   1.722 -0.9626  1.3351 -1.3653
26944SOL    HW287691   2.743   6.699   1.810  1.1800  1.7875 -0.5067
26945SOL     OW87692  10.024   7.909  10.301  0.7522  0.2530  0.5126
26945SOL    HW187693   9.942   7.957  10.313 -0.0786 -0.6346 -1.3356
26945SOL    HW287694  10.085   7.975  10.268  0.4153  0.6340  0.6334
26946SOL     OW87695  12.521   4.826   2.631  0.0228  1.0538  0.7598
26946SOL    HW187696  12.614   4.807   2.617 -0.4558 -1.0250  0.0159
26946SOL    HW287697  12.517   4.921   2.644  2.4246  1.0282  2.4120
26947SOL     OW87698   5.109   0.336   3.894  0.2578  0.0700 -0.3507
26947SOL    HW187699   5.152   0.279   3.830  2.1406 -0.0144  0.8997
26947SOL    HW287700   5.145   0.423   3.878  0.4291  0.1281  0.3124
26948SOL     OW87701   6.293  10.249   0.594 -0.0301  0.1474 -0.1709
26948SOL    HW187702   6.292  10.210   0.506  0.2804 -0.0914 -0.0670
26948SOL    HW287703   6.335  10.184   0.649 -1.8811 -0.5217  0.5417
26949SOL     OW87704   1.881   2.029   5.501 -0.4844  0.8090  0.3793
26949SOL    HW187705   1.815   2.084   5.458 -1.0872 -0.2541 -0.1039
26949SOL    HW287706   1.917   2.084   5.570  0.1726  2.4182 -1.1733
26950SOL     OW87707   6.765   3.884   7.940 -0.1829 -0.2069  0.1211
26950SOL    HW187708   6.670   3.878   7.954 -0.3857 -1.4909 -1.5378
26950SOL    HW287709   6.785   3.812   7.880  1.8294  0.1522  0.2959
26951SOL     OW87710   5.383  11.843   5.009  0.1781  0.0486 -0.4602
26951SOL    HW187711   5.333  11.772   5.050  0.4880 -1.3172 -2.3387
26951SOL    HW287712   5.342  11.923   5.043 -1.6234 -1.0223  0.0299
26952SOL     OW87713   8.147   2.447   2.217 -0.2734  0.2805  0.4245
26952SOL    HW187714   8.177   2.517   2.275 -0.8822 -0.4817  1.6905
26952SOL    HW287715   8.212   2.378   2.229  0.0428  0.4169 -0.4352
26953SOL     OW87716  12.518   3.646   7.704  0.4781  0.1494  0.8644
26953SOL    HW187717  12.544   3.557   7.729 -1.8305 -0.4660  1.2596
26953SOL    HW287718  12.513   3.643   7.608  0.4567 -0.1360  0.8729
26954SOL     OW87719   5.984   6.158   9.779 -0.3581  0.4088 -0.1323
26954SOL    HW187720   5.996   6.120   9.692 -1.6574 -0.0908 -0.1227
26954SOL    HW287721   6.018   6.247   9.772  0.8482 -0.0775 -0.7388
26955SOL     OW87722  12.538   9.115   8.106  1.0466 -0.0109  0.0010
26955SOL    HW187723  12.542   9.167   8.186  0.9247  0.1634 -0.1026
26955SOL    HW287724  12.610   9.053   8.113 -0.0662 -1.2426  1.0960
26956SOL     OW87725   7.874   0.856   2.229 -0.4679 -0.0939  0.3378
26956SOL    HW187726   7.814   0.785   2.208 -1.3534 -0.2730  3.0682
26956SOL    HW287727   7.958   0.812   2.244  0.3902  0.1146 -3.0828
26957SOL     OW87728   0.918   4.830   9.991 -0.1136  0.4707 -0.1047
26957SOL    HW187729   0.915   4.827  10.086  0.2811  1.4990 -0.0504
26957SOL    HW287730   0.844   4.776   9.963  0.5701 -0.9634  0.7505
26958SOL     OW87731   8.214   4.060   8.064  0.3605  0.1637 -0.3482
26958SOL    HW187732   8.228   4.073   7.970 -2.3154  0.1547 -0.8313
26958SOL    HW287733   8.120   4.049   8.073  0.7725 -2.8561  2.0151
26959SOL     OW87734   9.842   3.035   2.329 -0.1197 -0.0155 -0.5572
26959SOL    HW187735   9.836   2.972   2.402  0.5138 -0.2364 -0.6915
26959SOL    HW287736   9.812   3.118   2.367  0.2530 -0.1181 -0.0276
26960SOL     OW87737   9.344   5.202  11.960 -0.3484 -0.2910 -0.0793
26960SOL    HW187738   9.325   5.247  11.878  1.4544  0.6100 -0.0562
26960SOL    HW287739   9.436   5.223  11.979 -0.4182 -1.2881  1.6631
26961SOL     OW87740   3.773   1.194   8.416  0.1452 -0.3010 -0.1454
26961SOL    HW187741   3.692   1.146   8.425  0.4100 -0.8041 -0.4133
26961SOL    HW287742   3.756   1.279   8.457 -0.3938 -0.5375  0.1195
26962SOL     OW87743   3.086   3.705   4.672  0.5558 -0.3264  0.2628
26962SOL    HW187744   3.069   3.620   4.631 -1.7161 -0.0688  0.5625
26962SOL    HW287745   3.060   3.770   4.607  1.6462  0.1609  0.2880
26963SOL     OW87746   2.504   0.179   9.471  0.6446  0.6062  0.0932
26963SOL    HW187747   2.523   0.176   9.377  1.1904  0.6456  0.2010
26963SOL    HW287748   2.548   0.101   9.506 -2.3802 -1.4101 -0.1757
26964SOL     OW87749  10.448   6.309   5.198  0.2213 -0.2411 -0.2566
26964SOL    HW187750  10.532   6.327   5.241  0.0125 -1.9118  0.9386
26964SOL    HW287751  10.415   6.396   5.173  0.4087  0.8805  2.9156
26965SOL     OW87752   4.041   5.957  11.350  0.3801  0.2792 -0.5732
26965SOL    HW187753   4.124   5.928  11.310  0.1335  0.7840 -1.4757
26965SOL    HW287754   4.022   6.040  11.307  1.0391  1.7963  1.9058
26966SOL     OW87755   0.853  11.468   3.324 -0.0614  0.4076 -0.3023
26966SOL    HW187756   0.789  11.478   3.395  1.3422  0.0254  1.0723
26966SOL    HW287757   0.937  11.461   3.369  0.6800 -1.9118 -1.8867
26967SOL     OW87758   0.982  12.286   4.876 -0.0855  0.0186  0.2145
26967SOL    HW187759   0.897  12.249   4.899  0.2590 -1.2134 -0.3918
26967SOL    HW287760   0.968  12.381   4.877 -1.9302 -0.1585 -1.5882
26968SOL     OW87761   4.851   1.776  10.094  0.0215 -0.1143 -0.1391
26968SOL    HW187762   4.804   1.760  10.175 -0.6121 -0.5314 -0.5770
26968SOL    HW287763   4.932   1.727  10.102  0.5713  0.9170  0.7842
26969SOL     OW87764   4.379   7.869   5.175 -0.1267 -0.1355 -0.2457
26969SOL    HW187765   4.388   7.786   5.222  0.1756  0.5968  1.0452
26969SOL    HW287766   4.466   7.908   5.178 -0.4808  0.6554  0.0157
26970SOL     OW87767   6.447  12.101   8.079 -0.4716 -0.3663 -0.0201
26970SOL    HW187768   6.446  12.195   8.097 -1.9115  0.1275 -2.2355
26970SOL    HW287769   6.379  12.065   8.136  0.2781 -0.1626  1.0444
26971SOL     OW87770   2.334   9.222   7.221  0.9139  0.3236 -0.5029
26971SOL    HW187771   2.388   9.300   7.222  2.0755 -0.4504  1.0771
26971SOL    HW287772   2.286   9.224   7.304 -0.4565  0.2786 -1.2585
26972SOL     OW87773   9.641   6.296   4.404  0.2023  0.3511  0.6640
26972SOL    HW187774   9.702   6.352   4.356 -1.1249  0.3679 -1.1146
26972SOL    HW287775   9.697   6.233   4.449  1.6096  1.5894  0.7314
26973SOL     OW87776  12.266   7.631   8.251 -0.2153 -0.6192  0.4167
26973SOL    HW187777  12.253   7.548   8.205  3.2922 -0.6262 -0.8090
26973SOL    HW287778  12.274   7.607   8.343 -1.6401 -1.2912  0.3876
26974SOL     OW87779   5.054   0.543   1.957  0.2827  0.5241 -0.1243
26974SOL    HW187780   5.111   0.611   1.994 -1.0126  0.7687  1.5526
26974SOL    HW287781   4.975   0.591   1.929  1.4650  0.4810 -4.1013
26975SOL     OW87782   0.422   5.378   6.768  0.4171  0.1736 -0.3924
26975SOL    HW187783   0.513   5.406   6.759 -0.1846  2.9413  1.0523
26975SOL    HW287784   0.372   5.443   6.719 -0.9625  0.5478  1.4267
26976SOL     OW87785   4.796   1.344   0.069 -0.2567  0.0347 -0.9632
26976SOL    HW187786   4.775   1.429   0.108 -0.9488 -0.7735  0.4920
26976SOL    HW287787   4.821   1.289   0.143 -1.9742 -1.6629 -1.5471
26977SOL     OW87788   2.390   4.383   3.619  0.0776 -0.6156 -0.3616
26977SOL    HW187789   2.414   4.410   3.531  0.5218 -1.3373 -0.4725
26977SOL    HW287790   2.474   4.371   3.664 -0.1529  0.1326  0.2819
26978SOL     OW87791   0.664  12.556  12.115 -0.0571 -0.2000  0.1600
26978SOL    HW187792   0.681  12.624  12.049  0.4587 -0.9080 -0.4576
26978SOL    HW287793   0.625  12.484  12.065  1.1625 -1.0948  0.4584
26979SOL     OW87794   6.830  12.545   7.986 -0.4981  1.0205  0.3355
26979SOL    HW187795   6.922  12.527   8.009 -0.4202  0.7933 -0.1516
26979SOL    HW287796   6.828  12.639   7.969 -0.5888  1.2261  1.4135
26980SOL     OW87797  10.367   4.163   2.683  0.2829 -0.0576  0.3478
26980SOL    HW187798  10.354   4.095   2.618  2.7087 -0.7887  0.5143
26980SOL    HW287799  10.430   4.125   2.746 -0.7144  1.2046  2.2119
26981SOL     OW87800   6.615   4.682  10.739  0.6117  0.2435  0.5402
26981SOL    HW187801   6.656   4.697  10.824  0.1998 -0.5471  0.8898
26981SOL    HW287802   6.634   4.590  10.719  0.0324  0.1968  0.1579
26982SOL     OW87803   4.282  12.210   5.877 -0.6194  0.2714  0.0418
26982SOL    HW187804   4.353  12.267   5.847 -0.8815 -0.1247 -1.4038
26982SOL    HW287805   4.210  12.270   5.898 -0.9357  0.5224 -1.5901
26983SOL     OW87806  11.516   4.170   2.531 -0.3385 -0.0095  0.1341
26983SOL    HW187807  11.451   4.173   2.460  0.4267 -1.0913 -0.6567
26983SOL    HW287808  11.464   4.165   2.611 -1.2271  0.2626 -0.4129
26984SOL     OW87809   8.131  11.075  12.480  0.8925  0.1806  0.5032
26984SOL    HW187810   8.093  11.152  12.521  0.8281 -0.0486  0.8801
26984SOL    HW287811   8.220  11.101  12.457  1.5621 -0.2438  2.4522
26985SOL     OW87812  11.787   4.976   6.512  0.7057  0.1525  0.1302
26985SOL    HW187813  11.865   4.920   6.512 -0.6080 -1.7425  0.6748
26985SOL    HW287814  11.732   4.940   6.443 -0.8568 -0.2668  1.5458
26986SOL     OW87815   9.582   2.541   4.395 -0.1202  0.2587  0.4493
26986SOL    HW187816   9.592   2.524   4.302 -0.7457  2.0573  0.0131
26986SOL    HW287817   9.498   2.499   4.418 -0.4390  0.6321 -0.0220
26987SOL     OW87818  11.906   9.449   1.984 -0.6400 -0.3059  0.9851
26987SOL    HW187819  11.908   9.372   2.040  1.5518  0.3526  1.9094
26987SOL    HW287820  11.994   9.454   1.946 -1.3313  0.6606 -0.5973
26988SOL     OW87821   4.887   5.798   8.694 -0.0757 -0.2311  0.3705
26988SOL    HW187822   4.843   5.780   8.777  0.5254 -1.4063  0.4564
26988SOL    HW287823   4.839   5.747   8.629 -0.3009  0.3706  0.0617
26989SOL     OW87824   7.207   7.238   1.651 -0.1009 -0.0172  0.6038
26989SOL    HW187825   7.158   7.178   1.706 -1.0861 -0.1127 -0.3409
26989SOL    HW287826   7.141   7.297   1.614  0.4086 -0.3739 -0.9734
26990SOL     OW87827   7.546   6.129  12.030  0.1097  0.5764  0.2462
26990SOL    HW187828   7.516   6.220  12.025 -0.1253  0.6269  2.0893
26990SOL    HW287829   7.641   6.136  12.040  0.0447  0.6558  0.8707
26991SOL     OW87830   3.074   3.017   3.271 -0.4125  0.0922  0.6816
26991SOL    HW187831   3.148   2.996   3.215 -0.1869  1.3871  0.4720
26991SOL    HW287832   3.016   2.940   3.264 -0.2324  0.0768 -1.0549
26992SOL     OW87833   2.680  10.887  11.748  0.0492 -0.0644  0.1242
26992SOL    HW187834   2.740  10.952  11.712 -0.7401  0.0830 -1.0019
26992SOL    HW287835   2.731  10.840  11.813  1.6697 -0.5490 -1.4177
26993SOL     OW87836   3.254  12.005   8.413  0.4591  0.3848 -0.4191
26993SOL    HW187837   3.330  12.022   8.357 -0.1867 -0.6301 -1.6648
26993SOL    HW287838   3.251  12.079   8.473  0.0527  2.6035 -2.9787
26994SOL     OW87839   1.506   4.608   8.629  0.8514 -0.1098 -0.8719
26994SOL    HW187840   1.425   4.603   8.579 -0.9946 -0.3465  1.8902
26994SOL    HW287841   1.498   4.539   8.695  2.2545  1.2973  0.8892
26995SOL     OW87842   1.972  11.688   4.895  0.3721  0.1258  0.3745
26995SOL    HW187843   1.962  11.783   4.905  0.0223  0.5276 -2.8377
26995SOL    HW287844   2.052  11.677   4.844 -0.0414 -1.2432 -0.0219
26996SOL     OW87845   9.475   3.008   4.578  0.0606 -0.1604 -0.2114
26996SOL    HW187846   9.480   2.952   4.501 -1.0531 -0.1728 -0.2862
26996SOL    HW287847   9.396   2.980   4.624  0.9074 -0.4202  1.1626
26997SOL     OW87848  12.213   3.749   6.852 -0.0349  0.1898  0.0156
26997SOL    HW187849  12.175   3.833   6.826 -1.9430 -0.6528 -0.1217
26997SOL    HW287850  12.140   3.703   6.894  0.1922 -2.3734 -2.1533
26998SOL     OW87851   1.160  10.030   1.309 -0.1004 -0.7544 -0.0149
26998SOL    HW187852   1.109  10.090   1.254  1.2519 -0.5123 -1.0527
26998SOL    HW287853   1.098   9.961   1.332 -1.3129  0.3308  0.0839
26999SOL     OW87854   5.447   6.703   8.526  1.2117 -0.3130 -0.3435
26999SOL    HW187855   5.448   6.694   8.431 -2.0602  0.2300 -0.5397
26999SOL    HW287856   5.443   6.798   8.540 -2.6315 -0.3856  0.0277
27000SOL     OW87857   7.719   3.009   5.612  0.5594  0.0877  0.5856
27000SOL    HW187858   7.637   3.052   5.587 -0.3018  0.1515  3.2472
27000SOL    HW287859   7.774   3.080   5.644  0.8422 -0.2450  0.8391
27001SOL     OW87860   9.562   7.014   8.664 -0.4763 -0.2003  0.5824
27001SOL    HW187861   9.562   7.107   8.642  0.6014 -0.4354 -0.5390
27001SOL    HW287862   9.556   7.012   8.760 -0.9712  0.9977  0.5929
27002SOL     OW87863  11.192  10.068  10.856  0.1247 -0.4775 -0.1378
27002SOL    HW187864  11.151  10.154  10.850  1.2527  0.1350  0.5850
27002SOL    HW287865  11.147  10.025  10.928  1.0862  0.4094  1.0304
27003SOL     OW87866   6.139   2.586   0.093 -0.3217  0.1489  0.0422
27003SOL    HW187867   6.197   2.560   0.022  0.2909  1.4627  0.0386
27003SOL    HW287868   6.147   2.515   0.157  0.4975 -0.1833 -0.4095
27004SOL     OW87869   4.691   2.108   4.829  0.0980 -0.1562  0.4498
27004SOL    HW187870   4.762   2.113   4.766  1.8478 -1.2918  2.1829
27004SOL    HW287871   4.710   2.178   4.892 -1.3275  0.6448  0.0225
27005SOL     OW87872   6.496   5.250   5.748 -0.2353  0.5287  0.1742
27005SOL    HW187873   6.413   5.205   5.762 -0.9388  1.3486 -1.1937
27005SOL    HW287874   6.475   5.322   5.688  1.1677  1.6794  0.9902
27006SOL     OW87875   7.051   8.534   7.293  0.0310 -0.0877 -0.2123
27006SOL    HW187876   7.110   8.466   7.261  2.1403  0.3912  2.3326
27006SOL    HW287877   7.037   8.511   7.385 -1.0159  1.7457  0.1296
27007SOL     OW87878   9.135   4.700   0.478 -0.2322 -0.1429  0.3505
27007SOL    HW187879   9.076   4.749   0.420  0.3070  0.9662  0.7063
27007SOL    HW287880   9.113   4.731   0.566  1.8604  1.4698  0.3960
27008SOL     OW87881  12.260   1.766  10.393 -0.5384  0.1365  0.4610
27008SOL    HW187882  12.197   1.693  10.390 -1.1323  0.6623 -0.0779
27008SOL    HW287883  12.264   1.798  10.303  0.4919  0.1340  0.4943
27009SOL     OW87884   1.433   8.169   3.964 -0.6373 -0.3907  0.0971
27009SOL    HW187885   1.377   8.216   3.902 -1.0116 -0.7452  0.1534
27009SOL    HW287886   1.513   8.220   3.969 -1.3786  0.7486  0.8614
27010SOL     OW87887   0.158   2.938   0.079 -0.6304 -0.1078  0.5628
27010SOL    HW187888   0.184   2.850   0.050  1.9153  1.3516 -2.0217
27010SOL    HW287889   0.074   2.953   0.035 -0.2482 -0.6064 -0.3677
27011SOL     OW87890   5.182   7.118   8.085  0.3289  0.5458 -0.3417
27011SOL    HW187891   5.147   7.038   8.046  0.4786 -0.2472  1.0932
27011SOL    HW287892   5.276   7.103   8.092  0.3367  0.7768  0.0990
27012SOL     OW87893   5.165   9.884  11.741  0.0248 -0.8708 -0.0386
27012SOL    HW187894   5.245   9.935  11.723 -0.0944 -0.1569  1.3374
27012SOL    HW287895   5.112   9.895  11.662  0.6011  0.0129 -0.3207
27013SOL     OW87896   5.822   1.653   7.873  0.4994  0.2463  0.2344
27013SOL    HW187897   5.819   1.741   7.837 -0.7962 -0.2533 -0.9586
27013SOL    HW287898   5.769   1.600   7.814  2.6942 -1.7471 -0.1532
27014SOL     OW87899   0.805  10.333   8.644 -0.7041 -0.2820 -0.2820
27014SOL    HW187900   0.899  10.318   8.636 -0.5247  1.2996 -1.4536
27014SOL    HW287901   0.769  10.246   8.662  0.8376 -1.1273 -1.0845
27015SOL     OW87902   6.701   0.265  10.688  0.1522 -0.2597 -0.4217
27015SOL    HW187903   6.782   0.315  10.692 -1.8218  3.2936 -0.9866
27015SOL    HW287904   6.693   0.225  10.774  2.1312 -0.1556 -0.1412
27016SOL     OW87905   7.950   9.909   5.967  0.1206  0.2367  0.1433
27016SOL    HW187906   7.936   9.988   6.021 -1.7646  1.4946 -1.9734
27016SOL    HW287907   7.880   9.850   5.994 -1.2511  1.1369 -1.2618
27017SOL     OW87908  10.824   5.894   6.585 -0.0226 -0.0808 -0.2100
27017SOL    HW187909  10.839   5.914   6.678 -0.0409  0.5178 -0.3319
27017SOL    HW287910  10.902   5.927   6.540 -1.3220  2.4502 -0.7633
27018SOL     OW87911   6.668  12.550   7.037 -0.4823 -0.3853  0.3784
27018SOL    HW187912   6.690  12.638   7.068  0.5903 -0.7825  0.7749
27018SOL    HW287913   6.750  12.515   7.003 -0.7871 -1.4082  0.6646
27019SOL     OW87914   8.921   3.391   7.131  0.1436 -0.0930  0.0329
27019SOL    HW187915   8.997   3.337   7.152 -1.8253 -3.7934 -1.4090
27019SOL    HW287916   8.875   3.402   7.215  0.9891  0.1192  0.4798
27020SOL     OW87917   6.543   8.715   8.625 -0.0440 -0.2206  0.2535
27020SOL    HW187918   6.505   8.661   8.556 -0.5934  0.0292  0.3519
27020SOL    HW287919   6.489   8.696   8.702 -0.5352  0.8027  0.1772
27021SOL     OW87920   3.487   4.737  11.610  0.0552 -0.0761 -0.1834
27021SOL    HW187921   3.463   4.741  11.703 -1.4647 -3.2223 -0.2956
27021SOL    HW287922   3.407   4.712  11.565  1.4574 -1.9908 -1.8526
27022SOL     OW87923   1.511   5.036   1.347  0.9486  0.5545  0.1094
27022SOL    HW187924   1.514   4.962   1.285 -1.1534  2.0929 -1.9924
27022SOL    HW287925   1.598   5.075   1.342  2.2769 -1.9674  1.6375
27023SOL     OW87926   6.540  11.053  11.168 -0.2531  0.1170 -0.0811
27023SOL    HW187927   6.589  10.971  11.167 -0.7794 -0.2044 -0.1808
27023SOL    HW287928   6.561  11.093  11.253 -0.4821 -0.4287  0.2421
27024SOL     OW87929   8.008   0.530   7.164  0.3691  0.7109  0.1866
27024SOL    HW187930   8.092   0.527   7.119  1.9357  1.1820  2.9067
27024SOL    HW287931   7.988   0.439   7.185  0.6745  0.6845  0.3612
27025SOL     OW87932   6.141  12.263  11.768  0.2649  0.6828  0.5152
27025SOL    HW187933   6.184  12.180  11.791 -0.0706  0.6901  1.1659
27025SOL    HW287934   6.061  12.264  11.820 -0.1060  1.0740 -0.0469
27026SOL     OW87935  10.354   6.839   5.931  0.1002  0.5484 -0.2432
27026SOL    HW187936  10.267   6.809   5.958  0.4494 -0.0695  0.2397
27026SOL    HW287937  10.414   6.772   5.965  0.7584  0.9193 -0.6424
27027SOL     OW87938   0.062  12.328   4.503 -0.1708  0.0547 -0.2295
27027SOL    HW187939   0.065  12.370   4.418 -3.0076  0.3452 -0.2781
27027SOL    HW287940   0.093  12.395   4.564  0.0720  0.4791 -0.8089
27028SOL     OW87941   5.523   9.364   2.530 -0.6344 -0.0211 -0.2146
27028SOL    HW187942   5.540   9.412   2.449 -0.1784  1.1957  0.5683
27028SOL    HW287943   5.607   9.364   2.576 -1.4787  1.6657  1.4583
27029SOL     OW87944   9.753   8.580   4.775  0.1933  0.3261  0.1804
27029SOL    HW187945   9.847   8.562   4.770  0.4028  0.8587  1.8312
27029SOL    HW287946   9.723   8.574   4.684  0.8150 -5.0181  0.0301
27030SOL     OW87947   6.509   6.977  12.525  0.3128  0.1487 -0.1158
27030SOL    HW187948   6.451   7.018  12.462  0.7045  0.6918 -0.1332
27030SOL    HW287949   6.528   6.891  12.488 -1.0282 -0.3283  0.2289
27031SOL     OW87950   9.550   3.292  10.349  0.3418 -0.2741 -0.0081
27031SOL    HW187951   9.562   3.352  10.275 -0.0553 -1.4234 -1.0460
27031SOL    HW287952   9.497   3.221  10.313 -0.7040 -0.3881  1.6618
27032SOL     OW87953  11.179   5.505   2.320  0.7151  0.1407 -0.0569
27032SOL    HW187954  11.237   5.530   2.392 -0.3039  0.9000  0.5185
27032SOL    HW287955  11.107   5.567   2.324  0.4689 -0.0096 -1.5377
27033SOL     OW87956  12.019   5.728   3.310 -0.3436  0.5123 -0.6262
27033SOL    HW187957  12.099   5.682   3.283 -1.0838 -0.6035 -0.9534
27033SOL    HW287958  11.967   5.735   3.230 -0.9209  0.5483 -0.2502
27034SOL     OW87959  10.599   7.690   7.586 -0.2252 -0.0685  0.1739
27034SOL    HW187960  10.571   7.599   7.595  2.6736 -1.3072 -1.7218
27034SOL    HW287961  10.674   7.698   7.646  1.0343  0.2662 -1.3540
27035SOL     OW87962   9.468   2.304   6.350 -0.4125 -0.2844 -0.1503
27035SOL    HW187963   9.489   2.395   6.327  1.9684 -0.7103  0.0225
27035SOL    HW287964   9.441   2.308   6.442  0.1060  0.2184 -0.0120
27036SOL     OW87965  12.194   4.893   7.664  0.2889 -0.6216  0.3922
27036SOL    HW187966  12.108   4.892   7.706  0.2489 -2.0245  0.3304
27036SOL    HW287967  12.217   4.986   7.658  0.0602 -0.3060  3.0418
27037SOL     OW87968   0.116   6.448   1.379 -0.3317  0.3865 -0.1310
27037SOL    HW187969   0.054   6.509   1.418  0.9354  0.5354  1.7724
27037SOL    HW287970   0.062   6.380   1.340 -1.7114  0.5833  1.3443
27038SOL     OW87971  12.527   5.083   6.337  0.3161  0.0897 -0.4156
27038SOL    HW187972  12.577   5.036   6.404  1.4015 -0.3771 -1.5089
27038SOL    HW287973  12.449   5.030   6.324  0.3524 -0.0987  0.0891
27039SOL     OW87974   0.667   2.842   7.099 -0.1355  0.3415  0.1103
27039SOL    HW187975   0.581   2.845   7.140  1.1167  1.4727  2.9194
27039SOL    HW287976   0.697   2.933   7.099  0.8478  0.0617 -1.4225
27040SOL     OW87977   9.846   3.603   1.922  0.4396 -0.5828  0.3131
27040SOL    HW187978   9.850   3.606   1.826  0.5865  0.7322  0.3373
27040SOL    HW287979   9.796   3.524   1.942  0.2667 -0.7813 -0.8568
27041SOL     OW87980   8.573   3.211   6.785  0.0654 -0.6213  0.0401
27041SOL    HW187981   8.657   3.173   6.808  0.9142  1.3006  0.3626
27041SOL    HW287982   8.511   3.177   6.850  0.8927 -0.9549  0.6634
27042SOL     OW87983   9.837   5.741   5.754 -0.5014 -0.1577  0.4525
27042SOL    HW187984   9.788   5.676   5.704 -1.1340  0.9499 -0.4005
27042SOL    HW287985   9.928   5.711   5.748 -0.3204  0.6395 -2.5993
27043SOL     OW87986  10.113   7.266  10.968  0.6079 -0.2697  0.5084
27043SOL    HW187987  10.171   7.315  10.911  0.3125 -0.8935 -0.3579
27043SOL    HW287988  10.171   7.207  11.016  0.7255 -0.7576 -0.2140
27044SOL     OW87989   5.156   9.716   7.174 -0.4615  0.2926  0.0078
27044SOL    HW187990   5.107   9.668   7.241  0.1924  0.0090  0.2951
27044SOL    HW287991   5.158   9.658   7.098 -1.4359  0.7270 -0.3558
27045SOL     OW87992   8.993  10.870   5.659  0.2454  0.1228  0.8686
27045SOL    HW187993   8.953  10.883   5.573  1.4976  0.5150  0.3243
27045SOL    HW287994   8.919  10.860   5.719 -0.6974  1.8414  0.0525
27046SOL     OW87995   1.789   5.426  11.321 -0.3084  0.3666 -0.0702
27046SOL    HW187996   1.714   5.453  11.267  0.0187 -0.1300 -0.7865
27046SOL    HW287997   1.792   5.331  11.312  2.0397  0.5406 -2.3230
27047SOL     OW87998   5.687   3.820   2.802  0.0225 -0.6014 -0.1991
27047SOL    HW187999   5.708   3.827   2.895 -1.3260 -0.0766  0.0920
27047SOL    HW288000   5.598   3.783   2.800 -0.7639  1.1977 -1.1739
27048SOL     OW88001  10.878   0.820  12.068 -0.2872 -0.0701  0.2537
27048SOL    HW188002  10.828   0.902  12.072 -0.2082  0.2876 -3.0708
27048SOL    HW288003  10.818   0.753  12.101 -1.0692  1.0205  1.1201
27049SOL     OW88004   8.027   3.772   0.018 -0.0156 -0.4270  0.1978
27049SOL    HW188005   8.026   3.678   0.035 -1.7216 -0.3196  0.8061
27049SOL    HW288006   8.115   3.800   0.043  0.9467 -2.0395 -1.1474
27050SOL     OW88007  10.500   9.322   0.684  0.4853  0.7636 -0.2044
27050SOL    HW188008  10.424   9.380   0.674  0.8432  1.2687 -0.0218
27050SOL    HW288009  10.575   9.376   0.657  0.5740 -0.3744 -2.4956
27051SOL     OW88010   3.600   2.086   2.537 -0.0708  0.1347 -0.2921
27051SOL    HW188011   3.574   2.101   2.446 -0.8461 -1.5574 -0.3884
27051SOL    HW288012   3.544   2.144   2.588  0.6002  1.3468 -0.8829
27052SOL     OW88013  11.274   8.627   2.688 -0.2959 -0.0740 -0.4576
27052SOL    HW188014  11.254   8.553   2.631 -1.3618 -0.7213  0.7015
27052SOL    HW288015  11.236   8.702   2.644 -1.5974 -0.6486 -0.3612
27053SOL     OW88016  11.256   8.611  10.080  0.6622  0.2196 -0.4608
27053SOL    HW188017  11.247   8.662  10.160 -0.1805 -0.9560  0.2220
27053SOL    HW288018  11.311   8.537  10.104 -0.9981 -1.0809 -0.4659
27054SOL     OW88019   6.734  11.628   0.634  0.9826  0.3429  0.4100
27054SOL    HW188020   6.676  11.554   0.651 -0.0863  1.0807  0.0613
27054SOL    HW288021   6.822  11.594   0.649  0.4788 -0.8775  0.6570
27055SOL     OW88022   6.897   0.312  12.083 -0.4882  0.2416  0.0228
27055SOL    HW188023   6.932   0.308  12.171 -1.0783  0.8018  0.2897
27055SOL    HW288024   6.970   0.286  12.027  0.1909  0.8854  0.5996
27056SOL     OW88025   9.876  10.523  12.151  0.3686  0.3391 -0.0766
27056SOL    HW188026   9.874  10.538  12.056  1.4418 -1.6754 -0.4658
27056SOL    HW288027   9.938  10.451  12.163  0.4723  0.7312  2.2037
27057SOL     OW88028   0.339   6.472   8.814 -0.3221 -0.4751  0.1682
27057SOL    HW188029   0.324   6.399   8.755  1.2340 -1.0119  0.3823
27057SOL    HW288030   0.269   6.534   8.795 -2.4291 -2.5053  0.8031
27058SOL     OW88031  10.553   4.286  10.333 -0.1999  0.0407  0.4557
27058SOL    HW188032  10.517   4.321  10.251  0.7408 -0.0661 -0.0146
27058SOL    HW288033  10.532   4.193  10.330  3.4235 -0.8782 -1.7250
27059SOL     OW88034   7.341  11.744   0.742  0.2107  0.4214  0.5020
27059SOL    HW188035   7.264  11.793   0.769  1.4172  2.9203 -0.2688
27059SOL    HW288036   7.357  11.771   0.651  1.9119 -0.0782  0.6109
27060SOL     OW88037   1.770  10.071   1.893  0.4972  0.0891  0.5381
27060SOL    HW188038   1.714  10.002   1.858 -0.1023  0.6431  0.4018
27060SOL    HW288039   1.798  10.121   1.816  1.6914 -0.5468  0.5286
27061SOL     OW88040   5.288  10.019   3.935 -0.0855  0.0029  0.6299
27061SOL    HW188041   5.360   9.975   3.890 -0.5061  0.9800 -1.0705
27061SOL    HW288042   5.329  10.066   4.007  1.0621  0.8938 -0.5698
27062SOL     OW88043   9.010   2.078  10.775 -0.1141  0.2200  0.0116
27062SOL    HW188044   8.915   2.088  10.776 -0.1086  0.5215 -1.3635
27062SOL    HW288045   9.027   2.008  10.838 -1.1137  1.1036  1.3262
27063SOL     OW88046   2.177   4.240   3.407 -0.1363  0.1480  0.4968
27063SOL    HW188047   2.190   4.288   3.489  0.9469  0.3149  0.2526
27063SOL    HW288048   2.225   4.158   3.421  0.8192  0.5487 -0.2705
27064SOL     OW88049   8.458  11.913  12.041  0.1191 -0.1417 -0.4168
27064SOL    HW188050   8.463  11.876  11.952 -1.3833  0.5218 -0.7996
27064SOL    HW288051   8.365  11.909  12.064 -0.4018  4.3408 -0.9425
27065SOL     OW88052   7.830   0.014   4.467  0.0090 -0.1988  0.1895
27065SOL    HW188053   7.741  -0.015   4.486  0.1908 -1.6053 -0.8701
27065SOL    HW288054   7.836   0.102   4.503 -2.0669  0.2357 -0.4138
27066SOL     OW88055   7.719   7.292   0.836 -0.7832 -0.4098 -1.4089
27066SOL    HW188056   7.638   7.319   0.794 -0.3134  0.9824 -1.4793
27066SOL    HW288057   7.775   7.370   0.832 -0.5878 -0.2761  1.4819
27067SOL     OW88058   6.737   8.884   7.730 -0.6223 -0.6711 -0.2781
27067SOL    HW188059   6.787   8.855   7.806 -0.2614 -0.5354 -0.4645
27067SOL    HW288060   6.738   8.980   7.735 -0.5332 -0.6606 -0.4976
27068SOL     OW88061   4.917   7.263   1.925 -0.2072  0.1518 -0.2435
27068SOL    HW188062   4.977   7.314   1.871  0.9180 -0.8194  0.0641
27068SOL    HW288063   4.917   7.176   1.886 -0.8015 -0.0730  0.2372
27069SOL     OW88064   6.687  10.887   0.698 -0.8261 -0.3761 -0.3682
27069SOL    HW188065   6.655  10.868   0.610 -3.0192 -0.1239  0.3197
27069SOL    HW288066   6.661  10.811   0.750 -0.4456 -0.0650  0.2925
27070SOL     OW88067   0.745   2.468   8.063  0.2772  0.1409  0.1564
27070SOL    HW188068   0.744   2.396   8.126  0.6609  1.8980  2.2480
27070SOL    HW288069   0.770   2.426   7.980 -0.9367 -2.3600  0.9341
27071SOL     OW88070  11.196   2.021  12.138 -0.1909  0.8474 -0.2507
27071SOL    HW188071  11.183   2.061  12.224  1.5124 -1.1931  1.0786
27071SOL    HW288072  11.174   1.929  12.152 -0.7579  0.6395 -2.2822
27072SOL     OW88073   0.957   3.065   8.435  0.2691 -0.2285  0.5033
27072SOL    HW188074   1.042   3.037   8.402  0.0013 -0.5062  0.0367
27072SOL    HW288075   0.902   2.987   8.430  0.1340 -0.1909  1.3155
27073SOL     OW88076   5.148   1.021   8.951  0.1921  0.0421 -0.1321
27073SOL    HW188077   5.189   1.068   9.024  1.2094 -1.3401  0.2265
27073SOL    HW288078   5.065   0.988   8.988  0.7531 -0.7483  0.4680
27074SOL     OW88079   7.392  10.970   4.579  0.2157 -0.9410  0.0668
27074SOL    HW188080   7.361  10.948   4.491  1.2929 -1.3227 -0.2283
27074SOL    HW288081   7.484  10.994   4.567 -0.2638  1.4866  0.7125
27075SOL     OW88082   8.171   7.906   6.825  0.6283  0.2377  0.1486
27075SOL    HW188083   8.226   7.874   6.896  0.0972  1.0012  0.9151
27075SOL    HW288084   8.229   7.907   6.749  0.5781 -3.0385 -0.0973
27076SOL     OW88085   3.090   1.899  11.622 -0.3567  0.6143 -0.2488
27076SOL    HW188086   3.072   1.970  11.684 -1.4358 -0.6263  0.9222
27076SOL    HW288087   3.185   1.897  11.615 -0.2570  1.4120  0.6166
27077SOL     OW88088   3.110   6.814   2.942 -0.3453 -0.1990 -0.1316
27077SOL    HW188089   3.146   6.785   3.026 -0.1009 -0.6135 -0.3791
27077SOL    HW288090   3.025   6.772   2.937 -1.5714  1.9156  1.1256
27078SOL     OW88091   4.704   4.803   2.207 -0.3100  0.0276 -0.0565
27078SOL    HW188092   4.729   4.711   2.201  1.5479  0.0218  4.3521
27078SOL    HW288093   4.720   4.827   2.298 -2.1984  4.3652 -0.6034
27079SOL     OW88094  10.358   4.904   0.215 -0.2897 -0.3166 -0.4957
27079SOL    HW188095  10.346   4.947   0.299  3.5719  1.0548 -0.4377
27079SOL    HW288096  10.347   4.975   0.150  1.7362 -0.1557 -0.7149
27080SOL     OW88097   3.523   3.683   6.550 -0.8655  0.1721  0.1120
27080SOL    HW188098   3.523   3.777   6.532  1.5935  0.2475  0.1284
27080SOL    HW288099   3.589   3.647   6.491 -1.4944 -1.4985  0.3722
27081SOL     OW88100   8.499   2.554   2.038  0.2398  0.3271  0.5320
27081SOL    HW188101   8.572   2.563   1.977  0.2438 -0.6770  0.3731
27081SOL    HW288102   8.531   2.494   2.105 -0.5360 -0.3604  0.3017
27082SOL     OW88103   2.471   9.998   2.790 -0.1174  0.5808 -0.5061
27082SOL    HW188104   2.548   9.944   2.771 -0.4001  0.7774 -2.3048
27082SOL    HW288105   2.400   9.935   2.801 -0.2091  0.5190 -1.4251
27083SOL     OW88106   6.284   7.849   4.326 -0.2289 -0.0306 -0.1223
27083SOL    HW188107   6.304   7.938   4.297  0.9948 -0.6112 -1.1708
27083SOL    HW288108   6.285   7.796   4.246 -0.0913 -1.1231  0.5746
27084SOL     OW88109   1.080   0.473   5.196 -0.3432  0.4649 -0.1287
27084SOL    HW188110   1.069   0.542   5.131 -0.5611  0.1583 -0.4180
27084SOL    HW288111   1.120   0.401   5.148 -1.2373 -0.0504 -0.1074
27085SOL     OW88112   6.178   1.884  11.357 -0.4112 -0.5508 -0.3657
27085SOL    HW188113   6.178   1.872  11.452  0.1550 -2.8330 -0.5991
27085SOL    HW288114   6.118   1.957  11.342 -0.1224  0.1927  1.7695
27086SOL     OW88115  12.051   6.585  11.323  0.0601  0.4686  0.2099
27086SOL    HW188116  11.969   6.616  11.286 -0.3112 -0.3040  0.3681
27086SOL    HW288117  12.039   6.490  11.331  0.8072  0.4053  0.6306
27087SOL     OW88118   2.200   9.665   5.859 -0.1738 -0.1949  0.2556
27087SOL    HW188119   2.133   9.708   5.806 -0.1084 -0.7009 -0.2513
27087SOL    HW288120   2.221   9.585   5.810  1.0039  0.0976  0.2599
27088SOL     OW88121  11.601  11.663  11.641 -0.1730  0.0062 -0.0738
27088SOL    HW188122  11.514  11.666  11.679 -0.1952 -0.0861 -0.1185
27088SOL    HW288123  11.637  11.750  11.658 -0.4224  0.1738 -0.4079
27089SOL     OW88124  10.886   7.966   6.159  0.1970 -0.0837 -0.5332
27089SOL    HW188125  10.794   7.990   6.163  1.0528  3.6697  1.4691
27089SOL    HW288126  10.914   7.990   6.071 -0.5128 -0.3970 -0.8490
27090SOL     OW88127  10.938  10.207   9.537  0.1203  0.4545  0.2525
27090SOL    HW188128  10.998  10.169   9.474 -0.6003  0.7407 -0.6264
27090SOL    HW288129  10.855  10.160   9.523  0.1495 -0.0241  1.5247
27091SOL     OW88130   2.602   5.724   5.668 -0.4895  0.4159  0.2445
27091SOL    HW188131   2.544   5.789   5.707 -1.4202 -0.6410  0.6814
27091SOL    HW288132   2.550   5.686   5.596 -0.1752 -0.2279  0.3530
27092SOL     OW88133   4.141   3.952   7.741  0.2276  0.5520 -1.1311
27092SOL    HW188134   4.130   3.961   7.835  0.3982 -0.0758 -1.0512
27092SOL    HW288135   4.120   4.039   7.706  1.5802  1.2020 -0.4002
27093SOL     OW88136   9.828   1.481   3.642  0.1139  0.5342 -0.5598
27093SOL    HW188137   9.830   1.386   3.640  0.7410  0.5454 -0.8539
27093SOL    HW288138   9.743   1.503   3.678  0.3078 -0.1452  0.3428
27094SOL     OW88139   9.619   1.065   8.924 -0.2068  0.2401 -0.0406
27094SOL    HW188140   9.534   1.109   8.932  0.2560  0.9570  1.3000
27094SOL    HW288141   9.661   1.107   8.849 -0.0446  1.6835  0.8208
27095SOL     OW88142   1.730  10.384   1.851  0.1899  0.2288  0.0694
27095SOL    HW188143   1.803  10.329   1.823  0.5846  0.6497  0.2742
27095SOL    HW288144   1.716  10.360   1.943  0.5209  0.6450  0.2294
27096SOL     OW88145   5.461   0.381   5.132 -0.0195 -0.2392  0.7450
27096SOL    HW188146   5.497   0.292   5.135 -1.1101 -0.6928  0.8788
27096SOL    HW288147   5.487   0.420   5.216  1.3618 -0.0475  0.2561
27097SOL     OW88148   8.228   2.300   3.417 -0.1243 -0.7618 -0.0884
27097SOL    HW188149   8.201   2.339   3.500  1.7681 -2.9143  1.6534
27097SOL    HW288150   8.188   2.213   3.416 -0.7667 -0.4999 -1.8587
27098SOL     OW88151  12.158   5.708   9.245 -0.2427 -0.4746  0.2592
27098SOL    HW188152  12.104   5.646   9.196 -0.1641  0.5696 -1.2001
27098SOL    HW288153  12.157   5.788   9.193  0.5886  0.4025  1.5301
27099SOL     OW88154   5.733   9.811   6.307  0.2547  0.3922 -0.1259
27099SOL    HW188155   5.665   9.748   6.331 -0.8772  1.3225 -0.8422
27099SOL    HW288156   5.814   9.770   6.338 -0.6777 -0.4184  1.3912
27100SOL     OW88157   8.175   9.468  10.479 -0.1392 -0.6491  0.2093
27100SOL    HW188158   8.158   9.555  10.441  1.8559 -0.1638  0.3125
27100SOL    HW288159   8.125   9.408  10.424 -0.5420  0.4477 -0.6677
27101SOL     OW88160   0.605   0.020   9.324 -0.2586 -0.2013  0.2742
27101SOL    HW188161   0.516  -0.008   9.346 -0.2039  0.4838  1.4610
27101SOL    HW288162   0.629   0.081   9.394  0.3480  1.2779 -1.1595
27102SOL     OW88163   6.665  11.332  11.783 -0.4664 -0.1738 -0.0427
27102SOL    HW188164   6.711  11.268  11.838 -1.1206  0.9000  1.8179
27102SOL    HW288165   6.729  11.355  11.715  0.9061 -0.4258  1.1308
27103SOL     OW88166   4.734   3.300  11.407 -0.5410 -0.5904 -0.2599
27103SOL    HW188167   4.742   3.375  11.466  0.0506 -0.3941 -0.5790
27103SOL    HW288168   4.823   3.265  11.400 -0.7267 -1.0341 -0.4885
27104SOL     OW88169  11.304   6.625  12.227  0.7610 -0.1672  0.2760
27104SOL    HW188170  11.258   6.545  12.201  0.3820  0.3984 -0.8288
27104SOL    HW288171  11.276   6.639  12.318 -1.0632  0.0008 -0.2614
27105SOL     OW88172  11.221  12.009   2.198  0.0665  0.5912  0.1422
27105SOL    HW188173  11.186  12.098   2.188 -0.6120  0.3522  0.2931
27105SOL    HW288174  11.219  11.972   2.109 -0.4633  0.4460  0.2054
27106SOL     OW88175  10.957   9.392  12.122  0.0958  0.2513  0.1483
27106SOL    HW188176  10.946   9.331  12.194  0.4751  0.1280  0.1034
27106SOL    HW288177  11.049   9.384  12.097 -0.5926 -1.6853 -2.1242
27107SOL     OW88178   4.255   4.897   7.270  0.1632 -0.2382  0.0571
27107SOL    HW188179   4.245   4.986   7.237 -0.0870 -0.1141  0.4569
27107SOL    HW288180   4.167   4.860   7.267  0.2090 -0.3615  0.1944
27108SOL     OW88181   9.553   5.196  10.195  0.3698  1.0168 -0.1950
27108SOL    HW188182   9.520   5.229  10.111  2.5915  1.5238 -0.9239
27108SOL    HW288183   9.618   5.130  10.171  0.8747  1.0019  1.1455
27109SOL     OW88184   2.629   2.963  10.161 -0.5078  0.6080  0.7039
27109SOL    HW188185   2.609   2.961  10.068 -1.4034  3.3408  0.7240
27109SOL    HW288186   2.722   2.988  10.165 -0.6939  1.3831  0.4930
27110SOL     OW88187   7.729   3.012   8.048  0.4557  0.0436  0.9567
27110SOL    HW188188   7.698   2.925   8.072 -0.5222 -0.1227 -0.7308
27110SOL    HW288189   7.665   3.044   7.984  1.5459  1.4276  0.4925
27111SOL     OW88190   6.247  11.669   3.918 -0.4299  0.3838 -0.4666
27111SOL    HW188191   6.159  11.634   3.907 -0.2557 -0.1333 -0.2197
27111SOL    HW288192   6.279  11.630   4.000 -0.7130  2.1148  0.5141
27112SOL     OW88193   8.416   3.958   3.305 -0.2206 -0.1515 -0.0511
27112SOL    HW188194   8.321   3.969   3.312 -0.1965  0.4105 -0.5085
27112SOL    HW288195   8.438   3.894   3.372 -0.8085  0.3527  0.6352
27113SOL     OW88196  11.160  12.004   2.482  0.5237 -0.6355  0.6143
27113SOL    HW188197  11.197  12.037   2.400 -1.0170  0.8567  0.4549
27113SOL    HW288198  11.118  11.922   2.459 -0.1327 -0.0904 -0.1638
27114SOL     OW88199  11.886   6.303   1.263 -0.1015 -0.0622  0.0282
27114SOL    HW188200  11.921   6.368   1.323 -1.1150 -0.1404  0.7261
27114SOL    HW288201  11.792   6.320   1.261 -0.1108 -0.1151 -1.4765
27115SOL     OW88202   0.386   3.802   5.359  0.2369  0.0365 -0.0737
27115SOL    HW188203   0.444   3.735   5.322 -1.6249 -1.2318 -0.8745
27115SOL    HW288204   0.371   3.862   5.286 -0.2362 -0.2116 -0.1863
27116SOL     OW88205   0.803   6.307   8.553 -0.1713  0.3060 -0.4325
27116SOL    HW188206   0.737   6.317   8.621 -1.0742 -0.8399 -1.0978
27116SOL    HW288207   0.832   6.396   8.534  0.3972  0.6209  1.6941
27117SOL     OW88208  10.980   1.435  10.497 -0.2421 -0.3844 -0.0162
27117SOL    HW188209  11.065   1.463  10.533  0.0396 -1.3246  0.0874
27117SOL    HW288210  10.929   1.409  10.574  0.2607 -2.1321 -0.2282
27118SOL     OW88211  12.556   0.077  11.703 -0.2912 -0.5572  0.2679
27118SOL    HW188212  12.495   0.109  11.637  0.5042 -3.1420 -1.8991
27118SOL    HW288213  12.641   0.110  11.676  0.1079 -2.0031 -0.3346
27119SOL     OW88214   9.886   4.988   6.937  0.2253 -0.3499 -0.5865
27119SOL    HW188215   9.811   4.944   6.977  0.7624  1.4655  2.8178
27119SOL    HW288216   9.960   4.930   6.952  0.0263 -0.7575 -1.1607
27120SOL     OW88217   4.284   9.037   4.651 -0.4367  0.3684  0.0501
27120SOL    HW188218   4.226   9.022   4.726 -1.4981 -0.5153 -0.9256
27120SOL    HW288219   4.230   9.017   4.574  1.1958 -0.6425 -0.8835
27121SOL     OW88220   7.112   5.395   1.146 -0.2215 -0.2820  0.4233
27121SOL    HW188221   7.171   5.400   1.222  1.2033  0.2233 -0.6543
27121SOL    HW288222   7.087   5.303   1.141 -2.1322  0.0018  2.7446
27122SOL     OW88223  11.559  11.902   2.494 -0.2121 -0.0312 -0.3360
27122SOL    HW188224  11.622  11.841   2.533 -0.2515 -0.2936 -0.6712
27122SOL    HW288225  11.480  11.893   2.547 -0.2657 -0.3874 -0.4722
27123SOL     OW88226   6.745   7.657   6.627  0.2124  0.1546 -0.0869
27123SOL    HW188227   6.793   7.683   6.706  1.0480  0.8214 -0.8029
27123SOL    HW288228   6.653   7.671   6.650  0.5146  1.5736  0.3386
27124SOL     OW88229   7.546   4.554   5.800 -0.1591 -0.2568  0.3123
27124SOL    HW188230   7.605   4.481   5.785 -0.5329 -0.5690  0.3328
27124SOL    HW288231   7.545   4.602   5.718  1.4426  0.7428  0.8248
27125SOL     OW88232   0.026  12.018   0.764 -0.0137  0.2413 -0.4040
27125SOL    HW188233   0.069  12.103   0.765  0.2280  0.1184 -0.3107
27125SOL    HW288234   0.008  11.999   0.856 -2.6741  1.5036 -0.5491
27126SOL     OW88235   8.113   5.727   1.331  0.5476 -0.0719 -0.3193
27126SOL    HW188236   8.147   5.654   1.381  1.0045  0.3529  0.0008
27126SOL    HW288237   8.099   5.796   1.396 -1.1704 -0.3040 -0.3935
27127SOL     OW88238   1.945  10.698   7.728  0.2050  0.2434 -0.1596
27127SOL    HW188239   1.998  10.747   7.665  0.0687  1.5522  0.7031
27127SOL    HW288240   1.876  10.759   7.753 -0.5342 -0.7419  0.2420
27128SOL     OW88241  10.762  11.139   9.950 -0.1604  0.0208 -0.1141
27128SOL    HW188242  10.672  11.148   9.982 -0.5864 -1.5704 -0.7304
27128SOL    HW288243  10.817  11.151  10.028 -1.1064 -2.4682  1.0407
27129SOL     OW88244   5.500   0.370   2.007 -0.1592  0.5040  0.7203
27129SOL    HW188245   5.414   0.380   1.966 -0.4285 -0.8389  0.9237
27129SOL    HW288246   5.484   0.314   2.083  0.6581  1.4008  1.5816
27130SOL     OW88247  12.223   2.066   3.080 -0.5483  0.1675  0.2033
27130SOL    HW188248  12.157   2.015   3.033 -0.5567  0.5407 -0.1964
27130SOL    HW288249  12.292   2.080   3.016 -0.5197  0.6049  0.3268
27131SOL     OW88250   3.773   3.247   8.538  0.3228  0.3407 -0.6936
27131SOL    HW188251   3.780   3.152   8.548  2.9149  0.4029 -1.3446
27131SOL    HW288252   3.862   3.280   8.550 -0.8028  3.0000  2.0623
27132SOL     OW88253   4.445  10.767   1.116  0.5195 -0.1195  0.4075
27132SOL    HW188254   4.382  10.719   1.063 -0.9987  1.9140  0.2649
27132SOL    HW288255   4.515  10.790   1.055 -1.6666  3.0401 -1.1314
27133SOL     OW88256   6.774   2.234   3.602  0.1454 -0.3580  0.2805
27133SOL    HW188257   6.699   2.284   3.634  1.2440  1.1128  0.6439
27133SOL    HW288258   6.781   2.256   3.510 -0.3036 -1.0804  0.0670
27134SOL     OW88259   5.152   3.422   4.109 -0.2277  0.0986 -0.0331
27134SOL    HW188260   5.221   3.355   4.113  2.5858  2.5919 -2.1590
27134SOL    HW288261   5.083   3.381   4.057  1.0430 -1.4376 -0.6144
27135SOL     OW88262   9.040   6.275   3.948  0.2875 -0.3113  0.2445
27135SOL    HW188263   9.009   6.354   3.993  1.8591 -0.0849  0.9630
27135SOL    HW288264   9.079   6.308   3.867  2.1048 -0.1872  1.1359
27136SOL     OW88265  10.447  10.094   9.502  0.2257 -0.0425 -0.1721
27136SOL    HW188266  10.481  10.158   9.564  0.6404  1.4537 -1.8665
27136SOL    HW288267  10.428  10.017   9.555  2.5156  0.4283  1.4802
27137SOL     OW88268  10.864  10.810   1.800 -0.4624 -0.3681 -0.1600
27137SOL    HW188269  10.770  10.808   1.818 -0.3236 -2.1247  0.6406
27137SOL    HW288270  10.886  10.902   1.792 -2.0894  0.1098  0.5480
27138SOL     OW88271  10.059   0.150  12.486  0.1754 -0.1090  0.3119
27138SOL    HW188272  10.039   0.085  12.418  1.2015  1.1383 -1.2740
27138SOL    HW288273  10.106   0.219  12.439 -0.4558  1.5594  2.0113
27139SOL     OW88274   6.090   4.818   7.034 -0.9152  0.1057  0.2022
27139SOL    HW188275   6.035   4.768   6.975 -2.3492  1.9041 -0.0835
27139SOL    HW288276   6.032   4.885   7.070  0.6567  0.9415  1.3278
27140SOL     OW88277   7.076   2.763   4.637  0.2872 -0.2809 -0.1546
27140SOL    HW188278   7.086   2.793   4.547 -2.7716 -1.2552 -0.9290
27140SOL    HW288279   7.107   2.836   4.691 -1.0722  1.7294 -1.9712
27141SOL     OW88280   9.068  11.054   4.271  0.1751  0.0432 -0.4529
27141SOL    HW188281   9.039  10.971   4.234 -0.5208  0.3141 -0.5366
27141SOL    HW288282   8.993  11.113   4.259  0.5736  0.6145 -0.1812
27142SOL     OW88283   9.730  11.730   4.213 -0.0684 -0.6310  0.0479
27142SOL    HW188284   9.816  11.772   4.212  0.1486 -1.0355 -1.9231
27142SOL    HW288285   9.738  11.657   4.151 -2.2045  0.1250 -1.2090
27143SOL     OW88286   8.021  12.327   0.623 -0.3884 -0.0593 -0.0466
27143SOL    HW188287   7.936  12.305   0.661 -0.9076  0.5027 -0.8474
27143SOL    HW288288   8.020  12.286   0.536  0.0385  0.1963 -0.1797
27144SOL     OW88289  10.161   7.151  12.350 -0.2097  0.2346 -0.3229
27144SOL    HW188290  10.201   7.216  12.407  0.0188  0.6991 -0.9957
27144SOL    HW288291  10.174   7.185  12.261 -2.6440  0.7408 -0.5634
27145SOL     OW88292   7.691  11.451   0.894 -0.2657  0.1595  0.5134
27145SOL    HW188293   7.624  11.480   0.833  1.1833  3.3777  0.2724
27145SOL    HW288294   7.743  11.388   0.843 -0.9432  0.3873 -0.4961
27146SOL     OW88295   1.006   0.340   0.685 -0.2038 -0.1683  0.0953
27146SOL    HW188296   1.024   0.400   0.757 -0.7217  1.0766 -0.7718
27146SOL    HW288297   0.916   0.360   0.658  0.3048  0.1201 -1.5314
27147SOL     OW88298  11.667   1.317   9.968  0.4756  0.2494  0.0166
27147SOL    HW188299  11.595   1.361   9.922 -0.1097 -1.2070 -0.5281
27147SOL    HW288300  11.703   1.256   9.903 -0.5004 -2.0111  1.4804
27148SOL     OW88301   2.497   0.871  10.942  0.2162  0.0156  0.4669
27148SOL    HW188302   2.419   0.906  10.900  0.5413  0.0815 -0.0943
27148SOL    HW288303   2.516   0.933  11.013  1.2918  1.4965 -1.0586
27149SOL     OW88304   0.003   2.128   2.122  0.1809 -0.2556 -0.0894
27149SOL    HW188305  -0.025   2.202   2.069  0.4604  0.8898  1.3119
27149SOL    HW288306  -0.067   2.115   2.185  0.2204 -1.0762 -0.2049
27150SOL     OW88307   2.001   6.374   6.832  0.7320  0.2772  0.3808
27150SOL    HW188308   2.006   6.286   6.795  3.3609  0.9045 -0.9660
27150SOL    HW288309   1.982   6.360   6.925 -3.3436 -1.4540 -0.4916
27151SOL     OW88310   1.390  11.377  10.541  0.2948 -0.5854 -0.4628
27151SOL    HW188311   1.304  11.410  10.512  0.3029 -0.4030 -0.2807
27151SOL    HW288312   1.414  11.435  10.613  1.2903  0.3726 -1.5147
27152SOL     OW88313  10.451   1.692   9.580  0.3647 -0.1130 -0.2887
27152SOL    HW188314  10.422   1.775   9.618 -0.6401 -0.8708  0.6859
27152SOL    HW288315  10.481   1.641   9.655 -2.3069 -1.9075 -0.2773
27153SOL     OW88316   2.752   1.182   9.320  0.1010  0.0242 -0.0890
27153SOL    HW188317   2.818   1.197   9.387 -2.5902  0.5927  2.6497
27153SOL    HW288318   2.679   1.238   9.346 -1.7476 -1.1012 -2.5310
27154SOL     OW88319   3.242   1.637   7.193 -0.1838  0.5839  0.5629
27154SOL    HW188320   3.298   1.695   7.141 -1.6012 -0.3917 -2.3086
27154SOL    HW288321   3.228   1.683   7.275  1.9754  2.4173 -0.0157
27155SOL     OW88322   2.970   9.770  12.404 -0.2098  0.0962  0.0896
27155SOL    HW188323   2.986   9.863  12.386  0.4689  0.4626  2.2986
27155SOL    HW288324   2.909   9.743  12.336  1.6253  1.4379 -2.2839
27156SOL     OW88325   1.357   4.284   1.171 -0.0161 -0.0139 -0.4372
27156SOL    HW188326   1.430   4.235   1.134  1.4942  1.1032  0.9281
27156SOL    HW288327   1.345   4.358   1.113  1.2979  0.8742  0.3737
27157SOL     OW88328   0.395   7.181   6.504  0.4430 -0.0048 -0.1186
27157SOL    HW188329   0.382   7.145   6.416  2.1975 -0.0510 -0.3998
27157SOL    HW288330   0.350   7.265   6.502 -0.2671 -0.3771 -0.7672
27158SOL     OW88331   5.928   1.203   7.251  0.1190 -0.0678  0.1738
27158SOL    HW188332   5.976   1.158   7.181 -1.1088  0.4424 -1.0377
27158SOL    HW288333   5.888   1.278   7.208  0.4966  1.0841  1.7523
27159SOL     OW88334   3.083   9.147   9.941 -0.2685  0.1799  0.4042
27159SOL    HW188335   3.116   9.188   9.862 -1.0353  0.0803  0.0183
27159SOL    HW288336   3.068   9.221  10.001 -1.1964  0.4325 -0.1194
27160SOL     OW88337   4.470   6.478  12.178  0.2363 -0.1284  0.2527
27160SOL    HW188338   4.419   6.480  12.259  1.5078 -1.4873  1.1407
27160SOL    HW288339   4.463   6.567  12.142 -1.8908 -0.0074  0.8362
27161SOL     OW88340   0.234   5.750   3.248  0.5224  0.5154 -0.1386
27161SOL    HW188341   0.139   5.744   3.234  0.3237  2.5145  0.0881
27161SOL    HW288342   0.244   5.813   3.319  1.9743 -1.0484  1.1163
27162SOL     OW88343   4.698   2.084   9.002 -0.1408  0.2072  0.7314
27162SOL    HW188344   4.676   2.002   8.959 -1.3131  1.3067 -0.8795
27162SOL    HW288345   4.716   2.060   9.093 -0.6228 -1.7904  0.3284
27163SOL     OW88346   3.156   7.227   0.963 -0.4680  0.3434 -0.1291
27163SOL    HW188347   3.109   7.163   1.016  0.1096 -1.6867 -1.9027
27163SOL    HW288348   3.242   7.187   0.948  0.1254  1.8114 -0.8057
27164SOL     OW88349  10.945   1.940   3.912 -0.2528 -0.1255 -0.1601
27164SOL    HW188350  10.972   1.854   3.944 -2.0683 -0.0890  1.6914
27164SOL    HW288351  11.005   2.001   3.955  0.5952 -0.3946 -0.9314
27165SOL     OW88352   6.729   3.786   8.333 -0.4169  0.0703 -0.1297
27165SOL    HW188353   6.710   3.822   8.419  1.1773  2.9053 -0.8701
27165SOL    HW288354   6.643   3.783   8.290 -1.2074 -1.2079  1.3972
27166SOL     OW88355   8.124   5.981   7.909 -0.1495  0.5424  0.3906
27166SOL    HW188356   8.065   6.038   7.859 -1.7073 -1.7433 -0.5174
27166SOL    HW288357   8.201   5.971   7.852 -1.3805 -1.0321 -1.0913
27167SOL     OW88358  10.327   7.656   6.223 -1.1398  0.4529  0.2299
27167SOL    HW188359  10.341   7.562   6.233 -0.6866  0.6847  2.0833
27167SOL    HW288360  10.339   7.672   6.129 -0.0296 -1.1557  0.0542
27168SOL     OW88361   0.185   1.580   3.256 -0.2689 -0.2242 -0.3369
27168SOL    HW188362   0.209   1.549   3.168 -0.6278 -0.4904 -0.3416
27168SOL    HW288363   0.151   1.668   3.240 -1.0754 -0.5656 -0.5731
27169SOL     OW88364  11.510  12.557   1.821  0.1292 -0.0090  0.1550
27169SOL    HW188365  11.480  12.559   1.730 -1.6615 -0.2578  0.6948
27169SOL    HW288366  11.555  12.473   1.830 -0.8950 -0.6095 -0.1705
27170SOL     OW88367   9.439   6.865   9.799  0.1621 -0.0423 -0.1505
27170SOL    HW188368   9.456   6.776   9.767 -0.9039 -0.5912  0.7517
27170SOL    HW288369   9.459   6.861   9.893 -0.5255  0.4875  0.0300
27171SOL     OW88370   0.056   1.181  10.438 -0.1602  0.2332 -0.1359
27171SOL    HW188371   0.078   1.261  10.485 -1.9537  1.3724 -1.0836
27171SOL    HW288372   0.037   1.117  10.506  0.2620  0.9399  0.6591
27172SOL     OW88373   4.687   3.728   1.015 -0.0282  0.2338 -0.4125
27172SOL    HW188374   4.629   3.800   0.988 -0.0459 -0.4568 -2.3953
27172SOL    HW288375   4.713   3.751   1.104 -1.7531  1.5898 -0.1804
27173SOL     OW88376   5.922   5.541   6.853 -0.5808 -0.2843 -0.2285
27173SOL    HW188377   5.875   5.485   6.915 -0.8464 -0.9701 -1.0403
27173SOL    HW288378   5.985   5.483   6.810  0.5029  0.4636  0.2933
27174SOL     OW88379   7.898   6.562   3.500 -0.3060 -0.3480 -0.2838
27174SOL    HW188380   7.852   6.634   3.544  0.0754  0.5403 -1.3027
27174SOL    HW288381   7.969   6.604   3.453  0.3425 -1.4887 -0.3465
27175SOL     OW88382   4.869   5.491   0.566 -0.0733  0.3654 -0.0637
27175SOL    HW188383   4.904   5.576   0.537  0.9057  0.2921  0.8486
27175SOL    HW288384   4.779   5.510   0.591  0.4565  1.4021  1.1925
27176SOL     OW88385   9.845   0.313   4.338  0.6805  0.5621 -0.0393
27176SOL    HW188386   9.884   0.399   4.323  1.1677  0.4017  0.2624
27176SOL    HW288387   9.844   0.304   4.434  0.9329  0.1019 -0.0765
27177SOL     OW88388   4.231   9.987  12.121  0.4536 -0.0532 -0.2710
27177SOL    HW188389   4.312  10.026  12.153  0.0931  0.8191 -0.3679
27177SOL    HW288390   4.257   9.931  12.049  1.0464 -0.3566  0.1723
27178SOL     OW88391   3.890   0.349   3.947 -0.4111  0.0803  0.2459
27178SOL    HW188392   3.888   0.424   4.006 -1.3284  0.3154 -0.0753
27178SOL    HW288393   3.882   0.387   3.860 -1.9684 -0.4466  0.1349
27179SOL     OW88394   2.648   2.950  12.258 -0.6351 -0.1081  0.8672
27179SOL    HW188395   2.693   2.977  12.178 -1.6822  1.3421  0.7303
27179SOL    HW288396   2.713   2.959  12.327  0.0352 -0.5695  0.3120
27180SOL     OW88397  10.002   7.896   6.292 -0.3226 -0.0145  0.0974
27180SOL    HW188398   9.972   7.849   6.215 -1.3940  0.2387  0.3459
27180SOL    HW288399   9.935   7.962   6.308  0.3541  0.5480  0.7004
27181SOL     OW88400  10.937   8.979  10.459  0.5515 -0.5735 -0.2602
27181SOL    HW188401  10.944   8.908  10.523 -0.2679 -0.6861 -0.2868
27181SOL    HW288402  10.980   8.944  10.381  2.1494 -0.1865  0.4117
27182SOL     OW88403   8.185  11.061   7.435  0.0057  0.4706  0.4474
27182SOL    HW188404   8.111  11.076   7.494  0.8455  0.7418  1.4581
27182SOL    HW288405   8.180  11.132   7.371 -1.7106 -0.5859 -0.6801
27183SOL     OW88406   8.676   8.281   4.675 -0.4360 -0.0762 -0.4134
27183SOL    HW188407   8.762   8.276   4.634  0.6475 -1.1885  1.7991
27183SOL    HW288408   8.669   8.371   4.705 -0.5254  0.3027 -1.5461
27184SOL     OW88409   7.067   0.742   9.309  0.3708  0.0385 -0.1993
27184SOL    HW188410   7.055   0.834   9.284  1.0459 -0.2601 -1.7529
27184SOL    HW288411   7.005   0.728   9.381  0.6427  1.8433  0.4420
27185SOL     OW88412  12.319  11.526   2.756 -0.5101  0.1762  0.1554
27185SOL    HW188413  12.294  11.617   2.739 -1.2880 -0.2522 -1.2036
27185SOL    HW288414  12.246  11.490   2.807  0.9087  0.9238  2.8422
27186SOL     OW88415  12.256   1.495   7.114 -0.3693 -0.3183  0.5232
27186SOL    HW188416  12.298   1.433   7.055 -0.0834 -0.2871  0.6904
27186SOL    HW288417  12.325   1.558   7.135 -0.3869 -0.4921  1.1162
27187SOL     OW88418   4.689   1.287   9.977 -0.0525  0.0511  0.4759
27187SOL    HW188419   4.715   1.200  10.008 -2.0577 -0.6719  0.2467
27187SOL    HW288420   4.645   1.327  10.052 -2.6577 -0.7198 -0.5522
27188SOL     OW88421   8.642   6.704  12.534 -0.5020 -0.1256 -0.1783
27188SOL    HW188422   8.560   6.687  12.580 -1.0373 -1.3975 -1.5432
27188SOL    HW288423   8.704   6.643  12.574 -0.8512 -0.9090 -0.8200
27189SOL     OW88424   5.421   9.380   4.754  0.3767 -0.8022 -0.3723
27189SOL    HW188425   5.476   9.429   4.815 -1.7898  1.1738  0.1685
27189SOL    HW288426   5.447   9.289   4.766  1.0184 -0.3554  2.5082
27190SOL     OW88427   2.561   3.771   0.550  0.4008  0.5166  0.3599
27190SOL    HW188428   2.558   3.774   0.645 -0.1633  0.2452  0.3516
27190SOL    HW288429   2.637   3.824   0.527  0.5114  0.6227  0.9567
27191SOL     OW88430  12.485   4.218   7.949  0.2607  0.0845  0.5556
27191SOL    HW188431  12.458   4.307   7.926  0.6183  0.2774  0.8645
27191SOL    HW288432  12.580   4.219   7.940  0.1130 -1.0077 -2.0127
27192SOL     OW88433  11.436   3.493   0.647  0.0814 -0.0926  0.2885
27192SOL    HW188434  11.519   3.530   0.676  0.8690 -1.0634 -0.6561
27192SOL    HW288435  11.392   3.466   0.727  0.3618  1.0334  0.8461
27193SOL     OW88436  11.357   9.104   0.125 -0.2884 -0.3491  0.1960
27193SOL    HW188437  11.444   9.145   0.129 -0.8455  0.9460 -0.2166
27193SOL    HW288438  11.296   9.176   0.143 -1.2867 -1.1841  0.2316
27194SOL     OW88439   0.248  11.807   8.317 -0.8146  0.3434  0.0778
27194SOL    HW188440   0.240  11.902   8.316  1.3412  0.6370  1.7924
27194SOL    HW288441   0.229  11.782   8.408  0.3627 -0.6051  0.1057
27195SOL     OW88442   3.052   8.645   0.219 -0.5644  0.0357  0.6549
27195SOL    HW188443   2.959   8.634   0.240  0.0325 -1.6219  2.7783
27195SOL    HW288444   3.098   8.600   0.290  1.8933  1.3062 -0.0379
27196SOL     OW88445   2.030  11.011  11.051  0.1017 -0.0782 -0.0995
27196SOL    HW188446   2.069  10.924  11.041 -1.2043 -0.8998  1.3445
27196SOL    HW288447   2.029  11.025  11.146 -2.4836  0.1346 -0.1003
27197SOL     OW88448   2.829   2.847   0.884  0.0152  0.0020 -0.2166
27197SOL    HW188449   2.776   2.924   0.861  0.4119  0.3334 -0.0266
27197SOL    HW288450   2.918   2.881   0.893  0.0840 -0.3554  0.5306
27198SOL     OW88451  11.696   2.145  12.046  0.7704 -0.4376 -0.5090
27198SOL    HW188452  11.722   2.187  12.128  2.4467 -1.7788 -0.3051
27198SOL    HW288453  11.608   2.179  12.029  0.8653  0.7956  1.1981
27199SOL     OW88454   0.444   9.403   3.637 -0.1635 -0.1397 -0.0359
27199SOL    HW188455   0.396   9.321   3.645  0.4752 -0.5552 -0.4068
27199SOL    HW288456   0.392   9.457   3.577 -1.3628  0.3170  1.3630
27200SOL     OW88457   2.034   7.241   7.870  0.5723  0.1996 -0.2978
27200SOL    HW188458   2.116   7.207   7.834  0.3877 -1.3713  0.6402
27200SOL    HW288459   2.057   7.273   7.957  0.1305 -0.7209  0.1750
27201SOL     OW88460   8.585   0.498   8.550  0.6305  0.3728  0.5787
27201SOL    HW188461   8.602   0.538   8.635  0.8398  0.4348  0.5070
27201SOL    HW288462   8.671   0.481   8.513  0.5403  1.1210  0.0138
27202SOL     OW88463   1.639   6.652   5.789  0.1831 -0.2645 -0.1846
27202SOL    HW188464   1.581   6.594   5.840 -0.7884  1.5865  0.9129
27202SOL    HW288465   1.706   6.679   5.852 -0.7197  1.6207  0.0281
27203SOL     OW88466  10.878   5.315  11.059 -0.0415  0.0492 -0.1979
27203SOL    HW188467  10.904   5.405  11.075 -1.9351  0.9660 -1.9466
27203SOL    HW288468  10.936   5.286  10.988  0.0113  0.1738 -0.2064
27204SOL     OW88469   0.825  12.493   3.640  0.8576 -0.5804 -0.3764
27204SOL    HW188470   0.825  12.408   3.684  1.9869 -0.1010  0.6030
27204SOL    HW288471   0.757  12.543   3.684 -2.0416 -1.9013 -2.9861
27205SOL     OW88472   5.342   1.676   0.919  0.4519  0.5393 -0.2901
27205SOL    HW188473   5.437   1.669   0.913  0.3197 -1.9577 -0.4378
27205SOL    HW288474   5.315   1.600   0.971 -1.5675  0.3675 -1.4628
27206SOL     OW88475   6.105   8.387   8.282 -0.1382 -0.2180 -0.4083
27206SOL    HW188476   6.095   8.321   8.213 -3.0225 -1.9369  1.4532
27206SOL    HW288477   6.163   8.347   8.346 -0.5120 -0.2189 -0.0708
27207SOL     OW88478   6.826   2.997  11.862 -0.0841  0.3247  0.1993
27207SOL    HW188479   6.841   3.076  11.914  0.3024 -0.6718  1.6807
27207SOL    HW288480   6.913   2.968  11.837 -0.3198  1.9430 -2.9456
27208SOL     OW88481  10.614   7.316  10.897  0.0613 -0.0679 -0.0507
27208SOL    HW188482  10.653   7.303  10.810 -0.6802 -0.3425 -0.3497
27208SOL    HW288483  10.601   7.410  10.903  0.1470 -0.0435 -0.2233
27209SOL     OW88484   3.024   5.392   1.887  0.2617  0.1997 -0.0862
27209SOL    HW188485   2.955   5.394   1.953  1.6110 -1.6387  1.4901
27209SOL    HW288486   3.059   5.481   1.886 -1.3054  0.8586 -0.0813
27210SOL     OW88487   1.857   2.664  10.228  0.5462  0.4232 -0.3443
27210SOL    HW188488   1.853   2.577  10.188 -0.8475 -0.1815  1.0017
27210SOL    HW288489   1.936   2.703  10.192  2.5024 -2.2532  0.6589
27211SOL     OW88490   4.274   8.620   7.117 -0.3790 -0.1215 -0.3998
27211SOL    HW188491   4.267   8.669   7.199 -1.0705  0.7940 -0.9870
27211SOL    HW288492   4.362   8.640   7.084 -0.3950  0.1558 -0.2740
27212SOL     OW88493   8.004   4.622   9.705 -0.1438  0.1679 -0.1766
27212SOL    HW188494   8.054   4.603   9.785 -1.6358  0.3105  0.8318
27212SOL    HW288495   8.045   4.568   9.638  1.6927  0.6934  0.4689
27213SOL     OW88496   6.571   5.960   8.784 -0.2486 -0.4145  0.0473
27213SOL    HW188497   6.641   6.005   8.736 -0.2054 -0.9321 -0.3871
27213SOL    HW288498   6.546   5.887   8.728 -0.8492 -0.4867  0.3948
27214SOL     OW88499   3.466   5.396  11.189  0.1671  0.0250 -0.3997
27214SOL    HW188500   3.446   5.478  11.144  0.0054  1.5396  2.2082
27214SOL    HW288501   3.561   5.399  11.204  0.4589 -1.1472 -1.7888
27215SOL     OW88502  12.167   4.167   0.868  0.1639 -0.2360  0.2571
27215SOL    HW188503  12.218   4.223   0.809 -0.0597 -0.8383 -0.5239
27215SOL    HW288504  12.164   4.216   0.951 -2.4482  2.3258 -1.1698
27216SOL     OW88505  10.634   8.404   3.815  0.0791  0.1677  0.6583
27216SOL    HW188506  10.714   8.441   3.851  0.4189  1.4967 -1.2696
27216SOL    HW288507  10.663   8.338   3.752 -0.4273 -0.9086  1.5309
27217SOL     OW88508   2.755   7.772   2.174  0.0401  0.7527  0.5158
27217SOL    HW188509   2.683   7.787   2.113  0.2343 -0.6214 -0.0974
27217SOL    HW288510   2.715   7.724   2.247  0.4171 -0.5787 -0.1206
27218SOL     OW88511   8.655  12.265   9.537  0.3675 -0.0922 -0.0303
27218SOL    HW188512   8.676  12.353   9.507 -1.1301 -0.2981 -1.9180
27218SOL    HW288513   8.593  12.232   9.471  0.2144 -2.2244  1.1013
27219SOL     OW88514  10.809   5.443   4.123 -0.1192 -0.8104 -0.0046
27219SOL    HW188515  10.821   5.518   4.064  0.5929 -2.7403 -2.5163
27219SOL    HW288516  10.715   5.427   4.122 -0.2834  0.0241  0.5870
27220SOL     OW88517   3.013   5.937   1.963 -0.0378 -0.5333  0.2523
27220SOL    HW188518   3.000   6.001   1.894 -0.0678 -0.6164  0.1807
27220SOL    HW288519   2.925   5.912   1.990 -0.0337 -1.2699 -0.3937
27221SOL     OW88520   5.575   4.151   5.127 -0.1408 -0.0010 -0.1095
27221SOL    HW188521   5.522   4.211   5.179 -1.1344 -1.4183  0.5651
27221SOL    HW288522   5.661   4.152   5.170 -0.7478 -0.6255  1.1672
27222SOL     OW88523   7.965   8.673   8.750  0.6930  0.9286 -0.4098
27222SOL    HW188524   7.882   8.650   8.792  0.7474 -0.5280 -1.0408
27222SOL    HW288525   7.943   8.680   8.657  1.1151  1.3725 -0.4777
27223SOL     OW88526  11.855   6.391   8.558  0.0193  0.0976  0.3760
27223SOL    HW188527  11.868   6.339   8.478 -0.8564 -0.7638  0.7642
27223SOL    HW288528  11.801   6.465   8.529  1.1908  0.7528 -0.1645
27224SOL     OW88529   0.088   2.396  10.262 -0.0535  0.4354 -0.2327
27224SOL    HW188530   0.137   2.424  10.185  0.1016 -1.5665 -0.9206
27224SOL    HW288531  -0.001   2.378  10.230 -0.1241  0.0613  0.1544
27225SOL     OW88532   1.380  12.359  10.557  0.2543  0.0473 -0.2914
27225SOL    HW188533   1.464  12.315  10.567 -0.3766 -0.9525  0.9396
27225SOL    HW288534   1.360  12.353  10.464  1.8862  0.9893 -0.7299
27226SOL     OW88535   5.623   6.794  10.717 -0.1483  0.0520  0.5614
27226SOL    HW188536   5.672   6.756  10.790  0.0415 -1.0464 -0.1121
27226SOL    HW288537   5.540   6.747  10.717 -0.0596 -0.1129 -0.0616
27227SOL     OW88538  11.138   8.483   5.120 -0.1415 -0.7497 -0.1533
27227SOL    HW188539  11.177   8.522   5.041 -0.2074  0.3366  0.3271
27227SOL    HW288540  11.211   8.446   5.168 -0.1371 -1.7242 -0.8699
27228SOL     OW88541   6.757   7.439  11.396  0.5320  0.0640 -0.2722
27228SOL    HW188542   6.679   7.467  11.443 -0.7883 -1.4307 -1.4439
27228SOL    HW288543   6.756   7.490  11.315  0.7877  0.0631 -0.2762
27229SOL     OW88544   5.218   5.319  10.835  0.1360 -0.4178 -0.2448
27229SOL    HW188545   5.166   5.381  10.885 -0.1474 -1.4620  0.7970
27229SOL    HW288546   5.308   5.350  10.846  0.4637 -2.1132  3.3337
27230SOL     OW88547   8.718  11.187  10.937 -0.2821  0.1629 -0.6941
27230SOL    HW188548   8.695  11.185  10.844 -0.7445  1.7137 -0.6459
27230SOL    HW288549   8.673  11.264  10.971  0.8827  0.3416  0.5388
27231SOL     OW88550   5.808   8.400   5.338 -0.0454  0.4318  0.0639
27231SOL    HW188551   5.718   8.430   5.329  0.2076  1.1143 -0.2293
27231SOL    HW288552   5.847   8.414   5.252  0.5913  0.9869  0.4364
27232SOL     OW88553   0.967   8.714  11.348 -0.0727  0.4650 -0.5865
27232SOL    HW188554   0.985   8.807  11.332 -1.2819  0.7293 -0.5165
27232SOL    HW288555   0.872   8.706  11.337 -0.1111 -0.5770  0.3182
27233SOL     OW88556  11.894  12.312  11.972  0.3340  0.2858 -0.2482
27233SOL    HW188557  11.868  12.381  11.911 -0.2710  0.0746 -0.2402
27233SOL    HW288558  11.832  12.319  12.044  1.2931  0.7912  0.5425
27234SOL     OW88559  12.171   3.995   9.580 -0.1281  0.1477  0.0582
27234SOL    HW188560  12.098   4.052   9.603  1.2862  1.4799  1.4600
27234SOL    HW288561  12.132   3.927   9.525 -2.2054  1.4253 -0.1513
27235SOL     OW88562  10.141   1.363   9.241 -0.0014  0.4379 -0.1150
27235SOL    HW188563  10.168   1.301   9.308  0.4227 -0.0171 -0.7012
27235SOL    HW288564  10.202   1.436   9.250 -0.5736  0.8399  0.6512
27236SOL     OW88565   5.271   0.707  10.070  0.6625  0.3922 -1.0676
27236SOL    HW188566   5.336   0.637  10.078 -0.5024 -0.6509 -0.4509
27236SOL    HW288567   5.245   0.726  10.160 -1.4134 -0.6869 -1.3971
27237SOL     OW88568   4.546   6.620   4.969 -0.0460  0.3181 -0.3959
27237SOL    HW188569   4.462   6.577   4.987 -0.4777  1.4390  0.4176
27237SOL    HW288570   4.527   6.713   4.980  1.7158  0.5021  1.6541
27238SOL     OW88571   9.578  11.182   6.255 -0.2419 -0.4043  0.0397
27238SOL    HW188572   9.654  11.230   6.221 -0.6542  0.2420  0.0216
27238SOL    HW288573   9.503  11.239   6.236 -0.8967 -1.6010 -1.0663
27239SOL     OW88574   0.848   2.670   2.780  0.0266 -1.0293  0.4432
27239SOL    HW188575   0.904   2.620   2.838  1.3647 -1.2463 -0.9768
27239SOL    HW288576   0.842   2.757   2.820  1.4246 -0.9926  0.6208
27240SOL     OW88577   2.353   7.487  10.627 -0.1533 -0.0819  0.0330
27240SOL    HW188578   2.351   7.495  10.532 -0.7153 -0.6835 -0.0098
27240SOL    HW288579   2.315   7.569  10.659  1.4733  0.8067 -0.2122
27241SOL     OW88580   0.936   7.359  12.202 -0.0785 -0.4217 -0.5297
27241SOL    HW188581   0.912   7.267  12.212  0.3604 -0.5029 -0.1833
27241SOL    HW288582   1.030   7.361  12.221 -0.1119  0.1167 -0.4126
27242SOL     OW88583   5.014   9.699   8.137  0.2095 -0.3525 -0.4713
27242SOL    HW188584   5.049   9.615   8.108 -0.5152 -1.1722  0.9763
27242SOL    HW288585   5.067   9.764   8.090  1.8679 -1.5798 -0.3672
27243SOL     OW88586   1.753   4.440   3.140  0.3774 -0.1683  0.2928
27243SOL    HW188587   1.804   4.421   3.062  0.3042  0.9211 -0.0324
27243SOL    HW288588   1.818   4.449   3.210  0.5984  0.7197 -0.0220
27244SOL     OW88589   6.454   9.185   9.845  0.5090  0.1645  0.3983
27244SOL    HW188590   6.530   9.236   9.872  1.6670 -1.1054 -0.2991
27244SOL    HW288591   6.391   9.250   9.814  1.5294  1.2258  0.4895
27245SOL     OW88592   1.996   5.138   9.849 -0.5514  0.0801  0.5173
27245SOL    HW188593   1.973   5.060   9.799  1.2307 -0.2498  0.1339
27245SOL    HW288594   1.991   5.111   9.940 -2.8018  0.3921  0.5444
27246SOL     OW88595   9.561   6.827   7.864  0.2484 -0.2141  0.2373
27246SOL    HW188596   9.526   6.891   7.801  0.4688 -1.5291 -1.2658
27246SOL    HW288597   9.640   6.793   7.822 -0.2373 -1.9733  0.6910
27247SOL     OW88598   3.089   5.860   4.550 -0.1038 -0.4591  0.3872
27247SOL    HW188599   3.141   5.917   4.607 -0.0541 -0.4965  0.3787
27247SOL    HW288600   3.043   5.921   4.492  1.1439 -0.4712 -0.6745
27248SOL     OW88601   5.234   1.245   6.205 -0.4291 -0.1335 -0.3071
27248SOL    HW188602   5.328   1.259   6.195 -0.2671 -0.3608  0.7808
27248SOL    HW288603   5.226   1.190   6.283 -1.3770 -1.3302 -1.2078
27249SOL     OW88604   2.265   4.709   0.065 -0.7125  0.6053  0.5566
27249SOL    HW188605   2.310   4.660  -0.003 -1.9630  2.0241 -1.3861
27249SOL    HW288606   2.334   4.732   0.128  0.3049 -1.5057  0.3100
27250SOL     OW88607   1.688   2.750   5.928 -0.5758 -0.0118 -0.4178
27250SOL    HW188608   1.608   2.802   5.939  0.5234  1.1856  3.4222
27250SOL    HW288609   1.666   2.665   5.965 -0.0170  0.4899  1.1572
27251SOL     OW88610   2.161   4.267   3.729  0.4203 -0.2405  0.2557
27251SOL    HW188611   2.151   4.199   3.662 -1.6831  2.2242 -2.1857
27251SOL    HW288612   2.255   4.286   3.731  0.4758  0.2584 -2.8164
27252SOL     OW88613   7.201   9.382   1.805 -0.2046  0.1731  0.4797
27252SOL    HW188614   7.183   9.467   1.765 -2.6439 -0.5039 -0.0141
27252SOL    HW288615   7.231   9.327   1.732 -3.2160 -0.6401 -0.2844
27253SOL     OW88616   5.813  11.833   6.703 -0.0986  0.4505 -0.7772
27253SOL    HW188617   5.892  11.885   6.719 -0.2038  0.5591 -0.6170
27253SOL    HW288618   5.784  11.805   6.789  1.8162 -2.6862 -0.9546
27254SOL     OW88619  10.259   7.868  11.768 -0.1710  0.1400  0.4232
27254SOL    HW188620  10.228   7.917  11.692 -0.2115 -1.7461 -0.8360
27254SOL    HW288621  10.297   7.934  11.825 -0.5882  1.6827 -1.0061
27255SOL     OW88622  11.921   1.865   1.335  0.0541  0.1203 -0.1501
27255SOL    HW188623  11.862   1.941   1.326 -1.3697 -1.1159 -1.9468
27255SOL    HW288624  11.873   1.805   1.392  0.5184 -0.0443  0.0660
27256SOL     OW88625  12.303   4.076   8.096 -0.0516  0.3356 -0.6134
27256SOL    HW188626  12.356   4.134   8.041  0.9643  0.4766  0.4725
27256SOL    HW288627  12.356   3.997   8.105  0.9674  1.2456  2.1504
27257SOL     OW88628   2.431  11.940   6.925 -0.6040 -0.7917 -0.5466
27257SOL    HW188629   2.493  11.938   6.853  1.3390 -0.4863  1.0262
27257SOL    HW288630   2.348  11.910   6.887  0.7866 -2.4589 -2.4344
27258SOL     OW88631   9.501   6.788   2.426 -0.2419 -0.2801  0.4221
27258SOL    HW188632   9.413   6.813   2.397 -0.6276 -0.5532  1.3001
27258SOL    HW288633   9.557   6.859   2.396 -1.0179  0.6964  1.1976
27259SOL     OW88634   7.307   7.359   4.667 -0.2217 -0.0225  0.7945
27259SOL    HW188635   7.396   7.377   4.698 -0.4619  0.9884  0.9467
27259SOL    HW288636   7.304   7.264   4.654  1.2243  0.0356 -0.2685
27260SOL     OW88637   0.519   3.062   1.870 -0.2389  0.0108 -0.4445
27260SOL    HW188638   0.525   3.156   1.851 -2.7165  0.1864 -0.6696
27260SOL    HW288639   0.604   3.027   1.842  0.2835  1.9865 -1.5498
27261SOL     OW88640   4.484   5.768   1.749  0.4374  0.2391 -0.1330
27261SOL    HW188641   4.503   5.722   1.668 -1.2881  1.9453 -1.5878
27261SOL    HW288642   4.413   5.718   1.789  2.9494 -2.0975  1.7657
27262SOL     OW88643   3.386   0.757   0.309  0.0525  0.3708  0.2988
27262SOL    HW188644   3.413   0.670   0.280  0.4688  0.5376  0.1636
27262SOL    HW288645   3.426   0.816   0.245 -0.8134  0.6256 -0.0241
27263SOL     OW88646   2.591   9.081   8.749  0.3740  0.1338  0.0319
27263SOL    HW188647   2.550   9.052   8.830 -0.6601  0.6258 -0.2945
27263SOL    HW288648   2.684   9.059   8.759  0.0317 -1.0703  0.7711
27264SOL     OW88649   1.261  11.371   3.272  0.5559  0.1282  0.2086
27264SOL    HW188650   1.183  11.362   3.217  0.9273 -1.4044 -0.1061
27264SOL    HW288651   1.270  11.465   3.286 -1.6636  0.3209  0.7050
27265SOL     OW88652   1.451   7.672   1.157  0.3340  0.2992 -0.1724
27265SOL    HW188653   1.531   7.723   1.171  0.6346 -0.6839  2.2127
27265SOL    HW288654   1.421   7.698   1.070  3.0503  0.9528 -1.0217
27266SOL     OW88655   4.014   4.053  10.830  0.4338 -0.2000  0.4051
27266SOL    HW188656   4.011   4.147  10.810 -0.5633 -0.5760 -1.4577
27266SOL    HW288657   4.009   4.010  10.745  0.9506 -1.9681  1.2123
27267SOL     OW88658   6.346  11.045   9.560 -0.6794 -0.3834 -0.1886
27267SOL    HW188659   6.335  11.069   9.468  0.0850  3.0654  0.4641
27267SOL    HW288660   6.279  11.095   9.606  0.0815 -0.6665  1.2811
27268SOL     OW88661   2.984   6.398  12.047  0.0640 -0.3035 -0.1322
27268SOL    HW188662   3.017   6.384  11.958  0.9172 -0.0678  0.1317
27268SOL    HW288663   2.936   6.318  12.068 -0.4446 -0.2108 -0.9345
27269SOL     OW88664   4.238   1.992   9.939  0.0938  0.0150  0.3850
27269SOL    HW188665   4.221   2.011  10.031  0.0861  1.5973  0.0880
27269SOL    HW288666   4.307   1.926   9.940 -1.9581 -2.2809  1.5277
27270SOL     OW88667   4.103   7.198   1.027 -0.2317 -0.2154 -0.3198
27270SOL    HW188668   4.195   7.219   1.047  0.0334 -0.6431 -1.0372
27270SOL    HW288669   4.056   7.215   1.109  0.5572 -0.4050  0.1833
27271SOL     OW88670   2.860  10.502  12.034 -0.0332  0.2551  0.1929
27271SOL    HW188671   2.889  10.421  11.991 -0.4730  0.8183 -1.2398
27271SOL    HW288672   2.778  10.478  12.077 -1.2774  0.3743 -1.9643
27272SOL     OW88673   9.081   1.336  12.213 -0.4662 -0.6728  0.3092
27272SOL    HW188674   9.083   1.341  12.309  0.3687  1.3062  0.2355
27272SOL    HW288675   9.152   1.393  12.185 -2.3911  1.0276 -1.5174
27273SOL     OW88676   3.460   7.355   5.533 -0.1150  0.4999  0.1009
27273SOL    HW188677   3.508   7.389   5.608 -0.7692 -0.0832  0.7944
27273SOL    HW288678   3.379   7.321   5.569  0.0505 -0.8355 -0.7083
27274SOL     OW88679   6.496  11.696   0.857  0.2843 -0.2781  0.3338
27274SOL    HW188680   6.533  11.668   0.773 -1.1325  0.5571 -0.6118
27274SOL    HW288681   6.536  11.638   0.922  1.3546 -0.9874 -0.9287
27275SOL     OW88682   6.528   8.393   2.128 -0.0864  0.4079  0.4383
27275SOL    HW188683   6.495   8.389   2.218 -0.0605 -0.9811  0.4086
27275SOL    HW288684   6.590   8.465   2.128  0.3096  0.0855  1.6837
27276SOL     OW88685   1.647   7.160  10.894  0.1087 -0.0586  0.0759
27276SOL    HW188686   1.604   7.236  10.856 -0.6468 -0.3636  0.3123
27276SOL    HW288687   1.714   7.135  10.829 -0.8451 -0.2844 -0.8476
27277SOL     OW88688  10.446   8.864   6.537 -0.2690  0.2419 -0.2909
27277SOL    HW188689  10.436   8.950   6.496  0.7540 -0.1060 -1.3378
27277SOL    HW288690  10.439   8.802   6.465 -3.3567 -0.7752  0.7576
27278SOL     OW88691   6.950   3.494  10.268 -0.3393 -0.0350 -0.2794
27278SOL    HW188692   6.926   3.418  10.320 -0.5822 -0.9099 -1.6497
27278SOL    HW288693   7.022   3.464  10.213 -1.2072  0.3626 -1.6777
27279SOL     OW88694  11.499   5.217   3.478  0.1505  0.0004  0.2222
27279SOL    HW188695  11.516   5.217   3.573  0.1993  0.0883  0.2132
27279SOL    HW288696  11.406   5.197   3.471 -0.2443  1.6139  0.3641
27280SOL     OW88697   8.606   2.170   2.478 -0.1194  0.1716 -0.4016
27280SOL    HW188698   8.635   2.116   2.552 -1.0909  1.3526  0.9091
27280SOL    HW288699   8.646   2.130   2.401  1.3834 -0.7835  0.8227
27281SOL     OW88700   8.738   6.411   8.915 -0.2296  0.2112 -0.0278
27281SOL    HW188701   8.679   6.341   8.943  0.8912 -1.2025 -1.0406
27281SOL    HW288702   8.821   6.367   8.896  0.8714  1.9800  0.3653
27282SOL     OW88703  10.265  10.462   8.723  0.6419  0.3830 -0.1837
27282SOL    HW188704  10.294  10.449   8.813 -0.0660  0.6450  0.0919
27282SOL    HW288705  10.237  10.554   8.720 -1.2701 -0.1401 -0.0817
27283SOL     OW88706   2.365   4.433   0.692 -0.5046  0.3843 -0.0268
27283SOL    HW188707   2.361   4.362   0.756 -0.9925  0.4185 -0.0122
27283SOL    HW288708   2.275   4.440   0.659 -0.3449  0.6444 -0.4112
27284SOL     OW88709   2.940   9.734   2.918  0.0476 -0.1968  0.5891
27284SOL    HW188710   3.022   9.776   2.893  0.2281 -1.1703 -0.5526
27284SOL    HW288711   2.961   9.641   2.926 -0.2659 -0.1207  3.3820
27285SOL     OW88712   4.085   2.532   5.986  0.1787 -0.1247  0.4752
27285SOL    HW188713   4.160   2.472   5.989 -0.9782 -1.8415 -1.9729
27285SOL    HW288714   4.015   2.484   6.029 -0.1073  0.5612  0.7840
27286SOL     OW88715   0.161   1.841   8.770  0.4039 -0.0625 -0.1367
27286SOL    HW188716   0.131   1.930   8.752  0.8405  0.2114  0.4584
27286SOL    HW288717   0.160   1.798   8.685 -1.2550  0.0534 -0.2072
27287SOL     OW88718   7.848  10.865   0.883 -0.3405 -0.2898  0.2375
27287SOL    HW188719   7.912  10.799   0.856 -1.4622 -1.8369  1.1904
27287SOL    HW288720   7.879  10.896   0.967  0.5124  0.8870 -0.4871
27288SOL     OW88721   9.650  10.736   9.668 -0.0884  0.4966  0.0574
27288SOL    HW188722   9.577  10.693   9.714  1.2918 -0.7538  1.1862
27288SOL    HW288723   9.717  10.669   9.661  1.0109  1.6397 -0.8830
27289SOL     OW88724   2.554   0.346  11.211  0.3788  0.1775  0.2611
27289SOL    HW188725   2.585   0.288  11.279  0.5586  0.3310  0.3092
27289SOL    HW288726   2.479   0.392  11.251 -0.1418 -0.4486  0.0264
27290SOL     OW88727   6.392   3.029   2.344  0.3187 -0.5472 -0.0426
27290SOL    HW188728   6.325   2.979   2.391  0.6078 -0.9525 -0.0588
27290SOL    HW288729   6.473   3.012   2.393  0.2467  0.6666  0.5204
27291SOL     OW88730   1.933   5.676   2.421 -0.3791 -0.3187 -0.6148
27291SOL    HW188731   1.870   5.628   2.476 -0.8100  0.7379 -0.1740
27291SOL    HW288732   1.883   5.749   2.385  0.5001  0.3187 -0.5683
27292SOL     OW88733   3.090  11.718  10.375 -0.3546  0.4476 -0.2458
27292SOL    HW188734   3.030  11.671  10.433 -0.0263 -0.6795 -0.8038
27292SOL    HW288735   3.081  11.675  10.290  0.6632  0.7607 -0.5257
27293SOL     OW88736   5.905   2.970   8.844  0.1435  0.0764 -0.1408
27293SOL    HW188737   5.951   3.021   8.912 -1.2684 -0.3694  1.2121
27293SOL    HW288738   5.821   2.947   8.885 -1.0750  0.3973 -2.3094
27294SOL     OW88739   8.181   8.627  10.955 -0.2312  0.2624  0.3688
27294SOL    HW188740   8.109   8.677  10.916  0.4150  1.2661  0.4203
27294SOL    HW288741   8.195   8.668  11.041 -0.2451 -0.5620  0.7714
27295SOL     OW88742   2.067  11.461   9.566  0.2610 -0.2266  0.2852
27295SOL    HW188743   2.042  11.553   9.567  0.6038 -0.1254 -0.4085
27295SOL    HW288744   2.019  11.424   9.492  1.1633 -0.3104 -0.2627
27296SOL     OW88745   0.694  10.042  11.860 -0.2892 -0.0139 -0.1166
27296SOL    HW188746   0.621  10.087  11.901 -0.9262 -2.4199  1.6068
27296SOL    HW288747   0.770  10.062  11.915  0.3638  2.1329 -1.6638
27297SOL     OW88748   5.820   3.548   9.956  0.1830 -0.4411 -0.1269
27297SOL    HW188749   5.825   3.488   9.882 -2.2405 -0.5682 -0.2737
27297SOL    HW288750   5.821   3.635   9.915 -0.1654 -0.4926 -0.2564
27298SOL     OW88751   3.926   1.498   5.360  0.6097  0.2912 -0.8143
27298SOL    HW188752   3.889   1.457   5.438  2.2268 -0.5033 -0.4061
27298SOL    HW288753   4.018   1.470   5.360  0.7070  0.4324 -2.9031
27299SOL     OW88754   0.851   3.254   5.509  0.7917  0.5311  0.3900
27299SOL    HW188755   0.942   3.230   5.529  0.3735 -0.1233  1.6178
27299SOL    HW288756   0.846   3.347   5.527  0.7880  0.2313  2.1216
27300SOL     OW88757   6.870   4.057  11.136 -0.0854  0.6121  0.1828
27300SOL    HW188758   6.884   3.971  11.097  0.1131  1.3592 -1.4462
27300SOL    HW288759   6.799   4.096  11.086  1.9354  2.6442 -1.2916
27301SOL     OW88760   2.941   1.221   2.157 -0.0277 -0.2585 -0.3603
27301SOL    HW188761   3.020   1.173   2.132  1.0930  1.4036 -0.1806
27301SOL    HW288762   2.926   1.281   2.084  0.8688  1.7641  1.0318
27302SOL     OW88763   2.493   7.278   0.184  0.3962 -0.2408 -0.7158
27302SOL    HW188764   2.573   7.257   0.136  0.4077  0.2742 -0.9298
27302SOL    HW288765   2.470   7.366   0.155  0.5365  0.1749  0.4069
27303SOL     OW88766   3.577   5.166   7.036  0.2807 -0.1561 -0.3056
27303SOL    HW188767   3.623   5.116   6.970  2.0094 -0.7532  1.2623
27303SOL    HW288768   3.523   5.102   7.083 -0.2476  0.1040 -0.5410
27304SOL     OW88769   3.712  12.006   7.523  0.4676  0.6124  0.0983
27304SOL    HW188770   3.633  12.003   7.578 -0.7879  3.1996 -1.3503
27304SOL    HW288771   3.757  12.086   7.551  1.5322  0.2259 -0.4660
27305SOL     OW88772   6.828   7.602   1.068  0.0759 -0.0594  0.1648
27305SOL    HW188773   6.820   7.665   0.997  0.5177 -1.4067 -1.1277
27305SOL    HW288774   6.916   7.616   1.103 -1.2500  2.9228  2.8229
27306SOL     OW88775  12.380   4.063   7.756 -0.3642 -0.1794  0.0476
27306SOL    HW188776  12.420   4.100   7.835 -1.2988 -1.7049  1.2882
27306SOL    HW288777  12.439   3.992   7.731  0.3511  0.7952 -1.1338
27307SOL     OW88778  10.740   2.986  12.317  0.5176  1.0067 -0.3445
27307SOL    HW188779  10.775   3.072  12.292 -0.0911  1.3863  0.0684
27307SOL    HW288780  10.689   2.958  12.241  2.4775 -0.0154 -1.3610
27308SOL     OW88781  10.193   1.165  10.752 -0.1978 -0.4527 -0.5313
27308SOL    HW188782  10.166   1.073  10.742  0.7412 -0.7097 -0.8063
27308SOL    HW288783  10.196   1.179  10.847  0.8012 -1.0659 -0.4622
27309SOL     OW88784   1.594  11.815   4.650 -0.1396 -0.1072  0.0648
27309SOL    HW188785   1.517  11.796   4.703  0.6741 -1.4712  0.8317
27309SOL    HW288786   1.617  11.730   4.611  1.2588  0.1614  0.2643
27310SOL     OW88787   6.526   7.194   5.912 -0.4011 -0.4187  0.0924
27310SOL    HW188788   6.618   7.168   5.920 -0.0355  0.7909  0.1391
27310SOL    HW288789   6.510   7.197   5.818  0.4707  2.0324 -0.0537
27311SOL     OW88790   0.558   2.342   3.558  0.0704 -0.0631 -0.4021
27311SOL    HW188791   0.606   2.425   3.558 -1.3363  0.8274  1.9149
27311SOL    HW288792   0.618   2.279   3.597  0.4984  0.2858 -0.4942
27312SOL     OW88793   6.799   1.659   4.287  0.0262  0.1978 -0.6767
27312SOL    HW188794   6.876   1.714   4.304  0.4053 -0.5473  0.1818
27312SOL    HW288795   6.728   1.703   4.333  0.1128  0.4954 -0.8270
27313SOL     OW88796   7.424   4.004   8.858  0.3578 -0.0103 -0.7519
27313SOL    HW188797   7.493   3.995   8.923  0.1476  0.4491 -0.4601
27313SOL    HW288798   7.462   3.970   8.777  0.9463  0.2935 -0.6089
27314SOL     OW88799  10.043   1.176  10.092  0.0794  0.1611  0.6168
27314SOL    HW188800  10.094   1.174  10.011 -0.6090 -2.0144  0.1553
27314SOL    HW288801  10.073   1.099  10.141 -2.2844 -0.9025  0.5514
27315SOL     OW88802   5.629   6.036  10.615 -0.5682 -0.0577  0.2387
27315SOL    HW188803   5.704   6.074  10.660 -0.5541 -1.0739  1.1213
27315SOL    HW288804   5.587   6.110  10.571 -0.2781  0.8956  1.4959
27316SOL     OW88805   9.399  11.088  10.291 -0.0240  0.2034  0.0239
27316SOL    HW188806   9.385  11.161  10.230 -2.5208  0.3337  0.6262
27316SOL    HW288807   9.449  11.125  10.363 -1.6109  1.5025  0.5154
27317SOL     OW88808   4.534   2.960   1.330 -0.4016  0.5067  0.1808
27317SOL    HW188809   4.583   2.878   1.328  2.2744  2.0279 -1.2225
27317SOL    HW288810   4.567   3.007   1.406  0.3398  1.5074 -0.7243
27318SOL     OW88811   7.430   7.572   5.975  0.1598  0.5353  0.3395
27318SOL    HW188812   7.455   7.603   6.062  0.8159 -0.5202  0.5519
27318SOL    HW288813   7.429   7.650   5.921  1.3437  0.9898  0.9351
27319SOL     OW88814   6.854  12.463   1.167  0.2669 -0.4247  0.3244
27319SOL    HW188815   6.804  12.532   1.124  1.0184 -1.0193 -1.6149
27319SOL    HW288816   6.933  12.454   1.115 -0.2809 -3.4480 -0.1841
27320SOL     OW88817   3.958   8.645   2.237  0.1551 -0.0698 -0.5660
27320SOL    HW188818   3.894   8.715   2.236  1.4424  1.1432 -0.5262
27320SOL    HW288819   3.906   8.565   2.228 -1.3257  0.8820 -0.7941
27321SOL     OW88820  12.461   4.192   5.381  0.2374  0.2365 -0.5842
27321SOL    HW188821  12.387   4.197   5.321 -0.4336 -1.3318  0.0774
27321SOL    HW288822  12.429   4.231   5.462  0.6700  0.9947 -0.7640
27322SOL     OW88823   8.784   8.087   6.762  0.2224 -0.1716 -0.3579
27322SOL    HW188824   8.806   8.030   6.688 -2.1265  0.4534 -1.6555
27322SOL    HW288825   8.829   8.048   6.837  0.6795 -2.2794 -1.6517
27323SOL     OW88826   2.015  11.092   2.371 -0.2449 -0.2178 -0.4216
27323SOL    HW188827   2.020  11.011   2.321 -0.6875 -0.3577 -0.2464
27323SOL    HW288828   1.945  11.076   2.435 -0.4357  0.3547 -0.4843
27324SOL     OW88829   1.957   1.262   9.002 -0.2214  0.5760 -0.0168
27324SOL    HW188830   2.011   1.335   8.972  0.1036  0.3017 -0.0950
27324SOL    HW288831   1.958   1.271   9.098 -1.3331  1.5024 -0.0638
27325SOL     OW88832  10.470   1.567  10.075 -0.0131  0.2334  0.2761
27325SOL    HW188833  10.449   1.473  10.077 -1.8036  0.6023  0.0938
27325SOL    HW288834  10.400   1.608  10.126  2.5894  1.1877  3.4167
27326SOL     OW88835   8.050  11.927   1.563 -0.5134 -0.4112 -0.5351
27326SOL    HW188836   7.962  11.923   1.526 -0.8179 -1.1899  0.2402
27326SOL    HW288837   8.105  11.961   1.492 -1.5018  0.4927 -0.8905
27327SOL     OW88838  10.871  12.232   0.432  0.6321  0.1905 -0.5029
27327SOL    HW188839  10.878  12.149   0.384  0.4935  0.6886 -1.4148
27327SOL    HW288840  10.811  12.213   0.504  1.1206 -0.6709 -0.3010
27328SOL     OW88841   6.733   0.750  11.265 -0.7119 -0.3061  0.0815
27328SOL    HW188842   6.694   0.837  11.266  0.0690  0.0718 -0.7157
27328SOL    HW288843   6.718   0.715  11.354 -2.4020 -0.0036 -0.0606
27329SOL     OW88844   8.007   8.920   8.086 -0.4696  0.1783  0.0215
27329SOL    HW188845   8.064   8.997   8.094 -1.2073  0.9971 -1.9816
27329SOL    HW288846   7.986   8.916   7.993 -0.4725 -2.4728  0.0652
27330SOL     OW88847   4.084   2.641  11.737 -0.4538  0.0248  0.0957
27330SOL    HW188848   4.063   2.565  11.683  0.2345  0.6076 -1.0451
27330SOL    HW288849   4.140   2.695  11.681 -0.2388  0.9678  1.1796
27331SOL     OW88850   1.088   5.039   4.346 -0.1294 -0.2317 -0.3358
27331SOL    HW188851   1.141   5.001   4.416 -0.0780  0.6856  0.1386
27331SOL    HW288852   1.007   5.065   4.389  0.5508  1.8671 -0.2374
27332SOL     OW88853   1.905   8.368  11.028  0.4986 -0.3524 -0.4788
27332SOL    HW188854   1.989   8.340  11.066  1.1236  2.3193  0.2746
27332SOL    HW288855   1.840   8.337  11.091  1.1798  0.0643  0.4736
27333SOL     OW88856   6.770   1.893   1.968 -0.6505  0.2924 -0.0674
27333SOL    HW188857   6.677   1.915   1.978 -0.5445  1.1754 -0.9003
27333SOL    HW288858   6.799   1.943   1.891  0.6920  0.5729  0.5922
27334SOL     OW88859   6.901   3.875   1.563 -0.8146  0.4596 -0.1668
27334SOL    HW188860   6.914   3.931   1.639 -0.6699  0.9321 -0.5359
27334SOL    HW288861   6.826   3.821   1.586 -0.1005 -0.1644  0.7494
27335SOL     OW88862  12.436   1.327   2.343  0.0178 -0.1732 -0.6599
27335SOL    HW188863  12.379   1.256   2.371  0.4793  0.3774  2.0255
27335SOL    HW288864  12.385   1.407   2.358  0.6201  0.1998 -0.5289
27336SOL     OW88865   1.575   6.655  11.790  0.1923  0.1538  0.0327
27336SOL    HW188866   1.535   6.577  11.752 -0.5006 -0.5265  2.0318
27336SOL    HW288867   1.567   6.722  11.722  1.2586 -1.5944 -1.9425
27337SOL     OW88868   1.276   6.731   2.139  0.1946  0.5923 -0.0365
27337SOL    HW188869   1.185   6.737   2.109  0.5105  1.6367 -0.8441
27337SOL    HW288870   1.282   6.793   2.211  0.0843 -0.0578  0.5472
27338SOL     OW88871  11.126   4.718   9.663 -0.2082 -0.3729  0.1490
27338SOL    HW188872  11.054   4.694   9.604 -1.3421  0.7447  1.0056
27338SOL    HW288873  11.160   4.634   9.694 -0.7254 -0.9422 -0.7634
27339SOL     OW88874   0.138   7.519   1.061 -0.5277  0.0226  0.3898
27339SOL    HW188875   0.152   7.463   0.985  0.6264  0.2801  0.3958
27339SOL    HW288876   0.186   7.599   1.042  0.7973 -0.3613  1.8846
27340SOL     OW88877   4.799   1.379   5.909 -0.4475  0.2800  0.5433
27340SOL    HW188878   4.803   1.392   5.814 -0.0299  0.1152  0.5387
27340SOL    HW288879   4.804   1.284   5.921 -0.5356  0.2980  0.7293
27341SOL     OW88880   0.316   7.051  12.141  0.2143 -0.0902  0.2708
27341SOL    HW188881   0.231   7.075  12.106  1.4695  0.7805 -2.4411
27341SOL    HW288882   0.297   6.996  12.217 -2.7311 -0.4096 -0.6027
27342SOL     OW88883   6.771   0.595   1.584  0.1363  0.1735 -0.7447
27342SOL    HW188884   6.833   0.660   1.617  0.3548  1.2536 -3.0527
27342SOL    HW288885   6.795   0.514   1.627  1.6084  1.0646  0.2028
27343SOL     OW88886   7.741  12.328  10.797  0.2303 -0.3583 -0.2141
27343SOL    HW188887   7.747  12.418  10.767 -1.6720 -0.2523 -0.3514
27343SOL    HW288888   7.721  12.335  10.891  0.9292 -0.6624 -0.0315
27344SOL     OW88889  12.211   2.273   4.076 -0.1335 -0.5162 -0.0058
27344SOL    HW188890  12.126   2.306   4.047 -0.4807 -1.0284  0.4225
27344SOL    HW288891  12.217   2.299   4.168 -0.8947 -2.5526  0.6645
27345SOL     OW88892   9.238   6.238  10.030 -0.0580 -0.3575 -0.7204
27345SOL    HW188893   9.266   6.148  10.041 -0.7226 -0.3467  1.6503
27345SOL    HW288894   9.241   6.253   9.936 -1.4445 -3.3320 -1.3494
27346SOL     OW88895   4.817   3.406   3.713 -0.1022 -0.3063 -0.1154
27346SOL    HW188896   4.831   3.340   3.645 -0.9192  0.6457 -1.2459
27346SOL    HW288897   4.834   3.489   3.669 -1.2888  0.3735  0.6557
27347SOL     OW88898  10.256   9.442   2.329 -0.1765 -0.2127  0.3268
27347SOL    HW188899  10.280   9.465   2.419  1.5109  1.0211 -0.3906
27347SOL    HW288900  10.338   9.445   2.281 -0.9613 -1.4513 -1.1581
27348SOL     OW88901  11.887   3.191   6.477 -0.4716 -0.4497  0.8110
27348SOL    HW188902  11.800   3.156   6.496  0.1363 -2.0490  0.8348
27348SOL    HW288903  11.938   3.173   6.556  0.1737 -0.5742  0.3764
27349SOL     OW88904   1.446   5.012   3.627 -0.3550 -0.3073 -0.2961
27349SOL    HW188905   1.469   5.083   3.567 -0.4500 -0.4077 -0.4519
27349SOL    HW288906   1.357   5.033   3.657 -0.4388 -0.4371 -0.4543
27350SOL     OW88907   7.535   8.062   5.346  0.6104  0.0998  0.0354
27350SOL    HW188908   7.440   8.074   5.346  0.6882  0.7928 -0.4441
27350SOL    HW288909   7.565   8.106   5.425  0.4775 -0.6738  0.5270
27351SOL     OW88910   8.406   1.469   9.704 -0.0068  0.5238 -0.1987
27351SOL    HW188911   8.414   1.408   9.778  1.7089 -2.3411 -2.5273
27351SOL    HW288912   8.312   1.481   9.693 -0.3524 -0.4506  1.2993
27352SOL     OW88913   5.979  10.230   5.089 -0.4729  0.6984 -0.6657
27352SOL    HW188914   6.023  10.189   5.163 -0.9573 -0.4503 -0.9867
27352SOL    HW288915   5.993  10.169   5.016 -0.5379  1.4996 -1.3678
27353SOL     OW88916   2.522  11.263   2.889  0.2047 -0.2674 -0.7765
27353SOL    HW188917   2.613  11.270   2.859  0.3066  0.7200 -0.2931
27353SOL    HW288918   2.516  11.325   2.962 -0.4815 -1.3799  0.1400
27354SOL     OW88919   8.314   8.649   1.384  0.3005  0.0253  0.6185
27354SOL    HW188920   8.297   8.586   1.314  2.0145  0.1756  0.0363
27354SOL    HW288921   8.269   8.729   1.356  2.2669  0.5902 -1.1511
27355SOL     OW88922   3.179   2.066   8.700  0.1106  0.0482  0.6230
27355SOL    HW188923   3.200   1.977   8.729 -0.2826 -0.2992 -0.1335
27355SOL    HW288924   3.136   2.106   8.776  0.1510 -0.4579  0.9211
27356SOL     OW88925   3.267   2.918   3.092  0.5103  0.0831 -0.4227
27356SOL    HW188926   3.347   2.865   3.090  0.2743 -0.2610 -1.4734
27356SOL    HW288927   3.213   2.881   3.022 -1.4339 -1.0239  1.5444
27357SOL     OW88928  10.306   9.941   8.586  0.1918 -0.1024  0.0394
27357SOL    HW188929  10.271  10.029   8.602 -0.2129 -0.4857  1.3225
27357SOL    HW288930  10.231   9.883   8.597  0.7129 -0.7176  0.3938
27358SOL     OW88931   1.188   3.167   4.267  0.2552  0.1551  0.4174
27358SOL    HW188932   1.178   3.262   4.264  0.5125  0.2363  1.5022
27358SOL    HW288933   1.257   3.147   4.204  0.6521  0.7598  0.6623
27359SOL     OW88934   5.534   3.377   7.022  0.1230  0.2646  0.3367
27359SOL    HW188935   5.471   3.408   7.087 -0.0831  1.2399 -0.2945
27359SOL    HW288936   5.540   3.283   7.037  0.2463  0.4894  1.8978
27360SOL     OW88937  11.905   7.927   4.241 -0.2159  0.2645  0.4488
27360SOL    HW188938  11.985   7.888   4.205  0.1215  0.1467  1.3059
27360SOL    HW288939  11.934   7.972   4.321 -0.2408  3.7688 -1.2913
27361SOL     OW88940   5.130   9.466   8.095  0.2973  0.5617  0.4042
27361SOL    HW188941   5.179   9.481   8.176 -0.1093 -0.7926  0.9390
27361SOL    HW288942   5.197   9.459   8.027  0.6596  1.4456  0.6517
27362SOL     OW88943   7.338   1.348  12.503 -0.2155 -0.4241  0.0885
27362SOL    HW188944   7.379   1.320  12.584  3.4993  2.1845 -0.6187
27362SOL    HW288945   7.382   1.297  12.435  0.4688  1.0029 -0.5764
27363SOL     OW88946   2.515   1.765   4.760 -0.3445  0.0783  0.3721
27363SOL    HW188947   2.588   1.706   4.742 -0.8665 -0.9054  1.2967
27363SOL    HW288948   2.458   1.714   4.818 -0.1293  1.9814  2.4047
27364SOL     OW88949   6.463   3.063  10.897 -0.1046 -0.1773 -0.3032
27364SOL    HW188950   6.555   3.039  10.898  0.3467  1.4342 -0.0130
27364SOL    HW288951   6.422   3.004  10.960  1.1473  0.4975  1.2073
27365SOL     OW88952   2.604   3.053   4.181 -0.6084 -0.4924  0.4497
27365SOL    HW188953   2.516   3.025   4.204 -1.3824  1.0919 -0.4543
27365SOL    HW288954   2.650   2.972   4.158 -2.1588 -1.2281 -0.1517
27366SOL     OW88955   3.626  10.532  10.539  0.4154 -0.1615  0.0063
27366SOL    HW188956   3.691  10.560  10.604 -0.7012  0.1362  1.0540
27366SOL    HW288957   3.640  10.438  10.529 -0.2903 -0.5054  1.8035
27367SOL     OW88958  10.017   1.868   7.486 -0.3866  0.8245  0.4667
27367SOL    HW188959  10.048   1.880   7.576  0.9919 -1.6557  0.4066
27367SOL    HW288960  10.097   1.871   7.433 -0.9129 -0.0032 -0.3959
27368SOL     OW88961   8.610   8.203   3.267  0.0176 -0.9272 -0.3656
27368SOL    HW188962   8.606   8.276   3.330 -1.0140 -0.2399 -1.1895
27368SOL    HW288963   8.685   8.152   3.295  0.8267  0.5017  0.1981
27369SOL     OW88964   5.622   2.647   0.262 -0.0668 -0.2128 -0.2507
27369SOL    HW188965   5.662   2.636   0.176  0.1426 -1.4306 -0.0221
27369SOL    HW288966   5.673   2.717   0.303 -0.0837  0.2818 -1.0629
27370SOL     OW88967   5.841  10.328  10.998  0.1366  0.0663 -0.5973
27370SOL    HW188968   5.764  10.344  10.943 -0.5801  0.1544  0.3986
27370SOL    HW288969   5.807  10.277  11.072  0.6613  1.5481  0.7312
27371SOL     OW88970  12.446  11.605   8.553 -0.4089  0.2467 -0.1266
27371SOL    HW188971  12.405  11.585   8.470 -0.8525 -3.0980  0.7284
27371SOL    HW288972  12.375  11.638   8.608 -0.7404 -0.1856 -0.2879
27372SOL     OW88973  10.194   0.649   8.934 -0.2652 -0.0275 -0.3838
27372SOL    HW188974  10.275   0.692   8.907  0.6470 -0.5848  1.2992
27372SOL    HW288975  10.184   0.576   8.873  0.6761 -0.1376 -0.4128
27373SOL     OW88976   5.801  11.259  10.502 -0.0178  0.3687 -0.0557
27373SOL    HW188977   5.711  11.279  10.474 -0.3511 -0.6140  0.2717
27373SOL    HW288978   5.791  11.202  10.577  0.8914 -0.2169 -0.3617
27374SOL     OW88979  10.582   2.254  10.364  0.0971 -0.0880  0.3607
27374SOL    HW188980  10.669   2.294  10.356  0.2323 -0.4494 -0.0025
27374SOL    HW288981  10.579   2.222  10.454 -0.4753  1.7910  1.0663
27375SOL     OW88982   6.432   5.081  12.165  0.1848 -0.2138  0.3285
27375SOL    HW188983   6.408   5.013  12.228  2.7447 -0.2323  1.4319
27375SOL    HW288984   6.473   5.034  12.093 -2.5086 -0.1679 -1.3619
27376SOL     OW88985   0.320   9.173   3.734 -0.0480  0.2200  0.1982
27376SOL    HW188986   0.307   9.095   3.679  0.2436  1.7012 -2.1071
27376SOL    HW288987   0.233   9.195   3.766 -0.6813  0.6887 -1.7111
27377SOL     OW88988   1.215   4.706  11.725  0.0202  0.2739  0.0547
27377SOL    HW188989   1.132   4.733  11.765 -0.6507 -0.3957 -0.8610
27377SOL    HW288990   1.212   4.610  11.725 -0.4038  0.2306 -2.3766
27378SOL     OW88991   2.636  11.773   5.853  0.2446  0.4034  0.0461
27378SOL    HW188992   2.545  11.743   5.852  0.5315 -0.4963  0.2141
27378SOL    HW288993   2.677  11.726   5.926  0.6110  1.5507  0.6107
27379SOL     OW88994  12.415   9.722   4.420  0.2015  0.0452  0.0104
27379SOL    HW188995  12.351   9.749   4.354 -0.4181 -2.0481 -0.3154
27379SOL    HW288996  12.362   9.690   4.493  0.8860  0.0622  0.5265
27380SOL     OW88997   2.043   3.429   7.097  0.1402 -0.2230 -0.2133
27380SOL    HW188998   2.135   3.405   7.084  0.8623  1.5973  1.2379
27380SOL    HW288999   1.996   3.346   7.088  1.6628 -0.9283 -2.8543
27381SOL     OW89000   7.006   9.691  11.166  0.0920 -0.4847  0.1569
27381SOL    HW189001   7.016   9.677  11.072 -0.7033  0.4116 -0.0790
27381SOL    HW289002   6.946   9.623  11.195 -1.2195  0.4079 -0.3753
27382SOL     OW89003   9.905   6.661   4.437 -0.2543 -0.3529  0.1152
27382SOL    HW189004   9.901   6.754   4.418 -0.0541 -0.4723 -0.5245
27382SOL    HW289005   9.973   6.627   4.378 -0.8318 -1.0309 -0.1696
27383SOL     OW89006   5.796   1.457   8.733  0.2747 -0.5604  0.1572
27383SOL    HW189007   5.718   1.421   8.691  0.4959 -1.3761  0.4250
27383SOL    HW289008   5.781   1.443   8.827  1.1653 -1.6218  0.1580
27384SOL     OW89009  12.094   2.384   5.667 -0.6425 -0.3998 -0.5623
27384SOL    HW189010  12.058   2.299   5.691 -0.7856 -0.1398  0.1482
27384SOL    HW289011  12.176   2.391   5.714 -0.5073 -0.2475 -0.8136
27385SOL     OW89012   2.881   3.530   8.021 -0.0566 -0.2363 -0.3588
27385SOL    HW189013   2.916   3.597   7.963  2.8367 -1.2021  0.0542
27385SOL    HW289014   2.858   3.577   8.101  2.8755  0.3087  0.3135
27386SOL     OW89015   4.440   8.744  10.700  0.0035  0.5280 -0.8334
27386SOL    HW189016   4.447   8.650  10.715  1.3524  1.0819  2.8290
27386SOL    HW289017   4.353   8.767  10.731  0.5352  0.7849  0.5186
27387SOL     OW89018   2.188   4.735   2.670 -0.1790 -0.1072  0.1421
27387SOL    HW189019   2.095   4.713   2.671 -0.1642 -0.1586  0.3251
27387SOL    HW289020   2.192   4.816   2.619 -0.3611  0.0704  0.4076
27388SOL     OW89021   3.526   2.094   7.585  0.7710  0.3978 -0.2859
27388SOL    HW189022   3.607   2.055   7.553  0.1574 -0.0635 -1.3295
27388SOL    HW289023   3.517   2.175   7.535 -0.3513 -0.4767 -1.5544
27389SOL     OW89024   1.834   5.205   5.193 -0.3517  0.1421  0.3922
27389SOL    HW189025   1.911   5.149   5.182 -0.7917 -0.7359  1.5993
27389SOL    HW289026   1.779   5.158   5.256 -2.2499  0.3565 -1.0127
27390SOL     OW89027   0.460   2.881   8.737  0.2257  0.5856  0.1838
27390SOL    HW189028   0.411   2.814   8.785 -0.0646  0.7092  0.0645
27390SOL    HW289029   0.534   2.901   8.793  1.7460 -1.6634 -0.8647
27391SOL     OW89030   9.154   6.027   3.922  0.2427  0.4009 -0.5623
27391SOL    HW189031   9.126   6.113   3.954 -0.5708  0.3212 -1.0354
27391SOL    HW289032   9.238   6.012   3.965 -0.4866  0.5871  0.9977
27392SOL     OW89033   7.394  10.802   0.068 -0.4104 -0.1167 -0.6090
27392SOL    HW189034   7.325  10.774   0.128 -1.2043 -0.9981 -1.9015
27392SOL    HW289035   7.350  10.818  -0.015  0.7598  0.4795 -1.1422
27393SOL     OW89036   7.628   7.719   6.129 -0.3277 -0.1100  0.5549
27393SOL    HW189037   7.672   7.746   6.209  1.1559 -0.2276 -0.1810
27393SOL    HW289038   7.692   7.664   6.083 -2.1294 -2.4005  0.5706
27394SOL     OW89039   6.120   6.608   8.061 -0.0930  0.2443  0.0916
27394SOL    HW189040   6.212   6.595   8.041 -0.3723  0.7371 -1.6297
27394SOL    HW289041   6.118   6.686   8.117  0.6198 -0.6075  1.3583
27395SOL     OW89042   9.271  11.824   9.384  0.2831  0.5794  0.2381
27395SOL    HW189043   9.251  11.733   9.362  2.2311  0.0525  0.4848
27395SOL    HW289044   9.229  11.875   9.314  0.1213 -0.5775 -0.5406
27396SOL     OW89045   1.216   9.454   4.354 -0.3490  0.2008 -0.2263
27396SOL    HW189046   1.146   9.498   4.401 -0.2282 -0.6543  0.7988
27396SOL    HW289047   1.235   9.376   4.407 -0.9784 -1.4167 -2.2860
27397SOL     OW89048   7.964   2.332  11.103  0.0559 -0.1529  0.0464
27397SOL    HW189049   7.870   2.350  11.107  0.2108  1.0014 -0.9404
27397SOL    HW289050   7.985   2.334  11.009  1.1704  0.1768  0.2903
27398SOL     OW89051   5.813   8.924   1.329 -0.2322  0.0493 -0.5220
27398SOL    HW189052   5.799   9.000   1.272  0.6575  1.3949  0.9615
27398SOL    HW289053   5.877   8.870   1.281 -0.0131  0.8076 -1.1124
27399SOL     OW89054   9.478  10.352  10.538 -0.4309  0.5186 -0.2032
27399SOL    HW189055   9.466  10.274  10.593 -1.5150  0.9563  0.2060
27399SOL    HW289056   9.442  10.424  10.590  2.8392  1.8004  0.5512
27400SOL     OW89057  10.299   3.065   6.572 -0.1103 -0.9866 -0.5704
27400SOL    HW189058  10.354   3.065   6.494  0.1419  0.0889 -0.4094
27400SOL    HW289059  10.214   3.098   6.541  0.0672 -0.3095 -0.3454
27401SOL     OW89060  11.223   9.354   0.805 -0.2691 -0.5573  0.2684
27401SOL    HW189061  11.179   9.315   0.881 -0.9469 -1.0184 -0.3536
27401SOL    HW289062  11.309   9.313   0.803 -0.4631 -0.9748  0.4465
27402SOL     OW89063   3.736   1.439   6.081  0.1584 -0.7917 -0.2573
27402SOL    HW189064   3.684   1.404   6.153 -0.1418  1.0014  0.4610
27402SOL    HW289065   3.691   1.409   6.002 -1.1241 -0.5316  0.3446
27403SOL     OW89066  10.767   8.664  10.027 -0.4681 -0.3416 -0.2225
27403SOL    HW189067  10.857   8.632  10.038  0.0964  0.9703 -0.7084
27403SOL    HW289068  10.778   8.757  10.008 -1.9287 -0.2328 -0.6269
27404SOL     OW89069   6.267   6.873  11.322 -0.0903  0.1139  0.0446
27404SOL    HW189070   6.316   6.790  11.320 -0.7918 -0.3826  1.6998
27404SOL    HW289071   6.334   6.941  11.320  0.5054 -0.4820 -1.1610
27405SOL     OW89072   6.672   1.440   4.220  0.4530  0.4164 -0.4017
27405SOL    HW189073   6.737   1.375   4.192  0.5667  0.8948 -1.3027
27405SOL    HW289074   6.724   1.512   4.255  0.4388  0.8648 -1.2629
27406SOL     OW89075  11.184  10.291   4.487 -0.4637  0.3854 -0.8385
27406SOL    HW189076  11.168  10.208   4.441 -1.1337 -0.2181  0.4279
27406SOL    HW289077  11.097  10.327   4.503 -0.1583  1.7657 -2.0842
27407SOL     OW89078   4.867   3.147   2.654  0.2497  0.4875 -0.0554
27407SOL    HW189079   4.918   3.106   2.585 -2.5798 -0.5794 -1.7046
27407SOL    HW289080   4.809   3.078   2.685 -1.2080  1.9537  0.6564
27408SOL     OW89081   8.708  10.118   3.997 -0.1527  0.0853  0.2289
27408SOL    HW189082   8.646  10.089   3.930 -0.2394  0.2282  0.2454
27408SOL    HW289083   8.685  10.210   4.012  0.2976  0.2482 -0.0295
27409SOL     OW89084   6.438   9.499   1.747 -0.2625 -0.1538  0.9026
27409SOL    HW189085   6.472   9.455   1.825 -0.9108 -0.3930  1.0545
27409SOL    HW289086   6.416   9.587   1.778  0.1019 -0.0346  0.8308
27410SOL     OW89087   0.289   7.587   9.793 -0.0546  0.2625  0.1498
27410SOL    HW189088   0.218   7.637   9.753  0.1603  0.4203 -0.0353
27410SOL    HW289089   0.251   7.550   9.873 -0.2648  0.5770  0.1969
27411SOL     OW89090   4.243   8.602   5.892  0.0166 -0.0397 -0.6835
27411SOL    HW189091   4.304   8.594   5.966 -1.4273  1.1426  0.6976
27411SOL    HW289092   4.280   8.671   5.838 -0.3133  1.0521  0.4287
27412SOL     OW89093   1.795   9.898   4.295 -0.3513 -0.1225  0.3804
27412SOL    HW189094   1.783   9.806   4.273 -0.0257 -0.2683  0.8036
27412SOL    HW289095   1.714   9.940   4.265 -1.1639 -0.7950  1.5121
27413SOL     OW89096   3.186   8.169  11.193  0.0754  0.2713 -0.8075
27413SOL    HW189097   3.145   8.105  11.252  1.2276  1.5125  1.5134
27413SOL    HW289098   3.113   8.211  11.148 -1.0706  0.6564  1.2891
27414SOL     OW89099  12.490   4.282   9.370  0.0367 -0.0505  0.0896
27414SOL    HW189100  12.476   4.331   9.451 -0.5481 -1.0191  0.5892
27414SOL    HW289101  12.475   4.191   9.393  0.7894 -0.4533 -0.9018
27415SOL     OW89102   8.028   2.128   6.176 -0.0346  0.3513  0.2275
27415SOL    HW189103   7.940   2.158   6.199 -0.3846  0.0332 -0.6344
27415SOL    HW289104   8.082   2.152   6.251 -1.2125 -1.1515  1.6514
27416SOL     OW89105   4.101   2.698   2.059  0.4843  0.3032  0.6552
27416SOL    HW189106   4.122   2.760   2.129  2.0755 -0.2252  0.6829
27416SOL    HW289107   4.032   2.741   2.010 -0.3731  0.8823  2.2797
27417SOL     OW89108   0.662   0.341   0.053  0.3351 -0.5543 -0.1712
27417SOL    HW189109   0.739   0.345  -0.003  0.4720 -1.6647 -0.0925
27417SOL    HW289110   0.658   0.250   0.081 -0.2088 -0.2037  0.9545
27418SOL     OW89111   8.807   6.254   9.916  0.0023 -0.2518 -0.5150
27418SOL    HW189112   8.852   6.266  10.000 -0.6025  0.5609 -0.2887
27418SOL    HW289113   8.756   6.334   9.905  2.1965  0.9742 -2.9876
27419SOL     OW89114   9.924   7.160   8.545  0.0353 -0.1055 -0.4016
27419SOL    HW189115   9.890   7.247   8.566 -1.9623 -0.5077 -1.6719
27419SOL    HW289116   9.994   7.146   8.608 -0.6058  1.7930  0.8269
27420SOL     OW89117   8.281   8.513   9.963 -0.0777 -0.2789  0.0294
27420SOL    HW189118   8.216   8.445   9.947  0.1061 -1.2730  2.9374
27420SOL    HW289119   8.360   8.481   9.920  0.0451 -2.0394  1.4448
27421SOL     OW89120   6.116   5.852   5.053 -0.1544  0.2276 -0.2910
27421SOL    HW189121   6.191   5.893   5.096 -0.1585  1.9698 -1.8177
27421SOL    HW289122   6.142   5.842   4.962 -1.1560 -0.7811 -0.5022
27422SOL     OW89123   2.590   8.850   8.911  0.1192  0.5439 -0.0739
27422SOL    HW189124   2.543   8.871   8.991 -0.3666  0.4386 -0.3309
27422SOL    HW289125   2.539   8.781   8.870  1.2851 -0.6139  0.3718
27423SOL     OW89126   8.048   6.275   1.325  0.3969  0.4636  0.0563
27423SOL    HW189127   7.995   6.218   1.269  0.6298 -1.9063  2.0562
27423SOL    HW289128   7.986   6.312   1.387  0.5952  0.3826  0.3042
27424SOL     OW89129   0.752   9.323   7.393 -0.4000  0.0681 -0.2787
27424SOL    HW189130   0.682   9.345   7.454 -0.3508  0.5578 -0.3930
27424SOL    HW289131   0.727   9.366   7.311  0.1474  0.4417 -0.2553
27425SOL     OW89132   8.531   4.860   4.803  0.4479 -0.1857  0.1771
27425SOL    HW189133   8.490   4.931   4.754  2.3492  0.9146  0.0881
27425SOL    HW289134   8.503   4.875   4.894  1.0374  0.8673  0.2054
27426SOL     OW89135   5.419  10.615   6.081  0.3633 -0.7259 -0.4330
27426SOL    HW189136   5.464  10.532   6.099 -0.0211 -0.9300 -0.4056
27426SOL    HW289137   5.367  10.631   6.159  0.2857 -0.5550 -0.5196
27427SOL     OW89138   3.709   2.354   4.919  0.0820  0.2918 -0.1859
27427SOL    HW189139   3.636   2.414   4.937  0.2383  0.5243 -0.3214
27427SOL    HW289140   3.745   2.334   5.005 -0.5008 -0.2785 -0.0677
27428SOL     OW89141   2.136   5.973   5.430 -0.1759 -0.1421  0.1132
27428SOL    HW189142   2.203   6.038   5.410 -0.5685  0.3879  0.5070
27428SOL    HW289143   2.133   5.917   5.352  0.0495  0.4107 -0.3024
27429SOL     OW89144   6.987   4.464   4.659 -0.3594  0.1382 -0.5183
27429SOL    HW189145   6.947   4.397   4.714  1.1859 -0.0226  0.4902
27429SOL    HW289146   6.949   4.547   4.689  1.2513  0.1797  1.6453
27430SOL     OW89147   7.370   5.972   5.516  0.3173  0.7806  0.1697
27430SOL    HW189148   7.293   6.017   5.551  1.2016  1.4191  1.3524
27430SOL    HW289149   7.355   5.970   5.422 -1.8800 -0.5076  0.4727
27431SOL     OW89150   4.872   7.917   5.352  0.4997  0.2662  0.0898
27431SOL    HW189151   4.872   7.822   5.344 -0.4171  0.1746  1.0137
27431SOL    HW289152   4.961   7.939   5.380  0.2542 -0.4918  1.5657
27432SOL     OW89153   8.567   0.374   1.288  0.5629 -0.8405  0.0143
27432SOL    HW189154   8.504   0.442   1.314  0.3936 -2.2504  4.0833
27432SOL    HW289155   8.520   0.322   1.224 -0.9852  0.3505  0.1004
27433SOL     OW89156   4.369   6.204   2.930  0.3723 -0.7600  0.0426
27433SOL    HW189157   4.445   6.262   2.943 -0.3035  0.5678 -1.5147
27433SOL    HW289158   4.325   6.203   3.015  0.6847  0.6557  0.2557
27434SOL     OW89159   9.884   2.325  11.408 -0.2392 -0.1131 -0.0032
27434SOL    HW189160   9.843   2.239  11.398  0.4957 -0.4692 -0.0342
27434SOL    HW289161   9.972   2.306  11.439  0.1698  0.5907 -0.6947
27435SOL     OW89162   3.984   7.719   3.320 -0.4543  0.2199  0.8987
27435SOL    HW189163   4.079   7.715   3.307 -0.4113 -1.0673  1.4497
27435SOL    HW289164   3.949   7.743   3.234  0.3368  0.1090  0.5378
27436SOL     OW89165   1.677   6.992   8.123  0.1099 -0.1870  0.1130
27436SOL    HW189166   1.768   6.991   8.093  0.1602  0.3352  0.2332
27436SOL    HW289167   1.664   6.907   8.165 -0.0563 -1.0690 -1.6396
27437SOL     OW89168   4.231   7.219   6.241  0.0622  0.3177 -0.7430
27437SOL    HW189169   4.311   7.191   6.196 -0.3647 -0.8789 -0.7797
27437SOL    HW289170   4.264   7.269   6.317  0.9923 -2.2791  0.6968
27438SOL     OW89171  10.873   7.909   8.497  0.0691  0.4661  0.4867
27438SOL    HW189172  10.853   7.915   8.590  0.2382  1.5670  0.4676
27438SOL    HW289173  10.821   7.978   8.456  0.2829  0.2454 -0.1851
27439SOL     OW89174  11.472   4.012   8.884  0.1902 -0.4738 -0.1084
27439SOL    HW189175  11.408   3.945   8.861 -0.9532  0.2259  0.9166
27439SOL    HW289176  11.525   3.972   8.953  1.1997 -1.2153 -1.2624
27440SOL     OW89177   4.534   5.212   7.700  0.2739 -0.4840  0.2543
27440SOL    HW189178   4.608   5.185   7.754  0.2207  0.7761  0.9943
27440SOL    HW289179   4.458   5.169   7.738 -0.1347  2.1201  2.6893
27441SOL     OW89180   7.577   5.173  10.393  0.0404 -0.1196 -0.0258
27441SOL    HW189181   7.637   5.216  10.332 -0.0855 -0.3436 -0.3095
27441SOL    HW289182   7.489   5.201  10.365  0.0658  1.8967  1.6621
27442SOL     OW89183   9.430   4.762  11.498  0.5844  0.2391  0.0955
27442SOL    HW189184   9.363   4.696  11.514  0.4782  0.8155  2.5409
27442SOL    HW289185   9.393   4.817  11.429 -0.4962 -0.7172 -0.1226
27443SOL     OW89186  11.950   4.034  12.400  0.3442  0.0705 -0.1649
27443SOL    HW189187  11.863   3.996  12.400  0.0205  0.7868  0.1357
27443SOL    HW289188  11.990   4.004  12.319 -0.4434  0.3207 -0.6518
27444SOL     OW89189   3.530   5.219   1.856 -0.4941  0.6541  0.8139
27444SOL    HW189190   3.472   5.294   1.865 -1.2017  0.2240  0.0154
27444SOL    HW289191   3.504   5.178   1.773  1.7497  1.1138 -0.1850
27445SOL     OW89192   6.352  12.136   1.946 -0.1202  0.1154 -0.0399
27445SOL    HW189193   6.273  12.160   1.995 -0.4310  3.0560 -1.7551
27445SOL    HW289194   6.319  12.084   1.873  0.2903 -3.7812  2.2593
27446SOL     OW89195  10.508   7.932  12.526  0.2067  0.4602  0.2163
27446SOL    HW189196  10.543   8.005  12.577  0.3960  0.6586 -0.1937
27446SOL    HW289197  10.576   7.864  12.532  0.4254  0.6425 -0.1220
27447SOL     OW89198   9.401   2.257   1.189  0.1455  1.4656  0.0374
27447SOL    HW189199   9.309   2.244   1.166 -0.0695 -0.1161  1.5787
27447SOL    HW289200   9.449   2.232   1.110 -0.6587 -1.3867  0.3258
27448SOL     OW89201   1.593   7.741   4.784  0.3803 -0.0446  0.4022
27448SOL    HW189202   1.564   7.685   4.713 -0.3498  0.2484  0.4651
27448SOL    HW289203   1.616   7.824   4.742  0.1883  0.0463  0.4769
27449SOL     OW89204   1.159   4.464   7.667  0.4218  0.0728  0.3244
27449SOL    HW189205   1.200   4.545   7.697  1.4891  0.5130 -2.0696
27449SOL    HW289206   1.164   4.469   7.571 -2.6933 -1.2096 -0.0314
27450SOL     OW89207   3.510   1.695   2.298 -0.2737 -0.0569  0.9111
27450SOL    HW189208   3.517   1.745   2.380 -1.6644 -1.4273  1.9139
27450SOL    HW289209   3.600   1.683   2.270  0.3550 -0.7673  3.0274
27451SOL     OW89210  12.048   4.470   4.108 -0.0335  0.2816 -0.3511
27451SOL    HW189211  12.127   4.504   4.149  0.8983 -1.2665 -0.8056
27451SOL    HW289212  12.079   4.421   4.032 -1.4052 -0.6193 -0.3664
27452SOL     OW89213   1.228   0.838   3.086 -0.1273 -0.2295  0.4627
27452SOL    HW189214   1.172   0.860   3.011  0.6717  1.7071  0.3716
27452SOL    HW289215   1.315   0.867   3.060  0.3058 -0.2111  1.8601
27453SOL     OW89216  10.419   6.235   9.182 -0.3152  0.4090 -0.0118
27453SOL    HW189217  10.354   6.173   9.216  1.0813 -0.7153  0.7101
27453SOL    HW289218  10.433   6.206   9.092  2.3475 -2.2368  1.0781
27454SOL     OW89219   8.877  10.630  10.365 -0.3373  0.5795 -0.1175
27454SOL    HW189220   8.866  10.598  10.455 -0.6008  2.8504  0.7308
27454SOL    HW289221   8.970  10.652  10.359 -0.5654  1.6263  0.0501
27455SOL     OW89222   0.359   6.221   7.510  0.2307 -0.1461  0.0103
27455SOL    HW189223   0.445   6.262   7.497  0.5743 -0.8331  0.0556
27455SOL    HW289224   0.379   6.129   7.525 -0.3916 -0.0119  1.8913
27456SOL     OW89225   5.186   2.448   9.034 -0.0433 -0.0799 -0.4196
27456SOL    HW189226   5.215   2.380   9.095 -0.1212 -0.4089 -0.7441
27456SOL    HW289227   5.092   2.431   9.023 -0.1241  0.2629 -0.2732
27457SOL     OW89228   6.740   9.740   1.453 -0.5862  0.5193 -0.0651
27457SOL    HW189229   6.693   9.659   1.473 -1.9441  1.0047 -1.1381
27457SOL    HW289230   6.717   9.800   1.524 -1.8964  0.8541 -0.7411
27458SOL     OW89231   4.625   1.515   4.535 -0.0234  0.1351  0.2872
27458SOL    HW189232   4.684   1.565   4.479  0.5352  0.3979  1.0854
27458SOL    HW289233   4.601   1.576   4.604 -0.5334 -0.2448  0.4477
27459SOL     OW89234   1.078   1.358   1.221 -0.6935 -0.0269 -0.9243
27459SOL    HW189235   1.164   1.385   1.189 -1.1466  0.5350 -1.7045
27459SOL    HW289236   1.040   1.307   1.149 -1.0974 -0.0915 -0.6720
27460SOL     OW89237   3.745   4.115   2.312 -0.3412 -0.5762  0.3578
27460SOL    HW189238   3.675   4.178   2.326  0.5637  0.3961  0.6907
27460SOL    HW289239   3.701   4.031   2.302 -1.6239  0.2007 -0.7850
27461SOL     OW89240   6.625   1.134   6.128  0.8953  0.0598 -0.2959
27461SOL    HW189241   6.596   1.200   6.191  1.9153  1.0984 -0.8725
27461SOL    HW289242   6.629   1.052   6.179  1.0481  0.7338  0.8138
27462SOL     OW89243   2.595   5.514   1.263 -0.1289  0.2991  0.4182
27462SOL    HW189244   2.507   5.502   1.228 -0.2590  0.4462  0.6877
27462SOL    HW289245   2.641   5.564   1.196  0.4930 -1.8469 -0.8253
27463SOL     OW89246   6.185   6.885   3.601 -0.0561 -0.0209 -0.0163
27463SOL    HW189247   6.248   6.854   3.666  0.1024  2.2009  0.9949
27463SOL    HW289248   6.178   6.814   3.538  2.3023 -0.9382  0.6634
27464SOL     OW89249   3.655  11.661  11.817  0.3511  0.0473  0.2047
27464SOL    HW189250   3.658  11.722  11.890 -1.0569 -1.2454  1.4133
27464SOL    HW289251   3.563  11.657  11.792  0.1324 -2.4391  1.0297
27465SOL     OW89252   3.408  12.192   9.345  0.2871  0.1022 -0.1102
27465SOL    HW189253   3.353  12.262   9.310 -0.0783  0.2423  0.7363
27465SOL    HW289254   3.366  12.111   9.316  1.5775  0.1823 -2.4739
27466SOL     OW89255   0.551   3.545   7.671  0.2873 -0.1550 -0.0599
27466SOL    HW189256   0.463   3.575   7.650  0.1815  0.1740  0.8153
27466SOL    HW289257   0.598   3.549   7.588 -0.5067 -0.2930 -0.5267
27467SOL     OW89258   2.198  11.014   9.692  0.1820 -0.5989  0.1719
27467SOL    HW189259   2.177  11.022   9.599  0.9515 -2.0686 -0.1577
27467SOL    HW289260   2.242  11.096   9.713 -0.2431 -0.1323 -0.6831
27468SOL     OW89261   7.800   9.146   3.481 -0.0147 -0.7217  0.4053
27468SOL    HW189262   7.777   9.231   3.444  1.4776 -0.0463  0.9685
27468SOL    HW289263   7.790   9.158   3.576  0.4442 -1.0911  0.5011
27469SOL     OW89264   0.933   3.077  10.297  0.2097  0.5525 -0.1163
27469SOL    HW189265   1.023   3.068  10.266  0.0407  0.1644 -0.5099
27469SOL    HW289266   0.890   2.996  10.269 -0.2094  0.6470  0.2450
27470SOL     OW89267   8.017   0.821   9.739 -0.5398  0.7249 -0.5542
27470SOL    HW189268   8.060   0.864   9.812  1.1600 -0.8404 -0.5749
27470SOL    HW289269   8.060   0.856   9.661  0.5493 -0.6218 -0.5893
27471SOL     OW89270   0.666   2.805   0.310 -0.6630  0.4283 -0.3721
27471SOL    HW189271   0.633   2.732   0.256 -0.1492  0.0249 -0.1526
27471SOL    HW289272   0.761   2.791   0.312 -0.6164  0.8259  0.0875
27472SOL     OW89273   6.014   6.757   0.784  0.3471  0.0690  0.2605
27472SOL    HW189274   5.936   6.786   0.831 -0.0160  0.0258 -0.3008
27472SOL    HW289275   6.078   6.827   0.798 -0.0760  0.5129  0.0206
27473SOL     OW89276   6.420   6.254  12.225 -0.0928  0.1600 -0.1363
27473SOL    HW189277   6.514   6.262  12.207  0.1332  1.2738  1.3316
27473SOL    HW289278   6.411   6.281  12.317 -1.6278 -1.5204  0.2683
27474SOL     OW89279   0.067  10.170   0.398 -0.2278  0.8823 -0.0618
27474SOL    HW189280   0.124  10.113   0.449  0.6955  1.8444  0.0165
27474SOL    HW289281   0.048  10.120   0.319  1.1748  0.7288 -0.3347
27475SOL     OW89282  11.551   6.213   7.758 -0.0028 -0.0884 -0.2041
27475SOL    HW189283  11.546   6.285   7.695  2.6703  0.6281  0.3089
27475SOL    HW289284  11.476   6.157   7.735  0.1387  0.7665 -3.2007
27476SOL     OW89285   0.026   6.297   9.521  0.5041 -0.0194 -0.3628
27476SOL    HW189286   0.083   6.264   9.589 -0.0892  1.8917  1.1744
27476SOL    HW289287   0.065   6.381   9.495 -1.5188  1.3876  0.7973
27477SOL     OW89288   6.051   3.276   3.647 -0.2598  0.0601  0.4896
27477SOL    HW189289   6.090   3.341   3.705 -1.0973  1.0030  0.0072
27477SOL    HW289290   5.979   3.321   3.604 -1.4181 -1.4181  0.7854
27478SOL     OW89291   6.649   7.241  10.552 -0.1654 -0.2589 -0.0877
27478SOL    HW189292   6.566   7.245  10.504 -1.8781  0.4657  2.7229
27478SOL    HW289293   6.705   7.305  10.508 -1.5560  0.2414 -1.2157
27479SOL     OW89294   0.393   2.833  10.061 -0.1202  0.0446 -0.2065
27479SOL    HW189295   0.349   2.763  10.014  1.7641  0.7649 -3.3864
27479SOL    HW289296   0.367   2.913  10.015  0.1189  1.1071  1.4201
27480SOL     OW89297  11.873   8.637  11.120  0.6805  0.2508 -0.1635
27480SOL    HW189298  11.905   8.663  11.207  1.6781  0.7427 -0.6556
27480SOL    HW289299  11.913   8.700  11.060 -1.7207  1.2724 -0.7904
27481SOL     OW89300   5.781   9.235   3.575  0.0712 -0.3335 -0.2964
27481SOL    HW189301   5.741   9.149   3.560 -0.1266 -0.2953  0.0084
27481SOL    HW289302   5.796   9.239   3.669  0.4174 -0.1793 -0.3580
27482SOL     OW89303   5.021   5.845   9.768 -0.0202  0.9571  0.4927
27482SOL    HW189304   5.061   5.839   9.855 -1.2000  0.4039  1.0255
27482SOL    HW289305   4.966   5.767   9.762 -2.0273  2.2987  0.3339
27483SOL     OW89306  10.366   6.572   5.153 -0.6759  0.0146 -0.5160
27483SOL    HW189307  10.270   6.562   5.154 -0.5565 -1.2636 -0.4800
27483SOL    HW289308  10.381   6.647   5.096 -1.7670  1.2482  0.7619
27484SOL     OW89309   5.860   2.890  12.366 -0.2453  0.4622  0.4249
27484SOL    HW189310   5.870   2.975  12.408 -3.3408  0.0090  2.4316
27484SOL    HW289311   5.896   2.827  12.428 -0.7420  0.1163  0.3763
27485SOL     OW89312   7.398   1.946   4.186 -0.4196 -0.3815 -0.3596
27485SOL    HW189313   7.349   1.987   4.115  1.0582 -0.9829 -1.7782
27485SOL    HW289314   7.384   1.852   4.173 -1.1096 -0.4819  0.9061
27486SOL     OW89315   7.150   0.128   5.293  0.1369 -0.1049 -0.2124
27486SOL    HW189316   7.072   0.072   5.290 -0.6437  1.0011 -1.2690
27486SOL    HW289317   7.192   0.105   5.376 -0.3820 -1.9436 -0.4148
27487SOL     OW89318   5.343   3.616   9.085 -0.4811  0.3828  0.1264
27487SOL    HW189319   5.257   3.609   9.046 -1.0940 -0.9776  1.5793
27487SOL    HW289320   5.402   3.571   9.024 -0.9561  0.4973 -0.4182
27488SOL     OW89321   1.732   4.122   2.189 -0.5076  0.4403 -0.4003
27488SOL    HW189322   1.646   4.107   2.149 -0.8118  1.5014 -0.1654
27488SOL    HW289323   1.793   4.074   2.133 -1.3068 -0.8413 -0.2325
27489SOL     OW89324   1.832   6.202   6.463  0.0286 -0.6153  0.2900
27489SOL    HW189325   1.825   6.292   6.494  0.4508 -1.1912  2.2406
27489SOL    HW289326   1.907   6.203   6.403 -1.1745  0.6734 -1.2678
27490SOL     OW89327   2.724   4.517   8.564 -0.5065  0.1862 -0.2174
27490SOL    HW189328   2.644   4.538   8.516 -0.1096  0.6721 -0.6784
27490SOL    HW289329   2.780   4.593   8.551  0.3087 -0.4552 -0.4900
27491SOL     OW89330   5.995   3.207   4.286  0.1860  0.3983 -0.1821
27491SOL    HW189331   5.950   3.193   4.203 -0.0287 -1.3408  0.1840
27491SOL    HW289332   5.975   3.298   4.309 -0.7054  0.5590 -1.4619
27492SOL     OW89333  11.965   9.645   2.914  0.0935 -0.0222  0.6827
27492SOL    HW189334  12.021   9.569   2.900  1.6734  0.9543  1.3833
27492SOL    HW289335  11.992   9.707   2.845 -1.5939 -0.2930 -0.2601
27493SOL     OW89336   2.308   6.165   5.340  0.3691 -0.3315  0.3120
27493SOL    HW189337   2.314   6.256   5.369  1.1324  0.0429 -0.9287
27493SOL    HW289338   2.322   6.169   5.245  0.2046 -1.7224  0.2070
27494SOL     OW89339   3.591   3.939  11.615  0.3236  0.0203  0.4111
27494SOL    HW189340   3.572   3.862  11.668  2.1977 -2.1680 -1.8921
27494SOL    HW289341   3.628   4.002  11.677  0.7783 -1.7495  2.0287
27495SOL     OW89342   0.881   4.966   7.169 -0.3183  0.0575 -0.0173
27495SOL    HW189343   0.950   4.976   7.234 -0.1649  1.1153 -0.3349
27495SOL    HW289344   0.800   4.989   7.215 -0.4194 -0.7754  0.2380
27496SOL     OW89345  10.968  10.527   1.127 -0.0301  0.5339  0.0751
27496SOL    HW189346  10.896  10.568   1.080 -0.7901 -0.0971  0.6606
27496SOL    HW289347  11.002  10.461   1.066 -0.2038  0.5640 -0.0544
27497SOL     OW89348  12.477   1.201   2.894  0.4433  0.5357  0.1814
27497SOL    HW189349  12.512   1.247   2.817 -1.4807 -0.4606 -1.3785
27497SOL    HW289350  12.514   1.112   2.887 -0.1232  0.3035  0.1187
27498SOL     OW89351   9.879  10.092   9.788 -0.0437  0.0905 -0.1731
27498SOL    HW189352   9.787  10.092   9.761  0.4457 -0.3877 -1.9319
27498SOL    HW289353   9.915  10.173   9.752 -0.1327  1.1806  2.0028
27499SOL     OW89354   3.670   7.376   6.561 -0.0520 -0.1779  0.0035
27499SOL    HW189355   3.680   7.281   6.549  1.1255  0.1003 -1.4917
27499SOL    HW289356   3.601   7.400   6.498  1.5113  0.3184 -1.5875
27500SOL     OW89357   5.297  10.924   1.284 -0.2226  0.3926  0.2797
27500SOL    HW189358   5.334  10.841   1.254 -1.0428 -0.2295  0.9505
27500SOL    HW289359   5.333  10.990   1.224  1.5833 -0.2362  0.5989
27501SOL     OW89360   6.816   9.813   2.473  0.2475  0.2199 -0.2094
27501SOL    HW189361   6.812   9.791   2.380  0.2640  1.2954 -0.4833
27501SOL    HW289362   6.801   9.908   2.475 -2.3227 -0.1528  1.0922
27502SOL     OW89363   1.121  11.033   3.805 -0.3865 -0.1334  0.2548
27502SOL    HW189364   1.186  10.986   3.752 -0.2480  0.5387 -0.1733
27502SOL    HW289365   1.044  10.976   3.803 -0.6191  0.2066 -1.2486
27503SOL     OW89366   0.057   3.814   9.547  0.6087  0.7661 -0.1386
27503SOL    HW189367   0.001   3.752   9.593  0.5366  0.7694 -0.2214
27503SOL    HW289368   0.105   3.860   9.617  0.5050  0.7662 -0.0673
27504SOL     OW89369   6.938   6.027  11.759  0.1210 -0.0280  0.1043
27504SOL    HW189370   6.947   6.095  11.827 -1.7947  0.9953 -0.5800
27504SOL    HW289371   6.955   5.945  11.805  1.2709  0.8054  1.2462
27505SOL     OW89372   7.050   4.640   6.465  0.7439 -0.5025  0.2758
27505SOL    HW189373   7.116   4.709   6.466  0.5978 -0.3039 -1.3534
27505SOL    HW289374   7.070   4.589   6.387 -0.8038 -0.6497 -0.0557
27506SOL     OW89375   6.597   3.823   9.678 -0.0410  0.1838  0.1532
27506SOL    HW189376   6.541   3.790   9.749  0.4929  1.0138  0.9718
27506SOL    HW289377   6.658   3.883   9.720  2.7064 -2.0133 -0.4052
27507SOL     OW89378   7.761   4.384   1.007  0.2762  0.1234 -0.4764
27507SOL    HW189379   7.806   4.303   0.983 -0.6736 -1.2661  1.9786
27507SOL    HW289380   7.672   4.374   0.974  0.0931  0.0331  0.0257
27508SOL     OW89381  11.496   4.199   1.135 -0.0259 -0.2346  0.2103
27508SOL    HW189382  11.477   4.270   1.074 -0.9650 -1.4165 -0.9185
27508SOL    HW289383  11.426   4.205   1.200 -0.4585 -0.4884 -0.2238
27509SOL     OW89384   2.080   6.356   4.171  0.1503 -0.2694 -0.5679
27509SOL    HW189385   2.058   6.263   4.173  0.3176 -0.3205 -1.0100
27509SOL    HW289386   2.166   6.361   4.213  0.5643 -0.4419 -1.3689
27510SOL     OW89387   0.891   8.783   2.364  0.2665 -0.3869  0.4576
27510SOL    HW189388   0.940   8.742   2.292 -0.4953  0.6295 -0.6845
27510SOL    HW289389   0.954   8.843   2.405 -0.1024  1.4447 -1.4505
27511SOL     OW89390   7.381   5.289   0.588 -0.3030  0.0630 -0.2842
27511SOL    HW189391   7.377   5.355   0.519  0.6668 -1.1704 -1.5918
27511SOL    HW289392   7.473   5.287   0.615 -0.6186  0.3302  0.8758
27512SOL     OW89393   5.374  12.500  10.057  0.0843 -0.3514 -0.6118
27512SOL    HW189394   5.357  12.446   9.980 -0.8846 -1.4495  0.3368
27512SOL    HW289395   5.390  12.437  10.128 -1.7097  0.5534  0.6805
27513SOL     OW89396  10.551   9.168   5.756  0.0605  0.1114 -0.4328
27513SOL    HW189397  10.600   9.219   5.692 -0.2333  0.8609 -0.0770
27513SOL    HW289398  10.467   9.151   5.715 -0.1784  0.7096 -0.2058
27514SOL     OW89399  11.035   2.018   2.525 -0.0721  0.2383 -0.2592
27514SOL    HW189400  11.004   1.951   2.586  0.3345 -0.2765 -0.6034
27514SOL    HW289401  11.116   1.982   2.489 -0.2290  0.5912 -0.9935
27515SOL     OW89402   7.414   1.554   7.047  0.1089 -0.2782 -0.0060
27515SOL    HW189403   7.423   1.648   7.061 -0.2575 -0.2021 -0.2585
27515SOL    HW289404   7.396   1.545   6.953 -0.4178 -0.5544  0.1139
27516SOL     OW89405   0.849   7.874   9.497 -0.1497 -0.3911  0.4694
27516SOL    HW189406   0.792   7.941   9.533 -0.4124  0.0861 -0.7594
27516SOL    HW289407   0.935   7.915   9.494 -0.0237 -0.6087  1.0025
27517SOL     OW89408   4.518  12.364   7.474  0.3451  0.4395 -0.9373
27517SOL    HW189409   4.584  12.417   7.429  1.0055 -0.4017 -0.9936
27517SOL    HW289410   4.514  12.400   7.562  1.3824  0.0730 -0.7333
27518SOL     OW89411   4.613   7.767   3.078 -0.0753 -0.1551  0.3367
27518SOL    HW189412   4.522   7.760   3.105  0.1502 -1.0492  0.8896
27518SOL    HW289413   4.620   7.711   3.000  0.0431 -0.2283  0.3996
27519SOL     OW89414   4.508  12.172   7.841 -0.1047 -0.3748  0.5999
27519SOL    HW189415   4.534  12.169   7.934  0.5716  0.2230  0.4454
27519SOL    HW289416   4.591  12.165   7.793 -0.4981 -1.1569  0.0272
27520SOL     OW89417  12.012   7.819   5.113 -0.2233 -0.7481  0.4841
27520SOL    HW189418  12.050   7.789   5.195  0.3545 -0.3508  0.3739
27520SOL    HW289419  11.937   7.762   5.098 -0.4165 -0.7299  1.3551
27521SOL     OW89420   3.441   5.222   5.988  0.3566  0.0336  0.0305
27521SOL    HW189421   3.460   5.309   5.954 -0.0101  0.0577 -0.1252
27521SOL    HW289422   3.461   5.227   6.081 -0.0413  0.4055  0.0994
27522SOL     OW89423   9.500   3.771   2.231 -0.6860  0.1134  0.3115
27522SOL    HW189424   9.458   3.686   2.223 -0.6844  0.1460 -0.0705
27522SOL    HW289425   9.562   3.775   2.158 -0.6320  0.4078  0.3694
27523SOL     OW89426   4.048   5.724   5.184 -0.0045 -0.2348 -0.2242
27523SOL    HW189427   3.981   5.772   5.231  0.0630  0.1344 -0.4927
27523SOL    HW289428   4.035   5.632   5.207 -1.2559 -0.2906 -1.0776
27524SOL     OW89429   2.840   3.932   8.843  0.1626  0.3729  0.1400
27524SOL    HW189430   2.911   3.934   8.779  1.1344 -1.7583  1.0337
27524SOL    HW289431   2.844   4.017   8.886  2.3943  0.2303  0.3402
27525SOL     OW89432   3.321   8.789  10.501  0.2333  0.3276  0.1836
27525SOL    HW189433   3.342   8.850  10.431  1.2414  0.4828  0.5960
27525SOL    HW289434   3.378   8.816  10.574 -0.3095 -0.2389  0.8327
27526SOL     OW89435   1.000   8.465   4.146  0.4563 -0.2963 -0.2201
27526SOL    HW189436   1.015   8.524   4.071  0.2633 -1.6078 -1.3298
27526SOL    HW289437   0.948   8.517   4.207 -0.6866  0.3361 -1.6700
27527SOL     OW89438   4.651   1.898   4.051 -0.1380  0.0405  0.0464
27527SOL    HW189439   4.733   1.899   4.003  1.0201  1.8693  1.8821
27527SOL    HW289440   4.672   1.855   4.134 -0.8734  1.0136  0.7618
27528SOL     OW89441   5.570   6.217   0.510  0.0989  0.0376 -0.1290
27528SOL    HW189442   5.563   6.239   0.417  0.9097  0.6055 -0.0699
27528SOL    HW289443   5.490   6.252   0.549 -0.6647 -0.9769 -0.7397
27529SOL     OW89444   0.425   8.145   2.291 -0.4126 -0.7836  0.4955
27529SOL    HW189445   0.393   8.090   2.220  0.0988 -0.2916 -0.1274
27529SOL    HW289446   0.394   8.102   2.371 -0.6316 -1.5737 -0.0072
27530SOL     OW89447   8.982   3.791  12.009 -0.5216 -0.1214 -0.2319
27530SOL    HW189448   8.917   3.743  12.060 -0.1686  0.3574  0.6881
27530SOL    HW289449   9.064   3.743  12.022 -0.3671  0.1748 -0.0961
27531SOL     OW89450   1.870   0.330   2.978  0.1543  0.2320  0.0465
27531SOL    HW189451   1.939   0.314   2.915 -0.6155 -0.0137 -0.7430
27531SOL    HW289452   1.905   0.401   3.033  1.1215 -0.0501 -0.1820
27532SOL     OW89453   1.217  12.229   2.793  0.0243  0.2326 -0.1553
27532SOL    HW189454   1.233  12.307   2.846 -0.8777 -0.6205  1.4513
27532SOL    HW289455   1.151  12.257   2.729 -1.0208  0.5822  1.0244
27533SOL     OW89456   4.722   1.387   8.656  0.3751  0.0433 -0.3049
27533SOL    HW189457   4.739   1.297   8.682 -1.1464 -0.0878  0.3404
27533SOL    HW289458   4.807   1.421   8.629  1.4298 -0.8589  1.6965
27534SOL     OW89459   8.179   5.917   5.202  0.5107 -0.1820  0.0186
27534SOL    HW189460   8.176   5.945   5.111  0.3475 -0.5350 -0.0838
27534SOL    HW289461   8.093   5.878   5.219  1.1882 -1.8840 -0.2387
27535SOL     OW89462   8.596  11.552  12.567 -0.3376  0.3676  0.0811
27535SOL    HW189463   8.609  11.579  12.477  0.0174  0.4171  0.1456
27535SOL    HW289464   8.639  11.621  12.619  0.9377 -0.5139  0.2393
27536SOL     OW89465   4.770   4.706  10.104 -0.7299 -0.2764  0.1412
27536SOL    HW189466   4.825   4.759  10.047 -0.1805 -0.6233  0.3374
27536SOL    HW289467   4.685   4.750  10.104  0.1944  1.6338  1.7239
27537SOL     OW89468   3.597   2.371   6.153 -0.5873  0.0837 -0.0252
27537SOL    HW189469   3.564   2.441   6.096 -0.3166  0.7270  0.6046
27537SOL    HW289470   3.582   2.291   6.102 -2.3971  0.4227 -0.0942
27538SOL     OW89471   7.731  10.361   0.486 -1.0747 -0.1788  0.5197
27538SOL    HW189472   7.705  10.289   0.544 -0.0988 -0.0484  1.1464
27538SOL    HW289473   7.680  10.436   0.517 -1.7711 -0.4817  0.1432
27539SOL     OW89474   8.444  10.447   5.770 -0.7012  0.0458 -0.1702
27539SOL    HW189475   8.459  10.353   5.771  0.5246  0.2000 -1.1017
27539SOL    HW289476   8.399  10.465   5.852  0.1695 -1.1852  0.6160
27540SOL     OW89477   1.766   5.897   6.399 -0.2067  0.0641 -0.1012
27540SOL    HW189478   1.711   5.852   6.334 -1.0405 -1.0187  1.2872
27540SOL    HW289479   1.741   5.989   6.392 -1.0890 -0.1989 -0.5507
27541SOL     OW89480   5.068   6.712   4.137  0.2296 -0.4193  0.2006
27541SOL    HW189481   5.149   6.672   4.106 -0.5820  0.0028 -2.7728
27541SOL    HW289482   5.070   6.801   4.102 -0.8518  0.1094  1.3771
27542SOL     OW89483   5.533   8.645   1.334  0.4375 -0.4105  0.2717
27542SOL    HW189484   5.479   8.614   1.262 -2.6852  0.0601  2.2303
27542SOL    HW289485   5.566   8.730   1.305 -0.6986 -0.2658 -0.6461
27543SOL     OW89486   1.441   1.869   4.121  0.1527  0.6229  0.5848
27543SOL    HW189487   1.537   1.865   4.128  0.0849  1.9175  4.1210
27543SOL    HW289488   1.410   1.809   4.189 -1.5490  0.8262  0.0256
27544SOL     OW89489  10.395   1.610   5.478 -0.1500 -0.1657 -0.2513
27544SOL    HW189490  10.311   1.655   5.485 -0.0739 -0.1966  1.2803
27544SOL    HW289491  10.378   1.523   5.516  0.9350  0.3705  1.5487
27545SOL     OW89492  11.308  12.459   0.418 -0.1146  0.0844 -0.1887
27545SOL    HW189493  11.314  12.365   0.404 -1.4744  0.0541 -0.7640
27545SOL    HW289494  11.285  12.495   0.332  1.0865  1.0352 -0.1368
27546SOL     OW89495  10.058   2.286  10.569  0.7307  0.1303  0.1390
27546SOL    HW189496  10.149   2.269  10.595  0.6794  0.1751  0.3499
27546SOL    HW289497  10.063   2.308  10.476  0.8067 -1.0123 -0.1491
27547SOL     OW89498  12.481   4.910  11.944 -0.4852 -0.3493 -0.0787
27547SOL    HW189499  12.425   4.946  12.013 -0.5138 -1.7590  0.6630
27547SOL    HW289500  12.436   4.932  11.863 -0.3606  1.4966  0.3111
27548SOL     OW89501   8.371   1.759   8.993  0.1203 -0.1961  0.6200
27548SOL    HW189502   8.356   1.845   9.032 -1.5551 -1.0322  2.0065
27548SOL    HW289503   8.390   1.702   9.068 -0.8393 -1.4063 -0.0173
27549SOL     OW89504   8.212   9.705   3.187  0.0298  0.1611 -0.0333
27549SOL    HW189505   8.153   9.780   3.181  0.2993  0.6159  2.2234
27549SOL    HW289506   8.298   9.743   3.202  0.4608 -0.5882 -0.5056
27550SOL     OW89507   2.380  12.198   7.140 -0.3600 -0.0108  1.0433
27550SOL    HW189508   2.410  12.134   7.075 -0.6573  0.9136 -0.0435
27550SOL    HW289509   2.450  12.263   7.144 -0.0069 -0.4240  2.2326
27551SOL     OW89510   6.663  11.837   4.870 -0.4968  0.1251 -0.0790
27551SOL    HW189511   6.631  11.779   4.940  2.5141 -2.1116 -0.3322
27551SOL    HW289512   6.695  11.777   4.803  2.8717  2.0158 -0.3658
27552SOL     OW89513   0.711   5.644   2.964  0.5115 -0.5245 -0.3860
27552SOL    HW189514   0.744   5.681   3.045  2.8084 -0.3498 -1.3107
27552SOL    HW289515   0.638   5.701   2.938 -0.2311 -0.5707  1.4875
27553SOL     OW89516   5.179  12.397   7.707  0.2790 -0.1573 -0.8471
27553SOL    HW189517   5.160  12.305   7.692  0.8331 -0.1634 -1.5708
27553SOL    HW289518   5.244  12.419   7.641  0.9308  0.4873 -0.0183
27554SOL     OW89519  12.407   4.204   8.518 -0.2879  0.2690 -0.1594
27554SOL    HW189520  12.468   4.249   8.459  1.2213 -1.0339  0.3586
27554SOL    HW289521  12.454   4.194   8.600 -0.3481 -2.6327 -0.3787
27555SOL     OW89522   5.302  12.399   8.274 -0.1580  0.0120 -0.1685
27555SOL    HW189523   5.396  12.409   8.260 -0.6157  0.5252 -3.5871
27555SOL    HW289524   5.279  12.473   8.332  1.1397  1.5627 -1.5319
27556SOL     OW89525   8.701   0.987  11.302 -0.7030  0.3362  0.1337
27556SOL    HW189526   8.716   0.972  11.395 -0.1569 -1.9560 -0.2581
27556SOL    HW289527   8.643   1.063  11.299  1.0222  1.8681  2.2206
27557SOL     OW89528   4.750   5.007   3.272  0.0240  0.4824 -0.2485
27557SOL    HW189529   4.707   4.928   3.307 -0.7782  0.3284 -1.5400
27557SOL    HW289530   4.764   4.988   3.180 -0.3686  1.9385 -0.6320
27558SOL     OW89531  11.200   7.620   9.255  0.3700 -0.5345  0.0745
27558SOL    HW189532  11.157   7.541   9.286 -0.4824  0.3673  1.3097
27558SOL    HW289533  11.153   7.645   9.176  0.1069 -0.7916  0.1496
27559SOL     OW89534   1.683  10.881   8.546  0.7974 -0.8413 -0.0268
27559SOL    HW189535   1.694  10.789   8.524 -1.7914 -0.7026 -2.3045
27559SOL    HW289536   1.598  10.886   8.589  1.7754  0.2873  1.9395
27560SOL     OW89537   1.077   9.563   9.309  0.0766 -0.6396  0.0618
27560SOL    HW189538   1.145   9.575   9.375 -0.8032 -0.9253  1.0513
27560SOL    HW289539   1.008   9.625   9.335  0.5503  0.7322 -1.7702
27561SOL     OW89540   8.311   7.394  11.818 -0.4423  0.0788 -0.4114
27561SOL    HW189541   8.258   7.373  11.742  0.0650 -0.5043 -0.6192
27561SOL    HW289542   8.272   7.342  11.889  0.3153 -0.9895 -0.7438
27562SOL     OW89543  11.966  10.610  11.618  0.1767 -0.4776  0.0265
27562SOL    HW189544  11.937  10.530  11.575 -0.8168 -0.0223 -0.1731
27562SOL    HW289545  12.055  10.590  11.648 -0.5780 -2.1506  1.3044
27563SOL     OW89546   9.407   1.272   0.848  0.4264 -0.2959 -0.0706
27563SOL    HW189547   9.499   1.299   0.853  0.5238 -0.8414  1.9812
27563SOL    HW289548   9.409   1.178   0.865 -0.2853 -0.9718 -3.1061
27564SOL     OW89549   9.331   0.434   5.189  0.6734 -0.1053  0.5621
27564SOL    HW189550   9.418   0.405   5.217  1.9587  1.0534 -1.8797
27564SOL    HW289551   9.345   0.523   5.156 -1.5552  0.3015  0.5586
27565SOL     OW89552  11.753   5.046   5.768  0.2506 -0.2893  0.1666
27565SOL    HW189553  11.719   4.960   5.792  2.1826 -0.6717  1.8957
27565SOL    HW289554  11.824   5.027   5.706  0.4517  0.0613  0.2827
27566SOL     OW89555   1.776   8.650   1.390  0.1610 -0.5213  0.0535
27566SOL    HW189556   1.761   8.638   1.483  0.0247  0.1358  0.1219
27566SOL    HW289557   1.724   8.581   1.348  0.1639 -0.7687  0.4576
27567SOL     OW89558   9.855   2.068   4.758 -0.6974  0.5034  0.4234
27567SOL    HW189559   9.917   2.124   4.804 -0.5606  1.5334 -0.9541
27567SOL    HW289560   9.810   2.127   4.697 -0.4915 -0.8692 -1.1434
27568SOL     OW89561   5.813   1.452   9.729 -0.5078 -0.3945 -0.3669
27568SOL    HW189562   5.869   1.515   9.775 -0.0986  0.0039 -1.3688
27568SOL    HW289563   5.730   1.454   9.776 -0.4151  0.7144 -0.2339
27569SOL     OW89564   3.787   1.592   3.932 -0.3111  0.0263  0.6884
27569SOL    HW189565   3.831   1.565   3.850  1.6786 -2.0627  2.2989
27569SOL    HW289566   3.783   1.687   3.926  0.0466 -0.0317 -1.7109
27570SOL     OW89567   9.102  12.115   1.256  0.4640  0.1971  0.4009
27570SOL    HW189568   9.116  12.022   1.237  2.1068  0.4906  0.0137
27570SOL    HW289569   9.127  12.124   1.348 -0.4052  0.1490  0.6575
27571SOL     OW89570  11.087   3.698   8.345  0.0122 -0.5536 -0.1135
27571SOL    HW189571  11.064   3.785   8.378  0.9480 -0.6010  0.7163
27571SOL    HW289572  11.098   3.710   8.251 -4.1488 -0.7032 -0.8242
27572SOL     OW89573   0.443   7.896   0.045  0.0828 -0.3677 -0.5657
27572SOL    HW189574   0.449   7.855  -0.042 -1.4085 -0.1563 -0.7868
27572SOL    HW289575   0.358   7.939   0.045  0.0262 -0.4439  1.0557
27573SOL     OW89576  10.669  10.157  10.657  0.3267  0.3196 -0.3508
27573SOL    HW189577  10.703  10.075  10.692 -0.2383  0.5811  0.8562
27573SOL    HW289578  10.576  10.138  10.639  0.1730  0.7259  0.0238
27574SOL     OW89579   1.046   6.144   0.338 -0.1333  0.0495 -0.2179
27574SOL    HW189580   1.005   6.098   0.411 -1.2428 -0.7917 -1.3157
27574SOL    HW289581   0.977   6.202   0.305  1.2458  2.5897  1.1407
27575SOL     OW89582   8.869   7.690   5.870  0.4576  0.5632 -0.5708
27575SOL    HW189583   8.859   7.609   5.920 -0.8501  1.1736  0.1894
27575SOL    HW289584   8.911   7.662   5.788 -0.3274 -0.9508 -0.4965
27576SOL     OW89585   9.673   7.040   0.552 -0.3320  0.1732  0.8465
27576SOL    HW189586   9.723   7.059   0.631 -2.0003  2.5364  1.4290
27576SOL    HW289587   9.669   7.124   0.505 -1.2240 -0.6706 -0.6627
27577SOL     OW89588   2.104   9.939   7.120 -0.0244 -0.4538  0.5681
27577SOL    HW189589   2.049   9.866   7.149 -1.1706  0.5897  1.1086
27577SOL    HW289590   2.055  10.017   7.144  1.1400  0.5108 -0.0711
27578SOL     OW89591   1.226   1.170   0.010 -0.2191 -0.3200 -0.0745
27578SOL    HW189592   1.229   1.096   0.070  0.7533  1.7883  2.7133
27578SOL    HW289593   1.299   1.226   0.037 -0.0285  1.0453 -2.9636
27579SOL     OW89594   5.281   5.190   4.402  0.0401 -0.1213 -0.2119
27579SOL    HW189595   5.198   5.172   4.357 -0.2046 -0.2734  0.2896
27579SOL    HW289596   5.278   5.134   4.479 -0.1112  1.0543  0.6628
27580SOL     OW89597   1.441   1.070  10.773 -1.0796  0.1117 -0.4727
27580SOL    HW189598   1.493   1.016  10.833 -0.4856  0.3817 -0.7425
27580SOL    HW289599   1.488   1.153  10.768 -1.2374  0.1608 -1.1594
27581SOL     OW89600   0.026  10.277   7.880  0.0355 -0.0431 -0.2066
27581SOL    HW189601   0.031  10.243   7.791  0.8137 -1.3871  0.3311
27581SOL    HW289602   0.116  10.300   7.902 -0.0801 -0.1877  0.4180
27582SOL     OW89603   9.448   8.550   8.671  0.5519 -0.3717 -0.2412
27582SOL    HW189604   9.383   8.482   8.656 -0.1447  0.6946 -2.4732
27582SOL    HW289605   9.532   8.509   8.653  0.3511 -1.2360  0.7277
27583SOL     OW89606   4.618   5.330   1.334  0.3481 -0.3792  0.1600
27583SOL    HW189607   4.602   5.371   1.249  0.1619  1.3272  0.9744
27583SOL    HW289608   4.656   5.244   1.312  1.2041  0.3907 -1.6341
27584SOL     OW89609   3.516  11.257   1.123 -0.3879 -0.0890 -0.0130
27584SOL    HW189610   3.471  11.198   1.185  0.5463 -0.6141  0.1740
27584SOL    HW289611   3.455  11.265   1.050 -1.0260 -0.3645  0.4755
27585SOL     OW89612   6.961   4.268   0.725 -0.0879  0.7858  0.1480
27585SOL    HW189613   6.888   4.249   0.665 -0.3225 -0.8756  0.8974
27585SOL    HW289614   6.925   4.251   0.812  1.4307 -0.9581  0.4866
27586SOL     OW89615   2.555   4.816   5.608 -0.7241  0.0006  0.0498
27586SOL    HW189616   2.531   4.832   5.517  0.4241 -1.5455 -0.5671
27586SOL    HW289617   2.627   4.877   5.625  1.6036 -2.2040 -1.3237
27587SOL     OW89618   6.054   2.330   4.124 -0.3045  0.1157  0.3919
27587SOL    HW189619   6.147   2.314   4.107  0.2994  2.5042  1.1293
27587SOL    HW289620   6.012   2.319   4.038  0.6025 -1.1440  0.0767
27588SOL     OW89621   2.726   8.352   7.061  0.6231 -0.2468 -0.3790
27588SOL    HW189622   2.705   8.384   6.974 -0.3341 -2.0023 -0.8479
27588SOL    HW289623   2.742   8.431   7.113  1.7508  0.8222 -2.2430
27589SOL     OW89624   4.443   4.905   2.513  0.3677  0.4899 -0.0242
27589SOL    HW189625   4.526   4.889   2.558  0.2622  1.3030  0.4952
27589SOL    HW289626   4.425   4.998   2.529  0.2460  0.7658 -1.6329
27590SOL     OW89627   3.801   6.120   3.952 -0.3551  0.0652 -0.1123
27590SOL    HW189628   3.889   6.128   3.989  0.2254  0.0131 -1.4235
27590SOL    HW289629   3.796   6.029   3.922 -0.7870  0.1242 -0.2252
27591SOL     OW89630  10.666  11.050   2.334 -0.1032 -0.2042  0.3865
27591SOL    HW189631  10.748  11.001   2.331 -0.5211 -0.8833 -0.2637
27591SOL    HW289632  10.686  11.126   2.389  0.7643 -0.7140  0.8029
27592SOL     OW89633  11.308   2.002   0.374 -0.2251  0.5734  0.4524
27592SOL    HW189634  11.352   2.086   0.382  0.1392  0.2864  1.7581
27592SOL    HW289635  11.238   2.004   0.440 -0.1771 -0.1585  0.5395
27593SOL     OW89636   0.914   1.754   1.695  0.4892  0.2995  0.2683
27593SOL    HW189637   0.857   1.678   1.706  1.1354 -0.1461  0.6083
27593SOL    HW289638   0.935   1.756   1.602  1.1090 -0.4222  0.3792
27594SOL     OW89639   2.260   1.384  11.071 -0.8477  0.6038 -0.0426
27594SOL    HW189640   2.305   1.423  11.146  0.7871  0.4247 -0.8717
27594SOL    HW289641   2.279   1.290  11.079  1.8517  0.8500 -2.1589
27595SOL     OW89642   5.666   4.564   3.298  0.5363 -0.2971 -0.2368
27595SOL    HW189643   5.761   4.567   3.306  0.4694 -1.8335  2.2756
27595SOL    HW289644   5.650   4.502   3.227  1.4185 -0.5144 -0.2582
27596SOL     OW89645   0.392   8.850   8.853  0.5530 -0.2795  0.9224
27596SOL    HW189646   0.359   8.761   8.865 -1.7084  0.1646 -1.3118
27596SOL    HW289647   0.451   8.844   8.778 -2.9842  0.6390 -2.2529
27597SOL     OW89648   6.047   1.326  10.941  0.3558 -0.4529 -0.1881
27597SOL    HW189649   6.094   1.249  10.973  0.2900 -0.2621  0.3956
27597SOL    HW289650   6.115   1.394  10.935  0.8923 -1.1127 -2.9007
27598SOL     OW89651   7.852  10.010   9.100  0.1422  0.0563  0.2189
27598SOL    HW189652   7.761   9.982   9.113  0.2227 -1.0843 -1.3638
27598SOL    HW289653   7.900   9.971   9.173 -0.4406 -0.3643  0.3837
27599SOL     OW89654  10.182   7.223   4.342 -0.4025  0.3815 -0.5210
27599SOL    HW189655  10.144   7.245   4.257  0.7279  1.3354 -0.8104
27599SOL    HW289656  10.127   7.268   4.406 -0.8085  0.2777 -0.7928
27600SOL     OW89657   3.535   4.333   8.557  0.7231  0.4521  0.5784
27600SOL    HW189658   3.583   4.297   8.632 -0.6664  0.3455  1.4544
27600SOL    HW289659   3.554   4.427   8.560  0.6712  0.4497  1.0801
27601SOL     OW89660   8.813  11.578   0.512 -0.6759 -0.2216  0.4269
27601SOL    HW189661   8.901  11.585   0.473 -1.2413  1.2102 -0.6690
27601SOL    HW289662   8.765  11.522   0.451 -0.6253 -0.7487  0.8650
27602SOL     OW89663   1.577   1.341   4.179 -0.0321 -0.7144 -0.0684
27602SOL    HW189664   1.511   1.322   4.245 -0.8463 -0.5530 -0.8244
27602SOL    HW289665   1.626   1.415   4.215 -0.9538 -0.1399  0.0308
27603SOL     OW89666   3.626  11.515   9.859 -0.0792 -0.5079 -0.3614
27603SOL    HW189667   3.603  11.581   9.924  1.7157 -0.3499  0.1743
27603SOL    HW289668   3.566  11.443   9.876 -0.4695  0.0348  0.6537
27604SOL     OW89669   6.801  10.392  12.099  0.0473 -0.2183  0.3781
27604SOL    HW189670   6.826  10.304  12.069 -0.4759 -0.2062 -0.1005
27604SOL    HW289671   6.829  10.394  12.190  1.7041 -0.2504 -0.0821
27605SOL     OW89672   1.825   7.452  10.430  0.1251  0.2880  0.2993
27605SOL    HW189673   1.767   7.449  10.505 -1.2299 -1.0303 -0.7500
27605SOL    HW289674   1.805   7.535  10.387 -0.3995  0.2157  0.3993
27606SOL     OW89675  12.102   0.957   9.710 -0.3824 -0.0476  0.1979
27606SOL    HW189676  12.176   0.954   9.771 -0.8737 -0.1077  0.8036
27606SOL    HW289677  12.113   0.878   9.657  0.2346  0.1752 -0.0152
27607SOL     OW89678  11.206   6.069   8.105 -0.5582  0.0966  0.1499
27607SOL    HW189679  11.212   6.003   8.036 -1.7282  0.3728 -0.2294
27607SOL    HW289680  11.160   6.025   8.176 -1.5838  0.5746 -0.2081
27608SOL     OW89681   3.855   7.238   2.976  0.1321  0.7050  0.2031
27608SOL    HW189682   3.941   7.222   3.016  0.2065  1.0658  0.1953
27608SOL    HW289683   3.810   7.295   3.038 -0.2683  0.1730  0.4083
27609SOL     OW89684  10.351   3.825  10.003  0.5621  0.2558  0.0542
27609SOL    HW189685  10.301   3.906  10.001 -0.4585 -0.3413  0.4541
27609SOL    HW289686  10.350   3.794   9.912  0.6275  0.4998 -0.0302
27610SOL     OW89687   4.539   4.215  11.819 -0.1318 -0.1073  0.1792
27610SOL    HW189688   4.448   4.232  11.842  0.4265  2.6067  0.8133
27610SOL    HW289689   4.536   4.189  11.727 -1.5911 -1.1459  0.4826
27611SOL     OW89690   2.091   4.401   6.875 -0.3457  0.6837  0.5313
27611SOL    HW189691   2.136   4.477   6.911  0.4859  0.0043  0.9621
27611SOL    HW289692   2.159   4.352   6.828 -0.5452 -0.5121  1.4430
27612SOL     OW89693   2.368   5.129   5.447  0.0385  0.1908  0.4479
27612SOL    HW189694   2.419   5.139   5.527  0.4935  0.4655  0.1272
27612SOL    HW289695   2.412   5.058   5.399  0.9484  1.3104 -0.4473
27613SOL     OW89696   8.231   7.332   5.773 -0.1216 -0.7889 -0.1902
27613SOL    HW189697   8.203   7.269   5.706 -0.7293  0.9454 -1.6451
27613SOL    HW289698   8.318   7.359   5.746 -1.2555  1.6674 -1.7338
27614SOL     OW89699   9.032   8.367   8.924  0.4635 -0.3546  0.3909
27614SOL    HW189700   9.015   8.284   8.969  2.7328 -1.4519 -0.6121
27614SOL    HW289701   9.093   8.413   8.982  1.6426 -0.7932 -0.4668
27615SOL     OW89702   6.959   9.135   8.996  0.5594  0.4831 -0.1570
27615SOL    HW189703   6.904   9.097   8.927 -1.1609  2.4434  0.0259
27615SOL    HW289704   6.992   9.060   9.045  0.0062 -0.8638 -1.7484
27616SOL     OW89705   8.397   0.294   8.454 -0.1787  0.2138 -0.3339
27616SOL    HW189706   8.449   0.371   8.477 -1.2103  0.3817  1.7252
27616SOL    HW289707   8.454   0.219   8.473 -0.7451  0.3767  2.4260
27617SOL     OW89708   7.105   2.837  10.807 -0.3640 -0.4392 -0.1790
27617SOL    HW189709   7.080   2.862  10.717  2.3784  2.1071 -0.3811
27617SOL    HW289710   7.192   2.798  10.798  0.0592  0.0744  1.3814
27618SOL     OW89711   6.037   6.928   9.949  1.0773 -0.2704 -0.1472
27618SOL    HW189712   6.032   6.864  10.020 -0.2076 -0.2936 -0.2251
27618SOL    HW289713   6.047   6.875   9.870 -4.5757 -0.9878 -0.8471
27619SOL     OW89714   5.599  11.700   6.551  0.0768  0.0819 -0.0078
27619SOL    HW189715   5.672  11.757   6.574  0.1212  0.5775 -1.2778
27619SOL    HW289716   5.606  11.625   6.611  1.7306  0.0412 -0.2113
27620SOL     OW89717  11.241   2.580   7.889 -0.2092  0.0220  0.4548
27620SOL    HW189718  11.187   2.658   7.878  1.2325  1.0832  0.5949
27620SOL    HW289719  11.253   2.546   7.800  4.3259  3.6650 -0.7219
27621SOL     OW89720   6.188   3.457   2.914  0.0743  0.0025 -0.2863
27621SOL    HW189721   6.279   3.429   2.900  0.3768  0.3314  0.8819
27621SOL    HW289722   6.194   3.523   2.983 -1.1204 -0.4042  0.2290
27622SOL     OW89723  11.160   4.509  10.076 -0.3692  0.1472  0.0055
27622SOL    HW189724  11.089   4.480  10.135 -0.5363 -1.5645 -0.9858
27622SOL    HW289725  11.239   4.472  10.114 -0.2586  0.3948  0.0191
27623SOL     OW89726   4.194   3.295   1.168 -0.1670  0.1391 -0.1144
27623SOL    HW189727   4.254   3.331   1.234 -3.1745  2.0823  1.8427
27623SOL    HW289728   4.173   3.370   1.112  1.3557 -1.1999 -2.6420
27624SOL     OW89729   1.853   9.001  10.880  0.1727 -0.2648  0.4003
27624SOL    HW189730   1.840   9.016  10.786  0.2083 -0.6115  0.3389
27624SOL    HW289731   1.777   9.043  10.921 -0.1984 -0.6943  0.1666
27625SOL     OW89732   5.830   0.663   8.336  0.7141  0.6339  0.1949
27625SOL    HW189733   5.893   0.663   8.263  0.3192  1.7684 -0.1689
27625SOL    HW289734   5.882   0.636   8.412  0.9867 -1.2430 -0.5902
27626SOL     OW89735   4.330   1.378   0.935  0.1228  0.7978  0.5354
27626SOL    HW189736   4.324   1.470   0.959 -0.9803  1.2314 -1.2710
27626SOL    HW289737   4.421   1.354   0.956  0.9917  2.8113 -0.6737
27627SOL     OW89738   4.827   7.642   7.445 -0.2098  0.0481 -0.6884
27627SOL    HW189739   4.834   7.589   7.365  0.9037 -0.6435 -0.1658
27627SOL    HW289740   4.780   7.586   7.507 -0.6324  0.3888 -0.6990
27628SOL     OW89741   2.515   3.153   7.316 -0.4206  0.0146  0.4590
27628SOL    HW189742   2.515   3.248   7.323  0.4243 -0.0342  1.2971
27628SOL    HW289743   2.589   3.133   7.258 -1.0172 -0.1093 -0.2785
27629SOL     OW89744  11.205   4.405   5.001 -0.4290 -0.0004  0.0351
27629SOL    HW189745  11.241   4.491   5.022 -0.5919  0.7099 -2.3851
27629SOL    HW289746  11.122   4.422   4.957 -1.8740 -1.5274  1.9629
27630SOL     OW89747   0.993   0.138   4.586 -0.4029  0.0081 -0.0891
27630SOL    HW189748   0.987   0.043   4.575  0.5630  0.1376 -2.3466
27630SOL    HW289749   1.032   0.149   4.673 -1.8540 -1.5804  0.8370
27631SOL     OW89750   7.673   5.876   5.751  0.4196 -0.4040 -0.2624
27631SOL    HW189751   7.766   5.878   5.774  0.4450 -2.8535  0.1405
27631SOL    HW289752   7.628   5.860   5.834 -0.4582  1.3525 -0.3598
27632SOL     OW89753   6.373   0.171   3.176  0.5067 -0.4678  1.4788
27632SOL    HW189754   6.340   0.101   3.120  1.8298 -0.5652  0.7723
27632SOL    HW289755   6.452   0.134   3.216 -0.0767 -0.1829  2.9344
27633SOL     OW89756   5.098   1.278   8.426 -0.3988  0.0068  0.0464
27633SOL    HW189757   5.074   1.352   8.481 -0.6909  0.3367 -0.5133
27633SOL    HW289758   5.074   1.305   8.338  0.6683 -0.2504 -0.3364
27634SOL     OW89759   4.054   7.903  11.098 -0.3978  0.1809 -0.7038
27634SOL    HW189760   4.128   7.851  11.129 -0.4786  0.4196 -0.0965
27634SOL    HW289761   4.089   7.953  11.025  0.2312  0.7876 -0.0119
27635SOL     OW89762  10.137  12.042   1.731  0.7311  0.7621 -0.3554
27635SOL    HW189763  10.187  11.985   1.791 -0.3942 -1.1895 -1.1705
27635SOL    HW289764  10.047  12.039   1.765  0.2688  0.3990 -1.5404
27636SOL     OW89765   9.084   8.990   6.895  0.5758  0.2078  0.1881
27636SOL    HW189766   9.070   8.923   6.828 -1.4632 -0.1409  0.8834
27636SOL    HW289767   9.159   8.959   6.945  1.7102  0.1278 -1.4678
27637SOL     OW89768   2.998   2.386   9.667 -0.5002  0.0661  0.3624
27637SOL    HW189769   3.073   2.446   9.667 -0.2585 -0.2193 -0.4899
27637SOL    HW289770   2.951   2.406   9.748  0.3917  0.3793  0.8085
27638SOL     OW89771   0.900  10.075   9.340  0.0904  0.1054 -0.2973
27638SOL    HW189772   0.933  10.143   9.282 -1.3954  1.0063 -0.1480
27638SOL    HW289773   0.917  10.108   9.429 -0.7763  0.3771 -0.2232
27639SOL     OW89774   9.171   0.546  11.491  0.1186  0.6156 -0.0244
27639SOL    HW189775   9.209   0.578  11.409 -2.0208 -0.0376 -1.3523
27639SOL    HW289776   9.199   0.455  11.497  0.5338  0.7512  0.1570
27640SOL     OW89777   6.270  12.035   1.686 -0.1859  0.3282  0.0590
27640SOL    HW189778   6.189  12.033   1.635 -1.3600 -0.0488  1.8261
27640SOL    HW289779   6.337  12.002   1.627 -1.4634 -0.0526 -1.2316
27641SOL     OW89780   7.953  10.941   4.343  0.3203 -0.1165  0.0467
27641SOL    HW189781   7.882  10.986   4.298 -0.0835  0.6368  1.3633
27641SOL    HW289782   8.026  11.002   4.339  0.4915 -0.3339 -0.1690
27642SOL     OW89783   0.783  10.736   8.915  0.1634 -0.4611 -0.0030
27642SOL    HW189784   0.689  10.757   8.916  0.5545  1.4703 -0.0101
27642SOL    HW289785   0.789  10.656   8.863 -1.2316  0.8198 -2.2906
27643SOL     OW89786   8.582  10.914   8.494 -0.2216  0.0014  0.3694
27643SOL    HW189787   8.555  10.826   8.470  0.1730 -0.1202  0.3512
27643SOL    HW289788   8.572  10.917   8.590 -1.0166  0.2149  0.2868
27644SOL     OW89789   0.321   2.712   9.645  0.2443 -0.1361  0.0280
27644SOL    HW189790   0.314   2.807   9.638 -0.3707  0.0081  1.9516
27644SOL    HW289791   0.298   2.680   9.558  0.3848  1.4618 -0.6378
27645SOL     OW89792   0.938   6.892  11.891 -0.0060 -0.2244  0.5810
27645SOL    HW189793   0.885   6.840  11.830 -0.9914 -0.4966  1.6283
27645SOL    HW289794   1.026   6.855  11.885 -0.5516 -1.6190  0.8424
27646SOL     OW89795   0.149  12.573   3.123  0.1829 -0.1627 -0.0923
27646SOL    HW189796   0.124  12.581   3.215 -0.9974 -0.7335 -0.3511
27646SOL    HW289797   0.130  12.658   3.085 -1.0941 -0.4919 -0.2132
27647SOL     OW89798   2.952   2.401  11.998  0.2924 -0.9121  0.2075
27647SOL    HW189799   3.029   2.419  11.944  1.3820 -3.0623  0.9149
27647SOL    HW289800   2.878   2.425  11.943  1.3962 -1.3449 -1.5764
27648SOL     OW89801   8.297  10.949  10.818  0.0347 -0.1731  0.3123
27648SOL    HW189802   8.316  10.991  10.734  4.0685  1.2359  1.6613
27648SOL    HW289803   8.234  11.007  10.860 -0.8217 -0.0484 -1.0725
27649SOL     OW89804   5.076   5.447  11.244  0.4125  0.1888  0.0734
27649SOL    HW189805   5.096   5.388  11.172 -0.1052 -1.8165  1.4852
27649SOL    HW289806   5.153   5.443  11.301 -0.0428  0.0583  0.6935
27650SOL     OW89807  11.745   8.087   7.893 -0.3285  0.1506 -0.0033
27650SOL    HW189808  11.714   8.168   7.853  1.6357  1.2724  0.6151
27650SOL    HW289809  11.840   8.098   7.898 -0.0912 -1.8676  0.8372
27651SOL     OW89810   5.711   5.597   7.930  0.0747 -0.0246  0.3058
27651SOL    HW189811   5.716   5.655   7.854  1.6778  0.3342  0.6607
27651SOL    HW289812   5.638   5.538   7.910 -1.0686  1.5582 -0.4240
27652SOL     OW89813   6.792  12.072   3.131 -0.4708  0.1419 -0.0264
27652SOL    HW189814   6.765  12.114   3.049  0.4417  0.5756 -0.1213
27652SOL    HW289815   6.711  12.043   3.171 -1.3503  3.2694  0.7551
27653SOL     OW89816  12.116   4.381   1.061  0.1819 -0.6618 -0.1466
27653SOL    HW189817  12.159   4.455   1.018  1.3969 -1.4453 -0.3182
27653SOL    HW289818  12.022   4.401   1.054  0.4959  1.8626  1.6012
27654SOL     OW89819   7.849   0.759  11.887 -0.1375  0.6868 -0.2289
27654SOL    HW189820   7.817   0.669  11.882 -1.9117  1.2882 -0.3596
27654SOL    HW289821   7.844   0.790  11.797 -1.4614  1.5161  0.1022
27655SOL     OW89822  10.704   9.247   2.112 -0.4721 -0.0993 -0.5180
27655SOL    HW189823  10.682   9.340   2.116 -1.3925 -0.3290  0.0101
27655SOL    HW289824  10.630   9.207   2.066  0.4954 -0.4131 -1.8490
27656SOL     OW89825   2.731   2.350   4.615 -0.1452 -0.1791  0.7001
27656SOL    HW189826   2.785   2.340   4.537  0.3361 -1.3158  1.1695
27656SOL    HW289827   2.656   2.293   4.600 -0.1451 -0.2553  0.9796
27657SOL     OW89828   0.532   5.813   1.591 -0.3816  0.2891 -0.0344
27657SOL    HW189829   0.480   5.857   1.658 -0.2671 -0.0665  0.2970
27657SOL    HW289830   0.566   5.735   1.636 -1.1348 -0.4976 -0.7921
27658SOL     OW89831   9.847   0.893  11.250 -0.5887  0.0091 -0.3242
27658SOL    HW189832   9.799   0.852  11.178 -0.5701 -0.4521 -0.0704
27658SOL    HW289833   9.924   0.838  11.262  1.0628  1.7622 -2.0197
27659SOL     OW89834   8.914   9.210   1.664  0.4495 -0.2508  0.4131
27659SOL    HW189835   8.942   9.291   1.706 -0.9319 -0.3298  1.5637
27659SOL    HW289836   8.837   9.235   1.613  2.1848 -0.1240 -2.3314
27660SOL     OW89837   0.948   6.801   1.939  0.0847 -0.5403  0.2779
27660SOL    HW189838   0.980   6.792   1.849 -0.0494  1.0873  0.0417
27660SOL    HW289839   0.919   6.713   1.963 -0.2036 -0.9292 -1.3978
27661SOL     OW89840  10.329   9.010   9.146 -0.0148 -0.2213  0.2741
27661SOL    HW189841  10.288   9.096   9.135  0.3650 -0.1840 -0.9219
27661SOL    HW289842  10.257   8.948   9.141  0.0276 -0.1604 -1.8903
27662SOL     OW89843   9.852   7.583   8.020 -0.1340  0.0759 -0.2343
27662SOL    HW189844   9.827   7.669   7.987  0.7459  0.4826  0.1310
27662SOL    HW289845   9.901   7.601   8.100 -0.2364 -0.7864  0.0390
27663SOL     OW89846   7.869   1.321   5.117 -0.2554  0.1647 -0.4885
27663SOL    HW189847   7.885   1.374   5.039  0.5201  0.7889  0.0726
27663SOL    HW289848   7.800   1.369   5.164 -0.1952  0.1928 -0.4285
27664SOL     OW89849  12.377   5.258  11.869  0.0970  0.1824 -0.4800
27664SOL    HW189850  12.296   5.306  11.853 -0.1136  0.3946  1.0932
27664SOL    HW289851  12.423   5.311  11.935  0.2760 -1.3042  0.6307
27665SOL     OW89852  11.462   1.166  10.583  0.2233 -0.1216  0.3513
27665SOL    HW189853  11.475   1.139  10.492 -1.7443 -0.8476  0.2334
27665SOL    HW289854  11.462   1.261  10.580  1.2546 -0.1336 -0.2245
27666SOL     OW89855   8.044   8.916   6.551  0.1712 -0.5138  0.3406
27666SOL    HW189856   8.133   8.931   6.583 -0.6063 -0.2257  2.5547
27666SOL    HW289857   8.055   8.887   6.460  2.4287  0.7530  0.1508
27667SOL     OW89858   7.144  12.048   9.627 -0.3625 -0.2369  0.7541
27667SOL    HW189859   7.151  12.120   9.689 -0.7967  0.5408 -0.0802
27667SOL    HW289860   7.062  12.064   9.581  0.7146  0.1403 -1.1533
27668SOL     OW89861   7.699  11.696  12.166 -0.1275 -0.2200 -0.1555
27668SOL    HW189862   7.773  11.732  12.117  0.3886  0.3367  1.0035
27668SOL    HW289863   7.717  11.603  12.174  0.7322 -0.0003  0.5817
27669SOL     OW89864  10.059   6.357   2.434  0.2973  0.2170  0.4135
27669SOL    HW189865   9.977   6.407   2.439  0.8411  1.1409  0.3704
27669SOL    HW289866  10.071   6.340   2.341 -0.0155 -0.2263  0.4492
27670SOL     OW89867   9.745   4.863  12.210 -0.0570 -0.1818 -0.2117
27670SOL    HW189868   9.693   4.943  12.211 -0.2288 -0.2889  1.1536
27670SOL    HW289869   9.754   4.841  12.117 -1.4441  0.4893 -0.5278
27671SOL     OW89870  11.044   6.565  11.871  0.3200  0.7408 -1.2399
27671SOL    HW189871  11.006   6.499  11.814 -2.3747  0.7570  0.3621
27671SOL    HW289872  11.125   6.526  11.903 -0.8827 -1.5817 -0.8358
27672SOL     OW89873   0.483   7.011   8.455 -0.4624  0.0675 -1.0620
27672SOL    HW189874   0.489   7.061   8.536 -1.4053 -0.1529 -0.8373
27672SOL    HW289875   0.521   7.068   8.388 -1.2204  0.9550 -0.7581
27673SOL     OW89876   0.883   5.570   6.768 -0.0749  0.7066  0.3922
27673SOL    HW189877   0.953   5.572   6.833  0.8747 -1.9709 -0.4073
27673SOL    HW289878   0.805   5.546   6.818  0.1472  1.0090  0.8898
27674SOL     OW89879   1.401   0.832   2.755  0.2527  0.6390  0.4717
27674SOL    HW189880   1.358   0.750   2.732  0.5328  1.1564 -2.1436
27674SOL    HW289881   1.489   0.807   2.781  1.0658  0.1837 -2.4016
27675SOL     OW89882   7.739   1.400   0.732  0.1826 -0.1732  0.2424
27675SOL    HW189883   7.759   1.493   0.721  0.3363 -0.2367 -0.0242
27675SOL    HW289884   7.644   1.395   0.723  0.3260 -0.2722 -1.5209
27676SOL     OW89885   7.495   8.984  10.265  0.3179 -0.2201 -0.1681
27676SOL    HW189886   7.568   9.042  10.289 -0.0652  0.4548 -0.6092
27676SOL    HW289887   7.500   8.978  10.170 -1.0103  0.9215 -0.3306
27677SOL     OW89888   4.101   7.517   2.476  0.0749  0.2266  0.0074
27677SOL    HW189889   4.099   7.527   2.381  0.4005 -1.3642 -0.1847
27677SOL    HW289890   4.018   7.554   2.506 -0.0041  0.7803 -0.8820
27678SOL     OW89891   3.659  10.274   9.110 -0.3609  0.2642  0.6761
27678SOL    HW189892   3.735  10.240   9.158 -0.0545  0.3644  0.2652
27678SOL    HW289893   3.605  10.197   9.095  1.6181 -0.7090 -2.6875
27679SOL     OW89894   2.851   1.704   7.296  0.1343 -0.5803 -0.5673
27679SOL    HW189895   2.927   1.740   7.340  0.8062 -1.4417 -0.9897
27679SOL    HW289896   2.798   1.666   7.366 -0.0553  0.2609 -0.2434
27680SOL     OW89897   0.861   5.419   4.236  0.6039 -0.9624 -0.3843
27680SOL    HW189898   0.926   5.438   4.303 -0.4245 -0.5187  0.5273
27680SOL    HW289899   0.869   5.491   4.173  0.2348 -0.2899  0.3230
27681SOL     OW89900   4.578   7.985   8.536  0.8691  0.4194 -0.0983
27681SOL    HW189901   4.594   8.032   8.455 -1.5404 -1.3575 -1.7307
27681SOL    HW289902   4.590   7.893   8.514 -1.5040 -0.2412  1.0357
27682SOL     OW89903   4.168   7.980   5.713 -0.3691 -0.1236  0.0564
27682SOL    HW189904   4.189   7.963   5.805 -0.7227 -1.1766 -0.0412
27682SOL    HW289905   4.125   8.065   5.714  0.1600  0.1533  0.7867
27683SOL     OW89906  12.562   6.784   5.587  0.4132  0.1680  0.7000
27683SOL    HW189907  12.529   6.860   5.539  2.1298  0.0335 -0.8037
27683SOL    HW289908  12.538   6.801   5.678 -2.5859  0.6487 -0.0879
27684SOL     OW89909   7.408   2.243   5.709  0.0615 -0.2212  0.0678
27684SOL    HW189910   7.369   2.330   5.698 -2.5415 -1.4390 -1.2528
27684SOL    HW289911   7.373   2.211   5.792  2.3305  0.5295  1.4093
27685SOL     OW89912   8.057   0.832   2.461 -0.1200  0.6647  0.1571
27685SOL    HW189913   8.134   0.870   2.504  0.6945 -0.6276 -0.0903
27685SOL    HW289914   8.092   0.791   2.382 -0.8870 -0.7525  0.5048
27686SOL     OW89915   6.083   4.480   0.546  0.2634  0.3489  0.2450
27686SOL    HW189916   6.030   4.559   0.550 -0.3706 -0.0758  0.2848
27686SOL    HW289917   6.141   4.487   0.622 -0.4734  0.2962  0.8198
27687SOL     OW89918   9.413   6.953   0.493 -0.5543 -0.4753 -0.7453
27687SOL    HW189919   9.494   6.994   0.523 -1.0244  0.0895 -0.2249
27687SOL    HW289920   9.392   6.997   0.411 -0.8119  0.0060 -0.4222
27688SOL     OW89921   5.208   0.646   4.274  0.3543 -0.5600 -0.0785
27688SOL    HW189922   5.246   0.733   4.267  1.1250 -0.8757  0.1120
27688SOL    HW289923   5.219   0.608   4.187 -1.2850  0.0399 -0.5874
27689SOL     OW89924   2.866   5.934   8.414 -0.1216  0.7933  0.2309
27689SOL    HW189925   2.816   6.007   8.451  0.3171  1.5236 -0.5983
27689SOL    HW289926   2.866   5.950   8.320  2.9220  1.6768  0.2634
27690SOL     OW89927   6.025   4.464   9.261 -0.0769 -0.1432 -0.1172
27690SOL    HW189928   5.999   4.552   9.288  0.1139  0.2358 -1.1278
27690SOL    HW289929   6.095   4.440   9.322 -0.0805  0.4328  0.1194
27691SOL     OW89930   5.605   8.152   7.750 -0.8090  0.3391 -0.2547
27691SOL    HW189931   5.521   8.152   7.795 -0.7135 -0.5361 -0.0618
27691SOL    HW289932   5.641   8.239   7.766 -1.4790  0.5695  0.0266
27692SOL     OW89933   3.702   4.854  11.839  0.1585 -0.3423  0.0002
27692SOL    HW189934   3.769   4.857  11.771  0.2668 -0.5605  0.0972
27692SOL    HW289935   3.624   4.890  11.797  0.5120  0.5672  0.0940
27693SOL     OW89936   1.612   2.675   3.387 -0.6785  0.0225  0.5349
27693SOL    HW189937   1.707   2.680   3.401 -0.9635  1.3629  2.3682
27693SOL    HW289938   1.596   2.584   3.363  1.3235  0.2845 -2.2230
27694SOL     OW89939  12.466   7.386   9.995  0.2553 -0.0742 -0.0880
27694SOL    HW189940  12.456   7.291   9.999  1.4462 -0.2299 -0.4436
27694SOL    HW289941  12.561   7.401  10.001  0.2759  0.9732 -2.2630
27695SOL     OW89942   2.435   2.090   0.765 -0.1279  0.1486  0.8791
27695SOL    HW189943   2.419   2.157   0.831  0.7270 -0.4452  1.7215
27695SOL    HW289944   2.424   2.135   0.682  3.0540  2.1015  1.3473
27696SOL     OW89945   0.056   2.276   7.300  0.0704  0.0625 -0.7541
27696SOL    HW189946   0.092   2.193   7.330  0.2351 -0.0383 -1.2201
27696SOL    HW289947   0.019   2.316   7.379  2.2388  0.7338  0.0099
27697SOL     OW89948   0.056   8.852   7.532 -0.1979 -0.1257 -0.1800
27697SOL    HW189949   0.038   8.902   7.611 -1.0201 -1.5295  0.5531
27697SOL    HW289950   0.105   8.913   7.476  1.1371  0.6366  1.7147
27698SOL     OW89951   9.803  11.383   8.956  0.0386  0.0473 -0.7932
27698SOL    HW189952   9.801  11.291   8.982  0.9415  0.2939  0.1815
27698SOL    HW289953   9.716  11.399   8.919 -0.9963 -0.5542  1.2561
27699SOL     OW89954   2.865   8.468   5.033  0.2893 -0.0550  0.4850
27699SOL    HW189955   2.883   8.382   4.996  1.0637  0.4267 -0.3145
27699SOL    HW289956   2.939   8.522   5.005 -1.2457  1.4360 -0.9583
27700SOL     OW89957   3.846   3.215  10.924  0.3364 -0.0769  0.1607
27700SOL    HW189958   3.814   3.175  11.004 -1.9476  0.7941 -0.2314
27700SOL    HW289959   3.894   3.293  10.954 -1.2002  0.7071  0.7242
27701SOL     OW89960   8.353   0.321  12.254  0.0314 -0.6331 -0.7678
27701SOL    HW189961   8.365   0.307  12.161 -0.5431  0.0216 -0.9498
27701SOL    HW289962   8.428   0.376  12.280  0.7241 -1.6236 -0.6323
27702SOL     OW89963   4.022   6.207   6.843  0.4667 -0.3488  0.2426
27702SOL    HW189964   3.955   6.246   6.899  2.3212  0.7707  1.8330
27702SOL    HW289965   4.009   6.249   6.758 -1.9104 -1.4877 -0.0373
27703SOL     OW89966   8.246   3.249   2.096 -0.4219 -0.3913  0.3882
27703SOL    HW189967   8.242   3.344   2.090 -0.3274 -0.3764  0.5746
27703SOL    HW289968   8.326   3.231   2.145 -0.0813 -0.5862 -0.2184
27704SOL     OW89969   9.130   5.494   0.755 -0.5896  0.3239  0.2375
27704SOL    HW189970   9.034   5.496   0.759 -0.6159 -0.7435  0.2603
27704SOL    HW289971   9.150   5.465   0.667 -0.2395  2.0641 -0.3084
27705SOL     OW89972   8.055  10.093   2.997  0.1247 -0.2181 -0.2075
27705SOL    HW189973   8.053  10.034   2.921  2.4216  0.2179 -0.6658
27705SOL    HW289974   8.065  10.036   3.072  1.3716 -0.5021 -0.5681
27706SOL     OW89975  11.219   6.004   9.248 -0.0356  0.0986  0.6000
27706SOL    HW189976  11.151   5.941   9.272  0.9428 -0.9074  0.8204
27706SOL    HW289977  11.279   6.003   9.323  1.1822 -0.4057 -0.3475
27707SOL     OW89978   1.860   8.026   9.312 -0.1751 -0.4356  0.4218
27707SOL    HW189979   1.811   8.049   9.233 -1.2790 -0.3559  1.1106
27707SOL    HW289980   1.928   8.093   9.318 -0.2714 -0.2602 -0.2866
27708SOL     OW89981  10.178   9.596   4.769  0.4090 -0.0085  0.5609
27708SOL    HW189982  10.175   9.525   4.833  2.0490 -0.2404  0.4275
27708SOL    HW289983  10.242   9.567   4.704  0.1339  1.0275 -0.1970
27709SOL     OW89984   2.104   2.196  10.365 -0.0656  0.1212 -0.4889
27709SOL    HW189985   2.069   2.281  10.393  1.1293  0.0846  1.2032
27709SOL    HW289986   2.125   2.150  10.446  0.5236 -1.2924 -1.4017
27710SOL     OW89987   9.218   5.574   6.509 -0.1350  0.1221 -0.0222
27710SOL    HW189988   9.204   5.491   6.464 -0.2606 -0.2287  0.6521
27710SOL    HW289989   9.298   5.560   6.561 -0.5130  0.2103  0.5900
27711SOL     OW89990  11.493  12.519   2.517  0.2273 -0.6497 -0.2225
27711SOL    HW189991  11.527  12.589   2.573  2.6928  0.0710 -2.4550
27711SOL    HW289992  11.453  12.457   2.579  0.7770  1.1547  2.1051
27712SOL     OW89993   2.788  10.165   2.125  0.0830  0.1513 -0.7222
27712SOL    HW189994   2.766  10.081   2.164  0.8749  0.2860  0.0327
27712SOL    HW289995   2.783  10.228   2.198  2.8931  0.1961 -0.4664
27713SOL     OW89996   8.237   7.381  10.748  0.0016 -0.3472 -0.6391
27713SOL    HW189997   8.276   7.307  10.702  0.2615 -0.4779 -0.2140
27713SOL    HW289998   8.150   7.350  10.774 -0.3319 -0.1074 -1.4552
27714SOL     OW89999  12.392  10.361   4.448 -0.0398 -0.1074  0.3247
27714SOL    HW190000  12.319  10.354   4.508 -0.1353  0.7311  0.3276
27714SOL    HW290001  12.371  10.302   4.376 -1.3339  1.0284 -0.2746
27715SOL     OW90002   8.171  11.093   8.695  0.5614 -0.4050  0.3922
27715SOL    HW190003   8.078  11.075   8.707  0.3897 -0.6940 -1.1452
27715SOL    HW290004   8.182  11.103   8.600  2.0334 -0.0004  0.5673
27716SOL     OW90005   4.118   5.567   7.249 -0.0562 -0.6705 -0.0395
27716SOL    HW190006   4.134   5.598   7.338 -1.3496  0.6850 -0.2394
27716SOL    HW290007   4.199   5.522   7.225  1.0774  0.6525  1.1155
27717SOL     OW90008   9.394   4.376   1.644  0.1106  0.1930 -0.2143
27717SOL    HW190009   9.388   4.450   1.583  1.2153  0.4662 -0.0108
27717SOL    HW290010   9.449   4.312   1.598  2.0841  0.9444  0.9881
27718SOL     OW90011   2.008  12.180  11.935  0.0262  0.0082  0.5218
27718SOL    HW190012   2.088  12.224  11.905  0.0361 -0.3497  0.0164
27718SOL    HW290013   1.951  12.251  11.963 -0.2641  0.4130 -1.0247
27719SOL     OW90014   8.758  12.011   8.447  0.2422 -0.1274 -0.1305
27719SOL    HW190015   8.688  11.964   8.493  0.0465  1.0868  0.8659
27719SOL    HW290016   8.711  12.067   8.385  0.4612 -0.9763 -1.1008
27720SOL     OW90017   5.410   4.841  10.384 -0.1826  0.5940 -0.2418
27720SOL    HW190018   5.475   4.902  10.418 -0.4861  0.1321  1.2585
27720SOL    HW290019   5.340   4.842  10.449 -0.4437 -0.9261 -0.4534
27721SOL     OW90020  11.135   2.641   2.805 -0.1280 -0.6280  0.1465
27721SOL    HW190021  11.197   2.683   2.746  0.8209 -2.5643 -0.3160
27721SOL    HW290022  11.084   2.582   2.749  0.1344 -1.7780  1.0808
27722SOL     OW90023   8.014   0.082   1.121  0.4982  0.9589 -0.3271
27722SOL    HW190024   8.040   0.043   1.205 -0.2684  1.3668  0.1087
27722SOL    HW290025   8.012   0.176   1.138 -0.2180  1.0020 -0.6459
27723SOL     OW90026  11.510   9.485   7.038 -0.1597  0.3683 -0.0317
27723SOL    HW190027  11.593   9.463   7.080  0.7046  2.5168 -0.5181
27723SOL    HW290028  11.527   9.478   6.945 -0.6305  0.5234 -0.1332
27724SOL     OW90029   4.554   6.081   3.492 -0.6920  0.0194 -0.7544
27724SOL    HW190030   4.642   6.069   3.528 -0.5698  2.6844  0.0660
27724SOL    HW290031   4.512   5.995   3.503  0.4072 -0.2536  2.9010
27725SOL     OW90032   3.796   3.742   9.530  0.2116  0.0017 -0.3796
27725SOL    HW190033   3.742   3.821   9.538  0.1360  0.1300 -1.7910
27725SOL    HW290034   3.744   3.684   9.474  1.5393  0.1622 -1.8361
27726SOL     OW90035  12.429   4.315   1.560  0.5265  0.2239 -0.1399
27726SOL    HW190036  12.455   4.363   1.482 -1.1446  0.0465 -0.8426
27726SOL    HW290037  12.335   4.300   1.549  0.1516  0.5605  2.0980
27727SOL     OW90038   6.382   2.386   1.380 -0.4020 -0.0459 -0.2491
27727SOL    HW190039   6.296   2.369   1.341 -0.7122  0.9883 -0.0353
27727SOL    HW290040   6.394   2.481   1.372  0.9135 -0.2257 -0.6615
27728SOL     OW90041  12.079   7.163   0.915 -0.3237  0.1691 -0.2130
27728SOL    HW190042  12.098   7.250   0.880 -3.1483  0.1671 -2.0900
27728SOL    HW290043  12.057   7.110   0.839 -1.4774 -1.3837  1.1114
27729SOL     OW90044   8.012   6.401   1.821 -0.2215 -0.0948 -0.4285
27729SOL    HW190045   8.095   6.436   1.788  0.1982 -2.0803 -1.6733
27729SOL    HW290046   7.945   6.438   1.764 -0.0215  0.3193 -0.3910
27730SOL     OW90047  12.310   1.176  11.816  0.4973 -0.1222  0.1630
27730SOL    HW190048  12.384   1.233  11.838  0.0746  2.2996 -3.7088
27730SOL    HW290049  12.233   1.224  11.847  0.3397 -0.6230  0.5543
27731SOL     OW90050   7.162  11.264   8.357 -0.4321 -0.5721 -0.6453
27731SOL    HW190051   7.155  11.223   8.443  0.5651  0.7052  0.0994
27731SOL    HW290052   7.184  11.193   8.297 -0.0367 -1.3117  0.3587
27732SOL     OW90053   6.307   4.491   1.160  0.2917  0.6603  0.2479
27732SOL    HW190054   6.367   4.516   1.231  0.0901 -1.6081  1.3174
27732SOL    HW290055   6.362   4.490   1.082  1.3886 -0.1477  0.9883
27733SOL     OW90056   1.777   4.749  12.522 -0.1548 -0.3300 -0.0119
27733SOL    HW190057   1.839   4.686  12.559 -2.2562 -2.0987  0.7165
27733SOL    HW290058   1.738   4.791  12.598  0.5016  1.1760 -0.4826
27734SOL     OW90059   5.954   7.446   8.072  0.0363  0.1342 -0.3302
27734SOL    HW190060   6.023   7.386   8.099 -0.6712 -0.5679 -0.0405
27734SOL    HW290061   5.907   7.400   8.003 -0.9900  0.0020  0.4273
27735SOL     OW90062   0.392   2.322   0.977  0.2627 -0.2757  0.2484
27735SOL    HW190063   0.466   2.353   0.925 -0.1036 -0.6919 -0.5331
27735SOL    HW290064   0.318   2.376   0.946 -0.1892 -1.2855 -0.4783
27736SOL     OW90065  11.079   1.464   8.730 -0.0617 -0.1947 -0.4621
27736SOL    HW190066  11.068   1.388   8.672 -0.5898 -0.4749 -0.0042
27736SOL    HW290067  11.087   1.538   8.670 -2.9119 -0.1485 -0.9659
27737SOL     OW90068   1.550   5.043   7.032  0.1686  0.8449  0.0865
27737SOL    HW190069   1.540   5.071   6.941  1.9806  2.8083  0.4260
27737SOL    HW290070   1.477   5.085   7.078 -1.5657 -1.2232 -0.5642
27738SOL     OW90071   5.941   3.447  10.993  0.5092  0.2670  0.2390
27738SOL    HW190072   5.888   3.399  10.929  1.3499 -0.3228 -0.0270
27738SOL    HW290073   5.962   3.383  11.061  0.7073  0.5450  0.4423
27739SOL     OW90074   2.574  11.912   0.282  0.6387 -0.2637 -0.5339
27739SOL    HW190075   2.573  11.930   0.376  1.4612  0.1110 -0.5887
27739SOL    HW290076   2.597  11.996   0.242  0.1498 -0.3875 -1.0817
27740SOL     OW90077   3.774   2.123  11.377  0.0892  0.0149 -0.2094
27740SOL    HW190078   3.730   2.107  11.294 -0.0734 -2.4815  0.2892
27740SOL    HW290079   3.752   2.048  11.431 -0.2476  1.8122  2.3309
27741SOL     OW90080   8.153   4.551   6.184  0.5462 -0.1802 -0.0757
27741SOL    HW190081   8.118   4.632   6.147  0.4521 -0.2161 -0.0667
27741SOL    HW290082   8.134   4.484   6.118 -0.4204 -0.4115  0.4119
27742SOL     OW90083   5.804   9.361   7.089  0.0063 -0.1712  0.3696
27742SOL    HW190084   5.758   9.345   7.172 -0.9265  1.6426  0.2595
27742SOL    HW290085   5.830   9.453   7.094 -0.6148  0.1608 -1.5970
27743SOL     OW90086   0.771   8.072   2.657 -0.8980  0.5828  0.4038
27743SOL    HW190087   0.707   8.143   2.664 -0.0436  1.2223  2.3723
27743SOL    HW290088   0.853   8.115   2.634 -0.8800 -0.0908 -0.8846
27744SOL     OW90089  10.398   7.352   4.218  0.4202 -0.7337  0.3061
27744SOL    HW190090  10.331   7.287   4.238 -0.9140  0.0734 -1.4190
27744SOL    HW290091  10.354   7.436   4.225  1.6065 -0.0930  0.4386
27745SOL     OW90092  12.194   0.340   2.475  0.1392  0.1554 -0.1276
27745SOL    HW190093  12.262   0.293   2.522  0.3560  1.1128  0.5439
27745SOL    HW290094  12.113   0.293   2.498  0.4229 -0.2870 -0.0101
27746SOL     OW90095   7.350  11.461   8.228 -0.0035  0.1101  0.4297
27746SOL    HW190096   7.274  11.431   8.278 -1.8055  1.2297 -1.4875
27746SOL    HW290097   7.372  11.388   8.170 -1.3561  0.6850 -0.8686
27747SOL     OW90098  11.418   9.201   4.182  0.2263  0.4593  0.2123
27747SOL    HW190099  11.501   9.192   4.228  0.3879  0.0332 -0.1580
27747SOL    HW290100  11.415   9.294   4.158 -0.0288  0.7570  1.3822
27748SOL     OW90101  12.499  11.059   3.926  0.1528 -0.0053  0.5831
27748SOL    HW190102  12.443  11.123   3.882  0.3968 -1.6542 -2.4342
27748SOL    HW290103  12.561  11.032   3.858  0.5817 -2.8058  1.9458
27749SOL     OW90104   0.747   7.882   8.088 -0.0575  0.0083  0.0483
27749SOL    HW190105   0.695   7.857   8.165 -0.2466  0.3199  0.0241
27749SOL    HW290106   0.685   7.880   8.016 -0.2082  1.0464  0.1283
27750SOL     OW90107   2.059   8.171   6.272  0.2694  0.3413  0.3737
27750SOL    HW190108   2.036   8.133   6.187 -0.9340 -1.1827  1.3237
27750SOL    HW290109   2.104   8.253   6.250  2.0302 -1.0788 -1.7629
27751SOL     OW90110   0.818   8.247   3.089  0.2586  0.0741  0.1757
27751SOL    HW190111   0.832   8.329   3.042  0.2412 -0.6344 -1.1167
27751SOL    HW290112   0.877   8.185   3.046  1.1763 -0.3183  1.9261
27752SOL     OW90113   6.437   6.851  10.507  0.0986  0.2034  0.0284
27752SOL    HW190114   6.449   6.939  10.545  0.5461  0.5733 -0.9388
27752SOL    HW290115   6.401   6.867  10.420  1.6253 -0.4701 -0.7743
27753SOL     OW90116   7.232  12.523   2.366  0.0609 -0.1469 -0.2315
27753SOL    HW190117   7.177  12.556   2.437  1.7819 -0.6675  1.4202
27753SOL    HW290118   7.172  12.513   2.292 -1.6931  0.9152  0.9727
27754SOL     OW90119   5.029   8.526  11.119 -0.1308  0.6930  0.3534
27754SOL    HW190120   5.030   8.474  11.039  0.5030 -1.0442  1.4292
27754SOL    HW290121   4.939   8.519  11.152 -0.0361  0.1921  0.5211
27755SOL     OW90122   4.476   2.094   4.277  0.0112  0.2325  0.3790
27755SOL    HW190123   4.437   2.181   4.265  0.3041  0.4049  0.6745
27755SOL    HW290124   4.449   2.045   4.199 -1.2283  0.1933  0.8048
27756SOL     OW90125   2.608   0.059   6.284 -0.1742  0.3338 -0.6825
27756SOL    HW190126   2.533   0.086   6.231  0.1005  0.6733 -0.9098
27756SOL    HW290127   2.595  -0.034   6.300  0.5553 -0.2008 -2.7601
27757SOL     OW90128   0.629  12.414   0.711 -0.1607  0.2490 -0.0377
27757SOL    HW190129   0.706  12.358   0.717 -1.2938 -1.4244 -0.3981
27757SOL    HW290130   0.580  12.380   0.636 -0.3924  2.4073 -0.9242
27758SOL     OW90131  10.644   1.270  10.368  0.1727 -0.0865  0.4798
27758SOL    HW190132  10.639   1.231  10.455  0.1309 -0.7487  0.1943
27758SOL    HW290133  10.693   1.206  10.316 -0.1011  0.1323 -0.0667
27759SOL     OW90134   6.547   1.274   6.367 -0.1327 -0.0230 -0.0228
27759SOL    HW190135   6.486   1.231   6.425  1.0352 -0.4395  0.9403
27759SOL    HW290136   6.493   1.336   6.316 -1.6193 -1.6797 -0.5515
27760SOL     OW90137  10.566   6.822   4.446  0.5513  0.0727 -0.1054
27760SOL    HW190138  10.483   6.801   4.403 -1.8556  0.9380  3.6663
27760SOL    HW290139  10.592   6.906   4.408 -2.0835  1.3877  0.7662
27761SOL     OW90140   2.642  10.375  10.506  0.0606 -0.4901 -0.6212
27761SOL    HW190141   2.578  10.378  10.578  0.2912 -3.1862 -0.1753
27761SOL    HW290142   2.707  10.311  10.536  3.0233  2.1004 -1.0760
27762SOL     OW90143   6.855   8.034   6.772 -0.3663  0.7099 -1.1096
27762SOL    HW190144   6.842   8.125   6.799  1.5513  0.7521 -0.1253
27762SOL    HW290145   6.933   8.037   6.717  0.0647 -0.4120 -0.5778
27763SOL     OW90146   3.119   3.896   7.152 -0.3911  0.0848  0.2758
27763SOL    HW190147   3.144   3.976   7.105  1.0459 -1.3896 -1.6474
27763SOL    HW290148   3.057   3.853   7.094 -1.4389 -0.0529  1.4635
27764SOL     OW90149   0.813  11.370   1.660 -0.2445  0.4581 -0.0420
27764SOL    HW190150   0.771  11.286   1.680 -1.4575  0.5026 -2.1116
27764SOL    HW290151   0.877  11.350   1.591 -0.3155  1.1609 -0.3250
27765SOL     OW90152   2.470  12.429  10.783 -0.2623 -0.2243 -0.8866
27765SOL    HW190153   2.484  12.445  10.689 -0.3808 -0.3557 -0.9273
27765SOL    HW290154   2.555  12.448  10.823  0.0125 -0.9414 -1.1199
27766SOL     OW90155  11.941   3.591   4.122  0.3147 -0.1447  0.2490
27766SOL    HW190156  11.894   3.657   4.072  1.7061  0.0650 -0.8552
27766SOL    HW290157  11.952   3.629   4.209 -0.8406  0.1193  0.2886
27767SOL     OW90158   5.886   8.267   7.557 -0.5218 -0.3611  0.5912
27767SOL    HW190159   5.834   8.193   7.525  1.3501 -1.0111 -1.1433
27767SOL    HW290160   5.917   8.238   7.643 -0.4758 -1.2661  0.2855
27768SOL     OW90161  11.825   0.205   0.003  0.5169 -0.0505 -0.1818
27768SOL    HW190162  11.894   0.172  -0.054  1.0997 -2.3996  1.7202
27768SOL    HW290163  11.763   0.132   0.011  0.8043 -0.0946  2.6312
27769SOL     OW90164   6.414   1.964   9.484 -0.2577 -0.2364 -0.0564
27769SOL    HW190165   6.435   2.053   9.513 -1.4434 -0.6536  2.2975
27769SOL    HW290166   6.476   1.909   9.530 -0.4207 -0.7421 -0.4358
27770SOL     OW90167   2.935   0.928   1.169  0.4682  0.3434 -0.3179
27770SOL    HW190168   2.860   0.986   1.177 -0.3303 -0.7672  0.5640
27770SOL    HW290169   2.949   0.919   1.074  0.2135  1.4415 -0.4676
27771SOL     OW90170   8.917   4.540   0.663 -0.7831 -0.3184  0.5745
27771SOL    HW190171   8.887   4.612   0.607 -0.4246 -0.3405  0.3483
27771SOL    HW290172   8.842   4.481   0.669 -0.5831 -0.7123 -0.5351
27772SOL     OW90173   1.974   6.907   7.996  0.2365  0.1981 -0.3722
27772SOL    HW190174   1.925   6.960   7.933 -0.8419 -0.8473 -0.4504
27772SOL    HW290175   2.036   6.857   7.942 -2.0709 -2.2437 -0.9537
27773SOL     OW90176  11.267   5.901   2.694  0.5233 -0.3000 -0.2934
27773SOL    HW190177  11.183   5.869   2.661  0.4152 -1.4682  1.0140
27773SOL    HW290178  11.245   5.940   2.779  0.9697  1.5192 -0.9722
27774SOL     OW90179   3.954   1.250   6.040  0.1552 -0.3852 -0.1637
27774SOL    HW190180   3.909   1.184   6.092 -1.0183 -1.1544 -2.0577
27774SOL    HW290181   3.889   1.319   6.026  0.5707 -0.0183 -0.3344
27775SOL     OW90182  10.468   7.107  12.559 -0.2286 -0.7130 -0.2520
27775SOL    HW190183  10.448   7.199  12.544 -0.1140 -0.8045 -1.0661
27775SOL    HW290184  10.383   7.064  12.564 -0.2975 -0.7958 -1.5946
27776SOL     OW90185   4.689   0.857   6.979 -0.5379  0.1650  0.0283
27776SOL    HW190186   4.712   0.797   6.908 -0.1334 -0.3863  0.6105
27776SOL    HW290187   4.729   0.818   7.057 -0.8569  0.8320  0.5357
27777SOL     OW90188   1.796  12.395   2.170 -0.4794  0.0027 -0.8133
27777SOL    HW190189   1.795  12.445   2.251 -2.3418 -0.6996 -0.3459
27777SOL    HW290190   1.775  12.459   2.102 -1.3558  0.1669 -0.4069
27778SOL     OW90191   8.087   2.664   5.380 -0.1604 -0.1180 -0.2862
27778SOL    HW190192   8.180   2.683   5.390  0.1293 -1.3637 -0.4867
27778SOL    HW290193   8.044   2.720   5.445  0.5351  1.8706 -1.4631
27779SOL     OW90194   8.877   1.880   1.078 -0.0512  0.0854  0.1729
27779SOL    HW190195   8.896   1.974   1.082  1.7566 -0.1233 -1.9243
27779SOL    HW290196   8.833   1.861   1.162  1.5466  2.3548  1.6419
27780SOL     OW90197  12.402   1.050   9.614 -0.4395  0.0047  0.1350
27780SOL    HW190198  12.378   0.997   9.690  0.2009 -0.7850 -0.2005
27780SOL    HW290199  12.486   1.014   9.585 -0.3930  0.6763 -0.6013
27781SOL     OW90200  10.461   0.944   2.449  0.2895 -0.1094 -0.6866
27781SOL    HW190201  10.508   0.920   2.528 -1.7489 -1.5761  0.1716
27781SOL    HW290202  10.373   0.908   2.461 -0.0443 -0.5941 -3.7251
27782SOL     OW90203   5.080   8.002   0.645  0.4965  0.2121  0.1092
27782SOL    HW190204   5.116   8.076   0.595  1.4379 -1.7678 -2.4184
27782SOL    HW290205   4.985   8.013   0.638  0.6080  1.5739  0.4454
27783SOL     OW90206   6.631   1.946  11.047 -0.0921 -0.4212 -0.7533
27783SOL    HW190207   6.686   1.975  10.974  1.5786 -0.7118  0.3295
27783SOL    HW290208   6.554   2.003  11.044  1.0631  1.1830 -1.2935
27784SOL     OW90209   0.302   1.463   8.695  0.5615  0.1973 -0.3761
27784SOL    HW190210   0.292   1.555   8.672 -0.2609  0.3320  0.4576
27784SOL    HW290211   0.314   1.418   8.611  0.4489  0.9945 -0.8276
27785SOL     OW90212   7.863   5.031   9.262 -0.0755 -0.0891 -0.6616
27785SOL    HW190213   7.924   5.010   9.192 -0.3565  1.7485 -1.5133
27785SOL    HW290214   7.882   4.967   9.330  1.1375 -1.0680 -1.8629
27786SOL     OW90215   6.995   2.087   1.905  0.5923  0.1995 -0.5047
27786SOL    HW190216   6.999   2.070   1.999  1.2589 -0.3129 -0.6201
27786SOL    HW290217   7.050   2.019   1.866 -0.2756 -0.0555 -1.3211
27787SOL     OW90218   9.337   5.390  11.326  0.3820  0.1204 -0.1211
27787SOL    HW190219   9.345   5.351  11.413 -0.6042 -1.9789 -0.9056
27787SOL    HW290220   9.420   5.436  11.312  1.6640 -1.7591  0.8933
27788SOL     OW90221  11.290   8.281   9.826 -0.1166  0.5782  0.7523
27788SOL    HW190222  11.376   8.270   9.786 -1.4128 -3.5772 -1.4675
27788SOL    HW290223  11.293   8.225   9.904 -0.9123  0.0510  0.4154
27789SOL     OW90224   3.468   9.821   4.200  0.4351  0.5703  0.2858
27789SOL    HW190225   3.453   9.880   4.274 -0.4410 -0.4122  0.9111
27789SOL    HW290226   3.444   9.872   4.123 -2.3943  0.4103  0.9531
27790SOL     OW90227   6.751   1.586   3.694 -0.0382 -0.1275  0.2641
27790SOL    HW190228   6.668   1.537   3.689 -0.0555 -0.0322 -0.4688
27790SOL    HW290229   6.735   1.652   3.762 -0.0201 -1.1053  1.2505
27791SOL     OW90230   5.550  10.571  11.306  0.3327 -0.3294 -0.2450
27791SOL    HW190231   5.520  10.627  11.235 -0.0097 -0.6603 -0.3650
27791SOL    HW290232   5.472  10.555  11.359  1.1205  2.3602  1.9572
27792SOL     OW90233   4.667   8.340  10.436  0.0846 -0.5028 -0.1849
27792SOL    HW190234   4.627   8.346  10.349  0.7243 -1.8501 -0.5960
27792SOL    HW290235   4.676   8.431  10.464  0.8328  0.0260 -1.9872
27793SOL     OW90236   8.166   2.198  10.094 -0.2175  0.1954  0.4416
27793SOL    HW190237   8.105   2.236  10.157  0.6308 -1.9311  2.7175
27793SOL    HW290238   8.250   2.237  10.116 -0.4266  2.1271 -1.8269
27794SOL     OW90239  11.102  11.041  12.057 -0.1963  0.5082  0.1884
27794SOL    HW190240  11.010  11.042  12.033 -0.0299 -2.4711 -1.0851
27794SOL    HW290241  11.149  11.051  11.974  0.6581  1.8138  0.7963
27795SOL     OW90242   0.650   7.857   1.615 -0.2245 -0.1661 -0.3715
27795SOL    HW190243   0.688   7.814   1.691 -0.0064  0.3980 -0.1550
27795SOL    HW290244   0.561   7.878   1.641  0.6876  2.7208  0.8936
27796SOL     OW90245   1.762   0.708   8.667 -0.4848 -0.1809 -0.3710
27796SOL    HW190246   1.676   0.680   8.636 -0.1830  0.9251 -2.3858
27796SOL    HW290247   1.753   0.801   8.685 -0.3299 -0.5382  1.9759
27797SOL     OW90248   2.722   4.055   0.635  0.2052  0.1610 -0.0776
27797SOL    HW190249   2.747   4.009   0.555 -0.5820  0.6078 -0.5859
27797SOL    HW290250   2.693   4.142   0.606 -1.5355 -0.1787  0.5079
27798SOL     OW90251   2.698   2.834  10.890 -0.8513 -0.5671  0.2986
27798SOL    HW190252   2.757   2.814  10.818  1.8313 -0.3226  2.2515
27798SOL    HW290253   2.653   2.914  10.863 -0.3835 -0.8131 -1.3183
27799SOL     OW90254   5.829   4.303   6.108 -0.1460  0.0452 -0.5843
27799SOL    HW190255   5.844   4.332   6.018 -0.5581  0.4876 -0.5141
27799SOL    HW290256   5.736   4.279   6.110 -0.2428  0.4522 -0.1641
27800SOL     OW90257   1.714   9.382   2.545  0.2038  0.0603 -0.4410
27800SOL    HW190258   1.749   9.305   2.589  2.2873  1.1272 -0.1204
27800SOL    HW290259   1.698   9.353   2.455  1.3200 -0.6663 -0.4263
27801SOL     OW90260   2.442   9.558   7.245 -0.0058 -0.2245 -0.6684
27801SOL    HW190261   2.401   9.633   7.288 -1.0481 -2.0252  1.6866
27801SOL    HW290262   2.517   9.536   7.300  2.0304  0.7147 -2.8954
27802SOL     OW90263  11.646   8.969   0.812 -0.0596 -0.2048 -0.2568
27802SOL    HW190264  11.649   8.908   0.886 -0.5904 -1.2395 -1.0654
27802SOL    HW290265  11.587   8.928   0.749 -0.2634  1.0570 -0.9177
27803SOL     OW90266  10.635   4.080   8.148 -0.1065 -0.0588 -0.1344
27803SOL    HW190267  10.589   4.012   8.099 -0.1805  0.5449 -0.9244
27803SOL    HW290268  10.568   4.118   8.206 -0.4227  0.2935 -0.7212
27804SOL     OW90269   7.501   7.117   6.717  0.1259 -0.6327 -0.2004
27804SOL    HW190270   7.481   7.039   6.665  1.2330 -0.8581 -0.3023
27804SOL    HW290271   7.574   7.158   6.671  1.5795 -1.2007  1.5249
27805SOL     OW90272   7.424   3.641  12.196  0.2536  0.3742  0.3578
27805SOL    HW190273   7.373   3.561  12.191 -0.2365  0.7641 -1.6576
27805SOL    HW290274   7.508   3.614  12.234 -0.5873 -0.7014  1.5294
27806SOL     OW90275   0.457   1.784   8.357  0.1029  0.6896  0.4170
27806SOL    HW190276   0.481   1.875   8.374 -0.2971  0.5409  1.9141
27806SOL    HW290277   0.539   1.735   8.361  0.4365  1.0649 -1.1940
27807SOL     OW90278   7.670   1.851  11.623 -0.0664  0.5838  0.3469
27807SOL    HW190279   7.759   1.863  11.589  0.0462  0.3655  0.5618
27807SOL    HW290280   7.655   1.928  11.678  0.7041 -0.2701  1.8289
27808SOL     OW90281   3.947   3.143   3.401  0.3358  0.0712  0.7992
27808SOL    HW190282   4.018   3.178   3.346  0.7476 -0.8122  0.7553
27808SOL    HW290283   3.870   3.145   3.344  0.3782  0.7779  0.7561
27809SOL     OW90284   2.815   3.448   5.915  0.4153  0.7444  0.0819
27809SOL    HW190285   2.862   3.398   5.982  0.1976  0.9199  0.3687
27809SOL    HW290286   2.792   3.383   5.848 -0.8797  0.2014  0.9929
27810SOL     OW90287   4.047  10.991   5.148  0.0385 -0.5085  0.1797
27810SOL    HW190288   4.136  10.998   5.183 -0.2206 -1.6115  1.1242
27810SOL    HW290289   4.058  10.980   5.054  0.8700 -0.1346  0.2289
27811SOL     OW90290   0.850   6.471   6.959  0.2771  0.9404  0.4634
27811SOL    HW190291   0.862   6.460   6.864 -0.6423  1.7947  0.2221
27811SOL    HW290292   0.938   6.466   6.995  0.6318  0.4718 -0.4241
27812SOL     OW90293   4.786  10.931   6.079  0.0426 -0.3861 -0.6711
27812SOL    HW190294   4.815  11.021   6.094  2.0752 -1.1520  0.4345
27812SOL    HW290295   4.736  10.908   6.157  2.2743 -1.1863  0.6223
27813SOL     OW90296   9.783   2.581  10.649 -0.3644 -0.1633  0.1781
27813SOL    HW190297   9.758   2.591  10.557 -0.2617 -1.4832 -0.0183
27813SOL    HW290298   9.715   2.525  10.686  1.0908 -2.0604  0.1599
27814SOL     OW90299   6.740  11.427   4.214  0.5328  0.3268  0.4094
27814SOL    HW190300   6.676  11.358   4.230  0.9823  0.2000  1.7776
27814SOL    HW290301   6.728  11.489   4.286  0.2887  1.5780 -0.6851
27815SOL     OW90302   6.256   0.606   9.998 -0.1318 -0.4320  0.3764
27815SOL    HW190303   6.256   0.530   9.939 -0.8121 -0.7132  0.7267
27815SOL    HW290304   6.348   0.633  10.003  0.0914 -1.1308  0.1127
27816SOL     OW90305   5.293  11.502   9.829 -0.2378 -0.4441  0.2627
27816SOL    HW190306   5.210  11.463   9.804 -1.3714  0.0700  2.8795
27816SOL    HW290307   5.299  11.582   9.777 -1.3681 -0.5043  0.0246
27817SOL     OW90308   6.419   4.197   4.279 -0.5588 -0.1352  0.3183
27817SOL    HW190309   6.390   4.288   4.290  0.3175 -0.0132  1.9978
27817SOL    HW290310   6.507   4.204   4.242 -0.0833 -0.2424  1.3994
27818SOL     OW90311   2.945   2.822  10.697  0.2902 -0.1682  0.2971
27818SOL    HW190312   2.931   2.728  10.695 -1.0248  0.0059 -1.6493
27818SOL    HW290313   2.976   2.844  10.609 -0.3521  1.3170  0.4020
27819SOL     OW90314   9.453   0.298   5.491 -0.0534 -0.2034 -0.0119
27819SOL    HW190315   9.362   0.270   5.506  0.8488 -2.0671  2.6914
27819SOL    HW290316   9.477   0.256   5.408 -1.4784 -0.0447 -0.5442
27820SOL     OW90317  10.233   0.135  10.060 -0.0325 -0.2252  0.7829
27820SOL    HW190318  10.325   0.138  10.035 -0.1217  1.5256  0.5374
27820SOL    HW290319  10.232   0.156  10.153 -0.2186  0.2881  0.6672
27821SOL     OW90320   7.956   9.176   5.668  0.1157 -0.1987  0.5243
27821SOL    HW190321   8.000   9.098   5.635 -1.4365 -0.1480 -1.8604
27821SOL    HW290322   8.003   9.249   5.629 -2.4283 -0.1491 -2.9591
27822SOL     OW90323   3.145  12.349   5.805 -0.4136  0.0374  0.2280
27822SOL    HW190324   3.133  12.254   5.795 -0.1144  0.0077  0.1404
27822SOL    HW290325   3.074  12.387   5.753 -1.2210 -0.1370  1.1685
27823SOL     OW90326   8.824   2.270   8.182 -0.0334 -0.0240  0.0217
27823SOL    HW190327   8.735   2.291   8.155 -0.1724 -1.4291 -0.6520
27823SOL    HW290328   8.841   2.184   8.145  0.8689 -0.6818  1.8696
27824SOL     OW90329   9.732  12.206   2.845  0.2343 -0.3855 -0.3076
27824SOL    HW190330   9.679  12.203   2.765  1.0950 -1.5985 -0.8524
27824SOL    HW290331   9.728  12.117   2.879 -1.2504  0.4160  1.7861
27825SOL     OW90332   4.507  11.233   8.769 -0.4989  0.9884 -0.0089
27825SOL    HW190333   4.433  11.173   8.766  1.6852 -1.9661  0.1553
27825SOL    HW290334   4.543  11.230   8.680  0.2526  1.1996  0.2794
27826SOL     OW90335   1.273   6.435   0.601 -0.8092  0.4520 -0.1538
27826SOL    HW190336   1.281   6.355   0.549 -3.3835 -0.6742  0.9920
27826SOL    HW290337   1.230   6.497   0.541  1.2657  1.0863 -1.0709
27827SOL     OW90338   4.431  10.637   8.587  0.1700 -0.5428 -0.3323
27827SOL    HW190339   4.483  10.638   8.667  1.6014  1.1606 -1.2025
27827SOL    HW290340   4.341  10.625   8.616  0.5155  1.1995  1.6450
27828SOL     OW90341  10.438   6.525   5.629  0.0535 -0.2744  0.7186
27828SOL    HW190342  10.467   6.566   5.548  1.1212 -0.7050  0.8631
27828SOL    HW290343  10.486   6.442   5.632 -0.7689 -0.7461  1.2717
27829SOL     OW90344   8.526   6.896   8.240  0.4172  0.2756 -0.4478
27829SOL    HW190345   8.456   6.961   8.246  1.8741  1.8045  1.0605
27829SOL    HW290346   8.577   6.922   8.164  2.0294  2.1092  1.1424
27830SOL     OW90347   3.421   7.663   8.851 -0.3088 -0.1379  0.0858
27830SOL    HW190348   3.387   7.673   8.940 -0.2473  1.5911 -0.0466
27830SOL    HW290349   3.373   7.589   8.815 -1.6350  0.2637  0.9570
27831SOL     OW90350   4.348   6.657   4.703  0.1521  0.0060  0.2233
27831SOL    HW190351   4.346   6.568   4.737 -0.2535  0.8174  2.5332
27831SOL    HW290352   4.421   6.658   4.641  1.3958 -1.4451  1.5978
27832SOL     OW90353  10.676   6.830   6.457  0.3961  0.2098  0.1956
27832SOL    HW190354  10.660   6.878   6.376 -0.7899 -0.0667  0.2390
27832SOL    HW290355  10.767   6.803   6.452  0.8625  1.7752 -0.1932
27833SOL     OW90356   6.985   8.552   1.999  0.6648 -0.3509  0.1871
27833SOL    HW190357   6.915   8.616   2.014  0.1311 -0.8068 -0.3101
27833SOL    HW290358   7.037   8.591   1.929 -0.7629 -1.2750 -1.4873
27834SOL     OW90359   6.524   1.984   1.394  0.0658  0.3472  0.1667
27834SOL    HW190360   6.551   2.071   1.422  0.8574 -0.5718  2.4776
27834SOL    HW290361   6.592   1.925   1.427 -0.4203 -1.1735 -1.3648
27835SOL     OW90362  12.547   1.600   4.427  0.0150 -0.3254  0.1194
27835SOL    HW190363  12.452   1.600   4.410 -0.0889 -2.3537  0.4810
27835SOL    HW290364  12.585   1.645   4.352 -1.2274  0.6565  0.0330
27836SOL     OW90365   3.752   3.104  11.129  0.0562  0.5563 -0.4319
27836SOL    HW190366   3.822   3.109  11.194 -0.6874  0.5024  0.3845
27836SOL    HW290367   3.676   3.142  11.172 -0.9746 -1.2451 -0.5586
27837SOL     OW90368   1.544   4.329   6.132  0.4653  0.6670  0.4997
27837SOL    HW190369   1.584   4.359   6.214 -0.3833 -0.1760  1.2528
27837SOL    HW290370   1.519   4.410   6.087  1.0893  1.1465  0.9948
27838SOL     OW90371   5.680   1.039   5.557 -0.2218  0.2843 -0.2962
27838SOL    HW190372   5.765   1.017   5.519  0.3578 -0.9025  1.5564
27838SOL    HW290373   5.618   0.983   5.511  0.4237 -0.8922  0.2190
27839SOL     OW90374  10.274   7.404   0.214 -0.1779 -0.1510  0.0204
27839SOL    HW190375  10.299   7.422   0.124 -0.4767  2.1368  0.3400
27839SOL    HW290376  10.187   7.443   0.223  0.0401  0.0736  1.4120
27840SOL     OW90377   5.820   6.263   4.071  0.7255  0.4920 -0.1746
27840SOL    HW190378   5.772   6.255   3.989  0.0185  2.1276  0.0400
27840SOL    HW290379   5.911   6.243   4.048  0.2819 -0.6598 -1.0039
27841SOL     OW90380  11.109   2.956   0.609 -0.2934  0.0594 -0.1617
27841SOL    HW190381  11.085   3.025   0.547  0.5110 -0.2695 -0.8500
27841SOL    HW290382  11.026   2.931   0.650 -0.5678  1.5978  0.2851
27842SOL     OW90383   0.633   6.339   9.240  0.3061  0.2783  0.3709
27842SOL    HW190384   0.630   6.305   9.330  0.1846 -1.8194 -0.3498
27842SOL    HW290385   0.724   6.327   9.213  0.6330  2.0444  0.5744
27843SOL     OW90386   5.742   0.315   7.146 -0.5345  0.4360 -0.2574
27843SOL    HW190387   5.714   0.400   7.111 -1.0649  0.6152  0.5602
27843SOL    HW290388   5.717   0.252   7.079 -0.2114  0.9193 -0.8371
27844SOL     OW90389   1.295   0.414   9.698  1.0989 -0.1292  0.0259
27844SOL    HW190390   1.321   0.427   9.789  0.6540 -1.6460  0.3908
27844SOL    HW290391   1.222   0.353   9.702  1.0472 -0.1856 -1.3451
27845SOL     OW90392   6.296   8.007   1.996 -0.0936  0.4587  0.7903
27845SOL    HW190393   6.342   8.051   1.924 -1.1903  1.2526  0.5418
27845SOL    HW290394   6.211   7.984   1.959  0.3956 -1.8193  0.9568
27846SOL     OW90395  10.918   4.079   5.504  0.3587  0.3184 -0.2212
27846SOL    HW190396  11.012   4.064   5.506  0.5079  0.9253  2.8550
27846SOL    HW290397  10.888   4.037   5.423  3.1250 -0.6510 -0.8381
27847SOL     OW90398   8.103   8.625   3.807  0.5575  0.0796 -0.4281
27847SOL    HW190399   8.036   8.690   3.785  2.9307  2.3836 -1.4692
27847SOL    HW290400   8.145   8.605   3.723  0.5265 -2.1775  0.0185
27848SOL     OW90401   0.490   8.257   3.051 -0.4635  0.5231 -0.1324
27848SOL    HW190402   0.506   8.328   3.113  1.4168  2.1544 -2.2979
27848SOL    HW290403   0.578   8.227   3.025 -1.1395  0.1164 -2.1605
27849SOL     OW90404   6.400  10.134   1.053  0.0860  0.4806 -0.3675
27849SOL    HW190405   6.471  10.187   1.089 -0.3219  0.0978  1.0777
27849SOL    HW290406   6.350  10.106   1.130 -1.1344  0.0380 -1.2925
27850SOL     OW90407   7.152   6.305  12.347  0.2942 -0.5383  0.2274
27850SOL    HW190408   7.163   6.354  12.266 -1.3896 -0.0700  0.2464
27850SOL    HW290409   7.166   6.369  12.416 -0.2684 -0.4609  0.2734
27851SOL     OW90410   6.183   4.942   0.310 -0.5694 -0.4035 -0.1292
27851SOL    HW190411   6.220   4.961   0.396 -0.1623 -0.1175 -0.3604
27851SOL    HW290412   6.112   4.881   0.327 -0.7886  0.0081  0.4605
27852SOL     OW90413   5.073   9.468   6.417  0.6810  0.3306 -0.3470
27852SOL    HW190414   5.148   9.446   6.471  0.3673  1.3190  0.5249
27852SOL    HW290415   5.001   9.479   6.480 -0.0527 -0.0114 -1.1104
27853SOL     OW90416   8.515   8.696   2.803  0.0392  0.4610 -0.3573
27853SOL    HW190417   8.564   8.625   2.845 -0.9731 -0.3466 -0.4659
27853SOL    HW290418   8.528   8.681   2.709 -2.0068 -1.0492 -0.4904
27854SOL     OW90419   6.491  11.329   8.349 -0.1939 -0.5919  0.0715
27854SOL    HW190420   6.436  11.325   8.270 -0.0502  0.3632 -0.0873
27854SOL    HW290421   6.580  11.341   8.316 -0.1765  0.1884  0.3770
27855SOL     OW90422   1.696   9.259   5.627  0.0184  0.3067  0.1402
27855SOL    HW190423   1.722   9.276   5.537  0.6201  0.2965  0.3063
27855SOL    HW290424   1.607   9.293   5.634 -1.1131 -2.1257 -1.2088
27856SOL     OW90425  12.263   6.884   9.344  0.2526  0.1417 -0.0771
27856SOL    HW190426  12.210   6.929   9.278  0.2309 -1.4048 -1.1729
27856SOL    HW290427  12.200   6.831   9.392  0.3155  1.0334  1.0435
27857SOL     OW90428  10.873  10.532   3.210 -0.1361 -0.0205  0.1320
27857SOL    HW190429  10.786  10.555   3.176  0.8410  0.5986 -2.1393
27857SOL    HW290430  10.864  10.442   3.239 -1.0350 -0.7786 -2.2118
27858SOL     OW90431   0.645   4.029   5.132  0.5210 -0.0910  0.6234
27858SOL    HW190432   0.614   3.941   5.153  1.8942 -0.5387  0.8869
27858SOL    HW290433   0.666   4.068   5.217 -0.8303  0.8213  0.5801
27859SOL     OW90434   5.844   1.645   3.466  0.5296  0.3117 -0.1929
27859SOL    HW190435   5.878   1.555   3.467 -1.4596 -0.5783 -2.8148
27859SOL    HW290436   5.852   1.674   3.557  0.0910 -2.9606  1.0254
27860SOL     OW90437  10.279   4.867   7.745 -0.2391  0.1841  0.2776
27860SOL    HW190438  10.353   4.861   7.685  0.1894  0.5608  0.7615
27860SOL    HW290439  10.318   4.869   7.832 -0.8506 -0.2565  0.5689
27861SOL     OW90440  12.269   9.711  12.278  0.0092  0.3545  0.7999
27861SOL    HW190441  12.297   9.798  12.308 -0.6022  0.2045  1.8327
27861SOL    HW290442  12.176   9.722  12.257  0.0978  0.1103  0.2472
27862SOL     OW90443   3.670   5.243   0.786 -0.0969 -0.2116 -0.1464
27862SOL    HW190444   3.602   5.180   0.813  0.7979 -1.3757 -0.5164
27862SOL    HW290445   3.648   5.266   0.696 -1.5107  1.5369  0.5785
27863SOL     OW90446   0.657   8.211   5.093  0.1465  0.3575  0.4089
27863SOL    HW190447   0.724   8.278   5.107 -0.3512  1.0581 -0.4420
27863SOL    HW290448   0.706   8.128   5.090  0.7062  0.6078  1.9686
27864SOL     OW90449  10.379  11.363   0.600 -0.8709  0.4443  0.2521
27864SOL    HW190450  10.338  11.326   0.678 -1.3977  0.5339  0.0213
27864SOL    HW290451  10.440  11.429   0.634  0.1519 -0.6871  0.6708
27865SOL     OW90452   6.629  10.481   9.243  0.0099 -0.0665  0.7627
27865SOL    HW190453   6.606  10.574   9.252  2.0988  0.5577  0.2702
27865SOL    HW290454   6.638  10.450   9.334  0.1031  0.4425  0.9337
27866SOL     OW90455   4.550   2.725   2.844  0.0905  0.0863 -0.1182
27866SOL    HW190456   4.577   2.635   2.826  0.8518  0.6263 -1.9188
27866SOL    HW290457   4.480   2.717   2.908  0.0776 -1.7960 -0.3236
27867SOL     OW90458   5.369   1.096   0.566 -0.0012  0.3818 -0.7204
27867SOL    HW190459   5.280   1.070   0.591  0.3490  0.0510  0.2055
27867SOL    HW290460   5.356   1.163   0.498 -0.9621  0.7529 -0.1915
27868SOL     OW90461   7.198   7.931   5.079 -0.1028  0.2809 -0.3148
27868SOL    HW190462   7.110   7.920   5.043 -0.2240  0.7504 -0.1676
27868SOL    HW290463   7.231   8.010   5.036  0.2822  0.0599 -0.4327
27869SOL     OW90464   4.196   2.690   3.417  0.4091 -0.3630 -0.5664
27869SOL    HW190465   4.209   2.719   3.327  1.6917  1.3459  0.1077
27869SOL    HW290466   4.120   2.632   3.413  0.4913 -0.4021 -2.7411
27870SOL     OW90467   9.749   6.308   9.580  0.0757 -0.2475 -0.3572
27870SOL    HW190468   9.766   6.322   9.673  1.8906  2.9960 -1.0305
27870SOL    HW290469   9.700   6.225   9.576 -1.1484  0.1182  3.5358
27871SOL     OW90470   7.020   0.143   3.732  0.0783  0.0987 -0.1726
27871SOL    HW190471   7.042   0.216   3.790 -0.0955  0.5922 -0.7142
27871SOL    HW290472   6.925   0.135   3.739 -0.1872  1.4078 -1.8143
27872SOL     OW90473  12.023   8.275   7.111 -0.4706  1.0793  0.4030
27872SOL    HW190474  12.075   8.279   7.030  1.9470 -1.8512  1.5987
27872SOL    HW290475  12.072   8.330   7.173 -1.0677  1.5076  0.5031
27873SOL     OW90476   8.171   2.896   9.302 -0.3371 -0.4764  0.3922
27873SOL    HW190477   8.162   2.975   9.356 -0.3463 -0.3101  0.1466
27873SOL    HW290478   8.250   2.912   9.250  0.1647 -0.9999  0.9659
27874SOL     OW90479   6.588   8.436   9.529 -0.1890  0.4618  0.2281
27874SOL    HW190480   6.681   8.415   9.534 -0.6414 -1.7774  0.4865
27874SOL    HW290481   6.553   8.413   9.615 -1.0159  1.0839  0.0712
27875SOL     OW90482  10.110   6.210   7.652  0.0465  0.5576  0.7705
27875SOL    HW190483  10.166   6.244   7.721  1.5515 -0.4480  0.0943
27875SOL    HW290484  10.157   6.229   7.571 -0.6396 -0.2123  0.1706
27876SOL     OW90485   5.393   6.220  11.795 -0.0925 -0.1776  0.2623
27876SOL    HW190486   5.415   6.313  11.798 -0.8264  0.0883 -1.6493
27876SOL    HW290487   5.298   6.217  11.785 -0.0214 -1.1135 -0.3267
27877SOL     OW90488   8.991   6.629   7.701  0.1231  0.3641 -0.3436
27877SOL    HW190489   9.071   6.589   7.668 -0.0783  1.2874 -2.1032
27877SOL    HW290490   9.021   6.700   7.758  0.5049 -0.4769  0.5271
27878SOL     OW90491   7.358   5.441   1.335  0.2708 -0.0256  0.0317
27878SOL    HW190492   7.336   5.522   1.383 -0.8292 -0.1546 -0.2320
27878SOL    HW290493   7.350   5.465   1.243 -0.9760 -0.6446 -0.0520
27879SOL     OW90494  10.476   4.187   6.115  0.6100  0.2167  0.2257
27879SOL    HW190495  10.532   4.209   6.189 -0.2993 -1.3013  1.4190
27879SOL    HW290496  10.531   4.133   6.058  0.7639 -0.1606  0.7268
27880SOL     OW90497  11.314  11.672   3.370 -0.1072 -0.2281  0.1643
27880SOL    HW190498  11.399  11.658   3.411  0.3697  1.1782 -0.2861
27880SOL    HW290499  11.316  11.618   3.291  0.5009  0.0246  0.0007
27881SOL     OW90500   3.490   3.370   9.279  0.4748  0.3272 -0.2541
27881SOL    HW190501   3.502   3.398   9.188  0.3135  2.8123  0.3978
27881SOL    HW290502   3.507   3.449   9.331 -0.3111 -0.7786  1.8296
27882SOL     OW90503   9.891   6.633   2.583  0.3809  0.5510 -0.0731
27882SOL    HW190504   9.862   6.714   2.625  0.9202  1.2547 -1.0196
27882SOL    HW290505   9.813   6.576   2.584 -0.3681  1.5461 -0.5076
27883SOL     OW90506  10.976   7.561  11.595 -0.3816  0.5029  0.4072
27883SOL    HW190507  11.002   7.594  11.509 -1.3437  1.0576  0.3148
27883SOL    HW290508  10.978   7.465  11.586  0.0975  0.5533 -0.0483
27884SOL     OW90509   6.047   1.722   4.516  0.3036 -0.2305 -0.0012
27884SOL    HW190510   6.066   1.756   4.428 -0.7166 -2.4772 -1.1595
27884SOL    HW290511   5.953   1.710   4.518  0.4196 -1.1521  1.0383
27885SOL     OW90512   5.186  10.850   3.014 -0.3736 -0.0988  0.1601
27885SOL    HW190513   5.114  10.898   2.974 -0.3177  0.5174  0.7818
27885SOL    HW290514   5.264  10.883   2.970 -0.5093 -1.3870 -1.1301
27886SOL     OW90515   6.982   2.196   8.953 -0.6128 -0.0569 -0.3142
27886SOL    HW190516   6.937   2.177   9.036  2.3390 -2.2214  0.9541
27886SOL    HW290517   7.018   2.283   8.965  0.6906 -0.7525  1.2208
27887SOL     OW90518   9.230   0.990   5.797  0.2745  0.5601  0.1525
27887SOL    HW190519   9.186   1.068   5.831 -0.9292 -0.5448  1.2304
27887SOL    HW290520   9.257   1.014   5.708  0.9508  2.5652  0.8476
27888SOL     OW90521   4.825   9.872   5.902 -0.2470 -0.1129 -0.6180
27888SOL    HW190522   4.833   9.833   5.815  0.9542  0.6120 -0.8513
27888SOL    HW290523   4.741   9.919   5.900 -0.6210 -0.7967 -1.0905
27889SOL     OW90524   2.936   8.915  12.426 -0.1715  0.0692  0.1032
27889SOL    HW190525   2.944   8.937  12.519 -1.7488  0.8182  0.0955
27889SOL    HW290526   2.998   8.974  12.383 -0.4105  0.6797  0.5726
27890SOL     OW90527   3.358   2.373  11.463  0.6295 -0.5891  0.0588
27890SOL    HW190528   3.406   2.299  11.428  1.3076  0.2410 -0.8167
27890SOL    HW290529   3.286   2.386  11.401  0.0465 -0.9968  0.6393
27891SOL     OW90530   7.268   3.434   1.600  0.3697 -0.6381 -0.2773
27891SOL    HW190531   7.206   3.465   1.534 -0.5108 -1.1535  0.2971
27891SOL    HW290532   7.214   3.391   1.666  1.1908  0.2087  0.9870
27892SOL     OW90533   9.974   6.829   5.590 -0.4488  0.5691 -0.1323
27892SOL    HW190534  10.019   6.872   5.517  0.6043 -0.3513 -0.0503
27892SOL    HW290535   9.888   6.871   5.593  0.6836  3.0806  0.2704
27893SOL     OW90536   9.341   7.517  10.814  0.0561 -0.4463 -0.4280
27893SOL    HW190537   9.267   7.475  10.772 -0.4064  0.1515 -0.2308
27893SOL    HW290538   9.302   7.587  10.866  0.7762  0.0353 -0.5203
27894SOL     OW90539   4.700   5.290   2.861  0.6883 -0.1839 -0.5533
27894SOL    HW190540   4.680   5.301   2.768 -0.1722 -0.7137 -0.4434
27894SOL    HW290541   4.620   5.317   2.906  0.1420 -2.4019 -0.0911
27895SOL     OW90542   5.296   6.699   4.871 -0.0950 -0.7327 -0.3867
27895SOL    HW190543   5.327   6.779   4.913 -1.8405 -0.3561  0.2682
27895SOL    HW290544   5.239   6.658   4.935 -4.1509  0.6457 -2.7383
27896SOL     OW90545   8.910   2.161   1.299 -0.1589  0.7612  0.3900
27896SOL    HW190546   8.847   2.158   1.227 -1.1359 -1.9164  1.2117
27896SOL    HW290547   8.991   2.192   1.259 -1.1255  1.0605 -1.4537
27897SOL     OW90548  11.779   1.384   0.875  0.0027 -0.3928  0.0471
27897SOL    HW190549  11.820   1.389   0.788  0.0552  1.3278  0.1333
27897SOL    HW290550  11.847   1.414   0.935 -0.7369  0.5964  0.4164
27898SOL     OW90551   6.753  10.301   7.570  0.3643  0.3923  0.7086
27898SOL    HW190552   6.737  10.376   7.627 -2.4182  0.5084 -0.0617
27898SOL    HW290553   6.772  10.229   7.630 -1.4953  0.7365  1.8110
27899SOL     OW90554   1.944  10.639   9.350 -0.2877  0.2673 -0.0659
27899SOL    HW190555   1.877  10.595   9.402 -1.0743  1.3991 -0.0894
27899SOL    HW290556   1.990  10.695   9.413  0.1438  0.0767 -0.2034
27900SOL     OW90557   4.217   6.676   9.634  0.4146 -0.2253 -0.0195
27900SOL    HW190558   4.222   6.633   9.549  0.6996  0.4946 -0.3795
27900SOL    HW290559   4.210   6.770   9.613  0.0048 -0.0729  0.7409
27901SOL     OW90560   9.678   7.920  11.539 -0.2632 -0.4659  0.4693
27901SOL    HW190561   9.720   7.913  11.625  1.4759  0.1844 -0.2898
27901SOL    HW290562   9.712   7.845  11.490 -1.0938 -0.7245  0.2817
27902SOL     OW90563  10.248  11.173   2.184 -0.3184  0.0667  0.0263
27902SOL    HW190564  10.206  11.092   2.156  1.4589 -0.3161 -1.7991
27902SOL    HW290565  10.282  11.153   2.271  0.3803 -1.3008 -0.5264
27903SOL     OW90566   5.112   3.914   3.611 -0.1095  0.1039  0.2994
27903SOL    HW190567   5.127   3.986   3.672 -0.8135 -0.4992  1.2028
27903SOL    HW290568   5.111   3.835   3.666 -0.5762 -0.4726 -0.5074
27904SOL     OW90569   7.241   2.970   0.775 -0.1631 -0.1347  0.0457
27904SOL    HW190570   7.326   2.985   0.817  0.3353 -1.1711 -0.5494
27904SOL    HW290571   7.192   2.918   0.839 -0.2953  0.3079  0.3128
27905SOL     OW90572   3.953   8.536   1.843 -0.0304 -0.8955  0.3210
27905SOL    HW190573   4.003   8.500   1.916 -1.5156 -1.0627  1.3251
27905SOL    HW290574   3.905   8.610   1.881 -1.7488 -1.7039 -0.1384
27906SOL     OW90575   4.443   7.125   7.904  0.1931  1.2133 -0.6571
27906SOL    HW190576   4.529   7.164   7.889  0.6868  0.8357  1.0357
27906SOL    HW290577   4.382   7.198   7.900  1.0148  2.1070  1.6452
27907SOL     OW90578   8.402   9.071   5.367 -0.3629 -0.0473 -0.0759
27907SOL    HW190579   8.432   9.014   5.438 -0.6368 -2.5817 -1.8217
27907SOL    HW290580   8.373   9.151   5.410  0.7501 -0.9139  2.4882
27908SOL     OW90581  11.670   7.059  11.610  0.4980 -0.0200  0.3654
27908SOL    HW190582  11.608   7.102  11.551  1.5596 -0.0279 -0.7806
27908SOL    HW290583  11.746   7.118  11.612  1.8900 -1.6619 -1.0494
27909SOL     OW90584   5.730   7.097   2.379  0.2049 -0.2199 -0.2802
27909SOL    HW190585   5.708   7.059   2.294 -0.6305  1.1826 -0.7275
27909SOL    HW290586   5.646   7.124   2.416  0.6389 -0.0923  0.6504
27910SOL     OW90587   0.352   4.807   0.365 -0.9939 -0.2732 -0.4352
27910SOL    HW190588   0.336   4.714   0.379  1.1974 -0.4411  1.4576
27910SOL    HW290589   0.431   4.810   0.312  0.8143  0.4209  2.1251
27911SOL     OW90590   5.429   1.566   2.605  0.4374  0.4096  0.0887
27911SOL    HW190591   5.387   1.548   2.689 -1.1813 -1.2112 -1.0043
27911SOL    HW290592   5.382   1.642   2.571 -0.9064 -0.6717 -0.5872
27912SOL     OW90593  11.709   0.415   2.424 -0.4844 -0.0949  0.1943
27912SOL    HW190594  11.638   0.438   2.483  0.4667 -0.0228  1.3339
27912SOL    HW290595  11.772   0.487   2.433  1.0401 -1.5007  1.3603
27913SOL     OW90596   2.897   3.710   1.109  0.4800  0.0165 -0.1697
27913SOL    HW190597   2.891   3.773   1.181  0.8503 -1.2176  0.9636
27913SOL    HW290598   2.841   3.638   1.135  1.6519 -1.0427 -0.4688
27914SOL     OW90599   5.716   5.116   1.974  0.0936 -0.3473  0.1361
27914SOL    HW190600   5.810   5.115   1.958  0.2529  3.9059 -0.4425
27914SOL    HW290601   5.677   5.086   1.891  0.9971  0.3917 -0.5858
27915SOL     OW90602  12.226   2.847   6.363 -0.1763 -0.2438  0.7155
27915SOL    HW190603  12.243   2.892   6.447 -2.3563 -1.1573  1.7147
27915SOL    HW290604  12.139   2.809   6.373 -0.1723 -1.0634 -1.7134
27916SOL     OW90605   5.196   4.476  11.029 -0.0615  0.1528 -0.3599
27916SOL    HW190606   5.144   4.436  11.099  1.9998 -1.0458  0.5854
27916SOL    HW290607   5.237   4.552  11.070 -0.3115  0.5531 -0.8346
27917SOL     OW90608   8.050   7.475   2.468  0.1306 -0.6888 -0.8573
27917SOL    HW190609   7.970   7.424   2.454  0.4622 -1.5164  0.2032
27917SOL    HW290610   8.021   7.566   2.467 -1.0101 -1.0118  0.5861
27918SOL     OW90611   1.536   8.003   4.261  0.0056 -0.0102 -0.0494
27918SOL    HW190612   1.555   7.921   4.307  3.8254 -0.4948 -2.0888
27918SOL    HW290613   1.555   8.071   4.324 -1.2099 -0.6105  1.0212
27919SOL     OW90614   1.071   7.798   8.459  0.3578 -0.4356  0.0438
27919SOL    HW190615   1.059   7.792   8.364 -1.0733  0.9446  0.0987
27919SOL    HW290616   1.068   7.707   8.489  2.0443 -1.0016 -1.3203
27920SOL     OW90617   5.746  10.312   9.956  0.3580  0.4832 -0.0736
27920SOL    HW190618   5.806  10.238   9.948  3.1342  2.7137 -1.3347
27920SOL    HW290619   5.695  10.310   9.875  1.0002  0.4270 -0.4831
27921SOL     OW90620   4.823   8.778   2.454  0.1940  0.2614  0.2481
27921SOL    HW190621   4.809   8.684   2.443  1.5326 -0.1872  1.9145
27921SOL    HW290622   4.741   8.811   2.491  0.2813 -0.5877  1.2480
27922SOL     OW90623   3.572   4.989   5.858  0.2139  0.2435 -0.0246
27922SOL    HW190624   3.502   4.994   5.793  1.3961 -0.1954 -1.3735
27922SOL    HW290625   3.563   5.070   5.909 -0.8819  0.4825 -0.5618
27923SOL     OW90626   9.346   3.719   9.681  0.1558 -0.5049 -0.2546
27923SOL    HW190627   9.415   3.654   9.671 -0.7914 -1.6773  0.6365
27923SOL    HW290628   9.368   3.766   9.761  0.8458  0.3134 -0.9045
27924SOL     OW90629  12.361   3.632   9.952  0.2907  0.5820  0.0998
27924SOL    HW190630  12.456   3.641   9.956  0.4366  0.7384 -2.2701
27924SOL    HW290631  12.342   3.555  10.005  1.8491  0.0484 -0.0702
27925SOL     OW90632   9.827   6.862   1.954  0.7042 -0.1204 -0.9951
27925SOL    HW190633   9.901   6.821   1.910  1.3899 -0.2598  0.2228
27925SOL    HW290634   9.779   6.789   1.993  0.4843  0.0363 -0.9724
27926SOL     OW90635   7.945   1.448   3.788 -0.0682 -0.3544  0.6179
27926SOL    HW190636   7.945   1.534   3.745  1.4235 -0.4369  0.4031
27926SOL    HW290637   8.034   1.438   3.822  0.3050 -2.5158 -0.8101
27927SOL     OW90638   9.695   8.320   1.780  0.0085 -0.0230 -0.0515
27927SOL    HW190639   9.621   8.292   1.833  0.4597  0.8393  1.0743
27927SOL    HW290640   9.751   8.243   1.773 -0.5375 -0.4144 -0.1151
27928SOL     OW90641  10.266   5.892   1.555 -0.0800  0.2902 -0.1403
27928SOL    HW190642  10.200   5.952   1.590 -1.2125 -0.9432 -0.0801
27928SOL    HW290643  10.255   5.812   1.607 -0.1791 -0.7563 -1.7066
27929SOL     OW90644  12.543   4.375  12.270 -0.1503  0.1992  0.4312
27929SOL    HW190645  12.576   4.361  12.181  1.1608  0.6486  0.8270
27929SOL    HW290646  12.522   4.287  12.302  0.6764 -0.0988  0.1616
27930SOL     OW90647   6.755  12.373   7.756  0.7694  0.6846 -0.1156
27930SOL    HW190648   6.660  12.368   7.762  0.8833  0.1521  1.9702
27930SOL    HW290649   6.778  12.453   7.803  1.3346  1.1746 -1.1803
27931SOL     OW90650  11.199   4.136   5.531 -0.1909 -0.1781  0.3113
27931SOL    HW190651  11.249   4.100   5.457  1.1336  1.2144  0.4809
27931SOL    HW290652  11.249   4.213   5.558  0.1466 -1.3748  3.5216
27932SOL     OW90653  11.629  11.226  11.356  0.6234  0.4171 -0.0439
27932SOL    HW190654  11.625  11.273  11.273  0.0105  0.1703 -0.1619
27932SOL    HW290655  11.593  11.288  11.420 -0.0678  0.1635 -0.1783
27933SOL     OW90656   4.394  11.063  12.417 -0.4902  0.1295  0.1930
27933SOL    HW190657   4.399  11.081  12.323  0.6157  0.4798  0.2995
27933SOL    HW290658   4.303  11.081  12.440 -0.7854 -0.0001 -0.8146
27934SOL     OW90659   6.970   5.747   7.698  0.3057  0.6616 -0.0171
27934SOL    HW190660   6.927   5.662   7.705 -2.0390  1.5706 -2.0327
27934SOL    HW290661   7.030   5.737   7.624  0.2843  0.6826 -0.0367
27935SOL     OW90662  11.839   7.183   7.452 -0.0687 -0.4910 -0.2306
27935SOL    HW190663  11.934   7.188   7.439  0.2204 -0.6145  1.6032
27935SOL    HW290664  11.808   7.273   7.442 -0.0078 -0.6402 -2.2437
27936SOL     OW90665   5.676  12.520  10.939 -0.0852  0.6599  0.4800
27936SOL    HW190666   5.613  12.458  10.903  0.8602  0.4271 -0.8655
27936SOL    HW290667   5.745  12.464  10.977  0.5337  0.8755 -0.3088
27937SOL     OW90668  10.123  11.350  11.405 -0.3803  0.0352  0.0578
27937SOL    HW190669  10.193  11.292  11.438  0.7261  0.9108 -0.6783
27937SOL    HW290670  10.160  11.389  11.326 -2.1675 -0.3553 -1.0182
27938SOL     OW90671   4.252   1.921  11.574  0.4305 -0.6494 -0.0103
27938SOL    HW190672   4.195   1.866  11.520  1.0337 -0.7592 -0.5443
27938SOL    HW290673   4.340   1.886  11.560  0.7159 -0.0660  0.2875
27939SOL     OW90674   8.112  10.607   3.994 -0.1412 -0.3543  0.1572
27939SOL    HW190675   8.132  10.694   3.961  0.4221 -0.7312 -0.5123
27939SOL    HW290676   8.193  10.578   4.036 -0.7512 -0.0052  1.6298
27940SOL     OW90677   3.078   9.945   4.947 -0.7056  0.2096 -0.3002
27940SOL    HW190678   3.021  10.015   4.914  0.5208  1.1567 -0.4424
27940SOL    HW290679   3.147   9.936   4.881 -0.3395 -0.5188  0.1659
27941SOL     OW90680   8.850   4.436   5.067 -0.3997 -0.1644 -0.2816
27941SOL    HW190681   8.809   4.352   5.087 -1.5320  0.2354 -0.8231
27941SOL    HW290682   8.790   4.501   5.103  1.6686  0.4502  2.4257
27942SOL     OW90683   5.726  10.898   0.955  0.5995 -0.1581 -0.5605
27942SOL    HW190684   5.802  10.956   0.949 -0.2879  1.1787  0.3822
27942SOL    HW290685   5.651  10.957   0.952 -0.3362 -1.1790  1.1995
27943SOL     OW90686   2.868   7.191   7.028  0.3812  0.5132 -0.2581
27943SOL    HW190687   2.918   7.177   6.947  0.1146 -1.8565 -0.1019
27943SOL    HW290688   2.867   7.105   7.070 -1.0417  1.2685  1.3823
27944SOL     OW90689   7.050   7.801   9.752 -0.3101 -0.4185 -0.2250
27944SOL    HW190690   6.975   7.812   9.693 -0.7028  0.2821  0.3824
27944SOL    HW290691   7.036   7.714   9.791 -1.2845  0.0436  0.5082
27945SOL     OW90692  10.970   6.983  10.723 -0.1027 -0.5831 -0.1924
27945SOL    HW190693  10.972   6.971  10.628  0.6568 -2.6840  0.0267
27945SOL    HW290694  11.061   6.999  10.747 -0.6598  3.0555 -0.0625
27946SOL     OW90695   9.636  10.895  12.485  0.3025 -0.0530 -0.5141
27946SOL    HW190696   9.552  10.852  12.471  1.1740 -1.5184 -1.4293
27946SOL    HW290697   9.695  10.854  12.422  1.3535  2.0450 -0.9879
27947SOL     OW90698  10.647   3.642   2.080 -0.0924  0.7942  0.1274
27947SOL    HW190699  10.632   3.556   2.041 -1.0298  0.5533  0.9828
27947SOL    HW290700  10.711   3.626   2.150 -1.7854  0.3762  1.6558
27948SOL     OW90701   1.252   4.817   6.918 -0.1659 -0.3545  0.5044
27948SOL    HW190702   1.281   4.876   6.849  1.6821 -0.7609  0.8686
27948SOL    HW290703   1.157   4.824   6.918 -0.1014  0.9584 -0.9059
27949SOL     OW90704   0.310   0.072  12.136 -0.1490 -0.0321  0.2481
27949SOL    HW190705   0.253   0.138  12.175  0.2740  0.1730  0.5247
27949SOL    HW290706   0.396   0.113  12.134 -0.3257  0.3592 -1.8490
27950SOL     OW90707   6.846   3.255   6.790  0.0093  0.3481  0.1127
27950SOL    HW190708   6.891   3.172   6.803  1.3367  1.2838  1.8720
27950SOL    HW290709   6.763   3.231   6.749  0.8339 -1.7144 -0.4817
27951SOL     OW90710  11.984   4.077   5.375 -0.2629  0.4622 -1.3395
27951SOL    HW190711  12.030   4.095   5.457 -1.9120  1.3181 -0.5419
27951SOL    HW290712  11.891   4.090   5.397 -1.0384 -2.3298 -2.5604
27952SOL     OW90713   9.518   2.551   5.919  0.1799 -0.0630 -0.2110
27952SOL    HW190714   9.573   2.608   5.866 -0.7647  0.8389 -0.2719
27952SOL    HW290715   9.544   2.569   6.009  1.1729 -0.9394 -0.3054
27953SOL     OW90716   1.733   8.164   9.760  0.5376  0.1310 -0.6990
27953SOL    HW190717   1.738   8.177   9.665 -1.0587  0.7242 -0.7411
27953SOL    HW290718   1.813   8.117   9.782  1.6734  1.2762 -2.1164
27954SOL     OW90719   9.340  10.075   5.642 -0.1200  0.0933 -0.8172
27954SOL    HW190720   9.346  10.164   5.608 -0.4395  0.6527  0.5078
27954SOL    HW290721   9.411  10.069   5.707  1.2287 -1.3240 -2.3307
27955SOL     OW90722   6.158   4.414  12.279 -0.2621  0.6589  0.2473
27955SOL    HW190723   6.084   4.412  12.340 -0.6941  0.7444 -0.2666
27955SOL    HW290724   6.119   4.438  12.195  0.2235 -0.0877 -0.2052
27956SOL     OW90725  10.930   7.474   5.222  0.0757  0.1036  0.1807
27956SOL    HW190726  10.931   7.463   5.317  0.0828 -0.1374  0.1523
27956SOL    HW290727  10.849   7.431   5.194 -1.5813  2.8285  0.4067
27957SOL     OW90728   6.400   0.156   5.472 -0.2000  0.1609 -0.4802
27957SOL    HW190729   6.467   0.157   5.540 -0.0828 -2.9416 -0.4086
27957SOL    HW290730   6.363   0.245   5.473  2.4004  1.3356  0.9231
27958SOL     OW90731   5.217   4.781  12.269 -0.1698 -0.0483  0.3453
27958SOL    HW190732   5.133   4.759  12.228  0.1592  0.0316 -0.3802
27958SOL    HW290733   5.196   4.850  12.332 -0.8318 -0.8115  0.9821
27959SOL     OW90734   0.082   6.109  12.287 -0.3576 -0.4245  0.0853
27959SOL    HW190735   0.095   6.016  12.270 -0.1463 -0.2837 -0.5386
27959SOL    HW290736   0.072   6.114  12.382 -2.0434 -1.2863 -0.0168
27960SOL     OW90737   2.860   0.215   7.846  0.2901 -0.4000  0.3837
27960SOL    HW190738   2.806   0.292   7.832  0.7458  0.0250  0.9261
27960SOL    HW290739   2.808   0.142   7.811  1.1910  0.4958 -3.2953
27961SOL     OW90740   2.674  10.923  10.715  0.0127 -0.0962 -0.2760
27961SOL    HW190741   2.633  10.891  10.634 -0.6978 -1.1457  0.4697
27961SOL    HW290742   2.700  11.013  10.695  0.9850 -0.7219 -2.0799
27962SOL     OW90743  11.390  10.220   0.674 -0.5513 -0.4939  0.1740
27962SOL    HW190744  11.317  10.281   0.682  0.9664  1.3035  1.3515
27962SOL    HW290745  11.350  10.133   0.675 -2.5594  0.3127  3.3794
27963SOL     OW90746   1.931   7.126   5.851  0.6637  0.2369  0.0082
27963SOL    HW190747   2.026   7.116   5.847  0.6246 -0.4308  0.6255
27963SOL    HW290748   1.911   7.187   5.780  1.4770 -0.1275 -0.5485
27964SOL     OW90749   1.363   7.708   0.174  0.0299 -0.1265 -0.5904
27964SOL    HW190750   1.352   7.707   0.079  0.0701  1.5212 -0.6461
27964SOL    HW290751   1.276   7.729   0.208  0.0161 -0.7140 -0.2577
27965SOL     OW90752   4.166   0.813   4.284 -0.5737 -0.0106 -0.0900
27965SOL    HW190753   4.201   0.846   4.367 -0.7237 -2.1546  0.8957
27965SOL    HW290754   4.079   0.852   4.278 -0.3460  0.6072  0.4748
27966SOL     OW90755   7.768   3.434   8.620 -0.2091 -0.1931 -0.5201
27966SOL    HW190756   7.787   3.347   8.583 -1.4902 -0.6544 -0.1521
27966SOL    HW290757   7.818   3.437   8.701  1.3037  0.1675 -1.4230
27967SOL     OW90758  10.990   4.845   0.035 -0.2112  0.7119 -0.0274
27967SOL    HW190759  10.940   4.832   0.115  0.3629  1.0139  0.3907
27967SOL    HW290760  10.989   4.760  -0.009 -2.2328  1.0433 -0.7100
27968SOL     OW90761   3.266   0.926   1.246 -0.0561  0.1036 -0.4370
27968SOL    HW190762   3.175   0.896   1.248 -0.6938  1.5125 -3.1013
27968SOL    HW290763   3.295   0.910   1.156  1.6916  1.4232 -0.1699
27969SOL     OW90764   5.344   8.831   6.829  0.2353  0.1269 -0.8748
27969SOL    HW190765   5.264   8.848   6.879  0.5509 -1.0411  0.0934
27969SOL    HW290766   5.313   8.795   6.746 -0.2942  1.9622 -1.4991
27970SOL     OW90767   0.362   7.393   3.219 -0.1919  0.1451 -0.2351
27970SOL    HW190768   0.412   7.473   3.234  0.9413 -0.6040  0.1035
27970SOL    HW290769   0.343   7.360   3.307 -0.4263 -0.1032 -0.3781
27971SOL     OW90770   5.719   0.737  11.886  0.0047  0.1205  0.6962
27971SOL    HW190771   5.772   0.758  11.809  0.0446  1.2065  1.0107
27971SOL    HW290772   5.778   0.686  11.942 -0.3093 -1.5259 -0.3779
27972SOL     OW90773   1.071   3.552   0.974 -0.0359 -0.0663 -0.2142
27972SOL    HW190774   1.134   3.600   0.922  0.3020  0.2899  0.5078
27972SOL    HW290775   0.993   3.608   0.976  0.4084  0.5442  0.7502
27973SOL     OW90776   3.119   2.540   1.491  0.7001 -0.6325  0.0580
27973SOL    HW190777   3.060   2.580   1.427  0.7768  0.7148  0.8030
27973SOL    HW290778   3.198   2.520   1.441  0.7881  0.4744 -0.2735
27974SOL     OW90779  12.401   0.682   3.422 -0.3146 -0.3615 -0.5354
27974SOL    HW190780  12.398   0.586   3.413 -2.5245 -0.7275  2.5394
27974SOL    HW290781  12.326   0.713   3.370 -1.0597 -0.5828  0.3749
27975SOL     OW90782   2.336   5.992   4.864 -0.3688 -0.3033  0.4591
27975SOL    HW190783   2.430   5.973   4.866 -0.3382 -0.1282  1.8842
27975SOL    HW290784   2.294   5.907   4.851 -0.0412 -0.5423  0.9522
27976SOL     OW90785   9.545  12.561   0.256 -0.0089 -0.0145 -0.0108
27976SOL    HW190786   9.603  12.507   0.311  2.3661  1.7840 -0.5746
27976SOL    HW290787   9.595  12.573   0.175 -1.8013  0.5535 -1.0661
27977SOL     OW90788   0.187   1.164   9.207  0.1422  0.5180 -1.2049
27977SOL    HW190789   0.113   1.106   9.189 -1.7463  3.1449 -2.4971
27977SOL    HW290790   0.180   1.184   9.300 -0.0358 -0.1694 -1.0671
27978SOL     OW90791   1.098   4.781   1.324  0.6195 -0.0283 -0.0026
27978SOL    HW190792   1.069   4.709   1.381  0.6185 -0.3388 -0.3916
27978SOL    HW290793   1.115   4.853   1.384 -1.3095  0.2873  0.2231
27979SOL     OW90794   0.691   9.033   0.954  0.0771 -0.7156  0.3652
27979SOL    HW190795   0.688   9.092   0.879  0.8714 -0.7682  0.2873
27979SOL    HW290796   0.660   8.949   0.921 -2.3717 -0.0680  0.7764
27980SOL     OW90797   7.737   4.734  11.747 -0.1154 -0.0677  0.7385
27980SOL    HW190798   7.687   4.660  11.714 -0.8982  0.4609  0.7240
27980SOL    HW290799   7.724   4.731  11.842  0.1360 -0.1452  0.7720
27981SOL     OW90800   1.248  10.231   4.148 -0.1405  0.2083  0.4156
27981SOL    HW190801   1.268  10.322   4.172 -0.2885  0.3268  0.0898
27981SOL    HW290802   1.234  10.187   4.232 -0.6213  0.6118  0.5485
27982SOL     OW90803  11.380   8.164   7.447 -0.1748  0.0684  0.8456
27982SOL    HW190804  11.298   8.117   7.430  0.4424 -0.3406 -1.3855
27982SOL    HW290805  11.444   8.121   7.390  1.2510  1.3544  1.4043
27983SOL     OW90806  10.275   5.330  11.131  0.1495  0.1223  0.3926
27983SOL    HW190807  10.191   5.347  11.088  0.1068 -1.3058 -0.1579
27983SOL    HW290808  10.329   5.292  11.062  1.0569  0.4705  0.8978
27984SOL     OW90809   1.127   2.303   7.437  0.5396  0.2206  0.8657
27984SOL    HW190810   1.172   2.382   7.407 -0.1722  1.7887  3.6215
27984SOL    HW290811   1.192   2.257   7.490  0.5718 -0.4587  0.2586
27985SOL     OW90812  10.178   9.389  11.780  0.0065  0.2536  0.4278
27985SOL    HW190813  10.265   9.359  11.754 -0.4813 -2.0735  1.2245
27985SOL    HW290814  10.195   9.457  11.845  1.2095  0.8153 -0.4424
27986SOL     OW90815  12.492   0.243   4.435  0.5748  0.4042  0.2689
27986SOL    HW190816  12.438   0.319   4.454  1.5259  1.0083  0.6599
27986SOL    HW290817  12.484   0.188   4.513 -0.2866 -0.0055 -0.1051
27987SOL     OW90818   4.302   6.366  11.688  0.2062  0.2211 -0.2675
27987SOL    HW190819   4.252   6.376  11.769  0.0184 -2.0878 -0.0271
27987SOL    HW290820   4.336   6.277  11.693  1.2023  0.4620 -2.1909
27988SOL     OW90821   2.146   6.462  11.354 -0.0840  0.0713 -0.2017
27988SOL    HW190822   2.155   6.488  11.262 -0.2556 -1.0062 -0.5396
27988SOL    HW290823   2.201   6.525  11.402  0.7011  0.1236 -1.1319
27989SOL     OW90824   2.793   0.016  11.212  0.0320 -0.0382 -0.1240
27989SOL    HW190825   2.864  -0.036  11.250  0.2444  0.6399  0.4328
27989SOL    HW290826   2.836   0.069  11.145 -0.1365 -0.3936 -0.5117
27990SOL     OW90827   1.593   4.879   7.276  0.2079  0.1794  0.2252
27990SOL    HW190828   1.549   4.929   7.207 -0.6353 -0.8397 -0.0200
27990SOL    HW290829   1.578   4.787   7.252  2.3537 -0.2156  0.2466
27991SOL     OW90830   1.469   2.643   5.626 -0.1205  0.3609 -0.0087
27991SOL    HW190831   1.469   2.724   5.678  0.0549  1.3766 -1.5404
27991SOL    HW290832   1.393   2.651   5.569 -0.7720 -1.1132  0.6062
27992SOL     OW90833   4.406   3.126   2.020 -0.4684  0.1111 -0.7644
27992SOL    HW190834   4.341   3.056   2.019 -0.0499 -0.2875 -1.0986
27992SOL    HW290835   4.489   3.081   2.002  0.0146  0.4960  0.4235
27993SOL     OW90836   8.722   4.724   1.350 -0.9900 -0.3819  0.2296
27993SOL    HW190837   8.690   4.809   1.319  0.7798  0.2990  0.1394
27993SOL    HW290838   8.675   4.710   1.432 -0.7439  1.0781  0.6500
27994SOL     OW90839   9.564   6.058   2.509 -0.3040 -0.7267  0.1739
27994SOL    HW190840   9.490   6.017   2.464  0.0718 -0.4651 -0.6935
27994SOL    HW290841   9.608   5.986   2.554  0.7637 -1.4404 -1.9085
27995SOL     OW90842   5.553   4.817   2.947  0.1471 -0.5039 -0.1759
27995SOL    HW190843   5.642   4.850   2.936  0.2985 -0.4626  0.9932
27995SOL    HW290844   5.545   4.801   3.041 -1.1471 -0.3269 -0.2363
27996SOL     OW90845  10.870   2.070  11.998 -0.2282  0.2632 -0.0315
27996SOL    HW190846  10.892   2.012  12.071 -1.4321 -1.3673 -0.8938
27996SOL    HW290847  10.947   2.067  11.941 -0.4196 -0.8661 -0.2638
27997SOL     OW90848   8.495   9.506   4.827 -0.5956  0.0107 -0.0570
27997SOL    HW190849   8.567   9.455   4.790 -1.0379 -1.9149  1.6045
27997SOL    HW290850   8.522   9.597   4.814  1.0774 -0.6167 -1.4644
27998SOL     OW90851   9.081   8.795   2.408 -0.3570 -0.4582  0.0676
27998SOL    HW190852   9.153   8.845   2.448 -0.5335  0.7786 -1.1144
27998SOL    HW290853   9.006   8.855   2.409 -1.1486 -1.4225  0.4705
27999SOL     OW90854  10.173   4.811  11.640 -0.4314 -0.4611 -0.0675
27999SOL    HW190855  10.167   4.716  11.629  0.9484 -0.3631 -2.2990
27999SOL    HW290856  10.167   4.846  11.551  0.7572  1.4157  0.5331
28000SOL     OW90857   5.198   8.603  11.993  0.3613  0.5904  0.3914
28000SOL    HW190858   5.147   8.621  12.072  0.9715  2.9104  0.3152
28000SOL    HW290859   5.138   8.623  11.921 -0.3476 -1.9565  0.1710
28001SOL     OW90860   7.878   7.837   0.449 -0.3063 -0.5409 -0.4741
28001SOL    HW190861   7.872   7.932   0.457  0.0586 -0.4223 -1.5332
28001SOL    HW290862   7.787   7.807   0.446 -0.4179 -0.1660 -0.7877
28002SOL     OW90863   0.270   9.747   2.760 -0.2396 -0.2459 -0.0793
28002SOL    HW190864   0.334   9.705   2.817 -1.3392 -0.5385  0.9701
28002SOL    HW290865   0.252   9.681   2.692  1.5298  0.3315 -1.1914
28003SOL     OW90866   7.503   7.400   2.920 -0.1648  0.1595 -0.2929
28003SOL    HW190867   7.532   7.348   2.845 -0.4582 -2.2908  1.1773
28003SOL    HW290868   7.459   7.475   2.881  1.0643 -0.1901 -2.5527
28004SOL     OW90869   3.141   6.863   3.988 -0.2759  0.4478 -0.3586
28004SOL    HW190870   3.128   6.771   4.010  0.5760  0.1651 -0.9453
28004SOL    HW290871   3.136   6.865   3.892 -1.0444  1.1483 -0.3164
28005SOL     OW90872   0.132   1.014   4.694 -0.1050  0.5630 -0.1847
28005SOL    HW190873   0.062   0.976   4.747  0.2807 -0.9406 -0.6960
28005SOL    HW290874   0.087   1.049   4.617 -0.2572 -1.4624 -1.0984
28006SOL     OW90875   9.502   5.919   6.394 -0.5044  0.4826 -0.1316
28006SOL    HW190876   9.429   5.933   6.454 -0.9367 -1.3798 -0.1409
28006SOL    HW290877   9.546   5.840   6.428 -0.1696 -0.0338 -1.6790
28007SOL     OW90878   9.143   4.921   7.448  0.1494  0.8033 -0.3557
28007SOL    HW190879   9.050   4.914   7.469 -0.2420 -0.1347 -2.1972
28007SOL    HW290880   9.160   5.015   7.442 -0.6480  0.9838  0.1353
28008SOL     OW90881   7.289   0.320   9.305  0.0051  0.2455 -0.1605
28008SOL    HW190882   7.261   0.307   9.396  1.5589  0.9593  0.4673
28008SOL    HW290883   7.216   0.289   9.252 -1.4273  0.8925  1.3448
28009SOL     OW90884   7.526  11.068  12.286  0.9643  0.3703  0.0328
28009SOL    HW190885   7.451  11.103  12.334  0.6198 -1.3305  0.8049
28009SOL    HW290886   7.582  11.029  12.353  0.5426 -1.9497 -0.8368
28010SOL     OW90887   8.877  12.128   7.772  0.0820 -0.7317  0.4021
28010SOL    HW190888   8.840  12.153   7.688  0.6161 -0.0148  0.3686
28010SOL    HW290889   8.848  12.037   7.785 -0.4019 -0.6905 -0.3209
28011SOL     OW90890   3.784  11.495   3.948  0.4490 -0.0329  0.4297
28011SOL    HW190891   3.733  11.490   3.867  0.2874  0.9619  0.4497
28011SOL    HW290892   3.873  11.469   3.922  0.4110  0.3234 -0.0802
28012SOL     OW90893   9.713  11.369   2.022  0.3801 -0.2547 -0.1971
28012SOL    HW190894   9.759  11.403   2.099  2.4464 -1.0088 -1.0325
28012SOL    HW290895   9.763  11.402   1.947 -0.4115 -1.1590 -1.1589
28013SOL     OW90896   7.606   8.877   5.902  0.2943  0.2171 -0.0414
28013SOL    HW190897   7.562   8.936   5.963  1.1458  0.7102  0.1233
28013SOL    HW290898   7.617   8.930   5.823 -1.3560 -0.6183 -0.8586
28014SOL     OW90899  12.195   2.722   9.365 -0.4191 -0.1198 -0.2342
28014SOL    HW190900  12.112   2.768   9.382 -0.9845  0.2376 -3.4228
28014SOL    HW290901  12.174   2.629   9.380 -0.8372  0.1263  0.7991
28015SOL     OW90902   0.809   4.819   0.982  0.6200  0.6707  0.3319
28015SOL    HW190903   0.865   4.893   1.003 -0.8928  1.2162  2.7613
28015SOL    HW290904   0.811   4.763   1.060  0.1322 -0.8234 -0.6729
28016SOL     OW90905   6.357  11.214   5.571  0.0208 -0.1701  0.1012
28016SOL    HW190906   6.303  11.258   5.505  1.2735  1.0635 -0.1508
28016SOL    HW290907   6.420  11.281   5.599  2.0424 -1.7996 -0.2879
28017SOL     OW90908  11.828   9.349   4.134 -0.6813  0.0780 -0.4547
28017SOL    HW190909  11.784   9.434   4.143 -1.2562 -0.3539  1.0954
28017SOL    HW290910  11.775   9.289   4.185  1.0304 -0.7273  0.4355
28018SOL     OW90911   3.477   1.856   7.456 -0.7598 -0.4366  0.4137
28018SOL    HW190912   3.460   1.940   7.498  3.0942 -0.2920  2.0789
28018SOL    HW290913   3.453   1.869   7.364 -4.6054  0.8746  1.4064
28019SOL     OW90914   5.678   4.723   1.371 -0.5835  0.0116  0.2940
28019SOL    HW190915   5.605   4.738   1.311 -1.0509 -0.2739  0.7774
28019SOL    HW290916   5.645   4.658   1.433 -0.2748  0.6389  1.1358
28020SOL     OW90917  10.890   5.489   7.219 -0.5118  0.0127 -0.0342
28020SOL    HW190918  10.905   5.583   7.208  1.0146 -0.2509 -0.5079
28020SOL    HW290919  10.952   5.463   7.287 -0.9314 -0.6449  0.1018
28021SOL     OW90920   7.762   0.927   0.559 -0.1856  0.4943  0.2519
28021SOL    HW190921   7.667   0.915   0.549 -0.1854  0.5646  0.1581
28021SOL    HW290922   7.770   1.002   0.617 -0.1900  1.0537 -0.4520
28022SOL     OW90923   5.294   3.616   9.652 -0.2573  0.3569  0.2077
28022SOL    HW190924   5.294   3.615   9.557  0.3166  0.2416  0.1998
28022SOL    HW290925   5.274   3.525   9.677  1.4375 -0.0676  0.1613
28023SOL     OW90926  11.940   2.377   9.821  0.0958 -0.3357 -0.1004
28023SOL    HW190927  11.943   2.294   9.869 -2.0857  0.3170  1.3169
28023SOL    HW290928  11.971   2.355   9.733 -0.6132 -2.6995  0.1708
28024SOL     OW90929   6.972   1.024  10.073 -0.0718  0.0116 -0.0404
28024SOL    HW190930   6.907   1.073  10.023 -0.2240  0.7171  0.8168
28024SOL    HW290931   6.924   0.949  10.107  0.1441 -0.7269 -1.3001
28025SOL     OW90932   9.340  10.737   9.364 -0.6542  0.4690  0.3787
28025SOL    HW190933   9.248  10.708   9.360 -0.1206 -1.5976  1.5586
28025SOL    HW290934   9.335  10.827   9.398 -2.2932  1.0113 -1.1600
28026SOL     OW90935  12.324   2.801   7.808 -0.4025 -0.5216 -0.0753
28026SOL    HW190936  12.350   2.850   7.887 -0.0160 -0.4144 -0.2644
28026SOL    HW290937  12.249   2.749   7.836 -0.6108 -0.0715  0.2210
28027SOL     OW90938   2.646   0.808   3.994 -0.8500 -0.4114  0.2098
28027SOL    HW190939   2.724   0.808   3.938 -1.0337  1.5108 -0.0815
28027SOL    HW290940   2.678   0.834   4.080 -0.9738 -0.8988  0.4069
28028SOL     OW90941   6.771   8.732   8.954  0.0345 -0.1647 -0.6530
28028SOL    HW190942   6.740   8.805   9.007  0.7287  0.3423 -0.9293
28028SOL    HW290943   6.829   8.683   9.013  0.5107  0.1874 -0.8234
28029SOL     OW90944   3.525  11.168   7.966 -0.0462 -0.5337 -0.2060
28029SOL    HW190945   3.573  11.086   7.977  1.0939 -0.0269 -1.1369
28029SOL    HW290946   3.555  11.223   8.038 -1.7269 -1.2884  1.1601
28030SOL     OW90947  11.478   9.406  11.764 -0.1663  0.0523  0.0228
28030SOL    HW190948  11.549   9.433  11.706  1.6278 -0.1939  2.0049
28030SOL    HW290949  11.403   9.395  11.705  1.0208  1.7012 -1.9519
28031SOL     OW90950  11.376   2.732  11.115 -0.3010 -0.3787 -0.3026
28031SOL    HW190951  11.340   2.817  11.140  0.7011 -0.0087 -0.0363
28031SOL    HW290952  11.468   2.736  11.143  0.2165 -0.9029 -1.8060
28032SOL     OW90953  11.714   2.506   9.941 -0.1351  0.0847  0.3091
28032SOL    HW190954  11.784   2.456   9.900  0.6866  2.0326 -0.7796
28032SOL    HW290955  11.635   2.477   9.896  0.3561 -0.0803 -0.4736
28033SOL     OW90956   9.002  10.800   2.100  0.0576 -0.2978  0.0524
28033SOL    HW190957   8.979  10.873   2.157 -3.4201 -0.3388 -1.0972
28033SOL    HW290958   9.052  10.840   2.028 -1.5615  0.9696 -0.4216
28034SOL     OW90959   2.963  11.039   9.165 -0.1914 -0.2734  0.3195
28034SOL    HW190960   2.898  10.999   9.223 -0.0569 -1.0096 -0.0223
28034SOL    HW290961   3.008  10.965   9.126 -0.3319  0.2076 -0.7890
28035SOL     OW90962   5.738   4.781   6.540  0.1839  0.4837  0.0524
28035SOL    HW190963   5.819   4.795   6.590  0.9356  0.6444 -1.1557
28035SOL    HW290964   5.741   4.847   6.471 -0.2792 -0.4153 -0.8488
28036SOL     OW90965   4.858   5.938   0.369  0.5155 -0.0579 -0.2251
28036SOL    HW190966   4.900   5.875   0.428 -1.9407 -3.1634 -1.4420
28036SOL    HW290967   4.764   5.920   0.380 -0.1212  0.7435 -3.4223
28037SOL     OW90968   4.267   0.919   4.567  0.3344  0.2070  0.0277
28037SOL    HW190969   4.233   0.858   4.632 -0.3477 -1.1952 -1.5658
28037SOL    HW290970   4.362   0.905   4.569  0.2952 -0.0176  0.5222
28038SOL     OW90971   5.917  10.300   3.741  0.3357  0.0741 -0.0988
28038SOL    HW190972   6.005  10.334   3.723  0.2350  0.1382 -0.4864
28038SOL    HW290973   5.860  10.377   3.741  0.3285  0.0717  0.4993
28039SOL     OW90974   4.385   5.385   4.162  0.3745 -0.3737  0.1509
28039SOL    HW190975   4.445   5.367   4.235 -0.4038 -0.8876  0.6849
28039SOL    HW290976   4.303   5.342   4.188  0.6134 -2.1988 -1.8689
28040SOL     OW90977   1.406   0.532   4.245 -0.1076  0.1277 -0.1966
28040SOL    HW190978   1.379   0.574   4.327  0.2839  0.0252 -0.0064
28040SOL    HW290979   1.490   0.491   4.267  1.8011  2.9747 -1.5316
28041SOL     OW90980   6.966   7.661   8.828  0.3798  0.2283 -0.5426
28041SOL    HW190981   6.946   7.616   8.910  1.9600 -0.6805 -0.6268
28041SOL    HW290982   7.062   7.662   8.824  0.3334  0.5778 -2.2089
28042SOL     OW90983   4.421   5.065   8.555 -0.1488 -0.5919  0.7449
28042SOL    HW190984   4.419   5.087   8.648 -0.4551 -2.2183  1.1411
28042SOL    HW290985   4.507   5.027   8.541  1.3245  2.7494 -0.4561
28043SOL     OW90986   0.205   8.552   9.359 -0.2023  0.1312  0.4141
28043SOL    HW190987   0.269   8.481   9.367 -0.2963  0.0736  0.6674
28043SOL    HW290988   0.258   8.632   9.359 -0.2093  0.1603  1.9986
28044SOL     OW90989   6.515  10.908   0.042  0.0685  0.5459 -0.1633
28044SOL    HW190990   6.570  10.900  -0.036  0.5931 -0.0993  0.2509
28044SOL    HW290991   6.577  10.911   0.115 -0.4276  0.1497  0.2927
28045SOL     OW90992   4.455   7.661   1.637  0.5888  0.0693 -0.5173
28045SOL    HW190993   4.511   7.584   1.641 -1.4127 -1.5033 -1.5395
28045SOL    HW290994   4.410   7.663   1.722 -2.5924 -2.5517 -1.9484
28046SOL     OW90995   8.099   1.822  12.090  0.1509  0.1109  0.1891
28046SOL    HW190996   8.163   1.891  12.073  0.0860  0.2191  0.3889
28046SOL    HW290997   8.132   1.777  12.167 -0.0942  0.2651  0.3864
28047SOL     OW90998   9.038   5.950   2.832  0.8056  0.0349 -0.7038
28047SOL    HW190999   9.030   6.043   2.810  0.2175  0.2072  0.1797
28047SOL    HW291000   8.948   5.922   2.850  1.0919 -0.4334  0.0428
28048SOL     OW91001   1.247   0.477  10.402 -0.6545  0.2323 -0.2377
28048SOL    HW191002   1.185   0.408  10.424  1.6865 -1.2420  2.3518
28048SOL    HW291003   1.304   0.439  10.335  0.0418 -0.0172  0.4853
28049SOL     OW91004  11.347   1.413   2.416  0.0954  0.3028  0.1953
28049SOL    HW191005  11.337   1.434   2.509  1.4227  2.2863 -0.0630
28049SOL    HW291006  11.362   1.498   2.373  2.0448 -0.7997 -1.4837
28050SOL     OW91007   3.432  11.729   6.147 -0.3727 -0.6475  0.0696
28050SOL    HW191008   3.512  11.778   6.165  0.0662 -1.0783 -0.6554
28050SOL    HW291009   3.365  11.772   6.200  0.1144  0.3879 -0.1332
28051SOL     OW91010   8.605   9.413   2.936 -0.1863 -0.2885  0.1093
28051SOL    HW191011   8.568   9.492   2.975 -1.0900 -0.8750  0.4727
28051SOL    HW291012   8.552   9.342   2.971  1.4515 -1.2018  0.8528
28052SOL     OW91013   2.025  11.462   9.267  0.1953 -0.4787  0.4745
28052SOL    HW191014   2.019  11.556   9.285  0.3074 -0.9065  3.1971
28052SOL    HW291015   2.118  11.447   9.249  0.3660 -0.1875  1.0779
28053SOL     OW91016   4.522   6.680   3.421  0.3159 -0.3316  0.3294
28053SOL    HW191017   4.555   6.667   3.509 -0.1719 -0.1218  0.5478
28053SOL    HW291018   4.582   6.744   3.382  0.7776 -0.7463  0.3642
28054SOL     OW91019   2.324   3.348   0.109  0.5246 -0.5435  0.1824
28054SOL    HW191020   2.289   3.330   0.196  1.6200 -0.7325  0.6076
28054SOL    HW291021   2.398   3.408   0.125 -0.6730  1.3096 -0.8398
28055SOL     OW91022   7.172   4.611  11.497 -0.2721  0.1148  1.1824
28055SOL    HW191023   7.120   4.677  11.542  0.3041  1.7364 -0.3937
28055SOL    HW291024   7.122   4.530  11.507 -1.3508  0.9091  2.5907
28056SOL     OW91025   0.077   8.658   2.968 -0.4494 -0.3282 -0.3315
28056SOL    HW191026   0.031   8.616   3.041  1.0686 -0.7797  0.3927
28056SOL    HW291027   0.121   8.586   2.922 -0.6694  0.0641 -1.1934
28057SOL     OW91028  12.506   1.343  11.922 -0.4133 -0.0460  0.2326
28057SOL    HW191029  12.589   1.325  11.878 -0.5420 -0.5676  0.1887
28057SOL    HW291030  12.532   1.381  12.006 -0.1834  1.5283 -0.5165
28058SOL     OW91031   5.083  10.419  11.220 -0.5685 -0.6950 -0.3405
28058SOL    HW191032   5.060  10.499  11.268 -0.8664 -1.5089  0.9393
28058SOL    HW291033   5.084  10.445  11.128  1.9748  1.4398  0.1659
28059SOL     OW91034  11.799   3.092   0.396 -0.2609 -0.1382 -0.3965
28059SOL    HW191035  11.855   3.052   0.330 -2.3023 -1.4162 -1.4610
28059SOL    HW291036  11.800   3.186   0.375  0.4723 -0.3053 -1.1506
28060SOL     OW91037   9.281   5.238   0.308 -0.1371 -0.2321  0.6839
28060SOL    HW191038   9.322   5.324   0.313  1.1387 -0.8513  1.1988
28060SOL    HW291039   9.245   5.235   0.219 -0.7020  1.0307  0.8419
28061SOL     OW91040  11.374   4.688   1.462 -0.5552  0.4059  0.2828
28061SOL    HW191041  11.330   4.723   1.539  0.4327 -0.2995  1.1900
28061SOL    HW291042  11.441   4.753   1.441 -0.1113  0.0907  0.6912
28062SOL     OW91043   8.811   0.717   4.953 -0.7588 -0.1244  0.5118
28062SOL    HW191044   8.767   0.635   4.930 -0.2312  0.0641 -1.2577
28062SOL    HW291045   8.898   0.711   4.913  0.8821 -0.4094  3.7691
28063SOL     OW91046  10.650   5.829   4.134 -0.1451 -0.2290  0.1366
28063SOL    HW191047  10.737   5.792   4.125  0.3647  1.2752 -1.9956
28063SOL    HW291048  10.594   5.774   4.079  0.1178  0.5965 -0.9983
28064SOL     OW91049  11.577  11.781   4.003  0.2003 -0.4253  0.2787
28064SOL    HW191050  11.525  11.852   4.040 -0.2850 -1.1590  1.0705
28064SOL    HW291051  11.564  11.787   3.909 -0.4458  0.0676  0.3930
28065SOL     OW91052   5.224   4.713   1.952 -0.3432  0.0765 -0.1781
28065SOL    HW191053   5.134   4.696   1.978 -0.0655 -0.5991  0.4104
28065SOL    HW291054   5.250   4.789   2.003 -0.7163  0.5515 -0.6885
28066SOL     OW91055   0.470   3.246   7.529  0.8134  0.4439 -0.1468
28066SOL    HW191056   0.505   3.208   7.609 -2.7628  0.1426  1.4841
28066SOL    HW291057   0.402   3.184   7.501 -0.8384  2.5129 -1.0193
28067SOL     OW91058   3.482   4.477   6.209 -0.1655  0.0879  0.4011
28067SOL    HW191059   3.574   4.470   6.181 -0.6512 -0.0779 -1.2653
28067SOL    HW291060   3.469   4.571   6.224  0.5228  0.0088  1.6116
28068SOL     OW91061   7.481   6.690   5.886  0.3630 -0.2851  0.2056
28068SOL    HW191062   7.397   6.736   5.894  0.7500  1.1006 -2.4536
28068SOL    HW291063   7.532   6.723   5.959 -0.6201  0.7328  0.4793
28069SOL     OW91064   3.383  10.913   0.006  0.3483  0.1227 -0.1559
28069SOL    HW191065   3.472  10.913   0.042  0.8174  0.5692 -1.2399
28069SOL    HW291066   3.329  10.875   0.074  1.7885 -2.6791 -0.4361
28070SOL     OW91067   9.509  11.488  12.560  0.1008 -0.1242 -0.2469
28070SOL    HW191068   9.590  11.470  12.512 -0.2248  0.0700 -0.8784
28070SOL    HW291069   9.448  11.522  12.494  0.2204  1.9517  0.6384
28071SOL     OW91070   9.977  10.283   4.698 -0.1803  0.0535  0.2177
28071SOL    HW191071   9.915  10.255   4.630 -0.0423  0.1375  0.0566
28071SOL    HW291072   9.996  10.204   4.748  1.8199 -0.6605 -1.5048
28072SOL     OW91073   2.987  12.567  10.903  0.2667  0.1629  0.2217
28072SOL    HW191074   3.058  12.548  10.964  2.1670  0.0472 -1.9285
28072SOL    HW291075   3.030  12.594  10.822 -2.1643  0.9614 -0.9135
28073SOL     OW91076  10.899   5.973   7.432  0.3596 -0.1869 -0.0138
28073SOL    HW191077  10.862   6.020   7.357  0.3745 -0.3652 -0.1325
28073SOL    HW291078  10.908   6.040   7.500 -0.2424 -0.1563  0.0402
28074SOL     OW91079   2.736   8.524   3.001 -0.1311 -0.6479  0.2456
28074SOL    HW191080   2.647   8.529   2.965 -0.1137  0.1843  0.3202
28074SOL    HW291081   2.761   8.614   3.019  0.5924 -0.9037  0.5822
28075SOL     OW91082   8.975   0.605  12.105 -0.9750 -0.1447 -0.3465
28075SOL    HW191083   9.011   0.662  12.173 -1.7841  0.7038 -0.6034
28075SOL    HW291084   8.897   0.566  12.145 -1.4022  0.2853 -0.7569
28076SOL     OW91085   6.468   3.200  10.574 -0.1787  0.3021 -0.1089
28076SOL    HW191086   6.388   3.166  10.614 -1.1942 -0.0461 -2.2793
28076SOL    HW291087   6.455   3.295  10.572  0.4137  0.4314  1.4105
28077SOL     OW91088   7.345   7.476   1.341  0.1123 -0.2396  0.4731
28077SOL    HW191089   7.352   7.381   1.333 -0.7982 -0.4441  1.7630
28077SOL    HW291090   7.433   7.508   1.322  0.5141 -1.3643  0.3721
28078SOL     OW91091   5.785   4.135   8.029 -0.5532  0.1896 -0.4998
28078SOL    HW191092   5.794   4.230   8.017 -0.8453  0.1267 -1.2397
28078SOL    HW291093   5.690   4.122   8.040 -0.3886  0.1520  1.1787
28079SOL     OW91094   6.941  10.196  11.650 -0.3227 -0.5305  0.0821
28079SOL    HW191095   6.924  10.255  11.723 -0.2060 -0.3688 -0.0200
28079SOL    HW291096   7.013  10.237  11.602  0.8082 -1.5409  0.8716
28080SOL     OW91097   3.046   2.888  10.029 -0.4833  0.1058  0.3614
28080SOL    HW191098   3.126   2.887   9.976  0.1634 -1.0049  1.3229
28080SOL    HW291099   3.072   2.925  10.113 -1.1313  0.3469  0.4656
28081SOL     OW91100  11.433   2.916  11.498 -0.5242 -0.1457 -0.0995
28081SOL    HW191101  11.494   2.847  11.473 -0.4077 -0.1963  0.3122
28081SOL    HW291102  11.361   2.909  11.435 -1.0876 -1.4270  0.6504
28082SOL     OW91103  10.754   1.635  12.234  0.6880 -0.1684  0.3469
28082SOL    HW191104  10.734   1.546  12.204 -2.0511 -0.4155  2.5097
28082SOL    HW291105  10.774   1.624  12.327  0.4177  1.4749  0.6246
28083SOL     OW91106   0.077  10.355   0.137 -0.0213  0.1474 -0.5127
28083SOL    HW191107   0.063  10.290   0.206 -2.6587  0.4624 -0.6584
28083SOL    HW291108   0.004  10.416   0.146  2.6104  3.4866 -0.0710
28084SOL     OW91109   0.564  12.150  10.393 -0.2233 -0.2451 -0.2273
28084SOL    HW191110   0.537  12.073  10.343 -1.5711 -0.3155  0.5690
28084SOL    HW291111   0.591  12.115  10.479 -0.0898  0.1019 -0.1245
28085SOL     OW91112   1.390   3.152   3.038  0.0854  0.1977 -0.1159
28085SOL    HW191113   1.312   3.114   3.080  0.2480  0.6739  0.6498
28085SOL    HW291114   1.463   3.118   3.089  0.4844 -1.1379 -1.5120
28086SOL     OW91115  12.552   4.436   8.412 -0.3547 -0.5934  0.3731
28086SOL    HW191116  12.489   4.494   8.370  1.5126  0.3250 -1.3131
28086SOL    HW291117  12.584   4.485   8.488  1.3320  0.7625 -1.1312
28087SOL     OW91118   4.871   2.790  11.404 -0.1734  0.2121 -0.1351
28087SOL    HW191119   4.792   2.741  11.429 -0.0888  0.3201  0.3480
28087SOL    HW291120   4.915   2.734  11.340 -1.6312  0.9866 -1.9117
28088SOL     OW91121   2.081   3.746   2.587  0.1760  0.0911  0.3922
28088SOL    HW191122   2.157   3.710   2.541  0.7469  0.3569  1.1047
28088SOL    HW291123   2.026   3.670   2.606 -1.0141  0.1584 -2.3391
28089SOL     OW91124   0.432   8.527   0.412  0.4525  0.6383 -0.1854
28089SOL    HW191125   0.365   8.467   0.446  0.6787 -1.3744 -2.9586
28089SOL    HW291126   0.428   8.515   0.317  2.6854  2.7742 -0.6336
28090SOL     OW91127   7.030   7.728   1.958 -0.6416  0.0278 -0.0968
28090SOL    HW191128   7.029   7.717   1.863 -0.5191 -1.7690  0.0739
28090SOL    HW291129   7.111   7.777   1.975  0.7237 -1.8519 -0.7723
28091SOL     OW91130   1.173  10.921   8.991 -0.4734 -0.3907  0.7339
28091SOL    HW191131   1.123  10.840   9.004  0.2803 -1.0361 -0.2582
28091SOL    HW291132   1.259  10.902   9.026  0.0244 -0.3966 -0.4476
28092SOL     OW91133   3.916   5.552  11.480 -0.5924 -0.3613  0.3912
28092SOL    HW191134   3.917   5.537  11.385 -0.3405  1.6693  0.0308
28092SOL    HW291135   3.828   5.526  11.507 -0.3386 -1.9488 -0.1926
28093SOL     OW91136   5.796   0.066   1.168  0.1354  0.2769 -0.3643
28093SOL    HW191137   5.751  -0.014   1.140  1.4430 -1.2982  1.7290
28093SOL    HW291138   5.736   0.137   1.145 -1.1700 -1.3039 -2.1006
28094SOL     OW91139   5.959   9.932   7.073  0.5690  0.5116 -0.4779
28094SOL    HW191140   5.891   9.950   7.139 -0.2057  0.1247 -1.1504
28094SOL    HW291141   6.041   9.955   7.117 -0.0299  1.5131  0.1683
28095SOL     OW91142   6.943   1.214   2.828 -0.0459 -0.2789  0.3463
28095SOL    HW191143   7.006   1.169   2.885 -0.2641  1.5112  2.1278
28095SOL    HW291144   6.882   1.145   2.801  0.9778 -1.4909  1.0113
28096SOL     OW91145   6.198   6.355   2.406 -0.1666 -0.0774 -0.1201
28096SOL    HW191146   6.175   6.270   2.369  2.1806 -1.1578  0.7443
28096SOL    HW291147   6.293   6.355   2.413 -0.0381  2.7747 -0.3632
28097SOL     OW91148   1.356   4.247  12.472 -0.6422  0.7853  0.4971
28097SOL    HW191149   1.335   4.196  12.550  0.9031  0.5625  0.8089
28097SOL    HW291150   1.438   4.291  12.494 -2.0474  3.6931  0.3616
28098SOL     OW91151  10.149   2.286  11.468  0.3395  0.4887 -0.2056
28098SOL    HW191152  10.199   2.352  11.516 -0.6267  0.7029  0.5281
28098SOL    HW291153  10.174   2.203  11.508  0.0885  0.5993  0.1876
28099SOL     OW91154  12.240   9.771   9.817  0.0190 -0.3358  0.2886
28099SOL    HW191155  12.241   9.683   9.856 -0.3228 -0.2395  0.5135
28099SOL    HW291156  12.332   9.795   9.811  0.2520 -1.4372 -1.4105
28100SOL     OW91157   7.178   3.794   1.311  0.1812 -0.2739  0.5111
28100SOL    HW191158   7.228   3.784   1.230 -1.2904 -1.5054 -0.3099
28100SOL    HW291159   7.238   3.837   1.371  2.1561 -1.4910 -0.4701
28101SOL     OW91160   4.122   9.205   9.064 -0.1569  0.2697  0.5666
28101SOL    HW191161   4.094   9.244   9.146  0.9143  0.4708  0.8457
28101SOL    HW291162   4.118   9.110   9.079  2.4369  0.2677  1.7431
28102SOL     OW91163   4.607  11.125   7.392 -0.5827  0.7115 -0.1960
28102SOL    HW191164   4.527  11.128   7.340 -0.1774  1.6657 -0.7756
28102SOL    HW291165   4.677  11.115   7.328 -0.3069 -1.8964  0.3914
28103SOL     OW91166  12.076   9.517   8.578  0.0489 -0.0568  0.2988
28103SOL    HW191167  12.069   9.526   8.483  0.7821 -0.6274  0.1801
28103SOL    HW291168  11.991   9.481   8.605 -0.5497  1.0786  0.0043
28104SOL     OW91169   5.340   6.721   1.304 -0.3483 -0.4002 -0.4965
28104SOL    HW191170   5.357   6.763   1.220  2.4780 -0.0911  0.1235
28104SOL    HW291171   5.319   6.793   1.364  0.3396 -0.3107 -0.3564
28105SOL     OW91172  12.217   1.915  10.896  0.4518 -0.0419  0.5519
28105SOL    HW191173  12.124   1.893  10.904  0.5933 -0.6799  0.4458
28105SOL    HW291174  12.236   1.966  10.975 -0.5142  2.0093 -0.4557
28106SOL     OW91175   0.890   7.933   7.346  0.1379  0.2687 -0.1801
28106SOL    HW191176   0.869   7.945   7.254 -3.0733 -0.8537  0.3030
28106SOL    HW291177   0.839   8.000   7.391  2.7558  1.7586  0.8042
28107SOL     OW91178   7.665   9.690   0.646 -0.1299 -0.0281 -0.5247
28107SOL    HW191179   7.628   9.604   0.627  0.7564 -0.5307 -0.0621
28107SOL    HW291180   7.620   9.750   0.587 -0.8023 -0.8006 -0.8091
28108SOL     OW91181  10.889  12.577   9.906 -0.1247  0.6079  0.8278
28108SOL    HW191182  10.848  12.662   9.921 -0.0860  0.6170  0.8795
28108SOL    HW291183  10.885  12.533   9.991 -0.5841  0.3647  0.6852
28109SOL     OW91184   3.784   5.054   2.780 -0.5386  0.2355  0.1914
28109SOL    HW191185   3.727   5.130   2.777  0.5099  1.0108 -1.8896
28109SOL    HW291186   3.734   4.984   2.739 -1.0102  0.1402  0.9137
28110SOL     OW91187  10.258   0.530   2.150  0.2061 -0.0612 -0.7383
28110SOL    HW191188  10.328   0.568   2.097  1.0210 -0.1390  0.2471
28110SOL    HW291189  10.270   0.435   2.140  0.4010 -0.0782 -0.4005
28111SOL     OW91190   6.932  11.190  10.337  0.5348 -0.1670  0.3757
28111SOL    HW191191   7.007  11.211  10.281  1.0142 -3.7727 -0.5895
28111SOL    HW291192   6.861  11.171  10.275  0.3394 -1.7350  1.0303
28112SOL     OW91193   0.637   8.883  11.545 -0.0909 -0.1488  0.1148
28112SOL    HW191194   0.630   8.913  11.455 -2.1657 -1.8122 -0.3837
28112SOL    HW291195   0.656   8.962  11.596  0.5018  0.9243 -1.6900
28113SOL     OW91196  10.829   5.675   4.826 -0.4703 -0.5770  0.1458
28113SOL    HW191197  10.798   5.612   4.761 -1.9129 -1.9747  2.0872
28113SOL    HW291198  10.914   5.640   4.854  0.8056  0.7351 -1.8067
28114SOL     OW91199   5.849  10.605   4.091 -0.2874  0.3977  0.0689
28114SOL    HW191200   5.769  10.625   4.044 -0.2763  1.3936  0.4594
28114SOL    HW291201   5.902  10.684   4.083 -0.0869  0.4088  1.3359
28115SOL     OW91202  10.041   6.422   8.737 -0.1425  0.1600 -0.1004
28115SOL    HW191203   9.962   6.429   8.790 -0.2174  0.0695 -0.1985
28115SOL    HW291204  10.097   6.361   8.784 -0.7814 -1.0183 -0.8191
28116SOL     OW91205   6.236   9.576   8.494  0.1371 -0.0493 -0.5833
28116SOL    HW191206   6.263   9.651   8.547 -2.3532  0.0736  0.6525
28116SOL    HW291207   6.237   9.502   8.556 -1.4327 -0.1898 -0.6939
28117SOL     OW91208   0.435  12.559   0.237  0.2310 -0.9000  0.0639
28117SOL    HW191209   0.516  12.597   0.202 -0.6575  1.2554  0.2280
28117SOL    HW291210   0.390  12.523   0.160 -0.2524  1.0275 -0.6023
28118SOL     OW91211   7.365  11.533   5.710 -0.2924 -0.1876  0.2461
28118SOL    HW191212   7.331  11.546   5.622  3.4006  0.5026 -1.2798
28118SOL    HW291213   7.345  11.614   5.756  0.5715  0.8284 -1.0903
28119SOL     OW91214   1.798   2.972   1.454  0.2830  0.4665  0.1760
28119SOL    HW191215   1.871   3.025   1.424  1.4776 -1.0151  0.3514
28119SOL    HW291216   1.829   2.882   1.447 -1.7493 -0.2378 -0.2979
28120SOL     OW91217   3.541  11.860   8.023 -0.4779 -0.0415 -0.1791
28120SOL    HW191218   3.471  11.809   8.065 -0.3556  1.6688  2.2935
28120SOL    HW291219   3.622  11.824   8.059 -0.3639  1.4022  1.0712
28121SOL     OW91220   8.530  12.180   2.913 -0.3922  0.3202  0.0504
28121SOL    HW191221   8.594  12.166   2.983  0.8470  1.7080 -0.7559
28121SOL    HW291222   8.540  12.104   2.856 -0.7826 -0.3769  0.8921
28122SOL     OW91223   9.963   7.752  10.541  0.0687  0.2118  0.1898
28122SOL    HW191224   9.998   7.812  10.474 -2.0747 -0.0046 -1.2271
28122SOL    HW291225  10.026   7.757  10.613  2.2420  0.8104 -1.6491
28123SOL     OW91226   7.675   1.071   9.720  0.6537  0.8194  0.5123
28123SOL    HW191227   7.586   1.091   9.692  0.3109 -0.4274  0.6502
28123SOL    HW291228   7.710   1.015   9.650  1.1848  0.9647  0.6593
28124SOL     OW91229   9.864   9.883   4.795 -0.0572 -0.1412 -0.1127
28124SOL    HW191230   9.808   9.913   4.723  2.7292  1.5521 -1.7755
28124SOL    HW291231   9.880   9.791   4.777 -1.2552 -0.3370 -0.2762
28125SOL     OW91232   3.592   8.963   7.112  0.4611  0.4759 -0.3041
28125SOL    HW191233   3.531   8.931   7.046 -0.0061  1.2687 -0.2661
28125SOL    HW291234   3.576   8.909   7.189 -0.0713  0.5685 -0.3521
28126SOL     OW91235   9.796   2.345   9.890 -0.9191 -0.0163  0.1531
28126SOL    HW191236   9.794   2.298   9.974 -0.4822  0.2406  0.3110
28126SOL    HW291237   9.829   2.432   9.912  2.5264 -0.9362 -0.7186
28127SOL     OW91238   5.237  12.080   0.433 -0.2848  0.0860  0.3748
28127SOL    HW191239   5.311  12.033   0.472 -1.7848 -0.7024  2.4182
28127SOL    HW291240   5.225  12.038   0.348  0.4003 -1.1079  0.8421
28128SOL     OW91241   2.300   7.479   2.487 -0.4386  0.6111  0.2723
28128SOL    HW191242   2.228   7.529   2.526 -2.4753 -2.5360  0.9579
28128SOL    HW291243   2.367   7.476   2.556 -2.5028 -1.8481  2.3940
28129SOL     OW91244   6.995   2.009   2.187  0.4383 -0.3280 -0.8895
28129SOL    HW191245   7.056   1.967   2.247 -1.7797 -0.5049  1.4315
28129SOL    HW291246   6.918   1.952   2.188 -0.9458  1.4477 -1.2254
28130SOL     OW91247   0.758   6.081  10.982  0.2509 -0.3520  0.0882
28130SOL    HW191248   0.797   6.031  10.910 -0.8599 -0.4897 -0.4327
28130SOL    HW291249   0.709   6.016  11.032  0.2434 -0.0864  0.4295
28131SOL     OW91250   0.970   8.433   5.506  0.3824  0.0621  0.2934
28131SOL    HW191251   0.894   8.416   5.562 -0.1388  0.4981 -0.2589
28131SOL    HW291252   0.981   8.352   5.456 -0.2946  0.3073 -0.2712
28132SOL     OW91253   4.651   1.511  10.365 -0.0621  0.0024  0.5163
28132SOL    HW191254   4.568   1.557  10.364 -0.3611 -0.5238  0.6208
28132SOL    HW291255   4.717   1.580  10.359 -0.5225  0.3254 -1.1840
28133SOL     OW91256   8.681   6.658   4.246 -0.6446  0.4046  0.1159
28133SOL    HW191257   8.706   6.736   4.196  2.0747 -0.7979 -0.5610
28133SOL    HW291258   8.690   6.685   4.338  1.9633  0.5030 -0.0934
28134SOL     OW91259   6.131   6.721   8.718 -0.3894  0.5983 -0.3402
28134SOL    HW191260   6.049   6.675   8.737  0.3087 -0.7711 -0.5312
28134SOL    HW291261   6.168   6.741   8.804  0.4789 -1.4174 -0.1816
28135SOL     OW91262   7.978   4.342   2.279  0.4170 -0.4440 -0.0669
28135SOL    HW191263   7.928   4.332   2.360 -0.2247  1.0871 -0.2264
28135SOL    HW291264   7.925   4.403   2.226  1.2618 -0.7216 -1.2625
28136SOL     OW91265   7.849   7.292   2.469 -0.1766 -0.1257 -0.1218
28136SOL    HW191266   7.840   7.201   2.443  0.8225  0.1778 -1.6480
28136SOL    HW291267   7.810   7.342   2.398 -0.2756  0.6665  0.4670
28137SOL     OW91268  12.442   5.598   9.209  0.0546  0.4945 -0.0604
28137SOL    HW191269  12.510   5.663   9.225 -0.1787  1.0203 -1.1516
28137SOL    HW291270  12.362   5.637   9.244  0.1202  0.2923  0.3267
28138SOL     OW91271   8.137   4.447   5.285 -0.2240 -0.3525 -0.0301
28138SOL    HW191272   8.122   4.367   5.337  0.2241 -0.6536 -0.3582
28138SOL    HW291273   8.056   4.458   5.236  0.3814 -1.6806 -1.4003
28139SOL     OW91274  10.841   8.087   4.632 -0.0051 -0.0504 -0.1874
28139SOL    HW191275  10.826   8.091   4.726  0.4075  1.4424 -0.1535
28139SOL    HW291276  10.851   7.994   4.613  0.2495 -0.3552  1.3006
28140SOL     OW91277   5.101   7.451   5.907  0.1153  0.1465 -0.3178
28140SOL    HW191278   5.131   7.518   5.969 -1.9361  0.4539  0.4322
28140SOL    HW291279   5.148   7.372   5.932  0.0436  0.5090  1.0311
28141SOL     OW91280   5.045   0.921  12.348 -0.3490 -0.2399  0.3277
28141SOL    HW191281   5.114   0.885  12.404 -0.7507 -0.3617  0.7597
28141SOL    HW291282   4.969   0.865  12.367 -0.7234  0.2565  0.3014
28142SOL     OW91283   8.620   8.814  10.902 -0.5201 -0.3717  0.1255
28142SOL    HW191284   8.656   8.903  10.901 -1.1261 -0.0949  0.9057
28142SOL    HW291285   8.526   8.828  10.918 -0.7556 -1.1181 -0.5823
28143SOL     OW91286   4.842   8.354   0.146  0.9107  0.3705 -0.2042
28143SOL    HW191287   4.856   8.308   0.228 -1.9465 -0.6574 -0.1813
28143SOL    HW291288   4.755   8.392   0.154 -0.7985 -2.1879 -3.7164
28144SOL     OW91289   8.307   3.964  10.828  0.3056 -0.5834 -0.5606
28144SOL    HW191290   8.333   3.882  10.870 -1.1658 -0.2988  1.0283
28144SOL    HW291291   8.307   4.028  10.900  0.1836  0.5262 -1.5241
28145SOL     OW91292   2.910  12.245   6.520  0.0389 -0.4576  0.0630
28145SOL    HW191293   2.995  12.206   6.498  0.3690 -1.0725  2.2007
28145SOL    HW291294   2.923  12.339   6.507  1.2295 -0.4910  0.8854
28146SOL     OW91295   1.262   5.233   1.279  0.5690  0.1362  0.2360
28146SOL    HW191296   1.329   5.164   1.282 -0.3058 -0.7390  2.8050
28146SOL    HW291297   1.205   5.209   1.206  1.6430 -0.4768 -0.4301
28147SOL     OW91298   1.672   4.967   7.543 -0.0986  0.4022  0.2270
28147SOL    HW191299   1.645   5.058   7.544 -2.7552 -0.3011 -0.3637
28147SOL    HW291300   1.654   4.937   7.454  1.1213 -0.6210  0.2855
28148SOL     OW91301   7.495   1.148  10.497 -0.7398 -0.1056 -0.1678
28148SOL    HW191302   7.545   1.229  10.485  0.0048 -0.2774  1.5060
28148SOL    HW291303   7.446   1.138  10.415  1.2175  0.5889 -1.4935
28149SOL     OW91304   2.815   0.205   6.335  0.0705 -0.1577 -0.4932
28149SOL    HW191305   2.801   0.263   6.410  1.1915 -0.8668  0.3005
28149SOL    HW291306   2.734   0.155   6.327 -0.2631  0.3101 -0.1015
28150SOL     OW91307   7.084   7.654   6.204  0.5256 -0.2185 -0.0029
28150SOL    HW191308   7.023   7.594   6.248 -0.1939  0.3299 -0.2249
28150SOL    HW291309   7.049   7.741   6.223  1.3509  0.1180  0.0042
28151SOL     OW91310   9.583   5.244   0.173 -0.5481 -0.9420  0.6486
28151SOL    HW191311   9.551   5.334   0.165  1.2286 -0.0568  2.3781
28151SOL    HW291312   9.508   5.189   0.152 -1.7223  0.9460 -0.3278
28152SOL     OW91313   7.832   9.474   8.182  0.0386  0.0483 -0.7272
28152SOL    HW191314   7.770   9.500   8.114 -0.3221 -1.9670 -1.2210
28152SOL    HW291315   7.833   9.378   8.179  0.8548 -0.0653  1.3655
28153SOL     OW91316   2.184   4.785   9.051 -0.3706  0.1082  0.4171
28153SOL    HW191317   2.187   4.692   9.028  0.5701  0.2521 -0.0857
28153SOL    HW291318   2.140   4.827   8.977  1.9424  0.4589 -0.8675
28154SOL     OW91319   5.086   2.798   6.469  0.2629  0.2578 -0.5736
28154SOL    HW191320   5.095   2.883   6.513  0.6252 -0.5028  0.8591
28154SOL    HW291321   4.994   2.774   6.483  0.4373 -0.0919 -0.0443
28155SOL     OW91322   1.043   7.302   5.911 -0.3145 -0.2685  0.0015
28155SOL    HW191323   0.950   7.322   5.915  0.0047  1.4520 -0.4418
28155SOL    HW291324   1.062   7.293   5.818  0.4312  2.0539 -0.1364
28156SOL     OW91325   3.730   1.866   3.925  0.5697 -0.4520 -0.4908
28156SOL    HW191326   3.817   1.864   3.965  1.2606 -1.5980 -1.9399
28156SOL    HW291327   3.733   1.939   3.864 -0.1150  0.6106  0.6997
28157SOL     OW91328  10.048  12.410  10.682 -0.4554  0.2559  0.3137
28157SOL    HW191329   9.975  12.407  10.620  0.3313  2.7854 -0.9104
28157SOL    HW291330  10.103  12.336  10.657 -2.0626 -1.1026  0.6156
28158SOL     OW91331   4.485  10.609   2.729 -0.3309 -0.3052  0.0882
28158SOL    HW191332   4.410  10.561   2.764 -0.9959  1.2241  0.8946
28158SOL    HW291333   4.446  10.677   2.673  0.1171  2.3194  2.6775
28159SOL     OW91334   2.554   8.478   8.829 -0.2062  0.3252 -0.2557
28159SOL    HW191335   2.501   8.411   8.785  0.8374  0.3238 -1.5519
28159SOL    HW291336   2.606   8.430   8.893 -2.6096  0.4674  1.9650
28160SOL     OW91337   7.856   7.212  11.885  0.4255 -0.7144  0.3457
28160SOL    HW191338   7.834   7.286  11.941 -0.6459 -1.6684  1.2562
28160SOL    HW291339   7.886   7.251  11.803  0.7408  0.7085  1.1065
28161SOL     OW91340   4.148   1.767   0.836  0.5963  0.6747  0.9486
28161SOL    HW191341   4.185   1.727   0.914 -1.9152  0.6682  2.2165
28161SOL    HW291342   4.108   1.849   0.866 -0.8754  0.4270 -0.1911
28162SOL     OW91343  10.887   7.205   8.587 -0.3106  0.5222  0.0862
28162SOL    HW191344  10.965   7.190   8.640 -0.5000  1.0639  0.5307
28162SOL    HW291345  10.909   7.281   8.533  0.2223 -0.5900 -1.3088
28163SOL     OW91346  11.207   6.674  12.458 -0.5563 -0.2230 -0.0908
28163SOL    HW191347  11.132   6.646  12.511 -0.6495  0.5471  0.1931
28163SOL    HW291348  11.198   6.769  12.452  1.2699  0.0980  1.3090
28164SOL     OW91349   9.915   1.816   7.777 -0.6010  0.4037 -0.3073
28164SOL    HW191350   9.914   1.724   7.750 -3.0358  0.6234 -1.2069
28164SOL    HW291351   9.883   1.814   7.867 -0.0828  0.3382 -0.1204
28165SOL     OW91352   7.402   3.952   6.697 -0.3119 -0.0099 -0.5723
28165SOL    HW191353   7.362   4.017   6.755 -0.4149 -0.7485  0.2018
28165SOL    HW291354   7.401   3.993   6.611 -2.7970  0.0003 -0.6002
28166SOL     OW91355   8.230   6.457   1.677  0.0480  0.1229  0.0230
28166SOL    HW191356   8.319   6.491   1.667 -0.0716  0.6823  0.7864
28166SOL    HW291357   8.239   6.362   1.669  0.4956  0.2616 -1.3786
28167SOL     OW91358   8.140  10.037   2.070 -0.0992 -0.8992  0.0154
28167SOL    HW191359   8.059  10.086   2.058  0.4768 -0.1486 -0.8892
28167SOL    HW291360   8.209  10.102   2.061  0.6597 -1.7678 -0.5917
28168SOL     OW91361  11.657   7.084   1.366 -0.0476  0.0548  0.0244
28168SOL    HW191362  11.615   7.036   1.294  0.5508  1.0241 -1.0080
28168SOL    HW291363  11.698   7.017   1.419  1.4135 -0.5647 -1.7904
28169SOL     OW91364   7.160   6.569  11.073 -0.0440  0.4143 -0.4386
28169SOL    HW191365   7.075   6.599  11.103  0.2501  1.0502 -0.2255
28169SOL    HW291366   7.170   6.605  10.985  0.2839  0.9142 -0.2042
28170SOL     OW91367   5.421  11.938   7.470  0.2865  0.1756  0.5220
28170SOL    HW191368   5.409  11.847   7.500 -0.0791  0.1606  0.3292
28170SOL    HW291369   5.483  11.975   7.533 -1.8382  0.6940  2.4137
28171SOL     OW91370   1.536   5.890   8.177 -0.1483  0.1842 -0.2196
28171SOL    HW191371   1.491   5.825   8.122 -0.0501  0.8815 -1.1408
28171SOL    HW291372   1.514   5.864   8.267 -0.6498 -0.7349 -0.5940
28172SOL     OW91373   8.287  11.416   0.057 -0.3586  0.1251 -0.0369
28172SOL    HW191374   8.251  11.347   0.114  0.1275 -0.2755 -0.2136
28172SOL    HW291375   8.327  11.369  -0.016  0.9014  0.5352  0.3605
28173SOL     OW91376   5.546   9.158   1.575  0.3834 -0.3323  0.2096
28173SOL    HW191377   5.500   9.180   1.656  0.2006  0.2318 -0.0354
28173SOL    HW291378   5.628   9.208   1.580  1.7733 -2.5718  1.3880
28174SOL     OW91379   9.907   7.943   5.884  0.0157 -0.3406  0.8943
28174SOL    HW191380   9.992   7.920   5.921 -0.4600 -1.7937  1.1794
28174SOL    HW291381   9.905   8.038   5.883  2.0275 -0.2729 -0.0445
28175SOL     OW91382   3.843   3.288   2.338  0.0887 -0.8428 -0.6531
28175SOL    HW191383   3.904   3.293   2.265 -1.1619  1.3741 -1.6522
28175SOL    HW291384   3.797   3.205   2.325 -0.8756 -0.0133 -3.1158
28176SOL     OW91385   7.095   7.338   3.250 -0.0792  0.3109 -0.0850
28176SOL    HW191386   7.135   7.320   3.335 -0.4581 -0.5563 -0.0817
28176SOL    HW291387   7.167   7.371   3.196  0.0799  1.2820  0.6817
28177SOL     OW91388   0.726  10.932   4.512  0.3944 -0.1226 -0.1563
28177SOL    HW191389   0.633  10.948   4.497  0.5245  0.1983 -0.6509
28177SOL    HW291390   0.752  11.001   4.573  0.0624 -0.8896  0.8699
28178SOL     OW91391  11.255   4.989   9.853  0.2466 -0.6319 -0.1577
28178SOL    HW191392  11.234   4.919   9.915  2.4660 -0.7671  0.5381
28178SOL    HW291393  11.310   4.947   9.787  1.2789  0.3308  0.0510
28179SOL     OW91394  10.377   6.482   6.436  0.2646  0.0404 -0.1922
28179SOL    HW191395  10.352   6.429   6.512  2.0777  0.1957  0.5633
28179SOL    HW291396  10.365   6.424   6.361 -0.3271 -0.5495  0.3538
28180SOL     OW91397  11.632   6.758   6.097 -0.0472  0.2251  0.2891
28180SOL    HW191398  11.578   6.832   6.070  0.7003  0.5341 -0.4213
28180SOL    HW291399  11.575   6.705   6.152 -1.9796 -0.8607 -2.5079
28181SOL     OW91400   6.850   9.878   8.749 -0.2401 -0.0585 -0.2134
28181SOL    HW191401   6.779   9.822   8.718 -0.0491 -0.4583  0.0555
28181SOL    HW291402   6.920   9.817   8.773  0.2151  0.3301 -0.5201
28182SOL     OW91403   7.920   1.013   3.117 -0.2952  0.1803  0.0707
28182SOL    HW191404   7.825   1.015   3.105 -0.2996  1.5432  0.1043
28182SOL    HW291405   7.934   1.061   3.199  0.3383 -1.2046  0.7929
28183SOL     OW91406   8.731   4.769   5.343 -0.1988 -0.0017  0.1456
28183SOL    HW191407   8.744   4.845   5.287  2.3006 -0.5424 -0.1370
28183SOL    HW291408   8.761   4.797   5.430  2.2689 -1.0379 -0.2981
28184SOL     OW91409   7.118   9.134   6.524  0.0281  0.3676  0.8301
28184SOL    HW191410   7.182   9.111   6.591  3.5408  3.2783 -1.2122
28184SOL    HW291411   7.104   9.052   6.476 -0.4098 -1.0828  3.2587
28185SOL     OW91412   5.386   4.618  12.569 -0.0859  0.4421  0.2342
28185SOL    HW191413   5.295   4.639  12.547  0.0558 -0.4216 -1.2813
28185SOL    HW291414   5.428   4.703  12.579 -1.2915  0.8812  2.1637
28186SOL     OW91415   6.856   8.401  11.820  0.4965  0.0544  0.5251
28186SOL    HW191416   6.921   8.335  11.796 -0.4273 -1.1951  1.3946
28186SOL    HW291417   6.898   8.451  11.890  1.5179  0.9719 -0.6823
28187SOL     OW91418   8.416   9.816   9.965  0.0273 -0.0960  0.1246
28187SOL    HW191419   8.351   9.815   9.894  0.8145  1.9032 -0.7251
28187SOL    HW291420   8.500   9.831   9.920  1.3376 -3.6576  1.0844
28188SOL     OW91421   7.140   1.769   1.550  0.3509 -0.0835 -0.2479
28188SOL    HW191422   7.109   1.717   1.476 -0.6234  1.0796 -0.6948
28188SOL    HW291423   7.175   1.705   1.611  0.2321 -1.1597 -1.2690
28189SOL     OW91424   4.589  11.009   3.759  0.4044 -0.5124  0.2889
28189SOL    HW191425   4.602  10.966   3.674  0.9871 -0.4901  0.3640
28189SOL    HW291426   4.584  11.102   3.739  0.8194 -0.4853  0.3085
28190SOL     OW91427  10.345  10.214   3.042  0.9093  0.0078  0.0616
28190SOL    HW191428  10.257  10.225   3.078  0.1182 -2.6385 -0.8445
28190SOL    HW291429  10.401  10.267   3.099 -1.3442  2.6957  0.0015
28191SOL     OW91430  11.059   6.732   8.955  0.3636 -0.2725  0.6923
28191SOL    HW191431  11.033   6.807   9.009  1.2543 -0.0687  0.8588
28191SOL    HW291432  11.038   6.656   9.008  1.3351 -0.0705  1.4010
28192SOL     OW91433   9.688  11.967   0.491 -0.3512 -0.3166  0.5440
28192SOL    HW191434   9.614  12.028   0.483 -0.8793 -1.0611 -0.4856
28192SOL    HW291435   9.764  12.019   0.465 -0.8354 -0.1576 -0.6323
28193SOL     OW91436   5.184   7.280  10.566 -0.3203  0.0309 -0.1963
28193SOL    HW191437   5.211   7.306  10.655  0.1157 -1.0657  0.0065
28193SOL    HW291438   5.122   7.209  10.580 -0.7526  0.2901 -0.7688
28194SOL     OW91439   2.940   1.670   4.841 -0.1146 -0.5247  0.3709
28194SOL    HW191440   2.878   1.605   4.875 -0.3857  0.4934  1.9255
28194SOL    HW291441   2.961   1.725   4.917  1.2523  0.3049 -0.5607
28195SOL     OW91442   3.211   5.685   1.049 -0.0297 -0.4827  0.0495
28195SOL    HW191443   3.233   5.759   0.993 -1.2142 -0.7907 -0.8515
28195SOL    HW291444   3.161   5.626   0.993  2.8902 -3.1866 -0.0026
28196SOL     OW91445   7.591   8.283   2.826 -0.2025 -0.2447 -0.4062
28196SOL    HW191446   7.658   8.285   2.894  0.6272 -1.5403 -1.1436
28196SOL    HW291447   7.638   8.263   2.745 -1.2335  0.7357 -1.3026
28197SOL     OW91448   4.136   8.581   6.885 -0.0924 -0.4916  0.5246
28197SOL    HW191449   4.198   8.610   6.952  2.0013 -0.8631 -1.1639
28197SOL    HW291450   4.140   8.648   6.817 -2.8774  0.3622  1.0603
28198SOL     OW91451  10.507   5.536  12.058 -0.3969 -0.1394  0.1024
28198SOL    HW191452  10.556   5.574  12.131  1.4541 -0.2455 -1.0384
28198SOL    HW291453  10.501   5.607  11.994  1.8120 -1.2140 -1.4302
28199SOL     OW91454   2.925   6.770   9.149  0.9701 -0.1861 -0.1669
28199SOL    HW191455   2.838   6.748   9.117  0.6593 -0.3275  0.7317
28199SOL    HW291456   2.985   6.743   9.079  0.2965 -0.1042 -0.7828
28200SOL     OW91457   5.026   6.383   3.976  0.2392 -0.0572  0.5023
28200SOL    HW191458   5.103   6.436   3.957  1.4333 -2.0173 -0.5009
28200SOL    HW291459   5.042   6.350   4.065  0.5237 -0.3544  0.3458
28201SOL     OW91460   5.516   0.255   5.910  0.2766  0.4192 -0.0437
28201SOL    HW191461   5.443   0.242   5.849  0.6496  0.0962 -0.4290
28201SOL    HW291462   5.497   0.196   5.983 -0.1256  0.7417  0.1159
28202SOL     OW91463   8.040   9.418   2.744  0.1975 -0.0981 -0.1149
28202SOL    HW191464   8.065   9.494   2.690  4.2988 -1.1961 -0.0856
28202SOL    HW291465   7.994   9.456   2.819 -4.2885  1.6122 -3.3141
28203SOL     OW91466   7.346  10.713  12.024  0.5200  0.1419 -0.1366
28203SOL    HW191467   7.380  10.674  12.105  1.0144 -2.8412 -1.6297
28203SOL    HW291468   7.269  10.763  12.051  0.1653 -1.4778  2.0764
28204SOL     OW91469   0.812  11.931   4.588  0.0596  0.0992  0.3984
28204SOL    HW191470   0.826  11.985   4.511  2.5578 -0.8086  0.1479
28204SOL    HW291471   0.756  11.984   4.644  0.7846  2.0981 -0.6772
28205SOL     OW91472  11.432   5.673   9.437  0.1102 -0.1013  0.3446
28205SOL    HW191473  11.446   5.765   9.461 -0.0540  0.2421 -0.8298
28205SOL    HW291474  11.343   5.654   9.466 -0.0061  0.2341  0.2032
28206SOL     OW91475   9.908   2.762   0.541 -1.0091  0.2068  0.5792
28206SOL    HW191476   9.910   2.734   0.450 -0.2154 -0.6587  0.8532
28206SOL    HW291477   9.983   2.720   0.582 -0.8514  1.2667  1.4504
28207SOL     OW91478   1.763   4.082  12.401  0.2576 -0.1815  0.2284
28207SOL    HW191479   1.670   4.078  12.424 -0.7625  1.1104 -3.0457
28207SOL    HW291480   1.794   4.162  12.444 -0.3835 -0.1135  0.5842
28208SOL     OW91481   6.380   3.313   2.207  0.1444  0.5231 -0.1434
28208SOL    HW191482   6.359   3.246   2.272  2.9715  1.3541  1.8156
28208SOL    HW291483   6.473   3.300   2.188  0.0424  2.0205 -2.0098
28209SOL     OW91484   1.914   5.534   1.491 -0.7980 -0.0978  0.5494
28209SOL    HW191485   1.898   5.610   1.434  2.4518 -0.6951 -1.4451
28209SOL    HW291486   1.850   5.469   1.462 -0.5175  0.3031 -1.0956
28210SOL     OW91487   8.722  11.696   5.918  0.2159  0.2639 -0.2080
28210SOL    HW191488   8.716  11.718   6.011 -0.1742 -0.2010 -0.1190
28210SOL    HW291489   8.797  11.637   5.913  0.4837  0.6043 -0.2525
28211SOL     OW91490   0.183   5.282  10.211  0.0303 -0.1578  0.2043
28211SOL    HW191491   0.094   5.283  10.176 -0.7347  1.7717  2.0301
28211SOL    HW291492   0.229   5.349  10.161  0.6021 -1.3799 -0.9653
28212SOL     OW91493   8.622  11.269   9.929 -0.1870  0.5000  0.4415
28212SOL    HW191494   8.651  11.189   9.975  0.2666  0.2474 -0.2670
28212SOL    HW291495   8.696  11.292   9.873 -0.6095  0.9988  0.0846
28213SOL     OW91496  12.224   8.565   2.641 -0.1451 -0.2197  0.0959
28213SOL    HW191497  12.177   8.647   2.623 -2.9664 -1.5201  0.9804
28213SOL    HW291498  12.218   8.515   2.560 -2.0082 -1.0885  0.6948
28214SOL     OW91499   0.427   3.343  10.082 -0.3481 -0.3697 -0.0994
28214SOL    HW191500   0.464   3.414  10.030  0.3897 -0.7490 -0.1142
28214SOL    HW291501   0.332   3.354  10.076 -0.2497  0.1200 -0.7727
28215SOL     OW91502   8.978   8.888  11.974 -0.1586 -0.2175  0.0373
28215SOL    HW191503   8.960   8.816  11.913  1.9605  0.0437 -1.0057
28215SOL    HW291504   8.909   8.951  11.957 -0.8251 -1.0810 -0.5783
28216SOL     OW91505   3.119  11.693   6.679  0.5976 -0.1331 -0.5384
28216SOL    HW191506   3.115  11.774   6.731 -1.5603 -0.3836 -0.2408
28216SOL    HW291507   3.069  11.630   6.730  1.2864 -1.3539 -1.3332
28217SOL     OW91508   7.428   0.810  10.417 -0.0966  0.1051 -0.2696
28217SOL    HW191509   7.399   0.879  10.356  1.5622 -1.2543 -2.7592
28217SOL    HW291510   7.520   0.830  10.434  0.2454 -1.1129 -0.5588
28218SOL     OW91511   2.695   5.087   0.502 -0.5365 -0.1001  0.4109
28218SOL    HW191512   2.733   5.045   0.579 -0.8319  1.0381  1.1983
28218SOL    HW291513   2.687   5.179   0.526 -1.5993  0.0948 -0.6011
28219SOL     OW91514   7.855   0.021   0.070 -0.3608  0.1736 -0.8193
28219SOL    HW191515   7.770   0.035   0.112 -0.1546  1.3658 -0.7623
28219SOL    HW291516   7.917   0.012   0.143 -0.3360  0.0191 -0.8597
28220SOL     OW91517  11.558   9.522  10.430  0.1209  0.1156  0.6289
28220SOL    HW191518  11.625   9.460  10.400  0.1811  0.4846 -0.0059
28220SOL    HW291519  11.557   9.511  10.525  0.2436 -0.7492  0.5463
28221SOL     OW91520   1.570   9.060   9.943 -0.2438  0.0507  0.2302
28221SOL    HW191521   1.641   8.997   9.931 -0.5035 -0.4562  1.2426
28221SOL    HW291522   1.490   9.009   9.933 -0.4543  0.2344  0.9344
28222SOL     OW91523   4.770   1.787   2.717 -0.6981 -0.2835 -0.1454
28222SOL    HW191524   4.733   1.699   2.719  0.8105 -0.9775 -1.0651
28222SOL    HW291525   4.744   1.822   2.632  0.5590 -0.7255 -0.7404
28223SOL     OW91526   7.873  10.910  11.281 -0.3823  0.0994  0.1938
28223SOL    HW191527   7.805  10.938  11.343  0.6908  0.6483  1.1584
28223SOL    HW291528   7.877  10.979  11.216 -0.1584  0.4970  0.6237
28224SOL     OW91529  11.307   2.705  12.044  0.2748 -0.4678 -0.2036
28224SOL    HW191530  11.331   2.681  12.133 -2.4854 -1.6880  0.3147
28224SOL    HW291531  11.261   2.788  12.052 -0.8571 -1.0595 -0.2979
28225SOL     OW91532   8.879   9.564   9.452 -0.4340  0.1623  0.1804
28225SOL    HW191533   8.952   9.608   9.409 -1.2533  0.6894 -0.7310
28225SOL    HW291534   8.854   9.623   9.523  0.5356 -0.4172  1.0257
28226SOL     OW91535   8.642   6.308   6.793  0.5604 -0.7461 -1.1047
28226SOL    HW191536   8.723   6.350   6.763  1.8018 -0.5175  2.1548
28226SOL    HW291537   8.578   6.379   6.796  1.3669 -0.0388 -0.0305
28227SOL     OW91538   2.654   0.368   3.947 -0.0922  0.2671  0.4143
28227SOL    HW191539   2.748   0.383   3.959  0.4187 -0.8428 -1.7359
28227SOL    HW291540   2.632   0.301   4.012  0.0556  2.0091  2.3936
28228SOL     OW91541  10.836   1.833  10.474 -0.1205 -0.7012  0.3347
28228SOL    HW191542  10.812   1.758  10.529 -2.1271  0.0326  0.5339
28228SOL    HW291543  10.837   1.907  10.534  0.0600 -0.2790 -0.1826
28229SOL     OW91544   8.203  11.290   7.258 -0.5307  0.3688  0.1023
28229SOL    HW191545   8.265  11.294   7.331  0.0826 -0.4966 -0.3527
28229SOL    HW291546   8.168  11.379   7.251  0.1316  0.6914  0.8255
28230SOL     OW91547   9.977   6.479   3.233  0.0141  0.0235  0.2292
28230SOL    HW191548   9.967   6.519   3.147 -1.2270 -1.0149 -0.1297
28230SOL    HW291549  10.063   6.510   3.263  0.3067  0.6990 -1.2018
28231SOL     OW91550   8.195  10.268   6.880  0.4754  0.8227  0.2452
28231SOL    HW191551   8.181  10.362   6.870 -0.3373  0.9740  2.2487
28231SOL    HW291552   8.146  10.229   6.807  2.4482  1.9518 -1.8081
28232SOL     OW91553   6.776   3.990   5.949  0.6592  0.5848  0.0737
28232SOL    HW191554   6.812   4.046   5.879  0.6360 -0.3057 -0.6767
28232SOL    HW291555   6.835   4.004   6.023  1.8692  0.0624 -0.7559
28233SOL     OW91556   2.668   2.731   4.159 -0.1379  0.5215 -0.1697
28233SOL    HW191557   2.728   2.778   4.216  0.7923 -1.9643  1.0507
28233SOL    HW291558   2.706   2.643   4.151 -0.2681  0.6452 -4.6009
28234SOL     OW91559   9.900   4.908  12.498  0.2191 -0.0285 -0.1062
28234SOL    HW191560   9.890   4.849  12.424  2.4967 -0.1334 -0.3826
28234SOL    HW291561   9.810   4.932  12.522 -0.7215 -2.5563 -0.8018
28235SOL     OW91562   4.673   7.076   0.378  0.4202 -0.5782  0.0360
28235SOL    HW191563   4.604   7.103   0.440  0.1065 -2.1625  0.4326
28235SOL    HW291564   4.630   7.079   0.293  0.8418  1.5834 -0.1480
28236SOL     OW91565  10.338   4.996   9.277  0.1565 -0.1251 -0.4050
28236SOL    HW191566  10.347   4.973   9.370  1.6833 -0.0693 -0.5211
28236SOL    HW291567  10.267   4.940   9.246 -0.1508 -0.3943  0.7040
28237SOL     OW91568  10.485   3.339   8.818  0.4349 -0.1199  0.4957
28237SOL    HW191569  10.510   3.431   8.822  0.2099  0.0777 -1.6292
28237SOL    HW291570  10.396   3.339   8.782  0.9735 -1.1806 -0.9460
28238SOL     OW91571   8.340  12.425   1.064 -0.4602  0.1860 -0.0165
28238SOL    HW191572   8.406  12.494   1.063  0.1934 -0.3462  1.9582
28238SOL    HW291573   8.364  12.367   0.991  1.8832 -0.5229  1.2236
28239SOL     OW91574   4.721   2.016  11.399  0.4229  0.1424  0.0622
28239SOL    HW191575   4.641   1.994  11.351 -0.8562  2.7871  0.7939
28239SOL    HW291576   4.792   1.999  11.337 -0.8247 -0.5476 -1.2323
28240SOL     OW91577   0.572   9.409   9.490 -0.0812  0.7651 -0.3828
28240SOL    HW191578   0.636   9.354   9.443  0.5629  1.9328 -0.9264
28240SOL    HW291579   0.549   9.478   9.427 -0.7416  1.2196  0.3363
28241SOL     OW91580   5.569  10.104   1.145  0.0794 -0.0028  0.0738
28241SOL    HW191581   5.555  10.078   1.236 -2.6685 -3.3700 -1.1119
28241SOL    HW291582   5.501  10.170   1.129  3.3746  4.2275  1.4262
28242SOL     OW91583   6.501   7.497   0.387  0.2161  0.5880 -0.8255
28242SOL    HW191584   6.514   7.545   0.469  0.1095  0.5484 -0.7856
28242SOL    HW291585   6.564   7.425   0.391  0.5281  0.8434 -0.9807
28243SOL     OW91586  12.074   4.090   8.248 -0.2276  0.3248 -0.2153
28243SOL    HW191587  12.039   4.175   8.274 -0.4541  0.4190 -0.8283
28243SOL    HW291588  12.149   4.111   8.192  0.1646  0.1209  0.2274
28244SOL     OW91589   7.411   0.909   3.965  0.1393  0.4479 -0.3573
28244SOL    HW191590   7.325   0.874   3.947  1.7820 -3.8354 -0.9348
28244SOL    HW291591   7.438   0.952   3.884 -0.3361 -0.7773 -1.1778
28245SOL     OW91592   6.402  12.376   1.787  0.1098  0.1236 -0.6647
28245SOL    HW191593   6.318  12.418   1.766  0.2587  0.9087  0.2590
28245SOL    HW291594   6.378  12.298   1.837 -0.0853  0.0637 -0.8490
28246SOL     OW91595   6.218  11.935  10.737  0.5636 -0.3652 -0.4821
28246SOL    HW191596   6.152  11.890  10.683 -0.2604  1.1899 -0.8328
28246SOL    HW291597   6.173  11.954  10.819  0.2410  1.4633 -1.0370
28247SOL     OW91598  11.352  12.006   1.151 -0.2337 -0.0483 -0.5250
28247SOL    HW191599  11.388  11.920   1.172  2.5346  1.1914  0.2134
28247SOL    HW291600  11.342  12.006   1.056  3.0677 -0.0741 -0.9562
28248SOL     OW91601  12.211   5.199   0.337 -0.0026 -0.0075 -0.4872
28248SOL    HW191602  12.269   5.259   0.291  1.9770 -2.0022 -0.7552
28248SOL    HW291603  12.123   5.232   0.318  0.9513  2.9740 -0.2779
28249SOL     OW91604   3.657   2.481   4.344  0.1529 -0.2034 -0.2225
28249SOL    HW191605   3.710   2.561   4.340 -1.4225  0.8370 -1.5050
28249SOL    HW291606   3.705   2.424   4.403  1.1673  1.8299  1.0546
28250SOL     OW91607   9.628   9.461   9.755 -0.0861 -0.6534 -0.5458
28250SOL    HW191608   9.546   9.448   9.804 -0.5960 -1.2526 -1.5284
28250SOL    HW291609   9.689   9.399   9.795 -0.2211 -0.4825 -0.0654
28251SOL     OW91610   8.591  12.302  12.070  0.3174 -0.0774 -0.5427
28251SOL    HW191611   8.669  12.355  12.052 -0.1863  0.6782 -0.5600
28251SOL    HW291612   8.620  12.212  12.057  1.2252  0.1799 -0.4232
28252SOL     OW91613   8.057   6.748   3.266  0.0692 -0.1715  0.1976
28252SOL    HW191614   8.100   6.766   3.349  1.2877 -0.4209 -0.3486
28252SOL    HW291615   8.126   6.761   3.200 -0.6098 -0.8789 -0.6849
28253SOL     OW91616   2.876  11.712   2.911 -0.0782 -0.2243 -0.1924
28253SOL    HW191617   2.892  11.800   2.876  0.1646 -0.3969 -0.5170
28253SOL    HW291618   2.826  11.667   2.843  0.3694 -0.5503 -0.3145
28254SOL     OW91619  11.424   7.220   6.748 -0.0824  0.4767 -0.2507
28254SOL    HW191620  11.501   7.272   6.772  0.1410  0.5278 -1.0592
28254SOL    HW291621  11.459   7.133   6.729 -0.7171 -0.8514  3.6507
28255SOL     OW91622   4.252  11.893   3.130 -0.0479  0.0933  0.0859
28255SOL    HW191623   4.184  11.841   3.171  1.1112 -0.6761  1.1043
28255SOL    HW291624   4.313  11.914   3.201  0.6443  0.9670 -0.7406
28256SOL     OW91625   3.812  11.598  11.150  0.2450  0.2812  0.0119
28256SOL    HW191626   3.740  11.605  11.212  0.0843  1.7025 -0.3076
28256SOL    HW291627   3.780  11.638  11.069  0.6942 -0.9115 -0.7882
28257SOL     OW91628  12.035   9.485   2.289  0.0385  0.4881  0.2928
28257SOL    HW191629  11.996   9.403   2.261  1.0522 -0.2228  0.8883
28257SOL    HW291630  12.070   9.466   2.376  0.6704  1.4263  0.2559
28258SOL     OW91631   1.620   7.368   3.976 -0.1244 -0.3879 -0.0281
28258SOL    HW191632   1.668   7.291   4.008 -1.0572 -1.2272 -0.5807
28258SOL    HW291633   1.613   7.425   4.053  0.1343 -1.0792  0.5278
28259SOL     OW91634  10.676  12.354  12.207 -0.0231  0.3163 -0.2708
28259SOL    HW191635  10.702  12.415  12.275 -0.0562  0.4953 -0.4186
28259SOL    HW291636  10.585  12.376  12.188 -0.1479 -0.0107 -0.0766
28260SOL     OW91637   1.299   1.512  11.406  0.4575 -0.4314  0.3611
28260SOL    HW191638   1.259   1.530  11.321 -2.0524 -0.6425  1.3856
28260SOL    HW291639   1.312   1.417  11.406  0.9696 -0.3658  0.0324
28261SOL     OW91640   7.380  10.413   1.928 -0.2704 -0.0969  0.1491
28261SOL    HW191641   7.293  10.454   1.929 -0.6675 -0.8787 -1.1726
28261SOL    HW291642   7.383  10.364   1.847  0.2149 -2.6562  1.6179
28262SOL     OW91643  10.359   5.340   4.266  0.0228 -0.1287  0.6439
28262SOL    HW191644  10.309   5.259   4.267 -0.3339  0.0946  1.2439
28262SOL    HW291645  10.293   5.409   4.257  0.4836 -0.0031 -2.9662
28263SOL     OW91646   6.262  10.774   9.109  0.0042 -0.2045  0.3721
28263SOL    HW191647   6.259  10.769   9.204  0.1686  1.5083  0.5074
28263SOL    HW291648   6.279  10.867   9.091  3.8296 -1.0120 -1.2330
28264SOL     OW91649   5.486   2.611   8.708 -0.6328 -0.0041  0.0760
28264SOL    HW191650   5.533   2.571   8.781 -0.0581  1.3236  0.4482
28264SOL    HW291651   5.549   2.612   8.636 -0.2851  1.2282  0.3948
28265SOL     OW91652   0.416   4.476  11.286  0.1893 -0.1262  0.2303
28265SOL    HW191653   0.395   4.568  11.301  0.4052 -0.0916  0.3241
28265SOL    HW291654   0.455   4.447  11.369  3.0228  0.5225 -0.7618
28266SOL     OW91655   2.620   5.390   6.257  0.2538  0.6325 -0.3705
28266SOL    HW191656   2.577   5.473   6.279 -1.0072 -0.3165  0.8948
28266SOL    HW291657   2.662   5.407   6.172 -0.9067  2.2326 -0.6710
28267SOL     OW91658   5.699   2.639   9.448  0.0221 -0.2824 -0.2405
28267SOL    HW191659   5.621   2.672   9.403  0.4664 -1.2466 -1.8077
28267SOL    HW291660   5.768   2.645   9.382  0.6508 -1.9714  0.2063
28268SOL     OW91661   6.117   1.394   6.978  1.1053  0.4448  0.2135
28268SOL    HW191662   6.142   1.325   7.039 -0.8035 -0.4531  0.0741
28268SOL    HW291663   6.097   1.469   7.033  0.5617  0.0139  0.6241
28269SOL     OW91664   7.588   8.282   3.376  0.4930  0.0206  0.3413
28269SOL    HW191665   7.521   8.319   3.319 -0.1950  1.1667  1.8195
28269SOL    HW291666   7.549   8.202   3.411 -0.4590  1.0632  1.7692
28270SOL     OW91667   8.896  10.952   5.394 -0.3080  0.3329 -0.1227
28270SOL    HW191668   8.861  10.882   5.339  0.8530 -0.3278 -0.0462
28270SOL    HW291669   8.963  10.994   5.341 -0.4529  0.8825  0.1192
28271SOL     OW91670  11.243   9.101   3.917 -0.1133 -0.8741 -0.4141
28271SOL    HW191671  11.306   9.060   3.857  2.1013  0.6812  0.6913
28271SOL    HW291672  11.244   9.044   3.994  0.9410 -0.2351  0.0761
28272SOL     OW91673   0.396   9.483   1.629  0.0347  0.1571  0.4839
28272SOL    HW191674   0.323   9.492   1.691  1.1354  0.5461  1.7596
28272SOL    HW291675   0.459   9.427   1.674 -0.2332 -1.7361 -1.3462
28273SOL     OW91676   1.453   6.730   2.971  0.1132  0.1569 -0.0020
28273SOL    HW191677   1.504   6.794   3.019  0.9339  0.1873 -0.8712
28273SOL    HW291678   1.445   6.655   3.030  1.1354  0.1729  0.1672
28274SOL     OW91679  12.029  10.179  12.379  0.3963 -0.1308  0.9714
28274SOL    HW191680  12.009  10.213  12.292  0.0185  0.5562  1.3210
28274SOL    HW291681  11.961  10.113  12.395 -0.9138  1.3406  1.6579
28275SOL     OW91682   8.592   1.244  12.347 -0.3477 -0.1488  0.6444
28275SOL    HW191683   8.672   1.260  12.296 -1.2246 -0.6009 -0.9518
28275SOL    HW291684   8.565   1.330  12.378  0.0565  0.1800  0.0945
28276SOL     OW91685  11.822   8.344   9.847 -0.4372 -0.0076 -0.0931
28276SOL    HW191686  11.852   8.349   9.937 -0.8549  0.1482  0.0338
28276SOL    HW291687  11.818   8.250   9.829 -0.4227 -0.0392  0.0695
28277SOL     OW91688   5.826   6.927   0.938  0.1397  0.2771  0.3475
28277SOL    HW191689   5.739   6.918   0.900  0.5156 -0.9664 -0.2821
28277SOL    HW291690   5.811   6.930   1.033 -0.5644 -0.3395  0.2667
28278SOL     OW91691   1.139   4.011   6.404 -0.2027  0.1407  0.7910
28278SOL    HW191692   1.055   3.988   6.443 -1.7111  1.3540 -1.4938
28278SOL    HW291693   1.162   4.095   6.446 -0.4069  0.0860  1.0160
28279SOL     OW91694  11.503   5.242   1.234  0.2904 -0.1861  0.2068
28279SOL    HW191695  11.427   5.184   1.238 -0.2676  0.3619 -1.4895
28279SOL    HW291696  11.571   5.188   1.194  0.2650 -0.1863  0.1632
28280SOL     OW91697   8.930   0.175   1.723  0.1151 -0.0964 -0.0300
28280SOL    HW191698   8.896   0.262   1.746  0.7552  0.3794 -0.8510
28280SOL    HW291699   8.854   0.129   1.687 -0.5556 -0.3649  1.6221
28281SOL     OW91700   4.843  11.054   9.161 -1.0546 -0.0454  0.2029
28281SOL    HW191701   4.801  11.123   9.213  0.9083  0.1324  1.6828
28281SOL    HW291702   4.772  11.015   9.110 -2.4011  2.4014  0.0573
28282SOL     OW91703   6.058   9.275  10.403  0.0140 -0.4812 -0.3296
28282SOL    HW191704   6.006   9.354  10.391 -1.2504 -1.2159  0.1638
28282SOL    HW291705   6.019   9.231  10.479  0.7674 -1.5279 -0.5141
28283SOL     OW91706   0.206   3.053  11.444  0.0293 -0.1673 -0.0050
28283SOL    HW191707   0.271   3.121  11.428 -0.9873  0.8800  0.1949
28283SOL    HW291708   0.139   3.095  11.497 -0.8098 -1.2199 -0.1849
28284SOL     OW91709   1.043   8.630   3.926  0.1565  0.1242 -0.4823
28284SOL    HW191710   1.114   8.572   3.898 -0.9282 -1.8573  0.6461
28284SOL    HW291711   1.001   8.657   3.844  1.4349  0.3008 -1.0943
28285SOL     OW91712   7.695   4.910   4.604  0.5516  0.4861 -0.1149
28285SOL    HW191713   7.770   4.855   4.582  0.8861  0.1701  1.7160
28285SOL    HW291714   7.635   4.851   4.649  0.0339  1.1804  0.1090
28286SOL     OW91715   6.177  11.058   7.339  0.2727 -0.2062  0.4153
28286SOL    HW191716   6.233  10.980   7.344 -0.0909 -0.4077  1.7033
28286SOL    HW291717   6.139  11.065   7.427  0.6659  1.7002  0.4666
28287SOL     OW91718   8.738  11.695   1.517  0.4417 -0.0986 -0.0043
28287SOL    HW191719   8.653  11.688   1.561 -0.0438  1.4158 -0.6275
28287SOL    HW291720   8.801  11.713   1.587  0.2891 -1.2760  0.4678
28288SOL     OW91721  10.299  11.263   2.719 -0.1315 -0.0170 -0.2621
28288SOL    HW191722  10.333  11.258   2.630 -1.9057  1.7100 -1.1108
28288SOL    HW291723  10.376  11.254   2.775  1.0978 -0.6195 -1.9545
28289SOL     OW91724   3.564   9.406   7.721  0.4848 -0.0530  0.1443
28289SOL    HW191725   3.567   9.493   7.683  2.7470 -0.1380  0.0351
28289SOL    HW291726   3.554   9.347   7.646  3.2418 -0.1087 -0.2714
28290SOL     OW91727   8.270   0.537   7.053  0.0349 -0.1187  0.2179
28290SOL    HW191728   8.339   0.592   7.016  0.5309 -0.9621 -0.1490
28290SOL    HW291729   8.306   0.508   7.137  1.0871 -2.2766 -0.8876
28291SOL     OW91730   4.220   5.616   0.952 -0.3061 -0.2298  0.1507
28291SOL    HW191731   4.254   5.683   1.012  1.1283  0.0147 -0.8824
28291SOL    HW291732   4.218   5.536   1.005 -1.0928  0.4126  1.1167
28292SOL     OW91733   7.825   4.691  10.421 -0.0025 -0.5510  0.0934
28292SOL    HW191734   7.783   4.621  10.370  0.4931 -1.2398  0.6078
28292SOL    HW291735   7.780   4.771  10.393 -0.2080 -0.9957 -0.9119
28293SOL     OW91736   4.309   5.975  10.004 -0.4963  0.4339 -0.0722
28293SOL    HW191737   4.245   6.024   9.953  0.3179  1.5969  0.0055
28293SOL    HW291738   4.393   6.015   9.984 -0.0899  0.6129  1.7798
28294SOL     OW91739   7.544   4.901   5.484 -0.7987  0.8133  0.0118
28294SOL    HW191740   7.543   4.933   5.574 -1.3539 -0.5091  0.4982
28294SOL    HW291741   7.635   4.908   5.457 -0.1616 -0.9044  1.4984
28295SOL     OW91742   0.248   0.056  11.866 -0.2951 -0.4352  0.5553
28295SOL    HW191743   0.200   0.137  11.880 -1.4577 -1.0102  0.0354
28295SOL    HW291744   0.271   0.025  11.954 -1.1713 -0.3144  0.8268
28296SOL     OW91745   4.142   5.744   4.700  0.0484 -0.2496 -0.1654
28296SOL    HW191746   4.143   5.771   4.792  2.7680  1.6328 -0.6138
28296SOL    HW291747   4.050   5.740   4.676 -0.6957  2.9992  1.6561
28297SOL     OW91748   6.902   9.492   6.479 -0.3125 -0.0822  0.2570
28297SOL    HW191749   6.838   9.514   6.547  1.6745 -0.7259  2.4602
28297SOL    HW291750   6.973   9.555   6.492  2.5426 -3.3479  2.4572
28298SOL     OW91751   6.905  11.284   5.325  0.6937  0.2207 -0.8354
28298SOL    HW191752   6.994  11.312   5.301  0.3786  2.0793  0.0555
28298SOL    HW291753   6.848  11.349   5.286 -0.1700  0.0847  0.1768
28299SOL     OW91754   7.425   5.127   4.853  0.4362  0.2686  0.4591
28299SOL    HW191755   7.487   5.187   4.811  1.8389 -0.1648  1.8073
28299SOL    HW291756   7.476   5.048   4.870 -1.4421 -1.5199 -1.5479
28300SOL     OW91757   7.763   2.517   8.778 -0.7093 -0.0736  0.0244
28300SOL    HW191758   7.848   2.482   8.751  0.5335  1.0330  2.1707
28300SOL    HW291759   7.739   2.465   8.856 -0.0070  2.0890  1.7961
28301SOL     OW91760   7.706   2.047   3.903  0.0640  0.4865 -0.0341
28301SOL    HW191761   7.717   1.954   3.883 -0.4186  0.3507  0.3322
28301SOL    HW291762   7.615   2.067   3.881  0.0680  0.7916  0.2061
28302SOL     OW91763   8.586   7.235  11.098  0.4509  0.2367 -0.4024
28302SOL    HW191764   8.604   7.272  11.011  2.1739 -0.4937 -0.4150
28302SOL    HW291765   8.541   7.152  11.080  2.2561 -0.7245 -0.7424
28303SOL     OW91766   2.398  12.420   5.521 -0.0436  0.0848  0.1975
28303SOL    HW191767   2.351  12.500   5.499  0.3070  0.0889 -0.5433
28303SOL    HW291768   2.471  12.450   5.576  0.6991  0.4047 -0.9442
28304SOL     OW91769   2.574   0.900   2.529  0.3585 -0.3576  0.1202
28304SOL    HW191770   2.646   0.862   2.479 -0.5395 -1.4788 -0.3747
28304SOL    HW291771   2.527   0.955   2.466 -0.4067 -1.2791 -0.1516
28305SOL     OW91772   5.362   1.834   9.233 -0.5407 -0.4287  0.6075
28305SOL    HW191773   5.380   1.916   9.188  0.7039 -1.3759 -0.7321
28305SOL    HW291774   5.441   1.818   9.285 -1.6635  0.2783  2.6040
28306SOL     OW91775   7.879  11.867  10.436  0.5936 -0.5313 -0.0142
28306SOL    HW191776   7.891  11.776  10.465 -1.2939 -1.2945 -1.4410
28306SOL    HW291777   7.786  11.872  10.412  0.6585  1.7960  0.0310
28307SOL     OW91778  11.968   1.468  10.641  0.0691  0.3165 -0.3895
28307SOL    HW191779  12.011   1.414  10.707 -2.0165  0.8613  1.5609
28307SOL    HW291780  11.917   1.405  10.589  0.1488  0.0840 -0.1879
28308SOL     OW91781   5.770   4.279  11.248  0.1948  0.2161 -0.2049
28308SOL    HW191782   5.818   4.297  11.168  1.2708  0.2044  0.4207
28308SOL    HW291783   5.823   4.319  11.317 -0.3682 -0.3509  0.5717
28309SOL     OW91784   7.787  10.374   0.810 -0.6471 -0.1991  0.6221
28309SOL    HW191785   7.743  10.303   0.762  1.6202 -2.6802  1.9739
28309SOL    HW291786   7.737  10.382   0.891 -1.2622  0.1820  0.2119
28310SOL     OW91787   5.435   7.316   4.563  0.0994  0.4377  0.7144
28310SOL    HW191788   5.530   7.314   4.554  0.3811  1.0325  2.9294
28310SOL    HW291789   5.407   7.385   4.502  1.0683  0.3132  0.0993
28311SOL     OW91790   4.588   1.488   3.822  0.6018  0.1641  0.1999
28311SOL    HW191791   4.647   1.419   3.791 -1.5678 -1.4943 -0.5164
28311SOL    HW291792   4.596   1.557   3.757  1.7780  0.0060  0.1494
28312SOL     OW91793   5.015   7.054   8.595 -0.1614  0.2808  0.0940
28312SOL    HW191794   5.073   7.119   8.636  0.7329  0.7499 -1.7862
28312SOL    HW291795   4.986   6.999   8.667 -0.4785  2.4046  1.6681
28313SOL     OW91796  11.905   4.223   6.600 -0.4806  0.0806 -0.3770
28313SOL    HW191797  11.820   4.252   6.568 -0.6006  0.6488  0.4221
28313SOL    HW291798  11.968   4.276   6.552 -0.5618 -0.4499 -1.0842
28314SOL     OW91799  10.361   5.409   7.717 -0.0037 -0.1050  0.3116
28314SOL    HW191800  10.446   5.421   7.673  0.1509 -0.3190  0.5559
28314SOL    HW291801  10.318   5.339   7.668  0.2775 -0.5240  0.6657
28315SOL     OW91802   9.403   7.354   0.124 -0.3706 -0.6466  0.0367
28315SOL    HW191803   9.383   7.386   0.036  0.1339 -1.2405 -0.3020
28315SOL    HW291804   9.318   7.342   0.166 -0.5873  0.9387  0.1143
28316SOL     OW91805  12.156   2.890   8.327 -0.6632  0.1234  0.3179
28316SOL    HW191806  12.226   2.950   8.350  2.3448 -3.1027  0.4417
28316SOL    HW291807  12.144   2.836   8.405 -1.8457 -0.7200 -0.4098
28317SOL     OW91808   1.267   1.449  12.172 -0.3654  0.7203 -0.4205
28317SOL    HW191809   1.238   1.451  12.081 -1.9198 -0.3339  0.0128
28317SOL    HW291810   1.186   1.444  12.223  0.5031  0.0101  0.9545
28318SOL     OW91811   4.180   0.810   7.704 -0.4240  0.4346  0.0781
28318SOL    HW191812   4.212   0.892   7.667  0.5265  0.2401  0.4516
28318SOL    HW291813   4.256   0.772   7.748  0.0405 -2.0368 -2.4902
28319SOL     OW91814   1.369   6.669   8.688  0.6750 -0.0523 -0.0974
28319SOL    HW191815   1.336   6.594   8.738  0.4365  1.2584  1.8184
28319SOL    HW291816   1.459   6.645   8.666  0.8969 -0.5580  1.2478
28320SOL     OW91817   9.376   0.321   4.336 -0.0879  0.2988  0.2353
28320SOL    HW191818   9.414   0.371   4.409 -0.1895 -0.3140  0.7132
28320SOL    HW291819   9.445   0.321   4.269  0.0560  0.7465  0.3763
28321SOL     OW91820  12.256   5.316   0.907  0.3521  0.0985  0.1861
28321SOL    HW191821  12.317   5.276   0.844  0.0484 -1.2966  0.7491
28321SOL    HW291822  12.307   5.386   0.948  0.9612  0.1899 -0.6994
28322SOL     OW91823   4.225   8.189   1.828 -0.4611  0.2379 -0.1148
28322SOL    HW191824   4.250   8.246   1.756 -1.4083  1.9428  0.8249
28322SOL    HW291825   4.130   8.176   1.817 -0.6508  0.6613  0.8930
28323SOL     OW91826   3.927   2.866   8.398 -0.5012  0.3857  0.0352
28323SOL    HW191827   3.988   2.939   8.389  1.2806 -1.1280 -0.7537
28323SOL    HW291828   3.968   2.794   8.349 -1.4799 -1.5707  1.9262
28324SOL     OW91829   3.597   8.769   7.327 -0.1038  0.3265 -0.8253
28324SOL    HW191830   3.625   8.816   7.405  0.6870  0.3622 -1.1127
28324SOL    HW291831   3.625   8.679   7.341 -0.5536  0.1902 -0.7856
28325SOL     OW91832   9.486   5.616   0.965 -0.2782  0.8414 -0.1528
28325SOL    HW191833   9.443   5.574   1.040  0.0173  2.0593  0.7165
28325SOL    HW291834   9.574   5.579   0.966 -0.3167  0.7486  0.0069
28326SOL     OW91835   0.249  11.837   4.922 -0.0467 -0.4331  0.0763
28326SOL    HW191836   0.198  11.916   4.906 -0.1887 -0.3139  1.0363
28326SOL    HW291837   0.316  11.837   4.854 -0.1424  0.4296 -0.0274
28327SOL     OW91838   1.303   2.011   3.786  0.1343 -0.1284  0.1838
28327SOL    HW191839   1.316   1.920   3.757  0.1019 -0.0597 -0.0471
28327SOL    HW291840   1.324   2.009   3.879 -0.4816 -0.5116  0.3216
28328SOL     OW91841   2.796   0.117   5.577  0.1022  0.3743  0.2506
28328SOL    HW191842   2.771   0.121   5.485  0.5391  1.9881  0.1796
28328SOL    HW291843   2.724   0.070   5.619 -1.5446  2.1100 -0.4624
28329SOL     OW91844   8.272   3.388   1.503 -0.1887 -0.2392 -0.0301
28329SOL    HW191845   8.177   3.394   1.491 -0.3112 -2.4136 -0.6780
28329SOL    HW291846   8.300   3.478   1.519 -2.2672  0.5544 -0.4815
28330SOL     OW91847   4.403   7.177  12.241 -0.0986  0.1005  0.2644
28330SOL    HW191848   4.474   7.236  12.216 -0.6721  1.1891  1.1076
28330SOL    HW291849   4.446   7.106  12.290  0.5583 -0.0166 -0.4756
28331SOL     OW91850   0.052   6.892   0.483 -0.2177  0.3469 -0.4079
28331SOL    HW191851   0.064   6.901   0.388  0.7149  0.8330 -0.2593
28331SOL    HW291852   0.038   6.798   0.496  1.3679  0.0062 -0.8764
28332SOL     OW91853  12.160   3.573   0.320 -0.4030 -0.1923 -0.2791
28332SOL    HW191854  12.085   3.598   0.267  0.8226  1.0325 -1.5279
28332SOL    HW291855  12.233   3.623   0.284  0.9736 -1.1124  1.0714
28333SOL     OW91856   1.324   5.206   2.054 -0.5155  0.2249 -0.1538
28333SOL    HW191857   1.325   5.291   2.098 -0.0284 -0.4418  1.1764
28333SOL    HW291858   1.256   5.214   1.987 -1.5740  1.1579  0.9812
28334SOL     OW91859   4.713  11.885   6.884 -0.0781 -0.7748  0.1974
28334SOL    HW191860   4.692  11.846   6.968  0.2544 -0.6106  0.3604
28334SOL    HW291861   4.793  11.840   6.856  0.1977 -0.3541  0.2954
28335SOL     OW91862   9.581   3.323   1.690  0.5448  0.0813  0.6971
28335SOL    HW191863   9.626   3.387   1.635 -0.5460  0.4289  0.1913
28335SOL    HW291864   9.534   3.267   1.628 -0.5807  0.3811  1.2533
28336SOL     OW91865   0.552   6.985   1.432  0.2955 -0.0986 -0.1081
28336SOL    HW191866   0.595   7.069   1.418  2.3491 -1.0021  0.2985
28336SOL    HW291867   0.579   6.959   1.520  2.1497 -2.4220 -1.2314
28337SOL     OW91868  10.318  11.670   1.667  0.0388  0.0797  0.4641
28337SOL    HW191869  10.394  11.716   1.631  0.4821 -0.6816  0.4114
28337SOL    HW291870  10.245  11.698   1.612  0.6739 -0.9271 -0.9231
28338SOL     OW91871   5.440  12.230   7.049  0.0002 -0.3055 -0.2324
28338SOL    HW191872   5.405  12.146   7.079 -1.7040  0.9349  1.5491
28338SOL    HW291873   5.534  12.216   7.039 -0.0018 -1.9871  1.6466
28339SOL     OW91874   4.055   6.308   6.572 -0.5282 -0.0532 -0.1382
28339SOL    HW191875   4.133   6.363   6.572 -1.0446  0.7030 -0.1022
28339SOL    HW291876   4.056   6.265   6.487  1.5167 -2.4281  0.9564
28340SOL     OW91877  10.660   5.489   8.780 -0.3559 -0.2370 -0.4714
28340SOL    HW191878  10.581   5.533   8.749  0.5424  1.3465 -0.6451
28340SOL    HW291879  10.685   5.431   8.708 -1.3303 -0.7491 -0.4189
28341SOL     OW91880   9.991   0.808   8.219  0.3694 -0.1331 -0.0179
28341SOL    HW191881   9.964   0.720   8.196 -1.5146  0.6919 -1.1980
28341SOL    HW291882  10.015   0.848   8.135 -1.4129  1.2779  0.0720
28342SOL     OW91883   4.701  11.078   2.354 -0.0395 -0.8631  0.0771
28342SOL    HW191884   4.699  11.143   2.424  0.6304 -1.1122  0.3428
28342SOL    HW291885   4.787  11.037   2.363  0.6937  0.1485 -1.8624
28343SOL     OW91886   4.087   7.773   7.218 -0.1167 -0.3012 -0.3348
28343SOL    HW191887   4.042   7.847   7.259 -0.5991 -0.4665 -0.5521
28343SOL    HW291888   4.019   7.706   7.210  0.5850 -1.1839  0.8868
28344SOL     OW91889  10.347   5.887  11.153 -0.3403 -0.0888  0.3353
28344SOL    HW191890  10.314   5.948  11.087 -2.1587 -1.6273 -0.2551
28344SOL    HW291891  10.442   5.887  11.140 -0.5854  0.1027 -1.9064
28345SOL     OW91892  11.321   7.879   6.638 -0.7409 -0.1923 -0.5716
28345SOL    HW191893  11.285   7.791   6.629 -1.0686  0.0964 -2.3960
28345SOL    HW291894  11.411   7.871   6.607 -0.7820  0.1217 -0.7714
28346SOL     OW91895  10.494  11.871   1.638 -0.6552  0.2506  0.1392
28346SOL    HW191896  10.489  11.967   1.634  0.3962  0.3955  1.4637
28346SOL    HW291897  10.570  11.854   1.693 -1.3041 -1.3462  0.5791
28347SOL     OW91898   0.572   5.581   5.894  0.0757 -0.1971 -0.6710
28347SOL    HW191899   0.508   5.518   5.928  1.0641 -2.4632 -2.7261
28347SOL    HW291900   0.645   5.577   5.956 -0.6124  0.3436  0.1957
28348SOL     OW91901   6.921  10.327   0.313 -0.0038  0.1354  0.0978
28348SOL    HW191902   6.976  10.250   0.327  0.0362  0.1951  0.2691
28348SOL    HW291903   6.837  10.305   0.352 -0.0701  0.0844 -0.0728
28349SOL     OW91904   2.332   1.412   9.710 -0.5974  0.0834  0.1445
28349SOL    HW191905   2.348   1.484   9.649  0.3871  0.9982  1.4125
28349SOL    HW291906   2.414   1.403   9.759 -2.0869  1.2088  3.1384
28350SOL     OW91907   6.306   7.231   0.229 -0.0319 -0.2532  0.3030
28350SOL    HW191908   6.280   7.144   0.261 -0.4124 -0.0112  0.6676
28350SOL    HW291909   6.386   7.216   0.180  2.0978 -0.2837  3.5328
28351SOL     OW91910   2.437   2.121  10.667 -0.6647 -0.5604  0.9229
28351SOL    HW191911   2.490   2.196  10.640 -0.4415 -0.1833  2.3312
28351SOL    HW291912   2.453   2.055  10.600  2.2492 -0.7464  1.6805
28352SOL     OW91913  10.384   1.394  12.272 -0.3023  0.3810  0.0295
28352SOL    HW191914  10.315   1.452  12.305 -0.9570 -1.2675  1.7283
28352SOL    HW291915  10.337   1.328  12.222  0.1813 -0.0613  0.1557
28353SOL     OW91916   4.930   1.185  11.867 -0.2825  0.2241  0.3904
28353SOL    HW191917   4.978   1.194  11.785 -1.4828  1.3450 -0.2164
28353SOL    HW291918   4.994   1.207  11.935  0.8168 -1.0353 -0.1818
28354SOL     OW91919  10.333   1.654   5.004  0.3501 -0.3333  0.8829
28354SOL    HW191920  10.258   1.594   5.005 -0.2065  0.0954 -2.5158
28354SOL    HW291921  10.404   1.602   4.968  0.9169  0.0467  1.4429
28355SOL     OW91922   4.283   3.704   0.719 -0.2094 -0.5210  0.2777
28355SOL    HW191923   4.281   3.726   0.812  1.8650 -0.6107  0.3913
28355SOL    HW291924   4.282   3.608   0.718 -3.4380 -0.5931  0.0117
28356SOL     OW91925   2.689   2.484   9.630  0.1382 -0.5030 -0.0231
28356SOL    HW191926   2.734   2.448   9.707 -1.4719 -3.9674 -0.4790
28356SOL    HW291927   2.740   2.452   9.556 -0.9321 -1.2786 -0.4479
28357SOL     OW91928   3.225   2.511   9.575  0.0190  0.0959  0.5312
28357SOL    HW191929   3.223   2.605   9.594  2.3728  0.3353 -0.0012
28357SOL    HW291930   3.216   2.506   9.480  1.8029 -0.0136  0.3300
28358SOL     OW91931   8.924   1.125   8.249  0.0604 -0.0413 -0.0130
28358SOL    HW191932   8.858   1.108   8.181 -0.0664 -1.0156  0.3411
28358SOL    HW291933   8.874   1.125   8.331  0.2243  1.0769  0.0983
28359SOL     OW91934   5.693  12.294   1.590 -0.1131  0.0371  0.0109
28359SOL    HW191935   5.778  12.336   1.582 -0.4380  0.5339 -1.0443
28359SOL    HW291936   5.632  12.357   1.550 -0.8384 -0.7038 -0.0677
28360SOL     OW91937   4.045   7.070   7.722 -0.3389  0.2699  0.0060
28360SOL    HW191938   4.082   7.111   7.643  1.3850  1.1351  1.1958
28360SOL    HW291939   3.954   7.054   7.700  0.1392  0.3153 -2.2280
28361SOL     OW91940   5.483  12.460   0.171  0.0587 -0.1814 -0.0272
28361SOL    HW191941   5.569  12.437   0.206 -0.3468 -1.5743  0.0875
28361SOL    HW291942   5.462  12.390   0.110 -1.3940 -0.3319  0.6086
28362SOL     OW91943   8.851   5.507   5.986  0.2235 -0.4670 -0.3014
28362SOL    HW191944   8.778   5.535   6.042 -1.4036 -0.9423 -2.0650
28362SOL    HW291945   8.913   5.465   6.046 -1.0524 -0.2637  1.2345
28363SOL     OW91946   0.444   6.178  10.043  0.4605  0.2615  0.3485
28363SOL    HW191947   0.355   6.210  10.056  1.5179  3.3344  0.7341
28363SOL    HW291948   0.459   6.118  10.116 -1.9006 -2.0261 -0.8697
28364SOL     OW91949   4.146   4.437  10.805 -0.3999 -0.1152  0.3981
28364SOL    HW191950   4.161   4.416  10.897  1.0313  1.2945  0.5410
28364SOL    HW291951   4.132   4.532  10.805  0.9184  0.1237 -0.9367
28365SOL     OW91952   7.276  10.953   2.847 -0.0770  0.0139  0.1253
28365SOL    HW191953   7.264  10.921   2.758  1.2263 -2.3313  0.7231
28365SOL    HW291954   7.242  10.883   2.903 -0.3220  1.1794  1.5048
28366SOL     OW91955   2.515   1.632   3.823 -0.2101  0.3304 -0.0526
28366SOL    HW191956   2.448   1.647   3.890 -0.0560 -1.3304  0.5239
28366SOL    HW291957   2.589   1.597   3.871  0.0187 -0.6049 -1.0355
28367SOL     OW91958   9.141   0.866   1.286  0.4193 -0.3008 -0.9053
28367SOL    HW191959   9.112   0.956   1.299  1.8805  0.0861 -0.0984
28367SOL    HW291960   9.087   0.834   1.214 -1.1748  0.7051 -0.2225
28368SOL     OW91961   8.852   7.733  10.299 -0.7168 -0.6881 -0.0953
28368SOL    HW191962   8.917   7.720  10.369  0.2610  0.4361 -0.7626
28368SOL    HW291963   8.769   7.741  10.346 -0.1542 -0.5266  0.9171
28369SOL     OW91964  10.755   5.751   0.951 -0.3643 -0.1610  0.0108
28369SOL    HW191965  10.736   5.840   0.921  0.7027  0.2295  0.4272
28369SOL    HW291966  10.693   5.695   0.904  1.6850  0.3095 -3.6353
28370SOL     OW91967   4.332  11.948  10.146  0.0522  0.0124  0.4258
28370SOL    HW191968   4.281  11.913  10.073 -0.0809  1.6222 -0.2755
28370SOL    HW291969   4.419  11.911  10.135  0.0457  0.2915 -0.5778
28371SOL     OW91970   8.614   9.387  11.808  0.1447  0.0796 -0.3811
28371SOL    HW191971   8.614   9.448  11.734 -1.5698 -0.6119 -1.0033
28371SOL    HW291972   8.566   9.432  11.877 -1.9000 -0.8054 -1.1334
28372SOL     OW91973   8.331   0.668   7.861 -0.0181 -0.1198 -0.1412
28372SOL    HW191974   8.417   0.706   7.844  0.1138  0.5224  1.7237
28372SOL    HW291975   8.295   0.720   7.933 -0.8523 -2.0067  0.8859
28373SOL     OW91976  11.018   0.699   2.865  0.1535 -0.9553  0.1628
28373SOL    HW191977  10.959   0.743   2.926  0.7456 -1.6518  1.2871
28373SOL    HW291978  10.961   0.664   2.796 -0.3690  1.1204 -0.5192
28374SOL     OW91979  12.330   2.734   6.792  0.1130  0.2683 -0.4926
28374SOL    HW191980  12.249   2.785   6.784  0.4142  0.9504  0.5773
28374SOL    HW291981  12.397   2.799   6.812  0.4155 -0.5712  1.4438
28375SOL     OW91982   4.283  11.925   5.617  0.0508  0.0124  0.6024
28375SOL    HW191983   4.222  11.855   5.638 -0.5190  1.0818  2.7104
28375SOL    HW291984   4.229  12.004   5.613  1.1801  0.9115  2.0891
28376SOL     OW91985   2.480   6.553   0.744 -0.2067  0.1747  0.2860
28376SOL    HW191986   2.497   6.519   0.656  0.6243  1.1664  0.0339
28376SOL    HW291987   2.511   6.644   0.740  0.0551  0.1631  1.6699
28377SOL     OW91988   8.649   9.791   1.724 -0.1510  0.0897 -0.3949
28377SOL    HW191989   8.743   9.812   1.725 -0.3225  0.9055 -0.7852
28377SOL    HW291990   8.632   9.766   1.634 -0.0000 -1.5793  0.0113
28378SOL     OW91991  11.121   8.662   0.732 -0.0060 -0.2684  0.1814
28378SOL    HW191992  11.106   8.648   0.639  0.9729 -0.1930  0.0068
28378SOL    HW291993  11.135   8.574   0.768  0.0460 -0.2581  0.1855
28379SOL     OW91994   5.177   0.965   5.156 -0.1935  0.4042 -0.0077
28379SOL    HW191995   5.227   0.957   5.075 -0.1739 -0.1055  0.0549
28379SOL    HW291996   5.129   0.883   5.163 -1.3730  1.0563 -0.2821
28380SOL     OW91997   8.657   5.950  10.613 -0.1657  0.6041 -0.3122
28380SOL    HW191998   8.675   5.992  10.697  2.6819 -2.1785  0.6661
28380SOL    HW291999   8.721   5.989  10.553  0.9421 -0.6449  0.0285
28381SOL     OW92000   9.725   9.312   5.268  0.1168 -0.4849  0.2185
28381SOL    HW192001   9.711   9.396   5.312  1.8166 -0.7313  1.3170
28381SOL    HW292002   9.819   9.309   5.251 -0.2364 -1.1852 -1.9205
28382SOL     OW92003   0.883  11.367  11.011  0.1087  0.1925  0.6250
28382SOL    HW192004   0.842  11.281  11.007 -0.3224  0.4130 -2.9830
28382SOL    HW292005   0.975  11.350  11.032  0.0165 -1.1833  0.0125
28383SOL     OW92006   9.041   0.442   0.858  0.6059  0.0448 -0.0301
28383SOL    HW192007   9.097   0.406   0.789  1.4059  1.9809 -0.4554
28383SOL    HW292008   9.057   0.536   0.855 -4.1848  1.1005 -1.5543
28384SOL     OW92009   8.962  10.147  10.250 -0.0499  0.1984  0.1334
28384SOL    HW192010   8.914  10.216  10.204  0.7205 -1.0863 -2.8516
28384SOL    HW292011   8.966  10.075  10.187  2.6173 -1.0940  1.6249
28385SOL     OW92012   1.037   2.167   0.772 -0.2260 -0.1866  0.0400
28385SOL    HW192013   0.943   2.179   0.754 -0.4354 -1.2866  0.2799
28385SOL    HW292014   1.067   2.111   0.700  0.0834 -0.4154  0.3449
28386SOL     OW92015   7.458   7.319  12.163  0.7132 -0.1466  0.7298
28386SOL    HW192016   7.484   7.259  12.092 -1.2341 -1.0225  0.7040
28386SOL    HW292017   7.392   7.270  12.212 -1.1831  2.0626  0.5260
28387SOL     OW92018   6.116   8.511   5.156  0.9933  0.2717  0.1605
28387SOL    HW192019   6.103   8.417   5.150  0.5146  0.4215 -1.4858
28387SOL    HW292020   6.205   8.520   5.192  1.6240 -0.8252 -1.0393
28388SOL     OW92021   7.374   2.861   1.091  0.6789  0.1659  0.0313
28388SOL    HW192022   7.452   2.839   1.142 -0.2257 -0.5883  1.1436
28388SOL    HW292023   7.301   2.836   1.148 -0.3884  1.5895 -0.6552
28389SOL     OW92024   1.387   6.968   6.735  0.2311  0.0128  0.0201
28389SOL    HW192025   1.350   6.917   6.807  0.8679  0.3036  0.5692
28389SOL    HW292026   1.338   6.940   6.657 -0.7460 -0.0165  0.6249
28390SOL     OW92027   5.682   2.802   3.892 -0.4359 -0.1439  0.2693
28390SOL    HW192028   5.706   2.891   3.868  0.2468 -0.5593 -0.6399
28390SOL    HW292029   5.586   2.804   3.901 -0.4064  0.7165  0.4516
28391SOL     OW92030  11.135  10.114   9.339  0.1578  0.0721  0.3482
28391SOL    HW192031  11.095  10.029   9.356  0.4957 -0.8717 -2.9042
28391SOL    HW292032  11.129  10.125   9.244  1.7387  2.8806  0.4663
28392SOL     OW92033   3.121   6.065   0.205 -0.1807  0.1568  0.0938
28392SOL    HW192034   3.175   6.136   0.171  1.3959 -0.9938  0.0786
28392SOL    HW292035   3.062   6.107   0.267  0.1406  1.5856 -0.5307
28393SOL     OW92036   1.896   0.506   3.256  0.4223 -0.4437 -0.0528
28393SOL    HW192037   1.943   0.515   3.338 -0.2643 -0.6823  0.3775
28393SOL    HW292038   1.871   0.596   3.232  0.9453 -0.3339 -0.2040
28394SOL     OW92039   2.819   0.628   2.285 -0.2401 -0.2807 -0.0219
28394SOL    HW192040   2.852   0.630   2.375 -0.8346  0.2505  0.1890
28394SOL    HW292041   2.738   0.579   2.289 -0.4033 -0.0331 -0.2222
28395SOL     OW92042   1.238   3.452   1.887 -0.0840 -0.0495  0.1882
28395SOL    HW192043   1.287   3.382   1.930 -0.0600 -0.0906  0.0939
28395SOL    HW292044   1.263   3.532   1.934  1.2820  0.1636 -0.8541
28396SOL     OW92045  11.332   0.788   3.746  0.0346  0.2574  0.5364
28396SOL    HW192046  11.375   0.872   3.731  0.6508  0.0156  0.8840
28396SOL    HW292047  11.381   0.727   3.691 -0.8954  0.2511 -0.3093
28397SOL     OW92048   7.840  10.108   2.820  0.1259 -0.4499  0.4700
28397SOL    HW192049   7.901  10.144   2.884 -2.6685  1.7605  2.1028
28397SOL    HW292050   7.866  10.149   2.737  2.5848 -1.8477  0.4601
28398SOL     OW92051   2.476   5.197  10.101 -0.3737  0.1831 -0.0202
28398SOL    HW192052   2.502   5.262  10.165 -0.0463 -1.7633  1.9590
28398SOL    HW292053   2.388   5.223  10.075  0.5947  2.6635 -1.1175
28399SOL     OW92054   2.627  11.363  12.137  0.0232  0.0391  0.3014
28399SOL    HW192055   2.536  11.374  12.110  0.6180  2.3948 -1.0832
28399SOL    HW292056   2.675  11.345  12.056  0.9094 -0.3223  0.8843
28400SOL     OW92057   9.561   3.487   3.837 -0.0188 -0.3761 -0.1615
28400SOL    HW192058   9.511   3.537   3.773  0.2848  0.1237 -0.0119
28400SOL    HW292059   9.513   3.405   3.846 -1.5231  0.5529  0.8836
28401SOL     OW92060   0.255   5.569   4.942  0.0745 -0.2294  0.4377
28401SOL    HW192061   0.204   5.544   4.865  1.3340 -1.4206 -0.0591
28401SOL    HW292062   0.204   5.638   4.984 -0.0354  1.4103 -2.1911
28402SOL     OW92063   7.017   3.869   7.507 -0.0637  0.3561  0.2595
28402SOL    HW192064   6.924   3.848   7.502  0.0462 -0.1403  0.1654
28402SOL    HW292065   7.021   3.951   7.556 -0.6612  1.2907 -1.1877
28403SOL     OW92066  10.229   3.625   6.170  0.4301  0.2366 -0.1221
28403SOL    HW192067  10.179   3.617   6.089  0.4097 -0.9889 -0.0061
28403SOL    HW292068  10.181   3.690   6.221 -0.5774 -0.3141 -0.3487
28404SOL     OW92069   0.594   6.950  10.674 -0.2285  0.4205 -0.8127
28404SOL    HW192070   0.671   7.001  10.697 -1.4001  1.2363  1.6643
28404SOL    HW292071   0.624   6.859  10.676  0.4531  0.6510  1.2888
28405SOL     OW92072   8.373   3.521  12.575 -0.0712 -0.3351  0.1157
28405SOL    HW192073   8.444   3.584  12.584 -0.2233 -0.1122 -0.2572
28405SOL    HW292074   8.367   3.479  12.661  2.0227 -1.9588 -0.4587
28406SOL     OW92075   0.277   6.191   4.733  0.2694 -0.0997 -0.6580
28406SOL    HW192076   0.289   6.286   4.739 -0.1446  0.0194 -1.4435
28406SOL    HW292077   0.365   6.156   4.719  0.3797  0.2068 -0.7434
28407SOL     OW92078   6.065  11.557   1.925 -0.0461 -0.2216 -0.1300
28407SOL    HW192079   6.092  11.532   1.837 -0.2324 -1.4963  0.1594
28407SOL    HW292080   6.125  11.510   1.983  0.9392  1.6137  0.4442
28408SOL     OW92081   0.638  10.320   4.886  0.2334  0.3467  0.1224
28408SOL    HW192082   0.546  10.337   4.907  0.2269 -0.7056  1.0281
28408SOL    HW292083   0.682  10.403   4.905 -0.1217  0.0924  2.3609
28409SOL     OW92084  10.700   9.994   9.859  0.3441  0.5025 -0.1543
28409SOL    HW192085  10.779   9.965   9.904 -0.8610 -1.3535  0.9239
28409SOL    HW292086  10.639   9.920   9.867 -1.0297  1.3120 -2.1640
28410SOL     OW92087  10.334  12.491   0.321 -0.0727  0.7274  0.1381
28410SOL    HW192088  10.269  12.519   0.256 -0.5491  1.8206  1.0594
28410SOL    HW292089  10.386  12.425   0.275 -2.2311 -0.6833 -0.4203
28411SOL     OW92090   3.025  10.277  10.191 -0.0081  0.6582 -0.0549
28411SOL    HW192091   3.057  10.294  10.102 -0.6838  0.0637 -0.4190
28411SOL    HW292092   3.104  10.256  10.241  0.4754  1.7860 -0.3122
28412SOL     OW92093   8.128   9.763   0.467 -0.0931 -0.5405 -0.2057
28412SOL    HW192094   8.204   9.747   0.523  0.0284 -2.3350 -0.8172
28412SOL    HW292095   8.054   9.727   0.515 -0.3383 -0.0803 -0.2329
28413SOL     OW92096   6.992   6.783  11.429 -0.2452  0.0770 -0.1762
28413SOL    HW192097   6.940   6.720  11.480  1.8169 -0.6228  1.1912
28413SOL    HW292098   6.944   6.866  11.438 -0.9336 -0.4497  1.3706
28414SOL     OW92099   0.700   2.222   8.539 -0.4457  0.2150  0.1061
28414SOL    HW192100   0.790   2.251   8.553  0.7397 -1.6208 -2.9338
28414SOL    HW292101   0.690   2.144   8.594  0.2048 -0.2094 -0.3737
28415SOL     OW92102   2.227  11.799  11.568  0.2931  0.1821 -0.2392
28415SOL    HW192103   2.170  11.817  11.643  2.3540  1.0020  1.2300
28415SOL    HW292104   2.237  11.884  11.525  0.4806  0.0721 -0.4110
28416SOL     OW92105   7.820  10.556   3.784  0.3447 -0.3151  0.1216
28416SOL    HW192106   7.744  10.515   3.743 -0.8324  1.5369  0.3538
28416SOL    HW292107   7.876  10.483   3.809 -1.5571 -1.7587  0.3500
28417SOL     OW92108  11.216   2.728  10.838  0.0805 -0.1342 -0.2394
28417SOL    HW192109  11.216   2.824  10.840 -1.6958 -0.0976 -0.0847
28417SOL    HW292110  11.258   2.702  10.920  0.0639  0.5151 -0.0186
28418SOL     OW92111   8.074   7.726   7.248  0.0845  0.4492  0.1534
28418SOL    HW192112   8.090   7.766   7.333  0.6583 -0.4081  0.4635
28418SOL    HW292113   8.154   7.740   7.199 -1.0927  3.1430 -1.2015
28419SOL     OW92114   6.355   2.155   5.810 -0.0017 -0.1814 -0.9342
28419SOL    HW192115   6.423   2.087   5.808  0.5135  0.2756  0.2652
28419SOL    HW292116   6.335   2.165   5.903 -1.1353  0.2728 -1.2221
28420SOL     OW92117   1.755   8.791   7.706 -0.4002 -0.1584  0.7548
28420SOL    HW192118   1.668   8.831   7.713 -0.2444  0.5638 -1.0251
28420SOL    HW292119   1.813   8.851   7.753 -0.7753 -0.4405  1.6064
28421SOL     OW92120  11.300   6.629   3.255 -0.0963  0.0903  0.0257
28421SOL    HW192121  11.231   6.663   3.199  0.5088 -0.2682 -0.9686
28421SOL    HW292122  11.331   6.550   3.210 -0.2941 -0.8125  1.3970
28422SOL     OW92123   8.752   6.520  10.649  0.4066 -0.2932 -0.0521
28422SOL    HW192124   8.814   6.580  10.691  0.1092  0.4717 -0.6891
28422SOL    HW292125   8.808   6.454  10.606  0.7429 -0.2830  0.3663
28423SOL     OW92126   6.882   3.661   6.379 -0.4755 -0.2499 -0.3658
28423SOL    HW192127   6.832   3.614   6.312 -1.9915  0.2216  0.3839
28423SOL    HW292128   6.815   3.702   6.434  0.7605  2.5061 -0.7506
28424SOL     OW92129   4.237   8.593   2.296  0.3236 -0.4142 -0.7714
28424SOL    HW192130   4.156   8.644   2.289 -1.2166 -2.7690 -1.1824
28424SOL    HW292131   4.307   8.657   2.282 -1.4440  1.6700 -0.6223
28425SOL     OW92132   2.826   0.242   3.037  0.4886  0.1558 -0.5323
28425SOL    HW192133   2.848   0.296   3.113  1.1432 -0.9679  0.1078
28425SOL    HW292134   2.783   0.165   3.075  1.3887 -0.7143 -1.2270
28426SOL     OW92135  10.331   5.123   7.928 -0.1506 -0.0155 -0.0045
28426SOL    HW192136  10.273   5.196   7.951  3.1318  1.9636  3.0135
28426SOL    HW292137  10.336   5.127   7.832 -3.2946  0.9537 -0.2474
28427SOL     OW92138   1.617   2.366  10.472 -0.4621  0.0268  0.2156
28427SOL    HW192139   1.570   2.372  10.389  2.0162  0.2817 -1.2884
28427SOL    HW292140   1.660   2.281  10.470 -1.6264 -0.6485  2.0119
28428SOL     OW92141   8.510  11.385  10.167  0.2193  0.0514 -0.5738
28428SOL    HW192142   8.561  11.465  10.185 -0.7859  1.2423 -2.6145
28428SOL    HW292143   8.546  11.353  10.084 -0.2848 -0.8914 -0.4366
28429SOL     OW92144   6.302  10.320   6.621  0.3288 -0.0626 -0.0525
28429SOL    HW192145   6.223  10.302   6.671  0.3964  1.9955  0.8901
28429SOL    HW292146   6.373  10.289   6.678  0.3641  1.5936  0.8624
28430SOL     OW92147   5.857   0.961   4.875 -0.2069 -0.5307 -0.0553
28430SOL    HW192148   5.942   0.975   4.832  0.0945  1.4078  1.0437
28430SOL    HW292149   5.795   0.952   4.802  0.6830 -0.1300 -0.8907
28431SOL     OW92150   8.374   4.740   3.081  0.0240 -0.5040 -0.0753
28431SOL    HW192151   8.418   4.780   3.007 -0.3623 -1.3818 -0.7912
28431SOL    HW292152   8.283   4.769   3.073  0.1076 -0.0548  0.4557
28432SOL     OW92153   2.163   9.009   2.502  0.4005 -0.4494 -0.3024
28432SOL    HW192154   2.137   9.098   2.476 -2.1455 -0.7017  1.1060
28432SOL    HW292155   2.247   9.021   2.545 -0.0127  1.3594  0.1255
28433SOL     OW92156   3.066   3.521   4.033  0.3068  0.2867 -0.3100
28433SOL    HW192157   3.025   3.546   4.115 -0.1187  0.3781 -0.5456
28433SOL    HW292158   2.997   3.533   3.967  0.6891  0.3687 -0.7011
28434SOL     OW92159  12.519   3.815  11.281 -0.2986 -0.4190  0.4019
28434SOL    HW192160  12.454   3.815  11.211 -1.4076 -1.2445  1.3962
28434SOL    HW292161  12.604   3.814  11.235 -0.8920  2.0395 -0.9527
28435SOL     OW92162   8.269   1.414   6.354 -0.3438  0.0865 -0.2012
28435SOL    HW192163   8.333   1.483   6.369 -0.2164  0.1064 -0.8271
28435SOL    HW292164   8.234   1.394   6.441  0.2560  0.3171  0.0925
28436SOL     OW92165   6.881   1.916  10.287  0.0810 -0.0448 -0.3141
28436SOL    HW192166   6.819   1.969  10.237  1.0727 -0.0702 -1.6186
28436SOL    HW292167   6.832   1.836  10.309 -0.4681  0.0989 -0.9876
28437SOL     OW92168  11.545  10.372   4.011 -0.8750  0.6615  0.3298
28437SOL    HW192169  11.505  10.450   4.050  1.4360  1.5970  0.9533
28437SOL    HW292170  11.639  10.385   4.020 -0.3374 -1.0711 -1.7823
28438SOL     OW92171   1.148   0.925   8.277 -0.1325 -0.3967  0.0705
28438SOL    HW192172   1.223   0.971   8.241  0.2084  1.2537  2.6422
28438SOL    HW292173   1.072   0.970   8.239  0.1888  0.1639  0.0795
28439SOL     OW92174  11.911   7.453   6.187 -0.4302 -0.0261 -0.3176
28439SOL    HW192175  11.917   7.401   6.107 -1.6184 -0.0953 -0.3920
28439SOL    HW292176  11.997   7.446   6.228 -0.3273 -1.3872 -0.7296
28440SOL     OW92177   5.437   5.012  11.027  0.2051  0.1024  0.0502
28440SOL    HW192178   5.417   5.094  10.981  0.3918 -0.0459 -0.3021
28440SOL    HW292179   5.375   5.009  11.099 -2.7758 -1.5514 -2.3806
28441SOL     OW92180   9.725   1.591  11.622 -0.3569  0.4494 -0.2312
28441SOL    HW192181   9.798   1.529  11.631  0.6732  1.4951 -1.0165
28441SOL    HW292182   9.677   1.583  11.704  1.6362  0.9152  1.0631
28442SOL     OW92183   8.623   2.363   2.216 -0.3510  0.0354 -0.1676
28442SOL    HW192184   8.621   2.307   2.293  0.1898 -0.2133 -0.3300
28442SOL    HW292185   8.623   2.302   2.142 -0.9875  0.2721 -0.3768
28443SOL     OW92186   8.240   8.987   0.011  0.0884  0.4643  0.4419
28443SOL    HW192187   8.206   9.068   0.049  0.4187  1.6036 -1.5408
28443SOL    HW292188   8.303   8.954   0.075  0.1602  1.9333  1.1546
28444SOL     OW92189   5.911  10.028  12.182  0.0550 -0.2787  0.3690
28444SOL    HW192190   5.828  10.067  12.157  1.6335  1.5575 -2.6715
28444SOL    HW292191   5.976  10.097  12.168  2.4298 -2.4654 -0.4483
28445SOL     OW92192   6.476   9.319   8.238 -0.4562  0.6741  0.5164
28445SOL    HW192193   6.389   9.358   8.234 -0.7586  0.0567  0.9091
28445SOL    HW292194   6.475   9.265   8.317 -0.7387 -1.6837 -1.0057
28446SOL     OW92195   4.892   0.398   5.448  0.0354 -0.5444 -0.2422
28446SOL    HW192196   4.855   0.313   5.424 -0.4020  0.0701 -1.8742
28446SOL    HW292197   4.985   0.392   5.424  0.1136 -0.7268  0.1055
28447SOL     OW92198  10.819   6.563   6.622  0.0999 -0.7476  0.4300
28447SOL    HW192199  10.900   6.549   6.574 -0.9478 -1.9217 -1.1083
28447SOL    HW292200  10.750   6.534   6.562 -1.6456  2.0634  0.8988
28448SOL     OW92201   8.467   5.193  12.333 -0.1438 -0.5598  0.0203
28448SOL    HW192202   8.466   5.100  12.310  0.3632 -1.1921  2.2672
28448SOL    HW292203   8.538   5.200  12.397  0.3223  1.5480 -0.6622
28449SOL     OW92204   7.648   2.896  10.474  0.0077  0.0681 -0.1629
28449SOL    HW192205   7.653   2.888  10.378 -0.3263  0.9694 -0.2653
28449SOL    HW292206   7.649   2.990  10.490  1.4684 -0.0723  0.8159
28450SOL     OW92207   2.671   3.203   9.319 -0.2339  0.1374 -0.0477
28450SOL    HW192208   2.638   3.117   9.294 -1.0041  0.6823 -0.9986
28450SOL    HW292209   2.592   3.257   9.328  0.3400  1.5210 -2.5487
28451SOL     OW92210  12.264   2.843   2.220 -0.2098 -0.3132  0.5667
28451SOL    HW192211  12.186   2.863   2.168 -0.6665 -1.5274  0.7476
28451SOL    HW292212  12.314   2.783   2.165  1.4945  1.7805 -0.2863
28452SOL     OW92213   9.319   0.835  10.028  0.4432 -0.0830 -0.0583
28452SOL    HW192214   9.236   0.882  10.017  0.7993  0.5527 -0.0575
28452SOL    HW292215   9.354   0.867  10.111  0.3209 -0.9394  0.3414
28453SOL     OW92216   4.501   3.513   2.491 -0.2109  0.1819  0.0635
28453SOL    HW192217   4.465   3.563   2.418  1.0597  2.2882  0.7904
28453SOL    HW292218   4.431   3.453   2.516 -1.8179  1.5669 -0.9012
28454SOL     OW92219  11.930   8.807   5.825 -0.0070  0.2262 -0.0341
28454SOL    HW192220  11.876   8.794   5.903 -0.3586 -2.8401 -0.6307
28454SOL    HW292221  11.895   8.886   5.785 -2.2555 -0.1108  1.0648
28455SOL     OW92222   6.159   6.300   7.495  0.1827 -0.2436  0.4361
28455SOL    HW192223   6.206   6.378   7.521 -0.2877 -0.1526  1.0223
28455SOL    HW292224   6.225   6.230   7.496  0.1557 -0.2628  1.9776
28456SOL     OW92225  11.126   3.891   2.558 -0.0941  0.1161 -0.2338
28456SOL    HW192226  11.068   3.875   2.632 -0.3097 -0.7339 -0.5720
28456SOL    HW292227  11.213   3.901   2.597  0.2134 -2.6236  0.0293
28457SOL     OW92228   4.237   2.886   3.626 -0.5812 -0.6950  0.2035
28457SOL    HW192229   4.217   2.809   3.573  0.6754 -0.3184 -0.8644
28457SOL    HW292230   4.232   2.854   3.717 -1.1943 -1.7346 -0.1740
28458SOL     OW92231  12.521  12.332   2.591  0.2588 -0.0320  0.3192
28458SOL    HW192232  12.609  12.370   2.587 -0.1637  0.8687 -1.2159
28458SOL    HW292233  12.464  12.407   2.606 -0.1872 -0.7534  2.5091
28459SOL     OW92234   4.634   2.764   6.890 -0.1041  0.3571  0.4126
28459SOL    HW192235   4.548   2.730   6.868  0.2364 -0.5926  0.4851
28459SOL    HW292236   4.661   2.714   6.968  1.3192 -0.7798 -0.7489
28460SOL     OW92237   6.143   6.346   2.887 -0.5612 -0.0794 -0.5940
28460SOL    HW192238   6.117   6.312   2.801 -0.6194  2.0121 -1.4716
28460SOL    HW292239   6.232   6.378   2.873 -1.3172  2.2178 -0.5269
28461SOL     OW92240  11.199   7.625   5.966 -0.0388  0.0578 -0.0132
28461SOL    HW192241  11.194   7.708   5.919 -2.2013 -0.5315 -0.9444
28461SOL    HW292242  11.193   7.649   6.058 -1.5918  0.9195 -0.3053
28462SOL     OW92243   2.034   6.801   8.371  0.1109  0.5428 -0.6181
28462SOL    HW192244   2.117   6.763   8.398 -1.2307 -1.3519  1.2448
28462SOL    HW292245   2.008   6.749   8.295  0.8259  1.4651 -1.5104
28463SOL     OW92246   4.262   6.560   3.107 -0.2292 -0.5265  0.3073
28463SOL    HW192247   4.355   6.573   3.121  0.1414 -2.7291  0.2399
28463SOL    HW292248   4.255   6.530   3.017 -0.9835 -0.4762  0.3438
28464SOL     OW92249   9.360   3.510   1.635  0.2072 -0.0366 -0.1955
28464SOL    HW192250   9.441   3.472   1.669  1.0661  0.0865 -1.9907
28464SOL    HW292251   9.345   3.587   1.689  1.4585  0.0944 -0.0078
28465SOL     OW92252   5.645   6.159   3.000 -0.4959  0.2347  0.2162
28465SOL    HW192253   5.683   6.103   3.067  0.6087 -1.8390 -1.9878
28465SOL    HW292254   5.551   6.157   3.017 -0.2210 -0.0170  1.8126
28466SOL     OW92255   5.958   8.253   4.436 -0.2553 -0.2091  0.7201
28466SOL    HW192256   5.929   8.165   4.462 -0.2323 -0.1645  0.8991
28466SOL    HW292257   6.053   8.245   4.427 -0.1373  0.0107  1.6092
28467SOL     OW92258   1.446  11.666   0.858 -0.5118  0.2546 -0.3699
28467SOL    HW192259   1.362  11.700   0.829 -2.2000 -1.2631  2.2857
28467SOL    HW292260   1.455  11.699   0.948  0.2432 -1.9970  0.4425
28468SOL     OW92261  12.352  11.483  11.494 -0.3709 -0.5209  0.1884
28468SOL    HW192262  12.400  11.426  11.433 -1.2388 -0.0929 -0.9424
28468SOL    HW292263  12.420  11.529  11.542  0.5312  1.8453 -3.0176
28469SOL     OW92264   9.106  10.003  11.969 -0.5939  0.2057 -0.1867
28469SOL    HW192265   9.193   9.966  11.985 -0.5226  0.0887 -0.8196
28469SOL    HW292266   9.077   9.961  11.888 -1.5682 -0.3442  0.4285
28470SOL     OW92267   3.130   5.081  11.611  0.3464  0.1439 -0.0859
28470SOL    HW192268   3.219   5.106  11.583 -0.1544  2.1554 -0.0488
28470SOL    HW292269   3.075   5.104  11.537 -0.3068  0.0903  0.3820
28471SOL     OW92270   7.176   6.419  10.039  0.0990 -0.4754  0.5224
28471SOL    HW192271   7.151   6.334  10.076 -0.6551 -0.1395  0.8139
28471SOL    HW292272   7.211   6.468  10.113 -1.6655  0.2947  0.8973
28472SOL     OW92273  10.675   0.763  12.353 -0.3424 -0.1510  0.2402
28472SOL    HW192274  10.756   0.743  12.401  0.9786  1.3390 -1.2400
28472SOL    HW292275  10.621   0.685  12.364  1.5882 -1.4920  0.7008
28473SOL     OW92276   3.700   0.137  10.010 -0.3115 -0.6181  0.5815
28473SOL    HW192277   3.635   0.116   9.943  0.8894  0.3817 -0.9891
28473SOL    HW292278   3.779   0.160   9.960  0.1577  1.8348  2.2499
28474SOL     OW92279   0.830   8.628   8.735  0.0335  0.7188 -0.2778
28474SOL    HW192280   0.815   8.536   8.712 -0.7593  0.5843  0.7246
28474SOL    HW292281   0.766   8.647   8.802  0.9946  1.6706  0.4087
28475SOL     OW92282  12.154   0.186   2.820  0.1832  0.1845 -0.7152
28475SOL    HW192283  12.149   0.272   2.862 -0.4517  0.3180 -1.0631
28475SOL    HW292284  12.068   0.173   2.780  0.2611 -0.6357 -0.6258
28476SOL     OW92285   8.690   4.394   3.143  0.6084 -0.1963 -0.0012
28476SOL    HW192286   8.711   4.442   3.223 -0.6210 -2.1111  1.5648
28476SOL    HW292287   8.657   4.310   3.173  1.4573 -1.5776 -2.5778
28477SOL     OW92288  10.612   8.495  10.214  0.0022 -0.1823  0.1333
28477SOL    HW192289  10.591   8.574  10.263  1.7719 -0.9929  2.3868
28477SOL    HW292290  10.614   8.523  10.123  0.9851  2.4996  0.8874
28478SOL     OW92291   2.104   4.701   9.656 -0.1092 -0.2055  0.3601
28478SOL    HW192292   2.106   4.797   9.656 -1.5234 -0.1539  0.1366
28478SOL    HW292293   2.045   4.678   9.584  0.8428 -1.2846 -0.1240
28479SOL     OW92294   8.931   7.211   1.824  0.1495 -0.1237 -0.1108
28479SOL    HW192295   8.920   7.129   1.872  2.0258  0.5537  1.5941
28479SOL    HW292296   8.991   7.189   1.752  1.2022 -0.1305  0.7481
28480SOL     OW92297   2.697  11.613   1.271  0.5545  0.0978 -0.1229
28480SOL    HW192298   2.643  11.659   1.206 -0.1113 -0.1567  0.2403
28480SOL    HW292299   2.644  11.613   1.350  0.8118 -0.7447  0.0571
28481SOL     OW92300   2.099   4.975  12.535 -0.0967  0.7540 -0.4595
28481SOL    HW192301   2.107   4.881  12.552 -0.6165  0.4087 -1.9784
28481SOL    HW292302   2.048   5.009  12.609 -0.9384 -0.3763 -0.5019
28482SOL     OW92303  10.436   7.693   4.454  0.0122 -0.1998  0.3436
28482SOL    HW192304  10.437   7.599   4.435  0.5889  0.0843 -1.1378
28482SOL    HW292305  10.523   7.711   4.489 -0.1672 -0.2311  0.8256
28483SOL     OW92306  12.100   1.883   7.744 -0.3381 -0.2176  0.2249
28483SOL    HW192307  12.184   1.922   7.768  0.8836 -0.0895 -3.5006
28483SOL    HW292308  12.116   1.788   7.746  0.4868 -0.1749 -1.9430
28484SOL     OW92309   6.216   7.110   6.646  0.0838 -0.2965 -0.5083
28484SOL    HW192310   6.283   7.173   6.620  0.5388 -0.7239 -0.4100
28484SOL    HW292311   6.225   7.103   6.741  0.0450 -0.5125 -0.5192
28485SOL     OW92312   2.607   7.742   0.585  0.0393 -0.0522 -0.2048
28485SOL    HW192313   2.516   7.758   0.609 -0.4082 -1.3302 -0.9560
28485SOL    HW292314   2.655   7.749   0.668 -0.8211  0.0982  0.2966
28486SOL     OW92315   8.838   1.736   6.128 -0.4119 -0.1444  0.0240
28486SOL    HW192316   8.753   1.702   6.157 -0.5848 -1.4738 -1.8122
28486SOL    HW292317   8.858   1.685   6.049  2.6014 -0.6362  0.9575
28487SOL     OW92318   3.339   7.033   7.019 -0.2814  0.1112  0.2169
28487SOL    HW192319   3.414   7.082   7.051 -0.6530  1.3349 -0.7138
28487SOL    HW292320   3.294   7.003   7.098 -1.1407  2.9825  0.9282
28488SOL     OW92321  10.674   1.037  12.021  0.4014  0.0743 -0.2379
28488SOL    HW192322  10.667   1.081  11.936 -0.4941 -1.0711 -0.7886
28488SOL    HW292323  10.627   0.954  12.009  2.6588 -1.4034  0.5286
28489SOL     OW92324   4.353   0.452   9.456  0.3288 -0.1329 -0.3077
28489SOL    HW192325   4.403   0.428   9.534  0.1527 -0.9361 -0.4284
28489SOL    HW292326   4.287   0.514   9.487  1.2482  0.7729 -0.1039
28490SOL     OW92327   6.254   1.820   1.114 -0.1353 -0.0190 -0.2574
28490SOL    HW192328   6.195   1.816   1.039  0.0899 -1.9504 -0.3948
28490SOL    HW292329   6.204   1.862   1.183 -0.6179  1.0706 -1.2404
28491SOL     OW92330  10.544   3.202   3.514 -0.3257  0.3562 -0.3365
28491SOL    HW192331  10.557   3.204   3.419  1.3021 -1.5245 -0.2307
28491SOL    HW292332  10.450   3.191   3.526 -0.8719  2.9337 -1.6254
28492SOL     OW92333   8.971   5.899   8.416 -0.0266 -0.3794 -0.0224
28492SOL    HW192334   8.953   5.854   8.334 -2.0571 -0.1662  0.2560
28492SOL    HW292335   8.929   5.985   8.406 -1.6142 -0.8666  1.7275
28493SOL     OW92336   1.276   9.432  10.464  0.1875  0.2178  0.7149
28493SOL    HW192337   1.355   9.379  10.475  0.4616  1.0120  3.0459
28493SOL    HW292338   1.306   9.509  10.416  0.4732 -0.2058  0.1991
28494SOL     OW92339  11.959  11.062  12.479  0.1868  0.0526 -0.3636
28494SOL    HW192340  11.947  10.968  12.496 -1.0259 -0.2652 -2.5707
28494SOL    HW292341  11.931  11.073  12.388  3.6833  1.9051 -1.4175
28495SOL     OW92342   4.547   8.813   5.029 -0.0133  0.1364  0.0321
28495SOL    HW192343   4.503   8.879   4.976 -0.6428 -0.0976  0.2564
28495SOL    HW292344   4.530   8.730   4.985 -1.3097 -0.1755  1.0683
28496SOL     OW92345   4.201   7.847   3.959 -0.3583 -0.4130 -0.1971
28496SOL    HW192346   4.120   7.864   4.007 -0.2315 -1.5657  0.4671
28496SOL    HW292347   4.271   7.869   4.020 -0.1698 -0.1322 -0.5082
28497SOL     OW92348   5.048  12.302   3.505 -0.1671  0.0009  0.3487
28497SOL    HW192349   5.074  12.238   3.571 -0.1502  1.2266  1.5722
28497SOL    HW292350   5.130  12.344   3.479 -0.3407  0.5373  0.6540
28498SOL     OW92351  11.594   5.550   8.990 -0.2444  0.2142 -0.1233
28498SOL    HW192352  11.594   5.643   9.012 -2.1475  0.7692 -2.0837
28498SOL    HW292353  11.591   5.548   8.894  0.3656 -1.8960 -0.1527
28499SOL     OW92354   9.805  12.043   0.731 -0.6525  0.1026  0.1513
28499SOL    HW192355   9.811  12.135   0.756 -1.4259  0.1903  0.0340
28499SOL    HW292356   9.761  12.045   0.646  0.5628 -0.2892 -0.5081
28500SOL     OW92357   7.280   4.356   8.791 -0.6083  0.3414 -0.8667
28500SOL    HW192358   7.206   4.414   8.807 -1.0400 -0.1936 -0.8877
28500SOL    HW292359   7.246   4.290   8.730 -0.4999 -0.6258  0.0736
28501SOL     OW92360   8.922   0.835   0.217 -0.5414  0.1762  0.4610
28501SOL    HW192361   8.918   0.739   0.226  0.0280  0.2519  1.8684
28501SOL    HW292362   8.893   0.852   0.128 -0.3575 -1.3350  0.0798
28502SOL     OW92363  11.451   8.676   9.339 -0.4992 -0.0323  0.2453
28502SOL    HW192364  11.526   8.645   9.390 -0.5123  0.5161  0.6061
28502SOL    HW292365  11.458   8.629   9.255  0.5720  0.4397  0.0577
28503SOL     OW92366   2.657   6.625   6.098 -0.3447 -0.4325 -0.3823
28503SOL    HW192367   2.624   6.536   6.109  2.0704 -1.3888 -0.2784
28503SOL    HW292368   2.674   6.655   6.187  0.7240 -0.6491 -0.5077
28504SOL     OW92369  12.530   3.206   3.597 -0.9334 -0.3628 -0.2340
28504SOL    HW192370  12.470   3.273   3.567 -0.8386  0.2997  1.0135
28504SOL    HW292371  12.604   3.211   3.536 -0.5478  1.2531  0.3335
28505SOL     OW92372  10.973   3.643   2.962  0.1249  0.0893 -0.1280
28505SOL    HW192373  10.995   3.572   2.902 -0.1177 -0.0026 -0.1096
28505SOL    HW292374  11.043   3.644   3.026  0.1214 -0.1397 -0.1213
28506SOL     OW92375   8.298  10.540   5.392  0.0546  0.6050  0.5276
28506SOL    HW192376   8.215  10.499   5.369  0.3898  0.4018 -0.3631
28506SOL    HW292377   8.280  10.588   5.473 -0.2384 -1.7017  1.9492
28507SOL     OW92378   1.915   7.038   2.268 -0.8756  0.9093  0.4772
28507SOL    HW192379   1.962   7.121   2.260 -0.0096  0.3441 -0.5000
28507SOL    HW292380   1.970   6.986   2.328  0.8788 -0.4523 -2.1118
28508SOL     OW92381   8.955   8.162   5.849 -0.4564  0.0195 -0.4691
28508SOL    HW192382   9.010   8.197   5.919 -1.5657  0.2530  0.3098
28508SOL    HW292383   9.012   8.160   5.772  0.9973 -0.8686  0.5757
28509SOL     OW92384   1.714   8.604   4.521 -0.1290  0.3272  0.5103
28509SOL    HW192385   1.716   8.673   4.587 -0.7640  0.3376  0.5257
28509SOL    HW292386   1.637   8.552   4.543  1.3851 -1.5884  1.7056
28510SOL     OW92387   3.080   3.160  12.076  0.8019  0.6012 -0.1891
28510SOL    HW192388   2.997   3.126  12.109  2.2061 -1.6243  1.3181
28510SOL    HW292389   3.056   3.211  11.999 -1.8881 -0.4679 -0.1668
28511SOL     OW92390   1.416  11.679  11.719 -0.9960  0.6228 -0.3267
28511SOL    HW192391   1.379  11.768  11.715 -1.0230  0.6298  0.0369
28511SOL    HW292392   1.341  11.623  11.736 -0.9681  0.5364 -0.4894
28512SOL     OW92393   1.660   6.566   1.220  0.2759  0.1222 -0.1466
28512SOL    HW192394   1.681   6.509   1.294 -0.6697 -1.4046 -1.0029
28512SOL    HW292395   1.698   6.651   1.243  1.5165 -0.7803  1.2819
28513SOL     OW92396   0.337   9.187  12.277  0.0336 -0.2623 -0.3172
28513SOL    HW192397   0.273   9.208  12.345  2.1528 -2.0710  2.4609
28513SOL    HW292398   0.291   9.131  12.216 -1.6402  0.4401  0.2439
28514SOL     OW92399  10.513   0.170   9.968 -0.6503 -0.3473 -0.1785
28514SOL    HW192400  10.472   0.236   9.912 -0.8847 -0.2609  0.0914
28514SOL    HW292401  10.530   0.216  10.050  0.8514 -0.1159 -0.5911
28515SOL     OW92402   0.969   3.227   9.518  0.1856  0.2800  0.1117
28515SOL    HW192403   0.920   3.309   9.505 -1.4967 -0.7113 -0.1475
28515SOL    HW292404   0.916   3.161   9.472  1.5764 -0.9307  0.2072
28516SOL     OW92405   5.650   0.770  10.877 -0.2682  0.0138 -0.2277
28516SOL    HW192406   5.718   0.829  10.845 -1.0047  1.1018  0.1252
28516SOL    HW292407   5.573   0.791  10.824 -0.1035 -1.8883 -1.3026
28517SOL     OW92408  11.802   0.447  11.537 -0.3096 -0.1546 -0.5748
28517SOL    HW192409  11.748   0.439  11.459 -1.1579  0.5402 -0.0848
28517SOL    HW292410  11.745   0.489  11.601  1.5073  3.0024 -0.7780
28518SOL     OW92411   6.427   0.974   2.630  0.2672  0.1696  0.0664
28518SOL    HW192412   6.508   0.966   2.579  0.5088 -0.1241  0.4937
28518SOL    HW292413   6.373   0.902   2.600 -0.5288  1.3275 -1.4389
28519SOL     OW92414   5.592   0.684   6.615 -0.2712 -0.5858 -0.1332
28519SOL    HW192415   5.655   0.622   6.579 -1.3862 -1.2746 -0.9586
28519SOL    HW292416   5.570   0.742   6.542 -1.5441 -1.1614 -0.2301
28520SOL     OW92417   7.768   7.080   9.334  0.2558 -0.1163  0.5170
28520SOL    HW192418   7.748   7.147   9.269  3.5509  0.6361  0.0914
28520SOL    HW292419   7.686   7.068   9.382 -1.5517  1.2618 -1.9727
28521SOL     OW92420   4.525   3.173   3.545  0.1619  0.5081  0.0680
28521SOL    HW192421   4.476   3.118   3.483 -0.5225  1.6813 -0.4553
28521SOL    HW292422   4.564   3.242   3.491  0.6160  0.8244  0.7800
28522SOL     OW92423   3.331   3.972  10.112 -0.5331 -0.0617 -0.3825
28522SOL    HW192424   3.324   3.890  10.063 -0.6471 -1.2435  1.5233
28522SOL    HW292425   3.353   4.037  10.046 -2.2152 -1.2720 -2.2713
28523SOL     OW92426   0.825   5.623  12.513 -0.2992  0.4590 -0.3769
28523SOL    HW192427   0.790   5.672  12.588  0.7416 -0.6855  0.9156
28523SOL    HW292428   0.760   5.634  12.444 -1.1162  1.8604  0.5664
28524SOL     OW92429   7.743  11.845   1.847  0.2872 -0.1008  0.0391
28524SOL    HW192430   7.711  11.802   1.926 -0.1861 -0.1245 -0.1612
28524SOL    HW292431   7.799  11.780   1.805 -0.3884 -0.5124 -0.2374
28525SOL     OW92432   8.081   5.601  11.569 -0.6354 -0.4509  0.1347
28525SOL    HW192433   8.173   5.628  11.561 -0.2465 -1.7636  0.0018
28525SOL    HW292434   8.055   5.628  11.657  0.1674 -0.9211  0.5184
28526SOL     OW92435   2.112   9.719   4.343  0.1891 -0.1838 -0.3420
28526SOL    HW192436   2.048   9.778   4.384  0.0887 -0.7013  0.2506
28526SOL    HW292437   2.058   9.655   4.296  0.1230 -2.1122  2.1471
28527SOL     OW92438   3.575   1.439   3.918 -0.3695 -0.5028  0.2107
28527SOL    HW192439   3.656   1.485   3.939  0.8542 -1.7335 -1.5716
28527SOL    HW292440   3.515   1.509   3.890 -0.1226  0.4654  1.9617
28528SOL     OW92441   7.419   9.684   6.492 -0.1609 -0.1258 -0.1583
28528SOL    HW192442   7.428   9.588   6.495 -0.9798 -0.1940  0.3925
28528SOL    HW292443   7.468   9.709   6.414  0.0981 -0.9923 -0.2941
28529SOL     OW92444   1.784   7.629   9.217  0.2416  0.3459 -0.4668
28529SOL    HW192445   1.753   7.550   9.262 -1.5748  1.1112 -0.2958
28529SOL    HW292446   1.862   7.655   9.267 -0.3718 -0.1415  0.8010
28530SOL     OW92447  10.444   6.172   6.854 -0.0787  0.2012  0.1907
28530SOL    HW192448  10.413   6.081   6.858  0.4248  0.0136 -0.0328
28530SOL    HW292449  10.414   6.211   6.936 -0.3866 -0.1364  0.2454
28531SOL     OW92450   5.813  10.503  11.327  0.5016 -0.3565 -0.0744
28531SOL    HW192451   5.718  10.518  11.330  0.6760  0.7528  0.5645
28531SOL    HW292452   5.841  10.550  11.249  0.5552 -0.5458 -0.1700
28532SOL     OW92453   0.544   5.066  10.094 -0.6456  0.2002 -0.1150
28532SOL    HW192454   0.581   5.024  10.016 -0.8247 -0.3724  0.0995
28532SOL    HW292455   0.456   5.028  10.102 -0.7781  0.5524  0.1365
28533SOL     OW92456   9.238  10.110   0.436 -0.2967 -0.0179  0.0546
28533SOL    HW192457   9.184  10.032   0.421 -0.1709 -0.1765  0.4086
28533SOL    HW292458   9.176  10.177   0.464 -0.6127  0.4453 -1.6668
28534SOL     OW92459   8.640   8.766   3.752 -0.3742  0.0343 -0.1371
28534SOL    HW192460   8.704   8.826   3.713 -0.7132  0.7475  0.3992
28534SOL    HW292461   8.684   8.733   3.830  0.1127 -1.0271 -0.8222
28535SOL     OW92462  12.541   6.129   7.473  0.3243  0.1138  0.3868
28535SOL    HW192463  12.504   6.094   7.392  0.6345  2.9073 -1.0938
28535SOL    HW292464  12.555   6.053   7.529 -1.4606 -1.7349 -1.5308
28536SOL     OW92465   4.562   1.782  11.242  0.5331 -0.2266  0.0667
28536SOL    HW192466   4.635   1.720  11.238  0.5949 -0.1107 -0.7766
28536SOL    HW292467   4.534   1.791  11.151  0.8388  1.3543  0.1041
28537SOL     OW92468   5.861   1.734   3.721  0.0658 -0.1076 -0.3108
28537SOL    HW192469   5.901   1.697   3.800  1.1893  0.1950 -0.7261
28537SOL    HW292470   5.791   1.791   3.755 -2.2418 -3.0516  0.3439
28538SOL     OW92471   9.627  12.467   5.003 -0.2258  0.5339  0.1939
28538SOL    HW192472   9.594  12.546   4.959  0.0253  0.1413 -0.7153
28538SOL    HW292473   9.714  12.492   5.035 -1.4665  1.7501  3.0672
28539SOL     OW92474  10.320  10.938   5.213 -0.1261 -0.1492  0.4508
28539SOL    HW192475  10.232  10.910   5.238 -0.0018 -1.8364 -0.8079
28539SOL    HW292476  10.352  10.869   5.155  1.4770  1.1345 -0.3028
28540SOL     OW92477   7.843   6.039   2.366 -0.4029  0.1530  0.5113
28540SOL    HW192478   7.874   6.128   2.352 -0.2062  0.3126  1.8541
28540SOL    HW292479   7.904   6.002   2.429  1.2653 -1.9345 -2.1003
28541SOL     OW92480   3.046   1.000   7.732  0.2781  0.3620 -0.5832
28541SOL    HW192481   3.128   1.048   7.731 -0.0046  0.8691 -0.2211
28541SOL    HW292482   2.985   1.055   7.683 -0.5815  1.3929  1.4842
28542SOL     OW92483   4.757   3.424  10.278  0.8553  0.0580 -0.2151
28542SOL    HW192484   4.685   3.485  10.290  0.2637 -1.0706  2.7598
28542SOL    HW292485   4.825   3.455  10.338  2.3682  0.2714 -1.9276
28543SOL     OW92486   1.718   8.766   6.615  0.0351  0.0263  0.3608
28543SOL    HW192487   1.696   8.709   6.689  1.6052  1.0999  1.7338
28543SOL    HW292488   1.809   8.743   6.594 -0.0957  0.3764 -0.6450
28544SOL     OW92489   4.702   7.063   8.419 -0.0117  0.3228  0.4841
28544SOL    HW192490   4.789   7.075   8.381 -0.5350  0.8561 -0.5840
28544SOL    HW292491   4.681   7.147   8.458 -0.4595  0.5168 -0.1570
28545SOL     OW92492   7.595   2.349  11.595  0.3451  0.6033 -0.1218
28545SOL    HW192493   7.685   2.355  11.561  0.3324  0.4316 -0.1838
28545SOL    HW292494   7.540   2.344  11.516  0.3574 -0.4507 -0.0718
28546SOL     OW92495   2.288   4.719  11.483 -0.1351  0.7915 -0.2097
28546SOL    HW192496   2.275   4.626  11.502  0.5318  0.6802 -0.2839
28546SOL    HW292497   2.362   4.744  11.537  0.3885  1.0085 -1.0076
28547SOL     OW92498   2.198   7.209  10.612 -0.1482 -0.4384  0.0165
28547SOL    HW192499   2.114   7.255  10.619  0.2962  0.4823 -0.4102
28547SOL    HW292500   2.263   7.277  10.629  0.5960 -0.5473 -2.1002
28548SOL     OW92501   7.361   6.175   7.963 -0.1583 -0.0160  0.2862
28548SOL    HW192502   7.373   6.221   7.880 -0.2676 -1.5098 -0.5740
28548SOL    HW292503   7.266   6.178   7.979 -0.5526 -2.4204 -1.2631
28549SOL     OW92504   7.271   6.618   2.266  0.6282  0.0594  0.1237
28549SOL    HW192505   7.328   6.637   2.191 -0.7803  1.0296 -0.7515
28549SOL    HW292506   7.257   6.703   2.307 -0.0702 -0.1830  0.3964
28550SOL     OW92507  10.628   2.168   4.913  0.1793 -0.4906 -0.0313
28550SOL    HW192508  10.624   2.224   4.990  0.7229  0.9303 -1.0029
28550SOL    HW292509  10.609   2.080   4.946  3.6692 -0.5394  2.3617
28551SOL     OW92510   7.899   1.479   5.844  0.3862 -0.7214 -0.2115
28551SOL    HW192511   7.994   1.471   5.843  0.5599  0.8809 -0.2814
28551SOL    HW292512   7.882   1.553   5.903 -0.7076  0.0072 -1.3773
28552SOL     OW92513   4.046   5.874   9.718 -0.4681 -0.1118 -0.1178
28552SOL    HW192514   4.002   5.836   9.642  1.0578 -1.2217 -0.4986
28552SOL    HW292515   4.038   5.807   9.786 -1.6619  0.7961  0.6811
28553SOL     OW92516   9.013   9.072   2.020  0.7910 -0.8011 -0.4193
28553SOL    HW192517   9.096   9.109   2.047 -0.2104  1.3754 -0.1130
28553SOL    HW292518   8.998   8.999   2.080  1.9876 -0.5697  0.1785
28554SOL     OW92519   8.242   3.058   7.923 -0.2123 -0.0467 -0.8767
28554SOL    HW192520   8.177   3.053   7.994 -0.7648 -1.2388 -1.4364
28554SOL    HW292521   8.305   3.123   7.953 -2.3055  2.0874 -0.8607
28555SOL     OW92522   3.952   9.111   1.648  0.2933 -0.1229  0.2145
28555SOL    HW192523   3.921   9.184   1.700 -1.9676  0.4587 -1.7413
28555SOL    HW292524   4.041   9.095   1.678  0.1497  2.1150  2.0589
28556SOL     OW92525   0.344   3.693  10.993 -0.3821  0.1783  0.0814
28556SOL    HW192526   0.423   3.661  11.036 -0.9839 -3.6020 -1.2678
28556SOL    HW292527   0.366   3.693  10.900 -1.3650  1.0121 -0.1639
28557SOL     OW92528   4.015  12.363   8.238 -0.6726  0.1185 -0.3558
28557SOL    HW192529   4.021  12.443   8.290 -1.1603  0.1825 -0.3913
28557SOL    HW292530   4.097  12.359   8.189 -0.2473  0.1106  0.3433
28558SOL     OW92531   4.640   2.651   0.131  0.1995 -0.7050  0.3662
28558SOL    HW192532   4.711   2.611   0.181  1.0640 -0.1377 -0.3759
28558SOL    HW292533   4.671   2.649   0.040  0.4408  1.9594  0.3232
28559SOL     OW92534   0.926   4.309   5.479  0.5165 -0.3793  0.0253
28559SOL    HW192535   0.962   4.389   5.515 -1.7363  1.2843 -1.1224
28559SOL    HW292536   0.981   4.289   5.404 -0.1669  1.4604 -1.0354
28560SOL     OW92537   0.101   2.438   8.803  0.0644  0.4349  0.1661
28560SOL    HW192538   0.074   2.491   8.878 -0.4672  1.4987 -0.7538
28560SOL    HW292539   0.020   2.417   8.758  0.4604  0.6950 -0.6857
28561SOL     OW92540   9.478   5.244   7.760 -0.0785  0.0170  0.4663
28561SOL    HW192541   9.450   5.319   7.708  0.8018  0.0611  0.0413
28561SOL    HW292542   9.548   5.204   7.709  0.4984 -0.2001  1.4103
28562SOL     OW92543   9.706   1.828  11.498 -0.4064 -0.0248 -0.1789
28562SOL    HW192544   9.738   1.909  11.538  0.0507  0.4771 -1.5316
28562SOL    HW292545   9.745   1.758  11.551 -0.4554  0.6227  0.7272
28563SOL     OW92546   0.765   5.528   6.047  0.3943 -0.1862 -0.6914
28563SOL    HW192547   0.850   5.493   6.019 -0.0032  0.0633 -2.2944
28563SOL    HW292548   0.751   5.489   6.134  2.4136  0.2615 -0.1025
28564SOL     OW92549   7.665   4.786   4.262 -0.2218  0.4357 -0.4855
28564SOL    HW192550   7.734   4.744   4.313 -0.6558 -0.1833 -0.4075
28564SOL    HW292551   7.609   4.828   4.328 -0.2899  0.3839 -0.5114
28565SOL     OW92552   1.123   9.000  11.315 -0.2973  0.3214 -0.1173
28565SOL    HW192553   1.104   9.079  11.264  0.6070 -0.6553 -2.0865
28565SOL    HW292554   1.198   8.961  11.270  1.2689 -0.0630  2.6412
28566SOL     OW92555   4.179   2.907   5.450 -0.3459  0.2207 -0.3754
28566SOL    HW192556   4.255   2.880   5.501 -1.0170  1.1801  1.2253
28566SOL    HW292557   4.208   2.984   5.402  0.3371 -0.7797 -1.6410
28567SOL     OW92558  10.825   2.369  10.853  0.2181  0.2541 -0.3408
28567SOL    HW192559  10.850   2.368  10.945  1.0045 -0.6725 -0.5476
28567SOL    HW292560  10.824   2.462  10.829  1.3405  0.4302  0.2493
28568SOL     OW92561   9.290   5.014   1.711  0.3419 -0.3175  0.4151
28568SOL    HW192562   9.384   5.021   1.695  0.0187  0.9582 -1.1974
28568SOL    HW292563   9.259   4.950   1.646 -0.0105 -0.1363  0.4002
28569SOL     OW92564   7.536   4.595   2.662  0.1964 -0.1079  0.1944
28569SOL    HW192565   7.550   4.544   2.742 -1.1730  1.1096  1.2714
28569SOL    HW292566   7.481   4.539   2.608  0.1456 -0.4777  0.6177
28570SOL     OW92567   1.775   8.345   9.257 -0.4310 -0.4650 -0.1649
28570SOL    HW192568   1.691   8.378   9.223 -1.8379 -2.3104  1.2768
28570SOL    HW292569   1.837   8.359   9.186 -2.2535 -0.1784 -1.7836
28571SOL     OW92570   9.371  11.602   4.607 -0.0389  0.0932 -0.4556
28571SOL    HW192571   9.300  11.663   4.625  1.8693  2.8083 -1.4783
28571SOL    HW292572   9.374  11.595   4.511  0.7864 -0.3299 -0.4198
28572SOL     OW92573   5.125   2.143   3.389  0.2151  0.0179 -0.2408
28572SOL    HW192574   5.122   2.162   3.482 -0.2072  1.8047 -0.5846
28572SOL    HW292575   5.203   2.189   3.357 -0.5329  0.7970 -1.0193
28573SOL     OW92576   1.150   0.214  10.179 -0.6649 -0.4147 -0.2988
28573SOL    HW192577   1.120   0.299  10.147  0.4610 -0.0725 -0.4692
28573SOL    HW292578   1.245   0.224  10.189 -0.8086 -0.8557  2.0938
28574SOL     OW92579   9.398   8.566   2.848  0.4044  0.4674  0.2965
28574SOL    HW192580   9.345   8.630   2.801  1.3808  1.0327 -0.0723
28574SOL    HW292581   9.488   8.600   2.842  0.9658 -0.9892 -0.0081
28575SOL     OW92582  11.432   1.077  10.024  0.2711  0.5513  0.5960
28575SOL    HW192583  11.460   1.166  10.040 -0.1370  0.6088  1.0138
28575SOL    HW292584  11.338   1.078  10.042  0.2319  0.0788  0.4350
28576SOL     OW92585   4.046   8.283   7.285 -0.8022  0.8829  0.0262
28576SOL    HW192586   4.067   8.348   7.352 -1.6303  0.7692  0.4004
28576SOL    HW292587   4.031   8.202   7.333  0.8108  0.2381 -0.4834
28577SOL     OW92588   5.310   1.124  11.178  0.0613  0.5906 -0.3573
28577SOL    HW192589   5.365   1.126  11.256  0.0727  2.0687 -0.3678
28577SOL    HW292590   5.360   1.173  11.113  0.6755 -1.7692 -1.7644
28578SOL     OW92591   2.602   6.529   7.337 -0.1166  0.1303  0.4177
28578SOL    HW192592   2.671   6.463   7.326 -1.3671 -0.9974 -1.0864
28578SOL    HW292593   2.581   6.526   7.431 -0.1240 -1.6151  0.3873
28579SOL     OW92594   2.000   3.289   3.914 -0.0547  0.6161 -0.2420
28579SOL    HW192595   1.980   3.199   3.888 -1.7030  0.9833 -0.3493
28579SOL    HW292596   2.011   3.337   3.832 -1.7007  1.0232 -0.2497
28580SOL     OW92597   1.727   2.239  10.791  0.3444  0.0340 -0.1902
28580SOL    HW192598   1.650   2.265  10.740 -0.0901 -0.3206  0.2785
28580SOL    HW292599   1.697   2.239  10.882  1.1842  0.9437  0.1157
28581SOL     OW92600   6.284   4.705   7.692 -0.2786  0.1525 -0.3476
28581SOL    HW192601   6.347   4.734   7.758 -1.4463  0.1995  0.7887
28581SOL    HW292602   6.265   4.614   7.715 -0.5751  0.1192 -0.7153
28582SOL     OW92603  10.767   9.598   2.199 -0.0692 -0.2731  0.2509
28582SOL    HW192604  10.803   9.676   2.240 -0.6673 -0.3537  0.9684
28582SOL    HW292605  10.705   9.564   2.264  1.0975 -2.0529  0.5136
28583SOL     OW92606   1.103   0.272   9.258 -0.3899  0.2532  0.1576
28583SOL    HW192607   1.183   0.252   9.306 -0.0156 -1.0591 -0.9657
28583SOL    HW292608   1.035   0.274   9.326  0.3840  0.1453  0.9570
28584SOL     OW92609  12.114   3.767   1.553  0.2561  0.6920  0.0228
28584SOL    HW192610  12.149   3.814   1.478  0.9770  1.4657  0.8205
28584SOL    HW292611  12.190   3.725   1.593 -0.2657 -0.5661 -0.2486
28585SOL     OW92612   8.281  10.485  12.420  0.3380 -0.4080  0.2588
28585SOL    HW192613   8.278  10.519  12.331 -0.4381  0.9389  0.7536
28585SOL    HW292614   8.193  10.450  12.435  0.4652 -0.6303  0.4868
28586SOL     OW92615   3.471   6.404   6.028 -0.2531  0.1576  0.2417
28586SOL    HW192616   3.528   6.382   5.955 -0.9174 -0.6473 -0.0523
28586SOL    HW292617   3.414   6.473   5.994  0.1180  0.5160  0.3368
28587SOL     OW92618   3.671   0.092   4.896 -0.4933  0.1739  0.3530
28587SOL    HW192619   3.585   0.074   4.859  0.3332  0.7446 -2.0549
28587SOL    HW292620   3.663   0.179   4.934 -0.5470  1.0877 -1.6005
28588SOL     OW92621  11.295   9.312   1.358 -0.4202 -0.1417 -1.0161
28588SOL    HW192622  11.371   9.310   1.416 -0.5064  0.3638 -0.8836
28588SOL    HW292623  11.233   9.250   1.396 -0.1875 -0.3507 -0.9729
28589SOL     OW92624  12.287  10.713   2.614 -0.8628  0.0226 -0.1035
28589SOL    HW192625  12.309  10.686   2.703 -0.2351 -0.7500 -0.4862
28589SOL    HW292626  12.289  10.633   2.563  1.3983  0.7726 -1.3459
28590SOL     OW92627   8.447  11.261  11.275 -0.0476  0.9660  0.2137
28590SOL    HW192628   8.420  11.351  11.254  2.7612  2.3191  1.8130
28590SOL    HW292629   8.542  11.264  11.273  0.1295 -1.9354  0.6880
28591SOL     OW92630   6.101   4.931   3.878  0.4575 -0.0713 -0.5028
28591SOL    HW192631   6.190   4.935   3.844 -0.0906  0.5550 -1.9582
28591SOL    HW292632   6.063   4.854   3.837 -0.7063  1.5598 -2.7527
28592SOL     OW92633   1.840  10.031   6.558  0.3398 -0.1310 -0.2829
28592SOL    HW192634   1.906  10.042   6.489  0.5204 -0.3014 -0.1371
28592SOL    HW292635   1.818   9.938   6.556  2.5255 -0.8071  1.8592
28593SOL     OW92636   4.053   7.088  12.485 -0.0410  0.3986  0.1297
28593SOL    HW192637   3.978   7.103  12.542  0.6621  2.8150  0.5625
28593SOL    HW292638   4.102   7.017  12.527 -1.0606  0.1456  0.9095
28594SOL     OW92639   6.159   1.375  12.422 -0.2569  0.5518 -0.0133
28594SOL    HW192640   6.198   1.431  12.488 -1.5782  0.3201  1.0063
28594SOL    HW292641   6.118   1.304  12.471  0.0407 -0.4648 -1.1839
28595SOL     OW92642   4.756   1.025   5.571 -0.2589  0.4717  0.6034
28595SOL    HW192643   4.736   1.119   5.565  1.7890  0.8704 -1.0271
28595SOL    HW292644   4.850   1.020   5.556 -0.3604 -1.8856  0.4812
28596SOL     OW92645   4.900   1.765   8.640 -0.0684 -0.2245 -0.0418
28596SOL    HW192646   4.944   1.850   8.636 -0.2027 -0.1261  0.5420
28596SOL    HW292647   4.902   1.741   8.732 -0.9632 -0.3594 -0.0498
28597SOL     OW92648  11.937   6.251   1.849  0.2012  0.2322  0.4155
28597SOL    HW192649  11.843   6.239   1.865 -0.0211  1.2783 -0.0212
28597SOL    HW292650  11.976   6.167   1.873 -0.9927 -0.6352 -0.5224
28598SOL     OW92651   2.663   7.616   6.191  0.2766 -0.4606  0.5511
28598SOL    HW192652   2.690   7.579   6.107  2.2333  2.6549 -0.3792
28598SOL    HW292653   2.739   7.606   6.248 -0.0410 -0.1096  1.0416
28599SOL     OW92654  11.604   7.352   8.596 -0.2948 -0.5939  0.8253
28599SOL    HW192655  11.669   7.412   8.633  0.9076 -1.1404 -0.3044
28599SOL    HW292656  11.550   7.408   8.540  2.3355 -0.7976 -2.1940
28600SOL     OW92657   1.888   8.550   1.619 -0.2487 -0.0467  0.0916
28600SOL    HW192658   1.859   8.482   1.679  1.9114  0.2967  1.6599
28600SOL    HW292659   1.950   8.602   1.670 -0.5180  2.0744 -1.5721
28601SOL     OW92660   1.614   0.498   4.783  0.0465 -0.2117 -0.5526
28601SOL    HW192661   1.666   0.489   4.863  1.5004  2.9856 -0.9965
28601SOL    HW292662   1.538   0.549   4.810 -0.1846 -0.3619 -0.9235
28602SOL     OW92663   6.519   0.760   5.188 -0.3947  0.0038  0.2268
28602SOL    HW192664   6.507   0.693   5.255  0.1417  2.6614  3.1889
28602SOL    HW292665   6.598   0.732   5.141 -0.9375 -2.0611  0.4131
28603SOL     OW92666   3.709  10.176   6.108  0.1089  0.4871 -0.1534
28603SOL    HW192667   3.707  10.093   6.061  0.9669  1.7929 -2.6873
28603SOL    HW292668   3.639  10.228   6.069  0.3385  1.3609  0.5631
28604SOL     OW92669   3.534   5.518   5.567  0.4783  0.4669  0.0933
28604SOL    HW192670   3.522   5.602   5.523  0.2064  0.3324 -0.0932
28604SOL    HW292671   3.583   5.465   5.505 -0.0446  0.2235 -0.1141
28605SOL     OW92672   5.512   6.196  10.389  0.1660  0.0568 -0.3249
28605SOL    HW192673   5.518   6.290  10.406 -1.1595  0.3692 -1.3607
28605SOL    HW292674   5.517   6.189  10.293  0.2672 -0.9275 -0.2583
28606SOL     OW92675  10.437   7.401  11.147 -0.0962  0.2040  0.3242
28606SOL    HW192676  10.429   7.320  11.197 -1.2774  0.8545  1.2426
28606SOL    HW292677  10.492   7.378  11.072 -1.1220 -1.6595  0.1077
28607SOL     OW92678   5.717   7.083   5.950 -0.2291 -0.1820  0.5888
28607SOL    HW192679   5.737   7.049   5.863 -0.2599  0.5207  0.2990
28607SOL    HW292680   5.791   7.140   5.971  0.5375 -1.5040  1.6778
28608SOL     OW92681   6.233   5.930  11.552  0.1665  0.1556  0.3567
28608SOL    HW192682   6.287   5.910  11.475 -0.0680 -2.0448  0.7066
28608SOL    HW292683   6.158   5.871  11.544 -0.2118  0.3927  1.9078
28609SOL     OW92684  12.527   5.837  12.115  0.0105 -0.4802 -0.0394
28609SOL    HW192685  12.479   5.757  12.134  1.5626 -1.4646 -0.0714
28609SOL    HW292686  12.575   5.856  12.195  0.9444 -0.5411 -0.5745
28610SOL     OW92687  11.134   6.052   1.045  0.1570 -0.1382 -0.7684
28610SOL    HW192688  11.151   6.135   1.087 -1.3459 -0.2126  0.0698
28610SOL    HW292689  11.102   6.075   0.958 -0.4622  0.1796 -0.4604
28611SOL     OW92690   9.530   7.107   1.580 -0.4298  0.0899 -0.1075
28611SOL    HW192691   9.521   7.056   1.499  1.9137 -1.2940  0.4019
28611SOL    HW292692   9.610   7.074   1.620 -0.3623  2.2472  1.7295
28612SOL     OW92693  11.629   3.924   5.711 -0.0849 -0.4726  0.0738
28612SOL    HW192694  11.540   3.958   5.708 -0.3002 -0.9465 -3.3519
28612SOL    HW292695  11.618   3.829   5.705  0.6355 -0.4936 -1.1115
28613SOL     OW92696   2.727   8.619  11.957 -0.4943  0.2869  0.0151
28613SOL    HW192697   2.739   8.546  12.018 -1.7393  0.4030  0.4394
28613SOL    HW292698   2.793   8.605  11.889  1.1730  0.3329  1.5328
28614SOL     OW92699   5.591   1.255   3.148  0.3856 -0.5231  0.3349
28614SOL    HW192700   5.653   1.326   3.166 -1.9479  1.1884  2.1986
28614SOL    HW292701   5.564   1.270   3.057 -0.8727  1.7898  0.9931
28615SOL     OW92702   7.416   6.198  11.572  0.3112  0.0769 -0.8567
28615SOL    HW192703   7.361   6.276  11.580  0.1032 -0.0323 -1.1745
28615SOL    HW292704   7.499   6.232  11.539  0.8389  0.3910  0.7176
28616SOL     OW92705   0.527   7.759   0.260  0.9056 -0.2750  0.0839
28616SOL    HW192706   0.523   7.673   0.220  2.7216  0.2496 -1.3382
28616SOL    HW292707   0.501   7.820   0.191  0.0575  0.3874  0.9420
28617SOL     OW92708   4.686   7.174   0.857  0.3100 -0.1365 -0.5227
28617SOL    HW192709   4.649   7.235   0.921  1.9656  1.9644 -1.4495
28617SOL    HW292710   4.610   7.129   0.820 -0.8424  0.1049  1.3784
28618SOL     OW92711   8.062   4.496  11.224 -0.3431 -0.2285 -0.0485
28618SOL    HW192712   8.086   4.565  11.285  1.0852 -0.2578 -0.5265
28618SOL    HW292713   8.029   4.425  11.279  0.7260 -0.1739  0.6857
28619SOL     OW92714   8.746  11.363   8.681 -0.1810 -0.6450  0.4300
28619SOL    HW192715   8.791  11.418   8.745 -0.4397 -1.3311  1.2131
28619SOL    HW292716   8.812  11.300   8.653 -0.2308 -0.7081  0.4550
28620SOL     OW92717   3.471   3.237  10.163 -0.1353 -0.0758  0.3021
28620SOL    HW192718   3.436   3.187  10.090  0.1619  0.9035 -0.5344
28620SOL    HW292719   3.566   3.228  10.156 -0.1096 -0.1661  0.7093
28621SOL     OW92720  12.152   2.236   1.941  0.0617 -0.7425  0.1445
28621SOL    HW192721  12.061   2.225   1.915  0.1457  1.3405 -1.2623
28621SOL    HW292722  12.151   2.306   2.007  0.7094 -0.0277 -0.5827
28622SOL     OW92723   0.680   5.788   5.040  0.1800  0.1807 -0.0112
28622SOL    HW192724   0.647   5.835   5.116 -0.1285 -0.2815  0.1481
28622SOL    HW292725   0.615   5.719   5.024  1.1777 -0.9061  0.4605
28623SOL     OW92726   2.720   7.703   1.185 -0.2441  0.1694 -0.2895
28623SOL    HW192727   2.778   7.662   1.120  0.0152 -0.8764  0.5744
28623SOL    HW292728   2.637   7.655   1.176 -0.1371 -0.1280  0.2995
28624SOL     OW92729   6.756   0.062   5.214  0.6320  0.2525 -0.0388
28624SOL    HW192730   6.668   0.101   5.219  1.3383  1.8808  0.6548
28624SOL    HW292731   6.782   0.074   5.123  1.4053  2.9071  0.4457
28625SOL     OW92732   5.300  11.245   2.386 -0.0585 -0.7743  0.3008
28625SOL    HW192733   5.386  11.271   2.418  0.3890  0.8432 -1.9366
28625SOL    HW292734   5.307  11.151   2.372  1.1773 -0.7527  0.6524
28626SOL     OW92735   2.136   3.807  11.564 -0.8463 -0.1010 -0.1629
28626SOL    HW192736   2.114   3.751  11.489 -1.0113  0.4144 -0.4997
28626SOL    HW292737   2.114   3.896  11.536 -0.8113  0.1122  0.4586
28627SOL     OW92738   1.318   2.544   6.000  0.8319  0.5364  0.2314
28627SOL    HW192739   1.275   2.465   6.035 -0.3929  1.2135  0.3070
28627SOL    HW292740   1.274   2.616   6.045  0.3827  1.3540 -1.4750
28628SOL     OW92741   7.155   5.681   2.072  0.1289  0.3918  0.0947
28628SOL    HW192742   7.066   5.707   2.045  0.9144  2.3847 -0.7772
28628SOL    HW292743   7.186   5.755   2.124  1.2195 -0.3863  0.5681
28629SOL     OW92744   5.388   8.451   6.598 -0.2397  0.5948 -0.3286
28629SOL    HW192745   5.468   8.491   6.565 -0.4460 -0.0003 -1.6183
28629SOL    HW292746   5.415   8.404   6.677  0.3803  1.6101  0.0791
28630SOL     OW92747   6.229   1.008   7.332  0.4141  0.3918 -0.1565
28630SOL    HW192748   6.205   0.921   7.299 -1.2991  0.1476  1.5398
28630SOL    HW292749   6.265   0.991   7.419  0.2822  1.3633  0.0949
28631SOL     OW92750   0.579   5.895   2.084  0.0624 -0.2442 -0.0914
28631SOL    HW192751   0.607   5.959   2.019 -2.2175 -0.1463 -1.0738
28631SOL    HW292752   0.536   5.826   2.033 -0.5782 -0.8308  1.1944
28632SOL     OW92753  11.977   8.074  10.349  0.1274  0.0601 -0.4626
28632SOL    HW192754  12.052   8.092  10.292 -0.0167 -0.0938 -0.7035
28632SOL    HW292755  11.902   8.073  10.290 -0.0628  0.1973 -0.2245
28633SOL     OW92756   5.547   8.731   0.307 -0.1243  0.2417 -0.4615
28633SOL    HW192757   5.602   8.736   0.385  1.3086 -1.3915 -1.2957
28633SOL    HW292758   5.515   8.820   0.295  0.6626  0.8029  1.2495
28634SOL     OW92759   5.421   8.709   7.366  0.3449 -0.1256  0.2260
28634SOL    HW192760   5.349   8.768   7.389  0.1024 -0.3665  0.0957
28634SOL    HW292761   5.379   8.638   7.317  0.6908 -0.2093  0.0495
28635SOL     OW92762  11.414   2.818   3.198 -0.3012  0.0384  0.0583
28635SOL    HW192763  11.357   2.879   3.244  1.5829  1.8963  0.0666
28635SOL    HW292764  11.418   2.852   3.109  0.4875 -0.2629 -0.0291
28636SOL     OW92765   3.743   0.254   1.178  0.4327  0.5290 -0.3592
28636SOL    HW192766   3.666   0.201   1.157  1.2290 -0.2450 -1.4547
28636SOL    HW292767   3.745   0.257   1.273  0.1252 -1.1001 -0.2666
28637SOL     OW92768   3.264   2.738   6.488 -0.0730  0.2201  0.0440
28637SOL    HW192769   3.230   2.777   6.408  0.3447  0.5769  0.0415
28637SOL    HW292770   3.292   2.650   6.462 -0.1830  0.2404 -0.1421
28638SOL     OW92771   4.794   2.383   2.856 -0.3260  0.0694  0.3922
28638SOL    HW192772   4.859   2.443   2.895 -0.9358  0.0438  1.4916
28638SOL    HW292773   4.803   2.302   2.906  0.5456 -0.8268 -1.1404
28639SOL     OW92774   4.061   2.481   1.718  0.2586  0.0136 -0.0298
28639SOL    HW192775   4.053   2.562   1.667  0.1515  0.3681  0.5389
28639SOL    HW292776   4.031   2.412   1.659 -2.2857  0.7047  0.3383
28640SOL     OW92777   4.256  11.941  10.428 -0.2645 -0.0430 -0.7712
28640SOL    HW192778   4.254  11.919  10.335 -1.8520 -1.8886 -0.3539
28640SOL    HW292779   4.203  12.020  10.435 -1.4801 -0.7896 -1.2659
28641SOL     OW92780   0.092  10.912  10.868 -0.1958  0.1749  0.4362
28641SOL    HW192781   0.187  10.912  10.878 -0.0136 -2.2001 -0.6737
28641SOL    HW292782   0.063  10.834  10.914 -0.9372 -2.2383 -3.6616
28642SOL     OW92783   9.487   0.976   1.879  0.0069  0.1885 -0.2886
28642SOL    HW192784   9.540   1.037   1.932 -0.7561  0.8859 -0.3158
28642SOL    HW292785   9.546   0.950   1.808  0.2293  1.1847 -0.4846
28643SOL     OW92786   2.323  11.787   0.239 -0.3011 -0.1632 -0.2886
28643SOL    HW192787   2.396  11.849   0.233 -1.7146  1.4760 -2.0217
28643SOL    HW292788   2.280  11.808   0.322  1.4259 -1.5405  1.0476
28644SOL     OW92789  11.679   3.924   0.672  0.1344  0.0125  0.2073
28644SOL    HW192790  11.772   3.947   0.669  0.1059  0.5512  1.9972
28644SOL    HW292791  11.635   4.004   0.703 -1.0324 -0.0189 -1.2779
28645SOL     OW92792   2.135   0.416  12.483 -0.1689  0.3148 -0.1668
28645SOL    HW192793   2.132   0.383  12.573 -1.2911 -1.1441 -0.6857
28645SOL    HW292794   2.101   0.343  12.431 -1.7388  1.9198 -1.5237
28646SOL     OW92795   1.080   6.199   3.776  0.4767 -0.0715 -0.9009
28646SOL    HW192796   1.042   6.160   3.697  1.3169  1.3450 -2.0813
28646SOL    HW292797   1.114   6.284   3.746  1.0644  0.3917  0.9421
28647SOL     OW92798   8.747   9.388   2.692  0.3229 -0.0807 -0.0859
28647SOL    HW192799   8.694   9.396   2.771 -1.9962  0.5443 -1.5922
28647SOL    HW292800   8.763   9.294   2.683 -0.8147 -0.3254  0.2724
28648SOL     OW92801   6.903   4.570   4.924 -0.0412  0.3359 -0.4754
28648SOL    HW192802   6.843   4.547   4.996  0.3046  0.1134 -0.2591
28648SOL    HW292803   6.985   4.528   4.947 -0.0206 -0.0024 -1.1715
28649SOL     OW92804  10.663   6.645   3.446 -0.0520  0.1184  0.1629
28649SOL    HW192805  10.587   6.598   3.413 -0.8299  1.3520  0.1389
28649SOL    HW292806  10.642   6.664   3.537  0.0954  0.7006  0.0835
28650SOL     OW92807   6.975   7.317   8.873 -0.1006  0.0488 -0.3595
28650SOL    HW192808   7.029   7.292   8.949 -0.8301 -0.5835 -0.0407
28650SOL    HW292809   7.033   7.371   8.820  0.0341  1.6666  1.3142
28651SOL     OW92810   7.852   4.174   9.948 -0.4057 -0.0057 -0.0655
28651SOL    HW192811   7.836   4.189  10.041  1.6321  1.3643  0.1440
28651SOL    HW292812   7.780   4.219   9.904 -1.5129 -0.8533  0.8157
28652SOL     OW92813   4.959  11.716   3.340 -0.0578 -0.1421  0.8625
28652SOL    HW192814   5.042  11.700   3.294 -0.7893 -0.0570 -0.5372
28652SOL    HW292815   4.985  11.733   3.431  1.6633  2.0377  0.0524
28653SOL     OW92816  11.784   6.369   3.449 -0.2292 -0.3870  0.2787
28653SOL    HW192817  11.766   6.280   3.418 -0.2794 -1.1730  2.4508
28653SOL    HW292818  11.719   6.424   3.404  0.3726 -1.2666 -1.7709
28654SOL     OW92819   3.764  10.738   5.429  0.2534  0.0052 -0.2624
28654SOL    HW192820   3.712  10.816   5.444 -1.3714 -0.8720 -1.0816
28654SOL    HW292821   3.704  10.676   5.388  1.7990 -1.2692 -0.7262
28655SOL     OW92822   5.158  12.464   3.792 -0.0970  0.5916 -0.4388
28655SOL    HW192823   5.226  12.466   3.859  0.7829 -0.7455 -1.2369
28655SOL    HW292824   5.205  12.471   3.709 -0.9033 -0.2896 -1.0004
28656SOL     OW92825   9.737   6.676   6.731  0.4786 -0.7014  0.0971
28656SOL    HW192826   9.814   6.629   6.697  0.9337  0.7188 -0.9134
28656SOL    HW292827   9.733   6.756   6.679 -0.9574 -0.1522  1.0046
28657SOL     OW92828   6.579  11.538   8.762  0.4183  0.6963  0.1092
28657SOL    HW192829   6.611  11.453   8.792  0.6958  1.0123  0.7223
28657SOL    HW292830   6.623  11.552   8.678 -0.1331 -0.0545 -0.3195
28658SOL     OW92831  10.867  11.150  12.456 -0.4079 -0.2721  0.0294
28658SOL    HW192832  10.900  11.166  12.544  0.3173 -1.7267  0.0601
28658SOL    HW292833  10.917  11.209  12.399  1.2136 -1.3642  0.2651
28659SOL     OW92834   3.997   0.223   9.917  0.0095 -0.5796 -0.4167
28659SOL    HW192835   4.005   0.318   9.924  1.0104 -0.7318  0.8643
28659SOL    HW292836   4.004   0.205   9.823  1.2911  0.5085 -0.5610
28660SOL     OW92837  10.574   3.866   2.265 -0.4188 -0.9210 -0.0818
28660SOL    HW192838  10.535   3.953   2.262 -0.3628 -0.9353 -1.8822
28660SOL    HW292839  10.662   3.880   2.300 -1.1401 -0.5835  1.7345
28661SOL     OW92840  11.010   2.118   4.235 -0.3451 -0.2325  0.4330
28661SOL    HW192841  11.100   2.109   4.268 -0.3249  0.7835  0.6927
28661SOL    HW292842  11.021   2.131   4.141 -0.0579  1.7319  0.6797
28662SOL     OW92843   4.984   5.078   8.634 -0.6269 -0.0053  0.6392
28662SOL    HW192844   5.034   5.080   8.716  1.3477 -0.5635 -0.5071
28662SOL    HW292845   4.902   5.124   8.655 -0.7054 -1.1648  3.2439
28663SOL     OW92846  10.326   7.112   4.013 -0.3894  0.2675 -0.5522
28663SOL    HW192847  10.402   7.075   4.058  0.3237 -0.7865 -2.5031
28663SOL    HW292848  10.354   7.201   3.988 -1.0230  1.1094  1.5327
28664SOL     OW92849   5.359   0.006   9.489 -0.8091  0.2690 -0.1818
28664SOL    HW192850   5.287  -0.055   9.475 -0.4378 -0.1962 -0.0851
28664SOL    HW292851   5.434  -0.034   9.446 -0.6024  0.7488 -0.2785
28665SOL     OW92852   3.378   0.068   4.696 -0.7423  0.4363  0.1355
28665SOL    HW192853   3.316   0.035   4.761 -0.3137  0.9005  0.7930
28665SOL    HW292854   3.406   0.152   4.730 -1.0390  1.0190 -1.0101
28666SOL     OW92855  11.239   8.510   6.834  0.1892 -0.0206  0.0654
28666SOL    HW192856  11.233   8.434   6.892 -0.4172  0.6543  0.9152
28666SOL    HW292857  11.163   8.563   6.857 -0.5205 -0.1021 -1.9041
28667SOL     OW92858   3.630   4.852   0.724  0.2070  0.1304  0.1473
28667SOL    HW192859   3.538   4.861   0.697  0.9509  3.8409 -1.7188
28667SOL    HW292860   3.631   4.879   0.816 -0.5554 -0.2451  0.2790
28668SOL     OW92861   4.262   2.563   1.873 -0.0027 -0.3954  0.1841
28668SOL    HW192862   4.212   2.612   1.938  0.7717 -2.3864  2.4604
28668SOL    HW292863   4.198   2.507   1.829 -0.1956 -1.0496  1.2604
28669SOL     OW92864   2.003  11.306   2.183  0.5999  0.6610 -0.1792
28669SOL    HW192865   2.001  11.291   2.278 -0.0440  1.8821  0.0080
28669SOL    HW292866   2.095  11.328   2.165  0.5270  1.4128  0.3264
28670SOL     OW92867   5.292  10.043   6.105  0.3405 -0.3234 -0.1770
28670SOL    HW192868   5.239  10.119   6.080  1.5401  0.2025 -1.2386
28670SOL    HW292869   5.361  10.080   6.160 -0.2784 -0.9841  1.0852
28671SOL     OW92870   9.854   1.594   2.554  0.1277  0.3749 -0.1131
28671SOL    HW192871   9.815   1.628   2.473  1.1330 -0.3181 -0.9139
28671SOL    HW292872   9.918   1.661   2.580 -1.1365  1.2357  0.8783
28672SOL     OW92873   6.419   2.354  11.432 -0.0900  0.3754 -0.1507
28672SOL    HW192874   6.463   2.413  11.494  0.3797  0.2850 -0.3895
28672SOL    HW292875   6.327   2.380  11.435  0.0465  0.8485  0.0536
28673SOL     OW92876   6.232   2.908  11.024 -0.4583 -0.1553  0.4900
28673SOL    HW192877   6.250   2.929  11.116 -0.5182 -0.8058  0.6521
28673SOL    HW292878   6.137   2.901  11.019 -0.5299  0.9156  0.1467
28674SOL     OW92879   9.891   3.490   8.793  0.1243 -0.0644  0.5028
28674SOL    HW192880   9.906   3.516   8.702  0.0843  1.0646  0.8001
28674SOL    HW292881   9.847   3.565   8.833 -0.8160 -0.9482  1.2015
28675SOL     OW92882   8.717  12.441   0.210 -0.1922 -0.2111 -0.2513
28675SOL    HW192883   8.748  12.351   0.219 -1.7771 -0.6002  1.9840
28675SOL    HW292884   8.794  12.494   0.230  0.7978 -1.0060 -1.7293
28676SOL     OW92885   3.645  11.607  11.374 -0.1124 -0.0396  0.0317
28676SOL    HW192886   3.659  11.701  11.372  0.0790 -0.0697 -0.1143
28676SOL    HW292887   3.694  11.576  11.450  1.1990 -0.2328 -0.8655
28677SOL     OW92888   7.195   9.183   3.907 -0.2017  0.5734 -0.4691
28677SOL    HW192889   7.215   9.243   3.979  0.3959  0.5515 -0.6070
28677SOL    HW292890   7.132   9.121   3.943 -1.3830  1.6978 -0.5304
28678SOL     OW92891   1.984   5.887   8.528  0.2237 -0.6031 -0.3246
28678SOL    HW192892   1.893   5.867   8.550  0.2404  0.9491  1.3985
28678SOL    HW292893   2.032   5.874   8.610  1.5072 -1.0317 -1.1097
28679SOL     OW92894   6.686   1.542  11.887 -0.2985  0.2343 -0.5214
28679SOL    HW192895   6.728   1.624  11.912 -1.5239  0.8291 -0.3568
28679SOL    HW292896   6.759   1.482  11.871  0.6158  1.3544 -0.6833
28680SOL     OW92897   3.597   8.656   2.410 -0.3370  0.0989  0.4590
28680SOL    HW192898   3.669   8.636   2.470  0.2440  1.4456  0.2410
28680SOL    HW292899   3.521   8.671   2.468 -0.5337 -1.5298  0.6770
28681SOL     OW92900   4.644  11.008   4.029 -0.3454  0.1611  0.1982
28681SOL    HW192901   4.563  10.994   4.078 -0.5437 -0.4505 -0.2948
28681SOL    HW292902   4.616  11.050   3.948 -0.3862 -1.6099 -0.7373
28682SOL     OW92903   8.571  10.934   0.028  0.0232 -0.3181 -0.1365
28682SOL    HW192904   8.651  10.980   0.001  0.2308 -0.5477  0.0756
28682SOL    HW292905   8.555  10.964   0.117  1.0062 -1.7559  0.5682
28683SOL     OW92906   3.662   5.615  12.099  0.4151  0.1955 -0.1067
28683SOL    HW192907   3.688   5.574  12.182  1.1556  0.9343  0.0362
28683SOL    HW292908   3.581   5.570  12.075  0.4005 -0.3008  0.8152
28684SOL     OW92909  11.204   1.996   5.147  0.0304 -0.8884  0.0277
28684SOL    HW192910  11.117   1.987   5.186  0.2942  2.1296  1.6256
28684SOL    HW292911  11.197   2.073   5.090  1.5237 -0.9471 -0.2806
28685SOL     OW92912   8.089   8.678   2.248 -0.6499  0.3214  0.3655
28685SOL    HW192913   8.082   8.733   2.170 -0.0750 -0.3366 -0.1656
28685SOL    HW292914   7.998   8.663   2.275 -1.0040 -1.1467 -1.4257
28686SOL     OW92915  12.470   8.089   4.395  0.1115  0.1279 -0.0846
28686SOL    HW192916  12.507   8.128   4.475  0.0252  0.7676 -0.3495
28686SOL    HW292917  12.534   8.109   4.327  1.9957 -3.4144  0.3822
28687SOL     OW92918   8.244   7.787   8.275  0.0081  0.0500 -0.1369
28687SOL    HW192919   8.261   7.841   8.197  0.2595  0.1607 -0.0087
28687SOL    HW292920   8.164   7.823   8.312 -1.2658 -1.2964 -1.4682
28688SOL     OW92921  11.432   8.802  10.800 -0.7453 -0.1271 -0.2663
28688SOL    HW192922  11.485   8.794  10.880  0.5224 -0.3966 -1.1117
28688SOL    HW292923  11.433   8.896  10.780  2.0774 -0.4286 -1.9807
28689SOL     OW92924   2.359  11.816   3.293  0.1494  0.3130 -0.1700
28689SOL    HW192925   2.317  11.731   3.276 -0.7728  0.4829  1.1310
28689SOL    HW292926   2.289  11.871   3.327  1.1883  0.9512  1.0037
28690SOL     OW92927   8.865   3.953   0.898  0.2923  0.0907 -0.2542
28690SOL    HW192928   8.864   3.893   0.973  0.6720 -1.1849 -1.2358
28690SOL    HW292929   8.795   4.016   0.917 -0.2609 -0.7788  0.7072
28691SOL     OW92930   2.220   2.857   1.224 -0.2191 -0.4259 -0.3777
28691SOL    HW192931   2.305   2.853   1.181  0.9389  0.3646  1.6938
28691SOL    HW292932   2.227   2.794   1.296 -0.2733  1.6636  1.5728
28692SOL     OW92933  10.315   6.246   2.063 -0.5520  0.0362 -0.4218
28692SOL    HW192934  10.254   6.312   2.098 -0.9191 -0.6884  0.3323
28692SOL    HW292935  10.266   6.164   2.067 -0.6085 -0.0942 -2.6486
28693SOL     OW92936   1.123   5.591   6.934 -0.4385  0.3189 -0.7662
28693SOL    HW192937   1.188   5.659   6.918  1.6353 -1.4945 -0.4797
28693SOL    HW292938   1.108   5.594   7.029 -0.5082  0.4925 -0.7820
28694SOL     OW92939   7.754   9.841   2.757  0.0441 -0.2330 -0.4377
28694SOL    HW192940   7.678   9.858   2.812  1.7019  0.5600  1.7484
28694SOL    HW292941   7.792   9.927   2.741  0.8478 -0.6716 -0.9483
28695SOL     OW92942  11.548   6.391  12.298  0.1782 -0.4354 -0.4279
28695SOL    HW192943  11.629   6.441  12.290  1.0508 -1.9312 -1.3446
28695SOL    HW292944  11.516   6.411  12.386  2.1663 -0.7077  0.3974
28696SOL     OW92945   9.639   5.550   4.338 -0.5408  0.3071  0.4446
28696SOL    HW192946   9.717   5.580   4.291 -0.4398 -0.1283  0.3282
28696SOL    HW292947   9.674   5.499   4.411 -0.7140  0.0585  0.3558
28697SOL     OW92948  10.632   6.691   0.457  0.1342 -0.6353  0.4536
28697SOL    HW192949  10.568   6.735   0.514  0.2363  2.6926 -1.7090
28697SOL    HW292950  10.603   6.712   0.368  1.5730 -3.2083 -0.7415
28698SOL     OW92951  11.449   9.164   6.451 -0.3335  0.1059 -0.4121
28698SOL    HW192952  11.374   9.201   6.406 -1.1817  0.1982  1.0244
28698SOL    HW292953  11.479   9.233   6.511  2.0659  0.7563 -2.2228
28699SOL     OW92954  11.926   5.728   5.694  0.9635  0.2227  0.1895
28699SOL    HW192955  11.901   5.666   5.763  1.1226  1.8656  1.8061
28699SOL    HW292956  12.019   5.712   5.679  1.4856  1.2346  1.9680
28700SOL     OW92957  11.353  10.189   9.493 -0.0961 -0.8817 -0.5999
28700SOL    HW192958  11.322  10.273   9.528  0.8296 -0.3329 -1.0807
28700SOL    HW292959  11.283  10.161   9.434  0.1147  0.1586 -1.3757
28701SOL     OW92960   0.385   7.503   7.828 -0.0071  0.1116 -0.5291
28701SOL    HW192961   0.408   7.496   7.735  0.9788 -0.5910 -0.2565
28701SOL    HW292962   0.446   7.569   7.862 -0.9675  1.0285 -0.5541
28702SOL     OW92963   9.426  12.529  11.867  0.6579  0.1314  0.5112
28702SOL    HW192964   9.349  12.585  11.859  1.1648  0.7946  0.1618
28702SOL    HW292965   9.410  12.477  11.946 -0.1145  0.3106  0.4756
28703SOL     OW92966   7.106   1.045  12.339  0.0525 -0.2962 -0.1169
28703SOL    HW192967   7.090   1.021  12.431 -1.9223 -0.7344 -0.5243
28703SOL    HW292968   7.157   1.125  12.344  1.7246 -1.3750  1.3381
28704SOL     OW92969   9.301   6.681   8.373  0.7985 -0.2778  0.8136
28704SOL    HW192970   9.348   6.602   8.347  0.8675 -0.4671  1.4958
28704SOL    HW292971   9.363   6.727   8.430  0.8427  0.3801  0.2595
28705SOL     OW92972   3.651  11.538   2.317  0.0550 -1.1040  0.3649
28705SOL    HW192973   3.703  11.474   2.268  0.5996  0.1294 -0.7560
28705SOL    HW292974   3.676  11.525   2.408  2.5295 -0.4564 -0.1439
28706SOL     OW92975   8.052   1.958   3.325 -0.3296 -0.2079 -0.1406
28706SOL    HW192976   7.956   1.958   3.325 -0.3295 -0.1888 -0.0070
28706SOL    HW292977   8.076   1.963   3.417 -0.1833 -3.0123  0.0648
28707SOL     OW92978   3.489   5.427  10.308 -0.2954 -0.4355  0.6768
28707SOL    HW192979   3.508   5.511  10.267 -1.8013 -0.0877  0.6572
28707SOL    HW292980   3.441   5.449  10.388 -1.8578 -1.2978  0.0158
28708SOL     OW92981   2.646   5.842   3.386  0.5533  0.2399  0.2630
28708SOL    HW192982   2.588   5.918   3.390  2.6544  1.9641 -0.3577
28708SOL    HW292983   2.588   5.770   3.362 -1.2164  2.0201 -1.1891
28709SOL     OW92984   7.001  10.508   2.964 -0.1553  0.3130 -0.6519
28709SOL    HW192985   7.025  10.600   2.977  1.5182 -0.2412  0.6337
28709SOL    HW292986   6.976  10.503   2.872 -0.6885  2.1194 -0.6629
28710SOL     OW92987  10.969   3.247   7.033  0.0770  0.4169  0.3076
28710SOL    HW192988  10.976   3.218   7.124 -1.0735 -0.0313  0.2689
28710SOL    HW292989  10.936   3.170   6.986  2.3717  0.0521 -0.8490
28711SOL     OW92990   5.523   2.076   0.226 -0.0967  0.1606 -0.1220
28711SOL    HW192991   5.518   2.075   0.130 -1.1229 -0.8923 -0.0761
28711SOL    HW292992   5.434   2.095   0.255 -0.4758 -2.3759  0.6194
28712SOL     OW92993   4.505   4.703   4.963  0.0418  0.5314 -0.2732
28712SOL    HW192994   4.436   4.731   4.903  1.3728  0.7260 -1.7948
28712SOL    HW292995   4.475   4.619   4.998 -1.5618  1.2520  0.2005
28713SOL     OW92996   9.852   6.085   0.535 -0.6041  0.6075  0.3346
28713SOL    HW192997   9.916   6.156   0.542 -0.8191  0.7569  0.7921
28713SOL    HW292998   9.904   6.009   0.508 -0.3790  0.9456 -0.1888
28714SOL     OW92999   9.724   8.432   9.406 -0.5884 -0.3589  0.2018
28714SOL    HW193000   9.707   8.500   9.342  0.7873  0.0068  0.2018
28714SOL    HW293001   9.760   8.479   9.482 -0.4188 -0.9937  0.5215
28715SOL     OW93002   8.345   1.725   5.365  0.1183  0.3329 -0.0507
28715SOL    HW193003   8.344   1.633   5.337  1.2562  0.3705 -0.2699
28715SOL    HW293004   8.274   1.732   5.429 -0.2511 -0.6002 -0.3486
28716SOL     OW93005   7.340  11.816   7.836  0.0413  0.0193  0.5523
28716SOL    HW193006   7.382  11.811   7.922  0.8208  0.2076  0.1858
28716SOL    HW293007   7.341  11.726   7.804  2.0223  0.3135 -0.3211
28717SOL     OW93008   0.105  10.242  12.029  0.3597  0.3412 -0.7078
28717SOL    HW193009   0.120  10.208  11.941  0.3562  0.4826 -0.7636
28717SOL    HW293010   0.040  10.183  12.067 -0.2925  0.7879 -1.1079
28718SOL     OW93011  11.246   7.027   7.271  0.4156 -0.6894 -0.3637
28718SOL    HW193012  11.203   6.964   7.329 -3.0126  0.5820 -1.2696
28718SOL    HW293013  11.269   7.100   7.329  1.7491 -1.4775  0.1678
28719SOL     OW93014   6.988   6.547   6.382  0.1280 -0.3303  0.1177
28719SOL    HW193015   6.991   6.528   6.476  2.1880 -2.0321 -0.2241
28719SOL    HW293016   7.015   6.639   6.375 -2.3708  0.5943  1.2783
28720SOL     OW93017   6.043  12.135   7.539 -0.2470  0.1824  0.0323
28720SOL    HW193018   6.122  12.081   7.545 -0.7928 -0.5742  0.5574
28720SOL    HW293019   6.038  12.159   7.446 -0.4287 -1.3584 -0.3801
28721SOL     OW93020   7.396   2.051   1.163 -1.0439  0.8400 -0.0187
28721SOL    HW193021   7.365   1.961   1.175  1.0374 -0.0104 -0.6215
28721SOL    HW293022   7.483   2.042   1.125 -0.9134  3.1374 -0.4371
28722SOL     OW93023   0.888   7.625  10.936 -0.2358 -0.3081  0.1763
28722SOL    HW193024   0.849   7.601  10.852  0.7420  0.1842 -0.4296
28722SOL    HW293025   0.919   7.714  10.924  0.6663 -0.5255  0.7834
28723SOL     OW93026   1.940   2.535  11.798 -0.0214  0.0411 -0.3257
28723SOL    HW193027   1.963   2.454  11.844 -1.6608  0.1180  0.6760
28723SOL    HW293028   1.867   2.509  11.740 -0.2010  0.6894 -0.3918
28724SOL     OW93029   1.559  10.554  12.433  0.0627 -0.0020  0.5930
28724SOL    HW193030   1.556  10.472  12.482 -2.7300  0.2033  0.9271
28724SOL    HW293031   1.650  10.563  12.406  0.6007 -2.8011  1.2169
28725SOL     OW93032   2.367   3.343   6.504 -0.1987 -0.5435 -0.2362
28725SOL    HW193033   2.316   3.382   6.434  0.7029 -0.1307 -0.6873
28725SOL    HW293034   2.425   3.281   6.459  0.5908 -0.0640  0.1009
28726SOL     OW93035   5.213  10.940   7.707  0.4378  0.1006  0.5770
28726SOL    HW193036   5.201  10.945   7.802  0.7605 -0.5259  0.6621
28726SOL    HW293037   5.146  10.998   7.670  0.2704  0.2975  1.1850
28727SOL     OW93038  11.393   9.185   5.699  0.1258  0.7486  0.5994
28727SOL    HW193039  11.397   9.253   5.632  1.2921  0.5217  0.4080
28727SOL    HW293040  11.300   9.166   5.710 -0.1091  1.2442 -0.4900
28728SOL     OW93041  12.265   4.753  12.085 -0.1071 -0.2319  0.6478
28728SOL    HW193042  12.323   4.818  12.124 -0.9652  1.1701 -0.2820
28728SOL    HW293043  12.182   4.765  12.130 -0.7265  0.4727 -0.6219
28729SOL     OW93044   8.735   0.088   1.101  0.0904  0.3352  0.3554
28729SOL    HW193045   8.815   0.040   1.079  0.2134 -0.2607  1.9784
28729SOL    HW293046   8.741   0.169   1.051  0.4660 -0.7874 -1.5353
28730SOL     OW93047   1.722   9.750   2.499 -0.9052 -0.0575  0.1546
28730SOL    HW193048   1.749   9.779   2.411 -0.2664  0.7189  0.5905
28730SOL    HW293049   1.672   9.670   2.483 -1.4743  0.4853 -0.9891
28731SOL     OW93050   3.337  12.034   3.604 -0.5241  0.6466  0.2443
28731SOL    HW193051   3.337  12.125   3.632  1.1247 -0.3106  3.8343
28731SOL    HW293052   3.297  11.986   3.677  2.1468 -1.8824  0.2314
28732SOL     OW93053   0.516   8.676   4.448 -0.0603  0.1084 -0.7782
28732SOL    HW193054   0.488   8.764   4.422 -2.4471 -0.5202 -0.6431
28732SOL    HW293055   0.435   8.624   4.447  0.7880 -1.4771  1.6145
28733SOL     OW93056   1.009   6.455  11.182 -0.0436  0.1319 -0.0593
28733SOL    HW193057   0.926   6.408  11.173 -0.1187  0.6003 -2.6711
28733SOL    HW293058   1.073   6.387  11.204 -0.6915 -0.6883 -0.6198
28734SOL     OW93059   6.438   5.686  11.774  0.6368  0.2156  0.1427
28734SOL    HW193060   6.451   5.632  11.851 -0.9192  0.2349  0.4499
28734SOL    HW293061   6.383   5.758  11.804  1.2688  1.0566 -0.6478
28735SOL     OW93062   6.725   2.096  10.147  0.1859  1.1983  0.1450
28735SOL    HW193063   6.733   2.188  10.119 -3.1715  1.4061 -0.5768
28735SOL    HW293064   6.631   2.078  10.140  0.9547 -3.2082 -2.7513
28736SOL     OW93065   7.622   6.472   8.157 -0.3079  0.4185 -0.4469
28736SOL    HW193066   7.629   6.376   8.153 -0.3250  0.4687 -2.2353
28736SOL    HW293067   7.538   6.492   8.116  0.4644  1.2800 -1.6552
28737SOL     OW93068   9.440   6.642   5.925 -0.4442 -0.0692  0.5696
28737SOL    HW193069   9.358   6.595   5.907  0.4274 -1.2885 -0.4321
28737SOL    HW293070   9.441   6.652   6.020 -2.1695  0.8055  0.5455
28738SOL     OW93071   2.280   9.527  10.282 -0.0456  0.0103  0.0980
28738SOL    HW193072   2.352   9.488  10.232  0.3202  0.1155  0.5414
28738SOL    HW293073   2.202   9.479  10.252  0.0088  0.7534 -1.3124
28739SOL     OW93074   6.656   0.589   7.418  0.3132 -0.3272 -0.0422
28739SOL    HW193075   6.618   0.594   7.331  1.2339 -0.5990 -0.4709
28739SOL    HW293076   6.749   0.606   7.405  1.0356 -3.4136  0.4390
28740SOL     OW93077   2.278   7.434   4.522 -0.1903 -0.3637  0.6045
28740SOL    HW193078   2.314   7.420   4.435  0.5584  1.9737  0.4646
28740SOL    HW293079   2.265   7.346   4.557  3.4681 -1.4232 -0.2590
28741SOL     OW93080  10.711   3.387   4.925  0.5702 -0.0807  0.5374
28741SOL    HW193081  10.659   3.422   4.997  0.0307 -0.6312  0.4318
28741SOL    HW293082  10.649   3.378   4.853  0.7101 -1.1053  0.5245
28742SOL     OW93083   8.074   4.491   7.393 -0.5510 -0.3725 -0.1926
28742SOL    HW193084   8.025   4.572   7.405 -0.0866 -0.1668  0.3583
28742SOL    HW293085   8.100   4.492   7.301  2.6995  2.0018  0.5952
28743SOL     OW93086   1.323   4.050   0.892  0.0685 -0.4862  0.5716
28743SOL    HW193087   1.262   4.070   0.821 -0.1249 -1.1229  0.5560
28743SOL    HW293088   1.363   4.134   0.913 -1.3589  0.0904  1.0859
28744SOL     OW93089  12.391   3.077   6.241  0.0721  0.0378  0.5035
28744SOL    HW193090  12.320   3.017   6.263 -0.8084  0.3854 -1.1846
28744SOL    HW293091  12.368   3.159   6.286 -1.1963  0.4610 -0.8316
28745SOL     OW93092   2.017   8.580   3.013 -0.0430 -0.0151 -0.4112
28745SOL    HW193093   1.945   8.517   3.006  0.9467 -1.1682 -0.5841
28745SOL    HW293094   2.040   8.582   3.106  1.5871 -1.8972 -0.7142
28746SOL     OW93095  11.814   0.946   1.758 -0.5058  0.1728  0.4270
28746SOL    HW193096  11.889   0.998   1.729 -0.2922 -0.2542  0.1951
28746SOL    HW293097  11.749   1.010   1.785 -0.8591  0.6287 -1.3776
28747SOL     OW93098   8.680   0.603   9.888  0.5389 -0.5855  0.2047
28747SOL    HW193099   8.707   0.666   9.821  0.7066 -1.4067 -0.5106
28747SOL    HW293100   8.746   0.534   9.884 -1.4277 -2.5028 -1.3902
28748SOL     OW93101   2.245   3.294   2.258  0.1621 -0.0052  0.7317
28748SOL    HW193102   2.233   3.383   2.224  2.1896 -0.4320 -1.3779
28748SOL    HW293103   2.158   3.254   2.250  0.0789  0.5161 -2.4713
28749SOL     OW93104   7.324   8.555   1.947 -0.5880 -0.1138  0.3647
28749SOL    HW193105   7.261   8.546   2.018 -1.4873  1.7924 -0.1064
28749SOL    HW293106   7.393   8.612   1.983  1.0129 -2.2589  0.9125
28750SOL     OW93107   8.625   1.974   2.694  0.3861  0.4862 -0.0435
28750SOL    HW193108   8.538   1.952   2.726  1.3587 -0.2403  2.3302
28750SOL    HW293109   8.623   1.952   2.601 -2.1191  1.0920 -0.1948
28751SOL     OW93110   3.537   3.074   5.886  0.0141 -0.4537  0.2273
28751SOL    HW193111   3.598   3.006   5.912  1.4285  0.3071 -0.9572
28751SOL    HW293112   3.482   3.033   5.819  0.8969 -0.4549 -0.5236
28752SOL     OW93113   9.338   6.127   8.885  0.0323  0.1240  0.0106
28752SOL    HW193114   9.365   6.164   8.801  0.9118  1.5483  0.8772
28752SOL    HW293115   9.420   6.102   8.928 -0.2807  0.7900  1.0412
28753SOL     OW93116   2.422  10.954  11.841 -0.4317  0.1788  0.4879
28753SOL    HW193117   2.373  10.878  11.874 -1.9395  1.0149  0.2422
28753SOL    HW293118   2.500  10.916  11.799 -1.0705 -1.2138  0.5115
28754SOL     OW93119   3.591   8.233   6.534 -0.0543 -0.3904 -0.0393
28754SOL    HW193120   3.623   8.262   6.449  0.6969  0.4576  0.5103
28754SOL    HW293121   3.524   8.168   6.514 -0.4547  0.3752 -1.2997
28755SOL     OW93122   4.432   9.963  10.695 -0.1869 -0.4231  0.8827
28755SOL    HW193123   4.395   9.994  10.778 -2.1926 -0.8573  0.1970
28755SOL    HW293124   4.360   9.915  10.653 -0.0189  1.7728 -2.2177
28756SOL     OW93125   4.818   7.928  10.745 -0.2487 -0.4535  0.1259
28756SOL    HW193126   4.809   8.008  10.693 -0.8417  0.2202  1.2190
28756SOL    HW293127   4.737   7.880  10.728  0.0181 -0.7325 -0.3737
28757SOL     OW93128  10.411   1.030   0.805 -0.1860 -0.7914 -0.2476
28757SOL    HW193129  10.420   0.985   0.721  1.1305  0.8121 -1.0273
28757SOL    HW293130  10.373   1.115   0.783  1.3147  0.1400  0.5547
28758SOL     OW93131   7.555   6.376   8.422  0.1135  0.0219  0.2797
28758SOL    HW193132   7.477   6.396   8.370  0.1001 -0.6673  0.0212
28758SOL    HW293133   7.624   6.430   8.384 -0.2880  0.8195  0.6647
28759SOL     OW93134   6.795   7.431  10.858  0.0729 -0.2109  0.7234
28759SOL    HW193135   6.858   7.362  10.880 -1.2258 -1.1814  1.5141
28759SOL    HW293136   6.709   7.390  10.871 -0.7802  2.0358  2.9452
28760SOL     OW93137  11.942   3.595   6.938  0.2761 -0.0780  0.5987
28760SOL    HW193138  11.910   3.508   6.960 -1.2856  0.1273 -0.6630
28760SOL    HW293139  11.903   3.614   6.852  0.8820  1.7003  0.6785
28761SOL     OW93140   8.335   3.334   9.864  0.0254 -0.0265 -0.0393
28761SOL    HW193141   8.378   3.418   9.884  0.4293 -0.1202 -0.4774
28761SOL    HW293142   8.384   3.269   9.914  1.9121 -0.4476 -2.2541
28762SOL     OW93143  11.180   7.511   7.326  0.8662 -0.1584  0.0600
28762SOL    HW193144  11.164   7.566   7.250  0.2987  0.2354  0.4579
28762SOL    HW293145  11.273   7.490   7.322  0.3288 -2.6723 -2.4430
28763SOL     OW93146  11.849   4.981  12.351 -0.3288  0.1151  0.1836
28763SOL    HW193147  11.806   5.023  12.276  1.5218  0.5857 -0.6787
28763SOL    HW293148  11.827   4.889  12.342  1.7318 -0.2454 -2.3860
28764SOL     OW93149   8.327   4.300   2.373 -0.0953  0.0202 -0.6797
28764SOL    HW193150   8.316   4.239   2.299  0.1646  0.1579 -0.8323
28764SOL    HW293151   8.349   4.384   2.332  0.7381 -0.0604 -0.4280
28765SOL     OW93152   6.988   2.360  11.311  0.3497  0.5591 -0.0615
28765SOL    HW193153   7.045   2.357  11.234 -0.5771 -1.7913 -0.7330
28765SOL    HW293154   6.969   2.268  11.331 -2.3446  1.2145  0.7771
28766SOL     OW93155   5.267   3.628  12.046 -0.4406 -0.1675  0.1574
28766SOL    HW193156   5.296   3.575  12.120 -2.2077  0.7922  1.6169
28766SOL    HW293157   5.346   3.674  12.017  0.3132 -0.6141  1.4132
28767SOL     OW93158   3.312  12.556   3.123 -0.0443  0.3909 -0.0285
28767SOL    HW193159   3.388  12.566   3.065 -1.1209  2.7843 -1.1696
28767SOL    HW293160   3.263  12.482   3.087  0.9378 -0.1953 -0.1988
28768SOL     OW93161   9.320   5.888   6.828 -0.2875 -0.3385 -0.1550
28768SOL    HW193162   9.406   5.930   6.817  0.4863 -1.2599  1.8986
28768SOL    HW293163   9.331   5.830   6.903 -2.6782 -0.6490  0.0346
28769SOL     OW93164   1.628   4.106   5.422 -0.1245 -0.5470 -0.0119
28769SOL    HW193165   1.557   4.053   5.458  0.2499 -0.8734  0.2635
28769SOL    HW293166   1.693   4.042   5.392 -0.1083 -0.2614 -0.5975
28770SOL     OW93167   7.551   7.316   6.031  0.3956 -0.0684  0.3292
28770SOL    HW193168   7.524   7.408   6.028  0.0148 -0.0870  1.9254
28770SOL    HW293169   7.639   7.316   5.993  0.3747  0.9538  0.2404
28771SOL     OW93170   1.260   5.056   0.778 -0.0564  0.3679  0.1568
28771SOL    HW193171   1.192   5.096   0.832  0.2630 -0.4366  1.1647
28771SOL    HW293172   1.268   5.116   0.703 -0.9959  1.1185  0.6280
28772SOL     OW93173   0.529   9.526   8.402 -0.5446  0.2151 -0.3638
28772SOL    HW193174   0.497   9.472   8.475  3.4756 -0.6443  1.0589
28772SOL    HW293175   0.553   9.609   8.443  1.2394 -0.0806 -0.6990
28773SOL     OW93176   7.719   8.839   8.624  0.1741  0.5371  0.2871
28773SOL    HW193177   7.725   8.887   8.707 -1.0024  2.4653 -0.6768
28773SOL    HW293178   7.804   8.851   8.582  0.6818 -0.2283  1.0580
28774SOL     OW93179   8.311  11.831   5.686  0.4277 -0.3877  0.5367
28774SOL    HW193180   8.308  11.787   5.601  0.3562  1.8953 -0.7035
28774SOL    HW293181   8.404  11.851   5.698  0.6425 -1.9053  1.7005
28775SOL     OW93182   8.161   8.310   7.877  0.8882 -0.4404 -0.4200
28775SOL    HW193183   8.177   8.403   7.866 -2.7670  1.0994  4.1485
28775SOL    HW293184   8.128   8.281   7.791  1.9468  2.4328 -1.9148
28776SOL     OW93185   1.732   1.679   7.284 -0.4608 -0.3138 -0.1483
28776SOL    HW193186   1.809   1.624   7.298 -0.2177 -0.0433 -0.4129
28776SOL    HW293187   1.723   1.684   7.189 -1.3204 -1.0566 -0.1230
28777SOL     OW93188   6.962   9.776   4.522  1.1432  0.0768 -0.0411
28777SOL    HW193189   6.980   9.721   4.598  0.8034  0.2205  0.1501
28777SOL    HW293190   6.987   9.864   4.550 -0.1308  0.3347  0.3518
28778SOL     OW93191   1.425   0.805   6.034 -0.2550  0.7600 -0.0696
28778SOL    HW193192   1.383   0.886   6.003  0.1937  0.9056 -0.3168
28778SOL    HW293193   1.454   0.826   6.122 -1.4715  0.3698  0.4426
28779SOL     OW93194   1.463   7.052  11.057 -0.2124 -0.3855  0.3632
28779SOL    HW193195   1.471   7.094  11.143 -1.7731  0.8603 -0.0495
28779SOL    HW293196   1.538   7.085  11.007  0.4969 -0.8317  1.1004
28780SOL     OW93197   3.830   7.330  10.383 -0.5706 -0.8191  0.8492
28780SOL    HW193198   3.902   7.308  10.324 -0.7150 -0.5247  0.5635
28780SOL    HW293199   3.770   7.383  10.330  0.2456  1.1237  1.7790
28781SOL     OW93200  11.985   5.614  12.519  0.7504  0.4810  0.3593
28781SOL    HW193201  11.938   5.687  12.558 -1.5935 -0.8062  0.0794
28781SOL    HW293202  12.075   5.625  12.550  0.4533  3.3213  0.5054
28782SOL     OW93203   7.864   4.300   2.803 -0.3899  0.1722  0.2206
28782SOL    HW193204   7.932   4.278   2.738  0.5834 -0.1032  1.2979
28782SOL    HW293205   7.881   4.391   2.825  0.5050 -0.2689  1.4674
28783SOL     OW93206  11.319   1.299   8.346  0.1753  0.5414 -0.0244
28783SOL    HW193207  11.378   1.225   8.359 -1.6200 -0.8409  0.6552
28783SOL    HW293208  11.372   1.376   8.369  1.3474 -0.7208  1.8053
28784SOL     OW93209   6.528   6.375   0.282 -0.1178 -0.2633  1.0137
28784SOL    HW193210   6.572   6.450   0.240 -0.2176 -1.3182 -1.1255
28784SOL    HW293211   6.589   6.347   0.350  0.7467  0.6561  0.6473
28785SOL     OW93212   7.076   9.964   4.682 -0.0923  0.5059  0.4722
28785SOL    HW193213   7.110   9.908   4.752 -0.6679 -1.5409 -0.7935
28785SOL    HW293214   7.136  10.038   4.679  0.6332  0.0361  2.3281
28786SOL     OW93215   7.958   4.657   8.292  0.3951  0.9570 -0.8780
28786SOL    HW193216   8.011   4.736   8.301  0.0260  1.0278  0.9532
28786SOL    HW293217   8.019   4.585   8.309  0.0399  1.0219  0.8272
28787SOL     OW93218   8.836   8.292   8.671 -0.4509 -0.2819 -0.2497
28787SOL    HW193219   8.830   8.197   8.671 -0.1414 -0.3179  0.7662
28787SOL    HW293220   8.888   8.313   8.749  0.2031  0.6823 -0.9201
28788SOL     OW93221   4.592   5.438   3.499  0.0327 -0.0448 -0.0892
28788SOL    HW193222   4.599   5.368   3.435 -0.5830  0.0653 -0.2838
28788SOL    HW293223   4.524   5.409   3.560 -3.1541  1.9900 -2.3435
28789SOL     OW93224   4.392   0.496   2.000 -0.4424  0.4308  0.2792
28789SOL    HW193225   4.379   0.568   2.062  1.4075  1.7921 -0.7815
28789SOL    HW293226   4.384   0.417   2.052 -1.2452  1.4432  1.7630
28790SOL     OW93227   5.823  11.955   0.909 -0.5701  0.1376 -0.0063
28790SOL    HW193228   5.791  11.979   0.823 -1.6570 -0.7832  0.1049
28790SOL    HW293229   5.749  11.909   0.950  0.3544 -0.5973  0.9127
28791SOL     OW93230   6.361   5.729   0.021 -0.2129  0.2338  0.0615
28791SOL    HW193231   6.282   5.725  -0.034 -0.7707 -0.5396  0.9041
28791SOL    HW293232   6.424   5.775  -0.033 -0.5865 -0.9357 -1.4525
28792SOL     OW93233   0.523   1.451  11.467  0.4430  0.0045  0.4337
28792SOL    HW193234   0.558   1.539  11.455  0.6333 -0.3487 -2.2969
28792SOL    HW293235   0.475   1.433  11.386 -0.7318 -1.9140  1.4797
28793SOL     OW93236   1.211   8.409   6.272 -0.0267  0.2843  0.0371
28793SOL    HW193237   1.141   8.428   6.334  1.0157 -0.4761  1.4958
28793SOL    HW293238   1.256   8.492   6.259 -0.8634  0.6651 -0.5121
28794SOL     OW93239  10.562  10.011   1.938 -0.4526 -0.6033  0.5669
28794SOL    HW193240  10.593   9.953   1.869  0.4385  0.3750  0.1206
28794SOL    HW293241  10.536   9.953   2.009 -0.4299 -1.5772 -0.2102
28795SOL     OW93242   6.860   5.877   7.197 -0.4199  0.1478  0.2137
28795SOL    HW193243   6.857   5.892   7.292 -1.8396  0.4473  0.1502
28795SOL    HW293244   6.798   5.806   7.183  0.1369 -0.2117 -0.4474
28796SOL     OW93245   3.960  11.953   3.605  0.0048 -0.7035  0.2027
28796SOL    HW193246   4.042  12.001   3.613  0.1666 -0.6083 -1.7762
28796SOL    HW293247   3.892  12.020   3.611  0.1229 -0.5937  0.3225
28797SOL     OW93248   3.851   6.486   8.591  0.3156 -0.1369 -0.0743
28797SOL    HW193249   3.839   6.442   8.507  1.1879 -1.2637  0.3761
28797SOL    HW293250   3.945   6.502   8.597  0.3925 -0.9578  1.1207
28798SOL     OW93251  10.083  12.422  11.434 -0.0387  0.6319 -0.1110
28798SOL    HW193252  10.110  12.412  11.526  2.0399  0.6970 -0.6668
28798SOL    HW293253  10.162  12.404  11.384 -0.9462  1.3448 -1.8802
28799SOL     OW93254  11.528  10.669   1.070 -0.0320 -0.1645 -0.3720
28799SOL    HW193255  11.537  10.582   1.033  2.0393 -0.7102  1.1699
28799SOL    HW293256  11.474  10.657   1.148 -1.4898  0.3448 -1.2755
28800SOL     OW93257  11.024   5.388   9.127 -0.2800 -0.2776  0.2884
28800SOL    HW193258  11.014   5.409   9.220  1.2240  1.3345  0.1382
28800SOL    HW293259  11.116   5.363   9.118 -0.3574 -0.2200 -0.7989
28801SOL     OW93260   9.751   5.528   5.607 -0.0581 -0.8716  0.0802
28801SOL    HW193261   9.667   5.496   5.639  0.9765 -2.2288  1.5903
28801SOL    HW293262   9.758   5.493   5.519 -1.9321  0.9746 -0.8901
28802SOL     OW93263   4.952   6.349   7.539 -0.1560  0.5884  0.0751
28802SOL    HW193264   4.924   6.341   7.448  3.2961  1.5264 -1.2517
28802SOL    HW293265   4.964   6.259   7.569  0.6897  0.2569 -1.1791
28803SOL     OW93266   7.331   3.367   9.715 -0.7140  0.1637  0.1911
28803SOL    HW193267   7.349   3.461   9.710 -1.0428  0.4161  2.6082
28803SOL    HW293268   7.275   3.349   9.639 -0.8814  1.9776 -0.1567
28804SOL     OW93269   5.063   9.709   4.869  0.3246  0.5821  0.1653
28804SOL    HW193270   5.058   9.751   4.783 -0.4736  2.3033  1.0034
28804SOL    HW293271   5.083   9.780   4.930 -1.5467 -0.1073  1.7140
28805SOL     OW93272  11.996   4.005  11.737  0.6633 -0.8969  0.3011
28805SOL    HW193273  11.982   3.910  11.744  0.0403 -0.7727  0.8095
28805SOL    HW293274  12.083   4.019  11.776  0.1737 -1.0991  1.5090
28806SOL     OW93275   7.865   9.308  10.633 -0.3224  0.2169  0.5100
28806SOL    HW193276   7.945   9.337  10.678 -0.7942  1.7803  0.4026
28806SOL    HW293277   7.889   9.224  10.594  1.1146  0.4067  0.9072
28807SOL     OW93278   9.028   8.636  10.308 -0.3145  0.0341 -0.5789
28807SOL    HW193279   9.061   8.615  10.395  0.0376 -1.4759 -1.0486
28807SOL    HW293280   9.002   8.552  10.271 -2.7949  0.8935 -1.0212
28808SOL     OW93281   7.770  11.117   0.193  0.2762 -0.1671 -0.1087
28808SOL    HW193282   7.839  11.057   0.164  1.5180  1.2935 -0.3175
28808SOL    HW293283   7.688  11.075   0.166  1.1196 -1.6397 -0.4436
28809SOL     OW93284   8.120  11.503   7.501  0.2249  0.1769 -0.2436
28809SOL    HW193285   8.027  11.499   7.523  0.0188  2.7541 -0.3489
28809SOL    HW293286   8.122  11.518   7.407  0.6536  1.9705  0.0230
28810SOL     OW93287   0.890   5.196  11.728 -0.2531 -0.0775  0.6194
28810SOL    HW193288   0.974   5.241  11.740 -0.7170  0.8582  0.4410
28810SOL    HW293289   0.878   5.193  11.633 -0.7470  0.4130  0.6625
28811SOL     OW93290   1.900   4.982   3.731 -0.3655  0.0549  0.0445
28811SOL    HW193291   1.851   5.029   3.663 -0.0083 -0.5675 -0.6582
28811SOL    HW293292   1.909   4.893   3.697 -0.9077 -0.5049  1.2906
28812SOL     OW93293   6.056  10.099  10.228  0.0099 -0.0601  0.0981
28812SOL    HW193294   6.092  10.113  10.315  1.0045  1.2495 -0.4927
28812SOL    HW293295   6.124  10.051  10.181  0.9236  2.1222 -0.9205
28813SOL     OW93296   0.216   5.565  12.318 -0.5977 -0.1963  0.1568
28813SOL    HW193297   0.289   5.505  12.332 -1.1227 -0.9602 -0.2935
28813SOL    HW293298   0.206   5.570  12.223 -0.0383  1.2765  0.1418
28814SOL     OW93299   0.075   2.198   6.652 -0.0805 -0.2744  0.1832
28814SOL    HW193300   0.012   2.202   6.724 -1.8760 -0.4453 -1.3184
28814SOL    HW293301   0.046   2.125   6.598  0.3016  0.7677 -1.5271
28815SOL     OW93302   1.557   4.270  11.732  0.5153  0.1437 -0.1891
28815SOL    HW193303   1.478   4.219  11.748  0.4698  0.3327  0.1939
28815SOL    HW293304   1.580   4.251  11.641 -0.4426  0.7376 -0.5682
28816SOL     OW93305   5.583   6.802   9.273  0.0688  0.3961  0.0663
28816SOL    HW193306   5.492   6.809   9.243  0.4807 -0.5505 -1.5127
28816SOL    HW293307   5.612   6.716   9.242  0.6770 -0.5658  2.9753
28817SOL     OW93308  11.239   7.518  11.333  0.3004  0.0691 -0.3695
28817SOL    HW193309  11.320   7.506  11.285  0.2405 -3.4901  0.1409
28817SOL    HW293310  11.257   7.590  11.394  2.5176  0.3283 -1.2475
28818SOL     OW93311   9.393   1.470  11.214 -0.0809  0.0768  0.2015
28818SOL    HW193312   9.485   1.485  11.233 -0.3457  0.4946  1.2348
28818SOL    HW293313   9.379   1.377  11.233  0.2430 -0.1207 -0.4989
28819SOL     OW93314   2.315   8.796   8.622 -0.2196 -0.2698 -0.1065
28819SOL    HW193315   2.319   8.854   8.546  1.3465  0.3859  0.4359
28819SOL    HW293316   2.288   8.852   8.694 -1.4741 -0.8437 -0.0999
28820SOL     OW93317  10.952   6.908   9.835  0.2163  0.5496 -0.0204
28820SOL    HW193318  10.982   6.855   9.910  0.6620  1.8827  0.7818
28820SOL    HW293319  10.907   6.845   9.778  1.5775 -0.8865  0.3987
28821SOL     OW93320  11.646   7.898   3.831 -0.4728 -0.0540 -0.6740
28821SOL    HW193321  11.702   7.965   3.792 -2.0203  2.1299  0.6635
28821SOL    HW293322  11.706   7.843   3.882  0.7314  0.7744 -1.1574
28822SOL     OW93323   8.390   2.455   3.082 -0.3063 -0.0015 -1.0435
28822SOL    HW193324   8.296   2.456   3.101  0.0717  0.7341  1.0485
28822SOL    HW293325   8.429   2.406   3.155  0.9987  0.1506 -1.6080
28823SOL     OW93326   7.095   5.385   1.431  0.1522 -0.1472  0.7335
28823SOL    HW193327   7.140   5.469   1.427  1.4212 -0.8670 -1.3731
28823SOL    HW293328   7.003   5.406   1.412  0.5586  0.7001 -0.3821
28824SOL     OW93329   3.053   4.727  11.731 -0.0750 -0.1130 -0.2032
28824SOL    HW193330   3.070   4.784  11.806 -0.5724 -1.0294  0.6139
28824SOL    HW293331   3.057   4.786  11.655 -1.3208  1.1705  0.6840
28825SOL     OW93332   9.348  12.111  11.322  0.4073  0.1992  0.3150
28825SOL    HW193333   9.342  12.194  11.368 -3.4450  1.3983 -1.8674
28825SOL    HW293334   9.332  12.045  11.389  2.6641  1.1408  1.9254
28826SOL     OW93335   1.223  12.035  10.470 -0.4378  0.1439 -0.1286
28826SOL    HW193336   1.304  11.985  10.482 -0.6139 -0.1994 -0.3353
28826SOL    HW293337   1.228  12.068  10.380  0.8761  2.7036  0.7802
28827SOL     OW93338   4.098   6.844  11.155 -0.0922  0.8198  0.1618
28827SOL    HW193339   4.101   6.936  11.129 -0.9593  0.2381 -2.2909
28827SOL    HW293340   4.031   6.841  11.223  0.7068  2.1267  1.0514
28828SOL     OW93341  11.168  10.056   3.585  0.1044 -0.4639  0.1525
28828SOL    HW193342  11.081  10.031   3.615  0.7261 -1.3994  1.2673
28828SOL    HW293343  11.154  10.135   3.532 -1.0146  1.9799  3.7276
28829SOL     OW93344   2.739  12.367  11.615  0.0815  0.0456  0.6144
28829SOL    HW193345   2.643  12.368  11.613  0.0604 -0.6860  1.0231
28829SOL    HW293346   2.764  12.339  11.527  0.0051  2.8102 -0.3897
28830SOL     OW93347   1.726   7.459  11.763 -0.4201  0.1268  0.5630
28830SOL    HW193348   1.770   7.375  11.751 -1.2481 -0.3193  0.5815
28830SOL    HW293349   1.754   7.512  11.688 -0.5274 -0.4379  0.1198
28831SOL     OW93350   3.804   5.066   3.378 -0.0081 -1.1081  0.5518
28831SOL    HW193351   3.764   4.983   3.404 -2.4127  0.1801  1.2708
28831SOL    HW293352   3.778   5.078   3.287 -1.8465 -0.0406  1.1576
28832SOL     OW93353   8.390  10.455  11.290 -0.5950 -0.2318  0.6913
28832SOL    HW193354   8.406  10.483  11.380 -3.3358 -0.8267  1.4393
28832SOL    HW293355   8.335  10.523  11.253  0.1028 -0.2426 -0.4153
28833SOL     OW93356   4.041   7.986  10.708  0.0835 -0.2823 -0.1229
28833SOL    HW193357   4.123   7.940  10.725 -0.9544 -1.3214  2.6049
28833SOL    HW293358   4.056   8.075  10.740  0.3816 -0.2514 -0.3465
28834SOL     OW93359  11.338   7.916   6.338 -0.8587  0.1494  0.3945
28834SOL    HW193360  11.386   7.833   6.341  1.0679  1.2165  0.8376
28834SOL    HW293361  11.268   7.905   6.402 -0.2483 -0.9204  0.9110
28835SOL     OW93362   6.786   1.286   2.432  0.6652 -0.4940 -0.2493
28835SOL    HW193363   6.770   1.381   2.432 -0.3510 -0.6394 -1.2122
28835SOL    HW293364   6.829   1.269   2.516  1.4294  0.9054 -0.3328
28836SOL     OW93365   7.636   6.414   0.496 -0.6304 -0.0599 -0.3419
28836SOL    HW193366   7.677   6.330   0.518  0.8194  0.4275 -1.0805
28836SOL    HW293367   7.542   6.398   0.508 -0.4456 -1.9737 -1.0622
28837SOL     OW93368  10.047   7.530   0.034 -0.1487 -0.1358 -0.0562
28837SOL    HW193369   9.986   7.461   0.013  0.0577 -1.3887  2.9320
28837SOL    HW293370  10.001   7.585   0.098  0.6040  0.9778 -0.4345
28838SOL     OW93371   3.310   2.412   8.035 -0.4192  0.6513 -0.3253
28838SOL    HW193372   3.242   2.471   8.067  0.5008  1.6359 -0.1495
28838SOL    HW293373   3.313   2.341   8.100  1.3779  2.5759  1.8648
28839SOL     OW93374   7.570   1.115   9.236 -0.1022 -0.3133  0.0750
28839SOL    HW193375   7.564   1.090   9.143  0.4103 -1.4214  0.3168
28839SOL    HW293376   7.558   1.033   9.283  2.5125 -0.3185  0.8941
28840SOL     OW93377   8.371   7.701   9.391  0.0751  0.4175  0.2435
28840SOL    HW193378   8.436   7.768   9.372 -0.0249  0.8327  1.3257
28840SOL    HW293379   8.314   7.700   9.314  1.0631  0.3779 -0.5123
28841SOL     OW93380   2.502  11.771   8.803 -0.0492 -0.0872 -0.3207
28841SOL    HW193381   2.515  11.865   8.804  1.0129 -0.2038  1.7393
28841SOL    HW293382   2.548  11.741   8.725  0.8727  0.9401 -0.1918
28842SOL     OW93383   1.236   6.541  11.042  0.3578  0.0372 -0.4744
28842SOL    HW193384   1.241   6.630  11.007  1.6743  0.3391  0.4114
28842SOL    HW293385   1.147   6.534  11.076 -0.4882  0.2393 -2.4636
28843SOL     OW93386   1.769   6.698   9.390  0.1838 -0.4374  0.0185
28843SOL    HW193387   1.820   6.657   9.320 -0.0569 -0.1967 -0.3014
28843SOL    HW293388   1.699   6.635   9.409  0.0022 -0.3218 -0.2518
28844SOL     OW93389   8.722   1.974   5.943  0.2193 -0.0397 -0.2024
28844SOL    HW193390   8.631   1.949   5.960  0.1177  0.1546 -0.4574
28844SOL    HW293391   8.718   2.027   5.864  0.5421  0.0688 -0.1476
28845SOL     OW93392   0.324   9.956  12.398 -0.0760  0.2537 -0.5005
28845SOL    HW193393   0.413   9.965  12.433 -0.5878 -0.7552  1.1470
28845SOL    HW293394   0.335   9.903  12.319  0.8396  0.5920 -0.6183
28846SOL     OW93395   8.687   9.082  10.050  0.3096 -0.0024 -0.4193
28846SOL    HW193396   8.686   9.152   9.985  1.4508  2.9150  2.4170
28846SOL    HW293397   8.777   9.080  10.082  0.0775 -2.1618  0.2566
28847SOL     OW93398   7.661   0.014   4.938  0.3591  0.3088 -0.2666
28847SOL    HW193399   7.707  -0.053   4.987  0.4933  0.4098 -0.2549
28847SOL    HW293400   7.724   0.044   4.873  0.5464  0.9326  0.1925
28848SOL     OW93401   9.515   2.970   7.674 -0.4526  0.1102 -0.3430
28848SOL    HW193402   9.501   2.921   7.755  0.6909  0.0152 -0.1938
28848SOL    HW293403   9.519   3.061   7.701  2.2674 -0.0671  0.0733
28849SOL     OW93404   5.662   1.357   1.707 -0.1165 -0.1039 -0.2144
28849SOL    HW193405   5.757   1.344   1.700  0.1023 -0.4046  2.3403
28849SOL    HW293406   5.632   1.285   1.762 -1.5384  0.9604  0.4753
28850SOL     OW93407   7.090  11.539   4.735  0.5177 -0.6341  0.1855
28850SOL    HW193408   7.067  11.519   4.644 -1.6770 -4.1053  1.2670
28850SOL    HW293409   7.182  11.516   4.743  0.7700 -0.1438 -1.1873
28851SOL     OW93410   0.097   9.187  11.563  0.0565  0.3757 -0.1514
28851SOL    HW193411   0.092   9.277  11.529  2.3064  0.1759 -1.2022
28851SOL    HW293412   0.127   9.135  11.488 -2.9535 -1.6543 -0.1045
28852SOL     OW93413  10.791   9.465  11.460  0.5974  0.0445  0.0849
28852SOL    HW193414  10.785   9.534  11.526 -0.4234 -1.2976  1.4627
28852SOL    HW293415  10.787   9.384  11.510 -0.2742 -1.0252 -1.6358
28853SOL     OW93416  11.869   4.571  10.466  0.4236 -0.2107 -0.4093
28853SOL    HW193417  11.806   4.517  10.419  1.2900 -0.0796 -1.8042
28853SOL    HW293418  11.950   4.520  10.464  1.0523  0.7582 -1.0651
28854SOL     OW93419   7.767   1.836   6.903 -0.2537 -0.9146  0.1510
28854SOL    HW193420   7.741   1.744   6.897  0.1634 -1.1600  1.6728
28854SOL    HW293421   7.777   1.852   6.996 -2.1967  1.2375  0.0826
28855SOL     OW93422   2.053   1.573   0.953 -0.1367 -0.0884 -0.1188
28855SOL    HW193423   1.963   1.543   0.943 -0.2433  0.1080  0.2449
28855SOL    HW293424   2.054   1.621   1.036  0.8300 -2.0438  1.0686
28856SOL     OW93425   1.846   6.650   0.700 -0.1094 -0.6011  0.3695
28856SOL    HW193426   1.928   6.603   0.716 -0.5159 -1.3208  0.3789
28856SOL    HW293427   1.874   6.739   0.675  0.6429 -0.5083  1.4642
28857SOL     OW93428   4.933   7.618   5.274 -0.6659 -0.0634  0.1424
28857SOL    HW193429   5.029   7.623   5.270 -0.6340 -0.3119  0.6260
28857SOL    HW293430   4.908   7.571   5.194 -0.4389  0.6576 -0.3686
28858SOL     OW93431   4.304   7.626   1.900 -0.1472  0.8347  0.0527
28858SOL    HW193432   4.335   7.567   1.969  0.1600 -0.7540 -1.3554
28858SOL    HW293433   4.331   7.713   1.929  1.0835  0.0798  1.3337
28859SOL     OW93434   9.610   4.511  10.522 -0.0840  0.1676  0.6289
28859SOL    HW193435   9.639   4.602  10.528 -1.5987  0.6220  1.9076
28859SOL    HW293436   9.598   4.484  10.614 -2.1717 -0.4426  0.2307
28860SOL     OW93437   3.746   1.050   0.129  0.2612  0.4724 -0.3564
28860SOL    HW193438   3.724   1.089   0.213 -0.4097 -0.2177 -0.2064
28860SOL    HW293439   3.743   1.123   0.067 -1.7263  0.5510 -0.2094
28861SOL     OW93440  10.115   0.157   3.705 -0.2422  0.2142  0.1581
28861SOL    HW193441  10.180   0.215   3.667 -0.0167 -0.3939 -0.4064
28861SOL    HW293442  10.148   0.069   3.688 -2.0014 -0.1647 -1.6288
28862SOL     OW93443   4.035   3.048   3.847 -0.2999  0.2173 -0.4871
28862SOL    HW193444   3.984   2.968   3.841  0.8761 -0.5410 -0.6714
28862SOL    HW293445   4.124   3.019   3.864  0.4498  1.4066 -2.1131
28863SOL     OW93446   9.107   6.511   5.305  0.4254  0.1770  0.3822
28863SOL    HW193447   9.041   6.469   5.250  1.0231  0.4741 -0.5824
28863SOL    HW293448   9.180   6.530   5.245  0.8969  0.9345  1.1786
28864SOL     OW93449   4.651   9.938  10.497  0.1859 -0.1471 -0.0350
28864SOL    HW193450   4.629  10.013  10.442 -0.4200 -1.0400 -1.0389
28864SOL    HW293451   4.606   9.956  10.580 -0.5266  0.2798 -0.4973
28865SOL     OW93452   1.772   8.334   6.607 -0.1451 -0.1513 -0.1375
28865SOL    HW193453   1.727   8.325   6.691  0.5026  1.0604  0.3643
28865SOL    HW293454   1.865   8.323   6.629  0.1208  1.2039 -0.5049
28866SOL     OW93455   2.040   5.504   4.898 -0.1958 -0.6221 -0.0583
28866SOL    HW193456   2.081   5.429   4.941 -0.3571 -0.9398 -0.4456
28866SOL    HW293457   2.088   5.513   4.816  0.7314  0.5711  0.5915
28867SOL     OW93458   6.908   3.289   9.017 -0.4954 -0.5758  0.0676
28867SOL    HW193459   6.926   3.379   9.043 -1.5073  0.2271 -1.7947
28867SOL    HW293460   6.986   3.262   8.967 -1.2532  0.2822 -1.6799
28868SOL     OW93461   0.588  10.489   9.422 -0.1603 -0.4070 -0.0393
28868SOL    HW193462   0.565  10.555   9.488 -1.7265 -1.5279  0.5935
28868SOL    HW293463   0.654  10.434   9.464 -0.6911 -0.7372  0.3687
28869SOL     OW93464  12.005   3.363   1.944 -0.1919 -0.3247 -0.4809
28869SOL    HW193465  12.062   3.364   1.868  1.0569  0.1187  0.4341
28869SOL    HW293466  11.947   3.438   1.932 -0.2572 -0.4830 -1.1744
28870SOL     OW93467   3.934   8.231   1.737  0.1013  0.3110  0.4093
28870SOL    HW193468   3.843   8.233   1.707 -0.6298  0.8289  2.5367
28870SOL    HW293469   3.952   8.320   1.766  0.7337 -0.1714  1.5703
28871SOL     OW93470   8.420   0.924   3.291  0.3347 -0.0403 -0.1626
28871SOL    HW193471   8.497   0.897   3.240  2.6866  0.9094  2.5766
28871SOL    HW293472   8.398   1.011   3.258  1.9706  0.6665  0.4967
28872SOL     OW93473   1.145   8.762   0.299 -0.2441 -0.3790 -0.2774
28872SOL    HW193474   1.076   8.821   0.268 -1.1420  0.2916  2.6808
28872SOL    HW293475   1.203   8.818   0.351  1.2390 -1.3719 -0.8081
28873SOL     OW93476   1.948  11.075   3.061  0.2283  0.0956 -0.0530
28873SOL    HW193477   1.865  11.071   3.108 -1.0585 -1.8327 -2.2817
28873SOL    HW293478   2.013  11.098   3.128 -1.7132 -0.8246  2.2717
28874SOL     OW93479  11.836   2.707   5.399  0.3081 -0.0740 -0.4867
28874SOL    HW193480  11.750   2.748   5.411  0.6426  0.6439 -0.4776
28874SOL    HW293481  11.820   2.613   5.409 -0.6483 -0.0323 -1.4421
28875SOL     OW93482   2.168  12.434   9.959 -0.1042 -0.3007 -0.0087
28875SOL    HW193483   2.113  12.375  10.011 -0.6389  1.8033  1.9573
28875SOL    HW293484   2.112  12.460   9.886 -1.7107  1.5248  1.7618
28876SOL     OW93485  12.183  12.086  10.878 -0.0186 -0.4366  0.6490
28876SOL    HW193486  12.125  12.011  10.890  0.0312 -0.4361  0.8881
28876SOL    HW293487  12.125  12.160  10.860 -0.2181 -0.0741  2.5372
28877SOL     OW93488   4.491  10.017  12.142  0.3453  0.5116 -0.4712
28877SOL    HW193489   4.516   9.957  12.071  1.1027 -0.6077  0.7140
28877SOL    HW293490   4.564  10.015  12.203 -0.3402  1.3801  0.4167
28878SOL     OW93491   3.367   7.438   8.702 -0.2609 -0.0426  0.0719
28878SOL    HW193492   3.360   7.349   8.668  2.4909 -0.2151 -0.2581
28878SOL    HW293493   3.310   7.490   8.644  0.9993 -1.0340 -2.2018
28879SOL     OW93494   7.473   1.319   2.514  0.2923 -0.6249  0.1866
28879SOL    HW193495   7.447   1.323   2.607 -0.5425  0.0673 -0.0613
28879SOL    HW293496   7.504   1.407   2.495 -0.9327 -0.3256 -0.5633
28880SOL     OW93497   2.461   9.776   3.795  0.1557 -0.5818 -0.0447
28880SOL    HW193498   2.433   9.686   3.781  0.3621 -0.3668 -2.2476
28880SOL    HW293499   2.540   9.769   3.848 -1.8679 -1.4020  3.1448
28881SOL     OW93500   7.737   0.829  11.632 -0.2939 -0.0451  0.7955
28881SOL    HW193501   7.779   0.764  11.575 -1.0229 -0.1515  0.3620
28881SOL    HW293502   7.644   0.807  11.629 -0.8797  2.2509 -1.0235
28882SOL     OW93503   6.883   9.169   2.928  0.1095  0.0492  0.1484
28882SOL    HW193504   6.919   9.257   2.941  1.6825 -0.6944  1.0149
28882SOL    HW293505   6.806   9.167   2.985 -0.8134  1.3196 -0.9705
28883SOL     OW93506   8.271   3.835  10.331 -0.3414 -0.3914  0.0002
28883SOL    HW193507   8.324   3.786  10.269  0.7722  0.7401  0.0206
28883SOL    HW293508   8.202   3.774  10.357  0.2055 -1.4692 -0.9940
28884SOL     OW93509   4.814   0.615   9.943 -0.5256  0.0294  0.6121
28884SOL    HW193510   4.800   0.710   9.941 -0.4165  0.0428 -0.2411
28884SOL    HW293511   4.902   0.605   9.979  0.1376  0.3637 -0.8405
28885SOL     OW93512   0.323   4.558   7.636  0.2100  0.3774  0.2563
28885SOL    HW193513   0.373   4.567   7.717 -0.3187  0.4311  0.5803
28885SOL    HW293514   0.321   4.647   7.601  0.8639  0.2682 -0.0792
28886SOL     OW93515   0.614   4.455   7.155  0.3695 -0.2424  0.2052
28886SOL    HW193516   0.675   4.412   7.215  0.6662  1.7398  1.4307
28886SOL    HW293517   0.531   4.409   7.168  1.0799 -1.5751  0.1201
28887SOL     OW93518   3.180  11.726   2.711  0.2937  0.0023 -0.1349
28887SOL    HW193519   3.131  11.648   2.739  1.6119 -0.8928 -0.2757
28887SOL    HW293520   3.234  11.748   2.786 -0.6782  1.3211  0.2144
28888SOL     OW93521  12.231   6.560   2.980  1.2297  0.1111 -0.2935
28888SOL    HW193522  12.188   6.493   3.033  1.7140 -1.4598 -1.7511
28888SOL    HW293523  12.325   6.543   2.992  1.3489 -0.2797 -1.5699
28889SOL     OW93524   8.189   0.556   4.068 -0.7460 -0.5101 -0.2912
28889SOL    HW193525   8.213   0.492   4.001  0.4674  2.2619 -2.7117
28889SOL    HW293526   8.189   0.506   4.150 -0.0746 -3.5942 -2.0227
28890SOL     OW93527   9.906   4.081   1.575 -0.1119  0.0822 -0.1195
28890SOL    HW193528   9.903   4.114   1.486  1.6104  2.8325  0.7218
28890SOL    HW293529   9.845   4.136   1.624  0.1690 -0.2938  0.6812
28891SOL     OW93530   0.155   7.603   7.361  0.3980 -0.2448 -0.1071
28891SOL    HW193531   0.113   7.523   7.331  0.7835 -0.4495 -0.1080
28891SOL    HW293532   0.229   7.615   7.302  2.5153 -1.8453  2.0361
28892SOL     OW93533  10.847   3.223   2.495 -0.7951  0.0972 -0.2784
28892SOL    HW193534  10.886   3.135   2.495  0.5773  0.6654  0.3543
28892SOL    HW293535  10.920   3.281   2.473 -1.0277  1.2849  1.7624
28893SOL     OW93536   2.834   2.858   8.139 -0.2449  0.0367 -0.1072
28893SOL    HW193537   2.870   2.775   8.168  0.8183  0.7141  0.5857
28893SOL    HW293538   2.902   2.896   8.083 -0.0855  1.0958  0.7767
28894SOL     OW93539  11.876   8.807  12.450  0.8641  0.4171  0.0503
28894SOL    HW193540  11.881   8.898  12.420 -0.2774  0.5509  0.2046
28894SOL    HW293541  11.846   8.814  12.541  2.4379 -0.0618  0.6356
28895SOL     OW93542   1.662   6.225   3.208  0.7126 -0.0215 -0.1195
28895SOL    HW193543   1.629   6.154   3.263  1.8150 -0.4684  0.0021
28895SOL    HW293544   1.585   6.255   3.159 -0.1122 -0.1652  1.0410
28896SOL     OW93545   9.949   1.415   7.201 -0.2210 -0.2442  0.4218
28896SOL    HW193546   9.903   1.460   7.272  0.3973 -0.2152  0.8139
28896SOL    HW293547  10.011   1.480   7.168 -0.2870 -0.3619  0.0652
28897SOL     OW93548   9.003   0.865   4.757  0.1447 -0.1481  0.4447
28897SOL    HW193549   9.040   0.777   4.772  1.7294  0.5616  0.8818
28897SOL    HW293550   9.078   0.923   4.759 -0.8454  1.2045 -0.2164
28898SOL     OW93551   8.182   9.327   3.608  0.2353  0.0008  0.3927
28898SOL    HW193552   8.208   9.241   3.577 -0.3330  0.4922 -1.5726
28898SOL    HW293553   8.154   9.374   3.530 -1.3461  1.3138  1.6626
28899SOL     OW93554   3.972   8.615   4.955  0.3443 -0.0998 -0.1628
28899SOL    HW193555   3.990   8.573   5.039  0.8627  0.0394 -0.1996
28899SOL    HW293556   4.043   8.678   4.944 -1.7750  2.7075  1.1205
28900SOL     OW93557   6.380   4.040   9.576 -0.0083 -0.1917  0.2401
28900SOL    HW193558   6.375   4.079   9.488  1.2125 -0.5657 -0.0243
28900SOL    HW293559   6.456   3.982   9.571  0.0489 -0.2488  1.5384
28901SOL     OW93560   3.526   2.861  11.646  0.3376  0.0068  0.3081
28901SOL    HW193561   3.600   2.801  11.652  1.6832  1.3439 -1.6778
28901SOL    HW293562   3.456   2.810  11.603  1.4775 -0.1816 -1.4197
28902SOL     OW93563  10.541   9.489   9.546 -0.2703 -0.0285  0.3751
28902SOL    HW193564  10.449   9.462   9.549 -0.6008  1.0046  0.0846
28902SOL    HW293565  10.587   9.423   9.597 -0.7987 -2.0103 -1.5664
28903SOL     OW93566   9.740   5.493   0.937 -0.7791  0.2903 -0.4438
28903SOL    HW193567   9.694   5.440   0.871 -0.5509 -1.1032  0.4743
28903SOL    HW293568   9.833   5.485   0.912 -0.6609 -0.5133  0.2077
28904SOL     OW93569   6.065   7.243  11.751 -0.2791  0.1946 -0.2386
28904SOL    HW193570   6.113   7.161  11.768  0.2664  0.7561  1.0662
28904SOL    HW293571   6.070   7.291  11.833 -0.0136  1.8511 -1.1786
28905SOL     OW93572   3.164   0.473  12.177  0.3919  0.1835 -0.1737
28905SOL    HW193573   3.073   0.454  12.200  0.2041  0.8932 -0.3040
28905SOL    HW293574   3.159   0.507  12.088  0.9405 -1.0692 -0.7132
28906SOL     OW93575   3.605  11.735   8.290 -0.1512 -0.2636 -0.0398
28906SOL    HW193576   3.516  11.708   8.316 -0.4883 -0.3196 -1.1978
28906SOL    HW293577   3.640  11.778   8.368 -2.3931  2.7273 -0.4771
28907SOL     OW93578  10.244   9.977   9.701  0.6894 -0.0938 -0.5128
28907SOL    HW193579  10.288  10.062   9.704  2.3213 -0.8836 -0.8632
28907SOL    HW293580  10.209   9.965   9.790 -3.0965  2.6292 -1.4069
28908SOL     OW93581   3.850   8.423   5.379  0.2582 -0.0548 -0.5808
28908SOL    HW193582   3.797   8.349   5.351  0.0828 -0.6431  1.1803
28908SOL    HW293583   3.855   8.415   5.474  0.8159  1.8126 -0.4028
28909SOL     OW93584  11.141  10.749   1.774 -0.5027  0.4408 -0.3108
28909SOL    HW193585  11.057  10.795   1.781 -1.6511 -1.4808 -0.9043
28909SOL    HW293586  11.127  10.665   1.818  1.2973  0.2908  0.0751
28910SOL     OW93587  11.337   5.304   2.918  0.3713 -0.5514  0.1128
28910SOL    HW193588  11.392   5.338   2.848 -0.3636 -0.6173 -0.5113
28910SOL    HW293589  11.248   5.330   2.893  0.2361  0.8392  1.8274
28911SOL     OW93590   9.795   0.179   4.976 -0.0913  0.2380  0.2908
28911SOL    HW193591   9.845   0.098   4.979  1.4784  0.8565 -3.4284
28911SOL    HW293592   9.859   0.248   4.992 -0.7385  0.8542  0.2689
28912SOL     OW93593   8.986   5.148   9.884 -1.2012 -0.4399 -0.0689
28912SOL    HW193594   8.919   5.100   9.932 -1.6715 -0.2552 -0.5280
28912SOL    HW293595   8.970   5.126   9.792 -1.4782  0.6682 -0.2995
28913SOL     OW93596   2.122   1.099  11.742 -0.2319 -0.6954  0.1116
28913SOL    HW193597   2.055   1.036  11.767 -1.1294  0.1734 -0.0712
28913SOL    HW293598   2.133   1.086  11.648 -0.4605 -0.5356  0.0637
28914SOL     OW93599   7.516  11.820   8.629 -0.3408 -0.5918  0.1620
28914SOL    HW193600   7.582  11.889   8.631  0.6715 -1.3943 -1.7070
28914SOL    HW293601   7.434  11.863   8.653 -0.1354  1.7877 -2.8255
28915SOL     OW93602   4.635   2.622  11.281 -0.3526 -0.0858  0.4992
28915SOL    HW193603   4.552   2.644  11.322 -1.9155 -2.6389 -1.0802
28915SOL    HW293604   4.682   2.571  11.348 -0.6628  0.1057  0.8654
28916SOL     OW93605   6.419   7.269  10.285 -0.2502 -0.1838  0.1743
28916SOL    HW193606   6.413   7.354  10.240 -1.0219  1.1227  2.5091
28916SOL    HW293607   6.444   7.207  10.217  1.1767  2.0483 -1.4866
28917SOL     OW93608  10.368   1.090   2.015  0.1454  0.0589  0.0368
28917SOL    HW193609  10.445   1.055   2.060 -0.6225 -1.2418  0.3832
28917SOL    HW293610  10.377   1.060   1.924  0.9940  1.5313 -0.4063
28918SOL     OW93611   5.635   1.175   0.317  0.1250  0.1238 -0.8001
28918SOL    HW193612   5.596   1.155   0.402  1.0023  0.3745 -0.3275
28918SOL    HW293613   5.729   1.184   0.335  0.3991 -0.3975 -1.8979
28919SOL     OW93614   6.317   6.042   1.087  0.0142  0.1067 -0.5407
28919SOL    HW193615   6.266   6.062   1.008 -1.9858 -0.7557  0.4594
28919SOL    HW293616   6.391   5.990   1.055 -0.6632 -0.0794 -1.8753
28920SOL     OW93617  10.041   3.730   2.070  0.2223 -0.2624  1.1075
28920SOL    HW193618   9.976   3.665   2.042  1.2966 -0.9070  0.0320
28920SOL    HW293619  10.013   3.811   2.027  0.3908 -0.6510  0.2434
28921SOL     OW93620   5.665   4.632   8.255  0.5849 -0.1324  0.2128
28921SOL    HW193621   5.617   4.552   8.234  2.2425 -0.4211 -3.1951
28921SOL    HW293622   5.621   4.701   8.204  1.5545  0.3104 -0.0471
28922SOL     OW93623   5.234   7.301   6.400  0.4027 -0.3033 -0.2548
28922SOL    HW193624   5.244   7.380   6.454  0.5308 -0.5735  0.1227
28922SOL    HW293625   5.139   7.285   6.400  0.4832 -0.8668  0.7257
28923SOL     OW93626   6.903   8.024  11.767 -0.4323 -0.1124 -0.8307
28923SOL    HW193627   6.990   8.038  11.805 -1.3774  0.8729  1.1127
28923SOL    HW293628   6.887   7.930  11.780 -0.3162  0.0134  0.3266
28924SOL     OW93629   1.662  11.190  10.961  0.6530  0.5131 -0.2376
28924SOL    HW193630   1.718  11.114  10.946 -0.9478 -0.5783 -0.9391
28924SOL    HW293631   1.704  11.261  10.912 -0.0880 -1.0026 -3.3208
28925SOL     OW93632   1.817  12.045   8.866 -0.9288 -0.4091 -0.5617
28925SOL    HW193633   1.834  12.111   8.799 -3.3694 -1.4937 -2.4080
28925SOL    HW293634   1.856  11.965   8.831  0.8668 -0.3150  1.0519
28926SOL     OW93635   8.511   6.445   7.244 -0.1284 -0.1898 -0.4797
28926SOL    HW193636   8.455   6.503   7.192  1.0668  1.5806  0.1278
28926SOL    HW293637   8.458   6.423   7.321 -0.5250  0.2464 -0.6259
28927SOL     OW93638   9.297   5.734   7.076 -0.2985 -0.3449 -0.1770
28927SOL    HW193639   9.305   5.823   7.108  0.4358 -0.6948  0.6709
28927SOL    HW293640   9.355   5.683   7.133  0.9066 -1.0331 -1.9265
28928SOL     OW93641   1.708  12.348   3.180  0.4445 -0.3223 -0.0528
28928SOL    HW193642   1.789  12.318   3.139  1.1687 -0.2256  1.2552
28928SOL    HW293643   1.736  12.394   3.259 -0.9009 -0.4757  0.5474
28929SOL     OW93644   0.125   1.746  11.675 -0.4006 -0.3165  0.3404
28929SOL    HW193645   0.162   1.702  11.751  0.8693  0.9027  0.4789
28929SOL    HW293646   0.197   1.799  11.641 -1.6191  0.9971 -0.2982
28930SOL     OW93647   8.421   2.987   6.673  0.2990 -0.0589 -0.0073
28930SOL    HW193648   8.410   3.014   6.765  0.1476  1.0673 -0.3416
28930SOL    HW293649   8.444   3.067   6.627 -0.4699 -0.4453 -1.1019
28931SOL     OW93650   8.160   3.496   8.199  0.0302  0.5494 -0.0144
28931SOL    HW193651   8.114   3.527   8.278 -0.7720  0.3382 -0.3846
28931SOL    HW293652   8.094   3.443   8.153  0.4174  0.8599 -0.9370
28932SOL     OW93653   2.254   6.590   5.830 -0.2806  0.0685  0.4275
28932SOL    HW193654   2.166   6.572   5.795 -0.1593  1.2868 -0.5707
28932SOL    HW293655   2.307   6.609   5.753  0.4126  1.1332  1.1468
28933SOL     OW93656   1.897   4.070  10.669  0.0545  0.1353 -0.1732
28933SOL    HW193657   1.906   4.087  10.575 -1.0844 -3.2753 -1.0485
28933SOL    HW293658   1.812   4.026  10.677  1.1605 -1.8040  2.0584
28934SOL     OW93659   0.642   2.372   9.027  0.3311 -0.3573 -0.5924
28934SOL    HW193660   0.632   2.282   8.998  2.8950 -0.2930 -1.9230
28934SOL    HW293661   0.581   2.422   8.973 -0.0550 -1.1045 -0.8586
28935SOL     OW93662   2.048   5.996  10.946  0.7304 -0.1691 -0.6063
28935SOL    HW193663   2.076   5.949  11.025 -0.6683  0.1150  0.0757
28935SOL    HW293664   2.069   5.935  10.875  0.3350 -1.2055  0.1332
28936SOL     OW93665   6.774   0.898   7.403  0.1767 -0.2838 -0.3775
28936SOL    HW193666   6.712   0.868   7.470  0.3288  0.7944  0.2703
28936SOL    HW293667   6.725   0.895   7.321 -1.5296  2.6040  0.3902
28937SOL     OW93668  11.779   3.589  11.554  0.0227 -0.0796 -0.5001
28937SOL    HW193669  11.762   3.498  11.579  0.4724 -0.0834 -0.1972
28937SOL    HW293670  11.871   3.603  11.575 -0.4741  0.9921  1.1776
28938SOL     OW93671   2.265   7.358  11.553  0.2119  0.2172  0.5681
28938SOL    HW193672   2.197   7.418  11.584 -0.1050 -0.3247  0.9274
28938SOL    HW293673   2.312   7.409  11.487 -2.0188 -0.1559 -1.4551
28939SOL     OW93674   5.015   9.085   9.061  0.1856  0.1674 -0.5317
28939SOL    HW193675   4.983   9.175   9.067  0.2548  0.2483 -1.3395
28939SOL    HW293676   5.028   9.059   9.152 -2.1680  0.1207 -0.1292
28940SOL     OW93677   2.284   3.715   6.965  0.3427  0.0237 -0.3471
28940SOL    HW193678   2.289   3.788   7.026 -0.2311  0.5989 -0.9792
28940SOL    HW293679   2.341   3.739   6.893  0.0178 -0.0743 -0.6385
28941SOL     OW93680   8.428   6.174   2.515 -0.1191 -0.1375 -0.0163
28941SOL    HW193681   8.376   6.230   2.573  0.7789  0.6558  0.0415
28941SOL    HW293682   8.482   6.121   2.575  1.8658  1.6837 -0.0666
28942SOL     OW93683   6.907   4.913   0.442  0.1846 -0.0565 -0.2150
28942SOL    HW193684   6.826   4.958   0.418 -0.1025 -0.9180 -0.9057
28942SOL    HW293685   6.887   4.820   0.433  1.5684 -0.2728 -1.5528
28943SOL     OW93686   7.564   4.379   6.709  0.3428 -0.4493  0.2766
28943SOL    HW193687   7.593   4.297   6.670  0.7462  0.3397 -1.1724
28943SOL    HW293688   7.502   4.353   6.777  1.8605 -2.0179  1.1349
28944SOL     OW93689   1.867   0.322   2.540  0.0078  0.7262  0.3038
28944SOL    HW193690   1.852   0.366   2.456  0.0032  1.0513  0.4729
28944SOL    HW293691   1.905   0.238   2.517 -0.5404  0.5770 -0.0527
28945SOL     OW93692  12.058   7.630   3.198 -0.0772  0.5070 -0.4102
28945SOL    HW193693  12.081   7.566   3.131 -0.5877 -0.1523  0.0298
28945SOL    HW293694  11.997   7.584   3.255  1.4997  0.5125  1.4039
28946SOL     OW93695   7.825   1.753  12.059 -0.1564  0.6862  0.0281
28946SOL    HW193696   7.793   1.831  12.104  1.6698  1.2691  0.4133
28946SOL    HW293697   7.921   1.759  12.066  0.0744 -2.9252  2.4323
28947SOL     OW93698   3.664   5.346   8.009 -0.0505  0.2378  0.0485
28947SOL    HW193699   3.643   5.426   7.962 -0.8710  0.9251  1.5279
28947SOL    HW293700   3.707   5.376   8.089 -0.7497 -0.7733  0.8207
28948SOL     OW93701   6.019   6.370   7.947 -0.3394  0.4806 -0.2668
28948SOL    HW193702   6.065   6.453   7.952  0.5611  0.1877 -2.5750
28948SOL    HW293703   5.973   6.372   7.863 -1.1685 -0.9432  0.0993
28949SOL     OW93704  11.923  10.849   3.600 -0.0148  0.9667  0.2703
28949SOL    HW193705  11.964  10.765   3.579 -1.3480  0.6352 -1.2363
28949SOL    HW293706  11.996  10.911   3.601  0.9435 -0.1213  1.0311
28950SOL     OW93707  12.445   8.013   1.789  0.3457  0.0069 -0.3110
28950SOL    HW193708  12.501   8.090   1.803 -0.2120  0.3648  0.0117
28950SOL    HW293709  12.420   8.019   1.696  1.9420 -0.9247 -0.8386
28951SOL     OW93710   6.643   6.107   2.598  0.1389  0.1124 -0.0285
28951SOL    HW193711   6.649   6.041   2.667  2.1350 -1.0567 -1.2156
28951SOL    HW293712   6.699   6.178   2.627 -0.0888  0.2252  0.1426
28952SOL     OW93713  12.363   7.817   7.695  0.8558 -0.0134 -0.0061
28952SOL    HW193714  12.427   7.790   7.629  2.6736 -0.0603  1.6784
28952SOL    HW293715  12.321   7.895   7.658  0.8998 -0.7524 -1.7160
28953SOL     OW93716   6.646   8.732   0.990  0.1903  0.3310 -0.1156
28953SOL    HW193717   6.615   8.678   0.917 -0.3238  0.6372 -0.1239
28953SOL    HW293718   6.742   8.731   0.982  0.3362 -2.1373  0.9612
28954SOL     OW93719   7.781   3.310   5.453  0.4858  0.3056  0.0680
28954SOL    HW193720   7.731   3.388   5.474  0.9092  0.6364 -0.1528
28954SOL    HW293721   7.823   3.284   5.535  2.3710  1.7594 -0.3719
28955SOL     OW93722   3.450   8.263  12.532  0.1894 -0.0828 -0.1681
28955SOL    HW193723   3.424   8.240  12.443 -0.3072 -1.6888  0.3602
28955SOL    HW293724   3.395   8.338  12.555 -1.5920 -1.2801 -0.3095
28956SOL     OW93725   7.767   2.696   0.988 -0.2987 -0.3970 -0.9040
28956SOL    HW193726   7.697   2.754   1.016  1.3657  1.4749 -0.3422
28956SOL    HW293727   7.822   2.684   1.066  0.9416 -0.3685 -1.7360
28957SOL     OW93728  10.628   3.207   2.078 -0.0307  0.0913 -0.0693
28957SOL    HW193729  10.564   3.140   2.104 -0.2473 -0.3566 -1.6946
28957SOL    HW293730  10.699   3.157   2.037  1.3704  0.5879  1.6214
28958SOL     OW93731   0.628   2.170  11.316 -0.3168  0.6184 -0.0404
28958SOL    HW193732   0.594   2.081  11.302 -1.7741  1.2828 -0.8557
28958SOL    HW293733   0.719   2.166  11.286 -0.7684 -0.2554 -1.3627
28959SOL     OW93734   1.362   5.733   1.722 -0.4890  0.0214 -0.6865
28959SOL    HW193735   1.318   5.802   1.672 -0.5366  1.1375  0.8156
28959SOL    HW293736   1.290   5.680   1.757 -0.5115 -0.0547 -0.8505
28960SOL     OW93737  10.834   4.580   8.009  0.0374  0.0937 -0.1854
28960SOL    HW193738  10.848   4.496   7.964  0.9638  0.8089 -1.2909
28960SOL    HW293739  10.916   4.595   8.057  0.1419  0.6945 -0.5453
28961SOL     OW93740   6.479   4.024  10.817 -0.1530 -0.1968  0.3257
28961SOL    HW193741   6.426   3.955  10.855 -0.4616  0.2482  0.7194
28961SOL    HW293742   6.438   4.044  10.733  0.9510 -1.6879 -0.6237
28962SOL     OW93743   9.475   1.249   3.080 -0.0006  0.2199  0.1198
28962SOL    HW193744   9.473   1.164   3.035  0.5635  0.1443  0.2235
28962SOL    HW293745   9.417   1.238   3.155  0.9358 -0.4504  0.7656
28963SOL     OW93746   9.256   4.595   8.437 -0.7366  0.5341 -0.1563
28963SOL    HW193747   9.252   4.677   8.388  0.9103 -0.0948 -1.4291
28963SOL    HW293748   9.321   4.611   8.505 -1.6967  0.8202  0.7159
28964SOL     OW93749   4.442   8.750  12.029  0.4466 -0.5554 -0.4169
28964SOL    HW193750   4.474   8.688  11.964 -3.0724 -3.4402  0.2929
28964SOL    HW293751   4.380   8.805  11.981  1.1011  0.2784 -0.3379
28965SOL     OW93752   0.805   3.676   7.500 -0.5823 -0.0719 -0.5484
28965SOL    HW193753   0.881   3.710   7.454 -1.0192  1.7552 -0.0083
28965SOL    HW293754   0.738   3.668   7.432 -0.1206 -1.0465 -0.9015
28966SOL     OW93755   4.942  10.860   5.698 -0.1455  0.4571 -0.2290
28966SOL    HW193756   4.866  10.804   5.688 -0.0453  0.5598 -1.7871
28966SOL    HW293757   5.003  10.831   5.630  0.4146  1.6156 -0.2587
28967SOL     OW93758  11.103   8.411   3.285 -1.1488 -0.5138 -0.6675
28967SOL    HW193759  11.157   8.416   3.207  1.3532  1.7009  1.0317
28967SOL    HW293760  11.131   8.331   3.329 -0.2638 -0.1311 -0.5202
28968SOL     OW93761   0.822   6.231   0.915 -0.6691  0.5328  0.2432
28968SOL    HW193762   0.754   6.283   0.958 -2.5373 -2.0937  0.7427
28968SOL    HW293763   0.904   6.262   0.952 -1.5309  3.7416 -0.2541
28969SOL     OW93764   7.697  12.224   2.585  0.0205 -0.1123 -0.0320
28969SOL    HW193765   7.768  12.276   2.548  2.3230 -2.3695  0.8766
28969SOL    HW293766   7.703  12.239   2.680 -1.9535  1.0285 -0.0245
28970SOL     OW93767  12.256   8.840   2.225 -0.1162  0.6333 -0.1722
28970SOL    HW193768  12.163   8.818   2.229 -0.3855  1.8178  0.7548
28970SOL    HW293769  12.272   8.889   2.306  1.4758 -0.1433  0.0252
28971SOL     OW93770   7.337  11.665   1.252  0.2013 -0.0940  0.3164
28971SOL    HW193771   7.407  11.606   1.277  1.0869  0.4097 -0.8376
28971SOL    HW293772   7.353  11.682   1.159 -1.7757 -0.3862 -0.1053
28972SOL     OW93773   3.179   5.043   1.577  0.0544 -0.0771  0.1103
28972SOL    HW193774   3.233   5.029   1.654 -0.3595  1.1317  0.6427
28972SOL    HW293775   3.241   5.069   1.509  0.3257 -0.3747  0.2394
28973SOL     OW93776   9.933   3.622   0.859  0.2315 -0.8205 -0.1124
28973SOL    HW193777   9.891   3.617   0.773  0.0564  1.6864 -0.2564
28973SOL    HW293778   9.888   3.694   0.903  1.6754 -0.7253  1.2994
28974SOL     OW93779  12.524   1.925   8.184  0.1824  0.2074  0.1889
28974SOL    HW193780  12.437   1.897   8.153  0.9397 -1.4342 -0.5964
28974SOL    HW293781  12.585   1.877   8.128  1.6131  1.6038  0.4987
28975SOL     OW93782   4.535   2.507  10.052  0.1337 -0.3540  0.2460
28975SOL    HW193783   4.511   2.416  10.066  0.1547 -0.5320 -0.8382
28975SOL    HW293784   4.624   2.504  10.018  1.1163  0.2115  2.5070
28976SOL     OW93785   5.541   0.365   3.587  0.2950 -0.1490 -0.3754
28976SOL    HW193786   5.598   0.441   3.595 -0.5293  0.2688  2.6524
28976SOL    HW293787   5.551   0.319   3.671 -1.7258 -1.5600 -0.8391
28977SOL     OW93788   6.957   2.913   1.209  0.0251  0.0366  0.0299
28977SOL    HW193789   6.863   2.901   1.196  0.1789  0.5673 -1.8215
28977SOL    HW293790   6.970   3.007   1.211  0.4040 -0.0224  1.4470
28978SOL     OW93791   1.641   8.004   8.532  0.2358  0.4797  0.0140
28978SOL    HW193792   1.550   8.035   8.540  0.2322  0.4701  0.0113
28978SOL    HW293793   1.635   7.928   8.475 -0.2086 -1.4848  2.5220
28979SOL     OW93794   5.062   5.888   4.883 -0.5981  0.4664 -0.7337
28979SOL    HW193795   5.031   5.816   4.829 -1.7073  0.7515 -0.5017
28979SOL    HW293796   5.056   5.855   4.973  0.0055  0.4415 -0.7011
28980SOL     OW93797   2.308   3.102   1.431  0.4037 -0.4849  0.4474
28980SOL    HW193798   2.213   3.094   1.418  0.7245 -0.9932 -2.2155
28980SOL    HW293799   2.321   3.193   1.456 -0.6604  0.2087 -1.3175
28981SOL     OW93800   4.965   8.276   9.423 -0.2206 -0.1305 -0.0849
28981SOL    HW193801   4.920   8.360   9.431 -2.0439 -1.0687  0.1165
28981SOL    HW293802   4.986   8.252   9.513 -1.2991 -0.6870  0.0325
28982SOL     OW93803   8.606  12.261   9.817 -0.2224  0.2666  0.3402
28982SOL    HW193804   8.598  12.354   9.837 -1.7551  0.4416 -0.9492
28982SOL    HW293805   8.635  12.258   9.726  1.1400 -0.5502  0.7552
28983SOL     OW93806   6.019   3.647   2.472 -0.2670  0.0504  0.2227
28983SOL    HW193807   6.004   3.634   2.566 -0.5459  0.4231  0.2343
28983SOL    HW293808   6.033   3.741   2.463 -0.5145  0.0525 -0.1485
28984SOL     OW93809   1.728  10.907   9.997 -0.2135 -0.0420  0.0754
28984SOL    HW193810   1.720  10.886  10.090 -0.1599 -1.5731 -0.2394
28984SOL    HW293811   1.822  10.923   9.984  0.2211 -2.4514 -0.1876
28985SOL     OW93812   2.513   8.349   2.067  0.2454 -0.0670  0.2565
28985SOL    HW193813   2.505   8.286   1.996 -0.3270 -0.0395  0.2904
28985SOL    HW293814   2.542   8.430   2.024  0.9113 -0.3233  0.2049
28986SOL     OW93815   4.750   4.616   0.560  0.1013 -0.2265 -0.6758
28986SOL    HW193816   4.694   4.568   0.621 -0.8188 -0.0035 -1.3237
28986SOL    HW293817   4.828   4.561   0.550  0.3034 -0.2317  0.7339
28987SOL     OW93818   4.757   6.979   2.546 -0.5723 -0.0349  0.2785
28987SOL    HW193819   4.752   7.044   2.475 -0.5197 -0.7657 -0.4129
28987SOL    HW293820   4.696   7.012   2.612 -0.6913  0.6205 -0.1427
28988SOL     OW93821  10.899   2.931   1.656 -0.0679 -0.5472 -0.3559
28988SOL    HW193822  10.883   3.017   1.615 -0.0979 -0.7788 -0.8416
28988SOL    HW293823  10.932   2.952   1.743 -0.2268 -0.0394 -0.4121
28989SOL     OW93824   8.189   3.485   5.891 -0.2148  0.1997 -0.0776
28989SOL    HW193825   8.245   3.472   5.815 -0.6605  0.0207 -0.3857
28989SOL    HW293826   8.247   3.517   5.959  0.3631 -0.5491 -0.2114
28990SOL     OW93827   9.044   0.059   7.607 -0.7417 -0.1805  0.1585
28990SOL    HW193828   8.968   0.010   7.575 -0.6912 -0.1336 -0.0363
28990SOL    HW293829   9.016   0.097   7.690 -1.3411  0.8526 -0.4979
28991SOL     OW93830  10.030  11.633   2.115  0.4200 -0.4939  0.3668
28991SOL    HW193831  10.062  11.720   2.141 -0.5473  0.0878 -0.3024
28991SOL    HW293832  10.086  11.608   2.041  0.3185 -0.1560  0.1703
28992SOL     OW93833   7.150  10.884   7.904 -0.0643 -0.3371  0.0015
28992SOL    HW193834   7.163  10.892   7.810 -0.1767 -0.1426  0.0026
28992SOL    HW293835   7.150  10.789   7.920  0.7268 -0.3565 -0.0856
28993SOL     OW93836  10.894   5.995   8.727 -0.1268 -0.2205  0.2468
28993SOL    HW193837  10.844   5.914   8.716  0.3004 -0.6217  1.0828
28993SOL    HW293838  10.875   6.022   8.817  1.4835 -0.6321  0.7394
28994SOL     OW93839   7.163  12.070  11.346 -0.2140 -0.4624 -0.7572
28994SOL    HW193840   7.095  12.126  11.307 -0.2868 -0.0363 -0.0425
28994SOL    HW293841   7.244  12.117  11.329 -0.2713 -0.1502 -0.1859
28995SOL     OW93842   4.284   1.856   8.745 -0.4205  1.1075  0.6376
28995SOL    HW193843   4.342   1.796   8.700 -0.0175  2.1958 -0.3573
28995SOL    HW293844   4.324   1.869   8.831 -0.2824  0.3074  0.6993
28996SOL     OW93845   8.799   5.074   1.700 -0.2533  0.2108 -0.0187
28996SOL    HW193846   8.862   5.011   1.734  0.3530  0.5281 -0.5293
28996SOL    HW293847   8.716   5.050   1.742  0.4321  0.5156  1.5587
28997SOL     OW93848   9.146   3.671   4.989  0.2118 -0.5366 -0.1709
28997SOL    HW193849   9.117   3.580   4.996 -1.0052 -0.2540 -1.0029
28997SOL    HW293850   9.113   3.714   5.068  0.3829 -0.7294  0.0022
28998SOL     OW93851   2.306   6.148   3.110 -0.5572 -0.4040 -0.9209
28998SOL    HW193852   2.331   6.096   3.187 -1.4275  1.4444  0.6671
28998SOL    HW293853   2.237   6.097   3.068  0.1165 -1.5625 -0.6714
28999SOL     OW93854   2.678   1.691   8.617  0.3860 -0.0316 -0.5772
28999SOL    HW193855   2.753   1.651   8.573 -0.0155  0.5965 -1.8656
28999SOL    HW293856   2.603   1.639   8.589  0.3447 -0.8393  0.9378
29000SOL     OW93857   8.131   8.101  11.697  0.4027 -0.5530 -0.1084
29000SOL    HW193858   8.082   8.183  11.705  2.2054  0.7823 -1.6681
29000SOL    HW293859   8.092   8.057  11.621 -0.0625 -0.7796  0.2572
29001SOL     OW93860   5.189  11.534   5.091 -0.0144 -0.3590  0.0264
29001SOL    HW193861   5.162  11.610   5.040 -0.1938  0.3611  1.1405
29001SOL    HW293862   5.203  11.569   5.180  0.3091 -1.5484  0.4637
29002SOL     OW93863  12.196   8.752   3.306 -0.1122  0.1417  0.3318
29002SOL    HW193864  12.149   8.672   3.329  0.2165 -0.4034 -0.8153
29002SOL    HW293865  12.128   8.818   3.293 -0.5291 -0.4615 -0.6410
29003SOL     OW93866   2.511   8.249   5.594  0.1381 -0.0209 -0.5623
29003SOL    HW193867   2.458   8.178   5.558  1.1374 -0.4808 -1.1514
29003SOL    HW293868   2.575   8.269   5.526  1.5771 -0.3920  0.6178
29004SOL     OW93869   5.237  12.178   0.845  0.4223  0.1153  0.4286
29004SOL    HW193870   5.164  12.199   0.787  0.8357  0.6176  0.0807
29004SOL    HW293871   5.310  12.231   0.812  0.6420  0.4877  1.4602
29005SOL     OW93872   9.373   4.407   9.961  0.0752  0.2981 -0.4826
29005SOL    HW193873   9.347   4.442  10.046 -0.4544 -1.2641  0.0460
29005SOL    HW293874   9.468   4.395   9.967  0.3265  1.9543 -0.8233
29006SOL     OW93875   9.884  10.329   1.973 -0.5543  0.6546 -0.2089
29006SOL    HW193876   9.790  10.342   1.957 -0.6294  1.4387  0.7385
29006SOL    HW293877   9.903  10.243   1.935 -1.8575  0.0750  0.3729
29007SOL     OW93878   5.443   3.493   8.172 -0.3258 -0.1298 -0.1036
29007SOL    HW193879   5.501   3.522   8.101  0.3534  0.6569  0.7560
29007SOL    HW293880   5.493   3.426   8.218 -0.1957  0.3714  0.4872
29008SOL     OW93881   6.654   5.548   3.295 -0.1616  0.2762 -0.3101
29008SOL    HW193882   6.739   5.578   3.265 -0.4812  0.1883 -1.3344
29008SOL    HW293883   6.664   5.538   3.390  0.9027  0.4455 -0.3950
29009SOL     OW93884   3.732   1.367   6.601 -0.5896  0.1450 -0.5810
29009SOL    HW193885   3.712   1.342   6.691 -2.4462 -1.0755 -1.2702
29009SOL    HW293886   3.817   1.326   6.583  1.3533  2.8995  1.4770
29010SOL     OW93887   5.192   7.445   2.159 -0.0996 -0.8325 -0.1015
29010SOL    HW193888   5.178   7.361   2.115 -1.6912  0.3272 -1.9779
29010SOL    HW293889   5.229   7.502   2.091  0.1665  0.2200  0.8954
29011SOL     OW93890   4.986   6.946   7.015  0.3063  0.5079  0.3460
29011SOL    HW193891   5.045   6.905   7.078  0.6794  1.4730  0.6387
29011SOL    HW293892   5.018   7.035   7.007 -1.3520  1.1723  0.8181
29012SOL     OW93893   0.317   5.798   1.185  0.2578 -0.2823  0.1940
29012SOL    HW193894   0.280   5.883   1.206  0.5009 -0.4823  1.5580
29012SOL    HW293895   0.411   5.813   1.178  0.4063 -0.5716  1.3357
29013SOL     OW93896   2.656   7.799  12.421 -0.4168  0.3964 -0.0633
29013SOL    HW193897   2.596   7.871  12.440 -0.2670  0.6758 -0.6206
29013SOL    HW293898   2.730   7.841  12.377  0.1283  0.0354  0.4898
29014SOL     OW93899   2.245   8.431  12.450 -0.3637 -0.1789  0.3075
29014SOL    HW193900   2.199   8.365  12.501 -2.3432  0.0043 -1.0980
29014SOL    HW293901   2.299   8.382  12.389  0.4125 -0.4203  1.1710
29015SOL     OW93902  10.391   4.703   5.028  0.1495 -0.7400  0.4251
29015SOL    HW193903  10.432   4.789   5.035  2.2168 -1.6371 -0.1401
29015SOL    HW293904  10.299   4.723   5.006  0.6512  1.3063 -0.0733
29016SOL     OW93905   7.923   6.171   3.667 -0.1560 -0.2864 -0.4830
29016SOL    HW193906   7.923   6.119   3.587  0.4701  0.6406 -1.1066
29016SOL    HW293907   7.939   6.107   3.737 -1.0454 -1.1546 -1.0430
29017SOL     OW93908   0.020  10.167   9.055  0.2936 -0.9841  0.3993
29017SOL    HW193909   0.042  10.204   9.140  0.9239 -1.4659  0.4555
29017SOL    HW293910   0.044  10.235   8.992 -0.0022 -0.6976  0.5957
29018SOL     OW93911   6.715   3.559   1.312  0.6947  0.2411  0.9837
29018SOL    HW193912   6.810   3.568   1.315  0.8752 -1.2637  0.6967
29018SOL    HW293913   6.696   3.534   1.221 -0.0597  1.2614  0.8450
29019SOL     OW93914   6.877   5.486   7.743  0.2759  0.8563 -0.4087
29019SOL    HW193915   6.880   5.465   7.836  0.3865 -0.5066 -0.6958
29019SOL    HW293916   6.788   5.461   7.716  0.8220 -0.5408 -1.0283
29020SOL     OW93917   9.314   9.999   1.140  0.1177  0.2880  0.8573
29020SOL    HW193918   9.249   9.935   1.169  1.0431 -0.2569  1.7841
29020SOL    HW293919   9.322   9.984   1.046 -0.8016  0.0985  0.8015
29021SOL     OW93920   3.515   3.677   7.954 -0.4505 -0.0991  0.0111
29021SOL    HW193921   3.432   3.637   7.927 -0.0861 -0.6305 -0.3198
29021SOL    HW293922   3.577   3.654   7.885 -0.1964  0.9078 -0.1075
29022SOL     OW93923  12.548   5.822  11.846  0.2462 -0.6552 -0.3493
29022SOL    HW193924  12.552   5.811  11.941 -1.3362 -1.8218 -0.3664
29022SOL    HW293925  12.576   5.912  11.831 -0.6483 -0.0433  1.3419
29023SOL     OW93926   0.267   0.209  10.720  0.4374 -0.4398 -0.2107
29023SOL    HW193927   0.342   0.158  10.689 -1.4543 -2.3012 -2.0672
29023SOL    HW293928   0.194   0.148  10.717 -0.9371  0.8060  3.1651
29024SOL     OW93929   8.640  11.624   6.887 -0.0008  0.2808 -0.0702
29024SOL    HW193930   8.678  11.644   6.801  0.3991  0.2256  0.0911
29024SOL    HW293931   8.713  11.634   6.948  0.0830 -1.1100  0.0893
29025SOL     OW93932   8.983  12.106   0.582  0.1569  0.3972 -0.7670
29025SOL    HW193933   9.073  12.073   0.577 -0.5604 -1.7285 -0.5058
29025SOL    HW293934   8.942  12.076   0.502 -0.0411  2.4279 -1.4818
29026SOL     OW93935  12.216   4.026   4.447  0.0851 -0.4523 -0.1305
29026SOL    HW193936  12.179   4.097   4.499 -0.9252 -0.9991 -0.0691
29026SOL    HW293937  12.232   4.064   4.361  0.8220  0.1985  0.2890
29027SOL     OW93938   3.832   1.064   6.437  0.2897 -0.0886  0.4407
29027SOL    HW193939   3.865   1.123   6.506 -2.5855  0.0240  1.8689
29027SOL    HW293940   3.869   0.979   6.459  1.3487  0.4189  0.6801
29028SOL     OW93941   8.774   1.631   2.297  0.5982 -0.0608  0.0851
29028SOL    HW193942   8.780   1.547   2.343  1.3590  0.6561  1.3402
29028SOL    HW293943   8.773   1.607   2.204  0.1104 -1.4874  0.4341
29029SOL     OW93944   8.729   3.466   3.445 -0.0767 -0.1230  0.4115
29029SOL    HW193945   8.780   3.455   3.365  1.5216 -0.2665  1.4020
29029SOL    HW293946   8.769   3.542   3.488 -0.3032 -0.6070  1.4930
29030SOL     OW93947   1.525   0.351   2.154  0.3625  0.5699  0.2289
29030SOL    HW193948   1.432   0.341   2.174  0.2441  0.5116 -0.3441
29030SOL    HW293949   1.555   0.417   2.217 -0.0572  0.5729  0.4357
29031SOL     OW93950   1.035   0.023   1.975 -0.2387  0.0270 -0.1381
29031SOL    HW193951   0.959   0.020   2.033 -1.2482 -0.3360 -1.4534
29031SOL    HW293952   1.040   0.114   1.947 -0.6653 -0.1187 -0.6800
29032SOL     OW93953   7.511   6.706   7.742 -0.0203  0.8996 -0.2797
29032SOL    HW193954   7.485   6.731   7.831  0.5256 -2.1591  0.8475
29032SOL    HW293955   7.442   6.647   7.712  1.3401 -0.5580 -0.6297
29033SOL     OW93956   7.409   3.074   9.148  0.8443 -0.3771  0.0619
29033SOL    HW193957   7.394   2.982   9.126  1.7704  0.0234 -2.4590
29033SOL    HW293958   7.492   3.097   9.106  0.6944  1.5987  0.7161
29034SOL     OW93959   1.240   7.599   8.180 -0.2447 -0.1276  1.0306
29034SOL    HW193960   1.332   7.625   8.184  0.1527 -0.9879 -1.2809
29034SOL    HW293961   1.242   7.506   8.157 -1.6616  0.1408 -0.3325
29035SOL     OW93962   4.791  11.153   7.185  0.2979  0.0626 -0.0932
29035SOL    HW193963   4.766  11.081   7.127 -2.5631  0.0243  0.9825
29035SOL    HW293964   4.877  11.128   7.218 -0.5408 -2.9105  0.1895
29036SOL     OW93965   6.577   3.178   4.924  0.0244  0.1130 -0.1264
29036SOL    HW193966   6.553   3.112   4.989 -1.4074  0.1392 -0.5889
29036SOL    HW293967   6.513   3.248   4.937  1.0447  1.0762 -0.1662
29037SOL     OW93968  12.221   5.445  10.482  0.5827 -0.2350  0.6920
29037SOL    HW193969  12.158   5.375  10.502 -1.0250  1.0292  0.1965
29037SOL    HW293970  12.199   5.515  10.542  1.4858  0.2649  0.4551
29038SOL     OW93971  12.232   9.811   8.297 -0.2206 -0.2363 -0.0682
29038SOL    HW193972  12.312   9.796   8.348  0.2272 -0.9587 -0.9545
29038SOL    HW293973  12.191   9.726   8.290 -1.1410  0.1544  0.4679
29039SOL     OW93974   0.950  11.408   0.839  0.2652  0.6485  0.1257
29039SOL    HW193975   0.912  11.322   0.861  0.4638 -0.0010 -1.8488
29039SOL    HW293976   0.925  11.464   0.912 -0.8907 -0.7996  0.9125
29040SOL     OW93977   6.904   6.767   8.672  0.3476  0.0570  0.3559
29040SOL    HW193978   6.931   6.695   8.729 -0.1626 -0.7559 -0.3991
29040SOL    HW293979   6.819   6.795   8.706 -0.8995 -1.7157 -1.0790
29041SOL     OW93980   1.891   2.419   4.570 -0.3385 -0.1246 -0.1449
29041SOL    HW193981   1.983   2.445   4.566 -0.5848  0.7073 -0.4172
29041SOL    HW293982   1.882   2.382   4.658  0.0747  0.4859  0.1664
29042SOL     OW93983   1.506   7.919   9.672 -0.2071  0.2335  0.1255
29042SOL    HW193984   1.459   7.948   9.594  0.1056  0.7083  0.1034
29042SOL    HW293985   1.438   7.894   9.734 -0.4843  0.8189  0.0603
29043SOL     OW93986   3.765   5.283   6.330 -0.5099  0.0695 -0.1719
29043SOL    HW193987   3.813   5.355   6.290 -0.0323 -1.2674 -2.1245
29043SOL    HW293988   3.673   5.301   6.308 -0.3849  0.0529 -0.7248
29044SOL     OW93989  11.030  10.080  11.263 -0.0574 -0.0193  0.3057
29044SOL    HW193990  11.116  10.057  11.298 -0.0179  0.1720  0.3376
29044SOL    HW293991  11.015  10.170  11.293  0.2380  0.3623 -0.6552
29045SOL     OW93992   0.592  11.710  11.269  0.2053 -0.1258 -0.0611
29045SOL    HW193993   0.498  11.708  11.291  0.2884  1.1219  0.5242
29045SOL    HW293994   0.630  11.638  11.320 -0.3312 -0.2073  0.2362
29046SOL     OW93995   9.833   7.828  11.771  0.1888  0.2952  0.4690
29046SOL    HW193996   9.817   7.901  11.831  0.8973  0.0549  0.9600
29046SOL    HW293997   9.906   7.857  11.716 -0.8171  0.7428 -0.6763
29047SOL     OW93998   0.065   6.255   2.985  0.1694 -0.7697  0.5119
29047SOL    HW193999   0.018   6.336   2.969  2.3741  0.5581  0.3466
29047SOL    HW294000   0.068   6.247   3.080  0.3395 -0.4186  0.5356
29048SOL     OW94001  11.207   4.989   3.876 -0.0167 -0.0089 -0.2619
29048SOL    HW194002  11.127   4.949   3.841  0.2799 -0.6858 -0.1742
29048SOL    HW294003  11.266   4.995   3.801  0.4805 -1.1118  0.0228
29049SOL     OW94004   6.886   2.206   5.589 -0.4589 -0.3607  0.2841
29049SOL    HW194005   6.866   2.242   5.675 -1.0515  0.9248 -0.3537
29049SOL    HW294006   6.972   2.242   5.567 -1.0901  0.8292 -0.3907
29050SOL     OW94007   5.862   0.397   8.934 -0.4668 -0.2159 -0.4470
29050SOL    HW194008   5.771   0.414   8.958  0.0719  0.1359  1.5415
29050SOL    HW294009   5.899   0.484   8.918 -0.1051 -0.2000  0.3705
29051SOL     OW94010   1.504   8.309  11.870 -0.3128  0.4413 -0.2210
29051SOL    HW194011   1.482   8.332  11.780 -0.6605 -0.4266 -0.3660
29051SOL    HW294012   1.422   8.318  11.918 -1.4587 -3.9719 -0.9941
29052SOL     OW94013   1.431  11.846  11.244  0.5447 -0.2296 -0.4180
29052SOL    HW194014   1.522  11.869  11.261  0.1969  0.3696  0.7128
29052SOL    HW294015   1.435  11.764  11.194  1.8067  1.6467 -3.7271
29053SOL     OW94016   4.081   3.786  10.984 -0.1329  0.2266  0.2630
29053SOL    HW194017   4.064   3.880  10.995  1.1383  0.4012  1.0860
29053SOL    HW294018   4.002   3.743  11.017 -1.3353  0.9959 -1.4650
29054SOL     OW94019   5.775   2.431   4.190  0.0686  0.3635  0.4665
29054SOL    HW194020   5.812   2.518   4.180  0.6174  0.2131  1.1188
29054SOL    HW294021   5.849   2.371   4.180 -0.5132 -0.1154 -1.2781
29055SOL     OW94022  11.943  10.922   1.551 -0.0609 -0.1059  0.3268
29055SOL    HW194023  11.975  10.843   1.506 -0.2834 -0.0500  0.0675
29055SOL    HW294024  11.934  10.895   1.642 -1.6128 -0.8526 -0.0048
29056SOL     OW94025   3.794   6.877   6.465 -0.3455  0.6091  0.0194
29056SOL    HW194026   3.850   6.831   6.402 -1.5689 -0.0892 -0.5891
29056SOL    HW294027   3.844   6.954   6.490  0.8530  0.0490 -0.5716
29057SOL     OW94028   0.227   0.217  10.038  0.1713  0.1810  0.1941
29057SOL    HW194029   0.253   0.151  10.102  3.9625  0.7531 -0.5167
29057SOL    HW294030   0.229   0.300  10.086 -1.2844  0.1812  0.2953
29058SOL     OW94031  12.148   9.388  10.117  0.0660 -0.0511 -0.1805
29058SOL    HW194032  12.097   9.307  10.105 -1.7600  0.9515  0.4873
29058SOL    HW294033  12.145   9.405  10.211  1.3378  0.2618 -0.1744
29059SOL     OW94034   9.147   0.705   0.870 -0.1148  0.3811 -0.0373
29059SOL    HW194035   9.140   0.779   0.810 -0.8092  1.3691  1.2318
29059SOL    HW294036   9.098   0.731   0.947  1.0078 -0.7372  1.1114
29060SOL     OW94037   4.731   6.051  11.816  0.0283 -0.1158 -0.3519
29060SOL    HW194038   4.722   6.058  11.911  0.0657  0.7392 -0.4046
29060SOL    HW294039   4.730   6.141  11.785 -1.8520 -0.4108 -1.3315
29061SOL     OW94040   2.002  11.608   6.093 -0.0373  0.0279 -0.2963
29061SOL    HW194041   2.003  11.579   6.002 -0.2322  1.9301 -0.9472
29061SOL    HW294042   1.920  11.658   6.101  1.6825  3.0821 -0.2106
29062SOL     OW94043   7.202  11.431   0.854 -0.0505  0.2812  0.0896
29062SOL    HW194044   7.262  11.382   0.910 -0.8347 -0.2725  0.4724
29062SOL    HW294045   7.127  11.450   0.911 -0.2176  1.0095 -0.3618
29063SOL     OW94046  10.613  10.327   2.781 -0.5439  0.0948  1.6790
29063SOL    HW194047  10.684  10.380   2.745  0.8336 -2.5071  0.2649
29063SOL    HW294048  10.649  10.291   2.862 -0.4065 -0.7955  1.2371
29064SOL     OW94049   1.888   1.522   6.038 -0.4401 -0.4681  0.4242
29064SOL    HW194050   1.835   1.592   6.001  0.5293  0.4258  0.6741
29064SOL    HW294051   1.978   1.547   6.019 -0.1009 -2.3314 -0.6429
29065SOL     OW94052   8.175   5.031   4.890 -0.3472 -0.0944  0.4522
29065SOL    HW194053   8.113   5.068   4.954 -1.6590  1.2313 -1.4995
29065SOL    HW294054   8.184   5.098   4.823  1.5306 -1.1775 -0.4396
29066SOL     OW94055   6.383   3.741  10.159 -0.0736 -0.3607  0.6179
29066SOL    HW194056   6.451   3.759  10.224  1.0616 -1.6495 -0.1783
29066SOL    HW294057   6.327   3.676  10.200 -1.1607  1.0577  1.4672
29067SOL     OW94058   5.972  12.031   7.189 -0.0927  0.4864  0.2551
29067SOL    HW194059   6.025  12.110   7.201 -0.5763  1.3212 -2.3477
29067SOL    HW294060   6.033  11.966   7.154  0.1884 -0.1637  1.8827
29068SOL     OW94061   8.190   2.584   6.441  0.1991 -0.4522  0.4279
29068SOL    HW194062   8.222   2.546   6.359 -0.2437 -0.6539  0.3451
29068SOL    HW294063   8.265   2.577   6.501  1.1635  1.3994 -0.4797
29069SOL     OW94064   8.254   4.829   9.420 -0.4422  0.3663 -0.0166
29069SOL    HW194065   8.300   4.875   9.490  1.7854  1.8802 -2.2871
29069SOL    HW294066   8.163   4.858   9.426  0.3083  2.8008  0.4710
29070SOL     OW94067   2.658   0.900   0.207  0.1244  0.1106  0.5955
29070SOL    HW194068   2.690   0.972   0.260  1.4685  0.3780 -0.5083
29070SOL    HW294069   2.656   0.935   0.118  0.8317 -1.2193  0.0387
29071SOL     OW94070  12.270   1.509   1.090 -0.5046 -0.0753  0.1244
29071SOL    HW194071  12.281   1.584   1.149  0.6985 -0.5933  0.5872
29071SOL    HW294072  12.291   1.433   1.144 -1.1565 -0.7066 -0.5003
29072SOL     OW94073   3.641   1.265   3.714 -0.0732  0.7147  0.1814
29072SOL    HW194074   3.574   1.255   3.646 -0.7240 -2.6907  1.1679
29072SOL    HW294075   3.599   1.319   3.781 -1.5347 -0.5413  0.3358
29073SOL     OW94076   2.662   2.110   9.851  0.1765  0.0019 -0.1527
29073SOL    HW194077   2.652   2.016   9.862  2.6066 -0.3534 -0.3766
29073SOL    HW294078   2.577   2.147   9.876 -1.4232 -2.3234 -1.8062
29074SOL     OW94079   3.427   9.369   8.508 -0.0392 -0.5558  0.2233
29074SOL    HW194080   3.406   9.441   8.449  3.4087 -0.1838 -0.7566
29074SOL    HW294081   3.373   9.385   8.586 -0.8015  1.9610 -0.7432
29075SOL     OW94082   3.754   2.097   0.770 -0.3026  1.3298 -0.2103
29075SOL    HW194083   3.814   2.117   0.841  0.7762 -1.1150 -0.3159
29075SOL    HW294084   3.672   2.075   0.814  0.4807 -0.6148  0.4248
29076SOL     OW94085   9.015   6.974   9.097  0.4098 -0.4962  0.4878
29076SOL    HW194086   8.932   7.017   9.081  0.2110 -0.8939  0.4528
29076SOL    HW294087   9.077   7.017   9.037 -0.4158 -2.2960 -1.8033
29077SOL     OW94088   3.713  10.788   5.718 -0.3361  0.1590  0.5952
29077SOL    HW194089   3.678  10.843   5.648 -1.2007 -0.6893  0.3302
29077SOL    HW294090   3.786  10.742   5.678  0.5769  1.2945  0.8995
29078SOL     OW94091   8.053   6.571   5.413 -0.3225  0.4598 -0.0343
29078SOL    HW194092   8.141   6.554   5.447 -0.4095 -0.2376 -0.1366
29078SOL    HW294093   8.057   6.541   5.322 -0.1657  2.0546 -0.5912
29079SOL     OW94094   3.445  11.265   3.033 -0.5577 -0.6510 -0.1055
29079SOL    HW194095   3.474  11.211   2.960  0.3890  0.5074 -0.6322
29079SOL    HW294096   3.505  11.245   3.104 -1.0939 -1.3229  0.1658
29080SOL     OW94097   2.986   7.068   2.912  0.1954 -0.0314 -0.9334
29080SOL    HW194098   3.027   6.982   2.900  0.3874 -0.5326  2.3911
29080SOL    HW294099   2.902   7.060   2.867  0.6510 -1.6012 -1.5822
29081SOL     OW94100   1.231   3.416   5.672  0.1471  0.0976 -0.2765
29081SOL    HW194101   1.219   3.509   5.690 -1.1724 -0.3124  1.1242
29081SOL    HW294102   1.253   3.378   5.757  1.1796 -0.8164 -0.9267
29082SOL     OW94103   9.503   7.751   9.437 -0.1519 -0.4548  0.2985
29082SOL    HW194104   9.439   7.800   9.488 -2.3097 -1.6521 -1.1384
29082SOL    HW294105   9.581   7.749   9.492 -0.5109  3.0149  1.1700
29083SOL     OW94106   4.683   6.478  12.535 -0.0750  0.1564 -0.3280
29083SOL    HW194107   4.689   6.419  12.610 -0.6015  0.6808  0.1376
29083SOL    HW294108   4.598   6.458  12.496  0.0130  0.1795 -0.5286
29084SOL     OW94109   8.615   3.797   9.084 -0.6429 -0.4760 -0.2935
29084SOL    HW194110   8.699   3.842   9.091  0.0234 -1.9141  2.6661
29084SOL    HW294111   8.629   3.731   9.016  0.7852 -0.9769  0.4545
29085SOL     OW94112  10.674   4.669   7.571  0.0576  0.4966 -0.7883
29085SOL    HW194113  10.736   4.691   7.641  0.8757 -0.3807 -1.2130
29085SOL    HW294114  10.630   4.589   7.602 -2.2805  2.1067  0.3659
29086SOL     OW94115   7.335   2.753   5.487 -0.3113  0.3106  0.1007
29086SOL    HW194116   7.332   2.822   5.554 -0.6231  1.6617 -1.2556
29086SOL    HW294117   7.272   2.781   5.421 -0.2892 -1.1953 -0.5880
29087SOL     OW94118   2.031   3.380   1.289  0.3731 -0.1941  0.0479
29087SOL    HW194119   2.032   3.410   1.380 -0.0227 -0.6022  0.1907
29087SOL    HW294120   2.019   3.285   1.295  1.4351 -0.3620 -0.4040
29088SOL     OW94121   6.865  11.290   7.172 -0.2426  0.6626 -0.1317
29088SOL    HW194122   6.822  11.355   7.118 -0.0588  1.6686  0.8869
29088SOL    HW294123   6.958  11.299   7.152 -0.3539 -0.4605 -1.2181
29089SOL     OW94124   1.676   5.325   2.394 -0.0910 -0.2367  0.1429
29089SOL    HW194125   1.605   5.265   2.414 -0.8494  1.1627  1.9019
29089SOL    HW294126   1.633   5.408   2.373  0.9728  0.2960 -0.0531
29090SOL     OW94127  11.030  12.133   1.192  0.0165  0.1400 -0.4722
29090SOL    HW194128  11.098  12.100   1.133 -0.6691  0.9159 -1.7576
29090SOL    HW294129  11.058  12.107   1.279  2.4957  1.3124 -0.8478
29091SOL     OW94130   9.896  12.174   0.450 -0.1236  0.2601 -0.1570
29091SOL    HW194131   9.945  12.193   0.371 -2.0517  0.6561 -1.3163
29091SOL    HW294132   9.944  12.220   0.519  0.0121  2.3533 -1.5633
29092SOL     OW94133   8.128   1.541   5.604  0.0808  0.1190  0.6376
29092SOL    HW194134   8.119   1.607   5.536 -0.0379 -0.5030  0.0448
29092SOL    HW294135   8.078   1.466   5.572  2.1654 -1.1438  0.1801
29093SOL     OW94136   5.188   4.487   1.793  0.2059 -0.1484  0.0142
29093SOL    HW194137   5.193   4.553   1.862  0.0386  0.8215 -0.8725
29093SOL    HW294138   5.160   4.407   1.838 -2.0304  0.9738  0.7803
29094SOL     OW94139   7.691   0.797   6.587 -0.1813 -0.1344  0.4090
29094SOL    HW194140   7.707   0.703   6.579  0.1580 -0.0375 -0.1348
29094SOL    HW294141   7.689   0.813   6.681  0.5317 -0.5644  0.5094
29095SOL     OW94142   1.989  11.846   7.545 -0.1592 -0.7063  0.1503
29095SOL    HW194143   1.981  11.762   7.501  0.2638 -1.0363  0.6859
29095SOL    HW294144   1.925  11.902   7.501  0.0567 -1.0980 -0.6907
29096SOL     OW94145   9.329   8.034   5.196  0.0386 -0.2415 -0.0333
29096SOL    HW194146   9.350   7.964   5.134  1.4501 -0.5488  0.7338
29096SOL    HW294147   9.383   8.108   5.166 -0.0500 -0.0663  0.2421
29097SOL     OW94148   8.792   5.270  12.215 -0.1124  0.2883  0.0232
29097SOL    HW194149   8.712   5.246  12.169  0.3451 -0.8308 -0.2191
29097SOL    HW294150   8.863   5.240  12.158  0.5131  1.9524 -0.1335
29098SOL     OW94151   2.980   4.479   2.613  0.2329  0.1437 -0.3822
29098SOL    HW194152   2.928   4.496   2.534 -0.2811 -0.4823 -0.1891
29098SOL    HW294153   2.928   4.416   2.663  0.7632  0.1930  0.2463
29099SOL     OW94154  10.724   8.261   6.098 -0.3085  0.2358  0.6853
29099SOL    HW194155  10.640   8.255   6.053 -0.0024 -1.9761  0.3170
29099SOL    HW294156  10.703   8.245   6.190 -0.3556  0.2942  0.6850
29100SOL     OW94157   6.462   2.672   0.458  0.2501 -0.1262 -0.4452
29100SOL    HW194158   6.476   2.583   0.490 -0.6539  0.0939  0.6394
29100SOL    HW294159   6.386   2.665   0.400  0.4804 -0.1412 -0.7464
29101SOL     OW94160   5.280  11.450   8.042  0.1845 -0.8425 -0.2030
29101SOL    HW194161   5.226  11.388   8.091  0.6186 -2.3653 -1.5798
29101SOL    HW294162   5.233  11.462   7.959  1.2470 -1.1122 -0.8598
29102SOL     OW94163   6.949   4.631   7.592  0.8049  0.5770 -0.5695
29102SOL    HW194164   7.033   4.605   7.630 -0.2743 -1.1642  0.7741
29102SOL    HW294165   6.935   4.720   7.624  1.8135  0.6289 -0.2276
29103SOL     OW94166   0.720   2.904   3.938 -0.0820  0.3910 -0.6720
29103SOL    HW194167   0.636   2.920   3.895 -0.3504  0.4916 -0.1051
29103SOL    HW294168   0.709   2.935   4.027 -1.0142 -3.7695  0.8661
29104SOL     OW94169   5.722   5.394   5.846 -1.0610  0.0382  0.2958
29104SOL    HW194170   5.765   5.375   5.929 -1.4394 -0.0157  0.4807
29104SOL    HW294171   5.718   5.490   5.843  0.5657  0.1086 -0.4940
29105SOL     OW94172  12.052  10.256   1.082  0.3499 -0.1686 -0.3235
29105SOL    HW194173  12.041  10.306   1.001 -3.9404 -1.5747 -0.8572
29105SOL    HW294174  12.005  10.308   1.148  3.2614  0.6504  1.2623
29106SOL     OW94175   7.516  11.978   9.131 -0.0161 -0.0840 -0.8942
29106SOL    HW194176   7.545  11.893   9.097  0.5649 -1.0432  1.7658
29106SOL    HW294177   7.422  11.980   9.111  0.2068 -0.7334 -2.1362
29107SOL     OW94178   1.265   4.705   2.336 -0.3522 -0.0542  0.3800
29107SOL    HW194179   1.284   4.639   2.269 -0.2961 -0.5807  0.9053
29107SOL    HW294180   1.206   4.767   2.292  1.6685  1.0268 -0.9268
29108SOL     OW94181   9.080   0.985   7.994  0.0336 -0.0685 -0.3430
29108SOL    HW194182   9.163   1.031   8.006 -0.8282  1.2285  0.8742
29108SOL    HW294183   9.070   0.932   8.074 -1.5880  1.9220  0.8631
29109SOL     OW94184   2.056   5.811   6.238 -0.1873  0.1259 -0.0200
29109SOL    HW194185   1.994   5.864   6.188 -2.9328 -3.7789 -1.2158
29109SOL    HW294186   2.005   5.773   6.309  1.1325 -2.1160 -0.1575
29110SOL     OW94187   2.354  11.574  10.821  1.0013  0.1577  0.5147
29110SOL    HW194188   2.267  11.535  10.832  1.4318 -0.5162  1.8956
29110SOL    HW294189   2.347  11.660  10.862  0.5467  0.8280 -0.9083
29111SOL     OW94190   2.479   0.382   8.923 -0.0525 -0.6977 -0.0471
29111SOL    HW194191   2.516   0.350   8.841  1.3555  0.0015  0.2893
29111SOL    HW294192   2.551   0.378   8.986 -0.0937  1.9750  0.2939
29112SOL     OW94193   8.290   4.659   4.818 -0.1863  0.2143 -0.0213
29112SOL    HW194194   8.240   4.668   4.737  0.1104 -2.4186 -0.6075
29112SOL    HW294195   8.376   4.696   4.798  0.1449 -1.1136 -1.2268
29113SOL     OW94196  12.160   7.522   2.387  0.3636 -0.1250  0.0292
29113SOL    HW194197  12.210   7.514   2.306  0.2464 -1.5360  0.0656
29113SOL    HW294198  12.153   7.432   2.419 -0.7976  0.2451  0.8731
29114SOL     OW94199   5.917   6.268   1.955  0.1800  0.0427 -0.2679
29114SOL    HW194200   5.989   6.222   1.998  0.2971 -0.4942 -1.0159
29114SOL    HW294201   5.845   6.205   1.954  0.2272 -0.0066 -0.9823
29115SOL     OW94202   7.512   8.037  11.289 -0.3504 -0.5018 -0.2967
29115SOL    HW194203   7.606   8.032  11.303 -0.0225  2.1557 -1.0400
29115SOL    HW294204   7.488   7.950  11.255  1.5706 -1.6311  1.0481
29116SOL     OW94205   5.929   8.674   0.877  0.5188 -0.2799  0.0244
29116SOL    HW194206   5.999   8.626   0.832  1.9140  2.1390 -0.5963
29116SOL    HW294207   5.974   8.744   0.924 -1.2778 -0.3883  2.0937
29117SOL     OW94208   1.996   1.302  10.220 -0.7403 -0.0612 -0.3137
29117SOL    HW194209   1.968   1.220  10.179 -0.1460  0.5579 -2.0504
29117SOL    HW294210   2.068   1.333  10.165 -0.2238  1.0843  0.9483
29118SOL     OW94211   7.511   9.766   7.973  0.0568  0.0977  0.1539
29118SOL    HW194212   7.427   9.798   7.940 -0.5404  1.2077  2.5928
29118SOL    HW294213   7.567   9.843   7.976  0.8973 -0.4675 -0.5905
29119SOL     OW94214   7.434   8.369  12.280  0.0827  0.5447  0.4711
29119SOL    HW194215   7.351   8.341  12.242  1.9148 -2.2685 -1.8158
29119SOL    HW294216   7.458   8.448  12.231 -0.0094 -0.1698 -0.7626
29120SOL     OW94217   6.866   6.804   4.876  0.1196 -0.0446  0.7541
29120SOL    HW194218   6.863   6.837   4.966 -1.7898  1.9417  0.0589
29120SOL    HW294219   6.810   6.726   4.878  2.3151 -1.7248  1.7872
29121SOL     OW94220   7.159  11.268   3.653 -0.2638 -0.1854  0.2912
29121SOL    HW194221   7.232  11.236   3.706  0.1925  0.4273  0.0409
29121SOL    HW294222   7.197  11.336   3.598 -0.9454 -0.1264 -0.1183
29122SOL     OW94223   6.309   7.025   4.590  0.2245 -0.0965  0.0304
29122SOL    HW194224   6.225   7.072   4.600 -0.2460 -0.2357 -2.5142
29122SOL    HW294225   6.344   7.019   4.679 -2.1199  0.6084  1.0839
29123SOL     OW94226  12.075  11.289  11.887  0.5226 -0.3420 -0.3688
29123SOL    HW194227  12.015  11.362  11.868 -1.2509 -1.9315 -1.1697
29123SOL    HW294228  12.115  11.269  11.802 -0.6966 -1.7005 -0.6644
29124SOL     OW94229   7.473  10.896  10.965 -0.1688  0.2980 -0.0535
29124SOL    HW194230   7.566  10.912  10.951 -0.3485  0.6436 -0.8919
29124SOL    HW294231   7.429  10.954  10.904 -0.8617 -2.3047 -2.2018
29125SOL     OW94232   7.345   3.702   2.844  0.5316 -0.0140  0.1435
29125SOL    HW194233   7.292   3.747   2.911  1.2109  1.7379 -0.4423
29125SOL    HW294234   7.436   3.720   2.870  0.8119 -0.5680 -0.4434
29126SOL     OW94235   6.867   2.970   4.132 -0.6622  0.8355 -0.5678
29126SOL    HW194236   6.940   2.939   4.186 -0.0948  1.4364 -0.9790
29126SOL    HW294237   6.798   2.989   4.195 -0.1034  1.2585 -0.0742
29127SOL     OW94238  12.338   6.878  10.851 -0.0497 -0.1119  0.2899
29127SOL    HW194239  12.414   6.856  10.796 -0.3184 -0.4753  0.0562
29127SOL    HW294240  12.356   6.834  10.934 -0.5492 -1.1906 -0.1498
29128SOL     OW94241   9.739   3.609   7.122 -0.6190 -0.2891 -0.3402
29128SOL    HW194242   9.828   3.645   7.119 -0.2031 -1.2738 -0.1270
29128SOL    HW294243   9.683   3.685   7.138  0.3690  0.0820  1.7471
29129SOL     OW94244   1.632   1.285  10.720 -0.1544  0.6116  0.1358
29129SOL    HW194245   1.656   1.255  10.633 -0.2695  0.6674  0.0845
29129SOL    HW294246   1.714   1.281  10.770  0.1459  1.5273 -0.2442
29130SOL     OW94247   9.434  10.196  10.254 -0.1952 -0.6701  0.4374
29130SOL    HW194248   9.426  10.191  10.159 -1.7114  1.2315  0.3810
29130SOL    HW294249   9.464  10.285  10.271 -0.1568 -0.9055  1.7377
29131SOL     OW94250  12.034   2.282   8.984  0.0814 -0.1717 -0.2485
29131SOL    HW194251  11.944   2.299   8.956  0.6017  1.6828 -0.9476
29131SOL    HW294252  12.078   2.367   8.975  1.4907 -0.6284  1.6963
29132SOL     OW94253   0.242   9.788   1.244 -0.2627  0.2136 -0.5984
29132SOL    HW194254   0.321   9.827   1.207 -0.6083  0.1681 -1.4023
29132SOL    HW294255   0.249   9.695   1.222  0.5083 -0.2160  1.2191
29133SOL     OW94256  11.945   9.155   8.007  0.5450 -0.1174 -0.0149
29133SOL    HW194257  11.922   9.246   7.986 -1.0490 -0.8829 -1.8026
29133SOL    HW294258  11.892   9.134   8.084  0.4048  0.2330 -0.0133
29134SOL     OW94259   1.819   2.880  11.768 -0.3535 -0.3755  0.5697
29134SOL    HW194260   1.899   2.844  11.806 -0.8275 -0.5198  1.4461
29134SOL    HW294261   1.775   2.924  11.840 -1.1116 -0.3695  0.1173
29135SOL     OW94262  11.159   0.141   2.367  0.4202 -0.0472 -0.3923
29135SOL    HW194263  11.226   0.190   2.414 -1.6965  0.9339  1.8228
29135SOL    HW294264  11.179   0.049   2.386  0.5204  0.2706  1.1780
29136SOL     OW94265  11.006   7.947   8.160 -0.4449  0.3573 -0.0673
29136SOL    HW194266  11.059   7.909   8.090  0.6605  1.0236  0.3991
29136SOL    HW294267  11.068   7.995   8.215 -1.3219  0.0248  1.2627
29137SOL     OW94268   3.592   1.304   5.386 -0.2659  0.0817  0.0289
29137SOL    HW194269   3.641   1.222   5.378 -0.2833  0.1300 -0.6688
29137SOL    HW294270   3.644   1.358   5.445 -0.8883 -0.8894  1.5452
29138SOL     OW94271   0.502   0.464  11.533  0.2739 -0.2106  0.2800
29138SOL    HW194272   0.555   0.524  11.585 -0.2220  0.6294 -0.1579
29138SOL    HW294273   0.422   0.453  11.584 -0.1023  0.4048 -0.1642
29139SOL     OW94274   8.800   1.808   3.295  0.6063 -0.4063  0.0247
29139SOL    HW194275   8.747   1.771   3.365  1.9396 -1.1845  0.6523
29139SOL    HW294276   8.746   1.801   3.216  0.0654 -1.8368  0.5140
29140SOL     OW94277   7.744   2.584   9.318  0.1677  0.1182  0.1910
29140SOL    HW194278   7.829   2.581   9.274 -1.1177  0.2834 -2.4796
29140SOL    HW294279   7.721   2.677   9.320  0.2809  0.1377  1.4625
29141SOL     OW94280  11.253   3.367  10.323 -0.5203 -1.1628 -0.1476
29141SOL    HW194281  11.310   3.301  10.362  1.3348  0.3688 -0.1225
29141SOL    HW294282  11.233   3.427  10.394  0.2705 -0.0979 -0.7888
29142SOL     OW94283  12.006  11.054   4.006 -0.4094  0.2150  0.1598
29142SOL    HW194284  11.970  11.073   4.093 -2.1432  1.4753 -0.7794
29142SOL    HW294285  12.073  11.120   3.993 -0.6168  0.4466  0.2695
29143SOL     OW94286   6.080   5.431   8.594  0.1058  0.4084  0.7963
29143SOL    HW194287   6.013   5.403   8.657 -0.9681 -1.2515 -0.9552
29143SOL    HW294288   6.155   5.376   8.614 -0.0986  0.1475  0.8591
29144SOL     OW94289   8.958   9.055   8.155  0.9075  0.1887 -0.2066
29144SOL    HW194290   8.994   9.046   8.067  2.8682  2.0520  0.3150
29144SOL    HW294291   8.863   9.060   8.142  1.1967  1.4099 -2.3372
29145SOL     OW94292   8.987   7.035  10.679 -1.0154 -0.3982  0.1156
29145SOL    HW194293   8.922   7.049  10.610 -0.0884  0.1215 -0.6825
29145SOL    HW294294   8.944   7.066  10.759 -2.1289 -1.0566 -0.1928
29146SOL     OW94295   5.780  11.275   7.509  0.2435  0.9027 -0.2243
29146SOL    HW194296   5.812  11.243   7.425  1.4068 -0.9633  0.8675
29146SOL    HW294297   5.856  11.317   7.550  0.0114  0.7442  0.3808
29147SOL     OW94298   1.868   2.246   7.928  0.5325  0.1968  0.2841
29147SOL    HW194299   1.955   2.216   7.952  1.5684  0.4869 -2.6753
29147SOL    HW294300   1.824   2.168   7.894  0.0971  0.3153  0.5625
29148SOL     OW94301   7.382  12.071   5.226  0.3337  0.4365  0.3484
29148SOL    HW194302   7.322  12.020   5.171  1.9637 -1.5098  0.2552
29148SOL    HW294303   7.384  12.157   5.185  0.5877 -0.5996 -1.9976
29149SOL     OW94304   5.215  11.834   3.814 -0.0013  0.1366  0.1826
29149SOL    HW194305   5.137  11.873   3.853  0.7737  1.9198  0.0429
29149SOL    HW294306   5.284  11.846   3.881  0.6503  0.5260 -0.5474
29150SOL     OW94307   8.396   9.339   6.371  1.3436 -0.0372  0.2128
29150SOL    HW194308   8.361   9.365   6.456 -1.4013 -1.1905 -0.4414
29150SOL    HW294309   8.424   9.249   6.383 -1.5233 -1.1653 -0.5883
29151SOL     OW94310   6.572   3.674  11.907 -0.5850 -0.3626  0.0660
29151SOL    HW194311   6.596   3.726  11.830 -0.1611  1.2573  1.2464
29151SOL    HW294312   6.654   3.658  11.952 -1.0330  0.2888  1.1380
29152SOL     OW94313  11.131   3.249  11.176 -0.3535  0.5317 -0.5730
29152SOL    HW194314  11.110   3.312  11.245 -1.7483 -0.4965  0.0009
29152SOL    HW294315  11.137   3.302  11.096 -2.2494  1.3333 -0.2372
29153SOL     OW94316   3.765  11.075   9.028 -0.9344 -0.1777 -0.1240
29153SOL    HW194317   3.778  11.075   8.933  0.6606 -0.0786  0.0701
29153SOL    HW294318   3.755  11.167   9.051  0.8270  0.0020  0.0404
29154SOL     OW94319   4.717   5.040  10.651  0.3026 -0.0680 -0.5820
29154SOL    HW194320   4.692   5.064  10.562 -0.4199 -0.6619 -0.5508
29154SOL    HW294321   4.727   4.945  10.648  4.6942  0.2113 -1.1014
29155SOL     OW94322   6.560  10.338   6.817  0.1564  0.3309  0.6378
29155SOL    HW194323   6.623  10.408   6.831  0.9931 -0.0529 -0.8741
29155SOL    HW294324   6.477  10.373   6.847  0.3207  2.4641 -1.1255
29156SOL     OW94325   5.528   7.465  10.070  0.7711  0.2853  0.3017
29156SOL    HW194326   5.432   7.463  10.077  0.7212 -1.0307 -0.2707
29156SOL    HW294327   5.558   7.479  10.159  0.0443 -0.1487  0.6290
29157SOL     OW94328   9.706   3.467   1.490  0.2888  0.5073  0.4531
29157SOL    HW194329   9.660   3.529   1.434  0.4557  1.1543  1.0180
29157SOL    HW294330   9.733   3.396   1.431 -2.3949 -0.4839  0.2794
29158SOL     OW94331   4.471   2.279   7.212  0.3897  0.2356  0.2147
29158SOL    HW194332   4.475   2.373   7.193  0.0540  0.2648  0.2849
29158SOL    HW294333   4.380   2.263   7.235  0.0085 -0.4835 -1.6587
29159SOL     OW94334  10.314   8.959   4.903 -0.1405  0.4230 -0.0689
29159SOL    HW194335  10.235   8.942   4.852 -1.5962 -0.0270  2.1686
29159SOL    HW294336  10.351   9.039   4.866 -1.5676  0.5716 -1.2544
29160SOL     OW94337   0.596   7.553   1.697 -0.7751  0.0880  0.0096
29160SOL    HW194338   0.532   7.484   1.680 -1.3604  0.5491  0.2559
29160SOL    HW294339   0.565   7.627   1.645 -0.8079  0.5174  0.6264
29161SOL     OW94340  12.094   6.379   3.160 -0.5255 -0.2818 -1.1637
29161SOL    HW194341  12.033   6.319   3.117 -1.3411 -1.3142  1.2829
29161SOL    HW294342  12.038   6.442   3.205  0.1652 -0.8035  0.5142
29162SOL     OW94343   1.369   0.540   5.098 -0.4452 -0.7428 -0.2920
29162SOL    HW194344   1.297   0.597   5.071 -1.1704 -1.1317  0.7461
29162SOL    HW294345   1.341   0.452   5.071 -1.9882 -1.4322  2.9409
29163SOL     OW94346  12.370   5.089   0.516 -0.9164  0.4208  0.0928
29163SOL    HW194347  12.348   5.001   0.546 -1.1538  0.1614 -0.8353
29163SOL    HW294348  12.297   5.115   0.461 -0.4046  0.8297 -0.3997
29164SOL     OW94349   7.660   1.975   7.534  0.1901 -0.4858 -0.3682
29164SOL    HW194350   7.630   1.948   7.447  0.4480 -1.8981 -0.0445
29164SOL    HW294351   7.753   1.995   7.522 -0.3275  1.9309 -0.9411
29165SOL     OW94352  10.856   9.254   2.949 -0.4991  0.7055  0.4228
29165SOL    HW194353  10.779   9.305   2.974  0.1273  0.6278  2.7361
29165SOL    HW294354  10.929   9.313   2.962 -0.0544  0.3725 -0.5008
29166SOL     OW94355   9.552   6.756   2.683  0.1685 -0.0264 -0.0736
29166SOL    HW194356   9.543   6.758   2.588 -0.7080 -1.6287 -0.0588
29166SOL    HW294357   9.468   6.787   2.716  0.4751  0.5421  0.2070
29167SOL     OW94358   3.427   2.912  10.699 -0.5006  0.1099 -0.5922
29167SOL    HW194359   3.505   2.957  10.665  0.6967 -0.9516  0.6298
29167SOL    HW294360   3.414   2.838  10.639 -0.5373  0.2549 -0.7638
29168SOL     OW94361   0.021   5.503   9.836  0.3415  0.9785  0.3700
29168SOL    HW194362   0.081   5.429   9.827 -0.9187 -0.0439  0.1172
29168SOL    HW294363  -0.029   5.503   9.754  0.9087  2.6796 -0.0243
29169SOL     OW94364   5.351   7.792   4.957  0.5783 -0.3742 -0.2376
29169SOL    HW194365   5.327   7.850   5.029  0.3148 -1.6117  0.7133
29169SOL    HW294366   5.446   7.779   4.968  0.3259 -1.6367  0.7635
29170SOL     OW94367   4.687   2.157   6.924  0.1182 -0.2076  0.1101
29170SOL    HW194368   4.612   2.183   6.870 -0.6579  1.0096  1.6732
29170SOL    HW294369   4.742   2.234   6.927  0.2649 -0.3336  0.8425
29171SOL     OW94370   2.543   1.067   8.173  0.6600  0.3381 -0.3117
29171SOL    HW194371   2.527   0.994   8.114  0.9594 -0.9524  1.1358
29171SOL    HW294372   2.456   1.105   8.188  0.4169 -0.0738 -0.6466
29172SOL     OW94373   0.412   5.137   7.291 -0.0316  0.1135  0.1655
29172SOL    HW194374   0.429   5.214   7.238 -1.1698  0.3687  0.1556
29172SOL    HW294375   0.464   5.151   7.371  1.0786  0.0838 -0.5339
29173SOL     OW94376   3.477   1.557  12.085 -0.4136  0.3744  0.6235
29173SOL    HW194377   3.562   1.527  12.053 -0.9708 -0.0711 -0.4948
29173SOL    HW294378   3.439   1.481  12.128 -0.6841  0.2625  0.1919
29174SOL     OW94379   6.237   3.909   3.545 -0.1551 -0.2901  0.1049
29174SOL    HW194380   6.252   3.834   3.602  1.7376 -0.1227 -0.1073
29174SOL    HW294381   6.215   3.981   3.605 -1.7815 -0.9181  0.3204
29175SOL     OW94382   6.788   5.719  10.136  0.1424 -0.4435  0.4128
29175SOL    HW194383   6.754   5.807  10.154  3.2347  0.5457  2.0525
29175SOL    HW294384   6.766   5.669  10.215  0.0827 -0.5880  0.3040
29176SOL     OW94385   3.371   8.270   3.612  0.0818  0.3265 -0.8623
29176SOL    HW194386   3.373   8.227   3.527  0.1040 -0.3588 -0.5286
29176SOL    HW294387   3.436   8.339   3.606  0.4636 -0.0595 -1.2289
29177SOL     OW94388   5.985  10.557   0.028  0.0596  0.0052  0.0203
29177SOL    HW194389   5.964  10.477   0.076 -1.6417  0.4407  0.0675
29177SOL    HW294390   6.072  10.582   0.060 -0.8681  0.1245  2.7144
29178SOL     OW94391  11.974   7.416   5.344  0.0485  0.3072  0.0209
29178SOL    HW194392  11.922   7.336   5.354 -2.2375  1.5718 -0.9175
29178SOL    HW294393  12.033   7.397   5.271 -1.0612 -0.2811 -0.7581
29179SOL     OW94394   8.375   6.812  12.157 -0.1084 -0.0375  0.3698
29179SOL    HW194395   8.342   6.894  12.122  0.1956 -0.3161 -0.6053
29179SOL    HW294396   8.302   6.775  12.207 -0.9110 -0.1296 -0.8406
29180SOL     OW94397  11.921   4.638   0.207 -0.1072  0.1842  0.6053
29180SOL    HW194398  11.951   4.609   0.121  0.0605  1.8341  0.0827
29180SOL    HW294399  11.980   4.594   0.268 -1.2812 -2.3785  0.0553
29181SOL     OW94400   2.559   8.504  10.129 -0.0980 -0.0004  0.6376
29181SOL    HW194401   2.496   8.560  10.084 -0.2565 -0.6302  0.0436
29181SOL    HW294402   2.578   8.549  10.211  0.9675  1.6972 -0.4763
29182SOL     OW94403   8.577   9.886   8.304  0.2775  0.2612  0.1570
29182SOL    HW194404   8.595   9.929   8.388  3.2218 -0.0773 -0.2095
29182SOL    HW294405   8.526   9.808   8.327  1.8348 -0.3378  1.7958
29183SOL     OW94406  12.171   7.489   1.069 -0.0379 -0.7349 -0.1198
29183SOL    HW194407  12.169   7.454   0.980 -2.0113  0.0392 -0.4326
29183SOL    HW294408  12.079   7.496   1.095  0.4783 -2.4501  2.6279
29184SOL     OW94409  11.472   8.171  12.125 -0.1995  0.4272 -0.0250
29184SOL    HW194410  11.550   8.125  12.093 -1.2538 -0.4848 -1.3627
29184SOL    HW294411  11.507   8.240  12.181  1.6566  0.8010 -1.5292
29185SOL     OW94412   7.675   7.185   2.026 -0.0060  0.7201  0.1537
29185SOL    HW194413   7.592   7.231   2.014  0.1250  0.9536  0.1218
29185SOL    HW294414   7.739   7.255   2.039  0.4243  0.6126 -1.2456
29186SOL     OW94415   7.612   3.998  11.143 -0.5036  0.2853 -0.0640
29186SOL    HW194416   7.539   4.051  11.110 -0.1964  0.7823  0.0418
29186SOL    HW294417   7.623   3.930  11.077 -0.4610  0.7627 -0.5580
29187SOL     OW94418   5.477   8.454   3.457 -0.0180  0.7676  0.5101
29187SOL    HW194419   5.546   8.495   3.508 -0.6299  0.6125  1.4846
29187SOL    HW294420   5.478   8.501   3.374  0.9900  1.0266  0.6543
29188SOL     OW94421  11.008   1.542   1.100  0.5629  0.3051  0.1893
29188SOL    HW194422  11.016   1.517   1.008 -0.2001 -0.9511  0.4404
29188SOL    HW294423  10.967   1.466   1.142 -2.2048  2.0811  0.9631
29189SOL     OW94424   9.926  11.292   2.475 -0.2040 -0.4774  0.1204
29189SOL    HW194425   9.875  11.287   2.556 -0.2693  0.6001  0.1544
29189SOL    HW294426   9.934  11.385   2.457 -0.8390 -0.7080 -1.5342
29190SOL     OW94427   5.687   2.721   8.495  0.0055 -0.3884  0.0793
29190SOL    HW194428   5.755   2.771   8.450  0.6365 -0.9761  0.3596
29190SOL    HW294429   5.720   2.631   8.496 -1.0407 -0.7830 -0.2799
29191SOL     OW94430   1.057   6.706   3.417  0.5762 -0.8553  0.0669
29191SOL    HW194431   0.969   6.712   3.379 -0.1125 -1.0918  1.5590
29191SOL    HW294432   1.116   6.721   3.343 -0.7195  0.2218 -0.7907
29192SOL     OW94433   6.862   5.300  10.343 -0.1456 -0.4570 -0.0494
29192SOL    HW194434   6.824   5.380  10.381  0.7924  0.3840 -0.8135
29192SOL    HW294435   6.932   5.276  10.404 -2.4008 -2.5874  1.9071
29193SOL     OW94436   0.688   7.423   0.738  0.4044  0.3322 -0.2338
29193SOL    HW194437   0.762   7.433   0.799  0.6848 -0.7080 -0.3915
29193SOL    HW294438   0.623   7.487   0.769  0.8753  0.4028  0.6466
29194SOL     OW94439  11.529   1.038   0.225 -0.4387 -0.2135  0.0275
29194SOL    HW194440  11.531   0.947   0.255 -1.6951 -0.1700  0.2798
29194SOL    HW294441  11.461   1.079   0.278 -0.4336  0.6786 -0.6394
29195SOL     OW94442   9.847   2.477   7.350  0.1045  0.4452  0.4507
29195SOL    HW194443   9.931   2.470   7.396 -0.7054  0.2106  1.9702
29195SOL    HW294444   9.832   2.571   7.342  0.9636  0.5029 -0.7427
29196SOL     OW94445  11.069   5.473  10.889  0.2231  0.0625  0.4581
29196SOL    HW194446  11.009   5.491  10.817 -1.2449 -1.7217  1.1549
29196SOL    HW294447  11.156   5.476  10.849 -0.4283  0.8971 -0.9732
29197SOL     OW94448   9.920   9.827   7.943 -0.2473  0.1006  0.0905
29197SOL    HW194449   9.936   9.902   7.885  0.4629  0.0064  0.1535
29197SOL    HW294450   9.958   9.853   8.027  1.7007 -1.0167 -0.3643
29198SOL     OW94451  11.973   0.380   4.184  0.1207 -0.5226  0.0292
29198SOL    HW194452  11.933   0.338   4.108 -1.4325 -1.3662  1.2402
29198SOL    HW294453  12.067   0.365   4.173 -0.0278 -0.3667 -1.8350
29199SOL     OW94454   1.638   5.272   2.751 -0.1880 -0.6483 -0.2179
29199SOL    HW194455   1.684   5.287   2.833  1.0496  0.4317 -1.0678
29199SOL    HW294456   1.586   5.351   2.737  1.4279  0.2435 -1.5824
29200SOL     OW94457   6.983   6.315   8.775  0.2415 -0.1520  0.4760
29200SOL    HW194458   6.970   6.279   8.687  0.1074  0.6782  0.1528
29200SOL    HW294459   6.927   6.392   8.779  0.8112  0.2478  1.0354
29201SOL     OW94460   4.899   6.659   0.805 -0.1077 -0.6105  0.0453
29201SOL    HW194461   4.903   6.564   0.808  0.4178 -0.5848  0.5087
29201SOL    HW294462   4.942   6.687   0.886  1.0643  0.0411 -0.7647
29202SOL     OW94463   2.261   6.547   7.663 -0.9809 -0.1495 -0.3171
29202SOL    HW194464   2.251   6.599   7.584 -0.4625  0.0952 -0.2265
29202SOL    HW294465   2.229   6.603   7.734  0.2508  0.3531 -0.1226
29203SOL     OW94466   3.836   1.179   3.907 -0.2508 -0.1404 -0.3987
29203SOL    HW194467   3.770   1.169   3.976 -0.3746 -0.2437 -0.5317
29203SOL    HW294468   3.789   1.221   3.835  0.5601  2.7807  0.6259
29204SOL     OW94469  10.410   8.679   0.917  0.2416 -0.0922 -0.1246
29204SOL    HW194470  10.374   8.670   0.829  5.3025 -0.4734 -2.4868
29204SOL    HW294471  10.422   8.589   0.948  2.3058 -0.1720 -0.9899
29205SOL     OW94472   7.523   2.103   6.959  0.0924 -0.0176 -0.0775
29205SOL    HW194473   7.438   2.145   6.945  0.0105 -0.5564 -1.4051
29205SOL    HW294474   7.534   2.046   6.882  2.7147  1.8603 -1.2499
29206SOL     OW94475   5.924   4.639   6.813  0.7048 -0.0534 -0.2849
29206SOL    HW194476   5.830   4.620   6.818  0.7442  0.1462  2.3410
29206SOL    HW294477   5.931   4.710   6.749 -1.0703  0.7092  0.3221
29207SOL     OW94478   1.050   2.650   4.312  0.0723  0.0330  0.4017
29207SOL    HW194479   1.106   2.672   4.237 -0.4460 -1.5317 -0.4803
29207SOL    HW294480   1.096   2.579   4.357 -0.6264 -0.4774  0.3355
29208SOL     OW94481   1.468   9.420   5.581 -0.4180 -0.3752 -0.4369
29208SOL    HW194482   1.424   9.399   5.663  0.0635 -0.4586 -0.1972
29208SOL    HW294483   1.430   9.360   5.517  0.9132 -1.9806  0.2238
29209SOL     OW94484   5.109   6.183   6.632 -0.3261 -0.9472 -0.1622
29209SOL    HW194485   5.171   6.110   6.634 -0.7049 -1.2578  0.8721
29209SOL    HW294486   5.024   6.141   6.621 -0.4237 -0.5679 -0.8817
29210SOL     OW94487   6.090   0.907   0.183  0.3723 -0.0467  0.5022
29210SOL    HW194488   6.010   0.905   0.236  1.1231 -0.3604  1.6503
29210SOL    HW294489   6.157   0.942   0.241  1.7345 -2.4129  0.5189
29211SOL     OW94490   0.550   8.867  11.090  1.1816  0.0041  0.2033
29211SOL    HW194491   0.527   8.779  11.061  0.3856  0.7142 -1.4270
29211SOL    HW294492   0.572   8.914  11.010 -1.2187  2.0829  0.6136
29212SOL     OW94493   3.785   5.625   6.553  0.4279  0.0283 -0.4448
29212SOL    HW194494   3.770   5.657   6.464 -0.6598 -3.1491 -1.5426
29212SOL    HW294495   3.700   5.637   6.597  0.9222  1.4582  0.1931
29213SOL     OW94496   4.340   5.280   7.335 -0.0487 -0.9204 -0.2565
29213SOL    HW194497   4.302   5.262   7.248 -1.0128 -0.7043  0.1099
29213SOL    HW294498   4.387   5.199   7.357 -2.0872 -2.0581  0.1943
29214SOL     OW94499   8.468   7.677   3.830 -0.1335 -0.2376  0.4999
29214SOL    HW194500   8.411   7.645   3.900 -1.3210  0.2754 -0.1836
29214SOL    HW294501   8.421   7.753   3.794 -0.0577 -1.0388 -1.4519
29215SOL     OW94502   2.541   0.085  12.548 -0.0417  0.1645  0.1025
29215SOL    HW194503   2.483   0.063  12.474  0.2148 -0.0581 -0.0354
29215SOL    HW294504   2.483   0.084  12.624 -0.2087 -0.1457 -0.0215
29216SOL     OW94505   8.060   7.652   2.020  0.0420  0.0706  0.3489
29216SOL    HW194506   8.029   7.682   2.105 -1.0899 -0.8893  0.3148
29216SOL    HW294507   8.143   7.608   2.038  1.1744  2.1686  0.5415
29217SOL     OW94508   4.759  11.757  11.946 -0.4522 -0.2972 -0.2040
29217SOL    HW194509   4.677  11.709  11.956 -2.1404  2.4149 -0.1573
29217SOL    HW294510   4.757  11.788  11.855  0.2493  0.2910 -0.0248
29218SOL     OW94511  11.149   6.904   9.655 -0.3353 -0.8075  0.3476
29218SOL    HW194512  11.087   6.917   9.727 -0.1397  0.9405  0.2419
29218SOL    HW294513  11.109   6.948   9.580 -0.3166 -2.2109 -0.5258
29219SOL     OW94514   6.051   6.184   1.548  0.1696 -0.2914  0.3096
29219SOL    HW194515   5.984   6.129   1.509  0.1438 -0.2532  0.3009
29219SOL    HW294516   6.118   6.123   1.579 -0.4793 -0.4265  1.4996
29220SOL     OW94517   7.592  11.441   1.808 -0.2503  0.4656 -0.0879
29220SOL    HW194518   7.515  11.471   1.857 -0.1151  1.1411 -0.2738
29220SOL    HW294519   7.604  11.507   1.740  0.4000  0.2795 -0.1605
29221SOL     OW94520   6.648  10.164   5.083  0.3447  0.0909  0.4582
29221SOL    HW194521   6.591  10.171   5.159  1.3599  2.0036  1.1279
29221SOL    HW294522   6.616  10.231   5.023 -0.6369 -1.6050 -1.0022
29222SOL     OW94523   8.082   6.622   9.979  0.1399 -0.6341 -0.1895
29222SOL    HW194524   8.055   6.552   9.920  1.0776 -0.6737 -0.5950
29222SOL    HW294525   8.109   6.693   9.921 -1.7784  0.4924  0.2103
29223SOL     OW94526   7.154   5.209   4.286  0.2186  0.0814  0.2178
29223SOL    HW194527   7.202   5.132   4.255  1.1357  1.1723 -1.2338
29223SOL    HW294528   7.210   5.245   4.355 -0.4493 -0.8008  1.2378
29224SOL     OW94529   1.742  12.506   9.579 -0.6315  0.1626 -0.1532
29224SOL    HW194530   1.733  12.601   9.569  1.6837  0.3269 -1.2647
29224SOL    HW294531   1.686  12.469   9.510 -1.7311  0.6849  0.4396
29225SOL     OW94532   8.686   0.239   6.496  0.0907  0.0271  0.6134
29225SOL    HW194533   8.680   0.175   6.567  0.0343 -0.9880 -0.2727
29225SOL    HW294534   8.732   0.314   6.535  0.3982 -0.6533  1.6097
29226SOL     OW94535   4.326   7.399   8.089 -0.4975  0.6182  0.2076
29226SOL    HW194536   4.406   7.353   8.117 -0.8007 -0.8278 -1.1550
29226SOL    HW294537   4.357   7.461   8.023 -0.4216  0.5214  0.1517
29227SOL     OW94538   2.333   7.901  12.015 -0.1572  0.3600  0.5439
29227SOL    HW194539   2.267   7.882  11.948  1.1072  0.0795 -0.6825
29227SOL    HW294540   2.329   7.996  12.026 -0.3533  0.4138  0.0352
29228SOL     OW94541   6.186   8.926   9.662  0.1187  0.1609 -0.3209
29228SOL    HW194542   6.260   8.943   9.719 -0.2060 -2.8026  1.1542
29228SOL    HW294543   6.225   8.893   9.581  0.4500  0.9445 -0.4925
29229SOL     OW94544   3.971   6.870   5.061  0.6199  0.1954  0.1335
29229SOL    HW194545   4.009   6.786   5.085 -0.0333 -0.4275 -0.9488
29229SOL    HW294546   3.967   6.868   4.965  1.2459  1.7559  0.0400
29230SOL     OW94547   8.658   6.403   1.940  0.2311 -0.2111  0.5604
29230SOL    HW194548   8.656   6.487   1.894 -2.4663 -0.6636 -0.3635
29230SOL    HW294549   8.586   6.409   2.002  0.5357 -1.5369  1.0659
29231SOL     OW94550   7.065   1.263   3.484  0.5203 -0.4167 -0.0228
29231SOL    HW194551   7.120   1.341   3.482  0.6819 -0.5352 -1.7197
29231SOL    HW294552   7.053   1.244   3.577  0.5445  1.5631  0.4158
29232SOL     OW94553   3.227   5.149   2.237 -0.3914  0.0585  0.4108
29232SOL    HW194554   3.217   5.120   2.146 -1.4846 -0.8887  0.8110
29232SOL    HW294555   3.225   5.245   2.231  0.1648  0.0232 -0.6194
29233SOL     OW94556   7.146  11.104   9.542 -0.1163 -0.1749 -0.3947
29233SOL    HW194557   7.135  11.021   9.589 -0.2327  0.1021  0.0807
29233SOL    HW294558   7.225  11.143   9.579  0.6147 -0.6218 -1.4616
29234SOL     OW94559   6.541   0.466   1.803 -0.7377  0.0186  0.0327
29234SOL    HW194560   6.635   0.459   1.820 -0.8668  1.3987  1.4737
29234SOL    HW294561   6.499   0.440   1.885 -1.5819  0.6281 -0.1871
29235SOL     OW94562   3.327   9.797   2.091 -0.4163 -0.7326 -0.6158
29235SOL    HW194563   3.239   9.801   2.127  0.8667 -0.2139  2.8134
29235SOL    HW294564   3.345   9.887   2.061 -1.0857 -0.9010 -1.5690
29236SOL     OW94565   4.753   4.526  10.868  0.1170 -0.0032  0.1153
29236SOL    HW194566   4.781   4.450  10.818 -1.1126 -0.6378  0.3428
29236SOL    HW294567   4.710   4.490  10.945 -0.9013  0.8944 -0.0050
29237SOL     OW94568   7.258   4.542   2.979 -0.2007  0.2993 -0.3041
29237SOL    HW194569   7.288   4.524   2.890 -2.6765 -0.4021 -1.0532
29237SOL    HW294570   7.167   4.570   2.969 -0.2623  1.1150  1.9502
29238SOL     OW94571   4.118   1.672   5.129 -0.3246  0.0577 -0.2368
29238SOL    HW194572   4.198   1.691   5.178  0.3194 -2.2346 -0.3187
29238SOL    HW294573   4.054   1.735   5.163  0.9375  0.5887  1.2902
29239SOL     OW94574   3.977   7.314   5.417 -0.1270  0.0631  0.2436
29239SOL    HW194575   3.910   7.287   5.479  1.4522 -1.4399  1.4118
29239SOL    HW294576   3.985   7.241   5.356  0.3922  0.2375  0.0913
29240SOL     OW94577   9.632   7.351   5.691 -0.2851  0.2135 -0.5413
29240SOL    HW194578   9.699   7.382   5.753  1.0212  0.5050 -2.0479
29240SOL    HW294579   9.567   7.421   5.689 -1.5569 -0.7355  2.1321
29241SOL     OW94580   6.633   8.886   2.044 -0.2587 -0.0946 -0.1946
29241SOL    HW194581   6.539   8.874   2.038 -0.5494  1.6320  0.2328
29241SOL    HW294582   6.663   8.890   1.953 -0.8419  0.7975 -0.3634
29242SOL     OW94583   0.564   9.556  12.305  0.0151  0.0011  0.1001
29242SOL    HW194584   0.504   9.503  12.356 -0.4257 -1.6064 -1.9415
29242SOL    HW294585   0.646   9.507  12.303  0.6142  0.9354  0.7419
29243SOL     OW94586  10.798  11.832   0.829  0.5749  0.7534 -0.3435
29243SOL    HW194587  10.711  11.793   0.842 -0.1084  2.6975  1.4815
29243SOL    HW294588  10.856  11.777   0.883 -0.2266  1.6040  1.4913
29244SOL     OW94589  12.198   4.629   1.315  0.1609 -0.5124 -0.7178
29244SOL    HW194590  12.159   4.574   1.383 -0.3993  2.6750  1.7420
29244SOL    HW294591  12.125   4.655   1.260 -0.5258  1.6666  1.1013
29245SOL     OW94592   4.142   0.539   6.247 -0.5504 -0.2760  0.2160
29245SOL    HW194593   4.229   0.576   6.232 -1.1836  0.3519 -2.5480
29245SOL    HW294594   4.083   0.596   6.198 -2.1340 -2.3985 -0.5303
29246SOL     OW94595   6.863   8.287  12.426 -0.0026  0.2161 -0.0302
29246SOL    HW194596   6.856   8.302  12.332 -0.6357  1.2244  0.1632
29246SOL    HW294597   6.958   8.288  12.443  0.1023  2.7312 -0.2890
29247SOL     OW94598  10.315   0.281  10.975  0.1909 -0.7585  0.3030
29247SOL    HW194599  10.282   0.202  10.933 -0.5760 -0.0855 -0.4125
29247SOL    HW294600  10.380   0.315  10.914 -0.8652  0.1783 -0.3381
29248SOL     OW94601   3.730  10.812  11.795  0.4820 -0.2569  0.2887
29248SOL    HW194602   3.637  10.801  11.778  0.6433 -2.3718  0.5087
29248SOL    HW294603   3.764  10.859  11.718 -0.3952 -1.3835 -0.8113
29249SOL     OW94604   0.728   1.715   9.889  0.4091  0.0868 -0.3561
29249SOL    HW194605   0.766   1.644   9.836  0.4488  0.5768 -1.0054
29249SOL    HW294606   0.639   1.687   9.906  0.8550 -0.7763  0.6231
29250SOL     OW94607   8.977   2.058   5.208 -0.6297  0.0279 -0.1096
29250SOL    HW194608   8.935   1.981   5.246 -1.8403  0.7426  0.0337
29250SOL    HW294609   8.922   2.082   5.133  2.5744 -2.3723 -3.6167
29251SOL     OW94610   5.225   9.346   4.381 -0.0288  0.4257 -0.0345
29251SOL    HW194611   5.297   9.283   4.396 -1.6349 -1.8146 -1.1166
29251SOL    HW294612   5.234   9.409   4.452  2.4998 -0.2370  0.3525
29252SOL     OW94613  11.197   2.331   1.895  0.0902 -0.0491  0.1523
29252SOL    HW194614  11.205   2.330   1.990 -0.3248  1.6628  0.2437
29252SOL    HW294615  11.278   2.290   1.864  0.1804 -0.7313  1.2265
29253SOL     OW94616   5.102   0.654  10.932 -0.0554  0.0113 -0.3127
29253SOL    HW194617   5.119   0.698  10.849 -0.8899  0.8167 -0.0741
29253SOL    HW294618   5.104   0.724  10.997  4.0354 -1.0047  0.9231
29254SOL     OW94619   7.181  12.522   3.936  0.4858 -0.0160 -0.0647
29254SOL    HW194620   7.125  12.470   3.878 -1.8408  2.3761 -0.2088
29254SOL    HW294621   7.125  12.541   4.012  0.2760  3.8764 -0.9611
29255SOL     OW94622   8.064   0.864   7.072 -0.3219  0.6051  0.2799
29255SOL    HW194623   8.132   0.918   7.114  0.5216  0.5402 -0.9556
29255SOL    HW294624   8.086   0.774   7.096  2.4113  0.1482 -3.1462
29256SOL     OW94625  10.670   8.775   7.836  0.0938 -0.1385  0.4637
29256SOL    HW194626  10.631   8.693   7.805 -0.1067  0.5850 -1.3515
29256SOL    HW294627  10.756   8.750   7.870 -0.0836 -1.1303  0.2146
29257SOL     OW94628   5.910  11.298   3.699 -0.0641 -0.1244 -0.0946
29257SOL    HW194629   5.968  11.224   3.681  2.4128  1.5129  0.7654
29257SOL    HW294630   5.884  11.330   3.612  0.9711 -0.3964 -0.5117
29258SOL     OW94631   7.620   6.340   9.744  0.0538 -0.2230 -0.2441
29258SOL    HW194632   7.598   6.267   9.802  0.2954  1.4767  2.1167
29258SOL    HW294633   7.551   6.405   9.760  2.5428  2.1810  1.7652
29259SOL     OW94634   8.181   9.417   3.322 -0.5222 -0.5174 -0.6192
29259SOL    HW194635   8.254   9.384   3.271  0.3047  0.6479 -0.2320
29259SOL    HW294636   8.146   9.490   3.270  0.5502  0.9083  0.5739
29260SOL     OW94637  10.397   7.406   9.355  0.0576 -0.7646 -0.6298
29260SOL    HW194638  10.387   7.501   9.351 -0.9446 -0.8385 -0.2243
29260SOL    HW294639  10.407   7.379   9.264  1.2348 -0.1993 -0.6894
29261SOL     OW94640  11.437   6.345   4.440  0.5784  0.8429  0.3532
29261SOL    HW194641  11.512   6.286   4.429 -0.4989 -0.3071 -1.4034
29261SOL    HW294642  11.368   6.305   4.386 -1.0186  2.3338  1.2170
29262SOL     OW94643   9.513   7.267   4.730 -0.4089 -0.5674  0.1964
29262SOL    HW194644   9.487   7.224   4.649 -0.0181 -0.6494  0.1120
29262SOL    HW294645   9.435   7.264   4.786 -0.7602 -0.2741 -0.2744
29263SOL     OW94646   6.133  12.356   1.690 -0.5239 -0.3985 -0.1255
29263SOL    HW194647   6.153  12.266   1.668 -1.3072 -0.3346 -1.1400
29263SOL    HW294648   6.092  12.392   1.612 -0.7037  0.6862  0.4429
29264SOL     OW94649   0.299   5.632  10.377  0.2872 -0.7202 -0.4428
29264SOL    HW194650   0.258   5.609  10.294  0.1796 -0.8929 -0.3432
29264SOL    HW294651   0.379   5.679  10.352 -1.1024  1.7100 -0.6248
29265SOL     OW94652  12.360   2.752  12.056  0.2717  0.2078  0.0367
29265SOL    HW194653  12.330   2.718  11.971  0.0567 -1.6968  0.8266
29265SOL    HW294654  12.326   2.841  12.059  0.4810  0.4000 -1.9693
29266SOL     OW94655   9.921   3.490   4.177  0.1830 -0.0305 -0.2888
29266SOL    HW194656   9.836   3.483   4.134 -0.0273 -0.3396  0.1811
29266SOL    HW294657   9.913   3.439   4.257  1.8040 -2.9316 -1.7907
29267SOL     OW94658   1.954   5.061  10.405  0.0474 -0.6627  0.5050
29267SOL    HW194659   1.939   5.123  10.476  0.0562  0.3546 -0.3553
29267SOL    HW294660   2.048   5.043  10.408  0.2474  0.2260  0.0990
29268SOL     OW94661   1.090   5.437   7.820  0.3175  0.4573  0.2745
29268SOL    HW194662   1.119   5.528   7.814 -0.9096  0.8180 -0.4241
29268SOL    HW294663   1.000   5.441   7.850  0.0764 -0.4987 -0.2604
29269SOL     OW94664   6.278   9.636   9.159 -0.1745 -0.3835  0.0250
29269SOL    HW194665   6.276   9.619   9.253  0.9966 -0.1452  0.1052
29269SOL    HW294666   6.245   9.725   9.150 -1.1111 -0.7090  0.1172
29270SOL     OW94667   5.243   6.379  12.255  0.7530 -0.4877 -0.4214
29270SOL    HW194668   5.282   6.384  12.343  0.3096  0.6238 -0.2595
29270SOL    HW294669   5.295   6.440  12.203 -0.9191  1.3141 -0.1106
29271SOL     OW94670   4.530   1.284  10.855  0.6441 -0.4654  0.6050
29271SOL    HW194671   4.474   1.206  10.854  1.5356 -1.1404  1.1553
29271SOL    HW294672   4.611   1.255  10.813  0.6264  0.4618 -0.0825
29272SOL     OW94673   6.278  11.816   3.701  0.2188  0.1135 -0.0015
29272SOL    HW194674   6.359  11.791   3.656 -0.7541 -0.1987 -1.6546
29272SOL    HW294675   6.282  11.768   3.784  1.5240 -0.2387 -0.2327
29273SOL     OW94676   2.431   7.076   9.023 -0.2257 -0.3200 -0.0732
29273SOL    HW194677   2.421   6.982   9.004 -1.8121 -0.3223  0.5616
29273SOL    HW294678   2.348   7.114   8.995  0.4553  0.9337 -0.4326
29274SOL     OW94679  12.443   4.473   7.863 -0.1371  0.1137 -0.0540
29274SOL    HW194680  12.500   4.510   7.796  0.2470 -0.0569  0.1730
29274SOL    HW294681  12.382   4.543   7.884  1.2075  1.0113  1.1036
29275SOL     OW94682   2.867   4.695   0.109 -0.1220 -0.2629 -0.3077
29275SOL    HW194683   2.783   4.707   0.152 -0.8107  0.6439 -1.8633
29275SOL    HW294684   2.929   4.681   0.182 -1.4217  0.0606  0.8997
29276SOL     OW94685   8.359   1.482   2.622  0.8747 -0.2885  0.7117
29276SOL    HW194686   8.299   1.556   2.629  1.4912  0.3377 -0.3210
29276SOL    HW294687   8.343   1.447   2.534  1.2040 -0.8456  0.8696
29277SOL     OW94688  11.999  11.901   9.155 -0.5522  0.5011  0.2667
29277SOL    HW194689  11.923  11.920   9.099 -0.5034  0.1438  0.0758
29277SOL    HW294690  12.003  11.975   9.216  0.4068  1.8009 -1.2650
29278SOL     OW94691   5.850   8.662  11.409 -0.0125 -0.6029 -0.6232
29278SOL    HW194692   5.859   8.667  11.314  0.4275  0.6308 -0.5257
29278SOL    HW294693   5.908   8.590  11.435 -0.2851 -1.0749 -1.2895
29279SOL     OW94694   0.515   1.519   3.942 -0.6153  0.0680  0.2884
29279SOL    HW194695   0.509   1.429   3.908  3.4987 -0.1743 -0.3459
29279SOL    HW294696   0.469   1.572   3.877 -0.4514 -1.2929 -1.0130
29280SOL     OW94697  12.417   1.659   4.062 -0.3651  0.0703 -0.1420
29280SOL    HW194698  12.366   1.692   3.988 -1.4398  0.2597  0.6539
29280SOL    HW294699  12.411   1.564   4.055 -0.3238  0.0846 -0.3911
29281SOL     OW94700   7.790   9.995  11.324 -0.1696 -0.0639  0.2456
29281SOL    HW194701   7.726   9.971  11.257  1.6358 -1.6282 -1.0256
29281SOL    HW294702   7.805  10.088  11.312 -0.9393 -0.0359 -0.5663
29282SOL     OW94703   0.876   8.125   5.375 -0.0740 -0.3638  0.0057
29282SOL    HW194704   0.883   8.106   5.281 -0.1783  1.3352 -0.3778
29282SOL    HW294705   0.800   8.074   5.404 -0.4059 -0.4480 -0.9731
29283SOL     OW94706   8.510   6.606   8.640 -0.0729  0.5236 -0.1643
29283SOL    HW194707   8.600   6.638   8.648 -0.6972  2.3777  0.0157
29283SOL    HW294708   8.461   6.681   8.605 -1.8945  0.1699  1.4641
29284SOL     OW94709   7.863   7.005   7.305  0.5650 -0.7070 -0.1488
29284SOL    HW194710   7.875   6.999   7.400  0.3982 -0.0676 -0.0863
29284SOL    HW294711   7.905   7.087   7.281 -1.0217  0.0712 -0.3589
29285SOL     OW94712   6.587   3.130   0.861 -0.1160  0.0613  0.3871
29285SOL    HW194713   6.501   3.135   0.820 -0.2098 -0.4442  0.5168
29285SOL    HW294714   6.648   3.120   0.787 -0.1815  0.2303  0.3084
29286SOL     OW94715   8.020   8.800   6.304  0.2676 -0.5425  0.0075
29286SOL    HW194716   7.971   8.733   6.353 -1.9141 -0.5660 -2.0176
29286SOL    HW294717   8.092   8.752   6.263 -0.0715 -1.2419  0.2092
29287SOL     OW94718   5.730   8.663   1.674  0.1755  0.2432  0.8973
29287SOL    HW194719   5.795   8.636   1.739 -1.3595 -0.2460  2.3052
29287SOL    HW294720   5.747   8.756   1.660  0.9765  0.1945  1.4690
29288SOL     OW94721   3.226   9.518   2.998  0.0200  0.1718  0.1471
29288SOL    HW194722   3.204   9.572   3.074 -0.1652  0.2617  0.0334
29288SOL    HW294723   3.318   9.537   2.981  0.3205 -0.5557  0.9090
29289SOL     OW94724   0.211  12.200  10.123 -0.2445  0.3105  0.4367
29289SOL    HW194725   0.126  12.171  10.091 -1.2541  3.8445 -0.5361
29289SOL    HW294726   0.251  12.245  10.048  2.0356 -0.3106  1.1956
29290SOL     OW94727  11.514   4.327   4.808  0.6561  0.5341  0.4597
29290SOL    HW194728  11.608   4.346   4.808  0.3596  2.2397 -0.8752
29290SOL    HW294729  11.472   4.412   4.821 -0.7179  0.2787 -1.7146
29291SOL     OW94730  10.045   6.205  10.581  0.4417 -0.0145 -0.0484
29291SOL    HW194731  10.036   6.166  10.494 -0.8822  0.2524 -0.0595
29291SOL    HW294732   9.983   6.278  10.581 -0.8981 -1.0555  1.6941
29292SOL     OW94733   0.148   8.400   6.066 -0.3996  0.0387  0.6802
29292SOL    HW194734   0.220   8.448   6.106 -1.9161  0.8082  2.6646
29292SOL    HW294735   0.178   8.382   5.976  2.0381  0.6835  1.2897
29293SOL     OW94736   9.270   7.835  10.499  0.3226  0.3408  0.2834
29293SOL    HW194737   9.247   7.748  10.467  0.8135 -0.3854  1.8039
29293SOL    HW294738   9.235   7.838  10.588 -0.0483  1.8595  0.1116
29294SOL     OW94739   7.466   6.966   7.548 -0.0248  0.1077 -1.1894
29294SOL    HW194740   7.504   6.900   7.489 -0.1850 -0.3196 -0.8224
29294SOL    HW294741   7.380   6.930   7.571  0.7018 -0.5783  0.6551
29295SOL     OW94742   9.488  12.426   1.370 -0.5265  0.9585 -0.0341
29295SOL    HW194743   9.540  12.469   1.438  1.6996 -0.6751 -0.5645
29295SOL    HW294744   9.454  12.348   1.412  0.5266  0.1498 -0.6327
29296SOL     OW94745   1.474   9.781  11.747 -0.0014 -0.0821 -0.0822
29296SOL    HW194746   1.401   9.812  11.693  0.7456  0.4432 -0.8133
29296SOL    HW294747   1.478   9.844  11.819  0.4476  0.5857 -0.6684
29297SOL     OW94748   8.542   5.889  11.102  0.2778 -0.3360  0.3038
29297SOL    HW194749   8.554   5.936  11.020 -0.2882 -1.1819 -0.2784
29297SOL    HW294750   8.595   5.938  11.166  1.8513 -0.4711 -0.8419
29298SOL     OW94751  12.071  12.173   1.088 -0.1969 -0.1141  0.0547
29298SOL    HW194752  12.029  12.252   1.053 -0.8309 -1.2797 -2.0019
29298SOL    HW294753  12.036  12.101   1.035 -1.0622 -2.0756  3.0020
29299SOL     OW94754   2.267  11.608   7.216  0.2874  0.5704 -0.4837
29299SOL    HW194755   2.349  11.657   7.214  1.0480 -0.6600 -0.2116
29299SOL    HW294756   2.231  11.617   7.128  0.4536  1.5211 -0.4674
29300SOL     OW94757   7.204   0.256   2.230 -0.6882 -0.5189 -0.1039
29300SOL    HW194758   7.133   0.192   2.223 -0.4314 -0.8317  0.0917
29300SOL    HW294759   7.191   0.315   2.156 -0.8703 -0.8616 -0.3467
29301SOL     OW94760   6.061   6.979   8.625  0.4618  0.4108  0.5636
29301SOL    HW194761   6.064   6.965   8.531 -2.8397  0.9931  0.2434
29301SOL    HW294762   6.074   6.892   8.663  0.5149 -0.0545 -0.4966
29302SOL     OW94763   4.873   9.489   1.150 -0.1609  0.1005 -0.1082
29302SOL    HW194764   4.854   9.537   1.070 -1.2665  1.5264  0.9439
29302SOL    HW294765   4.912   9.407   1.121  0.2593  0.9401 -2.0450
29303SOL     OW94766   4.251   3.030   0.630  0.2350  0.5190 -0.1671
29303SOL    HW194767   4.278   2.999   0.716  0.0687  0.2254 -0.2182
29303SOL    HW294768   4.314   3.098   0.608  0.6316  0.1925 -0.0638
29304SOL     OW94769   2.754   1.296  10.385 -1.1247  0.6576  0.3369
29304SOL    HW194770   2.822   1.231  10.364  0.6102  2.0999  1.2020
29304SOL    HW294771   2.678   1.268  10.335  0.3947 -0.4987 -1.4650
29305SOL     OW94772  12.093   9.788   1.924 -0.1039  0.2084 -0.0874
29305SOL    HW194773  12.022   9.807   1.863  0.1136 -0.1404 -0.4510
29305SOL    HW294774  12.153   9.863   1.916 -1.1666  1.2839  1.3488
29306SOL     OW94775  10.744  10.454   2.004  0.2221 -0.0793  0.4368
29306SOL    HW194776  10.747  10.396   2.080  1.6365 -0.6036  0.0074
29306SOL    HW294777  10.737  10.542   2.042  1.1132 -0.3180  1.2010
29307SOL     OW94778   6.986   4.318  10.884 -0.6630  0.3281 -0.0126
29307SOL    HW194779   7.033   4.255  10.939 -0.4463 -1.0183 -1.6593
29307SOL    HW294780   6.896   4.314  10.916 -1.1449 -2.4694 -1.3756
29308SOL     OW94781  11.803   2.329  11.794 -0.4272  0.1893  0.0792
29308SOL    HW194782  11.790   2.301  11.885 -0.6200  1.3526  0.4298
29308SOL    HW294783  11.723   2.304  11.749 -0.5995  0.1853  0.3870
29309SOL     OW94784   7.388   0.980   6.893  0.0632  0.5895 -0.5313
29309SOL    HW194785   7.303   0.963   6.853  0.5489 -1.1266 -0.9255
29309SOL    HW294786   7.369   0.990   6.987 -0.5261 -0.4601 -0.5205
29310SOL     OW94787  10.927   8.540   3.105  0.0991  0.8838 -0.2664
29310SOL    HW194788  10.994   8.572   3.045  0.9926  3.6887  1.9523
29310SOL    HW294789  10.976   8.507   3.180 -0.8947  2.6871  1.2590
29311SOL     OW94790   6.975   0.700   4.273  0.0868 -0.1384  0.7525
29311SOL    HW194791   6.942   0.667   4.190  1.1957 -0.2355  0.3333
29311SOL    HW294792   7.020   0.625   4.312  0.3607  0.1586  1.0133
29312SOL     OW94793   2.297   0.440  11.493  0.0156  0.0435  0.2301
29312SOL    HW194794   2.379   0.430  11.541  0.4478  3.1399  0.3533
29312SOL    HW294795   2.229   0.435  11.560  0.2766 -0.3513  0.4659
29313SOL     OW94796   9.122   8.713  11.016  0.1583  0.3621 -0.5810
29313SOL    HW194797   9.167   8.675  11.091 -0.8605  4.2055  2.3048
29313SOL    HW294798   9.046   8.657  11.002  0.8212 -0.9057  0.7342
29314SOL     OW94799   4.736   0.350   2.594 -0.5177 -0.0334 -0.0765
29314SOL    HW194800   4.764   0.431   2.551 -0.0302  0.8321  1.7934
29314SOL    HW294801   4.749   0.366   2.687 -3.6660 -1.0088  0.6480
29315SOL     OW94802  10.239   6.876   9.720 -0.3412 -0.0872  0.0367
29315SOL    HW194803  10.178   6.820   9.768 -1.1731 -0.4567 -1.4161
29315SOL    HW294804  10.208   6.965   9.738 -0.5521 -0.2110  0.2941
29316SOL     OW94805   0.038   8.774   2.316 -0.0445  0.0256  0.3753
29316SOL    HW194806  -0.033   8.814   2.265  1.0899  0.5253 -0.8555
29316SOL    HW294807   0.001   8.693   2.350 -1.0168 -0.0364 -0.7772
29317SOL     OW94808   7.143  10.990  11.461 -0.0421  0.2035 -0.1310
29317SOL    HW194809   7.073  11.044  11.424  0.1169  0.3217 -0.2646
29317SOL    HW294810   7.128  10.991  11.555  0.4402  1.1676 -0.0537
29318SOL     OW94811   5.975  11.240  11.068 -0.6307  1.0182 -0.3626
29318SOL    HW194812   5.953  11.160  11.115  1.9083  1.2808  1.5115
29318SOL    HW294813   5.951  11.223  10.977 -0.1584 -1.8729 -0.0186
29319SOL     OW94814   3.299   1.460   0.080 -0.3295  0.0423  0.1268
29319SOL    HW194815   3.323   1.410   0.002 -1.1841  1.7658 -1.3236
29319SOL    HW294816   3.381   1.469   0.129  0.7006  0.6470 -1.6183
29320SOL     OW94817  10.501   1.950   2.056  0.3927  0.2759  0.1406
29320SOL    HW194818  10.480   1.998   1.976 -1.2106  0.4589  0.6525
29320SOL    HW294819  10.490   2.013   2.127 -2.1297 -0.8367  0.8606
29321SOL     OW94820  11.272  10.866  12.165 -0.0804 -0.2587  0.5674
29321SOL    HW194821  11.228  10.948  12.143 -0.1902 -0.2609  0.7713
29321SOL    HW294822  11.257  10.809  12.090  0.5886  0.1383  0.1259
29322SOL     OW94823  11.408  11.963  10.906  0.2496 -0.3404  0.1310
29322SOL    HW194824  11.488  12.012  10.924  0.4327 -0.7506  0.4451
29322SOL    HW294825  11.402  11.962  10.810  0.3786  0.0765  0.1181
29323SOL     OW94826   4.525  10.304   3.192  0.1688  0.0843  0.7348
29323SOL    HW194827   4.580  10.378   3.167 -0.2889  0.2217  0.1251
29323SOL    HW294828   4.561  10.230   3.143 -0.8525  0.3937 -0.5358
29324SOL     OW94829   5.679  12.040   0.660 -0.2185  0.2665  0.3411
29324SOL    HW194830   5.596  12.007   0.695  1.0027 -4.2546 -0.3495
29324SOL    HW294831   5.681  12.008   0.570  1.3356  2.2620 -0.3954
29325SOL     OW94832   7.545   4.948  11.158  0.9895 -0.0140 -0.3225
29325SOL    HW194833   7.609   4.951  11.086 -1.6351  0.0252 -2.8477
29325SOL    HW294834   7.478   5.011  11.132 -1.2639 -1.7655  0.9839
29326SOL     OW94835   6.654   0.530   3.833 -0.1790  0.0038 -0.4647
29326SOL    HW194836   6.599   0.489   3.900 -1.3508 -0.3010 -1.5753
29326SOL    HW294837   6.592   0.581   3.780  0.3662 -1.4275 -2.5763
29327SOL     OW94838   2.842   0.606   1.262  0.9537  0.5976  0.3106
29327SOL    HW194839   2.851   0.676   1.198  3.3395  0.1332  0.0644
29327SOL    HW294840   2.825   0.527   1.209  1.6544  0.4305  0.3269
29328SOL     OW94841   5.453   4.420   1.100 -0.6059  0.0864  0.2099
29328SOL    HW194842   5.531   4.458   1.060 -0.3668 -2.0153 -1.4686
29328SOL    HW294843   5.404   4.496   1.133  0.3645  1.7724 -1.9814
29329SOL     OW94844   1.850   5.144   8.884 -0.1824  0.1114 -0.0114
29329SOL    HW194845   1.797   5.065   8.894  0.2678 -0.6329 -2.7155
29329SOL    HW294846   1.791   5.216   8.909 -1.4423 -0.8983 -0.0021
29330SOL     OW94847   9.994   0.290   4.601 -0.0922 -0.1772  0.1799
29330SOL    HW194848   9.988   0.385   4.605 -0.2816 -0.1851  0.0730
29330SOL    HW294849  10.084   0.273   4.572  0.8720 -0.0889  2.8057
29331SOL     OW94850   6.536  10.300   0.101  0.0291  0.5281 -0.0502
29331SOL    HW194851   6.460  10.280   0.155 -0.6648  0.9586 -0.8438
29331SOL    HW294852   6.559  10.390   0.124  1.9349 -0.3887  2.0781
29332SOL     OW94853   4.281   9.836   6.028  0.1793 -0.1570 -0.0297
29332SOL    HW194854   4.270   9.751   6.069 -0.0971  0.3966  1.1071
29332SOL    HW294855   4.362   9.870   6.066  1.8334 -1.0063 -2.5239
29333SOL     OW94856   1.011  10.464   0.722  0.1801  0.2711  0.3133
29333SOL    HW194857   0.979  10.502   0.804 -1.8721 -0.5218 -0.0606
29333SOL    HW294858   1.100  10.498   0.713 -0.2697  2.0089  1.8318
29334SOL     OW94859  11.098   7.098   1.309 -0.1929  0.5766  0.3776
29334SOL    HW194860  11.082   7.095   1.403 -1.7907  2.2243  0.2016
29334SOL    HW294861  11.154   7.022   1.292 -0.2771 -0.0366  2.5619
29335SOL     OW94862   8.541   1.898  10.517 -0.6107  0.0622  0.2442
29335SOL    HW194863   8.585   1.827  10.471  1.0383  0.8737  0.5069
29335SOL    HW294864   8.514   1.959  10.448  0.3562  0.4548  0.1977
29336SOL     OW94865   4.578   1.262   7.299 -0.2849 -0.1707  0.4120
29336SOL    HW194866   4.569   1.356   7.282  1.3275  0.2085  1.4087
29336SOL    HW294867   4.602   1.225   7.214  2.9585  0.9675  0.6902
29337SOL     OW94868   6.440   5.053   8.457  0.3954 -0.6140 -0.4842
29337SOL    HW194869   6.455   5.034   8.364 -0.0268 -0.0848 -0.6634
29337SOL    HW294870   6.528   5.061   8.494  0.5678  0.1274 -1.0410
29338SOL     OW94871   2.689   8.798   2.093 -0.1529 -0.4787 -1.1089
29338SOL    HW194872   2.718   8.756   2.012  0.4867 -0.4202 -0.9177
29338SOL    HW294873   2.654   8.727   2.146 -1.0473 -0.4407 -1.6375
29339SOL     OW94874   3.863   8.475   8.559 -0.1352 -0.1625 -0.0854
29339SOL    HW194875   3.907   8.423   8.626 -1.7102 -1.6934 -0.1812
29339SOL    HW294876   3.770   8.456   8.571 -0.6639  1.5782 -1.0368
29340SOL     OW94877  10.078   5.137   5.275  0.1359  0.0831  0.4385
29340SOL    HW194878  10.122   5.222   5.277 -1.8013  1.3925 -3.2250
29340SOL    HW294879  10.136   5.081   5.224  0.1515  0.0933  0.4457
29341SOL     OW94880   5.446   8.305  10.226  0.5709 -0.2076 -0.0856
29341SOL    HW194881   5.382   8.248  10.183  0.0158  0.1209  0.2955
29341SOL    HW294882   5.519   8.247  10.246 -0.4411 -1.0795  1.3115
29342SOL     OW94883   7.398   4.995   9.066  0.4973  0.5233 -0.1975
29342SOL    HW194884   7.467   4.967   9.006  3.2067  0.4732  2.6923
29342SOL    HW294885   7.442   5.004   9.150 -2.9809  1.0166  1.7352
29343SOL     OW94886   3.297   7.239   1.411 -0.9142 -0.1064 -0.3509
29343SOL    HW194887   3.313   7.182   1.335 -0.1910  0.1099 -0.3669
29343SOL    HW294888   3.296   7.328   1.375  0.3144  0.0708  0.0035
29344SOL     OW94889   5.462   8.422   7.310 -0.0327 -0.0457 -0.2495
29344SOL    HW194890   5.527   8.360   7.278  1.4333  1.2612  0.0351
29344SOL    HW294891   5.504   8.466   7.384 -0.1267  2.6984 -1.6624
29345SOL     OW94892   5.045   4.820   5.417 -0.4516  0.0627 -0.1848
29345SOL    HW194893   5.045   4.730   5.383 -0.1010  0.4515 -1.2775
29345SOL    HW294894   4.979   4.865   5.363 -3.1072 -0.2767  2.5270
29346SOL     OW94895   3.798   7.512  11.199 -0.4267  0.0812  0.3448
29346SOL    HW194896   3.796   7.571  11.124 -0.2789 -1.1085 -0.6359
29346SOL    HW294897   3.864   7.549  11.257 -0.3693  0.8933 -0.2221
29347SOL     OW94898   3.937  11.410  10.646 -0.1577 -0.3260 -0.3325
29347SOL    HW194899   3.846  11.437  10.647 -0.4200 -0.9656 -2.4660
29347SOL    HW294900   3.983  11.479  10.599  0.1669 -0.7907 -0.7082
29348SOL     OW94901   6.873   5.733  10.967  0.6305 -0.4144 -0.0580
29348SOL    HW194902   6.934   5.739  11.041  0.0172 -0.7457  0.4847
29348SOL    HW294903   6.802   5.793  10.990 -0.2486 -1.5579  0.2922
29349SOL     OW94904  11.299   9.800   9.702  0.2444 -0.4451 -0.5535
29349SOL    HW194905  11.301   9.868   9.769  1.6565 -1.7463  0.8143
29349SOL    HW294906  11.212   9.762   9.709  0.9008 -1.6865  1.8168
29350SOL     OW94907   6.584   7.790   0.365  0.0968  0.3663 -0.1340
29350SOL    HW194908   6.550   7.800   0.454 -0.3747  0.1265 -0.2836
29350SOL    HW294909   6.588   7.879   0.331 -1.6351  0.3247 -0.5640
29351SOL     OW94910   6.779   3.283   3.587 -0.4008  0.1258 -0.6564
29351SOL    HW194911   6.835   3.318   3.656 -1.5335 -0.1570  0.4352
29351SOL    HW294912   6.771   3.355   3.524 -0.4525  0.8653  0.1828
29352SOL     OW94913   5.221   5.128  10.344  0.5110 -0.3112 -0.5597
29352SOL    HW194914   5.282   5.107  10.274 -0.0471 -0.7358 -0.9307
29352SOL    HW294915   5.276   5.136  10.422  1.0367 -0.7218 -0.8784
29353SOL     OW94916   9.609   8.396  10.749  0.2624  0.8214 -0.0395
29353SOL    HW194917   9.674   8.360  10.809 -1.1381  2.4795  2.6876
29353SOL    HW294918   9.535   8.336  10.757  0.2886  0.7176 -0.5927
29354SOL     OW94919   5.927   3.038   5.731 -0.3863 -0.1117 -0.4550
29354SOL    HW194920   5.952   2.956   5.689  1.7880  0.3248 -0.1612
29354SOL    HW294921   5.966   3.033   5.819 -4.0458 -0.6103  1.3300
29355SOL     OW94922   1.565  10.410   4.424 -0.3850  0.2098 -0.0589
29355SOL    HW194923   1.514  10.424   4.344 -2.0690 -1.6559  0.6098
29355SOL    HW294924   1.622  10.487   4.430 -0.6224  0.6658 -2.7205
29356SOL     OW94925  11.464   1.623   3.133 -0.2510 -0.0089  0.2595
29356SOL    HW194926  11.453   1.529   3.118  0.2215 -0.2989  1.5861
29356SOL    HW294927  11.510   1.628   3.217  2.2798  1.3272 -1.1013
29357SOL     OW94928   4.946   0.889   7.721  0.2545  0.1361 -0.0359
29357SOL    HW194929   4.932   0.852   7.633 -0.5376  1.9441 -0.7069
29357SOL    HW294930   4.972   0.979   7.706  0.6840  0.3171  1.5962
29358SOL     OW94931   3.793   4.557   3.225  0.1371  0.4682  0.8563
29358SOL    HW194932   3.798   4.576   3.131 -1.2378  0.3463  0.7435
29358SOL    HW294933   3.884   4.562   3.254  0.6633 -0.0214 -0.5747
29359SOL     OW94934   3.833   5.806   6.806  0.0161 -0.3187 -0.6135
29359SOL    HW194935   3.815   5.770   6.719 -2.3155  1.0270 -0.7519
29359SOL    HW294936   3.886   5.884   6.789 -0.0431 -0.3138 -0.7744
29360SOL     OW94937   9.735  10.692  11.388  0.2117  0.0687 -0.2553
29360SOL    HW194938   9.747  10.747  11.311  0.8705  0.2746 -0.0160
29360SOL    HW294939   9.779  10.610  11.365  0.6758  0.2390  0.0108
29361SOL     OW94940  11.482   9.213   7.487  0.2032  0.2793  0.0778
29361SOL    HW194941  11.514   9.229   7.575 -0.1366  1.6683 -0.0217
29361SOL    HW294942  11.425   9.288   7.468  1.5242  0.8686 -1.9028
29362SOL     OW94943   8.477   6.209   4.095 -0.1134 -0.8362  0.2658
29362SOL    HW194944   8.447   6.176   4.010 -0.7447  1.3022 -0.4001
29362SOL    HW294945   8.474   6.132   4.152 -2.9514 -1.6797 -0.8132
29363SOL     OW94946   4.861   5.954   5.708 -0.7154 -0.4477  0.1247
29363SOL    HW194947   4.955   5.969   5.718 -0.9781  0.8968  0.8560
29363SOL    HW294948   4.825   6.040   5.684 -1.9295 -0.5882  1.3120
29364SOL     OW94949   0.965   9.408   8.364 -0.0274  0.0985  0.3426
29364SOL    HW194950   0.919   9.443   8.439 -0.6452 -0.9016  0.4418
29364SOL    HW294951   1.000   9.324   8.393  2.5687  1.1481  0.5257
29365SOL     OW94952   5.471   8.353   5.779  0.0188  0.3583  0.7367
29365SOL    HW194953   5.387   8.363   5.822 -0.9285 -0.0426 -0.9212
29365SOL    HW294954   5.508   8.441   5.778 -0.7664  0.6977  0.7413
29366SOL     OW94955   3.678   3.070  10.753 -0.1996 -0.3609  0.7191
29366SOL    HW194956   3.614   3.140  10.760  0.3739  0.3840 -0.8909
29366SOL    HW294957   3.754   3.102  10.802 -0.2354 -0.2019  0.6715
29367SOL     OW94958   0.022   9.794   1.049 -0.0726 -0.2523 -0.0108
29367SOL    HW194959   0.108   9.803   1.090 -0.5818  1.0646  0.8077
29367SOL    HW294960  -0.017   9.881   1.054 -1.6436 -0.9205  0.0548
29368SOL     OW94961  11.711   1.692   9.362 -0.0194  0.2283 -0.6831
29368SOL    HW194962  11.643   1.624   9.364 -0.2589  0.4668 -0.7159
29368SOL    HW294963  11.760   1.680   9.443 -0.3178  0.2811 -0.4964
29369SOL     OW94964   1.916   4.084   7.247  0.3210 -0.3139  0.2539
29369SOL    HW194965   1.949   4.130   7.324 -2.0697  2.2836 -0.1284
29369SOL    HW294966   1.959   4.125   7.173  3.3107 -3.4059  0.0345
29370SOL     OW94967  12.081   2.245   6.997 -0.0755 -0.1525  0.0522
29370SOL    HW194968  12.103   2.151   6.997  0.6869 -0.0335 -2.0537
29370SOL    HW294969  12.030   2.258   7.076 -0.0911 -2.3365  0.4571
29371SOL     OW94970  10.563   5.930   2.299 -0.7888  0.1359 -0.1284
29371SOL    HW194971  10.607   5.938   2.214 -0.5466  0.0453 -0.0149
29371SOL    HW294972  10.617   5.983   2.358 -0.8546  0.0550  0.0041
29372SOL     OW94973   6.475   5.744  10.650 -0.3728 -0.3146  0.4217
29372SOL    HW194974   6.430   5.821  10.683 -1.6605  0.0782 -2.0423
29372SOL    HW294975   6.421   5.713  10.577  1.4306 -2.0527 -0.2839
29373SOL     OW94976   9.634   8.582  10.309  0.0919  0.2298 -0.7444
29373SOL    HW194977   9.657   8.671  10.338 -0.1164 -0.5159  1.9644
29373SOL    HW294978   9.539   8.580  10.314  0.0627 -0.0033 -1.3398
29374SOL     OW94979   6.275  11.524   5.090 -0.0674 -0.0949 -0.3024
29374SOL    HW194980   6.201  11.473   5.058  0.2411 -1.3441  0.8873
29374SOL    HW294981   6.347  11.461   5.095  0.1433  0.2439  1.8680
29375SOL     OW94982   4.982   9.059   7.717 -0.0908  0.0542 -0.2477
29375SOL    HW194983   4.953   9.088   7.803 -1.1733  2.4773 -1.3196
29375SOL    HW294984   4.931   8.980   7.699  0.8106 -1.0240  1.6262
29376SOL     OW94985  10.327   1.736   0.796  0.0147 -0.1627 -0.2753
29376SOL    HW194986  10.253   1.796   0.808  0.3034  0.5282 -1.6940
29376SOL    HW294987  10.395   1.771   0.854  0.2798  1.1150 -1.2907
29377SOL     OW94988  12.190   8.970   9.352 -0.5850 -0.5392 -0.0185
29377SOL    HW194989  12.199   9.030   9.427  0.9937 -0.6879 -0.0642
29377SOL    HW294990  12.210   8.884   9.388 -1.0230 -0.7816 -0.3537
29378SOL     OW94991   7.571   1.592   6.124  0.0187  0.4689 -0.1663
29378SOL    HW194992   7.579   1.685   6.103 -0.2023  0.3413 -0.8297
29378SOL    HW294993   7.485   1.567   6.091  0.3719 -0.1400 -0.6490
29379SOL     OW94994   8.878   4.850   8.423  0.3181  0.1363 -0.4576
29379SOL    HW194995   8.914   4.809   8.345  0.1922 -0.4616 -0.2068
29379SOL    HW294996   8.888   4.944   8.407  0.4024  0.0184 -1.1357
29380SOL     OW94997   1.439   2.127   5.171 -0.1264  0.0325 -0.1450
29380SOL    HW194998   1.431   2.221   5.157 -0.7527  0.3605  2.0063
29380SOL    HW294999   1.349   2.098   5.190  0.4518 -0.3872  2.2823
29381SOL     OW95000   5.471   2.083  12.534  0.2186 -0.2130 -0.4036
29381SOL    HW195001   5.486   2.160  12.479 -0.0111 -0.2202 -0.4788
29381SOL    HW295002   5.375   2.076  12.539  0.2189 -1.2130 -1.4144
29382SOL     OW95003   1.906   6.757   6.634 -0.9079  0.6226  0.1898
29382SOL    HW195004   1.844   6.825   6.660 -0.3767  0.9979  0.5158
29382SOL    HW295005   1.868   6.718   6.555 -0.9291  1.7137 -0.3608
29383SOL     OW95006   4.039  11.258   7.967 -0.4598 -0.2512  0.1238
29383SOL    HW195007   4.134  11.248   7.976 -0.2314  0.1970 -1.5118
29383SOL    HW295008   4.017  11.328   8.029  0.3887  0.1274  0.0135
29384SOL     OW95009   6.301   6.480   9.200  0.0718  0.6735 -0.4113
29384SOL    HW195010   6.318   6.492   9.107  0.7122  0.4123 -0.3300
29384SOL    HW295011   6.370   6.530   9.244 -0.6512  1.4021 -0.0676
29385SOL     OW95012   2.420   0.130   6.908  0.1906  0.2354  0.1438
29385SOL    HW195013   2.477   0.109   6.982  0.3761 -0.0469 -0.0782
29385SOL    HW295014   2.477   0.172   6.845 -0.2434  1.7701  0.7265
29386SOL     OW95015   0.070   8.139   6.088  0.3603  0.1735  0.4437
29386SOL    HW195016  -0.022   8.124   6.067  0.6053 -0.6925 -0.0664
29386SOL    HW295017   0.080   8.234   6.090 -0.4981  0.2711  0.3068
29387SOL     OW95018  10.110   2.241   6.582  0.1966 -0.0162 -0.3637
29387SOL    HW195019  10.083   2.151   6.603 -0.3474  0.5010  1.3451
29387SOL    HW295020  10.098   2.248   6.487 -2.5171 -0.8910 -0.1831
29388SOL     OW95021   7.918   4.840   9.826 -0.4055 -0.0561 -0.8022
29388SOL    HW195022   7.833   4.827   9.868 -0.2825 -0.9941 -0.8183
29388SOL    HW295023   7.949   4.751   9.808  1.6670  0.1022  1.4194
29389SOL     OW95024   5.753   0.006  11.462 -0.1221  0.0581  0.5581
29389SOL    HW195025   5.678   0.040  11.509 -0.0855 -1.5303  1.8494
29389SOL    HW295026   5.827   0.019  11.521 -0.2054 -2.7057  1.4063
29390SOL     OW95027   0.748  11.227   5.566  0.7486  0.4520 -0.1039
29390SOL    HW195028   0.660  11.232   5.528  0.2664 -1.7151  0.6021
29390SOL    HW295029   0.804  11.271   5.502 -0.5502  0.0432 -1.5800
29391SOL     OW95030   9.667   8.803   0.353 -0.5993  0.3010  0.5227
29391SOL    HW195031   9.734   8.812   0.421 -1.1796  1.0560  1.0085
29391SOL    HW295032   9.586   8.833   0.394 -0.7561  1.8934 -0.8084
29392SOL     OW95033   5.906   3.059   2.529 -0.3268  0.0667  0.0199
29392SOL    HW195034   5.885   3.103   2.612 -0.5546  0.2143 -0.1129
29392SOL    HW295035   5.826   3.013   2.506 -0.0852 -0.4241  0.1577
29393SOL     OW95036   5.677   0.891   4.252  0.2935 -0.0546  0.0817
29393SOL    HW195037   5.670   0.985   4.268  1.0999 -0.1501  1.0633
29393SOL    HW295038   5.694   0.852   4.338 -1.5805 -1.2801 -0.0517
29394SOL     OW95039   4.033   2.771   9.056  0.3925 -0.5681 -0.5390
29394SOL    HW195040   3.998   2.744   8.971  0.5572  0.5327 -0.9706
29394SOL    HW295041   4.042   2.866   9.049 -1.0252 -0.2555  1.2373
29395SOL     OW95042   7.102   2.837   1.927 -0.4996 -0.1706  0.4028
29395SOL    HW195043   7.078   2.766   1.867  0.0089  0.5774 -0.7124
29395SOL    HW295044   7.103   2.796   2.014  0.8527 -1.7954 -0.3359
29396SOL     OW95045   8.703   9.983   1.986  0.4337  0.1249 -0.1455
29396SOL    HW195046   8.718   9.930   1.907  0.6728  0.3444 -0.2499
29396SOL    HW295047   8.790   9.991   2.025  0.1877 -0.6925  0.5959
29397SOL     OW95048   8.589   6.535  11.286  0.2815 -0.2035  0.4175
29397SOL    HW195049   8.574   6.595  11.359  1.0689  0.9414 -0.3289
29397SOL    HW295050   8.680   6.508  11.295  0.2963 -0.2921  0.0404
29398SOL     OW95051  12.138  10.339   4.581 -0.2289  0.7258 -0.1180
29398SOL    HW195052  12.123  10.273   4.648  0.1761  1.4566  0.7158
29398SOL    HW295053  12.062  10.332   4.523 -0.7420  0.2852  0.5934
29399SOL     OW95054   5.928  11.126   3.460  0.0369 -0.3991  0.5031
29399SOL    HW195055   5.966  11.213   3.446  0.2972 -0.6309 -0.2820
29399SOL    HW295056   5.983  11.087   3.528 -1.2340  0.7453  2.2747
29400SOL     OW95057   2.882   1.025   0.879 -0.3613 -0.2407  0.2034
29400SOL    HW195058   2.825   1.057   0.948 -1.2957  1.6968 -1.3599
29400SOL    HW295059   2.825   1.016   0.803  0.4282 -3.2791 -0.1668
29401SOL     OW95060   7.337   5.659  11.723  0.2510  0.6209  0.0850
29401SOL    HW195061   7.245   5.683  11.731  0.6433  1.6377  2.2108
29401SOL    HW295062   7.376   5.729  11.671 -0.2983 -0.2974 -1.6429
29402SOL     OW95063   8.325   6.942   3.901  0.4398  0.0677  0.2032
29402SOL    HW195064   8.344   7.020   3.953  0.4158 -0.6682  1.3745
29402SOL    HW295065   8.410   6.901   3.888  0.3795 -0.0412  0.1446
29403SOL     OW95066   5.463   1.437   1.988 -0.9076 -0.2478  0.0264
29403SOL    HW195067   5.452   1.471   2.077 -2.0070 -2.4196  0.7768
29403SOL    HW295068   5.462   1.515   1.933 -1.3685  1.0733  1.7980
29404SOL     OW95069   4.557  11.598   8.693 -0.0931 -0.2494 -0.1007
29404SOL    HW195070   4.559  11.576   8.600 -2.4488 -1.1912  0.0088
29404SOL    HW295071   4.649  11.609   8.717  0.6517 -1.3193 -2.2303
29405SOL     OW95072   0.065   9.715  11.140 -0.6641 -0.3979  0.3803
29405SOL    HW195073   0.016   9.779  11.088  0.0711 -0.7245 -0.7547
29405SOL    HW295074   0.054   9.744  11.231  1.0469  2.3713 -0.1560
29406SOL     OW95075   0.156   8.011   1.083  0.2144 -0.0181  0.6554
29406SOL    HW195076   0.242   8.023   1.042  0.6806 -0.9374  1.3312
29406SOL    HW295077   0.157   8.070   1.158  0.2308 -0.0036  0.6440
29407SOL     OW95078   2.002   1.104   7.660 -0.2592 -0.1871 -0.2890
29407SOL    HW195079   2.074   1.165   7.679 -0.8813  1.0895 -1.7856
29407SOL    HW295080   1.957   1.094   7.744  0.7008  0.2676  0.3095
29408SOL     OW95081   4.630   8.487   7.276 -0.0743 -0.1856  0.2057
29408SOL    HW195082   4.607   8.570   7.234 -0.6386  0.1989  1.2400
29408SOL    HW295083   4.696   8.449   7.218 -0.9762  0.2080 -1.1483
29409SOL     OW95084   9.983   6.964   6.644 -0.2414  0.3214 -0.5420
29409SOL    HW195085  10.035   6.910   6.585  0.3266 -1.0652  1.1225
29409SOL    HW295086   9.893   6.945   6.621 -0.0547 -1.4718  0.0569
29410SOL     OW95087  12.244   7.372  12.118 -0.8161 -0.0500  0.0432
29410SOL    HW195088  12.325   7.413  12.148 -1.1443  0.7482 -0.1481
29410SOL    HW295089  12.244   7.384  12.023 -0.6727 -0.9535 -0.0847
29411SOL     OW95090  11.027   8.016   3.161  0.0281 -0.5890  0.3891
29411SOL    HW195091  11.020   8.053   3.249 -0.8695  0.2713 -0.0167
29411SOL    HW295092  11.013   8.090   3.103  2.4311 -0.7723 -0.5379
29412SOL     OW95093  10.494   7.548   1.018 -0.4039 -0.2464 -0.5706
29412SOL    HW195094  10.571   7.529   1.072 -1.0643 -0.8311  0.2021
29412SOL    HW295095  10.500   7.642   0.999  1.3404 -0.5875 -1.9106
29413SOL     OW95096  10.326   5.480   2.176  0.4052 -0.3834  0.0650
29413SOL    HW195097  10.361   5.437   2.254  0.6131  1.7785  1.2571
29413SOL    HW295098  10.275   5.553   2.210 -3.3555 -1.9428 -1.7088
29414SOL     OW95099   0.062   8.156  12.045  0.1756 -0.0281  0.0805
29414SOL    HW195100  -0.022   8.201  12.046 -0.9633 -1.9291 -1.4659
29414SOL    HW295101   0.088   8.151  12.137 -0.8767  1.4792  0.4967
29415SOL     OW95102   3.665   8.705  10.132 -0.0296 -0.3616 -0.3479
29415SOL    HW195103   3.609   8.732  10.060  0.7284 -0.4689 -0.9968
29415SOL    HW295104   3.711   8.785  10.159  0.6981 -0.5755 -0.9095
29416SOL     OW95105  12.113  11.029   3.746 -0.4604 -0.3909 -0.3036
29416SOL    HW195106  12.196  10.985   3.765  0.9609  1.9644 -0.7176
29416SOL    HW295107  12.081  11.058   3.831 -0.6996 -0.9885 -0.1837
29417SOL     OW95108   2.604   8.591   3.780 -0.3882  0.3856 -0.6651
29417SOL    HW195109   2.603   8.520   3.716  1.1190  0.1411 -0.4671
29417SOL    HW295110   2.644   8.665   3.734  1.0643  0.0941  0.0552
29418SOL     OW95111   7.234   9.532   8.720  0.0371 -0.1305  0.2007
29418SOL    HW195112   7.280   9.524   8.637  0.3623 -1.5260  0.4940
29418SOL    HW295113   7.297   9.576   8.778  0.2412 -0.2137  0.0405
29419SOL     OW95114  10.902   3.053   8.816  0.3259  0.0118  0.5373
29419SOL    HW195115  10.864   2.987   8.874 -0.5230  0.3267  0.3517
29419SOL    HW295116  10.853   3.133   8.835  0.6152  0.3221 -0.0079
29420SOL     OW95117   0.874  10.242   3.089  0.5683 -0.1905  0.1671
29420SOL    HW195118   0.839  10.309   3.148  1.0786 -0.6962  1.0582
29420SOL    HW295119   0.880  10.164   3.143 -2.3188 -1.6726 -1.4493
29421SOL     OW95120   3.303   1.365   1.546 -0.2035 -0.6866 -0.2586
29421SOL    HW195121   3.366   1.419   1.498 -0.7427  1.4746  1.3129
29421SOL    HW295122   3.332   1.275   1.531  1.6519  0.0884 -1.7504
29422SOL     OW95123  12.470   1.826   5.565  0.2003  0.1844 -0.5202
29422SOL    HW195124  12.391   1.852   5.611  0.0348 -0.4068 -0.4717
29422SOL    HW295125  12.477   1.889   5.492  0.9274  1.6773  0.7619
29423SOL     OW95126   0.665   1.671   6.052  0.6111  0.0418 -0.3093
29423SOL    HW195127   0.717   1.626   5.985  2.1708 -1.0647  1.5155
29423SOL    HW295128   0.649   1.604   6.118 -0.2621  1.2522  0.7566
29424SOL     OW95129   6.887   6.996  10.073  0.3566  0.3229 -0.7834
29424SOL    HW195130   6.976   6.961  10.072  0.4557  0.5819 -0.8548
29424SOL    HW295131   6.896   7.087  10.046  0.3420  0.9674  1.2054
29425SOL     OW95132   1.665   0.330   7.131  0.0462  0.3777 -0.2108
29425SOL    HW195133   1.599   0.262   7.121  1.2746 -0.8318 -0.3610
29425SOL    HW295134   1.621   0.411   7.106 -1.2508 -0.4529 -0.6688
29426SOL     OW95135  12.144   5.717   6.504 -0.4141  0.1553 -0.2131
29426SOL    HW195136  12.132   5.740   6.596  4.2214 -1.3014  1.0210
29426SOL    HW295137  12.110   5.628   6.497  0.9953 -0.4930  0.7097
29427SOL     OW95138   8.345   0.385   5.628 -0.4208  0.2934  0.4766
29427SOL    HW195139   8.408   0.453   5.608 -2.2630  3.8162  4.8270
29427SOL    HW295140   8.270   0.404   5.572  0.0771 -0.0622 -0.3365
29428SOL     OW95141   9.207   3.543   1.397 -0.1511 -0.2804  0.3247
29428SOL    HW195142   9.259   3.544   1.478 -1.7689 -0.7947  1.4326
29428SOL    HW295143   9.235   3.464   1.351  2.0946  0.9572 -0.5839
29429SOL     OW95144   8.717   9.385   2.025 -0.1005 -0.4001 -1.2163
29429SOL    HW195145   8.810   9.404   2.019 -0.1922  1.0975  1.0818
29429SOL    HW295146   8.676   9.469   2.041 -1.9345 -0.9879 -2.4516
29430SOL     OW95147   5.833   8.084   6.658 -0.1309 -0.4583 -0.1226
29430SOL    HW195148   5.864   8.166   6.619  0.7827 -0.2909  0.9128
29430SOL    HW295149   5.819   8.025   6.584  3.0035 -0.6625 -0.6726
29431SOL     OW95150   2.877   7.137   8.570 -0.3598  0.2846  0.2453
29431SOL    HW195151   2.933   7.061   8.551 -0.5388  0.4112 -0.8921
29431SOL    HW295152   2.938   7.209   8.581 -0.2669  0.7364 -2.4796
29432SOL     OW95153   9.729   6.484   0.902 -0.2615 -0.7909 -0.4700
29432SOL    HW195154   9.644   6.447   0.881  1.3741 -4.4975 -1.4919
29432SOL    HW295155   9.758   6.434   0.979  1.5019 -0.6195 -0.9679
29433SOL     OW95156   3.406   6.278   4.207 -0.0515  0.1671 -0.2038
29433SOL    HW195157   3.381   6.264   4.116 -0.5985  3.0044 -0.6042
29433SOL    HW295158   3.323   6.274   4.256  0.2685 -1.5842  0.2534
29434SOL     OW95159   2.665   1.886   0.610 -0.0003 -0.2749  0.4919
29434SOL    HW195160   2.646   1.968   0.563 -0.6148  0.1212  1.4096
29434SOL    HW295161   2.605   1.822   0.571 -1.6962  0.4357  1.8094
29435SOL     OW95162   7.308   2.603   5.094  0.1266 -0.0025  0.2307
29435SOL    HW195163   7.293   2.630   5.004  1.9953  0.7053  0.0837
29435SOL    HW295164   7.359   2.674   5.133  0.1486 -0.7068  1.5821
29436SOL     OW95165   5.564   4.079   4.208 -0.3051 -0.2782  0.0618
29436SOL    HW195166   5.607   4.138   4.269 -0.2610 -1.6046  1.3946
29436SOL    HW295167   5.529   4.135   4.140  1.5102  1.0578  0.1703
29437SOL     OW95168  10.539  10.392   6.305 -0.0032 -0.2013 -0.2233
29437SOL    HW195169  10.456  10.402   6.258  0.4801  0.6945 -0.9255
29437SOL    HW295170  10.537  10.461   6.372  1.0880  1.3190 -1.6711
29438SOL     OW95171  11.890   4.878   7.988  0.5422  0.2011  0.1884
29438SOL    HW195172  11.834   4.941   8.031 -0.3065  0.1238 -0.7674
29438SOL    HW295173  11.902   4.913   7.900 -1.3637 -1.7468 -0.9492
29439SOL     OW95174   2.539   3.948   7.947 -0.1286  0.9170  0.4807
29439SOL    HW195175   2.471   3.883   7.966 -0.5104  1.0488 -0.3691
29439SOL    HW295176   2.521   4.020   8.007  1.8759 -0.7379  3.3561
29440SOL     OW95177  10.151   2.196   0.868  0.6305  0.2264 -0.3913
29440SOL    HW195178  10.220   2.158   0.924  0.6500  2.1521  0.9850
29440SOL    HW295179  10.087   2.230   0.930 -1.3348 -0.9939 -1.6483
29441SOL     OW95180   5.300   7.831   3.132 -0.2164 -0.1616 -0.0099
29441SOL    HW195181   5.228   7.774   3.156 -0.2816  0.2190  0.7326
29441SOL    HW295182   5.315   7.814   3.039 -2.1884  0.7765 -0.5328
29442SOL     OW95183   1.005   4.615   1.513 -0.5446 -0.3595 -0.3250
29442SOL    HW195184   0.950   4.633   1.590 -1.0197 -0.8316 -0.5483
29442SOL    HW295185   1.071   4.553   1.546 -0.1248  0.2176 -0.0541
29443SOL     OW95186   6.544   4.568   6.628 -0.0833 -0.1629  0.5256
29443SOL    HW195187   6.483   4.567   6.554  1.8225  2.7167 -1.3038
29443SOL    HW295188   6.493   4.600   6.702 -1.1850  0.6612 -0.5453
29444SOL     OW95189   0.844   2.016  10.318 -0.6614  0.3287 -0.0105
29444SOL    HW195190   0.816   1.937  10.271  0.1694  0.0177 -0.0034
29444SOL    HW295191   0.903   2.060  10.258 -0.6742  0.6534  0.2111
29445SOL     OW95192   0.557   2.591   5.522  0.6597 -0.7880  0.7426
29445SOL    HW195193   0.476   2.638   5.502  0.1460 -0.4076  3.3901
29445SOL    HW295194   0.530   2.499   5.523  1.1004 -1.0162 -1.8477
29446SOL     OW95195   4.284   4.255   0.390  0.4991 -0.1640  0.0129
29446SOL    HW195196   4.350   4.221   0.330  0.2449  0.9265 -0.9250
29446SOL    HW295197   4.317   4.232   0.477  0.8802 -1.7618 -0.5248
29447SOL     OW95198   7.359   6.467   0.316  0.3322  0.6020 -0.1073
29447SOL    HW195199   7.379   6.549   0.362  1.3315  1.2884 -1.6604
29447SOL    HW295200   7.363   6.400   0.384 -0.3436  1.8035  1.1756
29448SOL     OW95201   6.530  11.328   2.623 -0.8804  0.0541 -0.1068
29448SOL    HW195202   6.488  11.292   2.702 -0.4081 -1.9451 -0.7200
29448SOL    HW295203   6.457  11.344   2.563 -1.0715 -0.4542 -0.0218
29449SOL     OW95204   6.187   9.992   7.233  0.2227  0.2333 -0.2828
29449SOL    HW195205   6.242  10.035   7.298 -1.7714  0.4841  1.3242
29449SOL    HW295206   6.169  10.060   7.168  1.9691  0.0639 -1.0087
29450SOL     OW95207   2.129   4.655   7.941  0.0002  0.0145  0.5569
29450SOL    HW195208   2.120   4.636   8.034 -0.1730  1.3623  0.8241
29450SOL    HW295209   2.213   4.699   7.933  0.2846 -0.6022 -0.0244
29451SOL     OW95210  11.358  12.222   9.149 -0.3531  0.1712 -0.4319
29451SOL    HW195211  11.335  12.134   9.179 -2.8862  1.1485  0.7637
29451SOL    HW295212  11.320  12.229   9.062  1.1529 -0.3625 -1.1738
29452SOL     OW95213   0.738  11.827  12.279 -0.1352 -0.4413 -0.0721
29452SOL    HW195214   0.785  11.863  12.204  0.4271 -0.0043  0.4819
29452SOL    HW295215   0.646  11.828  12.253  0.1278 -1.0996 -1.0839
29453SOL     OW95216   2.798  12.551   7.627 -0.5345 -0.4779  0.1093
29453SOL    HW195217   2.878  12.601   7.612 -0.2728 -1.5674 -2.8380
29453SOL    HW295218   2.828  12.461   7.636 -1.3522 -0.7580  0.0829
29454SOL     OW95219   0.298  10.514   9.084 -0.1864  0.6325 -0.6021
29454SOL    HW195220   0.324  10.480   9.170 -0.3824  3.3102  0.6127
29454SOL    HW295221   0.381  10.525   9.037  0.4899  3.4492  1.0261
29455SOL     OW95222   2.711   7.657   4.753 -0.0205  0.2409  0.4756
29455SOL    HW195223   2.693   7.715   4.827  0.5541  2.0814 -0.7436
29455SOL    HW295224   2.804   7.670   4.734 -0.3932  0.7141 -1.2423
29456SOL     OW95225   0.200   9.945   3.865  0.2612  0.4498  0.1777
29456SOL    HW195226   0.236  10.028   3.896  1.2564 -0.2730  1.0234
29456SOL    HW295227   0.176   9.962   3.774  0.2781  1.7114  0.3910
29457SOL     OW95228   1.430   8.882  11.380  0.5391  0.0470 -0.9893
29457SOL    HW195229   1.369   8.865  11.308  1.8915  0.2592 -2.2131
29457SOL    HW295230   1.513   8.845  11.351  1.2838  0.7230  0.1875
29458SOL     OW95231  10.977   3.165   4.179  0.3784  0.1621 -0.4318
29458SOL    HW195232  10.957   3.256   4.157  1.9150  0.7773  0.5833
29458SOL    HW295233  11.061   3.169   4.224  0.8468 -1.8540 -1.0372
29459SOL     OW95234  10.057   4.651   5.857 -0.3153 -0.1099 -0.0151
29459SOL    HW195235   9.996   4.614   5.793  0.2712  2.2511 -2.1048
29459SOL    HW295236  10.143   4.620   5.829 -0.1594  0.0059  0.3346
29460SOL     OW95237  10.964   2.581  10.070 -0.2472 -0.0307  0.0464
29460SOL    HW195238  10.902   2.654  10.067 -0.6643 -0.3175  1.1524
29460SOL    HW295239  11.019   2.593   9.993  0.4539  2.1335  0.8255
29461SOL     OW95240   6.570   0.770   8.184  0.1818 -0.1602 -0.2356
29461SOL    HW195241   6.620   0.702   8.229  1.4373  0.9362  0.0804
29461SOL    HW295242   6.614   0.782   8.100 -0.1193  0.1565 -0.3518
29462SOL     OW95243   2.121   0.796   1.057  0.4188 -0.2485  0.6180
29462SOL    HW195244   2.178   0.841   1.120  0.6868  0.0628  0.1564
29462SOL    HW295245   2.176   0.780   0.981 -0.1376  0.2015  0.1021
29463SOL     OW95246   7.620   7.451  11.554 -0.2323  0.0693 -0.2678
29463SOL    HW195247   7.644   7.481  11.467 -1.2608  1.1282 -0.2067
29463SOL    HW295248   7.531   7.483  11.567  0.8387  2.4659  2.2706
29464SOL     OW95249   2.526   4.458   3.383  0.2474  0.2986  0.0579
29464SOL    HW195250   2.538   4.431   3.292 -1.0254  1.4372 -0.4884
29464SOL    HW295251   2.586   4.403   3.433  0.3271 -0.9574 -1.3652
29465SOL     OW95252   8.678  10.452   9.064 -0.0767 -0.3346  0.0829
29465SOL    HW195253   8.744  10.424   9.128 -1.0467 -0.3404  1.1220
29465SOL    HW295254   8.686  10.388   8.993  0.8188 -0.5189  0.3238
29466SOL     OW95255   0.205  11.818   4.433 -0.6345 -0.0647  0.0316
29466SOL    HW195256   0.141  11.748   4.447  1.1863 -1.9624 -0.6575
29466SOL    HW295257   0.234  11.842   4.521 -0.4240 -1.0409  0.2432
29467SOL     OW95258   3.949   5.025   4.276  0.0571  0.3440 -0.1065
29467SOL    HW195259   3.911   4.981   4.200  1.3176 -1.1616  0.0871
29467SOL    HW295260   3.893   5.102   4.289 -1.9796 -0.9497 -0.7218
29468SOL     OW95261   7.669   4.253   7.077  0.1237  0.0171  0.3020
29468SOL    HW195262   7.672   4.158   7.063 -0.8105  0.3168 -2.2733
29468SOL    HW295263   7.606   4.264   7.149 -0.4477 -1.2536  0.0257
29469SOL     OW95264   2.294   0.366   1.683 -0.5640  0.9131  0.0557
29469SOL    HW195265   2.251   0.285   1.655  0.4551  0.4938 -0.3401
29469SOL    HW295266   2.284   0.426   1.609  0.6348  0.3789 -0.5664
29470SOL     OW95267   0.359   2.484   5.108  0.3016  0.5629  0.1780
29470SOL    HW195268   0.266   2.506   5.109  0.6652  2.1834  0.7337
29470SOL    HW295269   0.362   2.395   5.071 -1.2303  1.5051 -2.4710
29471SOL     OW95270   1.942   6.420   8.649  0.2727 -0.3163  0.2766
29471SOL    HW195271   2.015   6.429   8.587  0.3142 -1.4635  0.1456
29471SOL    HW295272   1.910   6.509   8.660  0.1697 -0.0837 -1.5242
29472SOL     OW95273   9.979  10.293   1.248 -0.1407 -0.6667 -0.3354
29472SOL    HW195274   9.884  10.283   1.253 -0.0622 -0.7587  1.1669
29472SOL    HW295275   9.993  10.339   1.165 -1.3584 -2.1532 -1.4333
29473SOL     OW95276   8.164  11.686   3.180  0.1053  0.2933 -0.3510
29473SOL    HW195277   8.083  11.655   3.140  0.7326 -0.4235 -1.1123
29473SOL    HW295278   8.139  11.764   3.229 -1.2264 -0.4806  0.2651
29474SOL     OW95279   0.994   7.675   1.865 -0.6352  0.1110 -0.2682
29474SOL    HW195280   1.015   7.688   1.773 -1.7344 -0.5718 -0.6362
29474SOL    HW295281   0.991   7.580   1.876  0.3697  0.1640  0.7005
29475SOL     OW95282   7.479   5.317  10.639  0.1643  0.2931 -0.0185
29475SOL    HW195283   7.508   5.407  10.655 -0.0946  0.0513  2.0524
29475SOL    HW295284   7.512   5.296  10.551 -1.0452  2.9033 -1.2112
29476SOL     OW95285   4.225  11.293   4.109  0.0939  0.4443  0.4856
29476SOL    HW195286   4.134  11.297   4.140  0.2116  0.1390  0.8838
29476SOL    HW295287   4.271  11.242   4.176  0.6341  0.8959  0.4685
29477SOL     OW95288   4.785  11.309   4.103  0.3902 -0.3645 -0.2282
29477SOL    HW195289   4.776  11.245   4.032  0.5207 -2.4037  1.5077
29477SOL    HW295290   4.720  11.377   4.082  0.6500 -0.7191 -2.4312
29478SOL     OW95291   9.704   9.112   6.890  0.0527  0.4705  0.1462
29478SOL    HW195292   9.692   9.079   6.801  1.7797 -0.9623  0.3710
29478SOL    HW295293   9.616   9.131   6.921 -0.6488  0.1793 -1.5743
29479SOL     OW95294   1.222   8.599   4.454 -0.1177  0.9712  0.0863
29479SOL    HW195295   1.282   8.577   4.383  1.1242 -0.1427  1.4342
29479SOL    HW295296   1.136   8.573   4.422  0.1873  1.8896 -1.5816
29480SOL     OW95297   3.932   1.456   0.043  0.7700  0.0326 -0.3263
29480SOL    HW195298   3.942   1.497  -0.043  1.2135  0.3317 -0.1391
29480SOL    HW295299   3.869   1.512   0.088  0.3157 -0.2935 -0.5615
29481SOL     OW95300   8.076   9.389  10.761  0.0520 -0.3313 -0.3408
29481SOL    HW195301   8.131   9.421  10.691 -0.8798  0.7591 -0.5992
29481SOL    HW295302   8.119   9.418  10.842 -0.4560  1.0697 -0.5565
29482SOL     OW95303   4.452   9.415   6.281  0.0392 -0.1747  0.7516
29482SOL    HW195304   4.430   9.449   6.368  0.5250  2.1096  0.0530
29482SOL    HW295305   4.546   9.428   6.273 -0.2805  1.6030 -0.8464
29483SOL     OW95306  10.028   3.104  10.260 -0.2129  0.1142  0.3496
29483SOL    HW195307  10.095   3.099  10.328 -0.3844 -1.9078  0.4217
29483SOL    HW295308  10.017   3.198  10.245  0.2602  0.6038  2.6524
29484SOL     OW95309   6.831   1.330   6.773 -0.4317  0.1223  0.0021
29484SOL    HW195310   6.902   1.323   6.708 -0.1819 -1.8313  0.4056
29484SOL    HW295311   6.875   1.323   6.858 -1.0171 -0.1946  0.2868
29485SOL     OW95312   4.929  10.237  10.540 -0.5116  0.1522  0.3465
29485SOL    HW195313   4.981  10.177  10.594  1.0104  0.2355 -0.9464
29485SOL    HW295314   4.939  10.204  10.451 -0.2143  1.8920 -0.3108
29486SOL     OW95315   3.504   2.745   3.839  0.0264  0.0696 -0.1644
29486SOL    HW195316   3.544   2.816   3.889  1.8027 -0.8372 -0.2143
29486SOL    HW295317   3.492   2.674   3.902 -0.4612 -0.0709 -0.4048
29487SOL     OW95318   5.115  11.562   5.546 -0.0812  0.1364 -0.0561
29487SOL    HW195319   5.198  11.519   5.567 -0.1648 -0.7127 -1.3555
29487SOL    HW295320   5.125  11.592   5.455 -1.5422 -0.9141 -0.6134
29488SOL     OW95321   5.475   5.746   7.317  0.2943  0.4012  0.4332
29488SOL    HW195322   5.456   5.757   7.410  2.2302 -0.0481  0.9471
29488SOL    HW295323   5.525   5.665   7.313 -0.3412  0.0567 -1.1119
29489SOL     OW95324   6.980   8.184   2.925 -0.0165  0.0812  0.1002
29489SOL    HW195325   7.027   8.173   2.842  0.7482 -1.2206  0.6639
29489SOL    HW295326   7.010   8.269   2.958  0.6601  0.0330 -0.3508
29490SOL     OW95327   8.564   6.865   3.300 -0.0241  0.1055 -0.3332
29490SOL    HW195328   8.601   6.949   3.329 -1.3720  0.6365 -0.0971
29490SOL    HW295329   8.489   6.889   3.246 -1.0159 -0.9427  0.5370
29491SOL     OW95330   1.240   1.008   1.151  0.4220  0.5567  0.2042
29491SOL    HW195331   1.308   0.973   1.093  0.6231  0.0262  0.7591
29491SOL    HW295332   1.186   1.062   1.093 -1.3593 -2.5333 -1.2720
29492SOL     OW95333   6.945   5.516   5.977  0.3413 -0.0137 -0.1430
29492SOL    HW195334   6.880   5.560   6.031  1.1988  0.4899  0.4997
29492SOL    HW295335   6.896   5.483   5.901 -0.6954  0.1152  0.4641
29493SOL     OW95336   1.118  11.403   9.506 -0.5765 -0.1869  0.1009
29493SOL    HW195337   1.135  11.491   9.540  1.7755 -0.3318 -0.5543
29493SOL    HW295338   1.074  11.418   9.423  0.9146  0.4527 -0.6019
29494SOL     OW95339   2.457   7.062  11.510 -0.2237 -0.0087 -0.3191
29494SOL    HW195340   2.380   7.005  11.519 -0.4665  0.6057  2.3948
29494SOL    HW295341   2.424   7.150  11.527  0.8498  0.4346 -0.4722
29495SOL     OW95342   9.420   3.026   8.665 -0.5075  0.5915  0.0884
29495SOL    HW195343   9.481   2.962   8.701 -0.4387  0.4855 -0.2087
29495SOL    HW295344   9.374   3.062   8.741 -0.1700  0.5754  0.3023
29496SOL     OW95345  12.299   9.135   4.912 -0.5650 -0.5469 -0.5138
29496SOL    HW195346  12.271   9.217   4.952  0.2317 -0.5895  0.1654
29496SOL    HW295347  12.342   9.161   4.831  0.7220 -0.1718  0.2565
29497SOL     OW95348   0.477   5.470  12.026  0.2169  0.0131 -0.3648
29497SOL    HW195349   0.531   5.523  11.968  2.6696 -0.2651  1.4690
29497SOL    HW295350   0.529   5.391  12.042 -1.5403 -1.1077  0.1516
29498SOL     OW95351   8.522   5.264  12.064  0.2543 -0.0642  0.3937
29498SOL    HW195352   8.508   5.234  11.974  1.2617  1.1105 -0.1795
29498SOL    HW295353   8.468   5.206  12.117  0.4237 -1.4375 -0.8740
29499SOL     OW95354   8.994   2.866   0.022 -0.1423 -0.0387 -0.0224
29499SOL    HW195355   9.063   2.806  -0.005  1.5828  1.5646  0.6119
29499SOL    HW295356   8.957   2.898  -0.061  0.8484  0.1493 -0.4091
29500SOL     OW95357   6.075   1.923   4.701 -0.0136  0.0145  0.1071
29500SOL    HW195358   5.988   1.901   4.734  0.0181  0.0044  0.1849
29500SOL    HW295359   6.086   1.870   4.623  0.6816 -1.4358  1.1379
29501SOL     OW95360  10.070  10.663  12.444  0.0217 -0.0288  0.0301
29501SOL    HW195361  10.019  10.584  12.425  1.2660 -0.7527 -0.3921
29501SOL    HW295362  10.127  10.674  12.369  0.5010  0.7645  0.4929
29502SOL     OW95363   2.400  10.259   5.826 -0.2482  0.0961  0.0121
29502SOL    HW195364   2.315  10.244   5.784 -0.3289 -1.8946  0.7817
29502SOL    HW295365   2.392  10.346   5.866 -1.3196  0.6276 -1.2881
29503SOL     OW95366   7.493   5.626   3.311 -0.0314 -0.4720 -0.5341
29503SOL    HW195367   7.409   5.616   3.267  0.2674 -1.5700 -0.8957
29503SOL    HW295368   7.557   5.590   3.250  0.5483 -0.8025  0.2425
29504SOL     OW95369   8.593   6.624   1.005  0.6702 -0.5594  0.0449
29504SOL    HW195370   8.643   6.640   0.925  1.0644 -1.1633  0.1625
29504SOL    HW295371   8.538   6.702   1.016  0.8711 -0.3217 -0.6191
29505SOL     OW95372   1.859   2.168  12.257  0.6582 -0.2321 -0.0961
29505SOL    HW195373   1.948   2.141  12.236  1.3441  2.1966 -0.6515
29505SOL    HW295374   1.862   2.193  12.349  0.7937  0.6387 -0.3259
29506SOL     OW95375   7.691  12.137  12.390  0.2825 -0.0638 -0.1450
29506SOL    HW195376   7.683  12.081  12.467  2.6879 -1.1570 -0.6096
29506SOL    HW295377   7.705  12.225  12.425 -1.8608  0.0502  0.5857
29507SOL     OW95378  10.285   5.041   6.658 -0.6352  0.0548  0.6377
29507SOL    HW195379  10.376   5.064   6.642  0.0401 -1.4522  2.0382
29507SOL    HW295380  10.257   5.100   6.728 -0.8591  0.7260 -0.0018
29508SOL     OW95381   4.075   7.664   5.320 -0.4621 -0.1788  0.4152
29508SOL    HW195382   4.029   7.713   5.389 -2.0720  0.7316 -1.2244
29508SOL    HW295383   4.128   7.601   5.368 -2.3829 -0.3532  2.5142
29509SOL     OW95384   8.157  10.068  10.286 -0.6010  0.6631 -0.3379
29509SOL    HW195385   8.194  10.014  10.356 -0.8479 -2.0173 -2.1228
29509SOL    HW295386   8.216  10.143  10.281  0.5300 -0.0159  1.4621
29510SOL     OW95387   3.552   7.772   0.114  0.5387 -0.2237  0.3122
29510SOL    HW195388   3.550   7.867   0.115  3.0445 -0.0796 -0.4957
29510SOL    HW295389   3.505   7.747   0.035 -0.1464  0.3094  0.5406
29511SOL     OW95390   4.219  12.556   2.957  0.2273 -0.5442 -0.2796
29511SOL    HW195391   4.182  12.643   2.946  1.2474 -0.2235 -1.3837
29511SOL    HW295392   4.287  12.550   2.890  1.1627 -1.6500  0.7241
29512SOL     OW95393   8.665   4.046   8.819 -0.3884 -0.2409  0.1893
29512SOL    HW195394   8.571   4.066   8.822 -0.5118 -0.4377 -1.5573
29512SOL    HW295395   8.706   4.124   8.856 -1.1541  0.8789 -1.1880
29513SOL     OW95396   9.491   8.552   9.680  0.0854  0.0518  0.2810
29513SOL    HW195397   9.477   8.630   9.627  1.0526 -1.0423 -1.6788
29513SOL    HW295398   9.586   8.540   9.680  0.2042  0.4081  2.9180
29514SOL     OW95399  10.643   4.041  11.164  0.1702 -0.6726  0.3037
29514SOL    HW195400  10.606   3.963  11.124 -0.4380 -0.8324  1.1497
29514SOL    HW295401  10.665   4.098  11.090  0.5920 -1.6154 -0.3204
29515SOL     OW95402   1.897  10.688   6.376 -0.1062  0.2824 -0.5032
29515SOL    HW195403   1.837  10.724   6.311  0.7980  2.5918 -0.1638
29515SOL    HW295404   1.844  10.628   6.428 -1.3080 -0.1137 -2.1301
29516SOL     OW95405   9.011   5.964   5.099  0.3016  0.3384  0.2721
29516SOL    HW195406   8.935   6.021   5.096  0.1360  0.1363  0.5800
29516SOL    HW295407   9.071   6.000   5.034 -0.2251  0.2602 -0.2670
29517SOL     OW95408   6.797   2.399  12.519 -0.3595  0.0263 -0.1750
29517SOL    HW195409   6.715   2.356  12.494 -0.3441 -0.0106 -0.1612
29517SOL    HW295410   6.849   2.330  12.560  1.0819 -0.8877 -3.2303
29518SOL     OW95411  11.423  10.980  10.984 -0.4931 -0.1879 -0.2172
29518SOL    HW195412  11.511  10.965  10.949 -1.1336  1.0008 -2.5390
29518SOL    HW295413  11.382  10.893  10.981  0.1993 -0.5264 -0.3037
29519SOL     OW95414   2.127   2.457   9.718 -0.2824  0.0926 -0.0218
29519SOL    HW195415   2.209   2.434   9.673 -0.3726 -1.8661  0.6770
29519SOL    HW295416   2.069   2.489   9.649  0.2423 -0.9511 -0.9890
29520SOL     OW95417   3.263   8.541   8.754  0.6941 -0.0769 -0.0829
29520SOL    HW195418   3.262   8.549   8.659  1.7216 -2.2756 -0.3548
29520SOL    HW295419   3.356   8.551   8.778  0.4362  0.5164  0.6918
29521SOL     OW95420   2.355   6.759  10.991  0.0942 -0.6976  0.0351
29521SOL    HW195421   2.412   6.750  11.067 -0.9785  0.3849  1.0113
29521SOL    HW295422   2.315   6.672  10.981  2.5150 -1.7604 -1.2531
29522SOL     OW95423   7.475   1.371   0.730 -0.4342 -0.3220  0.3124
29522SOL    HW195424   7.393   1.414   0.708 -0.4895 -1.1181 -1.2522
29522SOL    HW295425   7.464   1.343   0.821 -1.1489  1.1765  0.7231
29523SOL     OW95426   5.718   2.925   9.914  0.1983 -0.1201  0.3496
29523SOL    HW195427   5.731   2.907   9.820 -0.6270 -0.5817  0.3198
29523SOL    HW295428   5.785   2.872   9.957 -0.1619 -0.8120  0.0799
29524SOL     OW95429   3.925   0.732   4.859  0.2650  0.0225  0.5025
29524SOL    HW195430   3.843   0.712   4.904  1.3653 -1.9730  1.7757
29524SOL    HW295431   3.977   0.651   4.867  1.7508  0.6605 -1.6501
29525SOL     OW95432   1.990   3.691   3.515 -0.4178 -0.2242 -0.5880
29525SOL    HW195433   2.081   3.716   3.531 -0.1081 -0.7453 -1.4446
29525SOL    HW295434   1.970   3.727   3.429 -0.8871 -0.4660 -0.5845
29526SOL     OW95435   1.133  12.503  10.597 -0.3663  0.5207 -0.1229
29526SOL    HW195436   1.044  12.502  10.631 -0.3176  0.2674 -0.0040
29526SOL    HW295437   1.123  12.536  10.507 -0.6051  0.2915 -0.1841
29527SOL     OW95438  11.032   3.702   8.072  0.8742  0.3129 -0.4213
29527SOL    HW195439  10.973   3.760   8.025  0.0367 -0.9735 -1.0087
29527SOL    HW295440  11.047   3.629   8.012  0.3437 -1.0297  1.0106
29528SOL     OW95441   9.600  11.204   8.271 -0.2989 -0.5052 -0.0843
29528SOL    HW195442   9.603  11.124   8.324  0.3957 -0.9411 -0.7561
29528SOL    HW295443   9.681  11.202   8.221 -0.2377  0.6769 -0.0482
29529SOL     OW95444   5.984  10.649   4.900 -0.0517  0.1052  0.1231
29529SOL    HW195445   6.071  10.625   4.868  0.1832  0.8367  0.1836
29529SOL    HW295446   5.982  10.617   4.990 -1.4568 -3.7880 -1.1020
29530SOL     OW95447  12.044   8.790   0.721  0.1913  0.5355  0.3932
29530SOL    HW195448  11.957   8.785   0.681  0.1150 -0.8105  0.6738
29530SOL    HW295449  12.037   8.733   0.798  1.8686 -1.1530 -0.6312
29531SOL     OW95450   2.058   7.800   5.216  0.7582 -0.0758  0.2091
29531SOL    HW195451   2.095   7.877   5.173 -0.4015  1.1539  1.3271
29531SOL    HW295452   2.121   7.779   5.285  1.1831 -0.2867 -0.2337
29532SOL     OW95453   1.076   5.446  12.273  0.3331 -0.5014 -0.0317
29532SOL    HW195454   1.143   5.388  12.309 -1.3491 -3.2455 -0.9327
29532SOL    HW295455   1.014   5.458  12.345  0.6957  0.2400  0.1627
29533SOL     OW95456  12.097   5.681   5.095 -0.8726 -0.3838  0.0298
29533SOL    HW195457  12.065   5.744   5.160  1.2117  0.6964  0.0999
29533SOL    HW295458  12.134   5.610   5.147 -1.4678 -0.7367 -0.0237
29534SOL     OW95459   1.285   3.470  10.839 -1.0730 -0.0031  0.0645
29534SOL    HW195460   1.203   3.421  10.846 -1.3453  0.4970  0.4188
29534SOL    HW295461   1.351   3.411  10.877 -1.4764  0.0889  0.9451
29535SOL     OW95462   2.126   9.046   1.597  0.4012  0.1520  0.3089
29535SOL    HW195463   2.072   8.981   1.552  0.1251  0.9584 -0.5837
29535SOL    HW295464   2.085   9.057   1.682 -1.5695  1.5146 -0.7143
29536SOL     OW95465   2.510   6.248   6.477  0.8847  0.0337 -0.7562
29536SOL    HW195466   2.510   6.270   6.570 -0.3304 -0.3183 -0.6499
29536SOL    HW295467   2.542   6.158   6.473  2.4430  0.5559 -0.8550
29537SOL     OW95468   6.809   2.105   0.632 -0.1115  0.5178  0.1004
29537SOL    HW195469   6.766   2.054   0.700 -0.5556 -0.4198 -0.8515
29537SOL    HW295470   6.856   2.174   0.679 -0.7380  0.1397  1.3138
29538SOL     OW95471   7.258   3.942  10.371 -0.0484  0.3345  0.3198
29538SOL    HW195472   7.188   3.883  10.344 -0.4297  0.3696  1.2057
29538SOL    HW295473   7.307   3.892  10.437  1.4787 -0.1422 -1.1167
29539SOL     OW95474   4.737  10.422   2.522 -0.2693  0.4960 -0.1347
29539SOL    HW195475   4.789  10.406   2.443 -2.1168 -0.5227 -1.2054
29539SOL    HW295476   4.647  10.425   2.491 -0.9556  1.3239  1.7945
29540SOL     OW95477  11.733   4.966   9.408 -0.2994  0.3885  0.4094
29540SOL    HW195478  11.724   5.055   9.375 -1.4935  0.2171  0.2278
29540SOL    HW295479  11.679   4.964   9.487 -0.4149 -0.2190  0.3189
29541SOL     OW95480   2.000   9.858   4.038  0.4197  0.4198  0.1540
29541SOL    HW195481   2.056   9.853   3.960  1.7582  1.2516  1.0099
29541SOL    HW295482   1.914   9.881   4.004  0.2169 -2.1045 -1.3298
29542SOL     OW95483   5.340   2.869   1.327 -0.1322  0.7134 -0.7287
29542SOL    HW195484   5.396   2.838   1.398 -1.0259  0.9279  0.1035
29542SOL    HW295485   5.391   2.857   1.248  0.0303 -1.7273 -0.3126
29543SOL     OW95486   7.642   4.295   6.312 -0.5020 -0.4000  0.1795
29543SOL    HW195487   7.673   4.312   6.401  0.0303  0.6575 -0.1873
29543SOL    HW295488   7.561   4.245   6.323 -0.5790 -0.0513  1.2670
29544SOL     OW95489   6.169   6.806   8.992  0.0734  0.0989  0.7292
29544SOL    HW195490   6.156   6.776   9.082 -0.5278 -1.2507  0.2107
29544SOL    HW295491   6.110   6.881   8.982 -2.2202 -1.6354  0.5485
29545SOL     OW95492   9.081   7.084   8.791 -0.5230 -0.2244  0.0519
29545SOL    HW195493   9.153   7.048   8.843 -1.0719 -1.3958  0.0480
29545SOL    HW295494   9.102   7.061   8.701 -0.6381 -0.0982 -0.0069
29546SOL     OW95495   3.973   1.318   0.983 -0.0985  0.4375  0.3365
29546SOL    HW195496   3.916   1.258   0.934 -0.0427  0.6261  0.0355
29546SOL    HW295497   4.044   1.262   1.015 -0.5649  0.1644  0.8950
29547SOL     OW95498   7.955   5.532   4.432  0.7774 -0.3062  0.1526
29547SOL    HW195499   8.022   5.498   4.491  0.5687 -0.3516  0.3658
29547SOL    HW295500   7.981   5.623   4.416  1.9299 -0.8403 -1.2631
29548SOL     OW95501   9.940   0.890   4.047  0.4100 -0.2535 -0.2366
29548SOL    HW195502   9.947   0.832   3.971  0.7563  1.9998 -2.0492
29548SOL    HW295503   9.846   0.906   4.056  0.2463 -1.6038  0.7404
29549SOL     OW95504   2.317   5.517   1.211 -0.4087 -0.1580  0.0812
29549SOL    HW195505   2.325   5.604   1.251  0.8690 -1.3021  2.5195
29549SOL    HW295506   2.247   5.475   1.260 -1.6543 -0.2304 -1.7073
29550SOL     OW95507  12.108   3.989   4.857  0.0894 -0.0863  0.0548
29550SOL    HW195508  12.155   4.056   4.808  0.0091  0.3114  0.5092
29550SOL    HW295509  12.116   4.017   4.949  0.8632 -1.2056  0.3476
29551SOL     OW95510   0.252  11.398  12.266 -0.5740 -0.3359  0.3115
29551SOL    HW195511   0.248  11.382  12.360  0.5235 -1.0857  0.2554
29551SOL    HW295512   0.344  11.383  12.244 -0.9402 -0.8032 -0.9843
29552SOL     OW95513   0.886   9.005   6.963 -0.1765 -0.1942  0.1361
29552SOL    HW195514   0.809   9.024   7.017  1.1844 -0.3481  2.2523
29552SOL    HW295515   0.921   9.092   6.940 -0.4655 -0.1266 -0.0510
29553SOL     OW95516  11.893   5.784   7.712 -0.0253 -0.4366  0.1874
29553SOL    HW195517  11.946   5.861   7.694 -1.3242  0.4463 -0.0298
29553SOL    HW295518  11.883   5.784   7.807  1.0155 -1.0636  0.3002
29554SOL     OW95519   2.939   2.613   1.932 -0.0123  0.0777  0.0781
29554SOL    HW195520   3.010   2.641   1.874 -0.7973 -0.4486 -1.1773
29554SOL    HW295521   2.876   2.571   1.874 -1.5405  0.8648  1.1060
29555SOL     OW95522   1.529   3.419   3.907  0.3275 -1.0582  0.5776
29555SOL    HW195523   1.579   3.338   3.901  1.5530 -0.2442 -1.0378
29555SOL    HW295524   1.495   3.432   3.818  2.7333  1.6957 -0.1066
29556SOL     OW95525  11.483   6.706   7.583  0.0126 -0.0967 -0.0989
29556SOL    HW195526  11.533   6.761   7.522  0.2116 -1.2743 -1.0346
29556SOL    HW295527  11.424   6.656   7.527  0.2746 -1.2915  0.6543
29557SOL     OW95528  10.352   8.880  11.656  0.3389  0.0472  0.1270
29557SOL    HW195529  10.388   8.804  11.611  1.9321  0.0585  1.2920
29557SOL    HW295530  10.258   8.877  11.638  0.6191 -1.1987 -1.2773
29558SOL     OW95531   6.133   7.268  11.173 -0.5356  0.6796 -0.2504
29558SOL    HW195532   6.108   7.332  11.107 -2.1157 -0.1362 -0.4946
29558SOL    HW295533   6.070   7.281  11.244 -0.6134 -0.2941 -0.1201
29559SOL     OW95534   1.698  10.905   0.660 -0.6535 -0.6407  0.3582
29559SOL    HW195535   1.669  10.932   0.572 -1.9466  0.8347  1.1941
29559SOL    HW295536   1.790  10.931   0.664 -0.9249  0.4590 -0.1337
29560SOL     OW95537   9.931   6.950   5.169 -0.4547 -0.5890 -0.2757
29560SOL    HW195538   9.849   6.926   5.126 -1.7633  1.4235  0.9204
29560SOL    HW295539   9.932   7.046   5.166  1.3131 -0.5384  0.7285
29561SOL     OW95540   5.765   2.109   5.831 -0.0825 -0.4021 -0.5375
29561SOL    HW195541   5.762   2.160   5.912 -2.6094  0.2668 -0.9365
29561SOL    HW295542   5.673   2.102   5.805  0.5204 -2.1334 -2.4090
29562SOL     OW95543  10.083   1.476   1.653 -0.7617  0.8501  0.4767
29562SOL    HW195544  10.104   1.401   1.596 -0.3865  0.6654  0.8562
29562SOL    HW295545  10.049   1.542   1.593  2.2178  1.7293 -0.4269
29563SOL     OW95546   0.619   4.808   4.605  0.3258  0.4432 -0.3943
29563SOL    HW195547   0.623   4.852   4.690  0.1489  1.5023 -0.9227
29563SOL    HW295548   0.551   4.741   4.616  0.4332  0.4407  0.3461
29564SOL     OW95549   3.625  12.236   2.619 -0.4939 -0.1242  0.0452
29564SOL    HW195550   3.682  12.281   2.557 -0.6381  0.1634  0.1215
29564SOL    HW295551   3.684  12.180   2.669 -0.7085 -2.9525 -2.5579
29565SOL     OW95552   6.784   6.078   7.960  0.1368 -0.3974  0.3097
29565SOL    HW195553   6.855   6.052   7.902  1.6811  0.9564  1.5071
29565SOL    HW295554   6.740   5.996   7.983  2.2648 -1.4684  0.7445
29566SOL     OW95555   6.933   0.068   7.337 -0.0927 -0.4786  0.1328
29566SOL    HW195556   6.922  -0.027   7.337 -0.7226 -0.4251  1.3837
29566SOL    HW295557   7.026   0.082   7.357 -0.0767 -0.8261  0.3014
29567SOL     OW95558   2.590   7.156   3.537  0.0812 -0.2143  0.2582
29567SOL    HW195559   2.570   7.246   3.565  0.3397 -0.5038  1.4092
29567SOL    HW295560   2.678   7.162   3.501  0.2665 -0.0778  0.7233
29568SOL     OW95561   6.119   2.521  10.809 -0.2009  0.1073  0.5713
29568SOL    HW195562   6.203   2.484  10.783  0.1674  1.1522  0.1802
29568SOL    HW295563   6.098   2.479  10.892 -0.4594 -1.9109 -0.4549
29569SOL     OW95564   6.207   3.171   5.557  0.2152 -0.5329  0.2029
29569SOL    HW195565   6.249   3.087   5.576 -0.8336 -0.7019  2.0347
29569SOL    HW295566   6.239   3.229   5.626 -0.3600  0.0951 -0.0508
29570SOL     OW95567  10.577  10.605   2.551 -0.3001  0.3252 -0.5301
29570SOL    HW195568  10.504  10.576   2.606  0.0955  0.3962  0.0319
29570SOL    HW295569  10.584  10.698   2.568  0.8636  0.0618  0.5421
29571SOL     OW95570   5.025   9.552   2.871 -0.4754  0.2744 -0.4187
29571SOL    HW195571   5.021   9.648   2.877 -0.7177  0.1779  1.5455
29571SOL    HW295572   5.116   9.534   2.847  0.4329  0.9475  2.1731
29572SOL     OW95573   8.192   6.100   7.429  0.6504  0.4274 -0.2410
29572SOL    HW195574   8.165   6.014   7.395  2.9950 -0.8601  0.8625
29572SOL    HW295575   8.114   6.136   7.470 -0.3527 -1.2571 -0.5790
29573SOL     OW95576   8.208   3.275  12.513  0.0288 -0.0720  0.2648
29573SOL    HW195577   8.179   3.192  12.550 -1.5921 -0.2790 -1.3073
29573SOL    HW295578   8.280   3.304  12.570 -0.2043 -1.9134  1.5665
29574SOL     OW95579   3.883   3.762  11.211  0.3136 -0.4245 -0.2487
29574SOL    HW195580   3.794   3.736  11.237  0.2201 -1.9758 -1.9571
29574SOL    HW295581   3.870   3.842  11.160 -0.1499 -0.8352 -0.7892
29575SOL     OW95582   3.373  11.273   2.024  0.3419 -0.2194 -0.1238
29575SOL    HW195583   3.294  11.275   1.971 -0.1886  1.2648  0.6648
29575SOL    HW295584   3.384  11.363   2.055  2.6761 -0.2372 -0.6819
29576SOL     OW95585   2.554   2.929   2.640 -0.4196 -0.3805  0.1075
29576SOL    HW195586   2.475   2.929   2.586  0.1291  1.3077 -0.7599
29576SOL    HW295587   2.568   3.020   2.664 -0.7915 -1.0642  3.4425
29577SOL     OW95588  12.152  12.037   0.727  0.5043 -0.0395 -0.3691
29577SOL    HW195589  12.211  12.104   0.760  1.6234 -1.2182  0.1523
29577SOL    HW295590  12.082  12.032   0.792  1.2349 -0.4315  0.4049
29578SOL     OW95591   2.828   4.299   8.401 -0.1444 -0.1403 -0.3037
29578SOL    HW195592   2.749   4.334   8.362 -0.4511 -0.7718 -0.2616
29578SOL    HW295593   2.830   4.335   8.490 -1.4426 -1.6535  0.3966
29579SOL     OW95594   5.006   8.805   1.824 -0.0135  0.4501 -0.1360
29579SOL    HW195595   5.075   8.792   1.889 -0.1579 -0.8567 -0.2320
29579SOL    HW295596   5.052   8.808   1.740 -0.1728 -2.3743 -0.4135
29580SOL     OW95597   5.662   5.177  10.932  0.6059  0.0082 -0.0230
29580SOL    HW195598   5.652   5.187  11.027 -0.6494 -0.9302 -0.0315
29580SOL    HW295599   5.657   5.082  10.918  0.9259  0.1286 -1.0224
29581SOL     OW95600   4.089  12.074   0.843 -0.1584 -0.4470 -0.1557
29581SOL    HW195601   4.068  12.003   0.904 -0.3163  2.1288  3.1019
29581SOL    HW295602   4.184  12.068   0.831 -0.1505 -1.1344  0.2286
29582SOL     OW95603   5.751   6.837   3.128  0.5181 -0.1214  0.7070
29582SOL    HW195604   5.833   6.842   3.078  0.3425  0.7614  0.4901
29582SOL    HW295605   5.683   6.827   3.061  0.4470 -1.0904  0.8967
29583SOL     OW95606   7.094  11.525   1.113 -0.2427  0.1079 -0.5840
29583SOL    HW195607   7.189  11.521   1.125 -0.0530  1.5563 -1.4125
29583SOL    HW295608   7.063  11.440   1.143  1.3391 -0.4934 -0.5445
29584SOL     OW95609   1.652   1.638   8.231 -0.0371 -0.6803  0.0436
29584SOL    HW195610   1.665   1.608   8.140  0.1431  0.3178 -0.2701
29584SOL    HW295611   1.595   1.714   8.223 -0.1234 -0.6615  0.7882
29585SOL     OW95612   0.679  10.148  10.101  0.1009 -0.6295  0.3977
29585SOL    HW195613   0.707  10.072  10.151 -1.7051 -1.0847  0.7907
29585SOL    HW295614   0.660  10.114  10.014  3.5825  0.2197 -0.8583
29586SOL     OW95615   2.417   3.270   9.378  0.0050  0.0556  0.2290
29586SOL    HW195616   2.345   3.233   9.326 -0.5809  1.3181  0.0974
29586SOL    HW295617   2.421   3.215   9.456 -1.3916  0.2103  0.4374
29587SOL     OW95618   3.510   0.457   5.427  0.2614  0.2277  0.3857
29587SOL    HW195619   3.428   0.410   5.441  0.3951  0.0624  0.6212
29587SOL    HW295620   3.548   0.417   5.349  0.0589  0.3885  0.2032
29588SOL     OW95621   0.869  11.790  11.783  0.4619 -0.0859  0.2114
29588SOL    HW195622   0.899  11.847  11.854  1.2671  0.6983 -0.7267
29588SOL    HW295623   0.950  11.764  11.738  0.2107 -2.6710  1.0990
29589SOL     OW95624   7.597   9.518   9.631  0.1584 -0.1719  0.2546
29589SOL    HW195625   7.562   9.599   9.667  1.6307  0.7401 -0.2775
29589SOL    HW295626   7.541   9.449   9.666 -0.8279  1.0341  1.0939
29590SOL     OW95627  10.128   7.634   3.399 -0.0888 -0.2174  0.6246
29590SOL    HW195628  10.143   7.627   3.493 -0.7294  0.6400  0.8116
29590SOL    HW295629  10.050   7.581   3.383 -0.2576  0.0121  0.6693
29591SOL     OW95630   1.385   3.053   5.736  0.8794 -0.5198  0.0382
29591SOL    HW195631   1.372   2.995   5.661 -1.5915 -0.6451  0.4470
29591SOL    HW295632   1.302   3.047   5.784  3.0386 -2.2504  4.0772
29592SOL     OW95633   3.310   2.478   2.248  0.4087  0.4481 -0.1803
29592SOL    HW195634   3.235   2.526   2.281 -0.3587 -0.9160  0.1387
29592SOL    HW295635   3.273   2.415   2.185  0.9437 -1.7406  1.5654
29593SOL     OW95636   0.992   6.727   8.253  0.0358 -0.6714 -0.1673
29593SOL    HW195637   0.952   6.804   8.292 -0.3856 -0.6499 -0.6248
29593SOL    HW295638   0.991   6.746   8.159  2.8269  0.1664 -0.1209
29594SOL     OW95639  10.711   9.142   5.484 -0.4823  0.2031  0.1270
29594SOL    HW195640  10.764   9.209   5.526 -2.1400  0.7622  1.4123
29594SOL    HW295641  10.674   9.185   5.407  0.4168 -0.0203 -0.4510
29595SOL     OW95642   8.719   9.171   8.516  0.0589 -0.2607  0.4597
29595SOL    HW195643   8.766   9.097   8.477  0.0183 -0.7779  1.3646
29595SOL    HW295644   8.788   9.222   8.560 -0.0254 -0.2086  0.5325
29596SOL     OW95645   1.849   3.068  10.265 -0.0269 -0.6504 -0.5670
29596SOL    HW195646   1.911   3.140  10.252  0.2332 -0.9827 -1.1835
29596SOL    HW295647   1.775   3.089  10.209  0.2365 -1.0755 -1.0827
29597SOL     OW95648   5.292   1.957   5.053  0.5784  0.0822 -0.2034
29597SOL    HW195649   5.386   1.977   5.050  0.7699 -0.8045 -0.5661
29597SOL    HW295650   5.283   1.899   5.129  0.4993 -0.6395 -0.7528
29598SOL     OW95651   1.587   5.677   9.895 -0.0877 -0.5266  0.1924
29598SOL    HW195652   1.583   5.739   9.968  0.4977  1.6726 -1.4950
29598SOL    HW295653   1.680   5.668   9.876 -0.2594 -0.3637 -0.8006
29599SOL     OW95654   7.158   6.158   6.888  0.3737  0.0766 -0.1041
29599SOL    HW195655   7.202   6.116   6.961  0.0894  1.2080  0.7339
29599SOL    HW295656   7.065   6.144   6.905  0.2091  2.1413  0.8944
29600SOL     OW95657   9.937  11.124  10.899 -0.1675  0.0979 -0.2043
29600SOL    HW195658   9.902  11.098  10.814 -0.9466 -0.0706  0.1607
29600SOL    HW295659   9.865  11.110  10.960  0.5922 -0.4429  0.6045
29601SOL     OW95660   5.388   5.074   0.951 -0.2229  0.7351 -0.0895
29601SOL    HW195661   5.480   5.086   0.929 -0.1857  0.0127 -0.3498
29601SOL    HW295662   5.379   5.111   1.039  0.7579 -0.9549  0.7757
29602SOL     OW95663  10.680   6.198   6.679 -0.3299 -0.7451  0.0350
29602SOL    HW195664  10.642   6.182   6.592 -2.1169 -0.5600  0.7219
29602SOL    HW295665  10.604   6.222   6.733  0.9862  1.0169  1.2096
29603SOL     OW95666   2.359   4.636   4.918  0.0646 -0.4680  0.2021
29603SOL    HW195667   2.319   4.549   4.918  0.1567 -0.5101  0.1092
29603SOL    HW295668   2.285   4.696   4.919 -0.0086 -0.5373  2.1299
29604SOL     OW95669  11.681   8.396   2.175 -0.4475 -0.1305 -0.2888
29604SOL    HW195670  11.624   8.471   2.194 -0.2909  0.2712 -1.3424
29604SOL    HW295671  11.621   8.329   2.142 -0.4824 -0.1739 -0.1379
29605SOL     OW95672   8.325   7.639  10.467 -0.0455  0.1521  0.4786
29605SOL    HW195673   8.326   7.733  10.487 -0.1512  0.0641  0.9064
29605SOL    HW295674   8.321   7.635  10.372 -1.2899  0.5944  0.4974
29606SOL     OW95675  11.263   8.272  12.331  0.3580 -0.2313  0.1672
29606SOL    HW195676  11.292   8.279  12.240 -0.7715  2.4885 -0.0772
29606SOL    HW295677  11.327   8.324  12.380 -0.7867  0.9879  0.4254
29607SOL     OW95678   5.065   8.413   5.394 -0.2730 -0.9544 -0.4138
29607SOL    HW195679   5.019   8.475   5.338  0.1934 -0.1886  0.0293
29607SOL    HW295680   5.146   8.394   5.347  1.0729  1.2231  0.8049
29608SOL     OW95681   4.111   8.840   6.033  0.8221 -0.4919  0.0171
29608SOL    HW195682   4.138   8.756   5.996  2.6488  0.1357 -0.2013
29608SOL    HW295683   4.019   8.848   6.011  0.9716 -1.8063 -1.1958
29609SOL     OW95684  10.940   3.585   6.212 -0.4900 -0.0450 -0.2568
29609SOL    HW195685  10.930   3.667   6.163  0.0894  0.0417 -0.2363
29609SOL    HW295686  10.923   3.609   6.303  0.3993  0.2107 -0.1496
29610SOL     OW95687   7.618   4.896   9.516  0.4516 -0.0249 -0.0217
29610SOL    HW195688   7.593   4.875   9.426  0.8695 -1.9526  0.2660
29610SOL    HW295689   7.708   4.865   9.523  0.3458 -0.0949  1.1317
29611SOL     OW95690   3.608   3.102   7.419 -0.0033 -0.2026 -0.9214
29611SOL    HW195691   3.609   3.180   7.363  0.5859  0.2475 -0.2956
29611SOL    HW295692   3.699   3.091   7.447 -0.1735 -0.8208 -0.5916
29612SOL     OW95693   6.499  11.267   0.407  0.7974  0.4082 -0.2047
29612SOL    HW195694   6.507  11.198   0.341  1.9500  1.1446 -0.8809
29612SOL    HW295695   6.416  11.249   0.451  1.6169 -2.0857  0.4693
29613SOL     OW95696   3.374   7.339   9.201  0.1744  0.2834  0.4689
29613SOL    HW195697   3.311   7.299   9.141  0.8985 -0.1525 -0.0143
29613SOL    HW295698   3.321   7.390   9.261 -0.6397 -0.0700  0.0595
29614SOL     OW95699  10.339   5.016   8.384 -0.2823 -0.3285 -0.3978
29614SOL    HW195700  10.330   5.087   8.321  0.3725  0.1525  0.0350
29614SOL    HW295701  10.251   4.979   8.392 -0.5975  0.3289 -0.7452
29615SOL     OW95702   8.649   4.349   9.924  0.4015  0.3340 -0.1200
29615SOL    HW195703   8.671   4.442   9.920  1.4829  0.0753 -0.4514
29615SOL    HW295704   8.615   4.329   9.837 -1.0626  0.6892  0.3343
29616SOL     OW95705   7.200   5.367   8.054 -0.2555  0.0170 -0.1806
29616SOL    HW195706   7.249   5.326   7.984  0.3619  1.1679 -0.4395
29616SOL    HW295707   7.149   5.295   8.093  0.1222 -0.8087 -1.1694
29617SOL     OW95708   4.055   4.680  12.080 -0.2709 -0.0217 -0.0838
29617SOL    HW195709   4.023   4.653  12.167 -1.2651 -0.1952 -0.4914
29617SOL    HW295710   4.079   4.598  12.037  2.6610  0.2095  0.9057
29618SOL     OW95711   1.791   9.208   8.672 -0.1901 -0.1412  0.5831
29618SOL    HW195712   1.781   9.122   8.714 -0.1747 -0.8754 -0.8375
29618SOL    HW295713   1.708   9.222   8.627  0.2097  0.0580 -0.1091
29619SOL     OW95714   7.892   3.221   0.327  0.0695  0.3145 -0.6611
29619SOL    HW195715   7.905   3.141   0.276 -0.7785 -2.1453  2.6629
29619SOL    HW295716   7.979   3.263   0.328  0.9433 -1.4084 -1.1564
29620SOL     OW95717   9.436   1.190  11.143  0.5594 -0.2363  0.0849
29620SOL    HW195718   9.511   1.167  11.088  1.4294  1.5689  0.4546
29620SOL    HW295719   9.467   1.177  11.232  0.5512  0.7448  0.2482
29621SOL     OW95720  11.175   2.868   9.727 -0.4781 -0.5546 -0.2444
29621SOL    HW195721  11.177   2.916   9.644  2.2146  2.1260  1.1393
29621SOL    HW295722  11.139   2.931   9.790 -0.5254 -1.7641  0.9781
29622SOL     OW95723   2.178   2.656  10.484 -0.5100  1.0181 -0.4837
29622SOL    HW195724   2.223   2.627  10.404 -0.0075 -0.1080  0.1804
29622SOL    HW295725   2.239   2.717  10.526 -0.4335  0.9930 -0.5580
29623SOL     OW95726   2.827   1.849   6.277  0.5863 -1.2209  0.2867
29623SOL    HW195727   2.784   1.799   6.207  0.0743 -0.4399  0.0138
29623SOL    HW295728   2.914   1.812   6.284 -0.0894 -2.7858  0.7708
29624SOL     OW95729   8.876   8.154  11.804  0.0966 -0.4845 -0.3893
29624SOL    HW195730   8.792   8.153  11.849  1.2541 -0.5687  1.8941
29624SOL    HW295731   8.941   8.146  11.874  2.1014  1.6301 -1.8523
29625SOL     OW95732   6.494   5.944   7.886 -0.0572 -0.2197  0.7083
29625SOL    HW195733   6.463   5.854   7.897  1.2223 -1.0198 -1.5011
29625SOL    HW295734   6.463   5.990   7.964 -0.8408 -2.5363  1.8654
29626SOL     OW95735   1.296   5.329  12.414 -0.0938  0.9122 -0.0471
29626SOL    HW195736   1.329   5.241  12.434 -1.4237  0.3719 -0.1196
29626SOL    HW295737   1.364   5.388  12.448 -0.3614 -0.0614  2.4014
29627SOL     OW95738   2.253   9.936   3.861 -0.1142 -0.0219  0.0206
29627SOL    HW195739   2.327   9.887   3.826 -1.0704 -2.3032  0.9854
29627SOL    HW295740   2.177   9.902   3.815 -0.7085  1.5956 -0.2715
29628SOL     OW95741  12.221   3.939   8.542  0.1039  0.2521 -0.4156
29628SOL    HW195742  12.281   3.874   8.505  0.7925 -0.9525  2.5043
29628SOL    HW295743  12.265   4.023   8.530 -0.1315  0.0899 -2.9648
29629SOL     OW95744   6.721   6.753   8.942  0.4814  0.2698 -0.2300
29629SOL    HW195745   6.650   6.797   8.989  0.2333  0.6968 -0.9935
29629SOL    HW295746   6.729   6.668   8.985 -0.9881 -0.0753 -0.5809
29630SOL     OW95747   3.987   4.134   7.262  0.4958 -0.0087 -0.2544
29630SOL    HW195748   4.025   4.174   7.341 -0.0848 -0.2007  0.1305
29630SOL    HW295749   4.026   4.046   7.259 -0.1856 -0.3364  0.3425
29631SOL     OW95750   5.694   5.113   7.565 -0.1066 -0.3640  0.0560
29631SOL    HW195751   5.721   5.064   7.643  1.8942 -0.9369 -0.9304
29631SOL    HW295752   5.754   5.188   7.562 -0.1857 -0.3303 -0.9009
29632SOL     OW95753   4.695   8.138   5.336 -0.3224  0.2171 -0.4055
29632SOL    HW195754   4.685   8.157   5.243 -1.6347 -0.2444 -0.3823
29632SOL    HW295755   4.730   8.048   5.338 -0.2439  0.2462 -0.4518
29633SOL     OW95756   1.244   5.485  11.022  0.2473 -0.3100  0.0541
29633SOL    HW195757   1.225   5.399  11.059  0.7101 -0.5406 -0.2444
29633SOL    HW295758   1.184   5.494  10.948 -0.9291  0.2945  1.0408
29634SOL     OW95759   5.099  12.186   2.264  0.1396  0.0707 -0.3513
29634SOL    HW195760   5.151  12.250   2.214 -0.4621  0.5263 -0.4125
29634SOL    HW295761   5.149  12.105   2.259  1.1015  0.6272  0.0342
29635SOL     OW95762   0.622   7.388  11.092 -0.1885  0.3321  0.2057
29635SOL    HW195763   0.550   7.329  11.114 -0.2633  0.5939  0.6775
29635SOL    HW295764   0.595   7.428  11.009 -0.1576 -0.2515 -0.0931
29636SOL     OW95765   3.133   5.035   4.876  0.0519 -0.2806 -0.3806
29636SOL    HW195766   3.056   4.978   4.879  1.2689 -2.1815 -2.4789
29636SOL    HW295767   3.153   5.052   4.969 -0.0353 -3.8148  0.4082
29637SOL     OW95768   5.120   3.037  10.297 -0.7804  0.8737  0.2770
29637SOL    HW195769   5.113   3.132  10.286 -2.0532  0.7650 -0.0835
29637SOL    HW295770   5.163   3.006  10.218 -2.2864  0.9571 -0.6190
29638SOL     OW95771   5.821   8.129   7.293  0.2607  0.3583 -0.1919
29638SOL    HW195772   5.880   8.062   7.259  0.4990  0.6152 -0.2900
29638SOL    HW295773   5.750   8.080   7.334  1.8960 -0.0189  2.4069
29639SOL     OW95774   5.765   7.581   5.131 -0.4088  0.0453  0.0905
29639SOL    HW195775   5.839   7.627   5.091  0.6438 -0.2565  1.6296
29639SOL    HW295776   5.776   7.595   5.225 -1.3052 -1.5246  0.4530
29640SOL     OW95777   5.490   4.792   4.093  0.4175  0.3555  0.0026
29640SOL    HW195778   5.518   4.868   4.145  1.9994 -0.8114  0.9438
29640SOL    HW295779   5.526   4.717   4.140  1.2728 -0.8176 -2.4062
29641SOL     OW95780  11.789   6.143   3.290  0.3703 -0.0637  1.0183
29641SOL    HW195781  11.776   6.193   3.209 -0.8263  0.4600  1.5156
29641SOL    HW295782  11.743   6.060   3.274  0.0354  0.0855  1.1936
29642SOL     OW95783  12.287   8.532   7.078  0.3853  0.3687  0.0294
29642SOL    HW195784  12.364   8.476   7.086  1.4631  1.8650  0.5426
29642SOL    HW295785  12.225   8.497   7.141  1.0941 -0.1606  0.4449
29643SOL     OW95786   7.678   6.134   7.101 -0.3381 -0.0991 -0.3582
29643SOL    HW195787   7.764   6.151   7.064 -0.5959  1.0008 -0.5014
29643SOL    HW295788   7.627   6.096   7.029 -0.4091  0.6740 -0.7260
29644SOL     OW95789   4.847   0.417  11.728 -0.4214  0.0076  0.0574
29644SOL    HW195790   4.908   0.420  11.654 -0.2343  0.8027  0.2300
29644SOL    HW295791   4.886   0.355  11.789 -0.5206 -0.5708 -0.4529
29645SOL     OW95792  11.390  11.178  10.751 -0.6921 -0.1361 -0.4963
29645SOL    HW195793  11.434  11.240  10.809  0.5279 -0.1281 -1.3944
29645SOL    HW295794  11.399  11.093  10.796  0.0619 -0.0988 -0.5674
29646SOL     OW95795  12.154   3.831   7.879 -0.5400 -0.0927 -0.5173
29646SOL    HW195796  12.199   3.877   7.950  0.3664  0.8807 -1.6848
29646SOL    HW295797  12.061   3.853   7.891 -0.5985 -1.0790  1.1590
29647SOL     OW95798   3.969   1.552   8.831 -0.3809 -0.2240  0.1362
29647SOL    HW195799   4.055   1.513   8.816 -0.6162 -1.0461  0.8424
29647SOL    HW295800   3.974   1.637   8.788 -0.4392 -1.6835 -3.0629
29648SOL     OW95801   3.275   9.523   2.449  0.6415  0.1862 -0.4719
29648SOL    HW195802   3.363   9.555   2.430  2.2214 -2.0007  2.4136
29648SOL    HW295803   3.285   9.428   2.460 -2.3806 -0.3560 -1.3097
29649SOL     OW95804   0.956  11.869   4.096  0.3996 -0.5378 -0.0739
29649SOL    HW195805   1.010  11.849   4.019  2.4176  0.5567  0.9777
29649SOL    HW295806   1.015  11.859   4.170 -0.9188  0.5131  1.1740
29650SOL     OW95807   3.897   7.856   8.015  0.3815  0.7009  0.4859
29650SOL    HW195808   3.840   7.861   8.092  1.6540 -1.1921  1.6175
29650SOL    HW295809   3.886   7.941   7.972 -3.2700  0.4465  0.5890
29651SOL     OW95810   1.727   1.546   2.703 -0.5086 -0.2104 -0.4453
29651SOL    HW195811   1.708   1.479   2.768  0.2351 -0.0197 -0.0240
29651SOL    HW295812   1.738   1.498   2.621 -0.0341 -0.6077 -0.1555
29652SOL     OW95813   5.195   3.113   9.280  0.3931 -0.1689 -0.0159
29652SOL    HW195814   5.127   3.167   9.238 -0.4180 -1.1186  0.0473
29652SOL    HW295815   5.232   3.171   9.347 -1.1909 -0.0043  0.7723
29653SOL     OW95816   6.609   6.118   9.714  0.0280 -0.1859 -0.6689
29653SOL    HW195817   6.627   6.038   9.764 -1.5291 -0.7241 -0.9447
29653SOL    HW295818   6.526   6.151   9.749  1.3696  2.2290  0.5568
29654SOL     OW95819   4.001   4.037   8.661  0.7175 -0.1785  0.0159
29654SOL    HW195820   4.067   4.104   8.647  0.2090  0.4792  0.6905
29654SOL    HW295821   3.969   4.052   8.750 -0.1245 -0.6764 -0.1847
29655SOL     OW95822   8.122   4.505   5.879 -0.0318 -0.2402  0.3605
29655SOL    HW195823   8.133   4.419   5.919  0.1809  0.5873  2.2186
29655SOL    HW295824   8.062   4.491   5.806  0.5231 -2.0580  0.2027
29656SOL     OW95825   7.445  11.702  12.567 -0.2684  0.1084 -0.3707
29656SOL    HW195826   7.370  11.735  12.616 -0.5861  1.3007 -1.6083
29656SOL    HW295827   7.476  11.627  12.618  0.1759  1.9681  2.3161
29657SOL     OW95828  11.757   8.790   2.370 -0.2606 -0.2479 -0.0664
29657SOL    HW195829  11.778   8.753   2.456 -0.1806 -0.9442 -0.3808
29657SOL    HW295830  11.682   8.739   2.340  0.8792 -1.3122 -1.2392
29658SOL     OW95831   6.981   4.868   4.706 -0.1603 -0.3309  0.1503
29658SOL    HW195832   6.925   4.792   4.689  0.6875 -0.6609 -1.3572
29658SOL    HW295833   7.060   4.830   4.745  0.6527 -0.3865 -1.4588
29659SOL     OW95834  10.000   8.961  11.311  0.0246 -1.0449  0.4318
29659SOL    HW195835  10.034   9.019  11.378 -3.0651  0.6630  0.6800
29659SOL    HW295836  10.015   9.008  11.229 -1.4829 -0.3379  0.5322
29660SOL     OW95837   6.340   7.180   7.688  0.3115 -0.7809  0.2659
29660SOL    HW195838   6.398   7.191   7.613 -0.6248  0.3367 -0.3460
29660SOL    HW295839   6.393   7.203   7.764  0.9998 -0.9527 -0.1612
29661SOL     OW95840   1.775   6.018   8.128  0.2658 -0.0473  0.7918
29661SOL    HW195841   1.843   5.974   8.178  0.1045 -1.7325 -0.3802
29661SOL    HW295842   1.694   5.973   8.154  0.0121 -0.0694 -0.0208
29662SOL     OW95843   8.199   4.420   2.933 -0.1056 -0.2301 -0.9096
29662SOL    HW195844   8.220   4.484   2.864  2.4886 -1.5466 -1.4835
29662SOL    HW295845   8.265   4.436   3.001 -1.2586 -0.4183  0.2895
29663SOL     OW95846   4.805   7.077   7.587 -0.1949  0.6670  0.1930
29663SOL    HW195847   4.751   7.156   7.581 -1.2841  0.1123  1.8787
29663SOL    HW295848   4.852   7.073   7.504 -2.5901  1.3214 -1.2825
29664SOL     OW95849   4.800   3.947   6.861  0.5992 -0.2782  0.5507
29664SOL    HW195850   4.821   4.038   6.883 -0.3987  0.4175 -1.2096
29664SOL    HW295851   4.878   3.897   6.888  1.5511  1.2170  0.6823
29665SOL     OW95852   7.241   5.640   1.461  0.7884 -0.1294  0.0459
29665SOL    HW195853   7.272   5.695   1.534 -0.5139  0.1320  0.4378
29665SOL    HW295854   7.208   5.703   1.397  0.5200 -0.4124 -0.0920
29666SOL     OW95855   3.522   6.792   1.224 -0.2252  0.0872 -0.3122
29666SOL    HW195856   3.509   6.698   1.240  1.2725 -0.4543 -2.0351
29666SOL    HW295857   3.502   6.804   1.132  3.7410  0.5633 -1.2900
29667SOL     OW95858   9.469   1.123   0.268 -0.0211  0.1634  0.0073
29667SOL    HW195859   9.539   1.143   0.206  1.8489 -0.8391  1.6807
29667SOL    HW295860   9.490   1.035   0.300 -0.6078  0.8240  2.4148
29668SOL     OW95861   8.896  10.377   6.498 -0.1516  0.0331 -0.1990
29668SOL    HW195862   8.921  10.417   6.581 -0.9977  1.2385 -0.4922
29668SOL    HW295863   8.825  10.432   6.465 -0.4174 -0.9220 -1.3136
29669SOL     OW95864   9.440  12.450   7.353  0.4414 -0.0797 -0.1248
29669SOL    HW195865   9.500  12.396   7.301  2.1449  0.0447  1.6045
29669SOL    HW295866   9.353  12.413   7.335  1.4220 -2.7407  0.1866
29670SOL     OW95867   6.239   7.372  12.543  0.2898  0.0915 -0.4459
29670SOL    HW195868   6.259   7.378  12.636 -1.7903 -0.5026  0.0944
29670SOL    HW295869   6.259   7.458  12.508  2.4323 -0.0761  0.2219
29671SOL     OW95870   6.841  11.165   8.144  0.0173  0.1995 -0.6093
29671SOL    HW195871   6.893  11.086   8.163 -1.4519 -0.4679  0.8974
29671SOL    HW295872   6.838  11.169   8.049 -0.3709 -1.9537 -0.7348
29672SOL     OW95873   1.736   6.680   4.320  0.3766 -0.3105 -0.0664
29672SOL    HW195874   1.725   6.749   4.255  0.6656  0.1669  0.3730
29672SOL    HW295875   1.667   6.617   4.301 -0.6369  0.6775  0.2365
29673SOL     OW95876   9.178   3.609   3.937 -0.0225  0.1690  0.3227
29673SOL    HW195877   9.149   3.684   3.989 -1.3983 -0.0006 -0.1730
29673SOL    HW295878   9.252   3.643   3.887  1.6329  0.2228  2.6459
29674SOL     OW95879   9.923   7.411   2.227  0.3805 -0.3756 -0.1577
29674SOL    HW195880  10.007   7.420   2.182  0.7495  0.7103  0.7013
29674SOL    HW295881   9.878   7.341   2.179  2.0902 -1.5651 -0.1561
29675SOL     OW95882   3.603   2.574   5.450 -0.2026 -0.2805  0.1610
29675SOL    HW195883   3.549   2.639   5.404 -1.6994  0.8580  3.2299
29675SOL    HW295884   3.671   2.626   5.493  0.1213 -1.0926  0.6437
29676SOL     OW95885   9.900  12.157   8.690 -0.5513 -0.3206  0.4170
29676SOL    HW195886   9.943  12.200   8.764 -0.3190 -0.6157  0.4552
29676SOL    HW295887   9.962  12.090   8.661 -0.5452 -0.0572 -0.1892
29677SOL     OW95888  11.887  10.974   9.481  0.1043  0.3907 -0.4461
29677SOL    HW195889  11.939  10.922   9.542 -3.3583 -3.3877 -0.3301
29677SOL    HW295890  11.887  10.923   9.400 -2.2842  0.8585 -0.8166
29678SOL     OW95891   4.473   3.075   9.762 -0.2602 -0.7278  0.7007
29678SOL    HW195892   4.541   3.109   9.820 -0.7509 -0.1813  0.9648
29678SOL    HW295893   4.408   3.145   9.756 -0.7988 -1.2336  0.4448
29679SOL     OW95894   3.620  10.322   6.862  0.5446  0.0793  0.2177
29679SOL    HW195895   3.573  10.306   6.780  1.8535  1.5265 -0.8675
29679SOL    HW295896   3.712  10.320   6.838  0.9285  2.0068  1.3350
29680SOL     OW95897   3.512   7.761   2.453  0.3489 -0.2399  0.2814
29680SOL    HW195898   3.593   7.736   2.408  1.6524 -0.2360  2.4961
29680SOL    HW295899   3.463   7.812   2.387  2.6582  0.7353 -0.7961
29681SOL     OW95900   5.243   4.307  10.498 -0.2874 -0.1232 -0.3123
29681SOL    HW195901   5.222   4.256  10.576 -0.0273 -0.1601 -0.2665
29681SOL    HW295902   5.160   4.311  10.450 -0.7323  0.8731  0.5084
29682SOL     OW95903   0.770   1.755   6.892 -0.2232 -0.5524 -0.2127
29682SOL    HW195904   0.816   1.831   6.857 -2.9352  1.5770  0.4820
29682SOL    HW295905   0.755   1.699   6.816  2.2066 -0.7060 -0.6640
29683SOL     OW95906   1.252   7.685  12.514 -0.0359  0.0974 -0.0007
29683SOL    HW195907   1.162   7.654  12.526  0.0100 -0.2122 -0.4502
29683SOL    HW295908   1.266   7.683  12.419  0.3404  0.4403  0.0451
29684SOL     OW95909   5.944   0.471   3.396 -0.0894  0.4122  0.4832
29684SOL    HW195910   5.887   0.518   3.457  1.1555  0.3666  1.7281
29684SOL    HW295911   5.900   0.478   3.312 -1.4891  1.1180  1.2419
29685SOL     OW95912   9.369  11.148   7.832 -0.1123 -0.5769 -0.0205
29685SOL    HW195913   9.426  11.073   7.852 -0.1866 -0.5419  0.3155
29685SOL    HW295914   9.349  11.187   7.917  0.3695  0.1544 -0.2305
29686SOL     OW95915  10.754   3.833   2.961 -0.3773 -0.3704 -0.1795
29686SOL    HW195916  10.819   3.766   2.980 -0.5324 -0.7158 -0.8474
29686SOL    HW295917  10.689   3.824   3.030 -1.0108 -1.7060 -0.9089
29687SOL     OW95918  10.970   5.706   8.045 -0.3716 -0.1615 -0.4724
29687SOL    HW195919  10.923   5.634   8.004 -1.6360 -0.4052  1.2748
29687SOL    HW295920  11.060   5.698   8.014 -1.3450  0.2302 -3.8572
29688SOL     OW95921   6.579   0.405   7.618  1.0540  0.0608  0.4059
29688SOL    HW195922   6.618   0.322   7.590  0.0726  0.0494 -1.0473
29688SOL    HW295923   6.614   0.470   7.557  0.7230  0.4669  0.6454
29689SOL     OW95924   2.217   7.507   2.131 -0.1085 -0.2464 -0.2081
29689SOL    HW195925   2.237   7.532   2.222  1.3544  0.9111 -0.8128
29689SOL    HW295926   2.182   7.587   2.092  1.1012 -0.1703 -1.1757
29690SOL     OW95927  10.251   7.401   5.658 -0.1139 -0.2165  0.3177
29690SOL    HW195928  10.256   7.411   5.563 -0.6249 -0.3813  0.2703
29690SOL    HW295929  10.168   7.442   5.682  0.2295  0.2341  0.7531
29691SOL     OW95930   8.925   6.282  11.830  0.3353  0.4784  0.6497
29691SOL    HW195931   8.847   6.271  11.886 -0.8556  0.2064 -1.0031
29691SOL    HW295932   8.950   6.374  11.844 -1.1511  0.9961  0.1685
29692SOL     OW95933   7.837   2.822   2.595  0.7853 -0.0765 -0.2266
29692SOL    HW195934   7.900   2.835   2.666  1.7020  0.9615 -1.1900
29692SOL    HW295935   7.848   2.730   2.569  3.4203  0.5629 -1.7105
29693SOL     OW95936  11.261   4.794   5.995  0.3781  0.6946  0.3562
29693SOL    HW195937  11.252   4.771   5.903  0.0259 -0.3261  0.6383
29693SOL    HW295938  11.172   4.817   6.023  0.3609  0.2910  0.6300
29694SOL     OW95939  10.509   7.816   1.359  0.2842 -0.6773 -0.0311
29694SOL    HW195940  10.546   7.860   1.436 -2.0788  2.3070 -0.3725
29694SOL    HW295941  10.560   7.851   1.286 -0.5040  0.2622 -0.1563
29695SOL     OW95942   6.184   9.887   6.896  0.0262  1.0562 -0.0639
29695SOL    HW195943   6.092   9.875   6.919  0.0509 -0.3280 -0.6181
29695SOL    HW295944   6.212   9.962   6.948 -1.7311  2.2722 -0.8041
29696SOL     OW95945   0.300   6.512   5.630 -0.1782 -0.4381 -0.4517
29696SOL    HW195946   0.265   6.575   5.568 -0.0226 -0.6414 -0.7465
29696SOL    HW295947   0.224   6.487   5.684  0.0545  1.1064  0.6419
29697SOL     OW95948   9.151   9.801   9.606 -0.3678 -0.1855  0.8022
29697SOL    HW195949   9.188   9.882   9.569  0.3693 -0.5906  0.6423
29697SOL    HW295950   9.181   9.732   9.547  0.5546 -0.8094  1.9743
29698SOL     OW95951   5.735   5.347   0.335 -0.2656 -0.1433 -0.4308
29698SOL    HW195952   5.663   5.391   0.380  1.1825  2.5550 -0.5540
29698SOL    HW295953   5.796   5.323   0.405 -0.3882 -0.7243 -0.5131
29699SOL     OW95954   6.655   3.717   1.709  0.3851 -0.0883 -0.2282
29699SOL    HW195955   6.737   3.707   1.758  1.4913 -0.0763 -2.0103
29699SOL    HW295956   6.605   3.638   1.729  0.2238  0.4818  1.8877
29700SOL     OW95957   4.889   1.153  12.213  0.3445  0.2855  0.0924
29700SOL    HW195958   4.924   1.068  12.240  0.6585  0.6820  0.9724
29700SOL    HW295959   4.964   1.200  12.176 -0.0071 -0.1187 -1.1671
29701SOL     OW95960   9.819   5.451   7.144 -0.1854 -0.5485  0.1681
29701SOL    HW195961   9.868   5.532   7.129 -0.8451  0.5482  3.1980
29701SOL    HW295962   9.788   5.426   7.057  1.5121  1.4413 -1.1375
29702SOL     OW95963   3.503   8.200   1.612  0.2218  0.2869 -0.4474
29702SOL    HW195964   3.557   8.251   1.551 -1.2517  1.1728 -1.0715
29702SOL    HW295965   3.535   8.225   1.699  0.2067  1.5244 -0.7756
29703SOL     OW95966   7.154   4.054   4.366 -0.4857  0.9096  0.3654
29703SOL    HW195967   7.115   3.968   4.350  0.6765  0.3903  0.2110
29703SOL    HW295968   7.118   4.081   4.450  0.2205 -0.3726  1.1121
29704SOL     OW95969   7.182   1.937   7.041 -0.2529 -0.0370  0.0929
29704SOL    HW195970   7.257   1.906   7.092  0.0026  0.0488 -0.2321
29704SOL    HW295971   7.105   1.905   7.090 -0.0276  0.5103  0.8385
29705SOL     OW95972   6.352   0.007   7.464 -0.3486 -0.3330  0.2656
29705SOL    HW195973   6.375   0.042   7.378 -2.5371 -0.1011 -0.2804
29705SOL    HW295974   6.371   0.079   7.525  2.9611 -1.1043  0.3375
29706SOL     OW95975   5.064   5.732   7.416 -0.2256  0.4046  0.4076
29706SOL    HW195976   5.019   5.784   7.350 -0.1432  0.5351  0.4521
29706SOL    HW295977   5.056   5.641   7.386  2.2278  0.6504 -1.2739
29707SOL     OW95978   1.067   1.620  12.331  0.2980  0.0212  0.1658
29707SOL    HW195979   1.131   1.588  12.395  1.3924  2.2399  0.2831
29707SOL    HW295980   1.094   1.710  12.313 -2.9940  1.1844  0.4141
29708SOL     OW95981   4.838   3.505  10.567 -0.4776 -0.1813  0.1178
29708SOL    HW195982   4.892   3.503  10.646 -0.2324 -1.3059 -0.0652
29708SOL    HW295983   4.753   3.537  10.596  0.7146  3.4677  0.1122
29709SOL     OW95984   1.800   3.371   1.610 -0.2758  0.0829  0.1720
29709SOL    HW195985   1.805   3.418   1.693  0.6806  2.3358 -1.0835
29709SOL    HW295986   1.737   3.420   1.558  1.4109  0.5720 -1.5029
29710SOL     OW95987  11.263   9.065  10.608  0.2129  0.6331  0.0396
29710SOL    HW195988  11.193   9.077  10.545  1.8994 -0.1953 -2.1133
29710SOL    HW295989  11.294   9.153  10.627 -0.5711  0.9122  0.0643
29711SOL     OW95990  11.619   1.662  11.003  0.5574 -0.3497 -0.0072
29711SOL    HW195991  11.675   1.618  10.939  1.0704  1.8077 -1.1708
29711SOL    HW295992  11.542   1.607  11.009  1.4137 -1.7138 -0.8777
29712SOL     OW95993   6.592   5.618   2.947 -0.5961  0.2443 -0.1938
29712SOL    HW195994   6.654   5.691   2.940 -0.8872  0.3648 -1.9451
29712SOL    HW295995   6.646   5.540   2.932 -0.8676  0.3608 -1.8966
29713SOL     OW95996   4.371   9.353   3.411  0.1999 -0.4375 -0.5238
29713SOL    HW195997   4.407   9.305   3.485 -0.6331  1.1860  1.0009
29713SOL    HW295998   4.286   9.311   3.395 -0.7222  0.7202  1.0898
29714SOL     OW95999   1.804   2.366  11.607 -0.5714  0.0317  0.4847
29714SOL    HW196000   1.769   2.297  11.663 -0.1749  0.3654  1.1430
29714SOL    HW296001   1.744   2.367  11.532 -0.7198 -0.8639  0.5712
29715SOL     OW96002   6.517  10.343   4.399 -1.0729  0.4959 -0.1425
29715SOL    HW196003   6.453  10.324   4.468 -0.8119  0.5379  0.1114
29715SOL    HW296004   6.515  10.266   4.343  1.3016 -1.1755  1.8579
29716SOL     OW96005   9.722   0.899   8.593  0.0226  0.2061  0.5238
29716SOL    HW196006   9.817   0.897   8.607  0.2509  2.4225 -0.2502
29716SOL    HW296007   9.695   0.984   8.628 -1.6078 -0.2049  0.3262
29717SOL     OW96008   4.573   2.905   6.527  0.2370  0.2202 -0.1063
29717SOL    HW196009   4.561   2.826   6.475  1.8575  0.7226 -1.3234
29717SOL    HW296010   4.664   2.902   6.556  0.3473  1.6364 -0.2112
29718SOL     OW96011  11.140   1.582   5.021 -0.5075 -0.8812  0.3616
29718SOL    HW196012  11.095   1.614   4.943  1.1032 -0.5168 -0.4804
29718SOL    HW296013  11.084   1.607   5.094 -2.0007 -1.1301 -0.6587
29719SOL     OW96014   8.735   9.091   7.048 -0.3758 -0.5223 -0.3370
29719SOL    HW196015   8.788   9.105   6.970 -1.9801 -0.2579 -1.4317
29719SOL    HW296016   8.690   9.008   7.031  0.5941 -1.4084  1.1386
29720SOL     OW96017   9.829   8.310  10.441 -0.0765 -0.1491 -0.2909
29720SOL    HW196018   9.871   8.316  10.526  1.1871  1.2047 -0.9673
29720SOL    HW296019   9.755   8.370  10.446 -0.0674 -0.1510 -0.1251
29721SOL     OW96020   3.405   4.475   8.889  0.0896  0.4225 -0.6858
29721SOL    HW196021   3.491   4.509   8.911  0.1862 -0.2492 -0.0132
29721SOL    HW296022   3.422   4.396   8.839 -0.1271 -0.0691  0.0043
29722SOL     OW96023   0.916   3.440   6.775  0.0458  0.0839 -0.2052
29722SOL    HW196024   0.848   3.381   6.806  0.7742 -0.7976 -0.2561
29722SOL    HW296025   0.868   3.519   6.748 -0.7943  0.1515  1.3469
29723SOL     OW96026   9.767   1.257   5.302 -0.1753  0.0956  0.2415
29723SOL    HW196027   9.758   1.168   5.269 -0.8929 -0.3947  1.6765
29723SOL    HW296028   9.833   1.297   5.246 -1.5425 -0.5625 -1.9644
29724SOL     OW96029   2.903   8.156  11.026  0.7457  0.5096 -0.3094
29724SOL    HW196030   2.978   8.123  10.978  0.1152  1.1785 -1.8143
29724SOL    HW296031   2.915   8.251  11.027 -0.9126  0.8139 -2.1465
29725SOL     OW96032   2.270  10.923  10.760 -0.2920 -0.5140  0.5954
29725SOL    HW196033   2.235  10.845  10.716  1.3986 -0.1262 -1.6287
29725SOL    HW296034   2.352  10.893  10.799  0.3624  0.1159 -0.2598
29726SOL     OW96035   9.160   1.601   5.211 -0.0905  0.3342  0.2481
29726SOL    HW196036   9.211   1.529   5.173 -0.9881 -0.5261  0.6190
29726SOL    HW296037   9.075   1.596   5.168 -0.7172  0.1006  1.4650
29727SOL     OW96038   9.948  12.134   8.970  0.7848  0.0631  0.0341
29727SOL    HW196039  10.001  12.069   9.016  1.3401  0.4473 -0.0585
29727SOL    HW296040  10.009  12.180   8.913  0.2716  0.2225 -0.3992
29728SOL     OW96041   0.899   7.635  12.275 -0.1295 -0.4437  0.1188
29728SOL    HW196042   0.943   7.674  12.199 -0.7171  0.6255  0.2996
29728SOL    HW296043   0.899   7.541  12.258  1.8896 -0.4471 -0.0553
29729SOL     OW96044  10.530   9.013  12.400  0.2825  0.1138 -0.3811
29729SOL    HW196045  10.526   9.065  12.320 -1.1938  0.3469 -0.1840
29729SOL    HW296046  10.614   8.967  12.395  0.9165  1.3229 -1.2955
29730SOL     OW96047  11.685  10.108  11.915 -0.0962  0.1893  0.1015
29730SOL    HW196048  11.612  10.061  11.875 -1.5800  1.6232  1.0297
29730SOL    HW296049  11.703  10.180  11.855  1.4056 -0.8169 -0.7288
29731SOL     OW96050  10.406   6.445   1.884 -0.8922  0.5781 -0.2801
29731SOL    HW196051  10.388   6.373   1.945 -1.8037  1.9597  1.1342
29731SOL    HW296052  10.358   6.421   1.805 -2.9603  0.5923  0.8980
29732SOL     OW96053   8.296   2.903   1.752 -0.0492 -0.1392 -0.4620
29732SOL    HW196054   8.220   2.850   1.776 -0.7106 -0.5686 -3.2099
29732SOL    HW296055   8.260   2.991   1.739 -0.0035 -0.2379 -1.2955
29733SOL     OW96056  11.242   5.600  10.334 -0.3962 -0.3743  0.5539
29733SOL    HW196057  11.200   5.558  10.258 -1.4248  0.2314  0.7670
29733SOL    HW296058  11.291   5.673  10.297 -1.1543  0.1114  0.4975
29734SOL     OW96059  10.214   9.788  10.681  0.1182  0.6070 -0.7274
29734SOL    HW196060  10.270   9.712  10.696 -0.9825  0.0972  1.0464
29734SOL    HW296061  10.205   9.829  10.768  1.5271  3.4141 -1.7736
29735SOL     OW96062   0.749   3.987  12.288  0.2852  0.0275 -0.2785
29735SOL    HW196063   0.819   3.995  12.352  0.2854 -1.0049 -0.1469
29735SOL    HW296064   0.793   3.968  12.205  0.2054  0.2090 -0.3654
29736SOL     OW96065   7.028  10.441   4.805  0.3988 -0.1920  0.7134
29736SOL    HW196066   7.075  10.377   4.751  3.0080  1.0825  1.3007
29736SOL    HW296067   7.046  10.414   4.895  1.0877  1.0391  0.9598
29737SOL     OW96068   7.193   4.227   8.540 -0.4852 -0.2027 -0.1067
29737SOL    HW196069   7.224   4.137   8.552 -1.2142 -0.4681 -0.1328
29737SOL    HW296070   7.116   4.218   8.485 -1.4808  0.2695  1.1595
29738SOL     OW96071   2.076   3.998   0.442 -0.2512  0.0640  0.1135
29738SOL    HW196072   2.067   4.063   0.511 -0.6744  0.4986 -0.3412
29738SOL    HW296073   2.137   3.934   0.477  0.9329  1.2077  0.2035
29739SOL     OW96074   9.391  11.664  11.330  0.0414  0.0118  0.2635
29739SOL    HW196075   9.373  11.718  11.407 -0.4234 -1.6445  1.3648
29739SOL    HW296076   9.311  11.668  11.278 -0.4099 -0.4840  0.9019
29740SOL     OW96077   4.432   4.366  12.234 -0.0901 -0.2876  0.4903
29740SOL    HW196078   4.338   4.354  12.235 -0.1411 -0.2737 -1.3301
29740SOL    HW296079   4.468   4.278  12.221  0.0544 -0.0968 -0.4877
29741SOL     OW96080   0.999   4.874  11.545 -0.1859 -0.0250 -0.0889
29741SOL    HW196081   0.912   4.867  11.506  0.3758  1.7772 -1.8570
29741SOL    HW296082   1.059   4.876  11.470  1.3603 -0.7856  1.0674
29742SOL     OW96083  10.357   2.823  10.815  0.4288  0.2679  0.0450
29742SOL    HW196084  10.419   2.751  10.826 -0.8633 -0.8488  0.2495
29742SOL    HW296085  10.343   2.828  10.721  0.9605  0.6448 -0.0166
29743SOL     OW96086   2.436   3.051   5.191  0.5057  0.2289  0.1444
29743SOL    HW196087   2.457   3.067   5.283  0.5391  1.9721 -0.1385
29743SOL    HW296088   2.345   3.077   5.182  0.4601 -0.0700 -0.2890
29744SOL     OW96089   1.946   1.207   0.314 -0.3043 -0.2021 -0.6437
29744SOL    HW196090   1.995   1.253   0.246 -0.2306  1.6154  0.5596
29744SOL    HW296091   2.012   1.162   0.366 -0.2765 -0.7979 -1.1823
29745SOL     OW96092   3.510   3.709   6.834 -0.5952  0.0628 -0.3538
29745SOL    HW196093   3.556   3.676   6.757 -0.9338  0.3494 -0.6858
29745SOL    HW296094   3.579   3.747   6.889 -0.2371 -0.9602 -0.0782
29746SOL     OW96095   6.190   3.651  10.736  0.3324 -0.0764 -0.2800
29746SOL    HW196096   6.201   3.575  10.793 -0.6928  0.7918  1.1174
29746SOL    HW296097   6.107   3.690  10.762  1.0284  1.7867 -0.6394
29747SOL     OW96098   8.400   0.688  10.565 -0.4029  0.2933  0.5644
29747SOL    HW196099   8.310   0.672  10.595  0.1979  0.1089  2.3484
29747SOL    HW296100   8.389   0.730  10.480 -2.1887  0.4681  0.8401
29748SOL     OW96101   1.412   3.113   2.732 -0.3857 -0.0081 -0.2404
29748SOL    HW196102   1.437   3.133   2.822 -0.7637 -1.2080  0.1601
29748SOL    HW296103   1.319   3.088   2.738 -0.2008 -0.8959 -0.8198
29749SOL     OW96104   5.901   3.739   6.995 -0.2641  0.2878 -0.0179
29749SOL    HW196105   5.915   3.791   6.916  1.1217  0.6385  0.4227
29749SOL    HW296106   5.955   3.661   6.983  0.1921  0.4801  0.6902
29750SOL     OW96107   5.926   6.699   0.143 -0.2535 -0.2599 -0.5384
29750SOL    HW196108   5.923   6.794   0.132 -0.1769 -0.3900 -1.8812
29750SOL    HW296109   6.015   6.675   0.119  0.7816 -0.3656  2.9693
29751SOL     OW96110   6.371   0.050   2.496 -0.1178 -0.1106 -0.4281
29751SOL    HW196111   6.402   0.139   2.512  0.8522 -0.5237  0.1106
29751SOL    HW296112   6.382   0.005   2.580 -1.8080 -0.4123 -0.3314
29752SOL     OW96113   8.712   4.645   4.846  0.4834 -0.5661 -0.0966
29752SOL    HW196114   8.709   4.634   4.941  2.2272 -0.2743  0.0298
29752SOL    HW296115   8.652   4.718   4.828  1.7260  0.8204  1.0671
29753SOL     OW96116   0.635   6.689   6.221 -0.4248  0.1977  0.0595
29753SOL    HW196117   0.566   6.643   6.269  1.2615 -1.3987  1.0620
29753SOL    HW296118   0.610   6.782   6.226 -2.0973 -0.2665  1.0177
29754SOL     OW96119   3.284   8.865   7.821 -0.0898  0.2500  0.2523
29754SOL    HW196120   3.238   8.801   7.875  0.3045  1.0388  1.5878
29754SOL    HW296121   3.278   8.946   7.871  3.5916  0.2000  1.0402
29755SOL     OW96122   5.644   5.221   4.166 -0.4228  0.6506  0.0285
29755SOL    HW196123   5.613   5.155   4.104 -0.9436  0.1766  0.7846
29755SOL    HW296124   5.733   5.242   4.136 -1.2332  1.6585 -1.8644
29756SOL     OW96125  11.007   6.124  11.043  0.4327 -0.5247 -0.5158
29756SOL    HW196126  10.993   6.050  10.984  0.9044  0.0468 -1.3838
29756SOL    HW296127  11.050   6.087  11.119  1.7037 -0.9826 -1.4260
29757SOL     OW96128   4.636   3.563   2.801 -0.4950 -0.5306 -0.3148
29757SOL    HW196129   4.685   3.529   2.726 -0.3287  0.2703 -0.5772
29757SOL    HW296130   4.619   3.486   2.856  2.1773 -0.6631  0.4402
29758SOL     OW96131   7.162   6.174  10.573  0.1989 -0.0099  0.1821
29758SOL    HW196132   7.091   6.124  10.615  0.4020 -1.2955 -0.9425
29758SOL    HW296133   7.230   6.109  10.556  2.0187  1.3287  1.9159
29759SOL     OW96134   0.987  11.210  11.246  0.5633  0.0043  0.2160
29759SOL    HW196135   1.046  11.176  11.314  1.7937 -1.3680 -1.4652
29759SOL    HW296136   1.038  11.278  11.202  0.0299  0.3975  0.1965
29760SOL     OW96137   9.252   0.029   0.073  0.3098 -0.0592  0.2711
29760SOL    HW196138   9.301   0.110   0.085 -0.4227  0.0292  3.5423
29760SOL    HW296139   9.201   0.020   0.153 -0.7958 -3.0042 -0.6412
29761SOL     OW96140   8.997  10.146   3.571  0.5769 -0.0260 -0.1700
29761SOL    HW196141   9.072  10.186   3.528 -1.5339  1.1799 -3.0417
29761SOL    HW296142   8.939  10.121   3.500 -2.0608 -0.2727  1.9074
29762SOL     OW96143   4.455   3.425   6.860 -0.3445  0.2018  0.1643
29762SOL    HW196144   4.435   3.332   6.870 -0.3677  0.2692  0.8109
29762SOL    HW296145   4.547   3.432   6.883 -1.0226  0.7554  3.1141
29763SOL     OW96146   4.733   8.790   1.853  0.0159  0.1303 -0.2990
29763SOL    HW196147   4.704   8.811   1.764 -0.0189  0.1458 -0.2839
29763SOL    HW296148   4.828   8.782   1.846  0.1157  1.0460 -0.1519
29764SOL     OW96149  11.847  11.751   9.566  0.7459 -0.4524 -0.8624
29764SOL    HW196150  11.929  11.799   9.582 -0.5164  1.4758  0.3410
29764SOL    HW296151  11.779  11.811   9.597 -1.1019 -2.1992 -1.3728
29765SOL     OW96152   3.499   6.214   1.414  0.2051  0.2075 -0.4460
29765SOL    HW196153   3.585   6.248   1.442  1.1375 -2.0283 -0.4032
29765SOL    HW296154   3.437   6.280   1.444  1.8768  1.8267 -0.3309
29766SOL     OW96155   1.237   8.592   2.346  0.4254  0.1958  0.0414
29766SOL    HW196156   1.329   8.566   2.347  0.0538 -1.1841 -0.2323
29766SOL    HW296157   1.224   8.629   2.258  0.1316 -1.9050 -0.8482
29767SOL     OW96158   6.742  12.134  11.298 -0.7697  0.3937  0.8734
29767SOL    HW196159   6.674  12.153  11.234 -2.2720  2.3309  2.9376
29767SOL    HW296160   6.794  12.214  11.303  0.8461 -0.5742  0.3772
29768SOL     OW96161  11.069   7.092  11.403 -0.2510 -0.0384  0.4086
29768SOL    HW196162  11.145   7.034  11.392 -1.2663 -1.5434  1.0297
29768SOL    HW296163  11.030   7.097  11.316 -0.7800 -1.2136  0.5625
29769SOL     OW96164   8.234  10.044   1.696 -0.7790  0.3626  0.0818
29769SOL    HW196165   8.282  10.088   1.625 -0.8571  2.3061  1.1663
29769SOL    HW296166   8.302  10.024   1.760 -1.1671  1.9157  1.0299
29770SOL     OW96167   3.724   0.110   5.908 -0.6890 -0.5189 -0.8650
29770SOL    HW196168   3.731   0.165   5.829 -0.3123  0.0048 -0.4744
29770SOL    HW296169   3.658   0.154   5.962 -1.6574 -1.4008 -1.2934
29771SOL     OW96170   1.126   7.738   0.323 -0.1021  0.6473  0.2412
29771SOL    HW196171   1.072   7.746   0.402  0.5648  0.0089  0.7693
29771SOL    HW296172   1.063   7.742   0.251 -0.8768 -0.2038  0.8489
29772SOL     OW96173   2.383   5.301   3.983  0.1394  0.0761  0.1184
29772SOL    HW196174   2.315   5.234   3.982 -1.3294  1.4500 -1.7776
29772SOL    HW296175   2.353   5.365   4.047  0.4821 -0.0969  0.4520
29773SOL     OW96176   4.466   1.523   2.457 -0.1111 -0.3055  0.0126
29773SOL    HW196177   4.515   1.531   2.539  0.3037 -0.4243 -0.2218
29773SOL    HW296178   4.497   1.441   2.419 -1.6349 -1.1855  0.6119
29774SOL     OW96179   1.436   2.733   9.438  0.3407 -0.0673  0.8929
29774SOL    HW196180   1.454   2.811   9.490 -1.6291  0.0922  1.4180
29774SOL    HW296181   1.419   2.665   9.502 -4.3155  0.6223  0.7744
29775SOL     OW96182   5.494   3.789  11.972 -0.2116  0.4244 -0.0170
29775SOL    HW196183   5.496   3.859  11.907 -0.4030  0.3274 -0.1295
29775SOL    HW296184   5.585   3.759  11.978  0.0241  1.2399  0.6490
29776SOL     OW96185   8.417   5.552  11.397 -0.2693  0.0535  0.3814
29776SOL    HW196186   8.401   5.602  11.317  1.0521 -1.7202 -1.0689
29776SOL    HW296187   8.482   5.603  11.445  0.1554  0.3366 -0.4789
29777SOL     OW96188  10.343   4.380  12.456  0.8219  0.6505  0.1839
29777SOL    HW196189  10.394   4.456  12.486 -0.5872  1.7785 -0.1739
29777SOL    HW296190  10.253   4.400  12.480  0.4601 -1.1545  0.4921
29778SOL     OW96191   2.479   7.883   5.805 -0.1803  0.7259 -0.1853
29778SOL    HW196192   2.461   7.975   5.825 -0.7350  0.2395  1.8619
29778SOL    HW296193   2.505   7.846   5.889  1.5540 -0.6753 -1.2745
29779SOL     OW96194   0.489   6.983   3.617  0.1481 -0.0238 -0.2627
29779SOL    HW196195   0.466   6.890   3.619 -1.0755  0.2656  1.7386
29779SOL    HW296196   0.417   7.026   3.663  0.7791  1.9054 -1.0096
29780SOL     OW96197   7.315   6.515   5.149  0.1971  0.3349 -0.2149
29780SOL    HW196198   7.334   6.588   5.209 -0.7691  0.6735 -0.3025
29780SOL    HW296199   7.292   6.443   5.207  0.0546  0.4277 -0.1553
29781SOL     OW96200   4.149   4.284   8.631  0.2083  0.3020 -0.0277
29781SOL    HW196201   4.103   4.351   8.682 -1.2933 -0.0731 -0.8215
29781SOL    HW296202   4.239   4.286   8.664 -0.5458  0.4814  2.2002
29782SOL     OW96203   3.837   6.016  10.658  0.4577  0.0013 -0.2483
29782SOL    HW196204   3.810   6.096  10.614 -0.7604 -0.5517 -0.5169
29782SOL    HW296205   3.933   6.018  10.655  0.5061  2.1230  0.9604
29783SOL     OW96206  10.136  11.978   1.460 -0.6237 -0.2367  0.1468
29783SOL    HW196207  10.198  11.910   1.486  0.3021  0.0958 -1.1044
29783SOL    HW296208  10.131  12.035   1.536  0.4755 -0.3731  0.3464
29784SOL     OW96209   2.547   9.615   8.839 -0.2450 -0.1787  0.5372
29784SOL    HW196210   2.572   9.679   8.905  0.9295 -0.8019  0.7227
29784SOL    HW296211   2.460   9.643   8.810  1.2018  2.9706 -1.1989
29785SOL     OW96212   4.449   2.477   1.501  0.1845  0.1184  0.1301
29785SOL    HW196213   4.544   2.487   1.493  0.5012 -1.1823  1.7873
29785SOL    HW296214   4.414   2.565   1.485  1.7144  0.7446  0.0884
29786SOL     OW96215  10.211   5.450  10.441 -0.0133  0.1758 -0.1698
29786SOL    HW196216  10.289   5.470  10.493  1.5473  0.6366 -2.5416
29786SOL    HW296217  10.234   5.477  10.352 -2.6388 -0.3555 -1.0906
29787SOL     OW96218   6.979   7.797   7.477 -0.4940  0.0991  0.4852
29787SOL    HW196219   6.942   7.719   7.434  0.6476  0.3027 -0.9729
29787SOL    HW296220   7.074   7.784   7.472 -0.2884  1.4661  0.4120
29788SOL     OW96221   5.643   7.454   1.007 -0.9867  0.5051 -0.5862
29788SOL    HW196222   5.703   7.523   0.976  2.4154 -0.6190  2.7374
29788SOL    HW296223   5.632   7.397   0.931  3.3372  0.1647 -1.2362
29789SOL     OW96224   8.879   5.483   0.068  0.1894 -0.1234 -0.5989
29789SOL    HW196225   8.967   5.456   0.096 -0.6212 -1.6190  0.6160
29789SOL    HW296226   8.895   5.559   0.011  2.1544  0.8628  1.1076
29790SOL     OW96227  12.096   5.400   5.429 -0.5805 -0.0208  0.4661
29790SOL    HW196228  12.023   5.449   5.391 -1.0972 -0.7385  0.5074
29790SOL    HW296229  12.113   5.444   5.512 -1.1259  0.0111  0.5664
29791SOL     OW96230  10.032   1.323   2.567 -0.1278 -0.3319  0.1655
29791SOL    HW196231  10.003   1.411   2.541 -1.8537 -0.6540  0.8087
29791SOL    HW296232  10.104   1.303   2.509  0.1913  1.4484 -0.1159
29792SOL     OW96233   4.744   5.543   7.788 -0.1503 -0.4792 -0.0662
29792SOL    HW196234   4.830   5.524   7.751 -0.9890  0.6075 -2.8805
29792SOL    HW296235   4.752   5.524   7.882  3.0500 -0.6342 -0.2851
29793SOL     OW96236   9.866   2.184   4.435  0.2074 -0.2028  0.0528
29793SOL    HW196237   9.899   2.096   4.419 -0.7672 -0.6631  0.5387
29793SOL    HW296238   9.846   2.218   4.348 -0.4193 -0.8576 -0.0626
29794SOL     OW96239   4.452   9.491   7.147 -0.0110  0.2530  0.1936
29794SOL    HW196240   4.450   9.571   7.094  4.7830  0.0900 -0.6857
29794SOL    HW296241   4.520   9.508   7.212  1.1604 -3.0608  0.0130
29795SOL     OW96242   8.168   4.100   4.722  0.3557  0.2210  0.3516
29795SOL    HW196243   8.182   4.194   4.727  1.2719  0.0749  0.6006
29795SOL    HW296244   8.255   4.062   4.730  0.2242 -0.5830 -1.5787
29796SOL     OW96245   8.982  10.526   9.821 -0.2994  0.2550 -0.3397
29796SOL    HW196246   9.013  10.613   9.796  0.4282  0.3060  0.6685
29796SOL    HW296247   9.062  10.473   9.829 -0.6188 -0.1437  0.3496
29797SOL     OW96248   7.528   9.361   2.272  0.1515  0.0196  0.1904
29797SOL    HW196249   7.518   9.398   2.184  1.1090  1.9773  0.8521
29797SOL    HW296250   7.576   9.280   2.258 -1.0799 -0.5249 -1.2263
29798SOL     OW96251   1.785   9.456  10.927  0.0957  0.1608 -0.1027
29798SOL    HW196252   1.712   9.394  10.931 -1.5513  1.8405 -1.6110
29798SOL    HW296253   1.816   9.450  10.836  1.2843  0.0972  0.2909
29799SOL     OW96254  11.028   4.976   3.406 -0.3979  0.0075  0.3969
29799SOL    HW196255  11.119   4.978   3.377 -0.6236 -1.8629 -0.6141
29799SOL    HW296256  11.033   4.958   3.500  0.2841 -0.0795  0.3494
29800SOL     OW96257  11.551   2.680   5.276 -0.7803 -0.2818 -0.4549
29800SOL    HW196258  11.561   2.754   5.337  1.7950 -0.1297 -0.9326
29800SOL    HW296259  11.559   2.720   5.189  1.0683 -1.0955 -0.7097
29801SOL     OW96260   1.756   6.292   4.507 -0.2257 -0.1023 -0.4226
29801SOL    HW196261   1.752   6.364   4.570 -0.6605 -0.8566  0.4295
29801SOL    HW296262   1.767   6.335   4.423 -5.8101  1.4131 -0.7457
29802SOL     OW96263   9.230   9.410   6.716  0.0517 -0.0854 -0.1128
29802SOL    HW196264   9.275   9.337   6.675 -1.4368 -1.2572  0.2365
29802SOL    HW296265   9.217   9.473   6.646 -1.2896 -1.4868 -1.1864
29803SOL     OW96266   7.507   1.625   0.562  0.1689  0.1716  0.2119
29803SOL    HW196267   7.594   1.621   0.522  0.5808  1.9384  0.8656
29803SOL    HW296268   7.523   1.625   0.656 -0.5856 -0.1072  0.3517
29804SOL     OW96269   7.407  11.955   3.624  0.1805  0.2830  0.0468
29804SOL    HW196270   7.446  11.900   3.555 -1.5560 -0.5219 -0.3524
29804SOL    HW296271   7.448  11.924   3.705 -0.3741 -1.2770 -0.2333
29805SOL     OW96272   7.245   9.693   3.440  0.0160  0.1103  0.5352
29805SOL    HW196273   7.200   9.773   3.465 -0.7473 -0.1147 -0.0785
29805SOL    HW296274   7.197   9.623   3.484  0.1571 -0.0800  0.3927
29806SOL     OW96275   5.083  12.383   1.423 -0.2425 -0.3577 -0.0379
29806SOL    HW196276   5.045  12.469   1.436  2.6639  0.7280  2.3589
29806SOL    HW296277   5.178  12.398   1.418  0.4630 -3.4356  1.3122
29807SOL     OW96278   5.786  10.213   8.564 -0.0553 -0.0045 -0.1900
29807SOL    HW196279   5.763  10.253   8.647 -0.6653 -1.5087  0.3932
29807SOL    HW296280   5.853  10.148   8.585  0.4199  0.1909 -1.0130
29808SOL     OW96281  11.976   6.900   2.330 -0.1236  0.7789  0.0896
29808SOL    HW196282  12.004   6.815   2.295 -0.8059 -0.3911  2.2059
29808SOL    HW296283  12.041   6.961   2.298  0.9503 -0.7028 -0.6987
29809SOL     OW96284  11.866  10.994   9.806 -0.0542 -0.1288 -0.1300
29809SOL    HW196285  11.890  10.905   9.779  0.5155 -0.3251  0.9662
29809SOL    HW296286  11.926  11.051   9.758  0.8540 -0.4629  0.5783
29810SOL     OW96287   6.850   9.434   2.124 -0.3547 -0.3028  0.3730
29810SOL    HW196288   6.889   9.517   2.097  0.4324 -0.6263  0.4930
29810SOL    HW296289   6.853   9.380   2.045  0.8830 -0.8526  0.7721
29811SOL     OW96290   6.361   5.688   5.305  0.2407 -0.0540 -0.9041
29811SOL    HW196291   6.289   5.633   5.337  1.9604 -2.8244 -1.4451
29811SOL    HW296292   6.355   5.768   5.358 -2.1975 -0.8422  0.1829
29812SOL     OW96293   4.697   0.238   8.342  0.6326  0.0046 -0.2396
29812SOL    HW196294   4.702   0.201   8.254 -0.8903 -1.1027  0.0850
29812SOL    HW296295   4.754   0.315   8.339  0.8497 -0.1703 -2.0964
29813SOL     OW96296   9.351   3.376  10.519  0.1751  0.1832  0.1023
29813SOL    HW196297   9.295   3.442  10.478  0.3244 -0.7827 -1.7585
29813SOL    HW296298   9.440   3.403  10.496  0.2553 -0.4520 -0.3465
29814SOL     OW96299   7.866   3.967   3.285 -0.0565  0.4370  0.8365
29814SOL    HW196300   7.774   3.957   3.262  0.1273  1.8893 -0.6867
29814SOL    HW296301   7.904   3.880   3.271 -0.9561  0.1092  0.3830
29815SOL     OW96302   1.897   6.972   4.272 -0.2458  0.2379 -0.6266
29815SOL    HW196303   1.972   6.935   4.317 -0.4262 -0.6254 -1.0030
29815SOL    HW296304   1.845   7.014   4.340  0.9310  1.4841 -0.4660
29816SOL     OW96305   2.307   2.173   7.766  0.2079 -0.4371  0.3022
29816SOL    HW196306   2.376   2.240   7.770  2.4379 -2.1207 -3.7084
29816SOL    HW296307   2.236   2.214   7.717 -0.0399  0.1325  1.1274
29817SOL     OW96308   8.522   3.512   6.912 -0.4449 -0.2070 -0.3424
29817SOL    HW196309   8.472   3.455   6.854 -0.3230  0.1473 -0.7977
29817SOL    HW296310   8.613   3.481   6.902 -0.3384  0.2363 -0.8008
29818SOL     OW96311   1.992   0.244  10.391  0.4279 -0.3265  0.1534
29818SOL    HW196312   2.083   0.273  10.390  0.1725  0.5693  1.2259
29818SOL    HW296313   1.950   0.298  10.324  0.7601 -1.0723 -0.6794
29819SOL     OW96314   4.086   7.117   4.135  0.1194  0.8179  0.1532
29819SOL    HW196315   4.017   7.099   4.199  0.3663 -1.1540 -0.0826
29819SOL    HW296316   4.141   7.184   4.177  0.1380 -0.2381  1.8974
29820SOL     OW96317   2.567   9.330   1.619 -0.3693 -0.0717  0.2463
29820SOL    HW196318   2.502   9.263   1.599 -1.5077  1.4789 -1.5998
29820SOL    HW296319   2.543   9.364   1.705  0.3272 -2.0756  1.2811
29821SOL     OW96320   7.114   9.164   6.892  0.1937  0.3562  0.3336
29821SOL    HW196321   7.065   9.090   6.927 -0.9641  1.8199  1.9995
29821SOL    HW296322   7.048   9.233   6.881  1.5424  1.7970  0.8454
29822SOL     OW96323   2.704   2.441   1.052  0.3377 -0.9953  0.6253
29822SOL    HW196324   2.679   2.479   0.968  2.3055 -0.9906 -0.0018
29822SOL    HW296325   2.703   2.514   1.113 -0.7170 -0.9252  0.5496
29823SOL     OW96326   0.847  12.329   9.570  0.5955  0.7330 -0.0521
29823SOL    HW196327   0.914  12.276   9.613 -0.3043 -0.3076  0.1060
29823SOL    HW296328   0.861  12.316   9.477  0.8119  0.7644 -0.0235
29824SOL     OW96329   1.717   4.269   6.674  0.1670  0.2964  0.0740
29824SOL    HW196330   1.781   4.336   6.653 -0.4872  0.9196  0.0427
29824SOL    HW296331   1.768   4.188   6.682  0.6392  0.2375 -2.6504
29825SOL     OW96332   4.670   7.322  12.145  0.2670  0.0464 -0.0713
29825SOL    HW196333   4.692   7.324  12.052 -1.3851  0.5215 -0.4778
29825SOL    HW296334   4.649   7.413  12.167  0.4172 -0.1010  0.7104
29826SOL     OW96335   8.375   4.082   0.356  0.0106 -0.1065  0.2107
29826SOL    HW196336   8.330   4.004   0.322 -1.0425  0.7735 -0.4681
29826SOL    HW296337   8.435   4.047   0.423 -1.0040 -1.4136  0.4847
29827SOL     OW96338   7.758   7.803   3.815 -0.1526  0.4723 -0.1813
29827SOL    HW196339   7.830   7.801   3.751  0.5512 -0.7237  0.6107
29827SOL    HW296340   7.703   7.729   3.790  0.4899 -0.4230  0.9763
29828SOL     OW96341   7.991   0.899   7.470  0.2530 -0.4409 -0.0793
29828SOL    HW196342   7.913   0.844   7.480 -0.1554  0.0148 -0.6330
29828SOL    HW296343   8.053   0.843   7.424 -0.3263 -0.3045 -1.0615
29829SOL     OW96344   5.626   8.552   8.764 -0.3938  0.1190  0.0831
29829SOL    HW196345   5.546   8.511   8.730 -1.4204 -1.0051  3.4769
29829SOL    HW296346   5.697   8.502   8.724 -1.3595  0.1963 -1.8914
29830SOL     OW96347   1.405   6.628   8.065 -0.2197  0.1225 -0.6628
29830SOL    HW196348   1.360   6.709   8.040  0.3477  0.5327 -0.3530
29830SOL    HW296349   1.364   6.604   8.148 -0.7340 -0.1829 -0.9972
29831SOL     OW96350   5.456   1.954  10.232  0.0373 -0.3798 -0.0058
29831SOL    HW196351   5.499   2.030  10.272 -0.6534 -1.1938  2.4396
29831SOL    HW296352   5.442   1.980  10.140  1.1530  1.8384  0.3896
29832SOL     OW96353   2.701   4.260   4.040 -0.3134 -0.2137 -0.4005
29832SOL    HW196354   2.730   4.169   4.032  1.9797  0.2357  1.7018
29832SOL    HW296355   2.661   4.265   4.127 -0.2705  0.8353 -0.4329
29833SOL     OW96356   7.438   2.379   1.307  0.0819  0.6426 -0.1962
29833SOL    HW196357   7.520   2.410   1.344  0.2834  0.7626 -0.7250
29833SOL    HW296358   7.396   2.330   1.377  0.1119  1.4690  0.4178
29834SOL     OW96359   1.147   8.214   2.151 -0.1703  0.2835 -0.2146
29834SOL    HW196360   1.133   8.120   2.166  0.7722 -0.1743 -1.9127
29834SOL    HW296361   1.240   8.222   2.130 -0.4148  1.4699 -0.9594
29835SOL     OW96362   2.927   1.183   6.350 -0.2558 -0.3562  0.0600
29835SOL    HW196363   2.967   1.141   6.273 -1.9470  1.9103 -2.2176
29835SOL    HW296364   2.999   1.232   6.390  0.4895 -0.9116 -0.5573
29836SOL     OW96365   2.493   7.556   1.189 -0.2557 -0.0295  0.0006
29836SOL    HW196366   2.397   7.556   1.187 -0.3451 -2.2793  1.0200
29836SOL    HW296367   2.516   7.465   1.204  2.1041  0.3344 -1.0669
29837SOL     OW96368   1.182   9.107   4.970  0.2467  0.1059  0.1795
29837SOL    HW196369   1.136   9.076   5.048  0.4628  1.8331  1.0651
29837SOL    HW296370   1.113   9.133   4.910  0.0547  0.5368  0.5784
29838SOL     OW96371  11.434   3.613   0.984  0.4749 -0.0792  0.1265
29838SOL    HW196372  11.354   3.666   0.978  0.4386 -0.1094  0.3238
29838SOL    HW296373  11.402   3.524   0.999  0.5676  0.0874  1.4105
29839SOL     OW96374   5.407   4.394   6.753  0.4729  0.9010 -0.1605
29839SOL    HW196375   5.413   4.420   6.845 -0.8626 -1.5868  0.7284
29839SOL    HW296376   5.357   4.312   6.755  0.8170  0.5319 -3.0726
29840SOL     OW96377   6.964   5.096   2.883  0.2650 -0.4258 -0.2201
29840SOL    HW196378   6.961   5.086   2.788  0.6572 -0.2307 -0.2534
29840SOL    HW296379   6.873   5.117   2.907  0.5176  1.5841 -0.7908
29841SOL     OW96380   2.549  10.877   8.299 -1.0519  0.0363 -0.3067
29841SOL    HW196381   2.518  10.798   8.342 -2.0525  0.2989 -0.5220
29841SOL    HW296382   2.644  10.874   8.308 -1.0636 -1.2957 -0.5227
29842SOL     OW96383   7.923   9.596   7.757 -0.2630  0.0730  0.3411
29842SOL    HW196384   7.891   9.506   7.749 -4.0821  1.2501  0.4564
29842SOL    HW296385   7.979   9.594   7.834 -0.1636 -2.2177  0.2839
29843SOL     OW96386   3.011   2.256   6.009 -0.4438  0.2652 -0.3859
29843SOL    HW196387   3.065   2.186   6.045 -0.3085  0.3660 -0.3928
29843SOL    HW296388   2.923   2.237   6.042 -0.0510  1.2421  1.3143
29844SOL     OW96389  11.527   8.400  11.951  0.0439  0.4457  0.4723
29844SOL    HW196390  11.507   8.317  11.994  2.5437 -1.3824 -1.5884
29844SOL    HW296391  11.600   8.436  12.001  1.5645 -0.6456 -0.8585
29845SOL     OW96392   9.661   2.892   0.463  0.3703 -0.2367  0.2697
29845SOL    HW196393   9.752   2.861   0.467  0.0469 -1.7279 -2.1076
29845SOL    HW296394   9.668   2.986   0.447  1.4712 -0.1586  1.0914
29846SOL     OW96395  12.482   3.315  10.276  0.0570 -0.1018  0.5729
29846SOL    HW196396  12.471   3.222  10.259 -0.4283 -0.0775  0.7499
29846SOL    HW296397  12.420   3.358  10.217  1.8413  0.2380 -1.1538
29847SOL     OW96398   3.536   6.166   7.613  0.2386  0.2422  1.0234
29847SOL    HW196399   3.459   6.141   7.664  0.4939 -0.3490  1.1212
29847SOL    HW296400   3.599   6.096   7.627 -0.7260 -1.5486 -2.4527
29848SOL     OW96401   5.000  12.250   9.011  0.3639 -0.4848  0.1472
29848SOL    HW196402   4.984  12.345   9.010 -1.6198 -0.7701 -1.4106
29848SOL    HW296403   4.990  12.226   9.103  0.1446  0.7093  0.4560
29849SOL     OW96404   3.779   8.143   9.250  0.1692 -0.3833 -0.2343
29849SOL    HW196405   3.709   8.145   9.316 -0.2286  0.6883 -0.6635
29849SOL    HW296406   3.733   8.157   9.167  0.9613  1.1315 -0.4455
29850SOL     OW96407   5.741   4.416   3.848 -0.1029 -0.0852  0.1898
29850SOL    HW196408   5.686   4.368   3.786  0.7711 -0.6161 -0.1900
29850SOL    HW296409   5.678   4.462   3.905 -0.9763 -1.6887  0.5882
29851SOL     OW96410   6.760   5.221   1.964  0.3713 -0.3163 -0.1524
29851SOL    HW196411   6.828   5.288   1.976 -0.1181 -0.0469  1.3060
29851SOL    HW296412   6.783   5.178   1.882  1.4185  0.8027 -0.4720
29852SOL     OW96413   1.109   9.776   1.017  0.2692 -0.2942 -0.1366
29852SOL    HW196414   1.051   9.767   1.092 -0.5182  2.3009 -0.3363
29852SOL    HW296415   1.051   9.782   0.942  0.8005  1.1646 -0.4682
29853SOL     OW96416   1.220   0.295   5.042  0.8096  0.3854 -0.4729
29853SOL    HW196417   1.197   0.331   4.957 -0.1999 -0.8933 -0.7624
29853SOL    HW296418   1.192   0.204   5.039  2.1770 -0.1192  0.6826
29854SOL     OW96419  10.636   8.373   8.879  0.3472  0.7464 -0.1062
29854SOL    HW196420  10.639   8.321   8.959 -0.7269  1.5593  0.4955
29854SOL    HW296421  10.727   8.400   8.864  0.2970  2.4355  2.1256
29855SOL     OW96422   1.472   9.929   5.257 -0.4866 -0.8990  0.2338
29855SOL    HW196423   1.433   9.842   5.253 -1.5296 -0.5055  1.3090
29855SOL    HW296424   1.558   9.919   5.217 -0.3283 -2.5720  0.9317
29856SOL     OW96425   8.891   5.116   9.595  0.3160  0.2647  0.7297
29856SOL    HW196426   8.982   5.108   9.566  0.7257  0.4645  1.9115
29856SOL    HW296427   8.863   5.025   9.606 -0.0088  0.1638 -0.7067
29857SOL     OW96428   2.067   0.064   7.443  0.1686 -0.4527  0.0972
29857SOL    HW196429   2.033   0.098   7.525  0.8218 -2.0168  1.0643
29857SOL    HW296430   2.111  -0.017   7.467  1.3607 -0.3769 -1.6442
29858SOL     OW96431   6.222   8.600   2.467 -0.6616  0.1922  0.0965
29858SOL    HW196432   6.236   8.691   2.496 -0.4402  0.1652  0.0801
29858SOL    HW296433   6.129   8.584   2.481 -0.8610  0.6768 -0.6256
29859SOL     OW96434  10.463   0.653   9.919 -0.1225  0.0152 -0.1374
29859SOL    HW196435  10.465   0.715   9.847  0.9059  0.5810  0.3658
29859SOL    HW296436  10.530   0.684   9.980  1.3046 -2.2536 -0.4406
29860SOL     OW96437   5.798   9.614   6.019  0.0740  0.1044  0.3132
29860SOL    HW196438   5.814   9.675   5.947 -1.7348 -0.2350 -0.4243
29860SOL    HW296439   5.861   9.640   6.086  1.8382  0.4243 -1.3622
29861SOL     OW96440   3.803  10.716   7.606 -0.4229 -0.1695  0.5632
29861SOL    HW196441   3.791  10.708   7.700  0.7815  0.2145  0.7689
29861SOL    HW296442   3.773  10.805   7.586 -0.8991 -0.3339  0.5442
29862SOL     OW96443   4.637  11.944   2.938  0.3275  0.6068 -0.1028
29862SOL    HW196444   4.704  12.012   2.939  0.5006  0.4250  0.8431
29862SOL    HW296445   4.554  11.992   2.943  0.4518  0.7436  0.6528
29863SOL     OW96446  10.480   9.850   0.988 -0.2682 -0.0699 -0.6054
29863SOL    HW196447  10.569   9.868   1.017 -0.7716  0.7843  0.4800
29863SOL    HW296448  10.426   9.913   1.036 -1.7091 -2.0620  0.5082
29864SOL     OW96449   2.377  11.612   4.535  0.3205 -0.5593  0.5104
29864SOL    HW196450   2.352  11.543   4.472  0.8638  0.6384 -1.0823
29864SOL    HW296451   2.317  11.684   4.516 -0.0698 -0.4818  1.9869
29865SOL     OW96452   5.470   2.489  11.197 -0.4908 -0.3740 -0.1311
29865SOL    HW196453   5.496   2.523  11.111  1.0818 -2.1082 -0.4167
29865SOL    HW296454   5.395   2.542  11.222 -0.2528  0.9726 -2.0381
29866SOL     OW96455   5.845  11.756   7.013 -0.5855 -0.1639 -0.2766
29866SOL    HW196456   5.923  11.811   7.015 -0.3748 -0.4783  0.3847
29866SOL    HW296457   5.876  11.670   6.985 -0.8289 -0.0888 -0.7929
29867SOL     OW96458   6.157   6.092   2.283 -0.3595  0.0716 -0.2902
29867SOL    HW196459   6.229   6.028   2.283 -2.4451 -2.5188  1.4933
29867SOL    HW296460   6.139   6.109   2.191  0.0005 -2.3642 -0.8825
29868SOL     OW96461   3.161   1.681   3.843 -0.2648  0.3460 -0.2361
29868SOL    HW196462   3.163   1.679   3.939 -0.6069 -0.0310 -0.2319
29868SOL    HW296463   3.095   1.616   3.820  1.0422 -0.8385 -0.7816
29869SOL     OW96464  11.926  10.606   8.506  0.1748 -0.3325  0.8024
29869SOL    HW196465  12.011  10.605   8.550  1.2625  0.7150 -1.1200
29869SOL    HW296466  11.915  10.697   8.478 -0.3989 -0.9319 -1.0794
29870SOL     OW96467   6.360   0.196   8.074 -0.2774  0.7367  0.1482
29870SOL    HW196468   6.313   0.155   8.147 -2.1237  1.1201 -0.7618
29870SOL    HW296469   6.414   0.126   8.038 -1.2003 -0.1192  0.3856
29871SOL     OW96470   2.680   9.082   8.100 -0.0961  0.4645  0.1287
29871SOL    HW196471   2.688   9.042   8.187 -0.8555  0.6111  0.2690
29871SOL    HW296472   2.770   9.102   8.075  0.1657  0.0283  0.6960
29872SOL     OW96473  10.279  10.146   7.622 -0.5626  0.4129  0.0528
29872SOL    HW196474  10.246  10.093   7.550  2.1704 -0.3150 -0.7500
29872SOL    HW296475  10.242  10.233   7.606 -1.8545 -0.2724 -0.8809
29873SOL     OW96476  10.010   7.125   7.931  0.1423 -0.0606  0.1471
29873SOL    HW196477  10.053   7.102   7.849 -0.9010  0.6481 -0.6306
29873SOL    HW296478   9.987   7.217   7.921 -1.4690 -0.3907  0.5453
29874SOL     OW96479   3.445   1.739   6.094  0.1374 -0.3452 -0.4567
29874SOL    HW196480   3.500   1.701   6.163 -0.7959 -0.9948 -0.0444
29874SOL    HW296481   3.399   1.664   6.057 -2.4715  0.4144  1.0140
29875SOL     OW96482   9.080   0.797  11.593  0.6260  0.2981 -0.1828
29875SOL    HW196483   9.006   0.792  11.654 -0.1505  0.3655 -1.1037
29875SOL    HW296484   9.077   0.715  11.545  1.4872  0.0680  0.1338
29876SOL     OW96485  10.217   2.136   8.985 -0.4016 -0.2057  0.1964
29876SOL    HW196486  10.283   2.092   9.039 -0.5871 -1.7333 -0.7655
29876SOL    HW296487  10.214   2.085   8.905 -2.9419 -0.3327  0.2986
29877SOL     OW96488   3.806   6.615   3.013  0.7405 -0.2821  0.2335
29877SOL    HW196489   3.731   6.639   3.068 -0.5038 -0.4051 -1.3498
29877SOL    HW296490   3.828   6.526   3.039 -1.6186 -1.3925 -1.2814
29878SOL     OW96491  11.251  10.023  11.749 -0.4174  0.3646 -0.1427
29878SOL    HW196492  11.298  10.049  11.828  1.3047 -0.5586 -0.8003
29878SOL    HW296493  11.173   9.977  11.781 -0.6085  1.4533  0.9903
29879SOL     OW96494  12.265   1.913   0.277  0.0314  0.0855  0.3152
29879SOL    HW196495  12.288   1.979   0.343 -0.8116  2.3444 -1.5152
29879SOL    HW296496  12.270   1.830   0.324  0.1503  1.5030  3.0247
29880SOL     OW96497   5.126   3.292  10.242 -0.0876  0.2582 -0.0710
29880SOL    HW196498   5.191   3.285  10.172  1.0390 -0.0524  0.9689
29880SOL    HW296499   5.113   3.386  10.253 -0.4489  0.3063 -0.8385
29881SOL     OW96500  11.814   5.889  11.545 -0.1633 -0.2365  0.0854
29881SOL    HW196501  11.812   5.832  11.468  1.0398 -0.5309  0.2571
29881SOL    HW296502  11.865   5.966  11.517  0.8751 -0.6542  0.7695
29882SOL     OW96503   1.502  10.476   0.271 -0.1940 -0.0789 -0.1452
29882SOL    HW196504   1.523  10.449   0.360  0.4896  0.6531 -0.0667
29882SOL    HW296505   1.565  10.547   0.252  0.6139 -1.1551 -1.7121
29883SOL     OW96506  10.582   7.020  12.138  0.2890 -0.1376 -0.1178
29883SOL    HW196507  10.590   7.006  12.233  0.7391 -1.2838 -0.3081
29883SOL    HW296508  10.593   6.932  12.100  2.5235  0.5950 -1.3633
29884SOL     OW96509   0.119  11.652   4.775 -0.2164 -0.0461  0.1954
29884SOL    HW196510   0.133  11.562   4.805 -3.2783 -0.5386  0.4728
29884SOL    HW296511   0.143  11.707   4.850  2.0045 -0.5487 -0.0946
29885SOL     OW96512   1.777   2.018   9.689 -0.8044  0.5368 -0.3643
29885SOL    HW196513   1.753   1.955   9.757  0.6567 -0.8424 -1.0811
29885SOL    HW296514   1.768   1.971   9.607 -0.7467  1.6087 -1.0090
29886SOL     OW96515  11.868   8.484   4.912 -0.7859 -0.1636 -0.0690
29886SOL    HW196516  11.875   8.552   4.979 -0.7299 -0.3351  0.0978
29886SOL    HW296517  11.950   8.435   4.919  0.5671  1.5878 -2.1812
29887SOL     OW96518   0.445   5.358   1.292  0.1162  0.2808 -0.0579
29887SOL    HW196519   0.360   5.359   1.336  0.2719 -1.0595  0.3161
29887SOL    HW296520   0.494   5.429   1.333  0.0653 -0.5786  1.6011
29888SOL     OW96521   7.213  12.205   3.944 -0.6675  0.0329  0.4300
29888SOL    HW196522   7.236  12.121   3.983 -0.2204  0.1710  0.4673
29888SOL    HW296523   7.127  12.226   3.981 -1.1258 -0.7615 -0.1495
29889SOL     OW96524   5.999   1.359   0.223  0.2600 -0.0621  0.0544
29889SOL    HW196525   6.017   1.376   0.316 -0.9219  0.3601  0.2235
29889SOL    HW296526   5.929   1.420   0.201 -1.2426 -1.8752 -0.4446
29890SOL     OW96527  12.484   7.575   3.424  0.1366 -0.3307  0.2589
29890SOL    HW196528  12.531   7.581   3.507 -0.0114 -0.1495  0.3317
29890SOL    HW296529  12.407   7.632   3.436  0.3880  0.1054 -0.1827
29891SOL     OW96530  12.353  11.849   0.792 -0.0796 -0.1990 -0.0629
29891SOL    HW196531  12.269  11.894   0.781 -1.1790 -2.2768 -0.6230
29891SOL    HW296532  12.419  11.918   0.783 -1.7408  1.9780  3.0354
29892SOL     OW96533   6.841  10.094   0.835 -0.0809  0.1102 -0.1538
29892SOL    HW196534   6.799  10.057   0.913  0.9755 -1.5592 -0.3340
29892SOL    HW296535   6.935  10.085   0.852  0.2458  2.8543 -0.1949
29893SOL     OW96536   3.950   5.106   9.077 -0.2918  0.4518  0.3729
29893SOL    HW196537   3.983   5.197   9.077  1.4845 -0.1357 -0.1271
29893SOL    HW296538   3.906   5.096   9.161 -0.4742  1.7681  0.4583
29894SOL     OW96539   9.575   2.559   2.432 -0.3771  0.5436 -0.1518
29894SOL    HW196540   9.531   2.644   2.429  0.5141  0.9952 -1.0515
29894SOL    HW296541   9.625   2.561   2.513 -1.6751  0.1716  0.6971
29895SOL     OW96542   1.817  11.539  12.392 -0.1848  0.5727  0.1398
29895SOL    HW196543   1.824  11.448  12.419  0.1545  0.6312  0.2569
29895SOL    HW296544   1.767  11.537  12.311 -1.2217  0.3968  0.7628
29896SOL     OW96545   9.076  10.506   7.298 -0.6395  0.0952 -0.4350
29896SOL    HW196546   9.072  10.412   7.317 -0.1133  0.1679  0.0571
29896SOL    HW296547   9.081  10.511   7.202  0.8679 -0.4527 -0.4211
29897SOL     OW96548   7.397   6.488   0.693  0.0746 -0.0257  0.2073
29897SOL    HW196549   7.369   6.564   0.642 -0.1171 -0.7009 -0.7398
29897SOL    HW296550   7.397   6.416   0.629  0.3087 -0.8009  1.0645
29898SOL     OW96551   7.065  11.312  11.138  0.5240  0.0499  0.4436
29898SOL    HW196552   6.998  11.305  11.206  0.9616 -1.4250  0.7465
29898SOL    HW296553   7.029  11.263  11.064  1.0488 -0.3220  0.4334
29899SOL     OW96554   1.856  12.371   1.841 -0.3156  0.4709  0.0990
29899SOL    HW196555   1.775  12.321   1.832  0.1984 -0.3811  0.0013
29899SOL    HW296556   1.829  12.458   1.870 -1.3169  0.4316 -0.6733
29900SOL     OW96557   0.475   0.636   2.109  0.1060 -0.1866 -0.4819
29900SOL    HW196558   0.406   0.692   2.074  0.7341  0.2155 -1.1184
29900SOL    HW296559   0.530   0.615   2.033  0.9969 -0.0322  0.1020
29901SOL     OW96560   4.906   9.630   5.236  0.3647 -0.0049  0.4369
29901SOL    HW196561   4.923   9.692   5.165 -0.8075 -0.5463 -0.3495
29901SOL    HW296562   4.991   9.619   5.279  0.5813  2.2190  0.6895
29902SOL     OW96563   0.727   8.708   8.447 -0.5640 -0.5049  0.8727
29902SOL    HW196564   0.760   8.628   8.406 -1.0742 -0.5183  0.4787
29902SOL    HW296565   0.787   8.724   8.520  1.1401  0.2173 -0.6180
29903SOL     OW96566   3.304   4.093  10.960  0.3008  0.1546 -0.0169
29903SOL    HW196567   3.265   4.054  11.038 -1.6789  2.4828  0.2625
29903SOL    HW296568   3.289   4.028  10.891 -0.5522 -0.6881  0.9219
29904SOL     OW96569   7.992   0.586   7.869 -0.0067 -0.1589  0.4565
29904SOL    HW196570   7.962   0.671   7.902 -0.8867 -0.4725  0.4907
29904SOL    HW296571   8.053   0.608   7.799  0.9673  0.5147  1.4707
29905SOL     OW96572   2.363   8.605  11.481  0.2984 -0.4712  0.7369
29905SOL    HW196573   2.272   8.577  11.485  0.3834 -0.9774 -0.3692
29905SOL    HW296574   2.362   8.683  11.426  0.3911  0.2423  1.7259
29906SOL     OW96575   7.457   2.597  11.659  0.6262  0.1780  0.2047
29906SOL    HW196576   7.373   2.601  11.707  1.0094  1.1386  0.8338
29906SOL    HW296577   7.456   2.512  11.616 -0.9553  0.4278 -0.3069
29907SOL     OW96578   1.573   0.767   1.692  0.0297  0.2407 -0.4709
29907SOL    HW196579   1.528   0.801   1.615 -1.0100  0.9438  0.4221
29907SOL    HW296580   1.503   0.736   1.749  0.8287 -1.1793 -0.2022
29908SOL     OW96581   4.798   9.963  11.127  0.4788 -0.5386  0.6423
29908SOL    HW196582   4.717   9.972  11.178 -0.5263 -0.6441 -0.8517
29908SOL    HW296583   4.811   9.868  11.120 -0.8004 -0.6488 -1.2956
29909SOL     OW96584   2.186   4.180   1.564  0.2401  0.2082 -0.2641
29909SOL    HW196585   2.281   4.187   1.551  0.0242  0.8188 -1.6739
29909SOL    HW296586   2.153   4.269   1.550 -0.7187 -0.3119 -1.5532
29910SOL     OW96587  11.445   3.608   3.976 -0.1201  0.2689 -0.3249
29910SOL    HW196588  11.358   3.641   3.957 -0.4140  0.0611  0.6297
29910SOL    HW296589  11.439   3.572   4.064  1.5444  2.5393  0.8451
29911SOL     OW96590   4.645   1.665   1.291  0.0434  0.0899  0.0814
29911SOL    HW196591   4.604   1.579   1.304  0.3221 -0.0744 -0.1100
29911SOL    HW296592   4.576   1.719   1.253 -0.5811  0.3793  1.5584
29912SOL     OW96593   4.007   1.456   8.112 -0.3814 -0.0023 -0.0701
29912SOL    HW196594   4.092   1.470   8.070 -0.4208  0.0622 -0.1290
29912SOL    HW296595   3.944   1.499   8.054 -0.3828  0.4981  0.2960
29913SOL     OW96596   8.513  12.301   7.398  0.0241  0.2479 -0.2936
29913SOL    HW196597   8.571  12.375   7.416 -2.4962  1.8795  1.9205
29913SOL    HW296598   8.538  12.271   7.311  2.1219  2.7854 -0.6782
29914SOL     OW96599  12.431   7.466   3.979 -0.1584  0.1963  0.2914
29914SOL    HW196600  12.516   7.422   3.980 -0.2011  0.1112  0.1461
29914SOL    HW296601  12.413   7.484   3.887 -0.4275 -0.0425  0.2927
29915SOL     OW96602   0.588   1.712   9.218  0.0871  0.3439  0.4347
29915SOL    HW196603   0.536   1.749   9.290 -1.9374 -0.2775 -0.6354
29915SOL    HW296604   0.607   1.623   9.247  0.2983  0.4659  0.6842
29916SOL     OW96605   5.470   4.512   9.187 -0.2345  0.2789  0.5626
29916SOL    HW196606   5.489   4.530   9.094 -1.7448 -0.3656  0.1036
29916SOL    HW296607   5.552   4.532   9.232  1.1168 -1.0893 -1.1236
29917SOL     OW96608  11.458   0.840   0.436 -0.1434 -0.3149  0.8862
29917SOL    HW196609  11.414   0.911   0.483 -0.4287 -0.4651  0.8487
29917SOL    HW296610  11.529   0.814   0.494 -0.5132 -0.5199  1.2548
29918SOL     OW96611   9.008  12.140   8.455  0.5715 -0.6984  0.1241
29918SOL    HW196612   8.923  12.101   8.476  0.6575 -1.4890 -0.9068
29918SOL    HW296613   9.063  12.118   8.530 -0.4713  1.0981  1.5299
29919SOL     OW96614   2.276   1.547   7.863 -0.4264 -0.2327 -0.3812
29919SOL    HW196615   2.355   1.601   7.860 -0.5997  0.0783  0.4277
29919SOL    HW296616   2.204   1.610   7.853 -0.6465 -0.2452  1.0495
29920SOL     OW96617   0.022   7.425  10.811  0.2095  0.0235  0.0292
29920SOL    HW196618   0.097   7.376  10.776 -1.1221 -1.3862 -1.0327
29920SOL    HW296619   0.023   7.508  10.764 -0.1232 -0.8701 -1.6388
29921SOL     OW96620  10.600   7.320   8.526 -0.1103  0.2789 -0.1358
29921SOL    HW196621  10.542   7.307   8.601 -0.7487  0.9047 -0.4991
29921SOL    HW296622  10.683   7.280   8.552 -0.8091 -0.9802  0.2497
29922SOL     OW96623   8.119   7.943   8.997 -0.3219  0.0009  0.1622
29922SOL    HW196624   8.070   7.924   8.918  0.5423 -0.1442 -0.3515
29922SOL    HW296625   8.199   7.985   8.966  1.2578 -2.3817  0.7188
29923SOL     OW96626   5.808   5.121   6.681 -0.1421  0.0450  0.6311
29923SOL    HW196627   5.856   5.202   6.696  0.2707 -0.2428  0.8613
29923SOL    HW296628   5.818   5.104   6.587 -1.2922  0.9294  0.3216
29924SOL     OW96629   9.338  10.266   1.186 -0.2458  0.6656 -0.2708
29924SOL    HW196630   9.343  10.173   1.164  1.7889  0.4607  0.8430
29924SOL    HW296631   9.272  10.271   1.255  0.2334 -0.1097  0.2615
29925SOL     OW96632   5.404  10.372   1.572 -0.4345 -0.1541  0.1012
29925SOL    HW196633   5.446  10.392   1.488 -1.2866 -0.8597 -0.5248
29925SOL    HW296634   5.450  10.294   1.604 -0.6206 -0.3575 -0.1155
29926SOL     OW96635  10.366   2.531   8.816 -0.2525 -0.4055 -0.0901
29926SOL    HW196636  10.319   2.509   8.897 -1.1516  2.5475  0.2953
29926SOL    HW296637  10.418   2.608   8.839  2.1978 -1.5360 -1.4686
29927SOL     OW96638   2.103   7.569  11.641 -0.9690  0.3908 -0.4799
29927SOL    HW196639   2.057   7.538  11.719  0.6437 -1.8227 -0.2950
29927SOL    HW296640   2.148   7.649  11.669 -0.1991 -0.5074  0.9757
29928SOL     OW96641  12.511   6.802   2.037 -0.4027  0.1697 -0.7313
29928SOL    HW196642  12.477   6.737   2.098  1.4924 -0.4628 -0.2861
29928SOL    HW296643  12.505   6.759   1.951 -1.0371  0.2066 -0.7085
29929SOL     OW96644   9.477  10.139   0.277 -0.4937 -0.5842  0.3673
29929SOL    HW196645   9.476  10.170   0.367  0.0689  0.2823  0.0868
29929SOL    HW296646   9.392  10.096   0.266 -2.2337  2.5819  0.2189
29930SOL     OW96647   2.210   4.580   7.012  0.1170  0.4419  0.4361
29930SOL    HW196648   2.298   4.617   7.004 -0.0874  0.7259 -0.6657
29930SOL    HW296649   2.151   4.654   6.998 -0.3100  0.2384  1.0847
29931SOL     OW96650   4.345   8.391   1.688 -0.2585 -0.1726 -0.5356
29931SOL    HW196651   4.264   8.436   1.666 -0.4352 -0.0588  0.2972
29931SOL    HW296652   4.414   8.455   1.672 -0.4735  0.2710  0.2405
29932SOL     OW96653   2.606   0.386   5.464 -0.1248 -0.1545 -0.1756
29932SOL    HW196654   2.570   0.347   5.543  0.7803 -0.4272  0.1091
29932SOL    HW296655   2.683   0.434   5.493 -0.9080  1.4385 -0.5992
29933SOL     OW96656  10.949   6.475   4.713 -0.2196  0.1862  0.3075
29933SOL    HW196657  10.864   6.502   4.748 -0.3022  0.7967 -0.3478
29933SOL    HW296658  11.009   6.545   4.741 -0.3526  0.8614 -1.0276
29934SOL     OW96659   0.853   2.276   0.213 -0.0899 -0.3568 -0.0667
29934SOL    HW196660   0.760   2.298   0.225 -0.0852 -0.0571 -0.5514
29934SOL    HW296661   0.899   2.358   0.229 -0.1357  0.2949 -2.7609
29935SOL     OW96662   5.423   3.134  11.625 -0.6532  0.1803 -0.1641
29935SOL    HW196663   5.454   3.147  11.536  0.7464  0.8161  0.3867
29935SOL    HW296664   5.329   3.115  11.615 -0.5822  0.5010 -1.7369
29936SOL     OW96665   4.117   2.355   7.052 -0.3665  0.5096  0.2248
29936SOL    HW196666   4.028   2.392   7.052 -0.6476  0.0112  2.4195
29936SOL    HW296667   4.118   2.294   6.978 -1.5285  1.2599 -0.4350
29937SOL     OW96668   9.876  11.088   2.305 -0.4869 -0.5760 -0.3262
29937SOL    HW196669   9.896  11.170   2.349  0.7676 -1.4731  0.8460
29937SOL    HW296670   9.843  11.030   2.375  0.0353 -1.5321 -0.8497
29938SOL     OW96671   3.603   1.499   0.538  0.3676 -0.3475  0.3788
29938SOL    HW196672   3.682   1.543   0.507  0.3299 -0.7329 -0.2758
29938SOL    HW296673   3.536   1.523   0.474 -0.0649  0.0150  0.9544
29939SOL     OW96674   3.877  12.234   2.979  0.1787 -0.4804 -0.2274
29939SOL    HW196675   3.836  12.229   3.066  1.1139 -2.1215  0.1465
29939SOL    HW296676   3.863  12.325   2.952 -0.3610  0.0026  1.5243
29940SOL     OW96677   9.250   4.496   3.037 -0.1222  0.2029  0.0333
29940SOL    HW196678   9.276   4.409   3.065  0.0508  0.0706 -0.5271
29940SOL    HW296679   9.333   4.544   3.030 -0.3409  1.1192  2.5622
29941SOL     OW96680   1.679   0.615   3.516 -0.1783  0.0303 -0.2732
29941SOL    HW196681   1.596   0.637   3.558 -0.4859  0.7254 -1.2109
29941SOL    HW296682   1.655   0.552   3.448  0.2621 -0.8068  0.3291
29942SOL     OW96683  10.507  10.444  11.798  0.7900  0.3843  0.3271
29942SOL    HW196684  10.476  10.534  11.812 -1.7833 -0.7360  3.1067
29942SOL    HW296685  10.545  10.419  11.882 -0.1896 -1.6654  0.2210
29943SOL     OW96686   8.094  11.606   0.148 -0.1797 -0.2967  0.6034
29943SOL    HW196687   8.131  11.591   0.235 -1.2445  0.2332  1.1728
29943SOL    HW296688   8.146  11.550   0.090  1.7346  0.6923  1.2722
29944SOL     OW96689  12.061   0.673   2.967 -0.2156  0.2618  0.1329
29944SOL    HW196690  12.088   0.743   2.908 -0.3608  1.7030  1.7129
29944SOL    HW296691  11.976   0.645   2.934  1.0562 -1.1870 -2.1819
29945SOL     OW96692   0.532   8.228   6.184 -0.3206 -0.1415 -0.4234
29945SOL    HW196693   0.458   8.171   6.163 -0.4643  0.6765 -2.3311
29945SOL    HW296694   0.496   8.291   6.247 -0.7404 -0.8232  0.0392
29946SOL     OW96695   0.460   5.619   7.441 -0.2580  0.0527 -0.0571
29946SOL    HW196696   0.452   5.678   7.366  0.6925  0.3063  0.0297
29946SOL    HW296697   0.389   5.556   7.429 -1.6242  1.4978  0.1176
29947SOL     OW96698   7.284  12.105  10.540  0.0630  0.1813 -0.3725
29947SOL    HW196699   7.329  12.171  10.487  0.6837 -0.9684 -1.3209
29947SOL    HW296700   7.326  12.023  10.516 -2.4393 -0.9466 -1.1659
29948SOL     OW96701   1.118   6.433  11.847  0.0529  0.3227  0.0025
29948SOL    HW196702   1.028   6.415  11.817 -0.0169  1.9519 -0.9037
29948SOL    HW296703   1.108   6.455  11.939 -0.1906 -1.3831  0.4311
29949SOL     OW96704   3.368   3.565   5.435 -0.1227 -0.4787  0.3851
29949SOL    HW196705   3.348   3.605   5.350  0.4232 -1.2218 -0.1010
29949SOL    HW296706   3.347   3.634   5.499  0.3243  0.4102 -0.3970
29950SOL     OW96707   9.875  11.008   4.029 -0.1250  0.3458 -0.4545
29950SOL    HW196708   9.898  11.014   4.122  1.0248  0.8275 -0.7430
29950SOL    HW296709   9.949  11.050   3.984 -0.3885 -0.3887 -1.6136
29951SOL     OW96710   1.090   0.545  12.221  0.7317 -0.2025 -0.0371
29951SOL    HW196711   1.143   0.528  12.143  1.3065  2.5859 -0.3830
29951SOL    HW296712   1.147   0.600  12.276 -0.0731 -1.1874  1.8558
29952SOL     OW96713   9.105   0.112   2.308 -0.4380 -0.1428  0.0602
29952SOL    HW196714   9.094   0.178   2.376 -1.9557  0.6549 -0.8896
29952SOL    HW296715   9.129   0.161   2.230  0.9904 -1.0095 -0.0798
29953SOL     OW96716   5.204   9.685   0.513 -0.6934 -0.0578 -0.2426
29953SOL    HW196717   5.127   9.729   0.548 -0.5183  0.4184 -0.4465
29953SOL    HW296718   5.189   9.682   0.419 -0.5322 -0.0954 -0.2669
29954SOL     OW96719   9.766   3.249   2.473  0.7394 -0.6701  0.2585
29954SOL    HW196720   9.769   3.331   2.424 -0.3703  0.0581  1.3546
29954SOL    HW296721   9.741   3.275   2.561  1.4757 -2.0822  0.9190
29955SOL     OW96722   3.846  12.324   7.089  0.1940 -0.4218  0.2147
29955SOL    HW196723   3.879  12.398   7.038 -0.1562 -0.1488  0.3798
29955SOL    HW296724   3.903  12.251   7.066  1.1737  0.1401  0.8100
29956SOL     OW96725   2.868   0.727   9.592  0.1359  0.5370  0.3549
29956SOL    HW196726   2.807   0.687   9.654 -1.1927  1.1578 -0.4988
29956SOL    HW296727   2.946   0.672   9.596 -1.7380 -2.5120 -1.1393
29957SOL     OW96728   1.160   1.921   3.093  0.3448 -0.6616  0.1739
29957SOL    HW196729   1.114   1.937   3.176  1.4418 -0.9272  0.8528
29957SOL    HW296730   1.237   1.871   3.118  2.2946  1.7440 -0.5607
29958SOL     OW96731   2.354   1.307   2.138  0.0075  0.2408 -0.1383
29958SOL    HW196732   2.361   1.220   2.099 -0.4678  0.1043  0.0672
29958SOL    HW296733   2.271   1.305   2.186  0.2639  0.6178  0.3365
29959SOL     OW96734   7.836   6.613   6.372  0.1555  0.2525  0.6315
29959SOL    HW196735   7.877   6.651   6.295 -0.0158 -0.2940  0.2671
29959SOL    HW296736   7.901   6.553   6.407 -0.4057 -0.7776 -0.0711
29960SOL     OW96737   8.300  11.823   8.381 -0.1635  0.4177 -0.3319
29960SOL    HW196738   8.251  11.905   8.387 -0.0494  0.5136 -0.6639
29960SOL    HW296739   8.235  11.759   8.350 -0.6482  0.0122  1.4054
29961SOL     OW96740   1.718  12.375   1.545  0.3388  0.2711 -0.5233
29961SOL    HW196741   1.708  12.310   1.615  1.3760  0.0082 -0.5992
29961SOL    HW296742   1.630  12.385   1.509 -0.4126  1.1138  1.4160
29962SOL     OW96743   0.505   3.622   1.704  0.0651 -0.2458  0.7675
29962SOL    HW196744   0.486   3.661   1.790 -0.0800 -0.5024  0.8539
29962SOL    HW296745   0.460   3.677   1.642  1.0363  0.5647  0.7597
29963SOL     OW96746   0.401   0.487  12.492 -0.3419  0.7756  0.4963
29963SOL    HW196747   0.359   0.543  12.557 -0.4267  2.1837 -0.7054
29963SOL    HW296748   0.489   0.523  12.483 -0.9665  1.9808 -1.6191
29964SOL     OW96749   3.716   3.865   5.344  0.2354 -0.8167 -0.1003
29964SOL    HW196750   3.638   3.875   5.289 -1.3085  0.5220  2.2004
29964SOL    HW296751   3.759   3.950   5.340 -0.7612 -0.1618  1.9220
29965SOL     OW96752   0.145   5.841  12.363 -0.4872  0.0352 -0.4410
29965SOL    HW196753   0.174   5.752  12.345 -1.3947 -0.1359 -1.0741
29965SOL    HW296754   0.174   5.857  12.453 -2.6478 -1.9027  0.7177
29966SOL     OW96755   3.826   0.873   7.680 -0.2776 -0.4568 -0.5016
29966SOL    HW196756   3.906   0.926   7.678 -0.4836 -0.0580 -3.5134
29966SOL    HW296757   3.759   0.931   7.643 -1.6377 -1.3066  0.5497
29967SOL     OW96758   2.752   1.126   1.483  0.5682 -0.0152 -0.1299
29967SOL    HW196759   2.680   1.064   1.492  1.7514 -1.1362  2.5867
29967SOL    HW296760   2.730   1.198   1.541  0.8991  0.4069 -0.5153
29968SOL     OW96761   1.300   4.596   5.232 -0.2912  0.4617  0.2974
29968SOL    HW196762   1.307   4.556   5.319  2.0461 -1.1742 -0.5511
29968SOL    HW296763   1.390   4.621   5.210 -0.9251  1.3575 -1.4385
29969SOL     OW96764   2.037   8.283   3.260  0.2799 -0.5541  0.3215
29969SOL    HW196765   1.943   8.299   3.258  0.5442  1.1837 -2.0200
29969SOL    HW296766   2.058   8.273   3.353 -1.6878  2.5860  1.2440
29970SOL     OW96767  11.281   2.943   3.914  0.7499  0.3132  0.4929
29970SOL    HW196768  11.269   2.987   3.998 -0.3354  0.4436  0.2803
29970SOL    HW296769  11.195   2.947   3.872  1.2902  0.2962 -0.6510
29971SOL     OW96770   0.121   0.783   0.512 -0.2406 -0.4097  0.3023
29971SOL    HW196771   0.128   0.688   0.499 -0.4253 -0.4345  0.3897
29971SOL    HW296772   0.044   0.794   0.566  0.3721 -0.2879  1.1647
29972SOL     OW96773  10.130   2.775   2.345 -0.2424  0.4099  0.2665
29972SOL    HW196774  10.041   2.741   2.351 -0.0613  0.0348  0.9307
29972SOL    HW296775  10.131   2.826   2.264 -1.6600  2.1708  1.2758
29973SOL     OW96776   5.672  11.610  10.087  0.1336  0.4291  0.3563
29973SOL    HW196777   5.767  11.599  10.091  0.1453 -0.3817 -1.2029
29973SOL    HW296778   5.639  11.523  10.066 -0.6686  1.2623 -2.2014
29974SOL     OW96779  10.726   2.151   0.316 -0.2454  0.7072 -0.1279
29974SOL    HW196780  10.774   2.138   0.235  1.2638 -1.0927  0.9722
29974SOL    HW296781  10.778   2.216   0.364  0.6633 -0.5798  0.6866
29975SOL     OW96782  12.228  11.621   9.463 -0.3753  0.2389 -0.0807
29975SOL    HW196783  12.161  11.658   9.406  0.3433  0.5995 -0.7157
29975SOL    HW296784  12.221  11.526   9.451 -1.1489  0.2419  0.3049
29976SOL     OW96785   4.349   2.204   5.411  0.3736 -0.4248 -0.1337
29976SOL    HW196786   4.265   2.247   5.398  1.3105  1.3761 -0.5496
29976SOL    HW296787   4.411   2.256   5.361  2.0500 -0.5974  1.6358
29977SOL     OW96788   5.601   3.408   7.898  0.0582  0.1065 -0.3407
29977SOL    HW196789   5.647   3.331   7.930  0.7310 -0.0447 -1.6025
29977SOL    HW296790   5.510   3.379   7.887  0.4765 -0.7952 -1.6380
29978SOL     OW96791   6.441  11.990   9.010  0.0676 -0.3501 -0.3099
29978SOL    HW196792   6.499  11.929   8.965 -0.1225  0.7978 -2.2338
29978SOL    HW296793   6.363  11.995   8.954 -0.2485  1.0202  0.2146
29979SOL     OW96794   1.960   0.615  10.089 -0.5137 -0.3060 -0.2091
29979SOL    HW196795   1.896   0.686  10.094  0.1489  0.2535  0.5645
29979SOL    HW296796   1.981   0.608   9.996 -0.9931  0.1323 -0.3574
29980SOL     OW96797  12.294   9.570  10.001  0.5345  0.1378  0.3498
29980SOL    HW196798  12.227   9.520  10.047  0.3855 -0.8389 -0.8722
29980SOL    HW296799  12.349   9.504   9.959  0.4415  0.9631 -1.1685
29981SOL     OW96800   5.551  11.935   6.875  0.2319  0.6982  0.1739
29981SOL    HW196801   5.477  11.895   6.920 -0.1683  1.2052 -0.0313
29981SOL    HW296802   5.596  11.986   6.942  0.5787  0.1421  0.3697
29982SOL     OW96803   5.735  11.234   7.033  0.2645 -0.0108  0.0450
29982SOL    HW196804   5.804  11.206   6.972 -1.1841 -0.6848 -1.3730
29982SOL    HW296805   5.772  11.220   7.120  1.9306 -0.2847 -0.6758
29983SOL     OW96806   8.864  10.495   4.434  0.3490 -0.6355  0.1205
29983SOL    HW196807   8.859  10.514   4.528  0.9667  0.3175 -0.0246
29983SOL    HW296808   8.808  10.418   4.422  0.3503 -0.8348  1.2834
29984SOL     OW96809   2.037   7.604   9.380 -0.4082  0.1803  0.0070
29984SOL    HW196810   2.072   7.687   9.412  0.7492  0.2779 -1.4025
29984SOL    HW296811   2.098   7.578   9.311 -1.7994 -0.8915 -0.8602
29985SOL     OW96812   9.196  12.143   9.684  0.6270  0.7219  0.0357
29985SOL    HW196813   9.240  12.145   9.599  0.6644  0.4836  0.0479
29985SOL    HW296814   9.123  12.204   9.675 -0.7464 -0.9938 -0.9277
29986SOL     OW96815   4.194  10.949   8.181  0.4379  0.6057  0.2256
29986SOL    HW196816   4.224  10.859   8.169 -0.7917  0.2392 -0.3268
29986SOL    HW296817   4.225  10.994   8.103  1.7303  0.8688  0.8713
29987SOL     OW96818   7.103   0.148   8.400  0.6261 -0.1769  0.6415
29987SOL    HW196819   7.026   0.158   8.344 -0.1420 -0.9391  1.5290
29987SOL    HW296820   7.124   0.237   8.428  1.9012  0.4253 -1.9294
29988SOL     OW96821  11.614   5.081  10.942  0.0379  0.4267  0.0555
29988SOL    HW196822  11.603   5.028  11.021  2.0020 -0.3464 -0.1258
29988SOL    HW296823  11.606   5.171  10.972 -0.3643  0.1061  0.9349
29989SOL     OW96824   5.860   3.052   0.008 -0.4406 -0.2499  0.1598
29989SOL    HW196825   5.917   3.119  -0.030 -1.5968  1.6546  1.5665
29989SOL    HW296826   5.913   3.012   0.078  0.8214 -2.0399 -1.7125
29990SOL     OW96827   5.002   2.011   7.825  0.5278 -0.0747  0.1126
29990SOL    HW196828   4.990   2.052   7.910 -0.4996  0.2906 -0.1919
29990SOL    HW296829   5.009   2.085   7.764  2.3396 -0.3052 -0.0153
29991SOL     OW96830   0.716  10.103  12.241 -0.2269 -0.1055 -0.1082
29991SOL    HW196831   0.749  10.171  12.182  0.9654 -0.8371 -0.3213
29991SOL    HW296832   0.772  10.027  12.224 -2.2156 -1.5221 -0.6759
29992SOL     OW96833   5.788   9.143   0.174 -0.1783  0.0617 -0.0219
29992SOL    HW196834   5.722   9.137   0.104 -0.0098 -0.5555 -0.1383
29992SOL    HW296835   5.737   9.145   0.255 -0.3361 -1.4470 -0.0567
29993SOL     OW96836   5.987   3.724  11.622  0.3517  0.2828  0.0251
29993SOL    HW196837   6.042   3.690  11.692  1.5274  0.8738 -0.5891
29993SOL    HW296838   5.994   3.660  11.552  0.5581  0.5399 -0.1921
29994SOL     OW96839  12.074   3.192   1.232  0.4872 -0.2018 -0.1541
29994SOL    HW196840  12.040   3.276   1.264 -1.9502 -0.9126 -0.6420
29994SOL    HW296841  12.086   3.140   1.312  0.3996  0.0741  0.0426
29995SOL     OW96842  12.040   6.510   1.415  0.0063  0.4865 -0.4572
29995SOL    HW196843  12.126   6.505   1.456 -1.2118 -2.0685  2.1125
29995SOL    HW296844  11.984   6.552   1.481 -1.4197 -1.0780 -0.6151
29996SOL     OW96845  10.611   6.462  12.007 -0.0005 -0.1709 -0.1388
29996SOL    HW196846  10.616   6.379  12.055  1.2575 -1.8510 -2.9479
29996SOL    HW296847  10.521   6.465  11.974 -0.7624  0.8195  1.8330
29997SOL     OW96848   7.845   9.302   2.159 -0.0307 -1.0631  0.4441
29997SOL    HW196849   7.931   9.315   2.199 -1.5955  1.2476  3.4626
29997SOL    HW296850   7.808   9.227   2.205  0.4816 -2.3948 -1.2236
29998SOL     OW96851   9.783   7.239   4.584  0.4856 -0.6733 -0.1642
29998SOL    HW196852   9.774   7.215   4.491  1.2847  0.3845 -0.5228
29998SOL    HW296853   9.700   7.282   4.605 -0.8978 -3.3740  0.4316
29999SOL     OW96854   1.923   6.028   1.701 -0.1717 -0.0604  0.0365
29999SOL    HW196855   1.887   6.101   1.751  1.0895  0.1198  0.7239
29999SOL    HW296856   1.993   6.066   1.649 -0.5194 -0.5156 -0.7937
30000SOL     OW96857   4.883   3.440   7.315 -0.1219  0.3893  0.2570
30000SOL    HW196858   4.818   3.371   7.305  0.5431 -0.0800 -1.0208
30000SOL    HW296859   4.841   3.519   7.281  0.0952  0.0071 -0.9205
30001SOL     OW96860   9.269   7.786   3.764 -0.7515 -0.3943 -0.6273
30001SOL    HW196861   9.215   7.777   3.685 -0.3617  0.3692 -0.9817
30001SOL    HW296862   9.317   7.868   3.752 -0.0486 -0.6990  0.0178
30002SOL     OW96863   8.651   6.906   9.138 -0.6956  0.3596 -0.8304
30002SOL    HW196864   8.567   6.863   9.152  0.3217 -1.4576  0.0105
30002SOL    HW296865   8.700   6.891   9.218  0.9636  0.0744 -1.8369
30003SOL     OW96866  10.018   3.836  10.213  0.0247  0.5043  0.5998
30003SOL    HW196867   9.982   3.775  10.277 -1.6393  0.5918 -0.1934
30003SOL    HW296868  10.024   3.785  10.132  0.5713  0.8331  0.4267
30004SOL     OW96869   0.240   9.150   1.566  0.2565 -0.5780 -0.4095
30004SOL    HW196870   0.238   9.226   1.507 -0.7036  0.3509  0.7766
30004SOL    HW296871   0.221   9.075   1.509  1.8518 -0.0517 -1.7189
30005SOL     OW96872   9.007   3.670  12.577  0.3355  0.2591  0.5137
30005SOL    HW196873   9.033   3.675  12.485  3.6542 -2.0922  1.1425
30005SOL    HW296874   9.063   3.732  12.622  1.5713 -1.3789  1.3403
30006SOL     OW96875   9.317   8.617  10.187 -0.5554  0.4673  0.8172
30006SOL    HW196876   9.318   8.700  10.235 -3.3617  0.4310  1.0855
30006SOL    HW296877   9.260   8.560  10.238 -0.8479 -0.7312 -0.7680
30007SOL     OW96878   3.532  10.592   6.883 -0.0802 -0.0186 -0.1675
30007SOL    HW196879   3.565  10.504   6.901  0.4012  0.2302  0.1672
30007SOL    HW296880   3.515  10.630   6.969  0.7917  0.6243 -0.2617
30008SOL     OW96881   9.530   3.586   9.274  0.5088  0.4338 -0.8804
30008SOL    HW196882   9.572   3.656   9.324 -0.0500 -0.2081  0.5416
30008SOL    HW296883   9.441   3.616   9.261  0.2674  0.0127 -0.2685
30009SOL     OW96884   3.572  10.593   0.573 -0.1203  0.2593  0.5887
30009SOL    HW196885   3.593  10.611   0.665 -0.1593  0.6743  0.5179
30009SOL    HW296886   3.521  10.512   0.576  0.5475 -0.1698  0.8602
30010SOL     OW96887   9.426  12.514  10.498  0.5089 -0.1737  0.1561
30010SOL    HW196888   9.466  12.483  10.417 -1.6800 -0.2093 -0.9651
30010SOL    HW296889   9.351  12.567  10.470 -0.8248 -0.8977  2.1525
30011SOL     OW96890   1.079   2.872   2.875  0.3084 -0.2845  0.0497
30011SOL    HW196891   1.080   2.941   2.808  0.6891  0.1366  0.4849
30011SOL    HW296892   1.111   2.915   2.954  3.1824 -1.5567 -0.2846
30012SOL     OW96893   5.494   6.517   3.030  0.2473  0.6427 -0.2787
30012SOL    HW196894   5.559   6.453   3.060 -1.2791 -0.7081  0.2604
30012SOL    HW296895   5.519   6.535   2.939  0.4112 -1.1328 -0.6250
30013SOL     OW96896   4.738   6.996  11.801 -0.1325 -0.4063  0.1621
30013SOL    HW196897   4.760   7.002  11.708  3.1882  0.5946  0.8673
30013SOL    HW296898   4.724   6.903  11.817 -3.4125 -0.3915 -1.7305
30014SOL     OW96899   6.832   9.977   2.781  0.0804  0.2267  0.1992
30014SOL    HW196900   6.771   9.909   2.752  0.1477 -0.0848  0.7724
30014SOL    HW296901   6.837  10.038   2.707  1.7718 -1.5543 -1.2695
30015SOL     OW96902   3.045   2.416   4.036  0.0816  0.0721 -0.3884
30015SOL    HW196903   3.026   2.364   3.958 -0.9702 -0.8818  0.4632
30015SOL    HW296904   3.031   2.506   4.009 -0.8807 -0.2880 -1.1292
30016SOL     OW96905   5.903   9.667   5.061 -0.2123 -0.3130 -0.7441
30016SOL    HW196906   5.990   9.681   5.097  0.3232 -0.5244 -1.8873
30016SOL    HW296907   5.919   9.623   4.977 -1.2012  2.3729 -2.4747
30017SOL     OW96908  12.107   0.417   1.974 -0.3613  0.0283  0.4379
30017SOL    HW196909  12.193   0.389   1.944 -1.7417 -2.1727 -1.9183
30017SOL    HW296910  12.076   0.345   2.029 -1.7204 -0.5405 -1.0017
30018SOL     OW96911  10.374  12.510   2.581 -0.0698 -0.1312 -0.1271
30018SOL    HW196912  10.327  12.586   2.546  0.8983  1.1879  1.3433
30018SOL    HW296913  10.333  12.494   2.666  0.2469 -0.7933 -0.0915
30019SOL     OW96914  10.795   7.189   3.231 -0.1401 -0.5059  0.0123
30019SOL    HW196915  10.773   7.212   3.321  0.4279  1.3050 -0.2558
30019SOL    HW296916  10.715   7.207   3.181  0.6124  2.2696 -0.3702
30020SOL     OW96917   8.140   9.873   5.534  0.4240 -0.1949  0.0723
30020SOL    HW196918   8.081   9.832   5.598  3.1489 -3.1102  1.0156
30020SOL    HW296919   8.166   9.955   5.575 -0.6202 -0.3125  1.0263
30021SOL     OW96920   9.101   4.533   8.748 -0.3811 -0.0650  0.3335
30021SOL    HW196921   9.074   4.494   8.831 -1.1289  2.3946  1.3570
30021SOL    HW296922   9.196   4.519   8.744 -0.3916 -0.5126  1.4319
30022SOL     OW96923   1.328   3.606  12.226  0.1848  0.7587 -0.0166
30022SOL    HW196924   1.319   3.604  12.322  0.2638  1.5049  0.0139
30022SOL    HW296925   1.421   3.589  12.211 -0.2472 -2.0939 -0.1114
30023SOL     OW96926  11.637  11.050   0.822 -0.4978 -0.1314 -0.4673
30023SOL    HW196927  11.605  10.968   0.858 -0.9072  0.7222  1.1982
30023SOL    HW296928  11.706  11.078   0.882  0.0949  0.4069 -1.3801
30024SOL     OW96929   7.111  11.143   2.558 -0.4507 -0.6693 -0.3170
30024SOL    HW196930   7.041  11.163   2.621 -0.1071  0.9351 -0.3935
30024SOL    HW296931   7.114  11.047   2.555 -1.6560 -0.7750  0.7824
30025SOL     OW96932   2.744  10.023   8.122  0.1104  0.0084  0.3274
30025SOL    HW196933   2.728   9.949   8.181  2.2367 -0.1885  0.7304
30025SOL    HW296934   2.686  10.007   8.047 -0.7567 -1.1051  1.2001
30026SOL     OW96935  10.756   0.167   0.495  0.1544 -0.0849  0.0805
30026SOL    HW196936  10.780   0.079   0.467 -1.6795 -0.8679  0.7878
30026SOL    HW296937  10.788   0.224   0.425  0.2193 -1.4510 -1.0491
30027SOL     OW96938   7.363   3.393   7.038 -0.2643 -0.5965  0.7348
30027SOL    HW196939   7.281   3.345   7.023 -0.8969  1.0852 -1.9776
30027SOL    HW296940   7.432   3.329   7.018 -0.9230 -1.5479  1.4009
30028SOL     OW96941   0.448  10.527   8.336 -0.5382  0.8478  0.0541
30028SOL    HW196942   0.413  10.481   8.412  0.3492 -1.0892 -0.6300
30028SOL    HW296943   0.516  10.584   8.371 -0.5274  0.3957  0.7901
30029SOL     OW96944   0.287   5.593   3.542 -0.2961 -0.0512 -0.4328
30029SOL    HW196945   0.223   5.664   3.539 -1.2943 -0.9493 -1.7096
30029SOL    HW296946   0.250   5.525   3.485  1.6450 -0.7501 -0.9315
30030SOL     OW96947   8.921   2.044   3.817 -0.0149  0.0482  0.0012
30030SOL    HW196948   8.972   2.060   3.738  1.5698 -1.8183  0.5613
30030SOL    HW296949   8.978   2.072   3.889 -0.8052  0.2969  0.5405
30031SOL     OW96950  10.176  11.368  10.178  0.3974 -0.7814  0.1475
30031SOL    HW196951  10.172  11.386  10.272  1.4626  0.5786 -0.0534
30031SOL    HW296952  10.137  11.445  10.137 -0.6147 -1.6216 -0.5431
30032SOL     OW96953   8.009   9.718   8.194  0.4099 -0.0235  0.1937
30032SOL    HW196954   7.950   9.643   8.198 -0.5065  0.7096  2.7382
30032SOL    HW296955   7.951   9.794   8.200  1.4873  0.7495  1.4985
30033SOL     OW96956   4.402   2.125  11.705 -0.5425 -0.0342 -0.8450
30033SOL    HW196957   4.349   2.074  11.643 -0.2989  0.1097 -1.1733
30033SOL    HW296958   4.473   2.161  11.652 -0.6191  0.5149 -0.5810
30034SOL     OW96959   4.144  12.122   2.643 -0.3106 -0.2996 -0.2189
30034SOL    HW196960   4.222  12.119   2.589 -0.5417 -0.0724 -0.5662
30034SOL    HW296961   4.166  12.183   2.714 -0.3608  0.1775 -0.6119
30035SOL     OW96962   8.026   1.450   1.938  0.2105 -0.1060 -0.2242
30035SOL    HW196963   8.029   1.354   1.931 -0.9406 -0.1464 -0.2442
30035SOL    HW296964   7.979   1.467   2.019 -2.0048  0.4361 -1.5506
30036SOL     OW96965   4.728   2.859   2.457  0.2532 -0.1546  0.1121
30036SOL    HW196966   4.727   2.807   2.537  1.2899  1.2279  1.0842
30036SOL    HW296967   4.728   2.795   2.386  0.9095 -1.4512  1.2364
30037SOL     OW96968   7.416  10.623   6.044 -0.1403 -0.2601 -0.3008
30037SOL    HW196969   7.359  10.600   6.117  1.2222  0.4799  1.0609
30037SOL    HW296970   7.395  10.715   6.026 -0.7950 -0.5682 -1.1751
30038SOL     OW96971   9.671   4.152   8.266  0.0714 -0.0941  1.0759
30038SOL    HW196972   9.725   4.111   8.333  2.9661 -1.0417 -1.5699
30038SOL    HW296973   9.696   4.244   8.268  2.0579 -0.5236 -0.1357
30039SOL     OW96974  10.522   6.270   9.741  0.2193 -0.0617  0.3696
30039SOL    HW196975  10.562   6.186   9.765 -0.8982 -0.7000  0.1031
30039SOL    HW296976  10.455   6.284   9.809 -0.1873  0.1746 -0.0745
30040SOL     OW96977   3.723   7.432   9.397 -1.1386  0.6597  0.1102
30040SOL    HW196978   3.804   7.406   9.442 -0.7744  2.0877  0.3088
30040SOL    HW296979   3.731   7.394   9.310 -1.2887 -1.0944  0.8137
30041SOL     OW96980   8.377  11.856   3.464  0.4032 -0.1231  0.3008
30041SOL    HW196981   8.411  11.943   3.442  0.0524 -0.0086  0.1993
30041SOL    HW296982   8.372  11.856   3.559 -1.5864  0.7610  0.2445
30042SOL     OW96983  11.249   4.639  12.524 -0.2239  0.0115 -0.3753
30042SOL    HW196984  11.303   4.681  12.458  0.3201 -1.9881 -1.2731
30042SOL    HW296985  11.303   4.640  12.603 -0.3440  1.2196 -0.2912
30043SOL     OW96986   8.821  11.888   2.334 -0.0187  0.1850  0.2459
30043SOL    HW196987   8.828  11.806   2.285 -1.7583  0.5031 -0.6039
30043SOL    HW296988   8.900  11.937   2.311  0.5393 -0.8218 -0.0221
30044SOL     OW96989   4.951   1.237   8.794  0.0133  1.1818  0.3718
30044SOL    HW196990   4.976   1.195   8.712 -1.3971  0.6223  0.2004
30044SOL    HW296991   4.992   1.184   8.862 -0.9322  0.0897  0.1152
30045SOL     OW96992   2.697   0.755   8.679 -0.4971 -0.0809 -0.1681
30045SOL    HW196993   2.749   0.834   8.696 -1.9234  0.5618  1.6000
30045SOL    HW296994   2.751   0.683   8.711 -0.7492  0.6121  2.0346
30046SOL     OW96995   1.663  10.490   2.730  0.2943 -0.2144 -0.0535
30046SOL    HW196996   1.605  10.563   2.751  0.4083 -0.1075 -0.1063
30046SOL    HW296997   1.740  10.503   2.786  0.4638 -0.1012 -0.3116
30047SOL     OW96998   3.828  10.264   5.015  0.5140  0.5047 -0.3634
30047SOL    HW196999   3.741  10.246   4.981  0.3491 -0.5265  0.5670
30047SOL    HW297000   3.886  10.210   4.961  0.5837  1.1597 -0.9556
30048SOL     OW97001   5.581  10.365   6.123 -0.2442  0.0360  0.6547
30048SOL    HW197002   5.647  10.353   6.192 -0.6874 -2.0060  0.7767
30048SOL    HW297003   5.501  10.329   6.159 -0.7192 -0.1986 -0.5745
30049SOL     OW97004   4.920   5.353   6.062 -0.2803 -0.2776 -0.1324
30049SOL    HW197005   5.011   5.335   6.040 -0.5914 -1.9956 -0.1895
30049SOL    HW297006   4.912   5.448   6.057  1.9811  0.0910  1.7879
30050SOL     OW97007   8.163   1.061  11.327  0.8051  0.2737  0.1851
30050SOL    HW197008   8.081   1.038  11.284  0.5530  1.3625  0.0381
30050SOL    HW297009   8.137   1.123  11.396  1.6953  2.5493 -1.4057
30051SOL     OW97010  12.144  11.312   3.976  0.0982 -0.2609 -0.6881
30051SOL    HW197011  12.086  11.367   3.924 -1.4955 -0.3976  0.8265
30051SOL    HW297012  12.231  11.323   3.937 -0.4752  2.0095 -1.4485
30052SOL     OW97013   0.191   2.916   0.604 -0.5925  0.4713  0.0096
30052SOL    HW197014   0.243   2.941   0.527 -1.4176  0.7477 -0.4792
30052SOL    HW297015   0.137   2.993   0.622 -1.2469 -0.0029  0.1383
30053SOL     OW97016   8.787   9.742   8.213 -0.1503  0.5752 -0.2175
30053SOL    HW197017   8.743   9.818   8.251  2.5609  1.9196  0.4737
30053SOL    HW297018   8.757   9.738   8.123 -0.5198  2.3526 -0.1924
30054SOL     OW97019   3.675   9.404   9.106  0.3504  0.0653 -0.7414
30054SOL    HW197020   3.658   9.324   9.056  0.8397 -0.9179  0.5876
30054SOL    HW297021   3.764   9.429   9.081 -0.1562  0.7739 -1.8908
30055SOL     OW97022  12.421   4.442   2.408 -0.0761 -0.1638  0.6259
30055SOL    HW197023  12.468   4.464   2.488  1.0484  2.2251 -0.5806
30055SOL    HW297024  12.476   4.477   2.337 -3.0400  1.7960 -0.9369
30056SOL     OW97025   6.977   9.176   1.149 -0.1560 -0.4363  0.3714
30056SOL    HW197026   6.945   9.093   1.183 -0.3936 -0.3251  0.4213
30056SOL    HW297027   6.979   9.165   1.054 -3.8764  0.7638  0.0220
30057SOL     OW97028   9.044   8.922   5.377 -0.2707 -0.8932 -0.0255
30057SOL    HW197029   9.018   8.830   5.377  0.2041 -1.0466  0.8430
30057SOL    HW297030   9.118   8.927   5.317  0.6891 -1.4012  1.0794
30058SOL     OW97031  10.619   0.780   7.162  0.0238  0.0254  0.1725
30058SOL    HW197032  10.525   0.795   7.155  0.2874  1.8892  0.1301
30058SOL    HW297033  10.641   0.726   7.086 -0.9229 -0.0056 -0.0832
30059SOL     OW97034   1.124  10.789  12.151 -0.4203 -0.4649  0.1778
30059SOL    HW197035   1.138  10.874  12.111 -0.9820 -0.5637 -0.2422
30059SOL    HW297036   1.196  10.779  12.213 -0.6797  0.5777  0.6779
30060SOL     OW97037  12.287   3.971   9.053  0.4798 -0.1037  0.1142
30060SOL    HW197038  12.287   4.034   9.125 -1.4333  0.1622 -0.0639
30060SOL    HW297039  12.349   3.903   9.080  2.5085  1.7437  0.3664
30061SOL     OW97040   8.658   9.113   8.210  0.2553  0.1960  0.4147
30061SOL    HW197041   8.570   9.087   8.183 -0.1904  1.7695  0.2842
30061SOL    HW297042   8.654   9.208   8.218  1.8864  0.2731  0.6369
30062SOL     OW97043   5.898   8.747   6.987  0.0814 -0.2590  0.1820
30062SOL    HW197044   5.882   8.783   7.074  0.3352 -0.5320  0.3437
30062SOL    HW297045   5.903   8.652   7.001  3.4769 -0.1558  0.4551
30063SOL     OW97046   9.526   0.728   3.664  0.5955  0.0694 -0.0168
30063SOL    HW197047   9.522   0.813   3.621 -0.7346 -0.3279 -0.7293
30063SOL    HW297048   9.616   0.699   3.653  0.0726 -0.6429 -3.8640
30064SOL     OW97049   9.301   4.148   1.808 -0.0911 -0.0297 -0.3134
30064SOL    HW197050   9.336   4.224   1.760 -2.1028  0.9188 -0.3980
30064SOL    HW297051   9.364   4.133   1.878  2.2216 -0.5770 -2.3729
30065SOL     OW97052   8.004   7.467   9.915 -0.3195  0.2630 -0.9629
30065SOL    HW197053   7.965   7.539   9.964 -0.0755  0.5750 -1.2173
30065SOL    HW297054   8.067   7.428   9.976  0.1992  0.8371 -1.1148
30066SOL     OW97055   2.860   0.672   3.843 -0.0912 -0.1844  0.4286
30066SOL    HW197056   2.869   0.590   3.892  0.5370  1.2072  2.8095
30066SOL    HW297057   2.950   0.702   3.830 -0.3445  0.5887  0.4034
30067SOL     OW97058   2.705   7.832   5.650  0.4558  0.7692 -0.0797
30067SOL    HW197059   2.766   7.794   5.713  0.9682 -0.1474 -1.1085
30067SOL    HW297060   2.623   7.843   5.699  0.2040 -1.9326  0.2056
30068SOL     OW97061   4.708   3.674   3.129 -0.6147 -0.4935 -0.2498
30068SOL    HW197062   4.775   3.671   3.060  0.6062  2.2727  0.6417
30068SOL    HW297063   4.629   3.703   3.084 -0.2913 -0.3675 -0.7528
30069SOL     OW97064   1.573  10.587   5.364 -0.1587 -0.2443  0.1250
30069SOL    HW197065   1.629  10.643   5.310 -0.2821  0.7108  0.9478
30069SOL    HW297066   1.491  10.635   5.372 -0.3095 -0.5878  0.7643
30070SOL     OW97067   1.702   0.566  12.038  0.4466 -0.0143 -0.1893
30070SOL    HW197068   1.706   0.540  11.946 -1.2994 -0.2170 -0.2296
30070SOL    HW297069   1.631   0.630  12.043  0.5300  0.0138  1.0216
30071SOL     OW97070  10.428  10.788   3.710 -0.2770 -0.0964 -0.3121
30071SOL    HW197071  10.483  10.790   3.788 -1.6825  0.7033  0.7076
30071SOL    HW297072  10.464  10.856   3.653 -2.0431  2.8504  1.7480
30072SOL     OW97073   6.631   9.876  12.205  0.0770  0.0194 -0.2754
30072SOL    HW197074   6.562   9.814  12.229 -1.4767  1.5792 -0.4062
30072SOL    HW297075   6.614   9.895  12.112 -0.4627  1.7063  0.1229
30073SOL     OW97076   3.579   4.319   2.397 -0.4431  0.1940  0.2750
30073SOL    HW197077   3.596   4.362   2.481  1.5540  0.0419 -0.0256
30073SOL    HW297078   3.502   4.365   2.362 -2.1430 -0.5969  2.7212
30074SOL     OW97079   3.710   1.128   6.201 -0.3284 -0.2324 -0.1467
30074SOL    HW197080   3.741   1.101   6.288 -0.3072 -0.9500 -0.3691
30074SOL    HW297081   3.645   1.195   6.219  1.3947  1.4118  0.3354
30075SOL     OW97082   3.518   9.154   0.749  0.0041 -0.7732 -0.4069
30075SOL    HW197083   3.572   9.086   0.788  0.1122 -0.0665  0.7031
30075SOL    HW297084   3.428   9.122   0.760  0.1010 -1.2010 -0.8121
30076SOL     OW97085   9.194   6.443   8.735  0.3825  0.3434 -0.1288
30076SOL    HW197086   9.149   6.527   8.736  0.4370  0.3852  1.7202
30076SOL    HW297087   9.285   6.464   8.753  0.6155 -0.0161 -0.8450
30077SOL     OW97088   4.116   7.515   5.558  0.1267  1.0503 -0.0396
30077SOL    HW197089   4.076   7.478   5.637 -1.6742  2.9549  0.0130
30077SOL    HW297090   4.077   7.465   5.486 -1.5289  2.1033  0.0829
30078SOL     OW97091   2.595   1.342   2.504  0.1806 -0.2329  0.9557
30078SOL    HW197092   2.509   1.301   2.492 -0.3557  1.1372 -0.1322
30078SOL    HW297093   2.652   1.300   2.440 -0.5714  1.2038 -0.7335
30079SOL     OW97094   6.985   0.053  11.198 -0.0721  0.6512 -0.5203
30079SOL    HW197095   7.033  -0.030  11.186 -0.0282 -0.0501  3.2642
30079SOL    HW297096   6.894   0.031  11.181  0.2113  0.5547 -2.0980
30080SOL     OW97097   8.991   0.337   7.543  0.8191  0.1949  0.1594
30080SOL    HW197098   8.997   0.242   7.534 -0.9892  0.1872 -1.9482
30080SOL    HW297099   9.081   0.367   7.539  1.3989 -1.4005  0.3590
30081SOL     OW97100   7.189   3.203  10.627 -0.4372 -0.0320 -0.3874
30081SOL    HW197101   7.271   3.187  10.675 -0.1621 -0.6213 -1.0353
30081SOL    HW297102   7.139   3.123  10.637 -0.6684  0.0951 -0.5133
30082SOL     OW97103   0.112   1.380  10.774 -0.0004 -0.3921  0.0567
30082SOL    HW197104   0.178   1.323  10.735  2.0865  0.4753  2.1368
30082SOL    HW297105   0.129   1.377  10.868 -1.4163  1.7204  0.4517
30083SOL     OW97106   9.812   1.971   0.206  0.0480  0.2447 -0.3709
30083SOL    HW197107   9.805   2.051   0.153 -0.9265 -0.1704 -0.8912
30083SOL    HW297108   9.817   2.002   0.296  1.0998  0.9392 -0.6503
30084SOL     OW97109  10.868   1.564   0.800 -0.2946  0.7708  0.1692
30084SOL    HW197110  10.810   1.569   0.724  0.3036 -2.6483 -0.6648
30084SOL    HW297111  10.813   1.526   0.869  0.0991  0.4934  0.3336
30085SOL     OW97112   2.239  10.880   8.594  0.3111  0.0409 -0.2234
30085SOL    HW197113   2.303  10.949   8.577 -0.4731  0.9360  0.3661
30085SOL    HW297114   2.163  10.903   8.541 -0.0921 -0.1695  0.2448
30086SOL     OW97115   1.479   3.994  12.494 -0.7138 -0.1745 -0.5721
30086SOL    HW197116   1.504   3.903  12.478 -2.4066 -0.6247 -0.9153
30086SOL    HW297117   1.383   3.994  12.486 -0.6894  1.8120 -1.4485
30087SOL     OW97118   3.331   8.798   5.506 -0.2620  0.0592  0.1435
30087SOL    HW197119   3.425   8.815   5.512 -0.1716  0.0326 -1.0314
30087SOL    HW297120   3.319   8.715   5.553  0.7794 -1.4091 -2.0090
30088SOL     OW97121   9.269  12.535   1.213 -0.4933  0.3629  0.0308
30088SOL    HW197122   9.321  12.492   1.282 -0.3099 -1.3327 -1.1233
30088SOL    HW297123   9.263  12.471   1.143 -0.9981  1.9128 -1.4191
30089SOL     OW97124  11.074   0.357   2.236  0.2851  0.1880  0.1508
30089SOL    HW197125  11.017   0.335   2.163  1.3629  0.4719 -0.8025
30089SOL    HW297126  11.104   0.272   2.270 -0.6661  0.0391  0.6539
30090SOL     OW97127   0.438   8.596  11.179  0.1324  0.0377  0.0167
30090SOL    HW197128   0.423   8.543  11.257 -0.3555 -0.9831 -0.7461
30090SOL    HW297129   0.367   8.661  11.180 -0.8350 -0.9762 -0.3966
30091SOL     OW97130   6.049   8.008   1.831  0.1692  0.3688  0.3772
30091SOL    HW197131   6.074   8.028   1.741 -0.3405  0.5797  0.2779
30091SOL    HW297132   5.982   7.940   1.822 -0.2728  0.7733  0.5653
30092SOL     OW97133   9.500   8.902   3.579 -0.2822 -0.0599 -0.0368
30092SOL    HW197134   9.549   8.820   3.578 -0.8399 -0.4005  0.0288
30092SOL    HW297135   9.558   8.964   3.624 -0.1262 -0.5857  0.4946
30093SOL     OW97136  10.952   5.324   4.909 -0.4496  0.2395 -1.0406
30093SOL    HW197137  10.980   5.286   4.826 -1.3091 -0.1350 -1.1709
30093SOL    HW297138  11.004   5.404   4.917 -1.2296  0.9490 -2.5484
30094SOL     OW97139   2.825   0.941   1.992 -0.3236  0.1521  0.1435
30094SOL    HW197140   2.809   0.987   1.910 -0.0629  1.4463  0.7999
30094SOL    HW297141   2.920   0.931   1.997 -0.3201  0.3021  0.4068
30095SOL     OW97142   5.559  11.504   1.045 -0.6141  0.6517  0.4994
30095SOL    HW197143   5.479  11.452   1.040 -1.1680  1.5061  0.1778
30095SOL    HW297144   5.559  11.556   0.965  2.8718 -2.8984 -2.2032
30096SOL     OW97145  11.568   3.985   8.200 -0.0195 -0.1793  0.0432
30096SOL    HW197146  11.644   3.972   8.143  1.2953  0.4939  1.5577
30096SOL    HW297147  11.602   4.035   8.274 -2.1145  0.7680  0.4364
30097SOL     OW97148   2.367   6.489   6.410 -0.2183 -0.4687 -0.5701
30097SOL    HW197149   2.438   6.474   6.347  1.4317  0.1982  1.0539
30097SOL    HW297150   2.361   6.408   6.460  2.6255  0.8765  2.2971
30098SOL     OW97151   9.964  11.300   3.752  0.2993  0.0666 -0.1847
30098SOL    HW197152   9.938  11.209   3.751 -1.5712  0.5747 -0.7234
30098SOL    HW297153  10.057  11.299   3.729 -0.1001 -1.5834 -1.9579
30099SOL     OW97154   2.057   7.498   1.611  0.6831 -0.8794  0.1030
30099SOL    HW197155   2.138   7.498   1.560  0.3125 -1.0155 -0.4981
30099SOL    HW297156   2.005   7.426   1.573  0.2231 -0.7034  0.3894
30100SOL     OW97157   3.845   4.844  10.775 -0.3166 -0.2500  0.6279
30100SOL    HW197158   3.751   4.858  10.789 -0.1843 -0.0590  1.3809
30100SOL    HW297159   3.877   4.928  10.743 -0.5343 -0.5423 -0.3821
30101SOL     OW97160  10.591   5.004   7.151 -0.1512  0.0194 -0.6759
30101SOL    HW197161  10.582   5.037   7.061  0.7028  0.5379 -0.5837
30101SOL    HW297162  10.655   4.933   7.145  0.9561  0.9541 -0.2875
30102SOL     OW97163   5.812   8.307   4.224 -0.2596 -0.5740 -0.3185
30102SOL    HW197164   5.888   8.282   4.278 -1.1709 -1.5464  0.5650
30102SOL    HW297165   5.756   8.356   4.284 -0.5486 -0.2563 -0.8428
30103SOL     OW97166  11.402   2.322   9.485 -0.5572 -0.3114  0.0651
30103SOL    HW197167  11.308   2.306   9.474 -0.4203 -1.3862  0.3896
30103SOL    HW297168  11.440   2.300   9.400 -0.1473 -3.6574  0.9712
30104SOL     OW97169   2.280   8.778  10.539 -0.3029  0.2958 -0.6481
30104SOL    HW197170   2.208   8.837  10.564 -0.9089 -0.2679 -1.0290
30104SOL    HW297171   2.243   8.691  10.549 -0.8667 -0.0036 -4.1369
30105SOL     OW97172   9.131   2.182  12.544  0.2254  0.2781  0.1645
30105SOL    HW197173   9.213   2.213  12.507  0.9537 -1.8009 -0.1463
30105SOL    HW297174   9.157   2.134  12.623 -0.7975  0.3745  0.5759
30106SOL     OW97175   0.855   5.936   9.127 -0.3862  0.2318  0.1061
30106SOL    HW197176   0.923   5.872   9.105  0.5351  1.3333 -0.3598
30106SOL    HW297177   0.821   5.908   9.212  0.8774 -0.1669  0.4929
30107SOL     OW97178  11.825   7.420   7.111 -0.8360  0.4187 -0.2566
30107SOL    HW197179  11.743   7.462   7.137 -1.1197 -0.1890 -0.1426
30107SOL    HW297180  11.814   7.328   7.138 -0.4062  0.1764 -0.8877
30108SOL     OW97181   2.108  12.449  10.573 -0.4466 -0.3224 -0.3022
30108SOL    HW197182   2.037  12.463  10.510 -0.8835 -3.9852 -0.7983
30108SOL    HW297183   2.180  12.412  10.522  0.3916 -0.3168  0.8290
30109SOL     OW97184   3.256   7.659   9.588 -0.1379 -0.1214 -0.5222
30109SOL    HW197185   3.196   7.725   9.624 -0.2815 -1.0953  1.1230
30109SOL    HW297186   3.335   7.666   9.641  0.4877 -0.1589 -1.4273
30110SOL     OW97187   5.377  10.957   9.731  0.5908  0.4355 -0.3370
30110SOL    HW197188   5.411  10.909   9.656  1.2437  0.2200  0.0896
30110SOL    HW297189   5.396  11.049   9.712 -0.8062  0.5619 -1.2320
30111SOL     OW97190   9.221   2.554  12.207 -0.7452  0.5180 -0.1725
30111SOL    HW197191   9.251   2.466  12.229  0.6494  0.6025 -1.5790
30111SOL    HW297192   9.259   2.572  12.121 -0.6009  2.6721  0.2767
30112SOL     OW97193   4.532   7.395   9.205  0.2925 -0.3967 -0.7503
30112SOL    HW197194   4.511   7.485   9.230  0.0870 -0.4659 -0.6682
30112SOL    HW297195   4.449   7.360   9.171  0.7437 -0.0491 -2.3177
30113SOL     OW97196  12.350   5.175  10.974  0.2881  0.0324 -0.2383
30113SOL    HW197197  12.265   5.165  10.931  0.4182  0.1735 -0.5357
30113SOL    HW297198  12.343   5.257  11.023  0.1027 -0.1822  0.0902
30114SOL     OW97199  10.962   2.423  11.345 -0.2748 -0.4577  0.4832
30114SOL    HW197200  11.044   2.375  11.360  0.1975 -0.4302 -1.7376
30114SOL    HW297201  10.955   2.481  11.421  1.6816 -0.5884  0.8283
30115SOL     OW97202   3.441  10.618   2.519  0.6423  0.0884 -0.7338
30115SOL    HW197203   3.517  10.607   2.462 -0.0385 -0.1119 -1.6278
30115SOL    HW297204   3.376  10.662   2.464 -0.2442 -0.6517 -0.3084
30116SOL     OW97205   3.334   2.296   9.297 -0.2170  0.2614 -0.6027
30116SOL    HW197206   3.257   2.254   9.334 -0.9085  0.4453 -1.7676
30116SOL    HW297207   3.308   2.387   9.283  0.6067  0.6087  0.0624
30117SOL     OW97208   4.176   9.127   1.801 -0.3923 -0.2372 -0.4016
30117SOL    HW197209   4.148   9.117   1.892 -0.3800 -1.1331 -0.4863
30117SOL    HW297210   4.235   9.202   1.802 -1.5434  0.6986  0.0643
30118SOL     OW97211   6.899   7.309   5.894 -0.1795 -0.2857  0.0326
30118SOL    HW197212   6.975   7.366   5.887 -0.1414 -0.4566 -1.4071
30118SOL    HW297213   6.896   7.283   5.985 -0.3120  2.1724  0.8133
30119SOL     OW97214   7.741   7.911   5.200  0.0656  0.0563  0.3418
30119SOL    HW197215   7.687   7.964   5.259  0.1850 -0.1355  0.6224
30119SOL    HW297216   7.819   7.965   5.184  1.0510 -0.7599  2.0797
30120SOL     OW97217  10.465  11.456  11.904 -0.5513  0.2292  0.2928
30120SOL    HW197218  10.462  11.463  11.808  0.0674 -0.7931  0.1815
30120SOL    HW297219  10.510  11.535  11.932 -0.7143  0.5256 -0.2618
30121SOL     OW97220   7.768   4.418   7.284  0.1599  0.0030  0.0821
30121SOL    HW197221   7.801   4.507   7.268 -1.3722  0.7049  0.5738
30121SOL    HW297222   7.724   4.393   7.203 -1.3591  0.6409  0.6704
30122SOL     OW97223  12.123   3.472   2.866  0.0673  0.7657  0.1196
30122SOL    HW197224  12.099   3.456   2.957 -0.6352  0.1349 -0.1642
30122SOL    HW297225  12.210   3.511   2.870  0.9570 -1.2082  0.9691
30123SOL     OW97226   2.960   7.181   1.284  0.2015 -0.0985 -0.3169
30123SOL    HW197227   2.872   7.159   1.313  0.3033 -0.3161 -0.1626
30123SOL    HW297228   2.993   7.099   1.245  0.3629 -0.0411 -0.3013
30124SOL     OW97229   7.141  10.802   3.052  0.2710  0.0717 -0.2570
30124SOL    HW197230   7.063  10.857   3.056 -0.6409 -1.1842 -0.2317
30124SOL    HW297231   7.133  10.744   3.127  0.9020 -0.5168 -0.6379
30125SOL     OW97232   2.877   4.605   6.714 -0.1576  0.0763 -0.2115
30125SOL    HW197233   2.826   4.594   6.794 -0.7398  1.2546 -0.3831
30125SOL    HW297234   2.933   4.528   6.710 -0.5356 -0.2940  1.0166
30126SOL     OW97235  11.455   7.324   1.784 -0.0446  0.0952 -0.3120
30126SOL    HW197236  11.548   7.338   1.768  0.1881 -2.0749 -1.1802
30126SOL    HW297237  11.424   7.407   1.819  2.3496  0.6822  0.6286
30127SOL     OW97238   6.192   4.206   4.793 -0.2045  0.2742  0.2334
30127SOL    HW197239   6.129   4.207   4.721  0.1077  2.4017 -0.0643
30127SOL    HW297240   6.156   4.265   4.858  0.1981 -0.5725  1.2535
30128SOL     OW97241  11.004   2.662   9.766  0.0782 -0.2192  0.3207
30128SOL    HW197242  11.054   2.734   9.727 -0.6031  0.0921 -0.0066
30128SOL    HW297243  10.925   2.704   9.801  0.9218 -0.3946  2.5961
30129SOL     OW97244   2.481   6.241   5.830 -0.0892 -0.0218  0.4054
30129SOL    HW197245   2.505   6.311   5.770  0.3746  0.1556  0.7896
30129SOL    HW297246   2.421   6.186   5.780 -0.3331  0.5584  0.0454
30130SOL     OW97247   3.526  12.286   3.838 -0.0755 -0.0184 -0.1989
30130SOL    HW197248   3.588  12.358   3.850  0.7400 -0.5440 -1.1156
30130SOL    HW297249   3.494  12.296   3.748 -2.2495  0.9246  0.5956
30131SOL     OW97250  12.235   9.253   2.504 -0.4489  0.4670 -0.4675
30131SOL    HW197251  12.301   9.235   2.436 -0.5620 -0.3597 -0.3716
30131SOL    HW297252  12.275   9.221   2.585 -1.5335 -1.4908 -0.6287
30132SOL     OW97253   1.156   4.868  10.498  0.0191 -0.1281  0.5808
30132SOL    HW197254   1.071   4.825  10.493  0.1175 -0.2232 -0.7117
30132SOL    HW297255   1.157   4.910  10.584 -1.9671  1.1735  0.0294
30133SOL     OW97256  12.449   3.638   0.731 -0.2691 -0.2979 -0.2709
30133SOL    HW197257  12.480   3.595   0.810 -0.7090  2.9186  1.8367
30133SOL    HW297258  12.511   3.710   0.717 -2.7043  2.0217 -0.0122
30134SOL     OW97259   1.671   0.238   9.639  0.1000 -0.5713  0.2534
30134SOL    HW197260   1.593   0.183   9.641 -0.0855 -0.3863 -1.1225
30134SOL    HW297261   1.693   0.247   9.546  0.4751  1.1637  0.4688
30135SOL     OW97262   8.948   9.374   7.373 -0.0780 -0.1316 -0.2219
30135SOL    HW197263   8.867   9.355   7.325 -0.2093 -0.2254  0.0385
30135SOL    HW297264   9.007   9.410   7.307  0.1488 -1.3544 -0.7169
30136SOL     OW97265   1.260   4.759   7.658 -0.7182  0.2095 -0.0615
30136SOL    HW197266   1.174   4.800   7.664  0.2773  2.5460 -0.7571
30136SOL    HW297267   1.305   4.806   7.588  0.3178 -2.5929 -1.4187
30137SOL     OW97268   8.687   6.755   0.302  0.2548 -0.6159  0.0850
30137SOL    HW197269   8.699   6.694   0.229  0.0011 -2.3497  1.4312
30137SOL    HW297270   8.766   6.746   0.354 -1.7806 -3.7379  3.0284
30138SOL     OW97271   1.266   4.229   5.087  0.5475 -0.1654  0.0547
30138SOL    HW197272   1.255   4.294   5.018 -1.0482  0.2284  0.6391
30138SOL    HW297273   1.355   4.243   5.120  0.5406  1.1236 -0.4282
30139SOL     OW97274   1.959   5.048   8.597  0.3603 -0.8160  0.0147
30139SOL    HW197275   1.906   5.071   8.672  0.8895 -2.3994  0.9280
30139SOL    HW297276   1.999   5.131   8.569 -0.3797 -0.0912  1.0386
30140SOL     OW97277   0.349   5.228   5.265 -0.5266  0.0755 -0.2367
30140SOL    HW197278   0.417   5.185   5.213 -0.1837  0.7364 -0.3494
30140SOL    HW297279   0.397   5.270   5.337 -0.7096  1.1945 -0.7439
30141SOL     OW97280  10.761   8.276   2.610  0.1728  0.1204  0.6195
30141SOL    HW197281  10.809   8.290   2.691  1.5632 -1.6392  0.1690
30141SOL    HW297282  10.681   8.232   2.637  0.3018  0.1726  1.0958
30142SOL     OW97283   4.166   3.763   6.345 -0.0557 -0.6957 -0.6939
30142SOL    HW197284   4.256   3.738   6.366  0.6389  0.2004 -2.4361
30142SOL    HW297285   4.113   3.691   6.381  1.2439 -0.8709  1.0477
30143SOL     OW97286   8.281   5.053  12.087 -0.3993 -0.1489  0.1640
30143SOL    HW197287   8.262   4.984  12.023 -0.0928  1.2134 -1.4779
30143SOL    HW297288   8.216   5.039  12.156 -0.7394 -1.6932 -0.4088
30144SOL     OW97289   6.820   9.130  12.103 -0.4656  0.3108 -0.2443
30144SOL    HW197290   6.762   9.054  12.108 -1.1472  0.8078 -0.4712
30144SOL    HW297291   6.762   9.204  12.086  0.2876  0.7284 -1.1149
30145SOL     OW97292   7.400   2.712  11.978  0.0676 -0.7317 -0.7337
30145SOL    HW197293   7.391   2.755  11.894 -1.8210  0.6102  0.0844
30145SOL    HW297294   7.424   2.783  12.039  0.0658 -1.4121  0.0799
30146SOL     OW97295   9.200   7.145  10.539 -0.2356  0.3116 -0.2415
30146SOL    HW197296   9.174   7.166  10.450 -1.1581  0.5934  0.0751
30146SOL    HW297297   9.137   7.079  10.568  0.9022 -0.8135 -0.2559
30147SOL     OW97298  10.943   9.834   9.660 -0.4071  0.1145 -0.1430
30147SOL    HW197299  10.849   9.844   9.675 -0.2061 -0.6059  1.8533
30147SOL    HW297300  10.959   9.740   9.668  0.5503  0.2842  0.0002
30148SOL     OW97301  11.258  12.203   1.621 -0.4571 -0.3438  0.1796
30148SOL    HW197302  11.221  12.147   1.553  1.1271 -2.2399  0.7675
30148SOL    HW297303  11.302  12.273   1.573  1.6880 -2.3070 -0.9288
30149SOL     OW97304   4.374   8.426   0.030  0.2755 -0.1147 -0.0724
30149SOL    HW197305   4.402   8.511  -0.005 -0.9165  0.1983 -0.3101
30149SOL    HW297306   4.282   8.419   0.005 -0.6962  0.1532  3.0815
30150SOL     OW97307   3.821   4.896   6.954 -0.0529 -0.1673  0.2650
30150SOL    HW197308   3.765   4.932   6.885 -0.7834 -0.9327  0.4410
30150SOL    HW297309   3.759   4.861   7.018  0.6224  0.4241  1.2558
30151SOL     OW97310  11.182   4.644   2.829  0.1087 -0.4005 -0.2587
30151SOL    HW197311  11.223   4.722   2.867 -1.1033 -0.3421  1.0199
30151SOL    HW297312  11.208   4.646   2.737  2.5054 -0.1090  0.3622
30152SOL     OW97313   7.847   8.758  12.243  0.6514  0.0212 -0.3072
30152SOL    HW197314   7.798   8.805  12.175 -0.0350 -0.0745  0.1160
30152SOL    HW297315   7.906   8.823  12.280 -1.0649  0.8809  1.0418
30153SOL     OW97316   6.742   6.945   7.060  0.5050 -0.1174  0.1146
30153SOL    HW197317   6.747   7.031   7.018 -0.3688 -0.4978 -0.8066
30153SOL    HW297318   6.792   6.888   7.002 -0.2229 -0.5332 -0.1152
30154SOL     OW97319   7.274  12.263   9.313  0.3367 -0.1080  0.0203
30154SOL    HW197320   7.282  12.301   9.400  0.2032  1.7028 -0.6917
30154SOL    HW297321   7.353  12.292   9.267 -0.0981 -0.1228 -0.7604
30155SOL     OW97322  10.193   3.435   2.142  0.1258  0.4525  0.2890
30155SOL    HW197323  10.232   3.475   2.065 -0.8140  1.1149  0.1455
30155SOL    HW297324  10.111   3.397   2.111  0.9045 -1.4674  0.4544
30156SOL     OW97325   6.796   6.023   6.735  0.0516  0.3713 -0.6553
30156SOL    HW197326   6.831   6.106   6.766  2.2094 -0.1476 -1.5306
30156SOL    HW297327   6.739   5.993   6.806  0.1963  1.9919  0.1889
30157SOL     OW97328   9.406   9.724   3.059 -0.6695 -0.6201  0.2757
30157SOL    HW197329   9.394   9.701   3.151  0.2716 -0.6595  0.3997
30157SOL    HW297330   9.497   9.754   3.054 -1.4125  1.7901 -0.1252
30158SOL     OW97331   2.873   6.442   2.435 -0.4558  0.0086 -0.1962
30158SOL    HW197332   2.955   6.439   2.386 -0.1794 -0.9063  0.2912
30158SOL    HW297333   2.804   6.435   2.369 -0.0820 -2.1428 -0.4442
30159SOL     OW97334  12.409   5.921  11.551 -0.0384  0.0137 -0.1241
30159SOL    HW197335  12.363   5.868  11.486 -0.7182  0.4320  0.0094
30159SOL    HW297336  12.348   5.928  11.624  0.6248 -0.2482  0.4740
30160SOL     OW97337   5.378   8.545   1.110 -0.8499  0.2496  0.0400
30160SOL    HW197338   5.413   8.520   1.024 -0.4908  0.2107  0.2008
30160SOL    HW297339   5.322   8.620   1.091 -0.3784  0.5538 -0.1577
30161SOL     OW97340   7.769   1.153  12.137 -0.9472 -0.2643  0.1720
30161SOL    HW197341   7.746   1.061  12.127 -0.3638 -0.2466 -1.6373
30161SOL    HW297342   7.688   1.201  12.119 -0.8321 -0.3782 -0.6858
30162SOL     OW97343   5.127   0.100   7.994 -0.0787  0.3964  0.5144
30162SOL    HW197344   5.046   0.094   7.943  0.7317 -0.8321 -0.6782
30162SOL    HW297345   5.117   0.180   8.046 -1.8723  0.4775  0.0895
30163SOL     OW97346  10.551   8.711  10.362  0.4330  0.2353  0.2984
30163SOL    HW197347  10.500   8.773  10.309 -1.9921 -1.2035  0.8287
30163SOL    HW297348  10.583   8.763  10.436  2.0901  1.7712 -1.3806
30164SOL     OW97349   9.860   4.383   0.416 -0.6855 -0.1753 -0.0826
30164SOL    HW197350   9.846   4.316   0.349  0.0771  0.0485 -0.4712
30164SOL    HW297351   9.844   4.465   0.371  0.5403  0.0170 -0.1909
30165SOL     OW97352   3.438   8.144   5.094  0.3099  0.1193  0.4517
30165SOL    HW197353   3.417   8.073   5.154 -1.2191  1.4005  1.5336
30165SOL    HW297354   3.529   8.166   5.113  1.0343 -1.9253 -0.3745
30166SOL     OW97355   3.879   6.766  12.395 -0.2365 -0.9783  0.4512
30166SOL    HW197356   3.936   6.751  12.470  1.6305  0.3574 -0.6190
30166SOL    HW297357   3.800   6.715  12.414  1.4035 -3.1640  1.8542
30167SOL     OW97358   7.031   2.528   7.143 -0.3376 -0.4321 -0.0783
30167SOL    HW197359   6.989   2.445   7.166 -0.1492 -0.3057  0.7319
30167SOL    HW297360   7.119   2.503   7.115 -0.5649 -0.5831 -0.6865
30168SOL     OW97361   0.673   6.081   4.009  0.2861  0.1642  0.5651
30168SOL    HW197362   0.757   6.068   3.965  0.7152  2.0734  0.7127
30168SOL    HW297363   0.689   6.155   4.068 -1.4159  0.3552  0.8262
30169SOL     OW97364   3.189   2.924   4.635 -0.0966 -0.2523  0.3191
30169SOL    HW197365   3.129   2.849   4.631  0.0606 -0.3527 -0.1698
30169SOL    HW297366   3.191   2.947   4.728  1.2311 -1.9822  0.7695
30170SOL     OW97367   2.558   2.529   6.490 -0.1974 -0.5285 -0.0414
30170SOL    HW197368   2.541   2.456   6.430 -0.2400  0.7646 -1.6702
30170SOL    HW297369   2.621   2.494   6.553 -0.0586 -1.9010 -0.8952
30171SOL     OW97370   2.520  10.862   0.012  0.4319 -0.1228  0.1118
30171SOL    HW197371   2.615  10.875   0.012  0.0667  3.8421  1.0845
30171SOL    HW297372   2.492  10.890  -0.075  0.1175 -1.4894 -0.2504
30172SOL     OW97373   8.589   3.409  11.450  0.1344  0.5118  0.1000
30172SOL    HW197374   8.513   3.372  11.406 -0.3380 -0.0527  1.3386
30172SOL    HW297375   8.584   3.503  11.434 -0.8401  0.4828  0.1929
30173SOL     OW97376  11.701   3.828   8.917  0.4182  0.3048  0.2390
30173SOL    HW197377  11.676   3.738   8.896 -0.5004  0.6933 -0.3723
30173SOL    HW297378  11.685   3.877   8.837  1.4480  0.9220  0.3936
30174SOL     OW97379   5.178  10.448   0.970 -0.5656  0.1486  0.1526
30174SOL    HW197380   5.262  10.414   1.000 -0.6713 -0.6516 -0.4215
30174SOL    HW297381   5.201  10.509   0.899 -0.5083 -0.9960 -0.8457
30175SOL     OW97382   2.748   5.235  11.336 -0.2998 -0.0534 -0.8184
30175SOL    HW197383   2.703   5.317  11.354  1.1826  1.1908 -2.4702
30175SOL    HW297384   2.837   5.248  11.367 -0.3661 -1.5502  0.1109
30176SOL     OW97385   5.373   7.476   0.844 -0.0407 -0.0267 -0.0936
30176SOL    HW197386   5.456   7.434   0.822 -0.8092 -1.9683  0.4352
30176SOL    HW297387   5.323   7.474   0.762 -0.2179 -0.5080  0.0250
30177SOL     OW97388  10.426   8.739   8.322  0.0187 -0.4741 -0.0617
30177SOL    HW197389  10.424   8.803   8.393  0.4861 -0.2637 -0.2314
30177SOL    HW297390  10.513   8.750   8.282 -0.4992 -0.0815 -1.1272
30178SOL     OW97391   8.964  11.584  10.545 -0.1122 -0.5232 -0.1344
30178SOL    HW197392   9.053  11.573  10.577  0.2753 -0.3673 -1.0997
30178SOL    HW297393   8.974  11.634  10.464 -1.2425  1.1467  0.6949
30179SOL     OW97394   4.563   3.335   2.903  0.4933 -0.0446  0.2260
30179SOL    HW197395   4.543   3.278   2.977 -2.2181 -1.0455 -1.1436
30179SOL    HW297396   4.533   3.287   2.826  0.0518  2.3320 -1.2047
30180SOL     OW97397   8.085   7.430   4.902 -0.2392  1.0411 -0.1138
30180SOL    HW197398   8.096   7.371   4.976  0.9026  1.8668  0.4105
30180SOL    HW297399   8.133   7.389   4.830 -0.5250  0.7146 -0.1182
30181SOL     OW97400   4.943   4.477  12.138  0.1470 -0.6059 -0.3338
30181SOL    HW197401   4.884   4.403  12.143 -0.1075 -0.4013 -0.2676
30181SOL    HW297402   5.001   4.468  12.214  0.7139 -1.2342 -0.8254
30182SOL     OW97403   0.589   3.414  10.924 -0.2172 -0.4368 -0.3846
30182SOL    HW197404   0.565   3.393  10.834 -0.8253  2.1805 -0.9206
30182SOL    HW297405   0.680   3.387  10.932 -0.1550 -0.7240 -1.7968
30183SOL     OW97406   2.948   3.633  10.297 -0.3233  0.2268  0.0447
30183SOL    HW197407   2.874   3.686  10.266  0.0238  0.0588 -1.1511
30183SOL    HW297408   2.950   3.647  10.391  0.2137  2.9664 -0.2905
30184SOL     OW97409   9.130  11.974   2.407 -0.6093  0.2654 -0.1261
30184SOL    HW197410   9.174  12.056   2.430 -0.0148  0.2961 -1.2918
30184SOL    HW297411   9.142  11.966   2.312  0.4978 -1.8284  0.1337
30185SOL     OW97412   2.332   1.103  10.022 -0.2732 -0.2278  0.1857
30185SOL    HW197413   2.310   1.054  10.101  0.2303 -1.7432 -0.5673
30185SOL    HW297414   2.304   1.192  10.040 -0.1715 -0.5360  2.0673
30186SOL     OW97415   1.854   9.660   3.277  0.4900 -0.3027  0.1215
30186SOL    HW197416   1.776   9.701   3.238  0.3068 -0.0503  0.7452
30186SOL    HW297417   1.915   9.651   3.204 -1.3898 -3.8031 -1.2428
30187SOL     OW97418   8.711   9.188   3.451  0.3445 -0.1476 -0.2712
30187SOL    HW197419   8.662   9.146   3.380 -0.5154  0.2456  0.0811
30187SOL    HW297420   8.673   9.152   3.531 -0.0978  0.9471  0.0284
30188SOL     OW97421  12.106   2.184  10.784  0.4791 -0.1217 -0.0825
30188SOL    HW197422  12.061   2.132  10.850  0.3929  0.0191 -0.0313
30188SOL    HW297423  12.085   2.275  10.806  2.6838  0.1083  1.3798
30189SOL     OW97424  11.901  11.548  11.399 -0.3359 -0.3743 -0.2397
30189SOL    HW197425  11.877  11.482  11.464 -1.6279 -0.2779 -0.6001
30189SOL    HW297426  11.970  11.600  11.442 -0.4725 -0.9283  0.6692
30190SOL     OW97427   6.750   5.570   2.220 -0.5600 -0.0208  0.0990
30190SOL    HW197428   6.662   5.540   2.198 -0.3277 -1.9116  1.4633
30190SOL    HW297429   6.807   5.499   2.189  0.0240 -1.2280  3.5048
30191SOL     OW97430   8.455   2.781  10.791  0.4747  0.0662  0.2981
30191SOL    HW197431   8.382   2.823  10.747  1.2374 -0.5664 -1.6853
30191SOL    HW297432   8.415   2.708  10.838 -0.0616 -1.4455 -2.2960
30192SOL     OW97433   4.747  10.135   5.639  0.0767 -0.3701  0.2541
30192SOL    HW197434   4.779  10.110   5.552  0.2580 -0.6636  0.4062
30192SOL    HW297435   4.817  10.188   5.677 -0.7913  1.4330 -0.5425
30193SOL     OW97436   2.845  11.849   1.765  0.1116  0.0373 -0.1685
30193SOL    HW197437   2.883  11.930   1.731 -0.2398 -0.4793 -1.9040
30193SOL    HW297438   2.753  11.870   1.779  0.0667  0.0114 -0.4120
30194SOL     OW97439   8.337   5.260  10.778 -0.1924  0.0120  0.4731
30194SOL    HW197440   8.355   5.329  10.842  0.6127  0.3676 -0.1236
30194SOL    HW297441   8.366   5.179  10.822 -0.1998  0.1754  0.7829
30195SOL     OW97442  10.269   6.555   0.398  0.2710 -0.3501  0.2859
30195SOL    HW197443  10.221   6.637   0.388 -0.6045 -0.7134  1.3311
30195SOL    HW297444  10.273   6.518   0.310  0.1372  0.5232 -0.0872
30196SOL     OW97445  12.222   5.724   4.232 -0.1484  0.1547  0.9234
30196SOL    HW197446  12.280   5.696   4.303  0.0081 -1.6074  0.1614
30196SOL    HW297447  12.180   5.643   4.203 -1.8754  1.1830  0.4578
30197SOL     OW97448   0.541   3.884   4.191 -0.4168  0.5114 -0.1617
30197SOL    HW197449   0.498   3.861   4.109 -1.5707  0.6685  0.3903
30197SOL    HW297450   0.581   3.802   4.221 -1.7734 -0.0498  0.1621
30198SOL     OW97451  11.734  10.034   2.737 -0.1465 -0.0381 -0.1510
30198SOL    HW197452  11.741   9.972   2.809  0.6748 -0.1938 -0.3552
30198SOL    HW297453  11.817  10.082   2.738  0.1182 -0.4344 -1.3524
30199SOL     OW97454   3.004   2.424   9.155 -0.4772 -0.0429  0.0388
30199SOL    HW197455   3.024   2.518   9.162 -0.3157  0.0324 -1.1318
30199SOL    HW297456   2.915   2.421   9.121 -0.6673 -0.3195  0.5659
30200SOL     OW97457   5.343   6.014   4.025 -0.2551  0.0567 -0.4679
30200SOL    HW197458   5.371   6.040   4.112 -1.5339  0.1983 -0.0898
30200SOL    HW297459   5.423   6.017   3.972  0.1071  2.3311  0.1135
30201SOL     OW97460   8.333   6.404  10.456 -0.4717 -0.2720  0.5855
30201SOL    HW197461   8.428   6.415  10.464 -0.6495  0.5268  2.2760
30201SOL    HW297462   8.298   6.492  10.473 -1.4851 -0.1505 -1.7876
30202SOL     OW97463   5.596   8.755   5.165  0.0721  0.3961 -0.3097
30202SOL    HW197464   5.627   8.773   5.076  0.9464  2.2613  0.3310
30202SOL    HW297465   5.500   8.757   5.158  0.1290  2.0345 -0.9623
30203SOL     OW97466  11.618   8.857   4.319 -0.3882 -0.2235  0.3646
30203SOL    HW197467  11.629   8.902   4.403 -0.9258 -0.1253  0.3827
30203SOL    HW297468  11.694   8.884   4.267  0.3198 -0.8292  1.0559
30204SOL     OW97469   8.865  10.469   1.481 -0.0200 -0.6572  0.3070
30204SOL    HW197470   8.843  10.459   1.389 -0.7803 -2.8389  0.6696
30204SOL    HW297471   8.955  10.436   1.488  0.9503  1.7606 -0.0075
30205SOL     OW97472   4.009   6.320   0.615 -0.7136 -0.0904 -0.4957
30205SOL    HW197473   4.036   6.327   0.523  1.9914 -0.1932  0.2072
30205SOL    HW297474   4.002   6.411   0.645  1.5745  0.0088 -0.0473
30206SOL     OW97475   5.424   2.141   0.746  0.0020  0.4491  0.1406
30206SOL    HW197476   5.343   2.093   0.760  0.3401 -0.2292 -0.1623
30206SOL    HW297477   5.492   2.074   0.745  0.6564  1.0795  1.0825
30207SOL     OW97478   8.719  10.725   5.487 -0.0795  0.3691  0.1807
30207SOL    HW197479   8.687  10.723   5.397  2.1525 -0.3988 -0.6571
30207SOL    HW297480   8.640  10.716   5.540 -1.3149 -0.6924 -1.7044
30208SOL     OW97481   6.371   5.471   2.878  0.4847  0.2593  0.0849
30208SOL    HW197482   6.433   5.541   2.900  2.1195 -0.5106 -1.7216
30208SOL    HW297483   6.338   5.496   2.792  0.0654 -0.5189  0.0164
30209SOL     OW97484   4.557   4.951   6.740 -0.0319 -0.6145  0.1584
30209SOL    HW197485   4.489   4.980   6.800 -0.1468  0.5129 -0.4827
30209SOL    HW297486   4.557   4.855   6.747 -0.1058 -0.5155  1.8516
30210SOL     OW97487   1.459   4.185   0.419  0.4494 -0.1695  0.2845
30210SOL    HW197488   1.447   4.249   0.489  3.1669 -0.1161  0.7986
30210SOL    HW297489   1.419   4.105   0.453 -2.9890  1.1037 -0.3647
30211SOL     OW97490   6.546   3.389   0.325  0.0912  0.4308  0.1517
30211SOL    HW197491   6.574   3.428   0.408  1.1340  0.0552 -0.0183
30211SOL    HW297492   6.588   3.442   0.258  0.5895 -0.2789 -0.0998
30212SOL     OW97493  11.518   5.235   2.465 -0.5136  0.1057 -0.2191
30212SOL    HW197494  11.554   5.154   2.501  0.8266  0.7294 -0.0537
30212SOL    HW297495  11.498   5.215   2.374 -1.5602 -0.7947  0.1941
30213SOL     OW97496  10.419  10.063   3.471 -0.0534 -0.5150 -0.1026
30213SOL    HW197497  10.386  10.152   3.460  0.1086 -0.3003  1.0224
30213SOL    HW297498  10.415  10.048   3.566  0.3560 -1.5363 -0.2385
30214SOL     OW97499   9.760   8.739   1.127  0.5704 -0.1887 -0.3158
30214SOL    HW197500   9.814   8.802   1.176  0.1431 -1.3319  1.7418
30214SOL    HW297501   9.752   8.664   1.186 -3.5699  0.0562 -0.2704
30215SOL     OW97502  10.506  12.021  12.403  0.1557 -0.0559  0.4016
30215SOL    HW197503  10.531  11.929  12.409 -0.0570 -0.0733  1.1512
30215SOL    HW297504  10.424  12.020  12.353 -0.4676 -0.3974  1.3999
30216SOL     OW97505   8.037  12.104   6.141  0.1542  0.5775 -0.1562
30216SOL    HW197506   7.957  12.103   6.088  0.3565 -0.0765 -0.4633
30216SOL    HW297507   8.066  12.195   6.139 -0.2967  0.7178 -0.4831
30217SOL     OW97508   5.738   4.968   3.835  0.0782  0.0196 -0.3573
30217SOL    HW197509   5.674   5.019   3.885  0.6845  0.2629  0.1817
30217SOL    HW297510   5.822   5.012   3.851  0.7226 -1.4905  0.6177
30218SOL     OW97511   4.969   2.943   2.129 -0.2731 -0.0084 -0.3837
30218SOL    HW197512   4.959   2.847   2.126 -0.0657 -0.0266 -0.5330
30218SOL    HW297513   5.063   2.957   2.126 -0.1055  0.1111  2.4624
30219SOL     OW97514  11.987   1.611   5.096  0.1883  0.4575 -0.8708
30219SOL    HW197515  11.970   1.611   5.190  1.4172  2.1779 -0.5984
30219SOL    HW297516  12.073   1.652   5.088  0.1533  0.2272 -2.7515
30220SOL     OW97517   6.070   3.905   2.408 -0.2030  0.2992 -0.0902
30220SOL    HW197518   6.128   3.953   2.466  1.3616  1.1846 -2.2564
30220SOL    HW297519   6.006   3.969   2.377 -1.2311 -0.2392  0.8342
30221SOL     OW97520   6.002   2.226   1.213  0.2490  0.0728  0.8580
30221SOL    HW197521   5.922   2.279   1.210  0.3487  0.2337  1.0852
30221SOL    HW297522   6.025   2.222   1.306 -0.4586 -1.4103  1.0000
30222SOL     OW97523  11.774   4.293   8.993  0.2727  0.1572 -0.5836
30222SOL    HW197524  11.857   4.266   9.032  0.8388 -0.0919 -1.9126
30222SOL    HW297525  11.707   4.245   9.043  0.8612  0.7761  0.8575
30223SOL     OW97526  11.145   6.472   8.278  0.2212 -0.5943  0.1682
30223SOL    HW197527  11.232   6.433   8.278  0.0039 -1.2700 -2.4134
30223SOL    HW297528  11.161   6.566   8.265  0.5878 -0.7566 -0.6298
30224SOL     OW97529   0.499   9.365  10.089 -0.1630  0.0642  0.2760
30224SOL    HW197530   0.541   9.280  10.097  0.8802  0.3385 -1.6592
30224SOL    HW297531   0.559   9.426  10.131 -0.3591  0.0095  0.6431
30225SOL     OW97532  11.011  11.930   2.996  0.3437 -0.2488 -0.2017
30225SOL    HW197533  11.031  11.938   2.903 -1.5311 -1.3616 -0.7502
30225SOL    HW297534  10.977  12.016   3.021 -0.8964 -0.4658 -1.0427
30226SOL     OW97535   6.071   1.344   2.519 -0.5909  0.0319 -0.0169
30226SOL    HW197536   6.075   1.248   2.521  0.2304  0.0574 -0.3067
30226SOL    HW297537   6.094   1.367   2.429 -0.8591  0.5065  0.0316
30227SOL     OW97538   4.229   5.353   1.145  0.1828  0.3781  0.4312
30227SOL    HW197539   4.220   5.292   1.072 -0.6185  1.5246 -0.4557
30227SOL    HW297540   4.272   5.302   1.213  0.5151 -0.8570 -0.6647
30228SOL     OW97541   5.092   9.380  10.866  0.5871  0.1746 -0.0625
30228SOL    HW197542   5.089   9.467  10.907  2.1034  0.3540 -0.2815
30228SOL    HW297543   5.111   9.397  10.774  3.3173 -0.4193  0.3055
30229SOL     OW97544  10.013   6.912   8.720 -0.5722  0.1152  0.6282
30229SOL    HW197545  10.100   6.886   8.689 -1.2046  2.3497 -3.6181
30229SOL    HW297546  10.026   7.000   8.755 -1.0442  0.2710  0.4075
30230SOL     OW97547   2.922   8.598   8.242 -0.5053  0.1408  0.2223
30230SOL    HW197548   2.827   8.602   8.232 -0.5975 -0.0643  0.9476
30230SOL    HW297549   2.951   8.534   8.178 -0.9626 -0.4915  0.6370
30231SOL     OW97550   1.397   5.006   2.779 -0.9402  0.1695 -0.1883
30231SOL    HW197551   1.387   5.056   2.860  0.6424  0.8645 -0.3876
30231SOL    HW297552   1.467   5.050   2.732  0.0290 -1.8076 -0.7132
30232SOL     OW97553   5.411   8.185   4.404  0.0028  0.0842 -0.1630
30232SOL    HW197554   5.362   8.172   4.324  1.7435  0.6350 -1.3922
30232SOL    HW297555   5.367   8.132   4.469 -2.3550  0.7974 -1.0939
30233SOL     OW97556   6.367   2.767   1.985  0.3026  0.4458 -0.0357
30233SOL    HW197557   6.398   2.713   2.057 -1.5834 -1.1753 -0.3413
30233SOL    HW297558   6.316   2.837   2.027 -0.6390 -0.3863  0.2218
30234SOL     OW97559   1.960   5.022   2.632 -0.5386  0.4557  0.3592
30234SOL    HW197560   1.934   5.113   2.620  1.3426  0.8069 -1.8216
30234SOL    HW297561   2.051   5.019   2.602 -0.9021 -2.3816 -0.8025
30235SOL     OW97562   0.566   8.546   9.523 -0.1245 -0.2393  0.1033
30235SOL    HW197563   0.626   8.545   9.448  0.0977  0.1968  0.2720
30235SOL    HW297564   0.618   8.510   9.595 -0.2999 -0.5467  0.0755
30236SOL     OW97565   7.851  10.739  12.064 -0.2473 -0.1230 -0.5588
30236SOL    HW197566   7.875  10.823  12.104 -3.3752  0.5136  0.2455
30236SOL    HW297567   7.851  10.756  11.970 -2.1946  1.2876 -0.3624
30237SOL     OW97568   0.372   2.951   2.941 -0.1524  0.4608 -0.1835
30237SOL    HW197569   0.431   2.924   3.011 -1.2631 -0.8940  0.2704
30237SOL    HW297570   0.337   2.869   2.906 -0.9903  1.1892 -1.1154
30238SOL     OW97571  10.158   8.327   4.904 -0.1151 -0.3949 -0.1185
30238SOL    HW197572  10.119   8.332   4.992  1.2451 -1.7936  0.6146
30238SOL    HW297573  10.204   8.411   4.893  0.1714 -0.4266  0.7578
30239SOL     OW97574   8.679   1.697  10.386  0.4473 -0.0375 -0.4631
30239SOL    HW197575   8.770   1.677  10.408  0.3531 -1.1109 -0.9889
30239SOL    HW297576   8.679   1.709  10.291  0.5040  2.6790 -0.2143
30240SOL     OW97577  10.633   6.430   4.450 -0.1251 -0.5659  0.2688
30240SOL    HW197578  10.594   6.353   4.409 -1.4135  0.1701  0.0659
30240SOL    HW297579  10.559   6.479   4.486  0.7178  0.3121  0.8684
30241SOL     OW97580   0.735   9.292   8.879  0.1436 -0.4874 -0.6501
30241SOL    HW197581   0.771   9.322   8.963 -0.6134  2.4675 -1.2661
30241SOL    HW297582   0.648   9.331   8.875 -0.0281 -0.9722 -2.5833
30242SOL     OW97583   3.105  10.679   9.269 -0.3024 -0.0272 -0.0725
30242SOL    HW197584   3.181  10.714   9.223 -1.1915  0.7310 -1.0005
30242SOL    HW297585   3.038  10.669   9.201 -0.5472 -2.1976  0.4134
30243SOL     OW97586   0.794   3.085   7.079 -0.1738 -0.5309  0.3371
30243SOL    HW197587   0.815   3.158   7.137 -0.8470  1.3624 -1.6759
30243SOL    HW297588   0.880   3.053   7.051  0.1289  0.0518  0.5618
30244SOL     OW97589   6.992   5.426   8.880 -0.0877  0.2102  0.3329
30244SOL    HW197590   7.025   5.360   8.820 -1.1302  0.8896 -1.0407
30244SOL    HW297591   6.921   5.382   8.926 -1.4418  0.6051 -1.2854
30245SOL     OW97592   3.263   8.035  10.322 -0.1606  0.7595  0.1433
30245SOL    HW197593   3.306   8.119  10.306  2.3410 -0.1421  1.6146
30245SOL    HW297594   3.318   7.992  10.388 -1.0750 -2.2673 -0.9138
30246SOL     OW97595   7.811   7.025   6.329 -0.1396 -0.1755  0.5228
30246SOL    HW197596   7.761   6.999   6.406 -0.9642  0.2988  0.1561
30246SOL    HW297597   7.895   6.980   6.339  0.0444  0.4398  2.0594
30247SOL     OW97598   9.299   5.880   5.152 -0.3033  0.0412  0.3499
30247SOL    HW197599   9.293   5.788   5.175 -0.1177  0.0359  0.3747
30247SOL    HW297600   9.316   5.880   5.057 -0.0714  0.0464  0.3921
30248SOL     OW97601   2.346  11.679   5.081 -0.2530  0.4851  0.3430
30248SOL    HW197602   2.288  11.747   5.046 -0.2284 -0.2194 -1.1404
30248SOL    HW297603   2.434  11.711   5.064 -0.2391  0.2217 -0.0934
30249SOL     OW97604   2.916   4.548   1.588  0.2121  0.4444  0.4250
30249SOL    HW197605   2.866   4.550   1.507  1.8867 -1.7369 -0.7618
30249SOL    HW297606   2.955   4.635   1.594 -2.5699  1.8048  0.7627
30250SOL     OW97607   6.795  12.373   2.534  0.6831  0.3931  0.0908
30250SOL    HW197608   6.806  12.306   2.467 -1.1001  1.0584 -0.9285
30250SOL    HW297609   6.819  12.329   2.616 -0.4195 -1.4991 -0.5483
30251SOL     OW97610   7.300   9.254   3.518 -0.3277 -0.1973  0.0189
30251SOL    HW197611   7.238   9.201   3.569 -2.4265  2.9300  0.9620
30251SOL    HW297612   7.255   9.273   3.437 -0.6618  2.0484  0.6755
30252SOL     OW97613   8.886   1.039   8.760  0.3381 -0.5499  0.7702
30252SOL    HW197614   8.954   1.030   8.693  0.2090 -1.1557  0.7140
30252SOL    HW297615   8.868   0.949   8.789 -0.0048 -0.3444  1.2204
30253SOL     OW97616   5.965   7.553   8.876 -0.0716 -0.0013  0.0253
30253SOL    HW197617   6.060   7.553   8.860 -0.1605 -0.2415 -0.5002
30253SOL    HW297618   5.956   7.597   8.961  0.5738 -0.6221  0.4334
30254SOL     OW97619   2.031   6.484   9.677  0.7509 -0.0676 -0.0285
30254SOL    HW197620   1.965   6.518   9.617  0.5154 -1.8677 -0.8484
30254SOL    HW297621   2.052   6.558   9.734 -0.8335  0.9789 -0.7379
30255SOL     OW97622   3.808  11.243   4.160  0.1208 -0.1069 -0.0539
30255SOL    HW197623   3.842  11.159   4.131  1.5058  0.3795  0.0788
30255SOL    HW297624   3.886  11.297   4.175 -0.7313  1.2410 -0.2643
30256SOL     OW97625  10.309   4.932  11.951  0.4095  0.8959  0.2140
30256SOL    HW197626  10.235   4.873  11.937  0.8160  0.6486 -1.0005
30256SOL    HW297627  10.367   4.917  11.876  0.1156  3.4662 -0.6202
30257SOL     OW97628  11.485   8.663   9.823  0.3196  0.0373  0.5552
30257SOL    HW197629  11.484   8.619   9.908 -1.3382 -0.5430  0.2656
30257SOL    HW297630  11.526   8.600   9.764 -1.4879 -0.9358  0.2719
30258SOL     OW97631   5.446  11.476   8.302 -0.4100 -0.3849 -0.4283
30258SOL    HW197632   5.425  11.472   8.209  2.1495 -2.6167 -1.0478
30258SOL    HW297633   5.362  11.465   8.346 -1.5438 -0.4639 -2.4904
30259SOL     OW97634   8.444   3.681  11.608 -0.0737 -0.4778 -0.7387
30259SOL    HW197635   8.428   3.771  11.578  0.8407 -0.0849 -0.0980
30259SOL    HW297636   8.539   3.677  11.621 -0.3607 -0.6650  1.9116
30260SOL     OW97637   3.287  10.005  12.306 -0.6068 -0.6010 -0.1426
30260SOL    HW197638   3.237   9.997  12.224 -1.1322 -1.6757  0.2598
30260SOL    HW297639   3.371  10.043  12.279 -1.3484  0.5641 -0.9418
30261SOL     OW97640   6.262  11.540   5.605 -0.1105  0.1927 -0.2900
30261SOL    HW197641   6.206  11.497   5.670  0.0888 -1.8120 -1.3562
30261SOL    HW297642   6.201  11.564   5.535 -0.2488  1.9037  0.3816
30262SOL     OW97643  10.222   0.824   1.599  0.5528  0.1638  0.1600
30262SOL    HW197644  10.296   0.766   1.613 -0.2897 -1.8446 -2.6733
30262SOL    HW297645  10.257   0.896   1.547  0.5206 -1.0654 -1.6582
30263SOL     OW97646   1.697   4.412   9.662 -0.2823  0.2392 -0.4372
30263SOL    HW197647   1.766   4.385   9.601 -0.4558  1.2954 -1.1281
30263SOL    HW297648   1.745   4.441   9.740  0.0664  0.8830 -0.8798
30264SOL     OW97649  10.551   2.295   9.847 -0.2114  0.2919  0.0411
30264SOL    HW197650  10.545   2.332   9.759 -0.1898 -1.1445 -0.5908
30264SOL    HW297651  10.516   2.207   9.838 -0.1515  0.1024  1.4742
30265SOL     OW97652   5.785  12.152  10.785  0.0720  0.2657  0.0588
30265SOL    HW197653   5.717  12.155  10.853  0.3173  1.4995  0.2700
30265SOL    HW297654   5.862  12.190  10.826  0.2149  1.0718 -0.9170
30266SOL     OW97655   8.265   6.253   4.448  0.0936 -0.4481 -0.1593
30266SOL    HW197656   8.307   6.339   4.454  0.3314 -0.5975  0.3319
30266SOL    HW297657   8.225   6.239   4.533 -2.4759  0.4381 -1.1348
30267SOL     OW97658  12.063  10.010   7.845  0.4003 -0.0325  0.3328
30267SOL    HW197659  12.093  10.003   7.936  0.5269 -2.0148  0.1846
30267SOL    HW297660  11.967  10.014   7.852  0.4230  0.1720  0.5560
30268SOL     OW97661   4.213   9.135   6.802 -0.1113 -0.1094  0.0751
30268SOL    HW197662   4.216   9.078   6.879  0.0341 -0.6543 -0.3276
30268SOL    HW297663   4.188   9.221   6.837 -0.8264 -0.5315  0.6245
30269SOL     OW97664   2.963   3.431  11.535 -0.7213  0.2083 -0.0886
30269SOL    HW197665   2.893   3.472  11.585 -0.7732 -1.7140  1.5285
30269SOL    HW297666   2.926   3.349  11.503  0.4091 -0.2530 -0.2667
30270SOL     OW97667   9.301   2.371   6.024  0.2924  0.3429  0.9139
30270SOL    HW197668   9.368   2.440   6.030  0.0404  0.8104 -0.8997
30270SOL    HW297669   9.350   2.289   6.031  1.0330  0.6814 -0.0605
30271SOL     OW97670   8.542   8.124   1.335  0.1025 -0.3789 -0.4065
30271SOL    HW197671   8.568   8.123   1.243 -1.5459  0.9162 -0.9336
30271SOL    HW297672   8.452   8.157   1.334  0.9196  2.2198  1.8450
30272SOL     OW97673   7.015  11.470   3.879  0.8895 -0.2145  0.6189
30272SOL    HW197674   7.032  11.503   3.967 -2.8542 -1.6604  2.1005
30272SOL    HW297675   6.951  11.530   3.843  0.9976 -0.6803 -0.3739
30273SOL     OW97676   9.419   6.385   2.507 -0.2336  1.0488  0.2830
30273SOL    HW197677   9.457   6.300   2.485  0.7385  0.7970  2.5932
30273SOL    HW297678   9.331   6.383   2.470 -1.1844 -2.0441  2.3978
30274SOL     OW97679   9.162   9.324   3.378  0.0565 -0.3096  0.4433
30274SOL    HW197680   9.197   9.311   3.289  0.7943 -0.0913  0.6949
30274SOL    HW297681   9.163   9.237   3.417  1.9001 -0.0798  1.0067
30275SOL     OW97682   8.219   1.769   0.262  0.2181  0.4996 -0.5818
30275SOL    HW197683   8.190   1.855   0.230 -0.1717  0.2438 -0.9249
30275SOL    HW297684   8.230   1.717   0.182  1.6267  0.5875 -0.4642
30276SOL     OW97685   3.490   7.170   7.322  0.6118  0.7321  0.0168
30276SOL    HW197686   3.492   7.106   7.392  0.2867 -1.3745 -1.8014
30276SOL    HW297687   3.582   7.186   7.301  0.7147 -1.1169 -1.1568
30277SOL     OW97688   5.748   9.412   3.979  0.7513  0.8721 -0.0935
30277SOL    HW197689   5.655   9.388   3.976  0.5493  1.1820  2.2844
30277SOL    HW297690   5.791   9.345   3.926 -0.7719  0.5411 -0.9841
30278SOL     OW97691   0.134   4.267   6.201  0.5389  0.1488  0.3421
30278SOL    HW197692   0.212   4.240   6.249 -0.1532 -2.4279  0.1721
30278SOL    HW297693   0.073   4.194   6.212 -0.5085  0.4581 -2.5361
30279SOL     OW97694  10.435   4.094   5.214 -0.1022 -0.5688 -0.3933
30279SOL    HW197695  10.513   4.063   5.168 -1.2643 -3.2430 -0.7582
30279SOL    HW297696  10.365   4.086   5.149 -0.9769  0.1393  0.4438
30280SOL     OW97697   5.150   3.941   8.107 -0.1180  0.0605  0.0699
30280SOL    HW197698   5.219   3.880   8.082 -1.2427  0.0157 -3.4329
30280SOL    HW297699   5.069   3.891   8.099 -0.8533  1.2054  0.1477
30281SOL     OW97700   8.396  11.210   8.796  0.1226  0.0645  0.1643
30281SOL    HW197701   8.311  11.171   8.774 -1.0922  1.7068  1.6764
30281SOL    HW297702   8.434  11.233   8.711 -0.6738 -1.1783 -0.5710
30282SOL     OW97703   8.705   3.778   5.626  0.0860  0.6551 -0.0441
30282SOL    HW197704   8.721   3.716   5.697 -2.2088 -0.5708 -0.4974
30282SOL    HW297705   8.668   3.725   5.556  1.1835  2.0374 -1.7345
30283SOL     OW97706   9.841   4.836   1.980  0.2799 -0.2014 -0.1481
30283SOL    HW197707   9.856   4.752   2.023 -1.5772  0.1847  1.3752
30283SOL    HW297708   9.773   4.817   1.915  0.3086 -0.0067 -0.2337
30284SOL     OW97709   3.196  10.263   1.466 -0.3546 -0.6370  0.0402
30284SOL    HW197710   3.184  10.354   1.493 -3.2513 -0.6933 -0.7305
30284SOL    HW297711   3.189  10.213   1.547  2.3896 -0.2142  0.6495
30285SOL     OW97712   0.109   5.199   5.551  0.1338  0.5184  0.0205
30285SOL    HW197713   0.196   5.228   5.525  0.5714  1.3712  2.2128
30285SOL    HW297714   0.119   5.169   5.641 -1.7248  0.0368  0.1214
30286SOL     OW97715  12.059   2.665   9.084  0.0049 -0.3572  0.3390
30286SOL    HW197716  12.014   2.670   9.168 -1.3067 -0.9423 -0.2934
30286SOL    HW297717  12.051   2.753   9.047  1.2330  0.1083  1.1165
30287SOL     OW97718   9.911  11.581   4.876 -0.4728  0.0197 -0.5255
30287SOL    HW197719   9.859  11.524   4.819 -0.4551  0.4749 -0.9990
30287SOL    HW297720   9.846  11.621   4.934 -0.5019 -0.3578 -0.2867
30288SOL     OW97721   5.040  10.884   2.333  0.1284 -0.0471 -0.4869
30288SOL    HW197722   4.967  10.886   2.271 -1.5978  0.6871  1.4568
30288SOL    HW297723   5.030  10.964   2.385  1.3371 -0.7560  0.9048
30289SOL     OW97724  12.576   6.827   4.681 -0.0750 -0.2758  0.1437
30289SOL    HW197725  12.580   6.743   4.635  0.4281  0.0443 -0.4229
30289SOL    HW297726  12.563   6.891   4.611 -0.9333  0.0718  0.6194
30290SOL     OW97727   2.242   5.555  12.252 -0.4015  0.3028  0.0909
30290SOL    HW197728   2.200   5.640  12.260 -1.3658 -0.3003  2.2691
30290SOL    HW297729   2.268   5.549  12.160 -1.2298  2.4938 -0.3420
30291SOL     OW97730   3.966  11.876   1.086 -0.4046 -0.1559  0.2465
30291SOL    HW197731   3.875  11.890   1.058 -0.9597 -1.1264  1.4844
30291SOL    HW297732   3.978  11.934   1.160 -0.5360 -1.1580  1.0735
30292SOL     OW97733   4.280  10.181   0.598 -0.0618  0.5679  0.2520
30292SOL    HW197734   4.348  10.125   0.634 -1.3996 -0.6456  0.9959
30292SOL    HW297735   4.237  10.219   0.675 -0.9388  0.4230 -0.1551
30293SOL     OW97736   1.611   8.842   8.125  0.1074  0.1450 -0.3066
30293SOL    HW197737   1.692   8.893   8.135 -0.0642  0.3290  0.2223
30293SOL    HW297738   1.620   8.770   8.187  0.4187 -0.5744 -1.1705
30294SOL     OW97739   8.687   4.723   2.220  0.4172  0.2175  0.3239
30294SOL    HW197740   8.771   4.750   2.183  0.6853  0.3013  0.9669
30294SOL    HW297741   8.648   4.805   2.253 -1.0564  0.5896 -2.1350
30295SOL     OW97742   5.378   7.815   6.027 -0.7419 -0.1317 -0.2441
30295SOL    HW197743   5.358   7.904   5.997  1.5810  0.3803 -0.4884
30295SOL    HW297744   5.458   7.792   5.980 -0.2481 -1.6230  1.2475
30296SOL     OW97745   7.134   1.698   4.642 -0.0195 -0.3528  0.1603
30296SOL    HW197746   7.114   1.707   4.549  1.0574  0.9671  0.0119
30296SOL    HW297747   7.185   1.618   4.648 -0.3686 -0.6197 -0.3353
30297SOL     OW97748  11.474   1.719   9.093 -0.0966 -1.1055 -0.0272
30297SOL    HW197749  11.457   1.811   9.110  2.7806 -0.2306 -1.2721
30297SOL    HW297750  11.477   1.678   9.180 -0.3141  0.1899  0.6039
30298SOL     OW97751   0.441   8.916  10.250 -0.4476 -0.2450 -0.1614
30298SOL    HW197752   0.415   8.829  10.218 -0.7050 -0.7608  1.3738
30298SOL    HW297753   0.395   8.926  10.333  1.8698  0.0793  1.1688
30299SOL     OW97754  10.835   4.374  11.404  0.0642 -0.0411  0.1935
30299SOL    HW197755  10.837   4.470  11.400 -1.3996  0.0002 -0.2608
30299SOL    HW297756  10.925   4.349  11.421  0.6553  1.3823 -0.6545
30300SOL     OW97757  11.671   0.157   6.205  0.0976  0.7641  0.3932
30300SOL    HW197758  11.599   0.171   6.266 -0.2869 -2.1016  0.7404
30300SOL    HW297759  11.627   0.148   6.120  0.2056  0.6476  0.3503
30301SOL     OW97760   0.286   9.003   0.612  0.1435 -0.1103 -0.1935
30301SOL    HW197761   0.218   9.002   0.544 -0.6838  0.9448  0.5827
30301SOL    HW297762   0.362   8.963   0.570  0.1100  1.7450 -2.2320
30302SOL     OW97763   1.571   0.873  10.929  0.8527  0.1237 -0.0782
30302SOL    HW197764   1.601   0.851  11.017  3.0720  0.1720 -0.7716
30302SOL    HW297765   1.481   0.840  10.926  0.8001 -0.1104  2.0960
30303SOL     OW97766   7.707   9.378   2.513  0.5291  0.0136  0.6466
30303SOL    HW197767   7.650   9.385   2.436  0.9574 -1.6944  0.1473
30303SOL    HW297768   7.722   9.469   2.539 -3.6048  0.6082  1.7329
30304SOL     OW97769   5.874   3.506   3.154  0.3212  0.4443 -0.2734
30304SOL    HW197770   5.811   3.435   3.140  0.1444 -0.3236  3.3855
30304SOL    HW297771   5.939   3.469   3.213  0.9673  2.9163  0.6855
30305SOL     OW97772   1.458  11.225   2.053 -0.2990 -0.2987  0.3435
30305SOL    HW197773   1.489  11.261   1.970  1.5683 -3.0043 -0.2786
30305SOL    HW297774   1.385  11.167   2.029 -0.9369  0.2945  0.8373
30306SOL     OW97775   6.511   9.440   6.454 -0.5917  0.3448  0.1365
30306SOL    HW197776   6.566   9.505   6.409  0.2210 -0.5784 -0.2539
30306SOL    HW297777   6.493   9.479   6.539  0.8651  0.6038  0.3550
30307SOL     OW97778   2.247  11.371   1.126 -0.3676  0.1240  0.1821
30307SOL    HW197779   2.209  11.284   1.119 -1.8722  0.8239 -1.1032
30307SOL    HW297780   2.171  11.430   1.132  0.6203  1.2861  2.2208
30308SOL     OW97781   0.867   2.480  10.300  0.1665  0.0964 -0.2082
30308SOL    HW197782   0.944   2.516  10.255  1.6849 -0.1150  2.0299
30308SOL    HW297783   0.861   2.530  10.381 -1.3100 -0.7362  0.2323
30309SOL     OW97784   9.291   4.192  10.680 -0.2122 -0.2462 -0.3095
30309SOL    HW197785   9.319   4.231  10.597  0.3664 -0.3416 -0.1630
30309SOL    HW297786   9.212   4.241  10.705  0.3642  0.6629 -0.2485
30310SOL     OW97787   4.291   6.666   7.853 -0.2491 -0.2655  0.2481
30310SOL    HW197788   4.317   6.738   7.794  0.6797 -0.3481  0.5501
30310SOL    HW297789   4.263   6.596   7.794  1.3466 -0.6086 -0.1518
30311SOL     OW97790   4.303  12.456   6.242 -0.3204  0.0936 -0.0979
30311SOL    HW197791   4.208  12.451   6.228 -0.0086 -1.0479 -2.2627
30311SOL    HW297792   4.336  12.500   6.164  1.1551 -1.8243 -0.6149
30312SOL     OW97793   8.793   9.801  10.132  0.3456 -0.1372  0.0057
30312SOL    HW197794   8.810   9.707  10.135  0.7022 -0.0699  0.4018
30312SOL    HW297795   8.745   9.815  10.051  2.2573 -0.3547 -1.2282
30313SOL     OW97796   4.502   7.075  11.056 -0.0752  0.1098 -0.2563
30313SOL    HW197797   4.418   7.035  11.035  0.2556 -0.1273 -1.2293
30313SOL    HW297798   4.566   7.006  11.037  0.3198  0.1943  0.7389
30314SOL     OW97799   1.281  12.487   2.940  0.2046  0.2426  0.1429
30314SOL    HW197800   1.212  12.470   3.004 -0.4331 -1.0212 -0.8340
30314SOL    HW297801   1.349  12.423   2.960  0.3171  0.3113 -0.0132
30315SOL     OW97802   2.627   3.113   9.637  0.0546 -0.3956 -0.6179
30315SOL    HW197803   2.570   3.036   9.635 -2.1163  1.0220  0.9126
30315SOL    HW297804   2.683   3.105   9.560 -2.6160 -1.6739 -2.5687
30316SOL     OW97805   4.570   5.934   0.362 -0.4847  0.4738  0.2060
30316SOL    HW197806   4.498   5.871   0.367  0.7632 -0.9033  2.0731
30316SOL    HW297807   4.536   6.012   0.407 -1.1030  0.1490  0.3130
30317SOL     OW97808  10.419   6.480   7.423  0.2191 -0.2703 -0.1404
30317SOL    HW197809  10.405   6.565   7.380 -0.5263  0.4247  1.3958
30317SOL    HW297810  10.415   6.500   7.516 -0.2639 -2.0539  0.2494
30318SOL     OW97811   9.901   2.861   5.095 -0.5965  0.0558 -0.3370
30318SOL    HW197812   9.955   2.940   5.092  0.0864 -0.3483  0.8962
30318SOL    HW297813   9.832   2.877   5.030  1.4018  0.2591 -2.5610
30319SOL     OW97814   8.005   2.845  12.351 -0.1470 -0.3198  0.0822
30319SOL    HW197815   8.038   2.756  12.367 -1.6322 -0.8392  0.3667
30319SOL    HW297816   8.078   2.902  12.376  0.1065 -1.3800  1.9431
30320SOL     OW97817   1.381   8.554  11.371 -0.5492 -0.3387  0.0529
30320SOL    HW197818   1.358   8.628  11.314  1.7204  1.6267  1.5297
30320SOL    HW297819   1.476   8.547  11.364 -0.7263 -3.9314 -0.8493
30321SOL     OW97820  11.078   7.155   3.804 -0.5159 -0.1114  0.0693
30321SOL    HW197821  11.026   7.111   3.737 -0.5719 -0.6965  0.4842
30321SOL    HW297822  11.020   7.163   3.879 -0.3902  0.3590  0.1225
30322SOL     OW97823   7.054   7.167   2.937 -0.4641  0.1750  0.7006
30322SOL    HW197824   7.022   7.231   3.000 -1.9489  0.9966 -0.8156
30322SOL    HW297825   7.149   7.179   2.937 -0.5437  0.9783  1.8920
30323SOL     OW97826   8.136  11.624  10.393 -0.0670 -0.0328 -0.2438
30323SOL    HW197827   8.149  11.714  10.361  2.6506 -0.6068 -0.9710
30323SOL    HW297828   8.185  11.570  10.332 -0.9985 -1.9775  0.6512
30324SOL     OW97829   5.420   6.259   6.901 -0.1705 -0.5536  0.3784
30324SOL    HW197830   5.483   6.258   6.974 -0.0467 -2.5329  0.2984
30324SOL    HW297831   5.461   6.205   6.834 -0.9557  0.0447 -0.6075
30325SOL     OW97832   8.235   5.503  11.821 -0.4821  0.0922 -0.1438
30325SOL    HW197833   8.317   5.541  11.787 -0.5715  1.1028  0.7392
30325SOL    HW297834   8.172   5.575  11.818 -0.5290  0.1851  2.0197
30326SOL     OW97835   1.543   2.269   7.370 -1.2838 -0.1946  0.0484
30326SOL    HW197836   1.619   2.222   7.336 -1.5664 -0.6821  0.0853
30326SOL    HW297837   1.568   2.361   7.366 -0.4963 -0.3822  0.5222
30327SOL     OW97838   8.038   2.466   0.539 -0.7362 -0.1685 -0.4701
30327SOL    HW197839   8.004   2.405   0.604 -2.8921 -0.3939 -1.7165
30327SOL    HW297840   7.982   2.544   0.548  1.6082  1.4893  0.7224
30328SOL     OW97841   9.690   6.957   9.303  0.0295  0.8046 -0.2445
30328SOL    HW197842   9.595   6.968   9.298 -0.0483  0.1707 -0.2049
30328SOL    HW297843   9.722   6.984   9.217 -0.2405  0.4729 -0.4495
30329SOL     OW97844   1.126   7.999   9.490  0.2221  0.2527  0.2921
30329SOL    HW197845   1.178   7.936   9.540  1.7045  0.8149 -0.4600
30329SOL    HW297846   1.142   8.083   9.533  0.5065  0.5359 -0.3388
30330SOL     OW97847  11.556   4.050   5.079  0.2095 -0.4484 -0.0477
30330SOL    HW197848  11.600   4.017   5.001  0.4156  1.1175 -0.6106
30330SOL    HW297849  11.468   4.073   5.050  0.2386  0.0105  0.2161
30331SOL     OW97850   1.585   7.184   7.248  0.2695 -0.0299  0.3953
30331SOL    HW197851   1.519   7.242   7.211 -1.4612 -0.8273  2.0516
30331SOL    HW297852   1.618   7.135   7.173 -1.1707  0.2753 -0.4832
30332SOL     OW97853   3.614  10.158  11.407 -0.0219  0.9937  0.0198
30332SOL    HW197854   3.595  10.237  11.356  0.9063  1.3148  0.1605
30332SOL    HW297855   3.668  10.188  11.480  2.8587 -0.1082 -1.4834
30333SOL     OW97856   1.913   9.965   8.667  0.2316 -0.0270 -0.1660
30333SOL    HW197857   1.876   9.877   8.668 -1.2338  0.5680  0.5044
30333SOL    HW297858   1.878  10.007   8.746 -0.4361  1.6828 -1.3154
30334SOL     OW97859   5.387   2.502   9.379 -0.0310  0.4048 -0.3100
30334SOL    HW197860   5.405   2.596   9.378  1.1982  0.1875 -0.1695
30334SOL    HW297861   5.401   2.476   9.470  1.0036 -0.1465 -0.6117
30335SOL     OW97862   3.352   9.612   8.385 -0.0199  0.3829 -0.4949
30335SOL    HW197863   3.347   9.695   8.337 -0.8344 -0.6806 -2.3518
30335SOL    HW297864   3.265   9.602   8.424  0.3431  0.7813  0.4461
30336SOL     OW97865   5.589   4.267  12.264  0.3025 -0.2541  0.1801
30336SOL    HW197866   5.544   4.211  12.328 -1.6464 -0.8320 -1.6003
30336SOL    HW297867   5.541   4.350  12.266  1.6050  0.5193  0.9772
30337SOL     OW97868   1.490   5.580   5.693  0.3765 -0.4908  0.6374
30337SOL    HW197869   1.466   5.660   5.647  0.1215 -0.0386  1.5292
30337SOL    HW297870   1.536   5.610   5.771  2.1779 -1.2838 -0.0501
30338SOL     OW97871   4.292  10.134   4.462  0.2135  0.8044 -0.4433
30338SOL    HW197872   4.212  10.185   4.474 -0.6631 -0.4923 -0.6031
30338SOL    HW297873   4.360  10.200   4.450 -0.9711  1.9293 -1.2553
30339SOL     OW97874   1.325   7.202   9.755  0.2818 -0.3180  0.3859
30339SOL    HW197875   1.413   7.166   9.741 -0.0205 -0.7097 -0.6686
30339SOL    HW297876   1.281   7.189   9.671 -1.4052 -1.8794  1.4408
30340SOL     OW97877   3.255  10.254  10.659  0.2668  0.1276  0.3032
30340SOL    HW197878   3.295  10.288  10.738  0.0038  1.2917 -0.0447
30340SOL    HW297879   3.163  10.239  10.683  0.3725 -0.3017  0.4437
30341SOL     OW97880   9.791   4.866   3.721  0.1233 -0.1374  0.2891
30341SOL    HW197881   9.802   4.960   3.702  1.3275  0.0699  1.7970
30341SOL    HW297882   9.780   4.826   3.635  1.3852  1.1866 -0.5538
30342SOL     OW97883   1.329   1.670   8.036  0.0392  0.3210 -0.0460
30342SOL    HW197884   1.369   1.596   7.991  0.5586  0.2580  0.5150
30342SOL    HW297885   1.311   1.733   7.966  0.3982  0.0298 -0.4092
30343SOL     OW97886   1.966   4.314  11.805 -0.2745 -0.6758  0.6189
30343SOL    HW197887   2.012   4.395  11.783  1.0922 -0.6010  3.3441
30343SOL    HW297888   2.023   4.245  11.772 -1.0841 -0.5924 -1.0551
30344SOL     OW97889   6.108  12.273   5.491  0.2069 -0.6301 -0.2877
30344SOL    HW197890   6.070  12.187   5.511 -1.9675  0.4144  0.3823
30344SOL    HW297891   6.115  12.317   5.576 -2.4727  1.2536 -0.9227
30345SOL     OW97892   7.809   2.162   9.892  0.4020  0.5747 -0.3828
30345SOL    HW197893   7.859   2.207   9.824 -1.1367  0.7347 -1.4834
30345SOL    HW297894   7.755   2.230   9.931 -1.4716 -0.1246 -1.6145
30346SOL     OW97895  10.223   4.051   9.921  0.6471 -0.4717 -0.2848
30346SOL    HW197896  10.129   4.058   9.904  0.7340 -1.6323 -1.2979
30346SOL    HW297897  10.264   4.094   9.847  0.9508 -2.5448 -1.3812
30347SOL     OW97898   4.248   9.767   6.427 -0.4731  0.3436 -0.4240
30347SOL    HW197899   4.340   9.782   6.452  0.0933 -2.2924 -0.6257
30347SOL    HW297900   4.221   9.849   6.386  1.7464  1.2558 -0.2414
30348SOL     OW97901  11.633   1.471   1.110 -0.3864 -0.1824  0.2293
30348SOL    HW197902  11.601   1.381   1.099 -1.5404  0.1332  0.8089
30348SOL    HW297903  11.651   1.502   1.021  0.4217 -1.1218  0.0552
30349SOL     OW97904   1.036   2.180  10.228 -0.0722 -0.2436 -0.0722
30349SOL    HW197905   0.963   2.231  10.263 -0.9595 -0.8026 -1.0545
30349SOL    HW297906   1.108   2.195  10.290 -1.1892 -0.1821  1.2548
30350SOL     OW97907   0.875   2.200  12.509 -0.2345  0.6865 -0.3292
30350SOL    HW197908   0.926   2.120  12.496 -3.4459 -1.7520  0.6459
30350SOL    HW297909   0.865   2.208  12.604 -0.2283  2.1253 -0.4198
30351SOL     OW97910   1.365   5.414   3.116 -0.0396 -0.2298 -0.6575
30351SOL    HW197911   1.460   5.426   3.106  0.2502 -1.4892  0.2527
30351SOL    HW297912   1.337   5.488   3.169  0.4460  0.1341 -0.8991
30352SOL     OW97913   0.906   0.721  10.267 -0.3060 -0.3319 -0.5886
30352SOL    HW197914   0.821   0.729  10.310 -0.6779 -2.7706 -0.6886
30352SOL    HW297915   0.969   0.753  10.331 -1.0976 -1.1870  0.6763
30353SOL     OW97916   4.298   6.640   0.722 -0.0857  0.2743  0.5522
30353SOL    HW197917   4.320   6.708   0.786 -1.0320  0.6826  0.4546
30353SOL    HW297918   4.204   6.628   0.731 -0.1582  0.0326 -0.4730
30354SOL     OW97919   2.204   3.841   9.703 -0.2342 -0.6793  0.5590
30354SOL    HW197920   2.112   3.860   9.683  0.2201  0.2787 -0.7848
30354SOL    HW297921   2.206   3.747   9.721 -1.4714 -0.7219  0.5732
30355SOL     OW97922  11.336   2.901   2.358  0.2244 -1.1599  0.0479
30355SOL    HW197923  11.367   2.991   2.354 -0.2570 -0.8710  1.8728
30355SOL    HW297924  11.315   2.878   2.267  2.6662 -0.3070 -0.8044
30356SOL     OW97925   5.763   3.375   2.809 -0.6600  0.1782 -0.1879
30356SOL    HW197926   5.728   3.394   2.896 -0.0683 -2.2857  0.6781
30356SOL    HW297927   5.797   3.286   2.816  3.0273  1.2767 -1.8227
30357SOL     OW97928   3.431   5.437  10.734 -0.5492 -0.0298 -0.0643
30357SOL    HW197929   3.501   5.502  10.730 -1.2230  0.6512 -1.8781
30357SOL    HW297930   3.452   5.375  10.664 -0.6093 -1.0620  0.8080
30358SOL     OW97931   9.195   9.234   7.975 -0.3501 -0.2556 -0.9123
30358SOL    HW197932   9.219   9.146   8.002  2.9922  0.8624  0.3150
30358SOL    HW297933   9.232   9.244   7.888 -1.2632 -0.2443 -1.3063
30359SOL     OW97934   8.912   6.992   3.597  0.3309  0.6157 -0.1238
30359SOL    HW197935   8.906   6.919   3.535 -1.3528  0.6033  0.0074
30359SOL    HW297936   8.957   6.955   3.673 -1.5471 -0.7080  0.4330
30360SOL     OW97937   5.112   5.870   9.243 -0.3280 -0.7482  0.0209
30360SOL    HW197938   5.137   5.926   9.316 -0.1242  0.7070 -1.1226
30360SOL    HW297939   5.145   5.783   9.266  1.5766  0.1156  0.7007
30361SOL     OW97940  11.477   3.205   4.825 -0.6105  0.5425 -0.4811
30361SOL    HW197941  11.506   3.243   4.742  3.4020 -0.0634  0.4543
30361SOL    HW297942  11.449   3.281   4.877  1.1374  1.5002 -0.8659
30362SOL     OW97943   5.695   3.407   2.184 -0.0463 -0.4018 -0.0858
30362SOL    HW197944   5.763   3.341   2.197  2.4546  2.0438  0.3326
30362SOL    HW297945   5.683   3.410   2.089  1.6370  0.1380 -0.3234
30363SOL     OW97946   3.916   9.937   5.179 -0.0348 -0.0560 -0.2096
30363SOL    HW197947   3.826   9.962   5.160 -0.2146  0.1887  0.9301
30363SOL    HW297948   3.926   9.850   5.139 -0.2833  0.5524 -1.6821
30364SOL     OW97949   6.170   4.108   0.730 -0.0847  0.6010 -0.0227
30364SOL    HW197950   6.160   4.080   0.639  0.4754 -0.0020  0.0975
30364SOL    HW297951   6.082   4.101   0.767 -0.1525  0.0342 -0.2865
30365SOL     OW97952   1.240   7.277  11.530  0.4362 -0.0271  0.4312
30365SOL    HW197953   1.184   7.215  11.483 -0.4938  0.9070  0.2747
30365SOL    HW297954   1.185   7.309  11.601  0.5976  1.2639 -0.0088
30366SOL     OW97955  12.491   8.827   2.612 -1.0681 -0.4403  0.3250
30366SOL    HW197956  12.403   8.810   2.646 -1.2519 -0.8154 -0.3065
30366SOL    HW297957  12.475   8.859   2.523 -0.6191  0.7685  0.6550
30367SOL     OW97958   7.341  10.676   1.037  0.2065 -0.2707  0.0264
30367SOL    HW197959   7.322  10.595   1.085  0.2666 -1.4796 -1.8971
30367SOL    HW297960   7.355  10.648   0.947 -1.5989  2.0892 -1.0954
30368SOL     OW97961   3.343   5.084   9.162 -0.0020 -0.1020 -0.4842
30368SOL    HW197962   3.344   5.120   9.073 -0.5512  0.7241 -0.1726
30368SOL    HW297963   3.266   5.027   9.164  0.8223 -1.2561 -0.9543
30369SOL     OW97964   9.483  12.254  10.026  0.1423 -0.2121  0.3756
30369SOL    HW197965   9.407  12.252  10.084  0.2155  0.8286  0.5229
30369SOL    HW297966   9.467  12.185   9.962 -1.2372  0.4163  0.0157
30370SOL     OW97967   8.788  10.272   9.207  0.5475 -0.5843  0.6521
30370SOL    HW197968   8.720  10.206   9.196  0.8222 -0.6971 -0.5333
30370SOL    HW297969   8.794  10.285   9.302 -1.5800 -0.0758  0.7719
30371SOL     OW97970   9.686   1.229  11.666  0.0871 -0.6268  0.0674
30371SOL    HW197971   9.681   1.172  11.742 -0.9039 -0.3653  0.2114
30371SOL    HW297972   9.762   1.284  11.682  1.1215 -1.9452 -0.1191
30372SOL     OW97973   5.198   8.893   7.381 -0.6642 -0.8080 -0.8486
30372SOL    HW197974   5.127   8.830   7.395 -0.9960 -0.4562 -0.9377
30372SOL    HW297975   5.161   8.977   7.409 -0.5103 -0.5084 -1.5290
30373SOL     OW97976   3.288  11.265   3.504 -0.0960 -0.0926 -0.1387
30373SOL    HW197977   3.201  11.252   3.542 -1.3309  0.5156 -2.5521
30373SOL    HW297978   3.330  11.180   3.512 -1.2532 -0.6507  0.2872
30374SOL     OW97979  10.275   6.927   1.830  0.0993  0.4023  0.1103
30374SOL    HW197980  10.273   6.852   1.889  0.0179  0.8847  0.7265
30374SOL    HW297981  10.368   6.949   1.823  0.0208  0.9764  0.8663
30375SOL     OW97982   4.199   1.435   2.747 -0.0800  0.3175 -0.5018
30375SOL    HW197983   4.203   1.530   2.736 -0.6368  0.2873 -1.0403
30375SOL    HW297984   4.114   1.419   2.790  0.5830  0.1542  0.8018
30376SOL     OW97985   8.651  11.148   8.204  0.1099 -0.0359  0.1005
30376SOL    HW197986   8.725  11.209   8.209 -0.6283  1.1632 -2.3311
30376SOL    HW297987   8.576  11.203   8.184 -0.7738 -1.6260 -1.2065
30377SOL     OW97988   3.850  12.071   3.214 -0.0197  0.6234  0.3271
30377SOL    HW197989   3.907  12.018   3.157  1.0935  0.6719  1.3482
30377SOL    HW297990   3.809  12.007   3.273 -0.9037  0.6093 -0.2878
30378SOL     OW97991   9.570   0.857   5.475  0.3096  0.0623  0.2296
30378SOL    HW197992   9.486   0.812   5.464  0.2273  0.2013  0.2904
30378SOL    HW297993   9.605   0.821   5.557  0.0377  0.4303  0.5168
30379SOL     OW97994   7.124   9.889   1.913 -0.1895  0.1275 -0.0281
30379SOL    HW197995   7.056   9.952   1.889 -0.6977 -1.2280 -2.4756
30379SOL    HW297996   7.205   9.940   1.914 -0.8719  1.2428  0.3107
30380SOL     OW97997   3.588   7.870   5.571  1.0504 -0.0906 -0.5080
30380SOL    HW197998   3.628   7.846   5.487 -1.2877 -1.7851 -1.2612
30380SOL    HW297999   3.518   7.931   5.547  2.1982  1.7170  0.5939
30381SOL     OW98000   5.620   3.485  11.949 -0.1860  0.2776 -0.2489
30381SOL    HW198001   5.640   3.570  11.910  0.2860 -0.2611 -1.2135
30381SOL    HW298002   5.598   3.429  11.874  0.9364 -0.8337  0.2205
30382SOL     OW98003   0.716   3.971  10.032 -0.1990 -0.1132 -0.6488
30382SOL    HW198004   0.795   4.010  10.068 -0.9670  1.7634 -0.9086
30382SOL    HW298005   0.679   4.038   9.975 -1.4794 -1.3009 -1.2957
30383SOL     OW98006   2.805   2.338  10.384 -0.1673  0.2611 -0.3509
30383SOL    HW198007   2.886   2.287  10.381  0.6255  1.4817 -1.8993
30383SOL    HW298008   2.830   2.423  10.348 -2.1038  0.7427 -0.6726
30384SOL     OW98009   6.558  12.470   5.908  0.0615  0.4439 -0.2821
30384SOL    HW198010   6.541  12.513   5.992 -1.0970 -1.2930  0.4162
30384SOL    HW298011   6.471  12.449   5.875  0.3781  2.5567 -2.7825
30385SOL     OW98012   6.637   0.131   2.195  0.6712  0.6141 -0.0412
30385SOL    HW198013   6.690   0.113   2.273 -2.5049 -2.1513  1.7769
30385SOL    HW298014   6.665   0.065   2.132  0.4858  0.1407  0.3579
30386SOL     OW98015  11.094  10.532   8.361  0.5943 -0.2370 -0.0444
30386SOL    HW198016  11.093  10.626   8.380 -1.7026 -0.3024  0.3893
30386SOL    HW298017  11.106  10.491   8.447 -2.1119 -0.3551  0.3680
30387SOL     OW98018  11.003   6.311   4.345 -0.0953 -0.0435 -0.6285
30387SOL    HW198019  10.963   6.281   4.427  1.2224  3.0215  1.3174
30387SOL    HW298020  11.085   6.263   4.340 -0.0131  0.0000  0.0819
30388SOL     OW98021   8.533   7.017   2.040 -0.3976  0.0471 -0.1754
30388SOL    HW198022   8.467   7.047   2.103  0.5841 -0.8563  1.3419
30388SOL    HW298023   8.499   6.933   2.009 -1.0391  0.6439 -1.1235
30389SOL     OW98024   1.742   2.150  11.771  0.2841 -0.0523 -0.8386
30389SOL    HW198025   1.718   2.085  11.837  0.7558 -0.1193 -0.7234
30389SOL    HW298026   1.837   2.139  11.760  0.0762 -0.6977 -2.2353
30390SOL     OW98027   0.993   1.868   5.821 -0.0158 -0.4218 -0.1218
30390SOL    HW198028   1.003   1.827   5.736 -2.7212 -0.7142 -0.3940
30390SOL    HW298029   1.021   1.959   5.808 -2.3738  0.1292 -1.9783
30391SOL     OW98030   8.435  12.300  11.663  0.1746 -0.1541  0.1774
30391SOL    HW198031   8.400  12.328  11.578 -0.1205  0.6266  0.5477
30391SOL    HW298032   8.366  12.323  11.725  1.1867  1.0902  0.8827
30392SOL     OW98033  11.272   7.081   9.991  0.2612  0.5207 -0.1407
30392SOL    HW198034  11.245   7.157   9.941 -0.4077 -0.7096 -1.7299
30392SOL    HW298035  11.366   7.094  10.004 -0.0451  2.1680  0.6621
30393SOL     OW98036   4.239  10.072   8.083  0.4837  0.0772  0.0184
30393SOL    HW198037   4.259  10.023   8.003  0.4226  0.7288 -0.4053
30393SOL    HW298038   4.189  10.011   8.137  4.2296 -1.9888  1.5101
30394SOL     OW98039  10.028   3.077   4.996  0.3720 -0.5122 -0.1079
30394SOL    HW198040  10.109   3.111   5.033  0.3729 -1.4426  0.7940
30394SOL    HW298041  10.021   3.119   4.910  1.9282 -0.6036 -0.3096
30395SOL     OW98042  12.152   2.925   1.825 -0.4237 -0.5466 -0.1503
30395SOL    HW198043  12.127   2.972   1.905 -0.2825  3.1626 -2.0460
30395SOL    HW298044  12.247   2.930   1.823 -0.4836  0.5013 -1.1016
30396SOL     OW98045   8.598   5.740   6.841 -0.3963  0.0259  0.2276
30396SOL    HW198046   8.666   5.791   6.885 -0.8678  1.2626 -0.4174
30396SOL    HW298047   8.533   5.723   6.910 -0.5995  0.9810  0.2880
30397SOL     OW98048   0.973   0.888   6.375 -0.1899 -0.4019  0.2265
30397SOL    HW198049   0.955   0.846   6.291 -0.2887  1.1059 -0.5288
30397SOL    HW298050   1.069   0.891   6.380 -0.0463 -3.2615  1.6422
30398SOL     OW98051   0.257   1.690   6.442 -0.1854  0.1744 -0.1640
30398SOL    HW198052   0.251   1.758   6.508  0.8394 -1.0583  1.2543
30398SOL    HW298053   0.294   1.734   6.365 -2.2471  1.8265 -0.3030
30399SOL     OW98054   8.651   4.932  12.106  0.4288  0.0474 -0.0459
30399SOL    HW198055   8.592   4.924  12.182 -0.1554 -1.1203 -0.5951
30399SOL    HW298056   8.594   4.964  12.036  0.8036  0.3915 -0.1959
30400SOL     OW98057   0.516   6.866   7.877 -0.7324 -0.1475 -0.1420
30400SOL    HW198058   0.534   6.935   7.813  1.5125  0.5301  1.0945
30400SOL    HW298059   0.504   6.787   7.825 -1.2434  0.7969 -1.4980
30401SOL     OW98060   1.132   7.216   7.771  0.3864  0.8548  0.1097
30401SOL    HW198061   1.152   7.132   7.814  0.5518  1.3379  0.9983
30401SOL    HW298062   1.071   7.193   7.701 -0.8685  0.1962  1.3772
30402SOL     OW98063   5.486   7.272   9.814  0.5930 -0.1325 -0.1469
30402SOL    HW198064   5.410   7.329   9.820  0.1972 -0.5744 -0.8990
30402SOL    HW298065   5.544   7.303   9.884  0.3495  1.1239 -0.4800
30403SOL     OW98066   7.052   1.933  12.385 -0.1675  0.2504  0.0122
30403SOL    HW198067   7.134   1.890  12.412  0.3189  1.5617  0.7417
30403SOL    HW298068   6.995   1.861  12.358  0.2064 -0.9633  2.2050
30404SOL     OW98069   0.268   4.216   5.535 -0.4922 -0.6961  0.4596
30404SOL    HW198070   0.226   4.302   5.539  0.4512 -0.2004  0.0769
30404SOL    HW298071   0.317   4.217   5.452  0.3410 -1.2088  0.9242
30405SOL     OW98072   5.139   1.471   0.502  0.2019 -0.7067  0.2568
30405SOL    HW198073   5.132   1.566   0.494 -0.4534 -0.9067 -1.9298
30405SOL    HW298074   5.218   1.458   0.555  0.9110  1.0239 -0.3018
30406SOL     OW98075   8.890  10.284   9.936 -0.8043 -0.3618  0.1230
30406SOL    HW198076   8.888  10.378   9.915 -1.1407 -0.5889 -0.8847
30406SOL    HW298077   8.835  10.277  10.015 -2.9878 -0.0542 -1.2926
30407SOL     OW98078   0.316   2.723   5.473  0.0931  0.3696 -0.1339
30407SOL    HW198079   0.311   2.815   5.497  3.0658  1.0363 -1.5229
30407SOL    HW298080   0.291   2.721   5.381 -0.0222 -0.2193 -0.0909
30408SOL     OW98081   9.743   7.471   6.999 -0.8505  0.2496 -1.2218
30408SOL    HW198082   9.778   7.475   7.088 -1.1242 -1.9651 -0.9525
30408SOL    HW298083   9.778   7.549   6.956  3.1297 -0.9199 -0.5310
30409SOL     OW98084   7.752   6.581   2.262  0.3893 -0.5910 -0.0887
30409SOL    HW198085   7.689   6.545   2.324 -0.7703 -2.3037 -2.1431
30409SOL    HW298086   7.724   6.672   2.250 -1.1000 -1.0388 -0.1967
30410SOL     OW98087   6.877  11.842  11.315 -0.5316 -0.2920  0.1261
30410SOL    HW198088   6.864  11.936  11.302 -0.9882 -0.3546  0.0995
30410SOL    HW298089   6.835  11.802  11.239 -1.0715 -0.5476  0.5492
30411SOL     OW98090   7.189   0.973   1.398  0.3158 -0.0278 -0.1639
30411SOL    HW198091   7.133   0.947   1.324 -1.5896 -1.6365  1.7142
30411SOL    HW298092   7.145   1.050   1.435  1.4672  1.0000 -0.8557
30412SOL     OW98093  11.535   7.040  11.845 -0.7327  0.0259 -0.4799
30412SOL    HW198094  11.453   7.005  11.812 -0.7207 -0.6470  0.1821
30412SOL    HW298095  11.591   7.047  11.768 -0.6796 -1.5658 -0.6222
30413SOL     OW98096   6.557   0.280   0.635  0.5977 -0.3877  0.4556
30413SOL    HW198097   6.470   0.274   0.676  1.1615 -0.1576  1.7430
30413SOL    HW298098   6.568   0.374   0.617  0.8185 -0.3400  0.8384
30414SOL     OW98099   3.364  10.425   1.199  0.0345  0.3120  0.1647
30414SOL    HW198100   3.276  10.457   1.183 -0.6314 -1.5141 -0.1075
30414SOL    HW298101   3.402  10.487   1.260 -0.8409  2.0445 -0.9847
30415SOL     OW98102   6.976   3.563   4.375 -0.5448  0.5198  1.1363
30415SOL    HW198103   7.007   3.495   4.316  0.7057  2.3215 -0.4408
30415SOL    HW298104   6.898   3.527   4.415  0.5202 -2.1339  1.0378
30416SOL     OW98105   7.238   0.912   4.712  0.3820  0.6741 -0.3975
30416SOL    HW198106   7.180   0.870   4.649 -0.0895  0.2305  0.3214
30416SOL    HW298107   7.196   0.898   4.797  1.2618  0.8166  0.0752
30417SOL     OW98108  10.073   3.546   4.981  0.0741  0.0806 -0.2455
30417SOL    HW198109  10.164   3.549   4.951 -0.1311  2.3471 -0.8058
30417SOL    HW298110  10.077   3.510   5.069  1.7699  1.8107  0.4453
30418SOL     OW98111   7.093   9.409   4.224  0.0688  0.8981  0.0400
30418SOL    HW198112   7.083   9.500   4.196 -0.2038  1.6877  2.5111
30418SOL    HW298113   7.005   9.373   4.221  0.0155  1.0279  0.0254
30419SOL     OW98114   7.337   4.244   6.778 -0.0021  0.0693  0.4742
30419SOL    HW198115   7.295   4.196   6.849 -0.8797  0.0933 -0.0038
30419SOL    HW298116   7.280   4.320   6.764  0.5423  0.4364  0.2186
30420SOL     OW98117  11.546   8.042   7.252  0.0299  0.2494 -0.0938
30420SOL    HW198118  11.492   8.055   7.174 -1.1818 -0.8202  0.5337
30420SOL    HW298119  11.555   7.947   7.261  1.1721  0.3811  0.4000
30421SOL     OW98120  11.552  12.464  10.603 -0.1556  0.1359  0.0332
30421SOL    HW198121  11.630  12.414  10.579  0.9643  1.9982 -0.3759
30421SOL    HW298122  11.550  12.461  10.699 -0.5226 -1.2415  0.0075
30422SOL     OW98123   1.603   5.047   8.229  0.2628  0.0337 -0.5697
30422SOL    HW198124   1.622   5.079   8.318 -0.8127  0.1582 -0.3810
30422SOL    HW298125   1.539   4.977   8.242 -1.2909  1.2543 -1.3674
30423SOL     OW98126   2.091   2.167   7.590 -0.1742  0.2042 -0.3587
30423SOL    HW198127   2.155   2.181   7.521  1.1938 -2.1458  0.2842
30423SOL    HW298128   2.051   2.082   7.568 -1.6911  0.7230  0.2899
30424SOL     OW98129   5.091   5.204  11.802 -0.3493  0.0359  0.0472
30424SOL    HW198130   5.091   5.181  11.894 -0.8358  1.6123  0.4673
30424SOL    HW298131   5.179   5.182  11.771 -0.9943 -3.1478  0.1321
30425SOL     OW98132   7.556   5.869   0.614  0.0558  0.3581 -0.0416
30425SOL    HW198133   7.643   5.840   0.641  0.3429  1.1189 -0.1071
30425SOL    HW298134   7.551   5.848   0.521  0.3890  0.7980 -0.1647
30426SOL     OW98135   1.333   9.358   4.998 -0.0911  0.1638 -0.5249
30426SOL    HW198136   1.259   9.309   4.961  0.1426 -0.6637  0.0691
30426SOL    HW298137   1.311   9.366   5.091  0.5548 -0.0668 -0.3498
30427SOL     OW98138  11.023   2.990   5.090 -0.6081  0.4636  0.1380
30427SOL    HW198139  10.954   3.003   5.154 -0.5951 -0.1584  0.2854
30427SOL    HW298140  10.979   2.954   5.013 -0.4914  0.3286  0.1333
30428SOL     OW98141  12.514  10.212   7.364  0.5723  0.2311  0.2569
30428SOL    HW198142  12.588  10.271   7.353  0.0926  0.6202 -1.1523
30428SOL    HW298143  12.481  10.230   7.452  1.3801  0.9322  0.4280
30429SOL     OW98144   7.774   3.284   4.966  0.5782 -0.5789 -0.0233
30429SOL    HW198145   7.839   3.256   4.901  1.7743 -0.6108  1.1411
30429SOL    HW298146   7.819   3.275   5.050 -0.6262  0.3127  0.7475
30430SOL     OW98147   7.865   7.705   2.483  0.1077 -0.4769  0.3161
30430SOL    HW198148   7.808   7.654   2.540 -0.5881 -0.6770 -0.5350
30430SOL    HW298149   7.807   7.768   2.441  0.4737 -0.7709 -0.6613
30431SOL     OW98150   4.705   4.945  11.833  0.0905 -0.1310  0.0034
30431SOL    HW198151   4.701   4.854  11.802 -0.4847  0.0790 -0.5464
30431SOL    HW298152   4.615   4.976  11.829  0.4566  0.8580 -1.0206
30432SOL     OW98153   3.343   6.573   9.787  0.3518  0.2858 -0.2192
30432SOL    HW198154   3.383   6.652   9.752  2.2338 -0.3871  0.3082
30432SOL    HW298155   3.338   6.514   9.711 -0.5953  0.7196 -0.5036
30433SOL     OW98156  12.238   0.909  11.867 -0.4383 -0.3415  0.0899
30433SOL    HW198157  12.265   1.001  11.866 -0.6843 -0.2562  0.7059
30433SOL    HW298158  12.294   0.868  11.933 -1.5225 -0.2442  1.0971
30434SOL     OW98159   6.895   1.727   2.129 -0.1837 -0.1993  0.4760
30434SOL    HW198160   6.851   1.785   2.067 -0.8534 -2.6541 -1.5409
30434SOL    HW298161   6.979   1.706   2.088 -0.0619 -0.8225  1.0172
30435SOL     OW98162   7.977  12.466   0.288  0.2449 -0.1761  0.3082
30435SOL    HW198163   8.069  12.488   0.303  0.1345 -0.7121  2.0092
30435SOL    HW298164   7.972  12.372   0.305 -0.2320 -0.6148 -1.9388
30436SOL     OW98165   1.864   3.322   6.212 -0.2385  0.4162 -0.3302
30436SOL    HW198166   1.930   3.362   6.156 -0.4578 -1.7988 -2.3455
30436SOL    HW298167   1.802   3.393   6.230  1.7831  2.1268  0.2708
30437SOL     OW98168   8.193   3.499   1.772 -0.0775  0.2661  0.0827
30437SOL    HW198169   8.190   3.583   1.818 -1.9327  0.4276 -0.2735
30437SOL    HW298170   8.103   3.467   1.775  0.3283 -1.0440 -1.0259
30438SOL     OW98171  10.162   6.187   3.411 -0.5725  0.3905 -0.2193
30438SOL    HW198172  10.122   6.102   3.396  1.5997 -0.9762  1.1101
30438SOL    HW298173  10.095   6.239   3.454 -1.5898 -1.0287 -0.0375
30439SOL     OW98174   1.189   1.751   0.634  0.1455  0.2930 -0.3501
30439SOL    HW198175   1.196   1.665   0.675 -0.6079 -0.4172 -1.6470
30439SOL    HW298176   1.262   1.801   0.671  1.6549 -1.4354 -0.8412
30440SOL     OW98177   2.779   5.380  12.517 -0.0137 -0.2549  0.3282
30440SOL    HW198178   2.716   5.445  12.485 -1.2771 -0.1130  2.9122
30440SOL    HW298179   2.726   5.304  12.538  1.1445 -1.2928 -0.3574
30441SOL     OW98180  10.844   0.521  12.112  0.1331  0.3201 -0.2446
30441SOL    HW198181  10.763   0.485  12.076  0.5683  1.4043 -2.4857
30441SOL    HW298182  10.865   0.464  12.186 -1.6583 -1.1165 -0.7718
30442SOL     OW98183   4.687  11.683   6.291 -0.5419 -0.7273  0.7525
30442SOL    HW198184   4.734  11.669   6.374  0.8102 -1.6365 -0.1266
30442SOL    HW298185   4.734  11.756   6.250 -1.2424 -0.2464  0.7873
30443SOL     OW98186   0.179   5.074   0.680 -0.3042  0.1028  0.1080
30443SOL    HW198187   0.149   5.142   0.740  2.5209  1.4256  0.1915
30443SOL    HW298188   0.150   5.104   0.594 -1.2560  0.0811  0.4109
30444SOL     OW98189   8.623   8.683   0.795  0.0285 -0.4487 -0.2725
30444SOL    HW198190   8.633   8.743   0.868 -0.7622  0.2621 -0.7383
30444SOL    HW298191   8.687   8.712   0.731 -1.7651  1.2565 -1.3729
30445SOL     OW98192   9.483   7.472   2.521  0.5749  0.2090 -0.2760
30445SOL    HW198193   9.540   7.469   2.598  0.6836 -0.2559 -0.3696
30445SOL    HW298194   9.460   7.564   2.512 -0.2576  0.1369  0.9180
30446SOL     OW98195   7.192   1.204   0.301  0.2315 -0.0355  0.2493
30446SOL    HW198196   7.249   1.274   0.270 -1.9644  1.2961 -1.0450
30446SOL    HW298197   7.161   1.234   0.386 -2.9302  2.1668 -1.4588
30447SOL     OW98198   4.333   0.684   7.135  0.2845  0.2074 -0.1797
30447SOL    HW198199   4.389   0.672   7.059 -0.8272  0.1755 -1.0175
30447SOL    HW298200   4.270   0.751   7.108 -0.5770 -0.3281  0.4381
30448SOL     OW98201  10.264   6.159  11.477 -0.0463  0.7062  0.1554
30448SOL    HW198202  10.302   6.240  11.444  3.6039  0.3385  2.8696
30448SOL    HW298203  10.305   6.090  11.424 -0.6823  0.4478 -0.0172
30449SOL     OW98204  11.943   5.152   4.405  0.0084 -0.1042  0.0052
30449SOL    HW198205  11.929   5.227   4.464  0.7109  0.2338 -0.2551
30449SOL    HW298206  11.987   5.189   4.329 -0.5762 -0.6083 -0.5882
30450SOL     OW98207   4.034   9.454   3.811 -0.1541 -0.3013 -0.2911
30450SOL    HW198208   3.965   9.475   3.747  0.4157  0.6042 -0.6327
30450SOL    HW298209   4.110   9.503   3.780  0.8036 -1.7151 -0.2122
30451SOL     OW98210   3.486   3.044   3.565 -0.8573 -0.2947 -0.5885
30451SOL    HW198211   3.551   3.030   3.635 -2.5390 -0.3287  1.0370
30451SOL    HW298212   3.452   2.956   3.548 -0.4914 -0.2774 -1.4621
30452SOL     OW98213  10.167   4.254   2.215  0.7089 -0.0221  0.1007
30452SOL    HW198214  10.212   4.319   2.270  0.2988  0.6829 -0.3747
30452SOL    HW298215  10.197   4.274   2.126 -0.3269  0.2971 -0.1924
30453SOL     OW98216   9.765  12.366   5.263 -0.3759  0.2939 -0.3482
30453SOL    HW198217   9.804  12.400   5.344 -0.6714 -1.5797  0.6507
30453SOL    HW298218   9.671  12.377   5.275 -0.3644  1.6769 -1.2741
30454SOL     OW98219   7.722   6.126   7.377 -0.2385 -0.1096 -0.1705
30454SOL    HW198220   7.671   6.057   7.420 -1.1373  0.7060  0.1111
30454SOL    HW298221   7.709   6.111   7.283  0.3790 -0.9000 -0.1420
30455SOL     OW98222   7.590   9.832   5.476 -0.3804  0.6846  0.3141
30455SOL    HW198223   7.620   9.904   5.531 -2.4672  1.6629  0.2740
30455SOL    HW298224   7.552   9.874   5.399 -1.8328 -0.4132  0.3805
30456SOL     OW98225  10.880   2.961   0.808 -0.2546  0.5553 -0.5853
30456SOL    HW198226  10.859   2.998   0.893  0.4428  2.8162 -1.3329
30456SOL    HW298227  10.888   2.867   0.824 -1.2564  0.7813  1.5902
30457SOL     OW98228  10.500   2.473   4.341  0.5570  0.0242  0.0121
30457SOL    HW198229  10.431   2.407   4.344  1.0603 -0.4733  2.1905
30457SOL    HW298230  10.528   2.475   4.249 -0.8453 -1.3217 -0.4758
30458SOL     OW98231  12.123   2.674   7.964 -0.4140  0.6719  0.2813
30458SOL    HW198232  12.065   2.748   7.951 -0.9298 -0.0400 -1.8593
30458SOL    HW298233  12.090   2.630   8.042 -3.6974 -0.4656 -1.5710
30459SOL     OW98234   9.640   7.602   4.870  0.5572  0.0548  0.6742
30459SOL    HW198235   9.711   7.550   4.907  1.4233  1.7705  1.5400
30459SOL    HW298236   9.682   7.681   4.837 -0.7197  0.2638 -0.5598
30460SOL     OW98237  11.473   5.765   9.133 -0.3937 -0.0694 -0.1839
30460SOL    HW198238  11.452   5.857   9.148 -0.1514  0.4657 -2.6826
30460SOL    HW298239  11.504   5.733   9.218  1.4807  2.6910  0.3087
30461SOL     OW98240   4.031   8.518   5.194 -0.2297  0.3620  0.0436
30461SOL    HW198241   3.966   8.489   5.258 -1.8281  1.9365 -0.7831
30461SOL    HW298242   4.114   8.517   5.242 -0.8838 -1.2749  1.2599
30462SOL     OW98243  10.392   4.469   3.147  0.2525 -0.7464 -0.2325
30462SOL    HW198244  10.414   4.537   3.210 -1.7537  0.0311 -0.2721
30462SOL    HW298245  10.395   4.387   3.197  0.9552 -0.4176  0.2727
30463SOL     OW98246   3.106  11.988   8.144 -0.7271 -0.1035  0.3209
30463SOL    HW198247   3.172  11.989   8.213 -0.2351 -1.0585 -0.1157
30463SOL    HW298248   3.063  11.902   8.153 -0.3322 -0.4407 -0.8473
30464SOL     OW98249   5.866   1.496  11.501  0.6108  0.4251  0.8837
30464SOL    HW198250   5.864   1.434  11.428  0.6615  2.0631 -0.5877
30464SOL    HW298251   5.948   1.543  11.490 -0.0366  1.6645  1.1409
30465SOL     OW98252   7.383   8.234   6.755  0.0411  0.1013 -0.2294
30465SOL    HW198253   7.428   8.318   6.745  0.6977 -0.3460 -1.3056
30465SOL    HW298254   7.454   8.170   6.762 -0.4239 -0.2423  2.2897
30466SOL     OW98255   9.383   8.213  10.806  0.1657  0.7111  0.1906
30466SOL    HW198256   9.320   8.142  10.801  0.3471  0.3406  2.1389
30466SOL    HW298257   9.335   8.285  10.847  0.4635  1.1023 -0.1374
30467SOL     OW98258   8.940   4.531   3.752 -0.5103  0.5377  0.4948
30467SOL    HW198259   8.901   4.582   3.823  0.7737 -1.5974  2.8965
30467SOL    HW298260   8.894   4.447   3.754 -1.3441  0.8409 -2.1588
30468SOL     OW98261   5.563   2.932   2.944 -0.2189  0.1997 -0.3151
30468SOL    HW198262   5.561   2.837   2.933  2.0667  0.2846 -2.2763
30468SOL    HW298263   5.508   2.966   2.874  0.1818  0.3516 -0.5577
30469SOL     OW98264   4.188   6.211  10.998  0.4498 -0.4024 -0.0419
30469SOL    HW198265   4.176   6.305  11.012 -0.5820 -0.6209  0.6756
30469SOL    HW298266   4.256   6.186  11.061  0.8509 -0.1037 -0.3554
30470SOL     OW98267   5.590   5.393   5.169 -0.5736  0.7692  0.3731
30470SOL    HW198268   5.499   5.368   5.153  0.0554 -2.6392  1.3910
30470SOL    HW298269   5.612   5.351   5.252  2.0684  1.0947 -0.0901
30471SOL     OW98270   2.310   6.636  11.487 -0.2399  0.2446  0.3665
30471SOL    HW198271   2.280   6.717  11.528 -1.1669  1.6672 -2.7757
30471SOL    HW298272   2.368   6.665  11.416 -0.8915 -1.7554 -1.0946
30472SOL     OW98273  11.878   5.780   4.909  0.0267  0.1412 -0.0520
30472SOL    HW198274  11.925   5.763   4.990 -0.4015  1.5595  0.5336
30472SOL    HW298275  11.942   5.762   4.840  1.5722  2.2563  0.7243
30473SOL     OW98276   5.660   4.509   5.198  0.0407 -0.4072  0.1923
30473SOL    HW198277   5.742   4.518   5.150 -0.2950 -0.7190 -0.4482
30473SOL    HW298278   5.686   4.477   5.284  0.8604  2.1219  0.9876
30474SOL     OW98279   0.025   4.551  11.892 -0.7772  0.1794 -0.4723
30474SOL    HW198280   0.059   4.527  11.806 -1.5092 -0.8680 -0.4768
30474SOL    HW298281   0.018   4.468  11.939 -1.7336  0.5785  0.1055
30475SOL     OW98282   1.271   8.146   4.548  0.5647 -0.1656  0.3127
30475SOL    HW198283   1.266   8.190   4.463 -0.3729 -2.7134 -1.0665
30475SOL    HW298284   1.191   8.170   4.593  0.1773 -0.2558 -0.3171
30476SOL     OW98285  11.127   4.129  10.761  0.4669  0.7439  0.3392
30476SOL    HW198286  11.171   4.194  10.815  1.5952 -0.4284  0.8835
30476SOL    HW298287  11.162   4.045  10.791  0.8990  0.0222 -2.0088
30477SOL     OW98288   0.451   6.837   3.889  0.3459  0.6160  0.2633
30477SOL    HW198289   0.544   6.861   3.888  0.3690  0.5192 -0.2261
30477SOL    HW298290   0.414   6.885   3.963  0.4674  1.8305 -0.4359
30478SOL     OW98291   6.647   4.498   2.635 -0.0111 -0.2196  0.3281
30478SOL    HW198292   6.578   4.451   2.680  0.4955 -1.0622  0.2418
30478SOL    HW298293   6.695   4.543   2.704  1.3177 -2.2271  0.7832
30479SOL     OW98294   2.445   5.138   8.627 -0.2443  0.3837  0.6322
30479SOL    HW198295   2.533   5.134   8.664  0.4518 -2.3632 -1.0106
30479SOL    HW298296   2.446   5.215   8.571  1.2035  0.3183  0.5168
30480SOL     OW98297   6.968  11.058   3.682 -0.2317  0.3510 -0.3099
30480SOL    HW198298   7.033  11.128   3.675 -0.6615  1.1775  2.4910
30480SOL    HW298299   6.964  11.039   3.776 -1.5516 -2.1174 -0.7787
30481SOL     OW98300  12.223  10.880   9.369 -0.1735  0.2089  0.4779
30481SOL    HW198301  12.216  10.785   9.373 -0.6563  0.2692  1.1574
30481SOL    HW298302  12.170  10.905   9.293 -0.8700  0.0094  0.8910
30482SOL     OW98303   7.005  12.542  10.586 -0.2599  0.2964 -0.0124
30482SOL    HW198304   6.922  12.543  10.634 -0.0960  0.1529  0.2788
30482SOL    HW298305   7.066  12.498  10.645  0.3568  1.5507  0.3263
30483SOL     OW98306   4.146   4.321   4.643 -0.5039  0.3471 -0.0031
30483SOL    HW198307   4.110   4.353   4.561  0.9884 -0.5670 -1.0571
30483SOL    HW298308   4.175   4.400   4.689  1.4320  0.6918 -1.7297
30484SOL     OW98309   6.176  10.437   2.550  0.2645 -0.1687 -0.0683
30484SOL    HW198310   6.205  10.376   2.482 -0.6637  0.3083 -0.9167
30484SOL    HW298311   6.082  10.421   2.558  0.5016 -0.8672  1.7951
30485SOL     OW98312   1.249   2.334   0.781 -0.8846  0.1510  0.5474
30485SOL    HW198313   1.179   2.270   0.772 -0.2841 -0.5851  1.0020
30485SOL    HW298314   1.213   2.414   0.742 -2.0026 -0.1832  0.8461
30486SOL     OW98315  10.806   6.045   0.047 -0.0963 -0.4325 -0.2098
30486SOL    HW198316  10.821   6.009   0.134 -2.5858  0.8973  0.8444
30486SOL    HW298317  10.711   6.048   0.037  0.0080  2.9305 -1.4213
30487SOL     OW98318   7.523   3.499   9.432 -0.0960  0.9248  0.0233
30487SOL    HW198319   7.484   3.413   9.416  1.3326  0.1124  0.7743
30487SOL    HW298320   7.448   3.558   9.437 -1.3589 -0.7023  2.2222
30488SOL     OW98321   7.321   1.774   2.175 -0.1193 -0.0424  0.1025
30488SOL    HW198322   7.278   1.809   2.252 -2.1931  0.8592 -1.3589
30488SOL    HW298323   7.276   1.691   2.158  0.1444 -0.1151 -0.2554
30489SOL     OW98324   0.140   6.237   9.833 -0.2944  0.6540  0.0596
30489SOL    HW198325   0.174   6.148   9.839  0.5393  0.9218 -0.6496
30489SOL    HW298326   0.111   6.257   9.923 -2.9903 -1.2708 -0.2427
30490SOL     OW98327   1.876   5.977   6.120 -0.0157 -0.0745  0.8856
30490SOL    HW198328   1.955   6.018   6.085 -0.2427  0.3751  0.8990
30490SOL    HW298329   1.807   6.000   6.058  0.4050 -3.1419 -0.9652
30491SOL     OW98330   7.870   6.767   4.660 -0.4976  0.5869 -0.1387
30491SOL    HW198331   7.927   6.809   4.725  2.2120  0.0589 -1.9941
30491SOL    HW298332   7.929   6.709   4.611 -2.5157  0.5037 -2.6456
30492SOL     OW98333   7.424   6.199   7.457 -0.9439 -0.1693 -0.4190
30492SOL    HW198334   7.439   6.111   7.492 -1.9606 -0.4078 -0.5392
30492SOL    HW298335   7.495   6.212   7.394  0.5241  0.0021  1.2006
30493SOL     OW98336   3.664   5.639   6.010  0.3763 -0.1302 -0.7582
30493SOL    HW198337   3.629   5.587   5.937 -0.7323 -1.8631  0.9066
30493SOL    HW298338   3.605   5.714   6.018 -1.5123 -1.6350  0.3311
30494SOL     OW98339   7.807   0.615   2.103 -0.0870 -0.2711  0.9994
30494SOL    HW198340   7.816   0.557   2.028 -0.5958 -0.1986  0.8850
30494SOL    HW298341   7.843   0.565   2.177  0.2963 -0.3883  0.7359
30495SOL     OW98342   2.765   5.637   8.805  0.3507  0.2112 -0.3428
30495SOL    HW198343   2.793   5.726   8.784 -0.5261  0.1699 -1.8476
30495SOL    HW298344   2.670   5.644   8.818  0.4217 -0.3430  0.5953
30496SOL     OW98345   9.684   1.741   1.283 -0.0019 -0.9869 -0.3457
30496SOL    HW198346   9.591   1.724   1.265 -0.1303  0.1457 -0.8268
30496SOL    HW298347   9.722   1.654   1.292 -1.2555 -1.4789  0.6647
30497SOL     OW98348   5.418   2.888   5.474 -0.1322  0.4928 -1.1313
30497SOL    HW198349   5.484   2.820   5.463  0.6672  1.2645 -1.1784
30497SOL    HW298350   5.465   2.970   5.464 -0.7601  1.1018  0.5023
30498SOL     OW98351  10.678   5.146   4.872  0.2681 -0.2145 -0.0464
30498SOL    HW198352  10.624   5.222   4.853 -0.1857 -0.0904  1.5826
30498SOL    HW298353  10.767   5.181   4.884  0.0251  0.1125  0.9023
30499SOL     OW98354  11.815   8.118   7.022 -0.1128 -0.1097  0.5146
30499SOL    HW198355  11.739   8.169   6.993  0.8604  0.4980 -1.0690
30499SOL    HW298356  11.889   8.179   7.017  1.0945 -1.6265 -1.4682
30500SOL     OW98357  10.774   6.349   2.706 -0.3327 -0.1749 -0.8567
30500SOL    HW198358  10.814   6.373   2.623  1.2210  0.1723 -0.0392
30500SOL    HW298359  10.737   6.431   2.740 -0.7773 -0.2757 -1.0783
30501SOL     OW98360   0.356   1.083  11.481 -0.1091 -0.4870 -0.3208
30501SOL    HW198361   0.282   1.034  11.444  0.1165 -0.8824 -0.2601
30501SOL    HW298362   0.337   1.174  11.462 -0.1328 -0.6619 -1.1670
30502SOL     OW98363   7.007   0.649  11.193  0.5840 -0.5390  0.4061
30502SOL    HW198364   6.953   0.708  11.245  0.8289 -0.6392  0.7790
30502SOL    HW298365   6.959   0.567  11.192  1.5248 -1.1871  2.2401
30503SOL     OW98366   2.620   4.869   4.394  0.6171 -0.0938 -0.0588
30503SOL    HW198367   2.633   4.925   4.317  0.5333 -0.0006 -0.0049
30503SOL    HW298368   2.702   4.877   4.443  0.8062 -0.4294 -0.3158
30504SOL     OW98369  12.318   9.086   1.564 -0.3965  0.0994 -0.1510
30504SOL    HW198370  12.280   9.020   1.623 -1.0215 -0.7855 -1.5008
30504SOL    HW298371  12.305   9.169   1.611 -1.5284 -0.4947  0.6476
30505SOL     OW98372  10.818   4.485   3.509  0.3825  0.2115 -0.1886
30505SOL    HW198373  10.877   4.427   3.556  1.6489 -1.2549 -3.3028
30505SOL    HW298374  10.735   4.437   3.505  0.1592  0.5007  0.7825
30506SOL     OW98375   5.158   6.607   8.898  0.0057 -0.3604 -0.2529
30506SOL    HW198376   5.193   6.597   8.987 -2.3065 -0.9859  0.6462
30506SOL    HW298377   5.120   6.522   8.877 -0.8567  0.2400 -1.2320
30507SOL     OW98378   4.062   5.324  12.337  0.0938 -0.0012  0.1615
30507SOL    HW198379   3.973   5.295  12.359  0.7093 -0.9299  1.6021
30507SOL    HW298380   4.061   5.419  12.348 -0.3363 -0.1654  1.7400
30508SOL     OW98381   3.016   1.988   4.663  0.0762  0.0243  0.1885
30508SOL    HW198382   2.946   1.922   4.664 -1.2140  1.2326 -2.3128
30508SOL    HW298383   3.017   2.022   4.753 -1.7540 -0.8480  0.5948
30509SOL     OW98384   0.328   9.072   6.720  0.0053 -0.6563 -0.1765
30509SOL    HW198385   0.266   9.092   6.790  2.2633  0.3670  1.6546
30509SOL    HW298386   0.306   9.134   6.650 -0.8364 -0.1380  0.5327
30510SOL     OW98387   4.016   1.322  10.433  0.0103 -0.1359 -0.0821
30510SOL    HW198388   3.982   1.294  10.518 -1.4364  0.3111 -0.4941
30510SOL    HW298389   4.111   1.323  10.445 -0.1767  0.2696  1.6465
30511SOL     OW98390   5.694   2.069  11.665  0.4921 -0.3394  0.0139
30511SOL    HW198391   5.743   2.010  11.607 -0.1533 -2.4259  1.4743
30511SOL    HW298392   5.761   2.106  11.723  0.6464 -1.5953  0.6770
30512SOL     OW98393   1.838   4.050   6.793 -0.0159 -0.6621  0.5072
30512SOL    HW198394   1.753   4.028   6.829  0.5846 -1.4456  1.4799
30512SOL    HW298395   1.873   3.967   6.760  0.2132 -0.2754 -0.2655
30513SOL     OW98396   1.064   3.965   9.926  0.7713  0.1242 -0.3516
30513SOL    HW198397   1.155   3.969   9.954  0.2457 -0.5949  1.6141
30513SOL    HW298398   1.058   3.885   9.874  1.2716  0.2198 -0.5603
30514SOL     OW98399  12.035   3.388  10.236 -0.3875 -0.0542 -0.2829
30514SOL    HW198400  12.067   3.308  10.278 -0.3344 -0.1216 -0.4497
30514SOL    HW298401  11.940   3.384  10.246 -0.2993  0.5105  0.8624
30515SOL     OW98402  12.200   8.427  10.774  0.2019 -0.1635  0.3063
30515SOL    HW198403  12.162   8.380  10.848 -2.2842 -0.2209 -0.9084
30515SOL    HW298404  12.163   8.385  10.697  0.2647  1.8696 -0.8989
30516SOL     OW98405   3.203   3.320   5.522  0.1766 -0.2270 -0.1376
30516SOL    HW198406   3.246   3.399   5.488 -0.2790  0.0835 -0.0035
30516SOL    HW298407   3.133   3.353   5.578 -0.6753 -0.7180 -0.8820
30517SOL     OW98408   7.192  12.254   0.335 -0.4460 -0.1289  0.2619
30517SOL    HW198409   7.167  12.192   0.266  3.5275 -1.7674  0.0334
30517SOL    HW298410   7.165  12.339   0.302 -1.7339 -1.2055 -1.6748
30518SOL     OW98411  10.698   8.483   1.678  0.3210 -1.0549  0.6923
30518SOL    HW198412  10.730   8.510   1.764 -2.7955  0.2574  1.5814
30518SOL    HW298413  10.683   8.564   1.631 -0.2104 -1.6569 -0.2099
30519SOL     OW98414   8.020   1.413   7.469  0.4304 -0.0907  0.5237
30519SOL    HW198415   8.047   1.501   7.494 -3.7425  2.0416 -1.5412
30519SOL    HW298416   8.072   1.393   7.390  0.1778  1.2869 -0.0047
30520SOL     OW98417   5.819  10.942   8.961  0.9587 -0.4783  0.4379
30520SOL    HW198418   5.806  10.867   9.020 -0.8974 -0.8210 -0.3303
30520SOL    HW298419   5.779  11.016   9.007 -0.0198 -0.6397 -0.1157
30521SOL     OW98420   2.345  12.367   6.835 -0.2419 -0.0811 -0.0187
30521SOL    HW198421   2.281  12.436   6.820  0.0554  0.0627 -0.6777
30521SOL    HW298422   2.406  12.376   6.762  0.3003 -0.4707  0.3857
30522SOL     OW98423   2.150   6.073  11.802 -0.4980  0.4831  0.8503
30522SOL    HW198424   2.181   5.990  11.838  2.9298  1.1646 -0.1421
30522SOL    HW298425   2.082   6.048  11.740  0.2084 -1.5910  0.8277
30523SOL     OW98426  11.303   5.144  10.246 -0.1335  0.0695 -0.2839
30523SOL    HW198427  11.370   5.077  10.259 -0.6476 -0.1998  1.1927
30523SOL    HW298428  11.260   5.151  10.331 -2.1591  0.0473 -1.2657
30524SOL     OW98429   4.171   6.907   9.874  0.4733  0.2246 -0.2683
30524SOL    HW198430   4.248   6.857   9.900  0.6766  0.6579 -0.0288
30524SOL    HW298431   4.183   6.923   9.780 -1.0219 -2.6869 -1.0532
30525SOL     OW98432   0.764   3.242   1.652 -0.4034  0.2251  0.0728
30525SOL    HW198433   0.803   3.234   1.564 -0.9790 -0.4684 -0.1234
30525SOL    HW298434   0.734   3.154   1.673 -1.2252  0.6047  0.5264
30526SOL     OW98435   9.113   2.717  10.432 -0.5002 -0.3543  0.0193
30526SOL    HW198436   9.161   2.675  10.361  2.4919 -0.1647  1.7987
30526SOL    HW298437   9.109   2.652  10.501  1.8364  1.2192  1.7962
30527SOL     OW98438   3.446   9.622   7.301  0.2907  0.0819  0.3916
30527SOL    HW198439   3.398   9.579   7.230  0.9654  0.1837 -0.1382
30527SOL    HW298440   3.386   9.618   7.376 -0.5446  0.2153 -0.2478
30528SOL     OW98441  11.252  10.959   2.313 -0.0189 -0.0641  0.3996
30528SOL    HW198442  11.316  11.003   2.258  0.2851 -0.8163  0.1434
30528SOL    HW298443  11.282  10.976   2.403 -0.1191  0.5539  0.3237
30529SOL     OW98444   4.010  10.686  11.285  0.1509 -0.4495 -0.4970
30529SOL    HW198445   4.106  10.687  11.288  0.1397 -1.0430  0.3099
30529SOL    HW298446   3.987  10.773  11.252  0.9300  0.2925  0.7972
30530SOL     OW98447   0.264   4.905   1.424  0.0459  0.4603 -0.2032
30530SOL    HW198448   0.287   4.927   1.514  0.1028 -0.1945 -0.0524
30530SOL    HW298449   0.334   4.845   1.395 -0.3849  0.0586 -0.4210
30531SOL     OW98450   2.795  11.501   8.975  0.5994  0.2034  0.1305
30531SOL    HW198451   2.866  11.533   8.918  1.3853  2.3543  2.1742
30531SOL    HW298452   2.718  11.549   8.946  0.4277 -0.5426 -0.6885
30532SOL     OW98453   0.372   3.734   9.885  0.3000 -0.0309  0.2043
30532SOL    HW198454   0.392   3.648   9.922 -0.1666  0.1205  0.8331
30532SOL    HW298455   0.413   3.733   9.799  0.1212 -0.9583  0.1185
30533SOL     OW98456   3.699   9.499   7.482 -0.4204  0.3483 -0.4328
30533SOL    HW198457   3.691   9.440   7.407 -1.5308 -0.7225  0.4776
30533SOL    HW298458   3.628   9.563   7.470 -2.3613 -1.3950  0.9796
30534SOL     OW98459   3.171   3.712   2.083 -0.6006  0.1670  0.2519
30534SOL    HW198460   3.201   3.746   1.998 -1.7056 -0.0154 -0.2308
30534SOL    HW298461   3.251   3.694   2.131  0.0892 -0.9322 -1.2256
30535SOL     OW98462   5.118   1.495   6.272 -0.0535 -0.4628  0.0519
30535SOL    HW198463   5.149   1.404   6.277 -1.0768 -0.8115  0.3892
30535SOL    HW298464   5.140   1.523   6.184  2.0828 -0.3468  0.5505
30536SOL     OW98465   3.456  11.476  11.591 -0.5760  0.0303  0.5704
30536SOL    HW198466   3.436  11.547  11.652 -1.1842 -0.2605  0.7095
30536SOL    HW298467   3.551  11.483  11.577 -0.8025  1.7091 -0.4591
30537SOL     OW98468   7.717   6.234   5.924 -0.4034 -0.0537 -0.5040
30537SOL    HW198469   7.766   6.204   5.848  0.4355 -0.9317  0.3533
30537SOL    HW298470   7.720   6.330   5.918  1.5957 -0.0518 -0.4235
30538SOL     OW98471   1.159   1.044   0.411 -0.1387 -0.5692 -0.4581
30538SOL    HW198472   1.178   1.119   0.467 -2.0919 -1.1628  1.1205
30538SOL    HW298473   1.084   1.001   0.453 -0.6853 -1.9666 -2.6763
30539SOL     OW98474   3.578  12.040   1.693 -0.3870 -0.0656 -0.6267
30539SOL    HW198475   3.504  12.029   1.752 -2.8676  1.5828 -3.1831
30539SOL    HW298476   3.578  11.960   1.640  0.9892 -0.9230  0.5540
30540SOL     OW98477   1.697   5.490   6.662 -0.1255  0.2041 -0.4131
30540SOL    HW198478   1.631   5.532   6.717 -1.9152 -0.7778 -1.7075
30540SOL    HW298479   1.699   5.399   6.691 -0.2238 -0.0503 -1.1680
30541SOL     OW98480   0.671  10.591   1.036  0.2160  0.0133 -0.1291
30541SOL    HW198481   0.638  10.502   1.048 -0.4841  0.4880  1.7043
30541SOL    HW298482   0.606  10.647   1.078  1.7488  1.2223  0.7220
30542SOL     OW98483   2.680  11.075   0.533  0.3384  0.8053  0.8365
30542SOL    HW198484   2.745  11.069   0.463 -0.1901 -0.0264  0.3956
30542SOL    HW298485   2.602  11.109   0.490 -0.0303  0.1662  0.9831
30543SOL     OW98486  10.726   8.749   8.569  0.4729 -0.1277  0.6147
30543SOL    HW198487  10.811   8.787   8.592  0.6766 -0.7432  0.9089
30543SOL    HW298488  10.699   8.702   8.648 -1.5531  2.4794  1.6092
30544SOL     OW98489  11.218   7.324   9.777  0.3218  0.0443 -0.3011
30544SOL    HW198490  11.285   7.306   9.711  0.2500  0.7298 -0.5600
30544SOL    HW298491  11.240   7.411   9.811  1.0910 -0.7668  1.4572
30545SOL     OW98492   5.755  11.047  10.146  0.3251  0.4017 -0.4577
30545SOL    HW198493   5.665  11.029  10.172  0.4396  1.9239  1.1570
30545SOL    HW298494   5.748  11.086  10.059 -0.7281  1.8010  0.2156
30546SOL     OW98495   2.909   8.418  10.461 -0.0134 -0.5757 -0.9058
30546SOL    HW198496   2.941   8.458  10.381  1.2827  2.3447  0.8988
30546SOL    HW298497   2.942   8.328  10.458  0.4606 -0.3724 -3.3378
30547SOL     OW98498  11.494   9.154   3.502  0.3479  0.0624 -0.0063
30547SOL    HW198499  11.449   9.116   3.578 -1.0247  1.4834 -0.0632
30547SOL    HW298500  11.425   9.196   3.451  1.5086  0.7791 -1.0593
30548SOL     OW98501   0.928   7.059  10.170 -0.6286  0.5191 -0.1034
30548SOL    HW198502   0.967   6.975  10.146  0.8487  1.1685 -0.0488
30548SOL    HW298503   0.834   7.041  10.173 -0.6430 -0.3878 -3.1423
30549SOL     OW98504   8.372   5.061   3.296 -0.0401  0.4032 -0.0654
30549SOL    HW198505   8.407   5.078   3.383 -1.9611  0.9605  0.6476
30549SOL    HW298506   8.408   4.975   3.272  1.7818  0.9450  0.5591
30550SOL     OW98507  10.140   4.292   5.074  0.2330 -0.0712 -0.2501
30550SOL    HW198508  10.199   4.344   5.129  0.0744 -0.9639  0.8253
30550SOL    HW298509  10.194   4.265   5.000  1.2969 -1.1040  0.8488
30551SOL     OW98510   7.863   5.589   9.641 -0.0197  0.0628 -0.1300
30551SOL    HW198511   7.942   5.565   9.592  0.0102  0.6025 -0.3449
30551SOL    HW298512   7.846   5.680   9.618 -0.0130  0.3211  0.8645
30552SOL     OW98513  12.068   8.108  11.435 -0.1979 -0.1369  0.0184
30552SOL    HW198514  12.047   8.077  11.347  0.1894  1.2186 -0.5793
30552SOL    HW298515  12.151   8.064  11.457  0.3225  0.4198 -0.7917
30553SOL     OW98516   0.861  10.805   2.798 -0.7751 -0.1554  0.5925
30553SOL    HW198517   0.950  10.776   2.820 -1.1088 -1.4213  0.3389
30553SOL    HW298518   0.875  10.881   2.741  0.1139  0.9597  2.1991
30554SOL     OW98519  10.656  10.056   3.208  0.1774  0.2024  0.3241
30554SOL    HW198520  10.633  10.149   3.209  1.6999  0.6377  2.7860
30554SOL    HW298521  10.618  10.021   3.289  2.1774 -0.5594  1.0061
30555SOL     OW98522   3.223   7.487   1.307  0.0196 -0.0941  0.3104
30555SOL    HW198523   3.211   7.582   1.310 -1.1493 -0.1777 -0.7794
30555SOL    HW298524   3.143   7.454   1.265 -0.0953 -1.6727  1.6659
30556SOL     OW98525   0.398   7.198   3.020 -0.6049  0.3343 -0.8335
30556SOL    HW198526   0.480   7.206   2.971 -1.1302 -0.0557 -1.8043
30556SOL    HW298527   0.412   7.252   3.098  0.6867  0.0289 -0.8219
30557SOL     OW98528   0.703   1.657  11.406 -0.0570  0.0545  0.0277
30557SOL    HW198529   0.749   1.725  11.455  0.3511  1.5428 -2.2683
30557SOL    HW298530   0.771   1.594  11.383  0.4634  1.0451 -1.3355
30558SOL     OW98531   5.905   0.910   6.476 -0.0873  0.1486 -0.8663
30558SOL    HW198532   5.946   0.976   6.533  1.3845 -0.6671 -0.9264
30558SOL    HW298533   5.903   0.951   6.390 -1.4892  1.0451 -0.4327
30559SOL     OW98534  10.929   7.105   8.893  0.2607  0.3432  0.5467
30559SOL    HW198535  10.951   7.039   8.827 -1.3614 -1.0269  1.2960
30559SOL    HW298536  11.004   7.164   8.894  0.7421 -0.1189 -1.8416
30560SOL     OW98537  11.519   7.205   3.010 -0.4479 -0.5696  0.0949
30560SOL    HW198538  11.534   7.148   2.934 -0.7543  0.3554 -0.6702
30560SOL    HW298539  11.584   7.274   3.001  0.4153 -1.1668  1.4255
30561SOL     OW98540   2.593   2.726  11.318 -0.0343  0.5809 -0.1546
30561SOL    HW198541   2.510   2.678  11.311  0.2615  0.0708 -0.2426
30561SOL    HW298542   2.655   2.673  11.268  0.3760  0.8945  0.0170
30562SOL     OW98543   3.604   6.875   2.875 -0.5123  0.2079 -0.3881
30562SOL    HW198544   3.623   6.781   2.884 -0.0256  0.2901 -0.5233
30562SOL    HW298545   3.520   6.887   2.919 -1.0561 -0.4710 -1.2277
30563SOL     OW98546   2.806   2.126   7.075 -0.5613  0.1568  0.1249
30563SOL    HW198547   2.858   2.046   7.082 -0.1447  0.4102 -0.0808
30563SOL    HW298548   2.851   2.179   7.009 -1.2233  0.2701 -0.2435
30564SOL     OW98549  12.344   6.743   9.090  0.3338 -0.3699  0.3012
30564SOL    HW198550  12.269   6.755   9.148  0.2615 -0.9458  0.3272
30564SOL    HW298551  12.313   6.774   9.005 -0.2491 -1.4764  0.0956
30565SOL     OW98552  10.111   5.351   6.555 -0.3527  0.3141  0.4056
30565SOL    HW198553  10.199   5.337   6.592 -0.2955 -1.5072 -0.3260
30565SOL    HW298554  10.127   5.404   6.476 -0.2249  2.1674  1.6110
30566SOL     OW98555   8.089   0.245   7.285 -0.0212  0.1986  0.0530
30566SOL    HW198556   8.155   0.176   7.285  1.4509  1.5142 -1.2066
30566SOL    HW298557   8.048   0.239   7.199  0.3399  1.0520 -0.1920
30567SOL     OW98558   8.881   2.367   6.318 -0.2669 -0.5690  0.6271
30567SOL    HW198559   8.975   2.379   6.313 -0.1504 -1.7348 -0.6268
30567SOL    HW298560   8.869   2.300   6.386 -0.0253 -1.7093 -0.4150
30568SOL     OW98561   3.202  11.527   3.111  0.2579 -0.1090 -0.2204
30568SOL    HW198562   3.250  11.578   3.046 -0.4381 -1.1357 -1.5861
30568SOL    HW298563   3.264  11.517   3.184  1.4395  0.1523 -1.1576
30569SOL     OW98564   5.241   4.212  12.202 -0.5362  0.2855 -0.0644
30569SOL    HW198565   5.211   4.265  12.128 -0.5094 -0.1515 -0.3908
30569SOL    HW298566   5.261   4.276  12.270 -2.5171  0.5932  0.2926
30570SOL     OW98567  12.156   5.998   8.320 -0.2863 -0.0883 -0.2189
30570SOL    HW198568  12.225   5.932   8.317  1.6236  1.7651  0.4123
30570SOL    HW298569  12.191   6.073   8.272 -1.7975  0.9682  0.2262
30571SOL     OW98570   8.239   5.827   3.192  0.5021 -0.5590  0.1375
30571SOL    HW198571   8.194   5.884   3.130  0.9877 -0.5555 -0.2162
30571SOL    HW298572   8.225   5.738   3.158 -2.7632 -1.0201  2.2291
30572SOL     OW98573   3.014  10.117   3.063 -0.0527 -0.4953  0.0274
30572SOL    HW198574   3.086  10.159   3.016  0.7063  1.1681  2.4743
30572SOL    HW298575   2.962  10.190   3.097  0.5922 -1.4585  3.3980
30573SOL     OW98576   2.413   2.273  10.287 -0.6122  0.4490 -0.7310
30573SOL    HW198577   2.421   2.309  10.376  0.4890  0.0771 -0.6721
30573SOL    HW298578   2.327   2.304  10.257 -1.6669 -0.6200  0.9991
30574SOL     OW98579   6.951   7.267   4.519 -0.8757  0.4272  0.0980
30574SOL    HW198580   6.873   7.278   4.573 -1.4215 -0.8997 -0.3730
30574SOL    HW298581   6.962   7.172   4.513  1.3522  0.5750  0.9620
30575SOL     OW98582   1.236   0.611   2.679  0.7508  0.5315  0.4384
30575SOL    HW198583   1.232   0.552   2.753 -0.9893 -0.0770 -0.0927
30575SOL    HW298584   1.144   0.632   2.660  1.2809  3.0464  0.3161
30576SOL     OW98585   7.779  11.404   5.849  0.5630  0.6541  0.0626
30576SOL    HW198586   7.700  11.456   5.865 -0.1038 -0.0747 -0.7407
30576SOL    HW298587   7.781  11.392   5.754  1.9226  1.0726  0.0222
30577SOL     OW98588   9.252  10.902   7.030 -0.3392  0.5887  0.0531
30577SOL    HW198589   9.162  10.870   7.020 -0.2999  0.1920  0.9385
30577SOL    HW298590   9.290  10.892   6.943 -1.3733  1.4510 -0.5139
30578SOL     OW98591   6.445   2.701   0.041 -0.4164 -0.2766 -0.5396
30578SOL    HW198592   6.539   2.684   0.045  0.3136  3.0242 -0.7705
30578SOL    HW298593   6.409   2.625  -0.005  1.8700 -2.3212  0.7925
30579SOL     OW98594   1.991   6.085   7.491 -0.4954 -0.4558  0.0244
30579SOL    HW198595   1.941   6.079   7.410 -1.3306 -1.1493  0.5701
30579SOL    HW298596   1.988   6.178   7.513 -2.8041 -0.6305  0.7651
30580SOL     OW98597   5.215   3.548   7.034 -0.0773 -0.1268 -0.0088
30580SOL    HW198598   5.135   3.601   7.038 -0.1987 -0.2615 -0.5760
30580SOL    HW298599   5.205   3.485   7.106 -0.8632 -0.6609 -0.5672
30581SOL     OW98600   0.692  11.411  11.382  0.9802  0.0940  0.0520
30581SOL    HW198601   0.612  11.417  11.434  0.3847  0.2827 -0.8496
30581SOL    HW298602   0.675  11.340  11.320  0.5658  1.5948 -1.6566
30582SOL     OW98603  11.434   5.792   5.611 -0.8635  0.4696 -0.1696
30582SOL    HW198604  11.506   5.808   5.549 -1.8378  0.9582 -1.2037
30582SOL    HW298605  11.440   5.699   5.630  0.5503  0.6444  0.4140
30583SOL     OW98606   8.459  12.272   5.831 -0.6490  0.0566  0.1842
30583SOL    HW198607   8.483  12.344   5.772 -0.4251 -0.1827 -0.0161
30583SOL    HW298608   8.367  12.290   5.853 -0.4276  0.7346  0.6124
30584SOL     OW98609   0.630   7.271   7.688 -0.3352 -0.0639  0.3022
30584SOL    HW198610   0.594   7.187   7.715  0.6007 -0.3252  0.7996
30584SOL    HW298611   0.561   7.312   7.636 -1.1753 -0.7059  0.8892
30585SOL     OW98612   8.454   7.849   2.576  0.2112 -0.1938 -0.3230
30585SOL    HW198613   8.502   7.766   2.573 -0.1305 -0.4162  0.2405
30585SOL    HW298614   8.475   7.886   2.661  0.0947  0.1392 -0.4374
30586SOL     OW98615   4.046  10.369  12.035 -0.0299 -0.1864  0.1898
30586SOL    HW198616   4.066  10.363  12.128  1.0888  1.7472  0.1258
30586SOL    HW298617   4.115  10.425  11.999 -2.7224  2.6341 -1.0353
30587SOL     OW98618   8.997   5.317   5.039 -0.2957 -0.0952 -0.1976
30587SOL    HW198619   8.936   5.374   4.991  0.6559  0.2451 -1.0607
30587SOL    HW298620   9.014   5.245   4.979  0.8529  0.2918 -0.3675
30588SOL     OW98621   9.429   2.247  11.645 -0.0310 -0.0377  0.4488
30588SOL    HW198622   9.476   2.263  11.563  0.4872  0.1265  0.7754
30588SOL    HW298623   9.488   2.191  11.696  0.0532  0.6134  1.0853
30589SOL     OW98624  11.915   5.235   5.875  0.0086 -0.8048  0.4029
30589SOL    HW198625  11.854   5.187   5.819 -0.9410  1.0221 -0.2243
30589SOL    HW298626  11.868   5.247   5.957 -0.2385  0.0413  0.1461
30590SOL     OW98627   5.743   6.463  11.861 -0.0843 -0.1245  0.0840
30590SOL    HW198628   5.814   6.489  11.921  1.0631 -0.1078 -1.2191
30590SOL    HW298629   5.753   6.368  11.852 -2.0612 -0.6019  2.0893
30591SOL     OW98630   4.520   8.507   2.330  0.1995  0.1532 -0.2006
30591SOL    HW198631   4.457   8.451   2.283 -2.4891  1.8554  1.1370
30591SOL    HW298632   4.535   8.462   2.413  1.1837 -0.4684 -0.6887
30592SOL     OW98633   8.816  11.597  11.431 -0.2622 -0.6657  0.2282
30592SOL    HW198634   8.834  11.668  11.493 -0.0419  1.4600 -2.0836
30592SOL    HW298635   8.894  11.595  11.375 -0.9603 -1.6424 -0.7340
30593SOL     OW98636   2.981   7.664  10.256 -0.6121 -0.2069  0.1024
30593SOL    HW198637   3.058   7.696  10.303  0.1076 -0.7696 -0.6806
30593SOL    HW298638   2.915   7.652  10.324  0.5605 -1.4665  1.0627
30594SOL     OW98639   2.780  10.680   6.769  0.2044  0.0425 -0.6775
30594SOL    HW198640   2.694  10.716   6.790  0.3895 -0.1785  0.5437
30594SOL    HW298641   2.835  10.756   6.752  0.2255  0.2857  0.4170
30595SOL     OW98642   3.446   4.274   1.244 -0.1935 -0.0549 -0.0252
30595SOL    HW198643   3.366   4.223   1.252 -0.6273  0.5680 -0.2726
30595SOL    HW298644   3.424   4.360   1.281 -0.0811  0.5772 -1.3600
30596SOL     OW98645   9.664   0.628   8.657  0.2503 -0.1772 -0.2319
30596SOL    HW198646   9.719   0.623   8.734 -1.8284  1.4166  1.4679
30596SOL    HW298647   9.685   0.711   8.616  0.3792 -0.3960 -0.6198
30597SOL     OW98648   9.522   1.249  12.040 -0.6031 -0.6471 -0.3229
30597SOL    HW198649   9.585   1.299  11.987 -0.5945  0.0386  0.3088
30597SOL    HW298650   9.477   1.193  11.977 -0.6345  0.1842 -1.0724
30598SOL     OW98651   3.662   9.691   6.070  0.4659  0.3902  0.8610
30598SOL    HW198652   3.717   9.613   6.069  0.0904  0.1237  0.5215
30598SOL    HW298653   3.603   9.677   6.144 -0.9657 -0.6306 -0.4161
30599SOL     OW98654   9.653   3.485   5.570  0.0281 -0.2506  0.0779
30599SOL    HW198655   9.702   3.442   5.501 -2.2413 -0.3284 -1.6261
30599SOL    HW298656   9.677   3.577   5.563 -0.4816 -0.1892 -1.1591
30600SOL     OW98657   4.046   3.529   2.272  0.0729 -0.5688 -0.6830
30600SOL    HW198658   3.974   3.580   2.308  0.9495 -0.9455  1.7974
30600SOL    HW298659   4.008   3.443   2.252 -0.0395 -1.0850  1.5105
30601SOL     OW98660   3.018   7.164   9.771  0.4794 -0.3706 -0.2016
30601SOL    HW198661   3.027   7.257   9.754 -3.5677  0.3392  0.6115
30601SOL    HW298662   3.072   7.148   9.848  1.0935  1.3119 -0.2513
30602SOL     OW98663  10.870   7.138   5.872  0.4991 -0.3255  0.3615
30602SOL    HW198664  10.897   7.189   5.796 -0.4294 -0.4675 -0.0719
30602SOL    HW298665  10.796   7.086   5.842  0.7689 -1.1575  1.0847
30603SOL     OW98666   1.338  10.446   0.544  0.2990  0.1682  0.2827
30603SOL    HW198667   1.269  10.466   0.481  0.2758  1.3128  0.6443
30603SOL    HW298668   1.401  10.518   0.535  1.4104 -0.8025  0.0214
30604SOL     OW98669   1.600  10.062   8.674 -0.1141  0.4790 -0.4708
30604SOL    HW198670   1.581  10.047   8.582 -0.6767  0.9654 -0.4327
30604SOL    HW298671   1.542  10.002   8.721  1.7350 -1.4176 -0.4697
30605SOL     OW98672   4.380   1.169   8.925 -0.3363  0.1841  0.8940
30605SOL    HW198673   4.320   1.095   8.927 -1.5435  1.0758 -0.6406
30605SOL    HW298674   4.423   1.164   8.839  0.7297  0.3903  1.3933
30606SOL     OW98675  10.889   4.668  11.110  0.1129  0.2523  0.2503
30606SOL    HW198676  10.894   4.761  11.087  0.3633  0.2216  0.1829
30606SOL    HW298677  10.967   4.629  11.070  1.2685  0.4191  2.1978
30607SOL     OW98678  10.026  11.617   0.014 -0.6203  0.4085  0.0479
30607SOL    HW198679  10.002  11.526   0.030  2.8035 -0.3642  1.4227
30607SOL    HW298680  10.039  11.654   0.101  2.8234  0.7119 -0.4901
30608SOL     OW98681  11.508   8.941   2.514  0.5764  0.2892 -0.0924
30608SOL    HW198682  11.534   8.914   2.425 -1.4857  1.1483 -1.0300
30608SOL    HW298683  11.493   9.035   2.506  0.0430  0.3119  1.0981
30609SOL     OW98684   8.849  10.775   4.348 -0.9132  0.2036 -0.5297
30609SOL    HW198685   8.846  10.689   4.390 -0.4086  0.3583 -0.1717
30609SOL    HW298686   8.823  10.758   4.258 -1.4651 -0.2195 -0.2964
30610SOL     OW98687   3.747   6.189  10.493  0.4173 -0.3594  0.3161
30610SOL    HW198688   3.682   6.173  10.425  1.0817 -0.7882 -0.2299
30610SOL    HW298689   3.719   6.270  10.535  0.0716 -0.0160 -0.5538
30611SOL     OW98690   2.225   3.310   5.448 -0.0935 -0.3661 -0.0935
30611SOL    HW198691   2.202   3.295   5.356  0.5957  0.4274 -0.4128
30611SOL    HW298692   2.249   3.402   5.452  1.6324 -0.7825  0.4793
30612SOL     OW98693   0.534   3.943   8.130 -0.0271 -0.1375  0.0285
30612SOL    HW198694   0.548   3.956   8.224  3.4528  0.4816 -0.4530
30612SOL    HW298695   0.584   3.864   8.109 -2.9313 -1.8699 -0.9560
30613SOL     OW98696   1.777   6.052   7.323 -0.3086 -0.1116  0.6532
30613SOL    HW198697   1.794   6.087   7.236 -0.5898 -2.8190 -0.5914
30613SOL    HW298698   1.685   6.071   7.339  0.1645  1.9780  1.2141
30614SOL     OW98699   0.816   9.882  10.160 -0.0266 -0.2633  0.0660
30614SOL    HW198700   0.881   9.847  10.098 -0.7834 -0.6631 -0.5162
30614SOL    HW298701   0.849   9.856  10.246  0.7585 -0.1748 -0.2010
30615SOL     OW98702   2.045  11.875   0.730  1.0549 -0.6127  0.1533
30615SOL    HW198703   2.082  11.915   0.809 -1.2526 -0.9858  1.4998
30615SOL    HW298704   2.122  11.849   0.679  2.6280  1.0783  1.4960
30616SOL     OW98705   3.455   6.776  10.374 -0.3094  0.0356 -0.4263
30616SOL    HW198706   3.535   6.829  10.378 -0.2455 -0.1424  1.1674
30616SOL    HW298707   3.386   6.839  10.353 -0.2025  0.7721  1.2413
30617SOL     OW98708   3.805   4.294   5.744  0.2617  0.0422 -0.5498
30617SOL    HW198709   3.886   4.320   5.789 -0.2305  0.7473 -0.0525
30617SOL    HW298710   3.806   4.199   5.747  1.0117  0.0422 -0.4432
30618SOL     OW98711   2.432   0.311   3.110 -0.2738 -0.3683  0.3116
30618SOL    HW198712   2.504   0.315   3.173 -0.4409 -1.0696  0.5535
30618SOL    HW298713   2.368   0.374   3.143  0.3714  0.5288 -0.1025
30619SOL     OW98714   3.254   0.763   9.194 -0.5525 -0.1652 -0.5451
30619SOL    HW198715   3.182   0.807   9.239 -0.2585  1.2906 -1.4316
30619SOL    HW298716   3.226   0.757   9.102 -0.0666 -0.7165 -0.6681
30620SOL     OW98717   5.081   3.345   1.568 -0.5633 -0.0099  0.4898
30620SOL    HW198718   5.048   3.399   1.497 -0.6995 -1.3572 -0.5139
30620SOL    HW298719   5.130   3.275   1.525  2.2694  0.9689  1.8417
30621SOL     OW98720   8.123   7.730   2.963  0.1606 -0.0948  0.1186
30621SOL    HW198721   8.176   7.681   3.026  2.3119  0.2093 -1.3499
30621SOL    HW298722   8.147   7.693   2.878 -0.7901  1.1803 -0.7376
30622SOL     OW98723   3.732  11.930   0.039  0.4883  0.3008 -0.7569
30622SOL    HW198724   3.731  11.996  -0.031  1.1642  1.3541  0.1732
30622SOL    HW298725   3.810  11.877   0.021  0.6950  0.6065 -0.7771
30623SOL     OW98726   6.922   2.835   2.260 -0.5926  0.0939  0.5273
30623SOL    HW198727   6.832   2.804   2.270  0.0357 -2.6611 -1.2594
30623SOL    HW298728   6.916   2.909   2.199 -1.7556  1.1467  1.8389
30624SOL     OW98729   7.511   8.906   1.088  0.7326  0.1861  0.3671
30624SOL    HW198730   7.432   8.870   1.048 -0.1438  0.3581  1.8372
30624SOL    HW298731   7.583   8.861   1.045 -0.1887 -0.3943 -0.6204
30625SOL     OW98732   9.806   6.464   4.241  0.1113 -0.3177 -0.1118
30625SOL    HW198733   9.898   6.468   4.267  0.0987  3.5647 -0.1614
30625SOL    HW298734   9.808   6.474   4.145 -0.3541 -1.2568 -0.2293
30626SOL     OW98735   2.246   7.866   9.238 -0.1889  0.1177  0.3691
30626SOL    HW198736   2.211   7.798   9.180  1.0146 -0.3812  0.1937
30626SOL    HW298737   2.170   7.920   9.259 -1.0067 -0.7522 -0.2090
30627SOL     OW98738   2.938   9.059   5.238  0.8042  0.4756  0.2758
30627SOL    HW198739   3.011   9.067   5.177  1.0276  1.4147  0.6532
30627SOL    HW298740   2.938   9.141   5.287 -0.7347  0.6641  0.0239
30628SOL     OW98741   4.936   1.916   5.288 -0.3158  0.3387  0.3350
30628SOL    HW198742   5.027   1.930   5.314  0.1125 -0.7583 -0.4825
30628SOL    HW298743   4.884   1.956   5.357  0.7852  0.1686  1.2815
30629SOL     OW98744   9.770   1.517   5.854  0.6183  0.0781 -0.0698
30629SOL    HW198745   9.730   1.473   5.778 -0.2444 -0.9318  0.9307
30629SOL    HW298746   9.727   1.477   5.930 -1.1761  3.5225  0.9284
30630SOL     OW98747   3.020   2.961  11.123 -0.0031 -0.1527 -0.2154
30630SOL    HW198748   3.038   2.886  11.066 -0.2342 -0.5393  0.2079
30630SOL    HW298749   3.106   2.996  11.145  0.0675  0.7421 -1.7492
30631SOL     OW98750   8.752   9.459   5.251 -0.3216 -0.3651 -0.1824
30631SOL    HW198751   8.719   9.373   5.224  0.0967  0.1281 -2.5005
30631SOL    HW298752   8.673   9.513   5.261 -0.4764 -0.1869 -2.0078
30632SOL     OW98753   5.641   8.967  10.235 -0.3864  0.2877 -0.1025
30632SOL    HW198754   5.671   9.006  10.317 -1.7177 -1.7929  1.4777
30632SOL    HW298755   5.718   8.923  10.200 -0.2564 -0.4860  1.1036
30633SOL     OW98756  11.198   8.289  10.780  0.2097  0.1607  0.1998
30633SOL    HW198757  11.168   8.380  10.770  1.2913  0.4499 -0.5628
30633SOL    HW298758  11.272   8.295  10.840  0.2564 -0.2312  0.1787
30634SOL     OW98759   4.720   7.983   4.749  0.2835  0.0424  0.3648
30634SOL    HW198760   4.673   7.980   4.666  0.7292  1.7980  0.0227
30634SOL    HW298761   4.805   8.022   4.728  0.5760  0.0932  1.5637
30635SOL     OW98762   7.847   8.432   7.130 -0.9242  0.3411 -0.1786
30635SOL    HW198763   7.870   8.397   7.044 -1.9221  1.4172 -0.9229
30635SOL    HW298764   7.777   8.495   7.112 -1.9262 -0.2095  1.5449
30636SOL     OW98765   2.011  10.071   1.174  0.2492 -0.0070 -0.2679
30636SOL    HW198766   1.986  10.153   1.217 -1.7100 -0.5323 -0.3338
30636SOL    HW298767   1.953  10.064   1.098  0.8589 -1.1340 -0.6629
30637SOL     OW98768  12.191   8.702  12.188  0.2789  0.3190  0.4768
30637SOL    HW198769  12.109   8.654  12.200  1.0476 -1.2436 -0.1662
30637SOL    HW298770  12.183   8.743  12.102 -0.5036  1.6522  1.1553
30638SOL     OW98771   4.187   1.173   1.060 -0.4486  0.8133 -0.0319
30638SOL    HW198772   4.191   1.206   1.149  5.0009 -0.1352  0.4090
30638SOL    HW298773   4.242   1.233   1.009 -1.0118 -0.3257 -2.1250
30639SOL     OW98774   4.311   1.829   7.588 -0.2427  0.4285 -0.1119
30639SOL    HW198775   4.344   1.907   7.631  0.0583  0.0203  0.4165
30639SOL    HW298776   4.288   1.770   7.660 -1.1958  0.3221 -0.4871
30640SOL     OW98777   6.920   3.187   1.128 -0.0027 -0.7104  0.8742
30640SOL    HW198778   6.847   3.157   1.074 -0.0370  0.6927  0.1089
30640SOL    HW298779   6.881   3.250   1.189  0.8398  1.8641 -1.0668
30641SOL     OW98780   3.533   7.952   7.836  0.1471 -0.0432  0.1096
30641SOL    HW198781   3.548   7.914   7.749 -0.2592 -0.2913  0.1489
30641SOL    HW298782   3.550   8.045   7.824  0.0734 -0.0724 -0.2436
30642SOL     OW98783   3.346   0.034  10.285  0.5085 -0.0079  0.3817
30642SOL    HW198784   3.276  -0.011  10.332  0.9454 -0.5877  0.4842
30642SOL    HW298785   3.355   0.118  10.329  0.4667 -0.2845  0.9183
30643SOL     OW98786   1.636  10.029   0.800  0.8687 -0.1695  0.5984
30643SOL    HW198787   1.543  10.051   0.799  1.0879  0.7623 -0.2751
30643SOL    HW298788   1.646   9.961   0.734  0.8928  0.0841  0.3418
30644SOL     OW98789   2.367   2.285   4.399 -0.0590  0.1251  0.4366
30644SOL    HW198790   2.418   2.274   4.319  1.7524 -0.0699  1.5486
30644SOL    HW298791   2.302   2.215   4.396  0.3652 -0.2459 -0.5846
30645SOL     OW98792  10.148   8.726   6.315 -0.2592  0.6544 -0.5307
30645SOL    HW198793  10.215   8.775   6.268 -0.6310  0.9066 -0.8047
30645SOL    HW298794  10.148   8.764   6.403  0.3696  0.2469 -0.3478
30646SOL     OW98795   3.106   6.095   7.966 -1.2402  0.0571 -0.4828
30646SOL    HW198796   3.032   6.138   7.922  0.2781  2.0531 -1.2052
30646SOL    HW298797   3.119   6.145   8.046 -0.1101  0.2830 -0.8023
30647SOL     OW98798   4.935   8.564  10.317 -0.2746 -0.2486 -0.1187
30647SOL    HW198799   4.849   8.603  10.334 -0.4488  0.7022 -2.6984
30647SOL    HW298800   4.920   8.503  10.245  0.9295 -1.3706  0.5420
30648SOL     OW98801   3.168   5.357   6.614  0.5290  0.0922  0.1360
30648SOL    HW198802   3.127   5.297   6.551  1.4424 -0.0852 -0.2996
30648SOL    HW298803   3.148   5.445   6.580 -1.0560  0.0829  0.9276
30649SOL     OW98804   8.839  11.678  12.339  0.4951  0.0016  0.3483
30649SOL    HW198805   8.879  11.655  12.254 -1.5718 -0.5825 -0.5169
30649SOL    HW298806   8.745  11.682  12.321  0.0731  0.6113  2.4710
30650SOL     OW98807   6.322   5.063  10.685 -0.0709  0.0775 -0.0052
30650SOL    HW198808   6.407   5.066  10.730 -0.1625 -2.1398  0.4304
30650SOL    HW298809   6.311   5.151  10.648  2.5043  0.3589 -0.2672
30651SOL     OW98810   9.223   5.540   6.887  0.4120  0.1514 -1.1906
30651SOL    HW198811   9.290   5.518   6.823  0.3715  1.8660 -1.8771
30651SOL    HW298812   9.265   5.606   6.943 -0.0440 -0.2470 -0.3612
30652SOL     OW98813   8.801   2.241   8.544  0.3279  0.7027 -0.1312
30652SOL    HW198814   8.883   2.283   8.519 -0.6034  2.5728 -0.1706
30652SOL    HW298815   8.779   2.184   8.470  0.5560  1.7411 -1.0113
30653SOL     OW98816   9.546  12.187   2.026 -0.1423  0.1277 -0.0756
30653SOL    HW198817   9.630  12.221   1.996  0.9613 -1.2721  1.2238
30653SOL    HW298818   9.527  12.235   2.106 -0.3796  0.1731 -0.1580
30654SOL     OW98819   9.750   1.062   2.218 -0.2630  0.2838  0.1483
30654SOL    HW198820   9.823   1.002   2.233 -0.0512  0.7652  1.1406
30654SOL    HW298821   9.759   1.128   2.286 -0.6786  1.2730 -0.7311
30655SOL     OW98822   8.959   0.494   5.201  0.1901  0.1361  0.1643
30655SOL    HW198823   9.007   0.433   5.257 -0.2850 -0.9506 -0.5804
30655SOL    HW298824   8.950   0.448   5.117 -0.1507  1.2470 -0.4304
30656SOL     OW98825   8.086   0.504   9.043 -0.0172 -0.3669 -0.2765
30656SOL    HW198826   8.041   0.536   9.122  0.6357  2.2162 -0.8505
30656SOL    HW298827   8.172   0.477   9.075  0.5660  1.4899 -0.1572
30657SOL     OW98828   8.565   9.883  10.471 -0.1821 -0.7906  0.6873
30657SOL    HW198829   8.638   9.941  10.491 -1.9560  1.8067  0.0783
30657SOL    HW298830   8.559   9.825  10.547  1.2090  0.3260  1.6919
30658SOL     OW98831   7.185   9.417   0.280  0.4081 -0.4124  0.3520
30658SOL    HW198832   7.133   9.385   0.207 -1.7525 -1.2404  2.1365
30658SOL    HW298833   7.259   9.356   0.285  0.5862 -0.3541 -1.0787
30659SOL     OW98834   9.936   8.292   8.283 -0.0664  0.1386  0.0673
30659SOL    HW198835   9.887   8.335   8.353  1.1540  0.7510  0.5718
30659SOL    HW298836   9.932   8.353   8.210 -4.0443 -1.8029 -1.6501
30660SOL     OW98837   2.836   3.408  10.279  0.0910  0.5717 -0.7812
30660SOL    HW198838   2.904   3.475  10.289  1.1335 -0.4938 -0.3405
30660SOL    HW298839   2.875   3.330  10.320 -0.8412 -0.4455 -1.7946
30661SOL     OW98840   6.364  12.351   5.650 -0.3484 -0.0688 -0.2135
30661SOL    HW198841   6.367  12.423   5.714  1.4989 -0.5180  0.2679
30661SOL    HW298842   6.412  12.385   5.574  0.4360 -0.7319 -0.0279
30662SOL     OW98843   9.835   8.989   0.533 -0.0550  0.2421  0.4198
30662SOL    HW198844   9.875   8.935   0.601  0.6693  0.5420  0.2383
30662SOL    HW298845   9.906   9.045   0.501 -0.1877 -0.4295 -1.1305
30663SOL     OW98846   8.040   6.244   8.740  0.4136 -0.2845  0.1400
30663SOL    HW198847   7.991   6.299   8.802  0.4989 -0.2158  0.1450
30663SOL    HW298848   8.002   6.266   8.655  0.6230 -0.0278  0.1112
30664SOL     OW98849   6.495   6.988   2.654  0.0808 -0.8370 -0.0504
30664SOL    HW198850   6.531   7.026   2.574  0.3401 -1.1681 -0.0911
30664SOL    HW298851   6.478   7.063   2.710 -0.4990 -0.5686 -0.5758
30665SOL     OW98852   6.791   1.731   1.542 -0.5503 -0.6555 -0.3670
30665SOL    HW198853   6.735   1.676   1.488  0.6651 -2.6163  0.2573
30665SOL    HW298854   6.815   1.676   1.616  1.7618  0.2485 -0.3559
30666SOL     OW98855  12.534   4.751   6.260  0.3365  0.3624 -0.3036
30666SOL    HW198856  12.503   4.661   6.263 -1.2840  0.7959 -2.1859
30666SOL    HW298857  12.455   4.804   6.252  1.3160  1.8879 -0.3562
30667SOL     OW98858  11.609   6.382   4.884 -0.2635 -0.2991  0.5548
30667SOL    HW198859  11.566   6.394   4.968 -0.0798 -2.8143  1.0774
30667SOL    HW298860  11.573   6.300   4.849  1.2063 -0.4134 -0.8291
30668SOL     OW98861   7.646   0.863   5.246  0.4070 -0.2910  0.2801
30668SOL    HW198862   7.679   0.952   5.254 -0.2836  0.0208 -0.2254
30668SOL    HW298863   7.668   0.836   5.157  1.0961 -0.8376  0.6040
30669SOL     OW98864   2.511  10.613   8.442  0.2371 -0.7638 -0.2457
30669SOL    HW198865   2.574  10.566   8.388 -1.5065 -0.0413 -3.0831
30669SOL    HW298866   2.447  10.546   8.468  1.0297 -1.0924  0.9732
30670SOL     OW98867  10.436   6.868   3.628  0.3733 -0.0259  0.3466
30670SOL    HW198868  10.456   6.953   3.667  2.2849 -0.4819  0.4363
30670SOL    HW298869  10.509   6.812   3.653  1.0919 -0.6859 -2.8064
30671SOL     OW98870  12.276   8.812   4.701 -0.1609 -0.5339  0.0831
30671SOL    HW198871  12.212   8.858   4.755  1.2650  0.6686  0.8173
30671SOL    HW298872  12.332   8.767   4.764  1.5076  0.8637 -0.3224
30672SOL     OW98873   4.149   1.923   4.304  0.0406  0.1177  0.8849
30672SOL    HW198874   4.207   1.959   4.236  1.7864 -2.2387  1.0072
30672SOL    HW298875   4.166   1.978   4.381  0.3420  0.9026  0.2803
30673SOL     OW98876   2.765  10.315  10.142  0.1833  0.2362  0.2751
30673SOL    HW198877   2.858  10.292  10.140 -0.3916 -2.3120 -0.0768
30673SOL    HW298878   2.760  10.389  10.203  2.2509 -0.4552  1.3772
30674SOL     OW98879   3.572   8.930   4.347  0.2176  0.1692 -0.3599
30674SOL    HW198880   3.656   8.886   4.361  0.2301 -0.1782 -1.4400
30674SOL    HW298881   3.507   8.862   4.363  0.1899  0.1041 -0.7449
30675SOL     OW98882  10.130  10.438   5.360  0.1704 -0.6097 -0.5118
30675SOL    HW198883  10.144  10.352   5.321  0.6442 -0.7447 -0.0713
30675SOL    HW298884  10.104  10.494   5.288 -0.5302 -1.2132 -0.7365
30676SOL     OW98885   1.347   5.761   0.102 -0.1370  0.0689 -0.1266
30676SOL    HW198886   1.392   5.764   0.018  2.1117  0.9095  1.0167
30676SOL    HW298887   1.257   5.786   0.082  0.1714 -0.4259 -2.3609
30677SOL     OW98888   0.202   7.706   6.068 -0.2952 -0.1108 -0.3201
30677SOL    HW198889   0.128   7.752   6.107 -1.9764 -1.3827 -1.8319
30677SOL    HW298890   0.164   7.626   6.031  1.8385 -0.8185 -1.1591
30678SOL     OW98891   3.616   4.676  11.159 -0.1753  0.0708  0.0250
30678SOL    HW198892   3.577   4.590  11.144 -1.2504  0.7675 -1.4448
30678SOL    HW298893   3.543   4.732  11.186  0.4652  0.5923  0.7253
30679SOL     OW98894   6.817   2.802   5.787  1.0394 -0.3844  0.0400
30679SOL    HW198895   6.751   2.857   5.745  1.8150 -0.3715 -1.2224
30679SOL    HW298896   6.890   2.862   5.803  0.8986 -0.4766  1.0938
30680SOL     OW98897  10.722   0.348  10.502  0.2750  0.3300  0.0320
30680SOL    HW198898  10.766   0.266  10.526  2.3765  1.2929 -0.2774
30680SOL    HW298899  10.692   0.384  10.585 -0.1392 -0.4665  0.2359
30681SOL     OW98900   0.208  10.582   2.077 -0.3275  0.5084 -0.5206
30681SOL    HW198901   0.214  10.495   2.116 -1.3334  0.4951 -0.3679
30681SOL    HW298902   0.234  10.642   2.146  1.7288  0.2845 -1.0274
30682SOL     OW98903  11.886   8.658   9.047 -0.0491  0.0796 -0.3394
30682SOL    HW198904  11.975   8.687   9.028 -0.3279  0.7383 -0.6723
30682SOL    HW298905  11.881   8.569   9.013  1.1085 -0.7570  1.5233
30683SOL     OW98906   5.235   7.639   1.041  0.2952 -0.5967  0.0198
30683SOL    HW198907   5.250   7.729   1.012  0.9031 -0.7087 -0.0450
30683SOL    HW298908   5.286   7.585   0.980 -0.1912 -0.9950 -0.0363
30684SOL     OW98909   3.094   9.554   1.555  0.5668  0.1815 -0.0935
30684SOL    HW198910   3.161   9.492   1.527  0.1542 -1.5921  2.4008
30684SOL    HW298911   3.141   9.619   1.607  0.8121  1.1503 -1.5039
30685SOL     OW98912   3.824   8.995   7.771  0.4151  0.5579 -0.5179
30685SOL    HW198913   3.800   9.067   7.711 -0.5283  0.9617  0.3201
30685SOL    HW298914   3.883   9.035   7.834 -1.0632  0.9473  0.6840
30686SOL     OW98915   2.695   8.457   1.050 -0.5570 -0.2399  0.2409
30686SOL    HW198916   2.661   8.527   1.106 -0.0981 -0.4560  0.8059
30686SOL    HW298917   2.746   8.402   1.110 -1.0672 -1.1592 -0.1545
30687SOL     OW98918   6.043   0.599   4.405 -0.5789 -0.8936  0.1409
30687SOL    HW198919   6.090   0.587   4.323 -0.4712 -1.5085  0.2874
30687SOL    HW298920   5.966   0.543   4.398 -1.0653 -0.2363  0.0889
30688SOL     OW98921  10.717   4.133   4.352 -0.3164 -0.0187 -0.4327
30688SOL    HW198922  10.692   4.160   4.263 -0.8195 -1.6679 -0.8263
30688SOL    HW298923  10.812   4.146   4.354 -0.6579  3.3295  0.0189
30689SOL     OW98924   8.884   8.561   2.129  0.3651 -0.0682 -0.1171
30689SOL    HW198925   8.840   8.478   2.147  1.3916 -0.6453 -0.2042
30689SOL    HW298926   8.815   8.627   2.138 -1.1941 -1.1391 -2.9669
30690SOL     OW98927   2.696   9.452   8.680 -0.0005 -0.1912  0.4572
30690SOL    HW198928   2.653   9.494   8.754  1.6345  1.1017  0.7359
30690SOL    HW298929   2.637   9.466   8.606 -1.9058 -1.9479  1.5453
30691SOL     OW98930   2.839  12.407   0.702 -0.4463 -0.4027  0.1160
30691SOL    HW198931   2.748  12.430   0.721 -1.1064 -2.7321  0.0757
30691SOL    HW298932   2.845  12.314   0.723  2.0583 -0.2046  0.4889
30692SOL     OW98933  10.478   8.094   3.617  0.0184  0.8843  0.5105
30692SOL    HW198934  10.557   8.109   3.564 -0.5452  1.3553 -0.2200
30692SOL    HW298935  10.453   8.181   3.648 -0.9374  0.9213 -0.3315
30693SOL     OW98936   1.952   1.768   5.670 -0.1941 -0.2922  0.0698
30693SOL    HW198937   2.036   1.743   5.633  1.0938  1.1253  1.8201
30693SOL    HW298938   1.919   1.835   5.610 -0.1064 -0.8700 -0.6389
30694SOL     OW98939   1.880   1.094  10.091 -0.1258 -1.0700  0.4104
30694SOL    HW198940   1.940   1.078  10.019 -1.4379  0.0107 -0.9786
30694SOL    HW298941   1.793   1.084  10.053 -0.8926  1.3903  1.3202
30695SOL     OW98942   5.874   0.026   2.303 -0.4738  0.5847 -0.0088
30695SOL    HW198943   5.957   0.073   2.309 -0.1708  0.0363  0.0972
30695SOL    HW298944   5.807   0.094   2.314 -0.1026  1.4110 -2.2663
30696SOL     OW98945   5.617   1.949   1.789 -0.1753  0.1797 -0.4583
30696SOL    HW198946   5.547   1.896   1.752  0.0289 -0.2916 -0.1755
30696SOL    HW298947   5.673   1.887   1.835 -0.4203  0.7478  0.6457
30697SOL     OW98948  11.240   1.582   9.757  0.2900  0.4540  0.1343
30697SOL    HW198949  11.153   1.602   9.793 -0.1529 -0.5099 -0.3467
30697SOL    HW298950  11.294   1.657   9.781 -0.4706  0.6996  1.1509
30698SOL     OW98951   2.410   5.820   5.139 -0.1520  0.3565  0.1000
30698SOL    HW198952   2.463   5.874   5.080 -0.2925  0.0639 -0.3013
30698SOL    HW298953   2.454   5.735   5.139 -1.1887 -0.2137 -1.0697
30699SOL     OW98954   7.423   0.621   8.798  0.2267  0.1493  0.2854
30699SOL    HW198955   7.500   0.677   8.806  0.0058  0.5524 -0.3118
30699SOL    HW298956   7.393   0.635   8.708 -0.4440 -0.1311  0.4612
30700SOL     OW98957  10.448   8.635   9.521  0.9551  0.5245 -0.4262
30700SOL    HW198958  10.376   8.588   9.562  1.0216  0.9811  0.2334
30700SOL    HW298959  10.514   8.643   9.590  1.4097  0.5957 -0.8609
30701SOL     OW98960   2.829   0.617  11.125 -0.3689  0.2108 -0.3882
30701SOL    HW198961   2.739   0.634  11.151 -0.7895 -0.5324 -1.3153
30701SOL    HW298962   2.827   0.615  11.029  0.9968  2.1474 -0.5279
30702SOL     OW98963  12.101   9.882   7.609  0.6188  0.3171 -0.0781
30702SOL    HW198964  12.120   9.963   7.563 -0.1943  0.3065 -0.4568
30702SOL    HW298965  12.078   9.910   7.698  0.4212  0.4991 -0.1852
30703SOL     OW98966   2.718  11.362   3.841 -0.7330 -0.0418  0.9612
30703SOL    HW198967   2.684  11.354   3.930 -1.8145 -0.5529  0.5225
30703SOL    HW298968   2.655  11.419   3.796 -0.3560 -0.0220  0.4503
30704SOL     OW98969   9.071   9.167  10.362 -0.1995 -0.0819  0.0928
30704SOL    HW198970   9.166   9.169  10.350 -0.2714  1.1759 -0.3890
30704SOL    HW298971   9.051   9.074  10.377  0.9587 -0.5207 -0.8940
30705SOL     OW98972   8.627   5.611   2.757  0.1365 -0.5096  0.0727
30705SOL    HW198973   8.539   5.605   2.720  0.0929  1.7113 -0.2716
30705SOL    HW298974   8.614   5.628   2.850  0.1431  1.1109 -0.1949
30706SOL     OW98975   5.852   6.781   5.603  0.7547  0.4887 -0.0733
30706SOL    HW198976   5.793   6.850   5.574 -1.5371 -0.9429  0.8924
30706SOL    HW298977   5.873   6.732   5.524  0.2155  0.7036 -0.3517
30707SOL     OW98978   3.136  10.995   1.912  0.0889 -0.0685 -0.5748
30707SOL    HW198979   3.220  11.012   1.870 -0.5743 -0.5681 -2.1515
30707SOL    HW298980   3.148  10.909   1.954 -0.0339 -0.7697 -1.9300
30708SOL     OW98981   4.040   4.728   2.932 -0.2711 -0.2549 -0.3063
30708SOL    HW198982   3.994   4.700   2.853 -0.6879  0.0977 -0.1949
30708SOL    HW298983   4.119   4.674   2.934  0.3824  0.5968 -1.6355
30709SOL     OW98984   2.074   3.559   1.560  0.2147 -0.5619 -0.0218
30709SOL    HW198985   2.051   3.493   1.625 -2.3260  0.4346  0.1929
30709SOL    HW298986   2.099   3.636   1.611  0.4842 -0.4847 -0.2634
30710SOL     OW98987   4.973  11.125   5.615  0.2822 -0.4695  0.3920
30710SOL    HW198988   4.960  11.039   5.655  0.0830  0.1647  1.7506
30710SOL    HW298989   4.918  11.184   5.666  1.3654  0.6747  0.2937
30711SOL     OW98990   8.389   1.718   9.526  0.0753 -0.3749  0.0908
30711SOL    HW198991   8.434   1.644   9.566  2.9511  0.5653 -1.1270
30711SOL    HW298992   8.420   1.794   9.575 -0.1086  0.3243 -0.8437
30712SOL     OW98993   6.349   7.386  11.451 -1.2739 -0.4143  0.2102
30712SOL    HW198994   6.257   7.399  11.431 -1.0463 -0.0546 -0.6518
30712SOL    HW298995   6.392   7.379  11.366 -0.8218 -3.1159  0.5641
30713SOL     OW98996   3.135   2.926  10.296  0.2811 -0.6451 -0.1369
30713SOL    HW198997   3.204   2.991  10.314 -0.4049  0.0866 -0.1036
30713SOL    HW298998   3.150   2.857  10.360  0.0632  0.2278  0.8898
30714SOL     OW98999   1.605   2.621   7.057 -0.1132  0.6050 -0.4684
30714SOL    HW199000   1.665   2.690   7.085 -1.3919  0.5105  2.9473
30714SOL    HW299001   1.647   2.540   7.085 -0.1585  0.2217 -1.4636
30715SOL     OW99002   9.043  10.921  12.116 -0.4363  0.2585 -0.2626
30715SOL    HW199003   9.042  10.878  12.031  1.1564 -2.4051  0.9335
30715SOL    HW299004   9.133  10.952  12.127 -1.1194  2.4689 -0.3279
30716SOL     OW99005   0.673  10.116   8.709 -0.3791 -0.1701 -0.1362
30716SOL    HW199006   0.588  10.074   8.725  0.2453 -0.2267  4.2354
30716SOL    HW299007   0.738  10.053   8.739  0.9191  1.4991  0.7553
30717SOL     OW99008   5.271   8.162  10.073 -0.2385 -0.3954  0.4012
30717SOL    HW199009   5.288   8.073  10.040 -2.4710 -0.9484  0.5694
30717SOL    HW299010   5.261   8.215   9.994  0.8775 -0.3072  0.2997
30718SOL     OW99011   1.037   9.385  12.072 -0.2727  0.0852  1.0296
30718SOL    HW199012   1.130   9.394  12.091 -0.2115 -0.2079  0.8787
30718SOL    HW299013   1.019   9.291  12.081 -0.3839  0.0256  0.3105
30719SOL     OW99014   4.197   1.364   0.709  0.1397  0.3140 -0.0642
30719SOL    HW199015   4.226   1.376   0.800  1.3393  0.4060 -0.4472
30719SOL    HW299016   4.276   1.337   0.662 -0.7860 -1.1981 -0.8000
30720SOL     OW99017   2.222   6.392   1.438  0.0515 -0.3359 -0.3361
30720SOL    HW199018   2.229   6.356   1.350 -0.4678 -1.7727  0.1717
30720SOL    HW299019   2.155   6.460   1.431 -2.8262 -2.9553 -0.3885
30721SOL     OW99020   5.415   3.234   8.659 -0.4887 -0.2257  0.0845
30721SOL    HW199021   5.425   3.311   8.604 -0.4288  1.1434  1.9003
30721SOL    HW299022   5.500   3.190   8.653  0.6581  1.6164  1.4394
30722SOL     OW99023   2.851   0.055   4.695 -0.0010 -0.6896 -0.0147
30722SOL    HW199024   2.786   0.125   4.702  0.9179  0.1682  0.2158
30722SOL    HW299025   2.863   0.025   4.785  0.3695 -0.4093  0.0341
30723SOL     OW99026   0.626   8.049   5.906  0.3630 -0.3853  0.0626
30723SOL    HW199027   0.600   8.074   5.817  1.3789  3.2212  0.6267
30723SOL    HW299028   0.548   8.062   5.959  0.7150  1.1564  0.2432
30724SOL     OW99029   7.343   8.731  10.221 -0.1467 -0.6531  0.5627
30724SOL    HW199030   7.375   8.820  10.237 -0.9438 -0.3745  0.6560
30724SOL    HW299031   7.329   8.728  10.126 -3.0403  0.3889  0.8370
30725SOL     OW99032   7.024   5.163  11.333 -0.1915 -0.4234  0.0888
30725SOL    HW199033   7.030   5.259  11.330  1.8482 -0.4152  2.0966
30725SOL    HW299034   6.974   5.144  11.412  0.2940 -1.0310  0.2559
30726SOL     OW99035   3.140   2.294   8.941 -0.2634  0.1646 -0.4110
30726SOL    HW199036   3.086   2.330   9.011  0.8967  2.5342 -0.6323
30726SOL    HW299037   3.167   2.208   8.973 -3.5003 -0.8151 -0.0021
30727SOL     OW99038   5.446   6.015   3.684 -0.4981 -0.0072  0.1548
30727SOL    HW199039   5.364   5.973   3.708 -1.5731  1.7509 -0.2240
30727SOL    HW299040   5.421   6.083   3.621  1.1587  1.0016  0.5131
30728SOL     OW99041   3.009  12.271   2.370 -0.6819 -0.6093  0.1226
30728SOL    HW199042   2.950  12.296   2.298  1.3043  2.4583 -0.6214
30728SOL    HW299043   3.070  12.209   2.331 -0.0292  0.5214 -0.6894
30729SOL     OW99044   4.667   1.068   5.853 -0.1418 -0.4291  0.0643
30729SOL    HW199045   4.704   1.062   5.765 -0.9923 -1.7897 -0.2350
30729SOL    HW299046   4.572   1.074   5.838 -0.3547 -1.4201  0.8807
30730SOL     OW99047  12.334   5.524   8.947 -0.2756 -0.1860  0.1144
30730SOL    HW199048  12.348   5.612   8.913 -1.5793 -0.4130 -1.1233
30730SOL    HW299049  12.394   5.516   9.021  1.3904  0.9902 -1.0541
30731SOL     OW99050   5.208   2.608   5.078 -0.0413 -0.2983  0.1163
30731SOL    HW199051   5.191   2.686   5.130  0.1639 -0.8405  1.0186
30731SOL    HW299052   5.302   2.609   5.063  0.2106 -1.1768  1.4793
30732SOL     OW99053   3.436   6.071   0.693  0.5187  0.2139 -0.3029
30732SOL    HW199054   3.521   6.034   0.669  0.0949 -1.9015  1.1228
30732SOL    HW299055   3.375   6.032   0.630  0.3514  0.1435 -0.0987
30733SOL     OW99056   4.126   6.813   4.657 -0.3818 -0.5523  0.4129
30733SOL    HW199057   4.208   6.766   4.673  2.5881  4.1992  0.8765
30733SOL    HW299058   4.138   6.854   4.571 -3.3809 -1.4947 -0.5924
30734SOL     OW99059   2.175   9.422  11.109  0.5272  0.5407  0.8036
30734SOL    HW199060   2.257   9.372  11.105  1.0289  1.4235 -1.0417
30734SOL    HW299061   2.110   9.365  11.067 -0.0688 -0.5175  3.0194
30735SOL     OW99062   0.654   6.936   6.899 -0.0820  0.1849  0.1737
30735SOL    HW199063   0.587   6.997   6.931 -2.0778 -1.8009  0.0774
30735SOL    HW299064   0.622   6.910   6.813  1.2335 -0.2924 -0.1879
30736SOL     OW99065   4.568   3.533  10.708  0.4807 -0.0766 -0.5815
30736SOL    HW199066   4.577   3.456  10.764 -2.0701 -0.7482 -0.9861
30736SOL    HW299067   4.577   3.607  10.767 -0.6424 -0.7484  0.4653
30737SOL     OW99068  10.166  10.545   0.402  0.2436  0.1129 -0.0419
30737SOL    HW199069  10.137  10.454   0.407  0.6296  0.0631  2.3555
30737SOL    HW299070  10.208  10.552   0.316 -1.6396 -1.3602 -1.1677
30738SOL     OW99071   1.684   0.459   3.929 -0.1399 -0.1220 -0.5556
30738SOL    HW199072   1.617   0.517   3.893  1.0902  1.3042 -0.6417
30738SOL    HW299073   1.723   0.510   4.001  0.4357 -1.1752 -0.1022
30739SOL     OW99074   9.652  10.925  11.635  0.0586  0.2088  0.1135
30739SOL    HW199075   9.685  10.949  11.549 -0.2341  1.1595  0.2515
30739SOL    HW299076   9.623  10.834  11.626  0.3674  0.1858 -0.6839
30740SOL     OW99077   1.044   6.950   8.645 -0.2106 -0.0517 -0.3860
30740SOL    HW199078   1.006   6.885   8.705  0.0626  0.2396  0.1084
30740SOL    HW299079   1.119   6.905   8.606  1.0042  0.4916  1.2096
30741SOL     OW99080  11.613   8.386   6.651  0.0176 -1.0211  0.4145
30741SOL    HW199081  11.521   8.363   6.665 -0.6484  1.7811  1.2941
30741SOL    HW299082  11.610   8.459   6.589  1.8812 -2.4343 -1.4614
30742SOL     OW99083   7.100   1.830   5.372 -0.2239  0.3816 -0.2527
30742SOL    HW199084   7.067   1.740   5.364 -0.2823  0.2064  1.5487
30742SOL    HW299085   7.107   1.845   5.466 -1.2811  2.6744 -0.4769
30743SOL     OW99086   6.085   8.516   5.879 -0.0993  0.1172  0.1133
30743SOL    HW199087   6.121   8.571   5.809  0.9516 -2.0889 -1.1754
30743SOL    HW299088   6.097   8.568   5.959 -3.7265  3.9091 -1.4183
30744SOL     OW99089   5.730   2.491   2.950 -0.2738 -0.0743 -0.3273
30744SOL    HW199090   5.652   2.548   2.945 -0.2153  0.0816  0.4748
30744SOL    HW299091   5.754   2.492   3.042 -0.1208 -1.2161 -0.3460
30745SOL     OW99092   1.008   9.560   0.726 -0.3491  0.2381  0.3567
30745SOL    HW199093   1.040   9.548   0.637 -1.2724 -0.7280  0.1388
30745SOL    HW299094   0.917   9.589   0.716 -0.2387  0.8352  0.9775
30746SOL     OW99095   3.562   0.356   2.121 -0.0307  0.3749 -0.3343
30746SOL    HW199096   3.647   0.325   2.152  0.0946  0.4277 -0.6190
30746SOL    HW299097   3.547   0.437   2.168  0.0474  0.3309 -0.2344
30747SOL     OW99098   7.507   6.629  11.538  0.1970 -0.2367 -0.2740
30747SOL    HW199099   7.450   6.593  11.470 -0.2755 -2.2339  1.1058
30747SOL    HW299100   7.467   6.714  11.560 -1.1266 -0.7337 -0.6921
30748SOL     OW99101   7.925   0.007   5.478  0.1533  0.2159 -0.5088
30748SOL    HW199102   7.891  -0.082   5.478 -1.2339  0.7229 -0.2028
30748SOL    HW299103   7.927   0.032   5.570  0.4814  0.5221 -0.5955
30749SOL     OW99104   0.811   8.262   3.395  0.4068  0.2856 -0.1023
30749SOL    HW199105   0.780   8.260   3.304 -1.4137  0.8182  0.4634
30749SOL    HW299106   0.868   8.338   3.399  1.7720 -0.6136 -1.1312
30750SOL     OW99107  10.834   5.888   0.274 -0.2277  0.1870  0.5686
30750SOL    HW199108  10.892   5.886   0.351  0.6295 -0.6419 -0.0746
30750SOL    HW299109  10.750   5.855   0.306  0.7097 -2.2383  0.7197
30751SOL     OW99110   7.039   2.250   5.002  0.4402  0.2756  0.0789
30751SOL    HW199111   7.087   2.254   4.919  0.4538  0.7242  0.1074
30751SOL    HW299112   7.055   2.161   5.034  0.4173  0.0916 -0.4069
30752SOL     OW99113   8.702   6.078   6.317 -0.3090 -0.1757 -1.1574
30752SOL    HW199114   8.659   5.993   6.310 -3.3699  1.2766 -1.8671
30752SOL    HW299115   8.674   6.113   6.402  0.3699  0.4059 -1.1541
30753SOL     OW99116   8.990   6.765   4.269 -0.2788  0.4186 -0.2615
30753SOL    HW199117   8.914   6.806   4.227 -0.6106 -1.1614 -1.2634
30753SOL    HW299118   9.055   6.756   4.199 -0.4510 -1.3235 -0.2173
30754SOL     OW99119   4.212   7.966   9.791  0.3380  1.0105 -0.3034
30754SOL    HW199120   4.171   7.965   9.704  1.0955  0.8964 -0.6713
30754SOL    HW299121   4.145   8.003   9.849 -1.6280 -2.3127 -0.1850
30755SOL     OW99122  12.280  10.718   8.430 -0.0408  0.0329  0.3175
30755SOL    HW199123  12.252  10.677   8.512 -0.0839 -0.2709  0.1523
30755SOL    HW299124  12.366  10.756   8.450 -0.1933  0.2377  0.5899
30756SOL     OW99125  10.857   3.327   1.314 -0.0161 -0.3711 -0.0673
30756SOL    HW199126  10.766   3.355   1.314 -0.1208 -0.6422  1.6085
30756SOL    HW299127  10.860   3.256   1.250 -1.2193 -1.0547  0.6036
30757SOL     OW99128   8.505   9.599  10.387 -0.4262  0.1633 -0.6455
30757SOL    HW199129   8.483   9.544  10.463  3.1183 -3.2249 -1.7145
30757SOL    HW299130   8.558   9.670  10.423  0.4118 -0.8619  0.2050
30758SOL     OW99131   0.260   7.471   8.903 -0.2189 -0.1065  1.1855
30758SOL    HW199132   0.249   7.559   8.866 -0.3646 -0.4226  0.4771
30758SOL    HW299133   0.354   7.464   8.921  0.1451 -0.5465 -0.6608
30759SOL     OW99134   3.596   6.708   6.014  0.1576  0.0110 -0.2607
30759SOL    HW199135   3.636   6.772   6.073 -0.0792  0.5683 -0.7013
30759SOL    HW299136   3.561   6.640   6.073 -0.3585  0.7200  0.2627
30760SOL     OW99137  10.486   7.096  11.710 -0.0657 -0.3074 -0.2552
30760SOL    HW199138  10.466   7.182  11.748  1.1771  1.3371 -3.0046
30760SOL    HW299139  10.580   7.087  11.719 -0.0165 -0.7598 -1.1514
30761SOL     OW99140   2.290   3.697  10.882  0.5090  0.3398  0.0496
30761SOL    HW199141   2.372   3.673  10.837  1.1787  1.7073  0.4637
30761SOL    HW299142   2.259   3.774  10.834  0.4199  0.8966  0.9876
30762SOL     OW99143   9.542   5.309   3.325  0.5378  0.1234  0.1330
30762SOL    HW199144   9.553   5.275   3.236 -0.9876  0.4268 -0.1859
30762SOL    HW299145   9.493   5.390   3.315 -0.1545 -0.1271  1.2892
30763SOL     OW99146   9.611   7.916   2.904  0.0720 -0.2779 -0.4916
30763SOL    HW199147   9.569   7.973   2.839 -0.7775  0.5685  0.7413
30763SOL    HW299148   9.619   7.832   2.860 -0.6935  0.1953 -1.6135
30764SOL     OW99149   0.405   7.365   4.714 -0.2625 -0.2703 -0.0406
30764SOL    HW199150   0.410   7.437   4.651 -0.4419  1.4517  1.7821
30764SOL    HW299151   0.332   7.312   4.685 -1.1456  1.1937 -0.6034
30765SOL     OW99152  11.211   1.409   4.446  0.1397 -0.3009 -0.5380
30765SOL    HW199153  11.240   1.415   4.355 -0.7313 -0.6037 -0.8465
30765SOL    HW299154  11.123   1.448   4.445  0.2876  0.0728  0.2580
30766SOL     OW99155  11.255   5.167   2.020  0.4496 -0.2727  0.0506
30766SOL    HW199156  11.173   5.198   2.060 -0.4293 -1.3567 -0.8398
30766SOL    HW299157  11.252   5.201   1.931  1.7428  0.9724  0.4334
30767SOL     OW99158   4.628   0.165   1.917  0.2472  0.1339 -0.2065
30767SOL    HW199159   4.607   0.246   1.871 -1.5615 -0.5751 -0.7322
30767SOL    HW299160   4.593   0.096   1.860  1.0043 -0.9636  0.6246
30768SOL     OW99161   0.188   4.222  11.783 -0.2158  0.4790 -0.2771
30768SOL    HW199162   0.113   4.282  11.780  0.7786  1.7049 -1.5958
30768SOL    HW299163   0.165   4.152  11.721 -0.3173  0.7919 -0.5921
30769SOL     OW99164   2.571   2.615   5.521  0.1078  0.4549  0.3216
30769SOL    HW199165   2.560   2.598   5.614  1.6117 -0.8154  0.2895
30769SOL    HW299166   2.587   2.529   5.482 -1.5491  0.8135 -1.2950
30770SOL     OW99167   7.068   8.677   0.368 -0.3317  0.3969 -0.0066
30770SOL    HW199168   7.022   8.758   0.349  0.8638  1.3827  1.1530
30770SOL    HW299169   7.008   8.628   0.426 -0.9777  0.5138 -0.5705
30771SOL     OW99170   1.942   0.907  11.425  0.3571  0.0777 -0.3901
30771SOL    HW199171   1.904   0.833  11.377 -0.2456  0.2523 -0.1962
30771SOL    HW299172   1.875   0.931  11.489  0.4656  0.9261 -0.5837
30772SOL     OW99173   8.563  11.035   1.471 -0.0535  0.1071 -0.2535
30772SOL    HW199174   8.654  11.051   1.445 -0.1752  2.8625  0.6352
30772SOL    HW299175   8.513  11.042   1.389  0.4690 -1.0864 -0.6936
30773SOL     OW99176   2.368  10.773   5.893 -0.3328  0.1424 -0.4984
30773SOL    HW199177   2.337  10.822   5.969 -0.1228 -0.5781  0.0620
30773SOL    HW299178   2.402  10.691   5.929 -0.1954 -0.1955 -1.3656
30774SOL     OW99179   8.000   1.760   5.089 -0.4056  0.3353  0.3714
30774SOL    HW199180   8.056   1.720   5.022  0.2699  3.5273 -1.1789
30774SOL    HW299181   7.915   1.771   5.045 -0.4912  0.8128  0.6454
30775SOL     OW99182   8.280   9.613   5.400 -0.1786  0.2024 -0.4228
30775SOL    HW199183   8.241   9.565   5.327  0.2405  1.7906 -1.7414
30775SOL    HW299184   8.221   9.687   5.415 -0.0835  0.0862  0.6477
30776SOL     OW99185   5.109   2.159  11.412  0.1101  0.5871 -0.0868
30776SOL    HW199186   5.193   2.141  11.370  1.0957 -0.7472  2.2596
30776SOL    HW299187   5.118   2.249  11.445  1.3478 -0.0998  1.5911
30777SOL     OW99188   1.297   7.905   4.428 -0.1683 -0.3641 -0.6239
30777SOL    HW199189   1.253   7.979   4.471 -0.5721 -0.4791 -0.8317
30777SOL    HW299190   1.345   7.944   4.355  2.0873  0.1084  0.9996
30778SOL     OW99191   8.913   9.667  10.584  0.2367 -0.9545  0.6391
30778SOL    HW199192   8.886   9.596  10.526 -1.5817  0.8656 -0.9154
30778SOL    HW299193   8.911   9.745  10.528  4.5278  0.1037  1.5907
30779SOL     OW99194   3.947  11.323   4.569 -0.2794 -0.0774 -0.4212
30779SOL    HW199195   3.885  11.364   4.630 -2.0033 -0.1787 -2.0174
30779SOL    HW299196   4.013  11.283   4.626 -2.4557 -1.2213  1.4782
30780SOL     OW99197   9.018   8.042   2.655 -0.1154 -0.1986 -0.0151
30780SOL    HW199198   8.999   8.135   2.642  1.7448 -0.0731 -2.8091
30780SOL    HW299199   8.989   8.000   2.573  2.2591 -1.4647 -0.2988
30781SOL     OW99200   6.626   0.949   2.192  0.3804 -0.3960 -0.2455
30781SOL    HW199201   6.607   1.003   2.115  0.0652  0.3958  0.3740
30781SOL    HW299202   6.632   0.860   2.158 -1.9214 -0.3646 -0.8729
30782SOL     OW99203   7.332   1.749   5.638  0.1634 -0.1081 -0.9131
30782SOL    HW199204   7.361   1.840   5.642 -0.1972 -0.0120  1.8392
30782SOL    HW299205   7.237   1.756   5.628 -0.2120  0.0126  1.8243
30783SOL     OW99206   4.853   7.559   8.704 -0.0610  0.3455  0.0163
30783SOL    HW199207   4.775   7.568   8.759  0.7418 -1.6817  1.6208
30783SOL    HW299208   4.886   7.648   8.694 -1.2303  0.9615  1.3270
30784SOL     OW99209  11.089   3.015  10.936 -0.2207  0.5082  0.2817
30784SOL    HW199210  11.119   3.076  11.004  0.8917 -0.8914  1.0899
30784SOL    HW299211  11.016   2.969  10.976 -0.4276  0.6263  0.0366
30785SOL     OW99212   5.469   8.668   7.002 -0.5126  0.1839 -0.3573
30785SOL    HW199213   5.435   8.734   6.941  0.7943  1.6071  0.3866
30785SOL    HW299214   5.392   8.633   7.046 -1.2368  1.1804 -0.8144
30786SOL     OW99215   3.606   5.433   8.742 -0.2984  0.1008 -0.7219
30786SOL    HW199216   3.543   5.446   8.671  0.6033  0.9634 -1.3907
30786SOL    HW299217   3.638   5.344   8.729  0.6113  0.5813 -2.0608
30787SOL     OW99218   4.542   4.969   5.557  0.0021 -0.0604  0.0115
30787SOL    HW199219   4.481   4.898   5.540  2.0593 -2.3817  1.6277
30787SOL    HW299220   4.559   4.964   5.651  2.0535  1.0111 -0.2413
30788SOL     OW99221   4.205  10.318   7.353  0.2115 -0.1560 -0.5474
30788SOL    HW199222   4.244  10.294   7.270  1.2778  0.4576 -0.2422
30788SOL    HW299223   4.192  10.413   7.347 -0.1796 -0.1822 -0.1992
30789SOL     OW99224   4.447   6.311  11.967  0.1822  0.0354  0.2067
30789SOL    HW199225   4.369   6.289  11.915  0.6972  2.5416 -1.8543
30789SOL    HW299226   4.416   6.376  12.030  0.5980  1.4286 -0.9556
30790SOL     OW99227  10.610  10.373   1.167  0.3215  0.0799  0.4615
30790SOL    HW199228  10.627  10.312   1.238  1.4387 -0.2000 -0.0241
30790SOL    HW299229  10.608  10.459   1.209  0.1355 -0.1567  0.9425
30791SOL     OW99230  11.265  10.066   1.035  0.0228  0.0677  0.5444
30791SOL    HW199231  11.266  10.020   1.119  1.0413  0.8719  0.9861
30791SOL    HW299232  11.336  10.129   1.041 -0.7421  1.0634 -0.4109
30792SOL     OW99233   2.435   2.714   9.997  0.7416 -0.2414  0.8014
30792SOL    HW199234   2.461   2.729   9.906  3.8180 -2.6398  1.1245
30792SOL    HW299235   2.341   2.697   9.993  0.6369  0.5319 -1.7698
30793SOL     OW99236   8.616   5.797   5.154  0.2682 -0.1007  0.8451
30793SOL    HW199237   8.624   5.809   5.059 -1.5720  0.8186  0.7600
30793SOL    HW299238   8.548   5.859   5.180 -0.8026 -1.8290  2.4379
30794SOL     OW99239   4.936   2.253   3.215 -0.6895  0.0675 -0.4320
30794SOL    HW199240   4.950   2.339   3.254 -3.6617 -0.2633  1.7484
30794SOL    HW299241   4.996   2.195   3.261 -1.1124  0.4390  0.6234
30795SOL     OW99242  11.729   2.133   9.180 -0.1781  0.2307 -0.5999
30795SOL    HW199243  11.804   2.165   9.229 -0.2924 -0.2057 -0.1366
30795SOL    HW299244  11.751   2.043   9.157 -0.1347  0.4202 -1.3376
30796SOL     OW99245   4.951  10.743   6.939  0.1493 -0.3781 -0.6096
30796SOL    HW199246   4.887  10.729   6.869  2.6276  2.5372 -3.7642
30796SOL    HW299247   5.028  10.694   6.911  0.8023 -0.1840  0.7842
30797SOL     OW99248  12.490   5.685  10.688 -0.4433 -0.4310 -0.3478
30797SOL    HW199249  12.536   5.736  10.621  1.2379 -2.1546 -0.6153
30797SOL    HW299250  12.547   5.610  10.703  0.6018  1.0351  4.9217
30798SOL     OW99251   9.847   7.201   4.847  0.0783 -0.3858  0.5349
30798SOL    HW199252   9.841   7.108   4.869  0.8619 -0.5799 -0.0226
30798SOL    HW299253   9.792   7.210   4.769 -1.3161 -0.0383  1.5192
30799SOL     OW99254  10.726   4.082   9.010 -0.1472 -0.7760  0.3520
30799SOL    HW199255  10.821   4.085   8.998 -0.4238  0.7060 -2.1471
30799SOL    HW299256  10.696   4.016   8.947 -0.8219 -0.8489  0.7376
30800SOL     OW99257   6.108   6.071   0.583 -0.3131  0.3563 -0.4661
30800SOL    HW199258   6.012   6.079   0.586 -0.2280  1.2041  0.1580
30800SOL    HW299259   6.139   6.158   0.561  0.3593  0.2773  0.1489
30801SOL     OW99260   3.753   7.363  10.750 -0.2296 -0.5864 -0.4847
30801SOL    HW199261   3.758   7.309  10.829  1.9612 -0.6073 -0.5695
30801SOL    HW299262   3.703   7.309  10.688 -2.7000 -0.2281  1.0731
30802SOL     OW99263   6.085   7.573  10.217 -0.1589 -0.4275  0.0402
30802SOL    HW199264   6.072   7.540  10.306  0.0721 -1.7192 -0.3851
30802SOL    HW299265   6.026   7.520  10.163  1.9035 -1.8101 -0.9865
30803SOL     OW99266   4.213   6.724  12.038 -0.0079  0.6553 -0.2971
30803SOL    HW199267   4.122   6.717  12.066 -0.2846  3.4053 -0.2471
30803SOL    HW299268   4.264   6.709  12.118 -0.3490 -1.2025 -0.3899
30804SOL     OW99269  12.402  11.098  11.144  0.3862 -0.4012 -0.1244
30804SOL    HW199270  12.385  11.027  11.082  0.6915  1.1964 -2.1195
30804SOL    HW299271  12.440  11.054  11.220 -1.5915 -2.6475 -0.3013
30805SOL     OW99272   7.657   5.615   6.842  0.3416  0.0816  0.4152
30805SOL    HW199273   7.694   5.627   6.755  1.6393 -0.8112  0.7985
30805SOL    HW299274   7.563   5.630   6.832  0.7632  2.3451 -0.6372
30806SOL     OW99275   0.195   5.755  10.831 -0.3236 -0.4431  0.2305
30806SOL    HW199276   0.188   5.683  10.768  1.1094 -0.0309 -0.4471
30806SOL    HW299277   0.236   5.825  10.781 -2.4909  1.1998  0.6063
30807SOL     OW99278   9.029   6.792   8.496 -0.6528  0.0342  0.0083
30807SOL    HW199279   9.062   6.784   8.586 -1.2513  1.2774  0.3574
30807SOL    HW299280   8.974   6.870   8.498  2.1124  2.2757 -2.2463
30808SOL     OW99281   0.148   8.875   4.327  0.9562  0.3604 -0.4098
30808SOL    HW199282   0.078   8.891   4.391  0.7605 -0.0896 -0.5068
30808SOL    HW299283   0.176   8.785   4.344  1.2708  0.4222 -0.6032
30809SOL     OW99284   2.154  12.457  11.399 -0.2632  0.0666  0.0359
30809SOL    HW199285   2.139  12.408  11.480  0.8900  1.1123  0.9329
30809SOL    HW299286   2.068  12.465  11.360 -0.9466 -0.0038  1.4482
30810SOL     OW99287  11.520  10.012   0.509 -0.4593 -0.3815 -0.6807
30810SOL    HW199288  11.536   9.934   0.456 -0.2890 -1.0027  0.2725
30810SOL    HW299289  11.552   9.989   0.596 -0.2906  0.8015 -0.4215
30811SOL     OW99290   4.635  11.146   1.073  0.5154 -0.5027  0.1008
30811SOL    HW199291   4.675  11.204   1.138  1.3638  0.8892 -1.5727
30811SOL    HW299292   4.542  11.143   1.096  0.9405 -0.7509  1.8630
30812SOL     OW99293   1.041  10.227   1.120  0.1207 -0.0996 -0.1243
30812SOL    HW199294   0.979  10.181   1.063  0.2773 -1.3367  0.6739
30812SOL    HW299295   0.990  10.299   1.158  0.2409  1.3326 -2.4648
30813SOL     OW99296   3.075   1.303   5.235  0.3217 -0.1156  0.0367
30813SOL    HW199297   3.171   1.302   5.237  0.3129 -0.1742  2.5002
30813SOL    HW299298   3.051   1.394   5.249  0.0316 -0.4156  1.6099
30814SOL     OW99299   8.285   2.823  11.535 -0.4240 -0.9124  0.0697
30814SOL    HW199300   8.380   2.815  11.538 -0.2840  0.0494 -1.0324
30814SOL    HW299301   8.256   2.744  11.490  0.1430  0.1789 -2.3458
30815SOL     OW99302  12.420   7.369   5.298  0.2553  0.1131  0.2355
30815SOL    HW199303  12.415   7.286   5.345 -0.6429  0.8261  1.4689
30815SOL    HW299304  12.459   7.347   5.213 -2.2538 -2.0075 -0.4934
30816SOL     OW99305   8.198   9.207   6.700  0.0364  0.1548 -0.0896
30816SOL    HW199306   8.163   9.238   6.616  0.0726 -1.0948 -0.5835
30816SOL    HW299307   8.121   9.199   6.756  0.1017  1.7730  0.2882
30817SOL     OW99308   2.601   6.620  12.017 -0.0605 -0.1234  0.1989
30817SOL    HW199309   2.543   6.547  12.040  0.3435 -0.3179  0.6294
30817SOL    HW299310   2.619   6.609  11.924  0.9884 -1.3158  0.5081
30818SOL     OW99311   7.607   2.797  11.528  0.3564  0.2642  0.2614
30818SOL    HW199312   7.548   2.724  11.548  1.0655 -0.2714  0.4372
30818SOL    HW299313   7.695   2.762  11.543  0.8768  0.2908 -2.2073
30819SOL     OW99314  12.474   0.742   0.666 -0.1063 -0.4349  0.0466
30819SOL    HW199315  12.400   0.683   0.654 -0.3431 -0.0119 -0.5945
30819SOL    HW299316  12.436   0.823   0.700  0.2034 -0.6067  0.8172
30820SOL     OW99317   4.050   9.176   8.226 -0.5269 -0.0415 -0.5881
30820SOL    HW199318   4.094   9.203   8.307  1.2992  0.8568 -1.7919
30820SOL    HW299319   4.028   9.259   8.183 -2.0483 -0.5082 -0.7464
30821SOL     OW99320   6.872  11.903   9.611 -0.1024  0.0480  0.7401
30821SOL    HW199321   6.824  11.973   9.568 -0.0363  0.3506  1.1581
30821SOL    HW299322   6.909  11.852   9.539 -1.0828 -0.2259  0.4050
30822SOL     OW99323   3.734   2.642   0.747 -0.1228  0.2675  0.1831
30822SOL    HW199324   3.793   2.588   0.800 -0.8440  0.8403  1.6085
30822SOL    HW299325   3.722   2.591   0.666 -0.4691 -1.5415  1.3083
30823SOL     OW99326  12.449   0.291  10.807 -0.0486  0.4195 -0.4462
30823SOL    HW199327  12.496   0.336  10.878  0.7300  1.3476 -1.5109
30823SOL    HW299328  12.510   0.224  10.776 -0.3486  0.0848 -0.3240
30824SOL     OW99329   5.984   0.456   5.717  0.0767  0.1201  0.0067
30824SOL    HW199330   5.966   0.547   5.740 -2.3932 -0.6294  1.3554
30824SOL    HW299331   6.069   0.438   5.757  1.1542  2.1030 -1.2398
30825SOL     OW99332  10.168  10.197   1.439 -0.1809 -0.5352  0.0219
30825SOL    HW199333  10.083  10.234   1.415 -0.3374  0.1589  1.5085
30825SOL    HW299334  10.153  10.103   1.444 -0.1327 -0.7268 -2.4368
30826SOL     OW99335   3.055  11.827   6.157  0.4165  0.6942 -0.0760
30826SOL    HW199336   3.013  11.818   6.243 -1.2527  0.2599 -0.8903
30826SOL    HW299337   3.126  11.889   6.171  0.6467  0.0796  1.7709
30827SOL     OW99338   4.137   6.103   5.494  0.0836  0.1047 -0.0245
30827SOL    HW199339   4.048   6.133   5.473  0.4023 -0.0076 -1.6588
30827SOL    HW299340   4.141   6.014   5.460  0.7990  0.0811  0.1110
30828SOL     OW99341   8.913   6.278   7.186 -0.2172  0.0580  0.5037
30828SOL    HW199342   8.958   6.309   7.265 -0.2877  1.0288  0.1762
30828SOL    HW299343   8.895   6.357   7.136 -2.1547 -0.3101  0.5422
30829SOL     OW99344   9.769   7.278   6.048 -0.3390  0.2041 -0.4905
30829SOL    HW199345   9.675   7.290   6.035 -0.6366 -1.3141  0.1285
30829SOL    HW299346   9.777   7.231   6.131  1.0241  0.9966 -0.1273
30830SOL     OW99347  10.613   3.396   2.856 -0.3131 -0.5855 -0.2066
30830SOL    HW199348  10.614   3.348   2.773 -0.5567 -0.0279 -0.5378
30830SOL    HW299349  10.577   3.333   2.919 -2.5749 -0.2432 -1.0411
30831SOL     OW99350   3.458   1.316  10.564 -0.0510 -0.3159  0.4965
30831SOL    HW199351   3.550   1.324  10.537 -0.0425 -0.4608  0.4805
30831SOL    HW299352   3.413   1.385  10.515 -0.3968 -1.9262 -1.5896
30832SOL     OW99353   4.390   4.569  11.139 -0.5257 -0.2012  1.0794
30832SOL    HW199354   4.407   4.641  11.200  0.6470  0.4599  0.0186
30832SOL    HW299355   4.302   4.587  11.105 -0.0204  1.1284  0.3598
30833SOL     OW99356  11.239   9.981  10.554  0.3841 -0.0396 -0.4557
30833SOL    HW199357  11.254  10.072  10.580 -0.7315 -0.0907  0.4777
30833SOL    HW299358  11.296   9.968  10.478  1.5636  1.0242  0.2030
30834SOL     OW99359   7.216   8.592   1.167  0.1154  0.4118  0.6027
30834SOL    HW199360   7.208   8.553   1.255  1.4458  1.2240  1.1224
30834SOL    HW299361   7.273   8.531   1.120 -1.0210 -0.2980  0.1031
30835SOL     OW99362   5.581   3.512   3.477  0.3118  0.1031 -0.0298
30835SOL    HW199363   5.603   3.443   3.541  0.8667  1.1739  0.9665
30835SOL    HW299364   5.535   3.465   3.407 -0.3226 -1.1112  1.1436
30836SOL     OW99365   3.885   0.938   7.021 -0.6557  0.4648  0.5588
30836SOL    HW199366   3.853   1.008   7.078 -0.6473  2.0898 -1.3269
30836SOL    HW299367   3.815   0.924   6.958 -0.2102 -0.4699  0.2513
30837SOL     OW99368   1.712   1.592   4.923  0.2757 -0.2240 -0.1060
30837SOL    HW199369   1.679   1.681   4.910 -1.2681 -0.7846 -0.2187
30837SOL    HW299370   1.638   1.544   4.960  1.0137 -1.5286 -0.2455
30838SOL     OW99371   7.736   8.578  12.409 -0.3517  0.1826  0.4733
30838SOL    HW199372   7.655   8.628  12.405 -0.0139  0.6686 -0.5143
30838SOL    HW299373   7.793   8.618  12.343 -1.5230 -3.9628 -3.6415
30839SOL     OW99374  11.978  12.421   0.597  0.1738  0.1957 -0.0445
30839SOL    HW199375  11.954  12.370   0.520 -0.8134  0.1386  0.2816
30839SOL    HW299376  11.895  12.436   0.642  0.6829  0.5888  0.7835
30840SOL     OW99377   9.175   2.019   9.278  0.6506 -0.3906  0.0080
30840SOL    HW199378   9.100   1.995   9.332  0.7888  0.2894  0.5203
30840SOL    HW299379   9.227   2.077   9.334  0.9256  0.1357 -0.7816
30841SOL     OW99380  11.070   6.308   1.699  0.1117 -0.3263  0.4355
30841SOL    HW199381  11.005   6.260   1.649  0.8051 -1.4811  0.5921
30841SOL    HW299382  11.062   6.274   1.788  0.4954 -0.0350  0.5842
30842SOL     OW99383  12.236   9.570  10.607 -0.3570 -0.2277 -0.7099
30842SOL    HW199384  12.321   9.525  10.603  0.3637  1.1451 -1.6209
30842SOL    HW299385  12.203   9.565  10.517 -0.4529  0.6990 -0.7323
30843SOL     OW99386   8.043   7.662   0.599 -0.0358 -0.1087 -0.5660
30843SOL    HW199387   8.124   7.653   0.550 -0.8194 -1.5503 -1.6862
30843SOL    HW299388   8.004   7.743   0.567  0.4484  0.0187 -0.8279
30844SOL     OW99389   0.289   4.208   4.680  0.0444 -0.1561 -0.1627
30844SOL    HW199390   0.301   4.173   4.768  0.2125 -1.5231 -0.7087
30844SOL    HW299391   0.206   4.256   4.684  1.1568  1.8191  1.3178
30845SOL     OW99392   2.928   1.052   6.803 -0.3363  0.1099 -0.2100
30845SOL    HW199393   2.860   1.056   6.735 -0.1939  1.4399 -0.2933
30845SOL    HW299394   2.986   1.126   6.784  0.5152 -0.3408  0.5267
30846SOL     OW99395   1.193   6.073   0.707  0.7288 -0.3209  0.0133
30846SOL    HW199396   1.203   6.155   0.754 -1.5717  0.0731 -0.0684
30846SOL    HW299397   1.257   6.014   0.748  1.4326  1.0911  1.0297
30847SOL     OW99398   7.065  12.489   3.466  0.3644  0.3719 -0.3955
30847SOL    HW199399   7.112  12.448   3.539  1.4113  0.6623 -0.8885
30847SOL    HW299400   7.001  12.546   3.509  0.5411  0.0655  0.2975
30848SOL     OW99401  11.336  10.171   0.361 -0.5126 -0.3395 -0.3754
30848SOL    HW199402  11.380  10.254   0.342  0.7591 -0.6757  0.9508
30848SOL    HW299403  11.401  10.120   0.410 -1.8256 -1.5049  0.2070
30849SOL     OW99404   3.237   5.670   4.130 -0.4112 -0.3842  0.1128
30849SOL    HW199405   3.238   5.631   4.217  0.6627 -1.5011 -0.3618
30849SOL    HW299406   3.226   5.595   4.070 -3.6435  0.5541 -0.6720
30850SOL     OW99407   0.140   5.984   1.510 -0.0545 -0.2454  0.6240
30850SOL    HW199408   0.180   5.897   1.523 -0.6077 -0.3474  1.7118
30850SOL    HW299409   0.084   5.973   1.434  0.3798 -0.6615  0.3532
30851SOL     OW99410   0.767   6.738  11.727  0.0326 -0.2922 -0.7206
30851SOL    HW199411   0.699   6.764  11.664 -0.9013  4.3429  1.7466
30851SOL    HW299412   0.720   6.697  11.799  0.2610  0.0015 -0.3978
30852SOL     OW99413  10.172   7.967   2.282  0.0437 -0.0207  0.1800
30852SOL    HW199414  10.094   7.911   2.280 -1.2180  1.6832 -0.1395
30852SOL    HW299415  10.218   7.940   2.362 -0.4137 -1.6270 -0.0601
30853SOL     OW99416  10.274   3.010   6.844 -0.4861 -0.8520 -0.0885
30853SOL    HW199417  10.184   3.016   6.876  0.2134  1.2598  1.7088
30853SOL    HW299418  10.270   3.042   6.754 -1.3775  0.3969  0.3649
30854SOL     OW99419   6.453  11.934   6.737  0.2318 -0.0372  0.0379
30854SOL    HW199420   6.474  11.932   6.831  0.5118 -1.5751 -0.0373
30854SOL    HW299421   6.530  11.973   6.696  0.2579  0.3072  0.4023
30855SOL     OW99422   7.995   6.935   2.548  0.4528 -0.5331  0.0900
30855SOL    HW199423   8.025   6.849   2.519 -0.6438 -1.3965  1.3747
30855SOL    HW299424   8.057   6.997   2.509 -0.7094 -1.5500 -3.8291
30856SOL     OW99425   8.736  10.941   5.092 -0.1021  0.8699  0.1488
30856SOL    HW199426   8.811  10.985   5.052  2.0389 -1.8431  0.8761
30856SOL    HW299427   8.705  10.880   5.024 -0.9079  1.1375  0.2643
30857SOL     OW99428   4.859  11.495   1.182  0.6406  0.3010 -0.4254
30857SOL    HW199429   4.879  11.460   1.269 -2.2639 -0.8610 -0.1153
30857SOL    HW299430   4.821  11.581   1.199  0.5932  0.3080 -0.5690
30858SOL     OW99431   9.218   4.474   1.299  0.5529  0.0218 -0.3784
30858SOL    HW199432   9.135   4.488   1.252  0.0807 -0.9988  0.1229
30858SOL    HW299433   9.266   4.411   1.245  0.5981 -0.1123 -0.1793
30859SOL     OW99434   8.715   7.991   0.326  0.0260  0.1059  0.1199
30859SOL    HW199435   8.725   7.911   0.274  0.6233  0.2921 -0.0541
30859SOL    HW299436   8.790   8.045   0.302  0.3999  0.1329  1.3034
30860SOL     OW99437  10.517   3.620   8.892  0.0662 -0.1054  0.0596
30860SOL    HW199438  10.516   3.695   8.951  0.6899 -0.0210 -0.0268
30860SOL    HW299439  10.539   3.658   8.806  2.3703 -0.5954  0.3691
30861SOL     OW99440  10.373   1.986   1.243 -0.5269  0.4776 -0.7720
30861SOL    HW199441  10.440   2.032   1.292  0.1732  0.2225 -1.4721
30861SOL    HW299442  10.386   1.894   1.264 -0.8503  0.4492 -0.6844
30862SOL     OW99443   7.022  11.572   6.377  0.3141  0.4532 -0.4014
30862SOL    HW199444   7.034  11.477   6.380 -1.0032  0.2849  0.3102
30862SOL    HW299445   6.958  11.590   6.445 -0.9144  1.6050 -1.7854
30863SOL     OW99446  12.060   2.963   4.955  0.1946  0.3003 -0.3752
30863SOL    HW199447  11.968   2.974   4.978 -0.0991  0.7008 -1.6416
30863SOL    HW299448  12.108   2.982   5.035 -0.7881  0.8835  0.0893
30864SOL     OW99449   7.693   5.796  10.021 -0.6154 -0.1188  0.6291
30864SOL    HW199450   7.706   5.703  10.036  1.6841 -0.1508 -1.0975
30864SOL    HW299451   7.678   5.804   9.927 -1.4919  1.2094  0.8426
30865SOL     OW99452   4.609   6.940   5.645  0.2255  0.3428 -0.1921
30865SOL    HW199453   4.685   6.996   5.630  0.4515 -0.4036 -2.0171
30865SOL    HW299454   4.646   6.857   5.675 -0.1260  1.1738  2.9511
30866SOL     OW99455   9.606   8.726   7.170  0.3211  0.4016 -0.5622
30866SOL    HW199456   9.642   8.667   7.236  0.8116  1.6929  0.3441
30866SOL    HW299457   9.608   8.813   7.210 -2.9230  0.7248 -0.7955
30867SOL     OW99458   1.801   4.330   0.990 -0.3704  0.0700  0.2202
30867SOL    HW199459   1.811   4.377   1.072 -0.2358  0.6042 -0.0954
30867SOL    HW299460   1.873   4.267   0.988  0.7353  1.3075 -0.3206
30868SOL     OW99461   2.133  11.308  11.531 -0.1948  0.1302  0.0589
30868SOL    HW199462   2.064  11.336  11.591 -1.3025 -1.3944 -0.4217
30868SOL    HW299463   2.184  11.243  11.580  0.6598  0.9380  0.2680
30869SOL     OW99464   0.764   3.736   0.629  0.1985 -0.1646 -0.0362
30869SOL    HW199465   0.771   3.699   0.541  1.9905 -0.2810  0.1333
30869SOL    HW299466   0.707   3.676   0.676 -1.8192  0.5499 -1.4227
30870SOL     OW99467   3.345   5.195   5.149  0.2844 -0.0603 -0.5320
30870SOL    HW199468   3.259   5.192   5.190 -0.6369 -0.7432 -2.4175
30870SOL    HW299469   3.363   5.105   5.122  1.3142  0.1907 -0.7379
30871SOL     OW99470  10.902   5.477   7.928 -0.0373 -0.0742  0.1348
30871SOL    HW199471  10.828   5.419   7.944 -1.4915  1.4222 -0.7388
30871SOL    HW299472  10.943   5.444   7.848 -0.3088 -0.4180  0.1390
30872SOL     OW99473  11.199   4.479   6.710 -0.5760 -0.7707  0.1453
30872SOL    HW199474  11.223   4.523   6.628 -0.7636  0.2381  0.6070
30872SOL    HW299475  11.281   4.476   6.759 -0.6755 -0.4101  0.3407
30873SOL     OW99476   3.442   7.694   8.344 -0.3397 -0.1355  0.0916
30873SOL    HW199477   3.352   7.669   8.326 -0.1564 -0.4974 -0.3382
30873SOL    HW299478   3.485   7.612   8.368  0.3593 -0.3461 -1.6938
30874SOL     OW99479   1.422   1.632   5.112 -0.2373  0.3627 -0.2552
30874SOL    HW199480   1.373   1.698   5.162 -2.2292 -0.3988 -1.0888
30874SOL    HW299481   1.385   1.549   5.142  1.0095 -0.2967 -0.4969
30875SOL     OW99482   0.125   6.347   4.441  0.5023  0.6331 -0.1338
30875SOL    HW199483   0.155   6.429   4.401 -0.4222  0.7340 -0.6354
30875SOL    HW299484   0.030   6.347   4.430  0.3054  0.2496  1.3101
30876SOL     OW99485   4.963   4.930   1.202 -0.0188  0.1880  0.4327
30876SOL    HW199486   5.013   4.980   1.267  2.3318  0.3568 -1.3919
30876SOL    HW299487   4.960   4.841   1.238  0.2813  0.5120  1.2923
30877SOL     OW99488  10.561   9.117  11.371 -0.4742 -0.1176  0.4548
30877SOL    HW199489  10.654   9.099  11.363 -0.5607 -0.1876 -0.6084
30877SOL    HW299490  10.535   9.147  11.283 -1.2633  0.7888  0.9771
30878SOL     OW99491   4.047   3.598  10.443 -0.4346 -0.7663  0.0913
30878SOL    HW199492   4.057   3.557  10.357  0.6156 -1.3225  0.4671
30878SOL    HW299493   3.958   3.575  10.470 -0.7803 -0.5723 -0.8405
30879SOL     OW99494   5.109   6.307   1.814 -0.3041  0.0274  0.2517
30879SOL    HW199495   5.147   6.220   1.802  0.9568  0.2664  2.0520
30879SOL    HW299496   5.020   6.290   1.845 -0.3699 -0.6098 -0.2707
30880SOL     OW99497   3.526  10.997   8.773  0.1385  0.0364  0.1604
30880SOL    HW199498   3.550  10.948   8.694 -0.3810 -0.2148  0.1563
30880SOL    HW299499   3.576  11.078   8.767  0.5841 -0.2496 -0.1125
30881SOL     OW99500  10.972  11.448  10.464  0.6230 -0.0937  0.1372
30881SOL    HW199501  10.912  11.504  10.513  1.0628  1.2379 -0.7941
30881SOL    HW299502  10.927  11.363  10.458  0.0702  0.0547  1.8191
30882SOL     OW99503   5.294   8.116   5.495  0.1356 -0.1218  0.0681
30882SOL    HW199504   5.330   8.032   5.522  0.0163 -0.0238  0.5351
30882SOL    HW299505   5.369   8.176   5.493  0.0269  0.0471  0.8963
30883SOL     OW99506   2.441   8.531   0.051  0.1030 -0.3226 -0.2114
30883SOL    HW199507   2.485   8.583  -0.017 -1.6434 -0.7587 -1.7473
30883SOL    HW299508   2.366   8.491   0.006 -2.6924  1.4184  2.4660
30884SOL     OW99509   9.359  10.885   6.399  0.1722 -0.6031 -0.5280
30884SOL    HW199510   9.416  10.870   6.323 -2.2788 -0.4218 -2.5761
30884SOL    HW299511   9.362  10.980   6.413  1.1811 -0.7211  0.0779
30885SOL     OW99512   2.609   4.217   5.040 -0.2770  0.0700 -0.2365
30885SOL    HW199513   2.552   4.182   5.109 -0.9570 -0.5978 -1.1056
30885SOL    HW299514   2.696   4.183   5.062 -0.4395  0.0537  0.4102
30886SOL     OW99515   8.163  12.312   2.215  0.2137  0.5576  0.3145
30886SOL    HW199516   8.192  12.293   2.304  1.1949  1.8440  0.2942
30886SOL    HW299517   8.221  12.383   2.185 -2.2512  2.5244 -0.1300
30887SOL     OW99518   6.695   6.564   1.354 -0.2214 -0.6350 -0.0663
30887SOL    HW199519   6.769   6.505   1.362 -0.6320 -1.1080  0.3521
30887SOL    HW299520   6.693   6.612   1.437 -0.6746 -0.9826  0.1309
30888SOL     OW99521   6.443   8.997   6.168 -0.6823 -0.4516  0.2725
30888SOL    HW199522   6.477   9.079   6.133  1.5316 -1.0535  0.8511
30888SOL    HW299523   6.484   8.990   6.255  0.5471 -2.9379 -0.4284
30889SOL     OW99524   3.855   7.298   4.834 -0.4699  0.4345  0.4519
30889SOL    HW199525   3.919   7.227   4.835 -0.6211  0.3096  1.3157
30889SOL    HW299526   3.779   7.262   4.878 -1.9345 -0.1272 -2.2747
30890SOL     OW99527  11.439   2.430   1.221 -0.4754  0.3335  0.1476
30890SOL    HW199528  11.493   2.376   1.164 -0.4265 -0.5763  1.0280
30890SOL    HW299529  11.443   2.518   1.183 -1.7051 -0.5159 -2.1559
30891SOL     OW99530   1.778   9.157  10.396 -0.1617 -0.0534  0.1303
30891SOL    HW199531   1.763   9.245  10.362 -1.5580 -0.5986 -0.7370
30891SOL    HW299532   1.789   9.102  10.318  1.0646 -0.6094  0.6635
30892SOL     OW99533  11.517   5.613   4.625 -0.1544 -0.0693  0.3497
30892SOL    HW199534  11.588   5.674   4.642  1.3081 -1.6711  0.2583
30892SOL    HW299535  11.458   5.623   4.700  0.6744  0.5755  0.9346
30893SOL     OW99536   7.670   2.340  10.523  0.6978  0.7202  0.5359
30893SOL    HW199537   7.702   2.277  10.457 -1.1664  0.0049  0.2609
30893SOL    HW299538   7.579   2.356  10.498  0.8353  2.8016  1.1938
30894SOL     OW99539   1.027   8.995   4.473 -0.0969 -0.0100 -0.1243
30894SOL    HW199540   1.087   8.956   4.409  0.0501 -0.4534  0.2760
30894SOL    HW299541   0.979   9.061   4.423 -0.2503 -0.6055 -0.7989
30895SOL     OW99542   3.067   8.885   0.418 -0.4763  0.3070  0.2996
30895SOL    HW199543   3.114   8.929   0.346 -2.1113  1.2984 -0.2048
30895SOL    HW299544   3.136   8.839   0.466  0.6769 -0.5189 -1.9724
30896SOL     OW99545   7.812  12.512  10.345 -0.1169  0.2195 -0.0679
30896SOL    HW199546   7.761  12.555  10.413  0.6825  0.4158  0.4164
30896SOL    HW299547   7.799  12.418  10.361 -0.9494  0.2645 -0.4341
30897SOL     OW99548   6.271   7.854  12.219 -0.0896 -0.3365 -0.2469
30897SOL    HW199549   6.215   7.875  12.144 -2.6090  2.0606  2.0833
30897SOL    HW299550   6.335   7.926  12.222 -1.2403  0.6894  0.9320
30898SOL     OW99551   9.524   4.967   8.556 -0.0341 -0.5928  0.1578
30898SOL    HW199552   9.561   4.949   8.470 -0.9668 -0.3707 -0.2972
30898SOL    HW299553   9.431   4.982   8.540 -0.0689  0.3199  1.0812
30899SOL     OW99554   7.428   6.523   4.523  0.1919  0.1277 -0.0230
30899SOL    HW199555   7.459   6.434   4.512  1.4227  0.7017 -1.6139
30899SOL    HW299556   7.333   6.515   4.533  0.3317 -1.3675  0.2023
30900SOL     OW99557   7.800   4.637   6.110  1.1797  0.3642 -0.1291
30900SOL    HW199558   7.799   4.542   6.095 -0.3000  0.0008  1.9831
30900SOL    HW299559   7.822   4.673   6.024  2.6385 -1.8914 -0.8183
30901SOL     OW99560   1.899   1.233  12.435 -0.2463  0.5432 -0.0343
30901SOL    HW199561   1.890   1.139  12.419  0.7437  0.2076  1.1694
30901SOL    HW299562   1.810   1.267  12.432 -1.0153 -0.9766  2.4510
30902SOL     OW99563   1.204   3.691   0.762  0.3364  0.1092 -0.8322
30902SOL    HW199564   1.231   3.709   0.672  2.2645 -0.5966 -0.4559
30902SOL    HW299565   1.214   3.775   0.807  0.1096  0.2862 -1.1105
30903SOL     OW99566  11.874  11.949   9.925 -0.0030 -0.2112 -0.1601
30903SOL    HW199567  11.853  12.006   9.851 -2.1377 -1.6928 -0.7992
30903SOL    HW299568  11.795  11.949   9.979  1.6825  1.2917  2.5530
30904SOL     OW99569   8.947  11.949   4.323  0.2472 -0.5987 -0.7627
30904SOL    HW199570   8.946  11.856   4.302 -0.0807 -0.4346 -1.5036
30904SOL    HW299571   9.040  11.973   4.324  0.2760 -0.5302 -2.4612
30905SOL     OW99572  10.295   7.801   5.496 -0.1058  0.0524 -0.0665
30905SOL    HW199573  10.360   7.730   5.496  1.0988  1.1201 -0.9779
30905SOL    HW299574  10.298   7.837   5.584 -0.3927 -0.7105  0.2641
30906SOL     OW99575   5.043   3.811   0.537  0.2334 -0.1425  0.0346
30906SOL    HW199576   4.998   3.727   0.526 -0.0250 -0.1048  0.7189
30906SOL    HW299577   5.136   3.787   0.545  0.1923 -0.3356 -0.0536
30907SOL     OW99578   3.718   4.382   7.853 -0.0688 -0.2282  0.2573
30907SOL    HW199579   3.686   4.311   7.908 -0.5194  1.1778  1.8663
30907SOL    HW299580   3.801   4.408   7.893 -1.3402  2.1365  1.6008
30908SOL     OW99581   6.275  12.074   1.055 -0.1826  0.7940 -0.2198
30908SOL    HW199582   6.350  12.029   1.015 -0.3173  1.5097 -1.3379
30908SOL    HW299583   6.199  12.037   1.010 -0.4523  0.5776  0.4104
30909SOL     OW99584   1.171   7.655   6.468 -0.4510 -0.0060 -0.0504
30909SOL    HW199585   1.105   7.691   6.409 -0.2255  1.1132  0.3666
30909SOL    HW299586   1.250   7.650   6.416 -0.6467 -0.5757 -0.3078
30910SOL     OW99587   4.711   9.925   1.814  0.3541  0.9725  0.2732
30910SOL    HW199588   4.635   9.894   1.864 -0.1001  0.1815 -0.8562
30910SOL    HW299589   4.691  10.016   1.794 -0.4838  0.6562 -0.3501
30911SOL     OW99590   0.966   3.593  12.153  0.5690  0.1806  0.0463
30911SOL    HW199591   0.884   3.591  12.203  0.3750  0.6997 -0.2413
30911SOL    HW299592   0.938   3.614  12.064  1.0432  0.6503  0.0080
30912SOL     OW99593   6.968   3.003  10.971 -0.3497  0.1868 -0.2652
30912SOL    HW199594   7.023   2.967  10.902  0.4618 -0.5053  0.7122
30912SOL    HW299595   6.991   2.952  11.049 -1.2477  0.9385  0.5126
30913SOL     OW99596   0.514  11.266   1.392  0.3411 -0.0825 -0.2688
30913SOL    HW199597   0.547  11.237   1.477  1.9915  1.1217 -0.4413
30913SOL    HW299598   0.422  11.288   1.408  1.4168  3.6894  2.2754
30914SOL     OW99599   7.667   6.647   3.837 -0.0920 -0.5651 -0.4437
30914SOL    HW199600   7.620   6.717   3.881  1.1439  0.0782 -0.0903
30914SOL    HW299601   7.706   6.689   3.760 -1.3639 -1.4403 -1.6210
30915SOL     OW99602   7.774   0.085   0.968 -0.2661  0.2930 -0.4036
30915SOL    HW199603   7.780  -0.003   0.931  0.4594  0.5789 -0.9769
30915SOL    HW299604   7.850   0.092   1.026 -1.4336 -0.1823  1.2656
30916SOL     OW99605   8.973   5.651   3.883 -0.8364  0.3750  0.0443
30916SOL    HW199606   8.964   5.732   3.934 -0.3391  0.0642  0.6428
30916SOL    HW299607   8.883   5.617   3.876 -1.3895  2.0861 -2.1195
30917SOL     OW99608   0.698   9.156   3.853  0.2946 -0.0706 -0.0771
30917SOL    HW199609   0.771   9.209   3.885  0.4929  0.4047 -1.2675
30917SOL    HW299610   0.704   9.162   3.758 -2.7495  2.0534 -0.2825
30918SOL     OW99611   4.154   0.149   3.701  0.2979 -0.2085 -0.8737
30918SOL    HW199612   4.178   0.240   3.681  0.4249  0.1353  0.7239
30918SOL    HW299613   4.237   0.102   3.706  0.2139 -0.5081 -2.0403
30919SOL     OW99614   1.910   4.745   6.698  0.0960  0.6482  0.2384
30919SOL    HW199615   1.891   4.667   6.750  0.3094  0.9149  0.7194
30919SOL    HW299616   1.949   4.807   6.760 -0.6198  1.3603 -0.0036
30920SOL     OW99617   1.212  11.139   0.679  0.1957  0.2342  0.0166
30920SOL    HW199618   1.294  11.098   0.705  1.0574  1.2178 -1.0481
30920SOL    HW299619   1.238  11.210   0.620 -1.3848  0.8991  0.0679
30921SOL     OW99620   4.899   4.835   0.522  0.4638 -0.2534  0.0124
30921SOL    HW199621   4.964   4.773   0.554 -1.0779 -1.5795  0.7638
30921SOL    HW299622   4.815   4.794   0.544 -0.6261  1.2369 -1.1775
30922SOL     OW99623   8.156   3.396   9.516  0.5972  0.4775  0.3088
30922SOL    HW199624   8.201   3.477   9.537  0.5873  0.7600 -0.6797
30922SOL    HW299625   8.063   3.417   9.525  0.6270 -0.1778  2.6007
30923SOL     OW99626   4.062   7.206   4.514  0.4576 -0.1029 -0.1675
30923SOL    HW199627   4.049   7.300   4.526  1.0330 -0.0347 -0.0171
30923SOL    HW299628   4.005   7.182   4.441 -0.6930  0.1043  0.6345
30924SOL     OW99629   0.748   9.491   1.966  0.5147  0.0498 -0.1680
30924SOL    HW199630   0.728   9.421   2.028  0.9875  0.6822  0.7129
30924SOL    HW299631   0.662   9.526   1.941  0.3412  0.3460  0.7928
30925SOL     OW99632   5.794   8.870   5.323 -0.1152  0.1291 -0.3568
30925SOL    HW199633   5.715   8.834   5.283 -0.9889 -1.6440  2.6360
30925SOL    HW299634   5.826   8.800   5.380  0.3411  2.7019  2.8248
30926SOL     OW99635   5.290  11.336   0.237 -0.3000 -0.1661  0.5509
30926SOL    HW199636   5.220  11.350   0.174  0.5347 -1.8378 -0.8180
30926SOL    HW299637   5.284  11.243   0.259  0.8111 -0.0908  1.2363
30927SOL     OW99638   8.818   5.167  11.562  0.3571 -0.3932 -0.2022
30927SOL    HW199639   8.792   5.096  11.621  1.5037  0.1470  1.0124
30927SOL    HW299640   8.741   5.223  11.558  0.9126  0.7978  2.7287
30928SOL     OW99641   3.434   0.681   7.640 -0.2107 -0.0513  0.1422
30928SOL    HW199642   3.425   0.767   7.680 -0.5732 -0.2996  0.6044
30928SOL    HW299643   3.529   0.667   7.636 -0.1584 -0.4992  1.9946
30929SOL     OW99644   8.672  12.074  11.247 -0.0242 -0.4406  0.5130
30929SOL    HW199645   8.723  12.103  11.322  2.2758 -0.4547 -0.9679
30929SOL    HW299646   8.589  12.122  11.255  0.8896  0.9831  2.0367
30930SOL     OW99647   8.757   7.560  10.837  0.0153 -0.2374 -0.3497
30930SOL    HW199648   8.727   7.638  10.883 -2.1674 -0.4718 -1.2680
30930SOL    HW299649   8.811   7.594  10.765  1.2735  0.2451  0.7765
30931SOL     OW99650   1.266   1.491   4.304 -0.0645  0.1942  0.6223
30931SOL    HW199651   1.182   1.449   4.285  0.7914 -0.9088 -0.9415
30931SOL    HW299652   1.319   1.422   4.344  0.0556  0.9477  1.8184
30932SOL     OW99653  11.971   1.262   2.580  0.7581  0.6497 -0.3677
30932SOL    HW199654  12.010   1.345   2.554  1.5091  0.5783  0.4470
30932SOL    HW299655  11.979   1.262   2.676  1.1515 -0.5296 -0.3875
30933SOL     OW99656  11.975   9.930   3.119 -0.4421 -0.3202 -0.2034
30933SOL    HW199657  11.882   9.914   3.104 -0.3664  0.5152 -1.8035
30933SOL    HW299658  11.991  10.016   3.080  0.9101 -0.2521  0.4443
30934SOL     OW99659   4.787   6.251   5.851 -0.1653  0.2454  0.1393
30934SOL    HW199660   4.869   6.212   5.882 -0.4308  0.4861  1.1794
30934SOL    HW299661   4.721   6.184   5.868 -0.4934  0.8133  1.1715
30935SOL     OW99662   0.820   4.347  12.556  0.0077  0.5986 -0.3205
30935SOL    HW199663   0.728   4.328  12.573 -0.0916  1.2098 -0.1409
30935SOL    HW299664   0.867   4.305  12.628 -0.0057 -0.8787 -1.1488
30936SOL     OW99665   6.676   2.772   3.261  0.1015  0.7503 -0.5391
30936SOL    HW199666   6.772   2.777   3.256  0.0775  0.5830 -1.2886
30936SOL    HW299667   6.654   2.813   3.346  0.8200  0.9380 -0.4362
30937SOL     OW99668   6.264   2.651   9.475  0.2059 -0.1985 -0.6793
30937SOL    HW199669   6.253   2.576   9.416  0.0512 -0.7084 -0.0163
30937SOL    HW299670   6.221   2.724   9.430 -0.9944 -0.8678 -0.6491
30938SOL     OW99671   4.541   4.224  10.514  0.1335  0.7585 -0.1049
30938SOL    HW199672   4.481   4.280  10.563  0.4497  1.5614 -0.5995
30938SOL    HW299673   4.595   4.286  10.464  1.8225  0.1064  0.8340
30939SOL     OW99674   0.480  10.407   8.899  0.1515 -0.5958 -0.1718
30939SOL    HW199675   0.457  10.315   8.894  0.6377 -0.6503 -2.1175
30939SOL    HW299676   0.576  10.408   8.897  0.1915 -0.0860  1.1242
30940SOL     OW99677  10.138   1.065   3.431 -0.0506 -0.4366  0.1799
30940SOL    HW199678  10.173   1.121   3.362  0.4412 -0.5417  0.3386
30940SOL    HW299679  10.065   1.115   3.468 -0.9698 -0.8130 -1.0774
30941SOL     OW99680  10.733  11.528  12.511  0.3064  0.7211 -0.1746
30941SOL    HW199681  10.721  11.482  12.428 -0.4375  2.1222 -0.8833
30941SOL    HW299682  10.785  11.468  12.564 -1.6605 -1.4750 -0.5495
30942SOL     OW99683   4.313   2.877   6.687  0.1405  0.1311  0.0913
30942SOL    HW199684   4.350   2.794   6.717 -0.9947 -0.6101 -0.4417
30942SOL    HW299685   4.351   2.890   6.600 -0.1527 -0.1732 -0.0880
30943SOL     OW99686   8.868   5.050   2.282  0.1388  0.1586  0.1174
30943SOL    HW199687   8.911   4.968   2.307  3.7667  2.2768  1.7088
30943SOL    HW299688   8.887   5.060   2.189  1.3481  0.0737  0.3461
30944SOL     OW99689   4.200   0.155   5.066 -0.2313 -0.1824  0.0952
30944SOL    HW199690   4.149   0.105   5.003  0.4286 -2.3322  1.1598
30944SOL    HW299691   4.135   0.187   5.129 -0.4848 -1.5269  0.5553
30945SOL     OW99692   9.502  11.482   6.055 -0.2129  0.4052 -0.1303
30945SOL    HW199693   9.483  11.575   6.065  0.2398  0.5995 -0.9878
30945SOL    HW299694   9.592  11.479   6.025  0.7661 -0.4353  2.5539
30946SOL     OW99695   7.961   4.521   3.002 -0.1520 -0.1720 -0.1167
30946SOL    HW199696   7.989   4.596   3.055 -1.1553  0.2020 -0.0970
30946SOL    HW299697   8.041   4.472   2.987  0.3161  0.2209  0.9538
30947SOL     OW99698   6.936   5.774   6.784  0.1997 -0.0445  0.0482
30947SOL    HW199699   6.874   5.702   6.777 -0.2377  0.3698 -0.5472
30947SOL    HW299700   6.896   5.845   6.734  2.0459 -0.3907 -2.1216
30948SOL     OW99701  10.989   6.560   2.779 -0.4392  0.1342  0.4625
30948SOL    HW199702  10.977   6.518   2.694  0.5573  1.2323 -0.2386
30948SOL    HW299703  11.066   6.517   2.817 -0.8165 -0.2769  0.7797
30949SOL     OW99704   8.665   8.178   7.859 -0.0846  0.5952 -0.0448
30949SOL    HW199705   8.691   8.209   7.772 -1.0476 -0.4849 -0.7452
30949SOL    HW299706   8.625   8.254   7.901 -0.3411  0.9160 -0.8531
30950SOL     OW99707  10.915   8.567  11.961  0.2174  0.1334  0.2306
30950SOL    HW199708  10.832   8.569  11.914  1.1043 -0.8950 -1.4587
30950SOL    HW299709  10.974   8.621  11.908  0.8215  0.2821  1.0383
30951SOL     OW99710   8.825   4.840   9.597 -0.0542  0.6598 -0.4215
30951SOL    HW199711   8.734   4.816   9.613 -0.0992  1.5271  0.7738
30951SOL    HW299712   8.837   4.827   9.503 -1.6672  1.3756 -0.7589
30952SOL     OW99713   6.060   7.073  10.453  0.3158 -0.0460 -0.6151
30952SOL    HW199714   6.007   7.048  10.529  0.9327 -1.0695 -0.5026
30952SOL    HW299715   6.011   7.038  10.378  0.5358 -0.4841 -0.5562
30953SOL     OW99716   4.766   8.828   8.338 -0.1252  0.1246 -0.3507
30953SOL    HW199717   4.824   8.838   8.262  0.6170  0.5914  0.2739
30953SOL    HW299718   4.712   8.751   8.316 -1.1401  1.2697 -2.1219
30954SOL     OW99719   7.732   9.436   0.305  0.3216 -0.2061  0.4199
30954SOL    HW199720   7.774   9.518   0.330 -0.1797  0.0001  0.6100
30954SOL    HW299721   7.749   9.428   0.211  2.0648 -0.8955  0.7694
30955SOL     OW99722   1.882   2.680   2.547  0.4555  0.0198 -0.7045
30955SOL    HW199723   1.930   2.601   2.569  3.1793  1.6832 -0.2477
30955SOL    HW299724   1.852   2.716   2.631 -2.8514 -1.5725 -1.0241
30956SOL     OW99725   8.831   2.845   4.667 -0.1980 -0.7252 -0.5930
30956SOL    HW199726   8.868   2.911   4.609 -2.8188 -0.9497 -2.6830
30956SOL    HW299727   8.893   2.772   4.663  0.2187 -0.3207 -2.2719
30957SOL     OW99728   0.039   2.349   7.584 -0.7009 -0.4435  0.0015
30957SOL    HW199729   0.041   2.293   7.662 -0.2289  0.0956  0.3878
30957SOL    HW299730  -0.006   2.428   7.612 -0.3306 -0.1553 -0.2003
30958SOL     OW99731   8.454   2.139   1.511  0.6777 -0.1989  0.1155
30958SOL    HW199732   8.544   2.171   1.502  0.2565  0.6814 -1.3439
30958SOL    HW299733   8.406   2.214   1.548 -0.0476  0.5287 -2.0887
30959SOL     OW99734   3.600   9.302  11.206  0.3306  0.4272  0.0310
30959SOL    HW199735   3.675   9.262  11.250  2.2455  2.8515 -0.8025
30959SOL    HW299736   3.610   9.278  11.114 -0.4288  0.0449  0.0427
30960SOL     OW99737  10.877   1.035   9.531 -0.2084  0.0239  0.6791
30960SOL    HW199738  10.970   1.057   9.530  0.3677 -2.2301 -0.4118
30960SOL    HW299739  10.858   1.008   9.441 -1.7151 -0.3322  1.0828
30961SOL     OW99740   8.588   5.853   2.459 -0.0073  0.1161 -0.2133
30961SOL    HW199741   8.633   5.889   2.536 -0.5076 -0.0847  0.1846
30961SOL    HW299742   8.649   5.789   2.423  0.4539  0.6032 -0.3044
30962SOL     OW99743   8.039   0.055   8.842  0.1071 -0.5998  0.1824
30962SOL    HW199744   7.990   0.110   8.903  0.4903  0.2908 -0.3003
30962SOL    HW299745   8.125   0.097   8.835 -0.6101  0.6187 -2.6403
30963SOL     OW99746  11.948   4.593   9.697  0.1670 -0.5543  0.3614
30963SOL    HW199747  11.953   4.603   9.792 -0.0414 -0.1920  0.3387
30963SOL    HW299748  11.944   4.683   9.664  0.6101 -0.6699 -0.0119
30964SOL     OW99749   2.531   4.299   8.657  0.6025 -0.1663 -0.4323
30964SOL    HW199750   2.617   4.338   8.671  1.5977 -1.9024 -1.3438
30964SOL    HW299751   2.480   4.323   8.735  2.8088 -1.4489  1.5216
30965SOL     OW99752   1.757  11.744   6.107 -0.3798  0.3488  0.3946
30965SOL    HW199753   1.678  11.709   6.148 -0.6136 -2.2973 -1.9425
30965SOL    HW299754   1.726  11.817   6.054 -1.3066 -0.5629 -0.3709
30966SOL     OW99755   3.224   9.928   6.261  0.0252  0.0591  0.4060
30966SOL    HW199756   3.192   9.839   6.243  0.1957  0.1850 -0.5333
30966SOL    HW299757   3.294   9.942   6.198 -0.4250  1.1019  0.1175
30967SOL     OW99758   7.279  10.790   5.623  0.0557  0.1177  0.4182
30967SOL    HW199759   7.207  10.809   5.684 -0.7748  0.1515 -0.5427
30967SOL    HW299760   7.241  10.804   5.536  0.9629 -0.7569 -0.1460
30968SOL     OW99761  10.852   2.245   8.058  0.0285 -0.6663  0.0044
30968SOL    HW199762  10.788   2.221   8.125 -2.3111  0.0823 -1.8341
30968SOL    HW299763  10.833   2.337   8.039  1.8426 -0.3423 -0.4655
30969SOL     OW99764   0.780   2.666   3.322 -0.3356  0.1677  0.1211
30969SOL    HW199765   0.787   2.652   3.416 -0.7205  0.2222  0.1596
30969SOL    HW299766   0.777   2.578   3.284 -0.6299  0.1449  0.1957
30970SOL     OW99767   7.488   1.395   9.553  0.3393 -0.0817  0.4603
30970SOL    HW199768   7.450   1.315   9.588 -0.6083 -0.0973 -0.5377
30970SOL    HW299769   7.413   1.454   9.542  0.8328  0.4637 -0.0452
30971SOL     OW99770   6.290  11.303   4.348  0.1108 -0.1427  0.0660
30971SOL    HW199771   6.265  11.259   4.267 -0.6158  1.2094 -0.4797
30971SOL    HW299772   6.209  11.306   4.400  0.4907 -0.6926  0.7074
30972SOL     OW99773   9.922   1.575   0.725  0.2550 -0.1751 -0.0549
30972SOL    HW199774   9.914   1.652   0.671  1.4703 -0.2327 -0.3501
30972SOL    HW299775   9.980   1.602   0.797  1.2321 -0.9598 -0.5133
30973SOL     OW99776   1.988   3.583   9.688 -0.4548  0.2879  0.3141
30973SOL    HW199777   2.003   3.550   9.777  1.1407  0.1821  0.0423
30973SOL    HW299778   1.898   3.613   9.689 -0.8390 -0.7675  1.6384
30974SOL     OW99779   1.882   5.243  11.025  0.1239 -0.1469  0.5840
30974SOL    HW199780   1.938   5.240  10.948  0.8572  1.6987  0.9902
30974SOL    HW299781   1.935   5.204  11.095  0.9106  1.4175  0.9218
30975SOL     OW99782   6.120   5.795   9.464  0.6002 -0.4472 -0.2959
30975SOL    HW199783   6.093   5.704   9.452 -0.7725 -0.1285  0.2905
30975SOL    HW299784   6.085   5.841   9.387  1.1928 -0.3702 -0.5328
30976SOL     OW99785   0.277   6.713   2.634  0.2659  0.6433 -0.0998
30976SOL    HW199786   0.243   6.737   2.547 -1.4419  0.6058  0.5260
30976SOL    HW299787   0.371   6.706   2.621  0.4913  3.8608 -1.2528
30977SOL     OW99788   8.095   4.995   3.286  0.1328  0.0548 -0.5346
30977SOL    HW199789   8.066   5.011   3.376 -0.1418  0.9316 -0.7711
30977SOL    HW299790   8.189   5.013   3.288  0.2130 -0.3627 -0.3312
30978SOL     OW99791   3.879   7.089   4.297 -0.1281  0.2407  0.0584
30978SOL    HW199792   3.869   7.031   4.373 -1.4412 -0.4137 -0.5712
30978SOL    HW299793   3.790   7.120   4.280  0.1257  0.2877 -1.2648
30979SOL     OW99794  10.054   7.456   3.028 -0.1774  0.3739  0.3968
30979SOL    HW199795  10.106   7.419   2.956 -0.4593 -0.6280  0.6802
30979SOL    HW299796  10.034   7.380   3.083  0.0781  1.1256  1.5617
30980SOL     OW99797   1.615   5.992   1.667 -0.2739  0.0531 -0.2818
30980SOL    HW199798   1.707   6.007   1.645  0.3315 -1.7315  0.8899
30980SOL    HW299799   1.602   6.035   1.751 -1.1991  2.3427 -1.5083
30981SOL     OW99800   5.988  11.042   7.560 -0.1178  0.4512 -0.2352
30981SOL    HW199801   5.901  11.054   7.598  0.2375  1.1880  0.3697
30981SOL    HW299802   5.988  10.952   7.528 -0.4412 -0.2311  1.5364
30982SOL     OW99803   1.483   7.086   1.698 -0.5134 -0.1449  0.0457
30982SOL    HW199804   1.426   7.099   1.774  0.2347  1.8894  0.3173
30982SOL    HW299805   1.533   7.167   1.692  0.6618 -0.9515 -1.6154
30983SOL     OW99806   7.071  10.688   1.338 -0.4797  0.3623  0.0331
30983SOL    HW199807   7.084  10.718   1.428  1.7662  1.4545 -0.5598
30983SOL    HW299808   7.021  10.758   1.296 -0.7929  0.2528  0.2247
30984SOL     OW99809   9.014   9.964   9.064  0.5002  0.1646 -0.2192
30984SOL    HW199810   9.056   9.922   8.988 -0.1504  2.0574 -1.6983
30984SOL    HW299811   9.034  10.057   9.054 -1.7218  0.7850  0.5384
30985SOL     OW99812   5.601   0.910   5.959  0.1902 -0.5605  0.0869
30985SOL    HW199813   5.667   0.899   5.891  0.3793  1.0057 -0.0187
30985SOL    HW299814   5.628   0.851   6.029  1.2652 -0.5237 -0.2795
30986SOL     OW99815   6.996   8.993   8.483  0.1113  0.1154  0.2796
30986SOL    HW199816   7.026   8.928   8.547 -0.6926 -0.0243  0.5207
30986SOL    HW299817   6.985   9.074   8.532 -0.9929 -0.1153  0.4432
30987SOL     OW99818   8.443   2.369   4.276 -0.1700 -0.1146  0.0174
30987SOL    HW199819   8.349   2.386   4.269 -0.2929 -0.6533  0.3219
30987SOL    HW299820   8.481   2.417   4.202 -0.3288  2.7016  1.6267
30988SOL     OW99821  11.982   4.231   6.881  0.2111 -0.1326 -0.3300
30988SOL    HW199822  12.015   4.315   6.850  1.0617  0.2092  1.3346
30988SOL    HW299823  11.934   4.194   6.807 -0.3327  1.8868 -1.0448
30989SOL     OW99824   1.103   1.588   9.089 -0.3064 -0.0139  0.1925
30989SOL    HW199825   1.016   1.606   9.053 -0.5010 -3.1883 -1.2523
30989SOL    HW299826   1.148   1.672   9.084 -3.1259  1.6814  0.6936
30990SOL     OW99827   1.415  12.117   2.614 -0.1217  0.6251  0.2696
30990SOL    HW199828   1.368  12.155   2.689  0.8039  1.7544  0.3173
30990SOL    HW299829   1.472  12.188   2.584  1.7985 -0.7648  0.4421
30991SOL     OW99830   3.162   6.287   0.968  0.8075  0.6259  0.2952
30991SOL    HW199831   3.236   6.303   1.027  1.6454 -2.6142  0.2876
30991SOL    HW299832   3.090   6.266   1.027  1.1417 -0.7014  0.2647
30992SOL     OW99833  10.792   6.711   4.556  0.1555 -0.0510  0.4898
30992SOL    HW199834  10.714   6.734   4.505 -0.9027 -0.9033  1.6803
30992SOL    HW299835  10.818   6.626   4.521 -0.0751 -0.2517  0.8064
30993SOL     OW99836   2.579   0.859  11.921 -0.4660 -0.5436 -0.1939
30993SOL    HW199837   2.540   0.942  11.950 -1.3191 -0.2227 -2.1288
30993SOL    HW299838   2.656   0.884  11.871 -0.4909 -0.9350 -0.4339
30994SOL     OW99839   7.295  10.497   0.500  0.3333 -0.4530 -0.0779
30994SOL    HW199840   7.325  10.417   0.458  0.0645 -1.2428  1.1617
30994SOL    HW299841   7.359  10.563   0.475  1.0826 -1.2740 -0.3906
30995SOL     OW99842   2.006   8.250   2.173 -0.0527 -0.6565 -0.1749
30995SOL    HW199843   2.046   8.246   2.260  1.7521  1.9194 -0.7436
30995SOL    HW299844   1.949   8.326   2.176  0.3565 -0.2778 -1.3381
30996SOL     OW99845   3.965   5.576   3.500 -0.0264 -0.0190  0.6935
30996SOL    HW199846   3.989   5.665   3.473  0.8250 -0.3772  0.2137
30996SOL    HW299847   4.033   5.521   3.462 -1.0678 -0.9835  0.1580
30997SOL     OW99848   9.061   7.819   9.036  0.0768  0.7760 -1.3790
30997SOL    HW199849   8.997   7.875   9.078  1.5989  2.3035 -0.9939
30997SOL    HW299850   9.102   7.771   9.107  0.8089  1.3790 -1.3845
30998SOL     OW99851   4.401   2.898   0.842 -0.1387 -0.1020 -0.3067
30998SOL    HW199852   4.452   2.868   0.916  0.8092  0.0497 -0.8865
30998SOL    HW299853   4.410   2.830   0.776 -1.4887 -0.5352 -0.0823
30999SOL     OW99854   4.123   3.023   9.025 -0.4483  0.7430 -0.7954
30999SOL    HW199855   4.213   3.050   9.041 -0.2110  0.4189 -1.5033
30999SOL    HW299856   4.114   3.028   8.930 -0.8386 -0.2570 -0.8203
31000SOL     OW99857   0.612   2.613   9.831 -0.6443  0.2004 -0.2480
31000SOL    HW199858   0.638   2.598   9.740  0.6020 -1.8656  0.3970
31000SOL    HW299859   0.694   2.637   9.875 -0.9730 -0.2073  0.5960
31001SOL     OW99860   7.729   6.761   4.971 -0.1647  0.5503  0.2506
31001SOL    HW199861   7.806   6.815   4.950  0.6301 -0.6882 -0.1556
31001SOL    HW299862   7.757   6.709   5.046  0.5251 -2.0178 -1.6334
31002SOL     OW99863   4.572   1.882   9.442  0.0187  0.3444 -0.4050
31002SOL    HW199864   4.554   1.900   9.534 -1.6666 -0.1884 -0.5926
31002SOL    HW299865   4.667   1.881   9.436  0.1650  0.2219  1.3609
31003SOL     OW99866  12.152   0.183   6.388  0.2586 -0.1596 -0.5207
31003SOL    HW199867  12.145   0.278   6.398 -1.3982 -0.2979 -0.1127
31003SOL    HW299868  12.081   0.159   6.328  0.7582 -1.1313 -0.7568
31004SOL     OW99869  10.136   6.947   0.850  0.3247  0.4033 -0.0979
31004SOL    HW199870  10.225   6.911   0.856  0.5590  0.8998 -0.4931
31004SOL    HW299871  10.086   6.879   0.805  0.2933 -0.2405  0.8800
31005SOL     OW99872   2.060  12.572  12.290 -0.2656  0.0219 -0.1240
31005SOL    HW199873   2.057  12.668  12.291 -0.9513  0.0053  1.2976
31005SOL    HW299874   2.072  12.550  12.198 -1.3919  1.4463 -0.6514
31006SOL     OW99875   4.854   9.309   8.818  0.4661  0.4170 -0.4122
31006SOL    HW199876   4.943   9.284   8.793 -0.0888 -0.3317 -1.7789
31006SOL    HW299877   4.808   9.317   8.734 -0.9580 -0.0169  0.3001
31007SOL     OW99878   6.737   2.571  11.341  0.2107  0.4017  0.3025
31007SOL    HW199879   6.685   2.611  11.411  0.8971 -0.3521  1.2742
31007SOL    HW299880   6.822   2.614  11.346  0.5742 -0.3343  0.5779
31008SOL     OW99881  10.060  10.790  10.220  0.1917 -0.1290 -0.0985
31008SOL    HW199882   9.999  10.817  10.152 -0.6462 -0.1037  0.6364
31008SOL    HW299883  10.121  10.731  10.177 -1.6220 -1.8528 -0.4246
31009SOL     OW99884   7.492   3.368   9.001  0.1448 -0.0689  1.1459
31009SOL    HW199885   7.501   3.378   9.095 -0.2405 -1.4251  1.3368
31009SOL    HW299886   7.398   3.376   8.984  0.1981  0.0300  0.8839
31010SOL     OW99887  12.070   4.833   0.986  0.8557 -0.3768  0.2028
31010SOL    HW199888  12.026   4.768   1.040  1.2042 -2.0928 -1.4892
31010SOL    HW299889  12.103   4.898   1.049 -1.7339 -0.4147  1.7283
31011SOL     OW99890   5.274   9.029   7.673 -0.5115  0.3596  0.0334
31011SOL    HW199891   5.180   9.026   7.689 -0.6947 -0.0165 -0.9973
31011SOL    HW299892   5.291   9.120   7.648  0.0121  1.3123  3.3940
31012SOL     OW99893   4.754   9.979  11.641 -0.0651  0.0980 -0.0364
31012SOL    HW199894   4.662  10.002  11.628 -0.1992  1.4266  2.5513
31012SOL    HW299895   4.752   9.894  11.685 -0.0670  0.0836 -0.0650
31013SOL     OW99896  10.825   1.645  10.091  0.0949 -0.0834  0.6307
31013SOL    HW199897  10.794   1.577  10.151 -0.8996 -0.3621 -0.1787
31013SOL    HW299898  10.836   1.723  10.146 -2.4801  0.1566  0.9304
31014SOL     OW99899   1.186   2.719   9.021 -0.0528  0.1526  0.4132
31014SOL    HW199900   1.166   2.625   9.027 -1.5864  0.3639 -0.8979
31014SOL    HW299901   1.281   2.723   9.025  0.0420 -1.4644  0.4516
31015SOL     OW99902   0.865  10.413   1.201 -0.3386  0.0220 -0.6976
31015SOL    HW199903   0.925  10.473   1.247 -0.9237  0.9860 -1.1552
31015SOL    HW299904   0.796  10.470   1.167 -1.1639 -0.9844 -0.7543
31016SOL     OW99905   5.574   4.069   6.705 -0.3623 -0.5039  0.2250
31016SOL    HW199906   5.640   4.108   6.762  0.2311  1.8604 -1.8618
31016SOL    HW299907   5.493   4.116   6.725 -0.4713 -0.6112  0.0476
31017SOL     OW99908   9.196   5.009   7.197  0.1634  0.0739  0.1946
31017SOL    HW199909   9.281   5.048   7.216  0.8629 -2.1705  2.0743
31017SOL    HW299910   9.177   4.954   7.273 -2.1618 -0.8517 -0.9624
31018SOL     OW99911   6.319  12.136  10.430 -0.0311  0.3539 -0.2811
31018SOL    HW199912   6.301  12.043  10.412  1.5646  0.2270 -1.4698
31018SOL    HW299913   6.380  12.162  10.361  2.2192  1.3616  1.9295
31019SOL     OW99914   8.539   0.044   0.605 -0.3510  0.0649 -0.4110
31019SOL    HW199915   8.632   0.067   0.609 -0.7194  1.6948 -0.2225
31019SOL    HW299916   8.505   0.068   0.691 -0.7881 -1.3539 -0.1757
31020SOL     OW99917   5.321   3.913   3.968  0.1216 -0.3726  0.4423
31020SOL    HW199918   5.255   3.979   3.987  1.2343  1.5462 -1.7913
31020SOL    HW299919   5.272   3.839   3.932 -0.9119  0.5888 -0.1812
31021SOL     OW99920   2.229   3.099   8.517  0.0346 -0.3464  0.2901
31021SOL    HW199921   2.315   3.136   8.495 -0.4511  0.9060  0.4303
31021SOL    HW299922   2.231   3.088   8.612 -0.4003  0.8650  0.4497
31022SOL     OW99923   7.380  11.465   8.596 -0.0704 -0.2605 -0.2685
31022SOL    HW199924   7.388  11.470   8.501 -0.2813  1.8036 -0.2382
31022SOL    HW299925   7.314  11.531   8.617 -0.0518 -0.7178  1.3129
31023SOL     OW99926   4.159   2.186   1.784 -0.3750 -0.0402 -0.4963
31023SOL    HW199927   4.080   2.131   1.784  0.5046 -1.3340 -0.2979
31023SOL    HW299928   4.135   2.262   1.730 -1.6031 -0.6214 -0.8076
31024SOL     OW99929   4.272  10.598   7.353 -0.0395  0.5696 -0.3605
31024SOL    HW199930   4.288  10.692   7.346 -0.0499  0.5939 -0.0503
31024SOL    HW299931   4.354  10.557   7.325 -0.0292  0.6692 -0.4775
31025SOL     OW99932   0.754   5.364  12.207  0.3889  0.6361 -0.3834
31025SOL    HW199933   0.750   5.296  12.140 -1.2667 -0.5046  0.7712
31025SOL    HW299934   0.773   5.317  12.288 -1.3963  1.4100  0.5507
31026SOL     OW99935   4.149  11.399   7.285 -0.0516  0.1145  0.4980
31026SOL    HW199936   4.215  11.331   7.295 -1.0478 -1.1936 -1.2638
31026SOL    HW299937   4.065  11.352   7.293 -0.7741  1.4265  0.9322
31027SOL     OW99938   3.635   2.966   5.412  0.2570 -0.5075 -0.3101
31027SOL    HW199939   3.608   2.889   5.361 -1.7679  0.5248 -0.9062
31027SOL    HW299940   3.564   2.980   5.475  0.6798  0.7393 -0.0722
31028SOL     OW99941   6.264   5.529   3.165 -0.0520 -0.1216 -0.2818
31028SOL    HW199942   6.227   5.443   3.186  0.5159  0.0004  1.3893
31028SOL    HW299943   6.335   5.510   3.104  1.0607 -1.0608  1.2153
31029SOL     OW99944  12.089   6.973  12.429 -0.0282 -0.1122 -0.3599
31029SOL    HW199945  12.123   7.047  12.478  0.9134 -1.1971  0.6698
31029SOL    HW299946  12.142   6.971  12.349 -1.5072  1.5991 -1.4927
31030SOL     OW99947   1.698  12.318   5.741  0.9215  0.2203 -0.0286
31030SOL    HW199948   1.692  12.396   5.797 -1.1596 -0.6804  1.1460
31030SOL    HW299949   1.733  12.250   5.798 -1.2602 -0.7194  0.3161
31031SOL     OW99950   3.398   1.212   0.639  0.0319  0.0920  0.2650
31031SOL    HW199951   3.450   1.132   0.636  0.5070  0.3914  0.2774
31031SOL    HW299952   3.385   1.228   0.733 -2.9846 -1.7916  0.3050
31032SOL     OW99953   4.010  11.469   8.151  0.4618  0.3872 -0.0231
31032SOL    HW199954   4.064  11.542   8.119  0.1267  0.3765 -0.6262
31032SOL    HW299955   3.925  11.509   8.168 -0.4549 -0.2958 -2.6540
31033SOL     OW99956   2.279   5.050  11.867 -0.0288  0.5977  0.0477
31033SOL    HW199957   2.308   5.108  11.938  0.4550  0.5520 -0.1119
31033SOL    HW299958   2.357   5.000  11.844 -0.5112 -0.3325  0.3846
31034SOL     OW99959   8.317   7.351   4.699 -0.1845  0.0736 -0.0465
31034SOL    HW199960   8.303   7.297   4.776  1.3612 -0.3143 -0.0027
31034SOL    HW299961   8.352   7.291   4.633  0.9524  0.8832 -0.2032
31035SOL     OW99962   6.259   5.994   1.556 -0.6967 -0.5266  0.1634
31035SOL    HW199963   6.325   6.022   1.492 -1.7295  0.3463 -0.5572
31035SOL    HW299964   6.267   5.899   1.559  0.6116 -0.4344  0.1190
31036SOL     OW99965   8.374   9.763  11.619  0.4220 -0.0681 -0.3299
31036SOL    HW199966   8.301   9.707  11.645  1.4511 -1.6499 -0.6563
31036SOL    HW299967   8.351   9.795  11.532 -0.3517  0.3364  0.0159
31037SOL     OW99968   3.770   5.958   3.125 -0.1052  0.5700  0.3031
31037SOL    HW199969   3.680   5.978   3.152 -0.3867  0.3908 -0.4687
31037SOL    HW299970   3.781   5.865   3.148 -0.6730  0.1518 -1.0189
31038SOL     OW99971   9.190   4.753   8.987  0.1999  0.1549  0.1921
31038SOL    HW199972   9.144   4.829   9.023 -1.7645 -0.0498 -1.7071
31038SOL    HW299973   9.141   4.677   9.019  1.1170 -0.2584  0.6663
31039SOL     OW99974   7.391   4.730   1.069  0.2292  0.5341  0.5756
31039SOL    HW199975   7.339   4.805   1.095 -1.7282 -0.8564  0.9013
31039SOL    HW299976   7.388   4.672   1.145  0.4873 -0.4751 -0.1663
31040SOL     OW99977   7.327   0.361   1.285 -0.0537  0.2182 -0.0906
31040SOL    HW199978   7.381   0.284   1.302  1.6390  1.0567 -1.3464
31040SOL    HW299979   7.319   0.365   1.190 -0.8930  1.0973 -0.0034
31041SOL     OW99980   3.942   5.944   8.865  0.2131 -0.3247 -0.6817
31041SOL    HW199981   3.893   6.019   8.833  1.5084  1.3154  0.9852
31041SOL    HW299982   3.933   5.878   8.796 -1.4217  1.1365 -1.9412
31042SOL     OW99983  10.682   8.229   7.756 -0.8221  0.3998 -0.1130
31042SOL    HW199984  10.622   8.176   7.703  0.0341  1.4505 -2.2325
31042SOL    HW299985  10.631   8.306   7.781 -1.2766 -0.1732  0.7662
31043SOL     OW99986  12.416  12.005   3.052 -0.3337  0.3484 -0.5364
31043SOL    HW199987  12.501  11.982   3.088 -0.6742  0.9213  0.7131
31043SOL    HW299988  12.435  12.040   2.965  0.7366  0.6828 -0.1876
31044SOL     OW99989   7.925  11.096   0.571  0.1204  0.6832  0.1574
31044SOL    HW199990   7.914  11.006   0.541  1.7833  0.6608 -0.4573
31044SOL    HW299991   8.012  11.121   0.541 -1.4859  3.6197 -2.5264
31045SOL     OW99992   1.341   5.171   2.981  0.0273 -0.2996 -0.3840
31045SOL    HW199993   1.360   5.257   3.019  1.5687 -0.8244  0.1080
31045SOL    HW299994   1.257   5.146   3.020 -0.0535  0.6429  0.0744
31046SOL     OW99995  10.295  10.841   1.659  0.5255  0.2671 -0.6196
31046SOL    HW199996  10.239  10.838   1.737 -2.0049  1.6957 -2.2117
31046SOL    HW299997  10.343  10.759   1.660 -1.4133 -0.9518  1.0728
31047SOL     OW99998  10.789   7.855   9.942 -0.1080 -0.1645  0.0351
31047SOL    HW199999  10.735   7.776   9.951 -0.3621 -0.2336 -1.7115
31047SOL    HW2    0  10.764   7.892   9.857  2.1510  0.1180 -0.5876
31048SOL     OW    1   7.263   6.396  10.704  0.4245  0.4500  0.0761
31048SOL    HW1    2   7.334   6.366  10.760  0.3494  2.1700  1.1574
31048SOL    HW2    3   7.221   6.315  10.673  1.5029 -0.5610  1.1427
31049SOL     OW    4   4.610  11.217   0.151  0.7780  0.4999  0.2153
31049SOL    HW1    5   4.594  11.130   0.186  0.2434  0.0927 -0.9735
31049SOL    HW2    6   4.698  11.240   0.183  2.1618 -1.6676 -1.6548
31050SOL     OW    7  11.494   8.258  11.332 -0.1246 -0.5764  0.4631
31050SOL    HW1    8  11.519   8.234  11.422 -1.0146 -0.3992  0.7752
31050SOL    HW2    9  11.401   8.235  11.327 -0.8797  2.0935  0.5743
31051SOL     OW   10  10.453   8.496   6.583 -0.2495 -0.0618 -0.9842
31051SOL    HW1   11  10.477   8.404   6.594  1.8413  0.5438  0.0932
31051SOL    HW2   12  10.483   8.519   6.496  1.3320  0.1448 -0.4131
31052SOL     OW   13  11.878   2.514   8.856 -0.1368  0.3435  0.0097
31052SOL    HW1   14  11.971   2.524   8.876  0.2479 -2.0881 -0.3646
31052SOL    HW2   15  11.838   2.489   8.939  0.2201 -2.3101 -0.5455
31053SOL     OW   16  12.095  12.425  12.342  0.1939 -1.1090  0.5174
31053SOL    HW1   17  12.129  12.416  12.253 -1.9333 -1.3924 -0.3250
31053SOL    HW2   18  12.161  12.382  12.397  3.0335  1.5564 -0.4950
31054SOL     OW   19   8.033   0.686   3.828  0.2598  0.3363  0.6188
31054SOL    HW1   20   8.062   0.620   3.765  2.3633  0.1944  1.6736
31054SOL    HW2   21   8.045   0.644   3.913  1.4399  1.9733  1.2962
31055SOL     OW   22   7.262   4.120  11.845  0.4049  0.1450 -0.0797
31055SOL    HW1   23   7.320   4.183  11.803  0.5208  0.0282 -0.0972
31055SOL    HW2   24   7.313   4.086  11.919 -0.4539  1.6722  1.2614
31056SOL     OW   25   2.596   9.365  10.666 -0.1225 -0.3885  0.5178
31056SOL    HW1   26   2.663   9.365  10.734  0.3985  0.9791  0.0376
31056SOL    HW2   27   2.638   9.324  10.590 -0.4136 -1.0953  0.7243
31057SOL     OW   28   3.971   4.748   4.614 -0.0943  0.5415 -0.3835
31057SOL    HW1   29   3.900   4.693   4.649 -0.2214  1.8561  1.6045
31057SOL    HW2   30   3.936   4.783   4.533 -0.5197 -1.2100 -1.0013
31058SOL     OW   31   8.668   1.639   2.975  0.3132  0.0261  1.1780
31058SOL    HW1   32   8.650   1.733   2.987  0.1282  0.4454 -1.6531
31058SOL    HW2   33   8.763   1.633   2.972  0.4721  1.0281 -3.1712
31059SOL     OW   34   4.392  11.240  10.306  0.0313  0.3840  0.8787
31059SOL    HW1   35   4.403  11.256  10.399  0.6594  0.8012  0.7451
31059SOL    HW2   36   4.335  11.163  10.300 -1.0648  1.1170  1.5868
31060SOL     OW   37   5.243  12.065  11.713 -0.2509 -0.1752 -1.1683
31060SOL    HW1   38   5.213  12.147  11.673 -1.3432  0.2934  0.5044
31060SOL    HW2   39   5.288  12.019  11.642 -0.8637  1.2294 -2.5362
31061SOL     OW   40  11.421   7.620   6.909 -0.1322  0.1210  0.1332
31061SOL    HW1   41  11.477   7.664   6.845  1.8144 -2.0328  0.2135
31061SOL    HW2   42  11.373   7.555   6.857  1.3133 -1.5039  0.7337
31062SOL     OW   43   6.085   0.518  12.229 -0.0584 -0.4264 -0.5724
31062SOL    HW1   44   6.129   0.500  12.312  0.4338  1.0844 -0.4733
31062SOL    HW2   45   6.154   0.553  12.172 -0.4944 -0.9726 -1.4492
31063SOL     OW   46   5.018   9.607   4.434  0.2484  0.0156 -0.3480
31063SOL    HW1   47   5.044   9.538   4.495  1.0407  1.3346  0.8684
31063SOL    HW2   48   5.098   9.656   4.417 -0.6896  2.0992  0.7669
31064SOL     OW   49   0.245   4.089   1.367 -0.8739 -0.4271 -0.2631
31064SOL    HW1   50   0.151   4.083   1.347 -1.0586  2.4236 -0.6674
31064SOL    HW2   51   0.250   4.074   1.462 -1.6642 -1.0673 -0.3120
31065SOL     OW   52   6.845  12.331  11.875  0.0312 -0.1917 -0.3280
31065SOL    HW1   53   6.749  12.335  11.879  0.0715  0.7908 -0.2412
31065SOL    HW2   54   6.864  12.299  11.787 -0.3776 -0.7180 -0.2340
31066SOL     OW   55   7.136   7.928   6.672 -1.0569 -0.3329  0.5703
31066SOL    HW1   56   7.169   7.903   6.585  0.2277  0.7575  0.7097
31066SOL    HW2   57   7.136   7.846   6.722 -0.2016 -0.6836  0.0223
31067SOL     OW   58  11.121   6.273   7.976 -0.3322  0.2400  0.1718
31067SOL    HW1   59  11.148   6.200   8.032 -1.5609  0.4235  1.0451
31067SOL    HW2   60  11.123   6.237   7.888  1.6885 -0.0489  0.2934
31068SOL     OW   61  10.668  10.026  11.080  0.7383 -0.4220 -0.1503
31068SOL    HW1   62  10.685  10.118  11.062  0.2693 -0.2887  0.0742
31068SOL    HW2   63  10.607  10.027  11.154  0.5044 -0.9081 -0.3362
31069SOL     OW   64   6.583   7.433   7.231 -0.2238  0.1196  0.0863
31069SOL    HW1   65   6.639   7.457   7.158 -1.5107  2.2412 -0.2870
31069SOL    HW2   66   6.596   7.502   7.295 -1.0594 -0.3250  0.7620
31070SOL     OW   67   5.176   5.978   0.041 -0.3501  0.6751  0.1786
31070SOL    HW1   68   5.142   6.066   0.025 -0.9717  0.5785  0.9039
31070SOL    HW2   69   5.261   5.992   0.082 -0.8780  0.9706  1.2185
31071SOL     OW   70   4.816   1.862   0.227 -0.1731  0.0041  0.4007
31071SOL    HW1   71   4.736   1.883   0.275 -0.5502 -0.7051  0.0942
31071SOL    HW2   72   4.886   1.897   0.282 -0.5784 -0.9799  1.6134
31072SOL     OW   73   6.125   9.631  10.949 -0.5327 -0.0571 -0.0990
31072SOL    HW1   74   6.142   9.635  10.855 -1.7388 -0.8232 -0.3690
31072SOL    HW2   75   6.107   9.722  10.973 -0.3620  0.1255 -0.6452
31073SOL     OW   76  11.773   4.211   5.078  0.0551  0.0474  0.1490
31073SOL    HW1   77  11.778   4.118   5.054 -2.4982 -0.6461  1.8869
31073SOL    HW2   78  11.754   4.256   4.995 -2.0689 -1.4367 -0.2441
31074SOL     OW   79   8.764   4.701   4.216 -0.1736 -0.0616  0.3542
31074SOL    HW1   80   8.724   4.632   4.163 -0.9960  0.4417  0.3120
31074SOL    HW2   81   8.773   4.775   4.156 -0.1204  0.1616  0.6342
31075SOL     OW   82   7.824   2.382   5.799  0.1510 -0.3289  0.0127
31075SOL    HW1   83   7.850   2.315   5.862  0.5257  0.2220  0.4535
31075SOL    HW2   84   7.799   2.333   5.721  1.5280 -0.9427 -0.0835
31076SOL     OW   85  11.421  11.385  11.531  0.3878 -0.0851  0.2341
31076SOL    HW1   86  11.347  11.324  11.538  1.0585 -1.4034 -2.7357
31076SOL    HW2   87  11.482  11.357  11.600 -0.0572 -1.7075  0.0045
31077SOL     OW   88   9.967   9.225   4.820  0.0973  0.2265 -0.0318
31077SOL    HW1   89  10.055   9.238   4.785  0.6455 -0.5713  0.9979
31077SOL    HW2   90   9.915   9.199   4.744  1.2179 -1.2936 -0.3415
31078SOL     OW   91   3.529   9.818   1.465  0.4403  0.1727  0.3180
31078SOL    HW1   92   3.497   9.908   1.472 -2.7067 -0.8211  0.3689
31078SOL    HW2   93   3.549   9.793   1.555  0.7004  0.6046  0.3839
31079SOL     OW   94   7.127   1.489   1.626  0.0297  0.0721 -0.1558
31079SOL    HW1   95   7.091   1.548   1.560 -0.1824  0.1293  0.0085
31079SOL    HW2   96   7.056   1.480   1.690 -0.0448 -0.5877 -0.3241
31080SOL     OW   97   4.945  12.106   7.964 -0.4215 -0.6478  0.6809
31080SOL    HW1   98   4.882  12.147   7.905  0.7413  0.5027  0.2009
31080SOL    HW2   99   4.936  12.012   7.947 -0.4899 -0.3731 -0.9513
31081SOL     OW  100   7.951   0.213   6.729  0.5801  0.0882 -0.0922
31081SOL    HW1  101   7.910   0.283   6.678  1.7611  0.9833  0.1146
31081SOL    HW2  102   8.033   0.253   6.761  0.7702 -1.0572  0.9167
31082SOL     OW  103   5.994   8.509   0.057  0.0137  0.0522  0.0912
31082SOL    HW1  104   5.914   8.486   0.010  0.5324  0.9568 -1.2914
31082SOL    HW2  105   6.023   8.427   0.098 -1.5960 -0.2927  0.6299
31083SOL     OW  106   1.849   1.759   8.449 -0.0876 -0.0145  0.2022
31083SOL    HW1  107   1.846   1.740   8.356 -2.0005  1.1019 -0.0149
31083SOL    HW2  108   1.759   1.784   8.472  0.5564  0.7752  2.1190
31084SOL     OW  109   4.590   3.034   1.812  0.0829  0.5311  0.5110
31084SOL    HW1  110   4.679   3.065   1.795  0.3132 -0.3639  0.0349
31084SOL    HW2  111   4.537   3.076   1.745  0.4916 -0.5431 -0.5222
31085SOL     OW  112   9.254  10.769  11.560  0.3079 -0.5490 -0.3546
31085SOL    HW1  113   9.341  10.731  11.550  0.8857  0.4727  0.6002
31085SOL    HW2  114   9.225  10.786  11.470  2.1495  1.3811 -0.6476
31086SOL     OW  115   3.041   5.600  11.716 -0.4914 -0.1402 -0.3249
31086SOL    HW1  116   3.119   5.545  11.713 -1.0981 -1.0376  0.1557
31086SOL    HW2  117   2.975   5.551  11.668 -2.3444 -1.9611  3.6653
31087SOL     OW  118   3.850  11.606   9.728 -0.1015  0.0213 -0.3225
31087SOL    HW1  119   3.788  11.580   9.796  0.0877  0.0926 -0.1201
31087SOL    HW2  120   3.887  11.688   9.761  2.1560 -1.3839  0.9271
31088SOL     OW  121   7.584  11.977   2.562 -0.5945  0.2795  0.3621
31088SOL    HW1  122   7.493  11.966   2.588 -1.1022  1.5729 -0.7502
31088SOL    HW2  123   7.598  12.072   2.563  0.7574  0.1064  0.5398
31089SOL     OW  124   6.402   3.524   9.716 -0.0417  0.2154  0.1496
31089SOL    HW1  125   6.308   3.522   9.734 -0.4636  1.3048 -1.7190
31089SOL    HW2  126   6.436   3.590   9.777  0.0849 -2.1401  2.8564
31090SOL     OW  127  12.143   3.493   9.054 -0.8040  0.4693  0.2576
31090SOL    HW1  128  12.121   3.585   9.036 -1.0902  0.2185 -0.7632
31090SOL    HW2  129  12.227   3.497   9.099  0.1332  1.1595 -1.4582
31091SOL     OW  130   4.193   9.871   5.690  0.0662 -0.1193 -0.5668
31091SOL    HW1  131   4.137   9.797   5.712 -0.0591  0.0004 -0.4832
31091SOL    HW2  132   4.132   9.940   5.665  0.1853 -0.0625 -0.6978
31092SOL     OW  133   9.059   7.387   7.809  0.0275  0.1914 -0.3070
31092SOL    HW1  134   9.077   7.415   7.899 -0.3214 -1.7675  0.4236
31092SOL    HW2  135   9.142   7.354   7.777 -0.5568 -2.4119  0.6161
31093SOL     OW  136   0.606   9.675   0.337  0.1066 -0.1118  0.5469
31093SOL    HW1  137   0.541   9.718   0.393  0.0659 -0.2552  0.6098
31093SOL    HW2  138   0.605   9.726   0.256  1.1685  0.9709  1.1776
31094SOL     OW  139  12.156   7.885   2.581  0.1688  0.3532 -0.0358
31094SOL    HW1  140  12.139   7.826   2.653  2.1626  0.2981  0.4613
31094SOL    HW2  141  12.156   7.972   2.620 -0.5167  0.4899 -0.3278
31095SOL     OW  142   5.166   1.028  10.242  0.3682  0.1927  0.3959
31095SOL    HW1  143   5.199   1.113  10.271  0.6971  0.1187  0.2461
31095SOL    HW2  144   5.239   0.968  10.253 -0.2546 -0.3596  1.7276
31096SOL     OW  145   6.094   1.755  10.643 -0.2223 -0.2942  0.0199
31096SOL    HW1  146   6.111   1.662  10.656  0.8648 -0.0802  0.2645
31096SOL    HW2  147   6.003   1.759  10.614 -0.2645 -1.4334 -0.0619
31097SOL     OW  148   7.155  11.813   3.624 -0.5419  0.0209 -0.8781
31097SOL    HW1  149   7.243  11.846   3.606  0.9953 -2.7669  0.9563
31097SOL    HW2  150   7.127  11.862   3.702 -0.0747  0.0486 -0.7221
31098SOL     OW  151   2.195  10.456   3.449 -0.1039 -0.1883  0.3882
31098SOL    HW1  152   2.105  10.475   3.475  0.2437  0.1039  1.4474
31098SOL    HW2  153   2.236  10.423   3.529  0.7684 -0.1626 -0.0406
31099SOL     OW  154   7.204   4.673   8.609  0.5498  0.3648 -0.5591
31099SOL    HW1  155   7.241   4.646   8.694 -0.7353 -1.3279 -0.4906
31099SOL    HW2  156   7.215   4.768   8.607  0.8087  0.4154  1.4131
31100SOL     OW  157   8.782   3.176   8.929  0.2477 -0.9824  0.4669
31100SOL    HW1  158   8.797   3.102   8.988 -1.0716 -0.6418  1.2632
31100SOL    HW2  159   8.687   3.187   8.928  0.4028  0.5298  0.1438
31101SOL     OW  160   7.177   6.357   4.493  0.5313  0.2714 -0.1826
31101SOL    HW1  161   7.112   6.380   4.426  1.9515 -0.3906 -1.8636
31101SOL    HW2  162   7.130   6.364   4.575 -1.2539  1.2793 -1.2339
31102SOL     OW  163  11.840   2.385   4.537 -0.0840 -0.4393 -0.0440
31102SOL    HW1  164  11.754   2.370   4.496  0.6830 -1.0354 -1.5037
31102SOL    HW2  165  11.903   2.348   4.475  1.2248 -0.2521  1.1289
31103SOL     OW  166   8.684  11.841   7.454 -0.0082 -0.1920 -0.0341
31103SOL    HW1  167   8.706  11.890   7.534  0.8429  2.5581 -1.8243
31103SOL    HW2  168   8.591  11.855   7.442  0.4429  2.3737 -1.2556
31104SOL     OW  169   0.010   3.791   5.320  0.1252 -0.5912  0.0754
31104SOL    HW1  170   0.046   3.714   5.363  2.0243 -0.5935 -1.3735
31104SOL    HW2  171  -0.029   3.758   5.239 -0.2628 -0.1794  0.0881
31105SOL     OW  172   0.100  11.419   8.896 -0.7862  0.2898 -0.4786
31105SOL    HW1  173   0.158  11.495   8.900  0.5612 -0.7266  0.5694
31105SOL    HW2  174   0.091  11.400   8.802  2.1120 -0.5659 -0.6777
31106SOL     OW  175   8.516   2.999   9.673 -0.4011  0.1100 -0.2247
31106SOL    HW1  176   8.500   3.081   9.627  0.3561  0.5410  0.2633
31106SOL    HW2  177   8.429   2.962   9.687 -0.7858  1.1023  0.0539
31107SOL     OW  178  10.301  11.857   1.863  0.5216  0.2371 -0.6736
31107SOL    HW1  179  10.372  11.857   1.927 -0.5778  1.9307  0.6418
31107SOL    HW2  180  10.335  11.807   1.789  2.5800 -0.0969  0.4299
31108SOL     OW  181   1.055   9.828   6.732 -0.3362 -0.2030 -0.1014
31108SOL    HW1  182   1.127   9.891   6.741 -0.0785 -0.4405 -0.4592
31108SOL    HW2  183   1.087   9.749   6.775  0.2536 -0.8147 -1.5720
31109SOL     OW  184   9.346  10.523   3.973  0.2584  0.2205  0.0737
31109SOL    HW1  185   9.384  10.599   4.019 -0.2327  0.4638  0.0896
31109SOL    HW2  186   9.325  10.461   4.043  0.4732  0.1518  0.0790
31110SOL     OW  187   7.521   8.569   2.794 -0.2846  0.6270  0.4788
31110SOL    HW1  188   7.507   8.573   2.700  1.6212  0.2123  0.1485
31110SOL    HW2  189   7.477   8.488   2.821  0.3949 -0.0099 -0.2926
31111SOL     OW  190   4.966   7.286  12.345  0.1504  0.2502 -0.0061
31111SOL    HW1  191   4.940   7.231  12.271  0.1222  1.3905 -0.8751
31111SOL    HW2  192   5.026   7.231  12.396 -0.1054 -0.6754 -0.6769
31112SOL     OW  193  11.933   0.630  11.809  0.0434 -0.3381 -0.4640
31112SOL    HW1  194  12.006   0.589  11.855  1.3681  1.6679 -0.6424
31112SOL    HW2  195  11.877   0.665  11.879 -0.1158 -0.8445 -0.3384
31113SOL     OW  196   5.264   0.804   7.209  0.1959  0.3469 -0.0969
31113SOL    HW1  197   5.237   0.895   7.224 -1.1181 -0.1118  0.4795
31113SOL    HW2  198   5.266   0.796   7.113  0.7620  1.0931 -0.1586
31114SOL     OW  199   5.743  10.074   3.595 -0.2112 -0.2293 -0.0518
31114SOL    HW1  200   5.782  10.141   3.650  0.3399  0.0053 -0.7069
31114SOL    HW2  201   5.755   9.993   3.644 -0.1173  0.0327  0.3626
31115SOL     OW  202  12.218   2.300   6.758 -0.0586 -0.2370  0.3720
31115SOL    HW1  203  12.309   2.295   6.788  0.0420 -0.1726  0.0808
31115SOL    HW2  204  12.166   2.277   6.835  0.1718  0.6166  0.7864
31116SOL     OW  205   4.974   8.082   4.707  0.1452 -0.2812 -0.3037
31116SOL    HW1  206   4.961   8.171   4.740 -0.0921 -0.1820 -0.6577
31116SOL    HW2  207   5.054   8.052   4.750  0.1688  0.0640 -0.1002
31117SOL     OW  208  10.474   6.643   3.089 -0.5781 -0.1695  0.4582
31117SOL    HW1  209  10.522   6.560   3.096 -0.8038 -0.2497  1.1845
31117SOL    HW2  210  10.530   6.698   3.034 -0.3010 -0.7134  0.1828
31118SOL     OW  211   4.534   0.296   6.888  0.0574  0.2321  0.0597
31118SOL    HW1  212   4.481   0.239   6.833 -0.9158  0.6199  0.5749
31118SOL    HW2  213   4.587   0.346   6.826 -1.9710  1.6301 -0.6639
31119SOL     OW  214   2.508   6.485   4.018  0.6287 -0.4089  0.4530
31119SOL    HW1  215   2.465   6.549   3.962  0.6064  0.9388  1.9282
31119SOL    HW2  216   2.443   6.464   4.085  1.8353  0.8875  2.1281
31120SOL     OW  217  10.919   8.091   2.902 -0.3768 -0.6826 -0.0232
31120SOL    HW1  218  10.962   8.056   2.824  0.2417 -2.5397  1.0988
31120SOL    HW2  219  10.862   8.020   2.932 -2.1534  0.7194  0.1253
31121SOL     OW  220   7.497   4.528   6.242  0.1477  0.1757 -0.9395
31121SOL    HW1  221   7.465   4.558   6.327 -0.6618 -0.1565 -1.1226
31121SOL    HW2  222   7.571   4.470   6.264  0.1663  0.3638 -0.4847
31122SOL     OW  223   7.184   6.693   3.708  0.1670  0.3568  0.1211
31122SOL    HW1  224   7.093   6.723   3.704  0.0856  0.1507  0.3828
31122SOL    HW2  225   7.187   6.637   3.785  0.2152 -0.6472 -0.5963
31123SOL     OW  226   0.139   8.306   8.034 -0.2820  0.1003 -0.6811
31123SOL    HW1  227   0.123   8.392   8.072 -0.3698  0.0576 -0.6211
31123SOL    HW2  228   0.228   8.311   7.999  1.1547 -0.9148  2.4759
31124SOL     OW  229   6.715   0.465   9.484 -0.3096 -0.1436 -0.4158
31124SOL    HW1  230   6.655   0.489   9.555 -1.1453 -0.0682 -1.1319
31124SOL    HW2  231   6.661   0.467   9.405  0.3427 -1.3064 -0.9166
31125SOL     OW  232   3.226   2.622  12.500  0.0397  0.7782 -0.3692
31125SOL    HW1  233   3.148   2.567  12.509  0.6415 -0.0048  0.2101
31125SOL    HW2  234   3.198   2.695  12.446 -1.0728  0.4558 -0.2450
31126SOL     OW  235  10.531   2.489  12.187  0.3277 -0.3198  0.0509
31126SOL    HW1  236  10.601   2.553  12.202 -0.7593  0.6575  1.1096
31126SOL    HW2  237  10.525   2.440  12.269 -2.1613  1.5963  1.1616
31127SOL     OW  238   3.512   3.832   9.759  0.0248 -0.3017  0.5711
31127SOL    HW1  239   3.551   3.855   9.675  0.1697  1.7776  1.1676
31127SOL    HW2  240   3.586   3.831   9.820 -0.2846 -0.4212  0.9482
31128SOL     OW  241   3.925   1.190   5.701 -0.5437  0.1329  0.0565
31128SOL    HW1  242   3.858   1.148   5.755 -0.7876 -0.8675 -0.9949
31128SOL    HW2  243   4.004   1.137   5.713 -0.8027 -0.5502 -1.1349
31129SOL     OW  244   3.208   2.693   6.751  0.1862 -0.0445 -0.3674
31129SOL    HW1  245   3.131   2.637   6.748  1.4672 -1.8520 -1.1550
31129SOL    HW2  246   3.220   2.723   6.661  0.4014  0.2322 -0.2487
31130SOL     OW  247   4.609   1.582   8.797 -0.3214  0.3072  0.0437
31130SOL    HW1  248   4.550   1.553   8.867  1.0638  0.3246  1.2739
31130SOL    HW2  249   4.644   1.500   8.759 -0.9635  0.3006 -0.5537
31131SOL     OW  250   2.772   3.344   5.295  0.1677  0.7376  0.6938
31131SOL    HW1  251   2.858   3.305   5.282 -0.3940 -0.1551 -0.4605
31131SOL    HW2  252   2.745   3.313   5.382 -0.7695 -2.5807 -0.6082
31132SOL     OW  253   0.916   8.942   0.513  0.1214 -0.3384 -0.4077
31132SOL    HW1  254   0.846   9.003   0.533  0.3136 -0.9348  2.7080
31132SOL    HW2  255   0.968   8.938   0.594  2.7866 -1.1892 -2.0086
31133SOL     OW  256   0.661   0.559   4.687  0.6876 -0.4986 -0.2910
31133SOL    HW1  257   0.666   0.622   4.615  0.5212 -0.0471  0.0864
31133SOL    HW2  258   0.656   0.473   4.644 -1.7864 -0.1258 -0.8774
31134SOL     OW  259   3.418   2.903  12.036  0.0417 -0.7501 -0.1232
31134SOL    HW1  260   3.461   2.915  12.121 -0.2488  1.9640 -0.2774
31134SOL    HW2  261   3.333   2.864  12.058  0.3284 -0.9149  0.7303
31135SOL     OW  262   9.973  11.892   4.224 -0.1901  0.4700  0.9497
31135SOL    HW1  263  10.036  11.840   4.274 -0.3475 -0.2819  0.3831
31135SOL    HW2  264   9.974  11.978   4.266  1.4991  0.5927  0.7156
31136SOL     OW  265   8.140  10.457   3.702 -0.1183 -0.5112 -1.0726
31136SOL    HW1  266   8.115  10.549   3.704  1.3540 -0.0934  0.4213
31136SOL    HW2  267   8.064  10.411   3.739  0.4697  0.5194  1.6252
31137SOL     OW  268  11.115  11.095   9.948  0.2143  0.3981  0.1775
31137SOL    HW1  269  11.150  11.170   9.996 -0.1635  0.7178 -0.0496
31137SOL    HW2  270  11.054  11.132   9.884  0.7888 -0.0107 -0.6344
31138SOL     OW  271   7.505   8.708  12.332 -0.6002 -0.1539  0.4959
31138SOL    HW1  272   7.488   8.769  12.260  0.5002  0.3550  0.6418
31138SOL    HW2  273   7.443   8.732  12.400 -1.3121 -0.3079 -0.0934
31139SOL     OW  274   0.837   0.503  12.281 -0.0104 -0.3267 -0.3141
31139SOL    HW1  275   0.928   0.513  12.253  0.1507  1.7377  0.7604
31139SOL    HW2  276   0.812   0.590  12.311 -2.1922 -0.9796 -0.0964
31140SOL     OW  277   2.496  10.591   3.740  0.0394  0.2187 -0.3559
31140SOL    HW1  278   2.549  10.534   3.795  1.5678 -0.4097 -2.3353
31140SOL    HW2  279   2.425  10.534   3.709  0.7741 -0.2623 -1.2172
31141SOL     OW  280   0.443   6.397   3.518 -0.1090  0.2874 -0.0808
31141SOL    HW1  281   0.520   6.382   3.572 -0.4315  2.1844  1.0133
31141SOL    HW2  282   0.410   6.483   3.546 -1.8405  0.1438 -1.4549
31142SOL     OW  283   2.930   6.677  10.154 -0.0898  0.0947  0.3447
31142SOL    HW1  284   3.011   6.632  10.130 -0.1809 -0.4951  1.1172
31142SOL    HW2  285   2.875   6.672  10.076  0.4920  0.2347 -0.0853
31143SOL     OW  286   7.496   0.015   1.054 -0.2059 -0.4645 -0.1559
31143SOL    HW1  287   7.450   0.049   0.978 -0.0526 -1.1810 -0.5786
31143SOL    HW2  288   7.572  -0.031   1.018  1.5165  1.6242  0.5598
31144SOL     OW  289   1.195  10.255   2.443  0.0251  0.7273  0.5007
31144SOL    HW1  290   1.191  10.179   2.385 -1.8753  0.6287  0.6828
31144SOL    HW2  291   1.170  10.222   2.529  1.2331  1.1843  1.0499
31145SOL     OW  292   2.533   1.445   3.402  0.7362 -0.2462 -0.2292
31145SOL    HW1  293   2.596   1.429   3.332  0.9759 -0.3823  0.0167
31145SOL    HW2  294   2.452   1.406   3.371  0.8138 -0.2124 -0.4777
31146SOL     OW  295   1.438   5.701  12.293  0.1999  0.3325 -0.0425
31146SOL    HW1  296   1.426   5.682  12.200  0.8081 -0.5251  0.0435
31146SOL    HW2  297   1.370   5.765  12.313 -0.8925 -0.5980 -0.7176
31147SOL     OW  298   3.511   9.691   6.306 -0.1960 -0.2552 -0.6026
31147SOL    HW1  299   3.459   9.621   6.345  0.5990  0.4393  1.8850
31147SOL    HW2  300   3.567   9.723   6.377  1.3292  1.1837 -2.3196
31148SOL     OW  301  10.126   4.283   6.668 -0.1121  0.4729 -0.3863
31148SOL    HW1  302  10.075   4.207   6.641  0.5021 -0.0713 -0.0313
31148SOL    HW2  303  10.216   4.262   6.644 -0.0389  1.4296 -1.0147
31149SOL     OW  304  10.799   4.658  11.892  0.3089 -0.5680  0.0052
31149SOL    HW1  305  10.855   4.724  11.933 -0.0810 -1.0602  1.3610
31149SOL    HW2  306  10.773   4.698  11.809  1.0506  0.4853  0.2562
31150SOL     OW  307   3.697   8.193   5.114 -0.4997 -0.2180 -0.2507
31150SOL    HW1  308   3.717   8.257   5.045  0.3039  0.9121  0.9679
31150SOL    HW2  309   3.776   8.139   5.119 -0.0625  0.4752  0.5745
31151SOL     OW  310  10.231   7.804   5.088  0.5905  0.3899 -0.8121
31151SOL    HW1  311  10.223   7.892   5.124 -0.3813  0.9256 -2.2299
31151SOL    HW2  312  10.262   7.817   4.998  0.0933 -0.6801 -1.1591
31152SOL     OW  313   2.412   4.426   0.130  0.2257 -0.1449  0.2530
31152SOL    HW1  314   2.469   4.467   0.195 -0.4671  1.2611  0.0155
31152SOL    HW2  315   2.467   4.361   0.087  1.5204  0.8691  0.3200
31153SOL     OW  316   1.842   6.499  10.373  0.4753  0.2395 -0.3189
31153SOL    HW1  317   1.848   6.419  10.322  1.0526 -0.1205  0.3038
31153SOL    HW2  318   1.766   6.486  10.430  0.6100  0.1111 -0.1698
31154SOL     OW  319   8.831   7.197  10.840  0.2504  0.5795 -0.6003
31154SOL    HW1  320   8.883   7.260  10.889  0.5713 -0.0358 -0.1263
31154SOL    HW2  321   8.743   7.235  10.839  0.1760  0.4990  0.6888
31155SOL     OW  322   0.189   3.611   5.897  0.2722  0.1796 -0.5246
31155SOL    HW1  323   0.122   3.615   5.965  1.1942 -0.9258  0.4984
31155SOL    HW2  324   0.157   3.669   5.828 -1.2354  0.4535  0.3624
31156SOL     OW  325   3.524   0.780  11.016 -0.2506  0.0161 -0.3819
31156SOL    HW1  326   3.464   0.854  11.021 -0.3423 -0.1281  1.2175
31156SOL    HW2  327   3.598   0.806  11.071 -0.3568 -1.1135  0.3226
31157SOL     OW  328   0.875   1.098  11.197 -0.1427 -0.4124 -0.5287
31157SOL    HW1  329   0.849   1.134  11.282  0.2233  1.2876 -1.0987
31157SOL    HW2  330   0.843   1.162  11.133 -0.6022 -1.7633 -1.7068
31158SOL     OW  331  11.330   6.869   7.753 -0.1074  0.5322  0.2456
31158SOL    HW1  332  11.392   6.802   7.726  1.2021  0.8781  2.1680
31158SOL    HW2  333  11.348   6.943   7.695  0.2012  0.1066 -0.2129
31159SOL     OW  334   9.881   1.231   3.034  0.1324 -0.3518 -0.5273
31159SOL    HW1  335   9.870   1.216   2.940  0.4556  1.5199 -0.8963
31159SOL    HW2  336   9.976   1.235   3.047  0.0924  1.3924 -0.5086
31160SOL     OW  337   4.323   6.568   5.204  0.1492 -0.1330 -0.7892
31160SOL    HW1  338   4.413   6.566   5.235 -0.3796  2.4519  1.2417
31160SOL    HW2  339   4.280   6.495   5.250  1.0044 -0.9223 -1.2139
31161SOL     OW  340  10.254   4.176   3.189 -0.2037  0.3790  0.1946
31161SOL    HW1  341  10.203   4.182   3.109 -0.1263  0.3576  0.1441
31161SOL    HW2  342  10.345   4.178   3.160 -0.1672 -0.5161  0.2178
31162SOL     OW  343   0.108   6.040   2.284 -0.4986  0.5918  0.4302
31162SOL    HW1  344   0.063   5.955   2.293  0.0218  0.2885  0.2200
31162SOL    HW2  345   0.141   6.058   2.372  0.9216 -0.3012  0.1109
31163SOL     OW  346   3.669  10.411   7.427 -0.2411 -0.3976 -0.0886
31163SOL    HW1  347   3.730  10.356   7.378 -0.7126  0.5994 -1.9008
31163SOL    HW2  348   3.583  10.384   7.397 -0.4638  2.2924 -2.2987
31164SOL     OW  349   3.270  11.983   7.411 -0.4292 -0.3453  0.0405
31164SOL    HW1  350   3.343  12.008   7.354 -0.8021 -0.2295 -0.3851
31164SOL    HW2  351   3.247  11.895   7.382 -0.7631 -0.2010 -0.1317
31165SOL     OW  352   6.338   9.672   1.375 -0.0863  0.1447 -0.2331
31165SOL    HW1  353   6.420   9.627   1.396 -0.3698 -0.1632  0.2242
31165SOL    HW2  354   6.363   9.738   1.309  0.8061  1.0740  0.9800
31166SOL     OW  355   6.065   5.260   8.883  0.1888  0.1614 -0.1519
31166SOL    HW1  356   6.121   5.296   8.815 -1.5559  2.0950 -0.6909
31166SOL    HW2  357   6.099   5.298   8.964 -0.7000  1.9384 -0.5564
31167SOL     OW  358   6.904   2.132  11.465 -0.2443  0.0479  0.0792
31167SOL    HW1  359   6.814   2.156  11.442 -0.4578  0.7131  1.4851
31167SOL    HW2  360   6.895   2.054  11.519  0.2457 -1.4715 -1.9238
31168SOL     OW  361  10.708   1.373   5.056  0.3954  0.7200  0.2806
31168SOL    HW1  362  10.790   1.325   5.062 -0.3687 -0.9168 -1.3362
31168SOL    HW2  363  10.724   1.455   5.102  2.3651 -0.2759  1.4696
31169SOL     OW  364   9.798   4.321   2.388 -0.3505 -0.1988  0.5045
31169SOL    HW1  365   9.867   4.373   2.428  0.0637 -0.2296 -0.1546
31169SOL    HW2  366   9.727   4.383   2.372 -1.0874 -0.4559  2.5540
31170SOL     OW  367   9.434  11.597  10.020 -0.0788  0.6661 -0.5669
31170SOL    HW1  368   9.368  11.534   9.991  1.7508 -1.0187 -1.3213
31170SOL    HW2  369   9.404  11.681   9.984 -2.3609  0.2020  0.1043
31171SOL     OW  370  10.924   0.501  10.140 -0.3052  0.4262 -0.1009
31171SOL    HW1  371  10.834   0.514  10.171 -1.0648 -0.7601 -1.6545
31171SOL    HW2  372  10.974   0.484  10.219 -1.8841 -1.0482  0.6606
31172SOL     OW  373   3.037  12.158   0.562 -0.2852 -0.0754  0.3708
31172SOL    HW1  374   3.106  12.092   0.576  0.3951 -0.0889 -2.4763
31172SOL    HW2  375   3.076  12.240   0.594  0.8339 -0.2096 -0.5714
31173SOL     OW  376  10.306   6.315  10.812  0.1425  0.8905  0.5507
31173SOL    HW1  377  10.339   6.380  10.873 -0.1469  1.2059  0.3758
31173SOL    HW2  378  10.329   6.349  10.726 -0.9144  1.2827  0.4034
31174SOL     OW  379   8.876   4.082   9.118 -0.0441 -0.2834 -0.5841
31174SOL    HW1  380   8.854   4.120   9.204  2.8080  0.3361 -0.0293
31174SOL    HW2  381   8.840   4.144   9.055 -0.4306  0.3158  0.1978
31175SOL     OW  382   0.373  12.515   9.413  0.5910 -0.2863  0.2210
31175SOL    HW1  383   0.337  12.535   9.500 -0.2823  1.2250 -0.4632
31175SOL    HW2  384   0.321  12.440   9.383  1.4483 -1.3607  1.3068
31176SOL     OW  385   3.951   8.165   3.340  0.2155  0.3269  0.0229
31176SOL    HW1  386   3.878   8.146   3.399 -0.1674  1.9803  0.1247
31176SOL    HW2  387   4.025   8.119   3.379 -0.2903  0.4619  1.1907
31177SOL     OW  388   4.632   3.973   3.472  0.0272  0.4082 -0.2753
31177SOL    HW1  389   4.599   3.933   3.553 -0.1066  1.0517 -0.0004
31177SOL    HW2  390   4.671   3.901   3.423 -1.2092 -0.2746 -0.3105
31178SOL     OW  391   0.887  10.134  12.015 -0.4613  0.5977 -0.1190
31178SOL    HW1  392   0.891  10.227  11.992  0.5479  0.5004 -0.3835
31178SOL    HW2  393   0.949  10.124  12.087 -2.6631  0.6546  1.9063
31179SOL     OW  394   7.728   0.769   6.141 -0.0630  0.5811 -0.6737
31179SOL    HW1  395   7.717   0.677   6.168  0.4251  0.3370 -1.2994
31179SOL    HW2  396   7.656   0.784   6.080 -1.2127  1.1561  0.7716
31180SOL     OW  397   4.761   3.171   3.989  0.4706  0.2996 -0.1466
31180SOL    HW1  398   4.790   3.090   3.948 -0.4942  0.5924 -1.4982
31180SOL    HW2  399   4.675   3.150   4.026 -0.1682  0.8805 -1.2344
31181SOL     OW  400   1.796   1.836   7.769 -0.1797  0.2075 -0.6039
31181SOL    HW1  401   1.772   1.762   7.712 -1.3361  0.6961 -0.7933
31181SOL    HW2  402   1.778   1.913   7.715  0.2347  0.6401 -0.1214
31182SOL     OW  403   7.708  11.105   2.899  0.1706  0.2942  0.0103
31182SOL    HW1  404   7.667  11.157   2.830  0.0648  0.0667 -0.0987
31182SOL    HW2  405   7.698  11.014   2.870 -0.5239  0.1493  0.6769
31183SOL     OW  406   3.396   3.084   6.497  0.3085 -0.2515 -0.3633
31183SOL    HW1  407   3.370   3.050   6.583  0.9871  0.5626  0.1797
31183SOL    HW2  408   3.358   3.172   6.495 -1.0529 -0.8345 -1.5643
31184SOL     OW  409   2.309   1.495   1.293 -0.6548  0.6379  0.2838
31184SOL    HW1  410   2.276   1.409   1.267  2.1644 -0.3501 -0.3809
31184SOL    HW2  411   2.339   1.534   1.211 -0.7344  1.7337  0.7619
31185SOL     OW  412  10.010  11.909   0.497 -0.8181  0.5544 -0.0692
31185SOL    HW1  413   9.969  11.993   0.520  1.4203  1.2615  1.6850
31185SOL    HW2  414  10.015  11.861   0.579 -0.1895 -0.4470 -0.6681
31186SOL     OW  415   2.645   5.314   8.177 -0.1035  0.0835 -0.0270
31186SOL    HW1  416   2.657   5.304   8.082 -0.4031  3.4002 -0.5562
31186SOL    HW2  417   2.550   5.312   8.189 -0.2700  2.4782 -0.3445
31187SOL     OW  418   4.614   2.197   7.980  0.0041  0.3309 -0.3941
31187SOL    HW1  419   4.595   2.178   8.072 -1.6246 -0.1299 -0.7989
31187SOL    HW2  420   4.563   2.276   7.961 -0.1493  0.0740 -1.0641
31188SOL     OW  421   0.720   4.067  11.849  0.4353  0.4439 -0.4185
31188SOL    HW1  422   0.627   4.088  11.857 -0.4442 -3.3139  1.2007
31188SOL    HW2  423   0.744   4.099  11.762 -2.3123  1.6053 -0.8642
31189SOL     OW  424   5.585   5.814   4.626  0.3846  0.3735 -0.2026
31189SOL    HW1  425   5.552   5.727   4.647 -0.5670  0.5712 -0.8232
31189SOL    HW2  426   5.507   5.870   4.626  1.0929  1.3963  1.0033
31190SOL     OW  427   4.705   3.933  10.420 -0.4657  0.2481  0.0203
31190SOL    HW1  428   4.760   3.897  10.350  0.0753 -0.3796  0.7365
31190SOL    HW2  429   4.727   4.026  10.422 -0.0845  0.1712 -0.2884
31191SOL     OW  430   4.786  12.394   9.880  0.2441 -1.1501  0.6224
31191SOL    HW1  431   4.767  12.477   9.922  0.7705 -0.2327 -0.8552
31191SOL    HW2  432   4.701  12.357   9.859 -0.0184  0.2377 -0.9386
31192SOL     OW  433   8.193   1.643   2.813  0.2788 -0.2974  0.0822
31192SOL    HW1  434   8.135   1.592   2.757  0.0560 -0.1104  0.1423
31192SOL    HW2  435   8.188   1.601   2.898 -0.6501  0.3833  0.3854
31193SOL     OW  436   5.659  10.986  11.053 -0.1064  0.0513 -0.1620
31193SOL    HW1  437   5.677  10.967  10.961 -1.9967 -1.1647 -0.3370
31193SOL    HW2  438   5.583  11.043  11.051 -0.1534  0.0249  0.6620
31194SOL     OW  439   5.746   8.060   2.957 -0.6943 -0.3551  0.1644
31194SOL    HW1  440   5.785   8.093   2.876  0.1148 -2.7241 -0.4830
31194SOL    HW2  441   5.711   8.138   3.000  0.3527  1.1944 -1.6401
31195SOL     OW  442   2.161   3.368  10.119  0.4828 -0.8559 -0.0777
31195SOL    HW1  443   2.205   3.453  10.121  1.2233 -1.1495 -2.1015
31195SOL    HW2  444   2.232   3.304  10.111 -0.1744 -1.4962 -1.0190
31196SOL     OW  445  12.419   3.693   8.622  0.1689  0.0860 -0.1249
31196SOL    HW1  446  12.459   3.774   8.591 -1.3081  0.5176 -1.0034
31196SOL    HW2  447  12.403   3.642   8.542  0.6369 -0.8604  0.3742
31197SOL     OW  448   7.345   0.793  10.925 -0.1457  0.5026 -0.1326
31197SOL    HW1  449   7.282   0.725  10.949 -0.3757 -0.2713 -2.6341
31197SOL    HW2  450   7.399   0.752  10.857  2.0510  1.6786  0.8082
31198SOL     OW  451   2.432  10.001   7.672  0.8685  0.1674  0.1431
31198SOL    HW1  452   2.349   9.966   7.639  0.9414 -0.9767  1.0938
31198SOL    HW2  453   2.466  10.054   7.601 -0.7978  0.8667 -0.1732
31199SOL     OW  454   3.470   3.436  10.353  0.1337 -0.5822 -0.2470
31199SOL    HW1  455   3.517   3.374  10.296  0.3347  0.5671 -1.3819
31199SOL    HW2  456   3.378   3.426  10.328  0.2868  0.3503 -1.2300
31200SOL     OW  457   4.093   9.571   2.563 -0.6359  0.0954  0.0447
31200SOL    HW1  458   4.025   9.622   2.607 -0.2463  0.3194  0.3897
31200SOL    HW2  459   4.141   9.635   2.511 -1.7006 -0.3075 -1.5087
31201SOL     OW  460   0.812   8.742   4.041  0.6940  0.0886  0.1526
31201SOL    HW1  461   0.730   8.742   3.992 -0.3255 -1.2566  1.7542
31201SOL    HW2  462   0.872   8.690   3.988  0.1611  0.0968 -0.4708
31202SOL     OW  463   9.455   1.575   4.481 -0.1332 -0.1400 -0.0742
31202SOL    HW1  464   9.446   1.590   4.387 -0.3164  0.0248 -0.0297
31202SOL    HW2  465   9.547   1.593   4.499 -0.6230  2.4173  0.2372
31203SOL     OW  466   0.477   5.017  12.253  0.6198  0.2200 -0.0097
31203SOL    HW1  467   0.528   4.943  12.284  1.4905  0.7224 -0.2207
31203SOL    HW2  468   0.387   4.984  12.250  0.6553 -0.1814  1.9431
31204SOL     OW  469   8.625   8.165   5.771 -0.1027  0.0107  0.0902
31204SOL    HW1  470   8.718   8.167   5.750  0.1491 -0.7476  1.0498
31204SOL    HW2  471   8.608   8.247   5.817 -0.3919  1.1197 -1.8663
31205SOL     OW  472   3.315   7.793   3.899  0.0822 -0.2873  0.3957
31205SOL    HW1  473   3.260   7.862   3.935  0.4032  0.3118 -0.2246
31205SOL    HW2  474   3.375   7.770   3.970 -0.6462 -0.5990  0.9106
31206SOL     OW  475  10.433   4.453  10.852  0.3081 -0.0470  0.1486
31206SOL    HW1  476  10.401   4.531  10.896  2.2499  0.3793  0.9103
31206SOL    HW2  477  10.367   4.386  10.871  0.5894  0.3505  3.0130
31207SOL     OW  478   3.332   3.965   6.629  0.9818  0.2077  0.0318
31207SOL    HW1  479   3.414   3.977   6.678  0.7354  2.1623  0.0473
31207SOL    HW2  480   3.353   3.996   6.540  0.3517  0.3822 -0.0578
31208SOL     OW  481   2.211  10.083  11.228  0.2884 -0.2782  0.1038
31208SOL    HW1  482   2.211   9.989  11.208 -0.3090 -1.0340  3.1158
31208SOL    HW2  483   2.127  10.097  11.271 -0.7239  2.2527 -2.4316
31209SOL     OW  484   5.378   0.517   7.157  0.3946 -0.0805 -0.1312
31209SOL    HW1  485   5.473   0.519   7.163  0.4010 -1.3458  0.4244
31209SOL    HW2  486   5.355   0.603   7.121  1.6202  0.8777  1.2614
31210SOL     OW  487   1.824  11.426   1.402  0.4395 -0.1666  0.3250
31210SOL    HW1  488   1.755  11.362   1.421  1.6961 -1.5920  0.2723
31210SOL    HW2  489   1.799  11.463   1.318 -1.0405  0.4524  0.9992
31211SOL     OW  490   2.689   4.253   1.391 -0.0983  0.0609  0.8563
31211SOL    HW1  491   2.706   4.181   1.330 -0.7131 -0.3458  1.1598
31211SOL    HW2  492   2.662   4.325   1.334  0.1815 -0.0500  0.5776
31212SOL     OW  493  10.602   1.774   8.246  0.2025 -0.1027 -0.1952
31212SOL    HW1  494  10.552   1.692   8.253  0.5153 -0.2173  0.9165
31212SOL    HW2  495  10.557   1.824   8.179 -1.1286 -0.4052  0.4365
31213SOL     OW  496   0.867  11.769   2.476  0.1994 -0.8879 -0.6699
31213SOL    HW1  497   0.838  11.738   2.562  0.8276  0.5649  0.0973
31213SOL    HW2  498   0.952  11.727   2.463 -0.5993 -2.3742 -1.3384
31214SOL     OW  499   3.181   4.436   7.445  0.4935 -0.1113  0.0899
31214SOL    HW1  500   3.107   4.392   7.488 -0.2990  0.3354 -0.7918
31214SOL    HW2  501   3.173   4.411   7.353  1.1015  0.4182 -0.1094
31215SOL     OW  502   7.617   9.107   2.259 -0.1969 -0.0886 -0.1738
31215SOL    HW1  503   7.694   9.078   2.307  1.4715  0.1094 -2.5661
31215SOL    HW2  504   7.560   9.031   2.257 -1.4501  0.4943  3.9211
31216SOL     OW  505   2.200   9.631   4.685  0.0310 -0.2635  0.4215
31216SOL    HW1  506   2.134   9.699   4.673  1.5030  1.2960  0.6738
31216SOL    HW2  507   2.234   9.615   4.597  0.3332  0.0290  0.4828
31217SOL     OW  508  10.634   9.885   4.172  0.1328  0.0442 -0.6479
31217SOL    HW1  509  10.601   9.802   4.137 -1.3208 -0.0010  0.7537
31217SOL    HW2  510  10.596   9.952   4.115 -0.1525 -0.1595 -0.7000
31218SOL     OW  511   6.982   8.832   3.770  0.7575  0.1522 -0.6892
31218SOL    HW1  512   6.896   8.794   3.791  0.0921  1.9137  0.0352
31218SOL    HW2  513   7.028   8.764   3.722 -2.0180 -0.0054 -3.4507
31219SOL     OW  514   4.491   2.920   9.057 -0.9033 -0.4254  0.0890
31219SOL    HW1  515   4.475   2.905   8.964 -0.2004  1.4189 -0.3773
31219SOL    HW2  516   4.584   2.900   9.069 -0.9939 -0.6664  0.3976
31220SOL     OW  517   3.132   9.636   3.528 -0.2674 -1.0345 -0.2058
31220SOL    HW1  518   3.137   9.716   3.580  0.2927 -2.0777  1.4231
31220SOL    HW2  519   3.203   9.581   3.562 -2.6051 -3.5159  1.0304
31221SOL     OW  520   6.160   3.767   0.624  0.0841 -0.5604  0.0208
31221SOL    HW1  521   6.147   3.807   0.538  1.0215  0.2991  0.2583
31221SOL    HW2  522   6.236   3.812   0.660 -0.7146 -0.4069  1.6030
31222SOL     OW  523  10.311   4.133   0.800 -0.0111  0.0572  0.1320
31222SOL    HW1  524  10.288   4.104   0.888  0.3562  0.2468  0.2913
31222SOL    HW2  525  10.299   4.228   0.803 -0.3143  0.0306 -0.1204
31223SOL     OW  526   9.633  11.641   2.974 -0.6383 -0.3332 -0.0949
31223SOL    HW1  527   9.685  11.574   3.019  0.8507  0.8032 -0.0582
31223SOL    HW2  528   9.628  11.713   3.036 -1.7777 -0.1904 -0.3375
31224SOL     OW  529  11.267   9.783   3.212  0.1213 -0.5418  0.7544
31224SOL    HW1  530  11.175   9.798   3.235 -0.0846 -0.5324 -0.0535
31224SOL    HW2  531  11.264   9.742   3.126  0.8915 -0.1078  0.5073
31225SOL     OW  532   1.543   5.051   4.379  0.2718 -0.0159 -0.5667
31225SOL    HW1  533   1.571   5.137   4.350 -2.3385  1.1868  0.1794
31225SOL    HW2  534   1.612   5.022   4.440 -0.6215  3.4337  2.4060
31226SOL     OW  535  11.924   0.812  10.964 -0.0137  0.5850 -0.3262
31226SOL    HW1  536  11.872   0.865  10.904  0.2338  0.9676 -0.2011
31226SOL    HW2  537  12.012   0.850  10.960  0.3758 -0.3189 -0.8693
31227SOL     OW  538   7.421   5.772  11.389  0.3437 -0.1815  0.0365
31227SOL    HW1  539   7.423   5.812  11.476  1.3868  0.4052 -0.2281
31227SOL    HW2  540   7.388   5.684  11.403 -1.0394  0.4347  0.7965
31228SOL     OW  541   1.284   4.795   3.103 -0.3909  0.3611  0.0824
31228SOL    HW1  542   1.340   4.751   3.167 -0.5824  1.2006  0.8438
31228SOL    HW2  543   1.325   4.777   3.018  2.4597  2.9269  0.7407
31229SOL     OW  544   0.028   8.767  11.412  0.0685  0.0140 -0.1878
31229SOL    HW1  545  -0.020   8.693  11.375 -0.7034  0.3064  0.2112
31229SOL    HW2  546  -0.040   8.828  11.441  0.6918  0.9544 -0.6540
31230SOL     OW  547   6.880   9.302   7.430  0.5396  0.0867 -0.2402
31230SOL    HW1  548   6.869   9.351   7.348  0.6140 -0.1117 -0.3689
31230SOL    HW2  549   6.816   9.232   7.425  1.1105 -0.4312 -0.5137
31231SOL     OW  550   3.154  12.407   2.930  0.5258  0.0569  0.6691
31231SOL    HW1  551   3.140  12.332   2.872 -3.3517  0.7160  0.5221
31231SOL    HW2  552   3.165  12.482   2.871  2.8443 -0.0672  0.8410
31232SOL     OW  553   8.826  10.572  10.627 -0.3417  0.0708  0.0066
31232SOL    HW1  554   8.872  10.526  10.698 -2.1335  0.0991  1.2628
31232SOL    HW2  555   8.741  10.528  10.621 -1.5193  2.1676  0.2013
31233SOL     OW  556  11.876   0.939   2.222  0.2339  0.7619  0.0369
31233SOL    HW1  557  11.947   0.886   2.260  0.9104  0.8270 -1.0849
31233SOL    HW2  558  11.914   1.026   2.213  0.6551  0.4105 -2.1725
31234SOL     OW  559   5.848   7.430   8.551  0.2910 -0.4019  0.4650
31234SOL    HW1  560   5.763   7.407   8.513 -0.5005  0.1036  1.8274
31234SOL    HW2  561   5.826   7.475   8.633  1.8811 -1.9438  1.8206
31235SOL     OW  562  12.230  10.570  11.725  0.2270 -0.0715 -0.1742
31235SOL    HW1  563  12.255  10.510  11.795 -1.0022 -0.7837 -0.2985
31235SOL    HW2  564  12.250  10.657  11.759  2.1653 -0.5358 -0.0338
31236SOL     OW  565  11.769   5.979   9.021  0.0989 -0.2224 -0.1563
31236SOL    HW1  566  11.685   5.960   9.064  0.2931 -0.2992  0.1904
31236SOL    HW2  567  11.768   6.074   9.009  0.2692 -0.1305  0.5007
31237SOL     OW  568   6.842  11.513   7.376  0.1161  0.2980  0.1220
31237SOL    HW1  569   6.859  11.589   7.432 -0.2360 -1.8600  3.4174
31237SOL    HW2  570   6.924  11.464   7.377  0.0758  0.1577 -1.2779
31238SOL     OW  571  12.127   3.896   3.590 -0.1340  0.5018 -0.0608
31238SOL    HW1  572  12.119   3.986   3.558 -0.6656  0.7969  0.8823
31238SOL    HW2  573  12.037   3.868   3.607  0.1436  0.6762  1.9982
31239SOL     OW  574   2.148   2.915  12.108  0.3276  0.2591 -0.0291
31239SOL    HW1  575   2.230   2.951  12.141 -0.1917 -0.1925  1.9076
31239SOL    HW2  576   2.120   2.977  12.041  0.6601  2.1928  1.5214
31240SOL     OW  577   1.403   4.063   5.700 -0.2521  0.2333  0.1632
31240SOL    HW1  578   1.405   4.095   5.790  1.4949  0.0782  0.2288
31240SOL    HW2  579   1.374   4.138   5.648 -0.2314  0.6488  0.7459
31241SOL     OW  580   7.916   9.605   0.538  0.4947  0.0222 -0.2197
31241SOL    HW1  581   7.974   9.560   0.600 -0.7727 -1.2592  0.0892
31241SOL    HW2  582   7.830   9.605   0.581  0.0243  0.9334 -1.1187
31242SOL     OW  583   1.318  12.529  10.832  0.0820 -0.6822 -0.3975
31242SOL    HW1  584   1.330  12.607  10.777 -0.8223  0.2834  0.7350
31242SOL    HW2  585   1.380  12.540  10.904 -0.3037 -0.8217 -0.0376
31243SOL     OW  586   3.741   1.114   1.160 -0.3459  0.2272  0.1800
31243SOL    HW1  587   3.790   1.032   1.163  0.8545  0.9148  0.0935
31243SOL    HW2  588   3.655   1.092   1.196  0.0056 -1.0264  0.3037
31244SOL     OW  589   1.992   2.032   3.410 -0.5343 -0.2948  0.1980
31244SOL    HW1  590   1.968   2.084   3.487  1.7934  0.2514  0.6340
31244SOL    HW2  591   1.955   2.080   3.337  0.8682  1.6288  0.6666
31245SOL     OW  592   1.831   3.157  12.108  0.5479 -0.2093  0.2057
31245SOL    HW1  593   1.872   3.204  12.180 -0.3851 -1.0003  1.3086
31245SOL    HW2  594   1.751   3.206  12.090  0.9783  0.2164 -0.5862
31246SOL     OW  595  10.017   6.159  10.102  0.3943 -0.1138 -0.4692
31246SOL    HW1  596  10.040   6.247  10.074  0.9975  0.2907  1.1633
31246SOL    HW2  597  10.070   6.101  10.047  0.7811  0.5904 -0.8450
31247SOL     OW  598   1.087   6.134  11.051  0.1535  0.2577 -0.3256
31247SOL    HW1  599   1.022   6.065  11.058 -0.4344  0.6397 -1.6853
31247SOL    HW2  600   1.168   6.094  11.081 -0.3988 -0.6848 -0.0555
31248SOL     OW  601   4.142   2.240   8.014  0.2084  0.3681 -0.1693
31248SOL    HW1  602   4.158   2.215   7.923 -1.4583  1.0630 -0.6751
31248SOL    HW2  603   4.172   2.164   8.065  0.5159 -0.3097 -1.3327
31249SOL     OW  604   1.149   0.246   4.397 -0.4800  0.1267  0.0943
31249SOL    HW1  605   1.113   0.215   4.314 -0.3476  2.1164 -0.7667
31249SOL    HW2  606   1.094   0.204   4.464 -2.4691  0.7055 -1.0944
31250SOL     OW  607   0.266   6.805   6.922 -0.1586 -0.1522  0.1657
31250SOL    HW1  608   0.310   6.847   6.996  0.3924  1.5778 -1.0720
31250SOL    HW2  609   0.248   6.716   6.952 -0.7527  0.7274  2.6843
31251SOL     OW  610   5.953   5.524   2.294 -0.6671 -0.2916 -0.6597
31251SOL    HW1  611   6.045   5.499   2.306 -1.2163 -2.2030 -0.0451
31251SOL    HW2  612   5.926   5.479   2.215 -1.1585  0.0155 -0.6677
31252SOL     OW  613  11.608   3.569   0.225  0.2250 -0.2714  0.6543
31252SOL    HW1  614  11.606   3.646   0.281 -0.6540 -0.4768  0.9166
31252SOL    HW2  615  11.520   3.532   0.230  0.2040 -0.4660 -0.6356
31253SOL     OW  616   0.139   7.905   3.434  0.6377  0.1502 -0.3204
31253SOL    HW1  617   0.164   7.863   3.352 -2.3072 -0.6650 -0.9094
31253SOL    HW2  618   0.196   7.982   3.440  0.6616  0.4743 -3.3487
31254SOL     OW  619   5.407   6.258   8.218  0.0365 -0.0192 -0.3216
31254SOL    HW1  620   5.347   6.303   8.277  0.7796 -0.6596  0.9665
31254SOL    HW2  621   5.444   6.328   8.163  1.2929  1.0233  1.7320
31255SOL     OW  622   7.634   1.219  10.861 -0.2022  0.6512  0.2610
31255SOL    HW1  623   7.627   1.134  10.819  0.1225  0.7123  0.0812
31255SOL    HW2  624   7.637   1.200  10.955 -1.5445  0.5475  0.3055
31256SOL     OW  625  10.065   0.287   0.791 -0.1355 -0.5175 -0.0852
31256SOL    HW1  626  10.098   0.309   0.878 -1.6236 -3.6124  1.4052
31256SOL    HW2  627   9.983   0.336   0.783  0.5700  0.6663 -0.2796
31257SOL     OW  628   3.974  11.747   0.024 -0.4572 -0.2651 -0.2594
31257SOL    HW1  629   4.026  11.743   0.104 -2.5787  0.3066  1.2089
31257SOL    HW2  630   4.011  11.821  -0.025 -0.2148  0.4706  0.9943
31258SOL     OW  631  12.183   7.538   2.109  0.1312  0.3777  0.3650
31258SOL    HW1  632  12.269   7.513   2.073  0.8396  0.7945  1.6974
31258SOL    HW2  633  12.161   7.619   2.064  1.3775  1.3250  1.3698
31259SOL     OW  634   9.587   3.396   8.991 -0.3393  0.8044  0.0794
31259SOL    HW1  635   9.569   3.471   8.934 -0.6365  0.3289 -0.4636
31259SOL    HW2  636   9.503   3.376   9.032 -1.3829 -1.8187 -2.9351
31260SOL     OW  637  11.914   5.912   9.341 -0.2496 -0.6141  0.5736
31260SOL    HW1  638  11.988   5.958   9.380 -0.7166 -0.1699  0.9558
31260SOL    HW2  639  11.927   5.820   9.367 -0.2308 -0.4218  1.2799
31261SOL     OW  640   3.945   6.469   5.114 -0.3088  0.4364 -0.1553
31261SOL    HW1  641   3.998   6.417   5.175 -0.8982 -0.0153 -0.0137
31261SOL    HW2  642   4.005   6.534   5.079 -0.0441  0.9411  1.1877
31262SOL     OW  643   2.168   0.041   6.850  0.7785 -0.6961 -0.3227
31262SOL    HW1  644   2.249   0.068   6.893  1.5232  1.8533 -2.9932
31262SOL    HW2  645   2.140   0.118   6.800 -3.7264 -1.2482  0.9312
31263SOL     OW  646   0.393  11.421   9.312  0.4968  0.4151  0.3637
31263SOL    HW1  647   0.422  11.332   9.332  2.5223  1.2392  1.2951
31263SOL    HW2  648   0.311  11.431   9.361 -0.1494 -1.1475 -0.3312
31264SOL     OW  649  10.119  11.287  10.760  0.0234 -0.7133 -0.1935
31264SOL    HW1  650  10.096  11.380  10.759  0.9941 -0.4746 -0.3899
31264SOL    HW2  651  10.068  11.251  10.833 -0.3438 -0.0319 -0.1041
31265SOL     OW  652   9.038  10.236   2.860 -0.5344 -0.2227  0.3547
31265SOL    HW1  653   9.012  10.306   2.801  1.5938 -0.0219 -0.4384
31265SOL    HW2  654   9.075  10.281   2.936  2.3795 -0.3240 -0.8530
31266SOL     OW  655   2.549   9.153   2.996  0.2811 -0.1955  0.3165
31266SOL    HW1  656   2.474   9.094   2.992  2.4910 -3.2967  0.6396
31266SOL    HW2  657   2.536   9.203   3.076 -2.0708  0.4000 -0.3740
31267SOL     OW  658   9.069   0.309  10.710  0.2729 -0.3611 -0.3494
31267SOL    HW1  659   9.104   0.379  10.766  0.8799 -0.8929 -0.0481
31267SOL    HW2  660   9.075   0.230  10.764 -0.7629 -0.5871 -0.5512
31268SOL     OW  661   5.979   6.237   7.311 -0.0202 -0.2550  0.2634
31268SOL    HW1  662   6.018   6.179   7.246  0.0824  0.5282 -0.3812
31268SOL    HW2  663   6.053   6.270   7.361  0.3852  2.2915 -1.8183
31269SOL     OW  664   1.881   1.781   0.211  0.5820  0.2672  0.6301
31269SOL    HW1  665   1.806   1.722   0.209 -0.5880  1.6592  1.3511
31269SOL    HW2  666   1.922   1.771   0.125 -1.8823  1.2580 -0.7535
31270SOL     OW  667   9.260   0.189   3.093  0.2174  0.1449 -0.4978
31270SOL    HW1  668   9.232   0.098   3.092 -0.6500  0.3863 -2.8698
31270SOL    HW2  669   9.179   0.240   3.083  0.6889  1.2083  0.7065
31271SOL     OW  670   2.434   8.028   8.108 -0.0666 -0.4965  0.1268
31271SOL    HW1  671   2.367   8.079   8.152 -1.1412  0.0274 -2.0176
31271SOL    HW2  672   2.410   7.937   8.125 -1.3267 -0.3135 -0.6042
31272SOL     OW  673  10.077   4.023   9.476 -0.0993  0.6947 -0.0506
31272SOL    HW1  674  10.037   3.998   9.393  1.2094  0.9057 -0.7837
31272SOL    HW2  675  10.007   4.066   9.525 -1.4312 -1.2178 -0.1886
31273SOL     OW  676   7.764  11.311   1.950 -0.2100  0.1339 -0.4631
31273SOL    HW1  677   7.849  11.348   1.925  0.0083  0.2733  0.4493
31273SOL    HW2  678   7.700  11.372   1.912  0.0952  0.0849 -1.0655
31274SOL     OW  679   7.825   5.926   4.315  0.2070  0.2815  0.5649
31274SOL    HW1  680   7.741   5.971   4.324  0.7704  1.4269  0.2931
31274SOL    HW2  681   7.838   5.918   4.221  0.5444  0.4044  0.5981
31275SOL     OW  682   5.778  11.443   1.934 -0.2396 -0.1397 -0.3445
31275SOL    HW1  683   5.844  11.380   1.960 -0.2299 -0.4790 -1.1680
31275SOL    HW2  684   5.825  11.508   1.881 -0.5232 -0.2730 -0.7644
31276SOL     OW  685   4.760   9.581  10.940  0.0164 -0.5443 -0.0688
31276SOL    HW1  686   4.723   9.495  10.960  1.0744 -0.9448  0.1900
31276SOL    HW2  687   4.801   9.571  10.854 -1.2405  0.1538 -0.7853
31277SOL     OW  688   0.848   6.629  11.991 -0.1886  0.1556 -0.8655
31277SOL    HW1  689   0.929   6.616  12.041 -0.7681 -0.5422 -0.0714
31277SOL    HW2  690   0.847   6.558  11.928 -0.0572  0.3190 -1.0526
31278SOL     OW  691   2.261   4.950   9.428 -0.1901 -0.3971  0.2637
31278SOL    HW1  692   2.240   5.043   9.421 -1.4768 -0.7198 -0.7232
31278SOL    HW2  693   2.187   4.906   9.385  0.0514 -1.9050  1.3143
31279SOL     OW  694   8.223   1.146   9.041  0.2493  0.1420 -0.2737
31279SOL    HW1  695   8.183   1.067   9.004 -0.8640  0.6827 -0.2595
31279SOL    HW2  696   8.155   1.213   9.033  0.5581  0.6709  1.2824
31280SOL     OW  697   8.534   0.919  11.781  0.3974  0.4269  0.2062
31280SOL    HW1  698   8.492   0.905  11.866 -0.9643  1.6466 -0.2308
31280SOL    HW2  699   8.462   0.914  11.718  0.6614  3.5968 -0.4788
31281SOL     OW  700   3.118   1.252   4.952 -0.1226 -0.4021 -0.3526
31281SOL    HW1  701   3.043   1.215   4.907 -0.4825  1.6908 -1.6327
31281SOL    HW2  702   3.086   1.276   5.039 -0.7696 -0.0712 -0.6825
31282SOL     OW  703   6.843  12.184   7.950  0.1795  0.2660  0.0532
31282SOL    HW1  704   6.828  12.090   7.946  0.6814  0.2259 -1.0261
31282SOL    HW2  705   6.781  12.221   7.888 -2.1522  0.9544  2.5857
31283SOL     OW  706   5.343   9.545   0.891  0.3330 -0.1751  0.2110
31283SOL    HW1  707   5.317   9.512   0.977 -0.2278  2.0523  0.9632
31283SOL    HW2  708   5.316   9.636   0.891 -0.7483 -0.3788 -2.8037
31284SOL     OW  709   2.600   2.985   8.895 -0.8158  0.5134  0.6030
31284SOL    HW1  710   2.536   2.935   8.946  2.1607 -0.4089  3.8618
31284SOL    HW2  711   2.601   3.071   8.936  1.3187 -0.1084  2.0570
31285SOL     OW  712   1.719   2.502   7.639  0.0352  0.0403 -0.0928
31285SOL    HW1  713   1.742   2.541   7.555 -0.3338  2.2984  0.7636
31285SOL    HW2  714   1.800   2.462   7.670  0.4544  0.1413 -1.0300
31286SOL     OW  715   3.086   1.820   7.412 -0.1937 -0.8043 -0.3269
31286SOL    HW1  716   3.065   1.853   7.499 -1.3304 -0.2682 -0.7819
31286SOL    HW2  717   3.127   1.894   7.367  2.3192 -1.6952  0.3895
31287SOL     OW  718   6.638   6.481  12.331 -0.1912 -0.5593 -0.0539
31287SOL    HW1  719   6.600   6.433  12.404  0.3750  0.8967  1.2475
31287SOL    HW2  720   6.732   6.461  12.335 -0.3261 -1.6224 -1.3160
31288SOL     OW  721   6.757   0.688  10.211 -0.0434  0.1463 -0.3012
31288SOL    HW1  722   6.764   0.650  10.299  2.6744 -0.2412 -0.5876
31288SOL    HW2  723   6.741   0.781  10.225  1.2298  0.2413  0.6656
31289SOL     OW  724   9.935   0.656   7.274  0.1321  0.0995 -0.4530
31289SOL    HW1  725  10.016   0.640   7.226  0.2301  1.4267 -0.7633
31289SOL    HW2  726   9.963   0.671   7.364  0.1005 -0.6586 -0.3038
31290SOL     OW  727  10.659   7.528   6.898 -0.0414  0.1380  0.0274
31290SOL    HW1  728  10.628   7.446   6.859 -0.1120  0.0997  0.1616
31290SOL    HW2  729  10.674   7.506   6.990 -1.6379  0.6805  0.4526
31291SOL     OW  730  10.240  10.209   0.517  0.1210 -0.4696  0.5392
31291SOL    HW1  731  10.182  10.206   0.441  0.3177  0.2460  0.3528
31291SOL    HW2  732  10.183  10.193   0.592 -0.4848  1.0421  0.4339
31292SOL     OW  733   9.229   4.441   7.608  0.1072  0.3788  0.0318
31292SOL    HW1  734   9.238   4.355   7.567 -1.6580  1.0127 -1.8849
31292SOL    HW2  735   9.181   4.425   7.689  0.4872 -0.5226  0.0800
31293SOL     OW  736   4.948   5.784   6.780 -0.6519 -0.3911 -0.2689
31293SOL    HW1  737   5.042   5.802   6.787 -0.3640 -0.8782 -2.2578
31293SOL    HW2  738   4.920   5.768   6.870  1.3786 -1.1965  0.2906
31294SOL     OW  739  10.350   4.781   9.879  0.2045  0.1085  0.4474
31294SOL    HW1  740  10.359   4.780   9.783 -1.3738 -0.2186  0.2853
31294SOL    HW2  741  10.401   4.705   9.908 -0.7692 -0.8701 -0.2983
31295SOL     OW  742   7.423   8.393   7.036  0.5053  0.8514 -0.4849
31295SOL    HW1  743   7.442   8.482   7.067  0.0553  0.6613  0.3715
31295SOL    HW2  744   7.496   8.341   7.068 -0.6942  0.3698  1.6521
31296SOL     OW  745   7.581  11.586   5.977  0.5145  0.0048  0.3784
31296SOL    HW1  746   7.592  11.661   5.920 -0.2155  0.0159  0.2460
31296SOL    HW2  747   7.487  11.569   5.977  0.4917  0.0135  1.5820
31297SOL     OW  748   8.038   6.307   3.958 -0.0149  0.0558  0.2103
31297SOL    HW1  749   8.090   6.381   3.990  0.4703 -0.7145  1.3041
31297SOL    HW2  750   7.995   6.339   3.879  0.2391  1.4696  0.6251
31298SOL     OW  751   5.770   0.954   9.579 -0.2507  0.1808  0.4897
31298SOL    HW1  752   5.682   0.917   9.569 -0.8973  1.3843  1.4532
31298SOL    HW2  753   5.828   0.878   9.584 -1.2809 -0.6410  0.2358
31299SOL     OW  754   3.697  11.826   3.846  0.1918  0.2473  0.1792
31299SOL    HW1  755   3.692  11.922   3.853 -1.1256  0.1452  1.0807
31299SOL    HW2  756   3.782  11.809   3.807 -0.1103  1.8513 -1.2982
31300SOL     OW  757   3.801   6.737   7.065  0.3033 -0.5457 -0.1589
31300SOL    HW1  758   3.813   6.805   7.131  2.4711  0.4186 -1.4478
31300SOL    HW2  759   3.718   6.695   7.089 -0.6088  1.8547  1.2615
31301SOL     OW  760   5.453   6.417   9.770  0.0934 -0.0815 -0.1245
31301SOL    HW1  761   5.400   6.452   9.698 -0.1427 -0.8537 -0.3334
31301SOL    HW2  762   5.412   6.451   9.849 -0.5177 -0.4019 -0.2991
31302SOL     OW  763   1.909   5.202   6.099  0.7442 -0.3886  0.6599
31302SOL    HW1  764   1.836   5.197   6.037  0.5995 -1.5551  0.9078
31302SOL    HW2  765   1.986   5.217   6.044  0.3594  0.6801  0.3850
31303SOL     OW  766   8.891   4.153   1.632 -0.4547 -0.4925  0.3381
31303SOL    HW1  767   8.844   4.093   1.689  0.2709 -1.2391  0.1708
31303SOL    HW2  768   8.847   4.237   1.643  0.1420 -0.4289  2.5903
31304SOL     OW  769   8.128   9.003   2.668  0.0525  0.4227 -0.2113
31304SOL    HW1  770   8.184   8.975   2.740  0.4535  0.3654 -0.5374
31304SOL    HW2  771   8.045   9.028   2.709  0.3698  0.6559  0.2981
31305SOL     OW  772   5.927   0.107   0.827  0.0632 -0.3579  0.3581
31305SOL    HW1  773   5.849   0.127   0.776  0.8014  0.7537 -0.3897
31305SOL    HW2  774   5.943   0.015   0.811 -0.9815 -0.5572  0.3787
31306SOL     OW  775   5.926   0.291   0.587  0.5614 -0.1996  0.5850
31306SOL    HW1  776   5.946   0.354   0.656 -0.3241 -0.0961  0.7641
31306SOL    HW2  777   6.001   0.231   0.586  1.8572  1.3610 -0.2179
31307SOL     OW  778   1.295  10.025   8.312 -0.1609 -0.2174  0.0523
31307SOL    HW1  779   1.367   9.976   8.352  0.2315 -0.2601 -0.6865
31307SOL    HW2  780   1.290  10.106   8.362  3.7856  2.1912 -2.8755
31308SOL     OW  781   4.223  11.644  11.260 -0.2920  0.1555 -0.5367
31308SOL    HW1  782   4.144  11.684  11.295  0.1291  0.3641  0.1957
31308SOL    HW2  783   4.217  11.552  11.285  0.6873  0.5612  1.4208
31309SOL     OW  784   4.919  11.008   9.986 -0.2372  0.4160  0.4194
31309SOL    HW1  785   4.880  10.922   9.971  1.1486  0.0083 -1.3073
31309SOL    HW2  786   4.914  11.021  10.080 -0.9864 -1.3104  0.6554
31310SOL     OW  787   2.586   2.625   7.648  0.5096  0.1730  0.2428
31310SOL    HW1  788   2.608   2.659   7.561  2.6127  0.9288  0.9939
31310SOL    HW2  789   2.508   2.674   7.674  1.1731  1.5793 -0.3233
31311SOL     OW  790  12.085  10.308   0.033  0.3978  0.0222  0.1327
31311SOL    HW1  791  12.079  10.259  -0.049  1.0167 -2.2902  1.3682
31311SOL    HW2  792  11.996  10.309   0.067 -0.1698  2.3372 -1.2103
31312SOL     OW  793   7.005   4.709   0.241 -0.2425  0.1159 -0.7235
31312SOL    HW1  794   7.093   4.709   0.278 -0.3716 -1.1282 -0.3776
31312SOL    HW2  795   6.947   4.710   0.317 -0.5418  1.1835 -0.9529
31313SOL     OW  796   7.047   6.865   9.228  0.0007  1.2107  0.4767
31313SOL    HW1  797   7.034   6.826   9.142 -0.5999 -0.1421  1.1463
31313SOL    HW2  798   7.142   6.878   9.234  0.0555  1.2686 -0.3590
31314SOL     OW  799   6.757  10.601   3.519 -0.2886  0.4792 -0.0524
31314SOL    HW1  800   6.756  10.523   3.463 -0.6704  0.4208  0.0368
31314SOL    HW2  801   6.804  10.667   3.468 -0.2704  0.2983 -0.2698
31315SOL     OW  802   6.307   1.217   0.539 -0.0878  0.0332  0.1573
31315SOL    HW1  803   6.348   1.293   0.579  0.2426 -0.1146  0.1050
31315SOL    HW2  804   6.213   1.229   0.554  0.0428 -0.1197  1.1539
31316SOL     OW  805   7.858   3.920   2.726 -0.0563  0.2742 -0.3307
31316SOL    HW1  806   7.946   3.949   2.749  0.7449 -2.1648  0.0430
31316SOL    HW2  807   7.807   3.928   2.807 -0.2487  1.8448 -0.5913
31317SOL     OW  808  10.599   9.690  10.232 -0.2940  0.3053  0.0533
31317SOL    HW1  809  10.578   9.598  10.214  0.9077  0.3054 -1.4784
31317SOL    HW2  810  10.691   9.689  10.258  0.2605  1.2389 -1.7058
31318SOL     OW  811   6.592   0.147  10.461 -0.1430 -0.2418  0.3214
31318SOL    HW1  812   6.515   0.201  10.444  1.2493  1.6462 -0.4152
31318SOL    HW2  813   6.631   0.185  10.540  0.9018 -0.0664 -0.2540
31319SOL     OW  814   9.952   7.382   0.500 -0.3365  0.3951 -0.1171
31319SOL    HW1  815   9.877   7.399   0.556  0.1642  2.1439  0.1049
31319SOL    HW2  816   9.955   7.287   0.490 -0.5014 -0.0024  2.7611
31320SOL     OW  817   8.834  10.627   1.932  0.4620 -0.1926  0.7502
31320SOL    HW1  818   8.868  10.709   1.968  1.1135  0.7503 -1.8306
31320SOL    HW2  819   8.807  10.649   1.843 -4.1410 -1.6222  1.5434
31321SOL     OW  820   5.624   1.550   7.381 -0.2724  0.2715 -0.0252
31321SOL    HW1  821   5.569   1.516   7.452  0.2553 -0.1940  0.1666
31321SOL    HW2  822   5.574   1.622   7.345 -1.5847 -0.9106 -0.6569
31322SOL     OW  823   0.290   9.996   2.466  0.0666 -0.1420 -0.1624
31322SOL    HW1  824   0.283  10.053   2.390 -1.2686 -0.7713 -0.5391
31322SOL    HW2  825   0.381  10.006   2.495  0.1193  1.4252 -0.7768
31323SOL     OW  826   1.791   8.093   6.013 -0.0312  0.0375 -0.0610
31323SOL    HW1  827   1.876   8.049   6.015 -0.5942 -1.1358 -0.7883
31323SOL    HW2  828   1.803   8.172   6.067  0.5098 -1.9022  2.8845
31324SOL     OW  829   8.931   0.548   2.960  0.0251 -0.0170  0.6072
31324SOL    HW1  830   9.012   0.564   2.911 -0.9872 -0.3404 -1.2946
31324SOL    HW2  831   8.920   0.626   3.015 -0.9500  2.5956 -2.9255
31325SOL     OW  832  11.359   8.857   2.157  0.1662 -0.1263 -0.3918
31325SOL    HW1  833  11.276   8.904   2.151  0.5400  0.8205  1.3122
31325SOL    HW2  834  11.344   8.790   2.223  1.3036  1.3635  1.4739
31326SOL     OW  835   5.075   3.503   2.332  0.0159 -0.4204 -0.1718
31326SOL    HW1  836   5.109   3.586   2.365 -0.1568 -0.5320  0.2988
31326SOL    HW2  837   5.136   3.437   2.365  0.2440 -0.4624 -0.6826
31327SOL     OW  838   6.814   2.388   9.618  0.2420 -0.1711  0.0771
31327SOL    HW1  839   6.866   2.467   9.630  0.2314 -0.0524 -0.6132
31327SOL    HW2  840   6.728   2.420   9.591 -0.1828 -0.3673  1.1677
31328SOL     OW  841   9.161   2.975   3.772  0.7108  0.2679 -0.0304
31328SOL    HW1  842   9.246   2.933   3.761  1.0382  0.9218 -0.0419
31328SOL    HW2  843   9.098   2.903   3.765  1.3123 -0.3976  1.0640
31329SOL     OW  844   4.096   5.163   1.500  0.1462  0.1632 -0.4704
31329SOL    HW1  845   4.181   5.166   1.457 -0.1372 -0.5744 -1.1167
31329SOL    HW2  846   4.107   5.215   1.579  0.6028  1.7861 -1.5560
31330SOL     OW  847   4.704  12.531   5.390  0.0052 -0.3569  0.1211
31330SOL    HW1  848   4.614  12.549   5.363  0.1680 -0.8388 -0.7875
31330SOL    HW2  849   4.722  12.444   5.354  1.4674  0.5191 -1.4203
31331SOL     OW  850   8.092  10.687   4.705 -0.2734 -0.2908 -0.3427
31331SOL    HW1  851   8.002  10.699   4.674 -0.2841  0.0315 -0.1875
31331SOL    HW2  852   8.090  10.604   4.751 -0.3068 -0.6757 -1.0223
31332SOL     OW  853   6.160   3.710   9.529 -0.1534  0.5608 -0.1058
31332SOL    HW1  854   6.111   3.713   9.446 -2.7570 -1.3418  1.1940
31332SOL    HW2  855   6.133   3.789   9.576 -2.2685 -0.5216  0.6426
31333SOL     OW  856   3.042   4.680   5.900  0.5702 -0.4353 -0.1582
31333SOL    HW1  857   3.110   4.615   5.917  0.5970 -0.3142  0.2102
31333SOL    HW2  858   3.021   4.669   5.807  0.4539 -1.0778 -0.0621
31334SOL     OW  859   4.222   0.160   9.335  0.2599 -0.2291  0.2705
31334SOL    HW1  860   4.249   0.235   9.282  0.6799 -0.2537  0.4524
31334SOL    HW2  861   4.126   0.164   9.335  0.2851  0.3687  0.3760
31335SOL     OW  862   3.830   9.896   8.401 -0.3311 -0.1156  0.0537
31335SOL    HW1  863   3.922   9.920   8.391 -0.5500  0.1270 -1.6087
31335SOL    HW2  864   3.789   9.922   8.319 -1.8829 -0.2985  0.7314
31336SOL     OW  865  11.420   9.409  12.473  0.0340  1.0625  0.7116
31336SOL    HW1  866  11.514   9.426  12.483  0.5823  1.4671 -3.3817
31336SOL    HW2  867  11.414   9.349  12.399 -2.8851 -2.0520  3.1469
31337SOL     OW  868   0.960   3.067   0.770 -0.6991  0.0886  0.5957
31337SOL    HW1  869   0.944   2.992   0.828  1.8646 -0.6994  0.4183
31337SOL    HW2  870   0.972   3.141   0.829  0.8426 -0.5038  1.1030
31338SOL     OW  871   0.572   5.796   1.292 -0.4145  0.6939 -0.8208
31338SOL    HW1  872   0.639   5.861   1.272 -1.1172  1.5070 -0.5593
31338SOL    HW2  873   0.562   5.800   1.387  0.5928 -0.8698 -0.6022
31339SOL     OW  874   1.704   1.027   3.373  0.1727  0.2405  0.2633
31339SOL    HW1  875   1.730   1.029   3.281  1.7548 -0.6150  0.6589
31339SOL    HW2  876   1.684   1.118   3.395  1.3360  0.7002 -0.5081
31340SOL     OW  877   8.916   1.327  10.886  0.3239  0.3595 -0.0083
31340SOL    HW1  878   8.962   1.350  10.967  2.3239 -0.2137 -0.9041
31340SOL    HW2  879   8.875   1.243  10.904  1.0757  0.0552  0.3171
31341SOL     OW  880   5.891   7.612   4.353  0.2422  0.3134  0.1915
31341SOL    HW1  881   5.885   7.561   4.273 -0.8762  0.2615  0.2911
31341SOL    HW2  882   5.801   7.618   4.385  0.4907  1.4279  0.7573
31342SOL     OW  883  11.836   6.500   6.766 -0.0779  0.6020  0.2521
31342SOL    HW1  884  11.776   6.470   6.697 -1.3774  1.3118  1.0299
31342SOL    HW2  885  11.882   6.422   6.793 -0.8539 -0.0298 -0.1879
31343SOL     OW  886   7.429   7.085   0.473  0.0664  0.5681  0.0104
31343SOL    HW1  887   7.502   7.128   0.428 -0.6375  0.2102 -1.5572
31343SOL    HW2  888   7.353   7.103   0.417 -0.9740  0.5569  1.3763
31344SOL     OW  889   2.764   1.845   8.334 -0.1666  0.5038  0.4408
31344SOL    HW1  890   2.844   1.887   8.367 -0.0366  0.2359  0.4719
31344SOL    HW2  891   2.750   1.772   8.393  0.6724 -0.6315 -0.7066
31345SOL     OW  892   4.506  11.183   9.847 -0.5114  0.5490  0.1189
31345SOL    HW1  893   4.596  11.151   9.850  0.4391  2.9153 -0.8340
31345SOL    HW2  894   4.454  11.111   9.881  1.6512 -1.1995 -0.0590
31346SOL     OW  895   6.815   1.243  11.679  0.7793  0.2222  0.4766
31346SOL    HW1  896   6.725   1.213  11.686  0.5057  1.2104  1.5937
31346SOL    HW2  897   6.845   1.251  11.770  0.5270  4.0289  0.3920
31347SOL     OW  898   8.643   0.264   2.582 -0.2564 -0.2410  0.3800
31347SOL    HW1  899   8.644   0.342   2.637 -0.7772  0.4794 -0.5974
31347SOL    HW2  900   8.579   0.205   2.623 -2.2849  1.1694 -0.5741
31348SOL     OW  901   6.479   9.609   5.585 -0.4019 -0.4512 -0.2500
31348SOL    HW1  902   6.431   9.569   5.658  2.1956 -1.9963  0.7470
31348SOL    HW2  903   6.518   9.688   5.623  1.0370 -1.3120  0.1334
31349SOL     OW  904   2.459   9.409   9.230 -0.7228 -0.4078  0.0919
31349SOL    HW1  905   2.505   9.399   9.146  0.7386 -0.3110  0.8576
31349SOL    HW2  906   2.502   9.483   9.272 -1.8211 -0.0961  0.7035
31350SOL     OW  907   3.925   2.498   2.844  0.5279  0.1374 -0.7723
31350SOL    HW1  908   3.830   2.505   2.841  0.5844  1.3711 -0.5130
31350SOL    HW2  909   3.955   2.589   2.851  1.6457 -0.3406  1.4546
31351SOL     OW  910  11.241   3.033   3.285 -0.0876 -0.1450  0.0316
31351SOL    HW1  911  11.160   3.046   3.236 -0.2064  0.0407  0.2777
31351SOL    HW2  912  11.239   3.099   3.354  1.7372  1.9988 -1.8196
31352SOL     OW  913  12.318   5.257   9.834  0.1273 -0.5379 -0.0738
31352SOL    HW1  914  12.395   5.272   9.778  1.0962 -2.5013  0.6390
31352SOL    HW2  915  12.279   5.344   9.846  0.3828  0.0953 -3.0434
31353SOL     OW  916   5.007   1.799   2.216 -0.1748 -0.2317  0.2183
31353SOL    HW1  917   4.924   1.754   2.235 -2.0945  2.8076 -0.4009
31353SOL    HW2  918   4.999   1.884   2.257  0.7386  1.8540 -3.4752
31354SOL     OW  919   9.682   9.417   5.640 -0.0402 -0.3805 -0.0006
31354SOL    HW1  920   9.772   9.445   5.625  0.3516 -1.7617 -0.4251
31354SOL    HW2  921   9.628   9.486   5.601  0.7902  0.8057  0.8721
31355SOL     OW  922  11.147   9.175   6.812 -0.0918  0.0680  0.1927
31355SOL    HW1  923  11.175   9.111   6.877 -1.3647 -1.6435 -0.8783
31355SOL    HW2  924  11.086   9.128   6.756 -0.6606  2.0780 -0.9844
31356SOL     OW  925   0.581   4.342   3.228 -0.3133  0.2364  0.4136
31356SOL    HW1  926   0.675   4.332   3.242 -0.6000 -2.1576  0.9665
31356SOL    HW2  927   0.549   4.384   3.308  0.1917  0.4635  0.4986
31357SOL     OW  928   5.618   4.355   3.113 -0.5072  0.5159  0.5245
31357SOL    HW1  929   5.565   4.309   3.177  1.5229 -1.7453  0.7168
31357SOL    HW2  930   5.673   4.287   3.073 -0.6241  2.0514 -2.5919
31358SOL     OW  931  11.878  12.373   3.134 -0.3189 -0.2723 -0.3010
31358SOL    HW1  932  11.900  12.288   3.096 -0.6045 -0.5397  0.1236
31358SOL    HW2  933  11.880  12.433   3.060  2.1437 -0.2049 -0.2585
31359SOL     OW  934   1.615   2.912   3.897 -0.5583 -0.0844 -0.5194
31359SOL    HW1  935   1.578   2.844   3.953  0.9788 -0.1560  0.4809
31359SOL    HW2  936   1.694   2.872   3.861  0.2684  1.0714 -0.0694
31360SOL     OW  937   6.437  10.700   2.099  0.2676 -0.6387  0.8714
31360SOL    HW1  938   6.364  10.748   2.060  0.4172 -0.9666  0.1846
31360SOL    HW2  939   6.489  10.670   2.025  1.7419  0.5754  1.3738
31361SOL     OW  940   6.244   9.416   1.390  0.2920  0.0338 -0.2192
31361SOL    HW1  941   6.271   9.506   1.409 -1.8209  0.9739 -1.2942
31361SOL    HW2  942   6.249   9.409   1.295  1.4232 -1.3665 -0.0914
31362SOL     OW  943  11.781   6.179  11.996  0.1249  0.0942  0.5685
31362SOL    HW1  944  11.745   6.209  11.912  2.3260 -0.9434 -0.8243
31362SOL    HW2  945  11.829   6.255  12.029 -0.6009  0.4498  0.8333
31363SOL     OW  946   0.273   9.519  10.349 -0.4990 -0.1285  0.2421
31363SOL    HW1  947   0.279   9.424  10.336 -0.8853  0.0012 -1.0071
31363SOL    HW2  948   0.344   9.539  10.409 -0.2208 -1.1760  0.2839
31364SOL     OW  949   3.674   2.538   8.355  0.2683  0.0001 -0.1967
31364SOL    HW1  950   3.731   2.509   8.426 -0.6500 -1.2086  0.0798
31364SOL    HW2  951   3.590   2.554   8.398  0.3015  1.4555 -0.6486
31365SOL     OW  952   1.265   7.766   6.701 -0.1242 -0.3316 -0.1802
31365SOL    HW1  953   1.230   7.740   6.616 -1.1896 -0.3025  0.2248
31365SOL    HW2  954   1.293   7.684   6.742  2.6634 -0.1324 -1.4652
31366SOL     OW  955  10.811   4.655   7.341  0.2027  0.6268 -0.3875
31366SOL    HW1  956  10.778   4.584   7.286 -3.1805  3.0580 -1.8247
31366SOL    HW2  957  10.749   4.658   7.415  0.3914  1.9397 -0.2618
31367SOL     OW  958   1.159   1.593   5.722  0.0182  0.2887 -0.0729
31367SOL    HW1  959   1.083   1.592   5.781 -1.0161  0.9584 -1.3460
31367SOL    HW2  960   1.122   1.616   5.637  1.8279  1.9343 -0.4774
31368SOL     OW  961   1.635   4.818   9.323 -0.2012  0.1141 -0.1296
31368SOL    HW1  962   1.622   4.761   9.399 -0.1569 -1.4492 -1.2373
31368SOL    HW2  963   1.674   4.898   9.359 -0.1295 -0.6000  1.4701
31369SOL     OW  964   9.840   6.481   7.914  0.5112 -0.7967  0.5921
31369SOL    HW1  965   9.894   6.527   7.850 -0.3058 -0.1372  0.3541
31369SOL    HW2  966   9.893   6.479   7.993  0.1432  1.6569  0.9867
31370SOL     OW  967   8.211   2.205   9.436 -0.0483  0.7457 -0.2518
31370SOL    HW1  968   8.299   2.234   9.460 -0.1991  1.3635 -0.4366
31370SOL    HW2  969   8.221   2.111   9.418  0.3785  0.6049  0.6610
31371SOL     OW  970   8.993   8.931   7.835 -0.4000  0.0967 -0.1343
31371SOL    HW1  971   8.923   8.993   7.856 -0.2032  0.2484  0.0700
31371SOL    HW2  972   9.045   8.976   7.768 -0.3392  0.0941 -0.0881
31372SOL     OW  973   4.554   0.712   2.347  0.2661  0.3862 -0.1848
31372SOL    HW1  974   4.595   0.794   2.320 -1.3931  1.4588  0.3954
31372SOL    HW2  975   4.494   0.737   2.417 -1.3596 -1.0917 -0.9784
31373SOL     OW  976   4.027  10.119   7.094 -1.0309 -0.5343 -0.0308
31373SOL    HW1  977   4.103  10.113   7.152 -0.4959  1.1621 -0.5070
31373SOL    HW2  978   4.053  10.070   7.016 -1.4894 -2.2393  0.8412
31374SOL     OW  979   6.791   9.807   1.195  0.0566  0.6225  0.8076
31374SOL    HW1  980   6.784   9.780   1.286  0.2834 -0.4913  0.5032
31374SOL    HW2  981   6.747   9.738   1.145  0.5837  0.8424  0.0146
31375SOL     OW  982   2.394   2.275   0.978  0.0425 -0.5029  0.5001
31375SOL    HW1  983   2.442   2.211   1.031 -0.9965 -1.7111  0.0395
31375SOL    HW2  984   2.424   2.360   1.010  2.4368 -1.1726  0.2794
31376SOL     OW  985  11.715  11.628   8.812 -0.0640 -0.2250 -0.3025
31376SOL    HW1  986  11.749  11.563   8.750  0.8074 -0.4544  0.3890
31376SOL    HW2  987  11.698  11.578   8.891  1.1654  0.4636  0.4277
31377SOL     OW  988  11.389  10.728  12.367  0.1440 -0.7156  0.0072
31377SOL    HW1  989  11.351  10.772  12.291 -4.2618 -1.7470  1.3675
31377SOL    HW2  990  11.414  10.641  12.334  1.7569  0.0625 -0.9641
31378SOL     OW  991   5.805   7.113   9.878 -0.8460 -0.4560 -0.2719
31378SOL    HW1  992   5.803   7.084   9.786 -0.3960 -1.8531  0.1296
31378SOL    HW2  993   5.871   7.057   9.919 -0.0446  1.0800  0.6210
31379SOL     OW  994   0.769  11.146  10.881 -0.2482  0.7695  0.2665
31379SOL    HW1  995   0.718  11.164  10.802 -0.2096 -1.2307 -0.2491
31379SOL    HW2  996   0.732  11.065  10.916  1.2510  0.3807  1.0212
31380SOL     OW  997   4.831   9.897   4.182  0.2609 -0.0970 -0.3389
31380SOL    HW1  998   4.777   9.947   4.243  2.3064  0.3083  1.2537
31380SOL    HW2  999   4.836   9.810   4.221  1.1280  0.0033 -0.2234
31381SOL     OW 1000   4.433   8.714   0.204 -0.4702  0.6688  0.6058
31381SOL    HW1 1001   4.465   8.683   0.120 -0.2111  1.2017  0.5061
31381SOL    HW2 1002   4.454   8.807   0.205  1.2894  0.3097  2.0649
31382SOL     OW 1003   9.633  10.418   7.722 -0.3152 -0.2684  0.0880
31382SOL    HW1 1004   9.542  10.419   7.695  0.3529 -0.3403 -2.4078
31382SOL    HW2 1005   9.654  10.509   7.741 -0.7994 -0.2097  0.3513
31383SOL     OW 1006   3.296   2.958   0.049 -0.0821 -0.1275  0.2833
31383SOL    HW1 1007   3.207   2.978   0.080 -0.6669 -0.6732 -0.9913
31383SOL    HW2 1008   3.299   2.863   0.047 -0.2527 -0.1201 -1.7941
31384SOL     OW 1009   0.397   0.796   3.360 -0.3769  0.5212 -0.1635
31384SOL    HW1 1010   0.320   0.812   3.305 -0.1321  1.5640 -0.2273
31384SOL    HW2 1011   0.442   0.881   3.364  0.8038 -0.0814 -0.1755
31385SOL     OW 1012  11.818   1.847   7.899 -0.6674  0.0291  0.6746
31385SOL    HW1 1013  11.888   1.783   7.886 -1.8951 -1.4568  1.0034
31385SOL    HW2 1014  11.840   1.920   7.841  0.9588 -0.5503  0.5298
31386SOL     OW 1015  10.998   6.976   2.648  0.4314  0.2477 -0.3151
31386SOL    HW1 1016  10.985   6.967   2.743  0.7685 -2.5255 -0.4461
31386SOL    HW2 1017  11.087   7.009   2.638 -0.1240  2.0422  0.3086
31387SOL     OW 1018   0.712   4.113   2.024 -0.4720 -0.2205  0.1286
31387SOL    HW1 1019   0.765   4.188   2.050 -0.5785 -0.5644  1.3772
31387SOL    HW2 1020   0.638   4.150   1.977  0.1522  0.3524 -0.4355
31388SOL     OW 1021   4.795   8.931  10.665 -0.0365  0.0006  0.6044
31388SOL    HW1 1022   4.700   8.939  10.680 -0.1940  1.6741 -0.9529
31388SOL    HW2 1023   4.828   9.020  10.678  1.0279 -0.1942 -0.6741
31389SOL     OW 1024   4.064   4.068   6.654 -0.3983 -0.5811  0.4070
31389SOL    HW1 1025   4.066   4.009   6.729 -1.2598 -1.0946  0.0458
31389SOL    HW2 1026   4.004   4.138   6.680 -0.1671 -0.3977  0.4514
31390SOL     OW 1027   0.928  12.544   4.937 -0.1562 -0.2901 -0.0643
31390SOL    HW1 1028   0.927  12.620   4.878  0.2773 -0.3409 -0.1439
31390SOL    HW2 1029   0.839  12.539   4.972  0.4845  2.0321  2.2218
31391SOL     OW 1030   3.005   4.727   3.782  0.0115 -0.4732  0.0946
31391SOL    HW1 1031   3.088   4.682   3.800  0.8384  0.7498 -0.5007
31391SOL    HW2 1032   3.031   4.816   3.759 -1.6098  0.6159  2.1282
31392SOL     OW 1033   6.754   5.785  12.127  0.3760 -0.3617 -0.2514
31392SOL    HW1 1034   6.723   5.769  12.215 -0.9492  1.4864 -0.3269
31392SOL    HW2 1035   6.850   5.791  12.136  0.2654 -0.2886  1.0464
31393SOL     OW 1036   9.410   6.871   3.464  0.7228 -0.1058 -0.4875
31393SOL    HW1 1037   9.440   6.946   3.515  1.8315 -0.2807 -0.8399
31393SOL    HW2 1038   9.469   6.800   3.491 -1.4276 -1.3671  1.1879
31394SOL     OW 1039   5.735  12.291   7.973 -0.2234 -0.3930  0.4008
31394SOL    HW1 1040   5.758  12.306   7.881 -0.4325 -1.9850  0.0468
31394SOL    HW2 1041   5.737  12.377   8.013  1.0282  0.1871 -0.8371
31395SOL     OW 1042   2.216   4.544   5.931 -0.2270 -0.5000  0.0842
31395SOL    HW1 1043   2.246   4.534   6.022  0.8114  0.2044 -0.1580
31395SOL    HW2 1044   2.125   4.515   5.932 -0.4561  0.2014  1.4998
31396SOL     OW 1045   9.130  10.833   2.646  0.1700  1.0540  0.3232
31396SOL    HW1 1046   9.138  10.738   2.654  0.9955  1.1051  0.1215
31396SOL    HW2 1047   9.036  10.849   2.653  0.1097  0.3346  1.6309
31397SOL     OW 1048  12.455   5.002   9.613  0.4382  0.1939  0.0935
31397SOL    HW1 1049  12.450   4.957   9.697  1.3371 -2.0633 -0.9652
31397SOL    HW2 1050  12.365   5.003   9.581  0.4669 -1.6258 -0.1685
31398SOL     OW 1051   8.407   3.945   3.898 -0.0010  0.0856  0.0858
31398SOL    HW1 1052   8.425   4.024   3.948  1.0162 -0.3079  0.3618
31398SOL    HW2 1053   8.312   3.935   3.902  0.0238  0.2821  1.6206
31399SOL     OW 1054  12.301   6.098   8.724 -0.3247  0.2841  0.3764
31399SOL    HW1 1055  12.352   6.178   8.743 -0.2067 -0.1905  2.2577
31399SOL    HW2 1056  12.264   6.073   8.808 -0.6231 -1.4886 -0.2428
31400SOL     OW 1057  11.965   3.941   7.064  0.0911 -0.1262  0.0069
31400SOL    HW1 1058  12.040   3.980   7.020  0.4604 -1.0062 -0.1453
31400SOL    HW2 1059  11.999   3.863   7.106 -1.2045 -1.9932 -2.1819
31401SOL     OW 1060   8.347  12.140   1.172 -0.7092 -0.0445  0.4943
31401SOL    HW1 1061   8.357  12.229   1.136  1.1036 -0.2205  0.4794
31401SOL    HW2 1062   8.316  12.089   1.097 -0.6735  0.3530  0.1982
31402SOL     OW 1063   7.783   5.445   7.712  0.0269  0.1762  0.0687
31402SOL    HW1 1064   7.757   5.529   7.749  0.7811 -0.7257  2.8311
31402SOL    HW2 1065   7.811   5.466   7.623 -1.9087  2.4714 -0.1049
31403SOL     OW 1066   1.267   3.997   2.195 -0.2509  0.2348 -0.4329
31403SOL    HW1 1067   1.241   4.027   2.282 -0.4735  1.1361 -0.8046
31403SOL    HW2 1068   1.214   4.049   2.135  0.5394  0.2478 -1.1322
31404SOL     OW 1069  10.784   3.803   0.268  0.1482  0.2816 -0.0147
31404SOL    HW1 1070  10.752   3.755   0.345  1.1635  1.5593  1.2523
31404SOL    HW2 1071  10.839   3.739   0.222 -0.0243 -0.3384  0.6201
31405SOL     OW 1072   3.246  11.229   2.335 -0.2787  0.2458 -0.5118
31405SOL    HW1 1073   3.205  11.199   2.416  0.2895  1.7760  0.3828
31405SOL    HW2 1074   3.337  11.244   2.358 -0.0983  0.6768 -1.4568
31406SOL     OW 1075  10.238   9.033   3.584  0.1587  0.3581  0.2098
31406SOL    HW1 1076  10.276   9.116   3.556  2.7234 -0.8057 -0.0265
31406SOL    HW2 1077  10.251   8.974   3.510  2.5627 -1.4282  1.8980
31407SOL     OW 1078   6.611  12.333   2.071  0.5177  0.1439 -0.1931
31407SOL    HW1 1079   6.554  12.286   2.010  1.0372 -1.9415  0.8563
31407SOL    HW2 1080   6.556  12.350   2.147  0.7802 -0.2708  0.0959
31408SOL     OW 1081   6.652   8.420   2.594  0.2289 -0.2601  0.7028
31408SOL    HW1 1082   6.644   8.421   2.690 -0.8678 -1.7847  0.6728
31408SOL    HW2 1083   6.677   8.329   2.574  1.5149  0.3113 -0.4025
31409SOL     OW 1084   2.377   5.533  12.036 -0.0109  0.0655  0.0957
31409SOL    HW1 1085   2.340   5.522  11.948  0.3391  1.8884 -0.3127
31409SOL    HW2 1086   2.461   5.487  12.031  0.3388  0.7599 -0.7784
31410SOL     OW 1087   9.820   9.860   6.048 -0.0267 -0.2891 -0.5586
31410SOL    HW1 1088   9.797   9.910   5.969 -0.6101 -1.9064 -1.4540
31410SOL    HW2 1089   9.842   9.927   6.112  0.0706  1.0971 -1.9649
31411SOL     OW 1090   2.941   0.503   9.930  0.4827 -0.1932  0.3330
31411SOL    HW1 1091   2.895   0.497   9.846 -0.9437  0.5325  1.0280
31411SOL    HW2 1092   2.962   0.596   9.939 -1.0308  0.0442  1.6130
31412SOL     OW 1093   0.208   1.008   2.535  0.6174 -0.0615  0.3351
31412SOL    HW1 1094   0.245   0.998   2.623  0.4747  1.8789  0.6627
31412SOL    HW2 1095   0.114   1.021   2.550  0.2526 -1.7447 -0.2765
31413SOL     OW 1096   3.494   5.094   0.951  0.3121  0.4083  0.0515
31413SOL    HW1 1097   3.450   5.111   1.034  1.8772  3.0542  0.4752
31413SOL    HW2 1098   3.583   5.068   0.976  0.4153 -0.0951 -0.7920
31414SOL     OW 1099  11.594   3.650   5.811 -0.3485  0.2747 -0.1597
31414SOL    HW1 1100  11.551   3.689   5.887 -0.6759 -0.8760  0.2637
31414SOL    HW2 1101  11.657   3.589   5.848 -0.3528 -0.1301 -0.8142
31415SOL     OW 1102   9.655   4.263  11.594 -0.2551 -0.7490 -0.1863
31415SOL    HW1 1103   9.696   4.194  11.542  0.0694  1.2620 -2.8199
31415SOL    HW2 1104   9.563   4.239  11.597 -0.3098 -0.8510 -1.8902
31416SOL     OW 1105   8.124   2.399   3.669  0.5365  0.3611 -0.2419
31416SOL    HW1 1106   8.119   2.321   3.724  2.2752 -0.4988 -1.2066
31416SOL    HW2 1107   8.054   2.455   3.700 -0.0967 -1.1428  1.1837
31417SOL     OW 1108   3.137   6.811   3.698 -0.0317 -0.1573  0.6259
31417SOL    HW1 1109   3.100   6.726   3.675  1.1778 -1.0841  1.8832
31417SOL    HW2 1110   3.202   6.828   3.629 -0.3896 -0.1775  0.2830
31418SOL     OW 1111  12.155   2.937  12.574  0.7440  0.0628 -0.4791
31418SOL    HW1 1112  12.182   2.898  12.657 -2.4642 -0.1117  0.6325
31418SOL    HW2 1113  12.151   3.031  12.592  0.2118  0.0401 -0.4595
31419SOL     OW 1114   8.247   6.320   2.690 -0.4136 -0.5373 -0.1255
31419SOL    HW1 1115   8.231   6.398   2.636 -1.1021 -1.4257 -1.2522
31419SOL    HW2 1116   8.161   6.279   2.699  0.2435 -2.3213 -1.4294
31420SOL     OW 1117   2.198   4.120  11.849  0.3685 -0.7446  0.4246
31420SOL    HW1 1118   2.191   4.103  11.943  2.3394 -1.1527  0.5395
31420SOL    HW2 1119   2.275   4.176  11.840 -0.5715  0.4247 -0.8494
31421SOL     OW 1120   3.420  10.610  10.127 -0.2825 -0.4151  0.7174
31421SOL    HW1 1121   3.513  10.615  10.147  0.4065 -0.3653 -2.0302
31421SOL    HW2 1122   3.385  10.545  10.188  0.7703  1.9754  4.1095
31422SOL     OW 1123   5.832   7.178   6.317 -0.2888 -0.5097 -0.2438
31422SOL    HW1 1124   5.904   7.211   6.371  0.0341 -0.6668 -0.5759
31422SOL    HW2 1125   5.772   7.253   6.309 -1.2145 -0.9605  1.7638
31423SOL     OW 1126   1.285   2.597   1.246 -0.2971  0.0618  0.4568
31423SOL    HW1 1127   1.378   2.587   1.224 -0.4136  0.1915 -0.1042
31423SOL    HW2 1128   1.249   2.651   1.176 -1.0817 -1.0832 -0.0699
31424SOL     OW 1129   0.934   8.993   2.781  0.1663  0.1143  0.1354
31424SOL    HW1 1130   1.002   9.012   2.846 -1.2098 -0.0250  1.6780
31424SOL    HW2 1131   0.875   9.068   2.786 -0.3145 -0.2131 -0.4930
31425SOL     OW 1132   8.406  10.180   9.011  0.2437 -0.0448 -0.1569
31425SOL    HW1 1133   8.484  10.170   9.066 -0.0780  3.4581  1.2269
31425SOL    HW2 1134   8.359  10.097   9.021  2.8784 -1.6123  0.3541
31426SOL     OW 1135  11.817   4.272   9.422 -0.3318 -0.1140 -0.7575
31426SOL    HW1 1136  11.794   4.361   9.447  1.6474  0.3535 -0.4660
31426SOL    HW2 1137  11.746   4.244   9.364 -0.7133  1.8346 -1.2820
31427SOL     OW 1138   5.705   6.759   2.525 -0.1835 -0.7051 -0.2709
31427SOL    HW1 1139   5.684   6.828   2.587  1.4189 -1.8839  1.6914
31427SOL    HW2 1140   5.776   6.795   2.472  0.1407 -0.5571  0.2566
31428SOL     OW 1141   6.810  12.362   0.411  0.3348 -0.5753  0.0122
31428SOL    HW1 1142   6.793  12.319   0.328 -1.2851  0.6566 -0.3428
31428SOL    HW2 1143   6.887  12.417   0.396  1.1834 -1.7767 -0.1043
31429SOL     OW 1144   8.063   6.675   7.901 -0.4201  0.1634 -0.3968
31429SOL    HW1 1145   8.044   6.583   7.883 -0.8469  0.4197 -1.2959
31429SOL    HW2 1146   8.070   6.680   7.997  0.2552 -0.9185 -0.3744
31430SOL     OW 1147   1.863   1.132   4.066 -0.0432 -0.0467 -0.9303
31430SOL    HW1 1148   1.934   1.153   4.005  1.2729 -0.9266  0.2440
31430SOL    HW2 1149   1.783   1.150   4.016  0.9783  1.1873 -2.2223
31431SOL     OW 1150   9.197   4.200   7.423  0.2933  0.3120 -0.2467
31431SOL    HW1 1151   9.103   4.190   7.408  0.4879 -1.5943 -0.5327
31431SOL    HW2 1152   9.238   4.149   7.353  1.4825 -0.3771  0.8983
31432SOL     OW 1153   1.238   0.592  11.947  0.2205 -0.5789 -0.1748
31432SOL    HW1 1154   1.179   0.667  11.940 -0.0107 -0.1550  3.7651
31432SOL    HW2 1155   1.260   0.570  11.857 -0.4246  3.6011 -1.5733
31433SOL     OW 1156  10.188   2.069   9.318  0.0552  0.3315  0.2944
31433SOL    HW1 1157  10.128   2.007   9.276 -1.0045  0.6575  1.2947
31433SOL    HW2 1158  10.268   2.063   9.265  0.5848 -3.0659  1.2418
31434SOL     OW 1159  10.693   5.288   7.904 -0.2811  0.3938  0.3751
31434SOL    HW1 1160  10.697   5.201   7.942 -0.2463 -0.3553 -1.2411
31434SOL    HW2 1161  10.642   5.277   7.823 -0.9716  2.0312  0.5361
31435SOL     OW 1162   5.868   1.997  10.112 -0.0025  0.0301  0.1537
31435SOL    HW1 1163   5.834   2.067  10.056  1.8368 -0.6429 -1.9422
31435SOL    HW2 1164   5.893   1.928  10.051 -2.1666 -2.7607  2.1342
31436SOL     OW 1165   5.948   9.546   3.107 -0.1053  0.3462 -0.0092
31436SOL    HW1 1166   6.026   9.596   3.081 -1.0047  1.2162 -1.1345
31436SOL    HW2 1167   5.891   9.610   3.148  0.4477 -0.6302  2.4513
31437SOL     OW 1168   9.234   2.050   1.414  0.6956  0.1648  0.6140
31437SOL    HW1 1169   9.217   2.018   1.325  0.4938 -0.1457  0.7624
31437SOL    HW2 1170   9.149   2.046   1.457  0.6049  1.1718  0.5576
31438SOL     OW 1171   1.428   6.616  12.022  0.3160  0.1971  0.0873
31438SOL    HW1 1172   1.449   6.626  11.929 -1.2791  2.3296 -0.1399
31438SOL    HW2 1173   1.338   6.583  12.022  0.6636 -0.7995  0.9119
31439SOL     OW 1174   1.644   3.992   5.056 -0.7171  0.0116  0.3266
31439SOL    HW1 1175   1.719   3.936   5.035  0.0322  0.2041  2.3070
31439SOL    HW2 1176   1.664   4.076   5.014 -1.3315 -0.8204 -1.7356
31440SOL     OW 1177   5.367  12.144   5.015  0.2405  0.2854  0.5615
31440SOL    HW1 1178   5.421  12.212   4.975 -1.1301 -0.4247 -2.7682
31440SOL    HW2 1179   5.319  12.190   5.084 -2.0326  3.3335 -2.6989
31441SOL     OW 1180   9.714   9.981  11.555  0.3449 -0.7024 -0.0241
31441SOL    HW1 1181   9.777   9.990  11.627  1.2310 -0.9943 -0.7426
31441SOL    HW2 1182   9.683   9.891  11.561  0.9094 -0.9320 -0.3752
31442SOL     OW 1183   2.659   8.979  12.459  0.1819  0.5212 -0.2526
31442SOL    HW1 1184   2.619   9.026  12.385 -0.4542  0.0018 -0.2443
31442SOL    HW2 1185   2.748   8.962  12.430  0.4033  1.6647 -0.2895
31443SOL     OW 1186   9.463   0.066   8.359 -0.8357 -0.4086  0.3723
31443SOL    HW1 1187   9.528   0.120   8.315 -1.8101  0.0464 -0.5718
31443SOL    HW2 1188   9.424   0.124   8.425 -0.3277 -0.6639  0.9009
31444SOL     OW 1189   4.699   5.359  11.656 -0.3741 -0.5057  0.9013
31444SOL    HW1 1190   4.691   5.264  11.652  0.1101 -0.5143 -0.6890
31444SOL    HW2 1191   4.645   5.391  11.583 -1.6007  0.5382  2.2031
31445SOL     OW 1192   2.904   5.861   2.694 -0.4598 -0.0521  0.1480
31445SOL    HW1 1193   2.966   5.807   2.645  0.5322  0.2219  1.0530
31445SOL    HW2 1194   2.957   5.933   2.729 -1.2545  0.1248  1.0406
31446SOL     OW 1195  12.490   7.307   6.958 -0.5102 -0.3042 -0.0069
31446SOL    HW1 1196  12.532   7.330   7.041  0.4036  2.3522 -1.0994
31446SOL    HW2 1197  12.397   7.316   6.975 -0.3760 -0.4679  0.8913
31447SOL     OW 1198   7.234   9.368   9.065  0.2130 -0.0447  0.1050
31447SOL    HW1 1199   7.314   9.320   9.088  1.3164  1.2013 -0.9220
31447SOL    HW2 1200   7.215   9.341   8.975  2.5488  3.3410 -1.6704
31448SOL     OW 1201   8.465   8.753   1.131 -0.2628  0.0177  0.1254
31448SOL    HW1 1202   8.400   8.776   1.064 -0.2833  0.5448  0.3207
31448SOL    HW2 1203   8.474   8.658   1.123 -2.2948 -0.3286  1.1759
31449SOL     OW 1204   8.774   3.162   4.088 -0.1941 -0.0459 -0.6347
31449SOL    HW1 1205   8.727   3.082   4.113 -0.1464 -0.8534 -2.9079
31449SOL    HW2 1206   8.858   3.155   4.134 -0.1212 -1.4393 -0.9159
31450SOL     OW 1207   8.881   0.500  10.960 -0.2350 -0.1707  0.0809
31450SOL    HW1 1208   8.852   0.572  10.904 -2.9006 -0.8343  0.4704
31450SOL    HW2 1209   8.899   0.541  11.044 -0.9029  0.1693  0.0636
31451SOL     OW 1210   3.248   0.794   3.040 -0.0019  0.3477  0.4410
31451SOL    HW1 1211   3.175   0.851   3.067 -2.4850 -2.5557  0.3695
31451SOL    HW2 1212   3.213   0.743   2.968  1.9135 -1.6062  0.7848
31452SOL     OW 1213   7.881   4.863  11.187  0.2981 -0.5694 -0.4376
31452SOL    HW1 1214   7.836   4.933  11.139 -1.0740 -1.5333 -0.6160
31452SOL    HW2 1215   7.925   4.908  11.259  1.8934  0.8287 -2.1957
31453SOL     OW 1216   4.017   3.866   7.298  0.0182 -0.1483  0.4605
31453SOL    HW1 1217   3.972   3.801   7.352  0.2372 -1.3914 -0.7948
31453SOL    HW2 1218   4.099   3.884   7.345 -0.1027 -0.6881  0.8845
31454SOL     OW 1219   6.403   3.226   7.978 -0.0438 -0.1754  0.2718
31454SOL    HW1 1220   6.336   3.196   7.917 -1.2377  2.0050  0.4461
31454SOL    HW2 1221   6.486   3.210   7.932 -0.8844  1.0803 -1.8112
31455SOL     OW 1222   8.516  12.450   5.469  0.4850 -0.4644 -0.0164
31455SOL    HW1 1223   8.432  12.437   5.514  0.8031 -0.7607  0.5007
31455SOL    HW2 1224   8.493  12.455   5.376 -0.1008 -0.5765  0.1172
31456SOL     OW 1225   3.347   9.718   2.678 -0.1888  0.2558 -0.2169
31456SOL    HW1 1226   3.424   9.670   2.650 -0.6166 -0.1075 -0.8014
31456SOL    HW2 1227   3.319   9.766   2.600 -2.6354 -2.4170 -1.1627
31457SOL     OW 1228   3.082   1.642   1.113  0.3633  0.4240  0.3763
31457SOL    HW1 1229   3.128   1.616   1.033 -2.2150 -0.1231 -1.0264
31457SOL    HW2 1230   3.051   1.730   1.095 -1.2766 -0.1549  0.2415
31458SOL     OW 1231  11.652   3.324   6.012  0.4568 -0.1595 -0.0212
31458SOL    HW1 1232  11.612   3.273   6.083 -1.5189  1.2988 -0.0072
31458SOL    HW2 1233  11.746   3.310   6.023  0.1059 -1.6900  1.5479
31459SOL     OW 1234  11.977  11.283   9.375  0.3427  0.0196 -0.1665
31459SOL    HW1 1235  12.001  11.344   9.444 -0.9326  0.0929  0.2403
31459SOL    HW2 1236  12.055  11.229   9.362  0.6818  0.1590  1.1556
31460SOL     OW 1237   6.489   0.372  11.783 -0.2848 -0.1560 -0.1513
31460SOL    HW1 1238   6.463   0.457  11.820  1.1498  0.0424  0.5062
31460SOL    HW2 1239   6.429   0.309  11.822  0.4416  0.2068  1.6504
31461SOL     OW 1240  11.029   9.141   9.775  0.7289 -0.3137  0.1127
31461SOL    HW1 1241  10.995   9.148   9.686 -0.2520 -1.2007  0.3993
31461SOL    HW2 1242  11.002   9.054   9.805  2.7502 -0.8552  0.5830
31462SOL     OW 1243   3.392   8.048   6.533  0.5535  0.0167  0.3038
31462SOL    HW1 1244   3.453   7.997   6.479  0.2554 -0.2592  0.2242
31462SOL    HW2 1245   3.314   8.057   6.478  0.7435  0.8944  0.1668
31463SOL     OW 1246   2.053   5.609   7.163 -0.4514 -0.2503 -0.1825
31463SOL    HW1 1247   1.993   5.674   7.127  0.4000  0.1530 -0.8935
31463SOL    HW2 1248   2.134   5.657   7.179 -0.7048 -0.4603  2.0978
31464SOL     OW 1249   4.949  12.016   0.396 -0.1848 -0.4659 -0.5707
31464SOL    HW1 1250   4.907  11.942   0.351 -0.9417  0.5237 -1.5273
31464SOL    HW2 1251   5.038  11.986   0.413 -0.4174 -1.5189 -1.1403
31465SOL     OW 1252   7.892   9.842  12.057  0.7937  0.0303  0.3684
31465SOL    HW1 1253   7.862   9.840  11.966 -0.1737  1.9616  0.5936
31465SOL    HW2 1254   7.984   9.867  12.051  1.7113 -2.9514 -0.1618
31466SOL     OW 1255   9.751   0.514   1.029  0.3784  0.0609  0.5543
31466SOL    HW1 1256   9.677   0.574   1.017 -0.3758 -0.8413  0.5589
31466SOL    HW2 1257   9.710   0.429   1.045  1.3804 -0.9382 -1.7530
31467SOL     OW 1258   4.080   8.718   7.611 -0.7709 -0.1339  0.0187
31467SOL    HW1 1259   4.150   8.750   7.668  0.0083 -1.0460 -0.4076
31467SOL    HW2 1260   4.041   8.645   7.660 -1.5638  0.4858  0.3365
31468SOL     OW 1261  12.572   5.256   8.524  0.4085  0.2217 -0.2820
31468SOL    HW1 1262  12.490   5.221   8.559 -0.9888  1.3628 -2.2017
31468SOL    HW2 1263  12.609   5.308   8.596 -0.4239 -0.4916  0.6868
31469SOL     OW 1264   1.546   6.655   1.969  0.2530  0.3649 -0.0889
31469SOL    HW1 1265   1.572   6.737   2.010  0.7925  0.1546  0.0028
31469SOL    HW2 1266   1.506   6.605   2.040 -0.0360  0.5308 -0.1348
31470SOL     OW 1267   9.064   8.451   3.320 -0.0809 -0.8503 -0.1589
31470SOL    HW1 1268   9.098   8.439   3.231  1.7125  1.7270  0.0531
31470SOL    HW2 1269   8.975   8.484   3.307 -0.3438 -1.8172 -0.9308
31471SOL     OW 1270   5.403   0.044   4.356 -0.2100 -0.1858  0.3912
31471SOL    HW1 1271   5.376   0.052   4.447 -0.4594 -0.4160  0.3382
31471SOL    HW2 1272   5.468  -0.026   4.355 -0.4421 -0.4019  0.3436
31472SOL     OW 1273   8.571   4.161   4.937  0.5458 -0.6509 -0.4844
31472SOL    HW1 1274   8.518   4.099   4.887  0.3976 -1.8153  1.0571
31472SOL    HW2 1275   8.519   4.181   5.014 -0.1530  2.7472 -1.6504
31473SOL     OW 1276  10.195   9.060   0.724  0.3406 -0.3018  0.4910
31473SOL    HW1 1277  10.130   9.107   0.776 -0.5054 -0.6935 -0.1982
31473SOL    HW2 1278  10.279   9.081   0.766 -0.3934 -1.5072  2.7098
31474SOL     OW 1279  11.349   1.861   8.027  0.2093  0.3542 -0.5785
31474SOL    HW1 1280  11.358   1.900   7.940  0.5843  1.9230  0.1222
31474SOL    HW2 1281  11.291   1.921   8.074 -0.9470 -1.0837 -0.0722
31475SOL     OW 1282  11.711   7.823   7.795  0.0873  0.1616 -0.4871
31475SOL    HW1 1283  11.649   7.853   7.729  0.1133  0.7909 -0.2377
31475SOL    HW2 1284  11.756   7.903   7.824 -0.5180  0.0309  0.9051
31476SOL     OW 1285   9.226   3.263   0.444 -0.4394  0.2944 -0.1507
31476SOL    HW1 1286   9.137   3.273   0.409 -0.8140 -0.7132  0.4471
31476SOL    HW2 1287   9.275   3.224   0.372 -0.3721  1.2023 -0.6107
31477SOL     OW 1288   5.288   7.542   7.391  0.5294 -0.3546  0.0554
31477SOL    HW1 1289   5.223   7.611   7.385  0.0433 -0.9220 -1.5287
31477SOL    HW2 1290   5.267   7.497   7.473 -0.4951  0.0419  0.0221
31478SOL     OW 1291   2.546   2.339   5.776  0.0981 -0.2246  0.3921
31478SOL    HW1 1292   2.513   2.255   5.809 -0.1320 -0.2122  0.1867
31478SOL    HW2 1293   2.605   2.369   5.845 -0.2357 -0.2942  0.7111
31479SOL     OW 1294  11.632   2.761  10.052 -0.2317  0.2927 -0.0228
31479SOL    HW1 1295  11.724   2.735  10.052  0.4440  2.2558 -2.4402
31479SOL    HW2 1296  11.606   2.758   9.960 -2.4776  0.1991  0.5558
31480SOL     OW 1297  11.250   0.735   0.084 -0.2211 -0.6362 -0.0435
31480SOL    HW1 1298  11.266   0.647   0.048  0.7783 -0.8860  0.9490
31480SOL    HW2 1299  11.325   0.787   0.055 -0.7877 -0.1049 -0.5910
31481SOL     OW 1300   0.463   9.784   9.362 -0.1268 -0.5216  0.7902
31481SOL    HW1 1301   0.443   9.818   9.275  2.5322  1.1538  0.7220
31481SOL    HW2 1302   0.389   9.811   9.416 -0.8977  0.1260 -0.5484
31482SOL     OW 1303   7.892  12.038   4.479 -0.1768  0.6434 -0.0297
31482SOL    HW1 1304   7.803  12.052   4.448  0.1153  0.2485 -1.0631
31482SOL    HW2 1305   7.945  12.030   4.400  0.7576  0.6978  0.5676
31483SOL     OW 1306   1.679   4.720   2.211  0.4319  0.6032  0.8716
31483SOL    HW1 1307   1.619   4.645   2.207  0.3032  0.7456 -1.5521
31483SOL    HW2 1308   1.649   4.771   2.287 -1.3097 -0.3155  0.8638
31484SOL     OW 1309   6.344   4.696   6.483 -0.0182 -0.1552  0.1567
31484SOL    HW1 1310   6.258   4.733   6.459  0.0788 -0.8849 -1.4868
31484SOL    HW2 1311   6.403   4.731   6.416  0.6062 -1.0739  0.2239
31485SOL     OW 1312   8.022   4.931   8.322  0.1744 -0.2004  0.1381
31485SOL    HW1 1313   7.949   4.992   8.335 -1.2842 -2.1399  1.5766
31485SOL    HW2 1314   8.057   4.916   8.410  1.4240 -0.3676 -0.3690
31486SOL     OW 1315   4.590   6.588  10.567 -0.0341 -0.7402  0.0553
31486SOL    HW1 1316   4.656   6.653  10.541  0.9539 -1.7264  0.0318
31486SOL    HW2 1317   4.507   6.627  10.539  0.7581 -0.8129 -2.8043
31487SOL     OW 1318  11.116   9.800  12.013 -0.1528 -0.1604  0.3467
31487SOL    HW1 1319  11.076   9.867  12.069 -0.3547 -0.7846  0.9581
31487SOL    HW2 1320  11.081   9.818  11.926 -2.2151 -0.9983  0.9448
31488SOL     OW 1321   2.482   1.311   5.494  0.0808 -0.2662  0.2428
31488SOL    HW1 1322   2.452   1.318   5.403 -0.9007 -0.1829  0.5587
31488SOL    HW2 1323   2.404   1.331   5.546 -0.2427 -3.3153  1.1409
31489SOL     OW 1324   8.840   4.323  11.851 -0.6773 -0.3829  0.6453
31489SOL    HW1 1325   8.761   4.301  11.900  0.0001 -2.4231  0.9069
31489SOL    HW2 1326   8.898   4.364  11.915  0.1262 -2.8484  1.5865
31490SOL     OW 1327   7.361   7.534   6.686  0.6750 -0.1877 -0.7826
31490SOL    HW1 1328   7.367   7.494   6.773 -1.0959 -0.6469 -0.8346
31490SOL    HW2 1329   7.422   7.608   6.690  1.3594 -0.7787  0.5109
31491SOL     OW 1330   2.710   8.974   5.597 -0.2825 -0.1423  0.4830
31491SOL    HW1 1331   2.751   8.888   5.596  0.0977  0.0203 -1.7220
31491SOL    HW2 1332   2.767   9.027   5.652  0.1226 -0.9816  0.8931
31492SOL     OW 1333   1.171  10.183   4.418 -0.4225  0.3450 -0.0294
31492SOL    HW1 1334   1.165  10.253   4.482  0.2941 -0.3641  0.8422
31492SOL    HW2 1335   1.090  10.189   4.367 -0.5935  1.4720  0.3579
31493SOL     OW 1336   9.819  11.515  10.595  0.2894 -0.5353 -0.2396
31493SOL    HW1 1337   9.885  11.553  10.536 -0.7064 -0.7506 -1.5449
31493SOL    HW2 1338   9.772  11.591  10.630  0.9119 -0.4044  0.3404
31494SOL     OW 1339  11.984   8.360  11.899  0.4899 -0.2349 -0.2359
31494SOL    HW1 1340  12.002   8.269  11.874 -0.4115 -0.0593 -1.6549
31494SOL    HW2 1341  11.904   8.382  11.851 -0.2534  0.7761  1.4008
31495SOL     OW 1342   7.652   8.743   0.574  0.6389  0.6537  0.2602
31495SOL    HW1 1343   7.728   8.686   0.588  0.1859  0.2194  0.9933
31495SOL    HW2 1344   7.690   8.828   0.552  1.3797  0.7872  1.9139
31496SOL     OW 1345   8.198   2.214   0.011  0.1950 -0.4062 -0.1314
31496SOL    HW1 1346   8.164   2.166  -0.064 -0.0989 -1.3540  0.5988
31496SOL    HW2 1347   8.290   2.189   0.017  0.0570 -0.8483  0.2113
31497SOL     OW 1348  12.040   8.964   6.620 -0.4415 -0.3871  0.7219
31497SOL    HW1 1349  12.086   9.046   6.638 -0.2113 -0.0144 -1.3037
31497SOL    HW2 1350  11.966   8.964   6.680 -0.3282  1.2044  0.9030
31498SOL     OW 1351   1.669   0.442   4.306  0.0386 -0.0593 -0.0107
31498SOL    HW1 1352   1.726   0.401   4.372  2.0713  0.1151 -1.5805
31498SOL    HW2 1353   1.711   0.525   4.286 -0.8665  0.1536 -1.1158
31499SOL     OW 1354  11.113   7.002   5.638  0.3782 -0.5715  0.2735
31499SOL    HW1 1355  11.108   6.947   5.560 -0.9706  0.4609 -0.4085
31499SOL    HW2 1356  11.106   6.941   5.712 -0.0211 -1.4023 -0.4433
31500SOL     OW 1357   1.235   8.058  11.959 -0.0236 -0.4748 -0.4588
31500SOL    HW1 1358   1.250   8.131  12.019 -2.9942 -0.1614  0.0257
31500SOL    HW2 1359   1.195   7.990  12.013  0.2823 -1.4815 -1.4551
31501SOL     OW 1360   9.527   6.834   2.054  0.2871  0.1980 -0.2594
31501SOL    HW1 1361   9.493   6.747   2.034  0.8372 -0.8427  2.8153
31501SOL    HW2 1362   9.452   6.882   2.090  0.8057 -0.3497  1.6396
31502SOL     OW 1363   9.446  10.628   1.962 -0.5669  0.2046  0.1436
31502SOL    HW1 1364   9.459  10.646   1.869 -0.4516 -1.5404 -0.2212
31502SOL    HW2 1365   9.356  10.594   1.967 -0.4626 -0.0008  0.6243
31503SOL     OW 1366  10.540   5.618   0.844 -0.0449  0.0022  0.1393
31503SOL    HW1 1367  10.459   5.589   0.885 -0.7457  1.1982 -0.3215
31503SOL    HW2 1368  10.512   5.655   0.760  1.1709 -1.0162 -0.7444
31504SOL     OW 1369   5.543  11.848  10.083  0.5131 -0.4843  0.9304
31504SOL    HW1 1370   5.619  11.790  10.077  0.3996 -0.7502  1.9736
31504SOL    HW2 1371   5.468  11.789  10.085 -0.0413 -0.2218 -3.2150
31505SOL     OW 1372   4.465   8.001   0.610 -0.6189 -0.0824 -0.3950
31505SOL    HW1 1373   4.466   8.096   0.607 -1.9082 -0.0413 -0.2932
31505SOL    HW2 1374   4.508   7.974   0.529 -0.6303  0.5929 -0.6324
31506SOL     OW 1375   3.476   9.627   2.934  0.1622 -0.2960  0.2123
31506SOL    HW1 1376   3.453   9.655   2.845  1.6493  3.2406  0.7814
31506SOL    HW2 1377   3.526   9.546   2.921  0.1705  0.0144 -2.1342
31507SOL     OW 1378   9.163   3.076   7.424 -0.2545  0.2786 -0.2525
31507SOL    HW1 1379   9.140   3.003   7.367 -1.8984  1.2106 -0.8415
31507SOL    HW2 1380   9.118   3.058   7.506 -1.1403  0.8883 -0.5901
31508SOL     OW 1381   9.130   3.245   0.791  0.0762 -0.3253  0.1347
31508SOL    HW1 1382   9.098   3.288   0.870 -0.1702 -0.4369  0.0971
31508SOL    HW2 1383   9.222   3.272   0.784 -0.1234  0.3410  0.0073
31509SOL     OW 1384   5.611   0.640  11.117 -0.0092 -0.2264  0.7086
31509SOL    HW1 1385   5.701   0.614  11.131 -0.2109 -1.1995  0.3028
31509SOL    HW2 1386   5.612   0.687  11.033 -0.2973 -2.7499 -0.8002
31510SOL     OW 1387   2.139   0.883   0.137  0.6383 -0.1283 -0.9285
31510SOL    HW1 1388   2.124   0.880   0.231  2.0941  1.1376 -0.6021
31510SOL    HW2 1389   2.168   0.795   0.114 -1.3338 -0.9114 -0.5272
31511SOL     OW 1390   1.359   6.133   4.628 -0.1149 -0.3564 -0.2571
31511SOL    HW1 1391   1.400   6.215   4.599 -0.6630  0.2872  0.7292
31511SOL    HW2 1392   1.274   6.133   4.586 -0.5960  0.1920  0.6789
31512SOL     OW 1393  10.702   0.085  12.011 -0.0959  0.1205 -0.2219
31512SOL    HW1 1394  10.680   0.060  12.101 -0.2298 -3.2545 -1.0416
31512SOL    HW2 1395  10.632   0.047  11.959  0.1634  1.7250 -1.8287
31513SOL     OW 1396  12.106   5.784  10.428  0.4651 -0.4829  0.2336
31513SOL    HW1 1397  12.130   5.707  10.480  1.0053  0.7046  1.8527
31513SOL    HW2 1398  12.042   5.830  10.482 -0.7199 -0.3433 -1.2264
31514SOL     OW 1399   6.461   8.217   7.018 -0.4280  0.6277  0.4070
31514SOL    HW1 1400   6.539   8.160   7.018 -0.1009  1.0214 -1.1812
31514SOL    HW2 1401   6.400   8.174   6.958 -1.5313  0.2475  1.7543
31515SOL     OW 1402   0.049  11.949   8.464 -0.0763  1.0754  0.0119
31515SOL    HW1 1403  -0.031  11.973   8.418 -0.2024  1.1796  0.2819
31515SOL    HW2 1404   0.118  11.996   8.418 -0.0633  0.3614 -0.7214
31516SOL     OW 1405   0.164   4.576   8.629  0.4890  0.0417  0.1571
31516SOL    HW1 1406   0.259   4.582   8.641  0.3064  3.3185  0.9617
31516SOL    HW2 1407   0.128   4.611   8.711 -1.3216  1.3340 -1.1261
31517SOL     OW 1408  12.224   6.624   4.120 -0.4404  0.4381  0.2161
31517SOL    HW1 1409  12.223   6.719   4.106  0.3323  0.3059 -0.8854
31517SOL    HW2 1410  12.139   6.595   4.089 -0.5816  0.7428  0.3104
31518SOL     OW 1411   5.379  10.192   5.222 -0.6840 -0.1726  0.4735
31518SOL    HW1 1412   5.445  10.128   5.194 -0.3926 -0.4397  1.7124
31518SOL    HW2 1413   5.407  10.274   5.183  0.8344 -0.1210  1.5745
31519SOL     OW 1414   5.847   6.555   4.039 -0.2278 -0.4381 -0.1003
31519SOL    HW1 1415   5.854   6.611   4.116 -1.9365 -1.3862  0.7984
31519SOL    HW2 1416   5.821   6.470   4.073  0.9196 -1.4211 -1.5711
31520SOL     OW 1417   3.648  10.132   3.292  0.2421  0.0418 -0.6357
31520SOL    HW1 1418   3.724  10.113   3.347  0.8401  0.1234 -1.4252
31520SOL    HW2 1419   3.642  10.228   3.292 -1.2795  0.0249  1.3100
31521SOL     OW 1420   2.430   8.241   4.812  0.2217 -0.1608  0.4631
31521SOL    HW1 1421   2.500   8.195   4.859  1.3611  1.8003  0.7795
31521SOL    HW2 1422   2.442   8.216   4.720  0.9722 -0.3232  0.5996
31522SOL     OW 1423   1.556   9.504   4.945 -0.0937 -0.6139 -0.5481
31522SOL    HW1 1424   1.520   9.590   4.927 -0.6201 -0.1725  2.2178
31522SOL    HW2 1425   1.480   9.446   4.948  0.2250 -1.1756 -2.0129
31523SOL     OW 1426   0.415   2.273   1.503 -0.0137  0.3122 -0.7331
31523SOL    HW1 1427   0.323   2.277   1.479  0.3303 -0.3939 -2.3605
31523SOL    HW2 1428   0.461   2.302   1.424  1.1856 -0.4751 -0.3453
31524SOL     OW 1429  11.564   4.123   8.635  0.5239 -0.1426  0.3497
31524SOL    HW1 1430  11.519   4.128   8.719 -1.3393 -0.8205 -0.5557
31524SOL    HW2 1431  11.574   4.029   8.618  2.6495 -0.0257  0.6662
31525SOL     OW 1432   9.695   0.868   9.957 -0.2677 -0.2966 -0.1706
31525SOL    HW1 1433   9.765   0.932   9.975 -0.5737  0.1375 -0.5138
31525SOL    HW2 1434   9.646   0.907   9.885 -1.0095 -0.4910  0.2250
31526SOL     OW 1435  10.916   2.511   2.661 -0.0996 -0.4330  0.7911
31526SOL    HW1 1436  10.968   2.486   2.584 -0.1542  0.3873  0.4798
31526SOL    HW2 1437  10.858   2.436   2.676 -0.4339 -0.4047 -0.2825
31527SOL     OW 1438  10.806   8.241   5.047 -0.2243  0.0394 -0.4948
31527SOL    HW1 1439  10.764   8.321   5.076  0.6302  0.7336 -1.1173
31527SOL    HW2 1440  10.798   8.181   5.121 -2.5434  0.0196 -0.6779
31528SOL     OW 1441   2.290   6.424   9.274 -0.0399  0.2344 -0.0596
31528SOL    HW1 1442   2.333   6.375   9.344 -1.1139 -0.3804  0.1869
31528SOL    HW2 1443   2.352   6.494   9.252  1.2596 -0.8403  0.0200
31529SOL     OW 1444   1.621  10.652   6.516  0.3786 -0.6050  0.0118
31529SOL    HW1 1445   1.573  10.577   6.551  0.6552 -0.2627  1.1658
31529SOL    HW2 1446   1.554  10.710   6.481 -0.0719 -0.1299  1.6000
31530SOL     OW 1447   2.330   4.234   7.551  0.0184  0.2059 -0.3259
31530SOL    HW1 1448   2.418   4.206   7.573  0.0255  1.3221  1.1689
31530SOL    HW2 1449   2.335   4.329   7.545 -1.4454  0.4729  1.6855
31531SOL     OW 1450   1.478   2.210   7.911 -0.3134 -0.1365 -0.5066
31531SOL    HW1 1451   1.543   2.150   7.947  0.7849  1.1551 -0.2551
31531SOL    HW2 1452   1.487   2.201   7.816  0.3972  0.1938 -0.4743
31532SOL     OW 1453   2.460   0.980   4.529  0.4349 -0.2618  0.0104
31532SOL    HW1 1454   2.523   0.927   4.579  0.1578 -0.3791  0.2355
31532SOL    HW2 1455   2.457   0.939   4.443  1.0855  0.0723 -0.1851
31533SOL     OW 1456   4.635   7.045  12.050  0.3417 -0.8309 -0.3483
31533SOL    HW1 1457   4.687   7.117  12.084  0.4618 -1.4417  0.8255
31533SOL    HW2 1458   4.661   7.037  11.958 -0.5160  1.3415 -0.8507
31534SOL     OW 1459   8.583   6.665   3.492 -0.3762 -0.6299  0.0115
31534SOL    HW1 1460   8.566   6.732   3.426  0.3586 -2.5931 -2.3287
31534SOL    HW2 1461   8.503   6.613   3.496  0.2472 -1.7207 -0.9033
31535SOL     OW 1462   8.621   2.755  11.420  0.3215  0.3347  0.0730
31535SOL    HW1 1463   8.549   2.767  11.358  0.6246  0.6240 -0.2205
31535SOL    HW2 1464   8.613   2.664  11.448  0.2415  0.1771 -0.4608
31536SOL     OW 1465  11.385   0.609  10.932  0.5106 -0.6324  0.1324
31536SOL    HW1 1466  11.423   0.673  10.871 -0.5504 -0.7109 -0.6495
31536SOL    HW2 1467  11.459   0.579  10.984  0.7862  2.6424  1.8868
31537SOL     OW 1468  11.439  12.294   9.995 -0.4748  0.3928  0.0005
31537SOL    HW1 1469  11.481  12.223  10.043  0.2097  1.3587  0.8905
31537SOL    HW2 1470  11.480  12.374  10.029 -0.3523  1.1660 -1.8027
31538SOL     OW 1471   5.541   6.771  12.102  0.2499 -0.1089  0.1473
31538SOL    HW1 1472   5.507   6.699  12.050 -0.0066  0.2354 -0.1660
31538SOL    HW2 1473   5.499   6.849  12.066 -0.2905  0.0929  1.1670
31539SOL     OW 1474  11.516   5.702  11.399  0.5794  0.8788  0.2047
31539SOL    HW1 1475  11.611   5.691  11.400  0.6308  1.2626 -0.5066
31539SOL    HW2 1476  11.501   5.780  11.347 -0.2264 -0.1323 -1.1408
31540SOL     OW 1477   7.842   2.184   3.408  0.3694 -0.6814 -0.0605
31540SOL    HW1 1478   7.825   2.095   3.377 -1.2091 -1.8652  3.6315
31540SOL    HW2 1479   7.877   2.172   3.496 -0.7969  2.3366  0.9283
31541SOL     OW 1480   9.824   0.453   2.243  0.3380 -0.2162  0.0586
31541SOL    HW1 1481   9.836   0.480   2.334  0.6889 -0.0644 -0.0315
31541SOL    HW2 1482   9.884   0.508   2.193 -0.6224  0.4442 -0.3993
31542SOL     OW 1483   6.520   0.505   1.514  0.4936  0.5852  0.3310
31542SOL    HW1 1484   6.594   0.539   1.565  1.8984 -2.4546  0.5407
31542SOL    HW2 1485   6.485   0.433   1.568 -0.8079  0.1287 -1.0584
31543SOL     OW 1486  11.448   9.536   5.300  0.7516 -0.3923 -0.2764
31543SOL    HW1 1487  11.438   9.620   5.254  0.2093 -0.3836 -0.1457
31543SOL    HW2 1488  11.382   9.479   5.261 -1.2679  0.2543  1.9476
31544SOL     OW 1489  10.920   7.256  10.458  0.1721 -0.0828 -0.7690
31544SOL    HW1 1490  10.961   7.174  10.431  0.9173  0.1398 -0.3432
31544SOL    HW2 1491  10.969   7.283  10.535  0.2302  1.0002 -1.1757
31545SOL     OW 1492   6.778   0.392   3.636 -0.1791  0.1337  0.3331
31545SOL    HW1 1493   6.718   0.448   3.687 -1.1722 -0.9298  0.3710
31545SOL    HW2 1494   6.826   0.343   3.703 -0.7517 -0.5104  0.2886
31546SOL     OW 1495  11.260   1.973   2.076 -0.4277 -0.1349 -0.4351
31546SOL    HW1 1496  11.286   1.969   1.984  0.2506 -2.1493 -0.2128
31546SOL    HW2 1497  11.265   1.882   2.106 -1.0758  0.4140  1.4768
31547SOL     OW 1498  11.151   8.380   4.784  0.1193 -0.4118 -0.6373
31547SOL    HW1 1499  11.229   8.325   4.789 -0.7914 -1.7211 -0.4702
31547SOL    HW2 1500  11.150   8.411   4.693  0.5267 -0.8213 -0.7872
31548SOL     OW 1501  11.582  12.449   3.186 -0.0498 -0.1823 -0.1852
31548SOL    HW1 1502  11.545  12.406   3.263  1.6004  0.6469  1.1495
31548SOL    HW2 1503  11.677  12.440   3.197  0.2631  1.3956 -1.2444
31549SOL     OW 1504   6.676   2.493   2.975 -0.1138 -0.6270  0.5328
31549SOL    HW1 1505   6.609   2.534   3.029  0.8650 -0.5008  1.7197
31549SOL    HW2 1506   6.757   2.506   3.024  0.5990 -1.8273 -0.2580
31550SOL     OW 1507  10.651   2.799   1.711 -0.3102  0.1432  0.4973
31550SOL    HW1 1508  10.727   2.857   1.719 -1.3226  1.3943  1.5427
31550SOL    HW2 1509  10.682   2.715   1.745  0.6556  0.5937  0.7682
31551SOL     OW 1510   7.675   2.391   0.401 -0.0915  0.0560  0.0537
31551SOL    HW1 1511   7.581   2.399   0.415 -0.1326  0.7230 -0.5534
31551SOL    HW2 1512   7.700   2.313   0.451 -0.9611 -0.1286  0.2194
31552SOL     OW 1513   5.637   2.157   5.280  0.2293  0.1126 -0.2903
31552SOL    HW1 1514   5.647   2.181   5.372  0.3290  1.2926 -0.5943
31552SOL    HW2 1515   5.673   2.069   5.275  0.0252 -0.0570  0.8410
31553SOL     OW 1516   3.409   3.233   4.990 -0.0439  0.3610 -0.2832
31553SOL    HW1 1517   3.380   3.256   5.078 -1.6653 -0.6650 -0.4961
31553SOL    HW2 1518   3.502   3.252   4.989 -0.1262  0.9951  1.4468
31554SOL     OW 1519   8.849   8.312   7.186  0.2941  0.6609  0.0456
31554SOL    HW1 1520   8.872   8.360   7.106  1.5189  2.6269  1.4797
31554SOL    HW2 1521   8.758   8.285   7.172  0.6606  0.3797 -2.2393
31555SOL     OW 1522   8.500   6.621  10.988  0.3826 -0.0174 -0.0025
31555SOL    HW1 1523   8.537   6.555  11.046  0.4289  0.6794  0.7795
31555SOL    HW2 1524   8.437   6.668  11.042  0.3805  0.6059 -0.5324
31556SOL     OW 1525   5.543  11.814   7.935 -0.0573 -0.0268 -0.1887
31556SOL    HW1 1526   5.620  11.850   7.890 -1.2757  0.6740 -1.7803
31556SOL    HW2 1527   5.506  11.751   7.874  0.8321 -2.5904  1.7291
31557SOL     OW 1528   7.026  12.124   0.776  0.2649  0.0606 -0.1480
31557SOL    HW1 1529   7.055  12.105   0.866  0.6718 -2.1025 -0.6788
31557SOL    HW2 1530   7.075  12.202   0.751  1.5504 -0.3860  0.8795
31558SOL     OW 1531  12.545   9.459   9.132  0.2981  0.1617 -0.8692
31558SOL    HW1 1532  12.521   9.546   9.101 -0.4028  0.3154  0.0633
31558SOL    HW2 1533  12.587   9.474   9.217  2.3077 -0.2404 -1.7309
31559SOL     OW 1534  10.207   1.868   7.201 -1.0097 -0.1179  0.3639
31559SOL    HW1 1535  10.240   1.930   7.265  2.6660  0.0320 -1.4471
31559SOL    HW2 1536  10.165   1.923   7.134 -0.8660  0.1108  0.4605
31560SOL     OW 1537   2.291   6.969  10.597  0.1084  0.3828  0.3831
31560SOL    HW1 1538   2.340   6.924  10.665  2.3765  0.8935 -0.8164
31560SOL    HW2 1539   2.259   7.049  10.640 -0.7066 -0.4944  1.4829
31561SOL     OW 1540   6.273  10.063   6.039  0.1599  0.3363  0.4529
31561SOL    HW1 1541   6.204  10.066   5.972 -0.5707  2.4062  1.2178
31561SOL    HW2 1542   6.230  10.089   6.120  0.8885 -2.6500  1.9807
31562SOL     OW 1543   8.005   4.779   8.581 -0.0312 -0.4538  0.2976
31562SOL    HW1 1544   7.917   4.780   8.617 -0.6161  0.0489 -1.0796
31562SOL    HW2 1545   8.023   4.686   8.565 -0.7330 -0.4817 -0.3838
31563SOL     OW 1546   7.488   0.313   1.801  0.2305  0.0402 -0.5139
31563SOL    HW1 1547   7.563   0.258   1.824 -0.6742 -0.8923  0.2888
31563SOL    HW2 1548   7.525   0.401   1.791  1.3833 -0.3588  0.0977
31564SOL     OW 1549   5.365  11.929   4.583  0.0119 -0.4736  0.1593
31564SOL    HW1 1550   5.453  11.894   4.599 -0.1147 -0.2586  1.4485
31564SOL    HW2 1551   5.329  11.944   4.670 -1.2915 -0.4926 -0.3455
31565SOL     OW 1552   4.978   1.751   3.838 -0.6211  0.0221 -0.4272
31565SOL    HW1 1553   4.960   1.735   3.931 -0.4922 -0.2852 -0.4547
31565SOL    HW2 1554   4.949   1.841   3.823 -1.1055 -0.0985 -0.2080
31566SOL     OW 1555   2.878   7.182   7.881 -0.3714 -0.4973  0.2288
31566SOL    HW1 1556   2.972   7.169   7.871 -0.3423  0.6617 -1.2621
31566SOL    HW2 1557   2.865   7.186   7.976  0.9622 -1.3713  0.4780
31567SOL     OW 1558   5.034   9.978  10.952  0.5279 -0.2460 -0.0606
31567SOL    HW1 1559   4.968  10.017  11.009  0.4684  0.1127 -0.3655
31567SOL    HW2 1560   5.109  10.038  10.958  1.2928 -1.2969  1.2401
31568SOL     OW 1561   9.686   8.638   3.734  0.0438 -0.1096 -0.4892
31568SOL    HW1 1562   9.749   8.703   3.763 -0.7080  0.3856  0.0860
31568SOL    HW2 1563   9.712   8.557   3.778 -0.0559  0.2298  0.2020
31569SOL     OW 1564   3.292   3.901   8.886 -0.3864 -0.5257  0.1221
31569SOL    HW1 1565   3.336   3.983   8.910 -2.1661  1.0236 -1.5634
31569SOL    HW2 1566   3.335   3.874   8.804  1.6932 -2.5994  1.7518
31570SOL     OW 1567  11.060   2.787  10.409 -0.1073  0.0379  0.5449
31570SOL    HW1 1568  10.977   2.824  10.438  0.6638  2.0896  0.2953
31570SOL    HW2 1569  11.100   2.750  10.488 -0.4196  0.7468  1.0393
31571SOL     OW 1570  10.121  10.023   0.256  0.0580 -0.0120  0.1514
31571SOL    HW1 1571  10.034  10.047   0.224 -0.2077 -0.2341  0.6931
31571SOL    HW2 1572  10.109   9.936   0.294 -0.2317  1.1613  3.0456
31572SOL     OW 1573  10.358  10.899   4.576  0.5274  0.0892  0.4355
31572SOL    HW1 1574  10.341  10.881   4.669  1.7534  1.2033  0.9166
31572SOL    HW2 1575  10.318  10.984   4.561 -1.5206 -1.0073 -0.6685
31573SOL     OW 1576  11.268   3.132   6.521 -0.5495 -0.0753 -0.1759
31573SOL    HW1 1577  11.206   3.062   6.505 -0.3428  0.0851 -1.8208
31573SOL    HW2 1578  11.263   3.188   6.444  0.7175  0.6376  0.2135
31574SOL     OW 1579   0.603   4.633   4.953 -0.6039 -0.2480  0.2278
31574SOL    HW1 1580   0.672   4.581   4.912 -0.0723 -0.0285  0.8177
31574SOL    HW2 1581   0.522   4.589   4.929 -0.2542 -0.5637 -0.4031
31575SOL     OW 1582   7.375   3.151   3.360  0.4483  0.0506  0.1644
31575SOL    HW1 1583   7.355   3.148   3.454 -1.1459  1.3096 -0.0984
31575SOL    HW2 1584   7.361   3.242   3.335 -1.2235 -0.6445 -1.6989
31576SOL     OW 1585   4.564  12.128   4.830  0.2338 -0.2367  0.0129
31576SOL    HW1 1586   4.512  12.056   4.797  0.8919 -1.2592  1.1298
31576SOL    HW2 1587   4.620  12.089   4.898 -1.7145  1.8388  3.0741
31577SOL     OW 1588   0.047   2.492   2.574 -0.0378 -0.0235 -0.0630
31577SOL    HW1 1589   0.072   2.567   2.520  0.7416 -0.2436 -0.0153
31577SOL    HW2 1590   0.093   2.418   2.536 -2.9722 -1.0864 -1.8770
31578SOL     OW 1591   6.497   5.399   6.015  0.3149 -0.1356 -0.5131
31578SOL    HW1 1592   6.507   5.357   5.930  0.9794  0.1868 -0.5967
31578SOL    HW2 1593   6.447   5.479   5.997 -0.4606 -0.5893 -0.4363
31579SOL     OW 1594   7.050   6.686   7.510  0.1894  0.0104  0.3349
31579SOL    HW1 1595   7.076   6.653   7.597  1.4475  1.0606  0.4002
31579SOL    HW2 1596   7.002   6.614   7.470 -2.4174  0.2398  2.7406
31580SOL     OW 1597   1.186   5.274   8.057 -0.3787  0.0690  0.1472
31580SOL    HW1 1598   1.164   5.186   8.088  0.0566  0.0283  0.3569
31580SOL    HW2 1599   1.281   5.280   8.068 -0.3347  0.3740 -0.3695
31581SOL     OW 1600   6.977   9.142   4.462  0.2190  0.3675 -0.2740
31581SOL    HW1 1601   6.889   9.174   4.481  0.6736  1.0353  0.7874
31581SOL    HW2 1602   6.965   9.049   4.445 -0.7384  0.5195 -0.5111
31582SOL     OW 1603   2.826   9.969  11.785 -0.1212  0.2301 -0.1785
31582SOL    HW1 1604   2.769   9.983  11.861 -1.2411 -2.0942 -0.5220
31582SOL    HW2 1605   2.816  10.049  11.733 -2.3774  0.2943  0.2442
31583SOL     OW 1606   0.430   3.333   7.858  0.4886  0.7762  0.0029
31583SOL    HW1 1607   0.355   3.391   7.869  1.8904  2.5459  0.5570
31583SOL    HW2 1608   0.474   3.366   7.780  0.1692 -0.9077 -0.9439
31584SOL     OW 1609  10.480   3.926   7.769  1.0150  0.3334 -0.1621
31584SOL    HW1 1610  10.470   3.848   7.714  2.3783 -0.5950  0.8414
31584SOL    HW2 1611  10.573   3.949   7.762  1.0584  0.6490  1.1127
31585SOL     OW 1612   5.137   1.616  11.274 -0.0176  0.4634 -0.0154
31585SOL    HW1 1613   5.121   1.663  11.192 -0.8419  1.1128  0.5004
31585SOL    HW2 1614   5.146   1.685  11.340  2.9999  0.0672  0.1045
31586SOL     OW 1615   3.798   9.947   4.852  0.4767  0.0629  0.1650
31586SOL    HW1 1616   3.874  10.003   4.865  0.9207 -0.3695 -0.4658
31586SOL    HW2 1617   3.834   9.868   4.811 -0.3858  0.0978 -0.6978
31587SOL     OW 1618  12.256   6.427  11.778 -0.7799  0.1875 -0.7840
31587SOL    HW1 1619  12.276   6.491  11.846 -0.4812 -0.4120 -0.2896
31587SOL    HW2 1620  12.331   6.429  11.719 -0.8541  0.4196 -0.8687
31588SOL     OW 1621   1.853   3.025   0.665 -0.5520  0.5415 -0.4240
31588SOL    HW1 1622   1.804   3.095   0.622 -1.8257 -0.2662 -0.3459
31588SOL    HW2 1623   1.872   2.963   0.596  2.8167  2.0520 -1.0494
31589SOL     OW 1624   4.358   3.203  12.322  0.5902  0.2294 -0.6265
31589SOL    HW1 1625   4.298   3.193  12.249  1.1740 -0.4054 -1.0247
31589SOL    HW2 1626   4.405   3.120  12.327  2.0445  1.0026 -0.8705
31590SOL     OW 1627   7.564   7.268   4.465 -0.0591 -0.1525 -0.1039
31590SOL    HW1 1628   7.549   7.237   4.376 -0.2033 -0.1680 -0.0740
31590SOL    HW2 1629   7.659   7.283   4.470  0.1950 -1.6726  0.2177
31591SOL     OW 1630   5.652   1.798  11.427 -0.1812 -0.3510 -0.3348
31591SOL    HW1 1631   5.694   1.781  11.343  1.1760 -0.5831  0.3726
31591SOL    HW2 1632   5.719   1.839  11.480 -1.8804  2.7179 -0.3078
31592SOL     OW 1633  10.337   8.516   6.049  0.1470 -0.1443  0.4441
31592SOL    HW1 1634  10.325   8.426   6.078 -0.8956 -0.4555 -0.8470
31592SOL    HW2 1635  10.430   8.534   6.062  0.4930 -1.6138  0.1236
31593SOL     OW 1636   4.210   9.513   2.969 -0.2232 -0.3970  0.4803
31593SOL    HW1 1637   4.213   9.430   3.017 -0.2108 -0.4504  0.3887
31593SOL    HW2 1638   4.291   9.558   2.993 -0.4596 -0.1935  0.9142
31594SOL     OW 1639   3.643   6.085   5.607 -0.5516  0.1985  0.0187
31594SOL    HW1 1640   3.734   6.054   5.603 -1.2170 -1.8804 -0.0172
31594SOL    HW2 1641   3.650   6.180   5.591  1.4337 -0.1953 -2.1087
31595SOL     OW 1642   5.623   6.511   0.349  0.3552  0.4022  0.5122
31595SOL    HW1 1643   5.612   6.538   0.440  0.3639 -0.5663  0.8164
31595SOL    HW2 1644   5.535   6.514   0.312  0.3014  0.4829  0.6475
31596SOL     OW 1645   4.676   8.061   0.845 -0.0941  0.0906  0.7966
31596SOL    HW1 1646   4.590   8.091   0.876 -0.1373  3.5883 -2.0386
31596SOL    HW2 1647   4.739   8.117   0.892  0.2844  0.4869 -0.1535
31597SOL     OW 1648   5.715   7.083   2.807  0.1240  0.0591 -0.0036
31597SOL    HW1 1649   5.771   7.101   2.882 -0.0156  0.1995  0.0685
31597SOL    HW2 1650   5.664   7.006   2.832  0.7573 -0.4823 -0.3307
31598SOL     OW 1651  11.960   8.599   5.134  0.3368 -0.2917  0.8337
31598SOL    HW1 1652  11.932   8.672   5.078  1.6111  0.0721  0.6444
31598SOL    HW2 1653  11.982   8.641   5.217  0.4526 -0.5555  0.9349
31599SOL     OW 1654   8.608   4.805   6.099 -0.0630  0.1024  0.2386
31599SOL    HW1 1655   8.556   4.736   6.057 -0.6219  1.6954 -1.8563
31599SOL    HW2 1656   8.543   4.862   6.140 -0.0573  1.9126 -2.0975
31600SOL     OW 1657   5.771   4.311   3.388 -0.1416  0.1733 -0.2110
31600SOL    HW1 1658   5.693   4.366   3.384 -0.0985  0.4360  1.8245
31600SOL    HW2 1659   5.787   4.298   3.481 -0.5449 -3.8904 -0.5612
31601SOL     OW 1660   7.304   1.944   0.828  0.3884 -0.2851  0.0346
31601SOL    HW1 1661   7.270   1.928   0.916 -0.3060  2.6259  0.3939
31601SOL    HW2 1662   7.227   1.951   0.772  0.6886  0.1304 -0.3449
31602SOL     OW 1663   0.935   2.413   6.432  0.3643  0.2453 -0.4755
31602SOL    HW1 1664   0.900   2.330   6.466  1.4084 -0.2371 -0.5378
31602SOL    HW2 1665   0.858   2.470   6.424 -0.4286 -0.8253 -0.7653
31603SOL     OW 1666   0.871   5.000   2.028 -1.2340  0.3380 -0.3177
31603SOL    HW1 1667   0.848   4.911   2.001  0.5086  0.1116 -1.1871
31603SOL    HW2 1668   0.879   5.049   1.946 -0.4763  0.8430  0.0425
31604SOL     OW 1669   1.298   0.660   9.100  0.4325 -0.0474 -0.1858
31604SOL    HW1 1670   1.307   0.601   9.175 -2.0109 -2.1798 -1.3953
31604SOL    HW2 1671   1.249   0.735   9.135 -0.2879 -0.8079  0.5024
31605SOL     OW 1672   9.100   4.315   7.021 -0.4187  1.0823 -0.0309
31605SOL    HW1 1673   9.051   4.238   6.994 -0.9762  1.5497 -0.3692
31605SOL    HW2 1674   9.171   4.322   6.958  0.4102  0.1180  0.7470
31606SOL     OW 1675  12.573  11.337   2.512  0.1763 -0.3990 -0.6336
31606SOL    HW1 1676  12.582  11.248   2.479 -1.5123 -1.0255  0.5058
31606SOL    HW2 1677  12.590  11.331   2.606  2.7132  0.9902 -0.8963
31607SOL     OW 1678  12.274   8.624   0.172  0.0657  0.9516 -0.7494
31607SOL    HW1 1679  12.202   8.632   0.236  0.2216  0.2644 -0.4864
31607SOL    HW2 1680  12.238   8.664   0.092  0.1164  2.4846 -0.0569
31608SOL     OW 1681   8.286  11.180   4.762 -0.1995 -0.4468 -0.2464
31608SOL    HW1 1682   8.306  11.166   4.670  2.4326  0.0868  0.1699
31608SOL    HW2 1683   8.319  11.268   4.781 -0.8370 -0.4786  1.1764
31609SOL     OW 1684  11.972   9.901   1.708  0.4689 -0.7328 -0.7357
31609SOL    HW1 1685  12.044   9.964   1.698  0.8648 -0.8639  1.0538
31609SOL    HW2 1686  11.954   9.872   1.618  0.9469  1.1718 -1.5027
31610SOL     OW 1687   2.023   2.197   8.980 -0.1191 -0.6968 -0.3801
31610SOL    HW1 1688   1.981   2.142   8.914 -1.0929 -1.3497  0.7425
31610SOL    HW2 1689   2.084   2.139   9.025 -1.3160 -0.9850  0.9610
31611SOL     OW 1690   5.324   9.069   2.458 -0.0597 -0.2338  0.0431
31611SOL    HW1 1691   5.415   9.040   2.472  0.5278  1.8555  0.9587
31611SOL    HW2 1692   5.309   9.133   2.528 -1.6473  0.7528 -1.1512
31612SOL     OW 1693   0.992   9.718   4.714 -0.2864  0.0014 -0.2122
31612SOL    HW1 1694   0.906   9.697   4.751  0.0124 -0.1526  0.3961
31612SOL    HW2 1695   1.005   9.811   4.735 -0.0363 -0.1342  0.2293
31613SOL     OW 1696   3.013   7.946   6.239 -0.1708  0.8078  0.1107
31613SOL    HW1 1697   2.940   7.956   6.179 -0.8747  1.2614  1.0189
31613SOL    HW2 1698   3.058   8.031   6.237 -1.6494  1.6976  2.0496
31614SOL     OW 1699  11.934   2.851  10.736  0.0362 -0.3849  0.4141
31614SOL    HW1 1700  12.000   2.822  10.673 -0.1830  0.0563 -0.0283
31614SOL    HW2 1701  11.865   2.784  10.732  0.0408 -0.3771  0.2131
31615SOL     OW 1702   7.790  12.357   7.254 -0.0141 -0.3795  0.6999
31615SOL    HW1 1703   7.746  12.401   7.181  3.0320  1.0600 -0.4110
31615SOL    HW2 1704   7.794  12.265   7.227 -0.2381 -0.1174 -0.2573
31616SOL     OW 1705   0.465   1.353   9.841 -0.2722 -0.1690  0.1752
31616SOL    HW1 1706   0.514   1.271   9.836  2.1675  1.2246 -0.5472
31616SOL    HW2 1707   0.482   1.396   9.757  0.1111  1.9014  1.2650
31617SOL     OW 1708   2.582   2.989   4.989  0.4810 -0.1582  0.6360
31617SOL    HW1 1709   2.658   2.959   5.039  0.9662  2.6775  1.7671
31617SOL    HW2 1710   2.530   3.039   5.052 -0.3822  1.1055 -1.0091
31618SOL     OW 1711   4.102   5.200   3.089  0.5040 -0.0315  0.2023
31618SOL    HW1 1712   4.042   5.154   3.030 -0.1043  1.0600 -0.0613
31618SOL    HW2 1713   4.138   5.131   3.145  0.3679 -0.9547 -0.8080
31619SOL     OW 1714   2.943   3.664   5.505 -0.1899  0.0822 -0.6872
31619SOL    HW1 1715   2.979   3.589   5.552 -0.0362  0.2878 -0.4763
31619SOL    HW2 1716   2.889   3.710   5.570  0.4646  0.6747 -0.5464
31620SOL     OW 1717   9.425   8.813   0.538  0.1214  0.1993 -0.0813
31620SOL    HW1 1718   9.447   8.896   0.579  0.7782  1.0526 -2.0101
31620SOL    HW2 1719   9.440   8.747   0.605  0.6764  1.5347  1.1437
31621SOL     OW 1720   0.591   7.917   8.350 -0.2115 -0.2320  0.2469
31621SOL    HW1 1721   0.526   7.920   8.280 -1.0498 -0.5405  1.0119
31621SOL    HW2 1722   0.580   7.831   8.390  0.0570  0.0539  0.9553
31622SOL     OW 1723   0.653   3.717   8.064  0.4097  0.2779 -0.1150
31622SOL    HW1 1724   0.655   3.661   7.987  0.0793 -0.6545  0.5281
31622SOL    HW2 1725   0.676   3.659   8.137 -0.7449  0.7656  0.6786
31623SOL     OW 1726   9.474   5.324   4.639 -0.7548  0.1730 -0.0218
31623SOL    HW1 1727   9.462   5.235   4.673  0.4705  0.4377  1.1596
31623SOL    HW2 1728   9.439   5.320   4.549 -0.8971 -1.4370  0.0805
31624SOL     OW 1729   7.841   1.989  12.422  0.8689  0.1611 -0.2665
31624SOL    HW1 1730   7.762   2.014  12.374  0.1563  0.3893  0.9935
31624SOL    HW2 1731   7.858   1.899  12.394  1.6002  0.8996 -2.3872
31625SOL     OW 1732   6.185   1.328  11.381 -0.3928 -0.3087  0.5661
31625SOL    HW1 1733   6.192   1.358  11.472  2.2290 -4.3625  1.9543
31625SOL    HW2 1734   6.265   1.359  11.340 -2.5540  3.4815 -1.3068
31626SOL     OW 1735   0.842   8.633   4.305 -0.0284  0.0346 -0.3391
31626SOL    HW1 1736   0.823   8.673   4.220  0.3383 -0.3617 -0.6123
31626SOL    HW2 1737   0.778   8.673   4.364  0.3746  1.0711 -0.5809
31627SOL     OW 1738   7.666   0.153   3.419  0.2026  1.0421  0.5099
31627SOL    HW1 1739   7.683   0.125   3.509 -0.3282 -2.3649 -0.3084
31627SOL    HW2 1740   7.681   0.248   3.420  1.0952  0.9968  3.9350
31628SOL     OW 1741   3.444   8.691   7.676 -0.2219 -0.5658 -0.0132
31628SOL    HW1 1742   3.396   8.764   7.715 -0.6434 -0.5759 -0.4862
31628SOL    HW2 1743   3.526   8.729   7.645 -0.0642 -0.4763  0.5180
31629SOL     OW 1744   5.514   1.289   4.051 -0.6204  0.5454  0.5996
31629SOL    HW1 1745   5.522   1.340   3.971  0.5297  1.0838  1.0407
31629SOL    HW2 1746   5.485   1.202   4.021  0.6235  0.4769 -0.5013
31630SOL     OW 1747   8.152   1.178   1.338 -0.4151 -0.2674 -0.2360
31630SOL    HW1 1748   8.199   1.236   1.278  0.4793 -1.2406 -0.5024
31630SOL    HW2 1749   8.177   1.209   1.425  0.9209 -0.8867 -0.3686
31631SOL     OW 1750   9.809  12.253   2.276 -0.1093 -0.0296 -0.0804
31631SOL    HW1 1751   9.785  12.231   2.186 -0.2282  0.5060 -0.1844
31631SOL    HW2 1752   9.903  12.235   2.280  0.2330  1.4270 -0.7860
31632SOL     OW 1753  11.709   2.971   3.671  0.4515 -0.3601  0.3585
31632SOL    HW1 1754  11.656   2.987   3.749  1.4983  0.7270  0.8770
31632SOL    HW2 1755  11.783   2.919   3.703  0.6589 -0.2902 -0.0016
31633SOL     OW 1756   7.101   7.043   8.334  0.2575  0.1502  0.5828
31633SOL    HW1 1757   7.178   7.094   8.310  0.3268  0.0471  0.5841
31633SOL    HW2 1758   7.071   7.083   8.416  0.5358 -0.0506  0.7843
31634SOL     OW 1759   4.124   8.536   1.643  0.2265  0.4121  0.0961
31634SOL    HW1 1760   4.155   8.625   1.628 -0.3267  0.6622  0.4420
31634SOL    HW2 1761   4.055   8.544   1.708 -1.8020  0.0654 -1.8983
31635SOL     OW 1762   5.343   4.151   4.419 -0.0825 -0.2084 -0.1322
31635SOL    HW1 1763   5.424   4.122   4.377 -0.1612  0.0257 -0.4467
31635SOL    HW2 1764   5.372   4.219   4.480 -0.2627  1.4417 -1.7870
31636SOL     OW 1765   9.322   0.266   9.123 -0.3002  0.2805  0.1060
31636SOL    HW1 1766   9.407   0.280   9.164  0.3256 -0.3665 -0.9233
31636SOL    HW2 1767   9.261   0.253   9.196  0.5612  0.3011  0.8391
31637SOL     OW 1768  11.721   2.328   9.535  0.1716 -0.2354  0.1970
31637SOL    HW1 1769  11.659   2.379   9.483  1.6654  0.1073 -1.3580
31637SOL    HW2 1770  11.672   2.301   9.613 -0.5285  4.2413  1.5755
31638SOL     OW 1771   3.520   9.264  11.461  0.1703 -0.5721  0.9147
31638SOL    HW1 1772   3.548   9.173  11.471 -0.1790 -0.5336  2.3867
31638SOL    HW2 1773   3.550   9.288  11.374 -1.4871 -2.7313 -0.3797
31639SOL     OW 1774   9.130   8.141   3.381  0.0433  0.0244  0.2400
31639SOL    HW1 1775   9.221   8.119   3.404  0.0281  0.6812  0.9869
31639SOL    HW2 1776   9.129   8.236   3.377 -0.6187  0.0220  0.2393
31640SOL     OW 1777  11.423   0.084   9.930 -0.3187 -0.1024  0.0843
31640SOL    HW1 1778  11.328   0.099   9.939 -0.5699 -1.2741 -0.4165
31640SOL    HW2 1779  11.449   0.051  10.016 -0.5666 -0.6965 -0.0606
31641SOL     OW 1780   5.194   8.233  12.131  0.3147 -0.0889  0.3639
31641SOL    HW1 1781   5.108   8.275  12.122 -0.1710 -1.3488 -1.3735
31641SOL    HW2 1782   5.175   8.144  12.160  1.1543  0.0530  1.4127
31642SOL     OW 1783   7.063   6.703  12.252  0.3588 -0.1545  0.5152
31642SOL    HW1 1784   6.979   6.702  12.206  0.5283  1.0569  0.1704
31642SOL    HW2 1785   7.122   6.652  12.196  0.2193  0.1834  0.0590
31643SOL     OW 1786   3.411   3.531   7.244  0.1644  0.2225  0.0557
31643SOL    HW1 1787   3.335   3.555   7.296 -0.0330 -2.1091  0.9799
31643SOL    HW2 1788   3.426   3.606   7.186 -1.8464  1.3780  0.9412
31644SOL     OW 1789   1.408   8.807  11.682 -0.6557 -0.2678 -0.0418
31644SOL    HW1 1790   1.316   8.796  11.705 -0.6989  0.8533  0.4036
31644SOL    HW2 1791   1.410   8.811  11.587 -1.1263  0.1082 -0.0379
31645SOL     OW 1792   0.758  12.165  10.103 -0.1463 -0.3371 -0.4070
31645SOL    HW1 1793   0.804  12.089  10.138  1.1859  0.6399  0.0448
31645SOL    HW2 1794   0.786  12.169  10.011  0.3966  0.0284 -0.2339
31646SOL     OW 1795   8.085   4.294   2.622 -0.1090 -0.4466 -0.2100
31646SOL    HW1 1796   8.147   4.225   2.597  2.6205  0.1054  3.9808
31646SOL    HW2 1797   8.129   4.375   2.598 -0.7197 -0.0956 -0.1365
31647SOL     OW 1798   7.227  12.448   6.452  0.3321  0.3054 -0.3838
31647SOL    HW1 1799   7.246  12.377   6.391  2.1766  0.0210  0.4439
31647SOL    HW2 1800   7.175  12.407   6.521 -1.5041  0.5638 -1.5411
31648SOL     OW 1801   8.660  11.892   7.757 -0.2889 -0.3839  0.2072
31648SOL    HW1 1802   8.581  11.846   7.788  0.1357 -0.5383  1.1061
31648SOL    HW2 1803   8.717  11.822   7.724 -0.8844 -0.1862 -1.3175
31649SOL     OW 1804   9.014   2.348   0.199 -0.0631 -0.2364 -0.8830
31649SOL    HW1 1805   9.044   2.407   0.130  1.1259  0.2112 -0.0235
31649SOL    HW2 1806   8.947   2.293   0.157 -2.1273  2.4648 -1.4654
31650SOL     OW 1807   9.799   5.576   9.457  0.2069  0.1810 -0.1218
31650SOL    HW1 1808   9.827   5.563   9.548 -1.1601  0.0694  0.3034
31650SOL    HW2 1809   9.777   5.488   9.426  0.5131  0.2412 -0.5257
31651SOL     OW 1810   7.430   9.459   5.214  0.2849  0.3226 -0.5634
31651SOL    HW1 1811   7.496   9.488   5.277 -0.0637 -0.9147  0.4301
31651SOL    HW2 1812   7.359   9.423   5.268  0.5171 -1.9460 -1.6347
31652SOL     OW 1813  12.060   5.919   1.508 -0.6055  0.0652  0.1127
31652SOL    HW1 1814  11.971   5.934   1.475 -1.1583 -1.0231  1.0243
31652SOL    HW2 1815  12.048   5.887   1.597  0.6946 -0.3802  0.1545
31653SOL     OW 1816   7.644  10.410   3.430  0.3965  1.1135 -0.0573
31653SOL    HW1 1817   7.561  10.386   3.389  1.4847  0.2255 -1.8682
31653SOL    HW2 1818   7.674  10.487   3.382 -0.2659  2.6641  1.8913
31654SOL     OW 1819  10.914   1.938   3.210  0.5321 -0.5303 -0.3068
31654SOL    HW1 1820  10.894   2.030   3.197  0.6155 -0.6359 -1.2141
31654SOL    HW2 1821  10.983   1.938   3.277  0.4705  0.0567 -0.2424
31655SOL     OW 1822   9.443   1.526  10.371 -0.6871 -0.2933  0.0814
31655SOL    HW1 1823   9.499   1.483  10.436 -0.1233  0.6548  0.2522
31655SOL    HW2 1824   9.495   1.523  10.291 -1.1276 -0.9225 -0.1912
31656SOL     OW 1825   0.144  11.974   8.058  0.6686  0.1467  0.2075
31656SOL    HW1 1826   0.175  11.884   8.049  2.2219  0.7216 -0.7244
31656SOL    HW2 1827   0.079  11.971   8.127 -1.3156 -2.1577 -1.5881
31657SOL     OW 1828   3.793  11.968   5.050  0.2627 -0.1249  0.1721
31657SOL    HW1 1829   3.815  12.056   5.021 -0.9131 -0.0761 -0.6392
31657SOL    HW2 1830   3.873  11.917   5.036  0.1130  0.1782 -2.0917
31658SOL     OW 1831   2.355  10.915  11.463 -0.2626 -0.5182 -0.2776
31658SOL    HW1 1832   2.410  10.887  11.390  0.9327  0.3999  0.2330
31658SOL    HW2 1833   2.343  10.836  11.515  1.0948 -0.6309 -0.0917
31659SOL     OW 1834   2.353   3.239   3.224  0.8409 -0.0333  0.3092
31659SOL    HW1 1835   2.280   3.200   3.272  0.8068 -1.4997 -0.8803
31659SOL    HW2 1836   2.348   3.332   3.245 -1.6211 -0.0264 -0.0347
31660SOL     OW 1837   1.330  11.954  11.727 -0.0112  0.5183  0.1655
31660SOL    HW1 1838   1.272  11.993  11.662 -0.5569  0.8808  0.8593
31660SOL    HW2 1839   1.417  11.986  11.704 -0.0700 -0.0273 -0.8816
31661SOL     OW 1840  11.797   8.382   2.925 -0.4881  0.1904  0.6221
31661SOL    HW1 1841  11.789   8.408   2.833 -0.7169  0.6591  0.7734
31661SOL    HW2 1842  11.801   8.465   2.973  0.2104 -0.0461  0.9864
31662SOL     OW 1843  10.261   6.122   7.055 -0.0360 -0.4154  0.4009
31662SOL    HW1 1844  10.278   6.036   7.016  1.0938 -0.0148 -0.0306
31662SOL    HW2 1845  10.240   6.103   7.147 -2.5281 -1.3519 -0.2860
31663SOL     OW 1846  11.673  10.140   9.984  0.0807  0.1005 -0.1031
31663SOL    HW1 1847  11.656  10.046   9.979 -1.3665  0.3218  0.3055
31663SOL    HW2 1848  11.712  10.162   9.899  1.6700 -1.0770  0.2779
31664SOL     OW 1849   4.205   7.166   7.538  0.4020 -1.0982 -0.2228
31664SOL    HW1 1850   4.242   7.241   7.492 -0.7396  0.3221  1.0427
31664SOL    HW2 1851   4.200   7.097   7.472  2.4202 -0.4131 -1.1760
31665SOL     OW 1852   4.378   8.816   2.959 -0.1497 -0.2540 -0.3807
31665SOL    HW1 1853   4.408   8.765   2.883  0.3697 -0.7684  0.1621
31665SOL    HW2 1854   4.326   8.887   2.921  1.8650  0.7831 -1.3891
31666SOL     OW 1855  10.099   2.231  11.199 -0.5217  0.9822 -1.0296
31666SOL    HW1 1856  10.005   2.236  11.181 -0.4153  2.6009 -1.2436
31666SOL    HW2 1857  10.108   2.262  11.289 -0.3282 -0.6252 -0.4649
31667SOL     OW 1858   3.492   5.025  10.415 -0.0776  0.2237 -0.6347
31667SOL    HW1 1859   3.420   4.967  10.441  0.1515  0.4505  0.5452
31667SOL    HW2 1860   3.532   5.053  10.497  0.7804  0.8488 -1.2416
31668SOL     OW 1861   6.130   8.674   6.807 -0.3554 -0.2030  0.5181
31668SOL    HW1 1862   6.086   8.753   6.839  1.0162  0.1392  1.6573
31668SOL    HW2 1863   6.137   8.618   6.884 -3.3955 -2.5433 -0.7087
31669SOL     OW 1864  11.556   5.347   0.495  0.0583 -0.4338  0.2280
31669SOL    HW1 1865  11.543   5.399   0.416 -1.4628 -1.3725 -0.1883
31669SOL    HW2 1866  11.530   5.404   0.567  0.7869  0.1914  0.0049
31670SOL     OW 1867   4.497   6.727   9.181  0.2918 -0.2637 -0.4336
31670SOL    HW1 1868   4.549   6.807   9.191  0.7215 -0.4590 -1.0621
31670SOL    HW2 1869   4.413   6.758   9.146 -0.0276  0.0513  0.5765
31671SOL     OW 1870   8.732   4.270  10.451  0.2513  0.2439 -0.0120
31671SOL    HW1 1871   8.821   4.291  10.422  0.7198  1.0726  1.9066
31671SOL    HW2 1872   8.714   4.330  10.523 -1.4657 -0.6278  0.3579
31672SOL     OW 1873   8.434   3.411   8.822 -0.5577 -0.5324  0.5185
31672SOL    HW1 1874   8.414   3.386   8.732  1.5694 -0.7120  0.0438
31672SOL    HW2 1875   8.397   3.499   8.830 -1.7392 -0.9371 -0.1405
31673SOL     OW 1876   2.813   7.036   5.110 -0.2988  0.0109 -0.0202
31673SOL    HW1 1877   2.821   7.029   5.205 -1.6895 -2.0451  0.0084
31673SOL    HW2 1878   2.862   6.961   5.076 -1.6518 -0.5759 -0.7657
31674SOL     OW 1879   2.583   8.847   9.544  0.0765  0.2882  0.2726
31674SOL    HW1 1880   2.638   8.836   9.621  3.1360 -0.2187 -1.8212
31674SOL    HW2 1881   2.597   8.939   9.519 -0.2621  0.2298 -0.1267
31675SOL     OW 1882   9.896   4.551   9.918 -0.4846  0.1596 -0.0138
31675SOL    HW1 1883   9.863   4.639   9.899 -1.6314 -0.0838  0.7592
31675SOL    HW2 1884   9.862   4.531  10.005 -1.3165 -1.5341 -0.6820
31676SOL     OW 1885   3.719   2.531  11.388  0.5250  0.4967 -0.1069
31676SOL    HW1 1886   3.689   2.530  11.297  0.5870 -0.9789 -0.1427
31676SOL    HW2 1887   3.786   2.462  11.391 -1.4606 -1.5291  1.6562
31677SOL     OW 1888   9.583   6.394   4.668  0.0283 -0.0730  0.2463
31677SOL    HW1 1889   9.669   6.431   4.650 -0.3622  0.4482 -0.6350
31677SOL    HW2 1890   9.563   6.340   4.591 -0.4145 -0.2102  0.4515
31678SOL     OW 1891   1.560   1.364   5.007 -0.0437 -0.4028  0.4622
31678SOL    HW1 1892   1.552   1.297   5.075 -0.3305 -1.1490 -0.2793
31678SOL    HW2 1893   1.501   1.334   4.938  1.0793 -0.2632 -0.5930
31679SOL     OW 1894   6.921   1.421   8.021  0.3622  0.0580  0.6078
31679SOL    HW1 1895   6.991   1.370   8.061  1.0861  0.4961 -0.0686
31679SOL    HW2 1896   6.960   1.456   7.940 -1.0539 -0.7632 -0.4571
31680SOL     OW 1897   5.886   2.614   7.160  0.8223  0.3715 -0.0656
31680SOL    HW1 1898   5.851   2.543   7.106 -0.0179  0.8265 -0.1366
31680SOL    HW2 1899   5.976   2.626   7.129  0.1616  1.0842 -1.8872
31681SOL     OW 1900   9.929   0.287  12.236 -0.4094 -0.2047  0.3437
31681SOL    HW1 1901  10.024   0.285  12.244 -0.2191  0.6824 -1.1989
31681SOL    HW2 1902   9.900   0.337  12.312  0.3617 -0.4135  0.7866
31682SOL     OW 1903   1.936   5.258  10.622  0.0546 -0.0912  0.0705
31682SOL    HW1 1904   1.886   5.335  10.650  1.1549  0.1742  1.4246
31682SOL    HW2 1905   1.995   5.292  10.555 -1.4605 -0.3967 -1.5029
31683SOL     OW 1906   3.555   1.623  10.296 -0.1116 -0.2114  0.0696
31683SOL    HW1 1907   3.546   1.621  10.201  0.9213  0.7523 -0.0666
31683SOL    HW2 1908   3.580   1.713  10.317  1.8256 -0.8986  1.0193
31684SOL     OW 1909   3.122   3.644   1.760 -0.1609 -0.4827 -0.4372
31684SOL    HW1 1910   3.137   3.562   1.714 -1.1535 -0.9980  0.1259
31684SOL    HW2 1911   3.071   3.620   1.837 -0.2466  0.6302 -0.1167
31685SOL     OW 1912   2.344  11.163   1.528  0.3367  0.4909 -0.3270
31685SOL    HW1 1913   2.384  11.125   1.449 -0.3516 -0.3858 -0.2605
31685SOL    HW2 1914   2.253  11.179   1.504  0.3794  1.2094 -0.0374
31686SOL     OW 1915   6.921   1.105   8.436 -0.3828 -0.7135 -0.5092
31686SOL    HW1 1916   6.846   1.047   8.422  0.5224 -2.1715  0.3587
31686SOL    HW2 1917   6.991   1.066   8.384  0.3401 -0.6443  0.3868
31687SOL     OW 1918   4.827   8.878   6.184 -0.2886  0.2808  0.5796
31687SOL    HW1 1919   4.903   8.888   6.126  0.2780  0.0136  1.2592
31687SOL    HW2 1920   4.752   8.899   6.129  0.1630 -0.7600 -0.4803
31688SOL     OW 1921   3.672  11.365   2.074 -0.2679  0.0311  0.8609
31688SOL    HW1 1922   3.639  11.313   2.001 -1.6552  2.5536 -0.4356
31688SOL    HW2 1923   3.754  11.403   2.041  0.9576 -1.5129  1.9450
31689SOL     OW 1924   2.216   4.717   1.124 -0.2551 -0.1245  0.1335
31689SOL    HW1 1925   2.153   4.647   1.138 -1.5246  1.0441  0.4591
31689SOL    HW2 1926   2.301   4.679   1.148 -1.1886 -0.8887  2.4299
31690SOL     OW 1927   1.173   8.384   0.533  0.0404 -0.3016 -0.5404
31690SOL    HW1 1928   1.110   8.454   0.519 -0.8241 -1.0702 -0.6358
31690SOL    HW2 1929   1.237   8.394   0.462  1.7644  2.2833  1.2425
31691SOL     OW 1930   3.818  12.207   1.687 -0.2456  0.0520 -0.5470
31691SOL    HW1 1931   3.734  12.177   1.723  0.8607 -0.1844  2.0649
31691SOL    HW2 1932   3.857  12.128   1.648  0.0189 -0.5832  0.9197
31692SOL     OW 1933   6.361   8.408   4.625 -0.3012  0.0253  0.1607
31692SOL    HW1 1934   6.378   8.480   4.686  1.3406 -0.5564  0.4210
31692SOL    HW2 1935   6.317   8.449   4.551 -0.5869  1.0650  0.8881
31693SOL     OW 1936   0.759   6.924  12.105  0.2832 -0.6198 -0.1096
31693SOL    HW1 1937   0.690   6.979  12.068  0.5575 -0.5663 -0.5491
31693SOL    HW2 1938   0.818   6.908  12.032  1.2034  0.0524  0.4793
31694SOL     OW 1939   9.958   9.411   2.953 -0.1372  0.0655  0.1511
31694SOL    HW1 1940  10.008   9.335   2.983 -3.3506 -2.0051  0.8434
31694SOL    HW2 1941   9.947   9.465   3.031  0.0030 -0.1280  0.3071
31695SOL     OW 1942   7.251   8.646   8.031 -0.3461 -0.2284  0.1148
31695SOL    HW1 1943   7.185   8.706   7.997 -2.0051 -1.4648  1.0229
31695SOL    HW2 1944   7.232   8.639   8.124  1.5665 -0.0549  0.5650
31696SOL     OW 1945   3.202   9.487   8.665 -0.2790 -0.2749  0.9937
31696SOL    HW1 1946   3.235   9.534   8.742  0.0896  0.2896  0.4994
31696SOL    HW2 1947   3.129   9.434   8.699 -1.0371  1.0255  1.4862
31697SOL     OW 1948   3.490  12.037   4.085  0.4464  0.2833  0.5692
31697SOL    HW1 1949   3.551  12.016   4.015  0.3393 -0.4190  0.6830
31697SOL    HW2 1950   3.433  12.104   4.047 -0.3595 -0.9213 -0.4434
31698SOL     OW 1951   8.713  12.555  11.053 -0.4913 -0.2384  0.5406
31698SOL    HW1 1952   8.625  12.519  11.042 -0.7769  0.8542 -1.1561
31698SOL    HW2 1953   8.703  12.648  11.034  1.0805 -0.1477  0.0684
31699SOL     OW 1954   1.420   9.893   8.530 -0.2212  0.6105  0.5142
31699SOL    HW1 1955   1.427   9.809   8.484 -0.3422  0.8770 -0.0075
31699SOL    HW2 1956   1.418   9.870   8.623  2.7572  0.2138  0.5604
31700SOL     OW 1957   9.431   4.279   9.010  0.2943  0.1626  0.6057
31700SOL    HW1 1958   9.406   4.371   9.017 -0.1935  0.0300  0.6447
31700SOL    HW2 1959   9.410   4.242   9.096 -0.5119 -0.2206  0.2590
31701SOL     OW 1960   6.513   6.411   3.093  0.6298 -0.2879  0.1162
31701SOL    HW1 1961   6.592   6.461   3.114 -0.1316  0.5561  1.0750
31701SOL    HW2 1962   6.456   6.424   3.169  0.8186 -3.5907  0.9958
31702SOL     OW 1963   5.118  10.762   4.528 -0.2045  0.3841 -0.0789
31702SOL    HW1 1964   5.087  10.777   4.438 -0.3098 -0.8741 -0.2701
31702SOL    HW2 1965   5.089  10.839   4.576 -1.7407  0.2521 -0.7297
31703SOL     OW 1966   0.589  12.241   4.334  0.5685  0.2508 -0.5035
31703SOL    HW1 1967   0.665  12.299   4.329  1.6911 -0.9728  1.2590
31703SOL    HW2 1968   0.515  12.295   4.306  1.4977  2.6336  1.3237
31704SOL     OW 1969   6.010  10.703   1.252 -0.2268 -0.2258 -0.5284
31704SOL    HW1 1970   5.925  10.690   1.211  0.1752 -1.3541 -1.0512
31704SOL    HW2 1971   6.071  10.656   1.196  0.5043 -0.8286  0.7252
31705SOL     OW 1972   1.103  11.773  11.345 -0.3467  0.9687 -0.3724
31705SOL    HW1 1973   1.063  11.695  11.306  0.6376  0.3866 -0.2521
31705SOL    HW2 1974   1.152  11.814  11.274  1.9750 -0.4407  0.3095
31706SOL     OW 1975   9.808   0.693   0.212  0.7961 -0.4246  0.1168
31706SOL    HW1 1976   9.781   0.768   0.265 -0.7308 -1.3157  0.6636
31706SOL    HW2 1977   9.764   0.618   0.252  0.8176 -1.3511 -1.5133
31707SOL     OW 1978   5.859   4.497   1.581  0.3696  0.0051 -0.7187
31707SOL    HW1 1979   5.837   4.410   1.545 -0.8921 -0.4908  1.1004
31707SOL    HW2 1980   5.776   4.545   1.579  0.4910  0.3004  0.5460
31708SOL     OW 1981  10.225   3.724   9.142  0.4333  0.0437 -0.3376
31708SOL    HW1 1982  10.321   3.721   9.141  0.5770  2.2112  0.7242
31708SOL    HW2 1983  10.204   3.814   9.116 -1.3713 -0.5997 -1.2992
31709SOL     OW 1984   2.446   7.648   4.307 -0.3004 -0.5680 -0.2457
31709SOL    HW1 1985   2.356   7.672   4.327 -0.5921 -1.6424 -0.2357
31709SOL    HW2 1986   2.491   7.653   4.392 -0.4471 -0.4906 -0.1706
31710SOL     OW 1987  11.658  10.678   2.751 -0.1035 -0.3392  0.3923
31710SOL    HW1 1988  11.731  10.736   2.770  0.6302 -1.2281  0.3770
31710SOL    HW2 1989  11.627  10.705   2.665  1.0946 -0.8217 -0.2044
31711SOL     OW 1990   9.827   9.535   8.290 -0.3805  0.4880 -1.0360
31711SOL    HW1 1991   9.906   9.559   8.241  0.3533 -0.0100 -0.1257
31711SOL    HW2 1992   9.789   9.462   8.240  1.7337 -1.7423  0.3769
31712SOL     OW 1993  11.040   4.589  10.311 -0.0155 -0.5202  0.3376
31712SOL    HW1 1994  11.111   4.578  10.375  0.8172  0.3616 -0.4017
31712SOL    HW2 1995  10.966   4.621  10.362  0.3412 -0.7366  1.0047
31713SOL     OW 1996   5.779   6.437   5.113 -0.0139  0.1437 -0.0712
31713SOL    HW1 1997   5.826   6.356   5.094 -0.1342  0.2279 -0.7552
31713SOL    HW2 1998   5.687   6.415   5.100 -0.1190  0.1607  0.6029
31714SOL     OW 1999   3.059   5.185  10.234 -0.3436 -0.0707 -0.7340
31714SOL    HW1 2000   2.986   5.135  10.271 -1.8351  1.4749 -1.4108
31714SOL    HW2 2001   3.086   5.134  10.157 -0.5721 -0.7674 -0.3623
31715SOL     OW 2002   8.531  10.929   5.291  0.1131  0.1761 -0.1178
31715SOL    HW1 2003   8.593  10.949   5.221  2.0251  0.2563  1.5294
31715SOL    HW2 2004   8.525  11.009   5.343 -1.3041  0.1268 -0.1437
31716SOL     OW 2005   4.234   8.945   3.444 -0.4361  0.1646 -0.0970
31716SOL    HW1 2006   4.291   8.923   3.371  1.4138 -0.3781  1.4458
31716SOL    HW2 2007   4.212   9.037   3.430  1.4771  0.6283 -0.3439
31717SOL     OW 2008   6.167   7.669   7.326 -0.1137 -0.2787 -0.1010
31717SOL    HW1 2009   6.127   7.629   7.248 -1.5147  1.5197 -0.3774
31717SOL    HW2 2010   6.094   7.676   7.388  0.9900 -1.7199  1.4456
31718SOL     OW 2011   8.604   4.350   2.371  0.0069  0.6747  0.0904
31718SOL    HW1 2012   8.564   4.355   2.458  0.5820 -0.9271  0.4797
31718SOL    HW2 2013   8.590   4.259   2.343  1.5381  0.6400 -0.6532
31719SOL     OW 2014  10.825   7.478   8.139  0.0718  0.1565  0.1019
31719SOL    HW1 2015  10.825   7.534   8.217  3.0515  0.5405 -0.0550
31719SOL    HW2 2016  10.762   7.520   8.080 -0.3568  1.3269  1.3317
31720SOL     OW 2017   8.419  10.388   3.202 -0.2901 -0.3372  0.0757
31720SOL    HW1 2018   8.343  10.419   3.251  1.4380  1.6977  1.6688
31720SOL    HW2 2019   8.461  10.324   3.259 -0.0721 -0.4216 -0.1768
31721SOL     OW 2020   2.179   0.024   4.792  0.0919 -0.1485 -0.7966
31721SOL    HW1 2021   2.231   0.015   4.713  0.8684 -0.6041 -0.2486
31721SOL    HW2 2022   2.207   0.108   4.829  0.3402 -0.3208 -0.5841
31722SOL     OW 2023   8.187   1.699  12.309  0.4529 -0.3557  0.1578
31722SOL    HW1 2024   8.234   1.763  12.363 -3.0098  2.0570  0.6168
31722SOL    HW2 2025   8.170   1.626  12.369  1.2597 -0.0690  0.7614
31723SOL     OW 2026   9.012   5.947   5.487 -0.4233  0.2671  0.1391
31723SOL    HW1 2027   8.967   6.024   5.522  0.3325  0.1534  1.4329
31723SOL    HW2 2028   8.966   5.927   5.406 -1.0566  1.6837  0.1187
31724SOL     OW 2029   8.005   9.134  10.468 -0.8647  0.2402  0.3727
31724SOL    HW1 2030   8.046   9.049  10.484 -0.2943  1.1050  4.9697
31724SOL    HW2 2031   8.056   9.172  10.396 -0.3620 -2.7130 -1.0117
31725SOL     OW 2032   3.956  10.056   4.005 -0.0473  0.0114 -0.0553
31725SOL    HW1 2033   3.909  10.128   4.048 -0.1964  0.3144 -0.7228
31725SOL    HW2 2034   4.048  10.072   4.026 -0.2930 -1.3928  2.4992
31726SOL     OW 2035   3.178   1.588  10.022  0.3727 -0.0847 -0.1805
31726SOL    HW1 2036   3.127   1.649  10.075  1.3360  0.3626  0.2696
31726SOL    HW2 2037   3.155   1.502  10.055  0.2281  0.1364  0.3037
31727SOL     OW 2038   6.036   1.454  12.131  0.6672 -0.2969 -0.3174
31727SOL    HW1 2039   5.992   1.521  12.079  1.3984  0.8251  0.4433
31727SOL    HW2 2040   6.051   1.496  12.216  0.3123 -1.7590  0.5122
31728SOL     OW 2041   7.041   8.286   0.510 -0.5727  0.1365  0.2283
31728SOL    HW1 2042   7.043   8.359   0.448 -1.2184 -0.5751 -0.6708
31728SOL    HW2 2043   7.095   8.314   0.583 -0.7671  1.4936 -0.1249
31729SOL     OW 2044   4.331  10.239   7.840 -0.1844  0.0351  0.4300
31729SOL    HW1 2045   4.293  10.311   7.790 -0.1520 -0.0312  0.3102
31729SOL    HW2 2046   4.256  10.192   7.876 -0.4201 -2.0328 -2.4400
31730SOL     OW 2047   2.138   3.639   5.178  0.5973  0.1253  0.8655
31730SOL    HW1 2048   2.175   3.598   5.257 -1.6407 -0.5335  1.6490
31730SOL    HW2 2049   2.047   3.655   5.201  0.2001  1.0446 -1.2060
31731SOL     OW 2050  12.528   3.972   0.410  0.2099  0.5022  0.8718
31731SOL    HW1 2051  12.490   3.928   0.487 -0.6009  1.3448  0.9697
31731SOL    HW2 2052  12.565   4.053   0.445 -0.5054  1.0780  0.3347
31732SOL     OW 2053  11.602   6.432   1.804 -0.1326  0.4315  0.2111
31732SOL    HW1 2054  11.606   6.337   1.817  0.0375  0.3795 -0.1947
31732SOL    HW2 2055  11.578   6.442   1.712  0.9179  0.7737 -0.0489
31733SOL     OW 2056   1.439   3.748   7.020  0.1120 -0.2697 -0.3918
31733SOL    HW1 2057   1.399   3.718   6.938 -1.2964 -0.2344  0.2552
31733SOL    HW2 2058   1.365   3.758   7.081  1.1093 -0.1824  0.8503
31734SOL     OW 2059   9.129  10.246  11.852  0.0832  0.1050 -0.2676
31734SOL    HW1 2060   9.111  10.158  11.887  0.0959  0.4640  0.6693
31734SOL    HW2 2061   9.042  10.282  11.834 -0.0608  0.7212  1.4599
31735SOL     OW 2062   5.659   5.933   4.387 -0.2339  0.1421  0.6023
31735SOL    HW1 2063   5.637   5.886   4.467 -1.5493  0.9449  0.7485
31735SOL    HW2 2064   5.746   5.971   4.404  0.3990 -1.3606  0.8509
31736SOL     OW 2065   9.934   9.436   7.268 -0.2027  0.3807  0.3805
31736SOL    HW1 2066   9.888   9.352   7.257  0.7329 -0.1361  0.2320
31736SOL    HW2 2067   9.899   9.492   7.199  0.4891 -0.5149 -0.7426
31737SOL     OW 2068   8.257   7.396   8.296  0.1439 -0.6033 -0.0429
31737SOL    HW1 2069   8.230   7.473   8.347  1.4505  0.3087 -0.6684
31737SOL    HW2 2070   8.332   7.360   8.344  1.0558 -0.0423 -0.9908
31738SOL     OW 2071   0.274   0.960   4.047  0.1659 -0.3614  0.3596
31738SOL    HW1 2072   0.337   1.018   4.089  0.1801 -0.7982  0.9567
31738SOL    HW2 2073   0.192   1.008   4.047  0.2511 -0.2153  0.5674
31739SOL     OW 2074   8.069   3.990   8.559  0.3647  0.2198  0.1971
31739SOL    HW1 2075   8.029   3.978   8.472  1.4794 -1.6038 -0.1286
31739SOL    HW2 2076   7.997   3.978   8.620 -0.7725  3.0548 -0.4176
31740SOL     OW 2077   9.652   4.979   1.411  0.1307  0.0023 -0.0212
31740SOL    HW1 2078   9.615   4.915   1.350 -0.6913  0.9569 -0.5465
31740SOL    HW2 2079   9.628   5.064   1.375  2.9253  0.7162 -0.4541
31741SOL     OW 2080   4.316   1.634   0.082 -0.1459 -0.0109  0.1501
31741SOL    HW1 2081   4.233   1.681   0.068 -0.2332 -0.1133  0.3104
31741SOL    HW2 2082   4.384   1.696   0.057 -0.3128 -0.6451 -2.0757
31742SOL     OW 2083  10.144   8.454   6.344  0.4410 -0.0246  0.1844
31742SOL    HW1 2084  10.220   8.420   6.296  0.6496  1.0756 -0.2783
31742SOL    HW2 2085  10.164   8.546   6.360  0.1430 -0.2222  1.9532
31743SOL     OW 2086   4.239   0.354   7.657  0.0112  0.3335 -1.0126
31743SOL    HW1 2087   4.188   0.435   7.665 -0.0547  0.1940  0.1735
31743SOL    HW2 2088   4.198   0.294   7.719  0.5510 -0.3558 -1.3157
31744SOL     OW 2089   2.539   3.015   0.704  0.3172  0.1860 -0.0893
31744SOL    HW1 2090   2.620   3.041   0.747  0.8075 -0.4956 -0.5591
31744SOL    HW2 2091   2.534   2.920   0.718  0.3059  0.0094 -1.2105
31745SOL     OW 2092   7.147   9.693   9.481  0.1687  0.3678  0.5728
31745SOL    HW1 2093   7.164   9.630   9.550  2.2285  1.1340  0.8526
31745SOL    HW2 2094   7.073   9.657   9.432  2.3171 -3.1623 -0.3699
31746SOL     OW 2095   6.313   0.837   4.309 -0.3689  0.2783  0.5555
31746SOL    HW1 2096   6.347   0.781   4.239 -3.5197 -0.4453 -0.5736
31746SOL    HW2 2097   6.296   0.778   4.381 -0.9974  0.2537  0.3975
31747SOL     OW 2098   5.279   0.716   3.167  0.5296  0.2651  0.2995
31747SOL    HW1 2099   5.324   0.797   3.192  1.6339 -0.2891  0.1311
31747SOL    HW2 2100   5.325   0.685   3.090 -1.3798  0.6990 -1.1131
31748SOL     OW 2101   9.759   6.468   7.592 -0.1655  0.0348  0.1272
31748SOL    HW1 2102   9.693   6.411   7.552  2.4888 -2.7207 -0.7302
31748SOL    HW2 2103   9.815   6.408   7.642  1.7873  2.1771  0.6525
31749SOL     OW 2104   0.066   8.075   9.282  0.0261 -0.0625 -0.3089
31749SOL    HW1 2105   0.033   8.161   9.256 -2.4261 -1.0986 -0.8942
31749SOL    HW2 2106   0.046   8.069   9.376  1.3219  0.4409  0.0223
31750SOL     OW 2107  10.092  10.166  12.546  0.4274  0.1443  0.5866
31750SOL    HW1 2108  10.052  10.090  12.587 -1.1746 -0.9301 -2.6328
31750SOL    HW2 2109  10.182  10.139  12.528  0.2937 -0.4422  0.7779
31751SOL     OW 2110  12.230   1.632   0.377 -0.0769  0.2179 -0.3480
31751SOL    HW1 2111  12.325   1.629   0.381  0.0845  1.4545 -1.9786
31751SOL    HW2 2112  12.205   1.546   0.343  0.4649 -0.1092  0.0782
31752SOL     OW 2113   8.380   8.023   3.292  0.0374 -0.0955 -0.0250
31752SOL    HW1 2114   8.465   8.067   3.295  0.3965 -0.6522 -1.4864
31752SOL    HW2 2115   8.382   7.971   3.212 -1.4249 -0.6611  0.2700
31753SOL     OW 2116  10.246   1.176  12.231 -0.0913 -0.0041  0.5170
31753SOL    HW1 2117  10.197   1.164  12.312  1.6050 -1.3844  1.4065
31753SOL    HW2 2118  10.301   1.098  12.224  0.7377  0.6796 -1.3024
31754SOL     OW 2119   8.360   5.914   0.954 -0.4165  0.2389  0.6922
31754SOL    HW1 2120   8.390   5.828   0.984  1.2332  0.4961 -0.1514
31754SOL    HW2 2121   8.284   5.933   1.010 -1.4011 -2.1564  0.3190
31755SOL     OW 2122   0.280   3.186   9.534 -0.4973 -0.3024  0.8601
31755SOL    HW1 2123   0.251   3.262   9.484 -0.1579  0.4541  1.8032
31755SOL    HW2 2124   0.360   3.215   9.578  2.3001 -2.4918 -2.2340
31756SOL     OW 2125   9.567  12.452  11.627  0.1583 -0.4759 -0.2374
31756SOL    HW1 2126   9.522  12.420  11.549  0.5681 -1.4634 -0.0887
31756SOL    HW2 2127   9.500  12.500  11.675 -0.5457 -1.2831 -0.3820
31757SOL     OW 2128   2.442   7.465  10.349 -0.9504  0.3140 -0.6667
31757SOL    HW1 2129   2.501   7.508  10.286 -0.6915 -0.2102 -0.7853
31757SOL    HW2 2130   2.490   7.386  10.376  0.6346  2.2541  2.9309
31758SOL     OW 2131  12.397  10.675   0.443  0.5105 -0.4484 -0.0127
31758SOL    HW1 2132  12.370  10.737   0.511  1.8520 -0.8150  0.8960
31758SOL    HW2 2133  12.318  10.624   0.424  0.0099 -0.0712  0.9957
31759SOL     OW 2134   5.616   5.472   3.180  0.0714 -0.1673  0.1231
31759SOL    HW1 2135   5.537   5.517   3.212 -0.3001 -0.1848 -0.7204
31759SOL    HW2 2136   5.688   5.532   3.201 -0.1555 -0.1630  0.9302
31760SOL     OW 2137   0.349   2.293   2.233 -0.3327  0.7559 -0.6448
31760SOL    HW1 2138   0.274   2.350   2.247  0.0288  1.7340 -2.4685
31760SOL    HW2 2139   0.371   2.303   2.140  0.5995 -1.3079 -0.7095
31761SOL     OW 2140  10.479   7.762  10.116  0.1724  0.2958 -0.1223
31761SOL    HW1 2141  10.417   7.692  10.138  1.3483 -0.6074  0.4527
31761SOL    HW2 2142  10.524   7.729  10.037 -0.0609  0.9381 -0.5300
31762SOL     OW 2143   6.663   8.091   8.674  0.1235 -0.0335  0.1054
31762SOL    HW1 2144   6.722   8.055   8.740  1.2223  0.4720 -0.5782
31762SOL    HW2 2145   6.710   8.165   8.637 -1.7716  1.6633  0.9070
31763SOL     OW 2146   0.317   2.490   1.200 -0.4408 -0.7573  0.3855
31763SOL    HW1 2147   0.382   2.446   1.145  0.8392  0.7308  0.6200
31763SOL    HW2 2148   0.353   2.484   1.288 -0.1022  0.9079  0.3967
31764SOL     OW 2149   6.190   9.570   2.531  0.0450 -0.6105  0.2084
31764SOL    HW1 2150   6.113   9.555   2.586  0.0353  0.4145  0.4832
31764SOL    HW2 2151   6.263   9.542   2.586  0.0471  0.5477  0.8228
31765SOL     OW 2152   5.643   0.651   2.382  0.1236 -0.6445 -0.3689
31765SOL    HW1 2153   5.561   0.617   2.416  0.1563 -0.4179 -0.0604
31765SOL    HW2 2154   5.703   0.576   2.382 -0.4867 -1.1637 -1.9445
31766SOL     OW 2155   4.989   0.915   9.841 -0.3919 -0.1425  0.3208
31766SOL    HW1 2156   4.896   0.909   9.866 -0.0165  0.1079  1.9310
31766SOL    HW2 2157   4.990   0.901   9.747 -2.1441  0.5664  0.1648
31767SOL     OW 2158   0.676   6.607   5.273  0.1576  0.4212  0.4326
31767SOL    HW1 2159   0.703   6.518   5.295 -0.2120  0.0361 -0.5904
31767SOL    HW2 2160   0.729   6.629   5.196  0.4396  1.1889  0.8457
31768SOL     OW 2161   6.094   2.160  10.143 -0.5587 -0.7455  0.4547
31768SOL    HW1 2162   6.098   2.180  10.236 -1.8861  0.3590  0.3104
31768SOL    HW2 2163   6.012   2.111  10.132 -0.6528 -0.4570 -0.1881
31769SOL     OW 2164   1.171  10.769  10.083  0.1138  0.2671  0.3158
31769SOL    HW1 2165   1.159  10.855  10.043  0.6209 -0.8461 -2.4671
31769SOL    HW2 2166   1.266  10.762  10.096  0.3292 -0.6156 -1.4481
31770SOL     OW 2167   6.204   0.308   6.178  0.0673 -0.2947  0.4803
31770SOL    HW1 2168   6.148   0.358   6.118  1.8350  3.1591  1.4087
31770SOL    HW2 2169   6.255   0.251   6.121 -1.0287 -0.0098 -0.8521
31771SOL     OW 2170  12.203   3.362   1.768 -0.2338 -0.3778  0.0422
31771SOL    HW1 2171  12.262   3.290   1.744  0.4824 -0.3862  1.6795
31771SOL    HW2 2172  12.259   3.424   1.814 -1.3314  0.0417  0.8522
31772SOL     OW 2173   1.957   2.638   8.111 -0.0923 -0.0549  0.5218
31772SOL    HW1 2174   1.905   2.558   8.102  2.1754 -1.7299  1.3714
31772SOL    HW2 2175   1.973   2.665   8.021 -0.3506 -0.9295  0.1977
31773SOL     OW 2176   2.795  10.264   8.014  0.0968 -0.4287 -0.1397
31773SOL    HW1 2177   2.789  10.171   8.039 -1.4106 -0.6449 -1.1963
31773SOL    HW2 2178   2.826  10.263   7.924 -0.0522  0.0972 -0.1982
31774SOL     OW 2179   7.749   8.604   4.815 -0.0202 -0.1008 -0.2564
31774SOL    HW1 2180   7.798   8.615   4.734  0.2014 -0.3287 -0.1562
31774SOL    HW2 2181   7.702   8.521   4.805  0.2790 -0.3039 -0.0190
31775SOL     OW 2182   3.870   0.364   4.497  0.2850 -0.2679 -0.3385
31775SOL    HW1 2183   3.904   0.323   4.576 -0.1300 -1.0249 -0.5436
31775SOL    HW2 2184   3.793   0.412   4.527  1.4396  1.3986  0.1143
31776SOL     OW 2185   9.390   1.434   7.629  0.3313 -0.6761 -0.2037
31776SOL    HW1 2186   9.323   1.429   7.560 -0.7313 -3.4021  0.8360
31776SOL    HW2 2187   9.471   1.455   7.583 -0.9623  1.5104 -1.6884
31777SOL     OW 2188   6.495   2.340   5.032  0.3286 -0.0528 -0.3669
31777SOL    HW1 2189   6.565   2.345   5.097  0.6152  0.6981 -0.7270
31777SOL    HW2 2190   6.419   2.377   5.076  0.2271 -0.5695 -0.0888
31778SOL     OW 2191   2.130   2.868   1.550 -0.6345  0.5906  0.4770
31778SOL    HW1 2192   2.051   2.827   1.516 -0.3082 -0.2788  0.7479
31778SOL    HW2 2193   2.105   2.959   1.568 -0.7784  1.1486 -2.1938
31779SOL     OW 2194   4.599  10.335  12.014  0.1884 -0.1244 -0.2664
31779SOL    HW1 2195   4.694  10.341  12.021  0.1177  2.0429 -0.7162
31779SOL    HW2 2196   4.583  10.300  11.926  0.5600 -0.3358 -0.2518
31780SOL     OW 2197  12.310   2.474   2.982 -0.4443 -0.2417  0.0991
31780SOL    HW1 2198  12.361   2.497   2.905 -0.0821  1.6714  0.8511
31780SOL    HW2 2199  12.351   2.523   3.053 -2.5642  0.4284  0.9415
31781SOL     OW 2200   3.649   3.472   9.036  0.8777  0.3705  0.1718
31781SOL    HW1 2201   3.701   3.424   8.971  1.8446 -1.1939  1.9925
31781SOL    HW2 2202   3.711   3.534   9.076  0.5857  0.5561  0.3425
31782SOL     OW 2203   1.676   6.018   5.546  0.2069  0.2259 -0.1961
31782SOL    HW1 2204   1.742   6.040   5.480  1.5602  0.4168  1.1478
31782SOL    HW2 2205   1.720   5.956   5.604 -0.6885  0.5942  0.9173
31783SOL     OW 2206   3.430  11.568   2.038 -0.0132 -0.0711  0.2591
31783SOL    HW1 2207   3.467  11.568   1.950  0.5775  0.6528  0.4911
31783SOL    HW2 2208   3.505  11.545   2.094 -0.8842 -2.9198  0.4111
31784SOL     OW 2209   0.704   1.103  10.719 -0.0095  0.1164  0.2874
31784SOL    HW1 2210   0.673   1.071  10.804 -1.9374 -0.9591 -0.7656
31784SOL    HW2 2211   0.792   1.137  10.738 -0.1033 -0.6951  2.5713
31785SOL     OW 2212   6.581   4.203  12.185 -0.3325  0.5021 -0.6481
31785SOL    HW1 2213   6.609   4.119  12.150 -1.8566  0.1442 -1.0658
31785SOL    HW2 2214   6.488   4.208  12.166 -0.9872  0.9028  2.1322
31786SOL     OW 2215   9.196   7.541   5.180 -0.3729 -0.2455  0.8990
31786SOL    HW1 2216   9.120   7.489   5.153 -1.3135  1.5268 -0.0578
31786SOL    HW2 2217   9.244   7.484   5.239 -0.7171 -2.6324 -0.9817
31787SOL     OW 2218  10.033   8.079   4.449 -0.9960 -0.0719  0.0220
31787SOL    HW1 2219  10.046   8.100   4.542  0.7266  0.1818 -0.2309
31787SOL    HW2 2220   9.944   8.046   4.444 -0.8344 -0.9446  1.9293
31788SOL     OW 2221  12.366   5.105   1.323 -0.4353  0.0925 -0.1796
31788SOL    HW1 2222  12.448   5.132   1.364 -1.4849  1.1172  1.3164
31788SOL    HW2 2223  12.360   5.011   1.340  1.0024 -0.2773 -1.4249
31789SOL     OW 2224   0.598   5.530   4.864 -0.1767 -0.1857  0.3151
31789SOL    HW1 2225   0.512   5.493   4.845  0.0881 -0.0143 -1.4099
31789SOL    HW2 2226   0.659   5.456   4.856 -0.1887 -0.4677  2.2476
31790SOL     OW 2227   4.881   9.743   2.132 -0.6365 -0.7016  0.1038
31790SOL    HW1 2228   4.836   9.702   2.206 -0.3708  0.7647  1.1214
31790SOL    HW2 2229   4.974   9.730   2.150 -0.5395  0.4329  0.5342
31791SOL     OW 2230  11.377   6.819   9.762  0.5388  0.1361  0.2778
31791SOL    HW1 2231  11.348   6.859   9.680 -0.6022 -1.7149 -0.2749
31791SOL    HW2 2232  11.341   6.875   9.831 -0.0958  0.6469 -0.4557
31792SOL     OW 2233  12.485   3.340   4.804 -0.1421  0.1715  0.3492
31792SOL    HW1 2234  12.467   3.434   4.803 -3.2180 -0.3167 -0.3754
31792SOL    HW2 2235  12.524   3.322   4.719 -1.2291  0.5677 -0.2570
31793SOL     OW 2236   2.829   7.154   3.405  0.5604 -0.3330  0.3014
31793SOL    HW1 2237   2.873   7.132   3.487  1.0261  2.5839  0.9161
31793SOL    HW2 2238   2.870   7.097   3.340  2.1368 -0.7823  1.6198
31794SOL     OW 2239   0.245   2.576   9.106  0.1959  0.4684 -0.1357
31794SOL    HW1 2240   0.255   2.489   9.067  0.3571  0.3863  0.0882
31794SOL    HW2 2241   0.164   2.570   9.157 -0.6795  0.9359 -1.4134
31795SOL     OW 2242   3.719   9.633   8.364 -0.2179  0.1139 -0.8408
31795SOL    HW1 2243   3.699   9.645   8.271 -2.9248  1.2883 -0.2168
31795SOL    HW2 2244   3.748   9.719   8.394  1.0012 -0.3482 -0.6424
31796SOL     OW 2245  11.962  11.626   2.639 -0.5649 -0.1958  0.2790
31796SOL    HW1 2246  12.004  11.571   2.706  0.4817 -0.4223 -0.5396
31796SOL    HW2 2247  12.022  11.623   2.565 -1.8328 -0.1464 -0.7743
31797SOL     OW 2248  12.204   4.569   6.094  0.1411 -0.5357 -0.4030
31797SOL    HW1 2249  12.166   4.615   6.169  1.2595 -0.7857  0.3552
31797SOL    HW2 2250  12.143   4.584   6.022 -0.7408  0.0763  0.4543
31798SOL     OW 2251   3.402   3.021   0.303  0.3585  0.4333  0.2557
31798SOL    HW1 2252   3.491   3.036   0.272  0.8251 -3.5263 -0.8464
31798SOL    HW2 2253   3.353   2.995   0.225 -1.1214  0.1032  1.2490
31799SOL     OW 2254   1.766   9.434   2.248 -0.4591 -0.2470  0.4161
31799SOL    HW1 2255   1.743   9.342   2.234 -0.5044 -0.1155 -0.4481
31799SOL    HW2 2256   1.798   9.464   2.163 -1.5490  0.8621  0.3610
31800SOL     OW 2257   0.763   5.181   6.955 -0.4759  0.4536  0.9437
31800SOL    HW1 2258   0.751   5.120   7.028 -1.1608  0.4746  0.8549
31800SOL    HW2 2259   0.857   5.180   6.938 -0.6453 -2.2166 -0.4420
31801SOL     OW 2260   7.878   4.337   1.375  0.0410  0.0852 -0.3289
31801SOL    HW1 2261   7.850   4.335   1.466 -3.6857  1.4376 -1.2316
31801SOL    HW2 2262   7.854   4.425   1.345  2.0027 -0.0082 -2.3968
31802SOL     OW 2263  11.398   7.146  11.107  0.0083  0.3174  0.3180
31802SOL    HW1 2264  11.308   7.152  11.077 -0.3495 -0.3366  1.2272
31802SOL    HW2 2265  11.418   7.234  11.139  0.1610  0.8298 -1.1073
31803SOL     OW 2266   8.818   3.289   9.330  0.3619 -0.3460 -0.5407
31803SOL    HW1 2267   8.770   3.340   9.265 -0.2665  0.0657  0.2242
31803SOL    HW2 2268   8.897   3.340   9.347 -0.8013  1.0327  1.0739
31804SOL     OW 2269   0.964   3.903  12.488 -0.0300 -0.2709  0.2671
31804SOL    HW1 2270   0.986   3.819  12.447 -0.8422  0.3110 -1.4594
31804SOL    HW2 2271   0.880   3.888  12.531  0.1345 -0.4987  0.5140
31805SOL     OW 2272   8.505   7.410   0.518  0.2568 -0.3362  0.0755
31805SOL    HW1 2273   8.515   7.347   0.447  1.0819  1.3309 -1.3422
31805SOL    HW2 2274   8.514   7.496   0.477 -0.8112  0.7543  1.9440
31806SOL     OW 2275   3.365   9.257   2.504  0.2879  0.1938  0.6874
31806SOL    HW1 2276   3.286   9.206   2.491  1.3521 -0.9504 -2.0441
31806SOL    HW2 2277   3.436   9.193   2.502  1.4762  1.4739 -0.1132
31807SOL     OW 2278   2.355   5.160   2.736 -0.5140 -0.1938  0.2168
31807SOL    HW1 2279   2.421   5.187   2.800 -0.3604  0.0102 -0.0251
31807SOL    HW2 2280   2.276   5.208   2.761 -0.1851  0.6852 -0.3453
31808SOL     OW 2281   3.461  12.048   8.217  0.4743 -0.0563  0.5941
31808SOL    HW1 2282   3.471  11.977   8.153 -2.3240  0.1204 -0.1634
31808SOL    HW2 2283   3.482  12.127   8.168  1.3346 -0.1625  0.7834
31809SOL     OW 2284   1.644  10.167   9.992  0.1641  0.0658 -0.1916
31809SOL    HW1 2285   1.581  10.206   9.931  0.3763  0.5171 -0.1223
31809SOL    HW2 2286   1.670  10.085   9.951  0.4391  0.4509 -0.7928
31810SOL     OW 2287  11.820   0.468   3.305 -0.4189  0.1123 -0.2182
31810SOL    HW1 2288  11.743   0.514   3.272  1.3452  1.8806 -2.1169
31810SOL    HW2 2289  11.822   0.386   3.255  0.0190  0.9817 -1.6727
31811SOL     OW 2290   8.892   8.072   9.882  0.2724  0.1074  0.3418
31811SOL    HW1 2291   8.886   8.000   9.819 -0.9639 -0.3260  0.9275
31811SOL    HW2 2292   8.862   8.034   9.965  1.6003  0.7372  1.1526
31812SOL     OW 2293  11.665   4.359   9.844 -0.2521  0.5641  0.3852
31812SOL    HW1 2294  11.570   4.360   9.855 -0.4066  0.5269 -0.7765
31812SOL    HW2 2295  11.679   4.397   9.757  0.6963 -0.8048 -0.0974
31813SOL     OW 2296   8.035   5.237   9.350  0.1936  0.0800  0.9807
31813SOL    HW1 2297   8.030   5.244   9.255  1.0813  1.1065  0.9934
31813SOL    HW2 2298   7.951   5.200   9.376 -0.3387  0.4791 -0.1352
31814SOL     OW 2299   0.139   4.919   5.099  0.3582 -0.5748 -0.0167
31814SOL    HW1 2300   0.226   4.878   5.108  0.6099 -0.1702 -0.5752
31814SOL    HW2 2301   0.095   4.866   5.033 -0.7556 -2.3065  1.9667
31815SOL     OW 2302   5.786   4.375   1.182  0.1482 -0.0602  0.1811
31815SOL    HW1 2303   5.870   4.383   1.135 -0.2641  0.1905 -0.5261
31815SOL    HW2 2304   5.726   4.431   1.134 -0.0628  0.9893  1.6027
31816SOL     OW 2305   1.766   8.830   0.299  0.0735  0.3949  0.5052
31816SOL    HW1 2306   1.812   8.886   0.237  0.8947  0.1543  0.8708
31816SOL    HW2 2307   1.827   8.758   0.315 -0.3400  0.1826  1.1825
31817SOL     OW 2308   3.056   6.674   9.828  0.1926  0.1323 -0.4453
31817SOL    HW1 2309   3.057   6.744   9.893 -1.9985 -0.3681  0.1894
31817SOL    HW2 2310   3.147   6.643   9.825  0.4963  0.6140  1.8821
31818SOL     OW 2311   9.972   7.724   1.551 -0.4249 -0.0986 -0.8659
31818SOL    HW1 2312   9.981   7.717   1.646 -2.0210 -2.6641 -0.7890
31818SOL    HW2 2313  10.002   7.812   1.530 -0.5266  0.7440  2.0758
31819SOL     OW 2314  11.270   5.578   4.293  0.3214  0.6107  0.1613
31819SOL    HW1 2315  11.361   5.609   4.293 -0.1546  2.0802 -0.7824
31819SOL    HW2 2316  11.264   5.525   4.213  0.2438  0.8355  0.0180
31820SOL     OW 2317   1.469  11.045   0.721  0.0653 -0.0221  0.0306
31820SOL    HW1 2318   1.421  10.962   0.722 -0.7085  0.2485 -2.8066
31820SOL    HW2 2319   1.561  11.020   0.732 -0.0117 -1.4742 -1.9792
31821SOL     OW 2320   7.521   6.654   6.606  0.3324  0.3932 -0.3390
31821SOL    HW1 2321   7.604   6.608   6.617  0.0687  0.0573  0.2818
31821SOL    HW2 2322   7.470   6.599   6.547  0.6333  0.7107 -0.8975
31822SOL     OW 2323   0.620   8.028   3.311  0.3084 -0.1868 -0.1558
31822SOL    HW1 2324   0.559   8.066   3.247 -0.9607 -0.1863  1.0022
31822SOL    HW2 2325   0.652   7.948   3.270 -0.0697  0.0944 -1.0071
31823SOL     OW 2326  11.317   4.667   5.002  0.1322 -0.2149  0.2394
31823SOL    HW1 2327  11.368   4.648   4.924  0.0446  0.3360  0.0441
31823SOL    HW2 2328  11.258   4.737   4.976  1.5226  1.4658  1.3666
31824SOL     OW 2329   7.833   4.374   7.759  0.3358 -0.0611 -0.3673
31824SOL    HW1 2330   7.910   4.395   7.705  0.8348  0.2857  0.4683
31824SOL    HW2 2331   7.808   4.286   7.732  0.3216  0.2617 -1.4648
31825SOL     OW 2332   2.752  11.118   5.647 -0.2977  0.2010 -0.6736
31825SOL    HW1 2333   2.819  11.168   5.599  0.0376  1.3781  0.9409
31825SOL    HW2 2334   2.713  11.182   5.706 -0.2498 -1.3235  1.0784
31826SOL     OW 2335   6.588  10.195   1.272  0.5526  0.6969  0.0082
31826SOL    HW1 2336   6.617  10.286   1.277  1.6038  0.3949 -0.4317
31826SOL    HW2 2337   6.544  10.180   1.356 -0.4985  1.8818 -0.2929
31827SOL     OW 2338   7.468  10.409   5.875  0.9187 -0.1937 -0.4271
31827SOL    HW1 2339   7.441  10.494   5.908 -0.1776  0.1855 -2.1934
31827SOL    HW2 2340   7.399  10.349   5.902 -0.9320  0.4326 -3.3071
31828SOL     OW 2341   1.795   7.924   0.012  0.4199 -0.0025 -0.3661
31828SOL    HW1 2342   1.742   7.879  -0.054 -1.3640  1.1790  0.1584
31828SOL    HW2 2343   1.885   7.905  -0.012 -0.2238 -2.0724 -1.3629
31829SOL     OW 2344   5.533   2.466   4.368 -0.2943 -0.6292 -0.1684
31829SOL    HW1 2345   5.595   2.533   4.399  0.5165 -1.1544 -0.5988
31829SOL    HW2 2346   5.466   2.462   4.435 -0.4915  0.7810 -0.2360
31830SOL     OW 2347   9.975   4.160   1.011 -0.3008 -0.1556 -0.2432
31830SOL    HW1 2348  10.059   4.186   1.050 -0.4212  0.3539 -0.3174
31830SOL    HW2 2349   9.987   4.176   0.918 -0.6367  0.3691 -0.2012
31831SOL     OW 2350   4.475   3.616   4.388 -0.3449 -0.4651  0.0412
31831SOL    HW1 2351   4.525   3.585   4.313 -2.4751 -0.9925 -1.2371
31831SOL    HW2 2352   4.522   3.582   4.464  1.7377 -0.1014 -1.0388
31832SOL     OW 2353   7.166   2.971  11.349  0.4019  0.1305 -0.8168
31832SOL    HW1 2354   7.176   2.969  11.445 -0.4135  0.6152 -0.7141
31832SOL    HW2 2355   7.185   3.062  11.326 -0.6516  0.3307 -0.9584
31833SOL     OW 2356   8.692   9.037  12.454 -0.2408  0.0504 -0.3631
31833SOL    HW1 2357   8.784   9.043  12.479 -0.5075  0.4865  0.5798
31833SOL    HW2 2358   8.654   8.977  12.518 -0.5908 -0.2141 -0.8158
31834SOL     OW 2359   4.467   1.148   8.648  0.1623  0.2281 -0.1769
31834SOL    HW1 2360   4.550   1.104   8.630  0.3810 -0.3875  1.9820
31834SOL    HW2 2361   4.400   1.088   8.616  0.5214  0.0621 -0.6246
31835SOL     OW 2362   0.570   2.188  10.483 -0.0450  0.1731  0.2181
31835SOL    HW1 2363   0.650   2.171  10.533  0.2570  0.7580 -0.0527
31835SOL    HW2 2364   0.590   2.267  10.432 -1.6149  1.8254  1.9786
31836SOL     OW 2365   7.623  11.021   1.499 -0.5967  0.0693  0.0010
31836SOL    HW1 2366   7.627  11.070   1.581  1.5695  0.5745 -0.3536
31836SOL    HW2 2367   7.714  11.009   1.473 -1.1935 -0.9138 -1.8609
31837SOL     OW 2368   5.216   0.309   4.490 -0.1846  0.4766 -0.0361
31837SOL    HW1 2369   5.178   0.296   4.404  2.2067  1.1721 -1.2854
31837SOL    HW2 2370   5.188   0.234   4.541  0.2569 -1.2090 -2.1448
31838SOL     OW 2371  10.484   6.013  11.642  0.3743 -0.2725 -0.4961
31838SOL    HW1 2372  10.509   5.921  11.634  0.6276 -0.2358 -0.1653
31838SOL    HW2 2373  10.397   6.017  11.603 -0.3202 -0.9821  0.8658
31839SOL     OW 2374   1.399   3.589   1.337  0.3737  0.4723  0.1432
31839SOL    HW1 2375   1.390   3.594   1.242 -1.1209  1.0681  0.2936
31839SOL    HW2 2376   1.312   3.606   1.370  1.1718  1.8427  1.6747
31840SOL     OW 2377  12.322   7.798   4.738 -0.1989 -0.4396 -0.0711
31840SOL    HW1 2378  12.263   7.858   4.693  0.2051  1.3949  1.7407
31840SOL    HW2 2379  12.358   7.848   4.811  3.1285 -1.6436 -0.6690
31841SOL     OW 2380   3.023  10.302  11.796  0.4022  0.7257  0.2466
31841SOL    HW1 2381   2.989  10.272  11.880  0.4028  2.2106  0.8069
31841SOL    HW2 2382   3.011  10.227  11.737 -1.8146  0.4493  0.9581
31842SOL     OW 2383  12.564   0.617   4.454  0.3142  0.0549 -0.0840
31842SOL    HW1 2384  12.589   0.588   4.541  0.5307  0.5768  0.0355
31842SOL    HW2 2385  12.623   0.570   4.395  0.2246 -0.2349  0.0583
31843SOL     OW 2386   4.339  10.972   5.117 -0.7855 -0.7118  0.3939
31843SOL    HW1 2387   4.351  10.908   5.187  1.3886 -0.9540 -0.1277
31843SOL    HW2 2388   4.356  11.057   5.158  1.1658 -0.9047  0.0837
31844SOL     OW 2389   5.258   5.786   2.382  0.1498 -0.3057  0.1166
31844SOL    HW1 2390   5.344   5.745   2.371  0.6659  0.8196 -0.1721
31844SOL    HW2 2391   5.251   5.847   2.308 -0.4183  0.4122  0.7532
31845SOL     OW 2392   9.074   3.184  10.405  0.4618 -0.4885  1.0724
31845SOL    HW1 2393   9.132   3.160  10.478 -0.0115  0.2247  1.7069
31845SOL    HW2 2394   9.008   3.115  10.404  0.0928 -0.1569  1.7605
31846SOL     OW 2395   1.788   1.201  10.471 -0.3027 -0.5702  0.8765
31846SOL    HW1 2396   1.855   1.146  10.511  1.1351 -1.1921 -2.1089
31846SOL    HW2 2397   1.833   1.280  10.444 -1.0078 -0.4484 -0.0321
31847SOL     OW 2398   8.225   1.907   1.515  0.3280 -0.1382 -0.8771
31847SOL    HW1 2399   8.218   1.927   1.608 -2.7428  0.8720 -1.2009
31847SOL    HW2 2400   8.247   1.991   1.474  2.9682 -0.8349 -1.0317
31848SOL     OW 2401   1.397   0.801  11.491  0.3509 -0.3421  0.4670
31848SOL    HW1 2402   1.432   0.843  11.412 -0.3518 -1.1441 -0.2880
31848SOL    HW2 2403   1.303   0.795  11.476  0.2091 -0.4924  1.3727
31849SOL     OW 2404  12.157   2.416  11.503 -0.3751 -0.0039  0.8962
31849SOL    HW1 2405  12.167   2.500  11.458  1.0240 -1.4669 -1.7494
31849SOL    HW2 2406  12.221   2.359  11.461 -2.6317 -2.9491  1.2065
31850SOL     OW 2407  12.560   0.752   2.721  0.1576  0.1820 -0.3324
31850SOL    HW1 2408  12.580   0.688   2.652 -1.1925  0.3409 -0.9167
31850SOL    HW2 2409  12.587   0.709   2.802  2.1596  0.1551 -0.9780
31851SOL     OW 2410   5.286  11.228   7.315  0.1047 -0.0292  0.3978
31851SOL    HW1 2411   5.339  11.252   7.239 -0.1527  0.1241  0.2661
31851SOL    HW2 2412   5.350  11.202   7.381  0.3044 -0.6458 -0.0367
31852SOL     OW 2413   4.235  11.110   6.452 -0.2617 -0.0851 -0.7120
31852SOL    HW1 2414   4.171  11.045   6.483 -0.5553  1.2718  1.7534
31852SOL    HW2 2415   4.204  11.133   6.364 -0.0896 -3.2698 -1.7509
31853SOL     OW 2416   3.191   3.276  11.483  0.0703 -0.1656  0.7108
31853SOL    HW1 2417   3.264   3.330  11.514 -1.0104  2.0943 -0.3746
31853SOL    HW2 2418   3.113   3.326  11.507 -0.9945 -1.0645 -0.7133
31854SOL     OW 2419   3.456  11.015   4.243 -0.0248  0.5488 -0.0057
31854SOL    HW1 2420   3.462  11.004   4.148  2.6223  0.0147  0.1364
31854SOL    HW2 2421   3.461  10.926   4.277 -2.0741  0.6453  0.6564
31855SOL     OW 2422   6.194   2.273   5.626 -0.0760 -0.4565 -0.6175
31855SOL    HW1 2423   6.246   2.337   5.577  1.6936 -0.4266  1.1483
31855SOL    HW2 2424   6.257   2.234   5.687 -1.8993 -1.3384  0.7785
31856SOL     OW 2425   1.708   1.129   0.190 -0.3694 -0.1015  0.1357
31856SOL    HW1 2426   1.672   1.061   0.249  0.4278 -0.8314 -0.1925
31856SOL    HW2 2427   1.784   1.162   0.237 -0.5709  0.3461  0.1477
31857SOL     OW 2428  11.592   7.277   4.963 -0.4364 -0.1016 -0.5309
31857SOL    HW1 2429  11.598   7.202   5.022  0.6403  0.5669  0.2379
31857SOL    HW2 2430  11.677   7.278   4.918 -0.8921 -0.0411 -1.4139
31858SOL     OW 2431   9.908   5.152   5.575 -0.0521 -0.5478 -0.0599
31858SOL    HW1 2432   9.906   5.125   5.667  2.1647 -0.7469 -0.0188
31858SOL    HW2 2433   9.998   5.180   5.560 -0.1765 -1.1494 -2.3371
31859SOL     OW 2434   6.116   0.587   4.966  0.0022 -0.5348  0.2405
31859SOL    HW1 2435   6.175   0.654   5.001 -0.3250 -0.8731  1.4758
31859SOL    HW2 2436   6.097   0.530   5.040 -0.9276 -1.1297 -0.4289
31860SOL     OW 2437   1.799   2.886  12.484  0.3426 -0.1245  0.4306
31860SOL    HW1 2438   1.844   2.819  12.536  0.2486 -0.1614  0.4642
31860SOL    HW2 2439   1.866   2.917  12.424  0.2278 -0.6862 -0.0025
31861SOL     OW 2440  10.554  11.795  11.582 -0.3442 -0.9853 -0.5624
31861SOL    HW1 2441  10.541  11.886  11.611  0.5707 -0.6247 -1.2264
31861SOL    HW2 2442  10.535  11.798  11.488  0.5395 -1.2924 -0.7517
31862SOL     OW 2443   8.569   1.328   6.562 -0.2138  0.2024  0.0521
31862SOL    HW1 2444   8.642   1.266   6.573 -1.8746 -1.7417  0.8487
31862SOL    HW2 2445   8.527   1.299   6.480 -1.8622 -0.7525  1.1733
31863SOL     OW 2446  11.269   6.045   2.947 -0.2818  0.0968 -0.4465
31863SOL    HW1 2447  11.175   6.061   2.956 -0.2173  0.1997  0.0857
31863SOL    HW2 2448  11.295   6.009   3.032  0.6013  2.2827  0.3026
31864SOL     OW 2449  10.240   7.992  10.683  0.1191  0.3809 -0.4737
31864SOL    HW1 2450  10.252   7.914  10.629 -0.9157  0.4662 -0.8503
31864SOL    HW2 2451  10.284   8.062  10.634  0.8675  0.0900 -0.2370
31865SOL     OW 2452   9.202   9.594   0.877 -0.1772 -0.1953 -0.1706
31865SOL    HW1 2453   9.195   9.654   0.802  0.9549  0.4194  0.1899
31865SOL    HW2 2454   9.112   9.586   0.909 -0.4396  0.8656 -0.5859
31866SOL     OW 2455   2.911  10.869   4.369  0.7153  0.0393  0.1192
31866SOL    HW1 2456   2.917  10.876   4.464 -0.7413 -1.5978  0.3852
31866SOL    HW2 2457   2.914  10.775   4.351 -1.5304  0.1438 -1.2095
31867SOL     OW 2458   0.475   9.106   3.389 -0.4280  0.5600  0.0394
31867SOL    HW1 2459   0.502   9.057   3.311  0.5079  0.5795  0.3400
31867SOL    HW2 2460   0.408   9.051   3.429 -0.1663  0.0413 -0.2129
31868SOL     OW 2461   0.387   1.436   6.446 -0.2124  0.6485 -0.5586
31868SOL    HW1 2462   0.356   1.383   6.373 -1.0886  0.6526 -0.2065
31868SOL    HW2 2463   0.332   1.514   6.444 -0.1988  0.6790  0.0600
31869SOL     OW 2464   6.169   1.917  10.867 -0.0208  0.0916 -0.0436
31869SOL    HW1 2465   6.153   1.853  10.797  1.0434  0.9728 -1.1251
31869SOL    HW2 2466   6.215   1.867  10.935  0.4824 -0.3760 -0.7186
31870SOL     OW 2467  10.239   8.893   2.136 -0.3418  0.1019  0.6296
31870SOL    HW1 2468  10.234   8.811   2.186  1.8675 -0.8691 -0.5865
31870SOL    HW2 2469  10.148   8.922   2.129 -1.2056 -2.2108  1.1962
31871SOL     OW 2470   4.643   5.271  10.827 -0.4403  0.3776  0.2036
31871SOL    HW1 2471   4.637   5.350  10.773  4.8294  0.6901 -0.3817
31871SOL    HW2 2472   4.659   5.200  10.765 -0.7929 -0.4400  1.0153
31872SOL     OW 2473   4.915   3.779  10.818 -0.0661  0.3569 -0.1622
31872SOL    HW1 2474   4.837   3.746  10.863 -1.5081  0.2679 -2.5216
31872SOL    HW2 2475   4.947   3.849  10.873 -1.4582 -0.0199  1.1973
31873SOL     OW 2476   2.791   8.156   2.314 -0.2567  0.0737 -0.4964
31873SOL    HW1 2477   2.819   8.072   2.350  0.1704 -0.2393 -1.5109
31873SOL    HW2 2478   2.835   8.221   2.369  0.2504 -0.3861 -0.3452
31874SOL     OW 2479   3.196  11.986   3.123 -0.0111 -0.2409 -0.1205
31874SOL    HW1 2480   3.255  11.969   3.197  1.5365  1.1581 -0.9727
31874SOL    HW2 2481   3.132  12.049   3.157  1.2722  1.1519 -0.1872
31875SOL     OW 2482   1.365   8.254   9.201 -0.6059  0.3984  0.3824
31875SOL    HW1 2483   1.399   8.165   9.212 -0.8810  0.3844  1.2400
31875SOL    HW2 2484   1.441   8.306   9.176 -0.1453  0.1678  1.2436
31876SOL     OW 2485   4.020   7.499  11.397  0.2643 -0.3807  0.3663
31876SOL    HW1 2486   4.063   7.417  11.423  0.6169 -0.0345  0.8764
31876SOL    HW2 2487   3.943   7.504  11.454 -0.7177 -1.2150 -0.8317
31877SOL     OW 2488   6.222   9.944   8.015  0.4134  0.2196  0.1222
31877SOL    HW1 2489   6.300   9.949   8.070 -0.8878  1.0798  1.9947
31877SOL    HW2 2490   6.231   9.862   7.967  1.7319 -0.4683  1.4776
31878SOL     OW 2491   7.506   9.496   0.581 -0.1278  0.0055  0.1999
31878SOL    HW1 2492   7.496   9.433   0.510  0.2213 -0.2447  0.3683
31878SOL    HW2 2493   7.419   9.534   0.592 -0.6324 -1.2454  0.8188
31879SOL     OW 2494   9.795  10.892   1.880  0.1795  0.2622  0.3779
31879SOL    HW1 2495   9.707  10.883   1.916 -0.7375  1.4469 -1.3895
31879SOL    HW2 2496   9.834  10.964   1.929 -0.7313  1.2841 -0.3372
31880SOL     OW 2497   7.594  11.276   4.201 -0.1290  0.3720  0.0397
31880SOL    HW1 2498   7.620  11.213   4.133 -2.3371  1.2533 -1.7665
31880SOL    HW2 2499   7.616  11.362   4.163  0.1488  0.8256  1.1923
31881SOL     OW 2500   1.904   4.808   5.410  0.4139 -0.0950  0.3280
31881SOL    HW1 2501   1.938   4.720   5.427  0.0937 -0.3700 -0.3899
31881SOL    HW2 2502   1.822   4.812   5.459 -0.7439 -1.0490 -1.4226
31882SOL     OW 2503  11.316   6.014  12.477 -0.2323 -0.3127 -0.3266
31882SOL    HW1 2504  11.287   5.991  12.565  0.2801  0.5144  0.0666
31882SOL    HW2 2505  11.252   5.972  12.419 -0.2140 -1.3961  0.4077
31883SOL     OW 2506  11.793   6.016  10.100 -0.0964  0.1005 -0.6155
31883SOL    HW1 2507  11.750   6.003  10.016  1.2289  0.3715 -1.3571
31883SOL    HW2 2508  11.880   5.978  10.089  0.6219  1.4403  0.1418
31884SOL     OW 2509   5.683   9.105   0.906 -0.2315 -0.1649  0.2921
31884SOL    HW1 2510   5.695   9.035   0.842 -0.1429 -0.5687  0.7467
31884SOL    HW2 2511   5.606   9.153   0.874 -0.1247 -0.2930 -0.1741
31885SOL     OW 2512   9.607   2.943   7.442  0.1579 -0.2477  0.0964
31885SOL    HW1 2513   9.681   2.888   7.467  0.9157  0.5872 -0.2599
31885SOL    HW2 2514   9.570   2.972   7.525  2.8626  2.7728  0.4265
31886SOL     OW 2515   5.172  11.692   5.309 -0.1356  0.0166  0.3191
31886SOL    HW1 2516   5.211  11.774   5.337 -1.0279  0.7327 -0.4931
31886SOL    HW2 2517   5.100  11.717   5.252 -0.4163 -1.3308  0.0391
31887SOL     OW 2518   7.645   1.222   3.491  0.0125 -0.0002 -0.2096
31887SOL    HW1 2519   7.680   1.271   3.565 -1.8409 -1.1465  1.5167
31887SOL    HW2 2520   7.699   1.144   3.486  1.2812  0.8973 -1.2795
31888SOL     OW 2521   2.896   4.879   8.651 -0.2797  0.0978  0.5954
31888SOL    HW1 2522   2.930   4.795   8.684 -1.8439 -2.0735 -2.8013
31888SOL    HW2 2523   2.960   4.907   8.586  0.4546  1.9297  1.9940
31889SOL     OW 2524  11.952   6.346  11.715 -0.0521  0.2856  0.4393
31889SOL    HW1 2525  11.875   6.370  11.664  0.5309  0.5342 -0.3259
31889SOL    HW2 2526  11.998   6.428  11.730  0.5421  0.0160  0.1115
31890SOL     OW 2527   2.325   2.473  11.938  0.3145  0.1045  0.0642
31890SOL    HW1 2528   2.286   2.543  11.990  1.2306 -1.0393  2.4263
31890SOL    HW2 2529   2.342   2.403  12.001  1.2116 -1.5057 -1.8609
31891SOL     OW 2530   3.567   4.867   3.463 -0.1550  0.6995  0.3372
31891SOL    HW1 2531   3.574   4.897   3.553  0.0063 -0.0586  0.5865
31891SOL    HW2 2532   3.564   4.772   3.469 -2.8240  0.6540 -0.2766
31892SOL     OW 2533   7.439  11.112   3.016 -0.0009 -0.2301 -0.0704
31892SOL    HW1 2534   7.528  11.076   3.011  0.0585 -0.1400  0.3028
31892SOL    HW2 2535   7.387  11.057   2.958  0.6299  0.7126 -1.5871
31893SOL     OW 2536   8.577   2.623   8.576 -0.1322  0.6055  0.0171
31893SOL    HW1 2537   8.598   2.708   8.614 -0.9139  1.7233 -1.9452
31893SOL    HW2 2538   8.489   2.634   8.539 -0.7256 -1.4098  0.7004
31894SOL     OW 2539   1.867   8.404   4.369  0.1869 -0.2519  0.1214
31894SOL    HW1 2540   1.832   8.323   4.331 -1.2986  0.2385  0.3710
31894SOL    HW2 2541   1.802   8.471   4.347  0.7454  0.6272  1.0259
31895SOL     OW 2542  10.604   1.621   9.828  0.2743 -0.5619 -0.2426
31895SOL    HW1 2543  10.653   1.541   9.809  1.1541 -0.1130  0.0935
31895SOL    HW2 2544  10.576   1.611   9.919  0.8862 -0.2384 -0.0136
31896SOL     OW 2545   8.808   1.395   0.064  0.1111  0.7226 -0.4412
31896SOL    HW1 2546   8.716   1.399   0.038 -0.4100 -2.2818  0.5723
31896SOL    HW2 2547   8.814   1.450   0.142 -1.1279  0.0546  0.1560
31897SOL     OW 2548   8.752  12.385  10.418  0.7451  0.1105  0.1972
31897SOL    HW1 2549   8.753  12.392  10.323  0.2327  0.7255  0.2298
31897SOL    HW2 2550   8.727  12.472  10.448 -0.4140 -0.4219  0.8405
31898SOL     OW 2551   0.709   9.956   3.915  0.2330  0.3318 -0.5127
31898SOL    HW1 2552   0.746  10.041   3.939 -2.2932  1.6914 -1.0899
31898SOL    HW2 2553   0.784   9.905   3.886  2.1290  1.6519  1.6723
31899SOL     OW 2554   8.059   2.927   9.843 -0.0928  0.2080  0.2717
31899SOL    HW1 2555   8.047   2.846   9.794 -4.6131  1.1452 -0.5929
31899SOL    HW2 2556   8.099   2.988   9.781  1.7022 -0.7884  0.3934
31900SOL     OW 2557   8.032   9.050   3.635 -0.0312 -0.3388  0.0359
31900SOL    HW1 2558   7.997   9.128   3.592  0.2020 -0.2007  0.0919
31900SOL    HW2 2559   8.117   9.036   3.594  1.8338  1.8601  2.7809
31901SOL     OW 2560   3.053  12.031   2.106 -0.4851 -0.1687 -0.2125
31901SOL    HW1 2561   3.067  12.122   2.079 -0.9582 -0.0632 -0.1099
31901SOL    HW2 2562   3.128  12.011   2.162  0.2599 -0.2418 -1.2203
31902SOL     OW 2563   7.745  10.826   2.867  0.4111 -0.3712 -0.5704
31902SOL    HW1 2564   7.804  10.769   2.917  0.8652 -0.0368 -0.7143
31902SOL    HW2 2565   7.685  10.765   2.824  0.7086 -0.7294 -0.4916
31903SOL     OW 2566   7.893   0.907   0.908  0.1020 -0.0282  0.0458
31903SOL    HW1 2567   7.813   0.875   0.952  1.0437  0.2653  2.1035
31903SOL    HW2 2568   7.863   0.980   0.855 -1.1692 -0.6043 -0.0799
31904SOL     OW 2569   6.994   2.289   2.179  0.2511  0.1345  0.2295
31904SOL    HW1 2570   7.004   2.194   2.185  0.2614  0.2126  2.1751
31904SOL    HW2 2571   7.077   2.319   2.142  1.1649 -0.4712  1.6724
31905SOL     OW 2572   0.159   0.920  11.904 -0.5387  0.1470  0.3476
31905SOL    HW1 2573   0.082   0.966  11.938 -3.2156 -2.1716 -2.0458
31905SOL    HW2 2574   0.159   0.940  11.810  0.1354 -2.0208 -0.1615
31906SOL     OW 2575   8.536   7.111  11.872 -0.1513  0.1411  0.0598
31906SOL    HW1 2576   8.515   7.116  11.966  0.9894 -2.2264  0.5273
31906SOL    HW2 2577   8.451   7.117  11.828 -0.7185  1.1816  1.2386
31907SOL     OW 2578   8.979   9.404   5.859 -0.1995  0.4605  0.1871
31907SOL    HW1 2579   8.998   9.487   5.901  0.3626  0.0223  0.8199
31907SOL    HW2 2580   9.047   9.395   5.792  0.7938 -0.2580  1.2437
31908SOL     OW 2581   4.234   7.092   8.314  0.4979 -0.3389 -0.2128
31908SOL    HW1 2582   4.215   7.062   8.403  1.6101  0.1908  0.2146
31908SOL    HW2 2583   4.178   7.168   8.302 -0.6316 -1.1805 -0.4651
31909SOL     OW 2584   7.275   0.642   6.102  0.4505 -0.1586 -0.0465
31909SOL    HW1 2585   7.316   0.663   6.186  1.2315  0.5154 -0.5848
31909SOL    HW2 2586   7.295   0.549   6.088  0.7795 -0.1341  0.2475
31910SOL     OW 2587   7.805   2.627  10.283  0.0484 -0.1313  0.4044
31910SOL    HW1 2588   7.787   2.716  10.253  0.7102 -0.1670 -0.1247
31910SOL    HW2 2589   7.765   2.571  10.215  0.6725 -0.2249  0.1127
31911SOL     OW 2590   7.866   6.305   2.991 -0.3830 -0.3233 -0.0476
31911SOL    HW1 2591   7.957   6.314   3.020 -0.4351  0.4700 -0.1059
31911SOL    HW2 2592   7.860   6.215   2.960  0.4272 -0.3407 -0.1844
31912SOL     OW 2593   3.061   4.214   9.991  0.0645  0.1305 -0.0946
31912SOL    HW1 2594   3.047   4.168  10.074  1.3382 -0.4323 -0.1737
31912SOL    HW2 2595   2.981   4.266   9.979  0.1213  0.6992  1.7691
31913SOL     OW 2596   3.259   4.733  11.459 -0.3544  0.0657 -0.6873
31913SOL    HW1 2597   3.173   4.775  11.464 -0.0165  0.8405 -1.1309
31913SOL    HW2 2598   3.243   4.651  11.411 -0.8809  0.0983 -0.5757
31914SOL     OW 2599   4.250   3.985   1.931 -0.1611 -0.1299 -0.0216
31914SOL    HW1 2600   4.188   4.033   1.876  1.2399  0.7282 -0.9049
31914SOL    HW2 2601   4.231   4.014   2.020 -1.0883  0.0427 -0.2673
31915SOL     OW 2602   1.702   4.327   6.361  0.9755 -0.3422 -0.0408
31915SOL    HW1 2603   1.697   4.422   6.351 -0.3673 -0.3993 -0.1720
31915SOL    HW2 2604   1.763   4.313   6.433 -0.1875  0.7132  1.1940
31916SOL     OW 2605  12.502   4.088   3.001  0.0899  0.0455 -0.1752
31916SOL    HW1 2606  12.407   4.082   2.999 -0.1691  2.8766 -0.1457
31916SOL    HW2 2607  12.526   4.069   3.091 -0.5137  0.2217  0.0228
31917SOL     OW 2608   7.483  10.899   5.960  0.0090  0.0452 -0.2337
31917SOL    HW1 2609   7.574  10.884   5.985 -0.6345 -2.2788  1.0576
31917SOL    HW2 2610   7.454  10.969   6.019  0.6736  0.0626  0.0844
31918SOL     OW 2611   0.983   9.502   5.368  0.2130 -0.4612 -0.0828
31918SOL    HW1 2612   0.931   9.582   5.359 -0.1143 -0.8424 -2.0815
31918SOL    HW2 2613   0.934   9.448   5.429 -0.5639  0.0991 -0.1996
31919SOL     OW 2614  10.573  10.117   6.303  0.3618 -0.7543  0.0306
31919SOL    HW1 2615  10.580  10.079   6.215  0.1300 -1.9201  0.4997
31919SOL    HW2 2616  10.581  10.211   6.289 -0.0160 -0.8985 -1.2783
31920SOL     OW 2617   0.362   8.062   3.960  0.1829  0.1289  0.0598
31920SOL    HW1 2618   0.302   8.113   4.015  0.2447 -2.6566  3.0625
31920SOL    HW2 2619   0.449   8.088   3.988  0.2188 -0.9787  1.0658
31921SOL     OW 2620   6.416  10.578   1.329  0.5835  0.2696 -0.6714
31921SOL    HW1 2621   6.403  10.604   1.420  0.8646  0.1225 -0.5890
31921SOL    HW2 2622   6.510  10.567   1.320  0.7214  1.8089 -1.3997
31922SOL     OW 2623   4.270   7.827   3.447  0.2017 -0.1448 -0.5223
31922SOL    HW1 2624   4.243   7.914   3.419  0.2641 -0.2479 -0.9052
31922SOL    HW2 2625   4.267   7.831   3.542 -0.2640  0.1287 -0.5434
31923SOL     OW 2626   5.598   3.843   4.056 -0.1766 -0.5282  0.1934
31923SOL    HW1 2627   5.521   3.840   4.000  0.9948 -1.2606 -1.4856
31923SOL    HW2 2628   5.588   3.922   4.108 -1.9398 -0.5139 -0.1195
31924SOL     OW 2629   3.062  11.270   7.747 -0.2091 -0.5489 -0.2338
31924SOL    HW1 2630   3.051  11.175   7.740  0.2739 -0.6299  0.0879
31924SOL    HW2 2631   3.148  11.282   7.787 -0.2211  0.0276 -0.3663
31925SOL     OW 2632   0.671   2.536   7.603  0.0411  0.1284 -0.2135
31925SOL    HW1 2633   0.608   2.517   7.533 -2.5881  1.6623  1.5686
31925SOL    HW2 2634   0.722   2.610   7.569 -2.9863  2.6725  0.3133
31926SOL     OW 2635   6.665   9.600   8.770 -0.2940  0.1319  0.8519
31926SOL    HW1 2636   6.602   9.553   8.825  1.2696 -2.9803  0.1972
31926SOL    HW2 2637   6.744   9.606   8.824 -0.0465  0.8605  0.4210
31927SOL     OW 2638   8.387   1.516  11.252 -0.0428  0.0021 -0.2382
31927SOL    HW1 2639   8.426   1.493  11.337  1.1738 -2.7716 -1.4180
31927SOL    HW2 2640   8.310   1.458  11.245  0.8986 -1.1388 -1.7171
31928SOL     OW 2641   1.222  12.548   2.160 -0.2839  1.0752  0.0684
31928SOL    HW1 2642   1.153  12.482   2.147 -0.5156  1.3160  0.0625
31928SOL    HW2 2643   1.174  12.631   2.170  0.0620  1.4175 -1.0633
31929SOL     OW 2644  12.294   7.346  10.697  0.1369  0.2568  0.4839
31929SOL    HW1 2645  12.307   7.409  10.625  0.5065  0.8929  1.0979
31929SOL    HW2 2646  12.278   7.263  10.652  2.0046  0.3025 -0.3558
31930SOL     OW 2647   9.191  10.728   5.783  0.2409 -0.7029 -0.1677
31930SOL    HW1 2648   9.174  10.738   5.877 -1.7585 -0.9597 -0.4606
31930SOL    HW2 2649   9.112  10.762   5.741  1.7098  0.8328 -1.8445
31931SOL     OW 2650   0.080   6.648   9.722 -0.6909 -0.0001  0.0015
31931SOL    HW1 2651   0.009   6.604   9.769 -1.0494  0.7191  0.1452
31931SOL    HW2 2652   0.150   6.656   9.786 -1.1731  0.9637  0.4264
31932SOL     OW 2653  11.798   0.767  10.693  0.0452  0.0429  0.0737
31932SOL    HW1 2654  11.886   0.770  10.655 -0.1429  1.9579 -0.2970
31932SOL    HW2 2655  11.739   0.770  10.617 -0.3727 -1.1765  0.3234
31933SOL     OW 2656   8.687   5.156   4.500  0.1544  0.0982 -0.7005
31933SOL    HW1 2657   8.734   5.083   4.540  0.4651  1.2617  1.1633
31933SOL    HW2 2658   8.748   5.230   4.507 -1.3125  1.2640  0.3128
31934SOL     OW 2659   7.284   7.615   4.771 -0.4308  0.2643 -0.0962
31934SOL    HW1 2660   7.291   7.527   4.734 -0.7214  0.6359 -1.0507
31934SOL    HW2 2661   7.252   7.600   4.860 -2.1790 -0.5083 -0.8117
31935SOL     OW 2662  10.065   6.205  12.436 -0.3234  0.3708  0.3475
31935SOL    HW1 2663  10.093   6.266  12.369  1.2127 -0.0171  0.5993
31935SOL    HW2 2664  10.076   6.119  12.396 -1.5929  0.1982  0.3205
31936SOL     OW 2665  11.731   0.461   4.060 -1.0687 -0.1816  0.1101
31936SOL    HW1 2666  11.778   0.466   4.143 -2.1923 -0.5563  0.7842
31936SOL    HW2 2667  11.750   0.545   4.017 -0.9205  0.2503  0.9883
31937SOL     OW 2668  11.618   2.101  11.213 -0.6489  0.5638 -0.0093
31937SOL    HW1 2669  11.537   2.151  11.223 -0.6625  0.8241 -1.2214
31937SOL    HW2 2670  11.598   2.037  11.144  0.0297  0.3255  0.0077
31938SOL     OW 2671  11.746   4.806  10.386  0.0159 -0.2222 -0.2129
31938SOL    HW1 2672  11.813   4.739  10.396  0.6850  0.5419  0.5169
31938SOL    HW2 2673  11.736   4.844  10.473 -0.3326  0.6421 -0.6148
31939SOL     OW 2674   6.744  11.523   2.853  0.4099  0.1307 -0.3812
31939SOL    HW1 2675   6.834  11.551   2.835  0.6570  0.7858  1.6868
31939SOL    HW2 2676   6.752  11.459   2.923 -0.8405  1.7109  1.3030
31940SOL     OW 2677   7.875  10.945   1.434 -0.3768  0.0782  0.0916
31940SOL    HW1 2678   7.891  10.851   1.436 -3.4361 -0.5677 -0.0541
31940SOL    HW2 2679   7.854  10.964   1.343 -0.4287  0.7594  0.2403
31941SOL     OW 2680   9.340   4.468   4.011  0.4116  0.8113 -0.5262
31941SOL    HW1 2681   9.369   4.382   4.042 -0.3253  0.9652  0.6430
31941SOL    HW2 2682   9.421   4.519   4.003  0.7042  0.5402  0.4994
31942SOL     OW 2683  10.131   3.685   0.316 -0.4635  0.1096 -0.1058
31942SOL    HW1 2684  10.148   3.592   0.301  0.0697  0.4382 -1.6786
31942SOL    HW2 2685  10.144   3.696   0.410 -0.1568 -1.3210  0.0525
31943SOL     OW 2686   2.409   1.381  10.316 -0.1551  0.1137  0.1387
31943SOL    HW1 2687   2.357   1.412  10.242  0.0858  0.0393 -0.0624
31943SOL    HW2 2688   2.427   1.289  10.297 -0.2400  0.0477  0.3737
31944SOL     OW 2689  12.351  11.130  10.660  0.4261  0.4812 -0.1389
31944SOL    HW1 2690  12.341  11.088  10.746  1.4400 -0.3582 -0.4152
31944SOL    HW2 2691  12.313  11.067  10.599 -1.0146  1.4144 -0.2659
31945SOL     OW 2692  11.403  11.736  10.477  0.7842  0.2342 -0.4611
31945SOL    HW1 2693  11.446  11.664  10.432  0.7691  0.0157 -0.1283
31945SOL    HW2 2694  11.385  11.800  10.408  1.3495  0.1891 -0.6560
31946SOL     OW 2695   7.594   5.288   5.665  0.3055  0.4981  0.5680
31946SOL    HW1 2696   7.546   5.329   5.593  0.2889  0.8652  0.7857
31946SOL    HW2 2697   7.549   5.317   5.744 -1.1071 -1.7354  0.6734
31947SOL     OW 2698  10.497   4.034   0.646 -0.5815 -0.0506  0.8027
31947SOL    HW1 2699  10.488   4.076   0.561  1.3412 -0.6583  0.2462
31947SOL    HW2 2700  10.424   4.067   0.697 -2.3718 -0.4150 -1.3646
31948SOL     OW 2701   3.498  10.475   0.232 -0.6687 -0.1518 -0.2924
31948SOL    HW1 2702   3.450  10.393   0.245 -1.6902  0.4657 -0.0842
31948SOL    HW2 2703   3.550  10.487   0.311 -2.1345  0.4609  0.6018
31949SOL     OW 2704   2.530   4.474   1.827 -0.3590  0.3074  0.0728
31949SOL    HW1 2705   2.576   4.557   1.820  0.3844 -0.2062 -1.6241
31949SOL    HW2 2706   2.455   4.493   1.883 -0.8648  2.4261 -1.2042
31950SOL     OW 2707   8.856  11.007   4.028 -0.3354  0.1060 -0.5201
31950SOL    HW1 2708   8.788  10.988   4.093 -1.0665 -0.1627 -1.3354
31950SOL    HW2 2709   8.909  10.928   4.025  1.1069  0.9283  1.3619
31951SOL     OW 2710   4.758   7.567   6.391  0.1183 -0.1089 -0.0843
31951SOL    HW1 2711   4.808   7.486   6.385  0.6742  0.1837  0.5163
31951SOL    HW2 2712   4.671   7.544   6.356  0.1441 -1.0671  0.4537
31952SOL     OW 2713   1.958   0.390   6.844 -0.0785 -0.2873 -0.2440
31952SOL    HW1 2714   1.942   0.479   6.812  0.2258  0.2149  0.9543
31952SOL    HW2 2715   2.039   0.363   6.801  0.1072  0.2242 -0.2214
31953SOL     OW 2716   9.784   2.181  11.068 -0.0782  0.3242 -0.3031
31953SOL    HW1 2717   9.829   2.238  11.005 -0.6951 -0.7150 -1.7393
31953SOL    HW2 2718   9.789   2.094  11.029  0.0836 -0.4880  1.4335
31954SOL     OW 2719   8.448   0.284   8.988  0.7318 -0.0386  0.1456
31954SOL    HW1 2720   8.534   0.315   8.959  0.6309  0.3065  0.2076
31954SOL    HW2 2721   8.417   0.353   9.047  0.8317 -0.6261  0.8929
31955SOL     OW 2722   9.908   1.197  11.899 -0.3298 -0.2284 -0.2526
31955SOL    HW1 2723   9.855   1.121  11.875  1.4810 -0.9017 -2.5179
31955SOL    HW2 2724   9.848   1.271  11.896 -1.6059 -1.2446 -0.4679
31956SOL     OW 2725   1.115   2.571   3.825 -0.4283  0.1338  0.0461
31956SOL    HW1 2726   1.184   2.525   3.778 -1.2011  0.3190 -1.3151
31956SOL    HW2 2727   1.046   2.506   3.835 -0.9092  0.5437 -0.5222
31957SOL     OW 2728   8.505  10.684   2.539  0.0721  0.0250 -0.0724
31957SOL    HW1 2729   8.580  10.692   2.479  0.0012 -3.0760 -0.7482
31957SOL    HW2 2730   8.441  10.633   2.490 -1.6389  0.7553  1.2990
31958SOL     OW 2731   3.627   3.692   4.033 -0.5104 -0.0274 -0.1236
31958SOL    HW1 2732   3.710   3.681   4.079 -1.1475 -0.4937  0.9491
31958SOL    HW2 2733   3.651   3.736   3.951  1.1796 -2.4741 -1.0851
31959SOL     OW 2734   5.456   5.503   4.404  0.4417  0.4417  0.0544
31959SOL    HW1 2735   5.386   5.456   4.357 -0.0800  2.6361 -1.5128
31959SOL    HW2 2736   5.529   5.441   4.404 -0.2203 -0.4418 -1.8963
31960SOL     OW 2737   0.226   9.573   0.565 -0.3650  0.3305  0.3241
31960SOL    HW1 2738   0.196   9.655   0.604 -1.4382  0.0584  0.0908
31960SOL    HW2 2739   0.159   9.552   0.500  1.3752  0.7918 -1.7211
31961SOL     OW 2740   4.928   5.757   1.132 -0.1062 -0.4151 -0.0613
31961SOL    HW1 2741   4.990   5.684   1.128 -2.1802 -2.2530 -0.9536
31961SOL    HW2 2742   4.870   5.743   1.056 -2.3520  0.4457  1.3873
31962SOL     OW 2743   6.788   7.413   3.856  0.0898  0.1530 -0.0470
31962SOL    HW1 2744   6.797   7.408   3.951 -0.3210  0.4553  0.0088
31962SOL    HW2 2745   6.866   7.460   3.827 -0.4349  1.2485  0.2701
31963SOL     OW 2746   1.532  12.043   2.946 -0.6416 -0.0950 -0.3736
31963SOL    HW1 2747   1.611  12.010   2.903 -0.2065  0.5035 -0.0460
31963SOL    HW2 2748   1.545  12.021   3.039 -0.4786  0.7378 -0.1960
31964SOL     OW 2749  10.554   9.527   9.948 -0.1175  0.0250  0.2301
31964SOL    HW1 2750  10.559   9.485  10.033 -1.4940 -0.0979  0.2647
31964SOL    HW2 2751  10.483   9.482   9.903  1.0429 -0.3967 -1.2737
31965SOL     OW 2752  10.508   4.672   6.901 -0.2476 -0.5640  0.9422
31965SOL    HW1 2753  10.551   4.597   6.941  1.4298 -0.0207  0.2279
31965SOL    HW2 2754  10.556   4.688   6.820 -0.9368  0.9212  0.7835
31966SOL     OW 2755   4.944   6.042   0.807  0.4303  0.4962  0.3535
31966SOL    HW1 2756   4.879   6.032   0.876  0.1952  1.0464  0.2160
31966SOL    HW2 2757   4.917   6.120   0.759 -0.1548 -0.5749 -1.1611
31967SOL     OW 2758   0.151   7.680  11.676 -0.0337  0.3736 -0.3005
31967SOL    HW1 2759   0.187   7.714  11.758  1.6932 -0.6157 -0.5970
31967SOL    HW2 2760   0.190   7.735  11.608 -1.0150  0.8297 -0.5158
31968SOL     OW 2761  12.454   0.275   9.494  0.3053  0.0896  0.1556
31968SOL    HW1 2762  12.508   0.215   9.545  0.4967  1.1420  1.2499
31968SOL    HW2 2763  12.364   0.253   9.518  0.4063  0.8090  1.2468
31969SOL     OW 2764   0.915   9.797   0.471  0.3954 -0.0240 -0.1151
31969SOL    HW1 2765   0.936   9.789   0.378 -1.1689 -0.5419 -0.4571
31969SOL    HW2 2766   0.995   9.768   0.516  0.7929 -0.8771 -1.3115
31970SOL     OW 2767   4.829   1.895   7.651 -0.3208 -0.2640  0.4142
31970SOL    HW1 2768   4.753   1.934   7.694  0.0016  0.7817  0.0683
31970SOL    HW2 2769   4.901   1.912   7.711 -0.1377 -0.1130  0.1547
31971SOL     OW 2770   5.197  10.054  10.209 -0.7672 -0.1001  0.4673
31971SOL    HW1 2771   5.178  10.040  10.116 -2.7937 -2.7015  1.1509
31971SOL    HW2 2772   5.232   9.970  10.239 -0.4168  0.6037  2.1236
31972SOL     OW 2773   3.570   5.948  10.688  0.4137  0.9738  0.3735
31972SOL    HW1 2774   3.659   5.973  10.664  1.0051  0.1521  1.5913
31972SOL    HW2 2775   3.576   5.924  10.781 -0.7104 -0.7592  0.0475
31973SOL     OW 2776   6.763   1.137   1.703 -0.3779  0.1956  0.0714
31973SOL    HW1 2777   6.714   1.116   1.623 -0.7939  1.1991  0.0540
31973SOL    HW2 2778   6.843   1.179   1.673  0.1487 -0.7222  0.1375
31974SOL     OW 2779   8.468  10.651   9.749 -0.2449  0.4243 -0.1371
31974SOL    HW1 2780   8.553  10.622   9.716 -1.0311  0.7387 -2.6501
31974SOL    HW2 2781   8.443  10.584   9.812  1.7709  0.2539  0.5562
31975SOL     OW 2782   7.986   7.456   0.921 -0.1659  0.2608  0.3965
31975SOL    HW1 2783   7.979   7.423   0.831 -0.1365  2.4114 -0.4543
31975SOL    HW2 2784   8.078   7.481   0.929 -0.4476  1.2649  0.5702
31976SOL     OW 2785   2.883   9.872   5.966  0.4602 -0.0173 -0.1838
31976SOL    HW1 2786   2.930   9.810   6.022 -0.2584 -0.1550  0.2809
31976SOL    HW2 2787   2.805   9.825   5.937 -0.4117  0.8471  0.6739
31977SOL     OW 2788   4.453   3.151   6.735 -0.1751  0.4038 -0.1910
31977SOL    HW1 2789   4.428   3.058   6.731 -0.3226  0.4786 -3.0416
31977SOL    HW2 2790   4.548   3.150   6.722 -0.1321  0.6559  0.0963
31978SOL     OW 2791   7.393   1.103  11.647 -0.2602  0.9727  0.1814
31978SOL    HW1 2792   7.433   1.047  11.580 -0.1038  1.3789 -0.0701
31978SOL    HW2 2793   7.299   1.088  11.638 -0.2419 -3.7520  3.9399
31979SOL     OW 2794   9.131   9.093   3.540  0.4599  0.0286 -0.1444
31979SOL    HW1 2795   9.046   9.056   3.515 -1.9250  3.1262  2.4107
31979SOL    HW2 2796   9.160   9.038   3.613 -0.7327  0.3922  0.6462
31980SOL     OW 2797   2.607   6.786   0.587 -0.0712 -0.1579 -0.6882
31980SOL    HW1 2798   2.661   6.853   0.544  2.3640 -1.9178 -0.6014
31980SOL    HW2 2799   2.520   6.798   0.551  0.7353  1.7693 -2.1601
31981SOL     OW 2800   6.495   7.442   4.257 -0.0363  0.5369 -0.2289
31981SOL    HW1 2801   6.557   7.478   4.195  2.3593 -0.4091  1.4845
31981SOL    HW2 2802   6.481   7.512   4.321  2.1504 -0.3738  1.3498
31982SOL     OW 2803   3.358   2.720   2.425 -0.6682  0.1351 -0.0349
31982SOL    HW1 2804   3.282   2.666   2.446 -0.4883  0.1365  0.6381
31982SOL    HW2 2805   3.349   2.738   2.331 -1.6439  0.3657  0.0913
31983SOL     OW 2806   7.223   3.449   7.550 -0.2245  0.4139  0.4937
31983SOL    HW1 2807   7.142   3.411   7.584  0.1273  0.5574  1.5260
31983SOL    HW2 2808   7.236   3.406   7.465 -1.9397  1.1509 -0.2107
31984SOL     OW 2809   4.782   7.956   1.783  0.2400 -0.4215 -0.4513
31984SOL    HW1 2810   4.722   7.997   1.720 -1.3728 -1.2725  0.4758
31984SOL    HW2 2811   4.840   7.902   1.728  0.3406  0.5795 -1.3792
31985SOL     OW 2812   3.347   6.844   9.015  0.1916  0.2700 -0.4325
31985SOL    HW1 2813   3.431   6.799   9.010  0.7919  1.3602 -0.5161
31985SOL    HW2 2814   3.341   6.874   9.106 -0.1540  0.1186 -0.4041
31986SOL     OW 2815   1.692   5.449   6.045  0.0734 -0.0093 -0.0588
31986SOL    HW1 2816   1.772   5.462   6.096  0.5389 -0.6814 -0.6114
31986SOL    HW2 2817   1.721   5.407   5.964 -0.9511 -1.1306  0.1308
31987SOL     OW 2818   2.820   2.911   8.469  0.1973 -0.7266  0.6512
31987SOL    HW1 2819   2.728   2.901   8.494  0.2855 -1.6947  0.6179
31987SOL    HW2 2820   2.818   2.956   8.385 -0.2074  0.0578  1.0738
31988SOL     OW 2821   8.695   3.166   7.043  0.3025  0.0542  0.6559
31988SOL    HW1 2822   8.762   3.233   7.025  1.3529 -0.8735  1.0656
31988SOL    HW2 2823   8.742   3.094   7.084 -0.5769 -1.4824 -0.8796
31989SOL     OW 2824   6.388   5.498   2.610  0.2420 -0.4714 -0.4242
31989SOL    HW1 2825   6.462   5.556   2.595  1.2494 -1.5513  0.2007
31989SOL    HW2 2826   6.416   5.414   2.573 -2.2733  0.0162 -3.9737
31990SOL     OW 2827   2.833   7.744   9.868  0.8737 -0.1950 -0.4905
31990SOL    HW1 2828   2.738   7.756   9.866  0.9773  0.6323 -1.3765
31990SOL    HW2 2829   2.845   7.655   9.901 -0.2943 -1.1078 -2.3547
31991SOL     OW 2830   5.194   9.427   5.829 -0.4964 -0.1708 -0.0122
31991SOL    HW1 2831   5.282   9.429   5.791 -0.5909 -0.1063 -0.2302
31991SOL    HW2 2832   5.153   9.509   5.800 -0.2491  0.3223  1.0057
31992SOL     OW 2833   7.416   1.575  11.605  0.2349  0.4087  0.0017
31992SOL    HW1 2834   7.448   1.518  11.536  0.2117  1.0760 -0.5741
31992SOL    HW2 2835   7.412   1.519  11.683  2.0191  0.1054 -0.0920
31993SOL     OW 2836  12.486   3.638   4.670  0.8940 -0.1395 -0.1067
31993SOL    HW1 2837  12.576   3.606   4.676  0.9032 -0.4909 -1.7102
31993SOL    HW2 2838  12.467   3.640   4.576 -0.7333  0.0471  0.1929
31994SOL     OW 2839  12.144   8.568   7.681  0.1016  0.1005 -0.2209
31994SOL    HW1 2840  12.092   8.584   7.603 -1.5857 -1.9676  0.3938
31994SOL    HW2 2841  12.210   8.503   7.654  0.5953  0.6236 -0.3030
31995SOL     OW 2842   4.882   7.475   9.018  0.4059  0.1009 -0.1798
31995SOL    HW1 2843   4.946   7.527   8.968  0.2817  1.8241  1.3395
31995SOL    HW2 2844   4.932   7.402   9.053  1.0057  0.1421 -0.9321
31996SOL     OW 2845   5.217   2.162   7.621  0.0754 -0.2441 -0.2074
31996SOL    HW1 2846   5.203   2.229   7.688  0.2710  0.6796 -1.0825
31996SOL    HW2 2847   5.304   2.126   7.641  0.7033  0.9409 -0.7295
31997SOL     OW 2848   3.403   1.596   7.919 -0.5724 -0.3900  0.1782
31997SOL    HW1 2849   3.398   1.654   7.844 -2.0174 -0.4155  0.2142
31997SOL    HW2 2850   3.496   1.579   7.931 -0.3171 -0.5054 -1.6837
31998SOL     OW 2851   7.372  11.103   3.288 -0.1446  0.1465  0.2636
31998SOL    HW1 2852   7.369  11.112   3.192 -2.3048 -1.9094  0.0447
31998SOL    HW2 2853   7.423  11.024   3.303  2.2908  1.7221  1.0638
31999SOL     OW 2854   7.896   3.365   7.079  0.4804 -0.0439  0.1879
31999SOL    HW1 2855   7.935   3.402   7.158 -0.9562  0.2629  0.7932
31999SOL    HW2 2856   7.939   3.411   7.007  0.4395  1.0889  0.8537
32000SOL     OW 2857   9.881   9.481   6.552 -0.4587 -0.2781  0.2546
32000SOL    HW1 2858   9.905   9.404   6.501 -0.7958 -1.3717  1.6629
32000SOL    HW2 2859   9.955   9.493   6.612  0.0746  1.1700 -0.6515
32001SOL     OW 2860   2.243   4.570  11.996 -0.1603  0.7437 -0.2616
32001SOL    HW1 2861   2.296   4.600  12.070  1.5431  0.0602 -1.1325
32001SOL    HW2 2862   2.204   4.649  11.960 -0.1439  1.2104  0.7089
32002SOL     OW 2863   2.797  12.353   5.426 -0.0878  0.7498  0.5280
32002SOL    HW1 2864   2.741  12.335   5.502 -0.7589  1.3516  0.1940
32002SOL    HW2 2865   2.808  12.269   5.383 -0.7711  0.6289  0.5827
32003SOL     OW 2866   2.399   2.739  10.813 -0.1653  0.2040  0.0418
32003SOL    HW1 2867   2.491   2.755  10.833  0.3031 -0.9196 -1.1397
32003SOL    HW2 2868   2.393   2.744  10.718 -1.6344  1.7330  0.1669
32004SOL     OW 2869   6.163   2.575   7.105  0.7553  0.0035 -0.0353
32004SOL    HW1 2870   6.142   2.483   7.092 -1.0007  0.4448 -0.5776
32004SOL    HW2 2871   6.231   2.575   7.173 -0.0901 -1.6245  0.8582
32005SOL     OW 2872   9.762   3.044   4.604 -0.2935  0.2065 -0.1944
32005SOL    HW1 2873   9.776   2.994   4.684 -0.9828  0.8713  0.3633
32005SOL    HW2 2874   9.667   3.044   4.591 -0.1622 -0.2518 -1.2562
32006SOL     OW 2875   2.625  11.558  10.329 -0.1353 -0.1944  0.6426
32006SOL    HW1 2876   2.704  11.518  10.294  1.2475  1.5757  1.5815
32006SOL    HW2 2877   2.599  11.501  10.401 -0.8249 -1.7782 -0.7958
32007SOL     OW 2878  12.136   2.420   5.407 -0.6872 -0.1787 -0.1229
32007SOL    HW1 2879  12.062   2.368   5.376 -0.5597  0.3669 -1.4279
32007SOL    HW2 2880  12.126   2.423   5.502 -2.6131  0.2703 -0.3027
32008SOL     OW 2881   8.646   1.257   4.292  0.1598  0.0676  0.3152
32008SOL    HW1 2882   8.725   1.230   4.339  0.0989 -0.2261  0.2517
32008SOL    HW2 2883   8.576   1.251   4.357  0.2864  0.9354  0.5439
32009SOL     OW 2884   5.651   7.314   4.834  0.2826  0.2031  0.5137
32009SOL    HW1 2885   5.711   7.254   4.789  1.2883 -0.3392  2.4863
32009SOL    HW2 2886   5.683   7.402   4.811  1.1275 -0.0743  0.5969
32010SOL     OW 2887   9.498  11.118   8.953  0.2571 -0.3900  0.6933
32010SOL    HW1 2888   9.538  11.101   8.867 -2.0934 -0.5589 -0.4462
32010SOL    HW2 2889   9.563  11.086   9.016  1.5007 -1.4834 -1.0334
32011SOL     OW 2890   4.676  12.401   5.077 -0.1219 -0.7613  0.1484
32011SOL    HW1 2891   4.732  12.338   5.034 -1.4509  0.0189 -2.9728
32011SOL    HW2 2892   4.599  12.351   5.104  0.2906 -1.0752  0.7522
32012SOL     OW 2893   8.403   3.854   6.467 -0.1190 -0.3534  0.0550
32012SOL    HW1 2894   8.452   3.925   6.508 -0.2072 -0.0023 -0.4343
32012SOL    HW2 2895   8.422   3.863   6.374 -2.1974  0.6757 -0.3435
32013SOL     OW 2896   4.763   4.103   1.732  0.4093  0.0688 -0.1137
32013SOL    HW1 2897   4.678   4.060   1.742  0.1752  0.6750  0.5706
32013SOL    HW2 2898   4.806   4.092   1.816 -0.3498  2.6025  0.7045
32014SOL     OW 2899   0.797   5.887   5.624  0.4789  0.0130  0.6220
32014SOL    HW1 2900   0.877   5.839   5.647 -0.0650 -0.1743  2.2194
32014SOL    HW2 2901   0.774   5.934   5.704  1.2835  3.4470 -0.9705
32015SOL     OW 2902   8.084   2.734   2.264 -0.3120  0.1338 -0.0748
32015SOL    HW1 2903   7.998   2.764   2.235  0.1241  0.9641 -0.5244
32015SOL    HW2 2904   8.145   2.798   2.228  0.6262 -1.1827 -0.9003
32016SOL     OW 2905  12.053   5.051  12.558  0.1475 -0.3262 -0.3103
32016SOL    HW1 2906  11.973   5.073  12.606  1.8097  1.9289  1.6977
32016SOL    HW2 2907  12.036   5.083  12.469 -1.1742  0.1648  0.0883
32017SOL     OW 2908   9.226   3.139  11.262 -0.5978  0.0051 -0.0873
32017SOL    HW1 2909   9.236   3.071  11.195  2.1384  0.6786 -0.4789
32017SOL    HW2 2910   9.133   3.162  11.259 -0.9301 -1.3511 -2.2943
32018SOL     OW 2911   8.070  11.882   0.339 -0.0216  0.1225 -0.7340
32018SOL    HW1 2912   8.016  11.842   0.407  2.4543 -1.5775  0.3632
32018SOL    HW2 2913   8.035  11.847   0.257  0.9709 -3.1689  0.0961
32019SOL     OW 2914  11.339   9.587   7.239 -0.1191  0.5292 -0.4242
32019SOL    HW1 2915  11.396   9.549   7.171  0.3375  0.2273  0.1221
32019SOL    HW2 2916  11.250   9.565   7.210  0.1128 -0.4028 -0.4501
32020SOL     OW 2917  10.880   2.250   2.510  0.1389  0.1581  0.0180
32020SOL    HW1 2918  10.788   2.242   2.533 -0.1951  0.7658 -1.0367
32020SOL    HW2 2919  10.914   2.160   2.513 -0.5140 -0.0811  0.2829
32021SOL     OW 2920  10.219  10.377   1.881 -0.4885 -0.5893 -0.1631
32021SOL    HW1 2921  10.249  10.369   1.790 -1.6470 -0.8589 -0.5365
32021SOL    HW2 2922  10.297  10.360   1.933 -0.0338 -1.5133 -1.0954
32022SOL     OW 2923  11.487   2.548  10.573  0.6445 -0.0313  0.1446
32022SOL    HW1 2924  11.439   2.467  10.590  0.2650  0.4753  1.6090
32022SOL    HW2 2925  11.432   2.595  10.509 -0.3973  0.1543  1.1513
32023SOL     OW 2926   4.271  11.137   7.317 -0.0208 -0.0290 -0.6751
32023SOL    HW1 2927   4.253  11.055   7.362  0.6090  0.2417  0.0901
32023SOL    HW2 2928   4.279  11.112   7.225  2.8644 -1.2951 -0.1717
32024SOL     OW 2929   0.629   8.391  11.365  0.0096  0.1941 -0.2183
32024SOL    HW1 2930   0.548   8.443  11.362 -0.6255 -0.7932 -1.2053
32024SOL    HW2 2931   0.600   8.304  11.394  0.8505  0.0327  0.1692
32025SOL     OW 2932  10.286   0.346   4.588  0.4178 -0.1193 -0.4664
32025SOL    HW1 2933  10.378   0.319   4.594  0.6739  0.8456  0.3358
32025SOL    HW2 2934  10.273   0.367   4.496  1.5952  1.5920 -0.2969
32026SOL     OW 2935  12.353  10.937   0.144  0.3717 -0.0355 -0.1156
32026SOL    HW1 2936  12.291  10.924   0.216 -0.6517 -0.3823 -1.0352
32026SOL    HW2 2937  12.337  10.863   0.086  1.1342  0.2835 -0.7450
32027SOL     OW 2938   9.661   4.889   6.062  0.2517 -0.2439  1.2201
32027SOL    HW1 2939   9.694   4.867   5.975 -0.9207  1.3950  0.3096
32027SOL    HW2 2940   9.724   4.951   6.097  0.5645 -0.6727  1.4206
32028SOL     OW 2941   8.143   8.210   8.548  0.3381 -0.5741  0.0264
32028SOL    HW1 2942   8.063   8.160   8.530 -0.7667  1.3932 -0.9731
32028SOL    HW2 2943   8.213   8.145   8.545 -1.1150 -2.2345  0.0222
32029SOL     OW 2944   4.934   9.191  11.723 -0.0887 -0.4605  0.3839
32029SOL    HW1 2945   4.924   9.259  11.789  0.2217 -0.7347  0.7157
32029SOL    HW2 2946   4.844   9.164  11.703 -0.3389  1.2826 -1.0770
32030SOL     OW 2947  11.240   8.321   4.453  0.3542  0.0487 -0.7483
32030SOL    HW1 2948  11.263   8.253   4.390 -0.8304 -0.8405 -0.2720
32030SOL    HW2 2949  11.317   8.328   4.509  0.5607 -0.8025 -0.8974
32031SOL     OW 2950  10.855   4.361   7.855 -0.3714 -0.5263 -0.1200
32031SOL    HW1 2951  10.899   4.289   7.902 -0.8749 -0.9579 -0.2933
32031SOL    HW2 2952  10.856   4.333   7.764  0.0764  0.0370 -0.2932
32032SOL     OW 2953   7.534   0.663   2.132 -0.3718  0.1864 -0.0389
32032SOL    HW1 2954   7.529   0.574   2.168 -0.5587 -0.1488 -0.8728
32032SOL    HW2 2955   7.628   0.680   2.123 -0.2651  0.7107  1.6141
32033SOL     OW 2956   2.992   6.219   3.979 -0.1141  0.3360 -0.1764
32033SOL    HW1 2957   2.923   6.233   4.044 -0.0205 -2.0365  0.5300
32033SOL    HW2 2958   2.990   6.298   3.925 -1.1313  1.7862  1.8404
32034SOL     OW 2959   6.025   3.271   1.584 -0.0537  0.6367  0.2404
32034SOL    HW1 2960   6.102   3.227   1.547 -0.7029 -0.6184  0.3300
32034SOL    HW2 2961   5.951   3.215   1.559 -0.8921  1.5876  0.5388
32035SOL     OW 2962   7.357   0.300   0.696 -0.1039 -0.2532 -0.2007
32035SOL    HW1 2963   7.362   0.205   0.692 -1.5465 -0.3977  0.7602
32035SOL    HW2 2964   7.448   0.329   0.704  0.2566 -1.6276  0.9469
32036SOL     OW 2965  10.319  12.346  11.065 -0.0573 -0.1485 -0.2912
32036SOL    HW1 2966  10.356  12.277  11.010  0.6489  0.7044 -0.9218
32036SOL    HW2 2967  10.234  12.364  11.027  1.4965  2.3680 -2.9744
32037SOL     OW 2968   7.008   3.417   7.836 -0.3869  0.0179 -0.8241
32037SOL    HW1 2969   7.048   3.504   7.847  0.1641 -0.1531 -1.4180
32037SOL    HW2 2970   7.003   3.381   7.925 -0.6899  0.6845 -0.5629
32038SOL     OW 2971   9.444   6.716   4.196 -0.2618 -0.5427 -0.0739
32038SOL    HW1 2972   9.531   6.755   4.195  0.0214 -1.1520  0.5824
32038SOL    HW2 2973   9.455   6.631   4.238 -1.3367 -0.2135  0.9290
32039SOL     OW 2974   6.748   8.466   4.505 -0.6259  0.6720  0.3615
32039SOL    HW1 2975   6.835   8.464   4.465 -0.0841 -0.3143  1.5155
32039SOL    HW2 2976   6.759   8.421   4.589 -2.1537  0.9324  0.7360
32040SOL     OW 2977   8.066   0.755   3.358 -0.1847 -0.0746 -0.0017
32040SOL    HW1 2978   8.132   0.818   3.388  0.2055 -0.3683 -0.2374
32040SOL    HW2 2979   8.114   0.697   3.299 -0.7930  0.0771 -0.6500
32041SOL     OW 2980   0.944  11.024   1.489 -0.2741  0.1428 -0.0709
32041SOL    HW1 2981   0.942  10.937   1.529 -1.1005  1.2182  2.4314
32041SOL    HW2 2982   0.886  11.017   1.413 -1.5362 -1.1338  0.9586
32042SOL     OW 2983   9.967   1.654  12.539 -0.0667 -0.0448 -0.3056
32042SOL    HW1 2984   9.873   1.662  12.553 -0.1885 -1.2790 -0.2826
32042SOL    HW2 2985  10.005   1.662  12.627 -0.3215 -1.3810 -0.0426
32043SOL     OW 2986   8.423   9.065   1.817  0.1034 -0.0191  0.3054
32043SOL    HW1 2987   8.512   9.032   1.818 -0.1847 -0.8941 -0.9282
32043SOL    HW2 2988   8.423   9.134   1.751 -0.4426 -1.0327 -0.7981
32044SOL     OW 2989   4.681   3.637   9.441  0.4197 -0.0974  0.0708
32044SOL    HW1 2990   4.678   3.573   9.511  0.6746  2.6044  2.7875
32044SOL    HW2 2991   4.591   3.665   9.429  0.6253  1.0455  1.0089
32045SOL     OW 2992   2.132   8.714   5.795 -0.1736  0.0441 -0.3973
32045SOL    HW1 2993   2.099   8.624   5.797 -0.6912  0.2363  1.2666
32045SOL    HW2 2994   2.055   8.768   5.814  0.4469  0.7120  0.3022
32046SOL     OW 2995   5.068  10.049   2.380  0.0260 -0.1415  0.1642
32046SOL    HW1 2996   5.039   9.974   2.432 -0.5010  0.0917  0.2200
32046SOL    HW2 2997   5.015  10.045   2.300  0.1435  0.0520  0.0759
32047SOL     OW 2998  12.565  11.659   4.218 -0.3902 -0.2914  0.1859
32047SOL    HW1 2999  12.581  11.583   4.274  1.2730 -1.3776 -1.6212
32047SOL    HW2 3000  12.589  11.629   4.130  1.2104  2.5666 -0.4837
32048SOL     OW 3001  10.861   1.106   4.655 -0.2072  0.0095 -0.0901
32048SOL    HW1 3002  10.817   1.094   4.739  1.8572 -0.9562  0.9166
32048SOL    HW2 3003  10.899   1.020   4.635  0.9572  0.7091 -1.0378
32049SOL     OW 3004   9.704   6.729   5.904  0.0244 -0.0963  0.0838
32049SOL    HW1 3005   9.620   6.715   5.861  0.0057  0.1171  0.0545
32049SOL    HW2 3006   9.764   6.669   5.859  0.0680  0.3215 -0.4207
32050SOL     OW 3007   3.814   4.283   5.071  0.1311 -0.3631  0.4751
32050SOL    HW1 3008   3.744   4.340   5.103 -0.2596 -0.1681 -0.6866
32050SOL    HW2 3009   3.826   4.218   5.140 -0.3602  0.3196  1.2149
32051SOL     OW 3010  10.498   8.141   5.692  0.5388  0.0380 -1.2098
32051SOL    HW1 3011  10.474   8.209   5.629 -1.2283  0.6911  0.0811
32051SOL    HW2 3012  10.424   8.081   5.692 -0.2165  0.8393  1.2294
32052SOL     OW 3013   9.150   2.512   4.000 -0.4465  0.7877 -0.0896
32052SOL    HW1 3014   9.068   2.543   4.038 -0.8842 -0.8237  0.3226
32052SOL    HW2 3015   9.218   2.546   4.059 -0.9731  0.2397  0.8605
32053SOL     OW 3016   1.872   7.884   7.377  0.3353  0.0228  0.0519
32053SOL    HW1 3017   1.830   7.919   7.298  0.6888  0.6304  0.1220
32053SOL    HW2 3018   1.945   7.944   7.393  0.2304 -0.0633  0.8779
32054SOL     OW 3019   6.431   3.371   0.672  0.3626 -0.1839 -0.4761
32054SOL    HW1 3020   6.452   3.449   0.723  0.5801 -1.1170  0.9175
32054SOL    HW2 3021   6.512   3.348   0.628  0.7812 -0.6129  0.4999
32055SOL     OW 3022   8.414   3.131   7.700 -0.4399  0.0993  0.1896
32055SOL    HW1 3023   8.482   3.122   7.632 -0.3794 -1.7201  0.4375
32055SOL    HW2 3024   8.446   3.201   7.757  0.5102  0.2652 -0.5198
32056SOL     OW 3025   4.296   8.572   3.715 -0.9511 -0.1775  0.3001
32056SOL    HW1 3026   4.203   8.587   3.697 -0.5309 -0.3983 -2.4091
32056SOL    HW2 3027   4.336   8.659   3.707 -0.8537 -0.1106  1.3060
32057SOL     OW 3028   6.565   1.410  11.478  0.1825  0.0251  0.3056
32057SOL    HW1 3029   6.512   1.331  11.470 -0.9842  0.8449 -0.2827
32057SOL    HW2 3030   6.528   1.458  11.551 -0.9042  1.3201 -1.0341
32058SOL     OW 3031   5.868  12.457   8.597 -0.4418  0.1484 -0.2284
32058SOL    HW1 3032   5.873  12.395   8.524  0.1372  0.9306 -0.8758
32058SOL    HW2 3033   5.934  12.523   8.577  0.0833  0.1184  1.2754
32059SOL     OW 3034   7.172   5.580  10.766 -0.5337  0.0247 -0.0759
32059SOL    HW1 3035   7.078   5.568  10.761 -0.1691 -3.2120 -1.5604
32059SOL    HW2 3036   7.202   5.580  10.675  1.0728 -1.2783  0.3951
32060SOL     OW 3037   7.645   5.725   7.468 -0.1963  0.4653 -0.3233
32060SOL    HW1 3038   7.616   5.681   7.548 -0.6766 -1.1199 -1.3347
32060SOL    HW2 3039   7.736   5.698   7.458 -0.6734 -0.9114 -1.2895
32061SOL     OW 3040   4.581   8.543   0.481 -0.5397 -0.0501 -0.0986
32061SOL    HW1 3041   4.543   8.464   0.519 -1.5927  0.2285 -0.5366
32061SOL    HW2 3042   4.561   8.612   0.544 -1.8722  0.3230 -0.8869
32062SOL     OW 3043   9.773  11.508   5.949  0.5467  0.5064  0.2499
32062SOL    HW1 3044   9.716  11.548   5.883 -0.8120 -0.3632  0.8297
32062SOL    HW2 3045   9.823  11.442   5.901 -0.4173 -0.1108  0.0634
32063SOL     OW 3046  10.534   5.878   7.351 -0.3630  0.7180  0.7028
32063SOL    HW1 3047  10.597   5.948   7.334  0.6043 -0.0774  0.9482
32063SOL    HW2 3048  10.493   5.902   7.435  1.2503  0.0937  1.7067
32064SOL     OW 3049   5.201   2.856   9.635 -0.2132 -0.4978 -0.1573
32064SOL    HW1 3050   5.243   2.780   9.676 -0.7616 -0.4597  0.4790
32064SOL    HW2 3051   5.246   2.932   9.673  0.2282 -0.4878 -0.6790
32065SOL     OW 3052   6.063  10.232   0.745  0.3592 -0.8597 -0.0529
32065SOL    HW1 3053   6.084  10.313   0.792  0.1866 -2.1298  2.3989
32065SOL    HW2 3054   6.131  10.225   0.678 -0.4948  2.0297 -1.3760
32066SOL     OW 3055  10.870  12.370  10.791  0.2870  0.2561 -0.2492
32066SOL    HW1 3056  10.923  12.442  10.825  1.9145 -1.4861  1.0703
32066SOL    HW2 3057  10.909  12.350  10.706 -0.3073  1.0394 -0.7188
32067SOL     OW 3058   2.865  12.491  11.812  0.2331  0.1770  0.0930
32067SOL    HW1 3059   2.867  12.419  11.876 -1.6497 -0.3360 -0.3883
32067SOL    HW2 3060   2.815  12.456  11.738 -0.2998  1.8193 -0.3523
32068SOL     OW 3061  10.358  10.318   1.664 -0.2812  0.0622 -0.2211
32068SOL    HW1 3062  10.322  10.310   1.576 -0.2101 -0.2128 -0.2252
32068SOL    HW2 3063  10.434  10.259   1.665 -1.0396 -0.9406  0.4227
32069SOL     OW 3064   1.283   9.697   7.339  0.1352 -0.2510  0.1553
32069SOL    HW1 3065   1.255   9.786   7.360 -1.0746 -0.2992 -1.0929
32069SOL    HW2 3066   1.244   9.643   7.407  4.0264  0.4468  3.2592
32070SOL     OW 3067  10.912  10.266  10.498  0.1255 -0.1448  0.4460
32070SOL    HW1 3068  10.842  10.287  10.560 -0.3215 -1.2175  0.3409
32070SOL    HW2 3069  10.893  10.176  10.471  0.5453  0.1551 -0.9442
32071SOL     OW 3070  12.177  12.305   2.508 -0.1864 -0.0634 -0.0695
32071SOL    HW1 3071  12.165  12.215   2.479 -1.4363 -0.1477  0.6444
32071SOL    HW2 3072  12.220  12.348   2.434 -1.6127 -0.7013 -1.3338
32072SOL     OW 3073   7.931  10.935   1.942  0.0197 -0.0613  0.1215
32072SOL    HW1 3074   7.891  10.946   1.856  1.4855 -1.3722 -0.7917
32072SOL    HW2 3075   7.870  10.881   1.991 -0.3446 -0.1859 -0.4689
32073SOL     OW 3076   7.482   5.624   9.461 -0.2582 -0.2345 -0.0417
32073SOL    HW1 3077   7.490   5.532   9.439  1.0823 -0.7442  2.1788
32073SOL    HW2 3078   7.563   5.663   9.428 -1.2225  0.3939 -1.7888
32074SOL     OW 3079  11.812   1.949   1.852  0.3345  0.4885 -0.1734
32074SOL    HW1 3080  11.858   1.958   1.769 -0.4504  3.5268 -0.3880
32074SOL    HW2 3081  11.720   1.938   1.827  0.3914 -1.7559  0.3307
32075SOL     OW 3082   9.286   1.225   3.283 -0.6223 -0.2485  0.4854
32075SOL    HW1 3083   9.289   1.268   3.369  1.4604  1.1839 -0.2071
32075SOL    HW2 3084   9.230   1.149   3.296  1.2221 -1.2759  3.7037
32076SOL     OW 3085  11.530   8.008   3.155 -0.0591  0.2110 -0.1246
32076SOL    HW1 3086  11.556   8.023   3.064 -0.2661 -0.4130 -0.2934
32076SOL    HW2 3087  11.458   7.946   3.149  1.0010 -1.1345  0.5335
32077SOL     OW 3088   2.549   1.733  11.712  0.2097 -0.2654 -0.1632
32077SOL    HW1 3089   2.558   1.658  11.771  1.1969 -0.3157 -0.3572
32077SOL    HW2 3090   2.634   1.740  11.669 -0.3312  0.0719 -1.2298
32078SOL     OW 3091   5.118   1.238   1.515 -0.4082  0.0388  0.3268
32078SOL    HW1 3092   5.087   1.318   1.474 -0.2980  0.6614  1.4017
32078SOL    HW2 3093   5.079   1.167   1.465  0.2649  0.7378 -1.2462
32079SOL     OW 3094  12.446  11.155   0.321 -0.1869 -0.3516 -0.7302
32079SOL    HW1 3095  12.455  11.069   0.281  0.2649 -0.8557  0.4276
32079SOL    HW2 3096  12.517  11.207   0.283  0.7850 -1.0800  0.0444
32080SOL     OW 3097  10.987   7.687  11.354  0.8173  0.1098  0.2605
32080SOL    HW1 3098  10.964   7.779  11.342  0.1196 -0.2177 -1.1190
32080SOL    HW2 3099  11.056   7.672  11.290 -0.4877 -0.8118 -0.9863
32081SOL     OW 3100   1.230   8.114  12.448  0.2845 -0.0058  0.1950
32081SOL    HW1 3101   1.215   8.189  12.505 -1.3755  0.0271 -0.2343
32081SOL    HW2 3102   1.238   8.153  12.360 -1.6226 -0.3362 -0.1860
32082SOL     OW 3103   4.007   5.682   3.890  0.1298 -0.0548  0.1461
32082SOL    HW1 3104   4.100   5.701   3.878  0.2076  0.1029  0.9123
32082SOL    HW2 3105   4.003   5.635   3.974 -0.5842  0.8704  0.6568
32083SOL     OW 3106   8.049   5.798   4.412 -0.0880 -0.1129 -0.2070
32083SOL    HW1 3107   8.099   5.785   4.332  0.0849  0.0440 -0.1251
32083SOL    HW2 3108   7.965   5.835   4.382  0.7266  1.9147 -0.1747
32084SOL     OW 3109   2.756  10.281   1.732 -0.2428 -0.3445  0.9872
32084SOL    HW1 3110   2.766  10.192   1.765  0.4558 -0.3703  0.7184
32084SOL    HW2 3111   2.752  10.271   1.637  0.4108 -0.0364  0.9263
32085SOL     OW 3112   9.162   5.811   6.375 -0.0227  0.4473 -0.3648
32085SOL    HW1 3113   9.183   5.725   6.412 -1.3509  0.7455  1.2180
32085SOL    HW2 3114   9.202   5.873   6.436 -0.9354  0.9436 -0.2542
32086SOL     OW 3115   7.361   9.811   1.589  0.3892  0.3898  0.0423
32086SOL    HW1 3116   7.298   9.873   1.551  0.1288 -0.9688 -1.9311
32086SOL    HW2 3117   7.405   9.773   1.513 -0.3014 -2.6648  1.0363
32087SOL     OW 3118   8.707   0.289   1.503 -0.0881  0.5304  0.1378
32087SOL    HW1 3119   8.783   0.265   1.451 -0.5829 -0.7025 -0.0638
32087SOL    HW2 3120   8.645   0.324   1.440 -0.0509  0.6307  0.1569
32088SOL     OW 3121   2.596   5.493  12.341 -0.3339 -0.0565 -0.7745
32088SOL    HW1 3122   2.655   5.535  12.278 -0.2531 -1.1675 -1.4573
32088SOL    HW2 3123   2.513   5.538  12.329  0.3002  1.4393  0.1037
32089SOL     OW 3124   2.571  10.710   7.847  0.2598  0.3829  0.0700
32089SOL    HW1 3125   2.535  10.779   7.902 -3.0422  0.3172 -1.7326
32089SOL    HW2 3126   2.572  10.748   7.759  1.5146 -0.8157 -0.4697
32090SOL     OW 3127   7.708  12.010   9.522  0.1366  0.4308 -0.4928
32090SOL    HW1 3128   7.725  11.919   9.496  0.6304  0.3166  0.1762
32090SOL    HW2 3129   7.629  12.035   9.475  1.2656  0.4250 -2.5022
32091SOL     OW 3130   1.953   2.059   8.743  0.1955 -0.4223  1.1857
32091SOL    HW1 3131   1.884   2.086   8.683 -0.0288  2.1757  2.4527
32091SOL    HW2 3132   2.032   2.054   8.688 -0.4723 -0.7242  0.2309
32092SOL     OW 3133   5.991   0.299   7.013  0.2639  0.3548  0.3247
32092SOL    HW1 3134   5.910   0.276   7.060  0.1345  1.1788  0.5273
32092SOL    HW2 3135   5.979   0.264   6.925 -0.6495  1.1306  0.1260
32093SOL     OW 3136   2.136   5.120   3.643  0.8954 -0.2436  0.6390
32093SOL    HW1 3137   2.109   5.212   3.639  1.6342  0.0529  1.8868
32093SOL    HW2 3138   2.060   5.075   3.679  0.0084 -0.3822 -1.3140
32094SOL     OW 3139   5.736   7.457   8.861  0.8359 -0.1323 -0.2338
32094SOL    HW1 3140   5.715   7.374   8.904  0.3582  0.2509  0.3060
32094SOL    HW2 3141   5.825   7.477   8.888  0.3137  0.4504  1.2198
32095SOL     OW 3142   2.741   0.203   0.867  0.4189 -0.4974 -0.3217
32095SOL    HW1 3143   2.696   0.125   0.900  0.1452  0.6000  2.1691
32095SOL    HW2 3144   2.830   0.195   0.902  0.1402  0.6865  0.7500
32096SOL     OW 3145   7.096   1.585   0.918  0.1824  0.4113  0.0884
32096SOL    HW1 3146   7.124   1.659   0.973  1.2700 -0.6976  1.1182
32096SOL    HW2 3147   7.002   1.578   0.933  0.0620  1.5665 -0.0229
32097SOL     OW 3148  11.355  11.172   8.607  0.7560  0.0027  0.5388
32097SOL    HW1 3149  11.266  11.198   8.630  0.4767 -0.0206 -0.4558
32097SOL    HW2 3150  11.357  11.176   8.512  2.1198  0.9571  0.5753
32098SOL     OW 3151   0.636   2.266   5.534 -0.1034  0.3660  0.0051
32098SOL    HW1 3152   0.562   2.249   5.592 -0.0368  0.9080  0.2653
32098SOL    HW2 3153   0.597   2.311   5.458 -0.0514  0.6271  0.1299
32099SOL     OW 3154   7.449   4.626   7.775 -0.1761  0.1200  0.4255
32099SOL    HW1 3155   7.474   4.573   7.851 -1.2455 -0.7113  0.2240
32099SOL    HW2 3156   7.528   4.628   7.721 -0.1307 -1.4007  0.3906
32100SOL     OW 3157   5.750   6.766   1.461  0.2222 -0.2262  0.0650
32100SOL    HW1 3158   5.703   6.777   1.543  2.9143  1.5792  1.5276
32100SOL    HW2 3159   5.781   6.676   1.462  0.1764 -0.2375  1.0150
32101SOL     OW 3160   1.531   6.252  11.448  0.6770 -0.3046  0.6915
32101SOL    HW1 3161   1.538   6.347  11.439 -1.4680  0.0223  1.7963
32101SOL    HW2 3162   1.505   6.239  11.539  0.1369 -1.9091  0.3382
32102SOL     OW 3163  10.032   4.347   9.809  0.2077 -0.1122  0.2246
32102SOL    HW1 3164   9.976   4.420   9.835  0.4286  0.2264 -0.2222
32102SOL    HW2 3165  10.054   4.365   9.717  2.1892  0.5425  0.7733
32103SOL     OW 3166   1.336   0.845   9.616  0.2381  0.5200  0.3067
32103SOL    HW1 3167   1.278   0.921   9.627 -0.2942  0.1605  0.0105
32103SOL    HW2 3168   1.306   0.803   9.536 -1.0231 -1.3481  1.6701
32104SOL     OW 3169   1.937   8.308   5.171 -0.0568 -0.1339  0.7104
32104SOL    HW1 3170   1.996   8.383   5.159  0.3508 -0.7424 -1.6585
32104SOL    HW2 3171   1.857   8.346   5.207  0.1626  1.4600 -0.3457
32105SOL     OW 3172   0.634   4.257   9.779 -0.4755 -0.0095 -0.0485
32105SOL    HW1 3173   0.569   4.314   9.819 -0.9001  0.0949 -0.8727
32105SOL    HW2 3174   0.602   4.169   9.796 -0.8025  0.0403 -0.3967
32106SOL     OW 3175  11.243   3.627   2.131 -0.0498 -0.1417  0.2531
32106SOL    HW1 3176  11.211   3.664   2.049 -0.7301  0.3814  0.7489
32106SOL    HW2 3177  11.230   3.532   2.120 -0.4736 -0.0478 -0.0988
32107SOL     OW 3178   5.199   6.043   0.361  0.0066  1.0061  0.1269
32107SOL    HW1 3179   5.150   6.056   0.443  0.9630 -0.2634  0.9202
32107SOL    HW2 3180   5.188   5.950   0.341 -0.2259  1.3039 -1.2228
32108SOL     OW 3181   9.879   4.156   6.304 -0.2148 -0.1283 -0.1634
32108SOL    HW1 3182   9.792   4.142   6.266 -1.3848  1.6155  1.7155
32108SOL    HW2 3183   9.871   4.127   6.394  0.7134  1.3773  0.4369
32109SOL     OW 3184  11.798   5.564   2.011 -0.1540 -0.5038 -0.1113
32109SOL    HW1 3185  11.854   5.520   1.948 -0.5040 -0.9594 -0.1152
32109SOL    HW2 3186  11.837   5.544   2.096 -0.1779 -0.6296 -0.1295
32110SOL     OW 3187   8.823   0.297   9.883  0.7446  0.1585  0.5320
32110SOL    HW1 3188   8.731   0.274   9.890  0.6583  0.5359  0.6364
32110SOL    HW2 3189   8.858   0.237   9.817  0.1486  0.8488 -0.4245
32111SOL     OW 3190   3.728   2.215   8.994  0.1981  0.1957 -0.2618
32111SOL    HW1 3191   3.638   2.195   8.968  0.4581  0.1640 -1.1625
32111SOL    HW2 3192   3.731   2.310   9.001 -0.1908  0.1417  0.8763
32112SOL     OW 3193   4.463   4.687   5.322 -0.4190  0.2751  0.5247
32112SOL    HW1 3194   4.406   4.618   5.288 -0.8643  0.9748 -0.1707
32112SOL    HW2 3195   4.407   4.739   5.379 -0.0421 -0.0248  1.1841
32113SOL     OW 3196   7.869   2.367   4.649  0.0610  0.3705  0.8090
32113SOL    HW1 3197   7.782   2.391   4.617  1.2722  2.0561 -1.5205
32113SOL    HW2 3198   7.855   2.347   4.742 -2.5434  2.1953  0.9450
32114SOL     OW 3199   8.486   1.688   4.761  0.1365  0.3781  0.5330
32114SOL    HW1 3200   8.552   1.657   4.822  1.1810  3.3204  1.0615
32114SOL    HW2 3201   8.428   1.742   4.813 -0.9340  0.2768 -0.5033
32115SOL     OW 3202   2.512   4.261   1.650 -0.5052  0.6962  0.0623
32115SOL    HW1 3203   2.533   4.339   1.701 -1.1960 -0.2415  1.8799
32115SOL    HW2 3204   2.587   4.249   1.592 -0.1215  2.3559  0.1637
32116SOL     OW 3205   0.715   7.203   9.237 -1.5211 -0.3267 -0.3572
32116SOL    HW1 3206   0.630   7.234   9.205 -1.6709 -0.3130  0.0451
32116SOL    HW2 3207   0.758   7.166   9.160 -1.4304  0.6721 -0.8012
32117SOL     OW 3208   8.270   0.064   1.361  0.0032 -0.5591  0.1177
32117SOL    HW1 3209   8.350   0.079   1.310 -1.0939  3.1516 -0.7458
32117SOL    HW2 3210   8.284   0.112   1.442 -1.3385  0.1226 -0.0401
32118SOL     OW 3211  10.423   3.724   9.749 -0.2155 -0.5178  0.2934
32118SOL    HW1 3212  10.352   3.753   9.692 -0.3490 -2.0094 -0.3569
32118SOL    HW2 3213  10.448   3.639   9.714  3.4042  0.8305 -0.8971
32119SOL     OW 3214   0.038   5.680   7.504  0.4126 -0.1505 -0.2492
32119SOL    HW1 3215  -0.029   5.749   7.504 -0.1372 -0.6789 -0.4803
32119SOL    HW2 3216   0.072   5.680   7.593 -1.6850 -1.5749  0.6314
32120SOL     OW 3217  12.280   3.388  10.072 -0.2014  0.0283  0.0611
32120SOL    HW1 3218  12.252   3.323  10.008  1.5295 -1.6674  0.9401
32120SOL    HW2 3219  12.201   3.439  10.091 -1.5281 -1.5952 -0.9017
32121SOL     OW 3220  12.229   5.666   3.577 -0.2919  0.2483 -0.1695
32121SOL    HW1 3221  12.289   5.613   3.629  0.8512  0.6898 -1.0177
32121SOL    HW2 3222  12.257   5.654   3.487  0.0350  2.3055 -0.3984
32122SOL     OW 3223   5.658   1.163   3.556  0.2036 -0.3072  0.0497
32122SOL    HW1 3224   5.587   1.227   3.558  0.0177 -0.4948 -0.4028
32122SOL    HW2 3225   5.650   1.114   3.638 -0.2460 -0.3855 -0.0413
32123SOL     OW 3226  11.904   1.618   3.522 -0.7049 -0.7732  0.4274
32123SOL    HW1 3227  11.861   1.538   3.489 -1.0435 -0.9557  1.3005
32123SOL    HW2 3228  11.895   1.680   3.450 -1.3102 -1.2136  0.1079
32124SOL     OW 3229   6.770  11.544  12.506 -0.4812 -0.4059  0.6402
32124SOL    HW1 3230   6.799  11.498  12.428  0.2330  0.8170  0.1584
32124SOL    HW2 3231   6.844  11.600  12.530  0.1463 -2.1825  3.3796
32125SOL     OW 3232   5.450   1.921   8.060  0.6443  0.4666  0.0507
32125SOL    HW1 3233   5.360   1.912   8.091  0.3267  0.9730 -0.6842
32125SOL    HW2 3234   5.504   1.894   8.134 -0.0955  0.8915  0.7685
32126SOL     OW 3235   9.891   0.519   0.780  0.2159  0.0494  0.8141
32126SOL    HW1 3236   9.845   0.514   0.863 -0.1853 -0.3501  0.5756
32126SOL    HW2 3237   9.845   0.589   0.732  1.7897  1.7910  1.7184
32127SOL     OW 3238   3.009   1.313   1.617 -0.1448 -0.5081 -0.3076
32127SOL    HW1 3239   3.092   1.361   1.617 -0.9676  1.1023  2.1232
32127SOL    HW2 3240   3.033   1.222   1.630  1.3893 -0.7165 -3.5215
32128SOL     OW 3241   9.971   5.864   7.160  0.1345 -0.1366  0.2054
32128SOL    HW1 3242   9.977   5.792   7.223  1.6009  0.1614  0.4654
32128SOL    HW2 3243   9.968   5.821   7.075  0.4710 -0.5317  0.3852
32129SOL     OW 3244  10.397   7.006  11.491 -0.3627 -0.0057 -0.4614
32129SOL    HW1 3245  10.309   6.976  11.513 -1.4269  3.4499  0.6612
32129SOL    HW2 3246  10.430   7.046  11.571  1.8401 -0.2529 -1.1637
32130SOL     OW 3247   5.612   2.294   2.583  0.3309  0.7919 -0.3293
32130SOL    HW1 3248   5.544   2.321   2.521 -1.5538 -0.2045  1.2010
32130SOL    HW2 3249   5.603   2.199   2.589  0.8892  0.7992  0.9751
32131SOL     OW 3250   3.820   5.419   5.625 -0.4245 -0.2441  0.1022
32131SOL    HW1 3251   3.806   5.325   5.624 -0.6962 -0.2057  0.1162
32131SOL    HW2 3252   3.810   5.447   5.534  0.2492 -0.3084  0.0006
32132SOL     OW 3253   7.368  12.409   8.928  0.1676 -0.0399  0.1001
32132SOL    HW1 3254   7.322  12.411   8.844 -0.5079 -0.7529  0.4389
32132SOL    HW2 3255   7.336  12.329   8.971  0.5125  0.3103  1.0346
32133SOL     OW 3256   6.041   8.933   6.830  0.0509  0.2005  0.0389
32133SOL    HW1 3257   5.964   8.880   6.850 -0.1695  0.8797  1.0581
32133SOL    HW2 3258   6.024   9.018   6.871  1.0038  0.6154 -0.3804
32134SOL     OW 3259  11.310   1.675   4.740 -0.2163  0.5550  0.5016
32134SOL    HW1 3260  11.299   1.769   4.728 -0.7757  0.5759  1.1417
32134SOL    HW2 3261  11.367   1.667   4.817 -0.2805  0.3658  0.5290
32135SOL     OW 3262   3.020   5.854   8.095 -0.0117 -0.0157  0.4656
32135SOL    HW1 3263   3.100   5.905   8.086  0.7641 -1.5552 -2.8264
32135SOL    HW2 3264   3.047   5.774   8.142  0.3187 -0.3308 -0.2451
32136SOL     OW 3265   1.463   8.903   6.590 -0.2368  0.1846 -0.2955
32136SOL    HW1 3266   1.396   8.850   6.634 -0.5493  0.6979 -0.1400
32136SOL    HW2 3267   1.541   8.848   6.590 -1.1685 -1.2680 -2.3364
32137SOL     OW 3268   4.820  11.403   7.087  0.9475 -0.9451  0.2441
32137SOL    HW1 3269   4.871  11.352   7.025 -1.2985 -0.8887 -1.7641
32137SOL    HW2 3270   4.781  11.339   7.146 -0.2170 -1.4030 -0.9964
32138SOL     OW 3271   1.737   5.395   4.554 -0.0569 -0.1724 -0.2079
32138SOL    HW1 3272   1.810   5.457   4.553 -0.9007  0.9258  1.9476
32138SOL    HW2 3273   1.664   5.444   4.515  0.2322 -1.2309 -2.2535
32139SOL     OW 3274   3.027  12.446  11.254  0.1549 -0.5365 -0.5500
32139SOL    HW1 3275   3.109  12.486  11.224 -0.2411 -0.1191 -1.0833
32139SOL    HW2 3276   3.038  12.352  11.235  0.6496 -0.5355 -0.2908
32140SOL     OW 3277   6.844  12.392  11.028  0.5241 -0.3609  0.4577
32140SOL    HW1 3278   6.896  12.313  11.012 -0.9808 -1.2437 -0.2518
32140SOL    HW2 3279   6.855  12.444  10.948 -1.2187 -1.4662 -0.5617
32141SOL     OW 3280   1.910   8.950   7.861  0.2043  0.8319  0.1099
32141SOL    HW1 3281   2.006   8.945   7.858  0.1248 -0.3874 -0.9946
32141SOL    HW2 3282   1.892   9.044   7.865  1.4338  1.1198 -0.4459
32142SOL     OW 3283   7.687  10.688   9.822 -0.2020  0.3831  0.0946
32142SOL    HW1 3284   7.754  10.705   9.757  1.3957  0.8687  1.7896
32142SOL    HW2 3285   7.704  10.752   9.892 -1.4990 -0.4611  1.2391
32143SOL     OW 3286   9.502   4.585   5.915 -0.0673  0.1846 -0.2471
32143SOL    HW1 3287   9.499   4.648   5.987 -0.4629 -2.2597  2.0568
32143SOL    HW2 3288   9.590   4.548   5.919 -0.3989 -0.6431 -0.3993
32144SOL     OW 3289   6.295  11.139   9.292 -0.3326  0.4067  0.5919
32144SOL    HW1 3290   6.234  11.113   9.224  1.3407 -2.0419 -0.1072
32144SOL    HW2 3291   6.259  11.220   9.328 -1.7735  1.2690 -2.5163
32145SOL     OW 3292   0.928   3.959   7.895 -0.6622  0.6290  0.1765
32145SOL    HW1 3293   0.962   3.991   7.811  1.3284 -0.7444  0.3814
32145SOL    HW2 3294   0.935   3.864   7.889 -1.4119  0.4706  1.5345
32146SOL     OW 3295  10.781   7.676   9.146 -0.0517 -0.5863  0.6970
32146SOL    HW1 3296  10.868   7.646   9.117 -0.2069 -1.2268  0.8825
32146SOL    HW2 3297  10.721   7.611   9.109 -0.8027  1.5449 -2.1741
32147SOL     OW 3298   7.243   9.556   7.449 -0.2237  0.3440  0.0723
32147SOL    HW1 3299   7.203   9.487   7.502 -0.6314  0.7378  0.2816
32147SOL    HW2 3300   7.291   9.610   7.512  2.4953 -1.3063 -0.3752
32148SOL     OW 3301  12.127  12.518   1.643  0.3265 -0.0803 -0.2934
32148SOL    HW1 3302  12.206  12.573   1.644  0.0641  0.3416  1.5285
32148SOL    HW2 3303  12.062  12.571   1.597 -0.2817  1.8251  2.4428
32149SOL     OW 3304   2.514   4.903   6.859 -0.8289  0.7616 -0.1035
32149SOL    HW1 3305   2.573   4.971   6.827 -0.8917  0.1897 -1.4810
32149SOL    HW2 3306   2.429   4.925   6.822 -1.4059  1.2736  1.4303
32150SOL     OW 3307  10.673   9.382  11.218 -0.4466 -0.0053  0.0891
32150SOL    HW1 3308  10.697   9.425  11.300  0.4763  1.6342 -0.9841
32150SOL    HW2 3309  10.577   9.386  11.216 -0.3981  1.6796  0.2211
32151SOL     OW 3310   5.653   8.825   8.299 -0.1796  0.1724  1.0913
32151SOL    HW1 3311   5.637   8.755   8.236  1.4525  0.6465  0.0830
32151SOL    HW2 3312   5.710   8.785   8.365 -0.0694  0.2653  1.0543
32152SOL     OW 3313   0.871   5.215   9.372  0.5007  0.4034  0.3612
32152SOL    HW1 3314   0.861   5.124   9.343 -0.2306  0.0856  1.5681
32152SOL    HW2 3315   0.959   5.240   9.342  0.6784 -0.6683 -0.0528
32153SOL     OW 3316   1.300   1.353   9.924 -0.3868 -0.1882 -0.2301
32153SOL    HW1 3317   1.273   1.360   9.832 -1.4670  0.4109  0.1236
32153SOL    HW2 3318   1.372   1.290   9.922 -0.5523 -0.3738 -1.4523
32154SOL     OW 3319   5.273   6.922   2.030 -0.1004  0.2426  0.2277
32154SOL    HW1 3320   5.347   6.862   2.023  0.6303  0.7387  2.7025
32154SOL    HW2 3321   5.199   6.872   1.994  1.0971 -0.8370 -0.8649
32155SOL     OW 3322   7.219   6.654   7.816 -0.0315  0.3346 -0.5145
32155SOL    HW1 3323   7.169   6.709   7.877  0.0233  0.9753 -1.0249
32155SOL    HW2 3324   7.156   6.590   7.784 -0.4005  0.7967 -0.7390
32156SOL     OW 3325   8.390   7.426   0.761 -0.6572 -0.0393 -0.5838
32156SOL    HW1 3326   8.415   7.335   0.781  0.7168  0.4856  0.1919
32156SOL    HW2 3327   8.425   7.441   0.673  1.3859  0.5128  0.2768
32157SOL     OW 3328   4.794   9.500   5.800 -0.4092 -0.5227  0.0494
32157SOL    HW1 3329   4.832   9.571   5.853 -4.4923  2.0180 -0.0294
32157SOL    HW2 3330   4.835   9.511   5.714 -0.3460  1.3000  0.2628
32158SOL     OW 3331   6.810   9.024   7.131 -0.2151 -0.0861 -0.1538
32158SOL    HW1 3332   6.790   9.020   7.225  1.8141  0.9159  0.3731
32158SOL    HW2 3333   6.882   8.963   7.119  1.6821  2.0503 -0.3720
32159SOL     OW 3334   9.225   5.755   8.510 -0.0683 -0.6631  0.0513
32159SOL    HW1 3335   9.141   5.784   8.474 -0.1325 -3.0680 -1.9996
32159SOL    HW2 3336   9.204   5.724   8.598 -1.2511 -0.8302 -0.2750
32160SOL     OW 3337  11.428  11.254   0.438  0.5594  0.3825  1.1235
32160SOL    HW1 3338  11.372  11.179   0.418 -0.7040  1.3209  1.0285
32160SOL    HW2 3339  11.393  11.325   0.384  1.7997  1.0321  1.1292
32161SOL     OW 3340  11.015   9.643  10.605 -0.3122 -0.2047 -0.1245
32161SOL    HW1 3341  11.033   9.713  10.668 -0.3072 -0.8022  0.5461
32161SOL    HW2 3342  11.097   9.635  10.555 -0.1769 -0.0109  0.0623
32162SOL     OW 3343   7.415   9.638   2.559  0.0118 -0.2000  0.6309
32162SOL    HW1 3344   7.394   9.692   2.482 -1.1432  1.1164  1.8120
32162SOL    HW2 3345   7.510   9.631   2.557  0.0507  0.2875 -0.5979
32163SOL     OW 3346  11.597   3.660   8.484  0.5855  0.6751  0.3200
32163SOL    HW1 3347  11.545   3.591   8.441  1.2591 -0.5278  1.3733
32163SOL    HW2 3348  11.673   3.671   8.428 -0.3002  1.7852 -0.7349
32164SOL     OW 3349   9.219   0.026  11.502 -0.1469  0.0264 -0.6257
32164SOL    HW1 3350   9.288   0.087  11.477 -1.9921  2.0597 -1.0935
32164SOL    HW2 3351   9.180  -0.002  11.419 -1.1238  0.4617 -0.3343
32165SOL     OW 3352   9.104   0.353   5.362  0.0414  0.7728  0.2692
32165SOL    HW1 3353   9.130   0.333   5.452 -0.3417  0.7026  0.3658
32165SOL    HW2 3354   9.187   0.366   5.315  0.2264  2.8972  1.1013
32166SOL     OW 3355   7.329   1.874   9.804  0.2804  0.3229  0.0666
32166SOL    HW1 3356   7.396   1.807   9.796  0.0375 -0.3924  2.8389
32166SOL    HW2 3357   7.377   1.954   9.824  0.4372  0.3917 -0.5861
32167SOL     OW 3358   8.243  12.117   5.643 -0.0241 -0.4484 -0.8556
32167SOL    HW1 3359   8.201  12.164   5.715  0.7696  0.1205 -0.7421
32167SOL    HW2 3360   8.256  12.028   5.677 -1.3089 -0.6974 -0.9808
32168SOL     OW 3361   0.849   1.607   9.013 -0.3487 -0.4378  0.2770
32168SOL    HW1 3362   0.818   1.559   9.089  0.1199 -1.9140 -0.4304
32168SOL    HW2 3363   0.800   1.690   9.015 -1.6962 -1.2230  1.1432
32169SOL     OW 3364   0.702  10.332   4.027 -0.2615  0.5651  0.0718
32169SOL    HW1 3365   0.669  10.302   4.112  1.6760  0.0487  0.6923
32169SOL    HW2 3366   0.791  10.362   4.045  0.4456 -0.2036 -1.8969
32170SOL     OW 3367   7.378   9.070   0.244 -0.0289 -0.0846 -0.0609
32170SOL    HW1 3368   7.439   9.023   0.187 -0.3564 -0.7506  0.1241
32170SOL    HW2 3369   7.310   9.102   0.185 -0.0417 -0.2401 -0.1316
32171SOL     OW 3370   8.809  10.190  11.096 -0.3566 -0.2650  0.0912
32171SOL    HW1 3371   8.896  10.204  11.134 -0.3621  1.0771 -0.3132
32171SOL    HW2 3372   8.752  10.250  11.144 -1.0293 -1.0194  0.2448
32172SOL     OW 3373   7.537   2.719  12.426 -0.3036  0.0764 -0.7722
32172SOL    HW1 3374   7.519   2.641  12.375  0.4772  1.0160 -2.5881
32172SOL    HW2 3375   7.451   2.751  12.452 -0.6815 -0.8135 -0.9067
32173SOL     OW 3376   9.919   0.398   1.239 -0.2629  0.2592  0.0043
32173SOL    HW1 3377   9.875   0.403   1.153 -0.8182  1.2010  0.3222
32173SOL    HW2 3378   9.954   0.310   1.243 -0.2298  0.1966 -1.2018
32174SOL     OW 3379  11.701  10.252   0.695  0.2902 -0.1437  0.0605
32174SOL    HW1 3380  11.735  10.168   0.665  1.6603  0.4710 -0.2135
32174SOL    HW2 3381  11.607  10.237   0.707  0.0234 -1.0080 -2.4532
32175SOL     OW 3382   0.230   8.274   5.827  0.4208 -0.1277 -0.2602
32175SOL    HW1 3383   0.301   8.331   5.798  2.0177 -1.9634 -0.2167
32175SOL    HW2 3384   0.272   8.189   5.842 -1.6026 -1.0193  0.8439
32176SOL     OW 3385   6.621   2.490   0.803 -0.4567  0.5185 -0.5054
32176SOL    HW1 3386   6.638   2.479   0.709 -0.2633  0.3031 -0.4445
32176SOL    HW2 3387   6.663   2.572   0.826  1.2865 -0.4375 -0.1610
32177SOL     OW 3388   6.395   2.487  12.460  0.6421 -0.0435  0.0696
32177SOL    HW1 3389   6.483   2.449  12.470  0.4391 -0.3073  0.9809
32177SOL    HW2 3390   6.338   2.412  12.447  0.5841  0.1487 -0.8066
32178SOL     OW 3391   3.306   6.229  12.267 -0.2247  0.4638  0.0435
32178SOL    HW1 3392   3.215   6.204  12.283 -0.2648  0.9695  0.6011
32178SOL    HW2 3393   3.300   6.306  12.210 -0.1612  0.7842  0.4649
32179SOL     OW 3394  10.948   4.088   1.874 -0.4042 -0.5329  0.2217
32179SOL    HW1 3395  10.872   4.136   1.841  0.5237  0.6250 -0.2766
32179SOL    HW2 3396  10.972   4.134   1.954  0.1674 -0.5004  0.0315
32180SOL     OW 3397   1.898   3.262  11.666  0.0673  0.3993  0.1055
32180SOL    HW1 3398   1.958   3.332  11.690  0.1662 -0.4136  2.5942
32180SOL    HW2 3399   1.945   3.182  11.687 -1.1631 -0.3177  0.2469
32181SOL     OW 3400   8.095   6.031  10.044  1.0132 -0.5116  0.0151
32181SOL    HW1 3401   8.074   5.983   9.964  2.0021 -0.8107 -0.0802
32181SOL    HW2 3402   8.081   5.968  10.114  2.0856 -0.8934 -0.0923
32182SOL     OW 3403  11.081  12.154  11.227 -0.0513 -0.0033 -0.4483
32182SOL    HW1 3404  11.091  12.086  11.160  2.2791  2.3328 -2.7524
32182SOL    HW2 3405  11.032  12.224  11.183  0.5744  1.1592  0.6394
32183SOL     OW 3406  11.159  10.760   2.687 -0.2985  0.0232 -0.3946
32183SOL    HW1 3407  11.225  10.732   2.751 -0.2788  0.8135 -0.0430
32183SOL    HW2 3408  11.079  10.716   2.714 -0.1643 -0.0695 -0.1454
32184SOL     OW 3409   0.482  11.451  11.558  0.1554  0.3931  0.0696
32184SOL    HW1 3410   0.508  11.408  11.640 -1.7109  0.4155  0.7086
32184SOL    HW2 3411   0.457  11.540  11.583  0.5570  0.7325 -0.6935
32185SOL     OW 3412   6.486   9.786  11.755  0.2069  0.4276  0.4776
32185SOL    HW1 3413   6.412   9.778  11.815  0.3162  0.3854  0.6046
32185SOL    HW2 3414   6.479   9.708  11.699  1.1515 -0.4837  1.5801
32186SOL     OW 3415   8.134  12.112   1.372  0.8287  0.0780 -0.6066
32186SOL    HW1 3416   8.178  12.157   1.300  1.4880  1.3392  0.5290
32186SOL    HW2 3417   8.158  12.162   1.450 -1.2653 -0.1972  0.2979
32187SOL     OW 3418  11.014   0.074  10.869  0.2705  0.2934 -0.2395
32187SOL    HW1 3419  11.068   0.136  10.820  0.1767 -0.0371 -0.7757
32187SOL    HW2 3420  10.925   0.108  10.862  0.4825  1.2584  1.2961
32188SOL     OW 3421  10.946  10.366   9.954 -0.0076  0.8208  0.2442
32188SOL    HW1 3422  10.892  10.440   9.982 -1.8287 -0.2524 -0.2364
32188SOL    HW2 3423  10.930  10.299  10.020 -2.3626 -0.8429 -1.7815
32189SOL     OW 3424   9.590   8.779   8.655 -0.3074  0.2527  0.0154
32189SOL    HW1 3425   9.540   8.697   8.664  0.5424 -0.1762  1.0447
32189SOL    HW2 3426   9.537   8.844   8.703 -0.9136  0.2952 -0.6869
32190SOL     OW 3427   3.650   1.178   4.076  0.5613  0.0850  0.0260
32190SOL    HW1 3428   3.666   1.154   4.167 -0.6991 -1.2612 -0.0730
32190SOL    HW2 3429   3.586   1.249   4.082  1.1216  0.5890  0.1939
32191SOL     OW 3430   9.490   4.739   6.569 -0.5531 -0.3862  0.6147
32191SOL    HW1 3431   9.568   4.792   6.553 -1.0721  0.4915  0.9420
32191SOL    HW2 3432   9.473   4.696   6.485  1.0766 -1.7007  0.9072
32192SOL     OW 3433  11.736   7.306   5.636  0.0312  0.3553  0.1631
32192SOL    HW1 3434  11.773   7.367   5.572  2.0896 -1.7504 -0.7900
32192SOL    HW2 3435  11.662   7.354   5.675  0.5157  2.7897 -1.6800
32193SOL     OW 3436  12.140   4.449  11.055  0.0226  0.2456  0.0362
32193SOL    HW1 3437  12.153   4.527  11.108  0.5804 -0.6646  1.2710
32193SOL    HW2 3438  12.094   4.388  11.113  1.6745 -1.2000 -0.0885
32194SOL     OW 3439   4.289   9.015  11.182 -0.3161 -0.4204 -0.1564
32194SOL    HW1 3440   4.333   9.004  11.097 -3.5292  0.0827 -2.0326
32194SOL    HW2 3441   4.260   8.927  11.205 -1.4702 -0.2194 -0.7984
32195SOL     OW 3442   0.444  11.303   5.051 -0.1769 -0.9974  0.0971
32195SOL    HW1 3443   0.416  11.377   5.105 -0.5195 -1.6335  0.8089
32195SOL    HW2 3444   0.539  11.300   5.064 -0.1327 -0.5441 -0.1132
32196SOL     OW 3445   3.666   8.187   1.246  0.3547 -0.7287 -0.0170
32196SOL    HW1 3446   3.658   8.271   1.201  0.5732  0.1405  1.5065
32196SOL    HW2 3447   3.578   8.148   1.241  0.3718 -0.6502 -1.1436
32197SOL     OW 3448  11.004   0.471  10.397 -0.6739  0.3673 -0.4756
32197SOL    HW1 3449  10.995   0.549  10.452 -0.4378  0.0777 -0.0241
32197SOL    HW2 3450  10.934   0.413  10.427  1.1195 -0.9168  1.4110
32198SOL     OW 3451   5.266   6.029   7.702 -0.4375 -0.1881  0.1424
32198SOL    HW1 3452   5.261   6.119   7.734  0.3138  0.6340 -1.8844
32198SOL    HW2 3453   5.342   5.992   7.746 -0.9602  0.0360  1.2598
32199SOL     OW 3454   0.672   1.195   3.997 -0.0912  0.3754 -0.4785
32199SOL    HW1 3455   0.594   1.247   4.016  0.7907  2.0225 -1.1477
32199SOL    HW2 3456   0.743   1.242   4.040  0.6152 -0.8338 -0.2780
32200SOL     OW 3457   1.382   9.828   7.680 -0.5422  0.3372 -0.8523
32200SOL    HW1 3458   1.316   9.762   7.697  0.1261 -0.2059 -0.3160
32200SOL    HW2 3459   1.364   9.897   7.744  1.1310 -1.0930  1.2791
32201SOL     OW 3460   3.327  12.425  11.262 -0.0179 -0.0255 -0.1033
32201SOL    HW1 3461   3.361  12.431  11.173 -0.3063 -1.8916 -0.3600
32201SOL    HW2 3462   3.399  12.389  11.313  0.0272  0.7070  0.3733
32202SOL     OW 3463  10.216   2.325   4.041 -0.9673 -0.2508  0.1878
32202SOL    HW1 3464  10.211   2.288   4.129 -0.6746 -1.6832 -0.3762
32202SOL    HW2 3465  10.309   2.342   4.028 -0.7625 -1.7172 -0.4804
32203SOL     OW 3466   0.889   2.703   7.455 -0.0547  0.2071 -0.0729
32203SOL    HW1 3467   0.844   2.787   7.459  0.2875  0.4038 -0.2986
32203SOL    HW2 3468   0.877   2.674   7.365 -1.5338 -0.7529  0.4011
32204SOL     OW 3469  11.171   5.572   0.537  0.6138 -0.4166  0.6342
32204SOL    HW1 3470  11.079   5.546   0.541  0.6796 -0.8549 -0.3035
32204SOL    HW2 3471  11.172   5.650   0.481  0.7990 -0.3705  0.7009
32205SOL     OW 3472  10.624   5.852  11.097  0.1104 -0.1182  0.0276
32205SOL    HW1 3473  10.670   5.800  11.030 -1.1659  0.0546 -1.0275
32205SOL    HW2 3474  10.661   5.940  11.089 -0.3970  0.0287 -0.8391
32206SOL     OW 3475   4.311  12.082   2.221 -0.5001  0.4672  0.1867
32206SOL    HW1 3476   4.257  12.025   2.167  0.4070 -1.3535  1.1017
32206SOL    HW2 3477   4.401  12.060   2.196 -0.1010  0.4408  1.5524
32207SOL     OW 3478   0.189  10.444  10.490  0.0176 -0.3547 -0.0611
32207SOL    HW1 3479   0.155  10.415  10.406  1.3607  0.7299 -1.0317
32207SOL    HW2 3480   0.284  10.447  10.478  0.1868  0.5450  1.2443
32208SOL     OW 3481   2.546   8.235   2.498 -0.3553 -0.4021 -0.0213
32208SOL    HW1 3482   2.599   8.216   2.576 -1.7670 -2.7070  0.4597
32208SOL    HW2 3483   2.608   8.228   2.425  0.8448  1.1376  0.7746
32209SOL     OW 3484   4.344   5.337  12.373 -0.1714  0.1495  0.2735
32209SOL    HW1 3485   4.252   5.317  12.392 -0.3495  1.4746  0.8513
32209SOL    HW2 3486   4.343   5.426  12.339  0.9461  0.3262  0.6747
32210SOL     OW 3487   6.455  11.086  10.066 -0.3512  0.0788 -0.0948
32210SOL    HW1 3488   6.544  11.087  10.101 -0.3451  0.4502 -0.1176
32210SOL    HW2 3489   6.406  11.145  10.123  0.3028  3.0387 -2.3629
32211SOL     OW 3490   6.524  11.739   6.565 -0.2760  0.3165 -0.0550
32211SOL    HW1 3491   6.500  11.797   6.637  1.7612  1.0117  0.1256
32211SOL    HW2 3492   6.511  11.651   6.600 -2.5818  0.5957 -0.0486
32212SOL     OW 3493   4.556   7.049   2.696  0.2401 -0.3772 -0.4523
32212SOL    HW1 3494   4.507   6.987   2.749 -1.9051 -0.7348 -2.6201
32212SOL    HW2 3495   4.501   7.128   2.696  1.9896  0.9057  0.7221
32213SOL     OW 3496   7.900   5.675   7.880  0.1782 -0.2839  0.6098
32213SOL    HW1 3497   7.930   5.734   7.811 -0.0931 -1.3088 -0.4264
32213SOL    HW2 3498   7.957   5.598   7.873 -0.0778 -0.5450  1.2982
32214SOL     OW 3499   8.633   0.033   5.911  0.1683  0.3263  0.2804
32214SOL    HW1 3500   8.615  -0.044   5.965  0.3031  1.2629  1.7156
32214SOL    HW2 3501   8.612   0.005   5.822  0.7051 -1.5186  0.6848
32215SOL     OW 3502   5.802  11.887   4.199 -0.6777 -0.0099 -0.0344
32215SOL    HW1 3503   5.865  11.851   4.135  0.2693 -0.4806  1.1220
32215SOL    HW2 3504   5.717  11.859   4.167 -0.1210 -1.4320 -0.3666
32216SOL     OW 3505  12.385   1.961   0.034 -0.6386 -0.2424  0.4197
32216SOL    HW1 3506  12.349   1.968   0.123 -0.5023  0.5517  0.4186
32216SOL    HW2 3507  12.445   2.035   0.027 -0.0532 -0.7614 -0.0675
32217SOL     OW 3508   1.039   1.606   9.354 -0.4988 -0.4320 -0.5688
32217SOL    HW1 3509   1.076   1.603   9.265  0.0903 -0.5714 -0.3180
32217SOL    HW2 3510   1.020   1.515   9.375 -1.8993 -0.2877 -1.0664
32218SOL     OW 3511   3.611   5.030  12.070 -0.0114  0.3990 -0.3195
32218SOL    HW1 3512   3.668   4.974  12.018  1.2468  0.8166  0.5554
32218SOL    HW2 3513   3.578   4.974  12.140 -0.0960  0.3354 -0.4103
32219SOL     OW 3514   2.707  10.556   0.636  0.1683 -0.0684  0.2432
32219SOL    HW1 3515   2.724  10.648   0.614  1.8258 -0.3599  0.1913
32219SOL    HW2 3516   2.766  10.507   0.579  0.8830 -1.0531  1.7706
32220SOL     OW 3517   7.222   8.112   6.402 -0.0011  0.0542 -0.1509
32220SOL    HW1 3518   7.300   8.141   6.450  1.0728 -0.1293 -1.7074
32220SOL    HW2 3519   7.226   8.160   6.319 -1.5540  0.0155 -0.2657
32221SOL     OW 3520   6.220   1.532   3.473  0.1385  0.2392  0.3244
32221SOL    HW1 3521   6.217   1.625   3.493 -0.5531  1.0438 -2.9573
32221SOL    HW2 3522   6.139   1.496   3.511 -0.5504  1.3748 -0.0429
32222SOL     OW 3523   1.715   2.552   9.016  0.2347  0.0261 -0.7005
32222SOL    HW1 3524   1.649   2.581   9.079  0.1116 -0.0361 -0.8019
32222SOL    HW2 3525   1.694   2.599   8.935 -1.1248 -1.7498 -1.4291
32223SOL     OW 3526   1.779   7.751   6.147  0.6447 -0.3710  0.3570
32223SOL    HW1 3527   1.734   7.783   6.225  0.0837 -1.7161  0.6114
32223SOL    HW2 3528   1.793   7.829   6.094  1.9457  0.7622  2.2223
32224SOL     OW 3529  10.532  10.532   9.477 -0.1236  0.0297  0.0834
32224SOL    HW1 3530  10.569  10.549   9.390 -1.7562  0.4006 -0.5723
32224SOL    HW2 3531  10.491  10.614   9.502 -0.6095 -0.3993  0.7150
32225SOL     OW 3532   0.179   1.915   4.844 -0.6126  0.4166 -0.0867
32225SOL    HW1 3533   0.135   1.997   4.867 -2.0916 -0.7716  1.6111
32225SOL    HW2 3534   0.109   1.860   4.810  0.6324  0.3120 -2.7208
32226SOL     OW 3535   0.230   3.393   0.066  0.3471 -0.8716 -0.0737
32226SOL    HW1 3536   0.305   3.452   0.051 -0.5206  0.0471 -0.9887
32226SOL    HW2 3537   0.199   3.372  -0.022 -1.1716 -0.2937  0.2923
32227SOL     OW 3538   7.386   3.112   2.046  0.2695  0.7572  0.4730
32227SOL    HW1 3539   7.333   3.169   2.102 -0.9953  0.7000 -0.6037
32227SOL    HW2 3540   7.472   3.153   2.045 -0.1790  1.7567  1.0112
32228SOL     OW 3541   9.496   2.504   1.266 -0.1744  0.1841  0.0751
32228SOL    HW1 3542   9.426   2.525   1.204  0.7256 -0.7608 -1.3183
32228SOL    HW2 3543   9.489   2.410   1.280 -0.0939  0.3126  1.1101
32229SOL     OW 3544   6.604   2.036   3.269  0.0481 -0.0707 -0.9540
32229SOL    HW1 3545   6.670   1.983   3.225 -0.3174 -0.4935 -1.0016
32229SOL    HW2 3546   6.617   2.124   3.234 -1.1353 -0.6387 -2.9976
32230SOL     OW 3547   4.586   2.207   7.470  0.1243  0.8663 -0.4129
32230SOL    HW1 3548   4.659   2.268   7.463  0.5556  0.4487  0.3992
32230SOL    HW2 3549   4.581   2.165   7.384  2.9111 -1.4501  0.4081
32231SOL     OW 3550   2.730   2.985   4.735  0.1383 -0.4511 -0.4299
32231SOL    HW1 3551   2.680   3.062   4.708 -0.1031 -0.9133 -1.3167
32231SOL    HW2 3552   2.679   2.947   4.807  0.2043  0.1405 -0.0568
32232SOL     OW 3553   2.334  11.375   4.349  0.0787 -0.5845 -0.0562
32232SOL    HW1 3554   2.246  11.347   4.375  0.2115 -1.0885 -0.1505
32232SOL    HW2 3555   2.373  11.298   4.308 -0.0411  0.1206 -1.5629
32233SOL     OW 3556   8.739   9.543   4.556 -0.3838  0.0010  0.0646
32233SOL    HW1 3557   8.668   9.479   4.555 -0.7892  0.4549 -0.3438
32233SOL    HW2 3558   8.707   9.616   4.502  0.5801 -0.0031 -0.5375
32234SOL     OW 3559  11.902   6.385   7.680 -0.1724 -0.7225  1.0195
32234SOL    HW1 3560  11.959   6.446   7.633 -0.8083 -0.2473  0.8478
32234SOL    HW2 3561  11.832   6.366   7.618  0.8334 -2.8991  0.4573
32235SOL     OW 3562   5.823   0.310   3.161  0.3044 -0.0234 -0.5476
32235SOL    HW1 3563   5.853   0.231   3.115 -0.8411  0.1312 -1.6121
32235SOL    HW2 3564   5.758   0.277   3.224  0.0755  0.0298 -0.7553
32236SOL     OW 3565   7.172   5.740   7.493  0.0053  0.2892  0.1153
32236SOL    HW1 3566   7.192   5.725   7.400  0.9807  0.6848  0.2435
32236SOL    HW2 3567   7.162   5.652   7.529 -1.7492  0.1440 -0.6170
32237SOL     OW 3568   6.018   5.938  10.932 -0.4121 -0.3931 -0.0246
32237SOL    HW1 3569   5.966   5.884  10.992 -0.3628 -0.3326  0.0731
32237SOL    HW2 3570   6.025   6.023  10.976 -2.1916  0.3553 -1.0849
32238SOL     OW 3571   0.796  11.082  10.288  0.2047 -0.3696  0.5254
32238SOL    HW1 3572   0.755  11.021  10.226  0.2864 -0.8996  0.9880
32238SOL    HW2 3573   0.854  11.136  10.234 -0.4666 -0.1585 -0.0147
32239SOL     OW 3574   1.951   2.602   5.054 -0.6232 -0.0258 -0.2900
32239SOL    HW1 3575   1.971   2.519   5.096  1.2130  0.8819  0.7485
32239SOL    HW2 3576   2.036   2.643   5.038 -1.4938  2.3152  0.6106
32240SOL     OW 3577   1.112   6.964   7.381 -0.1003  0.2171 -0.0003
32240SOL    HW1 3578   1.154   6.885   7.416  0.3165  0.6876  0.5811
32240SOL    HW2 3579   1.183   7.028   7.375 -0.5171  0.6804 -0.0531
32241SOL     OW 3580  11.502  11.717   1.258  0.2684 -0.5419 -0.2311
32241SOL    HW1 3581  11.442  11.659   1.304 -0.9235 -0.2051 -1.2912
32241SOL    HW2 3582  11.485  11.701   1.166  0.9757  0.4118 -0.5481
32242SOL     OW 3583   4.433   9.383   6.892  0.2217  0.0749 -0.3006
32242SOL    HW1 3584   4.515   9.410   6.850  0.9690 -2.1190 -0.3804
32242SOL    HW2 3585   4.446   9.402   6.985 -0.4000  2.4732 -0.6308
32243SOL     OW 3586   1.244   0.205   4.062 -0.3815  0.3206 -0.1091
32243SOL    HW1 3587   1.178   0.137   4.047  0.1659 -0.0358 -0.9511
32243SOL    HW2 3588   1.256   0.247   3.977  0.0657  0.7716  0.1651
32244SOL     OW 3589   5.365   5.654  11.025 -0.1915 -0.2692  0.1172
32244SOL    HW1 3590   5.276   5.619  11.031  0.3951 -1.7385  1.2380
32244SOL    HW2 3591   5.413   5.588  10.973  0.2557  0.4720 -0.4247
32245SOL     OW 3592   7.525   1.633  10.263 -0.1821  0.1899 -0.1644
32245SOL    HW1 3593   7.607   1.621  10.311 -1.0925  0.5305  1.5645
32245SOL    HW2 3594   7.539   1.589  10.179  2.1096  1.1323 -0.3295
32246SOL     OW 3595   1.611   8.579   9.660 -0.2280  0.2435  0.0065
32246SOL    HW1 3596   1.618   8.674   9.670  0.3335  0.3240 -0.9853
32246SOL    HW2 3597   1.565   8.568   9.577  0.5713 -0.3530 -0.3612
32247SOL     OW 3598   5.529   2.868   6.754 -0.3498  0.7153  0.5429
32247SOL    HW1 3599   5.583   2.890   6.678  0.4418  0.8241  1.1195
32247SOL    HW2 3600   5.592   2.859   6.826 -1.1434  1.2674  1.3261
32248SOL     OW 3601   9.475   7.638  12.293 -0.2952  0.5030  0.3276
32248SOL    HW1 3602   9.518   7.608  12.212 -0.4823 -1.2392  0.8261
32248SOL    HW2 3603   9.546   7.672  12.347  0.3869 -1.4589  0.7526
32249SOL     OW 3604   9.151   9.846   1.430  0.2181 -0.1598  0.0724
32249SOL    HW1 3605   9.081   9.817   1.488  1.4695 -1.0456  1.2008
32249SOL    HW2 3606   9.109   9.854   1.344 -1.1910 -0.9259  0.6548
32250SOL     OW 3607   9.429   2.350   3.561 -0.2599  0.0375 -0.5947
32250SOL    HW1 3608   9.384   2.267   3.545  0.0969 -0.0109 -1.4081
32250SOL    HW2 3609   9.521   2.331   3.542  0.3079 -0.1088  1.9053
32251SOL     OW 3610   8.786   0.072   5.341  0.1464  0.8600 -0.6601
32251SOL    HW1 3611   8.841   0.003   5.302  0.6168  1.0157 -0.2840
32251SOL    HW2 3612   8.703   0.065   5.294  0.4430  0.5376 -1.1565
32252SOL     OW 3613  12.386   3.037   8.332  0.1511 -0.0215  0.5413
32252SOL    HW1 3614  12.458   2.974   8.324  0.0646 -0.0310 -0.3097
32252SOL    HW2 3615  12.426   3.122   8.312  0.0940  0.0855  0.8743
32253SOL     OW 3616   5.645   9.355   6.195 -0.0655  0.0579 -0.4400
32253SOL    HW1 3617   5.599   9.434   6.165 -1.9548 -0.9705 -0.4014
32253SOL    HW2 3618   5.651   9.365   6.290 -0.2455  0.1803 -0.4408
32254SOL     OW 3619   2.236   5.915   6.574  0.1480 -0.4749  0.2439
32254SOL    HW1 3620   2.188   5.837   6.603  2.5489 -1.3191  2.3561
32254SOL    HW2 3621   2.269   5.953   6.655 -0.4744  2.5072 -0.7914
32255SOL     OW 3622   5.954   5.587   3.567 -0.1958  0.5073  0.5185
32255SOL    HW1 3623   6.044   5.578   3.598 -0.2795 -0.6193  0.4787
32255SOL    HW2 3624   5.943   5.518   3.502 -0.7705  1.3102 -0.2756
32256SOL     OW 3625   4.925   2.296   6.056 -0.2085 -0.5842  0.0452
32256SOL    HW1 3626   5.007   2.315   6.010  0.9810 -0.9265  1.8725
32256SOL    HW2 3627   4.940   2.210   6.096 -1.1560 -0.3094  1.0328
32257SOL     OW 3628   9.875  12.062   8.354  0.1377 -0.3208  0.1455
32257SOL    HW1 3629   9.787  12.098   8.363 -0.1552 -0.9476 -0.1708
32257SOL    HW2 3630   9.908  12.098   8.271  2.4167  4.5549  2.7397
32258SOL     OW 3631   6.933   5.216   8.436  0.0485 -0.1151  0.2632
32258SOL    HW1 3632   6.858   5.156   8.445  0.0594 -0.0706  0.6976
32258SOL    HW2 3633   6.986   5.178   8.367 -0.0822 -0.4638  0.3506
32259SOL     OW 3634  11.562   6.891   1.182 -0.5803  0.7058 -0.0389
32259SOL    HW1 3635  11.594   6.937   1.105 -0.7134  1.0689  0.1231
32259SOL    HW2 3636  11.470   6.873   1.163 -0.0110 -1.4951 -1.0687
32260SOL     OW 3637   5.931   8.718   3.265 -0.0151  0.1972 -0.1313
32260SOL    HW1 3638   5.995   8.680   3.204  2.3560  1.0979  1.6284
32260SOL    HW2 3639   5.899   8.643   3.315 -0.4932 -0.2871 -1.1316
32261SOL     OW 3640  10.622   4.652  10.457 -0.6503  0.0559 -0.0896
32261SOL    HW1 3641  10.574   4.639  10.376  0.0471 -0.9713 -0.3671
32261SOL    HW2 3642  10.586   4.587  10.517  1.1495 -1.5827 -0.6811
32262SOL     OW 3643   9.155   6.970   4.390  0.0569 -0.0449  0.1486
32262SOL    HW1 3644   9.156   7.016   4.306  0.0870  0.3026  0.3349
32262SOL    HW2 3645   9.085   6.905   4.381 -0.7952  0.8192  0.2781
32263SOL     OW 3646   5.535   8.173   6.581  0.4363 -0.0823  0.5124
32263SOL    HW1 3647   5.535   8.192   6.488 -0.5020  0.6988  0.6580
32263SOL    HW2 3648   5.628   8.169   6.605  0.7079 -1.7376 -0.7193
32264SOL     OW 3649   5.226   2.001  10.358 -0.1629 -0.5259 -0.4153
32264SOL    HW1 3650   5.312   1.986  10.318 -0.4457 -0.3998 -1.0830
32264SOL    HW2 3651   5.190   2.075  10.310 -1.6211 -2.0234 -1.7721
32265SOL     OW 3652  12.407   9.554  11.642  0.2754  0.0443  0.3149
32265SOL    HW1 3653  12.493   9.571  11.680  0.4706  0.7861 -0.4099
32265SOL    HW2 3654  12.380   9.470  11.678  1.7558 -0.6939 -0.2455
32266SOL     OW 3655   7.496   5.419   8.012  0.2982  0.2846  0.3007
32266SOL    HW1 3656   7.466   5.500   8.053  0.2596  0.2881  0.2654
32266SOL    HW2 3657   7.469   5.427   7.921 -0.6026 -0.2106  0.5187
32267SOL     OW 3658   4.083   9.840   7.979 -0.2185 -0.0795  0.0935
32267SOL    HW1 3659   4.022   9.801   7.917  0.1057 -2.5140  1.2224
32267SOL    HW2 3660   4.045   9.823   8.065  0.6764  0.8673  0.7088
32268SOL     OW 3661  10.629  12.563   3.788  0.8367 -0.2848  0.1649
32268SOL    HW1 3662  10.589  12.492   3.738  0.5896 -0.5455  0.7232
32268SOL    HW2 3663  10.697  12.598   3.730 -1.2177  1.2472 -1.5003
32269SOL     OW 3664   8.008   1.960   2.415  0.1837  0.4051  0.1191
32269SOL    HW1 3665   7.984   1.913   2.336  2.1081 -2.7567  1.2286
32269SOL    HW2 3666   8.047   2.042   2.383  1.6428 -1.1119 -2.3220
32270SOL     OW 3667   9.159  11.469   9.128  0.6730 -0.2265  0.3923
32270SOL    HW1 3668   9.101  11.511   9.065  0.2991  0.8360  1.4135
32270SOL    HW2 3669   9.218  11.415   9.075  1.0640  1.4538 -0.9465
32271SOL     OW 3670   0.268   5.975   0.310  0.0193  0.5985  0.1987
32271SOL    HW1 3671   0.307   6.000   0.394 -0.3896  3.1010 -0.2912
32271SOL    HW2 3672   0.299   6.041   0.248  1.8116 -2.1800 -2.1185
32272SOL     OW 3673   0.932   4.613   1.773 -0.3764  0.0092  0.3078
32272SOL    HW1 3674   0.936   4.520   1.796  0.4824  0.4084  1.8784
32272SOL    HW2 3675   1.021   4.645   1.787 -0.5120  0.9509 -0.8273
32273SOL     OW 3676  12.466   2.501   6.713 -0.4920  0.0425  0.6275
32273SOL    HW1 3677  12.555   2.517   6.682 -0.0291  0.0170  1.8718
32273SOL    HW2 3678  12.434   2.588   6.739  0.2854 -0.3055  2.9480
32274SOL     OW 3679   4.438  11.707   2.136 -0.6053  0.1992  0.2766
32274SOL    HW1 3680   4.504  11.659   2.086 -0.4881  0.9276 -0.2766
32274SOL    HW2 3681   4.415  11.781   2.081 -1.5923  0.1835  0.6418
32275SOL     OW 3682   7.088  11.412  10.237 -0.1324  0.7619 -0.0773
32275SOL    HW1 3683   7.144  11.459  10.299 -0.0364 -0.0531  0.4591
32275SOL    HW2 3684   7.047  11.482  10.186  1.4842  1.3874 -0.6006
32276SOL     OW 3685   6.051   3.771   9.004  0.4379  0.3941 -0.0355
32276SOL    HW1 3686   6.110   3.846   9.010 -0.0717  0.8041 -0.1621
32276SOL    HW2 3687   6.030   3.765   8.911 -1.7531  1.8341  0.3120
32277SOL     OW 3688   3.092   7.365   8.546 -0.3898 -0.6985  0.0252
32277SOL    HW1 3689   3.164   7.317   8.505 -0.7930 -1.1886 -0.1140
32277SOL    HW2 3690   3.123   7.456   8.549  0.9828 -1.1802  1.6302
32278SOL     OW 3691   2.831   9.633   3.701  0.5547 -0.4836 -0.0342
32278SOL    HW1 3692   2.812   9.684   3.780  0.6877 -0.3186 -0.1061
32278SOL    HW2 3693   2.910   9.674   3.666  1.2803 -1.3924  0.4824
32279SOL     OW 3694   6.089   5.890   3.670  0.1208 -0.4490  0.4666
32279SOL    HW1 3695   6.030   5.919   3.600 -0.2332  1.0925  1.3583
32279SOL    HW2 3696   6.158   5.842   3.624 -0.7467 -0.5538 -0.7985
32280SOL     OW 3697   1.669  11.693   4.958  0.6215 -0.0668  0.7780
32280SOL    HW1 3698   1.747  11.701   4.902 -0.4196 -0.8719 -0.8698
32280SOL    HW2 3699   1.646  11.782   4.981 -0.6601  0.6658 -2.6713
32281SOL     OW 3700   2.822   2.381   0.269 -0.0692 -0.1049 -0.6965
32281SOL    HW1 3701   2.849   2.465   0.305  0.2860 -0.2885 -0.5295
32281SOL    HW2 3702   2.834   2.318   0.340 -2.0018 -0.0293 -0.2455
32282SOL     OW 3703   7.827   8.322   5.019 -0.0950  0.5083 -0.4505
32282SOL    HW1 3704   7.799   8.381   5.088 -1.9404 -0.4635 -0.3258
32282SOL    HW2 3705   7.790   8.359   4.939 -0.3634  0.0852 -0.5214
32283SOL     OW 3706   2.527  12.277   0.107 -0.1984 -0.3217  0.1400
32283SOL    HW1 3707   2.450  12.238   0.065  0.2754 -0.9257 -0.1895
32283SOL    HW2 3708   2.569  12.203   0.152 -1.0236  0.4164  2.2172
32284SOL     OW 3709   1.343  12.229   5.146 -0.3197 -0.3665 -0.1227
32284SOL    HW1 3710   1.274  12.190   5.199  0.5196 -1.7287  0.0213
32284SOL    HW2 3711   1.424  12.200   5.188  0.3462  0.3805 -0.8665
32285SOL     OW 3712  12.442   6.957   5.420  0.1329 -0.6234 -0.3341
32285SOL    HW1 3713  12.393   6.886   5.379 -1.3257  0.5899 -0.8276
32285SOL    HW2 3714  12.498   6.991   5.351  0.3089 -0.8387 -0.2979
32286SOL     OW 3715   2.697   5.231  10.500 -0.2078  0.1848  0.6429
32286SOL    HW1 3716   2.723   5.147  10.463  2.6367  1.8173 -1.4860
32286SOL    HW2 3717   2.702   5.218  10.595 -1.6936 -2.4642  0.4625
32287SOL     OW 3718   7.534  12.097   5.816 -0.2862  0.2144  0.1657
32287SOL    HW1 3719   7.564  12.143   5.737 -0.5029  1.7575  0.9414
32287SOL    HW2 3720   7.443  12.072   5.796  0.1263 -0.7170 -0.6064
32288SOL     OW 3721   1.364   7.141   4.069  0.1142  0.5642 -0.1295
32288SOL    HW1 3722   1.372   7.075   4.001 -0.3110  0.5596 -0.1812
32288SOL    HW2 3723   1.438   7.200   4.054  1.6973 -1.0093  1.1805
32289SOL     OW 3724   4.539   2.458   2.884 -0.3193  0.0153 -0.3106
32289SOL    HW1 3725   4.508   2.496   2.966 -0.8129  0.3974 -0.6719
32289SOL    HW2 3726   4.616   2.407   2.909 -0.3781  0.2523  0.3660
32290SOL     OW 3727  10.231   6.508  12.032  0.1741  0.0813 -0.0027
32290SOL    HW1 3728  10.296   6.573  12.058  1.7203 -1.7141  0.9459
32290SOL    HW2 3729  10.280   6.447  11.976 -0.8347 -0.9853  0.2255
32291SOL     OW 3730   6.583  11.700   7.803  0.6931 -0.1920 -0.0694
32291SOL    HW1 3731   6.571  11.780   7.853  0.6143 -1.3650  1.8772
32291SOL    HW2 3732   6.640  11.645   7.857 -0.5750 -2.0917 -0.5324
32292SOL     OW 3733  10.914   4.185  10.119  0.3636  0.2455  0.2939
32292SOL    HW1 3734  10.908   4.259  10.179  1.3679 -1.0983  2.1703
32292SOL    HW2 3735  10.846   4.124  10.148  0.1066  0.0453 -0.6796
32293SOL     OW 3736   0.463  12.095  12.063  0.4794  0.2968  0.8315
32293SOL    HW1 3737   0.475  12.001  12.076 -0.9880  0.1127  0.9501
32293SOL    HW2 3738   0.371  12.105  12.039  1.1794  1.4353 -1.7492
32294SOL     OW 3739   0.331   1.285   2.406  0.3399  0.0679 -0.1893
32294SOL    HW1 3740   0.265   1.271   2.475  0.8167  1.4923  0.5877
32294SOL    HW2 3741   0.287   1.341   2.343  1.0614  1.8102  0.7951
32295SOL     OW 3742  11.728   1.192  10.197 -0.1334 -0.2147  0.7735
32295SOL    HW1 3743  11.718   1.253  10.124 -0.5233  0.2600  1.2154
32295SOL    HW2 3744  11.746   1.107  10.155  0.2440  0.1664  0.1509
32296SOL     OW 3745   6.199   4.225  12.466  0.1519 -0.0076 -0.1113
32296SOL    HW1 3746   6.252   4.150  12.437  0.4774 -0.2287  0.9857
32296SOL    HW2 3747   6.189   4.279  12.388  0.4953 -0.8522 -0.7621
32297SOL     OW 3748   9.803  10.420  11.725  0.2750  0.6053 -0.2160
32297SOL    HW1 3749   9.872  10.448  11.784  0.2269 -1.1286  0.7205
32297SOL    HW2 3750   9.825  10.329  11.703 -2.5182 -0.6219  1.4713
32298SOL     OW 3751   9.236   9.031   2.205  0.6422 -0.3667  0.3411
32298SOL    HW1 3752   9.302   8.964   2.222  0.9825 -0.6114 -1.7707
32298SOL    HW2 3753   9.183   9.033   2.285  1.1676 -2.5120  0.7921
32299SOL     OW 3754   6.784   2.683   0.906  0.4112  0.2074  0.2190
32299SOL    HW1 3755   6.842   2.644   0.971  1.0613  1.2804  0.3131
32299SOL    HW2 3756   6.844   2.719   0.840 -0.1718  0.6478 -0.0788
32300SOL     OW 3757   4.848   5.331   3.287  0.7531  0.4740 -0.1122
32300SOL    HW1 3758   4.841   5.260   3.223 -1.7614  0.3604  0.1991
32300SOL    HW2 3759   4.830   5.411   3.238  0.2865  0.5393  0.1589
32301SOL     OW 3760   4.599   6.600   9.401 -0.1481  0.4905 -0.5590
32301SOL    HW1 3761   4.558   6.638   9.324 -0.0978  1.5477 -0.0774
32301SOL    HW2 3762   4.693   6.611   9.387 -0.1738  1.8336  0.2081
32302SOL     OW 3763   1.146   9.392  11.733 -0.1278  0.1981 -0.1363
32302SOL    HW1 3764   1.085   9.443  11.786 -0.3599  1.0262 -1.1673
32302SOL    HW2 3765   1.232   9.410  11.771 -0.1956  1.4509 -0.5258
32303SOL     OW 3766   9.237   0.526   8.798 -0.1795 -0.2841 -0.0588
32303SOL    HW1 3767   9.190   0.468   8.858 -1.2121  0.4816 -0.0785
32303SOL    HW2 3768   9.329   0.514   8.819 -0.1990 -3.2425 -1.2725
32304SOL     OW 3769  10.139   4.539   3.034 -0.1729 -0.2406  0.6319
32304SOL    HW1 3770  10.217   4.494   3.064 -1.2319 -2.4133  0.3192
32304SOL    HW2 3771  10.167   4.588   2.956  1.2140  0.4621  1.5385
32305SOL     OW 3772   3.873  10.247  11.140 -0.4685 -0.2362 -0.4121
32305SOL    HW1 3773   3.955  10.262  11.093 -0.2944  0.8837  0.2179
32305SOL    HW2 3774   3.897  10.253  11.232 -1.2969  0.2861 -0.2287
32306SOL     OW 3775   2.708   0.400   6.983 -0.0957 -0.1519 -0.1829
32306SOL    HW1 3776   2.708   0.432   6.893  3.0634 -1.1245 -0.6268
32306SOL    HW2 3777   2.719   0.478   7.037  2.7908  0.0797 -0.9792
32307SOL     OW 3778  10.073   6.440   4.018 -0.7110 -0.7773 -0.5847
32307SOL    HW1 3779  10.021   6.475   3.946 -2.0474  0.8024  1.0427
32307SOL    HW2 3780  10.027   6.360   4.044 -1.5703 -0.1213 -0.0366
32308SOL     OW 3781   9.682   5.800   3.532  0.2349  0.4500 -0.1294
32308SOL    HW1 3782   9.651   5.857   3.603  0.7939 -1.2266  1.5468
32308SOL    HW2 3783   9.678   5.712   3.569  0.5439 -0.4915 -2.2186
32309SOL     OW 3784  11.047   4.175   7.939 -0.2711  0.0875 -0.0345
32309SOL    HW1 3785  11.114   4.157   7.874  0.0958 -1.6716  0.7792
32309SOL    HW2 3786  11.075   4.257   7.981  0.6300  0.0785 -0.6089
32310SOL     OW 3787   0.575   4.816   4.339 -0.3696 -0.5073 -0.2973
32310SOL    HW1 3788   0.484   4.804   4.314 -0.8965 -0.5033  1.4891
32310SOL    HW2 3789   0.575   4.810   4.434  1.6778 -1.7510 -0.2994
32311SOL     OW 3790   2.594   4.867   3.342  0.0530 -0.6306 -0.3148
32311SOL    HW1 3791   2.675   4.821   3.321  0.5659 -0.6057  1.3990
32311SOL    HW2 3792   2.608   4.900   3.431 -1.5830 -0.0471 -0.2361
32312SOL     OW 3793   9.672   2.176   9.167  0.5716 -0.5861 -0.7748
32312SOL    HW1 3794   9.587   2.134   9.160  1.1055 -1.5879 -1.5481
32312SOL    HW2 3795   9.653   2.264   9.199 -0.6736 -1.0603 -0.1299
32313SOL     OW 3796  10.672   1.605  11.236 -1.1482  0.0274 -0.3091
32313SOL    HW1 3797  10.745   1.557  11.275 -0.1948  0.8773 -1.0216
32313SOL    HW2 3798  10.690   1.697  11.253 -2.9747  0.1909  1.0608
32314SOL     OW 3799   9.082   7.987   2.091  0.1078  0.5285 -0.1424
32314SOL    HW1 3800   9.082   8.023   2.003 -0.3516 -1.0653 -0.8360
32314SOL    HW2 3801   9.001   8.020   2.131 -0.3275  0.2430 -0.7743
32315SOL     OW 3802   9.049  12.331   4.110 -0.0032 -0.4370  0.2209
32315SOL    HW1 3803   9.136  12.292   4.117 -0.2996 -0.9116  1.6600
32315SOL    HW2 3804   9.059  12.419   4.146  0.3245  0.3093 -1.5946
32316SOL     OW 3805   9.992   8.498  11.493 -0.0253  0.2587 -0.2009
32316SOL    HW1 3806  10.023   8.547  11.417  0.7634 -0.2045 -0.1942
32316SOL    HW2 3807  10.060   8.432  11.508 -0.2585  0.2283  0.7956
32317SOL     OW 3808  10.182   8.846   8.123 -0.1016 -0.3879  0.9604
32317SOL    HW1 3809  10.209   8.774   8.180 -0.8730 -0.7902  0.8428
32317SOL    HW2 3810  10.256   8.861   8.064 -0.1979 -1.5743  0.5184
32318SOL     OW 3811   6.845  11.771  12.218 -0.1369 -0.0964 -0.1373
32318SOL    HW1 3812   6.903  11.707  12.258 -0.5548  0.9121  2.2222
32318SOL    HW2 3813   6.886  11.855  12.235 -1.6430  0.5461  0.5381
32319SOL     OW 3814   4.303   9.413   4.573  0.1708 -0.2153  0.2351
32319SOL    HW1 3815   4.378   9.413   4.633 -0.0503 -0.9895  0.5346
32319SOL    HW2 3816   4.342   9.397   4.487  0.5639  1.6360  0.0427
32320SOL     OW 3817  12.537  11.127   1.212 -0.6412  0.1711 -0.3617
32320SOL    HW1 3818  12.610  11.135   1.150 -1.1613  0.5955 -0.9384
32320SOL    HW2 3819  12.493  11.046   1.187 -1.7545  1.0968 -1.5815
32321SOL     OW 3820   4.628   9.709   1.991 -0.5707  0.5554  0.3995
32321SOL    HW1 3821   4.559   9.722   2.056 -1.0058 -1.3959  0.3865
32321SOL    HW2 3822   4.708   9.695   2.042 -0.7920 -0.3216  0.5276
32322SOL     OW 3823   2.777   6.736   7.722 -0.4604  0.1175  0.6590
32322SOL    HW1 3824   2.761   6.819   7.767 -1.2299  0.1428  0.3629
32322SOL    HW2 3825   2.810   6.677   7.789 -0.8825  0.3707  1.0927
32323SOL     OW 3826   4.643   9.612   9.219 -0.3428 -0.2182 -0.1844
32323SOL    HW1 3827   4.697   9.644   9.146  1.2838 -2.2240  0.0416
32323SOL    HW2 3828   4.583   9.549   9.178 -1.5611  0.9296 -0.2127
32324SOL     OW 3829   2.147   5.326  12.451  0.3059 -0.3398 -0.1996
32324SOL    HW1 3830   2.205   5.252  12.468 -1.2502 -1.3855  0.7466
32324SOL    HW2 3831   2.202   5.388  12.402  1.5039 -2.3020 -1.4989
32325SOL     OW 3832   2.892   3.326  10.783 -0.4078  0.7416  0.0615
32325SOL    HW1 3833   2.928   3.239  10.802  1.3864  1.5543  0.6107
32325SOL    HW2 3834   2.953   3.386  10.826 -1.7565  2.2687 -0.0968
32326SOL     OW 3835   6.329   1.931   3.261  0.1682  0.3264 -0.0845
32326SOL    HW1 3836   6.413   1.977   3.259  0.1714  0.3485  0.4835
32326SOL    HW2 3837   6.353   1.838   3.252  0.2223  0.3673 -0.3632
32327SOL     OW 3838  10.953   0.987  11.160 -0.1881  0.2523 -0.7645
32327SOL    HW1 3839  10.937   0.894  11.140 -0.9674  0.2729 -0.2700
32327SOL    HW2 3840  11.016   0.985  11.232 -1.1973  0.0579  0.1428
32328SOL     OW 3841   7.092   1.032   9.694 -0.0179  0.5114 -0.0606
32328SOL    HW1 3842   7.175   0.995   9.665  0.4336  1.4616 -0.0275
32328SOL    HW2 3843   7.046   0.959   9.735  0.3843 -0.2492 -0.9531
32329SOL     OW 3844   8.255   6.062   2.322  0.0751 -0.1794 -0.5617
32329SOL    HW1 3845   8.307   6.109   2.388  0.1728  0.6738 -1.2422
32329SOL    HW2 3846   8.312   5.991   2.293  0.6657  0.4292 -0.9089
32330SOL     OW 3847   4.156   2.308   1.005 -0.2373 -0.1572 -0.7589
32330SOL    HW1 3848   4.204   2.355   1.074  1.8776 -0.9482 -1.6081
32330SOL    HW2 3849   4.071   2.290   1.044  0.2528  0.9984  0.9907
32331SOL     OW 3850   9.428   4.436  11.341 -0.6429 -0.8280  0.2807
32331SOL    HW1 3851   9.520   4.459  11.325 -1.3681  0.6277 -2.3933
32331SOL    HW2 3852   9.384   4.520  11.353 -1.8722 -1.4273  0.0657
32332SOL     OW 3853   4.688   9.729   2.338 -0.4775 -0.4651 -0.1757
32332SOL    HW1 3854   4.683   9.814   2.383 -0.3976 -0.9219  0.7107
32332SOL    HW2 3855   4.632   9.671   2.389 -1.5714 -0.6505 -1.5127
32333SOL     OW 3856   1.274   2.966   9.156  0.7271  0.5056 -0.7994
32333SOL    HW1 3857   1.226   2.893   9.117 -0.1471  0.8452 -0.3784
32333SOL    HW2 3858   1.219   2.995   9.229  2.4191 -0.2915  0.8986
32334SOL     OW 3859   1.532   2.986   8.781 -0.1642  0.4959  0.1822
32334SOL    HW1 3860   1.491   3.050   8.839 -0.0531  0.4669  0.2945
32334SOL    HW2 3861   1.582   3.038   8.719 -1.3087  0.5869 -0.7003
32335SOL     OW 3862   2.762   2.760   2.761 -0.3671  0.5443  0.3369
32335SOL    HW1 3863   2.763   2.818   2.838 -2.9083 -0.2566  1.0390
32335SOL    HW2 3864   2.685   2.786   2.712 -0.3920 -0.8689 -0.4249
32336SOL     OW 3865  10.497   0.989   7.537  1.1043 -0.0415 -0.4504
32336SOL    HW1 3866  10.548   1.061   7.498  3.3463 -0.7511  0.9819
32336SOL    HW2 3867  10.523   0.989   7.630 -1.7723 -0.3034  0.4495
32337SOL     OW 3868   6.959   4.494   2.927 -0.1003  0.5278 -0.2642
32337SOL    HW1 3869   6.975   4.479   2.834  1.2148  1.6065 -0.2496
32337SOL    HW2 3870   6.881   4.550   2.929  0.3548  1.1995 -0.7812
32338SOL     OW 3871   8.167   3.054   0.093 -0.2690  0.4273 -0.0069
32338SOL    HW1 3872   8.077   3.033   0.120 -0.2172  0.3243  0.0895
32338SOL    HW2 3873   8.222   2.996   0.146 -0.2511 -1.3160 -1.8213
32339SOL     OW 3874   0.183   8.949   7.055  0.0260  0.6731 -0.1011
32339SOL    HW1 3875   0.232   8.901   7.121  0.5531  0.5583 -0.5706
32339SOL    HW2 3876   0.111   8.891   7.032  1.7869 -0.8276 -2.1383
32340SOL     OW 3877   3.956   6.555  11.662 -0.1892 -0.1371 -0.3803
32340SOL    HW1 3878   3.964   6.480  11.720 -1.4102  2.1937  3.1832
32340SOL    HW2 3879   4.036   6.606  11.678 -0.9450  0.9661  0.0038
32341SOL     OW 3880   6.056  11.449   9.167  0.1974 -0.7186  0.5100
32341SOL    HW1 3881   6.086  11.404   9.088  0.4710  0.9120 -0.3523
32341SOL    HW2 3882   6.006  11.523   9.134  3.0109  1.9178  1.7280
32342SOL     OW 3883   9.148  10.011   7.239 -0.2290  0.2229 -0.3514
32342SOL    HW1 3884   9.207  10.072   7.194 -2.2590  0.7406 -2.5026
32342SOL    HW2 3885   9.170   9.925   7.201 -0.3345  0.3004 -0.5927
32343SOL     OW 3886   0.165  11.879   0.588  0.0009 -0.6601 -0.2753
32343SOL    HW1 3887   0.106  11.911   0.657  0.6263 -2.9474  1.4403
32343SOL    HW2 3888   0.197  11.959   0.545 -1.4088  0.7900  1.2138
32344SOL     OW 3889   9.652   1.817  11.228 -0.3182  0.1510 -0.1017
32344SOL    HW1 3890   9.720   1.869  11.187  1.1444 -1.2144  0.4816
32344SOL    HW2 3891   9.678   1.810  11.320 -1.8022  0.4527  0.3715
32345SOL     OW 3892  11.150   0.906  10.505  0.0753 -0.0246 -0.4025
32345SOL    HW1 3893  11.098   0.984  10.487 -0.9078 -0.6513 -0.3381
32345SOL    HW2 3894  11.202   0.928  10.582 -0.6756  0.3476  0.0024
32346SOL     OW 3895   4.911   0.640  11.265  0.2609  0.3042  0.0788
32346SOL    HW1 3896   4.944   0.560  11.224  0.2618  0.0917  0.4846
32346SOL    HW2 3897   4.961   0.647  11.346 -2.6465 -1.6618  2.2488
32347SOL     OW 3898  11.193   1.609   8.520 -0.0097  1.1105 -0.4727
32347SOL    HW1 3899  11.285   1.582   8.522  0.0950  1.1971 -2.1290
32347SOL    HW2 3900  11.175   1.625   8.427 -1.8296  0.6708 -0.2436
32348SOL     OW 3901   0.554   7.251   4.289  0.0684  0.1208  0.1123
32348SOL    HW1 3902   0.505   7.169   4.280 -1.2782  0.9039 -0.1336
32348SOL    HW2 3903   0.587   7.250   4.379 -0.3209 -0.4895  0.2533
32349SOL     OW 3904   4.419   5.704   0.293 -0.4155  0.1977 -0.2720
32349SOL    HW1 3905   4.467   5.685   0.213 -0.1027  1.4485 -0.3978
32349SOL    HW2 3906   4.338   5.654   0.284 -0.1430 -0.1200 -1.1054
32350SOL     OW 3907   3.652  11.901  11.350  0.5333  0.0547 -0.2239
32350SOL    HW1 3908   3.644  11.944  11.265  1.3986 -2.5277 -1.7427
32350SOL    HW2 3909   3.744  11.910  11.373  0.7332 -0.9050 -0.5765
32351SOL     OW 3910  11.577   3.040   2.551 -0.0813 -0.8189 -0.0170
32351SOL    HW1 3911  11.506   3.097   2.582 -0.5761 -1.1445 -0.5326
32351SOL    HW2 3912  11.633   3.098   2.499 -0.4307 -0.7308 -0.3040
32352SOL     OW 3913  11.598   2.353   4.425 -0.4123 -0.2714  0.3132
32352SOL    HW1 3914  11.554   2.389   4.348 -0.0798 -1.0874 -0.2631
32352SOL    HW2 3915  11.546   2.387   4.499 -2.6656 -1.9843 -0.3598
32353SOL     OW 3916   1.197   0.138   4.810 -0.6012 -0.1122 -0.6588
32353SOL    HW1 3917   1.251   0.205   4.768  0.7154  0.5087  1.8560
32353SOL    HW2 3918   1.244   0.056   4.796 -1.9533 -0.5768 -3.2824
32354SOL     OW 3919   5.033   2.344   4.816  0.2832 -0.9220  0.1375
32354SOL    HW1 3920   5.092   2.269   4.805 -1.5002 -2.6929  1.7965
32354SOL    HW2 3921   4.995   2.332   4.902 -2.7287 -0.0398 -0.9466
32355SOL     OW 3922   6.829  12.088   8.890  0.3340 -0.3781  0.1289
32355SOL    HW1 3923   6.876  12.133   8.961 -0.0845 -0.3953  0.4229
32355SOL    HW2 3924   6.866  12.000   8.889  0.6420 -0.2494  0.0406
32356SOL     OW 3925   8.334   7.717   1.443  0.0857 -0.1027  0.2653
32356SOL    HW1 3926   8.395   7.765   1.499  0.9866 -1.7711  0.7828
32356SOL    HW2 3927   8.272   7.679   1.505 -0.4595  0.1473 -0.1197
32357SOL     OW 3928   2.541   3.133  11.620  0.1664 -0.0598  0.0806
32357SOL    HW1 3929   2.586   3.069  11.565  0.8091  1.4764 -1.2349
32357SOL    HW2 3930   2.448   3.120  11.600  0.2265 -0.9814  0.3155
32358SOL     OW 3931   5.031   0.701   3.688 -0.1215  0.0104  0.3425
32358SOL    HW1 3932   4.952   0.737   3.648 -0.0258  0.3750  0.4833
32358SOL    HW2 3933   5.037   0.613   3.652  0.7704  0.8208 -1.6578
32359SOL     OW 3934   2.528   0.312   0.726 -0.5296 -0.4740  0.0643
32359SOL    HW1 3935   2.557   0.403   0.713 -0.7137 -0.0627  2.1529
32359SOL    HW2 3936   2.601   0.270   0.771 -1.2965 -0.7581  1.0609
32360SOL     OW 3937   4.039  12.200   1.173  0.0506  0.2554 -0.1368
32360SOL    HW1 3938   3.998  12.233   1.093  1.2872  0.1460 -0.8401
32360SOL    HW2 3939   3.992  12.244   1.243 -0.3371  1.2021 -0.9615
32361SOL     OW 3940   6.742   5.623   9.876  0.6435 -0.1750 -0.1854
32361SOL    HW1 3941   6.825   5.593   9.837  0.4965 -0.0461 -0.6038
32361SOL    HW2 3942   6.765   5.647   9.965  0.6161 -2.4152  0.4996
32362SOL     OW 3943   1.589   6.813   6.066  0.2026 -0.4438 -0.0924
32362SOL    HW1 3944   1.608   6.727   6.103 -2.2775 -1.1042 -0.2289
32362SOL    HW2 3945   1.576   6.869   6.143 -2.3032 -1.2070  0.1185
32363SOL     OW 3946  10.609   6.793  11.081 -0.3330  0.0081 -0.5073
32363SOL    HW1 3947  10.613   6.860  11.150  0.3097 -1.0577  0.5197
32363SOL    HW2 3948  10.657   6.831  11.008  0.4799  0.4642  0.2493
32364SOL     OW 3949   9.781   3.010   1.194  0.6028 -0.6915 -0.5575
32364SOL    HW1 3950   9.808   3.009   1.102 -1.1956  0.5451 -1.1716
32364SOL    HW2 3951   9.739   2.925   1.207  0.5903 -0.7572 -0.9866
32365SOL     OW 3952   3.882   9.251  12.457  0.1260 -0.1429 -0.3519
32365SOL    HW1 3953   3.933   9.251  12.376  1.9385 -1.2899  0.7068
32365SOL    HW2 3954   3.888   9.341  12.489 -3.1137  1.1487 -2.8570
32366SOL     OW 3955   2.038  12.268   3.971  0.0586  0.1080  0.8437
32366SOL    HW1 3956   1.993  12.340   3.926 -0.8159  0.0858  1.6460
32366SOL    HW2 3957   2.026  12.193   3.914  1.5625  0.7153 -0.3402
32367SOL     OW 3958   7.273   7.582   8.841  0.4303  0.8772  0.0371
32367SOL    HW1 3959   7.286   7.573   8.936  2.3212 -0.3159 -0.2872
32367SOL    HW2 3960   7.358   7.612   8.808  0.6237 -1.1900 -1.5511
32368SOL     OW 3961   6.085  11.101   6.622  0.0161 -0.5309  0.3677
32368SOL    HW1 3962   6.112  11.184   6.583  1.2381 -1.0903  0.0071
32368SOL    HW2 3963   6.056  11.047   6.549  0.2420 -0.8044  0.4764
32369SOL     OW 3964  11.605   3.309   4.132  0.3112  0.1983 -0.1386
32369SOL    HW1 3965  11.691   3.268   4.144  0.7032  1.2424  0.7601
32369SOL    HW2 3966  11.611   3.392   4.177 -0.5557  1.1630 -1.6926
32370SOL     OW 3967   2.027   7.822  12.487 -0.2952 -0.1283  0.6099
32370SOL    HW1 3968   2.075   7.796  12.409  1.5009  1.7961  0.9753
32370SOL    HW2 3969   2.032   7.746  12.545  0.6094 -0.6467 -0.1279
32371SOL     OW 3970   2.095   5.018  10.722 -0.5533 -0.3534  0.4908
32371SOL    HW1 3971   2.075   5.105  10.686 -1.6373 -0.4550  0.8048
32371SOL    HW2 3972   2.150   5.037  10.799  0.1519 -0.0220 -0.0841
32372SOL     OW 3973   2.958  11.164   3.161 -0.4593  0.2503 -0.5842
32372SOL    HW1 3974   2.987  11.243   3.115  1.0082 -0.5001 -1.0329
32372SOL    HW2 3975   3.040  11.122   3.188 -1.2061 -1.2306 -0.5562
32373SOL     OW 3976  11.928   2.432  11.261 -0.1778 -0.0695  0.3149
32373SOL    HW1 3977  11.930   2.459  11.169 -1.3172 -0.6070  0.1227
32373SOL    HW2 3978  12.017   2.450  11.292 -0.0514  1.0755 -0.6041
32374SOL     OW 3979  12.479   0.998   0.393 -0.2962  0.4793 -0.2396
32374SOL    HW1 3980  12.494   1.031   0.481  1.3743 -0.1727 -0.2470
32374SOL    HW2 3981  12.400   0.945   0.400 -0.1557  0.4014  0.8701
32375SOL     OW 3982   2.342  11.629   0.769 -0.6316  0.2553  0.1732
32375SOL    HW1 3983   2.250  11.604   0.761 -0.5159  0.3972 -2.6329
32375SOL    HW2 3984   2.343  11.723   0.748  0.2025  0.1226 -0.4370
32376SOL     OW 3985   9.323   4.490  10.496 -0.7268  0.5415 -0.7070
32376SOL    HW1 3986   9.415   4.518  10.502 -0.9728  1.2839 -0.3249
32376SOL    HW2 3987   9.328   4.403  10.456  0.1881  0.3083 -0.1239
32377SOL     OW 3988   3.559   3.093   1.317  0.4165  0.0090  0.4542
32377SOL    HW1 3989   3.500   3.084   1.243 -1.3099  0.2121  1.7336
32377SOL    HW2 3990   3.501   3.092   1.394  2.0817  0.2735  1.7719
32378SOL     OW 3991   8.523  10.230   5.581  0.1280 -0.4603  0.2077
32378SOL    HW1 3992   8.593  10.251   5.643 -0.4239  1.8491  0.1433
32378SOL    HW2 3993   8.551  10.271   5.499 -1.1541  0.2508  0.1128
32379SOL     OW 3994  10.417   2.766  12.129 -0.3306 -0.0295  0.6765
32379SOL    HW1 3995  10.349   2.788  12.065 -0.9839 -1.4484  0.8446
32379SOL    HW2 3996  10.386   2.685  12.170  2.0766 -1.4807 -0.1672
32380SOL     OW 3997   7.059   3.526   9.585 -0.1519 -0.3136  0.1712
32380SOL    HW1 3998   7.002   3.522   9.508  0.3886 -0.9565 -0.2036
32380SOL    HW2 3999   6.998   3.515   9.659 -0.6558  0.1804 -0.1568
32381SOL     OW 4000   4.894   1.062   4.985  0.2749  0.3752  0.1629
32381SOL    HW1 4001   4.884   1.068   5.080 -1.1734  3.1518 -0.0523
32381SOL    HW2 4002   4.819   1.111   4.950  0.0311 -1.6528 -2.4776
32382SOL     OW 4003   9.595  11.044   0.575  0.4784 -0.4584 -0.1717
32382SOL    HW1 4004   9.607  11.046   0.670 -0.8011 -1.9761  0.0423
32382SOL    HW2 4005   9.683  11.030   0.541  0.6563 -2.2593  0.9174
32383SOL     OW 4006   7.571   8.742  10.820  0.3002  0.0034 -0.2499
32383SOL    HW1 4007   7.581   8.709  10.909  0.0604  0.1304 -0.1753
32383SOL    HW2 4008   7.593   8.835  10.826  2.9068 -0.5030 -0.8206
32384SOL     OW 4009   5.421   2.938   6.313  0.1181  0.2097  0.4535
32384SOL    HW1 4010   5.340   2.938   6.262  1.7828 -0.0910 -2.4725
32384SOL    HW2 4011   5.481   2.994   6.262  1.6792  0.6631  2.6503
32385SOL     OW 4012  11.460   1.530   9.299  0.0906  0.3274 -0.0841
32385SOL    HW1 4013  11.413   1.551   9.380  0.9679 -0.2558  0.6045
32385SOL    HW2 4014  11.460   1.435   9.295  0.5666  0.3387 -0.4526
32386SOL     OW 4015   3.666   2.923   9.047 -0.1199 -0.7848  0.0909
32386SOL    HW1 4016   3.671   2.875   9.130 -3.5684 -0.2142  0.7950
32386SOL    HW2 4017   3.593   2.883   9.000 -1.9164  2.4117 -0.1162
32387SOL     OW 4018   8.796   2.422   5.624 -0.0923 -0.0531  0.0510
32387SOL    HW1 4019   8.787   2.472   5.705  2.6556  1.3013 -0.3747
32387SOL    HW2 4020   8.771   2.333   5.649 -1.1988  0.6872  1.8559
32388SOL     OW 4021   1.934   2.613   7.376 -0.1301 -0.2998  0.4724
32388SOL    HW1 4022   1.958   2.520   7.372 -1.3732 -0.6677  0.9529
32388SOL    HW2 4023   1.952   2.646   7.288  1.0084 -0.8065  0.4998
32389SOL     OW 4024  11.506   1.720  12.223 -0.6526 -0.8512 -0.3181
32389SOL    HW1 4025  11.508   1.735  12.129  0.4402 -0.1040 -0.2039
32389SOL    HW2 4026  11.584   1.766  12.256 -1.5977 -0.1735  1.0685
32390SOL     OW 4027   7.522  10.061   5.829 -0.0393  0.1903 -0.2161
32390SOL    HW1 4028   7.428  10.080   5.830 -0.8862 -3.0767 -1.7369
32390SOL    HW2 4029   7.536  10.006   5.906  0.5523  0.4211 -0.1586
32391SOL     OW 4030   1.311   8.868   2.503  0.2631 -0.2172  0.1107
32391SOL    HW1 4031   1.222   8.899   2.521  0.3241 -0.1006  0.2192
32391SOL    HW2 4032   1.300   8.777   2.476  0.2281 -0.6828  1.5728
32392SOL     OW 4033   9.592   2.860   2.259  0.4441 -0.5328  0.1986
32392SOL    HW1 4034   9.526   2.813   2.208 -0.6974 -2.3198  3.1044
32392SOL    HW2 4035   9.549   2.942   2.285 -0.5183 -1.4588  1.6440
32393SOL     OW 4036   5.048   1.133   2.289  0.1017 -0.0801 -0.4013
32393SOL    HW1 4037   5.112   1.173   2.347 -0.7689  1.8220 -0.6950
32393SOL    HW2 4038   5.003   1.206   2.247 -2.6820 -1.2781  0.2123
32394SOL     OW 4039   6.066   9.948  12.487  0.3293  0.5772  0.0390
32394SOL    HW1 4040   5.984   9.994  12.504 -0.1477  0.3339 -1.4048
32394SOL    HW2 4041   6.045   9.886  12.417  1.6223  0.1451 -0.0080
32395SOL     OW 4042  11.810   8.743   1.307 -0.0084  0.3030  0.2105
32395SOL    HW1 4043  11.889   8.689   1.301  0.2774  0.7444 -0.0044
32395SOL    HW2 4044  11.738   8.680   1.301  0.2980  0.0583 -1.3683
32396SOL     OW 4045   1.341  10.186   1.137 -0.2849  0.6293  0.4702
32396SOL    HW1 4046   1.285  10.130   1.190  0.2455 -1.4241 -1.0114
32396SOL    HW2 4047   1.416  10.206   1.194  0.7431 -2.3176  0.3288
32397SOL     OW 4048   8.369   6.162   1.502  0.0494 -0.0961  0.1959
32397SOL    HW1 4049   8.414   6.080   1.483 -0.4568 -0.6009  1.1499
32397SOL    HW2 4050   8.303   6.139   1.567  1.7028  1.5600  2.6237
32398SOL     OW 4051   1.899  10.249   9.006 -0.5556 -0.7932 -0.3724
32398SOL    HW1 4052   1.854  10.260   8.922 -1.8926 -0.8493  0.3102
32398SOL    HW2 4053   1.918  10.155   9.011  0.3135 -0.6638 -0.9755
32399SOL     OW 4054   6.712   6.157   3.479 -0.1079 -0.4807 -0.0173
32399SOL    HW1 4055   6.760   6.193   3.554 -0.6020  2.0955 -0.8534
32399SOL    HW2 4056   6.703   6.230   3.418  0.1004 -2.4151 -2.5621
32400SOL     OW 4057   8.283   0.824   0.666  0.5294 -0.1958  0.5104
32400SOL    HW1 4058   8.196   0.829   0.628  0.3337  0.9314  1.0666
32400SOL    HW2 4059   8.281   0.745   0.721  0.4549 -1.1805 -0.8506
32401SOL     OW 4060   6.097   9.650   4.130 -0.3347  0.0815  0.4061
32401SOL    HW1 4061   6.180   9.682   4.165 -0.0891 -0.5630  0.4338
32401SOL    HW2 4062   6.118   9.564   4.094 -0.5736  0.7269 -1.3707
32402SOL     OW 4063   1.600   7.954   8.217  0.3423 -0.0449 -0.7584
32402SOL    HW1 4064   1.678   7.908   8.247  1.1921  0.3988 -2.1877
32402SOL    HW2 4065   1.528   7.915   8.267  1.0875 -2.5123 -1.4690
32403SOL     OW 4066   4.317  12.418  11.273  0.2922  0.4273 -0.1691
32403SOL    HW1 4067   4.303  12.331  11.236  2.2496 -0.3537  0.7395
32403SOL    HW2 4068   4.281  12.478  11.208 -1.3142 -1.0475 -0.7202
32404SOL     OW 4069   6.514   6.852   9.733 -0.1092 -0.4558  0.7246
32404SOL    HW1 4070   6.559   6.889   9.809 -0.2134 -1.1868  1.1486
32404SOL    HW2 4071   6.445   6.797   9.770  0.6068 -1.7922  0.1284
32405SOL     OW 4072   3.552   8.967  11.672 -0.1383 -0.1944  0.7725
32405SOL    HW1 4073   3.543   8.903  11.742 -2.9484 -0.7348  0.0705
32405SOL    HW2 4074   3.508   9.045  11.705 -1.7517 -0.5446 -0.3612
32406SOL     OW 4075   2.352  10.198   3.879 -0.1191 -0.1404 -0.2854
32406SOL    HW1 4076   2.372  10.210   3.972 -0.4300  0.2753 -0.2708
32406SOL    HW2 4077   2.319  10.109   3.872  0.5733 -0.4167 -0.1112
32407SOL     OW 4078   5.149  12.391   9.491  0.0529  0.1875  0.7099
32407SOL    HW1 4079   5.058  12.417   9.507 -0.1541 -0.2738  0.3276
32407SOL    HW2 4080   5.172  12.337   9.566  0.3670  1.1479  1.3311
32408SOL     OW 4081   5.419   5.084   7.263 -0.1760 -0.6388  0.5183
32408SOL    HW1 4082   5.472   5.101   7.185 -1.1536 -1.2768 -0.3068
32408SOL    HW2 4083   5.423   4.989   7.274 -0.1704 -0.5673  1.1625
32409SOL     OW 4084   0.602  11.261   1.900  0.6545  0.8026 -0.0835
32409SOL    HW1 4085   0.563  11.258   1.988 -0.1389  1.1018 -0.4126
32409SOL    HW2 4086   0.696  11.269   1.916  0.6994 -1.0086  0.7324
32410SOL     OW 4087   2.762   9.743   4.907  0.2389  0.6111 -0.1503
32410SOL    HW1 4088   2.683   9.786   4.940  0.0794  0.4549 -0.3204
32410SOL    HW2 4089   2.819   9.734   4.984  0.0017  0.5318  0.0185
32411SOL     OW 4090   7.516   9.375   9.069 -0.2968  0.2154  0.7248
32411SOL    HW1 4091   7.538   9.463   9.098  1.3483 -0.1461  0.6591
32411SOL    HW2 4092   7.567   9.362   8.988  0.3336 -1.1587  1.3024
32412SOL     OW 4093  10.043   4.726   3.252 -0.6766 -0.2020  0.6665
32412SOL    HW1 4094  10.089   4.677   3.320  0.5073  0.6409  0.5110
32412SOL    HW2 4095  10.077   4.692   3.170 -1.5527 -0.6944  0.4880
32413SOL     OW 4096   9.725  12.514   3.811 -0.5512  0.0345 -0.6211
32413SOL    HW1 4097   9.789  12.541   3.746  1.7333 -1.1757  0.9985
32413SOL    HW2 4098   9.749  12.563   3.890 -1.4285 -0.6786  0.1075
32414SOL     OW 4099  12.569   9.332   1.943 -0.4297 -0.1874  0.2692
32414SOL    HW1 4100  12.476   9.344   1.926 -0.6507 -1.6734  0.2795
32414SOL    HW2 4101  12.574   9.251   1.995  0.8257  0.1232  0.6761
32415SOL     OW 4102  10.652   4.479   0.656 -0.3940 -0.3461  0.2767
32415SOL    HW1 4103  10.569   4.517   0.627 -0.6650  0.8344  2.3847
32415SOL    HW2 4104  10.658   4.395   0.611 -2.0020  0.2101 -1.0451
32416SOL     OW 4105   1.798   3.741  11.401  0.2017  0.0818  0.0706
32416SOL    HW1 4106   1.773   3.823  11.443 -0.1160 -0.7348  1.5714
32416SOL    HW2 4107   1.884   3.720  11.438 -0.1847 -0.7724  0.5255
32417SOL     OW 4108  10.893   1.161   2.971  0.5642 -0.2744  0.2501
32417SOL    HW1 4109  10.812   1.200   2.939  0.7072 -0.3851 -0.2450
32417SOL    HW2 4110  10.943   1.236   3.004  0.8996 -0.0115 -0.8291
32418SOL     OW 4111   0.117   8.717  11.737 -0.3712 -0.0327  0.7314
32418SOL    HW1 4112   0.193   8.774  11.724  0.9645 -1.9323 -0.3869
32418SOL    HW2 4113   0.140   8.637  11.690 -4.0553  0.1302 -1.7544
32419SOL     OW 4114   2.320   4.838   7.087 -0.0390 -0.3275 -0.0247
32419SOL    HW1 4115   2.410   4.810   7.097 -0.4176 -1.5097  0.1635
32419SOL    HW2 4116   2.325   4.916   7.030  1.2278  0.6068  1.3001
32420SOL     OW 4117   0.046   6.520   7.998  0.1283 -0.3404  0.0475
32420SOL    HW1 4118   0.006   6.566   8.071 -0.1309  0.4259 -0.5643
32420SOL    HW2 4119   0.064   6.588   7.934  2.1527 -0.7123  0.1784
32421SOL     OW 4120  11.986   7.214   1.333  0.4571  0.2556  0.6336
32421SOL    HW1 4121  11.931   7.235   1.408 -2.3398  0.7249 -1.3924
32421SOL    HW2 4122  12.000   7.298   1.290  0.7505 -0.2029 -0.1821
32422SOL     OW 4123   2.516   7.874   2.437 -0.1338  0.1471 -0.1143
32422SOL    HW1 4124   2.607   7.905   2.431 -0.4189  0.8775 -0.9477
32422SOL    HW2 4125   2.520   7.784   2.407  0.3245  0.1623 -0.1154
32423SOL     OW 4126   9.079   8.608   7.447 -0.1734  0.1541 -0.5858
32423SOL    HW1 4127   9.128   8.644   7.522 -0.4873 -0.5010 -0.0554
32423SOL    HW2 4128   9.127   8.639   7.370 -0.3076  1.5258 -0.1491
32424SOL     OW 4129   1.980   2.440   9.088 -0.1196  0.0015  0.0838
32424SOL    HW1 4130   2.005   2.355   9.052  0.4702  0.6871 -1.1584
32424SOL    HW2 4131   1.886   2.447   9.068 -0.5314 -0.9450  1.4663
32425SOL     OW 4132   4.314   9.824   8.938  0.1101  0.0618  0.0636
32425SOL    HW1 4133   4.392   9.879   8.942 -0.2162  0.6194 -0.9166
32425SOL    HW2 4134   4.332   9.763   8.865  0.4046 -1.0433  1.0316
32426SOL     OW 4135   8.907   5.303   2.387 -0.3384  0.0279  0.0158
32426SOL    HW1 4136   8.883   5.222   2.342 -0.4435 -0.1847  0.4451
32426SOL    HW2 4137   8.826   5.334   2.426 -0.6078  1.1150 -1.3251
32427SOL     OW 4138   8.943   7.093   5.689 -0.2336  0.3258  0.0964
32427SOL    HW1 4139   8.979   7.115   5.775  0.6675 -0.4329 -0.0691
32427SOL    HW2 4140   8.874   7.157   5.675  0.4877  1.2919  0.8103
32428SOL     OW 4141   1.266   8.494   3.038  0.7367 -0.6748  0.1727
32428SOL    HW1 4142   1.264   8.555   2.964 -0.7739 -0.1738  0.5756
32428SOL    HW2 4143   1.278   8.408   2.999 -1.4343 -0.5840 -0.8186
32429SOL     OW 4144   0.955   2.446   6.912  0.4314  0.1842  0.2179
32429SOL    HW1 4145   1.034   2.430   6.861 -0.7841 -1.5415 -1.2325
32429SOL    HW2 4146   0.983   2.437   7.003  1.6957 -1.4022 -0.2938
32430SOL     OW 4147   7.381   9.637   7.726 -0.0419 -0.0993  0.2685
32430SOL    HW1 4148   7.472   9.621   7.705 -0.1906 -0.7158  0.0834
32430SOL    HW2 4149   7.372   9.610   7.818  0.1148  0.5931  0.4899
32431SOL     OW 4150   8.025   3.156   1.965 -0.2810 -0.2076  0.1807
32431SOL    HW1 4151   7.981   3.234   1.931  0.9130  0.0255 -0.9033
32431SOL    HW2 4152   8.099   3.190   2.015  0.7661 -0.6285 -1.0345
32432SOL     OW 4153   1.267   4.597   7.327 -0.3027 -0.3578 -0.3895
32432SOL    HW1 4154   1.204   4.525   7.332 -0.6799 -0.0666 -0.7817
32432SOL    HW2 4155   1.248   4.639   7.243  1.8134 -1.5120 -1.5113
32433SOL     OW 4156   8.253   5.090   3.667  0.0322 -0.2813  0.4775
32433SOL    HW1 4157   8.197   5.096   3.589 -1.5558 -0.1554  1.5844
32433SOL    HW2 4158   8.339   5.119   3.637 -0.7171  0.4548 -1.0580
32434SOL     OW 4159   2.225   5.916   0.633  0.3088 -0.5399 -0.0039
32434SOL    HW1 4160   2.194   5.877   0.551  2.7769 -0.0164 -1.2720
32434SOL    HW2 4161   2.266   5.999   0.606 -2.4253  1.7793  2.2916
32435SOL     OW 4162   1.248   1.503   3.386  0.3040  0.1086  0.1189
32435SOL    HW1 4163   1.277   1.531   3.299 -2.3913  1.1118 -0.5453
32435SOL    HW2 4164   1.230   1.410   3.376  1.4062 -0.1108  0.0439
32436SOL     OW 4165   4.492   3.220  11.816 -0.0596 -0.6855 -0.8034
32436SOL    HW1 4166   4.414   3.208  11.870  0.5935  1.3990  0.7518
32436SOL    HW2 4167   4.560   3.169  11.860  0.6717  1.6323  0.9749
32437SOL     OW 4168   9.201   6.803   9.237 -0.0683 -0.0626 -0.3024
32437SOL    HW1 4169   9.268   6.868   9.259 -0.4089  0.3659 -0.5188
32437SOL    HW2 4170   9.123   6.854   9.216 -1.2046 -0.5939  2.2312
32438SOL     OW 4171  10.891   7.391   3.433  0.1212 -0.4279  0.4183
32438SOL    HW1 4172  10.811   7.425   3.391  0.3496  0.1431  0.4424
32438SOL    HW2 4173  10.962   7.426   3.381  0.3977  0.0182  1.0930
32439SOL     OW 4174   4.458   1.263   5.144  0.6340 -0.2469  0.1555
32439SOL    HW1 4175   4.366   1.273   5.118  0.5105 -2.0317 -0.2169
32439SOL    HW2 4176   4.455   1.202   5.217  1.6155 -1.2474 -0.6136
32440SOL     OW 4177   0.820   2.169   4.528  0.4726 -0.6493 -0.1483
32440SOL    HW1 4178   0.829   2.265   4.526 -1.2817 -0.4689 -0.8664
32440SOL    HW2 4179   0.908   2.137   4.509  1.0289  0.8256 -0.2167
32441SOL     OW 4180   6.722  12.427   9.066  0.3015  0.2821 -0.1182
32441SOL    HW1 4181   6.689  12.490   9.130 -0.6532  1.8877 -2.0692
32441SOL    HW2 4182   6.818  12.434   9.072  0.2929 -0.6923  2.0762
32442SOL     OW 4183   1.203   7.198  11.986 -0.3481 -0.3334  0.5451
32442SOL    HW1 4184   1.243   7.110  11.986  0.4917 -0.1045 -2.7169
32442SOL    HW2 4185   1.251   7.246  12.053 -0.8143 -2.3174  2.3972
32443SOL     OW 4186   3.954   2.548   4.637 -0.2161  0.6986  0.0406
32443SOL    HW1 4187   4.036   2.575   4.676  0.0154  0.1841 -0.0766
32443SOL    HW2 4188   3.956   2.585   4.549 -0.6295  1.6508  0.4225
32444SOL     OW 4189  11.659   0.072   9.798 -0.7372  0.6340 -0.0722
32444SOL    HW1 4190  11.584   0.080   9.858 -0.9735 -0.7279 -0.1634
32444SOL    HW2 4191  11.643   0.140   9.732 -0.9220  1.5793  0.9219
32445SOL     OW 4192   7.529   3.477   2.182  0.0111 -0.2148  0.1145
32445SOL    HW1 4193   7.587   3.414   2.226  1.1128  0.4204 -0.3698
32445SOL    HW2 4194   7.507   3.540   2.251  2.7255  1.4743 -0.3919
32446SOL     OW 4195   6.966   2.962   6.874  0.0637 -0.1342  0.5682
32446SOL    HW1 4196   7.043   2.940   6.926 -0.2808 -2.5697  0.1806
32446SOL    HW2 4197   6.899   2.900   6.903 -1.0588  0.4339 -0.6833
32447SOL     OW 4198  11.638   4.688   4.561 -0.0567  0.4754  0.3236
32447SOL    HW1 4199  11.678   4.603   4.543  1.7570  0.9813  1.6644
32447SOL    HW2 4200  11.615   4.722   4.475  1.5323 -0.2984 -0.4522
32448SOL     OW 4201   5.185   4.123   3.777  0.2373  0.0255  0.5185
32448SOL    HW1 4202   5.157   4.146   3.866  1.4134  0.7242  0.7265
32448SOL    HW2 4203   5.191   4.206   3.731 -0.9131 -0.3765 -0.4131
32449SOL     OW 4204   5.542  10.894   6.966  0.3375 -0.3840 -0.5197
32449SOL    HW1 4205   5.590  10.913   6.886  0.8314  1.0359  0.0854
32449SOL    HW2 4206   5.496  10.975   6.987 -1.4955 -1.3747 -0.4839
32450SOL     OW 4207   3.932  10.598   1.826 -1.1768 -0.4720  0.4362
32450SOL    HW1 4208   3.980  10.595   1.909 -2.0130 -0.7147  0.9275
32450SOL    HW2 4209   3.890  10.512   1.819  0.0567 -0.9948 -0.9729
32451SOL     OW 4210   1.189   9.005   1.189  0.2720  0.0419  0.7030
32451SOL    HW1 4211   1.192   9.100   1.175  0.8876  0.0811  1.0569
32451SOL    HW2 4212   1.198   8.994   1.284 -0.1582 -0.3581  0.7006
32452SOL     OW 4213   3.351   7.917   7.124 -0.3003  0.1965  0.1555
32452SOL    HW1 4214   3.359   7.920   7.028 -0.2444 -0.8480  0.1190
32452SOL    HW2 4215   3.324   8.006   7.148 -1.4673  0.1773 -0.9368
32453SOL     OW 4216   6.125   1.532   7.645  0.1202  0.1594 -0.3891
32453SOL    HW1 4217   6.090   1.463   7.590 -1.2315  0.3397  0.2047
32453SOL    HW2 4218   6.132   1.493   7.732 -0.4749  0.7025 -0.0894
32454SOL     OW 4219   2.940  10.837  10.236  0.3309 -0.3408 -0.0841
32454SOL    HW1 4220   3.002  10.866  10.169 -0.0446  0.6767 -0.0192
32454SOL    HW2 4221   2.883  10.775  10.190 -1.9034  2.6376 -1.6983
32455SOL     OW 4222   9.272   6.514   1.108 -0.0115  0.1307 -0.7946
32455SOL    HW1 4223   9.205   6.494   1.173  0.8469  2.1376  0.7983
32455SOL    HW2 4224   9.354   6.483   1.147  0.8030  3.0997  0.1003
32456SOL     OW 4225  12.173   7.767   1.028  0.3107  0.0164 -0.1874
32456SOL    HW1 4226  12.235   7.791   0.959  0.0588  0.6411 -0.1952
32456SOL    HW2 4227  12.208   7.684   1.062 -0.3685 -1.1380 -2.0931
32457SOL     OW 4228   9.654   1.175  10.223  0.2928 -0.3432 -0.0871
32457SOL    HW1 4229   9.730   1.158  10.280  0.3623 -3.6423 -0.9304
32457SOL    HW2 4230   9.689   1.164  10.134 -0.9038 -0.5209 -0.5429
32458SOL     OW 4231  12.576   4.254   7.480  0.0390  0.1543 -0.2600
32458SOL    HW1 4232  12.627   4.275   7.558  0.9252 -0.0981 -0.7537
32458SOL    HW2 4233  12.515   4.327   7.469 -1.6093 -0.7843  1.8753
32459SOL     OW 4234   8.769   6.832   9.379 -0.4114  0.8731  0.3845
32459SOL    HW1 4235   8.833   6.778   9.332  0.5300  1.7621  0.6022
32459SOL    HW2 4236   8.740   6.777   9.452 -0.8068  0.0154 -0.4003
32460SOL     OW 4237   6.945   0.959  10.815 -0.0167 -0.0288  0.5229
32460SOL    HW1 4238   6.872   0.914  10.859  1.8720 -4.4115 -0.2443
32460SOL    HW2 4239   7.013   0.964  10.883  0.5214 -0.3276  0.0112
32461SOL     OW 4240   6.312   6.097   7.487  0.0326 -0.3045 -0.0549
32461SOL    HW1 4241   6.373   6.091   7.561  0.2707 -0.1120 -0.2320
32461SOL    HW2 4242   6.247   6.028   7.504  1.6528 -2.1991 -1.0967
32462SOL     OW 4243   4.266   4.037  10.917 -0.2417 -0.4282 -0.5229
32462SOL    HW1 4244   4.171   4.034  10.903 -0.4798  0.0698  0.8170
32462SOL    HW2 4245   4.303   4.028  10.829 -1.5664  1.1710 -1.3200
32463SOL     OW 4246   6.403   1.805   1.568  0.3359 -0.9456 -0.0247
32463SOL    HW1 4247   6.417   1.870   1.499  0.0228  0.6103  1.3049
32463SOL    HW2 4248   6.426   1.721   1.528 -0.6910 -0.2098 -2.2598
32464SOL     OW 4249   7.873   4.067   2.505 -0.2410 -0.5069 -0.4099
32464SOL    HW1 4250   7.832   4.154   2.504 -1.2021 -0.9510 -0.8191
32464SOL    HW2 4251   7.849   4.030   2.589 -0.4927 -0.6737 -0.5530
32465SOL     OW 4252   4.439   1.265   2.748  0.4369 -0.3573  0.2906
32465SOL    HW1 4253   4.500   1.338   2.739  0.2149 -0.3176 -1.0395
32465SOL    HW2 4254   4.355   1.306   2.768  0.7148 -0.3849  1.6138
32466SOL     OW 4255   9.157   8.777  12.297 -0.2277 -0.0728 -0.2806
32466SOL    HW1 4256   9.229   8.777  12.360 -1.3592 -0.5010  1.0678
32466SOL    HW2 4257   9.199   8.792  12.213  1.7220 -2.3739  0.1680
32467SOL     OW 4258   4.284   6.593   9.371  0.1727 -0.1701  0.0239
32467SOL    HW1 4259   4.308   6.685   9.362 -1.9119  0.2172 -3.2330
32467SOL    HW2 4260   4.211   6.581   9.310 -0.4589 -3.7221  1.2287
32468SOL     OW 4261   9.390   8.629   2.494  0.3587 -0.0615  0.3228
32468SOL    HW1 4262   9.412   8.699   2.555 -0.4803  0.8866 -0.4172
32468SOL    HW2 4263   9.417   8.663   2.408  0.9061 -1.0938  0.0684
32469SOL     OW 4264   2.664   6.701   6.375 -0.1771 -0.2411 -0.0310
32469SOL    HW1 4265   2.570   6.714   6.364 -0.1805 -1.4082 -1.8301
32469SOL    HW2 4266   2.675   6.605   6.376  1.3988 -0.5465 -5.9930
32470SOL     OW 4267   3.520  11.767  12.397  0.4631 -0.0516 -0.5219
32470SOL    HW1 4268   3.496  11.687  12.349 -1.2637  0.7644 -1.0967
32470SOL    HW2 4269   3.605  11.746  12.437 -0.2135 -2.3833 -0.1385
32471SOL     OW 4270   2.463  11.178   0.009 -0.4985 -0.0454  0.0844
32471SOL    HW1 4271   2.502  11.142   0.089 -1.8088 -1.2076  0.2210
32471SOL    HW2 4272   2.520  11.147  -0.061 -0.5513 -0.8245  0.3753
32472SOL     OW 4273   7.793  11.788   9.400  0.0018 -0.2506  0.0533
32472SOL    HW1 4274   7.708  11.805   9.360 -0.0878  2.5515  1.2134
32472SOL    HW2 4275   7.856  11.802   9.330 -0.2896  2.3796  0.2103
32473SOL     OW 4276   0.672   6.873   1.871  0.7852  0.2289  0.1007
32473SOL    HW1 4277   0.634   6.887   1.958 -1.1623  0.6609 -0.7650
32473SOL    HW2 4278   0.765   6.859   1.887  0.3942 -0.1268  2.2848
32474SOL     OW 4279  10.023   8.964   5.216 -0.1296  0.0118  0.3181
32474SOL    HW1 4280   9.967   8.903   5.263 -1.1741  1.4236  0.9992
32474SOL    HW2 4281   9.967   9.000   5.147  0.2135  0.7507  0.4117
32475SOL     OW 4282   8.256   3.620  11.935 -0.7837  0.3776  0.8398
32475SOL    HW1 4283   8.233   3.657  12.020 -0.6666 -0.3066  1.1764
32475SOL    HW2 4284   8.288   3.695  11.884  0.2752  0.6017  1.7979
32476SOL     OW 4285   6.371   2.961   3.122 -0.0536 -0.3891  0.1900
32476SOL    HW1 4286   6.376   2.995   3.211  0.4468 -0.4170  0.1776
32476SOL    HW2 4287   6.321   3.027   3.073 -1.6637 -1.0895  0.8099
32477SOL     OW 4288   9.962  11.324   0.446  0.4313  0.6623 -0.6895
32477SOL    HW1 4289   9.868  11.336   0.452  0.2039  0.2002 -2.6262
32477SOL    HW2 4290   9.999  11.393   0.501 -1.0100  0.7090  0.2752
32478SOL     OW 4291   7.714   1.889   5.031 -0.0664  0.3460 -0.4816
32478SOL    HW1 4292   7.795   1.935   5.010  0.1507  0.7689  1.1084
32478SOL    HW2 4293   7.647   1.957   5.031  0.1815  0.6440  1.4495
32479SOL     OW 4294   3.562   3.367  11.439  0.0295  0.7316 -0.2747
32479SOL    HW1 4295   3.558   3.413  11.523  1.3620 -0.5936  0.5740
32479SOL    HW2 4296   3.655   3.367  11.416 -0.2782  0.7808 -1.6062
32480SOL     OW 4297   7.120   0.797  11.764 -0.6700 -0.7188  0.3862
32480SOL    HW1 4298   7.123   0.714  11.716 -0.6689 -0.7924  0.5149
32480SOL    HW2 4299   7.102   0.863  11.696  0.4685 -0.6765  0.1173
32481SOL     OW 4300   1.831   7.750   6.800  0.7565 -0.2514 -0.4189
32481SOL    HW1 4301   1.843   7.826   6.857  0.2388 -1.3073  1.1481
32481SOL    HW2 4302   1.858   7.675   6.853 -0.2459 -1.3281 -1.3752
32482SOL     OW 4303   2.839   0.147  12.000 -0.0991 -0.2787 -0.4572
32482SOL    HW1 4304   2.892   0.221  11.971 -1.0235  1.4885  2.0020
32482SOL    HW2 4305   2.782   0.127  11.925  0.9733  0.7006 -1.5786
32483SOL     OW 4306  10.052   6.736   0.659  0.5478 -0.3406 -0.4289
32483SOL    HW1 4307  10.081   6.768   0.574 -0.8540  0.2210 -0.7182
32483SOL    HW2 4308   9.974   6.684   0.640 -0.4578  0.7322  0.6133
32484SOL     OW 4309   8.545   2.265   8.251  0.3027  0.1490 -0.5820
32484SOL    HW1 4310   8.457   2.243   8.219  1.0142 -0.3507 -2.3250
32484SOL    HW2 4311   8.565   2.349   8.210  0.8405  0.0215 -0.5816
32485SOL     OW 4312   4.838   4.328   3.210 -0.8095 -0.4421 -0.1557
32485SOL    HW1 4313   4.784   4.253   3.234  0.5695 -1.9250 -1.4173
32485SOL    HW2 4314   4.849   4.320   3.115  0.3959  0.6220 -0.1365
32486SOL     OW 4315   2.514   2.757   1.825 -0.0583 -0.4129 -0.3270
32486SOL    HW1 4316   2.530   2.827   1.888 -0.4133 -0.2755 -0.3848
32486SOL    HW2 4317   2.458   2.695   1.872  0.0280 -0.5224 -0.3675
32487SOL     OW 4318   9.362  10.094   8.375 -0.4852  0.1857  0.5268
32487SOL    HW1 4319   9.423  10.020   8.375  0.2847  0.8029 -0.1768
32487SOL    HW2 4320   9.414  10.167   8.407 -0.8450  0.7303 -0.1122
32488SOL     OW 4321   8.254   6.795   3.060 -0.0612 -0.5274 -0.1919
32488SOL    HW1 4322   8.314   6.754   2.997  1.0305  0.5497  0.1246
32488SOL    HW2 4323   8.262   6.889   3.043 -1.8634 -0.3662 -0.3062
32489SOL     OW 4324   9.500  11.325  10.184  0.1025 -0.1002  0.3561
32489SOL    HW1 4325   9.536  11.345  10.271 -1.7945 -0.5305  1.2844
32489SOL    HW2 4326   9.576  11.327  10.126  2.1351 -3.3798  2.5474
32490SOL     OW 4327   5.111   3.799   7.511 -0.1657 -0.6256  0.3554
32490SOL    HW1 4328   5.070   3.748   7.581 -0.6578 -2.7001 -1.3286
32490SOL    HW2 4329   5.183   3.744   7.481 -0.7426 -0.4033 -1.5632
32491SOL     OW 4330   9.421   1.155   7.415 -0.1460  0.0082  0.3711
32491SOL    HW1 4331   9.416   1.221   7.345 -0.3442  0.1541  0.5195
32491SOL    HW2 4332   9.491   1.185   7.472 -0.9996  0.7290  1.0741
32492SOL     OW 4333   8.345   2.845   7.813 -0.6209 -0.4101  0.2005
32492SOL    HW1 4334   8.404   2.860   7.739 -1.6400 -0.9279 -0.7424
32492SOL    HW2 4335   8.317   2.932   7.841 -0.5232 -0.2270 -0.2733
32493SOL     OW 4336   1.392   4.311   2.914 -0.2575  0.5921  0.2189
32493SOL    HW1 4337   1.408   4.364   2.993 -1.7927  0.4594  0.6460
32493SOL    HW2 4338   1.452   4.237   2.923  1.5742  1.9473 -0.1409
32494SOL     OW 4339  10.279   2.017   9.972  0.6352  0.3837  0.3314
32494SOL    HW1 4340  10.207   2.006  10.033  1.0828 -0.7550  0.6701
32494SOL    HW2 4341  10.336   2.083  10.013  1.1497 -0.6725  1.3638
32495SOL     OW 4342  11.632   7.756   0.722 -0.9392 -0.1413  0.0837
32495SOL    HW1 4343  11.663   7.678   0.769  0.4374  0.5734  0.4287
32495SOL    HW2 4344  11.564   7.793   0.777 -0.6543 -0.3656  0.5933
32496SOL     OW 4345  10.076   0.773   0.279 -0.1594  0.0912 -0.0197
32496SOL    HW1 4346  10.031   0.691   0.299 -1.1091 -0.1425 -2.7156
32496SOL    HW2 4347  10.168   0.749   0.271 -0.1847 -0.3483  0.8812
32497SOL     OW 4348   9.412   8.024   1.757 -0.0196  0.0856 -0.1053
32497SOL    HW1 4349   9.362   7.963   1.811 -3.1105  2.3473 -0.1335
32497SOL    HW2 4350   9.410   7.986   1.669 -0.7791 -0.4018  0.1160
32498SOL     OW 4351   3.615   1.958   8.236 -0.1966 -0.3161 -0.4009
32498SOL    HW1 4352   3.546   1.936   8.173 -0.7654  1.6004 -0.5058
32498SOL    HW2 4353   3.576   1.940   8.321 -1.0019  1.0201 -0.4421
32499SOL     OW 4354  10.856  10.291   3.337  0.6514 -0.0460  0.3125
32499SOL    HW1 4355  10.889  10.207   3.307  0.2344 -0.3215  0.6146
32499SOL    HW2 4356  10.844  10.280   3.432  1.4998  0.6577  0.5253
32500SOL     OW 4357  10.764   6.990   4.323  0.4601  0.7584  0.1837
32500SOL    HW1 4358  10.796   7.064   4.375  2.1975  0.1208  0.0810
32500SOL    HW2 4359  10.814   6.915   4.355 -1.0107 -0.3203  0.0327
32501SOL     OW 4360   5.468   5.398   8.845 -0.3064 -0.3667  0.6573
32501SOL    HW1 4361   5.500   5.387   8.756  0.1980  0.8029  0.6747
32501SOL    HW2 4362   5.542   5.436   8.892 -1.0093  0.2878  1.2455
32502SOL     OW 4363  12.097   8.084   0.557  0.1308  0.4270  0.6336
32502SOL    HW1 4364  12.140   7.999   0.567  0.5932  0.6273  0.3670
32502SOL    HW2 4365  12.102   8.103   0.463  1.3162  1.4144  0.8784
32503SOL     OW 4366   5.040  12.288   7.363  0.3205  0.9407  0.9132
32503SOL    HW1 4367   4.966  12.349   7.370 -0.1856  0.3625  0.7502
32503SOL    HW2 4368   5.043  12.266   7.270 -0.9374 -0.9971  1.2780
32504SOL     OW 4369   1.228   3.422   3.291 -0.1182  0.0421  0.7839
32504SOL    HW1 4370   1.193   3.455   3.208 -1.4778 -1.2364  0.7917
32504SOL    HW2 4371   1.158   3.438   3.355 -0.1729 -1.2984  1.1077
32505SOL     OW 4372   4.337   0.644   9.839  0.0948 -0.0990 -0.4770
32505SOL    HW1 4373   4.350   0.628   9.933 -1.9824  1.5342  0.1557
32505SOL    HW2 4374   4.414   0.695   9.813 -0.0020  0.7021  0.7121
32506SOL     OW 4375   1.698  11.902  11.235 -0.1896  0.0988 -0.0020
32506SOL    HW1 4376   1.773  11.848  11.258  0.1635  1.7508  3.3303
32506SOL    HW2 4377   1.721  11.940  11.150  1.0521 -2.1644 -0.7599
32507SOL     OW 4378   3.379   8.473   3.831  0.3532  0.2536 -0.4244
32507SOL    HW1 4379   3.443   8.511   3.891 -0.6592  0.1745  0.7536
32507SOL    HW2 4380   3.361   8.543   3.768  3.1661 -0.4346 -2.1301
32508SOL     OW 4381   6.926  10.516   9.035  0.4222 -0.7665  0.3109
32508SOL    HW1 4382   6.844  10.562   9.052  0.4491  0.7632 -2.9022
32508SOL    HW2 4383   6.899  10.434   8.993  0.5087 -0.6605  0.0468
32509SOL     OW 4384   7.207  11.854   9.852 -0.0349 -0.2775  0.0842
32509SOL    HW1 4385   7.131  11.912   9.858  1.3685  1.5594  0.9579
32509SOL    HW2 4386   7.219  11.820   9.940 -0.9643 -2.1489 -0.4578
32510SOL     OW 4387   0.168   5.780   2.386  0.1892  0.0183  0.5491
32510SOL    HW1 4388   0.143   5.806   2.475 -0.6986 -0.1094  0.3416
32510SOL    HW2 4389   0.255   5.741   2.397  0.1612  0.1549  1.3400
32511SOL     OW 4390  10.718   2.100   7.192 -0.5944  0.1338 -0.1297
32511SOL    HW1 4391  10.810   2.085   7.174 -0.9642 -1.8762 -0.5624
32511SOL    HW2 4392  10.676   2.106   7.106 -0.9015  1.0127  0.0608
32512SOL     OW 4393   3.449   9.182   5.092  0.1442 -0.5776 -0.2222
32512SOL    HW1 4394   3.462   9.265   5.047  1.8852  0.3838  1.8663
32512SOL    HW2 4395   3.528   9.131   5.071  0.2567 -0.7035  0.4910
32513SOL     OW 4396  10.823   1.989   3.657 -0.0357 -0.1389  0.0017
32513SOL    HW1 4397  10.824   1.894   3.648  0.7503 -0.3112  1.5895
32513SOL    HW2 4398  10.883   2.007   3.729  0.2107  1.6113 -0.5948
32514SOL     OW 4399   0.150   5.977  11.169 -0.3786  0.2780 -0.0215
32514SOL    HW1 4400   0.090   6.052  11.171 -0.7942 -0.0731  0.9070
32514SOL    HW2 4401   0.198   5.988  11.086 -2.0127  0.3366 -1.0082
32515SOL     OW 4402  10.029   2.676  11.004  0.0350 -0.4127  0.0438
32515SOL    HW1 4403   9.953   2.673  10.945  0.4934 -2.0330 -0.5129
32515SOL    HW2 4404  10.086   2.743  10.965 -0.1409 -0.7198 -0.7756
32516SOL     OW 4405   3.259   9.239  11.368  0.0665 -0.7160  0.0144
32516SOL    HW1 4406   3.271   9.266  11.277 -1.0896  1.2850  0.3972
32516SOL    HW2 4407   3.347   9.241  11.406  0.2022  1.9333 -0.2249
32517SOL     OW 4408   7.986   9.661   1.509  0.3184 -0.6409  0.3828
32517SOL    HW1 4409   7.906   9.621   1.474  0.0598 -0.0464  0.2808
32517SOL    HW2 4410   7.957   9.711   1.585  0.3782  0.5816 -0.3642
32518SOL     OW 4411   2.234   1.386   7.457 -0.6098  0.0738 -0.1524
32518SOL    HW1 4412   2.233   1.362   7.364 -1.5972 -1.2352  0.1690
32518SOL    HW2 4413   2.174   1.325   7.498 -0.7188  1.0868  1.2595
32519SOL     OW 4414   5.430   0.191   1.297 -0.5179 -0.5789 -0.7783
32519SOL    HW1 4415   5.441   0.096   1.297  0.1229 -0.5046 -1.1660
32519SOL    HW2 4416   5.356   0.206   1.357 -0.1869 -1.2639 -0.1822
32520SOL     OW 4417   5.561   3.911   4.797 -0.0239  0.2423 -0.7962
32520SOL    HW1 4418   5.558   3.936   4.704  0.3066  0.5026 -0.7357
32520SOL    HW2 4419   5.644   3.945   4.829 -0.7221  1.3179 -0.0734
32521SOL     OW 4420   3.959   8.392   1.437 -0.2593  0.4541  0.3676
32521SOL    HW1 4421   4.011   8.436   1.504  1.0625 -0.6702  0.1387
32521SOL    HW2 4422   3.870   8.391   1.472  0.2153  0.7890  1.6401
32522SOL     OW 4423   6.539   3.254   7.184  0.4107 -0.9164  0.3477
32522SOL    HW1 4424   6.462   3.303   7.153  0.5743 -0.3361  0.8303
32522SOL    HW2 4425   6.612   3.313   7.170  0.5334 -0.7792  1.4919
32523SOL     OW 4426   3.243  10.994   6.577 -0.3202 -0.2675 -0.1905
32523SOL    HW1 4427   3.294  10.913   6.584 -0.7882 -0.4807  1.0635
32523SOL    HW2 4428   3.249  11.018   6.485 -1.0817 -2.3507 -0.8613
32524SOL     OW 4429   2.533   4.763   1.067 -0.5140  0.1083 -0.0202
32524SOL    HW1 4430   2.523   4.799   1.155 -1.6509  0.7718 -0.4023
32524SOL    HW2 4431   2.484   4.823   1.011 -0.1162 -0.5146 -1.0569
32525SOL     OW 4432   6.483   3.962  11.312 -0.2658 -0.2543 -0.7221
32525SOL    HW1 4433   6.535   4.028  11.358  0.1724  0.2902 -1.9320
32525SOL    HW2 4434   6.420   3.932  11.376  0.0310  0.7910  0.0936
32526SOL     OW 4435   8.464  11.849   2.983 -0.0733  0.1352  0.1771
32526SOL    HW1 4436   8.555  11.835   3.006 -0.2298  0.2340  0.8744
32526SOL    HW2 4437   8.443  11.776   2.924  0.1063 -0.6039  0.9990
32527SOL     OW 4438   7.996   1.881  11.187 -0.1955  0.4639  0.2123
32527SOL    HW1 4439   8.029   1.853  11.101  2.2939 -1.7823  1.7303
32527SOL    HW2 4440   7.915   1.832  11.199  1.3113 -2.1129  0.5433
32528SOL     OW 4441  10.962   0.006   1.009  1.2133  0.1458  0.4138
32528SOL    HW1 4442  10.892  -0.047   0.971  1.3609 -0.5367  1.0487
32528SOL    HW2 4443  11.042  -0.038   0.982  1.4075  0.8861 -0.2524
32529SOL     OW 4444   8.569   1.898   3.066 -0.4763  0.2014 -0.1662
32529SOL    HW1 4445   8.620   1.975   3.040 -0.1536  0.8729  2.1887
32529SOL    HW2 4446   8.478   1.928   3.064 -0.4003  0.4574  0.1104
32530SOL     OW 4447   2.369   3.073   1.160  0.0169  0.9258  0.0214
32530SOL    HW1 4448   2.342   3.064   1.252  1.5599  0.3139  0.4413
32530SOL    HW2 4449   2.426   2.998   1.145 -2.2770 -0.5203 -2.2538
32531SOL     OW 4450   7.782   3.715   2.180 -0.0223 -0.6908 -0.6508
32531SOL    HW1 4451   7.748   3.686   2.265 -0.5777  0.5350 -0.4454
32531SOL    HW2 4452   7.762   3.808   2.176 -0.7933 -0.8822 -2.4916
32532SOL     OW 4453   9.002  12.348   0.699 -0.3030 -0.3515  0.1461
32532SOL    HW1 4454   8.911  12.378   0.706 -0.7445 -1.9666  2.7394
32532SOL    HW2 4455   8.996  12.265   0.652 -0.2106 -0.5423  0.4671
32533SOL     OW 4456   9.314  11.100   8.472  0.1322  0.5153 -0.2228
32533SOL    HW1 4457   9.290  11.074   8.383  0.8294 -0.2845 -0.1888
32533SOL    HW2 4458   9.409  11.090   8.475  0.0358 -0.2348  0.8568
32534SOL     OW 4459   2.671   3.785   2.448 -0.0770  0.1071  0.4200
32534SOL    HW1 4460   2.662   3.870   2.491  0.5813  0.3901  0.0292
32534SOL    HW2 4461   2.583   3.749   2.446 -0.2935  0.5898  0.9837
32535SOL     OW 4462   1.995   9.481  11.654 -0.1721 -0.0626 -0.7027
32535SOL    HW1 4463   1.975   9.456  11.564 -2.0436 -0.1441 -0.3218
32535SOL    HW2 4464   1.917   9.455  11.703  1.0508 -0.5544  1.0591
32536SOL     OW 4465   5.341   0.940   4.926 -0.0702  0.4275  0.2880
32536SOL    HW1 4466   5.360   0.872   4.862 -1.8081 -0.0003  0.1604
32536SOL    HW2 4467   5.425   0.959   4.967  0.8451 -0.1999 -1.2232
32537SOL     OW 4468   7.359   0.532  10.460  0.3513 -0.2924  0.4188
32537SOL    HW1 4469   7.363   0.627  10.447 -0.9909 -0.2618  0.0572
32537SOL    HW2 4470   7.272   0.507  10.428 -0.3539 -1.2651  2.8281
32538SOL     OW 4471   7.127  10.775   4.330  0.6443  0.0630 -0.0824
32538SOL    HW1 4472   7.089  10.857   4.363  0.9263 -0.8083  2.6416
32538SOL    HW2 4473   7.214  10.800   4.298 -0.7362  1.4523 -3.1063
32539SOL     OW 4474  10.707  12.036   2.420  0.1479  0.4508 -0.6536
32539SOL    HW1 4475  10.674  11.955   2.381  1.1702  0.3541 -1.3525
32539SOL    HW2 4476  10.772  12.068   2.358  1.4446  0.5774  0.7222
32540SOL     OW 4477  11.606   8.028   9.276 -0.0148 -0.1612  0.3757
32540SOL    HW1 4478  11.685   8.002   9.323  1.1796  0.9237 -0.9067
32540SOL    HW2 4479  11.579   7.949   9.229  0.1939 -0.5929  0.9714
32541SOL     OW 4480  12.388   8.336   5.862 -0.0307 -0.1535  0.2625
32541SOL    HW1 4481  12.369   8.389   5.939  2.9604  1.0882  0.2850
32541SOL    HW2 4482  12.388   8.246   5.895 -2.9476 -0.0981  0.7052
32542SOL     OW 4483   2.842   8.667  12.369 -0.0410 -0.3397 -0.1322
32542SOL    HW1 4484   2.898   8.744  12.374 -0.8317  0.2722 -0.5177
32542SOL    HW2 4485   2.876   8.608  12.437  1.4885 -0.2804 -0.7985
32543SOL     OW 4486   7.536  11.524   1.368 -0.2848 -0.1984  0.1893
32543SOL    HW1 4487   7.602  11.543   1.302 -1.3547  2.3420 -0.2560
32543SOL    HW2 4488   7.571  11.563   1.449 -1.8843  2.8510 -0.4316
32544SOL     OW 4489   8.591   9.295   9.568 -0.4006  0.1343 -0.4107
32544SOL    HW1 4490   8.578   9.366   9.632 -0.0969 -0.4457  0.3053
32544SOL    HW2 4491   8.653   9.332   9.505  0.5599  0.1828  0.5180
32545SOL     OW 4492   6.288   9.672   9.429  0.6369  0.6929  0.1484
32545SOL    HW1 4493   6.383   9.660   9.434  0.5389  0.4250  2.7400
32545SOL    HW2 4494   6.276   9.760   9.394  1.7648  0.0851 -1.8782
32546SOL     OW 4495   5.522   4.186  10.744  0.4973 -0.0027  0.0366
32546SOL    HW1 4496   5.453   4.248  10.768 -0.3915 -0.1741 -1.8374
32546SOL    HW2 4497   5.476   4.117  10.696  1.9059 -0.3140 -0.9549
32547SOL     OW 4498   6.900  11.536   9.881  0.4679 -0.2632  0.2361
32547SOL    HW1 4499   6.866  11.451   9.854  1.4461 -0.8067  0.6957
32547SOL    HW2 4500   6.962  11.560   9.812 -0.4597  0.5126 -0.3588
32548SOL     OW 4501   5.059   1.306   4.006  0.1536 -0.0765  0.8114
32548SOL    HW1 4502   4.986   1.350   4.050  0.2407 -0.8341  1.7326
32548SOL    HW2 4503   5.018   1.246   3.944  0.0250  1.8933 -1.1462
32549SOL     OW 4504  12.419   7.692   9.260 -0.2495  0.1996  0.4891
32549SOL    HW1 4505  12.460   7.669   9.343 -0.2790  1.1718  0.7793
32549SOL    HW2 4506  12.491   7.719   9.204 -0.4644  1.9158  1.0021
32550SOL     OW 4507   6.231   2.761   2.465 -0.1956 -0.5628  0.3117
32550SOL    HW1 4508   6.203   2.850   2.483 -1.2563 -0.3811 -1.9109
32550SOL    HW2 4509   6.150   2.711   2.456  0.3358 -1.3985  0.0026
32551SOL     OW 4510   0.264  11.128   9.575  0.2820 -0.3202 -0.1543
32551SOL    HW1 4511   0.314  11.130   9.493  0.5565  0.5771  0.0298
32551SOL    HW2 4512   0.173  11.142   9.548 -0.1063 -3.1726 -0.6220
32552SOL     OW 4513   2.597   1.001   0.937  0.0464 -0.2854  0.1591
32552SOL    HW1 4514   2.537   0.927   0.944  0.8871 -0.8312  2.4396
32552SOL    HW2 4515   2.560   1.068   0.996  0.8671 -0.0715  0.4509
32553SOL     OW 4516   7.860   0.911   2.631  0.2999  0.1876 -0.3932
32553SOL    HW1 4517   7.924   0.885   2.565  0.8329  0.0348  0.1675
32553SOL    HW2 4518   7.901   0.887   2.715 -0.1450  0.8392  0.0202
32554SOL     OW 4519  11.688   5.690   4.069  0.1597 -0.2731 -0.4010
32554SOL    HW1 4520  11.619   5.643   4.022  0.3083 -0.5864 -0.3073
32554SOL    HW2 4521  11.717   5.629   4.137 -0.5733  0.4469  0.5898
32555SOL     OW 4522   2.896   4.207  11.627  0.1127 -0.1781 -0.0959
32555SOL    HW1 4523   2.904   4.117  11.594 -2.6187 -0.7050  0.4179
32555SOL    HW2 4524   2.957   4.258  11.573  0.4514 -2.0495 -1.5915
32556SOL     OW 4525  12.522   6.282   8.675 -0.0102  0.4000  0.2846
32556SOL    HW1 4526  12.616   6.281   8.694 -0.5748  0.9897  3.9285
32556SOL    HW2 4527  12.490   6.362   8.716 -2.3296 -0.6141  0.6229
32557SOL     OW 4528   9.932  12.241   4.196 -0.2141  0.3213 -0.5784
32557SOL    HW1 4529  10.000  12.256   4.131 -0.2428  2.5729 -0.1603
32557SOL    HW2 4530   9.852  12.228   4.145  0.1928 -0.4482 -1.0273
32558SOL     OW 4531  11.083   3.867  12.241 -0.3917  0.5476 -0.3114
32558SOL    HW1 4532  11.067   3.799  12.307 -0.3791  0.8054 -0.0392
32558SOL    HW2 4533  11.001   3.872  12.191  0.0579 -0.5972 -1.2070
32559SOL     OW 4534  10.848   6.519   5.609 -0.5344  0.6465  0.2053
32559SOL    HW1 4535  10.943   6.520   5.615 -0.3343  1.1214 -2.2543
32559SOL    HW2 4536  10.820   6.588   5.670  0.9141  2.7605 -1.3784
32560SOL     OW 4537   4.040  10.898   9.764 -0.8206 -0.0118  0.2846
32560SOL    HW1 4538   3.977  10.927   9.697  0.3220  0.2785 -0.6959
32560SOL    HW2 4539   4.074  10.979   9.802  0.1831 -0.1131 -0.3696
32561SOL     OW 4540   7.103   3.742  10.218  0.0746 -0.9044  0.0094
32561SOL    HW1 4541   7.029   3.680  10.222  0.3892 -1.2489  0.7607
32561SOL    HW2 4542   7.136   3.734  10.129 -0.0119 -1.6917  0.0397
32562SOL     OW 4543   8.159   9.625   6.733 -0.2834  0.0757 -0.0503
32562SOL    HW1 4544   8.158   9.607   6.639 -0.2586  1.2782 -0.2903
32562SOL    HW2 4545   8.235   9.577   6.766 -0.0568 -0.0266 -0.7090
32563SOL     OW 4546  11.409   5.059   0.974 -0.1817  0.2838  0.2064
32563SOL    HW1 4547  11.315   5.072   0.987 -0.7155 -1.4584 -1.5273
32563SOL    HW2 4548  11.431   4.985   1.032 -0.2837 -0.4420 -0.6551
32564SOL     OW 4549  11.538   7.753   5.734  0.2321  0.3813 -0.1266
32564SOL    HW1 4550  11.549   7.723   5.824 -2.3194  0.8008  0.4100
32564SOL    HW2 4551  11.583   7.838   5.731  0.2557  0.4082  0.7701
32565SOL     OW 4552   2.090   5.849   8.762 -0.1914 -0.0024  0.3054
32565SOL    HW1 4553   2.107   5.943   8.753 -0.5333 -0.0122 -0.5358
32565SOL    HW2 4554   2.017   5.844   8.825  1.5705  0.1316  2.4751
32566SOL     OW 4555   5.752   8.701   0.498 -0.3130  0.1929 -0.3710
32566SOL    HW1 4556   5.733   8.612   0.528  2.9643 -0.1615  1.0871
32566SOL    HW2 4557   5.815   8.689   0.427 -0.5430  1.3495 -0.7877
32567SOL     OW 4558   6.907  11.435   7.702 -0.5167  0.0345 -0.3788
32567SOL    HW1 4559   6.859  11.366   7.656 -1.2584 -0.4911  1.1334
32567SOL    HW2 4560   6.877  11.430   7.792  0.4463  1.4470  0.0624
32568SOL     OW 4561   0.760   1.011   7.161 -0.0142  0.4576 -0.0796
32568SOL    HW1 4562   0.671   0.982   7.141 -0.2727 -0.4246  2.0792
32568SOL    HW2 4563   0.749   1.094   7.207  0.3825  1.0868 -1.0968
32569SOL     OW 4564   8.249   0.930   1.972 -0.1866  0.4348  0.0533
32569SOL    HW1 4565   8.293   0.984   1.908  1.0259  0.2967  0.7389
32569SOL    HW2 4566   8.156   0.938   1.950  0.1132  1.2615 -1.0150
32570SOL     OW 4567   7.216   0.145   6.475 -0.1291 -0.3468  0.2734
32570SOL    HW1 4568   7.206   0.050   6.479  3.6316 -0.9069 -0.5353
32570SOL    HW2 4569   7.150   0.173   6.411  0.1508 -2.7508 -1.2076
32571SOL     OW 4570   3.779   9.606  10.302 -0.1945 -0.4108  0.3683
32571SOL    HW1 4571   3.707   9.595  10.241 -0.7306 -0.5789  1.0215
32571SOL    HW2 4572   3.857   9.583  10.252 -0.6177 -0.4486 -0.2760
32572SOL     OW 4573   7.108   6.935   4.860 -0.0220 -0.1061 -0.2031
32572SOL    HW1 4574   7.041   6.881   4.817  0.5033 -0.7270 -0.2647
32572SOL    HW2 4575   7.120   6.895   4.946 -1.1975  1.2397  0.6448
32573SOL     OW 4576  11.672   3.563  10.963 -0.1094  0.5102  0.2829
32573SOL    HW1 4577  11.711   3.482  10.931 -1.1560 -0.1158  0.5554
32573SOL    HW2 4578  11.716   3.632  10.913 -0.3012 -0.3144 -1.0556
32574SOL     OW 4579   5.713  10.441   5.256 -0.8530  0.1288  0.2676
32574SOL    HW1 4580   5.645  10.466   5.318 -0.7099 -1.0025  0.9030
32574SOL    HW2 4581   5.792  10.433   5.309 -0.6994 -0.7024 -0.0657
32575SOL     OW 4582   9.711   3.975   6.928 -0.0403  0.1970 -0.1511
32575SOL    HW1 4583   9.668   4.058   6.947  0.5737  0.2816  0.9683
32575SOL    HW2 4584   9.639   3.913   6.917 -0.5128  0.9416 -1.3781
32576SOL     OW 4585   8.290  10.534   8.319  0.1104 -0.0630 -0.3258
32576SOL    HW1 4586   8.346  10.580   8.381  2.0828  0.2191 -2.2040
32576SOL    HW2 4587   8.321  10.443   8.320 -0.4898 -0.2749 -0.2209
32577SOL     OW 4588   4.064  10.448   0.064  0.2813  0.1452 -0.6741
32577SOL    HW1 4589   4.055  10.519   0.000 -0.2793  0.5656 -0.1363
32577SOL    HW2 4590   4.119  10.484   0.133 -0.9388  0.4712  0.1627
32578SOL     OW 4591   1.192   2.247   6.524 -0.6173  0.4414  0.0004
32578SOL    HW1 4592   1.206   2.319   6.585  1.7542  0.0285  0.0309
32578SOL    HW2 4593   1.256   2.262   6.455 -2.0437 -0.0944 -1.5117
32579SOL     OW 4594   6.812   0.235   9.075 -0.6661 -0.3610 -0.3168
32579SOL    HW1 4595   6.784   0.327   9.079  0.2089 -0.1221  0.6812
32579SOL    HW2 4596   6.788   0.207   8.986  0.2371  1.2361 -1.1101
32580SOL     OW 4597   5.613  11.678  10.798  0.3054 -0.9640 -0.7119
32580SOL    HW1 4598   5.572  11.650  10.717  2.1746 -0.0407 -2.0486
32580SOL    HW2 4599   5.679  11.742  10.771 -0.5285  1.0837  1.7367
32581SOL     OW 4600   3.239   8.107   3.069  0.1877 -0.5905  0.2039
32581SOL    HW1 4601   3.209   8.193   3.097 -0.0622 -1.0318  1.3370
32581SOL    HW2 4602   3.302   8.080   3.136 -1.7768 -2.4514  1.4534
32582SOL     OW 4603   5.350   3.663  12.486 -0.1842  0.8287  0.6167
32582SOL    HW1 4604   5.415   3.702  12.544  0.8096  2.2462 -1.3331
32582SOL    HW2 4605   5.392   3.662  12.400 -2.6495  1.6031 -0.6885
32583SOL     OW 4606  11.605   7.248   0.523 -0.3179 -0.2833  0.4836
32583SOL    HW1 4607  11.647   7.163   0.535  0.9536  0.4505  1.4452
32583SOL    HW2 4608  11.676   7.307   0.501 -0.6578  1.1541  2.8902
32584SOL     OW 4609   4.904   4.251   5.018  0.6356 -0.2797  0.4534
32584SOL    HW1 4610   4.828   4.207   4.978 -0.1544  0.5156  1.0273
32584SOL    HW2 4611   4.955   4.181   5.057  0.7446 -0.9431 -0.8320
32585SOL     OW 4612   4.825   1.270  10.336 -0.5760 -0.3893 -0.2863
32585SOL    HW1 4613   4.913   1.290  10.305  1.3608 -0.9823  4.1127
32585SOL    HW2 4614   4.783   1.355  10.346 -0.8664 -0.1314 -2.9946
32586SOL     OW 4615  10.339   6.716  10.686 -0.4227  0.5602  0.0581
32586SOL    HW1 4616  10.426   6.733  10.649 -0.2654 -1.7620 -0.8035
32586SOL    HW2 4617  10.350   6.638  10.740 -1.9398  0.3072  0.0546
32587SOL     OW 4618   8.263  10.488   5.057 -0.0375  0.0607  0.5076
32587SOL    HW1 4619   8.264  10.400   5.095  0.3133  0.7789  2.2755
32587SOL    HW2 4620   8.343  10.528   5.090  1.2558  0.1760 -2.5440
32588SOL     OW 4621   5.468   6.708   1.880 -0.0420 -0.7519 -0.2604
32588SOL    HW1 4622   5.528   6.703   1.955  2.2325 -0.4853 -1.9483
32588SOL    HW2 4623   5.411   6.631   1.890  0.3360 -0.8336  1.6041
32589SOL     OW 4624   8.567  11.315  11.768 -0.4667  0.2214 -0.0827
32589SOL    HW1 4625   8.566  11.385  11.702 -0.0191  0.4998  0.2040
32589SOL    HW2 4626   8.655  11.319  11.805 -0.1055 -1.1291 -0.7365
32590SOL     OW 4627   9.888   5.827   6.040 -0.1557  0.5637 -0.0367
32590SOL    HW1 4628   9.865   5.803   5.950 -1.8439  0.7710  0.3071
32590SOL    HW2 4629   9.847   5.760   6.094  0.8947  0.4096  0.6045
32591SOL     OW 4630   0.240   9.982   0.534 -0.1709  0.0602  0.5611
32591SOL    HW1 4631   0.273   9.933   0.459 -0.0578 -0.6540  1.0593
32591SOL    HW2 4632   0.288  10.065   0.533 -0.5848  0.2939 -0.4708
32592SOL     OW 4633   3.601  12.303   0.360  0.0593  0.9430  0.3922
32592SOL    HW1 4634   3.557  12.373   0.409  0.1235  0.3546  1.3127
32592SOL    HW2 4635   3.599  12.228   0.419 -0.7996 -0.1080 -0.9188
32593SOL     OW 4636   1.928  11.053   6.689 -0.1226 -0.0109  0.2569
32593SOL    HW1 4637   1.917  11.021   6.778 -0.2203  0.1728  0.3099
32593SOL    HW2 4638   1.971  10.980   6.643 -0.7614 -0.3925  0.2607
32594SOL     OW 4639   5.750   9.952   8.072 -0.3233  0.0896  0.4365
32594SOL    HW1 4640   5.804   9.938   7.994 -0.3157 -0.2677  0.5063
32594SOL    HW2 4641   5.811   9.986   8.138  0.1087 -1.5566  0.9330
32595SOL     OW 4642   5.792   0.914  10.502  0.0529 -0.2251  0.3956
32595SOL    HW1 4643   5.827   0.978  10.440 -2.8518  0.4438 -0.6848
32595SOL    HW2 4644   5.851   0.920  10.577  1.2173  2.0413 -0.5852
32596SOL     OW 4645  10.962   7.384  10.079  0.2804 -0.2771  0.5319
32596SOL    HW1 4646  11.055   7.406  10.079 -0.0873  1.4262  0.8336
32596SOL    HW2 4647  10.950   7.328  10.002  1.2627  0.8317 -0.4660
32597SOL     OW 4648   8.960   1.720   9.915  0.2188  0.0668 -0.0317
32597SOL    HW1 4649   8.874   1.741   9.879 -0.0875 -1.7348 -0.4392
32597SOL    HW2 4650   9.005   1.674   9.844  1.0663 -0.0612  0.5749
32598SOL     OW 4651  11.573   1.841   0.864 -1.0081  0.4019  0.5735
32598SOL    HW1 4652  11.581   1.832   0.959 -0.5212 -1.5630  0.3941
32598SOL    HW2 4653  11.556   1.752   0.833  0.7738  0.6487 -1.3566
32599SOL     OW 4654   3.572   5.717   3.615  0.4186 -0.1695 -0.2531
32599SOL    HW1 4655   3.584   5.738   3.522  1.9683  0.7987  0.1367
32599SOL    HW2 4656   3.506   5.647   3.615 -0.9623  1.0408 -1.9431
32600SOL     OW 4657   7.486   7.993   3.432  0.4272 -0.0627 -0.2359
32600SOL    HW1 4658   7.470   7.932   3.504  1.6558 -0.2069 -0.0613
32600SOL    HW2 4659   7.537   7.943   3.369 -0.2142  0.2145 -0.9870
32601SOL     OW 4660   6.484   2.855   0.850 -0.6665  0.1049  0.0055
32601SOL    HW1 4661   6.536   2.921   0.896  1.3092 -0.7082 -0.9546
32601SOL    HW2 4662   6.401   2.851   0.899  0.0760  1.6047  1.4630
32602SOL     OW 4663  12.577   9.610   9.616 -0.1461  0.0200 -0.3562
32602SOL    HW1 4664  12.554   9.548   9.684 -1.3304 -0.2153 -0.9477
32602SOL    HW2 4665  12.593   9.556   9.538 -0.3113  0.3901 -0.6529
32603SOL     OW 4666   7.532   9.909  11.116  0.3933  0.2267 -0.6676
32603SOL    HW1 4667   7.541   9.899  11.021 -0.8336 -1.6366 -0.6455
32603SOL    HW2 4668   7.454   9.963  11.127  0.1354 -0.1304 -0.7250
32604SOL     OW 4669   7.806  11.163   9.783 -0.4519  0.1214 -0.0616
32604SOL    HW1 4670   7.890  11.197   9.755  0.3649 -1.0535  0.8346
32604SOL    HW2 4671   7.766  11.235   9.832  1.8658 -0.5161  3.0788
32605SOL     OW 4672   5.289   6.604   2.160 -0.2639 -0.3371  0.0555
32605SOL    HW1 4673   5.355   6.606   2.230 -1.7089  1.2988  1.4866
32605SOL    HW2 4674   5.209   6.577   2.204 -1.2362  0.8459 -0.9379
32606SOL     OW 4675   0.426   3.560   1.149  0.1774  0.3738  0.2039
32606SOL    HW1 4676   0.462   3.492   1.092  1.5250  1.0466  0.1935
32606SOL    HW2 4677   0.436   3.524   1.237 -0.1788  0.0957  0.1337
32607SOL     OW 4678   7.139  12.513   8.069  0.1849 -0.0021  0.1383
32607SOL    HW1 4679   7.205  12.485   8.006  2.1329  0.6480  1.7562
32607SOL    HW2 4680   7.182  12.583   8.119 -1.8982  0.7386  1.0074
32608SOL     OW 4681   0.686   3.304   0.357 -0.1084  0.0440  0.6254
32608SOL    HW1 4682   0.744   3.247   0.408  1.7469  1.4411  0.1799
32608SOL    HW2 4683   0.600   3.263   0.366  0.9879 -2.4369  0.8657
32609SOL     OW 4684   8.362   7.473  12.321 -0.0059 -0.5077 -0.4096
32609SOL    HW1 4685   8.446   7.437  12.347  0.1039 -0.4176 -0.6380
32609SOL    HW2 4686   8.297   7.410  12.353  0.1653 -0.7321 -0.5102
32610SOL     OW 4687  12.026   4.361   2.927  0.1450  0.0211  0.3253
32610SOL    HW1 4688  11.941   4.319   2.945 -0.1999  0.3179 -0.5504
32610SOL    HW2 4689  12.041   4.418   3.002  0.3136 -1.1790  1.2327
32611SOL     OW 4690   7.852   6.415   1.474  0.3458 -0.2170  0.2053
32611SOL    HW1 4691   7.913   6.488   1.489  2.1432 -1.6709  0.3252
32611SOL    HW2 4692   7.819   6.429   1.385  0.8406  0.6159  0.1418
32612SOL     OW 4693   0.723   7.081   3.372  0.2502  0.3420  0.5960
32612SOL    HW1 4694   0.770   7.088   3.289  0.5727 -0.1746  0.7305
32612SOL    HW2 4695   0.633   7.107   3.352  0.7644  2.1685  0.5104
32613SOL     OW 4696   8.311   9.415  11.574 -0.3850  0.1936 -0.7228
32613SOL    HW1 4697   8.309   9.457  11.660 -0.6138  0.0138 -0.6392
32613SOL    HW2 4698   8.250   9.466  11.521  2.8313  3.0570 -2.0856
32614SOL     OW 4699   4.090  12.439  11.771 -0.1774 -0.1190  0.0489
32614SOL    HW1 4700   4.073  12.429  11.677  1.6101  1.8787 -0.5556
32614SOL    HW2 4701   4.184  12.422  11.780 -0.3851 -0.6498  1.5765
32615SOL     OW 4702  10.435   0.452   8.728 -0.2776 -0.0548 -0.2985
32615SOL    HW1 4703  10.455   0.418   8.815 -0.1137  0.7976  0.0042
32615SOL    HW2 4704  10.340   0.450   8.722 -0.2396 -2.7066 -1.1689
32616SOL     OW 4705   9.718   4.485   0.628 -0.2430  0.1690 -0.6388
32616SOL    HW1 4706   9.689   4.411   0.576 -0.2216  0.4669 -1.0793
32616SOL    HW2 4707   9.793   4.521   0.579 -0.3108  0.5354 -0.4776
32617SOL     OW 4708   5.436   2.449   4.673 -0.4275  0.8577 -0.4351
32617SOL    HW1 4709   5.531   2.454   4.676 -0.3930  1.1217 -1.7438
32617SOL    HW2 4710   5.407   2.530   4.715 -0.1151  0.3485  0.8360
32618SOL     OW 4711   4.935   8.060   5.075 -0.4255 -0.7196  0.2474
32618SOL    HW1 4712   4.913   8.015   5.156 -0.7481 -2.5942 -0.8324
32618SOL    HW2 4713   4.876   8.023   5.010 -0.0424  0.6087 -0.9031
32619SOL     OW 4714  11.673   3.087   1.864  0.2916  0.4459 -0.1620
32619SOL    HW1 4715  11.661   3.159   1.801 -2.8577  0.7865  0.6204
32619SOL    HW2 4716  11.613   3.109   1.936  0.5982 -2.0656  0.9539
32620SOL     OW 4717   4.828   4.274  11.207  0.3367  0.4979  0.3902
32620SOL    HW1 4718   4.890   4.347  11.203  0.0508  0.7208 -2.2072
32620SOL    HW2 4719   4.753   4.305  11.157  0.3214 -1.6438 -1.0305
32621SOL     OW 4720   8.958   3.075   1.879 -0.4184 -0.3146 -0.1401
32621SOL    HW1 4721   8.892   3.023   1.925  0.2894  1.3728  2.9991
32621SOL    HW2 4722   8.915   3.099   1.796 -1.9778 -2.9869 -0.2108
32622SOL     OW 4723   0.482  12.078   9.702 -0.3681  0.2409 -0.5541
32622SOL    HW1 4724   0.477  12.085   9.607  1.0581 -1.5605 -0.8301
32622SOL    HW2 4725   0.543  12.147   9.728  1.2151 -0.7972 -1.2992
32623SOL     OW 4726   4.782   6.663   8.734 -0.0078 -0.2138 -0.1223
32623SOL    HW1 4727   4.690   6.685   8.718 -0.1276 -0.3814  0.3245
32623SOL    HW2 4728   4.782   6.624   8.821  0.5438  0.1254  0.0328
32624SOL     OW 4729   0.832   8.341   6.633  0.2813  0.2098 -0.7925
32624SOL    HW1 4730   0.760   8.402   6.643 -0.3423 -0.2587 -2.3081
32624SOL    HW2 4731   0.792   8.254   6.641  0.8502 -0.0484 -0.6389
32625SOL     OW 4732  10.138   8.690   1.303  0.1323  0.0785  0.1733
32625SOL    HW1 4733  10.141   8.758   1.236 -0.0070 -0.1523 -0.0704
32625SOL    HW2 4734  10.073   8.721   1.366 -1.7093 -0.9223 -1.1498
32626SOL     OW 4735   7.029   4.219  10.582 -0.8211 -0.2630  0.1166
32626SOL    HW1 4736   7.040   4.172  10.665 -2.6213  0.4880  0.8506
32626SOL    HW2 4737   6.970   4.291  10.604 -1.4328 -0.1109 -1.8449
32627SOL     OW 4738  10.726   0.574   3.852 -0.0901 -0.0874  0.5163
32627SOL    HW1 4739  10.783   0.640   3.813 -1.9673  1.0787 -0.3744
32627SOL    HW2 4740  10.647   0.621   3.877 -0.9435 -1.7484  1.1354
32628SOL     OW 4741   4.827   2.437   4.143 -0.2549 -0.3931 -0.5089
32628SOL    HW1 4742   4.803   2.347   4.164 -2.1616 -0.5304 -2.8294
32628SOL    HW2 4743   4.868   2.431   4.056  1.2250  0.8224  0.0550
32629SOL     OW 4744   8.312   3.076   8.381 -0.7127 -0.4575  0.4485
32629SOL    HW1 4745   8.403   3.048   8.388 -0.5031  0.1422  0.1802
32629SOL    HW2 4746   8.311   3.164   8.419 -0.8024  0.3029 -1.2355
32630SOL     OW 4747   0.912   7.945   8.951 -0.1573 -0.2488 -0.0117
32630SOL    HW1 4748   0.993   7.983   8.983 -1.4036  2.2573  0.4636
32630SOL    HW2 4749   0.907   7.858   8.991  1.8582 -0.1278  0.5753
32631SOL     OW 4750   1.103  12.026   6.167  0.6594  0.8151  0.1590
32631SOL    HW1 4751   1.011  12.054   6.166  1.1531  2.5356 -0.8847
32631SOL    HW2 4752   1.105  11.947   6.113 -0.5194 -0.4983  1.9159
32632SOL     OW 4753   4.159   3.961   3.600  0.1264  0.6114 -0.0421
32632SOL    HW1 4754   4.189   3.950   3.690 -0.8028  1.5722  0.4115
32632SOL    HW2 4755   4.192   3.884   3.553  0.7007  0.1525  1.0959
32633SOL     OW 4756   4.323   2.770   6.382  0.7768  0.3546 -0.0867
32633SOL    HW1 4757   4.249   2.760   6.322  0.0604  0.5070  0.7523
32633SOL    HW2 4758   4.315   2.696   6.443  0.4517  1.1703  0.8949
32634SOL     OW 4759   4.337  10.838   2.180  0.5481 -0.4160  0.2656
32634SOL    HW1 4760   4.302  10.797   2.101  1.4333  2.3143 -1.6966
32634SOL    HW2 4761   4.409  10.892   2.148  1.2402  0.4319  3.0455
32635SOL     OW 4762   6.113   4.128   3.173  0.5421 -0.3267 -0.6282
32635SOL    HW1 4763   6.126   4.085   3.257  2.1163 -0.7901 -1.0670
32635SOL    HW2 4764   6.048   4.074   3.128  1.3063 -1.3709 -0.5363
32636SOL     OW 4765   6.356   5.468   0.562 -0.5327 -0.3678 -0.2303
32636SOL    HW1 4766   6.364   5.439   0.471  1.1335  0.3184 -0.3432
32636SOL    HW2 4767   6.368   5.563   0.558 -0.5154 -0.3223  0.6933
32637SOL     OW 4768   6.736   5.641   1.787  0.3081  0.3096 -0.0534
32637SOL    HW1 4769   6.792   5.718   1.775 -0.0532  0.6006  0.0938
32637SOL    HW2 4770   6.734   5.599   1.701 -0.2089  0.9629 -0.3708
32638SOL     OW 4771   0.285   5.783   8.963 -0.5388 -0.5713  0.4069
32638SOL    HW1 4772   0.356   5.838   8.998  0.5628 -2.2406  0.9520
32638SOL    HW2 4773   0.330   5.721   8.906 -1.7017 -1.1285  0.0803
32639SOL     OW 4774   3.782   1.706   3.073 -0.2921  0.1144  0.0123
32639SOL    HW1 4775   3.869   1.710   3.113 -0.2849  0.8167 -0.0711
32639SOL    HW2 4776   3.790   1.759   2.994 -0.4522 -0.8346 -0.6587
32640SOL     OW 4777   7.516   2.912   0.271  0.3740 -0.3530 -0.1486
32640SOL    HW1 4778   7.427   2.936   0.295  0.7988  1.2883 -0.0916
32640SOL    HW2 4779   7.572   2.972   0.320  1.4759 -0.6916 -0.9225
32641SOL     OW 4780   6.143   6.872   8.136 -0.3141  0.2534 -0.0505
32641SOL    HW1 4781   6.192   6.910   8.208 -0.6704  0.7173 -0.0518
32641SOL    HW2 4782   6.175   6.916   8.058 -1.3058  1.1580  0.0333
32642SOL     OW 4783   7.588   4.380   0.148 -0.5347 -0.2432 -0.0420
32642SOL    HW1 4784   7.539   4.313   0.196 -0.2235 -0.4220  0.0294
32642SOL    HW2 4785   7.543   4.387   0.064 -1.0326  0.0113  0.2481
32643SOL     OW 4786   9.644  11.886   1.349 -0.0891  0.2865 -0.2570
32643SOL    HW1 4787   9.592  11.916   1.424  1.1737  2.9672 -0.3315
32643SOL    HW2 4788   9.636  11.956   1.284  1.4965 -0.4327 -1.2964
32644SOL     OW 4789   3.531   1.274   8.122  0.1613  0.4877 -0.1278
32644SOL    HW1 4790   3.577   1.338   8.177 -0.0812  1.9224 -1.5013
32644SOL    HW2 4791   3.585   1.196   8.126  1.1919  1.2082  0.5795
32645SOL     OW 4792   0.863   7.411   2.033 -0.0524 -0.8561 -0.4713
32645SOL    HW1 4793   0.884   7.356   1.957 -1.3517 -0.1976 -1.3430
32645SOL    HW2 4794   0.824   7.350   2.096 -0.6470 -1.1043 -1.0680
32646SOL     OW 4795  11.048   1.532   1.414 -0.1878 -0.3506  0.4446
32646SOL    HW1 4796  11.116   1.546   1.480  1.9746  2.7603 -2.1758
32646SOL    HW2 4797  11.089   1.476   1.349 -1.0702 -0.5637  0.0596
32647SOL     OW 4798   9.739   0.794  11.689  0.0549  0.5055 -0.2227
32647SOL    HW1 4799   9.709   0.812  11.778 -0.7295 -1.1347 -0.1107
32647SOL    HW2 4800   9.717   0.873  11.639  1.1944  1.7531  1.1631
32648SOL     OW 4801   6.632   0.797   1.098  0.0806 -0.2238 -0.1174
32648SOL    HW1 4802   6.617   0.752   1.182  1.8730 -2.6026 -0.9505
32648SOL    HW2 4803   6.686   0.736   1.048  1.0682  2.1334 -2.1345
32649SOL     OW 4804  11.980  11.570   2.233 -0.2771 -0.2210 -0.8871
32649SOL    HW1 4805  11.928  11.650   2.230  1.1737  0.7367 -3.1481
32649SOL    HW2 4806  12.041  11.582   2.306 -0.5414  0.4061 -0.7703
32650SOL     OW 4807   4.590   4.432   0.701 -0.3881 -0.0341  0.1371
32650SOL    HW1 4808   4.644   4.375   0.757  1.7952  2.3038  0.5962
32650SOL    HW2 4809   4.584   4.385   0.618  1.8533 -0.7343  0.2989
32651SOL     OW 4810  11.465   9.616   0.574  0.1094 -0.3711  0.2537
32651SOL    HW1 4811  11.429   9.640   0.660  0.2330 -1.6937  0.6930
32651SOL    HW2 4812  11.521   9.541   0.591  0.2590 -0.5620 -0.9743
32652SOL     OW 4813   1.261   2.169   9.585  0.0441  0.4653 -0.7283
32652SOL    HW1 4814   1.202   2.105   9.545 -0.8325  2.1916 -2.3543
32652SOL    HW2 4815   1.206   2.215   9.649 -0.2413  1.6746 -1.8190
32653SOL     OW 4816   3.181   1.742   9.400  0.0240 -0.4261  0.2776
32653SOL    HW1 4817   3.223   1.763   9.484  0.8521  0.3598 -0.3104
32653SOL    HW2 4818   3.107   1.802   9.395  1.2506  1.1278 -0.5055
32654SOL     OW 4819   7.513  12.073  10.287  0.2624  0.2149  0.1735
32654SOL    HW1 4820   7.434  12.127  10.292  0.8177  1.4681 -2.7298
32654SOL    HW2 4821   7.570  12.119  10.226  1.9591 -2.2604 -0.2558
32655SOL     OW 4822   1.634   1.981   7.966 -0.1459 -0.9223  0.1845
32655SOL    HW1 4823   1.608   1.927   7.891  0.3844 -1.0422  0.0893
32655SOL    HW2 4824   1.574   1.954   8.036 -1.6783  0.2780 -0.6062
32656SOL     OW 4825   5.223   5.240   0.763  0.2258  0.3065  0.4275
32656SOL    HW1 4826   5.241   5.219   0.855  0.7731 -0.0565  0.2461
32656SOL    HW2 4827   5.309   5.236   0.720 -0.0529  0.2554 -0.1397
32657SOL     OW 4828   0.615  11.924   0.482 -0.3482  0.0355  0.7468
32657SOL    HW1 4829   0.666  11.860   0.431  1.2338  2.0520 -0.3481
32657SOL    HW2 4830   0.543  11.949   0.424  0.7357  1.3943 -0.0736
32658SOL     OW 4831  12.527   1.883   7.654 -0.8283  0.0504 -0.3721
32658SOL    HW1 4832  12.536   1.829   7.732 -1.0599  1.5970  0.7648
32658SOL    HW2 4833  12.587   1.956   7.668  0.2739 -0.4071 -2.3584
32659SOL     OW 4834   0.022   6.689   6.118 -0.1352  0.5890  0.5766
32659SOL    HW1 4835  -0.031   6.615   6.089  2.3519 -0.6990 -1.0042
32659SOL    HW2 4836   0.081   6.707   6.045  2.4288  1.1127  2.6192
32660SOL     OW 4837  12.144  10.599  12.354 -0.2027 -0.1377 -0.4037
32660SOL    HW1 4838  12.198  10.525  12.380 -1.1491 -0.5405  0.4555
32660SOL    HW2 4839  12.165  10.613  12.261  0.9517 -0.6234 -0.2280
32661SOL     OW 4840   6.960   5.137   9.551  0.5493  1.2164 -0.3305
32661SOL    HW1 4841   6.885   5.102   9.599  2.1426  0.8994  2.0948
32661SOL    HW2 4842   6.923   5.208   9.497 -1.3786  1.5546  1.3167
32662SOL     OW 4843   8.363   4.806   2.420 -0.2971 -0.5425  0.7438
32662SOL    HW1 4844   8.356   4.835   2.511  0.2777 -0.3020  0.7113
32662SOL    HW2 4845   8.428   4.864   2.381 -0.2606 -0.8946  0.2788
32663SOL     OW 4846   8.610   2.970   9.104  0.3670  0.3404 -0.1197
32663SOL    HW1 4847   8.527   2.925   9.087  1.1350 -0.9685 -0.5245
32663SOL    HW2 4848   8.611   2.982   9.199 -0.6521  1.1344 -0.1907
32664SOL     OW 4849   4.245  11.594   6.169  0.0243 -0.2102  0.0870
32664SOL    HW1 4850   4.262  11.551   6.253 -0.2813  0.3567  0.4513
32664SOL    HW2 4851   4.320  11.572   6.114  0.0463 -0.8910  0.3912
32665SOL     OW 4852   5.332   5.507   2.764 -0.7336  0.1835 -0.4723
32665SOL    HW1 4853   5.285   5.589   2.748 -0.7611 -0.0068 -1.4333
32665SOL    HW2 4854   5.304   5.450   2.692  0.9308  0.0478 -1.0491
32666SOL     OW 4855   3.806   8.007   7.050  1.4531  0.1235  0.4693
32666SOL    HW1 4856   3.878   8.036   6.994 -0.3117  1.1685 -1.3717
32666SOL    HW2 4857   3.734   8.067   7.030 -1.3217 -3.3188 -0.9302
32667SOL     OW 4858  12.400   8.458  11.834 -0.1440  0.9191  0.4700
32667SOL    HW1 4859  12.426   8.394  11.900  2.6704  0.6053 -0.8122
32667SOL    HW2 4860  12.418   8.416  11.750 -0.5418  2.4912 -0.4523
32668SOL     OW 4861   9.164   8.371   9.946  0.1657 -0.1431  0.1695
32668SOL    HW1 4862   9.159   8.392  10.039  2.2487  1.4190  0.0008
32668SOL    HW2 4863   9.188   8.278   9.944 -0.9067 -0.4566  1.1415
32669SOL     OW 4864  11.641   7.879   7.518 -0.3666 -0.2185 -0.8776
32669SOL    HW1 4865  11.674   7.969   7.511  0.8595 -0.6835 -1.3392
32669SOL    HW2 4866  11.682   7.832   7.446 -1.7882 -0.9427 -1.2654
32670SOL     OW 4867   6.267   9.641   0.636 -0.1403 -0.7038  0.1835
32670SOL    HW1 4868   6.236   9.557   0.667 -2.7115  0.3124  0.5833
32670SOL    HW2 4869   6.253   9.639   0.541 -1.4103 -0.2965  0.3474
32671SOL     OW 4870  12.414  11.570   0.431 -0.1675 -0.5162  0.3589
32671SOL    HW1 4871  12.342  11.633   0.423  0.0093 -0.3845 -0.2497
32671SOL    HW2 4872  12.477  11.612   0.490  0.9363  0.8401 -1.6699
32672SOL     OW 4873   3.799   0.273   6.234 -0.4491 -0.3050 -0.2272
32672SOL    HW1 4874   3.741   0.323   6.177 -0.9875 -1.8097 -1.0546
32672SOL    HW2 4875   3.823   0.196   6.183  1.0178 -0.5133  0.6921
32673SOL     OW 4876   3.294  11.224  10.592 -0.5498 -0.1767 -0.0778
32673SOL    HW1 4877   3.202  11.209  10.613 -0.2682 -0.6866  0.8590
32673SOL    HW2 4878   3.293  11.258  10.503 -1.5814 -1.1715 -0.4703
32674SOL     OW 4879   0.338   4.854   0.630 -0.4094  0.1796 -0.1022
32674SOL    HW1 4880   0.300   4.941   0.641 -0.4838  0.2370 -0.7464
32674SOL    HW2 4881   0.341   4.841   0.535 -0.8108 -0.7012 -0.0071
32675SOL     OW 4882   8.334   2.358  11.264  0.7421 -0.3450 -0.2804
32675SOL    HW1 4883   8.394   2.329  11.195 -0.6878 -1.3131 -1.1744
32675SOL    HW2 4884   8.275   2.283  11.278 -0.0795  0.4586  0.7714
32676SOL     OW 4885   4.707   8.128   8.331 -1.0681  0.0518  0.2135
32676SOL    HW1 4886   4.750   8.213   8.337 -0.4688 -0.3361  1.8934
32676SOL    HW2 4887   4.688   8.117   8.238 -0.2563  1.5697 -0.1590
32677SOL     OW 4888  11.635  10.150  12.539  0.4137 -0.0824  0.8377
32677SOL    HW1 4889  11.547  10.129  12.571  0.5394  0.7565  1.7698
32677SOL    HW2 4890  11.625  10.236  12.498  0.4160 -0.8143 -0.7737
32678SOL     OW 4891   2.344  11.346   8.406  0.0254  0.1641 -0.0045
32678SOL    HW1 4892   2.402  11.414   8.441 -0.4525 -0.0577  1.2639
32678SOL    HW2 4893   2.272  11.395   8.366  0.9865  0.4381 -1.4951
32679SOL     OW 4894  11.981   0.167   0.569 -0.5522 -0.0780 -0.2544
32679SOL    HW1 4895  12.047   0.099   0.568 -0.2476  0.2167 -0.4722
32679SOL    HW2 4896  11.930   0.153   0.490 -1.1646 -0.6976  0.2356
32680SOL     OW 4897  12.504   4.158  11.065  0.2658  0.1704 -0.2539
32680SOL    HW1 4898  12.518   4.252  11.049  2.5237  0.0802  0.7210
32680SOL    HW2 4899  12.575   4.134  11.125  0.3670 -2.3805 -1.2777
32681SOL     OW 4900   8.279   2.019   5.426  0.0903 -0.4774  0.2165
32681SOL    HW1 4901   8.230   2.000   5.346 -1.4082  0.8275  0.7704
32681SOL    HW2 4902   8.219   1.996   5.497  1.8916 -2.9534  1.0766
32682SOL     OW 4903   0.113   0.943  12.415 -0.8432 -0.6749  0.4438
32682SOL    HW1 4904   0.183   0.990  12.461 -1.0561  0.1210 -0.0277
32682SOL    HW2 4905   0.069   0.893  12.484 -0.3772 -0.4822  0.8950
32683SOL     OW 4906   0.409   8.163   7.166  0.0408 -0.1959 -0.5039
32683SOL    HW1 4907   0.500   8.142   7.149 -0.1989  0.3647 -2.7743
32683SOL    HW2 4908   0.368   8.078   7.187  0.8478 -0.6077 -0.5704
32684SOL     OW 4909   6.385   9.645   3.766 -0.6263  0.2311  0.5313
32684SOL    HW1 4910   6.440   9.674   3.839  0.4507 -0.5000  0.0395
32684SOL    HW2 4911   6.374   9.551   3.780  1.2086 -0.3175 -1.2270
32685SOL     OW 4912   9.262   9.227  12.471  0.1687  0.1904 -0.1430
32685SOL    HW1 4913   9.298   9.288  12.536  1.3095 -1.1714  0.5498
32685SOL    HW2 4914   9.293   9.141  12.499 -1.1584 -0.6933 -1.2665
32686SOL     OW 4915   3.517   0.713   8.537  0.4819  0.1130  0.1837
32686SOL    HW1 4916   3.516   0.619   8.552  0.0320  0.0790 -0.0436
32686SOL    HW2 4917   3.427   0.735   8.515  0.8444  0.3768 -1.1114
32687SOL     OW 4918   5.530   6.027   7.845 -0.0031 -0.4770 -0.6351
32687SOL    HW1 4919   5.506   6.015   7.937  0.3370 -0.0835 -0.4950
32687SOL    HW2 4920   5.615   5.984   7.836  0.2679  0.0437 -0.6105
32688SOL     OW 4921  10.948   8.351   7.659 -0.5010 -0.0508 -0.3116
32688SOL    HW1 4922  11.039   8.381   7.663 -0.6843  0.3847  1.3541
32688SOL    HW2 4923  10.922   8.365   7.568  1.8736 -2.6261 -1.5510
32689SOL     OW 4924   0.968   4.520   3.505  0.1442 -1.1936  0.8683
32689SOL    HW1 4925   1.036   4.494   3.442 -0.6469 -1.1558 -0.0246
32689SOL    HW2 4926   0.910   4.578   3.455  1.0376  1.1760  2.3890
32690SOL     OW 4927   8.657   0.077   6.292  0.4161  0.2242  0.2231
32690SOL    HW1 4928   8.677   0.148   6.352  2.5487 -1.2966  1.4249
32690SOL    HW2 4929   8.608   0.014   6.345 -1.4150  0.6978 -0.8169
32691SOL     OW 4930   5.430   3.648   3.841 -0.1742 -0.2553 -0.0942
32691SOL    HW1 4931   5.426   3.562   3.884  2.0901 -0.4603 -0.1978
32691SOL    HW2 4932   5.381   3.637   3.760  1.0976 -1.8545 -0.6966
32692SOL     OW 4933  10.329   2.659   9.740 -0.2855  0.3242  0.3453
32692SOL    HW1 4934  10.299   2.670   9.830  0.8749 -0.2899  0.8311
32692SOL    HW2 4935  10.272   2.715   9.688 -1.2005  0.4063  1.4186
32693SOL     OW 4936   7.158   0.287  12.033  0.6003 -0.0729 -0.1542
32693SOL    HW1 4937   7.219   0.356  12.009  3.0481 -1.5962  1.2846
32693SOL    HW2 4938   7.185   0.211  11.981 -1.4178 -0.2728 -1.0038
32694SOL     OW 4939  10.202   2.347  12.406 -0.5806  0.2030 -0.4531
32694SOL    HW1 4940  10.208   2.442  12.393  0.0669 -0.0114 -1.9495
32694SOL    HW2 4941  10.294   2.318  12.410 -0.7639 -0.2236  1.3043
32695SOL     OW 4942   2.779   4.974   5.696  0.3480 -0.8954  0.0850
32695SOL    HW1 4943   2.812   4.981   5.786 -0.9437  0.0402  0.5304
32695SOL    HW2 4944   2.855   4.988   5.641  0.7392  1.2480  1.0517
32696SOL     OW 4945   2.451   5.775   3.936 -0.2126 -0.1044  0.1404
32696SOL    HW1 4946   2.378   5.714   3.939 -0.7044  0.4966  0.6111
32696SOL    HW2 4947   2.411   5.862   3.937  0.4343  0.2629 -1.8054
32697SOL     OW 4948   8.973   9.374   8.600 -0.1573  1.0635  0.1385
32697SOL    HW1 4949   9.025   9.395   8.523 -0.4662  1.2936 -0.0098
32697SOL    HW2 4950   9.001   9.286   8.625  0.0257  1.0355 -0.1640
32698SOL     OW 4951   2.938   3.331   0.355 -0.5164 -0.0613 -0.1192
32698SOL    HW1 4952   2.861   3.275   0.354 -0.1662 -0.5658  0.7758
32698SOL    HW2 4953   2.974   3.323   0.266 -0.3872 -1.3639  0.0406
32699SOL     OW 4954   4.244   6.729   7.240  0.4115 -0.1725 -0.1522
32699SOL    HW1 4955   4.323   6.747   7.188 -1.8303  2.9358 -2.9407
32699SOL    HW2 4956   4.180   6.698   7.176 -1.3563 -0.1789  1.5369
32700SOL     OW 4957   0.930   2.017   9.544  0.0871 -0.0626  0.2232
32700SOL    HW1 4958   1.017   1.978   9.531  1.0356  2.4784 -1.8278
32700SOL    HW2 4959   0.883   1.998   9.462 -0.3268  0.8624  0.2370
32701SOL     OW 4960   1.746   8.153   2.079  0.2201  0.0658 -0.5263
32701SOL    HW1 4961   1.722   8.061   2.087 -0.4001  0.2039 -0.7694
32701SOL    HW2 4962   1.827   8.161   2.130  0.3297 -0.6295 -0.5768
32702SOL     OW 4963   9.410   2.844   5.928  0.2456  0.2266 -0.3808
32702SOL    HW1 4964   9.460   2.783   5.875  1.3867  0.9531 -0.1880
32702SOL    HW2 4965   9.333   2.795   5.955  0.8559 -0.9411 -0.6804
32703SOL     OW 4966   0.504   3.207  12.031  0.1580  0.2297  0.1149
32703SOL    HW1 4967   0.465   3.262  12.098  0.3478  0.3377  0.1397
32703SOL    HW2 4968   0.453   3.126  12.032  1.9537 -0.9903  2.4458
32704SOL     OW 4969   6.761   0.064   2.451 -0.1549 -0.1235 -0.3822
32704SOL    HW1 4970   6.767  -0.029   2.471  0.3378 -0.2638 -1.1351
32704SOL    HW2 4971   6.827   0.105   2.507 -0.5171 -0.1891  0.1056
32705SOL     OW 4972  11.297   2.500   8.155  0.2726  0.5184  0.0968
32705SOL    HW1 4973  11.244   2.513   8.076 -0.0555 -1.2019 -0.0050
32705SOL    HW2 4974  11.385   2.482   8.122  0.0694 -0.5192  0.0851
32706SOL     OW 4975   4.567   2.498   5.581 -0.0596  0.3528  0.1103
32706SOL    HW1 4976   4.517   2.438   5.637 -0.5392 -0.3101 -1.0115
32706SOL    HW2 4977   4.508   2.521   5.510  1.9353 -2.7173 -2.9019
32707SOL     OW 4978  11.333  10.331   8.739  0.3672 -0.6963 -1.2018
32707SOL    HW1 4979  11.377  10.289   8.664  0.9648 -0.6323 -0.8950
32707SOL    HW2 4980  11.274  10.263   8.772  0.8054 -1.0615 -1.1492
32708SOL     OW 4981   0.670   2.595   0.122  0.2572  0.6285  0.0629
32708SOL    HW1 4982   0.647   2.508   0.154 -0.7019  1.0429  0.5324
32708SOL    HW2 4983   0.765   2.591   0.109  0.5608  0.1468  2.0665
32709SOL     OW 4984   5.774   5.756   1.834  0.5887 -0.5024 -0.3186
32709SOL    HW1 4985   5.681   5.778   1.834  0.2126 -1.6815  2.5367
32709SOL    HW2 4986   5.776   5.660   1.836  1.7787 -0.4726  1.3501
32710SOL     OW 4987   4.050   6.207   8.738 -0.2093 -0.5318 -1.2432
32710SOL    HW1 4988   4.068   6.295   8.705 -1.0533 -0.3849 -1.3188
32710SOL    HW2 4989   4.035   6.154   8.660 -1.7474 -0.2829 -1.1525
32711SOL     OW 4990   3.625   3.967   9.527  0.3524  0.1168  0.0822
32711SOL    HW1 4991   3.566   3.999   9.460  0.3279 -0.5981 -0.2432
32711SOL    HW2 4992   3.706   4.017   9.513  0.2973  0.0797 -0.3755
32712SOL     OW 4993   5.930  10.102   8.281 -0.3210 -0.5754 -0.1387
32712SOL    HW1 4994   5.947  10.153   8.360  0.3941  1.6025 -1.6110
32712SOL    HW2 4995   5.984  10.024   8.291 -0.3754 -0.4291  1.5745
32713SOL     OW 4996  12.439   5.712   4.428  0.2990 -0.1306 -0.5443
32713SOL    HW1 4997  12.470   5.683   4.514 -1.1011 -0.2670 -0.0741
32713SOL    HW2 4998  12.428   5.807   4.437  0.5573 -0.0828 -0.7115
32714SOL     OW 4999   7.633   3.230   9.934  0.0632 -0.1485 -0.1031
32714SOL    HW1 5000   7.558   3.174   9.915 -0.5491 -0.0720  1.8851
32714SOL    HW2 5001   7.705   3.192   9.883 -0.8947 -1.2910 -0.6544
32715SOL     OW 5002   2.236   2.907   4.117  0.0246  0.1695  1.0100
32715SOL    HW1 5003   2.169   2.974   4.127  0.0477 -0.1053  3.5706
32715SOL    HW2 5004   2.284   2.909   4.199  0.0324 -2.9494  1.1831
32716SOL     OW 5005   5.973   3.902  12.066  0.5550 -0.2664  0.1845
32716SOL    HW1 5006   5.981   3.812  12.096 -1.5280 -0.2668  0.9497
32716SOL    HW2 5007   5.883   3.927  12.089  1.1263  2.0678  0.1509
32717SOL     OW 5008  11.401  11.719   9.432  0.3609 -0.0854  0.4971
32717SOL    HW1 5009  11.388  11.632   9.392 -0.6717 -0.0284  0.6854
32717SOL    HW2 5010  11.426  11.701   9.522  1.1959 -0.1928  0.2539
32718SOL     OW 5011   5.246   8.085   0.319  0.7838 -0.7653 -0.3994
32718SOL    HW1 5012   5.336   8.054   0.306  0.7896 -0.4190 -1.2581
32718SOL    HW2 5013   5.216   8.107   0.231 -0.5655 -2.0325 -0.2978
32719SOL     OW 5014   6.825   6.284   1.704  0.1733  0.2331  0.3099
32719SOL    HW1 5015   6.751   6.251   1.652  1.6529 -0.3779 -1.5091
32719SOL    HW2 5016   6.803   6.376   1.721 -0.9383  0.0999 -0.3032
32720SOL     OW 5017   9.093  10.680   2.905  0.4602  0.7824  0.2073
32720SOL    HW1 5018   9.024  10.615   2.913 -0.0816  1.3279  0.0812
32720SOL    HW2 5019   9.120  10.675   2.813 -0.3859  1.5227 -0.0938
32721SOL     OW 5020   3.723   6.022  10.108  1.0214 -0.9565 -0.1318
32721SOL    HW1 5021   3.786   5.957  10.138  0.4062 -0.8832  1.4620
32721SOL    HW2 5022   3.661   6.029  10.181 -0.3954 -0.4885 -1.3363
32722SOL     OW 5023   6.079   0.935   3.630  0.1866  0.1793 -0.6393
32722SOL    HW1 5024   6.086   1.030   3.619  0.2162  0.6053  2.1935
32722SOL    HW2 5025   5.988   0.916   3.609  0.7009  0.3565 -3.5152
32723SOL     OW 5026   5.402   3.426   3.266 -0.0660  0.0480  0.0367
32723SOL    HW1 5027   5.325   3.374   3.244  0.2227 -0.8970  1.1503
32723SOL    HW2 5028   5.431   3.464   3.183 -0.0553 -1.9027 -0.8981
32724SOL     OW 5029   5.080   0.268  11.880 -0.6994 -0.2076  0.1841
32724SOL    HW1 5030   5.171   0.278  11.854 -1.1050 -0.0150 -1.2913
32724SOL    HW2 5031   5.070   0.323  11.957  0.3962 -0.1485  0.2971
32725SOL     OW 5032  10.374   6.224   2.964  0.8018  0.2320 -0.2247
32725SOL    HW1 5033  10.463   6.222   2.928  1.9378 -2.3597  2.3723
32725SOL    HW2 5034  10.386   6.228   3.058 -1.8813 -0.2077  0.2209
32726SOL     OW 5035  10.487   3.684  10.398  0.3457 -0.3939  0.2024
32726SOL    HW1 5036  10.529   3.677  10.312  2.0120  0.9873  0.8553
32726SOL    HW2 5037  10.395   3.698  10.378  0.7034 -0.0695 -1.3680
32727SOL     OW 5038  11.188   2.279   1.474  0.1905  0.4959 -0.5700
32727SOL    HW1 5039  11.181   2.328   1.392 -2.0685  0.8521 -0.2199
32727SOL    HW2 5040  11.169   2.344   1.543 -2.3372 -0.6456 -0.0720
32728SOL     OW 5041   5.829   0.658  12.570 -0.6022  0.2899  0.1142
32728SOL    HW1 5042   5.769   0.633  12.499 -0.3668  0.1296 -0.0276
32728SOL    HW2 5043   5.853   0.574  12.610  0.6467  0.2305 -0.7264
32729SOL     OW 5044   8.146   9.993  11.974  0.0014 -0.0466  0.1604
32729SOL    HW1 5045   8.129   9.983  11.881  0.7315 -2.3368  0.2160
32729SOL    HW2 5046   8.240   9.977  11.983  0.1009  0.9652  1.2136
32730SOL     OW 5047   7.158  11.246   0.089  0.4629  0.3445 -0.0736
32730SOL    HW1 5048   7.210  11.232   0.168  0.4177  0.6142  0.0070
32730SOL    HW2 5049   7.112  11.329   0.106  0.8774  0.6880 -0.6079
32731SOL     OW 5050   1.373   8.105   8.529  0.0817 -0.2762 -0.1233
32731SOL    HW1 5051   1.386   8.188   8.575 -3.1833 -0.1114  0.7470
32731SOL    HW2 5052   1.344   8.132   8.441  0.8868 -0.5614 -0.4898
32732SOL     OW 5053   3.572   8.589   6.730  0.7707  0.3753  0.2557
32732SOL    HW1 5054   3.638   8.537   6.683 -0.7729  1.0522 -2.9508
32732SOL    HW2 5055   3.612   8.605   6.816  3.3197 -2.0055 -0.3117
32733SOL     OW 5056  10.141   2.596   0.623  0.1126 -0.2015  0.1377
32733SOL    HW1 5057  10.160   2.627   0.711 -0.9845 -0.6618  0.5544
32733SOL    HW2 5058  10.174   2.506   0.621 -2.3114 -1.1809  1.0281
32734SOL     OW 5059   9.931   0.975   5.510 -0.5612 -0.3559 -0.4371
32734SOL    HW1 5060   9.883   1.049   5.548 -2.1988 -1.3142 -0.5550
32734SOL    HW2 5061   9.999   1.016   5.456 -0.7008  1.0383  0.3839
32735SOL     OW 5062   0.035   5.174  11.405 -0.0354  0.4092  0.5222
32735SOL    HW1 5063  -0.031   5.216  11.460 -1.4001  0.2309 -0.9138
32735SOL    HW2 5064   0.118   5.207  11.439 -0.9124  1.7674  1.4751
32736SOL     OW 5065   8.778   9.883   0.417  0.3196  0.0010 -0.0836
32736SOL    HW1 5066   8.683   9.883   0.432  0.3196  2.9986  0.5666
32736SOL    HW2 5067   8.789   9.836   0.334 -1.7854  0.0764 -0.4724
32737SOL     OW 5068   3.935  10.831  10.246  0.1518 -0.6337 -0.2826
32737SOL    HW1 5069   3.983  10.822  10.164  0.9769 -0.3869  0.1631
32737SOL    HW2 5070   3.980  10.773  10.307 -0.6594 -1.0689 -0.0812
32738SOL     OW 5071   5.153   3.846  12.463  0.0041 -0.1867 -0.1676
32738SOL    HW1 5072   5.167   3.888  12.378  1.5616  0.9851  0.6043
32738SOL    HW2 5073   5.220   3.777  12.467 -0.4964 -0.6721 -0.1609
32739SOL     OW 5074   0.001  10.551   7.877  0.2278  0.3633 -0.3410
32739SOL    HW1 5075   0.073  10.590   7.827 -1.1535 -1.4562 -4.0804
32739SOL    HW2 5076   0.025  10.458   7.884 -0.4704  0.2612  0.9040
32740SOL     OW 5077   8.505   9.117   2.480 -0.6766 -0.1078  0.1796
32740SOL    HW1 5078   8.424   9.068   2.465 -2.2538  2.2542  0.5058
32740SOL    HW2 5079   8.520   9.166   2.399 -1.8269  2.4337  1.3854
32741SOL     OW 5080   1.503  10.860   9.811 -0.1020 -0.3273  0.0154
32741SOL    HW1 5081   1.577  10.863   9.750 -0.5747  1.0764 -0.5190
32741SOL    HW2 5082   1.543  10.849   9.897  0.8418  1.5267 -0.1300
32742SOL     OW 5083   0.549   4.092   3.121  0.1129  0.4065  0.1659
32742SOL    HW1 5084   0.555   4.177   3.163  1.1004  0.4712 -0.0893
32742SOL    HW2 5085   0.620   4.091   3.057 -0.5783 -0.1796 -0.6127
32743SOL     OW 5086  11.175   9.840   0.271 -0.4627 -0.4792  0.6999
32743SOL    HW1 5087  11.268   9.832   0.253 -0.2892 -2.5623  2.1292
32743SOL    HW2 5088  11.156   9.769   0.333 -3.0831 -0.4090  0.1129
32744SOL     OW 5089  12.271   1.392  10.843  0.2286  0.4527  0.4394
32744SOL    HW1 5090  12.349   1.443  10.819  0.5079 -0.5835 -0.9590
32744SOL    HW2 5091  12.242   1.432  10.925  1.1878  2.0090  0.0799
32745SOL     OW 5092   1.847  11.619  12.035  0.4506  0.3144  0.3499
32745SOL    HW1 5093   1.928  11.600  11.987  0.4077  0.4764  0.2126
32745SOL    HW2 5094   1.797  11.675  11.976  0.6043  0.9095  0.7752
32746SOL     OW 5095   9.326   0.214   7.361 -0.7331 -0.3668  0.5431
32746SOL    HW1 5096   9.269   0.282   7.397 -0.0734  1.1598 -1.1723
32746SOL    HW2 5097   9.409   0.258   7.344 -0.2425 -1.6243 -0.5134
32747SOL     OW 5098   0.629  10.320   7.742  0.5997  0.0189 -0.1300
32747SOL    HW1 5099   0.621  10.227   7.763 -1.0550  0.3426  0.8199
32747SOL    HW2 5100   0.611  10.365   7.825  0.2022  1.1995 -0.8339
32748SOL     OW 5101   1.429   5.201   9.315 -0.5121  0.2792  0.5054
32748SOL    HW1 5102   1.478   5.123   9.340 -0.5512  0.1579  0.2147
32748SOL    HW2 5103   1.433   5.258   9.391  0.6226  0.5413  0.2577
32749SOL     OW 5104   8.325  12.425   4.560 -0.0207 -1.0105 -0.0853
32749SOL    HW1 5105   8.277  12.432   4.643  0.0261  0.8252 -0.1623
32749SOL    HW2 5106   8.334  12.331   4.545 -1.0126 -1.3837  1.4196
32750SOL     OW 5107   2.647  11.607  12.563 -0.0720 -0.3882 -0.8215
32750SOL    HW1 5108   2.604  11.685  12.527  0.9013  0.1588 -0.8212
32750SOL    HW2 5109   2.581  11.538  12.554 -0.6184  0.2179 -1.6929
32751SOL     OW 5110   5.741   3.699  11.794 -0.0089  0.0455  0.5414
32751SOL    HW1 5111   5.683   3.712  11.719  0.3755  0.5463  0.3227
32751SOL    HW2 5112   5.823   3.667  11.756  0.2717  0.5441  0.7110
32752SOL     OW 5113   4.959   6.416   1.454 -0.1172  0.1567  0.0066
32752SOL    HW1 5114   4.929   6.463   1.532  0.0844 -0.9377  0.7535
32752SOL    HW2 5115   4.952   6.324   1.477 -1.9748 -0.2766 -1.9574
32753SOL     OW 5116  11.507   8.255   0.909  0.0835 -0.0376  0.5043
32753SOL    HW1 5117  11.472   8.202   0.981 -1.9388 -1.3892 -1.3506
32753SOL    HW2 5118  11.437   8.319   0.891  0.9853  0.9287  0.3597
32754SOL     OW 5119   4.237  11.598   3.949  0.6677  0.1260 -0.4750
32754SOL    HW1 5120   4.147  11.629   3.962 -0.1672 -2.0085 -0.7203
32754SOL    HW2 5121   4.272  11.589   4.038  0.1511 -0.3149 -0.3103
32755SOL     OW 5122   2.995   2.759   4.957  0.4088 -0.1738 -0.0729
32755SOL    HW1 5123   2.979   2.853   4.958  1.2668 -0.0267 -0.2513
32755SOL    HW2 5124   3.084   2.749   4.925  0.5892 -1.0132  0.6342
32756SOL     OW 5125   6.046   0.978   7.041 -0.0902  0.5805 -0.6523
32756SOL    HW1 5126   6.099   1.056   7.056 -0.2196  0.3362  1.4903
32756SOL    HW2 5127   6.087   0.934   6.967  0.2587  2.4192 -1.5937
32757SOL     OW 5128   2.333  10.343  11.336 -0.2068  0.4439  0.3127
32757SOL    HW1 5129   2.289  10.264  11.305 -0.5754 -0.2099  2.3340
32757SOL    HW2 5130   2.418  10.312  11.368 -0.3014  0.8784  1.0002
32758SOL     OW 5131   9.400   2.580  10.490 -0.6455 -0.2525 -0.2000
32758SOL    HW1 5132   9.482   2.619  10.458 -0.0404 -1.5273 -0.2689
32758SOL    HW2 5133   9.340   2.588  10.416 -0.9374  1.5980  0.1783
32759SOL     OW 5134   6.099   7.431  10.970  0.4361  0.3580 -0.2214
32759SOL    HW1 5135   6.087   7.419  10.876 -0.2822  0.7620 -0.1939
32759SOL    HW2 5136   6.076   7.523  10.985  0.0894  0.1731  0.4117
32760SOL     OW 5137   6.392   4.695  12.131  0.4895  0.1963 -0.2656
32760SOL    HW1 5138   6.438   4.644  12.198 -0.3594 -1.4312 -0.8753
32760SOL    HW2 5139   6.460   4.750  12.092  1.2339  0.2963  1.1065
32761SOL     OW 5140   4.091   3.194   5.503  0.1520  0.2952 -0.2236
32761SOL    HW1 5141   3.996   3.189   5.495 -0.3679  1.1050  3.4826
32761SOL    HW2 5142   4.121   3.104   5.493 -0.9820  0.0123 -1.3083
32762SOL     OW 5143   5.929   4.960   0.973  0.4244 -0.1666 -0.2984
32762SOL    HW1 5144   5.964   5.017   0.905  0.2760  0.0906 -0.1629
32762SOL    HW2 5145   6.006   4.916   1.009  0.3859 -1.1222 -1.3589
32763SOL     OW 5146   8.551   5.806   9.399 -0.3655  0.1529  0.0755
32763SOL    HW1 5147   8.568   5.722   9.442 -0.3589 -0.6423 -1.3917
32763SOL    HW2 5148   8.546   5.784   9.306  2.0238  2.1061 -0.6336
32764SOL     OW 5149   7.128   1.620  10.933  0.0001 -0.2340 -0.2875
32764SOL    HW1 5150   7.089   1.533  10.948 -0.5986  0.0368 -0.2449
32764SOL    HW2 5151   7.103   1.642  10.843  1.0303 -0.5464 -0.6613
32765SOL     OW 5152   1.648   2.981   0.127  0.1918  0.7667  0.1925
32765SOL    HW1 5153   1.686   2.943   0.048 -2.2524 -0.8642 -0.3088
32765SOL    HW2 5154   1.620   3.069   0.101  0.0972  0.5248 -0.5407
32766SOL     OW 5155   0.842   9.033   4.105 -0.0951  0.4802 -0.0072
32766SOL    HW1 5156   0.818   8.941   4.089  0.2672 -0.1066  2.3727
32766SOL    HW2 5157   0.759   9.080   4.102 -0.3452  0.0147 -0.7580
32767SOL     OW 5158   3.444   5.463   8.303  0.1445 -0.5165 -0.1221
32767SOL    HW1 5159   3.407   5.485   8.218 -0.2012  1.6089  0.5114
32767SOL    HW2 5160   3.538   5.456   8.287  0.1291  0.2750 -0.6286
32768SOL     OW 5161   0.015   5.206   0.054  0.4084  0.2162 -0.3546
32768SOL    HW1 5162  -0.063   5.197  -0.002  0.9058  0.3954 -1.0899
32768SOL    HW2 5163  -0.015   5.180   0.141 -0.9681  2.0258 -0.2296
32769SOL     OW 5164   8.409   6.369   2.944 -0.2777  0.4790  0.1048
32769SOL    HW1 5165   8.383   6.399   3.031 -0.8798  1.6977 -0.4640
32769SOL    HW2 5166   8.331   6.383   2.890  0.0467 -0.3790 -0.6133
32770SOL     OW 5167   2.498  11.293  11.236  0.7555 -0.2003  0.0036
32770SOL    HW1 5168   2.532  11.377  11.265  0.6585  0.7653 -2.4835
32770SOL    HW2 5169   2.565  11.259  11.177  0.0436 -1.0822 -0.3188
32771SOL     OW 5170   4.003   0.872   5.070  0.2325  0.3267 -0.0625
32771SOL    HW1 5171   4.078   0.887   5.012 -0.5434 -1.5561 -1.6284
32771SOL    HW2 5172   3.939   0.827   5.016 -0.4451 -1.7826  2.3355
32772SOL     OW 5173  11.633  11.267   1.194 -0.2262  0.3798  0.0203
32772SOL    HW1 5174  11.600  11.317   1.120  0.5857  1.0126  0.0739
32772SOL    HW2 5175  11.728  11.274   1.188 -0.1453  1.5709  1.8608
32773SOL     OW 5176   3.597   4.641   9.042 -0.8773  0.1402 -0.0333
32773SOL    HW1 5177   3.655   4.716   9.046 -1.5260  0.5911  1.3933
32773SOL    HW2 5178   3.654   4.568   9.015  0.1710  0.7329  0.5158
32774SOL     OW 5179   7.938   8.275   8.031  0.7311  0.1285  0.5988
32774SOL    HW1 5180   8.030   8.281   8.006  0.3845 -0.3539 -0.9745
32774SOL    HW2 5181   7.891   8.268   7.947 -0.4842 -2.5957  1.3597
32775SOL     OW 5182   7.768   3.180   1.594 -0.3054  0.1493  0.5489
32775SOL    HW1 5183   7.846   3.134   1.624 -0.2064  1.1365  1.8738
32775SOL    HW2 5184   7.699   3.156   1.656 -1.3407 -1.3973 -1.0946
32776SOL     OW 5185   4.235   2.619  10.118  0.2036  0.1827 -0.2413
32776SOL    HW1 5186   4.217   2.649  10.207 -0.6946 -0.1820 -0.2944
32776SOL    HW2 5187   4.311   2.561  10.127  0.3498  0.4406  0.2262
32777SOL     OW 5188   1.823   0.028   1.990  0.3658  0.3788 -0.0560
32777SOL    HW1 5189   1.897   0.079   2.023 -0.1775  0.6292  0.8148
32777SOL    HW2 5190   1.752   0.091   1.982  0.9296  0.7826 -3.5953
32778SOL     OW 5191  11.900   7.392   8.820 -0.2408 -0.0951 -0.3799
32778SOL    HW1 5192  11.820   7.356   8.858  0.0277 -1.1422 -0.7831
32778SOL    HW2 5193  11.871   7.432   8.738 -0.4296 -0.0340 -0.2846
32779SOL     OW 5194   5.156   9.346  12.522 -0.5906 -0.2758  0.0955
32779SOL    HW1 5195   5.153   9.428  12.474 -2.6199 -0.0641  0.4825
32779SOL    HW2 5196   5.226   9.296  12.481  0.6181  1.5992 -0.2028
32780SOL     OW 5197  11.818   7.736   9.788  0.4171 -0.0755 -0.8270
32780SOL    HW1 5198  11.765   7.661   9.760  1.4100 -0.7100 -1.0609
32780SOL    HW2 5199  11.883   7.746   9.718 -1.2629  2.6854 -2.1866
32781SOL     OW 5200   6.281  10.750   9.395 -0.3732 -0.5390  0.4840
32781SOL    HW1 5201   6.287  10.778   9.486 -0.4292 -0.5182  0.4817
32781SOL    HW2 5202   6.187  10.736   9.381 -0.5924  1.3144 -0.1233
32782SOL     OW 5203   3.929   2.050   9.190 -0.2006 -0.1597 -0.1133
32782SOL    HW1 5204   3.866   2.121   9.201 -0.2652 -0.4330  1.5452
32782SOL    HW2 5205   4.012   2.094   9.175 -0.7786  0.2052 -2.7489
32783SOL     OW 5206   8.891   8.564   5.603  0.3867  0.0205  0.5896
32783SOL    HW1 5207   8.916   8.587   5.513  1.1930  0.5303  0.9347
32783SOL    HW2 5208   8.950   8.492   5.626  1.2193  0.8778  1.2229
32784SOL     OW 5209  10.435   2.649   1.169  0.5288 -0.3451 -0.3790
32784SOL    HW1 5210  10.462   2.595   1.094 -0.4172  0.9712 -1.7262
32784SOL    HW2 5211  10.370   2.595   1.214  1.1996 -1.2073 -0.4162
32785SOL     OW 5212   6.703   9.880  10.538  0.3719 -0.0187  0.0259
32785SOL    HW1 5213   6.755   9.890  10.458  1.6898 -1.0266  0.7178
32785SOL    HW2 5214   6.766   9.855  10.604 -1.2873 -4.0108  0.3732
32786SOL     OW 5215   0.860   1.542   8.734  0.1992  0.1736  0.2651
32786SOL    HW1 5216   0.879   1.448   8.734 -1.0846 -0.1273 -0.9400
32786SOL    HW2 5217   0.874   1.570   8.825  0.5662 -1.1796  0.6441
32787SOL     OW 5218   5.355   0.745   6.351  0.2925 -0.4871  0.1046
32787SOL    HW1 5219   5.366   0.677   6.284 -2.6040 -0.4137 -0.5793
32787SOL    HW2 5220   5.441   0.786   6.358  1.1040 -1.5375 -2.4573
32788SOL     OW 5221   0.320   8.500   8.599 -0.0095  0.1177  0.1714
32788SOL    HW1 5222   0.341   8.525   8.689  1.2516 -2.6061  0.7086
32788SOL    HW2 5223   0.264   8.423   8.608 -1.2247  0.7709 -1.4019
32789SOL     OW 5224   7.823   2.790   2.164  0.1433 -0.6991  0.7308
32789SOL    HW1 5225   7.779   2.705   2.163 -2.3455  0.5004  1.1397
32789SOL    HW2 5226   7.774   2.842   2.228  1.7625  0.9886  0.6972
32790SOL     OW 5227   6.826   2.457  11.717 -0.0397  0.0117 -0.2688
32790SOL    HW1 5228   6.868   2.543  11.714 -0.7442  0.4107  0.6482
32790SOL    HW2 5229   6.893   2.396  11.685  1.4119  0.5685  1.5225
32791SOL     OW 5230  10.723   5.100   1.389  0.3497 -0.1267  0.1168
32791SOL    HW1 5231  10.809   5.141   1.378  0.3629 -0.1946 -0.0333
32791SOL    HW2 5232  10.682   5.150   1.459  0.5478 -0.1523  0.2522
32792SOL     OW 5233   0.458   6.943   6.216  0.4909  0.4532  0.1611
32792SOL    HW1 5234   0.501   7.018   6.176 -0.4167  1.5707  1.2066
32792SOL    HW2 5235   0.400   6.909   6.148  1.5540  0.1134 -0.6092
32793SOL     OW 5236   1.591   9.138   1.864 -0.1478  0.0448 -0.3517
32793SOL    HW1 5237   1.667   9.190   1.838  0.7589 -0.8592  0.4074
32793SOL    HW2 5238   1.626   9.074   1.926 -1.3959 -0.8910 -0.5782
32794SOL     OW 5239   8.587   0.594   0.796  0.3598  0.1051 -0.5100
32794SOL    HW1 5240   8.587   0.597   0.700 -1.4029 -1.7137 -0.6255
32794SOL    HW2 5241   8.496   0.612   0.820  0.6793  0.0221  0.8169
32795SOL     OW 5242   6.872   3.466   3.129  0.0026 -0.4995  0.0158
32795SOL    HW1 5243   6.814   3.410   3.077  0.3919 -0.2847 -0.6488
32795SOL    HW2 5244   6.896   3.537   3.071 -0.2346  0.2083  0.7609
32796SOL     OW 5245   1.959  11.825   8.847  0.2897  0.0987 -0.0185
32796SOL    HW1 5246   2.038  11.854   8.801  0.5349  2.1018  1.5015
32796SOL    HW2 5247   1.990  11.756   8.906  0.2565 -1.3716 -1.6421
32797SOL     OW 5248   6.854   6.439  10.025 -0.3754  0.2891 -0.6545
32797SOL    HW1 5249   6.882   6.408  10.112 -0.4159 -1.2820 -1.1666
32797SOL    HW2 5250   6.781   6.498  10.043  0.1608  0.6504  0.4297
32798SOL     OW 5251  10.447   1.977  10.765  0.2222  0.5197 -0.1329
32798SOL    HW1 5252  10.372   2.032  10.788  0.4749  0.9383 -0.2930
32798SOL    HW2 5253  10.484   1.951  10.849 -0.8555 -0.7599 -0.0174
32799SOL     OW 5254   7.521   7.837   9.856  0.0350  0.0694  0.5475
32799SOL    HW1 5255   7.515   7.921   9.810 -0.3856 -0.7591 -0.9743
32799SOL    HW2 5256   7.575   7.782   9.800 -0.8949 -1.1365  0.7727
32800SOL     OW 5257   4.583   7.128   4.305 -0.1320  0.2056 -0.1258
32800SOL    HW1 5258   4.492   7.157   4.313 -0.4431 -0.7791  0.0609
32800SOL    HW2 5259   4.605   7.141   4.213 -0.3259  0.8152 -0.0908
32801SOL     OW 5260   0.948   7.157  11.864  0.3329 -0.8512 -0.4109
32801SOL    HW1 5261   1.036   7.177  11.896  0.5965 -0.8092 -1.1489
32801SOL    HW2 5262   0.944   7.062  11.862 -0.1662 -0.8959  1.0193
32802SOL     OW 5263   4.635   4.484   9.743  0.4310  0.4201 -0.1581
32802SOL    HW1 5264   4.564   4.489   9.679  0.5715 -0.2911 -0.3866
32802SOL    HW2 5265   4.695   4.419   9.706  0.1063 -0.6245  1.0800
32803SOL     OW 5266   3.874   1.628   9.083  0.4845  0.2262 -0.4972
32803SOL    HW1 5267   3.789   1.665   9.059 -0.1230 -0.8773 -0.1095
32803SOL    HW2 5268   3.903   1.580   9.005  1.5230  1.8905 -1.1880
32804SOL     OW 5269   0.730   8.999  10.577  0.3861  0.1698 -0.3933
32804SOL    HW1 5270   0.808   8.982  10.525  1.1291  1.4724  0.2449
32804SOL    HW2 5271   0.669   9.041  10.515 -0.3987 -2.1185 -1.2528
32805SOL     OW 5272   2.600   9.401   9.563 -0.0255 -0.2328  0.1388
32805SOL    HW1 5273   2.682   9.405   9.513 -0.4440 -1.8737 -0.7475
32805SOL    HW2 5274   2.535   9.440   9.505 -0.7493 -3.1798 -1.2648
32806SOL     OW 5275   2.249  12.429   1.807  0.1891 -0.0055  0.1155
32806SOL    HW1 5276   2.242  12.339   1.841  2.2215 -0.0157  0.6567
32806SOL    HW2 5277   2.336  12.432   1.766  0.6998  2.0597  1.2062
32807SOL     OW 5278   7.285   4.276   3.107  0.4861  0.1219 -0.7571
32807SOL    HW1 5279   7.249   4.355   3.065  0.5795 -0.3156 -1.6896
32807SOL    HW2 5280   7.212   4.242   3.159 -0.0708 -0.0631 -1.6359
32808SOL     OW 5281   3.431   9.326   8.825 -0.0736  0.1388 -0.0431
32808SOL    HW1 5282   3.526   9.328   8.830 -0.0209  2.1666 -0.8364
32808SOL    HW2 5283   3.406   9.416   8.804 -2.3503  0.4660  3.1777
32809SOL     OW 5284  12.072   4.193   3.309 -0.3135  0.2981 -0.1563
32809SOL    HW1 5285  12.067   4.123   3.243 -2.2959  0.8661 -0.6714
32809SOL    HW2 5286  12.025   4.158   3.384 -0.8300  0.8563 -0.2143
32810SOL     OW 5287   1.835   5.028   7.049  0.3087  0.0375  0.6922
32810SOL    HW1 5288   1.828   5.069   7.135  1.1168 -2.4967  2.0895
32810SOL    HW2 5289   1.746   5.034   7.012 -0.6486 -0.7443  2.7066
32811SOL     OW 5290   7.564   2.925   3.588 -0.1955 -0.3689  0.1470
32811SOL    HW1 5291   7.615   2.850   3.556  3.0873  1.3202  1.0275
32811SOL    HW2 5292   7.579   2.925   3.683 -2.0996  0.1372  0.5045
32812SOL     OW 5293   1.544   3.048  11.659 -0.0556 -0.2100  0.1021
32812SOL    HW1 5294   1.485   3.021  11.589  0.0459 -1.1279  0.3483
32812SOL    HW2 5295   1.629   3.011  11.634 -0.3918 -2.1548  1.5738
32813SOL     OW 5296   5.608   0.104   7.596  0.8089 -0.0021 -0.1977
32813SOL    HW1 5297   5.647   0.033   7.544  2.1690 -0.5198  1.4309
32813SOL    HW2 5298   5.514   0.095   7.583  0.9784 -1.8415 -0.3555
32814SOL     OW 5299   3.056   9.165   6.628  0.4501 -0.2115 -0.0832
32814SOL    HW1 5300   3.077   9.251   6.593  0.9445 -1.2659 -2.5953
32814SOL    HW2 5301   2.979   9.137   6.579 -1.0105 -0.4107  2.1632
32815SOL     OW 5302  11.076   7.629   0.358  0.1905 -0.3783  0.0348
32815SOL    HW1 5303  10.994   7.664   0.394  1.5922  1.1450  1.9285
32815SOL    HW2 5304  11.058   7.536   0.345 -2.1784  0.1092 -0.7147
32816SOL     OW 5305  12.083   8.513   3.365  0.1271 -0.2997 -0.5661
32816SOL    HW1 5306  12.086   8.417   3.358  0.9239 -0.3340  0.1260
32816SOL    HW2 5307  11.989   8.533   3.370 -0.0259 -1.1115  0.1146
32817SOL     OW 5308   1.299   8.860   3.072 -0.0683 -0.1960  0.0995
32817SOL    HW1 5309   1.376   8.915   3.058 -0.4195 -0.0532 -1.4364
32817SOL    HW2 5310   1.320   8.809   3.150  0.8988  1.0008  0.6577
32818SOL     OW 5311   3.803   6.118   9.224  0.4646 -0.3103  0.0304
32818SOL    HW1 5312   3.896   6.138   9.207  0.8594 -1.7708  0.3776
32818SOL    HW2 5313   3.799   6.023   9.228 -0.9384 -0.2417  0.7631
32819SOL     OW 5314  10.663  12.212   9.313  0.0410  0.3882 -0.2228
32819SOL    HW1 5315  10.590  12.154   9.339  0.6798 -0.4334 -0.2211
32819SOL    HW2 5316  10.622  12.276   9.255 -0.9916  0.9084  1.0253
32820SOL     OW 5317   6.295   4.777   2.289  0.1979 -0.2502 -0.4022
32820SOL    HW1 5318   6.246   4.699   2.318  0.1571 -0.3967 -0.8503
32820SOL    HW2 5319   6.385   4.759   2.314  0.7156 -1.7083 -2.8789
32821SOL     OW 5320   9.544   3.668   8.372  0.1250  0.2619 -0.4746
32821SOL    HW1 5321   9.553   3.574   8.390  2.2694  0.4618 -0.1625
32821SOL    HW2 5322   9.564   3.676   8.279  1.7857  0.5594 -0.1265
32822SOL     OW 5323  11.447   9.781   8.994  0.1780 -0.4202 -0.4407
32822SOL    HW1 5324  11.470   9.841   9.065  3.0883 -0.1766 -1.4707
32822SOL    HW2 5325  11.429   9.838   8.919  1.1720 -0.7719 -0.9532
32823SOL     OW 5326  11.868   9.737   3.895  0.3501  0.3947 -0.0858
32823SOL    HW1 5327  11.946   9.789   3.878  0.1263  0.0397 -2.5389
32823SOL    HW2 5328  11.900   9.646   3.900  0.4123  0.4865  1.6652
32824SOL     OW 5329   8.505   9.994   8.053  0.1422  0.0001 -0.1377
32824SOL    HW1 5330   8.537  10.002   8.142  0.4421 -0.7987 -0.1578
32824SOL    HW2 5331   8.582   9.964   8.003 -0.0957  0.1610 -0.6051
32825SOL     OW 5332   6.190   2.184   5.323 -0.5622 -0.3159  0.0117
32825SOL    HW1 5333   6.253   2.159   5.391 -1.5019 -2.2483  0.2253
32825SOL    HW2 5334   6.234   2.160   5.241 -0.3576 -0.1108  0.0587
32826SOL     OW 5335   4.592   2.466   8.996 -0.3667  0.7020 -0.2995
32826SOL    HW1 5336   4.640   2.512   8.928 -0.8188 -1.9577 -2.6141
32826SOL    HW2 5337   4.543   2.397   8.950 -0.5565 -1.4248  2.7060
32827SOL     OW 5338   9.834   1.126  11.129  0.2086  0.5040 -0.1175
32827SOL    HW1 5339   9.819   1.169  11.213 -1.5667 -0.4341  0.0834
32827SOL    HW2 5340   9.863   1.037  11.152 -1.0697 -0.0195 -0.4592
32828SOL     OW 5341   0.376   2.036   0.897  0.2833 -0.0852 -0.3690
32828SOL    HW1 5342   0.399   2.119   0.940 -0.8804 -0.6893  1.5049
32828SOL    HW2 5343   0.460   1.997   0.874  1.2294 -0.9771  3.8550
32829SOL     OW 5344   2.947   0.698   4.512  0.1142 -0.5102  0.7352
32829SOL    HW1 5345   2.968   0.786   4.480  0.9771 -0.6211  0.9595
32829SOL    HW2 5346   2.939   0.708   4.607  2.2256 -1.0098  1.0130
32830SOL     OW 5347   8.893   3.243   3.112 -0.2378 -0.4147 -0.1012
32830SOL    HW1 5348   8.863   3.187   3.184 -1.8994  0.7726  0.1823
32830SOL    HW2 5349   8.842   3.323   3.122 -0.6298 -0.2777 -2.7109
32831SOL     OW 5350  11.088   1.907   5.421 -0.2764  0.1346 -0.2572
32831SOL    HW1 5351  11.063   1.929   5.511 -2.5661  0.4386 -0.9032
32831SOL    HW2 5352  11.170   1.858   5.430 -0.3118  0.3807  1.9594
32832SOL     OW 5353   8.065   3.665  10.254  0.6035  0.3534  0.0703
32832SOL    HW1 5354   8.010   3.616  10.315  0.5189 -0.0467 -0.3225
32832SOL    HW2 5355   8.094   3.599  10.190 -1.2300  1.1807 -1.7165
32833SOL     OW 5356   0.420  10.860   8.558 -0.0245 -0.4097 -0.0529
32833SOL    HW1 5357   0.329  10.843   8.536 -0.3332  2.5276 -1.4875
32833SOL    HW2 5358   0.470  10.811   8.492 -0.7395  1.0935 -1.7927
32834SOL     OW 5359   4.143   3.585  12.495  0.3874  0.3532  0.6305
32834SOL    HW1 5360   4.144   3.611  12.587  1.8213  1.0278  0.4592
32834SOL    HW2 5361   4.236   3.571  12.473 -0.1080 -3.1090  0.1583
32835SOL     OW 5362   3.244   0.684   5.714  0.2221 -0.3780 -0.0161
32835SOL    HW1 5363   3.315   0.684   5.650 -1.4990  1.1494 -2.0360
32835SOL    HW2 5364   3.224   0.777   5.728 -1.7045 -0.7680  0.1006
32836SOL     OW 5365   5.410   1.542   7.884  0.6494 -0.0159 -0.0210
32836SOL    HW1 5366   5.413   1.566   7.976  0.9328 -2.3476  0.6454
32836SOL    HW2 5367   5.502   1.545   7.856  0.5649  0.6783 -0.2312
32837SOL     OW 5368  12.078   3.299   4.284 -0.0037  0.0268  0.1246
32837SOL    HW1 5369  12.101   3.336   4.370  1.6248 -0.4895 -0.0477
32837SOL    HW2 5370  12.071   3.375   4.227 -1.1234  0.3781  0.6981
32838SOL     OW 5371   5.241  10.818   3.290  0.4329  0.8439  0.0805
32838SOL    HW1 5372   5.148  10.822   3.310  0.3807  1.3661 -0.2286
32838SOL    HW2 5373   5.245  10.832   3.195  0.8072  0.5678  0.0546
32839SOL     OW 5374   7.766   5.940   0.972  0.4537 -0.2435 -0.6258
32839SOL    HW1 5375   7.693   5.929   1.033  0.2096 -0.9730 -1.0356
32839SOL    HW2 5376   7.731   5.998   0.904  0.1422 -0.8445 -0.9871
32840SOL     OW 5377  10.377   8.049  11.249 -0.2463 -0.6945  0.0719
32840SOL    HW1 5378  10.417   8.033  11.334  0.0670 -0.6457 -0.0670
32840SOL    HW2 5379  10.442   8.021  11.185 -0.2555 -0.2113 -0.1602
32841SOL     OW 5380   4.957   6.196   0.336 -0.6116 -0.5015  0.5780
32841SOL    HW1 5381   4.938   6.102   0.335  0.4135 -0.7242 -0.3067
32841SOL    HW2 5382   4.934   6.226   0.248  0.2499 -0.1848  0.4533
32842SOL     OW 5383   0.901  11.113   2.249 -0.3481 -0.5798  0.0982
32842SOL    HW1 5384   0.825  11.160   2.285  1.5351  1.2832  1.9631
32842SOL    HW2 5385   0.931  11.167   2.177 -0.0359 -0.6174  0.1985
32843SOL     OW 5386   3.066  12.061   5.498 -0.2035  0.3064 -0.0557
32843SOL    HW1 5387   3.006  12.011   5.442 -0.5973 -0.3856  0.9629
32843SOL    HW2 5388   3.034  12.047   5.587  1.6244 -0.2963  0.5542
32844SOL     OW 5389  11.385   9.855   7.153  0.1903 -0.1639 -0.1266
32844SOL    HW1 5390  11.396   9.768   7.191  0.3494 -0.4533 -0.8382
32844SOL    HW2 5391  11.402   9.844   7.060 -2.0517  0.1775 -0.6144
32845SOL     OW 5392   4.001   9.043   7.969  0.5445  0.2648 -0.1674
32845SOL    HW1 5393   4.077   9.016   7.919  0.2245 -1.1317  0.0726
32845SOL    HW2 5394   4.037   9.096   8.041  1.2535 -0.1257 -0.2304
32846SOL     OW 5395  11.732   2.953   6.471  0.0897 -0.0464  0.5413
32846SOL    HW1 5396  11.806   2.904   6.505  0.5073  1.6647  2.3009
32846SOL    HW2 5397  11.674   2.965   6.546 -1.2693 -0.0911 -0.4550
32847SOL     OW 5398  10.854   9.896   4.320  0.1126 -0.4517  0.0344
32847SOL    HW1 5399  10.905   9.822   4.286  0.1640 -0.0824 -0.7107
32847SOL    HW2 5400  10.789   9.914   4.252  0.5785  0.6623 -0.1395
32848SOL     OW 5401  10.208   3.617   2.511 -0.0738  0.1805  0.1224
32848SOL    HW1 5402  10.174   3.653   2.593  0.3050  0.9924 -0.0596
32848SOL    HW2 5403  10.295   3.586   2.533 -0.2441 -0.2489  0.1868
32849SOL     OW 5404   1.276   2.318   1.676  0.2346  0.2441  0.3717
32849SOL    HW1 5405   1.186   2.318   1.707  0.2994  1.7610  0.5936
32849SOL    HW2 5406   1.276   2.377   1.601  1.3731  1.6154  1.4007
32850SOL     OW 5407   4.298   7.621  10.008 -0.8004  0.0931 -0.1232
32850SOL    HW1 5408   4.366   7.677  10.047  0.0503 -1.4539  0.6980
32850SOL    HW2 5409   4.345   7.543   9.978 -2.0061 -0.3393 -0.9566
32851SOL     OW 5410   7.576   1.948   8.052 -0.1218  0.1419 -0.1668
32851SOL    HW1 5411   7.672   1.956   8.058 -0.1753  0.3473  0.4370
32851SOL    HW2 5412   7.560   1.929   7.960  0.6285 -1.5181  0.0056
32852SOL     OW 5413  10.795   4.343   5.480  0.2472 -0.3665 -0.0110
32852SOL    HW1 5414  10.873   4.287   5.480  1.7227  1.5903  0.6074
32852SOL    HW2 5415  10.829   4.432   5.486 -2.0561  0.5794  0.0608
32853SOL     OW 5416   2.028   7.158   8.252  0.3409  0.6514  0.1984
32853SOL    HW1 5417   2.018   7.087   8.188  0.7247 -1.1415  2.0224
32853SOL    HW2 5418   2.055   7.233   8.200  0.3152 -0.6241 -1.7819
32854SOL     OW 5419  12.046   4.180   3.585 -0.5745  0.4243  0.0718
32854SOL    HW1 5420  12.023   4.272   3.568 -1.2275  0.1969 -0.3110
32854SOL    HW2 5421  12.095   4.183   3.667 -0.8967  1.0830  0.2538
32855SOL     OW 5422   3.742  10.877   2.651  0.2963 -0.3050  0.2288
32855SOL    HW1 5423   3.751  10.785   2.676 -0.6386 -0.9001 -1.4663
32855SOL    HW2 5424   3.789  10.925   2.720  2.2607 -2.1280  0.2727
32856SOL     OW 5425  11.427   7.941   5.032 -0.8040  0.4171 -0.1522
32856SOL    HW1 5426  11.395   7.956   5.121  1.6575 -0.2882  0.9594
32856SOL    HW2 5427  11.348   7.926   4.980 -2.3978  2.0319  1.6355
32857SOL     OW 5428  10.193   6.345   9.338 -0.6542  0.3293  0.4014
32857SOL    HW1 5429  10.250   6.295   9.397  0.1822  0.2845 -0.4132
32857SOL    HW2 5430  10.173   6.425   9.386  0.4554  0.5361  0.5617
32858SOL     OW 5431   1.832   3.614  11.167  0.8605 -0.2623 -0.1679
32858SOL    HW1 5432   1.806   3.525  11.192 -1.7931  0.4697 -0.0011
32858SOL    HW2 5433   1.824   3.665  11.248  0.0919  0.5403 -0.7238
32859SOL     OW 5434   0.295   7.806   4.061  0.1545  0.1046  0.3848
32859SOL    HW1 5435   0.304   7.847   4.147  2.2491  1.7279 -0.4987
32859SOL    HW2 5436   0.322   7.874   3.999  0.3121 -1.5248 -1.4432
32860SOL     OW 5437   9.070   4.495   4.066  0.6025 -0.3518  0.0030
32860SOL    HW1 5438   9.166   4.497   4.060  0.8498 -3.7253  0.7242
32860SOL    HW2 5439   9.043   4.435   3.995 -1.0612  0.8880 -0.4815
32861SOL     OW 5440   8.103   1.969  11.812  0.1588 -0.1332 -0.2426
32861SOL    HW1 5441   8.149   2.053  11.821  0.8703 -0.4855 -0.5038
32861SOL    HW2 5442   8.153   1.908  11.867 -1.1253 -0.0996  1.0078
32862SOL     OW 5443   0.944   5.946  11.567  0.5424 -0.4658  0.3901
32862SOL    HW1 5444   1.028   5.905  11.549  0.0143 -0.5413 -2.3293
32862SOL    HW2 5445   0.943   6.024  11.511 -0.4273  0.6766  1.8868
32863SOL     OW 5446  11.310   9.408  12.087  0.1786  0.0296 -0.7366
32863SOL    HW1 5447  11.349   9.464  12.020  1.7057  0.8159  0.7360
32863SOL    HW2 5448  11.315   9.459  12.167  1.6410 -2.1428  0.6806
32864SOL     OW 5449   9.474   3.027  11.854 -0.3976 -0.4529 -0.1802
32864SOL    HW1 5450   9.472   2.959  11.787  0.3788  0.0275 -0.7223
32864SOL    HW2 5451   9.442   2.985  11.933  0.6333 -1.6258 -0.3485
32865SOL     OW 5452   3.656   7.904   4.114  0.1682  0.0641  0.8994
32865SOL    HW1 5453   3.566   7.871   4.115  0.1822 -0.0092  2.2937
32865SOL    HW2 5454   3.697   7.863   4.191  2.1481 -1.8900 -1.0729
32866SOL     OW 5455   0.637   6.618   1.132  0.3499  0.4668 -0.1080
32866SOL    HW1 5456   0.596   6.699   1.161 -0.1666 -0.0336  0.6056
32866SOL    HW2 5457   0.661   6.573   1.212  1.9430  0.5411 -0.5058
32867SOL     OW 5458   2.106   5.349  10.425  1.0969 -0.7704  0.1313
32867SOL    HW1 5459   2.199   5.367  10.437  1.1018 -0.1545 -0.7471
32867SOL    HW2 5460   2.098   5.322  10.334  0.4849 -1.3441  0.3469
32868SOL     OW 5461  11.743  10.637   9.292  0.2237  0.1684  0.1090
32868SOL    HW1 5462  11.668  10.608   9.344  1.6562 -0.1696  2.1166
32868SOL    HW2 5463  11.772  10.559   9.246 -1.0116  0.4505 -1.2110
32869SOL     OW 5464   2.024   0.208   5.196  0.2398  0.5721 -0.1969
32869SOL    HW1 5465   2.028   0.270   5.123 -1.2220  0.2690 -0.5567
32869SOL    HW2 5466   2.009   0.123   5.155  0.7273  0.1963  0.3865
32870SOL     OW 5467  12.244   8.649   6.446 -0.1326  0.6786 -0.0507
32870SOL    HW1 5468  12.268   8.653   6.539  1.1922 -0.1287 -0.3254
32870SOL    HW2 5469  12.153   8.621   6.446  0.5354 -1.7895  1.0041
32871SOL     OW 5470   4.026   6.625   6.653  0.4594 -0.3498 -0.6169
32871SOL    HW1 5471   4.061   6.714   6.660  0.8240 -0.5025 -0.4842
32871SOL    HW2 5472   4.102   6.568   6.659  0.0428 -0.7786  1.7302
32872SOL     OW 5473   0.201   5.325   1.442  0.0575 -0.2114  0.1226
32872SOL    HW1 5474   0.173   5.361   1.526  3.3912 -0.6136  1.5387
32872SOL    HW2 5475   0.142   5.251   1.427 -2.6630  1.7620  0.4105
32873SOL     OW 5476   8.412   3.560  10.533 -0.1708 -0.0669 -0.0616
32873SOL    HW1 5477   8.455   3.639  10.501  1.5216  0.4297  3.0483
32873SOL    HW2 5478   8.466   3.488  10.500  0.0073  0.2284 -0.4228
32874SOL     OW 5479   7.674  10.199  10.170  0.0785 -0.5485 -0.2637
32874SOL    HW1 5480   7.668  10.233  10.259  2.3366 -1.7893  0.4326
32874SOL    HW2 5481   7.740  10.252  10.127 -1.0564  0.0980 -1.2718
32875SOL     OW 5482   9.456   4.157   9.604 -0.0815 -0.1332 -0.9703
32875SOL    HW1 5483   9.439   4.239   9.558 -0.6245  0.5291  0.3648
32875SOL    HW2 5484   9.386   4.098   9.576 -0.8990  0.5368 -0.3866
32876SOL     OW 5485   1.591   2.057   6.187 -0.0793 -0.3265  0.7812
32876SOL    HW1 5486   1.587   2.094   6.276  0.2724  0.4861  0.4716
32876SOL    HW2 5487   1.587   2.134   6.130 -2.3021 -0.9211  0.0313
32877SOL     OW 5488   3.875   9.599   4.130 -0.1906 -0.5466 -0.1748
32877SOL    HW1 5489   3.954   9.621   4.179 -0.1642 -0.6404 -0.1762
32877SOL    HW2 5490   3.878   9.658   4.054 -0.2620 -0.3616 -0.0353
32878SOL     OW 5491   1.918   1.905   8.023 -0.3452  0.0818  0.1879
32878SOL    HW1 5492   1.977   1.957   7.969  0.8864 -1.0448  0.3905
32878SOL    HW2 5493   1.839   1.895   7.970  0.6516 -0.6146 -1.2426
32879SOL     OW 5494   8.295   8.408  10.792  0.2104  0.0789 -0.3323
32879SOL    HW1 5495   8.285   8.326  10.840  0.6548 -0.2930 -0.8540
32879SOL    HW2 5496   8.272   8.476  10.855  0.8716 -0.3892  0.4409
32880SOL     OW 5497   3.414   6.610   0.135  0.3607  0.2075  0.4235
32880SOL    HW1 5498   3.460   6.558   0.201  1.0692  1.7943  1.2060
32880SOL    HW2 5499   3.442   6.572   0.051  0.8068 -0.7065  0.9680
32881SOL     OW 5500  11.065  10.063   9.761 -0.4994  0.0797  0.0436
32881SOL    HW1 5501  11.015   9.986   9.735 -0.9219  0.1252  0.6954
32881SOL    HW2 5502  11.010  10.137   9.735 -0.5110  0.1414  0.2437
32882SOL     OW 5503   2.197   6.355   4.505  0.1679  0.1698 -0.5032
32882SOL    HW1 5504   2.256   6.430   4.513  1.1375 -0.0981 -3.7292
32882SOL    HW2 5505   2.248   6.281   4.539  0.2538  0.5241  0.1477
32883SOL     OW 5506  10.774   5.772   6.283  0.0870  0.3058  0.0458
32883SOL    HW1 5507  10.837   5.704   6.307  0.9453  0.6084 -1.2518
32883SOL    HW2 5508  10.821   5.855   6.300  0.4804  0.5318 -1.9125
32884SOL     OW 5509  12.319   0.114  10.052  0.2836 -0.1497 -0.2947
32884SOL    HW1 5510  12.238   0.104  10.003  0.0610 -0.7522  0.1930
32884SOL    HW2 5511  12.346   0.025  10.074 -0.1660  0.1209  1.5699
32885SOL     OW 5512   1.648  12.188   1.759 -0.1467 -0.2672  0.2923
32885SOL    HW1 5513   1.566  12.162   1.718 -0.0329  0.3044 -0.3205
32885SOL    HW2 5514   1.636  12.168   1.852 -1.0194 -0.0993  0.2258
32886SOL     OW 5515   2.617   9.530   6.790 -0.4950  0.6215 -0.4614
32886SOL    HW1 5516   2.561   9.499   6.861 -0.9052 -2.6246 -1.9986
32886SOL    HW2 5517   2.570   9.604   6.753 -1.0953  1.3008  1.5226
32887SOL     OW 5518   9.073  11.100   7.312  0.5490  0.6717 -0.1980
32887SOL    HW1 5519   9.107  11.013   7.330  0.2767  0.6763  0.3486
32887SOL    HW2 5520   9.042  11.094   7.221 -2.3818 -0.7921  0.7604
32888SOL     OW 5521   4.610  11.014   3.317 -0.2086 -0.3659 -0.2546
32888SOL    HW1 5522   4.532  10.967   3.287  1.0569 -1.6581 -1.6741
32888SOL    HW2 5523   4.680  10.948   3.317  1.4431  1.2619 -1.4281
32889SOL     OW 5524   0.473   4.397  11.547 -0.4341  0.0141 -0.5009
32889SOL    HW1 5525   0.427   4.313  11.553 -0.4009  0.0369  0.1631
32889SOL    HW2 5526   0.411   4.460  11.584  0.4143 -0.0678  1.1197
32890SOL     OW 5527   5.647   0.370   9.550  0.3140  0.0607  0.8406
32890SOL    HW1 5528   5.717   0.336   9.606 -1.6948 -3.1274  1.6698
32890SOL    HW2 5529   5.681   0.360   9.461  1.1659 -0.8759  1.2524
32891SOL     OW 5530   7.438   4.645   0.091  0.2940 -0.3890 -0.2482
32891SOL    HW1 5531   7.442   4.583   0.164  0.9063 -0.8867 -0.6938
32891SOL    HW2 5532   7.522   4.636   0.047 -0.1549 -0.2710 -1.1564
32892SOL     OW 5533   6.519   0.649   7.133  0.3197  0.6828  0.3925
32892SOL    HW1 5534   6.535   0.741   7.109  2.2488  0.2556 -0.1279
32892SOL    HW2 5535   6.598   0.603   7.105 -0.1022 -0.9550  1.7525
32893SOL     OW 5536   6.248   9.565   7.669  0.2750 -1.1397 -0.3993
32893SOL    HW1 5537   6.341   9.585   7.673  0.1267 -0.5221  0.1428
32893SOL    HW2 5538   6.244   9.474   7.638  1.0768 -1.4136  0.2574
32894SOL     OW 5539   2.240   8.552   8.581 -0.3355  0.3199  0.2537
32894SOL    HW1 5540   2.293   8.631   8.575  0.0839 -0.0362 -1.2389
32894SOL    HW2 5541   2.150   8.583   8.595  0.0061  0.9916  0.9959
32895SOL     OW 5542  10.757  11.091  11.337 -0.0074  0.4613 -0.3259
32895SOL    HW1 5543  10.704  11.148  11.393  0.0598  0.3745 -0.1748
32895SOL    HW2 5544  10.790  11.023  11.396  1.0492  1.0482 -0.2107
32896SOL     OW 5545   7.611  11.703  11.112  0.0218 -0.1836 -0.5175
32896SOL    HW1 5546   7.588  11.623  11.158  0.9818 -0.3227 -0.2463
32896SOL    HW2 5547   7.537  11.761  11.125 -0.5875 -0.9453 -0.5237
32897SOL     OW 5548   3.548   1.161   1.802  0.0169  0.1572  0.3297
32897SOL    HW1 5549   3.517   1.238   1.756 -1.1207  0.5219  1.6325
32897SOL    HW2 5550   3.483   1.146   1.871  0.3921 -1.7598  0.3284
32898SOL     OW 5551   8.591   7.483   1.789  0.9812 -0.3594  0.2158
32898SOL    HW1 5552   8.612   7.503   1.881 -1.6317 -0.3481  0.9019
32898SOL    HW2 5553   8.594   7.568   1.745  1.5927 -0.2619  0.4406
32899SOL     OW 5554   5.016   8.982   6.359  0.5947  0.1355  0.0095
32899SOL    HW1 5555   4.944   8.934   6.318 -0.3326  1.0905  0.4778
32899SOL    HW2 5556   4.973   9.054   6.406  1.6291 -0.7033  2.3915
32900SOL     OW 5557   1.213  10.442  10.375 -0.1058 -0.0921  0.0537
32900SOL    HW1 5558   1.215  10.429  10.280  0.1746  0.7473 -0.0693
32900SOL    HW2 5559   1.151  10.377  10.408 -0.6663  0.0170 -0.7728
32901SOL     OW 5560   5.045   4.370   7.723 -0.4484 -0.4748 -0.1835
32901SOL    HW1 5561   5.030   4.305   7.654 -2.7976 -0.7815  0.5282
32901SOL    HW2 5562   5.032   4.322   7.805 -0.8307  0.5624  0.3855
32902SOL     OW 5563   7.796   5.755   2.101  0.3457 -0.6163 -0.4911
32902SOL    HW1 5564   7.872   5.717   2.145  1.0162 -0.5583 -1.5620
32902SOL    HW2 5565   7.799   5.848   2.124 -0.6478 -0.9438  1.1988
32903SOL     OW 5566   7.976   7.414  11.631  0.0787 -0.0792 -0.0816
32903SOL    HW1 5567   8.013   7.481  11.688 -1.1234  0.5271  0.0158
32903SOL    HW2 5568   7.959   7.459  11.548 -1.9011  0.0989  0.3781
32904SOL     OW 5569   3.142   3.772   0.514  0.2104 -0.0951  0.6469
32904SOL    HW1 5570   3.172   3.716   0.586  0.0947 -0.2779  0.5510
32904SOL    HW2 5571   3.074   3.721   0.470  0.6998 -0.2319  0.0363
32905SOL     OW 5572   0.292   4.133   3.405  0.0521  0.4169 -0.2572
32905SOL    HW1 5573   0.223   4.193   3.432 -0.2624  0.2965 -0.7783
32905SOL    HW2 5574   0.293   4.065   3.472 -1.3262 -0.3677 -0.9872
32906SOL     OW 5575  12.171   6.585   0.223 -0.2365 -0.0822  0.5582
32906SOL    HW1 5576  12.168   6.624   0.136  0.5656 -0.1634  0.4888
32906SOL    HW2 5577  12.085   6.543   0.234  0.6726 -2.7584 -1.4835
32907SOL     OW 5578   7.246   5.456  11.246 -0.2809  0.1446  0.3581
32907SOL    HW1 5579   7.153   5.445  11.226 -0.6002  0.2857  1.6640
32907SOL    HW2 5580   7.283   5.495  11.167 -1.7199  1.8920  0.4793
32908SOL     OW 5581   8.881  11.870  10.169  0.0204 -0.5293 -0.5198
32908SOL    HW1 5582   8.807  11.931  10.161 -0.2411 -0.9545 -1.4493
32908SOL    HW2 5583   8.932  11.883  10.090  0.6795 -0.5945 -0.1095
32909SOL     OW 5584  10.581   3.683   4.037 -0.1221  0.4192  0.1727
32909SOL    HW1 5585  10.633   3.702   4.115  0.6673 -0.1806 -0.1870
32909SOL    HW2 5586  10.552   3.768   4.006 -0.7216  0.6464  1.2938
32910SOL     OW 5587   8.408   7.921   5.064  0.3941  0.3012 -0.0285
32910SOL    HW1 5588   8.339   7.919   5.130  0.0557  1.6644 -0.2951
32910SOL    HW2 5589   8.370   7.875   4.989  0.2014  0.0754  0.2051
32911SOL     OW 5590   0.770   2.193   0.694  0.1007  0.3027 -0.3927
32911SOL    HW1 5591   0.773   2.122   0.629  0.6979 -0.4760  0.4705
32911SOL    HW2 5592   0.697   2.248   0.665 -1.6764 -1.7213 -0.0050
32912SOL     OW 5593   1.826   1.543   9.437  0.0159 -0.3441 -0.4911
32912SOL    HW1 5594   1.736   1.552   9.407 -0.3937 -0.7735  0.5470
32912SOL    HW2 5595   1.821   1.558   9.532  0.8909 -1.2710 -0.2818
32913SOL     OW 5596   7.395   1.865   0.114 -0.2780  0.0246 -0.3899
32913SOL    HW1 5597   7.486   1.858   0.082 -0.3905  1.0542 -0.9515
32913SOL    HW2 5598   7.359   1.777   0.100  0.5142 -0.2960 -0.5058
32914SOL     OW 5599   5.625   3.843   0.526  0.6490 -0.0592 -0.3614
32914SOL    HW1 5600   5.670   3.764   0.556  0.5375 -0.2245 -0.6210
32914SOL    HW2 5601   5.682   3.915   0.553 -0.6692  0.0236  2.5433
32915SOL     OW 5602   2.014   6.551   1.463 -0.2363 -0.2864  0.0213
32915SOL    HW1 5603   1.942   6.553   1.527  0.6621  0.9576  1.0496
32915SOL    HW2 5604   1.986   6.610   1.393  0.2922  1.2136  1.0355
32916SOL     OW 5605   8.101   5.108   0.892  0.2272 -0.1210 -0.4971
32916SOL    HW1 5606   8.049   5.028   0.889  0.9946 -0.6318 -0.7328
32916SOL    HW2 5607   8.126   5.124   0.801  0.6550 -0.0106 -0.3640
32917SOL     OW 5608   6.315  10.547   3.473 -0.6614 -0.2461  0.4152
32917SOL    HW1 5609   6.264  10.555   3.392  1.1610 -1.9583 -1.0187
32917SOL    HW2 5610   6.364  10.629   3.478 -0.5183 -0.2624 -0.4608
32918SOL     OW 5611   6.023  10.055  11.256  0.5584 -0.4324 -0.0740
32918SOL    HW1 5612   6.015  10.141  11.299 -0.3336 -1.4399  1.9422
32918SOL    HW2 5613   5.950  10.052  11.195  1.4468  0.7833 -1.2464
32919SOL     OW 5614   1.461   0.573   3.008 -1.0279 -0.0628  0.5516
32919SOL    HW1 5615   1.522   0.500   3.021  0.7432  0.9043 -1.6594
32919SOL    HW2 5616   1.385   0.533   2.965 -1.0529 -0.9318  1.3636
32920SOL     OW 5617   6.456   8.047   3.181  0.2263 -0.9538  0.5673
32920SOL    HW1 5618   6.428   8.068   3.092  0.3663 -0.9354  0.5276
32920SOL    HW2 5619   6.414   8.113   3.236 -2.1506 -2.5793  0.8493
32921SOL     OW 5620   6.459   7.752  12.478  0.6559 -0.1826 -0.2099
32921SOL    HW1 5621   6.535   7.806  12.459  1.1297 -1.1144 -1.0737
32921SOL    HW2 5622   6.419   7.736  12.392 -1.8415  2.1191  0.3874
32922SOL     OW 5623   5.497  12.129  10.556 -0.1735  0.1234  0.3701
32922SOL    HW1 5624   5.573  12.166  10.511 -0.4855  0.3964  0.0668
32922SOL    HW2 5625   5.507  12.158  10.647 -1.1276  2.1435 -0.1169
32923SOL     OW 5626   6.071  11.149   2.655  0.0154  0.2970  0.1996
32923SOL    HW1 5627   6.046  11.130   2.564 -1.9298 -1.1411  0.9644
32923SOL    HW2 5628   6.094  11.064   2.691  1.5320  0.9716  0.8720
32924SOL     OW 5629   2.374   7.737   8.131  0.3022 -0.1679  0.1685
32924SOL    HW1 5630   2.317   7.672   8.089  0.4723 -1.0766  1.2835
32924SOL    HW2 5631   2.396   7.698   8.215  0.0890  1.5478  1.0474
32925SOL     OW 5632   5.776   5.050  12.081  0.1863  0.5544 -0.4223
32925SOL    HW1 5633   5.852   5.107  12.070 -0.1786  1.5836  1.7781
32925SOL    HW2 5634   5.798   4.995  12.156 -0.3169 -0.8093 -1.2373
32926SOL     OW 5635  11.046  10.709   1.322  0.2123  0.1782 -0.2150
32926SOL    HW1 5636  11.027  10.617   1.304  0.6340 -0.0686  0.5450
32926SOL    HW2 5637  11.140  10.718   1.303  0.7917 -0.1944  2.0773
32927SOL     OW 5638   2.797   7.348   7.467  0.1880 -0.5145  0.1494
32927SOL    HW1 5639   2.724   7.293   7.437  0.5326 -1.2272  0.5831
32927SOL    HW2 5640   2.830   7.388   7.386 -0.3524 -0.5893 -0.1192
32928SOL     OW 5641   0.260   2.160  11.357  0.1781  0.3295  0.3241
32928SOL    HW1 5642   0.320   2.087  11.344  0.6528  0.7113  0.2949
32928SOL    HW2 5643   0.237   2.156  11.450 -0.6137 -0.4586  0.0990
32929SOL     OW 5644   9.014   1.670   2.392 -0.2580 -0.0099  0.1236
32929SOL    HW1 5645   8.921   1.646   2.398 -0.0610 -0.7221  0.4402
32929SOL    HW2 5646   9.060   1.586   2.384  0.5831  0.0506  3.0456
32930SOL     OW 5647   1.611  10.013  11.462  0.2163  0.0767 -0.9584
32930SOL    HW1 5648   1.539  10.076  11.465 -1.0125 -1.2996 -0.5751
32930SOL    HW2 5649   1.611   9.980  11.372 -0.1025 -0.4381 -0.7736
32931SOL     OW 5650   5.443   1.700   2.113 -0.4688  0.1416 -0.0392
32931SOL    HW1 5651   5.401   1.783   2.133 -4.0347 -1.0069 -1.8554
32931SOL    HW2 5652   5.490   1.676   2.193 -2.5678  2.0632  1.8926
32932SOL     OW 5653   4.708  10.570   1.233 -0.1425  0.2762 -0.4445
32932SOL    HW1 5654   4.672  10.587   1.320  0.1668  2.6601 -0.6938
32932SOL    HW2 5655   4.796  10.537   1.250  0.6811  2.5604  0.2615
32933SOL     OW 5656   7.066  11.869   2.956  0.3401 -0.1855 -0.4408
32933SOL    HW1 5657   7.034  11.880   3.045  0.2126 -0.1684 -0.4892
32933SOL    HW2 5658   7.155  11.904   2.959  0.8011 -1.3429 -0.0199
32934SOL     OW 5659   1.039   7.565   8.602  0.0612 -0.0262 -0.3296
32934SOL    HW1 5660   1.002   7.520   8.527  0.1207  1.2509 -1.1634
32934SOL    HW2 5661   0.964   7.579   8.661 -0.3591  0.5519 -0.9847
32935SOL     OW 5662   4.562   4.798   2.746  0.4996 -0.4415  0.3438
32935SOL    HW1 5663   4.572   4.819   2.838 -0.0933  0.4028  0.2287
32935SOL    HW2 5664   4.647   4.766   2.718  0.8157 -0.2263  1.0656
32936SOL     OW 5665   2.793   5.489   9.780  0.1300  0.3503 -0.1757
32936SOL    HW1 5666   2.860   5.549   9.815 -1.4256  1.3690  1.2234
32936SOL    HW2 5667   2.813   5.405   9.821 -0.0747  0.9072  1.1232
32937SOL     OW 5668   5.667   2.798   3.565  0.3206  0.4196  0.3173
32937SOL    HW1 5669   5.573   2.799   3.584 -0.1731 -1.0910 -1.6509
32937SOL    HW2 5670   5.675   2.841   3.480  1.1874 -0.7329 -0.2176
32938SOL     OW 5671   5.540   5.157   5.952 -0.6110  0.1158 -0.4450
32938SOL    HW1 5672   5.565   5.247   5.931 -0.4651  0.6449  1.7204
32938SOL    HW2 5673   5.445   5.161   5.963 -0.4468  0.4199  1.1912
32939SOL     OW 5674   5.355   6.554   3.531  0.2382 -0.0460 -0.0306
32939SOL    HW1 5675   5.375   6.583   3.442  0.4021  1.1780  0.3762
32939SOL    HW2 5676   5.440   6.531   3.568  0.1148 -1.0147 -0.3339
32940SOL     OW 5677   4.489   7.196   0.533  0.2360  0.5814  0.4785
32940SOL    HW1 5678   4.427   7.128   0.506  1.9793 -0.6224 -0.7232
32940SOL    HW2 5679   4.490   7.191   0.628 -0.0621 -0.7397  0.4315
32941SOL     OW 5680  11.281   4.172  10.374  0.0654  0.0622  0.2214
32941SOL    HW1 5681  11.192   4.205  10.389 -0.0657  0.7016 -1.7164
32941SOL    HW2 5682  11.325   4.243  10.327  0.9412 -1.0777 -0.7332
32942SOL     OW 5683   6.178   2.002   7.948  0.4351 -0.1443  0.3563
32942SOL    HW1 5684   6.093   1.988   7.991  0.3069 -0.1319  0.1111
32942SOL    HW2 5685   6.158   1.995   7.854  0.1878  2.5341  0.1324
32943SOL     OW 5686   8.683  11.234   0.462  0.3339 -0.3713 -0.0183
32943SOL    HW1 5687   8.704  11.254   0.554  0.2258 -2.3091  0.4785
32943SOL    HW2 5688   8.764  11.252   0.414 -0.1989  2.7398  0.0232
32944SOL     OW 5689  10.982   2.719   5.699 -0.2790  0.3489  0.2891
32944SOL    HW1 5690  10.911   2.776   5.668  0.0929 -0.2913 -1.8234
32944SOL    HW2 5691  11.060   2.774   5.697 -0.5947  1.0140  2.4947
32945SOL     OW 5692   1.246   2.509   7.917  0.2251 -0.1571  0.3392
32945SOL    HW1 5693   1.222   2.542   7.830 -0.5530 -1.8816 -0.1394
32945SOL    HW2 5694   1.313   2.570   7.948 -1.3970  2.0520 -0.3031
32946SOL     OW 5695  11.585   2.186   5.503  0.3781 -0.1621  0.0635
32946SOL    HW1 5696  11.534   2.138   5.437  1.2116 -0.2869 -0.4951
32946SOL    HW2 5697  11.573   2.278   5.480  0.0936 -0.1719  0.1659
32947SOL     OW 5698   2.855   2.053  11.729 -0.2924 -0.4691 -0.1936
32947SOL    HW1 5699   2.811   1.968  11.725  0.4382 -0.8219 -0.8512
32947SOL    HW2 5700   2.896   2.055  11.815 -0.7066 -0.5785  0.0094
32948SOL     OW 5701   5.460   6.336   3.305  0.0203  0.3073 -0.0012
32948SOL    HW1 5702   5.542   6.311   3.347 -0.7372 -1.3021  0.6224
32948SOL    HW2 5703   5.439   6.262   3.248 -1.7271 -0.0145  0.9815
32949SOL     OW 5704   6.262   5.898   0.242  0.4175 -0.2163 -0.4345
32949SOL    HW1 5705   6.300   5.896   0.154  0.4399  1.0202 -0.4694
32949SOL    HW2 5706   6.322   5.952   0.293  0.9024 -1.6845  0.6056
32950SOL     OW 5707   9.570   7.704  11.780 -0.1405  0.1073  0.8698
32950SOL    HW1 5708   9.640   7.769  11.786 -0.4052  0.5283 -0.3082
32950SOL    HW2 5709   9.521   7.714  11.861  0.7590  0.2763  1.4090
32951SOL     OW 5710   8.959  10.944   1.183  0.3479 -0.1727  0.1231
32951SOL    HW1 5711   8.924  10.874   1.127 -1.1311 -0.8647  1.8003
32951SOL    HW2 5712   8.947  11.024   1.133 -2.3084 -0.5859 -0.0143
32952SOL     OW 5713   6.936   5.909   0.050 -0.1963  0.5794 -0.2829
32952SOL    HW1 5714   7.025   5.909   0.086  0.0769 -2.6719 -0.6437
32952SOL    HW2 5715   6.885   5.858   0.113 -0.6922 -1.4909 -2.2132
32953SOL     OW 5716   4.453   9.075   8.202  0.3527  0.6119 -0.0109
32953SOL    HW1 5717   4.367   9.037   8.184  1.2631 -2.0462  0.7088
32953SOL    HW2 5718   4.468   9.137   8.130 -2.9222  2.7283  0.9273
32954SOL     OW 5719  12.185   1.421   2.039  0.2089 -0.4515 -0.3787
32954SOL    HW1 5720  12.201   1.328   2.052 -0.3475 -0.2671  2.1736
32954SOL    HW2 5721  12.096   1.435   2.072 -0.2250  0.7785 -1.9509
32955SOL     OW 5722   2.156  10.632   9.921 -0.1203 -0.0667  0.2853
32955SOL    HW1 5723   2.109  10.583   9.853  2.4821 -3.1807  0.4978
32955SOL    HW2 5724   2.110  10.613  10.002 -0.2013 -0.6970  0.0955
32956SOL     OW 5725   9.213  11.009   8.208 -0.1726  0.5153  0.3347
32956SOL    HW1 5726   9.262  11.080   8.166 -1.0768  1.1293  0.2937
32956SOL    HW2 5727   9.143  10.989   8.146  0.2034 -0.5899  0.2377
32957SOL     OW 5728   7.290  10.129   9.223  0.0673 -0.2252 -0.1729
32957SOL    HW1 5729   7.223  10.198   9.233  1.0933  0.7164  0.4211
32957SOL    HW2 5730   7.259  10.058   9.279  0.8019  1.2124  2.2349
32958SOL     OW 5731   5.439   0.049   7.077 -0.0891  0.0535  0.1770
32958SOL    HW1 5732   5.352   0.087   7.080 -0.0015  0.2104  1.5947
32958SOL    HW2 5733   5.487   0.101   7.013 -1.0722 -0.1580 -0.7547
32959SOL     OW 5734  12.177   7.838  10.295 -0.2074 -0.2147 -0.0451
32959SOL    HW1 5735  12.219   7.815  10.212  0.4502  0.0031  0.2243
32959SOL    HW2 5736  12.194   7.932  10.306 -1.5130  0.0890 -0.3570
32960SOL     OW 5737   3.981   1.286  11.053  0.7822 -0.2085 -0.0609
32960SOL    HW1 5738   4.014   1.376  11.056  2.6476 -0.8625 -0.1571
32960SOL    HW2 5739   3.966   1.269  10.960 -2.7823  1.0454  0.1305
32961SOL     OW 5740   2.157   2.214   4.870  0.3363  0.1806  0.3808
32961SOL    HW1 5741   2.202   2.294   4.898 -1.1628  0.9985  0.5198
32961SOL    HW2 5742   2.154   2.160   4.948  2.0356 -0.3696  0.1011
32962SOL     OW 5743  11.690   5.792   3.593  0.6788 -1.1470 -0.8577
32962SOL    HW1 5744  11.752   5.718   3.587 -0.3975 -2.6759  3.3919
32962SOL    HW2 5745  11.722   5.844   3.666  0.9875  2.4229 -3.2974
32963SOL     OW 5746  10.637   6.189   6.397  0.8382 -0.0785  0.0347
32963SOL    HW1 5747  10.546   6.176   6.370  0.6377 -0.0726  0.6983
32963SOL    HW2 5748  10.685   6.116   6.357  0.7847  0.6475 -1.4438
32964SOL     OW 5749  11.764  11.691   9.293 -0.1388 -0.2630 -0.3339
32964SOL    HW1 5750  11.702  11.750   9.249  0.5660  1.3980  0.8258
32964SOL    HW2 5751  11.758  11.715   9.385  1.6811 -0.5973 -0.1038
32965SOL     OW 5752   7.296  12.177  10.932 -0.0993  0.1894  0.0250
32965SOL    HW1 5753   7.300  12.206  11.023  0.7812 -2.0865  0.7809
32965SOL    HW2 5754   7.371  12.220  10.891  0.5671 -0.1417  0.8475
32966SOL     OW 5755   5.022  11.568   6.289 -0.2536 -0.3452 -0.2379
32966SOL    HW1 5756   5.015  11.516   6.369 -0.8345  1.3629  0.8800
32966SOL    HW2 5757   4.985  11.512   6.220 -3.5090 -0.4572  1.3825
32967SOL     OW 5758   3.155   4.010   9.284 -0.1639  0.0893  1.3151
32967SOL    HW1 5759   3.164   3.952   9.208  3.1546  2.3470 -0.2447
32967SOL    HW2 5760   3.230   3.989   9.340  0.1794  1.6853  1.5050
32968SOL     OW 5761   9.900   4.960   6.196  0.0067  0.3257  0.6814
32968SOL    HW1 5762   9.952   4.891   6.155 -0.5241  0.3086  0.0146
32968SOL    HW2 5763   9.963   5.025   6.226  0.3655  0.7852 -0.9835
32969SOL     OW 5764   9.408   1.443   6.898  0.2120  0.3312  0.1176
32969SOL    HW1 5765   9.348   1.415   6.967  0.8208 -0.8841  0.1853
32969SOL    HW2 5766   9.452   1.362   6.870  2.2101  1.2350  0.4594
32970SOL     OW 5767   6.537   3.545   6.867 -0.0799 -0.1034  0.1638
32970SOL    HW1 5768   6.535   3.599   6.946  0.3898  1.7896 -1.0475
32970SOL    HW2 5769   6.523   3.607   6.795  1.2876 -1.4729 -1.3640
32971SOL     OW 5770  11.798   0.635   0.639 -0.5193 -0.0995  0.0262
32971SOL    HW1 5771  11.783   0.559   0.696 -0.7768  0.9918  1.4770
32971SOL    HW2 5772  11.783   0.602   0.551  0.8609 -2.1160  0.4730
32972SOL     OW 5773   6.910   0.496  11.584  0.1267 -0.2565 -0.1469
32972SOL    HW1 5774   6.902   0.421  11.643  1.6017  0.4864  1.0697
32972SOL    HW2 5775   6.995   0.534  11.605  0.1126  0.8271 -1.8617
32973SOL     OW 5776   1.051   6.103  11.937  0.3324  0.0598  0.0861
32973SOL    HW1 5777   0.958   6.109  11.916  0.0045 -2.0926  0.7601
32973SOL    HW2 5778   1.054   6.111  12.032  0.9361  0.8948  0.0055
32974SOL     OW 5779   9.457   1.864   8.707  0.0940  0.0189 -0.0889
32974SOL    HW1 5780   9.408   1.911   8.639 -0.1092  0.8874  0.6310
32974SOL    HW2 5781   9.520   1.811   8.659 -0.3741  0.2380 -0.9708
32975SOL     OW 5782   2.824   7.420   4.891 -0.0082  0.0961  0.7261
32975SOL    HW1 5783   2.821   7.344   4.832  2.2816  1.6991 -1.6991
32975SOL    HW2 5784   2.797   7.494   4.836  0.2846  1.4071  2.2611
32976SOL     OW 5785   4.186   3.576   6.076  0.0094 -0.4529  0.7710
32976SOL    HW1 5786   4.169   3.492   6.118  0.7539 -0.1487  1.7282
32976SOL    HW2 5787   4.219   3.632   6.147  0.1626  0.4425  0.0150
32977SOL     OW 5788   4.501   0.379   9.672 -0.0742  0.4697  0.0859
32977SOL    HW1 5789   4.488   0.338   9.757  1.0899 -0.2525 -0.0515
32977SOL    HW2 5790   4.595   0.396   9.668 -0.1881  0.9446 -0.8513
32978SOL     OW 5791   6.667  10.913  12.401 -0.3829  0.2034 -0.1541
32978SOL    HW1 5792   6.656  10.995  12.353  1.9852  0.0786 -1.0445
32978SOL    HW2 5793   6.669  10.845  12.334 -0.0822 -0.3360  0.3885
32979SOL     OW 5794   6.109   6.627   6.584  0.4686 -0.2231 -0.1714
32979SOL    HW1 5795   6.079   6.718   6.585 -1.4660 -0.7508 -1.9954
32979SOL    HW2 5796   6.182   6.627   6.523  0.1600  0.0330 -0.5460
32980SOL     OW 5797   9.090   7.258   4.054 -0.6293 -0.0480  0.2634
32980SOL    HW1 5798   9.005   7.301   4.056  0.0263  1.3706  3.0741
32980SOL    HW2 5799   9.153   7.329   4.041  0.3359 -0.3121  2.8497
32981SOL     OW 5800  12.573   2.460   4.419 -0.0046 -0.7491  0.3104
32981SOL    HW1 5801  12.604   2.543   4.456  1.3685 -1.2232  0.2934
32981SOL    HW2 5802  12.583   2.397   4.490  0.4514 -1.2065 -0.1529
32982SOL     OW 5803   7.320   8.870   9.094 -0.1554 -0.3552 -0.7542
32982SOL    HW1 5804   7.322   8.939   9.027  0.2593  0.3754 -0.0104
32982SOL    HW2 5805   7.412   8.854   9.115 -0.3079  0.6166  0.8162
32983SOL     OW 5806   7.970   5.292   9.899 -0.4586 -0.2071 -0.1004
32983SOL    HW1 5807   7.890   5.315   9.852 -0.6119  0.3087  0.3962
32983SOL    HW2 5808   7.946   5.216   9.952 -0.4765 -0.3676 -0.3386
32984SOL     OW 5809   0.789  12.241   4.563 -0.3566  0.2694  0.6576
32984SOL    HW1 5810   0.720  12.238   4.497  0.4556 -0.3199 -0.1948
32984SOL    HW2 5811   0.744  12.226   4.646 -1.1529 -0.9391  0.0349
32985SOL     OW 5812  11.597   6.550   6.298  0.1947 -0.2743  0.0447
32985SOL    HW1 5813  11.511   6.512   6.313  0.8122 -1.5989  0.3904
32985SOL    HW2 5814  11.655   6.505   6.359  1.2159  0.3009 -0.4545
32986SOL     OW 5815   4.661   4.267   5.875 -0.3925  0.3981 -0.1699
32986SOL    HW1 5816   4.583   4.264   5.932 -0.7824  0.8774 -0.6694
32986SOL    HW2 5817   4.691   4.177   5.871 -0.8327  0.2319  0.1604
32987SOL     OW 5818   2.541   8.146   3.478  0.1228 -0.1619 -0.3971
32987SOL    HW1 5819   2.493   8.099   3.546 -1.4836 -0.6119 -1.7579
32987SOL    HW2 5820   2.508   8.235   3.481  0.4176 -0.0552 -0.2740
32988SOL     OW 5821   6.403   6.527   0.963  0.1502  0.1379 -0.2755
32988SOL    HW1 5822   6.383   6.598   1.024 -1.0635  0.8711 -1.4653
32988SOL    HW2 5823   6.325   6.520   0.908  1.2620 -0.3770 -1.8603
32989SOL     OW 5824   9.431  10.832   8.731 -0.4041  0.1847  0.3283
32989SOL    HW1 5825   9.513  10.821   8.683 -0.1461  1.5862  0.4217
32989SOL    HW2 5826   9.407  10.743   8.757  0.5522 -0.3621 -0.5618
32990SOL     OW 5827   1.088   3.429  11.113 -0.0568  0.4035 -0.9976
32990SOL    HW1 5828   1.163   3.488  11.128  0.3307 -0.6521  1.8479
32990SOL    HW2 5829   1.014   3.488  11.102  0.6583  1.4734 -0.3590
32991SOL     OW 5830   7.286   7.779  11.995  0.0679  0.4822  0.8509
32991SOL    HW1 5831   7.303   7.685  12.000 -1.2196  0.0593 -1.5300
32991SOL    HW2 5832   7.372   7.820  12.011  0.6587 -1.0637  1.8141
32992SOL     OW 5833   4.187   2.170   0.500 -0.1526  0.2467  0.3154
32992SOL    HW1 5834   4.255   2.104   0.488  0.7938  1.3566 -0.6777
32992SOL    HW2 5835   4.113   2.122   0.536  0.1550 -1.5711 -1.2936
32993SOL     OW 5836   2.537   9.819   9.038 -0.1109 -0.0429 -0.3811
32993SOL    HW1 5837   2.569   9.805   9.127  1.1833  1.6473 -0.5200
32993SOL    HW2 5838   2.568   9.907   9.015  0.4280 -0.8000 -2.8393
32994SOL     OW 5839   7.667   7.207  10.708  0.2733  0.4442  0.0077
32994SOL    HW1 5840   7.693   7.115  10.716 -2.5486 -0.3716  0.6755
32994SOL    HW2 5841   7.668   7.224  10.613 -0.7300 -0.7967 -0.2515
32995SOL     OW 5842  11.636  11.097   0.502 -0.0600  0.5840  0.7502
32995SOL    HW1 5843  11.581  11.174   0.485 -1.0221  0.0976  1.5447
32995SOL    HW2 5844  11.703  11.129   0.562 -0.5270  0.7779  1.1730
32996SOL     OW 5845   9.865  10.684   1.023 -0.4021 -0.7878 -0.0013
32996SOL    HW1 5846   9.847  10.730   1.105 -1.7333  0.6716 -1.0473
32996SOL    HW2 5847   9.780  10.679   0.980 -0.0465 -3.1223 -0.5349
32997SOL     OW 5848   6.700   3.363  11.815 -0.3619 -0.5637 -0.4964
32997SOL    HW1 5849   6.643   3.420  11.866  0.0856 -0.5847  0.0387
32997SOL    HW2 5850   6.768   3.421  11.782  0.9054 -0.9690  1.2180
32998SOL     OW 5851   1.982   9.900  12.121 -0.3186 -0.1317 -0.1194
32998SOL    HW1 5852   1.966   9.830  12.058 -1.5111 -2.6917  2.8062
32998SOL    HW2 5853   1.982   9.857  12.206  0.6659  3.2093  1.7645
32999SOL     OW 5854   3.445   3.097   8.750 -0.2813 -0.0146 -0.0665
32999SOL    HW1 5855   3.391   3.172   8.775 -1.3558  0.8398 -4.2415
32999SOL    HW2 5856   3.533   3.121   8.779 -0.7063  2.6340 -0.6828
33000SOL     OW 5857   4.574   5.701   4.799 -0.1826  0.4881 -0.5386
33000SOL    HW1 5858   4.569   5.783   4.847  0.2586  0.7978 -1.0172
33000SOL    HW2 5859   4.562   5.633   4.866 -0.0895  0.9271 -0.0771
33001SOL     OW 5860   3.291  11.291   7.891 -0.0685 -0.6040 -0.2321
33001SOL    HW1 5861   3.331  11.378   7.891 -0.6123 -0.3494  0.3840
33001SOL    HW2 5862   3.363  11.232   7.914  0.5069 -0.4341 -1.4970
33002SOL     OW 5863   4.035   0.073   4.805 -0.2050  0.5543  0.1595
33002SOL    HW1 5864   3.968   0.004   4.814  1.1345 -1.0304 -1.3385
33002SOL    HW2 5865   4.075   0.057   4.720  2.0032  1.5242  0.9379
33003SOL     OW 5866   1.436   9.573   7.122 -0.5278 -0.3021 -0.5863
33003SOL    HW1 5867   1.368   9.606   7.181  0.3458 -0.1677  0.3729
33003SOL    HW2 5868   1.479   9.652   7.088  1.0311 -0.3538  1.0840
33004SOL     OW 5869   1.021   3.743  10.151  0.4121  0.4980  0.2110
33004SOL    HW1 5870   1.049   3.745  10.060 -2.4020  0.8581 -0.7571
33004SOL    HW2 5871   0.929   3.771  10.148 -0.7530 -2.5121  2.7778
33005SOL     OW 5872  11.227   7.274   3.344  0.4695  0.2663 -0.5831
33005SOL    HW1 5873  11.248   7.277   3.438 -0.4877  0.7892 -0.3633
33005SOL    HW2 5874  11.157   7.339   3.334  0.4540  0.0966 -1.6342
33006SOL     OW 5875   9.789   7.889   9.060  0.4470  0.2639 -0.2162
33006SOL    HW1 5876   9.828   7.807   9.090 -0.6959 -0.7758 -1.4437
33006SOL    HW2 5877   9.840   7.914   8.983  2.0442  1.8128  1.2543
33007SOL     OW 5878   3.218   2.720   1.082  0.2185 -0.2570 -0.5537
33007SOL    HW1 5879   3.229   2.745   0.990 -2.2061  1.9053 -0.3508
33007SOL    HW2 5880   3.148   2.654   1.080  0.4708 -0.5349 -0.2789
33008SOL     OW 5881   0.334   9.612   9.159  0.1159  0.6659  0.5161
33008SOL    HW1 5882   0.301   9.699   9.132 -1.0610  0.0498 -0.1216
33008SOL    HW2 5883   0.421   9.629   9.193 -0.1061  2.1171  0.4307
33009SOL     OW 5884  12.045   6.765  10.680  0.1352  0.0938 -0.1991
33009SOL    HW1 5885  12.133   6.793  10.654  1.4405 -0.5948  2.9699
33009SOL    HW2 5886  11.990   6.787  10.605  2.6321  2.4017 -1.5580
33010SOL     OW 5887   2.462   5.648  10.298  0.0214  0.0955  0.3467
33010SOL    HW1 5888   2.541   5.689  10.332 -0.7029 -0.3806  2.7302
33010SOL    HW2 5889   2.484   5.556  10.288  0.0728  0.1461 -0.0585
33011SOL     OW 5890   6.744   9.658   3.263  0.3295  0.1682 -0.6550
33011SOL    HW1 5891   6.705   9.657   3.175 -1.1465 -1.0519 -0.0216
33011SOL    HW2 5892   6.671   9.645   3.322  1.5612 -1.3462  0.6377
33012SOL     OW 5893   3.880   5.460   1.178 -0.1262  0.2643  0.1284
33012SOL    HW1 5894   3.815   5.391   1.193 -0.3686  0.5893  0.6051
33012SOL    HW2 5895   3.946   5.445   1.245  1.1585 -1.0519 -1.3348
33013SOL     OW 5896   1.053   3.409   4.241 -0.1968  0.3182  0.2110
33013SOL    HW1 5897   0.980   3.355   4.273 -0.3889  0.9603  0.8811
33013SOL    HW2 5898   1.030   3.430   4.150 -0.4533 -0.1522  0.1660
33014SOL     OW 5899   8.467   9.650   2.946  0.9674 -0.2738 -0.4084
33014SOL    HW1 5900   8.472   9.675   3.039  0.2534 -0.5286 -0.2942
33014SOL    HW2 5901   8.437   9.729   2.901  0.9827 -0.2480 -0.3739
33015SOL     OW 5902   5.838   5.350   9.365 -0.2103 -0.6114 -0.1745
33015SOL    HW1 5903   5.781   5.333   9.290  0.7416 -0.3019 -1.0020
33015SOL    HW2 5904   5.889   5.270   9.374  0.0700 -0.4424 -0.2315
33016SOL     OW 5905  10.194   1.647   2.419 -0.5498 -0.3719 -0.0976
33016SOL    HW1 5906  10.209   1.718   2.358  1.8332 -0.3158  0.4446
33016SOL    HW2 5907  10.186   1.569   2.364 -1.3494  0.0616 -0.6047
33017SOL     OW 5908   7.228   7.134   0.271 -0.3190  0.2966 -0.3643
33017SOL    HW1 5909   7.162   7.107   0.335  0.4655  2.6695  1.6315
33017SOL    HW2 5910   7.208   7.084   0.192 -1.8023 -2.2558  1.4967
33018SOL     OW 5911  11.085   1.136   4.838 -0.3817  0.3448 -0.3375
33018SOL    HW1 5912  11.134   1.053   4.832 -0.9564 -0.2078  1.8985
33018SOL    HW2 5913  11.019   1.129   4.769 -0.1211 -0.8464 -0.5027
33019SOL     OW 5914   0.326   9.193   7.668  0.5038  0.3015  0.3657
33019SOL    HW1 5915   0.277   9.131   7.722  1.8219  0.0414  1.3181
33019SOL    HW2 5916   0.406   9.147   7.645  0.9777  1.2299  0.1058
33020SOL     OW 5917   1.815   8.709   2.723  0.8693 -0.4126 -0.4058
33020SOL    HW1 5918   1.905   8.727   2.751  0.7443  0.6666 -0.6385
33020SOL    HW2 5919   1.763   8.714   2.803  0.9335 -0.4351 -0.3628
33021SOL     OW 5920   8.822   9.341  11.477  0.3992  0.6851  0.3040
33021SOL    HW1 5921   8.852   9.369  11.391 -0.1691  2.4328  0.6414
33021SOL    HW2 5922   8.760   9.408  11.505  1.3632  0.7421  2.5460
33022SOL     OW 5923   9.886   7.792   0.431 -0.2637  0.0205  0.1468
33022SOL    HW1 5924   9.850   7.878   0.453 -1.6526 -0.6111  0.4584
33022SOL    HW2 5925   9.975   7.794   0.465  0.1522  1.7514 -0.9123
33023SOL     OW 5926   8.742   2.912   1.959 -0.3821  0.2447  0.6722
33023SOL    HW1 5927   8.676   2.970   1.921  0.3078 -0.5689 -1.8948
33023SOL    HW2 5928   8.694   2.831   1.979 -0.5950  0.4155  0.8630
33024SOL     OW 5929   7.863   0.202   5.278  0.7772 -0.0979 -0.0334
33024SOL    HW1 5930   7.869   0.154   5.361  0.7700 -0.0811 -0.0230
33024SOL    HW2 5931   7.800   0.272   5.296  2.7026  1.5415  0.7652
33025SOL     OW 5932   7.710  11.511  11.310  0.0134 -0.1477  0.6960
33025SOL    HW1 5933   7.743  11.421  11.318 -1.9008 -0.8961  0.5748
33025SOL    HW2 5934   7.768  11.551  11.245  0.4170 -1.5372  0.1512
33026SOL     OW 5935   8.661   2.388   5.002 -0.2870  0.5039  0.0872
33026SOL    HW1 5936   8.655   2.422   4.913  0.1591 -0.4008 -0.3065
33026SOL    HW2 5937   8.713   2.452   5.049 -0.5721  1.0169 -0.2810
33027SOL     OW 5938   0.952   9.813   3.157  0.9690 -0.2547 -0.6293
33027SOL    HW1 5939   0.940   9.729   3.202  2.0392  0.2496  0.6634
33027SOL    HW2 5940   1.006   9.792   3.080  0.8218 -0.8224 -0.5793
33028SOL     OW 5941  11.777   7.064   5.061  0.2555 -0.3441 -0.0859
33028SOL    HW1 5942  11.862   7.054   5.019  0.0313 -2.0020 -0.1980
33028SOL    HW2 5943  11.798   7.083   5.153  0.7325 -0.1572 -0.2307
33029SOL     OW 5944   0.477   9.725  11.636  0.2354 -0.2057  0.6627
33029SOL    HW1 5945   0.516   9.743  11.551 -1.1544 -1.2350 -0.2501
33029SOL    HW2 5946   0.534   9.659  11.675  0.6734 -0.0078  0.3695
33030SOL     OW 5947   1.565   1.952   5.387  0.0035  0.2839  0.2196
33030SOL    HW1 5948   1.531   2.022   5.442  0.9866  1.6690 -0.8561
33030SOL    HW2 5949   1.549   1.981   5.298 -3.8888 -3.0336 -0.4723
33031SOL     OW 5950   9.785  12.577  12.246 -0.6952  0.2468  0.2364
33031SOL    HW1 5951   9.745  12.663  12.235  1.1868  1.6078  2.9110
33031SOL    HW2 5952   9.738  12.537  12.319  1.1036  0.8538  1.8022
33032SOL     OW 5953   0.107   2.401   6.458 -0.2064  0.3360 -0.1833
33032SOL    HW1 5954   0.198   2.395   6.428 -0.0897  2.0735 -0.3135
33032SOL    HW2 5955   0.098   2.331   6.522  1.1921  0.0439 -0.2760
33033SOL     OW 5956   7.697   8.460   1.027  0.1916  0.1419  0.1165
33033SOL    HW1 5957   7.712   8.386   0.968  1.2845  0.2425  0.2549
33033SOL    HW2 5958   7.729   8.431   1.112 -0.4104  0.3747  0.4289
33034SOL     OW 5959   6.010   8.219   7.783  0.0540 -0.0409 -0.6509
33034SOL    HW1 5960   5.997   8.197   7.875  1.4459 -0.2401 -0.4784
33034SOL    HW2 5961   6.102   8.198   7.766  0.5886  2.5255 -1.3622
33035SOL     OW 5962   9.290   9.870   9.163 -0.1776 -0.2331  0.0257
33035SOL    HW1 5963   9.200   9.900   9.156 -0.3389 -0.8178 -0.4462
33035SOL    HW2 5964   9.307   9.825   9.081  0.7731  0.4720 -0.1829
33036SOL     OW 5965   5.757   2.986  10.829  0.4781 -0.3675 -0.6092
33036SOL    HW1 5966   5.730   2.900  10.798  1.2882 -0.1101 -2.0734
33036SOL    HW2 5967   5.749   3.043  10.753  2.1906  0.3652 -0.2790
33037SOL     OW 5968   7.812  12.163  11.717  0.0202  0.3202  0.3186
33037SOL    HW1 5969   7.733  12.109  11.715 -0.0914  0.4853  0.2662
33037SOL    HW2 5970   7.819  12.201  11.629 -0.8588  1.7566  0.8270
33038SOL     OW 5971   4.800   9.691   7.790  0.5499  0.1512 -0.1226
33038SOL    HW1 5972   4.774   9.655   7.876 -1.2837  0.8501 -0.3263
33038SOL    HW2 5973   4.791   9.786   7.800  2.0366  0.3645 -0.5935
33039SOL     OW 5974   8.943   0.101   9.721  0.1793 -0.0732 -0.3028
33039SOL    HW1 5975   8.935   0.076   9.630 -0.0219  0.3557 -0.4057
33039SOL    HW2 5976   9.031   0.139   9.728 -0.0723  0.5660 -0.4901
33040SOL     OW 5977   6.770  10.904   5.246  0.0290  0.1195 -0.4255
33040SOL    HW1 5978   6.815  10.934   5.325 -1.5423  0.1732  0.4782
33040SOL    HW2 5979   6.698  10.966   5.233  0.3579  0.2162 -2.0176
33041SOL     OW 5980   5.284   6.780   5.642 -0.0059  0.6597 -0.0910
33041SOL    HW1 5981   5.279   6.771   5.547  0.7086 -0.0612 -0.0776
33041SOL    HW2 5982   5.342   6.856   5.656 -0.1831  0.8201 -0.2318
33042SOL     OW 5983   9.644   9.190   0.097 -0.2569  0.6774 -0.1514
33042SOL    HW1 5984   9.667   9.206   0.189  1.3972  0.7523 -0.5470
33042SOL    HW2 5985   9.623   9.277   0.062 -1.2282  0.6060  0.2212
33043SOL     OW 5986  11.706   9.394   1.059  0.5962  0.1616 -0.3447
33043SOL    HW1 5987  11.649   9.456   1.012  0.5711  0.0679 -0.4394
33043SOL    HW2 5988  11.768   9.449   1.106  1.4465  0.2402 -1.5169
33044SOL     OW 5989   5.926   3.800   1.638  0.2869 -0.3412 -0.1815
33044SOL    HW1 5990   5.847   3.854   1.630  0.5905  0.0795 -0.3620
33044SOL    HW2 5991   5.978   3.823   1.561  0.1590 -1.3261 -0.5850
33045SOL     OW 5992  10.928   1.898  12.250 -0.0237  0.0719  0.3433
33045SOL    HW1 5993  10.861   1.835  12.222  0.3054 -0.0027 -0.2961
33045SOL    HW2 5994  10.970   1.855  12.325  0.3519 -0.5843 -0.2290
33046SOL     OW 5995   2.477   7.026   6.429  0.3111  0.2957 -0.0989
33046SOL    HW1 5996   2.485   6.964   6.356  2.0463  1.4049 -0.9047
33046SOL    HW2 5997   2.524   6.983   6.501  2.4117  1.0628 -0.9581
33047SOL     OW 5998  12.383   3.261   8.526  0.0624 -0.0775  0.6901
33047SOL    HW1 5999  12.306   3.208   8.545  1.0524 -0.6660  3.5374
33047SOL    HW2 6000  12.457   3.200   8.535  0.9448  0.4575 -1.9806
33048SOL     OW 6001   1.314   1.896   7.873 -0.0120  0.0093 -0.3486
33048SOL    HW1 6002   1.317   1.989   7.893 -0.3194  0.0320 -0.4124
33048SOL    HW2 6003   1.357   1.889   7.787  1.4668 -0.1107  0.3633
33049SOL     OW 6004   0.485   7.391   0.472  0.3841  0.0885 -0.1094
33049SOL    HW1 6005   0.529   7.344   0.402 -0.7473  0.0739 -0.8393
33049SOL    HW2 6006   0.509   7.344   0.552  0.8705 -0.5072 -0.6030
33050SOL     OW 6007   7.810   4.632   8.824  0.6081 -0.7970  0.7528
33050SOL    HW1 6008   7.872   4.560   8.831  2.0705  0.2692 -0.3958
33050SOL    HW2 6009   7.777   4.627   8.734  1.1267  0.2254  0.4811
33051SOL     OW 6010   6.244   1.443   1.274  0.3090 -0.4720 -0.0041
33051SOL    HW1 6011   6.296   1.502   1.219  0.9523 -0.6234  0.4355
33051SOL    HW2 6012   6.161   1.434   1.227  1.2451 -1.5014 -1.5435
33052SOL     OW 6013   5.573   4.870   4.570  0.2715  0.3534  0.2096
33052SOL    HW1 6014   5.635   4.816   4.620  1.1630  2.7396  1.8406
33052SOL    HW2 6015   5.618   4.954   4.558 -1.1100  0.8446 -2.1299
33053SOL     OW 6016   8.373   5.888   1.398  0.5875  0.0175  0.0786
33053SOL    HW1 6017   8.374   5.896   1.303 -0.7895 -0.4929  0.0020
33053SOL    HW2 6018   8.389   5.795   1.415 -2.1808 -0.5475  0.1665
33054SOL     OW 6019   9.656   8.848   7.951 -0.1784 -0.4935 -0.2531
33054SOL    HW1 6020   9.580   8.790   7.956  0.2207 -0.9123  2.0267
33054SOL    HW2 6021   9.707   8.827   8.029  0.6256  2.0373 -0.0197
33055SOL     OW 6022   4.922  12.020   9.299  0.2354 -0.0649  0.2013
33055SOL    HW1 6023   4.991  11.987   9.242  0.0961 -0.9379  0.5155
33055SOL    HW2 6024   4.935  12.115   9.300 -0.6598  0.1515 -2.4284
33056SOL     OW 6025   4.652   5.389  10.472  0.0832  0.3798 -0.1809
33056SOL    HW1 6026   4.648   5.294  10.465  0.3370  0.3906 -0.5331
33056SOL    HW2 6027   4.621   5.420  10.386 -0.0869  0.6174 -0.0362
33057SOL     OW 6028   3.744   8.784   7.915 -0.4739 -0.1320 -0.7196
33057SOL    HW1 6029   3.832   8.760   7.942 -1.5653  0.4605  4.2124
33057SOL    HW2 6030   3.755   8.863   7.863  1.8942  0.3623  0.3974
33058SOL     OW 6031   4.409   6.672   0.121 -0.0089  0.0922 -0.2105
33058SOL    HW1 6032   4.483   6.691   0.178 -0.2059 -1.5864  0.6544
33058SOL    HW2 6033   4.441   6.693   0.033  1.6651 -0.9582  0.0925
33059SOL     OW 6034  11.791   2.356   3.244 -0.1076 -0.3741 -0.0466
33059SOL    HW1 6035  11.879   2.365   3.208 -0.4698  0.0866 -0.8521
33059SOL    HW2 6036  11.745   2.435   3.214 -0.1811  0.4840  2.1910
33060SOL     OW 6037   8.037   8.042   3.851 -0.5894 -0.1856  0.6464
33060SOL    HW1 6038   8.097   8.022   3.923  0.8274 -2.3571 -0.9871
33060SOL    HW2 6039   8.041   8.137   3.841  0.2023  0.0157  2.5402
33061SOL     OW 6040   2.763   8.488   1.363  0.2298 -0.0306 -0.1716
33061SOL    HW1 6041   2.783   8.561   1.422 -1.3873  1.0614 -0.8872
33061SOL    HW2 6042   2.698   8.524   1.302  0.0891 -1.8116 -1.1415
33062SOL     OW 6043   5.164   3.093  10.583  0.2450 -0.2521 -0.2625
33062SOL    HW1 6044   5.151   3.087  10.489  1.0769  1.7155 -0.5485
33062SOL    HW2 6045   5.253   3.127  10.593 -0.3219  0.9102  1.1761
33063SOL     OW 6046   4.945   5.133   7.548  0.1547  0.7551 -0.2803
33063SOL    HW1 6047   4.907   5.104   7.630  0.0733 -0.8239 -0.8369
33063SOL    HW2 6048   4.873   5.177   7.502 -1.0438 -1.9277 -1.1940
33064SOL     OW 6049   3.310   2.863   9.870 -0.0273 -0.1308 -0.3075
33064SOL    HW1 6050   3.350   2.937   9.825 -0.6095  0.2701 -0.1756
33064SOL    HW2 6051   3.228   2.848   9.824 -0.4265  0.0055  0.3493
33065SOL     OW 6052   2.397   4.165   6.674 -0.1818 -0.0499 -0.5833
33065SOL    HW1 6053   2.479   4.192   6.632  0.7480 -0.1064  1.1212
33065SOL    HW2 6054   2.367   4.090   6.622 -0.0698  0.9917 -2.2352
33066SOL     OW 6055   2.922   8.038   0.720 -0.2040 -0.0002 -0.2667
33066SOL    HW1 6056   2.853   8.041   0.654  0.7102  1.6247 -1.2068
33066SOL    HW2 6057   2.884   8.080   0.797 -1.2102 -1.7328  0.2394
33067SOL     OW 6058   4.832   1.398   2.466 -0.8348 -0.4623  0.7669
33067SOL    HW1 6059   4.776   1.416   2.542  0.8067 -1.1670  2.2212
33067SOL    HW2 6060   4.898   1.467   2.469 -1.1813 -0.0656 -0.4838
33068SOL     OW 6061  12.450  12.283   1.206  0.1353 -0.2629  1.0958
33068SOL    HW1 6062  12.503  12.280   1.127  0.4305  0.8923  1.2338
33068SOL    HW2 6063  12.396  12.362   1.196  0.8606  0.4431  2.4455
33069SOL     OW 6064  10.337   3.920   9.460  0.3020 -0.1878 -0.2646
33069SOL    HW1 6065  10.298   3.832   9.461  0.2899 -0.2353 -1.8861
33069SOL    HW2 6066  10.263   3.979   9.451  0.3015  0.0186  0.9361
33070SOL     OW 6067   7.639  10.684  10.719  0.4611  0.1396 -0.0396
33070SOL    HW1 6068   7.607  10.707  10.806  1.3635  0.7020  0.1546
33070SOL    HW2 6069   7.668  10.767  10.681  1.9380 -0.3569 -0.0884
33071SOL     OW 6070   2.482   3.346   0.751 -0.5475 -0.4844 -0.4570
33071SOL    HW1 6071   2.480   3.360   0.656 -0.7851 -0.0761 -0.3965
33071SOL    HW2 6072   2.400   3.385   0.782 -1.4796 -2.4540 -0.3276
33072SOL     OW 6073   1.259   4.624   8.498 -0.4855 -0.4666 -0.4078
33072SOL    HW1 6074   1.199   4.597   8.568  0.9246  0.4499  1.2324
33072SOL    HW2 6075   1.202   4.658   8.429 -1.9045 -0.7193  0.5921
33073SOL     OW 6076   1.977  10.000  11.812  0.4955  0.0935  0.2478
33073SOL    HW1 6077   1.897  10.006  11.760  0.6185 -0.7353 -0.0621
33073SOL    HW2 6078   2.015   9.916  11.787 -0.3320 -1.1922  3.0021
33074SOL     OW 6079   3.377   5.668   2.909 -0.5481 -0.1086 -0.0546
33074SOL    HW1 6080   3.461   5.688   2.951  0.0844 -0.0080 -1.3310
33074SOL    HW2 6081   3.312   5.711   2.964  0.1868 -0.5444  1.2034
33075SOL     OW 6082   4.262   6.490   6.624  0.1989 -0.4361  0.3467
33075SOL    HW1 6083   4.303   6.562   6.577  0.9256 -0.1294  1.4200
33075SOL    HW2 6084   4.334   6.439   6.660 -0.3194 -0.3371  1.6019
33076SOL     OW 6085   9.562   9.734  11.025 -0.3452  0.3415 -0.3623
33076SOL    HW1 6086   9.591   9.714  11.114  1.4556  0.4181 -0.8863
33076SOL    HW2 6087   9.639   9.771  10.982 -0.6269 -1.2490 -2.4475
33077SOL     OW 6088  10.655   7.736   6.710 -0.8206  0.0261 -0.1715
33077SOL    HW1 6089  10.585   7.726   6.646 -1.6567  0.8588  0.5790
33077SOL    HW2 6090  10.645   7.660   6.768 -1.2997  0.2970  0.1063
33078SOL     OW 6091  10.855  10.227  10.154 -0.3244  0.1233  0.1931
33078SOL    HW1 6092  10.884  10.286  10.223  1.5003  1.3449 -1.4920
33078SOL    HW2 6093  10.802  10.162  10.199 -0.0564  1.4173  2.5678
33079SOL     OW 6094   6.254   4.227  10.285 -0.2654 -0.0493 -0.7199
33079SOL    HW1 6095   6.260   4.314  10.325 -1.7385 -0.5683  0.7163
33079SOL    HW2 6096   6.165   4.223  10.249  0.6748  0.0225 -3.2976
33080SOL     OW 6097   6.142   9.579   1.873  0.2081 -0.3871  0.6188
33080SOL    HW1 6098   6.114   9.551   1.786 -1.9741  1.3552  0.6611
33080SOL    HW2 6099   6.237   9.590   1.865  0.0841 -0.3634 -1.4991
33081SOL     OW 6100  11.700   2.105   6.279  0.3018  0.3605  0.3194
33081SOL    HW1 6101  11.788   2.070   6.295  0.4830  0.6587 -0.0057
33081SOL    HW2 6102  11.711   2.165   6.205 -0.7287 -1.9573 -1.8891
33082SOL     OW 6103   8.941   9.923   4.167  0.1691 -0.1135 -0.0295
33082SOL    HW1 6104   9.034   9.942   4.173  0.1089  1.1555 -2.1771
33082SOL    HW2 6105   8.924   9.915   4.073 -1.9233 -0.1212  0.3015
33083SOL     OW 6106   9.372   8.722   0.221  0.3543  0.1994  0.3656
33083SOL    HW1 6107   9.455   8.706   0.266 -0.8345 -0.9158  2.2811
33083SOL    HW2 6108   9.309   8.737   0.291 -1.0693  1.1839 -1.0524
33084SOL     OW 6109   4.763   7.068   4.916  0.2930 -0.4796 -0.1163
33084SOL    HW1 6110   4.847   7.049   4.958 -1.1915 -2.2414  2.2561
33084SOL    HW2 6111   4.709   7.106   4.985 -1.3765 -0.8494 -1.1642
33085SOL     OW 6112   4.314   8.394  12.054 -0.3060  0.0016  0.4633
33085SOL    HW1 6113   4.251   8.365  12.120 -0.3171 -1.6438 -0.2309
33085SOL    HW2 6114   4.400   8.383  12.095 -0.1996 -2.6588 -0.3076
33086SOL     OW 6115   9.854   8.578   5.225  0.5405 -0.3383  0.4481
33086SOL    HW1 6116   9.888   8.600   5.138  0.9904 -1.3607  0.3429
33086SOL    HW2 6117   9.852   8.661   5.272  1.9577 -0.0252  0.0157
33087SOL     OW 6118   7.134  11.974   8.964  0.4844  0.7089 -0.4367
33087SOL    HW1 6119   7.080  11.895   8.957 -0.5440  1.2804  0.6616
33087SOL    HW2 6120   7.189  11.972   8.886 -0.3591 -0.4737 -1.0386
33088SOL     OW 6121   6.842   0.795   2.908  0.1337 -0.3487  0.3988
33088SOL    HW1 6122   6.754   0.827   2.889 -0.0964 -1.1547  0.0685
33088SOL    HW2 6123   6.847   0.793   3.003  0.6292  1.9152  0.4753
33089SOL     OW 6124   0.354   6.366  10.459  0.1754 -0.6584  0.0700
33089SOL    HW1 6125   0.413   6.438  10.483 -2.0761  1.0383  0.9314
33089SOL    HW2 6126   0.338   6.379  10.365 -0.3874  0.1414  0.2641
33090SOL     OW 6127   7.977   5.437   1.983 -0.2047  0.5209 -0.1085
33090SOL    HW1 6128   7.971   5.344   2.006  0.0713  0.5314  0.0184
33090SOL    HW2 6129   8.063   5.464   2.017 -0.7575  1.1051  0.8621
33091SOL     OW 6130   1.606   1.872  11.669 -0.3778 -0.1255  0.3684
33091SOL    HW1 6131   1.701   1.884  11.667 -0.3708 -0.2262  0.0155
33091SOL    HW2 6132   1.591   1.793  11.617 -0.8436  1.1972 -1.6137
33092SOL     OW 6133   0.905   0.331   3.613  0.3060 -0.2875  0.8018
33092SOL    HW1 6134   0.926   0.339   3.520  0.5425  1.4730  0.9763
33092SOL    HW2 6135   0.905   0.237   3.629 -0.0966 -0.6520 -1.0523
33093SOL     OW 6136   0.887   6.944   8.424 -0.2571 -0.3322  0.2123
33093SOL    HW1 6137   0.900   7.039   8.428  1.4182 -0.4685 -0.8970
33093SOL    HW2 6138   0.940   6.909   8.496  1.2258 -0.5467 -0.9343
33094SOL     OW 6139   9.188   0.130   1.616  0.0600 -0.4111  0.2047
33094SOL    HW1 6140   9.213   0.164   1.530 -0.0304  1.3815  0.8541
33094SOL    HW2 6141   9.099   0.162   1.630  0.7073  0.8368  1.6923
33095SOL     OW 6142  10.234   3.880   6.989  0.5723 -0.6225  0.7478
33095SOL    HW1 6143  10.230   3.825   7.067 -1.4065  0.3189  1.3646
33095SOL    HW2 6144  10.171   3.840   6.928  1.3207 -0.7362  0.0312
33096SOL     OW 6145   2.640   2.440   7.178 -0.3309 -0.3066  0.3182
33096SOL    HW1 6146   2.712   2.389   7.141 -0.0067  0.4064 -0.0604
33096SOL    HW2 6147   2.646   2.524   7.134 -0.8176  0.0839  0.9846
33097SOL     OW 6148   3.554   1.553   5.633 -0.0207  0.7396  0.1701
33097SOL    HW1 6149   3.637   1.520   5.667 -0.4545 -0.5943 -0.0346
33097SOL    HW2 6150   3.487   1.505   5.681 -0.6638  0.8203 -0.6208
33098SOL     OW 6151   5.989   0.739   7.656 -0.0944  0.5758 -0.1174
33098SOL    HW1 6152   5.995   0.695   7.571 -1.9840  0.7413 -0.3878
33098SOL    HW2 6153   6.025   0.677   7.718  0.4528  0.0726 -0.9196
33099SOL     OW 6154   4.945   8.786   8.576 -0.0075 -0.2863 -0.1109
33099SOL    HW1 6155   4.896   8.811   8.498  1.1665  0.0871 -0.7450
33099SOL    HW2 6156   4.898   8.827   8.648 -0.8212 -0.2318 -0.6641
33100SOL     OW 6157   9.503   5.652   9.599 -0.9253 -0.1070 -0.0539
33100SOL    HW1 6158   9.518   5.558   9.594 -1.7980 -0.2916  0.5752
33100SOL    HW2 6159   9.588   5.691   9.578  0.4042 -1.0594  2.9491
33101SOL     OW 6160   7.594   0.800   2.548 -0.0249  0.1626 -0.0712
33101SOL    HW1 6161   7.560   0.882   2.513 -1.9231 -0.5224  0.0416
33101SOL    HW2 6162   7.685   0.819   2.569 -0.5575  2.4233  0.5198
33102SOL     OW 6163   8.763   3.814  10.075  0.2858 -0.1912  0.0279
33102SOL    HW1 6164   8.819   3.739  10.096  0.8250  0.1505 -0.1533
33102SOL    HW2 6165   8.746   3.855  10.160  1.1492  0.2770 -0.0096
33103SOL     OW 6166  11.294  10.753  10.979 -0.1550  0.3843  0.3697
33103SOL    HW1 6167  11.255  10.755  10.892  0.2413 -1.3062  0.1012
33103SOL    HW2 6168  11.270  10.667  11.014 -0.3132  1.0319  1.9457
33104SOL     OW 6169   7.485   6.041   9.343  0.3979  0.2810  0.0188
33104SOL    HW1 6170   7.466   6.109   9.278  0.8690  0.4526  0.0552
33104SOL    HW2 6171   7.539   5.977   9.295  1.8519  1.0494  0.5645
33105SOL     OW 6172   3.069   9.565   9.895  0.7764 -0.3513  0.0285
33105SOL    HW1 6173   3.066   9.490   9.835 -2.6954 -1.1870  1.0245
33105SOL    HW2 6174   3.060   9.526   9.982 -1.9063  1.1806  0.5362
33106SOL     OW 6175   2.588   4.333   3.790 -0.1459 -0.7859  0.6792
33106SOL    HW1 6176   2.675   4.296   3.808  0.0956  0.1108  1.4235
33106SOL    HW2 6177   2.549   4.348   3.876  0.5575  2.4668  0.5732
33107SOL     OW 6178   2.380   0.145   8.228  0.3984  0.3979 -0.3004
33107SOL    HW1 6179   2.456   0.087   8.218  0.9900  1.2851 -0.9937
33107SOL    HW2 6180   2.322   0.121   8.156  0.8535  0.9868 -0.8645
33108SOL     OW 6181  11.772   6.886   1.531 -0.5546  0.3173 -0.2101
33108SOL    HW1 6182  11.861   6.883   1.495 -0.0003 -1.9334  1.1305
33108SOL    HW2 6183  11.785   6.899   1.625 -1.7499  1.3914 -0.1636
33109SOL     OW 6184  12.488   1.541  10.735 -0.8318 -0.0069  0.1101
33109SOL    HW1 6185  12.516   1.593  10.659  0.6029  0.2265  0.7782
33109SOL    HW2 6186  12.547   1.466  10.736 -1.6297 -0.6447  0.3137
33110SOL     OW 6187  12.182   3.736   5.803  0.0977 -0.4566  0.2388
33110SOL    HW1 6188  12.143   3.653   5.774  1.3934 -1.4447  1.1460
33110SOL    HW2 6189  12.273   3.712   5.825  0.3441  1.1053  1.0244
33111SOL     OW 6190   2.552   7.816   8.882 -0.1155 -0.1990  0.7820
33111SOL    HW1 6191   2.507   7.733   8.896  1.5320 -0.9054  2.3318
33111SOL    HW2 6192   2.521   7.873   8.952  0.1571 -0.1343  0.8520
33112SOL     OW 6193   1.034   2.563   2.948 -0.0211 -0.4879 -0.2124
33112SOL    HW1 6194   1.112   2.559   2.892  0.5407  0.6477  0.4585
33112SOL    HW2 6195   1.066   2.597   3.032 -0.6999 -2.9123  1.1092
33113SOL     OW 6196   8.099   8.524   9.630  0.2677 -0.4938  0.8287
33113SOL    HW1 6197   8.140   8.464   9.568  0.4196 -1.1016  1.4983
33113SOL    HW2 6198   8.013   8.487   9.646 -0.0929  0.1172  0.3575
33114SOL     OW 6199   8.187   1.944   8.108  0.2802 -0.7286 -0.2447
33114SOL    HW1 6200   8.223   1.887   8.175  0.1097  1.8758  2.2335
33114SOL    HW2 6201   8.106   1.977   8.145  0.5228  1.3383 -1.3963
33115SOL     OW 6202  11.592  12.343   7.074 -0.0715  0.4476 -0.3540
33115SOL    HW1 6203  11.522  12.294   7.031 -1.0990  1.4829  0.0803
33115SOL    HW2 6204  11.600  12.424   7.023  0.5005  0.5426 -0.1286
33116SOL     OW 6205  11.377   5.841   6.519  0.5473  0.0187  0.4133
33116SOL    HW1 6206  11.399   5.906   6.453 -0.1206 -1.1947 -1.0472
33116SOL    HW2 6207  11.283   5.853   6.534  0.2794 -1.0452 -0.3676
33117SOL     OW 6208   9.327   0.026   0.638 -0.2956  0.1068  0.1010
33117SOL    HW1 6209   9.419   0.014   0.663 -0.2875 -1.5709 -0.6265
33117SOL    HW2 6210   9.300  -0.059   0.604 -1.8798  0.8191 -0.5168
33118SOL     OW 6211   9.552   4.212  10.825 -0.4665  0.2366 -0.0105
33118SOL    HW1 6212   9.489   4.235  10.757  0.0083 -0.4525 -0.6994
33118SOL    HW2 6213   9.509   4.236  10.907 -0.8320  1.5714 -0.5685
33119SOL     OW 6214   0.467   0.517   2.545  0.1142  0.3076 -0.1058
33119SOL    HW1 6215   0.433   0.586   2.602  1.6773  0.6304  0.4739
33119SOL    HW2 6216   0.476   0.441   2.603 -1.3613 -0.3444 -0.6828
33120SOL     OW 6217   2.001   8.975   2.756  0.4080  0.0295 -0.4611
33120SOL    HW1 6218   2.013   8.942   2.846 -0.2024  1.5808  0.2136
33120SOL    HW2 6219   2.089   8.971   2.718  0.5610 -1.2843 -0.0443
33121SOL     OW 6220   7.113   8.932   2.552  0.1086 -0.0648 -0.1109
33121SOL    HW1 6221   7.051   8.979   2.608  1.2012 -1.3174  2.2887
33121SOL    HW2 6222   7.176   9.000   2.525 -0.2258  0.4958  0.4823
33122SOL     OW 6223   4.472   9.348  10.345 -0.1364 -0.2996  0.5510
33122SOL    HW1 6224   4.522   9.291  10.404 -0.3079  0.5790  1.5866
33122SOL    HW2 6225   4.500   9.323  10.257  0.7183 -1.1058  1.0358
33123SOL     OW 6226   6.823   9.422  12.438  0.0627 -0.1729 -0.1271
33123SOL    HW1 6227   6.770   9.346  12.460 -1.2360  0.9726  0.8613
33123SOL    HW2 6228   6.760   9.490  12.415  0.9324  1.7092  2.5751
33124SOL     OW 6229   4.317   7.646   9.634  0.1188 -0.1134  0.4495
33124SOL    HW1 6230   4.401   7.658   9.677  0.0812 -0.3467  0.5887
33124SOL    HW2 6231   4.252   7.677   9.698  0.1461  0.9486 -0.0074
33125SOL     OW 6232   8.091   1.061   6.409  0.2678  0.1087 -0.0263
33125SOL    HW1 6233   8.179   1.038   6.438  0.6806 -2.5757 -2.8984
33125SOL    HW2 6234   8.038   0.984   6.430 -0.9907  0.9420 -0.0350
33126SOL     OW 6235  12.119   2.930   7.522 -0.0883 -0.8674 -0.2559
33126SOL    HW1 6236  12.206   2.968   7.533 -0.4088  0.4919 -2.0059
33126SOL    HW2 6237  12.062   3.005   7.503 -1.6007 -1.7612  0.5394
33127SOL     OW 6238   5.788   4.842   4.879 -0.4770  0.4082 -0.3244
33127SOL    HW1 6239   5.780   4.937   4.868 -0.7452  0.3051 -1.1355
33127SOL    HW2 6240   5.703   4.815   4.915 -0.2773  0.5159  0.2327
33128SOL     OW 6241   8.599   8.025   1.780  0.2789 -0.4716 -0.4907
33128SOL    HW1 6242   8.669   8.039   1.717 -0.2967 -0.1697 -1.0797
33128SOL    HW2 6243   8.643   8.024   1.865  0.9159  0.3680 -0.7921
33129SOL     OW 6244   8.799   8.243   1.293  0.0203 -0.1660  0.0455
33129SOL    HW1 6245   8.711   8.231   1.330 -0.1255 -0.2446 -0.3212
33129SOL    HW2 6246   8.804   8.336   1.272  0.3906  0.0253  0.9802
33130SOL     OW 6247   8.866   9.803   3.668 -0.4016 -0.1004 -0.2161
33130SOL    HW1 6248   8.831   9.718   3.641  0.0465 -0.6352  0.8514
33130SOL    HW2 6249   8.811   9.867   3.622 -3.2859 -0.8785  1.8891
33131SOL     OW 6250   5.514   6.344   5.150 -0.3841  0.6041 -0.4946
33131SOL    HW1 6251   5.524   6.278   5.218 -0.1938  0.5798 -0.5476
33131SOL    HW2 6252   5.469   6.417   5.194 -0.5039  0.4819 -0.4121
33132SOL     OW 6253   4.346   0.298   4.696  0.0112  0.5712  0.4248
33132SOL    HW1 6254   4.269   0.243   4.681 -0.7563  1.7154 -0.0739
33132SOL    HW2 6255   4.328   0.342   4.779  0.6942 -0.0529  0.9073
33133SOL     OW 6256   2.306   1.563  12.541 -0.2065 -0.0992  0.3887
33133SOL    HW1 6257   2.285   1.646  12.500  0.0087  0.2963  1.0702
33133SOL    HW2 6258   2.222   1.527  12.569 -0.2735  0.0211  0.3399
33134SOL     OW 6259   2.462  11.597   7.445  0.0544 -0.3031 -0.2694
33134SOL    HW1 6260   2.468  11.577   7.538 -0.3880  0.0873 -0.1518
33134SOL    HW2 6261   2.406  11.674   7.440 -0.5931 -0.7944 -0.9154
33135SOL     OW 6262   2.154   2.287   2.818 -0.1501  0.2935 -0.1515
33135SOL    HW1 6263   2.159   2.325   2.905 -0.2074 -2.4890  1.1846
33135SOL    HW2 6264   2.245   2.287   2.786  0.0294  0.4018  0.3506
33136SOL     OW 6265   9.302  11.244   3.706 -0.2963 -0.7202  0.2382
33136SOL    HW1 6266   9.268  11.297   3.779 -0.7224 -1.0488  0.2815
33136SOL    HW2 6267   9.245  11.167   3.704 -1.5888  0.1979 -1.7260
33137SOL     OW 6268  12.525   0.080   0.272  0.0387 -0.3726  0.1151
33137SOL    HW1 6269  12.535   0.111   0.363 -0.6829 -0.4222  0.2127
33137SOL    HW2 6270  12.498  -0.011   0.281  0.5971 -0.5696 -0.1612
33138SOL     OW 6271   0.983   8.900   1.640 -0.0598 -0.2598  0.0647
33138SOL    HW1 6272   0.976   8.839   1.714 -0.5658  0.3558  0.5284
33138SOL    HW2 6273   1.015   8.981   1.679  0.0547 -0.0468 -0.4649
33139SOL     OW 6274  10.426  10.039  10.932  0.0783 -0.6202 -0.8115
33139SOL    HW1 6275  10.457  10.029  10.841  1.3472  1.1174 -0.6328
33139SOL    HW2 6276  10.505  10.031  10.985 -0.2873  0.5715 -0.0443
33140SOL     OW 6277  12.002   3.729  11.767  0.6264  0.5005 -0.0994
33140SOL    HW1 6278  12.055   3.739  11.847 -0.4855  0.2060  0.7018
33140SOL    HW2 6279  12.000   3.634  11.753 -2.8946  0.0542  2.2030
33141SOL     OW 6280   9.982   8.749  11.846 -0.1343 -0.2241  0.3530
33141SOL    HW1 6281   9.924   8.822  11.870 -0.3815 -0.0756 -0.6555
33141SOL    HW2 6282  10.023   8.723  11.929 -1.4675 -0.1871  1.0596
33142SOL     OW 6283   2.034  11.539   2.830 -0.0887  0.7206  0.4502
33142SOL    HW1 6284   1.981  11.459   2.836  0.1561  0.5837  0.7659
33142SOL    HW2 6285   2.120  11.515   2.864 -0.2483  1.3315  1.3314
33143SOL     OW 6286  11.988  12.463   1.368  0.2548 -0.2054  0.1883
33143SOL    HW1 6287  11.941  12.509   1.437  0.1010 -0.9880  0.6132
33143SOL    HW2 6288  11.920  12.443   1.303  0.5442  1.2986 -0.6404
33144SOL     OW 6289   1.110   4.384   4.881 -0.6889  0.1074  0.0119
33144SOL    HW1 6290   1.038   4.395   4.943 -1.7115 -0.7285 -0.9726
33144SOL    HW2 6291   1.074   4.327   4.813  1.7295 -2.6447  0.8519
33145SOL     OW 6292   3.934   5.726   9.504 -0.0887 -0.5690 -0.3332
33145SOL    HW1 6293   3.882   5.799   9.471  0.0704  0.4323  1.5300
33145SOL    HW2 6294   3.872   5.652   9.505 -1.1582  0.3004  0.6528
33146SOL     OW 6295   3.515   3.602   2.741 -0.0619 -0.5277  0.1124
33146SOL    HW1 6296   3.487   3.691   2.763 -2.2907 -0.7194 -1.6402
33146SOL    HW2 6297   3.603   3.613   2.705 -0.1331  0.9038  0.3193
33147SOL     OW 6298   1.236   6.964   9.265 -0.5552 -0.1029  0.0368
33147SOL    HW1 6299   1.204   7.041   9.217 -0.8789 -1.1083 -1.4580
33147SOL    HW2 6300   1.164   6.900   9.258  0.2620 -1.0409 -0.0114
33148SOL     OW 6301   9.116  11.200   2.387  0.1898  0.1315  0.1955
33148SOL    HW1 6302   9.035  11.250   2.396 -0.2373 -0.2159 -1.3171
33148SOL    HW2 6303   9.175  11.259   2.339  0.8684  0.4062  1.3443
33149SOL     OW 6304   9.461   3.478   7.493  0.4510  0.1539  0.5034
33149SOL    HW1 6305   9.412   3.498   7.414  2.3231 -0.5137 -0.8791
33149SOL    HW2 6306   9.417   3.401   7.530  0.2317 -0.2072 -0.4848
33150SOL     OW 6307  11.659   7.018   0.956  0.4097 -0.2110 -0.0872
33150SOL    HW1 6308  11.726   7.084   0.975 -0.0725  0.1884  0.2643
33150SOL    HW2 6309  11.633   7.034   0.865 -0.3476  0.6866  0.2661
33151SOL     OW 6310   6.622   6.002   9.048  0.2209  0.0736 -0.2991
33151SOL    HW1 6311   6.716   5.988   9.060 -0.0525 -0.2981  1.7979
33151SOL    HW2 6312   6.608   5.993   8.954  2.0820 -1.2054 -0.4994
33152SOL     OW 6313   6.390   1.682  11.359 -0.6884 -0.3261 -0.1737
33152SOL    HW1 6314   6.435   1.682  11.443  1.4436 -0.7469 -1.2400
33152SOL    HW2 6315   6.336   1.760  11.360  0.0613  0.2072  1.2057
33153SOL     OW 6316  12.063   0.827   2.007  0.6247  0.0619 -0.3462
33153SOL    HW1 6317  11.989   0.885   2.023  0.2241 -0.2004 -1.1914
33153SOL    HW2 6318  12.091   0.848   1.918  0.8391 -0.6341 -0.4518
33154SOL     OW 6319   6.393   8.452   1.457 -0.0327  0.3226  0.0969
33154SOL    HW1 6320   6.368   8.455   1.550  1.6367 -1.4135  0.6599
33154SOL    HW2 6321   6.430   8.365   1.445 -0.1327  0.5490 -2.2152
33155SOL     OW 6322   2.628   6.038   4.173 -0.2188  0.7868 -0.1989
33155SOL    HW1 6323   2.699   6.002   4.226 -0.2290  0.7738 -0.1940
33155SOL    HW2 6324   2.672   6.083   4.101 -0.2234 -0.1956 -0.8247
33156SOL     OW 6325   7.412   2.148   5.950  0.2335 -0.7528 -0.1482
33156SOL    HW1 6326   7.397   2.054   5.937 -0.3170 -0.6568 -0.2129
33156SOL    HW2 6327   7.350   2.173   6.018  0.3346 -0.4199 -0.1757
33157SOL     OW 6328   6.659   0.877  12.324  0.2677  0.0606 -0.4320
33157SOL    HW1 6329   6.565   0.887  12.307  0.3343 -0.8106 -1.4844
33157SOL    HW2 6330   6.697   0.862  12.237  1.3395  0.0962  0.0173
33158SOL     OW 6331   1.424   1.870  12.036  0.0530 -0.2439  0.5812
33158SOL    HW1 6332   1.353   1.908  12.088 -0.7002  0.0803 -0.6442
33158SOL    HW2 6333   1.380   1.818  11.970  0.8457  1.1561 -1.1359
33159SOL     OW 6334  11.642   0.156  10.257 -0.3491  0.2156  0.0541
33159SOL    HW1 6335  11.697   0.226  10.222 -1.5301  1.7119  1.0211
33159SOL    HW2 6336  11.700   0.107  10.316  0.1901  1.1958  0.3643
33160SOL     OW 6337  11.200   5.890  12.256 -0.2699  0.8013  0.0445
33160SOL    HW1 6338  11.120   5.848  12.224 -0.9575  2.5037 -0.5692
33160SOL    HW2 6339  11.270   5.829  12.234 -1.3077 -0.3770 -0.0877
33161SOL     OW 6340   8.293   3.664   9.877  0.1154 -0.3819 -0.2565
33161SOL    HW1 6341   8.238   3.607   9.931 -0.8653 -0.2820 -1.1202
33161SOL    HW2 6342   8.280   3.752   9.913  2.3144 -0.7423  1.6456
33162SOL     OW 6343   3.751   7.317   8.449 -0.0035 -0.3148 -0.2662
33162SOL    HW1 6344   3.825   7.287   8.397  0.6502  0.0034  0.4708
33162SOL    HW2 6345   3.739   7.250   8.516  1.5616  1.0524  1.4823
33163SOL     OW 6346   2.801  10.876   0.030  0.2512 -0.6140  0.3910
33163SOL    HW1 6347   2.866  10.810   0.055 -0.8873 -2.1845 -0.5686
33163SOL    HW2 6348   2.842  10.924  -0.043  0.6663 -1.0064  0.3619
33164SOL     OW 6349  10.092   2.452   7.520 -0.0232 -0.0847  0.1742
33164SOL    HW1 6350  10.184   2.452   7.493  0.3899  0.5265  1.5502
33164SOL    HW2 6351  10.074   2.542   7.547 -0.7828 -0.3954  0.7444
33165SOL     OW 6352   3.406   2.411   7.529 -0.1522  0.3289 -0.0045
33165SOL    HW1 6353   3.371   2.448   7.609 -0.7365  0.4368 -0.3085
33165SOL    HW2 6354   3.452   2.483   7.487 -0.6477  0.5138 -0.2279
33166SOL     OW 6355   0.417   9.828  10.042  0.2072  0.2952  0.0394
33166SOL    HW1 6356   0.424   9.893   9.973  0.4148  0.5643  0.3096
33166SOL    HW2 6357   0.351   9.862  10.102 -0.7007 -0.4153 -0.5312
33167SOL     OW 6358   0.815   7.793   0.284 -0.5481 -0.1489 -0.3354
33167SOL    HW1 6359   0.864   7.798   0.366  1.0287  0.9797 -1.2915
33167SOL    HW2 6360   0.726   7.770   0.310  0.0921 -0.5734  1.6114
33168SOL     OW 6361   3.205   1.919   2.362  0.2518 -0.3801  0.1780
33168SOL    HW1 6362   3.208   1.824   2.351  1.2142 -0.5434  1.6299
33168SOL    HW2 6363   3.295   1.948   2.344 -0.2191  0.3845 -1.1059
33169SOL     OW 6364   5.341   5.526   9.555  0.1423 -0.3171 -0.6252
33169SOL    HW1 6365   5.328   5.436   9.587  1.8818 -0.3886 -0.0299
33169SOL    HW2 6366   5.377   5.573   9.631 -2.4676  1.4123 -0.3337
33170SOL     OW 6367  11.194   9.690  11.683 -0.4676 -0.1997 -0.2981
33170SOL    HW1 6368  11.167   9.606  11.646  1.9576  0.0061 -2.9598
33170SOL    HW2 6369  11.146   9.755  11.632 -1.4298  0.1084  0.9433
33171SOL     OW 6370  11.042   5.962  10.762  0.1286  0.0977 -0.3028
33171SOL    HW1 6371  10.951   5.943  10.783  0.4536 -3.2110 -1.2672
33171SOL    HW2 6372  11.052   5.936  10.671  2.1260 -0.0168 -0.1060
33172SOL     OW 6373   3.027  12.547  12.462  0.2784 -0.0046 -0.8145
33172SOL    HW1 6374   2.958  12.546  12.396  0.8299 -0.1477 -1.4070
33172SOL    HW2 6375   3.008  12.624  12.516 -0.0578  0.2458 -1.2817
33173SOL     OW 6376   0.016   6.098  11.739  0.5577 -0.3022  0.3142
33173SOL    HW1 6377   0.052   6.079  11.653  0.8363 -0.8526  0.5479
33173SOL    HW2 6378  -0.078   6.106  11.724  0.7528  1.0368 -0.2785
33174SOL     OW 6379   3.564   6.519   3.885 -0.6955 -0.3255  0.2679
33174SOL    HW1 6380   3.592   6.431   3.858  0.8082  0.5389 -1.1500
33174SOL    HW2 6381   3.638   6.552   3.936 -0.2447  0.9391 -1.1300
33175SOL     OW 6382   1.358   0.241  11.834 -0.3471 -0.3239 -0.4415
33175SOL    HW1 6383   1.438   0.259  11.883 -0.1931 -0.8143 -0.5109
33175SOL    HW2 6384   1.318   0.166  11.879 -0.0125 -1.0203 -1.2862
33176SOL     OW 6385  10.645  12.430   2.639 -0.5991  0.1301  0.0870
33176SOL    HW1 6386  10.559  12.454   2.605 -0.2350  0.3205 -0.7156
33176SOL    HW2 6387  10.643  12.334   2.643 -0.9230  0.1434  0.2795
33177SOL     OW 6388   7.772   1.420   9.007 -0.1414 -0.0372  0.1699
33177SOL    HW1 6389   7.694   1.397   9.059 -0.9362  0.4859 -0.7496
33177SOL    HW2 6390   7.845   1.379   9.054 -0.8335  0.3133  1.6218
33178SOL     OW 6391   0.496   2.610  12.233 -0.7676 -0.3070 -0.4974
33178SOL    HW1 6392   0.409   2.648  12.217 -0.8537 -0.2653  0.0575
33178SOL    HW2 6393   0.488   2.569  12.319 -0.6036 -1.3710 -0.9674
33179SOL     OW 6394  12.310  10.313  12.159  0.4245 -0.5037 -0.4288
33179SOL    HW1 6395  12.312  10.316  12.254  0.7526 -0.6574 -0.4304
33179SOL    HW2 6396  12.246  10.245  12.139  0.7494 -0.8473 -0.3122
33180SOL     OW 6397  12.505   6.705   7.523  0.3702  0.1830 -0.3539
33180SOL    HW1 6398  12.496   6.800   7.524 -0.6268  0.1086 -0.6756
33180SOL    HW2 6399  12.450   6.675   7.595 -0.2615 -0.2045 -0.9895
33181SOL     OW 6400   8.300  11.372  11.043 -0.0215  0.1559  0.4251
33181SOL    HW1 6401   8.243  11.449  11.044  1.9452  1.6965  0.9018
33181SOL    HW2 6402   8.243  11.299  11.069 -1.4312  1.8659  2.4882
33182SOL     OW 6403  11.094   7.243   2.766  0.2282  0.0293  0.1858
33182SOL    HW1 6404  11.163   7.286   2.717 -0.5050  1.5167  0.4110
33182SOL    HW2 6405  11.014   7.263   2.717 -0.5671  1.7798  2.0538
33183SOL     OW 6406   6.388  11.153   4.111 -0.6335  0.1235 -0.0685
33183SOL    HW1 6407   6.429  11.163   4.197  0.6137  0.7347 -0.7066
33183SOL    HW2 6408   6.413  11.232   4.064 -0.9219 -0.4162 -1.1459
33184SOL     OW 6409   3.815  12.347   1.350 -0.0786 -0.4327 -0.1301
33184SOL    HW1 6410   3.774  12.422   1.306  3.5888  1.1616 -1.2503
33184SOL    HW2 6411   3.758  12.330   1.425 -0.8973  3.9383  0.5480
33185SOL     OW 6412   3.997  10.588   6.662  0.5483  0.0335 -0.3383
33185SOL    HW1 6413   3.947  10.660   6.703  0.1397 -0.5073  0.1328
33185SOL    HW2 6414   3.932  10.540   6.610  0.3514 -1.1984  0.9781
33186SOL     OW 6415   6.446   1.261   5.024  0.2214 -0.1482  0.3007
33186SOL    HW1 6416   6.383   1.271   4.953 -0.2353 -2.0430  0.3998
33186SOL    HW2 6417   6.528   1.293   4.988 -0.3216  0.2689 -0.5834
33187SOL     OW 6418  10.989   0.924  12.491 -0.1270  0.2270  0.1232
33187SOL    HW1 6419  10.900   0.953  12.470 -0.2628 -0.4276 -0.2439
33187SOL    HW2 6420  11.008   0.856  12.426 -0.8112 -2.3464  2.4000
33188SOL     OW 6421   1.409   4.034   4.759  0.2250  0.5920  0.3749
33188SOL    HW1 6422   1.490   3.992   4.729  0.5356  0.1755  1.7171
33188SOL    HW2 6423   1.345   3.963   4.762 -0.5236  1.1019 -1.6582
33189SOL     OW 6424   9.452   4.089  11.618  0.1415  0.4744  0.5364
33189SOL    HW1 6425   9.445   4.110  11.711 -0.7430  2.0737  0.1603
33189SOL    HW2 6426   9.367   4.114  11.582  0.5794  0.1932 -0.7478
33190SOL     OW 6427   8.501   7.564   6.489 -0.3761 -0.4108 -0.3331
33190SOL    HW1 6428   8.572   7.588   6.429  0.3325 -1.5952  0.0077
33190SOL    HW2 6429   8.497   7.636   6.552 -1.2602  0.9526 -1.8719
33191SOL     OW 6430   1.028   3.951   3.885 -0.2897  0.1056 -0.0505
33191SOL    HW1 6431   1.026   4.038   3.846 -0.7925  0.0638 -0.1205
33191SOL    HW2 6432   1.023   3.891   3.811 -0.4549  0.0216  0.0284
33192SOL     OW 6433   8.638  12.284   1.797  0.3938 -0.0387 -0.4125
33192SOL    HW1 6434   8.563  12.225   1.787  0.7718 -0.7170  0.6529
33192SOL    HW2 6435   8.600  12.366   1.828 -0.0613  0.0841 -1.2712
33193SOL     OW 6436   0.521   4.278   6.929 -0.1425 -0.0073  0.2318
33193SOL    HW1 6437   0.494   4.218   6.999  1.1459  0.2860  1.0265
33193SOL    HW2 6438   0.502   4.231   6.848 -0.9677 -0.6730  0.7991
33194SOL     OW 6439   6.978  10.834   7.343  0.5939 -0.1041  0.2754
33194SOL    HW1 6440   7.014  10.763   7.396  1.3763 -1.2132 -1.6365
33194SOL    HW2 6441   6.977  10.800   7.254  0.1246  1.9794 -0.5887
33195SOL     OW 6442   4.637   4.690  11.697 -0.4646 -0.0019  0.4531
33195SOL    HW1 6443   4.617   4.692  11.603  0.6459 -0.8051  0.1760
33195SOL    HW2 6444   4.572   4.630  11.733 -2.2239  1.8732  0.5834
33196SOL     OW 6445   0.703   2.583   6.422 -0.9289 -0.5287  0.2581
33196SOL    HW1 6446   0.723   2.672   6.450 -0.6741 -0.5537  0.1548
33196SOL    HW2 6447   0.630   2.556   6.478 -1.5679  0.0492 -0.2702
33197SOL     OW 6448   2.149  11.101   9.428  0.8250  0.1600 -0.0419
33197SOL    HW1 6449   2.214  11.044   9.387  0.4407  0.8060 -1.6440
33197SOL    HW2 6450   2.199  11.177   9.457  1.1464 -0.4285  0.9992
33198SOL     OW 6451   6.357   9.901   2.614 -0.0239 -0.4675  0.2815
33198SOL    HW1 6452   6.294   9.970   2.592 -1.7665 -1.5017  1.7019
33198SOL    HW2 6453   6.442   9.944   2.614 -1.0196  1.6205  0.8587
33199SOL     OW 6454   7.185   9.473   8.176  0.3171 -0.4687 -0.1046
33199SOL    HW1 6455   7.191   9.404   8.242  0.5808  0.8382  1.2612
33199SOL    HW2 6456   7.158   9.551   8.224  1.7617  0.8416 -1.3024
33200SOL     OW 6457  12.408  12.399  11.479 -0.2148 -0.1360 -0.1453
33200SOL    HW1 6458  12.386  12.357  11.562  0.0070  0.1152  0.0435
33200SOL    HW2 6459  12.501  12.420  11.486  0.0366 -0.9425 -0.8304
33201SOL     OW 6460   6.657   6.820   3.477 -0.9893 -0.2238  0.0478
33201SOL    HW1 6461   6.652   6.902   3.526  0.4484 -1.1076  1.8048
33201SOL    HW2 6462   6.743   6.821   3.436 -1.5183 -0.2585 -1.0970
33202SOL     OW 6463   6.490   2.659  10.270  0.1172 -0.2160  0.4044
33202SOL    HW1 6464   6.533   2.602  10.206  0.7066 -1.1422  1.5740
33202SOL    HW2 6465   6.548   2.735  10.276  0.9914 -0.9224  1.1036
33203SOL     OW 6466   4.218  10.469   6.771  0.5058 -0.2297  0.3146
33203SOL    HW1 6467   4.236  10.411   6.698  0.2763  0.6480 -0.4507
33203SOL    HW2 6468   4.135  10.511   6.749 -0.5106 -1.2894  1.9336
33204SOL     OW 6469  10.950   6.409   7.242 -0.0382 -0.5031  0.1309
33204SOL    HW1 6470  10.860   6.422   7.272 -0.8795 -2.4547 -1.3239
33204SOL    HW2 6471  10.986   6.497   7.235 -1.3890  0.2533  1.9963
33205SOL     OW 6472   4.083  10.760  10.008 -0.0705  0.1622  0.0539
33205SOL    HW1 6473   4.128  10.684   9.971  1.8309  2.0143 -1.6726
33205SOL    HW2 6474   4.051  10.809   9.932 -3.8977 -0.2436  1.1484
33206SOL     OW 6475   6.016   2.588   2.477 -0.1922  0.4866  0.3006
33206SOL    HW1 6476   6.037   2.583   2.570  1.7624  0.7150 -0.1032
33206SOL    HW2 6477   5.956   2.663   2.470  1.9467  2.3775  1.0314
33207SOL     OW 6478   8.351   4.497  10.519  0.7289  0.0772  0.0537
33207SOL    HW1 6479   8.279   4.531  10.466  0.0759  0.8178  1.3700
33207SOL    HW2 6480   8.359   4.405  10.492 -1.5310 -0.3776  0.7320
33208SOL     OW 6481  11.362   2.865   5.612  0.2184 -0.4036 -0.3224
33208SOL    HW1 6482  11.401   2.778   5.617  1.2884  0.1017  0.3496
33208SOL    HW2 6483  11.307   2.862   5.533 -0.3086 -1.8917  0.0621
33209SOL     OW 6484   2.269   2.177   6.269  0.9823  0.2766  0.5866
33209SOL    HW1 6485   2.218   2.236   6.326  0.7419  0.5950  0.0494
33209SOL    HW2 6486   2.205   2.146   6.205  1.5820  1.1390 -0.4536
33210SOL     OW 6487   9.370   6.550   5.168  0.1609 -0.0162 -0.1656
33210SOL    HW1 6488   9.362   6.457   5.190  0.1256  0.0620  0.1575
33210SOL    HW2 6489   9.446   6.555   5.110  0.9856 -0.0744  0.8828
33211SOL     OW 6490   8.415   2.283   1.931  0.0747  0.2318 -0.1791
33211SOL    HW1 6491   8.366   2.276   2.013 -1.4114 -0.7106 -1.0982
33211SOL    HW2 6492   8.494   2.231   1.946 -1.3203 -2.0437 -0.0775
33212SOL     OW 6493   8.184   3.378   2.916  0.3028  0.4068  0.2288
33212SOL    HW1 6494   8.216   3.301   2.869  1.7056  1.9299 -1.4533
33212SOL    HW2 6495   8.256   3.403   2.974 -0.4106  0.1095  1.2846
33213SOL     OW 6496   8.346   0.651   3.641 -0.1973  0.0308  0.4033
33213SOL    HW1 6497   8.268   0.596   3.646  0.6647 -1.1167  2.1034
33213SOL    HW2 6498   8.326   0.715   3.573 -1.7306 -1.5960 -0.7432
33214SOL     OW 6499  12.028   2.050   6.228 -0.3475  0.6819 -0.1522
33214SOL    HW1 6500  12.116   2.043   6.264 -0.0573  0.3045 -0.9187
33214SOL    HW2 6501  12.012   1.965   6.186 -1.2419  0.5896  0.3388
33215SOL     OW 6502   4.576  10.972  11.274  0.8109  0.1564 -0.0635
33215SOL    HW1 6503   4.512  11.044  11.280  0.8810  0.1505  0.8046
33215SOL    HW2 6504   4.529  10.903  11.227 -0.4335 -0.4886  2.0042
33216SOL     OW 6505  11.844   9.460   3.844  0.2049  0.0689 -0.4320
33216SOL    HW1 6506  11.911   9.434   3.782  0.2762 -0.3327 -0.1847
33216SOL    HW2 6507  11.847   9.394   3.913  0.4387  0.7628  0.2344
33217SOL     OW 6508  12.499  11.642   9.405 -0.2147  0.4447 -0.3688
33217SOL    HW1 6509  12.419  11.591   9.403 -0.1180  0.3109 -1.4739
33217SOL    HW2 6510  12.484  11.708   9.473 -1.4921  0.7815 -0.9389
33218SOL     OW 6511   6.792   4.656  10.960  0.2517  0.1840  0.3375
33218SOL    HW1 6512   6.756   4.715  11.026 -0.1919  0.9196 -0.5403
33218SOL    HW2 6513   6.800   4.572  11.005  2.7699  1.2898  2.2463
33219SOL     OW 6514   5.798   1.802   3.259  0.5798  0.1894  0.2624
33219SOL    HW1 6515   5.813   1.733   3.324  1.9509  0.4155  0.2025
33219SOL    HW2 6516   5.770   1.755   3.180  0.4397 -0.2079  0.5431
33220SOL     OW 6517   5.728   6.094   5.582 -0.2865 -0.1988  0.3024
33220SOL    HW1 6518   5.704   6.122   5.670  0.0895 -0.3526  0.4532
33220SOL    HW2 6519   5.792   6.024   5.595  0.1987  0.1654 -0.0925
33221SOL     OW 6520   0.154   7.769   2.855  0.1132  0.6054  0.4547
33221SOL    HW1 6521   0.076   7.782   2.909 -0.5018 -0.1654 -0.2286
33221SOL    HW2 6522   0.122   7.769   2.765  0.6098 -1.4392  0.2120
33222SOL     OW 6523   2.677   7.850  11.952 -0.6304  0.0281 -0.2104
33222SOL    HW1 6524   2.597   7.902  11.954 -0.2967  0.6279 -1.1811
33222SOL    HW2 6525   2.716   7.871  11.867 -0.6269 -2.0556 -0.7698
33223SOL     OW 6526  11.125   0.190   1.459 -0.5036  0.0960  0.5002
33223SOL    HW1 6527  11.037   0.181   1.421 -1.2078 -0.1299  2.0745
33223SOL    HW2 6528  11.109   0.193   1.554  1.2350 -0.3644  0.8330
33224SOL     OW 6529   0.511   2.602   7.844 -0.6872 -0.2295  0.0772
33224SOL    HW1 6530   0.587   2.596   7.786 -0.8203 -0.2323 -0.0983
33224SOL    HW2 6531   0.484   2.511   7.858  0.5166 -0.3798  1.7147
33225SOL     OW 6532   7.837   1.719   7.843 -0.0540 -0.1766 -0.1634
33225SOL    HW1 6533   7.925   1.752   7.860 -0.0039 -1.2357  1.9940
33225SOL    HW2 6534   7.780   1.796   7.851  0.6877  0.7049 -2.5194
33226SOL     OW 6535  10.931   8.588  10.632 -0.3282 -0.0580  0.0936
33226SOL    HW1 6536  10.852   8.539  10.651  2.2033 -4.4803  0.6425
33226SOL    HW2 6537  10.954   8.562  10.542  2.3157 -2.0650  1.2144
33227SOL     OW 6538   0.441   7.927   9.572  0.0044  0.0937  0.0883
33227SOL    HW1 6539   0.411   7.923   9.663  0.3561  1.5078  0.2841
33227SOL    HW2 6540   0.503   7.854   9.564 -2.5746 -2.2919 -0.0479
33228SOL     OW 6541   8.554  11.789   2.150  0.6327 -0.0270  0.5384
33228SOL    HW1 6542   8.577  11.848   2.078 -0.7261  1.4609  1.2526
33228SOL    HW2 6543   8.527  11.848   2.221 -1.6037 -1.4864  0.9916
33229SOL     OW 6544   5.817   4.418   7.991  0.0991  0.0251 -0.3050
33229SOL    HW1 6545   5.726   4.443   8.011 -0.0704 -1.2201  0.6360
33229SOL    HW2 6546   5.865   4.438   8.072  0.5748  0.2873 -0.6516
33230SOL     OW 6547   1.977   4.022   8.351  0.5323  0.5100  0.4722
33230SOL    HW1 6548   1.904   4.051   8.296  0.7072  1.3533  0.6694
33230SOL    HW2 6549   2.021   4.103   8.377  1.0911  0.0548  0.9755
33231SOL     OW 6550   5.535   6.335   7.270  0.2241 -0.6675 -0.5516
33231SOL    HW1 6551   5.590   6.357   7.195 -1.4978 -0.3334 -1.7971
33231SOL    HW2 6552   5.560   6.245   7.294  2.0597 -0.1196 -0.3157
33232SOL     OW 6553  11.014   1.452   2.440  0.1004  0.5090 -0.6136
33232SOL    HW1 6554  11.028   1.361   2.412  0.7773  0.7864 -1.2321
33232SOL    HW2 6555  10.943   1.483   2.384 -0.9846 -0.0004  0.4522
33233SOL     OW 6556   5.926  10.695  11.152  0.2557 -0.0796 -0.6584
33233SOL    HW1 6557   5.876  10.715  11.073 -0.9591 -0.6829 -0.0842
33233SOL    HW2 6558   5.998  10.757  11.152  0.5165 -0.3364 -2.4445
33234SOL     OW 6559   4.754  11.638   2.641 -0.8041  0.1827  0.1645
33234SOL    HW1 6560   4.766  11.594   2.557 -1.0252 -0.0260  0.2415
33234SOL    HW2 6561   4.842  11.664   2.668 -0.8064  0.8648 -0.4611
33235SOL     OW 6562   0.302   5.499   3.017 -0.4007 -0.2830  0.0849
33235SOL    HW1 6563   0.304   5.594   3.029 -2.1033 -0.2288  0.1150
33235SOL    HW2 6564   0.331   5.485   2.927 -0.6789  0.3121 -0.0998
33236SOL     OW 6565   4.200   4.388   6.084  0.2452  0.8800 -0.0095
33236SOL    HW1 6566   4.131   4.370   6.147  0.5844  0.1588  0.1641
33236SOL    HW2 6567   4.230   4.476   6.105 -0.2854  1.0057  0.2257
33237SOL     OW 6568   0.217   0.215   2.048 -0.1091 -0.0862  0.0573
33237SOL    HW1 6569   0.177   0.297   2.020 -0.3809 -0.4982 -0.7986
33237SOL    HW2 6570   0.203   0.155   1.975  0.4628 -0.7743  0.4945
33238SOL     OW 6571   9.251   1.716   5.545 -0.4202  0.5043  0.4737
33238SOL    HW1 6572   9.243   1.774   5.470 -0.5267 -0.0814  0.0308
33238SOL    HW2 6573   9.168   1.725   5.592 -0.6356  0.3171  0.1256
33239SOL     OW 6574   3.090   6.434   5.617  0.0647 -0.3999 -0.0731
33239SOL    HW1 6575   3.074   6.504   5.554 -1.8736 -0.1513  0.6226
33239SOL    HW2 6576   3.093   6.355   5.564 -2.0798 -0.2605 -0.5113
33240SOL     OW 6577   8.686   3.405   0.022 -0.0578  0.5018  0.5713
33240SOL    HW1 6578   8.614   3.344   0.007  0.9329 -0.7642  0.7960
33240SOL    HW2 6579   8.688   3.460  -0.057  0.5903 -1.4023 -0.8029
33241SOL     OW 6580   8.806   6.897   4.115 -0.3193 -0.1606 -0.0679
33241SOL    HW1 6581   8.750   6.881   4.039  1.5805  0.1594 -1.6048
33241SOL    HW2 6582   8.820   6.992   4.116 -3.2868  0.4461  2.9678
33242SOL     OW 6583   4.574   9.337   0.528  0.0477 -0.2737  0.4486
33242SOL    HW1 6584   4.499   9.280   0.545  0.3953 -0.5917  0.9377
33242SOL    HW2 6585   4.624   9.291   0.460  0.5781 -0.8031  1.1752
33243SOL     OW 6586   0.319   9.518   2.597  0.4280 -0.0405 -0.2008
33243SOL    HW1 6587   0.273   9.582   2.542 -0.8466 -1.0692 -0.3848
33243SOL    HW2 6588   0.330   9.441   2.540 -1.3770 -1.3220  1.0702
33244SOL     OW 6589  10.658   3.990   0.044  0.4800 -0.7091 -0.4409
33244SOL    HW1 6590  10.672   3.939   0.123  2.0002  0.8138  0.3483
33244SOL    HW2 6591  10.665   4.081   0.072 -1.7595 -0.0206 -1.8615
33245SOL     OW 6592   7.906   0.414   0.358 -0.5644  0.0609  0.0040
33245SOL    HW1 6593   7.971   0.376   0.416 -0.7714 -0.4252 -0.0714
33245SOL    HW2 6594   7.884   0.498   0.397  1.5757  1.1623 -1.0356
33246SOL     OW 6595   7.819   7.207   0.576  0.1982  0.1259  0.4449
33246SOL    HW1 6596   7.813   7.227   0.482 -1.0180  0.0170  0.4861
33246SOL    HW2 6597   7.870   7.280   0.613 -1.5844  1.6081  0.1106
33247SOL     OW 6598   8.378   7.193   9.892 -0.2545  0.0824 -0.5608
33247SOL    HW1 6599   8.325   7.213   9.815  0.4585 -1.3240 -1.4584
33247SOL    HW2 6600   8.319   7.142   9.949 -0.4065  0.0509 -0.7468
33248SOL     OW 6601   6.441   9.359  10.209 -0.7208  0.1251  0.8338
33248SOL    HW1 6602   6.417   9.291  10.147 -1.2740  0.1092  1.0567
33248SOL    HW2 6603   6.464   9.434  10.155  0.3645 -0.3776  0.5731
33249SOL     OW 6604   2.413  11.478   8.709  0.4078 -0.5058  0.2935
33249SOL    HW1 6605   2.440  11.401   8.758  2.3564 -0.0951 -0.0583
33249SOL    HW2 6606   2.492  11.533   8.703 -0.0593  0.0586 -2.1555
33250SOL     OW 6607   1.239  12.459   9.062  0.1905 -0.2611 -0.5338
33250SOL    HW1 6608   1.218  12.478   9.153  0.1526 -1.3949 -0.2974
33250SOL    HW2 6609   1.164  12.492   9.013  1.0120  2.0488 -0.3628
33251SOL     OW 6610   8.798  11.978  12.404  0.4870 -0.0783  0.3370
33251SOL    HW1 6611   8.707  11.962  12.377  0.8303  0.2481 -1.1070
33251SOL    HW2 6612   8.827  11.895  12.440  0.3838 -0.9768 -1.5350
33252SOL     OW 6613   9.346   0.206  10.254  0.0726 -0.6979  0.3185
33252SOL    HW1 6614   9.442   0.209  10.261  0.1325 -1.9774  0.3550
33252SOL    HW2 6615   9.323   0.286  10.208  1.1640 -0.3607  0.3232
33253SOL     OW 6616   0.895   7.505   2.736  0.0015 -0.2881  0.1795
33253SOL    HW1 6617   0.989   7.527   2.738 -0.2093  0.6918 -0.0802
33253SOL    HW2 6618   0.889   7.423   2.784  0.5920  1.1570  2.9465
33254SOL     OW 6619  10.890   4.437   8.601 -0.0265 -0.2988 -0.0189
33254SOL    HW1 6620  10.959   4.503   8.613 -0.7484  0.3529  0.6163
33254SOL    HW2 6621  10.916   4.391   8.521  1.7080 -0.7850  0.7827
33255SOL     OW 6622   3.092  10.545   2.974 -0.4037  0.0354 -0.0373
33255SOL    HW1 6623   3.114  10.457   2.941 -1.0848  0.3358 -1.3303
33255SOL    HW2 6624   3.004  10.562   2.941  0.8863  2.5107 -2.6032
33256SOL     OW 6625   7.908   3.602   7.568 -0.2227  0.1026 -0.6443
33256SOL    HW1 6626   7.945   3.530   7.619  1.9565  0.3993 -1.7152
33256SOL    HW2 6627   7.983   3.659   7.548 -1.7540  2.3599 -0.3905
33257SOL     OW 6628   5.844  10.358   6.963 -0.1474  0.0474  0.3068
33257SOL    HW1 6629   5.821  10.298   6.892 -2.0065 -0.6449  1.4422
33257SOL    HW2 6630   5.771  10.419   6.969 -0.4442 -0.4347  2.1638
33258SOL     OW 6631   9.492   4.624  11.954  0.1637  0.0790 -0.1206
33258SOL    HW1 6632   9.575   4.584  11.976  0.7166  1.1612 -0.1599
33258SOL    HW2 6633   9.509   4.674  11.874  0.2849  2.6577  1.4145
33259SOL     OW 6634   0.663  12.425  11.381 -0.2721  0.3517  0.0476
33259SOL    HW1 6635   0.675  12.452  11.472 -0.1422 -1.4620  0.6117
33259SOL    HW2 6636   0.725  12.353  11.369 -1.6471 -0.7375 -0.8821
33260SOL     OW 6637   5.341   1.597   6.983 -0.1202 -0.5675  0.3977
33260SOL    HW1 6638   5.392   1.529   6.939  1.1481  0.1809  0.6598
33260SOL    HW2 6639   5.401   1.635   7.047 -1.0619  0.2524  0.8369
33261SOL     OW 6640   7.932  10.154   6.399 -0.1851 -0.5160  0.2644
33261SOL    HW1 6641   7.953  10.244   6.375  2.0053 -0.4786  2.0128
33261SOL    HW2 6642   7.859  10.162   6.461  0.3663  0.1353  0.8477
33262SOL     OW 6643   1.933   1.582   3.011 -0.0813  0.9971  0.2271
33262SOL    HW1 6644   2.005   1.645   3.014  0.1475  0.8010 -0.7204
33262SOL    HW2 6645   1.855   1.635   3.029  0.1670  1.4465  0.0115
33263SOL     OW 6646   0.174   3.755  10.636  0.6657 -0.3622  0.3016
33263SOL    HW1 6647   0.173   3.708  10.719  0.3984 -0.9100 -0.0080
33263SOL    HW2 6648   0.164   3.847  10.661  1.0266 -0.4756  0.9015
33264SOL     OW 6649   5.453   9.831   7.691 -0.0010  0.1122  0.5233
33264SOL    HW1 6650   5.476   9.754   7.743 -2.8826 -1.4293 -0.2612
33264SOL    HW2 6651   5.357   9.836   7.697 -0.1571  1.8167 -1.9172
33265SOL     OW 6652   9.057   4.928   1.130  0.0845  0.4489 -0.0117
33265SOL    HW1 6653   9.141   4.966   1.102  0.7766 -0.2966  0.9632
33265SOL    HW2 6654   9.038   4.862   1.064  0.1672  0.7646 -0.3519
33266SOL     OW 6655   3.968  10.662   2.096 -0.0841 -0.1131 -0.5377
33266SOL    HW1 6656   4.025  10.622   2.162 -1.1651 -1.9536 -0.6456
33266SOL    HW2 6657   3.970  10.755   2.115  1.6280 -0.3193  0.4900
33267SOL     OW 6658  11.365   2.075   1.434 -0.3934  0.2749 -0.5402
33267SOL    HW1 6659  11.436   2.102   1.377  0.3308  0.3115  0.3553
33267SOL    HW2 6660  11.304   2.148   1.433  0.0946  0.6860 -0.4964
33268SOL     OW 6661   5.601   6.612   7.521 -0.5548  0.0468 -0.2227
33268SOL    HW1 6662   5.541   6.685   7.537 -0.5879 -0.1034  0.3722
33268SOL    HW2 6663   5.681   6.653   7.488 -0.3239  0.4330  0.7723
33269SOL     OW 6664   9.271   4.690   7.454  0.2790  0.0539 -0.5298
33269SOL    HW1 6665   9.222   4.614   7.485  0.3770  0.6713  1.2345
33269SOL    HW2 6666   9.208   4.761   7.454  0.7663  0.5061  0.2500
33270SOL     OW 6667   0.938   2.045   8.738  0.3001  0.6673 -0.3369
33270SOL    HW1 6668   0.969   2.103   8.807 -0.2443  0.3012  0.2258
33270SOL    HW2 6669   0.844   2.033   8.756  0.4434 -0.5669 -0.2941
33271SOL     OW 6670   0.397   5.076   0.245  0.3010 -0.0801  0.4479
33271SOL    HW1 6671   0.323   5.057   0.301 -0.3621 -2.9266 -1.2147
33271SOL    HW2 6672   0.360   5.084   0.157  1.8766 -1.7153 -0.4504
33272SOL     OW 6673   1.256  10.214   8.108 -0.8032  0.3699 -0.0354
33272SOL    HW1 6674   1.275  10.152   8.178  0.0908  0.9034  0.2091
33272SOL    HW2 6675   1.179  10.178   8.064 -0.6752 -0.5730  0.4939
33273SOL     OW 6676   7.605   8.359   7.922 -0.4668 -0.5295 -0.0574
33273SOL    HW1 6677   7.684   8.356   7.867  0.1423 -2.2099  0.8298
33273SOL    HW2 6678   7.638   8.350   8.012 -1.5289  1.0117  0.5482
33274SOL     OW 6679   6.223   7.508   0.365 -0.6995 -0.1715  0.7898
33274SOL    HW1 6680   6.181   7.443   0.308 -2.0387 -0.4365  2.0017
33274SOL    HW2 6681   6.316   7.485   0.363 -0.5816  0.2405 -1.7489
33275SOL     OW 6682  11.387   5.306   8.359  0.5894  0.2503 -0.8909
33275SOL    HW1 6683  11.333   5.384   8.356  0.0369 -0.1523 -1.5460
33275SOL    HW2 6684  11.401   5.290   8.453 -0.4887  0.3152 -0.7055
33276SOL     OW 6685   6.550   3.105   9.296  0.4436  1.0596  0.6627
33276SOL    HW1 6686   6.487   3.176   9.293 -0.4497  0.3927  2.5315
33276SOL    HW2 6687   6.606   3.119   9.219 -1.2193  2.3400 -0.3650
33277SOL     OW 6688   2.187   1.626   0.264 -0.5318  0.2864 -0.7181
33277SOL    HW1 6689   2.134   1.654   0.338 -1.3499  0.4375 -1.3528
33277SOL    HW2 6690   2.176   1.695   0.198  0.0260  0.0566 -1.0627
33278SOL     OW 6691  11.142   2.849   6.069  0.2715 -0.2356  0.4815
33278SOL    HW1 6692  11.085   2.862   6.145  0.8928 -0.4898  1.0042
33278SOL    HW2 6693  11.108   2.770   6.026 -0.4028  0.2075  0.1884
33279SOL     OW 6694  10.039   7.076  11.258 -0.3857  0.6975 -0.0507
33279SOL    HW1 6695   9.999   7.095  11.174 -0.6008  0.3694 -0.0241
33279SOL    HW2 6696  10.125   7.039  11.236  0.3720  2.3805 -0.0955
33280SOL     OW 6697  12.491   7.275   2.156  0.1560 -0.2810 -0.1359
33280SOL    HW1 6698  12.498   7.346   2.220  0.9287 -0.1951 -0.3065
33280SOL    HW2 6699  12.454   7.315   2.078  0.5045 -0.0830 -0.2002
33281SOL     OW 6700   5.233   7.060  10.019  0.1163 -0.3347  0.1564
33281SOL    HW1 6701   5.147   7.099  10.000  0.6557  1.8196  1.7761
33281SOL    HW2 6702   5.223   6.968   9.994 -3.0498 -0.4737  1.4211
33282SOL     OW 6703   5.856   6.921  10.246  0.3286  0.2152 -0.0949
33282SOL    HW1 6704   5.822   6.832  10.236  0.4167  0.1538  0.1474
33282SOL    HW2 6705   5.780   6.972  10.276  0.4228  0.0965  0.3577
33283SOL     OW 6706   1.560   8.272   1.600 -0.2121  0.0881  0.0927
33283SOL    HW1 6707   1.620   8.324   1.547 -1.7768  2.0182  0.0882
33283SOL    HW2 6708   1.519   8.211   1.538 -1.7662  2.0812 -0.9518
33284SOL     OW 6709  10.032   0.599   0.012  0.0783  0.0761 -0.3063
33284SOL    HW1 6710  10.071   0.660  -0.051  0.6366  0.0671  0.0302
33284SOL    HW2 6711   9.992   0.656   0.078 -0.8746  0.0911 -0.8807
33285SOL     OW 6712   0.067   3.387  11.618 -0.5817  0.1983 -0.4694
33285SOL    HW1 6713   0.106   3.471  11.645 -1.0676  0.1067  0.5770
33285SOL    HW2 6714   0.105   3.323  11.677 -1.4046 -0.0706 -0.2141
33286SOL     OW 6715  11.220   3.374   8.187 -0.2028 -0.3004 -0.0429
33286SOL    HW1 6716  11.276   3.451   8.183 -1.4473  0.5832 -2.2996
33286SOL    HW2 6717  11.193   3.369   8.279 -0.6613  2.4197  0.0545
33287SOL     OW 6718   0.795   2.192   6.481 -0.1482  0.1540  0.8253
33287SOL    HW1 6719   0.741   2.147   6.416  0.1327 -0.7689  1.2190
33287SOL    HW2 6720   0.741   2.192   6.560  1.0173 -2.3413  1.7462
33288SOL     OW 6721   6.483   6.275   9.392  0.4655  0.2841 -0.3572
33288SOL    HW1 6722   6.541   6.200   9.377  0.2594 -0.6176  2.6482
33288SOL    HW2 6723   6.407   6.258   9.337  0.6563 -1.4811 -0.1376
33289SOL     OW 6724   0.932   7.640   6.073 -0.8913 -0.2636 -0.2903
33289SOL    HW1 6725   0.862   7.688   6.028 -0.6275  1.5322  1.1025
33289SOL    HW2 6726   1.007   7.645   6.013 -1.4122 -0.6505 -0.9976
33290SOL     OW 6727   0.303  11.137   3.211 -0.5411  0.3061 -0.0682
33290SOL    HW1 6728   0.317  11.111   3.120 -0.6111 -0.1466  0.0481
33290SOL    HW2 6729   0.378  11.193   3.231 -1.0159  1.1872 -0.6923
33291SOL     OW 6730   2.184   8.259   3.848  0.2198 -0.6071  0.0987
33291SOL    HW1 6731   2.137   8.183   3.813  1.0965 -1.0076 -0.2224
33291SOL    HW2 6732   2.234   8.225   3.922  1.2969 -0.5399 -0.5777
33292SOL     OW 6733  12.050   3.931  10.643  0.4469  0.8504  0.8571
33292SOL    HW1 6734  11.957   3.914  10.623  0.5716  0.1755  0.8198
33292SOL    HW2 6735  12.056   4.026  10.650 -0.1144  0.9408  0.1964
33293SOL     OW 6736   4.601   9.887   4.606 -0.5074  0.6644 -0.1097
33293SOL    HW1 6737   4.530   9.924   4.659 -1.6841 -0.0465 -1.1376
33293SOL    HW2 6738   4.560   9.814   4.559  0.4824  1.2112 -1.9273
33294SOL     OW 6739   2.598   9.559   8.442 -0.1893 -0.0497  0.1795
33294SOL    HW1 6740   2.541   9.602   8.377 -1.4057 -0.3535  0.9988
33294SOL    HW2 6741   2.594   9.466   8.420 -0.3575 -0.1188  0.4903
33295SOL     OW 6742   2.237   8.418   4.453  1.0706 -0.4274 -0.7165
33295SOL    HW1 6743   2.220   8.448   4.364  0.2779  1.8732  0.1372
33295SOL    HW2 6744   2.290   8.487   4.492  0.3032 -0.7372  0.9751
33296SOL     OW 6745   2.421   1.384   8.068 -0.2415 -0.1952 -0.0173
33296SOL    HW1 6746   2.352   1.424   8.015 -1.2118 -2.5487 -0.6420
33296SOL    HW2 6747   2.500   1.391   8.015 -1.0434 -1.8354 -1.5130
33297SOL     OW 6748   6.794   6.295   6.840  0.4326 -0.4591 -0.2444
33297SOL    HW1 6749   6.837   6.268   6.921  1.5067 -1.6645 -1.1699
33297SOL    HW2 6750   6.701   6.301   6.862  0.8526  0.6790  1.4156
33298SOL     OW 6751   0.551   0.398   1.904  0.3817 -0.1582 -0.7331
33298SOL    HW1 6752   0.565   0.319   1.956  0.0330  0.1973 -0.0948
33298SOL    HW2 6753   0.637   0.440   1.901  0.8239 -1.0576 -1.9359
33299SOL     OW 6754  12.562   8.594   4.297 -0.2067  0.2072 -0.3547
33299SOL    HW1 6755  12.532   8.595   4.388  0.0904 -0.3583 -0.2486
33299SOL    HW2 6756  12.487   8.625   4.247 -1.8303 -3.1769 -0.3273
33300SOL     OW 6757  10.448   3.318  10.351  0.6383  0.0361 -0.0101
33300SOL    HW1 6758  10.425   3.370  10.275  0.2675 -1.4989 -1.0027
33300SOL    HW2 6759  10.498   3.377  10.407  0.3209  1.3949 -1.1160
33301SOL     OW 6760  10.388   1.936   1.607  0.1935 -0.1972 -0.2567
33301SOL    HW1 6761  10.408   1.853   1.564 -0.7079  0.1848 -1.4500
33301SOL    HW2 6762  10.467   1.956   1.657  1.2822 -0.6694 -1.7098
33302SOL     OW 6763   0.978   9.600  10.824 -0.1642  0.0255  0.0303
33302SOL    HW1 6764   1.054   9.542  10.828 -0.6512 -0.7095 -0.9276
33302SOL    HW2 6765   1.016   9.688  10.819  0.6603 -0.3515 -0.8690
33303SOL     OW 6766   5.372   1.134  11.441 -0.2109 -0.5813  0.2504
33303SOL    HW1 6767   5.282   1.165  11.431  0.1869  0.5633  0.0690
33303SOL    HW2 6768   5.418   1.205  11.485  0.5773 -1.2186  0.4910
33304SOL     OW 6769   6.674  10.998   6.527  0.2648  0.0665  0.1446
33304SOL    HW1 6770   6.594  10.957   6.560  0.5606 -0.0913  0.6799
33304SOL    HW2 6771   6.741  10.975   6.591  0.3881  1.6062  0.6084
33305SOL     OW 6772  12.515   1.507   0.877  0.0384 -0.0309 -0.4859
33305SOL    HW1 6773  12.578   1.542   0.939  1.7126 -1.2479 -1.4354
33305SOL    HW2 6774  12.433   1.500   0.926  0.3765  2.3510  0.5534
33306SOL     OW 6775  11.083   6.434  11.120 -0.3918 -0.0154  0.3600
33306SOL    HW1 6776  11.105   6.343  11.100 -0.2294 -0.3033  1.7596
33306SOL    HW2 6777  11.114   6.483  11.044 -1.0939 -1.1850 -0.7175
33307SOL     OW 6778   8.550  11.481   0.322  0.6410 -0.4968  0.2255
33307SOL    HW1 6779   8.546  11.487   0.227  0.2690 -0.2908  0.2503
33307SOL    HW2 6780   8.579  11.392   0.340  1.2635 -0.3595 -0.0884
33308SOL     OW 6781  10.664  10.157   3.821  0.3470  0.6149  1.5174
33308SOL    HW1 6782  10.709  10.145   3.905  0.8792 -1.8347  0.9445
33308SOL    HW2 6783  10.590  10.097   3.825  0.8679 -0.1883 -0.0726
33309SOL     OW 6784  12.529  10.762   3.078 -0.0517  0.0690  0.5278
33309SOL    HW1 6785  12.475  10.786   3.153 -0.3532  2.2891 -0.3096
33309SOL    HW2 6786  12.614  10.741   3.115 -1.2467 -2.9486  1.8140
33310SOL     OW 6787   3.836  12.075   2.175  0.2066  0.2734  0.1758
33310SOL    HW1 6788   3.767  12.046   2.116 -0.9753  1.2351  1.0464
33310SOL    HW2 6789   3.917  12.064   2.125 -0.6710  0.1855 -1.2598
33311SOL     OW 6790   8.370   9.954   9.384 -0.0553  0.4257 -0.1984
33311SOL    HW1 6791   8.409  10.031   9.342  2.4706  0.1921  1.5120
33311SOL    HW2 6792   8.347   9.897   9.311  1.6949  1.1540 -1.3991
33312SOL     OW 6793   2.032   4.884   3.431  0.3578  0.4148 -0.2222
33312SOL    HW1 6794   1.983   4.966   3.434  0.3361  0.3804  2.1327
33312SOL    HW2 6795   1.977   4.824   3.382  0.0591  1.5883 -1.3705
33313SOL     OW 6796   7.445   6.146   0.169  0.6806 -0.2930  0.7462
33313SOL    HW1 6797   7.394   6.141   0.088  2.3117  1.2087 -0.4643
33313SOL    HW2 6798   7.444   6.239   0.191  1.1208 -0.5434  1.8773
33314SOL     OW 6799   2.623   2.706   0.389 -0.0081  0.0050  0.2176
33314SOL    HW1 6800   2.602   2.659   0.307  1.2459  0.3260 -0.3115
33314SOL    HW2 6801   2.717   2.690   0.402 -0.1255  0.2296  1.4389
33315SOL     OW 6802   9.417   3.636   1.882  0.7886 -0.1776  0.3851
33315SOL    HW1 6803   9.418   3.729   1.905 -0.1590  0.4437 -1.8285
33315SOL    HW2 6804   9.352   3.597   1.941 -0.2286  0.9645  0.0598
33316SOL     OW 6805   6.208   9.057   5.865  0.5733  0.1140 -0.0508
33316SOL    HW1 6806   6.203   9.143   5.908 -0.1576  0.0807 -0.0576
33316SOL    HW2 6807   6.226   8.996   5.937  1.5966  0.3143 -0.1093
33317SOL     OW 6808   0.057   9.922   1.485 -0.1212  0.0140 -0.2907
33317SOL    HW1 6809  -0.008   9.854   1.471 -0.6523  0.3780  0.3129
33317SOL    HW2 6810   0.140   9.884   1.456 -0.5876 -0.4871 -0.9831
33318SOL     OW 6811   0.973   4.422   3.145 -0.6757 -0.2289  0.0963
33318SOL    HW1 6812   0.911   4.351   3.158 -1.0706 -0.2675 -1.7315
33318SOL    HW2 6813   0.945   4.465   3.064  0.8872  0.5878 -0.0660
33319SOL     OW 6814   9.372  10.886   2.738  0.2772  0.5080 -0.4533
33319SOL    HW1 6815   9.313  10.823   2.780  0.2994  1.9803  1.9417
33319SOL    HW2 6816   9.313  10.947   2.692  0.0083  0.9492  0.4569
33320SOL     OW 6817  11.345   8.981   6.674 -0.6362  0.0105  0.4992
33320SOL    HW1 6818  11.303   9.067   6.678  0.5148  0.5737  0.6927
33320SOL    HW2 6819  11.342   8.948   6.764  0.0400  0.4030  0.6715
33321SOL     OW 6820   4.980  10.952   8.518  0.3004 -0.7081  0.2511
33321SOL    HW1 6821   4.932  10.967   8.599 -0.1246  0.7881 -0.2539
33321SOL    HW2 6822   4.964  10.860   8.497 -0.5893 -0.7863  1.2063
33322SOL     OW 6823  10.383  11.583  10.569  0.0990 -0.3069  0.2975
33322SOL    HW1 6824  10.416  11.671  10.586 -0.1779 -0.5049  1.9407
33322SOL    HW2 6825  10.454  11.524  10.593  0.4721 -0.5551 -1.2717
33323SOL     OW 6826   0.751   6.993   1.632 -0.3756  0.2027  0.9726
33323SOL    HW1 6827   0.845   6.975   1.622 -0.7139 -1.0861 -0.1715
33323SOL    HW2 6828   0.724   6.937   1.705 -0.4501 -0.1298  0.6862
33324SOL     OW 6829  10.207  11.872  10.389 -0.0735 -0.2592  0.1738
33324SOL    HW1 6830  10.300  11.852  10.383 -0.3594 -1.9893  0.9951
33324SOL    HW2 6831  10.191  11.933  10.317  1.4675 -0.7634 -0.6427
33325SOL     OW 6832   9.657   6.904   4.500  0.2870  0.2185 -0.1653
33325SOL    HW1 6833   9.735   6.948   4.467  0.1061  1.2505  0.7224
33325SOL    HW2 6834   9.689   6.824   4.540  0.4603 -1.4764 -3.3186
33326SOL     OW 6835  11.080   3.942  11.913 -0.7549 -0.3336  0.2657
33326SOL    HW1 6836  11.105   4.031  11.939 -0.7444  0.2034 -1.4238
33326SOL    HW2 6837  11.153   3.887  11.941 -0.9148  0.1186  1.6372
33327SOL     OW 6838   5.816   5.237   8.754  0.0929 -0.0912  0.0955
33327SOL    HW1 6839   5.858   5.201   8.676  1.0027  0.4308  0.3245
33327SOL    HW2 6840   5.889   5.270   8.807 -0.6662  1.7368  0.0666
33328SOL     OW 6841   1.667   1.809   9.877  0.1990 -0.2726  0.4811
33328SOL    HW1 6842   1.591   1.867   9.877 -1.4548 -2.2427 -1.3442
33328SOL    HW2 6843   1.646   1.740   9.940  1.3436  0.1138  1.3289
33329SOL     OW 6844   9.572   6.072   6.184 -0.1086  0.1046  0.5464
33329SOL    HW1 6845   9.527   6.002   6.232  0.4151 -0.4030  0.3115
33329SOL    HW2 6846   9.502   6.133   6.160 -0.4344  0.1710  1.6077
33330SOL     OW 6847   5.868   0.137  10.087 -0.2299  0.1479 -0.3065
33330SOL    HW1 6848   5.912   0.196  10.148 -0.9650  0.3867  0.0128
33330SOL    HW2 6849   5.889   0.049  10.119  1.5694  0.1985 -1.2846
33331SOL     OW 6850   4.538   8.715   8.644 -0.3140  0.2250  0.1507
33331SOL    HW1 6851   4.493   8.639   8.607 -0.7229 -0.1661  1.3912
33331SOL    HW2 6852   4.529   8.783   8.577 -1.1887 -0.3876 -0.3739
33332SOL     OW 6853   7.151   6.156   7.208 -0.3432 -0.4371 -0.5869
33332SOL    HW1 6854   7.064   6.133   7.175 -0.8765  0.3687  0.2321
33332SOL    HW2 6855   7.140   6.161   7.302  1.2828 -3.2580 -0.1235
33333SOL     OW 6856   0.119   7.927   5.796 -0.3246 -0.3290  0.6356
33333SOL    HW1 6857   0.064   7.962   5.865 -1.6954 -0.8375 -0.1590
33333SOL    HW2 6858   0.070   7.853   5.761  0.1747  0.1035 -1.0871
33334SOL     OW 6859   2.378   2.876   6.251  0.0414  0.4414  0.0621
33334SOL    HW1 6860   2.423   2.956   6.276 -1.3728  0.8977  1.2629
33334SOL    HW2 6861   2.412   2.809   6.310 -0.3637  0.6483  0.5372
33335SOL     OW 6862   5.037   3.112   5.042 -0.4899 -0.1230 -0.3479
33335SOL    HW1 6863   4.984   3.090   5.119  0.5177 -1.3795  0.0165
33335SOL    HW2 6864   4.994   3.190   5.005 -1.2485  0.2433  1.2173
33336SOL     OW 6865   1.727  10.990  11.893  0.0790  0.0423 -0.2536
33336SOL    HW1 6866   1.680  10.946  11.822 -0.3531  1.3475 -0.7979
33336SOL    HW2 6867   1.804  10.935  11.909  0.0104 -0.4319 -1.4982
33337SOL     OW 6868  10.077  10.547  10.430  0.5846 -0.3727 -0.2910
33337SOL    HW1 6869  10.125  10.547  10.513 -1.8516  1.3573  1.2636
33337SOL    HW2 6870  10.080  10.638  10.401  1.3441 -0.9479 -2.1298
33338SOL     OW 6871   8.549   3.299   0.395  0.1495  0.4443  0.0253
33338SOL    HW1 6872   8.615   3.350   0.349 -0.0953 -0.1048 -0.9602
33338SOL    HW2 6873   8.466   3.323   0.354  0.0197 -0.6703 -0.4069
33339SOL     OW 6874  10.216   1.971   4.153 -0.2734 -0.0377 -0.2836
33339SOL    HW1 6875  10.153   1.899   4.142  1.3238 -1.6526  0.5973
33339SOL    HW2 6876  10.235   1.971   4.247  1.4325  0.0494 -0.6089
33340SOL     OW 6877   7.048  12.453   9.753  0.1559 -0.0870  0.3552
33340SOL    HW1 6878   6.966  12.449   9.802 -0.0694  1.1974  0.1296
33340SOL    HW2 6879   7.099  12.520   9.799  0.7270 -0.2521 -0.0305
33341SOL     OW 6880   0.251   5.363   9.770 -0.0767  0.5221 -0.1371
33341SOL    HW1 6881   0.293   5.347   9.685 -0.7759  0.5667 -0.5048
33341SOL    HW2 6882   0.300   5.435   9.808 -0.6559  1.5037 -1.1743
33342SOL     OW 6883   8.475   8.875   4.403  0.2695 -0.5861  0.2636
33342SOL    HW1 6884   8.441   8.868   4.314 -0.0373 -0.3936  0.3622
33342SOL    HW2 6885   8.403   8.842   4.458 -0.5696  1.6912  0.6219
33343SOL     OW 6886  12.250   4.095   1.513 -0.1700 -0.7217  0.2262
33343SOL    HW1 6887  12.330   4.085   1.563  1.2395 -0.9218 -1.9353
33343SOL    HW2 6888  12.258   4.032   1.441 -1.2512  0.7417 -1.2537
33344SOL     OW 6889   5.272  12.238   2.755 -0.5273  0.1589 -0.5544
33344SOL    HW1 6890   5.277  12.152   2.713 -0.7788 -0.0915 -0.0787
33344SOL    HW2 6891   5.193  12.278   2.718 -1.5581 -0.6311  0.7157
33345SOL     OW 6892   4.006   1.225   1.476  0.1190  0.1573 -1.0431
33345SOL    HW1 6893   3.970   1.313   1.489 -1.6009 -0.4331 -1.6213
33345SOL    HW2 6894   4.008   1.187   1.564  0.6861  0.6918 -0.8179
33346SOL     OW 6895  11.917   6.410  10.462  0.6072  0.0539  0.1376
33346SOL    HW1 6896  11.962   6.434  10.381 -1.3872 -0.0199 -1.0695
33346SOL    HW2 6897  11.886   6.494  10.497  0.7788  0.0105  0.3911
33347SOL     OW 6898   1.278  10.402  10.119 -0.1831  0.2812 -0.1598
33347SOL    HW1 6899   1.348  10.466  10.125  0.5035 -0.4507 -0.1756
33347SOL    HW2 6900   1.256  10.397  10.026 -0.3864  0.6424 -0.1320
33348SOL     OW 6901   7.341   5.054   6.520 -0.2008  0.2891  1.1775
33348SOL    HW1 6902   7.324   5.143   6.550 -2.0148  0.3400  0.1469
33348SOL    HW2 6903   7.425   5.060   6.474 -1.6108  2.2015 -1.4528
33349SOL     OW 6904  10.647   8.896  11.503  0.1347 -0.2784 -0.1137
33349SOL    HW1 6905  10.609   8.967  11.452  1.3610  0.5619  0.0869
33349SOL    HW2 6906  10.587   8.823  11.491 -0.0699  0.1530 -2.0535
33350SOL     OW 6907  11.183   7.778  12.285 -0.6067 -0.1153 -0.1578
33350SOL    HW1 6908  11.199   7.846  12.220 -1.7003  1.2755  0.9602
33350SOL    HW2 6909  11.175   7.697  12.233 -1.7052  0.9727 -1.8068
33351SOL     OW 6910   1.658   1.120   2.911 -0.0107  0.3227 -0.1311
33351SOL    HW1 6911   1.563   1.110   2.919 -0.0419  0.1350 -0.6479
33351SOL    HW2 6912   1.672   1.215   2.908  0.1200  0.5093  3.0412
33352SOL     OW 6913   5.677  10.278  12.177  0.5919 -0.1279  0.0833
33352SOL    HW1 6914   5.603  10.264  12.117  0.6439 -0.1818  0.0317
33352SOL    HW2 6915   5.711  10.364  12.152  0.4195 -0.0111  0.2432
33353SOL     OW 6916   2.600   8.875   1.224  0.4058 -0.1477  0.4425
33353SOL    HW1 6917   2.633   8.957   1.189 -0.0564 -0.2810 -0.3242
33353SOL    HW2 6918   2.507   8.892   1.242 -0.0546 -0.9011 -1.0651
33354SOL     OW 6919   4.887   2.050   4.428  0.2414 -0.2890  0.3980
33354SOL    HW1 6920   4.905   2.143   4.441  0.6019 -0.1241 -1.0233
33354SOL    HW2 6921   4.795   2.039   4.454  0.4666  0.2526  1.4758
33355SOL     OW 6922   4.984   1.940   9.894 -0.4727 -0.4981  0.0220
33355SOL    HW1 6923   4.939   1.897   9.967  3.0248 -3.2789  0.8143
33355SOL    HW2 6924   4.983   1.876   9.823  1.1869 -0.2579 -0.2789
33356SOL     OW 6925  11.694  10.841   4.703 -0.0900  0.2934  0.3055
33356SOL    HW1 6926  11.782  10.825   4.738  0.7195 -0.8342 -2.0392
33356SOL    HW2 6927  11.647  10.759   4.720  0.0499  0.0448 -0.4910
33357SOL     OW 6928   5.639   1.921   3.805 -0.3958  0.2447  0.0788
33357SOL    HW1 6929   5.596   1.843   3.772  0.5658 -0.2686 -0.0001
33357SOL    HW2 6930   5.574   1.991   3.795 -2.3521 -1.0044  2.7460
33358SOL     OW 6931   7.071   2.633   3.482  0.0379 -0.2429  0.6071
33358SOL    HW1 6932   7.162   2.652   3.507 -0.0348 -0.6844  1.2414
33358SOL    HW2 6933   7.065   2.658   3.390  0.6749  0.2335  0.6902
33359SOL     OW 6934   4.363   4.622   0.773 -0.2325  0.3111  0.0384
33359SOL    HW1 6935   4.438   4.568   0.747  0.1187  0.3620  0.9256
33359SOL    HW2 6936   4.288   4.563   0.764 -0.5765  1.0633 -3.7432
33360SOL     OW 6937   0.596   1.970   8.140  0.1991  0.0214 -0.0924
33360SOL    HW1 6938   0.587   1.881   8.107  2.4471 -0.5705  0.6409
33360SOL    HW2 6939   0.539   1.973   8.216 -0.6820 -0.4457 -0.7178
33361SOL     OW 6940   4.598   1.306   0.976 -0.0890  0.0654 -0.5202
33361SOL    HW1 6941   4.588   1.225   1.027  1.1405  0.5502  0.5317
33361SOL    HW2 6942   4.624   1.276   0.889 -0.4562 -0.7022 -0.3798
33362SOL     OW 6943   5.137  10.110   5.016 -0.0299 -0.6350  0.1905
33362SOL    HW1 6944   5.065  10.144   4.964  1.3057  0.1648 -1.2170
33362SOL    HW2 6945   5.140  10.165   5.094 -0.2462  0.0202 -0.2654
33363SOL     OW 6946  10.400  12.279   0.836 -0.0535  0.3492 -0.0860
33363SOL    HW1 6947  10.387  12.334   0.759  2.4717  0.9670 -0.1428
33363SOL    HW2 6948  10.441  12.200   0.802 -3.8079 -1.8984 -0.0470
33364SOL     OW 6949   5.608   9.735   6.974 -0.0458 -0.6043 -0.3636
33364SOL    HW1 6950   5.655   9.682   7.038  1.7875 -0.0437 -1.1845
33364SOL    HW2 6951   5.674   9.793   6.936 -1.4799  0.5226 -1.2972
33365SOL     OW 6952   1.344  10.089   0.854  0.6056  0.2177 -0.3255
33365SOL    HW1 6953   1.353  10.111   0.946 -0.1282  0.1957 -0.2445
33365SOL    HW2 6954   1.352   9.994   0.851 -2.1396 -0.0800  0.0882
33366SOL     OW 6955   6.481   2.564  10.511 -0.0721  0.2181  0.7068
33366SOL    HW1 6956   6.569   2.526  10.505  0.1474  0.6849  0.8982
33366SOL    HW2 6957   6.466   2.602  10.425  0.1120  0.5644  0.8276
33367SOL     OW 6958   8.305   4.033   2.604 -0.6266 -0.2725 -0.4551
33367SOL    HW1 6959   8.305   3.942   2.572  0.3376 -0.3498 -0.2887
33367SOL    HW2 6960   8.398   4.054   2.613 -0.8542  0.5755 -0.0304
33368SOL     OW 6961   4.449   2.982  10.448  0.3952  0.3190 -0.1369
33368SOL    HW1 6962   4.433   3.072  10.478 -2.9713 -0.1258 -0.3189
33368SOL    HW2 6963   4.473   2.934  10.527  0.2330  0.9650  0.3095
33369SOL     OW 6964   5.940   4.618   3.378  0.9784  0.0183 -0.7232
33369SOL    HW1 6965   6.013   4.559   3.365  1.1333  0.2298 -0.8238
33369SOL    HW2 6966   5.902   4.592   3.463  1.2444 -0.0092 -0.6130
33370SOL     OW 6967  12.287   3.040  11.949  0.1720 -0.1276 -0.0731
33370SOL    HW1 6968  12.200   3.003  11.967 -1.1456  2.5384 -0.4504
33370SOL    HW2 6969  12.276   3.088  11.867  1.4962  1.6895  0.7517
33371SOL     OW 6970   1.749   9.529   7.497 -0.2256 -0.7169 -0.8572
33371SOL    HW1 6971   1.686   9.459   7.483 -2.0041  0.4827  0.7184
33371SOL    HW2 6972   1.700   9.610   7.480  0.8952  0.2503  0.2987
33372SOL     OW 6973   0.593   1.043   1.830  0.2430  0.0664  0.6346
33372SOL    HW1 6974   0.655   1.001   1.889  1.2632 -0.5764 -0.8111
33372SOL    HW2 6975   0.563   0.971   1.773  0.9282  1.0141 -0.9823
33373SOL     OW 6976   5.324   5.101   1.434  0.0258 -0.1310 -0.5237
33373SOL    HW1 6977   5.365   5.181   1.400 -1.8346  1.8724  1.5424
33373SOL    HW2 6978   5.395   5.052   1.474  1.1649  0.6602 -1.5061
33374SOL     OW 6979   4.235   8.629   6.362 -0.1713  0.2834 -0.1539
33374SOL    HW1 6980   4.147   8.594   6.346 -0.8325  1.2102  1.2236
33374SOL    HW2 6981   4.220   8.721   6.382  1.1647  0.5336 -0.2572
33375SOL     OW 6982   5.892   0.921  12.312 -0.5632 -0.1869 -0.3422
33375SOL    HW1 6983   5.838   0.845  12.289 -0.5141 -0.4149  0.2809
33375SOL    HW2 6984   5.864   0.990  12.251 -0.3605 -0.8034 -1.1492
33376SOL     OW 6985  11.110   5.903  10.509  0.8367  0.5739 -0.0397
33376SOL    HW1 6986  11.097   5.815  10.474  1.6149  0.5990 -0.4080
33376SOL    HW2 6987  11.156   5.950  10.439  1.7478  0.8422  0.7319
33377SOL     OW 6988   7.902   2.092   8.198 -0.4301  0.4302 -0.0745
33377SOL    HW1 6989   7.923   2.146   8.274  1.0019 -0.0251 -0.1118
33377SOL    HW2 6990   7.876   2.008   8.235  1.3754 -0.1690 -0.0567
33378SOL     OW 6991   8.151  10.885  10.567  0.0920  0.7826  0.1521
33378SOL    HW1 6992   8.056  10.893  10.581  0.0793 -1.0640  1.5091
33378SOL    HW2 6993   8.176  10.968  10.525 -1.9497  1.7001  0.6072
33379SOL     OW 6994   3.102  12.316   2.627  0.1028  0.4501 -0.1303
33379SOL    HW1 6995   3.166  12.245   2.636 -2.8707 -2.4194 -0.1241
33379SOL    HW2 6996   3.059  12.300   2.543 -0.1337  2.8074 -0.5345
33380SOL     OW 6997   2.477   0.066   1.553 -0.2890 -0.1986  0.5180
33380SOL    HW1 6998   2.521   0.022   1.481 -0.4073 -0.1309  0.4031
33380SOL    HW2 6999   2.464   0.156   1.522 -0.5425 -0.2286  0.5348
33381SOL     OW 7000   0.358   9.331   9.160  0.8285 -0.1609 -0.4491
33381SOL    HW1 7001   0.348   9.425   9.173 -0.1151 -0.1846 -0.9266
33381SOL    HW2 7002   0.294   9.291   9.218 -1.3458 -0.3537 -2.8279
33382SOL     OW 7003   7.518  10.629  10.098  0.1002  0.2500  0.0071
33382SOL    HW1 7004   7.576  10.566  10.141  0.1370 -0.8224 -1.5123
33382SOL    HW2 7005   7.516  10.705  10.156  0.9992 -0.6959  1.3168
33383SOL     OW 7006  10.095   7.760   9.091 -0.1904 -0.3725  0.1166
33383SOL    HW1 7007  10.047   7.760   9.174 -1.4274  0.7081 -0.5568
33383SOL    HW2 7008  10.073   7.676   9.051  0.1630 -0.7665  0.7335
33384SOL     OW 7009   0.986   4.883   4.117  0.0038 -0.1405 -0.2713
33384SOL    HW1 7010   0.899   4.911   4.148  0.3722 -0.3489  1.0313
33384SOL    HW2 7011   1.047   4.921   4.180  0.6545 -2.1144  0.3680
33385SOL     OW 7012   6.450   3.625   0.821  0.3479 -0.0219 -0.9268
33385SOL    HW1 7013   6.451   3.606   0.915  0.9545 -0.4299 -1.0104
33385SOL    HW2 7014   6.522   3.687   0.808 -0.2915  0.7214 -0.9893
33386SOL     OW 7015   4.342   6.121  10.259 -0.1331  0.0196 -0.6038
33386SOL    HW1 7016   4.340   6.215  10.245 -1.4535  0.1764  0.3987
33386SOL    HW2 7017   4.324   6.083  10.173 -0.2735  0.6955 -0.8738
33387SOL     OW 7018   2.426   5.740   1.806  0.1129  0.1202 -0.2009
33387SOL    HW1 7019   2.478   5.667   1.771 -0.3113  0.4386 -1.5593
33387SOL    HW2 7020   2.379   5.774   1.730  0.2537  1.7824  0.4240
33388SOL     OW 7021   6.465   4.048  10.344  0.0121  0.3313  0.3064
33388SOL    HW1 7022   6.379   4.090  10.336 -0.5912 -0.8917  0.1674
33388SOL    HW2 7023   6.518   4.089  10.276  0.0585  2.2671  1.4338
33389SOL     OW 7024   3.417   5.436   2.777  0.2374 -0.2689 -0.5835
33389SOL    HW1 7025   3.331   5.394   2.782  0.3876 -0.7993 -1.8396
33389SOL    HW2 7026   3.410   5.513   2.832 -0.7238 -0.8438  0.1257
33390SOL     OW 7027  10.992   7.747   3.122  0.3742 -0.1711  0.0356
33390SOL    HW1 7028  10.980   7.842   3.120  0.8057 -0.1074  0.3918
33390SOL    HW2 7029  10.908   7.711   3.091  0.2386  0.3253 -0.1752
33391SOL     OW 7030   1.545   7.047  12.075  0.0205  0.1166  0.6464
33391SOL    HW1 7031   1.606   6.974  12.082 -0.6699 -0.5175  0.0929
33391SOL    HW2 7032   1.601   7.125  12.074  0.8873 -0.4905 -0.6845
33392SOL     OW 7033   9.035   2.804   6.870  0.1116  0.0559  0.0703
33392SOL    HW1 7034   9.105   2.862   6.900 -0.6981  1.6931 -1.0434
33392SOL    HW2 7035   9.003   2.762   6.949  1.5945  0.1514  0.7410
33393SOL     OW 7036   4.529   2.884   9.544 -0.1631  0.0415  0.3580
33393SOL    HW1 7037   4.624   2.890   9.555 -0.2489  0.1764  1.0378
33393SOL    HW2 7038   4.517   2.868   9.450  0.4762  1.2654  0.0545
33394SOL     OW 7039   6.073   1.739   9.446  0.3868  0.1950  0.2776
33394SOL    HW1 7040   6.083   1.834   9.446 -3.5344  0.8143 -1.2495
33394SOL    HW2 7041   6.060   1.716   9.538  1.6027  1.0855  0.6882
33395SOL     OW 7042   8.591   5.351   9.965  0.3511 -0.4216 -0.5028
33395SOL    HW1 7043   8.498   5.358   9.946  0.3815 -1.7654 -1.2212
33395SOL    HW2 7044   8.618   5.441   9.985 -0.8658  0.1483 -1.3094
33396SOL     OW 7045   9.790   5.891   5.090 -0.2980 -0.3162  0.2546
33396SOL    HW1 7046   9.872   5.915   5.133 -1.5029 -0.2373  2.6254
33396SOL    HW2 7047   9.780   5.956   5.020  0.4901  1.1415  1.4456
33397SOL     OW 7048   4.267   1.520   8.041  0.3271  0.1691 -0.1206
33397SOL    HW1 7049   4.279   1.448   7.979  0.0508  1.5624 -1.8684
33397SOL    HW2 7050   4.316   1.493   8.119  0.9146 -1.5262 -1.0361
33398SOL     OW 7051   8.742   0.416   7.459  0.3356  0.7969 -0.4186
33398SOL    HW1 7052   8.824   0.368   7.473 -0.8976 -0.8938  1.7779
33398SOL    HW2 7053   8.730   0.466   7.540 -1.9533 -0.9477  0.4187
33399SOL     OW 7054   2.731  10.996   2.021 -0.1794  0.3319 -0.5531
33399SOL    HW1 7055   2.804  11.057   2.021 -1.3424  1.7913  0.0707
33399SOL    HW2 7056   2.769  10.913   2.050  1.4968  0.6549 -1.6775
33400SOL     OW 7057   8.030   3.162   8.839  0.0859 -0.7375 -0.3591
33400SOL    HW1 7058   8.089   3.179   8.912  0.2005  0.9175 -0.8046
33400SOL    HW2 7059   8.084   3.176   8.761 -1.2546  2.6950 -0.8206
33401SOL     OW 7060   8.131   1.404   9.728  0.0496 -0.4490  0.5615
33401SOL    HW1 7061   8.168   1.418   9.815 -0.1574 -1.8126  0.8952
33401SOL    HW2 7062   8.091   1.317   9.733 -0.1620 -0.4520 -0.8300
33402SOL     OW 7063   0.267  10.375   7.968  0.0480 -0.1831  0.0498
33402SOL    HW1 7064   0.250  10.312   8.038  0.4743  0.1439  0.4554
33402SOL    HW2 7065   0.337  10.431   8.003 -0.5595  0.7254 -0.1596
33403SOL     OW 7066  11.658   6.235   7.034  0.1484 -0.6034 -0.5337
33403SOL    HW1 7067  11.568   6.220   7.003  0.5069 -0.0655 -1.8928
33403SOL    HW2 7068  11.712   6.176   6.982  0.6083 -0.7822  0.1419
33404SOL     OW 7069   0.605  11.252   0.773  0.6500 -0.3968 -0.0449
33404SOL    HW1 7070   0.656  11.231   0.694  0.2706 -2.3421  0.1980
33404SOL    HW2 7071   0.620  11.346   0.786  1.4636 -0.2247 -1.8972
33405SOL     OW 7072   5.134   1.836  11.418 -0.1546  0.1598  0.0650
33405SOL    HW1 7073   5.119   1.849  11.511 -0.6166  3.5754 -0.3453
33405SOL    HW2 7074   5.101   1.916  11.377  0.0011 -1.2191 -3.0611
33406SOL     OW 7075   6.448  12.128   7.333 -1.0561 -0.4174 -0.0019
33406SOL    HW1 7076   6.492  12.163   7.256 -0.5618 -1.3309 -0.1461
33406SOL    HW2 7077   6.441  12.203   7.393 -1.6964  0.3593 -1.0252
33407SOL     OW 7078  11.268   6.208   9.064 -0.3227  0.0287  0.1861
33407SOL    HW1 7079  11.268   6.155   9.143  0.0162 -0.8135 -0.3553
33407SOL    HW2 7080  11.291   6.146   8.994  0.6611  1.0108 -0.3913
33408SOL     OW 7081   7.518   5.949   7.545  0.5723  0.1627  0.6531
33408SOL    HW1 7082   7.542   5.863   7.511  1.7988  0.7028  0.0999
33408SOL    HW2 7083   7.520   5.938   7.640 -2.5059 -1.2591  0.6719
33409SOL     OW 7084   6.209   5.535   0.215  0.1467  0.3362  0.2787
33409SOL    HW1 7085   6.218   5.444   0.244 -2.3057 -0.1714 -0.2896
33409SOL    HW2 7086   6.116   5.555   0.228  0.5162  2.5879 -0.1318
33410SOL     OW 7087   2.930   1.562   9.616 -0.0220 -0.3327 -0.1475
33410SOL    HW1 7088   2.973   1.535   9.535 -0.1746 -0.0508 -0.3249
33410SOL    HW2 7089   2.841   1.587   9.589 -0.4941 -1.4419  0.2893
33411SOL     OW 7090   8.230   0.282   3.791 -0.2649 -0.2916  0.0990
33411SOL    HW1 7091   8.280   0.337   3.732 -0.3722  1.3309  1.4319
33411SOL    HW2 7092   8.283   0.277   3.870 -1.9554  1.2496  1.4438
33412SOL     OW 7093   4.598   7.095   7.042  0.1314 -0.1307 -0.1624
33412SOL    HW1 7094   4.566   7.184   7.034 -1.8951 -0.8596 -0.8058
33412SOL    HW2 7095   4.590   7.058   6.954  0.9546 -0.9542  0.0872
33413SOL     OW 7096  12.551   8.969  11.678  1.1040  0.6787  0.2544
33413SOL    HW1 7097  12.606   8.905  11.723  1.5494 -0.0667 -1.3039
33413SOL    HW2 7098  12.613   9.024  11.629  0.5009 -0.5829 -2.0566
33414SOL     OW 7099   4.078   0.393   0.756  0.0823 -0.2270  0.3558
33414SOL    HW1 7100   3.993   0.370   0.795 -0.1087 -0.6359 -0.2705
33414SOL    HW2 7101   4.108   0.469   0.806 -0.7267  0.0147  0.4964
33415SOL     OW 7102  12.338   5.254   6.128  0.3749  0.9435 -0.7221
33415SOL    HW1 7103  12.318   5.181   6.186 -1.3771  2.5681  0.8452
33415SOL    HW2 7104  12.367   5.324   6.186  2.9118  1.2997 -2.2555
33416SOL     OW 7105   6.270  10.155   2.222 -0.3339  0.0800 -0.1358
33416SOL    HW1 7106   6.189  10.196   2.252  0.5058  0.8678  1.1552
33416SOL    HW2 7107   6.241  10.085   2.163 -1.8813  1.3118 -0.9134
33417SOL     OW 7108   1.889   7.379   3.098  0.3307  0.1489 -0.1050
33417SOL    HW1 7109   1.816   7.424   3.140  0.6583 -0.1167  0.7753
33417SOL    HW2 7110   1.931   7.447   3.044  1.8664  1.4804  2.5388
33418SOL     OW 7111   7.305   2.143  11.108  0.4450 -0.0053 -0.0731
33418SOL    HW1 7112   7.370   2.111  11.046 -0.1145 -1.4900  0.0440
33418SOL    HW2 7113   7.295   2.071  11.171 -0.1971  0.8072  0.7851
33419SOL     OW 7114   8.960   2.514  10.568  0.1347  0.5052 -0.3107
33419SOL    HW1 7115   8.965   2.523  10.663 -0.0266 -0.5536 -0.1886
33419SOL    HW2 7116   9.035   2.458  10.546 -1.3934 -1.6329 -0.4349
33420SOL     OW 7117  12.533   8.298   0.456  0.0464 -0.7351  0.4676
33420SOL    HW1 7118  12.515   8.268   0.545 -0.4141 -0.2455  0.5459
33420SOL    HW2 7119  12.461   8.358   0.436 -0.2180 -1.3324 -0.4701
33421SOL     OW 7120   5.248   4.230   1.098 -0.1010  0.0624  0.0181
33421SOL    HW1 7121   5.224   4.309   1.051  0.5755  0.3301  0.1089
33421SOL    HW2 7122   5.343   4.234   1.104 -0.0707 -0.7056  0.1186
33422SOL     OW 7123  10.914   7.939  12.324 -0.2956 -0.0898  0.1456
33422SOL    HW1 7124  10.888   8.002  12.392 -1.4409 -0.0081 -0.3471
33422SOL    HW2 7125  11.006   7.959  12.307 -0.3729  0.7934  0.6970
33423SOL     OW 7126   3.658   8.494   7.907 -0.0334 -0.6244  0.3111
33423SOL    HW1 7127   3.690   8.580   7.879  1.0480 -1.7261 -2.1719
33423SOL    HW2 7128   3.668   8.495   8.002  1.2291  1.5084  0.2286
33424SOL     OW 7129   6.144   0.421  11.572  0.3458  0.0604  0.0378
33424SOL    HW1 7130   6.110   0.343  11.617 -0.4984 -0.0209 -0.7298
33424SOL    HW2 7131   6.079   0.441  11.505  1.6754  0.0353 -1.3173
33425SOL     OW 7132   4.464   8.624  12.411  0.7342  0.4594  0.1904
33425SOL    HW1 7133   4.539   8.675  12.441  0.6288  0.7502 -0.0367
33425SOL    HW2 7134   4.498   8.571  12.340  0.8920  0.0605  0.5592
33426SOL     OW 7135   8.300   6.221   9.935 -0.4690  0.1407 -0.0879
33426SOL    HW1 7136   8.244   6.151   9.969  0.6240 -0.2471  0.9759
33426SOL    HW2 7137   8.369   6.175   9.887 -1.0684  0.6220 -1.4750
33427SOL     OW 7138   1.790   4.836   9.718 -0.3447  0.0465 -0.2362
33427SOL    HW1 7139   1.836   4.914   9.686 -1.1854  1.1737  1.2042
33427SOL    HW2 7140   1.857   4.785   9.763  0.3201 -0.3573 -1.6168
33428SOL     OW 7141   9.722   8.678   1.638  0.0990  0.0511  0.2051
33428SOL    HW1 7142   9.678   8.625   1.572  0.3759 -1.4844  1.2060
33428SOL    HW2 7143   9.660   8.680   1.712  1.0632 -0.8866  1.0673
33429SOL     OW 7144   6.539  10.663  11.524 -0.0319  0.3023  0.2746
33429SOL    HW1 7145   6.619  10.612  11.536 -0.0112  0.3966  0.5634
33429SOL    HW2 7146   6.472  10.612  11.570  0.1080  0.8196  1.0855
33430SOL     OW 7147   3.868   7.687   2.489 -0.1113 -0.1705 -0.3184
33430SOL    HW1 7148   3.862   7.782   2.481 -1.8262  0.1701  3.2146
33430SOL    HW2 7149   3.796   7.655   2.434 -0.1926  0.6230 -0.6986
33431SOL     OW 7150   7.821  11.449  11.607  0.6616  0.4118  0.0105
33431SOL    HW1 7151   7.802  11.543  11.596 -1.7232 -0.0500 -0.3048
33431SOL    HW2 7152   7.755  11.419  11.670 -0.3556 -1.5677 -1.8693
33432SOL     OW 7153   3.448   2.702  10.922 -0.3051  0.0002 -0.3401
33432SOL    HW1 7154   3.538   2.724  10.900  0.0268 -0.5548  0.4024
33432SOL    HW2 7155   3.398   2.781  10.904  0.1986  0.0771 -1.4871
33433SOL     OW 7156   8.396   6.822   8.527 -0.7454  0.0507  0.0864
33433SOL    HW1 7157   8.423   6.888   8.462  0.0234 -0.8233 -0.5080
33433SOL    HW2 7158   8.426   6.857   8.611  0.7980 -0.0901 -0.3658
33434SOL     OW 7159   0.416   5.439   0.114  0.3969  0.1591 -0.9013
33434SOL    HW1 7160   0.322   5.440   0.097  0.2514  3.4576 -0.4918
33434SOL    HW2 7161   0.424   5.413   0.206 -0.0850 -0.2787 -0.9788
33435SOL     OW 7162  12.025   3.062   8.176  0.1361 -0.4624 -0.0720
33435SOL    HW1 7163  12.029   3.141   8.230 -1.1138 -0.0320 -0.5695
33435SOL    HW2 7164  12.055   2.992   8.233 -3.2927 -0.4389  2.0754
33436SOL     OW 7165   9.743   5.265   4.692  0.0382 -1.1000 -0.0161
33436SOL    HW1 7166   9.655   5.280   4.658  0.5538  0.8374 -0.6187
33436SOL    HW2 7167   9.791   5.227   4.619  0.6060  1.2049 -0.9491
33437SOL     OW 7168   3.288   1.783   3.029 -0.1195 -0.2692 -0.2036
33437SOL    HW1 7169   3.209   1.768   3.080  1.1687 -1.1291  1.6534
33437SOL    HW2 7170   3.282   1.721   2.956 -1.0347 -0.4809  0.0420
33438SOL     OW 7171   2.236   6.189   3.459  0.0037 -0.1016 -0.0257
33438SOL    HW1 7172   2.229   6.152   3.547 -0.2152 -0.8965 -0.3646
33438SOL    HW2 7173   2.292   6.266   3.469  2.4916 -1.8190  0.3515
33439SOL     OW 7174   1.631   8.558  11.311 -0.2069 -0.3654 -0.2225
33439SOL    HW1 7175   1.717   8.524  11.336 -0.0650 -1.7657 -2.3527
33439SOL    HW2 7176   1.641   8.653  11.315  1.3414 -0.5072 -0.0895
33440SOL     OW 7177   9.445  10.904  11.104  0.2107 -0.1504  0.3833
33440SOL    HW1 7178   9.469  10.812  11.102  0.6540 -0.0315  0.0579
33440SOL    HW2 7179   9.436  10.928  11.012  0.6473  0.2688  0.4454
33441SOL     OW 7180   3.498   1.020   7.923 -0.5716  0.2219 -0.3339
33441SOL    HW1 7181   3.476   1.090   7.984  2.0375  0.3688  0.5767
33441SOL    HW2 7182   3.564   1.058   7.865 -1.1159 -0.6987 -1.6164
33442SOL     OW 7183   0.528   9.195   9.663  0.6438 -0.7246 -0.2844
33442SOL    HW1 7184   0.490   9.254   9.728  0.0297 -2.4865  1.0518
33442SOL    HW2 7185   0.592   9.248   9.617  0.1168  0.9711  0.8404
33443SOL     OW 7186  11.763   0.807  11.915 -0.0254 -0.1676  0.2472
33443SOL    HW1 7187  11.824   0.869  11.877  0.4453 -0.6277  0.2417
33443SOL    HW2 7188  11.693   0.861  11.953 -0.3283  0.3074 -0.9606
33444SOL     OW 7189   1.873   8.779   1.071 -0.0529 -0.4763  0.1796
33444SOL    HW1 7190   1.878   8.848   1.137 -2.4548  1.4234 -1.4280
33444SOL    HW2 7191   1.938   8.804   1.005  0.8198 -1.1779  0.7506
33445SOL     OW 7192  10.032   3.140   7.444 -0.4253  0.6351 -0.4184
33445SOL    HW1 7193  10.032   3.224   7.398  0.2292  0.2590 -1.1465
33445SOL    HW2 7194  10.055   3.076   7.376  0.4043  0.0421  0.3999
33446SOL     OW 7195   3.251   5.785   9.275 -0.3907  0.0376 -0.1836
33446SOL    HW1 7196   3.319   5.727   9.310 -1.3555 -1.2185 -0.3029
33446SOL    HW2 7197   3.171   5.733   9.278 -0.8809  0.5182 -2.4710
33447SOL     OW 7198   2.439   5.726   2.900  0.2187 -0.2519 -0.1082
33447SOL    HW1 7199   2.441   5.661   2.829 -1.2496  1.4177 -1.7921
33447SOL    HW2 7200   2.524   5.769   2.896 -0.4789  1.1281 -2.2648
33448SOL     OW 7201   1.772   0.199   8.392  0.2976  0.2467  0.2579
33448SOL    HW1 7202   1.782   0.162   8.304  2.8779 -0.9201  0.9413
33448SOL    HW2 7203   1.843   0.263   8.400 -1.6595  2.5012  0.5454
33449SOL     OW 7204  10.725   5.448   9.261  1.0775 -0.1439  0.0056
33449SOL    HW1 7205  10.663   5.441   9.188  0.3563  1.1452  0.4854
33449SOL    HW2 7206  10.791   5.381   9.241  1.3578  0.7096 -2.2876
33450SOL     OW 7207  10.480  11.709   4.312 -0.2510 -0.1187  0.0704
33450SOL    HW1 7208  10.552  11.664   4.268 -0.3136 -0.4364  0.2848
33450SOL    HW2 7209  10.415  11.640   4.327  0.6821 -0.5501  2.6451
33451SOL     OW 7210   7.350   1.958  12.303 -0.5295 -0.1761  0.5239
33451SOL    HW1 7211   7.307   1.963  12.217 -0.7998  0.2315  0.6753
33451SOL    HW2 7212   7.395   2.042  12.311  0.9470 -0.8889  0.0444
33452SOL     OW 7213   6.318   9.149  11.055  0.5826  0.0042  0.5344
33452SOL    HW1 7214   6.268   9.204  11.115  1.0340  1.5499 -0.4366
33452SOL    HW2 7215   6.403   9.193  11.048  0.3262  0.2760 -1.7122
33453SOL     OW 7216   5.642   8.118  10.244  0.4420 -0.1090  0.2335
33453SOL    HW1 7217   5.627   8.068  10.324  1.4832  0.2552  0.6755
33453SOL    HW2 7218   5.655   8.051  10.177 -0.2492 -0.4196  0.3978
33454SOL     OW 7219   6.623   9.118   5.208  0.0615 -0.4316 -0.1364
33454SOL    HW1 7220   6.699   9.081   5.162 -0.3300 -1.2714 -0.1157
33454SOL    HW2 7221   6.623   9.074   5.293 -0.7546 -0.8344 -0.3366
33455SOL     OW 7222   9.688   4.973  11.320 -0.5740  0.4093 -0.0558
33455SOL    HW1 7223   9.771   4.931  11.299 -0.1656  1.4211 -0.5526
33455SOL    HW2 7224   9.642   4.979  11.236 -0.8979  0.3840  0.1171
33456SOL     OW 7225   3.419  11.801   5.260  0.0532 -0.3024 -0.2580
33456SOL    HW1 7226   3.403  11.758   5.344 -0.8802 -1.8490 -1.1662
33456SOL    HW2 7227   3.513  11.816   5.259  0.3724 -1.9695  0.3334
33457SOL     OW 7228   9.082   2.251   2.208  0.3339 -0.3850 -0.0281
33457SOL    HW1 7229   9.171   2.284   2.209  0.4466 -0.7069  0.6675
33457SOL    HW2 7230   9.091   2.157   2.194  0.1051 -0.4297  0.1175
33458SOL     OW 7231   7.798  11.450   6.382 -0.1345  0.4381  0.2246
33458SOL    HW1 7232   7.726  11.403   6.338  0.8172 -0.8565 -0.0060
33458SOL    HW2 7233   7.854  11.480   6.312 -1.6304  3.6457  0.2217
33459SOL     OW 7234  12.394   6.171   7.037  0.2211  0.3427  0.1518
33459SOL    HW1 7235  12.330   6.219   7.090  0.9696  1.6540 -0.0847
33459SOL    HW2 7236  12.341   6.124   6.972 -0.5367  0.8542  0.3842
33460SOL     OW 7237   8.472   4.933   9.265  0.4765  0.6349 -0.1109
33460SOL    HW1 7238   8.493   4.993   9.337  1.1275 -0.8699  0.9919
33460SOL    HW2 7239   8.395   4.885   9.296  0.0994  0.7154 -0.8900
33461SOL     OW 7240   2.517  10.147   5.450 -0.1723  0.1751  0.1031
33461SOL    HW1 7241   2.448  10.092   5.486  1.1374 -0.6678  1.4457
33461SOL    HW2 7242   2.569  10.174   5.527 -0.6372  3.1627 -0.4985
33462SOL     OW 7243   2.786   3.925   7.829 -1.2896 -0.3044  0.0276
33462SOL    HW1 7244   2.709   3.934   7.885 -0.9052  0.5832  0.4447
33462SOL    HW2 7245   2.805   4.015   7.801 -1.6449 -0.7493 -1.7796
33463SOL     OW 7246   0.933   1.987   5.383  0.1127 -0.0986 -0.3188
33463SOL    HW1 7247   0.842   1.987   5.354  0.0103  0.2520 -0.0062
33463SOL    HW2 7248   0.931   2.031   5.468  0.4271 -1.0020  0.1667
33464SOL     OW 7249   1.812   7.502  12.373  0.3319  0.0978  0.4119
33464SOL    HW1 7250   1.889   7.446  12.363 -1.8324 -3.2445  0.8278
33464SOL    HW2 7251   1.762   7.489  12.292 -0.8447  0.3919  1.0711
33465SOL     OW 7252   8.606   7.798   7.379 -0.1571  0.0356 -0.4215
33465SOL    HW1 7253   8.662   7.739   7.430 -0.4079 -0.9829 -1.2865
33465SOL    HW2 7254   8.660   7.822   7.303  0.6403  2.4535  0.8134
33466SOL     OW 7255   9.281   7.740   3.128 -0.0696 -0.3892 -0.0672
33466SOL    HW1 7256   9.274   7.831   3.096 -3.4844 -1.0238 -1.6291
33466SOL    HW2 7257   9.308   7.749   3.219 -0.0208  2.1712 -0.2409
33467SOL     OW 7258  11.211   1.028  11.749 -0.1918  0.8075 -0.7502
33467SOL    HW1 7259  11.188   0.981  11.829 -0.6240  0.7327 -0.9189
33467SOL    HW2 7260  11.134   1.082  11.730  0.6634  2.3727  0.0116
33468SOL     OW 7261  10.359   9.010   2.704  0.0521  0.6148  0.3256
33468SOL    HW1 7262  10.304   9.025   2.782 -0.3393 -0.1910  0.2191
33468SOL    HW2 7263  10.326   8.928   2.667  1.3689  0.0742  0.2862
33469SOL     OW 7264   4.200   9.755   8.583 -0.2487  1.0440  0.4276
33469SOL    HW1 7265   4.105   9.743   8.575  0.0566 -1.9309 -0.1394
33469SOL    HW2 7266   4.216   9.845   8.557 -2.8790  1.4960  0.1299
33470SOL     OW 7267   0.651   1.463  12.070 -0.1633 -0.1983 -0.2057
33470SOL    HW1 7268   0.597   1.540  12.051  0.3298 -0.0689 -1.0948
33470SOL    HW2 7269   0.736   1.499  12.097 -1.1425 -0.2995  3.6520
33471SOL     OW 7270   6.636   3.976   0.454 -0.3529  0.7707  0.7114
33471SOL    HW1 7271   6.596   3.975   0.367  1.1243  1.1721  0.0003
33471SOL    HW2 7272   6.680   3.891   0.460 -1.8565  0.0152  1.7902
33472SOL     OW 7273   8.168   1.319   4.756 -0.2475  0.2078 -0.0125
33472SOL    HW1 7274   8.251   1.337   4.713  1.0073  0.5826  2.3616
33472SOL    HW2 7275   8.103   1.319   4.686  1.6331  0.6807 -1.8404
33473SOL     OW 7276   1.302   0.915   4.872  0.2401 -0.2174 -0.3916
33473SOL    HW1 7277   1.212   0.910   4.840  0.5366  0.1258 -1.3101
33473SOL    HW2 7278   1.293   0.925   4.967 -0.6817 -0.4392 -0.4461
33474SOL     OW 7279   8.889  11.210   0.255  0.4896  0.0635 -0.2136
33474SOL    HW1 7280   8.877  11.117   0.236 -0.1198 -0.1744  1.2168
33474SOL    HW2 7281   8.836  11.254   0.189  0.7386 -0.5975 -0.8740
33475SOL     OW 7282   7.995   2.584   9.182 -0.5470 -0.2703 -0.5358
33475SOL    HW1 7283   7.984   2.491   9.167 -1.2046 -0.1233 -1.0105
33475SOL    HW2 7284   8.081   2.592   9.224 -0.3908 -1.0611 -0.6977
33476SOL     OW 7285   9.580   2.489   5.043  0.8846  0.4926 -0.8086
33476SOL    HW1 7286   9.622   2.403   5.041  1.4453  0.7227  0.4612
33476SOL    HW2 7287   9.497   2.475   5.088  0.3946  0.3939 -1.7096
33477SOL     OW 7288  10.055  10.770   9.734  0.2147  0.5662 -0.7558
33477SOL    HW1 7289   9.976  10.729   9.769 -0.1600  0.8843 -1.2090
33477SOL    HW2 7290  10.034  10.863   9.732  0.0175  0.5065 -2.3328
33478SOL     OW 7291   0.565   1.622  11.761 -0.7667  0.3358 -0.3578
33478SOL    HW1 7292   0.552   1.639  11.854 -1.1340  1.3076 -0.5764
33478SOL    HW2 7293   0.569   1.709  11.721  1.2972 -0.0033 -1.0030
33479SOL     OW 7294   4.582   0.075   7.026  0.0169 -0.0728  0.5259
33479SOL    HW1 7295   4.638   0.030   6.962  0.0425  1.6366 -0.7219
33479SOL    HW2 7296   4.571   0.163   6.990 -0.4853  0.7570  2.6118
33480SOL     OW 7297   2.032  11.247   7.524  0.4610  0.2776  0.0954
33480SOL    HW1 7298   2.063  11.330   7.561 -0.2820  1.2354 -1.3009
33480SOL    HW2 7299   2.098  11.223   7.459  1.5037 -1.1246  1.6049
33481SOL     OW 7300   2.199   2.606   1.675  0.6761  0.5693 -0.4099
33481SOL    HW1 7301   2.265   2.651   1.728  0.2009  0.9480 -0.1263
33481SOL    HW2 7302   2.169   2.673   1.614  0.6747  0.3497 -0.6506
33482SOL     OW 7303   2.919   3.402   9.201 -0.4521  0.3128  0.6714
33482SOL    HW1 7304   2.972   3.406   9.121  1.7484 -2.5805  1.8287
33482SOL    HW2 7305   2.957   3.468   9.258 -0.3067  0.5719  0.2807
33483SOL     OW 7306   3.178  11.255   3.030  0.1864  0.3146  0.2201
33483SOL    HW1 7307   3.183  11.339   3.075  1.9679  0.1077  0.4841
33483SOL    HW2 7308   3.264  11.215   3.042 -0.0634 -0.8268 -1.3105
33484SOL     OW 7309  12.353  12.530   9.666  0.5070  0.1775  0.2891
33484SOL    HW1 7310  12.436  12.574   9.646  0.1150  0.7841 -0.0645
33484SOL    HW2 7311  12.375  12.437   9.670  1.5478  0.4659  2.0482
33485SOL     OW 7312   7.092   1.089   0.045 -0.2265  0.3187  0.4800
33485SOL    HW1 7313   7.002   1.122   0.047 -0.3024  0.2849 -1.1707
33485SOL    HW2 7314   7.134   1.129   0.121 -1.1561  1.7627  0.2698
33486SOL     OW 7315   7.024   2.962   6.133 -0.3193 -0.6096  0.3051
33486SOL    HW1 7316   6.931   2.944   6.122 -0.2782 -1.6748  1.5701
33486SOL    HW2 7317   7.027   3.036   6.193 -0.3418 -0.5268  0.2054
33487SOL     OW 7318   9.187   2.026   7.973 -0.1328 -0.2591  0.0008
33487SOL    HW1 7319   9.224   1.961   8.032 -0.0072 -0.0667  0.1332
33487SOL    HW2 7320   9.248   2.099   7.976 -1.0595  0.5029  1.0545
33488SOL     OW 7321   9.321   8.837  10.324  0.0932  0.1287 -0.0620
33488SOL    HW1 7322   9.339   8.928  10.300  1.6525 -0.2239 -0.3367
33488SOL    HW2 7323   9.296   8.842  10.416  1.1197  0.7612  0.2048
33489SOL     OW 7324   0.684   5.431   8.790  0.0923 -0.0689 -0.2352
33489SOL    HW1 7325   0.647   5.513   8.821 -0.1473 -0.4752  0.5854
33489SOL    HW2 7326   0.778   5.447   8.786  0.1519 -0.0824  0.9606
33490SOL     OW 7327   9.589   7.742   7.085 -0.4266 -0.0319 -0.0308
33490SOL    HW1 7328   9.572   7.828   7.046 -1.9153 -0.0965  0.3987
33490SOL    HW2 7329   9.632   7.692   7.015  0.8711  1.1742 -0.1386
33491SOL     OW 7330  10.420   0.393   9.055 -0.3311  0.4490 -0.1682
33491SOL    HW1 7331  10.446   0.337   9.127 -0.6489  1.7498  0.9997
33491SOL    HW2 7332  10.333   0.362   9.030  0.0421 -0.4091 -0.4338
33492SOL     OW 7333   9.676   3.599  11.687  0.7533 -0.0170 -0.2788
33492SOL    HW1 7334   9.603   3.545  11.718  0.2499  0.0389 -1.3438
33492SOL    HW2 7335   9.642   3.688  11.688  0.4961 -0.0873 -1.6323
33493SOL     OW 7336   6.030  10.335   7.805  0.7234 -0.0540 -0.2254
33493SOL    HW1 7337   5.971  10.267   7.837  1.0304 -0.6389 -0.8949
33493SOL    HW2 7338   6.096  10.344   7.874  0.6526 -0.3967 -0.1116
33494SOL     OW 7339   4.687   2.832   8.523 -0.4457  0.2288  0.2546
33494SOL    HW1 7340   4.638   2.750   8.526 -1.4483  0.7947 -0.2442
33494SOL    HW2 7341   4.773   2.810   8.560 -0.5823 -1.1124 -0.1866
33495SOL     OW 7342  12.262   7.955   3.027 -0.4476  0.5431 -0.1664
33495SOL    HW1 7343  12.174   7.927   3.002 -0.5922 -0.5654  1.3842
33495SOL    HW2 7344  12.280   8.032   2.973 -0.4304 -1.8901 -3.9779
33496SOL     OW 7345   4.739   4.239   0.821  0.2371 -0.0265  0.5215
33496SOL    HW1 7346   4.768   4.206   0.906 -0.6098  1.0172  1.2466
33496SOL    HW2 7347   4.819   4.242   0.768  0.7814 -0.6798  1.2785
33497SOL     OW 7348   2.055   7.780  12.157  0.0554  0.7979  0.3701
33497SOL    HW1 7349   2.122   7.847  12.171  0.1854  1.3813 -2.4278
33497SOL    HW2 7350   1.976   7.830  12.134 -0.1560  0.0389 -0.6008
33498SOL     OW 7351   0.269   6.933  10.484  0.0689  0.5252 -0.6391
33498SOL    HW1 7352   0.211   6.957  10.556 -0.2580 -1.9438  0.0181
33498SOL    HW2 7353   0.209   6.906  10.413  0.3880 -0.4502 -0.5478
33499SOL     OW 7354   2.612   8.149  11.503  0.0416  0.1843  0.6747
33499SOL    HW1 7355   2.631   8.233  11.545  0.7666  0.8289 -0.8643
33499SOL    HW2 7356   2.698   8.114  11.481 -0.3203 -0.1195 -0.2734
33500SOL     OW 7357   2.115   6.724   7.272  0.0289 -0.5621 -0.1333
33500SOL    HW1 7358   2.149   6.698   7.187  1.6315  0.4349  0.1519
33500SOL    HW2 7359   2.193   6.736   7.326 -0.8576  0.4200  0.9891
33501SOL     OW 7360   1.273   0.415   2.884 -0.2157 -0.1250 -0.2086
33501SOL    HW1 7361   1.193   0.386   2.927  0.8135 -0.1947  1.7800
33501SOL    HW2 7362   1.314   0.334   2.852  0.0433 -0.3067  0.5763
33502SOL     OW 7363   7.397  11.090  10.025  0.0205  0.0647 -0.2882
33502SOL    HW1 7364   7.333  11.089  10.096  1.9493  2.1745  1.6828
33502SOL    HW2 7365   7.388  11.177   9.986 -0.4829 -0.7917 -2.1960
33503SOL     OW 7366   4.065   9.052   2.029 -0.6135  0.2997 -0.2315
33503SOL    HW1 7367   4.079   8.957   2.023 -1.6658  0.1186 -0.0852
33503SOL    HW2 7368   4.042   9.067   2.121 -0.4473  0.6949 -0.2524
33504SOL     OW 7369   1.935   6.784  11.838 -0.4644  0.0446 -0.3370
33504SOL    HW1 7370   2.002   6.732  11.883 -0.6762 -1.2070 -1.4147
33504SOL    HW2 7371   1.867   6.721  11.814 -1.8924  1.2270  0.4047
33505SOL     OW 7372  11.676   3.612   1.248  0.0472  0.6702 -0.4518
33505SOL    HW1 7373  11.761   3.614   1.292  1.2060  2.0540 -2.5536
33505SOL    HW2 7374  11.640   3.700   1.261 -0.4985  0.4759 -0.6142
33506SOL     OW 7375   4.257   9.005   9.713  0.5018  0.3605  0.2651
33506SOL    HW1 7376   4.349   9.026   9.727  0.3535  0.7611  0.6535
33506SOL    HW2 7377   4.240   9.030   9.622  0.8143  0.1436  0.1477
33507SOL     OW 7378   4.241   4.509   7.248 -0.4562 -0.2841  0.0973
33507SOL    HW1 7379   4.289   4.582   7.211 -0.7863 -0.2656 -0.2940
33507SOL    HW2 7380   4.183   4.479   7.178 -1.5953  0.1991  0.8051
33508SOL     OW 7381   2.875   9.606   7.918 -0.0061 -0.3137  0.1671
33508SOL    HW1 7382   2.858   9.541   7.987 -0.1189  1.1576  1.5626
33508SOL    HW2 7383   2.816   9.678   7.938  0.5316  0.4790 -1.0339
33509SOL     OW 7384   9.495   8.105   0.755  0.2474 -0.1761  0.0129
33509SOL    HW1 7385   9.458   8.181   0.800  1.5302  0.4041  0.1106
33509SOL    HW2 7386   9.529   8.050   0.826  0.8296 -0.0287 -0.1491
33510SOL     OW 7387   3.035  11.898   1.206 -0.3220  0.0839 -0.1890
33510SOL    HW1 7388   2.944  11.909   1.236 -0.8834  0.6778 -1.9365
33510SOL    HW2 7389   3.027  11.885   1.111  1.3601 -1.1289 -0.2046
33511SOL     OW 7390   4.462   3.951   6.714 -0.2365  0.2929  0.4565
33511SOL    HW1 7391   4.455   3.934   6.620  1.7678  0.6558  0.1924
33511SOL    HW2 7392   4.450   3.865   6.754  0.3984 -0.1430 -0.2470
33512SOL     OW 7393   6.180   4.555   2.360  0.2255 -0.1242  0.2338
33512SOL    HW1 7394   6.208   4.469   2.392  0.2319 -0.8196 -1.5701
33512SOL    HW2 7395   6.085   4.555   2.375  0.1832 -0.5567 -0.0134
33513SOL     OW 7396   2.856   0.199   2.755 -0.6906  0.4921 -0.0856
33513SOL    HW1 7397   2.841   0.214   2.848 -1.6520  1.3949 -0.3659
33513SOL    HW2 7398   2.873   0.106   2.748  0.5627  0.6008  1.1338
33514SOL     OW 7399   3.398   2.898  11.268  0.0426  0.7626  0.2514
33514SOL    HW1 7400   3.468   2.959  11.289  0.6842  0.3046 -0.5065
33514SOL    HW2 7401   3.317   2.949  11.278  0.4153  1.1053  1.8457
33515SOL     OW 7402   0.957   9.962   7.189 -0.9629  0.4474 -0.3357
33515SOL    HW1 7403   0.875   9.998   7.223 -1.9397 -1.3449 -0.7043
33515SOL    HW2 7404   0.948   9.968   7.094 -0.8283 -0.0882 -0.3853
33516SOL     OW 7405   1.778   0.827   3.961 -0.4979 -0.1151  0.8928
33516SOL    HW1 7406   1.793   0.904   4.015  1.3954  0.6320 -0.5559
33516SOL    HW2 7407   1.787   0.753   4.021 -0.7870  0.7354  2.0159
33517SOL     OW 7408   6.325   1.642  12.216  0.5928 -0.4110 -0.3791
33517SOL    HW1 7409   6.231   1.623  12.216  0.2222  1.2588  0.8504
33517SOL    HW2 7410   6.357   1.602  12.135 -1.2927 -0.4206 -1.1790
33518SOL     OW 7411   8.691   4.494  10.666 -0.4369  0.4682 -0.6941
33518SOL    HW1 7412   8.759   4.485  10.733 -0.3882  1.1086 -0.6536
33518SOL    HW2 7413   8.628   4.555  10.703 -0.5013  0.6904 -1.1540
33519SOL     OW 7414   3.837  11.797   2.942 -0.3614 -0.0436  0.0304
33519SOL    HW1 7415   3.900  11.867   2.956  3.0114 -2.2361 -2.5492
33519SOL    HW2 7416   3.808  11.808   2.852 -1.0981 -1.0059  0.1285
33520SOL     OW 7417   5.680   3.669   3.761  0.0399 -0.1108 -0.6629
33520SOL    HW1 7418   5.726   3.607   3.817 -1.0887  0.0833  0.5455
33520SOL    HW2 7419   5.588   3.661   3.788 -0.5022  0.1522 -2.3637
33521SOL     OW 7420   0.399   6.862   7.539  0.1205 -0.7918  0.2014
33521SOL    HW1 7421   0.439   6.787   7.584  1.1695 -0.9815 -1.0024
33521SOL    HW2 7422   0.328   6.824   7.488 -1.6119 -0.4710  2.2428
33522SOL     OW 7423   1.128   6.798   8.967 -0.0187 -0.5121  0.0647
33522SOL    HW1 7424   1.093   6.783   9.055  0.2900 -1.9749 -0.0443
33522SOL    HW2 7425   1.053   6.785   8.908  0.0109 -0.5856  0.0427
33523SOL     OW 7426  11.432   2.938   3.553 -0.0135  0.2943 -0.1760
33523SOL    HW1 7427  11.521   2.908   3.535 -0.3901 -0.3807 -0.9948
33523SOL    HW2 7428  11.443   3.022   3.598  1.0420 -0.2211  0.5536
33524SOL     OW 7429   2.407   2.662   4.627 -0.0766 -0.0658 -0.4244
33524SOL    HW1 7430   2.325   2.641   4.581  0.8472 -2.3453 -1.1916
33524SOL    HW2 7431   2.379   2.716   4.701 -2.2486 -0.4871 -0.8473
33525SOL     OW 7432   4.758   9.307   8.544  0.6540  0.2209  0.1745
33525SOL    HW1 7433   4.851   9.309   8.521  0.7199 -1.2938  0.2164
33525SOL    HW2 7434   4.718   9.249   8.479  0.2586 -1.4247  1.8113
33526SOL     OW 7435   4.009  10.158   9.717 -0.1239 -0.3624 -0.0161
33526SOL    HW1 7436   3.973  10.207   9.791  2.5098  1.1564  0.3755
33526SOL    HW2 7437   4.048  10.080   9.757 -1.6296 -1.3144 -0.2901
33527SOL     OW 7438   8.250  10.363   0.526  0.3954  0.1943  0.1557
33527SOL    HW1 7439   8.183  10.332   0.587  2.3721 -1.7495  1.5381
33527SOL    HW2 7440   8.213  10.350   0.439 -1.6682  0.9392  0.8760
33528SOL     OW 7441   5.864   5.738   8.700  0.1135  0.1720  0.1329
33528SOL    HW1 7442   5.932   5.743   8.767  0.8540  0.9539 -0.6481
33528SOL    HW2 7443   5.794   5.685   8.740  1.0863 -0.4730  1.0210
33529SOL     OW 7444   4.265   6.476   2.522  0.0576 -0.5101  0.1281
33529SOL    HW1 7445   4.291   6.449   2.610  0.4997 -2.0933 -0.4547
33529SOL    HW2 7446   4.347   6.491   2.476 -0.1731  0.5921  0.0452
33530SOL     OW 7447   3.796   6.119  10.946  0.3831 -0.1501 -0.0711
33530SOL    HW1 7448   3.769   6.051  11.007  2.4720 -0.1728  0.9390
33530SOL    HW2 7449   3.814   6.073  10.864 -2.3055 -0.1382 -0.7540
33531SOL     OW 7450   0.434   1.154   9.043  0.5051 -0.3643 -0.3991
33531SOL    HW1 7451   0.367   1.156   9.112 -0.3805 -0.8705 -1.2070
33531SOL    HW2 7452   0.384   1.139   8.962  1.5457 -0.0930 -1.1108
33532SOL     OW 7453   6.842  10.237  10.337 -0.1290 -0.1294  0.4574
33532SOL    HW1 7454   6.918  10.189  10.370 -0.6576 -1.0133  0.4218
33532SOL    HW2 7455   6.796  10.265  10.416 -0.7799 -1.2601  0.5107
33533SOL     OW 7456   9.717   8.382   9.866 -0.8907  0.3302  0.0326
33533SOL    HW1 7457   9.699   8.290   9.847 -3.1241  0.5995  0.5939
33533SOL    HW2 7458   9.668   8.401   9.945  0.0355  1.8659  0.2880
33534SOL     OW 7459   8.911   3.383   8.601 -0.0725 -0.3871  0.0217
33534SOL    HW1 7460   8.915   3.298   8.644 -1.2503 -1.7185 -2.2677
33534SOL    HW2 7461   8.969   3.374   8.525  1.1316  1.4905  0.6482
33535SOL     OW 7462   4.834   3.940   3.023 -0.4552  0.5206 -0.2006
33535SOL    HW1 7463   4.908   3.915   3.078  0.2191  0.5399 -1.0742
33535SOL    HW2 7464   4.767   3.873   3.040  0.5800 -0.7663 -1.0267
33536SOL     OW 7465  12.510   9.057  12.186  0.4676  0.1409 -0.2482
33536SOL    HW1 7466  12.530   9.027  12.275  2.9185  0.5900 -0.5868
33536SOL    HW2 7467  12.424   9.018  12.167  2.0604 -4.2068  0.4111
33537SOL     OW 7468   2.383  11.549   5.331  0.0593  0.1646 -0.2685
33537SOL    HW1 7469   2.468  11.534   5.290 -0.4150  1.1860 -1.6927
33537SOL    HW2 7470   2.335  11.602   5.268 -1.5375 -0.1412  0.6443
33538SOL     OW 7471   7.383   6.898   6.593  0.5867  0.1315  0.0491
33538SOL    HW1 7472   7.433   6.821   6.620 -1.2513 -0.7207  1.1775
33538SOL    HW2 7473   7.292   6.878   6.615  0.0495  2.6778  0.4949
33539SOL     OW 7474   9.058   1.472  11.102 -0.1248 -0.2502  0.3498
33539SOL    HW1 7475   9.047   1.563  11.071 -0.2343  0.1021  1.3814
33539SOL    HW2 7476   9.103   1.481  11.186  1.0500 -1.2498 -0.1509
33540SOL     OW 7477   8.423   5.121   4.678  0.1463 -0.2607  0.1564
33540SOL    HW1 7478   8.337   5.154   4.652  0.5101  0.7753  0.2248
33540SOL    HW2 7479   8.481   5.147   4.606  0.3795 -1.0984  0.0310
33541SOL     OW 7480   7.365  10.258   0.358  0.0169 -0.1543 -0.4361
33541SOL    HW1 7481   7.391  10.195   0.425  0.0296  0.0554 -0.2442
33541SOL    HW2 7482   7.435  10.253   0.292 -0.0436 -0.4282 -0.4780
33542SOL     OW 7483   9.114  12.506   6.216  0.1461 -0.1823 -0.9754
33542SOL    HW1 7484   9.086  12.551   6.296 -0.3916 -1.5229 -0.3953
33542SOL    HW2 7485   9.034  12.493   6.167  0.1105 -1.5991 -0.5679
33543SOL     OW 7486   4.489   6.247   1.684  0.0722 -0.2551 -0.5309
33543SOL    HW1 7487   4.487   6.237   1.779 -1.3999 -0.8169 -0.5975
33543SOL    HW2 7488   4.490   6.158   1.651 -2.7168 -0.1736 -1.0393
33544SOL     OW 7489   2.767   4.287   9.276 -0.0465  0.6171  0.8117
33544SOL    HW1 7490   2.766   4.207   9.329  1.8450  1.6712  2.5805
33544SOL    HW2 7491   2.845   4.278   9.221 -0.2471  0.9290  0.4741
33545SOL     OW 7492   3.563   4.913  10.910  0.0210  0.5985  0.0955
33545SOL    HW1 7493   3.513   4.832  10.907  0.5701  0.2661 -0.3492
33545SOL    HW2 7494   3.575   4.931  11.003  0.6978 -0.3304  0.1936
33546SOL     OW 7495   9.850   0.562  11.577 -0.3443 -0.8419  0.6481
33546SOL    HW1 7496   9.806   0.638  11.616 -0.7231 -0.3056 -0.7518
33546SOL    HW2 7497   9.819   0.560  11.486  1.1167 -1.5379  0.1234
33547SOL     OW 7498   0.764   4.053   7.164  0.3498 -0.0946  0.2127
33547SOL    HW1 7499   0.801   3.965   7.167 -0.1692 -0.3047  0.6899
33547SOL    HW2 7500   0.734   4.063   7.073 -0.6245 -0.8641  0.4231
33548SOL     OW 7501   5.702   6.438   2.123 -0.4975  0.6959  0.0830
33548SOL    HW1 7502   5.675   6.359   2.077  0.4735  0.7666 -0.6387
33548SOL    HW2 7503   5.716   6.409   2.213 -1.4513  0.3394  0.1214
33549SOL     OW 7504   5.209   1.429   7.348  0.2652  0.0053 -0.2389
33549SOL    HW1 7505   5.178   1.460   7.263 -0.5052 -0.5717 -0.1772
33549SOL    HW2 7506   5.134   1.439   7.406  0.6667  0.0235  0.2815
33550SOL     OW 7507  10.986  12.392   3.438 -0.1793  0.0060 -0.3739
33550SOL    HW1 7508  11.021  12.304   3.424 -0.0076  0.1416 -0.8283
33550SOL    HW2 7509  11.052  12.436   3.492 -1.4142 -0.8971  1.9679
33551SOL     OW 7510   0.405   1.770   5.984 -0.1458  0.6539 -0.2773
33551SOL    HW1 7511   0.490   1.727   5.983 -0.7160 -0.5419  0.0704
33551SOL    HW2 7512   0.343   1.699   5.966 -1.1093  1.3755  0.1463
33552SOL     OW 7513   3.566   7.928  10.188 -0.2580  0.0249  0.2961
33552SOL    HW1 7514   3.480   7.904  10.224 -0.9018  2.4038  0.5104
33552SOL    HW2 7515   3.587   8.011  10.231  1.6656  0.0176 -0.5641
33553SOL     OW 7516  12.181  11.793   1.307  0.0790 -0.2056 -0.1732
33553SOL    HW1 7517  12.221  11.873   1.272  0.2288 -0.1143  0.2051
33553SOL    HW2 7518  12.156  11.743   1.229  1.0731 -0.3394 -0.4170
33554SOL     OW 7519  10.426   6.800   4.991  0.1822 -0.2616 -0.1677
33554SOL    HW1 7520  10.445   6.799   4.897  1.4338  2.0652 -0.0043
33554SOL    HW2 7521  10.333   6.822   4.996 -0.1492 -1.4169 -0.8356
33555SOL     OW 7522   4.293  10.629   5.389 -0.5380 -0.0531 -0.0385
33555SOL    HW1 7523   4.205  10.657   5.412 -0.6328 -0.5788  0.2690
33555SOL    HW2 7524   4.285  10.597   5.299 -1.1384 -2.0148  0.6618
33556SOL     OW 7525   6.155  12.223   3.608 -0.1675  0.3509  0.5572
33556SOL    HW1 7526   6.084  12.188   3.554  0.7365 -0.9880  0.1791
33556SOL    HW2 7527   6.152  12.317   3.594  1.4728 -0.0217 -3.8186
33557SOL     OW 7528   7.300  11.764   3.978  0.0146 -0.0483 -0.1965
33557SOL    HW1 7529   7.353  11.725   4.047  4.0587  0.4461 -2.6183
33557SOL    HW2 7530   7.264  11.689   3.930  0.2850 -0.5220  0.3294
33558SOL     OW 7531  12.188   4.086   4.173  0.7419  0.8534  0.5580
33558SOL    HW1 7532  12.113   4.124   4.127  0.5538  0.1322  0.2478
33558SOL    HW2 7533  12.230   4.030   4.107  0.7592  0.1948  1.1172
33559SOL     OW 7534   7.262   9.042   9.884  0.0885 -0.0207  0.0146
33559SOL    HW1 7535   7.203   9.028   9.810 -0.0970  0.0653  0.1453
33559SOL    HW2 7536   7.313   9.119   9.861 -0.5341  0.4965  0.3290
33560SOL     OW 7537  11.688   9.865   4.119  0.4942  0.2060  0.2445
33560SOL    HW1 7538  11.756   9.852   4.054 -0.0427 -1.2027 -0.0697
33560SOL    HW2 7539  11.626   9.925   4.078  0.1364 -0.7055 -0.5949
33561SOL     OW 7540  10.402   5.186  10.923 -0.0946  0.1014  0.3147
33561SOL    HW1 7541  10.377   5.116  10.863 -0.9783  0.9168 -0.3043
33561SOL    HW2 7542  10.496   5.198  10.908 -0.0523 -0.5628  0.0267
33562SOL     OW 7543   8.912   7.974   3.749  0.2280 -0.7810 -0.6533
33562SOL    HW1 7544   8.831   7.994   3.704 -0.1057 -0.7917 -0.0697
33562SOL    HW2 7545   8.951   7.902   3.699 -1.4421 -2.6431  0.5482
33563SOL     OW 7546   7.129   3.297   1.003  0.1257  0.1209 -0.2371
33563SOL    HW1 7547   7.060   3.246   1.045 -1.0394 -1.9190 -4.1442
33563SOL    HW2 7548   7.206   3.240   1.005 -0.5787 -1.0280 -2.6913
33564SOL     OW 7549  12.297   4.275   5.194 -0.0752  0.7428  0.4531
33564SOL    HW1 7550  12.271   4.210   5.129  0.3370  0.4118  0.6168
33564SOL    HW2 7551  12.370   4.322   5.153  1.2222 -0.4932  1.2699
33565SOL     OW 7552   8.649  11.143   2.697  0.3082 -0.7104 -1.1078
33565SOL    HW1 7553   8.648  11.206   2.625  0.1476  2.4242  1.3886
33565SOL    HW2 7554   8.556  11.126   2.716  0.1734  1.4230  0.5570
33566SOL     OW 7555   8.469  12.566   8.962 -0.2417  0.3498 -1.1958
33566SOL    HW1 7556   8.373  12.562   8.968 -0.2204 -0.8242 -1.2969
33566SOL    HW2 7557   8.487  12.591   8.872 -0.4454  1.8127 -0.8568
33567SOL     OW 7558   7.101   2.005   7.386  0.0598 -0.0233  0.5737
33567SOL    HW1 7559   7.063   2.008   7.298 -0.4923  0.4336  0.8214
33567SOL    HW2 7560   7.096   2.095   7.417  1.5134  0.0826  0.5581
33568SOL     OW 7561   6.391   4.101   3.788 -0.2822  0.8933  0.4836
33568SOL    HW1 7562   6.303   4.107   3.751  0.0319  1.2899 -0.2202
33568SOL    HW2 7563   6.433   4.183   3.764  0.4132  0.5409  0.4565
33569SOL     OW 7564   2.814   3.342   1.197 -0.3662 -0.0322  0.8500
33569SOL    HW1 7565   2.910   3.349   1.189 -0.3079 -0.9329  0.5686
33569SOL    HW2 7566   2.788   3.418   1.248  0.0960  2.1446 -1.9140
33570SOL     OW 7567   6.514   3.359  10.107  0.2890  0.1404 -0.3313
33570SOL    HW1 7568   6.452   3.421  10.070 -0.9429  0.6672  2.3712
33570SOL    HW2 7569   6.526   3.388  10.198  2.9658 -1.1295 -0.1657
33571SOL     OW 7570   9.182  10.469   9.079 -0.2450  0.2459  0.1817
33571SOL    HW1 7571   9.197  10.562   9.093  0.1816  0.1536  0.3419
33571SOL    HW2 7572   9.179  10.459   8.984  2.2853  0.0479  0.0389
33572SOL     OW 7573   5.530   8.626   8.105  0.4559  0.3805  0.6329
33572SOL    HW1 7574   5.437   8.603   8.115  0.3953 -0.3151 -1.1083
33572SOL    HW2 7575   5.566   8.555   8.053  1.5499  1.5152 -0.2267
33573SOL     OW 7576  11.983   7.598   7.271  0.3112  0.4588  0.4710
33573SOL    HW1 7577  11.923   7.563   7.337  1.7563 -0.0969  1.5321
33573SOL    HW2 7578  11.963   7.549   7.191 -1.1903  0.8702  0.5606
33574SOL     OW 7579   2.615   7.632   2.335  0.2198  0.4320  0.2604
33574SOL    HW1 7580   2.610   7.554   2.280 -1.9983  0.3030  0.5741
33574SOL    HW2 7581   2.622   7.598   2.424  1.5378  0.6415  0.2631
33575SOL     OW 7582   4.934   0.093   0.748 -0.2086 -0.0235 -0.3328
33575SOL    HW1 7583   4.904   0.093   0.839  1.2740 -0.1126  0.1814
33575SOL    HW2 7584   5.024   0.060   0.753 -0.1181 -0.0442 -1.8399
33576SOL     OW 7585   2.477  10.032   7.272  0.1693  0.6332  0.2405
33576SOL    HW1 7586   2.431   9.965   7.323 -0.7372  1.0834  0.0428
33576SOL    HW2 7587   2.409  10.072   7.218  0.8703  1.0713 -0.3478
33577SOL     OW 7588   4.111  11.670  10.576  0.4901 -0.2208  0.1251
33577SOL    HW1 7589   4.194  11.686  10.622 -0.0214  1.9910  0.3981
33577SOL    HW2 7590   4.137  11.650  10.486  1.3128  1.7214 -0.1105
33578SOL     OW 7591   1.518   0.085  10.959  0.0948  0.1042  0.2815
33578SOL    HW1 7592   1.603   0.060  10.925 -0.2357 -2.1969  1.0106
33578SOL    HW2 7593   1.519   0.181  10.957  1.8177  0.1102 -1.7795
33579SOL     OW 7594   0.850   2.806   3.729  0.0435  0.1182 -0.2970
33579SOL    HW1 7595   0.790   2.843   3.793 -0.1371 -1.2881  0.3690
33579SOL    HW2 7596   0.937   2.836   3.757  0.0994 -1.3868  1.3091
33580SOL     OW 7597   9.507   7.809  12.573  0.4157  0.7082 -0.0548
33580SOL    HW1 7598   9.557   7.746  12.625 -0.7651  0.1469  0.4433
33580SOL    HW2 7599   9.569   7.879  12.554  1.8572 -0.7335 -0.9040
33581SOL     OW 7600   0.231   6.592  12.223 -0.4796  0.1090 -0.3850
33581SOL    HW1 7601   0.302   6.569  12.282  0.0025 -0.0488 -1.0157
33581SOL    HW2 7602   0.200   6.508  12.188  0.3605  0.2943 -1.6324
33582SOL     OW 7603   8.751   0.897   7.465  0.3575 -0.2822  0.0277
33582SOL    HW1 7604   8.711   0.973   7.508  0.7391 -1.2155  2.2096
33582SOL    HW2 7605   8.678   0.839   7.447  0.1922  0.1160 -0.6083
33583SOL     OW 7606   7.001   5.813   5.110 -0.3432  0.3304  0.6383
33583SOL    HW1 7607   6.906   5.816   5.106 -0.6219 -0.5026  3.7409
33583SOL    HW2 7608   7.030   5.885   5.055 -2.7137  0.1738 -0.9378
33584SOL     OW 7609   3.569  10.049  12.393 -0.4590 -0.1966  0.5744
33584SOL    HW1 7610   3.523   9.966  12.384 -0.4630 -0.0324 -1.1908
33584SOL    HW2 7611   3.661  10.028  12.376 -0.7895  0.5362 -2.8223
33585SOL     OW 7612  12.458   2.917   2.998  0.3979  0.4164 -0.4678
33585SOL    HW1 7613  12.517   2.992   2.999  0.0334  0.7040 -0.0281
33585SOL    HW2 7614  12.473   2.874   3.083  1.8010 -0.9680 -1.3681
33586SOL     OW 7615   9.775   3.125   0.697 -0.0309 -0.0317  0.1983
33586SOL    HW1 7616   9.864   3.113   0.663 -0.0600 -0.6531  0.3292
33586SOL    HW2 7617   9.721   3.133   0.619  0.2916  1.6418  0.1119
33587SOL     OW 7618   6.388   5.973   0.598 -0.1339 -0.1229 -0.7557
33587SOL    HW1 7619   6.293   5.974   0.614  0.2052  2.0124  2.0015
33587SOL    HW2 7620   6.421   6.046   0.651  3.2222 -1.6910 -0.4580
33588SOL     OW 7621   4.550   9.543   2.457  0.5662  0.7706 -0.6027
33588SOL    HW1 7622   4.565   9.452   2.430  4.6148  0.9642  0.4435
33588SOL    HW2 7623   4.521   9.536   2.548  0.2540  0.5236 -0.7172
33589SOL     OW 7624   8.956   5.464   7.383  0.1490 -0.6020 -0.1876
33589SOL    HW1 7625   9.015   5.390   7.370  0.7038  0.0225 -1.4493
33589SOL    HW2 7626   8.898   5.437   7.454  1.8147 -1.3316  0.9643
33590SOL     OW 7627   6.092  11.027   9.946 -0.3251 -0.4218 -0.4182
33590SOL    HW1 7628   6.178  10.988   9.933 -0.2296 -1.1251  1.9330
33590SOL    HW2 7629   6.107  11.097  10.010 -1.4366 -0.2648 -0.3126
33591SOL     OW 7630   5.459  11.429   3.974 -0.5790  0.5745 -0.9248
33591SOL    HW1 7631   5.416  11.461   3.895  1.5951 -0.8870 -2.8176
33591SOL    HW2 7632   5.547  11.404   3.946 -0.4890 -2.3106  1.4229
33592SOL     OW 7633   8.917   2.428  10.853  0.1668  0.4556 -0.0737
33592SOL    HW1 7634   8.833   2.475  10.857  0.0868  0.2647  0.6411
33592SOL    HW2 7635   8.892   2.335  10.851  0.3563  0.4003  0.0918
33593SOL     OW 7636   0.907   1.573   4.038  0.0937  0.1426 -0.1942
33593SOL    HW1 7637   0.996   1.605   4.051  0.6478 -0.7890 -1.4767
33593SOL    HW2 7638   0.917   1.494   3.985 -1.6185  0.9564 -1.8667
33594SOL     OW 7639   8.099   2.010   3.595  0.4049  0.7042 -0.1066
33594SOL    HW1 7640   8.178   2.038   3.643 -0.0473 -0.6744  1.5621
33594SOL    HW2 7641   8.027   2.048   3.645 -0.0859 -0.8143  0.3961
33595SOL     OW 7642  10.900   5.057   4.375 -0.5673 -0.5682 -0.6400
33595SOL    HW1 7643  10.907   5.014   4.461 -0.8239  1.9396  0.7391
33595SOL    HW2 7644  10.806   5.058   4.356 -0.4810 -1.4633 -1.1714
33596SOL     OW 7645   5.323  12.045   2.309 -0.2102  0.3646  0.3551
33596SOL    HW1 7646   5.387  12.115   2.298 -0.2668  0.6669  1.8492
33596SOL    HW2 7647   5.367  11.967   2.274  0.8668  0.6271  1.0974
33597SOL     OW 7648  10.738   9.275   0.452  0.0004  0.4433 -0.1808
33597SOL    HW1 7649  10.726   9.190   0.495 -0.2009  0.9710  0.8440
33597SOL    HW2 7650  10.736   9.338   0.524  0.8083  1.2631 -0.8625
33598SOL     OW 7651   1.227   5.624   8.486  0.2067  0.3934  0.1074
33598SOL    HW1 7652   1.293   5.578   8.538 -0.9744 -1.0262  0.4157
33598SOL    HW2 7653   1.186   5.556   8.433 -0.8497  1.2823 -0.2582
33599SOL     OW 7654  11.528  10.122   1.775 -0.2139  0.2386 -0.5197
33599SOL    HW1 7655  11.523  10.193   1.839 -1.3622  1.4062 -1.8430
33599SOL    HW2 7656  11.438  10.092   1.766  0.1634 -0.9636 -0.4665
33600SOL     OW 7657   7.639   0.800   8.877 -0.8543  0.3429 -0.1463
33600SOL    HW1 7658   7.721   0.812   8.925 -1.6040 -1.9577  1.9554
33600SOL    HW2 7659   7.599   0.887   8.877  0.6519  1.0814  0.6315
33601SOL     OW 7660  11.558  12.147   3.815 -0.1877  0.4567  0.1647
33601SOL    HW1 7661  11.651  12.142   3.836 -0.2182 -1.2777 -0.0023
33601SOL    HW2 7662  11.545  12.084   3.745 -1.3804  1.1664 -0.2925
33602SOL     OW 7663   5.841   9.744   8.941  0.0209 -0.4138  0.2036
33602SOL    HW1 7664   5.908   9.806   8.913  2.7274 -2.5665  1.4439
33602SOL    HW2 7665   5.864   9.724   9.032 -2.1442 -1.5063  0.5730
33603SOL     OW 7666   5.397   5.215   0.243 -0.4166 -0.1673  0.4627
33603SOL    HW1 7667   5.358   5.240   0.159 -0.3388  0.2487  0.5496
33603SOL    HW2 7668   5.425   5.297   0.282 -0.6217 -0.3419  0.9835
33604SOL     OW 7669  10.265   6.195   3.959  0.0215  0.4365 -0.0432
33604SOL    HW1 7670  10.215   6.151   4.028  0.3795 -1.0512 -0.6850
33604SOL    HW2 7671  10.286   6.281   3.995 -3.6124  1.4785 -0.0189
33605SOL     OW 7672   7.822  11.978   5.977  0.4247 -0.1626  0.3863
33605SOL    HW1 7673   7.735  12.013   5.997  1.1846  2.2406 -0.1120
33605SOL    HW2 7674   7.822  11.891   6.015 -1.6733  0.3432  1.7441
33606SOL     OW 7675  12.324   2.969   0.635 -0.4530 -0.2517 -0.4329
33606SOL    HW1 7676  12.232   2.945   0.649 -0.4812  0.3621  0.4595
33606SOL    HW2 7677  12.347   3.025   0.709  0.3231  0.5174 -1.2270
33607SOL     OW 7678   1.740   9.414   5.147  0.1435  0.0443  0.5076
33607SOL    HW1 7679   1.672   9.446   5.088 -0.8623  0.8634  2.0553
33607SOL    HW2 7680   1.774   9.492   5.190  1.0789 -0.5031  0.7934
33608SOL     OW 7681   3.683   3.116   0.470 -0.2785 -0.2255 -0.2623
33608SOL    HW1 7682   3.657   3.038   0.520 -2.4915  1.4911  1.4804
33608SOL    HW2 7683   3.697   3.084   0.381  1.4022 -2.9950  0.8698
33609SOL     OW 7684   8.896   9.561   6.684  0.0643 -0.0769  0.0776
33609SOL    HW1 7685   8.849   9.605   6.754  0.1350  0.6510 -0.3184
33609SOL    HW2 7686   8.882   9.617   6.607  1.9751  0.4519  0.0624
33610SOL     OW 7687   6.705   4.082   6.308  0.2546  0.6972 -0.1030
33610SOL    HW1 7688   6.787   4.047   6.272  0.3198  0.6447  0.0980
33610SOL    HW2 7689   6.708   4.176   6.289  0.0846  0.6024 -0.6356
33611SOL     OW 7690   0.857   1.905   6.671 -0.2556 -0.0168 -0.3098
33611SOL    HW1 7691   0.920   1.947   6.612 -0.8727  0.2669 -0.7683
33611SOL    HW2 7692   0.862   1.958   6.751 -0.3583  0.3819 -0.5628
33612SOL     OW 7693   6.022   0.697  10.877 -0.0449 -0.0239  0.3175
33612SOL    HW1 7694   6.091   0.632  10.889 -0.8816 -0.8186  0.9410
33612SOL    HW2 7695   5.971   0.695  10.958  1.1536  2.9774  1.2858
33613SOL     OW 7696   7.624   5.000   1.043  0.3424  0.1900  0.2544
33613SOL    HW1 7697   7.536   4.987   1.006  0.0541  0.7686  0.7216
33613SOL    HW2 7698   7.683   4.968   0.975 -0.2494 -1.0431  0.2963
33614SOL     OW 7699  10.769   8.880   7.433  0.3726 -0.0684 -0.1575
33614SOL    HW1 7700  10.822   8.923   7.366  1.4074  0.1391  0.7706
33614SOL    HW2 7701  10.789   8.927   7.514  0.6861 -1.5726  0.6763
33615SOL     OW 7702  11.457   4.717  12.355  0.0028  0.1499 -0.3947
33615SOL    HW1 7703  11.523   4.649  12.346 -0.0306  0.1981 -1.1329
33615SOL    HW2 7704  11.470   4.773  12.278 -0.1173  0.8451  0.0790
33616SOL     OW 7705   4.093  11.453   9.166  0.3893 -0.4627  0.1531
33616SOL    HW1 7706   4.135  11.406   9.094  0.4737 -0.5053  0.2305
33616SOL    HW2 7707   4.050  11.528   9.124 -1.6772 -1.8048 -0.3052
33617SOL     OW 7708   6.316   3.866   1.887  0.1376 -0.2607  0.6436
33617SOL    HW1 7709   6.383   3.934   1.891  0.8780 -0.9382  0.0294
33617SOL    HW2 7710   6.352   3.793   1.937  1.2451 -1.7727 -2.1536
33618SOL     OW 7711   2.551   5.567   0.151  0.7801  0.3800  0.7239
33618SOL    HW1 7712   2.555   5.472   0.158 -0.7537 -0.1592 -3.0381
33618SOL    HW2 7713   2.642   5.595   0.145  1.2575 -1.2657 -0.8263
33619SOL     OW 7714   1.836   0.126   4.880  1.0890 -0.0621 -0.0455
33619SOL    HW1 7715   1.856   0.101   4.790  0.8708 -1.6544  0.3116
33619SOL    HW2 7716   1.888   0.065   4.933  0.3195  0.0790  0.8950
33620SOL     OW 7717   5.271   0.789   1.840  0.1652 -0.1008  0.2958
33620SOL    HW1 7718   5.207   0.855   1.814 -0.0311 -0.7093 -0.8484
33620SOL    HW2 7719   5.268   0.724   1.769  1.2223 -0.7136  0.7917
33621SOL     OW 7720  12.534   2.179   7.954 -0.3667  0.4060  0.1442
33621SOL    HW1 7721  12.528   2.253   8.014  1.9136  0.9553 -0.2364
33621SOL    HW2 7722  12.576   2.109   8.004  1.0260  0.6811 -0.5892
33622SOL     OW 7723   1.399   3.932   0.508 -0.6996 -0.5235 -0.0201
33622SOL    HW1 7724   1.406   3.930   0.413 -2.0747 -0.4805 -0.1455
33622SOL    HW2 7725   1.353   3.851   0.530  0.7537 -1.1787  0.7463
33623SOL     OW 7726   9.481   4.906   3.559 -0.0647  0.2569 -0.0885
33623SOL    HW1 7727   9.482   4.982   3.501 -0.5771  0.8163  0.6220
33623SOL    HW2 7728   9.531   4.934   3.636 -0.6217  0.0249  0.3609
33624SOL     OW 7729   9.771  11.126  11.112 -0.4421 -0.8344  0.4665
33624SOL    HW1 7730   9.757  11.215  11.080 -0.5670 -1.4053 -1.1802
33624SOL    HW2 7731   9.726  11.124  11.197 -3.6115 -0.3326 -1.0593
33625SOL     OW 7732   2.811   1.331  12.007 -0.1983 -0.1203 -0.0412
33625SOL    HW1 7733   2.806   1.305  12.099 -0.7429 -0.8943 -0.2788
33625SOL    HW2 7734   2.891   1.384  12.001 -0.0001 -0.3105  0.8114
33626SOL     OW 7735  11.272   8.570   7.329 -0.0813 -0.4508 -0.6121
33626SOL    HW1 7736  11.302   8.661   7.331 -0.3411 -0.3414 -1.1816
33626SOL    HW2 7737  11.342   8.520   7.370 -1.1151  0.3066  2.3150
33627SOL     OW 7738   2.395  12.033   0.032  0.4312 -0.5211 -0.2895
33627SOL    HW1 7739   2.338  12.056   0.105  0.8543  0.6600 -0.3091
33627SOL    HW2 7740   2.338  11.986  -0.029 -0.1753 -0.5776  0.3104
33628SOL     OW 7741   9.031   1.244   6.852  0.5793  0.4519 -0.3702
33628SOL    HW1 7742   9.083   1.195   6.789 -0.6990  0.5376 -1.5546
33628SOL    HW2 7743   8.947   1.198   6.854  0.8904 -0.1282  2.0489
33629SOL     OW 7744   3.883   9.979   5.674  0.7863  0.2555  0.7503
33629SOL    HW1 7745   3.828  10.044   5.631 -0.6867 -0.0204  2.1240
33629SOL    HW2 7746   3.923   9.930   5.603 -1.3483 -0.0240 -0.3200
33630SOL     OW 7747   4.355   3.766   7.684  0.4723 -0.1283 -0.2249
33630SOL    HW1 7748   4.316   3.689   7.643 -0.8311  0.1580  0.4610
33630SOL    HW2 7749   4.284   3.809   7.730  1.4196  0.8726  0.3698
33631SOL     OW 7750   8.111   8.564   1.937  0.3298 -0.1579  0.5187
33631SOL    HW1 7751   8.051   8.505   1.984 -0.0283  1.1237  1.7510
33631SOL    HW2 7752   8.054   8.631   1.901  0.7690 -0.3773 -0.6115
33632SOL     OW 7753   5.390   8.617   9.376  0.1682  0.2310  0.4713
33632SOL    HW1 7754   5.390   8.687   9.441  1.9763  0.9924 -0.3007
33632SOL    HW2 7755   5.373   8.661   9.293 -0.1507 -0.4532  0.1683
33633SOL     OW 7756   4.573   7.306  10.943  0.1349 -0.2483 -0.2662
33633SOL    HW1 7757   4.548   7.232  10.997 -0.0792  0.1272  0.1559
33633SOL    HW2 7758   4.617   7.267  10.867  0.8116 -0.7649  0.3712
33634SOL     OW 7759  11.400   1.099   1.741 -0.5546  0.0598  0.2890
33634SOL    HW1 7760  11.310   1.075   1.721 -0.3495 -0.8809  0.4539
33634SOL    HW2 7761  11.451   1.061   1.669 -0.1657 -0.5081  0.8532
33635SOL     OW 7762   7.942   7.732   9.974  0.0939  0.4043 -0.0609
33635SOL    HW1 7763   8.021   7.773  10.009  1.4886  0.2534 -2.8123
33635SOL    HW2 7764   7.876   7.802   9.976  1.4961  1.8578 -1.5661
33636SOL     OW 7765   4.993  12.428   2.373 -0.2678  0.4765  0.0409
33636SOL    HW1 7766   4.899  12.410   2.364 -0.2194  0.2693 -0.0491
33636SOL    HW2 7767   5.036  12.346   2.348 -0.0834  0.3459  0.7582
33637SOL     OW 7768   9.332   2.952  10.415 -0.3160  0.2626  0.0807
33637SOL    HW1 7769   9.398   2.925  10.478 -0.5287  0.5859  0.4499
33637SOL    HW2 7770   9.252   2.906  10.443 -0.9666  2.0745  1.3898
33638SOL     OW 7771   4.337   0.140  11.343 -0.1594  0.5789 -0.2979
33638SOL    HW1 7772   4.285   0.060  11.333  1.3220 -0.8981  2.4339
33638SOL    HW2 7773   4.345   0.151  11.438  0.1442  3.7257 -0.5962
33639SOL     OW 7774  10.554  10.855   4.154  0.1882  0.1265 -0.6400
33639SOL    HW1 7775  10.550  10.776   4.100 -2.1477  0.5623 -1.2368
33639SOL    HW2 7776  10.634  10.899   4.127  0.1206 -0.6989 -2.2921
33640SOL     OW 7777   0.118   1.641   0.499  0.3495 -0.6833 -0.0993
33640SOL    HW1 7778   0.028   1.651   0.531  1.2989 -1.3895  3.2264
33640SOL    HW2 7779   0.157   1.727   0.510  0.1294 -0.3681 -1.5767
33641SOL     OW 7780  10.336  10.555   0.191  0.5377 -0.3645  0.7641
33641SOL    HW1 7781  10.348  10.594   0.105  0.7102 -2.3007 -0.1299
33641SOL    HW2 7782  10.405  10.594   0.245  0.9456  0.2554 -0.1864
33642SOL     OW 7783   2.462   8.234   7.556 -0.2320 -0.2871  0.7558
33642SOL    HW1 7784   2.462   8.323   7.591  0.1938  0.2817 -0.6638
33642SOL    HW2 7785   2.466   8.245   7.461  1.4221 -1.8425  0.6035
33643SOL     OW 7786   3.430   7.375   2.398 -0.2891  0.9270 -0.1014
33643SOL    HW1 7787   3.381   7.386   2.480  2.0311  0.1549  1.5039
33643SOL    HW2 7788   3.432   7.462   2.359 -1.3702  1.3305  0.6849
33644SOL     OW 7789   5.477   9.847   1.028  0.0401 -0.3114  0.1089
33644SOL    HW1 7790   5.401   9.824   1.081  0.3454  1.4079  1.3606
33644SOL    HW2 7791   5.516   9.922   1.072  2.9186 -1.5493 -0.0835
33645SOL     OW 7792   2.187   3.682   1.976 -0.3052  0.0860 -0.2270
33645SOL    HW1 7793   2.275   3.720   1.976 -0.2044 -0.1245  0.7200
33645SOL    HW2 7794   2.129   3.758   1.964  0.0134  0.1623 -1.3851
33646SOL     OW 7795   4.211   8.298   4.473 -0.1204 -0.3611 -0.5924
33646SOL    HW1 7796   4.206   8.205   4.453 -0.8869  0.0205 -2.4061
33646SOL    HW2 7797   4.126   8.319   4.513  0.2934 -0.5415  0.4135
33647SOL     OW 7798   2.641   2.197   6.510 -0.0601 -0.9057 -0.0402
33647SOL    HW1 7799   2.674   2.155   6.590  0.8234  0.5675  0.4025
33647SOL    HW2 7800   2.546   2.188   6.516 -0.0263 -0.5833  1.3202
33648SOL     OW 7801   0.039   2.939   8.135 -0.2860  0.0669 -0.8220
33648SOL    HW1 7802   0.089   2.858   8.130  0.2246  0.3828 -0.9865
33648SOL    HW2 7803   0.090   3.001   8.082  0.5207  1.0914  1.0773
33649SOL     OW 7804   9.950   4.194   3.300  0.4685  0.1001  0.1905
33649SOL    HW1 7805   9.945   4.243   3.382 -0.2381  0.1352  0.1339
33649SOL    HW2 7806  10.036   4.215   3.265  0.5687  0.5007  0.6639
33650SOL     OW 7807   9.757   7.270   6.821  0.3301 -0.0185  0.0183
33650SOL    HW1 7808   9.739   7.328   6.894 -2.0102  0.8966 -1.1893
33650SOL    HW2 7809   9.825   7.315   6.771 -0.3035  0.9214 -0.0289
33651SOL     OW 7810   0.782   4.976   4.254  1.0548  0.4116  0.8844
33651SOL    HW1 7811   0.706   4.924   4.281  1.2139 -0.4035 -0.1655
33651SOL    HW2 7812   0.835   4.983   4.333  1.4513 -1.7958  0.8867
33652SOL     OW 7813   7.583  10.152  12.499  0.2647 -0.2251 -0.0816
33652SOL    HW1 7814   7.498  10.182  12.534  0.6073  1.4464 -0.6134
33652SOL    HW2 7815   7.641  10.150  12.575  0.0320 -0.3308  0.0951
33653SOL     OW 7816  10.116   2.442   2.153 -0.4274 -0.0358 -0.1168
33653SOL    HW1 7817  10.025   2.460   2.131 -0.7959 -1.0387  0.5286
33653SOL    HW2 7818  10.126   2.348   2.140  1.0807  0.3370 -2.0915
33654SOL     OW 7819   6.143   4.745  12.428 -0.2141  0.4059  0.2518
33654SOL    HW1 7820   6.062   4.735  12.379 -0.5805  1.2355  0.6787
33654SOL    HW2 7821   6.198   4.673  12.397 -1.0355 -0.0527 -0.1769
33655SOL     OW 7822  10.948   6.197   6.671  0.0338  0.4320  0.7244
33655SOL    HW1 7823  10.852   6.204   6.667  0.0810  1.3003  1.0322
33655SOL    HW2 7824  10.978   6.285   6.691  0.9310  0.2464  0.2427
33656SOL     OW 7825   5.922   7.162   7.728  0.2049  0.2512  0.2386
33656SOL    HW1 7826   5.892   7.245   7.765 -0.6593 -0.1740  0.5186
33656SOL    HW2 7827   5.957   7.113   7.803  1.9043  0.8387 -0.1179
33657SOL     OW 7828   6.506   2.178   2.654  0.2345  0.0731 -0.2917
33657SOL    HW1 7829   6.516   2.258   2.706  1.4316 -1.0350  1.2621
33657SOL    HW2 7830   6.527   2.206   2.564  1.8486  1.2690  0.3944
33658SOL     OW 7831   5.664   5.087   8.953  0.1986  0.1240 -0.0951
33658SOL    HW1 7832   5.726   5.133   8.896  3.5141 -2.6439  0.8881
33658SOL    HW2 7833   5.656   4.999   8.915 -1.1436 -0.3810  1.2385
33659SOL     OW 7834   8.175  12.403   1.338  0.5863 -0.4983 -0.1239
33659SOL    HW1 7835   8.219  12.488   1.333 -0.8710  0.3334  0.5573
33659SOL    HW2 7836   8.187  12.365   1.251 -3.1462  2.7466 -2.4318
33660SOL     OW 7837   3.092  11.615  11.714  0.5036 -0.0943  0.3014
33660SOL    HW1 7838   3.075  11.692  11.659  0.7514 -0.1126  0.1999
33660SOL    HW2 7839   3.104  11.543  11.652  0.0397 -0.2639  0.4025
33661SOL     OW 7840   7.168   6.629  10.816 -0.4199  0.5189  0.5026
33661SOL    HW1 7841   7.236   6.680  10.860 -0.0094  2.0534 -1.7688
33661SOL    HW2 7842   7.213   6.550  10.785 -0.1547  0.5821  0.7245
33662SOL     OW 7843   4.106   9.313   9.722  0.3847 -0.7667 -0.1052
33662SOL    HW1 7844   4.114   9.317   9.627  0.7996  0.4149 -0.0483
33662SOL    HW2 7845   4.054   9.235   9.739 -0.2171 -0.6577 -1.3353
33663SOL     OW 7846   6.065   9.178   0.257 -0.0646 -0.0993  0.0744
33663SOL    HW1 7847   6.068   9.264   0.299 -0.5400  1.0323 -2.0840
33663SOL    HW2 7848   5.972   9.158   0.252  0.0559 -0.9122  0.8246
33664SOL     OW 7849   7.932   1.728   4.816 -0.0495 -0.8550 -0.1322
33664SOL    HW1 7850   8.016   1.753   4.777 -0.3902  0.8746  0.1330
33664SOL    HW2 7851   7.867   1.769   4.759 -0.5684  1.6401  2.0692
33665SOL     OW 7852   7.434   0.060   1.542 -0.2266  0.2393  0.5063
33665SOL    HW1 7853   7.438   0.088   1.451 -2.2409  0.5236  0.4688
33665SOL    HW2 7854   7.507  -0.001   1.552  0.9220  1.3377 -0.8733
33666SOL     OW 7855  12.247   2.397  12.489  0.3348 -0.1021  0.2234
33666SOL    HW1 7856  12.236   2.354  12.574  0.5792 -0.5622  0.0230
33666SOL    HW2 7857  12.283   2.329  12.432  0.7906  0.3861 -0.0798
33667SOL     OW 7858   4.513   7.672   8.728  0.0549 -0.3215 -0.4713
33667SOL    HW1 7859   4.534   7.592   8.776  0.4573 -0.4212 -0.8087
33667SOL    HW2 7860   4.550   7.742   8.782 -0.9236 -0.2997  0.1897
33668SOL     OW 7861   8.562   8.909   3.455  0.0518  0.1094 -0.1164
33668SOL    HW1 7862   8.540   8.944   3.542 -2.7804  2.9796 -1.7784
33668SOL    HW2 7863   8.486   8.855   3.432 -0.2303  1.0768 -1.5741
33669SOL     OW 7864   5.603   5.273   8.132 -0.6834  0.5877  0.3531
33669SOL    HW1 7865   5.615   5.368   8.124 -1.1412  0.6777  0.6835
33669SOL    HW2 7866   5.658   5.249   8.206 -1.3773  0.7672  0.9373
33670SOL     OW 7867   0.220   2.323  10.598  0.3378  0.1909 -0.2559
33670SOL    HW1 7868   0.218   2.228  10.586 -1.4741  0.3078 -1.1354
33670SOL    HW2 7869   0.132   2.352  10.576  0.6378  2.0047  0.7688
33671SOL     OW 7870   7.885   2.792   0.188 -0.3262  0.2757 -0.0597
33671SOL    HW1 7871   7.827   2.781   0.264 -0.7965 -0.5257 -0.5215
33671SOL    HW2 7872   7.965   2.745   0.213 -0.6416 -0.3625 -0.2196
33672SOL     OW 7873   0.406   6.701   3.442  0.2661  0.2399 -0.2320
33672SOL    HW1 7874   0.495   6.682   3.411  0.6765 -1.4853  1.7883
33672SOL    HW2 7875   0.372   6.765   3.379  2.4804  0.0300 -1.7584
33673SOL     OW 7876  10.761  10.472  12.293 -0.0397  0.1775 -0.3042
33673SOL    HW1 7877  10.821  10.526  12.345 -1.5600  0.9319  0.7376
33673SOL    HW2 7878  10.772  10.504  12.203 -0.1208  1.4884  0.1295
33674SOL     OW 7879   9.107   7.648   9.582  0.1414  0.0779  0.5421
33674SOL    HW1 7880   9.170   7.717   9.604 -1.3611  1.2189  1.4825
33674SOL    HW2 7881   9.035   7.661   9.644  0.0581 -2.7571  1.1900
33675SOL     OW 7882   7.657   9.084  10.761  0.3768 -0.0788  0.0377
33675SOL    HW1 7883   7.666   9.177  10.743 -2.8178  0.7649  1.9525
33675SOL    HW2 7884   7.658   9.042  10.675 -1.5508  2.1348 -1.1564
33676SOL     OW 7885  11.423   1.675   6.058  0.0290 -0.8765  0.5116
33676SOL    HW1 7886  11.467   1.752   6.094  0.6682 -1.3523  0.7745
33676SOL    HW2 7887  11.343   1.709   6.017  0.9245  0.0908 -0.4917
33677SOL     OW 7888   8.460   7.842  11.463  0.4829 -0.0679  0.1165
33677SOL    HW1 7889   8.465   7.891  11.545  0.8620  3.1493 -1.6281
33677SOL    HW2 7890   8.404   7.767  11.482 -0.8873  1.5013  2.8450
33678SOL     OW 7891  10.145   8.095  10.915 -0.2217 -0.1591  0.1697
33678SOL    HW1 7892  10.052   8.071  10.909 -0.0817 -0.6363 -0.1192
33678SOL    HW2 7893  10.187   8.046  10.845 -0.1081  1.9324 -1.3164
33679SOL     OW 7894   9.617   0.250   3.704 -0.0540  0.1996  0.1014
33679SOL    HW1 7895   9.586   0.174   3.654 -0.3625  0.3163  0.1108
33679SOL    HW2 7896   9.542   0.310   3.703  0.7475  1.2419 -1.3895
33680SOL     OW 7897   5.006   2.139   6.484  0.0545  0.2539  0.1995
33680SOL    HW1 7898   5.025   2.049   6.510 -0.7415 -0.2982 -1.0218
33680SOL    HW2 7899   5.075   2.191   6.525  3.3742 -1.3852 -2.7484
33681SOL     OW 7900   7.593   9.765   5.755 -0.6446  0.1365  0.2569
33681SOL    HW1 7901   7.660   9.733   5.694 -0.5676  2.1582 -0.8052
33681SOL    HW2 7902   7.542   9.827   5.703 -1.7769  0.5007  1.7634
33682SOL     OW 7903   9.801  12.556   2.886  0.0412  0.0094  0.0345
33682SOL    HW1 7904   9.808  12.567   2.791  0.4290  0.6913  0.1380
33682SOL    HW2 7905   9.840  12.470   2.903 -0.7602 -0.4770 -0.5059
33683SOL     OW 7906   8.130  12.361   3.408 -0.0838 -0.3843 -0.4328
33683SOL    HW1 7907   8.083  12.441   3.431  0.4421 -0.2765  0.3127
33683SOL    HW2 7908   8.198  12.390   3.347  1.8245  0.2388  1.8530
33684SOL     OW 7909   8.253   7.616   3.288  0.0023  0.4388  0.4360
33684SOL    HW1 7910   8.300   7.553   3.233  3.2033  1.8213  1.3442
33684SOL    HW2 7911   8.191   7.563   3.338  1.0191 -1.6580 -0.4102
33685SOL     OW 7912   0.854   2.270   1.342 -0.5178 -0.3235 -0.6657
33685SOL    HW1 7913   0.888   2.203   1.283 -0.0769 -0.1637 -0.5924
33685SOL    HW2 7914   0.881   2.353   1.302  1.6148 -0.2253  0.8232
33686SOL     OW 7915   9.791   1.216   2.430 -0.4787 -0.1824 -0.0875
33686SOL    HW1 7916   9.796   1.274   2.354 -1.0384 -0.6719 -0.5131
33686SOL    HW2 7917   9.856   1.250   2.491 -1.3401  1.3355  0.0009
33687SOL     OW 7918   3.611   9.163  10.522  1.0352 -0.2615  0.2010
33687SOL    HW1 7919   3.602   9.251  10.560  2.6011  1.5008 -3.0961
33687SOL    HW2 7920   3.698   9.135  10.549  1.2083 -0.0456 -0.1282
33688SOL     OW 7921   3.585   1.865   6.519  0.1000 -0.1368 -0.7654
33688SOL    HW1 7922   3.607   1.817   6.599  0.2739 -1.3331 -1.5090
33688SOL    HW2 7923   3.596   1.801   6.448  0.4253  1.0218 -1.8081
33689SOL     OW 7924   6.178   2.410   0.284 -0.0442  0.6665 -0.8053
33689SOL    HW1 7925   6.241   2.404   0.355 -0.9475  2.0819  0.1613
33689SOL    HW2 7926   6.169   2.320   0.252 -1.5789 -0.5823  2.6285
33690SOL     OW 7927   2.732   6.417   1.579  0.2211  0.5716 -0.4353
33690SOL    HW1 7928   2.645   6.379   1.569  0.3927  0.3020 -0.9563
33690SOL    HW2 7929   2.787   6.366   1.519  0.6728  0.9406 -0.3386
33691SOL     OW 7930   4.588   6.033  10.902 -0.7447 -0.6574  0.3226
33691SOL    HW1 7931   4.568   6.003  10.991  0.4407  0.8869  1.1722
33691SOL    HW2 7932   4.682   6.051  10.904 -1.2996  3.2071  0.0565
33692SOL     OW 7933   5.343   6.851   7.106  0.1553  0.1233  0.5575
33692SOL    HW1 7934   5.374   6.875   7.018  0.7091  1.7594  1.1607
33692SOL    HW2 7935   5.419   6.861   7.162  0.1670 -2.2702  1.0574
33693SOL     OW 7936  10.218   6.920  10.828  0.3769 -0.0736  0.7449
33693SOL    HW1 7937  10.251   6.837  10.794 -0.8874  0.0410 -0.8498
33693SOL    HW2 7938  10.255   6.987  10.770 -0.5896  0.2643  0.5066
33694SOL     OW 7939  10.508   6.923   8.537  0.2117 -0.5492 -0.2326
33694SOL    HW1 7940  10.603   6.932   8.529  0.1220  0.2753 -0.4473
33694SOL    HW2 7941  10.473   6.965   8.459 -0.3142 -1.3499 -0.4334
33695SOL     OW 7942   7.486   3.042   8.607 -0.0122  0.3012 -0.4165
33695SOL    HW1 7943   7.419   2.987   8.648 -1.4225  0.9900 -1.6932
33695SOL    HW2 7944   7.528   2.985   8.543  1.0329 -0.2858  0.7508
33696SOL     OW 7945   9.367   0.731  11.642 -0.6664  0.3355  0.5019
33696SOL    HW1 7946   9.397   0.652  11.598 -0.6965 -0.2671  1.5340
33696SOL    HW2 7947   9.277   0.743  11.613  0.3418  1.9947 -2.4041
33697SOL     OW 7948   5.064   1.389  12.558  0.2045 -0.1719  0.1052
33697SOL    HW1 7949   4.978   1.366  12.593  0.4040  0.1385  0.8073
33697SOL    HW2 7950   5.126   1.334  12.607  0.4199 -0.3196 -0.3251
33698SOL     OW 7951  12.314  10.206  10.122  0.2598  0.6440 -1.3254
33698SOL    HW1 7952  12.238  10.148  10.130  0.4674  0.1432 -2.7759
33698SOL    HW2 7953  12.283  10.281  10.072 -0.1573  2.1355  1.0073
33699SOL     OW 7954   7.835   8.306  11.196 -0.0090  0.1118 -0.0498
33699SOL    HW1 7955   7.907   8.343  11.146  1.2438 -0.3721  1.3255
33699SOL    HW2 7956   7.789   8.382  11.232  1.8046  0.4404  1.7437
33700SOL     OW 7957   9.428  12.360  11.410 -0.5624  0.1469 -0.2006
33700SOL    HW1 7958   9.485  12.360  11.334 -1.5237  1.0475 -0.9560
33700SOL    HW2 7959   9.348  12.404  11.380 -0.8721  0.7291  1.3798
33701SOL     OW 7960  10.964  10.427   9.303  0.1747  0.3578  0.6526
33701SOL    HW1 7961  10.931  10.351   9.352 -0.1915 -0.5901 -1.0088
33701SOL    HW2 7962  11.007  10.481   9.370 -1.5974 -0.1237  2.2750
33702SOL     OW 7963   1.428   5.443   4.568  0.2403  0.0507 -0.7946
33702SOL    HW1 7964   1.405   5.351   4.580  0.3990  0.2683  1.9931
33702SOL    HW2 7965   1.348   5.491   4.592  0.6003  0.6436 -0.7575
33703SOL     OW 7966  12.574   9.522  10.714 -0.5085  0.0603  0.0585
33703SOL    HW1 7967  12.511   9.520  10.786 -0.6758  1.0766 -0.0337
33703SOL    HW2 7968  12.647   9.575  10.748 -0.1714 -0.2388 -0.1946
33704SOL     OW 7969   3.043   8.690  11.925  0.2159  0.0882  0.2015
33704SOL    HW1 7970   3.005   8.694  11.837  0.2711  3.2362  0.2100
33704SOL    HW2 7971   2.990   8.752  11.977  0.8087 -0.9545  2.1454
33705SOL     OW 7972   6.954  11.975   6.099 -0.3650  0.1633 -0.0018
33705SOL    HW1 7973   6.989  12.062   6.079 -1.5785  0.8627  0.8210
33705SOL    HW2 7974   7.030  11.926   6.132  1.0052 -0.0456 -3.0610
33706SOL     OW 7975   8.283   2.705   1.286 -0.1694  0.2605  0.0802
33706SOL    HW1 7976   8.310   2.636   1.346 -0.0800 -0.4471 -0.7661
33706SOL    HW2 7977   8.358   2.765   1.283 -0.3203  0.5120  0.9589
33707SOL     OW 7978   5.105   5.185   1.848  0.3697 -0.3343 -0.6105
33707SOL    HW1 7979   5.057   5.132   1.786 -0.3047  0.4465 -0.7755
33707SOL    HW2 7980   5.050   5.186   1.927  1.1632 -1.2271 -0.0154
33708SOL     OW 7981   5.815   2.978  11.587 -0.5539  0.5286 -0.1350
33708SOL    HW1 7982   5.764   2.899  11.606  1.6943 -1.3445 -1.3628
33708SOL    HW2 7983   5.804   3.033  11.664 -1.0073 -1.6400  1.4427
33709SOL     OW 7984  10.020   7.402   7.826  0.2171 -0.0312  0.5716
33709SOL    HW1 7985   9.981   7.433   7.744 -1.4768  0.4610  1.5199
33709SOL    HW2 7986  10.006   7.473   7.888  1.7493 -0.2693  1.2421
33710SOL     OW 7987   5.350   3.782   4.236  0.1935 -0.6055 -0.9425
33710SOL    HW1 7988   5.262   3.746   4.243 -0.0061  0.1461  0.9744
33710SOL    HW2 7989   5.338   3.865   4.191 -0.4937  0.6417  1.3816
33711SOL     OW 7990   8.830   1.890   0.344 -0.3437  0.1003  0.2895
33711SOL    HW1 7991   8.816   1.883   0.438  2.8714 -1.0306  0.8237
33711SOL    HW2 7992   8.871   1.975   0.331  1.4265 -0.6946  0.3432
33712SOL     OW 7993  11.504   6.055  10.110 -0.3865  0.1436 -0.1237
33712SOL    HW1 7994  11.439   6.124  10.106  0.3363  0.8266 -0.2345
33712SOL    HW2 7995  11.564   6.082  10.180  0.7081  0.3652 -1.1238
33713SOL     OW 7996   1.534   5.201   4.721  0.1471 -0.0416  0.2990
33713SOL    HW1 7997   1.599   5.225   4.787  0.4498  0.0559 -0.0249
33713SOL    HW2 7998   1.568   5.241   4.640  0.1821 -0.7957 -0.0628
33714SOL     OW 7999  11.143  11.915   2.750  0.3628 -0.1966 -0.0824
33714SOL    HW1 8000  11.226  11.869   2.742  1.1357  1.0799  0.2231
33714SOL    HW2 8001  11.144  11.978   2.677 -0.8036 -0.8397 -0.6865
33715SOL     OW 8002   1.904   7.903   0.567 -0.1671 -0.1744  0.3428
33715SOL    HW1 8003   1.951   7.937   0.491 -1.2686  2.3599  0.6952
33715SOL    HW2 8004   1.838   7.969   0.587 -1.7143 -2.0315  1.8900
33716SOL     OW 8005   1.431   1.561   8.862 -0.1457  0.2069 -0.1376
33716SOL    HW1 8006   1.454   1.650   8.833  1.0802  0.0776  0.3656
33716SOL    HW2 8007   1.512   1.527   8.899 -0.4862 -1.2854 -0.7111
33717SOL     OW 8008  10.860   2.605   3.600  0.2153 -0.8751  0.2532
33717SOL    HW1 8009  10.861   2.661   3.523  0.9938 -0.8459  0.2774
33717SOL    HW2 8010  10.772   2.567   3.601  0.0202 -0.4509 -0.3345
33718SOL     OW 8011   1.927   9.411   0.647  0.0990 -0.3609 -0.2273
33718SOL    HW1 8012   1.991   9.378   0.584 -0.1635 -2.3448  0.4687
33718SOL    HW2 8013   1.977   9.422   0.728  0.1709  0.9927 -0.4341
33719SOL     OW 8014   5.900   5.182  11.521  0.4275 -0.3751  0.0489
33719SOL    HW1 8015   5.947   5.120  11.576 -0.2279 -0.3341  0.6611
33719SOL    HW2 8016   5.815   5.193  11.563  0.4783  0.8309 -0.1165
33720SOL     OW 8017   8.810   6.080   0.300  0.7357  0.0419 -0.0253
33720SOL    HW1 8018   8.845   6.160   0.261  1.1381  0.4315  1.0892
33720SOL    HW2 8019   8.837   6.010   0.241 -0.3706  0.7963 -1.5023
33721SOL     OW 8020   4.567   4.193  11.535  0.3637 -0.0680 -0.2524
33721SOL    HW1 8021   4.540   4.119  11.481  0.7074 -0.0292 -0.4788
33721SOL    HW2 8022   4.509   4.264  11.508  1.3903  0.3173 -1.5095
33722SOL     OW 8023   4.484   6.771   8.052  0.5038 -0.3037  0.2714
33722SOL    HW1 8024   4.455   6.680   8.043  0.4002 -0.2362 -0.1146
33722SOL    HW2 8025   4.407   6.823   8.028  1.3885 -0.1144 -2.5798
33723SOL     OW 8026  10.943   6.190   5.337 -0.4638 -0.1600  0.0457
33723SOL    HW1 8027  10.977   6.265   5.386 -1.3149 -1.5450  3.0152
33723SOL    HW2 8028  11.018   6.130   5.330 -0.4574 -0.1528  0.0581
33724SOL     OW 8029   1.025   3.173   8.123  0.0283  0.4805 -0.2832
33724SOL    HW1 8030   0.985   3.089   8.098  0.7695 -0.0458  0.2471
33724SOL    HW2 8031   1.075   3.153   8.203  2.4089  0.7839 -1.5988
33725SOL     OW 8032   7.315   8.442   9.285  0.2490  0.4663  0.3899
33725SOL    HW1 8033   7.411   8.442   9.276  0.3799 -0.1164  1.6671
33725SOL    HW2 8034   7.298   8.493   9.364 -0.8302  4.9248 -2.3687
33726SOL     OW 8035   5.944   4.443  12.451 -0.3394  1.0490 -0.2293
33726SOL    HW1 8036   5.904   4.523  12.417 -0.8908  0.3286 -1.3456
33726SOL    HW2 8037   5.909   4.434  12.539 -1.4319  1.2679 -0.6311
33727SOL     OW 8038   9.910  12.176   3.792  0.6368  0.5430  0.3473
33727SOL    HW1 8039   9.882  12.207   3.706 -1.9209 -3.6255 -0.6374
33727SOL    HW2 8040   9.844  12.208   3.852  0.5419  0.7093  0.1549
33728SOL     OW 8041   2.938  12.463   4.493 -0.2522 -0.1943  0.0651
33728SOL    HW1 8042   2.861  12.452   4.437  0.2556 -0.2514 -0.6435
33728SOL    HW2 8043   2.908  12.516   4.566 -0.6873  0.7743 -0.7980
33729SOL     OW 8044   2.693   3.268   0.388  0.0605 -0.0043  0.3931
33729SOL    HW1 8045   2.688   3.345   0.445  1.0115  0.2231  0.1913
33729SOL    HW2 8046   2.640   3.202   0.432 -0.8303  0.7894  0.5286
33730SOL     OW 8047   7.078  12.510   1.015  0.3607  0.1108 -0.0094
33730SOL    HW1 8048   7.152  12.468   1.060  1.3601  1.4438 -0.3080
33730SOL    HW2 8049   7.118  12.586   0.972 -1.2161  0.8975 -0.1334
33731SOL     OW 8050   6.233  12.017  11.831 -0.4122  0.0320 -0.1668
33731SOL    HW1 8051   6.321  11.984  11.847 -0.2661 -0.2528 -1.5022
33731SOL    HW2 8052   6.175  11.943  11.852 -0.3142  0.0736  0.2614
33732SOL     OW 8053   0.512   7.510   4.246 -0.3558 -0.3306 -0.3837
33732SOL    HW1 8054   0.466   7.507   4.161 -1.4350 -0.9904  0.2035
33732SOL    HW2 8055   0.536   7.419   4.263 -1.4691 -0.4410  0.7036
33733SOL     OW 8056   1.647   7.854   3.611 -1.0105  0.0579 -0.5933
33733SOL    HW1 8057   1.708   7.826   3.542  0.0934 -0.8679  0.7194
33733SOL    HW2 8058   1.701   7.903   3.672 -1.7945  0.0722  0.1028
33734SOL     OW 8059   3.967   1.954   7.321  0.2139  0.4610 -0.1513
33734SOL    HW1 8060   3.945   1.926   7.232 -0.3219 -0.3519  0.2330
33734SOL    HW2 8061   4.053   1.916   7.337  0.1506  0.3024 -0.1859
33735SOL     OW 8062   7.679   5.729  11.279 -0.3653 -0.1314  0.4604
33735SOL    HW1 8063   7.593   5.756  11.312 -0.0958  0.3692  0.7587
33735SOL    HW2 8064   7.661   5.648  11.231 -0.7113 -1.1246  2.1736
33736SOL     OW 8065   9.604  12.516   0.640  0.5130 -0.0791 -0.4041
33736SOL    HW1 8066   9.678  12.530   0.700 -0.6612  1.1881  0.8171
33736SOL    HW2 8067   9.643  12.475   0.563  2.2028 -1.1287  0.9274
33737SOL     OW 8068   4.580   3.481   6.601 -0.1396 -0.3893  0.0798
33737SOL    HW1 8069   4.488   3.461   6.581 -0.0461 -1.8214  0.9451
33737SOL    HW2 8070   4.576   3.564   6.650 -1.2674 -1.6561  2.3189
33738SOL     OW 8071   9.863   2.298   5.922  0.1153 -0.2424  0.0588
33738SOL    HW1 8072   9.893   2.208   5.934  3.9013  1.0699  2.0695
33738SOL    HW2 8073   9.898   2.324   5.836 -0.9200 -0.6477 -0.4916
33739SOL     OW 8074   4.956  11.934   8.603 -0.3141 -0.4835  0.5054
33739SOL    HW1 8075   4.946  12.028   8.586  0.0920 -0.6468 -0.7065
33739SOL    HW2 8076   5.047  11.925   8.631  0.3003 -0.7801 -1.4655
33740SOL     OW 8077   9.136   0.782   8.763 -0.3793  0.1326 -0.4525
33740SOL    HW1 8078   9.180   0.697   8.761 -1.3306 -0.3660 -0.9618
33740SOL    HW2 8079   9.078   0.778   8.839 -1.3268 -0.1706 -1.1583
33741SOL     OW 8080   3.568  10.633  12.440  0.3287  0.7107 -0.5287
33741SOL    HW1 8081   3.658  10.665  12.451  1.1455 -0.3011 -3.3197
33741SOL    HW2 8082   3.566  10.552  12.490  0.8741  0.8912 -0.1992
33742SOL     OW 8083   7.629  10.970   7.050  0.2408  0.0759 -0.1016
33742SOL    HW1 8084   7.717  10.932   7.052  0.4955  0.6897  0.4995
33742SOL    HW2 8085   7.580  10.919   7.114  0.3817  0.2643  0.1586
33743SOL     OW 8086   7.994  11.450  12.353  0.4602  0.3859  0.2972
33743SOL    HW1 8087   7.983  11.382  12.419  3.4983  1.6158  2.2721
33743SOL    HW2 8088   7.986  11.532  12.400 -1.8453  1.5003 -1.8009
33744SOL     OW 8089   3.292   0.869   6.364 -0.0443  0.5385 -0.0542
33744SOL    HW1 8090   3.376   0.910   6.385  0.7890 -1.7403  1.3441
33744SOL    HW2 8091   3.245   0.866   6.447 -0.9852  0.5862 -0.5709
33745SOL     OW 8092  12.216  12.514   3.520  0.6930 -0.5023  0.2217
33745SOL    HW1 8093  12.204  12.607   3.537  0.2932 -0.5905  0.4234
33745SOL    HW2 8094  12.142  12.489   3.465  1.2845 -0.5042 -0.5910
33746SOL     OW 8095   5.076  10.161   3.605 -0.0465  0.4347  0.5770
33746SOL    HW1 8096   5.042  10.157   3.695 -1.5464  1.5869  0.0941
33746SOL    HW2 8097   5.002  10.135   3.550  0.6396  0.4371 -0.3720
33747SOL     OW 8098  10.241   9.507   6.617  0.4483 -0.0042 -0.3579
33747SOL    HW1 8099  10.166   9.522   6.675 -0.6613 -0.5683 -1.6007
33747SOL    HW2 8100  10.285   9.592   6.613 -0.8766  0.6958 -0.6340
33748SOL     OW 8101   0.761   2.713  11.243  0.0383  0.0571 -0.2554
33748SOL    HW1 8102   0.849   2.739  11.217 -0.0101  0.3709 -0.1174
33748SOL    HW2 8103   0.737   2.776  11.311 -0.3375  0.0531 -0.3791
33749SOL     OW 8104  10.637   7.375   4.069  0.4569  0.1664  0.0270
33749SOL    HW1 8105  10.612   7.466   4.053 -2.3869 -0.8775 -2.6870
33749SOL    HW2 8106  10.564   7.340   4.121  1.2900 -0.6933  0.6348
33750SOL     OW 8107   7.941   4.450  10.981  0.1294 -0.0407  0.2095
33750SOL    HW1 8108   8.006   4.464  11.050 -1.6098  1.7686  1.5897
33750SOL    HW2 8109   7.880   4.387  11.017 -0.2713  0.1904 -0.0524
33751SOL     OW 8110  10.141   9.294   2.043 -0.4604  0.5322 -0.4629
33751SOL    HW1 8111  10.128   9.388   2.030  0.1277  0.8906  1.2597
33751SOL    HW2 8112  10.185   9.265   1.963  0.6959  2.0360 -0.4131
33752SOL     OW 8113   0.489   5.410   1.806 -0.2426 -0.0830 -0.2965
33752SOL    HW1 8114   0.412   5.395   1.751  0.7337 -0.5592 -1.5754
33752SOL    HW2 8115   0.522   5.322   1.824  0.1398  0.1327  0.0650
33753SOL     OW 8116   5.276  12.495   3.555 -0.3278  0.1113  0.4607
33753SOL    HW1 8117   5.365  12.459   3.556 -0.4112 -0.2431 -1.7018
33753SOL    HW2 8118   5.287  12.588   3.538 -0.3413  0.3760  1.7413
33754SOL     OW 8119   2.393   4.724   0.602 -0.3560 -0.0754 -0.4963
33754SOL    HW1 8120   2.372   4.730   0.695  0.2753 -2.2229 -0.1616
33754SOL    HW2 8121   2.339   4.652   0.569 -0.3492  0.4510 -1.7490
33755SOL     OW 8122   2.563   5.660   6.299  0.1340 -0.0869 -0.1761
33755SOL    HW1 8123   2.586   5.696   6.213 -2.3112 -1.4215 -1.4924
33755SOL    HW2 8124   2.496   5.719   6.332 -1.0630 -1.1793 -0.5722
33756SOL     OW 8125   0.677   4.523  10.617  0.0262  1.0577 -0.0418
33756SOL    HW1 8126   0.748   4.480  10.571  0.3731  0.7042  0.8066
33756SOL    HW2 8127   0.605   4.460  10.614  0.1385  0.9187  0.1297
33757SOL     OW 8128   7.200   7.881   4.417  0.7073  0.2967  0.8308
33757SOL    HW1 8129   7.140   7.887   4.491  1.6490 -0.0617  1.6566
33757SOL    HW2 8130   7.162   7.937   4.350 -0.9304 -0.5012  1.0493
33758SOL     OW 8131   6.347   4.400   8.187 -0.3684  0.6224 -0.2952
33758SOL    HW1 8132   6.394   4.371   8.109 -2.2811  3.1449 -2.6108
33758SOL    HW2 8133   6.405   4.464   8.228  0.2784 -0.0315 -0.1902
33759SOL     OW 8134   2.854   5.118   0.257  0.6039 -0.2464  0.4815
33759SOL    HW1 8135   2.929   5.172   0.280  0.5276 -0.0226  0.2172
33759SOL    HW2 8136   2.811   5.099   0.340  1.5116 -1.2220  0.7638
33760SOL     OW 8137   6.878   6.686  11.148  0.1370  0.2955  0.3800
33760SOL    HW1 8138   6.885   6.611  11.207 -0.6112  1.2623  1.7609
33760SOL    HW2 8139   6.929   6.755  11.192  0.7016  0.6540 -0.7962
33761SOL     OW 8140   4.163   0.888   7.016  0.0795  0.4620  0.7003
33761SOL    HW1 8141   4.069   0.903   7.022  0.1356  1.2303 -0.0730
33761SOL    HW2 8142   4.202   0.948   7.079  0.0845  0.5849  0.5802
33762SOL     OW 8143  10.553   7.161   0.393  1.1051 -0.0198  0.7584
33762SOL    HW1 8144  10.604   7.141   0.315  0.3915  0.6641  0.1061
33762SOL    HW2 8145  10.618   7.159   0.464  1.7805 -0.5315  0.1459
33763SOL     OW 8146  12.133   6.455   8.823  0.2289 -0.2681 -0.6169
33763SOL    HW1 8147  12.186   6.530   8.796  2.3963 -1.8267 -0.9684
33763SOL    HW2 8148  12.136   6.395   8.749 -2.0418 -0.4676 -0.6180
33764SOL     OW 8149   9.903   3.457   6.451 -0.9141  0.0764  0.2388
33764SOL    HW1 8150   9.879   3.478   6.361 -0.5503 -1.7658 -0.3326
33764SOL    HW2 8151   9.997   3.437   6.446 -1.2524 -1.7981  0.6435
33765SOL     OW 8152   8.955  10.077   0.119  0.0218 -0.2793 -0.3686
33765SOL    HW1 8153   9.003  10.005   0.078 -0.3386 -0.6046 -0.2236
33765SOL    HW2 8154   8.865  10.045   0.125  0.2215 -0.5917  1.4654
33766SOL     OW 8155  11.142   1.619   9.178  0.9133  0.0327 -0.2537
33766SOL    HW1 8156  11.120   1.645   9.268 -0.2245  2.3451 -1.1231
33766SOL    HW2 8157  11.214   1.677   9.154  3.2413 -2.5051  0.0269
33767SOL     OW 8158   0.914  10.757   0.036  0.6356  0.0909  0.2673
33767SOL    HW1 8159   0.919  10.825   0.102  0.4954 -0.1952  0.5772
33767SOL    HW2 8160   0.919  10.675   0.086 -0.0382 -0.1332 -0.0284
33768SOL     OW 8161   7.906   8.708   5.570  0.2545  0.2282 -0.6829
33768SOL    HW1 8162   7.832   8.654   5.596 -0.1232  0.1893 -1.7957
33768SOL    HW2 8163   7.894   8.722   5.476  1.2805  0.8016 -0.7439
33769SOL     OW 8164   7.936  12.128   5.783  0.7485  0.2143  0.7469
33769SOL    HW1 8165   7.914  12.076   5.706  2.0152  1.2136 -0.3358
33769SOL    HW2 8166   7.891  12.085   5.855 -1.4928 -0.0661 -0.7258
33770SOL     OW 8167   1.883   3.922   0.856  0.0147 -0.4210 -0.1775
33770SOL    HW1 8168   1.848   3.931   0.768  0.5624 -2.6030 -0.6696
33770SOL    HW2 8169   1.845   3.840   0.889  1.1913 -0.5493  0.9301
33771SOL     OW 8170   5.436  10.800   0.609 -0.3512  0.3626 -0.2613
33771SOL    HW1 8171   5.470  10.833   0.526  0.4421  2.2221  0.7323
33771SOL    HW2 8172   5.420  10.879   0.661 -1.9437 -0.6826  0.9519
33772SOL     OW 8173   0.288   7.158   6.836 -0.2934  0.6195  0.0818
33772SOL    HW1 8174   0.304   7.102   6.913 -1.0238  2.6536  1.8137
33772SOL    HW2 8175   0.250   7.098   6.771  1.9271 -1.5272  0.6092
33773SOL     OW 8176   9.361   6.391   4.155 -0.2089  0.2733 -0.7432
33773SOL    HW1 8177   9.270   6.416   4.142 -0.4446  0.7921  1.4198
33773SOL    HW2 8178   9.402   6.404   4.070 -1.8573  1.3567 -1.4252
33774SOL     OW 8179   9.132  11.149   7.660  0.3179  0.0122  0.4094
33774SOL    HW1 8180   9.200  11.108   7.714  0.2317 -1.1935 -0.3727
33774SOL    HW2 8181   9.170  11.233   7.634  0.6028  0.3509  1.8241
33775SOL     OW 8182   3.877  11.479   6.082 -0.5149  0.2339  0.0135
33775SOL    HW1 8183   3.938  11.547   6.111  0.8620 -1.6691  1.9076
33775SOL    HW2 8184   3.815  11.469   6.154 -1.6887  0.5346 -0.9243
33776SOL     OW 8185   2.973  11.065   0.904 -0.1064 -0.2440  0.3066
33776SOL    HW1 8186   2.962  11.082   0.810 -0.1815 -1.1554  0.1385
33776SOL    HW2 8187   2.890  11.090   0.943 -0.0956  0.0833  0.1183
33777SOL     OW 8188  10.038   3.081   5.401 -0.2141  0.2836 -0.1427
33777SOL    HW1 8189   9.959   3.029   5.414  0.5633 -0.2938  3.6591
33777SOL    HW2 8190  10.090   3.065   5.480  2.0531  3.4850 -0.7873
33778SOL     OW 8191   5.969   4.637   3.882  0.1829 -0.4110  0.1006
33778SOL    HW1 8192   5.876   4.617   3.872 -0.1227  0.5230  0.8855
33778SOL    HW2 8193   5.985   4.627   3.976  0.4066  1.2557  0.2691
33779SOL     OW 8194  12.239  11.963   5.892  0.4031  0.0936 -0.8617
33779SOL    HW1 8195  12.290  12.012   5.828  3.2020  1.7554  2.3191
33779SOL    HW2 8196  12.304  11.910   5.938 -1.4825 -1.1428  0.5330
33780SOL     OW 8197   7.264   4.474   7.501  0.4735  0.4246  0.3432
33780SOL    HW1 8198   7.318   4.552   7.506 -1.5435  1.8325  2.9084
33780SOL    HW2 8199   7.258   4.454   7.408  1.6767  2.8612 -0.3192
33781SOL     OW 8200   8.044   1.776  10.932 -0.6897  0.0753 -0.0646
33781SOL    HW1 8201   7.981   1.711  10.903 -0.5537 -0.9375  1.7363
33781SOL    HW2 8202   8.117   1.725  10.966 -0.2712  1.1601  0.7346
33782SOL     OW 8203   1.164   2.328   8.739  0.0133 -0.4632 -0.9028
33782SOL    HW1 8204   1.143   2.268   8.667 -0.3910  1.0883 -2.1264
33782SOL    HW2 8205   1.223   2.393   8.700  2.6540 -1.4934  1.0404
33783SOL     OW 8206   6.991   4.986   1.368 -0.3677 -0.5211  0.0292
33783SOL    HW1 8207   6.920   5.038   1.406  0.5442  0.3551  0.5895
33783SOL    HW2 8208   6.949   4.904   1.341 -1.1054 -1.1214  2.7026
33784SOL     OW 8209   7.394   9.086  12.436  0.2907  0.3332 -0.0050
33784SOL    HW1 8210   7.424   9.004  12.474 -1.2096 -0.2868 -0.0565
33784SOL    HW2 8211   7.314   9.107  12.486  1.0529  2.1830  0.5307
33785SOL     OW 8212   4.466   7.047   0.805 -0.0232  0.3662 -0.5939
33785SOL    HW1 8213   4.504   6.959   0.802 -2.3445 -0.8499  1.4221
33785SOL    HW2 8214   4.374   7.033   0.785 -1.1642  1.7096  2.9757
33786SOL     OW 8215   0.731   9.402   4.135 -0.4702 -0.3900  0.4729
33786SOL    HW1 8216   0.660   9.455   4.172 -1.7710 -0.8853 -1.1706
33786SOL    HW2 8217   0.707   9.393   4.042 -0.0276 -3.4054  0.5767
33787SOL     OW 8218   5.370   2.627   8.297 -0.6517  0.0681 -0.3735
33787SOL    HW1 8219   5.436   2.577   8.345 -0.6431  0.4337  0.0037
33787SOL    HW2 8220   5.391   2.613   8.205  1.0066  1.5675 -0.2662
33788SOL     OW 8221   1.221  12.145   0.363 -0.0498  0.4069 -0.4761
33788SOL    HW1 8222   1.279  12.069   0.364  0.1397  0.5502  1.0862
33788SOL    HW2 8223   1.252  12.197   0.289  0.2464 -0.6981 -1.1528
33789SOL     OW 8224   1.029   4.501  11.535  0.2269  0.2544 -0.2576
33789SOL    HW1 8225   0.952   4.529  11.486  0.1733 -0.8326 -0.8163
33789SOL    HW2 8226   0.997   4.430  11.591  0.8912 -0.4610 -0.7675
33790SOL     OW 8227   8.324  12.427   9.693 -0.2212  0.5923 -0.3196
33790SOL    HW1 8228   8.328  12.515   9.657 -0.1750  1.3119  1.3436
33790SOL    HW2 8229   8.255  12.431   9.759 -1.0994 -0.9727 -1.0855
33791SOL     OW 8230   2.701  11.194  10.700 -0.3625 -0.4628 -0.0871
33791SOL    HW1 8231   2.732  11.245  10.775 -0.7633  0.3971 -0.4939
33791SOL    HW2 8232   2.612  11.167  10.724 -0.9389  0.8014 -0.7039
33792SOL     OW 8233   9.572   3.150   6.563  0.4614 -0.2923  0.6128
33792SOL    HW1 8234   9.536   3.209   6.629 -0.1470  0.6046 -0.4832
33792SOL    HW2 8235   9.504   3.084   6.550 -0.6598  1.1034 -1.0750
33793SOL     OW 8236   2.008   9.640   7.578  0.5858  0.2945  0.5946
33793SOL    HW1 8237   1.985   9.724   7.618  0.8976  0.8727 -0.4094
33793SOL    HW2 8238   1.923   9.600   7.556  0.3701 -0.3308  2.3421
33794SOL     OW 8239   0.911   2.106   1.128  0.3457 -0.1004  0.3592
33794SOL    HW1 8240   0.894   2.013   1.112  2.4139 -0.4363 -0.2138
33794SOL    HW2 8241   1.005   2.111   1.145  0.1289  1.7863  1.3261
33795SOL     OW 8242   5.542   7.752   9.516  0.5031 -0.2493 -0.3798
33795SOL    HW1 8243   5.633   7.780   9.528  0.5512 -0.2753 -0.6666
33795SOL    HW2 8244   5.536   7.670   9.564  0.8745 -0.6939 -1.0733
33796SOL     OW 8245   0.523   8.763  11.755  0.4110 -0.1366  0.0823
33796SOL    HW1 8246   0.520   8.832  11.821 -1.1500 -0.0039 -0.0959
33796SOL    HW2 8247   0.564   8.805  11.679  0.2400  0.3471  0.2547
33797SOL     OW 8248   6.156   0.246  11.226  0.5773 -0.0872 -0.3663
33797SOL    HW1 8249   6.241   0.266  11.265  0.6899  1.9345 -1.5016
33797SOL    HW2 8250   6.092   0.267  11.294  0.9420 -1.1042  0.3054
33798SOL     OW 8251   3.972   0.650   6.057  0.0599 -0.1499  0.3447
33798SOL    HW1 8252   4.038   0.713   6.027 -0.4002  0.6217  0.9361
33798SOL    HW2 8253   3.936   0.613   5.976  0.2223  0.4628 -0.0170
33799SOL     OW 8254  11.953   4.844  10.694 -0.1813  0.2100 -0.0992
33799SOL    HW1 8255  11.862   4.854  10.664 -1.0272 -1.9666  1.4923
33799SOL    HW2 8256  11.947   4.845  10.789  1.5942  0.7648  0.0447
33800SOL     OW 8257   9.870   7.233  11.065 -0.1537 -0.4151  0.2768
33800SOL    HW1 8258   9.856   7.320  11.101  1.2295  0.4880 -1.2156
33800SOL    HW2 8259   9.952   7.240  11.016 -1.3057 -1.8391 -2.0401
33801SOL     OW 8260   6.094  10.210  10.862 -0.7965  0.0324  0.4445
33801SOL    HW1 8261   6.039  10.279  10.825 -0.7674  0.6092  1.4193
33801SOL    HW2 8262   6.040  10.170  10.930  0.1046  0.9225  1.7475
33802SOL     OW 8263  10.687   3.204  11.471 -0.5454  0.3573  0.0663
33802SOL    HW1 8264  10.619   3.235  11.411 -1.4246  1.7739  1.7327
33802SOL    HW2 8265  10.657   3.118  11.499  0.6342 -1.0546 -2.6072
33803SOL     OW 8266  12.072   5.165   6.666  0.7314  0.2201  0.9412
33803SOL    HW1 8267  12.060   5.169   6.571 -0.1065  2.0348  1.0976
33803SOL    HW2 8268  12.167   5.176   6.678  0.8423  0.0071  0.3346
33804SOL     OW 8269   8.008   6.407  10.490  0.1648  0.0503 -0.6636
33804SOL    HW1 8270   7.945   6.345  10.524  0.1143 -0.7862 -2.2026
33804SOL    HW2 8271   7.955   6.475  10.448  0.2402 -0.9689 -2.4990
33805SOL     OW 8272  10.866   3.931   2.444  0.2755 -0.4512 -0.2026
33805SOL    HW1 8273  10.936   3.924   2.509 -0.7117  0.6773  1.0490
33805SOL    HW2 8274  10.912   3.942   2.361  1.5816 -1.4301  0.3491
33806SOL     OW 8275   1.271   3.004   4.455  0.6713  0.6840 -0.6948
33806SOL    HW1 8276   1.234   3.060   4.386 -0.9394  2.0103  1.1203
33806SOL    HW2 8277   1.194   2.969   4.500  1.5703  2.0238  2.0833
33807SOL     OW 8278   2.748   1.262  11.285 -0.9035  0.3751  0.3448
33807SOL    HW1 8279   2.813   1.325  11.317  0.4367 -0.9264  0.3173
33807SOL    HW2 8280   2.668   1.313  11.274 -0.3658  1.6779  2.0391
33808SOL     OW 8281  10.093   8.224   7.542  0.8873 -0.7388 -0.1397
33808SOL    HW1 8282  10.020   8.243   7.483 -0.5165  0.7661  1.9402
33808SOL    HW2 8283  10.062   8.150   7.595  0.8105 -0.0792  0.7659
33809SOL     OW 8284   2.166  10.504   9.569  0.2654 -0.0690  0.4910
33809SOL    HW1 8285   2.254  10.475   9.592  0.6440 -0.1726 -0.9670
33809SOL    HW2 8286   2.178  10.595   9.539 -0.1197 -0.0815  0.2901
33810SOL     OW 8287  12.384   8.498   9.678  0.0483 -0.0405  0.0096
33810SOL    HW1 8288  12.415   8.546   9.755 -0.4480  1.0574 -0.4545
33810SOL    HW2 8289  12.437   8.532   9.606 -2.2430  2.0240 -0.8474
33811SOL     OW 8290   0.043   1.946   4.465  0.2595  0.4367 -0.5018
33811SOL    HW1 8291   0.021   1.946   4.372  0.5312 -2.2630 -0.6365
33811SOL    HW2 8292   0.137   1.965   4.468  0.7920 -1.7770 -1.0427
33812SOL     OW 8293   1.741   9.427  11.214 -0.4371  0.3326 -0.5034
33812SOL    HW1 8294   1.802   9.354  11.202 -1.1279 -0.4600  0.5980
33812SOL    HW2 8295   1.725   9.460  11.126 -1.8103 -2.2738 -1.3258
33813SOL     OW 8296   9.428   8.298   3.128 -0.2213  0.3664  0.0614
33813SOL    HW1 8297   9.334   8.302   3.110  0.2822  0.7806 -2.9202
33813SOL    HW2 8298   9.456   8.390   3.127  0.4882  0.1540 -0.9772
33814SOL     OW 8299   0.052   2.610   3.356  0.1013  0.2618 -0.2016
33814SOL    HW1 8300   0.117   2.574   3.416 -0.2920 -0.4078 -0.1706
33814SOL    HW2 8301   0.009   2.534   3.318 -1.3546  0.6819  0.5161
33815SOL     OW 8302   4.674  12.100   9.585 -0.1289 -0.3803 -0.1512
33815SOL    HW1 8303   4.693  12.037   9.515 -0.9386  0.1391 -0.8700
33815SOL    HW2 8304   4.578  12.103   9.587 -0.1045 -0.1278  0.7601
33816SOL     OW 8305   4.262  10.721  10.268 -0.4188 -0.2620  0.3789
33816SOL    HW1 8306   4.192  10.681  10.321 -1.6484 -0.1252 -1.0628
33816SOL    HW2 8307   4.219  10.741  10.185  1.5510 -0.8532 -0.8253
33817SOL     OW 8308   5.763  10.484   8.065  0.0921 -0.0091  0.6571
33817SOL    HW1 8309   5.685  10.503   8.014  1.6197 -0.7769 -2.2057
33817SOL    HW2 8310   5.793  10.399   8.032  2.5541  0.6233  1.0564
33818SOL     OW 8311   4.274   6.947   0.023 -0.0043 -0.4565  0.1281
33818SOL    HW1 8312   4.341   7.009   0.053 -0.0886 -0.0448 -0.4996
33818SOL    HW2 8313   4.309   6.861   0.046  0.3806 -0.2071  0.5008
33819SOL     OW 8314   7.074  11.387   8.036  0.3198  0.3982  0.2808
33819SOL    HW1 8315   7.059  11.367   8.128  1.5414 -0.0352  0.4053
33819SOL    HW2 8316   7.078  11.302   7.993  0.5188  0.5671 -0.0425
33820SOL     OW 8317   9.127   5.355   5.870 -0.5192 -0.0696  0.2600
33820SOL    HW1 8318   9.179   5.321   5.943  0.3987 -1.2494 -0.8758
33820SOL    HW2 8319   9.119   5.281   5.810 -0.2869  1.1308 -1.3466
33821SOL     OW 8320   6.898   6.117   5.225 -0.8419 -0.3660  0.0315
33821SOL    HW1 8321   6.867   6.206   5.208 -1.1388  0.1208  2.7617
33821SOL    HW2 8322   6.988   6.116   5.191 -0.0479  1.7121  1.8352
33822SOL     OW 8323   7.471   7.521   2.567  0.0945  0.3617 -0.3752
33822SOL    HW1 8324   7.488   7.484   2.481 -0.3757 -0.3024 -0.1988
33822SOL    HW2 8325   7.471   7.616   2.554 -0.3016  0.2569 -1.1692
33823SOL     OW 8326   2.234  11.385   2.916  0.6148 -0.7632 -0.3850
33823SOL    HW1 8327   2.320  11.383   2.874  0.0416 -0.2393 -1.6225
33823SOL    HW2 8328   2.253  11.377   3.009  1.9338 -1.7188 -0.7108
33824SOL     OW 8329   7.465   2.288  10.228  0.4499 -0.3852  0.1686
33824SOL    HW1 8330   7.549   2.271  10.272  0.0405 -2.1419  0.3469
33824SOL    HW2 8331   7.416   2.207  10.239 -0.4141 -0.1953 -1.8845
33825SOL     OW 8332   3.879   3.071   7.454 -0.1037 -0.0839  0.0471
33825SOL    HW1 8333   3.931   2.992   7.440  0.9267  0.6868 -0.6369
33825SOL    HW2 8334   3.911   3.107   7.537 -0.5749 -0.3669  0.3608
33826SOL     OW 8335   0.899   6.753   2.949  0.3064 -0.1205 -0.3341
33826SOL    HW1 8336   0.966   6.705   2.900  0.9983  0.9218 -0.4397
33826SOL    HW2 8337   0.857   6.809   2.884  1.9956  2.1362  0.3532
33827SOL     OW 8338  11.696   3.119   7.317  0.2161 -0.2083  0.3196
33827SOL    HW1 8339  11.680   3.209   7.347  0.0238  0.0624 -0.5739
33827SOL    HW2 8340  11.788   3.102   7.340  0.4166  0.4141 -0.0139
33828SOL     OW 8341   6.440   6.564   2.257  0.1043  0.1606  0.2751
33828SOL    HW1 8342   6.419   6.655   2.274 -0.2000  0.1480 -0.0253
33828SOL    HW2 8343   6.364   6.530   2.209  0.0631 -0.3392  0.6831
33829SOL     OW 8344   0.254   0.037   9.647 -0.2594 -0.0983  0.2545
33829SOL    HW1 8345   0.279   0.129   9.652 -1.3306  0.1777  0.8045
33829SOL    HW2 8346   0.318  -0.008   9.703  1.3594  0.0447 -1.4061
33830SOL     OW 8347   0.463   5.179   4.657 -0.0449 -0.1505 -0.1071
33830SOL    HW1 8348   0.420   5.264   4.663 -0.1522 -0.1646 -0.6501
33830SOL    HW2 8349   0.465   5.147   4.747 -0.9385 -0.0264 -0.0325
33831SOL     OW 8350  10.720   0.785   4.371 -0.0773  0.0865 -0.1256
33831SOL    HW1 8351  10.728   0.837   4.291 -0.4202 -0.7927 -0.7399
33831SOL    HW2 8352  10.668   0.840   4.430 -2.0307 -0.2618 -1.4284
33832SOL     OW 8353  10.594   0.959   3.860 -0.2732  0.1906  0.2308
33832SOL    HW1 8354  10.673   0.972   3.912 -0.3937 -0.1379  0.4975
33832SOL    HW2 8355  10.523   0.993   3.915 -0.5403 -1.1810  0.7617
33833SOL     OW 8356   0.411   1.928   8.862 -0.5978  0.2617 -0.2811
33833SOL    HW1 8357   0.438   1.846   8.903 -1.2363  1.1573  2.1431
33833SOL    HW2 8358   0.327   1.908   8.821  0.4634 -0.8785 -2.0121
33834SOL     OW 8359   7.382   7.915   1.971  0.1764  0.3312 -0.1239
33834SOL    HW1 8360   7.424   7.874   2.047 -1.0954  0.0882  0.4724
33834SOL    HW2 8361   7.446   7.906   1.901  0.5065 -1.4324  0.3551
33835SOL     OW 8362   6.975   7.127   1.352 -0.4230 -0.3671 -0.1523
33835SOL    HW1 8363   6.994   7.093   1.265 -1.2506  3.1999 -1.9482
33835SOL    HW2 8364   6.890   7.088   1.375 -0.5224 -0.8487 -1.2725
33836SOL     OW 8365   7.756   0.052  11.008 -0.6519 -0.7236 -0.2269
33836SOL    HW1 8366   7.767   0.117  11.078 -2.6949  0.3861 -0.8624
33836SOL    HW2 8367   7.844   0.018  10.993  0.3137  1.1391  0.8641
33837SOL     OW 8368   7.183   4.712  11.163  0.0335  0.3173  0.1815
33837SOL    HW1 8369   7.132   4.792  11.157 -0.9606 -0.3415 -0.5624
33837SOL    HW2 8370   7.216   4.698  11.074 -1.2432 -0.9904 -0.1181
33838SOL     OW 8371  10.896   4.089   9.511 -0.1131 -0.1790 -0.7335
33838SOL    HW1 8372  10.954   4.141   9.456  0.0081  0.1410 -0.3058
33838SOL    HW2 8373  10.888   4.006   9.465  3.2998 -1.5183  0.7424
33839SOL     OW 8374   9.114   3.779   1.877  0.8003  0.4950  0.2136
33839SOL    HW1 8375   9.194   3.824   1.905  0.2088  0.0541  2.8807
33839SOL    HW2 8376   9.073   3.750   1.959 -0.5504 -1.9603 -1.2166
33840SOL     OW 8377   3.558   1.480   0.205  0.3047  0.8484 -0.3545
33840SOL    HW1 8378   3.592   1.548   0.147  2.0299 -0.6763 -1.2290
33840SOL    HW2 8379   3.635   1.428   0.229 -0.9666 -0.9004  0.1334
33841SOL     OW 8380  11.029   5.493   6.115 -0.1350 -0.3417 -0.4091
33841SOL    HW1 8381  10.956   5.434   6.097 -1.0861  0.2479  1.3061
33841SOL    HW2 8382  11.107   5.443   6.092 -0.9906 -1.6779 -0.4695
33842SOL     OW 8383   1.441   7.970   5.193  0.0784  0.3974 -0.6123
33842SOL    HW1 8384   1.489   7.957   5.276 -1.2923  0.9684  0.3024
33842SOL    HW2 8385   1.469   7.897   5.138 -0.3836 -1.0818  1.0366
33843SOL     OW 8386  10.520  10.995   9.505  0.5243  0.3845 -0.3361
33843SOL    HW1 8387  10.500  11.088   9.513  0.2219  0.2949 -0.0381
33843SOL    HW2 8388  10.560  10.987   9.418 -2.1410  0.3456 -1.6787
33844SOL     OW 8389   7.016   1.543  12.119  0.1734 -0.0018 -0.8411
33844SOL    HW1 8390   7.078   1.614  12.105  0.9879 -0.7726 -1.1662
33844SOL    HW2 8391   7.000   1.507  12.032  0.3629 -0.7178 -0.5818
33845SOL     OW 8392   3.653  11.064   1.641  0.0904  0.7168 -0.4710
33845SOL    HW1 8393   3.682  11.078   1.550 -0.9971  0.6222 -0.8503
33845SOL    HW2 8394   3.657  10.969   1.652 -1.5007  0.5429 -1.0548
33846SOL     OW 8395   3.160   3.986   2.313 -0.1935 -0.2966 -0.3382
33846SOL    HW1 8396   3.241   4.026   2.280  0.5756  0.1826  1.9067
33846SOL    HW2 8397   3.135   3.923   2.246  0.3004  1.7185 -2.5643
33847SOL     OW 8398   8.343   0.348  10.106 -0.0180  0.6584 -0.1261
33847SOL    HW1 8399   8.307   0.342  10.195 -0.0706  0.6755 -0.1459
33847SOL    HW2 8400   8.268   0.332  10.049  0.3318 -1.1118 -0.1515
33848SOL     OW 8401   3.627   6.946   4.084 -0.5890  0.4899  0.2241
33848SOL    HW1 8402   3.644   7.030   4.127 -1.9078  0.5852  0.6267
33848SOL    HW2 8403   3.541   6.920   4.118 -1.1681  0.0264 -1.5248
33849SOL     OW 8404   5.342   9.840  11.457 -0.0319 -0.3411  0.4940
33849SOL    HW1 8405   5.280   9.836  11.384  1.7574 -0.6690 -1.0646
33849SOL    HW2 8406   5.316   9.768  11.515 -0.4445 -1.1654 -0.6799
33850SOL     OW 8407   3.976   8.952   7.516  0.0536  0.0751 -0.4759
33850SOL    HW1 8408   3.993   8.870   7.563 -0.5790  0.7742  1.0386
33850SOL    HW2 8409   4.058   8.972   7.471  1.5191  0.5538  2.2073
33851SOL     OW 8410   3.117   0.050  10.645  0.1390  0.0604  0.2400
33851SOL    HW1 8411   3.091   0.039  10.553  1.5433  0.7370 -0.2704
33851SOL    HW2 8412   3.185   0.118  10.643  0.0210  0.2633  1.8169
33852SOL     OW 8413   0.128   3.280   3.397  0.4061 -0.2688  0.3076
33852SOL    HW1 8414   0.142   3.362   3.443 -1.0038  0.4270 -0.4380
33852SOL    HW2 8415   0.191   3.281   3.325 -0.1205  0.5335 -0.1526
33853SOL     OW 8416   1.191   4.336   6.122  0.0375  0.4874  0.9249
33853SOL    HW1 8417   1.124   4.317   6.056  1.3261  1.4744 -0.7495
33853SOL    HW2 8418   1.196   4.432   6.123  0.8666  0.4445  1.6253
33854SOL     OW 8419  12.255   7.155   4.568  0.2342 -0.4280 -0.1116
33854SOL    HW1 8420  12.324   7.203   4.615 -0.3148  0.8451 -0.5713
33854SOL    HW2 8421  12.198   7.121   4.637  0.2858  0.1200  0.2050
33855SOL     OW 8422  12.082   9.834  11.017  0.1855 -0.4644 -0.1019
33855SOL    HW1 8423  12.042   9.766  10.963  1.0340 -1.2405  0.2109
33855SOL    HW2 8424  12.104   9.904  10.956 -0.7768 -0.4320 -0.4177
33856SOL     OW 8425  11.001   0.676   0.455 -0.2576 -0.5148  0.2044
33856SOL    HW1 8426  11.064   0.677   0.383 -0.2462  1.1174  0.1981
33856SOL    HW2 8427  11.053   0.695   0.533 -0.7278  1.0148  0.1789
33857SOL     OW 8428   3.733   4.482  10.337  1.2230 -0.6595  0.2013
33857SOL    HW1 8429   3.737   4.478  10.432 -2.0132 -1.1124  0.4083
33857SOL    HW2 8430   3.752   4.392  10.308 -3.2978 -2.0799  0.8962
33858SOL     OW 8431   4.365   1.758   5.883 -0.1625 -0.2674 -0.0723
33858SOL    HW1 8432   4.342   1.851   5.890 -0.3289 -0.3050 -0.1216
33858SOL    HW2 8433   4.344   1.722   5.970 -1.6930 -0.6134 -0.5472
33859SOL     OW 8434  10.944   6.828   2.154 -0.3015  0.0147  0.8675
33859SOL    HW1 8435  10.883   6.812   2.082 -0.2241  0.5564  0.6723
33859SOL    HW2 8436  10.971   6.919   2.142 -0.7307  0.2950  1.9278
33860SOL     OW 8437   9.765   9.018  10.354  0.3357  0.3447  0.2316
33860SOL    HW1 8438   9.825   8.975  10.293 -1.1678  0.6449 -1.5417
33860SOL    HW2 8439   9.822   9.070  10.411  2.1184 -2.8405  1.6037
33861SOL     OW 8440   2.427   0.743   4.836  0.6786 -1.1066 -0.2208
33861SOL    HW1 8441   2.414   0.672   4.899  0.5422 -0.6542  0.2669
33861SOL    HW2 8442   2.355   0.804   4.852 -0.3894 -1.8286 -2.0123
33862SOL     OW 8443   5.419   2.082   3.714  0.0516  0.4274  0.1599
33862SOL    HW1 8444   5.447   2.061   3.625  2.3851 -1.1108  1.1657
33862SOL    HW2 8445   5.331   2.046   3.721 -0.7222  1.7169 -1.8627
33863SOL     OW 8446   1.870  10.011   3.219  0.5643  0.5491  0.6380
33863SOL    HW1 8447   1.950  10.014   3.272 -0.3718 -1.9419  2.3925
33863SOL    HW2 8448   1.807   9.962   3.273 -1.1054 -0.4170 -1.9792
33864SOL     OW 8449   3.159   9.758   7.116  0.3191  0.1963 -0.1033
33864SOL    HW1 8450   3.204   9.676   7.097  1.3464  0.7722 -0.2443
33864SOL    HW2 8451   3.067   9.734   7.123  0.8269 -1.4069  2.3568
33865SOL     OW 8452  12.022   1.226   9.695  0.3297  0.4140 -0.1286
33865SOL    HW1 8453  12.091   1.287   9.719  0.6141 -0.0601  0.2720
33865SOL    HW2 8454  12.067   1.144   9.677 -0.2463 -0.3761  1.7681
33866SOL     OW 8455   4.605   4.190   2.208 -0.1291  0.2443 -0.1110
33866SOL    HW1 8456   4.588   4.131   2.281  1.3187 -0.9663 -0.6972
33866SOL    HW2 8457   4.522   4.194   2.160 -0.6472 -0.1665  0.7250
33867SOL     OW 8458  10.994   3.016  11.403  0.0387 -0.1008 -0.2240
33867SOL    HW1 8459  11.043   3.089  11.441  2.1414 -1.5001 -0.0501
33867SOL    HW2 8460  10.950   2.976  11.478  1.0855 -0.5844  0.1570
33868SOL     OW 8461  11.250   4.818   8.229  0.0341  0.0346 -0.1308
33868SOL    HW1 8462  11.337   4.793   8.199 -0.3859 -0.5658 -0.8922
33868SOL    HW2 8463  11.259   4.830   8.324  1.0803  0.6258 -0.2951
33869SOL     OW 8464  11.021   2.485   5.257 -0.5143  0.2319 -0.5892
33869SOL    HW1 8465  11.078   2.559   5.237  0.2928  0.4952  2.1584
33869SOL    HW2 8466  11.002   2.445   5.172  1.1236  2.0591 -1.9090
33870SOL     OW 8467   3.122   4.035   9.762  0.1112  0.6950  0.2121
33870SOL    HW1 8468   3.093   4.061   9.849  3.2016 -1.4258  2.0850
33870SOL    HW2 8469   3.145   4.118   9.719 -2.2000  1.8464  1.0232
33871SOL     OW 8470   7.995  10.535  10.974 -0.8646  0.3604  0.2362
33871SOL    HW1 8471   7.991  10.503  10.884  0.0068  1.7789 -0.3475
33871SOL    HW2 8472   7.993  10.456  11.028  1.2019 -0.7037 -1.1298
33872SOL     OW 8473  10.467  11.843   2.079 -0.3500 -0.5783  0.0206
33872SOL    HW1 8474  10.490  11.776   2.144  1.7578 -1.8299 -1.8361
33872SOL    HW2 8475  10.541  11.904   2.080  0.0811 -1.0108 -1.6003
33873SOL     OW 8476   6.425   1.707   6.320  0.0407 -0.7943  0.3307
33873SOL    HW1 8477   6.446   1.682   6.410 -1.1478 -0.1313  0.8128
33873SOL    HW2 8478   6.483   1.780   6.301  2.0024 -2.4275 -0.3275
33874SOL     OW 8479   5.046   5.170  10.052 -0.6459  0.0185  0.3665
33874SOL    HW1 8480   4.973   5.205  10.103 -1.1171 -0.6138  0.1325
33874SOL    HW2 8481   5.065   5.086  10.092  0.6050  0.5957  1.0448
33875SOL     OW 8482   0.993   2.066  11.411  0.2182  0.7918  0.7426
33875SOL    HW1 8483   1.075   2.077  11.363  0.9680  0.6740  1.9534
33875SOL    HW2 8484   0.927   2.105  11.355  1.2121  1.5238  0.0542
33876SOL     OW 8485   6.058  10.910   0.806  0.1637 -0.3764 -0.0130
33876SOL    HW1 8486   6.014  10.938   0.726 -0.4325 -1.2621 -0.0128
33876SOL    HW2 8487   6.015  10.960   0.876  0.5898  0.2947 -0.2242
33877SOL     OW 8488   6.817   4.931   8.899  0.1106 -0.2425  0.1241
33877SOL    HW1 8489   6.729   4.894   8.906 -0.6596  1.3483 -0.5699
33877SOL    HW2 8490   6.853   4.890   8.821 -0.1483 -0.6405  0.2069
33878SOL     OW 8491   2.965   7.719   5.522  0.0475 -0.0069  0.7703
33878SOL    HW1 8492   2.888   7.765   5.553  0.9996  1.0026  1.7422
33878SOL    HW2 8493   2.977   7.749   5.432 -0.8618 -0.4260  0.5032
33879SOL     OW 8494   0.226   2.753  11.014 -0.7851 -0.5946  0.4739
33879SOL    HW1 8495   0.319   2.769  10.998 -1.2839  0.2002 -2.0568
33879SOL    HW2 8496   0.201   2.819  11.079 -0.0773  0.7530 -0.5733
33880SOL     OW 8497   3.465   6.215   6.832 -0.3810  0.6992 -0.3035
33880SOL    HW1 8498   3.393   6.252   6.883 -1.7672  0.0609 -1.6898
33880SOL    HW2 8499   3.494   6.287   6.775 -0.7195  0.6411 -0.5530
33881SOL     OW 8500   3.434  10.239   7.081  0.0436 -0.4378 -0.3116
33881SOL    HW1 8501   3.499  10.261   7.015  0.5125 -0.3627  0.1727
33881SOL    HW2 8502   3.393  10.159   7.049 -1.9237  1.2175 -2.2898
33882SOL     OW 8503   7.925   0.821  11.250 -0.5877  0.1500 -0.2901
33882SOL    HW1 8504   7.926   0.794  11.342  1.1454 -0.1547 -0.3611
33882SOL    HW2 8505   7.973   0.752  11.205 -0.4042  0.8906 -1.2505
33883SOL     OW 8506   4.204  10.946   9.261 -0.6185 -0.1420  0.2754
33883SOL    HW1 8507   4.218  11.026   9.311 -0.3656 -0.1468  0.2125
33883SOL    HW2 8508   4.110  10.946   9.241 -0.4700  0.5946 -0.4873
33884SOL     OW 8509   4.580   5.464  11.891 -0.0711 -0.7319 -0.3581
33884SOL    HW1 8510   4.647   5.426  11.834 -0.7656 -1.4517 -0.7028
33884SOL    HW2 8511   4.621   5.467  11.977 -0.4605 -3.7096  0.0506
33885SOL     OW 8512  11.375   8.793   8.237  0.7005 -0.2002 -0.5294
33885SOL    HW1 8513  11.368   8.877   8.283  0.8176  0.4193 -1.6049
33885SOL    HW2 8514  11.429   8.739   8.295  0.3612  0.3550  0.3305
33886SOL     OW 8515   7.841   2.550  10.541  0.1284  0.2662 -0.2705
33886SOL    HW1 8516   7.812   2.460  10.555  1.2329 -0.1556 -0.6092
33886SOL    HW2 8517   7.828   2.566  10.447  1.2447 -0.0402 -0.4936
33887SOL     OW 8518   0.764   2.551   3.606 -0.2060  0.6292  0.1690
33887SOL    HW1 8519   0.858   2.545   3.592 -0.5094  0.2754 -2.2640
33887SOL    HW2 8520   0.750   2.638   3.641  0.9757  0.9730 -0.1625
33888SOL     OW 8521  10.294   4.479   9.019 -0.1844  0.0795 -0.0214
33888SOL    HW1 8522  10.327   4.414   9.081 -0.0922  0.6540  0.5458
33888SOL    HW2 8523  10.291   4.560   9.069 -2.4370  0.0805 -0.0356
33889SOL     OW 8524   4.006   6.450   2.407 -0.2451  0.5677 -0.2211
33889SOL    HW1 8525   4.019   6.545   2.402 -0.1441  0.5201 -0.9939
33889SOL    HW2 8526   4.092   6.415   2.434  0.3635  0.5274 -2.0845
33890SOL     OW 8527   8.218   8.192  10.948  0.4167 -0.1230 -0.3420
33890SOL    HW1 8528   8.172   8.142  11.016  1.3702 -0.8074 -0.1818
33890SOL    HW2 8529   8.302   8.215  10.988  1.6600 -1.8612 -1.7621
33891SOL     OW 8530   9.583   8.893   3.897 -0.1585 -0.3108  0.2862
33891SOL    HW1 8531   9.621   8.973   3.860 -2.0630  0.6039  0.1750
33891SOL    HW2 8532   9.618   8.889   3.986  1.2935 -0.3308 -0.2450
33892SOL     OW 8533   1.326   6.226   9.506  0.3729  0.4992  0.1456
33892SOL    HW1 8534   1.415   6.246   9.535  0.9784 -1.6783  0.0084
33892SOL    HW2 8535   1.270   6.248   9.581  1.1761  0.7027  0.6945
33893SOL     OW 8536  10.581   2.359   9.133 -0.0210 -0.1254 -0.2421
33893SOL    HW1 8537  10.570   2.340   9.226  1.1406 -1.1380 -0.2770
33893SOL    HW2 8538  10.492   2.373   9.100 -0.5384 -0.8378  0.8017
33894SOL     OW 8539   9.843   1.729   7.089  0.8383 -0.8397  0.0897
33894SOL    HW1 8540   9.937   1.715   7.076  0.6604 -2.8490  0.6383
33894SOL    HW2 8541   9.812   1.762   7.005  1.9754 -0.4928 -0.2115
33895SOL     OW 8542  11.932   5.673   2.966 -0.3570  0.5773 -0.2172
33895SOL    HW1 8543  12.009   5.725   2.990  0.8809 -0.5116 -1.6245
33895SOL    HW2 8544  11.927   5.606   3.034 -0.1931  0.7797 -0.0019
33896SOL     OW 8545   1.375   4.847   3.948  0.5190 -0.1747 -0.4248
33896SOL    HW1 8546   1.392   4.828   4.040 -2.3994 -0.4433  0.1541
33896SOL    HW2 8547   1.459   4.834   3.905  1.4563 -2.3843  1.8336
33897SOL     OW 8548   7.352  10.935   6.352 -0.8413 -0.0403  0.0053
33897SOL    HW1 8549   7.423  10.895   6.303 -0.1547 -0.6046  1.4136
33897SOL    HW2 8550   7.384  11.022   6.375 -1.6828  0.7415 -1.6313
33898SOL     OW 8551   3.162  11.535   8.549 -0.1404 -0.3488  0.1560
33898SOL    HW1 8552   3.104  11.505   8.620 -0.2233  2.1547  1.2700
33898SOL    HW2 8553   3.250  11.523   8.584 -0.0991 -1.1027 -0.2007
33899SOL     OW 8554   8.580   8.454   7.645  0.1103  0.2562  0.5522
33899SOL    HW1 8555   8.623   8.526   7.599  0.7480 -0.7032 -0.4174
33899SOL    HW2 8556   8.614   8.375   7.603 -2.1966 -0.5723  0.0715
33900SOL     OW 8557   1.729   9.676  11.705 -0.0364 -0.2228 -0.6017
33900SOL    HW1 8558   1.740   9.632  11.620 -2.3295 -0.7267 -0.7080
33900SOL    HW2 8559   1.641   9.713  11.701  1.0103  2.6771  0.3051
33901SOL     OW 8560   1.669   0.687   2.776 -0.0808 -0.5432 -0.1343
33901SOL    HW1 8561   1.689   0.614   2.718  0.8400 -0.5001  0.1111
33901SOL    HW2 8562   1.687   0.654   2.864 -0.5519 -0.3140  0.0499
33902SOL     OW 8563   1.913   3.149   0.947  0.4594 -0.3275  0.0944
33902SOL    HW1 8564   1.926   3.222   0.887 -0.6985 -0.4742 -0.3681
33902SOL    HW2 8565   1.836   3.173   0.999 -0.3220 -1.4480 -0.4839
33903SOL     OW 8566   9.682   6.210   6.380 -0.5331  0.0638 -0.1366
33903SOL    HW1 8567   9.705   6.295   6.343  0.2712  0.4332  1.1646
33903SOL    HW2 8568   9.613   6.177   6.322 -0.9436  1.6430 -0.6031
33904SOL     OW 8569  12.040   8.946   7.876 -0.4071 -0.3261  0.4024
33904SOL    HW1 8570  11.988   8.870   7.904 -0.7483 -0.7099 -1.1631
33904SOL    HW2 8571  11.994   9.021   7.912 -1.5693 -0.7182 -0.2145
33905SOL     OW 8572   5.477   9.978   2.382 -0.4628 -0.1228  0.2812
33905SOL    HW1 8573   5.419  10.050   2.359  0.4718  0.5942  0.0843
33905SOL    HW2 8574   5.565  10.016   2.375  0.0819 -1.4458 -0.4492
33906SOL     OW 8575   7.735   2.201  10.265 -0.0691  0.3297  0.0771
33906SOL    HW1 8576   7.759   2.231  10.177 -2.0299  0.9557 -0.2857
33906SOL    HW2 8577   7.743   2.106  10.260 -0.4987  0.3328 -0.8969
33907SOL     OW 8578  10.056   1.462  10.104  0.2568 -0.1424  0.2040
33907SOL    HW1 8579   9.988   1.469  10.037 -1.8162  3.6336  2.3996
33907SOL    HW2 8580  10.045   1.374  10.140 -2.4263 -0.2430 -0.6252
33908SOL     OW 8581   0.567   1.214   7.332 -0.6710 -0.0878 -0.2205
33908SOL    HW1 8582   0.473   1.225   7.343 -0.9801 -1.3143 -1.4177
33908SOL    HW2 8583   0.605   1.258   7.408 -2.2151  0.0974  0.4839
33909SOL     OW 8584   4.023   8.171   8.965 -0.1100  0.5181  0.1886
33909SOL    HW1 8585   4.066   8.088   8.945 -0.0104  0.4747  0.5717
33909SOL    HW2 8586   4.062   8.199   9.048  0.9727  1.7083 -0.6763
33910SOL     OW 8587  11.448   3.031  12.179  0.2911  0.1932 -0.4061
33910SOL    HW1 8588  11.368   2.990  12.147  1.1092 -1.5561 -0.3150
33910SOL    HW2 8589  11.429   3.051  12.271 -0.6718  1.5529 -0.8699
33911SOL     OW 8590   2.249   3.022   9.033  0.0665 -0.1906 -0.2371
33911SOL    HW1 8591   2.247   3.116   9.051  1.6856 -0.0364 -0.6702
33911SOL    HW2 8592   2.208   2.982   9.109 -0.7521  0.8663 -0.0937
33912SOL     OW 8593  10.851   3.671   1.463  0.0977  0.1029  0.4058
33912SOL    HW1 8594  10.827   3.662   1.371 -0.2581 -0.0656  0.5130
33912SOL    HW2 8595  10.782   3.726   1.501  0.5265  0.6123  0.4605
33913SOL     OW 8596   9.417   2.257   1.468  0.4454 -0.0250 -0.3736
33913SOL    HW1 8597   9.376   2.278   1.384  0.8020  0.1802 -0.4994
33913SOL    HW2 8598   9.388   2.168   1.487  0.1654  0.0185 -0.5968
33914SOL     OW 8599   6.590   5.461  11.309 -0.3440  0.2217 -0.2621
33914SOL    HW1 8600   6.631   5.503  11.385 -0.6216 -0.9880  0.5892
33914SOL    HW2 8601   6.655   5.470  11.239  0.1418  0.8947  0.2589
33915SOL     OW 8602   5.595   0.822   7.299  0.4977 -0.2688 -0.4355
33915SOL    HW1 8603   5.535   0.791   7.367  0.9746  0.6857  0.4492
33915SOL    HW2 8604   5.564   0.780   7.219 -1.6312  0.5559 -0.0949
33916SOL     OW 8605   1.018   7.407   5.404 -0.5660 -0.2855  0.3223
33916SOL    HW1 8606   1.056   7.349   5.471  2.1442 -0.4675 -1.2174
33916SOL    HW2 8607   0.957   7.463   5.452  0.2277 -1.3279  2.6849
33917SOL     OW 8608  10.374   5.190   4.896 -0.3461  0.3254 -0.2959
33917SOL    HW1 8609  10.379   5.249   4.971 -1.0016  1.1462 -0.8752
33917SOL    HW2 8610  10.395   5.246   4.821  0.5550 -0.5425 -0.7010
33918SOL     OW 8611   2.931  10.947   1.412 -0.1385 -0.4447 -0.3302
33918SOL    HW1 8612   2.837  10.932   1.409 -0.0198 -1.5090  0.6729
33918SOL    HW2 8613   2.942  11.037   1.379 -1.4164 -0.5634 -1.1422
33919SOL     OW 8614  11.267   9.275   9.762 -0.1245  0.2991 -0.3120
33919SOL    HW1 8615  11.185   9.230   9.780  0.2241  0.2960  1.5005
33919SOL    HW2 8616  11.302   9.232   9.684 -0.9545 -0.9194 -0.0358
33920SOL     OW 8617  10.995  11.687   0.421 -0.2393  0.4315 -0.2449
33920SOL    HW1 8618  10.921  11.626   0.428  1.3698 -1.8047 -1.4807
33920SOL    HW2 8619  11.019  11.706   0.512 -1.9834  0.8081  0.1650
33921SOL     OW 8620   3.708  11.381   5.425  0.1162 -0.1885 -0.0942
33921SOL    HW1 8621   3.760  11.387   5.345  1.4253  1.2149  0.7919
33921SOL    HW2 8622   3.705  11.471   5.457  0.3974 -0.8445  1.9002
33922SOL     OW 8623  10.361   3.383  12.403  0.1121 -0.3492  0.0366
33922SOL    HW1 8624  10.424   3.359  12.335 -0.9806 -0.5128 -0.9533
33922SOL    HW2 8625  10.406   3.365  12.485  1.8549  0.8417 -0.6037
33923SOL     OW 8626   6.281   0.038   4.829 -0.1308 -0.8802  0.3121
33923SOL    HW1 8627   6.311   0.022   4.919 -2.5114  0.8543  1.5286
33923SOL    HW2 8628   6.333   0.113   4.800  0.4887 -1.3035  0.3193
33924SOL     OW 8629   6.733   2.481   6.508 -0.3506 -0.7066  0.2358
33924SOL    HW1 8630   6.727   2.435   6.593  0.4920 -1.6980 -0.2172
33924SOL    HW2 8631   6.775   2.418   6.450 -1.0027 -0.0724 -0.9640
33925SOL     OW 8632   8.816   4.972  10.097  0.2956  0.3345  0.2557
33925SOL    HW1 8633   8.728   4.960  10.061  0.6598 -0.5463 -0.3733
33925SOL    HW2 8634   8.803   4.976  10.192 -0.4154  0.0969  0.1748
33926SOL     OW 8635   5.799   1.429   1.996 -0.2521 -0.2943  0.1602
33926SOL    HW1 8636   5.826   1.347   2.038  0.6027  0.7809  1.8047
33926SOL    HW2 8637   5.760   1.401   1.913  3.1399 -2.1647 -0.9894
33927SOL     OW 8638   4.705   4.290   9.576 -0.4698 -0.0817  0.3754
33927SOL    HW1 8639   4.741   4.318   9.492 -0.1323 -0.4954  0.3801
33927SOL    HW2 8640   4.781   4.263   9.627 -0.4210  2.1294  1.5878
33928SOL     OW 8641  10.523   6.391  10.334  0.2685 -0.9801  0.1701
33928SOL    HW1 8642  10.591   6.325  10.350  1.5621 -0.1330 -1.4829
33928SOL    HW2 8643  10.489   6.369  10.247  0.2108  0.0858 -0.0903
33929SOL     OW 8644   1.438   5.832   5.554  0.0988 -0.0636 -0.2595
33929SOL    HW1 8645   1.521   5.877   5.536 -0.1298  1.3441  1.8116
33929SOL    HW2 8646   1.400   5.880   5.628 -1.8824 -1.5685 -0.2015
33930SOL     OW 8647   7.383   3.355   7.323  0.1138 -0.0117 -0.0828
33930SOL    HW1 8648   7.468   3.379   7.360  0.8172 -1.9177 -0.3599
33930SOL    HW2 8649   7.397   3.357   7.229 -0.3950  0.5088 -0.1462
33931SOL     OW 8650  11.888   9.950   0.212  0.1703  0.2291  0.1587
33931SOL    HW1 8651  11.803   9.987   0.234  0.1876  1.1991 -1.2546
33931SOL    HW2 8652  11.947   9.981   0.281 -0.5041 -0.0902  0.9020
33932SOL     OW 8653  11.894   1.074  11.163 -0.2216 -0.7808 -0.0524
33932SOL    HW1 8654  11.841   1.030  11.230 -0.0064 -1.3011 -0.2199
33932SOL    HW2 8655  11.972   1.019  11.154 -0.0746 -0.5100 -0.4607
33933SOL     OW 8656  11.517   0.785  12.316  0.0098  0.3757 -0.7224
33933SOL    HW1 8657  11.483   0.794  12.405 -1.0152 -0.2935 -1.0259
33933SOL    HW2 8658  11.581   0.855  12.307  0.3171  0.2784  0.6282
33934SOL     OW 8659   9.983   3.682   4.440  0.3167 -0.1594  0.4703
33934SOL    HW1 8660   9.941   3.596   4.451  1.2317 -0.8317 -1.0232
33934SOL    HW2 8661   9.999   3.712   4.530 -2.7736 -0.1029  1.1126
33935SOL     OW 8662   2.842   2.859   3.939  0.4345  0.3985  0.0297
33935SOL    HW1 8663   2.795   2.833   4.018  1.2938 -1.1019  0.0842
33935SOL    HW2 8664   2.879   2.945   3.959 -0.0811  0.4186  0.9226
33936SOL     OW 8665   4.999   9.248  11.377  0.0942 -0.6581  0.7555
33936SOL    HW1 8666   5.080   9.290  11.349 -1.3265  1.0911 -1.0925
33936SOL    HW2 8667   5.027   9.171  11.426  2.8395  0.1812  0.6547
33937SOL     OW 8668   1.693   0.034   6.165  0.3714  0.3645 -0.7345
33937SOL    HW1 8669   1.672  -0.037   6.226  2.5087 -0.1554 -0.5437
33937SOL    HW2 8670   1.764   0.082   6.207 -0.7696  2.4528 -1.0316
33938SOL     OW 8671   7.890   3.463   9.570  0.6001 -0.1531 -0.1954
33938SOL    HW1 8672   7.898   3.528   9.640  0.4764 -0.1280 -0.2041
33938SOL    HW2 8673   7.813   3.411   9.594  1.6150 -1.3305  0.6577
33939SOL     OW 8674   1.580   6.140   8.004  0.6160  0.5558 -0.4971
33939SOL    HW1 8675   1.535   6.087   8.070 -0.4256  1.1228 -0.7299
33939SOL    HW2 8676   1.673   6.131   8.025  0.3723 -0.2918  0.2663
33940SOL     OW 8677   8.115   2.391   3.173  0.3330 -0.2415  0.0853
33940SOL    HW1 8678   8.020   2.378   3.177 -0.1335  2.3601 -0.7645
33940SOL    HW2 8679   8.145   2.374   3.262 -0.7062 -2.2196  0.1193
33941SOL     OW 8680   2.770  10.269   1.446 -0.2464  0.4459 -0.4148
33941SOL    HW1 8681   2.810  10.184   1.425  2.7406  1.3120  1.1938
33941SOL    HW2 8682   2.792  10.325   1.372 -0.5852  0.3192 -0.6147
33942SOL     OW 8683  11.269  12.548  12.159  0.6640  0.1577 -0.5595
33942SOL    HW1 8684  11.275  12.462  12.119  0.2903  0.4224 -1.1981
33942SOL    HW2 8685  11.359  12.574  12.176  0.7479 -1.0460  1.1659
33943SOL     OW 8686   9.582   0.816   0.740  0.6062  0.4584 -0.0200
33943SOL    HW1 8687   9.592   0.910   0.726  2.0205  0.4182  0.5243
33943SOL    HW2 8688   9.652   0.777   0.688  0.7230 -0.2137  0.6219
33944SOL     OW 8689   5.859   7.654   9.105 -0.1161 -0.1213  0.3570
33944SOL    HW1 8690   5.789   7.708   9.067  0.3536 -0.3393 -0.8544
33944SOL    HW2 8691   5.904   7.713   9.165 -0.3332  0.5030 -0.0743
33945SOL     OW 8692   0.785   0.027   2.101 -0.0873 -0.3141 -0.2683
33945SOL    HW1 8693   0.736  -0.051   2.075 -0.7197  0.1129 -0.3928
33945SOL    HW2 8694   0.731   0.067   2.169  1.3565 -1.2137  1.4680
33946SOL     OW 8695   8.694   7.739   8.990 -0.1135 -0.0409  0.3458
33946SOL    HW1 8696   8.635   7.812   8.972  0.2615  0.0218 -0.6913
33946SOL    HW2 8697   8.670   7.672   8.926  0.0559 -0.5364  0.7913
33947SOL     OW 8698   4.205   4.723   0.145  0.2279  0.0101 -0.3068
33947SOL    HW1 8699   4.279   4.709   0.086  3.1812 -0.2178  3.0859
33947SOL    HW2 8700   4.195   4.640   0.191 -2.1402  0.0926 -0.5834
33948SOL     OW 8701   6.432   4.270   3.366 -0.0208  0.5106 -0.2287
33948SOL    HW1 8702   6.426   4.182   3.329  1.0073  0.5164 -0.4420
33948SOL    HW2 8703   6.461   4.256   3.456  0.5267  0.6483 -0.3826
33949SOL     OW 8704   9.451   4.065   6.585 -0.0831  0.2546 -0.3568
33949SOL    HW1 8705   9.391   4.118   6.637  0.6223  0.2132  0.5173
33949SOL    HW2 8706   9.457   4.111   6.501 -1.2411  0.3179 -0.4170
33950SOL     OW 8707  10.471   1.355   3.878  0.5622 -0.0390  0.3770
33950SOL    HW1 8708  10.390   1.307   3.866  0.2379  0.6216 -0.1659
33950SOL    HW2 8709  10.445   1.447   3.875  1.3549  0.1824 -0.0089
33951SOL     OW 8710  10.789   8.912  11.738 -0.5147  0.1775  0.2118
33951SOL    HW1 8711  10.837   8.829  11.738 -0.7101  0.0430 -1.1185
33951SOL    HW2 8712  10.744   8.914  11.653 -0.9787  1.3821  0.4634
33952SOL     OW 8713   5.077   3.692   9.371  0.1426  0.0737  0.2371
33952SOL    HW1 8714   5.005   3.723   9.316  0.9686  1.3445 -0.1536
33952SOL    HW2 8715   5.033   3.642   9.440 -1.0050 -0.4715 -0.8314
33953SOL     OW 8716   4.143  11.240   0.004 -0.7876 -0.7975 -0.1838
33953SOL    HW1 8717   4.119  11.166  -0.052  0.7357 -3.0320  1.8951
33953SOL    HW2 8718   4.208  11.288  -0.048 -1.3205 -1.2726 -1.3347
33954SOL     OW 8719   1.965   8.539   7.320  0.2139  0.3664  0.3391
33954SOL    HW1 8720   1.896   8.546   7.386 -0.9006 -2.4509 -0.3623
33954SOL    HW2 8721   2.045   8.521   7.370 -0.4952 -1.0850  1.0184
33955SOL     OW 8722   3.701   0.779   6.420 -0.0990  0.1625 -0.0297
33955SOL    HW1 8723   3.633   0.840   6.449  0.4671  0.8723 -0.1521
33955SOL    HW2 8724   3.766   0.780   6.490 -0.0629 -0.2687 -0.0551
33956SOL     OW 8725   8.581   5.948   4.922  0.0481 -0.0732 -0.6483
33956SOL    HW1 8726   8.643   5.942   4.849  0.3133  0.8003 -0.4986
33956SOL    HW2 8727   8.500   5.981   4.882 -0.3540 -1.2560 -0.8516
33957SOL     OW 8728   6.256   5.055   3.451 -0.0982 -0.0829  0.6088
33957SOL    HW1 8729   6.247   4.964   3.423 -0.5940  0.0517  0.3036
33957SOL    HW2 8730   6.229   5.055   3.543  1.4181 -0.5079  1.0759
33958SOL     OW 8731   4.008   1.795   1.920 -0.5065 -0.1288 -0.0981
33958SOL    HW1 8732   4.090   1.840   1.899 -2.3760  2.5729 -2.3595
33958SOL    HW2 8733   4.005   1.721   1.860  0.5710 -0.6582  0.4874
33959SOL     OW 8734   5.402  11.579   0.271 -0.1548 -0.6521 -0.0883
33959SOL    HW1 8735   5.396  11.602   0.179 -1.1122 -0.0629  0.1103
33959SOL    HW2 8736   5.387  11.484   0.274  1.7906 -1.0298 -0.7086
33960SOL     OW 8737  10.123  10.874   4.379  0.0829 -0.1891 -0.1376
33960SOL    HW1 8738  10.176  10.950   4.403 -0.2923 -0.2933  1.0570
33960SOL    HW2 8739  10.187  10.802   4.372  0.1642 -0.2314  0.9092
33961SOL     OW 8740   4.425   7.476  12.010 -0.1107  0.0649 -0.4776
33961SOL    HW1 8741   4.480   7.473  12.088  0.1283  2.6932 -0.4650
33961SOL    HW2 8742   4.486   7.488  11.938 -0.5198  0.8589 -0.7023
33962SOL     OW 8743   6.774   8.776   6.518 -1.1067  0.3397 -0.4184
33962SOL    HW1 8744   6.804   8.855   6.563 -3.0630  0.6307  0.4846
33962SOL    HW2 8745   6.743   8.807   6.434  1.2287 -0.0077 -1.4974
33963SOL     OW 8746   3.435   5.331  11.929 -0.2673 -0.0960  0.1712
33963SOL    HW1 8747   3.424   5.302  12.020  2.2743  0.3064  0.6899
33963SOL    HW2 8748   3.516   5.290  11.901 -1.1013 -0.3395 -2.0299
33964SOL     OW 8749   1.989   2.210  10.797  0.4160  0.1700  0.5720
33964SOL    HW1 8750   1.998   2.259  10.879  2.2670 -0.1528  0.6031
33964SOL    HW2 8751   1.896   2.189  10.792 -0.0744  1.8972  1.5870
33965SOL     OW 8752  10.047   6.708   1.274 -0.3494 -1.1547 -0.0322
33965SOL    HW1 8753  10.030   6.689   1.182 -2.0830 -0.9375  0.1953
33965SOL    HW2 8754   9.968   6.678   1.320 -0.5950  0.9405  1.0680
33966SOL     OW 8755   5.071   9.604  10.208  0.4797 -0.3796 -0.0598
33966SOL    HW1 8756   5.163   9.624  10.221  0.6609 -0.3522 -1.2487
33966SOL    HW2 8757   5.030   9.688  10.188  0.2294 -0.4190  0.2737
33967SOL     OW 8758   0.615   7.462   1.056  0.2006 -0.4231  0.3205
33967SOL    HW1 8759   0.544   7.494   1.000  0.4294 -0.7211 -0.1449
33967SOL    HW2 8760   0.598   7.368   1.063  1.8023 -0.9362 -1.6700
33968SOL     OW 8761   3.295   4.018   5.800 -0.5510 -0.2756 -0.2929
33968SOL    HW1 8762   3.387   4.009   5.774  0.2209  0.5071  1.9073
33968SOL    HW2 8763   3.276   4.111   5.787 -1.8028 -0.8100 -2.8548
33969SOL     OW 8764  10.177   1.476  11.825  0.5169  0.3229  0.0041
33969SOL    HW1 8765  10.200   1.462  11.733  2.9211  0.6140  0.4916
33969SOL    HW2 8766  10.173   1.388  11.862  0.8421  0.2495 -0.1246
33970SOL     OW 8767   4.700   3.142   7.678 -0.1942  0.2616 -0.3405
33970SOL    HW1 8768   4.617   3.158   7.722  0.3713  0.0456  0.8768
33970SOL    HW2 8769   4.684   3.161   7.586 -1.8920 -0.8683 -0.3220
33971SOL     OW 8770   5.014   8.380   7.695  0.9768  0.2261 -0.4334
33971SOL    HW1 8771   4.975   8.350   7.613 -1.4144  1.2165  0.2629
33971SOL    HW2 8772   5.025   8.475   7.683  0.7932  0.3477  0.3111
33972SOL     OW 8773   0.557   8.325   4.184 -0.1119  0.1785 -0.5872
33972SOL    HW1 8774   0.592   8.341   4.097 -0.1621  1.4285 -0.3969
33972SOL    HW2 8775   0.489   8.391   4.195 -0.5479 -0.3757  0.1617
33973SOL     OW 8776   5.164  12.486   8.683 -0.0791  0.0230  0.3686
33973SOL    HW1 8777   5.215  12.466   8.761 -0.1759 -0.2219  0.3696
33973SOL    HW2 8778   5.230  12.508   8.617 -0.0184  0.8018  0.6738
33974SOL     OW 8779   6.383  12.209  12.398 -0.0770  0.0000 -0.0483
33974SOL    HW1 8780   6.444  12.193  12.471 -1.4534  0.2933  1.2256
33974SOL    HW2 8781   6.349  12.122  12.377 -1.2316  0.1376  1.1171
33975SOL     OW 8782   2.380   4.063  11.067 -0.1664  0.2837 -0.6611
33975SOL    HW1 8783   2.289   4.033  11.073 -0.5606  1.1958 -1.6796
33975SOL    HW2 8784   2.432   3.984  11.072 -0.8763 -0.1210  2.0670
33976SOL     OW 8785   6.398   1.953   0.358  0.1807  0.5365 -0.1967
33976SOL    HW1 8786   6.372   2.002   0.436  0.6837 -0.4125  0.5843
33976SOL    HW2 8787   6.337   1.880   0.353  2.3092 -1.5222  1.4644
33977SOL     OW 8788   8.899  10.230   4.194 -0.3233  0.6932  0.2702
33977SOL    HW1 8789   8.818  10.232   4.244 -0.0550 -1.1872  0.8932
33977SOL    HW2 8790   8.878  10.179   4.116  0.4826 -0.8731  1.0101
33978SOL     OW 8791   1.254   8.794   6.716 -0.1581 -0.2640 -0.2422
33978SOL    HW1 8792   1.165   8.827   6.728 -0.1688 -0.2687 -0.3075
33978SOL    HW2 8793   1.246   8.699   6.723  0.1108 -0.1848  1.5131
33979SOL     OW 8794   6.467   7.589   2.625 -0.2624  0.5066 -0.2734
33979SOL    HW1 8795   6.512   7.596   2.710 -2.5870  1.1211  0.9918
33979SOL    HW2 8796   6.453   7.680   2.599  0.6565  0.3239 -1.4973
33980SOL     OW 8797   1.369   5.517   9.304 -0.7581  0.1638 -0.2882
33980SOL    HW1 8798   1.429   5.442   9.312 -0.7614 -0.0830 -2.1223
33980SOL    HW2 8799   1.332   5.527   9.391  1.0194 -0.4615  0.5992
33981SOL     OW 8800   0.754   0.991   5.491  0.1218 -0.1076 -0.3019
33981SOL    HW1 8801   0.678   0.933   5.482  0.3677 -0.7587  1.4495
33981SOL    HW2 8802   0.830   0.935   5.478  0.3283  0.2261 -0.5463
33982SOL     OW 8803   0.554   5.277   0.353  0.4571  0.6175 -0.2382
33982SOL    HW1 8804   0.512   5.212   0.296  2.3346 -0.1571 -0.8510
33982SOL    HW2 8805   0.618   5.226   0.403  1.9095  1.9417 -0.6509
33983SOL     OW 8806   2.613  11.638   6.543  0.4151 -0.3828 -0.2475
33983SOL    HW1 8807   2.557  11.578   6.593  0.4186 -0.6160 -0.5216
33983SOL    HW2 8808   2.701  11.624   6.578 -0.1394  2.9063  3.1406
33984SOL     OW 8809   7.093  10.176  12.276  0.3251  0.1770  0.4614
33984SOL    HW1 8810   7.174  10.155  12.322  1.1918  0.7026 -0.7520
33984SOL    HW2 8811   7.026  10.122  12.317  1.6371 -1.6116  0.3283
33985SOL     OW 8812   8.105   2.492   5.183  0.4266 -0.3752  1.0082
33985SOL    HW1 8813   8.055   2.545   5.121  1.2065 -0.5086  0.2365
33985SOL    HW2 8814   8.097   2.538   5.267 -0.5758 -0.1414  0.7938
33986SOL     OW 8815   8.906   1.105  12.137 -0.2508 -0.0699 -0.3655
33986SOL    HW1 8816   8.978   1.102  12.200  0.1493 -0.0655 -0.8196
33986SOL    HW2 8817   8.934   1.168  12.071 -1.1869  0.8393  0.0616
33987SOL     OW 8818  11.356   2.602   5.922  0.7221 -0.0267 -0.0094
33987SOL    HW1 8819  11.360   2.580   5.829  1.7358  2.6939 -0.6904
33987SOL    HW2 8820  11.266   2.630   5.937  0.2692 -1.4803  0.1330
33988SOL     OW 8821   4.313   1.489  10.233 -0.2918 -0.1503 -0.2864
33988SOL    HW1 8822   4.231   1.508  10.280  0.1452  0.9323  0.0666
33988SOL    HW2 8823   4.287   1.477  10.142 -0.8351  0.2709 -0.1884
33989SOL     OW 8824   7.225   9.271   8.801  0.2129 -0.1079  0.1098
33989SOL    HW1 8825   7.141   9.228   8.814  1.2818 -2.0630  0.9278
33989SOL    HW2 8826   7.202   9.359   8.770 -2.0755 -1.4726 -2.5993
33990SOL     OW 8827   5.330   9.345   7.345  0.4644 -0.0958  0.0294
33990SOL    HW1 8828   5.362   9.260   7.315  0.1813 -1.1249  2.4730
33990SOL    HW2 8829   5.236   9.334   7.354  0.5878 -0.0133  1.7185
33991SOL     OW 8830   5.010   3.305   9.203 -0.2181 -0.9479  0.8796
33991SOL    HW1 8831   5.047   3.376   9.151  1.4964 -1.9290  0.6783
33991SOL    HW2 8832   4.940   3.346   9.253 -0.0370  0.6260 -0.0794
33992SOL     OW 8833   9.100   5.057   5.820 -0.1049  0.1130  0.0345
33992SOL    HW1 8834   9.146   5.080   5.740 -1.0124 -0.7633 -0.7716
33992SOL    HW2 8835   9.047   4.980   5.796 -0.8892  0.2288  1.2888
33993SOL     OW 8836   3.963   5.866  10.209 -0.0689  0.5419  0.3026
33993SOL    HW1 8837   4.041   5.840  10.159 -0.5128  2.9146 -1.8628
33993SOL    HW2 8838   3.988   5.950  10.249 -1.8138  2.0470 -1.5461
33994SOL     OW 8839   6.249   5.908   8.122  0.0818  0.3784 -0.5971
33994SOL    HW1 8840   6.177   5.955   8.081 -0.3867  0.8833  0.7529
33994SOL    HW2 8841   6.239   5.926   8.215  0.4043 -1.6929 -0.1209
33995SOL     OW 8842   4.649   4.297   3.865  0.2862 -0.8635 -0.1704
33995SOL    HW1 8843   4.712   4.296   3.794  0.9088 -0.4917  0.3685
33995SOL    HW2 8844   4.566   4.322   3.824  0.3959 -1.7231 -0.9412
33996SOL     OW 8845   8.552  12.482   6.470  0.3270  0.3719  0.7905
33996SOL    HW1 8846   8.466  12.520   6.487 -0.4215 -0.6481 -0.5010
33996SOL    HW2 8847   8.588  12.463   6.556 -0.2923  1.7600  1.3760
33997SOL     OW 8848   6.529   4.586   4.087  0.3285  0.4029  0.7488
33997SOL    HW1 8849   6.598   4.552   4.143  0.4791 -3.0544 -1.2305
33997SOL    HW2 8850   6.556   4.676   4.067  2.1278  0.4906  3.1199
33998SOL     OW 8851   7.945   0.193   3.710  0.2464 -0.1964 -0.2492
33998SOL    HW1 8852   7.892   0.272   3.720  1.0289  0.6394 -2.1654
33998SOL    HW2 8853   8.034   0.220   3.728  0.5159 -0.6323 -0.8666
33999SOL     OW 8854   8.182   0.894  12.288 -0.2626  0.0238  0.4537
33999SOL    HW1 8855   8.150   0.968  12.236  0.8661  0.4606  0.3443
33999SOL    HW2 8856   8.151   0.817  12.242  0.8063  0.3970 -0.9794
34000SOL     OW 8857   8.869   2.621   3.678  0.4665  1.1909 -0.1809
34000SOL    HW1 8858   8.882   2.669   3.596  0.4983  3.0874  0.8913
34000SOL    HW2 8859   8.948   2.639   3.729 -0.4915  1.8487  1.1206
34001SOL     OW 8860   2.086  11.653   4.188  0.4417  0.2431  0.1610
34001SOL    HW1 8861   2.055  11.704   4.114  1.0754  1.5200  0.7400
34001SOL    HW2 8862   2.180  11.646   4.175  0.4096 -0.5456  0.2553
34002SOL     OW 8863   3.602   3.388   1.532  0.3389  0.2114 -0.1953
34002SOL    HW1 8864   3.538   3.328   1.494  0.3272  0.0137  0.1308
34002SOL    HW2 8865   3.554   3.471   1.541  0.2116  0.1400 -0.2045
34003SOL     OW 8866   2.983   4.432   5.741  0.5140 -0.4034  0.4976
34003SOL    HW1 8867   2.906   4.430   5.796  0.2518  0.2265  0.1738
34003SOL    HW2 8868   2.949   4.434   5.651  0.8488  1.0009  0.3655
34004SOL     OW 8869   4.062   4.684   9.676  0.0898  0.5151  0.2047
34004SOL    HW1 8870   3.981   4.734   9.662 -0.8362 -0.5831  1.4657
34004SOL    HW2 8871   4.035   4.592   9.668  1.1098  0.1191  1.1791
34005SOL     OW 8872  11.752   7.928  11.213 -0.0848  0.2882  0.0348
34005SOL    HW1 8873  11.736   7.947  11.305 -0.9024 -2.2353  0.4900
34005SOL    HW2 8874  11.843   7.956  11.198  0.3670 -0.0971  1.8388
34006SOL     OW 8875  10.023  11.568  10.959  0.5604  0.1263  0.6448
34006SOL    HW1 8876  10.080  11.601  10.890 -0.1603 -1.2298 -0.6468
34006SOL    HW2 8877  10.066  11.489  10.990 -0.3728 -0.6888 -0.0668
34007SOL     OW 8878   3.679   9.947   2.373 -0.7520 -0.7509  0.3855
34007SOL    HW1 8879   3.662   9.882   2.442  1.7670  0.3955  2.2502
34007SOL    HW2 8880   3.698   9.895   2.295 -1.1321 -2.1659  1.2004
34008SOL     OW 8881   5.527  11.697   3.567 -0.3156 -0.5043  0.0592
34008SOL    HW1 8882   5.620  11.678   3.575  0.4819  3.1694  1.7279
34008SOL    HW2 8883   5.519  11.744   3.484 -0.2169  1.0380  0.8876
34009SOL     OW 8884   2.041  12.487   1.609  0.5405 -0.1958 -0.3069
34009SOL    HW1 8885   1.979  12.428   1.653 -1.0255  2.4240  1.2356
34009SOL    HW2 8886   2.113  12.495   1.671  0.7365 -0.4345 -0.5014
34010SOL     OW 8887   0.059   2.190  12.498  0.8502 -0.2321  0.5110
34010SOL    HW1 8888   0.021   2.224  12.417  1.8021 -0.2331  0.0489
34010SOL    HW2 8889   0.077   2.098  12.479 -0.8370 -0.7994  1.4377
34011SOL     OW 8890   9.671  11.404   0.165 -0.1929  0.4561  0.2179
34011SOL    HW1 8891   9.715  11.486   0.186  1.3725  0.5939 -2.9002
34011SOL    HW2 8892   9.596  11.430   0.112 -0.6936 -0.0547  0.6707
34012SOL     OW 8893   7.880   8.602   4.580 -0.1227 -0.0357  0.0043
34012SOL    HW1 8894   7.803   8.567   4.534 -0.0864  0.7482 -0.6806
34012SOL    HW2 8895   7.954   8.564   4.534 -0.0754  1.2048 -0.9986
34013SOL     OW 8896   0.279   5.130   6.756  0.0422  0.4599 -0.1964
34013SOL    HW1 8897   0.317   5.211   6.790  1.5195  0.3675 -1.4838
34013SOL    HW2 8898   0.355   5.074   6.738 -0.9032 -0.9282 -0.0335
34014SOL     OW 8899   5.841   6.804   1.903  0.2516 -0.4275 -0.1953
34014SOL    HW1 8900   5.893   6.729   1.932  1.1742 -0.5956 -2.1284
34014SOL    HW2 8901   5.871   6.877   1.957  2.5622 -0.5263 -1.2562
34015SOL     OW 8902   7.268   3.849   5.602  0.0753 -0.8225 -1.1445
34015SOL    HW1 8903   7.290   3.939   5.579 -1.8805 -0.0036 -0.0406
34015SOL    HW2 8904   7.255   3.851   5.697  2.7410 -2.9329 -0.5919
34016SOL     OW 8905  10.198  12.460   4.700 -0.4237 -0.1617 -0.2817
34016SOL    HW1 8906  10.212  12.459   4.605  0.7372  1.4725 -0.1654
34016SOL    HW2 8907  10.103  12.455   4.710 -0.8587  2.9640 -1.7061
34017SOL     OW 8908   9.746  12.440  11.984  0.3763  0.1570 -0.0095
34017SOL    HW1 8909   9.754  12.470  12.075 -1.5767  1.8390 -0.3149
34017SOL    HW2 8910   9.695  12.509  11.941  0.0621 -1.2761 -2.0552
34018SOL     OW 8911   6.786  11.454   1.804 -0.0822 -0.0164 -0.6175
34018SOL    HW1 8912   6.833  11.537   1.817 -0.2012 -0.2062  1.1519
34018SOL    HW2 8913   6.854  11.387   1.810 -0.3360 -0.1922  0.3713
34019SOL     OW 8914  10.670  12.008   2.089  0.3632  0.1384  0.3142
34019SOL    HW1 8915  10.760  12.011   2.122  0.7141  0.0535 -0.6221
34019SOL    HW2 8916  10.654  12.097   2.058 -0.5506  0.6756  2.1883
34020SOL     OW 8917  11.708  11.040   3.555 -0.0362  0.3674  0.1263
34020SOL    HW1 8918  11.775  10.974   3.574 -0.4823  0.1248  0.8810
34020SOL    HW2 8919  11.725  11.110   3.619  2.4277  2.5152 -2.5920
34021SOL     OW 8920   4.268   2.582   9.084 -0.2606  0.9257 -0.3782
34021SOL    HW1 8921   4.176   2.607   9.087 -1.3810 -2.2837 -2.6597
34021SOL    HW2 8922   4.302   2.624   9.005  0.0055  1.2226 -0.1170
34022SOL     OW 8923   4.036   9.540   7.020  0.0397 -0.1888 -0.2962
34022SOL    HW1 8924   4.081   9.624   7.030  0.3296 -0.1872 -1.4655
34022SOL    HW2 8925   3.961   9.545   7.078 -0.6394  1.3737 -1.2483
34023SOL     OW 8926   3.227   9.035   3.938  0.0692  0.3068 -1.1054
34023SOL    HW1 8927   3.135   9.035   3.967 -0.0752  1.7722 -1.4943
34023SOL    HW2 8928   3.277   9.020   4.019 -0.4869  0.1936 -0.7769
34024SOL     OW 8929   3.159   8.887   5.044 -0.1247  0.1810 -0.3440
34024SOL    HW1 8930   3.096   8.830   5.001 -0.3571  1.1422 -1.3305
34024SOL    HW2 8931   3.137   8.975   5.013 -0.2463  0.9329  1.7023
34025SOL     OW 8932   9.961   2.494   6.067 -0.3697 -0.1401 -0.1075
34025SOL    HW1 8933   9.922   2.417   6.026  2.2727 -2.0364  0.6537
34025SOL    HW2 8934  10.036   2.516   6.011 -0.9492  1.8121 -0.2012
34026SOL     OW 8935  12.296   0.191   1.385  0.0183 -0.0948 -0.6150
34026SOL    HW1 8936  12.239   0.252   1.432  0.7913  0.3955 -0.2881
34026SOL    HW2 8937  12.346   0.147   1.453 -0.6125 -1.2022 -0.8437
34027SOL     OW 8938   0.865   5.469   0.346 -0.2857  0.1611  0.1618
34027SOL    HW1 8939   0.802   5.503   0.283  0.6051  0.8371 -0.4009
34027SOL    HW2 8940   0.814   5.412   0.403 -1.3102  0.3422 -0.5408
34028SOL     OW 8941  11.002   2.879   3.071  0.2913 -0.0351 -0.8415
34028SOL    HW1 8942  11.028   2.790   3.046 -0.6092 -0.1483 -1.4248
34028SOL    HW2 8943  10.907   2.880   3.060  0.2149  0.8033 -0.1831
34029SOL     OW 8944   2.133   4.326   6.406  0.1449 -0.2218 -0.3471
34029SOL    HW1 8945   2.169   4.244   6.373 -2.7577 -1.8449  0.2161
34029SOL    HW2 8946   2.104   4.373   6.327  0.9180 -0.1633 -0.6042
34030SOL     OW 8947   5.451   5.326   4.841 -0.1060  0.0000  0.3798
34030SOL    HW1 8948   5.394   5.307   4.915  0.2077  0.8873  0.8707
34030SOL    HW2 8949   5.519   5.259   4.844 -0.5637 -0.4650  0.3902
34031SOL     OW 8950   8.082   7.069   7.583  0.1653 -0.4311  0.2085
34031SOL    HW1 8951   8.035   6.990   7.609  1.5569 -0.2649  3.8717
34031SOL    HW2 8952   8.162   7.037   7.543  0.9848 -1.0094  2.1796
34032SOL     OW 8953   3.047   3.484   1.052  0.0354 -0.5912  0.0653
34032SOL    HW1 8954   3.011   3.572   1.048 -1.3255 -1.1839 -2.9556
34032SOL    HW2 8955   3.132   3.495   1.096 -0.1780  2.1452 -0.0424
34033SOL     OW 8956  10.015   5.681   1.223  0.4588 -0.6360  0.4708
34033SOL    HW1 8957   9.924   5.652   1.230 -0.2125  1.5052  1.6848
34033SOL    HW2 8958  10.051   5.667   1.310  1.2727 -1.3260  0.0342
34034SOL     OW 8959  10.215   5.971   0.212 -0.1415 -0.3782  0.3168
34034SOL    HW1 8960  10.239   6.039   0.149  0.2708 -0.4705  0.3706
34034SOL    HW2 8961  10.285   5.906   0.205  1.2582  0.7709  2.6033
34035SOL     OW 8962   1.335   0.395   5.697 -0.4213  0.0223 -0.0810
34035SOL    HW1 8963   1.313   0.445   5.618 -1.4303 -1.1239 -0.5638
34035SOL    HW2 8964   1.254   0.348   5.718  0.4289 -1.2271  0.4796
34036SOL     OW 8965   9.734  10.443   1.629  0.2804  0.0293 -0.3596
34036SOL    HW1 8966   9.759  10.365   1.580 -0.6906 -0.4328 -0.1366
34036SOL    HW2 8967   9.672  10.412   1.695  0.1022  0.9392 -0.0804
34037SOL     OW 8968  10.259   5.846  10.444 -0.6062 -0.2188  0.1919
34037SOL    HW1 8969  10.309   5.903  10.385  0.7565 -0.4357  1.0929
34037SOL    HW2 8970  10.253   5.896  10.525  0.1414 -1.1303  0.8237
34038SOL     OW 8971   3.664   7.166   0.665  0.2314 -0.1346 -0.3551
34038SOL    HW1 8972   3.708   7.131   0.742  0.5494 -1.6398 -1.1784
34038SOL    HW2 8973   3.595   7.223   0.700  2.4413  1.9140  0.9992
34039SOL     OW 8974  12.355   2.653  12.469 -0.1776 -0.3812  0.0450
34039SOL    HW1 8975  12.333   2.561  12.483 -2.8499  0.3711  1.4437
34039SOL    HW2 8976  12.378   2.686  12.556 -0.5537  0.5689 -0.2008
34040SOL     OW 8977  12.345   3.283   9.295 -0.1435  0.0685 -0.5249
34040SOL    HW1 8978  12.381   3.341   9.228  1.3588  0.6521  0.7300
34040SOL    HW2 8979  12.369   3.195   9.265  2.0253  0.4107  0.0303
34041SOL     OW 8980  11.063   9.617   7.957  0.6601  0.1267  0.2973
34041SOL    HW1 8981  10.968   9.607   7.965  0.6730 -1.1235 -0.7726
34041SOL    HW2 8982  11.098   9.531   7.979  1.6148  0.7541  1.3221
34042SOL     OW 8983   2.398   8.969   0.446 -0.0165  0.1942  0.0986
34042SOL    HW1 8984   2.313   8.945   0.410 -0.4812  0.2414  1.1033
34042SOL    HW2 8985   2.409   9.061   0.423  1.0887 -0.4979 -2.4759
34043SOL     OW 8986   9.356   9.901  11.984 -0.0579 -0.2609 -0.1202
34043SOL    HW1 8987   9.356   9.886  11.889  0.4458  1.7360 -0.4697
34043SOL    HW2 8988   9.446   9.881  12.011 -0.3378 -1.3627  0.0671
34044SOL     OW 8989   1.942   6.895   3.661 -0.2062 -0.1447 -0.1194
34044SOL    HW1 8990   1.923   6.964   3.597 -0.1872 -0.4773 -0.4889
34044SOL    HW2 8991   1.855   6.859   3.683 -0.2047 -0.0939 -0.0303
34045SOL     OW 8992   2.674   6.370   8.767  0.2677  0.0157  0.2083
34045SOL    HW1 8993   2.634   6.298   8.817 -3.7143  2.9232  1.7921
34045SOL    HW2 8994   2.736   6.410   8.828  4.0168 -2.8873 -1.3254
34046SOL     OW 8995   2.753   5.495   1.479 -0.3995 -0.0284  0.2002
34046SOL    HW1 8996   2.694   5.472   1.407 -2.7691  0.8388  1.7297
34046SOL    HW2 8997   2.752   5.590   1.482 -0.9605 -0.0498  1.7865
34047SOL     OW 8998   9.262   4.354   0.600 -0.0418 -0.6781 -0.0950
34047SOL    HW1 8999   9.214   4.403   0.667  0.3732 -0.5040  0.0783
34047SOL    HW2 9000   9.214   4.272   0.592 -0.1889 -0.6352  0.3087
34048SOL     OW 9001   7.368  11.011   5.032  0.6562  0.1625 -0.5285
34048SOL    HW1 9002   7.329  11.009   4.945 -0.7468  0.1331  0.0817
34048SOL    HW2 9003   7.370  10.919   5.059  1.4533  0.1299 -0.6718
34049SOL     OW 9004   8.280  11.995   6.052 -0.3463  0.1446  0.3078
34049SOL    HW1 9005   8.204  12.053   6.058  1.2342  2.2219  1.8636
34049SOL    HW2 9006   8.244  11.911   6.023 -2.9010  1.5809 -1.0277
34050SOL     OW 9007   5.534   1.275   0.796 -0.1206  0.0340 -0.5613
34050SOL    HW1 9008   5.501   1.222   0.724 -0.2257  0.1451 -0.5957
34050SOL    HW2 9009   5.477   1.352   0.797  0.4783  0.4918 -0.9708
34051SOL     OW 9010   7.162   1.963   9.594 -0.8140 -0.0521  0.0061
34051SOL    HW1 9011   7.208   1.908   9.657 -0.5566  1.4775  1.2092
34051SOL    HW2 9012   7.096   1.906   9.556 -0.0896 -1.3783  0.6668
34052SOL     OW 9013  11.381   8.708   1.496  0.2278 -0.3447 -0.4818
34052SOL    HW1 9014  11.426   8.687   1.578 -0.9316 -0.5350  0.1325
34052SOL    HW2 9015  11.292   8.675   1.509 -0.3043  0.6879 -1.3644
34053SOL     OW 9016   7.893   6.865   9.898 -0.3070  0.4248  0.7090
34053SOL    HW1 9017   7.955   6.815   9.847 -0.7602  3.1348 -2.8812
34053SOL    HW2 9018   7.808   6.824   9.881 -0.0798 -0.7629  2.2423
34054SOL     OW 9019   9.929   8.485   7.047 -0.3521  0.0760  0.0433
34054SOL    HW1 9020  10.003   8.535   7.081 -2.0885  1.8676  1.4333
34054SOL    HW2 9021   9.927   8.504   6.954  0.6781  0.3542  0.0753
34055SOL     OW 9022  11.596   0.959   8.608  0.4824  0.3058 -0.3190
34055SOL    HW1 9023  11.654   1.032   8.586  0.3108  0.6725  0.4311
34055SOL    HW2 9024  11.558   0.983   8.692  1.1372 -1.0854  0.3916
34056SOL     OW 9025   4.153  10.795   7.881  0.0961 -0.1617 -0.1517
34056SOL    HW1 9026   4.130  10.705   7.905  0.6574 -0.9341 -2.3176
34056SOL    HW2 9027   4.248  10.793   7.871  0.1909  0.8584  0.3697
34057SOL     OW 9028   5.510   6.484   8.916 -0.0529  0.1296 -0.1565
34057SOL    HW1 9029   5.416   6.498   8.903 -0.0861 -0.5984 -0.7607
34057SOL    HW2 9030   5.548   6.494   8.829  0.5818  1.4665  0.2507
34058SOL     OW 9031   2.367   2.797   5.450 -0.4390 -0.0515  0.0294
34058SOL    HW1 9032   2.433   2.727   5.452  0.1171  0.4498 -0.3326
34058SOL    HW2 9033   2.316   2.778   5.371 -0.7278 -0.4340  0.3034
34059SOL     OW 9034  11.176   6.658   8.597  0.3850  0.7257  0.4064
34059SOL    HW1 9035  11.142   6.676   8.510  1.2429  1.4908  0.2267
34059SOL    HW2 9036  11.233   6.732   8.618  0.3546  0.4621  1.5334
34060SOL     OW 9037   1.236   8.256   4.300 -0.1670 -0.3440  0.0885
34060SOL    HW1 9038   1.253   8.344   4.265 -0.1404 -0.7976 -1.0755
34060SOL    HW2 9039   1.247   8.198   4.224 -1.5796 -1.2095  0.5301
34061SOL     OW 9040   5.544  10.322   7.842 -0.2556 -0.6243  0.2029
34061SOL    HW1 9041   5.622  10.306   7.894 -0.1290 -0.1116  0.1748
34061SOL    HW2 9042   5.534  10.417   7.841 -1.4683 -0.7089  1.0850
34062SOL     OW 9043  11.767   4.999  10.150 -0.2817 -0.1391  0.3168
34062SOL    HW1 9044  11.691   4.942  10.139 -0.0937 -0.3246 -0.0162
34062SOL    HW2 9045  11.841   4.939  10.158  0.2184  0.0680 -2.2052
34063SOL     OW 9046   9.352   6.244   6.159  0.1133  0.2624 -0.8828
34063SOL    HW1 9047   9.268   6.285   6.138  0.0486  0.6433  0.0811
34063SOL    HW2 9048   9.403   6.313   6.201  0.6266 -0.1811 -0.7673
34064SOL     OW 9049   4.464   5.122   1.629 -0.4314  0.3344 -0.5956
34064SOL    HW1 9050   4.421   5.063   1.691  0.7201 -0.7071 -0.7422
34064SOL    HW2 9051   4.482   5.201   1.680  0.0632 -0.3204  0.2877
34065SOL     OW 9052   0.176   0.659   1.592 -0.3854  0.6543  0.1360
34065SOL    HW1 9053   0.216   0.642   1.677 -0.5003  0.0750  0.0736
34065SOL    HW2 9054   0.124   0.582   1.573 -0.0900  0.6266 -0.6196
34066SOL     OW 9055   7.975   6.441   3.735 -0.1088 -1.2090 -0.3004
34066SOL    HW1 9056   7.940   6.476   3.654 -2.7023 -1.1821  0.7144
34066SOL    HW2 9057   8.000   6.351   3.714  2.1044 -0.3413 -1.7616
34067SOL     OW 9058   5.346   8.983   0.274  0.1442  0.5514 -0.2011
34067SOL    HW1 9059   5.273   8.953   0.220 -0.5392  3.6841 -1.1784
34067SOL    HW2 9060   5.309   8.988   0.362  0.1224 -0.7653 -0.1060
34068SOL     OW 9061   0.047   8.116   1.361  0.2423 -0.1400  0.7406
34068SOL    HW1 9062   0.106   8.190   1.378  0.9754 -0.4197 -0.4910
34068SOL    HW2 9063  -0.002   8.143   1.283  0.2208 -0.7845  0.5319
34069SOL     OW 9064   1.007  11.528   4.723  0.4715 -0.2380 -0.0023
34069SOL    HW1 9065   0.927  11.484   4.753  0.3943  1.0458  1.8762
34069SOL    HW2 9066   1.051  11.554   4.804  2.5844 -0.5072 -1.0098
34070SOL     OW 9067  10.921   4.673   1.394  0.3456  0.2632 -0.8584
34070SOL    HW1 9068  10.912   4.665   1.489  0.7877  0.0843 -0.8299
34070SOL    HW2 9069  10.849   4.730   1.368  0.0466  0.0744 -0.4527
34071SOL     OW 9070   3.292   8.382   6.215  0.4015 -0.1946 -0.2402
34071SOL    HW1 9071   3.312   8.320   6.145  0.4777  0.0685 -0.4489
34071SOL    HW2 9072   3.229   8.442   6.176  0.5428  0.0287 -0.1211
34072SOL     OW 9073   8.543   6.000   8.739  0.2096 -0.5826  0.0635
34072SOL    HW1 9074   8.513   5.911   8.723  0.3778 -0.4673 -0.9671
34072SOL    HW2 9075   8.621   5.990   8.793  0.1417 -1.0472  0.0769
34073SOL     OW 9076  10.885   6.115   3.574  0.6396 -0.7757 -0.0338
34073SOL    HW1 9077  10.879   6.132   3.480 -0.9977 -1.3448 -0.0572
34073SOL    HW2 9078  10.955   6.174   3.604  0.1488  0.5462 -1.3432
34074SOL     OW 9079   3.808   9.344   4.103 -0.5324  0.0393 -0.0878
34074SOL    HW1 9080   3.756   9.400   4.046 -0.0270 -1.0592 -1.7009
34074SOL    HW2 9081   3.867   9.405   4.148 -0.5737  0.9054 -1.1483
34075SOL     OW 9082   4.155   5.318  10.261 -0.0189 -0.3194  0.0763
34075SOL    HW1 9083   4.186   5.402  10.227 -0.0470 -0.7309 -0.9910
34075SOL    HW2 9084   4.171   5.255  10.190  0.2223 -1.2688  0.9458
34076SOL     OW 9085   1.752   7.132   9.597 -0.2727  0.8626  0.1663
34076SOL    HW1 9086   1.736   7.056   9.542  1.4371  1.5277 -1.3767
34076SOL    HW2 9087   1.688   7.125   9.668 -1.9149 -0.5630 -1.3643
34077SOL     OW 9088   5.959   3.077   3.799 -0.7741  0.3945 -0.6433
34077SOL    HW1 9089   5.997   3.146   3.744  1.8328  0.2476  0.7938
34077SOL    HW2 9090   5.959   3.114   3.887 -1.5999 -0.6029 -0.2092
34078SOL     OW 9091   9.201   4.409   4.693  0.0250  0.0251  0.4299
34078SOL    HW1 9092   9.178   4.444   4.778 -0.7671 -0.6145  0.4953
34078SOL    HW2 9093   9.287   4.446   4.673 -0.2025  0.9129  1.0797
34079SOL     OW 9094  11.655   9.889   3.097 -0.2879 -0.4568 -0.2290
34079SOL    HW1 9095  11.688   9.844   3.175  0.5299  0.7923  0.1705
34079SOL    HW2 9096  11.665   9.824   3.027  0.3200 -1.1060  0.4318
34080SOL     OW 9097   0.722   2.233   3.870 -0.3586 -0.5239  0.3810
34080SOL    HW1 9098   0.679   2.222   3.786 -0.4639  0.9156  0.2227
34080SOL    HW2 9099   0.653   2.221   3.935 -0.9975  1.4181  0.1388
34081SOL     OW 9100   9.487   1.852   5.295  0.1215  0.1379  0.2954
34081SOL    HW1 9101   9.534   1.832   5.376  0.4652  0.3180  0.1446
34081SOL    HW2 9102   9.396   1.862   5.322  0.3170  0.7603  0.7559
34082SOL     OW 9103   3.888   5.578   0.462  0.3779  0.0580  0.5087
34082SOL    HW1 9104   3.830   5.586   0.537 -1.9692 -1.5290 -0.9905
34082SOL    HW2 9105   3.874   5.658   0.412 -0.4459 -0.2570  0.2254
34083SOL     OW 9106   4.015   3.520   5.503  0.7690 -0.1833  0.0016
34083SOL    HW1 9107   3.940   3.478   5.461 -1.4362  4.0865 -0.8431
34083SOL    HW2 9108   4.086   3.512   5.439 -0.0444 -1.1393 -0.8063
34084SOL     OW 9109   8.479   6.248   7.787  0.1197  0.3038  0.5606
34084SOL    HW1 9110   8.541   6.320   7.777  1.2645 -0.7646 -0.3212
34084SOL    HW2 9111   8.471   6.210   7.699 -1.5553  0.2070  0.7157
34085SOL     OW 9112   3.463  11.942   9.064 -0.3833  0.1205  0.1522
34085SOL    HW1 9113   3.519  12.017   9.082 -0.9654  1.4189 -2.7887
34085SOL    HW2 9114   3.422  11.922   9.148  0.0169  2.9126  1.1373
34086SOL     OW 9115   8.585   1.355   7.148  0.6157 -0.0481  0.2933
34086SOL    HW1 9116   8.592   1.329   7.056 -0.1563 -1.3422  0.5744
34086SOL    HW2 9117   8.511   1.305   7.182  1.6053 -0.5090  1.9246
34087SOL     OW 9118   7.484   6.922   4.203  0.3220  0.3693  0.5068
34087SOL    HW1 9119   7.559   6.874   4.167  1.4611  0.9795  1.9705
34087SOL    HW2 9120   7.480   6.896   4.295 -0.8322  0.9021  0.6285
34088SOL     OW 9121   2.450   9.180   6.535 -0.5220 -0.1372 -0.3784
34088SOL    HW1 9122   2.357   9.161   6.541 -0.5783  0.4971  1.0566
34088SOL    HW2 9123   2.482   9.173   6.625  0.5050  1.1552 -0.6142
34089SOL     OW 9124   8.601  10.103   2.416 -0.3926 -0.5217  0.2154
34089SOL    HW1 9125   8.596  10.169   2.484 -2.1696 -0.1545 -0.2269
34089SOL    HW2 9126   8.567  10.146   2.337 -0.3426 -1.5631 -0.4049
34090SOL     OW 9127   1.103  11.689   9.960  0.0822 -0.4467 -0.3536
34090SOL    HW1 9128   1.079  11.746  10.033 -0.1401 -1.2106  0.1845
34090SOL    HW2 9129   1.184  11.646   9.989 -1.4191 -2.7868  0.6298
34091SOL     OW 9130   7.466   7.142   8.364  0.2944  0.4020 -0.0225
34091SOL    HW1 9131   7.410   7.190   8.425  0.7127  0.5477  0.2500
34091SOL    HW2 9132   7.534   7.103   8.419  2.3314  2.8108 -0.6264
34092SOL     OW 9133   5.855   9.261   4.409  0.3789  0.2705  0.0997
34092SOL    HW1 9134   5.823   9.217   4.487 -1.2159 -0.1221 -0.7305
34092SOL    HW2 9135   5.792   9.238   4.340  0.8525  1.8470 -0.9390
34093SOL     OW 9136   8.050   2.174   4.517  0.6853  0.0329  0.2820
34093SOL    HW1 9137   8.113   2.196   4.586  0.1514  2.4558  0.0927
34093SOL    HW2 9138   7.977   2.235   4.531 -1.2656 -2.1030 -0.0348
34094SOL     OW 9139   7.425  10.293   5.574 -0.2753  0.1054  0.9829
34094SOL    HW1 9140   7.427  10.389   5.566  0.1097  0.0645  0.5615
34094SOL    HW2 9141   7.510  10.265   5.540 -0.6194 -0.4271  0.5502
34095SOL     OW 9142   2.489  11.366   0.989  0.0286  0.3759 -0.6850
34095SOL    HW1 9143   2.472  11.298   0.924 -0.3534  1.1010 -1.3674
34095SOL    HW2 9144   2.410  11.366   1.045  0.6855 -0.7812  0.3006
34096SOL     OW 9145  10.961  10.097   2.757  0.4988 -0.7947 -0.1046
34096SOL    HW1 9146  11.040  10.148   2.774  0.4405 -0.5708 -0.4779
34096SOL    HW2 9147  10.891  10.149   2.797  0.2439  0.1868 -1.7565
34097SOL     OW 9148   6.321   4.977   3.744 -0.5165 -0.2680 -0.0428
34097SOL    HW1 9149   6.386   5.046   3.732 -1.5243  0.7365  0.1069
34097SOL    HW2 9150   6.373   4.896   3.750  0.5842  0.1676 -2.4300
34098SOL     OW 9151  10.065   1.440   5.437 -0.3544  0.0483 -0.0134
34098SOL    HW1 9152  10.024   1.491   5.367 -0.5829 -0.0461  0.0480
34098SOL    HW2 9153   9.997   1.434   5.505 -0.4661 -0.6549 -0.1795
34099SOL     OW 9154   1.228   3.726   0.509 -0.0405 -0.4566 -0.4332
34099SOL    HW1 9155   1.232   3.632   0.491  0.4819 -0.7752  1.2016
34099SOL    HW2 9156   1.189   3.764   0.430  1.5077 -1.8099 -1.9470
34100SOL     OW 9157  12.207   2.470  11.128 -0.1889  0.1448 -0.1204
34100SOL    HW1 9158  12.240   2.384  11.105 -0.4904 -1.1054  3.5310
34100SOL    HW2 9159  12.186   2.511  11.044  3.7935 -1.6504 -2.2630
34101SOL     OW 9160   1.170   8.073   5.247  0.1390 -0.3593 -0.0617
34101SOL    HW1 9161   1.257   8.039   5.226  1.5046  1.2375  2.4930
34101SOL    HW2 9162   1.119   8.059   5.168  2.3261 -2.5821 -1.2018
34102SOL     OW 9163  12.520   9.799   8.511  0.0392 -0.1317 -0.0289
34102SOL    HW1 9164  12.542   9.886   8.545 -0.0482 -0.9603  2.2607
34102SOL    HW2 9165  12.605   9.756   8.500  0.2951  0.9278 -3.4352
34103SOL     OW 9166   6.745  11.160   8.576  0.1776 -0.0974 -0.3722
34103SOL    HW1 9167   6.827  11.123   8.544  0.2801  0.4704 -0.7624
34103SOL    HW2 9168   6.678  11.126   8.516 -0.1707 -2.0994  1.0214
34104SOL     OW 9169   3.424   7.225   7.871  0.0027 -0.5050  0.2656
34104SOL    HW1 9170   3.473   7.272   7.804  1.5418 -0.9259  1.0300
34104SOL    HW2 9171   3.357   7.286   7.900  0.1387  0.1445 -0.7440
34105SOL     OW 9172  12.533   4.481   0.969 -0.1515  0.3636  0.3107
34105SOL    HW1 9173  12.479   4.494   1.047 -0.1605  0.0845  0.3522
34105SOL    HW2 9174  12.598   4.416   0.995  0.0096  0.4635  0.1646
34106SOL     OW 9175   1.511   2.413   2.037 -0.6400 -0.3190  0.3446
34106SOL    HW1 9176   1.429   2.439   2.078  0.4260  0.8735  1.8658
34106SOL    HW2 9177   1.552   2.496   2.013  0.0273 -0.9058 -0.5853
34107SOL     OW 9178   7.825   8.463   9.645  0.3990  0.0360 -0.4406
34107SOL    HW1 9179   7.786   8.544   9.610  0.1773  0.3313  0.4645
34107SOL    HW2 9180   7.774   8.444   9.724  0.5364 -0.9237 -0.5719
34108SOL     OW 9181   7.599   4.493   7.495  0.3298 -0.3769  0.3163
34108SOL    HW1 9182   7.644   4.474   7.577 -0.4200 -0.5713  0.6867
34108SOL    HW2 9183   7.652   4.449   7.428  0.6591 -0.6435  0.7465
34109SOL     OW 9184  12.079   5.716   4.712  0.1720  0.1863  0.3301
34109SOL    HW1 9185  12.083   5.737   4.619  0.6023 -1.3329 -0.0312
34109SOL    HW2 9186  12.134   5.781   4.755 -0.8084  1.4981 -0.3394
34110SOL     OW 9187   4.219  11.290   6.809 -0.0982  0.2976 -0.1412
34110SOL    HW1 9188   4.124  11.290   6.819  0.0682 -0.6823  1.9607
34110SOL    HW2 9189   4.239  11.207   6.766 -0.1803  0.5404 -0.6580
34111SOL     OW 9190   6.612  11.764   8.915 -0.1746 -0.4752  0.9790
34111SOL    HW1 9191   6.691  11.810   8.888 -1.0818  0.7958  0.3169
34111SOL    HW2 9192   6.612  11.683   8.865 -0.2906  0.4524 -0.5888
34112SOL     OW 9193   1.421   9.831   4.108 -0.4761  0.2115 -1.0314
34112SOL    HW1 9194   1.504   9.800   4.071  0.2757  0.1801  0.5614
34112SOL    HW2 9195   1.445   9.909   4.157 -0.9708 -0.8939  1.1157
34113SOL     OW 9196  10.817   2.650   5.378 -0.2553  0.4427 -0.2909
34113SOL    HW1 9197  10.789   2.711   5.310  0.0987  0.3158 -0.5506
34113SOL    HW2 9198  10.894   2.606   5.342 -1.0922 -0.8944 -0.5220
34114SOL     OW 9199   4.565  12.544   1.754 -0.0785  0.3402  0.2778
34114SOL    HW1 9200   4.494  12.493   1.715 -0.1158  0.8669 -0.3726
34114SOL    HW2 9201   4.613  12.579   1.678  0.8126  0.0755  0.7056
34115SOL     OW 9202   2.013  11.270   0.963 -0.2737 -0.4624 -0.1100
34115SOL    HW1 9203   2.026  11.191   0.909  0.4040  0.0596 -0.7344
34115SOL    HW2 9204   1.924  11.262   0.997 -0.3830 -1.2623 -0.5565
34116SOL     OW 9205  12.412   8.526   0.398 -0.2652 -0.6337  0.2861
34116SOL    HW1 9206  12.390   8.525   0.305 -0.0009  1.3038  0.1632
34116SOL    HW2 9207  12.333   8.559   0.442 -0.3093 -1.3095  0.7244
34117SOL     OW 9208   0.299   3.929   0.499  0.2027  0.5805 -0.1769
34117SOL    HW1 9209   0.358   4.000   0.523  0.5398 -0.2676  1.6659
34117SOL    HW2 9210   0.320   3.858   0.560 -3.1199  0.4530  0.9991
34118SOL     OW 9211  10.406   7.387   6.334 -0.1582  0.2014  0.5540
34118SOL    HW1 9212  10.406   7.295   6.361 -0.0675  0.1098  0.2489
34118SOL    HW2 9213  10.485   7.423   6.373 -0.1070  0.1087  0.5371
34119SOL     OW 9214   1.395   7.635   6.327 -0.1128  0.3653 -0.0204
34119SOL    HW1 9215   1.472   7.583   6.301 -0.2308  1.1468 -2.1637
34119SOL    HW2 9216   1.420   7.725   6.306 -1.0261  0.8321  0.8316
34120SOL     OW 9217   2.737   2.037   5.629  0.4186  0.6508  0.0438
34120SOL    HW1 9218   2.775   2.032   5.717  0.5162  1.3894  0.0531
34120SOL    HW2 9219   2.717   1.946   5.606 -1.5094  0.6087  1.6594
34121SOL     OW 9220   2.652   2.008   3.669 -0.1129 -0.1206  0.1640
34121SOL    HW1 9221   2.684   1.978   3.584  1.8646 -0.1823  0.8819
34121SOL    HW2 9222   2.565   1.967   3.678 -0.7429  0.5699 -2.1440
34122SOL     OW 9223  12.401  10.000   0.719  0.4029  0.5256  0.3302
34122SOL    HW1 9224  12.445  10.020   0.801 -0.6867 -0.7363  1.2781
34122SOL    HW2 9225  12.350  10.079   0.699 -1.1332  0.0885  2.1433
34123SOL     OW 9226  11.602   0.754   2.985 -0.6980 -0.1098 -0.2900
34123SOL    HW1 9227  11.512   0.749   2.953 -0.1059 -0.3445 -1.9879
34123SOL    HW2 9228  11.656   0.734   2.909  0.9759  4.0008 -0.4552
34124SOL     OW 9229  11.010   4.312   9.345  0.0789  0.3985 -0.1126
34124SOL    HW1 9230  11.080   4.247   9.336 -0.5940 -0.5609  1.1407
34124SOL    HW2 9231  11.025   4.374   9.274  2.3767  0.4099  0.3077
34125SOL     OW 9232   6.648   3.264   1.099 -0.1615  0.1127 -0.6253
34125SOL    HW1 9233   6.572   3.255   1.157 -0.2753 -1.0480 -0.9355
34125SOL    HW2 9234   6.625   3.214   1.021  1.1149 -0.7077 -0.5055
34126SOL     OW 9235   1.650   7.546   3.649 -0.5309  0.6588 -0.0789
34126SOL    HW1 9236   1.675   7.601   3.724 -0.2613  0.7190 -0.2138
34126SOL    HW2 9237   1.695   7.584   3.575 -0.9989  0.7506 -0.3227
34127SOL     OW 9238   1.057   9.485   1.514  0.0280 -0.0111  0.3282
34127SOL    HW1 9239   1.078   9.449   1.428  1.1869  0.5276  0.3570
34127SOL    HW2 9240   0.989   9.428   1.549 -1.7561  0.7884 -1.6455
34128SOL     OW 9241  11.770   8.140   5.444  0.0962 -0.0827  0.0961
34128SOL    HW1 9242  11.833   8.076   5.412 -0.7535 -1.0005  0.2102
34128SOL    HW2 9243  11.804   8.224   5.415  0.0329 -0.7512 -2.1061
34129SOL     OW 9244   9.590   9.144  11.783  0.4687  0.2333  0.1638
34129SOL    HW1 9245   9.526   9.085  11.743  0.1275  0.2592  0.6672
34129SOL    HW2 9246   9.639   9.180  11.709 -0.5813  0.7758 -0.2952
34130SOL     OW 9247   7.974   0.505   0.115  0.3656  0.2340 -0.2231
34130SOL    HW1 9248   7.943   0.458   0.192  0.9956 -1.1166 -0.7573
34130SOL    HW2 9249   7.896   0.523   0.064  0.1232 -0.4661 -0.1161
34131SOL     OW 9250   3.057   3.961   8.698 -0.4711 -0.3693  0.3405
34131SOL    HW1 9251   3.127   3.946   8.635 -0.2526 -0.1505  0.5293
34131SOL    HW2 9252   3.089   3.921   8.779 -0.4890 -0.1250  0.4712
34132SOL     OW 9253   2.786  10.375   8.639 -0.0920 -0.0237 -0.2539
34132SOL    HW1 9254   2.878  10.364   8.615 -0.1950 -0.2008 -0.5703
34132SOL    HW2 9255   2.787  10.375   8.735  0.1786 -0.5758 -0.2495
34133SOL     OW 9256  10.897   2.638  10.857 -0.4653 -0.0075 -0.0120
34133SOL    HW1 9257  10.985   2.665  10.830 -0.6020  0.4056 -0.0609
34133SOL    HW2 9258  10.906   2.615  10.949 -0.0580 -1.1310 -0.3179
34134SOL     OW 9259   5.086   6.486   3.585  0.2349  0.4493  0.1056
34134SOL    HW1 9260   5.085   6.457   3.494  2.0393 -0.0472  0.1992
34134SOL    HW2 9261   5.150   6.558   3.586  0.1767  0.4956  0.9694
34135SOL     OW 9262   2.009   1.582  12.258 -0.3903 -0.4233 -0.1940
34135SOL    HW1 9263   1.966   1.666  12.275 -1.2932 -0.9375  0.1825
34135SOL    HW2 9264   1.979   1.526  12.330  0.0287 -1.1230 -0.5615
34136SOL     OW 9265   6.067   4.124   9.302 -0.0084 -0.1526  0.3807
34136SOL    HW1 9266   5.973   4.129   9.281  0.0743  1.4238  0.2194
34136SOL    HW2 9267   6.079   4.190   9.370  1.1424  0.3122 -0.2515
34137SOL     OW 9268  11.700   6.908   7.793 -0.0079  0.0189  0.1375
34137SOL    HW1 9269  11.721   6.903   7.886 -1.4342 -0.3411  0.4613
34137SOL    HW2 9270  11.683   6.818   7.767 -1.2042  0.2839 -0.0653
34138SOL     OW 9271  12.184   2.237   2.809 -0.1357  0.3603 -0.4678
34138SOL    HW1 9272  12.090   2.233   2.830 -0.8295  2.7951 -2.6416
34138SOL    HW2 9273  12.208   2.328   2.825  1.1126  0.4656 -2.6750
34139SOL     OW 9274   6.203   6.204  11.579  0.1673  0.3528  0.0677
34139SOL    HW1 9275   6.252   6.197  11.661  0.2520  1.7783  0.1669
34139SOL    HW2 9276   6.196   6.114  11.548  1.8659 -0.0248  0.6288
34140SOL     OW 9277   9.263  10.965   8.888  0.1988  0.1492  0.1548
34140SOL    HW1 9278   9.313  10.912   8.826  1.9733  0.4063  1.2874
34140SOL    HW2 9279   9.326  11.031   8.919 -1.6047  2.2183 -0.3552
34141SOL     OW 9280   0.404  11.678   9.847  0.2674  0.2948  0.1060
34141SOL    HW1 9281   0.441  11.614   9.909  0.6401 -0.6477 -1.0653
34141SOL    HW2 9282   0.351  11.626   9.788  1.3855  0.9053 -1.5023
34142SOL     OW 9283   3.982   4.565   3.717 -0.2622  0.5975 -0.2951
34142SOL    HW1 9284   4.022   4.554   3.803 -0.9259  0.0894 -0.0408
34142SOL    HW2 9285   3.962   4.476   3.687 -0.0493  0.7675 -0.9714
34143SOL     OW 9286  12.449   4.018   9.427  0.1250 -0.2109  0.5373
34143SOL    HW1 9287  12.366   4.007   9.474 -0.0330  1.8497  0.8387
34143SOL    HW2 9288  12.512   3.968   9.478 -0.8174 -1.3424  0.6215
34144SOL     OW 9289   9.574  11.408   8.812 -0.7075  0.3308 -0.2524
34144SOL    HW1 9290   9.604  11.437   8.726 -2.2449  1.0556 -0.5893
34144SOL    HW2 9291   9.546  11.318   8.799  2.0971 -0.7020  0.2946
34145SOL     OW 9292   2.843   3.362   6.920  0.4578  0.2764  0.2102
34145SOL    HW1 9293   2.921   3.375   6.867  1.4308  1.3896  1.8322
34145SOL    HW2 9294   2.836   3.267   6.931  3.3561  0.2019  2.4853
34146SOL     OW 9295   4.486  10.339   4.384 -0.0344  0.2468  0.2854
34146SOL    HW1 9296   4.534  10.408   4.429  0.0946  0.8244 -0.7130
34146SOL    HW2 9297   4.547  10.306   4.318 -0.7698  0.5797 -0.5979
34147SOL     OW 9298   5.779   9.157   9.361 -0.0116 -0.2985 -0.0278
34147SOL    HW1 9299   5.722   9.099   9.411 -1.2341 -0.8261 -1.9253
34147SOL    HW2 9300   5.753   9.245   9.387 -0.2156 -0.5649  0.6870
34148SOL     OW 9301   6.471   6.623   3.591 -0.2744  0.1937 -0.0900
34148SOL    HW1 9302   6.424   6.688   3.644 -1.8721  0.5741 -1.8459
34148SOL    HW2 9303   6.535   6.675   3.543 -0.0236  0.1225  0.1679
34149SOL     OW 9304   2.131  11.975   5.941  0.4287 -0.2628 -0.1839
34149SOL    HW1 9305   2.071  11.952   6.011  0.5759 -0.2765 -0.0609
34149SOL    HW2 9306   2.075  11.987   5.864 -0.1835  3.0414  0.6185
34150SOL     OW 9307   4.543   9.003  10.715 -0.6230 -0.0565 -0.3074
34150SOL    HW1 9308   4.481   8.931  10.705 -0.7039 -0.0213 -0.0770
34150SOL    HW2 9309   4.498   9.067  10.770 -0.4146  0.0049 -0.2029
34151SOL     OW 9310  10.241   1.604   7.466  0.1655  0.3874  0.1503
34151SOL    HW1 9311  10.301   1.648   7.405  0.1734  1.3539  0.8459
34151SOL    HW2 9312  10.297   1.576   7.538  0.2192 -1.0732 -0.4112
34152SOL     OW 9313   6.687   4.588   7.897  0.4307  0.0719 -0.1782
34152SOL    HW1 9314   6.766   4.536   7.884  0.7938  0.2760  1.0788
34152SOL    HW2 9315   6.717   4.679   7.887  0.1989  0.1233 -0.4203
34153SOL     OW 9316   6.305  11.493   1.011  0.0535 -0.2929  0.3364
34153SOL    HW1 9317   6.384  11.443   0.991 -0.7769 -1.3951 -0.2516
34153SOL    HW2 9318   6.336  11.583   1.021  1.7956 -1.0728  2.8235
34154SOL     OW 9319  10.427   5.328   2.379 -0.0370  0.3953  0.1988
34154SOL    HW1 9320  10.469   5.248   2.347  1.8177  1.3791  0.0114
34154SOL    HW2 9321  10.439   5.325   2.474 -0.2599  0.3102  0.2258
34155SOL     OW 9322   9.018   3.710   8.802 -0.0751 -0.0044  0.0885
34155SOL    HW1 9323   9.048   3.620   8.815  2.7870  0.8759  0.2219
34155SOL    HW2 9324   8.933   3.700   8.759 -0.5992 -2.7529  1.4967
34156SOL     OW 9325   8.826   4.352   6.896  0.4695  0.0324 -0.6074
34156SOL    HW1 9326   8.861   4.314   6.815  0.1902 -3.2644  0.6655
34156SOL    HW2 9327   8.885   4.321   6.964 -1.5157 -0.6794  0.8839
34157SOL     OW 9328   6.890   7.702   4.098  0.4418 -0.0268  0.5108
34157SOL    HW1 9329   6.957   7.706   4.167  1.3434  0.2523 -0.3483
34157SOL    HW2 9330   6.934   7.738   4.021  0.1070 -2.0670 -0.7055
34158SOL     OW 9331   8.106   4.051   9.537  0.0158  0.2784 -0.3313
34158SOL    HW1 9332   8.016   4.069   9.565  0.0679 -0.5473  0.4174
34158SOL    HW2 9333   8.134   3.978   9.592  1.3866  0.9618 -0.0940
34159SOL     OW 9334   7.293   1.693   5.035  0.5187 -0.1889  0.0284
34159SOL    HW1 9335   7.343   1.739   4.967 -0.2264 -2.6828 -2.3943
34159SOL    HW2 9336   7.238   1.632   4.987 -0.6550 -1.5782  2.9007
34160SOL     OW 9337  12.311  12.163   1.438  0.3679 -0.3476 -0.2006
34160SOL    HW1 9338  12.267  12.164   1.522  2.4296  1.0748  0.9539
34160SOL    HW2 9339  12.314  12.255   1.411 -0.8370 -0.8247 -2.2065
34161SOL     OW 9340   8.825   2.833   7.423 -0.1464 -0.1375 -0.0292
34161SOL    HW1 9341   8.905   2.785   7.444 -0.9049 -1.4277  0.0733
34161SOL    HW2 9342   8.771   2.825   7.502 -1.1410 -0.9774 -0.7584
34162SOL     OW 9343   2.138   9.809   8.793 -0.1189  0.0934  0.5110
34162SOL    HW1 9344   2.075   9.874   8.760 -0.1994  0.8009  1.9388
34162SOL    HW2 9345   2.207   9.861   8.833  1.4223 -0.6848 -1.0300
34163SOL     OW 9346   0.349   8.756   7.610  0.0478 -0.1896  0.9019
34163SOL    HW1 9347   0.339   8.766   7.516  0.5602 -2.3409  0.5462
34163SOL    HW2 9348   0.291   8.683   7.633 -0.4028  0.5810  2.3373
34164SOL     OW 9349   5.719   3.052   3.404 -0.0680 -0.0972 -0.4224
34164SOL    HW1 9350   5.807   3.036   3.371  0.6088  1.6978  0.3677
34164SOL    HW2 9351   5.662   3.048   3.327  0.1189 -4.4032 -0.5691
34165SOL     OW 9352   9.743   7.466  11.159 -0.5209  0.2616 -0.4509
34165SOL    HW1 9353   9.736   7.486  11.252 -1.4862  0.9469 -0.6661
34165SOL    HW2 9354   9.677   7.399  11.144 -1.3228  1.1392 -0.9120
34166SOL     OW 9355   7.594   9.663   8.212  0.0179  0.2601 -0.8040
34166SOL    HW1 9356   7.560   9.720   8.282  2.4370  1.9138 -0.8606
34166SOL    HW2 9357   7.551   9.694   8.133 -0.0594  0.7968 -0.5580
34167SOL     OW 9358   3.835  10.180   4.585 -0.2498  0.1572 -0.0444
34167SOL    HW1 9359   3.797  10.234   4.655 -1.0754 -1.0658  0.4913
34167SOL    HW2 9360   3.772  10.187   4.513 -0.3009 -0.0002 -0.0151
34168SOL     OW 9361   1.198   7.124   2.138 -0.5250  0.2712  0.9524
34168SOL    HW1 9362   1.108   7.091   2.140 -0.2192 -0.6589  0.2906
34168SOL    HW2 9363   1.247   7.066   2.195  0.5846 -2.3680 -2.3575
34169SOL     OW 9364  10.165  11.291   4.674  0.0070  0.3397 -0.1075
34169SOL    HW1 9365  10.252  11.327   4.694  0.6277 -1.5359  0.8246
34169SOL    HW2 9366  10.133  11.257   4.758 -2.5356  2.6575  0.0035
34170SOL     OW 9367  11.878   5.939   6.977 -0.1072  0.0963  0.0493
34170SOL    HW1 9368  11.918   6.001   7.038 -0.2141 -0.3681  0.6102
34170SOL    HW2 9369  11.951   5.891   6.939 -0.0345  0.4544 -0.2617
34171SOL     OW 9370   9.174   8.624   3.762 -0.2593 -0.4467 -0.5452
34171SOL    HW1 9371   9.226   8.555   3.803  1.0468  0.9989  0.3675
34171SOL    HW2 9372   9.214   8.706   3.793 -0.5384  0.7568 -3.0702
34172SOL     OW 9373   3.971   1.017   8.490 -0.7550 -0.0938  0.6489
34172SOL    HW1 9374   3.884   1.039   8.455 -0.8771 -1.8558 -0.2934
34172SOL    HW2 9375   4.002   0.947   8.433  0.5321 -0.7269  2.0725
34173SOL     OW 9376   7.946   8.846   2.513  0.7766  0.3516  0.2275
34173SOL    HW1 9377   7.897   8.836   2.595  0.0472  0.2516 -0.2134
34173SOL    HW2 9378   8.029   8.885   2.540  0.7981 -0.2558  1.0926
34174SOL     OW 9379   1.230   0.505   8.659  0.0179  0.3431 -0.4818
34174SOL    HW1 9380   1.167   0.446   8.699  1.0369 -1.2484 -1.1191
34174SOL    HW2 9381   1.292   0.526   8.729  0.2199 -0.1621 -0.5093
34175SOL     OW 9382   2.616   3.109   3.775  0.5796 -0.0072 -0.5837
34175SOL    HW1 9383   2.690   3.116   3.835  0.5398  1.6560 -0.6683
34175SOL    HW2 9384   2.647   3.151   3.695 -0.3816  0.5501 -0.6784
34176SOL     OW 9385   0.165  12.011   2.676 -0.2793 -0.1857 -0.1135
34176SOL    HW1 9386   0.235  12.076   2.677 -0.8601  0.4803 -1.1944
34176SOL    HW2 9387   0.138  12.006   2.585 -1.5291 -0.5621  0.2560
34177SOL     OW 9388  10.635   8.673   2.528 -0.1576  0.5085 -0.3141
34177SOL    HW1 9389  10.701   8.651   2.595 -0.7325  1.2882  0.5270
34177SOL    HW2 9390  10.566   8.608   2.541  0.1834  0.0423 -0.8177
34178SOL     OW 9391   7.232   5.393   8.330  0.3425  0.3455 -0.0799
34178SOL    HW1 9392   7.243   5.376   8.236  0.3531 -0.3883  0.0505
34178SOL    HW2 9393   7.234   5.307   8.370 -0.5902  0.5849  0.5083
34179SOL     OW 9394  11.762   3.040  10.317 -0.3064  0.5996  0.3399
34179SOL    HW1 9395  11.717   3.035  10.401 -0.2639  1.9618  0.4715
34179SOL    HW2 9396  11.718   3.110  10.270  2.2583  2.7607  0.8833
34180SOL     OW 9397   7.775   1.185   1.894 -0.4102 -0.2970  0.0329
34180SOL    HW1 9398   7.699   1.126   1.895  0.6395 -1.7075  1.6371
34180SOL    HW2 9399   7.754   1.251   1.961 -0.8327  0.1808 -0.5561
34181SOL     OW 9400  10.015   2.388   1.061 -0.2588  0.5595 -0.2434
34181SOL    HW1 9401  10.041   2.331   1.134 -1.5391 -3.4195 -2.6024
34181SOL    HW2 9402   9.922   2.368   1.047  0.4991 -0.9481 -4.5030
34182SOL     OW 9403   9.677   4.874   4.994  0.2734  0.3958  0.3029
34182SOL    HW1 9404   9.772   4.862   4.989  0.4256  1.8340 -0.6370
34182SOL    HW2 9405   9.663   4.966   4.974 -1.2389  0.5354  1.7596
34183SOL     OW 9406   6.075   5.136  12.377 -0.1426  0.4746 -0.0269
34183SOL    HW1 9407   6.141   5.092  12.431  1.2594  1.1268 -1.1323
34183SOL    HW2 9408   6.060   5.220  12.421 -0.7966  0.0358  0.6124
34184SOL     OW 9409   7.558   0.734   5.748  0.1890  0.2390 -0.0604
34184SOL    HW1 9410   7.470   0.762   5.777  0.2122  1.7718 -1.3352
34184SOL    HW2 9411   7.609   0.815   5.747  1.5923 -0.6137  0.4980
34185SOL     OW 9412  10.466   7.920   0.568  0.0310  0.4013  0.1815
34185SOL    HW1 9413  10.390   7.909   0.625 -0.0775 -0.1873 -0.0771
34185SOL    HW2 9414  10.474   8.015   0.558 -1.1026  0.4535 -0.3732
34186SOL     OW 9415   7.967   4.347   3.569 -0.1395  0.3579 -0.1992
34186SOL    HW1 9416   7.893   4.307   3.523 -1.5942 -0.6226  2.7315
34186SOL    HW2 9417   8.001   4.277   3.625  1.1436  1.5872  0.6199
34187SOL     OW 9418   1.148  10.458   8.942  0.3794 -0.1433  0.3720
34187SOL    HW1 9419   1.088  10.508   8.997  1.1693  0.9617  0.2707
34187SOL    HW2 9420   1.228  10.452   8.993  1.0432  0.6901 -0.5168
34188SOL     OW 9421   4.085   1.087   7.555 -0.1597 -0.5613 -0.1033
34188SOL    HW1 9422   4.063   1.150   7.487 -1.2212 -1.2541 -0.4175
34188SOL    HW2 9423   4.163   1.124   7.598  0.6845 -0.2357 -1.8300
34189SOL     OW 9424   6.946   6.378   2.342 -0.3918 -0.3256  0.0142
34189SOL    HW1 9425   6.852   6.378   2.326 -0.7395 -0.5532  1.8500
34189SOL    HW2 9426   6.966   6.291   2.376  0.6927 -0.6403 -1.3511
34190SOL     OW 9427   9.578   1.482   5.544  0.4632 -0.1980 -0.1660
34190SOL    HW1 9428   9.497   1.485   5.493  0.9388  0.4699 -0.8983
34190SOL    HW2 9429   9.563   1.412   5.608 -0.8473  0.1975 -0.0161
34191SOL     OW 9430   8.060   5.781   2.239 -0.5793 -0.0338  0.0219
34191SOL    HW1 9431   8.107   5.850   2.191  1.9698 -1.5075  0.2384
34191SOL    HW2 9432   8.054   5.814   2.328 -1.7931  1.0324 -0.4372
34192SOL     OW 9433   8.159   8.263   5.738 -0.0225  0.2923 -0.1371
34192SOL    HW1 9434   8.218   8.301   5.674 -0.6692  0.0317 -0.8953
34192SOL    HW2 9435   8.211   8.193   5.779  0.4674  0.6154 -0.1981
34193SOL     OW 9436   3.684   4.197   3.076 -0.1789  0.2535 -0.7313
34193SOL    HW1 9437   3.779   4.202   3.065 -0.2584  2.3583 -0.8884
34193SOL    HW2 9438   3.652   4.281   3.043 -1.7930  0.8358  1.9892
34194SOL     OW 9439   4.262   3.773   3.418  0.2204 -0.5079 -0.1644
34194SOL    HW1 9440   4.351   3.737   3.414 -0.4042 -2.2655  0.8215
34194SOL    HW2 9441   4.259   3.837   3.346  2.5186  0.2188  0.2797
34195SOL     OW 9442   8.585   2.952   5.257  0.2812 -0.3044 -0.3132
34195SOL    HW1 9443   8.540   3.027   5.296  1.1864 -0.2944  0.7400
34195SOL    HW2 9444   8.576   2.882   5.322  2.0143 -0.2168  0.0670
34196SOL     OW 9445   6.262   9.395   4.949 -0.1564 -0.2468 -0.0263
34196SOL    HW1 9446   6.292   9.309   4.918  0.6257 -0.3506  0.9424
34196SOL    HW2 9447   6.319   9.413   5.024 -0.1537  1.2331 -0.3698
34197SOL     OW 9448   3.615  10.418   8.460  0.5899  0.4146 -0.8998
34197SOL    HW1 9449   3.551  10.348   8.468  1.5900 -0.4085  0.3514
34197SOL    HW2 9450   3.579  10.476   8.394 -1.1368 -0.3341 -0.6690
34198SOL     OW 9451   2.020   4.241   9.035  0.0595  0.0815  0.4545
34198SOL    HW1 9452   1.978   4.190   9.104 -0.5522  2.5040  2.0097
34198SOL    HW2 9453   1.947   4.282   8.988  0.5528  1.0624  0.5197
34199SOL     OW 9454   0.995   2.771  10.834 -0.6211  0.1661  0.2702
34199SOL    HW1 9455   0.996   2.746  10.927 -0.4681 -0.1954  0.1704
34199SOL    HW2 9456   1.066   2.836  10.827  0.4203 -0.9660  0.0907
34200SOL     OW 9457   5.266   4.152   8.499  0.0641 -0.3283 -0.4344
34200SOL    HW1 9458   5.223   4.149   8.413  1.6255  0.8094 -1.2912
34200SOL    HW2 9459   5.233   4.232   8.539  0.7515  0.1314 -0.7691
34201SOL     OW 9460   5.584   7.245   3.029 -0.1706 -0.0156  0.2201
34201SOL    HW1 9461   5.679   7.246   3.017  0.0305 -0.4361  1.5823
34201SOL    HW2 9462   5.559   7.337   3.035  0.0537  0.1163 -0.7760
34202SOL     OW 9463   0.396   8.713   4.868  0.4848 -0.7041  0.2737
34202SOL    HW1 9464   0.408   8.643   4.932  1.5004 -0.1153  0.7573
34202SOL    HW2 9465   0.332   8.771   4.909  2.0526  0.3295  1.3754
34203SOL     OW 9466  10.795   6.835   1.908  0.1709 -0.0212  0.0432
34203SOL    HW1 9467  10.798   6.741   1.895  0.5155  0.1674 -1.4323
34203SOL    HW2 9468  10.801   6.872   1.820 -0.5955  1.3691  0.5291
34204SOL     OW 9469   4.412   4.907   0.781  0.2865  0.1979 -0.3916
34204SOL    HW1 9470   4.353   4.960   0.729  1.4727  1.9221 -0.0783
34204SOL    HW2 9471   4.385   4.817   0.764 -1.2950  0.8444 -1.5665
34205SOL     OW 9472   4.012   6.598   3.466 -0.0046 -0.0214  0.3510
34205SOL    HW1 9473   3.992   6.690   3.481 -0.0844  0.0118  0.0479
34205SOL    HW2 9474   4.106   6.595   3.451 -0.0294  0.0362  0.1796
34206SOL     OW 9475   6.128   3.219  11.014  0.1313 -0.7556 -0.4088
34206SOL    HW1 9476   6.206   3.166  11.027 -0.9061 -2.4923 -0.9293
34206SOL    HW2 9477   6.057   3.156  11.006 -1.2926  0.7599 -0.2876
34207SOL     OW 9478   9.220   8.793   5.156 -0.0572 -0.5877  0.3571
34207SOL    HW1 9479   9.236   8.712   5.204  1.8308 -0.9870 -0.8730
34207SOL    HW2 9480   9.156   8.769   5.089  0.7266 -1.1457 -0.1959
34208SOL     OW 9481  12.132   4.773   9.114 -0.7574  0.3707  0.4610
34208SOL    HW1 9482  12.139   4.713   9.189  0.6993  0.6843  0.6091
34208SOL    HW2 9483  12.040   4.769   9.089 -1.0781 -0.4750  1.6643
34209SOL     OW 9484  10.090  11.574  11.824  0.0489  0.0374  0.7118
34209SOL    HW1 9485  10.014  11.611  11.868  0.1846  2.8814 -1.1384
34209SOL    HW2 9486  10.060  11.554  11.735  1.3787  1.3124 -0.0867
34210SOL     OW 9487   7.759   6.238  11.224 -0.6192 -0.5653 -0.2265
34210SOL    HW1 9488   7.821   6.214  11.292 -0.2700 -0.1733 -0.4030
34210SOL    HW2 9489   7.712   6.157  11.204 -1.0909 -0.5704  0.8470
34211SOL     OW 9490  11.557   7.750  11.516 -0.5572 -0.4288  0.4297
34211SOL    HW1 9491  11.500   7.757  11.593  0.1899 -1.0240  1.0575
34211SOL    HW2 9492  11.619   7.680  11.538  1.7116  1.5022  0.6069
34212SOL     OW 9493   0.502   2.067   8.376 -0.1661  0.0881  0.1237
34212SOL    HW1 9494   0.475   2.155   8.352  2.2989  0.8352 -0.2081
34212SOL    HW2 9495   0.553   2.078   8.456  1.4591 -0.7715 -0.7288
34213SOL     OW 9496   7.239   8.452   0.604  0.6560 -0.2395  0.1822
34213SOL    HW1 9497   7.194   8.513   0.663  1.6147 -0.4814  1.1835
34213SOL    HW2 9498   7.282   8.508   0.540  0.1181  0.0522  0.0649
34214SOL     OW 9499   7.962   7.513   6.283 -0.2880  0.3408 -0.0567
34214SOL    HW1 9500   7.920   7.429   6.303 -1.1624  0.5059 -1.1139
34214SOL    HW2 9501   7.989   7.547   6.369 -2.8266  0.4787  0.7842
34215SOL     OW 9502   5.451   7.109   5.115  0.3392  0.3392 -0.2143
34215SOL    HW1 9503   5.483   7.196   5.135  1.1633  0.8085 -3.1019
34215SOL    HW2 9504   5.528   7.053   5.117  0.0392 -0.0630  0.3174
34216SOL     OW 9505  10.745   2.841   5.663 -0.0858 -0.6406  0.2818
34216SOL    HW1 9506  10.742   2.746   5.659 -3.4612 -0.6362 -0.6459
34216SOL    HW2 9507  10.715   2.863   5.751  2.2590 -0.3525  1.0792
34217SOL     OW 9508   1.027   4.013   7.668  0.6158  0.3055  0.4691
34217SOL    HW1 9509   1.075   4.063   7.601 -3.0398  2.2134 -1.0454
34217SOL    HW2 9510   1.046   3.922   7.649  1.9293  0.9095 -1.3819
34218SOL     OW 9511   6.804   4.037   3.716  0.0496 -0.1305  0.2730
34218SOL    HW1 9512   6.897   4.051   3.737  0.7224  2.0885 -3.2310
34218SOL    HW2 9513   6.805   3.972   3.646 -0.4459  2.6817 -2.5975
34219SOL     OW 9514   2.060   4.446   4.725 -0.3632  0.1673 -0.3048
34219SOL    HW1 9515   2.134   4.414   4.776 -1.2317 -0.8826  0.3535
34219SOL    HW2 9516   2.092   4.525   4.682  0.7054  0.5323  1.0930
34220SOL     OW 9517   3.881  12.237   6.147  0.1785 -0.1178 -0.2273
34220SOL    HW1 9518   3.883  12.186   6.067  1.0728  0.1659 -0.4006
34220SOL    HW2 9519   3.838  12.319   6.123 -2.4865 -1.2550  0.3672
34221SOL     OW 9520   8.456   2.400   6.803 -0.1501 -0.2418 -0.5914
34221SOL    HW1 9521   8.390   2.469   6.794  0.1795 -0.0264 -1.4816
34221SOL    HW2 9522   8.412   2.321   6.771 -0.4999 -0.4471  0.3511
34222SOL     OW 9523   6.541   6.461   1.660  0.1795 -0.2201  0.0992
34222SOL    HW1 9524   6.599   6.537   1.661 -1.3482  1.0342 -1.4237
34222SOL    HW2 9525   6.468   6.487   1.716 -0.3370 -0.5832 -0.4058
34223SOL     OW 9526   4.772  10.443   7.794 -0.0032  0.0003 -0.2078
34223SOL    HW1 9527   4.753  10.382   7.865 -1.2424  0.2099 -0.3519
34223SOL    HW2 9528   4.861  10.419   7.766 -0.1269 -1.1479  0.3232
34224SOL     OW 9529   9.574   7.138   3.824 -0.4398  0.0486  0.2496
34224SOL    HW1 9530   9.552   7.219   3.778 -0.5333 -1.2547 -2.2057
34224SOL    HW2 9531   9.542   7.151   3.913 -3.3959  1.5156 -0.8845
34225SOL     OW 9532  11.104   0.280  10.733  0.0343 -0.4782 -0.0501
34225SOL    HW1 9533  11.102   0.327  10.816 -0.9163 -1.2127  0.3658
34225SOL    HW2 9534  11.130   0.346  10.668 -1.9393  0.8331  0.4024
34226SOL     OW 9535   2.724   5.654  10.634  0.0930 -1.4132  0.5698
34226SOL    HW1 9536   2.774   5.735  10.647 -0.3617 -1.3107  1.7709
34226SOL    HW2 9537   2.786   5.584  10.656  0.3583 -1.3823 -0.0591
34227SOL     OW 9538   4.045   5.712  10.857  0.3017 -0.0567  0.1953
34227SOL    HW1 9539   4.041   5.790  10.913 -0.8674  0.0250  0.0149
34227SOL    HW2 9540   4.136   5.707  10.830  1.0893 -0.4727  2.6433
34228SOL     OW 9541   9.799   1.271  11.346  0.1779 -0.8657 -0.4300
34228SOL    HW1 9542   9.724   1.329  11.346  0.3834 -0.5992  0.2728
34228SOL    HW2 9543   9.875   1.329  11.355  0.4264 -1.1815 -0.4665
34229SOL     OW 9544  11.998   6.061   4.001  0.8105  0.5564  0.6899
34229SOL    HW1 9545  11.964   6.101   3.921  0.3042 -0.3146  0.4579
34229SOL    HW2 9546  11.932   6.080   4.068 -1.3793 -2.9198 -0.2042
34230SOL     OW 9547   2.208   5.121  10.998  0.0796 -0.0688  0.8155
34230SOL    HW1 9548   2.225   5.213  10.978 -0.6626 -0.2094 -0.6712
34230SOL    HW2 9549   2.162   5.122  11.081 -2.5588  1.2009 -0.5397
34231SOL     OW 9550   9.209   0.155   6.823  0.0036  0.2457  0.2138
34231SOL    HW1 9551   9.126   0.166   6.871  0.6084 -1.6497  1.8474
34231SOL    HW2 9552   9.197   0.074   6.773  0.2771  0.9052 -0.9608
34232SOL     OW 9553   9.326   6.855  12.322  0.4297 -0.0079  0.5389
34232SOL    HW1 9554   9.406   6.841  12.374  0.8608  1.2203  0.2597
34232SOL    HW2 9555   9.354   6.914  12.252 -0.9409  1.2878  1.0288
34233SOL     OW 9556   4.220   8.267   0.572  0.5826 -0.0397  0.8422
34233SOL    HW1 9557   4.183   8.355   0.580 -0.1186 -0.2650  0.0766
34233SOL    HW2 9558   4.269   8.269   0.490  0.9843 -0.2285  1.0697
34234SOL     OW 9559   1.140   1.312   4.656  0.1394 -0.1011 -0.6610
34234SOL    HW1 9560   1.061   1.366   4.660 -1.3391 -2.2157  0.1657
34234SOL    HW2 9561   1.153   1.297   4.562  0.4676  1.4392 -0.9016
34235SOL     OW 9562  11.284   8.277   1.820 -0.2349 -0.0302 -0.2908
34235SOL    HW1 9563  11.300   8.193   1.862 -1.8412 -0.5678 -0.7163
34235SOL    HW2 9564  11.288   8.259   1.726  2.3479  0.9804 -0.4797
34236SOL     OW 9565   9.832  12.335   4.657  0.2639  0.1270 -0.5788
34236SOL    HW1 9566   9.878  12.271   4.602 -0.6089 -0.1929 -0.9520
34236SOL    HW2 9567   9.763  12.370   4.601 -1.3520 -1.0156  0.6059
34237SOL     OW 9568   2.841   4.795   4.000 -0.3334  0.3255  0.1640
34237SOL    HW1 9569   2.906   4.833   4.059 -0.1179 -1.1709  0.9566
34237SOL    HW2 9570   2.886   4.788   3.916 -0.3866  1.7676 -0.0124
34238SOL     OW 9571   9.585   9.653   6.142 -0.4569  0.4266  0.0899
34238SOL    HW1 9572   9.676   9.641   6.116 -0.0683  1.4019  0.9262
34238SOL    HW2 9573   9.534   9.616   6.070  0.5913 -0.5657 -0.1720
34239SOL     OW 9574  12.339   3.820   7.209 -0.3564  0.6509  0.4183
34239SOL    HW1 9575  12.314   3.911   7.226  0.9004  0.4306  4.4010
34239SOL    HW2 9576  12.257   3.771   7.215 -0.7099  1.2487  0.5433
34240SOL     OW 9577   6.931   1.594   2.811  0.1948 -0.1824  0.2259
34240SOL    HW1 9578   6.877   1.672   2.824 -0.9290 -0.4728 -2.0710
34240SOL    HW2 9579   6.870   1.520   2.822  0.3134 -0.5566 -1.3231
34241SOL     OW 9580   5.332   0.676   9.474 -0.6943 -0.3582 -0.4147
34241SOL    HW1 9581   5.374   0.660   9.390  0.0440  0.9898 -0.3347
34241SOL    HW2 9582   5.373   0.612   9.533 -0.4267 -0.5928 -0.8498
34242SOL     OW 9583   3.534   3.896   0.941  0.2640  0.0038  0.3297
34242SOL    HW1 9584   3.548   3.821   0.998  2.1958 -1.1359 -1.4982
34242SOL    HW2 9585   3.548   3.863   0.852 -1.5920  1.9274 -0.7905
34243SOL     OW 9586   4.124   2.914   2.333  0.4856 -0.5888 -0.5235
34243SOL    HW1 9587   4.086   2.998   2.358 -0.3945 -0.8023 -1.0739
34243SOL    HW2 9588   4.081   2.850   2.390  0.8867 -0.7032 -0.3497
34244SOL     OW 9589  11.307  10.926   0.909 -0.6956 -0.4077 -0.0139
34244SOL    HW1 9590  11.334  10.839   0.938 -1.1781 -0.4484  0.3142
34244SOL    HW2 9591  11.276  10.913   0.819  0.8336 -0.2743 -0.6073
34245SOL     OW 9592   0.168   2.399   8.078  0.2568  0.4863  0.2229
34245SOL    HW1 9593   0.170   2.312   8.117  2.4669  0.1936 -0.4596
34245SOL    HW2 9594   0.199   2.457   8.148  2.6858  0.1635 -0.5205
34246SOL     OW 9595   6.575   6.954   8.378 -0.0526  0.5707 -0.0626
34246SOL    HW1 9596   6.625   6.873   8.375 -1.0066 -0.0596  0.8222
34246SOL    HW2 9597   6.577   6.986   8.287 -0.3964 -0.8893 -0.6202
34247SOL     OW 9598  11.706   7.923   8.624  0.0285 -0.5240 -0.1963
34247SOL    HW1 9599  11.771   7.965   8.569  0.4003 -1.9147 -0.8630
34247SOL    HW2 9600  11.727   7.952   8.713  0.2837  0.6345 -0.6193
34248SOL     OW 9601  11.175   3.822   9.206 -0.8133  0.0630  0.3054
34248SOL    HW1 9602  11.255   3.874   9.213 -1.7125  1.6678 -0.7214
34248SOL    HW2 9603  11.196   3.754   9.142 -0.0995  0.0814  0.5090
34249SOL     OW 9604   9.828   7.608   3.839 -0.3855 -0.0935  0.3928
34249SOL    HW1 9605   9.874   7.614   3.755  0.0554 -2.6465  0.3466
34249SOL    HW2 9606   9.886   7.652   3.901  0.8163 -0.8259 -0.1577
34250SOL     OW 9607  11.686   5.007   8.095  0.7141 -0.0915 -0.1054
34250SOL    HW1 9608  11.659   5.061   8.020 -0.4383 -0.7151 -0.1575
34250SOL    HW2 9609  11.683   5.066   8.170  2.7903  0.7940 -0.6491
34251SOL     OW 9610   1.259   9.678   4.723 -0.2233  0.3109 -0.1619
34251SOL    HW1 9611   1.305   9.716   4.798  0.4582  2.0698 -1.4165
34251SOL    HW2 9612   1.168   9.705   4.733 -0.6313 -1.3908  1.1975
34252SOL     OW 9613   8.697  10.457  11.040 -0.0470 -0.6254  0.0703
34252SOL    HW1 9614   8.775  10.513  11.040 -1.0277  0.7977  0.6041
34252SOL    HW2 9615   8.652  10.479  11.122 -0.5927 -2.0331  0.1719
34253SOL     OW 9616   3.919  10.994   7.456  0.1046 -0.0477  0.2802
34253SOL    HW1 9617   3.951  10.937   7.386 -1.3055 -1.4526  0.6998
34253SOL    HW2 9618   3.971  10.969   7.532  1.5938  1.4351 -0.1985
34254SOL     OW 9619   6.265  12.195   9.538 -0.2534 -0.3083  0.3624
34254SOL    HW1 9620   6.218  12.222   9.459  0.6911 -0.1206 -0.1396
34254SOL    HW2 9621   6.197  12.157   9.594 -1.1242  0.5654 -0.0763
34255SOL     OW 9622   1.924   5.126   0.973  0.0598  0.3144 -0.1295
34255SOL    HW1 9623   1.979   5.167   0.906 -1.1637 -1.2369 -2.2111
34255SOL    HW2 9624   1.974   5.050   1.002  0.0885  0.3159 -0.1747
34256SOL     OW 9625   5.156   1.107  10.633  0.4441  0.1524 -0.0361
34256SOL    HW1 9626   5.062   1.120  10.623  0.5008  1.8041  1.2299
34256SOL    HW2 9627   5.190   1.109  10.543 -0.5993  0.6106 -0.4344
34257SOL     OW 9628  10.531   4.826   3.012  0.2128  0.4159 -0.1114
34257SOL    HW1 9629  10.464   4.891   3.031  0.1648  0.2107  0.4232
34257SOL    HW2 9630  10.538   4.774   3.092  0.1831 -0.2954 -0.5660
34258SOL     OW 9631   2.015   0.221   1.224  0.2398  0.1609  0.0708
34258SOL    HW1 9632   1.959   0.288   1.264  0.0613 -0.6058  1.1686
34258SOL    HW2 9633   2.091   0.216   1.282  0.9004  0.3579 -0.7585
34259SOL     OW 9634   3.349   7.516  11.067 -0.4166 -0.0101  0.4375
34259SOL    HW1 9635   3.263   7.484  11.040 -0.6620 -0.0875  1.2818
34259SOL    HW2 9636   3.398   7.438  11.093 -0.4751  0.1313  0.9963
34260SOL     OW 9637   4.374   8.231   9.476  0.1453 -0.3784 -0.1650
34260SOL    HW1 9638   4.322   8.312   9.478  1.5584  0.5457  0.0769
34260SOL    HW2 9639   4.315   8.167   9.436 -1.9287  0.0766  1.9400
34261SOL     OW 9640   9.545   1.366   9.622  0.3683  0.2949 -0.0777
34261SOL    HW1 9641   9.528   1.358   9.528  0.6976  0.2906 -0.1387
34261SOL    HW2 9642   9.458   1.368   9.663  0.2272  0.0888 -0.3659
34262SOL     OW 9643   2.795  12.416   3.762  0.6216 -0.6008  0.3422
34262SOL    HW1 9644   2.774  12.504   3.731  0.4951 -0.8864 -0.4047
34262SOL    HW2 9645   2.733  12.359   3.716 -0.5052 -0.9184  2.1640
34263SOL     OW 9646   6.136   6.736   1.523 -0.3408  0.4103 -0.1039
34263SOL    HW1 9647   6.162   6.815   1.477 -0.8844  1.0393  0.6400
34263SOL    HW2 9648   6.068   6.765   1.584 -1.2099 -0.7969 -0.4758
34264SOL     OW 9649   7.982   1.087  11.073 -0.2106 -0.8226  0.3057
34264SOL    HW1 9650   7.915   1.142  11.032  0.4164 -0.1546  0.1727
34264SOL    HW2 9651   7.932   1.019  11.118 -1.0291  0.1529  0.9220
34265SOL     OW 9652   3.384   5.149  10.803  0.0235  0.0541  0.0678
34265SOL    HW1 9653   3.340   5.208  10.865 -1.2018 -0.0032 -0.7306
34265SOL    HW2 9654   3.438   5.093  10.858 -1.7902 -0.6479  1.1969
34266SOL     OW 9655   1.024   7.778   6.283  0.1349 -0.5776  0.6595
34266SOL    HW1 9656   1.065   7.828   6.212 -1.2528  0.5087  0.5905
34266SOL    HW2 9657   0.972   7.711   6.238  1.4334 -1.6820  0.7397
34267SOL     OW 9658   3.833   3.728   3.052  0.4066  0.2657 -0.5075
34267SOL    HW1 9659   3.800   3.811   3.018 -0.4275  0.3063  0.3704
34267SOL    HW2 9660   3.827   3.737   3.147 -0.2573 -1.0204 -0.4115
34268SOL     OW 9661  10.727   6.458   6.976  0.1085 -0.6254  0.7050
34268SOL    HW1 9662  10.635   6.470   6.954 -0.3960 -0.1829  2.8240
34268SOL    HW2 9663  10.767   6.544   6.963 -0.5364  0.0721  2.8161
34269SOL     OW 9664   2.723   4.983   4.136 -0.2869  0.5138  0.0655
34269SOL    HW1 9665   2.741   4.897   4.099  0.3681  0.6261  0.1001
34269SOL    HW2 9666   2.688   5.034   4.063 -3.3611 -0.5404  0.6600
34270SOL     OW 9667   0.870   5.924   0.169 -0.2889  0.5854 -0.8993
34270SOL    HW1 9668   0.775   5.912   0.168 -0.3287  0.7009  0.2632
34270SOL    HW2 9669   0.900   5.869   0.242  0.1746  2.9316  0.8113
34271SOL     OW 9670   2.310   2.173   8.363  0.3398 -0.4056  0.5101
34271SOL    HW1 9671   2.279   2.093   8.320  0.8438 -0.0378 -0.5743
34271SOL    HW2 9672   2.405   2.161   8.370  0.6184  0.6603 -0.9459
34272SOL     OW 9673   7.743  11.515   3.207 -0.3479 -0.1570 -0.3632
34272SOL    HW1 9674   7.680  11.453   3.171 -1.0867  0.4517 -0.1460
34272SOL    HW2 9675   7.801  11.536   3.133 -1.3723  0.4866 -1.0112
34273SOL     OW 9676  10.470   0.510   2.465  0.1481 -0.4327 -0.0613
34273SOL    HW1 9677  10.501   0.597   2.493  1.3476 -0.4345 -1.2397
34273SOL    HW2 9678  10.542   0.476   2.412 -1.1717 -1.2581 -1.3848
34274SOL     OW 9679   3.358   9.680  10.030  0.0386  0.9661 -0.1626
34274SOL    HW1 9680   3.337   9.594  10.067 -0.1857  0.5404 -1.2483
34274SOL    HW2 9681   3.284   9.735  10.054  0.4706  1.0521  1.0831
34275SOL     OW 9682   3.694   4.913   5.606 -0.0910  0.3426  0.5307
34275SOL    HW1 9683   3.651   4.868   5.679 -0.4518  0.7967  0.6008
34275SOL    HW2 9684   3.728   4.994   5.643  0.5548  0.1370  0.4014
34276SOL     OW 9685  12.251   1.928  11.317 -0.2025  0.0120  0.1515
34276SOL    HW1 9686  12.307   1.853  11.337  0.8201  1.1693  1.9021
34276SOL    HW2 9687  12.299   1.976  11.249 -0.5925 -0.6170 -0.5762
34277SOL     OW 9688  10.407  11.753   3.359  0.2333 -0.2867  0.3570
34277SOL    HW1 9689  10.454  11.760   3.443  0.5273  0.7162  0.1281
34277SOL    HW2 9690  10.335  11.693   3.377  1.5218 -1.7993  0.7457
34278SOL     OW 9691   2.840   3.253   6.572  0.0236 -0.6987  0.7252
34278SOL    HW1 9692   2.911   3.194   6.596  1.2537 -0.3471 -1.6838
34278SOL    HW2 9693   2.878   3.341   6.583 -0.6153 -0.4525  1.0027
34279SOL     OW 9694   6.000   3.834   7.258 -0.2098  0.4516 -0.1594
34279SOL    HW1 9695   6.039   3.921   7.249  1.7362 -0.3837 -0.0544
34279SOL    HW2 9696   5.959   3.818   7.173  1.5555  0.4761 -1.0420
34280SOL     OW 9697  12.566  10.372   1.028 -0.5014  0.0181 -0.0518
34280SOL    HW1 9698  12.479  10.332   1.036 -0.5914  0.5127  2.6871
34280SOL    HW2 9699  12.613  10.338   1.104  1.1937  0.9864 -0.6388
34281SOL     OW 9700   5.020   4.873  11.948 -0.2083  0.1625 -0.6490
34281SOL    HW1 9701   4.975   4.945  11.904  0.8710  2.1109  1.2751
34281SOL    HW2 9702   4.957   4.841  12.013 -1.5855 -2.3341 -3.0184
34282SOL     OW 9703   3.886   9.002   0.078  0.6465 -0.3167 -0.0135
34282SOL    HW1 9704   3.816   9.003   0.143  1.3392  1.4222  0.7629
34282SOL    HW2 9705   3.863   9.071   0.016  0.7458 -0.9905 -0.8265
34283SOL     OW 9706   3.193   5.940   3.784 -0.0045  0.0871  0.4931
34283SOL    HW1 9707   3.252   5.873   3.819  1.3761  2.4327  3.1122
34283SOL    HW2 9708   3.106   5.915   3.815  0.2764 -1.1204  0.3398
34284SOL     OW 9709   8.476   7.817   3.104  0.1296  0.1804  0.2109
34284SOL    HW1 9710   8.471   7.735   3.153  0.9618 -0.8214 -1.3151
34284SOL    HW2 9711   8.440   7.796   3.018  0.3467  1.4364 -0.2073
34285SOL     OW 9712   6.800   3.114   8.268 -0.7000  0.3693 -0.4244
34285SOL    HW1 9713   6.724   3.126   8.325 -0.1290  0.8972  0.2499
34285SOL    HW2 9714   6.841   3.034   8.300 -0.1721  0.8638  0.1711
34286SOL     OW 9715   3.123   6.369   1.849  0.6246  0.0843 -0.3818
34286SOL    HW1 9716   3.173   6.451   1.845  2.8850 -1.0787  1.4096
34286SOL    HW2 9717   3.058   6.385   1.918 -1.6882  1.5993 -2.7089
34287SOL     OW 9718   0.504   4.398   9.975  0.2787  0.2226 -0.0280
34287SOL    HW1 9719   0.467   4.476  10.017  1.6825  0.4353  0.8879
34287SOL    HW2 9720   0.527   4.340  10.047  0.5338 -0.4540 -0.6359
34288SOL     OW 9721   9.050   0.083   8.536 -0.4388  0.3813 -0.4771
34288SOL    HW1 9722   9.098   0.166   8.537  1.6751 -0.7647  0.6739
34288SOL    HW2 9723   9.089   0.034   8.463 -0.0461 -0.4389  0.2668
34289SOL     OW 9724   2.127  10.894   8.888 -0.3297  0.2946  0.3909
34289SOL    HW1 9725   2.120  10.800   8.872 -0.6167  0.5250 -0.9549
34289SOL    HW2 9726   2.139  10.933   8.801  0.4184  1.4566  0.9783
34290SOL     OW 9727   3.878   2.828   3.806 -0.5186  0.0316  0.3264
34290SOL    HW1 9728   3.925   2.757   3.762 -2.0297 -0.0232 -1.3061
34290SOL    HW2 9729   3.845   2.789   3.887 -0.8318 -0.9862 -0.2727
34291SOL     OW 9730   0.202   6.822   2.108  0.4732 -0.4148 -0.4801
34291SOL    HW1 9731   0.217   6.916   2.099  0.6590 -0.4253 -0.2806
34291SOL    HW2 9732   0.111   6.810   2.081  0.1568 -0.0375  0.3884
34292SOL     OW 9733   8.982  12.543  11.908  0.4077 -0.1493 -0.1050
34292SOL    HW1 9734   9.011  12.634  11.916 -0.1054 -0.0328  0.5810
34292SOL    HW2 9735   8.928  12.528  11.986 -0.6320 -0.6292 -0.8958
34293SOL     OW 9736   7.106   4.303   9.155  0.5732 -0.4559  0.4473
34293SOL    HW1 9737   7.136   4.220   9.192  1.4273 -0.0947  0.5856
34293SOL    HW2 9738   7.093   4.360   9.231 -0.9218 -0.7307  0.4298
34294SOL     OW 9739   6.301   7.095   8.733 -0.2574 -0.0321  0.1412
34294SOL    HW1 9740   6.232   7.046   8.688 -0.8818  0.8904  0.0798
34294SOL    HW2 9741   6.269   7.106   8.822 -0.3746  0.7335  0.0120
34295SOL     OW 9742   3.238   7.856  10.847  0.6497 -0.2993  0.1465
34295SOL    HW1 9743   3.167   7.909  10.809 -0.6325 -1.8690  0.2577
34295SOL    HW2 9744   3.316   7.910  10.836 -0.5661  1.5743  0.1533
34296SOL     OW 9745   1.220   9.582  12.434  0.7422  0.0656 -0.6696
34296SOL    HW1 9746   1.296   9.635  12.457  0.8727  0.0564 -1.0782
34296SOL    HW2 9747   1.249   9.530  12.359  1.0659 -1.5669  0.5326
34297SOL     OW 9748   7.450   2.827   5.187  0.0447  0.2479 -0.5425
34297SOL    HW1 9749   7.532   2.876   5.194 -0.4639  0.9478  0.9600
34297SOL    HW2 9750   7.389   2.875   5.242 -0.4494 -2.1463  1.1564
34298SOL     OW 9751   6.328  10.457  10.688  0.2792  0.2899  0.3255
34298SOL    HW1 9752   6.293  10.480  10.774  1.4527 -0.2912  0.9827
34298SOL    HW2 9753   6.325  10.361  10.685  1.4831  0.2286  0.2902
34299SOL     OW 9754   7.634   2.770   6.910  0.2189 -0.2652 -0.1843
34299SOL    HW1 9755   7.625   2.846   6.852 -3.0087 -0.9749 -0.7948
34299SOL    HW2 9756   7.689   2.801   6.982  1.3275  1.7587 -1.7845
34300SOL     OW 9757   7.401   9.005   5.658  0.2861  0.0674  0.6923
34300SOL    HW1 9758   7.448   9.030   5.578  0.5604 -2.0952  0.0956
34300SOL    HW2 9759   7.365   9.087   5.692  0.1128  1.0616 -1.6846
34301SOL     OW 9760   2.840  10.416   0.188 -0.2949 -0.0087  0.3226
34301SOL    HW1 9761   2.877  10.450   0.269 -1.0806  0.9702  0.2868
34301SOL    HW2 9762   2.853  10.322   0.193  0.5014  0.1355  1.1597
34302SOL     OW 9763   4.451   9.814  11.506 -0.3630  0.5205  0.0596
34302SOL    HW1 9764   4.494   9.737  11.542  0.1515  1.0826  0.6930
34302SOL    HW2 9765   4.367   9.818  11.551 -0.7323 -0.1089 -0.5596
34303SOL     OW 9766   9.227  10.245   1.498  0.0526 -0.1238  0.1164
34303SOL    HW1 9767   9.140  10.204   1.500 -0.6329  1.1709 -1.1181
34303SOL    HW2 9768   9.209  10.339   1.504  1.2045  0.2815 -1.9585
34304SOL     OW 9769  10.680   9.736   9.652  0.6059 -0.1341  0.3709
34304SOL    HW1 9770  10.623   9.753   9.727  1.5777  0.5589  0.9757
34304SOL    HW2 9771  10.640   9.660   9.608 -0.5655  0.1089  0.9668
34305SOL     OW 9772   3.461  12.056  10.191  0.4743  0.2704 -0.5857
34305SOL    HW1 9773   3.477  12.113  10.115 -0.9360  1.1515 -0.2719
34305SOL    HW2 9774   3.542  12.007  10.202  1.4387  1.5994 -1.4158
34306SOL     OW 9775   6.600   6.523   4.265  0.1158  0.0724 -0.1416
34306SOL    HW1 9776   6.636   6.444   4.225  0.2684  0.1960 -0.2488
34306SOL    HW2 9777   6.609   6.508   4.359  3.0071  1.2302 -0.1312
34307SOL     OW 9778   7.863   6.004  12.006 -0.2639 -0.3582 -0.1435
34307SOL    HW1 9779   7.912   5.968  12.080  2.5530  0.8236 -1.2776
34307SOL    HW2 9780   7.846   6.095  12.031 -0.0359 -0.1923 -0.5762
34308SOL     OW 9781   6.445   2.748   9.658 -0.7141  0.2985 -0.4187
34308SOL    HW1 9782   6.367   2.707   9.620  1.1812 -1.5505 -2.6313
34308SOL    HW2 9783   6.421   2.840   9.668 -3.0919 -0.1453 -1.2138
34309SOL     OW 9784   0.261   2.423   1.718  0.6089  0.0885 -0.3736
34309SOL    HW1 9785   0.310   2.469   1.649 -0.7471 -0.5525 -1.8224
34309SOL    HW2 9786   0.226   2.346   1.674 -0.8995  0.0300  0.8703
34310SOL     OW 9787   8.039  12.385   1.879 -0.1682  0.6819 -0.2087
34310SOL    HW1 9788   8.069  12.463   1.926  3.1644 -0.9159  0.5426
34310SOL    HW2 9789   8.068  12.399   1.789  3.1331 -0.8273  0.5018
34311SOL     OW 9790  12.351   6.214   2.566 -0.1133  0.3760 -0.3180
34311SOL    HW1 9791  12.333   6.167   2.486  1.7887  0.3555 -0.7884
34311SOL    HW2 9792  12.265   6.240   2.599 -0.9659 -0.1951 -1.9867
34312SOL     OW 9793   9.665   7.839   4.070  0.1803 -0.1525 -0.1216
34312SOL    HW1 9794   9.756   7.814   4.058 -0.2162 -1.8351  0.0326
34312SOL    HW2 9795   9.620   7.756   4.087 -1.2181  0.7456  0.7644
34313SOL     OW 9796   2.249  10.034   5.537 -0.4413 -0.0543 -0.3406
34313SOL    HW1 9797   2.205  10.019   5.621 -0.6003 -1.1743 -0.6081
34313SOL    HW2 9798   2.198   9.984   5.473  0.3813 -0.2066 -0.9022
34314SOL     OW 9799   7.184   9.665   1.731 -0.0270 -0.6543 -0.2255
34314SOL    HW1 9800   7.246   9.709   1.674  1.3245  0.1392  1.7337
34314SOL    HW2 9801   7.143   9.737   1.781 -0.9119 -1.3365  0.0575
34315SOL     OW 9802   2.225  11.441   4.715  0.1532 -0.3011 -0.2401
34315SOL    HW1 9803   2.293  11.406   4.773  0.4619 -0.4131 -0.6573
34315SOL    HW2 9804   2.249  11.533   4.703 -0.6605  0.0762  0.8595
34316SOL     OW 9805   2.441  12.554  12.069  0.0857  0.1086  0.2840
34316SOL    HW1 9806   2.468  12.621  12.006  1.0136  0.7856  1.3556
34316SOL    HW2 9807   2.474  12.472  12.032 -0.3258  0.3475 -0.6313
34317SOL     OW 9808   0.966   6.342   2.249 -0.3071 -0.0607  0.6641
34317SOL    HW1 9809   0.985   6.425   2.293 -0.6580 -0.3252  1.3396
34317SOL    HW2 9810   0.993   6.275   2.312 -0.9991 -0.4463  0.5662
34318SOL     OW 9811  11.161   0.638   2.088 -0.1038 -0.1478  0.3564
34318SOL    HW1 9812  11.162   0.632   1.992  0.3998  1.0399  0.2651
34318SOL    HW2 9813  11.068   0.642   2.111 -0.2230  1.3072 -0.2407
34319SOL     OW 9814  12.210   1.685  11.636 -0.5123  0.1825 -0.0602
34319SOL    HW1 9815  12.120   1.703  11.662 -0.5545  1.7439 -1.2192
34319SOL    HW2 9816  12.259   1.761  11.666  0.7514 -1.2683  1.8682
34320SOL     OW 9817  11.939   7.200   3.003 -0.6808  0.5653 -0.0823
34320SOL    HW1 9818  11.891   7.121   2.980 -1.3070  0.5303  1.2432
34320SOL    HW2 9819  12.002   7.172   3.069 -0.9324  1.1576  0.4269
34321SOL     OW 9820   2.456  11.199   0.425  0.1100 -0.2043 -0.0278
34321SOL    HW1 9821   2.384  11.160   0.474 -0.3095  1.3524  0.6597
34321SOL    HW2 9822   2.422  11.283   0.394  1.7872  0.8534  0.8153
34322SOL     OW 9823   4.282   3.963   1.299  0.0191 -0.2340 -0.1832
34322SOL    HW1 9824   4.286   3.872   1.270  0.1118 -1.6240  3.6759
34322SOL    HW2 9825   4.192   3.989   1.282 -0.6007 -1.7883  0.5530
34323SOL     OW 9826   5.717   6.098   2.020 -0.4201 -0.2731  0.3038
34323SOL    HW1 9827   5.772   6.020   2.010 -1.1292 -0.6004 -1.5813
34323SOL    HW2 9828   5.629   6.063   2.038 -0.7241  0.0664 -0.4775
34324SOL     OW 9829   4.196  10.493   6.461  0.1889 -0.3178  0.1960
34324SOL    HW1 9830   4.115  10.517   6.506  0.2931 -0.4951  0.4839
34324SOL    HW2 9831   4.169  10.430   6.394 -0.0077  0.1806 -0.1897
34325SOL     OW 9832  12.419   3.373   5.918 -0.7834 -0.4475  0.0230
34325SOL    HW1 9833  12.486   3.324   5.966 -1.8772 -1.7254  0.3002
34325SOL    HW2 9834  12.355   3.399   5.985  0.1147  2.0679  0.0243
34326SOL     OW 9835   2.947   0.534   8.886  0.3337 -0.4849 -0.1691
34326SOL    HW1 9836   3.029   0.581   8.874  0.2023 -0.5072 -1.2103
34326SOL    HW2 9837   2.891   0.595   8.934  1.0684 -0.6104  0.9041
34327SOL     OW 9838   9.207   8.344   7.411 -0.0524  0.0803 -0.6945
34327SOL    HW1 9839   9.273   8.373   7.348  1.7736 -1.1091  0.5473
34327SOL    HW2 9840   9.186   8.422   7.463  3.7133 -0.2473  1.6939
34328SOL     OW 9841   6.509   6.541  11.109  0.3014 -0.1996 -0.1357
34328SOL    HW1 9842   6.485   6.502  11.025 -0.0407 -0.2100 -0.0359
34328SOL    HW2 9843   6.567   6.477  11.150  0.9124  0.0447 -0.5946
34329SOL     OW 9844   0.847   8.651  12.568 -0.4805 -0.1073 -0.4215
34329SOL    HW1 9845   0.929   8.622  12.607 -0.9914 -3.6408 -1.6216
34329SOL    HW2 9846   0.779   8.609  12.620 -1.4530  0.6708 -1.0166
34330SOL     OW 9847   1.108  12.318  10.844  0.0106 -0.6000 -0.1269
34330SOL    HW1 9848   1.079  12.389  10.900 -0.4650 -1.8065  1.2097
34330SOL    HW2 9849   1.030  12.292  10.795  0.7701  1.5773 -2.7793
34331SOL     OW 9850   9.355   0.094   2.123  0.1390  0.4849  0.7313
34331SOL    HW1 9851   9.363   0.077   2.217  0.1678  1.3621  0.8952
34331SOL    HW2 9852   9.399   0.020   2.082 -0.2919 -0.1613  1.3929
34332SOL     OW 9853  12.380   8.026   4.894  0.2786  0.2675 -0.1936
34332SOL    HW1 9854  12.450   8.085   4.922 -0.6371  0.7256  1.2395
34332SOL    HW2 9855  12.311   8.038   4.959  0.4225 -3.0869  0.7993
34333SOL     OW 9856   9.938  10.823  10.742 -0.0284 -0.5872  0.7098
34333SOL    HW1 9857   9.979  10.859  10.663 -1.3150  1.1704  0.7814
34333SOL    HW2 9858  10.011  10.805  10.801  0.8818 -0.9917 -0.5029
34334SOL     OW 9859   7.734   7.605  10.477  0.2803  0.2412 -0.0965
34334SOL    HW1 9860   7.654   7.589  10.526  0.6859 -2.5180 -0.1974
34334SOL    HW2 9861   7.803   7.608  10.543  0.6763 -2.3742 -0.2767
34335SOL     OW 9862   0.779   3.385   7.157 -0.3478 -0.1225  0.1345
34335SOL    HW1 9863   0.724   3.386   7.078  1.4147 -1.5327 -1.2096
34335SOL    HW2 9864   0.867   3.406   7.125  0.2659  0.1354  1.8909
34336SOL     OW 9865   4.948   0.841   3.051 -0.2785 -0.1016 -0.1381
34336SOL    HW1 9866   5.041   0.832   3.032 -0.6694 -1.3559 -1.6982
34336SOL    HW2 9867   4.904   0.808   2.972 -2.0510 -0.1434  0.8136
34337SOL     OW 9868   5.708  11.159   0.600  0.6091 -0.0007 -0.0499
34337SOL    HW1 9869   5.632  11.199   0.559 -0.3658 -0.6037  1.1285
34337SOL    HW2 9870   5.727  11.214   0.676 -0.2323 -1.2342  1.1075
34338SOL     OW 9871   5.045   2.196   9.341 -0.1778 -0.0100 -0.2448
34338SOL    HW1 9872   5.063   2.105   9.364  2.3717  0.8418  1.5418
34338SOL    HW2 9873   5.129   2.231   9.313 -1.1703  1.7469 -1.1808
34339SOL     OW 9874   9.009   9.378   9.792  0.3102  0.1470  0.8669
34339SOL    HW1 9875   8.936   9.410   9.844 -0.1098 -0.2725  0.5465
34339SOL    HW2 9876   9.018   9.286   9.817 -1.1688 -0.6441 -1.1419
34340SOL     OW 9877   8.403  11.257   4.165  0.1146  0.7301  0.7742
34340SOL    HW1 9878   8.421  11.183   4.107 -1.2997  0.2551  0.9011
34340SOL    HW2 9879   8.480  11.262   4.222  0.8732  0.2848 -0.1856
34341SOL     OW 9880   5.138   4.883  10.105 -0.8412 -0.5840  0.1187
34341SOL    HW1 9881   5.097   4.804  10.070  0.4729 -2.3153  2.2536
34341SOL    HW2 9882   5.129   4.876  10.200  1.9296  0.2688  0.5532
34342SOL     OW 9883  10.757   6.383   9.998  0.5870 -0.0461  0.2320
34342SOL    HW1 9884  10.852   6.379   9.986  0.5195 -0.4341 -0.1722
34342SOL    HW2 9885  10.735   6.475   9.982  0.6641 -0.2923 -1.4296
34343SOL     OW 9886   0.379   3.342  12.229  0.0537  0.1958  0.2595
34343SOL    HW1 9887   0.296   3.387  12.245 -1.6767 -2.8044  0.2842
34343SOL    HW2 9888   0.399   3.299  12.312 -0.1727 -1.8080 -0.6753
34344SOL     OW 9889   1.049   3.496  10.402 -0.5463 -0.3742 -0.0997
34344SOL    HW1 9890   1.006   3.542  10.474  0.8332 -0.7426  1.0063
34344SOL    HW2 9891   1.110   3.560  10.366 -2.0014  0.1832 -1.7346
34345SOL     OW 9892   5.938   8.969   7.265  0.1611 -0.2296 -0.7293
34345SOL    HW1 9893   5.852   8.954   7.303  0.8701  1.3977  1.7322
34345SOL    HW2 9894   5.997   8.913   7.317  1.0370  1.3507  0.0333
34346SOL     OW 9895   9.149   2.132   2.497 -0.0064  0.1976 -0.0477
34346SOL    HW1 9896   9.155   2.154   2.404 -0.8546  0.2225 -0.1096
34346SOL    HW2 9897   9.059   2.100   2.508 -0.6842  2.3347  1.2163
34347SOL     OW 9898   7.765   1.902   4.719 -0.1699 -0.1108  0.5146
34347SOL    HW1 9899   7.707   1.943   4.654  1.2176  1.8598  0.4375
34347SOL    HW2 9900   7.795   1.974   4.774  0.9653 -1.3096  1.5467
34348SOL     OW 9901   8.800   3.603  10.344 -0.1763  0.3927 -0.4930
34348SOL    HW1 9902   8.827   3.528  10.291 -0.3002 -1.9711  2.5505
34348SOL    HW2 9903   8.869   3.612  10.410 -0.4913  2.6083 -0.3867
34349SOL     OW 9904   1.160  10.692   2.094 -0.4371 -0.1907  0.1745
34349SOL    HW1 9905   1.232  10.744   2.129 -0.4501 -0.6395  0.8686
34349SOL    HW2 9906   1.154  10.617   2.152 -0.7304 -0.7305 -0.5494
34350SOL     OW 9907   7.172   0.230  10.041  0.1378 -0.1811  0.2329
34350SOL    HW1 9908   7.234   0.199   9.974 -1.2718 -0.0380 -1.2181
34350SOL    HW2 9909   7.202   0.319  10.061  0.4795 -0.1460 -0.3762
34351SOL     OW 9910   9.676   1.363   8.517 -0.2340 -0.0731  0.0094
34351SOL    HW1 9911   9.673   1.320   8.431 -0.5975  0.3159 -0.1771
34351SOL    HW2 9912   9.714   1.449   8.499  0.4442 -0.2902  0.3706
34352SOL     OW 9913   2.166   8.849   8.951 -0.3209 -0.0805 -0.1413
34352SOL    HW1 9914   2.228   8.776   8.947 -0.2301 -0.0756  0.7936
34352SOL    HW2 9915   2.173   8.881   9.041 -0.6279  0.8530 -0.4399
34353SOL     OW 9916   9.524   0.733   2.002 -0.1775 -0.3186 -0.5551
34353SOL    HW1 9917   9.499   0.815   1.960  1.5267  1.1115  1.0556
34353SOL    HW2 9918   9.441   0.696   2.035 -1.2294 -0.3303 -2.9943
34354SOL     OW 9919   9.321   3.612   3.286 -0.1460 -0.1442 -0.0995
34354SOL    HW1 9920   9.289   3.531   3.249 -0.4329  0.6484 -1.6441
34354SOL    HW2 9921   9.243   3.662   3.310  0.0209 -0.6873  1.7915
34355SOL     OW 9922  10.508   3.385   1.914 -0.2925 -0.1693 -0.3953
34355SOL    HW1 9923  10.555   3.327   1.974  0.2226  1.0168  0.3947
34355SOL    HW2 9924  10.447   3.328   1.867 -0.1401 -1.2539  0.6862
34356SOL     OW 9925   3.968   4.743   4.072  0.1926  0.2130  0.3619
34356SOL    HW1 9926   3.924   4.714   3.992 -0.0551 -0.1827  0.6376
34356SOL    HW2 9927   3.903   4.729   4.142  0.7583 -0.4262  0.7817
34357SOL     OW 9928   3.884   6.267   1.981  0.1444  0.2935 -0.0102
34357SOL    HW1 9929   3.836   6.345   1.952 -0.9827 -0.4568 -0.2413
34357SOL    HW2 9930   3.865   6.262   2.075  1.2004  0.9513  0.2523
34358SOL     OW 9931   0.285   8.995   3.057 -0.2762  0.1601  0.0384
34358SOL    HW1 9932   0.329   9.077   3.034 -0.2752 -0.0440 -0.7312
34358SOL    HW2 9933   0.237   9.015   3.137 -0.0129  0.8212  0.0393
34359SOL     OW 9934   1.312   5.807   2.663 -0.4648 -0.2700  0.0664
34359SOL    HW1 9935   1.366   5.884   2.643 -0.8785  0.4243  1.4804
34359SOL    HW2 9936   1.254   5.836   2.734 -0.4305 -1.9724  0.8458
34360SOL     OW 9937   5.236   7.110   6.706 -0.4321  0.2693 -0.2751
34360SOL    HW1 9938   5.252   7.118   6.612 -0.6731  0.5949 -0.2917
34360SOL    HW2 9939   5.302   7.167   6.746 -0.0344 -0.2255 -0.2229
34361SOL     OW 9940  11.713   4.631   5.985 -0.1263  0.0607 -0.0561
34361SOL    HW1 9941  11.673   4.704   5.939  1.8588 -0.2145 -2.4212
34361SOL    HW2 9942  11.681   4.553   5.939  0.0275 -0.4044  0.6027
34362SOL     OW 9943   6.128   6.995   0.319 -0.5976  0.8659 -0.1493
34362SOL    HW1 9944   6.115   6.993   0.225  1.1316 -0.2158 -0.4179
34362SOL    HW2 9945   6.127   6.902   0.345  1.1977  0.9773  0.4982
34363SOL     OW 9946   0.734   6.874  10.201  0.1976  0.7855 -0.0916
34363SOL    HW1 9947   0.733   6.779  10.199  1.2632  0.7542  0.3088
34363SOL    HW2 9948   0.696   6.897  10.286 -0.0600  0.7266 -0.1890
34364SOL     OW 9949   8.200   5.460   5.617 -0.5004  0.0911  0.0817
34364SOL    HW1 9950   8.214   5.370   5.646 -0.4956  0.1301  0.1980
34364SOL    HW2 9951   8.224   5.514   5.692 -4.4425  0.0830  1.5857
34365SOL     OW 9952   5.120   3.579   3.158  0.3392  0.5481  0.1245
34365SOL    HW1 9953   5.157   3.494   3.135  1.5689  1.4616 -1.4584
34365SOL    HW2 9954   5.038   3.584   3.110 -0.2835 -0.1559  1.0794
34366SOL     OW 9955   1.497   5.312   1.568  0.1684  0.3737  0.2918
34366SOL    HW1 9956   1.409   5.342   1.545 -0.3250 -0.2905  1.2428
34366SOL    HW2 9957   1.487   5.217   1.577  1.3581  0.0660 -1.2080
34367SOL     OW 9958   2.783   0.066  10.678 -0.1790 -0.1908 -0.1481
34367SOL    HW1 9959   2.865   0.114  10.672 -1.6847  2.6583  0.0835
34367SOL    HW2 9960   2.755   0.055  10.587  1.0911 -2.5565 -0.3321
34368SOL     OW 9961  11.960  11.950   5.858  0.6223 -0.4840  0.3321
34368SOL    HW1 9962  11.925  11.867   5.892  0.8256 -0.1725  1.3564
34368SOL    HW2 9963  12.055  11.942   5.867  0.6608 -0.2652  0.1367
34369SOL     OW 9964   6.057   9.818   4.628  1.0805 -0.1700  0.4070
34369SOL    HW1 9965   5.975   9.768   4.636  1.2369 -0.4784  0.0914
34369SOL    HW2 9966   6.036   9.888   4.567  1.4143 -1.0251 -0.7181
34370SOL     OW 9967   7.649   8.180   8.509  0.5342 -0.0272  0.2365
34370SOL    HW1 9968   7.595   8.104   8.534  0.7530 -0.4896 -0.6234
34370SOL    HW2 9969   7.598   8.222   8.439 -0.2313  1.4261  1.6190
34371SOL     OW 9970   2.702   1.339   0.130 -0.0861  0.3540 -0.0751
34371SOL    HW1 9971   2.640   1.386   0.073  0.7263  1.3916 -0.1413
34371SOL    HW2 9972   2.654   1.324   0.211 -0.3737  1.3478 -0.0423
34372SOL     OW 9973   1.342  10.166  10.279  0.4208  0.9055 -0.3440
34372SOL    HW1 9974   1.250  10.160  10.306  0.5550 -0.3023 -0.1196
34372SOL    HW2 9975   1.342  10.236  10.214 -0.7822  0.5030 -0.8186
34373SOL     OW 9976   0.584   4.482   8.798 -0.2457 -0.0539 -0.5303
34373SOL    HW1 9977   0.571   4.526   8.881 -0.8815 -1.5900  0.2322
34373SOL    HW2 9978   0.527   4.528   8.736 -0.1078  0.8152 -0.0210
34374SOL     OW 9979  10.022   3.288   8.387 -0.2937 -1.0628  0.0757
34374SOL    HW1 9980  10.054   3.293   8.297  0.3686 -1.5023  0.2771
34374SOL    HW2 9981  10.101   3.272   8.439 -0.4220  0.7646  0.9092
34375SOL     OW 9982   4.073  10.233   0.775 -0.0457 -0.0684 -0.4874
34375SOL    HW1 9983   4.065  10.318   0.731 -0.3787 -1.6240 -3.6579
34375SOL    HW2 9984   3.985  10.196   0.773  0.4293 -1.2247 -0.7527
34376SOL     OW 9985   5.485   0.008   8.814  0.0732  0.8626 -0.5353
34376SOL    HW1 9986   5.458  -0.054   8.882  1.7871  1.1791  0.5102
34376SOL    HW2 9987   5.528  -0.047   8.748  1.6028  0.8694  0.3958
34377SOL     OW 9988  11.640   9.913   0.716 -0.2371 -0.2416 -0.0598
34377SOL    HW1 9989  11.568   9.935   0.775  1.3517  1.2821  1.4369
34377SOL    HW2 9990  11.702   9.865   0.771  1.5756  1.7682 -0.2227
34378SOL     OW 9991   7.151   5.496   7.611  0.6063 -0.1646 -0.0455
34378SOL    HW1 9992   7.122   5.407   7.587  0.7085 -0.0682 -0.5340
34378SOL    HW2 9993   7.088   5.523   7.678  0.4982 -0.5590  0.0197
34379SOL     OW 9994  12.029   0.514  11.150 -0.1874  0.3174  0.3202
34379SOL    HW1 9995  12.068   0.498  11.236  0.7260 -0.5207 -0.2246
34379SOL    HW2 9996  11.943   0.551  11.169  0.0984  0.3758  1.5882
34380SOL     OW 9997   9.462   6.111  10.974  0.1107 -0.5199 -0.0143
34380SOL    HW1 9998   9.524   6.043  11.001  0.7632 -0.1150 -0.4453
34380SOL    HW2 9999   9.435   6.153  11.055  1.3374  0.0803  0.1028
34381SOL     OW10000  10.190   0.942   9.891 -0.0893  0.2358 -0.2369
34381SOL    HW110001  10.275   0.982   9.874  0.0589 -0.4660 -1.1767
34381SOL    HW210002  10.157   0.916   9.805  0.1090 -2.2396  0.3632
34382SOL     OW10003   0.335   6.668   1.939 -0.0816  0.1695  0.7780
34382SOL    HW110004   0.297   6.727   2.005 -0.4127  1.7244 -0.7379
34382SOL    HW210005   0.273   6.670   1.867 -0.1769 -2.2319  0.7284
34383SOL     OW10006  10.039   0.709   7.506 -0.1100  0.2704 -0.5327
34383SOL    HW110007  10.097   0.783   7.490 -1.3968  1.1240 -1.3919
34383SOL    HW210008  10.031   0.704   7.601 -0.9764  2.0167 -0.4900
34384SOL     OW10009   9.869   6.100   0.049 -0.1434 -0.3488  0.3922
34384SOL    HW110010   9.962   6.078   0.047  0.2893  1.4030 -0.9526
34384SOL    HW210011   9.827   6.021   0.083  1.7628 -1.3690  0.5380
34385SOL     OW10012   9.666  11.461   2.621 -0.0393 -0.0508  0.7558
34385SOL    HW110013   9.658  11.450   2.527  1.1193  0.8351  0.5272
34385SOL    HW210014   9.576  11.462   2.653 -0.4444 -0.4087 -0.3301
34386SOL     OW10015  12.071  10.317   7.814 -0.8145 -0.0910  0.2656
34386SOL    HW110016  12.128  10.338   7.888  1.2014  1.0854 -1.5029
34386SOL    HW210017  12.098  10.229   7.787  0.3797  0.5072 -0.6411
34387SOL     OW10018   4.547   4.123  12.206  0.1576 -0.0885 -0.0889
34387SOL    HW110019   4.606   4.077  12.266  1.9424 -0.4070 -1.9810
34387SOL    HW210020   4.493   4.054  12.167 -0.8649  0.0976  0.9280
34388SOL     OW10021   4.272  11.320   5.270  0.0408  0.1391 -0.3044
34388SOL    HW110022   4.209  11.323   5.198 -0.0516  0.7968 -0.2040
34388SOL    HW210023   4.264  11.405   5.312  1.9324  0.7770 -1.0867
34389SOL     OW10024   2.897  11.064  12.391 -0.0988 -0.1640  0.1932
34389SOL    HW110025   2.813  11.047  12.349  0.1343 -1.1173  0.1112
34389SOL    HW210026   2.946  10.982  12.384  0.8685  0.3955  0.1851
34390SOL     OW10027   5.533   8.737   2.881 -0.2147  0.5651 -0.3905
34390SOL    HW110028   5.547   8.817   2.931 -0.1814  1.6130 -2.0221
34390SOL    HW210029   5.453   8.752   2.831 -0.7296 -0.7993 -0.0380
34391SOL     OW10030   0.895   2.221   5.569 -0.1445  0.2368  0.4821
34391SOL    HW110031   0.923   2.296   5.516  0.7331  0.7078  1.5490
34391SOL    HW210032   0.800   2.224   5.567 -0.1736  2.3871  1.7837
34392SOL     OW10033   8.755   7.477   9.504  0.5846 -0.4151  0.0859
34392SOL    HW110034   8.765   7.570   9.486  0.9983 -0.9821 -3.4618
34392SOL    HW210035   8.669   7.454   9.468  0.6963 -1.4858  0.4471
34393SOL     OW10036   7.994   8.080   4.662 -0.9985  0.4637  0.0988
34393SOL    HW110037   8.033   8.122   4.585  0.0137  0.3847  0.5586
34393SOL    HW210038   7.902   8.067   4.637 -0.4932 -0.4133 -1.4722
34394SOL     OW10039   3.902   3.982  10.132  0.0121 -0.5603 -0.0277
34394SOL    HW110040   3.927   3.998  10.223  0.7027  0.5179 -0.3893
34394SOL    HW210041   3.836   3.913  10.137  0.9879 -1.4522  1.1816
34395SOL     OW10042  12.283   7.947   3.749  0.4669 -0.1146  0.1648
34395SOL    HW110043  12.234   7.865   3.742 -0.5671  0.5874 -1.5856
34395SOL    HW210044  12.360   7.933   3.695  1.1879 -0.5070  1.2672
34396SOL     OW10045   9.197  12.226   0.809 -0.0071 -0.2289  0.2680
34396SOL    HW110046   9.133  12.285   0.770  1.3492 -0.2758 -2.2440
34396SOL    HW210047   9.280  12.247   0.765  1.4195 -1.1584  2.3313
34397SOL     OW10048   7.789  11.718   6.135  0.0659  0.5276 -0.0692
34397SOL    HW110049   7.735  11.765   6.199  1.4718  0.8696  0.9045
34397SOL    HW210050   7.730  11.653   6.098 -0.1179 -1.8920  3.8429
34398SOL     OW10051   0.294   3.267   6.370  0.3987  0.2336 -0.2179
34398SOL    HW110052   0.342   3.349   6.380  0.5029 -0.0489  2.4243
34398SOL    HW210053   0.320   3.234   6.284  0.5440  2.8068 -1.2331
34399SOL     OW10054   7.603   2.498   9.040 -0.3966 -1.0430 -0.3609
34399SOL    HW110055   7.621   2.416   9.086  0.6993 -1.5471 -1.6531
34399SOL    HW210056   7.619   2.566   9.106 -1.9794 -1.8503  0.9289
34400SOL     OW10057   0.234  10.095   7.647 -0.8342  0.1329 -0.0955
34400SOL    HW110058   0.281  10.017   7.619 -0.7299 -0.0874  0.6905
34400SOL    HW210059   0.154  10.061   7.688 -3.0025  0.5124 -3.5895
34401SOL     OW10060   8.117   8.689   6.864  0.2908  0.0749  0.7987
34401SOL    HW110061   8.036   8.704   6.814 -0.2613 -0.1432  1.6136
34401SOL    HW210062   8.087   8.674   6.953  1.2675  0.3934  1.1885
34402SOL     OW10063   4.032   6.117   4.101  0.4104  0.4729 -0.4014
34402SOL    HW110064   4.086   6.039   4.096 -0.6641 -0.2430 -1.1926
34402SOL    HW210065   4.012   6.127   4.194 -0.2842 -0.8054 -0.3944
34403SOL     OW10066  10.986   9.787   8.296  0.2617 -0.2336 -0.0602
34403SOL    HW110067  10.949   9.775   8.208  0.4461  0.0520 -0.1776
34403SOL    HW210068  10.918   9.836   8.343 -0.1924 -1.1047  0.2091
34404SOL     OW10069   7.263  10.189   5.750  0.3000  0.2411  0.3979
34404SOL    HW110070   7.310  10.239   5.684 -0.5356  0.7963  0.1977
34404SOL    HW210071   7.273  10.098   5.725 -0.9027  0.4957 -1.1236
34405SOL     OW10072   1.892   0.721   0.920 -0.4998 -0.1413  0.2540
34405SOL    HW110073   1.967   0.766   0.958 -0.3185  0.3249 -0.6225
34405SOL    HW210074   1.925   0.633   0.899 -0.8781 -0.7483  2.0390
34406SOL     OW10075   1.369   4.697  12.096 -0.2583 -0.1625 -0.4210
34406SOL    HW110076   1.404   4.786  12.107 -0.1374 -0.1456 -0.9105
34406SOL    HW210077   1.445   4.640  12.104 -0.5248 -0.3442  1.2856
34407SOL     OW10078   8.180   6.557  10.238 -0.0521  0.6674  0.6325
34407SOL    HW110079   8.268   6.591  10.222  0.7827 -1.6683 -0.1338
34407SOL    HW210080   8.137   6.560  10.153 -0.0157 -0.0566  0.5872
34408SOL     OW10081  10.133   4.119   7.787 -0.1562  0.0819 -0.1223
34408SOL    HW110082  10.214   4.160   7.759  0.3514 -0.5796  0.3273
34408SOL    HW210083  10.069   4.190   7.789 -0.0956  0.2617 -2.3558
34409SOL     OW10084  11.981   6.915   5.463 -0.3809  0.4487  0.1349
34409SOL    HW110085  11.930   6.838   5.441  0.5530 -0.1640  0.0737
34409SOL    HW210086  12.006   6.903   5.554  1.6095 -0.4277 -0.4693
34410SOL     OW10087   9.814   0.337   8.868  0.2194 -0.2188 -0.0307
34410SOL    HW110088   9.856   0.357   8.951  0.2433  3.0280 -0.6967
34410SOL    HW210089   9.761   0.259   8.886  1.7921 -0.8430  2.4180
34411SOL     OW10090   5.873  10.962   0.291  0.2328  0.1805  0.1075
34411SOL    HW110091   5.900  11.039   0.241  0.6347  0.4418  0.7226
34411SOL    HW210092   5.856  10.896   0.224  0.8384  0.5049 -0.3796
34412SOL     OW10093   4.527   9.528   3.911 -0.1363 -0.2075  0.0654
34412SOL    HW110094   4.589   9.462   3.942 -0.5357  0.7153  3.2889
34412SOL    HW210095   4.443   9.482   3.904 -0.1102 -0.4101  0.8791
34413SOL     OW10096   4.755   4.575   4.147  0.3280 -0.7432  0.0840
34413SOL    HW110097   4.661   4.585   4.130  0.4875  1.8611  0.3413
34413SOL    HW210098   4.767   4.480   4.156 -2.0673 -1.2474 -1.0080
34414SOL     OW10099   6.510   3.314  11.597  0.4661  0.4831  0.0514
34414SOL    HW110100   6.518   3.281  11.686  0.4820 -0.0715 -0.1526
34414SOL    HW210101   6.566   3.257  11.545  0.3682  0.7337 -0.3353
34415SOL     OW10102  10.534  11.267   0.885  0.3157  0.0624 -0.1935
34415SOL    HW110103  10.563  11.326   0.816  0.4700  0.5842  0.3086
34415SOL    HW210104  10.445  11.295   0.906  1.3487  2.0215  2.0057
34416SOL     OW10105  11.435  10.787   3.796  0.2152 -0.1237  0.4509
34416SOL    HW110106  11.391  10.859   3.751  0.7924  0.1824  0.3700
34416SOL    HW210107  11.365  10.725   3.815  0.0554 -0.6541 -1.5915
34417SOL     OW10108  10.587   3.947   3.649 -0.0422 -0.3597  0.1912
34417SOL    HW110109  10.532   4.000   3.592 -1.4068 -0.4928  1.3110
34417SOL    HW210110  10.563   3.975   3.738  2.6261  0.4524  0.7356
34418SOL     OW10111   9.846   9.277   6.110 -0.1018  0.3757 -0.2733
34418SOL    HW110112   9.870   9.369   6.095  2.0785  0.0650  0.8923
34418SOL    HW210113   9.780   9.258   6.043 -1.1904  2.9905 -0.0624
34419SOL     OW10114   9.593   0.217   9.535 -0.1582  0.0637 -0.1140
34419SOL    HW110115   9.677   0.260   9.521  0.2153 -0.8542 -0.7857
34419SOL    HW210116   9.615   0.132   9.574 -0.8252  0.1316  0.4296
34420SOL     OW10117  11.340   0.481   2.271 -0.0007 -0.4596 -0.1434
34420SOL    HW110118  11.354   0.407   2.330  1.7105  0.1275  0.2328
34420SOL    HW210119  11.259   0.459   2.224  0.1800 -2.2950  0.3300
34421SOL     OW10120   1.828   0.537   4.612 -0.1169  0.3371 -0.1716
34421SOL    HW110121   1.804   0.608   4.552  0.1503  1.3859  0.9129
34421SOL    HW210122   1.745   0.496   4.636 -0.2374  0.0186 -1.1066
34422SOL     OW10123   0.086   8.690   4.754 -0.2995  0.0656 -0.0152
34422SOL    HW110124   0.037   8.691   4.836  0.3240 -0.3124  0.3726
34422SOL    HW210125   0.107   8.782   4.737  2.9459 -0.0411  2.3497
34423SOL     OW10126  10.492  10.570   6.491  0.2599 -0.3155  0.5225
34423SOL    HW110127  10.504  10.620   6.572 -1.4067  0.5532  0.2699
34423SOL    HW210128  10.397  10.572   6.476  0.4493 -1.3040 -0.9320
34424SOL     OW10129   1.762  12.082  11.022 -0.4493  0.1150 -0.4039
34424SOL    HW110130   1.772  12.176  11.012 -0.0530 -0.0028 -1.1877
34424SOL    HW210131   1.709  12.055  10.947 -0.3953 -0.3113 -0.2928
34425SOL     OW10132  12.559  10.051   7.162 -0.1085 -0.2218  0.3331
34425SOL    HW110133  12.529  10.116   7.225  0.0959  1.8459 -1.5767
34425SOL    HW210134  12.482  10.035   7.107  0.6513  0.8116 -1.0985
34426SOL     OW10135   7.176   9.790  11.811  0.0509 -0.3203 -0.2927
34426SOL    HW110136   7.149   9.848  11.882  2.4786  1.4784 -0.7120
34426SOL    HW210137   7.120   9.814  11.737 -0.5720 -0.2035  0.2135
34427SOL     OW10138   6.179   2.004   7.616  0.0645 -0.2194 -0.3896
34427SOL    HW110139   6.240   2.068   7.579 -0.2031 -0.9903 -2.3015
34427SOL    HW210140   6.227   1.921   7.614 -0.0552 -0.3318  0.8129
34428SOL     OW10141   5.827   7.783   2.184 -0.1310  0.3914 -0.0665
34428SOL    HW110142   5.878   7.800   2.105  0.6816 -0.7539  0.1760
34428SOL    HW210143   5.797   7.869   2.212 -0.8091  0.7779 -1.8509
34429SOL     OW10144   0.728   3.335   4.747  0.0671 -0.5451  0.1270
34429SOL    HW110145   0.696   3.366   4.831  0.2561 -0.5702  0.2068
34429SOL    HW210146   0.673   3.259   4.727 -0.7030  0.0994 -0.2822
34430SOL     OW10147   5.755   4.151   2.972  0.1642 -0.1457  0.1019
34430SOL    HW110148   5.744   4.136   2.879  0.3678  1.3491 -0.1822
34430SOL    HW210149   5.839   4.111   2.994  0.3327 -0.0913 -0.4499
34431SOL     OW10150   9.840   8.785   7.742  0.2935 -0.0350 -0.1735
34431SOL    HW110151   9.753   8.791   7.781  0.4470 -1.7148  0.4881
34431SOL    HW210152   9.893   8.847   7.793 -0.2297  0.1109  0.1982
34432SOL     OW10153  10.680   7.487   1.191 -0.2829 -0.5630  0.3945
34432SOL    HW110154  10.758   7.501   1.137 -1.4664 -2.4422 -1.9935
34432SOL    HW210155  10.673   7.392   1.198 -2.3252 -0.4308  0.6233
34433SOL     OW10156   7.894   0.063   7.383  0.4925  0.7426  0.8155
34433SOL    HW110157   7.921   0.134   7.326 -1.6109  0.3333 -0.8287
34433SOL    HW210158   7.829   0.014   7.332  0.0552 -0.9092  2.7895
34434SOL     OW10159   6.866   1.485   9.092  0.3909 -0.5273  0.4344
34434SOL    HW110160   6.870   1.492   9.187  1.4972  0.7642  0.3195
34434SOL    HW210161   6.956   1.470   9.065  0.6091  2.0497 -0.5776
34435SOL     OW10162   8.634  10.136   5.847  0.1594 -0.6309  0.1276
34435SOL    HW110163   8.626  10.041   5.856  0.2747 -0.6438  0.0996
34435SOL    HW210164   8.610  10.171   5.932  1.1121 -0.7394  0.4485
34436SOL     OW10165  11.876   5.448   3.132 -0.1685 -0.3690 -0.0173
34436SOL    HW110166  11.882   5.375   3.071 -0.4096 -0.1560 -0.3024
34436SOL    HW210167  11.798   5.428   3.184  0.8640 -1.2897  1.2176
34437SOL     OW10168   8.840   6.947   2.781 -0.0828 -0.2128  0.0390
34437SOL    HW110169   8.812   6.891   2.853 -2.8333  0.4780 -0.3944
34437SOL    HW210170   8.882   6.888   2.718  0.6757 -1.1019  1.3395
34438SOL     OW10171   4.101   5.907   0.305 -0.3827  0.6008 -0.0333
34438SOL    HW110172   4.135   5.821   0.280  1.0592  0.4404  2.1986
34438SOL    HW210173   4.008   5.893   0.320  0.0250 -0.8780  1.3475
34439SOL     OW10174   2.372   8.436  10.703 -0.0231 -0.3041 -0.0487
34439SOL    HW110175   2.444   8.422  10.642 -0.5217 -1.9019 -0.3096
34439SOL    HW210176   2.293   8.416  10.653 -0.6058  0.4663  0.5148
34440SOL     OW10177   6.885   2.273   7.159  0.2501  0.1759 -0.0993
34440SOL    HW110178   6.793   2.255   7.141 -0.3168  1.0941  1.5839
34440SOL    HW210179   6.891   2.274   7.255  1.7369  1.3446 -0.1536
34441SOL     OW10180  11.810   3.973   4.934  0.2135  0.5783  0.1917
34441SOL    HW110181  11.905   3.978   4.924  0.1771 -0.2459 -0.7094
34441SOL    HW210182  11.792   3.880   4.942 -0.4849  0.7635  0.9395
34442SOL     OW10183   9.336   5.094   9.037 -0.4147  0.1423 -0.3841
34442SOL    HW110184   9.270   5.142   8.987 -1.3051 -0.1376  0.4889
34442SOL    HW210185   9.370   5.158   9.099 -0.8832 -0.0705  0.1041
34443SOL     OW10186  12.316  10.234   0.952  0.2842 -0.1459 -0.1687
34443SOL    HW110187  12.244  10.278   0.997  2.0498  1.9932  0.7610
34443SOL    HW210188  12.325  10.281   0.869  0.6942 -0.3172 -0.2242
34444SOL     OW10189   2.440   6.049  12.421 -0.4588  0.4448  0.0995
34444SOL    HW110190   2.421   5.973  12.475 -4.0779  1.0133 -0.1183
34444SOL    HW210191   2.432   6.123  12.482 -0.2701  0.8356 -0.3505
34445SOL     OW10192   4.557   3.358   6.211  0.1731 -0.0486  0.3353
34445SOL    HW110193   4.576   3.389   6.122  0.2508 -0.1252  0.3248
34445SOL    HW210194   4.461   3.354   6.215  0.1669  0.0345  0.2824
34446SOL     OW10195  11.233  12.466   3.552  0.2935  0.9011  0.0029
34446SOL    HW110196  11.302  12.519   3.512  1.6334 -0.7786  0.0033
34446SOL    HW210197  11.221  12.503   3.639  2.5657  0.0619  0.7208
34447SOL     OW10198   3.524   8.674  12.441  0.0721 -0.0969 -0.1132
34447SOL    HW110199   3.526   8.612  12.368 -0.0549  1.7158 -1.7457
34447SOL    HW210200   3.435   8.709  12.440  0.6517  1.4370 -0.4343
34448SOL     OW10201   1.270   7.166   6.023 -0.4111 -0.4165  0.0911
34448SOL    HW110202   1.270   7.191   5.931  0.6365  1.8632  0.6351
34448SOL    HW210203   1.299   7.075   6.024  1.9814  0.2485 -1.6865
34449SOL     OW10204  11.351   8.385   0.166  0.6258  0.5889  0.0971
34449SOL    HW110205  11.413   8.313   0.149 -0.0838 -0.1605  0.5852
34449SOL    HW210206  11.407   8.462   0.178  1.4767 -0.0624  0.4839
34450SOL     OW10207   6.169   5.972   2.704 -0.0768  0.1636 -0.0891
34450SOL    HW110208   6.253   5.993   2.744  0.4929  1.4807 -1.8190
34450SOL    HW210209   6.125   6.056   2.693 -1.0420 -0.3598 -0.4233
34451SOL     OW10210  11.883   3.537   0.487  0.1511  0.4709 -0.2455
34451SOL    HW110211  11.869   3.463   0.428 -1.1728  1.1222 -0.7814
34451SOL    HW210212  11.931   3.601   0.435  1.2520  0.0395  0.2029
34452SOL     OW10213  11.034   8.350   3.613  0.0690  0.1824 -0.5555
34452SOL    HW110214  11.071   8.367   3.700 -1.4156  1.5428 -0.1401
34452SOL    HW210215  11.103   8.303   3.567 -0.1220 -3.2515  2.2562
34453SOL     OW10216   3.348   1.380   9.088  0.5002  0.3920  0.3510
34453SOL    HW110217   3.401   1.453   9.055 -0.5869  1.1017  0.1219
34453SOL    HW210218   3.258   1.411   9.082  0.0291 -0.8885  0.4945
34454SOL     OW10219   3.873   2.060  11.075  0.1296 -0.5692 -0.2497
34454SOL    HW110220   3.902   2.151  11.071  1.9241 -1.0733  0.2967
34454SOL    HW210221   3.781   2.065  11.100 -0.1493  1.1177 -1.4639
34455SOL     OW10222   8.572   8.625   3.515  0.0966  0.2453  0.0194
34455SOL    HW110223   8.601   8.671   3.594  1.5427 -0.5639 -0.0076
34455SOL    HW210224   8.600   8.682   3.443  2.1397 -0.6995 -0.0267
34456SOL     OW10225   0.397   3.488  11.950  0.3599  0.2667 -0.0263
34456SOL    HW110226   0.420   3.446  12.033 -0.4415 -1.3165 -0.5487
34456SOL    HW210227   0.480   3.514  11.912  0.7522  0.8188  1.1699
34457SOL     OW10228   8.011   8.818   1.847  0.0915 -0.5448  0.6031
34457SOL    HW110229   8.049   8.901   1.820  1.4447 -1.4661 -0.4042
34457SOL    HW210230   7.917   8.828   1.828  0.2594  0.6480  0.3030
34458SOL     OW10231   4.040   7.307   0.579 -0.4685  0.0464  0.2110
34458SOL    HW110232   4.017   7.270   0.664 -0.6572  0.5148  0.3661
34458SOL    HW210233   3.957   7.342   0.545 -0.3521  0.0480 -0.0739
34459SOL     OW10234   6.943   5.464  11.285  0.5688  0.4457  0.1447
34459SOL    HW110235   6.906   5.463  11.373  2.7437  0.6667  1.1116
34459SOL    HW210236   6.984   5.550  11.277  0.3064  0.4739 -1.1502
34460SOL     OW10237   9.431   4.777   6.134 -0.2839 -1.1135  0.6734
34460SOL    HW110238   9.510   4.826   6.110 -0.6829 -0.4538  0.6684
34460SOL    HW210239   9.360   4.838   6.117 -0.8547 -1.9576 -0.0015
34461SOL     OW10240   3.784   0.509   6.624 -0.0576 -0.1646  0.6646
34461SOL    HW110241   3.804   0.431   6.677 -1.7392 -0.8941  0.2876
34461SOL    HW210242   3.692   0.499   6.602  0.0828  1.2170 -0.6353
34462SOL     OW10243   7.938  12.162  11.096 -0.5763  0.4848  0.0408
34462SOL    HW110244   7.882  12.093  11.059 -1.1217  0.4253  0.9475
34462SOL    HW210245   7.972  12.124  11.177  1.6871  0.0996 -0.9934
34463SOL     OW10246  10.961  10.654   2.944 -0.7216  0.3651 -0.2159
34463SOL    HW110247  10.965  10.627   3.036 -1.0705  3.0141  0.6623
34463SOL    HW210248  10.899  10.727   2.943  1.1384  2.0319 -2.0906
34464SOL     OW10249  11.882   2.182   1.928 -0.2155  0.8405  0.0559
34464SOL    HW110250  11.847   2.102   1.890 -2.3330  0.9567  1.6070
34464SOL    HW210251  11.831   2.253   1.888  1.8519  1.5323 -1.5474
34465SOL     OW10252   4.019   4.461   5.315  0.2856  0.1775  0.1560
34465SOL    HW110253   4.070   4.420   5.385  0.5315 -1.5448 -0.9791
34465SOL    HW210254   3.928   4.440   5.335  0.1536  1.4621  1.0408
34466SOL     OW10255   3.749   5.332  11.146  0.5072  0.0871 -0.4776
34466SOL    HW110256   3.828   5.367  11.186 -0.0671  0.1843  0.5989
34466SOL    HW210257   3.780   5.287  11.068  1.4111  1.9300 -1.2619
34467SOL     OW10258   4.771  11.107   9.759 -0.5444 -0.3127  0.1353
34467SOL    HW110259   4.773  11.043   9.688  0.7543  0.3293 -0.4358
34467SOL    HW210260   4.824  11.068   9.829 -0.9903 -0.5054  0.3687
34468SOL     OW10261   0.137   0.152   0.931  0.2318  0.1814  0.2715
34468SOL    HW110262   0.054   0.106   0.943  0.7926 -0.8496  0.3112
34468SOL    HW210263   0.194   0.088   0.887  1.2457  0.5911  0.9477
34469SOL     OW10264   1.393   0.102   0.273 -0.2879 -0.3956 -0.2435
34469SOL    HW110265   1.390   0.169   0.342  0.8041 -1.2881  0.7081
34469SOL    HW210266   1.348   0.143   0.199 -0.3894  1.0796  0.5805
34470SOL     OW10267   2.618   3.521   6.124  0.0808  0.1659 -0.2303
34470SOL    HW110268   2.690   3.531   6.062  1.1823 -2.3629  0.5444
34470SOL    HW210269   2.648   3.454   6.186 -2.6793 -0.5216  0.4885
34471SOL     OW10270  10.965   7.308   3.074 -0.4212  0.3826 -0.2701
34471SOL    HW110271  10.906   7.367   3.026  1.5169  1.9586 -0.8310
34471SOL    HW210272  10.907   7.257   3.130 -2.3517  1.6033 -1.0496
34472SOL     OW10273   9.861   2.583   0.275  0.0522  0.0888  0.2663
34472SOL    HW110274   9.856   2.500   0.323 -0.9135  0.6936  1.2758
34472SOL    HW210275   9.953   2.609   0.281  0.1469 -0.3701  0.8914
34473SOL     OW10276  10.534  10.352   4.138 -0.0868 -1.1338 -0.1564
34473SOL    HW110277  10.566  10.275   4.092  1.8742 -0.5370  0.1053
34473SOL    HW210278  10.516  10.322   4.227  0.1879 -1.3947 -0.1901
34474SOL     OW10279   3.028   4.774   5.626 -0.9310 -0.6038  0.5941
34474SOL    HW110280   3.048   4.847   5.568  0.2068 -1.2599  0.1193
34474SOL    HW210281   2.941   4.744   5.598 -0.4300 -0.8659 -0.7355
34475SOL     OW10282   4.406   6.347   4.512  0.0761  0.0125  0.1061
34475SOL    HW110283   4.492   6.370   4.547  0.5356 -1.9252  0.4039
34475SOL    HW210284   4.424   6.307   4.427 -0.3981 -1.2802  0.5759
34476SOL     OW10285   5.398   3.437   0.458  0.0871 -0.3115 -0.3829
34476SOL    HW110286   5.376   3.350   0.424 -0.2230  0.0383 -1.0819
34476SOL    HW210287   5.471   3.421   0.518  0.0105 -1.0570 -0.4761
34477SOL     OW10288   1.288   8.640   7.785 -0.1198  0.1819 -0.1574
34477SOL    HW110289   1.218   8.674   7.731  0.8672  0.7666 -1.1048
34477SOL    HW210290   1.263   8.549   7.803 -0.2725 -0.1727 -1.9783
34478SOL     OW10291   6.306   0.566   2.277  0.3170  0.2392  0.6583
34478SOL    HW110292   6.237   0.562   2.211 -0.1032  0.2402  1.0942
34478SOL    HW210293   6.387   0.551   2.228  0.2549  2.3926 -0.2520
34479SOL     OW10294  11.419   1.368   1.680  0.0278 -0.3760 -0.1111
34479SOL    HW110295  11.467   1.415   1.748 -1.3897 -0.9977  1.3688
34479SOL    HW210296  11.429   1.276   1.702  0.2577 -0.6450 -1.2542
34480SOL     OW10297   7.855   0.317  10.757 -0.5587 -0.6783  0.5661
34480SOL    HW110298   7.866   0.296  10.664 -1.6976  0.5511  0.1270
34480SOL    HW210299   7.944   0.311  10.793 -0.0308 -0.7232 -0.6948
34481SOL     OW10300   9.139   2.396   2.933 -0.1544 -0.1401 -0.7155
34481SOL    HW110301   9.055   2.397   2.980 -1.2101 -0.6389 -2.5109
34481SOL    HW210302   9.163   2.304   2.929  0.2759 -0.0347 -0.5849
34482SOL     OW10303   9.145  11.428  11.895  0.3959 -0.1212 -0.1714
34482SOL    HW110304   9.134  11.453  11.803  1.1736 -0.7213 -0.4458
34482SOL    HW210305   9.083  11.355  11.907  1.5783 -1.2695 -0.7618
34483SOL     OW10306   1.192   1.623   4.041 -0.5648 -0.8608 -0.3417
34483SOL    HW110307   1.243   1.629   3.960  0.7369  0.8625  0.5360
34483SOL    HW210308   1.233   1.551   4.090  0.8382  0.2784  0.2004
34484SOL     OW10309   3.942   2.315   0.269 -0.7089  0.4296 -0.1420
34484SOL    HW110310   3.932   2.265   0.350 -1.2341  0.7771  0.0162
34484SOL    HW210311   4.036   2.334   0.264 -0.3983 -1.0997 -0.5360
34485SOL     OW10312   4.437  12.178   3.618 -0.1314  0.0284 -0.1303
34485SOL    HW110313   4.507  12.244   3.614  0.6628 -0.7654  0.3700
34485SOL    HW210314   4.372  12.209   3.555 -0.1083  1.6698  0.5940
34486SOL     OW10315   6.498   1.977   6.276 -0.1759 -0.3402  0.2422
34486SOL    HW110316   6.426   2.003   6.219  0.5534  1.6353  0.1527
34486SOL    HW210317   6.536   2.059   6.305  2.5864 -1.2961 -0.3962
34487SOL     OW10318   7.358  12.499  11.451  0.8937  0.1864  0.1552
34487SOL    HW110319   7.412  12.446  11.510 -0.4238 -0.5547  0.7424
34487SOL    HW210320   7.268  12.482  11.479  0.2400  0.1552 -1.7885
34488SOL     OW10321  10.499   3.962   3.939  0.0873 -0.1106 -0.2748
34488SOL    HW110322  10.419   3.919   3.908  0.5654  1.2599 -3.8645
34488SOL    HW210323  10.467   4.038   3.988 -0.7753 -0.7136  0.1238
34489SOL     OW10324   1.439   6.627   5.353 -0.4558  0.8676 -0.5462
34489SOL    HW110325   1.417   6.706   5.303  0.9649  1.1275 -0.7988
34489SOL    HW210326   1.468   6.660   5.438 -0.3077  0.5855 -0.4873
34490SOL     OW10327   9.006   5.916   5.986 -0.4526  0.5404  0.2101
34490SOL    HW110328   9.034   5.885   5.900 -0.8723  0.6143  0.0474
34490SOL    HW210329   9.082   5.902   6.042 -0.8358 -1.3916  0.2964
34491SOL     OW10330   9.052   8.488   4.024  0.2518  0.3189  0.6351
34491SOL    HW110331   9.083   8.406   3.986 -0.0071  1.0932 -1.4060
34491SOL    HW210332   8.957   8.487   4.010  0.4427  1.7085 -1.1137
34492SOL     OW10333   2.952   0.920   6.450 -0.2618  0.1340 -0.6872
34492SOL    HW110334   2.941   1.012   6.425 -0.6200  0.8264  1.7356
34492SOL    HW210335   2.865   0.892   6.479  0.4926  0.1617  1.8623
34493SOL     OW10336   8.894   2.244   6.570 -0.0861 -0.3125 -0.1434
34493SOL    HW110337   8.917   2.300   6.644  0.1656  2.1579 -1.9365
34493SOL    HW210338   8.962   2.177   6.567  1.5587  1.2766  0.1848
34494SOL     OW10339   3.930   8.659   7.210  0.0312 -0.6213  0.7100
34494SOL    HW110340   3.881   8.717   7.151 -1.3159 -0.6220  1.7816
34494SOL    HW210341   3.953   8.584   7.156  1.1018  0.5065 -0.4863
34495SOL     OW10342   3.638   1.721   7.656 -0.1497  0.8042 -0.4361
34495SOL    HW110343   3.604   1.795   7.606  0.9570  0.6033 -1.5513
34495SOL    HW210344   3.657   1.756   7.743 -1.9674  1.2049 -0.1625
34496SOL     OW10345   5.978   0.106   8.518  0.4509  0.1093 -0.4840
34496SOL    HW110346   5.891   0.129   8.486  0.2843  2.4053  1.3093
34496SOL    HW210347   6.000   0.176   8.580  1.8040 -2.6011  2.3580
34497SOL     OW10348   8.585  11.290  12.286  0.0715 -0.1539  0.3174
34497SOL    HW110349   8.641  11.293  12.208 -0.9714  0.7946 -0.4286
34497SOL    HW210350   8.639  11.328  12.356  0.8909 -0.6790 -0.0181
34498SOL     OW10351   6.278   3.107   7.694 -0.1806  0.6695 -0.2254
34498SOL    HW110352   6.275   3.202   7.696  1.4331  0.7472  1.4968
34498SOL    HW210353   6.214   3.079   7.760 -0.0559  0.5947 -0.1346
34499SOL     OW10354  11.226   1.119   3.826  0.0045  0.4626 -0.0656
34499SOL    HW110355  11.293   1.183   3.800 -1.5175  1.5636 -1.5005
34499SOL    HW210356  11.171   1.109   3.749 -1.4122 -0.5255  1.0117
34500SOL     OW10357   6.144   8.069   6.458  0.0862  0.0840  0.1541
34500SOL    HW110358   6.051   8.075   6.435  0.4123  0.2327 -1.2239
34500SOL    HW210359   6.164   8.152   6.502 -0.3193  0.2726 -0.0144
34501SOL     OW10360   5.978   8.645  10.148  0.2257 -0.5727  0.1794
34501SOL    HW110361   6.034   8.570  10.168  0.5152  0.2078  2.6390
34501SOL    HW210362   6.028   8.721  10.180 -0.6886  0.5337 -0.9225
34502SOL     OW10363   5.897   9.004   6.012 -0.0660 -0.2183  0.1096
34502SOL    HW110364   5.903   9.088   6.058  0.3946  0.3551 -0.9713
34502SOL    HW210365   5.959   8.947   6.058 -1.7558 -0.6095  2.0816
34503SOL     OW10366   8.477  12.267  12.488  0.2843 -0.7936 -0.7304
34503SOL    HW110367   8.488  12.360  12.512  1.8915 -1.1045 -0.1132
34503SOL    HW210368   8.408  12.235  12.546  0.4770 -0.2396 -0.1855
34504SOL     OW10369  11.764   0.787   3.675  0.4838  0.0056  0.7782
34504SOL    HW110370  11.837   0.790   3.613 -0.8522  0.2249 -0.8511
34504SOL    HW210371  11.745   0.878   3.695  0.3832 -0.0379  0.8832
34505SOL     OW10372   3.145  12.072   5.788 -0.1604  0.2538  0.2286
34505SOL    HW110373   3.111  11.998   5.838  1.7469 -1.2099 -0.5290
34505SOL    HW210374   3.191  12.032   5.714  0.8433  2.1964 -0.2584
34506SOL     OW10375  10.548   3.971   8.776  0.3002  0.0848 -0.3761
34506SOL    HW110376  10.458   3.942   8.790  0.2393  0.5920  0.3012
34506SOL    HW210377  10.542   4.036   8.706 -0.0522  1.1365  0.6138
34507SOL     OW10378  10.241  10.983   4.828 -0.4736 -0.5169 -0.0272
34507SOL    HW110379  10.270  10.956   4.915 -1.3897  0.6665  0.6746
34507SOL    HW210380  10.192  11.064   4.843 -0.8629 -0.4242 -1.6167
34508SOL     OW10381   8.771  12.420  10.112  0.6360  0.5830  0.4507
34508SOL    HW110382   8.803  12.344  10.065 -0.3426 -0.1104  0.8669
34508SOL    HW210383   8.764  12.488  10.045 -1.7706 -0.6799 -0.7293
34509SOL     OW10384   4.930   1.745   7.435  0.1272 -0.6671  0.5802
34509SOL    HW110385   5.023   1.767   7.426  0.6146 -2.1191  1.6309
34509SOL    HW210386   4.891   1.823   7.475  1.2499 -0.6734  1.7714
34510SOL     OW10387   4.018   6.063   0.056 -0.2910  0.5304  0.8437
34510SOL    HW110388   4.029   5.972   0.086 -0.6696  0.2622  0.1811
34510SOL    HW210389   3.939   6.093   0.102 -1.0397  0.0238 -0.0797
34511SOL     OW10390   6.033   5.086   5.650 -0.0493 -0.3615  0.0801
34511SOL    HW110391   6.091   5.063   5.577 -1.4914 -2.1140 -0.5925
34511SOL    HW210392   6.083   5.064   5.729  1.5562  1.6246 -0.3066
34512SOL     OW10393   9.191   0.805   9.590 -0.0964  0.0994 -0.3186
34512SOL    HW110394   9.283   0.817   9.613 -0.0192  1.2310 -1.1518
34512SOL    HW210395   9.144   0.821   9.672  0.3861  0.5690 -0.1239
34513SOL     OW10396   6.539   8.722   0.083 -0.2709 -0.0369  0.5987
34513SOL    HW110397   6.465   8.724   0.022 -0.7295 -0.3744  1.1269
34513SOL    HW210398   6.610   8.764   0.036 -0.8418  0.4179  0.1248
34514SOL     OW10399   8.373   0.534   9.120  0.3634 -0.2497 -0.2691
34514SOL    HW110400   8.348   0.542   9.212 -0.9132 -0.0116 -0.6198
34514SOL    HW210401   8.468   0.545   9.120  0.3580 -0.0597  0.9923
34515SOL     OW10402   4.110  10.103   2.290 -0.2315 -0.1490  0.0260
34515SOL    HW110403   4.195  10.131   2.326  0.0714 -1.4602  0.3903
34515SOL    HW210404   4.047  10.163   2.330  0.5832  1.3756 -0.8823
34516SOL     OW10405  11.310   3.714  10.165  0.1171  0.1916  0.1354
34516SOL    HW110406  11.328   3.701  10.072  1.1280  0.9317  0.2151
34516SOL    HW210407  11.215   3.703  10.173 -0.0916  0.9725 -1.1176
34517SOL     OW10408   2.320   0.390   8.080 -0.3584  0.2231  0.1487
34517SOL    HW110409   2.301   0.355   7.993  0.5579 -0.8361  0.3404
34517SOL    HW210410   2.328   0.312   8.135  0.8756  0.7742  0.7927
34518SOL     OW10411   3.256  10.545  11.323 -0.0791  0.6690  0.2019
34518SOL    HW110412   3.255  10.468  11.267  1.3436  0.9651 -0.2623
34518SOL    HW210413   3.263  10.619  11.262  0.5689  1.0497  0.7262
34519SOL     OW10414   5.127   9.510   9.500  0.3465 -0.0699  0.1699
34519SOL    HW110415   5.124   9.439   9.435 -1.4037 -0.7722  0.9526
34519SOL    HW210416   5.188   9.478   9.566 -0.8887 -1.1839  0.8259
34520SOL     OW10417   6.194   7.621   9.421  0.2738  0.3425 -0.0415
34520SOL    HW110418   6.106   7.597   9.451  0.1185  0.3321 -0.5018
34520SOL    HW210419   6.203   7.580   9.335  0.9574 -0.1515  0.2499
34521SOL     OW10420   3.046   6.016   5.083  0.0159 -0.1445 -0.4489
34521SOL    HW110421   3.037   6.108   5.108  0.4232 -0.1935 -0.1095
34521SOL    HW210422   3.139   6.007   5.060  0.1855 -0.6804  0.4086
34522SOL     OW10423   6.670  12.548   6.436 -0.6444 -0.3761 -1.2238
34522SOL    HW110424   6.761  12.519   6.444 -1.4543 -3.0448 -0.6052
34522SOL    HW210425   6.620  12.467   6.431 -3.4144  0.7302  2.9738
34523SOL     OW10426   4.175   4.000   0.731  0.1465  0.8077 -0.2779
34523SOL    HW110427   4.200   3.951   0.809 -0.5721  1.1593  0.1834
34523SOL    HW210428   4.258   4.013   0.683  0.5732  0.4909  0.3602
34524SOL     OW10429  11.192   9.900   1.328 -0.2884 -0.3677 -0.0632
34524SOL    HW110430  11.246   9.941   1.395  0.6275 -0.5507 -0.6772
34524SOL    HW210431  11.193   9.807   1.350 -1.2630 -0.2555  0.5470
34525SOL     OW10432   1.023  11.891   9.198 -0.0541 -0.4097 -0.1778
34525SOL    HW110433   1.053  11.800   9.192  1.3989  0.0926 -1.2671
34525SOL    HW210434   1.085  11.940   9.144 -1.2486  1.1330 -0.2338
34526SOL     OW10435   7.072   8.901   6.383 -0.1115 -0.2451  0.0471
34526SOL    HW110436   7.083   8.816   6.341 -1.1642  0.8049 -2.5374
34526SOL    HW210437   6.980   8.905   6.406 -0.1634  0.3477 -0.2397
34527SOL     OW10438   4.695   4.665   0.963 -0.2687  0.4234 -0.1988
34527SOL    HW110439   4.766   4.653   1.026  0.2491 -1.2196 -1.0431
34527SOL    HW210440   4.687   4.760   0.955 -0.8939  0.7519  2.8807
34528SOL     OW10441   1.159   8.097   3.245  0.2785  0.1967  0.1711
34528SOL    HW110442   1.166   8.192   3.253 -0.8092  0.2164  1.1469
34528SOL    HW210443   1.245   8.064   3.274  0.1322  0.8263  1.3873
34529SOL     OW10444   3.226  10.251   5.032 -0.4398  0.4230 -0.4610
34529SOL    HW110445   3.251  10.170   4.988 -1.1886  0.3242 -0.7280
34529SOL    HW210446   3.159  10.224   5.096 -0.5954  0.8096 -0.4568
34530SOL     OW10447   1.622   6.318   9.899  0.0098  0.1890 -0.2265
34530SOL    HW110448   1.551   6.336   9.960  1.2354 -0.2648  1.4026
34530SOL    HW210449   1.679   6.394   9.905  0.5449 -0.2099 -0.1983
34531SOL     OW10450  10.030   2.731   5.771 -0.5153 -0.2842  0.0323
34531SOL    HW110451  10.043   2.769   5.858  3.1590 -0.1415 -0.4133
34531SOL    HW210452  10.050   2.638   5.783  2.2737  0.0990 -0.9353
34532SOL     OW10453   2.739   5.652   8.403 -0.2307 -0.0180 -0.2645
34532SOL    HW110454   2.770   5.741   8.419  1.8129 -0.8036  0.3925
34532SOL    HW210455   2.644   5.662   8.391 -0.5237  1.9131  2.5573
34533SOL     OW10456   1.545   1.820   4.968 -0.0842 -0.4552 -0.9220
34533SOL    HW110457   1.499   1.772   5.036  0.5274 -1.1638 -0.9863
34533SOL    HW210458   1.481   1.831   4.897 -0.7223  0.2951 -0.2451
34534SOL     OW10459  11.817   1.401   3.854 -0.0458 -0.2421 -0.0319
34534SOL    HW110460  11.847   1.491   3.839 -0.3667 -0.0501  0.4452
34534SOL    HW210461  11.835   1.385   3.947 -0.3138 -0.5459 -0.0312
34535SOL     OW10462   7.023   9.524   1.571 -0.1156  0.9306 -0.3396
34535SOL    HW110463   7.073   9.575   1.634  0.3903 -1.0763  0.9751
34535SOL    HW210464   7.032   9.572   1.488  0.9712  2.5087  0.6481
34536SOL     OW10465   4.396   0.845   7.845  0.1182  0.1419  0.1476
34536SOL    HW110466   4.455   0.772   7.827 -1.2158 -0.5878 -1.4921
34536SOL    HW210467   4.451   0.923   7.835  0.8354 -0.5086 -1.3149
34537SOL     OW10468  11.979   0.976   2.576  0.1382 -0.3124  0.4324
34537SOL    HW110469  11.977   1.070   2.591 -1.2322 -0.4417  1.1980
34537SOL    HW210470  12.007   0.939   2.660 -0.5596 -0.6530  0.5211
34538SOL     OW10471   2.220   4.906   3.141  0.4142 -0.0364 -0.9016
34538SOL    HW110472   2.202   4.953   3.222  0.5736 -1.4756  0.0072
34538SOL    HW210473   2.163   4.947   3.076 -2.5518 -1.2151  0.7566
34539SOL     OW10474   4.882   6.773  12.454 -0.6490  0.0931  0.0123
34539SOL    HW110475   4.964   6.724  12.441  0.2843  1.1736  1.4145
34539SOL    HW210476   4.864   6.811  12.368  1.1695  1.0296 -0.0168
34540SOL     OW10477   0.951  10.393  12.405 -0.4057  0.0907 -0.2523
34540SOL    HW110478   0.934  10.299  12.409 -0.9409  0.1998  0.0543
34540SOL    HW210479   1.043  10.399  12.377 -0.7903 -0.4977 -1.7470
34541SOL     OW10480   0.141   2.837   4.439  0.0710 -0.2652  0.3349
34541SOL    HW110481   0.126   2.762   4.497 -0.9639 -0.7721 -0.5317
34541SOL    HW210482   0.057   2.850   4.395  1.0390 -0.4970 -1.7090
34542SOL     OW10483   4.660  10.077   0.174  0.2774  0.0142  0.1904
34542SOL    HW110484   4.602  10.142   0.134  1.0645 -0.1632 -1.3020
34542SOL    HW210485   4.747  10.101   0.142  0.4459 -2.5509 -1.5029
34543SOL     OW10486   0.911   5.823   2.294 -0.2754 -0.2219  0.6301
34543SOL    HW110487   0.917   5.745   2.349 -1.1772 -1.6593 -1.2131
34543SOL    HW210488   0.986   5.816   2.235  0.2171  0.8611  1.1150
34544SOL     OW10489  12.571  11.599   9.748  0.0233  0.5755  0.0512
34544SOL    HW110490  12.527  11.682   9.730 -1.0390 -0.0641 -0.3461
34544SOL    HW210491  12.662  11.614   9.721 -0.3302  1.3545 -0.7440
34545SOL     OW10492   0.168  10.156   1.518 -0.1888 -0.4555 -0.0846
34545SOL    HW110493   0.263  10.144   1.520  0.0265  0.8519 -0.9119
34545SOL    HW210494   0.133  10.071   1.494  0.8751 -0.6145 -1.1376
34546SOL     OW10495  11.995  11.314   1.944  0.0272  0.2080 -0.0179
34546SOL    HW110496  11.953  11.291   1.861  2.0622  1.2711 -1.4256
34546SOL    HW210497  12.028  11.402   1.930 -0.7522  0.9655  2.4553
34547SOL     OW10498  11.821   6.187   8.292  0.3907 -0.2659  0.6003
34547SOL    HW110499  11.884   6.167   8.223 -1.9340  1.3523 -2.1994
34547SOL    HW210500  11.735   6.182   8.249 -1.1841  1.1206  3.2923
34548SOL     OW10501   5.761   4.526   4.877 -0.5305  0.1159 -0.0501
34548SOL    HW110502   5.853   4.518   4.902 -0.4438 -0.2695 -0.4786
34548SOL    HW210503   5.739   4.617   4.893  0.5718  0.8067 -2.0492
34549SOL     OW10504   5.438   0.158   9.951  0.4677 -0.2857 -0.0602
34549SOL    HW110505   5.416   0.068   9.976 -0.1142 -0.0838  0.1534
34549SOL    HW210506   5.483   0.194  10.027 -1.7168  0.4825  0.9525
34550SOL     OW10507   3.390   4.523   9.474  0.2638  0.9253 -0.0860
34550SOL    HW110508   3.432   4.481   9.549 -0.5792  1.7931  0.8886
34550SOL    HW210509   3.462   4.536   9.411  0.2686 -3.9541 -1.4981
34551SOL     OW10510  10.447   3.813   4.865  0.1393 -0.3678  0.0290
34551SOL    HW110511  10.503   3.789   4.791 -3.3021  0.6369 -3.2389
34551SOL    HW210512  10.431   3.731   4.911  1.2503 -1.3186 -1.2024
34552SOL     OW10513   2.938   0.802   6.997 -0.1499 -0.2785 -0.0420
34552SOL    HW110514   2.919   0.751   6.918 -1.8315 -0.6337  0.5622
34552SOL    HW210515   2.919   0.892   6.973  0.4670 -0.2251 -0.3691
34553SOL     OW10516   7.749   3.552   3.636  0.6581  0.8329  0.8317
34553SOL    HW110517   7.792   3.601   3.706  0.6250  1.3060  0.5267
34553SOL    HW210518   7.803   3.474   3.625  0.3862  0.5146  1.7118
34554SOL     OW10519   6.575   3.765  10.943  0.4786  0.7746 -0.0969
34554SOL    HW110520   6.582   3.827  10.870 -4.8432  1.7673 -0.1634
34554SOL    HW210521   6.579   3.679  10.901  1.9958  1.1560 -0.8272
34555SOL     OW10522  10.048   3.183   1.044  0.0570  0.5677  0.2180
34555SOL    HW110523  10.078   3.140   1.124 -0.0217  0.7206  0.3302
34555SOL    HW210524   9.966   3.137   1.022  0.0263  0.5920  0.2815
34556SOL     OW10525   0.819   3.766   9.695  0.5366  0.2196  0.1336
34556SOL    HW110526   0.842   3.810   9.777 -0.7701 -1.1816  1.3188
34556SOL    HW210527   0.764   3.829   9.649 -1.2769 -0.0696  1.7809
34557SOL     OW10528   5.489   3.141   5.120 -0.0160 -0.0366 -0.1955
34557SOL    HW110529   5.536   3.173   5.197  0.2061 -0.9036  0.0333
34557SOL    HW210530   5.420   3.206   5.106  0.3940  0.5184  0.2911
34558SOL     OW10531   5.042  11.495  10.910 -0.0840  0.1258 -0.2217
34558SOL    HW110532   5.023  11.508  10.817  0.6524 -0.7358 -0.5115
34558SOL    HW210533   4.990  11.561  10.955 -1.1144  0.0012 -1.1918
34559SOL     OW10534   0.251   5.089   2.745  0.2197 -0.2169 -0.2446
34559SOL    HW110535   0.301   5.169   2.759 -0.5247  0.2380 -0.1670
34559SOL    HW210536   0.297   5.023   2.797  0.9909  0.0916 -0.5213
34560SOL     OW10537   9.507   9.541   7.176  0.4115 -0.3050  0.8155
34560SOL    HW110538   9.570   9.483   7.219 -0.0003 -1.0844  0.3771
34560SOL    HW210539   9.424   9.493   7.178  0.5087 -0.7050 -1.4563
34561SOL     OW10540  11.444   1.334   3.078  1.0169 -0.3294  0.0878
34561SOL    HW110541  11.432   1.294   2.992 -1.2582 -0.9151  0.6221
34561SOL    HW210542  11.370   1.304   3.130  2.2237  0.1570  2.2295
34562SOL     OW10543  10.656  10.539   4.396  0.0250 -0.6008  0.0263
34562SOL    HW110544  10.714  10.530   4.320 -0.9753 -1.1602 -0.7008
34562SOL    HW210545  10.643  10.633   4.405  0.4293 -0.5118 -0.2754
34563SOL     OW10546   0.694   0.890   5.043  0.1614 -0.6870 -0.0635
34563SOL    HW110547   0.646   0.859   4.965  2.1377 -2.1238 -0.7812
34563SOL    HW210548   0.766   0.828   5.053  0.9326  0.4515  1.9543
34564SOL     OW10549  12.061   5.512   8.385  0.4755 -0.0340  0.1049
34564SOL    HW110550  12.088   5.601   8.408  1.8652 -0.4282  0.0990
34564SOL    HW210551  12.037   5.516   8.293 -1.5388  0.7669  0.6189
34565SOL     OW10552  11.436   1.507   5.841 -0.5813 -0.2956  0.6258
34565SOL    HW110553  11.362   1.455   5.871 -1.7856  1.0198  0.0367
34565SOL    HW210554  11.463   1.556   5.919  0.9978 -2.2219  1.3635
34566SOL     OW10555  11.522   5.045   7.262 -0.0289  0.0760  0.4909
34566SOL    HW110556  11.472   5.038   7.343 -0.1364  0.6146  0.4725
34566SOL    HW210557  11.577   4.967   7.261 -0.3045 -0.1255  0.8932
34567SOL     OW10558  12.447   9.534   3.578 -0.0733  0.0802 -0.2081
34567SOL    HW110559  12.381   9.513   3.645 -0.4999 -1.1803 -0.9860
34567SOL    HW210560  12.487   9.615   3.609 -2.0325  0.9311  0.2678
34568SOL     OW10561   1.148   6.817  11.206 -0.1438 -0.2582 -0.1502
34568SOL    HW110562   1.159   6.723  11.222  0.0014 -0.3956 -0.9945
34568SOL    HW210563   1.137   6.824  11.111  0.8964  0.6686 -0.2228
34569SOL     OW10564   0.465   2.146   1.807 -0.0870  0.1242  0.0423
34569SOL    HW110565   0.380   2.103   1.811 -0.3543  0.7508  2.6888
34569SOL    HW210566   0.489   2.144   1.714 -2.5871 -0.7859 -0.6468
34570SOL     OW10567   2.419  11.481   1.331  0.3335 -0.3153  0.1281
34570SOL    HW110568   2.492  11.426   1.304 -0.1183 -0.6166 -0.5443
34570SOL    HW210569   2.345  11.449   1.278 -0.5444 -0.7297  1.5422
34571SOL     OW10570   9.400   7.523   4.389  0.9172  0.0294 -0.0939
34571SOL    HW110571   9.419   7.568   4.472  2.4854 -0.4227 -0.1667
34571SOL    HW210572   9.346   7.449   4.414 -0.2202  0.9478  0.2580
34572SOL     OW10573   1.651  10.308   3.241  0.6590  0.1904 -0.8595
34572SOL    HW110574   1.746  10.308   3.253  0.9362 -1.1499 -2.6772
34572SOL    HW210575   1.637  10.260   3.160 -1.6639 -0.4977 -0.1181
34573SOL     OW10576   3.423   2.827   9.290 -0.9514 -0.0447  0.4266
34573SOL    HW110577   3.511   2.790   9.278 -1.9824 -2.3964 -0.4351
34573SOL    HW210578   3.438   2.921   9.299  1.7091 -0.4470  1.0972
34574SOL     OW10579   0.019  10.055   9.734 -0.0251  0.2619  0.1942
34574SOL    HW110580   0.106  10.066   9.695  0.3654  1.1476  1.2665
34574SOL    HW210581  -0.039  10.104   9.676  0.5109  1.3825  0.5741
34575SOL     OW10582  11.142   5.522   3.847  0.1412  0.2538 -0.0148
34575SOL    HW110583  11.193   5.588   3.799 -0.2853 -0.7654 -1.9573
34575SOL    HW210584  11.082   5.486   3.782  0.3238 -2.0271  0.9857
34576SOL     OW10585  12.073  11.380  11.024  0.0666  0.7059  0.0035
34576SOL    HW110586  12.086  11.471  11.050  0.6413  0.8510 -0.7545
34576SOL    HW210587  12.080  11.381  10.928 -0.9843  0.0273 -0.0945
34577SOL     OW10588   8.306   7.764   7.120 -0.0706 -0.4884 -0.6829
34577SOL    HW110589   8.331   7.727   7.035  1.2222  0.1655 -0.6249
34577SOL    HW210590   8.356   7.846   7.125 -1.0537  0.0789  0.1984
34578SOL     OW10591  12.056   4.108   1.859  0.3252  0.3999 -0.4113
34578SOL    HW110592  12.024   4.059   1.783 -0.2831  1.9777 -1.2123
34578SOL    HW210593  12.151   4.095   1.858  0.3055  0.2852 -1.3552
34579SOL     OW10594   1.196   2.603  11.529  0.3298  0.2270  0.1725
34579SOL    HW110595   1.225   2.589  11.438  0.5099  1.7638 -0.0363
34579SOL    HW210596   1.267   2.567  11.582  0.5520 -0.0555 -0.3000
34580SOL     OW10597  10.315   9.082   0.996  0.7060 -0.0024  0.4270
34580SOL    HW110598  10.329   9.177   0.989  1.3862 -0.2166 -2.6288
34580SOL    HW210599  10.377   9.044   0.934 -1.9162 -2.1766 -1.1216
34581SOL     OW10600  11.596   2.475  11.951 -0.2884  0.8005 -0.1442
34581SOL    HW110601  11.624   2.541  12.015 -0.3529  1.1155 -0.4370
34581SOL    HW210602  11.579   2.525  11.872  0.4162  0.3344 -0.6040
34582SOL     OW10603   1.902   5.511  10.504  0.2064  0.1619  0.0099
34582SOL    HW110604   1.835   5.474  10.446 -0.0022 -1.4815  1.2441
34582SOL    HW210605   1.985   5.481  10.466  0.1183  0.0316 -0.0825
34583SOL     OW10606   8.992  11.064  10.889  0.0040 -0.3345  0.0464
34583SOL    HW110607   8.915  11.120  10.888 -0.0261 -0.3761 -0.1342
34583SOL    HW210608   9.032  11.077  10.803 -0.3789 -1.0977 -0.2618
34584SOL     OW10609  10.770   4.893  10.741 -0.0657  0.4791 -0.3472
34584SOL    HW110610  10.763   4.968  10.682 -0.0323  0.2372 -0.6672
34584SOL    HW210611  10.845   4.844  10.708 -1.0793 -0.5802 -1.1927
34585SOL     OW10612   6.297   4.654   2.664  0.4952 -0.3767 -0.5287
34585SOL    HW110613   6.214   4.609   2.648  1.3561 -1.8907 -0.9005
34585SOL    HW210614   6.325   4.621   2.750  0.0386  1.2432  0.2872
34586SOL     OW10615  12.011   3.852   2.792  0.4143  0.5943  0.4681
34586SOL    HW110616  11.933   3.862   2.738 -0.3639 -2.7079  0.7739
34586SOL    HW210617  11.990   3.898   2.873 -0.1388  1.9116 -0.3912
34587SOL     OW10618   7.808   5.894   6.788  0.6105 -0.4789 -0.5190
34587SOL    HW110619   7.734   5.914   6.845  0.1973  0.0162 -1.2154
34587SOL    HW210620   7.769   5.879   6.702  1.3001 -0.3877 -0.8539
34588SOL     OW10621  10.689  11.738   1.466 -0.1611  0.6923 -0.0549
34588SOL    HW110622  10.745  11.813   1.486  2.8696 -0.9556 -1.6371
34588SOL    HW210623  10.686  11.688   1.548  0.9981  0.6755 -0.0022
34589SOL     OW10624   8.940   8.736   2.675  0.2684  0.3625 -0.3158
34589SOL    HW110625   8.847   8.720   2.655 -0.7992 -1.2728  4.6063
34589SOL    HW210626   8.939   8.817   2.726  1.1970 -0.7182  1.4751
34590SOL     OW10627   8.152   7.090   8.097  0.1562 -0.3298 -0.4379
34590SOL    HW110628   8.155   7.142   8.016 -0.2277 -3.6659 -2.8318
34590SOL    HW210629   8.241   7.094   8.132  0.3875  1.0213 -1.1028
34591SOL     OW10630   9.695   6.391   4.938 -0.0237  0.0443  0.0900
34591SOL    HW110631   9.635   6.337   4.990 -0.4959 -0.8566 -1.3143
34591SOL    HW210632   9.645   6.412   4.859  1.5434 -0.8938 -1.2198
34592SOL     OW10633   9.866   8.995   4.978  0.8360 -0.3826 -0.0509
34592SOL    HW110634   9.924   8.965   4.907  0.5233 -2.1909  0.4347
34592SOL    HW210635   9.840   9.083   4.950 -0.3002 -1.4798 -2.8634
34593SOL     OW10636   8.255   9.514   6.205  0.2355  0.2487  0.0405
34593SOL    HW110637   8.288   9.523   6.116 -2.3632  1.4686 -0.8727
34593SOL    HW210638   8.297   9.434   6.238  0.2570 -0.9838 -2.7411
34594SOL     OW10639  11.492  12.002   3.590 -0.5090 -0.4468 -0.6220
34594SOL    HW110640  11.402  12.008   3.557 -0.1020  0.4062 -1.6439
34594SOL    HW210641  11.544  11.984   3.512  0.1794 -1.2529  0.0127
34595SOL     OW10642   2.543  10.842   1.142 -0.2272  0.1234 -0.1740
34595SOL    HW110643   2.556  10.917   1.084 -1.2810  0.2157 -0.3057
34595SOL    HW210644   2.630  10.824   1.177  0.1319  1.0885 -0.5310
34596SOL     OW10645  11.704   0.400  10.524  0.0718  0.2104  0.2588
34596SOL    HW110646  11.662   0.448  10.452 -1.7255 -0.0627  1.0598
34596SOL    HW210647  11.673   0.445  10.603  0.0185 -0.9871  0.9339
34597SOL     OW10648   8.173   5.826   9.359 -0.4288 -0.2467 -0.6631
34597SOL    HW110649   8.227   5.781   9.294  1.7733  1.0305  0.1795
34597SOL    HW210650   8.140   5.903   9.313 -0.5316 -0.3933 -0.8362
34598SOL     OW10651   4.251   4.146   6.952 -0.2534 -0.2448 -0.0379
34598SOL    HW110652   4.175   4.096   6.924 -1.2517  0.3232  1.5383
34598SOL    HW210653   4.278   4.105   7.034 -1.8041  2.3733  1.9248
34599SOL     OW10654   6.362   7.735   1.506  0.3540 -0.3617 -0.3518
34599SOL    HW110655   6.304   7.709   1.578  0.2304 -3.1804 -1.3415
34599SOL    HW210656   6.445   7.755   1.548 -0.2080 -0.2424  0.7354
34600SOL     OW10657   7.086   6.688  11.950  0.0928  0.1222  0.0278
34600SOL    HW110658   7.098   6.630  11.874 -1.3646 -1.1654  0.7301
34600SOL    HW210659   7.058   6.771  11.913 -0.0218 -0.3097 -0.8787
34601SOL     OW10660  11.279  11.553   3.720 -0.0111  0.0545 -0.0643
34601SOL    HW110661  11.325  11.503   3.788  0.4559  0.5219 -0.0309
34601SOL    HW210662  11.284  11.497   3.642 -0.8807 -0.6537  0.3751
34602SOL     OW10663   4.385  12.015   0.804 -0.1501  0.0762 -0.5328
34602SOL    HW110664   4.402  12.083   0.870 -1.5322 -0.9163  0.9067
34602SOL    HW210665   4.442  11.943   0.830  0.5201  0.2667 -1.4314
34603SOL     OW10666   2.175   1.661   5.998  0.3006 -0.2003  0.7752
34603SOL    HW110667   2.257   1.616   5.980 -0.1511 -1.0938  0.8608
34603SOL    HW210668   2.150   1.701   5.915  0.6272 -0.2609  0.6480
34604SOL     OW10669   6.457   6.419   3.755  0.2068 -0.3718  0.3135
34604SOL    HW110670   6.393   6.459   3.814 -0.2782 -0.3616 -0.2084
34604SOL    HW210671   6.498   6.493   3.711 -0.2243 -0.4107 -0.1697
34605SOL     OW10672   0.793  11.219   3.115  0.2739  0.6960 -0.1804
34605SOL    HW110673   0.755  11.142   3.157 -0.5995  1.0438 -0.3053
34605SOL    HW210674   0.782  11.289   3.179  0.6924  0.8016 -0.2254
34606SOL     OW10675   2.092  10.776   3.489 -0.3332 -0.2944 -0.0531
34606SOL    HW110676   2.073  10.769   3.395 -1.4147  0.1117  0.1184
34606SOL    HW210677   2.053  10.697   3.527 -2.0810  0.6923  0.3431
34607SOL     OW10678   7.858  10.060   0.341 -0.4384 -0.1574 -0.1186
34607SOL    HW110679   7.822  10.146   0.317  2.0018  1.0324  0.1685
34607SOL    HW210680   7.788  10.018   0.390 -2.5684  0.6804 -2.2134
34608SOL     OW10681   8.021   5.611   9.955 -0.1597  0.4259  0.0422
34608SOL    HW110682   8.023   5.516   9.945  0.5708  0.2929  1.2241
34608SOL    HW210683   8.114   5.637   9.957 -0.2521  0.8241  2.2568
34609SOL     OW10684  11.082   9.732  12.500 -0.6486 -0.2252  0.7653
34609SOL    HW110685  11.029   9.669  12.450 -0.1751 -0.0456  0.0154
34609SOL    HW210686  11.163   9.686  12.519 -0.6699 -0.1557  1.0289
34610SOL     OW10687   9.723  10.657  11.906  0.0254 -0.6019 -0.2511
34610SOL    HW110688   9.666  10.592  11.946 -1.1470 -0.1194 -1.0749
34610SOL    HW210689   9.691  10.664  11.816  0.1398  1.0770 -0.1938
34611SOL     OW10690   4.629   2.677   1.313  0.3439  0.0048  0.2932
34611SOL    HW110691   4.717   2.714   1.322  0.9847 -1.5823  0.9986
34611SOL    HW210692   4.644   2.583   1.301 -1.2728 -0.3698  0.9643
34612SOL     OW10693   8.171   5.186   9.685 -0.6037  0.1579 -0.0229
34612SOL    HW110694   8.127   5.151   9.763 -2.6236 -0.4227 -1.3619
34612SOL    HW210695   8.193   5.109   9.633  1.4737  0.4804  0.2555
34613SOL     OW10696  12.011   8.953   3.226 -0.5890 -0.4621 -0.0815
34613SOL    HW110697  11.970   9.009   3.160 -1.9782 -0.4384  0.7572
34613SOL    HW210698  12.047   9.014   3.290  0.2229 -0.4958 -0.4976
34614SOL     OW10699   4.613   8.637  11.200 -0.3155 -0.3362  0.1876
34614SOL    HW110700   4.674   8.650  11.127  1.4568  0.9646  1.8056
34614SOL    HW210701   4.588   8.545  11.194  1.5576 -0.8297 -0.7450
34615SOL     OW10702  12.576   8.566   7.890  0.1989 -0.2983 -0.1587
34615SOL    HW110703  12.505   8.630   7.891 -0.7355 -1.2979 -0.6634
34615SOL    HW210704  12.598   8.554   7.983  1.3786  1.7654 -0.1064
34616SOL     OW10705  11.231   9.590  10.426  0.0719 -0.5387  0.5819
34616SOL    HW110706  11.323   9.575  10.446  1.2282  1.9739 -2.1229
34616SOL    HW210707  11.218   9.549  10.340 -0.8236  0.6469  0.1281
34617SOL     OW10708   7.952  11.935   0.065  0.3988 -0.0832  0.5496
34617SOL    HW110709   7.890  12.002   0.037 -1.3619 -1.7958  0.1321
34617SOL    HW210710   7.900  11.872   0.114  1.9355 -1.2748  0.7409
34618SOL     OW10711   1.462   2.512   1.761 -0.0302 -0.1353  0.3702
34618SOL    HW110712   1.408   2.440   1.729 -0.8882  0.8650 -0.5153
34618SOL    HW210713   1.481   2.489   1.852 -0.4737 -1.3595  0.1755
34619SOL     OW10714   3.445  12.029   7.614  0.0496 -0.2033  0.3159
34619SOL    HW110715   3.386  12.046   7.540  0.7053  2.5687  0.3007
34619SOL    HW210716   3.392  12.046   7.691  0.1631 -0.1400  0.3801
34620SOL     OW10717   0.997  11.517  12.022 -0.8843  0.2002  0.6941
34620SOL    HW110718   1.027  11.608  12.030  0.4890  0.1395 -2.3420
34620SOL    HW210719   0.940  11.518  11.945 -0.4032 -1.5833  0.2844
34621SOL     OW10720  10.455   3.964   2.880 -0.0562 -0.0522 -0.0399
34621SOL    HW110721  10.394   3.909   2.929 -0.3956  1.5896  1.4877
34621SOL    HW210722  10.520   3.903   2.845 -0.9486 -1.5097  0.7461
34622SOL     OW10723   3.509   2.215   0.543  0.1293 -0.3689  0.8774
34622SOL    HW110724   3.436   2.156   0.522 -0.3164  0.5329 -0.1999
34622SOL    HW210725   3.578   2.157   0.574 -1.2918 -1.1854  2.7315
34623SOL     OW10726   5.308   3.819   0.817 -0.8400 -0.3499 -0.3069
34623SOL    HW110727   5.330   3.816   0.724  1.3644 -0.7674  0.1894
34623SOL    HW210728   5.233   3.759   0.825 -0.3704 -1.1710 -1.6521
34624SOL     OW10729   8.614  12.045   2.250 -0.0804  0.1138  0.1253
34624SOL    HW110730   8.643  12.055   2.159  1.1602 -0.0586  0.4799
34624SOL    HW210731   8.689  12.006   2.294 -0.9329 -0.5005  1.0771
34625SOL     OW10732   9.864   1.567   8.141  0.1309  0.5136  0.2360
34625SOL    HW110733   9.898   1.506   8.207 -1.9221 -2.3675 -1.1653
34625SOL    HW210734   9.908   1.542   8.060 -0.0084  1.6143 -0.1907
34626SOL     OW10735   2.355   7.892  10.939  0.3827 -0.0880  0.1607
34626SOL    HW110736   2.394   7.804  10.937  1.3664  0.3079  1.0088
34626SOL    HW210737   2.263   7.876  10.956  0.8412 -0.9175  2.1324
34627SOL     OW10738   4.846   9.385   2.754 -0.8488 -0.4053  0.2258
34627SOL    HW110739   4.784   9.447   2.717 -0.8727 -1.6257 -1.9514
34627SOL    HW210740   4.916   9.439   2.790 -1.5305  0.9067 -0.3506
34628SOL     OW10741   4.821   2.247   0.341 -0.0737  0.5025 -0.0610
34628SOL    HW110742   4.908   2.210   0.357 -0.0216  0.6427 -0.0260
34628SOL    HW210743   4.796   2.213   0.255  0.1983  0.8152 -0.2630
34629SOL     OW10744   9.718   0.988   3.392 -0.5846  0.0662 -0.1255
34629SOL    HW110745   9.739   1.048   3.321 -3.4797  1.5051  0.1047
34629SOL    HW210746   9.642   0.938   3.359 -0.5258 -0.8776  1.1010
34630SOL     OW10747   8.212  11.267   5.325  0.0894 -0.6633 -0.4311
34630SOL    HW110748   8.290  11.212   5.328  0.9206  0.4151 -1.2869
34630SOL    HW210749   8.142  11.209   5.294  1.2186 -0.9626 -2.5774
34631SOL     OW10750  10.111  12.293   8.821 -0.5169 -0.0884 -0.2489
34631SOL    HW110751  10.102  12.384   8.792 -1.5790 -0.5836 -1.6018
34631SOL    HW210752  10.170  12.297   8.896 -1.5565  1.8687  0.5410
34632SOL     OW10753   3.446   1.917   9.924  0.3739 -0.2172 -0.3015
34632SOL    HW110754   3.374   1.963   9.967 -0.0338  0.4475 -1.6347
34632SOL    HW210755   3.421   1.825   9.927 -0.8207  0.0540 -1.2345
34633SOL     OW10756   5.567   4.552   1.571  0.3373  0.4129  0.1915
34633SOL    HW110757   5.549   4.458   1.560 -0.6036  0.4907  0.9048
34633SOL    HW210758   5.531   4.573   1.657 -0.0378  1.5726 -0.2346
34634SOL     OW10759   7.441   9.428   2.812  0.7551  0.0268 -0.0584
34634SOL    HW110760   7.455   9.463   2.900 -1.3102 -0.1914  0.4104
34634SOL    HW210761   7.442   9.506   2.755 -0.7728  0.5494  0.5725
34635SOL     OW10762   8.270   2.031   6.860 -0.3370  0.2740 -0.1903
34635SOL    HW110763   8.190   1.984   6.882 -1.4109  1.6542 -0.9360
34635SOL    HW210764   8.298   2.070   6.943 -1.3683  1.1046 -0.2118
34636SOL     OW10765   0.633   5.016   8.113  0.0633 -0.2219 -0.1974
34636SOL    HW110766   0.624   4.922   8.098  2.2876 -0.2502 -1.9135
34636SOL    HW210767   0.546   5.045   8.140 -0.4082 -2.9475  1.6594
34637SOL     OW10768   5.975   8.102   2.717  0.2843  0.3319  0.6830
34637SOL    HW110769   5.986   8.009   2.697  1.8176  0.9936 -2.1250
34637SOL    HW210770   6.062   8.140   2.703 -0.1258  2.1081  2.5275
34638SOL     OW10771   8.922   7.812  10.942 -0.1074  0.1602 -0.0069
34638SOL    HW110772   8.849   7.780  10.994  1.1538 -2.1049  0.5167
34638SOL    HW210773   8.917   7.907  10.948 -2.9604  0.0791 -0.0081
34639SOL     OW10774   9.400   4.687   3.687 -0.4119 -0.1219  0.5663
34639SOL    HW110775   9.349   4.731   3.756  2.4663  1.6536  1.7563
34639SOL    HW210776   9.428   4.758   3.630  1.2261 -0.9025  0.3475
34640SOL     OW10777   8.369   7.194   4.013  0.2140  0.4184  0.0916
34640SOL    HW110778   8.420   7.275   4.008  2.4397 -0.9328 -2.1299
34640SOL    HW210779   8.309   7.207   4.086  2.5178  2.8956  1.7546
34641SOL     OW10780   2.795   3.055  11.235  0.3688 -0.1841  0.0052
34641SOL    HW110781   2.725   3.026  11.177 -0.4942 -3.0074  2.2162
34641SOL    HW210782   2.876   3.030  11.190 -0.2447 -1.4203 -0.4585
34642SOL     OW10783   9.221   5.798   1.306  0.0492  0.2024  0.1078
34642SOL    HW110784   9.195   5.826   1.219 -0.2886 -0.8811 -0.1565
34642SOL    HW210785   9.156   5.836   1.364  0.4395  1.1606 -0.0764
34643SOL     OW10786   6.697   7.482  12.249 -0.3047 -0.1426  0.5415
34643SOL    HW110787   6.783   7.445  12.268 -1.2940 -2.1617  1.4054
34643SOL    HW210788   6.642   7.454  12.322 -1.5798  1.5980  0.3085
34644SOL     OW10789   2.556  10.197   0.680  0.4365  0.3093  0.1680
34644SOL    HW110790   2.574  10.104   0.689  2.2362  0.6873  1.0224
34644SOL    HW210791   2.482  10.213   0.739 -0.8141 -0.7859 -1.0444
34645SOL     OW10792  11.751   4.124   2.779  0.1277 -0.1420  0.0543
34645SOL    HW110793  11.813   4.175   2.727  0.1301 -0.7916 -0.5998
34645SOL    HW210794  11.743   4.041   2.732 -2.1007  0.3248 -0.5141
34646SOL     OW10795   7.631   6.375   7.602  0.0488  0.4642  0.7252
34646SOL    HW110796   7.671   6.447   7.554  1.3099 -0.9267 -0.3763
34646SOL    HW210797   7.575   6.331   7.538  1.8931 -1.5212  0.3522
34647SOL     OW10798   0.027   6.957   0.223 -0.0177 -0.0986  0.6857
34647SOL    HW110799   0.078   7.004   0.158  0.8354 -0.0845  1.3528
34647SOL    HW210800  -0.025   6.894   0.172  0.8448 -0.2814  0.0156
34648SOL     OW10801   5.908   1.362  11.239 -0.1828  0.1648  0.1413
34648SOL    HW110802   5.951   1.286  11.276  0.0153  1.4399  2.7675
34648SOL    HW210803   5.814   1.343  11.247 -0.1337  0.0721  0.4918
34649SOL     OW10804   3.112   5.478   8.464  0.0287 -0.1021  0.4356
34649SOL    HW110805   3.152   5.494   8.549  0.5845  1.3362 -0.0562
34649SOL    HW210806   3.124   5.561   8.416 -0.5478 -0.7679 -0.9224
34650SOL     OW10807   2.441   4.461  10.140 -0.7721 -0.5936 -0.3619
34650SOL    HW110808   2.434   4.377  10.186 -0.2022 -0.5213 -0.1369
34650SOL    HW210809   2.474   4.521  10.206 -1.5509 -0.0968 -0.4147
34651SOL     OW10810   2.506   5.809  12.572  0.2926  0.8343  0.2160
34651SOL    HW110811   2.516   5.727  12.621  0.1591 -0.2003 -1.4102
34651SOL    HW210812   2.531   5.877  12.634  1.7340 -0.5241  1.1979
34652SOL     OW10813   7.168   3.922   3.265  0.4317 -0.0763 -0.0160
34652SOL    HW110814   7.215   3.877   3.335  0.6322 -0.2031 -0.2277
34652SOL    HW210815   7.119   3.992   3.309 -1.2448 -1.5410  0.5401
34653SOL     OW10816   6.616   9.118   9.618 -0.1895  0.1111 -0.2621
34653SOL    HW110817   6.563   9.126   9.697  1.2582  0.5163  0.7111
34653SOL    HW210818   6.567   9.165   9.551  0.3776  3.4058  1.3887
34654SOL     OW10819   8.833   1.247  11.747 -0.1028 -0.3695  0.1784
34654SOL    HW110820   8.775   1.192  11.694 -3.1367  1.5605  1.2494
34654SOL    HW210821   8.834   1.331  11.702 -0.1332  0.3361  1.4501
34655SOL     OW10822   6.812   7.615  11.186 -0.6298 -0.0131 -0.1253
34655SOL    HW110823   6.838   7.704  11.207 -0.5966 -0.0907  0.1700
34655SOL    HW210824   6.826   7.607  11.091 -0.7203  0.3206 -0.1661
34656SOL     OW10825   0.328   7.868   9.050  0.1434  0.5302  0.6412
34656SOL    HW110826   0.358   7.910   8.970 -0.6754  0.6961  0.4124
34656SOL    HW210827   0.380   7.909   9.119  1.3858 -0.1332  0.1448
34657SOL     OW10828   6.568  11.264   4.356  0.0471  0.0563  0.0983
34657SOL    HW110829   6.602  11.237   4.441  1.0620  1.1996  0.0832
34657SOL    HW210830   6.474  11.272   4.369  0.2968  1.1521  1.4037
34658SOL     OW10831  11.634   8.544  10.071  0.2099 -0.1257 -0.3211
34658SOL    HW110832  11.566   8.478  10.085  0.1446  0.4792  2.8291
34658SOL    HW210833  11.717   8.496  10.080  0.1691 -0.0391  0.5358
34659SOL     OW10834  11.255   4.924   0.011  0.3934 -0.3485  0.3242
34659SOL    HW110835  11.181   4.864   0.014  0.6835 -0.7626 -0.5208
34659SOL    HW210836  11.215   5.011   0.010 -0.1052 -0.5732 -0.5349
34660SOL     OW10837   3.365   4.792   4.322  0.5433 -0.2852  0.2036
34660SOL    HW110838   3.419   4.840   4.260  0.9426  0.4680  1.0993
34660SOL    HW210839   3.418   4.788   4.402 -0.0031 -1.1159  0.5419
34661SOL     OW10840   9.839   8.497   0.182 -0.1722 -0.1622  0.6406
34661SOL    HW110841   9.898   8.511   0.107  0.9154 -0.9515  1.3163
34661SOL    HW210842   9.858   8.571   0.241 -2.0506  1.2674 -0.4359
34662SOL     OW10843   5.202  12.558   1.939  0.8074  0.0583  0.0764
34662SOL    HW110844   5.147  12.575   2.016 -0.1785  1.8286 -0.9480
34662SOL    HW210845   5.226  12.645   1.907  0.8817 -0.6199 -1.8397
34663SOL     OW10846   7.118   3.843   3.816 -0.2248 -0.3493  0.1437
34663SOL    HW110847   7.083   3.872   3.900  1.3474  0.7207  0.4656
34663SOL    HW210848   7.157   3.758   3.834 -2.0426 -1.2874 -0.0938
34664SOL     OW10849   2.591   3.053   3.473 -0.2687  0.0462  0.2354
34664SOL    HW110850   2.614   3.096   3.391  0.7495  0.3096  0.6459
34664SOL    HW210851   2.674   3.043   3.520 -0.0046 -4.2286 -0.6822
34665SOL     OW10852  10.685  11.315   4.668 -0.6374 -0.1231 -0.3263
34665SOL    HW110853  10.610  11.272   4.708 -0.4259  0.0991  0.3304
34665SOL    HW210854  10.728  11.247   4.618 -0.8993 -0.4188 -0.1567
34666SOL     OW10855   4.270   7.942   1.584  0.8677 -0.0456 -0.0247
34666SOL    HW110856   4.345   7.884   1.600  1.3055  1.1003  2.7693
34666SOL    HW210857   4.309   8.027   1.565  0.2193 -0.0839 -1.6713
34667SOL     OW10858   4.326   0.987   2.962 -0.4295 -0.4789 -0.6182
34667SOL    HW110859   4.330   0.893   2.980  1.0084 -0.6589 -1.7199
34667SOL    HW210860   4.388   1.026   3.024  0.1451 -0.4504 -1.1997
34668SOL     OW10861  11.835   3.122   4.743 -0.2351  0.0476 -0.4544
34668SOL    HW110862  11.914   3.163   4.708  1.3779 -1.3311  1.3085
34668SOL    HW210863  11.763   3.178   4.713  1.2684  0.8130 -2.9674
34669SOL     OW10864   9.839   7.819   1.046  0.0062  0.5661  0.1192
34669SOL    HW110865   9.885   7.867   1.115  0.5458  0.1354  0.0675
34669SOL    HW210866   9.809   7.739   1.088 -2.3809  1.6596  0.6558
34670SOL     OW10867   2.977   3.315   1.521 -0.2346  0.1370  0.1932
34670SOL    HW110868   2.955   3.409   1.524 -1.0310 -0.0757  2.1956
34670SOL    HW210869   3.064   3.310   1.560 -0.3601  0.0068  0.4572
34671SOL     OW10870  11.443   4.677   3.858  0.0636 -0.1937 -0.5944
34671SOL    HW110871  11.373   4.687   3.923 -0.8314 -2.2358 -1.1696
34671SOL    HW210872  11.480   4.765   3.850 -3.3004  1.3250 -1.2518
34672SOL     OW10873   7.150   9.091  10.852 -0.2402  0.3808  0.1166
34672SOL    HW110874   7.115   9.148  10.784  1.3440  1.8194  0.4508
34672SOL    HW210875   7.198   9.023  10.805  0.9285  1.4181 -0.2379
34673SOL     OW10876   4.815   4.334  10.080  0.1152 -0.0587  0.2656
34673SOL    HW110877   4.741   4.381  10.042  0.3147  1.4342  1.5950
34673SOL    HW210878   4.892   4.384  10.052  1.0669 -3.1579 -3.5094
34674SOL     OW10879   7.020   6.379   1.192  0.1480  0.3127  0.5745
34674SOL    HW110880   7.060   6.335   1.118 -0.1960  0.0099  0.5655
34674SOL    HW210881   7.083   6.446   1.218  0.0780  0.7078 -0.2636
34675SOL     OW10882  10.600  10.940   3.477 -0.6986 -0.1157 -0.1877
34675SOL    HW110883  10.602  10.986   3.561  0.3976 -0.0009 -0.2603
34675SOL    HW210884  10.536  10.989   3.425 -1.3847 -0.1865  0.5701
34676SOL     OW10885   6.118  11.844  12.527  0.2403 -0.4786 -0.2734
34676SOL    HW110886   6.101  11.750  12.523  0.7560 -0.5874  0.0452
34676SOL    HW210887   6.188  11.853  12.592  0.3034  0.1110 -0.4193
34677SOL     OW10888   8.581   3.345  10.443 -0.2705 -0.0434  0.5295
34677SOL    HW110889   8.597   3.332  10.350 -1.4305 -0.5059  0.3828
34677SOL    HW210890   8.668   3.344  10.482  0.1344 -1.5886 -0.3284
34678SOL     OW10891   4.421  10.902   8.848  0.1228 -0.0254 -0.7156
34678SOL    HW110892   4.490  10.857   8.800  0.9694 -1.7837  1.9054
34678SOL    HW210893   4.341  10.880   8.802  0.8411 -1.9150 -1.1442
34679SOL     OW10894  10.023   7.981   1.522  0.3973  0.1293 -0.1121
34679SOL    HW110895  10.047   7.961   1.432  1.1619  0.0451  0.0982
34679SOL    HW210896  10.042   8.074   1.533 -1.1413  0.5180 -0.4660
34680SOL     OW10897   2.563   5.981   1.806  0.1866 -0.8871 -0.0778
34680SOL    HW110898   2.499   5.910   1.802  1.0832 -1.8927  2.0288
34680SOL    HW210899   2.633   5.947   1.862 -0.5484  2.5034  3.3144
34681SOL     OW10900   1.598   8.100   3.081 -0.2963  0.1533 -0.2353
34681SOL    HW110901   1.665   8.047   3.039 -0.3418 -1.5169  1.6375
34681SOL    HW210902   1.575   8.166   3.016 -0.3410 -2.1972 -2.7708
34682SOL     OW10903  10.714   1.875   9.815 -0.0863  0.0043 -0.4154
34682SOL    HW110904  10.671   1.798   9.851  0.4425 -0.8933 -1.6149
34682SOL    HW210905  10.692   1.946   9.875  0.2488 -1.2633  1.2852
34683SOL     OW10906   4.780   8.118  10.554  0.5161  0.3169 -0.5850
34683SOL    HW110907   4.733   8.185  10.505  0.2046  0.1798 -0.4822
34683SOL    HW210908   4.769   8.038  10.502 -0.3122  0.0437 -0.0083
34684SOL     OW10909   8.257   9.586   9.596 -0.1387  0.1435  0.0398
34684SOL    HW110910   8.163   9.588   9.618 -0.2797 -0.2144 -0.5186
34684SOL    HW210911   8.273   9.668   9.550 -0.3947 -0.2373 -0.7292
34685SOL     OW10912   1.001   7.589  10.474  0.5777  0.2110  0.4151
34685SOL    HW110913   0.977   7.511  10.423 -0.1300  0.1698  0.7881
34685SOL    HW210914   1.076   7.561  10.526  0.0011 -0.3953  0.9379
34686SOL     OW10915  11.133   8.145   5.259  0.4050  0.0242 -0.5894
34686SOL    HW110916  11.080   8.218   5.289 -0.1563 -0.1894 -1.0422
34686SOL    HW210917  11.160   8.169   5.170  0.6023 -0.1132 -0.5676
34687SOL     OW10918   7.147   8.632  11.218  0.4896  0.1001  0.8420
34687SOL    HW110919   7.074   8.649  11.159  1.0435  0.6479  0.3051
34687SOL    HW210920   7.209   8.703  11.201  1.3281 -0.5751  0.9939
34688SOL     OW10921  10.740   7.378   6.147  0.3006 -0.6612  0.0808
34688SOL    HW110922  10.767   7.465   6.118 -1.8170  0.2825  0.6710
34688SOL    HW210923  10.793   7.317   6.096  0.1501  0.9605 -2.1500
34689SOL     OW10924   1.073   5.645   3.405  0.5068 -0.2431 -0.2096
34689SOL    HW110925   0.984   5.623   3.376 -0.1997  1.5619  0.4567
34689SOL    HW210926   1.095   5.576   3.467 -0.4145 -0.7267 -0.3919
34690SOL     OW10927   1.180   6.418   2.648  0.3006 -0.2555  0.3810
34690SOL    HW110928   1.265   6.411   2.692 -1.4419 -0.0886  4.1638
34690SOL    HW210929   1.124   6.464   2.710 -2.5101  0.0500 -2.1325
34691SOL     OW10930   6.156   9.088   2.187 -0.1802 -0.1339  0.8598
34691SOL    HW110931   6.250   9.104   2.197 -0.1967  0.0116  0.7942
34691SOL    HW210932   6.117   9.175   2.197 -0.2182 -0.0117 -0.1721
34692SOL     OW10933   3.021   8.255  11.539  0.5371 -0.1463 -0.2697
34692SOL    HW110934   3.083   8.296  11.479  0.5680 -1.0238 -0.8613
34692SOL    HW210935   3.055   8.275  11.626  1.3269 -0.1048 -0.5799
34693SOL     OW10936   2.768   6.296   7.618 -0.5700 -0.8594  0.4582
34693SOL    HW110937   2.682   6.332   7.639 -0.3715 -0.8799  1.3637
34693SOL    HW210938   2.771   6.294   7.523 -0.5731  1.6420  0.3231
34694SOL     OW10939   0.884   0.209   0.242 -0.8490 -0.5078  0.4900
34694SOL    HW110940   0.853   0.285   0.192  1.5652  1.3835  1.6495
34694SOL    HW210941   0.921   0.247   0.322  0.3977 -2.9395  1.1382
34695SOL     OW10942   4.508   6.696  10.222 -0.4182  0.0157  0.5676
34695SOL    HW110943   4.465   6.710  10.138  1.1389  0.8005 -0.1331
34695SOL    HW210944   4.555   6.613  10.212  0.0748  0.2940  0.5076
34696SOL     OW10945  10.267   9.220   1.834  1.0557 -0.3148 -0.6098
34696SOL    HW110946  10.293   9.272   1.757 -1.6017  0.8635 -0.8342
34696SOL    HW210947  10.251   9.132   1.800  0.6551  0.0080 -1.2835
34697SOL     OW10948   1.696   7.598   1.421 -0.0156 -0.0384  0.3191
34697SOL    HW110949   1.698   7.549   1.339 -0.0184 -0.0757  0.3411
34697SOL    HW210950   1.787   7.622   1.437  0.2711 -1.5799  1.2222
34698SOL     OW10951   9.600   6.673   8.102 -0.0149  0.3044 -0.1676
34698SOL    HW110952   9.691   6.677   8.072 -0.6125 -0.5096 -2.3304
34698SOL    HW210953   9.553   6.733   8.044 -1.4312 -2.1634 -1.7794
34699SOL     OW10954   9.240   0.759   3.416 -0.1506 -0.2788 -0.3777
34699SOL    HW110955   9.222   0.670   3.445 -1.6965 -0.0407 -0.5287
34699SOL    HW210956   9.335   0.762   3.405 -0.1141 -2.0261 -0.7880
34700SOL     OW10957   8.831   2.144   3.055  0.4353  0.1668 -0.5420
34700SOL    HW110958   8.858   2.235   3.067  0.3637  0.6230 -3.1977
34700SOL    HW210959   8.740   2.150   3.025  0.5645 -0.7307 -1.1575
34701SOL     OW10960   7.807   3.595  11.942 -0.2040 -0.1230 -0.1724
34701SOL    HW110961   7.861   3.640  12.007  1.5988 -0.8261 -1.1244
34701SOL    HW210962   7.837   3.627  11.858 -1.0985 -0.7483 -0.7575
34702SOL     OW10963   4.738   6.947   9.630  0.4525 -0.0424  0.5435
34702SOL    HW110964   4.670   6.880   9.626  0.2273  0.2581 -1.1679
34702SOL    HW210965   4.693   7.025   9.664  0.1411 -0.0857  0.2347
34703SOL     OW10966   7.257   4.563   0.864 -0.0384 -0.1818  0.1500
34703SOL    HW110967   7.305   4.565   0.781  0.9476 -0.5906  0.7010
34703SOL    HW210968   7.302   4.627   0.919 -1.8099  1.4601 -0.2006
34704SOL     OW10969   1.626   5.693   1.612 -0.2284  0.5032  0.4318
34704SOL    HW110970   1.677   5.772   1.595 -0.4481  0.1748 -2.0957
34704SOL    HW210971   1.547   5.725   1.656  0.0379  1.5937  0.1631
34705SOL     OW10972   2.434   4.401   8.921  0.3376  0.7934 -0.0462
34705SOL    HW110973   2.504   4.435   8.975 -0.0722 -0.2522  1.1953
34705SOL    HW210974   2.354   4.418   8.971  0.0353 -1.0417  0.1861
34706SOL     OW10975  10.712   6.063   4.289  0.1867 -0.1088  0.4836
34706SOL    HW110976  10.721   5.995   4.356 -0.2963  0.9593  1.6522
34706SOL    HW210977  10.689   6.014   4.209  1.8960 -1.5100  0.7796
34707SOL     OW10978   7.051   2.668  11.695  0.0237 -0.2827  0.6326
34707SOL    HW110979   7.066   2.760  11.675 -0.2474  0.1034  2.1191
34707SOL    HW210980   7.058   2.624  11.610  0.2048  1.0859 -0.0918
34708SOL     OW10981   1.879   5.349  12.412  0.2507  0.3304 -0.4241
34708SOL    HW110982   1.842   5.292  12.480 -0.8050  2.3819  0.8098
34708SOL    HW210983   1.973   5.348  12.429  0.0774  0.2253  0.6418
34709SOL     OW10984   7.171   4.087   2.834  0.0087  0.0885  0.0374
34709SOL    HW110985   7.135   4.078   2.746  1.2784 -0.6720 -0.4280
34709SOL    HW210986   7.241   4.150   2.825 -0.8005  1.1451  0.8288
34710SOL     OW10987   6.407  12.519   5.336  0.6439  0.4387  0.5620
34710SOL    HW110988   6.429  12.549   5.248  0.6827 -1.4290 -0.1148
34710SOL    HW210989   6.407  12.598   5.390 -1.5103  1.9860 -1.5006
34711SOL     OW10990  12.084   0.162  11.301  0.2906 -0.2234  0.1865
34711SOL    HW110991  12.160   0.161  11.243  2.3074 -0.3405  2.6581
34711SOL    HW210992  12.077   0.253  11.330 -0.5494 -0.2161 -0.0045
34712SOL     OW10993   6.381   4.059   2.930  0.4375 -0.2040 -0.6846
34712SOL    HW110994   6.345   4.142   2.960  0.8190 -0.5044  0.7074
34712SOL    HW210995   6.306   3.999   2.929  0.1210  0.1915 -1.8994
34713SOL     OW10996   5.190   5.375   4.639  0.6892  0.1886  0.8893
34713SOL    HW110997   5.247   5.314   4.593 -0.1909  0.4751 -0.6227
34713SOL    HW210998   5.193   5.346   4.730  1.9867 -0.7656  0.5739
34714SOL     OW10999   2.681   7.047   5.395 -0.2242 -0.3646  0.1681
34714SOL    HW111000   2.620   7.021   5.465 -1.8988  0.5918 -0.8949
34714SOL    HW211001   2.696   6.966   5.346 -4.1866  0.0641 -2.1863
34715SOL     OW11002  11.025  10.780   3.573 -0.0572  0.5912 -0.2848
34715SOL    HW111003  11.041  10.874   3.574  1.3186  0.4070 -1.3985
34715SOL    HW211004  10.963  10.767   3.501  0.0128  0.6139 -0.3495
34716SOL     OW11005   4.581   3.004   3.740  0.6342  0.3547  0.4560
34716SOL    HW111006   4.537   2.936   3.689 -0.2373  1.1901  0.0420
34716SOL    HW211007   4.563   3.085   3.691  0.2266  1.1042  1.7928
34717SOL     OW11008   7.593   3.056   9.467 -0.2593  0.5119 -0.3326
34717SOL    HW111009   7.589   2.971   9.424 -1.1085  0.8039 -0.8498
34717SOL    HW211010   7.524   3.108   9.425 -1.1878  0.7767  1.4283
34718SOL     OW11011   1.405   1.719  11.799  0.5013 -0.0362  0.2246
34718SOL    HW111012   1.458   1.775  11.742 -0.0441  1.4105  1.0991
34718SOL    HW211013   1.461   1.643  11.815  1.3486  0.3388 -0.8208
34719SOL     OW11014   8.239  11.663   4.221  0.5038  0.1024  0.4209
34719SOL    HW111015   8.236  11.577   4.181  0.1740  0.0876  0.4708
34719SOL    HW211016   8.172  11.713   4.175  0.3597  0.1863  0.7206
34720SOL     OW11017   3.630   9.636   5.058  0.0153  0.4719 -0.1191
34720SOL    HW111018   3.716   9.674   5.039 -0.7381  2.1155 -0.3785
34720SOL    HW211019   3.573   9.672   4.991 -0.9578 -0.3562  0.2447
34721SOL     OW11020   9.092   4.570  11.758 -0.1128 -0.4132 -0.3693
34721SOL    HW111021   9.103   4.660  11.789 -0.1535 -0.3167 -0.6356
34721SOL    HW211022   9.045   4.578  11.676  0.4776 -0.6334 -0.7363
34722SOL     OW11023   6.695   2.663   4.684  0.0378  0.1241 -0.0310
34722SOL    HW111024   6.764   2.644   4.749  0.3241 -1.8412 -0.8144
34722SOL    HW211025   6.705   2.593   4.619 -1.5661  0.8501 -1.1052
34723SOL     OW11026   9.944   7.000  12.359 -0.5602 -0.1804 -0.4489
34723SOL    HW111027   9.950   6.966  12.269 -1.9958 -1.5282 -0.0836
34723SOL    HW211028  10.022   7.053  12.369  0.1356 -0.7766 -2.1815
34724SOL     OW11029  10.447   3.570   7.541 -0.0500 -0.8703 -0.4387
34724SOL    HW111030  10.520   3.631   7.546  0.4552 -1.5549  2.7119
34724SOL    HW211031  10.481   3.488   7.578 -2.7196 -0.7568  2.7227
34725SOL     OW11032   3.704   8.385  10.664 -0.3776  0.2073 -0.1652
34725SOL    HW111033   3.679   8.400  10.756 -1.6056 -0.6989 -0.3243
34725SOL    HW211034   3.703   8.472  10.625 -0.4173  0.5420  0.5483
34726SOL     OW11035   4.215   4.230   9.661  0.1652  0.0973  0.3213
34726SOL    HW111036   4.296   4.259   9.619 -0.5417  0.9640 -0.5008
34726SOL    HW211037   4.227   4.250   9.754  0.8072  0.4052  0.1765
34727SOL     OW11038   7.622  10.569   9.142 -0.0821 -0.7564 -0.1915
34727SOL    HW111039   7.702  10.520   9.161  0.6295  0.3489 -0.2643
34727SOL    HW211040   7.554  10.501   9.133  0.7878 -1.6927  0.1010
34728SOL     OW11041   2.159   2.515   3.990  0.3501 -0.1835  0.2039
34728SOL    HW111042   2.206   2.538   4.070 -1.0190  0.4025  0.8708
34728SOL    HW211043   2.076   2.562   3.996 -0.6425 -1.7291 -0.5912
34729SOL     OW11044   3.404   9.100   4.156 -0.2825  0.1353 -0.1503
34729SOL    HW111045   3.427   9.191   4.174  0.5589  0.1726 -1.2432
34729SOL    HW211046   3.454   9.049   4.220  0.8444  0.3679 -0.7975
34730SOL     OW11047   6.676   6.663  10.117  0.0453 -0.0159 -0.2996
34730SOL    HW111048   6.743   6.674  10.185  1.1203 -1.7047 -1.0195
34730SOL    HW211049   6.602   6.624  10.163  0.6119 -0.7565  0.0089
34731SOL     OW11050   5.462   1.540   5.433  0.4121 -0.2062 -0.1204
34731SOL    HW111051   5.513   1.500   5.362 -0.7235 -0.9667 -0.5451
34731SOL    HW211052   5.428   1.466   5.483 -1.0776  0.2266 -0.4395
34732SOL     OW11053  10.016   3.638  11.220 -0.0645 -0.2917 -0.5754
34732SOL    HW111054  10.081   3.702  11.249  0.4399 -0.6760 -0.8440
34732SOL    HW211055   9.933   3.685  11.226 -0.0268 -0.4031  1.6456
34733SOL     OW11056  11.719  11.996   3.096  0.4236  0.8762 -0.3573
34733SOL    HW111057  11.717  11.984   3.001  0.8783 -0.3690 -0.2219
34733SOL    HW211058  11.641  12.049   3.116  0.4340  1.3136 -1.4315
34734SOL     OW11059   1.416   8.067   7.616 -0.4482 -0.2244  0.2634
34734SOL    HW111060   1.383   8.157   7.603 -0.4078 -0.0052  1.5287
34734SOL    HW211061   1.388   8.020   7.538  0.2750  1.1021 -0.8304
34735SOL     OW11062   2.989   5.673   0.665  0.3192 -0.1675 -0.0461
34735SOL    HW111063   3.036   5.751   0.696 -1.0748 -0.3184  2.8682
34735SOL    HW211064   2.958   5.697   0.578  3.0029  1.0975 -0.7457
34736SOL     OW11065  12.352   1.191   8.945 -0.1880  0.3686  0.2307
34736SOL    HW111066  12.416   1.149   9.002  0.2688  0.0788 -0.4806
34736SOL    HW211067  12.395   1.270   8.915  0.2549 -0.3375 -1.0586
34737SOL     OW11068   8.542   8.876   6.694 -0.4033  0.2018 -0.6671
34737SOL    HW111069   8.610   8.812   6.717 -0.2846 -0.1296 -1.8893
34737SOL    HW211070   8.591   8.950   6.657 -0.5437  0.9972  0.6546
34738SOL     OW11071  10.741   3.646   3.250 -0.3064  0.1924 -0.2469
34738SOL    HW111072  10.760   3.610   3.337 -3.7808 -0.9372  0.1908
34738SOL    HW211073  10.720   3.738   3.267 -2.2444 -0.3220  0.3963
34739SOL     OW11074   4.464   9.990   8.339 -0.9515 -0.1854  0.1655
34739SOL    HW111075   4.446   9.979   8.433  0.1112  1.6806  0.6413
34739SOL    HW211076   4.559  10.004   8.335 -1.2810  2.3239 -0.8460
34740SOL     OW11077  10.567   9.661   6.694 -0.3301  0.5328 -0.0203
34740SOL    HW111078  10.528   9.683   6.779 -2.4651 -0.1463 -0.7778
34740SOL    HW211079  10.502   9.689   6.630  0.6396 -0.2549 -1.3808
34741SOL     OW11080   8.206  10.935   0.245  0.4366  0.1819 -1.0825
34741SOL    HW111081   8.252  10.889   0.175  1.5171  1.3886 -1.2011
34741SOL    HW211082   8.143  10.871   0.279  1.4734 -1.1671 -1.6332
34742SOL     OW11083   8.410   6.823   0.530 -0.1964  0.4616  0.1217
34742SOL    HW111084   8.365   6.738   0.528 -0.0141  0.3640 -1.5714
34742SOL    HW211085   8.340   6.888   0.532 -0.3658  0.2779  0.1484
34743SOL     OW11086   2.159   7.084   0.045  0.3389 -0.3910  0.3135
34743SOL    HW111087   2.183   7.069  -0.046  0.5368 -1.7351  0.5680
34743SOL    HW211088   2.168   7.178   0.057 -0.2714 -0.1138 -1.2159
34744SOL     OW11089   7.775   8.562   3.937 -0.5038  0.5721  0.1519
34744SOL    HW111090   7.781   8.610   3.854  2.3939 -0.6678 -0.4589
34744SOL    HW211091   7.681   8.564   3.958 -1.3742  0.9515 -3.1222
34745SOL     OW11092   2.367   3.243   4.093 -0.2672  0.0153  0.2350
34745SOL    HW111093   2.341   3.267   4.004 -2.0999 -0.7096  0.5397
34745SOL    HW211094   2.433   3.174   4.080 -2.7273 -2.3566 -0.6433
34746SOL     OW11095   6.890   6.976   8.947 -0.9837  0.1574  0.2387
34746SOL    HW111096   6.831   6.901   8.944 -2.1821  1.0920 -0.2380
34746SOL    HW211097   6.875   7.022   8.865  1.9229 -0.6416 -0.8767
34747SOL     OW11098   6.315   7.409   7.150 -0.0367 -0.3832 -0.3499
34747SOL    HW111099   6.285   7.335   7.201  1.0918  1.1243  2.7621
34747SOL    HW211100   6.411   7.400   7.149 -0.0292 -0.8221 -3.0913
34748SOL     OW11101   4.920   3.097   7.828 -0.1269  0.2178  0.0387
34748SOL    HW111102   4.842   3.117   7.777 -1.4921 -0.7310  1.6539
34748SOL    HW211103   4.988   3.081   7.762 -1.4679  0.3179 -1.4346
34749SOL     OW11104  10.555  11.700  11.985 -0.5202 -0.5759 -0.3017
34749SOL    HW111105  10.465  11.720  11.960  0.1001  1.0550 -1.4148
34749SOL    HW211106  10.602  11.783  11.975  1.1069 -1.3688  0.2954
34750SOL     OW11107   3.459   3.055  11.808 -0.3582  0.0276  0.2463
34750SOL    HW111108   3.429   3.003  11.882 -0.8990 -1.4579 -0.9484
34750SOL    HW211109   3.475   2.991  11.739  2.4165  1.0778 -0.2364
34751SOL     OW11110   1.459   2.691   8.090 -0.1716 -0.4101 -0.2089
34751SOL    HW111111   1.463   2.597   8.108  1.0334 -0.3120  0.1411
34751SOL    HW211112   1.550   2.717   8.077 -0.6298  0.3043 -2.5793
34752SOL     OW11113  10.714   8.588   6.911  0.0099 -1.0946  0.7763
34752SOL    HW111114  10.645   8.622   6.854 -0.0163 -2.0838  0.2003
34752SOL    HW211115  10.743   8.664   6.962 -1.6808 -0.7119  1.2276
34753SOL     OW11116   3.869   2.964  12.163 -0.2855  0.5808  0.0272
34753SOL    HW111117   3.864   2.872  12.140  1.6298  0.3348  0.4112
34753SOL    HW211118   3.791   3.003  12.125 -1.2885 -1.2370  0.1046
34754SOL     OW11119   0.535   5.688   4.194 -0.4374 -0.2909  0.0889
34754SOL    HW111120   0.543   5.599   4.230  0.7635 -0.0347  0.5212
34754SOL    HW211121   0.601   5.692   4.125  0.5127  0.6708  0.9972
34755SOL     OW11122  11.310   7.766   8.354 -0.0186 -0.1006  0.2016
34755SOL    HW111123  11.386   7.783   8.409 -1.5721  0.7609  2.2207
34755SOL    HW211124  11.304   7.843   8.297  0.6180 -0.1891  0.0078
34756SOL     OW11125   6.111   0.831   9.468 -0.5084 -0.1617 -0.2206
34756SOL    HW111126   6.134   0.821   9.561  0.2113 -0.8657 -0.4610
34756SOL    HW211127   6.103   0.742   9.436 -2.0866  0.0792 -0.5414
34757SOL     OW11128   6.046   2.333   3.636 -0.1998  0.2889 -0.0646
34757SOL    HW111129   6.071   2.241   3.626 -2.1622 -0.2535 -0.3884
34757SOL    HW211130   5.962   2.340   3.591  0.8560  2.7503 -1.9045
34758SOL     OW11131  10.905   3.727   0.954 -0.1340  0.3947 -0.4930
34758SOL    HW111132  10.870   3.678   0.879  0.3178  2.0329 -1.8206
34758SOL    HW211133  10.853   3.696   1.029 -1.2924 -0.5511 -1.6461
34759SOL     OW11134   8.975   7.060   1.197 -0.5200  1.0247  0.1721
34759SOL    HW111135   8.937   7.017   1.273 -0.0718  0.1420 -0.0874
34759SOL    HW211136   8.952   7.003   1.123  1.1850  0.5273 -0.0031
34760SOL     OW11137   2.367   9.561   6.037 -0.1052 -0.1024 -0.7419
34760SOL    HW111138   2.313   9.569   6.116 -0.4210  0.4668 -1.0085
34760SOL    HW211139   2.315   9.603   5.969  0.2534 -0.4170 -1.2156
34761SOL     OW11140   0.324   7.694   2.273 -0.2126 -0.0284  0.0298
34761SOL    HW111141   0.365   7.766   2.224  1.1733 -1.4789 -1.0156
34761SOL    HW211142   0.307   7.731   2.360  2.1305  1.0545  0.0934
34762SOL     OW11143  11.791  11.651   3.362  0.2643  0.1634  0.1549
34762SOL    HW111144  11.831  11.710   3.299  0.2338  0.3292  0.2911
34762SOL    HW211145  11.863  11.598   3.395 -0.0091 -1.4411 -1.6265
34763SOL     OW11146  10.884   7.591   1.037  0.2757 -0.0930 -0.3511
34763SOL    HW111147  10.930   7.627   0.962  1.8013  0.2075  0.6929
34763SOL    HW211148  10.851   7.668   1.084 -0.8139 -0.2849 -0.7676
34764SOL     OW11149   2.939   2.628   2.200 -1.1664  0.0826  0.6830
34764SOL    HW111150   2.948   2.616   2.105 -0.2949 -0.3896  0.8141
34764SOL    HW211151   2.849   2.656   2.212 -0.7146  2.2134 -0.4847
34765SOL     OW11152  10.274  10.348   4.507 -0.2598 -0.2555 -0.3300
34765SOL    HW111153  10.362  10.331   4.538 -0.5907  0.0806  0.8401
34765SOL    HW211154  10.226  10.376   4.585 -1.3654 -0.3153 -0.9689
34766SOL     OW11155  10.656   0.020  10.665  0.5132 -0.2095  0.1937
34766SOL    HW111156  10.658  -0.073  10.642 -0.1864 -0.0310 -0.6640
34766SOL    HW211157  10.570   0.050  10.636  0.5868  0.6298  0.7965
34767SOL     OW11158   9.206   8.719   7.653  0.4844  0.1765  0.1054
34767SOL    HW111159   9.199   8.813   7.664  0.3737  0.3331 -1.1706
34767SOL    HW211160   9.234   8.687   7.739  2.8546  1.6172 -0.0307
34768SOL     OW11161   2.176   7.614   3.889  0.1721 -1.0019  0.2841
34768SOL    HW111162   2.155   7.531   3.846  0.1587 -0.2132 -1.3145
34768SOL    HW211163   2.271   7.612   3.898  0.2639 -0.8731 -0.5068
34769SOL     OW11164   8.512   7.199  10.234 -0.7681  0.2334 -0.2248
34769SOL    HW111165   8.457   7.276  10.252 -0.4905  0.2209  0.7146
34769SOL    HW211166   8.452   7.136  10.193 -1.2224  0.5940 -0.1302
34770SOL     OW11167   4.203  10.772  12.080  0.1297  0.6326 -0.6640
34770SOL    HW111168   4.111  10.746  12.077 -0.1934  1.7772 -1.5828
34770SOL    HW211169   4.238  10.744  11.995  0.2904  1.3115 -0.8301
34771SOL     OW11170   5.522   5.881   0.795  0.1628 -0.3519  0.7276
34771SOL    HW111171   5.453   5.920   0.849 -0.6434 -1.4010  0.5088
34771SOL    HW211172   5.565   5.818   0.852  1.7358  1.1100  1.2069
34772SOL     OW11173  12.569   4.865   4.255  0.0746 -0.0432  0.2878
34772SOL    HW111174  12.477   4.879   4.277  0.3076  0.6188  0.8668
34772SOL    HW211175  12.613   4.945   4.283  1.1068 -1.0512  1.6866
34773SOL     OW11176   7.964   0.922  10.785  0.2382  0.6277  0.1027
34773SOL    HW111177   8.050   0.956  10.811 -0.1814  1.1437  0.8397
34773SOL    HW211178   7.908   0.999  10.783 -0.9610 -0.0538  2.7295
34774SOL     OW11179  10.675   9.631   1.616 -0.2870 -0.1280 -0.0573
34774SOL    HW111180  10.671   9.623   1.521 -0.1130 -0.6996 -0.0218
34774SOL    HW211181  10.691   9.542   1.647 -0.7479 -0.0131  0.5322
34775SOL     OW11182   7.709  11.907   7.993 -0.7859  0.2588  0.7399
34775SOL    HW111183   7.755  11.968   7.936  1.0329  1.6279  3.4350
34775SOL    HW211184   7.630  11.954   8.020 -0.0935  0.9194  1.6988
34776SOL     OW11185   9.589   8.835  10.458  0.1618  0.3538 -0.4406
34776SOL    HW111186   9.635   8.914  10.431  0.2246  0.1072 -1.0705
34776SOL    HW211187   9.509   8.835  10.404  0.8307 -0.7362 -1.4927
34777SOL     OW11188   7.471   7.036  11.388  0.6052 -0.4366  0.1983
34777SOL    HW111189   7.515   7.041  11.473  0.5203 -1.7034  0.3329
34777SOL    HW211190   7.446   6.944  11.379  0.5423 -0.3092 -1.1627
34778SOL     OW11191   1.868   6.408  11.113 -0.0287  0.3739  0.0191
34778SOL    HW111192   1.858   6.501  11.134  0.2327  0.4387 -0.1422
34778SOL    HW211193   1.949   6.404  11.062 -0.0551  0.0613  0.0040
34779SOL     OW11194   1.855   2.171   3.195  0.4147 -0.1018 -0.3110
34779SOL    HW111195   1.795   2.160   3.269 -0.3090  0.5993 -0.7722
34779SOL    HW211196   1.798   2.178   3.118  1.1280 -0.2333 -0.8689
34780SOL     OW11197  10.161   1.748   5.467 -0.3201 -0.0921  0.3270
34780SOL    HW111198  10.083   1.697   5.445 -0.3189 -0.1018  0.3450
34780SOL    HW211199  10.143   1.780   5.555  0.5270 -1.7011  1.1225
34781SOL     OW11200   5.525   4.461   0.166  0.2418  0.2589  0.0524
34781SOL    HW111201   5.590   4.530   0.177 -0.1337  0.4664  1.1126
34781SOL    HW211202   5.467   4.492   0.097 -0.0132  1.0915  0.6216
34782SOL     OW11203   7.121  11.385  11.737  0.1008  0.1055 -0.1428
34782SOL    HW111204   7.211  11.353  11.735  0.8938  2.2084 -1.3434
34782SOL    HW211205   7.125  11.466  11.788 -1.0956  0.2529 -0.2463
34783SOL     OW11206  11.631   9.801   3.523  0.4591  0.3619 -0.2176
34783SOL    HW111207  11.555   9.761   3.566  0.6782 -2.3078 -2.0406
34783SOL    HW211208  11.672   9.854   3.591 -1.5228 -0.2577  1.5864
34784SOL     OW11209  10.997   8.064  10.401  0.4799 -0.4140  0.3370
34784SOL    HW111210  10.934   8.078  10.330 -0.5188  0.8028  1.4115
34784SOL    HW211211  11.063   8.006  10.363 -0.2221 -0.1134 -1.4646
34785SOL     OW11212   2.316  10.419   4.458 -0.4187  0.1356  0.2752
34785SOL    HW111213   2.255  10.414   4.531  0.6534  0.9000  1.2545
34785SOL    HW211214   2.364  10.335   4.460  0.1949  0.4911  1.0017
34786SOL     OW11215   0.332   9.450   1.346  0.1419  0.0830 -0.0914
34786SOL    HW111216   0.338   9.478   1.437  0.7615  0.7762 -0.3294
34786SOL    HW211217   0.241   9.465   1.322  0.5013  2.2529 -0.2944
34787SOL     OW11218  12.188   3.460   5.725 -0.0870 -0.1579 -0.1923
34787SOL    HW111219  12.219   3.418   5.805 -0.8094  1.7969  1.2097
34787SOL    HW211220  12.108   3.413   5.701 -0.3050 -0.2547  0.7068
34788SOL     OW11221   8.941   7.993   6.951  0.0556  0.2002 -0.4467
34788SOL    HW111222   8.946   8.030   7.039 -1.7372 -0.2504 -0.1257
34788SOL    HW211223   8.993   7.912   6.957  0.6559  0.6045 -0.0583
34789SOL     OW11224   4.623   7.080  11.317  0.1324  0.5325 -0.5802
34789SOL    HW111225   4.559   7.114  11.255  0.6346  0.6578 -1.0309
34789SOL    HW211226   4.607   6.985  11.319 -1.2917  0.7649  0.7028
34790SOL     OW11227   9.049   8.342   6.655 -0.8072  0.6346 -0.2695
34790SOL    HW111228   9.083   8.343   6.566 -1.2687 -1.6924 -0.5446
34790SOL    HW211229   8.954   8.353   6.645 -0.7621  1.4139  0.0465
34791SOL     OW11230  10.812   2.840   9.777 -0.0046  0.3466 -0.4735
34791SOL    HW111231  10.815   2.883   9.862  0.4617  0.3648 -0.4936
34791SOL    HW211232  10.724   2.802   9.772  0.1235 -0.0795  0.2302
34792SOL     OW11233  10.763   7.934   3.723 -0.2130  0.0616 -0.1515
34792SOL    HW111234  10.717   7.932   3.639  0.7257 -0.2335 -0.6683
34792SOL    HW211235  10.790   8.025   3.733  0.8268 -0.1594 -0.8208
34793SOL     OW11236   7.933  11.876   5.559 -0.5466  0.3682 -0.6602
34793SOL    HW111237   7.965  11.787   5.569 -0.4463  0.5470  0.7943
34793SOL    HW211238   7.841  11.866   5.537 -0.4537 -0.0991 -0.8412
34794SOL     OW11239   9.986   0.312  10.773 -0.9588  0.9284 -0.2840
34794SOL    HW111240   9.933   0.355  10.706  0.7171  0.4593 -1.9819
34794SOL    HW211241  10.072   0.301  10.733 -0.9245 -2.8225  0.4835
34795SOL     OW11242   7.163   2.507   6.567 -0.5218  0.2732  0.3576
34795SOL    HW111243   7.234   2.474   6.512  0.5367 -1.4307  2.5791
34795SOL    HW211244   7.116   2.568   6.511  0.7271 -0.9936 -2.2629
34796SOL     OW11245   0.531   1.722  12.041 -0.0812 -0.2491  0.1620
34796SOL    HW111246   0.581   1.799  12.013 -0.0596 -0.5462 -0.6598
34796SOL    HW211247   0.449   1.758  12.075 -0.3213  0.1224 -0.7698
34797SOL     OW11248  11.429   3.208   3.622  0.2766  0.1998  0.2708
34797SOL    HW111249  11.456   3.231   3.711  2.1822 -1.0664  0.0900
34797SOL    HW211250  11.495   3.249   3.566  1.1701 -1.8343 -0.2894
34798SOL     OW11251   2.921   2.220  10.914  0.2673 -0.2142  0.6345
34798SOL    HW111252   2.856   2.232  10.983  1.0225  0.9795  1.1669
34798SOL    HW211253   2.995   2.178  10.958  0.1156 -0.9922  0.1682
34799SOL     OW11254   5.411   0.988   2.213  0.4689  0.1090  0.0528
34799SOL    HW111255   5.372   1.050   2.151  1.0644  0.8757  0.4333
34799SOL    HW211256   5.442   1.043   2.285  3.2966 -0.3038 -0.7403
34800SOL     OW11257   9.263   6.761   2.761  0.2382 -0.3320 -0.0531
34800SOL    HW111258   9.240   6.818   2.688  0.4381 -1.3093 -0.8989
34800SOL    HW211259   9.179   6.726   2.792  0.1160  0.4060  0.4650
34801SOL     OW11260   8.306   9.763   9.201 -0.4151  0.5935  0.3497
34801SOL    HW111261   8.392   9.747   9.162 -0.8547  0.0482 -0.4135
34801SOL    HW211262   8.281   9.678   9.238 -0.4980  0.8242  0.8258
34802SOL     OW11263   0.479   1.299   1.804 -0.0044  0.2354 -1.0386
34802SOL    HW111264   0.506   1.327   1.892  0.0250  0.8203 -1.2303
34802SOL    HW211265   0.477   1.203   1.809  2.5321  0.1050 -1.1399
34803SOL     OW11266   8.067  11.086   9.900 -0.1087  0.5395  0.2423
34803SOL    HW111267   8.099  11.108   9.812 -0.0057 -1.5437 -0.3118
34803SOL    HW211268   8.144  11.050   9.944 -1.0722 -2.7444 -0.4566
34804SOL     OW11269   7.313   8.846   2.379 -0.3034  0.8711 -0.2692
34804SOL    HW111270   7.376   8.848   2.451 -0.5426  0.5752 -0.0488
34804SOL    HW211271   7.231   8.819   2.420 -0.0180 -1.1797 -0.9494
34805SOL     OW11272   1.086   4.238   5.884  0.2033 -0.2223  0.1505
34805SOL    HW111273   1.059   4.181   5.812  0.3565  1.0472 -0.9577
34805SOL    HW211274   1.181   4.236   5.882  0.2097 -0.7164  0.7712
34806SOL     OW11275   4.867   5.416   2.246 -0.2771 -0.5810 -0.5718
34806SOL    HW111276   4.906   5.414   2.333 -0.3617  0.0061 -0.5168
34806SOL    HW211277   4.913   5.486   2.200 -0.2888 -0.8294 -0.9733
34807SOL     OW11278  10.386   5.663   7.070 -0.2717 -0.3839 -0.1214
34807SOL    HW111279  10.414   5.618   7.150  0.8623  1.7312  0.7436
34807SOL    HW211280  10.305   5.619   7.045  0.3369 -2.3325  1.1113
34808SOL     OW11281  12.256   7.041   5.639 -0.2639 -0.2598 -0.9997
34808SOL    HW111282  12.225   7.128   5.615  3.0093  1.2869 -0.1360
34808SOL    HW211283  12.309   7.013   5.564 -0.5038 -1.1126 -0.8659
34809SOL     OW11284   0.820   3.092  11.546 -0.1501  0.0702 -0.2474
34809SOL    HW111285   0.792   3.002  11.532  3.2646 -0.7994 -2.6218
34809SOL    HW211286   0.764   3.144  11.487 -1.6907 -0.4785  0.6588
34810SOL     OW11287   5.333   7.792   8.206  0.5394  0.6530 -0.0184
34810SOL    HW111288   5.377   7.731   8.146 -0.9548 -0.0262 -0.4739
34810SOL    HW211289   5.276   7.844   8.149 -0.8245  0.0746  0.7896
34811SOL     OW11290  10.201   3.519   7.797 -0.5273  0.3668  0.2671
34811SOL    HW111291  10.150   3.460   7.741  1.4733 -0.6184 -0.6306
34811SOL    HW211292  10.201   3.603   7.751 -1.4067  0.4127  0.3400
34812SOL     OW11293   9.676   4.097   4.521  0.4343 -0.9103  0.4317
34812SOL    HW111294   9.719   4.061   4.444 -0.3583 -0.0268 -0.4409
34812SOL    HW211295   9.685   4.028   4.587  1.9875 -1.2793 -0.1288
34813SOL     OW11296   5.541   3.365   5.871  0.1211  0.5737  0.2031
34813SOL    HW111297   5.473   3.312   5.830  0.9767 -0.2204 -0.2350
34813SOL    HW211298   5.500   3.450   5.885  0.5528  1.9599 -4.9961
34814SOL     OW11299   9.345  11.729   8.996  0.8002  0.5298  0.1902
34814SOL    HW111300   9.380  11.673   9.065 -0.7455 -0.8983 -0.1088
34814SOL    HW211301   9.325  11.669   8.924 -1.8743  1.2519  0.2359
34815SOL     OW11302   8.847   7.955   5.504  0.1950  0.7636  0.3708
34815SOL    HW111303   8.831   8.005   5.423  1.1008  0.9307  0.2939
34815SOL    HW211304   8.759   7.935   5.536 -0.1804  1.0293 -0.4508
34816SOL     OW11305   9.375   7.174   1.797  0.2492  0.1965 -0.0038
34816SOL    HW111306   9.405   7.263   1.816  0.9727  0.1186 -0.7064
34816SOL    HW211307   9.434   7.143   1.728 -1.6198  0.1357 -1.6830
34817SOL     OW11308   5.715   0.577   7.050  0.1150 -0.1958  0.0329
34817SOL    HW111309   5.805   0.599   7.072  0.6806 -1.2799 -1.0977
34817SOL    HW211310   5.695   0.630   6.973  0.3124 -1.0208 -0.6083
34818SOL     OW11311   8.792   8.026   8.684  0.6147 -0.5150  0.0531
34818SOL    HW111312   8.724   7.997   8.624  0.8832  1.5489 -1.3621
34818SOL    HW211313   8.844   7.947   8.702 -0.9267 -1.6864 -0.4431
34819SOL     OW11314   6.732   3.425   6.274 -0.0541 -0.0705 -0.0619
34819SOL    HW111315   6.703   3.404   6.362  1.4612 -0.7613  0.3047
34819SOL    HW211316   6.810   3.371   6.261 -0.7733 -0.7015 -2.1701
34820SOL     OW11317   8.078   0.537  11.629  0.1849 -0.0674  0.3323
34820SOL    HW111318   8.156   0.482  11.621 -0.4264 -0.8596 -0.2687
34820SOL    HW211319   8.009   0.478  11.659 -0.0277  0.7821  1.6078
34821SOL     OW11320   4.145   3.439   9.521 -0.0427 -0.3731 -0.3011
34821SOL    HW111321   4.162   3.533   9.523  1.4852 -0.6209 -0.6581
34821SOL    HW211322   4.052   3.431   9.544  0.2466  1.0797  1.5735
34822SOL     OW11323  11.473   2.516   0.652 -0.5626 -0.2449 -0.4737
34822SOL    HW111324  11.474   2.545   0.561 -0.0238  0.9367 -0.1109
34822SOL    HW211325  11.467   2.597   0.703  2.3015 -0.5998  0.6147
34823SOL     OW11326   4.411  10.526   7.615  0.9358  0.2886 -0.2520
34823SOL    HW111327   4.472  10.460   7.583  0.5710 -0.3520  0.3460
34823SOL    HW211328   4.349  10.538   7.543 -0.0177 -1.3099  0.2606
34824SOL     OW11329   2.649   9.953   4.592 -0.1113 -0.5707  0.1596
34824SOL    HW111330   2.626  10.038   4.556  0.2045 -1.1729 -1.5442
34824SOL    HW211331   2.652   9.967   4.687  2.0529  1.8249 -0.1762
34825SOL     OW11332   6.233   5.958   6.484  0.2603  0.1212  0.2467
34825SOL    HW111333   6.268   6.008   6.558 -0.9538 -2.8978  3.1232
34825SOL    HW211334   6.140   5.948   6.505  0.2921 -2.5443 -0.6092
34826SOL     OW11335  11.183   9.789  11.401 -0.0752  0.3331 -0.2028
34826SOL    HW111336  11.122   9.854  11.435 -2.0151 -0.5778 -1.7565
34826SOL    HW211337  11.128   9.712  11.383  1.7747 -1.0119 -0.3917
34827SOL     OW11338  11.779   7.382  12.431 -0.1106  0.0021 -0.4311
34827SOL    HW111339  11.860   7.394  12.480  0.0106 -0.1601 -0.5920
34827SOL    HW211340  11.806   7.386  12.339 -0.4400  1.0322 -0.4922
34828SOL     OW11341   7.827   3.805   9.148 -0.8627  0.1663  0.0783
34828SOL    HW111342   7.851   3.833   9.237 -1.7897  1.8426 -0.1559
34828SOL    HW211343   7.866   3.718   9.139 -0.1047  0.2761  1.8503
34829SOL     OW11344   1.346   1.165   1.743 -0.2827 -0.2731  0.4101
34829SOL    HW111345   1.275   1.223   1.770 -1.6042 -2.0755  0.9761
34829SOL    HW211346   1.365   1.191   1.653 -1.4080  0.4826  0.3718
34830SOL     OW11347   8.509   6.378   0.118  0.2358  0.1626  0.0554
34830SOL    HW111348   8.531   6.318   0.046  1.3017  0.2847  0.2592
34830SOL    HW211349   8.482   6.320   0.189  0.0364 -0.0059 -0.1534
34831SOL     OW11350   4.097   2.590   4.349  0.0704 -0.0132 -0.0361
34831SOL    HW111351   4.192   2.598   4.361  0.1519  0.6346 -1.0582
34831SOL    HW211352   4.079   2.496   4.361  0.5012  0.1574  2.3711
34832SOL     OW11353   6.371   5.725  12.201  0.7354  0.2299 -0.2318
34832SOL    HW111354   6.424   5.805  12.208  3.2710 -1.4877  2.7237
34832SOL    HW211355   6.315   5.728  12.278  1.8617 -1.3950  0.7112
34833SOL     OW11356   7.314   5.791   1.156 -0.2996 -0.3864 -0.3061
34833SOL    HW111357   7.232   5.837   1.142  0.3208  0.6543 -0.5747
34833SOL    HW211358   7.290   5.698   1.151 -1.5099 -0.1039 -0.0130
34834SOL     OW11359   7.185   3.858   1.600 -0.0755 -0.6138 -0.6257
34834SOL    HW111360   7.222   3.943   1.575 -0.6935 -0.3549 -0.6806
34834SOL    HW211361   7.092   3.866   1.579 -0.4665 -0.6868  0.9551
34835SOL     OW11362   5.591   2.177   6.632 -0.2916  0.1723 -0.2224
34835SOL    HW111363   5.589   2.086   6.604 -0.0024 -1.1679  3.4951
34835SOL    HW211364   5.665   2.216   6.586 -0.9413 -1.1598 -2.5286
34836SOL     OW11365   2.410   6.042   2.747 -0.3225 -0.6762 -0.2537
34836SOL    HW111366   2.450   6.127   2.762 -2.5465  0.2010  1.3245
34836SOL    HW211367   2.449   5.985   2.814 -1.0899 -0.0289  0.7832
34837SOL     OW11368   4.571  11.886   1.373 -0.5980 -0.0521  0.4286
34837SOL    HW111369   4.616  11.964   1.405 -0.6973 -1.3039  4.0994
34837SOL    HW211370   4.479  11.901   1.393 -0.5044 -1.3999  2.1889
34838SOL     OW11371  11.025  10.840   9.961 -0.0482  0.6285 -0.6539
34838SOL    HW111372  10.930  10.846   9.958 -0.1086  0.5582  0.5762
34838SOL    HW211373  11.055  10.931   9.951 -0.2278  0.6269 -1.2478
34839SOL     OW11374   9.458   1.789   2.986 -0.1031  0.4024  0.3206
34839SOL    HW111375   9.439   1.828   2.901  0.6971  1.7526  0.7283
34839SOL    HW211376   9.533   1.731   2.970  0.7141  1.4430  0.2790
34840SOL     OW11377   4.867   9.472  10.649 -0.1825 -0.1070  0.1038
34840SOL    HW111378   4.825   9.542  10.600  1.1352 -0.0009 -0.9407
34840SOL    HW211379   4.961   9.488  10.638  0.1442 -1.2046  1.0720
34841SOL     OW11380   1.600  11.608  11.541 -0.9327  0.6411  0.4408
34841SOL    HW111381   1.540  11.607  11.467  0.7186  2.1356 -1.0216
34841SOL    HW211382   1.558  11.667  11.605 -2.0800 -0.1797  0.4717
34842SOL     OW11383  11.300  10.599   8.186  0.0064 -0.1405 -0.0641
34842SOL    HW111384  11.206  10.584   8.201  0.1513 -0.7716  0.2214
34842SOL    HW211385  11.341  10.514   8.202  0.6566  0.1880  0.0380
34843SOL     OW11386   0.548   1.945   1.258 -0.1149  0.0984  0.2650
34843SOL    HW111387   0.490   2.019   1.242 -0.1032  0.0479 -0.0325
34843SOL    HW211388   0.591   1.965   1.341  1.3790  1.4047 -0.7652
34844SOL     OW11389   6.132   4.899   4.643 -0.0914 -0.0645 -0.2334
34844SOL    HW111390   6.199   4.897   4.711  0.2462 -0.8334 -0.5796
34844SOL    HW211391   6.176   4.937   4.567  0.1593 -1.1555 -0.6569
34845SOL     OW11392   9.045   4.654   1.857 -0.0357 -0.0734  0.1670
34845SOL    HW111393   9.115   4.604   1.900  0.1009 -0.2971 -0.3097
34845SOL    HW211394   9.050   4.629   1.765  0.3819  1.2043 -0.1907
34846SOL     OW11395   1.993  10.124  11.371 -0.2153  0.4981 -0.1561
34846SOL    HW111396   1.916  10.181  11.374  0.4127  1.3686  2.3314
34846SOL    HW211397   1.957  10.036  11.383 -0.8437  0.9719  1.8274
34847SOL     OW11398   2.295   2.857   2.223  0.1647 -0.5241  0.5667
34847SOL    HW111399   2.211   2.899   2.202  0.1540 -0.4083  0.8398
34847SOL    HW211400   2.361   2.922   2.199  0.3231 -1.4333 -1.8221
34848SOL     OW11401  11.749   5.499   8.114  0.2502  0.5125  0.2892
34848SOL    HW111402  11.693   5.520   8.039 -0.2967 -0.7930  0.3160
34848SOL    HW211403  11.832   5.542   8.093 -0.8025  2.7855  0.4183
34849SOL     OW11404  10.475   8.244   5.998  0.0739 -0.1133  0.7940
34849SOL    HW111405  10.478   8.253   5.902 -1.6908  0.4485  0.7711
34849SOL    HW211406  10.426   8.163   6.013  0.4216 -0.2464  1.2321
34850SOL     OW11407  11.785  10.509   0.207  0.1250  0.1275 -0.0072
34850SOL    HW111408  11.777  10.418   0.180  0.4203  0.4509 -1.2665
34850SOL    HW211409  11.841  10.549   0.140 -1.6421  1.6885 -0.6343
34851SOL     OW11410   0.915   9.223   3.389  0.4567 -0.2636 -0.3716
34851SOL    HW111411   0.984   9.203   3.325  0.8663  0.3561 -0.1299
34851SOL    HW211412   0.953   9.196   3.473 -0.0130 -0.9131 -0.3624
34852SOL     OW11413   2.212  10.084   0.272 -0.3253  0.2768  0.0278
34852SOL    HW111414   2.275  10.116   0.336  0.5090 -1.0701 -0.0717
34852SOL    HW211415   2.265  10.060   0.196 -1.1412  0.5343 -0.6436
34853SOL     OW11416  12.579   4.165   8.717 -0.1118  0.7735  0.4751
34853SOL    HW111417  12.591   4.089   8.774 -0.2543 -1.4279 -2.2117
34853SOL    HW211418  12.598   4.240   8.773  0.9423 -1.2453  3.0506
34854SOL     OW11419  11.600  12.357   9.608 -0.2176  0.2094 -0.5574
34854SOL    HW111420  11.532  12.368   9.542 -1.0937 -0.5636  0.1828
34854SOL    HW211421  11.606  12.442   9.651 -2.5035 -0.3018  0.9872
34855SOL     OW11422   3.687  10.626   2.078 -0.6479  0.8953  0.1054
34855SOL    HW111423   3.653  10.680   2.149 -0.2039  3.0097 -1.2144
34855SOL    HW211424   3.776  10.658   2.065  0.9249 -2.4050  1.4074
34856SOL     OW11425   8.659   8.913   2.825 -0.6101 -0.5237  0.0845
34856SOL    HW111426   8.609   8.834   2.805  0.0316 -0.7147 -0.8031
34856SOL    HW211427   8.733   8.882   2.877 -0.4621 -0.4809 -0.1001
34857SOL     OW11428   5.882  11.429  11.822  0.2155  0.4480  0.5287
34857SOL    HW111429   5.879  11.387  11.908  1.0614 -0.0279  0.3374
34857SOL    HW211430   5.975  11.442  11.805  0.4929 -3.5903 -2.2690
34858SOL     OW11431   1.955   8.009   9.811 -0.5427  0.0599 -0.3577
34858SOL    HW111432   1.987   7.919   9.804  0.9394  0.6014 -1.0975
34858SOL    HW211433   2.035   8.062   9.820 -1.0816  1.6011 -3.3693
34859SOL     OW11434   7.071  10.575  10.565 -0.2089 -0.3439 -0.1318
34859SOL    HW111435   7.144  10.522  10.598 -0.4723 -0.4648  0.2731
34859SOL    HW211436   7.091  10.664  10.594  1.1198  0.1252 -2.2996
34860SOL     OW11437   1.140   0.754   8.487 -0.3943  0.0533 -0.4996
34860SOL    HW111438   1.158   0.773   8.395 -0.7120  0.9880 -0.3831
34860SOL    HW211439   1.181   0.669   8.502  3.4277  1.7249 -0.3740
34861SOL     OW11440   0.203   8.779   1.432  0.0275  0.6407  0.6659
34861SOL    HW111441   0.186   8.762   1.340  2.6902  0.4885  0.1159
34861SOL    HW211442   0.140   8.847   1.457 -1.1175  0.2653 -1.0743
34862SOL     OW11443  11.551   4.068   7.503  0.0630 -0.0832 -0.9220
34862SOL    HW111444  11.643   4.091   7.512  0.3432 -1.6910  1.3013
34862SOL    HW211445  11.503   4.148   7.525  0.9628 -0.0302  1.0157
34863SOL     OW11446   5.618   9.499   0.881  0.5835 -0.4936  0.1153
34863SOL    HW111447   5.526   9.510   0.856  0.2480 -0.1106  1.4325
34863SOL    HW211448   5.653   9.588   0.883  1.0055 -0.6425 -0.4282
34864SOL     OW11449  11.800  11.520   1.282  0.4280  0.1383 -0.2626
34864SOL    HW111450  11.735  11.547   1.217 -0.1848 -1.3709 -0.3047
34864SOL    HW211451  11.850  11.451   1.239  1.5668  0.7392  0.0570
34865SOL     OW11452  11.329   6.867  11.780  0.1759  0.1324 -0.1976
34865SOL    HW111453  11.293   6.806  11.716  0.9927 -0.0845 -0.4528
34865SOL    HW211454  11.303   6.830  11.865 -1.4849  0.7737 -0.3791
34866SOL     OW11455  11.521   4.722   2.647 -0.4371  0.3766  0.1226
34866SOL    HW111456  11.574   4.749   2.722  0.9353  1.5567 -1.2040
34866SOL    HW211457  11.531   4.627   2.643  0.6322  0.4605  0.5948
34867SOL     OW11458   8.311   5.738   0.577  1.0295  0.0413  0.0251
34867SOL    HW111459   8.285   5.650   0.549 -1.3411  1.0903 -1.3322
34867SOL    HW211460   8.361   5.773   0.504  1.4504  0.0546  0.3157
34868SOL     OW11461   2.778   7.817   0.812 -0.5252 -0.0089  0.4058
34868SOL    HW111462   2.845   7.883   0.793 -1.0961  0.1792 -1.0722
34868SOL    HW211463   2.821   7.758   0.874  1.3039 -0.3342 -1.0743
34869SOL     OW11464   2.843   2.761   4.624 -0.0881 -0.1295 -0.1567
34869SOL    HW111465   2.806   2.847   4.647  0.9418  0.2861 -0.0127
34869SOL    HW211466   2.787   2.698   4.670  0.3624  0.5626  1.4334
34870SOL     OW11467   2.097   8.085  12.348  0.4034  0.5448 -0.6307
34870SOL    HW111468   2.032   8.023  12.382  2.1868 -0.5017  1.1172
34870SOL    HW211469   2.054   8.170  12.353 -0.6697 -0.0395  1.0637
34871SOL     OW11470   0.060   0.155   0.038 -0.4240 -0.1234 -0.7260
34871SOL    HW111471   0.005   0.119  -0.032  0.0296 -1.4023 -0.4495
34871SOL    HW211472   0.010   0.138   0.118 -1.3689  2.1460 -0.7576
34872SOL     OW11473   6.102   6.441  11.508 -0.6284 -0.2358  0.1143
34872SOL    HW111474   6.145   6.517  11.546  2.3894 -1.0564 -1.4218
34872SOL    HW211475   6.135   6.367  11.559  0.0818 -0.9134 -1.2679
34873SOL     OW11476  10.203   5.206   7.629 -0.1996 -0.2249 -0.2287
34873SOL    HW111477  10.131   5.144   7.644  0.0058 -0.5875 -0.6892
34873SOL    HW211478  10.250   5.169   7.554  0.2451  0.2100 -0.1667
34874SOL     OW11479  12.268   8.381   3.613  0.5801  0.4343 -0.1196
34874SOL    HW111480  12.255   8.356   3.522 -0.6726  0.3900  0.0459
34874SOL    HW211481  12.322   8.311   3.649  0.4155  0.0295 -0.6416
34875SOL     OW11482   8.832   9.016  10.684  0.0634  0.5057 -0.1656
34875SOL    HW111483   8.825   9.090  10.624 -1.9104  0.4202 -0.1173
34875SOL    HW211484   8.839   9.056  10.771 -0.8102  0.6567 -0.1560
34876SOL     OW11485   8.588   8.719  11.279  0.3898 -0.4268  0.1465
34876SOL    HW111486   8.617   8.674  11.358  0.0621  1.8684  1.6804
34876SOL    HW211487   8.507   8.763  11.305 -0.0193 -0.0306 -1.6337
34877SOL     OW11488   1.190   4.880   3.384  0.4366  0.3097 -0.2609
34877SOL    HW111489   1.190   4.804   3.442  2.0300 -0.0847 -0.7080
34877SOL    HW211490   1.196   4.843   3.296 -0.3261  0.9389 -0.5933
34878SOL     OW11491   1.566   0.288  11.991  0.1200 -0.4097  0.9467
34878SOL    HW111492   1.637   0.225  12.004 -0.2567 -0.7688  1.2606
34878SOL    HW211493   1.609   0.364  11.950  0.7808 -0.4318  1.5764
34879SOL     OW11494   6.231   7.197   7.292 -0.0788  0.3249 -0.3340
34879SOL    HW111495   6.196   7.210   7.380  2.7805 -0.6912  1.0885
34879SOL    HW211496   6.287   7.119   7.300  2.2417  1.6306 -2.3914
34880SOL     OW11497  11.422   9.482   4.440  0.5208  0.2311 -0.0559
34880SOL    HW111498  11.335   9.453   4.413  1.0637 -0.6062 -0.9644
34880SOL    HW211499  11.477   9.404   4.434  1.0261  0.3775  2.0236
34881SOL     OW11500   6.641  10.970   1.996  0.1162 -0.2484  0.7922
34881SOL    HW111501   6.601  11.056   1.994 -0.4549 -0.5220 -0.0090
34881SOL    HW211502   6.574  10.913   2.032 -1.4992 -1.2927 -3.3336
34882SOL     OW11503   7.944   8.587  10.287  0.0329  0.6405 -0.1727
34882SOL    HW111504   7.988   8.561  10.368  0.9223  0.4129 -0.7272
34882SOL    HW211505   8.010   8.636  10.238 -0.4177  0.5473 -0.8832
34883SOL     OW11506  11.419   2.727   9.066  0.0315 -0.4002 -0.1606
34883SOL    HW111507  11.375   2.710   8.982 -1.4739 -0.4411  0.6010
34883SOL    HW211508  11.481   2.655   9.075  0.5311 -0.1544 -1.4424
34884SOL     OW11509   2.957  10.103   1.180  0.2669 -0.0896  0.0084
34884SOL    HW111510   3.032  10.058   1.220  0.2419 -0.5691 -0.4750
34884SOL    HW211511   2.985  10.124   1.092  0.2423  0.7787  0.2042
34885SOL     OW11512   3.208   5.439   0.631 -0.0996 -0.1612 -0.0904
34885SOL    HW111513   3.191   5.503   0.700 -0.3228  0.1848 -0.4671
34885SOL    HW211514   3.274   5.381   0.669  0.4098  0.5276  0.1021
34886SOL     OW11515   3.067   0.231   8.632  0.1574 -0.0045 -0.8712
34886SOL    HW111516   2.988   0.234   8.577 -0.1812 -1.4918 -0.5276
34886SOL    HW211517   3.139   0.241   8.570 -0.2667  0.0804 -1.3654
34887SOL     OW11518   2.929   2.477   7.151  0.2865  0.6977  0.3731
34887SOL    HW111519   2.906   2.397   7.198 -0.2089  0.5476 -0.1124
34887SOL    HW211520   3.025   2.479   7.153  0.3948 -0.7253 -0.9027
34888SOL     OW11521   6.413   2.508   7.275  0.9886 -0.4211 -0.0315
34888SOL    HW111522   6.390   2.568   7.346  0.4665  0.7386 -1.1430
34888SOL    HW211523   6.466   2.440   7.317  1.9380  1.0199  1.1921
34889SOL     OW11524   8.618   8.148  10.929 -0.5150  0.0592  0.3916
34889SOL    HW111525   8.556   8.159  11.002 -1.2343 -1.9778  0.1715
34889SOL    HW211526   8.590   8.066  10.887  1.6996 -0.3634 -0.3686
34890SOL     OW11527   3.563   3.229   1.031  0.5958  0.3896 -0.3105
34890SOL    HW111528   3.503   3.210   0.958  1.4134  1.0608 -1.1796
34890SOL    HW211529   3.506   3.266   1.099 -0.4359 -1.6556  0.0236
34891SOL     OW11530   8.506   8.475   1.119  0.3334  0.4673 -0.2457
34891SOL    HW111531   8.517   8.449   1.028  0.0780  0.7298 -0.3531
34891SOL    HW211532   8.431   8.423   1.149  0.2620  0.5611 -0.2597
34892SOL     OW11533   1.889  11.627   0.960  0.3299 -0.1376  0.2794
34892SOL    HW111534   1.959  11.610   0.897  1.3470  0.4217  1.2147
34892SOL    HW211535   1.815  11.655   0.907  1.3381  0.8656 -0.6552
34893SOL     OW11536   6.899   4.675   6.005  0.2802 -0.0714  0.2435
34893SOL    HW111537   6.875   4.738   5.938 -0.6277 -0.5572  0.0957
34893SOL    HW211538   6.984   4.706   6.039  0.2735  0.7107 -0.4401
34894SOL     OW11539  12.407  12.222   4.598 -0.4395  0.5349  0.4744
34894SOL    HW111540  12.492  12.257   4.574  0.0409 -2.1259 -2.4260
34894SOL    HW211541  12.425  12.134   4.630 -2.0072  0.3367  0.9026
34895SOL     OW11542   0.330   4.857   4.228  0.4521 -0.5371  0.0154
34895SOL    HW111543   0.288   4.826   4.308  0.5436 -0.9327 -0.0852
34895SOL    HW211544   0.357   4.946   4.247  0.5439 -0.6588  0.4501
34896SOL     OW11545  10.957   7.844   4.390 -0.1222  0.0819  0.3024
34896SOL    HW111546  11.029   7.786   4.412  0.1293  0.3399  0.1644
34896SOL    HW211547  10.996   7.911   4.334 -0.0450  1.4015  1.8936
34897SOL     OW11548   2.474   3.135   8.376 -0.4233 -0.3167 -0.2663
34897SOL    HW111549   2.477   3.049   8.333 -1.2627 -0.8085  0.6213
34897SOL    HW211550   2.566   3.160   8.385 -0.1480 -1.2636 -0.2585
34898SOL     OW11551   4.880   5.904   2.885  0.8776  0.4808  0.3278
34898SOL    HW111552   4.897   5.988   2.928 -1.0532  0.9001  0.3444
34898SOL    HW211553   4.944   5.901   2.814  0.7731  2.1407  0.1161
34899SOL     OW11554   3.048   4.159   7.035  0.1845 -0.3341 -0.2839
34899SOL    HW111555   3.008   4.126   6.954 -2.1255  0.5900  0.3953
34899SOL    HW211556   3.067   4.251   7.016 -0.6557 -0.0325  0.3016
34900SOL     OW11557  12.058   8.537   8.618  0.3759  0.3106 -0.4953
34900SOL    HW111558  12.109   8.527   8.698  0.2674  2.9663 -0.0040
34900SOL    HW211559  12.087   8.621   8.582 -1.9017  0.7330 -1.5024
34901SOL     OW11560  11.702  10.266   4.319 -0.3977  0.0604  0.1100
34901SOL    HW111561  11.685  10.321   4.243 -1.4832  0.9408  0.9455
34901SOL    HW211562  11.648  10.188   4.306 -1.2889  0.6172  0.3837
34902SOL     OW11563  10.904   7.860   5.061 -0.4838  0.7017  0.3386
34902SOL    HW111564  10.998   7.866   5.042 -0.5728  1.1455  0.0215
34902SOL    HW211565  10.865   7.832   4.978 -0.5811  0.0517  0.6011
34903SOL     OW11566   7.686   6.345   5.150  0.2420  0.3465 -0.2254
34903SOL    HW111567   7.628   6.383   5.216  2.0408 -0.0466  1.6611
34903SOL    HW211568   7.768   6.393   5.159  0.6146  0.1260 -2.0615
34904SOL     OW11569   3.746   9.383  12.107  0.0896  0.2394 -0.7307
34904SOL    HW111570   3.737   9.413  12.198  0.1578 -1.1765 -0.2324
34904SOL    HW211571   3.668   9.419  12.063 -1.6835 -1.6451  0.6469
34905SOL     OW11572  10.695   9.504   0.615  0.3804 -0.3409 -0.4846
34905SOL    HW111573  10.657   9.581   0.656 -1.5555 -0.1906 -2.3831
34905SOL    HW211574  10.769   9.538   0.564 -0.3117  0.2345 -1.1176
34906SOL     OW11575   7.655  11.356   4.647  0.1067  0.6870 -0.2447
34906SOL    HW111576   7.735  11.385   4.691  0.4158  0.7992 -0.8685
34906SOL    HW211577   7.656  11.401   4.563 -0.0225 -0.1952 -0.7286
34907SOL     OW11578   2.194   6.687   9.758  0.3525 -0.2332 -0.3053
34907SOL    HW111579   2.244   6.692   9.840 -0.2634  0.0574  0.0627
34907SOL    HW211580   2.260   6.671   9.691  0.9117 -0.1177  0.2020
34908SOL     OW11581   3.531   9.424   1.412 -0.1865 -0.4320 -0.8207
34908SOL    HW111582   3.571   9.440   1.498 -2.4879 -0.8497  0.3942
34908SOL    HW211583   3.563   9.496   1.358 -1.5936  2.1080  1.4544
34909SOL     OW11584   5.513   4.526   4.631 -0.7667 -0.2717 -0.4831
34909SOL    HW111585   5.495   4.432   4.628 -1.9388 -0.1339  1.0881
34909SOL    HW211586   5.608   4.532   4.643 -0.9575 -1.3582  2.0995
34910SOL     OW11587  11.575   2.916   7.506  0.0273 -0.1255 -0.1679
34910SOL    HW111588  11.484   2.894   7.487  0.1145 -1.4261  0.7866
34910SOL    HW211589  11.625   2.882   7.432 -0.0073 -1.8417  0.5541
34911SOL     OW11590   1.692   5.080   0.487  0.4923 -0.7876 -0.3675
34911SOL    HW111591   1.602   5.114   0.486  0.2914 -1.2404  0.6301
34911SOL    HW211592   1.706   5.053   0.578  1.5070 -1.0799 -0.5985
34912SOL     OW11593   2.167  11.294   5.576 -0.8715 -0.1661  0.3103
34912SOL    HW111594   2.128  11.379   5.596 -0.2953  0.9513 -2.8487
34912SOL    HW211595   2.166  11.288   5.481  1.3375 -2.6449  0.3201
34913SOL     OW11596   5.410   8.775   7.658  0.2692  0.0187  0.0652
34913SOL    HW111597   5.375   8.863   7.664  0.7322  0.2305 -0.3066
34913SOL    HW211598   5.504   8.787   7.647  0.1450 -0.4599 -1.9532
34914SOL     OW11599   3.277  12.358  12.257 -0.6996 -0.5427  0.2340
34914SOL    HW111600   3.238  12.444  12.237  0.0906 -0.2899 -0.2608
34914SOL    HW211601   3.311  12.367  12.346 -2.3629 -0.9961  0.9679
34915SOL     OW11602   8.557   0.001   7.289  0.1330 -0.3787 -0.2937
34915SOL    HW111603   8.575  -0.035   7.376 -0.2102  0.0221 -0.0595
34915SOL    HW211604   8.517   0.086   7.305 -0.9102 -0.7484 -0.8248
34916SOL     OW11605  12.384   1.218   4.646 -0.3051 -0.0544  0.0543
34916SOL    HW111606  12.401   1.215   4.740 -0.5623 -0.3177  0.0915
34916SOL    HW211607  12.318   1.286   4.635  0.6532  0.8795 -0.0768
34917SOL     OW11608   6.746   8.052   4.777 -0.5863  0.4688  0.1955
34917SOL    HW111609   6.652   8.055   4.799 -0.1618  0.0626  2.2666
34917SOL    HW211610   6.770   8.144   4.764 -0.7747  0.8191  2.1056
34918SOL     OW11611   4.235   8.733   1.092  0.2195  0.3673 -0.7724
34918SOL    HW111612   4.242   8.638   1.097  0.7081  0.4018 -0.7977
34918SOL    HW211613   4.141   8.750   1.100  0.1756 -0.0832 -0.2715
34919SOL     OW11614   5.779   7.190   6.813 -0.5024  0.2429 -0.1576
34919SOL    HW111615   5.846   7.254   6.788 -0.2856 -0.1846 -0.6923
34919SOL    HW211616   5.707   7.205   6.751  0.4397 -1.4960 -1.7742
34920SOL     OW11617   2.144   7.250   2.613  0.0904 -0.5149 -0.4561
34920SOL    HW111618   2.212   7.245   2.681  0.5923 -0.7991 -0.9651
34920SOL    HW211619   2.156   7.337   2.574  1.2828 -1.1622 -1.6509
34921SOL     OW11620   5.971   1.989   1.065  0.1888 -0.4780  0.9754
34921SOL    HW111621   5.877   1.974   1.068  0.1760 -0.6270  0.2481
34921SOL    HW211622   5.991   2.040   1.143 -0.7856  1.1380  0.2205
34922SOL     OW11623   6.984   3.043   1.839  0.1850  0.3730 -0.5447
34922SOL    HW111624   6.988   3.020   1.746  1.9775  0.2012 -0.4674
34922SOL    HW211625   7.012   2.963   1.884 -1.5613  0.1586  0.2257
34923SOL     OW11626  10.479   3.270   0.970  0.2570  0.5169  0.1859
34923SOL    HW111627  10.480   3.316   0.885 -0.8463 -0.2541 -0.2568
34923SOL    HW211628  10.388   3.246   0.984  0.8454 -2.0261  0.1411
34924SOL     OW11629   1.173   1.739   5.353  0.2568  0.0203 -0.1763
34924SOL    HW111630   1.149   1.654   5.315 -0.7224 -0.0192  0.4802
34924SOL    HW211631   1.125   1.742   5.436  2.5070 -0.0040  1.2168
34925SOL     OW11632  10.360   5.326   9.325 -0.1764 -0.2248 -0.2990
34925SOL    HW111633  10.448   5.306   9.360 -0.2148  0.6246  0.3142
34925SOL    HW211634  10.304   5.257   9.362 -0.1939  0.5819  1.2876
34926SOL     OW11635   4.081   6.214   1.796 -1.0764  0.4117  0.6581
34926SOL    HW111636   4.106   6.301   1.765  0.1856  0.9040  2.8251
34926SOL    HW211637   4.040   6.230   1.880 -1.1736 -1.0700  0.9060
34927SOL     OW11638   8.802   5.827   2.855  0.1551 -0.0603 -0.4937
34927SOL    HW111639   8.745   5.788   2.790  0.0498 -0.9743  0.1274
34927SOL    HW211640   8.742   5.869   2.917  0.2558  0.8332 -0.9798
34928SOL     OW11641  10.798   9.805   4.951  0.8367  0.0427 -0.0802
34928SOL    HW111642  10.845   9.865   4.893 -2.3790  0.1583 -2.9352
34928SOL    HW211643  10.806   9.720   4.909 -1.9361  0.2044 -1.2152
34929SOL     OW11644   7.479   5.398   5.892 -0.4386 -0.5939 -0.2267
34929SOL    HW111645   7.528   5.425   5.970 -2.0125  0.6000  0.4215
34929SOL    HW211646   7.455   5.480   5.849 -0.6126 -1.2035 -1.3267
34930SOL     OW11647   2.645   1.227  11.788  0.1122  0.3738  0.0158
34930SOL    HW111648   2.720   1.231  11.846  1.5771  0.5703 -1.7963
34930SOL    HW211649   2.678   1.187  11.708 -2.0176 -0.6459 -0.4432
34931SOL     OW11650   7.800   6.051   9.066  0.0483 -0.0607  0.6745
34931SOL    HW111651   7.778   6.136   9.029  1.6620  0.6768  1.2997
34931SOL    HW211652   7.721   6.024   9.113 -2.0260 -0.9585 -2.9760
34932SOL     OW11653   2.028   2.922  10.382  0.2266  0.6135 -0.5331
34932SOL    HW111654   1.970   2.861  10.427  0.3614  1.7321  1.2115
34932SOL    HW211655   1.969   2.976  10.329 -0.2719  1.2577  0.6526
34933SOL     OW11656   9.910   4.384   2.017 -0.1469  0.6853 -0.1493
34933SOL    HW111657   9.884   4.437   2.092 -1.3046  0.5243 -0.4282
34933SOL    HW211658   9.873   4.429   1.942  0.6344  0.6055 -0.5950
34934SOL     OW11659   2.163   7.166   8.956  0.8542  0.5837 -0.5178
34934SOL    HW111660   2.077   7.190   8.920  0.4622 -0.8393 -0.5909
34934SOL    HW211661   2.155   7.186   9.050 -0.2859 -1.3520 -0.1535
34935SOL     OW11662   8.808   2.386  11.676 -0.3933 -0.2768 -0.2293
34935SOL    HW111663   8.768   2.352  11.756  0.6750 -0.0284  0.4210
34935SOL    HW211664   8.901   2.393  11.696  0.0835 -1.2918 -1.8649
34936SOL     OW11665   5.981   6.544   9.053  0.4102  0.5816  0.3244
34936SOL    HW111666   5.917   6.549   8.982  0.6451  1.0310  0.1419
34936SOL    HW211667   6.048   6.483   9.020 -0.3454 -0.5687  0.8631
34937SOL     OW11668   6.810   5.898   3.389 -0.5609  0.1422  0.0319
34937SOL    HW111669   6.904   5.907   3.403 -0.5322  0.6988 -0.4978
34937SOL    HW211670   6.775   5.986   3.399 -1.0483 -0.0778  0.3467
34938SOL     OW11671   7.176   7.069   6.158  0.3388 -0.1754  0.5984
34938SOL    HW111672   7.247   7.082   6.220  0.5036 -0.7408  0.5325
34938SOL    HW211673   7.117   7.143   6.173  0.6631 -0.0032  1.0310
34939SOL     OW11674   0.714   3.154   2.603  0.0512  0.3882 -0.3923
34939SOL    HW111675   0.672   3.192   2.680 -0.6875 -0.2100 -0.4939
34939SOL    HW211676   0.690   3.062   2.604  0.5840  0.2306 -0.9792
34940SOL     OW11677   7.732   9.775   7.234  0.2144  0.7838  0.0315
34940SOL    HW111678   7.794   9.785   7.307 -0.6762 -0.2156  0.9622
34940SOL    HW211679   7.685   9.858   7.231 -0.3770  0.5229  1.2368
34941SOL     OW11680   6.221   3.231   4.061 -0.4186  0.1665 -0.4787
34941SOL    HW111681   6.201   3.151   4.110 -1.3257  0.2442 -0.7002
34941SOL    HW211682   6.316   3.230   4.052 -0.3030 -0.2453  0.6103
34942SOL     OW11683   6.315   6.909   7.379  0.6440  0.3782  0.1158
34942SOL    HW111684   6.265   6.899   7.460  1.9525  1.4870  1.1046
34942SOL    HW211685   6.268   6.855   7.315  0.4973 -1.8615  1.9798
34943SOL     OW11686   8.994  12.251   3.519 -0.0834  0.2034  0.4534
34943SOL    HW111687   8.916  12.211   3.557  0.5771 -0.7033  0.8994
34943SOL    HW211688   9.057  12.252   3.591  0.7949 -0.4434 -0.2862
34944SOL     OW11689   4.200   7.927   3.699  0.1935  0.1671  0.2525
34944SOL    HW111690   4.215   7.899   3.789  0.9555  0.0795  0.1017
34944SOL    HW211691   4.127   7.989   3.705  1.1077  1.1898  1.1107
34945SOL     OW11692   3.027   8.742  10.048 -0.0244 -0.6343  0.1609
34945SOL    HW111693   2.985   8.819  10.009  1.2662  0.0607  0.0936
34945SOL    HW211694   3.096   8.718   9.986  0.9569 -0.5454  1.1790
34946SOL     OW11695   2.697  11.657   2.366 -0.9744  0.3694 -0.0533
34946SOL    HW111696   2.753  11.587   2.335 -0.5998  0.0131  1.3633
34946SOL    HW211697   2.718  11.666   2.459 -1.0366  2.3346 -0.1789
34947SOL     OW11698   3.357   8.226   0.279 -0.0232  0.0508 -0.8523
34947SOL    HW111699   3.409   8.168   0.223  0.3992 -0.8226  0.4027
34947SOL    HW211700   3.276   8.179   0.295 -0.0426  0.1905 -0.5298
34948SOL     OW11701   7.328  11.244  10.387  0.0977  0.0351 -0.3205
34948SOL    HW111702   7.268  11.308  10.424  2.0929 -0.0405  3.5501
34948SOL    HW211703   7.301  11.160  10.423  2.5095  0.0430  1.8380
34949SOL     OW11704  10.130   5.075   4.919  0.1974 -0.2986 -0.0401
34949SOL    HW111705  10.223   5.093   4.934 -0.0241  0.8672  0.0060
34949SOL    HW211706  10.090   5.161   4.906 -0.8278 -0.8037 -0.3764
34950SOL     OW11707   5.122  11.104   9.832  0.2565 -0.4777  0.2821
34950SOL    HW111708   5.199  11.048   9.847 -0.5110 -1.5625  0.2891
34950SOL    HW211709   5.058  11.072   9.895 -1.6298 -2.3910 -2.3774
34951SOL     OW11710   6.984  11.234   0.790 -0.4403  0.1761  0.4635
34951SOL    HW111711   6.977  11.213   0.697 -1.2962 -1.0448  0.7689
34951SOL    HW211712   7.071  11.202   0.815  0.5694  2.1752 -0.2696
34952SOL     OW11713   2.122   7.160   6.371 -0.2261  0.2221 -0.3257
34952SOL    HW111714   2.055   7.095   6.391  1.0117 -0.6519  1.2034
34952SOL    HW211715   2.151   7.137   6.282  1.5178 -2.6359  0.8527
34953SOL     OW11716   9.576   0.436   1.877  0.7720 -0.1000 -0.9421
34953SOL    HW111717   9.631   0.385   1.937 -1.8598  0.0162  1.8352
34953SOL    HW211718   9.488   0.400   1.889 -0.2176  1.2444 -3.3893
34954SOL     OW11719   0.331   6.684   8.062 -0.0454  0.3183  0.4716
34954SOL    HW111720   0.274   6.695   8.137 -0.3627 -0.3398  0.3346
34954SOL    HW211721   0.324   6.767   8.013 -1.3440  0.0286  0.1396
34955SOL     OW11722  11.626   3.320   8.255 -0.1348 -0.1897  0.8563
34955SOL    HW111723  11.688   3.366   8.198 -0.3166  1.0924  1.6427
34955SOL    HW211724  11.573   3.267   8.196 -1.1457  2.0496 -0.3470
34956SOL     OW11725   3.438   7.952   8.444  0.2458 -0.4592  0.3212
34956SOL    HW111726   3.442   7.874   8.388  2.7350 -0.6427  0.6771
34956SOL    HW211727   3.372   7.930   8.510 -0.0039 -1.7377 -0.3088
34957SOL     OW11728   1.501   9.548   1.077 -0.3802  0.0927 -0.5056
34957SOL    HW111729   1.559   9.598   1.134 -0.5196  0.3078 -0.5508
34957SOL    HW211730   1.429   9.521   1.134  0.7784 -2.0042  0.0964
34958SOL     OW11731  11.203   3.220   4.990  0.5314  0.4364 -0.0641
34958SOL    HW111732  11.200   3.135   5.033  0.2095  0.1566 -0.6313
34958SOL    HW211733  11.132   3.270   5.031  1.8503  1.0695  1.5531
34959SOL     OW11734   4.746   4.843   1.686  0.4052  0.4098  0.2876
34959SOL    HW111735   4.739   4.887   1.770  2.1064  0.1652  0.5779
34959SOL    HW211736   4.780   4.756   1.706 -0.2912 -0.0719 -0.5462
34960SOL     OW11737   1.306   7.805   4.088 -0.5345  0.1379  0.0797
34960SOL    HW111738   1.287   7.713   4.104  0.4292  0.2516  2.2775
34960SOL    HW211739   1.398   7.806   4.060 -0.5261  0.4290  0.1174
34961SOL     OW11740   8.846   8.611   0.341 -0.0887 -0.1248  0.5151
34961SOL    HW111741   8.865   8.683   0.401 -2.2287 -0.4015  1.6263
34961SOL    HW211742   8.926   8.601   0.289 -0.0265  3.7408 -0.4548
34962SOL     OW11743   8.566   8.520   9.640 -0.5167  0.2393 -0.2672
34962SOL    HW111744   8.487   8.565   9.608  0.2114  0.9470 -1.1265
34962SOL    HW211745   8.637   8.582   9.624  0.4284 -0.9513 -0.8545
34963SOL     OW11746  10.480   0.697   0.050  0.1338 -0.1284 -0.3432
34963SOL    HW111747  10.575   0.706   0.051  0.1646 -0.4741 -0.2632
34963SOL    HW211748  10.448   0.786   0.035  0.4790 -0.0592 -0.6796
34964SOL     OW11749   0.654   1.409   4.825 -0.3410  0.4089  0.2594
34964SOL    HW111750   0.575   1.375   4.783  1.6196 -1.8713 -1.8621
34964SOL    HW211751   0.700   1.330   4.855  1.0363  1.6953  1.6665
34965SOL     OW11752   8.329   1.879   2.734  0.2749  0.7250 -0.0174
34965SOL    HW111753   8.304   1.788   2.751  0.6799  0.4133 -1.0173
34965SOL    HW211754   8.308   1.893   2.641 -0.1485  1.7797  0.2181
34966SOL     OW11755   2.394   2.262   1.898 -0.2421  1.0926 -0.6107
34966SOL    HW111756   2.307   2.229   1.921  0.4256 -0.1644  0.2136
34966SOL    HW211757   2.385   2.289   1.807 -1.3223  0.2772 -0.7754
34967SOL     OW11758  10.072   2.828  12.212 -0.0754  0.0393 -0.2509
34967SOL    HW111759   9.982   2.807  12.237  0.0377 -2.4963 -1.6271
34967SOL    HW211760  10.068   2.838  12.117  1.0172  0.3867 -0.2687
34968SOL     OW11761   1.452  10.903  10.174  0.8535 -0.2857  0.1438
34968SOL    HW111762   1.449  10.960  10.096 -2.3088  0.2182  0.5068
34968SOL    HW211763   1.546  10.888  10.188  1.7465  2.7787 -1.4642
34969SOL     OW11764   5.972  10.344   1.172 -0.1511  0.2582  0.4765
34969SOL    HW111765   5.905  10.283   1.141 -2.0223  1.5656  1.7835
34969SOL    HW211766   6.011  10.380   1.092 -1.0567 -0.4689 -0.3046
34970SOL     OW11767   8.689   5.404   2.579  0.2434 -0.1832 -0.9126
34970SOL    HW111768   8.655   5.330   2.628 -0.3729  0.1856 -0.7623
34970SOL    HW211769   8.670   5.480   2.634  0.5759  0.1183 -1.2073
34971SOL     OW11770   1.561   9.205   8.521  0.7274 -0.1084  0.3909
34971SOL    HW111771   1.487   9.265   8.508  1.3117  0.4801 -0.3264
34971SOL    HW211772   1.520   9.119   8.533 -0.0332 -0.0652 -1.5568
34972SOL     OW11773  12.435  10.513   0.190  0.2752  0.3759 -0.2337
34972SOL    HW111774  12.432  10.552   0.278  0.2275 -0.2376  0.0433
34972SOL    HW211775  12.450  10.587   0.131 -0.5285  0.9090  0.2173
34973SOL     OW11776   5.791   3.976   8.363  0.4775  0.6254 -0.3149
34973SOL    HW111777   5.705   4.019   8.355 -1.4001 -2.7270  0.1185
34973SOL    HW211778   5.824   3.973   8.273  0.5502  2.5761 -0.4019
34974SOL     OW11779   9.657   5.840  11.227  0.0038  0.9431  0.1297
34974SOL    HW111780   9.689   5.929  11.217 -1.7439  1.5028 -0.7734
34974SOL    HW211781   9.589   5.830  11.160  0.8571 -1.4150 -0.4990
34975SOL     OW11782   4.016   8.134  12.555  0.0470  0.6375  0.6597
34975SOL    HW111783   4.013   8.055  12.609 -1.2190  1.5328  1.9865
34975SOL    HW211784   4.033   8.102  12.466  1.1381 -0.9628  1.4070
34976SOL     OW11785   7.081   7.556   5.905  0.7373  0.3238  0.4951
34976SOL    HW111786   7.008   7.593   5.856  1.6973  0.9103 -0.5501
34976SOL    HW211787   7.064   7.579   5.996 -1.6846 -1.7653  0.6889
34977SOL     OW11788   7.323   4.102   5.531 -0.3915 -0.0152 -0.1925
34977SOL    HW111789   7.406   4.108   5.485  0.9078 -0.9723  1.8565
34977SOL    HW211790   7.261   4.149   5.476  1.9763  2.8278 -0.6779
34978SOL     OW11791   2.151   9.433   9.249  0.5051  0.2542 -1.0645
34978SOL    HW111792   2.128   9.481   9.170  0.4764  0.5238 -0.8913
34978SOL    HW211793   2.247   9.439   9.254  0.5267  0.0232 -1.2158
34979SOL     OW11794   6.314   3.670   1.366  0.6051 -0.4546  0.2065
34979SOL    HW111795   6.226   3.658   1.403  1.0165 -0.0403  1.3536
34979SOL    HW211796   6.318   3.762   1.343  0.1248 -0.8372 -1.5334
34980SOL     OW11797   0.618   8.379   7.476 -0.2160  0.6174  0.8421
34980SOL    HW111798   0.535   8.378   7.524 -0.8019 -1.6141 -0.0883
34980SOL    HW211799   0.633   8.287   7.451  1.4132  1.2779 -0.8945
34981SOL     OW11800   7.018   7.274   2.684  0.4242 -0.2646  0.6850
34981SOL    HW111801   7.043   7.246   2.772 -0.2537  0.9865  1.3072
34981SOL    HW211802   7.088   7.334   2.657 -1.0248  2.0929  1.8373
34982SOL     OW11803   0.306   3.931   5.572 -0.8133 -1.1839  0.3106
34982SOL    HW111804   0.261   4.012   5.547  0.2491 -0.9781 -1.1121
34982SOL    HW211805   0.319   3.885   5.489  1.6883 -1.1542  0.6145
34983SOL     OW11806   0.750   9.633   0.605  0.3486  0.3852  0.7169
34983SOL    HW111807   0.822   9.692   0.584 -0.8974  1.6552 -0.1477
34983SOL    HW211808   0.699   9.626   0.524 -1.2716  0.6405  1.6781
34984SOL     OW11809   1.225   4.985  10.768  0.3257  0.7242 -0.0451
34984SOL    HW111810   1.288   5.057  10.780 -0.6593  1.4196  1.2781
34984SOL    HW211811   1.273   4.907  10.797  0.4919  1.3031  1.3674
34985SOL     OW11812   8.377   8.706  11.775  0.4219  0.2260  0.1093
34985SOL    HW111813   8.294   8.754  11.774  0.7214  0.7524 -1.7564
34985SOL    HW211814   8.437   8.764  11.824  0.3428  1.0080 -0.7007
34986SOL     OW11815   5.038   3.617  12.550  0.4253 -0.6514 -0.5501
34986SOL    HW111816   5.056   3.694  12.497 -1.3800  0.6891  0.6505
34986SOL    HW211817   5.124   3.581  12.571  1.4020  1.6368 -0.3227
34987SOL     OW11818  10.403  12.566   9.484 -0.8078 -0.1679 -0.5196
34987SOL    HW111819  10.482  12.530   9.525  0.0658  0.6182 -1.4557
34987SOL    HW211820  10.376  12.637   9.543 -0.2792  0.1547 -0.6583
34988SOL     OW11821   8.530   3.236  12.455  0.0342 -0.1553 -0.2383
34988SOL    HW111822   8.616   3.235  12.413 -0.5020 -0.6890 -1.3673
34988SOL    HW211823   8.474   3.283  12.393 -0.3055  1.0391  0.9184
34989SOL     OW11824   1.048   4.772   4.664  0.4122  0.1945 -0.1500
34989SOL    HW111825   0.984   4.820   4.717  1.1819 -1.2449  2.1968
34989SOL    HW211826   1.016   4.682   4.664  1.7734 -0.3043 -0.0134
34990SOL     OW11827   8.286   0.895   2.582  0.0973  0.6641 -0.1703
34990SOL    HW111828   8.322   0.924   2.666 -0.9450 -0.8847  0.8872
34990SOL    HW211829   8.349   0.829   2.551 -1.0290 -1.0968  1.0421
34991SOL     OW11830   2.887   6.941   7.165 -0.6366  0.0655 -0.5920
34991SOL    HW111831   2.898   6.858   7.118 -1.3044  0.1740 -0.9438
34991SOL    HW211832   2.801   6.936   7.205 -0.0311 -0.0696  0.7493
34992SOL     OW11833   8.953   2.933  10.461 -0.4298 -0.4339  0.1868
34992SOL    HW111834   8.956   2.917  10.555  2.1424  1.5476  0.5588
34992SOL    HW211835   9.026   2.882  10.425  2.4571  3.2744  0.2494
34993SOL     OW11836   3.059  11.876  12.507  0.1454  0.1003  0.0793
34993SOL    HW111837   3.098  11.957  12.542  1.1616 -0.7060  0.8643
34993SOL    HW211838   3.069  11.812  12.577  1.7999 -1.4302 -1.4334
34994SOL     OW11839   8.269   5.704   9.128 -0.6997  0.7960 -0.4729
34994SOL    HW111840   8.358   5.734   9.109 -0.7687  0.9958 -0.4775
34994SOL    HW211841   8.221   5.716   9.046 -0.5077 -0.1494 -0.7407
34995SOL     OW11842  12.426   2.102   0.421 -0.2688  0.6921 -0.3645
34995SOL    HW111843  12.447   2.145   0.339 -0.8492 -0.3849 -1.0984
34995SOL    HW211844  12.400   2.174   0.479  0.0838  1.4567 -1.1225
34996SOL     OW11845   9.811   5.983   0.878  0.2294  0.0225  0.5266
34996SOL    HW111846   9.789   5.975   0.785 -0.7830  0.4969  0.6990
34996SOL    HW211847   9.836   5.895   0.904  0.7884 -0.0630 -0.2580
34997SOL     OW11848   1.946   6.542   2.729  0.6261 -0.2761  0.0632
34997SOL    HW111849   1.853   6.561   2.722  0.5397 -0.6768  0.0991
34997SOL    HW211850   1.989   6.625   2.707  0.2260  0.5350  2.0986
34998SOL     OW11851   6.793  11.603   3.805 -0.1788  0.1196 -0.1975
34998SOL    HW111852   6.792  11.514   3.769 -1.6311  0.5213 -1.2594
34998SOL    HW211853   6.703  11.633   3.796  0.0887  1.3915  0.9851
34999SOL     OW11854   3.933   5.478   7.006  0.4698  0.1519 -0.4046
34999SOL    HW111855   3.955   5.519   7.089  0.8136  1.0053 -0.9044
34999SOL    HW211856   3.847   5.515   6.983  1.6070  2.0973 -1.7693
35000SOL     OW11857   0.904   4.591   2.164  0.1199  0.2876 -0.3477
35000SOL    HW111858   0.992   4.587   2.127  0.4270 -1.0287  0.4644
35000SOL    HW211859   0.851   4.631   2.095  0.6027 -2.3359 -2.4217
35001SOL     OW11860  12.227   8.115   0.884  0.1922  0.3585  0.2667
35001SOL    HW111861  12.252   8.023   0.893 -2.3820 -0.5029 -0.6140
35001SOL    HW211862  12.186   8.120   0.797  1.4699  2.6700 -0.2706
35002SOL     OW11863   1.275   8.419   5.028  0.0298  0.3384  0.3346
35002SOL    HW111864   1.247   8.466   4.949  1.7184  3.6333  1.5090
35002SOL    HW211865   1.336   8.353   4.997 -0.0031  0.9898 -1.2008
35003SOL     OW11866  10.183   5.746   3.680 -0.3400 -0.0082  0.1171
35003SOL    HW111867  10.101   5.795   3.669 -0.9749 -1.0902 -0.1130
35003SOL    HW211868  10.246   5.793   3.626 -1.0771  0.2424 -0.5451
35004SOL     OW11869  11.749   2.821   7.314 -0.2485 -0.1877 -0.6007
35004SOL    HW111870  11.726   2.780   7.231  0.7159 -1.0094 -0.4736
35004SOL    HW211871  11.831   2.866   7.297 -0.0834 -0.2945 -0.1069
35005SOL     OW11872   0.235   0.503   4.040  0.1369 -0.6826 -0.4659
35005SOL    HW111873   0.302   0.497   3.972  0.4552 -1.0764 -0.1291
35005SOL    HW211874   0.269   0.447   4.111 -0.1209 -0.1679  0.0677
35006SOL     OW11875   5.254   9.321   7.665  0.0208 -0.1318 -0.2059
35006SOL    HW111876   5.190   9.392   7.674 -0.7936 -0.9036  0.2164
35006SOL    HW211877   5.301   9.341   7.584 -0.5028  0.6421 -0.3289
35007SOL     OW11878   5.032   2.957   9.422 -0.1435  0.4076  0.1406
35007SOL    HW111879   5.087   2.911   9.486  0.5154  0.3417 -0.4745
35007SOL    HW211880   5.092   3.012   9.373 -0.6761  0.5860 -0.3209
35008SOL     OW11881   0.209   6.084   1.193  0.1506 -0.0586  0.2937
35008SOL    HW111882   0.142   6.136   1.238  0.3061 -0.2068  0.7028
35008SOL    HW211883   0.206   6.114   1.102 -0.5715 -0.1735  0.2817
35009SOL     OW11884   7.737  10.461  12.488 -0.1688  0.1909 -0.2850
35009SOL    HW111885   7.734  10.537  12.429 -0.1920  0.0279 -0.4955
35009SOL    HW211886   7.646  10.436  12.500 -0.1693  0.2832 -0.1046
35010SOL     OW11887   9.306   5.745  10.690  0.0255  0.0042 -0.3275
35010SOL    HW111888   9.362   5.793  10.628  0.9337 -0.8736 -0.2175
35010SOL    HW211889   9.273   5.813  10.749  1.3591  0.5092 -0.1208
35011SOL     OW11890   6.216   9.289  12.328  0.6372 -0.2028  0.2232
35011SOL    HW111891   6.191   9.199  12.344 -1.9370 -0.0122 -1.9885
35011SOL    HW211892   6.268   9.286  12.247  1.1642  0.2446  0.5324
35012SOL     OW11893   0.819  10.146  10.790  0.0934  0.3083  0.3191
35012SOL    HW111894   0.841  10.233  10.823  0.9308  0.3524 -0.3391
35012SOL    HW211895   0.876  10.086  10.839  0.8570  0.3114 -0.5562
35013SOL     OW11896   9.600   1.662  11.881 -0.4342  0.5274  0.5260
35013SOL    HW111897   9.549   1.715  11.819 -1.1887  0.2612  0.9077
35013SOL    HW211898   9.569   1.690  11.967 -0.7620 -0.4551  0.7332
35014SOL     OW11899   0.623   3.636   4.070  0.2840 -0.2709  0.4386
35014SOL    HW111900   0.615   3.692   3.993  2.3741 -1.5199 -0.7832
35014SOL    HW211901   0.712   3.651   4.102  0.3890 -1.7579  0.9397
35015SOL     OW11902   7.436   7.667   2.881  0.0643  0.1157 -0.8334
35015SOL    HW111903   7.391   7.737   2.834 -1.9231  0.8482  1.8886
35015SOL    HW211904   7.407   7.677   2.972  2.5612 -2.0322  0.3362
35016SOL     OW11905   0.889   6.813  10.819  0.2515 -0.1124  0.0976
35016SOL    HW111906   0.871   6.722  10.799  0.6294  0.1842 -1.7596
35016SOL    HW211907   0.972   6.832  10.774  0.7584  0.8531  1.3721
35017SOL     OW11908   4.921  10.596   4.676  0.1248  0.4638  0.8007
35017SOL    HW111909   4.973  10.669   4.641  0.8165 -0.4181 -0.0824
35017SOL    HW211910   4.837  10.603   4.631 -0.0831  1.1603  1.2881
35018SOL     OW11911   9.069   7.437   7.030 -0.3163  0.1099 -0.2422
35018SOL    HW111912   9.140   7.410   6.971 -0.6654 -2.1537  0.3039
35018SOL    HW211913   9.111   7.445   7.115 -0.2515  1.2443 -0.3639
35019SOL     OW11914   2.241   3.346   8.959 -0.7751 -0.1263 -0.2648
35019SOL    HW111915   2.212   3.305   8.878 -0.8481  1.2542 -0.9622
35019SOL    HW211916   2.184   3.422   8.970  0.2545  0.6007  0.2369
35020SOL     OW11917   3.718   4.097   0.153  0.4240 -0.2654  0.1739
35020SOL    HW111918   3.750   4.012   0.184 -1.6298 -0.7712  1.0342
35020SOL    HW211919   3.698   4.146   0.232 -0.7576  0.0798 -0.3233
35021SOL     OW11920   4.194   9.502  12.117 -0.5664 -0.3779 -0.4534
35021SOL    HW111921   4.219   9.576  12.172  1.9808 -1.3007 -0.2597
35021SOL    HW211922   4.113   9.530  12.074 -0.9916  1.5248  1.4619
35022SOL     OW11923  11.281   2.383   4.753  0.2868 -0.4451  0.2614
35022SOL    HW111924  11.353   2.426   4.709  0.0970  0.7569  1.0773
35022SOL    HW211925  11.210   2.384   4.689 -0.0805  1.5488  0.6155
35023SOL     OW11926   5.699   3.415  12.478 -0.3670 -0.5169 -0.1389
35023SOL    HW111927   5.710   3.377  12.565  0.5176 -1.8142 -0.7790
35023SOL    HW211928   5.634   3.359  12.436 -1.8886  0.9660  0.1363
35024SOL     OW11929   5.009  10.488  10.955 -0.1896 -0.6690 -0.2302
35024SOL    HW111930   5.015  10.583  10.946  0.1576 -0.5354  1.1202
35024SOL    HW211931   4.952  10.460  10.883  0.4971  0.4364 -1.2465
35025SOL     OW11932  10.700   4.719   5.435  0.1019  0.2773 -0.2119
35025SOL    HW111933  10.792   4.692   5.425  0.0295  0.2992 -0.9696
35025SOL    HW211934  10.695   4.751   5.525  0.4767 -1.1102  0.3396
35026SOL     OW11935   4.273   8.724  11.188 -0.0948 -0.0244 -0.7496
35026SOL    HW111936   4.368   8.736  11.186  0.0463 -0.9985 -0.5958
35026SOL    HW211937   4.257   8.649  11.130 -0.6544 -0.5170  0.0278
35027SOL     OW11938   4.780   6.416   6.319  0.2645  0.0764  0.0905
35027SOL    HW111939   4.693   6.393   6.351  0.9851 -1.3871  1.1603
35027SOL    HW211940   4.768   6.496   6.269 -1.7989 -0.4947 -0.3846
35028SOL     OW11941   4.877  11.509   2.308 -0.2014 -0.1721 -0.0154
35028SOL    HW111942   4.854  11.590   2.261 -0.6188  1.2893  2.5248
35028SOL    HW211943   4.795  11.460   2.313 -0.7563  0.8139  1.2151
35029SOL     OW11944   2.207   7.157   4.293 -0.3382 -0.8823  0.1936
35029SOL    HW111945   2.221   7.138   4.200  0.5988  1.0849 -0.1314
35029SOL    HW211946   2.228   7.076   4.338 -2.9675 -2.5901 -1.4021
35030SOL     OW11947  12.254   1.336   9.796 -0.1214  0.2038 -0.0243
35030SOL    HW111948  12.305   1.254   9.796  0.7460  0.7162 -0.7699
35030SOL    HW211949  12.280   1.380   9.876 -0.5963 -0.2434  0.3855
35031SOL     OW11950   6.743   1.886   6.906  0.2187  0.1334 -0.0762
35031SOL    HW111951   6.776   1.976   6.902 -2.0539  1.0015 -0.3402
35031SOL    HW211952   6.648   1.895   6.907 -0.1369 -2.3422 -2.1081
35032SOL     OW11953   6.114   8.567   3.722 -0.3839  0.2606 -0.0894
35032SOL    HW111954   6.038   8.620   3.746 -0.3422  0.5288 -0.5341
35032SOL    HW211955   6.189   8.614   3.760 -0.6426 -1.4572  2.7847
35033SOL     OW11956  11.851   8.285   4.360  0.7310 -0.7126  0.1316
35033SOL    HW111957  11.936   8.312   4.396  0.4134 -0.3471  0.6164
35033SOL    HW211958  11.869   8.265   4.268  1.1527  0.3201 -0.0232
35034SOL     OW11959   8.983   8.038   0.803 -0.1285  0.0900  0.0021
35034SOL    HW111960   9.028   7.997   0.728 -0.5498  1.7521 -1.2172
35034SOL    HW211961   9.041   8.109   0.829 -0.3854  0.0358  0.7459
35035SOL     OW11962  12.319   7.430   7.797  0.0358  0.0983 -0.4746
35035SOL    HW111963  12.226   7.449   7.784 -0.3658 -1.0864  0.5066
35035SOL    HW211964  12.329   7.339   7.769  0.3613 -0.5825  1.6423
35036SOL     OW11965   4.126   3.296   3.995 -0.6465 -0.1375 -0.5634
35036SOL    HW111966   4.194   3.362   4.011  1.4090 -2.2026 -0.2007
35036SOL    HW211967   4.062   3.310   4.065 -0.8372  2.0866 -1.1076
35037SOL     OW11968   1.126  11.393  10.241 -0.1109 -0.2215  0.3883
35037SOL    HW111969   1.039  11.415  10.209 -1.0979 -1.1557  2.2552
35037SOL    HW211970   1.133  11.298  10.227  0.9505 -0.0473 -0.4498
35038SOL     OW11971  10.966   5.710  11.671  0.4930 -0.2677 -0.3032
35038SOL    HW111972  10.918   5.709  11.588 -2.7803 -1.5238  1.4392
35038SOL    HW211973  11.008   5.623  11.674 -0.6583 -0.8355 -0.0216
35039SOL     OW11974   9.073   0.953  11.100 -0.1831  0.3146 -0.5052
35039SOL    HW111975   9.098   0.981  11.188 -0.9606  0.2661 -0.2579
35039SOL    HW211976   9.141   0.891  11.074 -1.3358 -1.7816  1.1649
35040SOL     OW11977   0.757   6.338   5.374  0.1651 -0.3768 -0.3312
35040SOL    HW111978   0.680   6.324   5.430  1.2484 -0.3750  1.2254
35040SOL    HW211979   0.830   6.305   5.426  1.3046  0.2107 -1.5157
35041SOL     OW11980  10.575   9.527   2.038 -0.4853 -0.0031  0.0266
35041SOL    HW111981  10.532   9.450   2.078  1.5477 -0.8901  0.6183
35041SOL    HW211982  10.641   9.553   2.102  0.4840  0.7524 -1.2552
35042SOL     OW11983   4.380   4.915   4.066  0.3496  0.0438 -0.0492
35042SOL    HW111984   4.294   4.933   4.028  0.9280  0.4686 -1.2099
35042SOL    HW211985   4.401   4.826   4.037  0.0188 -0.3088  0.7865
35043SOL     OW11986   9.611   4.773   1.191 -0.8049  0.2180 -0.2399
35043SOL    HW111987   9.660   4.795   1.112  0.5854 -1.1140  0.1963
35043SOL    HW211988   9.519   4.770   1.163 -0.2664 -1.0715 -2.0236
35044SOL     OW11989   6.598   9.014   5.800 -0.0431  0.5766  0.4578
35044SOL    HW111990   6.663   9.066   5.751  1.3173 -0.5480  0.9905
35044SOL    HW211991   6.601   9.050   5.889  0.6293 -0.1339  0.7357
35045SOL     OW11992   8.539   0.689   0.546 -0.2485 -0.3402  0.3890
35045SOL    HW111993   8.597   0.710   0.472 -0.2676 -0.8163  0.2326
35045SOL    HW211994   8.473   0.758   0.545  0.1070  0.0051  0.3440
35046SOL     OW11995  10.273   8.269   0.311 -0.5655 -0.1935 -0.0576
35046SOL    HW111996  10.227   8.347   0.280 -0.5936  0.8925  2.4674
35046SOL    HW211997  10.236   8.252   0.398  1.1071 -1.6113  0.4355
35047SOL     OW11998  10.151  11.448  10.419  0.3777  0.6621 -0.2200
35047SOL    HW111999  10.208  11.492  10.482 -0.5044  0.8834  0.4475
35047SOL    HW212000  10.077  11.507  10.407  0.5474  0.6351 -1.5097
35048SOL     OW12001   5.310   4.597   8.632  0.4522 -0.1875  0.0574
35048SOL    HW112002   5.383   4.621   8.575 -0.0071 -0.4048 -0.6337
35048SOL    HW212003   5.249   4.670   8.624  0.3360 -0.2700  0.1897
35049SOL     OW12004   0.519  11.580   9.480  0.4915  0.6032 -0.3256
35049SOL    HW112005   0.487  11.517   9.415  0.1191  2.0010 -1.5559
35049SOL    HW212006   0.608  11.552   9.499 -0.3803 -1.5900  0.8786
35050SOL     OW12007   8.633   5.774   1.244  0.7199 -0.1253 -0.3404
35050SOL    HW112008   8.601   5.738   1.161  1.2643 -1.7116  0.1099
35050SOL    HW212009   8.600   5.714   1.310  0.1350  1.2302  0.6312
35051SOL     OW12010   3.839   5.457   9.534 -0.0573 -0.3393  0.0213
35051SOL    HW112011   3.764   5.449   9.592 -0.0755 -1.5195 -0.1403
35051SOL    HW212012   3.908   5.405   9.576  0.9356  1.3313  0.5497
35052SOL     OW12013   7.240   4.094   6.975 -0.3806 -0.1163 -0.4460
35052SOL    HW112014   7.233   4.001   6.998 -2.0772  0.2292  0.6049
35052SOL    HW212015   7.245   4.139   7.059  0.2156  0.7678 -0.9440
35053SOL     OW12016   0.244   8.153  11.607  0.0376  1.0025 -0.6226
35053SOL    HW112017   0.322   8.106  11.637  1.6206  2.3584 -2.3477
35053SOL    HW212018   0.227   8.218  11.675 -2.8593 -2.4501  2.3786
35054SOL     OW12019   1.412   1.211   6.650  0.2918  0.5898 -0.0051
35054SOL    HW112020   1.376   1.268   6.582  1.1412  2.8083  1.2984
35054SOL    HW212021   1.347   1.213   6.720  0.5543  0.3076  0.2521
35055SOL     OW12022   4.820   9.141   1.651 -0.0898  0.1367  0.0228
35055SOL    HW112023   4.864   9.223   1.625  0.6096 -0.0346  0.6407
35055SOL    HW212024   4.840   9.132   1.744 -2.1464  0.4765  0.5296
35056SOL     OW12025   9.762   6.983   8.439  0.2405 -0.2052  0.5392
35056SOL    HW112026   9.806   7.041   8.500  2.1092 -0.8972 -0.0888
35056SOL    HW212027   9.673   6.975   8.473  0.8408  0.5142  2.3760
35057SOL     OW12028  11.458   8.316  10.905  0.1920  0.0189 -0.1183
35057SOL    HW112029  11.532   8.267  10.939 -1.2707 -0.3354  2.8891
35057SOL    HW212030  11.496   8.394  10.866  2.2516 -1.2990 -0.8787
35058SOL     OW12031   7.248   7.965   9.159  0.1952 -0.2240 -0.3705
35058SOL    HW112032   7.334   7.949   9.198 -1.0154 -0.1521  2.5939
35058SOL    HW212033   7.200   7.883   9.173 -1.0812  0.6520  0.5836
35059SOL     OW12034   9.413   8.003   3.977  0.5958  0.1106  0.3944
35059SOL    HW112035   9.478   7.938   4.000 -0.9899 -1.5026  0.5179
35059SOL    HW212036   9.436   8.029   3.887  1.5235 -0.2593  0.5186
35060SOL     OW12037   1.432   3.122  10.659 -0.1564 -0.4300  0.4067
35060SOL    HW112038   1.437   3.107  10.753  1.8454  0.4794  0.4891
35060SOL    HW212039   1.458   3.214  10.648 -0.4548 -0.4921 -1.0413
35061SOL     OW12040   4.065   8.177  10.935 -0.0938  0.2209  0.2704
35061SOL    HW112041   4.081   8.243  11.003  0.7601  0.6629 -0.3377
35061SOL    HW212042   4.051   8.229  10.855  1.2116 -0.3266 -0.3477
35062SOL     OW12043   4.743   3.220   1.702  0.0702 -0.8931  0.1371
35062SOL    HW112044   4.677   3.212   1.633  0.7320  1.2447 -0.8304
35062SOL    HW212045   4.752   3.314   1.717  1.3509 -1.2154  1.7862
35063SOL     OW12046   0.789   4.535   2.683 -0.2004  0.2292  0.3076
35063SOL    HW112047   0.846   4.533   2.606 -0.3762  0.0154  0.1804
35063SOL    HW212048   0.723   4.469   2.665  0.7534 -1.0774  1.4110
35064SOL     OW12049   2.400  12.465  10.092 -0.2707  0.2829 -0.5017
35064SOL    HW112050   2.390  12.548  10.140 -0.0011  0.6107 -1.0093
35064SOL    HW212051   2.328  12.465  10.029 -1.0376 -0.4677  0.3426
35065SOL     OW12052   9.065   1.828  10.511 -0.0503 -0.3471 -0.3379
35065SOL    HW112053   9.079   1.892  10.581 -0.0615 -0.6788 -0.0293
35065SOL    HW212054   9.152   1.812  10.476 -0.0836  0.0612 -0.6221
35066SOL     OW12055  10.894   3.445   7.427 -0.0207 -0.1998 -0.2749
35066SOL    HW112056  10.907   3.489   7.511 -1.6533  0.4790 -0.3450
35066SOL    HW212057  10.870   3.514   7.366 -1.7451 -1.0031 -0.5922
35067SOL     OW12058   3.299  10.244  11.375  0.0266  0.0278  0.1000
35067SOL    HW112059   3.333  10.225  11.288  0.8533  0.6578  0.2716
35067SOL    HW212060   3.369  10.294  11.418 -0.4081 -0.1749  1.0829
35068SOL     OW12061   7.330   3.336   0.529 -0.1325 -0.4131  0.1306
35068SOL    HW112062   7.307   3.409   0.587 -0.8129 -0.7448  0.2862
35068SOL    HW212063   7.400   3.290   0.575  2.0533  1.5024 -1.0440
35069SOL     OW12064   8.412   4.925  10.731  0.3837  0.0795 -0.3198
35069SOL    HW112065   8.489   4.959  10.686  0.0714 -0.1605 -1.0455
35069SOL    HW212066   8.420   4.958  10.821  1.0414  0.5128 -0.5346
35070SOL     OW12067   6.679   5.692   6.487 -0.1101 -0.1190 -0.3213
35070SOL    HW112068   6.614   5.749   6.445 -0.4674  0.4394  0.9507
35070SOL    HW212069   6.640   5.605   6.482 -0.4500  0.0425 -0.5644
35071SOL     OW12070   0.216   5.417   7.118  0.0533 -0.0054  0.0945
35071SOL    HW112071   0.214   5.481   7.189 -0.6852  1.2904 -1.0233
35071SOL    HW212072   0.157   5.454   7.052  0.7095 -1.1604 -1.1831
35072SOL     OW12073   8.835  12.303   1.607  0.1423 -0.1731 -0.0912
35072SOL    HW112074   8.794  12.282   1.690 -1.1193 -1.6185 -1.0337
35072SOL    HW212075   8.855  12.396   1.613 -1.2271  0.0713  1.2842
35073SOL     OW12076   8.953  11.179  10.504  0.6346  0.1150 -0.2467
35073SOL    HW112077   8.979  11.194  10.413  1.5803 -2.8343 -0.5804
35073SOL    HW212078   8.899  11.100  10.501  1.3720 -0.5329  1.8126
35074SOL     OW12079   8.879   6.023   9.495  1.1215 -0.0384 -0.3429
35074SOL    HW112080   8.921   5.952   9.447 -0.2122 -0.1881 -1.3504
35074SOL    HW212081   8.914   6.103   9.455  1.7285 -0.1278 -0.0056
35075SOL     OW12082  12.188   0.589   9.138 -0.5755  0.0005 -0.7610
35075SOL    HW112083  12.094   0.587   9.118 -0.8917 -2.3549  0.5816
35075SOL    HW212084  12.230   0.564   9.055 -1.2443 -0.5242 -0.9526
35076SOL     OW12085   0.085   8.537   8.955 -0.7651 -0.1801 -0.0865
35076SOL    HW112086   0.027   8.514   8.883 -0.0434 -1.0345 -0.4171
35076SOL    HW212087   0.034   8.596   9.010 -2.0678 -1.1573 -0.1992
35077SOL     OW12088   0.948   9.144  12.166 -0.1670 -0.3410 -0.3956
35077SOL    HW112089   0.934   9.057  12.127 -1.6528 -0.3627  0.1180
35077SOL    HW212090   0.951   9.127  12.260 -0.0119  0.1139 -0.3206
35078SOL     OW12091   2.758   1.608  11.902 -0.0851 -0.7477 -0.2431
35078SOL    HW112092   2.846   1.612  11.939 -0.9127 -1.0483  1.8824
35078SOL    HW212093   2.729   1.518  11.919 -1.0571 -0.4487 -0.2529
35079SOL     OW12094   8.668   8.700   8.593  0.6505 -0.2773  0.0580
35079SOL    HW112095   8.645   8.754   8.517 -0.0027 -3.4893 -2.2102
35079SOL    HW212096   8.761   8.681   8.581  1.0174  0.6962  1.1594
35080SOL     OW12097   2.582  11.126  12.346 -0.2398 -0.4023  0.4907
35080SOL    HW112098   2.556  11.046  12.301 -1.3392  0.2766 -0.1184
35080SOL    HW212099   2.577  11.194  12.279 -2.5657  0.7580  1.7299
35081SOL     OW12100   7.154  12.372   5.316  0.2041  0.1918  0.0023
35081SOL    HW112101   7.126  12.281   5.317  0.2474  0.0695  3.9720
35081SOL    HW212102   7.076  12.422   5.343  1.0542  0.9279  1.1838
35082SOL     OW12103   9.477   0.589   4.374  0.7096 -0.1225  0.1038
35082SOL    HW112104   9.431   0.556   4.297 -0.2094  0.6881  0.2791
35082SOL    HW212105   9.548   0.642   4.339 -1.1172  2.2357 -0.2918
35083SOL     OW12106   5.962   3.848   3.447  0.0176 -0.6565 -0.2886
35083SOL    HW112107   6.047   3.882   3.474 -0.4339  0.3321 -0.0627
35083SOL    HW212108   5.959   3.759   3.482  0.3952 -0.2134  0.9161
35084SOL     OW12109   5.065   4.642   0.728  0.1473  0.2609 -0.4254
35084SOL    HW112110   5.160   4.641   0.740  0.3522 -0.4066 -1.8825
35084SOL    HW212111   5.033   4.693   0.801  1.4736 -0.9987  1.1384
35085SOL     OW12112   0.592   9.207   1.402 -0.3282  0.2445 -0.3606
35085SOL    HW112113   0.637   9.152   1.338 -0.9137  0.1847 -0.7292
35085SOL    HW212114   0.547   9.145   1.460  0.3098  0.2938  0.2025
35086SOL     OW12115   8.222  11.982  11.038 -0.2096  0.3421  0.6089
35086SOL    HW112116   8.131  12.003  11.016 -0.3667 -0.2863  0.6192
35086SOL    HW212117   8.267  11.980  10.954 -0.6012 -1.1013  0.4027
35087SOL     OW12118   8.722   1.770   9.805  0.1369 -0.1401 -0.4444
35087SOL    HW112119   8.684   1.703   9.747 -1.4875  2.0910 -2.1690
35087SOL    HW212120   8.716   1.851   9.754  0.9798  1.5380  1.9517
35088SOL     OW12121   5.568   6.698  11.276  0.0709 -0.2410 -0.7718
35088SOL    HW112122   5.575   6.637  11.203 -1.1956 -0.7871 -0.4674
35088SOL    HW212123   5.553   6.783  11.234 -0.6272 -0.5472 -1.1622
35089SOL     OW12124   2.358   5.234   7.820 -0.1736  0.0799  0.4369
35089SOL    HW112125   2.324   5.145   7.834 -0.5495  0.1017 -0.3345
35089SOL    HW212126   2.289   5.279   7.773 -0.9516  1.4917  2.7575
35090SOL     OW12127  10.444   5.865   3.322 -0.5080  0.3202 -0.5284
35090SOL    HW112128  10.358   5.869   3.281 -0.4991  1.3538 -0.4847
35090SOL    HW212129  10.426   5.847   3.414 -0.6908  0.6474 -0.4985
35091SOL     OW12130  11.880   6.056  12.457 -0.6928 -0.0178 -0.1677
35091SOL    HW112131  11.876   5.991  12.386  1.0021  1.0454 -1.3232
35091SOL    HW212132  11.813   6.120  12.434 -0.0165  0.4249 -0.9378
35092SOL     OW12133  11.605   8.015   6.804  0.7093 -0.0767  0.1846
35092SOL    HW112134  11.694   8.042   6.783  1.6570 -1.3813  2.2204
35092SOL    HW212135  11.567   8.091   6.848  1.7552 -0.3919  1.7009
35093SOL     OW12136   2.038  10.051  12.457  0.1471  0.1466  0.1781
35093SOL    HW112137   2.020   9.957  12.446 -0.3121  0.3856 -1.3473
35093SOL    HW212138   2.021  10.068  12.549 -0.6918 -1.0794  0.2736
35094SOL     OW12139   1.512  11.410   0.935 -0.0951  0.6881  0.6949
35094SOL    HW112140   1.418  11.413   0.920  0.0578  1.5763 -0.1853
35094SOL    HW212141   1.539  11.502   0.935  1.0349  0.3934 -0.8656
35095SOL     OW12142   0.493   8.995   9.860  0.1024 -0.4691 -0.5226
35095SOL    HW112143   0.406   8.962   9.884  0.0480 -0.4402 -0.6759
35095SOL    HW212144   0.481   9.029   9.771  0.1625 -0.0416 -0.3673
35096SOL     OW12145   7.988   5.490  10.957  0.2945  0.1203  0.6481
35096SOL    HW112146   7.940   5.457  11.033 -0.9924 -0.4254 -0.3591
35096SOL    HW212147   7.986   5.417  10.894  1.1210  0.6468 -0.0058
35097SOL     OW12148   8.908   2.033  10.365 -0.1169  0.1475  0.3782
35097SOL    HW112149   8.998   2.064  10.357 -0.2447  0.0437 -2.6071
35097SOL    HW212150   8.916   1.940  10.387  0.7497 -0.8219 -3.3893
35098SOL     OW12151   0.291   7.975   2.131  0.1824  0.1247  0.0650
35098SOL    HW112152   0.210   7.957   2.084 -0.7739 -1.2598  2.1085
35098SOL    HW212153   0.355   7.915   2.093 -0.0148  0.4833 -0.8467
35099SOL     OW12154   3.333   9.704   5.438 -0.4266 -0.1470 -0.1904
35099SOL    HW112155   3.372   9.649   5.370  2.5604  1.1409  0.3481
35099SOL    HW212156   3.336   9.792   5.402 -1.5079  0.2092  0.5202
35100SOL     OW12157   3.106   3.173   1.313 -0.4501 -0.1115 -0.8320
35100SOL    HW112158   3.043   3.228   1.360  0.2303  0.8567 -1.0269
35100SOL    HW212159   3.058   3.093   1.294 -0.8918 -0.3591  1.0937
35101SOL     OW12160   8.752   4.809   4.494  0.2459  0.1742  0.1242
35101SOL    HW112161   8.771   4.779   4.405 -0.6270 -0.2749  0.0713
35101SOL    HW212162   8.794   4.745   4.551  1.4330  0.8721  0.0546
35102SOL     OW12163  11.216   5.866   9.983  0.3149 -0.5601  0.1475
35102SOL    HW112164  11.139   5.813   9.965 -0.7132  0.8645  0.1742
35102SOL    HW212165  11.264   5.868   9.900 -1.3008  1.0549 -0.8064
35103SOL     OW12166   8.384   3.280   5.692  0.2403  0.5358 -0.3191
35103SOL    HW112167   8.365   3.219   5.763 -0.2503  0.2911 -0.6558
35103SOL    HW212168   8.426   3.354   5.735  0.3277  0.2085  0.1684
35104SOL     OW12169   4.083  11.567   4.790  0.0709  0.1470  0.2613
35104SOL    HW112170   4.101  11.604   4.703 -0.7577 -0.1728 -0.0614
35104SOL    HW212171   4.115  11.477   4.784 -0.5875 -0.0828  0.0502
35105SOL     OW12172   6.665   7.264   8.947 -0.4547 -0.0461 -0.3175
35105SOL    HW112173   6.745   7.316   8.938  0.0571 -0.5485  1.0642
35105SOL    HW212174   6.669   7.201   8.876 -0.7385  1.3180 -1.5979
35106SOL     OW12175   5.739   1.067   4.637  0.3510 -0.3695 -0.1831
35106SOL    HW112176   5.760   1.096   4.548 -1.3945  4.1978  0.6207
35106SOL    HW212177   5.643   1.072   4.642  0.3997 -0.4961  1.9698
35107SOL     OW12178   6.006  10.352  10.425 -0.0624  0.0927  0.2632
35107SOL    HW112179   5.920  10.330  10.391 -0.8563  0.4909  1.9124
35107SOL    HW212180   6.034  10.428  10.373 -0.7055 -0.0181 -0.2526
35108SOL     OW12181   9.067   0.820  12.278  0.3435  0.2023 -0.0351
35108SOL    HW112182   9.010   0.761  12.327  1.6052 -0.6127  0.5040
35108SOL    HW212183   9.078   0.896  12.336  1.2354 -0.4351  0.6536
35109SOL     OW12184  11.906  11.312   3.172 -0.2016  0.0574 -0.1226
35109SOL    HW112185  11.912  11.406   3.152 -0.9794  0.1612  0.0959
35109SOL    HW212186  11.965  11.271   3.109 -0.3982  0.6354 -0.7018
35110SOL     OW12187   9.276   7.867   7.266 -0.2025 -0.7743 -0.2743
35110SOL    HW112188   9.290   7.936   7.201 -0.6795 -0.8976 -0.5107
35110SOL    HW212189   9.306   7.906   7.349  2.1990 -1.2540 -0.8272
35111SOL     OW12190   4.504   1.437   1.302  0.6261  0.0694 -0.2201
35111SOL    HW112191   4.414   1.455   1.275  0.4821  0.1207  0.2902
35111SOL    HW212192   4.495   1.395   1.388  1.1760  1.8030  0.7152
35112SOL     OW12193   8.890   5.338  11.002  0.3627  0.2995 -0.1546
35112SOL    HW112194   8.948   5.291  11.062  0.9591 -0.8427 -1.5842
35112SOL    HW212195   8.935   5.422  10.987 -0.6790  1.4253  2.3536
35113SOL     OW12196   6.970   0.107   2.202 -0.1487  0.3773 -0.3376
35113SOL    HW112197   6.976   0.014   2.224  1.0362  0.0861 -1.7254
35113SOL    HW212198   6.935   0.108   2.113  1.3792  1.1419 -0.9728
35114SOL     OW12199   8.945   8.032   1.143 -0.2098 -0.2511 -0.2378
35114SOL    HW112200   8.897   8.095   1.197  1.1754  0.7470 -0.1298
35114SOL    HW212201   8.883   8.008   1.074 -0.9628  0.7885  0.0475
35115SOL     OW12202   4.892   4.159   1.077 -0.1071  0.4002  0.2078
35115SOL    HW112203   4.912   4.158   1.170 -0.0976  1.5179  0.2387
35115SOL    HW212204   4.977   4.160   1.033 -0.1102 -0.5510  0.1677
35116SOL     OW12205   3.427   5.096   1.224  0.0900 -0.0157 -0.0002
35116SOL    HW112206   3.488   5.095   1.298 -0.9101 -2.5025  0.8772
35116SOL    HW212207   3.366   5.167   1.244  0.4248 -0.0186  1.0747
35117SOL     OW12208   7.479   4.628   3.130 -0.5906 -0.1839  0.0785
35117SOL    HW112209   7.453   4.719   3.137 -0.2746 -0.1113  0.3068
35117SOL    HW212210   7.407   4.586   3.081 -0.6617  0.2126 -0.1581
35118SOL     OW12211   9.748   6.732  11.237  0.0508  0.5407 -0.5878
35118SOL    HW112212   9.681   6.750  11.170 -0.8918  1.4624  0.5484
35118SOL    HW212213   9.747   6.637  11.247  1.4036  0.1832 -3.0212
35119SOL     OW12214   2.595   8.952   6.392 -0.3429  0.1406 -0.1518
35119SOL    HW112215   2.545   8.956   6.310  0.2773  2.4323 -0.4645
35119SOL    HW212216   2.572   9.031   6.439  0.0426 -0.6836  1.4973
35120SOL     OW12217   5.504   9.542   4.442  0.3995  0.0400  0.1018
35120SOL    HW112218   5.560   9.465   4.451 -1.6121 -1.5428 -0.2919
35120SOL    HW212219   5.415   9.507   4.443 -0.5972  2.4157  0.2889
35121SOL     OW12220   7.476  11.747   2.390  0.0410  0.2300  0.2037
35121SOL    HW112221   7.492  11.817   2.327  1.7068  0.6116  1.0019
35121SOL    HW212222   7.387  11.717   2.370 -0.6190  2.3760 -0.3218
35122SOL     OW12223   4.392  10.634   5.053  0.4468 -0.0662 -0.1641
35122SOL    HW112224   4.382  10.567   4.985 -0.3346  1.1343 -1.2760
35122SOL    HW212225   4.303  10.654   5.082  0.7844 -0.8516  1.5613
35123SOL     OW12226   7.685   7.828   6.939  0.1753 -0.4135  0.0533
35123SOL    HW112227   7.645   7.863   7.019  0.1985 -0.8707  0.2648
35123SOL    HW212228   7.736   7.753   6.968  1.8801  0.6391 -0.0934
35124SOL     OW12229   8.242   8.226  12.536 -0.0469 -0.0512 -0.2011
35124SOL    HW112230   8.325   8.182  12.552 -0.2322 -0.7906 -1.1615
35124SOL    HW212231   8.248   8.256  12.445 -0.2525  1.2062  0.1849
35125SOL     OW12232  10.840   2.871   9.495  0.2680  0.2945  0.2436
35125SOL    HW112233  10.745   2.871   9.480  0.4002  0.5599 -0.6603
35125SOL    HW212234  10.849   2.863   9.590 -0.6376 -1.6496  0.2246
35126SOL     OW12235   2.830   8.681   6.891 -0.2638  0.3181 -0.3723
35126SOL    HW112236   2.920   8.655   6.913  0.0702  1.1559 -0.7377
35126SOL    HW212237   2.839   8.765   6.846 -1.1494 -0.0974 -1.3579
35127SOL     OW12238   7.152  12.496   1.358 -0.3567 -0.2253 -0.1811
35127SOL    HW112239   7.060  12.501   1.385 -0.0664 -0.2133  0.8771
35127SOL    HW212240   7.170  12.581   1.319 -0.5619  0.1145  0.4405
35128SOL     OW12241   7.182   0.594   3.870  0.2318  0.0811 -0.7741
35128SOL    HW112242   7.194   0.499   3.879 -1.4276 -0.1394 -0.6110
35128SOL    HW212243   7.185   0.627   3.960  1.5042  0.3134 -0.8735
35129SOL     OW12244   5.950   4.246   2.624 -0.0766  0.2341 -0.0745
35129SOL    HW112245   5.917   4.256   2.535  1.2074  0.0561 -0.6023
35129SOL    HW212246   5.876   4.213   2.674 -1.0257  1.0430 -0.9137
35130SOL     OW12247   3.071   7.694  11.956  0.8767  0.0484  0.5158
35130SOL    HW112248   3.061   7.762  12.022  1.6695 -0.6992  1.4343
35130SOL    HW212249   3.045   7.613  12.000  1.4427 -0.4681 -0.0799
35131SOL     OW12250   7.950   1.898   2.135 -0.2552  0.7327 -0.2783
35131SOL    HW112251   7.873   1.869   2.087 -0.3675  1.4084 -0.5137
35131SOL    HW212252   8.023   1.883   2.074 -0.4869  2.3179 -0.9850
35132SOL     OW12253   3.741   9.339  10.929 -0.4527 -0.7437  0.5588
35132SOL    HW112254   3.796   9.402  10.975  0.0364 -0.4409 -0.4092
35132SOL    HW212255   3.675   9.392  10.885  0.6052 -0.7722 -1.1468
35133SOL     OW12256   5.283   4.150   6.170  0.1795  0.1150  0.1916
35133SOL    HW112257   5.278   4.179   6.261  2.5719  0.6315  0.2206
35133SOL    HW212258   5.361   4.096   6.166  1.8980  2.5107 -2.1274
35134SOL     OW12259   9.904   5.486   4.464  0.1283  0.0013 -0.0044
35134SOL    HW112260   9.905   5.540   4.385 -0.6388 -0.8083 -0.5904
35134SOL    HW212261   9.914   5.396   4.432 -1.4225 -0.4561  0.6910
35135SOL     OW12262   2.288   8.345   7.961  0.0133  0.0385  0.0995
35135SOL    HW112263   2.317   8.433   7.981 -0.5304  0.4714 -0.9274
35135SOL    HW212264   2.345   8.316   7.890 -0.5771  0.0305 -0.3823
35136SOL     OW12265   3.744  10.731   0.352  0.4650  0.1631  0.4102
35136SOL    HW112266   3.662  10.693   0.383 -0.9583  2.7778  0.2073
35136SOL    HW212267   3.803  10.728   0.427 -0.7574  0.6231  1.4148
35137SOL     OW12268   4.804   6.852   2.871 -0.1145  0.0845 -0.0675
35137SOL    HW112269   4.739   6.783   2.858 -1.0202  0.6879  1.0764
35137SOL    HW212270   4.770   6.927   2.821 -0.1736  0.3245  0.3310
35138SOL     OW12271  10.852   9.914   8.103 -0.2008  0.8513  0.2500
35138SOL    HW112272  10.778   9.974   8.115 -1.2607 -0.0487 -1.4957
35138SOL    HW212273  10.914   9.964   8.050 -0.9246  0.5573 -0.8971
35139SOL     OW12274  10.501  11.739   2.853 -0.0488 -0.3752  0.3948
35139SOL    HW112275  10.481  11.767   2.943  1.2937 -0.6187  0.8042
35139SOL    HW212276  10.420  11.701   2.821 -1.0770  1.3020  0.8681
35140SOL     OW12277   6.481   6.971  12.127  0.1247  0.4525 -0.2080
35140SOL    HW112278   6.490   6.942  12.037  1.4194 -1.5898  0.5064
35140SOL    HW212279   6.387   6.985  12.139 -0.2340 -0.7322 -1.4447
35141SOL     OW12280   4.550   9.264  12.450  0.3849  0.2424  0.1448
35141SOL    HW112281   4.586   9.260  12.539  0.9247 -0.8787 -0.1077
35141SOL    HW212282   4.456   9.276  12.463  0.2938 -1.1035  0.9129
35142SOL     OW12283   9.495   0.038  10.881 -0.1910  0.1862  0.2556
35142SOL    HW112284   9.566   0.067  10.938  0.0691  0.4179 -0.1797
35142SOL    HW212285   9.444   0.117  10.863 -1.8234 -0.3286  2.2648
35143SOL     OW12286  11.616  10.670   1.969  0.1881 -0.5039  0.0745
35143SOL    HW112287  11.567  10.627   1.899  0.1253  0.5673 -0.5713
35143SOL    HW212288  11.648  10.599   2.024 -1.8817 -1.2726  0.3872
35144SOL     OW12289   6.363   1.451   7.822  0.4929  0.4286 -0.2163
35144SOL    HW112290   6.321   1.390   7.882 -0.6102 -0.4455 -1.7993
35144SOL    HW212291   6.380   1.529   7.874  1.8227 -1.1323  1.8595
35145SOL     OW12292   1.706  11.644   9.350 -0.1202 -0.5294 -0.5744
35145SOL    HW112293   1.655  11.564   9.338  0.5144 -0.8719 -1.1046
35145SOL    HW212294   1.653  11.713   9.311 -1.6157 -0.3081  1.6710
35146SOL     OW12295   8.699  11.854   3.988 -0.2617  0.2069  0.1077
35146SOL    HW112296   8.620  11.801   4.002 -0.4951 -0.1336 -2.1392
35146SOL    HW212297   8.771  11.792   3.999 -0.4358 -0.1031 -0.4717
35147SOL     OW12298   7.073   4.027   0.668 -0.2420 -0.5602 -0.8878
35147SOL    HW112299   7.035   4.114   0.681 -2.3246 -1.3270 -1.4852
35147SOL    HW212300   7.006   3.967   0.701  0.9006 -1.9614 -1.0556
35148SOL     OW12301   5.780   9.827   3.758  0.8784  0.1398 -0.0831
35148SOL    HW112302   5.798   9.747   3.808  0.5570 -0.3956 -0.7908
35148SOL    HW212303   5.826   9.813   3.675 -0.5684 -0.0892 -0.8918
35149SOL     OW12304   2.507  11.599   0.394 -0.0664 -0.3896  0.0513
35149SOL    HW112305   2.494  11.677   0.340 -0.4069 -1.0104 -0.7906
35149SOL    HW212306   2.446  11.534   0.358  1.1924 -1.4881 -0.1970
35150SOL     OW12307  11.829   2.076   2.654 -0.0503 -0.5387 -0.0034
35150SOL    HW112308  11.769   2.085   2.729 -0.0588  0.6180 -0.1355
35150SOL    HW212309  11.786   2.014   2.596 -1.6495  1.0321 -0.5770
35151SOL     OW12310   5.769   2.583   8.189  0.1124  0.0281  0.2972
35151SOL    HW112311   5.724   2.522   8.131  1.5498  1.0257 -1.9926
35151SOL    HW212312   5.750   2.670   8.153  0.8626  0.7046  1.4635
35152SOL     OW12313   8.643  11.043   1.153  0.3159  0.4071 -0.4888
35152SOL    HW112314   8.564  10.992   1.132 -1.8077  3.8580 -1.7808
35152SOL    HW212315   8.711  11.006   1.097 -1.3034 -0.5388 -1.9557
35153SOL     OW12316  10.600   7.936  11.103 -0.3148 -0.4804  0.6090
35153SOL    HW112317  10.574   7.963  11.015  0.6414 -1.5285 -0.0222
35153SOL    HW212318  10.687   7.974  11.116 -0.0670 -1.0770  0.7345
35154SOL     OW12319   2.510   6.603   2.767 -0.5648 -0.5959 -0.1516
35154SOL    HW112320   2.425   6.574   2.800 -0.9570 -1.3942 -1.7395
35154SOL    HW212321   2.514   6.568   2.678  2.0084 -1.7147  0.3276
35155SOL     OW12322   2.508  11.040   0.977 -0.2673  0.0356 -0.5445
35155SOL    HW112323   2.415  11.053   0.957 -0.0513  2.3451 -0.3252
35155SOL    HW212324   2.554  11.088   0.908  0.7048  0.7252  0.5525
35156SOL     OW12325   5.942  10.386  10.707  0.1936 -0.7089 -0.7035
35156SOL    HW112326   5.939  10.478  10.734 -0.8311 -0.7613 -0.6218
35156SOL    HW212327   5.960  10.389  10.613 -0.3889 -0.4092 -0.8051
35157SOL     OW12328  10.563   1.677   8.779  0.2457 -0.4867 -0.0852
35157SOL    HW112329  10.506   1.620   8.830  1.9558 -0.3009  2.1949
35157SOL    HW212330  10.625   1.618   8.737 -0.9653 -0.6124 -1.7991
35158SOL     OW12331   3.625  11.829   2.074 -0.2717 -0.8905 -0.0736
35158SOL    HW112332   3.644  11.907   2.021 -3.4055  0.9860  1.2699
35158SOL    HW212333   3.707  11.780   2.075  1.7024  2.0787 -1.4834
35159SOL     OW12334   6.770  12.184   8.229  0.4056 -0.1387 -0.3163
35159SOL    HW112335   6.779  12.196   8.135 -0.6777 -0.7196 -0.5087
35159SOL    HW212336   6.721  12.102   8.239 -0.0753  0.2462  0.7265
35160SOL     OW12337   7.170   4.365   5.346 -0.3138  0.1076  0.3864
35160SOL    HW112338   7.244   4.414   5.310 -1.2433  0.8429 -0.5711
35160SOL    HW212339   7.126   4.428   5.403 -1.1158  0.1794 -0.3067
35161SOL     OW12340   3.592   3.591   3.750  0.1007  0.4211  0.0470
35161SOL    HW112341   3.531   3.517   3.754 -0.1903  0.7048  2.3853
35161SOL    HW212342   3.537   3.668   3.766  0.4606  1.1792 -1.9918
35162SOL     OW12343   6.603   3.609  11.288  0.1031 -0.1624 -1.0516
35162SOL    HW112344   6.517   3.645  11.267 -0.9647 -2.3593 -0.7401
35162SOL    HW212345   6.593   3.514  11.276  1.7014 -0.7564  1.5774
35163SOL     OW12346   6.337  10.996   1.971  0.5623 -0.3864 -0.3347
35163SOL    HW112347   6.342  11.072   1.913 -1.1648  0.7602  0.8901
35163SOL    HW212348   6.264  10.944   1.936 -0.6893  0.4656  0.8639
35164SOL     OW12349   0.317  11.346   6.061 -0.2929  0.4580  0.7764
35164SOL    HW112350   0.276  11.288   6.125 -0.9933  1.7755  1.5623
35164SOL    HW212351   0.378  11.290   6.014 -1.5550 -1.1118  0.9174
35165SOL     OW12352   9.065   9.887  11.692 -0.3233  0.0174 -0.3476
35165SOL    HW112353   9.161   9.891  11.691 -0.2464 -0.9640  0.6391
35165SOL    HW212354   9.039   9.921  11.607  0.9903 -1.3462 -1.3483
35166SOL     OW12355  10.985  11.044  10.271  0.4583  0.3272 -0.6102
35166SOL    HW112356  11.001  10.950  10.280  1.5350  0.5079 -0.5710
35166SOL    HW212357  11.064  11.079  10.229  1.7622  1.7859  2.7072
35167SOL     OW12358   9.993   2.167   2.136  0.1066  0.2467  0.1332
35167SOL    HW112359   9.921   2.213   2.093 -0.4981 -0.1271  0.7290
35167SOL    HW212360   9.963   2.154   2.226  0.5469 -0.7062  0.1554
35168SOL     OW12361   9.504   6.468   6.227 -0.4662 -0.1492 -0.0980
35168SOL    HW112362   9.472   6.553   6.256 -1.1473 -0.7974  1.1204
35168SOL    HW212363   9.594   6.463   6.260 -0.6405 -0.1565  0.3833
35169SOL     OW12364   5.327  10.775   2.501 -0.2866 -0.2308 -0.2482
35169SOL    HW112365   5.277  10.732   2.431  1.3762 -1.5057 -0.7210
35169SOL    HW212366   5.394  10.711   2.525  0.5516  1.0569  0.9925
35170SOL     OW12367  11.905   8.723   9.313  0.0597 -0.1403 -0.2434
35170SOL    HW112368  11.897   8.706   9.219  0.4850  0.4497 -0.3902
35170SOL    HW212369  11.999   8.728   9.329 -0.0264  0.7868  0.0214
35171SOL     OW12370   5.023   7.752  10.798 -0.6456  0.0454  0.0883
35171SOL    HW112371   4.961   7.825  10.785 -0.3088  0.2923 -0.1674
35171SOL    HW212372   5.003   7.691  10.727 -0.6256  0.1017  0.0345
35172SOL     OW12373  11.693   7.605   6.223 -0.5302 -0.4325 -0.5340
35172SOL    HW112374  11.758   7.539   6.198 -0.7101 -0.2895 -1.4047
35172SOL    HW212375  11.733   7.651   6.296  0.1445 -0.6667 -0.7494
35173SOL     OW12376   4.539   5.211   5.280 -0.3026  0.1783  0.0272
35173SOL    HW112377   4.463   5.153   5.288 -0.0209 -0.4615 -1.4840
35173SOL    HW212378   4.552   5.220   5.185  0.7788  1.2467  0.2514
35174SOL     OW12379   4.103   0.978  10.451  0.0428 -0.1296  0.6192
35174SOL    HW112380   4.178   1.037  10.458  1.1711 -1.4802  0.1917
35174SOL    HW212381   4.066   0.997  10.364  1.7042 -1.4945 -0.4462
35175SOL     OW12382   6.212  11.301   2.042  0.3916 -0.2688  0.0451
35175SOL    HW112383   6.250  11.277   1.958  0.8705 -1.3705  0.5540
35175SOL    HW212384   6.274  11.361   2.081  0.0090  0.5083 -0.5186
35176SOL     OW12385   4.541   9.453   8.071 -0.4375 -0.0639 -0.1463
35176SOL    HW112386   4.577   9.437   7.984 -0.5583 -1.1626 -0.0096
35176SOL    HW212387   4.447   9.440   8.061 -0.4277 -0.4147  0.1989
35177SOL     OW12388  10.855   2.212   3.235  0.2569  0.5719 -0.2324
35177SOL    HW112389  10.942   2.235   3.268  0.3063  0.8299 -0.5359
35177SOL    HW212390  10.835   2.281   3.171  0.3163 -0.1144 -1.0027
35178SOL     OW12391   5.115  12.439  12.313  0.0716  0.5107 -0.0077
35178SOL    HW112392   5.177  12.502  12.351 -2.0229  2.7782 -0.1001
35178SOL    HW212393   5.104  12.469  12.222  0.2451 -1.0115 -0.5507
35179SOL     OW12394   7.900   5.870   9.583  0.2834  0.5645 -0.1437
35179SOL    HW112395   7.813   5.909   9.582  1.0495  2.3507 -0.1386
35179SOL    HW212396   7.932   5.880   9.493 -0.2503 -1.9448 -0.7025
35180SOL     OW12397   3.836   3.982   6.528 -0.0662  0.5121  0.3959
35180SOL    HW112398   3.800   3.929   6.456 -0.2361  1.1405  0.0146
35180SOL    HW212399   3.931   3.973   6.519 -0.0773  0.8415 -0.1038
35181SOL     OW12400   5.223   2.988   4.901  0.3488 -0.1227  0.3423
35181SOL    HW112401   5.267   3.073   4.895  0.0643 -0.0763 -2.3370
35181SOL    HW212402   5.137   3.008   4.936  0.8688  0.4254  1.3508
35182SOL     OW12403   4.161   3.831   9.768 -0.4966  0.4991 -0.2989
35182SOL    HW112404   4.098   3.875   9.824 -0.2625  1.5920 -0.8611
35182SOL    HW212405   4.247   3.856   9.804 -0.3603  0.1532 -0.3744
35183SOL     OW12406  10.960   9.717   0.999 -0.1598 -0.5122  0.0000
35183SOL    HW112407  10.889   9.664   1.034  0.4269 -1.5034 -0.2581
35183SOL    HW212408  10.954   9.801   1.045  0.0390 -1.4569  1.8208
35184SOL     OW12409   0.605   7.789   6.262  0.7003  0.0290  0.1684
35184SOL    HW112410   0.656   7.869   6.258  0.3389  0.4278  2.2888
35184SOL    HW212411   0.534   7.802   6.198  0.7143  1.3491  0.4021
35185SOL     OW12412   5.679   7.326  11.988  0.0273 -0.6184 -0.3117
35185SOL    HW112413   5.698   7.411  11.949  2.0560 -1.1871 -0.7125
35185SOL    HW212414   5.698   7.337  12.081  1.0283 -0.7855 -0.4790
35186SOL     OW12415   9.571  10.035  12.284  0.4691 -0.1006 -0.2075
35186SOL    HW112416   9.504   9.998  12.341  0.2036  0.0573 -0.4140
35186SOL    HW212417   9.563  10.129  12.295  0.8138 -0.0869 -0.0579
35187SOL     OW12418   7.568   6.727   4.672  0.1816  0.0424  0.4458
35187SOL    HW112419   7.526   6.668   4.609 -0.9896  0.3818  0.8785
35187SOL    HW212420   7.662   6.709   4.664  0.0213 -0.1973 -1.1037
35188SOL     OW12421  12.468   5.999   9.591  0.0812 -0.1451  0.8073
35188SOL    HW112422  12.503   6.089   9.596 -1.4698  0.5936 -0.6161
35188SOL    HW212423  12.450   5.986   9.498 -1.0734 -1.4137  1.1836
35189SOL     OW12424  11.437  11.609   9.666  0.3127 -0.2403  0.6687
35189SOL    HW112425  11.451  11.516   9.679  0.1749 -0.1091  1.8434
35189SOL    HW212426  11.358  11.629   9.715 -0.0121  0.3815 -0.0832
35190SOL     OW12427   3.081   5.129  10.926 -0.1882 -0.0865 -0.1328
35190SOL    HW112428   2.997   5.117  10.970  0.4341  0.9474  1.4022
35190SOL    HW212429   3.108   5.218  10.948  1.0161 -0.1731 -1.1355
35191SOL     OW12430   9.060   8.986   0.594  0.1966 -0.3571 -0.4588
35191SOL    HW112431   9.100   8.911   0.639 -1.5026 -0.6830  0.6221
35191SOL    HW212432   8.978   8.951   0.558 -0.0292  0.7015 -1.0130
35192SOL     OW12433   3.919  11.422   1.395  0.1570 -0.0234 -0.5974
35192SOL    HW112434   3.975  11.456   1.325 -0.5478  0.1671 -1.0729
35192SOL    HW212435   3.947  11.331   1.406  0.6712  0.1181 -0.7173
35193SOL     OW12436   1.203   4.609   3.902  0.1171 -0.0855 -0.4947
35193SOL    HW112437   1.110   4.625   3.920  0.2719  0.1510  0.1048
35193SOL    HW212438   1.243   4.696   3.905  0.4857 -0.2654  0.0134
35194SOL     OW12439   3.530   0.784  11.618  0.0180 -0.5934 -0.3720
35194SOL    HW112440   3.584   0.851  11.577  0.6346 -2.4492 -2.8085
35194SOL    HW212441   3.578   0.759  11.697  0.9179  0.2572 -0.6322
35195SOL     OW12442   0.273   2.035   0.103  0.3801  0.0681  0.2960
35195SOL    HW112443   0.238   1.974   0.168  0.7122 -0.4250  0.0154
35195SOL    HW212444   0.264   1.990   0.019 -1.2765  1.2377 -0.1944
35196SOL     OW12445  12.106   1.417  11.945  0.2836  0.1959 -0.1387
35196SOL    HW112446  12.033   1.356  11.939 -0.1448  0.7478 -0.6231
35196SOL    HW212447  12.066   1.504  11.937  1.1843  0.4661 -2.5921
35197SOL     OW12448   1.269   4.859   6.273 -0.6742  0.1472 -0.0934
35197SOL    HW112449   1.267   4.937   6.217 -1.4148  0.8281  0.8626
35197SOL    HW212450   1.344   4.872   6.330 -0.2580 -0.2842 -0.5254
35198SOL     OW12451   1.503   7.915  11.179 -0.3637  0.1034  0.7262
35198SOL    HW112452   1.471   7.901  11.268 -1.1880  1.3980  0.6559
35198SOL    HW212453   1.597   7.932  11.190 -0.3939 -0.0722  1.3042
35199SOL     OW12454  11.377   3.509   9.116 -0.4320  0.2034 -0.3392
35199SOL    HW112455  11.326   3.573   9.065 -0.2950 -0.9643 -2.0284
35199SOL    HW212456  11.344   3.424   9.087  1.2542 -0.5492 -0.1748
35200SOL     OW12457   5.593   6.417   4.767  0.2544 -0.1375 -0.0818
35200SOL    HW112458   5.648   6.339   4.778  0.8229  0.4819  1.9666
35200SOL    HW212459   5.504   6.382   4.759  0.7816 -1.1190 -2.7485
35201SOL     OW12460  12.153  10.058   1.577  0.0554  0.1966  0.1500
35201SOL    HW112461  12.214  10.132   1.570  0.9207 -0.5331 -0.3372
35201SOL    HW212462  12.121  10.046   1.488  2.2660 -1.8923 -0.4838
35202SOL     OW12463   2.513   8.861  11.430 -0.0881 -0.3579 -0.0173
35202SOL    HW112464   2.430   8.907  11.432  0.3842  0.4920  0.8898
35202SOL    HW212465   2.515   8.809  11.511  1.2483  1.4941  1.2163
35203SOL     OW12466  10.167  10.906   1.292 -0.0834  0.5130 -0.2668
35203SOL    HW112467  10.253  10.904   1.334 -0.2943  0.4315  0.1685
35203SOL    HW212468  10.182  10.950   1.209  0.9590 -2.0779 -1.5552
35204SOL     OW12469   7.234   1.111   8.795 -0.6709  0.1901 -0.1184
35204SOL    HW112470   7.163   1.164   8.759 -2.4111 -3.2174 -2.2491
35204SOL    HW212471   7.277   1.073   8.718  0.5005 -1.4144  1.2510
35205SOL     OW12472   4.125   3.956   8.040 -0.5288  0.2809  0.4819
35205SOL    HW112473   4.204   3.901   8.033 -1.1122 -0.4050 -1.3487
35205SOL    HW212474   4.069   3.910   8.101 -0.4006 -0.4046  0.0922
35206SOL     OW12475   8.534   5.607   1.678 -0.5208  0.5133  0.3904
35206SOL    HW112476   8.585   5.624   1.599  0.3165 -0.8031  0.6133
35206SOL    HW212477   8.517   5.693   1.715  1.2181  1.0083  0.0879
35207SOL     OW12478   8.020   3.759   9.435  0.1726 -0.5186  0.2947
35207SOL    HW112479   8.059   3.768   9.522 -0.2474 -0.6815  0.5052
35207SOL    HW212480   7.927   3.744   9.452  0.0291 -0.2140 -0.1927
35208SOL     OW12481   8.291   6.486   7.049 -0.2605  0.1596  0.1989
35208SOL    HW112482   8.317   6.408   7.097  2.4360  0.9023  0.1258
35208SOL    HW212483   8.268   6.454   6.962  1.0139 -0.5875  0.1040
35209SOL     OW12484   3.805   0.095   1.608 -0.2841  0.2149 -0.2281
35209SOL    HW112485   3.756   0.088   1.690  0.8026 -0.3808  0.4066
35209SOL    HW212486   3.854   0.176   1.617 -0.7279  0.5269 -0.6162
35210SOL     OW12487   9.662  12.214   0.127 -0.4617  0.5512  0.0005
35210SOL    HW112488   9.628  12.195   0.214 -0.4664 -1.1062 -0.3167
35210SOL    HW212489   9.665  12.128   0.083  2.4465  0.8366 -0.5732
35211SOL     OW12490   7.719  10.856   2.124 -0.1411  0.1371  0.0388
35211SOL    HW112491   7.638  10.806   2.114  0.5481 -0.9330 -0.3490
35211SOL    HW212492   7.694  10.946   2.105 -1.7816  0.2712  2.3736
35212SOL     OW12493  10.729   7.316   5.581 -0.1227 -0.2495 -0.2456
35212SOL    HW112494  10.680   7.258   5.523 -2.5586  1.1176  0.2900
35212SOL    HW212495  10.807   7.266   5.605 -1.0350 -2.4141 -1.4873
35213SOL     OW12496   0.085   9.336   0.127 -0.2434 -0.1918  0.1327
35213SOL    HW112497   0.151   9.326   0.196  0.1610 -0.6459 -0.3088
35213SOL    HW212498   0.070   9.430   0.121 -0.3939 -0.1560  0.9364
35214SOL     OW12499   6.910   7.508   6.357 -0.1669 -0.2817  0.1913
35214SOL    HW112500   6.837   7.557   6.394  0.3912  0.7768 -0.0594
35214SOL    HW212501   6.978   7.512   6.425 -0.1322 -0.7558  0.1864
35215SOL     OW12502   8.695  12.560   8.468  0.7189 -0.5322  0.1113
35215SOL    HW112503   8.769  12.512   8.430  0.7295 -1.7010  1.5304
35215SOL    HW212504   8.640  12.492   8.507 -1.1406  0.3121 -0.9309
35216SOL     OW12505   4.423   9.213   8.891 -0.0199  0.2379  0.1338
35216SOL    HW112506   4.498   9.153   8.886 -0.3828 -0.1569 -1.1024
35216SOL    HW212507   4.369   9.179   8.962  0.6129  0.1026  0.5562
35217SOL     OW12508   5.189  10.711   2.207  0.5366  0.0718  0.7208
35217SOL    HW112509   5.167  10.619   2.222  1.0179 -0.1674 -0.0044
35217SOL    HW212510   5.125  10.760   2.259 -0.5059 -0.6474  0.1483
35218SOL     OW12511   7.955   9.544  12.455  0.0967  0.2991 -0.1785
35218SOL    HW112512   8.003   9.466  12.427 -0.6726 -0.4486  0.5610
35218SOL    HW212513   8.020   9.596  12.502  0.4648 -0.1697 -0.1637
35219SOL     OW12514  11.816   3.592   8.741  0.5188  0.2444 -0.4254
35219SOL    HW112515  11.753   3.564   8.808  3.5833 -2.7203  1.5094
35219SOL    HW212516  11.810   3.524   8.673  2.3292 -0.7383  0.3426
35220SOL     OW12517  10.079   7.673   9.862  0.1778  0.0586 -0.1675
35220SOL    HW112518  10.172   7.652   9.868 -0.2451 -1.5314  1.4265
35220SOL    HW212519  10.048   7.623   9.787  0.0039 -2.0949  1.2393
35221SOL     OW12520   6.927  10.203   6.007 -0.4081 -0.4639  0.0205
35221SOL    HW112521   7.010  10.249   5.996 -1.5349  1.9962  1.0441
35221SOL    HW212522   6.940  10.150   6.086 -0.5512  2.0022  1.8398
35222SOL     OW12523   9.856   8.294   1.368 -0.0140 -0.1457 -0.3985
35222SOL    HW112524   9.800   8.261   1.438  1.8155 -0.3030  1.0838
35222SOL    HW212525   9.945   8.271   1.396  0.8155  0.1867 -2.5827
35223SOL     OW12526   7.431   2.593  11.204 -0.3206 -0.0974 -0.1281
35223SOL    HW112527   7.444   2.532  11.277 -1.5312 -0.6180 -0.3176
35223SOL    HW212528   7.372   2.546  11.144 -1.3200  1.2611 -0.2555
35224SOL     OW12529   9.232   0.296   0.606  0.3674  0.1331  0.1697
35224SOL    HW112530   9.270   0.209   0.618  0.8735 -0.0103 -2.0509
35224SOL    HW212531   9.298   0.344   0.556 -1.8137  0.1716 -2.9838
35225SOL     OW12532   8.416   2.252  10.147 -0.0296 -0.1301 -0.1153
35225SOL    HW112533   8.487   2.238  10.085  0.1646 -0.0840  0.0991
35225SOL    HW212534   8.459   2.278  10.228 -0.2866 -0.1488  0.0283
35226SOL     OW12535   0.064   8.321  10.700  0.1437  0.6583  0.2591
35226SOL    HW112536   0.024   8.329  10.786  0.5518  0.9571  0.4247
35226SOL    HW212537   0.013   8.253  10.656 -0.8126  1.3041  0.3104
35227SOL     OW12538   0.134   6.237   0.438  0.8826 -0.5159 -0.0607
35227SOL    HW112539   0.181   6.289   0.503  0.7408 -0.1758 -0.2300
35227SOL    HW212540   0.089   6.170   0.490  0.0046  0.3311  0.2947
35228SOL     OW12541  10.198   3.332   9.164 -0.4217  0.3370 -0.8487
35228SOL    HW112542  10.279   3.377   9.139 -1.3088  3.4854  1.4022
35228SOL    HW212543  10.142   3.337   9.087  1.0885 -1.0919 -2.1277
35229SOL     OW12544  12.094  10.502   8.249  0.1584  0.1253 -0.4030
35229SOL    HW112545  12.091  10.594   8.220  0.0914  0.4021  0.4598
35229SOL    HW212546  12.180  10.494   8.292 -0.2531  0.0612  0.4191
35230SOL     OW12547   7.377   3.713   9.028  0.0224 -0.2212 -0.6473
35230SOL    HW112548   7.359   3.739   8.938  0.5874 -0.7688 -0.9240
35230SOL    HW212549   7.417   3.790   9.068 -0.2670  0.0362 -0.8530
35231SOL     OW12550   4.561   5.351   4.383 -0.0553  0.2332  0.5457
35231SOL    HW112551   4.634   5.412   4.378 -1.4667  2.0939  1.2798
35231SOL    HW212552   4.577   5.301   4.463  0.5786  0.3823  0.5167
35232SOL     OW12553   4.555   3.166   7.434  0.3767 -0.2649 -0.3893
35232SOL    HW112554   4.487   3.233   7.429  0.8781  0.5217  1.9335
35232SOL    HW212555   4.609   3.179   7.356 -1.4540 -0.1842 -1.6869
35233SOL     OW12556   7.941   9.781   9.998  0.0172  0.4785  0.1183
35233SOL    HW112557   7.889   9.756   9.922  0.4461  0.1752 -0.0779
35233SOL    HW212558   8.017   9.723   9.996  0.4244  0.9947  0.3350
35234SOL     OW12559   1.976   4.698  12.306  0.0188 -0.0866  0.2478
35234SOL    HW112560   2.023   4.644  12.242 -1.7700 -1.3719 -0.0498
35234SOL    HW212561   1.994   4.658  12.390 -0.1328 -0.2840  0.1881
35235SOL     OW12562   7.323   6.460   1.378  0.0154 -0.1511  0.5599
35235SOL    HW112563   7.311   6.366   1.391  1.2839 -0.5849 -1.0758
35235SOL    HW212564   7.415   6.470   1.354  0.1171  1.6243  1.4569
35236SOL     OW12565   7.781   6.961   6.788 -0.0320  0.0303  0.6811
35236SOL    HW112566   7.729   7.041   6.798 -0.9418 -0.5621  0.7871
35236SOL    HW212567   7.743   6.917   6.712  0.3853 -0.3609  0.6947
35237SOL     OW12568   1.907   0.988   3.570 -0.2553  0.1046 -0.1294
35237SOL    HW112569   1.856   0.993   3.489  3.1421  2.4693 -2.3826
35237SOL    HW212570   1.900   1.076   3.607  0.4801 -0.1607  0.6472
35238SOL     OW12571   2.817   2.153   8.755  0.0320  0.2228 -0.1918
35238SOL    HW112572   2.739   2.156   8.811 -1.2932  0.2715 -1.9607
35238SOL    HW212573   2.854   2.066   8.771  0.9404  0.9721  2.2936
35239SOL     OW12574   5.543   3.374  11.724  0.1437  0.0353  0.1385
35239SOL    HW112575   5.615   3.395  11.665 -0.0861 -1.0740 -0.5639
35239SOL    HW212576   5.495   3.304  11.681 -1.3895  0.7454  0.5786
35240SOL     OW12577  11.373   3.447   0.306 -0.0954  0.1471  0.2047
35240SOL    HW112578  11.330   3.410   0.383 -0.3897 -1.5639 -0.7403
35240SOL    HW212579  11.303   3.455   0.241  0.1878  1.3910  0.0131
35241SOL     OW12580   8.500   0.813   4.816 -0.3488 -0.1334 -0.2469
35241SOL    HW112581   8.463   0.759   4.886  1.9254 -2.1082 -0.4300
35241SOL    HW212582   8.539   0.750   4.755  0.8484  1.6696 -1.4553
35242SOL     OW12583   3.074  11.994   7.119 -0.5288  0.1286 -0.4207
35242SOL    HW112584   3.017  12.043   7.058  1.0784 -0.3456 -2.4375
35242SOL    HW212585   3.110  12.061   7.177 -2.0129  0.6214 -0.0267
35243SOL     OW12586   2.644  11.606   1.705 -0.3170 -0.0989  0.6158
35243SOL    HW112587   2.697  11.679   1.737 -0.1001 -0.5573  1.3359
35243SOL    HW212588   2.584  11.646   1.641  1.4441  0.2855 -0.8560
35244SOL     OW12589   6.871  10.874   0.027 -0.3618  0.2905  0.3025
35244SOL    HW112590   6.855  10.949  -0.030 -1.7650 -1.0231 -1.1322
35244SOL    HW212591   6.790  10.823   0.022  0.2989 -0.9671  1.8005
35245SOL     OW12592   1.169   9.516   2.787  0.6429  0.1926 -0.0970
35245SOL    HW112593   1.254   9.538   2.749  0.7948  1.3077  0.8283
35245SOL    HW212594   1.106   9.568   2.737  0.8159  1.4652  0.9729
35246SOL     OW12595   2.761   2.799   5.456  0.1270  0.1065  0.1418
35246SOL    HW112596   2.792   2.829   5.542  0.3646 -0.2222  0.1700
35246SOL    HW212597   2.682   2.748   5.476  1.2156 -1.5753  0.3588
35247SOL     OW12598   1.095   3.084  11.659  0.2499  0.3044 -0.1623
35247SOL    HW112599   1.145   3.120  11.585 -0.7079  1.6248 -0.2125
35247SOL    HW212600   1.008   3.069  11.623 -0.2743  1.1223  0.7403
35248SOL     OW12601   7.459   5.703   0.297  0.1448 -0.1383 -0.2862
35248SOL    HW112602   7.523   5.675   0.231 -0.3638  0.0280 -0.8606
35248SOL    HW212603   7.459   5.799   0.292  0.3550 -0.1085  0.2045
35249SOL     OW12604   8.586  10.342  10.581 -0.2616  0.2286  0.5085
35249SOL    HW112605   8.661  10.296  10.543 -0.7933  0.1373 -0.4736
35249SOL    HW212606   8.601  10.339  10.675  1.4861  1.0736  0.3137
35250SOL     OW12607   3.133   2.649   1.740 -0.2299  0.0355 -0.1085
35250SOL    HW112608   3.145   2.610   1.654  0.9079  1.4330 -0.6133
35250SOL    HW212609   3.169   2.737   1.733 -0.5499  0.3614  1.6612
35251SOL     OW12610   1.402   3.004   3.367  0.6395 -0.3214  0.1479
35251SOL    HW112611   1.342   3.077   3.356  1.1380  0.3462  1.6014
35251SOL    HW212612   1.392   2.978   3.459  2.0570 -0.6440  0.2315
35252SOL     OW12613   7.126   8.819   3.268  0.4922  0.3141  0.1114
35252SOL    HW112614   7.207   8.871   3.264  1.5215 -1.2951 -2.0270
35252SOL    HW212615   7.116   8.797   3.361  1.8598  1.5098  0.5864
35253SOL     OW12616  11.006   6.263   4.030  0.1173 -0.4280  0.0009
35253SOL    HW112617  10.924   6.215   4.021  0.8076 -1.9084  1.1746
35253SOL    HW212618  11.016   6.276   4.125  2.5403 -2.7631  0.1908
35254SOL     OW12619   4.889   3.394   6.713 -0.2889 -0.5661 -0.0297
35254SOL    HW112620   4.982   3.383   6.695 -0.6845 -1.9152 -1.5258
35254SOL    HW212621   4.854   3.435   6.633 -0.7279  1.7076  1.2181
35255SOL     OW12622   1.005   7.737   7.503  0.3592  0.1996  0.5229
35255SOL    HW112623   0.961   7.810   7.458 -0.9721 -1.4936 -1.0964
35255SOL    HW212624   0.984   7.750   7.595 -1.2700  0.9873  0.0842
35256SOL     OW12625   4.020   6.647   6.055 -0.1317 -0.2065 -0.2805
35256SOL    HW112626   4.113   6.653   6.031 -0.6533  0.4331 -2.4080
35256SOL    HW212627   3.991   6.563   6.019 -0.3076 -0.5854  0.7182
35257SOL     OW12628   4.183  12.192   8.424  0.2990 -0.1766 -0.4585
35257SOL    HW112629   4.115  12.180   8.491 -0.4735 -0.3779 -1.2483
35257SOL    HW212630   4.148  12.260   8.366  0.8273 -0.1998 -0.8111
35258SOL     OW12631   9.082   7.023  12.170 -0.3979  0.1422 -0.0746
35258SOL    HW112632   9.019   6.992  12.236 -0.0320  2.5479  1.5590
35258SOL    HW212633   9.166   7.025  12.216  0.1618  0.5039 -1.0837
35259SOL     OW12634   4.862   3.735   5.281 -0.3098 -0.2377  0.1655
35259SOL    HW112635   4.866   3.776   5.367  0.5886  1.3646 -0.6072
35259SOL    HW212636   4.940   3.679   5.277  0.3175  0.6503 -0.0765
35260SOL     OW12637   1.337   7.240   6.829  0.1234 -0.1533  0.0411
35260SOL    HW112638   1.366   7.305   6.764 -2.4869  0.7696 -0.3203
35260SOL    HW212639   1.337   7.157   6.781 -0.3545  0.2760 -0.7291
35261SOL     OW12640   2.207   9.637   6.262 -0.3111  0.2045 -0.1899
35261SOL    HW112641   2.142   9.632   6.332 -1.5034  2.7060 -1.0058
35261SOL    HW212642   2.284   9.678   6.304  0.2919 -1.4661  0.4267
35262SOL     OW12643  11.491  10.468   9.744 -0.2897  0.7131 -0.0538
35262SOL    HW112644  11.400  10.497   9.753 -0.4897  0.3521 -0.8153
35262SOL    HW212645  11.485  10.373   9.734 -0.0454  0.8645 -2.3964
35263SOL     OW12646  11.215   1.484   3.319 -0.0461  0.1339  0.6029
35263SOL    HW112647  11.310   1.494   3.315  0.1638 -1.4448 -3.2611
35263SOL    HW212648  11.202   1.400   3.364  0.0596  1.7801  3.9701
35264SOL     OW12649   2.348   2.714   7.720  0.0134 -0.4530  0.7956
35264SOL    HW112650   2.296   2.689   7.644  0.7718 -0.4151  0.2495
35264SOL    HW212651   2.297   2.783   7.763 -0.3788 -0.4065  0.2641
35265SOL     OW12652   3.325   2.051   4.620 -0.0716 -0.5122  0.2134
35265SOL    HW112653   3.310   1.982   4.555  1.4027 -0.6702  0.0040
35265SOL    HW212654   3.307   2.132   4.572 -2.3296 -0.7199  0.6083
35266SOL     OW12655   5.338   7.673   5.736 -0.7458 -0.3902  0.1515
35266SOL    HW112656   5.403   7.680   5.807 -1.2873  2.4764  0.5058
35266SOL    HW212657   5.309   7.582   5.739 -0.6837 -0.4544  3.6253
35267SOL     OW12658   0.106   6.854   1.015 -0.1741 -0.1352 -0.1410
35267SOL    HW112659   0.059   6.846   1.098  0.1746  0.8460  0.1590
35267SOL    HW212660   0.037   6.875   0.951 -0.1222  1.6453  0.3587
35268SOL     OW12661   3.805   3.499   6.082  0.2619  0.3114  0.2266
35268SOL    HW112662   3.720   3.527   6.047 -1.3078  1.2579  4.1949
35268SOL    HW212663   3.797   3.404   6.090 -0.1259  0.3133 -0.0853
35269SOL     OW12664   6.401   1.693   8.015  0.0062 -0.4495  0.1369
35269SOL    HW112665   6.306   1.686   8.021 -0.2860  2.4281  0.2158
35269SOL    HW212666   6.432   1.680   8.105 -0.6929  2.0705  0.8166
35270SOL     OW12667   1.272   4.742  11.472 -0.3756  0.2563 -0.0053
35270SOL    HW112668   1.244   4.732  11.563  0.1918 -0.0793  0.1369
35270SOL    HW212669   1.361   4.706  11.470 -1.7261 -3.6118 -1.4953
35271SOL     OW12670  10.362   6.411   0.167 -0.2204 -0.0399  0.5453
35271SOL    HW112671  10.358   6.315   0.171  0.4260 -0.1351 -0.5988
35271SOL    HW212672  10.454   6.431   0.183  0.2632  0.1695 -2.0645
35272SOL     OW12673  11.204   3.678   7.230  0.2445 -0.1754 -0.2515
35272SOL    HW112674  11.264   3.707   7.299 -1.8659  0.0914  1.5930
35272SOL    HW212675  11.204   3.582   7.237 -0.4406 -0.1303  0.6252
35273SOL     OW12676   2.007   7.386  10.616 -0.1775 -0.0508  0.1367
35273SOL    HW112677   2.003   7.468  10.665  1.4014 -0.0365  0.2802
35273SOL    HW212678   1.965   7.406  10.532  0.1733  0.8904  0.1749
35274SOL     OW12679   4.993  11.371   3.889  0.1805  0.6568  0.3999
35274SOL    HW112680   4.930  11.299   3.890 -0.3281  1.0761  1.8585
35274SOL    HW212681   4.943  11.447   3.918  0.7285  1.5959 -1.0344
35275SOL     OW12682   6.417   1.090   5.861 -0.4029 -0.0271 -0.0282
35275SOL    HW112683   6.427   1.145   5.784 -2.0410 -0.8353 -0.8605
35275SOL    HW212684   6.495   1.108   5.914  0.1174  1.4933 -1.2518
35276SOL     OW12685   5.937  10.631   6.072  0.3690  0.6964 -0.0474
35276SOL    HW112686   5.964  10.560   6.014 -1.7976 -0.5930  0.4040
35276SOL    HW212687   5.914  10.703   6.014 -1.5023 -0.4785 -0.8670
35277SOL     OW12688  12.068   9.602   4.680 -0.4377  0.7051  0.1936
35277SOL    HW112689  12.156   9.640   4.690 -0.2411  0.2995  0.0425
35277SOL    HW212690  12.048   9.564   4.766 -0.4177  0.7018  0.1969
35278SOL     OW12691   0.552   1.478   6.208  0.4187  0.1657  0.1292
35278SOL    HW112692   0.645   1.456   6.217  0.6136  0.5853 -0.7223
35278SOL    HW212693   0.510   1.437   6.283  1.0456 -1.4449 -0.3439
35279SOL     OW12694  12.038   5.328  11.843  0.4070 -0.2614  0.6403
35279SOL    HW112695  12.011   5.398  11.784 -1.1719 -0.5912  0.9172
35279SOL    HW212696  12.031   5.248  11.791 -0.1028 -0.4539  0.9930
35280SOL     OW12697   7.048   9.727   8.873 -0.1504  0.1278  0.3253
35280SOL    HW112698   7.089   9.758   8.954 -1.0677  0.3234  0.7239
35280SOL    HW212699   6.989   9.657   8.901 -0.4558  0.1823 -0.1740
35281SOL     OW12700   7.049   5.289   7.047  0.2828 -0.0102  0.0566
35281SOL    HW112701   7.136   5.283   7.006 -0.6942  0.8685 -2.3428
35281SOL    HW212702   7.010   5.203   7.034  0.0179  0.2334 -0.8340
35282SOL     OW12703   9.233  11.721   2.369 -0.1523 -0.1936  0.1851
35282SOL    HW112704   9.209  11.813   2.375  2.0086  0.3579  2.8118
35282SOL    HW212705   9.322  11.722   2.334 -0.3647 -1.3639 -0.4449
35283SOL     OW12706   9.308   0.004   9.321  0.5843 -0.5598  0.0188
35283SOL    HW112707   9.302   0.016   9.416 -0.4286  3.4199 -0.3762
35283SOL    HW212708   9.239  -0.058   9.300 -0.8775  0.4278  1.6696
35284SOL     OW12709   4.942  12.066  11.656 -0.5179 -0.7382 -0.6962
35284SOL    HW112710   4.995  12.136  11.620  1.7355 -1.9803  0.0365
35284SOL    HW212711   4.980  11.986  11.621 -0.0692 -1.8423  2.0446
35285SOL     OW12712   3.636   3.593   1.126 -0.2169  0.4360  0.6932
35285SOL    HW112713   3.660   3.539   1.201  1.1284  0.7643  0.5239
35285SOL    HW212714   3.711   3.587   1.067 -1.0115  0.6577 -0.3618
35286SOL     OW12715   5.500   6.598   0.595 -0.0530 -0.3061 -0.1052
35286SOL    HW112716   5.442   6.600   0.519 -1.0294  2.2697  0.6301
35286SOL    HW212717   5.444   6.619   0.669  1.6500  1.6834  0.7276
35287SOL     OW12718   2.148   9.320   7.849 -0.0383 -0.4298  0.8685
35287SOL    HW112719   2.177   9.402   7.810  0.1062 -0.9301 -0.1146
35287SOL    HW212720   2.148   9.257   7.777 -1.4695 -0.9794  1.2898
35288SOL     OW12721   7.484   5.375   3.502  0.1906 -0.1559  0.0249
35288SOL    HW112722   7.501   5.343   3.414  0.7962 -0.7779  0.3556
35288SOL    HW212723   7.438   5.457   3.490 -1.7212 -1.2883 -0.8848
35289SOL     OW12724   1.701   5.000  10.058 -0.2864  0.6956  0.3226
35289SOL    HW112725   1.634   4.940  10.090  0.1866 -0.5224 -0.8759
35289SOL    HW212726   1.662   5.042   9.981  0.2723  0.0145 -0.3538
35290SOL     OW12727   3.291   0.403   7.704  0.1257  0.2675 -0.3770
35290SOL    HW112728   3.323   0.492   7.690 -0.3917  0.5887  0.3725
35290SOL    HW212729   3.248   0.380   7.622 -0.0906  0.8652 -0.4407
35291SOL     OW12730   2.473   6.912  12.430  0.0560  0.2490 -0.0968
35291SOL    HW112731   2.437   7.000  12.420  0.4495  0.4192 -0.0459
35291SOL    HW212732   2.566   6.926  12.446  0.1762 -0.1903 -0.3884
35292SOL     OW12733  10.795  11.396   2.995 -0.1114  0.1730 -0.2577
35292SOL    HW112734  10.763  11.312   3.027 -0.4746  0.7163  0.8417
35292SOL    HW212735  10.867  11.373   2.936 -0.5888 -0.9288 -0.4360
35293SOL     OW12736   1.224   3.885   8.684 -0.7199 -0.1197  0.1994
35293SOL    HW112737   1.215   3.810   8.625  0.5046 -0.2073  0.0839
35293SOL    HW212738   1.136   3.920   8.692 -1.2649 -1.3849  0.0092
35294SOL     OW12739  10.894   4.494  12.162  0.2487 -0.2293  0.2897
35294SOL    HW112740  10.809   4.534  12.144 -0.4192 -1.4761  0.5452
35294SOL    HW212741  10.915   4.446  12.082  1.3677  1.1318 -0.2721
35295SOL     OW12742   9.602   7.413  10.844  0.2109  0.3314 -0.4693
35295SOL    HW112743   9.520   7.461  10.850  0.9609  1.5628  0.4613
35295SOL    HW212744   9.609   7.366  10.927  1.1034  1.3803  0.0767
35296SOL     OW12745   9.552   9.939   6.273  0.1143 -0.5962 -0.3048
35296SOL    HW112746   9.591   9.867   6.224  0.5132 -0.1201 -0.7004
35296SOL    HW212747   9.471   9.959   6.227  0.2022 -0.5261 -0.4275
35297SOL     OW12748   5.308   3.234   6.037  0.1169 -0.3176  0.1392
35297SOL    HW112749   5.269   3.302   6.092  0.2549  0.5323 -0.7766
35297SOL    HW212750   5.401   3.234   6.060 -0.0044 -0.6851  0.6339
35298SOL     OW12751   6.388   8.417   1.115 -0.2355  0.2863 -0.1730
35298SOL    HW112752   6.327   8.488   1.097  0.3663  1.2842  1.4785
35298SOL    HW212753   6.470   8.444   1.074  0.0530  0.6817  0.6363
35299SOL     OW12754   8.939  12.499   7.385  0.7042  0.2054  0.3567
35299SOL    HW112755   8.854  12.498   7.429  0.9242 -0.8847  0.7809
35299SOL    HW212756   8.918  12.523   7.294 -0.4528 -2.7913 -0.2688
35300SOL     OW12757   2.678   2.664   3.262 -0.0750  0.6093  0.0774
35300SOL    HW112758   2.632   2.684   3.181  0.6343  1.7733 -0.0592
35300SOL    HW212759   2.609   2.651   3.327 -0.8032 -2.6955 -1.1270
35301SOL     OW12760   1.992   0.716   3.452  0.0810 -0.0869  0.0218
35301SOL    HW112761   2.042   0.734   3.372  1.4664 -2.4112  0.2555
35301SOL    HW212762   1.903   0.743   3.431  0.6312  0.4131 -1.8944
35302SOL     OW12763  11.227   8.878   5.081  0.5832  0.0886  0.2135
35302SOL    HW112764  11.245   8.834   5.165 -1.3558 -2.2065 -0.4514
35302SOL    HW212765  11.155   8.828   5.043  2.4610 -0.0840 -3.6386
35303SOL     OW12766  11.350   7.933  12.046  0.9416  0.2494 -0.1053
35303SOL    HW112767  11.381   8.020  12.074  2.1346 -0.2221  0.0942
35303SOL    HW212768  11.381   7.874  12.114 -0.5803 -0.2524  0.1892
35304SOL     OW12769   3.337  11.488   3.369 -0.4283 -0.2881  0.5686
35304SOL    HW112770   3.246  11.520   3.366 -0.6447 -0.7112  1.8558
35304SOL    HW212771   3.332  11.407   3.420  0.4726 -1.1140 -0.6200
35305SOL     OW12772  10.573   5.194   7.337 -0.0526  0.0886  0.9280
35305SOL    HW112773  10.605   5.273   7.293  1.6023 -0.9389  0.2035
35305SOL    HW212774  10.585   5.124   7.272  1.3141 -1.2537  2.5394
35306SOL     OW12775   2.521   3.120   6.014 -0.0314 -0.2452  0.0444
35306SOL    HW112776   2.508   3.123   5.920 -0.5073  0.5020  0.1324
35306SOL    HW212777   2.568   3.037   6.029 -0.2894 -0.5474 -0.7960
35307SOL     OW12778   7.535  11.472  11.802  0.0203 -0.5180 -0.3454
35307SOL    HW112779   7.470  11.537  11.827  1.1446  0.3760  0.3752
35307SOL    HW212780   7.488  11.389  11.803 -1.1846  0.1447 -0.2153
35308SOL     OW12781   2.186   3.816   1.701  0.0049 -0.0639  0.6984
35308SOL    HW112782   2.095   3.845   1.695  0.0527 -0.1353 -1.0530
35308SOL    HW212783   2.236   3.897   1.709 -0.1196  0.0828  0.0274
35309SOL     OW12784   0.503   6.242   9.022  0.1964 -0.0236  0.5337
35309SOL    HW112785   0.414   6.273   9.037  0.7018  1.7036  0.1442
35309SOL    HW212786   0.556   6.289   9.087  1.0370  0.1813 -0.2779
35310SOL     OW12787   7.778   1.999   5.967  0.2793 -0.1437 -0.1365
35310SOL    HW112788   7.689   1.987   5.999  1.3700 -1.8376  2.5461
35310SOL    HW212789   7.822   1.917   5.986  2.8054  1.1287 -0.0921
35311SOL     OW12790   8.825   2.923  12.395 -0.0138 -0.3942 -0.2320
35311SOL    HW112791   8.813   3.017  12.383  0.5240 -0.3378 -0.3606
35311SOL    HW212792   8.784   2.884  12.318  1.7914 -0.1275 -1.3909
35312SOL     OW12793   9.963   0.948   0.817  0.2436  0.0850 -0.1142
35312SOL    HW112794  10.016   0.888   0.870 -2.0535 -1.9660  0.0158
35312SOL    HW212795   9.996   0.936   0.728  0.5351 -0.6017  0.0752
35313SOL     OW12796   4.262   2.310   8.373  0.0025  0.3931  0.0605
35313SOL    HW112797   4.230   2.225   8.404  0.5668 -0.3886 -1.3638
35313SOL    HW212798   4.192   2.343   8.316  0.0642  0.5508  0.0760
35314SOL     OW12799   3.335   1.133   6.565  0.5383 -0.0919  0.2995
35314SOL    HW112800   3.249   1.172   6.547  0.6382  0.5078  1.0939
35314SOL    HW212801   3.337   1.120   6.659  1.4195  0.1360  0.3232
35315SOL     OW12802   7.214   3.236  11.295  0.3988 -0.1178 -0.2169
35315SOL    HW112803   7.302   3.270  11.308  0.1628  0.6425 -0.5585
35315SOL    HW212804   7.156   3.310  11.313 -0.1834 -0.6425  0.1294
35316SOL     OW12805   4.386   0.248   8.040  0.1055 -0.3587  0.8200
35316SOL    HW112806   4.417   0.200   8.117  2.6532 -2.4215 -1.2922
35316SOL    HW212807   4.460   0.303   8.014 -0.7328  0.3842 -0.0850
35317SOL     OW12808   4.909   7.033   1.771 -0.7629 -0.2190  0.1683
35317SOL    HW112809   4.902   7.048   1.677 -0.1532 -0.0773  0.1387
35317SOL    HW212810   4.885   6.941   1.782 -0.8140 -0.2429 -0.1291
35318SOL     OW12811   1.922   1.358   4.325 -0.9803 -0.1239  0.3138
35318SOL    HW112812   1.879   1.277   4.299  0.7989 -0.9004 -0.4348
35318SOL    HW212813   1.985   1.375   4.255 -1.7370  2.2922  0.1339
35319SOL     OW12814  12.078   9.829  11.432  0.4497  0.2772 -0.5417
35319SOL    HW112815  12.135   9.775  11.486 -0.5885  0.8436  1.1947
35319SOL    HW212816  12.136   9.897  11.397  0.8025  1.2463  1.7343
35320SOL     OW12817   1.233  11.738   0.230 -0.1163 -0.5584  0.1611
35320SOL    HW112818   1.155  11.689   0.205 -1.4976  1.1626  0.8943
35320SOL    HW212819   1.252  11.794   0.155  0.4097 -0.9437 -0.0009
35321SOL     OW12820   1.303   1.937   1.172  0.2698 -0.7864  0.3268
35321SOL    HW112821   1.364   2.001   1.134  0.9915 -2.2308 -1.0727
35321SOL    HW212822   1.234   1.929   1.107  0.3038 -1.5779  0.3778
35322SOL     OW12823   6.289   4.431   4.552  0.2408  0.0621  0.3293
35322SOL    HW112824   6.196   4.414   4.567  0.4843 -0.9524  0.7445
35322SOL    HW212825   6.293   4.466   4.463 -0.3373 -1.6777 -0.4204
35323SOL     OW12826   9.359   5.950   2.379 -0.4457  0.7995 -0.2604
35323SOL    HW112827   9.360   5.940   2.284  0.5668 -0.3101 -0.1492
35323SOL    HW212828   9.301   5.881   2.410 -0.1732  0.6691 -0.0319
35324SOL     OW12829   8.932   4.385   1.863 -0.0341  1.0167 -0.6212
35324SOL    HW112830   8.996   4.319   1.836  0.3636  1.7720 -1.5682
35324SOL    HW212831   8.886   4.409   1.783 -0.4832  1.5667 -0.2060
35325SOL     OW12832  10.031   4.323   8.832 -0.2751 -0.2778 -0.0259
35325SOL    HW112833  10.120   4.315   8.798 -0.9517 -0.4304 -1.8939
35325SOL    HW212834   9.977   4.275   8.769 -2.1049  2.6480 -0.9003
35326SOL     OW12835   7.927   0.442   4.783 -0.1619  0.0520 -0.1084
35326SOL    HW112836   7.989   0.510   4.756 -0.5001 -0.1011 -1.3615
35326SOL    HW212837   7.842   0.476   4.756 -0.9182  1.0297  3.0899
35327SOL     OW12838   3.415   9.778   4.494 -0.2756  0.2700  0.1694
35327SOL    HW112839   3.389   9.870   4.502 -0.4147  0.2042  0.4718
35327SOL    HW212840   3.339   9.735   4.456  0.5121  0.6522 -1.9613
35328SOL     OW12841  12.363   3.153   0.855 -0.2259  0.7665  0.0539
35328SOL    HW112842  12.414   3.230   0.877 -0.8525  0.2069  4.3360
35328SOL    HW212843  12.272   3.179   0.872 -0.3530 -1.0961  2.9330
35329SOL     OW12844  12.454   1.347   3.967  0.0026  0.0949 -0.5535
35329SOL    HW112845  12.439   1.315   4.056 -0.3765 -0.6790 -0.8816
35329SOL    HW212846  12.454   1.267   3.913 -1.3624  0.6771 -1.4618
35330SOL     OW12847   5.987   9.756   6.407 -0.1799 -0.7976 -0.7133
35330SOL    HW112848   6.045   9.751   6.483  1.5267 -1.1297 -1.9658
35330SOL    HW212849   5.994   9.670   6.366 -1.8877 -0.9739 -0.7233
35331SOL     OW12850   3.875   4.955   2.484 -0.4279  0.4069 -0.1874
35331SOL    HW112851   3.899   5.047   2.498 -0.7274  0.5767 -0.7800
35331SOL    HW212852   3.779   4.953   2.491 -0.3015 -0.3591  2.7213
35332SOL     OW12853   7.497  11.841  12.008  0.9265 -0.5143  0.5788
35332SOL    HW112854   7.556  11.786  12.058 -0.4854 -1.5218  1.1906
35332SOL    HW212855   7.494  11.924  12.056  0.7404 -0.9497  1.3160
35333SOL     OW12856   7.139   1.059   7.898 -0.2352  0.4689  0.0260
35333SOL    HW112857   7.125   1.118   7.824 -0.5934  0.0068 -0.2821
35333SOL    HW212858   7.111   1.110   7.974  0.6370  1.1352 -0.0853
35334SOL     OW12859   2.288   7.359   8.339  0.0024 -0.5776  0.0196
35334SOL    HW112860   2.380   7.383   8.333 -0.1123 -0.2686 -0.6353
35334SOL    HW212861   2.288   7.268   8.371  0.4989 -0.3151  0.7808
35335SOL     OW12862   6.016   2.485   6.073  0.2479 -0.6083 -0.3481
35335SOL    HW112863   6.103   2.468   6.109  0.6930  0.2006 -1.0162
35335SOL    HW212864   5.963   2.510   6.149  1.5556  2.6216 -0.3311
35336SOL     OW12865   5.451   9.279   1.807  0.1232  0.2075  0.0088
35336SOL    HW112866   5.470   9.372   1.818  3.4190 -0.1473 -1.5622
35336SOL    HW212867   5.491   9.237   1.883  1.5703 -0.1391 -0.9029
35337SOL     OW12868   4.953   0.572   4.389  0.8086 -0.4441 -0.0738
35337SOL    HW112869   5.022   0.610   4.334 -0.7191 -0.0306 -1.7781
35337SOL    HW212870   4.954   0.479   4.367 -2.3011  0.1836 -3.9473
35338SOL     OW12871   3.047  12.301   8.385 -0.0195 -0.0042 -0.2734
35338SOL    HW112872   3.084  12.311   8.472  2.0345  1.2977 -1.2326
35338SOL    HW212873   3.122  12.285   8.328 -1.0912  1.0765 -2.0913
35339SOL     OW12874   1.763   8.755   9.022  0.0502  0.2652 -0.7371
35339SOL    HW112875   1.683   8.800   8.994 -1.2748 -2.4723 -1.7674
35339SOL    HW212876   1.790   8.705   8.945  0.9731 -1.2590  0.5176
35340SOL     OW12877   1.304   4.284  10.614 -0.0126 -1.2221  0.3178
35340SOL    HW112878   1.229   4.275  10.673 -0.5410 -1.0831 -0.3240
35340SOL    HW212879   1.363   4.343  10.661  0.2363 -2.2502  1.3474
35341SOL     OW12880   5.852   2.324   2.732  0.3971 -0.5605  0.4123
35341SOL    HW112881   5.765   2.320   2.694 -0.3350 -0.4139  1.9818
35341SOL    HW212882   5.848   2.397   2.795  1.6193 -0.5976  0.5630
35342SOL     OW12883   3.472   2.235  10.000  0.0090 -0.3965 -0.1212
35342SOL    HW112884   3.392   2.287  10.006 -0.3019 -1.0800  2.6130
35342SOL    HW212885   3.443   2.145   9.986  0.3634 -0.5068 -0.1762
35343SOL     OW12886   1.160   8.435   1.350 -0.2513  0.1238  0.3138
35343SOL    HW112887   1.196   8.379   1.280 -1.1424  2.3191 -2.0390
35343SOL    HW212888   1.209   8.517   1.342 -2.0089  1.2470  0.6957
35344SOL     OW12889   5.663   2.585   7.872  0.2832 -0.5089  0.1622
35344SOL    HW112890   5.722   2.658   7.854 -0.9737  0.7653  0.9421
35344SOL    HW212891   5.720   2.508   7.875  1.8776  0.6365  0.7393
35345SOL     OW12892   9.683   2.335   3.504  0.0806  0.0082  0.3964
35345SOL    HW112893   9.729   2.252   3.489  0.4534  0.1197  0.9014
35345SOL    HW212894   9.698   2.354   3.596 -1.0522  0.0078  0.6022
35346SOL     OW12895   6.458   1.954   6.755 -0.2255  0.1191  0.2172
35346SOL    HW112896   6.457   1.879   6.695 -2.1302  1.4557 -1.5720
35346SOL    HW212897   6.538   2.001   6.733 -0.5527  0.2188 -0.8212
35347SOL     OW12898  10.514   2.475   0.942  0.3246 -0.2121  0.0106
35347SOL    HW112899  10.575   2.496   0.872  0.1584  0.2886  0.0138
35347SOL    HW212900  10.429   2.507   0.912  0.1130 -0.6533  0.1269
35348SOL     OW12901   6.420   5.863  11.348 -1.3401  0.5218  0.0063
35348SOL    HW112902   6.465   5.798  11.402 -2.1957  1.2451  1.6506
35348SOL    HW212903   6.377   5.811  11.280 -0.2177 -0.4175 -0.0192
35349SOL     OW12904   7.486   3.405  10.440 -0.0869 -0.4200  1.0114
35349SOL    HW112905   7.404   3.439  10.404 -0.1666  0.2253  1.7714
35349SOL    HW212906   7.552   3.470  10.415  0.3863 -1.3974 -0.4007
35350SOL     OW12907   2.982   1.301   8.481 -0.0342  0.1577 -0.1129
35350SOL    HW112908   3.051   1.260   8.430 -0.9113 -3.5783  1.4061
35350SOL    HW212909   3.024   1.324   8.564 -0.2520 -0.6433  0.2214
35351SOL     OW12910   3.434   4.091   7.279 -0.4137  0.0027  0.0384
35351SOL    HW112911   3.355   4.116   7.328  0.1751 -0.7803  1.4352
35351SOL    HW212912   3.417   4.002   7.251  0.4733 -0.6747  1.5151
35352SOL     OW12913  10.043   4.874  12.189 -0.1173  0.2449  0.4611
35352SOL    HW112914  10.051   4.854  12.096  3.9258 -1.9151  1.0437
35352SOL    HW212915   9.964   4.927  12.196  1.3620  3.8692 -4.6980
35353SOL     OW12916   3.257   6.973   8.789 -0.7429 -0.2859 -0.2731
35353SOL    HW112917   3.296   6.927   8.864  1.2833  0.4914 -0.7863
35353SOL    HW212918   3.218   7.052   8.827 -1.1763 -0.6941  0.1520
35354SOL     OW12919   3.372   9.612   3.971 -0.2626  0.0006 -0.4030
35354SOL    HW112920   3.286   9.645   3.996  1.1631  2.8767  1.2621
35354SOL    HW212921   3.433   9.682   3.996  2.5924 -1.9144 -1.4308
35355SOL     OW12922  11.880  12.276  11.325  0.1831 -0.2664 -0.1648
35355SOL    HW112923  11.905  12.194  11.367 -2.2800  0.2173  2.5579
35355SOL    HW212924  11.942  12.341  11.358 -0.6700 -0.2238  1.4186
35356SOL     OW12925  12.108   7.373  10.004  0.2696 -0.0135  0.2250
35356SOL    HW112926  12.157   7.310   9.951 -0.9850 -0.9341  0.1073
35356SOL    HW212927  12.066   7.430   9.940  0.9676  0.6230  0.3197
35357SOL     OW12928   4.860   9.218   5.820  0.0852 -0.1142  0.1737
35357SOL    HW112929   4.823   9.305   5.807 -0.4113 -0.3795 -0.2293
35357SOL    HW212930   4.955   9.232   5.822 -0.0287  0.5757  1.2603
35358SOL     OW12931   4.804   7.844   3.271  0.3829  0.0358  0.4154
35358SOL    HW112932   4.803   7.937   3.249 -1.2654  0.4380  1.9457
35358SOL    HW212933   4.739   7.805   3.212  1.3131 -0.2194 -0.4537
35359SOL     OW12934   2.094  11.064   6.988  0.5140 -0.1303 -0.1698
35359SOL    HW112935   2.182  11.041   6.959  1.2777 -2.3422  3.2962
35359SOL    HW212936   2.042  10.986   6.971 -0.5835  0.8057 -1.2610
35360SOL     OW12937   3.826   7.417   0.953 -0.3328 -0.3056 -0.2048
35360SOL    HW112938   3.790   7.462   0.877 -0.4450 -0.9217 -0.5222
35360SOL    HW212939   3.912   7.458   0.967 -0.6286  0.3117 -0.2076
35361SOL     OW12940   1.261   4.879   8.778 -0.0695  0.0907 -0.9110
35361SOL    HW112941   1.177   4.861   8.735 -0.2099  1.2104 -1.1250
35361SOL    HW212942   1.245   4.958   8.830  1.5154  1.9139 -3.0180
35362SOL     OW12943   0.733   2.862   9.497  0.2197 -0.0576  0.2427
35362SOL    HW112944   0.740   2.766   9.494 -3.1204 -0.4219 -1.9988
35362SOL    HW212945   0.735   2.888   9.405 -1.4714  1.6806  0.6277
35363SOL     OW12946   8.299   8.718   2.401  0.0647 -0.3352 -0.1119
35363SOL    HW112947   8.216   8.701   2.359  0.1488 -1.8953  0.3108
35363SOL    HW212948   8.363   8.716   2.330 -0.2338  0.8669 -0.4363
35364SOL     OW12949  10.892   2.239   4.822 -0.0494 -0.2832 -0.0872
35364SOL    HW112950  10.818   2.191   4.859  0.5164 -0.9380  0.2269
35364SOL    HW212951  10.853   2.301   4.761 -0.9340  0.1022  0.8397
35365SOL     OW12952   4.595   5.163   4.600 -0.2052 -0.0072 -0.8089
35365SOL    HW112953   4.675   5.169   4.549 -0.1244 -0.7446 -0.7765
35365SOL    HW212954   4.561   5.075   4.583 -0.6329  0.0421 -0.2708
35366SOL     OW12955   5.953   4.536   6.197 -0.0778  0.3471 -0.0643
35366SOL    HW112956   5.939   4.450   6.159  0.0689  1.1859 -2.1336
35366SOL    HW212957   5.912   4.597   6.135 -0.6714  1.7560  1.6160
35367SOL     OW12958   4.839  10.435   9.847 -0.3728  0.0318  0.9470
35367SOL    HW112959   4.846  10.395   9.933 -0.0014 -0.9499  0.4753
35367SOL    HW212960   4.820  10.362   9.788  0.1449  0.5697  0.0857
35368SOL     OW12961   2.854   4.101   5.077 -0.0638 -0.0638 -0.2529
35368SOL    HW112962   2.896   4.068   4.998  1.6144  1.9055 -0.2640
35368SOL    HW212963   2.807   4.026   5.112  0.0355 -1.2689 -2.5256
35369SOL     OW12964   3.175  10.108   4.436  0.0889 -0.6970  0.4241
35369SOL    HW112965   3.265  10.116   4.407 -0.2048 -1.1017 -0.6513
35369SOL    HW212966   3.166  10.171   4.507  0.6384  0.8629 -0.8502
35370SOL     OW12967   5.505   8.406   2.775  0.8212  0.3200  0.6193
35370SOL    HW112968   5.530   8.478   2.719  2.0754  1.1190  2.1170
35370SOL    HW212969   5.583   8.350   2.779 -0.0908 -1.1268 -0.4423
35371SOL     OW12970   8.926   0.561   8.081  0.0236 -0.5143 -0.0364
35371SOL    HW112971   8.879   0.627   8.029 -0.9467 -1.1502  0.0075
35371SOL    HW212972   8.914   0.589   8.171 -0.3850 -0.7363 -0.0177
35372SOL     OW12973  12.292   1.683  12.075 -0.2398  0.0931  0.7292
35372SOL    HW112974  12.214   1.718  12.033 -0.0876  0.1924  0.5291
35372SOL    HW212975  12.332   1.626  12.009 -0.2311 -0.0855  0.8874
35373SOL     OW12976  12.496   0.965  12.005  0.5233 -0.4534 -0.1463
35373SOL    HW112977  12.464   0.895  12.061  0.9705 -0.3972  0.1863
35373SOL    HW212978  12.519   1.036  12.065  0.0898 -0.0251 -0.4780
35374SOL     OW12979  12.287   7.862  12.156 -0.3770  0.1659  0.1265
35374SOL    HW112980  12.239   7.781  12.139  0.7915 -0.8198  1.2698
35374SOL    HW212981  12.378   7.835  12.164  0.2950  1.8492 -1.0511
35375SOL     OW12982  11.169   9.840   2.127  0.0130  0.2409 -0.5068
35375SOL    HW112983  11.239   9.867   2.186  1.6337  0.9071 -2.6032
35375SOL    HW212984  11.168   9.744   2.133 -1.5043  0.3259  2.2860
35376SOL     OW12985   6.978   9.174  11.810 -0.5197  0.3490 -0.5064
35376SOL    HW112986   7.037   9.246  11.831  1.4739 -1.0620 -0.9962
35376SOL    HW212987   6.926   9.163  11.889  0.6208  0.9422  0.3694
35377SOL     OW12988  12.565   9.059   7.366  0.7322 -0.5442 -0.3525
35377SOL    HW112989  12.660   9.062   7.354  0.7005  0.1909 -0.4979
35377SOL    HW212990  12.548   9.120   7.438  0.2181  0.7055 -1.4802
35378SOL     OW12991   9.971   8.912  10.212 -0.2109 -0.2583  0.6337
35378SOL    HW112992   9.973   8.865  10.129  0.0163  1.3307 -0.3013
35378SOL    HW212993  10.062   8.929  10.233 -0.3175  1.1301  0.1110
35379SOL     OW12994   4.881   6.100   3.343 -0.2532 -0.0454  0.3474
35379SOL    HW112995   4.882   6.111   3.438  0.0935  0.0754  0.3306
35379SOL    HW212996   4.961   6.142   3.313 -0.8707  0.8463 -0.0969
35380SOL     OW12997   4.424   7.550   0.469 -0.4092 -0.1926  0.0774
35380SOL    HW112998   4.376   7.630   0.449 -0.1361  0.5245  2.0900
35380SOL    HW212999   4.505   7.580   0.511  0.4770 -1.4863 -0.6271
35381SOL     OW13000  12.172   6.754   2.770  0.1960 -0.2488 -0.3649
35381SOL    HW113001  12.154   6.757   2.864 -0.8125 -0.4986 -0.5386
35381SOL    HW213002  12.167   6.661   2.748  1.5949 -0.3218 -0.4623
35382SOL     OW13003   2.035  10.662   8.417 -0.1980 -0.2775  0.0615
35382SOL    HW113004   2.032  10.756   8.436 -1.0526 -0.3679  0.4440
35382SOL    HW213005   1.989  10.622   8.491  0.4653 -1.0288  0.0807
35383SOL     OW13006   1.094   0.652   4.986  0.1930 -0.2265 -0.0228
35383SOL    HW113007   1.021   0.620   4.933  1.0686 -2.6239  0.1300
35383SOL    HW213008   1.101   0.745   4.963 -3.8697  0.5489  1.1644
35384SOL     OW13009  10.217   2.569   0.907 -0.4939 -0.1856 -0.3576
35384SOL    HW113010  10.158   2.519   0.964 -1.4849  1.0201 -0.2772
35384SOL    HW213011  10.216   2.657   0.943  2.8009 -0.4538  0.7399
35385SOL     OW13012   9.526   2.344  11.958  0.9723 -0.3098  0.7285
35385SOL    HW113013   9.611   2.386  11.945  0.5964  0.5272  0.9136
35385SOL    HW213014   9.543   2.251  11.944  1.4926  0.0462 -1.3391
35386SOL     OW13015   8.820  12.097   6.236  0.3789 -0.1972  0.2975
35386SOL    HW113016   8.726  12.112   6.229  0.1380 -1.2529  1.0057
35386SOL    HW213017   8.855  12.118   6.149 -0.6944 -1.0318 -0.3603
35387SOL     OW13018  10.809   7.471  11.220 -0.0483  0.4382  0.6151
35387SOL    HW113019  10.726   7.520  11.223  0.1644  1.1396 -2.0000
35387SOL    HW213020  10.876   7.535  11.244 -0.1553  0.0918  1.9084
35388SOL     OW13021   0.127   2.969   3.533 -0.0177  0.3894  0.0390
35388SOL    HW113022   0.152   2.905   3.600 -0.0144  0.1611 -0.1791
35388SOL    HW213023   0.047   3.010   3.567  1.1060  1.7753  1.1823
35389SOL     OW13024  12.256  11.873   3.908 -1.0258 -0.1695  0.5564
35389SOL    HW113025  12.199  11.797   3.922  0.2690 -1.4268 -0.6529
35389SOL    HW213026  12.295  11.858   3.822  0.9299  0.7608  1.2251
35390SOL     OW13027   7.764   1.610  10.348 -0.1186 -0.1428 -0.3346
35390SOL    HW113028   7.822   1.601  10.423 -0.3424 -0.0378 -0.1484
35390SOL    HW213029   7.822   1.629  10.274  0.1023 -0.2658 -0.1920
35391SOL     OW13030   2.028   7.982   6.051 -0.2736  0.0826 -0.0737
35391SOL    HW113031   2.089   8.011   5.982 -0.6965 -2.1607 -1.4932
35391SOL    HW213032   2.085   7.956   6.123  0.4759 -1.1654 -1.0621
35392SOL     OW13033  12.565   6.023   8.263 -0.7924  0.4615 -0.6085
35392SOL    HW113034  12.507   6.052   8.334 -1.2760  1.7445 -1.4887
35392SOL    HW213035  12.514   6.038   8.183 -0.0385 -0.4033 -1.2645
35393SOL     OW13036  11.977  11.815  11.646  0.3330 -0.3914 -0.6130
35393SOL    HW113037  12.005  11.813  11.737 -0.1613  1.2236 -0.3793
35393SOL    HW213038  11.980  11.724  11.617 -1.7647 -1.3057  1.6998
35394SOL     OW13039   3.527   3.239   0.748 -0.3823  0.1817 -0.9300
35394SOL    HW113040   3.551   3.187   0.671  0.7691  0.3103 -0.6842
35394SOL    HW213041   3.605   3.291   0.766 -0.7404  0.3620  0.1527
35395SOL     OW13042  10.742   4.855   1.303  0.1338  0.2767 -0.5170
35395SOL    HW113043  10.734   4.942   1.342  0.8359  0.1649 -0.1067
35395SOL    HW213044  10.729   4.870   1.209 -2.5277  0.4141 -0.2101
35396SOL     OW13045   1.603   6.851   8.720 -1.0144  0.0972 -0.3706
35396SOL    HW113046   1.586   6.919   8.655  0.7836  2.2789  1.2806
35396SOL    HW213047   1.516   6.817   8.742 -1.7759  0.3110 -2.7743
35397SOL     OW13048  10.179   1.110   4.445 -0.2113 -0.2791  0.0166
35397SOL    HW113049  10.138   1.024   4.459 -0.1556  0.1029  3.3320
35397SOL    HW213050  10.106   1.171   4.436 -0.4381 -0.0532  2.6983
35398SOL     OW13051   0.352   5.767   6.215 -0.2864  0.2223  0.0743
35398SOL    HW113052   0.409   5.789   6.142 -3.2364 -0.1841 -2.5427
35398SOL    HW213053   0.402   5.704   6.267  2.2731  1.2452 -0.9615
35399SOL     OW13054   4.936   4.489   5.629 -0.4677  0.2395  1.2996
35399SOL    HW113055   5.030   4.477   5.639 -0.1070  0.8618 -0.8553
35399SOL    HW213056   4.909   4.425   5.564 -1.2015  1.1573  0.6574
35400SOL     OW13057  10.245   4.867   7.331  0.3990 -0.0842  0.4683
35400SOL    HW113058  10.218   4.794   7.273  0.5076  1.8222 -2.1804
35400SOL    HW213059  10.167   4.884   7.385 -1.3235  0.6579 -2.0435
35401SOL     OW13060   5.182   9.004   5.055  0.3510  0.4604 -0.2603
35401SOL    HW113061   5.239   8.942   5.011 -1.1685 -1.1268 -0.0917
35401SOL    HW213062   5.230   9.030   5.134  1.1217 -0.2832 -0.4781
35402SOL     OW13063   2.729   3.785   0.870 -0.2184  0.0898 -0.1502
35402SOL    HW113064   2.708   3.694   0.849 -0.3302  0.2296 -0.6612
35402SOL    HW213065   2.771   3.781   0.956 -3.5152 -0.0755  1.5858
35403SOL     OW13066   9.843   9.938   2.415  0.1978 -0.0440  0.2589
35403SOL    HW113067   9.867   9.919   2.324 -1.5118  1.5200 -0.6098
35403SOL    HW213068   9.774   9.875   2.435 -0.6241  0.6875 -0.1756
35404SOL     OW13069   5.596   3.165   9.807  0.1338  0.1427 -0.0195
35404SOL    HW113070   5.602   3.258   9.788 -0.5074 -0.1071 -1.6187
35404SOL    HW213071   5.677   3.144   9.854  1.1395  1.1477 -1.2375
35405SOL     OW13072   6.136   7.805   2.738  0.0719  0.0284 -0.0795
35405SOL    HW113073   6.062   7.749   2.763 -1.7416  1.8890 -0.9683
35405SOL    HW213074   6.201   7.744   2.704 -1.6413 -1.6139 -0.6295
35406SOL     OW13075   9.083   9.329   4.804  0.0417 -0.5819  0.4903
35406SOL    HW113076   9.173   9.318   4.775 -0.5191 -2.2201 -0.7984
35406SOL    HW213077   9.033   9.337   4.723 -1.0795 -0.5959  1.1582
35407SOL     OW13078   0.522   2.157   7.932  0.3444  0.2466  0.2416
35407SOL    HW113079   0.471   2.237   7.937  0.6590  0.3969  1.1627
35407SOL    HW213080   0.552   2.141   8.021  1.8350  0.1160 -0.2545
35408SOL     OW13081   3.093   0.773   2.251  0.1550  0.4057 -0.0435
35408SOL    HW113082   3.124   0.798   2.164  1.9727 -1.8661 -0.1654
35408SOL    HW213083   3.021   0.713   2.234  0.8941 -0.5100 -0.0624
35409SOL     OW13084   0.174   3.562   4.649 -0.2245 -0.4645 -0.2888
35409SOL    HW113085   0.208   3.515   4.573  0.9803 -0.0902 -0.0026
35409SOL    HW213086   0.250   3.573   4.706 -0.7694  0.6171  0.2635
35410SOL     OW13087   7.712   7.854   8.080 -0.0340 -0.1512 -0.3096
35410SOL    HW113088   7.717   7.870   7.985  0.2954 -1.0916 -0.4603
35410SOL    HW213089   7.729   7.939   8.119 -2.2870  0.7549 -1.1039
35411SOL     OW13090   3.364  10.133   3.983  0.2288 -0.5324 -0.0688
35411SOL    HW113091   3.439  10.147   3.925  0.4157  1.8243  0.6580
35411SOL    HW213092   3.290  10.120   3.924  0.7224 -0.0251 -0.8140
35412SOL     OW13093  10.673   9.982  10.394 -0.0633  0.1825  0.1436
35412SOL    HW113094  10.746   9.947  10.343 -0.8710 -1.4018  0.0156
35412SOL    HW213095  10.703   9.978  10.485 -0.0231 -0.6242  0.1065
35413SOL     OW13096   8.466   7.507   1.360 -0.1906 -0.0333  0.2092
35413SOL    HW113097   8.423   7.592   1.371 -0.0706  0.0027  0.3949
35413SOL    HW213098   8.411   7.446   1.409 -0.8372 -0.2430 -0.7364
35414SOL     OW13099   6.675   2.773   8.164  0.5752  0.1809 -0.2865
35414SOL    HW113100   6.607   2.783   8.230  0.7791 -1.0740  0.1400
35414SOL    HW213101   6.753   2.747   8.213  0.5991 -1.2665 -1.0431
35415SOL     OW13102   2.647   1.720   2.176  0.0428  0.5438  0.0843
35415SOL    HW113103   2.668   1.771   2.254 -1.0473 -0.0394  0.7843
35415SOL    HW213104   2.637   1.630   2.208  3.8105 -0.5905 -1.3948
35416SOL     OW13105   5.439   8.622   2.242 -0.0084  0.1756  0.2790
35416SOL    HW113106   5.446   8.628   2.147  1.7245 -3.0791  0.0444
35416SOL    HW213107   5.349   8.593   2.258  0.0803 -0.5955 -0.5173
35417SOL     OW13108  10.168   8.213   0.581 -0.0794  0.5761 -0.3344
35417SOL    HW113109  10.238   8.170   0.629  1.8836  3.5066 -0.3134
35417SOL    HW213110  10.119   8.260   0.649 -1.7614 -0.9107 -0.4373
35418SOL     OW13111   4.745   4.207   0.453 -0.0328  0.1370 -0.3006
35418SOL    HW113112   4.836   4.189   0.476 -0.8550  0.2756  3.8341
35418SOL    HW213113   4.702   4.122   0.455 -0.1676  0.1306 -1.8154
35419SOL     OW13114   9.617   6.433   9.012 -0.2142  0.2552 -0.4541
35419SOL    HW113115   9.605   6.408   9.104  0.4426 -1.9259 -0.8937
35419SOL    HW213116   9.702   6.396   8.988  1.3873  3.8927 -1.0111
35420SOL     OW13117   1.991   2.719   2.073  0.1161 -0.1357  0.4006
35420SOL    HW113118   2.006   2.759   1.987  2.7138 -0.9073  0.4018
35420SOL    HW213119   1.997   2.791   2.135  1.4480 -0.0051  0.1478
35421SOL     OW13120   1.003   4.322   0.507 -0.1450 -0.1331 -0.3746
35421SOL    HW113121   1.050   4.243   0.535 -0.7794 -0.3938 -0.0389
35421SOL    HW213122   1.070   4.391   0.510  0.2235 -0.5012  0.0950
35422SOL     OW13123   8.899   2.924  10.724  0.2260  0.0937  0.1185
35422SOL    HW113124   8.965   2.963  10.781  0.6818 -0.9479  0.3369
35422SOL    HW213125   8.838   2.995  10.705  0.9399  0.8548  0.6171
35423SOL     OW13126   1.158   3.514   9.457 -0.2704 -0.0869 -0.1301
35423SOL    HW113127   1.157   3.463   9.377  0.9723 -1.1120  0.4725
35423SOL    HW213128   1.220   3.469   9.514 -1.7267  0.1393  1.7348
35424SOL     OW13129   9.246   0.460   7.468 -0.2102 -0.7648  0.1485
35424SOL    HW113130   9.303   0.509   7.410 -0.6736  0.4912  0.7291
35424SOL    HW213131   9.280   0.476   7.556 -0.5457 -1.2510  0.3768
35425SOL     OW13132   9.443   7.037   3.239 -0.4390  0.3409 -0.2070
35425SOL    HW113133   9.418   6.973   3.305 -0.3787  1.2362  0.7216
35425SOL    HW213134   9.459   6.986   3.159  0.6322 -0.8985  0.7672
35426SOL     OW13135   3.629  10.921  10.771  0.4206 -0.0319 -0.1402
35426SOL    HW113136   3.648  10.861  10.843  0.8819 -0.4649 -0.6036
35426SOL    HW213137   3.712  10.928  10.723  0.4619  1.2362  0.0793
35427SOL     OW13138   9.935   4.465  11.375 -0.1211 -0.1333 -0.1941
35427SOL    HW113139   9.896   4.388  11.334  0.2992 -0.1059 -0.6663
35427SOL    HW213140   9.890   4.539  11.334 -1.1895 -0.1307  0.9447
35428SOL     OW13141   6.997   2.740   2.836 -1.1561 -0.1891  0.2463
35428SOL    HW113142   6.930   2.806   2.820 -0.7941 -0.0721 -0.9012
35428SOL    HW213143   7.029   2.717   2.748  1.3859  0.8986  0.8095
35429SOL     OW13144   4.610   5.427   8.875 -0.1890 -0.2175 -0.5028
35429SOL    HW113145   4.647   5.383   8.951 -1.2919 -1.8110 -0.8345
35429SOL    HW213146   4.533   5.375   8.852 -0.6553  1.0046 -1.8943
35430SOL     OW13147  10.189   6.675   4.678 -0.0690 -0.1758 -0.4848
35430SOL    HW113148  10.256   6.741   4.661 -0.4973  0.8576  1.4882
35430SOL    HW213149  10.106   6.721   4.664 -0.3920  0.1139  1.9226
35431SOL     OW13150  11.803  11.778  12.485  0.7902 -0.3842 -0.5795
35431SOL    HW113151  11.788  11.710  12.550  0.6752 -1.2320 -1.4779
35431SOL    HW213152  11.724  11.831  12.487  0.7167 -0.5047 -0.1619
35432SOL     OW13153   5.080   9.988   7.173  0.1732  0.1234 -0.2576
35432SOL    HW113154   5.127  10.023   7.098  0.5385 -0.2252 -0.1924
35432SOL    HW213155   5.113   9.899   7.183  0.1932  0.1981  0.3719
35433SOL     OW13156   5.376  11.093   7.041  0.0744 -0.5085  0.9190
35433SOL    HW113157   5.310  11.150   7.002  0.5712 -0.4696  0.1160
35433SOL    HW213158   5.441  11.153   7.078  0.7224 -0.5215 -0.1390
35434SOL     OW13159   4.395   5.490   5.776 -0.3712 -1.2546 -0.1688
35434SOL    HW113160   4.480   5.465   5.742 -0.9778 -1.5286 -1.5539
35434SOL    HW213161   4.333   5.431   5.733 -1.5257  0.6512 -1.2754
35435SOL     OW13162   8.645   0.908   6.653  0.6514 -0.3813  0.2081
35435SOL    HW113163   8.587   0.888   6.580 -0.2063  1.6442  0.2438
35435SOL    HW213164   8.587   0.911   6.729  1.1067 -0.0919  0.5504
35436SOL     OW13165  11.778   7.132   8.074 -0.0845  0.3265  0.1724
35436SOL    HW113166  11.838   7.205   8.094 -2.2646  1.6312  2.5093
35436SOL    HW213167  11.696   7.174   8.049 -1.4651 -1.2733  1.7392
35437SOL     OW13168   6.325  10.639  11.330 -0.0448  0.1609 -0.3034
35437SOL    HW113169   6.391  10.649  11.398 -0.5527 -1.0178  0.3854
35437SOL    HW213170   6.363  10.577  11.268  0.1059  0.6538 -0.7157
35438SOL     OW13171  12.424   5.461   2.797 -0.0805 -0.0906 -0.6704
35438SOL    HW113172  12.379   5.376   2.797 -0.7338  0.1950  1.6712
35438SOL    HW213173  12.508   5.443   2.755 -0.0025 -2.0302  0.1764
35439SOL     OW13174   4.263   4.965   3.524 -0.3314 -0.1311 -0.3615
35439SOL    HW113175   4.346   4.993   3.561 -0.5202  0.8015 -0.6175
35439SOL    HW213176   4.203   5.037   3.542 -0.5092  0.2264 -2.1780
35440SOL     OW13177   2.726   7.104   3.830 -0.9463  0.4599  0.2456
35440SOL    HW113178   2.653   7.045   3.849  0.8380 -1.6666  0.9244
35440SOL    HW213179   2.774   7.059   3.760  1.3800  0.1993  1.9110
35441SOL     OW13180   4.548   3.830   6.990 -0.0648 -0.3180  0.0836
35441SOL    HW113181   4.598   3.911   6.975 -0.8771  0.7201  2.5303
35441SOL    HW213182   4.614   3.768   7.021  0.3620 -0.2443 -0.6356
35442SOL     OW13183   5.382   6.257   5.900  0.1520  0.5567 -0.2164
35442SOL    HW113184   5.313   6.308   5.943  0.6848 -0.3465  1.7661
35442SOL    HW213185   5.428   6.321   5.846 -0.6288  1.7009  0.4341
35443SOL     OW13186   5.670   4.044   8.670  0.1004 -0.1252  0.7849
35443SOL    HW113187   5.623   4.128   8.665 -1.9459 -1.2062  0.8413
35443SOL    HW213188   5.762   4.069   8.668 -0.4318  2.0965  0.1986
35444SOL     OW13189   9.458  10.526   1.206 -0.4326 -0.5068  0.0319
35444SOL    HW113190   9.396  10.453   1.219  0.2490 -0.9095  1.1814
35444SOL    HW213191   9.437  10.560   1.119  0.8541 -3.6764 -1.7017
35445SOL     OW13192   0.087   0.540  10.756 -0.5323 -0.5401 -0.0751
35445SOL    HW113193   0.039   0.487  10.819 -1.9762 -0.5841 -1.1516
35445SOL    HW213194   0.033   0.618  10.743  0.5070  0.1980 -0.1118
35446SOL     OW13195  12.276   0.635   4.086  0.7080  0.0334 -0.0610
35446SOL    HW113196  12.239   0.548   4.069 -0.1538  0.5293 -0.8581
35446SOL    HW213197  12.369   0.625   4.069  0.6028 -0.7152 -0.2375
35447SOL     OW13198   7.722   3.311   2.339  0.3296 -0.8489  0.1512
35447SOL    HW113199   7.683   3.271   2.416 -1.0186 -2.6211 -1.3651
35447SOL    HW213200   7.810   3.337   2.368 -1.4834  2.5978  3.4786
35448SOL     OW13201   7.488   3.810  11.469 -0.2685  0.5320 -0.2969
35448SOL    HW113202   7.464   3.839  11.557  0.1105  0.1454 -0.0663
35448SOL    HW213203   7.417   3.752  11.442  0.7726 -1.3190  0.7317
35449SOL     OW13204   3.896   9.559   3.579 -0.1364 -0.2958  0.0902
35449SOL    HW113205   3.912   9.652   3.565 -1.0211  0.1335  1.6791
35449SOL    HW213206   3.871   9.525   3.493  1.3366  0.6529 -0.7540
35450SOL     OW13207   3.025   6.817   0.218  0.0757  0.0350  0.4101
35450SOL    HW113208   3.002   6.768   0.298  1.3616  1.6064  1.8033
35450SOL    HW213209   2.978   6.900   0.226 -1.5954 -0.6340 -1.6328
35451SOL     OW13210   5.976  12.104   9.438  0.0612 -0.5599 -0.0759
35451SOL    HW113211   6.035  12.029   9.444  1.5319  0.5696  0.4729
35451SOL    HW213212   5.959  12.114   9.344  0.5195 -1.0721 -0.2180
35452SOL     OW13213   0.254   7.327   5.179  0.5291  0.1945 -0.1787
35452SOL    HW113214   0.338   7.294   5.209  1.8936  2.6269 -1.0430
35452SOL    HW213215   0.228   7.390   5.247 -0.2986 -0.0680 -0.2380
35453SOL     OW13216  12.413   7.681   7.911 -0.0408 -0.2758 -0.5278
35453SOL    HW113217  12.393   7.753   7.852  0.5102  0.7832  0.5390
35453SOL    HW213218  12.394   7.602   7.860 -1.2704  0.6158 -1.5035
35454SOL     OW13219   7.449  11.345   9.958  0.0392 -0.2156  0.1230
35454SOL    HW113220   7.394  11.423   9.969 -0.7280 -0.6223 -0.7405
35454SOL    HW213221   7.523  11.376   9.905 -0.2973 -0.0863 -0.2737
35455SOL     OW13222   6.809   2.135   9.188 -0.3862 -0.1668 -0.2302
35455SOL    HW113223   6.779   2.224   9.207  1.6085  0.5305 -0.1068
35455SOL    HW213224   6.743   2.100   9.128 -1.8408  0.9496  0.6492
35456SOL     OW13225   1.502  11.774  12.510  0.2640  0.2459  0.1869
35456SOL    HW113226   1.553  11.844  12.470  0.7869  0.7946  1.7568
35456SOL    HW213227   1.466  11.725  12.435 -1.3709  3.0395 -1.0311
35457SOL     OW13228  11.884   2.312   8.614  0.2847  0.2344  0.0845
35457SOL    HW113229  11.850   2.226   8.641  0.1888  0.0524 -0.5967
35457SOL    HW213230  11.861   2.371   8.686 -2.3681  0.3287 -0.7342
35458SOL     OW13231   8.674   8.862   6.439 -0.2686  0.4398  0.1627
35458SOL    HW113232   8.677   8.784   6.495 -1.7477  0.2332  0.0113
35458SOL    HW213233   8.696   8.829   6.352  0.2155  0.4119  0.2917
35459SOL     OW13234  10.665   7.991   1.176  0.1838  0.3831 -0.2485
35459SOL    HW113235  10.679   8.047   1.100  2.4393  1.3880  0.7943
35459SOL    HW213236  10.732   7.923   1.169 -0.5203 -0.3542  0.0993
35460SOL     OW13237   0.471  11.087  10.789 -0.5322  0.6803 -0.1622
35460SOL    HW113238   0.390  11.135  10.805 -0.8909 -0.2387  0.9250
35460SOL    HW213239   0.502  11.118  10.704 -1.8184  1.3285 -0.4056
35461SOL     OW13240   5.591   7.041   2.148  0.6931 -0.1892  0.4679
35461SOL    HW113241   5.556   7.105   2.086  0.4228  1.0370  1.8330
35461SOL    HW213242   5.532   6.966   2.140  0.5938 -0.0174 -0.6529
35462SOL     OW13243   9.392   3.278   9.142  0.5912  0.5174 -0.8670
35462SOL    HW113244   9.394   3.232   9.226  1.5938 -1.7380 -2.0156
35462SOL    HW213245   9.302   3.309   9.134  0.8081  1.9781  1.5814
35463SOL     OW13246   8.249   1.659  10.184 -0.2153 -0.5802 -0.3404
35463SOL    HW113247   8.235   1.710  10.104 -2.3980 -0.8836 -0.2235
35463SOL    HW213248   8.270   1.723  10.251  1.6966 -0.3242 -1.1342
35464SOL     OW13249   8.078   6.271   9.778  0.1546  0.0065 -0.1955
35464SOL    HW113250   8.118   6.245   9.695  0.2012  0.6667 -0.3840
35464SOL    HW213251   8.148   6.263   9.842  0.3723  0.3895 -0.3842
35465SOL     OW13252   7.947  10.728   0.300  0.3770 -0.3445  0.3944
35465SOL    HW113253   7.971  10.651   0.352  0.7877 -0.7830 -0.4107
35465SOL    HW213254   7.929  10.693   0.213 -2.5862  0.0604  0.7385
35466SOL     OW13255   2.180   5.564   5.337  0.6881 -0.0837 -0.1206
35466SOL    HW113256   2.250   5.501   5.322  1.6077  0.4675  1.5266
35466SOL    HW213257   2.101   5.511   5.348  1.1863 -0.8479 -0.1693
35467SOL     OW13258   6.364  12.053   1.351  0.0889  0.2188 -0.1206
35467SOL    HW113259   6.357  12.044   1.256  0.4416  1.5547 -0.3007
35467SOL    HW213260   6.276  12.078   1.380  0.0828  0.2411 -0.1589
35468SOL     OW13261   5.168   8.770   5.319 -0.1285  0.6153  0.3424
35468SOL    HW113262   5.092   8.713   5.312 -0.0732  0.6133 -0.3149
35468SOL    HW213263   5.137   8.846   5.368  0.1739 -0.5988  2.5667
35469SOL     OW13264   6.709   3.490   8.344  0.3540 -0.1406  0.2313
35469SOL    HW113265   6.709   3.582   8.318 -3.2634  0.8041  2.7333
35469SOL    HW213266   6.655   3.446   8.278  1.7150 -0.4570 -0.7153
35470SOL     OW13267   0.611   2.185  11.867 -0.2557 -0.2064 -0.2954
35470SOL    HW113268   0.551   2.166  11.796 -0.1592  0.2362 -0.4995
35470SOL    HW213269   0.683   2.233  11.825 -1.4615  2.4956  0.4879
35471SOL     OW13270   8.902   5.131   2.000  0.1734  0.1660  0.2024
35471SOL    HW113271   8.947   5.069   1.942  1.0781  0.2924  0.7547
35471SOL    HW213272   8.913   5.216   1.957 -1.0827 -0.0276 -0.5642
35472SOL     OW13273   7.898  10.585   1.223 -0.3292 -0.7626  0.1560
35472SOL    HW113274   7.845  10.624   1.292 -0.4442 -1.3496  0.4114
35472SOL    HW213275   7.854  10.501   1.204  0.0361 -0.8772 -0.2130
35473SOL     OW13276   0.433   2.297   9.492  0.6882 -0.2021 -0.3479
35473SOL    HW113277   0.446   2.304   9.586 -2.5439  0.0638  0.1901
35473SOL    HW213278   0.485   2.368   9.455  0.0974  1.2450  1.4839
35474SOL     OW13279   3.385  11.445   7.624 -0.4238 -0.1011 -0.3219
35474SOL    HW113280   3.295  11.441   7.593 -0.5876  0.7631 -0.0017
35474SOL    HW213281   3.378  11.474   7.715  0.1462 -0.7375 -0.0678
35475SOL     OW13282   7.923  11.313   9.120 -0.1085  0.9511 -0.4569
35475SOL    HW113283   7.876  11.246   9.070  0.2973  1.6521 -1.8131
35475SOL    HW213284   7.854  11.374   9.147 -0.5180 -0.0964  1.0006
35476SOL     OW13285   1.536   0.836   6.275  0.1384 -0.6101 -0.1601
35476SOL    HW113286   1.619   0.801   6.243  0.7625 -1.0831  1.8743
35476SOL    HW213287   1.559   0.911   6.328 -0.6118 -1.3495  1.2708
35477SOL     OW13288   6.150   4.049   4.280 -0.3066 -0.0444  0.1257
35477SOL    HW113289   6.201   3.978   4.317 -0.1591  0.1953  0.3875
35477SOL    HW213290   6.211   4.096   4.223 -0.8443 -1.1511 -1.4487
35478SOL     OW13291   7.586   6.384   7.300  0.0589  0.6051 -0.4898
35478SOL    HW113292   7.544   6.401   7.215 -1.3211 -0.7958 -0.1190
35478SOL    HW213293   7.680   6.382   7.280 -0.2934 -2.7537 -2.6532
35479SOL     OW13294   2.505   9.633   0.234 -0.1046  0.7013  0.7511
35479SOL    HW113295   2.427   9.676   0.199 -0.9371 -0.8467  0.6204
35479SOL    HW213296   2.472   9.554   0.277  1.4902 -1.1553 -1.1597
35480SOL     OW13297   5.590   2.291   9.567 -0.3181 -0.7338 -0.2711
35480SOL    HW113298   5.616   2.199   9.570  0.5087 -0.5221 -0.5598
35480SOL    HW213299   5.560   2.306   9.478 -1.1850 -0.9093 -0.0120
35481SOL     OW13300   9.551   9.682   0.490 -0.0798  0.1437 -0.0976
35481SOL    HW113301   9.630   9.696   0.439  1.5049 -1.6778  1.6536
35481SOL    HW213302   9.534   9.766   0.533  2.9049 -0.1914  2.0336
35482SOL     OW13303   1.150   2.826   8.730  0.4372 -0.2223 -0.5201
35482SOL    HW113304   1.169   2.767   8.803  0.0081  1.6659  1.2205
35482SOL    HW213305   1.092   2.893   8.768  1.0293  1.4087 -2.3300
35483SOL     OW13306   2.456   8.789   7.613  0.3614 -0.4231 -0.5558
35483SOL    HW113307   2.454   8.857   7.546  0.6355 -0.0458 -0.1870
35483SOL    HW213308   2.369   8.793   7.654  0.4137 -0.2182 -0.4624
35484SOL     OW13309   2.484  12.319  11.641  0.1492 -0.3259 -0.6005
35484SOL    HW113310   2.402  12.310  11.593  1.5387  0.4022 -3.2845
35484SOL    HW213311   2.501  12.232  11.678 -0.8161 -1.0258 -1.7501
35485SOL     OW13312   6.248   1.774   2.932 -0.2754 -0.0610 -0.3999
35485SOL    HW113313   6.274   1.786   2.840 -1.7218 -1.3536 -1.0357
35485SOL    HW213314   6.189   1.699   2.930 -0.5937  0.0844  1.5665
35486SOL     OW13315   8.393   2.574  11.415 -0.5536 -0.1463 -0.5058
35486SOL    HW113316   8.457   2.546  11.480 -1.2897  2.0587  1.3175
35486SOL    HW213317   8.381   2.497  11.359  2.2408 -1.2221  0.2000
35487SOL     OW13318   1.584   8.716   3.573  0.2317 -0.0535 -0.0182
35487SOL    HW113319   1.528   8.654   3.619 -0.1456 -1.1179 -1.8129
35487SOL    HW213320   1.672   8.680   3.583  0.2238  0.0078  0.2945
35488SOL     OW13321   2.446   0.509   3.619 -0.3407 -0.4936 -0.1260
35488SOL    HW113322   2.518   0.567   3.645  0.6319 -1.2911 -0.9486
35488SOL    HW213323   2.425   0.534   3.530 -0.8620 -0.4935 -0.0076
35489SOL     OW13324   6.373   1.606  10.021  0.2940 -0.0441  0.0884
35489SOL    HW113325   6.297   1.664  10.008  0.8236  0.8607  0.8774
35489SOL    HW213326   6.448   1.660   9.994  0.6770 -0.8793 -0.5476
35490SOL     OW13327   9.587   1.795   9.252 -0.0980 -0.7168  0.1807
35490SOL    HW113328   9.493   1.779   9.251 -0.2810  0.3016 -0.6862
35490SOL    HW213329   9.619   1.748   9.330 -1.3065 -1.0701  0.4796
35491SOL     OW13330   4.518   9.226   5.981 -0.4460 -0.2453  0.7574
35491SOL    HW113331   4.546   9.211   5.891 -0.6007  2.2791  0.2107
35491SOL    HW213332   4.434   9.272   5.973  0.6884  2.3027  2.0177
35492SOL     OW13333  11.376   7.600  11.751  0.2731  0.9314 -0.5872
35492SOL    HW113334  11.393   7.561  11.837 -0.9953  0.8340 -0.3587
35492SOL    HW213335  11.337   7.685  11.770 -0.4704  0.7102 -1.0441
35493SOL     OW13336   6.410  10.509   1.651  0.3139  0.4368 -0.6060
35493SOL    HW113337   6.470  10.495   1.725  0.4769  1.8594 -0.4363
35493SOL    HW213338   6.354  10.582   1.680  0.3853  1.0240 -1.8760
35494SOL     OW13339   8.227  11.586   9.917  0.3646 -0.9700 -0.3089
35494SOL    HW113340   8.296  11.640   9.878 -1.3109  1.4698 -0.1376
35494SOL    HW213341   8.148  11.613   9.871 -1.0999 -0.6356  2.2483
35495SOL     OW13342   5.018   4.362   6.915  0.4057  0.2555  0.2407
35495SOL    HW113343   5.069   4.282   6.927 -0.7091 -0.4748  0.2552
35495SOL    HW213344   4.933   4.343   6.955  0.3761  1.7406  0.9752
35496SOL     OW13345   8.906   9.036   2.411 -0.5371  0.2276 -0.6939
35496SOL    HW113346   8.852   9.049   2.488  1.4286  1.4982  0.5689
35496SOL    HW213347   8.870   9.096   2.345 -0.0648  1.8809  0.4867
35497SOL     OW13348  11.748   7.412   3.000 -0.0625  0.1862 -0.5534
35497SOL    HW113349  11.808   7.337   3.001 -0.0914  0.1523 -0.8901
35497SOL    HW213350  11.771   7.464   3.076 -0.5820 -0.5957  0.1558
35498SOL     OW13351   8.501   0.074   1.249  0.4331 -0.2944  0.0786
35498SOL    HW113352   8.442   0.104   1.180  1.7206  1.1946 -0.4181
35498SOL    HW213353   8.587   0.067   1.206  0.7440 -2.0300  0.8763
35499SOL     OW13354   8.320   2.962   8.872  0.3622 -0.1018  0.6341
35499SOL    HW113355   8.321   3.058   8.879 -2.8105 -0.0310  1.4510
35499SOL    HW213356   8.266   2.944   8.795 -0.8656 -1.2043  1.7078
35500SOL     OW13357   9.270   0.536   9.130 -0.4526 -0.5250 -0.1490
35500SOL    HW113358   9.294   0.551   9.221  3.8305 -0.8550 -1.0038
35500SOL    HW213359   9.282   0.442   9.117  1.3949 -0.1725 -1.4895
35501SOL     OW13360   3.718   4.572  10.611 -0.3729 -0.0837  0.0244
35501SOL    HW113361   3.720   4.606  10.701 -0.6197  1.4682 -0.5426
35501SOL    HW213362   3.755   4.642  10.558 -0.6609 -0.8062 -1.1519
35502SOL     OW13363   8.395  12.067   6.462 -0.2868 -0.1179  0.7187
35502SOL    HW113364   8.343  12.130   6.412  0.4068  0.6256  0.9193
35502SOL    HW213365   8.406  11.992   6.403 -1.9022 -0.4633  0.8115
35503SOL     OW13366   1.921   4.789  10.755  0.0743  0.2632  0.1643
35503SOL    HW113367   1.998   4.843  10.737  0.7012 -0.5073  0.4712
35503SOL    HW213368   1.856   4.851  10.789  0.9231  0.7665  0.9163
35504SOL     OW13369  10.890   5.139   7.124  0.0837  0.2792  0.5768
35504SOL    HW113370  10.887   5.072   7.056 -0.2056 -0.4086  1.2529
35504SOL    HW213371  10.948   5.102   7.191 -1.8879 -0.3565  2.0331
35505SOL     OW13372   9.229   8.800   4.532 -0.3245 -0.5821 -0.5545
35505SOL    HW113373   9.196   8.729   4.586  2.1817 -0.9359  0.6669
35505SOL    HW213374   9.248   8.871   4.594  1.2912 -0.4800 -1.1044
35506SOL     OW13375   8.163   7.276   8.911 -0.1539  0.3152  0.2378
35506SOL    HW113376   8.091   7.307   8.965 -0.0401 -1.8512  1.7506
35506SOL    HW213377   8.225   7.238   8.973  0.1481 -1.9629 -1.3342
35507SOL     OW13378   0.613  10.455  12.014  0.6174  0.0177 -0.1891
35507SOL    HW113379   0.518  10.452  12.009  0.5343  1.3643  0.1949
35507SOL    HW213380   0.641  10.455  11.922  0.3384 -1.6025 -0.3122
35508SOL     OW13381   6.723   9.797  12.573 -0.8757  0.1916 -0.2755
35508SOL    HW113382   6.760   9.778  12.487 -0.9951  1.0139 -0.5229
35508SOL    HW213383   6.766   9.736  12.633  1.2696  1.4277 -0.4581
35509SOL     OW13384  12.070   6.634   3.582  0.1243 -0.0474  0.0273
35509SOL    HW113385  12.085   6.685   3.661  0.7759  0.2153 -0.2528
35509SOL    HW213386  12.157   6.629   3.540 -0.1246 -0.5423 -0.4499
35510SOL     OW13387  11.744   4.284  12.110 -0.3908  0.3305 -0.5341
35510SOL    HW113388  11.769   4.332  12.189  2.4805 -0.3092 -0.9468
35510SOL    HW213389  11.658   4.247  12.131 -0.7845  2.1050  1.3578
35511SOL     OW13390   8.368   5.345   6.497 -0.3497 -0.4240 -0.2301
35511SOL    HW113391   8.283   5.342   6.540 -0.3433  1.2911 -0.0414
35511SOL    HW213392   8.348   5.365   6.406 -0.1041  1.8740  0.1730
35512SOL     OW13393   5.318   6.121   0.676  0.2392 -0.1440 -0.5984
35512SOL    HW113394   5.301   6.044   0.622  0.0620 -1.3870  1.1344
35512SOL    HW213395   5.381   6.091   0.742  0.3021  1.2499  0.0177
35513SOL     OW13396   8.395   9.834   3.592 -0.0212  0.1676 -0.3211
35513SOL    HW113397   8.389   9.782   3.512 -0.1598  0.3164 -0.4085
35513SOL    HW213398   8.404   9.770   3.662  0.8693  0.0583 -0.5223
35514SOL     OW13399   1.669   4.887  12.025  0.1161 -0.9385  0.4165
35514SOL    HW113400   1.700   4.882  12.116 -0.6340  0.4087  0.7833
35514SOL    HW213401   1.749   4.894  11.973  0.5303  0.0229  1.1388
35515SOL     OW13402   1.432  12.214   9.419 -0.0064 -0.3393 -0.4965
35515SOL    HW113403   1.487  12.136   9.412 -0.6220 -0.7582 -0.7295
35515SOL    HW213404   1.344  12.184   9.396 -0.6416 -0.0248  1.3627
35516SOL     OW13405   6.528   1.607   1.401 -0.0231 -0.0119  0.0040
35516SOL    HW113406   6.575   1.524   1.390  0.2229  0.1020  0.1952
35516SOL    HW213407   6.475   1.615   1.321 -0.0476 -0.3513 -0.0178
35517SOL     OW13408   1.143   2.621  11.878  0.0892  0.1614 -0.4863
35517SOL    HW113409   1.180   2.706  11.855  3.5752 -1.3218 -0.9380
35517SOL    HW213410   1.160   2.566  11.801 -1.3093 -1.2192  0.1302
35518SOL     OW13411  11.269   4.056   5.259  0.0597  0.1676  0.1696
35518SOL    HW113412  11.282   3.970   5.300  0.1205 -0.9292 -2.0182
35518SOL    HW213413  11.332   4.057   5.187  0.9405  2.6029  0.8677
35519SOL     OW13414   5.722   3.968   0.871 -0.1420  0.6352 -0.3562
35519SOL    HW113415   5.665   4.003   0.940 -0.4137 -0.6143  0.1016
35519SOL    HW213416   5.807   3.957   0.914 -0.6083 -1.2735  0.1996
35520SOL     OW13417   0.634   5.402   8.511 -0.5010 -0.3404  0.3392
35520SOL    HW113418   0.595   5.388   8.597  0.3428 -2.6146  0.4244
35520SOL    HW213419   0.728   5.388   8.524 -0.2224  0.4198 -0.7361
35521SOL     OW13420   0.149   5.215  11.097 -0.0246 -0.3058 -0.6863
35521SOL    HW113421   0.082   5.177  11.040 -0.7929 -2.1816  1.2980
35521SOL    HW213422   0.192   5.139  11.137  1.9938  0.8930 -0.4350
35522SOL     OW13423   5.324   6.403   4.962 -0.0009  0.1838 -0.1766
35522SOL    HW113424   5.321   6.464   5.036 -0.0804 -0.3548  0.2671
35522SOL    HW213425   5.401   6.349   4.979  1.0906  1.2561 -1.4545
35523SOL     OW13426  10.284   9.439   8.212 -0.2416 -0.3982  0.2451
35523SOL    HW113427  10.299   9.504   8.143 -0.2204 -0.4545  0.1973
35523SOL    HW213428  10.322   9.358   8.177 -0.8895 -0.6087  0.0062
35524SOL     OW13429   2.516   7.911   5.132  0.4105  0.4317  0.6845
35524SOL    HW113430   2.445   7.971   5.154  0.4112 -0.1226  2.3526
35524SOL    HW213431   2.586   7.934   5.193  0.3841 -1.2654  1.3979
35525SOL     OW13432   1.777  11.030   3.846  0.4541  0.3073 -0.9615
35525SOL    HW113433   1.852  11.080   3.878 -0.3490  1.6398 -1.0939
35525SOL    HW213434   1.701  11.071   3.888 -0.1487 -1.8304  0.2197
35526SOL     OW13435   4.802   1.276   9.383  0.3083 -0.0859 -0.3301
35526SOL    HW113436   4.860   1.227   9.443 -0.7876  0.2504  1.0535
35526SOL    HW213437   4.822   1.368   9.400 -1.2786  0.0811  0.9198
35527SOL     OW13438  11.763   9.728   3.284  0.5630  0.0975 -0.5608
35527SOL    HW113439  11.728   9.639   3.281 -0.7333  0.5999 -1.0069
35527SOL    HW213440  11.775   9.746   3.377 -1.9605  0.4714 -0.2387
35528SOL     OW13441   3.778   3.630   9.766  0.3779  0.3832  0.0632
35528SOL    HW113442   3.789   3.661   9.676  2.2388 -1.0739 -0.2798
35528SOL    HW213443   3.733   3.701   9.811  1.0967  1.9425 -1.5779
35529SOL     OW13444   5.206   9.680  11.912 -0.0526  0.1783  0.4044
35529SOL    HW113445   5.187   9.757  11.858 -0.9749  0.6980  1.4405
35529SOL    HW213446   5.301   9.683  11.925 -0.1037  1.3054  0.6502
35530SOL     OW13447   0.457   8.805   1.228  0.0842 -0.0827 -0.5834
35530SOL    HW113448   0.526   8.753   1.269 -0.1825  1.1349  1.5662
35530SOL    HW213449   0.391   8.741   1.200  0.7234 -1.0285  0.0469
35531SOL     OW13450   4.605   9.977   2.786  0.2910 -0.2499 -0.1270
35531SOL    HW113451   4.648  10.062   2.796  0.0157 -0.1770  0.5304
35531SOL    HW213452   4.518   9.990   2.824 -0.4415 -0.3129 -1.7284
35532SOL     OW13453   4.490   2.703   6.075  0.1021  0.3168 -0.1190
35532SOL    HW113454   4.412   2.729   6.125  0.5995  1.0120  0.3057
35532SOL    HW213455   4.503   2.611   6.096 -0.1187  0.4154  0.4554
35533SOL     OW13456   9.721   2.232   5.019 -0.3307  0.3798  0.1334
35533SOL    HW113457   9.666   2.155   5.034 -1.1291  1.0517  0.7274
35533SOL    HW213458   9.755   2.220   4.930 -0.5155 -0.6058  0.1843
35534SOL     OW13459   9.949  11.839  10.175  0.5554 -0.2223  0.7817
35534SOL    HW113460  10.017  11.906  10.183  0.2610  0.5075 -1.7947
35534SOL    HW213461   9.876  11.884  10.131 -0.4772 -1.7053  0.8876
35535SOL     OW13462  11.158  10.283   3.429  0.5627  0.1502 -0.6218
35535SOL    HW113463  11.079  10.312   3.383 -0.6869  0.3840  1.5111
35535SOL    HW213464  11.175  10.353   3.493  2.3448 -0.0513 -0.8319
35536SOL     OW13465  10.107  10.068   1.075  0.0384  0.2551 -0.5259
35536SOL    HW113466  10.049  10.117   1.134 -0.3039  0.1534 -0.7755
35536SOL    HW213467  10.163  10.017   1.133 -1.1041 -0.7869 -0.2900
35537SOL     OW13468  10.740   9.218   6.319 -0.3129  0.4729  0.3105
35537SOL    HW113469  10.794   9.151   6.277 -1.4082 -0.5065  0.4156
35537SOL    HW213470  10.803   9.273   6.366  0.5751 -0.7744  0.6304
35538SOL     OW13471   9.364   7.691   6.883  0.2313  0.0086 -0.0984
35538SOL    HW113472   9.364   7.774   6.836 -0.7641 -0.6928 -1.4255
35538SOL    HW213473   9.435   7.640   6.842  1.1124  0.3170  0.9840
35539SOL     OW13474   4.551  12.255   2.530  0.1636 -0.3646 -0.0990
35539SOL    HW113475   4.528  12.174   2.484  0.7565 -0.7734  0.3115
35539SOL    HW213476   4.476  12.273   2.587 -0.1501 -0.3934 -0.5003
35540SOL     OW13477   5.250  10.586   6.421  0.0643  0.3016  0.3567
35540SOL    HW113478   5.268  10.669   6.465 -0.0954  0.2842  0.4580
35540SOL    HW213479   5.159  10.594   6.390  0.1297  0.2581  0.1543
35541SOL     OW13480  10.902  10.516   2.392  0.1265 -0.4386 -0.2833
35541SOL    HW113481  10.844  10.572   2.342 -1.0560 -0.6016  0.8631
35541SOL    HW213482  10.919  10.441   2.335 -2.0511 -1.1389 -0.1162
35542SOL     OW13483  12.442  11.799   4.430 -0.0165  0.0568  0.2938
35542SOL    HW113484  12.465  11.750   4.351  0.6103 -0.0665  0.5486
35542SOL    HW213485  12.358  11.841   4.408 -0.7928 -1.4524  0.2251
35543SOL     OW13486   9.213  12.371   5.341  0.2090 -0.1684  0.3339
35543SOL    HW113487   9.178  12.284   5.359 -0.0090  0.0162  0.7994
35543SOL    HW213488   9.193  12.386   5.248 -3.0617  0.8746  1.0892
35544SOL     OW13489   8.489   0.788   6.470 -0.1814  0.4950 -0.5658
35544SOL    HW113490   8.396   0.769   6.484  0.2760 -0.7459  1.3024
35544SOL    HW213491   8.530   0.702   6.469  1.3604  1.0618  2.5676
35545SOL     OW13492   8.578   2.755   6.764 -0.1690  0.1964  0.1119
35545SOL    HW113493   8.526   2.814   6.709 -1.6421 -0.1094  1.1013
35545SOL    HW213494   8.656   2.806   6.786  1.1346 -0.1225 -3.2274
35546SOL     OW13495   9.398  10.396   6.010  0.0842 -0.3157 -0.3502
35546SOL    HW113496   9.318  10.385   5.959 -0.1088  0.9609 -0.3612
35546SOL    HW213497   9.460  10.436   5.948  0.7710 -1.3561 -0.3677
35547SOL     OW13498   8.380  12.013   9.044  0.0598 -0.0920  0.9584
35547SOL    HW113499   8.327  11.985   8.970  0.8178 -0.6891  0.6286
35547SOL    HW213500   8.462  11.964   9.035  1.1899  1.7246  0.7249
35548SOL     OW13501   5.813   9.715   5.400  0.0633  0.1398 -0.3318
35548SOL    HW113502   5.730   9.734   5.443 -0.1750 -1.3106 -0.0724
35548SOL    HW213503   5.836   9.627   5.432  1.3506  0.2416 -0.9223
35549SOL     OW13504   8.094   8.465  12.511 -0.7278 -0.3338  0.7683
35549SOL    HW113505   8.138   8.381  12.522 -1.2903 -0.8018 -0.3824
35549SOL    HW213506   8.003   8.442  12.492 -0.9672  0.5514  0.8078
35550SOL     OW13507  11.187   0.316   1.108  0.5572 -0.2636  0.3115
35550SOL    HW113508  11.198   0.301   1.202  0.4551 -0.1405  0.3420
35550SOL    HW213509  11.179   0.228   1.071  0.1650 -0.2958  0.4695
35551SOL     OW13510   1.748   1.170   8.016 -0.6883 -0.0879 -0.0869
35551SOL    HW113511   1.743   1.140   8.107 -0.0421  0.9290  0.3018
35551SOL    HW213512   1.834   1.140   7.986  0.2477  1.8431  0.5138
35552SOL     OW13513   3.772  10.597   2.927 -0.2096  0.2368  0.2036
35552SOL    HW113514   3.775  10.512   2.970 -1.4687 -0.6901 -1.4609
35552SOL    HW213515   3.819  10.584   2.845  0.0124  1.2912  0.1518
35553SOL     OW13516   8.456   4.024  12.543  0.3918  0.3041  0.6262
35553SOL    HW113517   8.542   4.032  12.501  1.5521 -0.3909  2.7339
35553SOL    HW213518   8.426   4.114  12.555 -0.1804  0.5317 -1.9649
35554SOL     OW13519   6.041   3.503   9.043 -0.0210 -0.0290  0.0009
35554SOL    HW113520   5.963   3.510   8.987 -0.5239  3.1445  0.8655
35554SOL    HW213521   6.065   3.594   9.061  2.7111 -0.9322  1.4448
35555SOL     OW13522   3.060   5.436   7.984  0.2510 -0.0242 -0.3264
35555SOL    HW113523   3.018   5.370   7.930  1.7033 -2.2256  1.0724
35555SOL    HW213524   2.989   5.472   8.038 -0.2769 -2.0704  0.4258
35556SOL     OW13525   8.221   4.563   9.333  0.0427 -0.0333  0.2626
35556SOL    HW113526   8.194   4.514   9.411 -3.1246  1.4478  0.2470
35556SOL    HW213527   8.233   4.653   9.364  0.2261  0.2752 -0.6924
35557SOL     OW13528   6.470   5.428   6.544  0.3244 -0.0640  0.6338
35557SOL    HW113529   6.511   5.406   6.628  0.1445 -0.6595  0.5685
35557SOL    HW213530   6.377   5.440   6.565  0.6114  2.0330  0.9208
35558SOL     OW13531   4.315  10.440  10.552 -0.0739 -0.1050 -0.3648
35558SOL    HW113532   4.387  10.379  10.568  0.3148  0.2915 -0.5841
35558SOL    HW213533   4.356  10.514  10.506 -0.4158  0.5860  0.4035
35559SOL     OW13534   8.777   2.875   2.563  0.1808 -0.0888 -0.7270
35559SOL    HW113535   8.864   2.910   2.584 -0.9213  1.5272  1.5354
35559SOL    HW213536   8.769   2.797   2.618  1.0502 -1.7091 -2.7507
35560SOL     OW13537  10.150   4.769   2.268 -0.1981 -0.1066 -0.9547
35560SOL    HW113538  10.193   4.780   2.183 -3.1312  0.3122 -2.5002
35560SOL    HW213539  10.100   4.850   2.280  0.7855  0.2215  1.6501
35561SOL     OW13540   7.317   2.837   9.359  0.0025 -0.2214  0.5706
35561SOL    HW113541   7.403   2.827   9.318 -0.1684 -0.1747  0.1976
35561SOL    HW213542   7.329   2.804   9.449  0.0930 -1.3905  0.1495
35562SOL     OW13543   2.428   5.524   0.791  0.1066  0.2043 -0.2959
35562SOL    HW113544   2.376   5.544   0.713 -0.8339 -0.5397  0.1185
35562SOL    HW213545   2.382   5.452   0.833 -0.0147  1.2702  1.5265
35563SOL     OW13546   2.734   5.389   0.426 -0.0278 -0.2759  0.1802
35563SOL    HW113547   2.725   5.472   0.474  0.2290 -0.5481  0.7134
35563SOL    HW213548   2.821   5.392   0.388  0.3399 -0.6713  0.9500
35564SOL     OW13549   1.880   4.328   0.598  0.2673 -0.1696  0.2377
35564SOL    HW113550   1.938   4.256   0.622 -2.1432 -2.3071  0.1667
35564SOL    HW213551   1.860   4.313   0.506 -0.5965  0.3249  0.3335
35565SOL     OW13552   5.751   9.595   3.601  0.6714 -0.1715  0.4456
35565SOL    HW113553   5.667   9.622   3.638  0.9426  1.4374 -0.0192
35565SOL    HW213554   5.810   9.589   3.677 -0.4670 -4.2670  1.2157
35566SOL     OW13555   8.045  11.709   9.747  0.6237  0.1596 -0.1216
35566SOL    HW113556   8.090  11.790   9.726  1.8041 -0.6683 -0.9339
35566SOL    HW213557   8.070  11.649   9.677 -0.6132 -0.7715  0.1943
35567SOL     OW13558   8.146   3.537   4.631 -0.3669  0.0050 -0.2931
35567SOL    HW113559   8.183   3.625   4.628 -1.5094  0.6087  1.5028
35567SOL    HW213560   8.145   3.508   4.540 -0.1759  1.9293 -0.9519
35568SOL     OW13561   6.580   0.897   2.863 -0.2882  0.0064  0.2182
35568SOL    HW113562   6.539   0.939   2.788  0.7274 -0.8462 -0.8505
35568SOL    HW213563   6.561   0.804   2.853 -2.4128  0.0906  2.5009
35569SOL     OW13564   3.104  10.200  11.547 -0.0830  0.3128  0.5163
35569SOL    HW113565   3.145  10.233  11.627  0.7414 -2.4644  1.3581
35569SOL    HW213566   3.174  10.200  11.482  0.1997 -0.5989  0.8004
35570SOL     OW13567   8.738   7.854  10.717 -0.1184  0.2013 -0.1400
35570SOL    HW113568   8.684   7.874  10.640 -0.4093  0.3980  0.1144
35570SOL    HW213569   8.705   7.912  10.785  0.2456  0.1397  0.0900
35571SOL     OW13570   4.189   8.779   9.868 -0.3107  0.2465 -0.1232
35571SOL    HW113571   4.190   8.712   9.800 -1.2580  0.6721 -0.5661
35571SOL    HW213572   4.233   8.854   9.828 -1.1955  0.6230 -0.4144
35572SOL     OW13573   4.774   1.806   8.045  0.3940 -0.4960  0.0348
35572SOL    HW113574   4.855   1.843   8.009  0.2896  0.2687  0.5547
35572SOL    HW213575   4.743   1.746   7.978 -0.0621  1.2640 -1.4346
35573SOL     OW13576   4.661   3.922   9.650  0.1238 -0.0317 -0.2604
35573SOL    HW113577   4.703   3.838   9.669  1.4608  0.7572  0.3781
35573SOL    HW213578   4.586   3.924   9.710  1.0098 -0.0835  0.8917
35574SOL     OW13579   9.957   0.658   8.533 -0.4723  0.3226  0.1417
35574SOL    HW113580   9.988   0.645   8.443 -1.1606  1.7855 -0.3339
35574SOL    HW213581   9.920   0.574   8.558  2.1973 -0.9922  0.0946
35575SOL     OW13582  11.020   4.246   5.699 -0.2734 -0.7222 -0.6681
35575SOL    HW113583  10.996   4.199   5.619  0.0874 -0.0477 -1.1811
35575SOL    HW213584  11.106   4.283   5.681  0.5132 -1.8139  0.5892
35576SOL     OW13585   4.035   3.200  12.050 -0.0954  0.1747 -0.1112
35576SOL    HW113586   4.033   3.282  12.098 -0.7967 -1.0193  2.0431
35576SOL    HW213587   3.948   3.162  12.062  0.4942 -1.3093 -0.2265
35577SOL     OW13588   3.144   8.733  10.723 -0.4488  0.3345  0.3006
35577SOL    HW113589   3.074   8.679  10.686  0.5578 -1.5614  1.0211
35577SOL    HW213590   3.204   8.749  10.650 -0.3424 -0.2385  0.2573
35578SOL     OW13591   4.149   3.315   9.173  0.0149 -0.6698 -0.1410
35578SOL    HW113592   4.217   3.248   9.177  0.1560 -0.6541 -1.6244
35578SOL    HW213593   4.192   3.391   9.135 -0.5459 -0.2855 -0.0145
35579SOL     OW13594   4.532   4.575  12.043  0.2749  0.1955  0.3857
35579SOL    HW113595   4.516   4.498  12.097  1.4651 -1.5060 -1.5657
35579SOL    HW213596   4.610   4.553  11.992 -0.6569  1.7572 -1.8835
35580SOL     OW13597   8.533   5.308   5.543  0.2082 -0.1629  0.0894
35580SOL    HW113598   8.533   5.219   5.508  0.1045 -0.2814  0.3932
35580SOL    HW213599   8.608   5.350   5.501 -0.6018  0.0551 -1.1987
35581SOL     OW13600   1.037   6.399   1.977 -0.5547  0.2167 -0.0371
35581SOL    HW113601   0.954   6.445   1.967 -1.2018 -1.2584 -2.3029
35581SOL    HW213602   1.038   6.370   2.068 -1.7287  1.6885  0.4727
35582SOL     OW13603  10.741   3.011   5.401  0.0904  0.0701 -1.0461
35582SOL    HW113604  10.743   2.941   5.465  0.3197  0.1008 -1.0179
35582SOL    HW213605  10.833   3.037   5.391 -0.1575  1.6907  0.4056
35583SOL     OW13606   6.178   3.205   6.489 -0.6315 -0.1308 -0.0556
35583SOL    HW113607   6.226   3.274   6.443  2.8709 -1.0650  1.8231
35583SOL    HW213608   6.193   3.223   6.582 -1.5699 -2.1182  0.5327
35584SOL     OW13609   5.822  11.045   4.833  0.0890 -0.3751 -0.1869
35584SOL    HW113610   5.745  11.101   4.831 -0.2009 -0.5989  2.1191
35584SOL    HW213611   5.797  10.970   4.887  1.4589 -1.1917 -0.6190
35585SOL     OW13612  12.306   6.691   4.899 -0.5636  0.4044  0.8996
35585SOL    HW113613  12.295   6.745   4.821  0.5404  0.2265  0.5926
35585SOL    HW213614  12.248   6.616   4.885 -1.1195  0.8626  0.7221
35586SOL     OW13615   6.674  11.604   0.253  0.5688 -0.0811 -0.2702
35586SOL    HW113616   6.616  11.675   0.279  1.0980  0.0709  0.5312
35586SOL    HW213617   6.704  11.627   0.165 -0.9138 -0.3851 -0.8945
35587SOL     OW13618  10.168   1.954   1.442  0.3895 -0.5587 -0.0772
35587SOL    HW113619  10.175   1.986   1.352  1.2828 -1.6044 -0.3912
35587SOL    HW213620  10.258   1.952   1.474  0.3821 -2.6736 -0.0593
35588SOL     OW13621  10.595   9.527   2.393  0.3197 -0.0582  0.1531
35588SOL    HW113622  10.563   9.446   2.432  2.5580 -0.7947  0.6395
35588SOL    HW213623  10.606   9.587   2.466  2.1210 -0.5942  0.3742
35589SOL     OW13624  11.164  10.361   9.773 -0.7568 -0.4568 -0.0632
35589SOL    HW113625  11.093  10.388   9.831  0.0207 -0.4398  0.9068
35589SOL    HW213626  11.199  10.282   9.812  1.4611  0.9618  0.9969
35590SOL     OW13627   3.252  11.102   6.321 -0.2661 -0.2645 -0.2319
35590SOL    HW113628   3.183  11.126   6.260  0.7669  1.3870 -0.8198
35590SOL    HW213629   3.313  11.051   6.269 -0.5099 -0.8164  0.0173
35591SOL     OW13630   1.474   8.716   0.646 -0.2244 -1.2170  0.0751
35591SOL    HW113631   1.524   8.650   0.596  1.8958  1.2021 -1.2308
35591SOL    HW213632   1.500   8.800   0.608 -3.0748  0.4299  1.4263
35592SOL     OW13633  12.214   4.006  10.886 -0.0425 -0.7479 -0.1744
35592SOL    HW113634  12.309   4.005  10.875  0.2175 -0.4872  1.7251
35592SOL    HW213635  12.179   4.001  10.797  1.7434 -0.7629 -0.9048
35593SOL     OW13636   2.715   6.399   7.908  0.0385 -0.5577 -0.1204
35593SOL    HW113637   2.724   6.309   7.938  0.7665 -0.1363  0.9974
35593SOL    HW213638   2.777   6.407   7.836  0.0543 -0.9149 -0.1492
35594SOL     OW13639   0.644   5.121   1.603 -0.3313 -0.1993  0.1679
35594SOL    HW113640   0.555   5.107   1.636 -0.4011 -0.4112 -0.1105
35594SOL    HW213641   0.652   5.062   1.528  0.1675 -0.4400  0.4053
35595SOL     OW13642   0.658   5.456   4.557  0.1195  0.0208 -0.0374
35595SOL    HW113643   0.598   5.383   4.571  1.7338 -1.2032  0.9081
35595SOL    HW213644   0.635   5.519   4.625 -0.9242  0.1567 -0.5078
35596SOL     OW13645  12.116   3.741   2.455 -0.3432 -0.1167 -0.6759
35596SOL    HW113646  12.063   3.662   2.461 -0.6191  0.1683  1.8561
35596SOL    HW213647  12.053   3.812   2.450 -0.3570  0.2064  2.1205
35597SOL     OW13648   9.778   9.417   6.895  0.4349  0.7720  0.9302
35597SOL    HW113649   9.751   9.329   6.920  1.3146 -0.2572 -1.4660
35597SOL    HW213650   9.698   9.461   6.869  0.1756  0.1615  0.6905
35598SOL     OW13651  10.383   7.737  11.288 -0.2143  0.0132 -0.3613
35598SOL    HW113652  10.342   7.698  11.211  0.6623 -0.9606 -0.3645
35598SOL    HW213653  10.325   7.715  11.361 -0.5283  0.0711 -0.5912
35599SOL     OW13654   3.440   3.527   6.256 -0.0943 -0.3745 -0.5236
35599SOL    HW113655   3.443   3.528   6.160  1.7131 -0.6311 -0.5039
35599SOL    HW213656   3.523   3.566   6.283 -0.9515  0.5057  0.9644
35600SOL     OW13657   1.442   1.602   9.174  0.1835  0.1907  0.1939
35600SOL    HW113658   1.436   1.510   9.147 -0.0834 -0.0607  1.0855
35600SOL    HW213659   1.361   1.641   9.141  0.7113  0.3279 -0.9776
35601SOL     OW13660   4.320   7.564   3.761 -0.6056 -0.4454  0.1182
35601SOL    HW113661   4.391   7.597   3.816  1.6766  1.1762 -3.4141
35601SOL    HW213662   4.274   7.643   3.732 -2.1274 -1.2961  0.1320
35602SOL     OW13663   4.589   1.530   0.776  0.0832  0.4395  0.3709
35602SOL    HW113664   4.523   1.598   0.767  1.4082  1.6974 -0.3414
35602SOL    HW213665   4.632   1.549   0.859  0.3050  0.3182  0.2845
35603SOL     OW13666   3.337   0.429   6.127 -0.4247  0.1832 -0.4667
35603SOL    HW113667   3.307   0.418   6.217  1.7553 -0.7159  0.2329
35603SOL    HW213668   3.375   0.517   6.125  0.9945 -0.3748  0.0317
35604SOL     OW13669   1.613   0.458   1.078 -0.3888  0.2517  0.3431
35604SOL    HW113670   1.641   0.474   1.168 -0.4126 -0.3083  0.4493
35604SOL    HW213671   1.551   0.529   1.059  0.7630  1.2834  0.2470
35605SOL     OW13672   3.908   1.696  11.061  1.1739 -0.4548 -0.5208
35605SOL    HW113673   3.965   1.620  11.067 -1.0396 -2.2697 -1.0063
35605SOL    HW213674   3.866   1.701  11.147  0.3807 -0.5751 -0.8930
35606SOL     OW13675   6.316  11.537   2.639  0.7061  0.2235  0.5528
35606SOL    HW113676   6.367  11.597   2.584  0.1606 -0.5403 -0.8162
35606SOL    HW213677   6.230  11.578   2.645  0.0751 -0.7733 -1.0767
35607SOL     OW13678  12.497   1.975   2.821 -0.1498 -0.3857  0.2782
35607SOL    HW113679  12.579   1.943   2.860 -0.4643 -1.5428  0.0451
35607SOL    HW213680  12.456   1.896   2.784 -0.8026  0.3677 -0.6494
35608SOL     OW13681  10.341   2.747   7.627 -0.1092  0.0558  0.3236
35608SOL    HW113682  10.252   2.781   7.616  0.6529  1.7208 -1.5061
35608SOL    HW213683  10.355   2.692   7.550  0.5116  0.0107  0.4632
35609SOL     OW13684   1.877  12.346  12.268  0.1536 -0.1223  0.3011
35609SOL    HW113685   1.908  12.397  12.344  2.0384  0.7381 -0.9577
35609SOL    HW213686   1.898  12.256  12.290  1.7606  0.2337  0.3912
35610SOL     OW13687   2.743   5.229   4.322  0.2297  0.1638  0.4807
35610SOL    HW113688   2.743   5.141   4.284  0.1162  0.0055  0.8353
35610SOL    HW213689   2.742   5.288   4.247  2.4380 -0.1053  0.1746
35611SOL     OW13690   6.966   4.598   3.714 -0.3615  0.1594  0.0676
35611SOL    HW113691   7.012   4.618   3.633  0.0013 -1.4978 -0.1699
35611SOL    HW213692   7.025   4.628   3.783 -0.4597  1.1366 -0.2655
35612SOL     OW13693   2.060   2.292   6.387 -0.9272 -0.9610 -0.5668
35612SOL    HW113694   1.990   2.274   6.450 -1.7694  0.6623 -0.9873
35612SOL    HW213695   2.019   2.347   6.321  0.8372  0.3804 -0.6215
35613SOL     OW13696   3.853   6.813  10.086  0.1043  0.3738 -0.0915
35613SOL    HW113697   3.916   6.884  10.075  1.5993 -0.9768 -0.6184
35613SOL    HW213698   3.840   6.778   9.998 -1.2836  0.5190  0.0304
35614SOL     OW13699   9.707  10.034  10.053 -0.9180  0.0074  0.4804
35614SOL    HW113700   9.777  10.041   9.988  0.6952  2.5359  2.2917
35614SOL    HW213701   9.643  10.101  10.027 -0.9012  0.1320  0.7479
35615SOL     OW13702   0.099   3.487  11.012 -0.1580 -0.0237  0.2892
35615SOL    HW113703   0.082   3.467  10.920  0.8393 -2.4155  0.5434
35615SOL    HW213704   0.178   3.540  11.011  1.0590 -1.7456 -0.2253
35616SOL     OW13705  12.047   0.487   0.477 -0.0358  0.1200 -0.1138
35616SOL    HW113706  12.106   0.443   0.416 -0.4954 -1.0562  0.2536
35616SOL    HW213707  11.979   0.525   0.421  0.1605  0.0316 -0.4174
35617SOL     OW13708   1.846  12.336   1.310  0.5490  0.2337  0.3288
35617SOL    HW113709   1.809  12.252   1.284 -0.7955  1.1250 -0.7845
35617SOL    HW213710   1.805  12.354   1.395  0.0627  0.2228  0.1002
35618SOL     OW13711  11.890   6.559   5.235 -0.0992  0.1131  0.2476
35618SOL    HW113712  11.921   6.640   5.194  0.7774  0.0231  0.6856
35618SOL    HW213713  11.896   6.577   5.329 -2.7277  0.5672  0.3866
35619SOL     OW13714   8.481   3.238   7.203  0.2704  0.2587  0.1380
35619SOL    HW113715   8.467   3.143   7.204  1.7788  0.0040  0.3142
35619SOL    HW213716   8.563   3.249   7.154  1.1052  1.3179  1.6932
35620SOL     OW13717   9.554   6.816  11.056 -0.6794  0.0723  0.1030
35620SOL    HW113718   9.608   6.891  11.031  2.0024 -2.5508 -2.9276
35620SOL    HW213719   9.471   6.829  11.010  1.3523 -0.7392 -4.2930
35621SOL     OW13720   2.038   4.161   1.791 -0.2129 -0.6060  0.2928
35621SOL    HW113721   2.063   4.246   1.825  1.9352 -1.2867  0.5380
35621SOL    HW213722   2.086   4.152   1.709 -0.2885 -1.6400  0.3422
35622SOL     OW13723   6.490   5.904   6.375 -0.0312  0.0276 -0.0070
35622SOL    HW113724   6.563   5.961   6.399 -1.0052  1.5032 -0.4403
35622SOL    HW213725   6.415   5.939   6.423 -0.9040 -0.1699 -1.1686
35623SOL     OW13726   3.946   3.015   4.682  0.2873  0.4154 -0.2239
35623SOL    HW113727   3.887   2.939   4.685 -0.1836  0.7353 -1.0326
35623SOL    HW213728   3.913   3.074   4.749  0.7535 -0.1594  0.5204
35624SOL     OW13729   0.008   9.531   0.421 -0.2051  0.1791 -0.5110
35624SOL    HW113730  -0.072   9.574   0.449 -0.7108 -0.3366 -1.1154
35624SOL    HW213731  -0.012   9.437   0.425  0.4176  0.0409 -0.5171
35625SOL     OW13732   0.719   9.443   9.804 -0.2808  0.3524  0.1603
35625SOL    HW113733   0.749   9.489   9.725  1.4719  1.8093  1.5865
35625SOL    HW213734   0.644   9.494   9.834  0.6109  1.3498  0.7853
35626SOL     OW13735   4.641   8.376   8.560 -0.8130 -0.1308 -0.3650
35626SOL    HW113736   4.719   8.410   8.603 -1.4848  0.2548  0.5815
35626SOL    HW213737   4.595   8.327   8.629 -0.9971 -1.0684 -1.1188
35627SOL     OW13738   5.705   6.373   7.056 -0.2644 -0.3328  0.3510
35627SOL    HW113739   5.778   6.396   7.113  0.7406 -1.0652 -0.5896
35627SOL    HW213740   5.711   6.278   7.047 -0.4900 -0.2543 -0.8324
35628SOL     OW13741   3.573   7.463   1.690 -0.3868 -0.0057  0.3178
35628SOL    HW113742   3.547   7.507   1.610  1.3069 -1.1409 -0.9176
35628SOL    HW213743   3.662   7.493   1.706 -0.8213  0.4935  2.0311
35629SOL     OW13744   1.339   8.991   7.969 -0.7476  0.2716 -0.4573
35629SOL    HW113745   1.259   8.939   7.964 -0.6907  0.2003 -0.6384
35629SOL    HW213746   1.350   9.011   8.062 -0.0333 -1.1815 -0.2036
35630SOL     OW13747   2.928   9.120   1.327  0.0574  0.0760 -0.6861
35630SOL    HW113748   2.984   9.160   1.394 -0.7784 -0.8307  0.6121
35630SOL    HW213749   2.956   9.028   1.324 -1.1387 -0.3317 -0.1970
35631SOL     OW13750   2.003  10.854  11.552  0.1582 -0.5480  0.0757
35631SOL    HW113751   1.962  10.788  11.495 -0.9568 -1.7207  2.1133
35631SOL    HW213752   1.930  10.904  11.588  0.9355  1.1208 -0.5808
35632SOL     OW13753   6.801  11.756   1.733  0.0903 -0.0439  0.3323
35632SOL    HW113754   6.726  11.763   1.674  0.2263 -2.7996 -0.3317
35632SOL    HW213755   6.764  11.725   1.816  0.2989  0.1790  0.5082
35633SOL     OW13756   7.279  10.565   3.612  0.0376 -0.5113  0.0989
35633SOL    HW113757   7.335  10.570   3.689 -0.8986  2.1122  0.7225
35633SOL    HW213758   7.268  10.656   3.584  1.5250 -1.3928 -4.0931
35634SOL     OW13759   9.706   5.871  10.301  0.6552  0.3950 -0.6430
35634SOL    HW113760   9.700   5.956  10.257  0.3698  0.1209 -1.1488
35634SOL    HW213761   9.720   5.892  10.393 -1.0324  1.0374 -0.4989
35635SOL     OW13762   0.985   0.737   1.900 -0.1069  0.1025  0.2155
35635SOL    HW113763   1.002   0.647   1.924 -1.3032  0.1598  1.3804
35635SOL    HW213764   1.043   0.789   1.955 -2.3624  0.1978  2.7382
35636SOL     OW13765   1.344  11.578   5.237 -0.0566 -0.1633 -0.2531
35636SOL    HW113766   1.378  11.555   5.151  0.1318  1.5704 -0.6836
35636SOL    HW213767   1.309  11.666   5.226  0.0951  0.1516  1.4762
35637SOL     OW13768   2.465   0.770   5.537  0.0374  0.6694  0.2205
35637SOL    HW113769   2.476   0.821   5.617 -0.6244  1.0316  0.0836
35637SOL    HW213770   2.554   0.760   5.503  0.4107 -0.1248  1.3846
35638SOL     OW13771   9.580   1.248   7.089 -0.2121 -0.4883  0.6746
35638SOL    HW113772   9.532   1.168   7.068 -4.2713  1.8245  0.0945
35638SOL    HW213773   9.644   1.257   7.018 -1.5581 -1.8478 -0.8063
35639SOL     OW13774   5.721  10.082   6.219 -0.6081 -0.5465  0.0597
35639SOL    HW113775   5.705   9.989   6.237 -0.2604 -1.1874 -2.5249
35639SOL    HW213776   5.721  10.088   6.123  1.0035  1.8484  0.1308
35640SOL     OW13777  12.499   7.782   2.993 -0.1286 -0.3516 -0.8107
35640SOL    HW113778  12.455   7.864   3.014  1.6557  0.7749 -1.2972
35640SOL    HW213779  12.432   7.729   2.950 -1.9287 -0.0604  1.4706
35641SOL     OW13780   5.678   8.529   9.328  0.8422 -0.5185  0.0412
35641SOL    HW113781   5.639   8.614   9.307  0.3150 -0.2222  2.0634
35641SOL    HW213782   5.604   8.468   9.326  1.1640 -0.9039 -1.0594
35642SOL     OW13783   2.341   8.350   8.704  0.3551  0.4963 -0.1488
35642SOL    HW113784   2.291   8.277   8.667 -0.4777  1.0879 -0.2469
35642SOL    HW213785   2.304   8.428   8.661 -0.2328  1.1587  1.4761
35643SOL     OW13786   1.346   5.149   0.251  0.1892 -0.0441 -0.2981
35643SOL    HW113787   1.363   5.242   0.264  1.0463 -0.4820  2.3485
35643SOL    HW213788   1.403   5.124   0.179 -0.3864  1.5297 -1.3590
35644SOL     OW13789   2.496  11.748   7.099 -0.2221 -0.0588  0.2553
35644SOL    HW113790   2.497  11.827   7.044  0.9472  0.3601  0.8505
35644SOL    HW213791   2.500  11.781   7.189  2.0246 -0.7983  0.4861
35645SOL     OW13792   2.062  10.276   0.896  0.3594  0.0405  0.0050
35645SOL    HW113793   2.123  10.272   0.970 -0.3714  0.1298  0.6297
35645SOL    HW213794   2.117  10.297   0.821  1.0454  0.5096  0.6205
35646SOL     OW13795   4.312   0.644  10.392  0.0192  0.1241 -0.2118
35646SOL    HW113796   4.283   0.691  10.314  0.1548  0.0996 -0.2775
35646SOL    HW213797   4.397   0.608  10.367 -0.2111 -0.4037 -0.2624
35647SOL     OW13798   9.414   5.789   7.818 -0.3047  0.0087 -0.1702
35647SOL    HW113799   9.440   5.863   7.873  0.9128  0.0774 -0.8138
35647SOL    HW213800   9.318   5.794   7.817 -0.2614  2.6008 -1.4929
35648SOL     OW13801   3.652  11.541   0.785 -0.1418 -0.3060 -1.0139
35648SOL    HW113802   3.659  11.504   0.697 -2.1513 -0.0330 -1.3399
35648SOL    HW213803   3.740  11.533   0.822  0.8647 -0.0247 -3.1970
35649SOL     OW13804   6.159   3.664   7.671 -0.2517 -0.9169 -0.0548
35649SOL    HW113805   6.134   3.739   7.617 -0.3246 -0.3269  0.7891
35649SOL    HW213806   6.077   3.634   7.710 -0.0425 -0.6494  0.6028
35650SOL     OW13807   5.128  11.435   3.669 -0.0874 -0.0408  0.4508
35650SOL    HW113808   5.216  11.454   3.703 -0.1479 -1.5164  1.5071
35650SOL    HW213809   5.075  11.420   3.747 -1.4097  1.2261 -0.1635
35651SOL     OW13810   5.108   8.583   0.798  0.1134 -0.5254 -0.0009
35651SOL    HW113811   5.055   8.598   0.876 -0.4929 -1.2007 -0.2656
35651SOL    HW213812   5.044   8.558   0.731  0.5512  0.6194 -0.8788
35652SOL     OW13813  10.910   8.428   6.046  0.1473  0.0465 -0.5286
35652SOL    HW113814  10.851   8.359   6.078 -0.3880  1.5567  2.0033
35652SOL    HW213815  10.907   8.495   6.114  2.4226  1.5722 -1.8252
35653SOL     OW13816   6.837   2.373  11.068 -0.2525 -0.4706  0.1661
35653SOL    HW113817   6.835   2.331  11.154 -1.7919 -2.2695 -0.6625
35653SOL    HW213818   6.929   2.396  11.054  0.3629 -2.0062  1.4369
35654SOL     OW13819  11.543   5.490   2.320  0.1264  0.7367  0.1563
35654SOL    HW113820  11.475   5.435   2.359 -0.4867  0.5581 -1.1272
35654SOL    HW213821  11.581   5.537   2.394  0.8209 -1.5417  1.3682
35655SOL     OW13822   6.506   9.304   5.365  0.2922 -0.7489 -0.1826
35655SOL    HW113823   6.544   9.236   5.309 -1.2821 -2.1543  0.3615
35655SOL    HW213824   6.463   9.255   5.435 -3.3504  0.5937 -1.2520
35656SOL     OW13825   2.354   5.248   4.450  0.2959 -0.3891  0.3713
35656SOL    HW113826   2.431   5.232   4.504  1.4000  1.2899 -0.6285
35656SOL    HW213827   2.310   5.163   4.446  2.0690 -1.3935  0.9957
35657SOL     OW13828   3.597   2.874   8.482  0.0605  0.4549 -0.1361
35657SOL    HW113829   3.552   2.943   8.433  0.2316  1.7919  1.5221
35657SOL    HW213830   3.529   2.808   8.497 -0.9045  1.6008  0.7494
35658SOL     OW13831   5.140   9.628   7.447 -0.0380 -0.4066 -0.0239
35658SOL    HW113832   5.135   9.632   7.543  2.7022 -1.7660  0.2663
35658SOL    HW213833   5.213   9.685   7.424  0.7975 -1.8504 -1.0695
35659SOL     OW13834   8.907   4.482   8.559 -0.2847 -0.5151 -0.5576
35659SOL    HW113835   8.957   4.497   8.639 -0.1178  1.5617 -0.9821
35659SOL    HW213836   8.821   4.452   8.589  0.2515 -1.2095  0.3148
35660SOL     OW13837   2.106  10.691   1.751 -0.5149 -0.3295  0.5204
35660SOL    HW113838   2.126  10.731   1.836 -0.0922  1.2222 -0.2649
35660SOL    HW213839   2.010  10.689   1.748 -0.5317 -1.2410  1.4000
35661SOL     OW13840   0.278   9.244   0.351  0.0053 -0.3167 -0.5033
35661SOL    HW113841   0.189   9.242   0.385  0.0389  0.9551 -0.3237
35661SOL    HW213842   0.275   9.186   0.274 -1.2195  0.4855 -1.0778
35662SOL     OW13843   8.781  11.341   4.998  0.2239 -0.6429 -0.8309
35662SOL    HW113844   8.744  11.425   5.023 -1.0677 -1.1094 -1.1083
35662SOL    HW213845   8.848  11.323   5.065 -1.2837 -0.6064  0.7508
35663SOL     OW13846   3.259   7.418   7.544 -0.1229  0.1587  0.2672
35663SOL    HW113847   3.340   7.418   7.595 -0.8722  0.3497  1.5007
35663SOL    HW213848   3.277   7.474   7.469  1.4147 -1.1280 -0.3832
35664SOL     OW13849   7.906   7.335   3.934 -0.0463 -0.3255  0.0309
35664SOL    HW113850   7.878   7.323   4.024 -0.1879 -0.6782 -0.0617
35664SOL    HW213851   7.940   7.425   3.931  0.3200 -0.4470  0.5284
35665SOL     OW13852   1.804  10.775  12.439  0.5854 -0.2100  0.2551
35665SOL    HW113853   1.824  10.696  12.390  0.9499  0.9460 -1.5443
35665SOL    HW213854   1.740  10.822  12.386 -0.4883  0.2039  1.8280
35666SOL     OW13855   3.846  10.930  12.049 -0.2353  0.3172  0.1426
35666SOL    HW113856   3.800  11.013  12.062  2.2618  1.6962  0.6658
35666SOL    HW213857   3.823  10.904  11.960 -0.6702  1.8271 -0.2167
35667SOL     OW13858  10.952  11.298   1.990 -0.0020 -0.3289 -0.3156
35667SOL    HW113859  10.967  11.269   2.080 -0.5675  0.6157  0.0968
35667SOL    HW213860  11.011  11.373   1.979  0.0193 -0.3999 -0.7135
35668SOL     OW13861  10.499   1.300   9.474 -0.3531  0.0236  0.1422
35668SOL    HW113862  10.465   1.225   9.522  2.2616 -0.9279  0.6874
35668SOL    HW213863  10.522   1.265   9.388  1.2262  0.0545  0.5214
35669SOL     OW13864   6.113  12.124   4.738 -0.0260 -0.2927  0.6704
35669SOL    HW113865   6.129  12.213   4.707  2.7453 -1.1336 -0.6238
35669SOL    HW213866   6.113  12.130   4.833 -0.6262  1.1753  0.5948
35670SOL     OW13867  12.202   0.263   6.953 -0.2996 -0.3983 -0.1866
35670SOL    HW113868  12.245   0.179   6.966  0.1916  0.0467  1.3064
35670SOL    HW213869  12.241   0.298   6.873  2.1770 -0.0342  1.0817
35671SOL     OW13870  11.430   4.450   7.259  0.2510  0.2927 -0.2959
35671SOL    HW113871  11.496   4.391   7.223  0.4289  0.6246 -0.5230
35671SOL    HW213872  11.351   4.397   7.265  0.7290 -0.3333  0.7161
35672SOL     OW13873   4.006   9.219   7.609 -0.2480  0.2152 -0.1981
35672SOL    HW113874   3.960   9.262   7.681 -1.3326 -1.7436  0.3596
35672SOL    HW213875   3.954   9.141   7.590  2.1707 -1.4704 -0.4101
35673SOL     OW13876   6.654  10.596   2.949 -0.1458  0.6303 -0.4474
35673SOL    HW113877   6.633  10.518   3.000  0.7134  0.7155  0.0736
35673SOL    HW213878   6.745  10.583   2.922  0.8043  2.3946  1.5385
35674SOL     OW13879   4.963   0.684   5.662  0.6869 -0.1870 -0.5536
35674SOL    HW113880   5.042   0.704   5.711 -0.0428  0.1675  0.5195
35674SOL    HW213881   4.900   0.657   5.729 -1.2615  3.0954 -0.8357
35675SOL     OW13882   3.031   3.395   8.381  0.1771 -0.2986  0.6145
35675SOL    HW113883   3.092   3.448   8.432 -0.0861 -0.8727  1.5442
35675SOL    HW213884   2.944   3.425   8.409  0.0143  0.5893 -0.7764
35676SOL     OW13885   3.269   4.026  11.544  0.3088 -0.2317  0.1713
35676SOL    HW113886   3.320   4.005  11.465  0.5950  0.6765  0.0955
35676SOL    HW213887   3.306   4.109  11.574  0.2393 -0.6007  1.3076
35677SOL     OW13888  11.805   1.798   2.849 -0.0047  0.2508 -0.4482
35677SOL    HW113889  11.756   1.854   2.789  0.9038  1.4400 -0.1097
35677SOL    HW213890  11.752   1.797   2.929  0.4270  1.4198 -0.1280
35678SOL     OW13891  12.081   6.867   1.922 -0.9140 -0.3044  0.3056
35678SOL    HW113892  12.161   6.916   1.941 -1.5792  0.4755  1.1873
35678SOL    HW213893  12.081   6.855   1.827  1.2311 -2.0252  0.4518
35679SOL     OW13894   6.054  11.253   4.193 -0.5138 -0.1695 -0.0928
35679SOL    HW113895   6.031  11.160   4.194 -0.1238 -0.2686 -0.0952
35679SOL    HW213896   6.058  11.276   4.101  1.0461 -0.5792 -0.1608
35680SOL     OW13897   1.535   4.607   4.815  0.3705  0.5132 -0.0831
35680SOL    HW113898   1.442   4.590   4.803  0.6822 -0.3262 -1.5171
35680SOL    HW213899   1.557   4.560   4.896 -0.4879  0.9834  0.4453
35681SOL     OW13900   2.387  10.057   4.723  0.2472 -0.4430 -0.6204
35681SOL    HW113901   2.355  10.112   4.794 -0.2714  0.4350 -1.4967
35681SOL    HW213902   2.365   9.968   4.750 -0.7872 -0.0524 -0.0970
35682SOL     OW13903   6.395   5.053   6.475  0.1352  0.0650 -0.1060
35682SOL    HW113904   6.474   5.000   6.488 -0.6591 -0.5384  3.1103
35682SOL    HW213905   6.422   5.142   6.497  0.0424 -0.0518  0.4807
35683SOL     OW13906   6.476  11.311   7.657 -0.3951  0.1697 -0.1535
35683SOL    HW113907   6.435  11.228   7.678  0.4950 -0.5428 -1.1300
35683SOL    HW213908   6.405  11.366   7.622 -0.7845 -0.5534 -0.5069
35684SOL     OW13909   4.346   7.787   0.330  0.7985  0.8090 -0.0584
35684SOL    HW113910   4.254   7.773   0.350  0.6745  1.8673  0.1888
35684SOL    HW213911   4.353   7.881   0.314  1.8960  0.7992  0.2494
35685SOL     OW13912   3.880   8.749   1.454  0.1220 -0.0674 -0.0903
35685SOL    HW113913   3.952   8.689   1.472  0.2665 -0.4160 -1.6763
35685SOL    HW213914   3.898   8.783   1.366 -1.1563  0.5666 -0.1406
35686SOL     OW13915  11.127   4.957   1.512 -0.4726 -0.4521  0.2331
35686SOL    HW113916  11.158   4.881   1.561 -1.1795 -1.7976 -1.2949
35686SOL    HW213917  11.035   4.967   1.539 -0.4288 -0.2484  0.3065
35687SOL     OW13918   7.037   0.047   0.626 -0.0479  0.3532 -0.0356
35687SOL    HW113919   7.027   0.035   0.532  1.7256 -1.9086 -0.0369
35687SOL    HW213920   7.001  -0.033   0.665 -2.0794  1.8472  1.3820
35688SOL     OW13921   8.012   7.368   3.011  0.3282  0.1460  0.0332
35688SOL    HW113922   8.005   7.403   2.922 -1.5052  0.9689  0.4504
35688SOL    HW213923   7.939   7.307   3.019  1.3243 -1.0222  0.5377
35689SOL     OW13924   4.774   8.671   5.535  0.1603  0.5805 -0.0125
35689SOL    HW113925   4.685   8.679   5.501 -0.1435  2.7272  1.0668
35689SOL    HW213926   4.818   8.750   5.502  1.4070 -0.0223  0.1844
35690SOL     OW13927   1.792  11.084   1.847  0.1334 -0.0702  0.1570
35690SOL    HW113928   1.698  11.099   1.842  0.3081  0.8994 -0.7612
35690SOL    HW213929   1.815  11.047   1.761  0.8865  1.7857 -0.4983
35691SOL     OW13930   1.754   0.805   7.638  0.3372  0.0220 -0.0279
35691SOL    HW113931   1.781   0.801   7.730 -0.2657 -1.0680  0.1224
35691SOL    HW213932   1.814   0.745   7.593  1.0400  1.0320 -0.4676
35692SOL     OW13933   0.646   5.134  12.074  0.1401  0.2096 -0.1401
35692SOL    HW113934   0.584   5.094  12.136 -0.4241 -1.0670 -1.4724
35692SOL    HW213935   0.724   5.078  12.080 -0.6541 -1.1981 -2.0166
35693SOL     OW13936   6.731  11.988  11.783 -0.0135  0.0486 -0.1521
35693SOL    HW113937   6.805  12.022  11.833  0.2792  0.8128 -1.0854
35693SOL    HW213938   6.756  12.001  11.691 -0.2744 -1.8715 -0.5386
35694SOL     OW13939   6.860   4.289   1.882  0.6090 -0.7298  0.6117
35694SOL    HW113940   6.934   4.305   1.941  0.3625 -0.9492  0.9808
35694SOL    HW213941   6.783   4.287   1.939  0.3738 -0.9866  0.2922
35695SOL     OW13942  11.629   0.581  11.050  0.1673  0.4336 -0.2775
35695SOL    HW113943  11.651   0.666  11.088  2.1759 -1.2783  2.7555
35695SOL    HW213944  11.703   0.560  10.993  0.4990  0.0302  0.2898
35696SOL     OW13945   2.861   6.651   7.204  0.1377  0.7213  0.2444
35696SOL    HW113946   2.857   6.656   7.299  2.3222  2.5036  0.3379
35696SOL    HW213947   2.881   6.559   7.185 -0.3604  0.3444  1.5008
35697SOL     OW13948   4.250   2.373   8.629 -0.7075 -0.1004 -0.4994
35697SOL    HW113949   4.277   2.328   8.710 -3.8634  0.7334  1.1635
35697SOL    HW213950   4.319   2.352   8.567  0.6608 -2.8489  1.6922
35698SOL     OW13951   8.209   8.290   2.554  0.8753 -0.4717  0.4075
35698SOL    HW113952   8.201   8.336   2.470  1.7214 -0.4518  0.3271
35698SOL    HW213953   8.233   8.359   2.616  2.1256 -0.7794  0.2915
35699SOL     OW13954   0.422   8.928   8.378  0.3450  0.5587  0.3764
35699SOL    HW113955   0.331   8.951   8.360  0.6575  1.3246 -0.2722
35699SOL    HW213956   0.466   9.012   8.390  0.7263  0.1628  1.9860
35700SOL     OW13957   7.665   4.522   7.026  0.7634 -0.1375  0.0268
35700SOL    HW113958   7.659   4.427   7.016  1.1116 -0.3372  1.5379
35700SOL    HW213959   7.582   4.547   7.067  1.0749  0.0747  0.5323
35701SOL     OW13960   4.663   7.316   1.105 -0.2808 -0.4002  0.3403
35701SOL    HW113961   4.575   7.307   1.144 -0.2327  0.7135  0.7449
35701SOL    HW213962   4.672   7.410   1.088  0.4297 -0.6380 -0.6858
35702SOL     OW13963   4.208   2.329   0.267 -0.1724 -0.0013  0.5055
35702SOL    HW113964   4.288   2.357   0.223 -0.9921  1.6291 -0.0612
35702SOL    HW213965   4.238   2.279   0.342  1.3651  0.3403  0.1582
35703SOL     OW13966   0.566   2.017   6.485  0.2217  0.1070  0.4691
35703SOL    HW113967   0.527   2.039   6.400  0.2988  1.3040  0.7237
35703SOL    HW213968   0.595   1.927   6.475  1.7313  0.7291 -1.3342
35704SOL     OW13969   9.235   8.249   3.953  0.0621 -0.7249  0.4160
35704SOL    HW113970   9.279   8.165   3.944  0.9928 -0.2164 -0.0391
35704SOL    HW213971   9.287   8.309   3.898 -1.8730 -0.3232 -1.1031
35705SOL     OW13972   0.448   7.003  11.852  0.0928 -0.0850  0.2996
35705SOL    HW113973   0.494   7.056  11.917  0.0363 -0.4358  0.6302
35705SOL    HW213974   0.492   7.023  11.770 -0.3844  1.0110  0.2887
35706SOL     OW13975   6.138   4.503   5.880  0.1342  0.0384 -0.2195
35706SOL    HW113976   6.174   4.461   5.959 -2.1262 -0.9833  0.3592
35706SOL    HW213977   6.092   4.580   5.913 -0.2048  0.0044 -0.6087
35707SOL     OW13978  11.452   3.654   7.702 -0.1426  0.0593 -0.1179
35707SOL    HW113979  11.479   3.745   7.717 -0.4147 -0.2112  2.4639
35707SOL    HW213980  11.530   3.603   7.723 -0.3579 -0.3695 -0.3512
35708SOL     OW13981   0.471   9.365   8.621 -0.1283 -0.1200  0.3744
35708SOL    HW113982   0.509   9.421   8.689 -0.1838  0.6596 -0.2155
35708SOL    HW213983   0.443   9.286   8.667  0.1748  0.2348  1.1865
35709SOL     OW13984   4.759   5.182   5.437  0.5418 -0.5706  0.1147
35709SOL    HW113985   4.683   5.218   5.390 -0.0399 -0.3359  1.2070
35709SOL    HW213986   4.728   5.097   5.470  1.5196 -1.5906 -1.4084
35710SOL     OW13987   3.035   1.348   2.967  0.4566 -0.1752 -0.3184
35710SOL    HW113988   3.017   1.370   2.876 -0.1456 -0.3810 -0.2523
35710SOL    HW213989   2.953   1.312   3.000  0.6423 -0.0143  0.3344
35711SOL     OW13990   4.171   8.351   5.695 -0.3325  0.5802  0.5576
35711SOL    HW113991   4.235   8.382   5.630 -0.4208  2.1801  1.1863
35711SOL    HW213992   4.217   8.284   5.744 -0.4472 -1.1242 -1.5010
35712SOL     OW13993   2.342  10.892   7.544 -0.4391  0.8501  0.2008
35712SOL    HW113994   2.247  10.898   7.558 -0.6249  1.2165 -1.0652
35712SOL    HW213995   2.353  10.908   7.451  0.7740 -0.3598  0.0990
35713SOL     OW13996   8.587   7.864  10.049  0.5361 -0.1562 -0.1925
35713SOL    HW113997   8.555   7.931  10.110  1.7266  0.2650  0.0038
35713SOL    HW213998   8.681   7.860  10.066  0.4927 -1.8612 -0.2503
35714SOL     OW13999   3.195   0.975   6.129  0.3594  0.4489 -0.1658
35714SOL    HW114000   3.197   0.928   6.212 -0.3707  0.3843 -0.1762
35714SOL    HW214001   3.284   1.007   6.116  0.6120 -0.0509  0.3494
35715SOL     OW14002   4.250  11.587   4.243  0.4372 -0.1351  0.5028
35715SOL    HW114003   4.204  11.667   4.267  1.2077  1.2919 -2.3372
35715SOL    HW214004   4.192  11.516   4.270 -0.4301  1.3367  2.7833
35716SOL     OW14005   1.333   7.380   2.883  0.5942  0.1404  0.1293
35716SOL    HW114006   1.341   7.438   2.958 -1.5664 -0.7541  1.1570
35716SOL    HW214007   1.320   7.293   2.921  0.5474 -0.5122 -1.2956
35717SOL     OW14008   8.800   0.163   2.377 -0.2373  0.0797  0.4151
35717SOL    HW114009   8.742   0.092   2.350 -0.2882 -0.3881  1.6930
35717SOL    HW214010   8.750   0.212   2.442 -0.1968  1.2904 -0.4440
35718SOL     OW14011   2.400   4.208  10.288 -0.0647 -0.0262  0.0925
35718SOL    HW114012   2.472   4.147  10.270 -0.3792 -0.5170  0.4812
35718SOL    HW214013   2.360   4.174  10.368 -1.5074 -0.4837 -0.7925
35719SOL     OW14014  10.448   7.368   9.100 -0.4096  0.1705 -0.4520
35719SOL    HW114015  10.442   7.274   9.086  0.1507  0.2926 -1.6684
35719SOL    HW214016  10.537   7.390   9.071 -0.0681  0.8810  1.0417
35720SOL     OW14017   0.255   5.655   0.289  0.1515 -0.0131  0.2616
35720SOL    HW114018   0.260   5.694   0.202 -0.0875 -2.6298 -1.0234
35720SOL    HW214019   0.341   5.669   0.327  0.8374 -0.3569 -1.1168
35721SOL     OW14020   6.274   5.262   8.662  0.3570  0.2371 -0.4877
35721SOL    HW114021   6.356   5.303   8.635  0.7444 -1.0851 -1.4235
35721SOL    HW214022   6.296   5.170   8.677 -0.3660  0.4069  2.0914
35722SOL     OW14023   1.401  12.030  10.252  0.2146  0.1582  0.3696
35722SOL    HW114024   1.487  12.035  10.292  0.5470  0.4884 -0.3587
35722SOL    HW214025   1.419  12.023  10.158 -0.5214 -1.1438  0.2951
35723SOL     OW14026   5.431   3.050   2.735 -0.2023  0.5470 -0.3865
35723SOL    HW114027   5.495   3.091   2.677  2.7224 -2.6115  0.2852
35723SOL    HW214028   5.383   2.989   2.680 -0.4445  0.6480 -0.2901
35724SOL     OW14029  12.428   9.220   8.889 -0.2575 -0.4798  0.5981
35724SOL    HW114030  12.349   9.265   8.859  0.0908  0.6406  1.2816
35724SOL    HW214031  12.445   9.257   8.976  1.7748  0.3167 -0.0763
35725SOL     OW14032   8.232   0.739   8.538  0.7886  0.4856 -0.3098
35725SOL    HW114033   8.219   0.646   8.521 -0.5299  0.7625 -0.9219
35725SOL    HW214034   8.238   0.746   8.634 -1.5149  0.0197 -0.0779
35726SOL     OW14035  12.517   8.130   5.482  0.5698  0.3555  0.3996
35726SOL    HW114036  12.524   8.194   5.553  0.3059 -0.0312  0.7829
35726SOL    HW214037  12.428   8.095   5.490 -0.2566  1.8536 -1.4881
35727SOL     OW14038   5.690   0.440   0.586 -0.1519  0.1953  0.1129
35727SOL    HW114039   5.758   0.383   0.619 -0.5441 -0.0799  0.4466
35727SOL    HW214040   5.726   0.528   0.594  0.1636  0.0492  0.2866
35728SOL     OW14041  10.260   5.605   7.564 -0.0508 -0.5911 -0.5102
35728SOL    HW114042  10.302   5.524   7.593  0.2444 -0.1381  0.3800
35728SOL    HW214043  10.167   5.585   7.562 -0.0752 -0.6912  0.6612
35729SOL     OW14044   2.073   0.242   3.987 -0.2507 -0.0165 -0.4323
35729SOL    HW114045   2.011   0.299   4.032 -1.3521 -0.2026 -1.6640
35729SOL    HW214046   2.074   0.275   3.896  0.3106 -0.9523 -0.7775
35730SOL     OW14047  11.198   2.830   5.407  0.2476 -0.2138 -0.4140
35730SOL    HW114048  11.228   2.793   5.324 -1.2479  0.2895 -1.2139
35730SOL    HW214049  11.136   2.898   5.382  0.7502  0.8534  1.1027
35731SOL     OW14050   5.201   0.401  10.860 -1.0904  0.8675 -0.5419
35731SOL    HW114051   5.258   0.401  10.783  2.9398 -2.3574  1.9707
35731SOL    HW214052   5.211   0.489  10.897  1.1080  0.9428 -1.1309
35732SOL     OW14053   1.115   3.228   9.756 -0.4232 -0.4065  0.1510
35732SOL    HW114054   1.096   3.145   9.800  1.4378 -0.4999  0.8742
35732SOL    HW214055   1.070   3.222   9.672 -2.1461 -1.1958  1.0781
35733SOL     OW14056   8.046   0.057  10.575  0.4485 -0.7117 -0.1663
35733SOL    HW114057   8.109  -0.012  10.554 -0.3429 -1.9175  1.2491
35733SOL    HW214058   7.994   0.021  10.647 -0.9918  0.7672 -0.4095
35734SOL     OW14059   7.893   6.526   1.040  0.1177 -0.4520 -0.2552
35734SOL    HW114060   7.973   6.547   0.992 -0.6161 -0.2332 -1.4099
35734SOL    HW214061   7.912   6.552   1.131  1.0055  0.4893 -0.6882
35735SOL     OW14062   2.043   5.335  11.768  0.2327 -0.4801  0.2385
35735SOL    HW114063   2.038   5.372  11.681 -0.4726 -3.0156 -0.8922
35735SOL    HW214064   1.972   5.271  11.772  2.0322 -2.5673  1.5496
35736SOL     OW14065   6.825  11.187   2.586  0.4507  0.5960  0.3675
35736SOL    HW114066   6.747  11.186   2.641  0.4033 -0.2907  0.3096
35736SOL    HW214067   6.793  11.205   2.498  0.3149  0.2771  0.3508
35737SOL     OW14068   1.514   6.986   9.219 -0.5719  0.3258 -0.2032
35737SOL    HW114069   1.514   7.043   9.141  0.7339  2.4736  1.2735
35737SOL    HW214070   1.421   6.980   9.243 -1.2044 -1.6275 -2.6894
35738SOL     OW14071   8.084   3.916   3.913 -0.1684  0.0185  0.6620
35738SOL    HW114072   8.040   3.980   3.968 -0.7861  0.3612 -0.2142
35738SOL    HW214073   8.121   3.853   3.975 -0.0824  0.8737  1.5025
35739SOL     OW14074  10.563   9.989  12.398 -0.2226 -0.7782 -0.0788
35739SOL    HW114075  10.631   9.974  12.464  0.6584  0.2750 -0.7128
35739SOL    HW214076  10.606  10.041  12.331 -1.5502 -0.4636 -0.7150
35740SOL     OW14077   3.615   9.109   5.978  0.0286  0.2963 -0.0916
35740SOL    HW114078   3.587   9.034   5.925  0.1716  0.0760  0.1431
35740SOL    HW214079   3.651   9.070   6.057 -0.5453  0.6376  0.3402
35741SOL     OW14080   8.498   5.882   6.338  0.5732 -0.0508 -0.5568
35741SOL    HW114081   8.554   5.822   6.289  1.6206  0.3371  0.1507
35741SOL    HW214082   8.492   5.843   6.426 -2.7207 -1.6941 -1.3548
35742SOL     OW14083   6.750   5.710   3.560  0.5947 -0.0588 -0.4940
35742SOL    HW114084   6.690   5.759   3.616  2.6727 -0.6055  2.4099
35742SOL    HW214085   6.787   5.777   3.501  0.9882  1.3093  1.2142
35743SOL     OW14086   4.863   3.102   5.287  0.0074 -0.1075  0.3578
35743SOL    HW114087   4.897   3.136   5.370 -0.7609 -1.5242  1.2887
35743SOL    HW214088   4.831   3.014   5.308  0.9999 -1.0281 -1.7381
35744SOL     OW14089   5.978   3.019   0.906 -0.0850 -0.1456 -0.2152
35744SOL    HW114090   5.923   3.049   0.834 -0.6997 -0.9418 -0.0909
35744SOL    HW214091   5.977   3.092   0.969  0.2173  0.4318 -0.8626
35745SOL     OW14092   6.602   3.097   0.335  0.0731 -0.2842 -0.6468
35745SOL    HW114093   6.592   3.190   0.313  0.4696  0.1556  0.9550
35745SOL    HW214094   6.687   3.090   0.379  0.3936 -1.5480 -1.3956
35746SOL     OW14095   4.466   8.687   2.749  0.1429 -0.0951  0.4498
35746SOL    HW114096   4.491   8.762   2.696 -0.7018 -0.2060 -0.1155
35746SOL    HW214097   4.524   8.617   2.720  0.1017  0.0106  0.1129
35747SOL     OW14098   9.704   9.472  11.554 -0.3819  0.3752  0.2646
35747SOL    HW114099   9.700   9.493  11.460  0.6922 -0.3607  0.0330
35747SOL    HW214100   9.798   9.469  11.573 -0.5719  2.1077  1.7584
35748SOL     OW14101   6.123   1.358   2.252 -0.6439 -0.5639 -0.1624
35748SOL    HW114102   6.117   1.400   2.166 -1.2799  0.7237  0.4954
35748SOL    HW214103   6.149   1.267   2.232 -2.1643 -0.6838 -1.8046
35749SOL     OW14104   1.993   0.011   3.670  0.3792 -0.4273  0.1347
35749SOL    HW114105   1.994  -0.001   3.575  1.9456 -0.8609  0.1754
35749SOL    HW214106   2.014   0.103   3.683 -3.4083  0.5965  0.0293
35750SOL     OW14107   8.660  11.588  10.211 -0.3235  0.0643 -0.2224
35750SOL    HW114108   8.708  11.604  10.130  2.3762 -0.9721  1.0707
35750SOL    HW214109   8.667  11.670  10.260 -0.6412  0.1911 -0.3848
35751SOL     OW14110   2.121   8.045   5.135 -0.3646 -0.0631  0.1642
35751SOL    HW114111   2.193   8.102   5.110 -2.2605  1.5806 -2.0107
35751SOL    HW214112   2.042   8.097   5.118 -2.1560 -2.7280 -0.2774
35752SOL     OW14113  10.342  12.182  10.314  0.4170  0.1525 -0.2834
35752SOL    HW114114  10.376  12.101  10.353 -1.0492 -0.0680  0.6256
35752SOL    HW214115  10.282  12.152  10.245 -0.7920  0.4118  0.6248
35753SOL     OW14116  10.826   1.080   4.992  0.4836  0.5978 -0.2453
35753SOL    HW114117  10.902   1.139   4.998  1.7021 -1.0394  2.2906
35753SOL    HW214118  10.856   1.009   4.934  1.5369 -0.7392  1.7960
35754SOL     OW14119  10.651  12.439   0.806 -0.1485  0.4279  0.5627
35754SOL    HW114120  10.653  12.530   0.777  2.6535  0.9093  1.8658
35754SOL    HW214121  10.575  12.433   0.864 -1.2957  1.4633 -0.7805
35755SOL     OW14122   6.277  10.109   5.020  0.2291  0.1190 -0.0489
35755SOL    HW114123   6.323  10.034   5.059 -0.5964  0.1003  0.9244
35755SOL    HW214124   6.229  10.071   4.946  0.7750 -0.0890 -0.3001
35756SOL     OW14125   8.226  12.502  11.570  0.1386  0.5447 -0.3074
35756SOL    HW114126   8.159  12.555  11.527  0.1917  0.2333 -0.7811
35756SOL    HW214127   8.244  12.431  11.508  2.5277  1.8120 -1.1808
35757SOL     OW14128   2.729   7.574  12.289 -0.4612 -0.3551  0.4779
35757SOL    HW114129   2.723   7.583  12.194  0.6500 -0.9609  0.3409
35757SOL    HW214130   2.709   7.662  12.322  1.9675  0.6217 -0.4591
35758SOL     OW14131  11.654   0.467   0.838 -0.2364  0.1758  0.5439
35758SOL    HW114132  11.734   0.452   0.888 -0.1497 -0.1037  0.3212
35758SOL    HW214133  11.611   0.381   0.835  0.2164 -0.0244 -0.6569
35759SOL     OW14134   5.688  12.343   0.319 -0.3347 -0.0614  0.0414
35759SOL    HW114135   5.761  12.282   0.308 -1.0307 -0.7620 -0.8557
35759SOL    HW214136   5.722  12.411   0.377  1.2169 -0.0688 -0.8024
35760SOL     OW14137   5.518   4.332   1.393 -0.2763 -0.0689 -0.0748
35760SOL    HW114138   5.529   4.345   1.299  0.0407 -0.4053 -0.0853
35760SOL    HW214139   5.448   4.393   1.417 -0.8080 -0.4437 -0.6375
35761SOL     OW14140   1.632   5.839   4.749  0.1977 -0.8158 -0.2687
35761SOL    HW114141   1.555   5.890   4.775 -0.3411 -1.6629 -0.1416
35761SOL    HW214142   1.614   5.751   4.781  0.9828 -1.1504 -0.7196
35762SOL     OW14143   5.668   6.678   8.037 -0.9025  0.0348 -0.1034
35762SOL    HW114144   5.738   6.716   8.091 -0.0093 -0.9637 -0.5213
35762SOL    HW214145   5.690   6.705   7.948 -0.8540 -0.5596 -0.2742
35763SOL     OW14146   6.560  10.598   6.006  0.2540  0.1287 -0.9604
35763SOL    HW114147   6.474  10.557   6.001 -0.1900  0.9972 -0.6958
35763SOL    HW214148   6.588  10.582   6.096 -0.5806  1.6409 -0.3898
35764SOL     OW14149   4.818   4.934   6.437 -0.2923  0.2236 -0.0637
35764SOL    HW114150   4.762   4.889   6.500 -0.4373  1.0573  0.4094
35764SOL    HW214151   4.791   4.899   6.352 -1.6368  0.7230  0.1412
35765SOL     OW14152  12.365   4.526   9.937 -0.2742 -0.0104 -0.1142
35765SOL    HW114153  12.298   4.462   9.913 -0.5190  0.2835 -0.2192
35765SOL    HW214154  12.403   4.491  10.018 -0.9857  0.1330  0.2898
35766SOL     OW14155   8.841   8.544  12.020 -0.4782  0.3378  0.1054
35766SOL    HW114156   8.815   8.636  12.032  0.3270  0.7502 -1.0960
35766SOL    HW214157   8.795   8.497  12.090 -3.7907  1.1116 -1.3164
35767SOL     OW14158   6.920   8.688   8.426 -0.0429 -0.1609 -0.2012
35767SOL    HW114159   6.843   8.740   8.408  1.2187  2.5252  1.5631
35767SOL    HW214160   6.952   8.719   8.511  2.1240 -2.2382 -0.1255
35768SOL     OW14161   7.417   6.463   3.223  0.3150  0.0585  0.3247
35768SOL    HW114162   7.337   6.411   3.235  0.5844 -0.2074  0.9995
35768SOL    HW214163   7.484   6.398   3.199 -0.0985  0.5038 -2.3336
35769SOL     OW14164  10.245   8.218   8.689 -0.5646  0.4561 -0.1009
35769SOL    HW114165  10.291   8.302   8.699  0.4246 -0.1969  1.0813
35769SOL    HW214166  10.220   8.216   8.596  2.6890  0.4178 -1.1094
35770SOL     OW14167   5.018   1.062   3.792 -0.1080  0.0941  0.0493
35770SOL    HW114168   4.931   1.091   3.766  0.7393  1.6292 -1.2887
35770SOL    HW214169   5.008   0.969   3.811 -1.9995  0.2148 -0.1914
35771SOL     OW14170   0.211   3.140   2.440  0.0124 -0.6862 -0.1767
35771SOL    HW114171   0.250   3.079   2.502 -0.5953 -2.2727 -1.2986
35771SOL    HW214172   0.278   3.207   2.426  0.4896 -0.7939  1.4784
35772SOL     OW14173   2.812   8.627   0.335 -0.0218  0.1834 -0.5516
35772SOL    HW114174   2.731   8.677   0.345 -1.1991 -1.5770 -0.7884
35772SOL    HW214175   2.833   8.599   0.424 -0.0163  0.1458 -0.5646
35773SOL     OW14176  10.769  10.158   4.076 -0.2080  0.4806  0.2568
35773SOL    HW114177  10.807  10.185   4.160  0.4910  0.3670 -0.0164
35773SOL    HW214178  10.807  10.071   4.060 -3.3076 -1.3014  1.7081
35774SOL     OW14179   4.617   0.648   3.019 -0.3585  0.2484 -0.0139
35774SOL    HW114180   4.614   0.732   3.065 -1.8196 -0.3843  1.1026
35774SOL    HW214181   4.664   0.668   2.938  1.1705  1.6774  1.1371
35775SOL     OW14182   3.237   5.112   9.453 -0.5407 -0.3096  0.0443
35775SOL    HW114183   3.185   5.073   9.383 -0.7143  0.3475 -0.1980
35775SOL    HW214184   3.258   5.039   9.511  0.1662 -0.9902 -1.0361
35776SOL     OW14185  10.313   3.343   3.324 -0.1037  0.8782  0.0412
35776SOL    HW114186  10.240   3.362   3.383  0.2047 -0.1906  0.8088
35776SOL    HW214187  10.360   3.426   3.317 -0.4333  1.1550  0.9021
35777SOL     OW14188   1.630   0.705  10.671 -0.2486 -0.3959  0.3420
35777SOL    HW114189   1.550   0.720  10.721  0.0218 -0.2498  0.7352
35777SOL    HW214190   1.641   0.784  10.619 -0.3487 -0.4079  0.3023
35778SOL     OW14191   7.843   6.586   8.543  0.1462  0.7304 -0.0600
35778SOL    HW114192   7.912   6.644   8.575  2.2286 -2.1440  1.0853
35778SOL    HW214193   7.874   6.556   8.458  0.2254 -0.3218  0.3140
35779SOL     OW14194   3.481   1.024   3.064 -0.3112 -0.2020 -0.0376
35779SOL    HW114195   3.388   1.000   3.059 -0.5164 -0.6840  3.4898
35779SOL    HW214196   3.484   1.094   3.129  1.7529  0.4411 -0.7574
35780SOL     OW14197   4.084  11.210   8.560 -0.7623  0.5207  0.3900
35780SOL    HW114198   4.084  11.239   8.651 -2.1383  0.4243  0.4379
35780SOL    HW214199   4.133  11.128   8.561  0.3912  1.1819  0.7932
35781SOL     OW14200   5.587   0.934   0.627 -0.3245  0.5815 -0.5294
35781SOL    HW114201   5.557   0.883   0.702 -1.3903 -0.1886 -1.4493
35781SOL    HW214202   5.511   0.986   0.602 -0.1923  0.3258 -1.4870
35782SOL     OW14203   6.846   8.004   2.247 -0.3795 -0.4206 -0.2897
35782SOL    HW114204   6.857   8.031   2.156 -0.4516 -0.2854 -0.2577
35782SOL    HW214205   6.762   7.959   2.249 -0.3584 -0.4606 -0.2982
35783SOL     OW14206   8.922  10.998   2.278  0.4082  0.1154 -0.0601
35783SOL    HW114207   8.831  11.022   2.297  0.3093 -1.2168  1.3196
35783SOL    HW214208   8.974  11.064   2.324  0.1312 -0.3399  0.9343
35784SOL     OW14209  11.964   7.740   8.651  0.2694  0.4478 -0.5509
35784SOL    HW114210  12.012   7.761   8.571 -1.1947  0.2349 -1.5267
35784SOL    HW214211  11.943   7.824   8.690 -0.1220  0.6018 -1.0850
35785SOL     OW14212  12.347   8.677   7.879  0.3762  0.0003  0.1404
35785SOL    HW114213  12.283   8.630   7.827  1.0444  0.6673 -1.3494
35785SOL    HW214214  12.335   8.645   7.968 -2.3349  0.4497 -0.0005
35786SOL     OW14215  11.365   7.544   0.215  1.0425  0.7585 -0.2852
35786SOL    HW114216  11.404   7.596   0.144 -0.2668 -1.5499 -2.9031
35786SOL    HW214217  11.315   7.608   0.267  0.9868  2.4107 -2.2284
35787SOL     OW14218   8.755   9.756   1.198  0.4461  0.2679  0.1546
35787SOL    HW114219   8.663   9.766   1.171  0.1725 -1.1081  0.5137
35787SOL    HW214220   8.753   9.765   1.293  0.8046  0.9406  0.1061
35788SOL     OW14221   3.039   9.426   1.950  0.1165 -0.1865 -0.1067
35788SOL    HW114222   3.093   9.370   1.894  0.8987 -1.1208  1.5207
35788SOL    HW214223   2.964   9.448   1.895 -0.0866 -2.6006 -0.9402
35789SOL     OW14224   9.315   1.336   1.945 -0.4743  0.0599  0.5387
35789SOL    HW114225   9.346   1.411   1.996  0.8473 -1.3226  1.8720
35789SOL    HW214226   9.246   1.297   1.998 -1.1991  0.3345 -0.1779
35790SOL     OW14227   8.901   1.794   8.710 -0.1722 -0.4355 -0.1324
35790SOL    HW114228   8.890   1.886   8.733  1.3810 -0.0518 -0.8045
35790SOL    HW214229   8.865   1.746   8.784  1.1238  0.7271  1.3040
35791SOL     OW14230   5.158   4.398   6.122 -0.7072  0.5817 -0.1686
35791SOL    HW114231   5.081   4.368   6.074 -0.9472  0.0133  0.5442
35791SOL    HW214232   5.225   4.331   6.105 -0.3941  1.0295 -0.7187
35792SOL     OW14233   4.498   9.215   0.292  0.6566  0.7898 -0.0682
35792SOL    HW114234   4.458   9.181   0.371  0.5697  1.3290  0.1267
35792SOL    HW214235   4.438   9.283   0.261 -0.1521 -0.5206 -1.5271
35793SOL     OW14236  10.872   7.249   4.144 -0.6220  0.0987  0.1754
35793SOL    HW114237  10.926   7.323   4.173 -0.2986 -0.1297  0.1704
35793SOL    HW214238  10.792   7.289   4.111 -0.1540  0.4991 -0.5029
35794SOL     OW14239   8.161  10.973   2.046 -0.4064 -0.7362  0.2161
35794SOL    HW114240   8.195  10.891   2.010 -1.8217 -1.4887  0.4939
35794SOL    HW214241   8.072  10.980   2.010 -1.3470 -0.7735  2.3689
35795SOL     OW14242   6.362  12.504   0.448  0.6061 -0.0604  0.1954
35795SOL    HW114243   6.371  12.529   0.540  0.2287 -0.6722  0.4025
35795SOL    HW214244   6.286  12.447   0.446  1.2349 -0.9007 -0.3291
35796SOL     OW14245   5.289   2.290   9.252 -0.1333 -0.1325 -0.1469
35796SOL    HW114246   5.367   2.235   9.252  0.3534  0.5392 -0.8087
35796SOL    HW214247   5.321   2.377   9.277 -0.6290  0.1925 -0.6241
35797SOL     OW14248   5.650   4.012  10.279 -0.1322  0.7188  0.6862
35797SOL    HW114249   5.585   4.075  10.247  0.5094  0.5001 -1.1866
35797SOL    HW214250   5.652   4.026  10.374 -1.3391  2.2154  0.5379
35798SOL     OW14251  12.049   0.227   2.132  0.2514  0.1924 -0.9899
35798SOL    HW114252  12.132   0.200   2.172  0.6905  1.7726 -0.7685
35798SOL    HW214253  11.988   0.231   2.206 -0.2701 -1.6757 -1.2508
35799SOL     OW14254   7.522   3.455   8.439  0.2417 -0.3503  0.6593
35799SOL    HW114255   7.552   3.426   8.352  0.9674 -1.8955  1.3793
35799SOL    HW214256   7.603   3.463   8.490 -0.2695 -0.5489  1.5020
35800SOL     OW14257   9.679   9.300   5.907 -0.6580 -0.0060  0.2702
35800SOL    HW114258   9.616   9.362   5.944  1.6695  3.1161 -0.5651
35800SOL    HW214259   9.685   9.325   5.815  0.2958 -1.5879 -0.1260
35801SOL     OW14260   5.782   7.666   5.406 -0.4275 -0.2414  0.4410
35801SOL    HW114261   5.822   7.580   5.418  0.1162  0.1132  1.2315
35801SOL    HW214262   5.821   7.721   5.474  0.9494  1.2537 -1.4488
35802SOL     OW14263   6.018   1.142   0.018  0.1852 -0.3584 -0.5795
35802SOL    HW114264   6.047   1.056   0.047 -0.9267 -0.8893 -0.9713
35802SOL    HW214265   6.004   1.191   0.099  1.0935 -0.4402 -0.3601
35803SOL     OW14266   8.040  12.559   2.968 -0.4460  0.3021  0.7081
35803SOL    HW114267   7.983  12.635   2.982 -1.7201 -0.7805  1.7290
35803SOL    HW214268   8.113  12.573   3.030  1.2604  2.3720 -1.5446
35804SOL     OW14269  11.924  10.362   3.604 -0.0701  0.5955  0.4335
35804SOL    HW114270  11.883  10.298   3.546 -0.1072  0.1705  0.9275
35804SOL    HW214271  11.851  10.400   3.653  0.0542  0.3031  0.8486
35805SOL     OW14272   1.594   8.548  10.990  0.2682  0.0360  0.4601
35805SOL    HW114273   1.498   8.540  10.988  0.2208  0.5430  0.6341
35805SOL    HW214274   1.613   8.577  11.079  0.5573  0.2888  0.3141
35806SOL     OW14275   9.805   4.632   3.149 -0.3075  0.3268  0.6080
35806SOL    HW114276   9.815   4.537   3.150  0.6361  0.3639 -1.0235
35806SOL    HW214277   9.889   4.666   3.178  0.5947  0.6117 -2.0112
35807SOL     OW14278   5.700   3.148   6.848  0.3208  0.5110  0.1436
35807SOL    HW114279   5.668   3.178   6.763 -0.0372  0.6833  0.3396
35807SOL    HW214280   5.639   3.186   6.912  0.7049  0.5515  0.4909
35808SOL     OW14281   6.146   0.661   0.072  0.3719  0.8374  0.2156
35808SOL    HW114282   6.110   0.665  -0.016 -2.2923 -0.7214  1.1293
35808SOL    HW214283   6.108   0.736   0.117  0.0111  0.4385  0.5866
35809SOL     OW14284   3.441   5.760  11.422 -0.2071  0.2820  0.7096
35809SOL    HW114285   3.363   5.734  11.373  1.1477  0.4383 -1.6458
35809SOL    HW214286   3.411   5.764  11.513 -2.4738 -1.4656  0.1361
35810SOL     OW14287   3.351   5.952  11.899  0.2113  0.0421 -0.1211
35810SOL    HW114288   3.375   6.044  11.891  0.8381 -0.2014 -1.3467
35810SOL    HW214289   3.259   5.948  11.872 -0.2270  0.4771  1.2230
35811SOL     OW14290  10.677   6.143   7.852  0.0446 -0.4258 -0.3968
35811SOL    HW114291  10.719   6.081   7.912  0.2862  0.8398  0.8152
35811SOL    HW214292  10.584   6.121   7.857  0.0422 -0.2614  0.5861
35812SOL     OW14293   6.872  11.951   6.396  0.2550  0.3405  0.1499
35812SOL    HW114294   6.780  11.947   6.367  0.5193  1.4712 -0.9379
35812SOL    HW214295   6.900  11.860   6.399 -0.5436  0.0441 -0.7504
35813SOL     OW14296  11.516   9.227   9.392  0.0930 -0.5764 -0.4204
35813SOL    HW114297  11.531   9.151   9.335  0.0248 -1.5089  0.7667
35813SOL    HW214298  11.438   9.205   9.442  1.0500 -0.5067  1.1834
35814SOL     OW14299   5.302  11.039   5.892  0.1253 -0.2743 -0.7374
35814SOL    HW114300   5.290  11.114   5.834  0.8054 -0.2025 -0.8005
35814SOL    HW214301   5.394  11.045   5.919 -0.0652 -0.5513 -0.0021
35815SOL     OW14302   5.882   0.974   5.352  0.0734 -0.1286  0.6116
35815SOL    HW114303   5.895   1.009   5.264 -1.6659 -4.3939 -1.7012
35815SOL    HW214304   5.948   0.905   5.360  0.4235  0.3951  2.8893
35816SOL     OW14305   0.803  10.389   8.109  0.2137 -0.2283  0.0635
35816SOL    HW114306   0.830  10.427   8.192 -0.3395 -0.6838  0.4580
35816SOL    HW214307   0.882  10.390   8.055  0.4014  0.7059  0.3489
35817SOL     OW14308   9.106  11.964   6.010 -0.3080  0.3477  0.1105
35817SOL    HW114309   9.200  11.969   6.026 -0.2948  0.4913 -0.0114
35817SOL    HW214310   9.097  11.896   5.943 -0.3589 -0.2220  0.6843
35818SOL     OW14311   4.349   2.506   6.463  0.2381  0.0750 -0.7616
35818SOL    HW114312   4.260   2.481   6.438 -1.1877  4.1674 -0.4972
35818SOL    HW214313   4.358   2.479   6.554 -1.1001  0.4627 -0.5055
35819SOL     OW14314   7.254   9.539   3.886  0.0608 -0.1098  0.2513
35819SOL    HW114315   7.169   9.512   3.921 -0.0949  0.8320  0.6409
35819SOL    HW214316   7.257   9.502   3.798 -2.0787  2.2947 -0.9703
35820SOL     OW14317   1.468   8.270   5.492 -0.1998  0.5284  0.4536
35820SOL    HW114318   1.436   8.205   5.555  0.7669  0.2675  0.6940
35820SOL    HW214319   1.484   8.348   5.544 -1.1912  0.9305  0.1929
35821SOL     OW14320   6.384   2.676   2.242  0.3402 -0.5474  0.9348
35821SOL    HW114321   6.438   2.600   2.263  2.5481  0.5772 -0.3498
35821SOL    HW214322   6.359   2.712   2.327  0.5822 -1.7856  1.5521
35822SOL     OW14323   8.327  11.697   8.035  0.6265 -0.1435 -0.1269
35822SOL    HW114324   8.257  11.636   8.058 -0.1961  1.2298  1.1435
35822SOL    HW214325   8.403  11.665   8.084 -0.4128  1.1591  2.5108
35823SOL     OW14326   0.285   6.342   0.644 -0.3416  0.4451  0.1478
35823SOL    HW114327   0.359   6.328   0.703 -1.1540 -1.3847  0.8144
35823SOL    HW214328   0.250   6.427   0.670  0.8915  0.8675  0.5094
35824SOL     OW14329  12.178   5.038   2.009 -0.0493  0.4622 -0.1156
35824SOL    HW114330  12.158   5.072   2.096 -0.4788 -0.5928  0.2099
35824SOL    HW214331  12.118   5.086   1.951  0.5434  1.4883  0.0876
35825SOL     OW14332   8.062   1.538   8.953  0.1838  0.2200  0.2724
35825SOL    HW114333   8.014   1.464   8.916  1.8421 -1.0736  0.5794
35825SOL    HW214334   8.153   1.523   8.928  0.4913  2.6471 -0.3864
35826SOL     OW14335   1.119   9.224   6.740 -0.5235 -0.0675 -0.3342
35826SOL    HW114336   1.115   9.142   6.692  0.2241 -1.1185  1.2940
35826SOL    HW214337   1.116   9.198   6.832  1.1074  1.5972  0.2575
35827SOL     OW14338   9.075   5.542  10.692  0.4710  0.2702  0.3892
35827SOL    HW114339   9.120   5.624  10.710 -0.3346  0.6674  0.6322
35827SOL    HW214340   9.100   5.519  10.603  3.3564 -0.9552  1.3886
35828SOL     OW14341   7.042   2.449   9.908  0.4778  0.7160 -0.0174
35828SOL    HW114342   7.076   2.539   9.919  1.9570  0.3891 -1.5242
35828SOL    HW214343   7.076   2.421   9.823 -0.6296 -1.0070  0.0736
35829SOL     OW14344  11.450   0.090   1.211  0.3589  0.8946  0.0360
35829SOL    HW114345  11.477   0.081   1.120  0.3276  1.8851 -0.0895
35829SOL    HW214346  11.485   0.013   1.255  1.8932  1.2603 -0.4766
35830SOL     OW14347   2.586   5.450   3.504 -0.3986 -0.3754  0.4657
35830SOL    HW114348   2.555   5.363   3.526 -2.2114  0.1567  0.1529
35830SOL    HW214349   2.546   5.508   3.569 -2.2511  0.6479 -1.4434
35831SOL     OW14350   0.114   9.416   7.734 -0.1824 -0.2069  0.1957
35831SOL    HW114351   0.178   9.361   7.690 -2.1189 -1.6260 -1.0287
35831SOL    HW214352   0.156   9.502   7.742  2.3188 -1.4037  0.7082
35832SOL     OW14353   8.241   5.285   1.466 -0.3050 -0.0031  0.4403
35832SOL    HW114354   8.248   5.326   1.379  0.1158 -0.1460  0.4059
35832SOL    HW214355   8.152   5.305   1.494 -1.3172 -2.0001 -1.0522
35833SOL     OW14356  11.661   7.971   6.324 -0.2240 -0.1728  0.0558
35833SOL    HW114357  11.588   7.972   6.263 -1.1557 -0.5868  1.1361
35833SOL    HW214358  11.621   7.957   6.410  0.8010  2.9377  1.1475
35834SOL     OW14359   6.788   6.457  10.600  0.1987 -0.5498 -0.0227
35834SOL    HW114360   6.727   6.519  10.560  0.6376  0.6295  1.0965
35834SOL    HW214361   6.741   6.374  10.599 -2.4580  0.7336  2.9474
35835SOL     OW14362   3.205   7.274   6.029 -0.9430 -0.3231 -0.0861
35835SOL    HW114363   3.117   7.237   6.019 -0.8588 -1.8676  3.3677
35835SOL    HW214364   3.260   7.199   6.053  0.2951  1.2339  2.3370
35836SOL     OW14365   5.095   6.510   9.797  0.4470 -0.2953  0.3771
35836SOL    HW114366   5.109   6.443   9.729  0.2109 -1.0639  1.0666
35836SOL    HW214367   5.178   6.512   9.845  0.5216  0.0543  0.2307
35837SOL     OW14368  10.038   9.352   8.111  0.3510 -0.0310 -0.0459
35837SOL    HW114369  10.114   9.386   8.158  1.7484 -1.5615 -1.0862
35837SOL    HW214370  10.039   9.258   8.129 -1.1734 -0.1147 -0.2854
35838SOL     OW14371  12.396   6.532   1.832  0.1179  0.2460  0.5345
35838SOL    HW114372  12.482   6.574   1.831  0.5295 -0.5233 -1.6551
35838SOL    HW214373  12.414   6.440   1.814 -1.2209  0.3516 -1.7927
35839SOL     OW14374  11.223   9.857   7.871  0.1911 -0.7135  0.4550
35839SOL    HW114375  11.186   9.939   7.903  0.7286 -0.6265  0.8716
35839SOL    HW214376  11.174   9.789   7.917 -0.0353 -0.6213  0.3519
35840SOL     OW14377   5.610   2.995  11.792  0.0535  0.0914 -0.3131
35840SOL    HW114378   5.554   3.030  11.722 -1.7417 -1.6729  0.1407
35840SOL    HW214379   5.548   2.955  11.853  1.4934  1.9243  2.5557
35841SOL     OW14380   7.147   1.054   6.075 -0.4667  0.3168 -0.8066
35841SOL    HW114381   7.237   1.059   6.045 -0.3410  1.8703 -0.2290
35841SOL    HW214382   7.100   1.118   6.022 -0.8856  0.7332  0.0539
35842SOL     OW14383   9.711   2.870   9.948 -0.2229  0.4200 -0.4709
35842SOL    HW114384   9.717   2.953   9.994  0.1219 -1.1346  2.5282
35842SOL    HW214385   9.624   2.836   9.970  0.0540 -0.5040 -0.7570
35843SOL     OW14386   5.445   0.720   5.774 -0.2486 -0.4950 -0.0232
35843SOL    HW114387   5.488   0.786   5.828  0.8896  0.5565 -2.0536
35843SOL    HW214388   5.360   0.759   5.752  0.5920  0.6096 -1.5786
35844SOL     OW14389   6.286   8.553   7.262  0.7206  0.4168  0.1063
35844SOL    HW114390   6.232   8.492   7.313  2.2625 -0.5909  0.6168
35844SOL    HW214391   6.306   8.624   7.322  0.0829  0.7410 -0.0521
35845SOL     OW14392   5.337   6.090   5.538 -0.6179  0.4353 -0.6005
35845SOL    HW114393   5.285   6.095   5.458  0.9875  0.8401 -1.6602
35845SOL    HW214394   5.374   6.177   5.549 -0.7341  0.3586  0.5550
35846SOL     OW14395   0.098   1.574   7.383 -0.4153 -0.1612  0.3455
35846SOL    HW114396   0.069   1.551   7.294 -0.1244 -0.6237  0.3635
35846SOL    HW214397   0.023   1.620   7.421 -0.0263  1.3267 -0.6187
35847SOL     OW14398   2.730  10.525   7.094 -0.0336 -0.1606  0.2811
35847SOL    HW114399   2.704  10.439   7.129 -0.8505 -0.1718 -0.3268
35847SOL    HW214400   2.725  10.515   6.999 -0.6821  0.7106  0.2052
35848SOL     OW14401  12.182   2.378   2.456  0.0110  0.1692 -0.1999
35848SOL    HW114402  12.179   2.472   2.436  0.4876 -0.4317 -3.6375
35848SOL    HW214403  12.273   2.353   2.439 -0.5343 -1.2470 -1.1830
35849SOL     OW14404   6.115   4.948  10.535 -0.2962 -0.3913 -0.1225
35849SOL    HW114405   6.175   4.973  10.606  0.6253  1.5899 -1.5002
35849SOL    HW214406   6.028   4.967  10.570 -0.1319 -2.4061  1.5628
35850SOL     OW14407   5.380  11.489   5.502  0.0172 -0.1066 -0.1126
35850SOL    HW114408   5.419  11.437   5.432  0.9294  0.1290  0.2085
35850SOL    HW214409   5.451  11.546   5.533 -0.3137 -0.3229  1.1210
35851SOL     OW14410   4.603   8.469   0.188  0.7508  0.2554 -0.0417
35851SOL    HW114411   4.580   8.501   0.275 -0.3113 -1.8731  0.5337
35851SOL    HW214412   4.519   8.452   0.146  1.2223  1.8481 -1.7947
35852SOL     OW14413  12.332   9.592   1.366  0.4583 -0.0942 -0.1215
35852SOL    HW114414  12.310   9.499   1.374  0.8095 -0.1260  0.5078
35852SOL    HW214415  12.273   9.635   1.428  0.3450  0.0955 -0.3609
35853SOL     OW14416  11.359   1.965   0.758  0.1540  0.1877  0.1994
35853SOL    HW114417  11.296   1.912   0.805  0.6044 -0.6534 -0.1235
35853SOL    HW214418  11.442   1.918   0.766  0.3629  0.3228 -0.9176
35854SOL     OW14419   8.799   0.939  12.567 -0.4555  0.2151 -0.1750
35854SOL    HW114420   8.790   0.938  12.472  0.8971  4.2257 -0.5222
35854SOL    HW214421   8.713   0.964  12.600 -0.7701 -0.6044 -0.3514
35855SOL     OW14422   4.675   4.231   5.595 -0.3130 -0.7966  0.1943
35855SOL    HW114423   4.745   4.227   5.529 -0.4317  0.0491 -0.0040
35855SOL    HW214424   4.721   4.240   5.678 -0.1238  1.7988 -0.0835
35856SOL     OW14425   4.340  11.476   8.248 -0.0825  0.6557  0.1888
35856SOL    HW114426   4.272  11.537   8.221  2.2910  2.8076 -1.3347
35856SOL    HW214427   4.324  11.397   8.196 -0.3366  1.8366 -1.5963
35857SOL     OW14428   9.873  11.838   1.683 -0.0282  0.5404  0.7216
35857SOL    HW114429   9.939  11.791   1.632  0.4569  1.5360  0.4085
35857SOL    HW214430   9.872  11.927   1.646 -2.4180  0.2442 -0.0819
35858SOL     OW14431  12.037   6.667   8.240  0.3777  0.2810 -0.4196
35858SOL    HW114432  12.116   6.645   8.191  0.4322 -0.8310  0.1365
35858SOL    HW214433  12.017   6.757   8.215  1.2526  0.2324 -1.3246
35859SOL     OW14434   8.351   5.558   4.440 -0.7146  0.0954  0.2323
35859SOL    HW114435   8.319   5.596   4.522 -0.3809 -0.7664  0.7789
35859SOL    HW214436   8.434   5.516   4.464 -0.4767  0.0602 -0.6093
35860SOL     OW14437   9.622   3.754   8.095  0.2836 -0.6554 -0.5188
35860SOL    HW114438   9.632   3.849   8.098 -1.6328 -0.4069 -0.8675
35860SOL    HW214439   9.659   3.728   8.010  2.2286 -0.4676  0.2141
35861SOL     OW14440   3.237   9.348  12.437  0.3186  0.1265 -0.1159
35861SOL    HW114441   3.262   9.257  12.457  1.6687  0.5082  0.0286
35861SOL    HW214442   3.176   9.371  12.507 -1.8339 -1.3688 -1.3823
35862SOL     OW14443   2.308   9.241   0.723  0.2734  0.1107 -0.2221
35862SOL    HW114444   2.360   9.240   0.643  1.5252 -0.8533  0.5566
35862SOL    HW214445   2.355   9.301   0.781 -0.6196  0.8018 -0.2040
35863SOL     OW14446   5.277  12.506   0.910  0.1516  0.3059  0.0668
35863SOL    HW114447   5.258  12.589   0.865 -3.5003  0.2347  1.1048
35863SOL    HW214448   5.295  12.444   0.840  1.3639  1.6040 -0.8183
35864SOL     OW14449   0.317   4.193   6.392 -0.4105  0.2167  0.0785
35864SOL    HW114450   0.331   4.224   6.481  0.3481  0.3118 -0.0685
35864SOL    HW214451   0.403   4.163   6.363 -0.8088 -0.5317 -0.3497
35865SOL     OW14452   9.632  10.052   6.528 -0.1562 -0.1250 -0.1640
35865SOL    HW114453   9.657   9.993   6.457 -0.4270  1.0002 -1.2566
35865SOL    HW214454   9.545  10.084   6.502 -0.0126  0.7480  0.3809
35866SOL     OW14455  11.013   0.843   0.163 -0.2406  0.0027 -0.0253
35866SOL    HW114456  11.099   0.801   0.176 -1.5346 -2.6064  0.8033
35866SOL    HW214457  11.004   0.848   0.068  0.3153 -0.8992 -0.1413
35867SOL     OW14458   7.576   1.635   6.408  0.4282  0.0807  0.6214
35867SOL    HW114459   7.500   1.681   6.444  0.6348  0.6504  0.3453
35867SOL    HW214460   7.562   1.638   6.313  0.1761 -0.9011  0.6165
35868SOL     OW14461  10.005   1.656   1.478 -0.0533  0.4118  0.2242
35868SOL    HW114462   9.932   1.713   1.504 -0.0697 -0.3188  1.9281
35868SOL    HW214463  10.069   1.715   1.438 -1.2770  1.1675 -0.6903
35869SOL     OW14464   5.977   3.978   0.985 -0.0648 -0.3590 -0.0642
35869SOL    HW114465   6.051   3.929   0.948  0.8613  0.5734  0.4848
35869SOL    HW214466   6.005   3.999   1.074 -0.0182  1.9051 -0.5400
35870SOL     OW14467   7.431   3.446   6.758 -0.1426  0.3660  0.0050
35870SOL    HW114468   7.380   3.518   6.721  0.4220  0.9436  0.3272
35870SOL    HW214469   7.370   3.402   6.817 -0.2077  1.2219  0.5962
35871SOL     OW14470   2.522   8.225   3.826 -0.1324  0.1301 -0.6292
35871SOL    HW114471   2.510   8.234   3.920  2.3339 -1.6505 -0.0590
35871SOL    HW214472   2.616   8.230   3.812 -0.4008 -0.0341 -2.9548
35872SOL     OW14473   1.946   2.992   7.281 -0.3588  0.5272  0.1373
35872SOL    HW114474   1.986   3.022   7.363 -0.2968 -0.7193  0.5973
35872SOL    HW214475   2.005   2.923   7.251 -1.8969 -1.0611  0.6026
35873SOL     OW14476   4.092   0.666   8.608 -0.1793 -0.6092  0.3927
35873SOL    HW114477   4.114   0.573   8.621  1.3393 -0.2967  0.3224
35873SOL    HW214478   4.157   0.696   8.544 -1.8177  0.0755 -1.0204
35874SOL     OW14479   2.039   5.881   9.861 -0.3542  0.1030  0.2048
35874SOL    HW114480   2.103   5.942   9.823 -0.1882 -0.2454 -0.0835
35874SOL    HW214481   2.087   5.799   9.872 -0.1102  0.4520  2.1191
35875SOL     OW14482  11.901   7.743   1.077 -0.2326 -0.2038 -0.1084
35875SOL    HW114483  11.864   7.826   1.045 -0.8125 -0.1653  0.6301
35875SOL    HW214484  11.995   7.752   1.062 -0.4209  0.0816 -1.1720
35876SOL     OW14485   1.678   3.767  12.035 -0.1716  0.3337 -0.3565
35876SOL    HW114486   1.746   3.826  12.069  1.6408 -0.8287 -1.7591
35876SOL    HW214487   1.599   3.820  12.032  0.0139  1.1391  3.5217
35877SOL     OW14488   5.092  10.509   5.916  0.1233 -0.0995  0.3297
35877SOL    HW114489   5.173  10.559   5.910 -0.9987  1.9334  1.1028
35877SOL    HW214490   5.080  10.494   6.010  0.5184 -2.0128  0.1027
35878SOL     OW14491   1.352   6.097  10.885  0.0240  0.1819 -0.6414
35878SOL    HW114492   1.434   6.148  10.887 -0.1352  0.4450 -0.7751
35878SOL    HW214493   1.337   6.074  10.977  0.1553  0.2874 -0.5914
35879SOL     OW14494   7.498   1.266   4.843 -0.9697 -0.0367  0.2966
35879SOL    HW114495   7.558   1.213   4.790 -0.9019 -0.7025  1.0254
35879SOL    HW214496   7.543   1.350   4.853 -0.7237 -0.1052 -0.2106
35880SOL     OW14497   5.266   8.887   6.289  0.3759  0.6928 -0.3641
35880SOL    HW114498   5.244   8.796   6.267  2.3290 -0.4644  1.9574
35880SOL    HW214499   5.187   8.921   6.330  0.4533 -0.9812  1.3396
35881SOL     OW14500   2.863  11.535   4.853  0.7576 -0.0185 -0.4353
35881SOL    HW114501   2.910  11.490   4.923  1.4900 -0.5697 -1.2547
35881SOL    HW214502   2.852  11.468   4.785 -0.1498  0.4388 -0.7605
35882SOL     OW14503   1.421   3.338  11.270 -0.0666  0.1384 -0.3404
35882SOL    HW114504   1.443   3.351  11.177 -1.8152 -1.7348 -1.0724
35882SOL    HW214505   1.505   3.347  11.315  0.8388  1.0451 -2.0990
35883SOL     OW14506  12.184   5.721   5.661  0.9060  0.1362 -0.3568
35883SOL    HW114507  12.257   5.772   5.697  0.0395  1.8233 -0.8817
35883SOL    HW214508  12.203   5.630   5.687  2.3614  0.7444  0.8698
35884SOL     OW14509   6.352   3.804   4.705 -0.9008  0.2647  0.9690
35884SOL    HW114510   6.423   3.856   4.668 -0.5790 -1.3973 -0.9642
35884SOL    HW214511   6.395   3.746   4.768 -0.9549  0.9666  1.6602
35885SOL     OW14512   2.528  12.521   5.748  0.2483  0.0512 -0.6378
35885SOL    HW114513   2.586  12.499   5.821 -1.4913 -0.1700  0.7512
35885SOL    HW214514   2.440  12.519   5.786 -0.5985  1.6316 -2.3406
35886SOL     OW14515   6.666   4.290   7.091 -0.2329 -0.7231 -0.6166
35886SOL    HW114516   6.599   4.353   7.119  1.5122  1.1822 -0.3949
35886SOL    HW214517   6.700   4.254   7.173  1.9803  1.7065 -0.3028
35887SOL     OW14518   3.459   5.783   4.865 -0.1872  0.4472  0.4110
35887SOL    HW114519   3.441   5.867   4.824 -1.3234  0.3229  0.6416
35887SOL    HW214520   3.375   5.754   4.899 -0.0643 -1.3590 -0.7180
35888SOL     OW14521  12.439   3.350   7.225  0.0418  0.2698 -0.0297
35888SOL    HW114522  12.417   3.257   7.234 -0.3665  0.3315 -0.3416
35888SOL    HW214523  12.445   3.382   7.315  1.4768 -0.3455  0.1273
35889SOL     OW14524  10.551  10.335   3.254  0.3009 -0.0477 -0.2427
35889SOL    HW114525  10.566  10.421   3.293 -0.1700  0.2702 -0.7323
35889SOL    HW214526  10.478  10.298   3.303  0.3001 -0.0330 -0.2341
35890SOL     OW14527   2.896   9.470   3.246 -0.6596  0.2007  0.1109
35890SOL    HW114528   2.969   9.529   3.230  0.6585 -1.1627  0.8872
35890SOL    HW214529   2.851   9.463   3.161  1.3753 -0.5943 -0.9679
35891SOL     OW14530   1.040   2.571   3.499 -0.7073 -0.1232 -0.0658
35891SOL    HW114531   1.092   2.567   3.579  1.3244 -1.7781 -1.3319
35891SOL    HW214532   1.068   2.494   3.449 -2.5813  0.3291 -1.9550
35892SOL     OW14533  11.245   3.715  11.248 -0.7365 -0.2816 -0.2832
35892SOL    HW114534  11.251   3.683  11.338 -1.4999  1.4907  0.4480
35892SOL    HW214535  11.312   3.784  11.243 -0.6238 -0.4466 -1.1028
35893SOL     OW14536   9.897   5.653   4.224  0.8559  0.6610  0.0157
35893SOL    HW114537   9.899   5.749   4.225  0.1742  0.6859 -0.6038
35893SOL    HW214538   9.936   5.629   4.140 -2.4925  0.5441 -1.6815
35894SOL     OW14539   1.711   7.518   1.165 -0.7161 -0.1148  0.1732
35894SOL    HW114540   1.689   7.430   1.133 -1.1114 -0.6735  1.8879
35894SOL    HW214541   1.706   7.573   1.087 -1.5221 -1.4276 -0.7554
35895SOL     OW14542   3.870   7.634   7.338  0.3975 -0.0074 -0.7243
35895SOL    HW114543   3.800   7.631   7.404  1.5671 -4.1835  0.6760
35895SOL    HW214544   3.853   7.558   7.282  1.9737  0.8418 -2.4442
35896SOL     OW14545   7.447   0.269  12.259  0.0221  0.1276  0.0947
35896SOL    HW114546   7.534   0.288  12.225  0.1986 -0.7340  0.0605
35896SOL    HW214547   7.406   0.355  12.267  1.0262  0.5801  0.5460
35897SOL     OW14548  10.507   0.830  10.671  0.6014 -0.1278 -0.2670
35897SOL    HW114549  10.492   0.770  10.745 -1.2290  0.9527  0.2881
35897SOL    HW214550  10.581   0.791  10.624  0.9869 -1.5423  1.3983
35898SOL     OW14551   8.540   3.687  11.259 -0.3973 -0.1017  0.1270
35898SOL    HW114552   8.625   3.706  11.301 -0.1936 -0.4691 -0.1187
35898SOL    HW214553   8.477   3.739  11.309 -0.0913 -0.1805  0.6026
35899SOL     OW14554  11.162   1.604  10.278  0.4358  0.2655 -0.2942
35899SOL    HW114555  11.202   1.647  10.353 -0.3047 -1.2051  1.0088
35899SOL    HW214556  11.070   1.630  10.281 -0.0216 -1.3073  0.5092
35900SOL     OW14557  11.012   5.507  11.888 -0.7014 -0.2533  0.2125
35900SOL    HW114558  11.045   5.419  11.904 -2.4872 -1.2781 -1.3073
35900SOL    HW214559  11.066   5.564  11.943  0.3175 -2.3076  1.4339
35901SOL     OW14560   9.058   4.591   9.194 -0.4146 -0.0957  0.6227
35901SOL    HW114561   9.017   4.552   9.271  0.3264 -0.0845  1.0334
35901SOL    HW214562   9.143   4.622   9.225  0.1450 -0.6162 -0.3413
35902SOL     OW14563   7.875  12.368   5.891  0.2764 -0.8066  0.6622
35902SOL    HW114564   7.862  12.295   5.830 -1.0859  0.1317 -0.2265
35902SOL    HW214565   7.811  12.354   5.960 -0.0067 -0.4661  0.4769
35903SOL     OW14566   2.133   5.515   9.604  0.0798 -0.7042 -0.2457
35903SOL    HW114567   2.096   5.530   9.517  1.0169 -0.9781 -0.7071
35903SOL    HW214568   2.187   5.592   9.621  0.0914 -0.7632 -0.0056
35904SOL     OW14569   9.270  10.363   2.768  0.3611  0.0473 -0.8010
35904SOL    HW114570   9.340  10.300   2.752  1.3994  0.9553  0.0602
35904SOL    HW214571   9.203  10.312   2.814  0.8378 -0.6112 -0.8177
35905SOL     OW14572   7.701   2.540   3.343  0.7574 -0.2312 -0.2278
35905SOL    HW114573   7.759   2.511   3.273  1.8574  2.1787 -0.4205
35905SOL    HW214574   7.624   2.574   3.298  0.1668 -1.3451 -0.0858
35906SOL     OW14575   3.324   0.690   0.599 -0.0387  0.1997  0.2045
35906SOL    HW114576   3.366   0.721   0.518 -0.2202  1.2127  0.4777
35906SOL    HW214577   3.382   0.719   0.668  0.4188 -1.1811  0.4279
35907SOL     OW14578   3.766   0.397   8.342 -0.3132  0.0227 -0.2008
35907SOL    HW114579   3.791   0.482   8.377  0.1350 -0.4158  0.5531
35907SOL    HW214580   3.715   0.418   8.263  2.6481  0.9758 -2.0237
35908SOL     OW14581   6.840  10.447   4.396  0.2383  0.6653  0.2980
35908SOL    HW114582   6.817  10.415   4.309  0.8088  0.7714  0.1042
35908SOL    HW214583   6.792  10.389   4.456  0.9455 -0.3151 -0.0511
35909SOL     OW14584   9.068   6.806   5.673  0.3694 -0.8382  0.0603
35909SOL    HW114585   9.144   6.850   5.710  0.6572 -0.9986 -0.3340
35909SOL    HW214586   8.999   6.872   5.674  0.9688 -0.1700 -1.1199
35910SOL     OW14587   6.176  10.752   1.954  0.2239  0.0468  0.1504
35910SOL    HW114588   6.112  10.727   2.021 -1.5080  3.9290  0.2087
35910SOL    HW214589   6.133  10.730   1.871  0.2113 -0.2921  0.2464
35911SOL     OW14590   4.683   7.209   5.129  0.0638 -0.3110  0.4196
35911SOL    HW114591   4.590   7.184   5.133  0.1103 -0.3952  1.1594
35911SOL    HW214592   4.725   7.158   5.199  0.1935  1.5956  1.8377
35912SOL     OW14593   5.236   9.318   3.777 -0.4525 -0.2033 -0.4190
35912SOL    HW114594   5.198   9.230   3.774 -0.2162 -0.3614  0.7581
35912SOL    HW214595   5.166   9.373   3.812 -0.6373  0.1166 -1.2594
35913SOL     OW14596   4.122  12.022   5.322  0.0238 -0.4696 -0.1721
35913SOL    HW114597   4.133  12.083   5.395 -0.3957 -0.8581  0.2146
35913SOL    HW214598   4.090  12.077   5.250  3.4969  0.5942 -1.1262
35914SOL     OW14599   6.297  10.378   5.015  0.0879  0.3711  0.0601
35914SOL    HW114600   6.315  10.421   5.098 -2.0603  0.8851  0.3290
35914SOL    HW214601   6.268  10.290   5.039 -1.7363  0.9166 -0.0096
35915SOL     OW14602   5.789  11.317  11.562 -0.1286 -0.0159 -0.0872
35915SOL    HW114603   5.819  11.330  11.652 -1.9467  1.6381  0.3499
35915SOL    HW214604   5.860  11.350  11.507  0.8835 -0.7871  0.7148
35916SOL     OW14605   4.887   5.228   9.388 -0.1709 -0.2647  0.4359
35916SOL    HW114606   4.849   5.167   9.325 -1.6608  2.7175 -1.7797
35916SOL    HW214607   4.980   5.228   9.368 -0.2762 -1.1282 -0.1262
35917SOL     OW14608   9.829  10.127  11.778  0.4081 -0.8247  0.1719
35917SOL    HW114609   9.750  10.165  11.818  0.6982 -1.3937  1.3330
35917SOL    HW214610   9.890  10.119  11.851  1.1129 -1.5202 -0.4870
35918SOL     OW14611   9.636   1.927   6.477  0.3669  0.4180  0.4731
35918SOL    HW114612   9.680   1.878   6.407  2.4506  0.2623  1.7760
35918SOL    HW214613   9.669   2.016   6.467 -1.0465  0.8993 -0.0481
35919SOL     OW14614   3.039  10.569   8.895 -0.4314 -0.2484  0.5379
35919SOL    HW114615   3.041  10.632   8.823  1.4909 -1.4119 -0.5103
35919SOL    HW214616   3.005  10.489   8.856  1.7372 -1.2420  0.5429
35920SOL     OW14617   2.257   3.074   2.994 -0.1986  0.2258 -0.1918
35920SOL    HW114618   2.229   2.991   3.033 -0.0068 -0.3543 -1.2664
35920SOL    HW214619   2.298   3.121   3.067 -0.1752 -0.6815  0.4019
35921SOL     OW14620   4.103  10.373   8.142  0.0017 -0.1216 -0.0471
35921SOL    HW114621   4.025  10.319   8.130 -1.0481  0.8375  1.9589
35921SOL    HW214622   4.165  10.315   8.185 -0.2972 -0.3458  0.0877
35922SOL     OW14623   1.039   3.869  11.880  0.0985  0.1017 -0.3340
35922SOL    HW114624   1.101   3.933  11.916  0.4094 -0.4845  0.2090
35922SOL    HW214625   1.087   3.828  11.808  0.1470  0.0178 -0.2545
35923SOL     OW14626   4.122   5.871  10.567 -0.7220  0.1275  0.2258
35923SOL    HW114627   4.159   5.872  10.478  0.0588 -0.3971  0.5360
35923SOL    HW214628   4.117   5.963  10.592 -0.8446  0.2765 -0.3194
35924SOL     OW14629   0.602  10.247   2.164  0.1502 -0.3233  0.0061
35924SOL    HW114630   0.573  10.165   2.205  0.2630 -0.5775 -0.4075
35924SOL    HW214631   0.697  10.237   2.154  0.4753  0.7007  1.7776
35925SOL     OW14632   7.724   1.372   6.263 -0.0264 -0.6212 -0.3757
35925SOL    HW114633   7.646   1.386   6.317  0.4730  2.7094 -0.2828
35925SOL    HW214634   7.705   1.420   6.182  2.1271  0.9396 -0.0583
35926SOL     OW14635   9.657  12.428  12.417 -0.1505  0.2991  0.3540
35926SOL    HW114636   9.584  12.372  12.390 -1.0194  0.6656  1.8394
35926SOL    HW214637   9.643  12.442  12.510  1.5724  0.7824  0.5725
35927SOL     OW14638   3.109   8.813   8.542 -0.3197  0.5669 -0.5206
35927SOL    HW114639   3.075   8.895   8.507 -0.4717  0.9611  0.5012
35927SOL    HW214640   3.034   8.772   8.584  0.4986  1.8129  2.4400
35928SOL     OW14641   0.694  10.610   3.833  0.0375  0.0103 -0.8156
35928SOL    HW114642   0.762  10.619   3.899 -1.1880 -2.2231  0.8957
35928SOL    HW214643   0.613  10.601   3.883 -1.2390  0.3109 -2.7125
35929SOL     OW14644   2.254   0.392   6.193 -0.0894  0.0546 -0.1646
35929SOL    HW114645   2.194   0.367   6.123 -1.4573 -0.2249  1.0620
35929SOL    HW214646   2.222   0.346   6.271  0.6649  1.2777  0.9216
35930SOL     OW14647   9.807   0.503  11.243  0.1392 -0.1966 -0.8562
35930SOL    HW114648   9.880   0.564  11.252  0.3662 -0.6933  1.1209
35930SOL    HW214649   9.841   0.419  11.273 -0.4150 -1.1608 -2.7476
35931SOL     OW14650   0.978   8.666   5.101  0.1587 -0.3117  0.2418
35931SOL    HW114651   1.025   8.613   5.036  2.1935  0.8885  0.6425
35931SOL    HW214652   1.043   8.685   5.168 -0.6630  2.1351  0.4306
35932SOL     OW14653   5.768   1.999   3.461  0.5113 -0.2907 -0.0321
35932SOL    HW114654   5.676   2.022   3.446  1.0509  0.9974 -1.7770
35932SOL    HW214655   5.776   1.910   3.429 -0.7236 -1.6279  2.9684
35933SOL     OW14656   8.042   6.616   1.518  0.4229  0.0683  0.1304
35933SOL    HW114657   8.084   6.701   1.527  0.9971 -0.2761  0.7810
35933SOL    HW214658   8.101   6.555   1.563 -0.0730 -0.6442 -0.1630
35934SOL     OW14659  11.054   1.310   8.448  0.3838  0.4840 -0.6883
35934SOL    HW114660  11.145   1.300   8.420  0.5132  0.6221 -0.3287
35934SOL    HW214661  11.029   1.398   8.420  0.5509  0.6669 -0.2716
35935SOL     OW14662   1.393   8.426   8.074  0.3704 -0.0979 -0.3490
35935SOL    HW114663   1.404   8.344   8.025 -1.6607 -0.6880  0.1007
35935SOL    HW214664   1.462   8.483   8.040  2.1727 -2.1187 -0.3404
35936SOL     OW14665   7.609   4.872   2.360  0.2618 -0.0628 -0.0290
35936SOL    HW114666   7.555   4.947   2.335 -0.4225  0.0749  1.7086
35936SOL    HW214667   7.547   4.799   2.362  0.7489 -0.5066 -0.8639
35937SOL     OW14668   4.368   8.584   1.357 -0.3827 -0.5406 -0.0878
35937SOL    HW114669   4.299   8.517   1.359 -1.5021  0.5609 -0.2421
35937SOL    HW214670   4.395   8.586   1.265 -0.4593 -0.6710 -0.1150
35938SOL     OW14671   3.892   4.295  10.096  0.2041  0.2696 -0.3201
35938SOL    HW114672   3.797   4.306  10.101 -0.0950 -1.0845 -2.2615
35938SOL    HW214673   3.905   4.201  10.087  1.7874  0.3786  0.4845
35939SOL     OW14674   8.992   4.739   1.352  0.2651  0.3682 -0.4409
35939SOL    HW114675   8.904   4.704   1.340  0.9177 -1.2156 -0.7277
35939SOL    HW214676   8.999   4.809   1.286 -1.0727  1.1479  0.1949
35940SOL     OW14677   6.480   4.628   2.479  0.4437 -0.1946  0.3047
35940SOL    HW114678   6.388   4.633   2.504  0.1221 -0.0195 -0.8349
35940SOL    HW214679   6.525   4.597   2.557 -0.6113 -0.4563  0.8254
35941SOL     OW14680  11.667   9.764  11.764  0.0959 -0.4844  0.5529
35941SOL    HW114681  11.730   9.780  11.695 -0.1063 -3.1803 -0.3746
35941SOL    HW214682  11.593   9.822  11.744  0.9901  0.4366 -0.1337
35942SOL     OW14683  11.314   6.644   9.458 -0.1371 -0.3201 -0.0734
35942SOL    HW114684  11.287   6.717   9.403  0.2827 -1.5250 -1.9600
35942SOL    HW214685  11.232   6.609   9.493 -0.4962 -0.1455 -0.7273
35943SOL     OW14686   9.155   0.399  10.945  0.6905 -0.5249 -0.0162
35943SOL    HW114687   9.184   0.379  11.034 -0.3331 -1.1199  0.2083
35943SOL    HW214688   9.069   0.439  10.956  0.4936 -0.7235 -0.7456
35944SOL     OW14689   5.000   2.913   1.563 -0.4347  0.0043 -0.3464
35944SOL    HW114690   4.947   2.992   1.553  0.2736  0.6200  0.5985
35944SOL    HW214691   5.000   2.896   1.657 -0.1957 -0.8569 -0.4970
35945SOL     OW14692   2.844   5.779   5.510 -0.1758 -0.2835  0.6981
35945SOL    HW114693   2.760   5.783   5.555 -0.6870  1.3329 -0.3178
35945SOL    HW214694   2.908   5.764   5.580 -1.3176 -1.9256  1.4404
35946SOL     OW14695   7.495   0.417   4.323 -0.3099  0.1958  0.0696
35946SOL    HW114696   7.589   0.428   4.336  0.1159 -1.8548 -0.8531
35946SOL    HW214697   7.488   0.348   4.257 -2.4881 -1.2683  1.7053
35947SOL     OW14698   9.188  10.695   1.276 -0.7203  0.5434  0.4169
35947SOL    HW114699   9.252  10.754   1.234 -0.1602 -0.1511  0.2651
35947SOL    HW214700   9.153  10.643   1.203 -2.6516  1.9636  0.2521
35948SOL     OW14701  10.855   6.834   1.404  0.1475 -0.0660 -0.0872
35948SOL    HW114702  10.884   6.762   1.459  3.2970  1.1850  0.0993
35948SOL    HW214703  10.830   6.903   1.465  2.0119  0.7083 -0.1092
35949SOL     OW14704   8.674  10.873   3.041 -0.5938  0.2008 -0.0895
35949SOL    HW114705   8.649  10.834   2.957  0.2193 -2.2641  0.7171
35949SOL    HW214706   8.631  10.819   3.107  2.3205 -0.8091  1.1674
35950SOL     OW14707   2.554  10.911   4.981  0.1242  0.1004  0.1489
35950SOL    HW114708   2.592  10.867   5.057  1.9037 -3.0845 -2.2855
35950SOL    HW214709   2.461  10.887   4.983 -0.2560  1.4991  2.1018
35951SOL     OW14710   1.301   7.657  11.665  0.5620  0.0269  0.2096
35951SOL    HW114711   1.323   7.580  11.613  0.3346  1.5328 -2.3024
35951SOL    HW214712   1.231   7.627  11.723 -1.7256 -1.0433 -2.8244
35952SOL     OW14713   5.049  10.180   3.889  0.0769  0.1451  0.6176
35952SOL    HW114714   5.036  10.225   3.972 -1.1403 -0.0882  0.5625
35952SOL    HW214715   5.128  10.127   3.903  0.4946  0.9255  1.2594
35953SOL     OW14716  12.450   2.109   0.867  0.3221  0.0711  0.0862
35953SOL    HW114717  12.536   2.137   0.836  0.7079  0.2821  1.2914
35953SOL    HW214718  12.451   2.128   0.961 -0.6778 -0.8234  0.3016
35954SOL     OW14719   9.966   7.315   9.832 -0.0674 -0.4610  0.2926
35954SOL    HW114720   9.945   7.234   9.785 -0.6351  0.1190 -0.4593
35954SOL    HW214721   9.995   7.285   9.919  0.1278 -1.4882 -0.1177
35955SOL     OW14722  10.022   2.407   3.866 -0.1565 -0.3241  0.3694
35955SOL    HW114723  10.059   2.479   3.815 -1.1820  0.4438  0.6561
35955SOL    HW214724  10.093   2.379   3.923  1.1415 -1.4945 -1.7275
35956SOL     OW14725   6.471  10.633   9.758 -0.0120 -0.5741  0.1314
35956SOL    HW114726   6.388  10.642   9.805  0.1033  0.7583  0.1054
35956SOL    HW214727   6.520  10.567   9.808 -0.9233 -1.1033  0.3535
35957SOL     OW14728   6.522   5.077   2.710 -0.2599  0.2098  0.1488
35957SOL    HW114729   6.530   5.146   2.644 -0.2101  1.2081  1.1777
35957SOL    HW214730   6.534   4.996   2.661  1.3914  0.9932 -0.8191
35958SOL     OW14731   1.520   9.084   4.248 -0.8381 -0.2091 -0.3520
35958SOL    HW114732   1.496   9.069   4.339  1.3026 -0.2211  0.2800
35958SOL    HW214733   1.524   9.179   4.239 -0.8808 -0.2089 -0.3683
35959SOL     OW14734   0.327   8.151   0.621 -0.1500  0.2396 -0.4524
35959SOL    HW114735   0.396   8.187   0.677  2.5637  0.7318 -3.7889
35959SOL    HW214736   0.265   8.223   0.609  2.0848  2.0301 -2.2241
35960SOL     OW14737   5.270  12.016   2.566 -0.6070  1.1780  0.5052
35960SOL    HW114738   5.292  12.017   2.473  1.5934  1.9303  0.9693
35960SOL    HW214739   5.175  12.012   2.569 -0.6652 -1.7595 -1.7604
35961SOL     OW14740   8.479   9.061   6.400  0.3866 -0.3939 -0.0465
35961SOL    HW114741   8.403   9.043   6.456 -0.9358 -0.4628 -1.7952
35961SOL    HW214742   8.525   8.978   6.396 -0.9757 -1.1534 -1.1312
35962SOL     OW14743  11.639   3.991   6.306  0.2552  0.2481  0.0770
35962SOL    HW114744  11.581   3.976   6.381  0.2813 -0.6572 -0.0721
35962SOL    HW214745  11.724   3.960   6.335  0.2388 -0.2304 -0.3661
35963SOL     OW14746   9.813   5.592   1.693 -1.0063 -0.3847  0.9096
35963SOL    HW114747   9.827   5.641   1.612  1.6109 -0.9456  0.9543
35963SOL    HW214748   9.764   5.514   1.665  0.1936 -0.7687 -0.2224
35964SOL     OW14749  10.348   4.304   4.896  0.3203  0.3631  0.5510
35964SOL    HW114750  10.354   4.374   4.832 -0.5423 -1.1768 -1.3272
35964SOL    HW214751  10.438   4.274   4.908  0.3760 -0.2716 -1.1304
35965SOL     OW14752  10.781   8.238   3.662  0.2353 -0.0915  0.1797
35965SOL    HW114753  10.869   8.272   3.644  0.0522 -0.0307 -0.6232
35965SOL    HW214754  10.757   8.190   3.583 -0.0067 -1.0650  0.8168
35966SOL     OW14755   6.944   8.571   7.912  0.1382  0.2763  0.1416
35966SOL    HW114756   6.868   8.578   7.970  0.7324  0.7706  0.8810
35966SOL    HW214757   6.968   8.478   7.917 -1.0466 -0.1115 -0.9410
35967SOL     OW14758   4.424   9.220   6.603  0.5495 -0.3093  0.2009
35967SOL    HW114759   4.339   9.197   6.641  1.2123 -0.0176  1.9662
35967SOL    HW214760   4.433   9.162   6.527 -1.3446 -0.1268 -0.1909
35968SOL     OW14761  12.285   8.913   9.678 -0.2948 -0.0138 -0.4107
35968SOL    HW114762  12.251   8.987   9.628  2.3263  1.4518 -0.1832
35968SOL    HW214763  12.218   8.896   9.745 -1.5892  1.1910 -1.3455
35969SOL     OW14764   8.612   4.678   8.780 -0.0075  0.2640  0.1080
35969SOL    HW114765   8.518   4.695   8.771  0.2396  1.1921 -0.8760
35969SOL    HW214766   8.644   4.747   8.838  0.4169  1.2975 -1.2799
35970SOL     OW14767   1.875   3.643   5.282 -0.1848 -0.1684  0.4274
35970SOL    HW114768   1.867   3.568   5.340  0.2148 -0.7748 -0.2862
35970SOL    HW214769   1.791   3.649   5.238 -0.7978  0.8177  1.6613
35971SOL     OW14770   4.767  11.398   9.688 -0.1043  0.5149 -0.5964
35971SOL    HW114771   4.738  11.309   9.705  2.0571 -0.5429 -1.9184
35971SOL    HW214772   4.690  11.453   9.704 -1.0953 -1.3995  1.6596
35972SOL     OW14773   4.294   8.297   5.147 -0.1174 -0.1548 -0.2432
35972SOL    HW114774   4.261   8.267   5.063  0.7736  0.0822 -0.6896
35972SOL    HW214775   4.267   8.229   5.209  1.2176 -1.5551 -1.1106
35973SOL     OW14776  12.288   8.873   3.861 -0.0063 -0.1263  0.0865
35973SOL    HW114777  12.357   8.829   3.910 -0.8862 -1.6694  0.0029
35973SOL    HW214778  12.259   8.944   3.919  0.8053 -0.2289  0.6251
35974SOL     OW14779   7.411   0.711   9.052 -0.1476 -0.1783 -0.0686
35974SOL    HW114780   7.389   0.687   8.962 -0.7740  1.5315 -0.4119
35974SOL    HW214781   7.469   0.786   9.043 -0.1806 -0.0163  0.9512
35975SOL     OW14782   9.295   0.042   7.154 -0.4278 -0.0968  0.0928
35975SOL    HW114783   9.294  -0.036   7.209 -0.6415  0.2393  0.5705
35975SOL    HW214784   9.294   0.115   7.216 -2.9330  0.3220 -0.3246
35976SOL     OW14785   0.000   3.278  10.525 -0.4400  0.2909  0.3166
35976SOL    HW114786  -0.082   3.260  10.570 -0.4159 -3.7385 -0.8038
35976SOL    HW214787  -0.024   3.289  10.433 -0.0195  3.5257  0.4929
35977SOL     OW14788   8.350   8.364   7.060 -0.1253 -0.6652  0.1167
35977SOL    HW114789   8.264   8.406   7.050 -0.7469 -1.7357  0.8347
35977SOL    HW214790   8.355   8.342   7.153  1.3876  0.3245  0.3051
35978SOL     OW14791   5.453  12.124   8.685 -0.0055  0.2561 -0.1402
35978SOL    HW114792   5.398  12.199   8.709 -0.8503 -0.9541  2.0394
35978SOL    HW214793   5.535  12.139   8.731 -0.2876 -0.2666  0.5562
35979SOL     OW14794  10.208   2.461   5.186  0.0038  0.3142 -0.1566
35979SOL    HW114795  10.215   2.541   5.134  0.1272  0.5111  0.1647
35979SOL    HW214796  10.120   2.428   5.166 -0.8004  1.5287  1.1339
35980SOL     OW14797   3.592  12.393   1.722  0.2774 -0.0257  0.4606
35980SOL    HW114798   3.570  12.485   1.707  0.3272  0.0806  1.0524
35980SOL    HW214799   3.663  12.376   1.660  0.6175  0.4733  0.7074
35981SOL     OW14800  10.646   7.164   2.821  0.2190 -0.6689 -0.0925
35981SOL    HW114801  10.628   7.076   2.854 -0.2740 -0.7845 -0.6465
35981SOL    HW214802  10.635   7.221   2.896  1.0594 -1.1301  0.4019
35982SOL     OW14803   5.046   8.956   4.146  0.3454  0.0670 -0.2799
35982SOL    HW114804   5.056   9.050   4.159 -1.4337 -0.0051  2.3661
35982SOL    HW214805   5.100   8.916   4.214 -1.3628 -0.7002  0.6872
35983SOL     OW14806   5.440  12.034   8.071 -0.2699 -0.0070  0.4623
35983SOL    HW114807   5.465  11.944   8.050  0.4034  0.7478 -2.2646
35983SOL    HW214808   5.523  12.078   8.090 -0.0825  0.9093 -2.0929
35984SOL     OW14809  11.170   2.303  12.098  0.4700 -0.5111 -0.7474
35984SOL    HW114810  11.123   2.231  12.057  1.8311 -1.7350 -0.2415
35984SOL    HW214811  11.107   2.342  12.157 -0.4229 -1.0114 -1.3458
35985SOL     OW14812   9.426   9.760   6.722 -0.1134  0.4213  0.9874
35985SOL    HW114813   9.373   9.820   6.669 -0.1193  0.0168  0.5238
35985SOL    HW214814   9.362   9.707   6.770 -0.1024  0.9968  1.6369
35986SOL     OW14815  10.550   4.085  10.086  0.7682 -0.6915  0.4321
35986SOL    HW114816  10.534   4.179  10.084  2.8708 -0.2756  0.9492
35986SOL    HW214817  10.535   4.057   9.995 -1.4641 -0.2149  0.5918
35987SOL     OW14818  10.672   6.056  11.450 -0.0130  0.7932  0.3304
35987SOL    HW114819  10.623   6.085  11.373  0.6279  0.6568 -0.1342
35987SOL    HW214820  10.605   6.043  11.517 -0.6137  0.6287 -0.2875
35988SOL     OW14821   1.389   0.302   1.435 -0.2806 -0.1241 -0.5920
35988SOL    HW114822   1.349   0.344   1.359  1.2808  0.8636 -0.9206
35988SOL    HW214823   1.477   0.277   1.405  1.4737  2.8006  1.5552
35989SOL     OW14824   9.067   4.139   1.916 -0.5210  0.0964  0.1920
35989SOL    HW114825   9.026   4.072   1.861 -2.8725  1.2927  0.3660
35989SOL    HW214826   9.156   4.147   1.881 -1.4451 -0.2231 -2.4804
35990SOL     OW14827   3.658   7.108   3.196  0.4755  0.3204 -0.2534
35990SOL    HW114828   3.726   7.042   3.183  0.4040  0.1407  0.3012
35990SOL    HW214829   3.706   7.191   3.201  0.4437  0.5796 -2.8853
35991SOL     OW14830   7.317   5.254  10.301  0.2645 -0.0581  0.1338
35991SOL    HW114831   7.297   5.191  10.370 -0.7836 -0.9854 -0.9727
35991SOL    HW214832   7.232   5.278  10.264  0.6947  1.5406  0.0998
35992SOL     OW14833   1.542   3.953   3.992 -0.4792  0.5001  0.6831
35992SOL    HW114834   1.626   3.912   4.012 -0.0064  1.1289  0.0372
35992SOL    HW214835   1.512   3.910   3.912 -1.1248 -0.2128  1.2914
35993SOL     OW14836   5.985  11.284   8.010  0.2809  0.0495 -0.4493
35993SOL    HW114837   5.970  11.199   7.969 -0.6528 -0.4595  0.8763
35993SOL    HW214838   5.997  11.264   8.103  0.2077  1.3500 -0.1430
35994SOL     OW14839   6.868   4.476  10.057 -0.3226 -0.1969  0.1481
35994SOL    HW114840   6.793   4.496  10.112 -0.5951  0.6512 -0.4996
35994SOL    HW214841   6.910   4.561  10.042  1.4816 -0.8028  1.4829
35995SOL     OW14842   3.701   5.922   8.669  0.3513  0.0327  0.0834
35995SOL    HW114843   3.714   5.990   8.735 -0.7748  0.8712 -0.5108
35995SOL    HW214844   3.677   5.971   8.590 -1.7592 -1.0934 -0.0401
35996SOL     OW14845   1.104   6.188   1.260  0.7503  0.0943 -0.0218
35996SOL    HW114846   1.066   6.172   1.346  0.4648  2.3509  0.3154
35996SOL    HW214847   1.060   6.125   1.202 -1.5569  0.8068  0.8544
35997SOL     OW14848   2.821  10.768  11.976  0.5287 -0.0453  0.2673
35997SOL    HW114849   2.901  10.802  12.015 -1.1610  1.7156  2.4673
35997SOL    HW214850   2.832  10.673  11.980  1.6281  0.1046  2.5835
35998SOL     OW14851   2.363  10.541   8.123 -0.5239  0.0715  0.2539
35998SOL    HW114852   2.407  10.515   8.042 -1.4946  0.5836 -0.4575
35998SOL    HW214853   2.429  10.529   8.191  1.1752  2.0496 -0.9235
35999SOL     OW14854   8.785   3.348   1.538  0.0850  0.1735  0.4281
35999SOL    HW114855   8.843   3.419   1.565  0.1548  0.8318 -1.3197
35999SOL    HW214856   8.710   3.392   1.498 -1.5107 -0.6662  2.3005
36000SOL     OW14857  11.416   8.915   5.553 -0.4842  0.4045 -0.3993
36000SOL    HW114858  11.420   8.984   5.620 -1.9304 -2.3638  2.8283
36000SOL    HW214859  11.473   8.846   5.587  0.7587 -0.2070 -3.3977
36001SOL     OW14860   4.415   7.606  10.394 -0.3816 -0.0488  0.8051
36001SOL    HW114861   4.466   7.532  10.427 -1.5126 -0.2317  2.2502
36001SOL    HW214862   4.326   7.590  10.426 -0.3348  2.8175  2.7456
36002SOL     OW14863   2.665   0.682   3.658 -0.0338  0.3376  0.4256
36002SOL    HW114864   2.730   0.654   3.721  0.3746 -0.3925 -0.3036
36002SOL    HW214865   2.698   0.766   3.625  0.3265  0.1771  0.3716
36003SOL     OW14866   6.910   3.402   8.501  0.5066  0.1978 -0.0379
36003SOL    HW114867   6.833   3.429   8.449 -0.4797 -1.1782  0.6372
36003SOL    HW214868   6.974   3.376   8.436 -0.0169  0.2900 -0.6056
36004SOL     OW14869   0.235   8.644   2.526  0.1001  0.3092 -0.0913
36004SOL    HW114870   0.203   8.716   2.580  1.6341  2.3381 -1.7146
36004SOL    HW214871   0.173   8.639   2.453 -0.4446 -0.6018  0.4097
36005SOL     OW14872   8.141  11.233   2.963 -0.2432 -0.0829 -0.3944
36005SOL    HW114873   8.180  11.284   3.034  0.1744  0.1513 -0.7856
36005SOL    HW214874   8.090  11.297   2.913 -0.7184 -0.2913 -0.1746
36006SOL     OW14875  10.934  12.555   2.155  0.5312  1.0882 -0.3605
36006SOL    HW114876  10.947  12.600   2.238 -0.4897 -0.2340  0.5770
36006SOL    HW214877  10.941  12.623   2.088  1.6425  2.1351  0.7839
36007SOL     OW14878   1.704   1.245  11.546  0.4733 -0.8270  0.0507
36007SOL    HW114879   1.746   1.294  11.617 -2.3175 -0.1939  1.3913
36007SOL    HW214880   1.699   1.309  11.474 -3.4549  1.2940  1.8958
36008SOL     OW14881   9.371   6.746   4.528 -0.0777  0.4399  0.2445
36008SOL    HW114882   9.445   6.803   4.509 -0.6851  1.1204 -0.1417
36008SOL    HW214883   9.303   6.773   4.465 -0.1057 -1.2561 -0.5132
36009SOL     OW14884   2.680  11.124   3.685  0.4075 -0.3688 -0.3256
36009SOL    HW114885   2.651  11.190   3.622  1.0759 -0.1249 -0.3781
36009SOL    HW214886   2.657  11.160   3.770 -0.5037 -0.7026 -0.4195
36010SOL     OW14887   0.652   4.834   0.311 -0.2588  0.2941 -0.3865
36010SOL    HW114888   0.643   4.918   0.354  0.7522  0.2788 -0.1296
36010SOL    HW214889   0.723   4.846   0.248 -1.3549  0.1718 -1.7158
36011SOL     OW14890   8.258   0.904   1.370  0.0279 -0.6977 -0.0321
36011SOL    HW114891   8.205   0.982   1.348 -0.9341 -0.6438  2.2319
36011SOL    HW214892   8.205   0.830   1.340  0.5890 -0.5510 -1.4765
36012SOL     OW14893   0.646   2.836  12.182  0.0001 -0.2716 -0.2673
36012SOL    HW114894   0.578   2.772  12.202 -0.3158  0.1213 -0.0598
36012SOL    HW214895   0.602   2.921  12.188  0.5363 -0.0048 -0.0041
36013SOL     OW14896  12.265   8.273  10.564 -0.8122 -0.1014 -0.2149
36013SOL    HW114897  12.306   8.346  10.518 -0.0952 -1.4002 -1.7563
36013SOL    HW214898  12.337   8.213  10.583 -1.5554 -0.9930 -0.1441
36014SOL     OW14899   4.084   8.291   2.918 -0.3268 -0.0089  0.1977
36014SOL    HW114900   4.166   8.302   2.870 -0.1451 -1.5234  0.1212
36014SOL    HW214901   4.016   8.293   2.851 -0.1247 -1.4502 -0.0778
36015SOL     OW14902   0.965   8.144  10.352  0.1930  0.5880 -0.7108
36015SOL    HW114903   0.972   8.049  10.364  0.6015  0.4510 -1.8505
36015SOL    HW214904   1.004   8.160  10.266 -0.4551  1.7175 -0.8172
36016SOL     OW14905   4.834   7.268   3.985 -0.1879  0.3691  0.4131
36016SOL    HW114906   4.879   7.350   3.965 -0.3296  0.8042  1.7623
36016SOL    HW214907   4.745   7.295   4.009 -1.0478 -0.4283 -1.6661
36017SOL     OW14908   6.165   4.266   4.125 -0.0874 -0.2700 -0.3339
36017SOL    HW114909   6.255   4.276   4.093 -0.1785 -0.2276 -0.5826
36017SOL    HW214910   6.129   4.354   4.122 -0.5265 -0.4663 -1.4253
36018SOL     OW14911  10.685   2.816   4.867  0.8006 -0.4007 -0.3337
36018SOL    HW114912  10.672   2.847   4.956  0.8374 -0.4529 -0.3095
36018SOL    HW214913  10.756   2.871   4.832  0.0790  0.3195 -0.6875
36019SOL     OW14914   8.900   4.594   3.317  0.8200  0.2027 -0.1525
36019SOL    HW114915   8.817   4.551   3.334  1.0428 -1.0902 -2.0852
36019SOL    HW214916   8.922   4.637   3.400 -0.3811 -1.7816  1.2767
36020SOL     OW14917  10.923   9.178  10.962  0.1066 -0.4827 -0.3023
36020SOL    HW114918  10.970   9.094  10.957  0.5893 -0.2486  0.2475
36020SOL    HW214919  10.992   9.243  10.975 -0.0719  0.2406 -2.4942
36021SOL     OW14920   2.921   4.808   8.198 -0.0901 -0.5400  0.7260
36021SOL    HW114921   2.846   4.853   8.237  0.4536 -0.1087  1.3028
36021SOL    HW214922   2.960   4.873   8.140 -0.5068 -0.9625 -0.0351
36022SOL     OW14923   2.110   1.169   1.960 -0.1757  0.4056 -0.1897
36022SOL    HW114924   2.169   1.197   1.891 -2.1947 -0.2488 -2.2989
36022SOL    HW214925   2.066   1.091   1.924 -1.2949  0.0311  1.8279
36023SOL     OW14926  12.269   3.278   2.248  0.0137 -0.1152  0.4747
36023SOL    HW114927  12.282   3.356   2.194 -2.1484  0.0950  0.1465
36023SOL    HW214928  12.355   3.239   2.255  1.0042  1.8136 -0.1151
36024SOL     OW14929   0.977   4.784   0.458  0.1937 -0.0201  0.0510
36024SOL    HW114930   1.005   4.767   0.548 -2.8698 -0.6376  1.0134
36024SOL    HW214931   0.921   4.709   0.436  1.2280 -0.1301 -2.5994
36025SOL     OW14932  11.566   9.013   2.182 -0.0095  0.4211  0.3955
36025SOL    HW114933  11.494   8.950   2.183  0.6239 -0.3161  0.4335
36025SOL    HW214934  11.635   8.969   2.132  0.2141  1.3476 -0.1277
36026SOL     OW14935   0.997   3.146   9.128 -0.0957  0.0215  0.0208
36026SOL    HW114936   0.952   3.086   9.189 -0.0481 -0.9535 -0.8708
36026SOL    HW214937   1.019   3.222   9.182 -0.0156 -0.8224  1.2368
36027SOL     OW14938   0.747  11.741   4.220  0.9037 -0.3133  0.2928
36027SOL    HW114939   0.817  11.762   4.158 -2.4439  0.3077 -3.7110
36027SOL    HW214940   0.714  11.656   4.191  0.1559 -0.7734  2.3183
36028SOL     OW14941  10.500   7.977   6.573  0.1653 -0.0081  0.5071
36028SOL    HW114942  10.469   7.887   6.566 -0.2596  0.1816 -0.1401
36028SOL    HW214943  10.591   7.969   6.601  0.0835 -0.6318  0.6155
36029SOL     OW14944   3.485   5.925   3.134  0.7576  0.1800 -0.0121
36029SOL    HW114945   3.463   5.839   3.098  2.5658  0.0445 -0.8763
36029SOL    HW214946   3.400   5.968   3.145 -0.0659 -0.9790 -1.4379
36030SOL     OW14947  10.120   1.275   4.070 -0.0258  0.5859 -0.4966
36030SOL    HW114948  10.199   1.225   4.086  0.5696  1.8730  0.7792
36030SOL    HW214949  10.146   1.367   4.079 -2.1127  1.0363  2.5491
36031SOL     OW14950   1.060  11.649  11.615 -0.4940  0.0295 -0.1392
36031SOL    HW114951   1.067  11.714  11.544 -0.5182  0.0133 -0.1560
36031SOL    HW214952   1.001  11.582  11.581  0.2564 -0.4699 -0.4816
36032SOL     OW14953   2.602  10.672   1.771 -0.2301  1.0357  0.4079
36032SOL    HW114954   2.654  10.749   1.750  1.5212 -0.3870 -0.7754
36032SOL    HW214955   2.547  10.659   1.693 -1.1982  1.5953  0.9845
36033SOL     OW14956   7.608   2.461   1.859 -0.4996  0.2809  0.3774
36033SOL    HW114957   7.565   2.506   1.932 -0.2445  0.5303  0.3755
36033SOL    HW214958   7.702   2.467   1.880 -0.2933  1.9350 -0.8684
36034SOL     OW14959   7.930   1.429   3.430  0.0287  0.1943 -0.2120
36034SOL    HW114960   8.021   1.447   3.452 -0.2977 -0.6557  2.0875
36034SOL    HW214961   7.884   1.512   3.447  0.1525  0.2146  0.0223
36035SOL     OW14962   6.905  10.259   3.080 -0.0796  0.4069  0.0323
36035SOL    HW114963   6.982  10.238   3.133  1.2539  0.1106 -1.9337
36035SOL    HW214964   6.930  10.340   3.034 -1.6582  1.3081  0.6853
36036SOL     OW14965   4.280   4.160   1.576 -0.9562  0.0145 -0.1513
36036SOL    HW114966   4.244   4.073   1.591  0.8651 -0.5973  1.0185
36036SOL    HW214967   4.366   4.143   1.535 -0.4172  1.2305  0.4406
36037SOL     OW14968  12.313   5.224   3.736  0.2159  0.1052 -0.4298
36037SOL    HW114969  12.305   5.136   3.774 -0.4727 -0.4875 -1.8607
36037SOL    HW214970  12.362   5.210   3.655 -0.8572  0.8603 -1.2276
36038SOL     OW14971   2.027   0.483  11.547  0.1578  0.3534 -0.5008
36038SOL    HW114972   2.046   0.403  11.596  0.8203  0.8728  0.1115
36038SOL    HW214973   1.966   0.455  11.479 -1.5102 -0.2440  1.1516
36039SOL     OW14974   0.947   9.458   1.256 -0.4320 -0.3451  0.0944
36039SOL    HW114975   0.935   9.472   1.162 -0.3094  2.2783  0.3998
36039SOL    HW214976   0.931   9.544   1.296  1.5885 -0.8605  2.2760
36040SOL     OW14977  10.860   5.190  11.394  0.0467 -0.2139 -0.5243
36040SOL    HW114978  10.922   5.120  11.375  0.2693 -0.4283  0.8765
36040SOL    HW214979  10.797   5.187  11.322 -1.0749 -3.1319  0.4461
36041SOL     OW14980   0.995   1.581   6.100 -0.2631  0.1302 -0.0805
36041SOL    HW114981   1.089   1.563   6.094 -0.1258  0.3753  1.0882
36041SOL    HW214982   0.987   1.675   6.080 -0.6137 -0.4158 -2.9565
36042SOL     OW14983   5.164   6.680   9.354 -0.6439  0.6850  0.6975
36042SOL    HW114984   5.236   6.737   9.325 -0.0418 -1.2685 -2.0728
36042SOL    HW214985   5.163   6.689   9.449  1.4224  2.9225  0.5951
36043SOL     OW14986   3.677   9.554  11.703 -0.0383  0.4659 -0.1662
36043SOL    HW114987   3.683   9.601  11.786 -0.4751  1.4655 -0.6784
36043SOL    HW214988   3.760   9.572  11.660  0.9599 -1.5718  0.7973
36044SOL     OW14989   7.501   4.893  10.595 -0.5604 -0.5257 -0.2001
36044SOL    HW114990   7.438   4.865  10.662 -1.4317  1.6550 -0.0287
36044SOL    HW214991   7.529   4.980  10.624  0.4507 -0.3152 -1.7317
36045SOL     OW14992   0.015  12.458   0.034  0.8221 -0.1201 -0.2404
36045SOL    HW114993   0.030  12.405   0.112  0.4602 -1.2017 -0.8873
36045SOL    HW214994   0.093  12.514   0.028  1.8186 -1.4588 -0.2305
36046SOL     OW14995  10.714   7.135   6.615  0.3949 -0.4131  0.0832
36046SOL    HW114996  10.786   7.196   6.634 -0.7642  0.7725  0.8925
36046SOL    HW214997  10.671   7.172   6.537 -0.2996 -0.1732  0.5658
36047SOL     OW14998   8.403   1.174   5.399 -0.3937  0.0677  0.0226
36047SOL    HW114999   8.343   1.231   5.351  0.1185  0.4939 -0.1231
36047SOL    HW215000   8.396   1.202   5.490 -0.3193  0.2069 -0.0140
36048SOL     OW15001   5.959   2.110  12.123  0.3432  0.6033  0.0659
36048SOL    HW115002   6.041   2.078  12.161  1.0036  1.3556 -0.6924
36048SOL    HW215003   5.955   2.202  12.147 -0.5728  0.4357  0.5822
36049SOL     OW15004   5.028   6.966  11.426  0.6822 -0.0796 -0.2609
36049SOL    HW115005   4.999   6.876  11.438  0.5691 -0.3278 -2.1563
36049SOL    HW215006   5.108   6.973  11.479  0.9327 -1.4200 -0.4330
36050SOL     OW15007   2.890   7.094   7.492 -0.2156 -0.0553 -0.1445
36050SOL    HW115008   2.850   7.181   7.491 -1.2149 -0.4262 -2.8469
36050SOL    HW215009   2.964   7.102   7.430 -0.3201 -1.1069 -0.4150
36051SOL     OW15010   7.164   9.952   9.372  0.1339  0.7481  0.4032
36051SOL    HW115011   7.102  10.005   9.422 -0.9090  0.6102 -0.6905
36051SOL    HW215012   7.127   9.863   9.374  0.4293  0.6102 -0.0577
36052SOL     OW15013   7.769   0.767   2.896  0.0968  0.1909  0.0070
36052SOL    HW115014   7.862   0.757   2.916  0.0007 -0.1086  0.3099
36052SOL    HW215015   7.729   0.793   2.979 -0.0453  0.6201 -0.1935
36053SOL     OW15016  11.068   8.867  10.259  0.5858  0.4019 -0.6380
36053SOL    HW115017  11.128   8.795  10.279 -0.1819 -0.3542 -1.0070
36053SOL    HW215018  11.042   8.853  10.168  1.0993  1.6520 -1.0045
36054SOL     OW15019   0.412   1.928   2.140 -0.1648 -0.3786  0.0883
36054SOL    HW115020   0.385   1.882   2.060 -0.2590 -0.5499  0.2180
36054SOL    HW215021   0.330   1.956   2.180 -0.0575  1.4820 -0.9026
36055SOL     OW15022  11.434   7.388   7.296  0.3286 -0.0160  0.3660
36055SOL    HW115023  11.413   7.302   7.260 -1.5012  1.3484 -2.1951
36055SOL    HW215024  11.471   7.437   7.222 -1.7424  2.3340  0.7341
36056SOL     OW15025  10.774   0.177  10.850 -0.3048  0.2357  0.6999
36056SOL    HW115026  10.743   0.267  10.842  1.0835  0.7461  0.7879
36056SOL    HW215027  10.710   0.126  10.801 -0.7481  1.3619  0.0500
36057SOL     OW15028   3.093   4.520   4.346 -0.0777 -0.1484  0.2365
36057SOL    HW115029   3.114   4.488   4.434  0.0886 -1.9347 -0.4185
36057SOL    HW215030   3.000   4.500   4.335 -0.1803  0.3842  0.1201
36058SOL     OW15031   6.528   6.356  10.887 -0.1545 -0.3515  0.3730
36058SOL    HW115032   6.601   6.336  10.946  2.6941  2.1628 -1.9592
36058SOL    HW215033   6.524   6.283  10.826 -2.7732 -2.7068  3.0276
36059SOL     OW15034   8.778  11.251   6.271  0.2056 -0.0674 -0.2618
36059SOL    HW115035   8.816  11.258   6.184  0.3526 -0.9458 -0.2782
36059SOL    HW215036   8.684  11.237   6.255  0.1395  0.3542 -0.2594
36060SOL     OW15037  12.465   7.284  11.294 -0.1724  0.3705  0.0269
36060SOL    HW115038  12.543   7.338  11.294 -0.2418  0.4747  0.2448
36060SOL    HW215039  12.495   7.198  11.264 -0.1510  0.6481 -0.7609
36061SOL     OW15040   0.073   4.272  10.039  0.0734  0.3178  0.1705
36061SOL    HW115041  -0.009   4.304  10.077 -0.8243 -0.3118 -1.1700
36061SOL    HW215042   0.085   4.185  10.078 -0.3088  0.0935 -0.2072
36062SOL     OW15043   9.593   2.390   7.300 -0.1397 -0.3936  0.4634
36062SOL    HW115044   9.594   2.312   7.245 -0.4207  0.9061 -1.4699
36062SOL    HW215045   9.685   2.419   7.303 -0.4153  0.8338 -1.3462
36063SOL     OW15046   7.451   5.088   9.350 -0.0766  0.4689 -0.0486
36063SOL    HW115047   7.360   5.098   9.379 -0.1856 -1.4065  0.3675
36063SOL    HW215048   7.501   5.080   9.431  0.3754  0.7423 -0.2939
36064SOL     OW15049   5.712   5.326  10.014  0.7071 -0.0748 -0.2413
36064SOL    HW115050   5.783   5.351  10.073  0.2916  0.2916  0.1096
36064SOL    HW215051   5.743   5.245   9.973  0.5272 -1.0161  1.3642
36065SOL     OW15052  10.718   7.206   7.344 -0.3988  0.0594 -0.5184
36065SOL    HW115053  10.812   7.217   7.333 -0.0703 -0.4650  1.3954
36065SOL    HW215054  10.684   7.295   7.354  0.3579  0.1650  1.7082
36066SOL     OW15055   3.732   6.471   0.802  0.0897 -0.7597  0.1654
36066SOL    HW115056   3.702   6.385   0.773 -0.7359 -0.3018 -0.3640
36066SOL    HW215057   3.699   6.479   0.891 -1.7411 -0.1095 -0.5297
36067SOL     OW15058   2.745   5.191   3.258 -0.6637  0.2437 -0.4305
36067SOL    HW115059   2.762   5.129   3.187 -0.2105  0.7503 -0.7635
36067SOL    HW215060   2.726   5.274   3.215  1.8191  1.1282  0.0500
36068SOL     OW15061   9.369   9.263   2.158 -0.1303 -0.1329 -0.5486
36068SOL    HW115062   9.329   9.176   2.149 -0.5748  0.0690 -0.5297
36068SOL    HW215063   9.309   9.312   2.214  1.6199 -0.7508  2.0414
36069SOL     OW15064   6.023   0.232   6.742  0.2999  0.1653 -0.0301
36069SOL    HW115065   6.088   0.187   6.688 -0.2273 -2.1408  1.1006
36069SOL    HW215066   5.939   0.199   6.710 -0.0587 -0.5566  1.5376
36070SOL     OW15067   0.298   4.405  12.000 -0.5046  0.0286 -0.0801
36070SOL    HW115068   0.351   4.449  11.934 -1.4178  0.7920 -0.3407
36070SOL    HW215069   0.303   4.313  11.977  1.1023  0.0140  0.2174
36071SOL     OW15070  10.923   6.408   6.333  0.2630  0.0892 -0.0242
36071SOL    HW115071  10.836   6.446   6.344 -0.0684 -0.9564  1.1909
36071SOL    HW215072  10.944   6.423   6.241 -2.1090 -1.4782 -0.9377
36072SOL     OW15073   8.672   2.418  10.603 -0.0151  0.3947 -0.4097
36072SOL    HW115074   8.696   2.511  10.607 -0.1653  0.4057  0.3492
36072SOL    HW215075   8.647   2.396  10.693  0.8471 -0.6126 -0.4083
36073SOL     OW15076   4.579   5.393  11.071  0.1057  0.0739  0.3029
36073SOL    HW115077   4.613   5.481  11.056 -0.3835  0.2023 -0.0351
36073SOL    HW215078   4.560   5.359  10.984 -0.6210 -0.0085  0.4945
36074SOL     OW15079   4.085   0.760   6.797  0.2134  0.6249 -0.0685
36074SOL    HW115080   4.108   0.668   6.808  0.1957  0.5573 -0.5671
36074SOL    HW215081   4.111   0.801   6.879 -1.0001 -0.0669  0.6980
36075SOL     OW15082   4.344  11.047   7.943  0.0454  0.3466 -0.2945
36075SOL    HW115083   4.431  11.024   7.909 -0.3249 -0.5826 -0.6380
36075SOL    HW215084   4.288  11.052   7.866 -0.7852 -1.7094  0.1023
36076SOL     OW15085   2.594   3.962   4.172  0.1298 -0.7615  0.1911
36076SOL    HW115086   2.511   3.928   4.205  0.2026  1.0141  2.4454
36076SOL    HW215087   2.590   4.056   4.188  2.6827 -0.6485  0.7331
36077SOL     OW15088   4.509   8.256   0.933  0.1568  0.1948  0.0149
36077SOL    HW115089   4.424   8.299   0.948  0.6051  1.6178 -1.2887
36077SOL    HW215090   4.573   8.317   0.969  0.6748 -0.6373  0.5322
36078SOL     OW15091   5.703  10.664  11.858  0.1172  0.1792 -0.2844
36078SOL    HW115092   5.751  10.656  11.776  0.2389  1.6184 -0.3761
36078SOL    HW215093   5.763  10.629  11.924  0.7498  0.6908 -0.5756
36079SOL     OW15094   0.185   7.256   7.657  0.3527 -0.0399 -0.5701
36079SOL    HW115095   0.129   7.209   7.595 -0.5103  0.6733 -0.3470
36079SOL    HW215096   0.131   7.265   7.736  1.3443 -0.7135  0.2142
36080SOL     OW15097  10.280   3.658   9.438  0.6410 -0.3543  0.5157
36080SOL    HW115098  10.245   3.574   9.468  1.3932 -0.5491  0.8602
36080SOL    HW215099  10.277   3.653   9.342  0.9876 -0.9031  0.5345
36081SOL     OW15100   1.284  10.479   4.292  0.5959 -0.2239  0.0617
36081SOL    HW115101   1.332  10.549   4.336  2.1324 -0.0514 -1.7864
36081SOL    HW215102   1.252  10.423   4.363  1.0233  1.2554  1.4713
36082SOL     OW15103  12.266   3.492   6.702 -0.1667 -0.1644  0.6753
36082SOL    HW115104  12.282   3.579   6.739  1.2731  0.2826 -0.8445
36082SOL    HW215105  12.235   3.509   6.613  0.3947 -1.2045  0.2631
36083SOL     OW15106   3.004   8.925   5.750 -0.0772  0.0893 -0.2199
36083SOL    HW115107   2.966   9.006   5.783  1.2647  1.1628 -1.1972
36083SOL    HW215108   3.051   8.951   5.671 -0.6051 -1.8624 -1.2440
36084SOL     OW15109   7.733  10.636  11.275 -0.0259 -0.2589  0.1672
36084SOL    HW115110   7.745  10.555  11.225 -1.6341 -0.0531 -0.5915
36084SOL    HW215111   7.815  10.685  11.261  0.3082 -1.0339 -0.7031
36085SOL     OW15112   5.098   6.823   7.227 -0.2644 -0.5641 -0.2122
36085SOL    HW115113   5.110   6.739   7.271  0.4828 -1.6408 -2.2971
36085SOL    HW215114   5.183   6.840   7.186 -0.6799  0.7616 -0.5724
36086SOL     OW15115  10.717   9.993   2.937  0.0988 -0.2865  0.3203
36086SOL    HW115116  10.730   9.974   3.029 -1.2649 -0.2738  0.5365
36086SOL    HW215117  10.672  10.077   2.936  0.2055 -0.2293 -0.3648
36087SOL     OW15118   1.899   3.608   3.105 -0.5018  0.9086 -0.3690
36087SOL    HW115119   1.816   3.580   3.145  0.0930 -0.4514 -0.0062
36087SOL    HW215120   1.913   3.696   3.140 -0.0047 -0.2071  2.5546
36088SOL     OW15121   8.274  12.269   7.537  0.5082  0.1781 -0.3165
36088SOL    HW115122   8.246  12.196   7.482  0.3238  0.6334 -0.8448
36088SOL    HW215123   8.365  12.285   7.511  0.4164  0.4036 -0.5071
36089SOL     OW15124   8.629   2.655  10.990  0.0158 -0.1093  0.1486
36089SOL    HW115125   8.718   2.660  10.955  0.2125  0.4750  0.6969
36089SOL    HW215126   8.633   2.705  11.072 -0.8568  0.0655  0.0933
36090SOL     OW15127   3.639   0.309   9.637 -0.5053 -0.6021 -0.0404
36090SOL    HW115128   3.693   0.286   9.561  0.5736  0.3723  0.4215
36090SOL    HW215129   3.643   0.231   9.693 -0.3698 -0.8915 -0.4404
36091SOL     OW15130   9.464   5.549   7.232  0.0392 -0.1906  0.2738
36091SOL    HW115131   9.438   5.469   7.278  0.9877 -0.3459  0.5598
36091SOL    HW215132   9.520   5.518   7.160  0.2677  0.2038  0.2801
36092SOL     OW15133   0.565   0.996   2.570  0.3783 -0.3081 -0.4856
36092SOL    HW115134   0.497   1.033   2.513 -0.8052 -1.2512  0.2638
36092SOL    HW215135   0.550   0.902   2.568  2.8616 -0.7519 -1.7408
36093SOL     OW15136   5.588  11.599   5.678  0.0881  0.3114  0.2456
36093SOL    HW115137   5.676  11.587   5.713  0.7705  1.1212 -1.1165
36093SOL    HW215138   5.531  11.593   5.755  1.2221 -1.0993  1.0426
36094SOL     OW15139   3.219   8.856   8.147  0.3318  0.1275 -0.3876
36094SOL    HW115140   3.222   8.917   8.221  0.9415 -0.1592 -0.1739
36094SOL    HW215141   3.309   8.825   8.137 -0.0304 -1.0048 -0.2771
36095SOL     OW15142   9.603   3.574   6.178 -0.1322  0.1440  0.3220
36095SOL    HW115143   9.579   3.511   6.110  0.6909 -0.0896  0.2369
36095SOL    HW215144   9.522   3.619   6.199 -0.5617 -0.3658 -0.2188
36096SOL     OW15145  11.628   7.669   1.997  0.0925  0.3667 -0.0668
36096SOL    HW115146  11.548   7.630   1.962  0.9355 -0.8826 -0.6750
36096SOL    HW215147  11.645   7.621   2.078  0.6876  0.0270 -0.3851
36097SOL     OW15148   5.670  12.316   8.368  0.0207 -0.0367 -0.2936
36097SOL    HW115149   5.731  12.247   8.343 -0.1494  0.1911 -1.4037
36097SOL    HW215150   5.685  12.385   8.303 -0.8885  0.3322 -0.1265
36098SOL     OW15151   6.757  11.487  10.399 -0.2222 -0.3893 -0.0058
36098SOL    HW115152   6.803  11.534  10.469 -2.1839  0.1014  1.0432
36098SOL    HW215153   6.788  11.528  10.318  0.1381  0.8600  0.7358
36099SOL     OW15154   0.684   8.161   1.359  0.5097 -0.3174  0.0855
36099SOL    HW115155   0.704   8.087   1.417  1.6579 -0.5835 -0.6115
36099SOL    HW215156   0.724   8.137   1.275 -0.5624  0.3429 -0.6462
36100SOL     OW15157   3.953   7.573   0.002 -0.0274 -0.0955  0.3995
36100SOL    HW115158   3.985   7.543  -0.084  0.3818 -0.1504  0.5673
36100SOL    HW215159   3.994   7.659   0.013  1.1347 -0.7346  1.2024
36101SOL     OW15160   2.066   1.735   8.195 -0.1497 -0.2240  0.3763
36101SOL    HW115161   2.025   1.794   8.133  1.1635  0.5919  0.2478
36101SOL    HW215162   2.051   1.648   8.159 -3.0428 -0.1190  1.1225
36102SOL     OW15163   3.037  12.222   1.415  0.5117 -0.0257 -0.0923
36102SOL    HW115164   3.122  12.179   1.426  0.9024 -0.0103 -2.5798
36102SOL    HW215165   3.058  12.315   1.407  0.3247 -0.0680 -1.1688
36103SOL     OW15166   4.815  11.048  10.684 -0.0068 -0.4624  0.2235
36103SOL    HW115167   4.727  11.079  10.662 -0.2292 -1.6390 -0.6522
36103SOL    HW215168   4.803  10.955  10.703  0.9472 -0.4786  0.7955
36104SOL     OW15169   8.243   6.637   3.739  0.1459 -0.3034 -0.3965
36104SOL    HW115170   8.320   6.661   3.790  0.2763  3.7596 -2.1180
36104SOL    HW215171   8.169   6.659   3.797  0.2836 -0.5383 -0.1283
36105SOL     OW15172   8.682   9.559  11.596  0.6132  0.3676 -0.6206
36105SOL    HW115173   8.769   9.569  11.636  2.2921 -1.3979 -3.4916
36105SOL    HW215174   8.653   9.649  11.580  0.4188  1.1347  3.0655
36106SOL     OW15175  11.064   8.562  12.333  0.0112  0.1289 -0.4126
36106SOL    HW115176  11.043   8.529  12.421 -1.0869  0.1244 -0.6669
36106SOL    HW215177  11.039   8.491  12.274  0.8972  0.0700 -0.7347
36107SOL     OW15178   3.401   3.889   1.953  0.4265 -0.0898 -0.0244
36107SOL    HW115179   3.467   3.827   1.923  0.3722 -0.0855 -0.1528
36107SOL    HW215180   3.451   3.964   1.985  0.4671  1.3158 -3.0404
36108SOL     OW15181   8.527   3.171   6.520  0.2349 -0.2516  0.0018
36108SOL    HW115182   8.522   3.254   6.568 -0.0385 -1.4010  2.0761
36108SOL    HW215183   8.547   3.196   6.430 -0.2945  2.0845  0.4768
36109SOL     OW15184   2.909  10.322   4.308 -0.5419  0.3384  0.3049
36109SOL    HW115185   2.877  10.232   4.316 -1.7314  0.6871 -0.2374
36109SOL    HW215186   2.961  10.322   4.228  1.4841 -0.3991  1.5604
36110SOL     OW15187  10.447   8.389   5.244  0.1449  0.1542  1.1006
36110SOL    HW115188  10.415   8.331   5.313  1.9668  0.2021  2.0581
36110SOL    HW215189  10.498   8.456   5.290  2.1121 -0.2764 -0.2868
36111SOL     OW15190  12.216   6.534   2.412  0.0082  0.2520  0.3806
36111SOL    HW115191  12.192   6.530   2.505 -2.1564 -1.5953 -0.1626
36111SOL    HW215192  12.154   6.596   2.374  0.5842  0.6469  0.0727
36112SOL     OW15193  10.646   7.901   9.726 -0.0516  0.2977  0.5440
36112SOL    HW115194  10.557   7.922   9.753 -1.1843 -1.5601 -1.3828
36112SOL    HW215195  10.635   7.855   9.642  2.6261 -0.9486  0.7678
36113SOL     OW15196   5.417   0.347   4.070 -0.0273 -0.4468  0.2714
36113SOL    HW115197   5.351   0.410   4.040 -1.0254 -1.3507  0.5350
36113SOL    HW215198   5.499   0.396   4.065 -0.8877  1.2264  1.3940
36114SOL     OW15199  10.306  12.028  11.381  0.4773  0.3687 -0.7476
36114SOL    HW115200  10.397  12.026  11.411  0.5747  0.2965 -1.0444
36114SOL    HW215201  10.309  11.991  11.293  0.0234 -0.5046 -0.4096
36115SOL     OW15202   1.781   5.215   7.243 -0.0474  0.2935  0.4371
36115SOL    HW115203   1.689   5.222   7.270 -0.1067 -2.3131  1.1365
36115SOL    HW215204   1.829   5.265   7.309 -0.8263  0.3256  0.9971
36116SOL     OW15205   3.819   8.626   3.211 -0.2565 -0.5208 -0.0185
36116SOL    HW115206   3.855   8.539   3.196 -1.5636 -1.4039  1.5735
36116SOL    HW215207   3.872   8.685   3.158  0.7891 -2.2637 -0.9596
36117SOL     OW15208   6.159   8.133   8.094  0.1991 -0.1868 -0.0768
36117SOL    HW115209   6.169   8.087   8.177 -1.5237  0.7504  0.7066
36117SOL    HW215210   6.087   8.087   8.049  0.7263 -0.3277 -0.7901
36118SOL     OW15211   1.692   0.781  11.166  0.4172 -0.0948 -0.1033
36118SOL    HW115212   1.659   0.691  11.162  0.5333 -0.0912 -1.7041
36118SOL    HW215213   1.780   0.776  11.127  0.2240  0.7877 -0.6827
36119SOL     OW15214   8.547   8.301   8.852  0.4536 -0.0303 -0.4065
36119SOL    HW115215   8.540   8.373   8.915 -1.6773 -1.1946  0.8359
36119SOL    HW215216   8.512   8.338   8.770 -1.6540  0.1338  0.4925
36120SOL     OW15217   3.242   6.247   4.603  0.6883 -0.3743  0.0477
36120SOL    HW115218   3.289   6.280   4.526  1.4013  0.0372  0.6394
36120SOL    HW215219   3.151   6.240   4.575  0.8777  0.1155 -0.7221
36121SOL     OW15220   7.660  11.968   0.604  0.3512 -0.1407  0.3430
36121SOL    HW115221   7.679  11.900   0.669 -0.8660 -0.3104  0.5513
36121SOL    HW215222   7.566  11.985   0.615 -0.1752 -1.0280 -2.1929
36122SOL     OW15223   8.271   7.294   2.742  0.2275  0.1014  0.4190
36122SOL    HW115224   8.300   7.235   2.672 -0.2163 -0.0132  0.3302
36122SOL    HW215225   8.192   7.253   2.777  0.9210 -0.2906  1.5781
36123SOL     OW15226   7.782   5.068   8.639 -0.2388  0.1736  0.4263
36123SOL    HW115227   7.867   5.075   8.597 -0.3907 -1.2949 -0.1903
36123SOL    HW215228   7.727   5.131   8.593  0.0788 -0.1106 -0.3633
36124SOL     OW15229   3.153   5.699   7.402 -0.2673 -0.8142 -0.4335
36124SOL    HW115230   3.177   5.760   7.333 -0.9569 -0.6267 -0.5174
36124SOL    HW215231   3.098   5.634   7.359  0.0198 -1.1933 -0.2347
36125SOL     OW15232   9.084   4.064   2.413  0.2248  0.8169  0.3603
36125SOL    HW115233   9.035   4.075   2.332 -0.0588 -1.0899  0.2268
36125SOL    HW215234   9.116   4.151   2.434  3.0083  0.9592 -3.4974
36126SOL     OW15235   7.484   1.145  12.359 -0.0702  0.0298 -0.1126
36126SOL    HW115236   7.547   1.074  12.353  0.1559  0.2162  0.0290
36126SOL    HW215237   7.479   1.180  12.270 -0.5173 -0.4472 -0.2782
36127SOL     OW15238   4.185   2.711   6.163 -0.0006 -0.2779 -0.1860
36127SOL    HW115239   4.147   2.624   6.174 -0.3131 -0.0323  0.7465
36127SOL    HW215240   4.153   2.739   6.077 -0.5001 -0.7880 -0.1763
36128SOL     OW15241  11.740   7.335   1.758  0.4092  0.0405 -0.4222
36128SOL    HW115242  11.810   7.396   1.781  1.4248 -0.8448 -1.1233
36128SOL    HW215243  11.754   7.314   1.666  1.2855 -2.7471  0.2540
36129SOL     OW15244   8.729   6.558   0.731 -0.3774  0.4784  0.3015
36129SOL    HW115245   8.669   6.484   0.742 -0.0265  0.1228 -0.1599
36129SOL    HW215246   8.740   6.567   0.637  1.7726 -0.6897  0.3767
36130SOL     OW15247  12.244   5.710  11.479 -0.4949  0.1206 -0.0565
36130SOL    HW115248  12.207   5.662  11.553  0.6230 -0.3520  0.2310
36130SOL    HW215249  12.178   5.775  11.456 -0.9734  0.0957  1.1824
36131SOL     OW15250   9.469  11.915   1.560  0.5866 -0.0255  0.4788
36131SOL    HW115251   9.414  11.924   1.638  0.2348  0.8665  0.1340
36131SOL    HW215252   9.500  11.824   1.563 -0.8369 -0.5211  0.7076
36132SOL     OW15253   0.035   5.352   3.137 -0.0767 -0.2375  0.4510
36132SOL    HW115254   0.076   5.288   3.079  0.6025  0.1689  0.4685
36132SOL    HW215255   0.106   5.381   3.194 -0.2964  0.7275  0.2551
36133SOL     OW15256   6.754  11.957   2.190  0.0605 -0.0544  0.1465
36133SOL    HW115257   6.658  11.957   2.198  0.0460 -2.4240  0.4026
36133SOL    HW215258   6.773  12.034   2.136 -1.8079  1.5901  1.6554
36134SOL     OW15259   0.719   3.431   8.702  0.7832  0.3305 -0.4775
36134SOL    HW115260   0.794   3.491   8.707  1.1499  0.2182 -3.2361
36134SOL    HW215261   0.652   3.481   8.655 -0.2527 -0.2172  0.3682
36135SOL     OW15262   3.835   9.153  11.629 -0.4748  0.3040  0.0099
36135SOL    HW115263   3.744   9.134  11.652 -0.5322  0.8416  0.2222
36135SOL    HW215264   3.872   9.196  11.706 -0.0991  0.2847 -0.1565
36136SOL     OW15265  11.665   7.808  10.625 -0.1670 -0.2138  0.0685
36136SOL    HW115266  11.672   7.886  10.680  3.2668  0.3042 -0.8612
36136SOL    HW215267  11.595   7.828  10.563 -2.0538  0.4055  2.2697
36137SOL     OW15268   4.665  10.654   5.130  0.1609 -0.8910 -0.7022
36137SOL    HW115269   4.669  10.687   5.220  1.4272 -0.0349 -1.0446
36137SOL    HW215270   4.580  10.683   5.098  1.6766  3.6066 -1.4618
36138SOL     OW15271   2.694   1.175   2.243 -0.6861 -0.3048  0.2562
36138SOL    HW115272   2.780   1.185   2.202 -1.5385 -0.0301 -1.5538
36138SOL    HW215273   2.679   1.080   2.246  0.6315 -0.5269  2.7876
36139SOL     OW15274   0.153   6.785   3.632  0.3259 -0.0070  0.6117
36139SOL    HW115275   0.246   6.773   3.615  0.1233  0.5020 -1.0549
36139SOL    HW215276   0.120   6.696   3.646  0.6133 -0.5238 -1.5514
36140SOL     OW15277   1.935   9.203   5.785 -0.0473 -0.1734  0.6974
36140SOL    HW115278   1.878   9.220   5.710  0.6787  0.0688  0.1986
36140SOL    HW215279   2.006   9.150   5.749  0.2349 -0.1661  1.2431
36141SOL     OW15280   5.506   4.779   3.748 -0.4024  0.4698  0.0048
36141SOL    HW115281   5.527   4.704   3.692 -0.5439 -1.6341  2.5562
36141SOL    HW215282   5.591   4.820   3.766 -0.2133  0.4197 -0.7534
36142SOL     OW15283   4.193   1.149   5.899 -0.0363  0.3530 -0.0171
36142SOL    HW115284   4.238   1.157   5.983 -1.9062 -0.6945  1.1645
36142SOL    HW215285   4.104   1.181   5.916 -0.2407  0.8796 -1.8273
36143SOL     OW15286   0.523   1.789   4.151  0.2666  0.1390 -0.2289
36143SOL    HW115287   0.608   1.794   4.194 -0.3204 -1.5345  1.2658
36143SOL    HW215288   0.538   1.735   4.073  0.6516  0.1737 -0.1780
36144SOL     OW15289   9.802   8.859  12.194 -0.0515  0.2407  0.3716
36144SOL    HW115290   9.776   8.940  12.236 -0.3718  0.5961 -0.4940
36144SOL    HW215291   9.751   8.856  12.113  1.1022 -0.0474 -0.3687
36145SOL     OW15292  11.482   4.862  10.298  0.1871  0.2336 -0.5035
36145SOL    HW115293  11.567   4.872  10.342  0.4273 -0.3128 -0.8331
36145SOL    HW215294  11.499   4.801  10.226  0.2632  2.5872 -2.6093
36146SOL     OW15295   0.037   0.463   3.219  0.2986 -0.7234 -0.0765
36146SOL    HW115296  -0.054   0.482   3.244  0.2778  0.0737 -0.7027
36146SOL    HW215297   0.089   0.495   3.292  0.1904  0.8040 -0.6442
36147SOL     OW15298  11.010   0.450  12.360  0.3446  0.0753  0.1556
36147SOL    HW115299  11.101   0.436  12.334  0.6762 -1.5109  1.9608
36147SOL    HW215300  10.999   0.399  12.440 -1.6393  1.6724  1.0093
36148SOL     OW15301   5.229  11.266   3.162 -0.2660 -0.1482  0.7322
36148SOL    HW115302   5.318  11.231   3.172 -0.6089 -0.9573  1.0039
36148SOL    HW215303   5.216  11.320   3.239  0.1339  0.2929  0.4956
36149SOL     OW15304   3.518   1.344   6.230 -0.0699  0.1860 -0.3314
36149SOL    HW115305   3.425   1.325   6.223  0.0681 -0.3955 -0.7007
36149SOL    HW215306   3.522   1.436   6.256 -0.7434  0.2851 -0.5495
36150SOL     OW15307  11.472   4.242  11.883 -0.1434 -0.3797  0.6987
36150SOL    HW115308  11.485   4.210  11.972  0.2431 -0.6663  0.5391
36150SOL    HW215309  11.559   4.269  11.854 -0.5333  1.2952  1.0066
36151SOL     OW15310   9.333   1.422   5.108  0.2931 -0.1146 -0.2238
36151SOL    HW115311   9.405   1.424   5.045 -0.5523 -1.7121 -1.3273
36151SOL    HW215312   9.258   1.391   5.057 -0.4964 -1.1703  1.4915
36152SOL     OW15313   2.802   8.685   1.546 -0.2626 -0.1040 -0.2881
36152SOL    HW115314   2.757   8.766   1.570 -0.3894 -0.2031 -0.1872
36152SOL    HW215315   2.895   8.707   1.549 -0.2750 -0.1082  0.2869
36153SOL     OW15316   8.585   3.054   0.126 -0.2876 -0.0251 -0.0399
36153SOL    HW115317   8.539   3.102   0.058 -0.7637  1.6994  1.4190
36153SOL    HW215318   8.523   3.052   0.199 -0.0516 -2.3719  0.1786
36154SOL     OW15319   6.610   5.975   9.455  0.5262 -0.0041  0.1640
36154SOL    HW115320   6.617   6.026   9.536  0.2860 -1.1802  0.9570
36154SOL    HW215321   6.682   5.913   9.460  1.1192  0.5633 -1.0333
36155SOL     OW15322  10.954   1.798  11.091 -0.2542 -0.2364  0.0686
36155SOL    HW115323  10.957   1.707  11.063  0.0602 -0.1653 -0.1281
36155SOL    HW215324  10.906   1.843  11.021 -2.9708 -0.7329  1.4893
36156SOL     OW15325   6.928  10.836   7.622  0.2932  0.4160  0.1107
36156SOL    HW115326   6.974  10.755   7.600 -1.0247 -0.6051  0.9911
36156SOL    HW215327   6.986  10.880   7.685 -0.7715 -1.8889  2.9055
36157SOL     OW15328   9.283   4.215  11.251  0.3228 -0.1322 -0.4148
36157SOL    HW115329   9.330   4.294  11.280 -1.0241  0.5981 -0.1349
36157SOL    HW215330   9.343   4.143  11.270  0.5318  0.5662  1.8777
36158SOL     OW15331  11.834   3.490  12.330 -0.3548 -0.3534 -0.0165
36158SOL    HW115332  11.787   3.517  12.409  1.5941  0.2165  1.0115
36158SOL    HW215333  11.844   3.396  12.339 -1.1405 -0.4643 -0.1833
36159SOL     OW15334   5.796   5.091   5.043 -0.5006 -0.0133  0.1319
36159SOL    HW115335   5.822   5.172   5.089 -1.7992 -0.5394  1.9447
36159SOL    HW215336   5.767   5.033   5.113 -1.0809 -1.4873 -1.2747
36160SOL     OW15337   0.958   3.423   6.001 -0.1898 -0.0765  0.3689
36160SOL    HW115338   1.015   3.359   6.043 -0.5062 -0.9738 -0.5397
36160SOL    HW215339   1.010   3.504   6.000  1.0313 -0.8269 -0.2946
36161SOL     OW15340   1.873  10.948   7.865 -0.1111 -0.2689  0.0533
36161SOL    HW115341   1.811  10.993   7.808  0.4603 -0.4428 -0.7293
36161SOL    HW215342   1.854  10.981   7.953 -1.7526 -0.8273 -0.0625
36162SOL     OW15343   9.499   1.287   1.225 -0.1712 -0.1831  0.6090
36162SOL    HW115344   9.480   1.195   1.211  0.3481 -0.4497  1.5343
36162SOL    HW215345   9.417   1.324   1.258 -0.6439 -0.1015 -0.6172
36163SOL     OW15346   4.964   3.520   9.561  0.1545 -0.1042  0.6298
36163SOL    HW115347   5.024   3.476   9.622 -0.9232  0.5412  2.2228
36163SOL    HW215348   4.910   3.449   9.525  1.0284 -0.5355  0.1282
36164SOL     OW15349   4.978   2.104   9.651  0.4431 -0.1662 -0.2729
36164SOL    HW115350   4.997   2.095   9.744  0.9198  3.0175  0.0371
36164SOL    HW215351   5.030   2.179   9.622 -2.5766  1.4285 -2.1434
36165SOL     OW15352   1.673  12.313   3.774 -0.1964  0.1302 -0.0357
36165SOL    HW115353   1.740  12.355   3.828 -0.0130 -0.6035  0.3170
36165SOL    HW215354   1.597  12.304   3.832  0.3199 -1.5613  0.4510
36166SOL     OW15355   7.581  10.191   9.778  0.0379 -0.2532  0.5272
36166SOL    HW115356   7.644  10.123   9.755  1.0948  0.9374 -0.2188
36166SOL    HW215357   7.565  10.238   9.696 -2.7702 -1.2249  0.3944
36167SOL     OW15358   1.172   9.812   9.019 -0.8749 -0.7949 -0.0252
36167SOL    HW115359   1.214   9.877   9.075 -0.3494  0.3510 -1.6772
36167SOL    HW215360   1.111   9.862   8.964  1.7030 -1.0368 -3.4697
36168SOL     OW15361   5.091   7.183   3.076  0.6746 -0.5111  0.2828
36168SOL    HW115362   5.070   7.091   3.056 -2.1154  0.3698 -1.4666
36168SOL    HW215363   5.171   7.200   3.027 -0.3122 -1.3225 -1.7661
36169SOL     OW15364   6.361  10.337   9.378  0.0062 -0.4442 -0.3829
36169SOL    HW115365   6.413  10.416   9.391 -0.1795 -0.4404  0.4390
36169SOL    HW215366   6.421  10.265   9.396  0.3443 -0.5251 -1.7422
36170SOL     OW15367   0.611   1.899  11.165 -0.5625 -0.0764  0.0244
36170SOL    HW115368   0.543   1.931  11.106 -0.0740  0.4975 -0.2323
36170SOL    HW215369   0.674   1.855  11.108  0.2099  0.9828  0.0274
36171SOL     OW15370  11.350   4.189   4.972 -0.2930 -0.2977  0.2488
36171SOL    HW115371  11.393   4.211   4.889 -1.1250  0.5933  0.0286
36171SOL    HW215372  11.290   4.262   4.988 -0.9412 -0.9833  1.0794
36172SOL     OW15373   9.529   2.254   4.085 -0.1400 -0.5179 -0.2051
36172SOL    HW115374   9.467   2.305   4.033  0.9848  1.0809 -0.0511
36172SOL    HW215375   9.488   2.248   4.172 -0.6604 -0.6148 -0.4515
36173SOL     OW15376   9.185   8.466  11.203  0.1176 -0.4996  0.0628
36173SOL    HW115377   9.168   8.380  11.163 -1.9129 -0.4691  0.7606
36173SOL    HW215378   9.276   8.461  11.231  0.3393 -2.0700 -0.7770
36174SOL     OW15379   0.875   4.864  10.268 -0.0947  0.4529 -0.0674
36174SOL    HW115380   0.859   4.954  10.297  0.3174  0.2377  0.8720
36174SOL    HW215381   0.867   4.811  10.347 -0.2395 -0.3286 -0.5953
36175SOL     OW15382   2.148   3.848   4.119  0.0081  0.8323  0.0544
36175SOL    HW115383   2.115   3.929   4.157 -1.8519  1.4678 -2.5719
36175SOL    HW215384   2.112   3.779   4.174  0.3888  1.7423  1.4821
36176SOL     OW15385   2.762   7.148   9.619 -0.3291 -0.2401 -0.4488
36176SOL    HW115386   2.813   7.130   9.698 -0.6291 -2.2106 -0.6699
36176SOL    HW215387   2.827   7.153   9.549 -0.1223  0.9107 -0.1965
36177SOL     OW15388   7.727   4.022   4.028  0.1825 -0.3602 -0.0785
36177SOL    HW115389   7.744   3.962   3.954 -1.0351 -0.7083 -0.0931
36177SOL    HW215390   7.632   4.025   4.035  0.2343  1.1896  0.2673
36178SOL     OW15391   3.887  10.543  11.002 -0.1777  0.6310  0.5454
36178SOL    HW115392   3.913  10.544  11.094 -0.4191  1.1597  0.6089
36178SOL    HW215393   3.957  10.494  10.958  0.2947  0.9678  0.9097
36179SOL     OW15394   6.293   8.665   1.355 -0.4824  0.1162  0.1276
36179SOL    HW115395   6.374   8.692   1.311 -2.1553 -0.7927 -3.8855
36179SOL    HW215396   6.311   8.577   1.387 -0.2557 -0.6816 -2.0639
36180SOL     OW15397  11.661   1.500   4.772 -0.4089  0.4900  0.7964
36180SOL    HW115398  11.695   1.589   4.770  0.9195 -0.0090  0.0635
36180SOL    HW215399  11.723   1.451   4.826  1.6077 -0.9916 -2.5627
36181SOL     OW15400   8.987  10.970   2.928 -0.4667 -0.5438  0.6331
36181SOL    HW115401   9.040  10.891   2.941 -0.1695 -0.5762 -0.5998
36181SOL    HW215402   8.929  10.947   2.855 -0.4309  0.3485  0.3131
36182SOL     OW15403  11.182   6.206   3.830  0.0945  0.0259  0.3420
36182SOL    HW115404  11.147   6.248   3.751  1.5172  1.2303  0.3200
36182SOL    HW215405  11.121   6.230   3.899 -0.3520  0.1965 -0.1025
36183SOL     OW15406   7.876   3.244   7.491  0.4958 -0.2391  0.6293
36183SOL    HW115407   7.919   3.271   7.572  3.4915  0.6330 -1.1236
36183SOL    HW215408   7.908   3.155   7.475  1.3691  0.2578 -0.4851
36184SOL     OW15409   4.766   9.617   1.738 -0.3622  0.0876 -0.1683
36184SOL    HW115410   4.717   9.664   1.806  1.5609  0.7191  0.8395
36184SOL    HW215411   4.740   9.659   1.656  0.5615  2.3214  0.6174
36185SOL     OW15412   5.431   7.480   8.809  0.1215  0.3120 -0.0475
36185SOL    HW115413   5.417   7.574   8.825 -0.5210 -0.1919  2.6959
36185SOL    HW215414   5.526   7.472   8.800  0.7494  0.7730  4.0874
36186SOL     OW15415   7.058   9.832  10.333  0.1692  0.0019 -0.3092
36186SOL    HW115416   7.072   9.746  10.371  0.3055 -0.0751 -0.5293
36186SOL    HW215417   7.140   9.853  10.289  1.4694  1.8113  2.7011
36187SOL     OW15418   3.787   0.395   3.696  0.5124  0.4748 -0.2502
36187SOL    HW115419   3.811   0.393   3.603 -0.6512  1.8638 -0.6223
36187SOL    HW215420   3.696   0.426   3.696 -0.3138 -1.7023  1.2426
36188SOL     OW15421   7.361   4.913   0.027  0.1917 -0.4859 -0.3791
36188SOL    HW115422   7.387   4.827   0.061  0.8102  0.1664  0.8949
36188SOL    HW215423   7.267   4.917   0.043  0.6619  0.4806  3.1645
36189SOL     OW15424   5.142   4.827   6.698 -0.0391 -0.2010  0.1588
36189SOL    HW115425   5.073   4.795   6.757 -2.4134  1.1231 -1.7086
36189SOL    HW215426   5.123   4.920   6.688  1.5862  0.0336 -1.0528
36190SOL     OW15427   3.530   5.121   8.318 -0.0465 -0.2692  0.1455
36190SOL    HW115428   3.479   5.075   8.386 -0.5416  0.7484  0.4844
36190SOL    HW215429   3.464   5.150   8.255  0.4120 -1.2305 -0.8212
36191SOL     OW15430   6.543   8.515  10.694 -0.1980 -0.0740 -0.4681
36191SOL    HW115431   6.483   8.451  10.732  0.4533 -0.6586 -0.3839
36191SOL    HW215432   6.513   8.599  10.726 -1.2015 -0.3146 -0.7452
36192SOL     OW15433   3.545   5.695   0.480 -0.2096  0.5139 -0.0847
36192SOL    HW115434   3.543   5.608   0.441  0.9525  0.5963 -0.3571
36192SOL    HW215435   3.635   5.706   0.512 -0.0294  2.0005 -0.9706
36193SOL     OW15436   9.523  11.430   9.586 -0.0826  0.1586  0.3195
36193SOL    HW115437   9.430  11.453   9.581 -0.1806 -0.4603 -1.7626
36193SOL    HW215438   9.569  11.513   9.575 -0.4088  0.2366 -0.5336
36194SOL     OW15439   7.683   2.292   7.818  0.1619  0.2227  0.1197
36194SOL    HW115440   7.667   2.244   7.899  0.2324 -0.6949 -0.3935
36194SOL    HW215441   7.651   2.234   7.749  2.2772 -0.0794 -0.6836
36195SOL     OW15442  11.020   6.635   9.969  0.6705 -0.0178  0.4447
36195SOL    HW115443  11.072   6.699  10.017  1.0513 -0.8515  1.1674
36195SOL    HW215444  11.084   6.578   9.927  0.3344  0.2396 -0.4386
36196SOL     OW15445   8.295   6.732   6.926 -0.3334 -0.0159  0.0063
36196SOL    HW115446   8.285   6.646   6.966 -0.4849 -0.0153 -0.0274
36196SOL    HW215447   8.210   6.774   6.940 -0.7993 -0.4675 -1.3792
36197SOL     OW15448   4.226   3.088   7.921  0.1880 -0.0960  0.5199
36197SOL    HW115449   4.209   3.006   7.966  1.2178 -0.5290  0.1627
36197SOL    HW215450   4.171   3.085   7.843  0.1200 -0.3943  0.5781
36198SOL     OW15451  11.315  10.522   2.000  0.4886  0.1031  0.2428
36198SOL    HW115452  11.340  10.523   2.093  0.3228  0.3290  0.2860
36198SOL    HW215453  11.219  10.522   2.001  0.4861  0.1765  0.0716
36199SOL     OW15454   1.138   6.187   7.014  0.5978 -0.0560 -0.1977
36199SOL    HW115455   1.072   6.186   7.084  0.3535  0.7680 -0.4017
36199SOL    HW215456   1.119   6.267   6.965  1.0274 -0.4144 -0.9626
36200SOL     OW15457  11.503  10.623   4.476 -0.1387  0.5984  0.1939
36200SOL    HW115458  11.424  10.571   4.458  0.7070 -0.2358 -1.3268
36200SOL    HW215459  11.521  10.607   4.569  0.5977 -2.6557 -0.3876
36201SOL     OW15460  10.004   4.352   7.809 -0.4439  0.5626 -0.3228
36201SOL    HW115461  10.043   4.406   7.877  0.6913 -0.2718 -0.2597
36201SOL    HW215462  10.053   4.375   7.730  0.8723 -1.1136 -0.0755
36202SOL     OW15463  11.990   8.064   7.303  0.2020 -0.2368  0.9414
36202SOL    HW115464  12.081   8.061   7.334  0.7730  1.7518 -0.2925
36202SOL    HW215465  11.988   8.140   7.244 -1.5870 -1.8263 -1.2297
36203SOL     OW15466   7.899   5.206   6.937  0.5853 -0.1829 -0.3153
36203SOL    HW115467   7.835   5.229   7.006  0.6416  1.2696 -0.7048
36203SOL    HW215468   7.849   5.212   6.856  0.7112 -1.1429 -0.4732
36204SOL     OW15469   4.122   9.796   7.140 -0.2522 -0.4814 -0.5430
36204SOL    HW115470   4.185   9.755   7.200  0.2537 -0.1859 -0.8665
36204SOL    HW215471   4.076   9.860   7.195 -1.0953 -1.5062 -0.0180
36205SOL     OW15472  10.105   7.033  11.719  0.1971 -0.3668  0.3429
36205SOL    HW115473  10.058   6.955  11.748  0.2702  0.7728  4.0547
36205SOL    HW215474  10.130   7.014  11.628 -2.4726 -3.3017  0.0569
36206SOL     OW15475   3.657   3.954  10.784 -0.4091 -0.0397  0.0448
36206SOL    HW115476   3.656   3.877  10.841  2.3356  1.1300  1.9095
36206SOL    HW215477   3.707   3.926  10.707 -0.2916 -0.4088  0.2528
36207SOL     OW15478   3.779  12.399   6.736  0.3235  0.0131 -0.3443
36207SOL    HW115479   3.857  12.343   6.737 -0.0047 -0.4465 -0.4747
36207SOL    HW215480   3.708  12.342   6.764  0.1754  0.6584  0.6724
36208SOL     OW15481   8.987   8.360   5.022 -0.1801 -0.0668  0.1364
36208SOL    HW115482   8.960   8.289   4.963  0.1672  0.4759 -0.6820
36208SOL    HW215483   8.922   8.429   5.007  0.5757  0.5219 -0.4747
36209SOL     OW15484   4.950   3.975  12.089  0.4330  0.1179 -0.3484
36209SOL    HW115485   4.904   4.041  12.036  1.1260  0.0920 -1.0125
36209SOL    HW215486   4.881   3.927  12.134 -0.1250  0.7664 -0.4956
36210SOL     OW15487   1.116   5.256   4.903  0.1993 -0.0285 -0.2721
36210SOL    HW115488   1.176   5.248   4.829 -1.4996 -0.8269 -1.6073
36210SOL    HW215489   1.091   5.166   4.924  0.9773  0.1349  1.6095
36211SOL     OW15490   2.439   9.322   3.510  0.0191  0.5457 -0.2193
36211SOL    HW115491   2.403   9.275   3.585  0.2400  3.2874  1.7473
36211SOL    HW215492   2.513   9.371   3.545  0.3279  1.6906 -2.2972
36212SOL     OW15493   1.176  10.058  11.117 -0.1712  0.0224  0.3796
36212SOL    HW115494   1.245  10.091  11.059  0.7012 -1.4880  0.5076
36212SOL    HW215495   1.163  10.128  11.181  0.8771  0.5405  0.0436
36213SOL     OW15496  11.115   8.291   0.330 -0.1580 -0.8252 -0.3275
36213SOL    HW115497  11.186   8.353   0.345  0.0495 -1.0844 -0.2282
36213SOL    HW215498  11.140   8.243   0.252  0.1555 -1.4493  0.1487
36214SOL     OW15499   7.612   2.820   2.733 -0.1948 -0.1245  0.1270
36214SOL    HW115500   7.641   2.837   2.823 -1.0864  2.0538  0.0633
36214SOL    HW215501   7.693   2.818   2.682  0.1823  0.9630  0.6550
36215SOL     OW15502  12.434   7.315   3.358  0.5868 -0.0665  0.1838
36215SOL    HW115503  12.442   7.411   3.362 -0.1241  0.2321 -3.1382
36215SOL    HW215504  12.524   7.283   3.361  0.9235  0.8018 -0.2784
36216SOL     OW15505   7.266   5.277   9.108 -0.2189  0.1194  0.2839
36216SOL    HW115506   7.341   5.218   9.105 -1.8098 -1.9955  0.1802
36216SOL    HW215507   7.299   5.355   9.152  2.5823  0.1247 -1.5833
36217SOL     OW15508  11.187   4.132   7.539 -0.2913 -0.1636  0.1205
36217SOL    HW115509  11.274   4.161   7.567 -0.7258 -0.0178  1.3651
36217SOL    HW215510  11.189   4.037   7.551  0.4371 -0.4656 -2.0091
36218SOL     OW15511   9.420  10.620   5.595 -0.0452  0.3202 -0.1350
36218SOL    HW115512   9.473  10.696   5.618 -2.0487  1.8053 -0.1432
36218SOL    HW215513   9.404  10.630   5.501 -1.3197  0.5706  0.0983
36219SOL     OW15514   8.503   8.188   2.848 -0.4293 -0.5013 -0.4781
36219SOL    HW115515   8.505   8.261   2.786 -1.7718 -1.4618 -1.7168
36219SOL    HW215516   8.575   8.131   2.821 -0.1696 -0.2721 -0.2857
36220SOL     OW15517   3.016   6.312   6.412 -0.2750  0.0158  0.0417
36220SOL    HW115518   3.101   6.329   6.452 -0.2879  1.4248 -0.4557
36220SOL    HW215519   3.033   6.313   6.318 -1.1274  2.6074 -0.1843
36221SOL     OW15520   1.747  12.276  11.717  0.6879  0.0594  0.2532
36221SOL    HW115521   1.714  12.302  11.803  0.7381 -1.2561  0.6934
36221SOL    HW215522   1.815  12.341  11.697  3.1743 -1.4962  2.8166
36222SOL     OW15523   3.882   0.250   3.085  0.1145 -0.0142  0.5553
36222SOL    HW115524   3.816   0.284   3.024  1.4002  1.0121 -0.3016
36222SOL    HW215525   3.830   0.212   3.156 -1.4097  0.4613 -0.2483
36223SOL     OW15526  12.398   8.538   9.958 -0.3775 -0.0485  0.3111
36223SOL    HW115527  12.466   8.592  10.000  0.6317  0.2778 -1.6352
36223SOL    HW215528  12.410   8.451   9.995  1.1882 -0.0138 -0.0471
36224SOL     OW15529   0.471   4.173   5.363  0.3630  0.5764 -0.0506
36224SOL    HW115530   0.468   4.095   5.419  0.8361  0.3510 -0.3295
36224SOL    HW215531   0.538   4.228   5.402  0.1381  0.7750  0.0557
36225SOL     OW15532   3.780  11.816   4.745 -0.1666  0.1917  0.5340
36225SOL    HW115533   3.820  11.739   4.703  0.8874  0.2902  1.2950
36225SOL    HW215534   3.687  11.806   4.729 -0.0640 -1.2974  0.6648
36226SOL     OW15535   2.169   7.954   4.048 -0.3799 -0.1680  0.1746
36226SOL    HW115536   2.075   7.971   4.042 -0.5311 -1.4797 -2.3779
36226SOL    HW215537   2.186   7.885   3.983  2.5604  0.9158 -0.3924
36227SOL     OW15538  11.226   9.060   4.290  0.0735 -0.3009 -0.2167
36227SOL    HW115539  11.299   9.106   4.248 -0.0100 -1.1493 -1.3165
36227SOL    HW215540  11.186   9.010   4.220 -1.3921 -0.0964  0.4454
36228SOL     OW15541  10.452   0.002   4.695 -0.2367  0.1642  0.1252
36228SOL    HW115542  10.363  -0.032   4.698 -0.2628  0.3004  1.9656
36228SOL    HW215543  10.503  -0.065   4.651 -0.8989 -0.7985  0.7955
36229SOL     OW15544   7.580   8.491   5.996 -0.6917  0.3402 -0.2143
36229SOL    HW115545   7.503   8.539   5.967 -1.1110  0.0365  0.3722
36229SOL    HW215546   7.640   8.558   6.029 -2.0265  0.3807  2.3602
36230SOL     OW15547   1.624   1.569  11.831 -0.2484 -0.1124 -0.0706
36230SOL    HW115548   1.669   1.610  11.905 -0.7253  0.2027  0.0470
36230SOL    HW215549   1.672   1.487  11.816  1.4740  0.9950 -1.0467
36231SOL     OW15550   5.301  10.510   4.854  0.5024  0.1335 -0.1761
36231SOL    HW115551   5.296  10.469   4.769  0.2871 -2.5097  1.0270
36231SOL    HW215552   5.212  10.538   4.873  0.8485  2.3761 -1.4845
36232SOL     OW15553   7.173   0.990  10.978 -0.8246 -0.2600  0.2771
36232SOL    HW115554   7.206   1.071  10.939 -0.0738  0.0034  1.4212
36232SOL    HW215555   7.236   0.923  10.952 -1.3360 -0.4480 -0.5006
36233SOL     OW15556   4.710   7.134   2.338 -0.0516 -0.9684 -0.1377
36233SOL    HW115557   4.615   7.130   2.331 -0.0642 -4.8128 -0.0146
36233SOL    HW215558   4.742   7.114   2.250  0.6958 -0.0034 -0.1155
36234SOL     OW15559  12.186   3.413   8.028 -0.3032  0.2004 -0.2433
36234SOL    HW115560  12.135   3.488   8.059  1.7093  0.5454  2.6523
36234SOL    HW215561  12.263   3.452   7.987 -0.4886 -0.3102 -1.0925
36235SOL     OW15562   1.583  10.781  11.785  0.3468 -0.1283 -0.0177
36235SOL    HW115563   1.489  10.768  11.796 -0.6268  3.2083 -2.8010
36235SOL    HW215564   1.602  10.749  11.698  1.7010 -0.2585  0.3090
36236SOL     OW15565  10.859  10.874   1.454 -0.1366 -0.5323 -0.3902
36236SOL    HW115566  10.894  10.850   1.540 -1.1953  0.1626  0.2687
36236SOL    HW215567  10.915  10.828   1.391  0.8719 -0.7819  0.6538
36237SOL     OW15568   8.629   4.091   2.552 -0.8612 -0.5683  0.1416
36237SOL    HW115569   8.639   3.997   2.570  2.3263 -0.4230 -0.3177
36237SOL    HW215570   8.677   4.105   2.471 -1.7935  1.3888 -0.1300
36238SOL     OW15571   0.261   3.955   3.617  0.0057  0.2899  0.1997
36238SOL    HW115572   0.257   3.860   3.627 -0.6314  0.3120  0.1787
36238SOL    HW215573   0.306   3.986   3.696  3.4213 -0.3010 -1.3480
36239SOL     OW15574   1.217   8.419   8.848 -0.2985 -0.1936  0.0777
36239SOL    HW115575   1.188   8.348   8.906 -1.3651  0.7650  0.7705
36239SOL    HW215576   1.187   8.393   8.761  0.4160 -1.1685  0.1062
36240SOL     OW15577  10.820   6.774   9.263 -0.0701  0.1298  0.4170
36240SOL    HW115578  10.743   6.755   9.318 -1.3112 -0.0047 -1.2880
36240SOL    HW215579  10.854   6.688   9.240 -0.4104  0.1428 -0.1561
36241SOL     OW15580  10.436   1.632   0.484  0.5277 -0.4364 -0.5509
36241SOL    HW115581  10.387   1.714   0.471  0.1534 -0.5838 -0.1260
36241SOL    HW215582  10.473   1.612   0.398 -0.6117 -0.5993 -1.0232
36242SOL     OW15583   7.881   9.544  10.982  0.9880  0.4039  0.2067
36242SOL    HW115584   7.937   9.575  11.054 -0.5513  1.2536  1.0786
36242SOL    HW215585   7.854   9.456  11.010  2.0245 -0.1128 -0.3326
36243SOL     OW15586   2.021   9.685   8.363 -0.2973 -0.3061  0.3010
36243SOL    HW115587   2.045   9.609   8.310  1.2771  0.5929 -0.3485
36243SOL    HW215588   1.949   9.726   8.315  1.4530  0.7968 -1.5275
36244SOL     OW15589  12.358   9.974   6.998 -0.0967  0.4817 -0.2415
36244SOL    HW115590  12.267   9.977   7.027 -0.0619  0.1871 -0.0976
36244SOL    HW215591  12.354   9.982   6.903 -0.2438  0.9696 -0.1947
36245SOL     OW15592   0.567  10.954  12.481  0.0520 -0.2629  0.4563
36245SOL    HW115593   0.638  10.959  12.417  0.7145  0.3793  1.2030
36245SOL    HW215594   0.492  10.922  12.432  1.0808 -1.8343 -0.1631
36246SOL     OW15595   6.867  10.679   1.745 -0.0302 -0.4482 -0.2302
36246SOL    HW115596   6.815  10.693   1.667 -0.2024 -0.3988 -0.1078
36246SOL    HW215597   6.914  10.597   1.729 -1.0463 -1.1190  0.1418
36247SOL     OW15598   5.125   9.373  10.590  0.0042  0.1284  0.5326
36247SOL    HW115599   5.208   9.397  10.549 -1.2539  2.0665 -1.1360
36247SOL    HW215600   5.078   9.324  10.522 -1.1239  1.1748  0.5105
36248SOL     OW15601   2.580   5.056  11.615 -0.2612 -0.2814 -0.1758
36248SOL    HW115602   2.560   4.987  11.679 -1.1714  0.3608  0.2497
36248SOL    HW215603   2.497   5.075  11.573  0.0912  0.1773 -0.6771
36249SOL     OW15604  10.972   5.232   1.380  0.2238 -0.0145  0.4249
36249SOL    HW115605  10.959   5.249   1.473  2.2863  0.4098  0.6783
36249SOL    HW215606  11.021   5.308   1.349 -0.7008 -0.0010 -1.1063
36250SOL     OW15607   9.591   0.295   8.002 -0.2611  0.0277  0.2376
36250SOL    HW115608   9.513   0.347   7.979  0.1715  1.0307  0.9840
36250SOL    HW215609   9.603   0.310   8.096  0.0290 -1.2417  0.4177
36251SOL     OW15610   0.102   6.193   6.395 -0.2908 -0.7544  0.3962
36251SOL    HW115611   0.070   6.128   6.333 -0.6803  0.8133 -1.1111
36251SOL    HW215612   0.027   6.214   6.449 -0.7878  0.0495 -0.5782
36252SOL     OW15613   1.961   9.193  11.807 -0.2033  0.1531 -0.7093
36252SOL    HW115614   1.953   9.253  11.881 -1.0055  0.3296 -0.9328
36252SOL    HW215615   1.903   9.121  11.828  2.1633 -1.5578  0.4741
36253SOL     OW15616  11.544  11.144   9.050  0.1724 -0.3238 -0.1287
36253SOL    HW115617  11.610  11.174   8.988  1.9003  0.1401  1.8037
36253SOL    HW215618  11.591  11.138   9.134 -1.5976 -2.5066  0.8376
36254SOL     OW15619   8.889  11.858   3.594  0.2139 -1.2098  0.0753
36254SOL    HW115620   8.934  11.886   3.514 -0.0873 -1.5702 -0.2208
36254SOL    HW215621   8.880  11.763   3.585  0.2198 -1.2591  0.5611
36255SOL     OW15622   1.272   7.793   3.148  0.7220  0.1370 -0.0790
36255SOL    HW115623   1.317   7.869   3.185  2.3897  0.2466 -2.1173
36255SOL    HW215624   1.220   7.758   3.220 -0.3331  3.3504  0.8743
36256SOL     OW15625  11.717   3.038   1.272  0.1314 -0.4562  0.7178
36256SOL    HW115626  11.763   3.073   1.196  0.4164  0.3854  1.2680
36256SOL    HW215627  11.625   3.035   1.246  0.1082  0.6424  0.6227
36257SOL     OW15628  11.747   2.019   5.298 -0.1132 -0.2245 -0.1866
36257SOL    HW115629  11.769   1.942   5.350 -0.5581 -1.8121 -2.2534
36257SOL    HW215630  11.656   2.006   5.272 -0.2203  1.0469 -0.5452
36258SOL     OW15631   6.925   2.159   6.844 -0.4662 -0.1697  0.0211
36258SOL    HW115632   6.930   2.157   6.939  0.3577 -0.8854 -0.0254
36258SOL    HW215633   7.011   2.190   6.816  0.0118 -1.9126 -0.5321
36259SOL     OW15634   1.738   5.717  11.422 -0.0158  0.0016  0.2749
36259SOL    HW115635   1.733   5.722  11.518 -0.6514  0.7338  0.2158
36259SOL    HW215636   1.814   5.661  11.405  0.7154  0.6797  1.1998
36260SOL     OW15637   8.235   8.977  12.101  0.0112  0.0520  0.5703
36260SOL    HW115638   8.211   9.065  12.073  0.1527 -0.3562 -0.9106
36260SOL    HW215639   8.281   8.990  12.185 -0.4262  1.3189  0.6343
36261SOL     OW15640   0.733   7.617   4.049  0.1315 -0.3239  0.5957
36261SOL    HW115641   0.702   7.706   4.067  0.8763 -0.2069  1.3298
36261SOL    HW215642   0.821   7.614   4.086  0.6108 -0.9789 -0.5453
36262SOL     OW15643  11.376   7.496   4.428  0.5082  0.2289  0.3884
36262SOL    HW115644  11.429   7.534   4.358 -0.3253 -0.1212 -0.4670
36262SOL    HW215645  11.431   7.428   4.466 -0.0039 -1.6031 -1.8824
36263SOL     OW15646  11.947   5.467  10.216  0.0094 -0.0323 -0.5413
36263SOL    HW115647  12.015   5.481  10.150  1.4312 -0.9830  0.6479
36263SOL    HW215648  11.947   5.372  10.230 -3.2998 -0.4218 -2.2249
36264SOL     OW15649   2.243   6.067  10.697  0.3204 -0.0282 -0.5103
36264SOL    HW115650   2.210   5.985  10.735 -1.2800 -0.7091 -3.1688
36264SOL    HW215651   2.198   6.136  10.746 -1.3525 -0.8585 -0.8046
36265SOL     OW15652   4.650   8.546   6.671  0.8146 -0.0005 -0.1424
36265SOL    HW115653   4.714   8.538   6.599  0.6301  0.3314 -0.3436
36265SOL    HW215654   4.584   8.607   6.638  0.3044 -0.4714  0.0068
36266SOL     OW15655   5.557   9.078  12.567  0.0498 -0.2543 -0.1780
36266SOL    HW115656   5.512   9.084  12.483  1.2352 -0.4151 -0.8498
36266SOL    HW215657   5.488   9.057  12.630 -1.0817  1.1449 -0.8799
36267SOL     OW15658   6.128   9.432   9.511 -0.8364  0.0076  0.4626
36267SOL    HW115659   6.186   9.478   9.573 -0.7818 -0.5763  0.8541
36267SOL    HW215660   6.184   9.366   9.470 -0.9084  0.3021 -0.1147
36268SOL     OW15661   3.350  10.101  10.104 -0.0868 -0.0429 -0.2040
36268SOL    HW115662   3.288  10.068  10.040  0.6088 -0.4350 -0.6899
36268SOL    HW215663   3.363  10.028  10.165  0.8264 -0.4038 -0.8105
36269SOL     OW15664   8.969  11.400   5.680  0.5358 -0.5972  0.0533
36269SOL    HW115665   8.933  11.447   5.605  1.1974 -0.5707 -0.2538
36269SOL    HW215666   9.016  11.326   5.641  1.4604 -0.2028  0.3942
36270SOL     OW15667   4.186   2.162   6.871 -0.0946 -0.4860 -0.4516
36270SOL    HW115668   4.186   2.097   6.941  1.2379 -2.7880 -2.4192
36270SOL    HW215669   4.168   2.112   6.791 -0.4595  1.8282 -1.9429
36271SOL     OW15670  11.162  11.522  10.670 -0.0492  0.5494 -0.2427
36271SOL    HW115671  11.249  11.491  10.645 -0.3880 -2.3067  1.6020
36271SOL    HW215672  11.112  11.522  10.588  1.0390 -0.2195 -0.9320
36272SOL     OW15673   0.589  12.236  11.675 -0.0701 -0.0949  0.2286
36272SOL    HW115674   0.657  12.172  11.695  0.4031  0.6093  0.9667
36272SOL    HW215675   0.634  12.321  11.679 -0.6470  0.2888 -0.8480
36273SOL     OW15676   8.600   1.590   6.242  0.0071 -0.3548  0.2733
36273SOL    HW115677   8.530   1.630   6.293  1.4934  0.5302  1.7231
36273SOL    HW215678   8.561   1.511   6.204 -1.6443 -0.0916  1.3490
36274SOL     OW15679   1.755   1.180   9.346  0.1976  0.5795  0.0623
36274SOL    HW115680   1.823   1.246   9.355  0.4875  0.5850 -1.8163
36274SOL    HW215681   1.750   1.139   9.433  1.2900  1.7953  0.7422
36275SOL     OW15682   3.130  10.138   3.770 -0.0720 -0.1023 -0.1375
36275SOL    HW115683   3.083  10.110   3.692  0.1840  0.9603 -0.6863
36275SOL    HW215684   3.143  10.232   3.758 -1.1355  0.3445  1.7420
36276SOL     OW15685  12.493   8.240  11.681  0.5281  0.1265 -0.3177
36276SOL    HW115686  12.579   8.198  11.683  0.4727  0.0034 -0.5092
36276SOL    HW215687  12.467   8.237  11.589 -0.8663 -2.2291  0.0958
36277SOL     OW15688   7.425   4.537   3.386 -0.2965  0.8053  1.1744
36277SOL    HW115689   7.439   4.564   3.295 -1.8156 -1.3579  0.1880
36277SOL    HW215690   7.347   4.584   3.413 -1.7081 -0.8397  0.1892
36278SOL     OW15691   9.098   5.549   5.439 -0.0488 -0.3618 -0.6766
36278SOL    HW115692   9.093   5.628   5.494  0.3539 -0.1906 -0.8848
36278SOL    HW215693   9.056   5.575   5.357  1.0528 -0.0121 -1.1494
36279SOL     OW15694  10.357  10.495   3.937  0.4547  0.2484 -0.4725
36279SOL    HW115695  10.385  10.586   3.948 -0.2165  0.1877  3.0057
36279SOL    HW215696  10.401  10.448   4.008 -3.5350 -0.9703  1.5188
36280SOL     OW15697   2.597   0.149   4.862 -0.4757 -0.6313  0.7912
36280SOL    HW115698   2.599   0.215   4.793 -3.1020  0.2181  1.3976
36280SOL    HW215699   2.573   0.068   4.818  1.1618 -0.8802  0.2829
36281SOL     OW15700   2.248   0.302   6.763 -0.0439  0.2817  0.0809
36281SOL    HW115701   2.293   0.361   6.823  0.7553  0.0924 -0.3187
36281SOL    HW215702   2.318   0.256   6.716 -0.6420 -0.8674  0.2606
36282SOL     OW15703   3.903   9.918   4.318  0.2889 -0.3022 -0.2888
36282SOL    HW115704   3.886  10.001   4.273  0.7883  0.5942  1.1176
36282SOL    HW215705   3.998   9.913   4.322  0.2503 -0.5160  0.3854
36283SOL     OW15706   0.571   3.051  10.981 -0.5054 -0.0366 -0.1742
36283SOL    HW115707   0.549   3.140  10.955  2.5011  0.5445 -1.0549
36283SOL    HW215708   0.596   3.007  10.900 -1.8148 -1.6991  0.2604
36284SOL     OW15709  11.666   2.120   1.646  0.6247 -0.1615  0.3560
36284SOL    HW115710  11.714   2.164   1.576 -0.6553  0.4930 -0.1441
36284SOL    HW215711  11.657   2.030   1.616  1.7886 -0.3765  0.6061
36285SOL     OW15712  11.281   3.095  10.381 -0.1924  0.0613 -0.5237
36285SOL    HW115713  11.287   3.096  10.476  0.5601  1.1877 -0.5676
36285SOL    HW215714  11.338   3.023  10.353  1.1855  1.0005 -0.2022
36286SOL     OW15715   3.303   1.028   9.445  0.2304  0.1918 -0.0872
36286SOL    HW115716   3.232   0.972   9.414 -1.0279  2.0060 -0.6573
36286SOL    HW215717   3.272   1.117   9.429  1.6143  1.1141  1.9318
36287SOL     OW15718   3.003   1.484   3.368  0.5691  0.4125 -0.4422
36287SOL    HW115719   3.055   1.556   3.331  0.6012  0.2836 -0.6512
36287SOL    HW215720   2.982   1.513   3.456  0.3072  0.8219 -0.6361
36288SOL     OW15721   8.542   5.269   0.808 -0.0046 -0.1839 -0.4889
36288SOL    HW115722   8.490   5.348   0.818  1.1556  0.5764 -0.2102
36288SOL    HW215723   8.628   5.293   0.842  0.5381 -1.3820 -0.9581
36289SOL     OW15724   0.374   9.708   3.294  0.3836  0.6569  0.4535
36289SOL    HW115725   0.297   9.665   3.329 -0.3280  0.3571 -1.3452
36289SOL    HW215726   0.447   9.651   3.318 -0.1721  0.0273  0.6616
36290SOL     OW15727   9.168   8.229   1.150  0.1544  0.4711  0.0715
36290SOL    HW115728   9.090   8.187   1.185 -0.4281  1.9324  0.6447
36290SOL    HW215729   9.240   8.170   1.172 -0.5708 -0.0496  1.1399
36291SOL     OW15730   4.770   0.763   4.918  0.6094  0.6683 -0.2454
36291SOL    HW115731   4.757   0.733   4.828  0.9078  0.2197 -0.1419
36291SOL    HW215732   4.840   0.828   4.913  0.5439  0.7302 -0.3522
36292SOL     OW15733  11.509   9.246   1.529 -0.0416  0.0545 -0.2818
36292SOL    HW115734  11.593   9.235   1.573 -0.6709 -1.6911  0.5717
36292SOL    HW215735  11.453   9.288   1.594 -0.0712  0.4271 -0.5468
36293SOL     OW15736   4.615  12.386  11.154 -0.1806 -0.8687  0.3875
36293SOL    HW115737   4.646  12.394  11.245 -1.0009 -3.3904  0.9889
36293SOL    HW215738   4.560  12.463  11.140  1.9094  0.8634  1.1345
36294SOL     OW15739   1.555  11.272   4.481  0.2988 -0.0587  0.2768
36294SOL    HW115740   1.461  11.279   4.500  0.0247 -3.4252  0.8136
36294SOL    HW215741   1.596  11.270   4.567  0.9595  1.6319  0.0381
36295SOL     OW15742   0.544   1.064   1.183  0.1901  0.1177 -0.2475
36295SOL    HW115743   0.599   0.992   1.153  0.1014  0.2654 -0.7761
36295SOL    HW215744   0.512   1.105   1.102 -0.7590 -0.0207  0.0527
36296SOL     OW15745   1.994  12.150   4.217  0.1163  0.8696 -0.2641
36296SOL    HW115746   2.041  12.069   4.203  1.1445  1.1803  1.1906
36296SOL    HW215747   2.028  12.210   4.151  3.0892  1.5962  1.7460
36297SOL     OW15748   6.030   5.212   1.224 -0.1246 -0.2965  0.5930
36297SOL    HW115749   6.102   5.171   1.176  0.4732  1.4047 -0.0417
36297SOL    HW215750   6.071   5.253   1.300 -0.8865 -1.8510  1.9089
36298SOL     OW15751   6.635  11.198  12.338 -0.5099 -0.0552  0.1675
36298SOL    HW115752   6.660  11.290  12.327  2.6681 -0.6668  1.2099
36298SOL    HW215753   6.567  11.199  12.406 -0.9493  1.5450 -0.2603
36299SOL     OW15754   3.140   3.634  11.559 -0.2954  0.2058 -0.7167
36299SOL    HW115755   3.193   3.589  11.624 -1.5006  0.6949  0.6692
36299SOL    HW215756   3.083   3.566  11.523  0.1229  0.0070 -1.0175
36300SOL     OW15757  10.191   9.244   4.694  0.0994  0.9731 -0.2498
36300SOL    HW115758  10.205   9.314   4.630  0.4709  0.2747 -0.9528
36300SOL    HW215759  10.274   9.239   4.742  0.5067  0.2631 -0.9826
36301SOL     OW15760   3.210  10.263   6.822 -0.3227  0.1940 -0.2291
36301SOL    HW115761   3.175  10.326   6.885  0.0764  0.2160 -0.0237
36301SOL    HW215762   3.230  10.185   6.875 -0.2049  0.1302 -0.3647
36302SOL     OW15763  10.874   8.508   0.073 -0.2102  0.0094  0.6546
36302SOL    HW115764  10.864   8.471   0.161  2.3304 -0.7040  0.7228
36302SOL    HW215765  10.969   8.509   0.058 -0.4858  1.6372 -1.4563
36303SOL     OW15766   3.126   5.525   3.767 -0.4508 -0.2210 -0.3922
36303SOL    HW115767   3.129   5.476   3.848  0.4869 -1.5450 -1.1817
36303SOL    HW215768   3.036   5.516   3.736 -0.4991 -0.7285 -0.1056
36304SOL     OW15769   0.423  10.966   0.656  0.0961 -0.5610 -0.6881
36304SOL    HW115770   0.338  10.952   0.617 -0.7686  0.3489  0.7598
36304SOL    HW215771   0.479  10.996   0.584 -1.7088  2.1371 -1.1131
36305SOL     OW15772   5.434   1.560   9.230 -0.0078  0.2288 -0.7750
36305SOL    HW115773   5.424   1.528   9.320  2.2415  0.8439 -0.2303
36305SOL    HW215774   5.372   1.633   9.223 -0.5035 -0.0923  0.1441
36306SOL     OW15775   7.258   9.963   5.580  0.4705 -0.5111 -0.2622
36306SOL    HW115776   7.283   9.872   5.566  1.8668  0.0344 -1.6049
36306SOL    HW215777   7.282  10.007   5.498 -0.0642  1.0833  0.4043
36307SOL     OW15778   8.376   9.498   5.965  0.2009 -0.2027  0.1275
36307SOL    HW115779   8.457   9.534   5.929  2.4945 -1.2461  3.6140
36307SOL    HW215780   8.367   9.412   5.924 -0.1659  0.6072 -1.5485
36308SOL     OW15781   2.039   4.592   2.230  0.0824 -0.9151  0.0474
36308SOL    HW115782   1.993   4.636   2.158 -2.3344 -0.3484  1.8195
36308SOL    HW215783   2.002   4.504   2.232 -2.3142 -0.0094  2.4331
36309SOL     OW15784   9.844   0.094  10.857 -0.4770  0.0030  0.0529
36309SOL    HW115785   9.764   0.080  10.806 -0.4883 -0.0034  0.0728
36309SOL    HW215786   9.886   0.169  10.815 -0.0454 -0.5425 -0.5101
36310SOL     OW15787   5.190   8.341   1.654  0.2151  0.1206  0.3568
36310SOL    HW115788   5.203   8.248   1.669 -0.6137 -0.4401 -1.9471
36310SOL    HW215789   5.142   8.371   1.732  0.4262 -1.3676  1.0999
36311SOL     OW15790   5.948   6.981   6.802  0.3003 -0.4290  0.7638
36311SOL    HW115791   5.949   6.922   6.727  0.1071 -0.6962  0.9756
36311SOL    HW215792   5.884   7.048   6.779  3.1474  1.8971 -1.1879
36312SOL     OW15793   6.611   4.135   3.576  0.5114 -0.0838 -0.7362
36312SOL    HW115794   6.677   4.193   3.538  0.4330 -0.1088 -0.9119
36312SOL    HW215795   6.656   4.092   3.649  0.7232 -0.1896 -0.9305
36313SOL     OW15796  12.533   9.975   9.422  0.0346 -0.4248  0.3485
36313SOL    HW115797  12.467   9.922   9.466 -0.4051 -0.5081 -0.3975
36313SOL    HW215798  12.511   9.970   9.329  0.6906  0.0976  0.1497
36314SOL     OW15799   5.135   8.433   0.097 -0.1840  0.1805  0.2566
36314SOL    HW115800   5.210   8.430   0.157 -0.4426 -1.5876  0.5345
36314SOL    HW215801   5.107   8.342   0.088 -0.0231  0.3232 -2.7312
36315SOL     OW15802   1.465   1.807   8.763 -0.4906  0.6809 -0.4655
36315SOL    HW115803   1.502   1.819   8.676 -0.3572 -1.3484 -0.7266
36315SOL    HW215804   1.389   1.865   8.764  0.5675  2.1583 -1.2206
36316SOL     OW15805  12.024   7.666   5.730  0.2726  0.1894  0.0851
36316SOL    HW115806  12.074   7.584   5.730  0.4785  0.2662  1.8758
36316SOL    HW215807  11.984   7.669   5.817 -0.5537  1.5114 -0.3190
36317SOL     OW15808   9.197   1.017   8.906  0.2168  0.0713 -0.4595
36317SOL    HW115809   9.163   0.966   8.833  1.0744 -0.8659 -0.2173
36317SOL    HW215810   9.257   0.958   8.951  0.8619  1.1347  0.1097
36318SOL     OW15811   4.371   0.398   7.191  0.5129 -0.0206  0.2626
36318SOL    HW115812   4.328   0.370   7.111  2.1322  0.8740 -0.9879
36318SOL    HW215813   4.377   0.493   7.184  1.9323 -0.0425  0.7403
36319SOL     OW15814   7.929   8.831   0.983 -0.1581  0.0280 -0.3474
36319SOL    HW115815   7.969   8.896   1.039 -0.1665  0.0543 -0.3722
36319SOL    HW215816   7.952   8.857   0.894  0.0457 -0.1414 -0.3454
36320SOL     OW15817   2.040   2.611   4.281 -0.1877 -0.2783 -0.6541
36320SOL    HW115818   2.135   2.618   4.280 -0.1206 -0.9031  0.3433
36320SOL    HW215819   2.016   2.593   4.190  0.6900 -0.6818 -0.8100
36321SOL     OW15820  10.968  10.531  12.463  0.1018  0.1742  0.2579
36321SOL    HW115821  10.993  10.596  12.529  1.2721 -0.2227  0.2351
36321SOL    HW215822  10.932  10.458  12.514 -1.5673  0.9622  0.2597
36322SOL     OW15823   1.186   5.950   8.210 -0.5568  0.4812 -0.3728
36322SOL    HW115824   1.260   5.890   8.212 -0.6938  0.2602  2.3780
36322SOL    HW215825   1.224   6.036   8.230 -0.9893  0.3799  0.9647
36323SOL     OW15826   8.278   5.117   7.714 -0.1391  0.1593  0.4222
36323SOL    HW115827   8.308   5.168   7.790 -0.7923  0.2209  0.6453
36323SOL    HW215828   8.196   5.159   7.687 -0.9746 -1.0638  0.9357
36324SOL     OW15829   1.769   1.753  11.394  0.6123 -0.3592  0.2267
36324SOL    HW115830   1.832   1.807  11.346  0.0195 -0.1392 -0.3264
36324SOL    HW215831   1.684   1.790  11.370  0.1869 -1.6358 -0.2805
36325SOL     OW15832   4.387   2.059   3.597 -0.2992  0.0095  0.6083
36325SOL    HW115833   4.437   1.979   3.579 -0.5147 -0.2320  1.0683
36325SOL    HW215834   4.392   2.069   3.692  1.8034  1.8933  0.3968
36326SOL     OW15835   9.763   0.046   2.637  0.8826 -0.2352 -0.0633
36326SOL    HW115836   9.817   0.103   2.583 -0.0695  1.4858  0.7151
36326SOL    HW215837   9.728  -0.019   2.576  0.5817  1.0889 -1.3501
36327SOL     OW15838   7.340   7.342  11.758  0.9088  0.1728  0.0072
36327SOL    HW115839   7.374   7.399  11.827 -1.4710  0.6404  0.8613
36327SOL    HW215840   7.293   7.273  11.805 -1.0513  0.6854 -1.1034
36328SOL     OW15841  11.296   4.526   0.621 -0.5393 -0.4729  0.3327
36328SOL    HW115842  11.315   4.554   0.710  1.0635 -1.7542  0.4336
36328SOL    HW215843  11.274   4.433   0.629 -0.4057 -0.5950 -0.6001
36329SOL     OW15844   5.858   8.488   5.061 -0.4984  0.4074 -0.5186
36329SOL    HW115845   5.953   8.496   5.064 -0.6515  2.5515  0.0285
36329SOL    HW215846   5.832   8.542   4.986 -1.2706 -0.4368 -0.8748
36330SOL     OW15847   9.411   9.467   0.969  0.3443  0.6028  0.3896
36330SOL    HW115848   9.451   9.435   0.888 -0.6634 -0.7903  0.4193
36330SOL    HW215849   9.334   9.516   0.940 -1.1529 -1.5528  0.5246
36331SOL     OW15850   0.266   6.786   9.066 -0.1547 -0.1449  0.1534
36331SOL    HW115851   0.333   6.777   9.134  0.4560 -0.2316 -0.4448
36331SOL    HW215852   0.245   6.696   9.041 -1.6421 -0.1894  1.4105
36332SOL     OW15853   1.671  12.348   0.424  0.2944 -0.1126 -0.8636
36332SOL    HW115854   1.750  12.372   0.472 -0.6146  0.6488  0.3086
36332SOL    HW215855   1.635  12.432   0.393  0.5954 -0.5463 -2.4938
36333SOL     OW15856   8.538   6.899   5.706 -0.2219 -0.4992 -0.2467
36333SOL    HW115857   8.551   6.989   5.675  1.6034 -0.4871  0.4128
36333SOL    HW215858   8.610   6.885   5.767 -1.3649 -1.9116  0.8242
36334SOL     OW15859   8.005   6.118   7.124  0.5536  0.4651  0.3084
36334SOL    HW115860   7.974   6.150   7.209  0.1125 -1.8043  1.0683
36334SOL    HW215861   7.955   6.168   7.060 -0.6890  0.7127  1.4318
36335SOL     OW15862   3.188   2.139  11.789 -0.2733  0.5090 -0.3082
36335SOL    HW115863   3.280   2.157  11.808 -0.3489  0.3452  0.2086
36335SOL    HW215864   3.167   2.199  11.717  0.3078  0.3607 -0.6115
36336SOL     OW15865   7.774   8.041  10.567  0.0817  0.5518  0.0967
36336SOL    HW115866   7.851   7.983  10.573  1.2228  2.0505  0.6062
36336SOL    HW215867   7.716   8.010  10.637  0.3593 -0.3801 -0.0660
36337SOL     OW15868  12.222   1.137   2.333  0.3559 -0.1115  0.1679
36337SOL    HW115869  12.159   1.165   2.400 -0.8173 -0.7696 -0.6165
36337SOL    HW215870  12.168   1.091   2.268  1.5503  0.0052 -0.9373
36338SOL     OW15871   6.586   7.349  12.459  0.0067 -0.4342  0.3103
36338SOL    HW115872   6.552   7.402  12.531  0.1666  2.5534 -1.6272
36338SOL    HW215873   6.516   7.286  12.441 -0.8683  0.0594  1.7511
36339SOL     OW15874  10.688   5.313   7.119 -0.4887  0.1672  0.1905
36339SOL    HW115875  10.740   5.373   7.173  0.3010 -1.1486  0.9763
36339SOL    HW215876  10.742   5.233   7.115 -1.4052 -0.4190 -0.9774
36340SOL     OW15877   8.483   7.994  11.677 -0.3908  0.2359 -0.0524
36340SOL    HW115878   8.431   7.966  11.752  0.8256 -1.1613  0.3198
36340SOL    HW215879   8.573   7.973  11.701 -0.1314 -2.5544 -2.8427
36341SOL     OW15880   7.413  12.577   6.253  0.3767  0.1024  0.4523
36341SOL    HW115881   7.372  12.559   6.168 -0.5560  2.5321  0.3262
36341SOL    HW215882   7.347  12.553   6.318 -0.1910  1.2850  0.3415
36342SOL     OW15883  10.195   9.591   4.366  0.1437 -0.6644  0.1555
36342SOL    HW115884  10.177   9.677   4.328 -1.8733 -1.2958 -0.3970
36342SOL    HW215885  10.232   9.540   4.294 -2.0689 -1.3291 -0.5870
36343SOL     OW15886   4.413  10.674   6.371 -0.3847  0.1843 -0.1543
36343SOL    HW115887   4.347  10.631   6.425 -1.9660  1.8907 -0.6188
36343SOL    HW215888   4.422  10.618   6.294 -0.6617 -0.4923  0.3027
36344SOL     OW15889   4.522   3.959   9.422  0.2479 -0.0490 -0.7631
36344SOL    HW115890   4.599   3.977   9.475 -0.5411  1.1013  0.0374
36344SOL    HW215891   4.518   3.863   9.417 -1.1526 -0.4376  3.6227
36345SOL     OW15892  10.381   8.109   5.424  0.2970  0.2296 -0.4300
36345SOL    HW115893  10.474   8.125   5.436  0.5047 -1.0199 -0.2484
36345SOL    HW215894  10.375   8.016   5.403 -1.0219 -0.0385  0.9414
36346SOL     OW15895   3.988   1.414   2.937  0.3640 -0.4723 -0.1574
36346SOL    HW115896   3.928   1.464   2.881  2.4111 -0.6677 -2.6975
36346SOL    HW215897   3.931   1.359   2.990 -1.7526  0.5888 -1.1989
36347SOL     OW15898   9.236   2.630   2.128  0.7106  0.6116 -0.4220
36347SOL    HW115899   9.153   2.676   2.118 -0.0277 -0.6370 -0.3071
36347SOL    HW215900   9.270   2.622   2.039  0.2764  0.3818 -0.5704
36348SOL     OW15901   0.089  10.051  12.528  0.1042  0.6540  0.0239
36348SOL    HW115902   0.179  10.035  12.500  2.1851  2.7606  4.3717
36348SOL    HW215903   0.087  10.022  12.620 -3.3191  1.7348  0.4444
36349SOL     OW15904   4.103   4.151   4.830  0.7096  0.1935 -0.3434
36349SOL    HW115905   4.115   4.201   4.748 -1.4979 -0.9911 -1.4716
36349SOL    HW215906   4.150   4.069   4.814  0.3492 -0.0035 -0.3820
36350SOL     OW15907   1.488   7.452   7.936  0.1186 -0.1353  0.2033
36350SOL    HW115908   1.410   7.416   7.979  1.5576 -0.3900  2.7452
36350SOL    HW215909   1.524   7.378   7.887 -0.8556 -0.1715 -0.5055
36351SOL     OW15910   7.895   9.607   2.895 -0.3374 -0.7284 -0.0349
36351SOL    HW115911   7.839   9.681   2.872  0.6387  0.0157 -0.1022
36351SOL    HW215912   7.980   9.647   2.916  0.1893 -1.8253 -0.0090
36352SOL     OW15913  12.397   4.874   1.911 -0.2969 -0.4011 -0.0310
36352SOL    HW115914  12.316   4.897   1.956  0.0334  0.3301  0.2007
36352SOL    HW215915  12.441   4.957   1.896  0.3140 -0.7732 -0.3472
36353SOL     OW15916   5.050  11.788   1.454 -0.4380  0.2269  0.1999
36353SOL    HW115917   4.962  11.788   1.492  0.0244  1.6663  1.3720
36353SOL    HW215918   5.071  11.881   1.442  0.7180 -0.1045 -0.5648
36354SOL     OW15919   8.820   0.657   4.171 -0.4539  0.0728 -0.3279
36354SOL    HW115920   8.838   0.689   4.083 -0.0604 -0.4507 -0.4402
36354SOL    HW215921   8.884   0.702   4.226  0.7895 -1.2484 -0.6283
36355SOL     OW15922   1.781   9.179  12.007 -0.4465 -0.0032  0.6035
36355SOL    HW115923   1.708   9.232  11.973 -1.5560 -0.9933  1.3713
36355SOL    HW215924   1.773   9.186  12.102 -0.1758 -0.9605  0.7041
36356SOL     OW15925   8.971   3.437  11.313  0.3576 -0.4144 -0.0737
36356SOL    HW115926   9.014   3.508  11.362  0.1814 -0.8199  0.6844
36356SOL    HW215927   8.916   3.482  11.249 -0.4347  0.1500  0.9834
36357SOL     OW15928   1.357   2.747   4.315 -0.0857  0.2243  0.5509
36357SOL    HW115929   1.379   2.661   4.350  4.9377  0.5693 -0.9771
36357SOL    HW215930   1.304   2.729   4.238  0.7686 -1.5466  0.3401
36358SOL     OW15931   4.322   2.345   7.496  0.2269  0.2361  0.4289
36358SOL    HW115932   4.415   2.328   7.483 -0.1228 -0.9712 -0.7489
36358SOL    HW215933   4.282   2.323   7.412 -1.2971 -0.6367  1.3350
36359SOL     OW15934   6.505   7.374   9.548 -0.2442  0.3992  0.2081
36359SOL    HW115935   6.471   7.347   9.463  0.3476  0.3718 -0.0260
36359SOL    HW215936   6.598   7.349   9.546  0.4048  2.5816 -0.1084
36360SOL     OW15937   8.105  11.457  11.648 -0.0284  0.2148  0.0218
36360SOL    HW115938   8.015  11.433  11.669  0.2291 -0.7228  0.0586
36360SOL    HW215939   8.159  11.393  11.694  0.5976 -0.4307 -1.5444
36361SOL     OW15940  10.162   8.045   5.179  0.0447  0.1031 -0.6664
36361SOL    HW115941  10.155   8.120   5.238 -0.8114 -0.2579 -0.3083
36361SOL    HW215942  10.107   8.068   5.104 -1.7451 -0.9442  0.2769
36362SOL     OW15943   8.769  10.577   5.990  0.1604 -0.2834 -0.0742
36362SOL    HW115944   8.835  10.585   6.059  1.5387 -1.3772 -1.2148
36362SOL    HW215945   8.774  10.486   5.961 -0.6159  0.0660 -1.4066
36363SOL     OW15946  10.932   6.566   7.677  0.2221  0.3748  0.2873
36363SOL    HW115947  10.936   6.561   7.582 -0.7598 -1.2885  0.3035
36363SOL    HW215948  10.980   6.647   7.698  0.8370  0.5531 -1.5625
36364SOL     OW15949  11.502   8.418   1.901 -0.5489  0.3126 -0.0383
36364SOL    HW115950  11.417   8.393   1.865 -0.3395  1.6335 -1.5744
36364SOL    HW215951  11.565   8.360   1.858 -0.4606  0.8169 -0.5986
36365SOL     OW15952  12.429   2.885   4.669  0.0679  0.1147  0.3944
36365SOL    HW115953  12.346   2.924   4.698 -0.7946 -1.3055 -0.0361
36365SOL    HW215954  12.416   2.868   4.576  2.2510  3.2350 -0.6670
36366SOL     OW15955   3.540   4.948  11.446 -1.1558  0.4656 -0.0957
36366SOL    HW115956   3.533   4.912  11.358  0.6995  1.4845 -0.7204
36366SOL    HW215957   3.518   4.876  11.504 -0.5825 -0.7625 -1.3556
36367SOL     OW15958  10.429   4.628  10.253 -0.0294 -0.1606 -0.1722
36367SOL    HW115959  10.391   4.692  10.313  1.0779  2.4775 -2.0915
36367SOL    HW215960  10.354   4.590  10.207 -0.7568  3.5527 -2.5431
36368SOL     OW15961   5.706   5.881   3.138 -0.2199  0.0261 -0.3786
36368SOL    HW115962   5.741   5.805   3.185  2.9324  1.1613 -0.6761
36368SOL    HW215963   5.771   5.950   3.151 -1.9734  2.1106 -1.8058
36369SOL     OW15964   2.043  10.578   4.761  0.3904 -0.5577  0.2033
36369SOL    HW115965   1.952  10.603   4.781  0.0332 -1.4108 -0.3075
36369SOL    HW215966   2.061  10.617   4.676  0.2459 -0.9909 -0.0315
36370SOL     OW15967   8.671   2.404   2.650  0.6187 -0.4535 -0.0442
36370SOL    HW115968   8.594   2.411   2.707 -0.4596  2.5376 -1.6659
36370SOL    HW215969   8.648   2.335   2.588 -1.4669  1.2817 -1.3327
36371SOL     OW15970   4.147   6.872   1.287  0.7319  0.4840 -0.4277
36371SOL    HW115971   4.171   6.780   1.302 -1.4793 -0.1896 -0.7923
36371SOL    HW215972   4.148   6.883   1.192  1.0913  0.9043 -0.3850
36372SOL     OW15973  12.303  10.587   0.820 -0.1685  0.6781 -0.2906
36372SOL    HW115974  12.394  10.599   0.794 -0.1938 -0.8230 -1.2035
36372SOL    HW215975  12.304  10.588   0.916  0.8788  0.3165 -0.2872
36373SOL     OW15976  12.023   4.760  10.954  0.5498  0.0152  0.4102
36373SOL    HW115977  11.984   4.814  11.023  0.1436 -0.5499  0.6296
36373SOL    HW215978  12.114   4.746  10.983  0.9798  1.4241 -0.1579
36374SOL     OW15979   3.251   8.529   1.560 -0.2894 -0.2233 -0.2104
36374SOL    HW115980   3.255   8.571   1.646 -1.9644 -0.9539  0.2676
36374SOL    HW215981   3.209   8.444   1.576 -0.3068 -0.5296 -1.6902
36375SOL     OW15982   6.944   7.506   4.899 -0.8541 -0.9485  0.0456
36375SOL    HW115983   7.026   7.510   4.949 -1.2075 -1.4912  0.6731
36375SOL    HW215984   6.968   7.539   4.812 -0.1613 -0.3000  0.4659
36376SOL     OW15985   8.289  10.979  12.194 -0.7668  0.5672 -0.2848
36376SOL    HW115986   8.333  11.000  12.111 -1.0363 -0.5967 -0.7418
36376SOL    HW215987   8.319  11.046  12.255  1.4839 -0.0463 -0.6344
36377SOL     OW15988  12.113   0.594   1.294 -0.0488 -0.0723 -0.2373
36377SOL    HW115989  12.048   0.629   1.355  0.3799 -1.7319  1.2906
36377SOL    HW215990  12.197   0.628   1.327  0.2589 -1.5530  0.6306
36378SOL     OW15991   8.530   2.666   7.580  0.6117  0.4089 -0.3779
36378SOL    HW115992   8.445   2.625   7.600  0.4289  0.3388 -1.2572
36378SOL    HW215993   8.519   2.700   7.491  0.7455  2.3919  0.3154
36379SOL     OW15994   1.919   9.361   8.918  0.2497 -0.3113  0.0025
36379SOL    HW115995   1.876   9.359   8.832  0.8423 -1.8219 -0.2868
36379SOL    HW215996   1.855   9.402   8.976 -1.0417 -1.2433 -0.7014
36380SOL     OW15997   4.461  12.114  11.421 -0.1862  0.5293  0.3492
36380SOL    HW115998   4.544  12.123  11.375  0.1227  1.8028  1.1286
36380SOL    HW215999   4.397  12.159  11.365 -0.5550 -1.1679 -0.6722
36381SOL     OW16000   7.474   9.860   8.365  0.3535 -0.3398  0.0084
36381SOL    HW116001   7.448   9.836   8.454  0.4925 -0.6967 -0.0442
36381SOL    HW216002   7.503   9.951   8.372  1.0295 -0.5841  0.4657
36382SOL     OW16003  12.208  11.705   8.654 -0.3369 -0.0623  0.3139
36382SOL    HW116004  12.171  11.711   8.742 -1.4647 -2.0493  0.0462
36382SOL    HW216005  12.132  11.698   8.596  0.4069  0.1960 -0.7212
36383SOL     OW16006   5.345  12.310   4.266 -0.1346 -0.2756  0.3140
36383SOL    HW116007   5.333  12.215   4.271 -0.1609 -0.2817  0.1184
36383SOL    HW216008   5.261  12.345   4.295  0.1751 -0.3023  1.2952
36384SOL     OW16009   6.488   0.639  10.818  0.2030  0.2382  0.8585
36384SOL    HW116010   6.505   0.630  10.912  1.7300  0.3501  0.6171
36384SOL    HW216011   6.518   0.728  10.796 -0.2053  0.2410  0.2736
36385SOL     OW16012   8.140   9.640  11.477 -0.1028  0.1243 -0.3739
36385SOL    HW116013   8.072   9.659  11.541  1.4433  0.9647  1.1191
36385SOL    HW216014   8.180   9.725  11.458  0.9747 -0.4247 -0.6801
36386SOL     OW16015   1.003  12.194  12.028 -0.3487 -0.8002  0.1959
36386SOL    HW116016   0.926  12.145  12.057 -0.3759 -0.5424  0.5675
36386SOL    HW216017   1.011  12.265  12.091 -0.5431 -0.0895 -0.5651
36387SOL     OW16018  11.860   2.616   2.560 -0.6456 -0.5364 -0.0083
36387SOL    HW116019  11.923   2.573   2.618  0.5176  0.0287 -0.8039
36387SOL    HW216020  11.788   2.554   2.553  0.3705 -1.7677 -0.0372
36388SOL     OW16021   6.330   5.302   6.851 -0.1646  0.0413 -0.7436
36388SOL    HW116022   6.419   5.336   6.856 -0.6677  1.2115  2.5916
36388SOL    HW216023   6.341   5.212   6.819  1.8505  1.0227 -3.1399
36389SOL     OW16024   2.103   2.952   9.688  0.4407  0.1885  0.4054
36389SOL    HW116025   2.052   2.870   9.685 -0.5687  0.8161 -0.3048
36389SOL    HW216026   2.065   3.005   9.618  1.9544  0.7691  0.0062
36390SOL     OW16027   2.195   5.568   8.664 -0.1838  0.2945 -0.4926
36390SOL    HW116028   2.185   5.609   8.578  0.3692 -0.5007 -0.9511
36390SOL    HW216029   2.132   5.613   8.720  0.4899  1.8675 -0.9331
36391SOL     OW16030   7.592   6.286  12.499  0.3925  0.0799  0.4494
36391SOL    HW116031   7.526   6.219  12.479 -1.6409  0.8661  3.8178
36391SOL    HW216032   7.649   6.244  12.563  0.2205  0.9501  1.1807
36392SOL     OW16033   1.994   9.705  11.314  0.0382  0.0175  0.0542
36392SOL    HW116034   2.018   9.618  11.345  1.7089  0.9181  1.4775
36392SOL    HW216035   1.922   9.732  11.372 -0.8435 -0.5728 -0.7269
36393SOL     OW16036   1.981  11.412   8.622  0.3622  0.2293  0.0941
36393SOL    HW116037   1.945  11.335   8.578 -1.0883  0.6427  0.4719
36393SOL    HW216038   2.040  11.452   8.558 -1.1921  0.4507 -1.2622
36394SOL     OW16039   9.984   8.911   2.076 -0.1230 -0.0823  0.5556
36394SOL    HW116040   9.946   8.838   2.027 -0.6698 -0.0786  0.9681
36394SOL    HW216041   9.933   8.987   2.050 -0.3383 -0.0582  1.0255
36395SOL     OW16042  12.124   6.448   6.911  0.5018 -1.0411  0.0242
36395SOL    HW116043  12.188   6.487   6.971  0.0626 -2.0728  1.2071
36395SOL    HW216044  12.050   6.424   6.967 -0.0544 -1.7557 -0.9856
36396SOL     OW16045   2.347   0.687   7.791  0.0012 -0.3378 -0.0156
36396SOL    HW116046   2.283   0.755   7.772  1.1343  0.7239 -0.1329
36396SOL    HW216047   2.323   0.655   7.878 -0.0419  0.8001  0.4001
36397SOL     OW16048   7.755   4.468   0.486 -0.0344 -0.4949  0.4094
36397SOL    HW116049   7.688   4.402   0.500 -2.4973  2.0532  1.4366
36397SOL    HW216050   7.777   4.500   0.573  1.2159 -0.0190 -0.0541
36398SOL     OW16051   0.893   5.376   5.354 -0.3267 -0.9333  0.4540
36398SOL    HW116052   0.982   5.362   5.321  0.1460  2.7393 -0.2747
36398SOL    HW216053   0.841   5.395   5.276 -0.7528  1.0485  1.1644
36399SOL     OW16054   2.505   3.163   6.345  0.3293  0.2106  0.0840
36399SOL    HW116055   2.589   3.122   6.367  0.8578  1.1564 -0.1164
36399SOL    HW216056   2.510   3.179   6.251 -1.0938 -1.9482 -0.4412
36400SOL     OW16057   4.738   5.933   9.387 -0.2863  0.0609  0.3169
36400SOL    HW116058   4.770   5.922   9.477  1.9156 -1.3710 -0.5692
36400SOL    HW216059   4.662   5.991   9.396  0.0691  0.2381  3.0483
36401SOL     OW16060   6.169   6.887  10.857 -0.0366 -0.1780 -0.1060
36401SOL    HW116061   6.157   6.839  10.939  1.1110 -0.5705 -0.1523
36401SOL    HW216062   6.253   6.857  10.823  0.2168  1.1034 -0.6692
36402SOL     OW16063   4.488   4.150   0.214 -0.3692 -0.0340 -0.0644
36402SOL    HW116064   4.483   4.126   0.122  0.5423 -0.3413 -0.0506
36402SOL    HW216065   4.582   4.146   0.235 -0.5257  0.3926  0.7766
36403SOL     OW16066  10.471  12.268   3.791  0.2504 -0.0241 -0.3532
36403SOL    HW116067  10.458  12.275   3.886 -0.8874  0.6516 -0.5347
36403SOL    HW216068  10.399  12.319   3.753 -0.2769 -1.6264 -1.6137
36404SOL     OW16069   4.271   4.573   2.889 -0.1676 -0.2065 -0.2571
36404SOL    HW116070   4.315   4.510   2.945 -0.4086 -0.0392  0.1276
36404SOL    HW216071   4.262   4.529   2.804 -3.2820 -2.0115  0.8637
36405SOL     OW16072  10.310   1.379   0.222 -0.2422  0.5766  0.2677
36405SOL    HW116073  10.222   1.408   0.247 -0.1888  0.2531  0.8379
36405SOL    HW216074  10.298   1.291   0.187 -0.8206  2.1534 -4.1081
36406SOL     OW16075  11.352   0.384  11.953 -0.5729 -0.0106  0.4246
36406SOL    HW116076  11.258   0.370  11.950 -0.5676 -0.5874  2.0895
36406SOL    HW216077  11.366   0.441  12.029  0.1648  2.6966 -1.5779
36407SOL     OW16078   9.507   2.170   0.191 -0.2642  0.6750  0.1307
36407SOL    HW116079   9.444   2.241   0.203 -0.1894  0.8278 -0.3820
36407SOL    HW216080   9.484   2.106   0.259 -0.2227  1.2650  0.7066
36408SOL     OW16081  10.417   8.269  10.244 -0.0050 -0.1431  0.2167
36408SOL    HW116082  10.443   8.357  10.272  1.2012 -0.6227  0.6711
36408SOL    HW216083  10.479   8.210  10.287 -0.0917 -1.1409 -0.9487
36409SOL     OW16084   4.958  10.090  12.035  0.7840 -0.2738  0.2132
36409SOL    HW116085   4.934  10.157  12.100 -0.5082 -1.7120  1.3140
36409SOL    HW216086   5.053  10.082  12.042  0.6522 -0.6427  2.2580
36410SOL     OW16087  10.676  10.830   9.716  0.2349 -0.6683 -0.6928
36410SOL    HW116088  10.638  10.895   9.657 -2.5689 -1.5093  0.0203
36410SOL    HW216089  10.728  10.774   9.659  0.5257  0.6101 -1.7421
36411SOL     OW16090  10.911   5.974   7.079 -0.7910  0.1655  0.1477
36411SOL    HW116091  10.831   6.020   7.103 -0.4587  0.7827  0.0837
36411SOL    HW216092  10.979   6.040   7.083 -0.0069 -0.6744  1.7621
36412SOL     OW16093   2.301   2.918  11.201  0.1806  0.2652 -0.4082
36412SOL    HW116094   2.268   3.007  11.188 -0.7143 -0.2855 -2.2311
36412SOL    HW216095   2.281   2.899  11.293 -3.2146  0.5739 -0.9458
36413SOL     OW16096   0.533   8.182   4.420  0.5129 -0.0827 -0.0776
36413SOL    HW116097   0.530   8.216   4.330  0.9411  1.3939  0.4532
36413SOL    HW216098   0.623   8.194   4.448  0.8790 -2.3011 -0.0647
36414SOL     OW16099   2.819   8.666   3.377  0.2891 -0.2323  0.1370
36414SOL    HW116100   2.893   8.722   3.351 -0.4860  1.2045  0.9165
36414SOL    HW216101   2.776   8.715   3.447 -1.9798 -0.5738 -0.9533
36415SOL     OW16102   2.963  10.285  12.297 -0.1124  0.2851  0.6832
36415SOL    HW116103   3.046  10.317  12.262  0.2493 -1.0887  0.2181
36415SOL    HW216104   2.932  10.355  12.354  0.5615  1.4908 -0.3936
36416SOL     OW16105   3.395   9.384  12.210  0.3719  0.5106  0.5189
36416SOL    HW116106   3.470   9.350  12.259  0.3240 -0.7204 -0.2292
36416SOL    HW216107   3.320   9.363  12.265  0.4648  0.5894  0.6754
36417SOL     OW16108   4.273   7.505   4.106  0.6026  0.4403  0.1260
36417SOL    HW116109   4.233   7.588   4.079  1.4464  0.8110 -0.0100
36417SOL    HW216110   4.300   7.464   4.024 -1.1987 -0.7257  0.0500
36418SOL     OW16111   2.911   9.314  12.293  0.2866 -0.3540 -0.1677
36418SOL    HW116112   2.821   9.291  12.272 -0.0253  0.5641  0.1398
36418SOL    HW216113   2.927   9.271  12.378  0.0091 -0.1905 -0.0308
36419SOL     OW16114   2.175   2.682   5.610  0.1988 -0.0459 -0.5452
36419SOL    HW116115   2.242   2.748   5.591 -1.2713  1.2415 -1.5223
36419SOL    HW216116   2.135   2.710   5.692 -0.6731  0.5425 -1.1457
36420SOL     OW16117   2.264   7.832  11.721 -0.0511  0.3279 -0.3950
36420SOL    HW116118   2.292   7.898  11.658 -1.0996 -1.6341 -3.1190
36420SOL    HW216119   2.342   7.811  11.771  1.1424  1.2200 -1.8040
36421SOL     OW16120   3.400   4.897  10.112  0.4608 -0.7371  0.1437
36421SOL    HW116121   3.392   4.870  10.203 -0.3220 -1.7529 -0.2007
36421SOL    HW216122   3.473   4.960  10.111 -0.1567  0.0319  1.6081
36422SOL     OW16123  11.179   3.334   2.613 -0.0156 -0.2762 -0.0595
36422SOL    HW116124  11.209   3.333   2.522  1.6014 -1.1466  0.4310
36422SOL    HW216125  11.215   3.415   2.649 -1.0546  0.3072 -0.2869
36423SOL     OW16126   6.386   7.327   1.992  0.1138 -0.4987 -0.4191
36423SOL    HW116127   6.376   7.282   1.908 -1.2994  0.9060 -1.0338
36423SOL    HW216128   6.352   7.415   1.977  2.6337  0.7837  0.8065
36424SOL     OW16129   9.537   6.718   0.922  0.4162 -0.4034  0.2257
36424SOL    HW116130   9.496   6.643   0.878  1.7696 -1.8584  1.3272
36424SOL    HW216131   9.618   6.734   0.873  0.9535 -0.7652  0.9757
36425SOL     OW16132   9.866   4.122  12.182  0.3589  0.0730 -0.0637
36425SOL    HW116133   9.780   4.083  12.164 -0.8985  2.0904  1.1979
36425SOL    HW216134   9.928   4.064  12.137 -1.7144 -0.8432 -1.9447
36426SOL     OW16135   5.018   0.770   0.747  0.5711 -0.6283 -0.3565
36426SOL    HW116136   5.050   0.710   0.814  1.6740 -0.1861 -0.4735
36426SOL    HW216137   4.923   0.769   0.758  0.6810 -1.1836  0.6719
36427SOL     OW16138   3.519   3.322   5.470 -0.5999 -0.2191 -0.3922
36427SOL    HW116139   3.467   3.402   5.458 -1.7063 -1.0290 -1.1749
36427SOL    HW216140   3.596   3.336   5.416  0.0592  1.0195  0.8155
36428SOL     OW16141  10.638   4.213   8.564  1.0233 -0.0153  0.1851
36428SOL    HW116142  10.606   4.298   8.596  1.0715  0.1050 -0.0895
36428SOL    HW216143  10.727   4.230   8.535  0.9834 -0.1296 -0.0067
36429SOL     OW16144   4.768  10.130   2.416 -0.2370  0.0754  0.1843
36429SOL    HW116145   4.848  10.176   2.441  0.3970 -1.3260  0.8299
36429SOL    HW216146   4.793  10.079   2.339 -0.6271 -0.0737  0.1564
36430SOL     OW16147  11.103   3.122  11.843 -0.2136  0.0902 -0.5418
36430SOL    HW116148  11.111   3.088  11.754 -1.9964 -1.1401 -0.2856
36430SOL    HW216149  11.083   3.215  11.831 -1.2375 -0.2268 -1.4705
36431SOL     OW16150  12.495   6.846   2.762  0.2884 -0.6791  0.0565
36431SOL    HW116151  12.401   6.854   2.748  0.5857  0.3498 -1.7378
36431SOL    HW216152  12.511   6.751   2.765 -0.6352 -0.9152 -1.2794
36432SOL     OW16153   8.293   7.694  12.544 -0.3472  0.2890  0.3152
36432SOL    HW116154   8.258   7.665  12.628 -0.6381  1.3518  0.5745
36432SOL    HW216155   8.229   7.662  12.480  0.5601 -1.7049  0.3283
36433SOL     OW16156  11.180   7.906   7.688  0.2449 -0.3345 -0.1482
36433SOL    HW116157  11.159   7.910   7.594 -0.5833  0.6809  0.0602
36433SOL    HW216158  11.271   7.878   7.691  0.0630 -1.1083 -1.2329
36434SOL     OW16159   4.248   3.816   1.523  0.1654  0.2321  0.3833
36434SOL    HW116160   4.209   3.738   1.485  0.4784 -1.5988  3.4369
36434SOL    HW216161   4.272   3.871   1.448 -1.5983 -1.8032 -1.8231
36435SOL     OW16162   5.672   0.452  10.315  0.3279  0.1321  0.5555
36435SOL    HW116163   5.709   0.540  10.316  2.1804 -0.5892  0.6431
36435SOL    HW216164   5.692   0.416  10.401  0.6054 -0.7430  0.1477
36436SOL     OW16165   0.913   4.714  10.520  0.2863  0.0332 -0.2345
36436SOL    HW116166   0.823   4.681  10.516 -0.0890  1.1318 -2.3960
36436SOL    HW216167   0.962   4.643  10.562 -1.2664 -1.3572 -0.6409
36437SOL     OW16168  11.242   1.964   5.752 -0.9811  0.1981  0.2774
36437SOL    HW116169  11.316   2.024   5.759 -0.6235 -0.1574 -0.3492
36437SOL    HW216170  11.257   1.899   5.821  0.2966 -0.9310 -1.0128
36438SOL     OW16171  12.491   7.419  12.409  0.1584  0.1991 -0.2047
36438SOL    HW116172  12.423   7.430  12.475  0.0176  0.9172 -0.4613
36438SOL    HW216173  12.447   7.434  12.325  0.5841  0.4800 -0.3852
36439SOL     OW16174   5.752  10.815   3.716  0.2028 -0.0325  0.1636
36439SOL    HW116175   5.734  10.798   3.809 -1.4131 -2.6322 -0.5207
36439SOL    HW216176   5.691  10.886   3.693 -1.6066 -1.4231  0.4494
36440SOL     OW16177   6.905   6.809   4.137 -0.2014 -0.3856 -0.1597
36440SOL    HW116178   6.916   6.899   4.107 -0.1937 -0.6483 -0.9659
36440SOL    HW216179   6.816   6.807   4.174 -0.0756  0.0290  0.1823
36441SOL     OW16180   3.946  10.229   2.490  0.4487 -0.7626 -0.2145
36441SOL    HW116181   3.983  10.247   2.576  0.9132 -0.0507 -0.5610
36441SOL    HW216182   3.860  10.191   2.509 -0.1384  0.8411  0.5737
36442SOL     OW16183   6.470  10.652  10.958 -0.0217  0.2563 -0.0393
36442SOL    HW116184   6.458  10.625  11.050  1.7098 -2.0113 -0.3930
36442SOL    HW216185   6.384  10.636  10.918 -0.7244  1.0099  1.0870
36443SOL     OW16186   8.781   0.247  10.937  0.1857  0.0880  0.2635
36443SOL    HW116187   8.857   0.199  10.904  0.4650  0.2708  0.6453
36443SOL    HW216188   8.813   0.335  10.955 -0.2199  0.2920  0.0117
36444SOL     OW16189   6.489   2.757  10.727  0.2600 -0.6598  0.5019
36444SOL    HW116190   6.571   2.798  10.752  0.0170  0.1067  0.0796
36444SOL    HW216191   6.507   2.714  10.644 -0.1904  1.0030 -0.5041
36445SOL     OW16192  11.001   7.661   2.807 -0.5490  0.5941  0.1960
36445SOL    HW116193  10.930   7.611   2.847  0.0059 -0.4072 -0.0236
36445SOL    HW216194  11.060   7.681   2.880 -0.4705  0.3874  0.1911
36446SOL     OW16195   3.638   6.388   2.955  0.0699 -0.2451  0.1308
36446SOL    HW116196   3.596   6.470   2.983 -0.7707 -0.6771  0.1582
36446SOL    HW216197   3.660   6.344   3.037  1.3832  0.3536  0.1380
36447SOL     OW16198   9.800   5.598   6.148  0.1223  0.6178  0.2519
36447SOL    HW116199   9.774   5.553   6.229 -2.4345  0.9479 -0.2998
36447SOL    HW216200   9.892   5.573   6.135 -0.0386 -1.1845  2.0796
36448SOL     OW16201   0.021   4.662   6.599  0.2719  0.6117  0.1849
36448SOL    HW116202   0.065   4.637   6.518  0.2117  0.1522  0.2862
36448SOL    HW216203  -0.064   4.696   6.571  0.1135  0.1306  0.0691
36449SOL     OW16204   1.281   2.249   5.528  0.3323 -0.1725  0.6509
36449SOL    HW116205   1.284   2.321   5.591 -0.7921  0.2105  0.2890
36449SOL    HW216206   1.233   2.285   5.453 -0.6244 -1.4142  0.6340
36450SOL     OW16207   3.920   6.752   2.427  0.1878 -0.1071 -0.3913
36450SOL    HW116208   3.948   6.821   2.368  0.8565  1.0408  1.1803
36450SOL    HW216209   3.826   6.767   2.441  0.3087  0.4177 -0.1464
36451SOL     OW16210   1.796   7.289   5.672  0.3808 -0.0501  0.5091
36451SOL    HW116211   1.741   7.366   5.689  1.8852  0.8055  1.7948
36451SOL    HW216212   1.860   7.319   5.607  0.5053 -0.4571  0.4412
36452SOL     OW16213   7.681   2.413   5.081  0.5267 -0.6271 -0.1074
36452SOL    HW116214   7.698   2.501   5.114  0.1189 -0.0910 -1.2802
36452SOL    HW216215   7.633   2.370   5.151 -1.3262  0.8506 -0.3748
36453SOL     OW16216   6.360   7.904   5.167 -0.2237 -0.4004  0.4351
36453SOL    HW116217   6.414   7.845   5.115  0.1235 -0.8163  1.2451
36453SOL    HW216218   6.270   7.886   5.138 -0.0969 -1.1563  0.4988
36454SOL     OW16219   2.348   6.729   4.130  0.0673 -0.2396  0.3755
36454SOL    HW116220   2.349   6.651   4.186 -1.2037 -1.6798 -1.4848
36454SOL    HW216221   2.256   6.752   4.123  0.4005  1.3086  0.6558
36455SOL     OW16222   8.953   3.469   8.979  0.2874 -0.6109  0.0406
36455SOL    HW116223   8.972   3.523   9.055 -1.2883 -0.7840  0.5925
36455SOL    HW216224   8.858   3.474   8.968  0.3377 -1.5535 -1.1913
36456SOL     OW16225   1.315   6.239   0.372 -0.0955  0.5693 -0.0060
36456SOL    HW116226   1.360   6.187   0.305  1.1254  0.4629  0.8522
36456SOL    HW216227   1.223   6.238   0.345  0.1937 -0.3712 -1.0823
36457SOL     OW16228   5.567   9.413  11.948 -0.0527  0.3846 -0.1870
36457SOL    HW116229   5.569   9.456  12.034  0.4683 -0.4355  0.2135
36457SOL    HW216230   5.476   9.383  11.939  0.7957 -3.3776  2.0349
36458SOL     OW16231   9.005   0.753   5.638  0.2702 -0.3030 -0.7113
36458SOL    HW116232   9.053   0.791   5.563 -0.5219 -1.4766 -1.8494
36458SOL    HW216233   8.920   0.728   5.601 -0.2949 -0.5336  0.7045
36459SOL     OW16234   1.922   9.730   1.079  0.5333 -0.9942  0.8052
36459SOL    HW116235   1.851   9.747   1.016  0.2891 -2.2476  0.7147
36459SOL    HW216236   1.903   9.788   1.153  0.6240  0.2337 -0.1105
36460SOL     OW16237   0.504   9.720   1.069  0.5139 -0.1444  0.2331
36460SOL    HW116238   0.523   9.633   1.106  1.3532 -0.2602 -0.4425
36460SOL    HW216239   0.446   9.703   0.996  2.8568 -0.4872 -1.6774
36461SOL     OW16240   0.147  12.030   2.402  0.3763 -0.2289 -0.6130
36461SOL    HW116241   0.222  11.976   2.375  1.1907  1.3750 -1.7175
36461SOL    HW216242   0.134  12.090   2.329 -1.7393 -0.1783 -0.2471
36462SOL     OW16243   1.230  10.824   2.890 -0.9558 -0.2052 -0.5036
36462SOL    HW116244   1.202  10.766   2.961 -1.4610 -1.4984 -1.7068
36462SOL    HW216245   1.280  10.893   2.933 -0.5829 -1.3824  1.0224
36463SOL     OW16246   2.284   4.379   4.926  0.0897  0.1551 -0.3577
36463SOL    HW116247   2.287   4.290   4.891  0.0576  0.2979 -0.7270
36463SOL    HW216248   2.285   4.367   5.021 -1.0534 -0.2895 -0.3825
36464SOL     OW16249   5.151   2.033   5.450 -0.7294  0.5689  0.1127
36464SOL    HW116250   5.176   1.951   5.494  1.7064  1.5617  0.7020
36464SOL    HW216251   5.120   2.089   5.521 -1.3651  0.5491 -0.1415
36465SOL     OW16252   7.893   1.655   9.824  0.1698 -0.4160  0.0455
36465SOL    HW116253   7.914   1.732   9.771 -0.2263 -0.5403 -0.2981
36465SOL    HW216254   7.870   1.587   9.760  1.3181 -1.0729  0.3045
36466SOL     OW16255   3.989   7.161   0.802 -0.5588  0.4582  0.1760
36466SOL    HW116256   4.036   7.189   0.880 -1.2341 -0.4129  0.9156
36466SOL    HW216257   3.896   7.170   0.825 -0.7625  0.3240 -0.5736
36467SOL     OW16258   8.912  12.045   0.833 -0.2443  0.5388 -0.0084
36467SOL    HW116259   9.002  12.050   0.866  0.2882  1.1208 -1.4745
36467SOL    HW216260   8.920  12.063   0.740 -1.5573 -2.1966 -0.7262
36468SOL     OW16261   7.309   6.418   8.316 -0.4716 -0.3918  0.0880
36468SOL    HW116262   7.303   6.434   8.222 -1.7172  0.3505  0.2768
36468SOL    HW216263   7.316   6.506   8.355  0.3570 -0.7006  0.6878
36469SOL     OW16264   9.348   4.060   4.536 -0.5031 -0.4490  0.1729
36469SOL    HW116265   9.310   4.079   4.623  1.6349  1.7948  0.7227
36469SOL    HW216266   9.396   3.978   4.549  2.1116  1.2140  2.0324
36470SOL     OW16267   4.622  10.876  10.846 -0.1933  0.6800  0.2360
36470SOL    HW116268   4.663  10.797  10.810  0.7330 -0.0473  2.6460
36470SOL    HW216269   4.528  10.857  10.844 -0.1828  0.6792 -1.6755
36471SOL     OW16270   5.061   2.526  11.270  0.3671  0.3543  0.5439
36471SOL    HW116271   5.108   2.450  11.305  1.0858  0.7250  0.3957
36471SOL    HW216272   4.998   2.489  11.207  2.1545 -0.0010 -1.1360
36472SOL     OW16273   8.529   0.650   9.569 -0.3154  0.2166 -0.0006
36472SOL    HW116274   8.530   0.584   9.500  1.0362 -2.1616  2.0950
36472SOL    HW216275   8.567   0.728   9.529  4.2452 -2.2103 -1.1157
36473SOL     OW16276   1.876   4.539   7.855  0.1807  0.3125 -0.4789
36473SOL    HW116277   1.829   4.600   7.913  0.8795  0.4000  0.0030
36473SOL    HW216278   1.967   4.568   7.858  0.1206  0.7675 -2.2087
36474SOL     OW16279  12.185   8.480   2.092  0.3762 -0.7387  0.2234
36474SOL    HW116280  12.238   8.432   2.027  1.3765 -1.3039  1.4056
36474SOL    HW216281  12.095   8.458   2.070  0.4682  1.2968 -2.6713
36475SOL     OW16282   6.884   7.364   3.073 -0.0443 -0.1078 -0.2317
36475SOL    HW116283   6.955   7.350   3.136 -0.5642 -0.5305  0.2628
36475SOL    HW216284   6.857   7.454   3.086  0.3747  0.0472 -0.3997
36476SOL     OW16285   2.389   3.016  12.171  0.4703 -0.5022 -0.1126
36476SOL    HW116286   2.465   3.033  12.227  0.2735 -0.7569  0.2327
36476SOL    HW216287   2.425   3.019  12.082  0.2156  3.1132 -0.2279
36477SOL     OW16288   2.870  12.479   3.056  0.2636 -0.3239 -0.1841
36477SOL    HW116289   2.924  12.515   3.127  0.8188  0.4568 -0.9899
36477SOL    HW216290   2.932  12.432   3.001 -0.0449 -0.2592 -0.5847
36478SOL     OW16291   9.205   8.244   6.046  0.1759 -0.2610 -0.2903
36478SOL    HW116292   9.142   8.175   6.067  0.5348 -0.7076 -0.6991
36478SOL    HW216293   9.261   8.207   5.978  0.6120  0.2927 -0.2387
36479SOL     OW16294   6.160   6.517   0.814  0.3697  0.3630 -0.3468
36479SOL    HW116295   6.104   6.594   0.812  1.3460  1.0778 -1.0443
36479SOL    HW216296   6.131   6.463   0.741  0.0175  0.3059 -0.1646
36480SOL     OW16297  10.358   2.871   4.425  0.2949  0.0640 -0.0669
36480SOL    HW116298  10.355   2.961   4.392  0.5633 -1.0254 -3.3928
36480SOL    HW216299  10.440   2.865   4.473  0.4036  1.4776 -0.0306
36481SOL     OW16300   4.760   5.769   2.358  0.4745 -0.0881  0.2301
36481SOL    HW116301   4.717   5.703   2.303  1.1586 -0.0891 -0.3318
36481SOL    HW216302   4.704   5.846   2.352  0.3246 -0.2216 -0.1410
36482SOL     OW16303   8.434   3.371   1.158  0.2573 -0.4298  0.3472
36482SOL    HW116304   8.359   3.417   1.120  1.7590  1.4221 -0.5618
36482SOL    HW216305   8.396   3.298   1.207 -2.2340  1.2541  1.1039
36483SOL     OW16306   2.562  12.216   6.703  0.2363  0.0530 -0.9874
36483SOL    HW116307   2.636  12.239   6.759 -0.7637  1.1144 -0.0669
36483SOL    HW216308   2.543  12.124   6.724  0.4884  0.1546 -0.3027
36484SOL     OW16309   1.674   4.540  12.376  0.1327 -0.3924  0.0698
36484SOL    HW116310   1.580   4.545  12.394 -0.2059  0.8058 -1.8183
36484SOL    HW216311   1.701   4.631  12.364  1.7142 -0.6572  1.2171
36485SOL     OW16312   0.430   0.748   2.680 -0.2491 -0.3593 -0.1441
36485SOL    HW116313   0.382   0.829   2.701 -1.4617 -0.9976 -0.3944
36485SOL    HW216314   0.470   0.722   2.763 -1.2626 -0.4090  0.3422
36486SOL     OW16315   9.183  10.749   9.028 -0.5892  0.2147 -0.2685
36486SOL    HW116316   9.092  10.736   9.053 -0.0116 -1.7382  1.0306
36486SOL    HW216317   9.180  10.815   8.959 -2.8996  0.7563  0.2698
36487SOL     OW16318   7.943   7.467  10.919 -0.1659 -0.2305  0.2030
36487SOL    HW116319   7.954   7.542  10.978 -1.5151 -1.2985  1.9371
36487SOL    HW216320   7.981   7.393  10.967  1.3397 -0.6657 -1.5604
36488SOL     OW16321   4.341   7.777   9.054  0.2882 -0.7362  0.2808
36488SOL    HW116322   4.400   7.737   9.117  1.8001  0.7162 -0.1386
36488SOL    HW216323   4.301   7.703   9.008  2.5349 -1.8101 -0.0783
36489SOL     OW16324  12.014   9.087   6.968  0.3380 -0.2585 -0.1398
36489SOL    HW116325  12.081   9.031   7.008  0.5798  0.4621  0.4867
36489SOL    HW216326  12.041   9.176   6.989 -0.3771  0.0784 -0.5954
36490SOL     OW16327   4.475  11.538   5.057  0.4347 -0.1594  0.2283
36490SOL    HW116328   4.566  11.565   5.042  0.7372 -0.7211  1.0021
36490SOL    HW216329   4.440  11.522   4.970  1.2775 -0.5875 -0.0387
36491SOL     OW16330   1.401   4.694  10.179  0.4476 -0.5312 -0.3047
36491SOL    HW116331   1.310   4.707  10.208 -0.0668 -0.9655 -1.6700
36491SOL    HW216332   1.448   4.670  10.259 -0.4477  0.5492  0.5926
36492SOL     OW16333   2.119  11.005  11.354 -0.3933  0.0422 -0.2330
36492SOL    HW116334   2.080  10.964  11.432 -0.6303  0.0827 -0.3281
36492SOL    HW216335   2.212  11.013  11.375 -0.4573  0.0621  0.0514
36493SOL     OW16336   2.801   4.671  10.813 -0.3301 -0.0167 -0.5300
36493SOL    HW116337   2.764   4.607  10.874 -1.5933  1.8065  0.7252
36493SOL    HW216338   2.841   4.738  10.870 -2.7112  2.4350 -1.5407
36494SOL     OW16339   1.434   2.204   0.610  0.4661  0.2063 -0.2640
36494SOL    HW116340   1.362   2.263   0.631  0.0091 -0.5261  0.2440
36494SOL    HW216341   1.446   2.151   0.688  1.6074  0.3558 -0.3163
36495SOL     OW16342   9.344   0.566   4.126  0.4921  0.0244 -0.2991
36495SOL    HW116343   9.404   0.630   4.090  1.0937  0.0188  0.6349
36495SOL    HW216344   9.365   0.484   4.080  0.6451  0.2034 -0.5463
36496SOL     OW16345  10.153   3.418   1.600  0.8198  0.2909  0.2675
36496SOL    HW116346  10.104   3.392   1.522  1.5669  0.2040 -0.1851
36496SOL    HW216347  10.209   3.343   1.619  1.7095  0.8718  0.0068
36497SOL     OW16348   3.732   5.104   9.334  0.0532 -0.0311  0.4616
36497SOL    HW116349   3.725   5.143   9.247 -0.4625 -0.0211  0.5061
36497SOL    HW216350   3.659   5.140   9.383  0.5861  0.2867  1.0310
36498SOL     OW16351   1.562   3.399   3.570  0.5490 -0.2737  0.2656
36498SOL    HW116352   1.616   3.465   3.614  0.9662 -1.0521  0.9649
36498SOL    HW216353   1.585   3.317   3.614 -0.2708 -0.8197 -0.2980
36499SOL     OW16354   6.330   1.293  12.188  0.4980  0.0749  0.1122
36499SOL    HW116355   6.405   1.296  12.246  0.1448  1.1965  0.5391
36499SOL    HW216356   6.257   1.325  12.241 -0.3559 -1.2626 -0.2034
36500SOL     OW16357   5.902   2.197   2.294 -0.1531 -0.6122 -0.5436
36500SOL    HW116358   5.957   2.130   2.254  0.5447  0.1386 -0.8593
36500SOL    HW216359   5.956   2.235   2.363 -0.3570 -0.0240 -0.7030
36501SOL     OW16360   4.575  12.257   0.133  0.1622 -0.3252 -0.0993
36501SOL    HW116361   4.584  12.162   0.132  0.3841 -0.3731  2.1641
36501SOL    HW216362   4.662  12.290   0.111  0.0599 -0.6044 -0.9905
36502SOL     OW16363   9.082   0.040  10.970  0.0427 -0.3510  0.6425
36502SOL    HW116364   9.027  -0.037  10.959 -0.2655 -0.6995  3.7558
36502SOL    HW216365   9.166   0.006  11.001  0.4548  0.4880  0.4937
36503SOL     OW16366  10.525   5.802   6.208  0.0407  0.1855 -0.1505
36503SOL    HW116367  10.620   5.795   6.198  0.2858  0.5349  1.7310
36503SOL    HW216368  10.495   5.832   6.122  1.2565 -2.7114 -1.7417
36504SOL     OW16369   7.496   2.703   7.278 -0.1868  0.1029 -0.3389
36504SOL    HW116370   7.462   2.655   7.202  1.5162  0.7378 -1.5636
36504SOL    HW216371   7.590   2.685   7.277  0.0568  1.1926  0.8601
36505SOL     OW16372  12.161   9.420   4.421  0.3204 -0.1567  0.3698
36505SOL    HW116373  12.082   9.457   4.460 -0.0709 -0.2373 -0.3338
36505SOL    HW216374  12.180   9.343   4.474  0.0690  0.0078  0.7000
36506SOL     OW16375   7.466   8.284  11.427  0.0161 -0.3795 -0.1054
36506SOL    HW116376   7.504   8.211  11.379 -1.5773  0.4778 -2.9712
36506SOL    HW216377   7.372   8.264  11.431 -0.5137  1.5416 -1.2536
36507SOL     OW16378   4.018   6.141   9.502  0.1880 -0.2504  0.1433
36507SOL    HW116379   4.005   6.202   9.429 -1.4733 -0.0538  0.5631
36507SOL    HW216380   3.937   6.091   9.505  0.6408 -0.9368  1.2415
36508SOL     OW16381   9.724   7.089   3.097 -0.4309 -0.4434  0.1640
36508SOL    HW116382   9.768   7.007   3.075  1.4429  0.4780  0.2551
36508SOL    HW216383   9.681   7.116   3.015  2.9823  0.8446 -1.4011
36509SOL     OW16384  10.141  12.116   2.542 -0.4666 -0.2148  0.4435
36509SOL    HW116385  10.115  12.164   2.621  1.1697  1.4977  0.0188
36509SOL    HW216386  10.236  12.107   2.551 -0.2848 -0.1437 -1.2406
36510SOL     OW16387   6.941   6.888   7.303 -0.6737  0.7187  0.0437
36510SOL    HW116388   6.913   6.920   7.217  3.2473  0.0926 -1.6760
36510SOL    HW216389   6.911   6.798   7.307  0.0919  0.3822 -1.2627
36511SOL     OW16390   4.571   8.785   4.397  0.4990 -0.0692 -0.2454
36511SOL    HW116391   4.624   8.860   4.424  1.0422 -0.2700 -0.7437
36511SOL    HW216392   4.548   8.742   4.480  2.0743 -0.6275 -0.0695
36512SOL     OW16393   3.781   0.573   5.860 -0.5634  0.1046  0.4071
36512SOL    HW116394   3.762   0.499   5.802 -0.0038 -0.4510  0.9323
36512SOL    HW216395   3.768   0.650   5.804 -1.6134 -0.3580 -0.0131
36513SOL     OW16396   8.114   8.634   1.657  0.1571  0.5290  0.0523
36513SOL    HW116397   8.095   8.719   1.697  0.6743  0.2438  0.9385
36513SOL    HW216398   8.208   8.624   1.665  0.2741  0.4400 -1.2460
36514SOL     OW16399   3.857   5.498  11.898 -0.1331 -0.0709  0.1461
36514SOL    HW116400   3.947   5.480  11.870 -0.2736  0.6906 -0.8395
36514SOL    HW216401   3.863   5.507  11.993  0.8663  0.1484  0.0751
36515SOL     OW16402   1.190   5.672   4.327 -0.2728  0.4131  0.4538
36515SOL    HW116403   1.157   5.588   4.358 -0.9558  0.6600  0.4021
36515SOL    HW216404   1.123   5.703   4.266 -0.2185  1.1799  0.7795
36516SOL     OW16405   0.796   0.278   2.236 -0.1085  0.1237 -0.1493
36516SOL    HW116406   0.748   0.230   2.305  0.3042  0.9959  0.7740
36516SOL    HW216407   0.761   0.367   2.241 -0.0909  0.1895 -1.1043
36517SOL     OW16408   2.902   5.400  11.124 -0.4759  0.0968 -0.2544
36517SOL    HW116409   2.886   5.306  11.130  0.1982 -0.2233 -2.5613
36517SOL    HW216410   2.815   5.438  11.110 -1.1149  0.1901  3.0234
36518SOL     OW16411   5.332   9.802   2.565 -0.6540 -0.0824 -0.0471
36518SOL    HW116412   5.387   9.832   2.493 -1.3218  1.5258  0.0673
36518SOL    HW216413   5.351   9.863   2.636 -2.6974  0.6534 -0.0643
36519SOL     OW16414   4.546   9.993   0.417 -0.1070  0.0681  0.4522
36519SOL    HW116415   4.601   9.929   0.461  0.0213  0.5525  1.0156
36519SOL    HW216416   4.587  10.006   0.332  0.1207 -0.2610  0.5117
36520SOL     OW16417   1.964   2.001   7.205  0.7737  0.4261  0.3539
36520SOL    HW116418   1.969   2.057   7.127  0.6521  0.4016  0.3287
36520SOL    HW216419   2.008   1.920   7.179 -0.2270  0.0015 -0.0479
36521SOL     OW16420   7.687  10.283  10.453  0.4909  0.0260  0.4527
36521SOL    HW116421   7.681  10.339  10.530 -1.1212  2.1426 -1.1259
36521SOL    HW216422   7.733  10.205  10.485  0.8475  1.2559  3.2698
36522SOL     OW16423   1.846   9.877  11.480  0.4612  0.2148 -0.5667
36522SOL    HW116424   1.764   9.927  11.474  0.2071 -0.2425 -0.9113
36522SOL    HW216425   1.827   9.807  11.542  0.9531  0.7904  0.2594
36523SOL     OW16426   8.427   5.077   2.641  0.1467  0.6458 -1.0985
36523SOL    HW116427   8.402   5.165   2.669 -0.5015 -0.3892  2.0092
36523SOL    HW216428   8.522   5.081   2.633  0.4693  1.0647  1.7724
36524SOL     OW16429  12.331   3.954   1.860  0.4665 -0.4032  0.5577
36524SOL    HW116430  12.394   3.902   1.811  0.6929 -0.6779  1.1224
36524SOL    HW216431  12.253   3.898   1.866  1.1617 -1.2856  2.3188
36525SOL     OW16432   0.923   3.087  10.718  0.1776  0.7551 -0.0117
36525SOL    HW116433   0.998   3.061  10.772 -0.8646 -0.0004  1.1195
36525SOL    HW216434   0.962   3.111  10.634  1.6109 -0.5452  0.2301
36526SOL     OW16435   3.883   2.709   5.867  0.7356 -0.0550 -0.1359
36526SOL    HW116436   3.943   2.666   5.928 -1.0848  0.8165  2.4031
36526SOL    HW216437   3.940   2.741   5.797  2.5121 -3.9403 -0.6969
36527SOL     OW16438   6.933  10.881   9.330  0.0353  0.2948 -0.2259
36527SOL    HW116439   6.882  10.901   9.252 -1.2487  1.3986  0.8518
36527SOL    HW216440   6.871  10.888   9.402  1.5977  1.2003  1.1063
36528SOL     OW16441   5.777  11.861   5.747 -0.5277  0.3741 -0.3426
36528SOL    HW116442   5.767  11.812   5.829  2.7795  0.3689  0.1885
36528SOL    HW216443   5.740  11.947   5.766  0.4007  0.4431  1.2524
36529SOL     OW16444   9.394   3.306   3.665 -0.4041  0.4148  1.2050
36529SOL    HW116445   9.311   3.352   3.647 -0.7330 -0.1418  1.2706
36529SOL    HW216446   9.453   3.335   3.596 -0.3289  1.6168  1.7409
36530SOL     OW16447   4.332   4.899   3.105 -0.8066  0.3815 -0.7072
36530SOL    HW116448   4.427   4.892   3.094 -0.7698 -0.6843  0.1898
36530SOL    HW216449   4.296   4.872   3.020 -0.3439 -1.3165 -0.4064
36531SOL     OW16450   5.688   1.640   3.051  0.0727 -0.1845 -0.5775
36531SOL    HW116451   5.714   1.701   2.982 -0.6032  1.2186  0.3599
36531SOL    HW216452   5.659   1.562   3.004 -2.6355  1.5655 -2.0858
36532SOL     OW16453  12.460  10.751   3.978 -0.4047 -0.2288  0.5009
36532SOL    HW116454  12.439  10.844   3.989 -2.9857 -0.6941  0.2028
36532SOL    HW216455  12.549  10.751   3.944  0.3299  2.0426  2.1570
36533SOL     OW16456   3.248   6.423   3.564 -0.1222 -0.3156 -0.6660
36533SOL    HW116457   3.242   6.367   3.642 -2.3880 -0.1323 -0.6377
36533SOL    HW216458   3.335   6.461   3.569  0.8441 -2.4848  0.2480
36534SOL     OW16459   0.672   2.963  10.699  0.1366 -0.1772  0.1463
36534SOL    HW116460   0.702   2.902  10.632 -0.6238  0.0645 -0.4312
36534SOL    HW216461   0.750   3.014  10.722  0.5915 -0.8229  0.0580
36535SOL     OW16462   2.159   7.540  12.211  0.1950  0.2732  0.3868
36535SOL    HW116463   2.118   7.625  12.194 -1.3531 -0.3141  0.9696
36535SOL    HW216464   2.252   7.559  12.220 -0.1320  1.9239  0.5629
36536SOL     OW16465   9.977   3.058   2.856  0.6461  0.2422 -0.1630
36536SOL    HW116466  10.051   3.039   2.799 -0.3258 -2.4210 -0.6756
36536SOL    HW216467   9.935   3.134   2.816  2.1913  0.8412 -0.7258
36537SOL     OW16468   3.234   0.573   1.306  0.6358 -0.2283 -0.5993
36537SOL    HW116469   3.316   0.610   1.275  1.0329 -0.2295  0.4044
36537SOL    HW216470   3.198   0.527   1.231  1.1753  0.4175 -1.2642
36538SOL     OW16471   5.736   6.418   9.634 -0.3179 -0.1482 -0.1202
36538SOL    HW116472   5.760   6.499   9.679 -1.2552  0.2764 -0.3523
36538SOL    HW216473   5.641   6.412   9.645 -0.4559 -0.4682 -1.3139
36539SOL     OW16474   1.824   8.969   5.075  0.4972  0.2963 -0.0058
36539SOL    HW116475   1.748   8.981   5.131  1.5613  1.0844  1.3425
36539SOL    HW216476   1.837   8.874   5.071 -0.7212  0.1369 -0.5206
36540SOL     OW16477   2.192   9.978   7.954  0.3328  0.2284  0.0394
36540SOL    HW116478   2.186  10.013   7.865 -0.1778  0.7695  0.2794
36540SOL    HW216479   2.131  10.032   8.005 -0.1735 -0.7493  0.5006
36541SOL     OW16480   5.948   0.274   1.552  0.3417 -0.1075  0.8251
36541SOL    HW116481   5.986   0.360   1.534 -0.9161  0.1818 -0.7956
36541SOL    HW216482   5.928   0.239   1.465  1.7056 -2.4926  1.3926
36542SOL     OW16483   4.320   0.640   3.357 -0.0009  0.0675  0.2865
36542SOL    HW116484   4.382   0.694   3.405  0.9484  0.0160 -0.8158
36542SOL    HW216485   4.252   0.701   3.328 -1.1537 -0.0736  2.4938
36543SOL     OW16486   6.394   6.948   4.326  0.1787  0.4555 -0.3241
36543SOL    HW116487   6.443   7.023   4.290  0.3838  0.2338 -0.5171
36543SOL    HW216488   6.386   6.967   4.419  1.6659 -0.0510 -0.0585
36544SOL     OW16489   3.738   6.374   1.414  0.0013  0.0224  0.8763
36544SOL    HW116490   3.778   6.437   1.353 -0.6260  0.1841  0.6238
36544SOL    HW216491   3.808   6.353   1.476  0.3483  0.6333  0.7024
36545SOL     OW16492   8.677  10.271   6.196  0.0635  0.4844  0.2026
36545SOL    HW116493   8.762  10.229   6.209  0.0471  0.5748  0.6182
36545SOL    HW216494   8.614  10.199   6.191  0.0556  0.4485  0.7587
36546SOL     OW16495   1.561   8.356   9.821 -0.3086 -0.1390 -0.2716
36546SOL    HW116496   1.628   8.295   9.790 -0.0247 -1.1335  2.1045
36546SOL    HW216497   1.564   8.428   9.759  1.9376 -0.8439 -1.0721
36547SOL     OW16498   4.819   5.970   9.646 -0.3143  0.8765  0.4072
36547SOL    HW116499   4.902   5.942   9.685 -0.8573 -0.4004  0.7065
36547SOL    HW216500   4.795   6.049   9.694 -0.3518  0.0224  1.8660
36548SOL     OW16501   7.834   9.899  10.751  0.7490  0.0846  0.0672
36548SOL    HW116502   7.786   9.875  10.672  0.5681  0.4846  0.0579
36548SOL    HW216503   7.903   9.832  10.757 -0.1095 -0.7963  0.3630
36549SOL     OW16504   8.597   3.219   4.457  0.2692  0.0829 -0.1244
36549SOL    HW116505   8.666   3.264   4.506 -0.4668 -0.2923  1.3076
36549SOL    HW216506   8.523   3.280   4.458  0.3570  0.2378 -1.1500
36550SOL     OW16507   8.652   4.273   1.945  0.0258  0.2671  0.0080
36550SOL    HW116508   8.620   4.361   1.967 -0.0371  0.7191 -1.7701
36550SOL    HW216509   8.745   4.285   1.927  0.1339 -0.1431  0.2769
36551SOL     OW16510  10.178   7.271   3.427 -0.0473  0.2713 -0.2686
36551SOL    HW116511  10.085   7.273   3.451  0.5246  1.1186  2.1472
36551SOL    HW216512  10.186   7.198   3.366 -2.3672  0.5025 -0.9390
36552SOL     OW16513   7.628   8.245   4.262 -0.3773 -0.6413 -0.1455
36552SOL    HW116514   7.638   8.340   4.258  1.3819 -0.8190 -0.8750
36552SOL    HW216515   7.669   8.221   4.345  0.1312 -0.8430 -0.4490
36553SOL     OW16516   6.537  11.851   4.175  0.6699  0.1599  0.1408
36553SOL    HW116517   6.503  11.764   4.154 -1.9666  0.9001  0.8757
36553SOL    HW216518   6.608  11.835   4.236  0.7300 -1.4971 -0.3170
36554SOL     OW16519   4.732  10.878  10.326  0.1822  0.2671 -0.1934
36554SOL    HW116520   4.665  10.810  10.326  0.4642 -0.0731  1.6864
36554SOL    HW216521   4.694  10.948  10.273 -1.8593  0.2158  1.0568
36555SOL     OW16522   9.254   3.562  11.162 -0.2366  0.8349 -0.3776
36555SOL    HW116523   9.215   3.554  11.074 -1.3941  1.0972  0.0892
36555SOL    HW216524   9.195   3.621  11.208  0.8936  1.4648  0.2955
36556SOL     OW16525   8.133   7.496   4.321  0.7949 -0.1825 -0.3648
36556SOL    HW116526   8.179   7.513   4.403  0.1406 -1.6590  0.3333
36556SOL    HW216527   8.072   7.570   4.312  0.7110 -0.1270  0.5944
36557SOL     OW16528  10.801   1.378  11.543 -0.1668  0.2271  0.3585
36557SOL    HW116529  10.856   1.430  11.602  1.6265 -1.0221 -0.1274
36557SOL    HW216530  10.825   1.408  11.455 -0.3322 -0.2757  0.1379
36558SOL     OW16531   4.566   1.329   9.736 -0.1970  0.0889  0.2758
36558SOL    HW116532   4.507   1.404   9.729 -0.6753 -0.3035 -0.0257
36558SOL    HW216533   4.565   1.306   9.828 -2.5340 -1.4724 -0.0621
36559SOL     OW16534   5.081  12.027   9.545 -0.3637 -0.5222 -0.3090
36559SOL    HW116535   5.021  11.970   9.593 -0.8311 -0.1247 -0.4106
36559SOL    HW216536   5.024  12.088   9.499  0.1296  0.1617 -0.0335
36560SOL     OW16537   5.497  11.598   6.126 -0.3124 -0.6229 -0.2185
36560SOL    HW116538   5.463  11.520   6.083  1.0335 -1.1791 -0.2987
36560SOL    HW216539   5.418  11.646   6.154 -1.1721 -1.2876 -1.4079
36561SOL     OW16540   4.175   9.919   6.915 -0.7310  0.3887  0.3860
36561SOL    HW116541   4.149   9.840   6.964 -2.3676  1.1042  0.7561
36561SOL    HW216542   4.163   9.896   6.823 -0.1447 -0.1332  0.4345
36562SOL     OW16543   1.888   1.440   8.048  0.1036 -0.1699  0.1277
36562SOL    HW116544   1.867   1.352   8.017  0.4037 -0.7128  1.4014
36562SOL    HW216545   1.965   1.428   8.105 -0.0999  0.8515  0.6466
36563SOL     OW16546   4.131   2.420   2.699 -0.3802  0.3627  0.6915
36563SOL    HW116547   4.053   2.459   2.738 -1.0430  1.1953 -1.3470
36563SOL    HW216548   4.135   2.457   2.611  0.5826 -1.9924 -0.3451
36564SOL     OW16549   9.432  11.994   9.145 -0.7142  0.3912  0.2698
36564SOL    HW116550   9.500  11.957   9.202  0.3476  1.6275 -0.1314
36564SOL    HW216551   9.481  12.030   9.071 -1.7646  1.7634  0.1979
36565SOL     OW16552   9.465   2.803   9.145 -0.1634  0.7100 -0.0371
36565SOL    HW116553   9.498   2.834   9.229 -0.5256 -0.1362  0.4306
36565SOL    HW216554   9.523   2.731   9.121 -1.2864 -0.4332  0.5282
36566SOL     OW16555   8.342  11.698  12.523  0.5006  0.1655  0.1956
36566SOL    HW116556   8.304  11.694  12.611 -0.0924 -1.2624 -0.0889
36566SOL    HW216557   8.389  11.615  12.513 -0.6483 -0.3738 -1.3182
36567SOL     OW16558   6.028   2.463   6.407  0.1148 -0.2782 -0.6717
36567SOL    HW116559   6.120   2.436   6.405 -0.2484 -1.9362  1.3690
36567SOL    HW216560   6.021   2.517   6.487 -1.3790 -3.4962  1.5736
36568SOL     OW16561   6.283   0.423  12.406  0.8483  0.1824 -0.3042
36568SOL    HW116562   6.298   0.387  12.493 -1.1575  0.6775  0.2815
36568SOL    HW216563   6.362   0.473  12.387  1.2955  0.1079  1.2324
36569SOL     OW16564   3.990   9.687   1.514  0.3122 -0.2785 -0.0335
36569SOL    HW116565   4.069   9.690   1.567  0.0201 -0.8192  0.4481
36569SOL    HW216566   3.960   9.597   1.522 -0.3732 -0.0673 -0.1823
36570SOL     OW16567   4.210  11.797   3.752  0.0463  0.0902 -0.3031
36570SOL    HW116568   4.253  11.746   3.821  1.0239 -0.9487 -1.6391
36570SOL    HW216569   4.122  11.759   3.746  0.3757 -0.6804 -0.4703
36571SOL     OW16570   6.355  10.257   8.032  0.4542 -0.0492  0.1728
36571SOL    HW116571   6.261  10.266   8.044  0.0759  0.6294 -2.6085
36571SOL    HW216572   6.393  10.304   8.106 -1.3541 -0.0241  1.1530
36572SOL     OW16573   8.820  10.388   7.716 -0.7803 -0.9526 -0.2079
36572SOL    HW116574   8.840  10.378   7.623 -0.5272 -0.3036 -0.2294
36572SOL    HW216575   8.889  10.445   7.750  0.6655 -3.2159  0.9439
36573SOL     OW16576   6.922   3.850   5.509 -0.0659  0.1521 -0.6300
36573SOL    HW116577   6.846   3.844   5.452  0.6024  1.3799 -1.6862
36573SOL    HW216578   6.933   3.943   5.525  1.9711  0.1047 -1.5452
36574SOL     OW16579  10.075   9.571  10.881 -0.3047  0.0473 -0.7174
36574SOL    HW116580   9.995   9.532  10.846 -0.8083 -1.9267  2.2844
36574SOL    HW216581  10.045   9.643  10.936  0.3062  1.5682 -2.2860
36575SOL     OW16582  11.020  11.778   1.191 -0.3565  0.0765  0.5892
36575SOL    HW116583  10.982  11.694   1.219  1.9870 -1.5612 -0.7772
36575SOL    HW216584  10.957  11.813   1.128 -0.8618 -1.2445  0.3336
36576SOL     OW16585  12.228   3.911   0.843  0.1379 -0.3648  0.5756
36576SOL    HW116586  12.214   3.870   0.757  2.1715  0.0136 -0.0107
36576SOL    HW216587  12.189   3.998   0.835 -1.6863 -1.1154  0.8511
36577SOL     OW16588   8.087   4.785   3.905  0.0504  0.3573  0.2267
36577SOL    HW116589   8.165   4.827   3.942 -0.5752  1.4184  0.3713
36577SOL    HW216590   8.122   4.713   3.852  1.1036  0.5648  0.6061
36578SOL     OW16591   2.578   3.862   3.904  0.1194  0.6205  0.4927
36578SOL    HW116592   2.634   3.930   3.941 -0.6947  0.9773  1.0840
36578SOL    HW216593   2.516   3.841   3.973 -0.4672  0.2167 -0.1399
36579SOL     OW16594  11.112  11.279   9.420  0.1541 -0.3851 -0.3423
36579SOL    HW116595  11.176  11.221   9.379 -0.2092 -0.6818 -0.4947
36579SOL    HW216596  11.029  11.254   9.381 -0.2263 -0.7894  0.7057
36580SOL     OW16597   6.051   1.381   8.603 -0.4707  0.5671 -0.3858
36580SOL    HW116598   6.040   1.300   8.554  2.0531 -0.2248  0.2172
36580SOL    HW216599   5.980   1.380   8.667 -0.3936 -1.2683 -0.2753
36581SOL     OW16600   0.560   3.539   1.423 -0.2550  0.0378  0.2521
36581SOL    HW116601   0.563   3.622   1.376  0.0406  0.5468  1.1640
36581SOL    HW216602   0.600   3.557   1.508  0.5156 -1.2201  0.1852
36582SOL     OW16603  10.907   3.707   4.878 -0.2739 -0.1318  0.1295
36582SOL    HW116604  10.960   3.654   4.818 -0.6147 -1.3366  0.8391
36582SOL    HW216605  10.918   3.663   4.963 -1.1150  0.5566  0.6003
36583SOL     OW16606   7.100   6.600   1.492 -0.0984  1.0224  0.4061
36583SOL    HW116607   7.128   6.680   1.536  1.1478  0.1969  1.1947
36583SOL    HW216608   7.180   6.564   1.454 -0.4995 -0.1961  0.6560
36584SOL     OW16609   9.715   3.251   8.110  0.1827 -0.3605  0.0351
36584SOL    HW116610   9.808   3.261   8.089  0.2437 -1.4874 -0.2731
36584SOL    HW216611   9.706   3.159   8.136 -1.0496 -0.5532 -0.9736
36585SOL     OW16612   5.817   0.857   5.804  0.6340  0.3818 -0.2449
36585SOL    HW116613   5.879   0.821   5.867  2.3011  1.3258 -1.2810
36585SOL    HW216614   5.829   0.805   5.725 -0.1839  0.3262 -0.3439
36586SOL     OW16615   0.892   8.674   1.464  0.0310 -0.0561  0.5923
36586SOL    HW116616   0.946   8.601   1.494  2.8720  1.0121 -1.4118
36586SOL    HW216617   0.915   8.746   1.524  0.7634  0.3471 -0.1432
36587SOL     OW16618   6.796   5.713   5.389  0.5261  0.5018 -0.0227
36587SOL    HW116619   6.866   5.656   5.420  0.8696  1.7189  1.6206
36587SOL    HW216620   6.816   5.799   5.428 -1.3431  1.1185 -0.3007
36588SOL     OW16621   5.107   0.770   8.698  0.6870 -0.5709 -0.4207
36588SOL    HW116622   5.047   0.719   8.752 -0.2639  0.8909 -0.0280
36588SOL    HW216623   5.162   0.817   8.761  0.4341  0.1611 -0.7371
36589SOL     OW16624   6.244   4.598   8.458 -0.2892  0.2780 -0.3123
36589SOL    HW116625   6.305   4.541   8.506  0.6567  1.8118  0.3875
36589SOL    HW216626   6.161   4.551   8.460  0.6501 -1.4994 -0.5616
36590SOL     OW16627   5.439   4.389   8.256 -0.3726 -0.0665 -0.2042
36590SOL    HW116628   5.398   4.459   8.307  1.5733  0.5330  0.6353
36590SOL    HW216629   5.394   4.309   8.285  0.1909  0.3435  2.0350
36591SOL     OW16630  10.057   2.627   8.949 -0.3558  0.5205 -0.1159
36591SOL    HW116631  10.019   2.715   8.951 -0.9319  0.2801 -0.2725
36591SOL    HW216632  10.049   2.599   8.858 -0.8046  0.0352  0.0727
36592SOL     OW16633   4.682   0.232  11.020 -0.3141  0.4367  0.0842
36592SOL    HW116634   4.763   0.242  10.971  0.9551 -0.5376  1.8938
36592SOL    HW216635   4.676   0.311  11.073 -0.7035  0.6241 -0.2303
36593SOL     OW16636   9.380   6.256  11.222  0.0595 -0.2110  0.1294
36593SOL    HW116637   9.348   6.207  11.298  0.9539  0.6783  1.1225
36593SOL    HW216638   9.425   6.331  11.260 -1.8919  1.8390 -1.3169
36594SOL     OW16639   9.451   1.686   7.460  0.0655 -0.2362 -0.9314
36594SOL    HW116640   9.380   1.658   7.518  1.5732 -3.1175 -0.2889
36594SOL    HW216641   9.503   1.747   7.512 -1.1426  0.8485 -0.9508
36595SOL     OW16642  12.243   4.109   3.778 -0.1363 -0.0464  0.4487
36595SOL    HW116643  12.331   4.132   3.808 -0.1701  0.0637  0.4648
36595SOL    HW216644  12.242   4.014   3.776 -0.1037 -0.0524  0.7050
36596SOL     OW16645   0.478   4.876   3.854 -0.0819  0.6293 -0.1676
36596SOL    HW116646   0.411   4.841   3.913 -0.7387  0.0220 -1.2527
36596SOL    HW216647   0.450   4.965   3.836 -0.0694  0.6983  0.1503
36597SOL     OW16648   2.357  11.740   8.334 -0.3071  0.0805  0.5275
36597SOL    HW116649   2.425  11.674   8.339 -1.5722 -1.1842  2.0760
36597SOL    HW216650   2.401  11.822   8.360  1.2856 -0.0654 -1.5067
36598SOL     OW16651   6.588   0.395   8.344  0.4818 -0.1390 -0.3081
36598SOL    HW116652   6.535   0.329   8.300  2.1274 -1.5971 -0.1978
36598SOL    HW216653   6.546   0.405   8.430 -0.4081 -0.2241 -0.7179
36599SOL     OW16654  11.048   5.260   2.618  0.3104  0.0931 -0.0800
36599SOL    HW116655  10.968   5.251   2.566  1.6307  1.0811 -2.4262
36599SOL    HW216656  11.103   5.187   2.591  1.4514  1.2368 -0.9608
36600SOL     OW16657   1.687   4.421   0.759  0.4286 -0.0557 -0.3548
36600SOL    HW116658   1.716   4.409   0.849  0.7232 -1.7977 -0.6539
36600SOL    HW216659   1.743   4.364   0.707 -0.0142  0.5938 -1.6071
36601SOL     OW16660   5.425   7.969   1.492 -0.3302  0.1612  0.1154
36601SOL    HW116661   5.483   7.901   1.528  2.3714  2.7951  1.1805
36601SOL    HW216662   5.419   7.949   1.399 -1.2296 -2.5437  0.6597
36602SOL     OW16663   1.621   1.079  11.142  0.0274  0.2557  0.2165
36602SOL    HW116664   1.625   1.016  11.070  0.8579  0.7569 -0.1923
36602SOL    HW216665   1.707   1.120  11.143 -0.1262  0.5861  1.2067
36603SOL     OW16666  12.465   9.893   2.940 -0.3389  0.0941 -0.4337
36603SOL    HW116667  12.507   9.807   2.940  0.4077  0.4434  0.0572
36603SOL    HW216668  12.385   9.880   2.990 -0.1891 -0.3024 -0.2906
36604SOL     OW16669   6.444   1.326  11.797 -0.0456 -0.1422 -0.0259
36604SOL    HW116670   6.525   1.327  11.848  0.7605 -0.4230 -1.2510
36604SOL    HW216671   6.375   1.331  11.863  0.9545  0.0068  1.0625
36605SOL     OW16672  12.488   2.444   3.744  0.2789 -0.4299  0.2261
36605SOL    HW116673  12.443   2.527   3.725 -0.3541 -0.7175  0.4403
36605SOL    HW216674  12.464   2.387   3.671  1.2090 -0.2429 -0.2414
36606SOL     OW16675   4.408   3.104   7.084 -0.0818  0.2205  0.4995
36606SOL    HW116676   4.413   3.032   7.147  0.7704  0.8376  1.1665
36606SOL    HW216677   4.495   3.105   7.043 -0.0855  0.8735  0.5055
36607SOL     OW16678   7.326   3.389   4.347 -0.4573 -0.3427  0.4196
36607SOL    HW116679   7.351   3.317   4.289  0.2779  0.2698 -0.0406
36607SOL    HW216680   7.235   3.407   4.324 -0.5767 -0.9569  0.3752
36608SOL     OW16681   9.793   2.071  11.338 -0.5860 -0.2268  0.4948
36608SOL    HW116682   9.831   2.025  11.263 -0.4165  0.4305  0.1788
36608SOL    HW216683   9.708   2.103  11.307 -0.1302  0.8109  0.3085
36609SOL     OW16684  11.671   9.181   5.742  0.0662  0.0227  0.3753
36609SOL    HW116685  11.578   9.180   5.763  0.3034 -1.7936  1.6293
36609SOL    HW216686  11.690   9.272   5.720 -1.8821  0.5324  0.6298
36610SOL     OW16687   6.088   7.267   9.613  0.1104 -0.1695  0.1425
36610SOL    HW116688   6.176   7.268   9.650 -0.5536 -1.9429  1.9554
36610SOL    HW216689   6.071   7.175   9.592 -0.9239  0.2910 -1.2155
36611SOL     OW16690   6.232  10.767   5.110 -0.2872  0.0874 -0.6767
36611SOL    HW116691   6.249  10.793   5.019 -0.8882 -0.2579 -0.8968
36611SOL    HW216692   6.264  10.677   5.115 -1.9148 -0.5491 -1.0811
36612SOL     OW16693   8.729   6.785   4.473 -0.1987 -0.2438 -0.0223
36612SOL    HW116694   8.765   6.863   4.432  1.6107 -0.5217  0.9236
36612SOL    HW216695   8.660   6.818   4.531  1.7195  0.9609  1.7403
36613SOL     OW16696   0.055   1.720   2.692 -0.5888 -0.0770  0.6563
36613SOL    HW116697   0.066   1.769   2.610 -0.3602 -0.1236  0.6578
36613SOL    HW216698  -0.037   1.693   2.692 -0.2972 -1.1448 -0.1782
36614SOL     OW16699   2.316   6.442   8.796  0.2498  0.0914  0.4080
36614SOL    HW116700   2.252   6.502   8.833 -2.2735 -1.7743 -0.6348
36614SOL    HW216701   2.309   6.363   8.849  0.0053 -0.9406 -1.1055
36615SOL     OW16702   2.382  10.294  11.038 -0.7356  0.2748 -0.3053
36615SOL    HW116703   2.323  10.222  11.063 -0.2302 -0.4127 -1.0440
36615SOL    HW216704   2.325  10.369  11.026 -1.5030 -0.4272 -1.1990
36616SOL     OW16705   0.783   9.099   2.088 -0.1110 -0.6523 -0.1741
36616SOL    HW116706   0.740   9.017   2.064 -0.9776 -0.5259  0.8522
36616SOL    HW216707   0.876   9.085   2.069 -0.0294 -2.3969  1.2637
36617SOL     OW16708   2.271   3.530   9.509 -0.1738  0.6963  0.2465
36617SOL    HW116709   2.323   3.461   9.549  0.8409  2.1582  1.5985
36617SOL    HW216710   2.222   3.487   9.440 -1.0667 -1.7684  2.2590
36618SOL     OW16711   1.827   8.743   0.733  0.4797  0.1632  0.0640
36618SOL    HW116712   1.891   8.674   0.750  0.2027 -0.6257 -1.7940
36618SOL    HW216713   1.788   8.762   0.818  1.2309 -1.3238  0.7742
36619SOL     OW16714   9.280   7.242   2.117 -0.7307 -0.1598  0.8636
36619SOL    HW116715   9.271   7.303   2.044 -1.1192 -1.8310 -0.5429
36619SOL    HW216716   9.346   7.282   2.173  0.0578  0.8679 -0.7233
36620SOL     OW16717   4.286   9.828   0.822  0.3847  1.1868  0.1634
36620SOL    HW116718   4.353   9.843   0.755  1.4529 -2.0535  0.3446
36620SOL    HW216719   4.208   9.805   0.772  1.5133 -2.5420 -0.1937
36621SOL     OW16720  10.859   8.446   8.200 -0.0691 -0.3140 -0.4287
36621SOL    HW116721  10.878   8.433   8.293  1.0350 -0.1918 -0.6246
36621SOL    HW216722  10.806   8.370   8.176  1.4758 -1.5100 -0.1947
36622SOL     OW16723   6.849   0.543   6.097 -0.0577  0.3900  0.0338
36622SOL    HW116724   6.814   0.622   6.055 -1.1116  0.3162  0.7283
36622SOL    HW216725   6.779   0.478   6.088  0.5596 -0.2810  0.0027
36623SOL     OW16726   8.321   9.307   0.942 -0.1096  0.3005 -0.1539
36623SOL    HW116727   8.356   9.284   1.028 -1.5651  1.3501  0.7816
36623SOL    HW216728   8.309   9.224   0.897 -0.7079 -0.3993  1.2427
36624SOL     OW16729   0.652  12.571   4.974  0.1202 -0.0389 -0.4554
36624SOL    HW116730   0.558  12.571   4.987  0.5402 -0.7815  4.8765
36624SOL    HW216731   0.672  12.482   4.945 -0.7152 -0.0461 -1.0516
36625SOL     OW16732  12.253   5.749  11.838 -0.1293 -0.3771 -0.5281
36625SOL    HW116733  12.244   5.787  11.925  0.9048 -0.7874 -0.2265
36625SOL    HW216734  12.347   5.748  11.822 -0.3350  0.2837 -1.9269
36626SOL     OW16735  11.732   6.267   8.989  0.3396 -0.4420 -0.0147
36626SOL    HW116736  11.693   6.308   9.066 -0.9666  0.7739 -1.2412
36626SOL    HW216737  11.786   6.336   8.950  2.2401 -1.5147  0.6002
36627SOL     OW16738   5.608   3.307   8.306 -0.0935 -0.4635 -0.1367
36627SOL    HW116739   5.693   3.342   8.281  0.4428 -1.7985 -0.2807
36627SOL    HW216740   5.611   3.215   8.279 -2.3307 -0.0872 -1.9835
36628SOL     OW16741   7.353   5.156   5.931  0.2242  0.3372 -0.2601
36628SOL    HW116742   7.280   5.204   5.890  0.1907  3.5184  3.0028
36628SOL    HW216743   7.428   5.215   5.923  1.0541 -0.4700  1.1579
36629SOL     OW16744   1.802   5.101   3.523 -0.2397  0.2599 -0.4111
36629SOL    HW116745   1.857   5.162   3.475 -2.6017  2.7576 -0.2104
36629SOL    HW216746   1.713   5.121   3.495 -1.2560 -2.2567  0.6727
36630SOL     OW16747   4.830  10.928   5.276 -0.0958 -0.0296 -0.2764
36630SOL    HW116748   4.772  10.920   5.352  1.9943  0.7288  1.5132
36630SOL    HW216749   4.771  10.949   5.203 -2.1351 -0.0908  1.2480
36631SOL     OW16750   2.919   7.248   5.748 -0.1677 -0.0511 -0.1558
36631SOL    HW116751   2.919   7.160   5.711  3.1302 -0.9136  1.5530
36631SOL    HW216752   2.979   7.297   5.691  0.8660  0.0361  0.9803
36632SOL     OW16753  10.215   2.209   2.554  0.3687  0.6808 -0.4378
36632SOL    HW116754  10.220   2.155   2.475  0.4561 -0.7617  0.5283
36632SOL    HW216755  10.262   2.159   2.620 -0.6837  1.3253  0.8332
36633SOL     OW16756   0.458   0.345  11.115 -0.2968  0.6080  0.8451
36633SOL    HW116757   0.518   0.407  11.073 -0.2663  0.2246  0.3202
36633SOL    HW216758   0.509   0.309  11.188  1.4181 -2.2301 -1.5114
36634SOL     OW16759  10.211   2.024   8.726 -0.1647  0.2073  0.4996
36634SOL    HW116760  10.278   1.960   8.705 -0.7150  0.5947 -2.9731
36634SOL    HW216761  10.230   2.099   8.669 -1.3015  1.9401  2.2601
36635SOL     OW16762   5.669   8.654  11.614 -0.8339 -0.1822 -0.1806
36635SOL    HW116763   5.618   8.573  11.612 -1.2244  0.0468  0.3281
36635SOL    HW216764   5.719   8.653  11.532 -1.5784 -0.4565 -0.6396
36636SOL     OW16765   2.527  10.183  11.686  0.1083 -0.2126  0.1862
36636SOL    HW116766   2.576  10.146  11.612  1.5153 -1.4019  1.6240
36636SOL    HW216767   2.578  10.259  11.713  0.1200 -0.3223  0.4830
36637SOL     OW16768   6.803   8.976   8.765 -0.2413 -0.0027 -0.0381
36637SOL    HW116769   6.827   8.893   8.806 -0.0190 -0.0645 -0.2913
36637SOL    HW216770   6.740   8.952   8.697  0.2513 -0.0331 -0.4923
36638SOL     OW16771   7.541   5.586   4.865 -0.2521 -0.6991  0.5402
36638SOL    HW116772   7.514   5.636   4.789  1.6868 -1.3785 -0.6722
36638SOL    HW216773   7.463   5.538   4.892 -1.5568  1.2139  0.3830
36639SOL     OW16774   9.326   8.337  10.445  0.2252 -0.4059  0.1048
36639SOL    HW116775   9.367   8.257  10.478  0.4406 -0.5171 -0.4109
36639SOL    HW216776   9.375   8.408  10.487 -0.7215 -0.5330  1.4742
36640SOL     OW16777   2.854   3.898   1.369  0.2985  0.3628 -0.1144
36640SOL    HW116778   2.846   3.980   1.418  0.7282  0.3744 -0.0581
36640SOL    HW216779   2.942   3.867   1.390 -1.0503 -1.9850  2.8114
36641SOL     OW16780   3.226   4.706   3.274 -0.0550 -0.0147  0.0403
36641SOL    HW116781   3.246   4.793   3.309  2.7627 -1.2132  1.8039
36641SOL    HW216782   3.298   4.688   3.213  0.1754 -1.6184  0.7428
36642SOL     OW16783   2.356   5.063   9.091 -0.9914 -0.0376  0.5790
36642SOL    HW116784   2.281   5.042   9.036 -0.0483 -0.5786 -0.5476
36642SOL    HW216785   2.371   4.984   9.143 -2.0612  0.5718  1.8944
36643SOL     OW16786   4.803   7.700   2.639 -0.2044 -0.1436 -0.0356
36643SOL    HW116787   4.843   7.754   2.708  1.2258  0.2722 -1.1577
36643SOL    HW216788   4.817   7.749   2.558 -1.6779 -0.7270 -0.6926
36644SOL     OW16789   5.856   7.992   4.474  0.1618 -0.1940  0.2662
36644SOL    HW116790   5.878   7.947   4.555 -1.5286  0.4278  1.1149
36644SOL    HW216791   5.797   7.933   4.429  1.2637 -0.6334 -0.6574
36645SOL     OW16792   6.051   7.127   0.808  0.2634 -0.6949 -0.7800
36645SOL    HW116793   6.036   7.133   0.902 -1.7419 -2.6338 -0.8661
36645SOL    HW216794   6.108   7.051   0.797  1.4578  0.2199 -1.1045
36646SOL     OW16795   9.340   9.376   7.720  0.1895  0.3606 -0.3911
36646SOL    HW116796   9.432   9.399   7.734  0.0478  0.4549  0.4536
36646SOL    HW216797   9.294   9.460   7.725 -0.2904  0.0218  2.3555
36647SOL     OW16798   8.064   7.506   8.138 -0.3529  0.1465  0.5485
36647SOL    HW116799   8.096   7.565   8.070 -0.8035  1.3491  1.3570
36647SOL    HW216800   8.144   7.473   8.179 -0.0836  1.3282  1.0281
36648SOL     OW16801   7.896   5.201  12.026  0.0605  0.7220  0.0101
36648SOL    HW116802   7.955   5.272  12.001 -1.2840  2.2368  0.9382
36648SOL    HW216803   7.810   5.228  11.994 -0.2783 -1.1136 -0.7204
36649SOL     OW16804  12.076   5.594  11.689  0.2677 -0.1281  0.2904
36649SOL    HW116805  12.127   5.650  11.747  0.1959  0.0506  0.1812
36649SOL    HW216806  12.008   5.651  11.654  0.5847 -0.1264 -0.3249
36650SOL     OW16807   0.551   1.688   1.892  0.3334  0.3067 -0.4930
36650SOL    HW116808   0.546   1.719   1.802  1.3643  1.3411 -0.2259
36650SOL    HW216809   0.640   1.710   1.920  0.6475 -1.6136  0.2083
36651SOL     OW16810   6.164   6.856   1.924  0.3001 -0.3178 -0.0531
36651SOL    HW116811   6.117   6.911   1.862 -0.3232 -1.8503 -0.9857
36651SOL    HW216812   6.145   6.895   2.010 -1.4102  0.0052 -0.5444
36652SOL     OW16813  12.149  12.241   2.786 -0.4725 -0.4113 -0.1064
36652SOL    HW116814  12.144  12.283   2.700 -0.6399 -0.9914 -0.3841
36652SOL    HW216815  12.059  12.214   2.805 -0.2245 -1.4870 -0.3646
36653SOL     OW16816   0.582   1.636   0.468 -0.1350 -0.2288 -0.1100
36653SOL    HW116817   0.495   1.674   0.458 -0.4658 -1.4403 -2.3234
36653SOL    HW216818   0.635   1.679   0.400  1.3923  1.3225  1.8927
36654SOL     OW16819   4.436  11.981  10.944 -0.2279 -0.2671  0.1053
36654SOL    HW116820   4.429  11.890  10.916  2.0302 -0.2116 -0.8884
36654SOL    HW216821   4.367  12.026  10.895 -0.5938 -1.2493 -0.3187
36655SOL     OW16822  12.470   2.826   8.571  0.1392  0.0909 -0.0321
36655SOL    HW116823  12.514   2.911   8.568  1.9334 -0.8360 -2.5323
36655SOL    HW216824  12.498   2.787   8.654  2.5350  0.3357 -0.6722
36656SOL     OW16825  11.062   1.964   8.242  0.6775  0.2260  0.5307
36656SOL    HW116826  11.017   1.887   8.276  0.9267 -0.0776  0.1708
36656SOL    HW216827  11.086   2.014   8.321  0.5230 -0.0668  0.7643
36657SOL     OW16828  12.035   1.808   5.382  0.5177  0.0078 -0.1946
36657SOL    HW116829  12.085   1.884   5.413  1.1637  0.2251 -1.6942
36657SOL    HW216830  12.101   1.747   5.350  0.0046 -1.2301  0.9980
36658SOL     OW16831   3.984   0.277   7.964  0.2004  0.3839 -0.0298
36658SOL    HW116832   3.913   0.228   8.006 -1.0921  2.2685  0.0752
36658SOL    HW216833   4.003   0.227   7.884 -1.9357  0.3553 -0.5692
36659SOL     OW16834   9.838   0.924   7.334 -0.3460 -0.1507 -0.2317
36659SOL    HW116835   9.818   0.990   7.267 -2.7726 -0.7612 -0.1929
36659SOL    HW216836   9.866   0.847   7.285 -0.1026  0.0583 -0.4225
36660SOL     OW16837   7.419   9.716   8.934  0.5739  0.2573 -0.1956
36660SOL    HW116838   7.447   9.720   9.026 -1.2869  1.0933  0.3772
36660SOL    HW216839   7.451   9.798   8.896  0.0323  0.6252  0.1257
36661SOL     OW16840   8.268  12.213   7.103  0.0504 -0.0554  0.2575
36661SOL    HW116841   8.253  12.184   7.193 -0.3997 -0.6799 -0.0130
36661SOL    HW216842   8.207  12.286   7.091 -0.1246 -0.1842  0.3572
36662SOL     OW16843   9.618   3.008  11.252 -0.0355  0.1678  0.3835
36662SOL    HW116844   9.712   3.013  11.269 -0.0080 -0.1529  0.3171
36662SOL    HW216845   9.609   3.028  11.159 -0.1847  1.9191  0.7372
36663SOL     OW16846   9.144   3.772   4.202 -0.4763  0.1076  0.3358
36663SOL    HW116847   9.123   3.830   4.275 -1.0739  0.7143 -0.3008
36663SOL    HW216848   9.207   3.709   4.238 -1.2733 -0.0184  1.5361
36664SOL     OW16849  12.312   8.261   2.294 -0.2756 -0.4792  0.3288
36664SOL    HW116850  12.233   8.244   2.243 -0.3344 -1.4775  0.7293
36664SOL    HW216851  12.283   8.318   2.365 -0.6620 -0.9114  0.5235
36665SOL     OW16852   6.219  10.199  10.443  0.3736 -0.0878 -0.0530
36665SOL    HW116853   6.296  10.249  10.416 -0.3236 -0.0260 -2.1182
36665SOL    HW216854   6.145  10.256  10.423 -0.3818 -1.4747 -1.4744
36666SOL     OW16855   8.680   2.452   0.218 -0.4464 -0.0439  0.2248
36666SOL    HW116856   8.712   2.536   0.185  1.0106  0.1226  1.9363
36666SOL    HW216857   8.586   2.454   0.200 -0.2841  1.4911 -0.6881
36667SOL     OW16858   9.486   5.000   3.229  0.5226  0.4492  0.4461
36667SOL    HW116859   9.479   5.078   3.175  0.9766  1.2367  1.4809
36667SOL    HW216860   9.570   4.961   3.204 -0.2008 -0.3478 -0.8530
36668SOL     OW16861   9.366   9.931   6.086 -0.3610  0.7525  0.4642
36668SOL    HW116862   9.335  10.020   6.069  0.9948  1.0655 -0.5777
36668SOL    HW216863   9.355   9.885   6.004  2.6735  1.1652 -0.3141
36669SOL     OW16864   0.967   3.080   7.531  0.0459  0.2026 -0.6938
36669SOL    HW116865   0.929   3.045   7.450  1.5338 -2.6883 -0.2608
36669SOL    HW216866   0.892   3.098   7.587 -0.8731 -1.8718 -1.1789
36670SOL     OW16867   7.385  10.791   8.738 -0.4054  0.4569  0.2966
36670SOL    HW116868   7.324  10.717   8.737 -0.9667  0.8930  0.7574
36670SOL    HW216869   7.417  10.794   8.828  0.2554  0.2669  0.0677
36671SOL     OW16870   4.339  12.439   1.646  0.1949 -0.9954  0.6284
36671SOL    HW116871   4.262  12.382   1.641  1.3854 -2.6371 -0.0575
36671SOL    HW216872   4.394  12.412   1.572  0.9036  0.9643  0.3772
36672SOL     OW16873   4.234   1.739   2.813 -0.7179 -0.2759 -0.0402
36672SOL    HW116874   4.207   1.759   2.724 -0.7582 -0.0734  0.0175
36672SOL    HW216875   4.215   1.819   2.863 -2.4457 -0.9885  0.5401
36673SOL     OW16876   1.043   0.196   2.294  0.0678 -0.1909  0.2132
36673SOL    HW116877   1.018   0.106   2.313 -0.3659 -0.1902 -0.3416
36673SOL    HW216878   0.961   0.240   2.274  0.3924  0.0775 -0.5479
36674SOL     OW16879   3.529   7.483   4.547 -0.3003  0.2113  0.2999
36674SOL    HW116880   3.518   7.462   4.640 -1.1122  1.8400  0.6041
36674SOL    HW216881   3.441   7.475   4.511 -0.2921  1.2465  0.0426
36675SOL     OW16882   4.287  10.394   8.630  0.1366 -0.4552 -0.8985
36675SOL    HW116883   4.207  10.402   8.579  0.8655  1.6432 -1.8301
36675SOL    HW216884   4.356  10.383   8.565  1.0185  1.6908 -0.4252
36676SOL     OW16885   9.600   4.300   8.785 -0.1211  0.2325 -0.2423
36676SOL    HW116886   9.560   4.280   8.870 -1.1873  0.1108 -0.7595
36676SOL    HW216887   9.663   4.369   8.804 -0.8099  0.6587  0.5465
36677SOL     OW16888   8.290   4.346   5.626 -0.1501 -0.0463  0.1673
36677SOL    HW116889   8.337   4.263   5.622  1.3206  0.6950  1.3312
36677SOL    HW216890   8.358   4.413   5.622 -1.0664  1.0810  1.9699
36678SOL     OW16891  12.578   7.804   9.628  0.3612  0.3581 -0.2345
36678SOL    HW116892  12.564   7.899   9.625 -0.2999  0.3613  1.7586
36678SOL    HW216893  12.622   7.789   9.712  0.5710 -1.0952 -0.5881
36679SOL     OW16894   3.377   9.603   8.831  0.1723  0.8458  0.0781
36679SOL    HW116895   3.405   9.662   8.762  0.6854  0.2157 -0.2595
36679SOL    HW216896   3.439   9.617   8.902  0.5334  0.4377 -0.1514
36680SOL     OW16897   5.330   9.988   2.767  0.3438  0.2179 -0.0338
36680SOL    HW116898   5.317  10.046   2.692  2.0546  0.5079 -0.1453
36680SOL    HW216899   5.331  10.046   2.843 -0.7870 -0.0153  0.1923
36681SOL     OW16900  11.753   4.084   3.275 -0.3472 -0.3712  0.2528
36681SOL    HW116901  11.697   4.124   3.341  0.6397  0.2186  0.7317
36681SOL    HW216902  11.694   4.022   3.229 -0.9678 -1.0018  1.8349
36682SOL     OW16903   5.354   7.998   6.607 -0.2147  0.0118 -0.0069
36682SOL    HW116904   5.422   8.064   6.618  0.7434 -0.7104 -1.2500
36682SOL    HW216905   5.307   8.025   6.528  1.1579 -1.5150 -1.4390
36683SOL     OW16906   1.238   7.454   6.128 -0.2072 -0.2481 -0.5247
36683SOL    HW116907   1.292   7.468   6.050  0.2860  0.5239 -0.0476
36683SOL    HW216908   1.264   7.524   6.188 -0.8859 -0.5896  0.1715
36684SOL     OW16909  11.910   8.126   9.483 -0.0615 -0.0410  0.5513
36684SOL    HW116910  11.865   8.073   9.549  0.2754 -1.3538 -0.2258
36684SOL    HW216911  11.995   8.146   9.524 -0.7602  1.2137  1.4453
36685SOL     OW16912   9.910   9.602   3.163 -0.1877  0.1870  0.6621
36685SOL    HW116913   9.845   9.598   3.233 -1.3204  1.1303 -0.3031
36685SOL    HW216914   9.948   9.690   3.171  0.1446  0.0603  0.4962
36686SOL     OW16915   5.181   6.708   2.930  0.3333  0.0076 -0.0038
36686SOL    HW116916   5.238   6.753   2.866 -0.5174  0.1461 -0.6884
36686SOL    HW216917   5.233   6.705   3.010  1.6182 -0.5918 -0.8291
36687SOL     OW16918  10.224   5.708  12.260  0.3837 -0.0952  0.7407
36687SOL    HW116919  10.302   5.659  12.287  0.1415 -1.7084 -1.3199
36687SOL    HW216920  10.155   5.678  12.319  0.5767 -1.1429  0.4430
36688SOL     OW16921  12.534   7.990  10.844 -0.8098 -0.1870 -0.2231
36688SOL    HW116922  12.456   7.935  10.856 -0.2300 -0.4934  3.0190
36688SOL    HW216923  12.608   7.929  10.857 -0.1161  0.8535  0.8526
36689SOL     OW16924   7.618   8.376  10.527  0.6035 -0.2957 -0.3213
36689SOL    HW116925   7.713   8.369  10.534  0.4809 -0.6259  1.7706
36689SOL    HW216926   7.587   8.372  10.618 -1.2774  1.9850 -0.7582
36690SOL     OW16927   4.902  12.168   1.221  0.3898  0.1199  0.3845
36690SOL    HW116928   4.957  12.230   1.173 -1.4099  1.1984 -0.3976
36690SOL    HW216929   4.956  12.140   1.295  2.4836  0.0372 -1.0818
36691SOL     OW16930   1.510  10.189   9.260  0.0788 -0.5212  0.0307
36691SOL    HW116931   1.601  10.214   9.270  0.2364 -1.3195  0.7870
36691SOL    HW216932   1.507  10.137   9.179  0.2559 -0.3410 -0.0905
36692SOL     OW16933   7.543   9.036   6.146  0.1171 -0.3733 -0.0894
36692SOL    HW116934   7.473   8.989   6.191  0.1417  0.7003  1.1052
36692SOL    HW216935   7.615   9.039   6.209  0.4229  0.5017 -0.4660
36693SOL     OW16936   6.196   5.512   1.663 -0.0546 -0.2155  0.3553
36693SOL    HW116937   6.179   5.467   1.746 -0.2758  0.9187  0.9559
36693SOL    HW216938   6.117   5.564   1.647  0.0279 -0.3383 -0.5180
36694SOL     OW16939   3.023   2.089   2.258 -0.6568  0.0037 -0.4567
36694SOL    HW116940   3.090   2.029   2.291 -0.3114 -0.1596 -1.4310
36694SOL    HW216941   2.998   2.052   2.174  0.0272  1.5836 -1.3862
36695SOL     OW16942   2.913   8.910   8.274 -0.8445  0.0560 -0.1096
36695SOL    HW116943   2.992   8.957   8.301 -1.0545  0.0365  0.5500
36695SOL    HW216944   2.945   8.823   8.248 -0.5066  0.4203 -0.9683
36696SOL     OW16945   9.004   3.387   6.350 -0.1619  0.5813  0.1686
36696SOL    HW116946   8.920   3.341   6.347 -0.0718  0.4617 -0.8335
36696SOL    HW216947   9.049   3.360   6.271  1.6982 -0.9560  1.6527
36697SOL     OW16948   7.451   2.129   3.847  0.3712  0.0098 -0.7364
36697SOL    HW116949   7.361   2.130   3.880  0.6370 -1.1984  0.1259
36697SOL    HW216950   7.458   2.207   3.793 -0.1793  2.0426  1.9159
36698SOL     OW16951   6.587  11.173   7.255  0.4844  0.2060 -0.3171
36698SOL    HW116952   6.606  11.104   7.192  0.4162  0.4051 -0.5552
36698SOL    HW216953   6.642  11.247   7.228 -2.0408  1.5448 -2.2799
36699SOL     OW16954   7.277   1.415   2.073  0.2533  0.2177  0.2818
36699SOL    HW116955   7.291   1.343   2.134  2.2273  1.5844  1.5435
36699SOL    HW216956   7.361   1.462   2.071 -0.6377  1.8840 -1.2989
36700SOL     OW16957  11.418  10.161  10.999 -0.1212  0.1007  0.2552
36700SOL    HW116958  11.365  10.188  11.074  0.2581  2.2104 -0.1993
36700SOL    HW216959  11.356  10.115  10.942 -0.7826 -0.0422  1.0649
36701SOL     OW16960   1.629   7.452  10.617  0.2223  0.2044 -0.3212
36701SOL    HW116961   1.663   7.486  10.700 -4.2416  2.5104  0.8970
36701SOL    HW216962   1.573   7.379  10.643 -0.2594  0.1438 -1.4874
36702SOL     OW16963   6.430   7.454  10.966  0.3764 -0.2438  0.3048
36702SOL    HW116964   6.349   7.450  10.915  0.8630 -0.6591 -0.4499
36702SOL    HW216965   6.488   7.391  10.924  1.8537  1.5500 -0.5164
36703SOL     OW16966   2.937   8.345   3.049  0.3471 -0.0279  0.2817
36703SOL    HW116967   2.916   8.267   2.998 -0.2048 -0.7417  1.5548
36703SOL    HW216968   2.858   8.399   3.044  0.8528  0.6271 -0.8852
36704SOL     OW16969   2.904   3.165   4.659  0.1404 -0.0212  0.2742
36704SOL    HW116970   2.845   3.094   4.686  3.3880 -3.5493 -0.9324
36704SOL    HW216971   2.892   3.170   4.564 -0.6204  1.7886  0.4155
36705SOL     OW16972   6.090   1.937   6.035  0.7432 -0.1717 -0.8289
36705SOL    HW116973   6.118   1.928   5.944  0.8928 -3.1092 -0.5925
36705SOL    HW216974   5.996   1.919   6.033  0.9978 -1.6863 -0.2739
36706SOL     OW16975   2.277   1.990   9.691  0.0879 -0.0798 -0.2308
36706SOL    HW116976   2.290   2.067   9.746  3.2276 -0.3385 -0.4292
36706SOL    HW216977   2.311   1.917   9.742 -1.9455 -1.2609 -0.4365
36707SOL     OW16978   8.119   0.098   4.723  0.2310  0.2527 -0.3527
36707SOL    HW116979   8.194   0.112   4.781 -0.3665  0.1671  0.4461
36707SOL    HW216980   8.099   0.005   4.731  0.4464  0.1354 -1.0761
36708SOL     OW16981  10.064   6.808   6.430 -0.2201 -0.6908 -0.2704
36708SOL    HW116982  10.069   6.713   6.422  0.6257 -0.7503  0.8244
36708SOL    HW216983  10.146   6.840   6.390  0.7076 -0.5961  1.6013
36709SOL     OW16984   6.423   0.259   4.774 -0.1462 -0.0994 -0.2185
36709SOL    HW116985   6.513   0.280   4.799 -0.8995  0.2275  2.5126
36709SOL    HW216986   6.423   0.266   4.678  2.9481 -1.1138 -0.4178
36710SOL     OW16987   5.982   6.070   6.939  0.2652 -0.4530  0.2022
36710SOL    HW116988   5.887   6.077   6.927  0.4009  0.3696 -0.4871
36710SOL    HW216989   5.993   6.047   7.031 -0.5711  0.3047  0.5070
36711SOL     OW16990   4.716   2.288   9.903 -0.0225 -0.2717 -0.0640
36711SOL    HW116991   4.644   2.263   9.960  0.7454 -0.9179  0.6549
36711SOL    HW216992   4.780   2.327   9.962  0.5507 -0.4421 -0.5623
36712SOL     OW16993   6.923   0.596   9.122 -0.2394 -0.7174  0.7051
36712SOL    HW116994   6.981   0.521   9.120 -1.0563 -1.5270  3.1019
36712SOL    HW216995   6.959   0.653   9.190  1.6725  2.3318 -2.5376
36713SOL     OW16996   5.431   0.031   2.348 -0.0521  0.0381 -0.2274
36713SOL    HW116997   5.385  -0.053   2.356 -2.2073  1.1872  0.1235
36713SOL    HW216998   5.456   0.054   2.437 -0.2108  0.1680 -0.2162
36714SOL     OW16999  12.174   7.763   9.090 -0.1495 -0.1568 -0.2873
36714SOL    HW117000  12.179   7.713   9.008  0.1645 -1.2968  0.3961
36714SOL    HW217001  12.244   7.726   9.144 -1.1994 -0.3550  0.9821
36715SOL     OW17002   9.826   7.800   5.623 -0.0555  0.1084  0.6353
36715SOL    HW117003   9.857   7.845   5.702  1.1133  1.5664 -0.5990
36715SOL    HW217004   9.833   7.865   5.554 -2.7270 -0.5771 -0.4090
36716SOL     OW17005   6.306   3.160   0.797 -0.2689  0.2461  0.2166
36716SOL    HW117006   6.344   3.238   0.757  0.1760 -0.9586 -1.8794
36716SOL    HW217007   6.216   3.157   0.763 -0.4712  0.1540  0.7548
36717SOL     OW17008   3.198  10.148   8.873 -0.7484 -0.3791 -0.0485
36717SOL    HW117009   3.159  10.192   8.948  0.0148 -0.5610  0.4743
36717SOL    HW217010   3.278  10.108   8.908  0.3103  0.6251 -1.2292
36718SOL     OW17011   6.948   2.734  10.419  0.5667 -0.2456 -0.5595
36718SOL    HW117012   6.953   2.682  10.338 -0.8648  0.1207 -0.9071
36718SOL    HW217013   7.017   2.698  10.474  1.1945 -0.8920 -1.7267
36719SOL     OW17014   2.456   8.459   0.547  0.2641 -0.2540 -0.1877
36719SOL    HW117015   2.526   8.436   0.609  0.3648 -0.4682 -0.3778
36719SOL    HW217016   2.383   8.486   0.602  0.3330 -0.5025  0.0290
36720SOL     OW17017   5.997  10.826   2.880  0.2816 -0.1113  0.0050
36720SOL    HW117018   5.976  10.735   2.902 -0.5944  0.1078  0.0825
36720SOL    HW217019   6.053  10.855   2.952 -0.8061 -0.0770  0.8586
36721SOL     OW17020   5.167   6.574   1.638 -0.3766  0.7069 -0.1433
36721SOL    HW117021   5.174   6.485   1.672 -1.2831  0.5173 -0.3977
36721SOL    HW217022   5.072   6.592   1.638 -0.2070  1.6773 -0.0747
36722SOL     OW17023   3.209   2.366  10.656  1.0604 -0.2857 -0.6733
36722SOL    HW117024   3.264   2.397  10.728 -1.0299  0.9476  0.4748
36722SOL    HW217025   3.176   2.281  10.686  2.0523 -0.8839 -1.2327
36723SOL     OW17026   6.328   8.970   4.586 -0.0800 -0.4004  0.1024
36723SOL    HW117027   6.339   8.904   4.655 -1.3343 -2.8180 -1.8577
36723SOL    HW217028   6.244   9.012   4.606  0.6197  0.4972  1.2415
36724SOL     OW17029   0.492   2.395   7.447  0.3678  0.2262  0.9535
36724SOL    HW117030   0.462   2.317   7.494 -1.1158  0.9892  1.3195
36724SOL    HW217031   0.501   2.366   7.356  0.7723 -0.6074  1.2462
36725SOL     OW17032   0.691   6.196   7.016 -0.3376  0.1949  0.1756
36725SOL    HW117033   0.729   6.283   7.026 -0.8905  0.3076  1.5147
36725SOL    HW217034   0.682   6.184   6.921  0.0895  1.4332 -0.0357
36726SOL     OW17035   4.893   7.148  11.596  0.2934 -1.0451 -0.5979
36726SOL    HW117036   4.934   7.088  11.533 -0.5713  1.2341 -3.5747
36726SOL    HW217037   4.927   7.234  11.573 -0.5020 -0.0008  1.8014
36727SOL     OW17038  11.179   1.093   3.201  0.2865 -0.5880 -0.5627
36727SOL    HW117039  11.244   1.132   3.260 -1.3963  1.7686 -0.1411
36727SOL    HW217040  11.124   1.166   3.175 -2.2848 -2.4924 -0.7800
36728SOL     OW17041   7.456   5.085   3.994 -0.0297 -0.0740 -0.1531
36728SOL    HW117042   7.516   5.106   4.066  0.7077  1.3790 -1.1268
36728SOL    HW217043   7.382   5.042   4.035  1.3897 -1.3901  1.1886
36729SOL     OW17044   4.476   8.162   2.959 -0.1965  0.6104 -0.0661
36729SOL    HW117045   4.431   8.090   3.002  0.1835  0.6198  0.3561
36729SOL    HW217046   4.557   8.123   2.926 -0.5225  0.5790 -0.8658
36730SOL     OW17047   1.729  10.294   2.350  0.0249  0.4164  0.2857
36730SOL    HW117048   1.751  10.274   2.259 -0.2184 -1.7680  0.6574
36730SOL    HW217049   1.639  10.264   2.361 -0.2158  1.3458  1.0747
36731SOL     OW17050   3.196   0.595   4.911  0.4632 -0.5531  0.1608
36731SOL    HW117051   3.228   0.678   4.875  4.7375 -1.2305  1.8472
36731SOL    HW217052   3.159   0.619   4.996  0.6292 -0.2190  0.1426
36732SOL     OW17053   9.633   1.155  10.947  0.1810  0.4939  0.3442
36732SOL    HW117054   9.681   1.175  10.867  1.6133  0.6290  1.2082
36732SOL    HW217055   9.699   1.154  11.016 -0.8652 -0.5561  1.3932
36733SOL     OW17056   3.061   0.881  11.099  0.3717 -0.4426  0.3964
36733SOL    HW117057   2.984   0.929  11.129  1.0847  0.9619  0.0787
36733SOL    HW217058   3.094   0.836  11.177  0.3117  0.4863  0.9625
36734SOL     OW17059   5.135  11.126   4.526 -0.4673 -1.1005  0.4666
36734SOL    HW117060   5.137  11.210   4.573  0.2584  0.0687 -1.5102
36734SOL    HW217061   5.227  11.098   4.522 -0.3531 -0.5962 -1.1485
36735SOL     OW17062  11.719   8.852   8.631  0.0641 -0.0390  0.2726
36735SOL    HW117063  11.782   8.911   8.589  0.5736 -2.0595 -2.0186
36735SOL    HW217064  11.773   8.791   8.681 -0.2908 -0.0087  0.6978
36736SOL     OW17065   6.717   4.794   3.509  0.5443  0.5722 -0.2334
36736SOL    HW117066   6.669   4.870   3.476 -1.4361 -0.2130  0.6555
36736SOL    HW217067   6.779   4.773   3.440  0.3417  2.2912 -0.9953
36737SOL     OW17068   9.341   8.478   6.045  0.1130 -0.4134 -0.3378
36737SOL    HW117069   9.296   8.395   6.059  1.2246 -1.2679 -1.5618
36737SOL    HW217070   9.356   8.513   6.132 -0.5876 -1.3702  0.1866
36738SOL     OW17071   3.105   2.233   0.976 -0.4607  0.5225  0.4177
36738SOL    HW117072   3.125   2.178   1.052  0.0304 -0.1331 -0.1675
36738SOL    HW217073   3.187   2.236   0.926 -1.4396 -1.2881 -1.4667
36739SOL     OW17074   3.380   9.472   6.418  0.5825 -0.0355 -0.6026
36739SOL    HW117075   3.303   9.433   6.460  1.6637 -1.9152 -0.2637
36739SOL    HW217076   3.432   9.507   6.490 -0.5655  2.6355 -0.9169
36740SOL     OW17077   0.643   2.499   0.999 -0.3568  0.0106 -0.2610
36740SOL    HW117078   0.676   2.409   0.995  0.4820  0.2777  0.3714
36740SOL    HW217079   0.666   2.537   0.914 -1.8499 -0.7216 -1.0472
36741SOL     OW17080   6.365  11.232   1.831  0.9150 -1.0141 -0.7844
36741SOL    HW117081   6.436  11.258   1.890 -0.7230  1.3191  0.3204
36741SOL    HW217082   6.402  11.240   1.744  1.9680  0.4367 -0.2452
36742SOL     OW17083  12.151   3.532   9.636 -0.2941 -0.2059  0.0714
36742SOL    HW117084  12.067   3.568   9.665 -0.6254  0.3279 -1.4249
36742SOL    HW217085  12.214   3.603   9.650  0.4600 -1.3539  3.3499
36743SOL     OW17086   5.033   2.965  11.029 -0.2595 -0.4082 -0.1711
36743SOL    HW117087   5.110   2.908  11.035 -0.1657 -0.2638  0.0108
36743SOL    HW217088   4.963   2.907  11.001 -0.3288 -0.7651  0.7160
36744SOL     OW17089  10.610   2.028   9.621 -0.4529  0.0008 -0.3943
36744SOL    HW117090  10.615   1.948   9.674 -0.4902  1.7340  2.4118
36744SOL    HW217091  10.532   2.073   9.653 -0.1029  1.4600 -1.4872
36745SOL     OW17092   8.179   6.232   6.553  0.5255  0.1112  0.2881
36745SOL    HW117093   8.222   6.163   6.604 -0.8269 -1.1252 -0.1628
36745SOL    HW217094   8.244   6.258   6.489  0.8677 -1.2342  0.0502
36746SOL     OW17095   5.010   5.589   7.755  1.0133 -0.1420 -0.0539
36746SOL    HW117096   5.039   5.649   7.824  0.2007  1.0613 -0.7172
36746SOL    HW217097   4.996   5.645   7.679 -1.1187 -0.9503 -0.3168
36747SOL     OW17098   9.954  11.936  12.371  0.2326 -0.2408 -0.3560
36747SOL    HW117099  10.048  11.942  12.354  0.2940 -1.0986 -0.3622
36747SOL    HW217100   9.930  12.023  12.402  1.1030 -0.1117 -0.0105
36748SOL     OW17101   0.983   4.191   3.738  0.2329  0.1545  0.3349
36748SOL    HW117102   0.891   4.191   3.763  0.6560 -0.2911  2.0681
36748SOL    HW217103   0.984   4.224   3.648 -1.3222  3.5477  1.3906
36749SOL     OW17104  10.336   3.830   5.389  0.0517  0.4353  0.0695
36749SOL    HW117105  10.428   3.858   5.390 -0.3066  1.7160 -0.5657
36749SOL    HW217106  10.286   3.912   5.397 -1.0483 -0.0575 -1.3568
36750SOL     OW17107   4.922   5.437   5.084 -0.1213  0.3271 -0.6935
36750SOL    HW117108   4.979   5.498   5.039  0.4930  2.1293  2.2302
36750SOL    HW217109   4.981   5.367   5.114 -0.0260  0.5149 -0.4369
36751SOL     OW17110   6.052   2.774   0.822  0.3858  0.0733 -0.2405
36751SOL    HW117111   5.999   2.850   0.848 -1.3402 -1.2437  0.3177
36751SOL    HW217112   6.024   2.704   0.881  0.8893 -1.3589 -1.6237
36752SOL     OW17113   6.038   1.394   7.900  0.4232  0.0689  0.2946
36752SOL    HW117114   6.106   1.386   7.967  0.2347  0.4208  0.5347
36752SOL    HW217115   5.987   1.470   7.928 -1.2848 -1.3425  1.2057
36753SOL     OW17116   6.261  10.666   0.146 -0.8751  0.1232  0.7324
36753SOL    HW117117   6.294  10.580   0.174  0.9195  0.7485  0.6299
36753SOL    HW217118   6.203  10.693   0.217 -2.2356 -1.5579  0.3432
36754SOL     OW17119  11.768   5.797  10.800  0.1009 -0.1124  0.6462
36754SOL    HW117120  11.682   5.839  10.808  0.6880  1.3387 -0.3116
36754SOL    HW217121  11.807   5.837  10.722  2.0803  0.0673  1.6639
36755SOL     OW17122   5.934   0.017   5.145 -0.3386  0.0498  0.6807
36755SOL    HW117123   5.940  -0.046   5.073  0.4818  0.0006  0.7889
36755SOL    HW217124   5.987  -0.021   5.215  0.3606  0.9590  0.6612
36756SOL     OW17125   7.427   3.446  11.826 -0.4129  0.0974 -0.6348
36756SOL    HW117126   7.474   3.496  11.759 -0.8891  0.7902 -0.4671
36756SOL    HW217127   7.478   3.461  11.906  0.5238 -1.2535 -0.9403
36757SOL     OW17128   7.130   0.392   8.527  0.2267  0.2925 -0.8259
36757SOL    HW117129   7.212   0.440   8.511 -0.9118  1.8574 -2.3717
36757SOL    HW217130   7.088   0.440   8.598  0.6698 -0.5696  0.0352
36758SOL     OW17131   2.433   7.702   2.923  0.2357 -0.2842 -0.8375
36758SOL    HW117132   2.418   7.783   2.873 -1.5464  1.6179  2.3931
36758SOL    HW217133   2.503   7.724   2.984  1.4647 -2.0805 -1.5292
36759SOL     OW17134   6.010  11.095   2.376 -0.3333  0.4937  0.4619
36759SOL    HW117135   6.078  11.048   2.328  0.4894  0.3882  1.6878
36759SOL    HW217136   6.040  11.186   2.377  0.4119  0.2622  1.9870
36760SOL     OW17137  12.534   4.126  11.443  0.2291  0.2583 -0.1364
36760SOL    HW117138  12.622   4.099  11.416 -0.1722 -0.3877 -0.8396
36760SOL    HW217139  12.528   4.218  11.415  0.0179 -0.2437 -1.8316
36761SOL     OW17140   0.992   2.723   5.641  0.0324  0.6929  0.2251
36761SOL    HW117141   1.048   2.713   5.565 -0.4370  2.1604 -0.3349
36761SOL    HW217142   0.927   2.653   5.632  1.6308 -0.9581  0.8268
36762SOL     OW17143  12.111  12.058   2.399  0.7634 -0.3337  0.1215
36762SOL    HW117144  12.145  11.973   2.426  1.7078 -0.0264 -0.0728
36762SOL    HW217145  12.061  12.040   2.319  0.5479 -0.7711  0.3519
36763SOL     OW17146  10.431   2.200   0.077 -0.1788 -0.1192  0.3815
36763SOL    HW117147  10.474   2.247   0.006 -0.2378 -1.2912 -0.4647
36763SOL    HW217148  10.412   2.114   0.041 -2.5274  0.0741  0.9653
36764SOL     OW17149   1.789   2.763   5.190 -0.0657 -0.1833  0.7304
36764SOL    HW117150   1.820   2.787   5.277 -0.2383  1.8930  0.2571
36764SOL    HW217151   1.858   2.707   5.155  1.0805  0.7939  1.3589
36765SOL     OW17152   0.275   3.293  11.798 -0.4009  0.8588 -0.2116
36765SOL    HW117153   0.347   3.274  11.738 -0.3524  0.8455 -0.1496
36765SOL    HW217154   0.312   3.353  11.862  0.1201 -0.6663  0.9775
36766SOL     OW17155   2.173  11.663   6.280 -0.0784 -0.1252  0.0265
36766SOL    HW117156   2.109  11.648   6.210 -0.8349  2.0039  0.1896
36766SOL    HW217157   2.171  11.758   6.295  1.0550 -0.3561  2.0143
36767SOL     OW17158  11.665   5.692   2.508 -0.0306 -0.2170  0.2951
36767SOL    HW117159  11.588   5.696   2.564 -0.0358 -1.5496  0.3971
36767SOL    HW217160  11.658   5.770   2.452  0.2388  1.4350  2.4308
36768SOL     OW17161   0.213   6.726   5.491 -0.0871 -0.3299 -0.4725
36768SOL    HW117162   0.124   6.722   5.526  0.3791  0.4085  0.8583
36768SOL    HW217163   0.252   6.803   5.533  0.7282  0.2283 -2.1547
36769SOL     OW17164   8.390   7.295   0.162  0.2750  0.3478 -0.2990
36769SOL    HW117165   8.412   7.331   0.077  2.0175 -1.7803 -0.8284
36769SOL    HW217166   8.473   7.287   0.208 -0.0095 -2.3731 -0.0428
36770SOL     OW17167   1.909   8.171   5.519 -0.2754 -0.2540 -0.0092
36770SOL    HW117168   1.977   8.107   5.500 -1.0258 -1.3865  0.9318
36770SOL    HW217169   1.847   8.124   5.576  0.4584  2.0454  2.9391
36771SOL     OW17170   5.422   2.008   9.932  0.8324 -0.0290  0.3931
36771SOL    HW117171   5.458   2.096   9.926 -3.2729  1.8315  0.1891
36771SOL    HW217172   5.395   1.986   9.843  1.2787 -1.3309  0.5465
36772SOL     OW17173  11.293   4.367   5.600  0.2168 -0.2285 -0.3925
36772SOL    HW117174  11.285   4.438   5.536 -0.0696  1.3073  1.2331
36772SOL    HW217175  11.323   4.411   5.680 -0.6326 -1.8332  0.8807
36773SOL     OW17176   9.934  11.372   0.066  0.1339 -0.0374  0.4152
36773SOL    HW117177   9.919  11.353   0.159 -1.3227 -1.9927 -0.1567
36773SOL    HW217178   9.857  11.338   0.022  1.3450 -0.2590 -1.6508
36774SOL     OW17179   6.656   1.362   9.544 -0.0114 -0.0532  0.0999
36774SOL    HW117180   6.751   1.352   9.543  0.0572  0.5939 -0.2352
36774SOL    HW217181   6.640   1.439   9.598 -0.4617 -1.1098  1.5597
36775SOL     OW17182   5.643   0.527   4.059 -0.1973 -0.1872 -0.3618
36775SOL    HW117183   5.724   0.535   4.008  0.8315 -1.3344  1.0095
36775SOL    HW217184   5.615   0.617   4.075  0.7423  0.2202 -0.9707
36776SOL     OW17185  10.147   7.951   9.875 -0.2733  0.5629 -0.0201
36776SOL    HW117186  10.091   7.877   9.899 -0.5905  1.1173  0.9585
36776SOL    HW217187  10.090   8.027   9.881  0.6687  1.1858  1.3886
36777SOL     OW17188   7.919   0.047   7.940 -0.1229  0.3614 -0.3636
36777SOL    HW117189   8.010   0.070   7.924  0.4144 -0.2158  1.6205
36777SOL    HW217190   7.878   0.051   7.853  1.5028  1.7351 -1.1281
36778SOL     OW17191  11.110  10.423  12.240  0.5453  0.3118 -0.1744
36778SOL    HW117192  11.048  10.480  12.285  0.2926  0.1120 -0.2667
36778SOL    HW217193  11.064  10.395  12.161  0.8342  0.3338 -0.3494
36779SOL     OW17194   7.458   4.151  11.400  0.2855  0.0725  0.2267
36779SOL    HW117195   7.393   4.167  11.332 -0.2960  0.4701  0.8606
36779SOL    HW217196   7.491   4.063  11.382  0.8359  0.5302 -1.1214
36780SOL     OW17197   3.912   0.375   1.641 -0.2846 -0.1952  0.4592
36780SOL    HW117198   3.978   0.414   1.584 -0.3557  0.3228  0.7208
36780SOL    HW217199   3.938   0.403   1.729  0.8381 -2.3925  0.9109
36781SOL     OW17200   1.574   1.724   6.595 -0.2114  0.2559 -0.1448
36781SOL    HW117201   1.640   1.655   6.589 -0.6202 -0.1566  0.0299
36781SOL    HW217202   1.499   1.683   6.639 -0.7491  0.5954 -0.7174
36782SOL     OW17203   0.718   5.356  10.426  0.3492  0.1352 -0.1602
36782SOL    HW117204   0.725   5.277  10.372 -1.2756 -1.2156  1.4449
36782SOL    HW217205   0.626   5.359  10.452  0.2123  2.9897 -0.7036
36783SOL     OW17206   3.122   2.567   9.881 -0.5340 -0.3971  0.3293
36783SOL    HW117207   3.094   2.581   9.972  0.3898 -0.3460  0.6161
36783SOL    HW217208   3.095   2.646   9.835  0.2045  0.1762  0.8597
36784SOL     OW17209   6.080  11.356   2.395 -0.1936 -0.0044 -0.1374
36784SOL    HW117210   6.137  11.433   2.401 -0.4712  0.2926 -1.1223
36784SOL    HW217211   5.994  11.387   2.421 -0.1410 -0.1863  0.2618
36785SOL     OW17212   1.713   7.395   5.123  0.4165 -0.2253  0.7045
36785SOL    HW117213   1.724   7.450   5.045  2.0792 -0.4174  0.7804
36785SOL    HW217214   1.675   7.454   5.188 -0.4802  0.0832 -0.0652
36786SOL     OW17215   4.846  10.848   7.817 -0.0827  0.0717 -0.2032
36786SOL    HW117216   4.778  10.854   7.884  1.3911 -2.7467  1.7088
36786SOL    HW217217   4.818  10.776   7.760  0.8098 -0.4762  0.0355
36787SOL     OW17218  10.641   9.924   1.672  0.1459  1.1298  0.5354
36787SOL    HW117219  10.714   9.884   1.624  0.9591  1.4586  1.4761
36787SOL    HW217220  10.564   9.905   1.617  0.5469 -1.3112  0.6845
36788SOL     OW17221   0.083   0.968  10.645 -1.0450 -0.2361  0.0124
36788SOL    HW117222   0.072   0.901  10.578 -0.1044 -2.4093  1.8711
36788SOL    HW217223   0.169   1.006  10.628  0.5629 -2.8642  1.5455
36789SOL     OW17224  10.883   0.576   1.533 -0.1097 -0.5002 -0.4673
36789SOL    HW117225  10.804   0.546   1.488 -0.3295 -1.0140  0.2273
36789SOL    HW217226  10.852   0.640   1.597 -0.0433 -1.0928  0.1705
36790SOL     OW17227   6.967   3.292   2.553  0.5884 -0.1607 -0.3407
36790SOL    HW117228   6.968   3.365   2.492 -0.5512 -0.9816 -1.3797
36790SOL    HW217229   7.039   3.235   2.524  1.3716  0.4484  0.3695
36791SOL     OW17230   2.923  10.409   0.879  0.0087  0.3192  0.3486
36791SOL    HW117231   2.941  10.437   0.969 -3.0666  0.6405  0.9447
36791SOL    HW217232   2.881  10.485   0.839  0.7862 -0.0397 -1.2010
36792SOL     OW17233   6.012   1.366   9.195  0.5973 -0.0478 -0.0391
36792SOL    HW117234   6.066   1.441   9.171 -0.3264 -0.0284 -2.3393
36792SOL    HW217235   5.972   1.390   9.278 -1.0086  2.7875 -1.5124
36793SOL     OW17236  12.137   4.691   8.540 -0.2276  0.6389  0.1772
36793SOL    HW117237  12.226   4.725   8.541 -0.2113  0.7208 -1.1496
36793SOL    HW217238  12.137   4.620   8.603  1.2365 -0.4398 -0.9787
36794SOL     OW17239   2.401   1.851   2.477  0.2681 -0.0876  0.3280
36794SOL    HW117240   2.426   1.761   2.497  1.1166 -0.0080 -0.3016
36794SOL    HW217241   2.309   1.858   2.504  0.2625 -1.0755  0.5751
36795SOL     OW17242   0.543   4.000   9.806  0.2212 -0.1375 -0.0951
36795SOL    HW117243   0.543   3.941   9.731 -1.3241  0.8277 -0.9190
36795SOL    HW217244   0.516   3.946   9.880  1.7653 -1.1039 -0.2047
36796SOL     OW17245  11.548   1.060   1.941 -0.2930 -0.0772  0.3604
36796SOL    HW117246  11.605   1.137   1.940 -0.3531  0.0098  1.6941
36796SOL    HW217247  11.484   1.077   1.873  0.6913  0.2715 -0.5045
36797SOL     OW17248   6.344  10.246  10.989 -0.0392 -0.8844 -0.4266
36797SOL    HW117249   6.260  10.291  10.988 -0.9903 -2.5728 -0.0425
36797SOL    HW217250   6.340  10.187  10.914  1.9303  0.8416 -2.0452
36798SOL     OW17251   2.542  10.841   4.550  0.2765  0.1502 -0.1953
36798SOL    HW117252   2.600  10.902   4.504 -0.2969  0.6512 -0.2513
36798SOL    HW217253   2.456  10.881   4.545 -0.0809 -0.5948 -0.1034
36799SOL     OW17254  11.970   7.357  12.196  0.4530 -0.0544 -0.0725
36799SOL    HW117255  12.062   7.334  12.183  0.2769 -0.5886 -0.3833
36799SOL    HW217256  11.924   7.313  12.124 -0.0615  0.1043  0.1579
36800SOL     OW17257   4.226   9.340   3.965  0.1750  0.0095 -0.7487
36800SOL    HW117258   4.201   9.334   4.057  2.3151  2.5611  0.1564
36800SOL    HW217259   4.151   9.381   3.922  0.0887  1.1782  0.4478
36801SOL     OW17260  11.644   9.027   6.595 -0.0910  0.4216  0.1687
36801SOL    HW117261  11.612   9.086   6.526 -0.0620  0.0078 -0.2059
36801SOL    HW217262  11.564   8.994   6.636 -0.3302 -2.3199 -2.2002
36802SOL     OW17263   1.436  10.566  11.047 -0.8653 -0.1736  0.3515
36802SOL    HW117264   1.447  10.475  11.020 -2.6156 -0.3475  0.1092
36802SOL    HW217265   1.456  10.617  10.969  1.3313 -0.2174  0.8017
36803SOL     OW17266   3.065   9.948   0.563  0.1246 -0.2557 -0.8054
36803SOL    HW117267   3.130   9.879   0.550  2.0837  1.5411 -1.1785
36803SOL    HW217268   3.062   9.961   0.658  0.9077  0.1393 -0.8218
36804SOL     OW17269   5.712  11.372   1.640 -0.1488  0.1792 -0.0885
36804SOL    HW117270   5.762  11.454   1.645  0.2760 -0.0753 -0.0809
36804SOL    HW217271   5.623  11.397   1.663 -0.0560  0.6714 -0.2425
36805SOL     OW17272   7.597   1.889   7.797 -0.0631  0.2820 -0.0961
36805SOL    HW117273   7.502   1.899   7.794 -0.2979 -1.6582 -1.1832
36805SOL    HW217274   7.624   1.894   7.705  0.6500 -0.8377  0.0340
36806SOL     OW17275   8.756   7.305   4.546 -0.7080  0.6210  0.1187
36806SOL    HW117276   8.668   7.331   4.574 -0.4524  1.5480  0.1036
36806SOL    HW217277   8.797   7.271   4.626 -1.2865 -0.4090 -0.0176
36807SOL     OW17278   5.189  10.041   5.366  0.0732  0.5672  0.2730
36807SOL    HW117279   5.242  10.091   5.304 -2.1038  1.0839 -1.2722
36807SOL    HW217280   5.151  10.107   5.424  0.4984  0.2619  0.9225
36808SOL     OW17281  10.731   6.194   7.024 -0.0104  0.1597  0.0540
36808SOL    HW117282  10.700   6.165   6.938  2.6499 -2.3289 -0.2324
36808SOL    HW217283  10.744   6.288   7.014 -1.6030  0.2767 -1.5984
36809SOL     OW17284   7.661   1.099   6.608  0.1668  0.4991 -0.1062
36809SOL    HW117285   7.580   1.053   6.633  0.2533  0.2438 -0.2976
36809SOL    HW217286   7.677   1.073   6.517  2.3190 -2.2089  0.8990
36810SOL     OW17287   7.498  11.511   0.727  0.0106 -0.0730  0.5404
36810SOL    HW117288   7.408  11.529   0.756 -0.3591  0.5374 -0.8636
36810SOL    HW217289   7.519  11.584   0.669  0.2743 -1.7001 -1.5447
36811SOL     OW17290   6.378  11.621   6.362 -0.0726  0.3287  0.5394
36811SOL    HW117291   6.366  11.536   6.404  3.0808 -0.8157 -0.5726
36811SOL    HW217292   6.447  11.663   6.413  0.6071  0.8395 -0.7614
36812SOL     OW17293  10.750  11.294   1.831 -0.3883 -0.4731 -0.1147
36812SOL    HW117294  10.834  11.287   1.877 -0.7727 -0.9345  0.5328
36812SOL    HW217295  10.691  11.236   1.880 -1.0374 -0.2950 -0.6725
36813SOL     OW17296   0.755   0.567  11.316 -0.6250 -0.4604 -0.1680
36813SOL    HW117297   0.680   0.550  11.373  0.2568  1.3263  1.6756
36813SOL    HW217298   0.826   0.516  11.353  0.4862  2.2519  1.7516
36814SOL     OW17299   8.363   2.251  12.293 -0.3605 -0.1594 -0.1197
36814SOL    HW117300   8.373   2.178  12.231  0.4935 -2.9714  3.0012
36814SOL    HW217301   8.291   2.223  12.350  1.6148  0.1588  2.7025
36815SOL     OW17302   9.148   5.710   7.808 -0.1195 -1.0113 -0.1442
36815SOL    HW117303   9.092   5.749   7.740  1.6482  0.7939 -0.6694
36815SOL    HW217304   9.148   5.616   7.789 -0.4019 -0.6520 -2.0905
36816SOL     OW17305  10.198   9.617   5.271  0.6679 -0.8077 -0.3394
36816SOL    HW117306  10.106   9.590   5.275  0.6082 -0.5224  0.2788
36816SOL    HW217307  10.232   9.602   5.359  0.3196  2.1327  0.4107
36817SOL     OW17308   4.798   2.976   9.232 -0.1016 -0.2284  0.5845
36817SOL    HW117309   4.774   2.921   9.157  4.2883 -0.9016 -0.6068
36817SOL    HW217310   4.865   2.925   9.278  0.7886  2.1807  2.1359
36818SOL     OW17311   1.379   8.893   2.136  0.0373 -0.2510 -0.2356
36818SOL    HW117312   1.424   8.809   2.125  0.1626 -0.2785  0.4031
36818SOL    HW217313   1.319   8.899   2.062 -0.8947 -1.4958  0.3858
36819SOL     OW17314   2.827   7.250   0.634  0.3364 -0.1337 -0.0277
36819SOL    HW117315   2.824   7.270   0.541  0.9260  1.2867  0.2253
36819SOL    HW217316   2.782   7.324   0.676  1.4523  0.0662  0.8878
36820SOL     OW17317   7.378   0.450   7.634 -0.0866 -0.2926 -0.0092
36820SOL    HW117318   7.371   0.475   7.726  1.2585 -1.6522  0.5139
36820SOL    HW217319   7.321   0.375   7.624 -0.3251 -0.0749 -0.3294
36821SOL     OW17320   5.220   2.886   2.934 -0.0232 -0.1670 -0.3692
36821SOL    HW117321   5.297   2.839   2.901  0.2729  0.6795 -0.9247
36821SOL    HW217322   5.184   2.929   2.856  0.4269  1.5189  0.3183
36822SOL     OW17323   0.202   8.118  10.512 -0.1702  0.4812 -0.2866
36822SOL    HW117324   0.255   8.197  10.501  0.0279  0.2721 -0.8491
36822SOL    HW217325   0.264   8.046  10.499 -0.5508  0.2351 -0.7542
36823SOL     OW17326   7.152  10.809   0.438 -0.2679  0.2293 -0.4325
36823SOL    HW117327   7.234  10.767   0.463 -1.2828 -1.9746 -0.5479
36823SOL    HW217328   7.166  10.839   0.348 -0.0364 -1.5482 -1.0293
36824SOL     OW17329   7.984   2.114  10.573 -0.1472 -0.2969 -0.4351
36824SOL    HW117330   7.953   2.028  10.543  0.0118 -0.9419  1.1447
36824SOL    HW217331   8.019   2.097  10.660 -0.9308  1.5438  0.2812
36825SOL     OW17332   4.075   2.290  10.284 -0.1109 -0.1579 -0.0270
36825SOL    HW117333   4.050   2.370  10.329  1.1442  0.3016 -0.0941
36825SOL    HW217334   4.004   2.273  10.222 -1.3375 -0.2019  1.3329
36826SOL     OW17335   1.772   3.049   2.790 -0.2266 -0.0904  0.3559
36826SOL    HW117336   1.833   3.117   2.818 -1.0777  1.1228 -0.6135
36826SOL    HW217337   1.766   2.989   2.865 -0.4472  1.6031  1.7461
36827SOL     OW17338   7.983   7.109   4.634  0.8006 -0.3663 -0.0718
36827SOL    HW117339   8.059   7.079   4.584  0.3515 -2.7131  0.5228
36827SOL    HW217340   7.989   7.062   4.717 -1.5201 -1.0053 -0.1862
36828SOL     OW17341   9.895   0.696   1.226 -0.2462  0.0054 -0.0501
36828SOL    HW117342   9.967   0.700   1.163 -0.0550 -2.2149 -0.0496
36828SOL    HW217343   9.832   0.636   1.186 -1.0869  0.2044  0.9433
36829SOL     OW17344   3.194   0.468   2.714  1.0361  0.2429  0.4423
36829SOL    HW117345   3.284   0.493   2.693  0.8421 -0.4934 -1.4915
36829SOL    HW217346   3.197   0.372   2.718 -0.1771 -0.0726 -2.8767
36830SOL     OW17347   1.383   0.364   1.723  0.4340  0.1356  0.4606
36830SOL    HW117348   1.302   0.314   1.730  1.5361 -1.6355  1.0696
36830SOL    HW217349   1.404   0.363   1.630 -1.2977  2.4734 -0.0612
36831SOL     OW17350   9.357   9.103  11.989  0.1240 -0.4442  0.4334
36831SOL    HW117351   9.370   9.158  11.911  1.9759 -0.3148  0.7688
36831SOL    HW217352   9.354   9.166  12.061  0.1462 -0.6625  0.6231
36832SOL     OW17353   4.310  10.955   3.567  0.2912  0.1293 -0.4038
36832SOL    HW117354   4.344  10.980   3.653  1.1161 -0.5301 -0.5294
36832SOL    HW217355   4.290  11.038   3.524 -0.6192  0.4549  0.6118
36833SOL     OW17356   4.736   0.084   5.008  0.7557 -0.2770 -0.1065
36833SOL    HW117357   4.651   0.124   4.990  1.1809  0.0570 -1.4481
36833SOL    HW217358   4.715  -0.006   5.033 -0.0277  0.0094  0.3114
36834SOL     OW17359   8.877  11.287   8.167  0.0890 -0.0368 -0.7768
36834SOL    HW117360   8.907  11.357   8.226  1.7781 -1.2346 -0.1301
36834SOL    HW217361   8.896  11.319   8.079 -0.8234  1.0382 -0.6025
36835SOL     OW17362   2.736   4.914   0.739  0.0152 -0.2710  0.0576
36835SOL    HW117363   2.652   4.926   0.783 -0.0828 -2.1248  0.4811
36835SOL    HW217364   2.722   4.838   0.682  1.4500 -0.7844  0.3397
36836SOL     OW17365   7.563   7.193   5.496 -0.0524  0.2927  0.7949
36836SOL    HW117366   7.582   7.251   5.569  2.5370  0.8943 -0.2298
36836SOL    HW217367   7.600   7.238   5.420  0.5251 -1.9101 -0.3043
36837SOL     OW17368   1.999   4.164   6.995  0.0559  0.1212  0.8018
36837SOL    HW117369   1.941   4.121   6.932  0.5161 -0.0340  0.4826
36837SOL    HW217370   2.038   4.237   6.946  0.9741 -0.4384  0.6826
36838SOL     OW17371   3.436  10.084   1.460  0.2342 -0.1039 -0.3782
36838SOL    HW117372   3.462  10.137   1.536  0.6106  0.4349 -0.8648
36838SOL    HW217373   3.341  10.098   1.453  0.2097 -0.0926 -0.0526
36839SOL     OW17374   7.182  11.821   4.808 -0.6219 -0.5187 -0.0669
36839SOL    HW117375   7.105  11.765   4.806 -0.1133 -1.2013 -1.5234
36839SOL    HW217376   7.174  11.876   4.730 -0.3905  0.4575  0.5850
36840SOL     OW17377  11.145   4.234   3.300 -0.4026  0.0758  0.0018
36840SOL    HW117378  11.146   4.330   3.300  0.0968  0.1467  2.7648
36840SOL    HW217379  11.235   4.209   3.278 -0.2301  0.2914  0.4481
36841SOL     OW17380   6.526   4.494   7.185 -0.5088  0.0712 -0.4757
36841SOL    HW117381   6.486   4.505   7.271  0.1719 -0.1647 -0.1167
36841SOL    HW217382   6.459   4.523   7.123 -1.4320 -0.8454  0.0634
36842SOL     OW17383   0.563   2.588   2.686 -0.2877 -0.4199 -0.1960
36842SOL    HW117384   0.553   2.597   2.591 -0.9109  1.1312 -0.0104
36842SOL    HW217385   0.657   2.579   2.700 -0.0747  0.5661 -0.8967
36843SOL     OW17386  12.294  10.288   8.121  0.7142  0.2320  0.4364
36843SOL    HW117387  12.339  10.338   8.053  0.0126  1.1732  0.6410
36843SOL    HW217388  12.201  10.308   8.108  0.4807 -0.4737  0.9655
36844SOL     OW17389   0.300   7.585   0.170 -0.4441 -0.9263  0.1386
36844SOL    HW117390   0.384   7.542   0.153 -0.6935 -1.2933 -0.1772
36844SOL    HW217391   0.239   7.544   0.108 -0.9899 -1.0885  0.7741
36845SOL     OW17392   9.183   1.678   7.501 -0.3260 -0.4173  0.3838
36845SOL    HW117393   9.153   1.734   7.430  1.7140  0.6265  0.2785
36845SOL    HW217394   9.188   1.591   7.463 -1.9718 -0.4107  0.0906
36846SOL     OW17395   1.024   5.693   9.956 -0.4673  0.8023 -0.4906
36846SOL    HW117396   0.987   5.758   9.896 -1.8956 -0.7728 -1.4065
36846SOL    HW217397   1.001   5.725  10.043 -0.7169  1.7736 -0.9019
36847SOL     OW17398   3.756   1.507  12.108  0.3541  0.0840 -0.2977
36847SOL    HW117399   3.711   1.443  12.163 -4.2293  0.7663 -2.7431
36847SOL    HW217400   3.806   1.455  12.045 -0.4251 -0.9430 -0.0901
36848SOL     OW17401   5.356   1.829   8.545  0.2199 -0.3236  0.3865
36848SOL    HW117402   5.316   1.748   8.512 -0.5506  0.2384 -0.0973
36848SOL    HW217403   5.396   1.804   8.628 -0.6593 -1.0416  0.6115
36849SOL     OW17404   1.163   6.908   3.870  0.4864  0.9707 -0.1921
36849SOL    HW117405   1.240   6.882   3.921 -0.8283 -0.3656  1.1996
36849SOL    HW217406   1.152   6.839   3.805  1.1527  1.7969 -1.2156
36850SOL     OW17407   1.908   8.084   3.041  0.3982 -0.1341  0.4211
36850SOL    HW117408   1.875   8.017   3.100  0.1891 -1.7122 -1.3672
36850SOL    HW217409   2.003   8.072   3.040  0.2121 -2.1478 -1.7170
36851SOL     OW17410   9.172   5.293   7.323 -0.2372 -0.2172 -0.2538
36851SOL    HW117411   9.234   5.365   7.338  1.5920 -2.0511  1.7908
36851SOL    HW217412   9.177   5.277   7.229 -1.0814  2.5541 -0.8711
36852SOL     OW17413   0.938   3.276   1.403  0.1356  0.5776 -0.2723
36852SOL    HW117414   1.023   3.306   1.436  1.2007 -1.2239 -1.2238
36852SOL    HW217415   0.911   3.345   1.342  0.8092  1.2702  0.1897
36853SOL     OW17416   8.728  10.039   3.501 -0.3549 -0.0376  0.3909
36853SOL    HW117417   8.747  10.098   3.574 -1.4704 -0.1107  0.7547
36853SOL    HW217418   8.640  10.064   3.472 -0.9590 -1.6772  0.7244
36854SOL     OW17419   9.899   8.218   9.273 -0.3676 -0.3628 -0.2877
36854SOL    HW117420   9.941   8.304   9.284  1.1007 -1.0775 -0.1561
36854SOL    HW217421   9.928   8.188   9.187 -1.2340 -0.5495 -0.5224
36855SOL     OW17422   6.953  11.253   4.277  0.4268  0.2025  0.1899
36855SOL    HW117423   7.010  11.321   4.314 -0.5509  0.5328  1.1352
36855SOL    HW217424   6.868  11.296   4.265  0.2998 -0.3468 -1.0012
36856SOL     OW17425   4.231   5.968   0.890 -0.7936 -0.0038 -0.5055
36856SOL    HW117426   4.248   6.053   0.850  0.9148 -0.1870 -0.2186
36856SOL    HW217427   4.233   5.906   0.817 -1.9159  0.1626 -0.6966
36857SOL     OW17428   7.621  12.398  11.807  0.0241  0.3058  0.3050
36857SOL    HW117429   7.661  12.476  11.846  1.9698  0.2803 -1.4680
36857SOL    HW217430   7.688  12.330  11.814 -1.3535 -1.0376  1.0994
36858SOL     OW17431   4.179   9.901   4.366 -0.4283 -0.4549 -0.2681
36858SOL    HW117432   4.220   9.984   4.390 -2.7618  0.7193 -0.0007
36858SOL    HW217433   4.189   9.846   4.443 -2.5279  1.1366  1.2648
36859SOL     OW17434   8.247   9.400  11.282  0.2253 -0.2605 -0.1013
36859SOL    HW117435   8.335   9.363  11.270  0.6406  0.8216 -0.5501
36859SOL    HW217436   8.257   9.492  11.258 -1.4207 -0.5009 -1.8936
36860SOL     OW17437   1.190   4.125   1.581 -0.3594  0.2357  0.0430
36860SOL    HW117438   1.240   4.117   1.662 -0.4664 -0.7223  0.0167
36860SOL    HW217439   1.253   4.156   1.516 -0.2177  0.7592  0.4189
36861SOL     OW17440   2.694   6.771   2.674  0.7015 -0.2708  0.0234
36861SOL    HW117441   2.626   6.720   2.719 -0.7625  0.0893 -1.6396
36861SOL    HW217442   2.770   6.713   2.671  0.0532 -1.1955  0.8071
36862SOL     OW17443  12.319   8.773   8.725  0.0730  0.0423  0.6354
36862SOL    HW117444  12.367   8.849   8.692 -1.3967  0.4272 -0.7159
36862SOL    HW217445  12.260   8.749   8.653  0.5716 -2.4542  0.9890
36863SOL     OW17446   0.554   4.155   6.286  0.1023 -0.0816  0.0008
36863SOL    HW117447   0.568   4.242   6.248 -1.5675  0.4559  0.5275
36863SOL    HW217448   0.560   4.095   6.212  1.3768  0.4460 -0.3552
36864SOL     OW17449   0.278  10.565  10.785  0.0571  0.1862 -0.0283
36864SOL    HW117450   0.209  10.507  10.817 -0.5366  1.2422  0.7007
36864SOL    HW217451   0.357  10.536  10.831 -0.5746  0.9952  1.6391
36865SOL     OW17452   6.948   4.159   3.964  0.6986  0.0513 -0.4394
36865SOL    HW117453   6.990   4.206   3.891 -1.6578  2.8061 -0.1856
36865SOL    HW217454   7.018   4.148   4.028  1.5268  2.9975 -0.6857
36866SOL     OW17455   5.339   1.110   5.444  0.0309  0.1224 -0.1630
36866SOL    HW117456   5.380   1.119   5.358  0.5542 -1.7869 -0.1627
36866SOL    HW217457   5.354   1.018   5.468 -0.0256  0.6306  2.0027
36867SOL     OW17458   7.915   0.162   2.563 -0.2621 -0.3951  0.7643
36867SOL    HW117459   7.978   0.146   2.493 -1.4114  0.1220 -0.4521
36867SOL    HW217460   7.835   0.189   2.517 -0.6505  1.3795  2.3285
36868SOL     OW17461  11.624   6.590   0.169  0.3025 -0.1444 -0.3246
36868SOL    HW117462  11.708   6.602   0.213  0.2873 -1.1647 -0.0037
36868SOL    HW217463  11.580   6.522   0.220 -0.8190  0.5439 -0.3513
36869SOL     OW17464   4.293   8.971   7.041 -0.3639  0.2768  0.2118
36869SOL    HW117465   4.376   9.016   7.056  0.0384 -0.0649 -0.9332
36869SOL    HW217466   4.317   8.889   6.999 -1.3316  0.5255 -0.8871
36870SOL     OW17467   1.031   1.313  11.648 -0.5665  0.1421  0.1878
36870SOL    HW117468   1.051   1.406  11.633  0.3675 -0.1058 -0.2052
36870SOL    HW217469   1.052   1.271  11.564 -1.0724 -0.4076  0.3348
36871SOL     OW17470   3.744   0.186   4.337  1.0619 -0.0693 -0.4908
36871SOL    HW117471   3.700   0.260   4.295 -1.4183  0.4864  2.7091
36871SOL    HW217472   3.813   0.226   4.390  0.2137 -0.0481  0.6397
36872SOL     OW17473  10.302   3.765   3.964  0.5744 -0.4123  0.0540
36872SOL    HW117474  10.276   3.758   4.056 -0.0824 -0.7249 -0.1433
36872SOL    HW217475  10.340   3.679   3.943 -0.1010 -0.6648 -0.1961
36873SOL     OW17476   7.565  12.084  12.131 -0.0462 -0.0186 -0.6407
36873SOL    HW117477   7.567  12.123  12.218 -0.9865  0.4501 -0.8153
36873SOL    HW217478   7.655  12.059  12.114  0.5253  1.7092 -0.3520
36874SOL     OW17479  10.008   9.421   3.698  0.2501 -0.0776 -0.2945
36874SOL    HW117480   9.935   9.463   3.654 -0.6208  1.3347  2.3022
36874SOL    HW217481  10.084   9.475   3.676 -0.0495  0.2583 -0.4986
36875SOL     OW17482   4.882   8.898   1.374  0.0547 -0.0269  0.0727
36875SOL    HW117483   4.810   8.931   1.321  0.0355  1.6134  1.0684
36875SOL    HW217484   4.951   8.963   1.364  0.1064  0.2423  1.9212
36876SOL     OW17485  12.088   8.916   1.355 -0.1654 -0.4193 -0.1978
36876SOL    HW117486  12.104   8.826   1.385  1.3952 -0.0401  0.2134
36876SOL    HW217487  12.116   8.971   1.429 -0.9762  0.4163 -0.4957
36877SOL     OW17488   7.188   5.496   6.851  0.0064  0.1545 -0.1511
36877SOL    HW117489   7.103   5.454   6.839  0.7783 -2.0934  1.5059
36877SOL    HW217490   7.167   5.588   6.870 -1.8925  0.0832 -1.5659
36878SOL     OW17491   6.254   3.082  10.705 -0.1550  0.4531  0.4985
36878SOL    HW117492   6.308   3.074  10.784  1.3481 -0.8507 -0.5902
36878SOL    HW217493   6.214   2.996  10.695 -0.3844  0.6319 -0.1372
36879SOL     OW17494   9.771   2.170   0.781 -0.2656  0.2568 -0.0463
36879SOL    HW117495   9.763   2.107   0.709  0.9624  0.4397 -0.3678
36879SOL    HW217496   9.768   2.256   0.738  0.5395  0.3672  0.1004
36880SOL     OW17497   7.313   3.592   5.593 -0.3589 -0.2320 -0.1900
36880SOL    HW117498   7.277   3.681   5.591 -0.0358 -0.0888  0.0715
36880SOL    HW217499   7.340   3.580   5.685 -0.6191 -0.6886 -0.1702
36881SOL     OW17500   0.948   6.557   6.170  0.2610  0.5603  0.1802
36881SOL    HW117501   0.946   6.612   6.091  0.5181 -0.5441 -0.6300
36881SOL    HW217502   0.870   6.502   6.162  0.2586  0.4852  0.7355
36882SOL     OW17503   1.707   2.271   6.826 -0.1714  0.2124 -0.0329
36882SOL    HW117504   1.646   2.344   6.837 -0.8258 -0.0067 -1.8532
36882SOL    HW217505   1.657   2.206   6.777  1.1326 -0.5198 -0.4361
36883SOL     OW17506   0.343   7.598   8.562  0.6295  0.0368  0.4501
36883SOL    HW117507   0.340   7.508   8.593  0.6893 -0.3996 -0.7564
36883SOL    HW217508   0.333   7.591   8.467  1.1386  1.2636  0.2857
36884SOL     OW17509   3.997   7.966   9.588  0.5344 -0.2425 -0.1840
36884SOL    HW117510   3.995   7.947   9.494  1.4869  0.4494 -0.3532
36884SOL    HW217511   3.933   7.905   9.625  0.0209 -0.4201 -1.2944
36885SOL     OW17512   1.608   6.494   5.178  0.2194 -0.0680  0.0599
36885SOL    HW117513   1.606   6.418   5.237  2.9256  0.8186  1.4650
36885SOL    HW217514   1.570   6.565   5.230 -0.0538  0.0985 -0.3613
36886SOL     OW17515   1.856   0.397   2.186  0.0449 -0.0696 -0.3828
36886SOL    HW117516   1.940   0.441   2.201 -0.0625  0.5220 -1.3619
36886SOL    HW217517   1.876   0.304   2.193  0.6371  0.0837  0.0807
36887SOL     OW17518   5.181   0.469   7.986 -0.4019 -0.3635  0.3123
36887SOL    HW117519   5.212   0.544   8.037  0.5411 -1.3655  1.2725
36887SOL    HW217520   5.128   0.418   8.047 -1.6285 -0.1410 -0.5304
36888SOL     OW17521  10.063   2.632  10.580  0.1354  0.1092 -0.2065
36888SOL    HW117522   9.980   2.627  10.627  0.5277  1.0102  0.6178
36888SOL    HW217523  10.118   2.566  10.621  0.4059  0.7466  0.4808
36889SOL     OW17524   5.716   4.102   0.627 -0.2616  0.5793  0.4447
36889SOL    HW117525   5.720   4.060   0.713  1.2115  1.1271  0.6753
36889SOL    HW217526   5.742   4.193   0.644 -0.4286  0.8162 -0.5019
36890SOL     OW17527   3.051   4.716   4.987  0.3691 -0.3296 -1.0903
36890SOL    HW117528   2.974   4.771   4.998  1.0881  0.5634 -0.4841
36890SOL    HW217529   3.048   4.689   4.895 -0.7846 -0.5060 -1.0122
36891SOL     OW17530   4.918  12.263   5.007  0.3698  0.0541 -0.4874
36891SOL    HW117531   4.895  12.202   4.938  1.4420  0.3518 -1.1387
36891SOL    HW217532   4.999  12.305   4.976  1.1336 -0.1387  1.1377
36892SOL     OW17533   0.985   7.510   8.327  0.1008 -0.1834 -0.1871
36892SOL    HW117534   0.993   7.425   8.284  0.1358  0.5310 -1.6679
36892SOL    HW217535   1.047   7.567   8.280 -1.8643  1.3331 -1.0992
36893SOL     OW17536   9.478   0.495  12.449  0.3549  0.7439 -0.8019
36893SOL    HW117537   9.396   0.508  12.401  0.1311  0.2769 -0.5473
36893SOL    HW217538   9.487   0.574  12.502 -0.4490  0.3761 -0.0789
36894SOL     OW17539   6.871   5.152   1.656 -0.2439  0.2403  0.5214
36894SOL    HW117540   6.849   5.243   1.678  2.3623  1.2149 -0.5400
36894SOL    HW217541   6.827   5.136   1.573 -0.4083  0.6434  0.5283
36895SOL     OW17542   1.716   2.180   1.545 -0.3938 -0.2350 -0.3277
36895SOL    HW117543   1.785   2.230   1.589  1.9491 -3.3660 -0.0866
36895SOL    HW217544   1.664   2.143   1.616  0.1107 -1.0049 -0.3506
36896SOL     OW17545   9.649   1.959   7.135 -0.1259 -0.0953 -0.4273
36896SOL    HW117546   9.708   1.973   7.210  0.8058 -1.3123 -0.9077
36896SOL    HW217547   9.682   1.880   7.093  0.2935  1.3372 -3.0134
36897SOL     OW17548   4.497   5.287   6.411 -0.4840 -0.0330 -0.3235
36897SOL    HW117549   4.459   5.202   6.433  0.9305 -0.7176 -0.3996
36897SOL    HW217550   4.553   5.308   6.486  0.3066  0.1205 -0.9477
36898SOL     OW17551   5.375   1.616   8.140 -0.0893  0.4373  0.4541
36898SOL    HW117552   5.347   1.561   8.214 -1.3970  2.4487  1.5605
36898SOL    HW217553   5.323   1.696   8.149 -1.2144  0.3259 -3.3913
36899SOL     OW17554   6.158   5.607   1.291 -0.0015 -0.7207 -0.3356
36899SOL    HW117555   6.150   5.518   1.323  1.0342 -1.1228 -1.1315
36899SOL    HW217556   6.077   5.623   1.242 -0.1640 -1.2420 -0.2346
36900SOL     OW17557   8.303   8.544   3.992  0.1606  0.2411  0.4531
36900SOL    HW117558   8.212   8.541   4.022  0.3321  2.5753  1.3812
36900SOL    HW217559   8.299   8.594   3.910  0.5010 -0.6087 -0.0980
36901SOL     OW17560   5.711   7.873   1.303 -0.0372  0.5458  0.0301
36901SOL    HW117561   5.623   7.884   1.269  0.5306  1.4819 -1.2263
36901SOL    HW217562   5.768   7.912   1.237  1.2068  1.4966  1.5610
36902SOL     OW17563   0.546   8.652   6.939  0.3614  0.1338  0.1164
36902SOL    HW117564   0.499   8.571   6.960 -0.5149  0.3525 -0.9005
36902SOL    HW217565   0.609   8.627   6.871 -0.6585  0.4815 -0.9966
36903SOL     OW17566   7.004   6.519   7.134  0.4057 -0.0429 -0.3832
36903SOL    HW117567   6.957   6.525   7.051  1.4006  2.8331 -0.8763
36903SOL    HW217568   7.078   6.461   7.116  0.0670 -0.2281 -1.2279
36904SOL     OW17569   6.365  12.068   2.889  0.4405 -0.0333  0.5771
36904SOL    HW117570   6.310  12.027   2.822  0.5539  0.6697  0.0391
36904SOL    HW217571   6.410  11.995   2.932 -0.7147 -0.5949  0.8559
36905SOL     OW17572   7.553   0.642   4.016 -0.3213 -0.0941 -0.7864
36905SOL    HW117573   7.538   0.733   3.989 -4.3518 -1.1394 -2.8096
36905SOL    HW217574   7.624   0.612   3.959 -0.7567  1.0791 -2.0000
36906SOL     OW17575  10.891   7.248   1.187  0.2268  0.1067  0.2063
36906SOL    HW117576  10.961   7.195   1.225 -0.2026 -0.6067  0.0242
36906SOL    HW217577  10.828   7.184   1.154  0.4833  0.6969 -1.5421
36907SOL     OW17578   0.311   4.633  10.699 -0.4104  0.0611  0.3199
36907SOL    HW117579   0.340   4.583  10.623 -0.9100 -1.9445  1.3799
36907SOL    HW217580   0.303   4.568  10.769 -1.7315  1.5244  1.6036
36908SOL     OW17581   4.999   5.456  11.697  0.8560  0.2425 -0.3413
36908SOL    HW117582   4.916   5.438  11.653  1.3707 -1.1829 -0.7974
36908SOL    HW217583   5.032   5.369  11.721  1.1341  0.9107  1.9051
36909SOL     OW17584   4.729   2.757   0.473 -0.3716 -0.3886  0.4713
36909SOL    HW117585   4.677   2.678   0.457  0.5849 -0.6442 -1.7007
36909SOL    HW217586   4.808   2.725   0.517 -0.3661 -0.5355  0.3572
36910SOL     OW17587   9.277  10.310   2.247 -0.1047 -0.4429 -0.1987
36910SOL    HW117588   9.296  10.216   2.248  0.7235 -0.2809 -0.1519
36910SOL    HW217589   9.347  10.349   2.299 -0.9892  0.1096  0.6003
36911SOL     OW17590   2.277   5.988   3.940  0.2844  0.0961 -0.0227
36911SOL    HW117591   2.306   6.027   4.023 -0.6959 -0.0639  0.4014
36911SOL    HW217592   2.182   5.981   3.948  0.2918 -0.9794 -0.7099
36912SOL     OW17593   4.943   8.584   5.995 -0.7589 -0.4643  0.5231
36912SOL    HW117594   4.876   8.544   6.052 -1.7656  0.7212  0.2097
36912SOL    HW217595   4.893   8.636   5.932  0.3848 -0.9767 -0.8619
36913SOL     OW17596   4.911   9.762  11.900  0.0548 -0.5565  0.2026
36913SOL    HW117597   4.981   9.709  11.940  0.6381 -0.1491 -0.2611
36913SOL    HW217598   4.956   9.839  11.866 -0.5616 -0.4861 -0.4749
36914SOL     OW17599   5.260   7.544   6.500  0.2271 -0.5546  0.1875
36914SOL    HW117600   5.304   7.558   6.584  0.9462  0.0899 -0.2875
36914SOL    HW217601   5.252   7.631   6.462  1.9361 -1.0577 -1.4247
36915SOL     OW17602   8.614   8.187   7.130 -0.1888 -0.1118 -0.5123
36915SOL    HW117603   8.527   8.220   7.106  0.0036  1.4427  0.7021
36915SOL    HW217604   8.644   8.138   7.054 -1.2802  1.0892 -1.7645
36916SOL     OW17605   2.775   9.984   0.384 -0.0157  0.4979 -0.0417
36916SOL    HW117606   2.854   9.972   0.437  1.0471  0.5713 -1.5384
36916SOL    HW217607   2.720  10.042   0.436  1.3156  1.1920  0.6517
36917SOL     OW17608   6.865   4.385   6.045  0.3521 -0.4255  0.0380
36917SOL    HW117609   6.849   4.474   6.014  0.6102  0.2774  1.8239
36917SOL    HW217610   6.923   4.347   5.979 -0.5272  0.3949 -1.2395
36918SOL     OW17611   9.400   0.646  11.934 -0.3782  0.6552 -0.2436
36918SOL    HW117612   9.349   0.694  11.999 -0.1897 -0.6441  0.9091
36918SOL    HW217613   9.404   0.705  11.858 -1.7306  1.6596  0.4254
36919SOL     OW17614   8.783   3.131  11.084 -0.0160  0.2580 -0.3377
36919SOL    HW117615   8.728   3.104  11.010 -0.6422  0.0657  0.1914
36919SOL    HW217616   8.739   3.209  11.119  0.9116  1.0450 -0.8712
36920SOL     OW17617   3.926   9.160   7.168 -0.2033 -0.9176  0.3853
36920SOL    HW117618   3.950   9.068   7.176  0.6920 -0.6078  1.4021
36920SOL    HW217619   4.007   9.208   7.183 -0.1570  0.0205 -2.2731
36921SOL     OW17620   9.530   9.272   7.291  0.3443 -0.5486 -0.5715
36921SOL    HW117621   9.442   9.262   7.254 -0.0467 -0.2386  0.2409
36921SOL    HW217622   9.521   9.242   7.382  0.3979  1.9910  0.3558
36922SOL     OW17623   2.545   0.120  10.339  0.5217 -0.0063 -0.3223
36922SOL    HW117624   2.469   0.126  10.281  1.0254 -0.4123 -1.0366
36922SOL    HW217625   2.618   0.153  10.288  0.7714  0.7629  0.4989
36923SOL     OW17626   8.176   4.201   1.767 -0.1038 -0.3211 -0.7892
36923SOL    HW117627   8.138   4.288   1.755 -0.3160 -0.0453  1.4217
36923SOL    HW217628   8.264   4.208   1.731  0.0369  0.9669 -0.2404
36924SOL     OW17629   3.714   7.845   5.332 -0.1500 -0.2431 -0.0606
36924SOL    HW117630   3.669   7.880   5.255  0.5693 -0.2730 -0.5023
36924SOL    HW217631   3.807   7.856   5.312  0.0684 -1.4078  0.2593
36925SOL     OW17632   1.884   0.555  10.645  0.6477  0.0169  0.3001
36925SOL    HW117633   1.867   0.504  10.566  1.5745 -0.4307  0.3716
36925SOL    HW217634   1.800   0.595  10.667  0.0592 -0.9529 -0.1337
36926SOL     OW17635   4.849   8.589  12.001  0.3660  0.0855 -0.8316
36926SOL    HW117636   4.781   8.577  12.067  1.5322 -1.4656  0.1711
36926SOL    HW217637   4.923   8.626  12.049  0.6204  0.6711 -1.6583
36927SOL     OW17638  10.703   3.236   9.651 -0.5349 -0.1708  0.0089
36927SOL    HW117639  10.683   3.193   9.735  0.4013  1.5558  1.1810
36927SOL    HW217640  10.794   3.215   9.634  0.1931  1.8750  1.0195
36928SOL     OW17641  11.280  11.590  11.564 -0.0511  0.5158 -0.0723
36928SOL    HW117642  11.337  11.514  11.574 -0.7158 -0.4447 -2.7895
36928SOL    HW217643  11.210  11.560  11.506 -1.7011  2.5266  0.7285
36929SOL     OW17644   4.771  11.214   1.643 -0.4391 -0.5293 -0.2689
36929SOL    HW117645   4.787  11.210   1.548  1.4402  2.1958 -0.2066
36929SOL    HW217646   4.859  11.218   1.681 -1.1831 -0.5227  1.5160
36930SOL     OW17647   4.893   0.917   8.979  1.1134 -0.1402  1.4358
36930SOL    HW117648   4.865   0.837   9.024 -1.3413  0.8653  1.8781
36930SOL    HW217649   4.811   0.966   8.965  2.0479  0.6093 -2.2096
36931SOL     OW17650   4.960   9.785   6.579 -0.3456 -0.4859  0.3334
36931SOL    HW117651   4.876   9.827   6.561  0.8919  1.6757 -0.7805
36931SOL    HW217652   5.004   9.781   6.493  0.7767 -1.3815  0.9202
36932SOL     OW17653   3.263   0.127   9.089 -0.5025  0.3128 -0.0991
36932SOL    HW117654   3.352   0.160   9.088 -0.3188 -0.1152  0.9402
36932SOL    HW217655   3.218   0.177   9.020  0.4295  0.7945 -0.3762
36933SOL     OW17656   5.109  10.398   8.514 -0.4783  0.0681  0.1978
36933SOL    HW117657   5.188  10.386   8.462  0.9410 -0.1749  2.2824
36933SOL    HW217658   5.068  10.312   8.517 -1.6498  0.4767 -2.0269
36934SOL     OW17659  10.555   4.996   9.115  0.0537 -0.1860  0.8901
36934SOL    HW117660  10.476   5.033   9.154 -1.6877 -2.0835 -0.5714
36934SOL    HW217661  10.548   5.018   9.022 -0.0056 -2.3140  0.3412
36935SOL     OW17662   6.423   2.107   5.440  0.0614  0.2167  0.3071
36935SOL    HW117663   6.375   2.041   5.489  0.6620  0.4529  1.2414
36935SOL    HW217664   6.476   2.152   5.505  0.9325  0.5069 -0.5730
36936SOL     OW17665  10.638   6.594   9.341  0.5059 -0.7166 -0.0340
36936SOL    HW117666  10.620   6.533   9.412 -0.7486 -0.8277 -0.4163
36936SOL    HW217667  10.591   6.557   9.266 -2.6295  2.0560  0.3523
36937SOL     OW17668   5.376  12.297  10.254  0.4598 -0.2011 -0.2510
36937SOL    HW117669   5.339  12.228  10.199  0.4643 -0.2057 -0.2474
36937SOL    HW217670   5.437  12.251  10.312 -0.7732 -0.4351  0.9008
36938SOL     OW17671  11.358   2.674   6.562 -0.1080  0.1554  0.3165
36938SOL    HW117672  11.446   2.639   6.550 -0.0149  0.3279  0.4853
36938SOL    HW217673  11.320   2.673   6.474  0.5975  1.4851 -0.0324
36939SOL     OW17674   7.948   8.008  12.192  0.3718 -0.0719  0.1031
36939SOL    HW117675   7.884   7.945  12.224 -0.9626  0.1238 -1.9623
36939SOL    HW217676   7.943   8.082  12.252 -1.8765  0.2136 -0.3527
36940SOL     OW17677   0.826   7.903  12.120  0.5600 -0.0769 -0.2749
36940SOL    HW117678   0.792   7.833  12.064 -0.0153  0.9462 -1.2348
36940SOL    HW217679   0.919   7.908  12.098  0.0548  1.3738 -2.3869
36941SOL     OW17680   9.346   5.299   6.380  0.3759 -0.3899  0.0774
36941SOL    HW117681   9.392   5.352   6.444  0.1349  1.1466 -0.9629
36941SOL    HW217682   9.350   5.210   6.414  2.3569  0.0149  0.9947
36942SOL     OW17683  11.614   1.858   8.775 -0.4309  0.2490  1.6129
36942SOL    HW117684  11.555   1.909   8.831 -1.7988 -1.7488  2.1099
36942SOL    HW217685  11.593   1.767   8.795 -0.4233 -0.5724 -1.6160
36943SOL     OW17686   4.211   9.814  10.724  0.3110 -0.0095  0.0770
36943SOL    HW117687   4.131   9.793  10.675  0.4629  0.1341 -0.2300
36943SOL    HW217688   4.180   9.867  10.797 -0.0788 -1.2600  0.8492
36944SOL     OW17689   1.789   6.057   7.727 -0.4071  0.5237 -0.1106
36944SOL    HW117690   1.761   6.138   7.768  1.7742  0.7891  1.0019
36944SOL    HW217691   1.862   6.082   7.671 -1.5998 -0.2692 -2.1397
36945SOL     OW17692   9.518  11.308   0.612 -0.2836 -0.3227  0.0358
36945SOL    HW117693   9.423  11.320   0.612 -0.3805 -1.0975  0.2899
36945SOL    HW217694   9.531  11.220   0.578  0.2891 -0.6823  1.1639
36946SOL     OW17695   0.958   2.473   0.890  0.0932 -0.2430 -0.0648
36946SOL    HW117696   1.037   2.422   0.869 -0.7747 -2.6026  2.0007
36946SOL    HW217697   0.923   2.499   0.805  2.6545  0.2695 -1.0613
36947SOL     OW17698  11.102   7.591   8.745 -0.0484 -0.1312  0.6033
36947SOL    HW117699  11.137   7.662   8.691 -0.8482 -1.4507 -1.8446
36947SOL    HW217700  11.178   7.538   8.767 -0.0007 -1.6610 -2.6242
36948SOL     OW17701   6.996   7.651  10.436  0.0061  0.1006 -0.4639
36948SOL    HW117702   7.085   7.649  10.473 -0.4837  2.5197  1.0881
36948SOL    HW217703   6.939   7.647  10.513 -1.1737  0.8841 -1.2782
36949SOL     OW17704   0.997   9.564   4.490 -0.2088 -0.5632 -0.1225
36949SOL    HW117705   0.996   9.635   4.554 -0.2536  0.0807 -0.8201
36949SOL    HW217706   0.907   9.533   4.488 -0.1436 -0.7878  0.3447
36950SOL     OW17707   0.108   3.750   0.050 -0.4828 -0.0053  0.4965
36950SOL    HW117708   0.108   3.680   0.115  0.3882 -0.4664  0.0215
36950SOL    HW217709   0.150   3.824   0.095  1.0284 -0.6295  0.1845
36951SOL     OW17710   5.062   5.636   6.506  0.4401  0.5469 -0.4227
36951SOL    HW117711   5.015   5.719   6.513 -0.9477 -0.1131 -1.3662
36951SOL    HW217712   5.089   5.615   6.595  0.0199  1.5732 -0.0434
36952SOL     OW17713   7.744   0.448   5.369 -0.1086  0.4407  0.2079
36952SOL    HW117714   7.679   0.508   5.405  1.5624  2.3171  0.2570
36952SOL    HW217715   7.821   0.502   5.353  1.5179 -1.7037  0.2629
36953SOL     OW17716   5.762   0.159   4.544  0.1922 -0.8572  0.0338
36953SOL    HW117717   5.708   0.214   4.600 -1.3676 -1.7962 -0.4983
36953SOL    HW217718   5.703   0.131   4.474  1.1627 -2.5457 -0.1503
36954SOL     OW17719   2.509   2.351   2.922 -0.6667  0.6034  0.0635
36954SOL    HW117720   2.552   2.429   2.960  1.4401 -0.4785  0.0652
36954SOL    HW217721   2.578   2.285   2.920 -2.7089 -1.7419  1.3366
36955SOL     OW17722   5.578   2.326   3.790  0.0395  0.2267 -0.4113
36955SOL    HW117723   5.621   2.314   3.875 -2.0533  0.5694  0.7561
36955SOL    HW217724   5.546   2.238   3.767 -3.0682  0.7784  1.3019
36956SOL     OW17725   9.743   5.321  12.453 -0.1602  0.0153  0.4445
36956SOL    HW117726   9.697   5.244  12.484 -0.0560 -0.3265 -0.2437
36956SOL    HW217727   9.802   5.344  12.525 -1.9558  0.9667  1.7154
36957SOL     OW17728   3.388   8.907   6.277 -0.6128 -0.5375  0.0842
36957SOL    HW117729   3.469   8.928   6.230 -0.7664  1.1334  0.5295
36957SOL    HW217730   3.346   8.840   6.222  0.5032 -0.5914 -0.7463
36958SOL     OW17731   5.855   8.763   2.278 -1.0088  0.6881  0.1420
36958SOL    HW117732   5.858   8.669   2.262 -0.2726  0.5278  1.1307
36958SOL    HW217733   5.778   8.793   2.230 -1.3085 -0.4309 -0.1064
36959SOL     OW17734   1.027   5.033   5.046 -0.3659  0.4051 -0.0238
36959SOL    HW117735   1.085   4.958   5.043  1.2021  1.4812  1.3097
36959SOL    HW217736   0.992   5.033   5.136 -1.5763  0.4037 -0.4766
36960SOL     OW17737   8.393   1.655   6.412  0.0499 -0.0185 -0.6161
36960SOL    HW117738   8.338   1.718   6.364 -0.8399  0.2035  0.6529
36960SOL    HW217739   8.391   1.686   6.502  4.5784  1.6712 -0.8679
36961SOL     OW17740   8.929   2.427   6.787  0.4109  0.3303  0.0004
36961SOL    HW117741   8.874   2.478   6.727 -0.5160 -1.0953 -0.4197
36961SOL    HW217742   8.868   2.393   6.852  0.6639 -1.6860 -0.7564
36962SOL     OW17743  10.441  10.108  10.127 -0.3761  0.0044 -0.3165
36962SOL    HW117744  10.446  10.014  10.110  2.0425  0.2364 -1.1568
36962SOL    HW217745  10.518  10.145  10.084 -0.0716  2.1108  1.8207
36963SOL     OW17746   1.325   9.930   4.467  0.2394 -0.8509  0.2339
36963SOL    HW117747   1.267   9.876   4.414 -0.1759  0.6712 -0.9237
36963SOL    HW217748   1.291  10.019   4.458  1.2689 -0.2827  1.5650
36964SOL     OW17749   2.323  10.434   1.802  0.1688  0.3194  0.0006
36964SOL    HW117750   2.419  10.436   1.807  0.4309  1.3096 -3.0825
36964SOL    HW217751   2.299  10.520   1.766 -1.6134 -0.7639 -1.6021
36965SOL     OW17752   5.370   2.520   3.128  0.7299  0.5765  0.1332
36965SOL    HW117753   5.363   2.582   3.055  3.1946  0.8999  0.1008
36965SOL    HW217754   5.410   2.442   3.089  0.9829  0.3071  0.9140
36966SOL     OW17755   6.494   3.357   7.659 -0.4894 -0.2610 -0.1082
36966SOL    HW117756   6.546   3.310   7.724 -0.3906  0.1984  0.1512
36966SOL    HW217757   6.547   3.354   7.580 -1.4308 -2.4709 -0.7432
36967SOL     OW17758   4.120   4.518   4.134 -0.5249  0.3359  0.2599
36967SOL    HW117759   4.091   4.465   4.061 -0.9054 -0.9364  1.2965
36967SOL    HW217760   4.088   4.606   4.114  0.5853  0.3251 -1.7405
36968SOL     OW17761   4.125   6.060  12.025  0.0127  0.2029  0.1031
36968SOL    HW117762   4.072   5.987  11.995 -0.8982  0.0597  1.8889
36968SOL    HW217763   4.062   6.122  12.062  0.8391  1.5113 -0.5958
36969SOL     OW17764   0.723   4.108   4.048  0.6192 -0.5237 -0.2274
36969SOL    HW117765   0.776   4.187   4.042 -0.6673  0.4163  0.1441
36969SOL    HW217766   0.705   4.099   4.142 -1.3293  0.2406 -0.4727
36970SOL     OW17767   4.910   9.148  10.405  0.0224  0.3437 -0.0312
36970SOL    HW117768   4.928   9.240  10.386 -2.8338  0.8759 -0.5638
36970SOL    HW217769   4.848   9.151  10.478  0.9144 -1.2492  0.8369
36971SOL     OW17770   8.956   6.649   0.936 -0.3483  0.0924 -0.0204
36971SOL    HW117771   8.885   6.646   0.872 -0.6646  0.8204  0.2940
36971SOL    HW217772   9.006   6.568   0.919 -0.9057 -0.1384 -0.6234
36972SOL     OW17773   5.889   6.842   4.820  0.0097  0.0033 -0.1742
36972SOL    HW117774   5.853   6.896   4.891 -2.8248 -1.9310  0.0001
36972SOL    HW217775   5.867   6.890   4.740 -1.2049 -0.1788  0.0397
36973SOL     OW17776  10.317  10.650   4.419  0.4159 -0.1566 -0.1129
36973SOL    HW117777  10.326  10.693   4.504 -2.3739 -0.8948  0.6361
36973SOL    HW217778  10.335  10.558   4.436  0.3074 -0.2401 -0.4284
36974SOL     OW17779   9.859   0.463   2.826 -0.1156  0.1752 -0.2097
36974SOL    HW117780   9.860   0.535   2.890  2.1551 -0.0879  0.1215
36974SOL    HW217781   9.872   0.506   2.741  1.6241  0.1748  0.0262
36975SOL     OW17782   2.213   7.979   1.962  0.2249 -0.0080  0.3853
36975SOL    HW117783   2.271   8.015   2.029 -0.4919  0.4837  0.7542
36975SOL    HW217784   2.230   8.032   1.884  0.3826  0.0353  0.4503
36976SOL     OW17785   7.563   9.578   9.292  0.3767 -0.1639 -0.1157
36976SOL    HW117786   7.486   9.531   9.323 -0.6377 -0.0008 -2.1800
36976SOL    HW217787   7.564   9.658   9.344 -0.7157 -0.2822  0.1265
36977SOL     OW17788   0.526   2.292   1.235  0.2723 -0.6051  0.0989
36977SOL    HW117789   0.478   2.238   1.171  0.5135 -2.0280  1.0576
36977SOL    HW217790   0.598   2.330   1.186 -0.1776 -0.7875 -0.7157
36978SOL     OW17791   4.774  12.274   5.306 -0.0377  0.1371 -0.4300
36978SOL    HW117792   4.862  12.242   5.324 -0.2806  0.4035  1.3945
36978SOL    HW217793   4.776  12.296   5.212  2.2623  1.4032 -0.1798
36979SOL     OW17794   4.038   2.948   1.446  0.2738 -0.1461 -0.0637
36979SOL    HW117795   3.969   3.009   1.421  1.1996  0.6642 -0.6907
36979SOL    HW217796   4.119   2.998   1.437  0.9874 -1.2314  0.1619
36980SOL     OW17797   5.181   0.863   2.896 -0.2916  0.2563  0.5272
36980SOL    HW117798   5.203   0.870   2.803 -0.5755  0.9175  0.5018
36980SOL    HW217799   5.245   0.803   2.932 -0.4415 -0.3373 -0.1848
36981SOL     OW17800   8.850   6.118   2.519 -0.6011 -0.1086  0.1280
36981SOL    HW117801   8.862   6.078   2.433  0.0324 -1.4607  0.8152
36981SOL    HW217802   8.938   6.128   2.554 -0.8649  0.1824  0.7267
36982SOL     OW17803   1.663   6.618   7.967  0.0593  0.9799  0.0970
36982SOL    HW117804   1.657   6.678   7.892  0.7357  2.4646  1.1645
36982SOL    HW217805   1.577   6.626   8.010 -0.4322 -0.0923 -0.6487
36983SOL     OW17806   5.669   4.386  11.515  0.2753  0.2275 -0.3321
36983SOL    HW117807   5.755   4.417  11.485 -0.6050  0.6785 -2.6588
36983SOL    HW217808   5.608   4.420  11.449 -1.5317 -1.1560  0.5542
36984SOL     OW17809   7.865   7.292   5.370 -0.7582 -0.3357 -0.4733
36984SOL    HW117810   7.776   7.324   5.355 -1.0271 -0.6084  0.4868
36984SOL    HW217811   7.866   7.265   5.462  0.0492 -1.2001 -0.7205
36985SOL     OW17812  10.055   3.465   5.870  0.2690  0.0941  0.0377
36985SOL    HW117813  10.021   3.376   5.862  1.2342 -0.2758 -0.1117
36985SOL    HW217814  10.006   3.503   5.943 -0.0570 -0.6129  0.1937
36986SOL     OW17815   0.635   5.870   7.698 -1.0492 -0.0877 -0.2629
36986SOL    HW117816   0.679   5.911   7.772 -1.3632  1.4456 -0.8803
36986SOL    HW217817   0.591   5.793   7.735 -0.6902  0.2996  1.0097
36987SOL     OW17818   6.363   5.445   7.826  0.7505 -0.1073 -0.0490
36987SOL    HW117819   6.347   5.382   7.896  0.3220 -1.3829 -1.2607
36987SOL    HW217820   6.280   5.489   7.813  1.0443  0.7255  0.7825
36988SOL     OW17821   6.666  12.434   1.721 -0.6159 -0.2932 -0.0064
36988SOL    HW117822   6.576  12.454   1.746 -0.6254  0.0570 -0.3153
36988SOL    HW217823   6.663  12.342   1.692 -0.9108 -0.2306 -0.1791
36989SOL     OW17824  10.527   5.702   2.857 -0.2842 -0.5683  0.3427
36989SOL    HW117825  10.545   5.736   2.944 -0.7372  0.5349  0.0217
36989SOL    HW217826  10.500   5.611   2.871 -1.9136  0.0501  1.5273
36990SOL     OW17827   3.703   9.370   8.488 -0.1012  0.0708 -0.2488
36990SOL    HW117828   3.607   9.365   8.490 -0.0629 -0.8558  0.1298
36990SOL    HW217829   3.722   9.456   8.452 -1.0865  1.1631  1.6643
36991SOL     OW17830   0.508  11.775   0.765 -0.3674  0.2683  0.0252
36991SOL    HW117831   0.459  11.769   0.683 -0.7432 -0.6492  0.3014
36991SOL    HW217832   0.500  11.867   0.791 -1.7307  0.2057 -0.0780
36992SOL     OW17833   2.981  11.340   5.896  0.2017 -0.3832  0.1875
36992SOL    HW117834   3.035  11.328   5.817 -0.2619 -0.4808 -0.1161
36992SOL    HW217835   2.892  11.318   5.868  0.1929 -1.4719  1.0177
36993SOL     OW17836   1.660   4.657   2.602 -0.0371 -0.6965 -0.2622
36993SOL    HW117837   1.718   4.725   2.636  1.5470 -2.5081  0.9424
36993SOL    HW217838   1.589   4.704   2.559  0.6747  1.6947  0.9930
36994SOL     OW17839   7.768  11.018  11.507 -0.0827  0.1690  0.2269
36994SOL    HW117840   7.822  10.966  11.567 -0.0853 -0.7272 -0.5145
36994SOL    HW217841   7.683  11.024  11.551  0.4859  1.2941  1.2442
36995SOL     OW17842   3.692   8.758  10.946 -0.1727 -0.1151  0.0358
36995SOL    HW117843   3.634   8.792  11.014  0.8064 -0.3347  1.0087
36995SOL    HW217844   3.773   8.810  10.955  0.3292 -0.8194 -0.2911
36996SOL     OW17845  10.641   6.888   5.183  0.3234 -0.3733  0.4585
36996SOL    HW117846  10.594   6.963   5.146  0.6443 -0.3800  0.0381
36996SOL    HW217847  10.581   6.814   5.171  0.6488 -0.4907 -0.5849
36997SOL     OW17848   6.846  10.051   2.197  0.0005 -0.2082  0.1687
36997SOL    HW117849   6.807  10.119   2.141 -0.9965 -0.2528  0.7881
36997SOL    HW217850   6.940  10.063   2.186 -0.1665  0.6915 -0.4406
36998SOL     OW17851   4.829   9.973   5.348  0.2085 -0.0523  0.1133
36998SOL    HW117852   4.795  10.048   5.299 -2.7711 -0.8603  0.7434
36998SOL    HW217853   4.889   9.929   5.288 -0.3774  1.1131 -1.3734
36999SOL     OW17854   3.359  12.381   7.666 -0.0468  0.0740  0.1503
36999SOL    HW117855   3.358  12.416   7.577 -1.0118  2.9729  1.1774
36999SOL    HW217856   3.449  12.393   7.696 -0.0542  0.4934  0.0186
37000SOL     OW17857   4.671   9.649  10.562 -0.0507  0.0931  0.0381
37000SOL    HW117858   4.579   9.633  10.584  0.0802  0.5206  0.9470
37000SOL    HW217859   4.679   9.745  10.563 -0.0387  0.1406 -1.9499
37001SOL     OW17860   6.939   9.735   6.824 -0.1406 -0.7044 -0.4357
37001SOL    HW117861   7.024   9.694   6.843 -0.3414 -0.2994  1.5555
37001SOL    HW217862   6.956   9.829   6.832 -0.2924 -0.4703 -2.3357
37002SOL     OW17863   3.580   9.580   4.221 -0.2043  0.1289 -0.2989
37002SOL    HW117864   3.530   9.659   4.203  0.3221  0.4585 -0.3386
37002SOL    HW217865   3.668   9.599   4.188  0.1908 -0.1001  0.5840
37003SOL     OW17866   8.134  11.204   9.657  0.2546 -0.1273  0.8604
37003SOL    HW117867   8.131  11.299   9.647 -0.7299 -0.3125 -1.1605
37003SOL    HW217868   8.223  11.186   9.687  1.3924  1.2712 -1.4292
37004SOL     OW17869   3.117   6.533   2.921 -0.2716 -0.6408 -0.5648
37004SOL    HW117870   3.029   6.569   2.915 -0.1124 -0.0236  0.5188
37004SOL    HW217871   3.128   6.512   3.013  0.1506 -2.2142 -0.9467
37005SOL     OW17872   1.854   1.201   9.774  0.5503 -0.1922  0.3310
37005SOL    HW117873   1.827   1.250   9.851 -1.4071 -2.0724  0.9331
37005SOL    HW217874   1.946   1.179   9.791  0.1552 -0.6088  2.1892
37006SOL     OW17875   8.870   9.801   5.943  0.5849  0.1318  0.3222
37006SOL    HW117876   8.938   9.846   5.892  0.4172 -0.2739 -0.2637
37006SOL    HW217877   8.917   9.733   5.992  0.4717 -0.8390 -0.8849
37007SOL     OW17878   4.447   7.394   1.271  0.1202  0.1961  0.1981
37007SOL    HW117879   4.438   7.365   1.362  0.7684  1.7467  0.7982
37007SOL    HW217880   4.447   7.489   1.277 -0.5339  0.3278 -1.5188
37008SOL     OW17881   9.013  11.661  12.551 -0.1946  0.1627 -0.6237
37008SOL    HW117882   9.067  11.730  12.589 -1.4004  0.2454  1.0355
37008SOL    HW217883   8.959  11.706  12.486 -0.3434  0.6049 -0.1959
37009SOL     OW17884   6.704   5.532  10.424 -0.0835 -0.1699  0.3474
37009SOL    HW117885   6.638   5.486  10.476 -2.1188  1.2044 -0.9029
37009SOL    HW217886   6.710   5.619  10.464 -0.0450  0.1644 -0.3732
37010SOL     OW17887  10.552   5.377   9.005  0.1973  0.1413 -0.7584
37010SOL    HW117888  10.459   5.379   8.986  0.2749 -0.7031 -1.2634
37010SOL    HW217889  10.594   5.418   8.929  0.2414  0.5887 -0.4993
37011SOL     OW17890   3.982   7.147   5.712  0.3133 -0.2542  0.1260
37011SOL    HW117891   3.989   7.222   5.771  0.1637 -0.4754  0.4324
37011SOL    HW217892   3.898   7.158   5.669 -0.6903 -1.3186  1.7037
37012SOL     OW17893   3.184  12.492   6.951 -0.7550 -0.1853  0.2872
37012SOL    HW117894   3.216  12.580   6.931  0.5656 -0.8996 -0.9919
37012SOL    HW217895   3.249  12.434   6.911 -0.3627 -1.7715  3.0007
37013SOL     OW17896   6.474   2.843  11.148 -0.1664  0.2443 -0.0790
37013SOL    HW117897   6.551   2.790  11.124 -0.6919 -0.9941  0.8691
37013SOL    HW217898   6.404   2.810  11.091 -0.8784 -1.2017  1.5495
37014SOL     OW17899   4.412   6.161  11.466  0.5422 -0.2331  0.3289
37014SOL    HW117900   4.504   6.187  11.479  0.7917 -1.1743  0.5145
37014SOL    HW217901   4.382   6.136  11.553  0.8578 -2.2304 -0.0818
37015SOL     OW17902   0.932   5.413   8.102  0.3034 -0.0738 -0.3519
37015SOL    HW117903   0.988   5.356   8.051 -0.0968  0.7706 -1.7924
37015SOL    HW217904   0.990   5.482   8.134  0.4976 -0.4477  0.1260
37016SOL     OW17905   1.002   9.041   7.272 -0.6993 -0.0806  0.1569
37016SOL    HW117906   1.090   9.014   7.300 -0.1472  1.4728 -0.0241
37016SOL    HW217907   0.979   8.978   7.203  0.8221  0.2514 -0.7111
37017SOL     OW17908   7.528   3.183   5.513  0.2921 -0.2798 -0.4447
37017SOL    HW117909   7.561   3.273   5.508  1.1640 -0.4634  1.3416
37017SOL    HW217910   7.487   3.168   5.428  0.3992  1.7001 -0.8928
37018SOL     OW17911  11.640   0.505  10.091  0.0008 -0.0097  0.0868
37018SOL    HW117912  11.571   0.509  10.025 -0.5357 -0.0338  0.6347
37018SOL    HW217913  11.596   0.473  10.170  0.6713 -0.1694  0.4032
37019SOL     OW17914  10.924   5.649   3.140  0.1387 -0.9139  0.5051
37019SOL    HW117915  10.999   5.661   3.082 -0.2246 -0.2058  0.1755
37019SOL    HW217916  10.879   5.572   3.105 -0.2167 -0.3491 -0.3168
37020SOL     OW17917   0.335   4.699   6.679  0.7422  0.4608  0.0513
37020SOL    HW117918   0.277   4.651   6.619 -0.2872  1.3554  0.2984
37020SOL    HW217919   0.275   4.742   6.740  1.7592 -0.2045  1.5695
37021SOL     OW17920   8.189   4.902   5.819 -0.0919  0.1818  0.6521
37021SOL    HW117921   8.101   4.891   5.857  0.3642  1.7053  2.2914
37021SOL    HW217922   8.174   4.913   5.726 -1.4057 -2.2055  0.4865
37022SOL     OW17923   4.549   1.466   4.099 -0.0960 -0.4504 -0.0957
37022SOL    HW117924   4.585   1.517   4.026  1.8577 -1.1638  0.2954
37022SOL    HW217925   4.519   1.385   4.059  2.5056 -1.5681 -0.0013
37023SOL     OW17926   0.427   2.929   8.462 -0.1614  0.2145  0.0170
37023SOL    HW117927   0.454   2.913   8.553  0.2075 -1.6627 -0.3760
37023SOL    HW217928   0.343   2.884   8.454  0.1107 -0.1723 -0.7329
37024SOL     OW17929   6.896   2.613   8.776  0.0287 -0.1694  0.5171
37024SOL    HW117930   6.939   2.528   8.763  2.7888  1.0243  1.0736
37024SOL    HW217931   6.870   2.640   8.689  1.2932 -0.5682 -0.0192
37025SOL     OW17932   5.925  10.107   9.990 -0.2619 -0.2355 -0.2122
37025SOL    HW117933   5.985  10.107  10.064  0.1097 -0.2956 -0.5104
37025SOL    HW217934   5.910  10.014   9.971 -1.0406 -0.2353  0.3281
37026SOL     OW17935  10.423   9.096   1.556 -0.7740 -0.5633 -0.6727
37026SOL    HW117936  10.379   9.050   1.627  2.3528  0.3794  2.1443
37026SOL    HW217937  10.376   9.179   1.547 -0.9323 -0.4815  0.7285
37027SOL     OW17938   8.511   1.509   4.362  0.1001 -0.4137  0.2601
37027SOL    HW117939   8.585   1.448   4.353 -0.4328 -1.0637  0.2699
37027SOL    HW217940   8.434   1.458   4.337 -0.3515  0.2692  0.2241
37028SOL     OW17941   0.674   3.995   1.443 -0.2655 -0.3303  0.3539
37028SOL    HW117942   0.676   4.044   1.525 -0.1586 -2.0121  1.4249
37028SOL    HW217943   0.766   3.988   1.417 -0.1379 -1.0285  0.9231
37029SOL     OW17944  10.940   9.367   6.504 -0.8000 -0.1991  0.2359
37029SOL    HW117945  10.860   9.384   6.553 -0.6939  1.6446 -0.1822
37029SOL    HW217946  11.008   9.415   6.550 -0.1493 -0.7488 -0.1188
37030SOL     OW17947   8.588   2.381   5.971 -0.3307  0.0870  0.1514
37030SOL    HW117948   8.538   2.327   5.911  2.0253 -0.3539 -1.5445
37030SOL    HW217949   8.593   2.467   5.929 -0.0690  0.2649  0.5307
37031SOL     OW17950   0.696   2.305   2.581 -0.9343  0.1374 -0.2276
37031SOL    HW117951   0.678   2.385   2.532 -0.0187  0.4583 -0.0696
37031SOL    HW217952   0.729   2.336   2.666  0.3174 -0.3907 -0.5037
37032SOL     OW17953   6.148   8.262   2.908  0.3515  0.9312 -0.5961
37032SOL    HW117954   6.232   8.294   2.939  0.6984 -0.3711 -0.1153
37032SOL    HW217955   6.085   8.290   2.975  0.8134 -0.2422  0.3763
37033SOL     OW17956   3.172   0.333   7.485  0.4327  0.2757  0.1548
37033SOL    HW117957   3.083   0.367   7.482 -0.4772 -2.0031 -0.3466
37033SOL    HW217958   3.210   0.356   7.400  0.3634  1.2455  0.3690
37034SOL     OW17959   2.669  12.559  10.066  0.0627  0.1804  0.0472
37034SOL    HW117960   2.582  12.520  10.063  1.2906 -2.8503  0.4381
37034SOL    HW217961   2.699  12.557   9.975 -0.2446  1.2249 -0.0882
37035SOL     OW17962   9.052   8.637  11.874  0.0236  0.1750  0.5392
37035SOL    HW117963   9.035   8.629  11.781  1.6232  1.7024  0.0659
37035SOL    HW217964   8.989   8.578  11.915 -1.1053 -0.0886 -1.4503
37036SOL     OW17965   9.299   1.010   2.670 -0.0929 -0.3296 -0.3339
37036SOL    HW117966   9.262   1.012   2.758 -1.6822  0.7898 -0.9769
37036SOL    HW217967   9.372   1.072   2.674 -0.0211 -0.4400  0.2435
37037SOL     OW17968   6.655   3.257   7.881 -0.1690  0.0843  0.1359
37037SOL    HW117969   6.691   3.169   7.894 -0.3257  0.1349  1.0133
37037SOL    HW217970   6.710   3.313   7.935 -0.2980  0.4686 -0.1341
37038SOL     OW17971  12.343   4.016   2.254 -0.1003 -0.5154  0.1977
37038SOL    HW117972  12.353   3.932   2.299  0.6765 -0.2674  0.4933
37038SOL    HW217973  12.298   4.072   2.317  0.1907 -0.4380  0.3383
37039SOL     OW17974   0.229  11.726   2.107  0.5508  0.2712  0.0883
37039SOL    HW117975   0.188  11.718   2.020 -1.2354 -0.4071  0.9328
37039SOL    HW217976   0.267  11.639   2.123 -1.4908 -0.5348  1.0329
37040SOL     OW17977  10.298   3.071  10.384 -0.2147 -0.1051  1.0014
37040SOL    HW117978  10.339   3.155  10.364  1.3547 -0.9018  0.6719
37040SOL    HW217979  10.304   3.063  10.479 -0.8939  0.3995  1.0917
37041SOL     OW17980  12.471   6.108  10.777  0.2863  0.0866 -0.0941
37041SOL    HW117981  12.476   6.027  10.828  0.3595  0.0481 -0.1617
37041SOL    HW217982  12.550   6.156  10.802 -0.3191  0.6386  0.7879
37042SOL     OW17983  11.853  12.002  10.741  0.4031 -0.2830  0.2800
37042SOL    HW117984  11.799  11.946  10.797 -0.4419 -0.9057 -1.1178
37042SOL    HW217985  11.932  11.950  10.726 -0.3443 -1.1265 -0.9480
37043SOL     OW17986   1.440   8.862  10.979  0.9588 -0.0983  0.6644
37043SOL    HW117987   1.416   8.922  10.908 -0.8289  1.0073  2.1083
37043SOL    HW217988   1.487   8.917  11.042 -0.1637 -0.3145  1.7289
37044SOL     OW17989   6.652   9.390   8.553  0.3771 -0.5172  0.2006
37044SOL    HW117990   6.580   9.350   8.602  0.3128 -1.2474 -0.4670
37044SOL    HW217991   6.677   9.466   8.605 -2.2380  0.9695 -0.5219
37045SOL     OW17992   3.051   9.459   7.731 -0.0281 -0.7821  0.4273
37045SOL    HW117993   3.052   9.369   7.763 -1.6024 -0.9081  0.2460
37045SOL    HW217994   2.959   9.487   7.742  0.4365  0.8191  0.5427
37046SOL     OW17995   0.096   1.227  11.484  0.2346  0.2265  0.1076
37046SOL    HW117996   0.122   1.301  11.429  1.1895  0.5158  0.9227
37046SOL    HW217997   0.008   1.250  11.515 -0.0930  0.3058 -0.8435
37047SOL     OW17998   0.991   9.048   0.979 -1.1799 -0.3847 -0.4188
37047SOL    HW117999   0.897   9.062   0.990 -1.1103  0.0739 -0.3875
37047SOL    HW218000   1.016   8.995   1.055 -1.5436 -1.1267 -0.8122
37048SOL     OW18001   0.014  11.527   1.486  0.2199  0.4258 -0.1483
37048SOL    HW118002  -0.038  11.553   1.563 -0.3843  1.9175 -1.0174
37048SOL    HW218003  -0.047  11.476   1.433  0.4480 -0.0628  0.0564
37049SOL     OW18004   2.551  11.532   3.227  0.6296  0.5530 -0.6881
37049SOL    HW118005   2.578  11.600   3.166  1.1131  0.2867 -0.7728
37049SOL    HW218006   2.633  11.500   3.266  0.7656 -1.9832 -2.7331
37050SOL     OW18007  11.221   7.775  10.209  0.1935  0.2602  0.1050
37050SOL    HW118008  11.257   7.861  10.189 -1.1608  0.4831 -1.6297
37050SOL    HW218009  11.127   7.785  10.194 -0.4350 -0.7154  2.8704
37051SOL     OW18010   5.150   9.070   2.799 -0.7947  0.1841 -0.2839
37051SOL    HW118011   5.207   9.134   2.757  2.4555 -1.5163  1.1767
37051SOL    HW218012   5.133   9.107   2.886 -0.4214 -0.0818 -0.0934
37052SOL     OW18013  12.159  10.837  11.828 -0.5598  0.1540  0.1901
37052SOL    HW118014  12.199  10.896  11.764  1.0739 -1.9822 -0.8765
37052SOL    HW218015  12.110  10.895  11.886  0.4112  2.4757 -1.1570
37053SOL     OW18016   2.722   6.514   9.743  0.6714 -0.3549 -0.2640
37053SOL    HW118017   2.727   6.597   9.696  0.0505 -0.0925  0.1226
37053SOL    HW218018   2.735   6.447   9.676  1.4312  0.0598 -0.5353
37054SOL     OW18019   1.414   1.439  10.858  0.1094  0.6417 -0.0196
37054SOL    HW118020   1.405   1.455  10.764  1.8808  0.3190 -0.2927
37054SOL    HW218021   1.494   1.387  10.865 -0.7020 -0.4726  1.5763
37055SOL     OW18022   6.673   8.931   0.418  0.8513  0.2595 -0.2472
37055SOL    HW118023   6.644   8.840   0.410 -0.8708  0.7731 -0.1657
37055SOL    HW218024   6.767   8.927   0.402  0.7116 -1.4520 -0.8979
37056SOL     OW18025  10.119  10.667   7.060  0.2478  0.1386 -0.2633
37056SOL    HW118026  10.166  10.589   7.030  1.5336  0.9374 -0.3944
37056SOL    HW218027  10.035  10.634   7.092  1.2257 -1.4631  0.7948
37057SOL     OW18028   9.322   9.267   1.864  0.2935 -0.4545 -0.0913
37057SOL    HW118029   9.411   9.244   1.838  0.0171 -1.5331 -0.0980
37057SOL    HW218030   9.327   9.280   1.959  0.3850 -0.8326 -0.0456
37058SOL     OW18031   8.338   0.127   1.026  0.4081  0.1182 -0.3838
37058SOL    HW118032   8.373   0.196   0.970 -0.2068  0.3982 -0.4317
37058SOL    HW218033   8.269   0.086   0.974  0.0276  0.1903  0.0533
37059SOL     OW18034   0.824   1.340   1.896  0.4693 -0.2899  0.0453
37059SOL    HW118035   0.873   1.259   1.881  0.5517 -0.2447  0.0705
37059SOL    HW218036   0.799   1.336   1.988 -0.2073 -0.6620 -0.1465
37060SOL     OW18037   1.671   7.450   3.265 -0.1085 -0.1077  0.0391
37060SOL    HW118038   1.749   7.414   3.306  0.3466  0.6229 -0.1523
37060SOL    HW218039   1.632   7.507   3.332 -0.2396 -0.1404 -0.0078
37061SOL     OW18040   3.465   0.676  10.600  0.9352  0.4355  0.2942
37061SOL    HW118041   3.382   0.698  10.558 -0.3217  1.8021  3.2231
37061SOL    HW218042   3.476   0.582  10.584  0.1816  0.7197 -2.2816
37062SOL     OW18043   9.027   4.491  10.196  0.1270  0.2993  0.1789
37062SOL    HW118044   9.085   4.535  10.135 -0.8519  2.7413  0.8826
37062SOL    HW218045   8.951   4.466  10.144 -0.0154  0.9310  0.0834
37063SOL     OW18046  12.222   7.686   3.742  0.0394 -0.4359  0.0292
37063SOL    HW118047  12.169   7.642   3.676 -0.5838 -0.7199  0.7004
37063SOL    HW218048  12.297   7.627   3.756 -1.5553 -2.1516  2.0391
37064SOL     OW18049  10.683   5.985   1.800  0.8580 -0.3893  0.1097
37064SOL    HW118050  10.648   5.896   1.791  3.5002 -1.3769 -1.7949
37064SOL    HW218051  10.615   6.033   1.847 -0.6764 -3.3955  1.2339
37065SOL     OW18052   6.608   7.579   2.140  0.0635 -0.3791 -0.0020
37065SOL    HW118053   6.638   7.495   2.105  1.6892  0.7209 -1.3841
37065SOL    HW218054   6.576   7.627   2.064  0.0403  0.6076  0.6184
37066SOL     OW18055   3.729  12.243   4.859  0.0416 -0.1154  0.0170
37066SOL    HW118056   3.638  12.271   4.851 -0.1967 -0.7229  0.5296
37066SOL    HW218057   3.778  12.324   4.872 -0.5486  0.1386  0.7406
37067SOL     OW18058   2.700   8.184  12.329  0.7007 -0.0373  0.0094
37067SOL    HW118059   2.774   8.185  12.389  1.0398 -1.1930 -0.3738
37067SOL    HW218060   2.720   8.115  12.266 -0.9562 -0.7485  0.2147
37068SOL     OW18061   3.404   8.933   9.575  0.0035  1.1654 -0.1978
37068SOL    HW118062   3.412   8.997   9.504 -0.4159  0.0984 -1.2445
37068SOL    HW218063   3.310   8.916   9.582  0.1691  0.0012 -0.5744
37069SOL     OW18064   5.831  10.332   2.072  0.0950 -0.0510  0.3260
37069SOL    HW118065   5.896  10.397   2.044 -0.3663  0.5000  0.5123
37069SOL    HW218066   5.757  10.347   2.014 -0.1695 -0.1312  0.6429
37070SOL     OW18067   3.615   2.123  11.106 -0.1570  0.3652  0.3108
37070SOL    HW118068   3.570   2.102  11.024 -0.2890  1.1238  0.1753
37070SOL    HW218069   3.592   2.215  11.123  0.2164  0.3456  0.9729
37071SOL     OW18070   2.852   0.560  12.045  0.6921 -0.7720  0.0751
37071SOL    HW118071   2.827   0.652  12.055  0.6378 -0.9448  1.8106
37071SOL    HW218072   2.828   0.538  11.955  0.6366  0.8868 -0.3360
37072SOL     OW18073   3.747  11.760   7.802 -0.5295 -0.0887  0.2464
37072SOL    HW118074   3.776  11.782   7.890  0.2803 -2.0469  0.5363
37072SOL    HW218075   3.813  11.798   7.744 -1.4465  1.8244  0.3902
37073SOL     OW18076   0.414  10.644   1.764 -0.3107 -0.0976  0.1692
37073SOL    HW118077   0.470  10.630   1.840  0.5231  0.9959 -0.2116
37073SOL    HW218078   0.475  10.644   1.689 -1.1905 -1.9282 -0.6226
37074SOL     OW18079   1.291   0.558   5.490  0.1912 -0.3660 -0.3538
37074SOL    HW118080   1.294   0.627   5.556 -0.1165 -1.3040  0.6831
37074SOL    HW218081   1.199   0.557   5.460  0.1988 -0.3136 -0.3780
37075SOL     OW18082   6.011  12.427   0.741  0.2706 -0.1609  1.1385
37075SOL    HW118083   6.100  12.461   0.733  0.0789  0.0095 -0.6082
37075SOL    HW218084   6.021  12.346   0.791  1.5138 -0.5301  0.3450
37076SOL     OW18085   2.881   5.477  10.223 -0.0334  0.3598  0.7677
37076SOL    HW118086   2.877   5.566  10.186 -1.7222  0.8123  1.9435
37076SOL    HW218087   2.916   5.490  10.311  0.5729 -0.2732  0.6264
37077SOL     OW18088   6.051   9.786   8.520  0.4281 -0.1298 -0.0194
37077SOL    HW118089   6.058   9.692   8.502  1.3671 -0.1597  0.4527
37077SOL    HW218090   6.052   9.826   8.433  1.5436 -0.4698 -0.1774
37078SOL     OW18091   2.625   8.656   2.344  0.2017  0.0810 -0.3564
37078SOL    HW118092   2.562   8.728   2.347  0.0882 -0.0667  1.2194
37078SOL    HW218093   2.572   8.577   2.351  0.4975 -0.0799  0.0760
37079SOL     OW18094   4.445   2.927   0.447  0.6143  0.1657  0.7714
37079SOL    HW118095   4.523   2.891   0.488 -0.0721  1.3531  3.3636
37079SOL    HW218096   4.383   2.939   0.520 -2.2039 -1.1718 -1.1982
37080SOL     OW18097   0.945   5.993   3.894 -0.1118 -0.0929 -0.0905
37080SOL    HW118098   0.936   5.950   3.809 -1.3610  1.7159 -0.9311
37080SOL    HW218099   0.999   6.071   3.876 -0.9521  0.6757  0.6042
37081SOL     OW18100   4.691  11.167   9.435 -0.2605 -0.5446 -0.3078
37081SOL    HW118101   4.648  11.083   9.416 -2.0342  0.3838 -0.5950
37081SOL    HW218102   4.622  11.220   9.475  0.9453  0.6628  0.2252
37082SOL     OW18103   8.861  10.183   5.709 -0.0207  0.1749  0.1282
37082SOL    HW118104   8.829  10.218   5.626 -1.5275 -0.3885  0.4371
37082SOL    HW218105   8.783  10.145   5.751  1.1964 -2.0318  0.5580
37083SOL     OW18106   3.216   0.446   0.583  0.5850 -0.2832  0.1683
37083SOL    HW118107   3.226   0.424   0.490  0.5427 -0.5051  0.2155
37083SOL    HW218108   3.262   0.529   0.593  0.3504 -0.1170 -0.1103
37084SOL     OW18109  10.156   5.150   2.978 -0.4986  0.1396  0.1383
37084SOL    HW118110  10.162   5.182   2.888  2.0476 -0.6133 -0.0396
37084SOL    HW218111  10.062   5.139   2.994 -1.0325  0.8614 -2.2061
37085SOL     OW18112   4.932   0.775  12.068  0.0824 -0.0547  0.0564
37085SOL    HW118113   4.892   0.819  11.993 -1.8074 -1.0174  0.4493
37085SOL    HW218114   4.868   0.785  12.139  1.6492  0.4944  1.4588
37086SOL     OW18115   2.510   0.281   7.181  0.2343 -0.4292 -0.5764
37086SOL    HW118116   2.507   0.375   7.198  0.3843 -0.3658 -0.9069
37086SOL    HW218117   2.520   0.242   7.268 -2.2274 -0.2717 -0.1404
37087SOL     OW18118   4.997   9.609  12.309  0.5666 -0.3656  0.3591
37087SOL    HW118119   4.997   9.666  12.386 -0.3227  0.9113 -0.5423
37087SOL    HW218120   4.910   9.570  12.308 -0.0243  0.8669 -0.8244
37088SOL     OW18121   7.501  11.849   6.677  0.1697  0.8864  0.1508
37088SOL    HW118122   7.564  11.781   6.651  0.7752  1.3235  0.4562
37088SOL    HW218123   7.422  11.829   6.627  0.4800  0.2025 -0.0793
37089SOL     OW18124  10.811   3.940   7.249  0.6640 -0.0047 -0.2208
37089SOL    HW118125  10.845   3.851   7.247  1.1298  0.1588  0.2306
37089SOL    HW218126  10.760   3.948   7.168  0.9479 -0.5488 -0.4581
37090SOL     OW18127   6.982   3.123   4.404 -0.1290 -0.1765 -0.2400
37090SOL    HW118128   7.042   3.048   4.410  1.0254  0.8475  1.8305
37090SOL    HW218129   6.904   3.095   4.452  0.7631  0.3084  1.5746
37091SOL     OW18130   9.354  11.638   3.034 -0.0848 -0.2152 -0.5380
37091SOL    HW118131   9.442  11.639   2.997 -0.0171 -2.2268 -0.5234
37091SOL    HW218132   9.367  11.650   3.128  0.0916  0.3287 -0.6284
37092SOL     OW18133   9.030  10.749   6.985  0.0287 -0.0877 -0.4678
37092SOL    HW118134   8.998  10.740   7.075 -1.4033  1.3348 -0.7840
37092SOL    HW218135   8.950  10.762   6.933  0.8439 -0.6343 -1.9206
37093SOL     OW18136   1.881  10.435   7.684 -0.3836 -0.4293  0.0385
37093SOL    HW118137   1.932  10.509   7.717  1.2210 -2.2501  1.9852
37093SOL    HW218138   1.793  10.448   7.721  0.6144 -0.8595  2.7958
37094SOL     OW18139  11.085   9.253   1.016 -0.2125  0.0699 -0.0478
37094SOL    HW118140  11.120   9.330   1.060  1.0379 -1.8074  2.4837
37094SOL    HW218141  10.990   9.259   1.027 -0.2801  1.9241 -1.2259
37095SOL     OW18142   3.653   8.328   3.139 -0.3682  0.5681  0.2458
37095SOL    HW118143   3.616   8.262   3.080 -0.0156  0.2127  0.4195
37095SOL    HW218144   3.748   8.320   3.128 -0.3297  1.6765 -0.4118
37096SOL     OW18145   2.813  12.391   1.999 -0.2775  0.4033  0.2104
37096SOL    HW118146   2.896  12.402   1.952 -0.4184 -1.6492 -0.6234
37096SOL    HW218147   2.746  12.398   1.930 -0.5851 -1.0077  0.3415
37097SOL     OW18148   2.871   7.651   9.578 -0.6623  0.1384  0.0827
37097SOL    HW118149   2.904   7.713   9.642  2.1085  1.2396 -2.1704
37097SOL    HW218150   2.839   7.577   9.629  2.0801  0.6102  2.7192
37098SOL     OW18151   7.791   6.569   9.086 -0.0907 -0.4027 -0.3289
37098SOL    HW118152   7.885   6.578   9.069 -0.1498 -0.8212 -0.9037
37098SOL    HW218153   7.767   6.488   9.043 -0.5575 -0.7347  0.5362
37099SOL     OW18154   8.541   3.679   3.082  0.4626 -0.8443 -0.8059
37099SOL    HW118155   8.628   3.698   3.116 -0.3314 -1.4098  1.7628
37099SOL    HW218156   8.512   3.762   3.044 -0.3589  1.5862  4.2667
37100SOL     OW18157   0.534   7.230  10.227  0.2188  0.8677 -0.3156
37100SOL    HW118158   0.522   7.141  10.261  0.3816  0.2155 -1.8991
37100SOL    HW218159   0.448   7.272  10.239  0.4626  0.9453  1.5536
37101SOL     OW18160   1.252   0.692   1.555  0.0032  0.0576 -0.4149
37101SOL    HW118161   1.285   0.704   1.645 -0.8965 -0.5789  0.0147
37101SOL    HW218162   1.260   0.779   1.515 -0.0676  0.4760  0.4517
37102SOL     OW18163   7.878  12.330  12.535  0.6828  0.0073 -0.0708
37102SOL    HW118164   7.928  12.407  12.561  1.2521  0.1205 -1.3974
37102SOL    HW218165   7.945  12.266  12.510  0.1958 -0.0673 -1.2576
37103SOL     OW18166  10.572   9.029   9.941  0.3906 -0.4993  0.3755
37103SOL    HW118167  10.634   9.097   9.967  0.5837 -0.6012  0.1927
37103SOL    HW218168  10.488   9.058   9.976  0.8391 -1.2187  2.1784
37104SOL     OW18169   9.631   5.164   4.954 -0.0610 -0.0053  0.0572
37104SOL    HW118170   9.695   5.170   4.883 -0.7117 -1.2886 -0.6938
37104SOL    HW218171   9.683   5.153   5.033  0.6778 -1.0426 -0.5406
37105SOL     OW18172   5.594   8.498   0.161  0.1300 -0.3036 -0.1984
37105SOL    HW118173   5.554   8.441   0.227 -1.1206  0.4779 -0.2286
37105SOL    HW218174   5.596   8.585   0.203  0.9176 -0.1307 -0.5745
37106SOL     OW18175   6.623   3.845   6.837 -0.4067  0.3511 -0.3799
37106SOL    HW118176   6.677   3.839   6.916 -1.7972  0.4713  0.6228
37106SOL    HW218177   6.605   3.939   6.828  0.4572  0.4352 -1.3593
37107SOL     OW18178   2.363   0.533   3.360 -0.1977 -0.1026  0.2470
37107SOL    HW118179   2.443   0.480   3.353  0.9365  1.7262 -3.3219
37107SOL    HW218180   2.293   0.469   3.374  1.3312 -2.4296 -1.8134
37108SOL     OW18181   9.675   9.143   4.046  0.1735 -0.2935 -0.3727
37108SOL    HW118182   9.715   9.197   3.978  0.4322  0.6058  0.4756
37108SOL    HW218183   9.748   9.109   4.096 -0.0573  1.8060  1.5300
37109SOL     OW18184  11.153   6.026   5.322 -0.1511  0.2513  0.1250
37109SOL    HW118185  11.246   6.006   5.314 -0.2691 -0.2963  0.0918
37109SOL    HW218186  11.123   5.973   5.396 -0.6605 -0.3860 -0.5203
37110SOL     OW18187   0.748  11.005  10.566  0.1432 -0.0163  0.2503
37110SOL    HW118188   0.662  10.964  10.556 -0.2883  0.8568  0.2383
37110SOL    HW218189   0.779  11.019  10.477  0.0987  0.0630  0.2468
37111SOL     OW18190   2.776   1.486   8.205  0.1541 -0.3952  0.5668
37111SOL    HW118191   2.792   1.579   8.192 -1.6396 -0.1199  0.1005
37111SOL    HW218192   2.702   1.483   8.266 -0.3300 -1.4974 -0.0573
37112SOL     OW18193   2.369  11.142   3.647  0.0901  0.1355 -0.4863
37112SOL    HW118194   2.381  11.085   3.572  0.3541 -0.1679 -0.2169
37112SOL    HW218195   2.434  11.112   3.711 -1.7449 -1.2629  0.8531
37113SOL     OW18196   6.178   8.894   0.155 -0.4137  0.1817 -0.0657
37113SOL    HW118197   6.113   8.960   0.177 -0.6287 -0.2114  0.4754
37113SOL    HW218198   6.258   8.924   0.198 -0.9640 -0.8705  1.7600
37114SOL     OW18199   6.709   9.880   0.335  0.2279 -0.4044  0.0188
37114SOL    HW118200   6.740   9.945   0.272 -0.2974  1.2287  1.3810
37114SOL    HW218201   6.705   9.927   0.418 -2.0914 -1.6095  0.6760
37115SOL     OW18202   9.103   6.204   8.242 -0.5052  0.2972 -0.4322
37115SOL    HW118203   9.172   6.220   8.307 -1.0740 -1.8206  0.7664
37115SOL    HW218204   9.143   6.145   8.178 -1.2032 -1.1387  0.3988
37116SOL     OW18205   7.729  11.752   2.748  0.1100  0.0861 -0.6739
37116SOL    HW118206   7.824  11.755   2.758 -0.0155 -0.5900  0.9510
37116SOL    HW218207   7.703  11.665   2.779 -1.1280  0.5919 -0.1944
37117SOL     OW18208   0.348   6.380   9.728 -0.5509  0.7330  0.6276
37117SOL    HW118209   0.287   6.355   9.798  0.4088 -2.4123  0.4866
37117SOL    HW218210   0.330   6.473   9.713 -3.8046  0.4812  2.0369
37118SOL     OW18211   8.370  12.414   4.199 -0.6159  0.3773  0.1579
37118SOL    HW118212   8.465  12.424   4.205 -0.4221 -1.4005  0.6766
37118SOL    HW218213   8.343  12.478   4.134  0.8847  1.2072  0.3116
37119SOL     OW18214   6.326   5.554  10.142  0.2638  0.5587 -0.4752
37119SOL    HW118215   6.371   5.546  10.227  0.4684 -0.9783 -0.6947
37119SOL    HW218216   6.391   5.596  10.085  0.2630  1.2481  0.0126
37120SOL     OW18217   8.058   6.647   2.384 -0.3527  0.3690  0.3403
37120SOL    HW118218   8.033   6.634   2.292  0.5383  1.8433 -0.1472
37120SOL    HW218219   7.993   6.597   2.433 -0.6032 -0.8054 -1.0916
37121SOL     OW18220   0.236   9.866  11.645 -0.4951 -0.2455 -0.1151
37121SOL    HW118221   0.197   9.833  11.564 -1.3474 -2.2706  1.0346
37121SOL    HW218222   0.328   9.840  11.639  0.2095  2.2200 -1.6557
37122SOL     OW18223  10.704   7.499  12.324 -0.0597 -0.1424 -0.3884
37122SOL    HW118224  10.776   7.473  12.265 -0.3806  0.3815 -1.0250
37122SOL    HW218225  10.687   7.421  12.377 -0.0543 -0.7742 -1.2886
37123SOL     OW18226   0.985  11.860   8.869 -0.2543  0.0718  0.3546
37123SOL    HW118227   0.895  11.894   8.862 -0.0644  0.4817 -0.1763
37123SOL    HW218228   1.040  11.938   8.869  0.1455 -0.2074 -0.1439
37124SOL     OW18229   9.910   5.011   1.491  0.1157  0.3017  0.3289
37124SOL    HW118230   9.817   5.002   1.472 -0.0727  0.0110  1.3412
37124SOL    HW218231   9.952   5.005   1.405 -0.7277 -0.5693 -0.0435
37125SOL     OW18232   8.169   3.814   2.953 -0.0705  0.5459  0.2894
37125SOL    HW118233   8.137   3.883   2.895  0.2871  0.4749  0.0040
37125SOL    HW218234   8.236   3.857   3.006 -0.5857  0.6790  0.8424
37126SOL     OW18235   6.746   5.009   8.485  0.1085  0.1682  0.4033
37126SOL    HW118236   6.701   4.942   8.434  1.0219  0.1873 -0.4547
37126SOL    HW218237   6.821   4.964   8.523  0.7448  0.6986 -0.2047
37127SOL     OW18238   8.377   1.222   7.275 -0.0124  0.0056  0.0997
37127SOL    HW118239   8.378   1.242   7.368 -2.6532  1.5708 -0.1119
37127SOL    HW218240   8.297   1.263   7.242 -0.8621 -3.1831 -2.2872
37128SOL     OW18241   1.354   6.255   0.853 -0.6008 -0.3913 -0.1849
37128SOL    HW118242   1.429   6.218   0.808 -0.2693 -0.6515  0.5663
37128SOL    HW218243   1.349   6.345   0.822  1.1978  0.2296  1.1585
37129SOL     OW18244   9.015   5.588  11.086 -0.5516 -0.2460  0.3924
37129SOL    HW118245   9.092   5.645  11.084 -0.0565 -0.8876  0.5526
37129SOL    HW218246   8.944   5.645  11.114  0.1517  0.0689  1.6382
37130SOL     OW18247   7.835   3.533   6.731 -0.8149 -0.2396 -0.4082
37130SOL    HW118248   7.797   3.449   6.706  0.1440 -0.4198 -1.3098
37130SOL    HW218249   7.865   3.572   6.649  1.7230 -0.5088  0.2884
37131SOL     OW18250   3.558   5.726   4.497 -0.2488  0.5245  0.4000
37131SOL    HW118251   3.552   5.820   4.513  0.3142  0.1111  3.5935
37131SOL    HW218252   3.468   5.700   4.475 -0.6229  1.6056  0.5940
37132SOL     OW18253   5.838   7.638   2.417  0.3984  0.4886 -0.4417
37132SOL    HW118254   5.771   7.666   2.478 -0.0223  1.0311 -1.1306
37132SOL    HW218255   5.825   7.694   2.340 -0.6456 -1.7658 -2.0063
37133SOL     OW18256   1.921   2.350   4.145  0.3361  0.1348 -0.8575
37133SOL    HW118257   2.015   2.351   4.162  0.2466 -0.4525 -0.2730
37133SOL    HW218258   1.885   2.292   4.212 -0.4802  0.5799 -0.8936
37134SOL     OW18259   2.607   4.965   7.197 -0.1845 -0.3834 -0.1729
37134SOL    HW118260   2.616   4.877   7.234  0.7921 -0.4067 -0.4649
37134SOL    HW218261   2.682   4.976   7.139 -1.2821 -0.0507 -1.5791
37135SOL     OW18262   2.671   3.579   2.159  0.2453 -0.1297 -0.6245
37135SOL    HW118263   2.639   3.659   2.118 -0.7681 -1.0028 -1.6372
37135SOL    HW218264   2.766   3.587   2.158  0.3186 -0.2320 -3.5396
37136SOL     OW18265  11.258   4.953   5.229  0.2537  0.1068 -0.7047
37136SOL    HW118266  11.336   4.965   5.175 -1.0475  0.2106 -2.6401
37136SOL    HW218267  11.220   5.040   5.236 -0.1892 -0.0975 -0.5493
37137SOL     OW18268  12.343   7.601   2.849  0.5118  0.5175 -0.0784
37137SOL    HW118269  12.320   7.508   2.845  0.3443  0.5390  0.2960
37137SOL    HW218270  12.264   7.646   2.819 -0.4209  0.6410  2.3124
37138SOL     OW18271   3.962   1.637   8.330  0.2233 -0.7918 -0.3351
37138SOL    HW118272   3.929   1.726   8.313  0.0096 -0.7611  0.2420
37138SOL    HW218273   3.926   1.585   8.259  1.9454 -0.0479 -1.8344
37139SOL     OW18274   2.524   6.869   1.163  0.9334  0.0125 -0.1911
37139SOL    HW118275   2.436   6.902   1.179  0.1759 -1.4192 -1.1571
37139SOL    HW218276   2.549   6.826   1.245  1.5051  1.9439  0.7052
37140SOL     OW18277  10.085   8.684   5.991 -0.4748  0.2664  0.0790
37140SOL    HW118278  10.047   8.741   6.057 -0.8166  1.5303 -1.1493
37140SOL    HW218279  10.169   8.658   6.027 -1.6538 -1.1009  2.0541
37141SOL     OW18280   7.520   6.221  10.327 -0.0662 -0.0474 -0.2028
37141SOL    HW118281   7.453   6.174  10.278 -0.6493  1.9435 -1.4087
37141SOL    HW218282   7.572   6.152  10.368  0.0649 -1.7916 -3.0764
37142SOL     OW18283   3.436  10.999   1.850 -0.5409 -0.1216  0.4649
37142SOL    HW118284   3.452  10.916   1.896 -1.0342 -0.0685  0.7295
37142SOL    HW218285   3.512  11.009   1.793 -1.1399 -1.4917 -0.6356
37143SOL     OW18286  10.458   3.897   2.013 -0.0442  0.1446 -0.3162
37143SOL    HW118287  10.424   3.949   1.940 -1.3479  1.7068  1.2896
37143SOL    HW218288  10.474   3.961   2.082  1.0042 -1.2883  0.8274
37144SOL     OW18289   8.759  12.218   7.528 -0.1580 -0.8692  0.0391
37144SOL    HW118290   8.669  12.199   7.555  0.0643 -1.6691  0.2330
37144SOL    HW218291   8.767  12.313   7.539 -1.2053 -0.6789 -0.7080
37145SOL     OW18292   8.852   5.681  10.813  0.0845  0.0524  0.2890
37145SOL    HW118293   8.912   5.633  10.757 -0.8524  0.9547 -1.5525
37145SOL    HW218294   8.903   5.758  10.841  0.2794  0.0252  0.0129
37146SOL     OW18295  11.609   7.977   4.305 -0.2669  0.2597 -0.2657
37146SOL    HW118296  11.618   8.011   4.394 -0.0865 -0.7337  0.1051
37146SOL    HW218297  11.699   7.966   4.274 -0.3220  0.1745 -0.3970
37147SOL     OW18298   6.702   8.418   6.421  0.3621  0.2024 -0.5074
37147SOL    HW118299   6.620   8.401   6.468  0.5761 -1.4326 -0.6862
37147SOL    HW218300   6.740   8.332   6.406  3.0090  0.9641  1.0714
37148SOL     OW18301  12.390  10.066   1.217  0.6045  0.1744 -0.4377
37148SOL    HW118302  12.406  10.091   1.126 -0.6998  2.4032 -0.1445
37148SOL    HW218303  12.307  10.019   1.215 -0.1455  1.4403 -0.2879
37149SOL     OW18304   6.365   6.966   5.865 -0.3158 -0.4385 -0.3785
37149SOL    HW118305   6.404   7.041   5.909 -0.0435 -0.1268 -1.1403
37149SOL    HW218306   6.293   6.939   5.923  0.2169 -0.2248  0.3979
37150SOL     OW18307   0.778   7.393   5.611  0.1581 -0.3485  0.2918
37150SOL    HW118308   0.865   7.410   5.647 -0.0541 -0.6244  0.9443
37150SOL    HW218309   0.782   7.302   5.581  0.2199 -0.2342 -0.0474
37151SOL     OW18310   7.133   0.573   1.795 -0.2456  0.5702 -0.1327
37151SOL    HW118311   7.190   0.519   1.740 -0.8265  2.6793 -3.0812
37151SOL    HW218312   7.188   0.600   1.868  0.9531 -1.4423 -0.2287
37152SOL     OW18313  11.095   5.191   9.704 -0.1568 -0.1756  0.0708
37152SOL    HW118314  11.154   5.149   9.766 -0.7452 -1.1087  0.0090
37152SOL    HW218315  11.056   5.264   9.753  0.7916  0.2543  0.2064
37153SOL     OW18316   1.867   3.603   2.328  0.0082  0.2672  0.4886
37153SOL    HW118317   1.899   3.568   2.411  1.4603  1.5635  0.5306
37153SOL    HW218318   1.930   3.571   2.263 -1.7374 -1.6883 -0.3644
37154SOL     OW18319   6.702   7.716   3.217 -0.9140 -0.0109  0.7572
37154SOL    HW118320   6.661   7.735   3.132 -1.5061  1.1053  1.2678
37154SOL    HW218321   6.725   7.803   3.251  0.1225 -0.5055  1.3550
37155SOL     OW18322   9.087  11.651   7.503 -0.4074  0.5143  0.3047
37155SOL    HW118323   9.035  11.716   7.456 -1.1889 -0.4062 -0.1594
37155SOL    HW218324   9.143  11.612   7.436 -0.7063 -0.0125  0.3531
37156SOL     OW18325   3.729   2.821  10.831 -0.5425 -0.3101 -0.3565
37156SOL    HW118326   3.709   2.912  10.809 -0.1549  0.0008  0.5314
37156SOL    HW218327   3.813   2.825  10.877 -0.5736 -1.1039 -0.2091
37157SOL     OW18328   3.707   2.127   9.363  0.3231 -0.2069  0.1904
37157SOL    HW118329   3.640   2.108   9.428 -0.7736 -0.6625 -1.0136
37157SOL    HW218330   3.698   2.221   9.345  1.5966  0.2401  1.6888
37158SOL     OW18331   9.393  10.092  11.005  0.0628 -0.2999 -0.1876
37158SOL    HW118332   9.373  10.045  11.086 -0.9968 -0.1006 -0.3096
37158SOL    HW218333   9.458  10.157  11.030  0.0288 -0.4944  0.4219
37159SOL     OW18334   7.758   8.975   0.494  0.7012  0.6032  0.0803
37159SOL    HW118335   7.849   8.954   0.471  0.8437  0.9959  0.2885
37159SOL    HW218336   7.760   9.068   0.517 -0.2582  1.4096 -2.6788
37160SOL     OW18337  10.442   6.690   1.105 -0.3488 -0.8092  0.0956
37160SOL    HW118338  10.409   6.633   1.175  0.7559  0.3500  1.6320
37160SOL    HW218339  10.498   6.753   1.150 -1.2183  1.2893 -1.5627
37161SOL     OW18340   4.860  12.330   5.681 -0.2635  0.1074  0.4646
37161SOL    HW118341   4.816  12.255   5.641  1.2866  0.6299 -2.4598
37161SOL    HW218342   4.910  12.293   5.754  2.1619 -2.2470 -2.1554
37162SOL     OW18343  10.060   3.040   8.176 -0.2779  0.6260 -0.3826
37162SOL    HW118344   9.993   2.993   8.225  0.2713 -0.6731 -0.8502
37162SOL    HW218345  10.054   3.006   8.087  0.8257  0.6670 -0.4866
37163SOL     OW18346   8.187   5.055   2.453  0.3545  0.3770  0.3732
37163SOL    HW118347   8.261   5.057   2.514  0.6189 -2.8807  0.3409
37163SOL    HW218348   8.115   5.095   2.501  1.2979  0.6224  1.6362
37164SOL     OW18349   1.225   1.303  10.991  0.1292  0.6667  0.3194
37164SOL    HW118350   1.160   1.366  11.023 -0.5878 -1.3683  3.2858
37164SOL    HW218351   1.287   1.356  10.940 -1.7534  3.3035  0.5575
37165SOL     OW18352   9.243  12.568   3.992 -0.5779  0.3192 -0.3080
37165SOL    HW118353   9.281  12.483   4.011 -1.4353 -0.2450 -1.0455
37165SOL    HW218354   9.191  12.589   4.070 -0.1977  0.2724 -0.0389
37166SOL     OW18355   6.813   1.474   3.199  0.1690 -0.4262  0.2390
37166SOL    HW118356   6.904   1.447   3.195  0.5234  0.8492 -1.2044
37166SOL    HW218357   6.805   1.519   3.283  0.8178 -0.7239  0.4618
37167SOL     OW18358   6.390   7.936   1.283  0.2091 -0.4830  0.8852
37167SOL    HW118359   6.387   7.867   1.350  1.0706 -0.4724  0.9410
37167SOL    HW218360   6.300   7.940   1.250  0.0517 -1.3561  1.1623
37168SOL     OW18361   6.036   6.777   7.835 -0.1607 -0.5934  0.0314
37168SOL    HW118362   6.054   6.693   7.878 -0.9635 -0.2654  1.0458
37168SOL    HW218363   6.032   6.841   7.906 -0.3201  0.1814 -0.6499
37169SOL     OW18364   3.130   2.024   6.700 -0.1247 -0.1995  0.2808
37169SOL    HW118365   3.084   2.000   6.620 -0.1734 -0.0455  0.2607
37169SOL    HW218366   3.221   2.035   6.674 -0.4238  1.6697 -0.1624
37170SOL     OW18367   8.274   8.753   8.141  0.1656 -0.5086  0.1973
37170SOL    HW118368   8.277   8.658   8.141  1.5145 -0.5083 -1.3125
37170SOL    HW218369   8.248   8.776   8.052  1.2306  0.5336  0.1319
37171SOL     OW18370   9.698   7.339   2.851 -0.4673 -0.1129  0.2551
37171SOL    HW118371   9.669   7.430   2.846  1.3088  0.4331 -2.6301
37171SOL    HW218372   9.722   7.326   2.943  0.3814  2.7396  0.5298
37172SOL     OW18373   3.290   5.244  10.451  0.3393  0.6250 -0.0886
37172SOL    HW118374   3.345   5.173  10.418 -0.2570  0.9088 -1.7885
37172SOL    HW218375   3.255   5.211  10.533 -0.9588 -1.6310 -1.4370
37173SOL     OW18376   9.271   1.095  10.410  0.2118  0.5260 -0.0507
37173SOL    HW118377   9.180   1.065  10.406  0.5850 -0.7879  0.7855
37173SOL    HW218378   9.266   1.188  10.388 -1.3784  0.5536  0.2870
37174SOL     OW18379  10.441   7.131   6.423  0.4056  0.2462 -0.3697
37174SOL    HW118380  10.513   7.069   6.411 -0.0018 -0.0995 -1.0408
37174SOL    HW218381  10.405   7.109   6.509  1.8425  1.1999  0.5231
37175SOL     OW18382  10.886   6.932  11.592 -0.0836  0.2105  0.3032
37175SOL    HW118383  10.875   7.009  11.647 -0.0064 -0.1934  0.8864
37175SOL    HW218384  10.912   6.967  11.507 -2.1887  0.9865 -0.0937
37176SOL     OW18385   2.458   4.915  10.701  0.0645  0.0162 -0.5317
37176SOL    HW118386   2.422   4.990  10.654  0.2108  0.2476 -0.2831
37176SOL    HW218387   2.509   4.867  10.635 -1.0474 -0.5596 -0.9852
37177SOL     OW18388   6.243   3.598   5.631 -0.0265  0.2511  0.1398
37177SOL    HW118389   6.268   3.511   5.662 -1.7751 -0.4238 -0.2473
37177SOL    HW218390   6.262   3.597   5.537 -0.3163  0.1892  0.0823
37178SOL     OW18391   1.095   9.359   6.327  0.2949 -0.0370  0.2863
37178SOL    HW118392   1.015   9.320   6.293 -0.8434  3.0765 -1.0041
37178SOL    HW218393   1.074   9.383   6.417 -0.2183  0.6504 -0.0081
37179SOL     OW18394   9.828   7.520   6.147  0.0460 -0.8965 -0.3048
37179SOL    HW118395   9.836   7.440   6.094  0.8017 -0.1340 -1.3930
37179SOL    HW218396   9.770   7.495   6.219 -0.6098 -2.1213 -1.2060
37180SOL     OW18397   8.898   6.538   2.130  0.6305  0.1831 -0.1024
37180SOL    HW118398   8.863   6.457   2.092  1.2536 -0.5836  0.9298
37180SOL    HW218399   8.939   6.583   2.056  1.7842 -1.2603 -0.3845
37181SOL     OW18400   9.619   6.231   8.171 -0.1808  0.1366 -0.1361
37181SOL    HW118401   9.652   6.196   8.088 -1.1516  1.3525 -1.0702
37181SOL    HW218402   9.674   6.190   8.238  0.9295 -0.5123 -1.4055
37182SOL     OW18403   6.054  11.409  11.500  0.0036 -0.4447 -0.2853
37182SOL    HW118404   6.140  11.394  11.540 -0.3787 -0.2568  0.6494
37182SOL    HW218405   6.071  11.411  11.406  1.0874 -0.0151 -0.0988
37183SOL     OW18406   8.735   9.987  10.701  0.5184  0.5668  0.1722
37183SOL    HW118407   8.775  10.063  10.659  0.8189  2.2855  3.2510
37183SOL    HW218408   8.808   9.942  10.744 -0.1539  1.0752  1.9508
37184SOL     OW18409   4.524   1.441  12.056 -0.1362 -0.3723  0.2017
37184SOL    HW118410   4.585   1.369  12.072 -0.5820 -1.2000 -1.5825
37184SOL    HW218411   4.438   1.403  12.073 -0.3768 -0.3051 -0.8082
37185SOL     OW18412  12.153  12.080   3.370  0.6984 -0.5513 -0.5617
37185SOL    HW118413  12.233  12.078   3.422  0.0229  0.7491  0.5724
37185SOL    HW218414  12.183  12.105   3.282  1.3265  2.8754  0.4654
37186SOL     OW18415   6.314   0.179   9.704 -0.3392 -0.2732 -0.2251
37186SOL    HW118416   6.385   0.162   9.766  0.1685 -1.4745 -1.0984
37186SOL    HW218417   6.288   0.092   9.673  0.2164  0.3524 -2.5884
37187SOL     OW18418  10.683   9.104  10.437 -0.0854  0.2832  0.4815
37187SOL    HW118419  10.640   9.075  10.357  1.5094 -0.4814 -0.1279
37187SOL    HW218420  10.771   9.129  10.410  0.4184  0.1987  1.9629
37188SOL     OW18421   8.240   5.578   0.353 -0.2878 -0.0175 -0.1040
37188SOL    HW118422   8.202   5.528   0.281 -0.3453 -1.0819  0.6553
37188SOL    HW218423   8.304   5.519   0.392  0.4147  0.8867  0.1462
37189SOL     OW18424   4.507   5.998   5.164 -0.2481 -0.2248 -0.1700
37189SOL    HW118425   4.571   5.948   5.114  1.2353 -0.9272  2.2134
37189SOL    HW218426   4.462   5.933   5.218 -0.5986  0.6286  0.6112
37190SOL     OW18427   0.718   6.788   0.699 -0.0864  0.3330 -0.4641
37190SOL    HW118428   0.771   6.731   0.754  1.3750 -1.2245 -3.2743
37190SOL    HW218429   0.737   6.877   0.730  1.8550 -0.3781  0.5264
37191SOL     OW18430   0.618  11.982   0.949  0.3566 -0.4303  0.0192
37191SOL    HW118431   0.569  11.909   0.988 -0.6165  0.6479  0.8958
37191SOL    HW218432   0.706  11.975   0.986 -0.1132 -0.3684  1.1824
37192SOL     OW18433   9.040   7.666   8.573  0.0037 -0.4744 -0.0240
37192SOL    HW118434   8.986   7.588   8.586  1.1528 -1.3168 -0.1451
37192SOL    HW218435   9.032   7.715   8.655 -1.0201 -0.5149 -0.0842
37193SOL     OW18436   6.335   8.659  10.035  0.0349 -0.1029 -0.1320
37193SOL    HW118437   6.345   8.564  10.028  0.1874 -0.0993  0.0259
37193SOL    HW218438   6.308   8.673  10.126 -1.3763 -0.1063 -0.5282
37194SOL     OW18439  10.952   4.152   7.243 -0.3984  0.5735  0.1281
37194SOL    HW118440  10.928   4.059   7.241 -0.7351  0.5968  1.7259
37194SOL    HW218441  10.909   4.190   7.166 -1.2759 -0.3564  0.1469
37195SOL     OW18442   4.779   1.148   1.771 -0.2528 -0.4467  0.8000
37195SOL    HW118443   4.825   1.232   1.775  0.9240 -1.0601  0.7279
37195SOL    HW218444   4.816   1.097   1.844 -0.6468 -1.0481  0.5908
37196SOL     OW18445  10.211   4.385   7.611 -0.1596 -0.4912 -0.3847
37196SOL    HW118446  10.257   4.366   7.529  0.8583 -0.3530  0.1384
37196SOL    HW218447  10.281   4.402   7.675 -0.9259  2.1671 -0.1122
37197SOL     OW18448   9.042  11.873   6.999  0.6658  0.4673  0.3204
37197SOL    HW118449   8.957  11.910   7.024 -0.4705 -0.0298 -2.4883
37197SOL    HW218450   9.098  11.889   7.075 -1.8148  1.1477  2.1347
37198SOL     OW18451  11.453   6.442   3.110  0.0945  0.3877 -0.3017
37198SOL    HW118452  11.459   6.364   3.056 -1.9649 -1.1821  1.5553
37198SOL    HW218453  11.492   6.511   3.057  0.4090 -1.5236 -2.7292
37199SOL     OW18454  10.989   8.510  10.056 -0.2069  0.1797  0.0912
37199SOL    HW118455  10.996   8.421  10.021  1.5652  0.0108  0.8050
37199SOL    HW218456  11.078   8.545  10.051 -0.8716  1.9389 -0.1891
37200SOL     OW18457   7.048   0.944  11.245  0.1956  0.0422 -0.7184
37200SOL    HW118458   7.071   0.972  11.156  2.7187 -0.2574 -0.2340
37200SOL    HW218459   7.072   0.852  11.249 -0.5639 -0.1404  0.0792
37201SOL     OW18460   3.042   9.626   6.726 -0.3320 -0.4444 -0.2342
37201SOL    HW118461   2.981   9.697   6.706 -0.9019 -0.6549  0.6929
37201SOL    HW218462   2.990   9.561   6.772  0.3935 -1.0467 -0.2411
37202SOL     OW18463   4.043   4.116   0.954  0.6602 -0.5928 -0.1266
37202SOL    HW118464   4.108   4.109   0.884 -0.2697 -0.0994 -1.0716
37202SOL    HW218465   4.032   4.211   0.967 -0.9155 -0.6072 -1.0241
37203SOL     OW18466   3.522   9.080   8.914  0.4733 -0.4834  0.2750
37203SOL    HW118467   3.611   9.114   8.924  0.9178 -1.1837 -0.9744
37203SOL    HW218468   3.468   9.157   8.900  1.0293 -0.1060  0.1833
37204SOL     OW18469  12.282  10.437   2.521  0.2731 -0.5502 -0.1882
37204SOL    HW118470  12.302  10.476   2.436  0.4534 -0.0722  0.0712
37204SOL    HW218471  12.194  10.401   2.510  0.7593 -1.5539 -0.9429
37205SOL     OW18472  10.144   1.295   1.466 -0.2421 -0.0635  0.4694
37205SOL    HW118473  10.130   1.201   1.466 -0.2799 -0.0577  0.2791
37205SOL    HW218474  10.140   1.321   1.374 -1.9369  0.3763  0.6273
37206SOL     OW18475  10.584   9.476   7.347  0.5912  0.3942 -0.3236
37206SOL    HW118476  10.494   9.449   7.331  0.5504  0.3518 -0.0262
37206SOL    HW218477  10.615   9.509   7.262  0.9287 -1.3898 -0.9401
37207SOL     OW18478   6.010   1.157   8.968  0.1791  0.4996  0.3026
37207SOL    HW118479   6.036   1.216   9.039 -0.0688  0.8506  0.1042
37207SOL    HW218480   6.087   1.154   8.911  0.6934 -0.4433  0.9995
37208SOL     OW18481   2.813   0.706   7.367 -0.5322 -0.1823 -0.6754
37208SOL    HW118482   2.775   0.694   7.455 -0.4892 -2.1040 -0.8964
37208SOL    HW218483   2.804   0.800   7.351  0.0084  0.3346  1.6355
37209SOL     OW18484  12.578   2.765   5.590 -0.1026  0.3921  0.6151
37209SOL    HW118485  12.591   2.801   5.503  0.0436  1.5436  1.0949
37209SOL    HW218486  12.638   2.690   5.595 -0.7830 -0.2561 -0.5769
37210SOL     OW18487   6.421   0.247   9.009 -0.4286  0.2837  0.4637
37210SOL    HW118488   6.445   0.203   9.091  2.0894  1.5830  0.5234
37210SOL    HW218489   6.497   0.234   8.953 -1.9544 -0.2574 -1.5886
37211SOL     OW18490   1.207   4.268   7.852  0.3000  0.3098  0.5804
37211SOL    HW118491   1.252   4.345   7.888  2.0845 -0.4707  0.1422
37211SOL    HW218492   1.165   4.300   7.772  0.4676  0.9582  0.7410
37212SOL     OW18493   6.993   2.734   3.213 -0.0213  0.1996 -0.1237
37212SOL    HW118494   6.989   2.664   3.147  1.1312  0.8119 -0.8821
37212SOL    HW218495   7.083   2.767   3.208  0.2081  0.0332  2.0344
37213SOL     OW18496   3.973  11.205  11.873 -0.2655 -0.4692 -0.2935
37213SOL    HW118497   3.982  11.264  11.948  2.6982  0.7956 -1.5087
37213SOL    HW218498   4.029  11.130  11.894 -0.5525 -0.7883 -0.6490
37214SOL     OW18499   8.884   4.305   8.365 -0.1766  0.1511 -0.1170
37214SOL    HW118500   8.888   4.382   8.422  3.9648  0.6309 -0.7519
37214SOL    HW218501   8.924   4.235   8.417 -0.2712 -0.5469 -0.9551
37215SOL     OW18502   9.921   8.430   7.404  0.0587 -0.0820 -0.1201
37215SOL    HW118503  10.005   8.448   7.362 -0.2649  1.4817 -0.1703
37215SOL    HW218504   9.939   8.440   7.498  0.1087 -0.6006 -0.0711
37216SOL     OW18505   4.401   9.377   9.691 -0.0627  0.5583  0.7944
37216SOL    HW118506   4.417   9.365   9.597 -0.4166 -1.2123  0.9232
37216SOL    HW218507   4.313   9.342   9.705 -0.7629  2.4642  1.5098
37217SOL     OW18508  12.279   1.459   8.707  0.2023  0.0342  0.2616
37217SOL    HW118509  12.355   1.476   8.763  0.2813  0.3452  0.0660
37217SOL    HW218510  12.302   1.500   8.623 -0.8169  1.5120  0.6592
37218SOL     OW18511   9.809   2.159  10.618 -0.3033  0.0925 -0.2915
37218SOL    HW118512   9.858   2.240  10.604 -1.7597  0.8253 -1.4243
37218SOL    HW218513   9.857   2.113  10.687 -0.0530  2.4375  1.1944
37219SOL     OW18514   2.232   6.372   3.254 -0.3731 -0.3083  0.0615
37219SOL    HW118515   2.272   6.303   3.201 -0.6680  0.7799 -1.6852
37219SOL    HW218516   2.292   6.384   3.327  0.2799 -1.5972 -0.2260
37220SOL     OW18517   4.784   6.263   1.749 -0.5772 -0.3121 -0.6247
37220SOL    HW118518   4.694   6.256   1.720 -0.3795 -1.0097 -1.1061
37220SOL    HW218519   4.787   6.214   1.831 -1.1676  1.7764  0.7229
37221SOL     OW18520   8.632   4.949   3.112 -0.3299  0.2128 -0.3836
37221SOL    HW118521   8.714   4.991   3.086 -0.3808  0.0792 -0.7565
37221SOL    HW218522   8.638   4.942   3.207 -0.7199  1.9370 -0.1876
37222SOL     OW18523   8.354  10.714   4.179 -0.2145  0.0629 -0.4552
37222SOL    HW118524   8.428  10.677   4.227  1.1486  0.8659 -1.8460
37222SOL    HW218525   8.285  10.720   4.244  0.5314 -1.8109  0.6198
37223SOL     OW18526  11.771   4.316   4.829 -0.7200 -0.0949  0.0863
37223SOL    HW118527  11.797   4.247   4.768 -2.8278 -0.1357 -0.8203
37223SOL    HW218528  11.836   4.385   4.815  0.2183 -1.0622 -0.4792
37224SOL     OW18529   6.711  10.285   7.124 -0.3318  0.5456 -0.1564
37224SOL    HW118530   6.778  10.287   7.193  0.1529  0.7517 -0.6233
37224SOL    HW218531   6.751  10.232   7.055 -0.3058  1.3716 -0.7847
37225SOL     OW18532  10.910   7.089   8.199 -0.7721 -0.5824 -0.0407
37225SOL    HW118533  10.845   7.153   8.226 -1.3300 -1.6511  1.2165
37225SOL    HW218534  10.870   7.004   8.216  0.3794 -1.2759 -0.6229
37226SOL     OW18535  10.134   0.296   2.713  0.0930 -0.2467  0.1027
37226SOL    HW118536  10.222   0.272   2.741 -0.6862 -1.0865  1.9713
37226SOL    HW218537  10.082   0.298   2.794 -2.0522 -1.7059 -1.1351
37227SOL     OW18538   7.308   2.410   7.130  0.1925 -0.1042 -0.2785
37227SOL    HW118539   7.283   2.335   7.076  1.0255 -2.3993  2.3050
37227SOL    HW218540   7.373   2.456   7.077 -0.6750 -0.8677 -2.1306
37228SOL     OW18541   1.669   1.695   7.557 -0.0003 -0.3358  0.1197
37228SOL    HW118542   1.697   1.679   7.467 -0.8981 -0.7972 -0.0978
37228SOL    HW218543   1.663   1.607   7.596 -0.0935 -0.1750  0.4744
37229SOL     OW18544   1.375   0.547   9.333 -0.2351  0.4329  0.4124
37229SOL    HW118545   1.385   0.637   9.366 -1.2892  1.1126 -0.9953
37229SOL    HW218546   1.461   0.526   9.296  0.5930  0.1043  2.4255
37230SOL     OW18547   5.400   2.204   3.283 -0.2687 -0.6686  0.6206
37230SOL    HW118548   5.412   2.292   3.320  1.1332 -0.1045 -1.0318
37230SOL    HW218549   5.390   2.218   3.189 -1.4538 -2.2046  0.4814
37231SOL     OW18550   8.373   8.548   1.873  0.1065 -0.3420  0.0895
37231SOL    HW118551   8.376   8.605   1.797  1.2474  0.4106  0.6798
37231SOL    HW218552   8.279   8.541   1.893 -0.2034 -0.5027 -1.3175
37232SOL     OW18553   0.533   6.145   2.795 -0.6732 -0.0315  0.1671
37232SOL    HW118554   0.601   6.106   2.849 -0.7041 -2.3306 -1.3315
37232SOL    HW218555   0.458   6.085   2.804 -2.6229  2.4117  1.7911
37233SOL     OW18556   5.596   3.095   4.044 -0.5335  0.2501 -0.4752
37233SOL    HW118557   5.513   3.094   3.996 -1.0467  2.1003  0.2805
37233SOL    HW218558   5.571   3.118   4.133  0.6874 -0.2844  0.0166
37234SOL     OW18559   3.114   6.345  11.422  0.2336  0.4437  0.9825
37234SOL    HW118560   3.048   6.276  11.435  0.6153 -0.1907 -0.2976
37234SOL    HW218561   3.068   6.413  11.373  0.5090  0.0136  0.1140
37235SOL     OW18562   5.046  10.342   7.256 -0.2953 -0.0907  0.0980
37235SOL    HW118563   5.098  10.406   7.304  0.6489 -0.0202 -0.9820
37235SOL    HW218564   5.052  10.261   7.308 -1.9719  0.7694  1.7834
37236SOL     OW18565   4.452   0.971   3.844 -0.4204 -0.3139 -0.1457
37236SOL    HW118566   4.395   0.955   3.920 -1.1363  0.0233 -0.5995
37236SOL    HW218567   4.522   1.027   3.879 -0.2720 -0.8597  0.4540
37237SOL     OW18568   2.715   7.744   4.216  0.3938 -0.0738  0.2678
37237SOL    HW118569   2.777   7.680   4.253 -0.8276 -1.1781  0.4807
37237SOL    HW218570   2.751   7.829   4.242  1.8833 -0.6662  0.2762
37238SOL     OW18571   2.758  12.075   5.372 -0.2466  0.3776 -0.2522
37238SOL    HW118572   2.758  11.987   5.335 -0.1280  1.1539 -2.1676
37238SOL    HW218573   2.669  12.107   5.358 -0.0647  0.8689 -0.2701
37239SOL     OW18574   6.254   5.195   6.024  0.5847 -0.3435  0.2970
37239SOL    HW118575   6.331   5.250   6.039 -0.2412  0.5164  1.5688
37239SOL    HW218576   6.186   5.257   5.999 -0.5553 -0.6612  2.4509
37240SOL     OW18577  11.580  11.592   3.064  0.3789 -0.0627  0.4889
37240SOL    HW118578  11.510  11.564   3.123  1.0419  0.2238  1.4402
37240SOL    HW218579  11.588  11.521   3.001 -0.0705 -0.5721  0.9927
37241SOL     OW18580   1.373  10.659   1.458  0.5617 -0.4592  0.4330
37241SOL    HW118581   1.382  10.672   1.363 -1.1375  1.3976  0.4482
37241SOL    HW218582   1.395  10.744   1.496  0.2909 -0.9073  1.6273
37242SOL     OW18583   7.889   0.854  10.172 -0.4554 -0.1242  0.0327
37242SOL    HW118584   7.905   0.775  10.119 -1.3767 -0.2189 -0.1323
37242SOL    HW218585   7.843   0.821  10.249  1.1581 -0.0247  1.0757
37243SOL     OW18586   7.237   7.704   3.147 -0.4534 -0.2952 -0.3383
37243SOL    HW118587   7.184   7.715   3.068  0.0847 -0.0611 -0.6669
37243SOL    HW218588   7.175   7.717   3.219 -0.5469  1.5511 -0.6993
37244SOL     OW18589   8.039   0.114  10.890  0.2546  0.4695  0.4674
37244SOL    HW118590   8.089   0.032  10.889 -0.9545 -0.2840 -0.0143
37244SOL    HW218591   8.097   0.177  10.934  1.6883 -0.3217 -0.2287
37245SOL     OW18592   5.959   0.396   4.636 -0.2805 -0.6731  0.2864
37245SOL    HW118593   5.999   0.325   4.686 -0.9204  1.0648  3.5019
37245SOL    HW218594   6.032   0.452   4.610  0.0465 -1.5639 -0.8408
37246SOL     OW18595   7.631   4.698   1.493  0.3780  0.4740  0.0747
37246SOL    HW118596   7.630   4.791   1.473 -1.4320  0.1773 -1.5327
37246SOL    HW218597   7.663   4.657   1.413  0.4664 -0.3222  0.5104
37247SOL     OW18598  10.870   4.844   2.758 -0.0095  1.2070 -0.0292
37247SOL    HW118599  10.835   4.926   2.794 -1.2250  1.5267 -1.7794
37247SOL    HW218600  10.851   4.850   2.664  0.1516 -0.9555 -0.2410
37248SOL     OW18601   4.677   7.877   7.381  0.2544 -0.2564 -0.4173
37248SOL    HW118602   4.749   7.821   7.409 -0.9961 -2.9615 -2.2242
37248SOL    HW218603   4.599   7.838   7.420 -0.6380  0.3550 -1.5213
37249SOL     OW18604   5.972  11.270  12.018 -0.3801  0.4672  0.1508
37249SOL    HW118605   6.021  11.188  12.022  1.0207  1.3237  1.6855
37249SOL    HW218606   5.930  11.277  12.103 -1.1122  0.9816 -0.2439
37250SOL     OW18607   2.497   4.889   1.289  0.2730  0.0694 -0.1500
37250SOL    HW118608   2.428   4.953   1.305  0.5354  0.7831 -1.7479
37250SOL    HW218609   2.522   4.858   1.376 -2.5090 -0.7218  0.4530
37251SOL     OW18610   5.741   8.663   1.097 -0.0377 -0.4112  0.3026
37251SOL    HW118611   5.821   8.625   1.132  2.3668  1.4232 -2.6855
37251SOL    HW218612   5.714   8.601   1.029 -0.2963 -0.2928  0.2972
37252SOL     OW18613   2.931  10.950   8.380  0.5123  0.1068 -0.1178
37252SOL    HW118614   2.965  10.937   8.468  1.7593 -0.2251 -0.6262
37252SOL    HW218615   2.956  10.871   8.332  1.0587  0.8595 -1.1194
37253SOL     OW18616   5.634   6.289   7.813  0.3146 -0.8861 -0.1630
37253SOL    HW118617   5.630   6.306   7.719 -0.0310  1.5924  0.2289
37253SOL    HW218618   5.578   6.213   7.826 -0.4710 -0.6379 -1.8603
37254SOL     OW18619   3.867  10.607   6.272  0.2890 -0.1841  0.2439
37254SOL    HW118620   3.948  10.592   6.223  1.2054 -0.0389  1.6517
37254SOL    HW218621   3.878  10.694   6.309 -1.3767  0.6417 -1.0830
37255SOL     OW18622   6.726  10.878  10.638  0.5924  0.5125 -0.2744
37255SOL    HW118623   6.728  10.783  10.623  1.6293  0.4162  0.3608
37255SOL    HW218624   6.817  10.906  10.629  0.0399  1.8243 -2.5867
37256SOL     OW18625   0.616  12.386  10.613  0.1971 -0.3711  0.0724
37256SOL    HW118626   0.555  12.333  10.664 -1.0384 -0.4135 -1.3827
37256SOL    HW218627   0.607  12.354  10.524  2.6333 -0.6126 -0.1693
37257SOL     OW18628  10.736  10.633   1.270 -0.5000  0.1089 -0.1842
37257SOL    HW118629  10.734  10.721   1.234 -1.7902 -0.1420 -0.8020
37257SOL    HW218630  10.828  10.618   1.293 -0.3960  1.9256  0.7831
37258SOL     OW18631   9.913   6.478   1.449  0.1704 -0.5213  0.0633
37258SOL    HW118632   9.934   6.438   1.364  2.9633  1.1837 -0.1722
37258SOL    HW218633   9.877   6.405   1.501 -0.5630 -1.8684 -2.1754
37259SOL     OW18634   2.253   2.663  12.139 -0.0721 -0.5041  0.0417
37259SOL    HW118635   2.342   2.687  12.112  0.3138 -1.3470  0.5413
37259SOL    HW218636   2.201   2.741  12.119  0.8264  0.1047  0.0037
37260SOL     OW18637   4.428  11.129   0.682 -0.4052 -0.2124 -0.0288
37260SOL    HW118638   4.505  11.128   0.739 -0.8692  0.5637  0.6434
37260SOL    HW218639   4.464  11.126   0.593  0.3884 -0.1409  0.2797
37261SOL     OW18640   3.403   7.713   4.140  0.0782 -0.3028 -0.4068
37261SOL    HW118641   3.436   7.642   4.196 -1.2271  0.2677  1.1759
37261SOL    HW218642   3.396   7.788   4.199 -0.4221  0.6086 -1.6001
37262SOL     OW18643   0.872   4.618   3.942 -0.2995 -0.3541 -0.3320
37262SOL    HW118644   0.803   4.649   4.002  0.5873  0.4143  0.3122
37262SOL    HW218645   0.843   4.649   3.856 -0.1569  1.0617  0.1032
37263SOL     OW18646  11.011   2.468   5.561 -0.1516  0.1175 -0.0649
37263SOL    HW118647  11.030   2.486   5.468  0.8510  1.8376  0.4246
37263SOL    HW218648  10.921   2.498   5.572 -0.2630 -0.0562 -0.4754
37264SOL     OW18649   0.573   7.773   3.503  0.2719  0.0842 -0.0544
37264SOL    HW118650   0.663   7.763   3.471  0.9231 -0.8784  1.9004
37264SOL    HW218651   0.555   7.867   3.494  2.0130  0.5527  0.7457
37265SOL     OW18652   8.985  11.602  10.205 -0.2141  0.2351 -0.2144
37265SOL    HW118653   8.920  11.672  10.196  0.6076  0.8848 -1.6059
37265SOL    HW218654   9.063  11.646  10.239 -0.5727 -0.5963  1.7712
37266SOL     OW18655   7.407   9.103   2.884 -0.4020 -0.0397  0.5761
37266SOL    HW118656   7.424   9.010   2.870 -1.0781 -0.3346  1.6166
37266SOL    HW218657   7.464   9.148   2.821  0.8130 -1.1107  0.8816
37267SOL     OW18658   3.700  11.911   2.346 -0.5444  0.2024 -0.2563
37267SOL    HW118659   3.766  11.964   2.301 -1.3392  1.2814 -0.1757
37267SOL    HW218660   3.698  11.829   2.296  0.4238  0.3813 -0.6221
37268SOL     OW18661   8.687   2.750  11.917 -0.0581 -0.0616  0.2042
37268SOL    HW118662   8.603   2.709  11.898  1.9938 -3.8072 -2.1664
37268SOL    HW218663   8.717   2.783  11.832  1.4384 -0.1422  0.6691
37269SOL     OW18664   6.984   3.650   0.377 -0.0080 -0.0858 -0.3297
37269SOL    HW118665   6.993   3.593   0.301  0.9430  0.1880 -0.4363
37269SOL    HW218666   7.052   3.716   0.366  0.1363 -0.0371  0.7549
37270SOL     OW18667   5.023   6.574   0.562 -0.2328 -0.0913 -0.2726
37270SOL    HW118668   5.091   6.528   0.612  0.9077  1.3075 -0.4668
37270SOL    HW218669   4.967   6.614   0.628  0.8874  1.1992 -0.0453
37271SOL     OW18670   4.631  10.166   9.154 -0.1209 -0.0323 -0.5882
37271SOL    HW118671   4.586  10.123   9.227 -0.4304 -1.0208 -1.3435
37271SOL    HW218672   4.580  10.246   9.138 -0.8679 -0.5041 -0.6154
37272SOL     OW18673   0.228   9.770   8.275  0.0804  0.3092 -0.2210
37272SOL    HW118674   0.169   9.837   8.240 -0.3303  0.9228  1.5364
37272SOL    HW218675   0.230   9.787   8.369  1.5351 -0.9330  0.0083
37273SOL     OW18676  10.200   3.333   2.853  0.5016  0.1536 -0.8048
37273SOL    HW118677  10.261   3.282   2.906  1.7860  0.9342 -1.4637
37273SOL    HW218678  10.131   3.271   2.829  1.5179 -1.0121 -0.8069
37274SOL     OW18679   7.237   8.254   7.505  0.1562 -0.0949 -0.1406
37274SOL    HW118680   7.163   8.217   7.553  0.9202  0.8549  1.8609
37274SOL    HW218681   7.284   8.178   7.471 -1.7011 -0.7156 -1.4687
37275SOL     OW18682   3.166   5.363   4.002  0.1748  0.1894 -0.8005
37275SOL    HW118683   3.221   5.304   3.950  1.0869 -0.5511  0.9206
37275SOL    HW218684   3.131   5.308   4.072 -0.7531  1.2184 -0.4307
37276SOL     OW18685   8.424   3.611   9.650  0.2578 -0.4499 -0.2561
37276SOL    HW118686   8.371   3.629   9.728  1.1099  0.5343  0.1091
37276SOL    HW218687   8.449   3.698   9.618 -0.0616 -0.8503 -1.6157
37277SOL     OW18688   6.442   4.078   6.405  0.6473  0.1850 -0.5889
37277SOL    HW118689   6.534   4.051   6.402  1.1525  1.7922 -0.5002
37277SOL    HW218690   6.443   4.170   6.381 -1.2298 -0.3068 -2.8601
37278SOL     OW18691  11.891  11.439   0.806 -0.0105 -0.2353  0.1448
37278SOL    HW118692  11.885  11.379   0.732  1.3972 -0.7911  0.4385
37278SOL    HW218693  11.985  11.448   0.822 -0.2709  0.0449  1.7198
37279SOL     OW18694   4.301   7.319   5.412  0.8396 -0.2098 -0.2556
37279SOL    HW118695   4.344   7.265   5.346  1.0975  0.2794 -0.4910
37279SOL    HW218696   4.219   7.347   5.372  2.1833  2.3438 -1.4875
37280SOL     OW18697   4.854  10.030   9.929 -0.3446  0.3912  0.0287
37280SOL    HW118698   4.857  10.084   9.850 -0.8987  1.0719  0.4613
37280SOL    HW218699   4.761  10.014   9.944 -0.2369  0.1207  0.4424
37281SOL     OW18700  10.684   4.822   7.967  0.5985 -0.1090  0.1337
37281SOL    HW118701  10.738   4.881   7.914  2.0444 -0.1858  1.4680
37281SOL    HW218702  10.732   4.740   7.969 -0.3844 -0.7039  0.0117
37282SOL     OW18703   9.591   6.472   8.276  0.2399  0.4188 -0.3760
37282SOL    HW118704   9.600   6.389   8.229 -0.4707  0.0656  0.0933
37282SOL    HW218705   9.610   6.539   8.210  1.6917 -0.1268 -0.5403
37283SOL     OW18706   2.865   7.901   8.394 -0.3527 -0.0992 -0.0557
37283SOL    HW118707   2.953   7.938   8.383  0.2372 -1.5247 -0.2971
37283SOL    HW218708   2.807   7.978   8.395  0.9559  0.9238  0.9335
37284SOL     OW18709   0.460   6.735   5.106  0.1492  0.6507  0.3050
37284SOL    HW118710   0.522   6.773   5.168  0.8391 -0.1880  0.1553
37284SOL    HW218711   0.515   6.703   5.034 -0.3097 -1.1865  0.7201
37285SOL     OW18712  10.720   1.619   5.173 -0.7985 -0.1340 -0.1886
37285SOL    HW118713  10.795   1.675   5.153  0.0891 -1.5098 -0.8524
37285SOL    HW218714  10.660   1.676   5.221  0.9711  0.8318  0.9901
37286SOL     OW18715   6.795   9.209   8.403  0.0126  0.6106 -0.6387
37286SOL    HW118716   6.769   9.123   8.436 -0.0718  1.0404  0.4336
37286SOL    HW218717   6.730   9.269   8.438 -0.0033  1.1021 -1.4925
37287SOL     OW18718   8.256  11.960  11.417 -0.1326 -0.3281 -0.7116
37287SOL    HW118719   8.341  11.985  11.452 -0.7775 -0.5952  1.1395
37287SOL    HW218720   8.269  11.872  11.381  0.0940 -0.9255  0.7667
37288SOL     OW18721  12.461  10.663   9.463 -0.1187  0.0562  0.1670
37288SOL    HW118722  12.545  10.631   9.432 -0.3029  0.9316 -1.3352
37288SOL    HW218723  12.404  10.661   9.386 -1.4669 -0.4376  1.1236
37289SOL     OW18724   4.020  11.546   3.250 -0.2906 -0.5186  0.6938
37289SOL    HW118725   4.095  11.496   3.218  0.2640  1.0510 -0.5676
37289SOL    HW218726   4.027  11.541   3.345 -0.7504 -3.4981  0.6622
37290SOL     OW18727  12.112   5.213  10.823  0.1955  0.3108 -0.9427
37290SOL    HW118728  12.058   5.289  10.802  0.4480  0.1130 -2.4466
37290SOL    HW218729  12.142   5.181  10.738 -1.8817 -2.9422 -0.6232
37291SOL     OW18730   0.792   8.626   5.868  0.0031  0.2730 -0.1240
37291SOL    HW118731   0.697   8.618   5.876 -0.1419  1.3624 -0.6025
37291SOL    HW218732   0.824   8.620   5.959 -0.3508 -1.6703 -0.0752
37292SOL     OW18733   3.051   4.469   7.073  0.0507 -0.1462 -0.1559
37292SOL    HW118734   3.143   4.496   7.076  0.3309 -0.8801 -1.5726
37292SOL    HW218735   3.007   4.527   7.136  1.6561 -0.5720  1.4258
37293SOL     OW18736   6.217   7.408   9.969  0.0489 -0.0577  0.1845
37293SOL    HW118737   6.188   7.318   9.986  3.3542 -0.9914  1.9538
37293SOL    HW218738   6.291   7.398   9.910 -0.6410  1.7427 -1.0490
37294SOL     OW18739   1.577   8.966   2.690  0.8230  0.6532  0.3344
37294SOL    HW118740   1.490   9.007   2.690  1.1663  1.4506 -1.2283
37294SOL    HW218741   1.638   9.039   2.688  1.6238  0.1354  2.8007
37295SOL     OW18742  10.695   8.346  11.315  0.4305  0.5112 -0.2794
37295SOL    HW118743  10.781   8.345  11.274  1.2403  0.2159  1.3208
37295SOL    HW218744  10.633   8.350  11.242  1.7585 -0.3186 -1.5187
37296SOL     OW18745   1.578   4.000   6.898 -0.1396 -0.1981  0.0694
37296SOL    HW118746   1.487   3.998   6.868 -0.9541  0.0575  2.3147
37296SOL    HW218747   1.597   3.909   6.921 -0.2570 -0.0604  0.7294
37297SOL     OW18748   3.811   9.531   3.063 -0.4466  0.1036  0.4922
37297SOL    HW118749   3.804   9.474   2.986  0.7407  1.0517 -0.3414
37297SOL    HW218750   3.883   9.590   3.043  0.9536 -0.6204  3.0000
37298SOL     OW18751   8.779   3.894   8.559 -0.0586 -0.1106  0.7103
37298SOL    HW118752   8.759   3.920   8.649  1.1049  0.8772  0.7058
37298SOL    HW218753   8.726   3.952   8.505 -1.3249 -1.1940  0.7330
37299SOL     OW18754   5.435   2.169  11.570 -0.3645 -0.4401  0.0056
37299SOL    HW118755   5.427   2.111  11.494 -0.8793 -0.0267 -0.2637
37299SOL    HW218756   5.519   2.145  11.609  0.0624 -0.4442 -0.8774
37300SOL     OW18757  10.559   8.480   0.563  0.1800  0.5076 -0.0463
37300SOL    HW118758  10.617   8.412   0.530  0.0455  0.3030  0.1401
37300SOL    HW218759  10.616   8.538   0.614  0.5708  1.3337 -1.3609
37301SOL     OW18760   2.015   5.363   0.560  0.0857 -0.0785 -0.0181
37301SOL    HW118761   2.005   5.455   0.539  0.6492  0.0376  0.2192
37301SOL    HW218762   2.014   5.318   0.475  1.2341  0.2805 -0.2287
37302SOL     OW18763  12.152   7.116   7.983 -0.1421  0.1546 -0.2546
37302SOL    HW118764  12.104   7.164   7.915 -3.0349  1.4141  2.3778
37302SOL    HW218765  12.098   7.039   8.000  0.5918 -0.2118  0.4915
37303SOL     OW18766   8.574   8.981  12.159  0.3562  0.0209  0.8651
37303SOL    HW118767   8.530   9.011  12.238 -2.6995  1.6703 -1.2694
37303SOL    HW218768   8.663   9.017  12.166 -0.1922  1.0884  2.9832
37304SOL     OW18769   7.730   8.338   6.745 -0.1523  0.2140 -0.3059
37304SOL    HW118770   7.814   8.326   6.790  0.3133  2.7707 -0.3520
37304SOL    HW218771   7.694   8.418   6.783 -2.8200 -1.0437  0.0022
37305SOL     OW18772   8.479   1.934   0.428 -0.2786  0.0022 -0.7359
37305SOL    HW118773   8.507   2.004   0.487 -0.3538 -0.9928  0.5315
37305SOL    HW218774   8.434   1.980   0.357  1.0211  1.3334 -0.7506
37306SOL     OW18775   2.749   0.059   2.121  0.0626 -0.0203 -0.0745
37306SOL    HW118776   2.788  -0.017   2.079  0.8000 -0.5376  1.4882
37306SOL    HW218777   2.774   0.133   2.066 -0.4885 -0.8565 -1.4973
37307SOL     OW18778   9.298   8.699  11.442  0.4953 -0.0458 -0.0148
37307SOL    HW118779   9.293   8.744  11.527 -0.1594  1.3274 -0.7491
37307SOL    HW218780   9.207   8.680  11.420  0.5424  0.7709 -0.9887
37308SOL     OW18781  10.929   9.975   3.712  0.2320  0.4913 -0.0309
37308SOL    HW118782  10.838   9.977   3.743 -0.3549 -0.1347 -1.5864
37308SOL    HW218783  10.955   9.883   3.722  0.1399  0.3427 -0.9989
37309SOL     OW18784   3.019   9.954   9.378 -0.0745 -0.5132  0.7091
37309SOL    HW118785   2.992   9.898   9.451 -0.3735 -1.6281 -0.2101
37309SOL    HW218786   3.104   9.918   9.351  0.3839  0.3569  0.9547
37310SOL     OW18787   1.769   3.551   2.650 -0.1495  0.0732  0.6059
37310SOL    HW118788   1.715   3.478   2.620 -0.7068  0.9946 -0.7230
37310SOL    HW218789   1.857   3.529   2.618 -0.4888  0.4038 -0.5990
37311SOL     OW18790   6.203   1.461   2.912 -0.3005 -0.4017 -0.0522
37311SOL    HW118791   6.285   1.434   2.953 -0.6551  0.0226  0.9564
37311SOL    HW218792   6.226   1.473   2.819  0.7426 -0.4100  0.1893
37312SOL     OW18793  11.804   5.736   9.963 -0.2815  0.6023  0.0705
37312SOL    HW118794  11.886   5.762   9.921 -0.3468 -0.5085 -0.7930
37312SOL    HW218795  11.737   5.788   9.919 -0.2067  0.3614 -0.3361
37313SOL     OW18796   1.073   0.298   8.983  0.0386  0.4371  0.6943
37313SOL    HW118797   1.085   0.273   9.074  2.3644 -0.8034  0.1117
37313SOL    HW218798   1.155   0.341   8.958  0.1722 -0.8075 -1.2605
37314SOL     OW18799   1.555   7.548   9.980  0.0445  0.0305  0.2014
37314SOL    HW118800   1.487   7.546  10.046 -0.4198  0.5278 -0.2483
37314SOL    HW218801   1.565   7.641   9.958  1.4464  0.0654  0.8443
37315SOL     OW18802   5.857   9.665   7.983 -0.0825 -0.3228  0.2373
37315SOL    HW118803   5.789   9.600   8.002  0.1560 -0.2971  1.2898
37315SOL    HW218804   5.903   9.631   7.907 -2.0879  0.3083 -1.3608
37316SOL     OW18805   9.404   9.261   6.532  0.5131 -0.1772 -0.4870
37316SOL    HW118806   9.397   9.243   6.438 -1.0112  0.7264 -0.5891
37316SOL    HW218807   9.459   9.340   6.537  1.9641 -1.1501 -0.4717
37317SOL     OW18808   7.854  11.523   7.667 -0.9268 -0.7716  0.3127
37317SOL    HW118809   7.792  11.592   7.644  0.0377 -0.1029 -0.4236
37317SOL    HW218810   7.855  11.522   7.762 -0.8356  0.3743  0.3429
37318SOL     OW18811   7.946   6.999   4.137 -0.1053 -0.4118  0.7759
37318SOL    HW118812   7.930   6.958   4.222 -0.0441 -1.5285  0.2778
37318SOL    HW218813   7.859   7.001   4.095 -0.2178  0.5694  1.0411
37319SOL     OW18814   3.727   2.060   4.308  0.2573  0.5908  0.6239
37319SOL    HW118815   3.746   2.077   4.400  2.6297 -2.0466  0.7401
37319SOL    HW218816   3.684   1.975   4.308 -0.8067  1.0841 -0.6837
37320SOL     OW18817  10.046   0.980   0.078  0.3021  0.0683  0.8893
37320SOL    HW118818  10.079   0.928   0.004  2.2220  0.0759  1.6720
37320SOL    HW218819  10.008   0.916   0.138 -1.0906  0.0421  0.0318
37321SOL     OW18820   7.407  12.257   4.842 -0.1342 -0.1215 -0.3856
37321SOL    HW118821   7.328  12.247   4.896  1.5490 -1.1577  2.0384
37321SOL    HW218822   7.407  12.180   4.785 -0.6766 -0.2818 -0.1781
37322SOL     OW18823   0.148   0.577   2.365 -0.0580 -0.2530  0.2791
37322SOL    HW118824   0.149   0.557   2.459 -2.8763 -2.1996  0.0038
37322SOL    HW218825   0.203   0.509   2.326 -0.1675 -0.3878  0.3613
37323SOL     OW18826   5.136   2.648   8.859  0.2936 -0.2438 -0.3014
37323SOL    HW118827   5.161   2.595   8.784  0.3211 -2.5092  1.2029
37323SOL    HW218828   5.137   2.587   8.933  0.6787  1.9580  1.6320
37324SOL     OW18829   8.027  11.241   4.106  0.1300 -0.3803  0.0663
37324SOL    HW118830   8.123  11.240   4.104  0.1503  0.7367 -0.9272
37324SOL    HW218831   8.005  11.277   4.192  0.6207 -0.1181  0.0856
37325SOL     OW18832   2.961   9.301   5.394 -0.2340  0.1661  0.2351
37325SOL    HW118833   3.045   9.291   5.440  0.1963  1.8636 -0.1089
37325SOL    HW218834   2.927   9.385   5.424 -1.0983  0.1932 -0.7629
37326SOL     OW18835   9.440  10.686   0.161 -0.0370  0.4935 -0.3427
37326SOL    HW118836   9.470  10.616   0.219 -1.6645  0.8130  0.9663
37326SOL    HW218837   9.484  10.764   0.193 -0.8589  0.6518  0.4025
37327SOL     OW18838   8.755   8.803   4.204  0.0645  0.4155  0.9498
37327SOL    HW118839   8.737   8.716   4.240 -0.3872  0.5389  1.0243
37327SOL    HW218840   8.763   8.859   4.281  2.1681  0.1292  1.0162
37328SOL     OW18841  10.480   2.354   4.001 -0.1744 -0.3486  0.2608
37328SOL    HW118842  10.527   2.271   4.013  2.4198  0.6570 -1.8898
37328SOL    HW218843  10.545   2.422   4.020 -1.6621  1.1785  0.1262
37329SOL     OW18844   6.151   3.452   4.602 -0.0921 -0.6358  0.1843
37329SOL    HW118845   6.155   3.534   4.652  0.4798 -1.4412  1.5248
37329SOL    HW218846   6.084   3.400   4.647  0.3182 -1.3121  0.0237
37330SOL     OW18847   4.231   1.258   1.353  0.6155 -0.3980 -0.0403
37330SOL    HW118848   4.146   1.250   1.396  0.6974  0.0206  0.2016
37330SOL    HW218849   4.290   1.291   1.421  0.0549  3.5235 -1.1819
37331SOL     OW18850   4.864   5.846   3.705 -0.1691  0.0205 -0.6821
37331SOL    HW118851   4.795   5.854   3.771  1.3815 -0.3575  1.0643
37331SOL    HW218852   4.832   5.779   3.645 -0.9541 -0.7827  0.5787
37332SOL     OW18853  10.388   2.914   6.125  0.0496 -0.3835 -0.2873
37332SOL    HW118854  10.324   2.864   6.174 -2.0507  0.5703 -1.8717
37332SOL    HW218855  10.425   2.852   6.062 -0.5934 -0.5719 -0.4868
37333SOL     OW18856   7.870  12.373   2.435  0.0616 -0.7702  0.1060
37333SOL    HW118857   7.849  12.328   2.353  0.4595  1.2812 -1.1900
37333SOL    HW218858   7.963  12.356   2.449  0.1839 -0.4843 -0.3196
37334SOL     OW18859   9.182   8.458   3.078 -0.1888 -0.2989  0.4262
37334SOL    HW118860   9.250   8.496   3.022 -1.2184  0.7654 -0.1619
37334SOL    HW218861   9.150   8.382   3.029 -0.4393  0.0783 -0.0061
37335SOL     OW18862   0.469   1.431   9.254  0.3966 -0.5903 -0.2720
37335SOL    HW118863   0.457   1.349   9.206 -0.8672 -1.2625  1.1199
37335SOL    HW218864   0.421   1.418   9.336 -1.2584  2.1347 -0.6947
37336SOL     OW18865   7.414   4.903   8.129 -0.1225  0.1654  0.9173
37336SOL    HW118866   7.415   4.814   8.164 -0.0180  0.3280  1.3315
37336SOL    HW218867   7.501   4.938   8.147  0.7273 -0.4890 -1.4624
37337SOL     OW18868  10.579   5.228   3.593 -0.2083  0.3421 -0.4827
37337SOL    HW118869  10.520   5.167   3.638  0.6767  1.3387  2.2506
37337SOL    HW218870  10.664   5.214   3.635  0.1903  2.8668 -0.2982
37338SOL     OW18871  12.220  12.090  11.159 -0.3296  0.3899  0.1761
37338SOL    HW118872  12.166  12.011  11.162  0.7471 -0.3501  0.8124
37338SOL    HW218873  12.218  12.118  11.068 -2.9300  1.2268  0.4274
37339SOL     OW18874   3.509  10.943   9.070  0.0348  0.2428  0.3998
37339SOL    HW118875   3.469  10.957   8.985 -0.1464  1.3903  0.6544
37339SOL    HW218876   3.600  10.972   9.059 -0.1483  0.9711  0.7465
37340SOL     OW18877   1.969   1.403  10.472  0.5899 -0.1709  0.5196
37340SOL    HW118878   1.994   1.373  10.385  0.9687  1.4960  0.0180
37340SOL    HW218879   2.046   1.387  10.526  1.3303  1.1436 -0.0792
37341SOL     OW18880  11.070   0.767   0.955  0.8122 -0.4881 -0.5321
37341SOL    HW118881  11.004   0.710   0.994  0.3820  0.1336 -0.3413
37341SOL    HW218882  11.142   0.766   1.017  1.0612 -1.3062 -0.8230
37342SOL     OW18883  11.442   6.045   5.352  0.2973 -0.0704  0.1047
37342SOL    HW118884  11.534   6.062   5.331 -0.3650 -0.0176 -3.2801
37342SOL    HW218885  11.425   5.960   5.313 -0.9009 -0.5493  1.5848
37343SOL     OW18886  11.514   7.236  11.471 -0.4614  0.3507  0.0113
37343SOL    HW118887  11.427   7.266  11.497  0.5829  1.1263  2.9686
37343SOL    HW218888  11.544   7.303  11.409 -1.1760  1.2352  0.5833
37344SOL     OW18889  10.364   6.277   2.416  0.2451 -0.7456  0.5742
37344SOL    HW118890  10.324   6.324   2.489 -0.4733 -1.1119  0.4265
37344SOL    HW218891  10.452   6.314   2.409  0.1594 -0.3793  1.3215
37345SOL     OW18892  10.563   9.811   0.192 -0.4738 -0.5265  0.6325
37345SOL    HW118893  10.487   9.847   0.236 -1.1975 -2.3164  0.9633
37345SOL    HW218894  10.599   9.883   0.142 -2.0442  0.5159  0.9371
37346SOL     OW18895   8.392   3.086   3.836  0.3768 -0.5878 -0.2305
37346SOL    HW118896   8.334   3.015   3.864  0.6057 -0.6327  0.1341
37346SOL    HW218897   8.408   3.137   3.916 -0.3347  0.2783 -0.6216
37347SOL     OW18898   6.038   8.282  10.398 -0.2283  0.5423 -0.3216
37347SOL    HW118899   6.080   8.355  10.353 -1.0809  0.8517 -0.6286
37347SOL    HW218900   6.090   8.205  10.372  0.2518  0.9361 -0.5515
37348SOL     OW18901   3.270   9.257   9.031 -0.2606  0.5616  0.1302
37348SOL    HW118902   3.210   9.193   8.993 -2.5663  1.7873  1.4183
37348SOL    HW218903   3.295   9.313   8.957 -3.3722  1.9340 -0.0650
37349SOL     OW18904  11.049   1.374   0.654  0.2839  0.0352 -0.4717
37349SOL    HW118905  10.964   1.417   0.650 -0.4938 -1.4399 -0.5400
37349SOL    HW218906  11.073   1.375   0.747 -0.1034 -0.1077 -0.3710
37350SOL     OW18907  12.246   8.206   9.277 -0.0031  0.3197  0.3263
37350SOL    HW118908  12.230   8.113   9.293  2.7985 -0.2556  0.2456
37350SOL    HW218909  12.276   8.241   9.361  1.5051  0.4801 -0.2435
37351SOL     OW18910   8.501   0.044  10.153 -0.0428  0.4545 -0.2825
37351SOL    HW118911   8.486  -0.022  10.221 -0.7847  0.2237 -0.6476
37351SOL    HW218912   8.479   0.127  10.194 -1.4099  0.2212 -0.4994
37352SOL     OW18913   0.716  11.070   1.310  0.6013 -0.6919 -0.5352
37352SOL    HW118914   0.642  11.126   1.335  1.3308 -0.4975  1.3158
37352SOL    HW218915   0.688  10.981   1.331  0.3941 -0.7691 -1.1165
37353SOL     OW18916   2.964   0.834   9.259  0.0483  0.2429 -0.3804
37353SOL    HW118917   2.985   0.903   9.195  3.1842 -0.5505 -0.3564
37353SOL    HW218918   2.982   0.873   9.344 -5.8768  1.9408  0.5296
37354SOL     OW18919   1.655   4.862   5.510  0.1166  0.3506 -0.0481
37354SOL    HW118920   1.626   4.773   5.527  1.3043 -0.0422 -0.0138
37354SOL    HW218921   1.657   4.904   5.596 -1.1727  0.6601 -0.1462
37355SOL     OW18922   5.595   5.220   6.388 -0.0791 -0.1382 -0.3062
37355SOL    HW118923   5.650   5.147   6.361  0.1213 -0.6238  1.3091
37355SOL    HW218924   5.562   5.195   6.474 -0.2246  1.5652  0.1707
37356SOL     OW18925   5.805   2.679   4.439  0.2999 -0.4200  0.4406
37356SOL    HW118926   5.766   2.762   4.410 -2.2830 -1.5424  0.4303
37356SOL    HW218927   5.886   2.671   4.389  1.6043  2.9015  1.7260
37357SOL     OW18928   2.603   4.001  12.232 -0.0705 -0.4544 -0.8726
37357SOL    HW118929   2.683   4.010  12.182  0.4994 -0.5735 -0.0074
37357SOL    HW218930   2.537   4.049  12.182  0.2434 -1.3800 -2.2043
37358SOL     OW18931   9.722   9.121   9.429 -0.2267  0.1261  0.0362
37358SOL    HW118932   9.797   9.172   9.398  0.8914 -0.4078  1.7013
37358SOL    HW218933   9.676   9.180   9.488  0.7514 -0.5424  1.5273
37359SOL     OW18934  11.608   5.949   4.227 -1.0454 -0.1998  0.4438
37359SOL    HW118935  11.621   5.865   4.183  1.2947 -0.1413  0.8874
37359SOL    HW218936  11.537   5.991   4.179 -1.8725 -2.1673 -0.1606
37360SOL     OW18937   9.582   9.891   4.936 -0.2650  0.2077  0.4738
37360SOL    HW118938   9.514   9.861   4.996 -0.8517  0.6962  0.0718
37360SOL    HW218939   9.660   9.843   4.962 -1.0472 -1.2834  0.1707
37361SOL     OW18940   5.283   6.562   7.138  0.1614  0.0068  0.4723
37361SOL    HW118941   5.306   6.643   7.184 -0.4648  0.3844  0.1391
37361SOL    HW218942   5.332   6.566   7.056  0.7778 -0.3590  0.8125
37362SOL     OW18943   3.275  10.145  12.529  0.2619  0.2344 -0.4876
37362SOL    HW118944   3.272  10.079  12.460 -0.5750  1.0116 -1.2330
37362SOL    HW218945   3.324  10.218  12.490  0.8452  0.2051  0.1836
37363SOL     OW18946   9.972   8.998   6.437  0.2260  0.3187  0.0607
37363SOL    HW118947   9.949   8.913   6.399  2.9967 -1.0119  1.1185
37363SOL    HW218948  10.038   8.978   6.503  0.8900  3.3152  0.4445
37364SOL     OW18949  11.633   8.898  11.627  0.1597  0.1176  0.1150
37364SOL    HW118950  11.654   8.838  11.699  1.7920  0.6412  0.1183
37364SOL    HW218951  11.686   8.867  11.554 -1.5221 -0.4411 -0.9249
37365SOL     OW18952  10.045  10.894   0.402  0.1572 -0.2511 -0.1924
37365SOL    HW118953  10.118  10.899   0.341  1.3491 -0.4443  1.1717
37365SOL    HW218954  10.004  10.809   0.383  0.4518 -0.2740 -0.7653
37366SOL     OW18955   7.752  11.695  10.149  0.2103 -0.2504 -0.5447
37366SOL    HW118956   7.723  11.748  10.075  0.5512  0.5614 -0.1094
37366SOL    HW218957   7.826  11.645  10.114  1.3309  1.2167 -0.4014
37367SOL     OW18958   5.943   2.619   1.002  0.6179  0.1215 -0.1656
37367SOL    HW118959   5.972   2.575   1.082 -0.2185  0.1012  0.1381
37367SOL    HW218960   5.851   2.595   0.993  0.2508  1.4471 -0.2227
37368SOL     OW18961   7.216   6.741   2.626 -0.1028  0.0442 -0.5467
37368SOL    HW118962   7.188   6.650   2.621  1.5573 -0.6041  0.8987
37368SOL    HW218963   7.199   6.766   2.717  2.6007  0.0145  0.0495
37369SOL     OW18964   8.434   7.472   4.124 -0.3492  0.2286  0.0474
37369SOL    HW118965   8.481   7.419   4.189 -1.2055 -1.5953 -0.7495
37369SOL    HW218966   8.458   7.562   4.145 -1.2169 -0.1911  3.3941
37370SOL     OW18967   5.158   9.582   9.848  0.1355  0.2499  0.1444
37370SOL    HW118968   5.085   9.564   9.789  0.4752  1.3545 -0.6544
37370SOL    HW218969   5.118   9.587   9.935 -0.8970  1.6480 -0.3744
37371SOL     OW18970   2.133   6.089   2.203 -0.4897  0.0709  0.3254
37371SOL    HW118971   2.052   6.133   2.229 -0.4089  0.1081  0.5146
37371SOL    HW218972   2.104   6.022   2.141 -0.7883 -0.5822  1.1490
37372SOL     OW18973   7.804  10.174   7.678 -0.1464 -0.3091  0.7536
37372SOL    HW118974   7.889  10.187   7.720  0.5052 -1.2601 -0.2080
37372SOL    HW218975   7.824  10.128   7.596 -1.4047  1.1815 -0.4653
37373SOL     OW18976   2.727   8.507  11.679 -0.2025  1.2517  0.3291
37373SOL    HW118977   2.759   8.436  11.735  0.9151  2.0914  0.7934
37373SOL    HW218978   2.750   8.479  11.590 -0.4098  0.7043  0.4463
37374SOL     OW18979   6.592   8.638   7.269  0.1147 -0.3106 -0.2183
37374SOL    HW118980   6.673   8.679   7.237  0.2573 -0.9228 -0.6538
37374SOL    HW218981   6.612   8.545   7.273 -0.7056 -0.5146 -0.7311
37375SOL     OW18982  10.502   0.605   4.249 -0.2024 -0.5242  0.2424
37375SOL    HW118983  10.544   0.691   4.247 -0.7406 -0.1923 -2.8816
37375SOL    HW218984  10.420   0.620   4.296  0.1082  0.4430  0.4974
37376SOL     OW18985  12.433   4.162   2.041 -0.3247 -0.0225  0.4547
37376SOL    HW118986  12.417   4.114   1.960  0.6899 -0.4721  0.5005
37376SOL    HW218987  12.396   4.107   2.110  1.8262 -1.3687  0.6287
37377SOL     OW18988  11.132   6.804   7.411 -0.2905  0.2652 -0.3869
37377SOL    HW118989  11.107   6.801   7.503 -0.7304 -1.9691 -0.5364
37377SOL    HW218990  11.066   6.860   7.369 -0.5522  0.6345  0.5038
37378SOL     OW18991   3.369  11.724   5.503  0.4098  0.5272  0.7046
37378SOL    HW118992   3.368  11.801   5.560 -0.5368 -0.5953  2.2640
37378SOL    HW218993   3.385  11.650   5.562  0.2260 -0.5953 -0.6023
37379SOL     OW18994   5.168   0.049   5.633 -0.2287 -0.1308 -0.0934
37379SOL    HW118995   5.075   0.071   5.642 -0.2411 -0.3534  0.4149
37379SOL    HW218996   5.171  -0.014   5.562 -0.5543 -0.6061  0.3066
37380SOL     OW18997   7.871  11.305   8.032 -0.0538  0.0790  0.5005
37380SOL    HW118998   7.920  11.355   7.967 -0.0805 -0.5888 -0.0462
37380SOL    HW218999   7.878  11.356   8.113  1.0705  0.2691  0.2960
37381SOL     OW19000   1.951   5.621   4.375 -0.0305 -0.4043  0.4231
37381SOL    HW119001   1.866   5.663   4.383 -0.3428 -0.8611 -0.3820
37381SOL    HW219002   2.011   5.678   4.423 -0.4428  0.9438 -0.6155
37382SOL     OW19003  12.145   5.880   5.961  0.1832 -0.3607 -0.1306
37382SOL    HW119004  12.148   5.814   6.031 -0.9638 -0.0071  0.2829
37382SOL    HW219005  12.159   5.830   5.881  1.6058 -0.7614  0.3414
37383SOL     OW19006   4.676   6.369   7.739 -0.1066  0.0912 -0.4007
37383SOL    HW119007   4.701   6.456   7.706  0.4579 -0.4976 -1.5809
37383SOL    HW219008   4.593   6.351   7.695  1.1698 -1.1569 -2.4727
37384SOL     OW19009   9.805   7.938  10.710  0.0115 -0.2169  0.4193
37384SOL    HW119010   9.718   7.975  10.694  0.5839  1.4510  1.0545
37384SOL    HW219011   9.816   7.873  10.641 -0.9900  0.8672 -0.8006
37385SOL     OW19012   8.522   5.180   4.011  0.0053 -0.3329 -0.7688
37385SOL    HW119013   8.554   5.130   4.086 -0.0817  0.5277 -0.1439
37385SOL    HW219014   8.601   5.208   3.966  0.0510 -1.6941 -1.5940
37386SOL     OW19015   8.150   4.355  10.786  0.5544 -0.3785  0.1808
37386SOL    HW119016   8.141   4.323  10.697  0.4541  0.7687 -0.2347
37386SOL    HW219017   8.142   4.276  10.841 -3.7841 -0.7202 -0.5372
37387SOL     OW19018   3.277   3.852   9.482 -0.1751  0.1966 -0.1587
37387SOL    HW119019   3.220   3.794   9.532 -1.4781 -0.2223 -2.0629
37387SOL    HW219020   3.322   3.904   9.549  0.2150 -2.1832  1.5705
37388SOL     OW19021   0.702   4.206   5.762 -0.4570 -0.1422  0.2463
37388SOL    HW119022   0.652   4.153   5.700 -1.7209  0.4668  0.7168
37388SOL    HW219023   0.646   4.283   5.778  1.1720  1.1990 -0.1762
37389SOL     OW19024   2.455   5.177   3.485  0.0837  0.0218  0.1515
37389SOL    HW119025   2.434   5.197   3.576  1.4324  0.4257  0.3880
37389SOL    HW219026   2.528   5.116   3.489 -0.2938 -0.5069 -0.6587
37390SOL     OW19027   6.209   6.040  11.152  0.0184  0.0305 -0.5261
37390SOL    HW119028   6.127   6.086  11.130 -0.1862 -0.9060 -1.8582
37390SOL    HW219029   6.205   6.029  11.247 -1.8314 -0.7487 -0.6420
37391SOL     OW19030   5.207   7.598   6.107 -0.6929  0.1461  0.2617
37391SOL    HW119031   5.259   7.667   6.067  0.4412 -0.1575  1.1573
37391SOL    HW219032   5.181   7.634   6.192  0.0827 -0.5981  0.8250
37392SOL     OW19033   3.378   0.219  10.626 -0.1111  0.0390 -0.9715
37392SOL    HW119034   3.430   0.246  10.701 -0.8938 -1.9080  0.3382
37392SOL    HW219035   3.401   0.282  10.557  4.2309 -0.8839 -0.6387
37393SOL     OW19036   5.359   5.423   1.517 -1.0573  0.5388  0.3032
37393SOL    HW119037   5.339   5.443   1.425 -0.6721 -0.2145  0.0410
37393SOL    HW219038   5.310   5.487   1.567 -0.1622  1.8795 -0.4724
37394SOL     OW19039  10.041   1.493  10.777  0.1587  0.4491  0.0391
37394SOL    HW119040  10.026   1.451  10.693  0.1725  0.1932  0.1648
37394SOL    HW219041   9.997   1.437  10.841  0.5789  0.3636  0.2634
37395SOL     OW19042   9.976   5.982   5.356 -0.1930  0.2952  0.0669
37395SOL    HW119043  10.007   5.910   5.412 -0.7114 -0.7568 -0.9635
37395SOL    HW219044   9.958   6.054   5.417 -1.4062 -1.0394  1.3412
37396SOL     OW19045   4.297   9.637   9.622 -0.1471 -0.1505 -0.0685
37396SOL    HW119046   4.374   9.682   9.585 -0.9936  1.0566 -0.4138
37396SOL    HW219047   4.335   9.566   9.674  1.3007  1.2479  0.9123
37397SOL     OW19048   9.278   1.511   3.992 -0.2400  0.3042  0.1858
37397SOL    HW119049   9.233   1.577   3.940  0.5223  0.1659 -0.6753
37397SOL    HW219050   9.211   1.478   4.052 -0.7604  1.4772  0.2810
37398SOL     OW19051   8.386   3.142  11.684  0.3716  0.4745  0.1762
37398SOL    HW119052   8.466   3.119  11.731  0.2572 -2.5425 -0.9394
37398SOL    HW219053   8.416   3.167  11.596  0.1860  0.8675  0.2225
37399SOL     OW19054   3.933   9.495   9.118  0.3731 -0.0435  0.0587
37399SOL    HW119055   4.020   9.509   9.081  0.0692  0.3995 -0.5123
37399SOL    HW219056   3.949   9.468   9.209  1.1041 -0.1455 -0.0935
37400SOL     OW19057   7.237   7.174   6.816  0.5811 -0.1633 -0.0844
37400SOL    HW119058   7.308   7.170   6.752  0.3382  0.1958 -0.3854
37400SOL    HW219059   7.253   7.254   6.865  1.4643 -1.0639  1.1522
37401SOL     OW19060   8.677  10.791   3.500  0.5199  0.0207  0.3632
37401SOL    HW119061   8.649  10.877   3.533  0.3861 -0.9080  2.8923
37401SOL    HW219062   8.619  10.774   3.426  0.6652  2.1559 -0.3127
37402SOL     OW19063   7.684   1.487   1.750 -0.4713 -0.7925 -0.4546
37402SOL    HW119064   7.693   1.403   1.705 -0.5044 -0.3082 -1.3992
37402SOL    HW219065   7.774   1.514   1.767 -0.3862 -0.2625 -1.6362
37403SOL     OW19066   6.330   3.423   5.980  0.0744  0.3307 -0.2535
37403SOL    HW119067   6.270   3.498   5.982  0.0246  0.3051 -0.6787
37403SOL    HW219068   6.416   3.460   5.999  0.5254  0.9766 -3.1203
37404SOL     OW19069   0.911   5.121   9.965  0.1848  0.5066  0.1371
37404SOL    HW119070   1.003   5.128   9.941 -0.4097  1.4072 -2.0697
37404SOL    HW219071   0.892   5.027   9.959  0.9617  0.2959  0.7461
37405SOL     OW19072   4.707   4.923   1.952 -0.0694  0.6334  0.3455
37405SOL    HW119073   4.622   4.921   1.909 -0.1644 -2.3337  0.4069
37405SOL    HW219074   4.693   4.876   2.035  1.8530 -1.2201 -0.2826
37406SOL     OW19075   4.772  11.223  11.183 -0.4831  0.2708  0.1759
37406SOL    HW119076   4.790  11.153  11.120  0.1689  0.2325  0.3918
37406SOL    HW219077   4.677  11.234  11.181 -0.4155  0.8411 -1.4259
37407SOL     OW19078  10.259   0.047  10.878  0.2717 -0.0215  0.0791
37407SOL    HW119079  10.220   0.024  10.794 -1.0607  1.8056  0.1257
37407SOL    HW219080  10.190   0.029  10.942  0.2833  1.0979  0.4422
37408SOL     OW19081  11.947   4.712   2.771  0.0384 -0.6593  0.5930
37408SOL    HW119082  11.942   4.743   2.680 -1.6497  0.3151  0.9928
37408SOL    HW219083  12.025   4.655   2.772  0.0136 -0.8073 -1.4850
37409SOL     OW19084  11.281  11.144  12.544 -0.0376 -0.5588  0.0210
37409SOL    HW119085  11.306  11.236  12.544 -0.7395 -0.3599 -0.4076
37409SOL    HW219086  11.230  11.133  12.464  0.5772 -1.4720 -0.2708
37410SOL     OW19087   0.031   0.295   3.997  0.6576 -0.0927  0.9581
37410SOL    HW119088   0.075   0.277   3.914 -0.4197  1.0989  0.0916
37410SOL    HW219089   0.035   0.390   4.006 -1.1216 -0.0070  1.1749
37411SOL     OW19090   5.665   5.200  11.658  0.3191 -0.3740 -0.3478
37411SOL    HW119091   5.599   5.153  11.607 -0.4033 -0.4372  0.5962
37411SOL    HW219092   5.640   5.182  11.749 -0.0618  1.9600  0.0542
37412SOL     OW19093   2.013   9.120   1.828  0.6465 -0.2056  0.1752
37412SOL    HW119094   1.954   9.192   1.808  0.0057 -0.9865 -0.8239
37412SOL    HW219095   1.983   9.089   1.914  0.3331  0.1175  0.1884
37413SOL     OW19096   4.132   1.039   2.781  0.2936 -0.5993  0.2283
37413SOL    HW119097   4.043   1.047   2.813 -0.6616 -3.0493 -1.5345
37413SOL    HW219098   4.182   1.007   2.856 -0.1675  1.1069  1.3193
37414SOL     OW19099   4.625   8.834  12.413 -0.6709 -0.0424  0.4958
37414SOL    HW119100   4.672   8.891  12.474  0.7382 -0.0323 -0.5420
37414SOL    HW219101   4.579   8.894  12.355 -1.6596 -0.0467  1.2445
37415SOL     OW19102   6.795   7.375   9.266 -0.2744  0.6777 -0.3711
37415SOL    HW119103   6.847   7.303   9.230 -0.2187  1.0439 -1.0225
37415SOL    HW219104   6.793   7.357   9.360  2.3135  1.4635 -0.0788
37416SOL     OW19105   0.999   0.006   0.052 -0.0380  0.2467 -0.0655
37416SOL    HW119106   0.995   0.101   0.066 -1.6159 -0.0534  1.9371
37416SOL    HW219107   0.915  -0.015   0.009 -0.3306 -0.4122  0.8066
37417SOL     OW19108   5.919   8.092   9.852 -0.2423 -1.1843 -0.7091
37417SOL    HW119109   5.966   8.035   9.792  2.2416  2.1429 -2.2010
37417SOL    HW219110   5.919   8.178   9.810  1.3045  1.3378  3.7089
37418SOL     OW19111   3.170   2.195   5.092 -0.1981 -0.0012  0.3997
37418SOL    HW119112   3.155   2.111   5.135  0.2185 -0.3704 -0.1602
37418SOL    HW219113   3.220   2.173   5.014 -0.3466  0.7368  0.0889
37419SOL     OW19114   4.292   3.126  12.018 -0.1838  0.1649 -0.3600
37419SOL    HW119115   4.302   3.038  11.982  0.4772  0.6806 -1.4916
37419SOL    HW219116   4.197   3.137  12.030 -0.2488 -0.7852  0.0491
37420SOL     OW19117   0.913   1.678   8.187 -0.4955  0.0520  0.5296
37420SOL    HW119118   0.885   1.624   8.261 -0.6672  0.1104  0.5093
37420SOL    HW219119   0.892   1.626   8.110 -0.8041  0.2121  0.5046
37421SOL     OW19120   7.133   8.175   6.758 -0.2500 -0.2043 -0.1965
37421SOL    HW119121   7.129   8.091   6.712 -1.5085 -0.6053  0.5857
37421SOL    HW219122   7.226   8.196   6.762  0.3136 -2.5836  1.3656
37422SOL     OW19123   6.729  11.309   6.751 -0.8570 -0.3039 -0.0963
37422SOL    HW119124   6.758  11.300   6.660  0.3340 -1.2830  0.3495
37422SOL    HW219125   6.790  11.255   6.801 -1.8335 -0.2296  1.2298
37423SOL     OW19126   3.533   2.386  11.121  0.5899 -0.3077  0.0860
37423SOL    HW119127   3.581   2.464  11.091  0.3404  0.4091  1.4755
37423SOL    HW219128   3.445   2.418  11.138 -0.3658 -1.5362 -2.0988
37424SOL     OW19129   4.918   4.556   3.365 -0.5638  0.0256 -0.5296
37424SOL    HW119130   4.858   4.546   3.440  0.4987 -0.9933  0.2277
37424SOL    HW219131   4.910   4.473   3.317  0.7793 -0.4654  0.0312
37425SOL     OW19132   3.197   7.607   8.569  0.0116 -0.2160  0.2601
37425SOL    HW119133   3.192   7.635   8.478 -0.9755 -0.0445  0.3554
37425SOL    HW219134   3.172   7.685   8.619  0.9613 -0.1783  0.7079
37426SOL     OW19135   8.503   5.839   1.791  0.3490 -0.1823  0.0531
37426SOL    HW119136   8.593   5.862   1.814  0.0853  0.6129  0.3354
37426SOL    HW219137   8.457   5.923   1.790 -0.9582 -0.7895  2.3619
37427SOL     OW19138   6.812  12.359   5.884  0.4737 -0.1879  0.1671
37427SOL    HW119139   6.716  12.350   5.887  0.2990  1.1744 -0.7870
37427SOL    HW219140   6.838  12.355   5.976 -0.3126 -2.1613  0.3613
37428SOL     OW19141   6.013   4.171   1.749  0.4145  0.0588  0.6330
37428SOL    HW119142   6.038   4.261   1.770 -0.7166  0.0158  2.3847
37428SOL    HW219143   6.086   4.118   1.781  0.9781  0.3311 -0.1909
37429SOL     OW19144   5.416   8.590   1.591 -0.5932 -0.1196  0.0267
37429SOL    HW119145   5.501   8.624   1.561 -0.3133 -0.2468  0.6728
37429SOL    HW219146   5.383   8.658   1.650  0.2177 -1.1720  1.7674
37430SOL     OW19147  10.065   9.124   0.441 -0.2852 -0.1092  0.0248
37430SOL    HW119148  10.143   9.069   0.429 -0.6897 -0.6729 -0.0874
37430SOL    HW219149  10.065   9.183   0.365  0.1785  0.0742  0.1674
37431SOL     OW19150   7.942   3.875   5.411  0.6457  0.2017 -0.2317
37431SOL    HW119151   7.882   3.844   5.343  0.9844  0.5104 -0.6754
37431SOL    HW219152   8.012   3.919   5.363  2.3813 -2.0245  0.0844
37432SOL     OW19153   7.026  10.859   0.941 -0.4782 -0.0414  0.1443
37432SOL    HW119154   7.029  10.894   0.852 -1.1928  0.5133  0.3343
37432SOL    HW219155   7.013  10.765   0.930  1.3973 -0.2790 -0.3688
37433SOL     OW19156   2.720  11.372   5.167  0.2440 -0.2467 -0.0329
37433SOL    HW119157   2.644  11.424   5.140 -0.7884 -1.0721  1.1998
37433SOL    HW219158   2.696  11.282   5.147 -0.8453 -1.0048  3.9312
37434SOL     OW19159   7.205  11.696   8.525  0.0557  0.6882  0.5149
37434SOL    HW119160   7.206  11.704   8.430 -2.5734 -0.1626  0.3247
37434SOL    HW219161   7.142  11.761   8.555  0.9188  1.0155  1.7057
37435SOL     OW19162   1.444   2.469   9.973  0.6502 -0.1578 -0.4436
37435SOL    HW119163   1.457   2.564   9.968 -2.3782  0.3341 -0.4932
37435SOL    HW219164   1.422   2.442   9.884  1.7017 -1.0104 -0.4793
37436SOL     OW19165   1.126   6.313  10.607  0.5861  0.5057 -0.5289
37436SOL    HW119166   1.125   6.221  10.634  3.0105  0.2428 -1.1466
37436SOL    HW219167   1.097   6.361  10.685  0.5669 -0.6875  0.2257
37437SOL     OW19168   8.580   7.750   5.833  0.0089 -0.0677 -0.5273
37437SOL    HW119169   8.533   7.700   5.901 -0.3246  1.4195  0.3697
37437SOL    HW219170   8.668   7.712   5.833 -0.8999 -2.3486 -1.6606
37438SOL     OW19171   9.797   8.981  10.963 -0.1544  0.2266  0.1306
37438SOL    HW119172   9.708   8.947  10.965 -0.6501  1.4758  0.1930
37438SOL    HW219173   9.835   8.944  10.883 -0.6926 -0.3842  0.1485
37439SOL     OW19174   4.379  10.977   4.127  0.0125  0.1493 -0.3982
37439SOL    HW119175   4.311  10.939   4.072  0.1034 -0.2321 -0.2478
37439SOL    HW219176   4.332  11.039   4.183 -0.4536 -1.1740  0.7255
37440SOL     OW19177   2.674  11.770   8.157  0.1342 -0.2153 -0.0789
37440SOL    HW119178   2.676  11.865   8.151 -1.2050 -0.0731  1.1460
37440SOL    HW219179   2.679  11.752   8.251 -1.5904 -1.2589 -0.1478
37441SOL     OW19180   5.102   2.374   0.081  0.3955 -1.2027  0.1286
37441SOL    HW119181   5.186   2.415   0.101  0.4407 -0.4438 -1.4466
37441SOL    HW219182   5.060   2.433   0.018 -0.5925 -2.3784 -0.3721
37442SOL     OW19183   2.614   2.163   7.755 -0.4504  0.1301 -0.3960
37442SOL    HW119184   2.561   2.243   7.750 -0.9904 -0.1205  0.8752
37442SOL    HW219185   2.661   2.171   7.839  1.2601  0.1672 -1.3113
37443SOL     OW19186   6.135   3.995  10.095 -0.0928 -0.3980 -0.2996
37443SOL    HW119187   6.179   3.926  10.144 -1.5589 -0.8190  0.4946
37443SOL    HW219188   6.099   3.951  10.018 -0.8905 -0.5155  0.1254
37444SOL     OW19189   1.373   1.760  12.430  0.1471  0.0985 -0.1066
37444SOL    HW119190   1.413   1.841  12.460 -1.8412  1.2190 -0.3598
37444SOL    HW219191   1.307   1.787  12.365 -1.3256 -1.5839  0.5937
37445SOL     OW19192   6.647   0.636  10.448  0.4947  0.3230  0.4732
37445SOL    HW119193   6.590   0.711  10.463 -0.2043  0.1604 -1.1200
37445SOL    HW219194   6.602   0.563  10.490 -1.4701 -0.1520 -2.1555
37446SOL     OW19195   0.200  10.139   4.282 -0.2394 -0.5726 -0.0054
37446SOL    HW119196   0.200  10.099   4.368  1.0764 -1.7648 -0.5167
37446SOL    HW219197   0.108  10.141   4.255 -0.9077  1.4832  2.1187
37447SOL     OW19198   2.300   2.431   0.249 -0.2958 -0.2235 -0.4377
37447SOL    HW119199   2.229   2.433   0.313  1.1164 -1.3192  1.2270
37447SOL    HW219200   2.260   2.466   0.169 -2.5793 -0.3965  0.5441
37448SOL     OW19201  11.653   5.176   5.540  0.0489 -0.1880  0.2793
37448SOL    HW119202  11.689   5.164   5.628  3.1469  1.1967 -0.6532
37448SOL    HW219203  11.674   5.095   5.494 -0.9017 -0.6185  0.5894
37449SOL     OW19204   9.718   3.879   4.719  0.1135  0.1331  0.2453
37449SOL    HW119205   9.792   3.819   4.709  0.0450 -0.1544  1.3414
37449SOL    HW219206   9.737   3.927   4.800  0.2478  1.7192 -0.6748
37450SOL     OW19207   4.495   2.329   2.120 -0.7045 -0.0081 -0.5365
37450SOL    HW119208   4.581   2.326   2.162 -1.1564 -2.3500  0.3468
37450SOL    HW219209   4.471   2.421   2.121  0.0722  0.2859  2.8275
37451SOL     OW19210   4.864   4.731   8.063  0.0105  0.3723  0.1304
37451SOL    HW119211   4.871   4.685   7.979  0.8675  0.1417  0.3213
37451SOL    HW219212   4.905   4.816   8.048 -0.4753  0.6088  0.1212
37452SOL     OW19213  10.173   1.935  11.274  0.2495 -0.6978 -0.0758
37452SOL    HW119214  10.187   2.000  11.205  1.6124 -0.7182  0.1640
37452SOL    HW219215  10.204   1.978  11.354 -1.0571 -0.7754  0.4992
37453SOL     OW19216  12.049   5.515   6.980  0.0459 -0.7179 -0.4938
37453SOL    HW119217  11.967   5.530   7.028  0.0468 -0.8557 -0.4491
37453SOL    HW219218  12.066   5.598   6.935 -0.3852 -0.8553 -0.9129
37454SOL     OW19219   4.857   4.165   7.811 -0.2420 -0.3104  0.9739
37454SOL    HW119220   4.776   4.211   7.791  0.3501  1.0967  1.6839
37454SOL    HW219221   4.829   4.076   7.835 -1.7750  0.6824  3.1247
37455SOL     OW19222   2.989  12.456   0.500 -0.2620 -0.2955 -0.2074
37455SOL    HW119223   2.956  12.541   0.471 -2.8363 -2.1950 -3.6663
37455SOL    HW219224   2.933  12.432   0.573 -0.3744  0.4603 -0.0437
37456SOL     OW19225   6.820   4.871   3.982  0.5566  0.2311  0.5689
37456SOL    HW119226   6.832   4.890   3.889  0.0419  1.7920  0.7807
37456SOL    HW219227   6.852   4.781   3.993  1.8538  0.4749 -0.8463
37457SOL     OW19228   4.602   0.777  11.680 -0.1932  0.2601 -0.1053
37457SOL    HW119229   4.523   0.766  11.625 -0.8367 -4.3658  1.3345
37457SOL    HW219230   4.591   0.863  11.720 -4.1141  0.2219 -0.6836
37458SOL     OW19231   4.740   9.450   9.423 -0.1517  0.3006  0.5769
37458SOL    HW119232   4.684   9.492   9.357  0.1213  1.6670  1.1906
37458SOL    HW219233   4.824   9.493   9.413 -0.0508  0.3704  1.6842
37459SOL     OW19234   9.039   9.643  11.984 -0.3512  0.0691 -0.3931
37459SOL    HW119235   9.008   9.711  12.044  1.9075  1.3034 -0.4936
37459SOL    HW219236   8.988   9.566  12.006 -1.5966  1.2528  1.1333
37460SOL     OW19237   3.028   5.109   9.020  0.8676 -0.1089  0.7509
37460SOL    HW119238   3.063   5.033   8.973  0.4522  0.4323 -0.4706
37460SOL    HW219239   3.042   5.183   8.961  0.1642  0.5704  1.4024
37461SOL     OW19240   5.103   7.200   4.014 -0.1813 -0.2982 -0.5552
37461SOL    HW119241   5.128   7.262   3.945 -3.0345 -0.5420 -1.9502
37461SOL    HW219242   5.009   7.214   4.026 -0.6414 -3.3024  0.1085
37462SOL     OW19243  11.793   0.306   2.738  0.3951  0.2894 -0.4621
37462SOL    HW119244  11.788   0.400   2.756  2.1441  0.1130  1.1797
37462SOL    HW219245  11.831   0.300   2.650 -0.3744  1.0881 -0.8696
37463SOL     OW19246   7.786   4.908   0.787  0.4847  0.0581 -0.2806
37463SOL    HW119247   7.873   4.917   0.825  1.6059 -0.5931 -2.5187
37463SOL    HW219248   7.793   4.831   0.730 -1.8555 -0.5885  0.1994
37464SOL     OW19249   2.757   2.316  11.711 -0.0105  0.1361  0.3103
37464SOL    HW119250   2.664   2.294  11.699 -0.1948 -0.0509  1.8744
37464SOL    HW219251   2.801   2.231  11.715  0.0837  0.1959  0.5662
37465SOL     OW19252   4.211  10.164   3.744 -0.4093  0.1849  0.2961
37465SOL    HW119253   4.246  10.222   3.677 -0.4988 -0.3718 -0.2380
37465SOL    HW219254   4.252  10.194   3.825 -0.0233  0.6366 -0.0594
37466SOL     OW19255  11.564   4.322   7.744  1.1618  0.0821  0.4194
37466SOL    HW119256  11.633   4.329   7.809 -1.6635  1.1456  3.6214
37466SOL    HW219257  11.561   4.409   7.704  1.7383 -0.0169  0.1500
37467SOL     OW19258   4.311  11.334  11.590  0.7722  0.1035 -0.6788
37467SOL    HW119259   4.269  11.350  11.506 -0.7868 -0.2677 -0.0182
37467SOL    HW219260   4.301  11.416  11.638 -1.8562 -0.7804  0.5092
37468SOL     OW19261  11.149   7.302   8.952 -0.1228 -0.4886  0.0740
37468SOL    HW119262  11.101   7.335   9.028 -1.3798 -2.2158  0.0808
37468SOL    HW219263  11.193   7.379   8.917 -0.6073  0.6121  1.7525
37469SOL     OW19264  10.783   8.363   4.550 -0.2403 -0.0202 -0.3987
37469SOL    HW119265  10.695   8.334   4.524 -0.1043 -0.4377 -0.3984
37469SOL    HW219266  10.820   8.287   4.595  0.2048  0.0783 -0.5985
37470SOL     OW19267   0.981   4.217  12.355  0.5861  0.5139 -0.1327
37470SOL    HW119268   0.943   4.266  12.428  1.3930 -0.0555  0.7004
37470SOL    HW219269   0.994   4.129  12.390 -2.1057 -0.7530 -2.0117
37471SOL     OW19270   0.520   9.551   0.004 -0.7490 -0.0536  0.2518
37471SOL    HW119271   0.608   9.529  -0.027 -1.4280 -1.8174 -0.5453
37471SOL    HW219272   0.491   9.622  -0.053 -0.5455 -0.7385 -0.7299
37472SOL     OW19273   5.128   6.432   9.489 -0.0862  0.0329  0.2711
37472SOL    HW119274   5.129   6.501   9.423 -0.1610  0.6095  0.8751
37472SOL    HW219275   5.042   6.438   9.530  0.6141  0.9121  1.7002
37473SOL     OW19276   6.486   7.259   2.777 -0.2569  0.0808  0.1536
37473SOL    HW119277   6.405   7.289   2.819  1.0273  0.7121  2.2973
37473SOL    HW219278   6.548   7.248   2.849  1.5011 -0.7031 -1.4014
37474SOL     OW19279   5.335  11.503   2.589 -0.4324 -0.0938  0.1005
37474SOL    HW119280   5.312  11.587   2.629  1.7264  0.9522 -0.6944
37474SOL    HW219281   5.251  11.468   2.559 -1.4675  1.5220  0.8892
37475SOL     OW19282   5.164  11.407  11.259 -0.5809 -0.5397  0.1044
37475SOL    HW119283   5.116  11.399  11.342 -0.7532  0.6914  0.1355
37475SOL    HW219284   5.145  11.495  11.229 -2.9100 -1.8620 -2.7583
37476SOL     OW19285   2.967   6.096  11.486 -0.0374 -0.2041  1.3574
37476SOL    HW119286   2.917   6.066  11.410  1.9060 -0.8247  0.2672
37476SOL    HW219287   3.003   6.016  11.524 -0.0583  0.2116  2.2843
37477SOL     OW19288   6.676   8.161  11.827  0.2531 -0.1420  0.8528
37477SOL    HW119289   6.700   8.251  11.849  1.0593  0.5908 -2.5002
37477SOL    HW219290   6.759   8.117  11.813 -0.0956 -0.0671 -2.0070
37478SOL     OW19291   9.338   3.862   1.383  0.6183  0.0104 -0.0759
37478SOL    HW119292   9.310   3.862   1.474  2.1337  0.8227  0.4304
37478SOL    HW219293   9.259   3.880   1.333  0.2506  2.7467  1.3131
37479SOL     OW19294   1.525  11.746   1.125  0.0130 -0.4206 -0.1309
37479SOL    HW119295   1.546  11.837   1.101  1.3198 -0.4612  0.7567
37479SOL    HW219296   1.432  11.748   1.145 -0.0468  0.6560 -0.4288
37480SOL     OW19297  12.204   2.518   7.741 -0.0781  0.8851 -0.1985
37480SOL    HW119298  12.187   2.602   7.782 -1.5087  0.8118 -0.6128
37480SOL    HW219299  12.300   2.514   7.734  0.1414  1.4866  1.8498
37481SOL     OW19300   1.064   4.388   6.492  0.3741 -0.5004 -0.2564
37481SOL    HW119301   1.095   4.458   6.550  0.2000 -0.1603 -0.5664
37481SOL    HW219302   1.037   4.318   6.551  0.0596 -0.0993  0.0859
37482SOL     OW19303   6.117  11.278   3.142 -0.8583 -0.1978  0.3973
37482SOL    HW119304   6.201  11.235   3.155 -1.0859 -0.3173  1.5983
37482SOL    HW219305   6.084  11.242   3.060 -0.1230 -0.7780  0.3427
37483SOL     OW19306   7.171   3.361   5.534  0.2987 -0.4081  0.7426
37483SOL    HW119307   7.157   3.454   5.552  1.0287 -0.5716  2.4146
37483SOL    HW219308   7.247   3.339   5.588  0.6112 -1.7933 -0.2470
37484SOL     OW19309   1.244   0.902   1.787  0.2879 -0.0450  0.4559
37484SOL    HW119310   1.287   0.980   1.754  2.2784 -1.7700 -1.3621
37484SOL    HW219311   1.251   0.908   1.882 -0.1096  2.2054  0.3772
37485SOL     OW19312   6.894   9.318  11.051 -0.4940  0.8676  0.7010
37485SOL    HW119313   6.836   9.242  11.045 -0.9858  1.1080  2.0647
37485SOL    HW219314   6.877   9.368  10.972  0.4412 -0.8440 -0.6509
37486SOL     OW19315   5.695   9.910  11.115  0.5381 -0.4150  0.3595
37486SOL    HW119316   5.609   9.931  11.077  0.6505 -0.3217  0.1525
37486SOL    HW219317   5.676   9.882  11.204 -0.1735 -4.3263 -0.8339
37487SOL     OW19318  12.120   6.784   1.177  0.3062  0.2055  0.6344
37487SOL    HW119319  12.063   6.843   1.127  2.0162  0.0557 -1.6593
37487SOL    HW219320  12.085   6.697   1.160  1.8624 -0.0205 -1.8924
37488SOL     OW19321   9.320   9.616   2.230  0.0028  0.2064 -0.2671
37488SOL    HW119322   9.300   9.677   2.159 -3.2898  0.5151  0.7553
37488SOL    HW219323   9.413   9.597   2.220  0.5162  3.1541 -2.3345
37489SOL     OW19324   1.375   8.329   0.320 -0.2871  0.5901 -0.2830
37489SOL    HW119325   1.347   8.256   0.265  0.3948 -0.1877  0.3892
37489SOL    HW219326   1.412   8.392   0.258 -0.1473  0.0188 -0.7920
37490SOL     OW19327   7.614   9.886   9.119  0.0825 -0.2879  0.1945
37490SOL    HW119328   7.576   9.858   9.203 -0.1056  2.0060  0.9386
37490SOL    HW219329   7.541   9.925   9.072  0.3049 -1.1085 -0.8474
37491SOL     OW19330   2.688   4.602  11.523  0.0854  0.8633  0.1681
37491SOL    HW119331   2.595   4.584  11.532  0.4688 -1.8279 -0.6220
37491SOL    HW219332   2.718   4.622  11.612 -0.9033 -0.0425  0.7086
37492SOL     OW19333   2.952   7.604  11.097 -0.0795  0.2951  0.1925
37492SOL    HW119334   2.864   7.576  11.122  0.5006 -0.6179  1.2572
37492SOL    HW219335   2.972   7.676  11.158  0.5478 -0.6022  1.0700
37493SOL     OW19336  11.990   3.806   8.718 -0.0565 -0.2450 -0.4995
37493SOL    HW119337  11.955   3.718   8.728  0.7369 -0.6214 -0.9276
37493SOL    HW219338  12.084   3.796   8.733 -0.0127  0.6003 -0.1518
37494SOL     OW19339   1.735  12.214   8.400 -0.1087 -0.7123 -0.1680
37494SOL    HW119340   1.791  12.185   8.328  1.8437 -0.0609  1.0355
37494SOL    HW219341   1.718  12.307   8.382 -1.2552 -1.0119 -0.7698
37495SOL     OW19342   1.757   9.877   5.214 -0.3303 -0.8605 -0.0392
37495SOL    HW119343   1.768   9.806   5.150  0.0168 -2.4245  1.6700
37495SOL    HW219344   1.831   9.935   5.198  0.4362 -1.8712 -0.2765
37496SOL     OW19345   5.216   6.507   9.139 -0.2659 -0.4228 -0.4383
37496SOL    HW119346   5.206   6.558   9.220 -2.9267 -0.8634 -0.4131
37496SOL    HW219347   5.268   6.431   9.165 -0.7809 -0.3784  0.8033
37497SOL     OW19348   7.191   3.899  10.681  0.3575  0.3292 -0.6711
37497SOL    HW119349   7.133   3.843  10.732  1.5870 -0.2395  0.1419
37497SOL    HW219350   7.135   3.938  10.614 -1.5191  1.7391  1.5664
37498SOL     OW19351   2.098   9.288   3.724 -0.3743  0.3901 -0.3671
37498SOL    HW119352   2.122   9.349   3.794  1.5284 -1.2025  0.4803
37498SOL    HW219353   2.170   9.225   3.722 -1.1988 -0.5845 -2.6692
37499SOL     OW19354   9.962   4.114   5.194 -0.1270  0.0512  0.1243
37499SOL    HW119355  10.021   4.117   5.119  0.5587 -1.0466  0.6060
37499SOL    HW219356   9.882   4.157   5.164 -0.0724 -0.8791 -1.4212
37500SOL     OW19357   9.293   2.678   8.451 -0.0272  0.1951  0.2701
37500SOL    HW119358   9.314   2.587   8.428 -0.5096  0.3796 -0.9553
37500SOL    HW219359   9.294   2.679   8.547  1.9380 -0.6361  0.3189
37501SOL     OW19360   7.685   1.037   4.884 -0.0382  0.2357  0.0843
37501SOL    HW119361   7.616   1.048   4.949 -1.8913  0.3893 -1.7975
37501SOL    HW219362   7.681   0.945   4.860  0.4919  0.2247  0.0239
37502SOL     OW19363   1.402   7.840   8.346  0.0312 -0.6734  0.0914
37502SOL    HW119364   1.335   7.906   8.363  0.3864 -0.5701  1.1300
37502SOL    HW219365   1.369   7.761   8.387  0.7446 -0.5008  1.0499
37503SOL     OW19366   5.784   3.112   0.714 -0.5879 -0.0467  0.0556
37503SOL    HW119367   5.859   3.169   0.723 -0.3950 -0.6162  2.9014
37503SOL    HW219368   5.715   3.152   0.767 -2.0374 -0.0369 -1.7109
37504SOL     OW19369   1.318   1.083   8.081 -0.3860  0.5504  0.0974
37504SOL    HW119370   1.364   1.166   8.092 -0.2093  0.7033 -1.5235
37504SOL    HW219371   1.300   1.078   7.987 -0.9511 -0.9558  0.2589
37505SOL     OW19372   0.584   9.222   2.999  0.4156 -0.0580 -0.8506
37505SOL    HW119373   0.675   9.207   2.971  0.3095 -1.2376 -0.5926
37505SOL    HW219374   0.533   9.212   2.919  0.4457 -0.0602 -0.8699
37506SOL     OW19375   1.890  10.880   6.918  0.2411 -0.1963  0.0344
37506SOL    HW119376   1.799  10.881   6.887  0.2688  1.6485 -0.0981
37506SOL    HW219377   1.884  10.844   7.007 -0.5454 -0.5840 -0.1678
37507SOL     OW19378   2.850   3.714   3.115  0.4407  0.0442  0.4265
37507SOL    HW119379   2.918   3.651   3.139  2.3923  1.9370  0.1205
37507SOL    HW219380   2.844   3.774   3.190  0.4440  0.9746 -0.2978
37508SOL     OW19381   9.596   3.259  11.809  0.0797 -0.3334  0.1385
37508SOL    HW119382   9.552   3.175  11.823  0.5709 -0.6678 -0.2849
37508SOL    HW219383   9.673   3.237  11.756 -0.4178  0.5540 -0.9847
37509SOL     OW19384   9.853   3.173  10.981 -0.2926  0.1806  0.0340
37509SOL    HW119385   9.798   3.244  10.948 -0.7592  1.2980  2.9462
37509SOL    HW219386   9.794   3.097  10.985 -0.5210  0.3200 -0.5721
37510SOL     OW19387  10.486   6.290   8.515 -0.3101 -0.0421  0.0542
37510SOL    HW119388  10.500   6.353   8.444  1.2261 -0.3494  0.0424
37510SOL    HW219389  10.526   6.331   8.591 -2.2594  0.4406  0.8769
37511SOL     OW19390   5.861   8.900   1.604  0.0113 -0.8778 -0.8318
37511SOL    HW119391   5.951   8.869   1.592 -0.9168 -3.1764 -2.6721
37511SOL    HW219392   5.828   8.910   1.515 -1.7336 -0.6180 -0.1836
37512SOL     OW19393  11.260   3.993  11.398 -0.0313 -0.0670  0.3448
37512SOL    HW119394  11.351   4.013  11.378 -0.4133  0.5955 -0.8319
37512SOL    HW219395  11.251   4.014  11.491  0.5300  1.8752  0.0120
37513SOL     OW19396   1.158   2.635   7.053  0.4051 -0.8713  0.0356
37513SOL    HW119397   1.240   2.684   7.052  0.4312 -0.8970 -1.6285
37513SOL    HW219398   1.169   2.570   6.983 -0.5670 -1.6786  0.6097
37514SOL     OW19399   8.266   4.410   7.573  0.0858 -0.4269  0.4140
37514SOL    HW119400   8.204   4.461   7.522  2.1859  1.4294 -0.4368
37514SOL    HW219401   8.278   4.460   7.654  2.0653  0.4702 -0.3707
37515SOL     OW19402   0.906   0.497   4.303  0.7433 -0.0405  0.2287
37515SOL    HW119403   0.903   0.592   4.295  0.7457  0.0921  1.5500
37515SOL    HW219404   0.991   0.473   4.267  0.8858  0.4963  0.1970
37516SOL     OW19405   5.116   6.923   4.389  0.2270 -0.2926  0.2834
37516SOL    HW119406   5.167   6.927   4.470  1.4125 -1.0072 -0.3878
37516SOL    HW219407   5.069   7.006   4.385 -0.4045 -0.5391  2.0374
37517SOL     OW19408   5.868   1.870   1.374  0.2387  0.2053  0.2905
37517SOL    HW119409   5.875   1.964   1.388  0.3625  0.0139  1.7264
37517SOL    HW219410   5.798   1.842   1.433  2.1624 -1.0045  2.1536
37518SOL     OW19411   3.272  11.927   6.288 -0.6945  0.3939 -0.6590
37518SOL    HW119412   3.285  11.909   6.382  0.4097  1.7076 -0.5243
37518SOL    HW219413   3.260  12.022   6.284  2.8110  0.9070 -2.1330
37519SOL     OW19414   5.711   6.876   8.620 -0.3573 -0.7197  0.0786
37519SOL    HW119415   5.645   6.914   8.562  0.1744 -1.7504 -1.2581
37519SOL    HW219416   5.730   6.790   8.581  1.0632 -0.8422  0.9888
37520SOL     OW19417   7.217  10.380   7.175 -0.6217  0.2875 -0.2235
37520SOL    HW119418   7.174  10.298   7.150 -1.3551  0.1240  1.4654
37520SOL    HW219419   7.207  10.385   7.270  0.9213  1.5010 -0.0784
37521SOL     OW19420   8.426   2.549   1.478 -0.0421  0.6777  0.1932
37521SOL    HW119421   8.418   2.468   1.528 -0.8847  0.1227 -0.7907
37521SOL    HW219422   8.456   2.614   1.542  0.1023 -0.2727  1.1247
37522SOL     OW19423   3.541   2.985   1.618  0.0968 -0.1854 -0.3184
37522SOL    HW119424   3.491   2.903   1.617  0.2815 -0.3174 -1.9217
37522SOL    HW219425   3.480   3.050   1.582  0.8553 -0.2323 -1.7635
37523SOL     OW19426   8.535   1.484  11.533  0.1104  0.3834 -0.4051
37523SOL    HW119427   8.554   1.558  11.591  1.4688 -1.3705  1.5208
37523SOL    HW219428   8.612   1.477  11.477  1.1463 -1.0163  1.1033
37524SOL     OW19429   1.780   8.627   6.047 -0.5391  0.2494  0.1432
37524SOL    HW119430   1.692   8.596   6.070 -1.2271  2.0780  0.1034
37524SOL    HW219431   1.775   8.722   6.055  1.5821  0.3680  0.5787
37525SOL     OW19432   7.964   3.064   6.454 -0.4675 -0.5944  0.0774
37525SOL    HW119433   7.886   3.110   6.424 -0.3881  0.6005  1.5776
37525SOL    HW219434   8.035   3.100   6.401 -0.5226  0.5317  0.7291
37526SOL     OW19435   0.194   8.335   1.365 -0.0290 -0.0645 -0.8537
37526SOL    HW119436   0.259   8.311   1.299  1.5258 -2.0657  1.2597
37526SOL    HW219437   0.241   8.394   1.424 -1.1110  0.9350 -0.9460
37527SOL     OW19438  10.929   7.823   6.825 -0.1597  0.5709  0.3289
37527SOL    HW119439  10.841   7.813   6.787 -0.5254  2.2831  0.6555
37527SOL    HW219440  10.921   7.788   6.913 -0.7876  1.5754  0.6827
37528SOL     OW19441   3.601  12.213   1.448  0.6873 -0.5115  0.1190
37528SOL    HW119442   3.593  12.149   1.519 -0.2029  0.2019  0.6918
37528SOL    HW219443   3.530  12.192   1.388 -1.4570  1.6101  1.7321
37529SOL     OW19444   6.493   4.680   9.849 -0.2729  0.6070  0.6949
37529SOL    HW119445   6.409   4.726   9.851 -0.5609  0.0759  1.2553
37529SOL    HW219446   6.553   4.738   9.897 -0.5750  0.5067  1.1973
37530SOL     OW19447   9.803   9.678  12.223  0.3443  0.0862 -0.3499
37530SOL    HW119448   9.849   9.740  12.167  0.3424  0.1942 -0.2332
37530SOL    HW219449   9.835   9.592  12.196  2.7314  0.2606  1.5477
37531SOL     OW19450   2.901   2.014   2.023 -0.2516 -0.1001  0.2806
37531SOL    HW119451   2.828   2.067   1.990 -1.0703 -1.2696  0.1787
37531SOL    HW219452   2.979   2.054   1.985 -0.8357  1.0901  0.2838
37532SOL     OW19453  10.909   6.764   2.959 -0.6154  0.3861  0.0143
37532SOL    HW119454  10.816   6.776   2.942 -0.2662 -0.3527 -2.7984
37532SOL    HW219455  10.933   6.686   2.909  1.6814  1.0371 -0.0046
37533SOL     OW19456   7.552   7.434   6.377  0.5803 -0.2274  0.0510
37533SOL    HW119457   7.622   7.491   6.409  0.4346 -0.1382  0.2155
37533SOL    HW219458   7.487   7.495   6.341  0.3208 -0.2755  0.4327
37534SOL     OW19459   7.538  10.851   1.322 -0.1482 -0.0207  0.2066
37534SOL    HW119460   7.477  10.788   1.361  1.5143 -1.0403  1.2928
37534SOL    HW219461   7.548  10.919   1.388 -0.0055  0.0747  0.0871
37535SOL     OW19462   5.253   8.596   0.531  0.1440  0.0034 -0.0372
37535SOL    HW119463   5.246   8.592   0.627  3.4780  0.4611  0.3251
37535SOL    HW219464   5.209   8.677   0.507 -1.2420 -0.3959  1.0058
37536SOL     OW19465  11.480   7.509   7.952  0.7156  0.0048  0.1069
37536SOL    HW119466  11.517   7.428   7.918 -1.2762 -1.1078  0.4248
37536SOL    HW219467  11.387   7.505   7.929  0.5384  2.1971  0.1679
37537SOL     OW19468   0.184   2.665   4.059 -0.1927 -0.1566 -0.1552
37537SOL    HW119469   0.121   2.714   4.006  2.8806  0.9969 -3.1427
37537SOL    HW219470   0.172   2.574   4.032 -0.8325 -0.0207 -0.3583
37538SOL     OW19471   8.645   2.305   9.988 -0.1974  0.2035 -0.2315
37538SOL    HW119472   8.735   2.292  10.019 -0.4647 -0.5695  0.2647
37538SOL    HW219473   8.628   2.398  10.004  0.2848  0.2105  0.2964
37539SOL     OW19474  11.218   4.857   2.336  0.3991  0.6552 -0.4955
37539SOL    HW119475  11.234   4.951   2.346  0.1624  0.5647  1.0270
37539SOL    HW219476  11.233   4.839   2.243 -1.5653  2.5663 -1.2600
37540SOL     OW19477   5.016   2.158   4.104 -1.1857  0.6622 -0.3730
37540SOL    HW119478   5.059   2.237   4.137 -1.2784  0.1729  0.9611
37540SOL    HW219479   5.072   2.086   4.134 -0.9322  0.1970 -1.8306
37541SOL     OW19480  10.839  12.517  11.657  0.3534  0.1737  0.3723
37541SOL    HW119481  10.746  12.533  11.675  0.1655 -1.1695  0.6732
37541SOL    HW219482  10.885  12.560  11.729 -0.0475  0.4889  0.4443
37542SOL     OW19483   8.754   6.030   8.095 -0.1288  0.3228  0.2170
37542SOL    HW119484   8.659   6.034   8.102 -0.1347 -0.1225  0.4134
37542SOL    HW219485   8.782   6.122   8.100 -0.5624  0.4812 -0.1604
37543SOL     OW19486   4.786  10.417   6.433 -0.4614 -0.2425  0.3253
37543SOL    HW119487   4.706  10.437   6.482 -0.2166 -0.0124  0.6331
37543SOL    HW219488   4.857  10.437   6.493 -0.0904  1.7531 -0.7078
37544SOL     OW19489   6.265   0.466   0.248 -0.5360  0.1361  0.6083
37544SOL    HW119490   6.208   0.512   0.187 -0.5154 -1.1829 -0.4668
37544SOL    HW219491   6.313   0.404   0.193  1.4593  0.7461  1.5809
37545SOL     OW19492   5.945   2.103  12.450 -0.5646  0.2395  0.4009
37545SOL    HW119493   5.866   2.069  12.408 -0.5165  0.1014  0.4207
37545SOL    HW219494   5.943   2.067  12.539 -0.8365  0.8032  0.6248
37546SOL     OW19495   4.296   6.159   3.187  0.1853  0.0608 -0.2747
37546SOL    HW119496   4.236   6.112   3.245  1.8558  0.0739  1.5594
37546SOL    HW219497   4.376   6.170   3.238  1.7206  0.2206 -2.5543
37547SOL     OW19498   0.332   2.157   3.808 -0.0501  0.8042  0.2542
37547SOL    HW119499   0.366   2.234   3.854 -1.9209  0.4582  2.3584
37547SOL    HW219500   0.242   2.148   3.839  0.1027 -2.2223  0.0517
37548SOL     OW19501  11.925   5.443   3.816 -0.1597  0.2052 -0.4802
37548SOL    HW119502  11.959   5.361   3.780  0.4818  0.9229 -1.5569
37548SOL    HW219503  11.998   5.504   3.810 -0.2527  0.5611  1.4238
37549SOL     OW19504  11.783  11.279   2.922 -0.1521  0.1928  0.1708
37549SOL    HW119505  11.720  11.210   2.902  0.8634 -0.5597 -0.4873
37549SOL    HW219506  11.806  11.264   3.014 -0.6846  0.2720  0.3185
37550SOL     OW19507   4.578  10.308   7.559  0.0837 -0.0588  0.0224
37550SOL    HW119508   4.649  10.277   7.616 -0.3791  1.9301  1.8234
37550SOL    HW219509   4.621  10.366   7.497  0.2726 -0.2478 -0.0254
37551SOL     OW19510   2.849   1.526  10.249  0.6039 -0.5007  0.5129
37551SOL    HW119511   2.917   1.558  10.309 -1.5977 -0.4363  3.2032
37551SOL    HW219512   2.816   1.447  10.292 -1.1740 -0.4014 -0.6015
37552SOL     OW19513  12.006   3.834   9.361 -0.3893  0.5242  0.7944
37552SOL    HW119514  12.014   3.839   9.266 -2.1378  0.8037  0.6290
37552SOL    HW219515  11.981   3.743   9.378  0.2370  0.3934  1.0139
37553SOL     OW19516   4.857   1.206   0.285 -0.5316 -0.7917 -0.5114
37553SOL    HW119517   4.871   1.248   0.370 -0.3420  0.4918 -1.1524
37553SOL    HW219518   4.909   1.126   0.289  2.0170  0.7709 -0.5323
37554SOL     OW19519   9.302   0.854  12.125 -0.2609  0.1226  0.1502
37554SOL    HW119520   9.365   0.812  12.183  0.3264  1.4019  0.4909
37554SOL    HW219521   9.221   0.856  12.176  0.3794  1.6954  1.1907
37555SOL     OW19522  10.944   2.381   1.759  0.3507  0.5700  0.0279
37555SOL    HW119523  10.894   2.303   1.782  0.1716  0.0405 -1.9107
37555SOL    HW219524  11.024   2.375   1.811  0.4821 -1.1162 -0.3084
37556SOL     OW19525   7.119  10.887   8.855 -0.1230 -0.0929  0.4487
37556SOL    HW119526   7.193  10.928   8.809 -1.1997  0.2650 -1.0388
37556SOL    HW219527   7.047  10.893   8.793 -1.3434 -0.6734  1.7766
37557SOL     OW19528  10.206   4.241  10.229  0.0735 -0.4745 -0.5341
37557SOL    HW119529  10.239   4.314  10.282 -0.6159 -0.7860  0.3329
37557SOL    HW219530  10.210   4.274  10.139  1.3523  0.0206 -0.3107
37558SOL     OW19531   6.617  10.323  10.539 -0.0674  0.4452 -0.0480
37558SOL    HW119532   6.563  10.402  10.528 -0.5228  0.4486  1.7906
37558SOL    HW219533   6.555  10.257  10.571  0.5001 -0.3831 -0.6357
37559SOL     OW19534   2.655   9.251  11.768 -0.5098  0.0525 -0.0547
37559SOL    HW119535   2.711   9.212  11.701  0.7458 -0.1247  1.0454
37559SOL    HW219536   2.716   9.282  11.835 -1.7230 -0.4656  1.3645
37560SOL     OW19537   0.262   8.569   6.417  0.1484 -0.0521 -0.0104
37560SOL    HW119538   0.171   8.578   6.390  0.6882  0.1562 -1.9751
37560SOL    HW219539   0.274   8.633   6.487 -1.2000 -0.0940  0.2782
37561SOL     OW19540   2.144   3.941  10.337  0.1528  0.0935  0.1927
37561SOL    HW119541   2.118   4.031  10.358 -1.6500  0.0437 -1.5455
37561SOL    HW219542   2.184   3.947  10.251  0.7962 -0.6612  0.4345
37562SOL     OW19543   7.704   9.042   0.819  0.0324  0.1170 -0.0252
37562SOL    HW119544   7.679   8.950   0.812 -3.2990  0.6635  2.0905
37562SOL    HW219545   7.799   9.042   0.809  0.3357 -3.7023  1.0275
37563SOL     OW19546  10.942   5.248  12.250  0.3889 -0.1248  0.4771
37563SOL    HW119547  10.914   5.157  12.242  0.9168 -0.2381 -0.1421
37563SOL    HW219548  10.909   5.290  12.171 -0.2855  0.3438  0.9959
37564SOL     OW19549   1.666  11.033   8.932  0.2931 -0.5407  0.1418
37564SOL    HW119550   1.655  10.938   8.941 -1.0415 -0.1784  5.1798
37564SOL    HW219551   1.760  11.047   8.938  0.4449 -1.5128  0.1793
37565SOL     OW19552   9.402  11.397   3.176  0.1533  0.1505 -0.3705
37565SOL    HW119553   9.339  11.463   3.205  0.5233  0.7486 -0.9349
37565SOL    HW219554   9.374  11.374   3.088  1.3951  1.2591 -1.0786
37566SOL     OW19555   1.551  11.295  12.233  0.5673  0.0993  0.2141
37566SOL    HW119556   1.504  11.324  12.312 -1.5260 -0.9971 -0.5451
37566SOL    HW219557   1.569  11.376  12.185  0.6079  0.6551  1.1460
37567SOL     OW19558   8.740   6.294   8.043  0.5987 -0.7663  0.7004
37567SOL    HW119559   8.752   6.330   8.131 -0.7970  1.6372  0.0113
37567SOL    HW219560   8.811   6.333   7.991  0.8085 -1.3597  0.5327
37568SOL     OW19561  10.210   7.532  11.119  0.1283 -0.3148 -0.4671
37568SOL    HW119562  10.165   7.449  11.135  0.3780 -1.1238 -3.3784
37568SOL    HW219563  10.303   7.510  11.123  0.2186  0.1325  0.0229
37569SOL     OW19564   4.519   6.056   6.832  0.3690 -0.2617  0.8314
37569SOL    HW119565   4.582   6.024   6.896 -0.3743 -2.3840  0.5752
37569SOL    HW219566   4.433   6.041   6.872 -0.0965 -1.2503 -0.4375
37570SOL     OW19567  10.906   3.962   5.256  0.3661 -0.0554 -0.0926
37570SOL    HW119568  10.914   3.976   5.162  1.1759  0.2669  0.0137
37570SOL    HW219569  10.987   3.916   5.280 -0.7066 -1.8965  0.1334
37571SOL     OW19570  10.321   9.185   7.363  0.1148 -0.3688 -0.5756
37571SOL    HW119571  10.371   9.111   7.331  0.7804  0.0168 -0.4422
37571SOL    HW219572  10.249   9.195   7.301  0.7724 -0.3013 -1.3380
37572SOL     OW19573  11.230  10.488  10.987 -0.1768  0.0241 -0.3111
37572SOL    HW119574  11.278  10.508  10.907 -0.7115  0.4083 -0.5402
37572SOL    HW219575  11.294  10.445  11.044  0.5324  0.8358 -0.4844
37573SOL     OW19576   4.182   5.721   3.368  0.1858  0.1115 -1.0455
37573SOL    HW119577   4.252   5.703   3.305 -0.9079 -0.3597 -2.1788
37573SOL    HW219578   4.184   5.816   3.379  0.5722  0.1733 -1.5948
37574SOL     OW19579   4.537   9.106   1.716 -0.5968 -0.1091 -0.0494
37574SOL    HW119580   4.538   9.062   1.801  0.8339 -0.4290 -0.2050
37574SOL    HW219581   4.628   9.133   1.702 -1.3527  2.7821 -0.0394
37575SOL     OW19582   3.216   8.348   4.525  0.4756 -0.2013  0.7216
37575SOL    HW119583   3.175   8.352   4.438  1.1446  1.4042  0.4452
37575SOL    HW219584   3.245   8.438   4.542  0.2995 -0.4704  2.6478
37576SOL     OW19585   6.693   9.146   7.654 -0.4548  0.8966  0.2850
37576SOL    HW119586   6.739   9.229   7.651 -1.1116  1.3032  1.1844
37576SOL    HW219587   6.602   9.168   7.636 -0.6162  0.3478  0.4008
37577SOL     OW19588  11.612   0.982   2.183  0.0334  0.4605 -0.2013
37577SOL    HW119589  11.594   1.004   2.092 -0.3733 -0.5829 -0.3831
37577SOL    HW219590  11.703   0.952   2.183 -0.6592 -1.8402 -0.7341
37578SOL     OW19591   9.825  11.582   0.614 -0.2039 -0.1543 -0.0518
37578SOL    HW119592   9.793  11.608   0.700  0.5079 -2.0092  0.8126
37578SOL    HW219593   9.771  11.631   0.552 -0.0214  2.0239  1.4285
37579SOL     OW19594   5.965  10.785   7.501 -0.3303 -0.4685 -0.1299
37579SOL    HW119595   5.883  10.774   7.454 -0.3678 -1.7754  0.1871
37579SOL    HW219596   6.028  10.732   7.452  0.3894  0.6994 -0.4949
37580SOL     OW19597  11.447   5.451   1.474 -0.2266 -0.0405  0.2676
37580SOL    HW119598  11.388   5.382   1.506  1.0399 -2.2618 -1.8895
37580SOL    HW219599  11.527   5.440   1.524  0.0493 -0.2825 -0.2211
37581SOL     OW19600   8.744  12.251   8.037  0.7266  0.3015  0.4761
37581SOL    HW119601   8.694  12.295   7.968 -0.3217  0.3718  1.2624
37581SOL    HW219602   8.809  12.198   7.990 -0.8263 -0.6935 -0.6283
37582SOL     OW19603   3.465   4.601   3.196  0.1013  0.3842  0.0336
37582SOL    HW119604   3.534   4.573   3.135 -0.4002  1.3584 -1.0087
37582SOL    HW219605   3.503   4.586   3.283  0.2480 -2.5675 -0.4368
37583SOL     OW19606   2.876   7.952   0.281  0.7041 -0.2992  0.3611
37583SOL    HW119607   2.838   7.884   0.225  5.4227 -1.6768 -1.7133
37583SOL    HW219608   2.873   8.031   0.227 -0.5791  0.0136  0.8696
37584SOL     OW19609   2.890  10.338  11.169 -0.3974  0.3028 -0.6251
37584SOL    HW119610   2.878  10.258  11.118  0.3986  0.6093 -1.3176
37584SOL    HW219611   2.985  10.345  11.181 -0.4735  1.0107 -0.3600
37585SOL     OW19612   4.782   5.229   8.755 -0.5263 -0.5517 -0.1374
37585SOL    HW119613   4.779   5.273   8.670 -0.7861 -0.3582 -0.0316
37585SOL    HW219614   4.832   5.288   8.811  0.4685 -1.1320 -0.4079
37586SOL     OW19615   3.368   3.825   7.242 -0.1641  0.0073  0.2997
37586SOL    HW119616   3.331   3.834   7.154 -2.0488  1.3011  1.1451
37586SOL    HW219617   3.291   3.819   7.300  1.0173 -0.9233  1.8729
37587SOL     OW19618  10.013   0.957  11.661  0.5282  0.5634  0.2148
37587SOL    HW119619   9.992   0.906  11.740 -0.0048 -1.1365 -0.9652
37587SOL    HW219620   9.927   0.980  11.625  0.7726  1.3288  0.0978
37588SOL     OW19621   0.009   6.538   4.859  0.1714  0.2707  0.1421
37588SOL    HW119622   0.097   6.573   4.876  0.7005 -0.9689  0.1006
37588SOL    HW219623  -0.032   6.535   4.945  1.2685 -1.8952  0.6680
37589SOL     OW19624   5.865  10.353   5.709 -0.2283 -0.8223 -0.4291
37589SOL    HW119625   5.791  10.322   5.761 -0.3254  1.9235  1.2471
37589SOL    HW219626   5.921  10.400   5.771  1.4368 -0.3018 -2.2029
37590SOL     OW19627   0.273   1.219   2.831  0.4321  0.5759  0.2351
37590SOL    HW119628   0.343   1.278   2.803  0.3932  1.7634  2.3964
37590SOL    HW219629   0.195   1.275   2.833  0.2339  0.2972  1.5598
37591SOL     OW19630   4.219   4.533   1.469  0.2681  0.1333  0.3632
37591SOL    HW119631   4.311   4.525   1.491  0.2140 -0.2854  0.4461
37591SOL    HW219632   4.196   4.623   1.491  0.7882  0.3978 -0.1604
37592SOL     OW19633   3.401   8.921   0.148  0.1724  0.2719  0.6613
37592SOL    HW119634   3.433   8.841   0.190  0.2145 -2.0837 -3.3898
37592SOL    HW219635   3.310   8.902   0.127  0.0758  1.4653 -0.0887
37593SOL     OW19636   9.109  10.079   5.821  0.0442 -0.0575 -0.1274
37593SOL    HW119637   9.165  10.130   5.763  0.1894  1.0592  0.9432
37593SOL    HW219638   9.022  10.118   5.811 -0.2443 -0.8298 -0.6904
37594SOL     OW19639   4.560  10.200   9.571 -0.0563  0.2187 -0.6452
37594SOL    HW119640   4.491  10.173   9.632  0.7217  0.6456  0.4572
37594SOL    HW219641   4.550  10.140   9.496 -0.8431 -0.5264  0.0281
37595SOL     OW19642   1.534   8.413  10.231  0.1447 -0.0548  0.7280
37595SOL    HW119643   1.561   8.325  10.208 -1.1440 -0.5481  1.0115
37595SOL    HW219644   1.614   8.457  10.259  0.5110 -1.7272  2.4662
37596SOL     OW19645  12.549  11.183  11.673  0.1699 -0.5125 -0.3220
37596SOL    HW119646  12.543  11.219  11.585  0.5987 -1.8148 -0.9084
37596SOL    HW219647  12.496  11.103  11.670 -1.2196  0.2917  1.1000
37597SOL     OW19648   1.242   9.055   7.711 -0.0357 -0.5642  0.3521
37597SOL    HW119649   1.295   9.050   7.791  0.5793 -1.0878 -0.0791
37597SOL    HW219650   1.192   9.136   7.721  1.0795  0.1166  0.6413
37598SOL     OW19651   2.842   2.360   6.393  0.4149 -0.2286 -0.1319
37598SOL    HW119652   2.859   2.317   6.309 -0.2022  0.6707 -0.7303
37598SOL    HW219653   2.774   2.307   6.434 -1.8116  1.2188 -1.7490
37599SOL     OW19654   8.632   4.525   3.380 -0.4677 -0.3285 -0.4595
37599SOL    HW119655   8.573   4.595   3.354 -1.2918 -1.3353 -1.3762
37599SOL    HW219656   8.628   4.525   3.476 -0.3473  0.9368 -0.4345
37600SOL     OW19657  10.757   3.482   1.782  0.0094  0.4400 -0.5620
37600SOL    HW119658  10.710   3.562   1.759 -0.3712  0.4264  0.1560
37600SOL    HW219659  10.689   3.415   1.789  0.0516  0.5108  0.9070
37601SOL     OW19660   0.940   2.549   0.643  0.2130 -0.1282 -0.0744
37601SOL    HW119661   1.022   2.599   0.649 -1.4556  2.7706  0.4178
37601SOL    HW219662   0.928   2.533   0.549  1.4612 -0.8833 -0.1282
37602SOL     OW19663   0.558   2.057   4.389  0.2495  0.1312  0.3836
37602SOL    HW119664   0.606   2.011   4.320 -0.5188  0.3397 -0.2985
37602SOL    HW219665   0.626   2.100   4.441  0.8176  0.2645 -0.4564
37603SOL     OW19666  11.857   2.360   1.450  0.3064 -0.8414 -0.2053
37603SOL    HW119667  11.873   2.396   1.537  1.4627 -0.1092 -0.7005
37603SOL    HW219668  11.771   2.395   1.426  0.1442 -0.7444  0.4808
37604SOL     OW19669  12.366   3.048   8.801 -0.3508  0.3104  0.2967
37604SOL    HW119670  12.367   3.132   8.847 -1.9526  0.5136  0.0236
37604SOL    HW219671  12.360   3.071   8.709  1.2631 -0.1195  0.0504
37605SOL     OW19672   2.288  11.696   5.542  0.8497  0.0343  0.3744
37605SOL    HW119673   2.328  11.631   5.484 -1.4805 -0.3131 -0.9922
37605SOL    HW219674   2.335  11.777   5.523  0.5043 -0.1800 -1.7344
37606SOL     OW19675   6.924   1.684   6.975 -0.8342 -0.3561  0.2242
37606SOL    HW119676   6.842   1.727   6.951 -0.9753 -0.2621  0.8592
37606SOL    HW219677   6.967   1.667   6.891 -0.9133  0.7460 -0.0620
37607SOL     OW19678  11.110   1.769  11.691 -1.0098  0.4251  0.2217
37607SOL    HW119679  11.184   1.821  11.724 -0.1697 -0.0218 -0.9201
37607SOL    HW219680  11.033   1.811  11.731 -0.0681 -0.3125  3.0906
37608SOL     OW19681   7.794   1.620   5.611  0.0784  0.0010  0.2918
37608SOL    HW119682   7.849   1.579   5.678 -1.6878 -2.1745  0.4987
37608SOL    HW219683   7.716   1.649   5.658 -0.3104  0.2768 -0.5054
37609SOL     OW19684   0.120   0.498   9.956 -0.9069 -0.0244 -0.1542
37609SOL    HW119685   0.127   0.405   9.937 -1.9590  0.0663 -1.0975
37609SOL    HW219686   0.197   0.518  10.010 -1.6086 -1.8074  1.6393
37610SOL     OW19687  12.517  12.562   0.946 -0.3064 -0.0810 -0.2391
37610SOL    HW119688  12.427  12.546   0.973 -0.4225  1.0656  0.1322
37610SOL    HW219689  12.541  12.486   0.894 -1.8132  0.0448 -1.1699
37611SOL     OW19690   4.382   2.338   9.504  0.0599 -0.1034 -0.3453
37611SOL    HW119691   4.385   2.277   9.578  0.2534  1.5563  1.0780
37611SOL    HW219692   4.302   2.388   9.518  0.1142  0.2563 -1.2706
37612SOL     OW19693   3.859   4.763   7.625 -0.3868 -0.4593 -0.0864
37612SOL    HW119694   3.842   4.808   7.708 -1.0822 -0.3851 -0.2615
37612SOL    HW219695   3.885   4.674   7.650 -1.4188 -0.6919  0.1897
37613SOL     OW19696  10.290   4.672   9.224 -0.0825  0.3606 -0.0267
37613SOL    HW119697  10.231   4.732   9.179  0.3734  0.1112 -0.9879
37613SOL    HW219698  10.232   4.620   9.281 -0.7548  0.3242 -0.7191
37614SOL     OW19699   6.560   5.848   8.191  0.1638  0.4857 -0.2581
37614SOL    HW119700   6.558   5.930   8.242 -0.6299 -1.5696  3.3616
37614SOL    HW219701   6.469   5.832   8.167  0.1725  0.1397 -0.0574
37615SOL     OW19702   3.027   0.007   0.846 -0.2487  0.0038  0.6180
37615SOL    HW119703   3.045   0.087   0.796  0.3660 -0.0408  0.7549
37615SOL    HW219704   2.964  -0.041   0.793 -2.5380  1.6860  1.6591
37616SOL     OW19705   3.743   7.241   3.762  0.0863 -0.1218 -0.1497
37616SOL    HW119706   3.786   7.165   3.801  0.2197  0.6285  1.2587
37616SOL    HW219707   3.677   7.266   3.827 -1.5674 -0.4184 -1.6377
37617SOL     OW19708   5.602   6.827   2.906 -0.0820  0.1032  0.1384
37617SOL    HW119709   5.655   6.752   2.881 -1.6135 -0.6063 -1.1405
37617SOL    HW219710   5.522   6.818   2.854 -0.8447  1.9125  0.9317
37618SOL     OW19711  11.349  11.394  11.142 -0.0143 -0.1550  0.0270
37618SOL    HW119712  11.442  11.418  11.149 -0.2751  0.5637  1.2833
37618SOL    HW219713  11.302  11.476  11.155 -0.8438 -0.5735 -0.2892
37619SOL     OW19714   9.118   5.614   4.904 -0.1608  0.0575  0.2989
37619SOL    HW119715   9.089   5.688   4.850 -2.1609  1.0848  2.5372
37619SOL    HW219716   9.114   5.539   4.846 -2.2556  1.0821 -1.0364
37620SOL     OW19717   7.844   1.666   3.488  0.0426 -0.3001 -0.0495
37620SOL    HW119718   7.918   1.703   3.537 -0.4206 -1.5436  1.6503
37620SOL    HW219719   7.766   1.700   3.532 -0.3910 -2.4224  0.9407
37621SOL     OW19720   9.238   7.622  10.339 -0.2410  0.8045  0.1627
37621SOL    HW119721   9.178   7.653  10.271  0.6424  1.7265 -0.2126
37621SOL    HW219722   9.297   7.562  10.293  0.2617  1.3125  0.1342
37622SOL     OW19723   8.974   9.836   3.083  0.0685  0.6015  0.7657
37622SOL    HW119724   8.904   9.876   3.031  1.1739  0.0908 -1.2315
37622SOL    HW219725   8.930   9.766   3.132 -0.6256 -1.0495 -1.9456
37623SOL     OW19726   9.989   8.418  11.128 -0.1195  0.3320  0.2763
37623SOL    HW119727   9.898   8.408  11.153 -0.1116 -0.8288 -0.1189
37623SOL    HW219728   9.994   8.506  11.090 -0.6464  1.1626  2.0203
37624SOL     OW19729   5.865   7.011   5.314 -0.3852  0.0492  0.2506
37624SOL    HW119730   5.791   7.016   5.374 -0.5750  1.0361 -0.0538
37624SOL    HW219731   5.933   7.065   5.355 -0.5774  0.8721 -0.4986
37625SOL     OW19732   5.078   6.150   8.631 -0.2720  0.7081  0.1343
37625SOL    HW119733   5.071   6.242   8.656  0.5563  1.0552 -0.8483
37625SOL    HW219734   5.111   6.106   8.710  0.3242  1.4263  0.2939
37626SOL     OW19735   1.417   3.591   8.234  0.5087 -0.5562  0.2130
37626SOL    HW119736   1.368   3.664   8.196 -1.5828 -1.8291  0.2585
37626SOL    HW219737   1.484   3.570   8.170  1.4191  1.5913  0.3662
37627SOL     OW19738   0.074  10.994  12.341 -0.4011 -0.2821  0.1796
37627SOL    HW119739   0.160  10.951  12.347 -1.3393 -2.0777  1.8600
37627SOL    HW219740   0.017  10.928  12.303 -1.3426  0.3732  0.4242
37628SOL     OW19741   5.616   4.135   7.199  0.2731 -0.6978  0.1430
37628SOL    HW119742   5.590   4.203   7.261 -3.6378 -0.3068 -1.6583
37628SOL    HW219743   5.584   4.053   7.237  0.2132 -0.8212 -0.1710
37629SOL     OW19744   7.215   5.144  10.055 -0.0646 -0.4670  0.3637
37629SOL    HW119745   7.175   5.066  10.016 -1.6771  0.9767 -1.0206
37629SOL    HW219746   7.150   5.213  10.044  0.3818  0.6248  3.5831
37630SOL     OW19747   1.765   8.189   0.075 -0.2623  0.6003  0.4228
37630SOL    HW119748   1.783   8.097   0.052  0.7978  0.7824  0.4807
37630SOL    HW219749   1.688   8.211   0.024 -1.0874 -0.5972  1.0929
37631SOL     OW19750   8.198  10.464   5.953 -0.3436 -0.4680  0.0492
37631SOL    HW119751   8.179  10.549   5.993  1.4436 -0.1479  0.2832
37631SOL    HW219752   8.201  10.403   6.027  1.5885 -0.1200  0.3106
37632SOL     OW19753  10.084  10.174   3.132  0.4094 -0.2540 -0.4562
37632SOL    HW119754  10.053  10.184   3.042  1.0282  0.3606 -0.6087
37632SOL    HW219755  10.056  10.254   3.176  0.9833 -0.0988 -0.3634
37633SOL     OW19756  12.199   3.705  12.009 -0.2589 -0.2829  0.4373
37633SOL    HW119757  12.263   3.738  12.073  0.1757  0.7520 -0.4973
37633SOL    HW219758  12.159   3.629  12.052  2.2181 -1.5260  0.7244
37634SOL     OW19759   5.776  10.147  10.530  0.0618 -0.2997  0.7810
37634SOL    HW119760   5.726  10.226  10.550 -0.1644  0.0281 -0.9135
37634SOL    HW219761   5.863  10.164  10.566  1.0849  2.2824 -2.4319
37635SOL     OW19762   9.287   7.826   3.406 -0.1056 -0.4930 -0.1450
37635SOL    HW119763   9.358   7.764   3.422 -0.3819 -0.7227  0.2218
37635SOL    HW219764   9.329   7.901   3.364  0.3059 -0.7387 -0.1766
37636SOL     OW19765   3.699   6.130   4.682 -0.5790  0.2131 -0.0175
37636SOL    HW119766   3.654   6.138   4.766 -1.0492 -1.3504 -0.0928
37636SOL    HW219767   3.742   6.215   4.670  0.4249  0.1228  2.3222
37637SOL     OW19768  11.470   5.382   5.474  0.2633 -0.1132 -0.0201
37637SOL    HW119769  11.409   5.339   5.413  0.8777 -1.7278  0.4487
37637SOL    HW219770  11.525   5.311   5.507  2.1136  1.2371 -0.0686
37638SOL     OW19771   7.815   1.005   3.536  0.2908  0.0047  0.3988
37638SOL    HW119772   7.871   0.998   3.614  0.9720 -0.9721 -0.1556
37638SOL    HW219773   7.788   0.915   3.518  0.3860  0.1764 -0.6579
37639SOL     OW19774   2.821  10.222   4.600 -0.4183  0.3629  0.5653
37639SOL    HW119775   2.904  10.253   4.565 -0.2565 -1.0353 -0.3868
37639SOL    HW219776   2.763  10.299   4.599  0.3978  0.9770 -0.2392
37640SOL     OW19777   1.689   1.156   2.155 -0.3150  0.1457 -0.6550
37640SOL    HW119778   1.612   1.160   2.099  0.1057  1.2919 -1.1794
37640SOL    HW219779   1.720   1.246   2.160 -0.0527 -0.0012  1.0299
37641SOL     OW19780   1.783   7.308   6.841 -0.0235 -0.1855 -0.1181
37641SOL    HW119781   1.858   7.278   6.790 -0.5505 -1.1329 -0.3682
37641SOL    HW219782   1.782   7.403   6.830  1.2789 -0.1330  0.1066
37642SOL     OW19783   0.088  11.093   4.170 -0.5715 -0.7390  0.1282
37642SOL    HW119784   0.073  11.047   4.087  2.2779  0.6785 -1.3318
37642SOL    HW219785   0.126  11.177   4.144 -0.1752  0.0388  2.8767
37643SOL     OW19786  12.331   5.609   1.247 -0.3635  0.4256  0.4003
37643SOL    HW119787  12.339   5.580   1.156  1.2380  0.8034  0.3869
37643SOL    HW219788  12.311   5.529   1.296  0.4282 -0.0823 -0.0847
37644SOL     OW19789   3.279   2.729   4.968  0.8123  0.1088  0.2514
37644SOL    HW119790   3.293   2.656   4.908 -0.0356 -0.6953  0.9936
37644SOL    HW219791   3.293   2.807   4.915 -0.3730 -0.5669 -1.1244
37645SOL     OW19792   5.805  10.934   2.458 -0.4546  1.0719 -0.2422
37645SOL    HW119793   5.745  10.921   2.385  0.7547  0.1478 -1.1292
37645SOL    HW219794   5.877  10.986   2.420  0.4212  0.1653  0.1268
37646SOL     OW19795   9.931   6.139   7.072 -0.5905 -0.3963 -0.3409
37646SOL    HW119796   9.950   6.051   7.105 -2.5300 -0.2046  1.5318
37646SOL    HW219797   9.972   6.198   7.135  2.5218  0.2107 -2.6968
37647SOL     OW19798   1.976   6.522   4.436 -0.1342  0.1597  0.0655
37647SOL    HW119799   2.033   6.446   4.432  0.1596  0.3997 -0.3249
37647SOL    HW219800   1.905   6.502   4.374  0.1494  0.3715 -0.3298
37648SOL     OW19801  10.565   4.260   1.361 -0.5897  0.1529 -0.2743
37648SOL    HW119802  10.579   4.254   1.266 -0.9715  1.5987 -0.4473
37648SOL    HW219803  10.546   4.170   1.388 -1.0659 -0.1928 -1.6656
37649SOL     OW19804   3.546   6.895  11.415  0.3110  0.1955 -0.0808
37649SOL    HW119805   3.604   6.820  11.430  0.7306  0.8075  1.6166
37649SOL    HW219806   3.486   6.894  11.490  0.8935  2.0362  0.4695
37650SOL     OW19807   6.418   9.835   4.732 -0.0526  0.0371  0.3413
37650SOL    HW119808   6.421   9.794   4.818 -0.5543  1.2384  0.9567
37650SOL    HW219809   6.472   9.779   4.676 -0.7210 -1.4495  1.1341
37651SOL     OW19810   5.199   2.025   8.777 -0.5621  0.0843  0.9552
37651SOL    HW119811   5.129   2.079   8.815 -0.5168  0.4391  0.5508
37651SOL    HW219812   5.155   1.973   8.709 -0.6733 -0.6660  1.5923
37652SOL     OW19813  11.491   3.100   5.561  0.1756 -0.2163 -0.1799
37652SOL    HW119814  11.526   3.149   5.635 -0.6339 -0.0217  0.0926
37652SOL    HW219815  11.449   3.023   5.601  0.2007 -0.3898 -0.4846
37653SOL     OW19816   0.215  10.534   2.852  0.6375  0.2065  0.0873
37653SOL    HW119817   0.218  10.628   2.872 -1.0047  0.4578 -0.6778
37653SOL    HW219818   0.262  10.493   2.924  2.3124  1.6850 -0.0951
37654SOL     OW19819   6.819   1.271  10.885 -0.1574 -0.0766 -0.8914
37654SOL    HW119820   6.827   1.176  10.877 -0.2816 -0.1235 -0.4785
37654SOL    HW219821   6.890   1.305  10.832 -0.2915 -0.3959 -1.2802
37655SOL     OW19822   7.275  11.298   2.725  0.1330  0.2747 -0.1349
37655SOL    HW119823   7.369  11.279   2.728 -0.0706 -0.5493  1.6195
37655SOL    HW219824   7.237  11.224   2.679  0.1755 -0.1004  0.4323
37656SOL     OW19825  12.341  11.557   8.321 -0.3119  0.3676  0.1063
37656SOL    HW119826  12.331  11.632   8.262 -1.3823 -0.8526 -1.3539
37656SOL    HW219827  12.251  11.528   8.338  0.0922 -0.5876  0.6520
37657SOL     OW19828   7.301  10.161  12.576 -0.1400  0.7322  0.3693
37657SOL    HW119829   7.271  10.095  12.513  1.8202  1.8963 -1.9819
37657SOL    HW219830   7.242  10.235  12.564  1.2987  1.6648 -1.6343
37658SOL     OW19831   0.449  10.735   4.815  0.7363 -0.2900  0.2148
37658SOL    HW119832   0.535  10.776   4.820  0.4524  0.3948 -0.3702
37658SOL    HW219833   0.407  10.758   4.897  0.7631  0.1748  0.0992
37659SOL     OW19834   5.305   6.266   3.667  0.2184  0.1741 -0.5860
37659SOL    HW119835   5.365   6.313   3.725 -0.1438  0.6461 -0.5906
37659SOL    HW219836   5.297   6.321   3.590  1.6928 -1.0375 -1.6686
37660SOL     OW19837   3.739  11.228   0.768  0.6398 -0.5452  0.3825
37660SOL    HW119838   3.721  11.304   0.713 -0.2905 -0.5239  0.7116
37660SOL    HW219839   3.656  11.181   0.773  1.6240 -2.7073 -1.4776
37661SOL     OW19840   9.789   9.753   0.370 -0.2502 -0.2711  0.6913
37661SOL    HW119841   9.829   9.802   0.442 -0.4276 -1.0281  1.3235
37661SOL    HW219842   9.800   9.662   0.395  1.1756 -0.6330 -1.0583
37662SOL     OW19843   1.635   5.481   3.411 -0.4190 -0.0071 -0.2414
37662SOL    HW119844   1.576   5.540   3.364  0.0266  0.0352 -0.7596
37662SOL    HW219845   1.641   5.519   3.499 -0.9476  0.1379 -0.2644
37663SOL     OW19846  12.127   8.656   0.981  0.1687  0.4667  0.4727
37663SOL    HW119847  12.165   8.605   1.052  0.9107  1.1389  0.5751
37663SOL    HW219848  12.165   8.743   0.992  0.0152  0.6680 -0.5428
37664SOL     OW19849   9.687  12.273   9.561  0.2666  0.0172 -0.2395
37664SOL    HW119850   9.659  12.360   9.590  1.0102  0.8413 -1.8353
37664SOL    HW219851   9.621  12.246   9.497  0.7243 -0.0029 -0.7146
37665SOL     OW19852   7.680   1.996  12.196 -0.0791 -0.2830  0.3258
37665SOL    HW119853   7.607   2.055  12.211 -0.3964 -0.1190 -1.6629
37665SOL    HW219854   7.752   2.053  12.167 -0.0101 -0.7100 -0.3742
37666SOL     OW19855   1.905   0.572   9.177 -0.1608 -0.2048  0.5362
37666SOL    HW119856   1.883   0.550   9.086 -1.2865  0.4400  0.6359
37666SOL    HW219857   1.905   0.668   9.179 -3.5928 -0.1007  1.9584
37667SOL     OW19858   1.438   6.254  11.969 -0.6892  0.1181 -0.6335
37667SOL    HW119859   1.447   6.163  11.996  0.1839  0.3155 -0.2261
37667SOL    HW219860   1.375   6.292  12.030  1.3381  0.5882  1.2607
37668SOL     OW19861   3.061   5.618   9.906  0.1311  0.2037 -0.4984
37668SOL    HW119862   3.131   5.678   9.929  1.2141 -1.4695  0.8108
37668SOL    HW219863   3.085   5.584   9.819  0.7741 -0.1245 -0.1929
37669SOL     OW19864   7.431  12.502   6.711  0.2852 -0.0665 -0.2364
37669SOL    HW119865   7.439  12.407   6.708 -0.8840 -0.1724 -1.1188
37669SOL    HW219866   7.363  12.522   6.645 -1.3812  1.1279  1.7133
37670SOL     OW19867   5.090   5.090   2.835 -0.1632  0.3130  0.4407
37670SOL    HW119868   5.181   5.076   2.863  1.2402  2.2977 -2.6323
37670SOL    HW219869   5.067   5.175   2.871 -0.4239  0.3079  0.2897
37671SOL     OW19870   5.814   1.655   9.378 -0.5025 -0.1566  0.0611
37671SOL    HW119871   5.905   1.686   9.386 -0.1033 -1.4807  0.8923
37671SOL    HW219872   5.818   1.563   9.402 -2.3807  0.2092  2.0041
37672SOL     OW19873   0.627   0.142   2.389 -0.1082  0.0994 -0.4899
37672SOL    HW119874   0.534   0.152   2.369  0.0150  1.1114 -0.5885
37672SOL    HW219875   0.628   0.112   2.480 -0.5812 -2.0875 -1.1454
37673SOL     OW19876  11.513   5.958   8.634 -0.2990 -0.1976 -0.0699
37673SOL    HW119877  11.445   5.931   8.696 -1.5223  2.3239 -0.1625
37673SOL    HW219878  11.554   6.034   8.676  1.0293 -0.3955 -0.9721
37674SOL     OW19879   9.979  10.543  11.330  0.4973  0.2025  0.3419
37674SOL    HW119880  10.007  10.621  11.281  0.1648  0.1661  0.0911
37674SOL    HW219881  10.007  10.470  11.274 -2.5863  0.1714 -1.3618
37675SOL     OW19882  10.832   7.335   2.668 -0.1305  0.5837  0.3221
37675SOL    HW119883  10.786   7.390   2.606  0.7923  1.3818  0.3160
37675SOL    HW219884  10.764   7.283   2.710 -1.3437  3.2181  1.8532
37676SOL     OW19885   6.309  10.417   0.256  0.1118  0.1746 -0.2058
37676SOL    HW119886   6.261  10.334   0.262 -2.6149  1.4898 -2.0321
37676SOL    HW219887   6.291  10.461   0.338 -0.9724  0.1837 -0.4320
37677SOL     OW19888   4.494   5.399  11.462  0.3514 -0.2303  0.3708
37677SOL    HW119889   4.405   5.429  11.483  0.6641 -0.8280  2.8312
37677SOL    HW219890   4.538   5.477  11.426 -1.0108  0.1793 -0.5000
37678SOL     OW19891   1.986  12.366   4.684  0.9582 -0.2663 -0.1584
37678SOL    HW119892   2.017  12.324   4.604 -0.6926 -1.6237 -0.1395
37678SOL    HW219893   1.944  12.447   4.654 -2.1400 -2.0512 -1.1246
37679SOL     OW19894   1.617   0.046  11.770 -0.0808  0.4317 -0.7973
37679SOL    HW119895   1.690   0.002  11.726 -0.0639  1.1543 -1.5211
37679SOL    HW219896   1.657   0.086  11.847  0.4284  1.2692 -1.4649
37680SOL     OW19897   0.685   2.471   3.035  0.0580  0.3445  0.3837
37680SOL    HW119898   0.646   2.521   3.107 -0.9307 -0.5937  0.5438
37680SOL    HW219899   0.629   2.393   3.028 -0.4350  0.8231 -1.9937
37681SOL     OW19900   0.409   7.473   2.178 -0.5371 -0.1086 -0.1479
37681SOL    HW119901   0.479   7.499   2.118  0.4047 -0.3458  0.8220
37681SOL    HW219902   0.388   7.553   2.226 -0.4125 -0.2105  0.0774
37682SOL     OW19903   5.439   9.574   9.184 -0.1107 -0.1529  0.0660
37682SOL    HW119904   5.499   9.542   9.252 -0.0287 -0.6629 -0.2396
37682SOL    HW219905   5.495   9.624   9.124  0.3702 -2.0821 -1.1836
37683SOL     OW19906   5.274   5.552   1.286 -0.0266  0.2706 -0.4869
37683SOL    HW119907   5.269   5.641   1.252  0.7837  0.6692  0.4065
37683SOL    HW219908   5.187   5.515   1.269 -1.3367  2.1617  1.6084
37684SOL     OW19909   7.900  11.358   6.616  0.3029 -0.3154 -0.0422
37684SOL    HW119910   7.995  11.350   6.607  0.2132 -2.2407  0.2802
37684SOL    HW219911   7.872  11.400   6.535  1.3101 -0.9431 -0.7368
37685SOL     OW19912  11.212   9.050   6.058  0.1366 -0.5059 -0.3362
37685SOL    HW119913  11.132   9.017   6.017  0.7506 -2.4409 -0.1031
37685SOL    HW219914  11.184   9.088   6.140 -0.5870 -0.8961 -0.3995
37686SOL     OW19915   9.315   1.868   9.901  0.7560 -0.2357 -0.4746
37686SOL    HW119916   9.369   1.789   9.898  0.6534 -0.3615  0.5846
37686SOL    HW219917   9.262   1.863   9.821  0.7230 -1.2694 -0.4087
37687SOL     OW19918   5.976  12.353  11.063  0.4176  0.1617  0.0632
37687SOL    HW119919   6.038  12.331  10.993 -0.4123  0.9407 -0.9517
37687SOL    HW219920   5.996  12.444  11.085 -2.6719  1.8076 -2.9378
37688SOL     OW19921   2.986   1.399  11.042  0.2543  0.1862  0.2320
37688SOL    HW119922   2.913   1.349  11.079 -0.7922  1.9093  0.6004
37688SOL    HW219923   2.980   1.383  10.948 -0.5841  0.2877  0.2607
37689SOL     OW19924  12.129  10.187  11.645 -0.0770 -0.0134  0.3678
37689SOL    HW119925  12.070  10.121  11.609 -1.4084  2.0406 -1.5430
37689SOL    HW219926  12.093  10.207  11.731 -1.4247  0.2304 -0.2227
37690SOL     OW19927   6.124   2.750   4.000 -0.2105 -1.1411  0.2768
37690SOL    HW119928   6.121   2.664   3.960  1.3553 -1.0655 -0.0382
37690SOL    HW219929   6.171   2.805   3.937 -0.0887 -0.3715  1.0197
37691SOL     OW19930   6.218   8.083  10.609 -0.6852  0.3054  0.1505
37691SOL    HW119931   6.196   8.055  10.520  1.9516 -1.2229 -0.1323
37691SOL    HW219932   6.143   8.055  10.661 -0.6669 -2.3634 -1.0479
37692SOL     OW19933   2.538  10.987   5.548 -1.0160 -0.7321  0.0525
37692SOL    HW119934   2.483  10.976   5.626  0.2826 -0.4084  1.0462
37692SOL    HW219935   2.621  11.019   5.582 -0.0218 -1.7012 -1.3664
37693SOL     OW19936   1.169   8.651   0.944  0.7944 -0.3471  0.5156
37693SOL    HW119937   1.116   8.694   1.011  0.3185  0.5606 -0.4155
37693SOL    HW219938   1.227   8.720   0.911 -0.3815 -0.1899 -1.4130
37694SOL     OW19939   8.852   3.398  10.146  0.2971  0.5628  0.4141
37694SOL    HW119940   8.784   3.331  10.150 -0.2610  0.7846 -2.7215
37694SOL    HW219941   8.934   3.349  10.143  0.1595  0.2087  1.8105
37695SOL     OW19942   2.277   5.183   1.938 -0.1825  0.3233  0.5552
37695SOL    HW119943   2.351   5.221   1.984 -0.0116  0.8077 -0.1075
37695SOL    HW219944   2.224   5.257   1.910 -0.7234 -0.0013  0.6946
37696SOL     OW19945   4.841  10.004   4.847 -0.2002  0.0585 -0.7921
37696SOL    HW119946   4.853   9.932   4.785  1.1577 -2.6463  2.3478
37696SOL    HW219947   4.749  10.000   4.871  0.4257 -2.9699  1.7321
37697SOL     OW19948   2.985   4.582   3.134  0.2185 -0.1594 -0.6616
37697SOL    HW119949   2.986   4.585   3.038 -0.3666 -2.2030 -0.7935
37697SOL    HW219950   3.077   4.588   3.159  0.3841  0.3157 -1.3639
37698SOL     OW19951   6.037   4.252   0.244 -0.1950 -0.0255 -0.6845
37698SOL    HW119952   5.963   4.281   0.189  0.6954  1.5240 -1.1327
37698SOL    HW219953   6.053   4.326   0.302  0.1288 -0.9058  0.3754
37699SOL     OW19954  12.319   9.593   2.607  0.0830 -0.8342 -0.0643
37699SOL    HW119955  12.231   9.629   2.599 -0.0309 -0.9965  0.4171
37699SOL    HW219956  12.324   9.524   2.541 -0.2487 -1.0136  0.0970
37700SOL     OW19957   8.352   9.210  10.209 -0.1496  0.0262 -0.2397
37700SOL    HW119958   8.314   9.137  10.161  0.6286 -0.3319 -0.3328
37700SOL    HW219959   8.433   9.174  10.247 -0.5947  0.3662  1.1116
37701SOL     OW19960   7.367   6.984   2.698 -0.6689 -0.0645 -0.3213
37701SOL    HW119961   7.388   6.919   2.630  3.0054 -1.5902  1.9026
37701SOL    HW219962   7.317   6.935   2.763  1.6930 -0.7681  1.1280
37702SOL     OW19963   6.246   7.947   5.745  0.1430 -0.0102  0.1918
37702SOL    HW119964   6.221   7.949   5.652  0.5527 -0.6884  0.0593
37702SOL    HW219965   6.191   7.879   5.783  0.2008  0.0457  0.3756
37703SOL     OW19966   7.070   4.457   3.432 -0.3266  0.0842 -0.0288
37703SOL    HW119967   6.995   4.458   3.373 -0.8994  1.1834  0.6966
37703SOL    HW219968   7.109   4.544   3.423 -1.3674  0.8806  2.3531
37704SOL     OW19969   1.266   1.794   4.810 -0.1312 -0.0359 -0.3468
37704SOL    HW119970   1.225   1.722   4.761 -0.1189 -0.6959  0.5981
37704SOL    HW219971   1.220   1.795   4.894  0.4723  0.4968 -0.0194
37705SOL     OW19972   9.547  12.310   1.029 -0.6611 -0.8103  0.7322
37705SOL    HW119973   9.536  12.399   1.062  1.4853  0.3534 -1.4127
37705SOL    HW219974   9.457  12.281   1.008 -1.2557  1.9854 -1.1634
37706SOL     OW19975   8.130   9.547   5.859 -0.0473 -0.0283  0.0966
37706SOL    HW119976   8.203   9.572   5.915 -0.4648  1.2645  0.0827
37706SOL    HW219977   8.059   9.526   5.919  0.3439 -1.4331  0.1159
37707SOL     OW19978   5.337  10.570  11.498  0.1253  0.6339  0.0382
37707SOL    HW119979   5.319  10.656  11.536 -2.2388 -0.1033  0.7477
37707SOL    HW219980   5.263  10.554  11.439  0.6046 -0.8311 -0.2107
37708SOL     OW19981   4.244   4.210   3.468 -0.2173  0.1555 -0.6464
37708SOL    HW119982   4.190   4.248   3.399  1.3840 -0.0119 -2.0695
37708SOL    HW219983   4.210   4.121   3.479 -0.0466 -0.0590 -1.7589
37709SOL     OW19984   5.923  11.309   9.544 -0.3542 -0.3282  0.6432
37709SOL    HW119985   6.012  11.294   9.513  0.4950  0.2535  2.6415
37709SOL    HW219986   5.915  11.253   9.621 -1.4877  0.1067  0.8611
37710SOL     OW19987   8.406  12.121   4.581  0.1388  0.4712  0.1783
37710SOL    HW119988   8.497  12.096   4.594 -0.0314  0.1454  0.7316
37710SOL    HW219989   8.402  12.149   4.489  0.6377 -0.1799 -0.0438
37711SOL     OW19990   0.972   2.385   7.202 -0.0400  0.3696 -0.5734
37711SOL    HW119991   0.929   2.465   7.232 -0.0156  0.3872 -0.5858
37711SOL    HW219992   1.043   2.371   7.265 -0.2928  0.1394 -0.3367
37712SOL     OW19993  10.046   7.206   5.116  0.5589 -0.4205 -0.1471
37712SOL    HW119994  10.045   7.279   5.055  1.2644  0.0729  0.4114
37712SOL    HW219995  10.032   7.246   5.202 -0.2544 -1.0865  0.0406
37713SOL     OW19996   2.091   9.082   0.734 -0.4606 -0.2729 -0.1380
37713SOL    HW119997   2.166   9.132   0.703  0.9367 -1.2471  1.4818
37713SOL    HW219998   2.067   9.124   0.817 -1.1358 -0.5373 -0.1932
37714SOL     OW19999   4.296  10.171   5.033  0.3944  0.3886 -0.2293
37714SOL    HW120000   4.302  10.231   5.108  1.0722  0.0737 -0.0297
37714SOL    HW220001   4.301  10.084   5.072  0.4543  0.2154 -0.6219
37715SOL     OW20002   0.739   5.164  12.386  0.1534 -0.0949 -0.0432
37715SOL    HW120003   0.668   5.103  12.366  1.0478 -0.5691 -1.9564
37715SOL    HW220004   0.707   5.215  12.460 -1.5578 -1.3194  0.1020
37716SOL     OW20005   9.532   5.485   1.654  0.1333  0.0515  0.5496
37716SOL    HW120006   9.578   5.412   1.613 -0.2375 -0.0819  0.3612
37716SOL    HW220007   9.563   5.487   1.744  2.1645  1.3335 -0.1190
37717SOL     OW20008   6.104   0.435   0.819 -0.1641  0.4021 -0.1712
37717SOL    HW120009   6.082   0.407   0.908 -0.5016  2.2677  0.3792
37717SOL    HW220010   6.119   0.529   0.827  1.5635  0.3030 -1.7779
37718SOL     OW20011   7.475   7.798   0.876 -0.0072  0.1197 -0.0527
37718SOL    HW120012   7.391   7.753   0.886 -0.3922  0.6157 -0.9548
37718SOL    HW220013   7.460   7.861   0.806  1.1050  0.2666 -0.1697
37719SOL     OW20014   5.536   6.128   1.299 -0.2112 -0.0905  0.1501
37719SOL    HW120015   5.476   6.144   1.227 -0.1202  1.4756  0.3964
37719SOL    HW220016   5.490   6.066   1.356  0.4531 -2.8724 -2.0967
37720SOL     OW20017   3.647  10.360  11.161 -0.4917  0.4487  0.1405
37720SOL    HW120018   3.731  10.313  11.159 -0.0840  1.1637  0.2210
37720SOL    HW220019   3.654  10.426  11.093 -1.0501  0.4277  0.0570
37721SOL     OW20020   4.875   1.031   2.062  0.1694  0.1793  0.0699
37721SOL    HW120021   4.845   0.961   2.119 -0.6282  1.0227  0.7184
37721SOL    HW220022   4.862   1.111   2.113  0.7168  0.8374 -0.7841
37722SOL     OW20023   1.846   8.610   5.610  0.1139  0.2269  0.5439
37722SOL    HW120024   1.844   8.560   5.692 -0.6968  0.6046  0.7562
37722SOL    HW220025   1.835   8.701   5.637 -1.0123  0.2847 -0.0429
37723SOL     OW20026   8.857  11.692   3.269  0.4703 -0.4918  0.0031
37723SOL    HW120027   8.919  11.764   3.283  0.9576 -0.4945 -1.8424
37723SOL    HW220028   8.897  11.617   3.312  0.4096  0.1205  1.1560
37724SOL     OW20029   3.648   2.494  10.644  0.3303  0.2269 -0.2338
37724SOL    HW120030   3.588   2.453  10.705  0.0003 -0.5672 -1.0648
37724SOL    HW220031   3.705   2.422  10.615 -0.1615  0.3473 -1.5965
37725SOL     OW20032  10.721   3.516  11.183 -0.1263 -0.3366  0.5041
37725SOL    HW120033  10.675   3.450  11.234  0.4719 -1.0613  0.1236
37725SOL    HW220034  10.746   3.471  11.102  0.9160  0.1396  0.5381
37726SOL     OW20035   2.461   3.209   6.838 -0.0899 -0.2801  0.0308
37726SOL    HW120036   2.431   3.155   6.912 -0.2554 -0.5658 -0.2452
37726SOL    HW220037   2.450   3.153   6.761  1.2716 -0.4375 -0.0724
37727SOL     OW20038   0.250  11.459   1.147  0.3057 -0.4467  0.6536
37727SOL    HW120039   0.338  11.473   1.112 -0.0392 -0.3199 -0.1956
37727SOL    HW220040   0.195  11.520   1.098  0.2551  2.2261  3.7013
37728SOL     OW20041   9.958   4.871   4.914  0.3877  0.5705 -0.7641
37728SOL    HW120042  10.014   4.798   4.941  0.4011  0.9608  0.3184
37728SOL    HW220043  10.018   4.945   4.907  0.1853  0.7425 -0.6797
37729SOL     OW20044  11.292  10.519   3.209 -0.0662 -0.6048 -0.0787
37729SOL    HW120045  11.236  10.593   3.232 -0.3587 -0.2338 -1.8583
37729SOL    HW220046  11.376  10.539   3.251 -0.6702 -0.1900  0.9684
37730SOL     OW20047   8.547   1.179  11.215 -0.2847 -0.1144  0.2457
37730SOL    HW120048   8.473   1.173  11.154  0.2404  3.5688 -1.0299
37730SOL    HW220049   8.622   1.198  11.160  0.9228 -0.1707  1.8036
37731SOL     OW20050  12.405  11.373   0.082 -0.6671 -0.0421 -0.5727
37731SOL    HW120051  12.313  11.350   0.099 -0.5779  0.3298  0.5120
37731SOL    HW220052  12.434  11.310   0.016 -1.3207 -1.0398  0.0621
37732SOL     OW20053   7.089   2.671   6.103 -0.2112 -0.3513 -0.2270
37732SOL    HW120054   7.023   2.664   6.173 -1.9334 -1.6917 -1.8867
37732SOL    HW220055   7.110   2.764   6.100 -2.4475  0.2366  0.0366
37733SOL     OW20056   2.889   5.211   7.140 -0.1879 -0.8214  0.1265
37733SOL    HW120057   2.907   5.167   7.223  0.3309 -0.9732 -0.0585
37733SOL    HW220058   2.912   5.146   7.073 -1.5365 -1.0509 -0.1345
37734SOL     OW20059  12.335   8.074   7.458  0.1614  0.0857 -0.2166
37734SOL    HW120060  12.301   8.020   7.387 -0.7455 -0.7681  0.8337
37734SOL    HW220061  12.428   8.087   7.436  0.3646 -1.7644 -0.5899
37735SOL     OW20062   1.376   7.488   9.442 -0.2086  0.0340  0.5331
37735SOL    HW120063   1.414   7.567   9.480 -1.1870 -0.1708  2.0360
37735SOL    HW220064   1.436   7.418   9.468 -1.0931 -0.1676  2.1662
37736SOL     OW20065   1.673   3.522   1.928  0.4571  0.0325 -0.5821
37736SOL    HW120066   1.623   3.576   1.866 -1.7574  0.0817  1.1219
37736SOL    HW220067   1.690   3.579   2.002  1.0502 -0.6534 -0.1746
37737SOL     OW20068   1.939   2.827   9.017 -0.2491  0.4411 -0.2132
37737SOL    HW120069   1.881   2.787   8.952 -0.8509  1.3730 -0.2635
37737SOL    HW220070   1.954   2.916   8.985  1.1990  0.2355 -0.1820
37738SOL     OW20071   7.599   4.004   5.836 -0.1920  0.6715 -0.3193
37738SOL    HW120072   7.662   4.075   5.847  0.0948  0.3329  0.2472
37738SOL    HW220073   7.529   4.043   5.784  0.3159  1.1518 -0.6617
37739SOL     OW20074  11.200   2.525  10.298  0.2285 -0.0215 -0.1736
37739SOL    HW120075  11.148   2.448  10.274  0.0135  0.1186 -0.1616
37739SOL    HW220076  11.136   2.595  10.307  0.5635  0.4908 -1.5600
37740SOL     OW20077   9.997   7.630   4.600 -0.0520  0.0656 -0.5346
37740SOL    HW120078  10.088   7.661   4.606  0.8134 -2.4495  0.2841
37740SOL    HW220079  10.001   7.555   4.541 -1.2022 -1.4138  1.1871
37741SOL     OW20080   1.522   3.080  10.986 -0.1286  0.4697  0.2903
37741SOL    HW120081   1.582   3.025  10.935 -0.5927  0.6184 -0.4342
37741SOL    HW220082   1.538   3.055  11.077 -0.3361 -0.8922 -0.0132
37742SOL     OW20083   9.470   9.174   6.968 -0.4158 -0.7765  0.6375
37742SOL    HW120084   9.444   9.100   7.024  0.3552 -2.0171 -0.5672
37742SOL    HW220085   9.387   9.210   6.937 -0.8749 -3.2669 -1.3896
37743SOL     OW20086   5.522   0.770   3.868  0.4197 -0.3344 -0.1694
37743SOL    HW120087   5.475   0.742   3.790  1.2469  0.1162 -0.8481
37743SOL    HW220088   5.453   0.795   3.930 -0.2441 -0.7930 -0.7154
37744SOL     OW20089   4.758  11.462   3.723 -0.1168 -0.4234 -0.3792
37744SOL    HW120090   4.792  11.478   3.635  2.0706 -0.5495  0.3955
37744SOL    HW220091   4.695  11.533   3.738  2.5099  2.1151 -0.5180
37745SOL     OW20092  10.885   5.183   8.239  0.0133  0.0193  0.1791
37745SOL    HW120093  10.961   5.136   8.206 -0.3259  1.2086 -2.5222
37745SOL    HW220094  10.812   5.150   8.187 -0.5461  2.1017 -0.4253
37746SOL     OW20095   5.685   2.895   4.298  0.1952 -0.4293  0.2553
37746SOL    HW120096   5.755   2.879   4.234 -1.3681 -2.9975 -0.9573
37746SOL    HW220097   5.604   2.873   4.252 -1.0395 -2.1244  2.9781
37747SOL     OW20098   3.068  12.078  12.241 -0.0202 -0.3397 -0.1496
37747SOL    HW120099   3.053  12.033  12.158 -2.1538  0.6782 -0.3686
37747SOL    HW220100   3.029  12.164  12.229 -2.4514 -0.9112  2.6162
37748SOL     OW20101   2.889   1.000  10.338  0.3858 -0.0035 -0.3984
37748SOL    HW120102   2.851   0.973  10.255 -1.9373  0.8229  0.2944
37748SOL    HW220103   2.874   0.926  10.397  1.8627 -0.5163 -0.6264
37749SOL     OW20104  12.081   3.283  12.131  0.3983  0.0366 -0.3560
37749SOL    HW120105  12.044   3.371  12.129 -0.3002 -0.2492 -0.0720
37749SOL    HW220106  12.020   3.229  12.081  0.9181 -0.2566 -0.6863
37750SOL     OW20107   0.495   7.508   5.451 -0.2313  0.0628  0.6419
37750SOL    HW120108   0.456   7.420   5.454 -1.5076  0.5986  0.5074
37750SOL    HW220109   0.585   7.493   5.423 -1.1199 -0.9985 -1.9089
37751SOL     OW20110  10.024   0.453  10.304 -0.4001 -0.2645  0.0606
37751SOL    HW120111   9.958   0.517  10.276 -0.6379  0.0826  1.3439
37751SOL    HW220112  10.107   0.501  10.298 -0.4659 -0.1481  0.0815
37752SOL     OW20113   7.791   3.872  11.804 -0.0206  0.8121 -0.0529
37752SOL    HW120114   7.699   3.889  11.826 -0.5282 -0.3194 -1.1646
37752SOL    HW220115   7.789   3.843  11.713  1.2806 -0.5542  0.3126
37753SOL     OW20116   7.294   8.916   6.209 -0.1659  0.0905  0.1806
37753SOL    HW120117   7.273   9.005   6.182 -0.9689  0.4060  1.7360
37753SOL    HW220118   7.226   8.894   6.273  0.9515 -1.0362  1.0165
37754SOL     OW20119  12.404   7.477  10.969 -0.1379  0.5202  0.2679
37754SOL    HW120120  12.364   7.390  10.977 -2.4333  1.3807 -0.7639
37754SOL    HW220121  12.480   7.463  10.912 -1.3057 -0.6263 -1.1235
37755SOL     OW20122   9.325   2.675   2.393 -0.7097 -0.1222 -0.4971
37755SOL    HW120123   9.247   2.676   2.449 -0.8506  0.2032 -0.6950
37755SOL    HW220124   9.295   2.639   2.310 -0.6305 -0.0756 -0.5460
37756SOL     OW20125   2.795   1.953   5.868  0.0707  0.7530  0.4370
37756SOL    HW120126   2.872   1.897   5.882  0.9830  1.6022 -0.9716
37756SOL    HW220127   2.720   1.893   5.879  0.9696 -0.4722  0.1601
37757SOL     OW20128   6.341   8.778  10.698 -0.1483  0.0306 -0.1250
37757SOL    HW120129   6.293   8.702  10.665  0.1099 -0.2014  0.0285
37757SOL    HW220130   6.281   8.818  10.761  0.0973 -0.6273  0.5444
37758SOL     OW20131   8.868   2.858   8.738  0.0891  0.1199 -0.2604
37758SOL    HW120132   8.881   2.814   8.823 -0.6210  0.8846  0.2584
37758SOL    HW220133   8.773   2.861   8.726  0.1601  0.6052 -0.7619
37759SOL     OW20134   4.307   4.806   8.315  0.5019 -0.1117  0.0182
37759SOL    HW120135   4.229   4.854   8.345  1.6807  0.4537  2.5028
37759SOL    HW220136   4.273   4.735   8.262 -1.8210 -0.4352  1.7628
37760SOL     OW20137  10.975   8.083   5.919 -0.8802 -0.4553 -0.2731
37760SOL    HW120138  10.924   8.160   5.942 -0.4995  0.0864 -1.1847
37760SOL    HW220139  11.006   8.100   5.829  2.3575  0.0362  0.7960
37761SOL     OW20140   3.320   6.356   9.596  0.0218 -0.4508 -0.4299
37761SOL    HW120141   3.396   6.303   9.571  0.1215 -0.0202 -1.0620
37761SOL    HW220142   3.274   6.372   9.513 -0.2527  0.0739 -0.1807
37762SOL     OW20143   6.719   1.603   8.544  0.3963 -0.0497  0.0380
37762SOL    HW120144   6.753   1.516   8.523  0.2653 -0.1561  0.2516
37762SOL    HW220145   6.796   1.660   8.544  0.4442 -0.1168 -0.3591
37763SOL     OW20146   1.300   4.623   9.326  0.3676  0.1219 -0.2013
37763SOL    HW120147   1.291   4.661   9.414  0.9258  0.7132 -0.3875
37763SOL    HW220148   1.372   4.672   9.287  1.8971 -1.8733 -0.0675
37764SOL     OW20149   5.188   9.924   8.091 -0.0817 -0.5911 -0.1536
37764SOL    HW120150   5.255   9.880   8.143 -0.8731 -0.7379  0.7908
37764SOL    HW220151   5.236   9.984   8.034  0.7743  0.6222  1.7463
37765SOL     OW20152   9.148   1.413   7.418  0.1501  1.0159  0.1155
37765SOL    HW120153   9.152   1.318   7.432 -0.7049  0.9289 -0.1355
37765SOL    HW220154   9.097   1.423   7.338  1.2297  1.6630 -0.5115
37766SOL     OW20155   2.502   2.246   4.173  0.3514 -0.2154 -0.3188
37766SOL    HW120156   2.448   2.261   4.095  0.4932 -1.8029 -0.7641
37766SOL    HW220157   2.584   2.292   4.154  0.9746 -1.8400 -1.8302
37767SOL     OW20158  11.194   5.414  12.281  0.1488  0.7282 -0.4021
37767SOL    HW120159  11.133   5.340  12.281  0.3149  0.5905 -0.1003
37767SOL    HW220160  11.142   5.487  12.315  0.5500  0.2659  1.3292
37768SOL     OW20161   0.963   8.485  10.288 -0.5039  0.5148  0.4685
37768SOL    HW120162   0.947   8.394  10.262  1.1556  0.5509 -0.8343
37768SOL    HW220163   0.994   8.479  10.379  0.0341 -0.2656  0.2429
37769SOL     OW20164  11.231   5.788   3.560  0.4034 -0.3335  0.3304
37769SOL    HW120165  11.292   5.855   3.530  1.1595 -1.1714 -0.0410
37769SOL    HW220166  11.276   5.743   3.631  0.3024 -1.0557 -0.0436
37770SOL     OW20167   4.347   6.887   9.490  0.4501 -0.4921 -0.3884
37770SOL    HW120168   4.327   6.936   9.570 -0.4971 -0.8872 -0.3747
37770SOL    HW220169   4.388   6.952   9.433  0.5284 -0.0415  0.1684
37771SOL     OW20170   1.432   7.296  10.763  0.4009 -0.3431 -0.5725
37771SOL    HW120171   1.359   7.336  10.812  1.3908  1.2410 -0.3260
37771SOL    HW220172   1.400   7.209  10.739 -1.0231 -0.2337  0.7945
37772SOL     OW20173  12.389  11.779  10.648  0.4100 -0.1099  0.4719
37772SOL    HW120174  12.437  11.856  10.678 -1.6400  2.1831 -1.7251
37772SOL    HW220175  12.439  11.746  10.573 -0.9578  1.9209 -1.4423
37773SOL     OW20176   7.240   4.443  10.270  0.9562 -0.2831 -0.4858
37773SOL    HW120177   7.195   4.366  10.305  0.1046  0.6220  0.4874
37773SOL    HW220178   7.329   4.413  10.251  0.5057 -1.6123 -0.5846
37774SOL     OW20179   0.582   5.863   3.869 -0.1047  0.4736 -0.2106
37774SOL    HW120180   0.608   5.943   3.915 -2.3538  2.2461 -1.8004
37774SOL    HW220181   0.626   5.792   3.917 -0.5721  2.3462  3.2683
37775SOL     OW20182   4.177  10.353   6.216  0.5425  0.3255  0.3779
37775SOL    HW120183   4.085  10.329   6.204  0.4037  0.5883  0.8930
37775SOL    HW220184   4.225  10.291   6.160  0.0794 -0.0501  0.3882
37776SOL     OW20185   6.671   1.910   9.638 -0.3573 -0.3507 -0.2507
37776SOL    HW120186   6.705   1.970   9.572 -0.5865 -2.0314 -1.9810
37776SOL    HW220187   6.678   1.958   9.721  1.7326  1.1237 -1.2140
37777SOL     OW20188   3.297   9.110   5.747  0.0721 -0.2299 -0.2268
37777SOL    HW120189   3.252   9.073   5.671  1.2447 -1.6969 -0.2518
37777SOL    HW220190   3.385   9.130   5.715 -0.2723  1.9132  0.0062
37778SOL     OW20191   0.190   2.180   2.791  0.3450  0.4593  0.0014
37778SOL    HW120192   0.266   2.238   2.794 -0.1897  1.2233 -0.7175
37778SOL    HW220193   0.223   2.100   2.750  0.9819  0.4172  0.5777
37779SOL     OW20194   8.645   4.848  11.115 -0.4243  0.2750  0.4360
37779SOL    HW120195   8.648   4.904  11.193  0.4519  0.7500  0.0709
37779SOL    HW220196   8.645   4.759  11.150  0.6375  0.4723  0.9755
37780SOL     OW20197   7.420   4.304  12.501 -0.4840 -0.0075 -0.3604
37780SOL    HW120198   7.486   4.320  12.434 -1.1691 -0.6296 -1.2146
37780SOL    HW220199   7.337   4.327  12.458 -0.8821  0.1615  0.4806
37781SOL     OW20200   5.311   7.633   0.189 -0.7366  0.1447 -0.4318
37781SOL    HW120201   5.246   7.636   0.119 -2.2009  1.3925  0.9076
37781SOL    HW220202   5.271   7.680   0.262  1.2093 -0.0665  0.8674
37782SOL     OW20203   9.530   0.472   2.859 -0.0065  0.5377  0.2930
37782SOL    HW120204   9.592   0.545   2.868 -0.5296  1.1931 -1.2509
37782SOL    HW220205   9.584   0.398   2.830  0.0130  1.2616 -1.6458
37783SOL     OW20206   7.789  12.189  10.542  0.5132 -0.9751  0.6188
37783SOL    HW120207   7.720  12.123  10.551  1.2048 -1.7252  0.5838
37783SOL    HW220208   7.774  12.249  10.615 -0.3343 -0.9781  0.4560
37784SOL     OW20209  11.107   8.093   5.662  1.0844 -0.1135  0.0622
37784SOL    HW120210  11.198   8.065   5.652  1.6308  2.1094 -2.4532
37784SOL    HW220211  11.062   8.055   5.587  0.9897  2.2541 -1.1748
37785SOL     OW20212   9.874  10.427   3.645  0.7813 -0.1524  0.0598
37785SOL    HW120213   9.890  10.420   3.739  0.3904  0.9625  0.2197
37785SOL    HW220214   9.953  10.468   3.611  0.3665  0.7028  0.1100
37786SOL     OW20215   7.085   3.539   2.192  0.0890 -0.4170 -0.0394
37786SOL    HW120216   7.029   3.533   2.269 -0.1688 -0.6411 -0.2447
37786SOL    HW220217   7.136   3.458   2.194  0.1567 -0.3745 -0.0462
37787SOL     OW20218  10.470   6.643   0.839 -0.3692 -0.2155  0.6151
37787SOL    HW120219  10.392   6.604   0.800  0.0198  0.4431 -0.8815
37787SOL    HW220220  10.442   6.672   0.926 -1.0723 -2.3426  1.1458
37788SOL     OW20221   8.916  10.533   6.701 -0.1989  0.1955 -0.1087
37788SOL    HW120222   8.936  10.622   6.673  3.5617 -0.6374 -0.6531
37788SOL    HW220223   8.922  10.535   6.796  2.4895  0.1152 -0.2200
37789SOL     OW20224   5.126   2.354   7.803 -0.4342  0.9931  0.1862
37789SOL    HW120225   5.180   2.427   7.773  1.0829  1.1754  3.0266
37789SOL    HW220226   5.178   2.313   7.872 -3.0902 -0.0781  1.6863
37790SOL     OW20227   5.828  11.992   1.317 -0.3401  0.6191  0.0970
37790SOL    HW120228   5.886  11.932   1.363 -3.3475 -1.4966  1.4787
37790SOL    HW220229   5.774  11.935   1.262 -1.3290  2.4122 -0.8736
37791SOL     OW20230   9.035   6.185   2.000  0.5537  0.3249  0.5416
37791SOL    HW120231   8.946   6.178   2.034  1.0260 -1.9583  1.5599
37791SOL    HW220232   9.042   6.114   1.936  1.7149  0.2189  0.7588
37792SOL     OW20233   1.325  10.087  12.178  0.6233 -0.0403 -0.1107
37792SOL    HW120234   1.366  10.055  12.098 -0.1998  0.8944 -0.9324
37792SOL    HW220235   1.233  10.099  12.155  0.7622  2.3578  0.2585
37793SOL     OW20236   4.668  12.196   1.415  0.4670  0.8314  0.1811
37793SOL    HW120237   4.734  12.219   1.480  0.6793  0.3075  0.1488
37793SOL    HW220238   4.712  12.210   1.331 -0.1851  2.7027  0.0998
37794SOL     OW20239   8.670   7.645  11.936 -0.2439 -0.1990 -0.4388
37794SOL    HW120240   8.584   7.685  11.951 -0.8220 -1.2425 -0.8709
37794SOL    HW220241   8.670   7.622  11.844  1.0088  0.8905 -0.7507
37795SOL     OW20242  11.807   5.413   0.950  0.1818  0.6058  0.0949
37795SOL    HW120243  11.727   5.433   0.999  0.1330  1.2480 -0.2385
37795SOL    HW220244  11.876   5.464   0.994  0.5837 -0.5775  0.8951
37796SOL     OW20245   4.843   6.502   2.444  0.1553  0.4134 -0.5236
37796SOL    HW120246   4.897   6.541   2.512  1.4928 -1.1526 -0.6222
37796SOL    HW220247   4.787   6.573   2.413  0.6370  1.5338  1.0989
37797SOL     OW20248   4.538   2.124  12.564  0.1016  0.3537  0.1441
37797SOL    HW120249   4.628   2.135  12.595  0.0166  0.6040  0.3021
37797SOL    HW220250   4.487   2.187  12.615 -0.4147 -0.8077  1.1184
37798SOL     OW20251   5.943   3.779  12.512  1.0648  0.1865 -0.3855
37798SOL    HW120252   5.953   3.873  12.503  1.2087  0.2485  0.3317
37798SOL    HW220253   5.851   3.762  12.489  0.6258  0.7084  0.8777
37799SOL     OW20254  12.452  11.944   4.679  0.3202  0.0990  0.2236
37799SOL    HW120255  12.366  11.935   4.719  0.6164 -0.3579  0.7604
37799SOL    HW220256  12.457  11.873   4.615  0.5018 -0.1909  0.5599
37800SOL     OW20257  10.499   8.196   6.903  0.2095  0.2693  0.0530
37800SOL    HW120258  10.569   8.133   6.887 -0.3733 -0.9182  1.8831
37800SOL    HW220259  10.520   8.235   6.987 -1.1423  0.1252  0.4759
37801SOL     OW20260   1.899   7.517   8.890  0.4414  0.0164  0.7169
37801SOL    HW120261   1.806   7.508   8.871  1.0662 -2.1134 -1.9807
37801SOL    HW220262   1.921   7.439   8.941  0.7982  0.3863  1.1351
37802SOL     OW20263   6.574  11.509   7.419  0.3055  0.2997  0.1165
37802SOL    HW120264   6.666  11.510   7.394 -0.2848 -0.3325 -2.4223
37802SOL    HW220265   6.568  11.438   7.484  1.5094 -0.0597 -0.1321
37803SOL     OW20266   8.057   0.273  11.908 -0.0281 -0.1121  0.5017
37803SOL    HW120267   8.110   0.201  11.944 -0.9810 -0.7834  0.6012
37803SOL    HW220268   8.020   0.316  11.985  2.7070  2.3042  0.6594
37804SOL     OW20269   4.371   5.470   6.743 -0.0194  0.9434  0.3208
37804SOL    HW120270   4.341   5.386   6.709  0.0587  0.2728  1.8393
37804SOL    HW220271   4.291   5.520   6.759 -0.2887 -0.0628  2.4023
37805SOL     OW20272   7.228   1.088   9.356 -0.0070 -0.1680  0.0442
37805SOL    HW120273   7.142   1.081   9.316  0.2203 -1.4619 -0.2342
37805SOL    HW220274   7.281   1.135   9.291 -0.2905 -0.0451 -0.1004
37806SOL     OW20275   3.630   4.909   8.633 -0.7741 -0.2116  0.5436
37806SOL    HW120276   3.706   4.968   8.640  0.1368 -1.2981  0.1773
37806SOL    HW220277   3.621   4.894   8.539  0.5604 -2.5331  0.6984
37807SOL     OW20278  11.536   7.096   4.651 -0.6906 -0.6843  0.0345
37807SOL    HW120279  11.451   7.059   4.627 -1.9466  2.2429 -0.5978
37807SOL    HW220280  11.571   7.038   4.718 -3.0985 -2.1153  0.1432
37808SOL     OW20281   8.073   3.534   4.912  0.8013  0.1246  0.6650
37808SOL    HW120282   7.988   3.569   4.887  0.0495 -0.8481  1.7687
37808SOL    HW220283   8.103   3.486   4.834  2.1509  3.5344 -1.1365
37809SOL     OW20284  12.563   5.268   7.389  0.6847  0.4209  0.3131
37809SOL    HW120285  12.544   5.288   7.480  0.5020  1.2675  0.0955
37809SOL    HW220286  12.636   5.326   7.366 -0.6162  1.7393 -0.6598
37810SOL     OW20287   7.319  10.069   9.888 -0.4639  0.0677  0.5395
37810SOL    HW120288   7.350  10.076   9.797 -2.8867  0.1073 -0.3544
37810SOL    HW220289   7.357  10.146   9.931  0.0670  0.5016 -0.6359
37811SOL     OW20290   9.768   9.988   8.410 -0.0478  0.1546 -0.2001
37811SOL    HW120291   9.712   9.953   8.340  1.0048  0.8905 -1.4497
37811SOL    HW220292   9.770   9.918   8.475  1.4899 -1.9664 -2.3177
37812SOL     OW20293   6.660   1.878   5.464  0.3338  0.3882  0.8387
37812SOL    HW120294   6.725   1.948   5.454  0.7922 -0.1895 -0.5305
37812SOL    HW220295   6.693   1.807   5.409 -1.2060 -0.1054  0.4916
37813SOL     OW20296   5.000  11.921   1.948 -0.6416  0.1491  0.0226
37813SOL    HW120297   5.060  11.957   1.882 -0.2664 -0.7647 -0.1564
37813SOL    HW220298   4.915  11.956   1.925 -0.4042  0.3564 -0.5707
37814SOL     OW20299   8.413   4.900   1.602  0.1012 -0.9260 -0.2092
37814SOL    HW120300   8.419   4.965   1.532  2.4269  0.8427  1.4508
37814SOL    HW220301   8.417   4.951   1.682  0.5014 -3.0562  1.2133
37815SOL     OW20302   7.134   6.682   9.546  0.3388  0.2279  0.6101
37815SOL    HW120303   7.150   6.617   9.614 -2.2948 -0.5428  0.6202
37815SOL    HW220304   7.039   6.681   9.534  0.6635  0.3144 -3.0831
37816SOL     OW20305   9.743   1.744   9.897 -0.3183 -0.1460  0.2158
37816SOL    HW120306   9.788   1.775   9.818 -1.6942 -0.8324 -0.8819
37816SOL    HW220307   9.759   1.813   9.962  1.4243  0.1039 -0.4254
37817SOL     OW20308   7.345   7.644  10.840  0.1275 -0.5681 -0.4041
37817SOL    HW120309   7.308   7.732  10.829  0.8868 -0.2410 -0.3775
37817SOL    HW220310   7.364   7.638  10.934 -0.4273 -0.9679 -0.3152
37818SOL     OW20311  10.002   7.484  12.259  0.0039 -0.1334  0.8033
37818SOL    HW120312  10.032   7.442  12.339  1.8786 -0.2675  0.0796
37818SOL    HW220313   9.922   7.437  12.236 -0.6634  0.0176  2.6465
37819SOL     OW20314   1.302   2.558   8.375 -0.3884  0.1079 -0.0533
37819SOL    HW120315   1.332   2.480   8.327  0.2509 -0.1240  0.7052
37819SOL    HW220316   1.337   2.546   8.463  1.2073  2.0846 -0.3566
37820SOL     OW20317   4.793   2.923   3.895 -0.2602 -0.4321 -0.8491
37820SOL    HW120318   4.728   2.960   3.837 -1.9633 -0.9665  0.6370
37820SOL    HW220319   4.755   2.841   3.926  0.7991 -0.4297  0.6085
37821SOL     OW20320   4.948   2.868  12.185  0.2200  0.2238  0.6853
37821SOL    HW120321   4.881   2.819  12.137  0.5374  0.6177 -0.1892
37821SOL    HW220322   4.955   2.951  12.137  0.7783  0.4980  1.2319
37822SOL     OW20323   3.119   8.523   1.842  0.0609 -0.0591 -0.1695
37822SOL    HW120324   3.101   8.545   1.933  0.9643 -3.1909  0.8775
37822SOL    HW220325   3.036   8.487   1.809  0.4352 -1.4287  0.3098
37823SOL     OW20326   1.470  12.246  11.068  0.1937 -0.1133 -0.0093
37823SOL    HW120327   1.409  12.286  11.130  0.5727 -2.2197  1.8449
37823SOL    HW220328   1.521  12.184  11.120  3.3018  0.8400 -1.6734
37824SOL     OW20329  10.787   3.870   1.993  0.5571 -0.2611 -0.2996
37824SOL    HW120330  10.747   3.942   1.946 -0.5059  0.1913  1.2413
37824SOL    HW220331  10.715   3.810   2.012  1.1867 -1.0535 -0.3480
37825SOL     OW20332  12.061   0.851  11.685 -0.4006  0.9348  0.3748
37825SOL    HW120333  12.015   0.770  11.711  0.7488 -0.3944 -1.5260
37825SOL    HW220334  12.115   0.873  11.761  0.6099 -1.1310  0.3202
37826SOL     OW20335   6.368   4.452   8.657 -0.4899 -0.7339  0.4382
37826SOL    HW120336   6.281   4.474   8.693 -1.3156 -2.1118 -0.6440
37826SOL    HW220337   6.416   4.417   8.732 -1.6692 -2.1214  0.5887
37827SOL     OW20338   9.625  11.992  10.788  0.4119  0.3835  0.6068
37827SOL    HW120339   9.534  11.960  10.786  0.5337 -0.0114 -1.5378
37827SOL    HW220340   9.621  12.075  10.740  1.0533  0.7740  1.2289
37828SOL     OW20341   7.848   5.847   8.862 -0.3590  0.3703 -0.5602
37828SOL    HW120342   7.839   5.915   8.929 -2.1961  0.8385 -1.2225
37828SOL    HW220343   7.807   5.884   8.784 -0.0535 -0.9317 -1.3743
37829SOL     OW20344   3.949   8.358   9.279 -0.6595  0.6417  0.0291
37829SOL    HW120345   3.890   8.283   9.284 -0.1195  0.2877  2.4781
37829SOL    HW220346   3.894   8.433   9.301 -0.5870  0.5462  0.5525
37830SOL     OW20347   0.393  11.708  11.662  0.8387 -0.3390 -0.3124
37830SOL    HW120348   0.386  11.798  11.695  0.3712 -0.3292 -0.4224
37830SOL    HW220349   0.310  11.693  11.617  1.2323 -0.5579 -0.9675
37831SOL     OW20350  11.002   1.548  11.004  0.1638  0.0361 -0.4014
37831SOL    HW120351  11.072   1.544  11.070 -0.2213 -0.5301 -0.0197
37831SOL    HW220352  10.952   1.468  11.017  0.1249 -0.1282 -1.4422
37832SOL     OW20353   2.967   7.738   3.390 -0.4773 -0.0550  0.0476
37832SOL    HW120354   2.931   7.780   3.469 -0.0568  0.3733  0.0163
37832SOL    HW220355   3.027   7.803   3.354 -0.9060 -0.1250 -0.8072
37833SOL     OW20356   6.277  12.484   3.879 -0.0759  0.2666  0.3388
37833SOL    HW120357   6.257  12.392   3.864  1.4607 -0.1600  0.7609
37833SOL    HW220358   6.250  12.500   3.969  1.0207 -0.1950  0.7678
37834SOL     OW20359   4.179   9.516   9.019 -0.5720 -0.0870  0.2691
37834SOL    HW120360   4.188   9.429   8.979 -0.5972 -0.0008  0.0793
37834SOL    HW220361   4.267   9.537   9.051 -0.3351  0.2645 -0.5939
37835SOL     OW20362   1.283   9.486  12.144 -0.5665 -0.2278 -0.0829
37835SOL    HW120363   1.341   9.423  12.186  0.2283 -0.3343 -1.2810
37835SOL    HW220364   1.338   9.532  12.081 -1.5174  0.4997 -0.4241
37836SOL     OW20365   7.598   5.516   1.561  0.0080 -0.6156  0.1981
37836SOL    HW120366   7.509   5.520   1.597 -0.3818  0.9839 -0.8067
37836SOL    HW220367   7.654   5.501   1.637 -1.1443 -2.4543  0.7561
37837SOL     OW20368   9.759  12.302   0.836  0.2693 -0.1287  0.1196
37837SOL    HW120369   9.756  12.392   0.805 -1.4548  0.0116  0.6022
37837SOL    HW220370   9.704  12.302   0.914  0.6976 -1.4834  0.4413
37838SOL     OW20371   3.168   2.430   2.999  0.0367 -0.0578 -0.0799
37838SOL    HW120372   3.150   2.381   3.079 -1.3591  2.2031  1.0724
37838SOL    HW220373   3.085   2.431   2.952 -0.0245  1.3840  0.0357
37839SOL     OW20374   8.390  12.395   9.250  0.4006  0.4692 -0.0804
37839SOL    HW120375   8.466  12.378   9.194 -1.6014 -0.3241 -2.7663
37839SOL    HW220376   8.376  12.489   9.243  0.1777  0.3835 -0.9909
37840SOL     OW20377   4.216   2.174  10.715  0.1502  0.3836  0.0494
37840SOL    HW120378   4.284   2.108  10.727  0.5522  1.0423  1.6739
37840SOL    HW220379   4.216   2.223  10.797  1.3841  3.8561 -1.8333
37841SOL     OW20380   9.731   6.756   1.131  0.5320 -0.5741 -0.4199
37841SOL    HW120381   9.781   6.699   1.072  0.1459 -3.2156  1.6255
37841SOL    HW220382   9.639   6.739   1.108  0.3678 -1.7989  0.9939
37842SOL     OW20383   4.237   1.796  10.997  0.5228 -0.3089 -0.5388
37842SOL    HW120384   4.256   1.844  10.916 -1.6545 -0.3669 -1.1281
37842SOL    HW220385   4.203   1.862  11.057 -1.6954 -0.8995 -1.0722
37843SOL     OW20386   5.893   0.380   1.248 -0.7129  0.3517 -0.2020
37843SOL    HW120387   5.804   0.386   1.281 -0.9308  1.1460 -0.9155
37843SOL    HW220388   5.940   0.451   1.293 -0.2810 -0.4141  0.6044
37844SOL     OW20389  11.709   2.445  10.221 -0.0670 -0.0877  0.0177
37844SOL    HW120390  11.704   2.480  10.132 -0.5820 -1.2580 -0.4311
37844SOL    HW220391  11.785   2.387  10.220  0.4855  0.6062  0.6146
37845SOL     OW20392   0.619   9.694   2.252 -0.7649  0.4551 -0.0780
37845SOL    HW120393   0.523   9.686   2.252 -0.6695 -1.1456 -0.3240
37845SOL    HW220394   0.642   9.709   2.161 -0.7579  0.4627 -0.0750
37846SOL     OW20395   7.799   3.628   7.952  0.2747 -0.1169 -0.1979
37846SOL    HW120396   7.706   3.625   7.973  0.4900 -1.6101  0.6237
37846SOL    HW220397   7.808   3.705   7.895 -1.1946  0.9103  0.9071
37847SOL     OW20398   5.290   2.111   4.006  0.0940  0.0616 -0.5234
37847SOL    HW120399   5.337   2.065   4.076 -1.0000  0.7222  0.6651
37847SOL    HW220400   5.272   2.042   3.941  0.7654 -0.6455  0.0170
37848SOL     OW20401   8.001   0.693   1.672  0.5124 -0.4108 -0.2663
37848SOL    HW120402   7.934   0.760   1.683  0.5327 -0.4144 -0.1194
37848SOL    HW220403   7.972   0.621   1.729 -0.1911 -1.0491 -1.3920
37849SOL     OW20404   7.762   8.472  10.888  0.0234  0.0884  0.1219
37849SOL    HW120405   7.845   8.473  10.936 -0.0639  0.2975  0.2674
37849SOL    HW220406   7.697   8.500  10.953 -0.0872  0.4171 -0.1320
37850SOL     OW20407   1.368  11.220   8.624  0.2457 -0.0862  0.3916
37850SOL    HW120408   1.393  11.204   8.533 -0.3961  0.1151  0.1770
37850SOL    HW220409   1.411  11.302   8.647  0.9353 -0.4586  0.4844
37851SOL     OW20410   5.715   2.019   1.150 -0.0259  0.1882  0.0793
37851SOL    HW120411   5.627   2.056   1.137  0.5256  1.5699  0.1282
37851SOL    HW220412   5.723   2.009   1.245 -0.2964 -0.3845  0.0460
37852SOL     OW20413   2.363   9.592   1.949 -0.1465  0.4340  0.5950
37852SOL    HW120414   2.284   9.627   1.990 -0.7204  3.3801 -2.5637
37852SOL    HW220415   2.431   9.657   1.968  0.6452 -0.2962  0.3444
37853SOL     OW20416   3.398  10.752   8.030  0.3705  0.0790  0.5286
37853SOL    HW120417   3.462  10.780   8.096  0.4984  2.2895 -0.4459
37853SOL    HW220418   3.436  10.673   7.993  1.2496 -0.1138  1.7491
37854SOL     OW20419  11.467   3.111   4.393  0.1216 -0.2732  0.3755
37854SOL    HW120420  11.510   3.183   4.439  0.1250 -1.4305  2.3306
37854SOL    HW220421  11.374   3.121   4.414 -0.1360  0.2143 -0.9228
37855SOL     OW20422   2.114   3.946   9.399 -0.0642 -0.3697  0.1558
37855SOL    HW120423   2.180   3.876   9.401  0.4418 -0.4079 -5.2513
37855SOL    HW220424   2.161   4.024   9.426  1.1752 -1.0150 -0.0696
37856SOL     OW20425  11.719   9.761   2.872 -0.3334 -0.0600  0.5231
37856SOL    HW120426  11.803   9.715   2.881 -0.3037 -0.2188 -0.4500
37856SOL    HW220427  11.656   9.692   2.853  0.1226  0.3920 -3.5383
37857SOL     OW20428   3.583   3.657   8.230  0.5207 -0.5851  0.5464
37857SOL    HW120429   3.599   3.564   8.246 -1.5842 -1.0685  0.0647
37857SOL    HW220430   3.552   3.662   8.140  0.8381  0.6363  0.4778
37858SOL     OW20431   7.117   3.087   2.787 -0.0380 -0.3158 -0.4330
37858SOL    HW120432   7.110   3.008   2.733 -0.3292  0.1073 -1.0168
37858SOL    HW220433   7.151   3.154   2.728  0.5972 -0.0996  0.1653
37859SOL     OW20434   2.985  11.745   8.136 -0.1599 -0.1686 -0.2552
37859SOL    HW120435   2.937  11.668   8.166  0.1205 -0.2416  0.0162
37859SOL    HW220436   2.988  11.735   8.041  2.3006 -1.9916 -0.0969
37860SOL     OW20437   6.909   7.548   2.844  0.5379 -0.2604  0.5200
37860SOL    HW120438   6.871   7.460   2.855 -1.5140  0.6679  1.5572
37860SOL    HW220439   6.913   7.561   2.750 -1.9811 -0.4067  0.3192
37861SOL     OW20440  10.374   3.966   0.035  0.4951 -0.1678  0.0118
37861SOL    HW120441  10.444   4.029   0.018  0.0493  0.0739 -1.0261
37861SOL    HW220442  10.418   3.881   0.037  0.6835 -0.1617 -1.9460
37862SOL     OW20443   7.893   1.990   6.725  0.2198  0.3135 -0.1132
37862SOL    HW120444   7.884   1.946   6.641 -1.1136 -0.6419  0.4898
37862SOL    HW220445   7.834   1.942   6.783 -0.1671  2.0022  0.9427
37863SOL     OW20446   5.778   4.034   1.728  0.4409  0.2421 -0.0802
37863SOL    HW120447   5.803   3.972   1.797  0.1290 -1.6560 -1.5773
37863SOL    HW220448   5.860   4.072   1.699  1.0823 -1.8785 -1.2555
37864SOL     OW20449   5.621   4.242  10.510  0.5535  0.6411 -0.0175
37864SOL    HW120450   5.584   4.232  10.598 -2.6711 -0.8040 -1.3731
37864SOL    HW220451   5.686   4.172  10.503 -0.3865 -0.3437  0.7036
37865SOL     OW20452  10.395   2.517   5.418  0.1939 -0.3888  0.4954
37865SOL    HW120453  10.388   2.607   5.388  2.5845 -0.5312 -0.7831
37865SOL    HW220454  10.342   2.466   5.357  3.3554 -0.4175 -2.5867
37866SOL     OW20455   9.521   9.887  10.544  0.2427 -0.2276  0.2273
37866SOL    HW120456   9.555   9.808  10.586  1.0106  0.4298  0.8785
37866SOL    HW220457   9.590   9.914  10.484 -0.5968 -0.8174 -1.0575
37867SOL     OW20458   4.230   1.418   9.378 -0.3111  0.5192  0.0625
37867SOL    HW120459   4.145   1.449   9.345 -0.2124  1.2572  0.4771
37867SOL    HW220460   4.222   1.424   9.473  0.3471  0.9755  0.0949
37868SOL     OW20461   6.111   7.705   4.476 -0.3405 -0.4819  0.3893
37868SOL    HW120462   6.141   7.763   4.406 -0.3668  0.0015  0.7696
37868SOL    HW220463   6.022   7.680   4.450 -1.1943  1.4227  1.2722
37869SOL     OW20464   7.477   5.931   7.828  0.2367  0.2110 -0.3704
37869SOL    HW120465   7.413   5.980   7.879  1.2219  0.8998  0.2546
37869SOL    HW220466   7.528   5.883   7.894 -0.9045 -1.9411 -0.9888
37870SOL     OW20467   0.588   9.739  10.278  0.3268  0.4947 -0.1513
37870SOL    HW120468   0.646   9.802  10.235  0.1507 -0.1647 -1.4270
37870SOL    HW220469   0.523   9.717  10.210  0.2742 -0.9068  0.3282
37871SOL     OW20470   5.118   3.540  10.064  0.6424  0.1865 -0.0069
37871SOL    HW120471   5.117   3.591   9.983 -2.9151  1.1177  0.4660
37871SOL    HW220472   5.076   3.595  10.129  2.4124 -0.9701  2.2873
37872SOL     OW20473   0.606  11.050   8.637  0.2741 -0.0335 -0.0858
37872SOL    HW120474   0.619  10.958   8.661 -0.0167  0.2683  1.3309
37872SOL    HW220475   0.534  11.048   8.574 -0.9538 -0.6748  1.2626
37873SOL     OW20476   4.545   1.221   2.467  0.2631 -0.8121 -0.2430
37873SOL    HW120477   4.540   1.236   2.562  2.0654 -1.9421  0.0806
37873SOL    HW220478   4.632   1.253   2.442  0.4594 -1.9987 -1.1967
37874SOL     OW20479   4.742   3.056  11.868 -0.2613  0.0273  0.2438
37874SOL    HW120480   4.805   3.128  11.868  0.0820 -0.2740  0.3830
37874SOL    HW220481   4.764   3.004  11.791 -0.9046  0.4071 -0.2167
37875SOL     OW20482   3.538   0.521  10.282  0.2741  0.5256  0.1819
37875SOL    HW120483   3.575   0.458  10.343 -1.1982 -0.3067  0.2725
37875SOL    HW220484   3.583   0.505  10.199  1.7373  1.1465  0.8293
37876SOL     OW20485   2.971   7.175   6.003 -0.2477  0.7192  0.0053
37876SOL    HW120486   2.949   7.201   5.913  0.5901 -1.6976 -0.9617
37876SOL    HW220487   2.914   7.100   6.020  0.7591  0.1501  0.8991
37877SOL     OW20488   8.339   6.788   0.254  0.2593 -0.3613  0.1200
37877SOL    HW120489   8.392   6.795   0.333 -1.0969 -0.5278  1.0685
37877SOL    HW220490   8.364   6.703   0.216  1.8549  0.2917 -0.3648
37878SOL     OW20491   0.874   3.761   8.603 -0.2712 -0.1574  0.4374
37878SOL    HW120492   0.903   3.701   8.672  0.6973  0.2764  0.4097
37878SOL    HW220493   0.787   3.728   8.579  0.0970 -1.3507  0.6647
37879SOL     OW20494   8.052   4.046   5.826 -0.5122 -0.1727  0.0237
37879SOL    HW120495   7.990   4.055   5.753  0.2424  0.0838 -0.6091
37879SOL    HW220496   8.013   3.980   5.883 -1.2383 -0.2047 -0.4937
37880SOL     OW20497   0.172   1.154  10.191  0.3815  0.0813 -0.4103
37880SOL    HW120498   0.143   1.183  10.277  1.5337  0.2651 -0.0683
37880SOL    HW220499   0.207   1.066  10.205  0.2380 -0.0344 -0.7593
37881SOL     OW20500   4.486   1.481   7.702 -0.1464  0.3949  0.2567
37881SOL    HW120501   4.406   1.532   7.712 -0.5846 -0.2394  0.0465
37881SOL    HW220502   4.492   1.464   7.608  0.9841  1.6143  0.0838
37882SOL     OW20503   2.765   9.747   5.653  0.3771  0.1869  0.3193
37882SOL    HW120504   2.700   9.758   5.723 -0.8440 -1.1118 -0.5664
37882SOL    HW220505   2.734   9.804   5.582  1.5078  1.3495  0.6972
37883SOL     OW20506   7.331   2.915   3.841  0.2840 -0.2363  0.1296
37883SOL    HW120507   7.283   2.914   3.923 -0.6765  1.2120 -0.3874
37883SOL    HW220508   7.300   2.837   3.794  0.4951 -0.8124  0.9229
37884SOL     OW20509  10.635   2.441   5.364 -0.3321 -0.3510 -0.5365
37884SOL    HW120510  10.562   2.478   5.412  0.4488 -0.0783  0.4782
37884SOL    HW220511  10.708   2.501   5.382  0.3699 -1.1188 -0.7611
37885SOL     OW20512   5.620   1.911   4.251 -0.3038  0.2830 -0.7503
37885SOL    HW120513   5.670   1.892   4.171  1.5789  1.8188 -0.0323
37885SOL    HW220514   5.538   1.863   4.240 -0.0907  0.3856 -3.5699
37886SOL     OW20515   8.424   6.568  11.620  0.0155  0.2521 -0.0085
37886SOL    HW120516   8.352   6.629  11.632 -0.3864  0.1413 -1.5875
37886SOL    HW220517   8.502   6.624  11.614 -0.2135  0.5383 -0.3671
37887SOL     OW20518   7.595   3.660   5.119  0.2127 -0.2756 -0.1628
37887SOL    HW120519   7.536   3.585   5.118 -1.0135  0.6374  0.8011
37887SOL    HW220520   7.557   3.721   5.056  1.8911 -0.9033 -1.8927
37888SOL     OW20521   3.112   1.060   9.031 -0.0605 -0.3821 -0.0978
37888SOL    HW120522   3.096   0.990   8.967  0.8167 -0.2096 -0.5216
37888SOL    HW220523   3.207   1.056   9.047 -0.2808 -0.5428  1.3350
37889SOL     OW20524   3.725   4.834   4.202  0.0887 -0.1342 -0.2460
37889SOL    HW120525   3.666   4.907   4.181 -0.4967 -0.9609 -1.5865
37889SOL    HW220526   3.733   4.836   4.298 -0.0442  1.5745 -0.2448
37890SOL     OW20527   3.719   7.846   9.628  0.0836 -0.3583  0.2604
37890SOL    HW120528   3.681   7.925   9.590  1.0936  0.4945  0.9437
37890SOL    HW220529   3.695   7.776   9.568  0.4042  0.7041 -1.1684
37891SOL     OW20530  11.715   4.139   8.378  0.0511  0.2125  0.3591
37891SOL    HW120531  11.673   4.095   8.451 -0.5709 -0.5042 -0.4048
37891SOL    HW220532  11.681   4.229   8.381 -0.8896 -0.1279  0.2564
37892SOL     OW20533   5.750  11.338   0.794 -0.2394 -0.0806  0.1393
37892SOL    HW120534   5.827  11.378   0.833  0.4803 -0.8174 -0.4887
37892SOL    HW220535   5.686  11.409   0.787  0.4884  0.6049  0.3814
37893SOL     OW20536  10.585   5.628   0.549  0.3667  0.3927  0.1018
37893SOL    HW120537  10.618   5.608   0.461 -1.7611 -1.9799 -0.2756
37893SOL    HW220538  10.642   5.577   0.608 -1.7964 -3.0047 -0.4818
37894SOL     OW20539   1.860   9.967   8.932  0.1758 -0.4373  0.1664
37894SOL    HW120540   1.903   9.964   9.018 -0.4160 -0.1038  0.4835
37894SOL    HW220541   1.812   9.884   8.927  0.1293 -0.4124  0.2035
37895SOL     OW20542   0.855   8.425   4.778  0.5866 -0.1665 -0.3593
37895SOL    HW120543   0.837   8.434   4.872 -1.4204 -1.2985 -0.5737
37895SOL    HW220544   0.865   8.515   4.747  0.4971  0.2637  0.7967
37896SOL     OW20545   0.398   5.310  12.291 -0.2639  0.6759 -0.8722
37896SOL    HW120546   0.326   5.278  12.345 -1.3463  1.2959 -1.8983
37896SOL    HW220547   0.447   5.232  12.267 -1.2568  0.1028 -1.0892
37897SOL     OW20548   8.151   1.551   3.529 -0.1514  0.6722  0.1746
37897SOL    HW120549   8.189   1.632   3.563  2.2653 -0.8784  1.4886
37897SOL    HW220550   8.190   1.542   3.441 -0.0163  0.7061  0.2303
37898SOL     OW20551   0.060   6.067  11.460  0.1571 -0.2075  0.5609
37898SOL    HW120552   0.002   5.992  11.452  2.2196 -1.9046  0.6531
37898SOL    HW220553   0.025   6.132  11.399 -1.8775 -1.0787  0.7410
37899SOL     OW20554   2.858   8.918   8.849 -0.0939  0.0013  0.5573
37899SOL    HW120555   2.771   8.897   8.884 -0.6088 -0.7654 -1.0962
37899SOL    HW220556   2.901   8.833   8.837  0.2703  0.2717 -0.1235
37900SOL     OW20557  11.032   5.751   9.012  0.0152 -0.2551  0.0746
37900SOL    HW120558  10.990   5.668   8.990 -1.5419  0.4773  0.2072
37900SOL    HW220559  11.075   5.778   8.930 -1.6783  0.0795 -0.7402
37901SOL     OW20560   8.247   9.023  11.758 -0.1162 -0.0697  0.0042
37901SOL    HW120561   8.256   9.065  11.672 -0.1075 -2.2537 -1.1320
37901SOL    HW220562   8.161   9.049  11.789 -0.5067  0.0127 -1.1102
37902SOL     OW20563   9.650   1.968  10.471  0.2911  0.0560 -0.2125
37902SOL    HW120564   9.699   2.025  10.530 -0.9025 -1.0713  1.9854
37902SOL    HW220565   9.708   1.893  10.457  0.7992  0.5715 -0.9844
37903SOL     OW20566   6.269   2.017   7.096 -0.1136  0.3870  0.1302
37903SOL    HW120567   6.260   2.047   7.005  0.0292 -2.2390 -0.8165
37903SOL    HW220568   6.180   1.992   7.122 -0.1569  1.1404  0.7673
37904SOL     OW20569   4.624  12.079   3.994 -0.3735 -0.0265 -0.1592
37904SOL    HW120570   4.663  12.024   4.062  0.6351 -0.1821 -0.8425
37904SOL    HW220571   4.544  12.114   4.034  0.3872  0.1762  1.2314
37905SOL     OW20572   7.280   0.542  12.337 -0.2077 -0.2681  0.0829
37905SOL    HW120573   7.199   0.531  12.287 -0.9030  0.8285  0.9258
37905SOL    HW220574   7.252   0.552  12.428  0.6661  2.1892  0.1748
37906SOL     OW20575   5.378  10.739  11.172 -0.0154 -0.1975 -0.0457
37906SOL    HW120576   5.285  10.761  11.160 -0.1472 -1.6631 -2.4577
37906SOL    HW220577   5.423  10.824  11.167 -1.2190  0.5831  1.5947
37907SOL     OW20578   1.415   2.328  11.659  0.1991 -0.6116  0.3282
37907SOL    HW120579   1.454   2.245  11.632  3.0854  0.3649  1.0602
37907SOL    HW220580   1.448   2.342  11.748  0.4902  1.6352 -0.0725
37908SOL     OW20581   3.827   1.646   0.433 -0.2156  0.0563  0.1232
37908SOL    HW120582   3.861   1.728   0.399 -1.4719 -0.1559 -1.8269
37908SOL    HW220583   3.903   1.600   0.467  0.8481  1.0887 -0.7918
37909SOL     OW20584   7.504   2.128   3.114 -0.0398  0.1015  0.0158
37909SOL    HW120585   7.578   2.107   3.057 -0.4559  2.6748 -1.6438
37909SOL    HW220586   7.503   2.224   3.118 -1.6334  0.0793  2.2794
37910SOL     OW20587   8.453   4.335   3.831  0.3096  0.3442 -0.1116
37910SOL    HW120588   8.409   4.387   3.898  0.8265  0.4545  0.1555
37910SOL    HW220589   8.473   4.252   3.874  0.0601  0.1658 -0.3368
37911SOL     OW20590   0.267   8.258  12.458 -0.1494  0.3115 -0.5610
37911SOL    HW120591   0.276   8.336  12.512  1.6690 -0.7481  0.7499
37911SOL    HW220592   0.326   8.272  12.384 -0.1086  0.3408 -0.5228
37912SOL     OW20593   3.429   2.702  10.518  0.0024 -0.1904  0.0819
37912SOL    HW120594   3.487   2.632  10.546  3.0675  1.4299 -1.6049
37912SOL    HW220595   3.428   2.695  10.423 -0.2262  1.5357 -0.0742
37913SOL     OW20596   5.228   5.443   3.632 -0.0716 -0.5128  0.4003
37913SOL    HW120597   5.146   5.451   3.681  0.2430  0.7564  0.7547
37913SOL    HW220598   5.204   5.469   3.543  0.0573  0.4535  0.6362
37914SOL     OW20599  12.285   7.506   4.509 -0.4084 -0.5318  0.1342
37914SOL    HW120600  12.273   7.539   4.598  0.1493  1.1991 -0.3945
37914SOL    HW220601  12.241   7.571   4.453  0.1338 -1.0514 -0.9189
37915SOL     OW20602   4.944   6.904   0.342 -0.4519 -0.6029 -0.2957
37915SOL    HW120603   4.901   6.896   0.427  0.3806  0.0616  0.2092
37915SOL    HW220604   4.891   6.968   0.295  0.0798  0.4171  0.4228
37916SOL     OW20605   3.243   6.601   1.053 -0.0518  0.5111 -0.6068
37916SOL    HW120606   3.285   6.521   1.084 -0.3853  0.9409  1.0218
37916SOL    HW220607   3.267   6.606   0.960  2.2267 -0.0685 -0.1251
37917SOL     OW20608   2.715   2.156  10.155 -0.4026  0.0790 -0.8379
37917SOL    HW120609   2.693   2.228  10.215 -0.5193 -0.7453  0.1377
37917SOL    HW220610   2.633   2.138  10.109 -1.0145 -0.9004  0.5463
37918SOL     OW20611   7.361   2.079   7.342  0.4230 -0.7660 -0.5083
37918SOL    HW120612   7.343   2.172   7.360  1.2325 -0.5938 -0.5764
37918SOL    HW220613   7.275   2.037   7.350  0.0171  0.0113 -0.6263
37919SOL     OW20614   6.079  10.931   5.728 -0.4640 -0.1964  0.1887
37919SOL    HW120615   6.019  10.891   5.790  0.3890 -2.7427 -0.4828
37919SOL    HW220616   6.134  10.989   5.781 -0.6730 -1.2211  1.5739
37920SOL     OW20617   3.661   3.765  11.842  0.1084 -0.6389  0.1378
37920SOL    HW120618   3.670   3.674  11.869  1.7352 -0.0499  1.8322
37920SOL    HW220619   3.593   3.801  11.899 -1.7480 -1.1117 -1.6412
37921SOL     OW20620   3.445   9.506   9.270  0.0385  0.1589 -0.0580
37921SOL    HW120621   3.511   9.494   9.203 -0.2690 -0.2801 -0.2836
37921SOL    HW220622   3.471   9.448   9.341  1.4226  1.9833  1.0313
37922SOL     OW20623   4.660  10.887   8.007  0.1971  0.0667 -0.3350
37922SOL    HW120624   4.689  10.948   8.075 -0.3171  1.1750 -1.0652
37922SOL    HW220625   4.615  10.818   8.054  1.7298 -0.3418  0.6127
37923SOL     OW20626  12.298   7.791  10.659 -0.0466 -0.1887  0.3253
37923SOL    HW120627  12.202   7.785  10.663 -0.2114  0.5198 -1.6777
37923SOL    HW220628  12.316   7.837  10.577  2.0297 -0.4279  0.5987
37924SOL     OW20629  10.574   2.688  10.919 -0.5660 -0.0277 -0.2340
37924SOL    HW120630  10.603   2.618  10.978  0.4206 -0.0013 -0.6717
37924SOL    HW220631  10.654   2.735  10.897 -1.2144  1.2330  0.0328
37925SOL     OW20632   7.965   6.045   9.324  0.4364  0.7403 -0.2181
37925SOL    HW120633   7.874   6.060   9.350  0.2626  0.7275 -0.8115
37925SOL    HW220634   7.968   6.071   9.232  1.1890  1.3667 -0.0309
37926SOL     OW20635   2.321   6.188  12.174 -0.6733 -0.4437 -0.0464
37926SOL    HW120636   2.232   6.187  12.140 -1.2009  1.1638  1.1438
37926SOL    HW220637   2.321   6.125  12.246 -0.7378 -0.7126 -0.2802
37927SOL     OW20638   3.807   4.672   2.740  0.7533  0.3891 -0.0832
37927SOL    HW120639   3.863   4.724   2.683  0.8344  0.2716 -0.1118
37927SOL    HW220640   3.841   4.583   2.732  0.0149  0.1582 -0.7896
37928SOL     OW20641  11.987   4.715   4.513  0.1166 -0.6749 -0.0740
37928SOL    HW120642  11.945   4.671   4.439  0.1427 -1.7244  0.5159
37928SOL    HW220643  11.943   4.800   4.519 -0.4930 -0.9317 -0.7419
37929SOL     OW20644   4.408   8.996  10.079  0.1991  0.5565  0.4976
37929SOL    HW120645   4.478   8.950  10.126  1.0603  0.8440 -0.4690
37929SOL    HW220646   4.411   8.959   9.991 -0.5061  0.9726  0.2962
37930SOL     OW20647   0.971   2.354   3.840 -0.0621  0.2754  0.1094
37930SOL    HW120648   1.038   2.293   3.870 -1.6891  0.0117  3.7517
37930SOL    HW220649   0.891   2.303   3.837 -0.5730  1.0848 -2.1051
37931SOL     OW20650   5.780   7.599   6.264 -0.2445 -0.6182  0.2222
37931SOL    HW120651   5.704   7.592   6.322 -0.6001 -1.4544 -0.3176
37931SOL    HW220652   5.765   7.532   6.197 -1.0568  1.8501 -2.2484
37932SOL     OW20653  10.096   1.515   0.308 -0.2917  0.5621 -0.3466
37932SOL    HW120654  10.087   1.550   0.396  0.0068  0.4246 -0.2580
37932SOL    HW220655  10.096   1.592   0.251 -1.1048  0.6103 -0.2801
37933SOL     OW20656   1.833   2.594   1.131  0.5736 -0.1343 -0.8695
37933SOL    HW120657   1.862   2.546   1.208  1.4782 -1.1435 -1.8155
37933SOL    HW220658   1.837   2.531   1.059 -0.7122  0.6422 -1.6766
37934SOL     OW20659  12.372   6.785  10.037  0.5778 -0.6754  0.1563
37934SOL    HW120660  12.365   6.827  10.123  1.0227 -2.9739  1.4014
37934SOL    HW220661  12.368   6.692  10.056 -1.6345 -1.2750 -2.5604
37935SOL     OW20662   6.153   2.595  11.269 -0.4887  0.0557 -0.4890
37935SOL    HW120663   6.128   2.685  11.290 -0.1822  0.0300 -0.0105
37935SOL    HW220664   6.221   2.604  11.202  0.9931  0.2566  1.0064
37936SOL     OW20665  10.557   4.257   9.423  0.8056  0.0631 -0.3983
37936SOL    HW120666  10.582   4.268   9.514 -0.1187  0.9250 -0.2277
37936SOL    HW220667  10.639   4.261   9.374  1.2233  0.4669  0.3197
37937SOL     OW20668   1.646   6.906   9.472 -0.5949 -0.4006  0.0560
37937SOL    HW120669   1.602   6.937   9.393  1.6680  0.7680 -0.8500
37937SOL    HW220670   1.682   6.821   9.449  1.5915  0.6884 -0.9053
37938SOL     OW20671   7.194   5.343   0.250  0.9124  0.0582 -0.0789
37938SOL    HW120672   7.183   5.255   0.285 -1.2088 -0.0467 -0.9039
37938SOL    HW220673   7.150   5.341   0.165 -0.7160  2.3614  0.6285
37939SOL     OW20674  11.592   0.830  11.232 -0.1895 -0.4669 -0.1544
37939SOL    HW120675  11.687   0.823  11.233 -0.2467 -2.3974 -2.0202
37939SOL    HW220676  11.564   0.793  11.316  0.6274 -1.9015 -0.4975
37940SOL     OW20677   6.668  10.208   3.838  0.1701 -0.4515 -0.5969
37940SOL    HW120678   6.733  10.160   3.888 -1.5472 -1.2500  0.9970
37940SOL    HW220679   6.717  10.277   3.793  2.4704 -2.6755 -1.6949
37941SOL     OW20680   2.742   4.613   4.582 -0.2102  0.0755  0.1274
37941SOL    HW120681   2.751   4.572   4.496 -1.9881  3.2757 -1.7723
37941SOL    HW220682   2.663   4.575   4.619  0.1547 -0.7825  0.0424
37942SOL     OW20683  11.041   3.629   4.148 -0.2710  0.2928 -0.4084
37942SOL    HW120684  10.994   3.671   4.076  0.6553  2.9446  0.4169
37942SOL    HW220685  11.099   3.566   4.106 -1.7906 -0.2744 -1.7241
37943SOL     OW20686   1.675   1.453   6.749  0.0585  0.2635  0.1136
37943SOL    HW120687   1.581   1.469   6.761  0.0933 -1.1330  3.0451
37943SOL    HW220688   1.680   1.363   6.717  0.3822  1.0795 -2.3040
37944SOL     OW20689   3.391   6.868   4.194  0.0294 -0.4092 -0.6194
37944SOL    HW120690   3.384   6.778   4.226  0.5970 -0.8026 -1.5421
37944SOL    HW220691   3.310   6.910   4.223  0.8230 -0.4829  1.9675
37945SOL     OW20692   9.026   2.747   8.196  0.2206  0.1943  0.3246
37945SOL    HW120693   9.011   2.759   8.290  0.7528  1.3498  0.2699
37945SOL    HW220694   9.028   2.652   8.185  1.5078  0.0262  1.6999
37946SOL     OW20695  10.992   8.955   4.723 -0.3113 -0.3494 -1.1392
37946SOL    HW120696  11.029   8.869   4.741 -0.3769 -0.0479  0.6185
37946SOL    HW220697  10.992   8.962   4.627  2.4408 -1.0975 -1.2649
37947SOL     OW20698  12.217  11.094   9.576  0.3485  0.2319 -0.1666
37947SOL    HW120699  12.287  11.157   9.561  0.4858  0.4031  1.0346
37947SOL    HW220700  12.208  11.046   9.493  3.8804 -1.7874  0.4039
37948SOL     OW20701   4.331   3.965   3.814  0.5111 -0.3919  0.0764
37948SOL    HW120702   4.302   3.906   3.884  0.3153  0.3043  0.6019
37948SOL    HW220703   4.426   3.958   3.814  0.4747 -0.8516  0.0097
37949SOL     OW20704   1.840   0.731   3.693 -0.4324  0.1740 -0.7963
37949SOL    HW120705   1.778   0.683   3.638 -0.7443 -0.5437  0.1399
37949SOL    HW220706   1.787   0.764   3.765  0.1582  0.1158 -0.3265
37950SOL     OW20707  11.744   2.614   0.552 -0.4317 -0.2037 -0.3713
37950SOL    HW120708  11.722   2.521   0.558  1.0992 -0.7753 -2.4871
37950SOL    HW220709  11.801   2.629   0.628 -0.2173 -1.1427 -0.3316
37951SOL     OW20710  11.242   5.860   4.366 -0.2516  0.3641  0.4459
37951SOL    HW120711  11.207   5.775   4.341  0.6676  0.4083 -1.1942
37951SOL    HW220712  11.168   5.920   4.358 -0.6089 -0.0816  0.3733
37952SOL     OW20713   5.400   9.338  10.872 -0.4792 -0.0934 -0.5537
37952SOL    HW120714   5.319   9.300  10.905 -0.8832 -0.3039 -1.7322
37952SOL    HW220715   5.422   9.285  10.795 -0.7323  1.6563 -1.8982
37953SOL     OW20716   8.453   1.516   3.832  0.1429 -0.3800 -0.3429
37953SOL    HW120717   8.492   1.496   3.917 -1.2162 -0.5767  0.2675
37953SOL    HW220718   8.517   1.486   3.768  0.5662 -1.5884  0.6084
37954SOL     OW20719   7.481   4.332  10.199 -0.0862 -0.7185 -0.0374
37954SOL    HW120720   7.556   4.327  10.258 -0.5745 -2.5648  0.5020
37954SOL    HW220721   7.481   4.247  10.153 -1.5972 -0.5979 -0.3136
37955SOL     OW20722   7.300  11.413   1.677  0.4448 -0.4451  0.7523
37955SOL    HW120723   7.258  11.477   1.735  0.8837  1.1716 -0.6221
37955SOL    HW220724   7.283  11.447   1.589 -1.6235 -3.6802 -0.2471
37956SOL     OW20725  11.568   7.421   2.555  0.3458  0.1722 -0.3031
37956SOL    HW120726  11.561   7.516   2.543  1.5706  0.0689 -2.4204
37956SOL    HW220727  11.657   7.408   2.587  0.2202 -0.2707 -0.1323
37957SOL     OW20728   1.292   1.404   2.791 -0.2827  0.0461 -0.1659
37957SOL    HW120729   1.235   1.331   2.817 -2.0807  1.3347 -0.2629
37957SOL    HW220730   1.319   1.382   2.701  1.2058 -1.6271  0.6360
37958SOL     OW20731   7.364  11.337   4.694  0.6644 -0.3267 -0.2278
37958SOL    HW120732   7.357  11.384   4.777  1.1242 -1.1134  0.2586
37958SOL    HW220733   7.457  11.341   4.671  0.4164  0.6477 -1.1672
37959SOL     OW20734  11.125   9.093   8.202 -0.2447  0.3455 -0.3706
37959SOL    HW120735  11.040   9.133   8.222 -0.3611  1.0272 -2.0924
37959SOL    HW220736  11.156   9.140   8.124  1.4347 -0.3077 -0.1385
37960SOL     OW20737  12.065   1.071   9.178  0.1586  0.0350  0.2526
37960SOL    HW120738  12.092   1.016   9.251 -1.3583 -0.0551  0.7688
37960SOL    HW220739  12.044   1.156   9.218 -2.7517 -0.6133  0.3192
37961SOL     OW20740   1.893  11.683   9.538  0.4672 -0.3706 -0.1161
37961SOL    HW120741   1.815  11.650   9.493  0.4920 -1.4945  0.6261
37961SOL    HW220742   1.938  11.735   9.471 -1.5059  1.3558 -0.2334
37962SOL     OW20743   4.079   9.500   7.842  0.8739 -0.2666 -0.1707
37962SOL    HW120744   3.993   9.509   7.800  0.4129  0.9144  0.9767
37962SOL    HW220745   4.141   9.513   7.770  0.1065  0.3215 -0.7467
37963SOL     OW20746   5.899   9.844  11.885 -0.0450 -0.2879  0.0374
37963SOL    HW120747   5.830   9.823  11.948 -1.2795 -1.8684 -1.7100
37963SOL    HW220748   5.865   9.812  11.801  2.8242 -1.1890 -0.9187
37964SOL     OW20749   5.595   8.959   9.513  0.0704  0.1767 -0.0360
37964SOL    HW120750   5.512   8.916   9.536 -0.2499  1.3324  1.0844
37964SOL    HW220751   5.660   8.888   9.517 -0.6552 -0.4842  0.3965
37965SOL     OW20752   9.238  12.543   8.828  0.3259  0.1939 -0.1222
37965SOL    HW120753   9.323  12.501   8.817  0.6283  0.8490 -0.3536
37965SOL    HW220754   9.183  12.505   8.759  0.0804 -1.0769  0.7441
37966SOL     OW20755   9.053   4.511   6.640  0.5645 -0.0994 -0.0476
37966SOL    HW120756   9.047   4.521   6.545 -0.9186  1.5924  0.1623
37966SOL    HW220757   8.975   4.460   6.664  0.6214 -0.0168  0.3165
37967SOL     OW20758   1.600   1.925   1.788  0.4910  0.2724  0.1310
37967SOL    HW120759   1.577   1.943   1.879 -0.5266 -1.7950  0.3289
37967SOL    HW220760   1.549   1.988   1.737 -0.4016  0.2004  0.9151
37968SOL     OW20761   1.604   2.531   9.637  0.0398  0.1297 -0.0652
37968SOL    HW120762   1.647   2.575   9.710  0.4716  1.1714 -0.9114
37968SOL    HW220763   1.613   2.438   9.656  0.2352  0.3856  1.1475
37969SOL     OW20764   3.405  10.319   7.341  0.8095 -0.0004 -0.3932
37969SOL    HW120765   3.329  10.376   7.328 -0.9063 -2.2771 -0.8903
37969SOL    HW220766   3.409  10.265   7.262  2.4368 -0.5169  0.0079
37970SOL     OW20767  10.114   4.234   9.259  0.0518  0.7380 -0.5190
37970SOL    HW120768  10.166   4.221   9.338  0.5467  1.8150 -0.6539
37970SOL    HW220769  10.067   4.151   9.248 -0.1019  0.5948  0.9457
37971SOL     OW20770  11.766  10.022   3.697  0.2622 -0.0521 -0.6829
37971SOL    HW120771  11.741  10.094   3.640  0.6228  0.1132 -0.6411
37971SOL    HW220772  11.856  10.001   3.670 -0.3281 -1.4664 -1.6971
37972SOL     OW20773  12.363   8.488  10.458  0.0363  0.2302  0.8855
37972SOL    HW120774  12.430   8.510  10.523 -0.8420  0.1268  1.8605
37972SOL    HW220775  12.327   8.573  10.431  0.0250  0.2474  0.9548
37973SOL     OW20776   1.573   8.710   1.144 -0.6012 -0.4805 -0.7313
37973SOL    HW120777   1.664   8.733   1.127  0.0523 -1.3127  1.2533
37973SOL    HW220778   1.523   8.788   1.120  1.0130  1.3567  1.4482
37974SOL     OW20779   2.687   7.952   6.614  0.2939  0.0167 -0.6225
37974SOL    HW120780   2.679   7.859   6.633 -1.8642  0.1487 -0.6032
37974SOL    HW220781   2.735   7.956   6.531 -0.5774 -1.1954 -1.2134
37975SOL     OW20782   3.757   8.765  12.329 -0.6662 -0.5301 -0.2545
37975SOL    HW120783   3.836   8.796  12.373 -0.4359  0.7811 -1.5249
37975SOL    HW220784   3.688   8.776  12.395  0.2138 -1.9795  0.9805
37976SOL     OW20785  12.334   6.917   7.358 -0.1179  0.0015 -0.2722
37976SOL    HW120786  12.392   6.957   7.424 -1.6682 -0.1774  1.2711
37976SOL    HW220787  12.345   6.823   7.372  0.2282 -0.0641 -0.9289
37977SOL     OW20788   1.630   6.850   1.697 -0.2185  0.3278 -0.0193
37977SOL    HW120789   1.570   6.790   1.654 -1.9274 -0.6609  3.3678
37977SOL    HW220790   1.584   6.934   1.697  0.1813  0.5507 -0.8649
37978SOL     OW20791   1.472   6.905   8.380  0.0723  0.1240  0.4118
37978SOL    HW120792   1.522   6.975   8.420 -0.8066  1.2842 -0.4395
37978SOL    HW220793   1.537   6.853   8.332  0.8632 -0.2425  1.8179
37979SOL     OW20794   1.184   6.712   5.890 -0.2458 -0.5114 -0.4885
37979SOL    HW120795   1.220   6.686   5.805 -0.4053 -2.3712 -0.0385
37979SOL    HW220796   1.164   6.629   5.934 -0.4212  0.4070  1.2625
37980SOL     OW20797  11.390   8.148  10.023  0.0361  0.4236  0.3999
37980SOL    HW120798  11.315   8.092  10.003  0.3529  0.3248 -0.5537
37980SOL    HW220799  11.466   8.090  10.015  0.2722  0.6841  0.6964
37981SOL     OW20800   1.390  11.016   3.029  0.4900  0.3047  0.2648
37981SOL    HW120801   1.361  11.106   3.047  0.7247  0.3450  0.4670
37981SOL    HW220802   1.454  11.026   2.958  0.8720  0.3581  0.6101
37982SOL     OW20803  10.152   9.165   7.685 -0.0703 -0.3134 -0.0270
37982SOL    HW120804  10.102   9.089   7.715 -0.6048 -0.0710 -0.2944
37982SOL    HW220805  10.111   9.189   7.602  0.0758  0.2886  0.0736
37983SOL     OW20806  10.964   9.435   2.507 -0.0630  0.2757 -0.3341
37983SOL    HW120807  10.930   9.524   2.504 -0.3555  0.1664 -0.2870
37983SOL    HW220808  10.897   9.385   2.554  0.3636  0.1482  0.1496
37984SOL     OW20809   2.261   6.641   2.138 -0.0823 -0.5332  0.2538
37984SOL    HW120810   2.177   6.595   2.134 -0.0324 -0.5977 -0.1354
37984SOL    HW220811   2.326   6.573   2.116  0.0797 -0.5000  0.6178
37985SOL     OW20812   4.510   2.303   0.611  0.4597 -0.1888 -0.9365
37985SOL    HW120813   4.574   2.233   0.623 -1.8416 -2.3656 -0.6198
37985SOL    HW220814   4.498   2.339   0.699  1.0807  0.1218 -0.9698
37986SOL     OW20815   2.814  10.065   4.324  0.6238 -0.0925 -0.1231
37986SOL    HW120816   2.725  10.031   4.328  0.7845 -0.4987  0.0519
37986SOL    HW220817   2.846  10.062   4.414  0.8272  0.0206 -0.1893
37987SOL     OW20818   5.099   4.805   8.580 -0.2464  0.5866 -0.0907
37987SOL    HW120819   5.021   4.752   8.560 -0.3150  0.1588  1.2171
37987SOL    HW220820   5.065   4.893   8.595 -0.4808  0.4149  0.4077
37988SOL     OW20821   5.955   7.983   7.973 -0.2001  0.0637  0.2763
37988SOL    HW120822   5.983   7.892   7.981 -0.0713  0.2166  1.8528
37988SOL    HW220823   5.888   7.981   7.905 -2.3962 -1.7702  2.2880
37989SOL     OW20824   3.712   8.353  12.497 -0.0823  0.3385  0.0530
37989SOL    HW120825   3.685   8.439  12.527 -0.6109 -0.0155  0.6232
37989SOL    HW220826   3.632   8.301  12.498 -0.5319  0.7218 -3.6686
37990SOL     OW20827   7.702   2.985   7.060 -0.0530 -0.4297  0.0303
37990SOL    HW120828   7.668   3.003   7.148  0.2012  0.2726 -0.0063
37990SOL    HW220829   7.794   2.964   7.073  0.2372  0.6477 -0.1449
37991SOL     OW20830   0.519   0.654   1.204 -0.2079 -0.3502  0.7010
37991SOL    HW120831   0.437   0.640   1.252 -1.3151  0.6000 -0.8302
37991SOL    HW220832   0.496   0.714   1.133  1.5912 -0.8734 -0.4024
37992SOL     OW20833  12.362   6.091   9.978  0.1156  0.1020  0.0002
37992SOL    HW120834  12.421   6.042  10.035  1.7412  0.8620 -0.9658
37992SOL    HW220835  12.355   6.039   9.899  0.6419  0.6985 -0.4440
37993SOL     OW20836   9.156   3.369  11.696 -0.8937  0.5574 -0.3399
37993SOL    HW120837   9.162   3.285  11.650  1.6606 -0.0485  0.9073
37993SOL    HW220838   9.169   3.435  11.628 -1.9465 -0.0890 -1.1865
37994SOL     OW20839   9.926   8.030   6.618 -0.0880  0.3914  0.0253
37994SOL    HW120840   9.935   8.086   6.540  2.1537 -1.0173 -0.8326
37994SOL    HW220841   9.890   8.088   6.685 -0.6128  2.0668 -1.6150
37995SOL     OW20842   4.154   2.510   7.600 -0.6707 -0.1534 -0.2549
37995SOL    HW120843   4.118   2.551   7.522 -0.2975  1.0121  0.1625
37995SOL    HW220844   4.209   2.439   7.567 -3.5216 -2.2796 -0.9258
37996SOL     OW20845   0.419   0.342   3.006  0.0037 -0.1604  0.1504
37996SOL    HW120846   0.438   0.422   3.056 -0.2869 -0.6853  1.1201
37996SOL    HW220847   0.328   0.322   3.026  0.3229 -1.2127  0.6050
37997SOL     OW20848  10.703   9.473   6.557  0.3049 -0.1922  0.1912
37997SOL    HW120849  10.644   9.523   6.615 -0.2478  1.1971 -1.4812
37997SOL    HW220850  10.652   9.396   6.531 -0.1606  0.1548  0.0674
37998SOL     OW20851  11.634   2.378   2.481 -0.5348 -0.1665 -0.0466
37998SOL    HW120852  11.726   2.359   2.496 -0.0813  3.0410  2.1059
37998SOL    HW220853  11.630   2.406   2.389  0.6860 -0.1073 -0.0949
37999SOL     OW20854   7.721   5.138   2.971  0.0069  0.1052 -0.8725
37999SOL    HW120855   7.771   5.068   2.930  1.0074 -0.6102  1.4259
37999SOL    HW220856   7.777   5.171   3.041 -1.2502  1.8732 -0.6153
38000SOL     OW20857   3.588   2.263   6.478  0.0100 -0.2099 -0.2319
38000SOL    HW120858   3.529   2.248   6.405  0.3035 -0.1705 -0.4812
38000SOL    HW220859   3.676   2.253   6.441  0.1779 -3.3021  0.7241
38001SOL     OW20860  10.224   2.746   1.462 -0.0347  0.2529  0.6072
38001SOL    HW120861  10.129   2.741   1.473 -0.0200 -0.9161  0.3285
38001SOL    HW220862  10.253   2.655   1.471  0.8965  0.4070 -0.7555
38002SOL     OW20863   4.275   2.266   1.460  0.1830 -0.2253 -0.0924
38002SOL    HW120864   4.312   2.201   1.520 -0.4743 -0.0851  0.4775
38002SOL    HW220865   4.331   2.342   1.470  0.2716 -0.3151  0.1009
38003SOL     OW20866   2.020   3.370  11.294 -0.1334  0.2667 -0.3203
38003SOL    HW120867   1.950   3.312  11.322 -1.3670  1.8430 -0.0110
38003SOL    HW220868   2.100   3.324  11.318 -0.9772 -2.1576 -1.8126
38004SOL     OW20869   1.764  11.160   3.283  0.2548 -0.4249 -0.6920
38004SOL    HW120870   1.790  11.104   3.356  0.6313 -0.2653 -0.6989
38004SOL    HW220871   1.669  11.151   3.278  0.1749 -0.0660  0.1126
38005SOL     OW20872   1.111   4.386  12.193 -0.3537 -0.1331  0.1782
38005SOL    HW120873   1.070   4.351  12.114 -0.7512 -1.5666  0.9698
38005SOL    HW220874   1.069   4.338  12.264 -0.4477  1.5688  1.3058
38006SOL     OW20875   5.359   7.310   4.833 -0.2195 -0.3647  0.4704
38006SOL    HW120876   5.446   7.297   4.871 -0.9272 -0.6031  2.0827
38006SOL    HW220877   5.374   7.312   4.739  1.5931  0.0841  0.7337
38007SOL     OW20878   6.388  10.368  10.292 -0.2468 -0.0394 -0.1658
38007SOL    HW120879   6.371  10.412  10.208 -1.2245  1.6603  0.8505
38007SOL    HW220880   6.439  10.432  10.342  0.4823 -1.1043  0.4877
38008SOL     OW20881  10.321   8.927  12.093 -0.5265  0.2156 -0.5887
38008SOL    HW120882  10.265   8.873  12.148  0.8276 -0.9381 -0.2819
38008SOL    HW220883  10.273   9.009  12.083 -1.7247 -0.2994  0.6054
38009SOL     OW20884   4.716   5.792   6.010 -0.3750  0.3431 -0.0704
38009SOL    HW120885   4.730   5.761   5.920 -0.1090  0.7630 -0.1752
38009SOL    HW220886   4.667   5.721   6.052  0.4879 -0.3789 -0.2231
38010SOL     OW20887  10.034   5.074   8.716  0.1218 -0.5010  0.5070
38010SOL    HW120888  10.092   5.125   8.773 -0.1359 -0.8957  1.1432
38010SOL    HW220889  10.045   4.983   8.746  0.0651 -0.7311 -0.1567
38011SOL     OW20890   4.627   0.885   6.510  0.1893 -0.0175  0.2080
38011SOL    HW120891   4.693   0.916   6.573  1.9279  0.1776 -1.5999
38011SOL    HW220892   4.673   0.817   6.460 -0.5718  0.9184 -1.8677
38012SOL     OW20893   4.039  12.313   3.340 -0.3940 -0.4879  0.6711
38012SOL    HW120894   3.990  12.240   3.303  0.3666  0.1436 -1.7174
38012SOL    HW220895   4.021  12.386   3.282 -0.9772  1.2650  2.8880
38013SOL     OW20896  11.549   6.388   0.318  0.2531  0.1023  0.3053
38013SOL    HW120897  11.465   6.425   0.348 -1.4831 -2.1844 -1.3859
38013SOL    HW220898  11.532   6.295   0.309  2.6046 -0.2360 -1.4741
38014SOL     OW20899   6.671   9.833   5.437  0.1314 -0.4053  0.0675
38014SOL    HW120900   6.748   9.832   5.494  0.6483  0.9259 -0.5731
38014SOL    HW220901   6.597   9.837   5.497  0.6598  0.8648  0.6764
38015SOL     OW20902   0.962  12.186  10.327  0.7584 -0.4335  0.5201
38015SOL    HW120903   0.945  12.212  10.417  1.8338 -0.9000  0.8694
38015SOL    HW220904   1.007  12.260  10.288  0.6065 -0.3702  0.4637
38016SOL     OW20905   0.871   6.931   6.220 -0.1044 -0.2692  0.2202
38016SOL    HW120906   0.895   6.848   6.261 -0.6364  0.0563  1.2235
38016SOL    HW220907   0.836   6.907   6.134  4.0776 -0.7564 -1.5807
38017SOL     OW20908   7.664   4.759   8.370 -0.1137  0.9734 -0.5515
38017SOL    HW120909   7.756   4.772   8.347  0.0737  1.2797  0.3387
38017SOL    HW220910   7.624   4.726   8.289  1.1232 -0.8710 -0.4809
38018SOL     OW20911   9.452   4.025  11.287  0.2938 -0.3763  0.8473
38018SOL    HW120912   9.496   4.032  11.202 -1.1516  0.8753  0.1577
38018SOL    HW220913   9.513   3.974  11.341  1.9797  0.1681 -0.4425
38019SOL     OW20914   4.947   0.161   6.293 -0.3951 -0.3434  0.0257
38019SOL    HW120915   4.858   0.157   6.259 -0.0916  1.2381 -1.0743
38019SOL    HW220916   5.002   0.140   6.217  0.2103  0.6324  0.1738
38020SOL     OW20917  10.042   5.923   6.878  0.2359 -0.2994  0.0385
38020SOL    HW120918  10.122   5.903   6.927 -0.2651  1.0449  1.5202
38020SOL    HW220919  10.052   6.015   6.853 -1.6783  0.5742  2.1127
38021SOL     OW20920  11.828   2.162  11.051  0.3147  0.2632  0.1386
38021SOL    HW120921  11.755   2.142  11.109  0.4485 -1.7130 -0.2825
38021SOL    HW220922  11.787   2.186  10.968  0.0767 -1.8912 -0.4221
38022SOL     OW20923   3.712  10.195   6.421 -0.2991 -0.3926 -0.0500
38022SOL    HW120924   3.716  10.226   6.330  1.6538  0.7800  0.3554
38022SOL    HW220925   3.646  10.126   6.420 -1.9064  1.0288 -1.9044
38023SOL     OW20926   4.450   5.935   3.977  0.0127 -0.0629  0.3956
38023SOL    HW120927   4.387   5.945   4.048 -1.8696 -1.1332 -1.0261
38023SOL    HW220928   4.479   6.024   3.958 -0.8442  0.4286  1.2982
38024SOL     OW20929   2.189   5.686   9.189 -0.1644 -0.4569 -0.0623
38024SOL    HW120930   2.270   5.676   9.139  1.3771  0.6728  2.0594
38024SOL    HW220931   2.155   5.771   9.161  0.2473 -0.2041  0.1983
38025SOL     OW20932   2.355   5.513   9.387  0.1618 -0.1556  0.0185
38025SOL    HW120933   2.319   5.561   9.313  0.6928  0.3529  0.0779
38025SOL    HW220934   2.357   5.577   9.459 -0.1376 -0.5774  0.4058
38026SOL     OW20935   5.197   8.697   8.681  0.0879 -0.6493  0.0018
38026SOL    HW120936   5.268   8.753   8.650  0.4428  0.3816  2.4770
38026SOL    HW220937   5.117   8.740   8.651  0.3904 -1.8168 -2.8018
38027SOL     OW20938  10.380   6.730  12.053 -0.4650  0.1770 -0.5975
38027SOL    HW120939  10.445   6.773  12.110 -0.3085 -0.7227 -0.0836
38027SOL    HW220940  10.400   6.762  11.965 -0.6582  1.5378 -0.1838
38028SOL     OW20941   1.751   9.280   6.499  0.1611 -0.4094  0.6059
38028SOL    HW120942   1.779   9.220   6.430  1.4537  1.1115 -0.2593
38028SOL    HW220943   1.749   9.226   6.578  2.8741 -1.3156  0.1915
38029SOL     OW20944   8.454  12.532  11.079  0.4352  0.1288 -0.1230
38029SOL    HW120945   8.478  12.451  11.125 -1.1216 -0.2005  0.1814
38029SOL    HW220946   8.411  12.585  11.146  1.5690  1.2858 -0.2898
38030SOL     OW20947   3.009   8.241   8.943  0.4575 -0.5454  0.3147
38030SOL    HW120948   3.026   8.308   9.009  0.2657  1.2080 -1.3281
38030SOL    HW220949   3.092   8.232   8.896  0.3246 -1.0714  0.1752
38031SOL     OW20950  11.699   3.741   0.415 -0.0578  0.0178 -0.0826
38031SOL    HW120951  11.770   3.681   0.438  1.1080  1.9041  1.6054
38031SOL    HW220952  11.631   3.726   0.480  0.1008  0.3021  0.1500
38032SOL     OW20953  11.083  10.825  12.395  0.3924 -0.1057 -0.2321
38032SOL    HW120954  11.121  10.839  12.482 -2.0273  0.4047  0.7996
38032SOL    HW220955  11.159  10.828  12.336  1.8371  2.3517  1.5260
38033SOL     OW20956   8.001   1.350   3.136 -0.1358  0.3174 -0.1305
38033SOL    HW120957   7.962   1.331   3.221 -0.5505  0.3991 -0.2989
38033SOL    HW220958   7.938   1.315   3.073  0.7359 -0.8171 -0.3913
38034SOL     OW20959   2.864   6.874   6.117  0.4220 -0.3797  1.1084
38034SOL    HW120960   2.815   6.920   6.186 -0.6357  1.0507 -0.5273
38034SOL    HW220961   2.798   6.819   6.074  0.3098  1.1025 -0.7210
38035SOL     OW20962   9.255   8.173   9.488 -0.1688 -0.2474  0.0427
38035SOL    HW120963   9.194   8.231   9.443  1.7615  0.8152 -1.4005
38035SOL    HW220964   9.278   8.221   9.568 -1.3886 -0.7868  0.7414
38036SOL     OW20965   0.021   3.319   7.854  0.2315 -0.0350 -0.0037
38036SOL    HW120966   0.069   3.328   7.937 -0.4985 -0.7914  0.5129
38036SOL    HW220967  -0.017   3.231   7.857 -1.3446  0.6048 -0.3144
38037SOL     OW20968   3.941   0.708   1.067  0.3112 -0.2793 -0.0964
38037SOL    HW120969   3.980   0.739   1.148  0.7582 -2.6362  0.6754
38037SOL    HW220970   3.922   0.616   1.083  0.5200 -0.8678 -2.7037
38038SOL     OW20971   9.298   7.923   9.595 -0.0935 -0.1211 -0.0726
38038SOL    HW120972   9.287   8.011   9.559 -0.7050  0.3951  1.3000
38038SOL    HW220973   9.342   7.937   9.679  0.9616 -1.2471 -0.4200
38039SOL     OW20974   8.731   1.699   3.536  0.1479  0.0098 -0.2653
38039SOL    HW120975   8.746   1.731   3.625  1.6107  0.2184 -0.5549
38039SOL    HW220976   8.690   1.613   3.549  0.2175  0.0948  0.6117
38040SOL     OW20977   3.569   7.886   7.554 -0.1940  0.4526  0.1486
38040SOL    HW120978   3.569   7.966   7.501  1.1554  0.5440  0.2639
38040SOL    HW220979   3.624   7.825   7.506  0.1485  0.1648  0.8953
38041SOL     OW20980  11.211   2.821   0.323  0.0588  0.3659  0.9694
38041SOL    HW120981  11.294   2.818   0.371  0.8244  2.0150 -0.1580
38041SOL    HW220982  11.224   2.765   0.248  0.7513  1.8056 -0.0270
38042SOL     OW20983   5.066   5.810   1.519  0.1643  0.4091  0.2841
38042SOL    HW120984   5.130   5.881   1.528 -1.2776  1.5884  1.9918
38042SOL    HW220985   5.081   5.775   1.431  2.1157  1.6348  0.0682
38043SOL     OW20986   9.161   2.242   7.133  0.0595  1.0378  0.1935
38043SOL    HW120987   9.208   2.183   7.074 -0.0353 -0.6632  1.7205
38043SOL    HW220988   9.229   2.279   7.189 -0.0967  0.7179  0.6034
38044SOL     OW20989   6.798  11.384   5.634 -0.6110 -0.3413  0.2341
38044SOL    HW120990   6.877  11.414   5.680 -0.5452 -1.0505  0.6040
38044SOL    HW220991   6.792  11.291   5.655 -2.8347  0.1277  2.1641
38045SOL     OW20992   4.498   8.611   7.545 -0.4807  0.2831 -0.0295
38045SOL    HW120993   4.447   8.652   7.615 -0.1127  0.1839  0.2996
38045SOL    HW220994   4.506   8.520   7.571  0.8259  0.5282  0.5000
38046SOL     OW20995  10.944   8.424   6.902  0.1838  0.0729  0.2999
38046SOL    HW120996  10.970   8.383   6.820  1.8468 -0.3905  1.0177
38046SOL    HW220997  10.863   8.470   6.881 -0.1426 -1.1356 -1.2544
38047SOL     OW20998  11.552   5.896   1.740  0.1735  0.1666 -0.0324
38047SOL    HW120999  11.598   5.845   1.673  1.5032 -1.1186  1.7549
38047SOL    HW221000  11.605   5.886   1.818 -1.6697  1.0561  1.4086
38048SOL     OW21001  10.646  10.599   3.054  0.3517  0.2039 -0.5358
38048SOL    HW121002  10.560  10.627   3.083 -0.3817 -0.7966 -1.6265
38048SOL    HW221003  10.675  10.667   2.993  0.6797  0.9189  0.4062
38049SOL     OW21004   4.685   7.262   7.858  0.1459 -0.6736 -0.2412
38049SOL    HW121005   4.727   7.223   7.781  0.3919 -3.3271  1.1286
38049SOL    HW221006   4.755   7.264   7.924 -0.4383  0.2160  0.3708
38050SOL     OW21007   2.062   5.221   5.898 -0.0006  0.0800 -0.1398
38050SOL    HW121008   2.150   5.215   5.861  0.1190  3.7991 -0.8338
38050SOL    HW221009   2.004   5.192   5.827  0.5487 -0.9892 -0.1769
38051SOL     OW21010   4.337  10.241   2.105 -0.5400  0.4059 -0.1712
38051SOL    HW121011   4.381  10.160   2.081 -0.4199  0.5603 -0.4730
38051SOL    HW221012   4.319  10.231   2.199 -1.0869 -0.2309 -0.3359
38052SOL     OW21013   8.799   3.559   9.623 -0.7532  0.1715 -0.0640
38052SOL    HW121014   8.794   3.591   9.713 -0.5926 -1.3583  0.5096
38052SOL    HW221015   8.781   3.465   9.629  0.6963 -0.2430 -1.4406
38053SOL     OW21016  12.003   2.632   9.710 -0.2230 -0.3717  0.4530
38053SOL    HW121017  11.924   2.674   9.676 -0.0481 -0.6787 -0.3771
38053SOL    HW221018  11.971   2.571   9.777 -0.6207 -0.0073  0.5971
38054SOL     OW21019   6.399   5.822   3.016 -0.7032  0.1580  0.1798
38054SOL    HW121020   6.436   5.844   3.102 -0.2436  0.3981 -0.0770
38054SOL    HW221021   6.451   5.747   2.987 -0.8802  0.0577  0.1212
38055SOL     OW21022   7.955   3.733   3.737  0.4807  0.0795 -0.3447
38055SOL    HW121023   8.007   3.763   3.812 -2.3043  2.5995  0.7896
38055SOL    HW221024   7.970   3.800   3.670  0.2713 -0.3053 -0.7809
38056SOL     OW21025   4.465   4.128  12.527 -0.3550 -0.0283  0.0065
38056SOL    HW121026   4.497   4.052  12.479  0.9760  0.7728 -0.4043
38056SOL    HW221027   4.384   4.152  12.481 -2.6842 -3.0469  2.0346
38057SOL     OW21028   4.803   6.219   2.241 -0.1894  0.2911  1.0695
38057SOL    HW121029   4.758   6.142   2.275  2.6514 -0.6567  3.1272
38057SOL    HW221030   4.736   6.287   2.238 -1.9435 -1.2122  3.0778
38058SOL     OW21031   4.817   9.383  12.304  0.4306  0.0947  0.3148
38058SOL    HW121032   4.807   9.311  12.367  1.5146 -1.5225 -1.2806
38058SOL    HW221033   4.744   9.372  12.243  1.4273 -0.5983 -0.7901
38059SOL     OW21034   7.965   8.893   3.860  0.3598  0.7225 -0.3841
38059SOL    HW121035   7.964   8.912   3.766  0.7900  0.1136 -0.5233
38059SOL    HW221036   8.045   8.934   3.892  2.3076 -2.2244 -1.0340
38060SOL     OW21037   7.369   5.574   0.780 -0.3992 -0.2925  0.6376
38060SOL    HW121038   7.339   5.664   0.768  1.8273  0.5295  0.6456
38060SOL    HW221039   7.376   5.540   0.690 -1.3842 -0.5309  0.6410
38061SOL     OW21040   1.059   0.133   3.832  0.5373  0.2483  0.3642
38061SOL    HW121041   0.974   0.154   3.872 -1.1995 -0.8007 -2.4799
38061SOL    HW221042   1.107   0.215   3.833 -0.8574  1.0892  1.2975
38062SOL     OW21043   4.688   5.480   5.710  0.0029  0.0039  0.5275
38062SOL    HW121044   4.756   5.466   5.644  0.7521  1.3059  0.9810
38062SOL    HW221045   4.692   5.574   5.729 -1.3432 -0.0487  1.2015
38063SOL     OW21046   7.687  10.297   5.990  0.4151 -0.2020  0.0051
38063SOL    HW121047   7.645  10.216   6.019  1.5291 -1.6335 -2.0780
38063SOL    HW221048   7.616  10.349   5.952  0.0613 -1.5122 -1.2482
38064SOL     OW21049   5.978   3.694   2.982  0.2242 -0.3648 -1.1522
38064SOL    HW121050   5.965   3.655   2.896 -1.0980 -1.7371 -0.3630
38064SOL    HW221051   5.934   3.635   3.043  1.9494  0.0499  0.5988
38065SOL     OW21052  11.452   2.392  12.216 -0.2867  0.5463 -0.5251
38065SOL    HW121053  11.359   2.377  12.232 -0.5877  2.6177 -0.0739
38065SOL    HW221054  11.457   2.422  12.125 -0.4566  2.8941  0.1577
38066SOL     OW21055   2.709  11.006   2.319 -0.1828 -0.0691 -0.0337
38066SOL    HW121056   2.739  10.925   2.278 -2.2500 -0.2133 -1.4260
38066SOL    HW221057   2.719  11.073   2.251 -1.8041  0.0883 -0.1705
38067SOL     OW21058   1.057   6.805   8.002 -0.2804  0.2123  0.1366
38067SOL    HW121059   1.088   6.887   7.964 -0.5933 -0.0566 -0.7436
38067SOL    HW221060   0.994   6.772   7.938 -0.5688 -0.4410  0.7441
38068SOL     OW21061   7.063  10.807  10.727 -0.0189 -0.1230  0.1442
38068SOL    HW121062   7.075  10.859  10.806  0.9677  1.2139 -0.8377
38068SOL    HW221063   7.023  10.867  10.664  0.8001 -0.6211 -0.8962
38069SOL     OW21064  10.329   7.124   7.605 -0.4483  0.5277  0.3306
38069SOL    HW121065  10.382   7.044   7.608  0.8304  1.3455  0.7027
38069SOL    HW221066  10.359   7.168   7.525  1.2628  2.1515  1.7672
38070SOL     OW21067   6.866   5.351   5.739  0.9985  0.4279  0.0298
38070SOL    HW121068   6.834   5.439   5.721 -2.5651 -0.6446  0.2633
38070SOL    HW221069   6.831   5.298   5.667  1.5548 -1.0911  0.8346
38071SOL     OW21070   0.942   0.107   0.987 -0.0227 -0.2887 -0.5731
38071SOL    HW121071   1.011   0.046   0.962  0.6733  0.2185  0.0499
38071SOL    HW221072   0.875   0.097   0.920  0.9353 -0.3504 -1.5471
38072SOL     OW21073   6.327   6.854   6.220  0.4423  0.2467 -0.1627
38072SOL    HW121074   6.260   6.908   6.178  0.7662  0.3389 -0.5735
38072SOL    HW221075   6.339   6.893   6.307 -1.4656 -0.9793  0.7168
38073SOL     OW21076   5.013   5.067   2.573  0.2102 -0.2933  0.7704
38073SOL    HW121077   4.983   5.154   2.549  0.4550 -0.2488  0.6274
38073SOL    HW221078   5.028   5.072   2.668  1.7066  0.2683  0.5276
38074SOL     OW21079  12.512  11.045   4.403 -0.1532 -0.1561  0.5439
38074SOL    HW121080  12.421  11.046   4.375 -0.1409 -0.6314  0.4782
38074SOL    HW221081  12.562  11.067   4.325 -0.2342  0.7165  0.7165
38075SOL     OW21082  11.139   6.449   5.512  0.2446 -0.3042  0.1401
38075SOL    HW121083  11.229   6.448   5.479 -0.4045 -2.2327 -1.7821
38075SOL    HW221084  11.148   6.423   5.604  1.7380  1.1137  0.4587
38076SOL     OW21085   7.123   1.008   2.917 -0.1206 -0.3406  0.6040
38076SOL    HW121086   7.147   0.980   2.829 -2.7616 -1.0157 -0.0062
38076SOL    HW221087   7.130   0.929   2.970 -0.5266 -0.4284  0.5283
38077SOL     OW21088  10.233   1.157   9.380  0.5136 -0.1338 -0.0111
38077SOL    HW121089  10.222   1.120   9.292 -1.6717 -1.7483  0.8378
38077SOL    HW221090  10.191   1.093   9.438  0.0019  1.8782  1.9834
38078SOL     OW21091   2.344   3.907   0.479 -0.0641  0.5073 -0.1224
38078SOL    HW121092   2.358   3.937   0.389  1.2790  0.1150 -0.0746
38078SOL    HW221093   2.429   3.870   0.505 -0.2293  1.2126  1.5348
38079SOL     OW21094  10.390   6.432  10.582  0.5032  0.4010  0.1094
38079SOL    HW121095  10.461   6.386  10.537 -0.8616 -1.5374 -0.2033
38079SOL    HW221096  10.324   6.447  10.515  0.7641  2.6331  0.2881
38080SOL     OW21097   7.923  10.459   8.866  0.0091  0.0910 -0.2184
38080SOL    HW121098   7.941  10.539   8.818  0.8601  0.7462  1.1220
38080SOL    HW221099   7.828  10.460   8.879 -0.5917 -1.1779 -3.5917
38081SOL     OW21100   5.426   0.444  11.288  0.1324  0.0930  0.8090
38081SOL    HW121101   5.475   0.450  11.371 -0.6173 -0.4522  1.2994
38081SOL    HW221102   5.456   0.520  11.238  1.1252  0.0412  1.2861
38082SOL     OW21103   3.806   2.704   1.857  0.2797 -0.2105  0.0097
38082SOL    HW121104   3.714   2.703   1.832  0.5514 -0.1920 -1.0207
38082SOL    HW221105   3.852   2.736   1.779  0.9856  1.5632  1.0778
38083SOL     OW21106   1.173   0.649   3.269  0.3644  0.8453  0.3553
38083SOL    HW121107   1.206   0.574   3.219 -2.6245  2.4191 -4.7713
38083SOL    HW221108   1.205   0.725   3.221 -0.1090  2.7769  2.8940
38084SOL     OW21109   2.817   6.310   6.993  0.2530 -0.2393 -0.2624
38084SOL    HW121110   2.750   6.378   6.992  0.2138 -0.2785 -0.3293
38084SOL    HW221111   2.795   6.254   6.918  0.6212  0.0035 -0.5586
38085SOL     OW21112   9.554   7.572  10.585 -0.0168  0.4495 -0.4933
38085SOL    HW121113   9.595   7.519  10.653  1.1458 -0.8409 -2.1355
38085SOL    HW221114   9.460   7.562  10.601  0.2002 -1.0028  0.0654
38086SOL     OW21115   2.997   6.957   4.176  0.2595 -0.2989  0.4594
38086SOL    HW121116   2.994   7.051   4.159  2.0355 -0.0119  1.5059
38086SOL    HW221117   3.059   6.923   4.111  0.3945 -0.5741  0.7294
38087SOL     OW21118   8.401   7.262  12.077 -0.2437  0.4026 -0.1691
38087SOL    HW121119   8.341   7.334  12.061 -0.5408  0.6839  1.9934
38087SOL    HW221120   8.344   7.186  12.091  0.0623 -0.7506 -3.9625
38088SOL     OW21121   9.359   4.493   2.399 -0.0598 -0.2157  0.5180
38088SOL    HW121122   9.353   4.411   2.448  2.3235  0.8314  2.8335
38088SOL    HW221123   9.284   4.544   2.427  0.1346 -0.4526  1.5088
38089SOL     OW21124  10.124  11.730   4.432 -0.3956  0.0928 -0.4218
38089SOL    HW121125  10.146  11.769   4.517 -1.2589 -1.8136  0.7523
38089SOL    HW221126  10.198  11.673   4.412 -0.1318  0.6397 -1.0445
38090SOL     OW21127   4.140   1.553  11.074  0.1820 -0.4520 -0.2132
38090SOL    HW121128   4.197   1.528  11.148 -2.4355 -1.1095  1.7144
38090SOL    HW221129   4.158   1.646  11.061 -0.1453  0.0154  2.1541
38091SOL     OW21130   8.816   9.106  11.806 -0.1125 -0.1929  0.1924
38091SOL    HW121131   8.756   9.179  11.796 -2.4001 -1.7495  1.5634
38091SOL    HW221132   8.896   9.144  11.841  0.6448  2.2774 -3.6372
38092SOL     OW21133   3.463   1.618   5.078  0.4525 -0.3889  0.2510
38092SOL    HW121134   3.529   1.647   5.015 -1.2492  0.7603 -1.0867
38092SOL    HW221135   3.403   1.565   5.027 -0.9795  0.5768  0.8875
38093SOL     OW21136  11.491   2.905   4.187 -0.1483 -0.1625  0.3709
38093SOL    HW121137  11.518   2.980   4.241  1.5824 -1.7420  1.8225
38093SOL    HW221138  11.397   2.896   4.204  0.4302 -1.0246  3.8008
38094SOL     OW21139   8.081   8.140   9.753  0.5440  0.1436  0.1910
38094SOL    HW121140   8.074   8.224   9.799  0.6891  0.6621 -0.7120
38094SOL    HW221141   8.013   8.143   9.686  0.7862 -0.3102 -0.0798
38095SOL     OW21142   2.312   9.069  10.408  0.4847 -0.2826  0.6568
38095SOL    HW121143   2.308   9.050  10.314  1.1976  0.2858  0.4963
38095SOL    HW221144   2.225   9.048  10.441  0.7078 -2.1131  0.1844
38096SOL     OW21145  12.559  11.898  11.494  0.3365 -0.0794 -0.3194
38096SOL    HW121146  12.581  11.921  11.584  3.0889 -0.6302 -0.7775
38096SOL    HW221147  12.537  11.981  11.452 -0.5907  0.2278  0.7076
38097SOL     OW21148   7.476   0.759  11.615 -0.3094 -0.2220 -0.2194
38097SOL    HW121149   7.447   0.672  11.641 -0.6891  0.2039  0.8323
38097SOL    HW221150   7.421   0.782  11.540 -2.7786  0.5548  1.6934
38098SOL     OW21151   7.873   6.056   1.559  0.4755  1.2086  0.2469
38098SOL    HW121152   7.857   6.086   1.470 -1.3339  0.4077  0.2539
38098SOL    HW221153   7.786   6.046   1.597  0.9267 -2.5694  0.6747
38099SOL     OW21154   2.241   9.758   0.511 -0.8348  0.0238  0.0456
38099SOL    HW121155   2.213   9.766   0.602 -1.8352 -1.4885 -0.0962
38099SOL    HW221156   2.161   9.739   0.462 -0.3856  1.2543 -1.2371
38100SOL     OW21157   3.065   5.155   6.831 -0.2392 -0.0467 -0.0403
38100SOL    HW121158   2.994   5.163   6.767  0.1524  0.1334 -0.4643
38100SOL    HW221159   3.144   5.178   6.781  0.1956 -0.8834  0.2498
38101SOL     OW21160   0.012  10.616  11.605 -0.1594  0.5215 -0.0125
38101SOL    HW121161   0.092  10.615  11.552  0.8430 -1.1345  1.3928
38101SOL    HW221162  -0.057  10.593  11.543  0.3579  2.3238 -1.3396
38102SOL     OW21163   2.711   9.275  10.345  0.5470 -0.2673 -0.4373
38102SOL    HW121164   2.685   9.227  10.424 -0.2671  0.1512 -0.4364
38102SOL    HW221165   2.755   9.210  10.291  0.3581 -0.7652 -0.0011
38103SOL     OW21166  10.923   5.981  12.016  0.0923  0.3183 -0.2037
38103SOL    HW121167  10.956   5.983  11.927  1.9834 -0.1042  0.4427
38103SOL    HW221168  10.984   6.035  12.066  0.5869 -1.4888  1.2624
38104SOL     OW21169   2.251  10.983   1.762  0.4232 -0.4349 -0.4538
38104SOL    HW121170   2.172  10.954   1.717  0.2829 -3.1865  1.3593
38104SOL    HW221171   2.279  10.908   1.815  2.4587  1.4661  1.4357
38105SOL     OW21172   5.130   5.968  10.240  0.5128 -0.1917 -0.7636
38105SOL    HW121173   5.186   5.891  10.249 -0.1433 -0.6421 -0.4724
38105SOL    HW221174   5.044   5.939  10.272  0.6624  1.1423  1.0282
38106SOL     OW21175   2.372   8.867   5.901  0.0224 -0.3045 -0.0698
38106SOL    HW121176   2.317   8.792   5.880  0.5392 -0.5506 -0.5995
38106SOL    HW221177   2.398   8.902   5.815 -1.4549  1.4267  0.1355
38107SOL     OW21178   1.036   8.591   7.559 -0.1535 -0.0528  1.0409
38107SOL    HW121179   1.059   8.679   7.588 -2.3834  0.8630  0.2259
38107SOL    HW221180   0.949   8.576   7.596 -0.7649 -1.0009 -0.7007
38108SOL     OW21181   7.597   1.657   9.012  0.2248  0.2004 -0.0432
38108SOL    HW121182   7.621   1.719   9.080 -0.7174  1.3487 -0.7260
38108SOL    HW221183   7.681   1.620   8.983  1.1418  3.0553 -1.3923
38109SOL     OW21184   0.391  12.493   5.029  0.1408  0.0723 -0.2088
38109SOL    HW121185   0.370  12.441   4.952  2.1540 -0.1465 -0.6530
38109SOL    HW221186   0.355  12.444   5.102 -1.0513 -0.1405 -0.9200
38110SOL     OW21187   2.954  11.275   6.364 -0.5703  0.4348  0.2045
38110SOL    HW121188   2.971  11.253   6.273  0.1125 -1.3917  0.7331
38110SOL    HW221189   3.034  11.320   6.394 -0.1689 -0.3276  0.2999
38111SOL     OW21190  10.437  10.008  11.277 -0.6869  0.6737  0.2113
38111SOL    HW121191  10.348  10.026  11.305 -1.0413 -0.8799  0.2093
38111SOL    HW221192  10.450   9.915  11.299  0.5353  0.5843 -0.7860
38112SOL     OW21193   1.308   0.683   2.181 -0.1720  0.1796 -0.4625
38112SOL    HW121194   1.329   0.645   2.267  0.0237  0.5399 -0.3487
38112SOL    HW221195   1.239   0.747   2.200  1.9584  2.5511 -0.0391
38113SOL     OW21196  11.678   8.050  12.005 -0.2283  0.4523 -0.1404
38113SOL    HW121197  11.681   7.966  12.051 -0.9020  0.4456 -0.0896
38113SOL    HW221198  11.761   8.055  11.958  0.1759  0.1392  0.5186
38114SOL     OW21199   3.305  10.780   9.109 -0.0213  0.1754 -0.4975
38114SOL    HW121200   3.393  10.813   9.124  0.7409 -1.5361 -0.9883
38114SOL    HW221201   3.288  10.799   9.016  1.0200 -2.0322 -1.1989
38115SOL     OW21202   4.233   9.221   7.772  0.4356 -0.4739  0.6242
38115SOL    HW121203   4.302   9.270   7.727 -0.6273  1.4895  1.0365
38115SOL    HW221204   4.158   9.224   7.711  0.8858 -3.2981 -0.1976
38116SOL     OW21205   2.451   3.427  10.513  0.3176 -0.1537 -0.3764
38116SOL    HW121206   2.473   3.439  10.420 -0.5979 -2.0084 -0.8840
38116SOL    HW221207   2.505   3.354  10.542  1.3736  1.0802  0.8897
38117SOL     OW21208  10.187   0.671   7.831  0.5034  0.0104  0.3617
38117SOL    HW121209  10.141   0.591   7.806  1.8498 -0.2330 -1.5179
38117SOL    HW221210  10.259   0.641   7.886  0.3254  0.0652  0.6276
38118SOL     OW21211   9.534   3.905   3.948 -0.4284  0.3952 -0.1735
38118SOL    HW121212   9.518   3.920   4.041 -0.6812 -1.0661  0.0356
38118SOL    HW221213   9.627   3.924   3.936  0.3256 -2.1171  1.0078
38119SOL     OW21214   1.783   8.853   9.922 -0.2781 -0.0666 -0.6887
38119SOL    HW121215   1.836   8.778   9.897  1.4548  1.3864 -1.6626
38119SOL    HW221216   1.752   8.833  10.010 -1.0246 -2.4848 -1.4376
38120SOL     OW21217  10.898   4.566   4.573  0.7938  0.7570  0.1493
38120SOL    HW121218  10.987   4.598   4.586  1.0759  1.2926 -2.4145
38120SOL    HW221219  10.867   4.613   4.495 -2.0630  1.1984  1.4177
38121SOL     OW21220   7.667   2.451   1.436 -0.0095 -0.1297  0.5935
38121SOL    HW121221   7.749   2.497   1.417  0.9520 -1.1964  1.9361
38121SOL    HW221222   7.632   2.496   1.513 -0.0856 -0.3968  0.7148
38122SOL     OW21223   5.819   8.044   6.937  0.2404 -0.2007 -0.0640
38122SOL    HW121224   5.830   8.037   6.842 -0.4583 -0.9914 -0.1001
38122SOL    HW221225   5.725   8.057   6.949  0.2078 -0.9707  0.5657
38123SOL     OW21226   7.648   8.241   1.442  0.2863  0.5782  0.4062
38123SOL    HW121227   7.573   8.256   1.385 -0.2359  0.7275  1.1204
38123SOL    HW221228   7.631   8.294   1.519 -0.0459 -1.1729  1.6047
38124SOL     OW21229   2.153  10.478   5.100 -0.8186 -0.4278 -0.4351
38124SOL    HW121230   2.191  10.442   5.180 -0.6008  0.3604 -0.1722
38124SOL    HW221231   2.059  10.486   5.119 -0.7831 -0.3395 -0.2978
38125SOL     OW21232   9.188  11.608   7.121 -0.5499 -1.0716  0.4782
38125SOL    HW121233   9.140  11.527   7.139 -0.1478 -1.8487 -1.6799
38125SOL    HW221234   9.173  11.625   7.028  0.6872  0.4779  0.5147
38126SOL     OW21235   0.016   7.640  10.251  0.0757  0.2587  0.0079
38126SOL    HW121236   0.044   7.555  10.216 -1.3669 -0.6795  0.9781
38126SOL    HW221237  -0.073   7.651  10.217  0.9572  2.4749 -1.8645
38127SOL     OW21238   8.076   7.298   5.162 -0.5043 -0.3079  0.3611
38127SOL    HW121239   8.021   7.331   5.233  0.4505  2.4005 -0.0102
38127SOL    HW221240   8.141   7.244   5.206  0.1845  1.4629  1.6785
38128SOL     OW21241  12.507   6.122   5.280 -0.0446 -0.5481 -0.6693
38128SOL    HW121242  12.483   6.042   5.327  1.1634  0.1101  1.1997
38128SOL    HW221243  12.439   6.185   5.303  1.6290  0.4336  2.2031
38129SOL     OW21244   8.036  12.390   0.917  0.1749 -0.0353  1.1405
38129SOL    HW121245   8.083  12.426   0.992  1.3539 -1.1107  0.9571
38129SOL    HW221246   8.091  12.410   0.842  0.7950 -2.0053  1.0161
38130SOL     OW21247  12.382   7.016   7.074 -0.7752 -0.3174 -0.6520
38130SOL    HW121248  12.386   6.973   7.159  0.6815 -1.1973 -1.1325
38130SOL    HW221249  12.440   6.965   7.018 -0.3192  1.2780 -1.7056
38131SOL     OW21250  10.893   0.959   2.758 -0.0639  0.4469 -0.4846
38131SOL    HW121251  10.873   1.019   2.687  0.7194 -0.6405 -1.6724
38131SOL    HW221252  10.988   0.947   2.753  0.0766  0.7522  1.0901
38132SOL     OW21253   0.893  10.861   3.800 -0.5152 -0.0977 -0.2881
38132SOL    HW121254   0.808  10.896   3.772 -1.3140 -0.0406  2.0048
38132SOL    HW221255   0.911  10.790   3.738 -2.0015  0.1966 -1.1121
38133SOL     OW21256  10.291  10.233  11.150 -0.2953  0.2266  0.4571
38133SOL    HW121257  10.300  10.157  11.207  0.5878  0.3060  0.4312
38133SOL    HW221258  10.335  10.208  11.069  1.2171  1.2442  0.9240
38134SOL     OW21259   0.383  10.999  12.024  0.1208 -0.3732  0.3990
38134SOL    HW121260   0.463  10.950  12.006  0.3868 -0.2829  1.2753
38134SOL    HW221261   0.313  10.944  11.990  0.5984 -0.0307 -1.2336
38135SOL     OW21262   7.976   4.399   0.353 -0.3731  0.5391  0.1646
38135SOL    HW121263   7.994   4.490   0.331 -0.7461  0.4545 -0.5496
38135SOL    HW221264   7.894   4.402   0.402 -0.8722  0.5199 -0.6461
38136SOL     OW21265   5.358   0.374   8.297 -0.4495 -0.4128  0.1405
38136SOL    HW121266   5.446   0.368   8.333 -0.8576 -1.4264  1.0213
38136SOL    HW221267   5.316   0.444   8.347 -0.1805 -0.0041 -0.2047
38137SOL     OW21268   0.995   6.498   4.353 -0.0718 -0.6535  0.2025
38137SOL    HW121269   0.959   6.454   4.429 -0.8740  1.6759  1.2837
38137SOL    HW221270   0.920   6.541   4.311  0.8531  1.3059  0.4150
38138SOL     OW21271   3.832   8.049   5.596 -0.4534 -0.2245 -0.4540
38138SOL    HW121272   3.769   7.978   5.605 -1.2952  0.5664 -0.0066
38138SOL    HW221273   3.789   8.113   5.539  0.6053 -0.3963 -1.5076
38139SOL     OW21274   7.656  10.171   0.702 -0.6549 -0.0301  0.4897
38139SOL    HW121275   7.682  10.085   0.733 -1.5703 -0.2802  0.5875
38139SOL    HW221276   7.561  10.174   0.716 -0.7000  0.8151  0.0615
38140SOL     OW21277   5.250   3.335   3.073  0.3923 -0.3716  0.0994
38140SOL    HW121278   5.249   3.243   3.099 -2.9853 -0.1027  1.4959
38140SOL    HW221279   5.265   3.333   2.979 -3.7532 -2.8774 -0.8018
38141SOL     OW21280  12.511   8.387   5.319 -0.0806  0.1935 -0.6659
38141SOL    HW121281  12.586   8.441   5.344  0.2474  0.2322 -1.7236
38141SOL    HW221282  12.520   8.308   5.373  0.5393  0.3318 -0.5631
38142SOL     OW21283  12.260   4.120   7.190  0.1065  0.1703  0.5042
38142SOL    HW121284  12.268   4.159   7.104 -2.2884  1.2185  0.6766
38142SOL    HW221285  12.253   4.195   7.250  0.3106 -0.5411  1.4447
38143SOL     OW21286   5.820   7.008   4.607 -0.4308  0.1929 -0.6082
38143SOL    HW121287   5.868   7.089   4.625 -1.8301  0.5993  1.6780
38143SOL    HW221288   5.730   7.027   4.633 -0.9984 -1.7850 -0.9674
38144SOL     OW21289   0.198  10.990   2.160  0.5887  0.0441 -0.1376
38144SOL    HW121290   0.145  10.958   2.087 -0.9122  1.4667  0.2685
38144SOL    HW221291   0.278  11.021   2.119 -0.3705  1.1484 -1.2614
38145SOL     OW21292  11.708  11.525   9.059  0.0872  0.2972 -0.2540
38145SOL    HW121293  11.757  11.444   9.073  0.7151  0.4040 -1.6776
38145SOL    HW221294  11.748  11.587   9.120 -0.0149 -0.3012  0.4395
38146SOL     OW21295   0.682   2.940   1.680 -0.2876 -0.2457  0.7560
38146SOL    HW121296   0.653   2.858   1.719  1.1801 -0.8414  0.6534
38146SOL    HW221297   0.685   2.923   1.586 -1.3247  0.3818  0.5921
38147SOL     OW21298   2.613  10.276   3.725  0.2801 -0.0302  0.3406
38147SOL    HW121299   2.626  10.182   3.733 -0.6389 -0.3525 -1.5761
38147SOL    HW221300   2.640  10.311   3.810  2.8359 -1.7568  0.3494
38148SOL     OW21301  11.403   5.012   6.029  0.4415 -0.2052  0.1291
38148SOL    HW121302  11.336   4.947   6.012  0.3411 -0.1308  0.2360
38148SOL    HW221303  11.409   5.064   5.949  0.0640  0.0629  0.2728
38149SOL     OW21304   2.738   0.939  12.199 -0.1529  0.8951  0.0758
38149SOL    HW121305   2.685   0.865  12.169  1.7641 -1.4141  2.0234
38149SOL    HW221306   2.775   0.975  12.118 -0.7694 -0.5561 -0.9105
38150SOL     OW21307   5.683   1.375   6.429  0.0295  0.3081 -0.7511
38150SOL    HW121308   5.715   1.441   6.491 -1.1205  0.4939 -0.3259
38150SOL    HW221309   5.660   1.425   6.351  1.3493  0.0907 -1.3151
38151SOL     OW21310  12.431   7.952   3.988 -0.0158 -0.0924 -0.0334
38151SOL    HW121311  12.484   8.031   3.981  0.8082 -0.6653 -0.4651
38151SOL    HW221312  12.376   7.953   3.910  1.0091 -0.6487 -0.7911
38152SOL     OW21313   0.180   9.044   3.306  0.2905  0.1825  0.3314
38152SOL    HW121314   0.191   9.006   3.393 -0.1942  0.5762  0.5726
38152SOL    HW221315   0.088   9.070   3.303  0.9606  2.9850  0.8842
38153SOL     OW21316   7.955  10.663   8.679  0.4263 -0.3822 -0.1785
38153SOL    HW121317   8.033  10.714   8.699  0.1628 -0.1447  0.2598
38153SOL    HW221318   7.967  10.635   8.588  0.6992  0.2243 -0.3321
38154SOL     OW21319   7.286   8.796   7.463 -0.0755  0.1201  0.1280
38154SOL    HW121320   7.344   8.843   7.523  1.5408 -1.7156  0.1445
38154SOL    HW221321   7.204   8.787   7.511  0.6618  0.0696  1.4545
38155SOL     OW21322   2.823   1.541   2.410  0.7695 -0.2306 -0.2333
38155SOL    HW121323   2.868   1.524   2.327  1.6654 -1.5042  0.4696
38155SOL    HW221324   2.890   1.578   2.467  0.0913  0.8856 -0.1416
38156SOL     OW21325  11.517   3.109   7.675  0.2016 -0.1086 -0.5224
38156SOL    HW121326  11.536   3.176   7.609 -0.4665 -0.7103 -1.3615
38156SOL    HW221327  11.529   3.026   7.628 -0.9853 -0.5445 -0.1022
38157SOL     OW21328   1.919   3.810   7.208 -0.4807 -0.1915  0.5586
38157SOL    HW121329   1.846   3.790   7.267  0.1752  0.9245  1.8066
38157SOL    HW221330   1.922   3.905   7.205  0.2885 -0.2255 -0.3027
38158SOL     OW21331  12.234   9.305   8.720 -0.4016 -0.4925  0.8908
38158SOL    HW121332  12.192   9.220   8.724 -2.5963  0.3985 -0.8805
38158SOL    HW221333  12.169   9.366   8.755 -0.4199  0.8621 -1.2849
38159SOL     OW21334   3.839   6.901   4.495  0.2866  0.2665  0.2960
38159SOL    HW121335   3.891   6.869   4.568 -0.5832 -1.5758  0.1711
38159SOL    HW221336   3.749   6.899   4.527  0.0303  0.7651 -0.3758
38160SOL     OW21337   3.593   5.713   9.809 -0.1423 -0.0589 -0.4647
38160SOL    HW121338   3.642   5.634   9.786 -0.3306 -0.3794  0.2130
38160SOL    HW221339   3.524   5.718   9.743  1.8856  1.4643 -2.6143
38161SOL     OW21340   1.445  11.521   4.987  0.1841 -0.3563  0.4163
38161SOL    HW121341   1.506  11.593   4.969  0.7140 -0.6900  0.8268
38161SOL    HW221342   1.488  11.444   4.949 -0.6883 -0.3559 -0.6071
38162SOL     OW21343  11.829   9.659   2.288  0.5227  0.2282 -0.3407
38162SOL    HW121344  11.879   9.580   2.267  0.0403 -0.1144 -0.2106
38162SOL    HW221345  11.867   9.690   2.370  1.3854  0.7042 -0.9081
38163SOL     OW21346   8.966   1.536   6.837  0.0545  0.4147  0.1274
38163SOL    HW121347   8.940   1.504   6.750  0.5571  0.9058 -0.2146
38163SOL    HW221348   8.986   1.457   6.887 -0.8387  0.0980 -0.0035
38164SOL     OW21349  12.223  12.325  11.275  0.1490  0.2043  0.1818
38164SOL    HW121350  12.252  12.302  11.363  1.7878 -0.6238 -0.5150
38164SOL    HW221351  12.218  12.241  11.229 -2.4002  0.4323 -0.0813
38165SOL     OW21352   8.004   2.897   4.082 -0.3836  0.5135  0.0540
38165SOL    HW121353   7.923   2.909   4.130 -0.1845 -1.4822  0.9866
38165SOL    HW221354   7.977   2.869   3.995 -0.6899  1.3469 -0.1314
38166SOL     OW21355   3.595  10.865   9.422  0.1522  0.0996 -0.1210
38166SOL    HW121356   3.526  10.919   9.461 -0.8682 -1.2113 -0.0567
38166SOL    HW221357   3.667  10.870   9.484  0.6571  2.5353 -0.8055
38167SOL     OW21358   3.827  12.389   5.192  0.5734 -0.0123  0.1915
38167SOL    HW121359   3.823  12.471   5.241  1.4422 -0.0538  0.3509
38167SOL    HW221360   3.740  12.350   5.203  0.5912  0.2136  1.2994
38168SOL     OW21361   0.809   2.993   9.252 -0.2867  0.5507  0.3604
38168SOL    HW121362   0.876   2.931   9.224 -0.9885  0.4400 -1.1735
38168SOL    HW221363   0.760   3.014   9.172 -1.5769  1.2421  1.2849
38169SOL     OW21364   1.461   0.981   0.936 -0.5039 -0.1892 -0.8460
38169SOL    HW121365   1.477   1.018   0.849 -0.8683  1.4373 -0.2499
38169SOL    HW221366   1.533   1.014   0.989 -0.4449 -0.9403 -0.4545
38170SOL     OW21367   0.884   3.503   1.243  0.2893  0.2885 -0.5810
38170SOL    HW121368   0.908   3.596   1.243 -1.2265  0.8141  2.2232
38170SOL    HW221369   0.841   3.489   1.159  0.4989  2.1594 -1.0462
38171SOL     OW21370   4.389   5.078  12.491  0.1117  0.2816  0.7439
38171SOL    HW121371   4.351   5.144  12.432 -1.3466 -0.1499  1.1520
38171SOL    HW221372   4.353   4.995  12.459 -1.3967  0.1116  2.6789
38172SOL     OW21373   8.292   4.311  10.125 -0.0660 -0.5023 -0.0948
38172SOL    HW121374   8.322   4.378  10.063  2.3764 -2.7007 -1.4459
38172SOL    HW221375   8.362   4.306  10.190 -1.7791  0.4967  1.9671
38173SOL     OW21376   0.098   2.179   9.935 -0.5825 -0.0484 -0.3709
38173SOL    HW121377   0.112   2.273   9.938 -0.9862 -0.0052  0.9662
38173SOL    HW221378   0.174   2.142   9.980 -0.5688 -0.3435 -0.6345
38174SOL     OW21379   1.892   9.832   4.852  0.3405 -0.1343  0.1751
38174SOL    HW121380   1.827   9.809   4.787  1.0006 -0.2303 -0.4654
38174SOL    HW221381   1.962   9.874   4.802  0.5264  0.4623  0.9171
38175SOL     OW21382   5.237   3.028   7.280 -0.2390 -0.3560  0.0730
38175SOL    HW121383   5.264   2.957   7.222  1.1709 -0.2303  0.5400
38175SOL    HW221384   5.268   3.001   7.366  1.0423  1.1737  0.1299
38176SOL     OW21385   5.591   7.492  12.501 -0.1987 -0.1127  0.2793
38176SOL    HW121386   5.614   7.438  12.576 -1.2895  0.0028  0.7056
38176SOL    HW221387   5.645   7.570  12.510 -0.9458  0.2920  1.4304
38177SOL     OW21388   6.007   4.445   7.473  0.1525  0.2094 -0.4281
38177SOL    HW121389   5.997   4.524   7.420  1.9660  0.2092 -0.8314
38177SOL    HW221390   5.987   4.474   7.562 -0.4392  0.8061 -0.7401
38178SOL     OW21391   0.843   6.970   1.241 -0.2753  0.7408 -0.0059
38178SOL    HW121392   0.797   7.023   1.305  0.2718 -1.2716  2.2029
38178SOL    HW221393   0.931   7.007   1.237  0.3263 -0.2975  2.0708
38179SOL     OW21394  12.086  10.093   1.322 -0.3187  0.5559 -0.2665
38179SOL    HW121395  12.099  10.152   1.247 -1.2883 -0.5133 -1.3331
38179SOL    HW221396  12.108  10.006   1.287  1.0944  0.2453  1.2653
38180SOL     OW21397   5.483   8.818   8.707 -0.1767 -0.5999  0.0516
38180SOL    HW121398   5.502   8.861   8.790 -0.1711 -0.7246  0.1154
38180SOL    HW221399   5.541   8.742   8.706 -0.0352 -0.4881 -0.1580
38181SOL     OW21400   1.192   2.056   7.016  0.1289 -0.0607  0.3703
38181SOL    HW121401   1.240   2.116   7.074  0.5182  0.4223 -0.4378
38181SOL    HW221402   1.215   2.085   6.928 -1.5056  0.0717 -0.0463
38182SOL     OW21403  11.694  11.837  10.278  0.1087  0.1782 -0.2276
38182SOL    HW121404  11.787  11.828  10.259  0.1901  3.2395 -2.0283
38182SOL    HW221405  11.690  11.871  10.367  0.5673 -1.5397  0.4766
38183SOL     OW21406  10.329   4.410  10.432 -0.3178  0.0074 -0.2472
38183SOL    HW121407  10.317   4.325  10.474  0.8548 -0.3822 -0.6587
38183SOL    HW221408  10.424   4.424  10.432 -0.4880  1.3043 -0.2231
38184SOL     OW21409   6.445   9.835   6.811 -0.3234  0.8197  0.2991
38184SOL    HW121410   6.372   9.845   6.872  0.4802 -0.3525  1.5004
38184SOL    HW221411   6.493   9.917   6.818 -0.1021  0.6088  1.4462
38185SOL     OW21412   4.078   3.823   8.992  0.4792 -0.2953 -0.1778
38185SOL    HW121413   4.052   3.735   8.965  0.4077 -0.4957  0.5219
38185SOL    HW221414   4.045   3.880   8.922 -0.2590 -0.7332 -0.2018
38186SOL     OW21415   7.994   4.444   8.752 -0.5157  0.2080  0.4111
38186SOL    HW121416   7.946   4.362   8.740 -0.4736  0.1118  0.8888
38186SOL    HW221417   8.074   4.418   8.798  0.2211  0.2954 -0.7684
38187SOL     OW21418   5.711  12.561   1.468 -0.3779  0.9445  0.0371
38187SOL    HW121419   5.667  12.540   1.386 -0.1489  0.5899 -0.0010
38187SOL    HW221420   5.648  12.612   1.518 -1.9340 -1.8204  1.1454
38188SOL     OW21421   5.783   9.332   2.633 -0.1486 -0.2405  0.2358
38188SOL    HW121422   5.840   9.306   2.706 -1.4839 -0.6364  1.1737
38188SOL    HW221423   5.835   9.314   2.555  0.7588 -1.2535  1.0381
38189SOL     OW21424   6.611   0.014   2.737  0.2095  0.3693 -0.4239
38189SOL    HW121425   6.706   0.023   2.728  0.0536  1.3997 -1.3797
38189SOL    HW221426   6.596  -0.080   2.734  1.2607  0.1371  0.6428
38190SOL     OW21427  10.785   2.275   2.827 -0.0165  0.0062  0.4112
38190SOL    HW121428  10.874   2.240   2.826  0.0461  0.1453 -0.6742
38190SOL    HW221429  10.785   2.339   2.897  0.7896  0.1157  0.3214
38191SOL     OW21430   7.502   8.519   3.506 -0.1846 -0.1721  0.5879
38191SOL    HW121431   7.511   8.563   3.422  4.2735 -0.2282  0.8187
38191SOL    HW221432   7.562   8.445   3.501 -2.1265 -2.0611  2.7870
38192SOL     OW21433   4.077   5.892   3.674  0.3310  0.2204  0.6292
38192SOL    HW121434   4.073   5.889   3.770  1.1177 -1.6883  0.6325
38192SOL    HW221435   3.990   5.864   3.645 -0.2535  1.7913  0.7405
38193SOL     OW21436   3.348   1.753   7.709  0.3296  0.3006 -0.8676
38193SOL    HW121437   3.271   1.807   7.691 -0.1229  0.3453  1.0475
38193SOL    HW221438   3.371   1.715   7.624 -1.0184  1.3132 -1.7108
38194SOL     OW21439   3.953   8.075   6.555 -0.1426 -0.2522  0.3306
38194SOL    HW121440   3.934   8.095   6.647 -0.3104 -1.4632  0.5707
38194SOL    HW221441   3.910   7.992   6.539  0.2623 -0.2735 -0.7316
38195SOL     OW21442   4.761   3.456   1.036  0.3615 -0.1303  0.2068
38195SOL    HW121443   4.798   3.433   0.951  0.1723  1.0658 -0.2153
38195SOL    HW221444   4.741   3.549   1.030 -2.2465 -0.5815  0.6037
38196SOL     OW21445   9.603   8.149  12.063  0.9405 -0.0753 -0.7835
38196SOL    HW121446   9.570   8.238  12.055 -0.1047 -0.3143  0.4306
38196SOL    HW221447   9.654   8.150  12.144 -0.5579 -0.9516  0.2324
38197SOL     OW21448   7.846   8.230   2.657 -0.4455  0.2179  0.2712
38197SOL    HW121449   7.888   8.276   2.585 -0.6545  1.6655  1.0397
38197SOL    HW221450   7.917   8.213   2.719  0.0721 -2.4755 -0.9014
38198SOL     OW21451   6.238  11.276   8.755 -0.2055 -0.0426 -0.4981
38198SOL    HW121452   6.319  11.238   8.721  0.2530 -0.3155  0.8398
38198SOL    HW221453   6.199  11.321   8.680  1.1785  0.0962 -1.1646
38199SOL     OW21454   9.771   1.196   1.163  0.7590 -0.4367 -0.6286
38199SOL    HW121455   9.732   1.281   1.144 -0.0355 -0.6765 -0.1140
38199SOL    HW221456   9.731   1.137   1.100 -0.2845 -0.8240  0.3664
38200SOL     OW21457   1.819   4.863   7.771  0.4447  0.1996  0.3063
38200SOL    HW121458   1.781   4.930   7.714 -1.5113  0.5639  1.9298
38200SOL    HW221459   1.775   4.782   7.746 -1.2729  0.5604  1.9624
38201SOL     OW21460   4.474   8.932   7.666 -0.3787 -0.4422 -0.6060
38201SOL    HW121461   4.473   8.977   7.750 -2.1519  0.2595 -0.9537
38201SOL    HW221462   4.554   8.880   7.667 -0.1050 -0.0463  1.2901
38202SOL     OW21463   5.479   3.632   5.938  0.3032  0.0258  0.8379
38202SOL    HW121464   5.500   3.692   6.009 -1.4131  1.9770 -0.1945
38202SOL    HW221465   5.523   3.670   5.861 -0.2870 -0.3985  0.2839
38203SOL     OW21466   6.139   7.239   7.535  0.5884 -0.2001  0.0864
38203SOL    HW121467   6.057   7.246   7.584  1.1259  3.1624  0.7925
38203SOL    HW221468   6.206   7.228   7.602  0.9559 -0.1217 -0.2656
38204SOL     OW21469  10.842  11.180  10.681  0.2618 -0.3159  0.4201
38204SOL    HW121470  10.812  11.189  10.590 -0.8943 -2.7436  0.4888
38204SOL    HW221471  10.938  11.178  10.674  0.3716  2.4458 -0.3439
38205SOL     OW21472   9.738   4.767   3.967 -0.0710  1.0081  0.2917
38205SOL    HW121473   9.737   4.819   3.887  0.7779 -1.2994 -1.3339
38205SOL    HW221474   9.656   4.717   3.963  0.1089  0.6742  0.7232
38206SOL     OW21475   6.644   6.698  11.798 -0.3294  0.5411  0.0725
38206SOL    HW121476   6.550   6.684  11.790 -0.0861 -2.8320  1.5954
38206SOL    HW221477   6.661   6.700  11.892  1.2845 -0.5113 -0.1591
38207SOL     OW21478   2.437   5.650   8.760 -0.6505 -0.3247  0.0377
38207SOL    HW121479   2.405   5.633   8.849 -2.4007 -0.3805 -0.5721
38207SOL    HW221480   2.368   5.618   8.703  0.9612 -1.3633 -1.4113
38208SOL     OW21481   6.064   8.243   0.096 -0.1463 -0.1441 -0.5284
38208SOL    HW121482   6.115   8.198   0.164  0.6111  0.5205 -0.6339
38208SOL    HW221483   6.082   8.195   0.016 -1.2900 -1.1201 -0.2177
38209SOL     OW21484   9.971   5.145   5.933  0.1488 -0.1400 -0.0347
38209SOL    HW121485   9.968   5.223   5.877  1.7384  0.0025  0.0267
38209SOL    HW221486   9.938   5.175   6.018 -2.0458 -0.2972 -0.7664
38210SOL     OW21487   5.533   1.156   5.840 -0.0425  0.3946 -0.2279
38210SOL    HW121488   5.440   1.139   5.829  0.0384 -1.0851  1.0217
38210SOL    HW221489   5.569   1.074   5.874  1.8590  0.6984 -1.3585
38211SOL     OW21490   6.673   0.687   1.995  0.0960 -0.6380 -0.6359
38211SOL    HW121491   6.654   0.760   1.935 -0.3339  0.2372  0.5411
38211SOL    HW221492   6.766   0.696   2.014 -0.0631 -0.0666 -0.0880
38212SOL     OW21493   5.972   7.058   1.724 -0.2353 -0.6953  0.3822
38212SOL    HW121494   5.909   7.039   1.794 -0.3617  0.2611  0.5504
38212SOL    HW221495   5.917   7.073   1.647 -0.2439  0.3527  0.5780
38213SOL     OW21496   3.015   4.445  10.921 -0.0394  0.0345  0.5830
38213SOL    HW121497   3.083   4.468  10.858 -1.3408  0.2973 -0.7947
38213SOL    HW221498   2.958   4.385  10.873 -0.5404 -0.5226  1.8423
38214SOL     OW21499   9.069   9.866   7.551  0.1856  0.1293  0.2137
38214SOL    HW121500   9.161   9.862   7.577  0.4996 -1.4530 -0.9918
38214SOL    HW221501   9.065   9.816   7.469 -2.0071 -1.1333  1.0042
38215SOL     OW21502   8.644   1.719   0.923  0.3228 -0.2133 -0.0281
38215SOL    HW121503   8.662   1.690   1.012  1.4425 -1.0349 -0.5023
38215SOL    HW221504   8.711   1.786   0.905  0.6994 -0.7241 -0.5688
38216SOL     OW21505   6.899   1.139  11.948  0.5077  0.5099 -0.6129
38216SOL    HW121506   6.869   1.053  11.920 -1.1513  1.3937 -1.7957
38216SOL    HW221507   6.912   1.131  12.042 -2.1638 -0.4003 -0.2245
38217SOL     OW21508   9.454   5.525  10.818  0.0605  0.0945  0.6919
38217SOL    HW121509   9.387   5.587  10.789 -0.3992  0.0851  1.6863
38217SOL    HW221510   9.534   5.555  10.775 -0.1059  1.5273  1.3188
38218SOL     OW21511  10.305   7.117   2.589  0.3091  0.0629  0.1720
38218SOL    HW121512  10.376   7.090   2.531  1.4416 -0.8930  1.9315
38218SOL    HW221513  10.300   7.048   2.655 -0.6411  1.3100  1.4627
38219SOL     OW21514   6.176   0.842   6.838 -0.3301 -0.3565 -0.7642
38219SOL    HW121515   6.175   0.749   6.815  1.1497 -0.3876 -0.7787
38219SOL    HW221516   6.263   0.873   6.812 -0.7055  0.9823 -0.5370
38220SOL     OW21517   5.117   1.702   1.953  0.1880  0.4359  0.4394
38220SOL    HW121518   5.077   1.734   2.033 -1.8058  0.0032 -0.3133
38220SOL    HW221519   5.107   1.607   1.957 -2.3498  0.5020 -1.3867
38221SOL     OW21520   4.359  10.066   4.736 -0.0459 -0.0089  0.2441
38221SOL    HW121521   4.310  10.007   4.793  0.7303 -1.6506 -0.7174
38221SOL    HW221522   4.304  10.076   4.659 -0.1203  0.4448  0.3540
38222SOL     OW21523   5.519  11.394  11.629 -0.3973 -0.2940  0.2661
38222SOL    HW121524   5.530  11.361  11.719 -2.1422  1.2671  1.1056
38222SOL    HW221525   5.590  11.352  11.580  0.7067 -1.0732  2.3922
38223SOL     OW21526   3.706   6.971   5.092  0.1157 -0.3169 -0.3781
38223SOL    HW121527   3.798   6.948   5.081 -0.1181 -1.2585 -0.5174
38223SOL    HW221528   3.659   6.905   5.040 -0.6647 -0.2546  0.2346
38224SOL     OW21529   3.111   6.829   4.412  0.4178 -0.1207 -0.1259
38224SOL    HW121530   3.183   6.891   4.429  1.8228 -0.9783 -2.4606
38224SOL    HW221531   3.073   6.858   4.329 -2.2726  0.5164  1.2338
38225SOL     OW21532   4.448   5.847   2.288 -0.2859  0.2205 -0.4210
38225SOL    HW121533   4.394   5.833   2.366 -2.1863  0.3578 -1.6533
38225SOL    HW221534   4.479   5.759   2.265  0.2558  0.1710  0.4309
38226SOL     OW21535  10.991   3.641   9.553 -0.6910  0.8492 -0.2503
38226SOL    HW121536  11.001   3.549   9.529  0.0583  1.1935 -1.2882
38226SOL    HW221537  11.036   3.648   9.637 -0.8560  0.2489 -0.1030
38227SOL     OW21538   4.214   5.361   2.228  0.1893  0.0899 -0.1078
38227SOL    HW121539   4.303   5.333   2.211  0.2523 -1.0584  1.8270
38227SOL    HW221540   4.177   5.293   2.285 -1.6476  0.9537 -0.1757
38228SOL     OW21541   4.031  11.522   1.163 -0.0545  0.7798  0.2817
38228SOL    HW121542   3.966  11.497   1.098  0.8431 -0.2059 -0.2665
38228SOL    HW221543   4.115  11.515   1.118  0.4484  2.2119  0.9171
38229SOL     OW21544   9.833   3.649   0.278 -0.0837 -0.1332  0.6010
38229SOL    HW121545   9.790   3.691   0.353 -0.3225  0.4385  0.1566
38229SOL    HW221546   9.901   3.711   0.253  1.0107 -1.0271  1.2885
38230SOL     OW21547   4.680   1.713   5.876 -0.3521  0.1419  0.3102
38230SOL    HW121548   4.710   1.647   5.814  3.8547  2.0690 -0.0402
38230SOL    HW221549   4.597   1.744   5.839  0.6384 -0.6681 -2.9361
38231SOL     OW21550   5.798   1.286   5.220  0.0300 -0.1772  0.5307
38231SOL    HW121551   5.829   1.217   5.161 -1.6709  0.5246 -1.3012
38231SOL    HW221552   5.876   1.336   5.241  0.7143 -0.3685 -1.3102
38232SOL     OW21553   9.774   5.330   1.577 -0.1951  0.4503 -0.4607
38232SOL    HW121554   9.778   5.321   1.482  0.0824  0.9377 -0.4971
38232SOL    HW221555   9.846   5.275   1.610  0.2648  0.9685 -0.5826
38233SOL     OW21556   7.526   0.836   7.829 -0.3783  0.7055 -0.6092
38233SOL    HW121557   7.547   0.906   7.767  0.7663  1.9336  1.1008
38233SOL    HW221558   7.535   0.756   7.778  1.6286  1.6064 -1.7675
38234SOL     OW21559   9.681   7.638   0.095 -0.3880 -0.0416 -0.3574
38234SOL    HW121560   9.747   7.660   0.161 -0.4677 -0.6819 -0.0509
38234SOL    HW221561   9.702   7.548   0.070  0.2387  0.5004 -1.9310
38235SOL     OW21562  10.003   8.708   4.178 -0.4558  0.0010  0.1557
38235SOL    HW121563  10.018   8.659   4.258  1.0880  1.3980  0.7732
38235SOL    HW221564   9.979   8.642   4.113 -0.2757 -1.3270  1.4116
38236SOL     OW21565   7.218   9.197   4.340 -0.0255  0.1007 -0.1846
38236SOL    HW121566   7.197   9.245   4.260  0.1146 -1.3494 -1.1262
38236SOL    HW221567   7.133   9.179   4.381 -0.0210  2.4553  1.0335
38237SOL     OW21568   6.391   8.146  10.976  0.0039 -0.2977 -0.2036
38237SOL    HW121569   6.412   8.124  10.885  1.0937 -0.8675  0.1647
38237SOL    HW221570   6.475   8.137  11.022 -0.9067 -2.0122  1.2362
38238SOL     OW21571   5.862   4.542   1.943 -0.1756  0.1794 -0.6990
38238SOL    HW121572   5.877   4.636   1.946 -1.1727  0.4902 -2.9189
38238SOL    HW221573   5.768   4.533   1.927 -0.6285 -1.3257  2.2203
38239SOL     OW21574  11.707   6.938   3.014 -0.1309  0.0325 -0.1614
38239SOL    HW121575  11.638   6.883   3.051  0.9485  0.2103  2.2818
38239SOL    HW221576  11.768   6.876   2.974 -2.0198 -0.0885 -3.2206
38240SOL     OW21577  10.271   2.970   8.829 -0.2044  1.0161 -0.1578
38240SOL    HW121578  10.353   3.000   8.869 -0.3129  0.1474  0.7793
38240SOL    HW221579  10.202   3.002   8.888 -0.4043  0.2333  0.0577
38241SOL     OW21580   0.628   5.389   2.891 -0.0464 -0.7083  0.1278
38241SOL    HW121581   0.583   5.408   2.809  0.7584  1.0806  0.0393
38241SOL    HW221582   0.650   5.475   2.926  1.8503 -1.4704  0.9499
38242SOL     OW21583   1.607   0.619  11.505 -0.3660  0.4245 -0.0144
38242SOL    HW121584   1.685   0.651  11.551  0.0412  1.0591 -1.1186
38242SOL    HW221585   1.542   0.689  11.517 -0.6041  0.1323  0.4487
38243SOL     OW21586  11.893   8.316   9.268  0.0666 -0.0243 -0.1669
38243SOL    HW121587  11.876   8.248   9.333 -0.0361 -0.8086 -0.9959
38243SOL    HW221588  11.810   8.329   9.223  0.2725  0.1179 -0.5144
38244SOL     OW21589  10.454   7.928  11.511 -0.5737  0.1444  0.0442
38244SOL    HW121590  10.455   7.858  11.447 -0.1925  1.2892 -1.2465
38244SOL    HW221591  10.493   7.890  11.590 -0.1202 -0.9982 -0.7199
38245SOL     OW21592   0.253  12.243   9.152  0.3187  0.5080  0.1099
38245SOL    HW121593   0.292  12.156   9.152  1.4698  1.0018 -0.0965
38245SOL    HW221594   0.232  12.260   9.060 -1.0338 -0.0157  0.2989
38246SOL     OW21595   9.809   9.715   4.103  0.0348 -0.1338 -0.1627
38246SOL    HW121596   9.866   9.714   4.026  1.4440 -2.7949  0.8009
38246SOL    HW221597   9.821   9.629   4.143 -1.5827  0.7195  2.3843
38247SOL     OW21598   2.918  11.904  11.139  0.9407  0.2550  0.1296
38247SOL    HW121599   2.913  11.961  11.063 -3.1633 -0.6555 -0.5344
38247SOL    HW221600   2.831  11.910  11.179  1.6215 -2.4437  2.3593
38248SOL     OW21601   7.318   7.609   9.753 -0.1867 -0.0391 -0.5576
38248SOL    HW121602   7.298   7.665   9.828 -0.8413 -0.2891 -0.5439
38248SOL    HW221603   7.387   7.550   9.785  0.8111  1.0289 -0.7063
38249SOL     OW21604   2.847   5.548  12.146  0.0638  0.1142 -0.2858
38249SOL    HW121605   2.910   5.555  12.218 -1.6826 -0.7295  1.4273
38249SOL    HW221606   2.808   5.635  12.140 -0.5694 -0.0903  0.5983
38250SOL     OW21607   1.723   3.657   9.363 -0.1603  0.6267 -0.7337
38250SOL    HW121608   1.796   3.605   9.395 -0.4016  1.2607  0.9509
38250SOL    HW221609   1.745   3.676   9.272  2.5627  2.1012  0.1087
38251SOL     OW21610   6.284   1.080   1.041  0.6978  0.0238 -0.1091
38251SOL    HW121611   6.299   1.173   1.023  0.0708  0.2061  0.2706
38251SOL    HW221612   6.290   1.073   1.136 -2.2789  0.2861  0.2064
38252SOL     OW21613   1.925   6.518   7.716  0.4879 -0.4758  0.4829
38252SOL    HW121614   1.922   6.537   7.810  0.2110  2.1385  0.0350
38252SOL    HW221615   1.973   6.592   7.678 -2.7886  0.7060 -1.8333
38253SOL     OW21616   6.234   9.589   4.594  0.1710 -0.0811  0.6225
38253SOL    HW121617   6.204   9.628   4.512  1.1161  0.4558  0.5158
38253SOL    HW221618   6.215   9.655   4.661 -0.4573 -0.4549  0.8169
38254SOL     OW21619   6.135   4.942   2.461  0.1591  0.4377  0.2079
38254SOL    HW121620   6.202   4.908   2.402 -1.4363  0.0619 -1.4978
38254SOL    HW221621   6.176   4.943   2.547  1.1806 -3.2945 -0.0859
38255SOL     OW21622  12.028   6.755   9.978 -0.0198  0.3071 -0.6335
38255SOL    HW121623  12.122   6.737   9.975 -0.5732 -3.4274 -0.2967
38255SOL    HW221624  12.005   6.770   9.886  0.7007 -0.3927 -0.9529
38256SOL     OW21625   9.209   8.107   7.722 -0.3851  0.0174 -0.2278
38256SOL    HW121626   9.178   8.057   7.798  0.5731  0.3489  0.4016
38256SOL    HW221627   9.134   8.108   7.662 -0.5983 -1.7419 -0.0617
38257SOL     OW21628   6.956   9.839   5.025 -0.7794  0.7491 -0.5941
38257SOL    HW121629   6.966   9.909   4.960 -0.5270  1.5085  0.2392
38257SOL    HW221630   6.941   9.885   5.108 -1.8864 -0.2150 -0.2333
38258SOL     OW21631   5.023   0.299   7.381  0.3668  0.3235  0.4969
38258SOL    HW121632   5.080   0.246   7.325  1.7544  2.7138 -0.5257
38258SOL    HW221633   5.051   0.279   7.470  1.2968 -0.1727  0.1004
38259SOL     OW21634   1.423   8.037   0.797 -0.0271  0.5923  0.0033
38259SOL    HW121635   1.515   8.038   0.826  0.5428  1.6464 -1.7062
38259SOL    HW221636   1.393   8.127   0.807 -0.6578  0.3977 -0.0986
38260SOL     OW21637   5.316   0.645   8.147 -0.0474 -0.5119  0.2173
38260SOL    HW121638   5.334   0.562   8.190 -0.6950 -0.1947  1.1354
38260SOL    HW221639   5.399   0.669   8.106  0.5879 -0.8698  1.2374
38261SOL     OW21640   4.441  12.325   9.511  0.0345  0.7901 -0.1065
38261SOL    HW121641   4.461  12.383   9.585  0.6235  0.1056  0.2858
38261SOL    HW221642   4.378  12.375   9.459  0.7078  1.8900  0.0830
38262SOL     OW21643   0.831  12.449   1.338  1.1796 -0.1157  0.2089
38262SOL    HW121644   0.774  12.444   1.261  1.7256  0.7593 -0.2665
38262SOL    HW221645   0.801  12.526   1.385 -0.5200 -1.7975  2.0206
38263SOL     OW21646   1.931  11.921   8.469 -0.1762  0.0691 -0.1874
38263SOL    HW121647   1.843  11.889   8.451  0.2615 -0.2276 -2.0557
38263SOL    HW221648   1.973  11.851   8.519 -0.3813 -0.7002 -1.0637
38264SOL     OW21649   7.092   5.556   0.340  0.0723 -0.1931  0.4855
38264SOL    HW121650   7.121   5.465   0.330  1.1486  0.0308  1.3842
38264SOL    HW221651   7.162   5.608   0.302 -0.5649  0.2687 -0.0736
38265SOL     OW21652   2.578  12.332   9.318  0.1670  0.1478  0.2738
38265SOL    HW121653   2.518  12.272   9.274 -0.5128  1.3958 -0.5982
38265SOL    HW221654   2.583  12.407   9.258  2.1280  0.3379  0.6397
38266SOL     OW21655  12.141   8.695   1.887 -0.2151  0.3948  0.1856
38266SOL    HW121656  12.062   8.693   1.941  0.4741 -1.3131  1.2046
38266SOL    HW221657  12.188   8.615   1.910  0.3662 -0.1841 -2.6215
38267SOL     OW21658   1.250   5.172   2.442  0.6201  0.1960  0.1729
38267SOL    HW121659   1.253   5.251   2.389  0.2890  0.3980  0.4519
38267SOL    HW221660   1.333   5.128   2.423 -0.1362 -0.5328 -1.6919
38268SOL     OW21661   0.356   1.575   3.485 -0.2788  0.9470  0.3516
38268SOL    HW121662   0.311   1.642   3.434 -0.2815  0.5179 -0.2100
38268SOL    HW221663   0.347   1.495   3.434  1.1711  0.8589  0.1767
38269SOL     OW21664   8.035   0.775   8.351  0.4817  0.4628 -0.2442
38269SOL    HW121665   8.106   0.780   8.416 -1.4156 -0.4387  2.0492
38269SOL    HW221666   8.077   0.798   8.268  2.9451  2.2875  1.3494
38270SOL     OW21667   9.061  11.695   5.263 -0.3169 -0.0637 -0.7310
38270SOL    HW121668   9.097  11.636   5.329 -0.9535 -1.9235 -1.9719
38270SOL    HW221669   9.095  11.662   5.180 -0.9972  1.1085 -1.5060
38271SOL     OW21670   7.106   8.917   3.997  0.1846  0.0328 -0.0019
38271SOL    HW121671   7.134   8.841   4.048  1.6017  0.4127 -0.1803
38271SOL    HW221672   7.072   8.881   3.915  0.8797 -0.4183 -0.0963
38272SOL     OW21673   6.180  12.560   4.495 -0.3544 -0.3168  0.3723
38272SOL    HW121674   6.149  12.537   4.583 -1.5126 -1.4603 -0.3157
38272SOL    HW221675   6.105  12.600   4.453 -0.8025 -2.5698 -1.1169
38273SOL     OW21676   9.829  11.509   2.259  0.1307  0.0478  0.1285
38273SOL    HW121677   9.856  11.528   2.349  0.9414 -1.5281  0.2547
38273SOL    HW221678   9.896  11.551   2.205  0.8216 -0.7699  0.3371
38274SOL     OW21679   0.046   1.268   4.504 -0.1664 -0.2904 -0.2486
38274SOL    HW121680  -0.034   1.257   4.555  1.1064  1.4261  2.3650
38274SOL    HW221681   0.037   1.355   4.465  0.1733 -0.3311 -0.4140
38275SOL     OW21682   5.596   6.556   3.643 -0.3360  0.1328  0.3852
38275SOL    HW121683   5.588   6.630   3.703  1.4488  1.4361 -0.8466
38275SOL    HW221684   5.683   6.519   3.663 -0.7946 -1.0273  0.3100
38276SOL     OW21685   9.783   4.955   0.498 -0.0076  0.0418  0.1549
38276SOL    HW121686   9.742   4.930   0.415  0.0298  0.3247  0.0489
38276SOL    HW221687   9.801   5.049   0.488  0.9934 -0.1474  0.0587
38277SOL     OW21688  10.525   9.803   2.128  0.2270  0.6082  0.5185
38277SOL    HW121689  10.516   9.710   2.145 -2.1654  0.8211  0.7586
38277SOL    HW221690  10.504   9.846   2.211 -1.2738  1.3764 -0.2012
38278SOL     OW21691  10.276   4.312   1.429 -0.0604 -0.7100 -0.0441
38278SOL    HW121692  10.252   4.390   1.479 -0.7965 -2.9090  3.3697
38278SOL    HW221693  10.371   4.314   1.424 -0.0742  0.4071 -0.0672
38279SOL     OW21694  11.447   2.323  10.936 -0.6506  0.5487  0.0520
38279SOL    HW121695  11.517   2.384  10.915  0.1955 -0.3700  0.1580
38279SOL    HW221696  11.379   2.378  10.976 -0.9168  1.8109 -1.9686
38280SOL     OW21697   1.698   5.172  11.453 -0.0641  0.2346  0.0693
38280SOL    HW121698   1.637   5.127  11.511 -0.3345  1.1892  0.5488
38280SOL    HW221699   1.776   5.186  11.506  0.1032  0.1187 -0.1482
38281SOL     OW21700   6.245  12.351   9.062 -0.4577  0.3702 -0.0123
38281SOL    HW121701   6.319  12.328   9.006  0.1515  1.8130  0.1657
38281SOL    HW221702   6.169  12.347   9.004 -0.1838 -0.5669 -0.3271
38282SOL     OW21703   5.257   7.513   7.681 -0.5379 -0.1972 -0.4908
38282SOL    HW121704   5.237   7.527   7.773  1.6047 -0.0977 -0.0028
38282SOL    HW221705   5.290   7.597   7.650  0.9848 -0.8395 -0.7049
38283SOL     OW21706  10.791   5.610   8.995 -0.0562  0.1228 -0.2623
38283SOL    HW121707  10.760   5.568   9.076 -1.4650  1.5716 -0.0179
38283SOL    HW221708  10.760   5.552   8.925  2.0023 -1.6722  0.1818
38284SOL     OW21709   9.984   5.604   8.348 -0.3802 -0.4167 -0.1657
38284SOL    HW121710  10.058   5.634   8.296  0.2802  0.3951  1.1656
38284SOL    HW221711   9.912   5.594   8.285  0.1565  1.2874 -1.1107
38285SOL     OW21712   7.260   0.908   2.718 -0.1359  0.7418  0.5121
38285SOL    HW121713   7.270   0.947   2.631 -2.5725 -0.4837 -0.4313
38285SOL    HW221714   7.332   0.846   2.724 -0.3242  0.3088 -1.0140
38286SOL     OW21715   4.794   7.969   8.101  0.2576  0.1973  0.0671
38286SOL    HW121716   4.878   7.977   8.057  0.7567  0.1808  0.9990
38286SOL    HW221717   4.809   7.903   8.169  0.0896  1.6995  1.6218
38287SOL     OW21718   3.411  10.109   4.310 -0.1227  0.6884 -0.1903
38287SOL    HW121719   3.507  10.105   4.303 -0.0417 -0.0903  0.9928
38287SOL    HW221720   3.381  10.135   4.223  1.2010  1.6021 -0.3982
38288SOL     OW21721  11.336   0.939   0.950 -0.0160  0.2093 -0.0319
38288SOL    HW121722  11.365   0.853   0.921  0.2607  0.4794 -0.5683
38288SOL    HW221723  11.329   0.931   1.045 -1.2205 -0.7642 -0.1847
38289SOL     OW21724   7.497   0.054  11.081 -0.0390  0.1908 -0.1805
38289SOL    HW121725   7.591   0.039  11.065  0.2573  2.3191 -0.7468
38289SOL    HW221726   7.495   0.125  11.145 -1.2480  1.0540 -1.1424
38290SOL     OW21727  10.456   3.887   0.914 -0.1347  0.1002  0.1368
38290SOL    HW121728  10.393   3.935   0.968 -0.0853 -0.1068  0.3796
38290SOL    HW221729  10.481   3.950   0.846 -1.5763 -0.2230 -0.7447
38291SOL     OW21730   0.552   8.910   6.419 -0.1947 -0.0973  0.1651
38291SOL    HW121731   0.576   8.849   6.489  0.5368  0.0232  0.0190
38291SOL    HW221732   0.621   8.976   6.419 -0.7681  0.5147  0.0497
38292SOL     OW21733   7.072   2.630   2.148  0.1761  0.4639  0.0464
38292SOL    HW121734   7.015   2.692   2.194  1.0012  0.2351  1.4267
38292SOL    HW221735   7.157   2.638   2.192  0.1644 -2.0273  0.6449
38293SOL     OW21736   4.781   9.184   2.921  0.3887  0.0686 -0.4710
38293SOL    HW121737   4.717   9.210   2.987  1.5709  1.2609  0.2427
38293SOL    HW221738   4.799   9.263   2.871  0.3814 -0.5509 -1.4991
38294SOL     OW21739   4.781   8.292   4.095 -0.5722  0.9607  0.1386
38294SOL    HW121740   4.717   8.264   4.161  1.4864  0.9706  2.2655
38294SOL    HW221741   4.770   8.231   4.023 -2.9931  1.0123  0.3906
38295SOL     OW21742   7.337   2.723   3.468  0.0086  0.4582 -0.0114
38295SOL    HW121743   7.420   2.675   3.478  1.1907  2.5004  0.6563
38295SOL    HW221744   7.346   2.798   3.527 -2.1184  1.0263 -0.3411
38296SOL     OW21745   1.838   4.653   8.178  0.1307  0.1387  0.1444
38296SOL    HW121746   1.759   4.683   8.132  1.0586  0.0141 -1.6121
38296SOL    HW221747   1.894   4.729   8.182  0.9448 -0.3809 -0.9219
38297SOL     OW21748  10.960   4.139  12.270 -0.3269 -0.1235  1.3254
38297SOL    HW121749  11.035   4.087  12.242  0.3906  1.6780 -0.3204
38297SOL    HW221750  10.892   4.120  12.206 -0.1277  0.7666  0.8330
38298SOL     OW21751   8.034   4.566   2.488  0.1174 -0.5755  0.1767
38298SOL    HW121752   7.954   4.564   2.540 -0.3874  2.6886 -0.2564
38298SOL    HW221753   8.005   4.584   2.399  1.3084  1.4115  0.1356
38299SOL     OW21754   3.743   8.930   4.663 -0.3598  0.5558 -0.1606
38299SOL    HW121755   3.651   8.932   4.687 -0.4181 -0.0488 -0.3256
38299SOL    HW221756   3.788   8.901   4.742 -0.1827  1.9227  0.2687
38300SOL     OW21757   4.036   7.309  10.172  0.1507  0.1857 -0.1637
38300SOL    HW121758   3.995   7.296  10.087 -1.0193  1.4149  0.1735
38300SOL    HW221759   4.128   7.327  10.152 -0.2154  0.9607 -1.2153
38301SOL     OW21760   0.148   0.051   4.451 -0.0990 -0.1945  0.6636
38301SOL    HW121761   0.110   0.057   4.363  1.0071 -3.6620 -0.2051
38301SOL    HW221762   0.076   0.073   4.510 -1.9847 -1.4905 -1.0257
38302SOL     OW21763   7.012   7.556   7.312  0.0841 -0.3489 -0.3487
38302SOL    HW121764   7.048   7.469   7.330 -0.3587 -0.6630 -0.9473
38302SOL    HW221765   7.089   7.612   7.302  0.3870 -0.7968 -0.5496
38303SOL     OW21766   0.761   3.652   6.961 -0.0153 -0.7902  0.7267
38303SOL    HW121767   0.674   3.690   6.974 -0.6181 -1.7232 -0.4291
38303SOL    HW221768   0.793   3.692   6.880  1.6397  1.2660  2.2775
38304SOL     OW21769   6.251   5.665   3.979  0.7339 -0.1101  0.1316
38304SOL    HW121770   6.312   5.609   4.027  0.8425 -1.1878 -1.1976
38304SOL    HW221771   6.192   5.604   3.935  0.8248  0.8088 -1.3298
38305SOL     OW21772  12.234   9.013   7.177  0.0182  0.2465 -0.3904
38305SOL    HW121773  12.258   8.920   7.180  0.0130  0.2436 -0.4304
38305SOL    HW221774  12.167   9.023   7.245  0.4728  0.3523  0.0466
38306SOL     OW21775   3.594   2.421   5.678  0.0775  0.0559 -0.6055
38306SOL    HW121776   3.503   2.394   5.688  0.1824 -0.6682 -1.4687
38306SOL    HW221777   3.592   2.487   5.609  0.2072  0.0803 -0.5861
38307SOL     OW21778   3.281   1.823   1.569 -0.0323 -0.4354 -0.2509
38307SOL    HW121779   3.297   1.793   1.479 -1.9574 -1.2705 -0.3827
38307SOL    HW221780   3.191   1.794   1.587  0.5008 -0.7639  2.1412
38308SOL     OW21781   8.366   9.085   8.832 -0.8706 -0.4975 -0.7392
38308SOL    HW121782   8.366   9.175   8.799 -0.6444 -0.1749  0.1366
38308SOL    HW221783   8.277   9.072   8.866  0.1735  0.7980  2.8602
38309SOL     OW21784   5.459   6.249   4.296 -0.0345 -0.2023 -0.4320
38309SOL    HW121785   5.395   6.313   4.263  0.8472  1.4769  0.9530
38309SOL    HW221786   5.415   6.164   4.286 -2.0671  0.7936 -0.4761
38310SOL     OW21787   8.817  11.598   2.319  0.1033  0.1706  0.0761
38310SOL    HW121788   8.888  11.573   2.377  0.1430  1.3521  0.5823
38310SOL    HW221789   8.835  11.553   2.237  0.2699 -1.2059  0.8423
38311SOL     OW21790   1.647   9.829  12.097 -0.4193 -0.0993 -0.4184
38311SOL    HW121791   1.658   9.739  12.129 -0.0867 -0.6693 -1.9953
38311SOL    HW221792   1.713   9.837  12.028  1.5054  2.3462  1.5711
38312SOL     OW21793   3.715  10.387   2.202 -0.4995 -0.3742  0.4349
38312SOL    HW121794   3.803  10.386   2.238 -0.9203 -2.1312  1.5598
38312SOL    HW221795   3.708  10.471   2.156  1.4406  0.1625  1.0403
38313SOL     OW21796   9.325   1.719   6.917 -0.1802 -0.3032 -0.0636
38313SOL    HW121797   9.348   1.753   7.004 -0.1583  0.0082 -0.1919
38313SOL    HW221798   9.358   1.629   6.917  1.3025  0.2196 -0.3536
38314SOL     OW21799  11.033   8.231   2.359  0.1489 -0.3545  0.1645
38314SOL    HW121800  10.946   8.259   2.386 -0.1596 -1.2711  0.1478
38314SOL    HW221801  11.018   8.168   2.289  0.8295 -0.5262  0.1618
38315SOL     OW21802   7.379   7.042   1.729  0.2986 -0.0863 -0.9104
38315SOL    HW121803   7.354   7.132   1.708  0.8840 -0.1523 -1.9688
38315SOL    HW221804   7.327   7.020   1.806 -1.4818  0.4327 -1.8905
38316SOL     OW21805  10.385  12.199   1.385 -0.3034  0.3772  0.0608
38316SOL    HW121806  10.430  12.157   1.312  1.2170  1.6712  0.2007
38316SOL    HW221807  10.298  12.158   1.386  0.8616 -2.3350 -0.1305
38317SOL     OW21808   4.508   4.702   3.920 -0.4154  0.2054 -0.2485
38317SOL    HW121809   4.582   4.723   3.863 -0.7559  1.0071 -0.4043
38317SOL    HW221810   4.471   4.621   3.882  0.2499 -0.0835 -0.2847
38318SOL     OW21811   9.184   7.212  11.732  0.0159 -0.0388 -0.4154
38318SOL    HW121812   9.104   7.164  11.712 -0.2387  0.1936  0.0296
38318SOL    HW221813   9.245   7.189  11.661 -0.4062 -0.2996 -0.6940
38319SOL     OW21814   9.540   1.241   6.504  0.4278 -0.1392  0.4702
38319SOL    HW121815   9.487   1.217   6.580  0.9616  1.2278  1.3211
38319SOL    HW221816   9.631   1.233   6.535  0.6426  0.7184  0.0946
38320SOL     OW21817  12.169   3.259   7.720  0.6151 -0.4633  0.0448
38320SOL    HW121818  12.164   3.230   7.811  3.0481 -0.8311  0.1337
38320SOL    HW221819  12.263   3.258   7.700  0.1601 -0.1025 -2.3822
38321SOL     OW21820   2.181   2.104   8.603  0.2119 -0.0880 -0.1780
38321SOL    HW121821   2.195   2.094   8.509  1.9794 -0.0131  0.0337
38321SOL    HW221822   2.257   2.060   8.643 -0.6985 -0.4487  1.2219
38322SOL     OW21823   3.746   5.141   3.773  0.1014 -0.0216  0.7736
38322SOL    HW121824   3.736   5.208   3.842 -1.5075 -0.8755  1.4091
38322SOL    HW221825   3.789   5.188   3.701 -0.5803  1.5897  1.3658
38323SOL     OW21826   8.861  12.389   8.283  0.7714  0.5724 -0.0543
38323SOL    HW121827   8.901  12.305   8.304 -2.7738 -1.4135 -0.4316
38323SOL    HW221828   8.804  12.370   8.208 -0.7715  3.1015  0.3569
38324SOL     OW21829   5.756   5.737   1.240  0.2956 -0.9009  0.0345
38324SOL    HW121830   5.743   5.818   1.288  1.0925 -0.3787 -0.6041
38324SOL    HW221831   5.810   5.683   1.297 -0.8419 -1.3000  0.7769
38325SOL     OW21832   0.992  11.067  12.251  0.0147  0.2460  0.0047
38325SOL    HW121833   1.042  11.038  12.175 -1.5330  0.2930 -1.0700
38325SOL    HW221834   1.002  10.997  12.315  0.0060 -0.5616 -0.8633
38326SOL     OW21835   2.160   1.751  11.363 -0.0840 -0.2301  0.2393
38326SOL    HW121836   2.243   1.794  11.381  1.2514 -0.3749 -4.2315
38326SOL    HW221837   2.107   1.818  11.318 -0.1414 -1.5930 -1.8488
38327SOL     OW21838   9.953  10.100   4.042 -0.2246  0.2926 -0.0479
38327SOL    HW121839   9.957  10.066   3.953  0.9060  0.4655 -0.0746
38327SOL    HW221840   9.859  10.108   4.060 -0.4707  0.0506 -1.1381
38328SOL     OW21841   8.033   5.633   3.185  0.0724 -0.6745  0.2445
38328SOL    HW121842   8.008   5.710   3.236  1.2737  0.7527 -1.2241
38328SOL    HW221843   7.996   5.560   3.233 -0.9260  0.7913  1.8216
38329SOL     OW21844   5.150   3.629   2.669  0.5174  0.5956 -0.2088
38329SOL    HW121845   5.078   3.568   2.681  0.6014 -0.6413 -4.4861
38329SOL    HW221846   5.117   3.712   2.703 -1.6789 -0.6110  0.7883
38330SOL     OW21847  10.785   9.016   1.143 -0.1699 -0.7070 -0.5757
38330SOL    HW121848  10.705   8.985   1.186 -1.2980 -1.4431 -3.0005
38330SOL    HW221849  10.801   9.103   1.181 -1.2904 -1.1385  0.9737
38331SOL     OW21850   1.479   0.043   3.249  0.3556 -0.4785 -0.3980
38331SOL    HW121851   1.505   0.032   3.158  1.7157  1.1119 -0.2602
38331SOL    HW221852   1.425  -0.033   3.269 -0.8240 -0.3588 -2.8281
38332SOL     OW21853   8.027   0.016   8.527  0.8911 -0.3196 -0.8217
38332SOL    HW121854   8.011   0.110   8.523 -0.6926 -0.4104  1.3884
38332SOL    HW221855   8.024  -0.005   8.620 -1.5817 -2.9579 -1.3463
38333SOL     OW21856   5.733   0.446   9.262  0.4678 -0.4207 -0.0757
38333SOL    HW121857   5.820   0.406   9.260  0.2769 -0.8283 -0.2896
38333SOL    HW221858   5.690   0.415   9.182 -0.0448 -0.6090  0.2635
38334SOL     OW21859   3.530   1.923   8.492 -0.2385 -0.0126  0.3063
38334SOL    HW121860   3.588   1.994   8.522  0.8714 -0.1611 -1.3880
38334SOL    HW221861   3.535   1.858   8.563  1.3007  0.1965  0.4376
38335SOL     OW21862   4.800   3.552   2.334  0.2604  0.0294  0.0704
38335SOL    HW121863   4.776   3.515   2.420  0.8339  1.8676  1.0723
38335SOL    HW221864   4.892   3.529   2.323  0.4549  0.6354  0.4142
38336SOL     OW21865   2.931   3.954   4.867 -0.3375 -0.5247 -0.8763
38336SOL    HW121866   3.025   3.971   4.881 -0.6450  1.2351 -0.7504
38336SOL    HW221867   2.926   3.859   4.855  1.7963 -0.4033 -3.6038
38337SOL     OW21868   8.313   5.171   8.498  0.3617  0.2181  0.0843
38337SOL    HW121869   8.398   5.163   8.454 -0.3610 -1.8910 -1.0458
38337SOL    HW221870   8.334   5.198   8.587  2.2424 -0.7270 -0.0418
38338SOL     OW21871   9.632   3.257   2.747 -0.1021  0.0199 -0.6604
38338SOL    HW121872   9.541   3.280   2.727 -0.2339 -0.2423 -0.3644
38338SOL    HW221873   9.628   3.165   2.774  0.1853  0.1532 -0.1658
38339SOL     OW21874   7.489   6.879   9.168  0.1822  0.2952 -0.2559
38339SOL    HW121875   7.431   6.878   9.244 -0.4638  1.5922 -0.6921
38339SOL    HW221876   7.549   6.807   9.182  1.3841  1.6884  2.5336
38340SOL     OW21877   1.008  11.844  10.544 -0.0168 -0.3532 -0.0042
38340SOL    HW121878   1.077  11.906  10.518 -0.8841  1.6058  2.0457
38340SOL    HW221879   0.930  11.874  10.498 -0.9352  1.5229  2.5345
38341SOL     OW21880  11.445   0.130   3.808 -0.2263 -0.3383  0.1653
38341SOL    HW121881  11.534   0.142   3.842  0.2902 -0.1121 -1.1881
38341SOL    HW221882  11.391   0.191   3.858  0.5426  0.1555  0.4029
38342SOL     OW21883   9.095   7.361   9.250  0.1297 -0.4320  0.1885
38342SOL    HW121884   9.084   7.380   9.343  0.4842  0.8601 -0.0092
38342SOL    HW221885   9.011   7.325   9.222 -0.2528 -0.0604  0.8451
38343SOL     OW21886   9.578  10.293  12.344 -0.2111  0.1765 -0.0646
38343SOL    HW121887   9.497  10.340  12.367 -0.2103 -0.7504  2.0220
38343SOL    HW221888   9.646  10.338  12.394  0.2764 -0.1793 -0.4125
38344SOL     OW21889   9.324   3.698   0.165  0.5025 -0.8449  0.0891
38344SOL    HW121890   9.306   3.618   0.214 -1.5480 -0.0018  0.8320
38344SOL    HW221891   9.417   3.714   0.178  0.2947 -1.3182  2.7576
38345SOL     OW21892   1.705   9.255   1.195 -0.3251 -0.0541 -0.2309
38345SOL    HW121893   1.789   9.299   1.184 -0.3803  0.2214  0.3983
38345SOL    HW221894   1.655   9.278   1.116 -0.6831  1.7801  0.4865
38346SOL     OW21895  11.706  10.864   1.792  0.3927  0.3517  0.0510
38346SOL    HW121896  11.792  10.901   1.811  0.5018 -0.4006  1.1632
38346SOL    HW221897  11.685  10.812   1.870 -0.6546 -0.2246 -0.5927
38347SOL     OW21898  11.912  12.522   9.766  0.1852 -0.1379 -0.4427
38347SOL    HW121899  11.829  12.565   9.786 -0.0787 -0.3532 -1.0423
38347SOL    HW221900  11.927  12.541   9.673  1.3776  0.8528 -0.0802
38348SOL     OW21901   8.916  10.751   7.249 -0.9004 -0.2508 -0.1453
38348SOL    HW121902   8.892  10.672   7.299 -1.0726  0.7522  1.4371
38348SOL    HW221903   8.865  10.821   7.290  1.7885  1.2942  0.8124
38349SOL     OW21904   5.238   7.978  10.435 -0.7196 -0.5673  0.2575
38349SOL    HW121905   5.291   7.951  10.510 -0.0643  0.0778  0.0364
38349SOL    HW221906   5.172   8.037  10.473 -1.2656 -1.3212  0.5207
38350SOL     OW21907   6.665   4.322   6.616  0.6563  0.0179 -0.4295
38350SOL    HW121908   6.745   4.339   6.567  1.0025  0.0014  0.1245
38350SOL    HW221909   6.633   4.409   6.640  1.1418 -0.0028  0.3465
38351SOL     OW21910   6.865   3.480   9.799  0.1056 -0.2829 -0.3451
38351SOL    HW121911   6.883   3.392   9.832 -0.8554 -0.7910 -1.1061
38351SOL    HW221912   6.777   3.474   9.762  0.9132  0.3263 -2.5807
38352SOL     OW21913   0.642   2.036   4.724  0.2502  0.2798  0.4972
38352SOL    HW121914   0.687   2.037   4.640 -0.4263 -0.1788  0.1250
38352SOL    HW221915   0.563   1.984   4.709  0.5881 -0.6305  1.6453
38353SOL     OW21916   1.341  11.907   9.984  0.0214 -0.4153  0.2184
38353SOL    HW121917   1.401  11.854   9.932 -1.1442 -0.4071 -1.1877
38353SOL    HW221918   1.283  11.844  10.026 -0.3232 -0.3253 -0.1239
38354SOL     OW21919   6.555   5.061  10.502 -0.1703 -0.1678  0.3876
38354SOL    HW121920   6.605   4.985  10.471  0.0427  0.2098 -0.2054
38354SOL    HW221921   6.502   5.027  10.574 -3.2746 -1.9183 -2.4609
38355SOL     OW21922   9.215   1.948   4.339  0.1771  0.2072  0.0761
38355SOL    HW121923   9.175   1.894   4.407 -1.3421  0.3525 -0.6437
38355SOL    HW221924   9.211   2.037   4.374 -1.2071  0.3731 -0.4109
38356SOL     OW21925  11.510   9.338   5.099 -0.4219 -0.4089 -0.1602
38356SOL    HW121926  11.576   9.278   5.132 -0.2458  0.0952  0.4264
38356SOL    HW221927  11.532   9.422   5.138  0.2624  0.4078 -2.1645
38357SOL     OW21928   7.694   6.684   5.473  0.9352 -0.0839  0.2253
38357SOL    HW121929   7.625   6.619   5.460 -0.3573  1.7208 -2.8755
38357SOL    HW221930   7.657   6.746   5.536 -0.6619  1.1477 -1.7834
38358SOL     OW21931   6.337  10.878   0.799  0.1428 -0.0494 -0.2540
38358SOL    HW121932   6.355  10.793   0.838 -0.4903  0.3158  0.8721
38358SOL    HW221933   6.242  10.886   0.799  0.1334  0.1167 -1.5811
38359SOL     OW21934   7.857   1.124   4.157 -0.0773  0.4185 -0.2730
38359SOL    HW121935   7.878   1.083   4.073 -0.3351 -1.4303  0.5364
38359SOL    HW221936   7.788   1.069   4.195  0.4338  0.8898  1.4213
38360SOL     OW21937   6.900   0.694   3.149  0.0748  0.3877 -0.1214
38360SOL    HW121938   6.927   0.605   3.128  1.3314  0.9091 -0.8367
38360SOL    HW221939   6.957   0.722   3.220 -0.9861  0.2928  0.7917
38361SOL     OW21940   3.285   7.664   5.303 -0.5872  0.2098  0.1512
38361SOL    HW121941   3.274   7.679   5.397 -1.4424 -1.6857  0.4070
38361SOL    HW221942   3.373   7.628   5.294 -0.1424  1.2829  0.0803
38362SOL     OW21943   8.379   9.906  11.057 -0.0914 -0.3842  0.3837
38362SOL    HW121944   8.387   9.939  10.967 -1.2696  2.0902  1.0770
38362SOL    HW221945   8.437   9.963  11.108 -0.5453 -0.8133  1.3936
38363SOL     OW21946   5.863   6.660   9.797  0.0798  0.4425 -0.1971
38363SOL    HW121947   5.907   6.619   9.872  0.3987  0.3232 -0.4473
38363SOL    HW221948   5.791   6.710   9.836 -0.4606 -0.5452  0.0919
38364SOL     OW21949  10.642   8.076   2.753 -0.0162  0.9130 -0.3222
38364SOL    HW121950  10.719   8.020   2.764 -0.3769  0.7901  2.1442
38364SOL    HW221951  10.568   8.016   2.764 -0.4129  1.6003  0.8306
38365SOL     OW21952   1.228  11.011   8.411 -0.0346  1.1180 -0.1963
38365SOL    HW121953   1.205  11.003   8.503 -2.6934  0.0867 -0.8598
38365SOL    HW221954   1.299  10.947   8.398 -0.4229  0.4391  0.8858
38366SOL     OW21955   1.583  12.456   9.357  0.0104  0.3344  0.0482
38366SOL    HW121956   1.643  12.423   9.290  2.2191  2.0609  1.0256
38366SOL    HW221957   1.544  12.377   9.395  2.0217 -0.9581 -0.3666
38367SOL     OW21958  11.753   2.275   8.328  0.1889 -0.1916 -0.0501
38367SOL    HW121959  11.828   2.285   8.387 -0.2657  0.1635  0.4788
38367SOL    HW221960  11.784   2.215   8.260  1.7281  1.6775 -1.1285
38368SOL     OW21961   7.344  10.213   7.886  0.0262 -0.5632 -0.0197
38368SOL    HW121962   7.285  10.236   7.815 -0.6557  2.2057  1.3158
38368SOL    HW221963   7.384  10.296   7.913  1.3621 -1.7272  1.8805
38369SOL     OW21964   8.907  12.435  10.855 -0.4048  0.1937  0.1318
38369SOL    HW121965   8.855  12.476  10.924  1.1007  1.4096  0.5955
38369SOL    HW221966   8.902  12.496  10.781  0.0505  0.1468  0.0568
38370SOL     OW21967   0.012   0.727   1.182 -0.0464 -0.5200 -0.4501
38370SOL    HW121968  -0.016   0.772   1.102  1.5870 -0.0357 -0.7869
38370SOL    HW221969   0.099   0.763   1.200 -0.1482 -1.0446  1.2354
38371SOL     OW21970   5.712  11.868   9.089 -0.3849 -0.2115  0.4185
38371SOL    HW121971   5.760  11.802   9.140 -0.2689 -0.1654  0.3678
38371SOL    HW221972   5.670  11.818   9.019  0.4094 -0.1172 -0.1399
38372SOL     OW21973  10.978  11.738  11.996 -0.1028  0.6456  0.5276
38372SOL    HW121974  11.038  11.688  11.941 -1.4099 -2.1916  1.4983
38372SOL    HW221975  11.034  11.776  12.064  1.0299  1.2280 -0.6781
38373SOL     OW21976   8.891   4.798   6.058  0.1545 -0.2575  0.2933
38373SOL    HW121977   8.941   4.862   6.108 -0.6007  1.8954 -1.5427
38373SOL    HW221978   8.800   4.810   6.086 -0.0076 -0.4517 -0.1222
38374SOL     OW21979  11.028   7.430   6.360 -0.6279  0.1135  0.5959
38374SOL    HW121980  11.045   7.423   6.266 -0.1770  0.9043  0.6095
38374SOL    HW221981  11.004   7.341   6.387  0.6203 -0.4187  0.0051
38375SOL     OW21982   6.370   6.698   5.687 -0.0254  0.0078  0.0148
38375SOL    HW121983   6.283   6.668   5.712  0.2964 -0.4618  0.5736
38375SOL    HW221984   6.390   6.770   5.747 -0.3607  0.6688 -0.6459
38376SOL     OW21985   0.195   5.620   1.324  0.2388  0.7884 -0.1655
38376SOL    HW121986   0.263   5.564   1.360 -0.4578  0.3190  0.4492
38376SOL    HW221987   0.241   5.676   1.261  1.1093  0.1934 -0.0796
38377SOL     OW21988   5.993   1.177  12.132 -0.0626  0.1219 -0.0666
38377SOL    HW121989   6.024   1.264  12.153 -0.9092 -0.1087  2.3992
38377SOL    HW221990   5.934   1.153  12.204 -1.0359 -1.8943 -1.4126
38378SOL     OW21991   4.755  10.536  12.291  0.0372 -0.6742 -0.0355
38378SOL    HW121992   4.840  10.571  12.318 -0.2847 -0.0162  0.1385
38378SOL    HW221993   4.710  10.611  12.252 -0.8805 -0.7499  0.8440
38379SOL     OW21994  12.314   3.472   7.452  0.0834 -0.0697  0.0121
38379SOL    HW121995  12.354   3.558   7.438 -1.5137  0.7826  0.4184
38379SOL    HW221996  12.370   3.430   7.517  1.0043  0.5644 -0.3435
38380SOL     OW21997   7.468   4.642   6.734 -0.7374  0.5983 -0.0321
38380SOL    HW121998   7.516   4.568   6.696 -1.0468  0.6619 -0.5626
38380SOL    HW221999   7.494   4.644   6.826 -0.1532  0.2895 -0.1878
38381SOL     OW22000   4.787   2.193   1.631  0.0815  0.1175 -0.2834
38381SOL    HW122001   4.759   2.122   1.574 -0.4044 -0.8694  1.1398
38381SOL    HW222002   4.751   2.171   1.717 -0.0395  2.0689  0.2055
38382SOL     OW22003   2.473   1.544   6.071  0.3187  0.2855 -0.6602
38382SOL    HW122004   2.531   1.469   6.060  0.4599  0.5675 -2.0439
38382SOL    HW222005   2.460   1.551   6.166  0.9462 -0.9809 -0.4586
38383SOL     OW22006   7.933   2.569   2.402  0.6912  0.1842 -0.1471
38383SOL    HW122007   7.979   2.573   2.486  0.8719  0.2774 -0.2484
38383SOL    HW222008   7.989   2.620   2.342 -0.5774  2.0850  0.1892
38384SOL     OW22009  10.498   0.635   2.021 -0.3895  0.4467 -0.2512
38384SOL    HW122010  10.576   0.584   1.999 -0.9847  0.4179 -2.5730
38384SOL    HW222011  10.531   0.713   2.065  0.8058 -0.3210  0.2384
38385SOL     OW22012   4.217  12.279  10.189  0.2292  0.0150  0.2537
38385SOL    HW122013   4.299  12.274  10.239  0.9724  0.7666 -0.8333
38385SOL    HW222014   4.148  12.274  10.255  1.1247 -1.1761  1.1619
38386SOL     OW22015  10.015   7.239   6.533  0.2811 -0.4596 -0.6866
38386SOL    HW122016  10.037   7.152   6.567  0.1968 -0.3129 -0.2529
38386SOL    HW222017  10.060   7.244   6.449 -0.1633 -1.1321 -0.9714
38387SOL     OW22018   3.472   0.392  11.770  0.2848 -0.5595 -0.0631
38387SOL    HW122019   3.497   0.308  11.808  0.7647 -0.3237  0.1460
38387SOL    HW222020   3.533   0.455  11.808 -1.2094  0.1967  1.1937
38388SOL     OW22021  11.587   2.481   1.823 -0.6261 -0.3637 -0.5386
38388SOL    HW122022  11.683   2.484   1.825 -0.4942 -1.8089 -2.1584
38388SOL    HW222023  11.561   2.473   1.914  0.6560  2.2488  0.1567
38389SOL     OW22024  11.146   7.949   4.672  0.2980 -0.2296  0.5048
38389SOL    HW122025  11.127   8.030   4.623 -1.4957 -0.5120  0.6676
38389SOL    HW222026  11.230   7.920   4.638  0.6053  1.2963 -0.1190
38390SOL     OW22027  11.342  10.916   1.906 -0.0445  0.1611  0.0584
38390SOL    HW122028  11.271  10.861   1.874  0.0293  0.4517 -0.6041
38390SOL    HW222029  11.415  10.855   1.919  0.4066  0.2478 -1.7851
38391SOL     OW22030   6.770   4.202   0.535 -0.0694  0.5997  0.3437
38391SOL    HW122031   6.692   4.253   0.558  0.1005  1.0821 -0.1151
38391SOL    HW222032   6.736   4.116   0.509 -0.3989  0.6225  0.6936
38392SOL     OW22033   1.098   2.307   3.411  0.2886 -0.1782  0.1176
38392SOL    HW122034   1.152   2.228   3.407 -0.1086 -0.4113 -0.9475
38392SOL    HW222035   1.052   2.309   3.327 -2.3075 -0.6553  1.4427
38393SOL     OW22036   6.479  11.228   6.869  0.3514 -0.2719  0.8420
38393SOL    HW122037   6.476  11.252   6.962 -0.7911  1.9637  0.3165
38393SOL    HW222038   6.562  11.265   6.837  0.1486  0.1004  0.7318
38394SOL     OW22039   0.494   1.476   9.614  0.1059 -0.3501  0.1605
38394SOL    HW122040   0.404   1.503   9.600  0.0084 -1.4579 -1.8338
38394SOL    HW222041   0.546   1.554   9.591 -0.2852  1.0271  3.4247
38395SOL     OW22042   5.453   9.201   5.054  0.0096  0.0977 -0.2081
38395SOL    HW122043   5.412   9.165   5.133  1.5019 -2.9842 -0.6618
38395SOL    HW222044   5.527   9.251   5.086 -0.0815 -0.1501  0.4012
38396SOL     OW22045   0.187   2.434   4.761 -0.0714 -0.3536 -0.3117
38396SOL    HW122046   0.112   2.376   4.771 -0.1232 -0.2689 -0.2139
38396SOL    HW222047   0.260   2.386   4.800 -0.7428  1.0024  2.8871
38397SOL     OW22048   4.741   0.960   9.478  0.8709  0.0593 -0.1237
38397SOL    HW122049   4.683   0.896   9.437  1.7771 -0.3888 -0.7354
38397SOL    HW222050   4.684   1.034   9.498  0.0584 -0.4276 -0.5643
38398SOL     OW22051   8.820   0.511   0.450  0.1522 -0.2792 -0.0820
38398SOL    HW122052   8.867   0.429   0.464  0.2094 -0.1472  0.5435
38398SOL    HW222053   8.859   0.572   0.513  0.4445  0.3684 -0.8709
38399SOL     OW22054  12.321   3.648   4.881  0.0784 -0.5719 -0.1456
38399SOL    HW122055  12.394   3.655   4.819 -0.1522  0.3150 -0.3299
38399SOL    HW222056  12.243   3.660   4.827 -0.0959  1.2914  0.4397
38400SOL     OW22057   6.461  10.993   2.401  0.4044  0.2089  0.0196
38400SOL    HW122058   6.553  10.977   2.380  0.4178 -1.3606  1.1096
38400SOL    HW222059   6.436  10.920   2.458 -1.3781  0.8810  0.1684
38401SOL     OW22060  11.101   2.043   1.635  0.5175  0.4448 -0.4087
38401SOL    HW122061  11.009   2.040   1.609  0.5341 -0.8229 -0.3939
38401SOL    HW222062  11.136   2.121   1.593 -0.7175  1.3128  0.1239
38402SOL     OW22063   3.449   0.433   8.658 -0.3839  0.3944  0.5472
38402SOL    HW122064   3.376   0.495   8.657 -0.5892  0.1764 -1.1897
38402SOL    HW222065   3.467   0.419   8.751 -1.5772  1.5824  0.9952
38403SOL     OW22066   2.411   1.100   3.206 -0.3459 -0.4418 -0.4330
38403SOL    HW122067   2.460   1.039   3.262 -0.8416 -1.9096 -1.5343
38403SOL    HW222068   2.361   1.154   3.268  0.0293 -1.2145  0.5789
38404SOL     OW22069   9.887   5.313   6.209 -0.1641  0.2554 -0.3222
38404SOL    HW122070   9.871   5.373   6.282 -0.0896 -0.4113  0.2555
38404SOL    HW222071   9.954   5.253   6.241 -0.2410 -0.1406 -0.8817
38405SOL     OW22072   3.560   5.632   1.873  0.1043 -0.5478 -0.0749
38405SOL    HW122073   3.641   5.580   1.882  0.3624  0.0089  0.9885
38405SOL    HW222074   3.538   5.657   1.963  0.1602  1.4523 -0.5851
38406SOL     OW22075  12.303  10.247   0.653  0.0782  0.3591 -0.3835
38406SOL    HW122076  12.371  10.295   0.607 -0.4854  0.4642 -1.1265
38406SOL    HW222077  12.221  10.283   0.620 -0.3483 -0.4782 -0.2767
38407SOL     OW22078  12.554   3.485   5.196 -0.0175  0.4617 -0.3821
38407SOL    HW122079  12.520   3.463   5.282  0.2007 -0.8111 -0.6107
38407SOL    HW222080  12.644   3.453   5.197 -0.6016 -1.3490 -1.7482
38408SOL     OW22081   3.309  12.408  10.615 -0.6353  0.1043 -0.3702
38408SOL    HW122082   3.241  12.468  10.642 -0.6167 -0.4815  1.0579
38408SOL    HW222083   3.282  12.377  10.529 -1.3638  1.0522 -0.4867
38409SOL     OW22084   6.531   9.884   9.974  0.8247  0.1113  0.1761
38409SOL    HW122085   6.625   9.878   9.956  0.5274  1.7137 -2.5610
38409SOL    HW222086   6.524   9.947  10.046  1.8608  0.0613  0.3296
38410SOL     OW22087   1.757   2.459   8.030  0.1046 -0.0293  0.3187
38410SOL    HW122088   1.782   2.369   8.011  0.7122  0.2191 -0.0611
38410SOL    HW222089   1.716   2.490   7.949  1.1609  0.4830 -0.0244
38411SOL     OW22090   9.047   8.729   4.961  0.2548 -0.5153  0.4369
38411SOL    HW122091   8.956   8.752   4.979  0.2419 -0.4372  0.2753
38411SOL    HW222092   9.043   8.644   4.918  0.3688 -1.3701  2.0289
38412SOL     OW22093  11.724   9.206   9.922 -0.9749  0.0541  0.6975
38412SOL    HW122094  11.748   9.272   9.858  0.1926 -1.6350 -0.7101
38412SOL    HW222095  11.667   9.145   9.875 -1.0078 -0.6271  1.5745
38413SOL     OW22096   0.398   9.268  10.419  0.5406  0.3885 -0.1998
38413SOL    HW122097   0.486   9.271  10.455  0.3801  1.9568  0.1343
38413SOL    HW222098   0.411   9.244  10.327  1.3261  0.6631 -0.1683
38414SOL     OW22099   4.469   2.522  11.552 -0.0799 -0.0315  0.4567
38414SOL    HW122100   4.473   2.613  11.581  1.1218  0.3218 -0.7387
38414SOL    HW222101   4.560   2.493  11.554 -0.2834 -0.7649 -0.5280
38415SOL     OW22102   9.084   3.272   2.265  0.5718 -0.2089  1.0212
38415SOL    HW122103   9.015   3.337   2.256  0.6793 -0.1166  0.8579
38415SOL    HW222104   9.163   3.323   2.284  0.7447 -0.2567  0.4467
38416SOL     OW22105  12.536   5.201  10.016  0.2083 -0.1202 -0.4065
38416SOL    HW122106  12.445   5.200   9.987  0.3684 -1.2354 -0.9212
38416SOL    HW222107  12.584   5.162   9.944  0.9557 -0.6019  0.3374
38417SOL     OW22108   7.076   3.099   6.398 -0.4136  0.2979 -0.0680
38417SOL    HW122109   7.111   3.187   6.411  1.0914 -0.0448 -1.4620
38417SOL    HW222110   7.103   3.051   6.476 -0.4032  0.8181  0.2551
38418SOL     OW22111   4.725   7.153   7.306 -0.0867 -0.5207  0.1821
38418SOL    HW122112   4.818   7.132   7.299 -0.2025 -0.8268 -0.5386
38418SOL    HW222113   4.685   7.108   7.231 -0.9027 -0.9308  0.8480
38419SOL     OW22114   5.204   8.769   1.196 -0.1525  0.5572 -0.3493
38419SOL    HW122115   5.239   8.810   1.275 -0.8217  1.2787 -0.4192
38419SOL    HW222116   5.131   8.825   1.170 -2.2208 -1.5447  0.5158
38420SOL     OW22117   5.348   9.375   3.109 -0.5350 -0.0229  0.0290
38420SOL    HW122118   5.273   9.322   3.084 -0.9615  1.0243 -0.9865
38420SOL    HW222119   5.404   9.376   3.032  1.0209 -1.5660  1.0794
38421SOL     OW22120   4.025   6.658   0.325 -0.0319  0.0381 -0.1507
38421SOL    HW122121   4.106   6.683   0.370 -0.2967 -0.3767  0.5662
38421SOL    HW222122   3.957   6.709   0.369 -0.1346  0.6069 -0.9433
38422SOL     OW22123   0.434   5.418   4.249  0.8365 -0.6651 -0.2714
38422SOL    HW122124   0.513   5.374   4.218  0.2334 -0.7145 -1.8166
38422SOL    HW222125   0.372   5.411   4.176  0.2497  1.5198 -0.0692
38423SOL     OW22126   1.485  11.472   1.838  0.3639  0.5751  0.1369
38423SOL    HW122127   1.499  11.500   1.747 -0.4123  0.4580 -0.0182
38423SOL    HW222128   1.565  11.500   1.883  0.1089  2.0393 -0.2501
38424SOL     OW22129   8.793  10.716   6.533  0.2038  0.0108 -0.6742
38424SOL    HW122130   8.726  10.715   6.464  0.8276  1.0998 -1.3215
38424SOL    HW222131   8.768  10.645   6.591 -1.7016  0.5816 -0.7246
38425SOL     OW22132   8.787   4.172   5.121 -0.1482  0.5369  0.8909
38425SOL    HW122133   8.873   4.136   5.102 -1.1986 -2.9950  2.1037
38425SOL    HW222134   8.736   4.157   5.041 -0.3796 -0.0114  1.1356
38426SOL     OW22135   9.813   1.674   3.417 -0.1975 -0.2180 -0.4944
38426SOL    HW122136   9.720   1.663   3.398 -0.0047 -0.7147 -1.1760
38426SOL    HW222137   9.840   1.591   3.458 -0.2705  0.2893  0.6195
38427SOL     OW22138   3.717   9.087   6.509 -0.4393 -0.3540 -0.2177
38427SOL    HW122139   3.636   9.136   6.497 -0.6813 -0.4456  0.9096
38427SOL    HW222140   3.689   8.999   6.535  0.0160 -0.3710  0.2358
38428SOL     OW22141   8.137   9.948   6.387 -0.5001 -0.0763  0.2510
38428SOL    HW122142   8.192   9.989   6.453  0.5080 -0.0232 -0.5886
38428SOL    HW222143   8.052   9.990   6.397 -0.1878  0.3787  1.0836
38429SOL     OW22144   8.838   1.689  10.792 -0.2039 -0.1971  0.1579
38429SOL    HW122145   8.771   1.657  10.732 -1.1061  1.6898  0.0925
38429SOL    HW222146   8.921   1.662  10.753 -0.8643 -2.1387 -0.0188
38430SOL     OW22147   8.805   0.831  11.997  0.0853  0.3351 -0.5312
38430SOL    HW122148   8.875   0.766  11.999 -0.2943 -0.3271 -3.4202
38430SOL    HW222149   8.817   0.883  12.076  2.1424 -1.4731  0.4306
38431SOL     OW22150   4.959   2.803   7.782 -0.0757  0.0061 -0.5475
38431SOL    HW122151   4.920   2.869   7.839 -0.9936 -0.4357 -0.6336
38431SOL    HW222152   4.909   2.809   7.700 -1.1664 -1.7036 -0.0846
38432SOL     OW22153   7.992  11.364  10.408 -0.1206 -0.2652 -0.3554
38432SOL    HW122154   7.963  11.431  10.347 -0.8028 -0.0540  0.1897
38432SOL    HW222155   7.998  11.409  10.493 -0.8795 -0.9553  0.0733
38433SOL     OW22156   8.779   0.700  10.786 -0.2299  0.4683 -0.0291
38433SOL    HW122157   8.700   0.748  10.810 -0.4705  0.0381  0.0529
38433SOL    HW222158   8.845   0.768  10.771 -0.2342  0.7781  1.2406
38434SOL     OW22159  11.795   4.487   4.153 -0.2496 -0.3021 -0.1917
38434SOL    HW122160  11.890   4.482   4.145 -0.3353 -1.0077 -0.9200
38434SOL    HW222161  11.774   4.426   4.224 -0.1698 -0.3213 -0.1843
38435SOL     OW22162   3.262   4.640   8.681 -0.1792  0.4232 -0.4232
38435SOL    HW122163   3.299   4.571   8.735  1.6450  0.9063 -1.0031
38435SOL    HW222164   3.217   4.594   8.610 -1.6165 -0.1866  0.8431
38436SOL     OW22165   1.353   9.413   4.705  0.1928  0.2402  0.1670
38436SOL    HW122166   1.319   9.503   4.709 -0.6957 -0.0094 -1.0927
38436SOL    HW222167   1.337   9.377   4.791 -0.6503  0.8758  0.2871
38437SOL     OW22168   9.039   6.179  10.802  0.3151  0.6048  0.1782
38437SOL    HW122169   9.086   6.245  10.750 -0.4060  1.1972  0.2594
38437SOL    HW222170   8.947   6.189  10.775 -0.1102  1.0761  1.7149
38438SOL     OW22171  10.609   5.852   4.637 -0.3387  0.3094  0.1090
38438SOL    HW122172  10.568   5.927   4.593 -0.6863  0.0162 -0.0663
38438SOL    HW222173  10.542   5.784   4.636 -0.6897  0.5688  1.8648
38439SOL     OW22174   1.322   4.935   7.483 -0.2828 -0.2455  0.5584
38439SOL    HW122175   1.316   5.031   7.490 -1.0717 -0.1296 -1.3237
38439SOL    HW222176   1.365   4.920   7.399  1.3658 -1.5586  1.5816
38440SOL     OW22177   1.596   5.559   6.426  0.1218 -0.2796  0.1082
38440SOL    HW122178   1.646   5.526   6.500  1.5283 -1.4137 -1.2775
38440SOL    HW222179   1.512   5.587   6.464 -0.1878 -3.0807  1.7965
38441SOL     OW22180   7.601  10.452   1.009  0.3725 -0.0201 -0.4050
38441SOL    HW122181   7.610  10.543   1.036 -0.1472 -0.4451  1.2768
38441SOL    HW222182   7.513  10.446   0.973  1.0222  0.5148 -2.2217
38442SOL     OW22183   5.371   7.727   6.691  0.4729  0.2752 -0.7274
38442SOL    HW122184   5.360   7.816   6.657  1.4956  1.1875  1.2037
38442SOL    HW222185   5.465   7.718   6.706  0.1822 -0.4755  0.8009
38443SOL     OW22186   0.341   4.689   8.352 -0.1159 -0.0604 -0.0213
38443SOL    HW122187   0.260   4.642   8.333 -0.0990  0.6669 -2.2205
38443SOL    HW222188   0.319   4.749   8.422 -1.6178  0.4172 -0.8707
38444SOL     OW22189   0.743  10.418   4.527  0.2490  0.0253  0.1320
38444SOL    HW122190   0.790  10.347   4.571  3.5102  1.0129 -1.3759
38444SOL    HW222191   0.783  10.498   4.563 -0.6144  0.9643 -0.9195
38445SOL     OW22192   0.073   9.552   4.333  0.2747 -0.4607 -0.3499
38445SOL    HW122193   0.070   9.536   4.239  0.4940 -2.0761 -0.1140
38445SOL    HW222194  -0.019   9.559   4.359  0.2212  1.2118 -0.8263
38446SOL     OW22195   2.975  10.647   5.393  0.0421  0.0867 -0.1642
38446SOL    HW122196   2.908  10.715   5.403 -0.7426 -0.5281 -1.0091
38446SOL    HW222197   2.927  10.565   5.408  1.2283 -0.2538  2.1119
38447SOL     OW22198   9.680   1.425   0.249 -0.2302 -0.7682 -0.3307
38447SOL    HW122199   9.740   1.495   0.276 -0.3575 -0.9384  0.3881
38447SOL    HW222200   9.669   1.440   0.155  1.3880 -1.0770 -0.6079
38448SOL     OW22201   7.029   7.431   1.983 -0.0153  0.0769 -0.2015
38448SOL    HW122202   7.027   7.526   1.974 -2.2042  0.0857 -0.1269
38448SOL    HW222203   7.008   7.399   1.895  0.5799 -0.3315 -0.1940
38449SOL     OW22204   0.364   9.833   1.805  0.2474 -0.1719  0.5503
38449SOL    HW122205   0.304   9.775   1.758  0.3966 -0.1741  0.3627
38449SOL    HW222206   0.311   9.871   1.875 -0.1217  0.2571  0.0481
38450SOL     OW22207   5.163   9.068  10.706 -0.6539  0.6449 -0.1106
38450SOL    HW122208   5.212   9.151  10.698  0.4209 -0.0014 -0.4809
38450SOL    HW222209   5.211   9.018  10.772  0.5754 -0.9154 -2.0783
38451SOL     OW22210   6.244   0.761   5.120 -0.4215  0.3733 -0.2455
38451SOL    HW122211   6.191   0.794   5.193 -0.6888  0.2453 -0.3798
38451SOL    HW222212   6.333   0.763   5.153 -0.7252 -1.6987  0.8624
38452SOL     OW22213   8.674  11.544   2.883 -0.5178 -1.2805 -0.5904
38452SOL    HW122214   8.743  11.515   2.823  0.1599  1.5551 -1.2918
38452SOL    HW222215   8.592  11.524   2.837 -0.0228  0.2650 -2.2366
38453SOL     OW22216   6.062  10.563   7.123  0.6071  0.9210  0.3281
38453SOL    HW122217   6.143  10.549   7.074  0.6308 -0.0758  0.6312
38453SOL    HW222218   5.993  10.528   7.067  0.4135  1.5175  0.1896
38454SOL     OW22219   3.367   8.760   2.555 -0.0123 -0.4073 -0.1978
38454SOL    HW122220   3.391   8.820   2.484 -2.2761  1.2709  0.3439
38454SOL    HW222221   3.275   8.740   2.539 -0.4326 -0.3779  1.9637
38455SOL     OW22222   4.877   4.963   3.644 -0.2305  0.1716  0.1399
38455SOL    HW122223   4.880   5.044   3.593  1.1806 -0.5703 -1.0200
38455SOL    HW222224   4.968   4.937   3.654 -0.6923 -2.0550 -0.8243
38456SOL     OW22225  10.309   1.555   9.421 -0.1444 -0.0114 -0.3434
38456SOL    HW122226  10.363   1.615   9.472 -0.4935 -0.1168  0.1548
38456SOL    HW222227  10.324   1.470   9.461  0.1927 -0.2259 -0.9214
38457SOL     OW22228   2.427   9.608   9.538  0.2649  0.0317  0.3691
38457SOL    HW122229   2.351   9.665   9.542  0.6952  0.5293  1.9183
38457SOL    HW222230   2.477   9.641   9.463 -0.1376  0.8481  0.4488
38458SOL     OW22231   1.453   8.650   2.074  0.1848  0.8270 -0.3094
38458SOL    HW122232   1.527   8.590   2.087 -0.1411  0.7001  1.2208
38458SOL    HW222233   1.390   8.600   2.022  1.8796  1.5770 -3.2748
38459SOL     OW22234   5.191   8.997   9.333  0.0429  0.0666  0.4091
38459SOL    HW122235   5.287   8.997   9.338  0.0725  2.8169  1.7543
38459SOL    HW222236   5.166   8.907   9.356  2.2648 -0.8103 -0.2914
38460SOL     OW22237   5.129   6.825   0.941 -0.6431 -0.4311  0.2032
38460SOL    HW122238   5.061   6.886   0.913 -1.3669 -0.9476  0.7818
38460SOL    HW222239   5.150   6.851   1.030  0.3465  0.0787 -0.1591
38461SOL     OW22240   4.378   4.357   7.472  0.8091 -0.3307  0.0805
38461SOL    HW122241   4.317   4.398   7.411  0.2539 -0.0830  0.7916
38461SOL    HW222242   4.419   4.431   7.517  0.7336 -0.5246  0.4725
38462SOL     OW22243  12.202   0.156   9.595 -0.0533 -0.2760 -0.1171
38462SOL    HW122244  12.179   0.214   9.668  1.0761 -0.5418  0.4638
38462SOL    HW222245  12.237   0.077   9.636  1.1038 -0.2146 -0.9356
38463SOL     OW22246  11.519   1.858   2.099  0.2525 -0.3099  0.1928
38463SOL    HW122247  11.527   1.846   2.005  1.9058 -0.4038  0.3263
38463SOL    HW222248  11.530   1.952   2.113  1.2041 -0.4452  0.3901
38464SOL     OW22249  11.610   3.969   4.614 -0.0016  0.4708 -0.3763
38464SOL    HW122250  11.649   3.899   4.562  0.4146  0.2310  0.2429
38464SOL    HW222251  11.559   3.923   4.681 -2.0870  0.7642 -1.6594
38465SOL     OW22252   0.382  12.083   1.457  0.0564  0.3051  0.1734
38465SOL    HW122253   0.336  12.088   1.374 -0.3467 -0.9958  0.2872
38465SOL    HW222254   0.438  12.006   1.448 -0.1490  0.0218  1.1689
38466SOL     OW22255   1.810   0.203   7.367 -0.1772 -0.3316 -0.1992
38466SOL    HW122256   1.764   0.249   7.297  0.9136  0.7646 -0.2361
38466SOL    HW222257   1.779   0.245   7.447  0.0010 -0.2789 -0.1570
38467SOL     OW22258   9.449   4.826   8.074 -0.5818 -0.0464  0.0366
38467SOL    HW122259   9.507   4.850   8.002  0.7180  0.3036  1.1724
38467SOL    HW222260   9.403   4.748   8.042  0.6889 -0.4850 -0.7882
38468SOL     OW22261   9.346   2.215   0.756 -0.1410 -0.2906 -0.4529
38468SOL    HW122262   9.286   2.186   0.688  0.3498  0.5032 -1.2320
38468SOL    HW222263   9.327   2.308   0.768 -0.4284 -0.4733  0.7187
38469SOL     OW22264   7.672  11.935   5.433  0.2458 -0.1583 -0.1668
38469SOL    HW122265   7.708  11.982   5.358  0.4966 -1.2294 -0.7333
38469SOL    HW222266   7.587  11.902   5.402  0.9789 -1.8530 -0.5123
38470SOL     OW22267   5.278   8.577   5.567  0.2981  1.0784 -0.3029
38470SOL    HW122268   5.261   8.633   5.491  1.2352 -0.8170 -1.9937
38470SOL    HW222269   5.212   8.508   5.561  0.9830  0.3845  0.0539
38471SOL     OW22270   8.022   8.468   6.485  0.1978  0.1432  0.5048
38471SOL    HW122271   7.946   8.519   6.459 -1.3043 -2.3955 -0.3951
38471SOL    HW222272   8.056   8.432   6.404  2.0815  0.7517  0.9628
38472SOL     OW22273   7.071  12.572   2.596  0.0598  0.5722 -0.0944
38472SOL    HW122274   7.003  12.616   2.648 -2.6778 -0.8006 -2.2397
38472SOL    HW222275   7.048  12.479   2.601  3.1164 -0.2329  0.7816
38473SOL     OW22276   3.727   1.175  10.814 -0.2373 -0.0901  0.2619
38473SOL    HW122277   3.763   1.110  10.875  0.9648  2.0137  1.9607
38473SOL    HW222278   3.643   1.199  10.852  0.1200  0.5868  0.6516
38474SOL     OW22279   2.628   1.110   0.009  0.0620  0.1162 -0.4442
38474SOL    HW122280   2.682   1.182   0.043  1.1236 -0.3385 -1.0930
38474SOL    HW222281   2.563   1.153  -0.047 -0.9155  0.7625  1.1303
38475SOL     OW22282   3.649  11.116  10.482  0.0059 -0.3256  0.0358
38475SOL    HW122283   3.559  11.102  10.510 -0.3340  0.3098 -0.6949
38475SOL    HW222284   3.641  11.164  10.399  1.0124  0.1868  0.2171
38476SOL     OW22285   3.353   5.423   1.963 -0.5432 -0.0108  0.1189
38476SOL    HW122286   3.374   5.457   2.050  1.9850 -1.8034  0.3106
38476SOL    HW222287   3.291   5.487   1.927 -0.3917  1.6690  2.5653
38477SOL     OW22288   4.787   2.876   4.286 -0.0382 -0.1705 -0.3422
38477SOL    HW122289   4.799   2.848   4.376  2.4972  3.2904  0.6067
38477SOL    HW222290   4.872   2.858   4.244  0.0973  1.6152 -0.9190
38478SOL     OW22291   2.704   5.674   2.186  0.4199  0.1361 -0.0178
38478SOL    HW122292   2.614   5.685   2.217  0.4368 -3.0998  1.7255
38478SOL    HW222293   2.756   5.670   2.266  1.8458  0.2350 -0.9124
38479SOL     OW22294   8.132   1.228   6.204  0.1365 -0.0930  0.1747
38479SOL    HW122295   8.206   1.276   6.242 -0.5270  0.3327  0.9549
38479SOL    HW222296   8.111   1.160   6.269 -0.7343  0.3712  0.3972
38480SOL     OW22297   6.150   5.958   1.271  0.1372  0.0430  0.5097
38480SOL    HW122298   6.096   5.903   1.214  2.9486 -1.4940 -0.9076
38480SOL    HW222299   6.209   6.003   1.211  0.7782  1.2585  1.9993
38481SOL     OW22300   8.694   2.099   9.800 -0.3621  0.4877  0.6034
38481SOL    HW122301   8.669   2.186   9.834  0.5167  0.6993  0.7329
38481SOL    HW222302   8.784   2.087   9.831 -0.3803 -0.3500  0.3354
38482SOL     OW22303   2.076   1.628   7.523  0.6535  0.4017  0.4377
38482SOL    HW122304   2.110   1.543   7.497 -0.6995  0.6416 -2.4398
38482SOL    HW222305   2.131   1.692   7.477 -0.2842  0.9433  0.0294
38483SOL     OW22306   4.416   3.385   8.162  0.1282  0.1393  0.0309
38483SOL    HW122307   4.503   3.350   8.141  0.3571  1.0660 -0.6475
38483SOL    HW222308   4.374   3.315   8.211  0.8238 -0.8131 -0.6661
38484SOL     OW22309  11.223   7.974   9.240  0.1953  0.2265  0.1822
38484SOL    HW122310  11.193   7.955   9.151  1.4322  0.0247 -0.2062
38484SOL    HW222311  11.168   8.047   9.269 -0.6484 -0.1316 -0.5027
38485SOL     OW22312   7.604   5.800   4.093 -0.1268  0.4730  0.3414
38485SOL    HW122313   7.578   5.804   4.001 -0.7305  1.3536  0.5411
38485SOL    HW222314   7.558   5.873   4.134 -0.1114 -0.1106  1.4133
38486SOL     OW22315   1.998   8.481   9.392 -0.0313  0.0120  0.4687
38486SOL    HW122316   2.083   8.495   9.352  0.1649 -0.6413  0.6470
38486SOL    HW222317   1.936   8.527   9.334  0.4262  0.4103  0.2940
38487SOL     OW22318  10.969   8.979   8.422 -0.1110  0.3301  0.2466
38487SOL    HW122319  11.024   9.019   8.489  1.3897 -0.2337 -0.6178
38487SOL    HW222320  10.980   9.034   8.345 -1.7690  0.9299  0.3826
38488SOL     OW22321  12.402   4.674   2.123 -0.0502  0.3070 -0.4484
38488SOL    HW122322  12.374   4.586   2.098 -2.4527  0.9408 -0.2733
38488SOL    HW222323  12.395   4.726   2.043 -1.7045  0.9741  0.0814
38489SOL     OW22324   0.760   5.803   9.818  0.1454  0.0961  0.9626
38489SOL    HW122325   0.732   5.716   9.789  1.2172 -0.4073  1.3863
38489SOL    HW222326   0.696   5.862   9.780 -0.4118 -0.8476  0.3811
38490SOL     OW22327   5.983   9.394   0.392  0.0399 -0.2431 -0.0559
38490SOL    HW122328   5.976   9.431   0.304  0.7408 -0.4937 -0.2175
38490SOL    HW222329   5.908   9.432   0.439  0.3868  0.8966 -0.3905
38491SOL     OW22330   3.908   2.033   1.793 -0.4672  0.1572 -0.3558
38491SOL    HW122331   3.851   2.085   1.850  0.1032  0.4451 -0.0387
38491SOL    HW222332   3.903   1.944   1.830  0.3845  0.4636  0.5356
38492SOL     OW22333   8.722   5.817   7.078 -0.1198  0.0266  0.0741
38492SOL    HW122334   8.683   5.903   7.065  0.3365  0.3323  0.6792
38492SOL    HW222335   8.816   5.833   7.084  0.0975 -0.6755 -1.1472
38493SOL     OW22336  11.070  11.503  12.352 -0.3814 -0.0670 -0.1359
38493SOL    HW122337  11.050  11.553  12.431  0.1088  0.2854 -0.2280
38493SOL    HW222338  10.996  11.520  12.294 -0.7438 -0.3271  0.2434
38494SOL     OW22339   7.652   7.879   4.414 -0.1908  0.5739  0.9488
38494SOL    HW122340   7.580   7.915   4.465 -0.8248  0.6322  0.0295
38494SOL    HW222341   7.617   7.797   4.378  0.5008  0.1506  1.2206
38495SOL     OW22342   0.707   0.895  11.620  0.1359  0.6127 -0.1022
38495SOL    HW122343   0.645   0.956  11.658 -1.0744 -0.9929  0.6404
38495SOL    HW222344   0.680   0.887  11.529  0.9412  1.9149 -0.4802
38496SOL     OW22345  11.094   7.374  12.280  0.0558 -0.3214 -0.1552
38496SOL    HW122346  11.150   7.297  12.293 -1.5323 -1.4241  0.4214
38496SOL    HW222347  11.098   7.420  12.364  0.6664  0.0016 -0.3574
38497SOL     OW22348   6.028   0.622   3.668 -0.4734 -0.3858  0.1763
38497SOL    HW122349   5.974   0.695   3.697 -1.1220 -0.5746 -0.5286
38497SOL    HW222350   6.027   0.628   3.572 -1.5701 -2.0265  0.0397
38498SOL     OW22351   6.313   0.766   1.019 -0.1430 -0.3778  0.0217
38498SOL    HW122352   6.269   0.844   1.054 -0.3908  0.1193 -1.3205
38498SOL    HW222353   6.406   0.783   1.034 -0.3000 -0.7152  1.4643
38499SOL     OW22354   8.370  11.574   2.149  0.0943  0.7703 -0.1450
38499SOL    HW122355   8.445  11.634   2.157  0.8428  0.0663 -1.5455
38499SOL    HW222356   8.378  11.538   2.061 -2.4284  1.3362 -0.6632
38500SOL     OW22357   8.132   8.699   5.762 -0.7003  0.0589  0.0704
38500SOL    HW122358   8.076   8.709   5.686 -0.7365 -0.5069  0.0133
38500SOL    HW222359   8.122   8.781   5.811 -0.0196  0.7724 -0.9572
38501SOL     OW22360   9.425   1.008   8.660  0.3970 -0.6536  0.3050
38501SOL    HW122361   9.441   1.101   8.680  2.5403 -0.8887 -0.1027
38501SOL    HW222362   9.428   1.004   8.564  1.8733 -1.3430  0.3503
38502SOL     OW22363   0.292   6.742   2.894  0.1989  0.0602 -0.1888
38502SOL    HW122364   0.260   6.751   2.804 -0.3010 -0.1518 -0.0360
38502SOL    HW222365   0.385   6.766   2.889 -0.7631  5.0473  0.0355
38503SOL     OW22366   4.115   9.314   7.367 -0.1348  0.2894 -0.1703
38503SOL    HW122367   4.072   9.276   7.444 -1.5831 -2.6722 -2.2343
38503SOL    HW222368   4.073   9.399   7.355 -1.2009 -0.0064  1.2593
38504SOL     OW22369   2.933   3.671   8.992 -0.6814 -0.4277 -0.6279
38504SOL    HW122370   2.887   3.592   9.021 -1.4761  0.6331  1.1805
38504SOL    HW222371   2.864   3.727   8.956 -0.2270 -0.2443 -1.2457
38505SOL     OW22372   9.333   3.898   1.993 -0.3893 -0.1959 -0.4140
38505SOL    HW122373   9.307   3.897   2.085  0.8976 -0.0815 -0.0269
38505SOL    HW222374   9.376   3.983   1.981  1.8302 -1.2330 -0.3882
38506SOL     OW22375  11.035  11.673   3.326  0.1046 -0.5430  0.0952
38506SOL    HW122376  11.128  11.672   3.345  0.0310 -2.1143  0.5272
38506SOL    HW222377  11.019  11.592   3.277 -1.0031 -0.2324 -0.1000
38507SOL     OW22378   1.387   6.067   1.094 -0.0550 -1.0594  0.2614
38507SOL    HW122379   1.331   6.126   1.043 -2.0926 -1.1764  2.2427
38507SOL    HW222380   1.431   6.014   1.027  0.2204  1.2242 -1.4958
38508SOL     OW22381  11.620   9.797   0.343 -0.5526  0.5503  0.3238
38508SOL    HW122382  11.572   9.721   0.375 -1.1596  1.3706  1.4270
38508SOL    HW222383  11.698   9.801   0.398  0.6455 -0.5453 -1.2011
38509SOL     OW22384   9.041   0.827   3.659 -0.5792  0.0761 -0.1319
38509SOL    HW122385   9.068   0.882   3.733  0.9413  0.4957 -0.9593
38509SOL    HW222386   9.117   0.826   3.601 -1.4259 -0.9867 -1.2694
38510SOL     OW22387   1.977   2.399   2.568 -0.1821  0.4210  0.3367
38510SOL    HW122388   2.049   2.343   2.598  0.6617  1.8391  1.0889
38510SOL    HW222389   1.964   2.375   2.476 -0.1777 -1.3166  0.7745
38511SOL     OW22390   1.768   0.805  10.097  0.6276  0.3027  0.2504
38511SOL    HW122391   1.685   0.783  10.138  1.0955  0.7440  1.4958
38511SOL    HW222392   1.746   0.872  10.033  0.0656  0.7129  0.8605
38512SOL     OW22393   7.646   1.344  10.367 -0.5419  0.3675 -0.2911
38512SOL    HW122394   7.706   1.278  10.332  0.3053  0.5873  0.6862
38512SOL    HW222395   7.695   1.426  10.358  0.3027  0.2852  2.5730
38513SOL     OW22396   5.327   0.162   6.375 -0.1233  0.2439 -0.4155
38513SOL    HW122397   5.251   0.220   6.378  0.8632  1.6722 -1.6507
38513SOL    HW222398   5.365   0.168   6.462  0.2572  1.9242 -0.6621
38514SOL     OW22399   3.292   0.422   8.214  0.0311  0.0860  0.3742
38514SOL    HW122400   3.251   0.336   8.209 -0.6037  0.3814  0.4535
38514SOL    HW222401   3.321   0.440   8.125 -0.3500  0.0402  0.2389
38515SOL     OW22402  11.297   0.747   2.903 -0.0620 -0.2399 -0.2444
38515SOL    HW122403  11.284   0.739   2.997 -0.8755  2.2785 -0.0830
38515SOL    HW222404  11.215   0.717   2.864 -0.1746 -0.1172 -0.0992
38516SOL     OW22405   0.213   4.999  10.801  0.1416  0.3090  0.4216
38516SOL    HW122406   0.134   5.051  10.816 -0.0713  0.3019 -0.6281
38516SOL    HW222407   0.182   4.908  10.804  0.0317  0.3155 -0.3778
38517SOL     OW22408   8.797   4.826   6.803 -0.1657  0.1990 -0.5140
38517SOL    HW122409   8.809   4.741   6.760 -0.0932  0.2298 -0.5557
38517SOL    HW222410   8.745   4.877   6.741 -0.8856 -0.0760 -0.1505
38518SOL     OW22411   0.955   6.961  10.505 -0.0715 -0.1363  0.4520
38518SOL    HW122412   1.044   6.996  10.496 -0.1758 -0.0735 -0.4915
38518SOL    HW222413   0.905   7.033  10.543  0.3610 -0.3082  1.3639
38519SOL     OW22414  11.079   8.389   7.242 -0.4282  0.0989 -0.1165
38519SOL    HW122415  11.145   8.450   7.276 -2.6720  0.9779  3.1276
38519SOL    HW222416  11.020   8.444   7.190  0.9200 -0.5757 -2.4962
38520SOL     OW22417   1.471   7.146   8.027  0.1411  0.7550  0.5258
38520SOL    HW122418   1.553   7.098   8.038 -0.7201 -0.7557  0.6974
38520SOL    HW222419   1.419   7.091   7.968 -0.4731  2.0496 -0.1705
38521SOL     OW22420   9.948   9.866   0.568 -0.1244 -0.7974 -0.3117
38521SOL    HW122421   9.925   9.837   0.657  1.1763  0.8621  0.6475
38521SOL    HW222422   9.995   9.792   0.530  0.6133 -1.0359  0.9722
38522SOL     OW22423   2.814   4.108   4.647 -0.2272  0.5952  1.0302
38522SOL    HW122424   2.813   4.203   4.656  0.0815  0.7338 -0.2260
38522SOL    HW222425   2.845   4.076   4.732 -1.6305  1.5250  1.9349
38523SOL     OW22426   5.525   4.461   9.903 -0.4389  0.0136  0.2306
38523SOL    HW122427   5.523   4.392   9.836  0.7007 -1.0351  1.2166
38523SOL    HW222428   5.559   4.417   9.981 -0.9660  1.3988  1.2757
38524SOL     OW22429   4.445   0.590   0.224 -0.0096 -0.0100  0.2195
38524SOL    HW122430   4.532   0.583   0.264  0.8073  0.2383 -1.4298
38524SOL    HW222431   4.404   0.663   0.270 -0.6289 -2.0254  3.1887
38525SOL     OW22432   8.254   4.230   0.614  0.3226  0.2337 -0.6761
38525SOL    HW122433   8.314   4.158   0.596  1.8482  1.3502 -0.2335
38525SOL    HW222434   8.217   4.252   0.528 -1.2326 -1.8983 -0.6432
38526SOL     OW22435   3.360   4.428   3.868 -0.2761  0.1147  0.3190
38526SOL    HW122436   3.376   4.358   3.932  1.2776  0.7623  0.6910
38526SOL    HW222437   3.288   4.479   3.906  0.3606  0.2585  1.3709
38527SOL     OW22438   2.622   1.878   6.465  0.2090 -0.2310  0.0390
38527SOL    HW122439   2.649   1.928   6.542  2.0913  2.0468 -1.9319
38527SOL    HW222440   2.704   1.844   6.429 -0.5110 -0.5131 -1.4138
38528SOL     OW22441   6.966   3.287   8.088  0.3707  0.2373 -0.1928
38528SOL    HW122442   7.039   3.301   8.149 -0.8026 -0.8491  1.5522
38528SOL    HW222443   6.908   3.226   8.134 -0.6685 -0.4993 -2.3570
38529SOL     OW22444   4.224   3.894   4.873  0.4214 -0.3711  0.4662
38529SOL    HW122445   4.213   3.833   4.946 -1.3497 -0.0415  0.5198
38529SOL    HW222446   4.223   3.838   4.795  1.5963 -0.6531  0.6390
38530SOL     OW22447   4.123   1.465   8.464  0.0537 -0.2228  0.4946
38530SOL    HW122448   4.144   1.377   8.433  2.5538  0.4655  0.0400
38530SOL    HW222449   4.058   1.497   8.402 -0.2636 -1.4190  0.1704
38531SOL     OW22450   3.379  11.624   6.623  0.2581  0.1256  0.1152
38531SOL    HW122451   3.285  11.634   6.640 -0.2317 -3.2973  0.1777
38531SOL    HW222452   3.420  11.692   6.676 -2.1723  2.0781 -0.3365
38532SOL     OW22453   4.584   4.681  11.406 -0.0395  0.1473 -0.1890
38532SOL    HW122454   4.677   4.669  11.392 -0.3555 -0.5440 -1.8992
38532SOL    HW222455   4.561   4.758  11.355 -0.6139 -0.4305 -0.8365
38533SOL     OW22456   6.282  10.050   8.774 -0.2387  0.0789 -0.1632
38533SOL    HW122457   6.266  10.133   8.729 -0.8425  0.3499  0.5529
38533SOL    HW222458   6.313  10.075   8.861  2.2948 -0.4217 -0.8120
38534SOL     OW22459   4.359   0.414   0.607 -0.8884 -0.7696 -0.5441
38534SOL    HW122460   4.417   0.339   0.615  1.3131  0.9199  0.2643
38534SOL    HW222461   4.284   0.393   0.662  0.2479 -1.8695  0.6282
38535SOL     OW22462   2.465   6.536  12.328  0.6295  0.3791  0.0065
38535SOL    HW122463   2.547   6.488  12.334 -0.1979 -1.0887  0.1637
38535SOL    HW222464   2.449   6.546  12.234 -0.7061 -2.4841 -0.1598
38536SOL     OW22465   7.810   4.442  10.048  0.3763 -0.4481  0.4939
38536SOL    HW122466   7.799   4.448   9.953 -1.0758  0.7995  0.7099
38536SOL    HW222467   7.739   4.494  10.084  1.0361 -0.7129  2.2825
38537SOL     OW22468   4.482   7.685   1.370  0.0103  0.4074  0.1665
38537SOL    HW122469   4.442   7.762   1.330 -2.4081 -1.5096 -1.3863
38537SOL    HW222470   4.457   7.690   1.462  0.1304  1.5654  0.1544
38538SOL     OW22471   4.243   6.096   5.089  0.4904 -0.2326  0.0827
38538SOL    HW122472   4.219   6.008   5.061  2.0553 -1.0832  1.2142
38538SOL    HW222473   4.339   6.092   5.100  0.6098  1.6346  0.0551
38539SOL     OW22474   9.257   1.876  11.975  0.2282 -0.0302  0.1466
38539SOL    HW122475   9.210   1.793  11.973  0.8600 -0.4081  0.4802
38539SOL    HW222476   9.279   1.888  12.067  1.5671 -0.3351 -0.1056
38540SOL     OW22477   1.175   2.972  10.447 -0.4702  0.3642  0.3157
38540SOL    HW122478   1.223   2.986  10.529 -0.0538 -1.3182  0.4136
38540SOL    HW222479   1.243   2.953  10.382 -0.8642  0.4460 -0.1281
38541SOL     OW22480   3.497   1.769   8.999  0.5392 -0.4398 -0.0547
38541SOL    HW122481   3.441   1.748   9.073 -0.3599 -0.9128 -0.8335
38541SOL    HW222482   3.542   1.687   8.978 -0.9435 -0.9599 -1.4246
38542SOL     OW22483   3.329   7.857  12.114 -0.2944  0.1779 -0.0393
38542SOL    HW122484   3.352   7.793  12.046 -0.3202  0.4940 -0.3491
38542SOL    HW222485   3.411   7.874  12.160  0.1103  1.2621 -1.1073
38543SOL     OW22486   7.352   4.531   9.422  0.1830 -0.1791  0.7827
38543SOL    HW122487   7.285   4.581   9.468 -0.1084  0.7750 -0.6350
38543SOL    HW222488   7.422   4.593   9.405  0.8146 -0.8183  0.9717
38544SOL     OW22489   8.919   0.386   3.276  0.1596 -0.2267  0.0995
38544SOL    HW122490   8.932   0.350   3.189 -1.2418 -1.5851  0.4261
38544SOL    HW222491   8.982   0.339   3.331 -1.6619 -2.3194  0.5257
38545SOL     OW22492   3.831   3.130  11.624  0.3699 -0.1471  0.5464
38545SOL    HW122493   3.861   3.161  11.709  1.1655  0.6864 -0.0228
38545SOL    HW222494   3.901   3.073  11.593  0.9716  1.0576 -0.3739
38546SOL     OW22495   1.405   4.445  10.797 -0.1087  0.0912  0.0943
38546SOL    HW122496   1.392   4.443  10.892 -1.0967  1.1016 -0.0068
38546SOL    HW222497   1.499   4.431  10.786  0.3741  1.9544  1.3454
38547SOL     OW22498   7.059   3.174  12.483  0.4979 -0.0973  0.7967
38547SOL    HW122499   6.971   3.194  12.515 -0.8439 -1.4760 -1.6629
38547SOL    HW222500   7.060   3.207  12.393  3.0549  1.1415  1.1842
38548SOL     OW22501   5.424  10.983   8.972 -0.1050  0.4015 -0.0117
38548SOL    HW122502   5.369  11.060   8.986 -0.6427 -0.2197  1.5057
38548SOL    HW222503   5.438  10.981   8.877 -2.3399  0.8499 -0.4122
38549SOL     OW22504   2.134   8.536   5.183  0.6559  0.1941  0.2737
38549SOL    HW122505   2.123   8.581   5.099  0.2356 -1.0193 -0.3403
38549SOL    HW222506   2.226   8.512   5.186  0.8735  1.0274  0.5846
38550SOL     OW22507   3.573   4.003  12.506  0.2792  0.2982  0.2932
38550SOL    HW122508   3.582   3.908  12.507  0.5121  0.3165 -0.0221
38550SOL    HW222509   3.627   4.033  12.579 -0.9148  0.1031  1.2980
38551SOL     OW22510  10.965   1.980   7.211  0.0825  0.2835 -0.0860
38551SOL    HW122511  10.918   1.906   7.172 -0.3702  1.3158 -1.6085
38551SOL    HW222512  10.983   1.953   7.301 -0.3344 -1.5439 -0.5139
38552SOL     OW22513   4.480   4.050   1.794  0.0884 -0.2248  0.2435
38552SOL    HW122514   4.406   4.003   1.831 -2.3430  0.8374 -2.8009
38552SOL    HW222515   4.466   4.141   1.820  0.8162 -0.1294  0.3303
38553SOL     OW22516   5.664   2.271  11.235  0.1365  0.2496  0.0314
38553SOL    HW122517   5.642   2.208  11.166 -1.1372  0.4557  0.2259
38553SOL    HW222518   5.585   2.324  11.245  0.8031  1.1432  0.6663
38554SOL     OW22519  12.463   4.470   6.348  0.6039  0.1703 -0.1332
38554SOL    HW122520  12.551   4.442   6.374  0.3819  0.4483  0.9829
38554SOL    HW222521  12.444   4.418   6.270  1.0479 -1.2419  0.6512
38555SOL     OW22522   1.183  10.629   9.665 -0.1605  0.4412  0.2001
38555SOL    HW122523   1.142  10.715   9.654  0.8918  0.8791 -0.5244
38555SOL    HW222524   1.145  10.576   9.596  0.0458  0.6767 -0.0994
38556SOL     OW22525  10.223   9.113  10.695  0.4132  0.0043 -0.4185
38556SOL    HW122526  10.206   9.195  10.650  1.1611  0.4563  0.0762
38556SOL    HW222527  10.318   9.102  10.689  0.4336 -0.3216  0.3555
38557SOL     OW22528   2.210   0.866   3.556  0.1790 -0.1596 -0.1025
38557SOL    HW122529   2.228   0.885   3.464  0.7914 -0.9949 -0.1658
38557SOL    HW222530   2.296   0.865   3.598  0.1349 -2.1458  0.0049
38558SOL     OW22531   0.042  10.779   1.039  0.1336 -0.5653  0.1825
38558SOL    HW122532  -0.038  10.831   1.044 -0.3641 -1.2393 -0.5856
38558SOL    HW222533   0.106  10.828   1.091 -0.6216  0.2566  0.3521
38559SOL     OW22534   9.961   3.137   4.412  0.2596  0.9210  0.6094
38559SOL    HW122535  10.031   3.073   4.399 -0.4355  0.5717 -1.9056
38559SOL    HW222536   9.887   3.087   4.444  0.2882  0.7838  0.4612
38560SOL     OW22537   6.649   4.619   6.957 -0.0504  0.2080 -0.7257
38560SOL    HW122538   6.713   4.560   6.917  0.0502 -1.5730  1.8306
38560SOL    HW222539   6.586   4.561   7.000 -0.0591  1.8985  1.7600
38561SOL     OW22540   3.765   0.063   5.345 -0.2068 -0.1138  0.3048
38561SOL    HW122541   3.779   0.098   5.433 -0.4170  1.5896 -0.2967
38561SOL    HW222542   3.682   0.102   5.316 -0.4089 -1.0564 -0.4677
38562SOL     OW22543   9.279   1.754   8.878 -0.0399 -0.3433 -0.2615
38562SOL    HW122544   9.231   1.707   8.810 -0.3008 -0.6918  0.1573
38562SOL    HW222545   9.347   1.802   8.831 -0.8474  0.2205 -0.8763
38563SOL     OW22546   0.233   7.268   1.476  0.3576 -0.0536  0.4262
38563SOL    HW122547   0.255   7.346   1.425 -1.8954  0.7403  0.5495
38563SOL    HW222548   0.263   7.288   1.565  0.0094  0.5711  0.4042
38564SOL     OW22549  10.296   2.775   2.575  0.1040  0.3989  0.2156
38564SOL    HW122550  10.244   2.740   2.502 -0.2385  0.2714  0.5171
38564SOL    HW222551  10.237   2.837   2.618  1.0420  2.1836 -0.9511
38565SOL     OW22552   2.464   7.355   2.311 -0.5347  0.5714  0.4310
38565SOL    HW122553   2.402   7.393   2.374  0.5468  0.1932  1.7782
38565SOL    HW222554   2.475   7.422   2.244 -2.0231  0.8303  0.4135
38566SOL     OW22555   3.446   5.876   7.435 -0.7690  0.2914  0.6388
38566SOL    HW122556   3.445   5.781   7.446 -0.8589  0.3983  1.7332
38566SOL    HW222557   3.539   5.900   7.437 -0.7954  0.4040  2.4426
38567SOL     OW22558   4.830   1.391   1.154 -0.7016  0.0504  0.0149
38567SOL    HW122559   4.738   1.372   1.134 -0.7036  1.2970 -1.3218
38567SOL    HW222560   4.877   1.314   1.123 -1.2060 -0.1522 -0.2663
38568SOL     OW22561   5.308   8.366   5.233  0.2831 -0.1005  0.3298
38568SOL    HW122562   5.379   8.302   5.240 -0.7650 -1.4185 -0.5846
38568SOL    HW222563   5.249   8.329   5.167  0.2019  2.3859 -1.0816
38569SOL     OW22564  10.694   4.222   6.278 -0.5955  0.5297  0.0160
38569SOL    HW122565  10.705   4.129   6.257 -0.4135  0.4790  0.3288
38569SOL    HW222566  10.762   4.240   6.342  0.2202  1.2081 -1.0213
38570SOL     OW22567  10.745   2.903   3.023  0.2206 -0.2068 -0.1161
38570SOL    HW122568  10.683   2.833   3.039  0.2530  0.1632  1.9167
38570SOL    HW222569  10.692   2.983   3.023  0.4371 -0.0612 -0.3419
38571SOL     OW22570   7.628   7.042   2.430 -0.3234  0.1105 -0.0897
38571SOL    HW122571   7.602   6.966   2.481 -1.8602  1.2680  0.9857
38571SOL    HW222572   7.545   7.079   2.398  0.4275  0.9249 -1.1959
38572SOL     OW22573   8.322   6.639   8.277 -0.0681 -0.5055 -0.2300
38572SOL    HW122574   8.375   6.706   8.321 -0.1791  0.7200 -1.8833
38572SOL    HW222575   8.295   6.580   8.348 -0.9498  1.8235  1.5193
38573SOL     OW22576   2.441   0.841  10.402  0.3051 -0.6254  0.2956
38573SOL    HW122577   2.374   0.774  10.388 -0.3485 -0.1317  1.0012
38573SOL    HW222578   2.451   0.846  10.497  0.3383  0.2638  0.2587
38574SOL     OW22579   2.523   0.559   9.407 -0.5721 -0.2649 -0.0431
38574SOL    HW122580   2.554   0.648   9.425  1.8550 -1.4312  2.3268
38574SOL    HW222581   2.429   0.563   9.426 -0.3449  1.5957  1.0178
38575SOL     OW22582   6.022  11.525   1.318  0.1945  0.5225 -0.3077
38575SOL    HW122583   6.054  11.599   1.266 -1.4045  1.1449 -0.4805
38575SOL    HW222584   5.971  11.473   1.256  1.5887 -0.9762 -0.2760
38576SOL     OW22585  10.159  10.833   1.905 -0.0789 -0.0446  0.3115
38576SOL    HW122586  10.221  10.780   1.956 -2.1876 -2.9218  0.1591
38576SOL    HW222587  10.132  10.902   1.966  2.1338  0.4393  0.8440
38577SOL     OW22588   2.478  11.795   2.305 -0.5384 -0.1222 -0.7004
38577SOL    HW122589   2.483  11.840   2.221  0.7050  0.8457 -0.1378
38577SOL    HW222590   2.567  11.763   2.320 -0.5375  0.4754  0.6482
38578SOL     OW22591   1.702   8.018   0.886 -0.1097 -0.0328  0.2187
38578SOL    HW122592   1.683   8.109   0.862  0.0787 -0.0082  0.1546
38578SOL    HW222593   1.788   8.001   0.847 -0.6312 -0.5920 -0.7183
38579SOL     OW22594   6.502  10.641   8.199  0.7404  1.1109 -0.3046
38579SOL    HW122595   6.420  10.653   8.151 -0.7775  3.0278  2.5214
38579SOL    HW222596   6.564  10.699   8.155  0.4966  0.1121 -2.0904
38580SOL     OW22597  10.438   7.623   4.053  0.1995  0.0996 -0.1192
38580SOL    HW122598  10.405   7.697   4.002  0.2885  1.9278  2.2778
38580SOL    HW222599  10.367   7.603   4.114  1.5420  0.7528  1.7496
38581SOL     OW22600   9.301   4.646   7.918 -0.0274 -0.2659  0.0622
38581SOL    HW122601   9.372   4.604   7.869  0.2794  1.5822 -1.2046
38581SOL    HW222602   9.224   4.593   7.898  0.8937 -2.1718  1.2680
38582SOL     OW22603  11.678  11.525   2.797 -0.1431 -0.0291 -0.4330
38582SOL    HW122604  11.610  11.459   2.787  0.9212 -1.0360 -1.2374
38582SOL    HW222605  11.758  11.476   2.814  0.5342  1.0964 -0.2138
38583SOL     OW22606   7.199   6.055   2.059 -0.4413  0.2936 -0.0020
38583SOL    HW122607   7.270   6.080   2.118 -1.6242  2.7066  0.4943
38583SOL    HW222608   7.126   6.035   2.117 -0.5687 -0.9674 -0.5614
38584SOL     OW22609   3.567   6.611   7.040 -0.2302 -0.4206  0.5923
38584SOL    HW122610   3.565   6.587   6.947 -0.8858 -2.4693  1.0857
38584SOL    HW222611   3.476   6.634   7.060 -0.1391 -0.2420  0.8027
38585SOL     OW22612   2.320   4.947   3.679 -0.5663  0.0606  0.2135
38585SOL    HW122613   2.269   5.028   3.674  0.4963  0.6843 -1.5082
38585SOL    HW222614   2.270   4.885   3.625 -0.9876 -0.2281  0.9185
38586SOL     OW22615   8.888   7.483   2.390  0.5207 -0.4380 -0.0689
38586SOL    HW122616   8.939   7.477   2.471 -0.6602  1.1727  0.8464
38586SOL    HW222617   8.953   7.496   2.321  1.6702 -3.2604  0.3515
38587SOL     OW22618   8.034   2.108   5.878 -0.3098 -0.0322  0.3727
38587SOL    HW122619   8.088   2.151   5.945 -0.9444  1.6392 -0.1524
38587SOL    HW222620   7.961   2.070   5.927  0.7425 -1.4091  0.9560
38588SOL     OW22621   4.931   8.085   3.288  0.4341  0.4999  0.2504
38588SOL    HW122622   4.947   8.179   3.301 -2.6769  1.0385  1.0951
38588SOL    HW222623   4.972   8.043   3.364  0.2610  1.4095  0.8595
38589SOL     OW22624   7.327   5.157   5.299 -0.5601  0.3808 -0.0739
38589SOL    HW122625   7.281   5.152   5.215  1.2134 -0.1639 -1.0687
38589SOL    HW222626   7.381   5.078   5.302  0.5239  1.1191  0.9046
38590SOL     OW22627   5.598  10.402   0.033  0.1943 -0.2663 -0.9068
38590SOL    HW122628   5.651  10.359  -0.034  0.6221  1.4129 -1.7167
38590SOL    HW222629   5.654  10.403   0.111  0.7518  0.1057 -1.3031
38591SOL     OW22630   2.108   5.863   0.893 -0.2040  0.3978  0.6027
38591SOL    HW122631   2.167   5.889   0.823  0.0335  1.5357  1.2080
38591SOL    HW222632   2.166   5.846   0.968 -0.4316 -1.0168  0.4860
38592SOL     OW22633  12.319   4.913   0.819 -0.0407  0.0018  0.4761
38592SOL    HW122634  12.322   4.870   0.905 -0.6532  0.9422  0.9849
38592SOL    HW222635  12.236   4.959   0.818 -0.5574 -0.9121 -1.1060
38593SOL     OW22636  10.057   4.008  12.015 -0.3440  0.0787  0.0529
38593SOL    HW122637  10.095   3.935  11.966 -1.2846 -1.4197  1.4546
38593SOL    HW222638  10.128   4.073  12.020  0.8413 -1.1243 -0.4528
38594SOL     OW22639   9.038   1.992   8.398  0.3887  0.1684 -0.6240
38594SOL    HW122640   8.974   1.966   8.332  0.7302 -0.0675 -0.8646
38594SOL    HW222641   9.063   1.910   8.441  0.4580  0.2705 -0.4680
38595SOL     OW22642   1.224   4.523   2.544 -0.0169  0.2027  0.0661
38595SOL    HW122643   1.147   4.565   2.582 -0.0452  1.0700 -0.8962
38595SOL    HW222644   1.255   4.585   2.478  0.8583 -0.6233 -0.3278
38596SOL     OW22645   4.367   7.617   5.325  0.3652 -0.2766 -0.4642
38596SOL    HW122646   4.455   7.599   5.356  0.9064  1.6996 -0.6908
38596SOL    HW222647   4.327   7.668   5.396 -0.1571 -0.1025 -0.8794
38597SOL     OW22648   5.663  10.788   2.695  0.1383  0.5689  0.3774
38597SOL    HW122649   5.692  10.871   2.656 -3.6025  1.0975 -1.6825
38597SOL    HW222650   5.653  10.809   2.788  0.3655  2.1032  0.0886
38598SOL     OW22651  11.063   3.160   7.847  0.4984 -0.0639 -0.0867
38598SOL    HW122652  11.126   3.096   7.814  0.7502 -0.3871  0.9875
38598SOL    HW222653  11.052   3.137   7.939 -0.4852  0.5686 -0.0345
38599SOL     OW22654  10.609   7.604   8.734 -0.0402  0.4820 -0.7069
38599SOL    HW122655  10.700   7.576   8.723 -0.3061 -1.0217  0.5717
38599SOL    HW222656  10.609   7.659   8.812 -0.4002 -0.5520  0.0445
38600SOL     OW22657   5.133   4.429  12.366  0.0240 -0.1142 -0.1952
38600SOL    HW122658   5.097   4.507  12.406 -0.7230 -0.3557 -0.3856
38600SOL    HW222659   5.149   4.369  12.440 -0.2674 -0.1258 -0.1409
38601SOL     OW22660  10.853   5.178   3.675 -0.6799 -0.3333  0.0102
38601SOL    HW122661  10.880   5.087   3.689 -0.8711 -0.3265  0.4462
38601SOL    HW222662  10.927   5.230   3.707 -1.1337 -0.3170  1.0683
38602SOL     OW22663   7.370   8.384   6.480 -0.3796  0.2473 -0.1302
38602SOL    HW122664   7.287   8.367   6.524 -0.2156  1.4479  0.7099
38602SOL    HW222665   7.348   8.393   6.388 -0.4261 -4.8580 -0.9002
38603SOL     OW22666   6.886   3.853   0.753  0.1213  0.7798  0.3280
38603SOL    HW122667   6.899   3.784   0.687 -0.0170  0.2169  0.8732
38603SOL    HW222668   6.868   3.805   0.834 -1.3257  1.4674  0.4425
38604SOL     OW22669   7.033   0.607   4.666 -0.3191 -0.0305 -0.5985
38604SOL    HW122670   7.035   0.682   4.608  0.4217  0.3555 -0.0884
38604SOL    HW222671   6.961   0.552   4.633  0.8998 -0.4709 -2.6675
38605SOL     OW22672  11.738   8.781   6.074  0.2910  0.2842 -0.1997
38605SOL    HW122673  11.658   8.763   6.123  0.1612 -0.6332 -0.7288
38605SOL    HW222674  11.732   8.874   6.052 -2.4422 -0.4407 -3.3266
38606SOL     OW22675  10.081   8.853   4.804 -0.0741  0.1891  0.5540
38606SOL    HW122676  10.135   8.782   4.767  0.6809  0.5487  0.9413
38606SOL    HW222677  10.029   8.884   4.730 -0.5276 -0.8709  0.4128
38607SOL     OW22678   9.572  10.070   7.591 -0.6930  0.4566 -0.3582
38607SOL    HW122679   9.574  10.011   7.666  1.8782  3.8372  2.6107
38607SOL    HW222680   9.499  10.129   7.609  1.0748  2.4743  0.7476
38608SOL     OW22681   0.305   1.785  10.095  0.6492 -0.3556 -0.0344
38608SOL    HW122682   0.298   1.805  10.188 -1.6074  0.7426 -0.3867
38608SOL    HW222683   0.305   1.871  10.052 -1.7901 -0.8613 -1.1949
38609SOL     OW22684   6.161   4.533   8.814  0.5067  0.0156  0.7166
38609SOL    HW122685   6.069   4.545   8.792  0.5543 -0.4723  0.2160
38609SOL    HW222686   6.161   4.463   8.880  0.5041  0.1408  0.8487
38610SOL     OW22687   8.275  12.342  11.900  0.5357 -0.1630  0.1425
38610SOL    HW122688   8.367  12.315  11.900  0.4961 -0.2996 -0.0800
38610SOL    HW222689   8.278  12.437  11.894  0.6603 -0.1839 -0.1924
38611SOL     OW22690   4.966   3.101   7.354 -0.0070 -0.5484 -0.7070
38611SOL    HW122691   5.016   3.040   7.299  1.5481 -0.9214  1.0277
38611SOL    HW222692   5.009   3.097   7.439 -1.6312  0.8817  0.2346
38612SOL     OW22693   5.539   5.131   3.932 -0.1981  0.3410  0.7967
38612SOL    HW122694   5.580   5.208   3.891  0.0785 -0.7458 -1.1216
38612SOL    HW222695   5.451   5.128   3.894 -0.8169  0.6312  2.1532
38613SOL     OW22696   3.840   5.332  10.730  0.4315  0.3338 -0.1549
38613SOL    HW122697   3.925   5.323  10.685  0.9028  2.2398  0.2845
38613SOL    HW222698   3.778   5.352  10.660  0.0714 -2.1755 -0.6359
38614SOL     OW22699   5.091   0.506   1.275  0.1377  0.4174  0.4785
38614SOL    HW122700   5.046   0.587   1.301  0.4546  1.1081 -1.0000
38614SOL    HW222701   5.142   0.482   1.352 -1.2786  0.6676  1.5259
38615SOL     OW22702   8.538   2.954   8.446 -0.6758  0.1465  0.2362
38615SOL    HW122703   8.501   2.878   8.401  0.0179  0.7077 -1.3753
38615SOL    HW222704   8.623   2.967   8.403 -0.4589  1.3779  1.0016
38616SOL     OW22705   1.642   1.428   7.664 -0.3652  0.3330  0.8562
38616SOL    HW122706   1.711   1.425   7.598 -2.4517  1.3210 -1.5592
38616SOL    HW222707   1.617   1.337   7.677 -1.7715  0.2412 -1.9325
38617SOL     OW22708   5.348  11.564   8.666  0.7997  0.2281  0.3180
38617SOL    HW122709   5.304  11.528   8.590  2.5345 -1.9209  0.2421
38617SOL    HW222710   5.293  11.537   8.740  0.4794  0.0651  0.0253
38618SOL     OW22711   2.262   5.958   0.138 -0.1621 -0.1646 -0.0967
38618SOL    HW122712   2.319   5.885   0.114 -1.5524 -1.5490  0.6590
38618SOL    HW222713   2.318   6.036   0.129  1.5407 -1.3611 -0.3240
38619SOL     OW22714   0.773   4.471  10.033 -0.4590 -0.5767 -0.1202
38619SOL    HW122715   0.689   4.438  10.003 -1.0398  0.0034  0.7923
38619SOL    HW222716   0.788   4.551   9.981 -0.2240 -0.9420 -0.6240
38620SOL     OW22717   4.475   1.105   5.362 -0.2732  0.4002  0.3440
38620SOL    HW122718   4.481   1.015   5.392 -0.5870  0.4740  0.6316
38620SOL    HW222719   4.564   1.140   5.374  0.0566 -0.1007 -0.5294
38621SOL     OW22720   7.194  11.050   5.228  0.5409  0.2719 -0.1474
38621SOL    HW122721   7.188  11.146   5.234  1.6028  0.5777 -2.4834
38621SOL    HW222722   7.226  11.035   5.139 -0.9779 -2.3374 -0.3349
38622SOL     OW22723  12.554   4.542   2.627 -0.2697  0.2230 -0.1746
38622SOL    HW122724  12.627   4.538   2.689 -0.5483  0.4087  0.1691
38622SOL    HW222725  12.540   4.635   2.614 -0.4661  0.1873 -0.2151
38623SOL     OW22726   8.745   8.106  12.406 -1.0734 -0.0305 -0.0456
38623SOL    HW122727   8.659   8.068  12.390 -0.5747 -0.3192 -2.5047
38623SOL    HW222728   8.804   8.059  12.347  0.7337  0.3656  1.3420
38624SOL     OW22729   7.982   8.348   5.322  0.2335 -0.3050 -0.0255
38624SOL    HW122730   7.906   8.384   5.276 -0.1785 -1.7293 -0.4982
38624SOL    HW222731   8.022   8.288   5.259  2.8896  1.7693 -0.5206
38625SOL     OW22732   0.013   1.806  10.195  0.5089 -0.2860 -0.1984
38625SOL    HW122733   0.088   1.810  10.255 -0.3812  1.7638  0.9028
38625SOL    HW222734   0.040   1.856  10.119 -0.0609  1.4691  0.6888
38626SOL     OW22735   8.827  12.523   1.891  0.3886 -0.5983 -0.0507
38626SOL    HW122736   8.818  12.523   1.796 -0.6203 -0.9969  0.0410
38626SOL    HW222737   8.908  12.573   1.907  0.4926 -0.4102 -1.0985
38627SOL     OW22738  11.223   7.218   1.916 -0.0137 -0.3947  0.2874
38627SOL    HW122739  11.309   7.244   1.882 -0.3951  0.1788 -0.2441
38627SOL    HW222740  11.184   7.299   1.949 -0.7469 -0.4747 -0.3566
38628SOL     OW22741   6.718   9.835  10.977 -0.0363  0.2552 -0.0796
38628SOL    HW122742   6.639   9.882  10.949 -0.3162 -0.1217  0.0640
38628SOL    HW222743   6.725   9.854  11.070 -1.7515 -2.2071  0.6467
38629SOL     OW22744   3.882   7.719  12.074  0.6265  0.2650 -0.1258
38629SOL    HW122745   3.967   7.680  12.057  0.6792 -0.2386  1.1952
38629SOL    HW222746   3.853   7.680  12.156  0.8935  3.3062  1.5748
38630SOL     OW22747   6.468   1.746   5.613  0.1279 -0.2925  0.1449
38630SOL    HW122748   6.379   1.776   5.598  0.1728  0.3335  1.0465
38630SOL    HW222749   6.523   1.817   5.580  0.3310 -1.0825 -1.2865
38631SOL     OW22750   4.678   4.735   3.489 -0.4157  0.0507  0.2565
38631SOL    HW122751   4.707   4.664   3.546 -0.3368 -0.7956 -0.8150
38631SOL    HW222752   4.739   4.807   3.507 -0.0058 -0.4185  0.7751
38632SOL     OW22753   5.152   0.682   9.028 -0.2546 -0.1171 -0.2370
38632SOL    HW122754   5.193   0.767   9.044 -1.1248  0.5150 -1.2107
38632SOL    HW222755   5.109   0.660   9.111  1.9902 -0.8132  0.8169
38633SOL     OW22756   7.281   5.730   5.612  0.1907  0.4944  0.0752
38633SOL    HW122757   7.302   5.816   5.575 -1.8879  0.3348 -1.6622
38633SOL    HW222758   7.211   5.696   5.556  1.2589 -2.5715  0.3863
38634SOL     OW22759   0.585  11.518  10.040  0.0531  0.0390  0.1022
38634SOL    HW122760   0.554  11.442   9.990  0.7291 -0.3022  0.1966
38634SOL    HW222761   0.680  11.514  10.034  0.0891  1.4527 -0.7276
38635SOL     OW22762   8.535  10.905   6.609  0.3381  0.3708  0.5510
38635SOL    HW122763   8.592  10.958   6.553 -0.6362  1.8364  0.8983
38635SOL    HW222764   8.475  10.968   6.649 -0.6702 -0.9709  1.2292
38636SOL     OW22765   5.157  11.145   5.205 -0.3700 -0.2870 -0.2038
38636SOL    HW122766   5.077  11.186   5.238 -0.1599 -0.5477  0.6622
38636SOL    HW222767   5.189  11.093   5.279  2.0239  1.8854  0.4390
38637SOL     OW22768   4.927   9.073   7.993 -0.0463 -0.2469  0.3715
38637SOL    HW122769   4.858   9.021   8.033 -2.2491  1.3568 -1.1635
38637SOL    HW222770   4.896   9.163   7.997  1.1829  0.3562 -1.7707
38638SOL     OW22771   1.630   3.811   6.189  0.3970 -0.7918  0.4327
38638SOL    HW122772   1.692   3.882   6.206  1.5962 -1.4702 -0.9044
38638SOL    HW222773   1.544   3.853   6.192  1.0787  0.7520 -0.4871
38639SOL     OW22774  10.744  11.253   4.221 -0.4798  0.0150 -0.6627
38639SOL    HW122775  10.695  11.308   4.161 -0.6522  0.4373 -0.1380
38639SOL    HW222776  10.822  11.226   4.171 -1.8779 -1.8377 -2.0234
38640SOL     OW22777   2.122   6.084   1.494  0.2129  0.8194 -0.5703
38640SOL    HW122778   2.185   6.156   1.497 -0.0841  1.0432  1.4421
38640SOL    HW222779   2.093   6.082   1.403  0.8681  2.6758 -0.8679
38641SOL     OW22780  11.090  11.141  10.729  0.2672  0.2656  0.1284
38641SOL    HW122781  11.185  11.139  10.719  0.4196 -2.0310  1.3405
38641SOL    HW222782  11.073  11.089  10.808 -1.8871  2.2383  1.0932
38642SOL     OW22783   1.285   2.230   6.085 -0.5183  0.3558 -0.1407
38642SOL    HW122784   1.265   2.136   6.082  0.1340  0.1554  0.9081
38642SOL    HW222785   1.210   2.269   6.130 -0.7253  0.3122 -0.4495
38643SOL     OW22786   2.414   7.408   4.006 -0.0452  0.0997  0.1759
38643SOL    HW122787   2.431   7.361   3.925  0.3264 -0.2467  0.4507
38643SOL    HW222788   2.357   7.350   4.056  3.3648 -1.8906  2.1368
38644SOL     OW22789  11.173   2.492   8.632  0.3357 -0.1687  0.1286
38644SOL    HW122790  11.080   2.478   8.617  0.4397 -0.0513 -0.6922
38644SOL    HW222791  11.216   2.418   8.588  0.6342 -0.2294  0.5103
38645SOL     OW22792   2.026  12.488   1.194 -0.3520 -0.6548  0.5487
38645SOL    HW122793   1.957  12.439   1.239  0.0262 -0.6554  1.1412
38645SOL    HW222794   2.004  12.580   1.211 -0.0046 -0.6621  1.0521
38646SOL     OW22795   0.039   9.930   4.405  0.5369  0.5415  0.1839
38646SOL    HW122796  -0.020   9.861   4.434 -0.6024  1.2687 -0.3236
38646SOL    HW222797   0.112   9.927   4.466  0.4364 -1.0103  0.2486
38647SOL     OW22798   8.631   7.900   8.493  0.2954 -0.2910  0.5475
38647SOL    HW122799   8.621   7.806   8.478  0.0151 -0.1986  0.1304
38647SOL    HW222800   8.554   7.939   8.450  0.8940  0.1997 -0.1056
38648SOL     OW22801   4.848   4.309   4.176  0.0613  0.3432  0.8644
38648SOL    HW122802   4.821   4.234   4.124 -0.9347  0.7556  0.7718
38648SOL    HW222803   4.883   4.271   4.257  0.2367 -0.2430  0.5122
38649SOL     OW22804   7.408  12.321  11.982  0.2263 -0.2087  0.1436
38649SOL    HW122805   7.480  12.336  11.921  0.3548 -1.8885 -0.1841
38649SOL    HW222806   7.395  12.226  11.981  0.2286 -0.3280  2.7177
38650SOL     OW22807   0.346   3.799   0.756  0.3017 -0.5617 -0.4639
38650SOL    HW122808   0.305   3.750   0.828 -1.5469 -0.6199 -1.4933
38650SOL    HW222809   0.394   3.870   0.799 -0.8517 -0.5268  0.8174
38651SOL     OW22810   4.079  11.340   5.090 -0.3587 -0.0713  0.4588
38651SOL    HW122811   3.987  11.353   5.113 -0.8559 -1.0296 -0.8272
38651SOL    HW222812   4.076  11.278   5.017  1.3848 -1.4379  1.4531
38652SOL     OW22813   8.401   7.602   7.349 -0.1817 -0.1199 -0.2586
38652SOL    HW122814   8.335   7.621   7.282 -0.3301  1.7546  0.3410
38652SOL    HW222815   8.471   7.665   7.331  0.5968 -0.8142  0.2682
38653SOL     OW22816   6.954   6.884   6.126  0.2439 -0.5027 -0.2591
38653SOL    HW122817   6.927   6.809   6.178  2.1900 -1.0107  0.1078
38653SOL    HW222818   7.026   6.923   6.176  0.3707  0.6203 -1.2645
38654SOL     OW22819   9.082   7.136   9.649  0.1803  0.6834 -0.0943
38654SOL    HW122820   9.039   7.205   9.599 -0.3723 -0.1040 -0.7269
38654SOL    HW222821   9.016   7.067   9.658  1.3605 -0.6894 -1.3574
38655SOL     OW22822   5.036   6.502   5.843 -0.5959 -0.5373  0.0170
38655SOL    HW122823   5.062   6.586   5.803  0.2480  0.0673  1.7250
38655SOL    HW222824   4.947   6.518   5.875 -1.0527 -0.8376 -1.0600
38656SOL     OW22825   9.815   0.600  10.787 -0.3517 -0.0875 -0.0482
38656SOL    HW122826   9.895   0.644  10.814 -0.7048 -0.4556  1.6964
38656SOL    HW222827   9.840   0.551  10.708  1.2308 -0.4520  0.6391
38657SOL     OW22828   0.648   8.810  12.436  0.1234  0.0961 -0.1124
38657SOL    HW122829   0.602   8.854  12.507  2.4244  1.8224  0.4204
38657SOL    HW222830   0.707   8.749  12.481 -0.2910 -0.7505 -0.6929
38658SOL     OW22831   5.447   1.124   2.445 -0.3352  1.2847 -0.6339
38658SOL    HW122832   5.376   1.139   2.508 -0.2107 -1.1612  0.1918
38658SOL    HW222833   5.527   1.147   2.493 -0.3346  0.6320 -0.3108
38659SOL     OW22834   5.351   6.518   7.378  0.4360 -0.3768 -0.8035
38659SOL    HW122835   5.445   6.506   7.392  0.8561  0.6565 -2.4740
38659SOL    HW222836   5.340   6.510   7.283 -0.2831  4.6121 -1.3706
38660SOL     OW22837  11.028   3.090   5.679  0.1731 -0.3983 -0.5495
38660SOL    HW122838  11.099   3.097   5.743 -0.1607 -0.3806 -0.1798
38660SOL    HW222839  10.952   3.129   5.722 -0.2042 -0.9163 -0.7381
38661SOL     OW22840   3.006   2.622   4.446 -0.1795  0.2959  0.1638
38661SOL    HW122841   3.076   2.686   4.457  0.1875 -0.2519  1.1846
38661SOL    HW222842   2.928   2.666   4.480 -0.4360  1.0437 -1.3188
38662SOL     OW22843   9.005   9.746  12.399  0.0098  0.0663  0.8472
38662SOL    HW122844   9.081   9.696  12.369 -0.5649  0.0472 -0.6931
38662SOL    HW222845   8.965   9.779  12.318 -0.5459  1.6638  1.7393
38663SOL     OW22846   8.648   7.350   9.133 -0.2635 -0.3948  0.2556
38663SOL    HW122847   8.587   7.382   9.199  0.3332  0.0536  0.5982
38663SOL    HW222848   8.710   7.422   9.120 -0.9121 -0.0979 -1.4805
38664SOL     OW22849   7.187   9.955   8.756  0.2215  0.2176 -0.3823
38664SOL    HW122850   7.125   9.889   8.787  0.1147  0.8714  0.8651
38664SOL    HW222851   7.136  10.013   8.700 -0.4011  0.9352  0.8896
38665SOL     OW22852   8.056   0.066   6.391 -0.4259 -0.0377  0.5806
38665SOL    HW122853   8.106   0.097   6.315 -1.4109  0.8766  0.2644
38665SOL    HW222854   8.007  -0.010   6.358  1.1616 -1.3127  1.0554
38666SOL     OW22855  12.400   5.887   9.078  0.2234  0.2780  0.1876
38666SOL    HW122856  12.378   5.916   9.167 -0.5850 -0.1668  0.1404
38666SOL    HW222857  12.493   5.868   9.081  0.1166 -0.1447  1.0598
38667SOL     OW22858   1.413   7.048   2.904 -0.1918  0.1215 -0.2869
38667SOL    HW122859   1.411   7.067   2.998 -1.5368  1.3572 -0.5314
38667SOL    HW222860   1.322   7.030   2.881 -0.0405  0.7888 -1.5181
38668SOL     OW22861   6.805   0.294  11.413 -0.2426 -0.1448  0.2769
38668SOL    HW122862   6.814   0.365  11.476 -1.8233  0.0901  0.2747
38668SOL    HW222863   6.715   0.264  11.423 -0.4020 -0.4033 -1.5690
38669SOL     OW22864  11.602   9.472  10.724  0.3323 -0.1212  0.2311
38669SOL    HW122865  11.603   9.565  10.746  0.6160  0.4851 -2.0596
38669SOL    HW222866  11.515   9.442  10.750 -0.2804  1.1496 -0.2634
38670SOL     OW22867   4.798  12.168   6.947  0.1448 -0.6714 -0.1032
38670SOL    HW122868   4.872  12.176   7.007 -0.5178  2.7318  0.4303
38670SOL    HW222869   4.792  12.074   6.929  1.6778 -1.6146  3.4786
38671SOL     OW22870   5.534   4.011   5.816 -0.2440  0.0780 -0.9448
38671SOL    HW122871   5.532   3.927   5.771 -2.0000 -0.1740 -0.4774
38671SOL    HW222872   5.623   4.018   5.849  0.0026 -1.5042 -1.1837
38672SOL     OW22873   5.411  11.382   1.370 -0.2219  1.1186  0.3476
38672SOL    HW122874   5.415  11.476   1.355 -1.7599  1.2591  0.5718
38672SOL    HW222875   5.456  11.369   1.453 -0.3836  1.7318  0.5408
38673SOL     OW22876   3.836   7.325   7.663 -0.4068  0.4406  0.1758
38673SOL    HW122877   3.766   7.267   7.696 -0.0535  0.0641  0.2720
38673SOL    HW222878   3.879   7.358   7.741  0.1861 -0.1484  0.1043
38674SOL     OW22879   0.675   7.126   6.434 -0.4347  0.0207 -0.0999
38674SOL    HW122880   0.602   7.174   6.397 -1.5748 -1.5259  0.0705
38674SOL    HW222881   0.712   7.076   6.361  1.0920  1.4798 -0.4014
38675SOL     OW22882   8.922  11.944   9.228 -0.0006 -0.5899  0.1200
38675SOL    HW122883   9.003  11.923   9.181 -0.2034  0.5036 -0.7760
38675SOL    HW222884   8.909  12.038   9.212  0.2048 -0.0215  2.8566
38676SOL     OW22885   1.646   1.671   6.255 -0.3006  0.5152 -0.5360
38676SOL    HW122886   1.703   1.655   6.330  0.5193  1.0297 -1.0425
38676SOL    HW222887   1.686   1.743   6.208 -1.2513  0.7446 -1.0329
38677SOL     OW22888  10.567   1.309   5.399 -0.4825  0.3101  0.1462
38677SOL    HW122889  10.569   1.227   5.448  0.1920 -0.0598 -0.4762
38677SOL    HW222890  10.498   1.361   5.441 -0.0254 -0.0466  1.3698
38678SOL     OW22891   0.759   2.572   3.922 -0.6217 -0.1144 -0.1193
38678SOL    HW122892   0.774   2.666   3.908  0.0957  0.0105  1.3571
38678SOL    HW222893   0.823   2.529   3.865  1.3058  0.3595  1.5762
38679SOL     OW22894   3.943   7.451   3.688  0.0002  0.0346 -0.2785
38679SOL    HW122895   4.031   7.415   3.677  0.0782 -0.3546  1.3265
38679SOL    HW222896   3.890   7.378   3.720 -0.3949  0.7523  0.7863
38680SOL     OW22897   7.202   3.933   9.963 -0.0627  0.2424  0.0996
38680SOL    HW122898   7.178   3.929   9.871 -0.3816  0.1179  0.1870
38680SOL    HW222899   7.180   4.022   9.990 -0.7336  0.0390  0.2572
38681SOL     OW22900  12.120   3.245  12.577  0.4972  0.3581  0.2893
38681SOL    HW122901  12.161   3.261  12.663  0.4379 -1.4746  0.6839
38681SOL    HW222902  12.097   3.333  12.546  2.8198  1.3040  0.9846
38682SOL     OW22903   1.347   5.051  12.392  0.2302  0.5206 -0.2408
38682SOL    HW122904   1.376   5.028  12.304 -1.7968  0.9757 -1.0813
38682SOL    HW222905   1.252   5.037  12.391  0.3335 -0.9450  2.3640
38683SOL     OW22906  12.143   0.388   9.737  0.0115 -0.4470 -0.0135
38683SOL    HW122907  12.066   0.392   9.793  0.3715 -2.4533  0.6870
38683SOL    HW222908  12.112   0.419   9.652 -1.0871  0.5454  0.7146
38684SOL     OW22909   8.577  10.345   8.434  0.6266  0.4421 -0.4021
38684SOL    HW122910   8.625  10.368   8.355  1.6302 -0.8552 -0.2178
38684SOL    HW222911   8.561  10.250   8.426 -0.7500  0.5950  0.1696
38685SOL     OW22912   9.636   9.959   7.148 -0.0771 -0.1413 -0.0393
38685SOL    HW122913   9.722   9.993   7.121  0.1019  0.6180  1.4153
38685SOL    HW222914   9.587   9.952   7.066  0.8972  0.7567 -0.7288
38686SOL     OW22915   1.537   6.118   9.241 -0.1530  0.3293 -0.2533
38686SOL    HW122916   1.466   6.068   9.282 -0.1933 -0.0539 -0.7795
38686SOL    HW222917   1.554   6.072   9.158  0.7064  0.4163 -0.1342
38687SOL     OW22918   6.091  11.784   8.707 -0.0425  0.0589  0.1728
38687SOL    HW122919   6.022  11.722   8.729 -1.0763  1.6087  1.5197
38687SOL    HW222920   6.172  11.737   8.724 -0.6798 -1.9036 -1.6981
38688SOL     OW22921   0.665   6.602   2.263  0.0522  0.0881 -0.9607
38688SOL    HW122922   0.583   6.607   2.312  0.5735 -0.7895  0.0351
38688SOL    HW222923   0.729   6.569   2.326  0.7629 -0.9683 -2.1883
38689SOL     OW22924  10.110   5.638   4.977  0.2570  0.4363  0.1706
38689SOL    HW122925  10.120   5.647   5.072 -1.4081  0.4856  0.3611
38689SOL    HW222926  10.167   5.565   4.954 -1.6735 -1.6701  1.7080
38690SOL     OW22927   1.228   0.195   0.878  0.0561  0.5266  0.2572
38690SOL    HW122928   1.207   0.199   0.971 -0.9794 -1.3661  0.1597
38690SOL    HW222929   1.155   0.237   0.834 -1.2356 -1.6430  0.1794
38691SOL     OW22930   2.778   4.357   4.725 -0.4916  0.3172 -0.5646
38691SOL    HW122931   2.714   4.424   4.751 -0.0742 -0.1705  1.9897
38691SOL    HW222932   2.861   4.390   4.760  0.2381 -0.2480 -1.7059
38692SOL     OW22933  11.518  11.321   8.775  0.0801  0.4830  0.0151
38692SOL    HW122934  11.450  11.277   8.724  0.2618  0.5508 -0.2895
38692SOL    HW222935  11.473  11.395   8.817 -0.1153  0.3028  0.1258
38693SOL     OW22936  10.381   3.756   3.568 -0.2550 -0.0582  0.3436
38693SOL    HW122937  10.453   3.785   3.624 -0.1020 -0.8572  0.5727
38693SOL    HW222938  10.348   3.836   3.528 -1.2090  0.7508  2.5787
38694SOL     OW22939  10.299   1.764  11.109  0.4114 -0.5881  0.0983
38694SOL    HW122940  10.218   1.713  11.108  0.6404 -0.9544 -0.4369
38694SOL    HW222941  10.286   1.829  11.179  0.3433 -1.7435  1.1853
38695SOL     OW22942  11.087   4.622   8.083 -0.4293  0.4884 -0.1046
38695SOL    HW122943  11.090   4.686   8.154 -2.4307 -0.0111  0.4627
38695SOL    HW222944  11.147   4.658   8.017 -0.0840  1.9856  0.9766
38696SOL     OW22945   0.278   5.906   3.482  0.1060  0.0039  0.5167
38696SOL    HW122946   0.291   5.888   3.576 -0.3428 -0.0605  0.5682
38696SOL    HW222947   0.224   5.984   3.480 -0.5078 -0.4196  0.3186
38697SOL     OW22948  10.159   5.656   0.168  0.1929 -0.2886  0.3054
38697SOL    HW122949  10.096   5.714   0.124 -1.1263  0.3643  2.8770
38697SOL    HW222950  10.243   5.675   0.125 -0.8012  1.0579 -1.1653
38698SOL     OW22951  10.791   2.596   1.837  0.4386 -0.2913  0.9814
38698SOL    HW122952  10.861   2.536   1.812 -0.1606 -0.7110  0.2430
38698SOL    HW222953  10.743   2.549   1.906 -1.5313 -1.8605 -1.2548
38699SOL     OW22954   4.737  10.864   7.150 -0.9965 -0.1937 -0.4304
38699SOL    HW122955   4.762  10.874   7.058 -0.3165  1.0113 -0.1317
38699SOL    HW222956   4.804  10.808   7.188  1.4205  2.9916  0.3613
38700SOL     OW22957   8.483   9.581   1.192  0.0444 -0.5984 -0.3092
38700SOL    HW122958   8.485   9.572   1.097 -2.0858  2.0350 -0.7455
38700SOL    HW222959   8.453   9.496   1.224  1.3984 -1.7230 -1.8800
38701SOL     OW22960   3.462   8.600   4.871  0.5952 -0.1416  0.2870
38701SOL    HW122961   3.386   8.639   4.828 -1.3075 -2.9155  0.8300
38701SOL    HW222962   3.457   8.631   4.962  0.1643 -0.2387  0.2956
38702SOL     OW22963   6.565   2.043   9.095 -0.0645 -0.4502 -0.4736
38702SOL    HW122964   6.519   1.963   9.122 -1.6309  0.1172 -1.3421
38702SOL    HW222965   6.497   2.110   9.093  1.0879  0.7522 -0.4744
38703SOL     OW22966   0.300   0.931   0.342  0.2713  0.0766 -0.1175
38703SOL    HW122967   0.237   0.965   0.279  0.9598  0.8605 -0.4029
38703SOL    HW222968   0.250   0.869   0.396 -0.8153  0.9431 -0.1092
38704SOL     OW22969   2.581   3.754   1.716  0.3046 -0.0519 -0.6030
38704SOL    HW122970   2.611   3.755   1.625 -1.9948 -0.1182 -1.4159
38704SOL    HW222971   2.554   3.844   1.734  1.4031  0.1315  0.3001
38705SOL     OW22972   9.679   5.795  11.937 -0.2583 -0.8145 -0.4519
38705SOL    HW122973   9.760   5.840  11.913  0.6847 -0.5629  2.7936
38705SOL    HW222974   9.609   5.851  11.902  0.8958 -0.6017 -2.5906
38706SOL     OW22975   5.869   8.967   9.635  0.1653  0.6571  0.1093
38706SOL    HW122976   5.963   8.981   9.638  0.0787  1.1446  0.7522
38706SOL    HW222977   5.831   9.052   9.659 -0.4731  0.9311 -1.7007
38707SOL     OW22978   5.100   9.821  11.289 -0.2391  0.3452 -0.1840
38707SOL    HW122979   5.029   9.766  11.256 -0.7676  0.7540  0.2440
38707SOL    HW222980   5.106   9.893  11.227 -2.3927  2.0448  1.4346
38708SOL     OW22981   8.660   8.881   1.507 -0.7441  0.1042 -0.5190
38708SOL    HW122982   8.595   8.815   1.529 -0.0014 -0.1374  1.1387
38708SOL    HW222983   8.699   8.905   1.591  0.0018  1.6047 -1.2563
38709SOL     OW22984   9.078   5.369   1.168  0.6803  0.5859 -0.1546
38709SOL    HW122985   9.096   5.393   1.259 -0.4148  0.3382  0.1523
38709SOL    HW222986   9.124   5.434   1.115 -0.7500  2.3065  0.6134
38710SOL     OW22987  11.959   1.975   2.133  0.3457  0.1894 -0.2490
38710SOL    HW122988  11.942   2.041   2.066  1.0763  0.4915 -0.1440
38710SOL    HW222989  12.045   1.997   2.167  0.8265 -1.1073 -0.5543
38711SOL     OW22990   4.507  12.499   6.694 -0.5007  0.2068  0.4960
38711SOL    HW122991   4.517  12.428   6.759 -1.5781 -0.3519  0.0691
38711SOL    HW222992   4.562  12.570   6.728 -1.9471  0.3763  2.6756
38712SOL     OW22993   1.853  11.735  12.557  0.2282 -0.0955  0.0542
38712SOL    HW122994   1.853  11.660  12.498  1.6760  1.1869 -1.6789
38712SOL    HW222995   1.879  11.809  12.502  0.2317  1.4356  2.0085
38713SOL     OW22996   1.773  11.414  11.139  0.4293  0.2592  0.1435
38713SOL    HW122997   1.705  11.360  11.099  0.3505  0.7771 -0.4460
38713SOL    HW222998   1.818  11.356  11.200 -0.3385 -0.1752  0.3060
38714SOL     OW22999  11.009  11.175   2.257  0.2566 -0.3586 -0.2914
38714SOL    HW123000  11.102  11.179   2.278 -0.0394 -0.7502  1.2205
38714SOL    HW223001  10.968  11.233   2.320 -0.5203 -0.1073 -1.0159
38715SOL     OW23002   3.245   5.127   5.473 -0.4747 -0.2126  0.6478
38715SOL    HW123003   3.251   5.211   5.518  1.2806 -0.8239  1.6419
38715SOL    HW223004   3.331   5.115   5.433 -0.7233 -1.5145  0.4597
38716SOL     OW23005   1.518   5.085   2.403  0.7323  0.0536 -0.0975
38716SOL    HW123006   1.609   5.058   2.393  0.3671 -0.9548 -0.8706
38716SOL    HW223007   1.477   5.062   2.320 -0.4879 -0.5514  0.6535
38717SOL     OW23008   7.604  11.809   5.817  0.1211  0.4489  0.2023
38717SOL    HW123009   7.593  11.890   5.866  0.4366  0.6049  0.0172
38717SOL    HW223010   7.573  11.830   5.729  0.3290  0.4037  0.1189
38718SOL     OW23011   9.707   3.037   3.129  0.3048  0.3708 -0.3867
38718SOL    HW123012   9.661   3.003   3.052  0.0765  2.0225 -1.0059
38718SOL    HW223013   9.643   3.034   3.199 -1.3579  3.9537 -1.5456
38719SOL     OW23014   5.476   0.903   4.512  0.1966  0.3580  0.0842
38719SOL    HW123015   5.475   0.976   4.573  4.6695  0.8952 -0.1220
38719SOL    HW223016   5.505   0.828   4.564  2.7495  0.5252 -0.9208
38720SOL     OW23017  12.373   0.930   9.871  0.1253  0.8339  0.3070
38720SOL    HW123018  12.453   0.877   9.878 -0.8877 -0.9742 -1.0303
38720SOL    HW223019  12.322   0.907   9.948 -0.2371 -0.0573 -0.1830
38721SOL     OW23020   6.537  11.403   5.653  0.3070 -0.5056 -0.3036
38721SOL    HW123021   6.624  11.379   5.685  0.4031 -1.4355 -1.1869
38721SOL    HW223022   6.532  11.498   5.666  1.3253 -0.4830  0.0610
38722SOL     OW23023   8.169   7.233   4.197 -0.3665  0.1859  0.7642
38722SOL    HW123024   8.179   7.318   4.240 -0.8845  0.2435  0.7788
38722SOL    HW223025   8.075   7.218   4.196 -0.3195 -0.0683  0.1278
38723SOL     OW23026   3.264   5.939   1.707  0.0525  0.6069  0.4257
38723SOL    HW123027   3.359   5.937   1.719  0.2060  1.0152 -0.6293
38723SOL    HW223028   3.233   6.002   1.772  0.9199  3.2584 -1.5862
38724SOL     OW23029   9.195  12.354   7.314 -0.9333  0.1262 -0.3992
38724SOL    HW123030   9.112  12.391   7.344 -0.7757 -0.3350  0.6526
38724SOL    HW223031   9.174  12.264   7.288 -0.7998  0.0756 -0.3353
38725SOL     OW23032   2.823   5.134   2.908  0.0173  0.2962  0.8479
38725SOL    HW123033   2.842   5.159   2.817 -1.2713 -0.6399  0.2968
38725SOL    HW223034   2.895   5.173   2.958  0.0209  2.0248 -0.3861
38726SOL     OW23035  11.578   1.279   9.278 -0.3555 -0.4757 -0.2643
38726SOL    HW123036  11.661   1.236   9.258 -1.2058 -2.6147  0.5452
38726SOL    HW223037  11.573   1.279   9.373 -1.3499 -0.5473 -0.3002
38727SOL     OW23038   7.360  10.163  11.606 -0.0455  0.2952  0.3616
38727SOL    HW123039   7.396  10.239  11.561  0.6453  0.0036  0.4059
38727SOL    HW223040   7.321  10.198  11.686  1.9068  0.4092  1.3145
38728SOL     OW23041   6.679   0.845   7.697 -0.5254 -0.4307  0.1742
38728SOL    HW123042   6.705   0.753   7.702  1.7356  0.0596 -1.2611
38728SOL    HW223043   6.716   0.884   7.776  1.5383 -0.1544 -0.8534
38729SOL     OW23044   1.911   5.832   9.317 -0.0926 -0.4922 -0.0253
38729SOL    HW123045   1.949   5.780   9.388  1.8523  1.1852  0.2488
38729SOL    HW223046   1.882   5.912   9.360  1.9121  0.9289 -1.1884
38730SOL     OW23047   5.215  10.222   0.645 -0.1874  0.0251 -0.9376
38730SOL    HW123048   5.264  10.300   0.618  0.6903  0.4780  1.6927
38730SOL    HW223049   5.263  10.149   0.607  0.5097  0.6268 -1.2486
38731SOL     OW23050  11.407   3.411   4.409  0.2259  0.2384  0.1495
38731SOL    HW123051  11.437   3.484   4.354 -0.8783  0.0670 -0.7229
38731SOL    HW223052  11.484   3.387   4.461  0.9887  1.1447 -0.5149
38732SOL     OW23053   7.453  11.897  11.219 -0.3456  0.2526 -0.1889
38732SOL    HW123054   7.421  11.982  11.248 -1.7820 -0.7317  1.2959
38732SOL    HW223055   7.499  11.861  11.295  1.1666  0.1118 -1.1383
38733SOL     OW23056   1.462   3.880   5.267 -0.2019 -0.4362  0.5943
38733SOL    HW123057   1.540   3.905   5.216 -0.5258 -2.7528 -1.1779
38733SOL    HW223058   1.389   3.920   5.219 -0.2723  0.3805  1.3462
38734SOL     OW23059   2.838   1.904   2.662  1.0939  0.6009 -0.2931
38734SOL    HW123060   2.865   1.883   2.573  1.7420 -1.3048  0.3015
38734SOL    HW223061   2.750   1.866   2.670  1.3627  0.0489  0.1132
38735SOL     OW23062   8.653   7.315   6.643 -0.3684 -0.0747 -0.6063
38735SOL    HW123063   8.715   7.387   6.633 -2.3682  1.6427 -1.3853
38735SOL    HW223064   8.616   7.327   6.731  0.6331 -1.3821  0.0542
38736SOL     OW23065   4.641   5.629  11.422  0.2218  0.0405 -0.7226
38736SOL    HW123066   4.651   5.724  11.411 -0.0329  0.1814  0.1816
38736SOL    HW223067   4.700   5.591  11.357  0.9900  0.8152 -0.4901
38737SOL     OW23068   8.452   2.829  11.207 -0.3103  0.1497 -0.4272
38737SOL    HW123069   8.453   2.885  11.130 -2.8733 -0.4573 -0.9824
38737SOL    HW223070   8.411   2.748  11.178 -0.8516 -0.3005  1.4453
38738SOL     OW23071   6.288   7.224   9.359  0.0334  0.1071 -0.0710
38738SOL    HW123072   6.222   7.197   9.295  0.0141  1.5263 -0.6824
38738SOL    HW223073   6.285   7.156   9.427 -2.5902  0.5174  0.3142
38739SOL     OW23074  12.159   6.171   8.967  0.1315  0.1374 -0.6465
38739SOL    HW123075  12.140   6.093   9.020  0.9865 -0.6246 -1.4028
38739SOL    HW223076  12.149   6.244   9.027 -1.9304 -0.4305 -0.2217
38740SOL     OW23077   7.834  10.644   3.072 -0.3413  0.1841 -0.2572
38740SOL    HW123078   7.866  10.573   3.016 -0.3828 -1.0552  1.2187
38740SOL    HW223079   7.765  10.604   3.125  1.6113  0.4375  2.7173
38741SOL     OW23080   9.816   4.227   0.193 -0.3467  0.1964  0.1539
38741SOL    HW123081   9.828   4.215   0.099  0.7047  1.6691  0.0678
38741SOL    HW223082   9.760   4.154   0.220  0.6003 -1.1388 -1.3248
38742SOL     OW23083   1.103   1.488   8.434 -0.4542  0.3831  0.3817
38742SOL    HW123084   1.175   1.510   8.374 -0.9526 -2.2886 -1.3732
38742SOL    HW223085   1.143   1.491   8.521  1.6965 -0.5066 -0.5059
38743SOL     OW23086   5.671   9.373   7.700 -0.0449 -0.1565 -0.2846
38743SOL    HW123087   5.735   9.422   7.751 -1.3983  0.3630  1.0174
38743SOL    HW223088   5.679   9.283   7.731 -0.0763 -0.0547  0.0246
38744SOL     OW23089   0.624   7.499  10.069  0.0909  0.1013 -0.3963
38744SOL    HW123090   0.617   7.409  10.100 -0.1872  0.6929  1.3769
38744SOL    HW223091   0.673   7.492   9.987  1.3606 -1.5170  0.4355
38745SOL     OW23092   7.641   5.367   2.746 -0.7812 -0.0468  0.3651
38745SOL    HW123093   7.629   5.291   2.688 -2.7212  0.0626  0.5623
38745SOL    HW223094   7.715   5.415   2.707 -0.0397 -1.5855 -0.2214
38746SOL     OW23095   3.862   0.865   0.426 -0.2095  0.0288 -0.5145
38746SOL    HW123096   3.886   0.889   0.516 -2.1222  1.2956 -0.2822
38746SOL    HW223097   3.929   0.905   0.371 -0.5904  1.6959  0.1931
38747SOL     OW23098   7.039   8.896   6.990 -0.0228 -0.6203 -0.0835
38747SOL    HW123099   7.096   8.883   7.066  1.9177 -1.1874 -1.5673
38747SOL    HW223100   7.030   8.808   6.952  1.5285  0.0500 -2.1652
38748SOL     OW23101  10.965   7.077   0.248  0.1195 -0.0447  0.6493
38748SOL    HW123102  10.940   7.010   0.312 -0.8423 -3.1233 -2.6131
38748SOL    HW223103  10.885   7.094   0.199  1.2096  0.8426 -0.9162
38749SOL     OW23104   5.562   2.090   6.937 -0.3112  0.2631 -0.1741
38749SOL    HW123105   5.655   2.110   6.944 -0.0353 -0.9484 -0.1103
38749SOL    HW223106   5.553   2.044   6.853 -0.4713 -1.4731  0.7518
38750SOL     OW23107   4.204   6.097   7.281 -0.1372  0.5662 -0.2136
38750SOL    HW123108   4.293   6.107   7.248  0.4491 -0.5849  0.9470
38750SOL    HW223109   4.198   6.006   7.308 -1.4220  0.8271  0.4657
38751SOL     OW23110   2.923   3.298   1.917  0.0761  0.0687  0.6920
38751SOL    HW123111   3.002   3.306   1.863 -0.6191 -0.5451 -0.4604
38751SOL    HW223112   2.890   3.387   1.925 -0.3614  0.0679 -0.7831
38752SOL     OW23113   5.050   6.467   2.253 -0.0685 -0.8008 -0.3449
38752SOL    HW123114   4.983   6.508   2.198  0.3757  1.7955  0.9153
38752SOL    HW223115   5.009   6.459   2.339  0.1585 -2.3201 -0.3413
38753SOL     OW23116   5.436  10.528   8.705  0.2566 -0.5442 -0.6017
38753SOL    HW123117   5.379  10.582   8.650 -0.0203 -0.9154 -0.6856
38753SOL    HW223118   5.376  10.489   8.769  0.2286 -1.7855 -1.3428
38754SOL     OW23119  12.548  11.372  12.412  0.3182 -0.0909 -0.1185
38754SOL    HW123120  12.472  11.430  12.403 -0.7004 -1.5070 -1.0207
38754SOL    HW223121  12.615  11.427  12.453 -0.9640  1.3903  0.0875
38755SOL     OW23122   8.105   4.660  12.169 -0.3598 -0.1808 -0.2567
38755SOL    HW123123   8.127   4.666  12.262 -0.4505 -1.6559 -0.1135
38755SOL    HW223124   8.174   4.710  12.125  0.6957 -0.9373  0.4876
38756SOL     OW23125   5.558   3.222   4.678  0.2979  0.1330  0.0781
38756SOL    HW123126   5.504   3.269   4.741 -0.6232  3.8633 -3.1001
38756SOL    HW223127   5.644   3.215   4.720 -0.4645  1.6530  2.0475
38757SOL     OW23128   7.531   3.503  11.314  0.5753  0.0802  0.3964
38757SOL    HW123129   7.544   3.416  11.274  1.8071  0.1958  0.5032
38757SOL    HW223130   7.564   3.564  11.248 -0.9063  0.5440  0.0370
38758SOL     OW23131   7.789   8.946   9.417 -0.3202 -0.3013  0.3099
38758SOL    HW123132   7.824   8.941   9.328  0.9360  0.0099  0.7629
38758SOL    HW223133   7.694   8.942   9.406 -0.4457  3.1759 -1.3513
38759SOL     OW23134   8.371  12.290   8.873  0.6827  0.0012 -0.2634
38759SOL    HW123135   8.378  12.347   8.796  2.0694  1.2991  0.7760
38759SOL    HW223136   8.407  12.206   8.844  1.9208  0.6995 -0.8463
38760SOL     OW23137   9.472  11.999   5.116  0.3499 -0.3421  0.2601
38760SOL    HW123138   9.454  11.967   5.028 -1.2675  2.3031 -0.5118
38760SOL    HW223139   9.540  12.065   5.104 -0.8449  1.0349  0.6968
38761SOL     OW23140   5.214  11.055   5.458 -0.0803  0.5067  0.4097
38761SOL    HW123141   5.144  11.038   5.522  0.2626 -0.1552  0.6148
38761SOL    HW223142   5.267  10.975   5.458 -0.8460 -0.0747 -1.7098
38762SOL     OW23143   6.256  10.071   1.301 -0.1788 -0.2781 -0.0063
38762SOL    HW123144   6.282  10.127   1.374 -1.9804  0.4766  0.0844
38762SOL    HW223145   6.161  10.073   1.301 -0.2441 -1.4901 -1.4539
38763SOL     OW23146  11.126   2.286   9.474  0.1130  0.0845 -0.2103
38763SOL    HW123147  11.078   2.324   9.547 -2.8218  0.3583 -2.1362
38763SOL    HW223148  11.132   2.193   9.495  0.0282  0.2935  0.7545
38764SOL     OW23149   9.647   1.572   7.680 -0.5102  0.0267  0.0365
38764SOL    HW123150   9.657   1.658   7.641 -0.7985  0.2582  0.4680
38764SOL    HW223151   9.723   1.522   7.649 -0.4077  0.3997 -0.3055
38765SOL     OW23152   1.546   3.392   4.559  0.4478 -0.6631 -0.3905
38765SOL    HW123153   1.481   3.409   4.627 -0.5821 -1.6934 -1.0506
38765SOL    HW223154   1.613   3.340   4.602  0.2625 -0.5419  0.0511
38766SOL     OW23155   4.263   0.413   9.203  0.7666  0.2952  0.3962
38766SOL    HW123156   4.196   0.480   9.193  0.6844  0.3095  1.0152
38766SOL    HW223157   4.299   0.427   9.291  0.1079 -1.0522  0.9066
38767SOL     OW23158  12.490   3.181   6.870 -0.3823  0.2656 -0.1991
38767SOL    HW123159  12.500   3.086   6.866 -1.4274  0.1671 -0.7775
38767SOL    HW223160  12.553   3.209   6.937  0.3822 -0.7575 -0.4661
38768SOL     OW23161   6.802   5.163   7.890 -0.1855  0.0358 -0.2882
38768SOL    HW123162   6.783   5.193   7.979 -0.5529  3.0013 -1.2636
38768SOL    HW223163   6.716   5.160   7.847  0.0545 -0.8193 -0.7285
38769SOL     OW23164   0.247   4.373   8.407  0.3822  0.1582  1.2116
38769SOL    HW123165   0.267   4.294   8.458 -0.6278 -1.8488 -1.2724
38769SOL    HW223166   0.151   4.378   8.407  0.2738 -0.5501 -1.2346
38770SOL     OW23167   0.384   6.170   1.868  0.8866 -0.0518 -0.5689
38770SOL    HW123168   0.332   6.246   1.892  0.4084 -0.5013 -0.1573
38770SOL    HW223169   0.369   6.107   1.938  1.1643 -0.5797 -0.9694
38771SOL     OW23170   1.344   3.924   7.334 -0.1475 -0.5954 -0.3631
38771SOL    HW123171   1.437   3.906   7.319  1.2086  3.3137  1.8060
38771SOL    HW223172   1.317   3.976   7.258  0.7771  1.7635  0.8126
38772SOL     OW23173  10.992   3.055   1.185  0.3075 -0.7288 -0.1459
38772SOL    HW123174  10.999   2.992   1.256  0.8193 -0.3323  0.1599
38772SOL    HW223175  10.910   3.033   1.142 -0.7077 -0.1068  1.4047
38773SOL     OW23176  12.477   3.408   2.043 -0.0317  0.6022 -0.7299
38773SOL    HW123177  12.479   3.450   2.129 -0.3406  0.8722 -0.8520
38773SOL    HW223178  12.424   3.466   1.989 -0.2300  0.1949 -0.9799
38774SOL     OW23179   5.169   7.334   8.285  0.2257  0.2536 -0.1861
38774SOL    HW123180   5.246   7.370   8.331 -0.2876  1.2326 -0.0629
38774SOL    HW223181   5.204   7.260   8.235  0.6007 -1.7397  2.7480
38775SOL     OW23182   7.323   1.510   5.855  0.6601 -0.0613 -0.9261
38775SOL    HW123183   7.315   1.576   5.787 -1.9503  1.5435  0.7213
38775SOL    HW223184   7.299   1.427   5.813 -0.4310  0.8150 -2.0682
38776SOL     OW23185   9.104  10.296  11.202  0.4515  0.6085  0.2959
38776SOL    HW123186   9.141  10.340  11.279  0.2050  1.0411  0.1758
38776SOL    HW223187   9.054  10.365  11.158 -1.7634 -0.2776  1.2431
38777SOL     OW23188   0.797   1.170   6.894 -0.0451  0.5015 -0.3497
38777SOL    HW123189   0.756   1.227   6.959  0.7539  2.6459 -1.6571
38777SOL    HW223190   0.878   1.141   6.935 -0.2485  0.6290  0.1470
38778SOL     OW23191   5.464   9.130  10.409  0.8055 -0.5888  0.5434
38778SOL    HW123192   5.479   9.064  10.341  1.0601  0.2851 -0.2823
38778SOL    HW223193   5.370   9.148  10.403  0.8413 -0.4541  0.3505
38779SOL     OW23194   4.760   4.030   6.488 -0.9705  0.3922  0.5235
38779SOL    HW123195   4.733   4.117   6.459  0.5242  0.4200 -0.9614
38779SOL    HW223196   4.841   4.045   6.536 -0.8353 -0.1391  0.4681
38780SOL     OW23197  12.115   1.106  10.496  0.8105 -0.0723  0.1140
38780SOL    HW123198  12.186   1.144  10.444  2.0510 -1.3780  0.7864
38780SOL    HW223199  12.110   1.161  10.574  1.0805  0.0330  0.0593
38781SOL     OW23200   7.417  11.740   7.115  0.0108 -0.6270  0.1758
38781SOL    HW123201   7.495  11.696   7.081 -0.0848  1.0312 -2.4595
38781SOL    HW223202   7.451  11.807   7.174  0.5715 -0.2799 -0.5314
38782SOL     OW23203  10.592  11.729  10.226  0.7897 -0.2433  0.1984
38782SOL    HW123204  10.620  11.762  10.140  0.3824 -1.5307 -0.4581
38782SOL    HW223205  10.664  11.673  10.254  0.8700  0.0858  0.6528
38783SOL     OW23206   5.829  10.569   9.843  0.0029  0.1781 -0.2393
38783SOL    HW123207   5.795  10.504   9.904 -0.5882  0.3363 -0.3901
38783SOL    HW223208   5.837  10.649   9.895  0.6575  0.0120 -0.0723
38784SOL     OW23209   8.054   4.950   7.806 -0.3176  0.7491 -0.0497
38784SOL    HW123210   8.063   4.981   7.896  1.0452  1.7194 -0.4935
38784SOL    HW223211   8.125   4.992   7.758  0.0963 -1.1378 -1.2263
38785SOL     OW23212   5.188  10.013   9.078 -0.0843  0.7526 -0.4100
38785SOL    HW123213   5.240   9.985   9.002 -0.7790  0.4324 -0.7798
38785SOL    HW223214   5.120  10.069   9.040 -0.2798  0.8010  0.0143
38786SOL     OW23215   8.958   8.657   1.048  0.0787 -0.3474 -0.2935
38786SOL    HW123216   9.046   8.672   1.082  0.2424  0.7863 -1.1480
38786SOL    HW223217   8.916   8.603   1.114  0.9091  0.3924  0.8873
38787SOL     OW23218   8.055   2.223   2.370 -0.2373 -0.3117 -0.8125
38787SOL    HW123219   8.140   2.256   2.399  0.2943 -1.5437 -0.9167
38787SOL    HW223220   7.993   2.257   2.434  0.4012  0.1808 -0.4439
38788SOL     OW23221   9.761  11.228  10.680 -0.6184  0.0573  0.4282
38788SOL    HW123222   9.787  11.314  10.647  0.2155  0.2845  1.6146
38788SOL    HW223223   9.707  11.247  10.756  1.0434 -0.4377  1.7877
38789SOL     OW23224   9.520  10.985   9.836 -0.3534  0.7408  0.1439
38789SOL    HW123225   9.555  11.007   9.922  0.7136  0.9436 -0.3288
38789SOL    HW223226   9.588  10.931   9.795 -0.9828  0.3797 -0.4538
38790SOL     OW23227   9.480   2.006   1.748 -0.0854  0.1547 -0.0448
38790SOL    HW123228   9.457   1.959   1.668  0.2086 -0.4744  0.2335
38790SOL    HW223229   9.570   1.978   1.767  0.3851  1.4230 -0.2933
38791SOL     OW23230   5.615   1.335   2.306 -0.3708  0.4040 -0.2835
38791SOL    HW123231   5.628   1.308   2.397 -0.7462  2.0880  0.3116
38791SOL    HW223232   5.591   1.255   2.260  1.6219 -0.8386  0.7139
38792SOL     OW23233   2.746  10.314   5.251  0.3856  0.0061 -0.4050
38792SOL    HW123234   2.780  10.378   5.312 -2.4841  2.0388 -0.7673
38792SOL    HW223235   2.720  10.239   5.305  0.6425  0.5409  0.4576
38793SOL     OW23236   7.101   6.707   4.272 -0.0971 -0.0979  0.1967
38793SOL    HW123237   7.060   6.626   4.304 -0.0596 -0.2192 -0.0591
38793SOL    HW223238   7.038   6.742   4.209 -1.1342  1.2306  1.8840
38794SOL     OW23239   6.223   7.598   5.151 -0.4592  0.4861 -0.1915
38794SOL    HW123240   6.175   7.573   5.230  0.6374  0.9174  0.6510
38794SOL    HW223241   6.314   7.575   5.170  0.0084  1.6757 -0.8426
38795SOL     OW23242   5.180   9.145  11.663 -0.1634 -0.1929  0.0726
38795SOL    HW123243   5.173   9.081  11.592  2.7374  1.8439 -2.3558
38795SOL    HW223244   5.090   9.169  11.684 -1.1961 -2.6318 -1.2094
38796SOL     OW23245   3.968   5.957   7.615  0.0499 -0.0736  0.3254
38796SOL    HW123246   3.975   5.965   7.520 -0.2291 -0.5019  0.2640
38796SOL    HW223247   4.011   6.035   7.649 -0.3784  0.3848 -0.1685
38797SOL     OW23248  11.815   3.555   4.412 -0.2774  0.0720  0.2369
38797SOL    HW123249  11.903   3.552   4.449 -0.4896  1.0343  0.8716
38797SOL    HW223250  11.766   3.488   4.460  0.4236 -1.4722 -1.0914
38798SOL     OW23251  11.025   2.645   0.077 -0.2225 -0.3135 -0.0038
38798SOL    HW123252  11.017   2.563   0.029 -0.4343  0.1616 -0.8107
38798SOL    HW223253  10.935   2.677   0.085 -0.0473  0.3961 -0.7230
38799SOL     OW23254   5.913   7.918   0.022 -0.4328 -0.0104  0.3301
38799SOL    HW123255   5.892   7.958  -0.062 -0.9694 -0.1147  0.4140
38799SOL    HW223256   6.007   7.901   0.018 -0.2945  0.7824  0.0898
38800SOL     OW23257   2.302   5.250  12.051  0.1367 -0.7679  0.2370
38800SOL    HW123258   2.355   5.268  12.129  0.2324 -1.8898  0.4465
38800SOL    HW223259   2.230   5.313  12.056  1.3315  0.6604  0.0409
38801SOL     OW23260   1.406   6.129   6.992 -0.2112 -0.5410 -0.5617
38801SOL    HW123261   1.311   6.142   7.003  0.0534  0.1578  1.3115
38801SOL    HW223262   1.433   6.202   6.936 -0.3430  1.2469  1.5483
38802SOL     OW23263   0.123   9.243   3.918  0.1809 -0.3707 -0.0280
38802SOL    HW123264   0.149   9.312   3.979  3.3245 -2.6579  1.4940
38802SOL    HW223265   0.115   9.165   3.972 -2.7323 -1.4526 -1.7629
38803SOL     OW23266   6.931   4.031  10.814 -0.4027 -0.1802  0.8160
38803SOL    HW123267   7.017   4.016  10.854  0.2374  0.8659 -0.1023
38803SOL    HW223268   6.932   3.980  10.733 -0.1660  0.7654  0.2071
38804SOL     OW23269   9.392   1.198   8.903 -0.0077 -0.0585 -0.0602
38804SOL    HW123270   9.323   1.132   8.911  0.7147 -0.8047  0.1643
38804SOL    HW223271   9.373   1.244   8.821 -0.5230 -0.5417 -0.2111
38805SOL     OW23272   6.749   3.691   5.263 -0.1442  0.1684 -0.3394
38805SOL    HW123273   6.776   3.779   5.237 -1.8250  0.4699 -1.1954
38805SOL    HW223274   6.696   3.659   5.190 -0.6983 -1.0220  0.5403
38806SOL     OW23275   8.720  10.158   0.542 -0.2412 -0.1978  0.0005
38806SOL    HW123276   8.638  10.170   0.589 -1.5500  0.1771 -2.2493
38806SOL    HW223277   8.711  10.072   0.501 -0.8506  1.0166 -2.6211
38807SOL     OW23278   8.571   3.029   2.406  0.4523  0.2557 -0.1620
38807SOL    HW123279   8.572   2.985   2.321 -0.2405  0.6682 -0.3987
38807SOL    HW223280   8.662   3.030   2.435  0.6170 -0.3682 -0.6505
38808SOL     OW23281   6.534  10.969   3.731 -0.4722 -0.4477 -0.6705
38808SOL    HW123282   6.586  10.915   3.791  0.3615  0.8038 -0.2290
38808SOL    HW223283   6.587  10.977   3.653  0.4919  1.5864  0.1166
38809SOL     OW23284  11.721   3.823   4.386 -0.1238  0.2109  0.0560
38809SOL    HW123285  11.751   3.733   4.399 -1.4948 -0.7587 -2.6557
38809SOL    HW223286  11.801   3.875   4.383  0.8930 -1.3178 -0.7742
38810SOL     OW23287  10.337   9.546  10.782 -0.2632  0.0776  0.0355
38810SOL    HW123288  10.374   9.470  10.828 -1.3488 -0.8685 -0.5824
38810SOL    HW223289  10.249   9.556  10.819 -0.7511 -0.0267 -1.0559
38811SOL     OW23290   2.985   6.412   4.633  0.4876 -0.3154 -0.5766
38811SOL    HW123291   3.061   6.430   4.578  0.9450  0.6381  0.3412
38811SOL    HW223292   2.958   6.497   4.666 -0.1955 -0.7962  0.1376
38812SOL     OW23293   7.511   3.753   0.566  0.1575 -0.2658  0.6512
38812SOL    HW123294   7.554   3.811   0.628 -0.4122 -1.1282  1.8895
38812SOL    HW223295   7.551   3.667   0.581 -0.3624 -0.5955  0.2024
38813SOL     OW23296   8.046  10.612   8.396 -0.2342  0.4341  0.0256
38813SOL    HW123297   8.124  10.589   8.347 -0.4264 -1.9089  0.6726
38813SOL    HW223298   7.974  10.597   8.335 -0.2495  1.8244 -0.3219
38814SOL     OW23299   9.483   6.374   3.412 -0.5027  0.1310  0.1216
38814SOL    HW123300   9.493   6.468   3.426 -0.3673 -0.0320  1.1379
38814SOL    HW223301   9.519   6.359   3.324  2.8858  0.4587  1.3175
38815SOL     OW23302   8.016  10.794   6.303  0.1428  0.3694  0.2608
38815SOL    HW123303   8.073  10.866   6.331 -0.4238  1.0295 -0.2646
38815SOL    HW223304   7.929  10.819   6.331 -0.0434 -0.1877  0.1988
38816SOL     OW23305   0.506   7.958   4.577  0.2638 -0.1375  0.3877
38816SOL    HW123306   0.536   7.874   4.541  0.0882  0.1126 -0.3783
38816SOL    HW223307   0.522   8.020   4.506  0.5240  0.5031  1.0052
38817SOL     OW23308  10.363   9.930   3.030  0.2658  0.1638  0.1761
38817SOL    HW123309  10.320   9.913   3.114 -0.7656 -0.4755 -0.4515
38817SOL    HW223310  10.361  10.025   3.020 -1.6997  0.1415 -0.1352
38818SOL     OW23311   8.374   0.735   1.062 -0.3012  0.4368  0.2386
38818SOL    HW123312   8.358   0.829   1.062 -2.1589  0.3729 -4.1606
38818SOL    HW223313   8.469   0.726   1.050 -0.1496  1.7365  0.3620
38819SOL     OW23314  10.594   8.451   4.789 -0.3524  0.3100  0.1801
38819SOL    HW123315  10.545   8.389   4.843  0.9247 -0.5097  0.4461
38819SOL    HW223316  10.679   8.409   4.776  0.4421  1.8775  0.1079
38820SOL     OW23317   8.524   4.136  10.066  0.2738  0.3257 -0.1018
38820SOL    HW123318   8.550   4.227  10.051 -1.6169  0.7643 -1.0264
38820SOL    HW223319   8.519   4.127  10.161 -1.2612  1.7394 -0.0197
38821SOL     OW23320  11.445   7.299   0.938 -0.1138 -0.0173  0.0158
38821SOL    HW123321  11.467   7.343   0.855  0.3623  2.4812  1.3472
38821SOL    HW223322  11.395   7.222   0.912  0.3723  0.4535 -2.6108
38822SOL     OW23323   6.489  10.067   5.883 -0.4925  0.2440 -0.6687
38822SOL    HW123324   6.430  10.073   5.958  0.8975 -0.5911  0.5447
38822SOL    HW223325   6.462  10.138   5.825 -1.1818  1.3269  0.9294
38823SOL     OW23326   3.040   0.097   5.297  0.1443 -0.4325 -0.1870
38823SOL    HW123327   3.107   0.063   5.358  0.8314  2.6068  0.9233
38823SOL    HW223328   3.033   0.029   5.230  1.4603 -2.6523  1.7271
38824SOL     OW23329  10.902  12.222  11.035 -0.0117 -0.0498 -0.4466
38824SOL    HW123330  10.874  12.254  10.949 -1.2771  0.9718  0.2957
38824SOL    HW223331  10.832  12.161  11.061  0.7200 -0.9031 -0.4174
38825SOL     OW23332   5.654   7.058  12.335  0.0794  0.1712  0.1500
38825SOL    HW123333   5.713   7.038  12.408  1.1035  0.9508 -0.4288
38825SOL    HW223334   5.567   7.033  12.367 -0.0201  3.2593  2.8559
38826SOL     OW23335   5.544   9.795   8.167 -0.1574 -0.2299  0.6813
38826SOL    HW123336   5.522   9.887   8.176 -0.6167 -0.3751  1.0562
38826SOL    HW223337   5.625   9.795   8.115 -2.0336  0.2384 -2.5122
38827SOL     OW23338   1.602  10.052  10.317  0.0442 -0.4691  0.4270
38827SOL    HW123339   1.527  10.111  10.305 -0.4616 -1.3218 -0.8365
38827SOL    HW223340   1.588  10.013  10.403 -0.8386 -0.4057  0.3245
38828SOL     OW23341   3.941  11.662   4.324  0.0464 -0.3198  0.1574
38828SOL    HW123342   3.882  11.690   4.254 -2.1851  1.0924  2.4306
38828SOL    HW223343   3.997  11.739   4.339  0.6123 -0.6676 -0.1653
38829SOL     OW23344   9.708   1.989   8.791 -0.1113 -0.0479 -0.2695
38829SOL    HW123345   9.793   1.965   8.753  0.3704 -0.0910  0.7869
38829SOL    HW223346   9.646   1.926   8.755  0.3795 -0.2876 -0.7104
38830SOL     OW23347   2.634   9.633   3.265  0.0794 -0.2116 -0.5414
38830SOL    HW123348   2.613   9.639   3.358  0.7078 -2.5180 -0.1980
38830SOL    HW223349   2.728   9.651   3.261  0.1636 -0.6717 -0.6551
38831SOL     OW23350   8.585   2.953   3.197 -0.6366 -0.3320 -0.1308
38831SOL    HW123351   8.646   2.916   3.132 -0.5407  0.9676 -0.8115
38831SOL    HW223352   8.515   2.990   3.144  0.4379  2.5929  0.3340
38832SOL     OW23353   6.779   1.331  10.372  0.0308  0.4012 -0.2995
38832SOL    HW123354   6.721   1.285  10.432 -0.3038  1.1482 -0.0330
38832SOL    HW223355   6.867   1.320  10.409 -0.1036  0.3756  0.0149
38833SOL     OW23356   0.867   1.140   6.085 -0.1314 -0.0190  0.0396
38833SOL    HW123357   0.900   1.173   6.002  1.9161 -1.6124  0.1466
38833SOL    HW223358   0.870   1.045   6.076 -0.9512 -0.2187  1.5424
38834SOL     OW23359   7.269   4.751   4.685 -0.2883 -0.4488 -0.4190
38834SOL    HW123360   7.363   4.760   4.669 -0.4445  0.1865 -1.0522
38834SOL    HW223361   7.260   4.670   4.736  0.6902  0.0496  0.5563
38835SOL     OW23362   8.910   3.131   5.075 -0.5178 -0.5624  0.1321
38835SOL    HW123363   8.872   3.218   5.065  0.0829 -0.2556  0.4892
38835SOL    HW223364   8.849   3.073   5.028 -0.3085  0.1982 -1.1184
38836SOL     OW23365   6.630  10.064   6.398  0.4612  0.8117  0.3072
38836SOL    HW123366   6.669  10.057   6.311  2.8778  3.4211  1.0032
38836SOL    HW223367   6.536  10.057   6.383  0.8894 -1.7024 -2.0655
38837SOL     OW23368   5.914   6.244  10.452  0.3653  0.2021 -0.8833
38837SOL    HW123369   5.888   6.310  10.516 -0.2030  0.9332 -1.8315
38837SOL    HW223370   5.841   6.241  10.390 -0.0815 -2.0513 -0.3322
38838SOL     OW23371   4.788   3.241   8.988 -1.0146 -0.4138 -0.0188
38838SOL    HW123372   4.855   3.222   9.054 -1.1141 -0.8423 -0.0343
38838SOL    HW223373   4.819   3.194   8.910 -0.0456  1.4018 -0.7904
38839SOL     OW23374   6.796   0.593   7.710 -0.0198  0.1050 -0.5211
38839SOL    HW123375   6.861   0.532   7.675  1.3731  2.1471 -1.6675
38839SOL    HW223376   6.715   0.541   7.714  1.0858 -1.8089 -1.4419
38840SOL     OW23377   2.949  10.558  11.696 -1.3576  0.0537 -0.4516
38840SOL    HW123378   2.914  10.590  11.779  0.0631 -0.9802  0.6070
38840SOL    HW223379   2.980  10.470  11.716 -1.4638 -0.4334 -2.2402
38841SOL     OW23380   8.513   5.129   9.778  0.1690 -0.0149  0.1684
38841SOL    HW123381   8.516   5.058   9.842  1.6261  0.5483  0.7443
38841SOL    HW223382   8.478   5.204   9.826 -0.2192 -0.0059 -0.1199
38842SOL     OW23383   2.899  11.541  10.514  0.5062  0.0809  0.1377
38842SOL    HW123384   2.828  11.595  10.550  0.0434 -0.6464  0.3531
38842SOL    HW223385   2.917  11.478  10.584  2.0189  0.8301  0.4573
38843SOL     OW23386   8.627   8.173   6.479 -0.1770  0.3198  0.1403
38843SOL    HW123387   8.694   8.222   6.526 -1.0381  2.0115 -0.3028
38843SOL    HW223388   8.669   8.090   6.457  1.1000  0.5365  1.5823
38844SOL     OW23389   8.429   0.351   9.711  0.0434 -0.0888  0.2801
38844SOL    HW123390   8.413   0.442   9.738  0.3989 -0.3476  1.4031
38844SOL    HW223391   8.454   0.306   9.792  3.3962 -0.4041 -0.7751
38845SOL     OW23392   0.732   0.221   1.130  0.5112 -0.3329 -0.2129
38845SOL    HW123393   0.823   0.211   1.104  0.8161 -0.0149  0.6768
38845SOL    HW223394   0.722   0.315   1.144  0.1175 -0.3939 -0.0832
38846SOL     OW23395   0.514   9.414  11.046 -0.4686  0.5482 -0.2024
38846SOL    HW123396   0.437   9.468  11.027 -1.3091 -0.0666  1.2601
38846SOL    HW223397   0.517   9.352  10.973 -0.9242  1.0538 -0.6629
38847SOL     OW23398   7.875   9.056   2.351  0.0056  0.2133 -0.0050
38847SOL    HW123399   7.914   8.972   2.378 -0.1789  0.3941  0.8424
38847SOL    HW223400   7.946   9.120   2.363 -0.4546  0.5000  1.2922
38848SOL     OW23401  12.308   4.648   6.794 -0.1930  0.1585 -0.2658
38848SOL    HW123402  12.393   4.683   6.768  0.4799 -0.3276  1.1597
38848SOL    HW223403  12.306   4.657   6.889 -1.3031 -0.7883 -0.1710
38849SOL     OW23404   7.915   7.653   4.313  0.2995  0.0866  0.3754
38849SOL    HW123405   7.841   7.699   4.272 -0.1195 -0.9888 -0.1047
38849SOL    HW223406   7.918   7.687   4.402 -0.9188 -0.0025  0.4647
38850SOL     OW23407   4.042  12.517   6.223  0.2743 -0.0132  0.0454
38850SOL    HW123408   3.983  12.532   6.297  0.1173  1.5416 -0.3676
38850SOL    HW223409   3.989  12.466   6.161 -0.4151  0.7550 -0.0200
38851SOL     OW23410   9.000  11.431   8.533 -0.5397 -0.4478 -0.1868
38851SOL    HW123411   9.011  11.494   8.604 -0.7036 -1.4168  0.7399
38851SOL    HW223412   9.007  11.346   8.576  0.7419 -1.0776 -1.5685
38852SOL     OW23413   4.153  11.862  10.872 -0.1111 -0.4436 -0.2007
38852SOL    HW123414   4.205  11.857  10.792 -0.5721  1.9565 -0.7399
38852SOL    HW223415   4.195  11.800  10.932  0.1828 -2.3720 -2.2720
38853SOL     OW23416   5.070   6.555  12.153  0.4579  0.6092  0.5946
38853SOL    HW123417   4.982   6.533  12.183  0.8712 -1.1016  0.6397
38853SOL    HW223418   5.128   6.502  12.207  1.4492  0.7916 -0.2612
38854SOL     OW23419   6.851   1.923  11.669 -0.3498  0.2142  0.2988
38854SOL    HW123420   6.863   1.958  11.757  0.8257  0.5893  0.0058
38854SOL    HW223421   6.931   1.873  11.651 -0.9962 -0.6668 -0.1852
38855SOL     OW23422   1.587  11.660   5.364  0.5249  0.6511 -0.1556
38855SOL    HW123423   1.497  11.646   5.334 -0.2231  2.1018  1.2618
38855SOL    HW223424   1.614  11.576   5.399 -0.1928  0.1257 -0.8164
38856SOL     OW23425   8.378   0.117   5.381  0.2760  0.0794 -0.0780
38856SOL    HW123426   8.301   0.165   5.350  0.4635  0.7616  0.5008
38856SOL    HW223427   8.347   0.067   5.456  0.3563  0.2127  0.0440
38857SOL     OW23428   0.091   1.033   4.372  0.7381  0.5714  0.4269
38857SOL    HW123429   0.092   1.061   4.280 -0.9289 -0.0669  0.1857
38857SOL    HW223430   0.057   1.109   4.419 -1.1034 -0.0252  0.1271
38858SOL     OW23431   7.650   8.052   3.888 -0.7217  0.2852 -0.5918
38858SOL    HW123432   7.708   8.115   3.844 -0.2246 -0.5786 -1.2078
38858SOL    HW223433   7.696   7.969   3.880 -0.9312 -0.0155  1.0073
38859SOL     OW23434   3.389  10.084   5.593 -0.1962 -0.7959  0.3331
38859SOL    HW123435   3.424  10.129   5.516  0.5130 -0.2794  0.9467
38859SOL    HW223436   3.305  10.049   5.564 -0.1711 -0.1709 -0.5264
38860SOL     OW23437   0.181   9.112   8.959  0.0547 -0.1466  0.0678
38860SOL    HW123438   0.144   9.196   8.930 -0.3681 -0.4045 -0.1598
38860SOL    HW223439   0.106   9.053   8.959  0.3739 -0.5498  0.1256
38861SOL     OW23440   0.001   4.679   6.874  0.0659 -0.0344  0.0731
38861SOL    HW123441   0.026   4.641   6.790  1.1791 -1.2896  0.9202
38861SOL    HW223442   0.062   4.752   6.886  0.1282 -0.0611 -0.0766
38862SOL     OW23443   7.460  10.717   8.995  0.6039 -0.1638  0.2288
38862SOL    HW123444   7.517  10.645   9.021  0.4129  0.3032  2.0925
38862SOL    HW223445   7.371  10.682   9.008  0.5124  0.6113  1.8326
38863SOL     OW23446   6.359  10.296  11.986 -0.2856  0.2473  0.7308
38863SOL    HW123447   6.413  10.308  11.908  0.5477  1.4473  1.4549
38863SOL    HW223448   6.271  10.278  11.953  0.0674  0.6958 -0.4814
38864SOL     OW23449   2.218   2.238   4.004  0.2697  0.5464  0.9086
38864SOL    HW123450   2.204   2.215   3.913 -2.5289  1.1875  1.0951
38864SOL    HW223451   2.174   2.323   4.015 -0.0791  0.1578  2.9953
38865SOL     OW23452   4.115   1.775  10.167  0.4549  0.0972 -0.4929
38865SOL    HW123453   4.093   1.862  10.200  2.8597  0.7036 -0.2693
38865SOL    HW223454   4.148   1.727  10.243 -0.6876 -0.9974 -0.6429
38866SOL     OW23455   0.665   3.725   3.050  0.3352  0.3261  0.2645
38866SOL    HW123456   0.721   3.794   3.086 -0.2966  0.4741  0.9758
38866SOL    HW223457   0.595   3.772   3.004 -1.1086  0.2435  2.2517
38867SOL     OW23458   0.146   9.627   3.701  0.7741 -0.2500 -0.0530
38867SOL    HW123459   0.159   9.540   3.661  2.9228 -0.2366  0.4661
38867SOL    HW223460   0.226   9.641   3.752  1.3192  2.7655 -1.5118
38868SOL     OW23461   7.017   9.984   7.586  0.5983 -0.1596 -0.3425
38868SOL    HW123462   6.934  10.020   7.616  0.8870  0.9746 -0.8552
38868SOL    HW223463   7.001   9.890   7.578 -0.9781  0.1707 -1.5272
38869SOL     OW23464   2.482   6.066   7.664  0.1416  0.4615 -0.2261
38869SOL    HW123465   2.425   6.031   7.733  0.1910 -0.1239 -0.4783
38869SOL    HW223466   2.569   6.031   7.685  0.7286  2.5029  0.9817
38870SOL     OW23467  12.501   5.150   1.617  0.0184  0.1097  0.5579
38870SOL    HW123468  12.571   5.090   1.589 -0.9027  0.3284 -2.6615
38870SOL    HW223469  12.420   5.102   1.602 -0.7305  1.9102 -1.8136
38871SOL     OW23470   7.062   6.065   8.907  0.0156 -0.1835 -0.5123
38871SOL    HW123471   7.099   6.146   8.873  0.1269  0.8967  1.9462
38871SOL    HW223472   7.138   6.011   8.930 -0.0515 -0.7353 -1.5540
38872SOL     OW23473   5.625   9.454   8.016  0.3039  0.0705  0.1407
38872SOL    HW123474   5.542   9.440   8.061  0.1284  2.3090  0.6481
38872SOL    HW223475   5.672   9.371   8.026 -1.6860 -1.1131  0.1831
38873SOL     OW23476   5.214   4.381   5.116  0.2843 -0.4064  0.2342
38873SOL    HW123477   5.260   4.397   5.034  1.6002  0.2204  1.0558
38873SOL    HW223478   5.169   4.297   5.103  0.1477 -0.1196 -1.2457
38874SOL     OW23479   4.925   9.421   9.791 -0.6290  0.4768  0.5595
38874SOL    HW123480   4.929   9.366   9.870  1.0302 -0.6865 -0.2835
38874SOL    HW223481   4.831   9.433   9.776 -1.0073 -0.5980  1.8194
38875SOL     OW23482   0.980   8.685   6.128 -0.4297 -0.3466  0.3648
38875SOL    HW123483   1.037   8.710   6.201 -0.7732 -1.5199  1.0455
38875SOL    HW223484   0.902   8.740   6.138 -0.7993 -1.0238  1.3375
38876SOL     OW23485  10.050   6.280   0.537 -0.0334  0.2806 -0.3673
38876SOL    HW123486  10.132   6.237   0.510 -0.4936 -1.3395  0.6398
38876SOL    HW223487  10.017   6.321   0.457  0.2632 -1.6032 -1.5234
38877SOL     OW23488   5.527  10.685   4.889 -0.2027  0.2509 -0.1617
38877SOL    HW123489   5.443  10.642   4.870 -0.8745 -0.0671  2.9465
38877SOL    HW223490   5.591  10.614   4.888 -0.3620  0.1071 -0.3270
38878SOL     OW23491  12.194   9.134   9.553 -0.2896  0.3285 -0.2860
38878SOL    HW123492  12.250   9.212   9.555  0.7202 -0.3047 -2.0704
38878SOL    HW223493  12.106   9.167   9.572  0.3665  1.6288  0.6533
38879SOL     OW23494   3.433   6.485  11.655  0.0271 -0.3369  0.6577
38879SOL    HW123495   3.387   6.553  11.705 -0.9508 -0.7715  0.3763
38879SOL    HW223496   3.391   6.487  11.569  0.0968 -1.1863  0.5989
38880SOL     OW23497   4.466   6.323   6.729 -0.0605 -0.0466  0.2736
38880SOL    HW123498   4.511   6.355   6.807  0.3067  1.6152 -0.5783
38880SOL    HW223499   4.463   6.228   6.740  1.4457  0.0152  1.5319
38881SOL     OW23500  12.385   3.499   0.065  0.1603 -0.1038 -0.4549
38881SOL    HW123501  12.361   3.555  -0.008  0.7983  0.2496 -0.4059
38881SOL    HW223502  12.447   3.436   0.028 -1.4055 -1.5121 -0.7599
38882SOL     OW23503   3.796   1.392   5.589  0.2369 -0.2187  0.0966
38882SOL    HW123504   3.834   1.476   5.617  0.7265 -0.5401  0.4307
38882SOL    HW223505   3.860   1.327   5.619  0.2687 -0.6526 -0.8898
38883SOL     OW23506   1.974   9.994  10.463 -0.1999 -0.3326  0.1720
38883SOL    HW123507   1.933  10.068  10.507  0.9077  0.1642  0.3961
38883SOL    HW223508   1.995  10.026  10.375 -1.3777 -0.9711 -0.3733
38884SOL     OW23509   1.075   3.185   5.812  0.1667 -0.6591 -0.1260
38884SOL    HW123510   1.110   3.207   5.725 -0.6871 -1.4709 -0.6918
38884SOL    HW223511   1.071   3.269   5.858  1.5472 -0.3553 -0.5224
38885SOL     OW23512   5.743  12.003   3.442  0.2218  0.2697 -0.2293
38885SOL    HW123513   5.737  11.988   3.348 -0.2149  0.7090 -0.2722
38885SOL    HW223514   5.664  12.051   3.464 -0.6639 -1.5317  0.7065
38886SOL     OW23515   8.095   8.988   4.952 -0.6215 -0.1195 -0.0508
38886SOL    HW123516   8.018   8.932   4.966 -0.4708 -0.4417 -0.4801
38886SOL    HW223517   8.158   8.958   5.018 -0.5606 -0.4230 -0.2456
38887SOL     OW23518   5.078   4.103   4.333  0.1443  0.0760  0.5258
38887SOL    HW123519   5.036   4.104   4.420 -1.2424 -0.6374 -0.1072
38887SOL    HW223520   5.163   4.143   4.348 -0.1843  0.2550  2.1669
38888SOL     OW23521   4.442   6.213   3.970 -0.2855 -0.1510 -0.2330
38888SOL    HW123522   4.365   6.268   3.987  0.5975  0.4039  2.3763
38888SOL    HW223523   4.476   6.245   3.887  0.9171  4.3117  1.6646
38889SOL     OW23524  10.927   4.246   6.965  0.0236  0.5126 -0.2645
38889SOL    HW123525  10.961   4.176   6.908 -0.5178 -0.8149  0.9934
38889SOL    HW223526  10.957   4.326   6.923 -0.9194 -0.3534 -2.8330
38890SOL     OW23527   1.452   3.301   4.182  0.5897  0.2183 -0.5603
38890SOL    HW123528   1.421   3.390   4.197  0.8878  0.2335  0.0085
38890SOL    HW223529   1.479   3.300   4.090  2.0811  1.1891 -0.1716
38891SOL     OW23530   2.286   3.409   6.990  0.3084 -0.0353  0.4394
38891SOL    HW123531   2.346   3.382   6.921  0.0887 -0.1500  0.2924
38891SOL    HW223532   2.319   3.494   7.019  0.7463 -0.2579  0.6019
38892SOL     OW23533   2.902   3.597  11.235 -0.1353 -0.0748 -0.4703
38892SOL    HW123534   2.917   3.552  11.318 -1.4559 -0.1247 -0.2367
38892SOL    HW223535   2.967   3.668  11.234  0.0582 -0.2280  0.4787
38893SOL     OW23536   6.225   5.794   2.331 -0.6408 -0.0879 -0.7267
38893SOL    HW123537   6.183   5.755   2.255 -1.5459 -0.7668  0.0824
38893SOL    HW223538   6.152   5.813   2.391  0.2414 -2.4131  1.2503
38894SOL     OW23539   6.815  11.471  10.903  0.9587  0.1490 -0.2857
38894SOL    HW123540   6.752  11.519  10.848  0.5781  0.8485  0.7326
38894SOL    HW223541   6.900  11.510  10.881  0.8680  0.1331 -0.6816
38895SOL     OW23542  10.252   8.064  10.165 -0.0250 -0.0268 -0.0445
38895SOL    HW123543  10.331   8.011  10.174 -0.0322 -0.0423 -0.0762
38895SOL    HW223544  10.250   8.089  10.073  1.6886  2.6705  0.5356
38896SOL     OW23545   4.887  10.267   7.044  0.5015 -0.6174 -0.2408
38896SOL    HW123546   4.832  10.201   7.084  0.1469 -0.8756 -1.1197
38896SOL    HW223547   4.940  10.302   7.115 -0.5116 -0.6444  0.5443
38897SOL     OW23548   6.117  10.422  11.535 -0.0358 -0.0169 -0.4494
38897SOL    HW123549   6.073  10.343  11.569  1.7923 -0.6578  0.5744
38897SOL    HW223550   6.140  10.400  11.445 -0.2147 -0.3481 -0.4169
38898SOL     OW23551   9.446   3.891   1.101 -0.4827  0.1323 -0.1464
38898SOL    HW123552   9.510   3.821   1.113  0.6291  1.1112 -0.2245
38898SOL    HW223553   9.383   3.879   1.172 -1.3889 -2.0530 -1.2034
38899SOL     OW23554   8.788  10.782   9.906  0.4529 -0.1627 -0.3223
38899SOL    HW123555   8.804  10.862   9.856  0.3476  2.9355  3.9451
38899SOL    HW223556   8.875  10.755   9.936  0.4176 -1.3136 -1.2094
38900SOL     OW23557   0.846   5.581   7.771 -0.3159 -0.3069 -0.5373
38900SOL    HW123558   0.881   5.614   7.688  0.3781  0.9939  0.2478
38900SOL    HW223559   0.751   5.594   7.763 -0.2840 -0.4219 -1.2101
38901SOL     OW23560   6.893   9.092   9.573 -0.1453  0.0354 -0.0706
38901SOL    HW123561   6.910   9.186   9.568  0.0589 -0.0200 -0.4703
38901SOL    HW223562   6.805   9.086   9.609  0.6829  0.3278  2.2083
38902SOL     OW23563  11.941   2.120   9.910  0.1432  0.2819 -0.2661
38902SOL    HW123564  11.883   2.108   9.835  0.3185  1.2736 -0.5829
38902SOL    HW223565  11.944   2.035   9.952 -0.4841 -0.1243 -1.0096
38903SOL     OW23566   1.164   0.734  10.393  0.0669 -0.1287  0.0278
38903SOL    HW123567   1.191   0.775  10.475  1.5935  0.2137 -0.6195
38903SOL    HW223568   1.162   0.641  10.412  0.6359 -0.0706  0.3993
38904SOL     OW23569   8.399   5.679   1.075 -0.4557  0.6310  0.0958
38904SOL    HW123570   8.380   5.625   0.999 -2.5198  0.3080  0.7948
38904SOL    HW223571   8.316   5.687   1.121  0.6767  0.9945  2.2176
38905SOL     OW23572  12.578  11.191  10.882  0.4111 -0.1104  0.4950
38905SOL    HW123573  12.593  11.119  10.943  2.3424 -0.2015 -0.0171
38905SOL    HW223574  12.521  11.154  10.814 -0.5493 -0.4279  1.4439
38906SOL     OW23575   2.067   6.968   7.431  0.5637  1.0345 -0.3449
38906SOL    HW123576   2.102   7.047   7.390 -2.2613  2.4967 -0.1595
38906SOL    HW223577   2.016   6.925   7.363  0.6776  0.2867  0.0270
38907SOL     OW23578   1.336   4.135   9.499  0.4525 -0.4414 -0.0025
38907SOL    HW123579   1.398   4.187   9.551 -0.7282  0.7874  0.2348
38907SOL    HW223580   1.311   4.194   9.428  0.8058 -1.5305 -1.0533
38908SOL     OW23581   0.155  10.667   1.830 -0.1265  0.1760 -0.4008
38908SOL    HW123582   0.167  10.626   1.915  0.3873  0.6571 -0.2302
38908SOL    HW223583   0.241  10.661   1.788 -0.4545 -0.3415 -1.0200
38909SOL     OW23584   3.147  10.746   6.253  0.0624  0.0538  0.8222
38909SOL    HW123585   3.191  10.707   6.177  0.8074  0.5937  0.9770
38909SOL    HW223586   3.218  10.778   6.309 -0.5285  2.2492  0.3948
38910SOL     OW23587   4.424   1.881   4.536 -0.5799 -0.0055 -0.0686
38910SOL    HW123588   4.360   1.943   4.500 -0.9507 -0.2157  0.2385
38910SOL    HW223589   4.378   1.798   4.541  0.0491 -0.4248 -0.8916
38911SOL     OW23590  11.265   7.606   4.707 -0.1495 -0.5594 -0.1068
38911SOL    HW123591  11.298   7.530   4.754  1.0992  0.4840  0.7845
38911SOL    HW223592  11.343   7.653   4.679 -0.8693  0.8436  0.1405
38912SOL     OW23593  10.880   0.715   0.698 -0.2212  0.5906 -0.2055
38912SOL    HW123594  10.915   0.783   0.755 -0.2043  1.0251 -0.7197
38912SOL    HW223595  10.919   0.734   0.612  0.0057 -0.2397 -0.2913
38913SOL     OW23596   2.542   8.510   1.857  0.2350  0.7189  0.1228
38913SOL    HW123597   2.465   8.566   1.870 -1.1280 -1.2166  0.9803
38913SOL    HW223598   2.531   8.474   1.769  0.4767  0.8911  0.0217
38914SOL     OW23599   1.686   1.465  11.018  0.2559 -0.6814 -0.2631
38914SOL    HW123600   1.714   1.556  11.008  0.0060 -0.6820 -1.0376
38914SOL    HW223601   1.745   1.416  10.960  1.1698 -1.1771  1.0427
38915SOL     OW23602  11.751   0.699   3.940  0.3871 -0.0331  0.0893
38915SOL    HW123603  11.748   0.701   3.845 -1.0755 -0.5623  0.0999
38915SOL    HW223604  11.796   0.780   3.965  1.9931 -0.5088 -1.0551
38916SOL     OW23605   4.239   6.241   2.710  0.0592  0.1610 -0.9500
38916SOL    HW123606   4.179   6.305   2.748 -0.8749 -0.1603 -1.8231
38916SOL    HW223607   4.315   6.241   2.768 -0.3611  1.3053 -0.3693
38917SOL     OW23608   3.163   2.332   4.696 -0.2696  0.4239 -0.6707
38917SOL    HW123609   3.165   2.302   4.605  0.9729 -0.3948 -0.3958
38917SOL    HW223610   3.074   2.363   4.709 -0.9443 -0.9868 -1.6850
38918SOL     OW23611  10.426   4.953   4.624 -0.2823  0.1934 -0.5978
38918SOL    HW123612  10.515   4.919   4.633 -0.0010  0.9237 -0.5999
38918SOL    HW223613  10.417   5.017   4.695 -0.9463 -0.1569 -0.3507
38919SOL     OW23614   4.630   5.556   0.429 -0.3850  0.1099  0.0303
38919SOL    HW123615   4.565   5.613   0.388 -1.2879 -1.7170 -1.1743
38919SOL    HW223616   4.670   5.509   0.356  2.1563  0.9409  0.7407
38920SOL     OW23617   6.413   8.125   8.826  0.0208  0.0397 -0.0762
38920SOL    HW123618   6.444   8.170   8.905 -0.9028  2.2648 -0.9220
38920SOL    HW223619   6.493   8.098   8.781  0.6346  1.1877  0.2860
38921SOL     OW23620   0.267  11.572   9.637 -0.6314  0.3141 -0.4440
38921SOL    HW123621   0.231  11.603   9.554 -0.6574  1.3915 -0.0558
38921SOL    HW223622   0.360  11.558   9.619 -0.9762 -1.2499 -1.1184
38922SOL     OW23623   4.156   7.872   7.932 -0.2388  0.6952  0.0136
38922SOL    HW123624   4.089   7.861   7.999 -1.4582  2.2030 -0.8812
38922SOL    HW223625   4.158   7.788   7.886 -0.0498 -0.0363  1.3217
38923SOL     OW23626  11.680  12.210   0.941 -0.1438  0.1450  0.0832
38923SOL    HW123627  11.650  12.291   0.983  0.9519  0.8725 -0.4819
38923SOL    HW223628  11.600  12.161   0.923 -0.9474  1.6916 -0.7562
38924SOL     OW23629   0.778   7.791   5.908 -0.6807 -0.2118  0.1631
38924SOL    HW123630   0.724   7.869   5.897  0.9821  1.1140  0.8740
38924SOL    HW223631   0.746   7.730   5.842  0.5702  2.5768 -3.3901
38925SOL     OW23632   5.427   0.337   8.885 -0.4480 -0.1056  0.7416
38925SOL    HW123633   5.334   0.316   8.878 -0.2449 -0.5725 -1.2302
38925SOL    HW223634   5.471   0.252   8.875  0.2129  0.2980  0.1210
38926SOL     OW23635  11.224   3.576   2.409  0.2189 -0.2220 -0.3228
38926SOL    HW123636  11.311   3.591   2.446  0.0111 -1.4914  0.7878
38926SOL    HW223637  11.239   3.562   2.316  1.0171  0.9955 -0.4002
38927SOL     OW23638   9.729  11.509   9.192 -0.1255 -0.5979 -0.1292
38927SOL    HW123639   9.741  11.431   9.246  1.9391 -0.3337 -0.1235
38927SOL    HW223640   9.744  11.479   9.102 -0.6678 -0.4587 -0.2716
38928SOL     OW23641   2.732   4.098   7.052 -1.0150 -0.1219 -0.3265
38928SOL    HW123642   2.804   4.117   7.112 -1.4323 -0.3768  0.2596
38928SOL    HW223643   2.757   4.017   7.009  0.4192  1.2652 -2.2865
38929SOL     OW23644  11.747   4.610  10.044  0.1027  0.3872  0.5851
38929SOL    HW123645  11.685   4.632  10.113  1.0233  1.0911  1.2286
38929SOL    HW223646  11.702   4.547   9.988 -1.2732  1.1033  0.8652
38930SOL     OW23647  12.485   5.445   8.333 -0.1617 -0.8685  0.2173
38930SOL    HW123648  12.522   5.528   8.362  1.1298 -0.9125 -1.2074
38930SOL    HW223649  12.507   5.383   8.403  1.1336 -0.5579  0.1035
38931SOL     OW23650   0.230  11.577   5.937  0.5028 -0.1998 -0.5251
38931SOL    HW123651   0.193  11.618   6.015  0.2437  0.5351 -1.0191
38931SOL    HW223652   0.267  11.495   5.968  2.1865  0.9775  0.7442
38932SOL     OW23653  10.711   3.639  11.889  0.2776 -0.5018  0.0087
38932SOL    HW123654  10.695   3.556  11.843  1.1088  0.0913 -1.4242
38932SOL    HW223655  10.637   3.694  11.865 -0.6229 -1.0134  1.5004
38933SOL     OW23656  11.685  12.310  12.193  0.1696 -0.5828  0.1347
38933SOL    HW123657  11.634  12.248  12.140  1.1523 -1.9618  0.7227
38933SOL    HW223658  11.634  12.390  12.193 -2.2132 -2.0059  1.0702
38934SOL     OW23659  11.837   8.013  12.348  0.2737  0.2243 -0.1032
38934SOL    HW123660  11.847   7.951  12.420 -0.5236 -0.1401 -0.2883
38934SOL    HW223661  11.825   7.958  12.270 -2.9417  0.4888  0.0586
38935SOL     OW23662   5.133   8.098   8.291  0.0309 -0.0554  0.4907
38935SOL    HW123663   5.128   8.036   8.218 -1.1326 -0.1256  0.6195
38935SOL    HW223664   5.108   8.047   8.368 -1.8876  0.7531  0.4616
38936SOL     OW23665   3.739   0.434   5.597  0.0506 -0.0124 -0.2815
38936SOL    HW123666   3.808   0.485   5.554  0.1680 -0.2615 -0.3858
38936SOL    HW223667   3.666   0.436   5.535  1.1001 -2.6036 -1.7151
38937SOL     OW23668   3.442  10.882   7.631 -0.0866 -0.1254  0.1919
38937SOL    HW123669   3.473  10.794   7.608  0.1590 -0.2854  1.0918
38937SOL    HW223670   3.520  10.937   7.624 -0.4000  0.1860 -1.1236
38938SOL     OW23671   0.062  10.257   9.303 -0.0508 -0.4566 -0.0617
38938SOL    HW123672  -0.031  10.237   9.297 -0.5347  0.9401  1.8619
38938SOL    HW223673   0.066  10.350   9.324  1.8035 -0.3823 -0.5502
38939SOL     OW23674   9.623   3.511   4.466 -0.0709  0.3071 -1.1831
38939SOL    HW123675   9.574   3.458   4.530  1.7109  0.7981  0.6983
38939SOL    HW223676   9.695   3.455   4.438  1.9091  1.6111  0.9246
38940SOL     OW23677   0.154   6.518   3.392  0.5353  0.3172 -0.6747
38940SOL    HW123678   0.227   6.579   3.381  0.1101  1.1184  0.6867
38940SOL    HW223679   0.175   6.471   3.472 -0.7202  0.9974  0.0771
38941SOL     OW23680   1.878   3.205   5.803 -0.4037 -0.1805 -0.2573
38941SOL    HW123681   1.793   3.230   5.837 -0.0148  0.9801 -0.0915
38941SOL    HW223682   1.888   3.114   5.828 -0.9567  0.0935  1.0469
38942SOL     OW23683   2.714   8.978   1.664  0.9937 -0.2041 -0.1246
38942SOL    HW123684   2.795   9.014   1.698  1.0990 -0.7157  0.1823
38942SOL    HW223685   2.655   8.974   1.740  1.4338 -1.9378  0.1867
38943SOL     OW23686   3.567   7.543   7.006  0.5592 -0.2630  0.0397
38943SOL    HW123687   3.520   7.473   7.050  0.4895  0.7942  1.7298
38943SOL    HW223688   3.571   7.614   7.070 -1.2895  2.1651 -2.2692
38944SOL     OW23689   5.166   7.265   9.160 -0.7313 -0.0499  0.2595
38944SOL    HW123690   5.142   7.203   9.091  1.6835  1.3355 -2.0639
38944SOL    HW223691   5.254   7.237   9.187 -0.6986  0.8025  1.0839
38945SOL     OW23692   3.711  11.035   2.067  0.1837 -0.3073  0.1069
38945SOL    HW123693   3.656  11.057   1.993 -0.5763 -2.0209  0.1329
38945SOL    HW223694   3.677  11.088   2.139  0.1080  0.3971 -0.4351
38946SOL     OW23695   9.449  10.686   0.629  0.5531 -0.3095  0.2949
38946SOL    HW123696   9.439  10.627   0.554  0.9611  0.0951 -0.0850
38946SOL    HW223697   9.543  10.696   0.639  0.4966 -0.2524  0.7774
38947SOL     OW23698   5.174   3.102   1.412 -0.3308 -0.2163  0.0956
38947SOL    HW123699   5.093   3.068   1.450 -0.6971  1.3151  0.7433
38947SOL    HW223700   5.211   3.027   1.366 -2.7095 -0.6867 -1.2419
38948SOL     OW23701  10.602   8.086   9.183  0.5328  0.1754  0.3251
38948SOL    HW123702  10.542   8.052   9.118 -0.7436  0.1377  1.4877
38948SOL    HW223703  10.548   8.105   9.260  2.0569 -0.2790  1.5830
38949SOL     OW23704   7.388   6.983   9.609  0.0129 -0.3427  0.3636
38949SOL    HW123705   7.479   7.001   9.633 -0.2354 -0.8517  1.7998
38949SOL    HW223706   7.337   7.048   9.658 -0.3452  1.1535 -1.8339
38950SOL     OW23707  10.216   4.532   1.622 -0.2364  0.0401  0.1903
38950SOL    HW123708  10.284   4.510   1.685  1.2572  0.0317 -1.3456
38950SOL    HW223709  10.225   4.626   1.608 -0.6125  0.0588  0.0569
38951SOL     OW23710   8.750   1.275   9.618  0.1072  0.5396 -0.6228
38951SOL    HW123711   8.823   1.235   9.571 -0.8288 -0.1666 -1.5158
38951SOL    HW223712   8.714   1.340   9.557 -0.1287  0.7480 -0.2669
38952SOL     OW23713   2.164   1.025  12.458  0.1113  0.5277  0.6282
38952SOL    HW123714   2.081   1.000  12.417 -1.3759  3.3146  1.7273
38952SOL    HW223715   2.173   0.965  12.532  0.0841 -1.0124 -0.5638
38953SOL     OW23716   5.006  10.491   3.994  0.1969 -0.3383  0.4463
38953SOL    HW123717   5.050  10.553   4.052  0.1237 -0.1156  0.2682
38953SOL    HW223718   5.074  10.465   3.931  0.1331 -0.1591  0.3015
38954SOL     OW23719   3.214   9.967   9.905  0.4424  0.0314 -0.2519
38954SOL    HW123720   3.294   9.935   9.862 -0.2710  0.6676 -2.1491
38954SOL    HW223721   3.145   9.913   9.868 -0.1590  0.2686  0.5058
38955SOL     OW23722   8.086   1.801   7.914  0.6808 -0.4546  0.6591
38955SOL    HW123723   8.131   1.839   7.990  0.6410  0.1531  0.3798
38955SOL    HW223724   8.100   1.864   7.843  0.0083 -0.6108  0.3765
38956SOL     OW23725  10.957   6.736   1.147  0.3745  0.2949  0.0374
38956SOL    HW123726  10.871   6.734   1.105 -0.6173 -1.1249  1.9756
38956SOL    HW223727  10.942   6.780   1.230  1.9699  1.6991 -0.3698
38957SOL     OW23728   5.388   2.396   0.672  0.0073 -0.0840  0.1700
38957SOL    HW123729   5.411   2.304   0.689  0.7131  0.5199  2.8911
38957SOL    HW223730   5.310   2.412   0.725  0.4239  1.1120  0.4456
38958SOL     OW23731   0.983   9.139   4.713  0.8999 -0.5064  0.0528
38958SOL    HW123732   1.015   9.089   4.638  2.3983 -0.1715  0.4488
38958SOL    HW223733   1.008   9.229   4.695  0.2398 -0.2424  0.4178
38959SOL     OW23734  11.589   7.264   7.847  0.2491 -0.0385 -0.3874
38959SOL    HW123735  11.675   7.307   7.847  0.0398  0.3884 -0.2531
38959SOL    HW223736  11.588   7.212   7.767  0.1924  0.8586 -0.9804
38960SOL     OW23737   7.868   0.436   1.389  0.0323 -0.1355  0.0185
38960SOL    HW123738   7.912   0.401   1.466 -0.2898 -0.0771  0.2313
38960SOL    HW223739   7.815   0.508   1.423  1.1698  0.9955 -0.4886
38961SOL     OW23740   3.249   9.879   3.080 -0.1858  0.6055  0.5546
38961SOL    HW123741   3.195   9.889   3.002 -1.0673 -1.2864  0.8570
38961SOL    HW223742   3.331   9.923   3.058 -0.8462  1.1605 -0.9653
38962SOL     OW23743   6.270   3.436   8.363  0.4008 -0.0423  0.1950
38962SOL    HW123744   6.274   3.345   8.393 -1.6261 -0.6985 -1.3019
38962SOL    HW223745   6.191   3.440   8.310  1.8964  1.9013 -2.0844
38963SOL     OW23746   2.711   7.477   0.775 -0.0526  0.0678  0.0481
38963SOL    HW123747   2.669   7.399   0.810 -2.5231 -0.0463 -2.7960
38963SOL    HW223748   2.640   7.527   0.736  2.0732  1.4121 -2.3949
38964SOL     OW23749   3.115  11.680   0.110  0.0482  0.4898  0.0611
38964SOL    HW123750   3.033  11.645   0.145 -0.4923 -0.2507 -1.8520
38964SOL    HW223751   3.178  11.665   0.181 -1.0997 -0.4674  0.9372
38965SOL     OW23752   1.121   3.427   9.930  0.8844  0.1301 -0.2047
38965SOL    HW123753   1.036   3.423   9.975  0.1067  1.5409 -1.4618
38965SOL    HW223754   1.111   3.368   9.856  1.0231  0.2559 -0.3224
38966SOL     OW23755   2.427   4.865   8.474 -0.6946 -0.2657  0.4160
38966SOL    HW123756   2.431   4.956   8.505 -1.5443  0.4908 -1.5013
38966SOL    HW223757   2.334   4.843   8.477 -1.0939  0.4637 -2.9926
38967SOL     OW23758   0.320   9.834   7.588  0.4791 -0.1492  0.4907
38967SOL    HW123759   0.398   9.797   7.629  0.5719 -0.8304 -0.2716
38967SOL    HW223760   0.331   9.816   7.494 -0.4164  0.0669  0.3321
38968SOL     OW23761   0.679   9.689  11.430  0.4966  0.3112  0.1795
38968SOL    HW123762   0.663   9.683  11.335 -0.7751 -0.3976  0.4029
38968SOL    HW223763   0.735   9.614  11.449 -1.2678 -1.0474  0.3230
38969SOL     OW23764   3.208   6.274   9.925 -0.3162  0.3465  0.0120
38969SOL    HW123765   3.296   6.313   9.927 -1.1968  2.4479 -0.5022
38969SOL    HW223766   3.225   6.180   9.931  2.0278  0.6246 -0.8881
38970SOL     OW23767   9.254  10.630  12.297  0.3292  0.4400  0.4198
38970SOL    HW123768   9.313  10.580  12.354 -0.5750 -2.6480 -1.1118
38970SOL    HW223769   9.171  10.632  12.344  0.3528  0.4321  0.4619
38971SOL     OW23770   0.724   2.976   7.459 -0.0655  0.1269  0.4775
38971SOL    HW123771   0.647   2.920   7.471  0.6638 -0.6579  1.7928
38971SOL    HW223772   0.690   3.055   7.417 -1.7235  0.0854  1.6372
38972SOL     OW23773   6.119  12.321   2.540  0.0331  0.5348 -0.4376
38972SOL    HW123774   6.109  12.320   2.445  0.5252  0.1060 -0.4897
38972SOL    HW223775   6.032  12.298   2.574 -0.0099  0.1553 -0.7982
38973SOL     OW23776   1.585   1.642   2.271 -0.1088 -0.3435  0.3970
38973SOL    HW123777   1.574   1.550   2.294 -1.1790 -0.2005  0.5204
38973SOL    HW223778   1.619   1.683   2.350 -1.5222 -0.2832  1.0016
38974SOL     OW23779   5.135   9.098   2.220 -0.1710  0.0370 -0.1726
38974SOL    HW123780   5.179   9.166   2.169  0.0604  0.2867  0.3478
38974SOL    HW223781   5.196   9.079   2.291 -1.0002  0.5673  0.7095
38975SOL     OW23782   9.482  11.177   2.421  0.1730 -0.5419  0.5584
38975SOL    HW123783   9.553  11.161   2.483  0.6496  0.9038  0.4474
38975SOL    HW223784   9.507  11.259   2.378 -0.8673 -0.7568 -0.5078
38976SOL     OW23785  10.449   9.184   3.793  0.4826  0.3601  0.1241
38976SOL    HW123786  10.525   9.145   3.837  0.4619  1.1789  0.9254
38976SOL    HW223787  10.376   9.127   3.818  0.6014  0.3789  0.5299
38977SOL     OW23788   9.396   9.280   8.343  0.0718 -0.3039 -0.2119
38977SOL    HW123789   9.374   9.373   8.343 -1.7341 -0.6956 -0.8089
38977SOL    HW223790   9.376   9.250   8.431  0.1537 -0.2420 -0.1721
38978SOL     OW23791  10.952   5.342   8.856 -0.0865 -0.0286 -0.6015
38978SOL    HW123792  10.884   5.277   8.870 -0.9630  0.5909 -1.7715
38978SOL    HW223793  10.971   5.377   8.943 -2.4528  0.9128 -0.3836
38979SOL     OW23794  11.571   3.078  11.328  0.1786 -0.6401  0.3087
38979SOL    HW123795  11.652   3.033  11.305  0.5063 -1.1366  2.2126
38979SOL    HW223796  11.536   3.029  11.402 -0.0579  1.5104  1.7317
38980SOL     OW23797  12.310  12.383   2.193 -0.4360  0.1327 -0.3740
38980SOL    HW123798  12.324  12.328   2.116  1.5167 -0.3783  0.2839
38980SOL    HW223799  12.380  12.356   2.254 -2.1586  0.2096  1.7464
38981SOL     OW23800   7.321  10.432   6.417  0.8061 -0.3179 -0.0793
38981SOL    HW123801   7.302  10.461   6.327 -1.1590  0.1210  0.4409
38981SOL    HW223802   7.377  10.501   6.452  2.6359 -1.0964 -1.3256
38982SOL     OW23803   5.688  11.932  11.694 -0.0165  0.1704 -0.6160
38982SOL    HW123804   5.696  11.838  11.682  1.6697  0.1865  0.0630
38982SOL    HW223805   5.705  11.969  11.607 -1.3908 -0.1539 -1.0405
38983SOL     OW23806  10.744   6.042  10.321  0.0486 -0.0566 -0.0759
38983SOL    HW123807  10.721   6.115  10.377 -3.1211 -1.6183  0.8754
38983SOL    HW223808  10.716   6.068  10.233  1.8714  1.0428 -0.3722
38984SOL     OW23809   4.156   9.902   4.858 -0.8910 -0.1825  0.1280
38984SOL    HW123810   4.225   9.867   4.914 -0.0707 -0.6806 -1.1476
38984SOL    HW223811   4.107   9.825   4.829 -1.5632  0.1075  0.4608
38985SOL     OW23812  10.657   1.190   8.190  0.3364 -0.4757  0.2512
38985SOL    HW123813  10.716   1.265   8.180 -1.4888  0.9498 -0.2292
38985SOL    HW223814  10.598   1.215   8.261 -1.3581 -0.7129 -1.0167
38986SOL     OW23815   4.494   2.027   0.774  0.0690 -0.7645  0.0266
38986SOL    HW123816   4.572   2.076   0.800  0.0571 -0.7979  0.1263
38986SOL    HW223817   4.430   2.046   0.842 -0.2761 -0.1020 -0.4696
38987SOL     OW23818   8.572   5.402   1.846 -0.1124  0.2993 -0.7708
38987SOL    HW123819   8.633   5.408   1.920  1.1855 -0.5567 -1.7348
38987SOL    HW223820   8.572   5.490   1.808  0.6752  0.2611 -0.8727
38988SOL     OW23821   0.209  10.242   1.967  0.1694  0.4286 -0.1099
38988SOL    HW123822   0.300  10.250   1.937  0.4209  0.5477  0.6463
38988SOL    HW223823   0.156  10.265   1.891  0.7698  0.2105 -0.6053
38989SOL     OW23824   3.146  11.970   2.595 -0.2544  0.1158 -0.1802
38989SOL    HW123825   3.127  11.879   2.619 -1.3055  0.3485 -0.0722
38989SOL    HW223826   3.226  11.991   2.642 -0.6943 -0.3598  0.8135
38990SOL     OW23827   5.435   6.404   2.799  0.2082 -0.3367  0.0312
38990SOL    HW123828   5.353   6.355   2.798 -0.6846  1.0898 -0.7553
38990SOL    HW223829   5.424   6.469   2.730  2.1602 -0.3373 -0.3248
38991SOL     OW23830  12.066  12.419   3.752 -0.0443  0.3935 -0.4442
38991SOL    HW123831  12.127  12.353   3.720  0.3528 -0.0610  1.1908
38991SOL    HW223832  12.087  12.498   3.701  0.8312 -0.1875 -1.0016
38992SOL     OW23833   1.659   1.515   1.882 -0.5381  0.2191  0.5550
38992SOL    HW123834   1.742   1.468   1.884  1.0196  2.7821  0.8084
38992SOL    HW223835   1.643   1.532   1.789 -1.1380 -0.8227  0.4584
38993SOL     OW23836  10.466   5.619  12.355  0.5662 -0.0216 -0.6609
38993SOL    HW123837  10.553   5.657  12.351  0.0954  1.3316  1.1064
38993SOL    HW223838  10.481   5.525  12.369  1.8661  0.5957  3.2282
38994SOL     OW23839   7.596   9.836   0.227 -0.0680 -0.1488 -0.4696
38994SOL    HW123840   7.617   9.779   0.152  0.7430  0.2665 -0.5714
38994SOL    HW223841   7.501   9.837   0.231 -0.1216 -2.5337  0.3141
38995SOL     OW23842   6.508  10.322  12.409  0.7549  0.0556 -0.1494
38995SOL    HW123843   6.451  10.251  12.377 -1.0916  1.6409 -0.5890
38995SOL    HW223844   6.528  10.297  12.499 -0.6433 -0.5944  0.0214
38996SOL     OW23845   0.050   5.859   6.821  0.3550  0.0399  0.2662
38996SOL    HW123846  -0.018   5.791   6.822  0.2556  0.0290 -1.9441
38996SOL    HW223847   0.072   5.869   6.729  0.0707  3.3511  0.4444
38997SOL     OW23848   8.904   8.170   0.215  0.3353  0.4542 -0.6006
38997SOL    HW123849   8.852   8.245   0.244  0.6685  0.3925  0.1747
38997SOL    HW223850   8.994   8.194   0.236  0.3989 -0.3787  0.1464
38998SOL     OW23851   2.139   0.780   7.409  0.1209  0.3574 -0.2448
38998SOL    HW123852   2.203   0.851   7.417 -0.5693  0.9214  0.3835
38998SOL    HW223853   2.120   0.776   7.315  1.3887 -0.1164 -0.5062
38999SOL     OW23854   8.660   7.062   9.872 -0.1250 -0.8202  0.3172
38999SOL    HW123855   8.578   7.110   9.883 -0.4428 -1.2824 -0.0223
38999SOL    HW223856   8.703   7.105   9.799 -0.6107 -1.3145 -0.2723
39000SOL     OW23857   7.456  12.301   3.893 -0.7099  0.3529  0.2956
39000SOL    HW123858   7.508  12.239   3.944 -2.0912 -1.2420 -0.1520
39000SOL    HW223859   7.366  12.269   3.900 -1.1159  0.8069 -2.1151
39001SOL     OW23860   0.900   6.986   5.093 -0.5254 -0.0141  0.6407
39001SOL    HW123861   0.987   6.954   5.073 -0.3239  0.8435  0.1102
39001SOL    HW223862   0.914   7.069   5.137 -1.0786  0.3337  0.1832
39002SOL     OW23863   4.845   9.386   3.341 -0.1972  0.4581  0.1578
39002SOL    HW123864   4.921   9.328   3.343  0.8332  1.8039  1.1286
39002SOL    HW223865   4.881   9.474   3.334 -1.7573  0.9896 -2.4269
39003SOL     OW23866   6.017   5.875   1.488  0.4564  0.3551  0.0930
39003SOL    HW123867   6.078   5.933   1.442  2.8618 -0.9402  1.4506
39003SOL    HW223868   5.931   5.912   1.471  1.7650  3.6323 -0.0500
39004SOL     OW23869   7.268   8.815   0.978  0.0522 -0.4031  0.5662
39004SOL    HW123870   7.231   8.733   1.011 -1.0575 -0.2174 -0.1719
39004SOL    HW223871   7.312   8.791   0.896 -1.2684 -0.0954 -0.2594
39005SOL     OW23872   5.714   3.665  12.338  0.1179  1.0901  0.2726
39005SOL    HW123873   5.723   3.608  12.415  0.4420  1.1649  0.2912
39005SOL    HW223874   5.635   3.633  12.294  1.4695 -0.8173 -0.9141
39006SOL     OW23875   8.084   4.704  12.509  0.2180  0.4756  0.4639
39006SOL    HW123876   8.007   4.761  12.499 -0.0682 -0.2149 -1.8853
39006SOL    HW223877   8.154   4.764  12.535 -0.7789  1.3515  1.2474
39007SOL     OW23878  10.353   9.487   4.578 -0.2201  0.1603  0.6384
39007SOL    HW123879  10.432   9.539   4.592 -0.3881  0.5592  0.1569
39007SOL    HW223880  10.320   9.516   4.493 -0.0089 -1.1461  0.0874
39008SOL     OW23881   4.984   2.293   4.480 -0.3238  0.1970 -0.4371
39008SOL    HW123882   5.067   2.324   4.515 -0.4363 -0.0839  0.0812
39008SOL    HW223883   4.953   2.366   4.426  0.8548 -0.1776 -1.6677
39009SOL     OW23884  11.646   2.711   0.218  0.3928 -0.1787 -0.4027
39009SOL    HW123885  11.661   2.667   0.134 -0.0168  1.0794 -1.1658
39009SOL    HW223886  11.727   2.697   0.267  0.6719 -0.8678 -1.0391
39010SOL     OW23887  11.190   5.850  10.963  0.2510 -0.3280  0.4664
39010SOL    HW123888  11.256   5.915  10.985 -0.4356  0.0665  1.4358
39010SOL    HW223889  11.150   5.882  10.882  0.2896  0.1682  0.6420
39011SOL     OW23890   4.113   2.709   8.313  0.0497  0.5934 -0.0297
39011SOL    HW123891   4.103   2.625   8.269 -0.5975  0.4784  0.3216
39011SOL    HW223892   4.167   2.761   8.253 -0.0842  0.1471 -0.5500
39012SOL     OW23893   4.611   2.861   8.819  0.2193 -0.1819 -0.2242
39012SOL    HW123894   4.620   2.801   8.745  0.4496 -2.1286  1.2824
39012SOL    HW223895   4.700   2.890   8.838  0.6534 -2.2036  1.1792
39013SOL     OW23896   4.907   5.485   4.630  0.1477  0.0991 -0.0508
39013SOL    HW123897   4.870   5.438   4.704 -0.0101  0.6440  0.2272
39013SOL    HW223898   4.996   5.453   4.622 -0.8569 -2.6078 -1.8761
39014SOL     OW23899  11.062   6.411   8.713  0.0971  0.1653 -0.2931
39014SOL    HW123900  11.080   6.344   8.647 -0.3044 -0.2819  0.0386
39014SOL    HW223901  11.094   6.492   8.675 -0.6892  0.0161 -1.2995
39015SOL     OW23902   4.328   5.198   1.379 -0.5353  0.2211  0.0977
39015SOL    HW123903   4.420   5.205   1.405  0.0297  1.0550 -1.9276
39015SOL    HW223904   4.313   5.104   1.369 -0.0734  0.0490  0.8977
39016SOL     OW23905   4.283   4.268   4.232  0.3688  0.2024  0.0518
39016SOL    HW123906   4.227   4.335   4.192 -0.0361 -0.3818 -0.3866
39016SOL    HW223907   4.305   4.304   4.318 -0.4992  0.5513  0.1461
39017SOL     OW23908   8.897   4.698   2.782 -0.4047 -0.1032 -0.4132
39017SOL    HW123909   8.980   4.661   2.814  0.0418  0.4643 -0.8964
39017SOL    HW223910   8.831   4.634   2.809  0.2405 -0.7849 -0.3933
39018SOL     OW23911   0.721   6.619   4.305  1.1165 -0.2448 -0.7487
39018SOL    HW123912   0.783   6.664   4.249  1.5691 -0.1467 -0.1852
39018SOL    HW223913   0.687   6.688   4.363  1.3997 -0.5113 -0.2515
39019SOL     OW23914   1.452   9.791   9.882 -0.2175 -0.0223 -0.1416
39019SOL    HW123915   1.528   9.795   9.939 -0.1072 -1.5619 -0.1344
39019SOL    HW223916   1.470   9.717   9.823 -2.0391 -0.9759  0.3982
39020SOL     OW23917  11.468   9.508   2.022  0.0457  0.0722  0.5004
39020SOL    HW123918  11.421   9.425   2.020 -0.9174  0.6097  0.1288
39020SOL    HW223919  11.417   9.563   2.082  0.1555  0.6862  0.0420
39021SOL     OW23920   2.865   5.201   5.328 -0.3332 -0.1852 -0.3318
39021SOL    HW123921   2.803   5.155   5.272 -1.5701 -0.4489  1.1647
39021SOL    HW223922   2.812   5.264   5.377  0.4383 -0.8383  1.4411
39022SOL     OW23923   8.154   9.007   1.746  0.3229 -0.2667  0.1181
39022SOL    HW123924   8.096   9.077   1.776  0.6526  0.0373  0.0522
39022SOL    HW223925   8.242   9.039   1.765  0.4554 -1.0308  0.8782
39023SOL     OW23926   5.900   5.461  12.258 -0.1939 -0.3209  0.4432
39023SOL    HW123927   5.859   5.499  12.181  2.1232  0.0235 -0.6965
39023SOL    HW223928   5.901   5.367  12.241 -0.1111 -0.2882  0.2660
39024SOL     OW23929   5.052   4.862  10.394  0.3008  0.0214 -0.3641
39024SOL    HW123930   5.108   4.848  10.471 -0.5754 -0.1049  0.2656
39024SOL    HW223931   5.012   4.948  10.409 -2.8654 -1.5522  1.3315
39025SOL     OW23932   4.487   4.936   4.516  0.1391 -0.1915 -0.2965
39025SOL    HW123933   4.494   4.845   4.486 -0.5725 -0.6107  0.7717
39025SOL    HW223934   4.448   4.982   4.441 -0.4700 -0.9722 -0.4798
39026SOL     OW23935   7.047   6.126   7.455 -0.1278 -0.1631  0.2653
39026SOL    HW123936   6.971   6.068   7.448  0.4899 -1.0796  0.9686
39026SOL    HW223937   7.110   6.076   7.507  0.3558  1.2034  1.0319
39027SOL     OW23938   0.316   5.019   7.816 -0.5907  0.5086 -0.2737
39027SOL    HW123939   0.221   5.011   7.803 -0.8169 -1.3598  1.7641
39027SOL    HW223940   0.328   5.106   7.853 -1.5311  0.7318 -0.4616
39028SOL     OW23941   1.806  12.137   5.907 -0.3422  0.3082  0.2724
39028SOL    HW123942   1.733  12.076   5.900  1.7190 -2.1275 -2.4208
39028SOL    HW223943   1.855  12.108   5.984 -0.3133 -0.3867 -0.0018
39029SOL     OW23944   8.029   8.080   2.107  0.6464 -0.3831 -0.0282
39029SOL    HW123945   8.041   8.175   2.108  1.1370 -0.4391 -0.1836
39029SOL    HW223946   8.039   8.053   2.198 -0.1756 -0.2090  0.1176
39030SOL     OW23947  10.506   5.040   7.742 -0.1427  0.1392  0.3332
39030SOL    HW123948  10.601   5.032   7.749 -0.1545 -0.4603 -0.1309
39030SOL    HW223949  10.484   5.000   7.658 -0.9093 -0.6721  0.8878
39031SOL     OW23950  10.840   7.930   7.418 -0.0370 -0.9234 -0.4587
39031SOL    HW123951  10.850   8.018   7.382 -0.5080 -0.2905  0.9012
39031SOL    HW223952  10.926   7.890   7.407  0.4610  0.0486 -0.2016
39032SOL     OW23953   2.498   8.921   3.802 -0.3760 -0.0646  0.5793
39032SOL    HW123954   2.434   8.850   3.808 -1.0148  0.2437 -1.8087
39032SOL    HW223955   2.533   8.929   3.891 -2.7940 -1.0165  1.6909
39033SOL     OW23956   9.767   1.820   1.587  0.5131  0.0548 -0.1926
39033SOL    HW123957   9.689   1.833   1.533  0.9701 -0.1914 -0.9328
39033SOL    HW223958   9.749   1.739   1.635  0.5755 -0.3640 -0.8573
39034SOL     OW23959  12.404   4.166   2.689  0.0580 -0.9201  0.2908
39034SOL    HW123960  12.375   4.209   2.770  0.3829 -1.1015  0.5058
39034SOL    HW223961  12.340   4.097   2.674 -0.6733 -0.1527 -0.2474
39035SOL     OW23962   3.903   9.340  10.202  0.3951 -0.3520 -0.3136
39035SOL    HW123963   3.991   9.325  10.236  0.7001 -1.7143 -1.6170
39035SOL    HW223964   3.917   9.381  10.117 -0.1612 -1.9560 -1.2044
39036SOL     OW23965   8.390  12.153  11.206 -0.3851  0.4569  0.0222
39036SOL    HW123966   8.340  12.075  11.182  0.3437  0.1309 -0.4776
39036SOL    HW223967   8.432  12.181  11.125 -1.2378  1.8378  0.0164
39037SOL     OW23968   3.120   3.395  11.164  0.1034  0.2359  0.0159
39037SOL    HW123969   3.045   3.353  11.208 -0.6587  2.2440  0.7728
39037SOL    HW223970   3.146   3.332  11.097 -0.8492 -1.4929  1.1598
39038SOL     OW23971  10.267   9.906   6.095  0.1124  0.1401  0.4877
39038SOL    HW123972  10.206   9.979   6.093 -0.4477 -0.2794  1.6395
39038SOL    HW223973  10.215   9.831   6.122  0.2619 -1.1410 -2.4054
39039SOL     OW23974   8.656   0.556   9.114  0.6760  0.6836  0.5581
39039SOL    HW123975   8.728   0.507   9.075 -0.2967 -1.0932  0.8680
39039SOL    HW223976   8.644   0.517   9.201 -1.8282 -0.4197 -0.1861
39040SOL     OW23977   8.837   7.718  12.138  0.3192  0.1715  0.2663
39040SOL    HW123978   8.766   7.669  12.096  0.5564 -0.3343  0.4532
39040SOL    HW223979   8.910   7.709  12.077 -0.1574  1.8853 -0.6435
39041SOL     OW23980   1.558   3.428   6.436  0.4975  0.2671  0.3418
39041SOL    HW123981   1.478   3.475   6.461 -1.0435 -1.1912 -1.5692
39041SOL    HW223982   1.569   3.361   6.503  0.4519  0.8005  0.8947
39042SOL     OW23983   0.698   2.027   0.476  0.1674  0.1083 -0.2704
39042SOL    HW123984   0.612   2.029   0.517  0.6845  2.4720  0.8472
39042SOL    HW223985   0.681   2.030   0.382 -0.9771  0.7294 -0.0530
39043SOL     OW23986   0.609  11.778  12.521 -0.7413 -0.2095 -0.1820
39043SOL    HW123987   0.539  11.726  12.482 -1.0367  1.6031 -2.2851
39043SOL    HW223988   0.680  11.773  12.458  0.6795 -1.1520  1.4280
39044SOL     OW23989   1.194   9.021   0.114  0.6801  0.3586  0.5592
39044SOL    HW123990   1.176   8.969   0.035  1.9319  1.1735 -0.2979
39044SOL    HW223991   1.121   9.000   0.173 -1.2403  1.0012 -1.4378
39045SOL     OW23992   5.577  11.726   8.638 -0.1879  0.2940 -0.3935
39045SOL    HW123993   5.614  11.723   8.726 -0.2706 -1.2256 -0.3779
39045SOL    HW223994   5.499  11.672   8.643  0.4813 -0.8628 -1.6666
39046SOL     OW23995   7.852   7.730   4.587  0.1806 -0.4599 -0.0079
39046SOL    HW123996   7.835   7.648   4.632  0.8210  0.2192  1.5768
39046SOL    HW223997   7.766   7.768   4.571 -0.1019  0.4624  3.0619
39047SOL     OW23998   8.839   7.618   2.724 -0.1193  0.0606  0.0585
39047SOL    HW123999   8.917   7.579   2.686 -0.3291  0.7622 -1.1628
39047SOL    HW224000   8.826   7.572   2.807  2.1704  0.6236  0.8030
39048SOL     OW24001   2.217   3.832  12.393  0.2598 -0.2507  0.3887
39048SOL    HW124002   2.236   3.921  12.422 -1.6872  1.3257 -2.6739
39048SOL    HW224003   2.122   3.828  12.387  0.3351 -2.2135 -0.4918
39049SOL     OW24004   9.664  11.147   8.731  0.1365 -0.0840  0.2662
39049SOL    HW124005   9.745  11.097   8.741  0.7090  1.1915  2.8056
39049SOL    HW224006   9.674  11.192   8.647  1.1249 -1.5164 -0.4260
39050SOL     OW24007   7.802  12.180   1.459 -0.8346 -0.6116  0.5274
39050SOL    HW124008   7.819  12.232   1.538 -1.9086  0.9361 -0.2117
39050SOL    HW224009   7.830  12.236   1.387  1.1257 -2.4245 -0.2010
39051SOL     OW24010   8.170   3.479  10.085  0.3347  0.4717 -0.0057
39051SOL    HW124011   8.168   3.423  10.008 -0.7038  0.6964 -0.1621
39051SOL    HW224012   8.219   3.429  10.150  0.4399 -0.1041 -0.5208
39052SOL     OW24013   8.737   3.511  10.951 -0.2949 -0.4075  0.2581
39052SOL    HW124014   8.674   3.494  11.021 -0.9887 -1.0155 -0.4975
39052SOL    HW224015   8.697   3.581  10.899  0.6431  0.7010  0.9672
39053SOL     OW24016  10.205   2.223   1.237  0.5822  0.0485  0.0088
39053SOL    HW124017  10.136   2.157   1.244 -2.5988  2.9003 -0.9041
39053SOL    HW224018  10.275   2.181   1.188 -0.9258 -2.8099  0.1396
39054SOL     OW24019   8.441   8.877   9.461 -0.2621  0.5228 -0.2581
39054SOL    HW124020   8.480   8.843   9.380  0.9069  0.8840  0.1312
39054SOL    HW224021   8.400   8.800   9.501  0.7751 -0.0653 -0.2861
39055SOL     OW24022  12.146   0.779   2.261  0.7589  0.7689  0.4577
39055SOL    HW124023  12.141   0.684   2.251 -0.1472  0.8038  0.5244
39055SOL    HW224024  12.150   0.812   2.171 -0.2193  0.7235  0.3882
39056SOL     OW24025   8.002   4.969  11.391  0.6411  0.0376 -0.3903
39056SOL    HW124026   8.024   5.007  11.306  1.3512 -2.9151 -1.6608
39056SOL    HW224027   8.064   5.009  11.452  1.3970  0.8253 -1.6327
39057SOL     OW24028   3.184   0.473  10.126  0.1394 -0.3268 -0.2108
39057SOL    HW124029   3.141   0.447  10.044  0.2634  0.2872 -0.4856
39057SOL    HW224030   3.230   0.554  10.103  0.6083 -0.4348  0.3364
39058SOL     OW24031   2.058  11.968   3.754 -0.3838 -0.3696  0.0515
39058SOL    HW124032   2.038  11.891   3.701  0.1058 -0.6333  0.2458
39058SOL    HW224033   2.151  11.984   3.740 -0.9224  1.5796 -1.8175
39059SOL     OW24034   1.021   3.009  12.347  0.2914  0.5662 -0.3107
39059SOL    HW124035   0.989   2.988  12.259 -0.3419  1.4219 -0.3099
39059SOL    HW224036   0.967   2.955  12.405  0.4908  0.2350 -0.4325
39060SOL     OW24037   8.066  11.784   7.878  0.4650  0.0508 -0.3248
39060SOL    HW124038   8.149  11.813   7.841  0.6271 -0.2684 -0.2083
39060SOL    HW224039   8.044  11.851   7.943 -0.5987  1.4673 -2.0383
39061SOL     OW24040   0.622   5.299   3.739  0.3599  0.3250 -0.0971
39061SOL    HW124041   0.678   5.254   3.675  1.1254  0.2212  0.6328
39061SOL    HW224042   0.538   5.255   3.731  0.2933  0.6400 -1.3848
39062SOL     OW24043   4.787   1.584   0.209 -0.9306 -0.0908  0.1543
39062SOL    HW124044   4.792   1.673   0.175 -2.6965 -0.4772 -1.3085
39062SOL    HW224045   4.738   1.592   0.291 -2.2977  0.1760 -0.6535
39063SOL     OW24046   0.290   6.499  10.140  0.2961 -0.7408 -0.3209
39063SOL    HW124047   0.259   6.409  10.137  2.8378 -1.6720 -2.2992
39063SOL    HW224048   0.288   6.529  10.049 -2.2099  1.9382  0.4677
39064SOL     OW24049   3.705  11.199  12.196 -0.0898 -0.4147  0.4375
39064SOL    HW124050   3.615  11.220  12.171  0.9761  1.3276 -2.4400
39064SOL    HW224051   3.747  11.285  12.204  1.5414 -1.2250  0.8040
39065SOL     OW24052   4.612   2.432   6.742  0.6471  0.0472  0.0251
39065SOL    HW124053   4.604   2.501   6.677  0.4076 -0.5222 -0.5570
39065SOL    HW224054   4.699   2.445   6.781  0.2883  1.1498  0.4789
39066SOL     OW24055   3.280  11.224  10.913  0.1636 -0.2802  0.1738
39066SOL    HW124056   3.352  11.208  10.852  0.7323  3.5059 -0.3729
39066SOL    HW224057   3.309  11.298  10.965 -2.9639  0.8067  0.5713
39067SOL     OW24058   9.238   8.600   6.590  0.7266 -0.8469 -0.3816
39067SOL    HW124059   9.262   8.550   6.512  0.1553 -0.8698 -0.5455
39067SOL    HW224060   9.148   8.628   6.574  0.6945 -0.6306  0.1566
39068SOL     OW24061   8.109   3.138   3.536 -0.4075 -0.6769  0.2804
39068SOL    HW124062   8.181   3.148   3.475 -1.0536  0.1394 -0.3689
39068SOL    HW224063   8.065   3.222   3.535 -1.3713 -1.1608  0.6706
39069SOL     OW24064   5.176   7.982   3.463  0.0073  0.0977 -0.2740
39069SOL    HW124065   5.223   8.049   3.513 -0.7159  0.3710  0.0584
39069SOL    HW224066   5.240   7.912   3.450  0.7245  0.7808 -0.4802
39070SOL     OW24067   2.055  12.486   8.164 -0.2929  0.0549  0.3307
39070SOL    HW124068   2.012  12.571   8.153 -2.0461 -0.8233  0.0556
39070SOL    HW224069   2.100  12.492   8.248 -2.0417  0.6176  1.2656
39071SOL     OW24070   8.208   9.285   0.131 -0.1629  0.6750 -0.2810
39071SOL    HW124071   8.269   9.333   0.076 -0.2682 -0.0282 -1.0320
39071SOL    HW224072   8.263   9.240   0.195  0.1666 -0.3246 -1.2363
39072SOL     OW24073   3.457   3.107   9.224  0.2261  0.3152  0.7639
39072SOL    HW124074   3.460   3.202   9.239 -1.1284  0.3378  1.1025
39072SOL    HW224075   3.535   3.073   9.267  0.8070  1.2894  0.5091
39073SOL     OW24076  10.560   5.901   6.465  0.2494  0.2408  0.9499
39073SOL    HW124077  10.582   5.847   6.389 -2.0227 -0.6944  0.8878
39073SOL    HW224078  10.644   5.918   6.507  1.7127  1.4873 -2.1645
39074SOL     OW24079   5.676   8.832   4.909  0.3487  0.5381 -0.5275
39074SOL    HW124080   5.737   8.782   4.855  0.0242 -0.9053  0.3977
39074SOL    HW224081   5.731   8.895   4.955  0.8655  0.5857 -1.1981
39075SOL     OW24082   8.416  10.017   0.625 -0.4899 -0.0259 -0.2682
39075SOL    HW124083   8.453   9.966   0.553 -0.0849  2.6238 -2.0997
39075SOL    HW224084   8.324  10.030   0.600 -0.1182  1.7038 -0.8896
39076SOL     OW24085   4.491   6.552   6.004 -0.1320 -0.0168  0.5043
39076SOL    HW124086   4.462   6.462   6.015  2.4797 -1.0937 -0.5739
39076SOL    HW224087   4.419   6.596   5.959 -1.4216 -1.5485  1.0042
39077SOL     OW24088   6.349   0.844   9.845  0.2975 -0.5127 -0.6086
39077SOL    HW124089   6.436   0.813   9.819  0.0995 -0.3962 -1.4443
39077SOL    HW224090   6.327   0.792   9.922  1.6674  0.3834  0.4334
39078SOL     OW24091   0.647   6.111  11.480  0.5351  0.2939  0.3073
39078SOL    HW124092   0.557   6.125  11.451  0.7355  1.2525  0.1221
39078SOL    HW224093   0.680   6.042  11.422  0.3059  0.7999 -0.4396
39079SOL     OW24094   4.154   1.553   1.791  0.3317  0.3957  0.1736
39079SOL    HW124095   4.168   1.562   1.697  0.6824  0.6976  0.2523
39079SOL    HW224096   4.230   1.506   1.823  0.6240  1.0309  0.4279
39080SOL     OW24097   0.755   5.286   4.829 -0.0493 -0.0162 -0.7358
39080SOL    HW124098   0.833   5.304   4.881 -0.5005  0.7413 -0.2916
39080SOL    HW224099   0.787   5.274   4.740  0.5234  0.8955 -0.6673
39081SOL     OW24100  10.768   1.496   4.586  0.4114  0.2057  0.1844
39081SOL    HW124101  10.690   1.544   4.559  0.0021 -0.6605 -0.1995
39081SOL    HW224102  10.735   1.426   4.642  0.9589  0.0926  0.3736
39082SOL     OW24103   3.057   0.006  10.021  0.7643  0.0193  0.2629
39082SOL    HW124104   3.020  -0.028   9.940  0.4391  0.9373  0.0089
39082SOL    HW224105   3.128  -0.054  10.043  0.2364 -0.7796 -0.1807
39083SOL     OW24106   8.089   2.026   0.823 -0.0050  0.2406 -0.1127
39083SOL    HW124107   8.073   2.058   0.735 -1.3967  0.3404  0.1545
39083SOL    HW224108   8.155   2.085   0.859 -0.7417  1.3119 -0.4738
39084SOL     OW24109   2.040   0.197   1.585 -0.6478  0.3388 -0.3673
39084SOL    HW124110   2.098   0.193   1.509 -0.8335  0.3955 -0.5141
39084SOL    HW224111   2.010   0.107   1.597 -1.5001  0.5121 -1.0583
39085SOL     OW24112   1.104   4.374   7.408  0.4390  0.0963  0.3460
39085SOL    HW124113   1.142   4.288   7.423  0.9185  0.3473  0.6053
39085SOL    HW224114   1.010   4.358   7.398  0.4885 -0.4229  0.6819
39086SOL     OW24115   6.902   5.388   4.258  0.1544 -0.6538  0.6966
39086SOL    HW124116   6.957   5.310   4.251  1.9022  0.6818 -2.2231
39086SOL    HW224117   6.893   5.419   4.168 -1.9864  1.5359  1.5689
39087SOL     OW24118   6.007   9.349   7.562  0.1807  0.4892  0.6887
39087SOL    HW124119   5.989   9.257   7.582 -0.1167  0.7962  1.9105
39087SOL    HW224120   6.102   9.356   7.563  0.2982 -0.1816 -1.2959
39088SOL     OW24121   7.751   9.121   6.924  0.0030  0.0578 -0.2672
39088SOL    HW124122   7.796   9.203   6.940  0.6760 -0.5725  1.2594
39088SOL    HW224123   7.749   9.113   6.828 -0.0537  1.8095 -0.4384
39089SOL     OW24124   2.931   0.599   8.213 -0.2389  0.2936  0.2033
39089SOL    HW124125   2.958   0.616   8.303 -2.0963 -0.2431  0.9114
39089SOL    HW224126   2.996   0.537   8.180 -0.2779 -0.5570  1.6362
39090SOL     OW24127   1.301   6.311  12.202 -0.2868 -0.1117 -0.5710
39090SOL    HW124128   1.272   6.228  12.238 -2.0769  1.1410  1.0578
39090SOL    HW224129   1.369   6.341  12.263 -0.8153  0.3837 -0.2247
39091SOL     OW24130  11.553   3.244   6.493  0.2204 -0.1379 -0.3861
39091SOL    HW124131  11.486   3.177   6.511  0.3888 -0.3235 -0.4404
39091SOL    HW224132  11.564   3.290   6.576 -1.8132  1.5861 -1.0032
39092SOL     OW24133   4.537   5.705   0.046  0.0598  0.0691 -0.0184
39092SOL    HW124134   4.476   5.758  -0.005  0.5345 -1.8061 -2.7455
39092SOL    HW224135   4.624   5.734   0.019  0.3349 -0.2946  0.4512
39093SOL     OW24136   7.583   5.414   3.968 -0.9747 -0.4889 -0.4432
39093SOL    HW124137   7.596   5.354   4.041 -1.3198 -1.1999 -0.9442
39093SOL    HW224138   7.659   5.472   3.969 -0.8058 -0.7237  0.2576
39094SOL     OW24139  10.180   8.120   1.279  0.0235  0.4313  0.3453
39094SOL    HW124140  10.219   8.192   1.328 -0.0156  1.9682 -1.7100
39094SOL    HW224141  10.248   8.095   1.216 -1.1371  1.0862 -1.2557
39095SOL     OW24142   7.110   2.353   5.569  0.1476 -0.1938  0.3555
39095SOL    HW124143   7.198   2.377   5.600  0.9050 -1.9319 -0.2690
39095SOL    HW224144   7.119   2.348   5.474  0.0947 -2.7384  0.4094
39096SOL     OW24145   1.956   6.618   7.975  0.3326  0.1257 -0.1151
39096SOL    HW124146   1.861   6.625   7.986  0.4416 -1.0115  2.1294
39096SOL    HW224147   1.974   6.524   7.984  1.9724  0.6015  3.4423
39097SOL     OW24148   6.436   6.266   2.421  0.5396 -0.1354  0.8496
39097SOL    HW124149   6.480   6.320   2.487 -1.4489 -0.1426  2.2642
39097SOL    HW224150   6.448   6.176   2.453  0.0980 -0.1854  0.8732
39098SOL     OW24151  12.141  11.654  11.488  0.3328  0.5001  0.1019
39098SOL    HW124152  12.175  11.737  11.521  1.3639  0.8189 -1.6269
39098SOL    HW224153  12.216  11.595  11.489 -0.0660 -0.0173  0.0444
39099SOL     OW24154   8.230  10.234   5.151  0.2577 -0.3111 -0.1721
39099SOL    HW124155   8.172  10.159   5.144 -1.1234  0.7297 -0.3213
39099SOL    HW224156   8.275  10.222   5.235 -1.6574 -0.1675  0.9467
39100SOL     OW24157  12.428   7.477   9.749  0.2688 -0.0060  0.4975
39100SOL    HW124158  12.400   7.394   9.709 -0.9330  0.0228  1.2403
39100SOL    HW224159  12.442   7.455   9.841 -0.5995  0.7229  0.8160
39101SOL     OW24160  10.275  11.457   9.222  0.2505  0.7780 -0.3652
39101SOL    HW124161  10.370  11.455   9.211  0.1577  1.6179 -1.6216
39101SOL    HW224162  10.242  11.483   9.136 -1.0428  1.5889  0.3420
39102SOL     OW24163   8.193   3.162   1.746  0.5333  0.2554  0.7040
39102SOL    HW124164   8.225   3.250   1.724 -0.3261  0.3152 -0.3783
39102SOL    HW224165   8.124   3.178   1.811  0.2648  0.3996  0.3866
39103SOL     OW24166   8.344   9.228   1.540 -0.1233  0.3191  0.3101
39103SOL    HW124167   8.294   9.296   1.585 -0.2849  0.7371 -0.4854
39103SOL    HW224168   8.279   9.160   1.521  0.1635 -0.3880  1.6909
39104SOL     OW24169   3.944   5.910   0.677  0.0623  0.3180 -0.1233
39104SOL    HW124170   3.973   5.854   0.749 -2.0284  1.1075  1.4607
39104SOL    HW224171   4.021   5.962   0.654  1.0853 -0.7493  0.7770
39105SOL     OW24172   9.438  11.399   4.074 -0.2030  0.2563  0.2022
39105SOL    HW124173   9.372  11.332   4.058  0.9978 -0.7482 -0.7537
39105SOL    HW224174   9.516  11.368   4.028  0.4454  2.2460 -0.1463
39106SOL     OW24175   1.564   3.276   9.928  0.3819 -0.1199 -0.3347
39106SOL    HW124176   1.610   3.263   9.845 -0.9456  0.2985 -1.1691
39106SOL    HW224177   1.513   3.356   9.916  0.6800  0.3347  1.1418
39107SOL     OW24178   4.880   7.581   9.527 -0.0581  0.2240 -0.3637
39107SOL    HW124179   4.931   7.589   9.608  0.2566  0.7076 -0.6094
39107SOL    HW224180   4.933   7.524   9.471  0.1116  0.5491 -0.5361
39108SOL     OW24181   4.152   2.102   9.449 -0.0531 -0.1756  0.1467
39108SOL    HW124182   4.234   2.112   9.401 -0.5129 -1.4415 -0.9618
39108SOL    HW224183   4.146   2.181   9.504  0.8379  0.9806 -1.3536
39109SOL     OW24184   7.171   6.168   1.800 -0.4555 -0.0242  0.1383
39109SOL    HW124185   7.144   6.254   1.831 -1.8725 -0.5483  0.4516
39109SOL    HW224186   7.207   6.124   1.877 -0.1973  0.1072  0.0933
39110SOL     OW24187   3.961  10.405   2.279  0.0551  0.1463  0.1881
39110SOL    HW124188   3.966  10.355   2.361  1.9575  0.0633  0.0757
39110SOL    HW224189   4.051  10.434   2.263 -0.2816  0.2659 -1.8054
39111SOL     OW24190   8.595   5.801  12.297  0.4730  0.0749  0.3553
39111SOL    HW124191   8.649   5.722  12.295 -1.2314 -1.1456  0.4090
39111SOL    HW224192   8.505   5.768  12.300 -0.2917  2.0363  0.0347
39112SOL     OW24193   9.945   1.421   8.358 -0.1143  0.1419 -0.2068
39112SOL    HW124194   9.975   1.502   8.399  1.6026  0.9577 -2.8213
39112SOL    HW224195  10.019   1.361   8.366 -0.7531 -0.6154  0.2080
39113SOL     OW24196   2.268   5.135   9.846 -1.3649  0.3263  0.1739
39113SOL    HW124197   2.180   5.117   9.812 -1.5794 -0.1795  0.9627
39113SOL    HW224198   2.313   5.050   9.842 -0.7075  0.7040 -0.7712
39114SOL     OW24199   7.465   6.303  10.884  0.2486  0.3134 -0.2431
39114SOL    HW124200   7.441   6.347  10.966  0.2320 -1.4955  0.7797
39114SOL    HW224201   7.559   6.287  10.893  0.3035  0.3708 -0.7155
39115SOL     OW24202   9.486   1.741   2.558 -0.5089 -0.0030  0.6095
39115SOL    HW124203   9.570   1.742   2.511 -1.3648 -1.8607 -1.1200
39115SOL    HW224204   9.502   1.683   2.633 -0.4508 -1.0564 -0.1965
39116SOL     OW24205   5.720   8.060   9.147 -0.0201 -0.0190  0.3417
39116SOL    HW124206   5.645   8.072   9.206  0.2581  1.1927  0.4700
39116SOL    HW224207   5.701   8.116   9.072 -0.4279 -1.6337 -0.8299
39117SOL     OW24208   5.684  11.485   2.917  0.1420  0.1355  0.4081
39117SOL    HW124209   5.777  11.493   2.934  0.9949  1.9684 -3.8714
39117SOL    HW224210   5.645  11.560   2.962  1.3662  1.6514 -0.9671
39118SOL     OW24211  12.273  11.038  11.648  0.2231 -0.1378  0.2041
39118SOL    HW124212  12.252  11.043  11.555 -1.1378 -1.0246  0.4190
39118SOL    HW224213  12.267  11.128  11.680 -0.0758  0.0636 -0.4134
39119SOL     OW24214  11.316  10.737  11.310  0.1150  0.0492 -0.3456
39119SOL    HW124215  11.345  10.746  11.220 -1.6448 -0.3525 -0.9991
39119SOL    HW224216  11.355  10.811  11.356  1.7922 -0.2650 -1.2082
39120SOL     OW24217   9.916  11.736  11.159 -0.6042  0.2749  0.1955
39120SOL    HW124218   9.875  11.811  11.116 -0.9866  0.5636  1.0510
39120SOL    HW224219   9.943  11.679  11.086 -2.6548 -0.0024 -0.3947
39121SOL     OW24220   9.577   3.737   0.066  0.0366 -0.5771 -0.2327
39121SOL    HW124221   9.624   3.778  -0.007 -0.6108 -0.9278 -0.8639
39121SOL    HW224222   9.599   3.644   0.059  1.3746 -0.3850  1.1002
39122SOL     OW24223   0.378   7.320   9.617 -0.0499 -0.2459 -0.2304
39122SOL    HW124224   0.392   7.390   9.554 -0.2786 -0.8484 -0.9621
39122SOL    HW224225   0.286   7.329   9.643 -0.1084 -0.3442 -0.4049
39123SOL     OW24226  12.014   1.785   6.166 -0.7290  0.2160 -0.1211
39123SOL    HW124227  12.011   1.692   6.141 -2.7184  0.3129 -0.3617
39123SOL    HW224228  11.965   1.789   6.248  0.9623  0.7946  0.9050
39124SOL     OW24229   5.469   9.320   2.875 -0.2298  0.9279 -0.5246
39124SOL    HW124230   5.530   9.393   2.877  2.7674 -1.3622 -1.7075
39124SOL    HW224231   5.420   9.332   2.793  0.8572  1.1614 -1.1528
39125SOL     OW24232   5.378   8.796   9.589 -0.4683  0.0974 -0.0508
39125SOL    HW124233   5.447   8.739   9.623 -0.9590 -1.5713 -1.7088
39125SOL    HW224234   5.345   8.841   9.666  1.2126 -0.4390  1.0552
39126SOL     OW24235  12.344   8.648   1.629 -0.1993  0.4364 -0.1077
39126SOL    HW124236  12.317   8.609   1.713  0.7989 -0.2354 -0.0746
39126SOL    HW224237  12.421   8.700   1.651  0.3696 -0.1449 -0.6783
39127SOL     OW24238   6.302   0.433   2.728 -0.3777  0.2114 -0.9230
39127SOL    HW124239   6.336   0.347   2.754  0.0614  0.2516 -1.3456
39127SOL    HW224240   6.318   0.438   2.634 -1.3682  0.3292 -1.0955
39128SOL     OW24241   7.860   0.793   1.362 -0.3255  0.0582  0.1251
39128SOL    HW124242   7.862   0.869   1.304  0.6993 -0.0922 -0.0618
39128SOL    HW224243   7.951   0.763   1.365 -0.4181 -0.1503  1.5378
39129SOL     OW24244   9.671  12.445  10.044  0.2597 -0.0604 -0.3449
39129SOL    HW124245   9.627  12.361  10.059 -0.1459  0.5377  2.5881
39129SOL    HW224246   9.601  12.504  10.018  0.4028 -0.4188 -1.5884
39130SOL     OW24247   2.875   6.478  10.351  0.2687  0.3845 -0.0313
39130SOL    HW124248   2.788   6.438  10.364  1.3631 -2.0764  0.3777
39130SOL    HW224249   2.859   6.549  10.289 -2.3322  1.2923  1.4985
39131SOL     OW24250   8.002   2.992   8.101 -0.0098 -0.8240  0.4961
39131SOL    HW124251   8.017   2.900   8.079  0.2051 -0.3176 -1.7745
39131SOL    HW224252   7.918   3.013   8.060 -0.7239 -0.3234  2.1456
39132SOL     OW24253   8.864   0.976   9.485 -0.1860 -0.0679  0.2935
39132SOL    HW124254   8.925   0.975   9.411  0.6560 -0.5202  0.9768
39132SOL    HW224255   8.904   1.036   9.548 -0.8900  0.3030  0.3852
39133SOL     OW24256   3.588   2.359   9.369  0.1118 -0.2858 -0.4194
39133SOL    HW124257   3.513   2.332   9.315 -0.7166  2.0978 -0.5591
39133SOL    HW224258   3.550   2.380   9.454  0.6885  0.4568 -0.3377
39134SOL     OW24259  12.490   9.013   3.315 -0.9465 -0.0635 -0.2916
39134SOL    HW124260  12.475   9.023   3.221  0.4474  2.3073 -0.3469
39134SOL    HW224261  12.419   9.063   3.356 -1.2051 -0.5868 -0.0953
39135SOL     OW24262   7.563  12.170   8.060  0.2000  0.0475  0.6719
39135SOL    HW124263   7.540  12.194   7.970 -0.3503 -0.3515  0.7037
39135SOL    HW224264   7.540  12.247   8.112 -0.9048 -0.2704  0.6746
39136SOL     OW24265   0.586   1.757   2.294 -0.1663  0.0823 -0.3544
39136SOL    HW124266   0.646   1.714   2.234  0.0742 -0.4288  0.2329
39136SOL    HW224267   0.542   1.824   2.242  0.5180  0.0937 -0.9215
39137SOL     OW24268   4.312  11.690   7.810 -0.2446 -0.4334 -0.1908
39137SOL    HW124269   4.354  11.610   7.841 -0.5755  0.0118  1.5008
39137SOL    HW224270   4.252  11.660   7.741  0.0975 -1.5498 -0.0278
39138SOL     OW24271   5.309   2.236   5.564  0.2899 -0.2983 -0.1566
39138SOL    HW124272   5.326   2.150   5.526  0.6523 -0.6708  0.8035
39138SOL    HW224273   5.369   2.241   5.639 -1.0343  0.0232  0.9154
39139SOL     OW24274   0.642   0.105   1.396 -0.4332  0.0867  0.1022
39139SOL    HW124275   0.548   0.115   1.413 -0.6352 -1.0078 -0.2939
39139SOL    HW224276   0.654   0.138   1.307 -0.8030 -1.4877 -0.5706
39140SOL     OW24277  11.993   5.606   8.111 -0.1669 -0.1558  0.5798
39140SOL    HW124278  11.985   5.699   8.132 -1.3559 -0.5475  2.0811
39140SOL    HW224279  12.071   5.600   8.056 -0.5071  1.8221 -0.2117
39141SOL     OW24280   0.446   5.111   4.361  0.0154  0.0263  0.0202
39141SOL    HW124281   0.515   5.162   4.319  0.4972 -0.0436  0.7081
39141SOL    HW224282   0.460   5.125   4.455 -0.5416 -0.4652  0.1788
39142SOL     OW24283   6.580   0.112  11.380  0.1400  0.5041  0.2006
39142SOL    HW124284   6.516   0.183  11.375 -1.1851 -0.4707  2.0820
39142SOL    HW224285   6.555   0.052  11.310 -1.1017  0.1014  0.9564
39143SOL     OW24286  12.557   1.505  11.424  0.2960  0.9431  0.1924
39143SOL    HW124287  12.514   1.503  11.509 -0.2328  4.1394  0.1078
39143SOL    HW224288  12.492   1.543  11.364  1.1994  0.2592 -1.2904
39144SOL     OW24289  12.455   5.751   1.826  0.2782  0.0277 -0.3852
39144SOL    HW124290  12.474   5.844   1.842 -0.2622  0.5592 -2.5076
39144SOL    HW224291  12.381   5.752   1.766 -0.2011 -1.8191  0.1319
39145SOL     OW24292   6.801   3.790   7.038 -0.8908  0.4341  0.1134
39145SOL    HW124293   6.891   3.774   7.010 -1.1177 -0.5269 -0.0848
39145SOL    HW224294   6.809   3.860   7.103  0.2015 -0.8267  1.4117
39146SOL     OW24295   1.329   3.280   4.983  0.1457  0.0858 -0.0590
39146SOL    HW124296   1.237   3.256   4.975 -0.0118  0.3750  0.8520
39146SOL    HW224297   1.372   3.234   4.911 -0.0741 -3.2696  1.7523
39147SOL     OW24298  10.839   4.907  10.012 -0.0151  0.3730 -0.3931
39147SOL    HW124299  10.865   4.819  10.037 -3.8198 -0.4667  1.2417
39147SOL    HW224300  10.901   4.964  10.057  0.8526 -1.4281  0.7981
39148SOL     OW24301   7.947   4.649   3.392  0.0389 -0.2361 -0.0094
39148SOL    HW124302   7.994   4.620   3.470  0.8024  1.2291  0.1220
39148SOL    HW224303   7.854   4.636   3.413  0.3214 -2.1276  0.1641
39149SOL     OW24304   7.230   5.039   3.228 -0.0440  0.2181 -0.5014
39149SOL    HW124305   7.187   5.106   3.175  0.1757 -0.2199 -1.2481
39149SOL    HW224306   7.242   5.080   3.314 -1.2250  0.6238 -0.5131
39150SOL     OW24307   5.488   5.931   1.492 -0.1741  0.5585 -0.3443
39150SOL    HW124308   5.526   5.983   1.563 -1.2924 -0.3269  0.9575
39150SOL    HW224309   5.509   5.840   1.517 -0.7382  0.2321 -1.0592
39151SOL     OW24310  11.665   7.449   2.168  0.5069 -0.1612 -0.8285
39151SOL    HW124311  11.664   7.356   2.146 -0.5744 -0.1322 -0.9727
39151SOL    HW224312  11.756   7.468   2.190  1.0359 -0.8937 -2.2780
39152SOL     OW24313   1.778   9.295   5.379 -0.5347 -0.2854 -0.0916
39152SOL    HW124314   1.846   9.230   5.360 -1.0874 -0.6154 -1.0560
39152SOL    HW224315   1.766   9.342   5.296 -2.3701 -1.1088 -0.3494
39153SOL     OW24316   6.733   5.143   1.385  0.0321 -0.2119  0.2998
39153SOL    HW124317   6.679   5.076   1.343  0.8452 -1.0331  0.5333
39153SOL    HW224318   6.745   5.211   1.318  0.8375 -1.2326 -0.6248
39154SOL     OW24319   9.507   4.610   6.333 -0.3693  0.5918  0.4688
39154SOL    HW124320   9.468   4.651   6.256 -1.4217  1.5022  1.4442
39154SOL    HW224321   9.596   4.647   6.338 -0.0396 -0.0226 -0.6912
39155SOL     OW24322  10.252   2.096   0.283 -0.3942  0.0558  0.3026
39155SOL    HW124323  10.315   2.139   0.226 -0.0305  0.1902  0.7957
39155SOL    HW224324  10.201   2.040   0.225 -1.3717  1.6815 -0.4705
39156SOL     OW24325   4.967   9.186  12.429  0.1638  0.3772  0.0914
39156SOL    HW124326   4.972   9.204  12.335 -1.8807  0.6189  0.0052
39156SOL    HW224327   5.022   9.254  12.469  3.3871 -1.3475 -1.0093
39157SOL     OW24328   9.414   8.052   0.216  0.8456  0.4389 -0.5636
39157SOL    HW124329   9.446   8.061   0.305 -0.9903  1.9940  0.0062
39157SOL    HW224330   9.455   8.123   0.167 -0.6484  1.6686 -0.1186
39158SOL     OW24331   1.391   9.919   8.826  0.5343  0.2575  0.4625
39158SOL    HW124332   1.408   9.858   8.897 -0.2080  0.6770  1.0068
39158SOL    HW224333   1.310   9.963   8.850  0.0675  0.1389 -0.8239
39159SOL     OW24334   5.721   6.262   3.816  0.0087  0.0757 -0.4072
39159SOL    HW124335   5.750   6.341   3.770  1.3694 -0.3430 -0.3217
39159SOL    HW224336   5.726   6.193   3.750 -1.1168  0.0338 -0.4660
39160SOL     OW24337  10.089   8.124   4.717 -0.4291 -0.1355 -0.5603
39160SOL    HW124338  10.110   8.211   4.752  1.6604 -0.8242  0.0264
39160SOL    HW224339  10.012   8.097   4.767 -0.2245  0.7774  0.2844
39161SOL     OW24340   0.331   7.486  10.313 -1.0587  0.1965  0.3398
39161SOL    HW124341   0.317   7.399  10.350  1.7826 -0.1450  0.8190
39161SOL    HW224342   0.320   7.474  10.218 -2.0277 -0.3547  0.5090
39162SOL     OW24343   5.909   3.351   0.804  0.1961  0.0491 -0.2169
39162SOL    HW124344   5.912   3.330   0.898 -0.0513  0.3538 -0.1406
39162SOL    HW224345   5.973   3.420   0.793  0.4446 -0.1981 -0.3290
39163SOL     OW24346   7.883   9.610   6.474  0.3958  0.2922  0.4887
39163SOL    HW124347   7.827   9.648   6.542 -1.2191  1.0030 -1.1303
39163SOL    HW224348   7.881   9.674   6.403  0.4606 -1.2299 -0.9636
39164SOL     OW24349   7.141   9.307   7.869 -0.4316  0.1979 -0.1504
39164SOL    HW124350   7.164   9.258   7.948  2.8072 -1.6015 -1.9474
39164SOL    HW224351   7.206   9.377   7.864  1.2638 -1.3425 -2.3861
39165SOL     OW24352   7.090   1.029  11.571 -0.5239 -0.6840 -0.0935
39165SOL    HW124353   7.133   0.983  11.500  1.0167  0.4319  0.0787
39165SOL    HW224354   7.027   1.087  11.528  1.8671  1.5784 -0.8055
39166SOL     OW24355  12.252  11.208   2.271 -0.3168 -0.1076 -0.0553
39166SOL    HW124356  12.243  11.241   2.360 -0.1906  0.1903 -0.1535
39166SOL    HW224357  12.172  11.156   2.257 -1.1500  1.2092 -0.3488
39167SOL     OW24358   0.208   5.665   0.968  0.1143 -0.0571 -0.0829
39167SOL    HW124359   0.206   5.575   1.000 -4.0895  0.1662  0.8334
39167SOL    HW224360   0.238   5.717   1.043  1.0825 -0.4789 -0.1530
39168SOL     OW24361   8.704   3.681   7.674  0.5172  0.4009 -0.8895
39168SOL    HW124362   8.710   3.745   7.745 -2.1129  0.1306 -0.3131
39168SOL    HW224363   8.722   3.730   7.595 -1.4057  1.9380 -0.4552
39169SOL     OW24364   4.027   3.328   1.803 -0.4088  0.1902 -0.2252
39169SOL    HW124365   3.955   3.357   1.859 -0.9008 -0.3494 -0.5645
39169SOL    HW224366   3.986   3.316   1.717 -0.0137 -0.5829 -0.3035
39170SOL     OW24367   3.376  11.671  11.787  0.4155  0.1565  0.3823
39170SOL    HW124368   3.311  11.726  11.743  0.2928  1.8955  2.5262
39170SOL    HW224369   3.343  11.661  11.876  0.1091 -4.1128 -0.0339
39171SOL     OW24370   2.468   3.994   3.468  0.4390 -0.2346 -0.3135
39171SOL    HW124371   2.430   4.005   3.381 -0.0146  2.7015  0.1450
39171SOL    HW224372   2.543   4.054   3.469  0.2611  0.0146  1.3904
39172SOL     OW24373   4.211  10.220   9.513 -0.5174 -0.0448  0.0727
39172SOL    HW124374   4.134  10.205   9.568 -0.1268  1.1948  1.0080
39172SOL    HW224375   4.225  10.315   9.517 -0.0272 -0.0197 -1.5827
39173SOL     OW24376   5.892  12.147  10.536 -0.2398  0.1340 -0.0337
39173SOL    HW124377   5.859  12.140  10.626  0.6725  1.7331  0.4776
39173SOL    HW224378   5.966  12.208  10.543 -1.1895  1.6386 -2.1045
39174SOL     OW24379   7.379   9.130  11.789 -0.3628 -0.1461 -0.0888
39174SOL    HW124380   7.335   9.168  11.713  0.5546  1.8354  0.2814
39174SOL    HW224381   7.430   9.057  11.754 -0.1487  0.5807 -1.3626
39175SOL     OW24382   4.683  12.346  12.260  0.0125  0.0814  0.0531
39175SOL    HW124383   4.623  12.381  12.325  0.0597  1.6098 -0.6760
39175SOL    HW224384   4.700  12.420  12.201 -1.2496 -1.5741 -2.6157
39176SOL     OW24385   1.207  10.359  12.148  0.2978  0.2927 -0.3744
39176SOL    HW124386   1.198  10.336  12.241  0.6507  1.6786  0.0354
39176SOL    HW224387   1.262  10.438  12.149 -1.1244  1.3473 -1.6348
39177SOL     OW24388  10.732  10.204   9.137  0.2491  0.0655 -0.2061
39177SOL    HW124389  10.705  10.190   9.046  0.4324 -0.5815 -0.1645
39177SOL    HW224390  10.753  10.298   9.141  2.1275 -0.2462 -1.3352
39178SOL     OW24391   2.430   1.263  11.476  0.3687 -0.2685 -0.3360
39178SOL    HW124392   2.479   1.182  11.460 -1.1851 -1.0069 -1.5497
39178SOL    HW224393   2.389   1.250  11.561  1.7945  0.1376  0.4432
39179SOL     OW24394  12.232   1.982   5.207  0.1034  0.1752  0.0230
39179SOL    HW124395  12.153   2.021   5.171 -0.3532  0.4313  1.2485
39179SOL    HW224396  12.272   2.052   5.259  0.8087 -0.1410 -0.0721
39180SOL     OW24397  11.239   5.129   2.413  0.4251 -0.2838 -0.1765
39180SOL    HW124398  11.332   5.151   2.404  0.0042  3.3290  2.2709
39180SOL    HW224399  11.231   5.095   2.502 -0.7876  1.3091  0.3731
39181SOL     OW24400   3.683   7.320   9.886 -0.5528 -0.2299 -0.1759
39181SOL    HW124401   3.747   7.308   9.816 -0.0898 -1.1494  0.3968
39181SOL    HW224402   3.724   7.383   9.945 -0.3521 -0.5011 -0.0250
39182SOL     OW24403   8.236   5.490   7.605 -0.2212 -0.4324  1.0579
39182SOL    HW124404   8.324   5.451   7.610 -0.1697 -0.4443  0.1914
39182SOL    HW224405   8.178   5.420   7.634  0.0105 -0.6279  1.0572
39183SOL     OW24406   5.658   0.087   4.043  0.1941 -0.3388  0.1518
39183SOL    HW124407   5.647  -0.005   4.067  1.0886 -0.1541  1.4038
39183SOL    HW224408   5.633   0.135   4.122 -0.1404  0.4839 -0.4482
39184SOL     OW24409  10.714   3.153   0.628  0.6849  0.1427 -0.2610
39184SOL    HW124410  10.753   3.092   0.691 -1.9349 -1.8396 -0.3597
39184SOL    HW224411  10.688   3.229   0.682 -1.7782 -1.6365  1.2881
39185SOL     OW24412   1.965   6.111   0.031  0.4513 -0.5702  0.1448
39185SOL    HW124413   2.058   6.133   0.028  0.6304 -1.3805 -0.7126
39185SOL    HW224414   1.922   6.184  -0.015  0.8342 -0.9676 -0.8729
39186SOL     OW24415   9.441   8.544  10.580 -0.3065  0.3837  0.2967
39186SOL    HW124416   9.513   8.527  10.641 -0.6469  0.7310  0.8022
39186SOL    HW224417   9.429   8.639  10.582  0.0776  0.4620 -0.7774
39187SOL     OW24418   3.237   4.337   6.800 -0.2590  0.5941  0.1963
39187SOL    HW124419   3.160   4.314   6.748 -0.6090  2.1914 -0.0550
39187SOL    HW224420   3.306   4.353   6.735 -0.0236  0.2721  0.3633
39188SOL     OW24421   0.120   7.394  11.560 -0.0313  0.0912 -0.1135
39188SOL    HW124422   0.169   7.460  11.609 -0.8674 -0.2742  1.2520
39188SOL    HW224423   0.029   7.423  11.565 -0.3704 -1.0170  0.2674
39189SOL     OW24424  10.013  10.470   1.037 -0.0461  0.5975  0.0843
39189SOL    HW124425   9.957  10.547   1.028 -0.7601  0.5792  3.0970
39189SOL    HW224426  10.089  10.502   1.087 -1.0201 -0.7923  2.6762
39190SOL     OW24427   2.376   9.293   4.903  0.1618 -0.1435 -0.1833
39190SOL    HW124428   2.398   9.378   4.863  1.1044  0.0187  0.6677
39190SOL    HW224429   2.434   9.285   4.978 -0.8491 -0.9388  0.5509
39191SOL     OW24430   9.194   8.825  11.690 -0.0201  0.3741  0.7191
39191SOL    HW124431   9.105   8.800  11.665 -0.5050  0.8603  1.8562
39191SOL    HW224432   9.205   8.786  11.778  1.4137 -0.8748  0.0357
39192SOL     OW24433  12.027   6.677   7.883  0.5257 -0.1680  0.1797
39192SOL    HW124434  11.996   6.746   7.942 -0.9456 -0.8883  0.3093
39192SOL    HW224435  12.111   6.651   7.919  2.0354  2.7382 -0.8787
39193SOL     OW24436   3.226   1.745   4.090  0.3765  0.0375  0.0446
39193SOL    HW124437   3.146   1.790   4.118  0.2897 -1.0735  1.6686
39193SOL    HW224438   3.297   1.801   4.121  0.2778  1.1300 -1.5749
39194SOL     OW24439  11.434   9.818  11.545 -0.8242  0.0602 -0.3048
39194SOL    HW124440  11.427   9.782  11.456 -1.9999 -0.2254 -0.1193
39194SOL    HW224441  11.360   9.779  11.592 -1.5178  1.8978  0.2017
39195SOL     OW24442   6.585   1.149   8.254  0.0696 -0.1079  0.7927
39195SOL    HW124443   6.631   1.166   8.172  0.6709  0.7787  1.3014
39195SOL    HW224444   6.645   1.093   8.304  0.1201  0.1342  1.0073
39196SOL     OW24445   1.493   2.961  11.914  0.2492 -0.1555 -0.5612
39196SOL    HW124446   1.583   2.952  11.943  0.2920 -1.0282 -0.9297
39196SOL    HW224447   1.499   2.991  11.823  0.1482  0.3424 -0.4105
39197SOL     OW24448  12.301   1.319  10.403 -0.1941  0.1067  0.2289
39197SOL    HW124449  12.312   1.232  10.365 -2.2212  0.4268 -1.2825
39197SOL    HW224450  12.389   1.358  10.402  1.0665 -2.4049  2.3955
39198SOL     OW24451   4.959   2.919   1.821  0.3729 -0.1522 -0.0553
39198SOL    HW124452   5.028   2.868   1.863  1.0873  0.2537 -0.7106
39198SOL    HW224453   4.946   2.995   1.878  1.7986  0.7379 -0.8318
39199SOL     OW24454  11.162   0.844   4.364 -0.2475 -0.3057 -0.2472
39199SOL    HW124455  11.211   0.802   4.294 -0.1810 -0.8706  0.1388
39199SOL    HW224456  11.171   0.938   4.346  0.3521 -0.4263 -0.5965
39200SOL     OW24457   1.282   4.650   4.456  0.3632 -1.2085 -0.0577
39200SOL    HW124458   1.220   4.719   4.482  1.4438 -0.0598 -0.4354
39200SOL    HW224459   1.228   4.588   4.407 -0.6936 -0.7727  0.5081
39201SOL     OW24460   8.405   4.531   4.059  0.7238 -0.0852  0.2364
39201SOL    HW124461   8.386   4.596   3.992  0.6306  0.0746  0.4155
39201SOL    HW224462   8.500   4.525   4.061  0.7355  0.0838  0.2506
39202SOL     OW24463   0.083   1.234   3.332  0.1331 -0.1971  0.2919
39202SOL    HW124464   0.010   1.226   3.269  1.0110 -0.7426 -0.6879
39202SOL    HW224465   0.077   1.323   3.364 -1.0085 -0.2487  0.2685
39203SOL     OW24466   7.796   0.361   7.307  0.3257 -0.3633  0.0622
39203SOL    HW124467   7.769   0.380   7.397  0.6088  0.3869 -0.0068
39203SOL    HW224468   7.788   0.445   7.261  1.2368 -0.4870 -0.3445
39204SOL     OW24469   4.618   3.348  12.116 -0.0211 -0.3760  0.0541
39204SOL    HW124470   4.530   3.386  12.109  0.0099 -0.1860  0.6608
39204SOL    HW224471   4.655   3.387  12.195 -0.5684 -2.7821  1.6267
39205SOL     OW24472   4.794   4.314   9.324 -0.0665  0.0168 -0.1569
39205SOL    HW124473   4.872   4.351   9.366  0.0339  1.5279 -1.5306
39205SOL    HW224474   4.827   4.276   9.243 -0.4969 -1.1607  0.2100
39206SOL     OW24475   6.080   4.300   9.515  0.0426  0.3465 -0.3649
39206SOL    HW124476   5.999   4.317   9.563  0.1370 -0.4320  0.0894
39206SOL    HW224477   6.136   4.376   9.534 -0.6165  0.9557 -0.7941
39207SOL     OW24478   9.006   1.881  11.264  0.5835 -0.1856  0.9822
39207SOL    HW124479   9.058   1.809  11.299  0.1324 -0.8939  0.2128
39207SOL    HW224480   9.000   1.943  11.337  0.6371 -1.1032  1.7871
39208SOL     OW24481   5.452   2.918   4.508 -0.1204  0.2969  0.1370
39208SOL    HW124482   5.457   2.893   4.600  0.9935 -0.7641 -0.1856
39208SOL    HW224483   5.533   2.965   4.491  0.1205 -0.3280 -0.5197
39209SOL     OW24484   5.388  11.882   6.374 -0.5146 -0.2218 -0.3993
39209SOL    HW124485   5.332  11.820   6.420 -2.5609  1.2321 -0.7963
39209SOL    HW224486   5.422  11.939   6.444 -0.1427 -0.6364 -0.2395
39210SOL     OW24487   5.637   7.511  11.283 -0.4458  0.1103 -0.3605
39210SOL    HW124488   5.590   7.483  11.362  0.9396  1.1980  0.9094
39210SOL    HW224489   5.572   7.560  11.232 -0.7912  1.4395  1.2727
39211SOL     OW24490   8.351   1.816   5.017  0.0483 -0.6145 -0.3491
39211SOL    HW124491   8.442   1.842   5.026 -0.4280  1.2449 -0.5363
39211SOL    HW224492   8.324   1.789   5.105  0.5017 -0.2046 -0.0850
39212SOL     OW24493   8.727   1.740   1.672 -0.0800 -0.2184  0.2330
39212SOL    HW124494   8.676   1.667   1.708  0.5096  0.4456  2.5391
39212SOL    HW224495   8.728   1.805   1.742 -0.6176  2.0737 -1.7610
39213SOL     OW24496   4.165   0.747   2.405 -0.7414 -0.1127  0.3963
39213SOL    HW124497   4.084   0.776   2.448 -1.2010  0.9311 -1.1109
39213SOL    HW224498   4.234   0.795   2.451 -1.3360  2.0433 -0.8225
39214SOL     OW24499   7.151   7.966   7.243 -0.3417  0.0492 -0.0571
39214SOL    HW124500   7.138   7.872   7.229  1.7873 -0.6197  1.8482
39214SOL    HW224501   7.208   7.994   7.172  0.8549 -0.6450  0.6083
39215SOL     OW24502  12.346   0.969  10.682  0.2342  0.0400 -0.8308
39215SOL    HW124503  12.371   0.943  10.593  0.8640 -1.0321 -0.3585
39215SOL    HW224504  12.389   1.053  10.695  0.7704 -0.1565 -1.2741
39216SOL     OW24505  11.414   2.638   8.773  0.0923  0.3383 -0.2057
39216SOL    HW124506  11.468   2.559   8.763  0.8558  0.8925 -0.5383
39216SOL    HW224507  11.477   2.710   8.771 -0.8457  1.2298 -3.4055
39217SOL     OW24508   6.364   7.675   2.324  0.1470  0.0588 -0.0172
39217SOL    HW124509   6.269   7.674   2.327  0.1714 -0.4317  1.0844
39217SOL    HW224510   6.388   7.585   2.299  0.3315 -0.0312  0.4743
39218SOL     OW24511   9.403   0.665   9.831  0.1730 -0.1570 -0.5991
39218SOL    HW124512   9.369   0.733   9.889  1.0429  0.3919 -0.7070
39218SOL    HW224513   9.455   0.713   9.766  1.2697 -0.9630 -0.3498
39219SOL     OW24514   3.209   3.037   4.383  0.6424  0.7565  0.1691
39219SOL    HW124515   3.138   3.100   4.368  1.1733  1.1966 -0.5584
39219SOL    HW224516   3.181   2.987   4.460  0.6261  2.4557  1.2973
39220SOL     OW24517   6.770   0.849  11.012  0.3253  0.1165  0.6626
39220SOL    HW124518   6.683   0.890  11.018  0.7456  1.1991 -0.2389
39220SOL    HW224519   6.791   0.824  11.102 -0.7865  0.1093  0.9371
39221SOL     OW24520  10.605   6.242   8.140  0.1150  0.3198  0.1267
39221SOL    HW124521  10.695   6.272   8.152  0.1850  0.2240 -0.1549
39221SOL    HW224522  10.613   6.154   8.104 -0.0804  0.6162 -0.6723
39222SOL     OW24523   6.017   3.155   6.856  0.1103 -0.5388  1.1070
39222SOL    HW124524   6.047   3.068   6.832  0.7420  0.2772 -1.4664
39222SOL    HW224525   5.941   3.170   6.800  0.4924  0.8343  0.9115
39223SOL     OW24526  11.012   2.481   9.096  0.5905  0.1430 -0.3900
39223SOL    HW124527  11.081   2.463   9.159 -0.6810  0.5057  1.1915
39223SOL    HW224528  11.057   2.493   9.013  2.2062 -1.9130  0.1153
39224SOL     OW24529   1.110   7.933   2.205 -0.1728  0.2074  0.7613
39224SOL    HW124530   1.194   7.899   2.235 -0.2393  0.0155  0.7334
39224SOL    HW224531   1.110   7.919   2.110 -0.7571 -0.9846  0.9121
39225SOL     OW24532   7.040   1.434   7.593  0.2989  0.2970 -0.4080
39225SOL    HW124533   6.971   1.496   7.568  1.9711  1.9261 -1.2466
39225SOL    HW224534   7.041   1.438   7.689  0.0761  1.2744 -0.4295
39226SOL     OW24535  12.272   4.278  11.923  0.0733 -0.2270  0.2038
39226SOL    HW124536  12.261   4.356  11.976  0.4463 -0.7467  1.0835
39226SOL    HW224537  12.242   4.206  11.979  0.2033 -0.7603 -0.3941
39227SOL     OW24538   4.648   8.200   4.953  0.1139  0.3553 -0.1197
39227SOL    HW124539   4.621   8.108   4.958  2.0052 -0.3199 -1.4054
39227SOL    HW224540   4.569   8.247   4.926 -0.8773 -0.8773  0.5367
39228SOL     OW24541   6.396   7.172   8.453  0.3886 -0.3782  0.5534
39228SOL    HW124542   6.404   7.187   8.547  1.3475 -0.4088  0.4903
39228SOL    HW224543   6.466   7.110   8.432  0.5111  0.0075 -0.2574
39229SOL     OW24544   4.540   5.097   6.140  0.6231 -0.0434  0.1810
39229SOL    HW124545   4.474   5.161   6.112 -0.9318 -1.7043 -0.1336
39229SOL    HW224546   4.552   5.115   6.233  1.1752  1.4890 -0.1480
39230SOL     OW24547   5.052   8.533   3.174 -0.4436  0.0680  0.2143
39230SOL    HW124548   5.016   8.452   3.137 -1.1980  0.1448  0.7499
39230SOL    HW224549   4.979   8.595   3.171  1.0675  1.9661 -3.6837
39231SOL     OW24550   2.630   2.002   4.753 -0.2637  0.2332  0.6092
39231SOL    HW124551   2.580   1.920   4.756 -1.5633  1.0185  1.4503
39231SOL    HW224552   2.593   2.050   4.679  0.2141  0.2411  0.3734
39232SOL     OW24553   6.489   7.910   2.162 -0.1464  0.2094  0.8505
39232SOL    HW124554   6.406   7.940   2.124 -0.0020 -0.0681  0.2997
39232SOL    HW224555   6.464   7.838   2.219 -0.0918 -1.4544 -1.0929
39233SOL     OW24556   8.918   0.292   1.305  0.2544  0.1113 -0.0584
39233SOL    HW124557   8.975   0.349   1.253  0.2117 -2.2165 -2.8899
39233SOL    HW224558   8.974   0.220   1.333 -0.3442 -0.0079  0.8818
39234SOL     OW24559   0.109   2.641   4.608  0.0619 -0.0203  0.3755
39234SOL    HW124560   0.152   2.711   4.656 -0.6945  0.3220  0.5755
39234SOL    HW224561   0.139   2.560   4.651  0.6362  0.1964  0.3883
39235SOL     OW24562   0.141   7.153   3.086 -0.1433 -0.2537 -0.2462
39235SOL    HW124563   0.228   7.137   3.051 -1.0240 -2.2098 -1.7073
39235SOL    HW224564   0.152   7.146   3.181  1.7447  2.2870 -0.1817
39236SOL     OW24565   5.806   6.456   0.150  0.0615 -0.1358 -0.3849
39236SOL    HW124566   5.844   6.543   0.162 -0.7012  0.2272 -0.5314
39236SOL    HW224567   5.727   6.457   0.204 -0.7947 -0.1810 -1.6016
39237SOL     OW24568   2.252   9.467  10.595 -0.2356 -1.1020 -0.1952
39237SOL    HW124569   2.290   9.534  10.538 -0.3840 -0.7945  0.0662
39237SOL    HW224570   2.245   9.509  10.681  1.1523 -1.9608  0.3705
39238SOL     OW24571   7.294   0.754   5.863 -0.1643 -0.2225  0.1694
39238SOL    HW124572   7.265   0.715   5.945  2.1646 -1.8261  0.3372
39238SOL    HW224573   7.264   0.693   5.795  0.9998 -0.8430  0.1839
39239SOL     OW24574  10.672   6.472   7.703 -0.3510  0.1886  0.7404
39239SOL    HW124575  10.755   6.503   7.738  0.5705 -1.6383  0.2783
39239SOL    HW224576  10.696   6.408   7.636 -2.1090 -1.4394  1.5804
39240SOL     OW24577   3.487   9.746   8.621 -0.2273 -0.4653 -0.7257
39240SOL    HW124578   3.579   9.769   8.614 -0.0398 -0.8074  0.3956
39240SOL    HW224579   3.469   9.695   8.543  1.0148 -1.9152 -0.1143
39241SOL     OW24580  11.320   0.019   2.012 -0.2449  0.1965  0.4627
39241SOL    HW124581  11.300   0.112   2.018  1.7900  0.6476  0.9938
39241SOL    HW224582  11.380   0.012   1.938 -2.1195 -1.0604 -1.0194
39242SOL     OW24583   0.135   2.131   8.471 -0.0420 -0.2803 -0.1477
39242SOL    HW124584   0.092   2.094   8.548 -0.2350 -0.3500 -0.2901
39242SOL    HW224585   0.173   2.213   8.502  0.1930 -0.4819  0.1126
39243SOL     OW24586   8.469   0.466   0.166 -0.2579 -0.1793 -0.4115
39243SOL    HW124587   8.478   0.529   0.238  0.1228  1.0631 -1.5099
39243SOL    HW224588   8.386   0.422   0.183 -1.3286  1.7276 -0.4341
39244SOL     OW24589  12.107   1.320   3.439 -0.0302 -0.2858 -0.1062
39244SOL    HW124590  12.119   1.313   3.534 -1.2218  3.6980  0.5318
39244SOL    HW224591  12.181   1.372   3.409 -1.4219  1.5339 -0.6277
39245SOL     OW24592   8.940   6.195   6.676 -0.6623  0.1035 -0.1191
39245SOL    HW124593   8.968   6.163   6.590  0.4385 -0.7138  0.5035
39245SOL    HW224594   8.895   6.121   6.716  0.5661 -0.2067  0.7516
39246SOL     OW24595   0.140   9.800   2.021 -0.0552 -0.1305  0.2533
39246SOL    HW124596   0.100   9.875   2.066  1.7668  0.6803  0.6213
39246SOL    HW224597   0.066   9.747   1.992 -1.4443  2.1990 -0.6886
39247SOL     OW24598  11.576   4.287   5.233 -0.4015  0.5244  0.0379
39247SOL    HW124599  11.643   4.241   5.182 -0.8822 -0.1508 -0.0011
39247SOL    HW224600  11.506   4.305   5.170 -0.0602  1.6788 -0.0383
39248SOL     OW24601   1.530   4.759   9.813 -0.2582  0.0779  0.0976
39248SOL    HW124602   1.553   4.760   9.906  0.1745 -0.5292  0.0041
39248SOL    HW224603   1.597   4.814   9.772  0.8394 -1.3408 -0.1172
39249SOL     OW24604   0.994   5.122   9.640  0.1827 -0.6666 -0.2201
39249SOL    HW124605   0.988   5.048   9.580 -0.3804 -0.7690 -0.0389
39249SOL    HW224606   1.081   5.112   9.681 -0.2912 -1.8289  0.5661
39250SOL     OW24607   0.318   7.720   5.615 -0.1087 -0.1557 -0.6207
39250SOL    HW124608   0.396   7.699   5.563  0.3477  0.5168 -0.2226
39250SOL    HW224609   0.313   7.651   5.680  0.9571  0.5280  0.2166
39251SOL     OW24610   0.333   6.486   7.844  0.3745  0.1200  0.1713
39251SOL    HW124611   0.340   6.454   7.934 -0.9145 -1.5551 -0.2757
39251SOL    HW224612   0.262   6.550   7.847 -1.4826 -1.8235 -0.0693
39252SOL     OW24613  11.439   2.388  11.520  0.3874  0.0049  0.2676
39252SOL    HW124614  11.436   2.293  11.535 -0.7590 -0.1772 -0.9171
39252SOL    HW224615  11.522   2.416  11.559  1.6934 -1.7970 -1.0323
39253SOL     OW24616   6.811   4.913   9.266  0.5993 -0.3562  0.8981
39253SOL    HW124617   6.889   4.963   9.244  0.6837 -0.6902  0.4075
39253SOL    HW224618   6.843   4.839   9.317  0.4855  0.0382  1.5401
39254SOL     OW24619   9.555  10.925   2.000 -0.2720  0.2332 -0.5337
39254SOL    HW124620   9.521  10.944   2.087 -2.5380  0.9850 -1.4918
39254SOL    HW224621   9.512  10.844   1.974  1.5487 -0.8286 -0.4205
39255SOL     OW24622   6.993   2.962   1.561  0.2418 -1.0184  0.2532
39255SOL    HW124623   7.034   3.032   1.509 -1.7028  1.7657  2.2215
39255SOL    HW224624   6.971   2.895   1.496 -0.4560  1.4684 -2.2934
39256SOL     OW24625  12.256   0.322   4.101 -0.0317  0.3852  0.3181
39256SOL    HW124626  12.351   0.307   4.102 -0.2957 -1.5397 -0.2022
39256SOL    HW224627  12.221   0.249   4.050 -1.6555  1.9974 -1.0187
39257SOL     OW24628  11.299   8.883   3.386 -0.2303 -0.2646 -0.0316
39257SOL    HW124629  11.294   8.975   3.359  1.6584 -0.5580 -1.5947
39257SOL    HW224630  11.306   8.834   3.304 -0.9051 -1.7988  0.7953
39258SOL     OW24631   6.121  11.326   6.197 -0.1708  0.0288 -0.6624
39258SOL    HW124632   6.111  11.392   6.128  0.9777  1.9177  0.8808
39258SOL    HW224633   6.185  11.264   6.161  1.2930  1.6081 -0.9087
39259SOL     OW24634   9.944   3.873   1.757 -0.6797 -0.0119  0.4040
39259SOL    HW124635   9.959   3.936   1.687  0.4698 -0.0053  0.6400
39259SOL    HW224636   9.981   3.915   1.835  3.3012 -2.2887 -0.0007
39260SOL     OW24637   1.713   4.540   5.843 -0.0780 -0.4306 -0.6359
39260SOL    HW124638   1.791   4.494   5.812  0.2453 -0.0595 -0.3739
39260SOL    HW224639   1.654   4.470   5.871 -0.1750 -0.7512 -1.5938
39261SOL     OW24640   5.528   8.627   6.433  0.2585 -0.1834  0.0166
39261SOL    HW124641   5.545   8.707   6.482  0.1234 -0.1028 -0.0656
39261SOL    HW224642   5.433   8.624   6.425  0.0211 -1.8110  2.4281
39262SOL     OW24643   3.857   5.839   7.066 -0.0119  0.0067 -0.0499
39262SOL    HW124644   3.950   5.822   7.077  0.4337  2.4495  0.5772
39262SOL    HW224645   3.841   5.825   6.972  0.7603 -1.2718 -0.0068
39263SOL     OW24646   4.654   4.979   1.470 -0.0834 -0.7811  0.4514
39263SOL    HW124647   4.603   5.034   1.531  0.7561  0.7637 -0.2088
39263SOL    HW224648   4.685   4.907   1.525  0.0749  0.2043  1.7117
39264SOL     OW24649   0.013   4.822   2.236 -0.3364 -0.1212 -0.0376
39264SOL    HW124650   0.009   4.885   2.307  0.2404  0.8732 -0.8527
39264SOL    HW224651  -0.077   4.790   2.226 -0.4179 -0.2688  1.1129
39265SOL     OW24652   6.841  10.740   6.639  0.5434 -0.1394 -0.3508
39265SOL    HW124653   6.768  10.754   6.700  0.8229 -0.3425  0.0318
39265SOL    HW224654   6.911  10.797   6.673  0.7439 -0.3563 -0.4029
39266SOL     OW24655   4.740   5.679   3.511 -0.4435  0.9114  0.5901
39266SOL    HW124656   4.670   5.616   3.529  0.7420 -0.4769  0.5156
39266SOL    HW224657   4.761   5.665   3.418  1.7034 -0.6138  1.2368
39267SOL     OW24658   9.037  12.226   6.394  0.0161 -0.0915 -0.6449
39267SOL    HW124659   9.123  12.204   6.359 -0.3232 -1.7793 -0.5336
39267SOL    HW224660   8.977  12.215   6.320 -0.3546 -1.0442 -0.2255
39268SOL     OW24661   7.686   2.874  10.193  0.0113 -0.4232  0.0905
39268SOL    HW124662   7.722   2.963  10.198  0.4686 -0.6410  0.8729
39268SOL    HW224663   7.653   2.866  10.104  1.6691 -0.1085 -0.5846
39269SOL     OW24664   0.205  11.846   9.976 -0.0282 -0.4461  0.3722
39269SOL    HW124665   0.269  11.779   9.951 -0.2241 -1.4818  2.4199
39269SOL    HW224666   0.222  11.862  10.069 -1.8074  0.3117  0.6081
39270SOL     OW24667   7.927   5.582   2.411 -0.5526 -0.0521  0.1803
39270SOL    HW124668   7.949   5.490   2.400  1.4820 -0.0267  3.0780
39270SOL    HW224669   7.980   5.627   2.346 -1.6788 -0.8615 -1.3636
39271SOL     OW24670   3.950   9.801   8.675 -0.3795  0.2116  0.2963
39271SOL    HW124671   3.897   9.739   8.726 -0.5484 -0.3483 -0.5452
39271SOL    HW224672   3.888   9.868   8.648 -0.7444 -0.5920 -0.9280
39272SOL     OW24673  11.988   8.239   6.256  0.3973 -0.9836 -0.3091
39272SOL    HW124674  12.050   8.169   6.279 -0.6301 -1.2366  2.0365
39272SOL    HW224675  12.021   8.316   6.302 -0.6797 -0.9924  0.5364
39273SOL     OW24676  10.442   5.878   3.602 -0.2675 -0.1045  0.0745
39273SOL    HW124677  10.381   5.928   3.656 -1.5334 -0.9693 -0.5292
39273SOL    HW224678  10.518   5.935   3.594 -1.5517  1.6190 -0.3723
39274SOL     OW24679   5.217   2.122  12.276 -0.4818  0.3793  0.0885
39274SOL    HW124680   5.142   2.110  12.218 -2.4979  2.1156  2.1219
39274SOL    HW224681   5.253   2.207  12.251  1.8213 -1.0325 -1.7998
39275SOL     OW24682   3.350   3.367   2.365  0.4090  0.2170  0.1066
39275SOL    HW124683   3.364   3.278   2.335  0.8209 -1.0942  3.6496
39275SOL    HW224684   3.255   3.378   2.367  0.3596 -0.1027 -0.3998
39276SOL     OW24685   8.496   3.952   1.815  0.1627  0.8325 -0.1941
39276SOL    HW124686   8.441   3.934   1.892 -0.8344  2.4878 -0.4742
39276SOL    HW224687   8.517   3.866   1.780 -0.5055  0.0897  1.1460
39277SOL     OW24688   5.972   1.030   9.986 -0.5170 -0.1076  0.4775
39277SOL    HW124689   5.877   1.027   9.973 -0.5889  0.5316  0.7790
39277SOL    HW224690   6.003   1.093   9.920 -0.4105  0.2883  0.8991
39278SOL     OW24691   2.362   3.786   2.723  0.2501  0.1868  0.2074
39278SOL    HW124692   2.308   3.762   2.647  0.3224 -0.3834  0.3365
39278SOL    HW224693   2.422   3.713   2.734  1.4393  1.0707 -0.2789
39279SOL     OW24694   2.156  10.218   1.838 -0.5362 -0.2358  0.0394
39279SOL    HW124695   2.216  10.292   1.842 -1.6896  0.9062 -1.8404
39279SOL    HW224696   2.070  10.256   1.857 -0.8449 -1.6565  1.7960
39280SOL     OW24697   3.564   2.285  10.780  0.1418  0.0597 -0.4340
39280SOL    HW124698   3.653   2.261  10.807  0.0758  1.2287  0.9555
39280SOL    HW224699   3.528   2.205  10.742  1.6110 -0.5735 -0.5744
39281SOL     OW24700   1.511   7.281  10.103  0.1607  0.1834 -0.0699
39281SOL    HW124701   1.453   7.332  10.046  0.0286 -0.2045 -0.2902
39281SOL    HW224702   1.599   7.312  10.082  0.2042 -0.6156 -1.1976
39282SOL     OW24703   5.457  12.044   5.832 -0.2739  0.7350  0.4137
39282SOL    HW124704   5.513  12.119   5.853  0.2101  0.6536 -0.5358
39282SOL    HW224705   5.471  11.982   5.904  1.0187  0.6342  0.0935
39283SOL     OW24706   9.551   0.678   0.979  0.2852  0.5951  0.2362
39283SOL    HW124707   9.568   0.730   0.901 -3.5354  0.5113 -0.8317
39283SOL    HW224708   9.546   0.742   1.050  2.0882  0.8411  0.2050
39284SOL     OW24709   0.711  11.286   5.047  0.0161  0.3649  0.2278
39284SOL    HW124710   0.712  11.299   4.952  2.0163  0.7164  0.2431
39284SOL    HW224711   0.793  11.325   5.077 -0.3913 -0.0890  2.0660
39285SOL     OW24712   5.989  11.811   5.335 -0.0720  0.4423  0.3042
39285SOL    HW124713   6.076  11.770   5.330 -0.4083 -0.4934  1.6716
39285SOL    HW224714   5.934  11.757   5.278 -0.4356 -0.8916  1.8405
39286SOL     OW24715   5.100   0.636   2.359 -0.5354 -0.6567  0.5460
39286SOL    HW124716   5.030   0.623   2.296 -0.3461 -0.6786  0.3378
39286SOL    HW224717   5.117   0.550   2.396 -0.1404 -0.7852  0.0835
39287SOL     OW24718   4.217   8.336   6.175  1.1069 -0.5859  0.4238
39287SOL    HW124719   4.179   8.318   6.262  0.0526 -0.9657 -0.0902
39287SOL    HW224720   4.141   8.341   6.117  1.8150 -0.5450 -0.5210
39288SOL     OW24721  10.532  10.435  10.261 -0.1055 -0.1667  0.7325
39288SOL    HW124722  10.513  10.356  10.312  1.7820 -0.7937  0.5282
39288SOL    HW224723  10.492  10.418  10.176 -1.4370 -0.0155  1.2977
39289SOL     OW24724   8.000   8.061  11.460 -0.5459  0.2876  0.4329
39289SOL    HW124725   7.953   8.142  11.477 -0.3853  0.0701  2.0611
39289SOL    HW224726   7.933   7.993  11.465 -0.5973  0.2614 -0.4592
39290SOL     OW24727   0.193   3.613  11.407  0.2866 -0.3906  0.0225
39290SOL    HW124728   0.273   3.608  11.459  1.5234 -0.5191 -1.8188
39290SOL    HW224729   0.162   3.522  11.401  0.2240 -0.3944  0.3980
39291SOL     OW24730   2.992   6.798   1.944  0.1655  0.5781  0.0179
39291SOL    HW124731   2.914   6.753   1.910 -0.2933  0.2930  1.3860
39291SOL    HW224732   3.049   6.807   1.868 -0.5764 -0.5365 -0.7035
39292SOL     OW24733   8.434  11.341   7.379  0.0661  0.2150 -0.1431
39292SOL    HW124734   8.480  11.268   7.337 -0.5409 -0.9086  1.1038
39292SOL    HW224735   8.477  11.350   7.464 -1.9744 -0.8880  1.0785
39293SOL     OW24736   9.774   4.195   7.901 -0.4138  0.0995 -0.0543
39293SOL    HW124737   9.731   4.279   7.921 -1.3051 -0.5071  0.6917
39293SOL    HW224738   9.851   4.219   7.850 -1.7209  1.2230 -1.5820
39294SOL     OW24739   4.265   3.391   9.900  0.0733  0.6910  0.4756
39294SOL    HW124740   4.197   3.363   9.962 -0.6357  1.6231  0.1458
39294SOL    HW224741   4.217   3.436   9.831  0.9654  0.6665 -0.1738
39295SOL     OW24742  12.298   6.613   7.044 -0.5030 -0.0465 -0.1473
39295SOL    HW124743  12.351   6.642   6.970 -2.1347  1.3031 -0.8692
39295SOL    HW224744  12.352   6.631   7.121  0.5161  0.2437 -0.9110
39296SOL     OW24745  11.051  11.206   0.123 -0.0041  0.2400  0.0223
39296SOL    HW124746  11.137  11.165   0.122 -1.2907 -2.7014 -0.0363
39296SOL    HW224747  11.021  11.197   0.213 -0.7289  0.1034 -0.2238
39297SOL     OW24748   0.156   0.255   3.650 -0.2867  0.1277  0.6144
39297SOL    HW124749   0.210   0.332   3.669  0.7688 -0.1080 -1.1618
39297SOL    HW224750   0.180   0.192   3.718 -0.5314  1.0608  1.5788
39298SOL     OW24751   8.372   3.830   8.127 -0.3083 -0.5510 -0.4164
39298SOL    HW124752   8.361   3.858   8.035 -1.1043  1.3090  0.1919
39298SOL    HW224753   8.289   3.852   8.168  0.6378  0.2508  1.1378
39299SOL     OW24754   3.891   4.106   8.332 -0.3504 -0.2292  0.1191
39299SOL    HW124755   3.984   4.116   8.351 -0.1234 -2.0588  0.1423
39299SOL    HW224756   3.884   4.020   8.291 -1.7617  0.7429 -1.8155
39300SOL     OW24757   4.339  11.133   9.376  0.6166 -0.0848  0.2442
39300SOL    HW124758   4.403  11.063   9.364  0.9097  0.4540 -1.6113
39300SOL    HW224759   4.355  11.166   9.465  1.0989 -1.7154  0.7895
39301SOL     OW24760   9.599   8.101   4.161 -0.0877 -0.2870 -0.3177
39301SOL    HW124761   9.505   8.101   4.144 -0.2380 -0.8797  0.4809
39301SOL    HW224762   9.632   8.022   4.117  0.2757  0.6151 -1.7517
39302SOL     OW24763   4.256   9.982   1.061 -0.8440 -0.2397  0.3870
39302SOL    HW124764   4.240   9.937   0.978 -2.3731  0.5768  0.2080
39302SOL    HW224765   4.256  10.075   1.038 -0.1958 -0.0402  1.1404
39303SOL     OW24766   8.149   0.451   1.002  0.4417 -0.1510 -0.5337
39303SOL    HW124767   8.115   0.534   1.037 -2.0830 -0.6888 -1.4881
39303SOL    HW224768   8.158   0.395   1.079 -1.9021 -0.2860 -0.2946
39304SOL     OW24769   9.416   1.071  10.836 -0.8821 -0.4217 -0.7556
39304SOL    HW124770   9.491   1.098  10.889  0.0241 -0.8308 -1.7955
39304SOL    HW224771   9.340   1.106  10.882 -0.2116 -1.4663  1.2628
39305SOL     OW24772   1.156   7.302   4.145 -0.1801  0.3064 -0.6648
39305SOL    HW124773   1.104   7.242   4.198 -2.6809  0.7459 -2.4589
39305SOL    HW224774   1.215   7.245   4.096  0.4657 -0.2808  0.7236
39306SOL     OW24775   3.493  11.190  11.441  0.3042 -0.1236  0.3831
39306SOL    HW124776   3.468  11.258  11.502 -0.2592 -0.3920  0.4516
39306SOL    HW224777   3.582  11.214  11.414 -0.8589  2.2333 -1.7857
39307SOL     OW24778   7.250  10.333   5.369  0.0307  0.2316  0.1493
39307SOL    HW124779   7.305  10.326   5.446  0.9425  1.6183 -0.3403
39307SOL    HW224780   7.172  10.379   5.400 -0.2913 -0.5678  0.5569
39308SOL     OW24781  10.486  12.055   3.628  0.2292  0.3339  0.9040
39308SOL    HW124782  10.576  12.065   3.598 -0.3244  0.6098 -0.7232
39308SOL    HW224783  10.475  12.124   3.693  0.9262  0.8532  0.4837
39309SOL     OW24784   6.888   9.195   2.394  0.0303 -0.4719 -0.4512
39309SOL    HW124785   6.961   9.140   2.366  0.1184 -0.5504 -0.0767
39309SOL    HW224786   6.833   9.204   2.316  0.8856  0.3232 -0.9944
39310SOL     OW24787  10.285   4.243   9.470 -0.2275  0.0199 -0.2897
39310SOL    HW124788  10.280   4.211   9.560 -1.5140 -3.3596 -1.4207
39310SOL    HW224789  10.379   4.245   9.451  0.1106  1.4358  1.2483
39311SOL     OW24790  12.424   0.948   2.421 -0.1437  0.3489 -0.4010
39311SOL    HW124791  12.441   0.855   2.426 -2.4587 -0.1467 -0.3223
39311SOL    HW224792  12.331   0.957   2.444 -0.4095  2.4881 -1.9048
39312SOL     OW24793  11.391   9.097   4.601 -0.5909 -0.2553 -0.0175
39312SOL    HW124794  11.478   9.089   4.563 -1.3452 -0.9084 -1.6815
39312SOL    HW224795  11.401   9.063   4.691  0.7446 -0.8118 -0.3557
39313SOL     OW24796   7.420   6.694  10.903 -0.2671 -0.1428  0.2986
39313SOL    HW124797   7.455   6.756  10.967 -1.7883  1.4331 -0.3049
39313SOL    HW224798   7.496   6.666  10.852  0.4617  1.2500  0.5896
39314SOL     OW24799  11.654   4.735  11.226  0.1229 -0.1488 -0.1407
39314SOL    HW124800  11.668   4.677  11.151 -1.9085  0.1959 -0.8382
39314SOL    HW224801  11.618   4.678  11.294  0.6603 -0.1944  0.1122
39315SOL     OW24802  12.096   5.128   2.260 -0.3902 -0.2050  0.0611
39315SOL    HW124803  12.125   5.075   2.334  2.7420 -0.9040 -1.4977
39315SOL    HW224804  12.106   5.218   2.290 -0.9254 -0.4492  1.0443
39316SOL     OW24805   5.975   6.201   6.541 -0.7233 -0.1223  0.1873
39316SOL    HW124806   5.893   6.249   6.556 -1.2453 -0.7825 -0.4470
39316SOL    HW224807   5.976   6.136   6.612 -1.3328 -0.8429 -0.4394
39317SOL     OW24808   1.681   4.835   4.659 -0.0714 -0.5486 -0.2020
39317SOL    HW124809   1.695   4.880   4.742 -0.7747  0.1676 -0.4528
39317SOL    HW224810   1.716   4.894   4.593 -0.7271 -0.5020 -0.5148
39318SOL     OW24811  11.478   8.969  12.244 -0.6774  0.2940  0.2188
39318SOL    HW124812  11.391   8.999  12.218 -1.0986 -0.4452  0.7345
39318SOL    HW224813  11.521   9.048  12.278 -1.0112  0.7388 -0.3742
39319SOL     OW24814   0.495   6.649   7.702  0.0949 -0.2227  1.1610
39319SOL    HW124815   0.449   6.582   7.752  1.0077 -1.0180  0.9519
39319SOL    HW224816   0.578   6.609   7.678  0.0899  0.4886 -0.1495
39320SOL     OW24817   3.791   7.973  12.151 -0.1260  0.5258 -0.2514
39320SOL    HW124818   3.826   8.004  12.235 -2.7369 -0.8889  1.4877
39320SOL    HW224819   3.849   7.901  12.126 -0.7811 -0.7586  1.7336
39321SOL     OW24820   8.934   5.484   2.891  0.1111  0.0780  0.3273
39321SOL    HW124821   8.882   5.521   2.820  0.4577  1.8477  0.9431
39321SOL    HW224822   9.025   5.493   2.860  0.1804 -0.8789  0.2238
39322SOL     OW24823   3.624   8.258   9.843  0.1613 -0.3654 -0.0841
39322SOL    HW124824   3.597   8.175   9.884  2.6084 -0.8641  0.6909
39322SOL    HW224825   3.544   8.310   9.840 -0.8682 -1.6585  2.1216
39323SOL     OW24826   7.027   4.076   0.247  0.1971 -0.2242  0.5428
39323SOL    HW124827   7.072   3.993   0.231  2.2212  1.2562 -2.5123
39323SOL    HW224828   6.940   4.063   0.210  0.2889 -1.1771  0.6363
39324SOL     OW24829   8.352  11.629  11.628  0.0200  0.2827  0.0277
39324SOL    HW124830   8.278  11.575  11.657 -0.3952 -0.5585 -2.3935
39324SOL    HW224831   8.359  11.612  11.534  2.7129  1.0901  0.0076
39325SOL     OW24832   9.516  10.797   1.363 -0.4366 -0.2943  0.0579
39325SOL    HW124833   9.602  10.800   1.320  0.8019 -1.8450  2.1722
39325SOL    HW224834   9.477  10.715   1.333 -0.3987 -0.4326  0.3722
39326SOL     OW24835   5.766   2.518   3.219  0.4076  0.5541 -0.1852
39326SOL    HW124836   5.757   2.433   3.261  0.3497  0.6374 -0.0282
39326SOL    HW224837   5.838   2.561   3.265  0.1905  0.7378 -0.0149
39327SOL     OW24838   6.957   7.007   4.516 -0.6195 -0.1107  0.2061
39327SOL    HW124839   6.900   6.934   4.542 -0.4713 -1.0598 -1.9444
39327SOL    HW224840   7.043   6.965   4.503 -0.1299  0.7713  0.5331
39328SOL     OW24841   3.853  11.423   2.767  0.6601 -0.1358 -0.3145
39328SOL    HW124842   3.839  11.498   2.709 -1.3496 -0.7398 -0.6882
39328SOL    HW224843   3.804  11.445   2.846  0.4606 -0.8425 -0.2389
39329SOL     OW24844   0.626   2.670  10.164  0.3815 -0.2246 -0.0430
39329SOL    HW124845   0.561   2.741  10.157 -0.6986 -1.0032  1.5585
39329SOL    HW224846   0.604   2.611  10.091  0.3301  0.3183 -0.4753
39330SOL     OW24847   7.768   1.577   2.124 -0.1277 -0.2530  0.0865
39330SOL    HW124848   7.777   1.670   2.102  0.7732 -0.4876 -0.5880
39330SOL    HW224849   7.680   1.570   2.161 -0.6637  0.6596 -0.9514
39331SOL     OW24850   5.816  12.243  11.257  0.1935  0.2950  0.1382
39331SOL    HW124851   5.876  12.247  11.183  1.5356 -1.5748  1.0182
39331SOL    HW224852   5.861  12.291  11.327  0.3424 -0.4900  0.5927
39332SOL     OW24853   1.282   8.202   8.285  0.0743  0.1668  0.4162
39332SOL    HW124854   1.301   8.281   8.233  0.1630  1.1671  1.9046
39332SOL    HW224855   1.215   8.156   8.235  0.9150  0.5387 -1.1086
39333SOL     OW24856   6.156   6.461  11.244  0.3589 -0.1038  0.0595
39333SOL    HW124857   6.109   6.465  11.328 -0.7617  0.7233 -0.5791
39333SOL    HW224858   6.225   6.527  11.253  0.4351 -0.2315  0.4463
39334SOL     OW24859   0.385   1.011   4.397  0.2335  0.2592 -0.0080
39334SOL    HW124860   0.377   1.106   4.396  1.5271  0.3959 -0.0188
39334SOL    HW224861   0.296   0.978   4.389 -0.1773  1.4735 -0.5752
39335SOL     OW24862   4.090   7.692   5.052 -0.0502 -0.0286 -0.3966
39335SOL    HW124863   4.138   7.768   5.020 -0.0631 -0.0567 -0.4842
39335SOL    HW224864   4.102   7.694   5.147 -0.4556  0.3532 -0.3512
39336SOL     OW24865   7.694   2.603  11.820  0.0772  0.4592 -0.3854
39336SOL    HW124866   7.724   2.691  11.797  0.8281  0.3239  0.0254
39336SOL    HW224867   7.618   2.588  11.765  0.7009  0.8711 -1.3817
39337SOL     OW24868   5.203   1.905  11.805 -0.5282  0.2552 -0.0132
39337SOL    HW124869   5.153   1.982  11.832 -0.5261 -0.4275  2.1911
39337SOL    HW224870   5.295   1.932  11.814 -0.5262 -0.0508  1.0167
39338SOL     OW24871   2.611  11.772   6.293  0.0435  0.1274  0.4396
39338SOL    HW124872   2.614  11.712   6.368 -2.1281  1.2539  1.4988
39338SOL    HW224873   2.621  11.859   6.331 -0.4956  0.6920 -0.6538
39339SOL     OW24874   7.319   1.312   2.995  0.6309 -0.7277  0.1993
39339SOL    HW124875   7.366   1.363   2.929  0.0711  1.1545  1.1777
39339SOL    HW224876   7.366   1.230   3.001  2.3469  0.1605 -0.5527
39340SOL     OW24877   6.619  11.173   5.345  0.0354  0.6295  0.0228
39340SOL    HW124878   6.674  11.239   5.388 -0.2562  0.2492  0.9820
39340SOL    HW224879   6.599  11.212   5.259  1.7754  0.7825 -0.3462
39341SOL     OW24880   2.869   5.012  10.318 -0.5276  0.3928  0.0727
39341SOL    HW124881   2.774   5.010  10.319 -0.5423 -1.6084 -0.5722
39341SOL    HW224882   2.894   4.941  10.259  1.3740  0.7477  0.3705
39342SOL     OW24883   1.493   2.842   7.744  0.6773  0.2196 -0.3620
39342SOL    HW124884   1.524   2.920   7.790 -0.0006  0.0222  0.4558
39342SOL    HW224885   1.409   2.822   7.784  0.9851 -1.1316 -0.3161
39343SOL     OW24886   2.775  12.249   9.991 -0.2486  0.0969 -0.2099
39343SOL    HW124887   2.738  12.310  10.056  0.9764 -0.7110  1.3188
39343SOL    HW224888   2.702  12.191   9.968 -0.1312 -1.3541  2.5945
39344SOL     OW24889   0.742  11.538  11.810 -0.5255 -0.1664 -0.6211
39344SOL    HW124890   0.773  11.626  11.792 -0.4801 -0.2651 -1.0221
39344SOL    HW224891   0.664  11.550  11.864  1.5377  0.0811  2.6442
39345SOL     OW24892  11.213   6.181   1.273  0.3847  0.2283  0.0522
39345SOL    HW124893  11.170   6.234   1.340 -0.7657 -1.9277  1.1354
39345SOL    HW224894  11.231   6.097   1.317  1.3204 -0.6014 -1.8022
39346SOL     OW24895   0.408   3.850   7.791 -0.7985 -0.0225 -0.0520
39346SOL    HW124896   0.432   3.759   7.777 -0.6547  0.2772 -2.1043
39346SOL    HW224897   0.314   3.849   7.809 -0.3246 -0.7670  2.8864
39347SOL     OW24898  10.493   9.936   7.491 -0.1667 -0.7594  0.5378
39347SOL    HW124899  10.539   9.853   7.478  0.5918 -0.1665 -0.7133
39347SOL    HW224900  10.464   9.933   7.582  0.7840 -1.9389  0.8286
39348SOL     OW24901  10.823   5.232   2.469  0.5160 -0.9270 -0.0610
39348SOL    HW124902  10.772   5.184   2.403 -0.4847 -0.2660  0.2142
39348SOL    HW224903  10.839   5.317   2.429  1.8105 -1.2670 -0.3204
39349SOL     OW24904   2.419   8.849   8.043 -0.0649  0.4832  0.2070
39349SOL    HW124905   2.398   8.931   8.088  0.8648  0.3486  0.8982
39349SOL    HW224906   2.474   8.876   7.969 -0.7029  0.5853 -0.2467
39350SOL     OW24907  10.096   1.540   8.780 -0.5480 -0.0354 -0.0271
39350SOL    HW124908  10.127   1.472   8.840  0.6946  0.0259 -0.5779
39350SOL    HW224909  10.003   1.548   8.800 -0.6955 -1.7790  0.1864
39351SOL     OW24910  10.509   6.245   4.296  0.1590 -0.4501  0.1923
39351SOL    HW124911  10.576   6.183   4.267  0.6422  0.4217 -0.5712
39351SOL    HW224912  10.445   6.190   4.342 -0.5573 -1.8574 -2.3307
39352SOL     OW24913   7.361   3.778   6.439  0.0181  0.6213 -0.2507
39352SOL    HW124914   7.425   3.714   6.408  1.8428  1.4958  1.4615
39352SOL    HW224915   7.292   3.725   6.479  0.8136 -0.3442 -0.0923
39353SOL     OW24916   6.800   4.231  12.001 -0.2363 -0.2345 -0.0631
39353SOL    HW124917   6.801   4.269  11.913  1.2467 -0.3392 -0.1091
39353SOL    HW224918   6.739   4.287  12.050 -1.6552 -0.6051 -1.3131
39354SOL     OW24919  10.145   7.333   9.457 -0.1943  0.3780 -0.4816
39354SOL    HW124920  10.143   7.242   9.429  2.2618 -0.2019  0.9315
39354SOL    HW224921  10.234   7.362   9.437 -0.3393  1.8671  0.8503
39355SOL     OW24922   9.195   4.656   2.212  0.0989  0.0157 -0.3398
39355SOL    HW124923   9.274   4.685   2.166 -1.1967  0.2767 -2.5480
39355SOL    HW224924   9.195   4.561   2.202  0.9054 -0.1567  1.0557
39356SOL     OW24925   5.742  12.052   7.614  0.3160  0.2791  0.5343
39356SOL    HW124926   5.831  12.079   7.588  0.8574 -0.8623  1.1319
39356SOL    HW224927   5.738  11.959   7.591 -0.0612 -0.1487  2.2189
39357SOL     OW24928  10.349  10.781  11.685 -0.7154  0.2739 -0.3233
39357SOL    HW124929  10.386  10.740  11.607  1.5181  2.3022 -0.4528
39357SOL    HW224930  10.301  10.711  11.728  1.2076 -1.9412 -1.5233
39358SOL     OW24931  10.417   8.978   7.220 -0.4222 -0.1239  0.3466
39358SOL    HW124932  10.452   8.949   7.136 -0.2387 -0.4826  0.5410
39358SOL    HW224933  10.467   8.928   7.285 -1.1093 -0.4465  0.6395
39359SOL     OW24934  10.696   1.031   2.028 -0.1109  0.4918  0.2297
39359SOL    HW124935  10.679   0.958   2.087 -0.1533 -0.4037 -0.8487
39359SOL    HW224936  10.733   0.990   1.949 -1.6080  1.4348 -1.0321
39360SOL     OW24937  11.366   2.886  10.601 -0.2122 -0.4588  0.1205
39360SOL    HW124938  11.346   2.817  10.538 -1.2774  0.5878 -0.7412
39360SOL    HW224939  11.280   2.922  10.624  0.1087 -1.0886  2.5220
39361SOL     OW24940   4.764  10.690   0.635 -0.0384 -0.0144 -0.6401
39361SOL    HW124941   4.826  10.619   0.646  0.2498  0.4485  0.9159
39361SOL    HW224942   4.769  10.712   0.542  1.4931 -0.5509 -0.7127
39362SOL     OW24943   3.725  11.912  10.696 -0.1960 -0.1961 -0.0653
39362SOL    HW124944   3.666  11.838  10.677 -0.0243 -0.4265  0.2791
39362SOL    HW224945   3.682  11.987  10.657 -2.6522  0.3358  3.1819
39363SOL     OW24946   7.741  10.716   3.368 -0.1561  0.2448  0.3969
39363SOL    HW124947   7.758  10.757   3.453  1.3356 -1.5282  1.0201
39363SOL    HW224948   7.708  10.787   3.313 -1.5963  1.3696  2.5622
39364SOL     OW24949   5.695   1.082  12.184 -0.7555  0.1115 -0.2737
39364SOL    HW124950   5.645   1.067  12.104 -0.9047  0.8360 -0.3211
39364SOL    HW224951   5.668   1.168  12.214  0.8094  0.7496 -0.5718
39365SOL     OW24952   3.436  11.260   5.994 -0.2819 -0.1530  0.0134
39365SOL    HW124953   3.370  11.207   5.950 -0.8134 -0.0143  0.6375
39365SOL    HW224954   3.426  11.347   5.956 -1.6746  0.3084  1.3588
39366SOL     OW24955   5.209   0.319   8.617  0.7059  0.6573  0.4230
39366SOL    HW124956   5.210   0.316   8.713 -0.9339 -0.6879  0.4338
39366SOL    HW224957   5.243   0.406   8.595  0.8347  1.0914  2.2249
39367SOL     OW24958   1.619   9.927   4.934 -0.5654 -0.0550  0.4923
39367SOL    HW124959   1.605   9.978   4.854  0.2749  1.4044  1.2281
39367SOL    HW224960   1.714   9.929   4.948 -0.7038 -0.2256  1.5549
39368SOL     OW24961   6.027   6.395   3.536  0.3579  0.4324  0.1248
39368SOL    HW124962   5.957   6.432   3.590  0.7803  0.8391  0.4066
39368SOL    HW224963   6.073   6.334   3.594  0.2173  0.1383 -0.0703
39369SOL     OW24964   7.499  11.735   4.643  0.1764 -0.0048  0.1510
39369SOL    HW124965   7.574  11.758   4.697  0.5238 -0.8243  0.0249
39369SOL    HW224966   7.435  11.698   4.704  0.3006 -0.3036  0.0992
39370SOL     OW24967   3.629  11.012   7.177  0.5398  0.5941  0.6332
39370SOL    HW124968   3.641  10.917   7.187 -0.8092  0.4030  0.6371
39370SOL    HW224969   3.663  11.031   7.090  0.3354  0.0057  0.4187
39371SOL     OW24970   0.687   3.043   9.716  0.1221  0.3119 -1.1229
39371SOL    HW124971   0.732   3.017   9.797 -0.6041  0.2937 -0.7150
39371SOL    HW224972   0.715   2.979   9.651 -0.3628 -0.5224 -0.5363
39372SOL     OW24973   4.610   7.291   3.101 -0.1522 -0.6892 -0.1030
39372SOL    HW124974   4.600   7.222   3.035 -1.2529 -1.4688  0.8383
39372SOL    HW224975   4.693   7.334   3.079  0.4445 -2.1640 -0.8568
39373SOL     OW24976   0.447  11.823  10.708 -0.5524 -0.2862 -0.8552
39373SOL    HW124977   0.368  11.772  10.727 -1.4779  1.3118 -0.1617
39373SOL    HW224978   0.479  11.787  10.626 -1.0401 -2.0884 -0.3019
39374SOL     OW24979  10.258   4.167  11.070 -0.1132 -0.0585  0.3587
39374SOL    HW124980  10.247   4.169  10.975 -0.0856 -0.8322  0.3278
39374SOL    HW224981  10.332   4.108  11.084 -0.0144  0.1801  0.8534
39375SOL     OW24982   2.999   0.174   1.066 -0.0169  0.9001  0.0591
39375SOL    HW124983   3.021   0.113   0.996 -0.5559  1.4799 -0.6277
39375SOL    HW224984   2.955   0.119   1.132  1.5231  0.1416  0.4947
39376SOL     OW24985   3.877   4.369  10.728 -0.3306  0.5519  0.3757
39376SOL    HW124986   3.826   4.434  10.680 -1.6073  1.8075  3.1827
39376SOL    HW224987   3.954   4.417  10.759  1.1457 -0.5693 -1.2998
39377SOL     OW24988   7.711   0.409   9.131  0.5175  0.2570  0.2127
39377SOL    HW124989   7.640   0.457   9.089  0.4085 -0.0732  0.0208
39377SOL    HW224990   7.753   0.361   9.060 -0.4732 -1.3240  0.6638
39378SOL     OW24991  11.086  10.160   9.064 -0.2117  0.7377 -0.4517
39378SOL    HW124992  11.005  10.211   9.063  0.1708  1.3526  0.1366
39378SOL    HW224993  11.099  10.135   8.972 -1.5224 -0.0974 -0.4315
39379SOL     OW24994  10.848   8.575   7.242 -0.2768  0.0404  0.5590
39379SOL    HW124995  10.831   8.658   7.198 -2.5869 -0.2759  0.6867
39379SOL    HW224996  10.819   8.589   7.332  1.3872 -0.2761  1.1742
39380SOL     OW24997   6.412   8.978   1.175  0.0755 -0.0354 -0.9531
39380SOL    HW124998   6.450   9.052   1.221 -1.2368  0.2984 -0.3853
39380SOL    HW224999   6.441   8.901   1.225 -0.2048  0.2307 -0.3818
39381SOL     OW25000   6.633  10.959   5.528 -0.2632  0.4784 -0.3713
39381SOL    HW125001   6.570  10.983   5.597  0.9573  1.8198  0.3518
39381SOL    HW225002   6.631  11.033   5.468 -0.4090 -0.1300 -1.1277
39382SOL     OW25003   4.077   7.475   1.807  0.0204 -0.0444  0.0739
39382SOL    HW125004   4.127   7.394   1.806  0.7053  0.3432  0.9704
39382SOL    HW225005   4.141   7.542   1.830 -1.0818  0.3040  2.4304
39383SOL     OW25006   6.366   8.917   2.005  0.2961 -0.4406  0.2335
39383SOL    HW125007   6.362   9.007   1.973  0.0514 -1.2884 -2.3270
39383SOL    HW225008   6.280   8.880   1.984  1.1371 -1.8988 -0.8564
39384SOL     OW25009  12.085  11.019   2.858 -0.0356  0.4865  0.5494
39384SOL    HW125010  12.106  11.006   2.765 -1.7775 -0.1784  0.2131
39384SOL    HW225011  12.161  10.986   2.904  0.1030 -0.9279 -0.6180
39385SOL     OW25012   3.880  10.773   0.584  0.0206 -0.2228  0.2242
39385SOL    HW125013   3.805  10.831   0.598  1.0505  0.8670  1.4485
39385SOL    HW225014   3.898  10.736   0.671  2.8882  2.0716  0.7435
39386SOL     OW25015   3.054   6.984   1.105  0.0464 -0.1960  0.0387
39386SOL    HW125016   3.065   6.905   1.158 -0.8264  0.3140  1.0339
39386SOL    HW225017   3.044   6.952   1.016  2.8227 -1.0136 -0.0536
39387SOL     OW25018  10.101   6.704  10.530  0.2652 -0.1156  0.3812
39387SOL    HW125019  10.169   6.738  10.588  0.0757  1.1196 -0.0984
39387SOL    HW225020  10.051   6.781  10.504 -0.1560 -0.7570 -0.7721
39388SOL     OW25021   9.814  10.551   2.604  0.0217  0.4104  0.1028
39388SOL    HW125022   9.829  10.525   2.513 -0.0210  2.6477 -0.6122
39388SOL    HW225023   9.720  10.536   2.617 -0.1609  0.9246 -0.5386
39389SOL     OW25024   0.806   1.421   6.205  0.3883  0.2589  0.2524
39389SOL    HW125025   0.819   1.338   6.159 -2.7164  0.6863 -1.6939
39389SOL    HW225026   0.871   1.480   6.166 -0.0085 -0.2608 -1.2809
39390SOL     OW25027   2.815  11.504   6.313  0.0059  0.5667 -0.1721
39390SOL    HW125028   2.843  11.566   6.381  1.0919  1.2502 -1.1866
39390SOL    HW225029   2.875  11.430   6.322  1.0417  1.2268 -1.1589
39391SOL     OW25030   5.727   3.385   1.906 -0.3141 -0.3779 -0.1369
39391SOL    HW125031   5.705   3.437   1.828 -2.2410  0.3493  0.8199
39391SOL    HW225032   5.822   3.388   1.911 -0.2348  0.8419 -1.6061
39392SOL     OW25033   8.460   5.145   0.376 -0.1459  0.6445 -0.2390
39392SOL    HW125034   8.403   5.217   0.402  0.5080  1.9556 -2.2212
39392SOL    HW225035   8.401   5.075   0.349 -0.7906  0.9931  0.2605
39393SOL     OW25036   1.668   6.825  12.480 -0.0273  0.2542  0.1125
39393SOL    HW125037   1.724   6.858  12.410 -0.6147 -1.2150 -1.1082
39393SOL    HW225038   1.596   6.781  12.434 -0.6028 -0.4794  1.6421
39394SOL     OW25039  11.892   8.673   5.407  0.0174 -0.1444 -0.1155
39394SOL    HW125040  11.906   8.670   5.501  2.2920 -3.2937 -0.3900
39394SOL    HW225041  11.879   8.582   5.382 -1.3788  0.6762 -2.8107
39395SOL     OW25042  10.217   2.594   2.772  0.2528 -0.0667 -0.4314
39395SOL    HW125043  10.263   2.574   2.691  0.8151  2.4119 -0.8184
39395SOL    HW225044  10.263   2.671   2.807 -2.6004  1.5924 -0.0225
39396SOL     OW25045  11.994  11.482   9.578  0.5107 -0.0915 -0.0906
39396SOL    HW125046  11.981  11.506   9.670 -0.8764 -0.6561 -0.1143
39396SOL    HW225047  11.963  11.558   9.529 -0.2086 -0.3797 -0.1002
39397SOL     OW25048   6.897   9.908  10.715 -0.1098 -0.3400 -0.5362
39397SOL    HW125049   6.935   9.844  10.777  2.6099  0.7891 -0.8837
39397SOL    HW225050   6.850   9.970  10.771 -1.4907 -1.7603 -0.0603
39398SOL     OW25051   7.723   3.934  10.382  0.2887  0.6270 -0.1219
39398SOL    HW125052   7.709   3.918  10.289  0.7615 -0.4787 -0.0147
39398SOL    HW225053   7.780   4.011  10.385 -2.4286  2.8402 -0.6428
39399SOL     OW25054   0.755   4.960  10.685  0.1840 -0.1718  0.2686
39399SOL    HW125055   0.741   4.875  10.727 -0.1992  0.3104  1.1518
39399SOL    HW225056   0.850   4.974  10.692  0.3249 -0.7401 -0.3365
39400SOL     OW25057   8.778   0.975   4.858 -0.4217  0.1751  0.1554
39400SOL    HW125058   8.846   0.927   4.812 -0.1315  0.5182  0.2156
39400SOL    HW225059   8.736   0.910   4.914  0.0824  0.0266  0.3686
39401SOL     OW25060   1.569   9.528   8.874 -0.9599 -0.0412 -0.1735
39401SOL    HW125061   1.488   9.538   8.923 -0.0304 -0.5239  1.5428
39401SOL    HW225062   1.588   9.434   8.878  0.1298  0.1767  0.2493
39402SOL     OW25063   9.029   9.801   0.514 -0.2809  0.2871 -0.2085
39402SOL    HW125064   9.060   9.823   0.426 -1.6602 -0.2546 -0.8692
39402SOL    HW225065   8.937   9.827   0.513 -1.2336 -2.7274 -0.0824
39403SOL     OW25066   8.784   6.396  12.077 -0.0179 -0.2265 -0.0954
39403SOL    HW125067   8.777   6.487  12.046  0.5910 -0.1599 -0.0574
39403SOL    HW225068   8.870   6.392  12.119 -0.7068 -0.4055  1.3310
39404SOL     OW25069   7.634  12.354   9.714  0.1038  0.1282  0.6306
39404SOL    HW125070   7.718  12.320   9.686 -0.4296 -0.5941 -0.1341
39404SOL    HW225071   7.624  12.325   9.805  1.0366  0.9285  0.9990
39405SOL     OW25072   3.029   9.242   0.297 -0.3642  0.3498 -0.0631
39405SOL    HW125073   2.959   9.225   0.360 -0.7262 -1.0163 -0.7911
39405SOL    HW225074   3.108   9.209   0.340 -0.3257  0.9450  0.3367
39406SOL     OW25075   4.231   0.087   1.510  0.4131 -0.1562  0.4897
39406SOL    HW125076   4.154   0.043   1.474  1.1881  0.2304 -1.8939
39406SOL    HW225077   4.252   0.039   1.589  0.2133 -3.0358 -1.0631
39407SOL     OW25078   3.146  12.367   4.360 -0.5733  0.0199  0.3211
39407SOL    HW125079   3.074  12.421   4.393  0.4299  0.8879  1.1654
39407SOL    HW225080   3.167  12.308   4.432 -0.5941 -0.4050 -0.0155
39408SOL     OW25081   5.147   5.794   5.394  0.4439  0.2965 -0.8114
39408SOL    HW125082   5.213   5.726   5.387  0.4652  0.3262 -0.9109
39408SOL    HW225083   5.083   5.760   5.457  0.4453  0.1776 -0.8739
39409SOL     OW25084   1.948  11.228  10.377  0.4170 -0.4079  0.1833
39409SOL    HW125085   1.985  11.140  10.368  2.0326  0.2147  0.3539
39409SOL    HW225086   1.871  11.228  10.320  1.2582 -1.4610 -1.0091
39410SOL     OW25087   7.356   7.512  11.394 -0.3435 -0.1143  0.0609
39410SOL    HW125088   7.283   7.471  11.441 -2.0353  0.7376 -1.6809
39410SOL    HW225089   7.389   7.442  11.336 -0.7383 -0.1076 -0.1779
39411SOL     OW25090   8.074  11.085   3.649  0.7943 -0.7020 -0.2542
39411SOL    HW125091   7.996  11.140   3.644  0.8501 -0.6946 -1.2963
39411SOL    HW225092   8.042  11.002   3.683  0.0398 -1.1599 -1.9524
39412SOL     OW25093   5.095   7.577   8.367  0.5818  0.8690 -0.1628
39412SOL    HW125094   5.033   7.620   8.308 -0.8968 -0.9841 -0.0635
39412SOL    HW225095   5.107   7.489   8.329  1.3382  0.4048  1.0942
39413SOL     OW25096  11.854   2.496   6.057 -0.1074 -0.4032 -0.1310
39413SOL    HW125097  11.796   2.556   6.010 -2.0713 -1.7058  0.5163
39413SOL    HW225098  11.847   2.522   6.149  0.5175 -0.4496 -0.0617
39414SOL     OW25099   5.077  12.359   4.261 -0.7111  0.0777  0.1431
39414SOL    HW125100   5.040  12.395   4.180 -1.1688 -1.5705 -0.4170
39414SOL    HW225101   5.016  12.289   4.286  1.2524 -1.7769 -0.0312
39415SOL     OW25102  12.519   0.310   2.425 -0.2793 -0.4353  0.3157
39415SOL    HW125103  12.522   0.223   2.385 -0.8228 -0.0319 -0.6491
39415SOL    HW225104  12.476   0.296   2.510  0.4807 -1.2413  0.5848
39416SOL     OW25105   6.133   6.735   7.580 -0.4173 -0.0493 -0.2493
39416SOL    HW125106   6.222   6.719   7.611  0.4723  2.8794 -0.9925
39416SOL    HW225107   6.088   6.773   7.656 -0.1440  1.1681 -0.6835
39417SOL     OW25108   4.600   7.863   6.337 -0.3033  0.1628  0.1611
39417SOL    HW125109   4.564   7.952   6.338  0.1243  0.3544 -0.6218
39417SOL    HW225110   4.673   7.867   6.275 -1.0034 -1.0114 -0.7987
39418SOL     OW25111  11.166   5.755   6.184  0.3504 -0.2885  0.1762
39418SOL    HW125112  11.083   5.743   6.137  0.3072  2.6677 -0.7470
39418SOL    HW225113  11.194   5.667   6.207 -1.6211 -1.6067 -2.0062
39419SOL     OW25114  10.428  11.206   4.011  0.3405  0.6440 -0.0241
39419SOL    HW125115  10.401  11.291   3.976  0.6075  0.5538 -0.4520
39419SOL    HW225116  10.463  11.159   3.936  0.2211  0.1630  0.2157
39420SOL     OW25117   1.273  12.049  11.194 -0.4683  0.0976  0.1721
39420SOL    HW125118   1.242  12.036  11.105 -0.4485 -0.0558  0.1876
39420SOL    HW225119   1.351  11.994  11.201 -1.7250 -1.6859  0.9857
39421SOL     OW25120   4.352   2.733  11.060 -0.2804 -0.3989  0.2078
39421SOL    HW125121   4.338   2.828  11.066 -1.4615 -0.6049  1.1853
39421SOL    HW225122   4.264   2.696  11.068  0.0421 -1.5579 -1.2574
39422SOL     OW25123   1.868   8.483   2.259  0.1067  0.5006 -0.1929
39422SOL    HW125124   1.841   8.563   2.214  1.0483  1.2280  0.4900
39422SOL    HW225125   1.892   8.512   2.347  0.6995 -0.4817 -0.0162
39423SOL     OW25126   6.481   6.437   3.395 -0.3676  0.4238  0.6698
39423SOL    HW125127   6.471   6.502   3.464 -1.2781 -0.2526  1.2016
39423SOL    HW225128   6.573   6.413   3.397  0.1185  2.1220  0.0561
39424SOL     OW25129   5.082   1.930   1.232 -0.3612 -0.1218 -0.5845
39424SOL    HW125130   5.005   1.906   1.283  0.6858 -1.1855  0.5556
39424SOL    HW225131   5.133   1.987   1.290  0.5421 -0.8420 -0.6482
39425SOL     OW25132   2.404   6.159   5.088 -0.2729 -0.0068  0.2085
39425SOL    HW125133   2.499   6.160   5.077 -0.0055 -1.9348  1.7142
39425SOL    HW225134   2.370   6.119   5.008 -0.0181  2.1066 -1.0304
39426SOL     OW25135   6.126   5.909   5.666  0.4313 -0.1830 -0.3502
39426SOL    HW125136   6.084   5.847   5.726  0.5145  0.1442  0.0538
39426SOL    HW225137   6.114   5.994   5.708  1.9026 -0.1245  0.0219
39427SOL     OW25138   7.845   1.169   8.148 -0.3133 -0.0072  0.0545
39427SOL    HW125139   7.828   1.118   8.227  0.5386 -1.1235 -0.4613
39427SOL    HW225140   7.759   1.183   8.110 -0.6205 -0.4751  0.5616
39428SOL     OW25141   0.891   8.521   3.339 -0.1679 -0.0830 -0.2001
39428SOL    HW125142   0.829   8.574   3.390 -0.8524 -0.5074 -0.5821
39428SOL    HW225143   0.969   8.576   3.333 -0.9804  1.0416 -0.8691
39429SOL     OW25144   4.369   6.224   5.483  0.7884 -0.0859  0.7197
39429SOL    HW125145   4.382   6.264   5.569 -1.6861 -0.6754  1.4611
39429SOL    HW225146   4.284   6.180   5.490  1.3339 -1.6765 -1.4786
39430SOL     OW25147   4.835  12.359   3.680  0.2102 -0.9108  0.2137
39430SOL    HW125148   4.914  12.352   3.626 -0.5050 -1.1655 -0.8252
39430SOL    HW225149   4.764  12.367   3.617 -0.4619  0.8949  1.1571
39431SOL     OW25150   3.335   3.566  11.141  0.3098  0.3001  0.4810
39431SOL    HW125151   3.329   3.577  11.046 -3.4363  0.4219  0.5531
39431SOL    HW225152   3.288   3.485  11.158  1.7882 -0.2375  2.1964
39432SOL     OW25153   0.652   7.398  11.599  0.3379 -0.0520  0.4123
39432SOL    HW125154   0.567   7.439  11.614  0.1501 -0.9828  2.1873
39432SOL    HW225155   0.653   7.378  11.505 -0.8292  1.1718  0.1173
39433SOL     OW25156   6.278   6.541   8.551  0.3432 -0.7440  0.4140
39433SOL    HW125157   6.332   6.607   8.507  0.0105 -1.5632 -1.3082
39433SOL    HW225158   6.228   6.590   8.616 -0.4971  0.8624 -1.3654
39434SOL     OW25159   4.105  10.869   6.510 -0.2981  0.0687 -0.4038
39434SOL    HW125160   4.151  10.802   6.459 -1.5610 -0.4726 -0.8846
39434SOL    HW225161   4.013  10.858   6.486 -0.7483  0.7919  0.8814
39435SOL     OW25162   0.766   8.570  11.699  0.0953  0.0564 -0.3033
39435SOL    HW125163   0.698   8.632  11.671 -0.2220  1.8524  3.7990
39435SOL    HW225164   0.848   8.617  11.683  0.0290  0.2984  0.0636
39436SOL     OW25165   0.920   5.678   8.594 -0.7013 -0.0424 -0.0796
39436SOL    HW125166   0.855   5.747   8.580 -2.6484 -1.6434  0.5151
39436SOL    HW225167   0.987   5.694   8.528  0.0065  3.5319  1.2787
39437SOL     OW25168   0.732   3.399   9.734 -0.1847 -0.6776 -0.0919
39437SOL    HW125169   0.797   3.343   9.776 -0.9814 -0.6819  1.1924
39437SOL    HW225170   0.783   3.455   9.675  0.9443 -0.9029  0.6313
39438SOL     OW25171  11.663   2.159  10.256  0.3199  0.0441 -0.2345
39438SOL    HW125172  11.713   2.215  10.196 -0.3042 -1.1532 -1.9589
39438SOL    HW225173  11.727   2.128  10.320  1.1746  0.7469 -0.7317
39439SOL     OW25174   6.359   0.743  11.274 -0.4728 -0.2374 -0.2715
39439SOL    HW125175   6.368   0.658  11.230  3.2261  0.9841 -2.3068
39439SOL    HW225176   6.399   0.729  11.360 -1.5532 -0.9414  0.1414
39440SOL     OW25177   9.326  10.763   7.664 -0.0082  0.1743 -0.5611
39440SOL    HW125178   9.298  10.774   7.755  1.2975 -1.5391  0.1022
39440SOL    HW225179   9.246  10.740   7.617 -0.6969  1.0589  0.1382
39441SOL     OW25180  11.808   2.984   8.970 -0.2817 -0.2606  0.0719
39441SOL    HW125181  11.904   2.982   8.976 -0.2915  0.7650  0.8019
39441SOL    HW225182  11.781   3.043   9.041 -1.4329 -0.2068 -0.3966
39442SOL     OW25183   8.192   6.510   4.270  0.0533  0.0851  0.1757
39442SOL    HW125184   8.243   6.504   4.189  1.0217 -3.1724  0.8589
39442SOL    HW225185   8.172   6.419   4.292 -0.3748  0.8478  3.4785
39443SOL     OW25186   2.290   0.652   5.081  0.2153  0.2282 -0.0654
39443SOL    HW125187   2.218   0.596   5.052 -0.8837  1.2540  0.5893
39443SOL    HW225188   2.301   0.632   5.174 -0.6896  1.5548  0.3701
39444SOL     OW25189   6.175  11.453   7.444 -0.1646  0.2217 -0.0968
39444SOL    HW125190   6.100  11.433   7.388  0.0728 -0.3417 -0.2222
39444SOL    HW225191   6.251  11.436   7.388  0.1145 -1.5375  0.7330
39445SOL     OW25192   9.750   8.365   8.494 -0.0299  0.6078 -0.3793
39445SOL    HW125193   9.674   8.320   8.532  1.5598 -1.3524  0.6181
39445SOL    HW225194   9.800   8.395   8.570  2.0793 -1.4253 -0.8890
39446SOL     OW25195  12.028   6.100   5.438 -0.1864 -0.0157  0.2421
39446SOL    HW125196  12.027   6.172   5.501  0.5401  0.6409 -0.4800
39446SOL    HW225197  11.939   6.064   5.442 -0.7758  1.3515  0.1314
39447SOL     OW25198   6.354   3.443   7.128 -0.2134  0.7115  0.1598
39447SOL    HW125199   6.303   3.463   7.206  1.2759  0.5020  1.2234
39447SOL    HW225200   6.382   3.528   7.095  1.2575  0.7079  1.3317
39448SOL     OW25201   5.353  11.760   0.464  0.3568  0.0494  0.2572
39448SOL    HW125202   5.401  11.838   0.437  0.4652  0.1035  0.6112
39448SOL    HW225203   5.347  11.707   0.384  0.2132  0.4534 -0.0060
39449SOL     OW25204  12.248   7.550   4.788 -0.1763 -0.8044  0.1171
39449SOL    HW125205  12.263   7.643   4.771 -2.6707 -0.6552 -1.6907
39449SOL    HW225206  12.237   7.545   4.883 -0.7732  0.8719  0.1673
39450SOL     OW25207   4.449   4.551   0.436 -0.2289  0.6118  0.1653
39450SOL    HW125208   4.371   4.497   0.425 -0.1174  0.6842 -1.1956
39450SOL    HW225209   4.419   4.628   0.484 -1.0894  0.8078 -0.6421
39451SOL     OW25210   4.923   2.609   0.217  0.7395 -0.4358 -0.3567
39451SOL    HW125211   4.889   2.692   0.252  1.4144 -0.1878 -0.2744
39451SOL    HW225212   4.942   2.557   0.295 -1.1447 -1.2870 -0.4247
39452SOL     OW25213   4.708   8.928  11.126 -0.3243  0.3024 -0.0224
39452SOL    HW125214   4.717   8.905  11.219 -0.2670 -1.0760 -0.3406
39452SOL    HW225215   4.734   8.848  11.080  1.5924  1.5718 -1.2751
39453SOL     OW25216  11.367   2.110  10.793  0.3506  0.1740 -0.0446
39453SOL    HW125217  11.351   2.163  10.715  1.1027  2.2620  1.1233
39453SOL    HW225218  11.403   2.172  10.856  1.3652 -1.8001  1.4057
39454SOL     OW25219   4.941  11.967   3.207 -0.4436 -0.5450 -0.7613
39454SOL    HW125220   5.031  11.947   3.183  1.0419 -0.3628  3.7205
39454SOL    HW225221   4.910  11.889   3.252 -0.9080  0.8451  1.4912
39455SOL     OW25222  11.482  10.598   4.118 -0.0788 -0.1203 -0.3643
39455SOL    HW125223  11.408  10.627   4.064 -1.8989 -1.6013  1.2018
39455SOL    HW225224  11.471  10.644   4.201  1.4949  0.5606 -0.5050
39456SOL     OW25225   9.467   0.983   4.445 -0.1204  0.1113 -0.1019
39456SOL    HW125226   9.504   0.972   4.357  0.8597 -0.7885  0.4039
39456SOL    HW225227   9.468   1.078   4.459  1.9967  0.1450 -0.1386
39457SOL     OW25228   5.331   3.883   3.451  0.3917 -0.0306  0.3955
39457SOL    HW125229   5.396   3.880   3.521  0.0761  0.4618  0.7163
39457SOL    HW225230   5.248   3.900   3.496  0.1476  0.0535 -0.0782
39458SOL     OW25231   5.411  10.003  11.112  0.2491  0.1953  0.1272
39458SOL    HW125232   5.351  10.049  11.170 -0.1465  0.2307 -0.3034
39458SOL    HW225233   5.380   9.913  11.112 -0.6106  0.4575 -1.0909
39459SOL     OW25234   7.553  12.560   0.509  0.6059  0.5007 -0.7532
39459SOL    HW125235   7.475  12.575   0.455 -1.9082 -3.6052  1.2575
39459SOL    HW225236   7.604  12.496   0.461  0.0898 -0.6126  0.1457
39460SOL     OW25237   2.533   3.680   8.837  0.7806  0.3288 -0.1685
39460SOL    HW125238   2.560   3.640   8.919  0.1997  0.5392  0.1327
39460SOL    HW225239   2.513   3.771   8.860 -0.8130  0.0181 -0.2320
39461SOL     OW25240  11.263   8.393   9.288  0.6161 -0.0532  0.0155
39461SOL    HW125241  11.307   8.329   9.343  1.0206  1.0269  1.0088
39461SOL    HW225242  11.233   8.344   9.212  1.2071 -1.3322  0.5834
39462SOL     OW25243  10.064   7.297  10.085 -0.1482  0.2130  0.2305
39462SOL    HW125244  10.048   7.277  10.177  0.7385  1.6236  0.7327
39462SOL    HW225245  10.159   7.302  10.077 -0.2348  1.4351 -0.4163
39463SOL     OW25246   9.460   8.622   7.972 -0.0707 -0.0750  0.2494
39463SOL    HW125247   9.488   8.531   7.972 -0.3418 -0.1666  1.4039
39463SOL    HW225248   9.428   8.638   8.061 -1.9694  0.5593 -0.4970
39464SOL     OW25249   9.928   5.413   5.093  0.2434 -0.4379  0.1313
39464SOL    HW125250   9.938   5.425   4.999 -1.1951  1.2976  0.1609
39464SOL    HW225251   9.879   5.490   5.123  0.2264 -1.1881  2.2256
39465SOL     OW25252   9.981   7.940   1.991  0.1652 -0.1457 -0.1876
39465SOL    HW125253   9.947   7.929   2.080  0.1661  0.1652 -0.1477
39465SOL    HW225254  10.050   8.006   1.999 -0.2802  0.3642 -0.5281
39466SOL     OW25255   0.694   4.696   9.884  0.7717  0.6859 -0.3320
39466SOL    HW125256   0.709   4.653   9.799  1.6584 -0.6581  0.4716
39466SOL    HW225257   0.599   4.701   9.892  0.6599 -0.6405 -0.6899
39467SOL     OW25258   0.452   8.536   5.059  0.2721  0.6152 -0.1017
39467SOL    HW125259   0.365   8.520   5.095  1.3473  0.4212  2.7039
39467SOL    HW225260   0.475   8.454   5.015  0.0780 -0.4129  1.5940
39468SOL     OW25261  10.962   8.598   9.069  0.3970  0.7361  0.3359
39468SOL    HW125262  10.942   8.687   9.042  1.7420  0.7937 -0.5760
39468SOL    HW225263  10.985   8.606   9.162  1.9597  1.6076 -0.0932
39469SOL     OW25264   0.583   0.050   2.789  0.1732  0.4843 -0.7811
39469SOL    HW125265   0.597  -0.039   2.756  0.9600  0.2186  0.2034
39469SOL    HW225266   0.544   0.038   2.875  1.9983  0.9988  0.1807
39470SOL     OW25267   7.175  11.323  12.277  0.0728 -0.0295  0.4889
39470SOL    HW125268   7.236  11.277  12.334  1.3286  0.5126 -0.3760
39470SOL    HW225269   7.156  11.261  12.207  0.6202  0.2341  0.0992
39471SOL     OW25270   4.766   6.931   5.995  0.1785  0.2642 -0.5945
39471SOL    HW125271   4.760   6.913   5.901 -0.6638  1.3625 -0.7817
39471SOL    HW225272   4.693   6.991   6.012 -0.5349 -0.9883  1.0394
39472SOL     OW25273  11.147   0.137  10.107  0.1719 -0.0031  0.0003
39472SOL    HW125274  11.165   0.191  10.184  1.4882 -1.5519  0.8270
39472SOL    HW225275  11.055   0.153  10.088 -0.3727 -0.0953  2.3207
39473SOL     OW25276   8.400   9.469   8.048  0.0567 -0.1661 -0.1961
39473SOL    HW125277   8.411   9.557   8.012 -1.3021  0.8778  1.7551
39473SOL    HW225278   8.314   9.470   8.089 -0.3177 -2.6824 -0.7700
39474SOL     OW25279  11.191   2.424   3.870 -0.7166  0.4389 -0.1957
39474SOL    HW125280  11.154   2.415   3.782  0.4602  0.5623 -0.7155
39474SOL    HW225281  11.236   2.509   3.869  1.1834 -0.5109 -0.2093
39475SOL     OW25282   3.206   0.072  11.123  0.6836 -0.2559  0.1900
39475SOL    HW125283   3.180   0.138  11.059  1.3173  0.3134  0.5106
39475SOL    HW225284   3.274   0.114  11.175  0.7306 -0.9846  0.7347
39476SOL     OW25285   3.703   8.962   2.940 -0.9045 -0.2060 -0.2580
39476SOL    HW125286   3.652   8.948   3.020 -1.4890 -1.3225 -0.7946
39476SOL    HW225287   3.695   8.879   2.893  1.8746 -0.6244 -0.1186
39477SOL     OW25288   7.998   2.386   8.669  0.4181 -0.2534 -0.3785
39477SOL    HW125289   8.084   2.413   8.701  1.3969 -1.5188 -1.8072
39477SOL    HW225290   7.999   2.408   8.576 -1.1898  0.5695 -0.2301
39478SOL     OW25291   6.362  11.287  10.713 -0.3828 -0.1779 -0.0550
39478SOL    HW125292   6.420  11.211  10.707 -0.8557 -0.5630  0.1252
39478SOL    HW225293   6.378  11.323  10.800  1.3488  1.1840 -0.8876
39479SOL     OW25294   5.734   9.768   0.927 -0.0607 -0.3105 -0.1823
39479SOL    HW125295   5.646   9.794   0.955 -1.2586 -2.0056 -2.1127
39479SOL    HW225296   5.775   9.734   1.006  0.0022  3.0364  1.4331
39480SOL     OW25297  10.076   7.337   4.103 -0.8555 -0.6399  0.1438
39480SOL    HW125298  10.082   7.346   4.008  0.5831 -2.1929  0.0289
39480SOL    HW225299   9.984   7.317   4.120 -1.6555  2.0203 -0.6167
39481SOL     OW25300   7.730   8.987   7.606  0.1042  0.6075 -0.2338
39481SOL    HW125301   7.732   8.921   7.537 -1.0255 -1.1696  1.3220
39481SOL    HW225302   7.799   8.961   7.667 -0.2228  0.9498  0.3003
39482SOL     OW25303   2.113  12.158   9.297 -0.2834  0.4211 -0.1691
39482SOL    HW125304   2.156  12.142   9.213 -0.4121  1.3002 -0.4091
39482SOL    HW225305   2.135  12.248   9.319 -0.5513  0.3124  0.5654
39483SOL     OW25306   4.553   5.538   6.038  0.0943 -0.2073  0.1317
39483SOL    HW125307   4.530   5.486   5.961 -0.1600 -1.5007  1.0311
39483SOL    HW225308   4.495   5.613   6.036  1.5958  1.0020 -2.1124
39484SOL     OW25309   5.724   2.421  10.938  0.0819 -0.2054  0.3422
39484SOL    HW125310   5.762   2.408  11.024 -0.1267 -0.1561  0.4414
39484SOL    HW225311   5.662   2.494  10.949  0.6624  0.3623 -0.0340
39485SOL     OW25312   3.951   2.701   8.818 -0.1001 -0.3063  0.2573
39485SOL    HW125313   3.859   2.675   8.816 -0.8456  2.1851 -0.2878
39485SOL    HW225314   3.988   2.665   8.737 -1.0668  0.1953 -0.4255
39486SOL     OW25315   8.247   6.722   6.454 -0.0446  0.1135 -0.1855
39486SOL    HW125316   8.304   6.726   6.531 -1.2371  0.6770  0.6964
39486SOL    HW225317   8.168   6.769   6.480 -1.5434 -1.9169 -0.8571
39487SOL     OW25318   6.474   4.812   1.646 -0.3150  0.0623 -0.1817
39487SOL    HW125319   6.483   4.777   1.735  0.9399  0.6530 -0.0621
39487SOL    HW225320   6.554   4.786   1.601 -1.1598 -0.6944 -1.3365
39488SOL     OW25321   3.355   7.881   9.400 -0.2325  0.5995  0.2092
39488SOL    HW125322   3.333   7.885   9.306  0.2868 -1.4446 -0.0394
39488SOL    HW225323   3.302   7.809   9.434  0.9906  0.0648  1.0602
39489SOL     OW25324   0.729   3.828   2.025 -0.4290  0.5171 -0.1809
39489SOL    HW125325   0.735   3.912   2.069  0.5748  0.1731  0.3834
39489SOL    HW225326   0.819   3.796   2.021 -0.7105 -0.2518 -0.9429
39490SOL     OW25327   2.746   2.608   1.703 -0.1258 -0.3083  0.1964
39490SOL    HW125328   2.802   2.665   1.650 -0.6415 -1.6597 -1.9312
39490SOL    HW225329   2.687   2.668   1.748  3.1319  1.2477  2.9066
39491SOL     OW25330   7.110   7.790  12.403 -0.2969 -0.3464  0.2416
39491SOL    HW125331   7.086   7.776  12.312  0.8922  0.7985 -0.2891
39491SOL    HW225332   7.034   7.833  12.442 -1.4519 -2.2927  0.2523
39492SOL     OW25333   0.548   6.349   5.599  0.2382  0.0910  0.5386
39492SOL    HW125334   0.500   6.315   5.674 -1.1940 -0.0724 -0.4035
39492SOL    HW225335   0.495   6.421   5.566  2.3366  2.1482  1.4194
39493SOL     OW25336   1.645   5.620   7.504  0.0297  0.3401 -0.5614
39493SOL    HW125337   1.716   5.633   7.567 -0.2299 -0.1032 -0.1673
39493SOL    HW225338   1.628   5.707   7.469  1.4932  0.2879 -1.4679
39494SOL     OW25339  11.558   9.712  10.881  0.0011  0.1920 -0.1214
39494SOL    HW125340  11.506   9.664  10.945  0.0620 -0.1599 -0.3359
39494SOL    HW225341  11.580   9.794  10.925 -1.4297  0.7140 -0.3120
39495SOL     OW25342   5.696   6.144   4.765 -0.4156  0.2594  0.3813
39495SOL    HW125343   5.728   6.057   4.788 -0.4208  0.3538  0.7467
39495SOL    HW225344   5.623   6.128   4.705 -0.0872  0.0296  0.0342
39496SOL     OW25345   4.400   8.545   3.043 -0.3659 -0.4159 -0.2039
39496SOL    HW125346   4.434   8.625   3.002  1.0651 -0.2931  1.1109
39496SOL    HW225347   4.362   8.496   2.971 -2.3351  1.9251 -0.8907
39497SOL     OW25348   4.716  10.536   7.388 -0.3638 -0.2509  0.3911
39497SOL    HW125349   4.749  10.592   7.460 -0.2631  1.1658 -0.7075
39497SOL    HW225350   4.774  10.557   7.314 -0.1712 -2.0341  0.0023
39498SOL     OW25351   9.022   1.989  11.531  0.2010 -0.1310  0.1310
39498SOL    HW125352   9.083   1.917  11.551 -0.4722 -1.0983 -1.1830
39498SOL    HW225353   9.073   2.068  11.549  0.7841 -0.9052  2.1497
39499SOL     OW25354  11.679  10.319  10.876 -0.3840 -0.1484 -0.2133
39499SOL    HW125355  11.705  10.408  10.851 -1.1334  0.0276 -0.3941
39499SOL    HW225356  11.592  10.308  10.838 -0.5468 -0.7435  0.3191
39500SOL     OW25357   3.185   7.477  11.470  0.4564 -0.7637 -0.3521
39500SOL    HW125358   3.129   7.485  11.547  0.4004  1.4347 -0.5443
39500SOL    HW225359   3.129   7.439  11.403  0.1192 -1.4502  0.3090
39501SOL     OW25360   2.762   2.224   6.058 -0.3760 -0.1995  0.1089
39501SOL    HW125361   2.720   2.169   6.124  0.3853  0.6283  1.3282
39501SOL    HW225362   2.701   2.295   6.042  0.8703  1.5610  2.6317
39502SOL     OW25363   5.895   4.272  11.632  0.0155  0.3556 -0.3622
39502SOL    HW125364   5.990   4.284  11.641  0.1860  0.1651 -1.7666
39502SOL    HW225365   5.864   4.264  11.722  1.7263 -2.6288  0.1015
39503SOL     OW25366   3.885   9.493   6.656  0.4748 -0.5392  0.3471
39503SOL    HW125367   3.938   9.437   6.713  0.4687 -0.3216  0.5683
39503SOL    HW225368   3.944   9.519   6.585  1.3286  1.4415  1.6940
39504SOL     OW25369   7.762   0.400   3.674  0.2469  0.4940 -0.5131
39504SOL    HW125370   7.668   0.383   3.677  0.6912 -2.3567  0.9267
39504SOL    HW225371   7.783   0.407   3.581 -1.0351 -1.5151 -1.0157
39505SOL     OW25372   6.325   1.107   1.932 -0.0911 -0.2065  0.9273
39505SOL    HW125373   6.419   1.104   1.949 -0.1281 -1.6129  1.0067
39505SOL    HW225374   6.318   1.129   1.839  0.3990 -1.8484  0.4662
39506SOL     OW25375   6.235   0.000   1.964  0.4313  0.0553  0.1489
39506SOL    HW125376   6.303  -0.006   2.031 -0.1118  0.2593  0.7250
39506SOL    HW225377   6.163  -0.054   1.997  0.3753 -0.3142 -0.5445
39507SOL     OW25378   3.527   5.981   6.508  0.2412  0.1271 -0.3737
39507SOL    HW125379   3.511   6.062   6.556  0.9410 -0.4878  0.9676
39507SOL    HW225380   3.441   5.955   6.476 -0.6354 -0.3469  2.1130
39508SOL     OW25381   4.758   8.073  10.253  0.0798  0.5083  0.0453
39508SOL    HW125382   4.744   8.164  10.226  0.0736  0.5205  0.0898
39508SOL    HW225383   4.677   8.048  10.297  0.2550  0.6318  0.4429
39509SOL     OW25384   9.343   0.385   9.915  0.4997  0.1109 -0.5426
39509SOL    HW125385   9.338   0.477   9.887  1.2720  0.2284 -0.3094
39509SOL    HW225386   9.294   0.383   9.997 -0.6472  0.0338 -1.2065
39510SOL     OW25387   8.776   7.646   1.516  0.5311 -0.4998  0.4196
39510SOL    HW125388   8.722   7.697   1.577  1.5439  1.1078  0.0482
39510SOL    HW225389   8.782   7.559   1.555  0.4386  0.2407  2.1723
39511SOL     OW25390   6.609   5.052   3.417  0.0554 -0.0900  0.4989
39511SOL    HW125391   6.543   5.083   3.355  0.7645  0.1354 -0.1693
39511SOL    HW225392   6.650   5.132   3.451  1.9610 -0.2190 -1.3091
39512SOL     OW25393   0.585   2.940   6.312 -0.1933 -0.1407 -0.0791
39512SOL    HW125394   0.507   2.926   6.365 -0.4183  1.2873  0.0105
39512SOL    HW225395   0.649   2.877   6.346 -1.0004 -0.6798  0.4748
39513SOL     OW25396   7.136   1.012   2.200  0.6603 -0.1382  0.2762
39513SOL    HW125397   7.088   1.047   2.275  1.2469 -0.2255  0.7022
39513SOL    HW225398   7.122   1.075   2.130  0.8197  0.3897  0.7169
39514SOL     OW25399   9.703   2.999   5.810 -0.1005 -0.2454 -0.0163
39514SOL    HW125400   9.699   2.904   5.798 -2.3196 -0.2955  0.5592
39514SOL    HW225401   9.626   3.031   5.763  0.7610  1.3150 -0.4190
39515SOL     OW25402  10.690   6.326   5.529 -0.0030 -0.7510 -0.0555
39515SOL    HW125403  10.714   6.308   5.438  0.6079  1.8449 -0.4864
39515SOL    HW225404  10.752   6.393   5.558 -0.6142 -1.0313  2.0618
39516SOL     OW25405   3.840   5.441   3.243 -0.1778 -0.3308  0.4749
39516SOL    HW125406   3.790   5.405   3.171  1.0775 -0.6226 -0.2778
39516SOL    HW225407   3.931   5.416   3.225  0.7319  2.7809  0.1217
39517SOL     OW25408   2.036  10.186   2.762 -0.3717 -0.4285  0.2036
39517SOL    HW125409   1.959  10.204   2.707 -1.1627  0.6252  1.5994
39517SOL    HW225410   2.109  10.227   2.716 -1.4329  2.7044  1.1036
39518SOL     OW25411   2.974   3.583   1.451 -0.3449  0.4451 -0.4020
39518SOL    HW125412   2.970   3.675   1.477 -1.5541  0.9790 -2.2369
39518SOL    HW225413   3.051   3.578   1.394 -0.3230  0.3318 -0.3626
39519SOL     OW25414   4.075   1.508   3.996  0.5887  0.5503 -0.0241
39519SOL    HW125415   4.109   1.427   4.036 -0.4649 -0.2258 -0.6511
39519SOL    HW225416   4.049   1.482   3.908 -2.7261  0.7763  0.7784
39520SOL     OW25417   8.735  11.193   5.609 -0.4882 -0.1390  0.2526
39520SOL    HW125418   8.760  11.274   5.563 -2.2358 -0.1017 -0.7094
39520SOL    HW225419   8.774  11.123   5.556 -1.9116 -0.0603 -0.9487
39521SOL     OW25420   5.185  11.743  11.729  0.1050  0.0156 -0.5936
39521SOL    HW125421   5.214  11.821  11.776 -0.4948 -0.3619  0.4425
39521SOL    HW225422   5.256  11.725  11.667 -0.0678  1.7684 -1.3630
39522SOL     OW25423   6.042  12.179   9.765  0.1071 -0.2709  0.0530
39522SOL    HW125424   6.059  12.256   9.818 -0.3125 -0.7765  0.9539
39522SOL    HW225425   6.004  12.213   9.684 -1.9498  0.3859  1.2124
39523SOL     OW25426  10.125   7.705  12.356 -0.2926  0.0948  0.4681
39523SOL    HW125427  10.102   7.797  12.363  0.0300  0.1597  0.6772
39523SOL    HW225428  10.049   7.665  12.313  0.4770  0.8357 -1.7235
39524SOL     OW25429   3.435   7.249   0.817  0.2639 -0.9552 -0.2202
39524SOL    HW125430   3.426   7.160   0.852  3.6927 -1.8489 -1.2333
39524SOL    HW225431   3.497   7.292   0.876  1.7219 -0.6419 -1.8651
39525SOL     OW25432   8.665   7.286   0.235 -0.1004 -0.6823 -0.5475
39525SOL    HW125433   8.722   7.323   0.168  1.1885 -1.1561  0.2560
39525SOL    HW225434   8.683   7.192   0.234 -1.6800 -1.0107 -1.0069
39526SOL     OW25435   9.299   5.263  12.376 -0.0174 -0.5210  0.3918
39526SOL    HW125436   9.374   5.288  12.323 -0.2084 -0.7604  0.0018
39526SOL    HW225437   9.308   5.168  12.386  0.6112 -0.3444  1.7134
39527SOL     OW25438   9.073   6.087   9.840  0.5840  0.5242  0.1362
39527SOL    HW125439   9.047   6.154   9.777  2.3418  1.0583 -0.0967
39527SOL    HW225440   9.061   6.127   9.926  0.1663  0.5680  0.0555
39528SOL     OW25441   8.716   2.806   9.731  0.0128 -0.6482  0.7180
39528SOL    HW125442   8.655   2.879   9.720  0.5645 -0.1896  0.6537
39528SOL    HW225443   8.689   2.741   9.666  0.3673  0.0778 -0.1720
39529SOL     OW25444   3.866   2.125   0.454 -0.1603 -0.2184  0.5679
39529SOL    HW125445   3.913   2.048   0.423  0.3774 -0.5505  2.0950
39529SOL    HW225446   3.902   2.142   0.541 -0.0288  1.9794  0.1428
39530SOL     OW25447   0.090   7.873   7.952  0.4452  0.2584  0.7886
39530SOL    HW125448   0.179   7.891   7.985  0.2957  0.2453  1.2043
39530SOL    HW225449   0.100   7.794   7.899  0.0914 -1.8641  3.6382
39531SOL     OW25450   1.610   6.239   1.341  0.0343  0.4282 -0.3917
39531SOL    HW125451   1.573   6.152   1.329 -0.6292  0.5696  0.5115
39531SOL    HW225452   1.599   6.281   1.255 -0.9448  0.0947 -0.4421
39532SOL     OW25453   6.558  11.335   7.914  0.1633  0.6396  0.0833
39532SOL    HW125454   6.519  11.338   7.826  0.8337  1.3964 -0.1992
39532SOL    HW225455   6.615  11.259   7.912 -0.6830 -0.0196  0.2471
39533SOL     OW25456   9.632  12.347  11.225 -0.1288 -0.0736 -0.3473
39533SOL    HW125457   9.629  12.279  11.157  0.3739 -2.7586  2.1281
39533SOL    HW225458   9.725  12.365  11.237 -0.1180 -0.6821  0.5712
39534SOL     OW25459   0.383   6.426   6.720  0.5081 -0.5645 -0.3255
39534SOL    HW125460   0.410   6.373   6.645  0.2289 -0.3799 -0.5615
39534SOL    HW225461   0.365   6.362   6.789 -2.2283 -1.0313 -1.3394
39535SOL     OW25462   1.012   7.800  10.271  0.1757 -0.3887  0.0988
39535SOL    HW125463   1.031   7.773  10.182 -0.6507  0.1213 -0.2442
39535SOL    HW225464   1.056   7.735  10.326  1.9512  0.1287 -0.6345
39536SOL     OW25465   4.211  10.174   5.474  0.3158  0.1999 -0.0921
39536SOL    HW125466   4.296  10.131   5.477 -0.3456 -1.0882  1.0932
39536SOL    HW225467   4.148  10.103   5.462 -0.7461  0.8864  1.1167
39537SOL     OW25468   9.417   5.918   8.527 -0.1932  0.2097  0.1742
39537SOL    HW125469   9.350   5.856   8.555 -0.7941  0.5285 -0.5352
39537SOL    HW225470   9.395   5.999   8.573 -0.5361  0.4260 -0.3614
39538SOL     OW25471   8.255   0.068  11.978 -0.0106 -1.3695  0.0373
39538SOL    HW125472   8.303   0.049  11.897 -0.4300 -0.5639 -0.4059
39538SOL    HW225473   8.318   0.049  12.047  0.9833 -0.2901 -0.5383
39539SOL     OW25474   0.286   4.860   7.568 -0.3818 -0.1688  0.1522
39539SOL    HW125475   0.315   4.921   7.636  0.4444 -0.7938  0.3666
39539SOL    HW225476   0.230   4.913   7.512 -0.8843  0.4215  1.1742
39540SOL     OW25477   4.472   7.763   7.859  0.0793  0.1434 -0.2712
39540SOL    HW125478   4.437   7.674   7.860 -0.2266  0.2666  0.0880
39540SOL    HW225479   4.464   7.794   7.949  0.7433  0.3210 -0.2613
39541SOL     OW25480  10.426   9.337   2.144  0.5027 -0.0182  0.4378
39541SOL    HW125481  10.444   9.246   2.165 -0.2981 -0.4513 -0.6941
39541SOL    HW225482  10.351   9.335   2.086  0.3677  1.3819  0.5118
39542SOL     OW25483   4.000   3.287   2.111 -0.0391 -0.2807 -0.4716
39542SOL    HW125484   4.090   3.320   2.106 -0.1416 -0.1562 -1.9184
39542SOL    HW225485   4.007   3.196   2.084 -0.4424 -0.0651 -1.3195
39543SOL     OW25486   8.063   2.380   5.461 -0.7721 -0.2002  0.4093
39543SOL    HW125487   7.976   2.359   5.427 -0.3748 -1.4055  0.0836
39543SOL    HW225488   8.076   2.472   5.440 -1.4779 -0.3231 -0.6261
39544SOL     OW25489   8.435  10.428   6.577  0.3013 -0.2176 -0.8889
39544SOL    HW125490   8.497  10.440   6.506  0.7306  1.7094 -0.2280
39544SOL    HW225491   8.412  10.516   6.606 -3.3232 -0.7767 -1.5552
39545SOL     OW25492   2.338  11.868  11.844 -0.4126  0.0834 -0.1902
39545SOL    HW125493   2.386  11.795  11.806  1.1186  1.2765 -0.6390
39545SOL    HW225494   2.378  11.881  11.930 -0.1054  0.9334 -0.4604
39546SOL     OW25495  11.462   6.292   7.348  0.5546  0.7712 -0.4940
39546SOL    HW125496  11.532   6.231   7.325 -0.8645 -0.8041 -0.7638
39546SOL    HW225497  11.483   6.320   7.437  1.0595 -0.3594 -0.2439
39547SOL     OW25498   7.830   8.275   6.212  0.1835 -0.3652  0.2450
39547SOL    HW125499   7.792   8.358   6.241 -0.5077 -0.9220  0.9716
39547SOL    HW225500   7.767   8.240   6.149 -0.6947 -1.4302  1.6683
39548SOL     OW25501   4.686   8.818   1.587  0.1724 -0.0504 -0.4021
39548SOL    HW125502   4.607   8.865   1.560 -0.4236 -1.6644 -1.6245
39548SOL    HW225503   4.757   8.863   1.540 -0.0160  1.1761  0.4191
39549SOL     OW25504   4.878   5.428  10.934 -0.2207  0.8527  0.4069
39549SOL    HW125505   4.790   5.400  10.959 -1.1053  3.2811  0.2949
39549SOL    HW225506   4.867   5.463  10.846  1.0927  0.2623 -0.0050
39550SOL     OW25507  12.451  11.389   9.043 -0.3926  0.0568 -0.2649
39550SOL    HW125508  12.421  11.301   9.021 -2.6882  0.7265 -0.1114
39550SOL    HW225509  12.522  11.407   8.982  0.8729 -2.2687  0.4226
39551SOL     OW25510  10.585  11.683   8.939 -0.0462  0.0974  0.6355
39551SOL    HW125511  10.507  11.733   8.962 -0.2551  0.0205  0.1073
39551SOL    HW225512  10.552  11.608   8.889  0.4102  0.4387 -0.2039
39552SOL     OW25513   9.416   7.017   1.301  0.1454 -0.0082  0.3306
39552SOL    HW125514   9.454   7.028   1.214 -1.4484  0.0948 -0.3754
39552SOL    HW225515   9.330   7.059   1.296 -0.1016 -0.2714  1.8635
39553SOL     OW25516   8.943   8.705   3.588 -0.2291  0.7598 -0.0630
39553SOL    HW125517   8.887   8.769   3.631 -1.0861  0.8284 -1.2130
39553SOL    HW225518   9.005   8.677   3.655  1.0694  3.7751  0.1240
39554SOL     OW25519   7.699   0.300   2.398 -0.0175  0.7677  0.2183
39554SOL    HW125520   7.665   0.378   2.441  0.7102  2.1534 -1.6106
39554SOL    HW225521   7.622   0.246   2.382 -0.4980  0.9535  1.7355
39555SOL     OW25522  11.859  10.004  12.509 -0.2385  0.4993  0.1062
39555SOL    HW125523  11.787  10.059  12.540 -0.8600 -0.5159  0.4911
39555SOL    HW225524  11.905   9.977  12.589 -1.9661 -2.2989  0.2656
39556SOL     OW25525   3.329   3.925   6.954 -0.1934  0.5576  0.6732
39556SOL    HW125526   3.273   3.881   6.890  2.1490  0.3076 -1.3318
39556SOL    HW225527   3.334   4.015   6.924  0.5148  0.5671  0.8110
39557SOL     OW25528   2.539  10.586   2.160 -0.5320 -0.1072  0.3526
39557SOL    HW125529   2.515  10.548   2.075  0.7428 -0.8353  0.2978
39557SOL    HW225530   2.457  10.623   2.194 -1.3117 -0.8644 -0.6507
39558SOL     OW25531  11.717   4.906   1.766  0.1066 -0.1552  0.1372
39558SOL    HW125532  11.698   4.823   1.722  0.9943 -0.3716  0.1390
39558SOL    HW225533  11.646   4.964   1.740 -0.5523 -0.9244  0.1703
39559SOL     OW25534   2.729   5.831   2.905  0.2736  0.1081 -0.0958
39559SOL    HW125535   2.718   5.926   2.904 -0.5258  0.0601  1.2823
39559SOL    HW225536   2.795   5.814   2.838 -0.0317  1.5671 -0.8140
39560SOL     OW25537   2.684   4.336  11.748  0.1430  0.5211  0.2204
39560SOL    HW125538   2.750   4.391  11.789  0.5848  0.4535 -0.3857
39560SOL    HW225539   2.732   4.259  11.719 -0.7298 -0.9867  2.5033
39561SOL     OW25540   1.763   5.921   2.587 -0.1482  0.2045 -0.1068
39561SOL    HW125541   1.744   5.829   2.600  0.4859  0.0360 -0.3306
39561SOL    HW225542   1.771   5.932   2.493  1.5965  0.0889 -0.0130
39562SOL     OW25543   4.306   5.248   8.813 -0.2059  0.3023 -0.0031
39562SOL    HW125544   4.289   5.301   8.891 -1.2566 -2.0094  1.4625
39562SOL    HW225545   4.378   5.191   8.838 -0.5987 -0.5102 -0.6760
39563SOL     OW25546   2.119   8.424   6.138 -0.1420  0.2661 -0.0127
39563SOL    HW125547   2.107   8.512   6.104 -0.0078 -1.3263 -4.9797
39563SOL    HW225548   2.030   8.392   6.155 -0.1565  1.5207  2.9581
39564SOL     OW25549   2.509   5.630   3.670  0.0919 -0.1942  0.2097
39564SOL    HW125550   2.472   5.714   3.643  1.8254  0.7872  0.7834
39564SOL    HW225551   2.516   5.636   3.765  0.2425 -1.0035  0.2581
39565SOL     OW25552  10.612   7.961   6.132  0.0514 -0.0360  0.8836
39565SOL    HW125553  10.543   8.025   6.146  0.5594  0.2516  2.2474
39565SOL    HW225554  10.594   7.924   6.046 -0.8590  1.1836  0.5261
39566SOL     OW25555   9.686  12.492   8.092  0.2850 -0.0382 -0.1471
39566SOL    HW125556   9.762  12.534   8.052  0.2046  4.1105  3.2668
39566SOL    HW225557   9.616  12.501   8.027  1.1505  2.3820 -0.8661
39567SOL     OW25558   4.176  11.306   4.774 -0.1580  0.2105 -0.3181
39567SOL    HW125559   4.136  11.227   4.809 -0.1489  0.0625 -0.6324
39567SOL    HW225560   4.253  11.320   4.829 -0.5460  0.4019  0.1803
39568SOL     OW25561   5.465  11.698   4.792 -0.3213  0.0242  0.2786
39568SOL    HW125562   5.456  11.786   4.829  1.0250 -0.0926  0.9251
39568SOL    HW225563   5.443  11.639   4.864 -0.3326 -0.1927  0.0999
39569SOL     OW25564   0.886   7.970   7.073  0.0743 -0.5073 -0.0686
39569SOL    HW125565   0.952   8.029   7.037  0.2262  1.0355  2.4771
39569SOL    HW225566   0.925   7.883   7.067  2.0714  0.2905  0.7788
39570SOL     OW25567   8.327   8.873   2.073 -0.3775  0.5482 -0.0825
39570SOL    HW125568   8.351   8.920   1.993 -1.1588  2.4768  0.7550
39570SOL    HW225569   8.387   8.908   2.140  0.3007 -1.0782  0.1991
39571SOL     OW25570   1.370   1.455   3.844  0.0109  0.0522 -0.3962
39571SOL    HW125571   1.331   1.373   3.875 -0.3112  0.4364  0.2135
39571SOL    HW225572   1.400   1.434   3.755 -1.0351 -0.4185 -0.6551
39572SOL     OW25573   0.705   0.697   1.425 -0.5429 -0.1271  0.1644
39572SOL    HW125574   0.641   0.682   1.356 -1.4054  0.5248  0.7927
39572SOL    HW225575   0.761   0.768   1.392 -2.0692  1.4503  0.8157
39573SOL     OW25576   6.315   9.718   7.926  0.0065  0.5732  0.2015
39573SOL    HW125577   6.385   9.723   7.862 -2.1825  0.6997 -2.3405
39573SOL    HW225578   6.255   9.652   7.892 -2.6408  2.6169  0.5408
39574SOL     OW25579   5.290   8.751   5.778 -0.0603  0.2273  0.2454
39574SOL    HW125580   5.288   8.665   5.735 -0.4788  1.0600 -1.4646
39574SOL    HW225581   5.200   8.783   5.772 -0.1446  0.3437  1.8414
39575SOL     OW25582   8.964   1.664   0.848 -0.6036  0.1511  0.4913
39575SOL    HW125583   8.968   1.754   0.817 -2.2399  0.6196  1.5438
39575SOL    HW225584   8.998   1.667   0.937  2.1759 -0.8509 -0.3994
39576SOL     OW25585   2.824   4.364   3.193 -0.5973  0.0637  0.1229
39576SOL    HW125586   2.891   4.428   3.167 -0.4038 -0.8251 -1.7582
39576SOL    HW225587   2.742   4.400   3.160 -0.6743 -0.0077  0.2371
39577SOL     OW25588   8.273   7.758   0.469 -0.0032 -0.1514  0.1208
39577SOL    HW125589   8.272   7.846   0.432  1.0501 -0.6603 -1.1829
39577SOL    HW225590   8.353   7.754   0.521 -0.5246 -0.0608  0.9611
39578SOL     OW25591   9.283   9.193  11.551  0.4929  0.1730  0.4076
39578SOL    HW125592   9.343   9.266  11.564 -0.6524  1.3008 -0.4468
39578SOL    HW225593   9.201   9.221  11.591  0.0177 -0.6164  0.0040
39579SOL     OW25594   2.880  11.223   6.984  0.2402 -0.1376  0.2567
39579SOL    HW125595   2.823  11.274   6.926  0.6019 -0.1010 -0.0780
39579SOL    HW225596   2.920  11.158   6.926 -0.3268 -0.8947  0.7132
39580SOL     OW25597   4.245   8.705   5.211 -0.6429 -0.3131 -0.0535
39580SOL    HW125598   4.220   8.767   5.279 -0.7474 -0.9138  0.4643
39580SOL    HW225599   4.307   8.646   5.253  0.7842  0.4554 -1.0151
39581SOL     OW25600   5.210   8.747   3.293  0.0913  0.2805 -0.7340
39581SOL    HW125601   5.170   8.829   3.263 -0.4082  0.3398  0.0403
39581SOL    HW225602   5.165   8.679   3.243  2.3097  0.5583 -3.3222
39582SOL     OW25603   3.039  11.831  10.780  0.1196 -0.5338  0.2422
39582SOL    HW125604   2.980  11.862  10.711  0.2863 -1.1521 -0.1913
39582SOL    HW225605   3.098  11.904  10.796 -0.3090 -0.1644  0.1735
39583SOL     OW25606   9.008   6.073   3.251  0.4642  0.3633 -0.6605
39583SOL    HW125607   9.049   6.003   3.200  2.0846 -1.0763  2.3378
39583SOL    HW225608   8.921   6.040   3.271  0.8039 -0.3131 -0.2552
39584SOL     OW25609   0.872   5.980   4.987 -0.2646  0.5335  0.4762
39584SOL    HW125610   0.955   5.977   5.033 -0.1659 -0.8878  0.2376
39584SOL    HW225611   0.821   5.908   5.024 -0.5107 -0.0828 -0.9934
39585SOL     OW25612   6.616  10.419  10.847  0.0858  0.4991  0.1381
39585SOL    HW125613   6.586  10.339  10.803  1.4489 -0.0148  0.1241
39585SOL    HW225614   6.544  10.481  10.833 -0.2525 -0.1701 -1.3823
39586SOL     OW25615   4.742   2.650   9.392  0.1988  0.0887  0.0760
39586SOL    HW125616   4.766   2.567   9.352  0.1424  0.0676  0.0861
39586SOL    HW225617   4.649   2.660   9.372  0.4439  0.6672 -0.8805
39587SOL     OW25618   0.370   2.677   6.197  0.3351 -0.1663 -0.2588
39587SOL    HW125619   0.426   2.700   6.271  1.3815  1.3404 -1.4543
39587SOL    HW225620   0.430   2.637   6.133 -0.4066 -0.7337 -0.6189
39588SOL     OW25621   5.748   4.858   3.576 -0.4562 -0.5426  0.1562
39588SOL    HW125622   5.736   4.903   3.659  2.3406 -0.4721  0.6319
39588SOL    HW225623   5.748   4.765   3.599 -1.0412 -0.5914 -0.0126
39589SOL     OW25624   4.695  12.353   4.661  0.5345 -0.3025  0.3775
39589SOL    HW125625   4.671  12.414   4.731 -1.4819 -1.7675  1.0621
39589SOL    HW225626   4.706  12.408   4.584 -1.8513  0.9353  0.8088
39590SOL     OW25627   2.027   1.676   0.482  0.6525  0.3777  0.4955
39590SOL    HW125628   2.088   1.671   0.555 -0.9408  1.9316  2.0427
39590SOL    HW225629   1.969   1.601   0.494  1.2103 -0.1532 -0.0198
39591SOL     OW25630   8.486   1.853   6.018 -0.1583 -0.2673  0.0390
39591SOL    HW125631   8.414   1.905   5.982 -0.4629 -1.0397 -0.4969
39591SOL    HW225632   8.472   1.856   6.113  1.1330  2.4906  0.2477
39592SOL     OW25633   8.116   7.721  10.763 -0.4081  0.1313  0.4630
39592SOL    HW125634   8.079   7.781  10.829  0.2257 -1.3554  2.2395
39592SOL    HW225635   8.202   7.699  10.797  0.0310 -0.5132 -1.0167
39593SOL     OW25636   2.964   8.745   3.769 -0.0457  0.6927  0.4317
39593SOL    HW125637   2.936   8.691   3.842 -0.7814  1.0293  0.4010
39593SOL    HW225638   3.011   8.685   3.711 -0.8420  0.0858  0.4024
39594SOL     OW25639  10.039   8.417   3.606 -0.5155  0.2246 -0.1737
39594SOL    HW125640   9.960   8.398   3.556  0.5985  1.0109 -2.3796
39594SOL    HW225641  10.030   8.366   3.686 -1.7701 -2.2731 -1.7922
39595SOL     OW25642   4.538   2.552   7.123 -0.2413  0.2262  0.0705
39595SOL    HW125643   4.537   2.567   7.217 -0.5361  1.7890 -0.1577
39595SOL    HW225644   4.630   2.560   7.098 -0.3082  1.0831  0.0592
39596SOL     OW25645   4.624   3.745  11.239  0.4231  0.4670 -0.3790
39596SOL    HW125646   4.617   3.794  11.321  0.3831 -0.3582  0.1260
39596SOL    HW225647   4.718   3.733  11.227  0.4352  0.7111 -0.5312
39597SOL     OW25648  10.620   5.771   3.113 -0.6525 -0.3276 -0.3043
39597SOL    HW125649  10.575   5.837   3.166  1.5078  1.7158 -0.8513
39597SOL    HW225650  10.677   5.726   3.175  0.0031  0.3278 -0.4190
39598SOL     OW25651   4.111   6.006   6.654  0.0882 -0.0595 -0.0104
39598SOL    HW125652   4.020   6.009   6.626 -0.4507  0.6551  1.7074
39598SOL    HW225653   4.129   6.094   6.686  0.9747 -0.5552  0.8930
39599SOL     OW25654  11.642   2.495   8.706  0.5844  0.2153 -0.4157
39599SOL    HW125655  11.724   2.534   8.737 -0.5116  1.3081  1.2599
39599SOL    HW225656  11.645   2.405   8.737  0.3639  0.7633  1.2841
39600SOL     OW25657   5.680  11.446   6.672 -0.2610 -0.1987 -0.7494
39600SOL    HW125658   5.761  11.475   6.631  1.4260 -1.0455  1.7280
39600SOL    HW225659   5.684  11.350   6.668  0.3501 -0.3717  1.7979
39601SOL     OW25660   3.037   2.876  12.078 -0.6174  0.1527 -0.0151
39601SOL    HW125661   3.043   2.972  12.074 -2.5336  0.2732 -0.9008
39601SOL    HW225662   3.026   2.850  11.987 -1.5135 -0.8005  0.3568
39602SOL     OW25663   7.190   0.660   3.614 -0.2016  0.4506 -0.3883
39602SOL    HW125664   7.264   0.610   3.582  0.3384  1.4621 -0.7537
39602SOL    HW225665   7.193   0.648   3.709  0.8460  1.0380 -0.3384
39603SOL     OW25666   1.225   3.741  10.726 -0.1862 -0.2317 -0.1240
39603SOL    HW125667   1.259   3.654  10.741 -3.3045 -1.2542  1.9534
39603SOL    HW225668   1.214   3.747  10.631  1.0559 -1.6390 -0.3800
39604SOL     OW25669   4.424   4.265   2.484  0.0169 -0.6945 -0.4705
39604SOL    HW125670   4.346   4.223   2.520 -0.4776  1.1509  0.7041
39604SOL    HW225671   4.393   4.309   2.405 -0.5314  1.2848  0.7813
39605SOL     OW25672   8.662   6.788  12.277  0.3414 -0.2371 -0.1294
39605SOL    HW125673   8.574   6.819  12.254  0.5009  0.1236 -0.2566
39605SOL    HW225674   8.648   6.732  12.353  0.0813  0.4031  0.3051
39606SOL     OW25675   0.924   5.257   6.504 -0.6910 -0.6752 -0.5234
39606SOL    HW125676   1.009   5.292   6.530 -0.1914 -0.2527 -2.5254
39606SOL    HW225677   0.929   5.164   6.526 -0.0670 -0.4751  0.2203
39607SOL     OW25678   2.938   4.597   7.270  0.9075  0.0257  0.2982
39607SOL    HW125679   2.885   4.558   7.339 -0.3558  0.3986 -0.4302
39607SOL    HW225680   2.980   4.673   7.311  1.4211 -0.6555  1.0556
39608SOL     OW25681  11.892   5.447   1.324  0.2696 -0.0180  0.2797
39608SOL    HW125682  11.936   5.363   1.337 -0.1712 -0.3779 -0.4592
39608SOL    HW225683  11.964   5.509   1.307  0.5418 -0.5029 -0.4188
39609SOL     OW25684  10.933  10.157   0.626 -0.2906  0.3915  0.7242
39609SOL    HW125685  10.981  10.138   0.545  0.0205  1.1908  0.7113
39609SOL    HW225686  10.996  10.143   0.696 -1.2366 -2.7756  1.0668
39610SOL     OW25687   9.439   6.216   8.663 -0.0262  0.4112  0.0092
39610SOL    HW125688   9.528   6.182   8.659 -0.3313 -0.6591  1.6016
39610SOL    HW225689   9.448   6.301   8.706  0.2910  0.6457 -0.5040
39611SOL     OW25690   5.317   5.766   2.642 -0.5222 -0.5986  0.2086
39611SOL    HW125691   5.409   5.792   2.635 -0.7240 -0.0555 -0.5036
39611SOL    HW225692   5.280   5.785   2.556 -1.7250  0.8762  0.9985
39612SOL     OW25693  11.773   3.577   7.464 -0.5117  0.6596  0.1069
39612SOL    HW125694  11.738   3.666   7.459 -1.2724  0.4026  0.6235
39612SOL    HW225695  11.856   3.586   7.510 -0.6367  1.0937  0.2484
39613SOL     OW25696   1.721   7.463   7.544 -0.2557 -0.9063  0.8011
39613SOL    HW125697   1.790   7.432   7.487 -0.6727 -0.6822  0.1608
39613SOL    HW225698   1.670   7.523   7.489  0.5484  0.9595  1.9926
39614SOL     OW25699   5.648   3.317   3.111  0.5910  0.3396  0.5130
39614SOL    HW125700   5.628   3.231   3.149 -0.1202  0.7861  1.1754
39614SOL    HW225701   5.564   3.363   3.110  0.3414  0.0302 -2.5212
39615SOL     OW25702   5.895   4.980   1.722  0.1042 -0.3209  0.2123
39615SOL    HW125703   5.954   5.046   1.685 -0.0766 -0.1132  0.2933
39615SOL    HW225704   5.824   4.973   1.659  0.4591 -0.9293 -0.1278
39616SOL     OW25705  11.305   7.850   3.044  0.0420  0.0021  0.3090
39616SOL    HW125706  11.216   7.877   3.064  0.2737  0.5265  0.6552
39616SOL    HW225707  11.295   7.765   3.001 -0.6829  0.4959 -0.5395
39617SOL     OW25708  10.261   7.523   7.397  0.3013  0.5978  0.1158
39617SOL    HW125709  10.344   7.525   7.350  1.7297 -1.4369  2.3214
39617SOL    HW225710  10.210   7.455   7.353  1.4487 -0.9790  1.0992
39618SOL     OW25711   4.327  11.968   7.300 -0.1990 -0.0605  0.3889
39618SOL    HW125712   4.384  11.898   7.331  0.8568  0.5064 -0.1872
39618SOL    HW225713   4.363  11.991   7.214 -1.1440  0.5029  0.1323
39619SOL     OW25714   7.987   9.773   9.670  0.0008  0.3053 -0.2327
39619SOL    HW125715   7.994   9.678   9.679  0.4360  0.3322 -0.2699
39619SOL    HW225716   8.010   9.791   9.578  1.1724  0.5547  0.0837
39620SOL     OW25717   4.244   4.542   6.469 -0.0825  0.0601  0.3042
39620SOL    HW125718   4.244   4.574   6.379  1.2366  0.0019  0.2627
39620SOL    HW225719   4.153   4.514   6.485 -0.6562  1.4067 -0.5011
39621SOL     OW25720   2.874   4.858   1.317 -0.4729  0.2252 -0.1258
39621SOL    HW125721   2.920   4.884   1.238  1.2681  1.6716  1.2901
39621SOL    HW225722   2.814   4.930   1.335 -0.0994  0.3911  0.4530
39622SOL     OW25723   4.651   8.980   1.258 -0.1562 -0.6407 -0.2556
39622SOL    HW125724   4.574   8.954   1.310  0.0014 -1.2653 -0.3232
39622SOL    HW225725   4.655   9.075   1.267 -0.2768 -0.7119  0.6844
39623SOL     OW25726   1.565   3.746  12.461  0.2345 -0.3454  0.2464
39623SOL    HW125727   1.569   3.652  12.447 -0.9204 -0.3053 -0.5233
39623SOL    HW225728   1.586   3.784  12.376  0.6493  0.0957  0.5416
39624SOL     OW25729   5.059   5.907   6.343 -0.0120  0.2997  0.0901
39624SOL    HW125730   5.068   5.867   6.257  0.4372  0.5358  0.0256
39624SOL    HW225731   4.964   5.919   6.353 -0.4371 -3.0937  1.2023
39625SOL     OW25732  10.608   5.851   8.992 -0.1757  0.2546  0.4512
39625SOL    HW125733  10.566   5.865   9.076  0.5756 -0.2209  0.9123
39625SOL    HW225734  10.588   5.760   8.970  1.7413 -0.4227  1.3415
39626SOL     OW25735   4.712  11.794   7.375 -0.2068 -0.1692 -0.6471
39626SOL    HW125736   4.720  11.876   7.423  0.9375 -0.3480 -0.4914
39626SOL    HW225737   4.688  11.730   7.441 -0.9123  0.0046 -0.7336
39627SOL     OW25738   5.897   1.946   8.664  0.0080  0.1186 -0.3663
39627SOL    HW125739   5.816   1.899   8.646  0.3778 -0.9583  0.6487
39627SOL    HW225740   5.961   1.908   8.603  0.2441 -0.5285  0.2747
39628SOL     OW25741   7.335  10.639   7.617  0.1375  0.8970 -0.2162
39628SOL    HW125742   7.391  10.716   7.624  1.3155  0.0619 -0.0662
39628SOL    HW225743   7.363  10.596   7.536  0.1142  0.1672  0.1543
39629SOL     OW25744   6.835   9.254   3.446 -0.0392  0.0402 -0.4301
39629SOL    HW125745   6.855   9.200   3.370 -1.3973  0.8155 -1.3715
39629SOL    HW225746   6.745   9.231   3.469 -0.3570  1.3090 -0.3428
39630SOL     OW25747   8.562   5.748   8.290 -0.5795 -0.4965  0.2600
39630SOL    HW125748   8.467   5.739   8.290 -0.4905 -1.6850  0.2668
39630SOL    HW225749   8.578   5.836   8.323 -1.6400 -0.7961  1.6828
39631SOL     OW25750   8.959   5.176   5.405  0.0705 -0.3254  0.0853
39631SOL    HW125751   8.943   5.271   5.406  1.4373 -0.0168 -2.1668
39631SOL    HW225752   8.904   5.143   5.335  0.1143 -1.1190  0.4139
39632SOL     OW25753   6.557   5.046   9.125 -0.0117  0.3209  0.4297
39632SOL    HW125754   6.519   5.010   9.205  0.7664 -0.8457  0.3142
39632SOL    HW225755   6.649   5.020   9.129 -0.1502 -0.6188 -1.2894
39633SOL     OW25756   3.049   6.089   2.225  0.1116 -0.0102  0.0785
39633SOL    HW125757   3.060   6.052   2.138 -0.3119  0.7668 -0.3151
39633SOL    HW225758   2.960   6.066   2.250  0.1679 -0.0686  0.2288
39634SOL     OW25759  10.720   5.312   5.598 -0.7643 -0.0360 -0.2226
39634SOL    HW125760  10.719   5.221   5.568  1.1949  0.1850 -1.0883
39634SOL    HW225761  10.685   5.307   5.687 -0.9023 -1.6064 -0.3253
39635SOL     OW25762  11.792   9.134   0.466  0.3290  0.0741 -0.0449
39635SOL    HW125763  11.878   9.118   0.428  0.6359  1.1066  0.1749
39635SOL    HW225764  11.798   9.223   0.502 -0.6434 -0.0618  0.4863
39636SOL     OW25765   5.915   6.686   9.532 -0.0112 -0.2974 -0.0604
39636SOL    HW125766   5.949   6.615   9.478  0.1301 -0.4855  0.2725
39636SOL    HW225767   5.919   6.653   9.622 -1.4062 -0.4517 -0.0354
39637SOL     OW25768   6.502   8.079   2.393 -0.7162  0.5594 -0.1169
39637SOL    HW125769   6.527   8.015   2.326  2.0583  1.6614 -0.2694
39637SOL    HW225770   6.425   8.123   2.356  0.2213  0.5676 -2.2515
39638SOL     OW25771   0.422   8.276  12.186  0.2353 -0.1470  0.2517
39638SOL    HW125772   0.475   8.197  12.201  2.0133  1.0429  0.5564
39638SOL    HW225773   0.447   8.305  12.098 -0.5700 -0.0138  0.0590
39639SOL     OW25774   4.630   8.615  12.191 -0.7623  0.2431 -0.4804
39639SOL    HW125775   4.678   8.668  12.255 -0.0272 -0.6469 -0.2556
39639SOL    HW225776   4.570   8.675  12.149 -0.3792  1.1139  0.1920
39640SOL     OW25777   5.442   5.140   5.559  0.3315  0.4314 -0.0518
39640SOL    HW125778   5.384   5.182   5.623 -0.3739 -1.9311  0.9645
39640SOL    HW225779   5.383   5.089   5.503  1.2939 -1.5976  0.6708
39641SOL     OW25780   1.654   0.437   6.349  0.1666  0.5603  0.1335
39641SOL    HW125781   1.588   0.497   6.384 -0.7512  0.3903 -1.2136
39641SOL    HW225782   1.692   0.484   6.275 -1.0150 -0.7202 -1.3402
39642SOL     OW25783  10.243   6.122   6.032  0.3979  0.3577 -0.6300
39642SOL    HW125784  10.187   6.168   5.970  0.1472 -0.1954 -0.8182
39642SOL    HW225785  10.265   6.040   5.989 -0.4858 -0.4275  0.3673
39643SOL     OW25786   1.713   0.418   2.736  0.2361 -0.3983  0.2210
39643SOL    HW125787   1.746   0.380   2.817 -0.2031  0.7594  0.9638
39643SOL    HW225788   1.768   0.381   2.667  0.3451 -1.7222  0.9968
39644SOL     OW25789   0.195   2.283   4.257 -0.0328 -0.5734 -0.3780
39644SOL    HW125790   0.228   2.317   4.340  1.3361 -1.5350 -0.5003
39644SOL    HW225791   0.117   2.335   4.239 -0.1170 -0.0713  1.2985
39645SOL     OW25792   7.706   7.998   5.915  0.2517 -0.4792  0.5913
39645SOL    HW125793   7.633   7.973   5.972  1.2441 -1.8398  1.3358
39645SOL    HW225794   7.666   8.008   5.828 -1.1234  0.7054  1.3242
39646SOL     OW25795   2.620   5.294   7.875 -0.1337  0.2662  0.6096
39646SOL    HW125796   2.525   5.285   7.873 -0.1862  0.8111 -0.9536
39646SOL    HW225797   2.635   5.389   7.877  0.3434  0.2532 -0.8583
39647SOL     OW25798   5.123  11.294   4.980 -0.0107 -0.0741 -0.1284
39647SOL    HW125799   5.152  11.377   5.017  0.9929  0.5513 -2.1793
39647SOL    HW225800   5.157  11.228   5.040  1.9656  0.8675 -0.1460
39648SOL     OW25801   3.219  12.319   7.897 -0.1706 -0.1011  0.0436
39648SOL    HW125802   3.252  12.350   7.813  1.7369 -0.8784  0.4577
39648SOL    HW225803   3.295  12.278   7.939 -1.4842 -1.2235  1.4334
39649SOL     OW25804   0.784   9.534   1.609 -0.5980  0.2251  0.0346
39649SOL    HW125805   0.820   9.560   1.694 -0.4877 -0.0776  0.0840
39649SOL    HW225806   0.787   9.438   1.610 -0.1192  0.2265 -0.5092
39650SOL     OW25807  10.256   1.069  11.775  0.1781  0.2710 -0.0499
39650SOL    HW125808  10.225   1.132  11.840  0.0833  1.5959 -1.3062
39650SOL    HW225809  10.179   1.049  11.723  0.1227 -1.2314  0.5778
39651SOL     OW25810   5.578  11.010   3.655  0.0211  0.5146 -0.8741
39651SOL    HW125811   5.624  11.071   3.597 -0.8558  2.9950  0.9067
39651SOL    HW225812   5.575  11.054   3.739 -1.4703 -1.6369  0.2942
39652SOL     OW25813  11.911   3.098  11.243  0.3976  0.0008 -0.3903
39652SOL    HW125814  11.924   3.193  11.243  0.9177  0.0132  2.2482
39652SOL    HW225815  11.995   3.063  11.213  0.8238  0.3726  0.3211
39653SOL     OW25816  12.139   6.196   9.749 -0.2612 -0.3643 -0.1733
39653SOL    HW125817  12.153   6.198   9.844 -0.1707 -0.5747 -0.1813
39653SOL    HW225818  12.186   6.272   9.716  2.0416 -1.7722 -0.3504
39654SOL     OW25819   3.731   4.728   4.863 -0.3763 -0.8805 -0.1083
39654SOL    HW125820   3.812   4.691   4.827  0.3550  1.5687 -1.1781
39654SOL    HW225821   3.671   4.730   4.788 -0.3696  0.1270 -0.0921
39655SOL     OW25822   1.863   1.674  10.886 -0.1249  0.1120  0.3902
39655SOL    HW125823   1.886   1.653  10.795  1.7527  0.0362  0.8603
39655SOL    HW225824   1.923   1.621  10.939 -1.4410 -0.1284  1.7042
39656SOL     OW25825  12.369   9.768   9.468 -0.2081  0.0531  0.1660
39656SOL    HW125826  12.354   9.684   9.511 -2.0607  0.0115 -0.4653
39656SOL    HW225827  12.298   9.775   9.403  2.0594  0.3593 -2.4879
39657SOL     OW25828   2.440   6.048   8.504  0.2168 -0.5354  0.6894
39657SOL    HW125829   2.372   6.111   8.484  0.6103 -0.2658  0.1795
39657SOL    HW225830   2.414   6.010   8.588  0.3848  0.8695  1.3942
39658SOL     OW25831  10.818   1.664   3.200 -0.5124 -0.1366 -0.0567
39658SOL    HW125832  10.817   1.614   3.281 -1.2919  0.8235  0.5507
39658SOL    HW225833  10.872   1.741   3.220  0.0973 -0.3702 -0.7569
39659SOL     OW25834   8.756   8.400   0.048  0.1273 -0.2216  0.3143
39659SOL    HW125835   8.743   8.306   0.063  1.0920 -0.0214  2.9162
39659SOL    HW225836   8.830   8.405  -0.012 -0.2257 -1.0955 -0.2153
39660SOL     OW25837   9.519   2.881   6.844 -0.4160 -0.3946  0.5743
39660SOL    HW125838   9.454   2.819   6.879 -0.8293 -0.6914 -0.6821
39660SOL    HW225839   9.533   2.853   6.754  1.7339 -0.5497  0.9014
39661SOL     OW25840   0.995   8.142   6.324 -0.5032  0.3384  0.2870
39661SOL    HW125841   1.070   8.100   6.282 -0.9985 -0.3621  0.0893
39661SOL    HW225842   1.008   8.236   6.309  0.6551  0.2725  0.8056
39662SOL     OW25843   3.926   9.777  11.312  0.2212 -1.0099 -0.1706
39662SOL    HW125844   3.869   9.828  11.370 -1.2789 -1.9466 -0.7402
39662SOL    HW225845   3.913   9.815  11.225  0.8358 -0.9387 -0.2359
39663SOL     OW25846  10.401   6.590  10.938  0.4352 -0.2772  0.4896
39663SOL    HW125847  10.316   6.630  10.919  1.0953  0.5945 -0.7626
39663SOL    HW225848  10.460   6.665  10.952  1.9125 -0.6403 -2.8365
39664SOL     OW25849   7.984   8.405   1.611  0.6993 -0.1449  0.2437
39664SOL    HW125850   8.023   8.489   1.634 -2.0400  1.4913 -0.6842
39664SOL    HW225851   8.023   8.384   1.526  0.0315  1.1702 -0.4157
39665SOL     OW25852   2.172   0.691  11.121 -0.1104 -0.1143 -0.2951
39665SOL    HW125853   2.078   0.713  11.120 -0.2776 -0.7538  0.5879
39665SOL    HW225854   2.198   0.695  11.029 -1.1700 -0.6141 -0.6320
39666SOL     OW25855   2.574   7.220   9.419 -0.3038  0.2864  0.5576
39666SOL    HW125856   2.540   7.292   9.472  1.0013  0.3046  1.4045
39666SOL    HW225857   2.648   7.186   9.469 -0.8287 -1.6000  0.1430
39667SOL     OW25858  12.430   2.035   9.955 -0.1753 -0.0856 -0.6292
39667SOL    HW125859  12.510   2.087   9.961 -0.4052  0.2657 -0.5525
39667SOL    HW225860  12.434   1.994   9.868  0.1167 -0.1225 -0.5989
39668SOL     OW25861   1.316   9.676   8.390  0.3645 -1.0120  0.3201
39668SOL    HW125862   1.284   9.600   8.439 -0.1151 -2.2500 -1.7875
39668SOL    HW225863   1.345   9.640   8.306 -1.6265  1.3438 -1.5177
39669SOL     OW25864   1.143   6.760   1.326 -0.2691 -0.0084  0.3935
39669SOL    HW125865   1.228   6.723   1.300  0.5374  0.5233  2.1359
39669SOL    HW225866   1.161   6.807   1.408 -2.1392  0.6035  0.5006
39670SOL     OW25867   4.422  11.811   0.573 -0.1897 -0.3186 -0.4160
39670SOL    HW125868   4.481  11.778   0.641 -0.5298 -1.7516 -0.7920
39670SOL    HW225869   4.479  11.825   0.497  0.8666  4.3338  0.8866
39671SOL     OW25870  10.411   5.572  11.462 -0.0924 -0.0184 -0.6656
39671SOL    HW125871  10.443   5.482  11.472 -1.5586 -0.5147 -0.1457
39671SOL    HW225872  10.403   5.584  11.368  0.0172 -0.4721 -0.7369
39672SOL     OW25873  10.445   7.248   9.582  0.1852 -0.1934 -0.0770
39672SOL    HW125874  10.451   7.299   9.501  1.5888  0.3343  0.3241
39672SOL    HW225875  10.532   7.212   9.594  0.2137  0.3321  1.5667
39673SOL     OW25876   8.786   8.556   3.877 -0.1358  0.1796 -0.6537
39673SOL    HW125877   8.797   8.479   3.821  0.8146  0.3721 -0.7387
39673SOL    HW225878   8.695   8.550   3.908  0.0420 -1.1878 -0.3359
39674SOL     OW25879   4.883  11.413   4.624  0.0863 -0.0871 -0.7966
39674SOL    HW125880   4.878  11.439   4.532  2.2283 -0.2016 -1.0114
39674SOL    HW225881   4.976  11.393   4.638 -0.0312  0.6666  1.5945
39675SOL     OW25882   5.148  10.751   5.530  0.4471  0.2285 -0.6251
39675SOL    HW125883   5.228  10.770   5.481 -0.1131  0.2002 -1.5999
39675SOL    HW225884   5.167  10.670   5.577  0.8318 -0.0454 -1.2378
39676SOL     OW25885   3.050   7.167   4.717  0.0610  0.4251 -0.1505
39676SOL    HW125886   3.062   7.121   4.800  0.9604  0.1248 -0.4438
39676SOL    HW225887   2.956   7.156   4.698  0.3639 -1.9365 -0.5821
39677SOL     OW25888   4.387   8.536  10.138  0.2473  0.0505 -0.0684
39677SOL    HW125889   4.294   8.527  10.160 -0.3697  1.1172 -1.9979
39677SOL    HW225890   4.418   8.608  10.192 -0.0959 -0.1838  0.4435
39678SOL     OW25891   2.397  10.013  11.977  0.2329 -0.1181 -0.7110
39678SOL    HW125892   2.386   9.977  11.888  0.5107  0.1869 -0.8727
39678SOL    HW225893   2.316  10.061  11.993 -0.8838 -2.1514  0.1618
39679SOL     OW25894   8.582   1.198   1.147 -0.0531  0.0470 -1.0325
39679SOL    HW125895   8.581   1.130   1.080 -0.6791  0.2743 -1.2510
39679SOL    HW225896   8.657   1.253   1.124  0.8704 -0.9389 -0.4719
39680SOL     OW25897   4.173   7.607  10.835  0.2776  0.0649  0.2974
39680SOL    HW125898   4.202   7.547  10.767  0.8743 -1.4577  1.8096
39680SOL    HW225899   4.202   7.693  10.806  0.6491 -0.5606 -1.2687
39681SOL     OW25900   8.027   2.189   7.841 -0.0257 -0.2109  0.2584
39681SOL    HW125901   8.090   2.244   7.887  1.5049 -1.0573 -0.7482
39681SOL    HW225902   8.026   2.223   7.752 -1.0463 -0.1824  0.2673
39682SOL     OW25903   8.647   6.034   1.178  0.0273 -0.1088  0.2056
39682SOL    HW125904   8.695   6.089   1.241 -2.1213  2.0025  0.1738
39682SOL    HW225905   8.632   5.952   1.224 -0.7559  1.0750  2.1953
39683SOL     OW25906   3.688   4.347   0.794  0.6624 -0.2459 -0.0216
39683SOL    HW125907   3.682   4.297   0.875  0.0281  2.0621  1.4125
39683SOL    HW225908   3.649   4.289   0.728  0.7680 -1.9797  1.3549
39684SOL     OW25909   6.605  11.706  11.528 -0.1808  0.0918 -0.0335
39684SOL    HW125910   6.591  11.800  11.517  1.0717  0.0894 -2.0489
39684SOL    HW225911   6.693  11.698  11.563 -0.4747 -0.3341  0.6357
39685SOL     OW25912  11.080   2.161   2.189 -0.4435 -0.3200 -0.1725
39685SOL    HW125913  11.147   2.099   2.159  0.1628 -0.2636  1.0020
39685SOL    HW225914  11.116   2.247   2.168 -1.5808 -0.3150 -2.4169
39686SOL     OW25915   0.068   4.475  11.627 -0.0614  0.2076  0.2161
39686SOL    HW125916   0.159   4.504  11.620  0.1476 -0.5879 -0.6147
39686SOL    HW225917   0.023   4.520  11.556 -0.0158 -0.4653 -0.2449
39687SOL     OW25918   4.777   6.897   8.086 -0.1817 -0.6436 -0.3732
39687SOL    HW125919   4.684   6.901   8.107 -0.2632 -1.2287 -0.6263
39687SOL    HW225920   4.784   6.834   8.015  0.3070  0.0349 -0.9527
39688SOL     OW25921  10.217   6.766   3.814  0.0006 -0.3237 -0.1834
39688SOL    HW125922  10.183   6.852   3.839  0.2854 -0.3677  0.3727
39688SOL    HW225923  10.292   6.785   3.758 -0.6117 -0.2242 -1.0004
39689SOL     OW25924   0.066  11.087   1.710 -0.1738 -0.4495  0.2113
39689SOL    HW125925   0.019  11.035   1.645  1.1974  0.4196 -1.5654
39689SOL    HW225926  -0.002  11.139   1.752 -1.0981 -0.9884 -0.5643
39690SOL     OW25927   6.203   3.870   2.879 -0.4113 -0.5239  0.0130
39690SOL    HW125928   6.255   3.791   2.865  0.7534  0.3998 -1.0935
39690SOL    HW225929   6.115   3.837   2.896 -0.3425 -2.0547 -2.1493
39691SOL     OW25930   9.591  10.353   5.477  0.0714 -0.3351  0.0761
39691SOL    HW125931   9.527  10.335   5.546 -1.6623  1.0904 -1.0663
39691SOL    HW225932   9.553  10.426   5.427  0.8152 -1.7864 -2.8593
39692SOL     OW25933   4.472   5.691   8.699 -0.3480 -0.2372 -0.4017
39692SOL    HW125934   4.512   5.747   8.633 -0.9594 -0.7660 -1.2371
39692SOL    HW225935   4.495   5.602   8.673  0.3215 -0.4160  0.7228
39693SOL     OW25936  10.135   2.906   2.085  0.0670  0.5658  0.0811
39693SOL    HW125937  10.064   2.970   2.090  0.0140  0.4414  1.3813
39693SOL    HW225938  10.207   2.954   2.044 -0.6844  0.7544 -1.0492
39694SOL     OW25939  12.095   8.109   2.152  0.0058  0.3329  0.4215
39694SOL    HW125940  12.154   8.058   2.208  0.0497  0.3203  0.3642
39694SOL    HW225941  12.147   8.127   2.073 -0.3726 -0.4751 -0.0270
39695SOL     OW25942  11.261   3.112   8.372 -0.1070  0.8796 -0.7037
39695SOL    HW125943  11.187   3.161   8.408 -0.7776 -0.6610  0.0868
39695SOL    HW225944  11.321   3.100   8.446 -1.4106 -2.1479 -0.0185
39696SOL     OW25945  11.995   5.295  10.527  0.0974 -0.6290 -0.4953
39696SOL    HW125946  11.918   5.347  10.552  0.0734 -1.2969  0.9194
39696SOL    HW225947  11.977   5.268  10.437 -0.5402  0.6169 -0.7727
39697SOL     OW25948   4.749   4.535   2.095  0.4758  0.2492 -0.4340
39697SOL    HW125949   4.779   4.472   2.161  1.6081  0.9408 -0.2468
39697SOL    HW225950   4.764   4.491   2.012  2.7253  0.7852 -0.3817
39698SOL     OW25951   3.450   6.642  10.602  0.0250 -0.1359  0.6120
39698SOL    HW125952   3.472   6.682  10.518  0.9176 -0.2936  0.7545
39698SOL    HW225953   3.355   6.640  10.604 -0.0136 -0.7710 -0.7121
39699SOL     OW25954   8.786   0.322   6.074  0.4500 -1.0025 -0.2234
39699SOL    HW125955   8.785   0.227   6.079  0.2578 -1.0527 -1.0388
39699SOL    HW225956   8.821   0.341   5.987  0.7999 -0.3238  0.0601
39700SOL     OW25957   7.505   8.933   9.980  0.5018 -0.3680  0.3623
39700SOL    HW125958   7.569   8.955   9.913 -0.6262  0.0673 -0.6191
39700SOL    HW225959   7.430   8.989   9.960 -1.2526 -2.7617 -0.2416
39701SOL     OW25960   0.771   9.552   9.275  0.8680  0.1315 -0.1361
39701SOL    HW125961   0.840   9.568   9.211  0.8262  1.5356  0.1248
39701SOL    HW225962   0.786   9.618   9.343 -0.5418  0.2899  0.0625
39702SOL     OW25963   5.861   8.900  10.735 -0.3576 -0.7652 -0.4719
39702SOL    HW125964   5.924   8.876  10.667 -1.2109 -0.9705 -1.1971
39702SOL    HW225965   5.916   8.920  10.811  0.6569  0.1501 -1.3992
39703SOL     OW25966   9.940   2.268   8.544  0.0521  0.3211  0.1306
39703SOL    HW125967   9.965   2.270   8.636 -0.2424 -0.2274  0.2286
39703SOL    HW225968   9.960   2.356   8.511  0.1288  0.5269  0.7218
39704SOL     OW25969   6.948   2.323   7.680  0.2290 -0.6467  0.5918
39704SOL    HW125970   6.955   2.404   7.731 -0.4582 -0.5517  0.5529
39704SOL    HW225971   6.874   2.276   7.720 -0.7963 -0.2345 -0.7430
39705SOL     OW25972   9.741   5.646  10.954 -0.2785 -0.0827 -0.0324
39705SOL    HW125973   9.769   5.656  10.863 -0.6542 -2.2250 -0.4469
39705SOL    HW225974   9.793   5.573  10.987  0.2378  1.0069  1.6810
39706SOL     OW25975   0.662   3.505   5.213 -0.0774 -0.3587  0.5621
39706SOL    HW125976   0.604   3.439   5.175  0.9220 -1.0779  0.2714
39706SOL    HW225977   0.627   3.588   5.180 -2.1129 -0.6045  1.9416
39707SOL     OW25978   5.329   3.371   6.840  0.0480 -0.2713  0.1120
39707SOL    HW125979   5.408   3.356   6.892  0.1365  1.5171  0.5460
39707SOL    HW225980   5.263   3.396   6.904 -1.0615 -2.2262 -0.1846
39708SOL     OW25981  11.625   0.151  11.176 -0.1383  0.1998  0.0716
39708SOL    HW125982  11.552   0.138  11.116 -1.3005  1.8567  1.0288
39708SOL    HW225983  11.654   0.062  11.200 -1.3115 -0.4755 -0.9437
39709SOL     OW25984   8.928   1.860  11.978 -0.8705 -0.0617  0.3509
39709SOL    HW125985   8.951   1.952  11.992 -0.3247 -0.3215  1.2072
39709SOL    HW225986   8.833   1.857  11.991 -0.6700  0.0842  2.0517
39710SOL     OW25987   9.065  10.281   8.700  0.2122  0.2637 -0.1786
39710SOL    HW125988   9.047  10.335   8.623  0.3054 -0.1866 -0.5191
39710SOL    HW225989   9.104  10.341   8.763  1.6127  0.3150 -1.0651
39711SOL     OW25990   2.452  11.305   2.438 -0.4264 -0.1144 -0.2822
39711SOL    HW125991   2.372  11.266   2.402  0.9670 -1.8927 -1.6557
39711SOL    HW225992   2.473  11.250   2.514 -0.7884  0.7152  0.4381
39712SOL     OW25993  10.043   2.788   8.395  0.8016  0.2017 -0.2104
39712SOL    HW125994   9.974   2.832   8.344  0.0894 -1.4307 -0.7357
39712SOL    HW225995  10.073   2.854   8.457  0.5025  1.7253 -1.6276
39713SOL     OW25996   1.482   5.081   6.182  0.3994 -0.3924  0.4116
39713SOL    HW125997   1.393   5.075   6.149  1.0504 -0.3783 -1.4396
39713SOL    HW225998   1.499   5.175   6.188  0.2362 -0.3931  0.9701
39714SOL     OW25999   4.967   2.112   8.056  0.6151 -0.1498  0.2415
39714SOL    HW126000   4.935   2.170   8.125 -0.9338  3.1305 -2.8691
39714SOL    HW226001   5.057   2.139   8.042  0.2812  0.7116 -0.3521
39715SOL     OW26002  10.126   1.352  10.395  0.3341 -0.4670  0.0368
39715SOL    HW126003  10.141   1.259  10.414 -1.4084 -0.6235  0.9222
39715SOL    HW226004  10.213   1.391  10.392  1.0333 -1.7061  2.1180
39716SOL     OW26005   0.079   2.370   1.187 -0.4098  0.3819 -0.2380
39716SOL    HW126006   0.043   2.419   1.113 -0.6023  0.1618 -0.2897
39716SOL    HW226007   0.155   2.421   1.215  0.7526 -0.4703 -1.7257
39717SOL     OW26008   2.695   4.446   0.063 -0.1297  0.2172 -0.7352
39717SOL    HW126009   2.645   4.498   0.000 -0.2008 -0.1745 -1.0089
39717SOL    HW226010   2.738   4.511   0.119 -1.6173  0.5838  0.0539
39718SOL     OW26011  11.790   4.078   9.865 -0.2201 -0.1494  0.5697
39718SOL    HW126012  11.727   4.103   9.797  1.0576  0.5749 -0.4032
39718SOL    HW226013  11.742   4.088   9.947 -2.1767 -2.1441 -0.2263
39719SOL     OW26014   4.751   8.417  10.957  0.8984  0.1511  0.1656
39719SOL    HW126015   4.780   8.350  11.019  1.4582  1.2767  1.1622
39719SOL    HW226016   4.786   8.387  10.872  0.7922 -1.0089  0.5159
39720SOL     OW26017   8.497   1.125   1.554  0.3294 -0.0311  0.3584
39720SOL    HW126018   8.516   1.086   1.469  0.5678 -0.4890  0.6182
39720SOL    HW226019   8.584   1.144   1.591  0.2195  0.7800  0.2240
39721SOL     OW26020   5.351   6.443   6.256 -0.1893  0.1875 -0.5838
39721SOL    HW126021   5.297   6.436   6.334  0.1100  3.1652 -0.0131
39721SOL    HW226022   5.295   6.413   6.184 -0.7787 -1.6775  0.5908
39722SOL     OW26023   6.260   6.842  12.363  0.1974  0.1003  0.3362
39722SOL    HW126024   6.349   6.813  12.341  0.4980  0.0830  1.5344
39722SOL    HW226025   6.232   6.892  12.286  1.2182  0.0464 -0.0870
39723SOL     OW26026   9.567   4.496  10.788  0.3631  0.5392 -0.0473
39723SOL    HW126027   9.657   4.484  10.819  0.9243 -0.1101 -1.8277
39723SOL    HW226028   9.513   4.448  10.851  1.3255  0.2613  0.5861
39724SOL     OW26029  11.671  11.984   3.365 -0.4384  0.6478  0.2509
39724SOL    HW126030  11.657  11.959   3.274  1.7568 -2.0399  0.5227
39724SOL    HW226031  11.753  12.034   3.363  0.2872 -0.4703  0.8291
39725SOL     OW26032  10.312   2.448   1.322  0.2371  0.0828 -0.4125
39725SOL    HW126033  10.275   2.444   1.410  2.6485 -1.4188  0.6559
39725SOL    HW226034  10.273   2.374   1.276 -2.1977  1.7458 -1.2209
39726SOL     OW26035  12.324  10.791   4.485  0.0202  0.2245  0.2429
39726SOL    HW126036  12.387  10.722   4.462 -1.0590 -0.5361 -0.5640
39726SOL    HW226037  12.328  10.853   4.412 -0.8404 -0.3380 -0.3063
39727SOL     OW26038   3.842   9.617   8.877  0.6791 -0.6546 -0.6761
39727SOL    HW126039   3.798   9.533   8.865  0.2119 -0.5248  0.0384
39727SOL    HW226040   3.896   9.605   8.955 -1.4444  0.4840  1.0718
39728SOL     OW26041   6.753   5.255   2.365 -0.2643  0.2101  0.3666
39728SOL    HW126042   6.733   5.164   2.387 -0.4956  0.5102  1.4598
39728SOL    HW226043   6.674   5.288   2.323 -1.5289  0.8938  3.1218
39729SOL     OW26044  10.640   4.943   4.013  0.0541 -0.9002 -0.0168
39729SOL    HW126045  10.612   4.877   3.950  1.0986 -1.2019 -0.1835
39729SOL    HW226046  10.734   4.926   4.026  0.0549 -0.2772  0.9321
39730SOL     OW26047   8.949   8.331   2.695  0.0075  0.9777 -0.2410
39730SOL    HW126048   8.988   8.418   2.686  1.5071  0.5259  1.3568
39730SOL    HW226049   8.864   8.339   2.651  1.1052  2.5263 -2.3088
39731SOL     OW26050   7.464   4.973   1.497  0.4839 -0.2556  0.2895
39731SOL    HW126051   7.407   5.044   1.527  1.2986  0.2694  0.6152
39731SOL    HW226052   7.541   4.980   1.552 -0.3824 -2.8860  2.0297
39732SOL     OW26053   9.110   3.699   0.468  0.8836 -0.0298  0.7186
39732SOL    HW126054   9.146   3.611   0.471 -0.6782 -0.7124  0.1921
39732SOL    HW226055   9.129   3.735   0.555 -0.2071 -1.6179  1.6715
39733SOL     OW26056  10.845  10.781   9.154  0.0956  0.0028 -0.7855
39733SOL    HW126057  10.886  10.778   9.067  1.5626 -0.6638 -0.1047
39733SOL    HW226058  10.917  10.765   9.215 -0.7426  1.3253  0.6216
39734SOL     OW26059   5.014   9.461   8.467  0.1949 -1.0350  0.3195
39734SOL    HW126060   5.093   9.470   8.414  3.2262  1.1822  4.5604
39734SOL    HW226061   4.962   9.538   8.446  0.5707 -0.9917 -0.4963
39735SOL     OW26062  12.218   2.445   6.539 -0.1551  0.2296 -0.0341
39735SOL    HW126063  12.307   2.457   6.507 -0.2806 -1.9222 -1.3829
39735SOL    HW226064  12.227   2.398   6.621 -0.0463 -0.4822 -0.4479
39736SOL     OW26065  11.647   2.963   4.862  0.2279  0.3195 -0.1838
39736SOL    HW126066  11.572   3.021   4.854  1.4789  1.9726 -0.6296
39736SOL    HW226067  11.719   3.011   4.821  1.2994 -1.6599 -0.8093
39737SOL     OW26068   4.029   2.867   7.384  0.6964 -0.2397  0.2786
39737SOL    HW126069   4.067   2.874   7.297  3.1015 -1.3926  1.1377
39737SOL    HW226070   4.006   2.775   7.394  1.5375 -0.3657  1.2398
39738SOL     OW26071   9.575   5.527   8.974  0.8718 -0.5839  0.1648
39738SOL    HW126072   9.558   5.497   8.885 -1.8767  1.2062 -0.0463
39738SOL    HW226073   9.564   5.449   9.028  0.0472 -1.2191 -0.8735
39739SOL     OW26074   7.480   6.260   2.535  0.1466  0.0660  0.8881
39739SOL    HW126075   7.423   6.287   2.607 -0.2156  0.4086  0.4864
39739SOL    HW226076   7.443   6.177   2.505  0.2599 -0.0452  1.0567
39740SOL     OW26077  12.313   9.102  11.570  0.5208  0.5238  0.6203
39740SOL    HW126078  12.385   9.047  11.601  1.0249  0.7619 -0.1124
39740SOL    HW226079  12.311   9.176  11.631  1.8003  1.2244 -0.1606
39741SOL     OW26080   3.932   0.239   8.985  0.6921  0.3384 -0.1263
39741SOL    HW126081   4.017   0.209   8.954  0.0968 -2.1203  0.3854
39741SOL    HW226082   3.869   0.190   8.932 -0.5024  2.9924 -1.3431
39742SOL     OW26083  11.031   4.738   0.559  0.2846 -0.3253  0.1204
39742SOL    HW126084  11.006   4.676   0.627 -0.0597  1.9811  2.2395
39742SOL    HW226085  11.123   4.759   0.578 -0.4993  2.2761  1.6802
39743SOL     OW26086  11.297   6.811  12.042  0.2255 -0.3832 -0.1992
39743SOL    HW126087  11.300   6.737  12.102  0.3753  1.4559  2.2243
39743SOL    HW226088  11.205   6.840  12.045 -0.0136 -0.9060 -1.7498
39744SOL     OW26089   0.768  11.563   3.845  0.3498 -0.3725  0.2776
39744SOL    HW126090   0.781  11.470   3.827  0.5095 -0.7681  2.2137
39744SOL    HW226091   0.721  11.565   3.928  1.4265  1.2969  0.8938
39745SOL     OW26092   5.859  10.727   5.184  0.2087  0.2124  0.0407
39745SOL    HW126093   5.952  10.730   5.162  0.1533  0.1015 -0.2067
39745SOL    HW226094   5.841  10.635   5.199  0.5792  0.4046  1.9961
39746SOL     OW26095   2.752   6.467  11.051 -0.1297  0.6643 -0.5075
39746SOL    HW126096   2.678   6.483  10.993 -0.1437 -1.1321 -1.0445
39746SOL    HW226097   2.767   6.372  11.045  1.2242  0.7664  0.7835
39747SOL     OW26098  11.675   9.955   4.958  0.4585 -0.1533  0.0892
39747SOL    HW126099  11.625   9.901   4.897 -0.1974 -0.1280  0.5968
39747SOL    HW226100  11.699  10.032   4.907 -1.8326  0.8371  0.3950
39748SOL     OW26101   7.883  10.002   4.877  0.6519  0.2270  0.3493
39748SOL    HW126102   7.959   9.946   4.895 -0.6609 -0.9401  2.5865
39748SOL    HW226103   7.868  10.049   4.959 -1.4329 -0.0456  0.1585
39749SOL     OW26104   8.936   3.829  11.614 -0.1035 -0.2502  0.3561
39749SOL    HW126105   8.930   3.805  11.706 -2.1229 -0.6698  0.1683
39749SOL    HW226106   8.975   3.917  11.615  1.2093 -0.8086  1.4819
39750SOL     OW26107   3.000   4.205   9.145  0.0006 -0.0961  0.1777
39750SOL    HW126108   3.039   4.139   9.203 -0.6149 -1.8762 -1.3396
39750SOL    HW226109   3.070   4.269   9.131  0.5557 -0.2971  1.8485
39751SOL     OW26110   3.416   8.749   1.419  0.4949  0.2315 -0.0121
39751SOL    HW126111   3.501   8.746   1.464  1.0628  2.3340 -0.8755
39751SOL    HW226112   3.367   8.676   1.458  2.0815  0.0024  1.7144
39752SOL     OW26113   0.398   3.057   9.166 -0.1384 -0.1709  0.0996
39752SOL    HW126114   0.313   3.016   9.184 -0.0062  0.0551  1.4076
39752SOL    HW226115   0.440   3.062   9.252  0.1571  1.9979 -0.1172
39753SOL     OW26116   2.168   7.989   3.056  0.2280 -0.3189  0.7668
39753SOL    HW126117   2.218   7.947   3.126 -0.4194 -0.0805  1.3842
39753SOL    HW226118   2.228   8.056   3.021  0.2203  0.2342  1.7599
39754SOL     OW26119   4.211   3.195  11.283 -0.0954 -0.4720  0.0358
39754SOL    HW126120   4.264   3.218  11.207 -0.0395  0.0273  0.2206
39754SOL    HW226121   4.274   3.176  11.352 -0.1461  0.1088  0.2518
39755SOL     OW26122   9.487   0.063   9.937  0.0446  0.3456 -0.8947
39755SOL    HW126123   9.473   0.150   9.972  0.0916 -1.1004  3.2412
39755SOL    HW226124   9.401   0.022   9.939  0.5911 -0.8596  1.0817
39756SOL     OW26125   5.735   2.824   8.081 -0.0567  0.6668 -0.5651
39756SOL    HW126126   5.672   2.895   8.070  0.5149  0.8286 -4.0911
39756SOL    HW226127   5.782   2.821   7.997 -0.2905 -4.1180 -0.7953
39757SOL     OW26128  11.394   3.082   1.929 -0.0848  0.2356 -0.0304
39757SOL    HW126129  11.361   3.051   2.013 -1.0747  1.6238  0.1341
39757SOL    HW226130  11.316   3.113   1.883  0.4458 -0.5018 -1.4755
39758SOL     OW26131   7.741   4.491  11.443 -0.1169  0.1557 -0.3410
39758SOL    HW126132   7.807   4.553  11.474 -0.2272  0.2256 -0.2442
39758SOL    HW226133   7.754   4.489  11.348  1.0566 -1.0171 -0.1863
39759SOL     OW26134   9.655   1.141   4.874  0.4251  0.4232 -0.2862
39759SOL    HW126135   9.656   1.218   4.816  1.0272 -0.6308 -1.7455
39759SOL    HW226136   9.565   1.110   4.871  0.6704 -0.2540 -1.5955
39760SOL     OW26137   8.577   3.303  11.145  0.3330  0.5850  0.4609
39760SOL    HW126138   8.548   3.286  11.234 -0.1146 -1.0758  0.0492
39760SOL    HW226139   8.502   3.276  11.090  0.9087  0.7609 -0.4351
39761SOL     OW26140  10.495   8.841   6.992 -0.0452  0.3740  0.1519
39761SOL    HW126141  10.589   8.841   6.976 -0.0164  1.3964  0.2624
39761SOL    HW226142  10.457   8.805   6.911  0.4753 -0.9530  0.4700
39762SOL     OW26143   0.068   3.251  11.967 -0.4366 -0.2142  0.6900
39762SOL    HW126144   0.145   3.258  11.910 -1.5676  0.5560 -0.8179
39762SOL    HW226145   0.046   3.158  11.966 -1.0768 -0.0879 -1.0917
39763SOL     OW26146   3.627   8.437   5.671  0.5231  0.0752  0.4937
39763SOL    HW126147   3.611   8.476   5.585  0.7188 -1.0275 -0.0504
39763SOL    HW226148   3.704   8.382   5.659 -0.2749 -1.1958  1.0145
39764SOL     OW26149   8.482   7.040   6.531 -0.5159 -0.0797  0.0395
39764SOL    HW126150   8.487   7.044   6.627  0.4251  1.3379 -0.0339
39764SOL    HW226151   8.540   6.967   6.508  0.0922  0.2488  0.4986
39765SOL     OW26152   7.383   7.783  12.410 -0.3161  0.3043  0.5062
39765SOL    HW126153   7.298   7.740  12.418  1.0037 -3.3090 -2.0022
39765SOL    HW226154   7.426   7.770  12.494 -1.4519  0.2175  1.0788
39766SOL     OW26155  10.755   6.252   9.015 -0.6536  0.5037  0.7009
39766SOL    HW126156  10.779   6.159   9.023 -0.6950  0.4831  0.5978
39766SOL    HW226157  10.839   6.297   9.005 -0.6774  0.3560 -0.3650
39767SOL     OW26158  10.966   2.941   6.252  0.1371  0.0379  0.3236
39767SOL    HW126159  10.955   2.929   6.347 -3.0511 -0.8509 -0.0191
39767SOL    HW226160  10.947   3.033   6.237 -1.2438 -0.1902  0.4488
39768SOL     OW26161   1.030   9.404   3.013 -0.2276  0.1401  0.0674
39768SOL    HW126162   0.982   9.477   3.052 -1.5978 -1.1816  0.9648
39768SOL    HW226163   1.072   9.441   2.936 -1.3443  1.7447  0.1826
39769SOL     OW26164   9.553   4.305   4.673 -0.2592 -0.3053 -0.0202
39769SOL    HW126165   9.613   4.377   4.689  0.1890 -0.7895  0.4901
39769SOL    HW226166   9.605   4.240   4.625 -1.2276  0.5918 -2.4630
39770SOL     OW26167   5.824   6.079   0.538 -0.4491  0.0154  0.0640
39770SOL    HW126168   5.796   5.994   0.571  0.3679 -0.2212  0.1751
39770SOL    HW226169   5.743   6.126   0.520 -0.9039 -0.7764  0.0269
39771SOL     OW26170   3.502  10.021   2.713 -0.0654  0.1843 -0.3626
39771SOL    HW126171   3.427   9.977   2.672  0.8764 -0.8171 -1.0682
39771SOL    HW226172   3.507   9.983   2.801  1.0117 -1.5493 -1.1112
39772SOL     OW26173   9.216   5.400   0.519 -0.6216  0.4598 -0.0581
39772SOL    HW126174   9.208   5.307   0.495 -2.6604  1.1081 -2.3643
39772SOL    HW226175   9.297   5.428   0.476  0.7005 -0.4678  1.7102
39773SOL     OW26176   8.909   3.166   3.391 -0.0602  0.4592  0.0260
39773SOL    HW126177   8.845   3.096   3.401  0.1217  0.4893  1.6327
39773SOL    HW226178   8.991   3.129   3.423  0.4169  0.8938 -0.6535
39774SOL     OW26179   5.167   6.035   8.872 -0.4985  0.1404  0.1443
39774SOL    HW126180   5.177   6.061   8.963  0.3762  0.4521 -0.0318
39774SOL    HW226181   5.160   5.940   8.874  1.3553 -0.0258  0.4054
39775SOL     OW26182   2.180   1.186  10.577 -0.3716  0.4942  0.0218
39775SOL    HW126183   2.150   1.248  10.644  0.4621 -0.0857  0.9615
39775SOL    HW226184   2.274   1.178  10.593 -0.5084 -1.1915  0.0718
39776SOL     OW26185   4.040   7.684  10.207  0.7220  0.0709 -0.1259
39776SOL    HW126186   4.092   7.657  10.283  1.2871  0.0484 -0.5154
39776SOL    HW226187   4.097   7.667  10.132  1.6034  3.4599 -0.3549
39777SOL     OW26188  10.353   8.228   1.497  0.2260 -0.0744  0.1419
39777SOL    HW126189  10.425   8.251   1.439 -0.1176  1.2519  0.2122
39777SOL    HW226190  10.387   8.156   1.550  0.1674 -2.1904 -2.4435
39778SOL     OW26191   9.762  11.781   5.011  0.3449  0.0954 -0.4499
39778SOL    HW126192   9.776  11.868   4.972  0.0175  0.5603  0.4321
39778SOL    HW226193   9.674  11.756   4.982 -0.3903  0.9618  0.8662
39779SOL     OW26194   2.639   7.223  10.804 -0.2065 -0.2167  0.2045
39779SOL    HW126195   2.589   7.278  10.865  1.9718  1.0550  0.9449
39779SOL    HW226196   2.603   7.135  10.817 -0.7691  0.2661  2.2997
39780SOL     OW26197  10.308   1.993   8.400 -0.1264 -0.1453  0.6057
39780SOL    HW126198  10.244   2.060   8.376 -0.9075 -1.0649  0.0196
39780SOL    HW226199  10.390   2.023   8.362  0.2490  1.9019  2.7547
39781SOL     OW26200  11.482   9.394   5.551  0.7753  0.8466  0.1768
39781SOL    HW126201  11.461   9.456   5.481  1.5288  0.4095 -0.4552
39781SOL    HW226202  11.576   9.402   5.563  1.0490 -0.8136 -0.5735
39782SOL     OW26203   9.587   8.174  11.518 -0.3390 -0.5839  0.2867
39782SOL    HW126204   9.671   8.219  11.525 -0.9112  0.8156 -1.2568
39782SOL    HW226205   9.610   8.085  11.493  0.7485 -0.7420  1.7250
39783SOL     OW26206   7.690   8.430  11.377  0.3444  0.1551  0.0798
39783SOL    HW126207   7.717   8.515  11.413  1.6683 -0.0736 -0.3303
39783SOL    HW226208   7.610   8.409  11.425 -0.1917  1.7665 -0.0180
39784SOL     OW26209   2.565   9.719   2.348  0.0553 -0.4433  0.1552
39784SOL    HW126210   2.534   9.727   2.439  1.0016  0.7552  0.4084
39784SOL    HW226211   2.488   9.690   2.299 -0.4936 -1.0534  1.3265
39785SOL     OW26212   8.623   3.391  10.713 -0.2894 -0.3635 -0.6912
39785SOL    HW126213   8.676   3.401  10.792 -0.5757 -1.6508 -0.3036
39785SOL    HW226214   8.675   3.431  10.644  0.7461 -0.7103 -0.1443
39786SOL     OW26215   7.221   7.411   2.527  0.5571  0.8598 -0.0522
39786SOL    HW126216   7.291   7.455   2.575 -0.4838 -0.7624  3.2263
39786SOL    HW226217   7.256   7.325   2.505 -0.6309 -0.5023  2.8187
39787SOL     OW26218   5.142   9.969   3.385 -0.1245  0.4355  0.2699
39787SOL    HW126219   5.163   9.879   3.359 -0.9410  0.6548 -1.2933
39787SOL    HW226220   5.201   9.987   3.458  1.7529 -0.5593 -0.9069
39788SOL     OW26221   8.625   0.551  11.913 -0.3750  0.1101  0.3947
39788SOL    HW126222   8.597   0.587  11.829  0.9468 -0.2538 -0.2266
39788SOL    HW226223   8.561   0.583  11.976 -1.6120  0.0667 -0.8098
39789SOL     OW26224  10.436   4.735  12.139  0.1413 -0.4204  0.3191
39789SOL    HW126225  10.389   4.810  12.102 -1.5748 -1.1665  0.9068
39789SOL    HW226226  10.368   4.672  12.160  1.4890 -1.8266  0.6108
39790SOL     OW26227   8.584   7.318   4.269  0.5646  0.0205 -0.5845
39790SOL    HW126228   8.660   7.350   4.316  0.3415  0.3450 -0.4407
39790SOL    HW226229   8.538   7.262   4.331 -0.6363  1.7597  0.1998
39791SOL     OW26230  10.643   3.860   7.031  0.3470  0.3393  0.5970
39791SOL    HW126231  10.607   3.928   6.973  2.6538  0.3333 -0.9765
39791SOL    HW226232  10.633   3.779   6.980  0.8760  0.0645  0.9325
39792SOL     OW26233   0.550   4.419   6.473  0.0794 -0.3935  0.0982
39792SOL    HW126234   0.632   4.422   6.424  0.5664  1.7921  0.9616
39792SOL    HW226235   0.491   4.477   6.426 -0.2117 -0.1362  0.7678
39793SOL     OW26236   2.204   8.080   4.837 -0.1810  0.4248  0.1605
39793SOL    HW126237   2.129   8.139   4.845 -1.0122 -0.4474 -0.8692
39793SOL    HW226238   2.280   8.138   4.839 -0.9237  1.4344  0.1969
39794SOL     OW26239   9.073  10.237  10.610  0.4886  0.4158 -0.1047
39794SOL    HW126240   9.124  10.160  10.637  1.7741  1.4408  0.5259
39794SOL    HW226241   9.117  10.268  10.531 -0.5668  0.0181 -0.8692
39795SOL     OW26242  10.196   3.491  10.949 -0.0256  0.0664 -0.2931
39795SOL    HW126243  10.180   3.416  11.006 -0.2606  0.0554 -0.3686
39795SOL    HW226244  10.111   3.535  10.944 -0.5942 -1.1040 -2.3068
39796SOL     OW26245   5.046   0.168  11.098 -0.3132 -0.5146  0.4514
39796SOL    HW126246   4.989   0.177  11.022 -0.6161  0.6508  0.7840
39796SOL    HW226247   4.987   0.145  11.170 -0.6715  2.0623  1.1006
39797SOL     OW26248  10.090   2.099  12.409 -0.2999  0.0999  0.3596
39797SOL    HW126249  10.124   2.044  12.337 -0.9650 -0.6028  0.5712
39797SOL    HW226250  10.131   2.184  12.395 -0.3081 -0.0652 -0.7782
39798SOL     OW26251  10.359   7.272  10.122  0.3718 -0.0041  0.1461
39798SOL    HW126252  10.308   7.193  10.143  0.4747 -0.3867 -0.9555
39798SOL    HW226253  10.445   7.238  10.097  0.4068  0.4489 -0.3742
39799SOL     OW26254  11.094   9.175   0.484 -0.5653  0.5331 -0.2552
39799SOL    HW126255  11.038   9.210   0.414 -0.1595  0.9034 -0.3967
39799SOL    HW226256  11.087   9.239   0.554  1.2201  1.6132 -1.0071
39800SOL     OW26257   9.789   2.218   0.102 -0.4706 -0.1641 -0.5541
39800SOL    HW126258   9.720   2.283   0.116  0.2875  0.5221  0.0527
39800SOL    HW226259   9.844   2.255   0.034  0.8723  0.5986  0.9025
39801SOL     OW26260   0.462  12.240  10.810  0.1827 -0.0371  0.1402
39801SOL    HW126261   0.423  12.310  10.863 -0.0472  0.2679 -0.4287
39801SOL    HW226262   0.498  12.179  10.874 -1.0643 -0.2328  0.6828
39802SOL     OW26263   5.184   5.647  11.567  0.1273  0.5208 -0.2142
39802SOL    HW126264   5.116   5.593  11.607  1.4112 -0.4723  0.6846
39802SOL    HW226265   5.148   5.671  11.481 -0.9387 -0.8179 -0.1656
39803SOL     OW26266   5.439   4.201   3.274 -0.1844 -0.1074 -0.0192
39803SOL    HW126267   5.345   4.189   3.258 -0.2674 -2.8646  1.9078
39803SOL    HW226268   5.477   4.115   3.258  2.5499  1.4681 -3.2136
39804SOL     OW26269   2.614   5.702  12.106 -0.1472 -0.4341  0.2097
39804SOL    HW126270   2.624   5.671  12.016 -0.9044  0.0293 -0.0409
39804SOL    HW226271   2.523   5.684  12.128  0.0462 -0.6075  0.9145
39805SOL     OW26272   8.324  10.097   1.279 -0.9697  0.2419 -0.8338
39805SOL    HW126273   8.327  10.130   1.369 -0.7634 -2.4343  0.2310
39805SOL    HW226274   8.233  10.108   1.253 -1.7415 -1.5435  0.8415
39806SOL     OW26275   2.572   7.026   6.982 -0.6173 -0.8462  0.0815
39806SOL    HW126276   2.534   6.994   7.064 -1.5470 -1.9458 -0.7431
39806SOL    HW226277   2.636   6.959   6.957 -0.1843 -0.4112  0.0011
39807SOL     OW26278   1.106   3.243   6.761 -0.0878  0.0652 -0.4186
39807SOL    HW126279   1.073   3.176   6.820  1.3835  1.2233  1.8447
39807SOL    HW226280   1.035   3.308   6.757 -0.1173  0.0798  0.2491
39808SOL     OW26281   1.777   3.212   4.192 -0.5009 -0.8226 -0.1877
39808SOL    HW126282   1.834   3.285   4.217 -1.2511  0.4239 -1.9125
39808SOL    HW226283   1.696   3.228   4.240 -1.3722  0.6656 -2.0370
39809SOL     OW26284   4.559   5.310   0.566 -0.5450  0.7057 -0.5968
39809SOL    HW126285   4.474   5.291   0.525 -2.1760  0.8954  2.4140
39809SOL    HW226286   4.574   5.403   0.545 -0.9704  0.6156 -1.3429
39810SOL     OW26287   0.237   6.656   7.433  0.1148 -0.2678 -0.5178
39810SOL    HW126288   0.199   6.569   7.420 -0.3000 -0.2221  0.3372
39810SOL    HW226289   0.169   6.716   7.402 -1.2483 -0.1218  2.4214
39811SOL     OW26290  10.161   7.715   2.557  0.3698  0.4048 -0.2069
39811SOL    HW126291  10.070   7.686   2.567  0.7914 -1.6553 -1.5045
39811SOL    HW226292  10.198   7.709   2.645 -0.5884  0.6612  0.2257
39812SOL     OW26293   7.027  10.681   8.272  0.3544  0.1118  0.1956
39812SOL    HW126294   6.996  10.605   8.223  0.3803  0.3213 -0.1503
39812SOL    HW226295   7.121  10.685   8.253  0.1592  0.8873 -0.7053
39813SOL     OW26296  10.329  11.599   0.150 -0.6780  0.7516  0.4804
39813SOL    HW126297  10.257  11.554   0.106  1.3769 -0.9193 -1.4042
39813SOL    HW226298  10.318  11.576   0.243 -0.8011 -2.2531 -0.1636
39814SOL     OW26299   7.279  11.463   3.001  0.0604  0.6663  0.2005
39814SOL    HW126300   7.246  11.385   2.957 -0.3358  1.4769 -0.9803
39814SOL    HW226301   7.258  11.535   2.942 -0.1920  1.7611  1.5624
39815SOL     OW26302   1.533   2.662   3.995  0.3526  0.0277 -0.2601
39815SOL    HW126303   1.600   2.600   4.025 -1.0941 -1.2137  0.5428
39815SOL    HW226304   1.450   2.624   4.024 -0.6707  1.8928 -0.5566
39816SOL     OW26305   5.692  12.461   7.448  0.1869  0.1498  0.5906
39816SOL    HW126306   5.613  12.429   7.405  1.1673  1.3438 -2.3522
39816SOL    HW226307   5.764  12.428   7.394  1.6181  0.5366  2.1733
39817SOL     OW26308  10.248  10.517   5.070 -0.5134  0.6469 -0.0265
39817SOL    HW126309  10.276  10.425   5.074  0.7282  1.0521  1.3060
39817SOL    HW226310  10.318  10.565   5.113 -0.6841  2.3493 -1.5359
39818SOL     OW26311   0.390  11.122   8.140 -0.3562 -0.1483 -0.2590
39818SOL    HW126312   0.314  11.132   8.198 -1.6274 -0.7648 -1.7441
39818SOL    HW226313   0.376  11.187   8.071  1.1570  0.6012  0.0901
39819SOL     OW26314   7.742   4.942  10.366  0.2138  0.3171 -0.3667
39819SOL    HW126315   7.678   5.012  10.353 -0.0178  0.7777  2.5624
39819SOL    HW226316   7.822   4.987  10.392  0.7860 -0.4153 -0.8096
39820SOL     OW26317   8.370   6.034   4.731  0.2401  0.8687  0.8019
39820SOL    HW126318   8.341   5.970   4.666  2.1233  1.1435 -0.3762
39820SOL    HW226319   8.327   6.116   4.705 -1.9762  0.2465  2.1668
39821SOL     OW26320   1.405   8.880   9.398  0.1936  0.9672  0.5408
39821SOL    HW126321   1.320   8.848   9.370  0.4463  0.8431 -0.1194
39821SOL    HW226322   1.420   8.838   9.482  0.5627 -0.7854 -0.3429
39822SOL     OW26323   2.678   8.430   3.589  0.2811 -0.0697  0.6168
39822SOL    HW126324   2.710   8.436   3.499  0.0658 -1.2286  0.4426
39822SOL    HW226325   2.727   8.356   3.626  1.4387  1.3016  1.9212
39823SOL     OW26326   9.184   1.919   7.657  0.4763 -0.0498 -0.0616
39823SOL    HW126327   9.232   1.836   7.663  0.8337  0.2681  2.1432
39823SOL    HW226328   9.143   1.929   7.743 -1.7591  0.7845 -1.1487
39824SOL     OW26329   4.954  12.472   6.910 -0.1607 -0.0632  0.3087
39824SOL    HW126330   5.042  12.445   6.938  0.1980  1.1658  0.4080
39824SOL    HW226331   4.902  12.392   6.917  0.3417 -0.2591  2.7023
39825SOL     OW26332   6.078   2.876  10.121  0.1271 -0.0235 -0.1968
39825SOL    HW126333   6.149   2.886  10.057  0.4112  0.8523  0.2367
39825SOL    HW226334   6.111   2.919  10.200 -1.1680  1.0190 -0.2014
39826SOL     OW26335   9.032   4.247   9.574  0.4535  0.0635  0.2280
39826SOL    HW126336   9.063   4.158   9.589  0.4407 -0.0644 -0.4769
39826SOL    HW226337   9.074   4.299   9.643  0.7787 -0.4195  0.3980
39827SOL     OW26338   2.099   3.938   2.059 -0.2127  0.7887 -0.6025
39827SOL    HW126339   2.028   3.998   2.037 -1.5585  0.3370  2.0757
39827SOL    HW226340   2.083   3.915   2.150  2.4107 -0.7318 -0.4312
39828SOL     OW26341   3.157   5.864  12.169 -0.2505  0.9795  0.0261
39828SOL    HW126342   3.099   5.933  12.201 -0.7339  0.2659  0.7323
39828SOL    HW226343   3.118   5.837  12.086 -0.1065  1.5055 -0.2108
39829SOL     OW26344   4.792  12.434   0.687  0.4406 -0.2803  0.2407
39829SOL    HW126345   4.809  12.522   0.720  3.2383 -0.1121 -1.2975
39829SOL    HW226346   4.752  12.387   0.760 -1.6077  2.3375  0.9424
39830SOL     OW26347   9.288  12.090   8.399 -0.0767 -0.6783 -0.4784
39830SOL    HW126348   9.205  12.138   8.395  0.2205 -0.1508 -0.5015
39830SOL    HW226349   9.297  12.051   8.312  0.6506  0.9292 -1.1688
39831SOL     OW26350   4.670   2.452   4.818  0.1005 -0.0702  0.0428
39831SOL    HW126351   4.703   2.431   4.905  0.6113  2.0392  0.4092
39831SOL    HW226352   4.719   2.395   4.759 -0.2060 -1.4759  1.0954
39832SOL     OW26353   4.225   2.377   3.934 -0.2659  0.0463 -0.3251
39832SOL    HW126354   4.253   2.292   3.901  1.0807  0.0171  0.7645
39832SOL    HW226355   4.146   2.359   3.984  0.9029 -0.9046  1.2829
39833SOL     OW26356   3.668   9.421  10.564  0.0804  0.2027  0.4350
39833SOL    HW126357   3.755   9.401  10.598  0.1397 -0.3827 -0.0521
39833SOL    HW226358   3.663   9.516  10.566  1.3513  0.3260 -1.0689
39834SOL     OW26359   5.774   4.951   7.321  0.0892 -0.2870 -0.0142
39834SOL    HW126360   5.860   4.935   7.361  0.3733  0.9455 -0.0926
39834SOL    HW226361   5.736   5.020   7.374 -0.7460 -0.6204 -0.1664
39835SOL     OW26362   6.220   7.022   5.631 -0.0412 -0.1008  0.6443
39835SOL    HW126363   6.264   7.021   5.716 -0.6012  1.3284  0.9957
39835SOL    HW226364   6.283   6.984   5.570  2.2578  2.8855  0.8932
39836SOL     OW26365   1.073   7.105   6.255  0.4107  0.2650  0.2124
39836SOL    HW126366   1.081   7.136   6.345 -0.3909  1.1596 -0.0067
39836SOL    HW226367   0.979   7.096   6.241  0.5109  0.5419 -0.6698
39837SOL     OW26368   7.020   0.998   3.781  0.1063 -0.3154 -0.8873
39837SOL    HW126369   7.099   0.971   3.734  2.4375  1.8855  1.4551
39837SOL    HW226370   7.020   1.094   3.774 -0.7723 -0.0826  1.4669
39838SOL     OW26371  10.275   8.859   1.145  0.9137 -0.0278 -0.2374
39838SOL    HW126372  10.322   8.797   1.089 -0.2270 -1.0073 -0.1626
39838SOL    HW226373  10.294   8.945   1.107  2.8276 -0.3573 -0.1214
39839SOL     OW26374   9.895   7.076   3.729 -0.0828 -0.0699 -0.3724
39839SOL    HW126375   9.843   7.049   3.805  1.7296 -0.8901  0.6331
39839SOL    HW226376   9.896   6.998   3.672  1.1812 -0.5617  0.2861
39840SOL     OW26377   1.560   9.410   2.808  0.3364 -0.2598  0.4823
39840SOL    HW126378   1.610   9.423   2.888 -1.5762 -0.1252  1.7224
39840SOL    HW226379   1.623   9.426   2.737  1.5738  1.7707  1.9425
39841SOL     OW26380   3.371   9.975   9.582 -0.0378 -0.0281  0.4383
39841SOL    HW126381   3.416   9.944   9.503 -0.4541  0.1360  0.1341
39841SOL    HW226382   3.410   9.924   9.653  3.3554  2.5986  0.7588
39842SOL     OW26383   4.797   2.847   6.693 -0.6103 -0.1378 -0.3827
39842SOL    HW126384   4.745   2.824   6.770 -0.5909 -0.0406 -0.3408
39842SOL    HW226385   4.830   2.935   6.711  0.0908 -0.4443 -0.1283
39843SOL     OW26386   2.815   8.902   9.232  0.1293 -0.2629  0.0913
39843SOL    HW126387   2.889   8.851   9.198  0.2827  1.3460 -2.2979
39843SOL    HW226388   2.741   8.878   9.176 -0.2937  0.5668  0.2727
39844SOL     OW26389   7.495   7.010   4.861  0.6787  0.0353  0.1815
39844SOL    HW126390   7.426   7.054   4.811  0.5039  0.3229  0.6743
39844SOL    HW226391   7.575   7.054   4.834  0.7603 -0.6890 -0.8400
39845SOL     OW26392   9.531   8.935   9.312 -0.0316 -0.2707  0.6478
39845SOL    HW126393   9.586   9.006   9.348  0.1974 -0.5136  0.7781
39845SOL    HW226394   9.469   8.980   9.256  1.2315 -0.1155 -0.6916
39846SOL     OW26395   1.744   8.392   7.993 -0.1428  0.3435 -0.3872
39846SOL    HW126396   1.673   8.456   7.994 -0.3611  0.2057 -2.7251
39846SOL    HW226397   1.776   8.392   7.903  2.1330 -0.3881  0.3387
39847SOL     OW26398  11.014   1.944   0.143 -0.1786  0.4669 -0.8290
39847SOL    HW126399  11.047   2.033   0.146  1.9235 -0.2338 -1.4161
39847SOL    HW226400  11.078   1.893   0.192 -0.1001 -1.0457 -2.3942
39848SOL     OW26401   7.093   5.064   0.311 -0.1050  0.2962  0.5017
39848SOL    HW126402   7.019   5.030   0.362 -0.8041  1.0781  0.0394
39848SOL    HW226403   7.170   5.030   0.356 -0.6969  0.7419  1.9307
39849SOL     OW26404  11.532  11.383   1.439 -0.6873 -0.2549 -0.5200
39849SOL    HW126405  11.566  11.348   1.357 -1.4020  0.8921 -1.3343
39849SOL    HW226406  11.446  11.343   1.448 -0.2858 -1.0027  0.1040
39850SOL     OW26407   2.896   7.080   2.031 -0.4865  0.4640 -0.0428
39850SOL    HW126408   2.955   7.151   2.007 -1.0053  0.1802 -2.5123
39850SOL    HW226409   2.952   7.002   2.033 -0.5499  0.3387 -1.5060
39851SOL     OW26410   0.924   8.591   0.760  0.4534  0.4866 -0.0534
39851SOL    HW126411   1.013   8.619   0.783  1.1754 -0.5683 -1.3543
39851SOL    HW226412   0.922   8.597   0.664 -0.6103 -0.2534 -0.0886
39852SOL     OW26413   9.866  11.050  10.305  0.0640 -0.6955 -0.1861
39852SOL    HW126414   9.955  11.083  10.290 -0.2111  0.2881  0.2253
39852SOL    HW226415   9.853  11.061  10.400 -1.2888  1.3297 -0.5424
39853SOL     OW26416   8.628   1.590  10.633 -0.2916  0.5726  0.0512
39853SOL    HW126417   8.639   1.635  10.549  1.2038 -0.1717 -0.1745
39853SOL    HW226418   8.597   1.502  10.609  0.5996  0.2006  0.2372
39854SOL     OW26419   1.682   5.149  10.284 -0.3173 -0.5769  0.0192
39854SOL    HW126420   1.686   5.070  10.338 -1.4574 -1.1845 -0.7593
39854SOL    HW226421   1.678   5.117  10.194 -4.1122  0.1646 -0.2333
39855SOL     OW26422   8.086   5.631   5.460  0.9849  0.2087  0.0123
39855SOL    HW126423   8.106   5.600   5.372  0.4792 -1.6105  0.5080
39855SOL    HW226424   8.125   5.565   5.518  1.7751  1.6464  1.1846
39856SOL     OW26425   5.853   8.836   6.546  0.6139 -0.4026  0.5782
39856SOL    HW126426   5.887   8.747   6.556  0.0245 -0.9203 -1.5880
39856SOL    HW226427   5.758   8.826   6.547  0.4426 -0.3594 -2.9204
39857SOL     OW26428   3.565   0.862   1.155 -0.0989  0.0165  0.2482
39857SOL    HW126429   3.525   0.851   1.241  0.2962 -1.1581  0.2992
39857SOL    HW226430   3.494   0.895   1.100 -0.2016  1.3989  1.1406
39858SOL     OW26431   1.826   2.050   0.198 -0.8075  0.8043  0.0818
39858SOL    HW126432   1.773   2.064   0.276  0.1123 -0.2554  0.9355
39858SOL    HW226433   1.847   1.956   0.200 -0.2050  0.8934 -1.0711
39859SOL     OW26434  10.820   2.313   9.839 -0.1787 -0.1493  0.0513
39859SOL    HW126435  10.726   2.328   9.849 -0.3318 -0.2470 -1.0912
39859SOL    HW226436  10.854   2.314   9.928 -1.5580 -2.0961  0.6795
39860SOL     OW26437  11.758   1.545  10.788 -0.4425  0.1404 -0.3909
39860SOL    HW126438  11.844   1.545  10.747 -0.1858  0.4237  0.1292
39860SOL    HW226439  11.729   1.454  10.786 -1.1351  0.3503 -2.5990
39861SOL     OW26440   9.754  11.554   5.297  0.1009  0.5098 -0.1749
39861SOL    HW126441   9.797  11.632   5.261  1.2890 -0.6904 -1.4719
39861SOL    HW226442   9.687  11.532   5.233 -2.6300  2.3760  1.8420
39862SOL     OW26443  10.688   9.988  11.628  0.5886  0.2530 -0.0458
39862SOL    HW126444  10.615   9.960  11.684  1.8905 -1.6646  0.8037
39862SOL    HW226445  10.674  10.082  11.616  0.1598  0.7712  3.4537
39863SOL     OW26446   8.833   0.994   2.719  0.2361  0.0235 -0.1932
39863SOL    HW126447   8.755   1.039   2.686 -0.6113 -1.8275 -0.8580
39863SOL    HW226448   8.900   1.010   2.653 -0.3779 -0.5800 -0.9842
39864SOL     OW26449   2.054   7.262   9.745  0.3807 -0.1290  0.0830
39864SOL    HW126450   2.146   7.240   9.728 -0.0161 -0.4906 -1.8827
39864SOL    HW226451   2.011   7.177   9.754  0.3055  0.0447  1.6065
39865SOL     OW26452   5.262   8.701  10.426  0.0074  0.3724 -0.1285
39865SOL    HW126453   5.348   8.693  10.469 -0.3143 -2.4431  0.2250
39865SOL    HW226454   5.209   8.752  10.488  1.0221  0.8977  0.3263
39866SOL     OW26455  10.200  10.793   2.820 -0.0453  0.3280  0.0705
39866SOL    HW126456  10.171  10.882   2.801  0.6269  0.4732 -0.3230
39866SOL    HW226457  10.124  10.738   2.803 -1.1213  1.0116  2.3107
39867SOL     OW26458   5.591   2.151   4.363  1.0338  0.1557  0.0055
39867SOL    HW126459   5.608   2.061   4.336  0.0965  0.2982 -1.1186
39867SOL    HW226460   5.629   2.157   4.451  2.0763 -1.0066 -0.3368
39868SOL     OW26461   4.827   7.080   1.156  0.9497 -0.1883 -0.1257
39868SOL    HW126462   4.759   7.138   1.120 -0.7281 -1.7289  0.3920
39868SOL    HW226463   4.785   7.039   1.231  2.5415 -1.0978  0.2975
39869SOL     OW26464  10.572   0.463  12.301  0.0392  0.0403 -0.5006
39869SOL    HW126465  10.650   0.418  12.334 -1.0750 -0.1831  2.0829
39869SOL    HW226466  10.551   0.418  12.219  3.3484  1.0220 -2.0557
39870SOL     OW26467   8.312   0.387   7.896  0.1969  0.2287  0.4403
39870SOL    HW126468   8.322   0.479   7.922 -0.8924  0.5359 -0.1749
39870SOL    HW226469   8.402   0.357   7.880  0.4235  2.2463 -2.9199
39871SOL     OW26470   7.401   8.144   9.730  0.2710 -0.4163 -0.7609
39871SOL    HW126471   7.489   8.114   9.707  0.5427 -0.2645  0.0319
39871SOL    HW226472   7.410   8.239   9.737  0.0391 -0.3976 -0.7077
39872SOL     OW26473   6.740   7.888   3.926 -0.4247 -0.4495 -0.0730
39872SOL    HW126474   6.816   7.881   3.869  0.1810 -1.3052  0.8255
39872SOL    HW226475   6.717   7.798   3.947 -1.2773 -0.1734  0.2171
39873SOL     OW26476  11.499   4.503   4.212 -0.2113  0.2628  0.3343
39873SOL    HW126477  11.506   4.419   4.258 -0.9688  0.7810  1.4514
39873SOL    HW226478  11.576   4.506   4.155  0.1968 -0.8782  0.7938
39874SOL     OW26479   6.749   4.132   4.537 -0.2083 -0.4942 -0.0869
39874SOL    HW126480   6.717   4.137   4.447 -0.9336  0.9608  0.2098
39874SOL    HW226481   6.842   4.155   4.532 -0.5101  0.7489 -0.3599
39875SOL     OW26482   9.381   0.525   3.078  0.2757 -1.1245 -0.1513
39875SOL    HW126483   9.452   0.534   3.141 -0.2634 -1.3381  0.4909
39875SOL    HW226484   9.426   0.503   2.996  1.2062  1.6416 -0.5021
39876SOL     OW26485  11.333   0.873   3.152 -0.9534  0.1844 -0.1703
39876SOL    HW126486  11.415   0.922   3.156 -0.1056 -1.1876 -0.1886
39876SOL    HW226487  11.269   0.929   3.196 -0.1370  1.4952 -0.5959
39877SOL     OW26488   1.698   8.553   6.366  0.0463  0.5096  0.0372
39877SOL    HW126489   1.660   8.470   6.394 -0.1586 -0.0584 -1.7538
39877SOL    HW226490   1.762   8.575   6.433 -0.7107 -0.5026  1.1265
39878SOL     OW26491  12.316   2.192   1.700  0.2045  0.1746  0.1857
39878SOL    HW126492  12.249   2.195   1.769 -1.8597  0.4820 -1.7049
39878SOL    HW226493  12.353   2.280   1.700  0.9134 -0.1001  1.4912
39879SOL     OW26494   5.993   6.228   2.674 -0.0730 -0.0599 -0.4417
39879SOL    HW126495   5.978   6.246   2.581 -1.7740  2.6082  0.2271
39879SOL    HW226496   5.919   6.173   2.700  1.2785 -2.2054 -0.9515
39880SOL     OW26497   6.239  12.202   6.875  0.6410 -0.5398  0.2507
39880SOL    HW126498   6.201  12.290   6.881  1.4266 -0.1545 -0.1341
39880SOL    HW226499   6.307  12.210   6.807  0.8886 -1.3816  0.3844
39881SOL     OW26500  10.603   3.105   5.736  0.0724 -0.1825  0.1079
39881SOL    HW126501  10.679   3.153   5.702  1.2325 -1.9781  0.0160
39881SOL    HW226502  10.585   3.146   5.820  0.2641  1.1695 -0.4869
39882SOL     OW26503   7.487   2.930  12.157  0.6565  0.4063 -0.2359
39882SOL    HW126504   7.565   2.950  12.208 -1.6776  2.4720  2.9295
39882SOL    HW226505   7.434   3.009  12.162 -1.4906 -0.7419 -2.6244
39883SOL     OW26506  11.412  11.194   0.728  0.0013 -0.3045  0.4962
39883SOL    HW126507  11.497  11.161   0.758 -0.2926 -1.6634 -0.0891
39883SOL    HW226508  11.432  11.243   0.648  0.2467 -0.6248  0.3593
39884SOL     OW26509   5.439   0.089   6.101 -0.4702 -0.7755 -0.4969
39884SOL    HW126510   5.414   0.072   6.192 -3.6545  2.5339 -0.5302
39884SOL    HW226511   5.387   0.028   6.050 -0.7991 -0.7571 -0.1880
39885SOL     OW26512   5.866   8.978   2.433 -0.1618 -0.3064 -0.1062
39885SOL    HW126513   5.885   8.902   2.378 -2.2762  0.9193 -2.7278
39885SOL    HW226514   5.788   8.952   2.482  0.1760 -0.4422  0.3687
39886SOL     OW26515   2.545  11.064   1.835 -0.1356 -0.6312  0.0569
39886SOL    HW126516   2.604  11.034   1.904 -1.0446  1.5432  1.9147
39886SOL    HW226517   2.594  11.133   1.789  0.6298 -2.3495 -1.8718
39887SOL     OW26518   4.877   1.323   2.201  0.1297 -0.5206  0.1342
39887SOL    HW126519   4.882   1.348   2.293 -0.0325  1.9867 -0.4715
39887SOL    HW226520   4.786   1.342   2.177 -0.7283 -3.9393  0.0952
39888SOL     OW26521   9.535   7.780   8.012  0.0891 -0.0295 -0.1774
39888SOL    HW126522   9.547   7.752   8.103  0.6371  1.5273  0.2700
39888SOL    HW226523   9.619   7.821   7.989  0.0868 -0.7211 -1.5209
39889SOL     OW26524   6.903  10.382  11.822 -0.2661 -0.6190  0.0012
39889SOL    HW126525   6.816  10.418  11.838 -0.9446 -2.0076 -0.4068
39889SOL    HW226526   6.962  10.440  11.870 -1.3912  0.4349  0.1627
39890SOL     OW26527   1.766  11.973  11.802 -0.3887  0.2348  0.4876
39890SOL    HW126528   1.733  12.003  11.718  1.3451  2.2331  0.4397
39890SOL    HW226529   1.852  11.935  11.783 -0.9578 -1.4904  1.0915
39891SOL     OW26530   2.760   7.942   6.029 -0.3539 -0.0395  0.4497
39891SOL    HW126531   2.809   7.887   5.967 -1.0275 -0.5457  0.3467
39891SOL    HW226532   2.672   7.903   6.030 -0.3949  0.0529  1.6055
39892SOL     OW26533   8.065   9.017   9.083 -0.0263  0.1099  0.1548
39892SOL    HW126534   8.138   8.989   9.138 -0.8365 -1.3964  0.5077
39892SOL    HW226535   7.987   9.002   9.136 -0.8017 -1.1210 -1.2623
39893SOL     OW26536   1.546   3.298   5.199 -0.7200  0.1727 -0.4792
39893SOL    HW126537   1.529   3.278   5.107  0.0570  0.9898 -0.8216
39893SOL    HW226538   1.462   3.286   5.243 -0.7384 -1.8569 -0.9829
39894SOL     OW26539   8.858   5.273   7.056  0.0091  0.1271 -0.1889
39894SOL    HW126540   8.890   5.335   6.990  0.1065 -0.1268 -0.3790
39894SOL    HW226541   8.764   5.267   7.040 -0.4878  2.1870  1.4433
39895SOL     OW26542   3.096  10.894  11.956 -0.4063 -0.2535 -0.1726
39895SOL    HW126543   3.058  10.937  11.880  0.3814 -2.9253 -2.2470
39895SOL    HW226544   3.104  10.802  11.930  1.8457 -0.9161  2.3906
39896SOL     OW26545   9.557   1.730   0.357  0.2617 -0.2785  0.2147
39896SOL    HW126546   9.554   1.726   0.262  1.7491  0.4378  0.1139
39896SOL    HW226547   9.465   1.728   0.384 -0.2207  0.4667 -1.2755
39897SOL     OW26548   6.609   4.875   2.546  0.4149  0.1458 -0.1666
39897SOL    HW126549   6.577   4.786   2.528 -2.2333  0.9882 -0.0963
39897SOL    HW226550   6.642   4.906   2.462  0.4210 -0.5643 -0.4348
39898SOL     OW26551   0.993   2.289   9.977 -0.6660 -0.0775  0.3857
39898SOL    HW126552   1.005   2.254  10.065  1.1725  0.9529  0.6017
39898SOL    HW226553   1.060   2.246   9.925 -1.3363 -0.2132 -0.3783
39899SOL     OW26554   5.956   3.089   7.678  0.4325  0.1469  0.2633
39899SOL    HW126555   5.990   3.123   7.595  1.3117  0.7734  0.8614
39899SOL    HW226556   5.989   3.000   7.683  1.0135  0.3589  0.2855
39900SOL     OW26557   6.164   6.732   7.198 -0.1929 -0.4926  0.0368
39900SOL    HW126558   6.107   6.799   7.161  2.0585  0.8715 -1.2202
39900SOL    HW226559   6.134   6.650   7.158 -0.8025  0.2856 -1.1526
39901SOL     OW26560   4.215   4.125   6.450 -0.0414 -0.5077 -1.0137
39901SOL    HW126561   4.285   4.174   6.494  0.0295 -0.8194 -0.7763
39901SOL    HW226562   4.153   4.104   6.520 -1.6580  1.9031 -1.5935
39902SOL     OW26563   8.219  10.903   1.020  0.1449 -0.5527 -0.2207
39902SOL    HW126564   8.166  10.824   1.005 -0.4576 -0.1529 -0.2310
39902SOL    HW226565   8.164  10.975   0.990  1.1250 -0.2101 -1.2570
39903SOL     OW26566   4.547   4.899   5.170 -0.4596  0.2625 -0.1372
39903SOL    HW126567   4.537   4.866   5.081  0.8531 -1.3487  0.2654
39903SOL    HW226568   4.520   4.827   5.226 -0.9619  1.1460  0.7997
39904SOL     OW26569   2.380   8.248   9.732 -0.1108 -0.3767  0.3510
39904SOL    HW126570   2.420   8.318   9.681  0.1207 -0.3048  0.6259
39904SOL    HW226571   2.360   8.288   9.817  0.9495 -0.8952  0.8686
39905SOL     OW26572   6.963   3.327   4.247  0.2849 -0.2624 -0.2786
39905SOL    HW126573   7.030   3.312   4.180  0.3596 -0.8822 -0.0696
39905SOL    HW226574   6.963   3.247   4.299  1.0772  0.6410  1.2013
39906SOL     OW26575   5.450  10.754  10.680  0.1319  0.3453 -0.2017
39906SOL    HW126576   5.469  10.716  10.767 -0.4379  2.2312  0.7899
39906SOL    HW226577   5.385  10.695  10.642 -0.9304  0.4176  1.4077
39907SOL     OW26578  10.404   2.221  11.219 -0.1795  0.1474  0.4990
39907SOL    HW126579  10.394   2.314  11.239  0.3794  0.6350 -1.3102
39907SOL    HW226580  10.317   2.193  11.190  0.2179  0.8468 -1.5873
39908SOL     OW26581   6.102  10.932   3.105  0.0251  0.0679  0.4092
39908SOL    HW126582   6.177  10.987   3.128 -0.2542  0.8675 -0.5202
39908SOL    HW226583   6.036  10.994   3.075 -0.1406 -0.7895 -1.1029
39909SOL     OW26584   3.482   0.391   9.260 -0.4448  0.6005  0.1956
39909SOL    HW126585   3.470   0.425   9.349  0.1833 -0.3567  0.6696
39909SOL    HW226586   3.395   0.392   9.222 -0.8671  0.2785  1.1178
39910SOL     OW26587   9.206   8.348   8.160  0.0808 -0.3368 -0.3417
39910SOL    HW126588   9.125   8.299   8.173  0.0584 -0.2058  0.0238
39910SOL    HW226589   9.207   8.369   8.067 -0.1338 -0.6404 -0.4133
39911SOL     OW26590   1.677   7.052   5.502 -0.0255 -0.0863 -0.0670
39911SOL    HW126591   1.623   7.129   5.484  0.0241  0.0115  0.2000
39911SOL    HW226592   1.757   7.087   5.542 -0.7305 -0.3900  1.7035
39912SOL     OW26593   3.104   1.681  12.212  0.4096 -0.4784 -0.2210
39912SOL    HW126594   3.143   1.655  12.296  1.1914 -0.8682 -0.6865
39912SOL    HW226595   3.011   1.666  12.223  0.6199 -1.6185  0.2043
39913SOL     OW26596   8.042   1.084   5.030  0.7003  0.3709  0.3241
39913SOL    HW126597   7.951   1.112   5.021  0.2006 -0.8693  1.2763
39913SOL    HW226598   8.087   1.126   4.957 -0.6951  0.7619 -0.3433
39914SOL     OW26599  10.580   0.792  11.941  0.3847 -0.1230  0.0432
39914SOL    HW126600  10.486   0.772  11.934  0.0390  1.5291 -0.6682
39914SOL    HW226601  10.621   0.737  11.874  0.1313 -1.7953  1.1905
39915SOL     OW26602   4.471   9.601  11.044 -0.2851 -0.0672 -0.1528
39915SOL    HW126603   4.425   9.529  11.001  0.5833 -0.9698  0.3545
39915SOL    HW226604   4.550   9.614  10.991  0.3775 -0.6296  0.6602
39916SOL     OW26605   7.720   4.431   4.249  0.2015  0.3589 -0.7664
39916SOL    HW126606   7.687   4.410   4.161  0.8984 -0.4717 -0.8450
39916SOL    HW226607   7.789   4.495   4.233  2.2887 -1.8725 -1.1328
39917SOL     OW26608  10.352   7.900   2.485  0.3632 -0.2400  0.0039
39917SOL    HW126609  10.390   7.915   2.572 -1.3120  2.0717  0.4473
39917SOL    HW226610  10.299   7.821   2.495  0.4118 -0.1614  1.0176
39918SOL     OW26611  12.453   5.144   2.054 -0.1125 -0.6060 -0.4446
39918SOL    HW126612  12.358   5.131   2.055 -0.2325  0.2513  0.0440
39918SOL    HW226613  12.468   5.210   1.987 -0.1504  1.1820  1.2278
39919SOL     OW26614   3.353  12.121   2.908  0.4051  0.2770 -0.1697
39919SOL    HW126615   3.428  12.143   2.962  0.1593  2.5228 -0.6552
39919SOL    HW226616   3.287  12.090   2.970  0.0756  2.9254  0.9219
39920SOL     OW26617   3.941   3.261   3.641  0.8416 -0.0343  0.0296
39920SOL    HW126618   3.857   3.300   3.620  0.6320 -1.1815 -1.3689
39920SOL    HW226619   3.972   3.223   3.559  3.1858  1.1750  0.2680
39921SOL     OW26620   3.286   9.927   4.765  0.4328  0.3058 -0.5365
39921SOL    HW126621   3.253   9.843   4.732  0.2514  0.4339 -0.6877
39921SOL    HW226622   3.381   9.920   4.758  0.6014 -0.8916  1.8745
39922SOL     OW26623   6.124   3.697   7.999 -0.2797  0.4816  0.2425
39922SOL    HW126624   6.082   3.782   8.012  1.7646  1.6100 -0.0552
39922SOL    HW226625   6.188   3.712   7.929 -0.4574 -1.5472 -0.4335
39923SOL     OW26626   6.924  11.499   0.760  0.2150 -0.0473  0.3507
39923SOL    HW126627   6.903  11.411   0.791  0.0639 -0.1852 -0.1430
39923SOL    HW226628   6.991  11.486   0.693  0.5596  0.2559  0.6281
39924SOL     OW26629   0.798  12.139   2.782 -0.5739 -0.2938 -0.7788
39924SOL    HW126630   0.844  12.135   2.865 -2.1378 -0.1485  0.1341
39924SOL    HW226631   0.730  12.072   2.788 -1.0135  0.0342 -1.7512
39925SOL     OW26632  11.055   6.937   9.377 -0.1117  0.0645  0.6346
39925SOL    HW126633  11.125   6.879   9.345 -0.8909 -0.9977  0.8004
39925SOL    HW226634  10.976   6.903   9.335 -0.7811  0.1880  1.7759
39926SOL     OW26635   2.737   8.606   7.141 -0.0047  0.4827 -0.4856
39926SOL    HW126636   2.698   8.682   7.183 -0.3764  0.2207 -0.3493
39926SOL    HW226637   2.774   8.640   7.059  1.5918  1.1840  0.4763
39927SOL     OW26638   0.098   1.851   3.741  0.0057 -0.5977  0.4807
39927SOL    HW126639   0.174   1.796   3.762  0.3050 -0.6264 -0.6343
39927SOL    HW226640   0.024   1.791   3.740  0.2601 -0.9035 -0.2708
39928SOL     OW26641   4.152   8.052  11.436 -0.5671  0.2418 -0.0310
39928SOL    HW126642   4.151   8.146  11.451 -2.8940  0.6165 -1.9016
39928SOL    HW226643   4.062   8.030  11.414  0.1812 -2.1716 -1.0759
39929SOL     OW26644   1.774   7.693  10.329 -0.0109 -0.1398  0.7410
39929SOL    HW126645   1.821   7.773  10.353  0.1269 -0.0509  0.1879
39929SOL    HW226646   1.687   7.704  10.367 -0.1409  0.4836  0.2618
39930SOL     OW26647   0.177   5.627   6.035  0.0793 -0.2082  0.0630
39930SOL    HW126648   0.093   5.673   6.033  0.0883 -0.2244 -0.8414
39930SOL    HW226649   0.239   5.692   6.067 -0.1046  0.0821 -0.1676
39931SOL     OW26650   3.358   3.844   3.446 -0.1380  1.0386  0.1212
39931SOL    HW126651   3.437   3.825   3.395  0.3251 -2.4432  1.7879
39931SOL    HW226652   3.292   3.867   3.381  0.5711 -2.5004 -2.1572
39932SOL     OW26653   0.465   7.152   0.252 -0.1278  0.0828 -0.2287
39932SOL    HW126654   0.396   7.124   0.192  0.2055 -1.3425  0.0353
39932SOL    HW226655   0.438   7.118   0.337  0.0034  1.0875  0.2355
39933SOL     OW26656  11.931   2.095   6.470  0.5001  0.5746  0.3347
39933SOL    HW126657  11.991   2.095   6.396  1.5641 -0.8141  1.1429
39933SOL    HW226658  11.983   2.062   6.543 -0.8841  0.6393  1.3984
39934SOL     OW26659   1.693   8.528   4.886  0.2863 -0.4844  0.1252
39934SOL    HW126660   1.669   8.602   4.941 -1.0136 -0.9879  0.2800
39934SOL    HW226661   1.610   8.498   4.849  1.1034 -0.1405 -2.1443
39935SOL     OW26662  11.325  11.572   1.378 -0.4757  0.0123  0.2865
39935SOL    HW126663  11.240  11.614   1.386 -0.6289 -0.2222 -0.0752
39935SOL    HW226664  11.320  11.495   1.434 -0.2431  0.3886  0.8387
39936SOL     OW26665   9.445   4.786   9.437 -0.5887 -0.0697  0.5268
39936SOL    HW126666   9.472   4.720   9.500 -0.2814  0.2011  0.6812
39936SOL    HW226667   9.499   4.862   9.456  2.1545 -1.0838 -2.3453
39937SOL     OW26668   2.745   6.905   6.537  0.0057 -0.0805 -0.1037
39937SOL    HW126669   2.721   6.823   6.495 -2.4564  1.0532 -1.1315
39937SOL    HW226670   2.747   6.885   6.631  2.0117 -1.8173 -0.4280
39938SOL     OW26671   7.829   2.249   1.605 -0.4337 -0.4831  0.6680
39938SOL    HW126672   7.756   2.219   1.550 -0.9226  1.8711 -0.0723
39938SOL    HW226673   7.807   2.339   1.626  3.6720  1.5177 -2.2174
39939SOL     OW26674   9.521   7.322   0.998 -0.4563 -0.5637 -0.0319
39939SOL    HW126675   9.563   7.404   0.971 -2.0056  0.5817  0.8940
39939SOL    HW226676   9.457   7.348   1.064 -1.3962 -2.4605 -0.1238
39940SOL     OW26677   9.868   4.608   8.056 -0.4821 -0.1979 -0.3451
39940SOL    HW126678   9.902   4.557   8.130 -0.5965  0.7690  0.4006
39940SOL    HW226679   9.892   4.698   8.077  0.5982 -0.0385 -2.1186
39941SOL     OW26680   3.651  11.357   3.417 -0.3124 -0.1095 -0.0053
39941SOL    HW126681   3.726  11.313   3.379  1.3831  2.7970 -0.2874
39941SOL    HW226682   3.578  11.296   3.405  1.3136 -1.6846 -2.6980
39942SOL     OW26683  11.415   3.278   6.904  0.4062  0.0558 -0.0448
39942SOL    HW126684  11.431   3.299   6.995 -1.8728 -0.1504  0.4649
39942SOL    HW226685  11.382   3.188   6.905 -1.0713  0.5519 -0.8745
39943SOL     OW26686   7.906  10.839  11.689  0.3041  0.2592  0.0705
39943SOL    HW126687   7.990  10.847  11.736 -0.8755  0.5713  2.2689
39943SOL    HW226688   7.849  10.903  11.731 -1.3874 -0.7402 -0.6008
39944SOL     OW26689   7.393   8.756   0.736  0.1901  0.3270  0.0554
39944SOL    HW126690   7.381   8.819   0.665 -0.1101 -0.2183 -0.3884
39944SOL    HW226691   7.481   8.721   0.723  0.1821  0.3171  0.0296
39945SOL     OW26692   5.041   6.223  12.145  0.6097 -0.1763 -0.3234
39945SOL    HW126693   5.058   6.300  12.200  0.1040  1.4667 -2.3514
39945SOL    HW226694   5.123   6.175  12.145  1.4406  1.1843 -0.2207
39946SOL     OW26695   3.307  10.418   5.576 -0.3909 -0.0100  0.5520
39946SOL    HW126696   3.258  10.476   5.636  0.1793  0.5625  0.4735
39946SOL    HW226697   3.245  10.348   5.556 -1.0940  0.5489  0.6847
39947SOL     OW26698  11.086   2.419   3.612  0.4962 -0.4335 -0.3821
39947SOL    HW126699  11.005   2.468   3.598  1.1893  0.5808 -1.0771
39947SOL    HW226700  11.082   2.347   3.550  0.4285  0.0373 -0.9383
39948SOL     OW26701   7.458  11.756   1.018 -0.5225  0.0051  0.4077
39948SOL    HW126702   7.422  11.700   0.950  1.2385 -1.7770  0.8289
39948SOL    HW226703   7.552  11.734   1.019 -0.0766  1.7770  1.7361
39949SOL     OW26704   0.999   3.893   8.365  0.1195  0.2552 -0.0232
39949SOL    HW126705   1.093   3.878   8.374 -0.2053 -2.9837 -0.5535
39949SOL    HW226706   0.962   3.859   8.446 -0.6366  1.6105  0.2301
39950SOL     OW26707   8.877   2.418   2.477  0.2612  0.4153 -0.3680
39950SOL    HW126708   8.854   2.326   2.462  1.1822 -0.0202  0.7560
39950SOL    HW226709   8.844   2.438   2.564 -0.0397  1.1963 -0.6527
39951SOL     OW26710  11.435   3.525   2.917 -0.1174  0.2954 -0.1601
39951SOL    HW126711  11.371   3.534   2.847  0.6842  1.6326 -0.7637
39951SOL    HW226712  11.515   3.563   2.881  0.2072  1.4020  1.6034
39952SOL     OW26713   8.468   1.537   7.684 -0.2853 -0.6137  0.0431
39952SOL    HW126714   8.459   1.558   7.591  0.6785  2.0537  0.4467
39952SOL    HW226715   8.379   1.542   7.719 -0.6392 -1.5377 -0.6781
39953SOL     OW26716  12.218   2.951  10.290  0.7876  0.0772 -0.5446
39953SOL    HW126717  12.209   2.988  10.378  0.3535 -0.0131 -0.5509
39953SOL    HW226718  12.182   3.018  10.232  0.9094  0.0592 -0.6418
39954SOL     OW26719   1.475   6.719   1.060 -0.0432  0.0580 -0.0919
39954SOL    HW126720   1.484   6.785   1.129  0.5727  0.0004 -0.1084
39954SOL    HW226721   1.540   6.652   1.082  0.8826  0.5243 -1.2597
39955SOL     OW26722   1.886  11.036   7.563 -0.1648 -0.3946 -0.6353
39955SOL    HW126723   1.812  11.076   7.608  0.8272 -0.7144  1.4033
39955SOL    HW226724   1.956  11.102   7.566 -0.2381 -0.2005 -2.2798
39956SOL     OW26725   5.568   2.968   7.822  0.0701 -0.3819 -0.2952
39956SOL    HW126726   5.623   3.023   7.878 -0.8125  1.9414 -1.5596
39956SOL    HW226727   5.479   2.995   7.841 -0.4149 -1.4540 -0.9360
39957SOL     OW26728  10.949   6.776   2.456 -0.6626 -0.3475  0.4999
39957SOL    HW126729  10.953   6.852   2.514 -1.3457  0.4504 -0.4630
39957SOL    HW226730  10.958   6.812   2.367 -0.1102 -1.4846  0.0648
39958SOL     OW26731   6.250   1.801   9.886  1.2836 -0.5171  0.8080
39958SOL    HW126732   6.303   1.881   9.894  0.8436 -0.0187 -1.0338
39958SOL    HW226733   6.163   1.831   9.861  1.8861 -1.6123 -3.3727
39959SOL     OW26734   3.675  10.916   0.938 -0.1296  0.3946  0.2846
39959SOL    HW126735   3.628  10.923   1.021 -0.1707  2.5504  0.1194
39959SOL    HW226736   3.711  11.003   0.923 -0.1452  0.0706 -1.9783
39960SOL     OW26737   2.973   4.879   6.233  0.9832 -0.0905 -0.0773
39960SOL    HW126738   2.972   4.975   6.238  1.5175 -0.1094  0.5825
39960SOL    HW226739   2.911   4.858   6.163  1.7778  0.7872 -1.0722
39961SOL     OW26740   6.229   2.635   7.807  0.3359 -0.3423 -0.3553
39961SOL    HW126741   6.248   2.714   7.858 -0.1493  0.1476 -0.9125
39961SOL    HW226742   6.310   2.584   7.811  0.5657  0.0543  0.2401
39962SOL     OW26743   7.597   5.007   6.428 -0.4385 -0.2210  0.3516
39962SOL    HW126744   7.636   4.961   6.502  1.1013 -1.0901 -0.9293
39962SOL    HW226745   7.625   4.957   6.351  0.6889  2.3686 -1.0648
39963SOL     OW26746   2.820   8.865   6.672 -0.0899 -0.0995  0.2754
39963SOL    HW126747   2.838   8.801   6.603  1.7615  0.9204 -0.2790
39963SOL    HW226748   2.746   8.916   6.639 -0.7937 -1.1550  0.1752
39964SOL     OW26749   7.291  12.004   4.094 -0.5051 -0.2332 -0.4866
39964SOL    HW126750   7.312  11.914   4.070  1.2307 -0.4460  1.5135
39964SOL    HW226751   7.246  11.996   4.178  0.7357  0.7840  0.3153
39965SOL     OW26752   5.359   6.870  10.261  0.1350 -0.0594  0.4767
39965SOL    HW126753   5.271   6.856  10.225  0.2050 -2.3300  1.0649
39965SOL    HW226754   5.344   6.915  10.345 -0.3285  0.9422 -0.1232
39966SOL     OW26755   2.606   4.991   4.762 -0.1792  0.2649 -0.5266
39966SOL    HW126756   2.700   5.001   4.749  0.0126 -1.0302 -0.3038
39966SOL    HW226757   2.582   4.918   4.704 -0.6407 -0.7866  0.9349
39967SOL     OW26758   5.008   5.672   8.341 -0.4286  0.1055  0.3613
39967SOL    HW126759   4.999   5.763   8.369 -1.0698  0.2057 -0.1455
39967SOL    HW226760   5.030   5.624   8.421  1.6919  0.9371  0.3293
39968SOL     OW26761  12.088   3.639  10.501  0.0863  0.1554 -0.5586
39968SOL    HW126762  12.020   3.618  10.564 -0.1709 -1.8525 -1.4370
39968SOL    HW226763  12.058   3.720  10.459 -1.8590 -0.7673 -1.0249
39969SOL     OW26764   7.152  10.636   6.673 -0.2806  0.7202 -0.2057
39969SOL    HW126765   7.078  10.576   6.681  0.0127  0.5387  1.6402
39969SOL    HW226766   7.185  10.621   6.585 -0.3467 -1.7135  0.1039
39970SOL     OW26767   1.103   3.521   3.978  0.2185 -0.4105  0.0378
39970SOL    HW126768   1.099   3.615   3.957  1.5565  0.1294  1.9382
39970SOL    HW226769   1.190   3.494   3.949 -0.1550 -1.0755 -0.4832
39971SOL     OW26770  11.581   4.841   5.858  0.0350 -0.6674  0.0057
39971SOL    HW126771  11.551   4.903   5.925  0.5966 -0.9363  0.5211
39971SOL    HW226772  11.503   4.822   5.806 -0.8340 -1.7197  1.6039
39972SOL     OW26773   0.873   7.155   7.324 -0.3528  0.5503  0.2554
39972SOL    HW126774   0.960   7.185   7.295 -0.7540 -0.8835 -2.7734
39972SOL    HW226775   0.873   7.061   7.306 -2.5133  0.5046  0.2790
39973SOL     OW26776  10.322   9.407   4.201 -0.0235 -0.1490  0.4760
39973SOL    HW126777  10.307   9.415   4.107 -0.2242 -0.4211  0.4812
39973SOL    HW226778  10.416   9.391   4.210  0.2017  1.0496  0.4005
39974SOL     OW26779   3.129   1.867  10.643  0.0105  0.0331 -0.4145
39974SOL    HW126780   3.221   1.867  10.614  0.5398 -1.3814  1.1341
39974SOL    HW226781   3.107   1.775  10.652 -1.3516  0.3785 -0.0270
39975SOL     OW26782  10.397  11.515  10.963  0.1135  0.4177 -0.5115
39975SOL    HW126783  10.472  11.479  11.010 -1.4924 -0.0746  1.7958
39975SOL    HW226784  10.391  11.606  10.992 -1.6497 -0.2324  1.3724
39976SOL     OW26785   5.680   9.423   3.410 -0.2849  0.3306  0.2038
39976SOL    HW126786   5.710   9.344   3.455 -2.1602 -0.8950 -0.5226
39976SOL    HW226787   5.709   9.495   3.464  1.8738 -0.8187  0.6833
39977SOL     OW26788  12.535   3.996   3.449  0.3216  0.2517  0.2996
39977SOL    HW126789  12.612   3.996   3.506  1.2747 -0.3970 -0.9533
39977SOL    HW226790  12.560   3.943   3.374 -1.8089 -1.1099  0.4659
39978SOL     OW26791   6.087   5.467   5.690  0.3870  0.2967 -0.1323
39978SOL    HW126792   6.171   5.473   5.646 -0.4831  1.8108 -1.7463
39978SOL    HW226793   6.022   5.473   5.620 -1.1586 -3.3865  0.7520
39979SOL     OW26794   8.481   8.481   0.049  0.1736  0.7114 -0.6014
39979SOL    HW126795   8.571   8.449   0.047  1.2700  3.3856  0.5474
39979SOL    HW226796   8.482   8.560  -0.006 -0.8639  2.0262  1.1434
39980SOL     OW26797   9.931   7.708   3.593  0.2429 -0.3324 -0.4767
39980SOL    HW126798   9.923   7.762   3.514  0.3100 -1.4243 -1.2488
39980SOL    HW226799   9.995   7.754   3.647 -0.5298  0.9448 -0.6171
39981SOL     OW26800   2.838   7.138  11.195 -0.4999  0.0407 -0.0264
39981SOL    HW126801   2.747   7.145  11.224 -0.7494 -0.9307 -0.5297
39981SOL    HW226802   2.848   7.046  11.169  0.0947  0.5385 -1.7021
39982SOL     OW26803   2.637   6.638   6.740  0.3106 -0.1875 -0.0509
39982SOL    HW126804   2.552   6.679   6.724  0.7634  1.4846  1.5333
39982SOL    HW226805   2.644   6.571   6.672 -0.7559  1.9163 -2.4144
39983SOL     OW26806   9.898   7.635  10.066  0.2696  0.1282 -0.1012
39983SOL    HW126807   9.954   7.683  10.004 -0.1284  1.7833  0.7500
39983SOL    HW226808   9.959   7.589  10.123  0.7169  0.6621 -0.1418
39984SOL     OW26809   2.522  12.185   0.849  0.1863 -0.0462  0.5466
39984SOL    HW126810   2.614  12.159   0.850 -0.0639 -1.1103 -0.7557
39984SOL    HW226811   2.478  12.114   0.801 -1.3792  0.2323  1.4945
39985SOL     OW26812   6.453  12.024   7.758 -0.2522 -0.3694 -0.1625
39985SOL    HW126813   6.368  11.993   7.790 -0.3441 -1.7812 -1.6128
39985SOL    HW226814   6.514  12.001   7.827 -1.1643  1.9552  1.5601
39986SOL     OW26815   9.386  10.943  10.840  0.4442 -0.2541  0.6482
39986SOL    HW126816   9.329  11.019  10.835  2.1934  1.1656  0.9928
39986SOL    HW226817   9.332  10.870  10.811 -1.8532  0.7913  1.9838
39987SOL     OW26818   3.152   0.779   6.583 -0.1867  0.2316 -0.1526
39987SOL    HW126819   3.191   0.836   6.650 -0.0883 -0.9471  0.8270
39987SOL    HW226820   3.078   0.829   6.550 -0.7950  0.4858  1.4866
39988SOL     OW26821   8.314   2.184   0.919  0.0736  0.3415 -0.0143
39988SOL    HW126822   8.337   2.260   0.972 -1.7978  0.9324  0.0256
39988SOL    HW226823   8.395   2.134   0.911  1.3192  2.2571  0.0933
39989SOL     OW26824   8.104   0.379   8.715  0.0118  0.2869 -0.0473
39989SOL    HW126825   8.042   0.380   8.642  0.7742 -0.1377 -0.7180
39989SOL    HW226826   8.120   0.472   8.734 -0.3239  0.4007 -0.3169
39990SOL     OW26827   5.307   7.530  11.215  0.1775 -0.1331  0.0577
39990SOL    HW126828   5.265   7.605  11.258 -1.5876 -1.5996  1.0123
39990SOL    HW226829   5.372   7.570  11.156 -0.5671  2.1202  0.6543
39991SOL     OW26830   7.447   4.975   7.591 -0.2679  0.2636  0.0811
39991SOL    HW126831   7.532   5.007   7.562 -0.5683  1.4324  0.4479
39991SOL    HW226832   7.465   4.934   7.676 -0.0330  0.3062  0.0529
39992SOL     OW26833   8.950   8.427  12.423 -0.6072  0.3359  0.5334
39992SOL    HW126834   8.997   8.376  12.357 -0.4060 -0.6081  1.3933
39992SOL    HW226835   8.952   8.517  12.389 -0.8947 -0.1806 -0.9632
39993SOL     OW26836   5.198   2.642   9.828 -0.1041  0.6386 -0.5431
39993SOL    HW126837   5.138   2.680   9.891 -0.5723  0.1447 -0.6854
39993SOL    HW226838   5.285   2.661   9.863 -0.3638 -0.5954  0.8278
39994SOL     OW26839   2.108   5.718   3.715 -0.3207 -0.2848 -0.3462
39994SOL    HW126840   2.055   5.672   3.650 -1.7262  0.2168  0.3989
39994SOL    HW226841   2.196   5.721   3.677 -1.1055  0.0377 -2.2410
39995SOL     OW26842   1.962   8.145   8.850 -0.0563  0.0168 -0.1422
39995SOL    HW126843   1.913   8.193   8.783  0.8694  0.9847 -0.1540
39995SOL    HW226844   1.922   8.058   8.852 -1.7176  0.7474 -0.1930
39996SOL     OW26845  12.130   4.973  10.516  0.1291  0.4863  0.0567
39996SOL    HW126846  12.098   4.967  10.426 -0.3526  0.2442  0.2374
39996SOL    HW226847  12.063   4.928  10.568  0.3578  0.7009  0.5462
39997SOL     OW26848  11.910   4.832   3.490 -0.1197 -0.4719 -0.0210
39997SOL    HW126849  11.844   4.883   3.537 -2.4435 -0.7042 -2.7685
39997SOL    HW226850  11.865   4.752   3.463  1.7684 -1.3788 -0.6794
39998SOL     OW26851  10.454   2.413   8.217  0.4485 -0.5048  0.1084
39998SOL    HW126852  10.472   2.506   8.202  0.8148 -0.6627 -0.4987
39998SOL    HW226853  10.388   2.391   8.151  0.1094 -0.5950  0.4778
39999SOL     OW26854   0.326   3.836   7.428  0.4756 -0.5508 -0.2431
39999SOL    HW126855   0.255   3.889   7.465  0.2769 -0.7936 -0.2777
39999SOL    HW226856   0.390   3.901   7.397  0.9652 -0.3458  1.1339
40000SOL     OW26857   1.407   5.852   6.482  0.3413  0.2008  0.0425
40000SOL    HW126858   1.421   5.834   6.389  2.4391  2.4962 -0.1949
40000SOL    HW226859   1.396   5.947   6.486  2.2624  0.4180  2.2767
40001SOL     OW26860  11.225   1.835   9.368 -0.1953  0.0943  0.3461
40001SOL    HW126861  11.168   1.888   9.424 -0.4108 -0.7843  0.9894
40001SOL    HW226862  11.260   1.768   9.427 -0.4063 -0.8453 -0.5675
40002SOL     OW26863  10.202   6.033   1.029 -0.2381  0.3070 -0.1482
40002SOL    HW126864  10.150   6.012   0.951  0.0448 -0.2643 -0.1812
40002SOL    HW226865  10.278   5.976   1.024 -0.7914 -0.5895  1.1678
40003SOL     OW26866  10.915   9.140  11.811  0.2595  0.0190 -0.2314
40003SOL    HW126867  10.970   9.102  11.880 -0.2814  0.0277  0.2138
40003SOL    HW226868  10.878   9.064  11.767 -0.0868  0.0185  0.0568
40004SOL     OW26869   1.981   0.628   6.312 -0.0319  0.7181 -0.5279
40004SOL    HW126870   2.037   0.595   6.382 -0.3141  1.3628  0.0194
40004SOL    HW226871   2.038   0.634   6.236 -0.1697 -1.8460 -0.9328
40005SOL     OW26872   8.368   0.347   4.048  0.0296 -0.5965  0.3769
40005SOL    HW126873   8.440   0.400   4.014  0.7913 -1.6327  0.3114
40005SOL    HW226874   8.409   0.291   4.114 -0.5908 -1.6154 -0.0782
40006SOL     OW26875   3.927   0.870   9.253 -0.3810 -0.0253  0.4682
40006SOL    HW126876   3.984   0.798   9.225 -2.0567 -1.4038  0.4547
40006SOL    HW226877   3.981   0.948   9.241  1.8049 -1.3036  1.2488
40007SOL     OW26878  12.530   8.147   8.175 -0.0802  0.0097  0.3663
40007SOL    HW126879  12.532   8.059   8.213  0.3449 -0.1170  0.0598
40007SOL    HW226880  12.622   8.175   8.174 -0.0614 -0.0333 -0.6508
40008SOL     OW26881   6.637   3.308   6.511 -0.4755 -0.2718 -0.0578
40008SOL    HW126882   6.700   3.236   6.515 -2.3246 -1.9523  0.5721
40008SOL    HW226883   6.595   3.308   6.597 -2.0458  0.0978 -0.7844
40009SOL     OW26884   8.596   2.764   3.593  0.2818  0.2084  0.3191
40009SOL    HW126885   8.572   2.688   3.646 -0.7764  0.2152 -0.1293
40009SOL    HW226886   8.598   2.731   3.503  2.6472  0.0509  0.3573
40010SOL     OW26887   5.960   7.920   7.659 -0.8733  0.2342  0.7332
40010SOL    HW126888   6.033   7.867   7.693 -0.8187 -0.1823 -0.0170
40010SOL    HW226889   5.987   7.944   7.571 -1.1892  0.9790  0.8323
40011SOL     OW26890   7.714   9.140   3.741 -0.2396  0.0135 -0.9493
40011SOL    HW126891   7.639   9.185   3.782  0.7304  1.5775 -0.7936
40011SOL    HW226892   7.738   9.071   3.803 -0.5342  0.5598 -0.2085
40012SOL     OW26893   0.309   2.057   4.479 -0.2570  0.6078 -0.4105
40012SOL    HW126894   0.343   1.999   4.547 -0.7659  1.5330  0.6535
40012SOL    HW226895   0.386   2.085   4.430 -0.0361 -1.2697 -1.2152
40013SOL     OW26896   8.498   8.569   0.306 -0.7436  0.0981 -0.4392
40013SOL    HW126897   8.457   8.557   0.220 -1.5990  1.5502 -0.2603
40013SOL    HW226898   8.529   8.481   0.329 -1.8165 -0.6226 -1.5671
40014SOL     OW26899   2.558   4.939   5.359  0.3349  0.2647 -0.2174
40014SOL    HW126900   2.518   4.873   5.303 -0.9462  1.4597 -0.7794
40014SOL    HW226901   2.611   4.993   5.301  0.9210  0.0846  0.1382
40015SOL     OW26902   5.724  11.348   3.925 -0.1270 -0.5452  0.2168
40015SOL    HW126903   5.767  11.427   3.956  1.6806 -1.3423 -0.0942
40015SOL    HW226904   5.775  11.322   3.848 -0.4961 -2.1539  0.4809
40016SOL     OW26905   9.784   7.682   9.531 -0.1745 -0.4374 -0.4287
40016SOL    HW126906   9.769   7.751   9.596  0.7643  2.1675 -2.7598
40016SOL    HW226907   9.869   7.645   9.554  1.5006  2.3832 -1.5898
40017SOL     OW26908   0.232   9.665  10.717  0.0479  0.6541 -0.1787
40017SOL    HW126909   0.268   9.577  10.730  0.3628  0.7729 -0.2381
40017SOL    HW226910   0.306   9.717  10.686 -0.3395  0.7345 -0.9823
40018SOL     OW26911   0.377   2.680  10.627  0.4555  0.1011 -0.2141
40018SOL    HW126912   0.412   2.594  10.649 -1.4237 -0.5244  0.4980
40018SOL    HW226913   0.369   2.680  10.532 -1.3976 -1.3250 -0.1081
40019SOL     OW26914  11.380   2.245   8.559 -0.2896 -0.2546  0.1984
40019SOL    HW126915  11.442   2.227   8.629 -1.0593 -1.5710  0.5663
40019SOL    HW226916  11.420   2.205   8.481  0.5691  1.2156 -0.1638
40020SOL     OW26917   8.899  10.389  10.812 -0.5983  0.1829  0.0378
40020SOL    HW126918   8.970  10.333  10.780 -0.9139 -0.0443 -0.2630
40020SOL    HW226919   8.921  10.404  10.904 -0.1642  0.1035 -0.0514
40021SOL     OW26920   2.626   7.809   7.169 -0.0315  0.7135 -0.5305
40021SOL    HW126921   2.708   7.768   7.198 -1.3148 -1.9355 -0.4151
40021SOL    HW226922   2.570   7.807   7.247 -1.5167 -1.1707 -1.5662
40022SOL     OW26923   1.642   9.546   3.799  0.0459 -0.0322  0.4223
40022SOL    HW126924   1.624   9.452   3.791  1.3135 -0.1996 -0.7480
40022SOL    HW226925   1.641   9.578   3.709 -0.6877  1.1658  0.8309
40023SOL     OW26926   8.911   4.606  12.546  0.3120  0.4244  0.1637
40023SOL    HW126927   8.908   4.533  12.483  0.1955  0.4227  0.1717
40023SOL    HW226928   8.824   4.645  12.542  0.0109 -0.1319  0.9900
40024SOL     OW26929   6.504  11.421  11.977  0.0242 -0.9484 -0.2010
40024SOL    HW126930   6.578  11.388  11.928 -0.8693 -2.2713 -0.7095
40024SOL    HW226931   6.470  11.493  11.923  0.4871 -0.8271 -0.3299
40025SOL     OW26932   8.612  10.111   7.595 -0.8060  0.1974 -0.3313
40025SOL    HW126933   8.680  10.105   7.662 -0.6984  0.8217 -0.3753
40025SOL    HW226934   8.531  10.094   7.642 -0.8644  1.8893  0.2400
40026SOL     OW26935   6.427   3.576   3.801  0.0415 -0.2582 -0.0177
40026SOL    HW126936   6.387   3.661   3.780  2.4991  0.8710 -0.4270
40026SOL    HW226937   6.500   3.598   3.859 -0.6667 -2.3709  1.8156
40027SOL     OW26938   6.587   5.345   9.838 -0.3477 -0.0499  0.1734
40027SOL    HW126939   6.532   5.349   9.760  0.2904 -1.0165 -0.3412
40027SOL    HW226940   6.624   5.433   9.845 -2.0955  0.7049  0.6647
40028SOL     OW26941   5.486   6.089   2.489  0.3906 -0.2260  0.0819
40028SOL    HW126942   5.541   6.153   2.535  0.5457 -1.0368  1.0559
40028SOL    HW226943   5.472   6.019   2.553 -0.0895 -0.9920 -0.8420
40029SOL     OW26944   6.200  11.174  10.147 -0.4898  0.4588  0.4990
40029SOL    HW126945   6.121  11.171  10.201 -1.3659 -0.2088 -0.7696
40029SOL    HW226946   6.245  11.253  10.174 -2.5708  1.9138 -0.0597
40030SOL     OW26947   9.996   5.533   3.028 -0.0153  0.1857 -0.0588
40030SOL    HW126948  10.083   5.510   2.997 -0.3510  0.4688 -1.2335
40030SOL    HW226949   9.948   5.450   3.029  0.6406 -0.2443  1.9789
40031SOL     OW26950  10.417   0.050  10.553  0.2528  0.6070 -0.2290
40031SOL    HW126951  10.326   0.077  10.568  0.5401  2.5394 -1.6270
40031SOL    HW226952  10.410  -0.024  10.492 -0.3708  0.4487  0.0180
40032SOL     OW26953  10.201   9.459   6.340  0.2730  0.4348  0.3001
40032SOL    HW126954  10.136   9.388   6.343 -1.0798  1.5633 -0.8759
40032SOL    HW226955  10.233   9.465   6.430 -0.4070 -0.9230  0.6594
40033SOL     OW26956   8.879   3.847   3.894  0.0772 -0.5714  0.9464
40033SOL    HW126957   8.880   3.752   3.889  1.4172 -0.5427  0.0233
40033SOL    HW226958   8.967   3.873   3.866 -0.1343  0.9164  1.5827
40034SOL     OW26959   7.317   2.589   6.778 -0.5719  0.0282 -0.5535
40034SOL    HW126960   7.316   2.672   6.732 -2.0283  0.3728  0.0461
40034SOL    HW226961   7.237   2.545   6.750 -0.9486 -0.2098  0.7887
40035SOL     OW26962  11.110   9.203   2.594 -0.1221  0.3973  0.8131
40035SOL    HW126963  11.037   9.260   2.572 -1.8346 -0.2957  4.0640
40035SOL    HW226964  11.072   9.134   2.648  2.3865 -2.0882 -0.3312
40036SOL     OW26965   3.319   2.408   5.694 -0.0449 -0.5695 -0.8947
40036SOL    HW126966   3.294   2.491   5.734  0.7346 -0.7530  0.0094
40036SOL    HW226967   3.256   2.396   5.623 -0.7047  0.3639 -0.4927
40037SOL     OW26968   2.845   2.910   8.804  0.9246  0.3621 -0.2072
40037SOL    HW126969   2.768   2.948   8.848  0.8152 -1.4205  1.2715
40037SOL    HW226970   2.817   2.899   8.713 -0.5976 -0.2740  0.2963
40038SOL     OW26971   6.902   9.659   2.831 -0.2716 -0.0883 -0.1851
40038SOL    HW126972   6.947   9.683   2.912 -0.6741 -2.4512  0.8074
40038SOL    HW226973   6.929   9.569   2.814 -0.8313  0.0779 -2.2782
40039SOL     OW26974  11.257  10.987   0.628 -0.1240 -0.3820  0.1921
40039SOL    HW126975  11.290  11.057   0.685  0.3178  0.7574 -1.3751
40039SOL    HW226976  11.331  10.927   0.620  2.0944  2.3583 -3.6264
40040SOL     OW26977   7.616  11.577   4.989  0.5648 -0.3163  0.2542
40040SOL    HW126978   7.641  11.502   4.934  1.3972  0.0068  0.1895
40040SOL    HW226979   7.689  11.637   4.982  0.0231  0.3834  0.5483
40041SOL     OW26980   3.157   8.328   1.102  0.0317  0.3160 -0.0869
40041SOL    HW126981   3.139   8.302   1.192 -2.6636 -1.7947 -1.0736
40041SOL    HW226982   3.123   8.417   1.096  0.0704  0.4142  0.9372
40042SOL     OW26983   6.269   0.013   3.576 -0.4761 -0.0802  0.2899
40042SOL    HW126984   6.191  -0.040   3.595 -1.4223  0.3962 -1.9816
40042SOL    HW226985   6.236   0.087   3.525  1.5956 -0.6200 -2.0098
40043SOL     OW26986   1.989  11.616   2.204  0.2916 -0.4055 -0.5547
40043SOL    HW126987   1.994  11.695   2.259  2.0878 -0.8768  0.0309
40043SOL    HW226988   2.071  11.570   2.221 -1.0045 -2.7953 -0.3058
40044SOL     OW26989  11.963  11.392  10.184  0.2222 -0.1425 -0.0874
40044SOL    HW126990  12.041  11.444  10.205 -0.1930  1.1743 -1.6047
40044SOL    HW226991  11.982  11.357  10.097 -1.3754  1.3117 -1.0910
40045SOL     OW26992   1.669   7.227   1.384  0.4376 -0.0071 -0.1903
40045SOL    HW126993   1.697   7.218   1.293 -1.8723 -0.0209 -0.9596
40045SOL    HW226994   1.636   7.141   1.408  2.3595 -0.4078  1.1889
40046SOL     OW26995   5.377  10.314   8.411 -0.3350  0.0927  0.1046
40046SOL    HW126996   5.466  10.352   8.408 -0.6104  0.7345 -0.3253
40046SOL    HW226997   5.359  10.292   8.320 -2.0571  3.4717 -0.5460
40047SOL     OW26998   7.100   4.305   2.019 -0.0327 -0.1159  0.1366
40047SOL    HW126999   7.053   4.338   2.095  1.5559  0.3876  0.9612
40047SOL    HW227000   7.119   4.214   2.040  1.3489  0.3110  0.8831
40048SOL     OW27001   8.380   3.456   3.102 -0.7310 -0.1266  0.1621
40048SOL    HW127002   8.437   3.429   3.173  0.4702 -1.8439 -1.3737
40048SOL    HW227003   8.412   3.544   3.078  2.5705 -1.6665 -1.7621
40049SOL     OW27004   3.863   1.339   1.712 -0.0518 -0.4245 -0.2242
40049SOL    HW127005   3.812   1.377   1.784 -0.5152  0.7291 -1.1291
40049SOL    HW227006   3.932   1.289   1.756 -0.6778 -0.2421  1.0200
40050SOL     OW27007   2.625   5.197   1.442  0.1249  0.6103 -0.5363
40050SOL    HW127008   2.579   5.199   1.526 -0.1129 -0.9720 -0.6026
40050SOL    HW227009   2.718   5.205   1.466  0.0101  1.0122 -0.2027
40051SOL     OW27010   9.357   1.965  12.240  0.3932  0.3994  0.6259
40051SOL    HW127011   9.353   2.050  12.196 -0.4074  0.2324  0.3483
40051SOL    HW227012   9.439   1.966  12.289  0.8609  0.9456 -0.1563
40052SOL     OW27013   8.764   4.869   3.632  0.3060 -0.6060  0.2499
40052SOL    HW127014   8.757   4.858   3.537 -2.0102 -0.4455  0.3595
40052SOL    HW227015   8.717   4.950   3.651 -2.0131 -2.1969  1.8286
40053SOL     OW27016   1.903   9.377   2.850 -0.0758 -0.5730 -0.1870
40053SOL    HW127017   1.985   9.376   2.899 -0.1538 -0.9719 -0.0657
40053SOL    HW227018   1.930   9.380   2.759  0.1161  2.9359 -0.1559
40054SOL     OW27019   1.842   1.878   0.695  0.3438  0.1754  0.1962
40054SOL    HW127020   1.832   1.946   0.762  2.2476  1.4027 -0.6641
40054SOL    HW227021   1.918   1.907   0.643  0.3022 -1.8728 -1.1124
40055SOL     OW27022   9.533   2.870   1.490  0.0915 -0.2548  0.9763
40055SOL    HW127023   9.559   2.862   1.398 -1.5230  1.5719  0.2916
40055SOL    HW227024   9.594   2.814   1.537  0.4104 -1.9326 -1.2832
40056SOL     OW27025   8.267   0.280   1.560  0.1724 -0.0610  0.3475
40056SOL    HW127026   8.268   0.371   1.590 -0.1924 -0.5223  1.8119
40056SOL    HW227027   8.292   0.228   1.636 -1.6365 -1.3384  0.1509
40057SOL     OW27028   6.751   1.844   4.606  0.2237 -0.0778 -0.2908
40057SOL    HW127029   6.752   1.931   4.566 -1.4629  0.0126 -0.2182
40057SOL    HW227030   6.805   1.852   4.685  2.0195  0.2483 -1.4918
40058SOL     OW27031   2.228   6.774  10.392  0.7317 -0.5372 -0.3155
40058SOL    HW127032   2.141   6.771  10.430  0.0915 -1.0527 -1.7407
40058SOL    HW227033   2.272   6.846  10.438 -1.1902  1.2493 -1.1114
40059SOL     OW27034   0.189   2.087   6.054 -0.4582 -0.2335  0.0901
40059SOL    HW127035   0.258   2.058   5.994 -0.8671 -1.3092  0.1205
40059SOL    HW227036   0.201   2.182   6.059 -0.6879 -0.0341 -2.0496
40060SOL     OW27037   8.634   3.542   5.471  0.5980  0.4705 -0.4268
40060SOL    HW127038   8.683   3.464   5.445  0.0439 -0.0483  0.0820
40060SOL    HW227039   8.544   3.526   5.443 -0.3819 -0.7692  2.9949
40061SOL     OW27040   4.943   4.975  12.220 -0.4165 -0.0061 -0.0235
40061SOL    HW127041   4.950   4.979  12.315  2.4948  2.1226 -0.1670
40061SOL    HW227042   4.904   4.890  12.202 -2.8051  0.2584  3.0605
40062SOL     OW27043  12.087   7.809   9.640 -0.6591  0.5456  0.0680
40062SOL    HW127044  12.038   7.761   9.573  0.1462  1.1162 -0.9712
40062SOL    HW227045  12.100   7.896   9.601  0.9595  0.4788  0.4068
40063SOL     OW27046   9.824   4.716   3.497  0.4630 -0.3656  0.0683
40063SOL    HW127047   9.739   4.688   3.465 -0.7358  1.8112  1.1476
40063SOL    HW227048   9.869   4.749   3.420  0.0473 -0.8282 -0.3806
40064SOL     OW27049   4.066  10.919   6.122 -1.0888 -0.2274 -0.4487
40064SOL    HW127050   4.084  10.826   6.114 -1.4682 -0.4563  1.0717
40064SOL    HW227051   4.049  10.948   6.033  0.4385 -1.3025 -1.1369
40065SOL     OW27052   8.688   9.222   4.812  0.2663 -0.2052  0.4114
40065SOL    HW127053   8.738   9.188   4.738 -0.3202 -0.4588  0.1239
40065SOL    HW227054   8.600   9.186   4.800  0.0892 -0.0029  1.0673
40066SOL     OW27055   4.829   8.201   1.406 -0.1167  0.1366  0.4696
40066SOL    HW127056   4.791   8.128   1.455 -0.5141 -0.2351 -0.3747
40066SOL    HW227057   4.914   8.170   1.378  1.3948  1.3406  3.2707
40067SOL     OW27058   8.660   5.821   0.180  0.1952 -0.6336  0.0542
40067SOL    HW127059   8.671   5.846   0.088  0.2536  0.1459  0.2656
40067SOL    HW227060   8.747   5.789   0.206  0.0905 -1.1904 -0.2488
40068SOL     OW27061   8.090   0.224   5.116 -0.0510 -0.1094  0.0935
40068SOL    HW127062   8.114   0.158   5.050 -1.4664 -1.0759  0.4959
40068SOL    HW227063   8.014   0.187   5.160  0.1986  1.0191  1.5507
40069SOL     OW27064   8.768   8.594  10.906 -0.4861  0.2183  0.1816
40069SOL    HW127065   8.732   8.681  10.925 -2.0961 -0.5823  1.0189
40069SOL    HW227066   8.691   8.539  10.891  0.4574 -1.2526  0.5090
40070SOL     OW27067   4.663  10.260   2.754 -0.4604 -0.5677  0.3280
40070SOL    HW127068   4.703  10.297   2.676  0.5804  0.7962  1.4575
40070SOL    HW227069   4.569  10.270   2.739 -0.2392  1.2616 -0.0375
40071SOL     OW27070   1.736   0.272   9.378  0.2492  0.7931 -0.6237
40071SOL    HW127071   1.677   0.340   9.346 -0.6955 -0.2890 -1.2760
40071SOL    HW227072   1.789   0.249   9.301  0.4362  0.6598 -0.4558
40072SOL     OW27073   6.153   7.354  11.985  0.0067  0.2386  0.0679
40072SOL    HW127074   6.088   7.396  12.041  0.9308  2.0929 -0.1986
40072SOL    HW227075   6.230   7.411  11.990  1.3121 -1.3976 -0.3692
40073SOL     OW27076   0.992   1.487   0.019  0.0695 -0.2068 -0.6064
40073SOL    HW127077   1.082   1.501  -0.010  0.0259 -1.7431 -1.6257
40073SOL    HW227078   0.991   1.515   0.110  1.0562  1.7340 -1.1411
40074SOL     OW27079   2.125  12.018   5.472 -0.0378 -0.2072  0.9005
40074SOL    HW127080   2.179  12.093   5.497  0.0862 -0.5211  1.5811
40074SOL    HW227081   2.172  11.979   5.398  0.9970 -0.8180  1.8534
40075SOL     OW27082   2.566   2.987  11.100 -0.4114 -0.2875  0.1098
40075SOL    HW127083   2.581   2.914  11.040 -0.1984 -0.4848  0.4048
40075SOL    HW227084   2.481   2.968  11.139  0.0376 -0.8399  0.8448
40076SOL     OW27085   3.611   7.847   8.808  0.4869 -0.4045  0.0368
40076SOL    HW127086   3.556   7.769   8.801  0.7632 -0.5089 -1.3586
40076SOL    HW227087   3.687   7.819   8.859  0.3448 -0.9031 -0.0267
40077SOL     OW27088   5.244  10.738   8.599 -0.6572 -0.1143 -0.0065
40077SOL    HW127089   5.234  10.795   8.675  0.2773 -0.2196  0.2087
40077SOL    HW227090   5.155  10.729   8.564 -1.0166  0.3735  0.7478
40078SOL     OW27091  10.841   6.920   3.386 -0.3462 -0.1160  0.0348
40078SOL    HW127092  10.776   6.978   3.347 -2.7270 -1.4520  1.7102
40078SOL    HW227093  10.795   6.837   3.397  2.4326 -1.9317 -0.8730
40079SOL     OW27094   3.781   9.442   6.155  0.1473  0.0624 -0.1647
40079SOL    HW127095   3.872   9.451   6.125  0.1883  1.1011  0.2145
40079SOL    HW227096   3.786   9.449   6.250 -0.5028  2.1073 -0.2378
40080SOL     OW27097   9.508   0.910   3.061  0.1691  0.4410 -0.6444
40080SOL    HW127098   9.569   0.866   3.002  0.8738  0.7356 -0.1473
40080SOL    HW227099   9.427   0.859   3.054  1.4643 -2.1297  1.3257
40081SOL     OW27100   7.663  11.515   0.411 -0.5441  0.1196  0.0069
40081SOL    HW127101   7.737  11.477   0.458 -1.9144 -0.6223  1.6567
40081SOL    HW227102   7.613  11.439   0.381 -0.8199  0.6180 -0.8151
40082SOL     OW27103   7.433  11.488   6.680 -0.1884  0.5395 -0.0927
40082SOL    HW127104   7.345  11.518   6.704 -0.3028  0.3060 -0.2136
40082SOL    HW227105   7.492  11.542   6.732 -0.4493 -0.6987  1.5668
40083SOL     OW27106   8.834   7.019   8.452  0.1624 -0.7487  0.0296
40083SOL    HW127107   8.844   7.003   8.358 -4.8628 -1.8549 -0.6078
40083SOL    HW227108   8.796   7.107   8.457 -0.5120 -1.0837  0.9232
40084SOL     OW27109   9.621   5.327   0.781  0.3086 -0.6337 -0.3158
40084SOL    HW127110   9.536   5.325   0.825  0.5421 -1.4701  0.1319
40084SOL    HW227111   9.601   5.312   0.689 -0.0151 -1.0347 -0.1834
40085SOL     OW27112  10.634   7.644   9.907  0.2514  0.5261 -1.0671
40085SOL    HW127113  10.672   7.557   9.892 -2.3789 -1.1371  0.9190
40085SOL    HW227114  10.601   7.671   9.822  3.3831  0.8928 -2.2897
40086SOL     OW27115   3.777   7.502   5.939  0.2046 -0.1754 -0.5311
40086SOL    HW127116   3.730   7.447   6.001  1.5638  2.0029  2.7188
40086SOL    HW227117   3.710   7.528   5.875 -1.8500 -0.8741  1.2097
40087SOL     OW27118   9.163   6.452   4.555  0.3317 -0.0244  0.0700
40087SOL    HW127119   9.092   6.507   4.521 -0.6937 -1.3152  0.0146
40087SOL    HW227120   9.205   6.506   4.622 -0.9024  0.6967  0.3131
40088SOL     OW27121  10.148   3.467   6.965 -0.1907  0.4414 -0.0543
40088SOL    HW127122  10.160   3.380   7.002 -1.9746  0.6419  1.0902
40088SOL    HW227123  10.094   3.513   7.029 -1.3738  1.5729 -1.7940
40089SOL     OW27124   1.912   9.687   6.834  0.2503  0.6851  0.1353
40089SOL    HW127125   1.830   9.688   6.785 -0.0039  0.8091  0.5574
40089SOL    HW227126   1.906   9.609   6.889  0.2180  0.9374  0.4929
40090SOL     OW27127   2.493   7.244   5.351 -0.1572  0.0587  0.5795
40090SOL    HW127128   2.578   7.204   5.368  2.4139  2.9198 -3.7599
40090SOL    HW227129   2.441   7.173   5.312 -0.5046 -2.0887  4.4563
40091SOL     OW27130   6.519   9.305  11.053 -0.1291  0.2801 -0.3834
40091SOL    HW127131   6.564   9.290  11.136  1.5807 -2.5404 -1.7111
40091SOL    HW227132   6.528   9.399  11.038  1.3504  0.5217  1.6010
40092SOL     OW27133   5.944  10.025   4.900  0.1916  0.2389 -0.3130
40092SOL    HW127134   6.023  10.001   4.852  0.0320  0.0725 -0.4903
40092SOL    HW227135   5.905  10.096   4.849  0.1899  0.2781 -0.2580
40093SOL     OW27136  10.263  11.352   5.127 -0.2107  0.0292  0.3245
40093SOL    HW127137  10.340  11.403   5.150  1.5763 -2.2326 -0.2073
40093SOL    HW227138  10.189  11.410   5.145  1.5111  1.8356  2.1545
40094SOL     OW27139   0.493   2.821   7.461  0.0362  0.4803 -0.6457
40094SOL    HW127140   0.463   2.864   7.541  0.3013  0.4592 -0.5349
40094SOL    HW227141   0.445   2.738   7.460 -0.0332  0.5180 -0.5556
40095SOL     OW27142   8.773   5.943   8.931  0.0501 -0.2709 -0.4972
40095SOL    HW127143   8.840   5.953   8.863  1.2922 -1.1403  0.5290
40095SOL    HW227144   8.823   5.919   9.009 -1.4766 -0.9752  0.3070
40096SOL     OW27145   6.061   2.207  10.423 -0.5167  0.4266 -0.5901
40096SOL    HW127146   6.040   2.285  10.474 -0.8516 -1.1281  1.8613
40096SOL    HW227147   5.984   2.151  10.433  0.7987 -1.3579  0.1997
40097SOL     OW27148   5.904  11.224   4.531 -0.4960  0.3460 -0.0056
40097SOL    HW127149   5.851  11.210   4.453  0.2957  0.5199 -0.5903
40097SOL    HW227150   5.923  11.317   4.531  1.1994  0.0443 -0.7622
40098SOL     OW27151   8.822   0.882   1.518  0.2599 -0.5298  0.1531
40098SOL    HW127152   8.741   0.889   1.568 -0.1588 -0.6342 -0.4976
40098SOL    HW227153   8.793   0.880   1.427  1.0622  0.6353 -0.1402
40099SOL     OW27154   2.030   0.338   8.365 -0.1327 -0.6038  0.6014
40099SOL    HW127155   2.115   0.306   8.395  1.0601  1.8456  0.0812
40099SOL    HW227156   2.022   0.303   8.276  0.9593  0.1714  0.1765
40100SOL     OW27157   4.734  11.586  11.693 -0.3397 -0.0773  0.2016
40100SOL    HW127158   4.728  11.679  11.670 -0.1010 -0.2010 -0.3761
40100SOL    HW227159   4.828  11.568  11.697 -0.3735 -0.6354 -1.1365
40101SOL     OW27160   7.469  10.282   6.185 -0.4657  0.1977  0.4667
40101SOL    HW127161   7.399  10.222   6.159 -0.3518  0.0854  0.4188
40101SOL    HW227162   7.528  10.229   6.239  0.1324  0.0148 -0.3507
40102SOL     OW27163   2.647  10.172   7.555 -0.3103  0.1677 -0.0765
40102SOL    HW127164   2.692  10.199   7.476  1.8657  0.1217  1.0774
40102SOL    HW227165   2.666  10.242   7.619 -2.1774  0.3151  0.3945
40103SOL     OW27166   4.617   3.246   8.047  0.3483  0.5139 -0.6236
40103SOL    HW127167   4.693   3.190   8.064 -0.3548 -0.5096 -0.7119
40103SOL    HW227168   4.612   3.251   7.951  0.7539  1.2291 -0.6119
40104SOL     OW27169   5.801  10.597  12.370 -0.0010  0.1536 -0.4337
40104SOL    HW127170   5.816  10.614  12.462 -1.4943 -2.5220  0.4281
40104SOL    HW227171   5.871  10.537  12.344  1.6096  2.4138 -1.6995
40105SOL     OW27172   9.133  10.759   9.941  0.1252 -0.2950  0.5401
40105SOL    HW127173   9.081  10.772  10.021  0.7125  1.7343  0.6541
40105SOL    HW227174   9.167  10.846   9.921  0.3800 -0.8515 -1.6743
40106SOL     OW27175   6.492  10.082  10.158  0.3386  0.1251 -0.4362
40106SOL    HW127176   6.550  10.155  10.139 -1.3663  2.0571  1.2588
40106SOL    HW227177   6.474  10.089  10.252 -0.9929 -1.6457 -0.4937
40107SOL     OW27178   9.911  11.173   2.834  0.9979 -0.2132  0.1251
40107SOL    HW127179   9.924  11.214   2.920  1.2719  2.0821 -0.9525
40107SOL    HW227180   9.816  11.180   2.819  0.6959 -2.0872  0.8852
40108SOL     OW27181   6.835   0.019  10.128  0.4018  0.0546 -0.4030
40108SOL    HW127182   6.742   0.038  10.139  0.7437  1.5814  0.0800
40108SOL    HW227183   6.856  -0.042  10.199 -0.4904 -1.3238 -1.2926
40109SOL     OW27184   0.255   4.473   9.525  0.0444 -0.3898  0.0895
40109SOL    HW127185   0.163   4.499   9.514  0.5643  0.8382 -1.7640
40109SOL    HW227186   0.273   4.489   9.618 -0.7299  2.5120 -0.1746
40110SOL     OW27187   6.434   1.076   0.790  0.4299  0.2183 -0.4083
40110SOL    HW127188   6.382   1.055   0.867  0.7320 -0.9972 -0.5109
40110SOL    HW227189   6.372   1.077   0.718  0.2881  0.4715 -0.2844
40111SOL     OW27190  10.423   1.385   7.276  0.2421 -0.3109 -0.5185
40111SOL    HW127191  10.399   1.406   7.186  1.8318  0.3090 -0.8287
40111SOL    HW227192  10.461   1.466   7.310  0.8242 -0.9069  0.2860
40112SOL     OW27193  12.082   4.442   3.225  0.4527 -0.1315  0.1241
40112SOL    HW127194  11.987   4.454   3.228  0.3267 -1.1452  0.5814
40112SOL    HW227195  12.095   4.349   3.244  1.6015  0.2110  1.1125
40113SOL     OW27196   4.950   3.132   8.475 -0.6150 -0.1822 -0.6535
40113SOL    HW127197   4.887   3.203   8.462 -0.7508 -0.0380  0.6981
40113SOL    HW227198   5.005   3.161   8.548  0.5233 -0.6584 -1.2884
40114SOL     OW27199   3.260   0.209   6.818 -0.5769 -0.0243 -0.3782
40114SOL    HW127200   3.183   0.214   6.873  0.4173 -4.4116  1.8871
40114SOL    HW227201   3.227   0.222   6.729 -2.8821  3.4475  0.8032
40115SOL     OW27202   5.951   0.877   4.446  0.0099 -0.3180  0.0496
40115SOL    HW127203   5.862   0.841   4.447 -0.3513  0.5486 -0.3629
40115SOL    HW227204   6.007   0.802   4.422 -0.6371 -0.8004  0.0294
40116SOL     OW27205   7.311   7.440   4.363 -0.1652 -0.0598 -0.1580
40116SOL    HW127206   7.232   7.478   4.401 -0.9261 -1.2313 -0.5262
40116SOL    HW227207   7.347   7.384   4.432 -1.0213 -1.4346 -0.7811
40117SOL     OW27208   6.040   1.066  10.502 -0.1435  0.1649  0.1014
40117SOL    HW127209   6.036   1.100  10.591 -1.3541  0.7220 -0.1559
40117SOL    HW227210   6.092   1.131  10.454  1.8986 -0.9117  0.7008
40118SOL     OW27211  10.447   2.412   3.110 -0.1072 -0.4883  0.1284
40118SOL    HW127212  10.542   2.403   3.116 -0.0405  0.6289  1.5019
40118SOL    HW227213  10.432   2.507   3.111 -1.2663 -0.6553  1.0031
40119SOL     OW27214   9.633   9.939  12.033 -0.6871  0.5022  0.2040
40119SOL    HW127215   9.600   9.975  12.115  0.4368  1.2664  0.3552
40119SOL    HW227216   9.615  10.008  11.969  0.3767  0.8469  0.2527
40120SOL     OW27217   2.718   3.203   0.103 -0.2540 -0.6538  0.1260
40120SOL    HW127218   2.713   3.249   0.187  0.9862  0.5927 -0.4433
40120SOL    HW227219   2.637   3.152   0.099 -1.1146  0.5367  1.3281
40121SOL     OW27220   4.715  11.046  12.217  0.5694 -0.1659 -0.5089
40121SOL    HW127221   4.739  11.113  12.153  2.0295  0.2675  0.4308
40121SOL    HW227222   4.682  11.096  12.292 -0.0302 -0.5954 -0.4860
40122SOL     OW27223  10.076   4.258   6.132 -0.0587  0.3155 -0.4051
40122SOL    HW127224   9.996   4.250   6.185  0.7142 -0.0831  0.7538
40122SOL    HW227225  10.112   4.343   6.156  1.0755 -0.4852  0.8969
40123SOL     OW27226   0.527   3.972   8.930  0.7451 -0.0401 -0.0791
40123SOL    HW127227   0.577   3.891   8.936  0.6938 -0.0467  0.2558
40123SOL    HW227228   0.438   3.948   8.956  0.4022 -0.1711 -1.3062
40124SOL     OW27229   4.120  11.444  10.883  0.1181 -0.0535  0.0767
40124SOL    HW127230   4.192  11.501  10.912  1.8153 -1.3744 -1.2862
40124SOL    HW227231   4.080  11.492  10.811 -0.0476  0.4633  0.5012
40125SOL     OW27232  10.718   7.047   1.123 -0.2849  0.0730 -0.0664
40125SOL    HW127233  10.687   6.967   1.167 -0.6010  0.9697  1.4035
40125SOL    HW227234  10.768   7.015   1.048 -0.6619 -1.5046  0.3161
40126SOL     OW27235   2.640   6.315  12.377  0.5430  0.5014 -0.6355
40126SOL    HW127236   2.720   6.281  12.418 -0.0923 -0.8449 -0.4545
40126SOL    HW227237   2.596   6.237  12.343 -1.5120  0.9977  0.7404
40127SOL     OW27238   1.927   4.434   6.581 -0.2855 -0.7162  0.0959
40127SOL    HW127239   2.012   4.400   6.552  0.2143  0.6283 -0.1177
40127SOL    HW227240   1.937   4.529   6.576 -2.2731 -0.5126 -1.3574
40128SOL     OW27241   3.237   4.519   2.462  0.6573  0.2446 -0.2728
40128SOL    HW127242   3.264   4.610   2.451 -0.7830  0.6317 -0.7311
40128SOL    HW227243   3.198   4.515   2.549  0.5117  0.1150 -0.3428
40129SOL     OW27244   9.130   8.526   0.793 -0.5047  0.4257  0.5829
40129SOL    HW127245   9.195   8.516   0.862 -0.9214  0.6407  1.0099
40129SOL    HW227246   9.151   8.458   0.729  0.5163  0.8864  0.4192
40130SOL     OW27247  11.878   1.863   2.357 -0.0120 -0.0166 -0.6992
40130SOL    HW127248  11.937   1.799   2.397 -0.1943  0.5046  0.4318
40130SOL    HW227249  11.920   1.884   2.274  1.8473  0.9353  0.4058
40131SOL     OW27250   0.057   4.852  10.003  0.9316 -0.4734 -0.1385
40131SOL    HW127251   0.081   4.944   9.995 -2.2721  0.8308  2.6691
40131SOL    HW227252   0.065   4.833  10.097  0.6232 -2.7827 -0.5212
40132SOL     OW27253   4.002   0.078   8.585  0.2990  0.5010  0.2963
40132SOL    HW127254   4.046  -0.003   8.560 -0.1554  0.5614 -0.7727
40132SOL    HW227255   4.071   0.130   8.627  0.1145 -1.2030  2.9192
40133SOL     OW27256   1.362  10.719  12.333 -0.0361 -0.3718  0.3940
40133SOL    HW127257   1.398  10.805  12.353  2.5597 -0.6429 -2.3950
40133SOL    HW227258   1.424  10.657  12.371 -0.1441 -0.9366 -0.3178
40134SOL     OW27259   8.047   2.734   9.626  0.3741  0.0788 -0.0723
40134SOL    HW127260   8.009   2.776   9.548 -0.8032 -1.0879 -0.1756
40134SOL    HW227261   8.084   2.652   9.593 -0.5171 -0.6325  0.6362
40135SOL     OW27262  11.192   8.078   0.131  0.4136  0.6485  0.2331
40135SOL    HW127263  11.173   7.999   0.080  1.4153 -0.7342  1.8711
40135SOL    HW227264  11.265   8.119   0.085  1.4134 -0.6627  0.5955
40136SOL     OW27265   8.984  12.320  12.300 -0.3142  0.5407 -0.0015
40136SOL    HW127266   8.930  12.316  12.378  1.0379 -1.2070  0.9298
40136SOL    HW227267   9.061  12.370  12.326 -1.2450  2.7287 -1.2158
40137SOL     OW27268   8.068   5.347  10.657 -0.1677 -0.3231  0.0469
40137SOL    HW127269   8.065   5.398  10.577 -0.2481  0.7736  0.7325
40137SOL    HW227270   8.153   5.368  10.696  1.2841 -3.1986 -1.2198
40138SOL     OW27271   5.841   6.766  11.369  0.7918 -0.3106  1.4374
40138SOL    HW127272   5.836   6.699  11.438 -0.5363 -0.5300  1.1485
40138SOL    HW227273   5.767   6.824  11.387 -0.0700 -0.8282 -0.2613
40139SOL     OW27274   2.521   1.956  12.244 -0.2415  0.3267  0.0366
40139SOL    HW127275   2.516   2.043  12.285  0.6802 -0.0046  0.8993
40139SOL    HW227276   2.609   1.952  12.207  0.2697 -0.7730  1.2991
40140SOL     OW27277  10.326  10.275  11.923  0.0085  0.8791 -0.8013
40140SOL    HW127278  10.416  10.309  11.924  1.0534 -1.4393 -3.1031
40140SOL    HW227279  10.326  10.204  11.987  0.4334 -0.3520 -2.1214
40141SOL     OW27280   5.361   3.189   0.069  0.4137  0.4430 -0.5354
40141SOL    HW127281   5.436   3.187   0.011  1.6071 -0.5446  0.9638
40141SOL    HW227282   5.314   3.108   0.050  0.6494  0.2555 -0.3236
40142SOL     OW27283   4.881   7.508   5.572  0.5996 -0.3714 -0.7384
40142SOL    HW127284   4.907   7.450   5.500  1.3207 -0.4682 -0.4070
40142SOL    HW227285   4.958   7.563   5.587 -0.1069  0.7632 -1.1157
40143SOL     OW27286  11.605   6.160   1.878  0.4753 -0.2642  0.0647
40143SOL    HW127287  11.571   6.147   1.967  0.5393 -0.1791  0.1017
40143SOL    HW227288  11.598   6.074   1.837  0.3404 -0.2782  0.1155
40144SOL     OW27289   1.824   0.556   5.010  0.2528  0.4777 -0.0599
40144SOL    HW127290   1.795   0.465   5.013 -1.3335  0.9085 -0.9745
40144SOL    HW227291   1.771   0.600   5.078 -0.0911  0.9815 -0.6423
40145SOL     OW27292   5.494   0.822  11.273 -0.1152 -0.4083  0.0286
40145SOL    HW127293   5.557   0.780  11.215 -1.7014 -0.8240 -1.4628
40145SOL    HW227294   5.517   0.915  11.269  0.6477 -0.5968 -0.1553
40146SOL     OW27295   3.698   4.583  10.895 -0.3151  0.3831 -0.2778
40146SOL    HW127296   3.653   4.514  10.943 -0.7142  1.0832  0.3680
40146SOL    HW227297   3.768   4.611  10.952 -0.8099  1.2404 -0.0784
40147SOL     OW27298  10.270   3.188   3.631 -0.4759  0.1444 -0.3744
40147SOL    HW127299  10.190   3.150   3.668 -0.0613  0.2935  0.6977
40147SOL    HW227300  10.258   3.282   3.638 -0.0916  0.1642  0.0471
40148SOL     OW27301   5.268   1.293   9.001  0.4204  0.1616 -0.3286
40148SOL    HW127302   5.241   1.271   9.091  2.0581 -2.1056 -0.2822
40148SOL    HW227303   5.353   1.335   9.012 -0.4576  2.1583 -0.7510
40149SOL     OW27304  10.354   3.613   0.856 -0.4375 -0.4966  0.2160
40149SOL    HW127305  10.378   3.679   0.921  2.8306 -1.9167  0.6454
40149SOL    HW227306  10.279   3.567   0.895 -2.0895  2.1230  0.3843
40150SOL     OW27307   2.231   5.372   0.959 -0.5316  0.1704  0.4455
40150SOL    HW127308   2.157   5.425   0.930 -1.7997 -1.1665  1.0413
40150SOL    HW227309   2.267   5.419   1.034 -1.6457  0.2276  0.9778
40151SOL     OW27310   2.678   5.312  11.623 -0.3825  0.0750 -0.6846
40151SOL    HW127311   2.761   5.323  11.669 -1.8080  1.7548  1.7048
40151SOL    HW227312   2.665   5.217  11.621  0.9186 -0.1504  0.1487
40152SOL     OW27313   6.377   7.158  12.367 -0.2092  0.1534  0.3199
40152SOL    HW127314   6.408   7.179  12.279 -2.2529  0.1969 -0.4474
40152SOL    HW227315   6.309   7.223  12.384  0.4456  0.4208  2.1376
40153SOL     OW27316   6.268   8.144   4.655 -0.2713 -0.1197 -0.0135
40153SOL    HW127317   6.279   8.239   4.668 -0.6875 -0.1256  0.3954
40153SOL    HW227318   6.266   8.133   4.560 -1.2815  0.4068 -0.0671
40154SOL     OW27319   2.545   1.148   3.880 -0.1765 -0.3527 -0.2440
40154SOL    HW127320   2.587   1.068   3.849  1.7064  0.7011 -0.5710
40154SOL    HW227321   2.538   1.204   3.803  1.4889  1.0057  0.5301
40155SOL     OW27322   8.891   9.692   5.419 -0.1996  0.2623 -0.1674
40155SOL    HW127323   8.938   9.666   5.340  0.4802  0.0893  0.2784
40155SOL    HW227324   8.827   9.623   5.433  0.2879 -0.1714 -0.0688
40156SOL     OW27325   7.840   8.199   8.935 -0.4595 -0.3511 -0.3202
40156SOL    HW127326   7.882   8.282   8.913  1.3075 -1.2076 -0.2898
40156SOL    HW227327   7.873   8.137   8.870 -1.5568 -1.1107 -0.1858
40157SOL     OW27328   8.064   5.200   2.141 -0.0045  0.2527  0.3483
40157SOL    HW127329   7.989   5.145   2.160  0.4271  0.2666  2.3222
40157SOL    HW227330   8.100   5.165   2.060 -1.0435 -0.9492  0.3872
40158SOL     OW27331  12.400   0.735  10.144  0.0349 -0.3324  0.0998
40158SOL    HW127332  12.357   0.668  10.091 -1.8003  1.3912 -0.7051
40158SOL    HW227333  12.487   0.744  10.106  0.0433 -1.6918 -0.2518
40159SOL     OW27334  11.647   3.637   0.756 -0.3692  0.2425 -0.4882
40159SOL    HW127335  11.621   3.628   0.848 -1.0882  0.6145 -0.6474
40159SOL    HW227336  11.643   3.731   0.739  1.5737  0.3770 -0.3958
40160SOL     OW27337   4.111   9.946   9.845  0.1908 -0.1001 -0.4806
40160SOL    HW127338   4.108   9.863   9.797 -0.5148 -1.0457  1.1121
40160SOL    HW227339   4.112   9.920   9.937  0.3740  1.6678  0.0493
40161SOL     OW27340   7.149   6.558   4.706  0.0054 -0.4669 -0.0353
40161SOL    HW127341   7.073   6.529   4.757  0.1787  2.6317  2.2614
40161SOL    HW227342   7.224   6.540   4.763  0.5550  0.1125 -0.5665
40162SOL     OW27343  10.289   2.018  11.494 -0.2420 -0.3985  0.3507
40162SOL    HW127344  10.345   1.942  11.478 -1.5059 -1.4372  0.6556
40162SOL    HW227345  10.289   2.028  11.589 -0.3865 -0.2777  0.3393
40163SOL     OW27346   3.794   4.412   6.222 -0.1275  0.1423 -0.0037
40163SOL    HW127347   3.883   4.392   6.250  0.2873  1.3029 -0.4146
40163SOL    HW227348   3.803   4.490   6.167 -1.4998  0.8547  0.7151
40164SOL     OW27349   9.059   8.971   3.805 -0.0643  0.1163 -0.3481
40164SOL    HW127350   9.144   8.979   3.848  0.5319 -2.0268 -0.9933
40164SOL    HW227351   9.006   8.919   3.864 -1.7229  3.0511  0.9879
40165SOL     OW27352   7.456   7.215   6.263  0.1729  0.0441  0.0361
40165SOL    HW127353   7.477   7.299   6.304  1.3839  0.0481 -0.5246
40165SOL    HW227354   7.482   7.227   6.171  1.9241 -1.4377  0.2796
40166SOL     OW27355   3.735   7.392   3.174 -0.0790 -0.0121 -0.4902
40166SOL    HW127356   3.772   7.438   3.249  1.5432 -0.0417 -1.2272
40166SOL    HW227357   3.656   7.441   3.152  0.3883  1.0528  0.1440
40167SOL     OW27358   5.907   9.839   3.505  0.2600 -0.1836  0.2301
40167SOL    HW127359   5.929   9.916   3.452 -1.9500 -0.8969 -1.8929
40167SOL    HW227360   5.988   9.787   3.506  0.9398  0.8054 -0.7245
40168SOL     OW27361   7.298   2.431   9.312  0.8153 -0.3474  0.0667
40168SOL    HW127362   7.363   2.415   9.381 -0.1249 -2.3572  0.5688
40168SOL    HW227363   7.218   2.390   9.345 -0.2066  0.4416 -1.3573
40169SOL     OW27364   3.849   7.147   7.404 -0.5446 -0.1985  0.6291
40169SOL    HW127365   3.794   7.169   7.479  0.7518 -1.0650  1.8850
40169SOL    HW227366   3.883   7.231   7.375 -2.7670  0.4171 -0.4366
40170SOL     OW27367  12.138   5.477   0.378  0.5671 -0.3428  0.1072
40170SOL    HW127368  12.210   5.449   0.322  0.6330 -0.5740  0.3069
40170SOL    HW227369  12.180   5.508   0.458  0.7137  2.9201 -1.1007
40171SOL     OW27370   4.094  10.807  11.686  0.4112  0.4914  0.3459
40171SOL    HW127371   4.179  10.791  11.644 -0.5164  2.0983 -2.3798
40171SOL    HW227372   4.092  10.901  11.702 -0.9155  0.5065  0.2167
40172SOL     OW27373   5.973  10.300   3.470  0.2475 -0.2659  0.3452
40172SOL    HW127374   5.952  10.307   3.563  2.3676  0.8617  0.7995
40172SOL    HW227375   6.021  10.218   3.462  1.6870  0.5270  0.6209
40173SOL     OW27376   2.733   6.319   4.522 -0.1415  0.4634  0.5927
40173SOL    HW127377   2.810   6.346   4.571 -0.8662 -0.1761  2.1738
40173SOL    HW227378   2.661   6.368   4.562 -0.6288  0.6986 -0.5391
40174SOL     OW27379  10.163   5.133  11.817  0.0678  0.2446  0.4864
40174SOL    HW127380  10.228   5.074  11.856 -1.1229 -1.3732  0.0947
40174SOL    HW227381  10.169   5.213  11.870  0.5042 -0.8400  2.1506
40175SOL     OW27382   7.096  11.452   0.554 -0.1162 -0.0373 -0.3417
40175SOL    HW127383   7.082  11.360   0.534 -0.7926  0.0619 -0.3422
40175SOL    HW227384   7.166  11.452   0.619 -0.7670 -0.6039  0.3697
40176SOL     OW27385   7.319   7.502   5.688 -0.0671  0.3318  0.3170
40176SOL    HW127386   7.340   7.497   5.781 -1.3700  0.1398  0.6179
40176SOL    HW227387   7.256   7.573   5.681 -0.8317 -0.3817 -0.2477
40177SOL     OW27388   1.283   8.052  10.061  0.2323 -0.3374 -0.3734
40177SOL    HW127389   1.319   8.062   9.972  0.6979 -1.9478 -0.4093
40177SOL    HW227390   1.346   7.994  10.105  0.1483  0.6580  1.1103
40178SOL     OW27391   6.662  10.322   6.010  0.0149  0.1079  0.4056
40178SOL    HW127392   6.697  10.367   6.087 -0.5573  0.0718  0.6846
40178SOL    HW227393   6.733  10.263   5.983  0.5788  0.8062  0.3331
40179SOL     OW27394   6.406   3.957   0.657  0.3984 -0.0352  0.4836
40179SOL    HW127395   6.453   3.976   0.576  0.2054 -0.9436  0.1446
40179SOL    HW227396   6.472   3.966   0.725  0.9415 -0.7115  0.0693
40180SOL     OW27397  12.456   1.710   3.678 -0.3861  0.2267  0.0572
40180SOL    HW127398  12.488   1.621   3.691  0.5311  0.5969  0.4065
40180SOL    HW227399  12.370   1.699   3.636 -1.2783 -0.8735  2.0594
40181SOL     OW27400   6.902   1.774   9.495  0.0640 -0.9787 -0.0131
40181SOL    HW127401   6.899   1.820   9.411 -0.0206 -0.3273  0.3472
40181SOL    HW227402   6.833   1.814   9.547  0.5724 -0.9054  0.6131
40182SOL     OW27403  10.461   8.736  10.754 -0.2076 -0.0799  0.1191
40182SOL    HW127404  10.466   8.796  10.828  0.4747 -0.1829  0.1718
40182SOL    HW227405  10.538   8.758  10.700 -0.2842 -0.4976 -0.1688
40183SOL     OW27406   2.201   2.901   7.845 -0.0973 -0.2628 -0.4008
40183SOL    HW127407   2.199   2.996   7.834 -1.1028 -0.2582 -0.3004
40183SOL    HW227408   2.109   2.875   7.843  0.1470 -1.1935 -0.0711
40184SOL     OW27409  12.471   4.844  11.581  0.3064 -0.0446 -0.1328
40184SOL    HW127410  12.402   4.897  11.621  0.0010 -0.2147 -0.4240
40184SOL    HW227411  12.456   4.756  11.617 -1.3033 -0.6906 -2.2037
40185SOL     OW27412   6.349   4.591   5.475 -0.5204  0.3128 -0.2749
40185SOL    HW127413   6.357   4.506   5.518 -0.7258  0.8743  0.9099
40185SOL    HW227414   6.433   4.635   5.492  0.0703 -0.0949 -1.9296
40186SOL     OW27415   1.657  11.707  11.854  0.9688 -0.9289 -0.4160
40186SOL    HW127416   1.574  11.686  11.812  0.8495 -1.0136 -0.1372
40186SOL    HW227417   1.670  11.800  11.837 -0.1255 -0.4497  1.1652
40187SOL     OW27418  10.847  10.869   2.596  0.4754  0.4110  0.2018
40187SOL    HW127419  10.873  10.849   2.507 -0.9300  0.1907 -0.1755
40187SOL    HW227420  10.772  10.928   2.587 -0.7865 -0.9741  1.1855
40188SOL     OW27421   4.459   0.466   7.495 -0.2303 -0.3360  0.9479
40188SOL    HW127422   4.540   0.433   7.456 -0.1566  0.6186  0.2331
40188SOL    HW227423   4.451   0.555   7.460 -2.5714 -1.0546 -0.5555
40189SOL     OW27424   7.380   8.269   8.568  0.3696 -0.0180  0.6813
40189SOL    HW127425   7.341   8.185   8.543 -2.2386  1.5543 -0.9804
40189SOL    HW227426   7.425   8.299   8.489 -0.6697  1.1492  0.5103
40190SOL     OW27427   7.837   7.587   1.104  0.2616 -0.0783 -0.4684
40190SOL    HW127428   7.789   7.607   1.024  1.9730 -0.1080 -1.5494
40190SOL    HW227429   7.918   7.546   1.074  0.4152 -1.2177  1.3417
40191SOL     OW27430   6.249   3.867   1.613 -0.0217  0.2794  0.1532
40191SOL    HW127431   6.259   3.887   1.706 -2.9851  2.0374  0.2025
40191SOL    HW227432   6.186   3.796   1.610 -1.5130  1.5772 -0.5084
40192SOL     OW27433  11.206   1.153   8.729  0.1996 -0.1791  0.2688
40192SOL    HW127434  11.234   1.082   8.672  1.6025  0.3150  0.3017
40192SOL    HW227435  11.288   1.194   8.758 -0.5770  1.7201 -0.0972
40193SOL     OW27436   0.789   6.553   7.315 -0.6940 -0.0994  0.0273
40193SOL    HW127437   0.783   6.631   7.260 -0.8767 -0.5495 -0.5974
40193SOL    HW227438   0.839   6.490   7.262  0.0070 -0.1912  0.7795
40194SOL     OW27439  11.500   4.171  12.150 -0.0500 -0.6122 -0.2663
40194SOL    HW127440  11.443   4.243  12.177 -0.5116 -0.8665 -0.5408
40194SOL    HW227441  11.456   4.092  12.182  1.5929 -0.6728  2.0802
40195SOL     OW27442   1.888  11.867   2.339  0.0601  0.0016 -0.3779
40195SOL    HW127443   1.958  11.859   2.404  0.7070 -0.2270 -1.1004
40195SOL    HW227444   1.885  11.961   2.319  0.6814 -0.0897 -0.9134
40196SOL     OW27445   3.831   6.758   1.014  0.8594 -0.6065 -0.6853
40196SOL    HW127446   3.903   6.706   1.049  0.0568 -0.6777  0.9618
40196SOL    HW227447   3.838   6.843   1.058 -0.7607 -1.0312  0.5005
40197SOL     OW27448   0.475   3.711   0.342  0.2256 -0.3856 -0.0916
40197SOL    HW127449   0.502   3.795   0.306 -0.3674  0.5923  1.5868
40197SOL    HW227450   0.556   3.666   0.364  0.5724  0.8734  1.3545
40198SOL     OW27451   5.249   5.221  12.562  0.0580 -0.1344  0.6569
40198SOL    HW127452   5.160   5.188  12.570 -1.0757  2.2153 -1.1943
40198SOL    HW227453   5.245   5.287  12.493  3.5171 -0.8881 -0.5108
40199SOL     OW27454   1.322   8.096   0.165 -0.3028  0.2392 -0.1188
40199SOL    HW127455   1.269   8.061   0.236 -1.6352 -2.3756 -2.2291
40199SOL    HW227456   1.407   8.053   0.174 -0.0993  0.7650  0.5073
40200SOL     OW27457  10.485  12.066   1.171  0.0844 -0.5846  0.0806
40200SOL    HW127458  10.580  12.076   1.169  0.0731 -0.2189  0.7167
40200SOL    HW227459  10.466  11.996   1.109  0.8598 -1.3359  0.6709
40201SOL     OW27460   2.582   3.992   7.434 -0.2339  0.1341  0.1884
40201SOL    HW127461   2.661   3.942   7.455 -1.5426 -1.3589  1.7650
40201SOL    HW227462   2.522   3.975   7.506 -2.2276  0.7831 -1.2260
40202SOL     OW27463   0.599   0.551  10.782 -0.0054 -0.7553  0.0751
40202SOL    HW127464   0.622   0.491  10.711 -1.7486  0.3171 -1.4983
40202SOL    HW227465   0.504   0.550  10.785 -0.0058 -0.7303  2.4466
40203SOL     OW27466   7.013   3.569  11.466  0.7982  0.4196  0.5821
40203SOL    HW127467   7.107   3.552  11.465  0.8862  0.8418  1.2463
40203SOL    HW227468   6.974   3.488  11.434  1.2331 -0.9707  3.2173
40204SOL     OW27469   6.611  11.882  12.133 -0.5981  0.4183 -0.1211
40204SOL    HW127470   6.624  11.968  12.171  1.5890  0.3919 -0.6532
40204SOL    HW227471   6.691  11.833  12.155 -1.2609 -1.0779 -0.8449
40205SOL     OW27472   6.510   7.172   1.042 -0.0788  0.4098 -0.5628
40205SOL    HW127473   6.522   7.196   1.134  1.9008 -0.4030 -0.5520
40205SOL    HW227474   6.468   7.248   1.002 -3.2199 -0.0718  1.4161
40206SOL     OW27475   0.166   7.849   7.049 -0.0048  0.1264 -0.5674
40206SOL    HW127476   0.155   7.754   7.044 -1.7236  0.3205 -0.9560
40206SOL    HW227477   0.260   7.863   7.035 -0.0605 -1.3469 -2.8983
40207SOL     OW27478   6.357  12.368   8.121  0.5424  0.3329 -0.2762
40207SOL    HW127479   6.357  12.400   8.031 -0.4259 -0.8076 -0.7008
40207SOL    HW227480   6.281  12.411   8.161 -0.2855 -0.7455 -0.6252
40208SOL     OW27481   2.230   9.052   2.020  0.6081  0.4539 -0.3619
40208SOL    HW127482   2.218   9.135   2.065 -1.0876 -1.1718  2.4242
40208SOL    HW227483   2.164   9.053   1.950 -1.5876  0.2586  1.6061
40209SOL     OW27484   6.712  11.159   0.769  0.6656  0.7966  0.1897
40209SOL    HW127485   6.721  11.069   0.739 -0.5578 -0.2659  2.7117
40209SOL    HW227486   6.789  11.175   0.823  0.7288  1.1823 -0.0061
40210SOL     OW27487   9.283   2.555  10.237  0.3592  0.2522 -0.0655
40210SOL    HW127488   9.222   2.585  10.170  0.1645  1.3824  0.5923
40210SOL    HW227489   9.307   2.466  10.210  0.7587  0.8839 -1.9395
40211SOL     OW27490   8.759   7.931  11.716 -0.0748  0.6450  0.4720
40211SOL    HW127491   8.801   7.846  11.730  0.0565  0.3831 -1.2806
40211SOL    HW227492   8.814   7.993  11.763  0.8164 -0.0354  0.3501
40212SOL     OW27493   1.189   3.728   2.370 -0.4129 -0.0075 -0.0424
40212SOL    HW127494   1.132   3.651   2.368  0.4820 -0.6781 -0.8371
40212SOL    HW227495   1.134   3.799   2.338 -1.0114 -0.4894 -0.1103
40213SOL     OW27496   6.945   2.521  10.235 -0.1998 -0.3140 -0.2982
40213SOL    HW127497   7.015   2.466  10.270  0.2653  0.5533  0.1853
40213SOL    HW227498   6.980   2.554  10.152  0.8613  1.7454  0.8831
40214SOL     OW27499   1.440   2.049   5.630 -1.0566  0.0933 -0.5285
40214SOL    HW127500   1.443   2.098   5.712 -0.1076  0.8418 -0.9858
40214SOL    HW227501   1.361   2.079   5.587 -1.1113  0.3279 -0.2690
40215SOL     OW27502   8.677   7.618   8.176  0.4835 -0.3748 -0.5475
40215SOL    HW127503   8.769   7.610   8.202  0.9562 -1.1948 -2.3264
40215SOL    HW227504   8.664   7.551   8.109 -1.4735 -0.3880 -0.2306
40216SOL     OW27505   0.444   0.729  11.651  0.2780  0.1073  0.0909
40216SOL    HW127506   0.483   0.816  11.663 -1.5259  1.1309 -0.8988
40216SOL    HW227507   0.444   0.690  11.738  0.9026  1.2063  0.6011
40217SOL     OW27508   0.909   0.962   1.069  0.3129  0.5626 -0.2572
40217SOL    HW127509   0.862   1.033   1.112  0.9178  1.3310 -0.8313
40217SOL    HW227510   0.840   0.909   1.028 -0.2790 -0.2078  1.6257
40218SOL     OW27511   8.308   1.248   2.017 -0.1176 -0.1257  0.1990
40218SOL    HW127512   8.297   1.195   2.095 -2.0142  0.4777  0.3786
40218SOL    HW227513   8.236   1.223   1.960  2.3642 -2.1447 -2.4003
40219SOL     OW27514   6.320   5.533   8.782  0.1484 -0.3821 -0.2305
40219SOL    HW127515   6.286   5.551   8.869 -2.8500  0.0694 -1.3838
40219SOL    HW227516   6.381   5.460   8.794 -0.1394 -0.2972  2.1985
40220SOL     OW27517  10.086   3.792  12.550  1.0270 -0.3544  0.3577
40220SOL    HW127518  10.167   3.804  12.600  1.4635 -2.4830  0.2616
40220SOL    HW227519  10.104   3.834  12.466  3.3362 -3.3629 -0.8523
40221SOL     OW27520   3.338   7.845   2.907  0.5847 -0.3426  0.0275
40221SOL    HW127521   3.380   7.916   2.859 -0.0174  1.8591  2.5648
40221SOL    HW227522   3.262   7.885   2.949 -1.2059 -3.0632 -0.3160
40222SOL     OW27523   0.259   3.895   8.996  0.0775 -0.3965  0.6996
40222SOL    HW127524   0.244   3.811   9.040 -0.8546 -1.2087 -1.0681
40222SOL    HW227525   0.185   3.905   8.937  0.9830  0.9208 -0.2799
40223SOL     OW27526   1.464   0.121   2.963 -0.6862 -0.2751 -0.3063
40223SOL    HW127527   1.518   0.061   2.911 -1.4862 -0.4031 -1.0048
40223SOL    HW227528   1.377   0.081   2.964 -1.0212  0.4424 -0.0586
40224SOL     OW27529   8.490  12.074   7.630  0.1282  0.3976 -0.2036
40224SOL    HW127530   8.549  12.022   7.684  1.5124  0.5229 -1.5219
40224SOL    HW227531   8.438  12.010   7.581  0.0965  0.2755 -0.0107
40225SOL     OW27532   8.844   7.106   3.198  0.2291  0.4026 -0.2614
40225SOL    HW127533   8.899   7.181   3.221  0.1783  0.3483  0.0433
40225SOL    HW227534   8.772   7.109   3.262 -0.8954  1.2846 -1.4812
40226SOL     OW27535   6.091   8.071   3.224  0.2771 -0.1791  0.0906
40226SOL    HW127536   6.096   8.024   3.141 -0.2431 -0.7958  0.4011
40226SOL    HW227537   6.135   8.015   3.287  0.4408  0.1652  0.2832
40227SOL     OW27538   8.935   6.855   7.371 -0.7681  0.2640  0.3642
40227SOL    HW127539   8.908   6.835   7.281  0.0773  1.4304 -0.1817
40227SOL    HW227540   8.994   6.784   7.395 -0.5007  0.2656 -0.2559
40228SOL     OW27541   5.745   6.154   7.398 -0.4354 -0.0764 -0.4190
40228SOL    HW127542   5.762   6.062   7.416  1.0633  0.6946  2.7308
40228SOL    HW227543   5.825   6.186   7.357 -1.6607 -0.4752 -3.3883
40229SOL     OW27544   7.973   7.655   3.486 -0.5120 -0.0949 -0.0670
40229SOL    HW127545   7.984   7.727   3.547  0.7259 -0.7208  0.4838
40229SOL    HW227546   7.981   7.696   3.399 -2.2162  0.7846  0.1549
40230SOL     OW27547  10.851  11.284   2.490  0.3811  0.3631  0.4473
40230SOL    HW127548  10.868  11.319   2.577  1.4362  1.2147 -0.0864
40230SOL    HW227549  10.870  11.356   2.430 -1.1913  0.0832 -0.4559
40231SOL     OW27550   7.806   9.236   5.208 -0.0843 -0.0398  0.0057
40231SOL    HW127551   7.853   9.269   5.132  1.4063 -0.8780  0.5256
40231SOL    HW227552   7.806   9.308   5.270  2.2216 -0.5790  0.7253
40232SOL     OW27553   5.225   2.980  10.042  0.0887 -0.1312 -0.6159
40232SOL    HW127554   5.129   2.980  10.033  0.1479 -0.7733 -1.3257
40232SOL    HW227555   5.247   2.891  10.069  0.2372  0.8151  2.9527
40233SOL     OW27556   0.877   3.627  11.112  0.0518  0.2099 -0.4067
40233SOL    HW127557   0.898   3.659  11.025 -1.7699  0.1907 -0.9039
40233SOL    HW227558   0.881   3.705  11.168 -2.0559  0.9341 -1.1752
40234SOL     OW27559   9.048  10.488   4.217 -0.7124  0.3492 -0.5428
40234SOL    HW127560   9.012  10.408   4.177 -1.2542  0.9706 -1.3398
40234SOL    HW227561   8.985  10.512   4.285  0.4621 -0.9883  1.0984
40235SOL     OW27562  10.665   4.452   6.980 -0.0714  0.3780  0.4683
40235SOL    HW127563  10.593   4.403   7.018 -0.1832  0.6982  0.6740
40235SOL    HW227564  10.737   4.389   6.974 -0.1781  0.2223  0.8375
40236SOL     OW27565   3.289   6.028   5.011 -0.2927 -0.3254  0.4569
40236SOL    HW127566   3.313   6.116   5.039 -0.0310 -0.6135  1.1456
40236SOL    HW227567   3.313   6.025   4.918 -0.0732  0.2459  0.4945
40237SOL     OW27568   2.426   4.830   4.590 -0.2794 -0.2428 -0.2375
40237SOL    HW127569   2.488   4.760   4.570  0.5670  0.3642  0.2097
40237SOL    HW227570   2.431   4.889   4.514 -0.3943 -0.2451 -0.2481
40238SOL     OW27571  12.471   3.996  10.320 -0.6043 -0.3359  0.3875
40238SOL    HW127572  12.406   4.043  10.267 -0.5084 -0.7218 -0.0800
40238SOL    HW227573  12.463   3.905  10.292  0.8324 -0.2453 -0.4142
40239SOL     OW27574   2.076   0.822   4.752 -0.2066 -0.1480 -0.5078
40239SOL    HW127575   2.100   0.905   4.711  0.9546 -0.5091 -0.5931
40239SOL    HW227576   2.069   0.761   4.679  1.4986 -0.7061 -0.2577
40240SOL     OW27577   7.136   9.227  11.118  0.2811 -0.1150 -0.1664
40240SOL    HW127578   7.054   9.262  11.084  0.2031  0.6279  0.7273
40240SOL    HW227579   7.161   9.158  11.056 -0.6078  0.1762 -0.8715
40241SOL     OW27580   1.719   2.599   9.406  0.1986  0.4545  0.5817
40241SOL    HW127581   1.678   2.595   9.493 -1.4721 -0.7771 -0.2135
40241SOL    HW227582   1.711   2.691   9.380 -1.5133  0.3917  0.7429
40242SOL     OW27583  10.898   4.309  11.922  0.0982  0.0023 -0.0273
40242SOL    HW127584  10.990   4.282  11.927  0.1121  0.0610  0.0452
40242SOL    HW227585  10.887   4.341  11.832 -0.2032 -1.2767 -0.4670
40243SOL     OW27586   7.807   1.578  11.567 -0.2876  0.1167  0.0652
40243SOL    HW127587   7.885   1.625  11.595 -1.0853  1.6526 -0.1900
40243SOL    HW227588   7.739   1.607  11.628 -0.8322 -0.6198 -0.1793
40244SOL     OW27589   7.511   9.075   9.484  0.8120 -0.2831  0.0002
40244SOL    HW127590   7.519   9.141   9.554 -1.7352  1.5458 -1.2550
40244SOL    HW227591   7.524   9.125   9.403 -2.2027 -0.9699 -1.0453
40245SOL     OW27592   1.836  11.766   5.776  0.4398 -0.4031 -0.0652
40245SOL    HW127593   1.767  11.829   5.757 -0.4138 -0.9116  1.1589
40245SOL    HW227594   1.917  11.812   5.757 -0.2195  0.2263 -1.5019
40246SOL     OW27595  11.029   5.444   5.649  0.6821 -0.1012 -0.2612
40246SOL    HW127596  10.989   5.464   5.564  0.4766 -1.5794 -0.5357
40246SOL    HW227597  11.040   5.349   5.649  3.6381  0.1426  0.0599
40247SOL     OW27598   5.161   9.171  10.087  0.0183 -0.0386  0.3706
40247SOL    HW127599   5.170   9.077  10.073 -1.9874  0.1770 -3.4546
40247SOL    HW227600   5.226   9.211  10.030  0.2849  0.9679  1.3295
40248SOL     OW27601   0.933   2.723   2.127  0.0134 -0.0655 -0.3722
40248SOL    HW127602   0.964   2.771   2.050  0.0949  0.4371 -0.0382
40248SOL    HW227603   0.999   2.743   2.194 -0.7675  0.6186  0.2121
40249SOL     OW27604   1.556   1.716   4.461 -0.9823 -0.4518 -0.4709
40249SOL    HW127605   1.598   1.630   4.467  1.0024  0.2474 -2.7143
40249SOL    HW227606   1.611   1.773   4.514 -1.5055 -0.2800 -0.1024
40250SOL     OW27607   6.571  11.853   5.296 -0.3292  0.1714  0.1382
40250SOL    HW127608   6.557  11.942   5.327 -0.0253 -0.0151  0.8433
40250SOL    HW227609   6.521  11.798   5.357  0.8417 -0.2530  0.7510
40251SOL     OW27610   0.817   0.516   2.476 -0.5425 -0.1212  0.0657
40251SOL    HW127611   0.730   0.554   2.484 -1.4094 -1.0731 -3.1119
40251SOL    HW227612   0.860   0.568   2.408  0.3687 -1.2567 -0.2707
40252SOL     OW27613   2.421   7.675  12.316 -0.1574 -0.3340  0.0230
40252SOL    HW127614   2.487   7.698  12.381 -0.5944  2.0594 -0.2821
40252SOL    HW227615   2.360   7.748  12.317 -2.2203 -1.9379 -0.5187
40253SOL     OW27616   7.828  11.300   8.582  0.2326 -0.1520  0.1551
40253SOL    HW127617   7.764  11.320   8.650 -0.7030 -2.0964 -0.0911
40253SOL    HW227618   7.779  11.252   8.516  1.6805 -0.5615 -0.6704
40254SOL     OW27619  12.064   8.056   8.715  0.5816  0.4147 -0.1445
40254SOL    HW127620  12.018   8.065   8.799  0.0165 -0.3590 -0.3601
40254SOL    HW227621  12.051   8.140   8.671  0.3714  0.6125  0.2910
40255SOL     OW27622   7.582   9.832   9.382 -0.4857  0.0936  0.4209
40255SOL    HW127623   7.533   9.823   9.464  0.4971 -2.4464  0.8218
40255SOL    HW227624   7.663   9.876   9.407 -1.5721  2.4503  0.1116
40256SOL     OW27625   9.109   1.197   3.772  0.2320 -0.3475  0.3558
40256SOL    HW127626   9.036   1.149   3.812  0.8982 -0.8863  0.9384
40256SOL    HW227627   9.185   1.141   3.786  0.5148 -0.5000 -1.5936
40257SOL     OW27628   9.756   8.395   1.002  0.3985  0.0905 -0.2681
40257SOL    HW127629   9.742   8.304   1.028 -2.7980  0.7729  0.8275
40257SOL    HW227630   9.743   8.445   1.083 -1.6156  1.7411 -1.5309
40258SOL     OW27631   4.015   8.551   4.417  0.5297 -0.0161 -0.0040
40258SOL    HW127632   4.045   8.550   4.326 -0.5340  0.9186 -0.3813
40258SOL    HW227633   3.984   8.462   4.433 -0.2012  0.0754 -0.8716
40259SOL     OW27634  11.084   0.440   3.907 -0.0056 -0.3657 -0.6113
40259SOL    HW127635  11.077   0.535   3.903 -0.2117 -0.3959 -1.0538
40259SOL    HW227636  11.018   0.413   3.971  1.4918 -0.0660  1.1630
40260SOL     OW27637  11.308   5.454   7.616 -0.3631  0.5554 -0.0796
40260SOL    HW127638  11.387   5.455   7.562 -0.8085  0.1997 -0.7609
40260SOL    HW227639  11.335   5.413   7.698 -0.1566 -0.9338 -0.8519
40261SOL     OW27640   5.328   5.701   6.399  0.2365 -0.2858  0.9137
40261SOL    HW127641   5.241   5.679   6.432  0.1333 -1.2992  0.0305
40261SOL    HW227642   5.389   5.657   6.459  0.0923 -0.8243  0.6719
40262SOL     OW27643   0.246   1.395  10.455 -0.1722  0.0107  0.1368
40262SOL    HW127644   0.334   1.408  10.490  0.2106  0.3414 -0.9298
40262SOL    HW227645   0.244   1.447  10.375 -1.4615  0.2996  0.3433
40263SOL     OW27646   6.151  10.850   3.491 -0.3470 -0.3981 -0.1272
40263SOL    HW127647   6.116  10.807   3.412  0.8483 -0.2723 -0.7396
40263SOL    HW227648   6.244  10.827   3.492 -0.3040 -0.2318  1.1509
40264SOL     OW27649  10.105   5.718   5.786 -0.1683 -0.4799 -0.1029
40264SOL    HW127650  10.173   5.653   5.765 -0.6802 -0.4547 -2.0682
40264SOL    HW227651  10.142   5.801   5.757  0.8691  0.3625  3.2578
40265SOL     OW27652   8.251   0.023   7.238  0.9016 -0.3471  0.1084
40265SOL    HW127653   8.192  -0.047   7.210 -0.7609  0.9552  0.1928
40265SOL    HW227654   8.337  -0.004   7.207  0.3413 -2.4641  0.2384
40266SOL     OW27655   5.437  10.261   9.229 -0.1136  0.3032 -0.0836
40266SOL    HW127656   5.365  10.265   9.166  0.3040 -0.7970 -0.6590
40266SOL    HW227657   5.404  10.204   9.299  0.2199 -0.2707 -0.3884
40267SOL     OW27658   4.645   3.350   0.057  0.0206 -0.1964 -0.8387
40267SOL    HW127659   4.692   3.379   0.135 -1.4416  0.6506 -0.2314
40267SOL    HW227660   4.625   3.258   0.074  0.4878 -0.2671 -0.6318
40268SOL     OW27661   2.992   4.031   5.861 -0.6616  0.2649  0.2278
40268SOL    HW127662   2.966   3.985   5.781  0.1974 -0.9962  0.6462
40268SOL    HW227663   3.085   4.050   5.848 -0.1378 -1.2095  1.4614
40269SOL     OW27664   0.103  10.963  11.957 -0.3157  0.1193 -0.4475
40269SOL    HW127665   0.097  11.040  12.013  0.0667 -1.1060  1.3452
40269SOL    HW227666   0.013  10.932  11.949 -0.4644  0.6874 -1.1339
40270SOL     OW27667   0.522   8.671   9.868  0.2567  0.2139 -0.2563
40270SOL    HW127668   0.532   8.591   9.817 -0.6905  0.7051 -1.2478
40270SOL    HW227669   0.484   8.734   9.807 -1.4112  0.6667  1.1676
40271SOL     OW27670   9.181   3.366   8.854 -0.1007 -0.0176  0.8265
40271SOL    HW127671   9.093   3.380   8.888  0.0185  0.4267  0.9584
40271SOL    HW227672   9.201   3.275   8.877 -1.7918 -1.3018 -2.1177
40272SOL     OW27673   3.314   6.491   5.301 -0.5659 -0.3475 -0.3051
40272SOL    HW127674   3.240   6.544   5.332  0.3513  0.1391  1.1119
40272SOL    HW227675   3.273   6.425   5.244 -2.0366  0.2078  0.0502
40273SOL     OW27676   6.930   8.213   2.408 -0.1484 -0.3915  0.2250
40273SOL    HW127677   6.913   8.143   2.345  2.2984 -1.9776  1.1664
40273SOL    HW227678   6.958   8.287   2.354 -3.5365  0.2784 -0.8503
40274SOL     OW27679   8.966   9.611  11.674  0.2213 -0.4424 -0.6203
40274SOL    HW127680   8.976   9.660  11.756 -0.5110 -0.3535 -0.5732
40274SOL    HW227681   8.999   9.670  11.606  1.7202 -0.8789 -0.3060
40275SOL     OW27682   7.592   3.779  10.740 -0.2422  0.3624  0.6470
40275SOL    HW127683   7.543   3.859  10.722 -1.2907 -0.6775 -1.4191
40275SOL    HW227684   7.670   3.785  10.685 -0.7260 -0.3888 -0.1267
40276SOL     OW27685   3.139  10.876   4.720 -0.7290 -0.4618  0.5292
40276SOL    HW127686   3.160  10.929   4.797  0.2425 -0.8793  0.5617
40276SOL    HW227687   3.048  10.897   4.701 -0.2346  1.6216  0.2363
40277SOL     OW27688   4.677   7.323   3.384  0.2010 -0.1597 -0.3640
40277SOL    HW127689   4.663   7.296   3.293  2.4610  0.4561 -0.9615
40277SOL    HW227690   4.743   7.392   3.379 -1.5254  1.7801  1.5626
40278SOL     OW27691   0.957   7.388   6.195  0.4343  0.1032 -0.5738
40278SOL    HW127692   0.963   7.469   6.144  0.1574  1.1545  1.0145
40278SOL    HW227693   0.869   7.389   6.232  0.3998 -0.9845 -0.5997
40279SOL     OW27694   0.105   4.908   1.737 -0.5632  0.0261 -0.1035
40279SOL    HW127695   0.132   4.817   1.724 -0.0411  0.2071 -0.3040
40279SOL    HW227696   0.103   4.919   1.832 -2.2392 -0.6621 -0.0231
40280SOL     OW27697   2.098   3.103  11.483  0.6515  0.0327 -0.5789
40280SOL    HW127698   2.122   3.012  11.465  0.6059 -0.1101  0.0355
40280SOL    HW227699   2.110   3.112  11.578 -1.0555  0.1477 -0.3461
40281SOL     OW27700   6.062  10.004   5.266  0.0610 -0.3659  0.1379
40281SOL    HW127701   6.130   9.946   5.231 -0.3008 -0.1173 -1.0215
40281SOL    HW227702   5.980   9.967   5.233 -0.0835  2.0309 -2.6911
40282SOL     OW27703   6.735   8.769   3.925 -0.2330  0.1548  0.3190
40282SOL    HW127704   6.684   8.782   4.005 -0.7397  1.2456 -0.1739
40282SOL    HW227705   6.704   8.685   3.891 -0.1248 -0.2423  1.1746
40283SOL     OW27706   0.816   5.899   1.946 -0.1683  0.7611 -0.0236
40283SOL    HW127707   0.806   5.893   2.041  1.1251 -1.4396  0.0512
40283SOL    HW227708   0.884   5.835   1.925 -2.3122 -0.9073 -2.7281
40284SOL     OW27709   8.772  11.319   0.688 -0.1214 -0.1712  0.1156
40284SOL    HW127710   8.840  11.266   0.729  0.7179 -0.5621 -1.6842
40284SOL    HW227711   8.810  11.407   0.684 -0.3585 -0.0464  0.4807
40285SOL     OW27712   4.506  10.436  10.856 -0.4054 -0.0293  0.2619
40285SOL    HW127713   4.530  10.523  10.824 -1.5827 -0.7162 -2.8461
40285SOL    HW227714   4.413  10.444  10.877 -0.2907 -0.3121  0.8964
40286SOL     OW27715   9.636   2.471   6.163  0.2089  0.3458 -0.0703
40286SOL    HW127716   9.723   2.463   6.125  0.0927  0.3908 -0.3453
40286SOL    HW227717   9.632   2.402   6.230  0.7236  0.8310  0.4653
40287SOL     OW27718   8.627   1.304   4.580  0.1515 -0.8224 -0.0902
40287SOL    HW127719   8.712   1.266   4.561  1.3020  0.4978  2.0758
40287SOL    HW227720   8.590   1.248   4.648  0.2827 -0.1564  0.5427
40288SOL     OW27721   4.364  11.848   8.494 -0.1552  0.9059  0.0270
40288SOL    HW127722   4.338  11.844   8.586 -0.3014  1.7747  0.0304
40288SOL    HW227723   4.360  11.757   8.464  3.8449 -0.1077  1.9366
40289SOL     OW27724   3.396   8.675   3.643 -0.5252  0.4002 -0.5291
40289SOL    HW127725   3.486   8.646   3.628 -0.3745  0.2045  0.6797
40289SOL    HW227726   3.406   8.761   3.684 -0.8558  0.0173  0.3795
40290SOL     OW27727   3.045   7.365   6.758 -0.1541 -0.0321 -0.7927
40290SOL    HW127728   2.965   7.313   6.766 -0.3111  0.0696 -1.6790
40290SOL    HW227729   3.027   7.444   6.810  0.2536 -1.0321  0.9286
40291SOL     OW27730   3.667   3.041   3.770 -0.5995  0.5998  0.7183
40291SOL    HW127731   3.711   3.126   3.765 -1.3154  0.9134 -1.9271
40291SOL    HW227732   3.736   2.977   3.756 -0.6537  1.0310 -2.0941
40292SOL     OW27733  10.691   6.683   6.173  0.0831 -0.2346  0.3761
40292SOL    HW127734  10.711   6.777   6.178  0.4280 -0.0940 -2.3791
40292SOL    HW227735  10.697   6.653   6.264 -0.4333  2.4607  1.4133
40293SOL     OW27736  10.842   7.609   2.062 -0.0305  0.3871  0.1995
40293SOL    HW127737  10.749   7.589   2.047  0.0943 -1.3713  1.4198
40293SOL    HW227738  10.840   7.692   2.110 -0.9715  0.4971  0.0038
40294SOL     OW27739  12.251   1.107  12.368  0.0028 -0.7223  0.2527
40294SOL    HW127740  12.246   1.165  12.292  1.1112 -1.0692 -0.0995
40294SOL    HW227741  12.160   1.083  12.386 -0.3757  0.3200 -0.2177
40295SOL     OW27742   5.881   0.919   0.892 -0.1430 -0.2007 -0.1277
40295SOL    HW127743   5.916   0.844   0.940  1.0282  1.3351  1.5461
40295SOL    HW227744   5.789   0.922   0.916 -0.5620 -1.8338 -1.2865
40296SOL     OW27745   5.672   1.367   1.121 -0.1336  0.5272  0.7784
40296SOL    HW127746   5.646   1.369   1.214 -0.7341  0.0483  0.6241
40296SOL    HW227747   5.636   1.285   1.087 -1.1501  1.3606 -0.2294
40297SOL     OW27748  11.723   4.978  10.633  0.1863  0.1120  0.4177
40297SOL    HW127749  11.695   5.065  10.605  0.8299  0.6986  1.5487
40297SOL    HW227750  11.660   4.954  10.701 -0.0487 -0.3658  0.0381
40298SOL     OW27751   4.058   2.641  10.701 -0.1920 -0.1923  0.6002
40298SOL    HW127752   4.046   2.706  10.633 -0.1103 -0.5286  0.2628
40298SOL    HW227753   4.055   2.690  10.783 -3.5622 -0.1268  0.5780
40299SOL     OW27754  11.724  10.385   1.848  0.2280 -0.0903  0.0822
40299SOL    HW127755  11.756  10.295   1.859  0.4728 -0.3518 -2.2870
40299SOL    HW227756  11.765  10.434   1.919  3.8770 -0.9299 -1.2436
40300SOL     OW27757  11.373  10.445   2.242  0.2678 -0.4627 -0.2620
40300SOL    HW127758  11.402  10.520   2.293 -0.7185 -0.9402  1.0556
40300SOL    HW227759  11.322  10.392   2.304 -3.4055  0.3059 -2.3413
40301SOL     OW27760  10.928  11.847  10.198  0.1268  0.1058  0.3290
40301SOL    HW127761  10.873  11.911  10.153 -0.3530 -0.6448 -0.1752
40301SOL    HW227762  10.877  11.766  10.196  0.6845 -0.2714  1.0390
40302SOL     OW27763   7.027   2.255  10.109  0.0707  0.6484  0.4402
40302SOL    HW127764   7.035   2.333  10.054 -0.5459  0.2246 -0.2550
40302SOL    HW227765   7.081   2.189  10.066  1.6404  1.0274  1.7106
40303SOL     OW27766  10.452   6.361   4.872  0.6816 -0.4566  0.0386
40303SOL    HW127767  10.485   6.339   4.959 -0.2948  1.8354  1.0748
40303SOL    HW227768  10.490   6.447   4.854 -0.7439 -0.0058 -0.9016
40304SOL     OW27769   0.457   7.542   0.846  0.3440 -0.3513  0.3964
40304SOL    HW127770   0.368   7.522   0.817  0.3609  0.1684 -0.0384
40304SOL    HW227771   0.448   7.625   0.893  0.5613 -0.4311  0.5801
40305SOL     OW27772  11.016   9.933   8.685  0.3321 -0.1550 -0.1559
40305SOL    HW127773  11.000   9.849   8.642 -0.5434 -0.5986  0.9830
40305SOL    HW227774  10.930   9.961   8.715  0.8638  0.2696  1.0377
40306SOL     OW27775  11.294   2.324  10.574  0.0683  0.0877  0.4138
40306SOL    HW127776  11.200   2.340  10.586 -0.2120 -0.7091 -0.5597
40306SOL    HW227777  11.303   2.310  10.480  0.9206 -1.4083  0.7011
40307SOL     OW27778   9.946   6.516  10.290  0.2427 -0.0156 -0.3424
40307SOL    HW127779   9.933   6.471  10.373 -1.2625 -1.6212 -1.3690
40307SOL    HW227780   9.898   6.598  10.299  0.1492 -0.1454  0.3946
40308SOL     OW27781   8.889   8.472   6.996 -0.5954 -0.0110  0.3795
40308SOL    HW127782   8.908   8.519   6.914 -1.5504 -0.4397 -0.0940
40308SOL    HW227783   8.913   8.535   7.064  0.6773  0.1805 -0.2002
40309SOL     OW27784   5.376   6.781   9.952  0.4720  0.6128 -0.3637
40309SOL    HW127785   5.379   6.688   9.976  2.7237  0.4119 -1.1185
40309SOL    HW227786   5.417   6.825  10.026 -0.5107  1.0158 -0.0479
40310SOL     OW27787   8.288   8.984   2.435  0.0195  0.2073 -0.6225
40310SOL    HW127788   8.237   9.007   2.512  1.0088  1.3799 -0.2746
40310SOL    HW227789   8.297   8.889   2.438 -0.2955  0.2072  0.4820
40311SOL     OW27790   6.095   2.004   3.102 -0.5351  0.5100  0.1739
40311SOL    HW127791   6.183   1.966   3.103  0.3770  2.3480 -1.8793
40311SOL    HW227792   6.095   2.066   3.175 -0.9903 -1.1659  1.6435
40312SOL     OW27793   8.468   2.015   4.209 -0.3425  0.2902 -0.0979
40312SOL    HW127794   8.559   2.025   4.236 -0.7917  0.3436  1.4783
40312SOL    HW227795   8.457   2.080   4.139  1.4594 -1.4067 -2.0852
40313SOL     OW27796   2.388   6.075   9.213  0.2885 -0.1737  0.5316
40313SOL    HW127797   2.374   6.148   9.273  0.3862 -1.6872  2.4929
40313SOL    HW227798   2.443   6.013   9.261 -2.4877 -3.0807  0.3386
40314SOL     OW27799   9.378   4.876  11.247  0.3275 -0.3827 -0.4293
40314SOL    HW127800   9.403   4.960  11.208 -0.6757 -0.4672 -1.2986
40314SOL    HW227801   9.364   4.818  11.173 -0.4988 -0.8784  0.0970
40315SOL     OW27802   5.028   1.776   8.878 -0.6653  0.1412 -0.2878
40315SOL    HW127803   5.031   1.846   8.943  0.1906 -0.5707  0.4686
40315SOL    HW227804   5.008   1.697   8.929 -1.0437 -0.2689 -1.0463
40316SOL     OW27805   3.677   1.440   7.688  0.1706 -0.3118 -0.3931
40316SOL    HW127806   3.671   1.383   7.612 -0.1554 -0.3756 -0.3206
40316SOL    HW227807   3.661   1.528   7.654 -0.4598 -0.3964 -0.3211
40317SOL     OW27808   6.564   4.515  11.663 -0.3533 -0.9116  0.4594
40317SOL    HW127809   6.505   4.440  11.672 -0.6878 -0.9106 -1.2877
40317SOL    HW227810   6.595   4.510  11.572  0.0955  0.7190  0.4920
40318SOL     OW27811   7.216   0.105   0.850 -0.6387 -0.8546  0.0746
40318SOL    HW127812   7.288   0.046   0.828 -1.1533 -1.5466  0.1926
40318SOL    HW227813   7.153   0.093   0.779 -0.1853  0.5424 -0.5849
40319SOL     OW27814   5.846  10.247  11.406 -0.8131 -0.0769  0.4528
40319SOL    HW127815   5.780  10.217  11.344  0.6952 -0.5260 -0.9739
40319SOL    HW227816   5.847  10.342  11.395 -1.6636  0.0161  0.9924
40320SOL     OW27817   7.396   6.472   9.840 -0.4860 -0.0803  0.0418
40320SOL    HW127818   7.377   6.560   9.807  0.4097 -0.2970 -1.1261
40320SOL    HW227819   7.314   6.443   9.879 -1.0571  0.9254 -0.3577
40321SOL     OW27820  11.119   7.544   3.955 -0.1651 -0.0732 -0.1995
40321SOL    HW127821  11.075   7.487   3.893  0.8627 -2.1493  0.8778
40321SOL    HW227822  11.200   7.570   3.910  0.0512 -0.6756 -0.1728
40322SOL     OW27823  12.011  11.647   8.080 -0.5418 -0.3579 -0.1098
40322SOL    HW127824  11.949  11.680   8.015  0.2130  1.5688  0.0754
40322SOL    HW227825  11.981  11.685   8.163  0.0991 -0.5312  0.2066
40323SOL     OW27826   2.055   4.290   7.383 -0.6304  0.4090 -0.1150
40323SOL    HW127827   2.134   4.345   7.385 -0.5146  0.2442 -0.1067
40323SOL    HW227828   2.017   4.300   7.471 -0.4913  0.3077 -0.0419
40324SOL     OW27829   3.869   6.073   5.732 -0.0279 -1.1340  0.7405
40324SOL    HW127830   3.863   6.021   5.812 -2.8387 -0.5919  0.9642
40324SOL    HW227831   3.921   6.149   5.757  2.3507 -2.7207  0.9634
40325SOL     OW27832  11.257  12.271  12.061 -0.4391 -0.2469 -0.0032
40325SOL    HW127833  11.224  12.233  11.979 -0.6983 -2.4848  1.0809
40325SOL    HW227834  11.203  12.232  12.129  2.6914 -2.0870  1.6412
40326SOL     OW27835   6.706   4.526   3.593 -0.3308 -0.2871 -0.0591
40326SOL    HW127836   6.772   4.559   3.655 -0.1928 -1.1673  0.2708
40326SOL    HW227837   6.666   4.605   3.558 -0.4022  0.2423  1.1510
40327SOL     OW27838   6.051   5.338   6.701  0.0068  0.2050  0.4080
40327SOL    HW127839   6.118   5.284   6.743  0.4983  1.1626  0.8931
40327SOL    HW227840   6.093   5.371   6.621 -0.3581 -0.2873  0.0113
40328SOL     OW27841   4.293   0.282   8.300  0.0128 -0.0752 -0.2625
40328SOL    HW127842   4.337   0.367   8.293 -0.5293  0.1616 -1.0428
40328SOL    HW227843   4.213   0.293   8.249 -1.0947 -0.4086  1.3446
40329SOL     OW27844   2.122   8.784   8.060 -0.2764 -0.7384 -0.4975
40329SOL    HW127845   2.203   8.733   8.062 -0.4561 -1.0624 -1.2173
40329SOL    HW227846   2.065   8.737   7.999 -0.0539  0.9014 -2.0439
40330SOL     OW27847   6.597   2.506   1.780 -0.3825  0.0372 -0.4585
40330SOL    HW127848   6.629   2.581   1.730  0.6398 -0.1452 -0.0989
40330SOL    HW227849   6.676   2.456   1.801 -0.8656 -0.2936  0.6713
40331SOL     OW27850   4.567   2.121   2.850 -0.2631 -1.0161 -0.0256
40331SOL    HW127851   4.563   2.214   2.828  0.9909 -0.8045  0.5409
40331SOL    HW227852   4.654   2.110   2.890 -1.6320 -1.7158  3.0224
40332SOL     OW27853  11.132   7.415   4.217 -0.1763  0.0546  0.1313
40332SOL    HW127854  11.131   7.446   4.126 -0.5303 -1.7835 -0.5189
40332SOL    HW227855  11.220   7.437   4.249 -0.2354  1.2234 -0.4462
40333SOL     OW27856   8.724   2.200  10.285  0.8585 -0.2065 -0.4013
40333SOL    HW127857   8.745   2.292  10.302 -1.5702  0.3999 -0.2619
40333SOL    HW227858   8.806   2.153  10.302  1.7776  1.7482  1.0139
40334SOL     OW27859  10.100   4.920   2.584  0.7575  0.0914  0.0192
40334SOL    HW127860  10.059   4.908   2.670 -1.6481  0.0238 -1.0385
40334SOL    HW227861  10.066   4.847   2.532  2.8308 -0.3516 -0.8134
40335SOL     OW27862   2.453   1.062   2.064  0.0752 -0.6087 -0.0984
40335SOL    HW127863   2.429   1.086   1.974 -1.7919 -0.6941  0.3245
40335SOL    HW227864   2.542   1.028   2.057  1.1824  2.1938 -1.4393
40336SOL     OW27865   8.780  11.843   2.602 -0.0787  0.4665 -0.2342
40336SOL    HW127866   8.863  11.801   2.627 -0.6865 -0.1111  0.9106
40336SOL    HW227867   8.795  11.876   2.514  1.3111  0.2027 -0.1158
40337SOL     OW27868   5.747   0.626   0.311 -0.1439  0.3604  0.4839
40337SOL    HW127869   5.821   0.573   0.340 -0.4616 -0.0509  0.5470
40337SOL    HW227870   5.786   0.693   0.255  0.2914  0.2341  0.6313
40338SOL     OW27871   9.283  11.544   5.742 -0.2340 -0.4376 -0.3834
40338SOL    HW127872   9.375  11.568   5.752 -0.2861  0.5159 -1.7899
40338SOL    HW227873   9.263  11.489   5.817  2.1928 -2.8905 -1.3728
40339SOL     OW27874   6.988   1.411  11.888 -0.2443  0.0210 -0.1839
40339SOL    HW127875   6.994   1.315  11.882 -0.0099  0.0996 -1.4019
40339SOL    HW227876   7.030   1.443  11.808 -1.3737  1.1136 -0.3586
40340SOL     OW27877   2.499   3.607  12.265  0.7516  0.8061 -0.7197
40340SOL    HW127878   2.441   3.539  12.229  1.3703  1.1162 -2.3792
40340SOL    HW227879   2.536   3.567  12.343 -1.3059  0.4159  0.1255
40341SOL     OW27880   5.341   9.698   0.090 -0.4943 -0.0772  0.0134
40341SOL    HW127881   5.374   9.716   0.002 -0.6675 -0.6781 -0.1783
40341SOL    HW227882   5.413   9.654   0.135  0.1757  1.6575  0.7037
40342SOL     OW27883   4.784   2.316   6.491  0.4028 -0.1986 -0.0728
40342SOL    HW127884   4.860   2.259   6.490  0.9492  0.5169 -0.0233
40342SOL    HW227885   4.756   2.318   6.582 -0.7098 -1.7792 -0.3296
40343SOL     OW27886   4.438   6.975   7.304 -0.3425  0.2687 -0.1812
40343SOL    HW127887   4.344   6.980   7.319 -0.1492  2.0554  0.7731
40343SOL    HW227888   4.456   7.041   7.238  0.1352 -0.7531 -1.1001
40344SOL     OW27889  10.312  10.783   9.855  0.0523 -0.0143 -0.0451
40344SOL    HW127890  10.228  10.764   9.814  0.7238 -1.6362 -0.7458
40344SOL    HW227891  10.331  10.706   9.908  1.3518  0.0757 -0.3444
40345SOL     OW27892   2.584   6.902   1.475 -0.4002  0.2386  0.2168
40345SOL    HW127893   2.513   6.937   1.529 -1.9851 -0.9651 -0.9576
40345SOL    HW227894   2.563   6.809   1.467 -1.1097  0.5690 -3.5710
40346SOL     OW27895   6.564   3.543   6.081 -0.2148  0.1772  0.3140
40346SOL    HW127896   6.617   3.609   6.036 -0.3141  0.4836  0.6463
40346SOL    HW227897   6.624   3.502   6.143 -0.2307  0.1666  0.3224
40347SOL     OW27898  11.658   4.369   5.903  0.7668 -0.1008 -0.7079
40347SOL    HW127899  11.621   4.316   5.974  0.5073  0.3466 -0.5008
40347SOL    HW227900  11.735   4.320   5.874  1.4528  0.1833  0.5616
40348SOL     OW27901   3.201   7.059   6.302 -0.1888 -0.5075 -0.2042
40348SOL    HW127902   3.132   7.102   6.353  1.3916 -0.6415  2.1650
40348SOL    HW227903   3.281   7.107   6.323  0.5173 -0.2602 -3.0184
40349SOL     OW27904   3.129   7.390   5.586  0.1364 -0.3084 -0.0487
40349SOL    HW127905   3.187   7.423   5.655 -0.6257  0.1488  0.3813
40349SOL    HW227906   3.076   7.465   5.560 -0.8572 -0.9162  0.1641
40350SOL     OW27907  10.220   7.567   4.240  0.4796 -0.2778 -0.1310
40350SOL    HW127908  10.146   7.523   4.198  0.0501 -0.9387  1.2527
40350SOL    HW227909  10.180   7.622   4.308  1.1652  0.6343 -0.4337
40351SOL     OW27910   9.146   6.993   4.103  0.2390 -0.4471  0.7701
40351SOL    HW127911   9.143   7.089   4.097  0.9099 -0.4739 -0.1480
40351SOL    HW227912   9.110   6.962   4.020  0.1190 -0.9901  1.0200
40352SOL     OW27913   9.272   0.835   2.110 -0.2801 -0.2176  0.2498
40352SOL    HW127914   9.308   0.904   2.055 -1.6612  1.1131  0.9247
40352SOL    HW227915   9.245   0.880   2.190 -2.0933 -1.3458  0.3422
40353SOL     OW27916   5.343   7.973  10.692  0.1417  0.6603  0.0888
40353SOL    HW127917   5.436   7.987  10.674  0.3984 -1.2785 -0.2568
40353SOL    HW227918   5.318   8.048  10.747  2.0178  0.9682  0.6024
40354SOL     OW27919   8.131  11.145   9.159  0.4831 -0.2243 -0.1948
40354SOL    HW127920   8.148  11.124   9.251  0.2968 -2.2178 -0.5829
40354SOL    HW227921   8.066  11.215   9.163  0.7686 -0.0030  1.1913
40355SOL     OW27922   1.820   2.140  10.354  0.2726 -0.1273  0.3839
40355SOL    HW127923   1.880   2.157  10.427  0.4965  0.3693  0.0859
40355SOL    HW227924   1.858   2.066  10.308  2.9429  2.5504 -2.1919
40356SOL     OW27925   9.833   1.377   9.228  0.2803 -0.5984 -0.2541
40356SOL    HW127926   9.928   1.390   9.226  0.3315 -0.2207  2.2309
40356SOL    HW227927   9.799   1.443   9.167  1.5000  0.7552  0.4604
40357SOL     OW27928   8.238  10.164  11.358  0.2842 -0.1568 -0.2565
40357SOL    HW127929   8.163  10.121  11.317 -0.5512  0.5067  0.5414
40357SOL    HW227930   8.239  10.252  11.319 -0.1324  0.2622  0.6449
40358SOL     OW27931  11.581   6.411   7.592  0.0146 -0.5980  0.0206
40358SOL    HW127932  11.640   6.452   7.529  0.7492 -0.2741  0.8826
40358SOL    HW227933  11.577   6.474   7.664 -1.1482 -0.7659  0.1143
40359SOL     OW27934   8.734   5.668   4.747  0.3116  0.1333 -0.2915
40359SOL    HW127935   8.775   5.582   4.755  1.6215  0.7787  0.1473
40359SOL    HW227936   8.806   5.728   4.726 -0.4712  1.2171  0.0107
40360SOL     OW27937   9.204   4.310   8.519  0.5349  0.3223  0.0186
40360SOL    HW127938   9.197   4.398   8.482 -0.5233 -0.3187 -1.3571
40360SOL    HW227939   9.136   4.307   8.586 -1.3728 -0.3304 -1.8521
40361SOL     OW27940   1.799   4.842   2.797 -0.2905  0.3601 -0.0271
40361SOL    HW127941   1.824   4.913   2.738  0.0076  1.7326  1.6842
40361SOL    HW227942   1.753   4.885   2.869  0.1064 -1.1540  1.1891
40362SOL     OW27943   5.908   7.848   4.714 -0.1584 -0.2738 -0.2706
40362SOL    HW127944   5.977   7.790   4.682  1.0807  1.0233 -0.0245
40362SOL    HW227945   5.954   7.924   4.748 -1.7317  0.7125 -0.2460
40363SOL     OW27946   9.191   2.029   5.584  0.4244  0.0460  0.1229
40363SOL    HW127947   9.287   2.029   5.582  0.4782  0.7110  1.3766
40363SOL    HW227948   9.167   1.937   5.592  0.9388 -0.1604 -0.6301
40364SOL     OW27949   1.544   0.771  12.014 -0.1124 -0.0469  0.1537
40364SOL    HW127950   1.611   0.838  12.002 -0.0800 -0.1530 -0.2786
40364SOL    HW227951   1.491   0.777  11.934 -0.0344 -0.6174  0.0594
40365SOL     OW27952   5.295   8.432   0.321  0.2130 -0.1480 -0.4465
40365SOL    HW127953   5.321   8.502   0.382  1.6586  0.4857 -1.7030
40365SOL    HW227954   5.364   8.366   0.331  0.5435  0.0267 -1.4551
40366SOL     OW27955   1.846   5.434   0.782 -0.3245 -0.3355  0.3114
40366SOL    HW127956   1.782   5.377   0.825 -1.3653  0.0542 -0.6602
40366SOL    HW227957   1.894   5.375   0.723 -2.0083 -0.1221 -1.3714
40367SOL     OW27958  12.450   4.197   4.593  1.2246  0.0075 -0.1334
40367SOL    HW127959  12.445   4.253   4.516  0.4053  0.7168  0.4156
40367SOL    HW227960  12.497   4.119   4.564 -2.9721 -1.8749 -2.6190
40368SOL     OW27961   4.966   5.641   2.941  0.1085 -0.1811 -0.0296
40368SOL    HW127962   4.940   5.733   2.938  1.6874  0.3181  0.5987
40368SOL    HW227963   4.961   5.612   2.850 -2.5825 -0.1729  0.0198
40369SOL     OW27964   2.149   8.936   0.341  0.2593  0.1403  0.1881
40369SOL    HW127965   2.104   8.897   0.266 -0.0410  0.2946  0.2877
40369SOL    HW227966   2.096   8.910   0.416 -0.4806  1.5133  0.1672
40370SOL     OW27967  12.462   9.808  11.565  0.4622  0.0824 -0.5096
40370SOL    HW127968  12.510   9.821  11.647 -1.4231  1.5945  0.4438
40370SOL    HW227969  12.415   9.726  11.577  0.4711  0.1191 -0.2281
40371SOL     OW27970  11.893  11.305   9.135 -0.2272  0.0436  0.3569
40371SOL    HW127971  11.960  11.375   9.132  1.0523 -1.1340  0.4087
40371SOL    HW227972  11.884  11.286   9.229 -0.2302 -0.1742  0.3113
40372SOL     OW27973   4.066   1.667   9.918 -0.5289  0.1052  0.0888
40372SOL    HW127974   4.085   1.723   9.992  1.0399  0.7569 -0.7509
40372SOL    HW227975   4.145   1.614   9.907 -1.4684 -1.3596  0.0512
40373SOL     OW27976   0.597  10.932   0.166 -0.0401 -0.3969  0.4815
40373SOL    HW127977   0.685  10.964   0.186 -1.3396  3.6709  0.5735
40373SOL    HW227978   0.599  10.913   0.072  0.7191  0.6564  0.2643
40374SOL     OW27979   1.038  11.830   0.432  0.0301  0.1301 -0.0733
40374SOL    HW127980   0.988  11.758   0.395  0.6657 -0.6989  0.6401
40374SOL    HW227981   1.112  11.842   0.371 -1.0822  1.4863 -1.2352
40375SOL     OW27982   0.866  10.799   8.604  0.3525  0.1819 -0.4030
40375SOL    HW127983   0.868  10.895   8.611 -0.7541  0.2865 -1.1551
40375SOL    HW227984   0.948  10.777   8.559  0.4606  0.8053 -0.5282
40376SOL     OW27985   7.384   6.733   9.780  0.6159 -0.5162 -0.4523
40376SOL    HW127986   7.367   6.801   9.714 -0.2956 -0.7623 -0.4914
40376SOL    HW227987   7.396   6.782   9.862  3.4602 -0.0757 -1.0202
40377SOL     OW27988   3.602  12.565   4.442  0.1472  0.4674 -0.1571
40377SOL    HW127989   3.548  12.592   4.517 -1.2604  0.9499 -1.2774
40377SOL    HW227990   3.647  12.645   4.416  1.3922  0.0805  0.7318
40378SOL     OW27991   1.502  12.315   2.962  0.5752 -0.3782 -0.3647
40378SOL    HW127992   1.512  12.220   2.961 -1.0670 -0.6066  0.9451
40378SOL    HW227993   1.579  12.347   3.010  0.5524 -1.1448  0.1916
40379SOL     OW27994  12.183   3.021   4.310  0.3113 -0.3035 -0.4559
40379SOL    HW127995  12.114   2.969   4.269  0.4747 -1.8632  1.1464
40379SOL    HW227996  12.158   3.112   4.294 -3.2458 -0.7295  1.7465
40380SOL     OW27997   9.891   7.703   6.971  0.1018  0.1144  0.1828
40380SOL    HW127998   9.914   7.784   6.926  2.3333 -0.0932  0.8136
40380SOL    HW227999   9.974   7.670   7.005 -1.0212 -1.4286  1.6332
40381SOL     OW28000  10.298   3.746  10.602  0.1156  0.1848  0.3610
40381SOL    HW128001  10.323   3.655  10.622  2.7915  0.8257  0.3880
40381SOL    HW228002  10.379   3.796  10.616 -0.3977  2.1220 -2.7340
40382SOL     OW28003  11.973   6.798   5.153  0.5552  0.1263  0.4173
40382SOL    HW128004  12.065   6.816   5.174  1.4071 -1.0267 -1.9839
40382SOL    HW228005  11.940   6.880   5.116  0.0789  1.0395  2.6842
40383SOL     OW28006   1.779   3.735   9.096  0.0126  0.1374 -0.4501
40383SOL    HW128007   1.766   3.750   9.002 -0.4618 -1.1781 -0.6167
40383SOL    HW228008   1.873   3.742   9.108  0.2989 -1.4584 -1.3927
40384SOL     OW28009  10.843  11.705   2.893  0.2174  0.1042  0.0681
40384SOL    HW128010  10.799  11.666   2.968  0.4069 -3.5020 -1.5210
40384SOL    HW228011  10.915  11.756   2.932 -0.3167 -0.7587  2.3416
40385SOL     OW28012   7.597   6.049   4.277  0.3440 -0.6484  0.2880
40385SOL    HW128013   7.524   6.055   4.338  1.5780  1.6745  1.6821
40385SOL    HW228014   7.612   6.140   4.249  1.3207 -1.3538 -1.6940
40386SOL     OW28015   6.680   2.615   0.097  0.4587 -0.3148  0.4024
40386SOL    HW128016   6.736   2.540   0.076 -1.4287 -1.4182 -1.0415
40386SOL    HW228017   6.625   2.585   0.169  2.5933  1.2953  2.9124
40387SOL     OW28018  11.923  12.039   2.183  0.2033  0.1036 -0.0675
40387SOL    HW128019  11.844  12.071   2.228 -1.0643 -0.2237 -1.9192
40387SOL    HW228020  11.937  12.102   2.113  2.6694  1.1006  1.2191
40388SOL     OW28021   3.255   6.145  10.301  0.1655  0.6211  0.1722
40388SOL    HW128022   3.159   6.149  10.310  0.1735 -0.5933  1.1818
40388SOL    HW228023   3.280   6.231  10.268 -1.2289  1.1494  0.4239
40389SOL     OW28024  10.118   3.894   0.749  0.1721 -0.4449  0.0904
40389SOL    HW128025  10.124   3.989   0.739 -2.2445 -0.1548  0.8185
40389SOL    HW228026  10.122   3.880   0.844 -1.8722 -0.8011  0.1647
40390SOL     OW28027   9.369   3.730  11.791 -0.0707 -0.5879 -0.2940
40390SOL    HW128028   9.363   3.727  11.887  2.2285 -0.0522 -0.0904
40390SOL    HW228029   9.396   3.642  11.766  0.2999 -0.4547 -0.3614
40391SOL     OW28030   8.533  11.000   7.536 -0.6103  0.5692  0.5127
40391SOL    HW128031   8.452  10.999   7.587  0.4495 -2.9332  2.4092
40391SOL    HW228032   8.602  11.014   7.600  0.5577 -0.7395 -0.4068
40392SOL     OW28033   8.878   9.894   5.153  0.0439  0.1247  0.1543
40392SOL    HW128034   8.972   9.875   5.157 -0.1094 -0.9832 -1.0265
40392SOL    HW228035   8.870   9.960   5.085 -0.0423  0.2061  0.2433
40393SOL     OW28036   1.149   5.483   1.774  0.0578 -0.0866  0.0302
40393SOL    HW128037   1.154   5.388   1.768 -0.3579 -0.0744 -0.6300
40393SOL    HW228038   1.089   5.508   1.704  1.6472  0.8170 -1.0708
40394SOL     OW28039   5.824   0.970   6.786  0.1256 -0.3398  0.2141
40394SOL    HW128040   5.903   0.919   6.768  0.9034  1.2732 -1.1305
40394SOL    HW228041   5.856   1.057   6.810 -1.2396  0.4331 -0.6435
40395SOL     OW28042   2.985   6.117   1.767  0.4841  0.2422  0.3979
40395SOL    HW128043   2.999   6.093   1.676 -2.2259  0.1034 -0.0773
40395SOL    HW228044   3.002   6.211   1.771 -0.9989  0.5950 -0.7036
40396SOL     OW28045   8.542   3.401   3.791  0.1054  0.4453 -0.1784
40396SOL    HW128046   8.629   3.426   3.758  1.0986 -1.3333  0.9218
40396SOL    HW228047   8.515   3.328   3.735 -0.4007  0.5657 -0.0972
40397SOL     OW28048   9.772  12.107   5.167  0.6319 -0.0887  0.1195
40397SOL    HW128049   9.781  12.201   5.152 -1.4917  0.3008  0.9766
40397SOL    HW228050   9.850  12.069   5.126  0.3323  1.7929 -2.4672
40398SOL     OW28051   2.645   7.565   7.887 -0.7038  0.3389 -0.3131
40398SOL    HW128052   2.732   7.524   7.894  0.8467  3.1597 -1.4713
40398SOL    HW228053   2.628   7.601   7.973  0.6630  2.2200 -0.7800
40399SOL     OW28054  12.076  10.402   0.846 -0.4357  0.3931 -0.1731
40399SOL    HW128055  11.989  10.407   0.806 -0.8175 -0.8128  0.4519
40399SOL    HW228056  12.122  10.479   0.812 -1.5225  0.6984 -1.0369
40400SOL     OW28057  10.710   3.088   6.096  0.2679  0.2110  0.0021
40400SOL    HW128058  10.717   2.999   6.063 -0.5243  0.0994  0.1048
40400SOL    HW228059  10.691   3.141   6.018  1.3504  0.3866 -0.1518
40401SOL     OW28060   7.388   9.471  12.475 -0.0068 -0.3955  0.9186
40401SOL    HW128061   7.346   9.527  12.540  0.8066  3.0002 -1.2336
40401SOL    HW228062   7.480   9.470  12.499  0.0785 -0.2784  0.6101
40402SOL     OW28063  12.076   2.932   9.038 -0.9909 -0.3873 -0.2790
40402SOL    HW128064  12.163   2.972   9.049 -0.0706 -2.4881  0.5811
40402SOL    HW228065  12.046   2.913   9.127 -1.2708 -1.7881 -0.6477
40403SOL     OW28066   7.420   9.674  10.547 -0.1722 -0.2396 -0.0296
40403SOL    HW128067   7.504   9.716  10.565  0.3875 -1.4121  0.2296
40403SOL    HW228068   7.405   9.690  10.454  0.3883 -0.0883 -0.0965
40404SOL     OW28069  10.149   5.350   9.599 -0.3631 -0.0096 -0.4659
40404SOL    HW128070  10.241   5.373   9.609 -0.1412 -0.2348 -1.7686
40404SOL    HW228071  10.102   5.418   9.647  0.4664  0.3412 -0.1319
40405SOL     OW28072   6.943   7.190  12.272 -0.0348  0.3440  0.4087
40405SOL    HW128073   6.848   7.180  12.284 -0.0581 -0.2717 -0.1999
40405SOL    HW228074   6.979   7.104  12.295  0.3897  0.6028  0.7253
40406SOL     OW28075  12.160   3.547   8.759 -0.0485 -0.3431  0.2757
40406SOL    HW128076  12.234   3.598   8.725  0.7883 -1.2878  0.6247
40406SOL    HW228077  12.182   3.531   8.850  0.3709 -2.4555 -0.1540
40407SOL     OW28078   9.049   7.524   0.636  0.2694  0.1454 -0.0326
40407SOL    HW128079   9.121   7.461   0.633  0.1880  0.0757 -0.6944
40407SOL    HW228080   9.049   7.556   0.726  0.3549 -0.7488  0.2959
40408SOL     OW28081  12.300  10.686   1.666 -0.4582 -0.2513 -0.2180
40408SOL    HW128082  12.208  10.675   1.642 -0.4867  0.3292 -0.3920
40408SOL    HW228083  12.339  10.600   1.651 -1.0052 -0.5505  0.0182
40409SOL     OW28084   1.331   4.385   1.421  1.0206 -0.9846  0.1094
40409SOL    HW128085   1.388   4.461   1.420 -0.3716  0.0970 -1.2156
40409SOL    HW228086   1.328   4.356   1.330 -2.2156  0.3797 -0.3763
40410SOL     OW28087   5.778   0.162  10.792  0.5053  0.5666 -0.4353
40410SOL    HW128088   5.757   0.221  10.864 -1.1607  0.2742 -0.6534
40410SOL    HW228089   5.734   0.080  10.814  1.6153 -0.1591 -0.8376
40411SOL     OW28090   4.833  12.409  11.435 -0.5131 -0.2241  0.1934
40411SOL    HW128091   4.913  12.358  11.419  0.2760  1.0978 -0.1661
40411SOL    HW228092   4.832  12.422  11.530  0.6482  1.1998  0.0499
40412SOL     OW28093   1.308  12.507   3.849  0.2180 -0.3144 -0.2988
40412SOL    HW128094   1.321  12.587   3.798  0.9925 -0.7632 -0.8305
40412SOL    HW228095   1.229  12.525   3.902 -0.9197 -0.0103 -2.0059
40413SOL     OW28096   6.782  10.786   8.736  0.5281  0.3045 -0.2923
40413SOL    HW128097   6.805  10.740   8.817  1.4437  0.6480 -0.3500
40413SOL    HW228098   6.731  10.862   8.766  0.8953  0.4513 -0.0326
40414SOL     OW28099   1.379   5.749   9.720  0.0977 -0.0158 -0.1087
40414SOL    HW128100   1.337   5.797   9.792  2.8884  1.2601  0.8158
40414SOL    HW228101   1.458   5.712   9.759  0.0523 -2.0668 -1.8085
40415SOL     OW28102  12.132   1.085   0.405 -0.7247 -0.7419  0.3712
40415SOL    HW128103  12.134   1.113   0.497  2.0692  0.7888 -0.0546
40415SOL    HW228104  12.181   1.003   0.403  2.1780  0.8877 -0.1160
40416SOL     OW28105   6.276   0.281   6.996  0.5371  0.3934  0.0677
40416SOL    HW128106   6.191   0.324   6.994 -0.8380 -2.1545 -0.4385
40416SOL    HW228107   6.311   0.293   6.908  2.3085  4.1348  1.0573
40417SOL     OW28108  11.744   5.211   4.875  0.1567  0.7377  0.1895
40417SOL    HW128109  11.823   5.161   4.856 -0.4223  0.3004 -1.2094
40417SOL    HW228110  11.707   5.168   4.953  1.3181  1.0125  0.9128
40418SOL     OW28111   7.459   2.917   7.488 -0.2436 -0.3220  0.1812
40418SOL    HW128112   7.537   2.918   7.431  0.6156 -0.2754  1.3137
40418SOL    HW228113   7.441   2.824   7.501  0.0038 -0.3412  0.4036
40419SOL     OW28114   4.121   3.230  10.100 -0.8093 -0.4553 -0.5412
40419SOL    HW128115   4.088   3.182  10.024  0.0416 -0.4680 -0.9200
40419SOL    HW228116   4.208   3.192  10.116 -0.9332 -0.3772  0.3747
40420SOL     OW28117  12.436   4.534   3.070  0.5045  0.1943  0.5005
40420SOL    HW128118  12.434   4.551   3.165  1.5824  0.7220  0.4457
40420SOL    HW228119  12.503   4.467   3.059  0.0039 -0.2584  0.1547
40421SOL     OW28120   1.210   1.238   3.392  1.0083  0.1084  0.2610
40421SOL    HW128121   1.184   1.155   3.351  0.7943  0.1445  0.3215
40421SOL    HW228122   1.200   1.222   3.486 -2.9232  1.4100  0.2514
40422SOL     OW28123  12.158  12.450   4.267 -0.5036  0.0964 -0.3414
40422SOL    HW128124  12.168  12.410   4.354 -1.0654 -0.3359 -0.4711
40422SOL    HW228125  12.123  12.380   4.212  0.0148  0.3161 -0.9656
40423SOL     OW28126  10.242   5.379   0.220 -0.0996 -0.0676 -0.0324
40423SOL    HW128127  10.186   5.455   0.206  0.4018  0.0215 -1.8798
40423SOL    HW228128  10.309   5.408   0.281  1.1300  1.5988 -2.0395
40424SOL     OW28129  11.645   3.177   5.770  0.3494  0.0983 -0.3545
40424SOL    HW128130  11.735   3.146   5.777  0.2344 -0.3344 -0.7236
40424SOL    HW228131  11.636   3.242   5.840  0.7141 -0.4273  0.1895
40425SOL     OW28132   9.108  12.216   1.537 -0.1312 -0.0961  0.2393
40425SOL    HW128133   9.019  12.226   1.502  0.0978  0.2323 -0.2577
40425SOL    HW228134   9.124  12.297   1.585  0.0823  0.0566 -0.0872
40426SOL     OW28135   2.091   3.273   8.708 -0.1196  0.3537 -0.0678
40426SOL    HW128136   2.172   3.317   8.682  1.0661 -1.1833  0.8523
40426SOL    HW228137   2.078   3.205   8.642 -1.0366  0.9774 -0.5588
40427SOL     OW28138   1.389   3.234   1.993  0.3461  0.2441 -0.0395
40427SOL    HW128139   1.482   3.257   1.998  0.3922 -0.2359  2.2447
40427SOL    HW228140   1.386   3.166   1.926  1.2803  1.6860 -1.6433
40428SOL     OW28141   0.788  10.803  11.709  0.1208  0.6599 -0.0183
40428SOL    HW128142   0.745  10.746  11.645 -0.0463  1.1553 -0.3568
40428SOL    HW228143   0.739  10.790  11.790 -0.4267  0.9126 -0.2970
40429SOL     OW28144   2.288   4.699   0.864 -0.4131  0.4789 -0.2960
40429SOL    HW128145   2.273   4.605   0.868 -0.7481  0.5520  0.1567
40429SOL    HW228146   2.253   4.734   0.946  0.1869  0.9342 -0.2213
40430SOL     OW28147   7.468   5.636   5.765  0.1243 -0.5854 -0.5379
40430SOL    HW128148   7.492   5.706   5.826  0.7656 -0.7422 -0.6034
40430SOL    HW228149   7.410   5.679   5.701  0.2667 -0.1892 -0.4059
40431SOL     OW28150   1.358   4.898   8.502  0.4100 -0.3388  0.3172
40431SOL    HW128151   1.326   4.810   8.480  1.7167 -0.6114 -0.6135
40431SOL    HW228152   1.330   4.912   8.593 -2.1771 -0.5884 -0.3548
40432SOL     OW28153   6.610  12.516  11.609  0.3828 -0.3611 -0.4003
40432SOL    HW128154   6.578  12.566  11.684 -0.6116 -0.2862 -0.8608
40432SOL    HW228155   6.592  12.572  11.534 -1.8064 -1.8040 -1.0613
40433SOL     OW28156   7.234   0.406   3.378 -0.1846  0.2017  0.2341
40433SOL    HW128157   7.219   0.453   3.296 -0.9265  1.0935  0.8513
40433SOL    HW228158   7.146   0.391   3.412  0.1433  1.6399  1.8388
40434SOL     OW28159   4.986   2.879  12.451  0.0541 -0.1766 -0.2187
40434SOL    HW128160   4.986   2.789  12.484 -0.5800  0.0593  0.4528
40434SOL    HW228161   4.958   2.871  12.360  1.3543 -0.7843 -0.5928
40435SOL     OW28162   8.352  12.138   5.185 -0.6444  0.2980  0.0759
40435SOL    HW128163   8.350  12.098   5.272  2.0644 -1.6589 -0.6161
40435SOL    HW228164   8.296  12.081   5.131 -0.1559 -0.1009 -0.0163
40436SOL     OW28165   9.559  10.464   4.323 -0.2322  0.2761  0.2403
40436SOL    HW128166   9.582  10.432   4.410 -0.7084  1.1055  0.6775
40436SOL    HW228167   9.471  10.430   4.307  0.7257 -1.9183 -0.9554
40437SOL     OW28168   4.005   8.990   9.897 -0.1984  0.1231  0.3723
40437SOL    HW128169   4.080   8.957   9.847 -0.4881  0.2566 -0.1604
40437SOL    HW228170   4.044   9.043   9.966  0.1886  0.8532 -0.3815
40438SOL     OW28171   4.250   3.461   2.695 -0.2673 -0.4584 -0.1302
40438SOL    HW128172   4.252   3.511   2.613  1.6980 -1.1226 -0.5216
40438SOL    HW228173   4.197   3.383   2.674  0.4631 -0.7685 -0.8746
40439SOL     OW28174  10.482   9.357  10.440 -0.2815  0.2616  0.1119
40439SOL    HW128175  10.541   9.318  10.505 -0.4770  0.7301  0.5795
40439SOL    HW228176  10.403   9.377  10.490  0.8842  4.2021  0.7189
40440SOL     OW28177   6.397   7.760   4.079 -0.6846  0.1967  0.3347
40440SOL    HW128178   6.373   7.683   4.027 -0.8239  0.8603 -0.5845
40440SOL    HW228179   6.493   7.761   4.077 -0.6647 -0.2082  0.7427
40441SOL     OW28180   7.093   4.444   7.161 -0.0196  0.5292 -1.1014
40441SOL    HW128181   7.082   4.529   7.118 -0.5604  0.6643 -0.7050
40441SOL    HW228182   7.016   4.435   7.218  0.5827  0.2724 -0.3010
40442SOL     OW28183  10.859  10.557   8.586  0.1817 -0.2601  0.0682
40442SOL    HW128184  10.952  10.537   8.597  0.0270 -1.0043  0.0199
40442SOL    HW228185  10.857  10.621   8.514  0.6321 -0.4525 -0.1184
40443SOL     OW28186   8.659   0.199  11.968  0.3337 -0.1746 -1.1032
40443SOL    HW128187   8.697   0.279  12.004  1.4763  0.1816 -3.0104
40443SOL    HW228188   8.656   0.138  12.043  0.5421  1.2313  0.0953
40444SOL     OW28189   6.790   4.090   5.578  0.0709  0.0506 -0.1480
40444SOL    HW128190   6.723   4.033   5.540 -0.8320  0.4139  0.8473
40444SOL    HW228191   6.781   4.173   5.531 -2.2514  1.0945  1.9190
40445SOL     OW28192  10.208   6.584   8.194 -0.7455  0.1197 -0.1727
40445SOL    HW128193  10.222   6.672   8.228  0.3362  0.0562 -0.4069
40445SOL    HW228194  10.193   6.531   8.272 -0.7705  0.4052  0.0205
40446SOL     OW28195   9.485   1.812  11.689  0.0966  0.0239  0.6064
40446SOL    HW128196   9.554   1.839  11.629  0.4251 -0.5444  0.7332
40446SOL    HW228197   9.439   1.741  11.643  1.0623 -1.1978  1.4877
40447SOL     OW28198   4.883  12.429   7.596  0.2966 -0.1039  0.1582
40447SOL    HW128199   4.974  12.457   7.606  0.1455  0.4062  0.1369
40447SOL    HW228200   4.833  12.510   7.590 -0.0672 -0.3783 -0.7025
40448SOL     OW28201   2.481   8.512   2.836  0.5030 -0.1522 -0.0413
40448SOL    HW128202   2.514   8.563   2.762  0.3734  0.2273  0.1598
40448SOL    HW228203   2.396   8.480   2.807 -0.0115  0.8537  0.3147
40449SOL     OW28204   9.000   0.843  10.319  0.2195  0.2642 -0.2159
40449SOL    HW128205   9.006   0.846  10.414  1.0212 -1.1552 -0.1934
40449SOL    HW228206   8.964   0.756  10.300 -0.9792  0.9321 -1.1841
40450SOL     OW28207   0.193  12.104  11.943  0.7320  0.0986 -0.6385
40450SOL    HW128208   0.222  12.175  11.885  0.1309  0.3378 -0.6518
40450SOL    HW228209   0.134  12.147  12.005 -0.9463 -0.6592 -1.6444
40451SOL     OW28210  11.872   5.471   5.236  0.3212  0.0863 -0.5193
40451SOL    HW128211  11.786   5.514   5.239  0.2915  0.0466 -0.7738
40451SOL    HW228212  11.929   5.535   5.193  0.9501  1.0091  1.5800
40452SOL     OW28213   4.928   5.887  11.573  0.5342 -0.7091 -0.7224
40452SOL    HW128214   4.983   5.962  11.551  0.9320 -1.0701 -0.9725
40452SOL    HW228215   4.926   5.885  11.669 -0.8278  0.5975 -0.7012
40453SOL     OW28216  10.663   7.567   9.484  0.3387 -0.4399  0.8118
40453SOL    HW128217  10.601   7.560   9.411  0.9203  0.4401  0.2149
40453SOL    HW228218  10.609   7.556   9.562 -0.8632  1.7736  0.3777
40454SOL     OW28219   8.664   4.303   6.249 -0.0454 -0.6928  0.2752
40454SOL    HW128220   8.736   4.344   6.201  1.8009  0.5611  3.7972
40454SOL    HW228221   8.589   4.312   6.190  1.9243  0.8656 -2.2392
40455SOL     OW28222   8.515   8.075   6.002 -0.6601  0.1819  0.5480
40455SOL    HW128223   8.537   8.094   5.911 -1.1307  0.0340  0.4005
40455SOL    HW228224   8.590   8.026   6.035 -1.4037 -1.7451 -0.4228
40456SOL     OW28225  11.181   9.285   4.624 -0.0251  0.0844  0.3515
40456SOL    HW128226  11.147   9.284   4.713  2.1123  0.2249  1.2087
40456SOL    HW228227  11.265   9.240   4.629 -0.3388 -0.8934 -1.8300
40457SOL     OW28228  10.761   3.418   4.151 -0.0258 -0.3672  0.0606
40457SOL    HW128229  10.743   3.420   4.057  0.5162 -1.5279 -0.0862
40457SOL    HW228230  10.731   3.504   4.183 -0.4338 -0.0482 -1.1188
40458SOL     OW28231  11.406  11.760   0.670  0.1066  0.2794  0.8639
40458SOL    HW128232  11.388  11.851   0.647  0.8423  0.1058 -0.5116
40458SOL    HW228233  11.497  11.745   0.643  0.2915 -0.6231  1.8885
40459SOL     OW28234   4.286   5.231   6.082 -0.1027 -0.1107  1.0472
40459SOL    HW128235   4.239   5.158   6.121 -1.6655 -0.4015 -1.1603
40459SOL    HW228236   4.219   5.297   6.067  0.3286 -0.1087 -1.2134
40460SOL     OW28237   3.439   5.617   0.179  0.0724  0.4769  0.2148
40460SOL    HW128238   3.456   5.692   0.121  0.2997  0.2248 -0.0503
40460SOL    HW228239   3.402   5.550   0.121 -2.0409  1.0666  0.7974
40461SOL     OW28240  12.057   2.700   2.762  0.6518  0.2674  0.0389
40461SOL    HW128241  11.986   2.751   2.800  0.1112 -0.0977 -0.4552
40461SOL    HW228242  12.116   2.682   2.835  0.0671  0.2918  0.5224
40462SOL     OW28243   3.580   2.585   4.988  0.1323  0.3994  0.0481
40462SOL    HW128244   3.503   2.571   5.043  0.1926 -1.9151 -0.3379
40462SOL    HW228245   3.589   2.680   4.983 -1.7325  0.7138  1.4175
40463SOL     OW28246   8.598  10.007   6.157 -0.0659  1.1985  0.0929
40463SOL    HW128247   8.556   9.948   6.220  0.4552  1.2647  0.5129
40463SOL    HW228248   8.562   9.981   6.072 -0.8471  1.1630  0.4211
40464SOL     OW28249  10.246   7.773   9.536  0.0999 -0.5097  0.0812
40464SOL    HW128250  10.176   7.711   9.556 -0.5497 -0.2372 -1.2175
40464SOL    HW228251  10.224   7.851   9.587 -0.6904 -0.3494 -0.4862
40465SOL     OW28252   9.290   5.158   3.670  0.0180  0.0944  0.0136
40465SOL    HW128253   9.228   5.161   3.597  0.7302  0.1409 -0.5998
40465SOL    HW228254   9.341   5.238   3.661 -0.7199  0.7672  1.3344
40466SOL     OW28255   3.413  10.714   6.621 -0.7489  0.3079  0.8457
40466SOL    HW128256   3.467  10.673   6.555 -0.8796  1.8256 -0.2708
40466SOL    HW228257   3.446  10.680   6.705 -0.4841 -1.5242  0.0296
40467SOL     OW28258   4.788  12.099  10.318 -0.0660 -0.3453 -0.8030
40467SOL    HW128259   4.869  12.049  10.313  1.2545  1.6673 -0.9981
40467SOL    HW228260   4.776  12.135  10.230 -1.4700 -0.9963 -0.9140
40468SOL     OW28261   3.388   0.735   9.700  0.3945  0.4922 -0.1590
40468SOL    HW128262   3.365   0.825   9.724  0.8130  0.5741 -0.0628
40468SOL    HW228263   3.433   0.700   9.777 -1.8148 -0.5784  0.7381
40469SOL     OW28264   1.776  11.153   8.567  0.1553  0.0668  0.3399
40469SOL    HW128265   1.715  11.222   8.593  1.1481  1.5901 -1.1453
40469SOL    HW228266   1.731  11.072   8.587 -1.6800  1.1412  0.7857
40470SOL     OW28267   4.844   1.692  10.383  0.2371  0.0559 -0.6604
40470SOL    HW128268   4.938   1.693  10.365  0.4296 -1.1213  0.1936
40470SOL    HW228269   4.835   1.732  10.470  0.0855 -0.9128 -0.2181
40471SOL     OW28270  10.100   2.857   4.355  0.0781 -0.3523 -0.2632
40471SOL    HW128271  10.044   2.794   4.399 -0.2957 -2.0567 -3.0026
40471SOL    HW228272  10.187   2.840   4.391 -0.4219 -0.6394  0.8742
40472SOL     OW28273   5.215   4.989   0.341  0.1383  0.0478  0.4764
40472SOL    HW128274   5.276   5.062   0.351  0.3760 -0.0767 -0.0088
40472SOL    HW228275   5.129   5.025   0.362 -0.0436  1.0026 -1.6277
40473SOL     OW28276   4.690   2.871   0.916  0.3241 -0.8068  0.0786
40473SOL    HW128277   4.783   2.869   0.940 -0.0789  0.9565  2.0356
40473SOL    HW228278   4.657   2.785   0.941  0.8261 -0.4163  2.3618
40474SOL     OW28279  11.143   3.792   3.854 -0.3686  0.1939  0.2009
40474SOL    HW128280  11.076   3.828   3.913 -0.9194  1.3689 -1.0716
40474SOL    HW228281  11.182   3.870   3.813  0.8530 -0.5434 -0.0866
40475SOL     OW28282   3.940  12.456   0.741  0.1921 -0.0600 -0.4083
40475SOL    HW128283   3.963  12.454   0.648 -1.7578 -0.6595 -0.9194
40475SOL    HW228284   3.918  12.548   0.758  2.1513  0.3959 -0.0662
40476SOL     OW28285   9.090   8.800   6.079  0.1513  0.3240  0.0019
40476SOL    HW128286   9.117   8.773   5.991  0.8479  0.2589  0.2271
40476SOL    HW228287   9.040   8.880   6.066  0.4877  0.4663 -0.4296
40477SOL     OW28288   4.182  11.113   5.892 -0.7197 -1.1815  0.5947
40477SOL    HW128289   4.194  11.195   5.941  0.2391  0.5197 -2.1866
40477SOL    HW228290   4.090  11.113   5.867 -0.4160 -0.0684 -0.6683
40478SOL     OW28291   3.196   6.242   0.704  0.5759 -0.5498 -0.2863
40478SOL    HW128292   3.160   6.260   0.791  0.2229 -0.2672 -0.4892
40478SOL    HW228293   3.267   6.179   0.720  0.2945 -0.7593  0.1670
40479SOL     OW28294   5.644  11.672  11.926 -0.0420 -0.4345 -0.5250
40479SOL    HW128295   5.682  11.673  11.838 -0.1926 -0.2955 -0.5888
40479SOL    HW228296   5.631  11.579  11.945 -0.2614 -0.4501 -0.7572
40480SOL     OW28297  12.175   8.003   4.610  0.0968  0.2602  0.0704
40480SOL    HW128298  12.195   8.001   4.517  3.1091 -1.0322  0.6180
40480SOL    HW228299  12.205   8.089   4.639 -0.2062  0.4004 -0.0306
40481SOL     OW28300  10.761   2.524   9.600  0.1407 -0.5934 -0.0245
40481SOL    HW128301  10.741   2.535   9.507  1.3717 -3.0476 -0.6457
40481SOL    HW228302  10.849   2.563   9.610 -0.2037  0.1352  0.2576
40482SOL     OW28303   8.558   0.634  11.111  0.6330 -0.2369 -0.1004
40482SOL    HW128304   8.541   0.589  11.029  0.9723 -1.2217  0.3637
40482SOL    HW228305   8.630   0.694  11.091  0.9667 -0.7449 -0.4250
40483SOL     OW28306   2.371  12.041   2.945 -0.0855  1.0620  0.8279
40483SOL    HW128307   2.353  12.089   2.865  0.8856  0.5233  0.2795
40483SOL    HW228308   2.285  12.008   2.973 -0.3493  0.7465 -0.3139
40484SOL     OW28309   2.192   9.768  10.346 -0.4522 -0.4202  0.2578
40484SOL    HW128310   2.242   9.835  10.299 -0.8617 -0.3876 -0.1387
40484SOL    HW228311   2.217   9.685  10.304 -0.3775 -0.4523  0.3672
40485SOL     OW28312   5.915   1.836   9.902 -0.8811  0.0654 -0.1529
40485SOL    HW128313   5.960   1.751   9.905 -1.1923 -0.1446  3.8447
40485SOL    HW228314   5.944   1.875   9.820  3.2034 -1.8571  0.1160
40486SOL     OW28315   8.504   4.868   5.727  0.2282  0.7870 -0.0123
40486SOL    HW128316   8.463   4.899   5.808  0.4351  0.3558  0.2591
40486SOL    HW228317   8.593   4.845   5.752  0.3388  0.7908 -0.3944
40487SOL     OW28318  10.506  11.161  10.071  0.0640 -0.1403 -0.1053
40487SOL    HW128319  10.463  11.103  10.008  0.1891 -1.1800  0.7393
40487SOL    HW228320  10.443  11.170  10.143  0.4088  0.0306  0.1814
40488SOL     OW28321   3.427   7.692   6.098  0.2129  0.1705 -0.0109
40488SOL    HW128322   3.362   7.713   6.165 -0.6921  2.3500 -1.4757
40488SOL    HW228323   3.505   7.741   6.125 -0.2662  1.3443 -0.7054
40489SOL     OW28324  12.009   5.774  10.175 -0.8730  0.1653  0.3867
40489SOL    HW128325  12.060   5.772  10.256 -0.6792  0.0163  0.2611
40489SOL    HW228326  11.927   5.729  10.197 -0.8840  0.2615  0.5418
40490SOL     OW28327   0.617  10.735   3.364 -0.1792 -0.0406  0.4717
40490SOL    HW128328   0.539  10.680   3.371  0.8418 -1.6452 -0.3708
40490SOL    HW228329   0.688  10.681   3.398  0.6096  1.3485  1.1045
40491SOL     OW28330   0.070   4.747  12.104  0.3249  0.2621 -0.0772
40491SOL    HW128331   0.082   4.677  12.040  0.5830  1.7268 -1.7074
40491SOL    HW228332  -0.006   4.795  12.073  0.2775  0.8401  0.8938
40492SOL     OW28333   4.045   1.758   8.669  0.3236 -0.1976  0.2480
40492SOL    HW128334   4.116   1.799   8.718  1.1220 -1.6290  0.3332
40492SOL    HW228335   4.084   1.731   8.586 -0.1794 -0.7686  0.1840
40493SOL     OW28336   3.062   6.928   6.630 -0.3956 -0.5238  0.6264
40493SOL    HW128337   3.151   6.953   6.656  0.3959 -1.9142 -0.5796
40493SOL    HW228338   3.035   6.998   6.571 -0.2704  0.1099  1.3012
40494SOL     OW28339   0.031   4.868   0.034  0.1172 -0.1669 -0.1870
40494SOL    HW128340   0.115   4.910   0.055 -0.2575 -0.0456  1.1598
40494SOL    HW228341   0.055   4.794  -0.022  0.6965  2.5785 -3.9152
40495SOL     OW28342   9.120   3.972  11.410  0.0856 -0.2664 -0.6267
40495SOL    HW128343   9.119   3.973  11.505 -1.0140 -0.5374 -0.6189
40495SOL    HW228344   9.170   4.050  11.385  1.5206 -0.9074  0.1623
40496SOL     OW28345   4.296  10.744  11.358 -0.1649 -0.0555  0.1790
40496SOL    HW128346   4.325  10.772  11.445  0.5014  0.1308 -0.1043
40496SOL    HW228347   4.359  10.782  11.298  0.9194 -2.3130 -0.2307
40497SOL     OW28348  10.371   0.138   0.499 -0.2997  0.1201  0.5958
40497SOL    HW128349  10.363   0.052   0.459  1.6815 -0.7960  1.9718
40497SOL    HW228350  10.416   0.192   0.433  1.0347 -0.7633  0.7333
40498SOL     OW28351   6.622   3.466   8.644 -0.0536  0.1452 -0.4447
40498SOL    HW128352   6.663   3.521   8.577  0.1387  0.8862  0.2607
40498SOL    HW228353   6.575   3.528   8.699 -0.3929 -0.4830 -0.0232
40499SOL     OW28354  11.259   7.313   1.202  0.5899 -0.2553 -0.3237
40499SOL    HW128355  11.191   7.247   1.214 -0.2955  0.6104 -0.4605
40499SOL    HW228356  11.262   7.328   1.108  0.5775  0.1094 -0.2671
40500SOL     OW28357   5.703   6.968   6.561 -0.5718  0.0783  0.6139
40500SOL    HW128358   5.625   6.982   6.615 -0.1029  1.8725  0.8742
40500SOL    HW228359   5.676   6.995   6.473 -0.6592 -0.6922  0.3958
40501SOL     OW28360   3.454   7.322  12.048 -0.2040 -0.0598  0.6449
40501SOL    HW128361   3.440   7.280  11.963 -0.7406  0.8649  0.2655
40501SOL    HW228362   3.456   7.249  12.110  2.5054 -0.9874 -0.3756
40502SOL     OW28363   6.678   0.288   3.244  0.0525 -0.1666  0.4366
40502SOL    HW128364   6.667   0.212   3.301 -1.3909  0.6218  1.2726
40502SOL    HW228365   6.712   0.252   3.161  1.5734 -1.4083  1.5388
40503SOL     OW28366   1.483   0.207   5.152 -0.3942  0.5741 -0.7084
40503SOL    HW128367   1.450   0.166   5.232 -1.2209 -0.0004 -1.3252
40503SOL    HW228368   1.405   0.248   5.113 -0.6480 -1.5987 -2.6799
40504SOL     OW28369  10.447   5.460   1.416  0.6898 -0.0277  0.0787
40504SOL    HW128370  10.455   5.381   1.469  1.5399 -1.3375 -1.8897
40504SOL    HW228371  10.512   5.520   1.453  0.4666 -0.4557  1.2123
40505SOL     OW28372  10.621   9.738   0.712  0.1005  0.1490 -0.2370
40505SOL    HW128373  10.568   9.783   0.646  1.3044 -0.3912 -1.6336
40505SOL    HW228374  10.697   9.795   0.724  1.1657 -0.9858 -1.3043
40506SOL     OW28375   1.080   5.522   6.256  0.1437 -0.1982  0.0774
40506SOL    HW128376   1.119   5.437   6.235  0.8069  0.1364 -0.0876
40506SOL    HW228377   1.155   5.581   6.264 -0.3356  0.4734 -0.2721
40507SOL     OW28378   8.789   2.891   6.788 -0.2769 -0.2550 -0.4549
40507SOL    HW128379   8.883   2.875   6.800 -0.0152  1.4316 -0.0078
40507SOL    HW228380   8.785   2.960   6.721 -1.0408  1.4645  1.2688
40508SOL     OW28381   3.903   5.395   9.108  0.6027  0.1463 -0.5156
40508SOL    HW128382   3.810   5.410   9.089  0.6275  1.2106  0.0963
40508SOL    HW228383   3.948   5.448   9.042  0.9785 -3.5830 -3.6637
40509SOL     OW28384   3.836   8.205   7.717  0.2042 -0.7187 -0.1816
40509SOL    HW128385   3.909   8.243   7.765 -0.4642  0.5435 -0.1139
40509SOL    HW228386   3.869   8.122   7.683  1.7627 -0.0205 -0.4335
40510SOL     OW28387   1.884   6.198   9.694 -0.1413 -0.4058 -0.4950
40510SOL    HW128388   1.804   6.250   9.679  0.4507  0.4987 -0.6223
40510SOL    HW228389   1.907   6.215   9.785 -0.6609 -1.4895 -0.1563
40511SOL     OW28390   7.932  10.705   1.551  0.5408  0.2174 -0.2220
40511SOL    HW128391   7.928  10.732   1.643 -0.5924  2.0921 -0.7598
40511SOL    HW228392   7.909  10.612   1.553 -2.4706  0.8496  1.1796
40512SOL     OW28393  11.855   9.563   8.309 -0.7382  0.0765  0.7925
40512SOL    HW128394  11.864   9.477   8.268 -0.2728  0.2833  0.4525
40512SOL    HW228395  11.784   9.552   8.372 -0.8308 -0.4974  0.5936
40513SOL     OW28396  11.076   5.022   7.352  0.4819 -0.7720 -0.5282
40513SOL    HW128397  11.053   4.959   7.284  0.5341 -2.6552  1.0914
40513SOL    HW228398  11.171   5.031   7.346  0.4880 -0.9509 -0.6898
40514SOL     OW28399   6.621  11.400   6.319 -0.5410 -0.1450 -0.3045
40514SOL    HW128400   6.582  11.419   6.234 -0.7703 -0.7651 -0.3410
40514SOL    HW228401   6.547  11.388   6.378 -0.3858  0.1323 -0.0480
40515SOL     OW28402  12.562   8.887   6.065 -0.9040  0.2165  0.0022
40515SOL    HW128403  12.514   8.835   6.001 -0.6300  0.0423 -0.0647
40515SOL    HW228404  12.508   8.883   6.144 -1.1489  0.2756 -0.1631
40516SOL     OW28405   4.086  11.874  11.490 -0.3203  0.3593  0.1304
40516SOL    HW128406   4.164  11.925  11.515  0.5688 -0.2343 -1.2721
40516SOL    HW228407   4.029  11.878  11.566  1.1010  0.7876  1.2151
40517SOL     OW28408   9.579   9.824   5.485  0.0146 -0.6996  0.1688
40517SOL    HW128409   9.574   9.911   5.446  0.4328 -0.0750  1.4441
40517SOL    HW228410   9.585   9.764   5.411  0.7553  0.4281 -0.7164
40518SOL     OW28411   1.199   7.317  12.305  0.7021 -0.1854 -0.0964
40518SOL    HW128412   1.239   7.404  12.305  1.2695 -0.4467 -0.6048
40518SOL    HW228413   1.271   7.257  12.288  0.2821 -0.7498  0.0870
40519SOL     OW28414  12.185   9.040   0.016  0.1465  0.4018 -0.3281
40519SOL    HW128415  12.143   9.108  -0.036  1.1453  0.9152 -0.4819
40519SOL    HW228416  12.245   9.087   0.074 -1.3341 -0.1057  1.7276
40520SOL     OW28417   7.307  11.908  10.971 -0.6775 -0.0319  0.0576
40520SOL    HW128418   7.311  11.996  10.933  2.1629  0.1859  0.6660
40520SOL    HW228419   7.332  11.920  11.062 -1.4134 -1.3417  0.4577
40521SOL     OW28420   1.156   1.568   3.115 -0.0751 -0.8179  0.8097
40521SOL    HW128421   1.070   1.583   3.154 -0.0490  0.0750  0.5473
40521SOL    HW228422   1.139   1.507   3.044 -0.9043  1.0366 -0.6856
40522SOL     OW28423  10.792   6.570  11.224  0.4088  0.4742  0.6519
40522SOL    HW128424  10.787   6.530  11.137 -2.8515  0.8360  0.5683
40522SOL    HW228425  10.754   6.657  11.213  0.7982  0.8818  2.2905
40523SOL     OW28426   1.531  11.986   4.179 -0.1088  0.0393 -0.1690
40523SOL    HW128427   1.571  12.070   4.204 -0.9113  0.0238  1.2942
40523SOL    HW228428   1.573  11.922   4.237 -0.4151 -0.3786 -0.4021
40524SOL     OW28429   4.784   8.366   6.359 -0.1018 -0.2086 -0.0059
40524SOL    HW128430   4.814   8.449   6.322  1.4908 -1.2686 -1.2483
40524SOL    HW228431   4.694   8.358   6.327  0.4188  0.0903 -1.6906
40525SOL     OW28432   3.168   4.196   3.696  0.8529  0.4827  0.4707
40525SOL    HW128433   3.080   4.163   3.675  1.3344  0.8127 -2.4946
40525SOL    HW228434   3.166   4.209   3.791 -2.1518  0.0709  0.5824
40526SOL     OW28435   9.661  10.773   4.831  0.2335 -0.1695 -0.6254
40526SOL    HW128436   9.755  10.791   4.834 -0.1132  1.9267 -0.8757
40526SOL    HW228437   9.640  10.769   4.738 -0.0339 -0.0072 -0.5718
40527SOL     OW28438   6.060   3.119   5.980 -0.0837 -0.0670  0.0432
40527SOL    HW128439   6.037   3.207   6.012  0.0520 -0.0456  0.0794
40527SOL    HW228440   6.151   3.107   6.004 -0.2488 -0.4337  0.5123
40528SOL     OW28441   0.296   0.307   0.389 -0.2738 -0.6092 -0.3795
40528SOL    HW128442   0.313   0.307   0.294  3.0876 -0.1017  0.0722
40528SOL    HW228443   0.363   0.248   0.425 -1.6797 -1.0461  1.6889
40529SOL     OW28444   5.606   6.802   5.805 -0.0461 -0.0257  0.3377
40529SOL    HW128445   5.681   6.755   5.769 -0.8518 -1.2645  0.2191
40529SOL    HW228446   5.591   6.874   5.743  0.4101 -0.3820 -0.1974
40530SOL     OW28447   0.184   3.147   7.498 -0.0444 -0.0291 -0.5283
40530SOL    HW128448   0.147   3.062   7.519 -0.7586  0.7149  1.5187
40530SOL    HW228449   0.112   3.209   7.512  0.4684  0.9344 -1.9215
40531SOL     OW28450  12.572   3.285   2.464 -0.4275 -0.1529  0.7063
40531SOL    HW128451  12.503   3.219   2.465  0.4124 -1.0672  0.7667
40531SOL    HW228452  12.653   3.234   2.456  0.1276  0.9865 -1.7003
40532SOL     OW28453   8.811  11.421   4.237  0.8908 -0.0383  0.2473
40532SOL    HW128454   8.743  11.372   4.283 -0.8847  1.6008 -0.4780
40532SOL    HW228455   8.784  11.420   4.145 -0.2104  3.5041  0.3515
40533SOL     OW28456   1.867   3.801   7.653  0.1210 -0.1805 -0.2477
40533SOL    HW128457   1.847   3.853   7.730  0.4907 -2.0910  1.2305
40533SOL    HW228458   1.930   3.853   7.604 -1.1846  1.6913 -0.0243
40534SOL     OW28459   4.149  11.854   9.192  0.1168  0.5566 -0.3933
40534SOL    HW128460   4.208  11.900   9.252  1.7526  0.4578 -1.8486
40534SOL    HW228461   4.067  11.844   9.241  1.2235  0.9145  1.6114
40535SOL     OW28462  10.011   0.571  12.232 -0.4992 -0.2988 -0.3216
40535SOL    HW128463  10.101   0.555  12.260 -0.2103  0.0120 -1.0479
40535SOL    HW228464   9.958   0.527  12.298  0.1303  0.7973  0.9838
40536SOL     OW28465   9.688  10.875  12.167  0.1451  0.1605  0.2017
40536SOL    HW128466   9.670  10.855  12.075 -1.1224 -2.2474  0.8696
40536SOL    HW228467   9.709  10.968  12.168 -0.3598  0.3853 -2.4370
40537SOL     OW28468   2.153  11.082   1.161  0.3760 -0.5627 -0.8649
40537SOL    HW128469   2.096  11.113   1.090  1.1050  0.2762 -1.1090
40537SOL    HW228470   2.101  11.016   1.207 -1.1067  0.7503 -0.5646
40538SOL     OW28471   1.204   1.882   8.507  0.3431  0.3599 -0.1775
40538SOL    HW128472   1.298   1.869   8.519 -0.2887 -3.2745  2.2618
40538SOL    HW228473   1.187   1.852   8.418  1.1102 -2.5417  0.5568
40539SOL     OW28474  11.907   2.604  10.996  0.1960 -0.5242 -0.1270
40539SOL    HW128475  11.884   2.696  11.007  0.4762 -0.4876  0.1903
40539SOL    HW228476  11.992   2.606  10.951 -0.0722 -0.6419 -0.6517
40540SOL     OW28477   0.205   0.129  11.348 -0.3467  0.2774  0.2308
40540SOL    HW128478   0.279   0.096  11.399 -0.6360  1.6282  1.6025
40540SOL    HW228479   0.137   0.063  11.359  0.1053 -0.1819  0.3259
40541SOL     OW28480  10.680   8.957   4.325 -0.3330 -0.3824 -0.7175
40541SOL    HW128481  10.636   8.951   4.240  0.1172 -0.3729 -0.9564
40541SOL    HW228482  10.724   8.873   4.335  1.7599  0.5059 -1.7086
40542SOL     OW28483   3.339   6.431   1.457  0.0471  0.1697  0.1983
40542SOL    HW128484   3.316   6.524   1.464  0.8342  0.3456  0.5613
40542SOL    HW228485   3.264   6.385   1.495 -0.8317  0.5889 -0.9567
40543SOL     OW28486   6.410   9.808  11.323 -0.1091 -0.4670 -0.0136
40543SOL    HW128487   6.321   9.816  11.356 -0.3145 -0.7055 -0.5172
40543SOL    HW228488   6.461   9.867  11.379 -0.9147  1.2954 -1.0449
40544SOL     OW28489   2.658   3.564   1.280 -0.3658 -0.2979 -0.0328
40544SOL    HW128490   2.648   3.634   1.345  0.2971 -0.3447  0.1299
40544SOL    HW228491   2.569   3.532   1.266 -0.4396 -0.9524  1.6102
40545SOL     OW28492   2.583   3.495   0.165 -0.2611 -0.3782  0.0114
40545SOL    HW128493   2.592   3.497   0.261  2.6381  0.2033 -0.1605
40545SOL    HW228494   2.652   3.554   0.134 -2.6401  1.3603 -2.4299
40546SOL     OW28495   9.190   6.048   4.886  0.1217  0.3958 -0.2968
40546SOL    HW128496   9.259   6.075   4.825  0.2478 -2.2822 -1.4747
40546SOL    HW228497   9.112   6.040   4.832  0.0605 -1.3024 -0.0282
40547SOL     OW28498   0.725  10.852  10.968  0.4868  0.7492  0.1465
40547SOL    HW128499   0.698  10.803  10.891  1.0945  0.6518 -0.0123
40547SOL    HW228500   0.669  10.819  11.039  1.0450 -0.3504  0.0952
40548SOL     OW28501   0.068   5.509  11.086 -0.0389  0.0010 -0.1479
40548SOL    HW128502   0.144   5.497  11.028 -0.9976  2.3011 -2.0879
40548SOL    HW228503   0.097   5.575  11.149  0.2900 -0.8687  0.6319
40549SOL     OW28504   6.968   8.479   4.358 -0.1383 -0.0830  0.6293
40549SOL    HW128505   6.939   8.531   4.284  0.8302  0.5071  0.6525
40549SOL    HW228506   7.036   8.421   4.322 -0.3841 -0.5091  0.8431
40550SOL     OW28507   3.440   1.189   3.326 -0.2885  0.2329  0.1853
40550SOL    HW128508   3.429   1.216   3.417 -1.6692 -0.1169  0.1391
40550SOL    HW228509   3.386   1.250   3.276  1.9158  1.6191 -0.6394
40551SOL     OW28510   7.272   3.686   6.701 -0.0290  0.2641 -0.2536
40551SOL    HW128511   7.284   3.779   6.684 -0.6072  0.3792 -0.0422
40551SOL    HW228512   7.236   3.682   6.790  1.8205 -0.2620  0.5463
40552SOL     OW28513   0.678   6.439  12.498 -0.3704 -0.5432 -0.6158
40552SOL    HW128514   0.697   6.371  12.563  0.5914  0.3333  0.0581
40552SOL    HW228515   0.732   6.513  12.524 -1.4800  0.5418 -1.2521
40553SOL     OW28516   9.992   7.917   1.261  0.6244  0.2717 -0.0719
40553SOL    HW128517  10.024   8.007   1.254  1.8505 -0.0412  1.1162
40553SOL    HW228518  10.071   7.863   1.252 -0.2157 -0.7760 -1.8749
40554SOL     OW28519   4.475  10.453   0.867 -0.4777  0.2467 -0.1071
40554SOL    HW128520   4.563  10.489   0.863 -0.7454  0.8155 -1.2334
40554SOL    HW228521   4.476  10.396   0.944  0.4112  1.4346  0.8085
40555SOL     OW28522   9.394   4.978   0.435  0.2146  0.0712 -0.4157
40555SOL    HW128523   9.374   5.061   0.391 -0.1503  1.0206  1.4056
40555SOL    HW228524   9.309   4.936   0.446  0.2817 -0.0761 -0.4602
40556SOL     OW28525  10.848   9.052   8.960  0.7182 -0.2671  0.6527
40556SOL    HW128526  10.897   9.067   9.041  0.8666  0.8163  0.3747
40556SOL    HW228527  10.758   9.076   8.982  0.7064 -0.2331  0.5672
40557SOL     OW28528   9.736   1.688  10.500 -0.0515  0.3244 -0.4635
40557SOL    HW128529   9.645   1.657  10.504 -0.0927  0.5687  0.8122
40557SOL    HW228530   9.765   1.665  10.411 -1.2002 -0.1859 -0.7273
40558SOL     OW28531  11.320   9.814  10.102  0.2350 -0.5988 -0.0157
40558SOL    HW128532  11.391   9.751  10.088  0.1156 -0.8290  0.4030
40558SOL    HW228533  11.320   9.868  10.023  2.9868  1.4685  1.2230
40559SOL     OW28534   7.747   0.161   6.364  0.0419 -0.0528  0.3905
40559SOL    HW128535   7.765   0.141   6.456  0.8334  2.1670  0.7769
40559SOL    HW228536   7.790   0.091   6.315  2.0663  0.2253  1.6469
40560SOL     OW28537  10.074   7.200   1.931  0.2874  0.2521  0.0480
40560SOL    HW128538  10.105   7.282   1.970 -0.4411  0.8747 -0.6341
40560SOL    HW228539  10.135   7.183   1.859 -0.1830  0.7737 -0.4778
40561SOL     OW28540   4.567   8.334  10.191  0.1410  0.3109 -0.3097
40561SOL    HW128541   4.562   8.293  10.105 -0.4606  0.9317 -0.5780
40561SOL    HW228542   4.499   8.401  10.190 -0.6955 -0.4769  1.0951
40562SOL     OW28543   6.827  10.787  12.108  0.3666  0.6332 -0.1612
40562SOL    HW128544   6.811  10.874  12.146 -0.1622  0.4017  0.1544
40562SOL    HW228545   6.744  10.763  12.067 -0.1507 -0.5951  1.4981
40563SOL     OW28546   1.817   3.911   5.630  0.3417  0.0348  0.4858
40563SOL    HW128547   1.730   3.878   5.652 -1.0032  1.1485 -2.6321
40563SOL    HW228548   1.825   3.993   5.679 -0.9461  0.6036 -0.2344
40564SOL     OW28549   9.006   3.608   6.030 -0.1851 -0.1847  0.1980
40564SOL    HW128550   8.997   3.618   5.935 -1.2151  0.5136  0.3483
40564SOL    HW228551   9.055   3.527   6.041  2.6895  1.2336 -0.9975
40565SOL     OW28552   2.071   3.762   2.863 -0.0007 -0.3462 -0.0265
40565SOL    HW128553   2.099   3.781   2.773 -0.4860  0.0292 -0.0999
40565SOL    HW228554   2.141   3.707   2.898 -0.0965 -1.0098 -0.8361
40566SOL     OW28555   9.106   0.404   2.207 -0.0466  0.2160 -0.3861
40566SOL    HW128556   9.073   0.370   2.290  2.2309 -0.7392  0.2028
40566SOL    HW228557   9.028   0.430   2.159 -1.4399  0.9048  2.0792
40567SOL     OW28558  12.420  10.693   9.115  0.1581  0.4848 -0.1141
40567SOL    HW128559  12.442  10.769   9.061  3.4012 -0.9302 -1.0083
40567SOL    HW228560  12.328  10.674   9.094 -0.5428  3.6147 -0.4224
40568SOL     OW28561  10.477   9.678   8.991  1.0262  0.0973 -0.5440
40568SOL    HW128562  10.477   9.671   9.087 -1.5259  0.6089 -0.4411
40568SOL    HW228563  10.570   9.682   8.968  1.7148  0.4508  1.9440
40569SOL     OW28564   6.408   4.190   9.837 -0.6666 -0.1438 -0.0381
40569SOL    HW128565   6.410   4.269   9.783  0.0537  1.1864  1.8191
40569SOL    HW228566   6.400   4.118   9.774  1.6942  1.1742 -2.0297
40570SOL     OW28567   2.377   7.051   2.604 -0.4627  0.0875 -0.2591
40570SOL    HW128568   2.461   7.022   2.569  0.2844  0.5036  1.1034
40570SOL    HW228569   2.392   7.142   2.628 -1.3514  0.1983 -0.0884
40571SOL     OW28570   9.612  11.934   4.033  0.0070  0.0775  0.6205
40571SOL    HW128571   9.613  11.910   3.941  0.4996  2.3097  0.0007
40571SOL    HW228572   9.680  11.880   4.073 -0.0172 -0.6956 -0.3550
40572SOL     OW28573   8.007   2.019   4.301  0.0246  0.4318 -0.0853
40572SOL    HW128574   8.086   1.983   4.342  0.7999 -0.4470 -2.1576
40572SOL    HW228575   7.977   2.086   4.361  2.4357  0.8818  0.7533
40573SOL     OW28576  11.932  12.218   5.919 -0.7784 -0.0200  0.5900
40573SOL    HW128577  11.918  12.125   5.905 -0.7940 -0.1918  1.6719
40573SOL    HW228578  11.992  12.244   5.850 -1.9838 -0.4808 -0.6694
40574SOL     OW28579   4.302   0.659  12.310 -0.3473  0.1148  0.0685
40574SOL    HW128580   4.229   0.676  12.370 -0.1955  0.6622  0.0955
40574SOL    HW228581   4.282   0.710  12.232 -0.0369  0.1914  0.0381
40575SOL     OW28582   2.875   5.282   7.821 -0.2083 -0.7677 -0.9813
40575SOL    HW128583   2.785   5.266   7.851 -0.0144  0.1538  0.1964
40575SOL    HW228584   2.866   5.302   7.728 -1.3291  0.1221 -0.7074
40576SOL     OW28585   6.969   8.749   1.399 -0.1026  0.0216 -0.2210
40576SOL    HW128586   6.931   8.700   1.472  0.6038 -2.2891 -1.3038
40576SOL    HW228587   7.063   8.733   1.405  0.2913  2.2275  0.0169
40577SOL     OW28588  11.425   5.496  12.155 -0.2866 -0.1621 -0.5655
40577SOL    HW128589  11.478   5.543  12.219 -0.5075  0.5146 -0.8704
40577SOL    HW228590  11.352   5.460  12.205 -0.1364 -0.1493 -0.3349
40578SOL     OW28591   4.196   5.478  11.431 -0.2999 -0.7568 -0.1572
40578SOL    HW128592   4.198   5.543  11.360 -0.2571 -0.2803  0.2753
40578SOL    HW228593   4.132   5.512  11.494 -0.1270 -1.0292  0.1723
40579SOL     OW28594  11.763  10.718   0.957 -0.8172 -0.1044  0.2409
40579SOL    HW128595  11.766  10.706   0.863  0.9100 -0.1981  0.2783
40579SOL    HW228596  11.673  10.694   0.982 -0.7860 -1.8449 -1.1428
40580SOL     OW28597   9.626   7.083   7.363 -0.4988  0.2081 -0.1012
40580SOL    HW128598   9.536   7.052   7.357 -0.3091 -0.7527  1.3496
40580SOL    HW228599   9.673   7.033   7.296 -0.7361 -0.5687  0.2950
40581SOL     OW28600   0.250   1.249   3.599  0.1840 -0.0244  0.1842
40581SOL    HW128601   0.263   1.257   3.505 -1.9821  2.7210  0.0145
40581SOL    HW228602   0.217   1.159   3.610  0.4604 -0.4015 -1.6514
40582SOL     OW28603   9.872  10.394   7.582  0.7295  0.6216 -0.0782
40582SOL    HW128604   9.789  10.393   7.628  1.4007 -0.4308  1.2067
40582SOL    HW228605   9.885  10.485   7.555  0.5315  1.4271  2.3080
40583SOL     OW28606  10.812   7.870   4.087 -0.1442 -0.3267  0.3081
40583SOL    HW128607  10.906   7.850   4.084 -0.4737 -1.9093 -1.9398
40583SOL    HW228608  10.777   7.808   4.150  0.4300  1.1347  2.1599
40584SOL     OW28609  12.165   2.164   3.340  0.3454  0.3119 -0.1610
40584SOL    HW128610  12.177   2.259   3.341 -2.3917  0.7433  1.1814
40584SOL    HW228611  12.195   2.136   3.254  1.6685  2.3026 -0.3997
40585SOL     OW28612   6.258   7.548  10.754 -0.4326  0.1320  0.3165
40585SOL    HW128613   6.318   7.564  10.681 -0.3582 -0.3368  0.2692
40585SOL    HW228614   6.197   7.482  10.720 -0.4056 -0.0789  0.6735
40586SOL     OW28615  11.229   8.963   2.889  0.4308  0.5647 -0.2156
40586SOL    HW128616  11.294   9.032   2.905 -1.4209  1.8794  2.4082
40586SOL    HW228617  11.150   9.011   2.863 -1.0039 -0.4500  2.0223
40587SOL     OW28618   7.447   8.504   8.708 -0.6682 -0.0441 -0.1393
40587SOL    HW128619   7.411   8.426   8.664  1.4416 -0.1125 -1.9324
40587SOL    HW228620   7.464   8.566   8.637  0.9409  0.6764  0.8214
40588SOL     OW28621   8.519   2.837   6.459 -0.4098  0.0734 -0.3754
40588SOL    HW128622   8.556   2.888   6.387  1.3106  0.1593  0.5323
40588SOL    HW228623   8.495   2.903   6.525  0.1156 -0.1630  0.0514
40589SOL     OW28624   0.333  10.318   0.196 -0.2847  0.2393  0.5092
40589SOL    HW128625   0.380  10.322   0.112 -0.4753 -1.0260  0.3224
40589SOL    HW228626   0.242  10.339   0.173 -0.4506 -0.6946  0.2901
40590SOL     OW28627   8.838  11.628   9.841  0.3678  0.0797  0.0448
40590SOL    HW128628   8.826  11.693   9.771 -0.1230 -0.4083 -0.3339
40590SOL    HW228629   8.841  11.544   9.795 -1.8350 -0.4339  0.7312
40591SOL     OW28630   4.549   1.412  11.419 -0.2306  0.5255  0.0809
40591SOL    HW128631   4.586   1.327  11.444 -1.0601  0.0238 -0.3473
40591SOL    HW228632   4.621   1.457  11.375  0.6057  0.5753  1.4340
40592SOL     OW28633   4.742   4.874   6.180  0.6050 -0.1459 -0.4796
40592SOL    HW128634   4.691   4.948   6.147  3.5223  1.2490 -2.3223
40592SOL    HW228635   4.826   4.881   6.134  1.6706 -3.5801  0.6517
40593SOL     OW28636   3.904  11.354   8.415  0.0160 -0.0157  0.3439
40593SOL    HW128637   3.941  11.382   8.331 -0.2275  0.6046  0.4413
40593SOL    HW228638   3.973  11.299   8.454 -1.1116 -3.1605 -1.7217
40594SOL     OW28639   4.469  12.046   6.799 -0.2668 -0.0657  0.3261
40594SOL    HW128640   4.557  12.020   6.771 -0.0853  0.4047  0.4339
40594SOL    HW228641   4.419  11.965   6.802  0.4755 -0.5131  1.3906
40595SOL     OW28642   9.761   1.159   0.365 -0.5766 -0.1754  0.3207
40595SOL    HW128643   9.739   1.221   0.295 -0.1451 -0.4263 -0.0391
40595SOL    HW228644   9.857   1.159   0.367 -0.4413 -2.8089 -1.4826
40596SOL     OW28645   9.722  11.552   9.891 -0.2954  0.2023 -0.1557
40596SOL    HW128646   9.689  11.636   9.924  1.7206  0.9038  0.1813
40596SOL    HW228647   9.800  11.575   9.841  0.6487 -1.5214  0.4499
40597SOL     OW28648   1.716   1.367   2.459 -0.3679  0.0458  0.1543
40597SOL    HW128649   1.707   1.277   2.492  0.3012 -0.4288 -0.9257
40597SOL    HW228650   1.643   1.377   2.397  0.0122 -0.0140 -0.3018
40598SOL     OW28651   1.962   4.447  10.967  0.1159 -0.0911 -0.7527
40598SOL    HW128652   1.941   4.514  11.032  1.2310 -0.8088  0.3840
40598SOL    HW228653   2.024   4.489  10.907 -1.5482  0.8408 -1.9138
40599SOL     OW28654   1.908   9.282   4.625  0.3695  0.0858  0.2887
40599SOL    HW128655   1.851   9.333   4.683 -0.8942  0.0926 -0.8992
40599SOL    HW228656   1.983   9.258   4.679  0.4929  2.2848  1.1827
40600SOL     OW28657   1.595   9.896  10.541  0.6129  0.2586  0.1618
40600SOL    HW128658   1.567   9.904  10.632  2.0204  0.6718  0.5799
40600SOL    HW228659   1.606   9.802  10.527 -0.0324  0.1621  0.2742
40601SOL     OW28660   7.848   8.811   7.438 -0.1600 -0.2878 -0.2808
40601SOL    HW128661   7.766   8.816   7.389  0.6089 -0.2547 -1.6262
40601SOL    HW228662   7.888   8.729   7.409  1.7728  1.2037 -2.2016
40602SOL     OW28663   7.234  10.520  10.276  0.4116 -0.2763 -0.5048
40602SOL    HW128664   7.326  10.511  10.301  0.3117  0.7837  0.3249
40602SOL    HW228665   7.213  10.611  10.296 -0.4823 -0.1516 -1.8635
40603SOL     OW28666   3.440   8.996   3.488 -0.0264 -0.0627 -0.4691
40603SOL    HW128667   3.524   9.042   3.491  0.4705 -0.8376 -1.7081
40603SOL    HW228668   3.421   8.973   3.579  1.5948 -0.7262 -0.2766
40604SOL     OW28669   4.778   0.572   0.206  0.1339 -0.1619  0.3352
40604SOL    HW128670   4.791   0.666   0.198 -1.8345  0.0260 -1.8242
40604SOL    HW228671   4.806   0.537   0.121  0.5553 -1.4837  0.9987
40605SOL     OW28672   0.878   2.414   5.255 -0.5180 -0.4938  0.4926
40605SOL    HW128673   0.864   2.479   5.186  0.7849  1.3828  1.9087
40605SOL    HW228674   0.820   2.341   5.231  0.0875 -0.0569 -2.6934
40606SOL     OW28675   7.999   1.646   0.395  0.4405  0.2680  0.0141
40606SOL    HW128676   7.955   1.611   0.318 -1.5173  2.9920 -0.2418
40606SOL    HW228677   8.077   1.690   0.361 -0.1877  1.0847 -0.4117
40607SOL     OW28678   5.552   1.993   5.070 -0.3971 -0.6468 -0.0900
40607SOL    HW128679   5.587   1.905   5.083  0.3253 -0.5064 -0.9557
40607SOL    HW228680   5.618   2.051   5.109 -0.8037 -0.4772  0.3561
40608SOL     OW28681   7.033   4.457   8.679 -0.2815  0.0260  0.0833
40608SOL    HW128682   6.993   4.412   8.605 -1.2292  0.2551  0.4320
40608SOL    HW228683   7.090   4.523   8.639  1.1124 -1.4442 -0.4283
40609SOL     OW28684  11.690  12.358  10.161 -0.1232 -0.0046 -0.7781
40609SOL    HW128685  11.675  12.267  10.188 -0.8259  0.7253  1.5626
40609SOL    HW228686  11.785  12.368  10.163 -0.0533 -0.6412 -0.8071
40610SOL     OW28687   7.513   6.490   3.686  0.0839  0.1834  0.6161
40610SOL    HW128688   7.547   6.404   3.661 -0.9207 -0.7776  2.3728
40610SOL    HW228689   7.586   6.532   3.733 -0.5157 -1.2101  2.9253
40611SOL     OW28690   1.040   3.526   8.769 -0.0483 -0.2866 -0.1281
40611SOL    HW128691   1.071   3.575   8.845  0.9902 -0.0470 -0.6909
40611SOL    HW228692   1.119   3.500   8.723 -0.6651 -0.2000 -1.2750
40612SOL     OW28693   7.566   1.999   4.533 -0.6098 -0.0091 -0.0704
40612SOL    HW128694   7.598   2.058   4.465 -0.2783 -0.3783 -0.2416
40612SOL    HW228695   7.471   1.996   4.520 -0.5451 -0.1122 -0.5490
40613SOL     OW28696   3.929  11.757   1.461  0.2362 -0.0728 -0.0013
40613SOL    HW128697   4.020  11.774   1.488  0.9901 -0.7072 -1.9701
40613SOL    HW228698   3.900  11.840   1.423  1.2206 -0.7685 -2.4620
40614SOL     OW28699   4.717  10.701   5.709 -0.0117 -0.1197  0.3147
40614SOL    HW128700   4.624  10.685   5.692 -0.3077  2.3513 -0.8531
40614SOL    HW228701   4.723  10.714   5.803 -0.0279 -4.4717  1.1165
40615SOL     OW28702   7.547   1.901  10.223 -0.1835 -0.1721 -0.1251
40615SOL    HW128703   7.643   1.895  10.224 -0.2441 -1.4674  1.2225
40615SOL    HW228704   7.517   1.811  10.239 -1.6421  0.0941 -1.1838
40616SOL     OW28705   5.284  12.279   5.237 -0.1673  0.2730  0.0938
40616SOL    HW128706   5.203  12.295   5.285 -0.1692 -0.5561  0.3769
40616SOL    HW228707   5.352  12.322   5.289 -0.1937 -0.4767  0.7637
40617SOL     OW28708  11.810   0.191   2.312  0.4083 -0.2749 -0.1044
40617SOL    HW128709  11.747   0.177   2.240  0.0559 -0.6903  0.2778
40617SOL    HW228710  11.782   0.273   2.352  0.1249 -0.4453  0.0487
40618SOL     OW28711   9.614   6.414   1.909 -0.3307  0.1996  0.1786
40618SOL    HW128712   9.559   6.360   1.852  0.0734  1.4185 -1.4546
40618SOL    HW228713   9.553   6.470   1.956 -0.5976  0.3316 -0.3162
40619SOL     OW28714   5.279   0.894   3.988  0.2392 -0.1050 -0.7313
40619SOL    HW128715   5.299   0.985   4.009  1.4698 -0.8981  2.0156
40619SOL    HW228716   5.186   0.893   3.968  0.1774  1.7264 -0.6570
40620SOL     OW28717   2.860   0.098   5.037 -0.5347  0.1313  0.3856
40620SOL    HW128718   2.772   0.100   5.074 -0.7065  2.3004 -0.0080
40620SOL    HW228719   2.870   0.009   5.003 -1.5175 -1.0014  2.8233
40621SOL     OW28720  12.105   5.289  11.505  0.3810 -0.5149  0.5864
40621SOL    HW128721  12.113   5.197  11.480  0.2465 -0.3798  0.0202
40621SOL    HW228722  12.189   5.310  11.545  0.0165 -1.1779  1.7274
40622SOL     OW28723  10.541   3.420   4.716 -0.6468  0.5141 -0.0173
40622SOL    HW128724  10.592   3.501   4.717 -0.2201  0.2471  0.8150
40622SOL    HW228725  10.458   3.444   4.675 -1.0329  1.6850  1.3481
40623SOL     OW28726   3.053   0.674   0.891 -0.4466  0.1035 -0.2098
40623SOL    HW128727   3.027   0.680   0.799 -1.7329 -0.0393  0.1157
40623SOL    HW228728   3.130   0.730   0.898 -1.3880  1.5617 -1.0166
40624SOL     OW28729   8.720   4.166  12.549  0.0761 -0.1094  0.0511
40624SOL    HW128730   8.804   4.194  12.587  0.5532  0.6673 -1.5097
40624SOL    HW228731   8.740   4.086  12.501  0.7921  1.8386 -3.2177
40625SOL     OW28732   9.260  10.872  12.401  0.3879 -0.7334  0.4335
40625SOL    HW128733   9.331  10.863  12.465  0.6203  0.8301  0.4403
40625SOL    HW228734   9.263  10.792  12.349 -0.3473 -2.4699  2.8834
40626SOL     OW28735   6.594   5.934  11.673 -0.2152 -0.1158  0.3496
40626SOL    HW128736   6.664   5.947  11.610 -2.1675  2.0109 -1.6149
40626SOL    HW228737   6.538   5.867  11.634 -1.1122  0.7635  0.0884
40627SOL     OW28738   4.195   1.662   4.293 -0.0952  0.5610 -0.3247
40627SOL    HW128739   4.190   1.757   4.304  4.0318  0.8333  1.1841
40627SOL    HW228740   4.255   1.650   4.219 -0.9134 -0.8966 -0.7854
40628SOL     OW28741   7.586  12.546   5.566  0.2239  0.3726  0.7400
40628SOL    HW128742   7.532  12.482   5.519 -1.1686  0.8906  1.5871
40628SOL    HW228743   7.676  12.521   5.545 -0.2738  0.7437 -2.4962
40629SOL     OW28744   8.550   1.823   7.782 -0.4725  0.1599 -0.1700
40629SOL    HW128745   8.537   1.809   7.876 -2.0176  0.8041 -0.2511
40629SOL    HW228746   8.542   1.735   7.744 -1.0684  0.0551  0.1846
40630SOL     OW28747   4.968  12.335   6.277  0.3471  0.3151 -0.1095
40630SOL    HW128748   4.923  12.400   6.331 -0.7711  0.3056 -0.9955
40630SOL    HW228749   5.059  12.365   6.274  0.6254 -0.0571  2.3130
40631SOL     OW28750  11.828   3.091  12.131  0.1400 -0.3185  0.1661
40631SOL    HW128751  11.840   3.130  12.044  1.5135  0.5829  0.7147
40631SOL    HW228752  11.778   3.011  12.115 -0.6828  0.4460 -1.2932
40632SOL     OW28753  12.167   8.948  11.353 -0.3072 -0.1496  0.0317
40632SOL    HW128754  12.188   8.992  11.436 -1.3541  0.7796 -0.1678
40632SOL    HW228755  12.240   8.970  11.295 -0.2881  0.4311  0.2707
40633SOL     OW28756   8.236  10.671   9.580  0.0301 -0.1469  0.1730
40633SOL    HW128757   8.288  10.691   9.658 -1.7114  0.4553  1.2454
40633SOL    HW228758   8.239  10.576   9.572  1.5992 -0.1072 -0.0594
40634SOL     OW28759   6.659   1.338   1.487  0.2405  0.2651 -0.1156
40634SOL    HW128760   6.742   1.329   1.440 -0.4801  0.1272 -1.4087
40634SOL    HW228761   6.684   1.367   1.575  1.6333  0.5349 -0.5770
40635SOL     OW28762   9.599   5.484   2.422  0.2300  0.2687  0.3447
40635SOL    HW128763   9.676   5.534   2.394  0.0958  2.2401  3.0031
40635SOL    HW228764   9.628   5.393   2.420  2.6214  0.9269  1.0485
40636SOL     OW28765   7.867   7.354   4.230  0.5367 -0.4881 -0.1994
40636SOL    HW128766   7.853   7.328   4.321 -2.0284  0.7018 -0.1680
40636SOL    HW228767   7.930   7.426   4.236  0.7893 -0.7597  0.5747
40637SOL     OW28768  10.152   7.021   2.135  0.1609 -0.2760 -0.0534
40637SOL    HW128769  10.241   7.049   2.155  0.3302  0.5687 -1.7654
40637SOL    HW228770  10.142   7.037   2.041 -1.9820  0.1782  0.1800
40638SOL     OW28771   4.274   7.832   2.835  0.6108 -0.2820 -0.3583
40638SOL    HW128772   4.195   7.829   2.782  0.3750  1.0083 -0.1222
40638SOL    HW228773   4.314   7.745   2.825 -1.0254 -1.0904 -0.1559
40639SOL     OW28774   7.622   4.077   5.424  0.0445 -0.1168 -0.4093
40639SOL    HW128775   7.647   3.985   5.421 -0.7498 -0.3679  0.3447
40639SOL    HW228776   7.560   4.088   5.351 -2.5759 -1.0576  1.5060
40640SOL     OW28777   1.999   3.084   1.212  0.4027 -0.4773 -0.1441
40640SOL    HW128778   1.965   3.074   1.123  0.6767 -0.0267 -0.3020
40640SOL    HW228779   2.079   3.032   1.214 -0.2230 -1.4611  0.1996
40641SOL     OW28780   7.336   0.617   1.956 -0.0573 -0.3197 -0.1736
40641SOL    HW128781   7.416   0.617   2.009 -0.1427 -1.1844 -0.0294
40641SOL    HW228782   7.358   0.669   1.879 -0.3451  2.1792  1.2946
40642SOL     OW28783  11.221   9.250  11.780 -0.9831 -0.1438 -0.0320
40642SOL    HW128784  11.226   9.229  11.873  0.0332  0.3349  0.0304
40642SOL    HW228785  11.197   9.168  11.737 -2.6311 -0.1184  0.7464
40643SOL     OW28786   9.527   3.719  12.227  0.4704 -0.0343  0.4207
40643SOL    HW128787   9.467   3.695  12.298  0.1372 -0.7213 -0.0817
40643SOL    HW228788   9.600   3.658  12.236  1.8723  1.7415  1.9494
40644SOL     OW28789   5.042  10.523   4.923 -0.1810 -0.0741  0.0526
40644SOL    HW128790   5.024  10.429   4.924 -0.4460 -0.0225  0.5952
40644SOL    HW228791   4.992  10.557   4.849  0.9512 -0.5543 -0.9656
40645SOL     OW28792   4.480   2.520   3.824 -0.2666 -0.2737  0.0134
40645SOL    HW128793   4.450   2.580   3.756 -1.2925  0.4494  1.0598
40645SOL    HW228794   4.406   2.461   3.838  0.3885 -1.1976 -0.3441
40646SOL     OW28795   4.278   0.462   3.953  1.0859  0.3976 -0.5479
40646SOL    HW128796   4.320   0.534   3.907  0.3553  0.0137 -1.8970
40646SOL    HW228797   4.203   0.502   3.997  0.5463  0.4506 -1.4849
40647SOL     OW28798   7.193  11.075  10.199 -0.0290  0.1619 -0.2045
40647SOL    HW128799   7.251  11.017  10.249 -0.2197 -0.5129 -0.7467
40647SOL    HW228800   7.213  11.162  10.231  0.0910 -0.2248  0.8049
40648SOL     OW28801   9.441   5.601   1.323  0.7054 -1.1184  0.3041
40648SOL    HW128802   9.438   5.525   1.265  2.6168 -1.9970  1.2516
40648SOL    HW228803   9.378   5.662   1.286 -0.4041 -2.8903 -0.8685
40649SOL     OW28804   2.038   2.950   6.461  0.0529  0.3390 -0.2878
40649SOL    HW128805   2.078   3.014   6.402 -1.2046  0.7292 -0.7584
40649SOL    HW228806   1.944   2.962   6.449 -0.2353 -1.8633 -0.6778
40650SOL     OW28807   2.894   1.793   6.588 -0.1882  0.4833  0.4735
40650SOL    HW128808   2.867   1.703   6.568 -0.5170  0.4803  0.8899
40650SOL    HW228809   2.944   1.785   6.669  1.0814  0.4939 -0.2977
40651SOL     OW28810   7.211   1.765   3.363  0.6044  0.9287  0.1113
40651SOL    HW128811   7.269   1.780   3.289 -0.6926  1.9299 -0.7233
40651SOL    HW228812   7.127   1.740   3.324  0.9873 -2.8775  1.3080
40652SOL     OW28813   0.453   1.384   1.275  0.2043  0.3203 -0.0529
40652SOL    HW128814   0.463   1.315   1.340 -1.1948 -0.2693 -0.4195
40652SOL    HW228815   0.542   1.408   1.250  0.7397  0.0344  1.5175
40653SOL     OW28816   3.133   8.152   9.629 -0.2625  0.0739  0.0940
40653SOL    HW128817   3.147   8.122   9.539 -2.2326 -1.1024  0.1237
40653SOL    HW228818   3.204   8.113   9.679  0.0683 -0.4147 -0.7309
40654SOL     OW28819   0.314   6.349  11.322 -0.4675  0.0738 -0.4496
40654SOL    HW128820   0.249   6.410  11.358 -2.3626 -1.5346 -0.9881
40654SOL    HW228821   0.318   6.372  11.229 -3.0308 -2.0265 -1.2089
40655SOL     OW28822  10.480   9.881  11.739 -0.2754  0.5210  0.4346
40655SOL    HW128823  10.397   9.926  11.752 -1.3256 -1.5565  1.4786
40655SOL    HW228824  10.477   9.807  11.800  2.7513  0.8777  1.1658
40656SOL     OW28825   6.759   9.822   8.211  0.0506  0.5828 -0.1374
40656SOL    HW128826   6.709   9.747   8.241  1.8118 -1.3611 -1.7490
40656SOL    HW228827   6.745   9.825   8.116  2.9996 -0.1746 -0.6892
40657SOL     OW28828   4.764  11.776  10.388 -0.4264 -0.0924  0.4098
40657SOL    HW128829   4.806  11.695  10.360 -1.2570  0.0039 -1.2200
40657SOL    HW228830   4.836  11.840  10.394  0.2807 -0.9641  2.0074
40658SOL     OW28831   5.650   7.811   9.031  0.3173  0.0173 -0.2274
40658SOL    HW128832   5.583   7.770   9.087  0.9971 -0.3470  0.3316
40658SOL    HW228833   5.665   7.896   9.072  0.7866 -0.2338  0.1383
40659SOL     OW28834   5.589   3.680   7.980  0.2301  0.4137  0.5698
40659SOL    HW128835   5.610   3.600   7.931  1.4681  0.9090  0.2637
40659SOL    HW228836   5.552   3.739   7.915  1.0895  0.7662  0.3893
40660SOL     OW28837   8.157   5.044  12.376  0.3694 -0.2871 -0.1772
40660SOL    HW128838   8.156   5.139  12.370 -0.2707 -0.3589 -1.7708
40660SOL    HW228839   8.177   5.026  12.468  1.7691  1.3596 -0.1044
40661SOL     OW28840   9.653   9.776  10.087 -0.4033 -0.4740 -0.6691
40661SOL    HW128841   9.726   9.740  10.136 -0.6324  0.8510  0.7100
40661SOL    HW228842   9.674   9.870  10.078 -1.6020 -0.2106 -0.8434
40662SOL     OW28843   8.945   1.060  10.600 -0.0298  0.1510  0.0377
40662SOL    HW128844   8.854   1.038  10.619 -0.9193  0.1669 -3.5512
40662SOL    HW228845   8.950   1.155  10.613 -0.1237 -0.0296  1.5228
40663SOL     OW28846   4.816   1.185   2.771 -0.3564 -0.2340  0.0552
40663SOL    HW128847   4.843   1.276   2.758  3.2472 -1.0970  0.4862
40663SOL    HW228848   4.816   1.173   2.866 -3.7155 -0.0686  0.2227
40664SOL     OW28849   2.971  11.735   1.016 -0.2118  0.0730 -0.1113
40664SOL    HW128850   2.981  11.651   1.063  1.5755  1.4422  2.1673
40664SOL    HW228851   2.880  11.735   0.988 -0.1876 -2.7815 -0.5189
40665SOL     OW28852  11.954   3.957   4.341 -0.1937  0.3538 -0.1528
40665SOL    HW128853  11.945   4.008   4.260 -1.3153 -0.4139 -0.5350
40665SOL    HW228854  12.044   3.973   4.369  0.3142  0.4002 -1.7242
40666SOL     OW28855   9.853   5.675   7.835 -0.7597  1.0729  0.5314
40666SOL    HW128856   9.783   5.644   7.777  0.3745 -1.6368  0.4474
40666SOL    HW228857   9.916   5.718   7.777 -0.2627 -0.4653 -0.1164
40667SOL     OW28858   9.702   3.730   0.491 -0.5059  0.0004 -0.7117
40667SOL    HW128859   9.606   3.735   0.498 -0.5392 -1.5588  0.4598
40667SOL    HW228860   9.733   3.804   0.543 -1.0663  0.2881 -0.7795
40668SOL     OW28861   3.411  11.484  11.279 -0.1708 -0.5448  0.0402
40668SOL    HW128862   3.438  11.473  11.188  0.8145 -3.0739  0.5575
40668SOL    HW228863   3.491  11.505  11.326 -0.1276 -2.0585  0.6977
40669SOL     OW28864   1.986   3.067   9.478  0.7886 -0.0540 -0.0616
40669SOL    HW128865   1.894   3.040   9.483  0.7664 -0.9499 -3.3298
40669SOL    HW228866   1.982   3.163   9.472  0.2236  0.0454  1.4929
40670SOL     OW28867   8.952   5.290   1.789 -0.7357  0.2187  0.4841
40670SOL    HW128868   8.898   5.365   1.813 -0.8833  0.7426 -1.3596
40670SOL    HW228869   8.890   5.225   1.757 -0.4630 -0.0593  0.5141
40671SOL     OW28870   4.881   2.530   8.157 -0.2177  0.1837  0.0587
40671SOL    HW128871   4.839   2.445   8.167 -0.3268  0.1509 -0.6383
40671SOL    HW228872   4.901   2.537   8.064 -1.5596  1.5345 -0.1843
40672SOL     OW28873   5.515   4.781   7.721  0.0467  0.1471 -0.1596
40672SOL    HW128874   5.467   4.704   7.691  0.2156 -0.5519  1.2441
40672SOL    HW228875   5.598   4.746   7.753 -0.4941  0.6591  1.9699
40673SOL     OW28876   4.804   5.572   0.970 -0.2525  0.6406  0.0503
40673SOL    HW128877   4.715   5.547   0.993 -0.3340  0.7433 -0.1550
40673SOL    HW228878   4.843   5.492   0.935 -0.7741  1.0014 -1.3898
40674SOL     OW28879   6.683   7.469   5.028  0.2172 -0.6366  0.0226
40674SOL    HW128880   6.736   7.535   4.982 -0.2926  0.1692  0.5665
40674SOL    HW228881   6.742   7.394   5.037  0.7274 -0.3610 -0.8434
40675SOL     OW28882   0.678  11.523   0.404  0.0737 -0.8565 -0.1861
40675SOL    HW128883   0.630  11.521   0.487  1.2838 -1.0453  0.5348
40675SOL    HW228884   0.623  11.576   0.346 -0.8735 -0.8536  0.6809
40676SOL     OW28885   3.043  12.202   1.054 -0.3712  0.1037 -0.0568
40676SOL    HW128886   3.046  12.119   1.007  0.7346 -0.3864  0.8074
40676SOL    HW228887   3.127  12.206   1.100  0.3730  2.5291 -1.4386
40677SOL     OW28888   7.715   3.605   2.407  0.3324 -0.1022  0.6229
40677SOL    HW128889   7.790   3.548   2.422  0.1836 -0.2135  0.9551
40677SOL    HW228890   7.683   3.625   2.495  1.4697  1.9600  0.6416
40678SOL     OW28891  11.045   1.782  12.486 -0.6062  0.3053 -0.3587
40678SOL    HW128892  10.997   1.785  12.569  0.0414 -0.0544  0.0312
40678SOL    HW228893  11.130   1.822  12.506 -0.2913 -0.1756 -0.7392
40679SOL     OW28894   0.701   8.570  10.809 -0.3444  0.0989  0.2154
40679SOL    HW128895   0.647   8.629  10.861  1.8106  1.1433  1.3968
40679SOL    HW228896   0.714   8.617  10.726 -2.1507 -0.7068 -0.5999
40680SOL     OW28897   7.627   0.693   7.041  0.6636  0.3640 -0.5943
40680SOL    HW128898   7.633   0.772   6.987  0.2552  0.2161 -0.8604
40680SOL    HW228899   7.689   0.708   7.113 -0.2901  1.4692  0.0445
40681SOL     OW28900   2.770  11.428  11.195  0.5564  0.4853  0.0459
40681SOL    HW128901   2.814  11.511  11.213  3.4114 -0.8642 -0.1692
40681SOL    HW228902   2.777  11.379  11.277  1.2382 -0.4823 -0.5687
40682SOL     OW28903   1.467   5.368   3.833  0.3559  0.6281 -0.0825
40682SOL    HW128904   1.420   5.287   3.852 -0.0783  1.0617  0.7613
40682SOL    HW228905   1.436   5.393   3.745 -0.0613  0.2662 -0.0449
40683SOL     OW28906   2.628   0.796   2.894 -0.4003 -0.5345 -0.0488
40683SOL    HW128907   2.575   0.744   2.954 -0.8322  0.1483  0.1726
40683SOL    HW228908   2.565   0.855   2.852  0.4987  2.1175  2.1116
40684SOL     OW28909   4.926  12.351  10.498  0.2983 -0.4637 -0.2153
40684SOL    HW128910   4.906  12.257  10.500 -0.4619 -0.2957  0.3635
40684SOL    HW228911   4.945  12.374  10.588  0.6072 -0.0772 -0.3753
40685SOL     OW28912   6.386   5.286  11.246 -0.4372 -0.2972  0.4066
40685SOL    HW128913   6.423   5.207  11.285 -1.2773 -0.5438  0.7329
40685SOL    HW228914   6.459   5.347  11.241  0.2335 -1.1100  0.0957
40686SOL     OW28915   2.893   2.859   1.612  0.1834  0.2251 -0.3416
40686SOL    HW128916   2.831   2.931   1.601 -1.2126 -0.5617  1.8810
40686SOL    HW228917   2.975   2.902   1.639 -1.0396  0.9883  2.4832
40687SOL     OW28918  12.139   1.719   6.991 -0.5432 -0.3949  0.1716
40687SOL    HW128919  12.161   1.628   7.012  0.7234 -0.1081  0.1778
40687SOL    HW228920  12.047   1.717   6.966 -0.3255 -1.8009 -0.5807
40688SOL     OW28921   9.960   8.542  12.532 -0.6219  0.0572 -0.0511
40688SOL    HW128922   9.886   8.572  12.480 -1.7230 -0.7790  0.9837
40688SOL    HW228923  10.037   8.578  12.488 -1.6347  0.8979 -1.1752
40689SOL     OW28924   8.502   7.330   8.094  0.1832 -0.2026  0.1108
40689SOL    HW128925   8.430   7.366   8.145  1.2396  2.6518 -0.2219
40689SOL    HW228926   8.566   7.302   8.159 -0.1167 -0.3271  0.3587
40690SOL     OW28927   3.214   9.259   3.762 -0.1055 -0.6238  0.1455
40690SOL    HW128928   3.119   9.262   3.746  0.2047  0.0691 -1.9343
40690SOL    HW228929   3.226   9.185   3.822 -1.9349 -0.9134  0.2131
40691SOL     OW28930   7.427   8.187   5.847  0.0514 -0.4032  0.2266
40691SOL    HW128931   7.415   8.270   5.802 -0.1550  0.6419  2.1110
40691SOL    HW228932   7.344   8.140   5.833  0.4460 -0.6468 -1.4743
40692SOL     OW28933   5.733   8.453   1.331 -0.4818  0.0116  0.3618
40692SOL    HW128934   5.651   8.503   1.326 -1.3774 -0.8412  3.8135
40692SOL    HW228935   5.740   8.428   1.423  3.2556 -0.7443  0.0177
40693SOL     OW28936  10.922  10.201  12.247  0.0566 -0.5476 -0.4799
40693SOL    HW128937  10.975  10.146  12.305  0.0250 -0.4270 -0.3377
40693SOL    HW228938  10.889  10.271  12.303  1.2316  0.4134 -0.9307
40694SOL     OW28939   5.487  11.442   6.871  0.0061  0.2622 -0.4895
40694SOL    HW128940   5.570  11.457   6.826  0.0730 -0.1539 -0.5060
40694SOL    HW228941   5.468  11.525   6.915  2.0768 -0.5823  2.2575
40695SOL     OW28942   1.343  11.243  10.903  0.2767  1.0283 -0.3914
40695SOL    HW128943   1.400  11.180  10.858 -0.5180  0.2921 -0.3825
40695SOL    HW228944   1.282  11.189  10.953  0.0277  1.8204  0.1774
40696SOL     OW28945   0.116   9.163   2.355 -0.7127  0.2518  0.8573
40696SOL    HW128946   0.176   9.108   2.305 -2.2951 -2.1758  1.4551
40696SOL    HW228947   0.150   9.160   2.445 -1.3372 -0.6349  1.0808
40697SOL     OW28948   1.343   7.543   6.914 -0.4127 -0.1291 -0.6939
40697SOL    HW128949   1.286   7.539   6.991 -0.3994 -2.9564 -0.7194
40697SOL    HW228950   1.431   7.554   6.950 -0.6401  1.1777 -0.4903
40698SOL     OW28951   0.711   4.462   9.386  0.0427 -0.1912 -0.6439
40698SOL    HW128952   0.679   4.373   9.405 -0.4718 -0.0329 -0.7468
40698SOL    HW228953   0.734   4.461   9.293 -1.4527  0.2105 -1.0470
40699SOL     OW28954   4.378   8.480   5.528  0.5839 -0.4920  0.4416
40699SOL    HW128955   4.438   8.409   5.503  1.2026  0.8312 -2.3353
40699SOL    HW228956   4.436   8.550   5.558  0.3515  0.2400 -0.7543
40700SOL     OW28957   3.583   7.649   9.465 -0.1643  0.1851  0.1882
40700SOL    HW128958   3.567   7.651   9.371 -3.3208  0.2236  0.6128
40700SOL    HW228959   3.642   7.575   9.478  1.8257  1.2580 -1.9143
40701SOL     OW28960   3.046  11.239   1.597 -0.6332  0.1123 -0.0748
40701SOL    HW128961   3.137  11.215   1.615 -0.3479 -0.9780 -2.5781
40701SOL    HW228962   2.994  11.181   1.653  0.1921 -0.2781  0.3086
40702SOL     OW28963   2.004   3.381   0.294  0.0160 -0.2783 -0.5628
40702SOL    HW128964   2.093   3.372   0.328 -0.5224  0.8997  1.3240
40702SOL    HW228965   2.003   3.466   0.252 -0.0015 -0.6627 -1.3539
40703SOL     OW28966   6.536   7.211  10.007  0.5060 -0.1123 -0.1340
40703SOL    HW128967   6.484   7.208   9.927 -0.6309  0.6750  0.5355
40703SOL    HW228968   6.586   7.292  10.000 -0.9845  0.9362  0.7293
40704SOL     OW28969  11.291   5.299   3.187  0.1482 -0.3010  0.6882
40704SOL    HW128970  11.213   5.344   3.220  0.4548  1.3326 -0.6798
40704SOL    HW228971  11.293   5.319   3.093  2.6861  0.4604  0.8198
40705SOL     OW28972   0.213   8.280   3.649  0.4142 -0.0859 -0.5946
40705SOL    HW128973   0.258   8.223   3.587  1.0183 -1.2904  0.8902
40705SOL    HW228974   0.124   8.246   3.653  0.1356  0.5216 -1.4054
40706SOL     OW28975   9.258   7.623   1.340  0.1351 -0.0655  0.2089
40706SOL    HW128976   9.335   7.679   1.327 -0.6527  0.8295 -0.8815
40706SOL    HW228977   9.204   7.671   1.403  0.5508 -0.7972  1.1422
40707SOL     OW28978   2.204  11.355   3.728  0.1423  0.1672  0.1157
40707SOL    HW128979   2.252  11.272   3.719  0.3745  0.4138 -1.0262
40707SOL    HW228980   2.223  11.403   3.647  0.4550  1.5761  0.9946
40708SOL     OW28981   0.206  11.056  11.720  0.3128  0.1450  0.0467
40708SOL    HW128982   0.170  11.014  11.798  0.0324 -0.0975 -0.2122
40708SOL    HW228983   0.134  11.108  11.685 -0.2948 -1.5313 -1.3292
40709SOL     OW28984   8.942   7.425   5.140  0.6567 -0.4203 -0.1890
40709SOL    HW128985   8.920   7.487   5.210  1.6703  0.9317 -1.0197
40709SOL    HW228986   8.878   7.354   5.151 -1.2150  1.2208  0.2170
40710SOL     OW28987   9.560   3.324   6.024  0.1450  1.0251 -0.1200
40710SOL    HW128988   9.512   3.244   6.042  0.6115  1.3373  3.1277
40710SOL    HW228989   9.635   3.296   5.972 -1.3127 -0.0893 -1.7011
40711SOL     OW28990   2.974  11.499   1.254 -0.6827  0.4913 -0.1510
40711SOL    HW128991   3.011  11.533   1.335  0.3086 -1.9511  0.5340
40711SOL    HW228992   2.883  11.529   1.253 -0.8863  0.0861  2.1725
40712SOL     OW28993   2.471  10.501   5.965  0.2378 -0.3264 -0.4033
40712SOL    HW128994   2.552  10.546   5.992  0.4124  0.0616 -1.5360
40712SOL    HW228995   2.428  10.479   6.048 -0.0705  2.3096  0.2211
40713SOL     OW28996  12.066  11.292   3.617  0.5413  0.0310 -0.7354
40713SOL    HW128997  12.151  11.320   3.583  0.5718  0.1478 -0.5633
40713SOL    HW228998  12.086  11.211   3.666  0.5803  0.1484 -0.5564
40714SOL     OW28999  10.803   0.456   2.913 -0.0680 -0.5334 -0.8453
40714SOL    HW129000  10.819   0.487   2.824  0.8657 -0.1387 -0.5488
40714SOL    HW229001  10.717   0.492   2.936 -0.5935 -1.1396 -1.7938
40715SOL     OW29002   7.055   8.292   3.537 -0.1774 -0.3138 -0.4813
40715SOL    HW129003   7.012   8.281   3.622 -1.3875  1.8702 -0.7234
40715SOL    HW229004   7.141   8.327   3.559  0.0343 -1.0271 -0.1315
40716SOL     OW29005   0.624   4.333   4.592 -0.6060  0.4869 -0.2124
40716SOL    HW129006   0.674   4.259   4.625  0.1068  0.8578 -0.4359
40716SOL    HW229007   0.584   4.300   4.511  0.2967  0.5554 -0.6964
40717SOL     OW29008   1.627   8.012   1.728  0.4657  0.2412  0.9126
40717SOL    HW129009   1.642   7.981   1.638  0.2757 -0.7022  1.1991
40717SOL    HW229010   1.589   8.099   1.717  0.9687  0.3690  0.0883
40718SOL     OW29011   6.870   0.832   9.831  0.6156 -0.0871  0.0909
40718SOL    HW129012   6.847   0.925   9.841 -2.1206 -0.7098  0.2929
40718SOL    HW229013   6.869   0.798   9.921  0.1027 -0.6301 -0.1223
40719SOL     OW29014   4.405  11.259   1.555 -0.5536  0.1641 -0.1751
40719SOL    HW129015   4.437  11.232   1.641  1.0592  0.3827 -0.6657
40719SOL    HW229016   4.339  11.194   1.532 -1.0262  0.1195  1.2270
40720SOL     OW29017   8.102  10.857  11.915 -0.1916 -0.1408 -0.2824
40720SOL    HW129018   8.142  10.931  11.869  0.2776  0.1485  0.5616
40720SOL    HW229019   8.171  10.790  11.918 -0.3172 -0.2696 -0.2550
40721SOL     OW29020  11.612   4.262  10.731 -0.5775  0.5597  0.3506
40721SOL    HW129021  11.626   4.357  10.725 -0.0542  0.3912 -1.5297
40721SOL    HW229022  11.652   4.226  10.652  0.3267 -1.3787  1.6072
40722SOL     OW29023   4.370   1.369   8.242  0.2081 -0.1199 -0.0621
40722SOL    HW129024   4.308   1.315   8.292 -0.3075 -0.7138 -1.2998
40722SOL    HW229025   4.432   1.401   8.308  0.0466 -1.5565  0.8273
40723SOL     OW29026   7.062   9.868   7.141 -0.8054 -0.0201  0.3714
40723SOL    HW129027   7.089   9.793   7.194 -1.3713 -0.9443 -0.6061
40723SOL    HW229028   6.966   9.864   7.140 -0.8274  0.4970  0.0022
40724SOL     OW29029  11.800   2.776   1.306 -0.0347  0.4493 -0.3332
40724SOL    HW129030  11.782   2.866   1.333 -3.9748  0.1427 -1.3313
40724SOL    HW229031  11.775   2.773   1.214 -2.0270 -2.0477  0.1740
40725SOL     OW29032   7.924   6.945   8.783 -0.5542 -0.1921  0.4234
40725SOL    HW129033   8.007   6.984   8.755 -0.9538  0.5115  0.2021
40725SOL    HW229034   7.916   6.865   8.730 -0.5767  0.3427 -0.4040
40726SOL     OW29035  12.264   6.646   6.712  0.3906  0.0010  0.0668
40726SOL    HW129036  12.232   6.591   6.784 -0.0095 -0.9496 -0.7981
40726SOL    HW229037  12.341   6.600   6.679 -0.3836 -0.4866 -1.1541
40727SOL     OW29038   9.705  12.043   9.334 -0.2908  0.2953 -0.3348
40727SOL    HW129039   9.789  12.072   9.371  0.0703  1.1534 -1.7484
40727SOL    HW229040   9.659  12.003   9.408  1.1315  0.3004  0.6030
40728SOL     OW29041   1.148   1.802   9.510  0.1394  0.0532  0.3486
40728SOL    HW129042   1.212   1.756   9.565 -0.1320 -1.0564 -0.2480
40728SOL    HW229043   1.125   1.739   9.442 -0.4492  0.9869 -0.3304
40729SOL     OW29044   8.669   8.784   7.988 -0.5886  0.6291 -0.0932
40729SOL    HW129045   8.693   8.808   7.898 -1.4851  2.3392  0.0712
40729SOL    HW229046   8.594   8.841   8.008 -1.3672 -0.7861  1.2223
40730SOL     OW29047   4.684   9.340   5.438  0.0605 -0.2739  0.1144
40730SOL    HW129048   4.600   9.369   5.473  0.7553  2.8269 -0.5344
40730SOL    HW229049   4.746   9.409   5.463  1.7833 -0.9401 -2.0238
40731SOL     OW29050   6.744   7.734   2.354  0.5737  0.7819 -0.6977
40731SOL    HW129051   6.696   7.690   2.284  1.3284  1.6177 -1.7907
40731SOL    HW229052   6.739   7.675   2.428 -0.2116 -0.1613 -1.4776
40732SOL     OW29053   6.481  11.123   0.905 -0.3829  0.0146  0.0102
40732SOL    HW129054   6.442  11.056   0.849 -0.0195 -0.5649  0.4384
40732SOL    HW229055   6.543  11.168   0.849 -1.5710  0.8705 -0.6498
40733SOL     OW29056   1.228  11.017  11.005 -0.5024 -0.4106  0.3575
40733SOL    HW129057   1.290  10.964  11.056  0.2581 -1.6362 -1.7160
40733SOL    HW229058   1.144  10.972  11.015 -0.1247 -1.2896 -0.3412
40734SOL     OW29059   6.357   3.939   5.354 -0.3292  1.0352 -0.7262
40734SOL    HW129060   6.295   4.010   5.344 -1.3698 -0.0344 -2.3422
40734SOL    HW229061   6.329   3.873   5.290  1.7534  0.0010 -0.6584
40735SOL     OW29062   8.257   3.258   3.314 -0.0609 -0.0913  0.7828
40735SOL    HW129063   8.341   3.225   3.280 -0.3033  0.1902 -0.1121
40735SOL    HW229064   8.274   3.351   3.333 -0.1462 -0.0618  0.7101
40736SOL     OW29065   0.183   7.356   0.835  0.1191 -0.2405  0.2333
40736SOL    HW129066   0.244   7.305   0.782  0.8144  1.2748 -0.4768
40736SOL    HW229067   0.118   7.389   0.773  1.3726  2.1899  0.0981
40737SOL     OW29068   3.342  10.686   1.341  0.1117  0.3525 -0.6101
40737SOL    HW129069   3.377  10.712   1.426 -1.9151 -1.2169  0.7665
40737SOL    HW229070   3.292  10.762   1.311 -0.7228  0.2496  0.4949
40738SOL     OW29071   2.120   6.044   6.980 -0.0474 -0.2807  0.1858
40738SOL    HW129072   2.138   6.055   7.073  0.2950  2.2683 -0.0970
40738SOL    HW229073   2.050   5.980   6.975  1.3049 -2.0052  2.0423
40739SOL     OW29074   3.324   9.257   3.176  0.5481  0.6870  0.2295
40739SOL    HW129075   3.353   9.285   3.263  1.0462  2.6569 -0.5256
40739SOL    HW229076   3.229   9.261   3.180  0.4724 -0.9581  1.1826
40740SOL     OW29077   9.558   8.244   5.732  0.0479 -0.2855 -0.0324
40740SOL    HW129078   9.638   8.200   5.705  1.2614  2.4127 -1.2722
40740SOL    HW229079   9.585   8.303   5.803 -0.4038  1.7428 -1.4441
40741SOL     OW29080   4.910   7.013   3.360 -0.8582 -0.2076  0.1645
40741SOL    HW129081   4.981   7.013   3.297 -0.4054  0.9904  0.6460
40741SOL    HW229082   4.937   7.076   3.427 -1.9243 -0.4614  0.8643
40742SOL     OW29083   7.681   4.432   3.179  0.6712 -0.4314  0.1583
40742SOL    HW129084   7.734   4.428   3.100  2.8600  0.9958  1.4345
40742SOL    HW229085   7.625   4.509   3.166 -0.8588 -1.6939 -1.0179
40743SOL     OW29086   0.301   6.454   4.739  0.2694 -0.0463 -0.0165
40743SOL    HW129087   0.222   6.485   4.697 -1.6042 -2.1846  1.6520
40743SOL    HW229088   0.308   6.507   4.819  0.6579  0.2859 -0.2681
40744SOL     OW29089   5.954   6.565   1.190 -0.3023 -0.1307 -0.0751
40744SOL    HW129090   6.030   6.510   1.171 -1.1576 -1.1382 -0.7176
40744SOL    HW229091   5.965   6.590   1.282  1.0442  0.1611 -0.2898
40745SOL     OW29092   8.161   5.615   8.439 -0.1316 -0.1761 -0.1831
40745SOL    HW129093   8.075   5.586   8.409  0.0649  0.8386 -1.8526
40745SOL    HW229094   8.176   5.566   8.520 -2.0825 -0.6787 -0.0823
40746SOL     OW29095   7.841   2.270   8.408  0.1429 -0.4084  0.6981
40746SOL    HW129096   7.925   2.312   8.427 -0.8785  0.6886  3.1748
40746SOL    HW229097   7.793   2.336   8.356  0.1522 -0.3069  0.8188
40747SOL     OW29098  10.728   4.214   9.667 -0.0415 -0.0772  0.4701
40747SOL    HW129099  10.771   4.202   9.752  1.0071 -0.1460 -0.0547
40747SOL    HW229100  10.773   4.154   9.608 -0.2080  0.5564 -0.3207
40748SOL     OW29101   0.890   6.567   8.510 -0.3182 -0.1777 -0.1352
40748SOL    HW129102   0.948   6.572   8.434 -1.5877  2.5404 -1.0763
40748SOL    HW229103   0.945   6.593   8.584  1.2058 -3.8629  0.2158
40749SOL     OW29104   5.068   5.242   5.536 -0.9102  0.0181  0.2894
40749SOL    HW129105   5.141   5.198   5.580 -0.3241  0.9690  0.3086
40749SOL    HW229106   4.990   5.204   5.575 -0.4778 -1.8906 -0.5568
40750SOL     OW29107   7.824   4.571   2.692 -0.2176  0.5011  0.1908
40750SOL    HW129108   7.729   4.586   2.692 -0.6001 -1.5600 -0.3340
40750SOL    HW229109   7.855   4.609   2.774 -1.7291  0.0658  0.9990
40751SOL     OW29110   9.783   3.077   9.130 -0.4971 -0.1440  0.6044
40751SOL    HW129111   9.728   3.115   9.062  0.6085 -0.1652 -0.3135
40751SOL    HW229112   9.845   3.022   9.084  1.1967  0.9554  1.4793
40752SOL     OW29113   7.153   6.695  10.453  0.1698 -0.0029 -0.3870
40752SOL    HW129114   7.113   6.682  10.367 -2.6145  0.7526  0.6651
40752SOL    HW229115   7.141   6.789  10.471  1.3999  0.0099  0.5267
40753SOL     OW29116   2.580  10.007   6.255 -0.3416 -0.7544 -0.4586
40753SOL    HW129117   2.592  10.056   6.337  1.3506 -0.6600 -0.7333
40753SOL    HW229118   2.609  10.068   6.187  0.7584 -1.7335 -0.8934
40754SOL     OW29119   2.102   9.114   6.830  0.6486 -0.4329 -0.1000
40754SOL    HW129120   2.051   9.110   6.911 -1.2987  1.2494 -1.1705
40754SOL    HW229121   2.153   9.195   6.838  0.8503 -0.5347 -0.3428
40755SOL     OW29122   7.935   2.324   0.742  0.3451 -0.0555 -0.5926
40755SOL    HW129123   7.842   2.342   0.753  0.7693  1.8377  0.3404
40755SOL    HW229124   7.974   2.344   0.828  1.7108  0.0320 -1.1933
40756SOL     OW29125   3.158   8.643   6.916  0.6064 -0.4020  0.5411
40756SOL    HW129126   3.244   8.620   6.952  0.9989  1.4609  0.9113
40756SOL    HW229127   3.170   8.731   6.882 -0.4992 -1.0788 -1.7860
40757SOL     OW29128   9.242   5.965  10.829 -0.6168 -0.0523  0.0479
40757SOL    HW129129   9.180   6.038  10.820 -0.5988 -0.0281  0.1182
40757SOL    HW229130   9.327   6.008  10.840 -0.7057 -0.0749  0.8335
40758SOL     OW29131  11.175   6.435  10.757  0.6923  0.3705  0.5123
40758SOL    HW129132  11.245   6.492  10.726  1.6926 -0.4408  1.2252
40758SOL    HW229133  11.214   6.348  10.759 -0.6335 -0.2658  0.0016
40759SOL     OW29134   9.196  10.263   3.447 -0.6152 -0.0344  0.0236
40759SOL    HW129135   9.252  10.333   3.480  0.9035 -1.6470  1.0756
40759SOL    HW229136   9.235  10.240   3.362 -1.1132  0.3771 -0.3210
40760SOL     OW29137   1.505   5.765   9.462 -0.6435  0.1478 -0.8067
40760SOL    HW129138   1.434   5.745   9.523 -0.5509 -1.8875 -1.2931
40760SOL    HW229139   1.570   5.812   9.515 -0.9979 -0.7152  0.4282
40761SOL     OW29140   2.384   1.765  12.063 -0.2782  0.0885  0.2921
40761SOL    HW129141   2.434   1.805  12.134 -0.5551 -0.4096  0.7880
40761SOL    HW229142   2.400   1.671  12.074  0.4085  0.0613 -0.8796
40762SOL     OW29143  11.094   5.503  11.507  0.2496  0.0610  0.0689
40762SOL    HW129144  11.169   5.555  11.535 -0.3137  0.6637  0.4768
40762SOL    HW229145  11.122   5.463  11.424  1.2639 -0.2757  0.5553
40763SOL     OW29146   3.055  10.282   9.064  0.2714  0.6647  0.2087
40763SOL    HW129147   3.124  10.349   9.063 -0.0849  1.0419 -0.9754
40763SOL    HW229148   3.049  10.255   9.156  1.1901  1.4628  0.5209
40764SOL     OW29149   4.070   7.556   4.577  0.6654  0.7987  0.5604
40764SOL    HW129150   3.978   7.532   4.562  1.0258 -0.4437  0.1286
40764SOL    HW229151   4.082   7.551   4.672  0.6045 -0.4062  0.5240
40765SOL     OW29152   8.317   5.714  10.831 -0.0436  0.1390  0.0942
40765SOL    HW129153   8.392   5.725  10.772  0.5597  1.6894  1.0644
40765SOL    HW229154   8.355   5.681  10.912 -0.9939 -2.9373 -0.5781
40766SOL     OW29155   7.187   5.667   7.227  0.4846  0.2353 -0.2483
40766SOL    HW129156   7.259   5.645   7.169  2.0973  3.1720  0.4248
40766SOL    HW229157   7.132   5.727   7.175 -0.7457 -0.8802 -0.2828
40767SOL     OW29158  11.902   5.661   9.423  0.3709 -0.2267 -0.0782
40767SOL    HW129159  11.935   5.646   9.512  0.4959 -1.8870 -0.3797
40767SOL    HW229160  11.840   5.590   9.408 -0.5518  0.7226 -0.9021
40768SOL     OW29161  12.373   2.327   0.597 -0.1113 -0.1724 -0.2258
40768SOL    HW129162  12.313   2.293   0.664  0.7537 -1.6074 -0.1399
40768SOL    HW229163  12.315   2.353   0.525 -0.9029 -0.8603  0.1349
40769SOL     OW29164   8.181   4.555   6.839 -0.5647 -0.3515  0.4031
40769SOL    HW129165   8.149   4.532   6.752  0.5739 -1.7197  0.3033
40769SOL    HW229166   8.102   4.567   6.892 -1.3088  1.5273 -1.0148
40770SOL     OW29167  10.398   8.146   8.014 -0.3734 -0.1783 -0.7073
40770SOL    HW129168  10.370   8.235   7.995 -0.1448  0.1025  0.2118
40770SOL    HW229169  10.411   8.106   7.928 -1.7382  0.2577 -1.1289
40771SOL     OW29170   7.958   6.251   6.714  0.3085 -0.3098 -0.0162
40771SOL    HW129171   8.026   6.217   6.657 -0.2332 -0.4735 -0.5815
40771SOL    HW229172   7.879   6.252   6.659 -0.1669 -0.2336  0.6544
40772SOL     OW29173   1.346   5.248   6.749 -0.1961 -0.3102 -0.0232
40772SOL    HW129174   1.428   5.233   6.797  0.7685  0.3891 -1.3984
40772SOL    HW229175   1.302   5.317   6.799 -0.4642 -1.4124  1.3115
40773SOL     OW29176  10.857   5.985   7.966  0.0003 -0.4059  0.3273
40773SOL    HW129177  10.931   5.925   7.973 -0.5918 -1.0993  0.8346
40773SOL    HW229178  10.862   6.039   8.044 -0.2147 -0.6896  0.5437
40774SOL     OW29179  11.595   4.851  11.753  0.3190  0.0929  0.5957
40774SOL    HW129180  11.526   4.792  11.784 -0.2845 -0.1954 -1.2293
40774SOL    HW229181  11.661   4.794  11.715 -0.1212  0.5331 -0.8966
40775SOL     OW29182   0.922   1.080   8.159  0.0729  0.5834 -0.0734
40775SOL    HW129183   0.842   1.124   8.131 -1.4313 -0.6741  1.9211
40775SOL    HW229184   0.964   1.142   8.219 -1.5094 -0.1810  1.9329
40776SOL     OW29185   6.821   8.754   4.438 -0.0437 -0.5477 -0.2617
40776SOL    HW129186   6.845   8.802   4.359 -1.2046  2.2198  0.9288
40776SOL    HW229187   6.730   8.729   4.425 -0.3131  0.1266  0.2568
40777SOL     OW29188   2.741   7.607  12.026 -0.1873  0.2401  0.0430
40777SOL    HW129189   2.711   7.693  11.997 -0.8075  0.1076  0.2778
40777SOL    HW229190   2.678   7.545  11.989  1.2457 -0.2970 -1.5970
40778SOL     OW29191   3.984   5.100  11.254  0.2379  0.4879  0.3941
40778SOL    HW129192   4.046   5.113  11.325  0.3816 -2.4305  0.9030
40778SOL    HW229193   4.033   5.122  11.175  0.3179  2.9909  1.0602
40779SOL     OW29194  10.182   4.124   1.609 -0.1303  0.2150 -0.4951
40779SOL    HW129195  10.193   4.207   1.562  2.0775 -0.8762 -2.0767
40779SOL    HW229196  10.088   4.109   1.608 -0.5364  2.3849 -0.7100
40780SOL     OW29197   6.566   2.464   4.373  0.3202  0.8893  0.3605
40780SOL    HW129198   6.510   2.541   4.373 -0.6842  0.1915  0.6220
40780SOL    HW229199   6.632   2.481   4.306 -1.9408  0.5289 -2.1213
40781SOL     OW29200   6.195  11.920   2.725  0.0563  0.5830 -0.1286
40781SOL    HW129201   6.111  11.964   2.713  0.4754  1.2728 -0.5740
40781SOL    HW229202   6.244  11.940   2.646  1.3531  1.7778  0.9369
40782SOL     OW29203   3.647   1.950   5.150 -0.4494  0.2616 -0.0888
40782SOL    HW129204   3.726   1.911   5.112  0.6556  2.9813 -0.8153
40782SOL    HW229205   3.609   2.001   5.079 -0.8506  1.8883  1.2474
40783SOL     OW29206   6.923   9.182   5.498  0.4716  0.6726 -0.4771
40783SOL    HW129207   7.011   9.150   5.477 -1.0594 -1.7926 -4.2688
40783SOL    HW229208   6.929   9.277   5.490  2.3291  0.4393 -3.4044
40784SOL     OW29209   4.263   0.848   2.050 -0.3550 -0.2223  0.0819
40784SOL    HW129210   4.288   0.774   2.106  0.8262  0.5321  0.5824
40784SOL    HW229211   4.241   0.807   1.966 -0.1866 -1.1873  0.4913
40785SOL     OW29212  11.965   6.963   6.651  0.0019  1.0534  0.2643
40785SOL    HW129213  11.953   6.882   6.700  1.5211  0.9943  0.5933
40785SOL    HW229214  11.961   6.937   6.560  2.1865  0.2568  0.3350
40786SOL     OW29215   1.381   3.008  11.448  0.2572 -0.6173 -0.0106
40786SOL    HW129216   1.286   3.010  11.433 -0.4031 -1.1245  3.2385
40786SOL    HW229217   1.419   3.038  11.366 -2.6587 -1.2736 -1.7668
40787SOL     OW29218   0.007   9.618   2.259  0.1001 -0.0896 -0.4761
40787SOL    HW129219  -0.031   9.576   2.335  0.0770 -0.2601 -0.5814
40787SOL    HW229220   0.068   9.554   2.223 -0.0474 -0.0957 -0.7247
40788SOL     OW29221   4.911  11.195   5.334  0.1769  0.0818  0.1983
40788SOL    HW129222   4.886  11.114   5.289  0.7272 -0.1473  0.3039
40788SOL    HW229223   4.928  11.169   5.424  1.1023  0.1751  0.0621
40789SOL     OW29224   3.115   4.032   0.413 -0.1276 -0.1271 -0.2902
40789SOL    HW129225   3.030   4.047   0.372  0.0767  1.0229 -0.3209
40789SOL    HW229226   3.113   3.940   0.441 -0.6500 -0.6525 -1.9720
40790SOL     OW29227  11.741  12.379   2.573 -0.4734 -0.1667 -0.2152
40790SOL    HW129228  11.701  12.361   2.658  1.1840  1.2346  0.9445
40790SOL    HW229229  11.673  12.424   2.523 -1.3168 -0.5646  0.5507
40791SOL     OW29230   7.663   6.486  11.172 -0.2363 -0.3074 -0.3032
40791SOL    HW129231   7.711   6.404  11.181 -1.2411 -0.9836 -0.9683
40791SOL    HW229232   7.571   6.460  11.166 -0.8682  1.0140  2.1155
40792SOL     OW29233  10.085   2.997  11.067  0.2126 -0.0594  0.3825
40792SOL    HW129234  10.000   3.040  11.072  0.4501  1.0728 -2.7872
40792SOL    HW229235  10.095   2.976  10.974  2.7301 -1.6252  0.9111
40793SOL     OW29236   4.709   7.409   9.867  0.1646 -0.2904 -0.4509
40793SOL    HW129237   4.687   7.325   9.908 -1.4762  0.4835  0.3676
40793SOL    HW229238   4.701   7.472   9.938 -0.0684  0.7421 -1.3814
40794SOL     OW29239   2.990   9.376   4.006  0.5084  0.5044 -0.0320
40794SOL    HW129240   2.947   9.339   3.929  0.0824  1.8435 -0.4589
40794SOL    HW229241   3.082   9.382   3.981  0.5483 -0.0418 -0.0370
40795SOL     OW29242   5.419  10.520   1.931 -0.5578 -0.2961 -0.2756
40795SOL    HW129243   5.382  10.598   1.888 -0.7332 -0.4106 -0.3317
40795SOL    HW229244   5.345  10.460   1.939 -0.4600 -0.3882 -0.0728
40796SOL     OW29245   9.658  10.282   3.773 -0.3448  1.3838  0.3786
40796SOL    HW129246   9.717  10.315   3.705  0.0747  0.1612  0.1311
40796SOL    HW229247   9.570  10.298   3.738 -0.1326  0.2641 -0.7310
40797SOL     OW29248   5.816   9.745   2.909 -0.2826  0.2238  0.3401
40797SOL    HW129249   5.765   9.723   2.987 -2.0845  2.3870 -0.1122
40797SOL    HW229250   5.786   9.683   2.843 -0.1491 -0.3982  0.8492
40798SOL     OW29251  12.309  11.715  11.196  0.1958 -0.3814  0.1845
40798SOL    HW129252  12.277  11.662  11.270 -0.5497 -0.1997  0.0017
40798SOL    HW229253  12.259  11.683  11.121  0.4057 -0.0404 -0.1032
40799SOL     OW29254   4.453  10.752   8.353 -0.1597  0.0071  0.2802
40799SOL    HW129255   4.382  10.715   8.302 -0.0232  1.0952 -0.7456
40799SOL    HW229256   4.459  10.696   8.430 -0.6889 -1.3959 -0.6594
40800SOL     OW29257  10.417   3.163   7.976 -0.2648 -0.2745 -0.5308
40800SOL    HW129258  10.391   3.140   8.065 -3.1879 -0.4352 -1.3005
40800SOL    HW229259  10.451   3.253   7.983 -0.1080 -0.4232  0.7890
40801SOL     OW29260   4.339   7.797   5.890  0.0602 -0.0199 -0.3333
40801SOL    HW129261   4.317   7.710   5.856  1.2479 -0.9705  1.1881
40801SOL    HW229262   4.422   7.819   5.848 -0.7831  0.9374 -1.5835
40802SOL     OW29263   9.949   5.235  11.687  0.2488 -0.3336 -0.2306
40802SOL    HW129264   9.992   5.166  11.737 -1.9774 -2.2391 -0.7505
40802SOL    HW229265   9.927   5.194  11.603  0.5022  1.6030 -1.3149
40803SOL     OW29266   0.031  10.260   1.754 -0.1774 -0.5710 -0.3120
40803SOL    HW129267  -0.000  10.171   1.771 -1.4912 -0.5270 -2.1904
40803SOL    HW229268   0.081  10.253   1.673 -0.3813  0.4045 -0.5354
40804SOL     OW29269  11.655   6.735  10.813 -0.1890  0.1545  0.1823
40804SOL    HW129270  11.729   6.777  10.858 -0.1859 -0.2207  0.5345
40804SOL    HW229271  11.668   6.756  10.721  0.2369  0.2758  0.2667
40805SOL     OW29272  10.103   0.826  12.440 -0.2463  0.1100 -0.3371
40805SOL    HW129273  10.071   0.852  12.353  0.3316 -0.8897 -0.8689
40805SOL    HW229274  10.198   0.829  12.432 -0.1913 -0.1795  0.2004
40806SOL     OW29275   0.558  10.437   3.417 -0.8688  0.2126  0.0863
40806SOL    HW129276   0.631  10.428   3.477 -0.3962  0.0830 -0.4979
40806SOL    HW229277   0.525  10.348   3.406 -0.2161  0.0639 -0.7450
40807SOL     OW29278   1.105   7.487   0.614  0.4090  0.0891  0.5732
40807SOL    HW129279   1.032   7.471   0.554 -0.7484  0.2017  1.9041
40807SOL    HW229280   1.171   7.531   0.560 -1.1954  1.5850 -0.2689
40808SOL     OW29281   8.600   2.806   0.415  0.0890  0.5993  0.1703
40808SOL    HW129282   8.662   2.854   0.471  1.6940 -2.5798  1.3619
40808SOL    HW229283   8.634   2.817   0.326  0.4160  1.6185  0.4124
40809SOL     OW29284   9.062  10.865   1.425  0.7302 -0.0382  0.7416
40809SOL    HW129285   9.133  10.803   1.408  1.7622  1.3004  0.0392
40809SOL    HW229286   9.035  10.896   1.339 -0.1525  0.0932  1.0529
40810SOL     OW29287   4.614   2.663   5.294 -0.2970  0.4128 -0.0821
40810SOL    HW129288   4.613   2.575   5.331  0.7669  1.1023  1.7231
40810SOL    HW229289   4.524   2.679   5.267 -1.0193 -0.4089  1.6521
40811SOL     OW29290   0.825  10.553   1.996  0.5522 -0.1166  0.0202
40811SOL    HW129291   0.832  10.469   1.951 -1.9281 -0.7854  0.7259
40811SOL    HW229292   0.821  10.530   2.089 -1.4394  0.6151  0.1611
40812SOL     OW29293  10.764   1.764   4.316 -0.2276 -0.2405  0.1512
40812SOL    HW129294  10.698   1.830   4.297 -1.9619 -1.1484  2.4434
40812SOL    HW229295  10.842   1.813   4.339 -0.9872  0.9684  0.2139
40813SOL     OW29296   1.330   6.889   6.016 -1.0448  0.1797 -0.4412
40813SOL    HW129297   1.277   6.819   5.977  0.6738 -1.6296  0.3203
40813SOL    HW229298   1.413   6.847   6.038  0.1140  2.5125 -0.0495
40814SOL     OW29299  12.330  11.448  11.898 -0.1082  0.8024  0.4938
40814SOL    HW129300  12.251  11.394  11.902  0.3130  0.1681  0.2408
40814SOL    HW229301  12.299  11.536  11.919 -0.9082  0.5829  0.2615
40815SOL     OW29302   6.270   8.382  11.093 -0.0153  0.1268 -0.4294
40815SOL    HW129303   6.355   8.424  11.109  0.4312 -0.1776 -1.8407
40815SOL    HW229304   6.289   8.314  11.028 -1.6073  1.2258 -2.1641
40816SOL     OW29305   6.601   4.116   1.661  0.3018 -0.3186  0.4993
40816SOL    HW129306   6.556   4.094   1.743  0.0260 -1.0774  0.1569
40816SOL    HW229307   6.590   4.038   1.606  0.0819  0.3628 -0.4397
40817SOL     OW29308   2.060   9.980  10.153 -0.4008  0.2887  0.0405
40817SOL    HW129309   2.071   9.954  10.062 -0.6963  1.1901 -0.2714
40817SOL    HW229310   1.996   9.918  10.189 -0.8317  0.3693 -0.5726
40818SOL     OW29311   5.124   1.024   0.724 -0.2226  0.0034 -0.3171
40818SOL    HW129312   5.034   1.051   0.707 -0.0288  0.5599 -0.4809
40818SOL    HW229313   5.119   0.930   0.738 -1.3256  0.4082  2.7767
40819SOL     OW29314  11.374   4.865   9.658 -0.2711  0.2944 -0.3232
40819SOL    HW129315  11.407   4.871   9.568 -1.5209 -1.2592 -0.9173
40819SOL    HW229316  11.288   4.824   9.650  0.0917 -1.0112  1.6724
40820SOL     OW29317  11.371   8.251   2.214 -0.0145 -0.1909  0.0868
40820SOL    HW129318  11.308   8.190   2.252  1.1603  0.0543  2.5776
40820SOL    HW229319  11.317   8.309   2.160 -1.5724 -1.4818  0.1710
40821SOL     OW29320   8.369  10.965   3.392 -0.2824  0.1004 -0.1771
40821SOL    HW129321   8.276  10.987   3.399 -0.1607  0.4936  0.2387
40821SOL    HW229322   8.407  10.993   3.475  0.4920  1.3041 -0.9012
40822SOL     OW29323  10.746   2.535   8.979 -0.2252 -0.0770  0.8014
40822SOL    HW129324  10.838   2.508   8.989 -0.2301 -1.1171 -1.3305
40822SOL    HW229325  10.698   2.480   9.041  0.4844 -0.3612  1.1108
40823SOL     OW29326   7.321   4.124   4.959 -0.1715  0.5101  0.3700
40823SOL    HW129327   7.285   4.089   4.878  0.4107  1.9388 -0.5468
40823SOL    HW229328   7.338   4.216   4.940  0.3665  0.7807  1.9915
40824SOL     OW29329   0.023   9.043   2.863 -0.4482 -0.4796 -0.7647
40824SOL    HW129330   0.063   8.958   2.846  0.1844 -0.3946  0.2361
40824SOL    HW229331   0.094   9.097   2.899 -1.1422  0.0771 -0.1871
40825SOL     OW29332   8.982   6.496   8.454  0.0943  0.2898  0.0951
40825SOL    HW129333   8.927   6.500   8.533  0.3123  0.9414  0.2195
40825SOL    HW229334   8.977   6.405   8.427 -0.4852  0.1884  0.5092
40826SOL     OW29335   6.750   7.469   7.529 -0.2810 -0.3200  0.0266
40826SOL    HW129336   6.792   7.498   7.609 -0.0551  0.5028 -0.3826
40826SOL    HW229337   6.690   7.540   7.505  1.9578  0.9825 -2.2414
40827SOL     OW29338   4.499   1.369   5.907 -0.4803  0.2368 -0.4227
40827SOL    HW129339   4.452   1.335   5.984  0.8470 -0.0154  0.3030
40827SOL    HW229340   4.585   1.395   5.941  0.0297  0.3819 -1.7800
40828SOL     OW29341   7.593   1.658   5.157  0.0260 -0.3050 -0.0091
40828SOL    HW129342   7.558   1.700   5.235  0.3603  0.8791 -0.4807
40828SOL    HW229343   7.649   1.724   5.117 -2.1561  0.1373 -2.6694
40829SOL     OW29344   2.666  11.386   4.406  0.1258 -0.3800  0.5626
40829SOL    HW129345   2.669  11.474   4.368  0.4541 -0.9809 -0.8541
40829SOL    HW229346   2.587  11.347   4.370 -0.8335 -0.1794  2.3619
40830SOL     OW29347   5.640   9.213  11.560 -0.6823  0.0133 -0.2069
40830SOL    HW129348   5.675   9.237  11.474  1.3836 -1.2561  0.2031
40830SOL    HW229349   5.607   9.124  11.549 -0.3357 -0.1867  0.3061
40831SOL     OW29350  11.754   7.156   7.194 -0.3342 -0.4735 -0.3731
40831SOL    HW129351  11.784   7.075   7.153  0.2095  0.3812 -1.7096
40831SOL    HW229352  11.768   7.141   7.288 -1.1046 -2.2569 -0.4836
40832SOL     OW29353  10.844  11.226  10.392 -0.0228  0.6612  0.0047
40832SOL    HW129354  10.753  11.206  10.370 -0.2247 -0.4307  1.6446
40832SOL    HW229355  10.894  11.159  10.346 -0.1452  0.5773 -0.0085
40833SOL     OW29356   0.891   1.038  11.784 -0.1113  0.1870 -0.0575
40833SOL    HW129357   0.883   1.021  11.878  0.2509 -0.1450 -0.0887
40833SOL    HW229358   0.831   0.975  11.743  1.6536 -1.4564 -0.2116
40834SOL     OW29359   2.487  11.950   2.559 -0.3849 -0.0938 -0.1362
40834SOL    HW129360   2.564  11.901   2.589 -0.1193 -0.3321 -1.1624
40834SOL    HW229361   2.448  11.896   2.491 -0.9741  0.4201 -0.2210
40835SOL     OW29362   0.276  10.350   7.691 -0.4252  0.1791  0.0993
40835SOL    HW129363   0.271  10.364   7.785 -0.4125 -0.4262  0.1925
40835SOL    HW229364   0.279  10.255   7.680 -3.0216  0.1115 -0.6332
40836SOL     OW29365   2.342  11.055   8.978 -0.2649 -0.4815 -0.1833
40836SOL    HW129366   2.273  11.122   8.986  0.1652 -0.0470 -0.0335
40836SOL    HW229367   2.295  10.976   8.951 -0.9517 -0.4310  0.7934
40837SOL     OW29368   3.164  10.709   3.769 -0.3779 -0.8261  0.2858
40837SOL    HW129369   3.108  10.786   3.782 -1.9163 -1.8815  0.2211
40837SOL    HW229370   3.111  10.636   3.801  0.7886 -1.9384 -0.2558
40838SOL     OW29371   2.943   2.872   2.984 -0.2208  0.3568  0.3124
40838SOL    HW129372   3.021   2.853   2.932  0.2892  0.6340  0.9582
40838SOL    HW229373   2.913   2.957   2.952  0.0437  0.4870  0.4039
40839SOL     OW29374   1.071  12.182   9.616 -0.1109  0.6091  0.1464
40839SOL    HW129375   1.064  12.095   9.656 -1.0303 -0.3046 -1.8250
40839SOL    HW229376   1.147  12.175   9.559  1.0391  1.8029  1.4731
40840SOL     OW29377   7.238   6.226   5.689  0.1023 -0.1588 -0.4042
40840SOL    HW129378   7.289   6.305   5.704  2.1089 -1.0778 -1.8700
40840SOL    HW229379   7.233   6.183   5.774  0.9020  0.4754 -0.0302
40841SOL     OW29380   4.426   8.187   1.493  0.3225  0.0694 -0.2746
40841SOL    HW129381   4.500   8.238   1.459  0.5834  0.9635  1.5069
40841SOL    HW229382   4.384   8.246   1.555 -1.4752 -0.7011 -0.7199
40842SOL     OW29383   5.106   6.769  10.097  0.5151 -0.1793 -0.2105
40842SOL    HW129384   5.041   6.753  10.028 -0.8917 -0.2434  1.0584
40842SOL    HW229385   5.170   6.698  10.087  0.5909  0.0737 -1.7047
40843SOL     OW29386   7.214   2.538   7.532  0.6587  0.1519  0.2596
40843SOL    HW129387   7.165   2.533   7.614  0.6270  1.1204  0.3218
40843SOL    HW229388   7.192   2.625   7.497  0.7531 -0.2040 -0.7217
40844SOL     OW29389   4.807   9.131   0.570 -0.1340  0.2976 -0.2187
40844SOL    HW129390   4.849   9.213   0.597 -0.7863  0.4643  0.3341
40844SOL    HW229391   4.865   9.095   0.503  1.3805  0.0474  1.1600
40845SOL     OW29392   0.951   5.067   7.696  0.5430  0.6244 -0.0170
40845SOL    HW129393   1.037   5.107   7.706  0.1935  1.2840  0.3834
40845SOL    HW229394   0.911   5.074   7.783 -0.5514  1.8147 -0.5897
40846SOL     OW29395  12.306   7.893   8.129  0.1258 -0.2871  0.1978
40846SOL    HW129396  12.370   7.851   8.072  1.2353 -0.2533  1.3889
40846SOL    HW229397  12.286   7.827   8.196  0.6406  0.4877  1.1381
40847SOL     OW29398  10.992   4.962  11.033  0.1840 -0.0241  0.2880
40847SOL    HW129399  11.072   4.997  11.071 -0.9401  2.0704  0.8624
40847SOL    HW229400  11.008   4.963  10.939  0.2903  1.9488  0.2868
40848SOL     OW29401  12.578   4.766   4.920  0.0861 -0.1996 -0.0028
40848SOL    HW129402  12.546   4.799   4.836 -1.5549 -2.1073 -0.1880
40848SOL    HW229403  12.621   4.683   4.899 -1.0150 -1.0797  1.1026
40849SOL     OW29404  12.202   8.159   6.482 -0.4017  0.0611 -1.1803
40849SOL    HW129405  12.209   8.064   6.475 -4.2353 -0.4731 -0.2623
40849SOL    HW229406  12.146   8.173   6.559 -0.9089  3.0029 -1.9731
40850SOL     OW29407   8.077  11.333   2.267 -0.1638 -0.0092  0.7143
40850SOL    HW129408   8.139  11.280   2.217 -0.5971  0.8084 -0.7743
40850SOL    HW229409   8.090  11.422   2.234 -0.4028  0.5951  2.1687
40851SOL     OW29410   4.650   2.342   5.977  0.6496 -1.1321  0.4352
40851SOL    HW129411   4.605   2.332   6.061  2.1963  0.6105  1.5362
40851SOL    HW229412   4.743   2.335   5.998  1.2368  2.0054 -0.6264
40852SOL     OW29413  11.202   3.063   1.625  0.4371  0.1329  0.3051
40852SOL    HW129414  11.118   3.066   1.670  0.4213  0.3458  0.2624
40852SOL    HW229415  11.207   2.975   1.587  0.5606 -0.1404  0.9368
40853SOL     OW29416   1.705   6.766   4.611 -0.4024  0.2056  0.1898
40853SOL    HW129417   1.708   6.800   4.522  1.0538  0.3879  0.3003
40853SOL    HW229418   1.757   6.827   4.663 -1.0722 -0.0024  1.1502
40854SOL     OW29419   9.582   4.700   7.502 -0.1011  0.1832 -0.6772
40854SOL    HW129420   9.607   4.782   7.544 -1.0069 -0.4722  1.2541
40854SOL    HW229421   9.508   4.724   7.447 -0.9151  0.5629  0.5304
40855SOL     OW29422   8.329  12.007   3.156 -0.3987 -0.0893 -0.4309
40855SOL    HW129423   8.381  11.949   3.100  2.9404  1.1757  1.0956
40855SOL    HW229424   8.271  11.948   3.204  0.7164 -1.8088 -1.1030
40856SOL     OW29425   8.858   0.939   5.259  0.2888  0.0193 -0.5489
40856SOL    HW129426   8.813   0.947   5.175  0.9171  2.5495 -0.7263
40856SOL    HW229427   8.795   0.973   5.323  0.2996 -0.6737 -0.1638
40857SOL     OW29428   5.928   2.447  11.153 -0.1552 -0.0326  0.3930
40857SOL    HW129429   6.021   2.462  11.171  0.2390 -2.2611  0.4795
40857SOL    HW229430   5.889   2.433  11.240 -1.1191  3.2014  0.6027
40858SOL     OW29431   2.000   7.221   0.798 -0.2232  0.5695  1.2172
40858SOL    HW129432   1.927   7.246   0.740 -0.2677 -0.8356  0.6383
40858SOL    HW229433   2.079   7.243   0.747 -0.1868  2.4478  1.9944
40859SOL     OW29434   7.056   8.430   5.847  0.0016 -0.2785  0.2993
40859SOL    HW129435   7.026   8.521   5.855 -1.9699 -0.9393  0.9105
40859SOL    HW229436   7.151   8.436   5.856 -0.0671  1.7399  0.1456
40860SOL     OW29437   9.994   6.541   6.703 -0.2328  0.6668 -0.1958
40860SOL    HW129438   9.967   6.485   6.776 -0.2284  1.0723  0.1168
40860SOL    HW229439  10.048   6.484   6.648 -1.4564 -0.0725 -0.6711
40861SOL     OW29440   8.765   9.488   0.376 -0.3092  0.0158 -0.1551
40861SOL    HW129441   8.718   9.513   0.456 -0.3382 -0.6906  0.0595
40861SOL    HW229442   8.772   9.569   0.326  3.1090  1.4505  2.2507
40862SOL     OW29443   4.589   6.326   3.041  0.0024  0.1512  0.6969
40862SOL    HW129444   4.618   6.264   3.109  0.8747  1.5672  1.6631
40862SOL    HW229445   4.557   6.402   3.090 -0.0009  0.9337 -0.4838
40863SOL     OW29446   5.172   5.296   8.292  0.3819  0.2533  0.2457
40863SOL    HW129447   5.237   5.355   8.328  0.5040  0.1096  0.2589
40863SOL    HW229448   5.107   5.354   8.251  0.2875  0.4128  0.6179
40864SOL     OW29449   4.738   9.178   0.177 -0.0633 -0.9507 -0.3581
40864SOL    HW129450   4.652   9.195   0.216 -0.1723 -0.1643 -0.9136
40864SOL    HW229451   4.779   9.265   0.172  0.5638 -1.2546 -0.5459
40865SOL     OW29452   8.758   9.130   6.496  0.0820  0.0387  0.1968
40865SOL    HW129453   8.729   9.052   6.449  2.1809 -1.2030  0.7806
40865SOL    HW229454   8.782   9.097   6.583 -1.6428  1.8878  1.4479
40866SOL     OW29455  11.031   3.818   8.711  0.0300 -0.4999 -0.1963
40866SOL    HW129456  11.011   3.841   8.621  0.8276 -0.9187 -0.4939
40866SOL    HW229457  10.948   3.825   8.758 -0.0355  1.6719 -0.5412
40867SOL     OW29458   6.381   9.359   3.819 -0.8175 -0.0795  0.3604
40867SOL    HW129459   6.389   9.283   3.877  0.6905 -0.7500 -0.6748
40867SOL    HW229460   6.439   9.340   3.746  0.6082  2.6282  0.6649
40868SOL     OW29461   7.947   5.307   2.383 -0.0777  0.4318 -0.2812
40868SOL    HW129462   7.974   5.264   2.302  0.8811  1.2413 -0.4134
40868SOL    HW229463   7.905   5.238   2.434  1.4260 -0.6711 -0.4765
40869SOL     OW29464   6.002   3.892   4.892  0.0230  0.0982 -0.0306
40869SOL    HW129465   5.909   3.913   4.888 -0.0065 -0.0015  0.1296
40869SOL    HW229466   6.045   3.969   4.854 -0.1285  0.1056 -0.1874
40870SOL     OW29467  11.511   9.878  11.979  0.4371 -0.4338  0.0106
40870SOL    HW129468  11.466   9.797  11.956  0.9382 -1.2087  1.6009
40870SOL    HW229469  11.574   9.852  12.047  0.9612  1.1992  0.1987
40871SOL     OW29470  11.758   5.900  11.939 -0.2575  0.2362 -0.0151
40871SOL    HW129471  11.790   5.990  11.940  1.4488 -0.2997 -1.4735
40871SOL    HW229472  11.764   5.871  12.031 -1.2029  1.6790  0.5350
40872SOL     OW29473  11.628  11.800   0.966  0.0350 -0.2398 -0.9863
40872SOL    HW129474  11.636  11.704   0.960 -2.9185 -0.6984  0.7094
40872SOL    HW229475  11.689  11.825   1.035  0.0221 -1.0457 -0.6727
40873SOL     OW29476  11.111   0.610   1.827  0.3600  0.0224 -0.4091
40873SOL    HW129477  11.112   0.530   1.773 -2.2183 -1.2118  1.1771
40873SOL    HW229478  11.019   0.637   1.828  1.1418  3.0419 -0.8108
40874SOL     OW29479   0.931   1.273   8.795  0.2438  0.4293  0.1749
40874SOL    HW129480   0.870   1.260   8.867  0.1241 -0.8011 -0.1188
40874SOL    HW229481   0.888   1.232   8.720  0.4604  1.4969 -0.5492
40875SOL     OW29482  10.541   6.065   5.171 -0.0497  0.0134 -0.2231
40875SOL    HW129483  10.621   6.047   5.221 -0.3296 -0.6926 -0.0091
40875SOL    HW229484  10.520   6.156   5.191  0.1075 -0.1177  0.5875
40876SOL     OW29485  11.272   1.695   8.259  0.3822 -0.1106  0.2991
40876SOL    HW129486  11.259   1.632   8.187 -1.7549 -0.7904  1.1790
40876SOL    HW229487  11.247   1.779   8.221 -1.2040 -0.5348  0.3008
40877SOL     OW29488   4.737   1.787  11.653  0.2504 -0.1196  0.5482
40877SOL    HW129489   4.825   1.757  11.629  0.3257  0.4927  0.0143
40877SOL    HW229490   4.705   1.722  11.714  1.3722  0.0227  1.3169
40878SOL     OW29491   2.904   0.018   9.772  0.3100  0.8131 -0.0056
40878SOL    HW129492   2.860   0.103   9.775 -0.2243  0.7158 -2.8525
40878SOL    HW229493   2.902  -0.008   9.680 -0.5832 -2.8498  0.8894
40879SOL     OW29494   4.356   6.396  10.553  0.2127 -0.6367  0.3733
40879SOL    HW129495   4.419   6.466  10.536  0.8106 -1.1281  0.5737
40879SOL    HW229496   4.402   6.335  10.610 -0.9203 -0.2600  1.7704
40880SOL     OW29497   9.842   2.448   6.489 -0.0260 -0.5496  0.0531
40880SOL    HW129498   9.871   2.473   6.576  0.6878  0.2962 -0.4105
40880SOL    HW229499   9.900   2.496   6.429 -2.0562  0.8823 -0.9181
40881SOL     OW29500   8.233  11.495  10.174  0.1908  0.2766  0.0683
40881SOL    HW129501   8.232  11.547  10.094 -1.1427  3.2112  1.8405
40881SOL    HW229502   8.321  11.456  10.176  0.0195 -0.5776 -3.1094
40882SOL     OW29503  10.027   5.495   6.769 -0.5879  0.3843  0.0031
40882SOL    HW129504   9.954   5.441   6.799 -0.8968  0.1708 -1.0688
40882SOL    HW229505  10.070   5.441   6.702  0.9804  0.2285  1.0801
40883SOL     OW29506  10.426   1.106   7.828 -0.4788  0.4785  0.2887
40883SOL    HW129507  10.371   1.040   7.870 -0.0729 -0.2871 -0.3581
40883SOL    HW229508  10.365   1.158   7.776 -0.9851  1.4227  1.7447
40884SOL     OW29509   2.984   4.971   6.579 -0.5170  0.5578  0.3014
40884SOL    HW129510   3.040   5.014   6.513 -2.0818  0.7958 -0.9212
40884SOL    HW229511   2.920   5.038   6.603 -0.9883 -0.0707  0.8201
40885SOL     OW29512   4.815   8.271  11.226 -0.2305  0.3530  0.3829
40885SOL    HW129513   4.723   8.293  11.207  0.8368  2.8402 -2.6986
40885SOL    HW229514   4.844   8.340  11.286 -0.1897 -0.0662  0.8502
40886SOL     OW29515   4.410  11.715   7.369 -0.2175 -0.2632  0.1698
40886SOL    HW129516   4.478  11.689   7.432 -0.1048 -0.5379 -0.0608
40886SOL    HW229517   4.395  11.636   7.317 -1.2993 -0.4575  0.7496
40887SOL     OW29518   9.155   4.547   2.788 -0.0836 -0.2989  0.0082
40887SOL    HW129519   9.198   4.533   2.872  0.6233 -0.3173 -0.3496
40887SOL    HW229520   9.130   4.459   2.759 -1.1021 -0.2169  0.5889
40888SOL     OW29521   1.901   0.126   8.128 -0.0464 -0.3162  0.9869
40888SOL    HW129522   1.862   0.118   8.042 -0.2795  1.9293  0.8273
40888SOL    HW229523   1.961   0.200   8.121 -0.2962  0.1223  2.8324
40889SOL     OW29524   2.771   9.618   9.690  0.4978 -0.0891  0.7073
40889SOL    HW129525   2.750   9.531   9.656  2.2336 -0.6179  0.8608
40889SOL    HW229526   2.694   9.643   9.741 -0.6208 -0.8984 -0.5184
40890SOL     OW29527   7.682   6.681   9.856  0.3233 -0.3282 -0.6377
40890SOL    HW129528   7.742   6.615   9.820  0.7655 -0.4174  0.2476
40890SOL    HW229529   7.597   6.638   9.856  0.4317 -0.5516 -0.9698
40891SOL     OW29530   5.259  11.846   8.298 -0.6868 -0.1048  0.2204
40891SOL    HW129531   5.350  11.846   8.269  0.0446 -1.7513  2.2475
40891SOL    HW229532   5.233  11.938   8.296  1.4746  0.5735  0.9171
40892SOL     OW29533   1.480   2.877   1.001  0.3450 -0.5130  0.2806
40892SOL    HW129534   1.490   2.854   0.909  1.6127 -2.9487  0.9316
40892SOL    HW229535   1.495   2.971   1.005 -1.3207 -0.0575 -2.1630
40893SOL     OW29536  10.963   2.857   1.948  0.0119 -0.2142 -0.0403
40893SOL    HW129537  11.042   2.815   1.914 -0.4961 -1.0100 -0.2354
40893SOL    HW229538  10.896   2.790   1.946 -0.8767  0.6613 -0.5816
40894SOL     OW29539   6.791   8.451   0.050  0.3420  0.3604 -0.3488
40894SOL    HW129540   6.793   8.379  -0.012  1.7912 -0.9456  1.1408
40894SOL    HW229541   6.852   8.516   0.015  0.6405 -0.0662 -0.6147
40895SOL     OW29542   3.300   2.042   0.487 -0.2012  0.2997  0.0284
40895SOL    HW129543   3.321   2.006   0.401  1.4317 -0.5026  0.7177
40895SOL    HW229544   3.305   1.967   0.546  1.7519  1.3291  1.2728
40896SOL     OW29545   2.352  10.069   9.625  0.3288  0.3638  0.3125
40896SOL    HW129546   2.268  10.027   9.643  0.5206  0.7260  2.2932
40896SOL    HW229547   2.362  10.133   9.696  2.3292  0.2522  0.1739
40897SOL     OW29548   6.795   3.814   9.250  0.1264  0.3569  0.3251
40897SOL    HW129549   6.754   3.890   9.208  1.3964  0.6723 -0.4017
40897SOL    HW229550   6.817   3.756   9.178  1.3505  0.4037  0.6437
40898SOL     OW29551   1.321   4.978  10.288 -0.1632 -0.4374  0.2595
40898SOL    HW129552   1.274   4.926  10.354  2.4074 -0.4051  2.2679
40898SOL    HW229553   1.324   5.066  10.325  1.5990 -0.4952  0.3129
40899SOL     OW29554  10.125   6.571   4.931  0.4697 -0.6958 -0.3766
40899SOL    HW129555  10.136   6.564   4.837 -0.7079 -0.5131 -0.5448
40899SOL    HW229556  10.041   6.616   4.942  0.9074 -0.1131  0.7520
40900SOL     OW29557   3.429   3.771   2.471 -0.3389 -0.3873 -0.6582
40900SOL    HW129558   3.474   3.732   2.546 -0.7871  1.9911  0.9632
40900SOL    HW229559   3.349   3.808   2.508 -0.3846  1.2136 -2.2189
40901SOL     OW29560   3.703   6.815  11.133 -0.0202  0.1509 -0.0835
40901SOL    HW129561   3.718   6.865  11.213  0.7321 -0.3803  0.1133
40901SOL    HW229562   3.608   6.807  11.127 -0.1269  1.0702  0.2040
40902SOL     OW29563   9.016   8.396   1.907 -0.1414  0.1329  0.0752
40902SOL    HW129564   9.100   8.440   1.894  0.9265 -1.3361  1.5123
40902SOL    HW229565   8.986   8.427   1.993 -0.1934 -0.6163  0.3399
40903SOL     OW29566   2.998   7.505   5.923  0.9843 -0.6162 -0.4168
40903SOL    HW129567   2.991   7.476   6.014  0.8657 -2.1804 -0.8904
40903SOL    HW229568   2.972   7.429   5.872 -1.0526  0.8949 -1.7534
40904SOL     OW29569   6.049   0.108   8.081  0.0168  0.2627  0.1207
40904SOL    HW129570   6.112   0.048   8.122  2.4002  1.4634 -1.5224
40904SOL    HW229571   6.030   0.068   7.997  0.0861  0.8333 -0.1707
40905SOL     OW29572   9.377   5.517   2.648  1.0745  0.0076  0.3239
40905SOL    HW129573   9.369   5.593   2.591  1.8861  1.1134  1.6299
40905SOL    HW229574   9.469   5.515   2.674  0.8994 -0.9496  0.9451
40906SOL     OW29575   0.305   5.799  11.494 -0.3667  0.5240  0.5692
40906SOL    HW129576   0.224   5.826  11.537 -0.3016 -0.0524  1.0742
40906SOL    HW229577   0.326   5.714  11.534 -0.0778  0.1750 -0.3021
40907SOL     OW29578   2.553   5.886   1.223  0.1412  0.2048  0.1803
40907SOL    HW129579   2.562   5.979   1.245  3.0241 -0.2802  1.6391
40907SOL    HW229580   2.544   5.842   1.308  0.1121 -0.9243 -0.3791
40908SOL     OW29581   9.715   2.286   8.168  0.5724  0.0316 -1.0353
40908SOL    HW129582   9.676   2.369   8.194  0.9894  0.0043 -0.2799
40908SOL    HW229583   9.693   2.225   8.239  2.6524  0.2269 -0.1357
40909SOL     OW29584   2.690  10.636   3.529  0.3135  0.0421  0.5779
40909SOL    HW129585   2.711  10.729   3.540 -0.5875  0.3020  0.1460
40909SOL    HW229586   2.621  10.619   3.592  0.4776 -0.3446  0.6584
40910SOL     OW29587   4.894   7.060  11.208  0.1223  0.4932  0.4102
40910SOL    HW129588   4.951   7.026  11.277 -0.4853  0.5661  0.9507
40910SOL    HW229589   4.805   7.044  11.240 -0.1643  0.9393 -0.1524
40911SOL     OW29590   8.443   2.568  10.316  0.0413  0.3113 -0.2284
40911SOL    HW129591   8.460   2.482  10.355 -1.8684  0.3044  0.6654
40911SOL    HW229592   8.530   2.608  10.308  0.7047 -0.5162  2.1562
40912SOL     OW29593   1.873  12.240  10.410 -0.4398 -0.5816  0.1176
40912SOL    HW129594   1.950  12.185  10.427  0.9916  1.6663  1.3763
40912SOL    HW229595   1.879  12.262  10.317  0.9110  0.2212  0.3818
40913SOL     OW29596   6.726   8.508   1.714  0.1474 -0.7503  0.4575
40913SOL    HW129597   6.647   8.492   1.765 -0.1819 -1.6528 -0.3072
40913SOL    HW229598   6.694   8.527   1.626  0.7241  0.3904  0.4715
40914SOL     OW29599   8.067   4.728  10.147  0.0030  0.8713  0.7708
40914SOL    HW129600   7.980   4.686  10.148  1.1105 -1.7260 -0.9692
40914SOL    HW229601   8.119   4.673  10.089  1.9367  4.2532 -1.0308
40915SOL     OW29602   7.236   0.906   7.626 -0.5277  0.4976 -0.2668
40915SOL    HW129603   7.263   0.959   7.701  0.1212  0.2404 -0.3105
40915SOL    HW229604   7.190   0.967   7.568  1.2555  1.3160 -0.8885
40916SOL     OW29605   2.990   8.832   2.699 -0.1903  0.0354 -0.1758
40916SOL    HW129606   3.005   8.923   2.725  0.4110 -0.0493 -0.2056
40916SOL    HW229607   2.895   8.824   2.692 -0.2771  0.5007  0.3930
40917SOL     OW29608   8.883   7.799   4.801  0.4469 -0.3860  0.0648
40917SOL    HW129609   8.847   7.712   4.816 -0.3888  0.1128  1.0167
40917SOL    HW229610   8.814   7.846   4.754  1.2735 -0.5084 -1.3686
40918SOL     OW29611   1.843   9.216   3.721 -0.0370 -0.0257  0.0536
40918SOL    HW129612   1.936   9.224   3.700 -0.1528  2.1070  0.1296
40918SOL    HW229613   1.817   9.131   3.685  2.0897 -1.0016  0.6773
40919SOL     OW29614  12.113   3.341   1.504 -0.0439 -0.1278 -0.7179
40919SOL    HW129615  12.104   3.246   1.511  0.2184  0.0025  2.4720
40919SOL    HW229616  12.118   3.373   1.594 -1.1428  3.0474 -1.6116
40920SOL     OW29617   1.399   4.915   4.791 -0.3364 -0.1236 -0.1478
40920SOL    HW129618   1.457   4.847   4.823 -0.1431 -0.6902 -1.6043
40920SOL    HW229619   1.452   4.994   4.790  0.1506 -0.4511 -0.6156
40921SOL     OW29620   3.620   4.520   9.291 -0.1674  0.5911 -0.1722
40921SOL    HW129621   3.694   4.556   9.340  1.2790 -0.0402 -1.7999
40921SOL    HW229622   3.603   4.585   9.222 -0.3396  0.1575 -0.5420
40922SOL     OW29623   0.091  12.043   3.775  0.1002 -0.1559  0.1184
40922SOL    HW129624   0.092  12.095   3.855 -1.5354  2.5232 -1.4793
40922SOL    HW229625   0.179  12.052   3.738  0.4259 -0.2375  0.8613
40923SOL     OW29626   2.536   5.568   9.721  0.2409 -0.2405  0.1497
40923SOL    HW129627   2.609   5.516   9.755  0.4242 -0.9260 -1.2210
40923SOL    HW229628   2.460   5.511   9.730  0.1649 -0.1549  0.0410
40924SOL     OW29629   0.149   6.386   6.094  0.2555 -0.1574  0.0148
40924SOL    HW129630   0.130   6.412   6.184 -3.2455  1.5005 -1.0400
40924SOL    HW229631   0.085   6.317   6.075 -1.6826  2.0502 -2.1973
40925SOL     OW29632   2.117   3.295   0.591  0.3045  0.1231  0.0648
40925SOL    HW129633   2.159   3.219   0.631 -0.6503  0.3401  1.5509
40925SOL    HW229634   2.028   3.295   0.627 -0.4326  0.6717 -1.6486
40926SOL     OW29635   5.974  11.460  10.611  0.0189 -0.1223 -0.1200
40926SOL    HW129636   5.919  11.388  10.582  1.5353 -1.6665  0.6966
40926SOL    HW229637   5.966  11.525  10.542 -0.3855 -1.5881 -1.5057
40927SOL     OW29638   1.092   8.458   9.639  0.3140 -0.0595  0.1966
40927SOL    HW129639   1.099   8.373   9.683  0.2875 -0.2189 -0.1049
40927SOL    HW229640   1.151   8.515   9.688  0.8253 -0.4196  0.0118
40928SOL     OW29641   7.346   7.779   7.074 -0.0115 -0.3065  0.7228
40928SOL    HW129642   7.349   7.842   7.002 -1.5570  0.0371  0.9175
40928SOL    HW229643   7.427   7.795   7.123  0.6873 -0.0154 -0.4761
40929SOL     OW29644   8.198   8.192   5.218  0.1550 -0.4730 -0.7328
40929SOL    HW129645   8.244   8.108   5.218  2.4386  0.6845  0.1327
40929SOL    HW229646   8.236   8.240   5.292 -0.7571  1.4897 -1.4706
40930SOL     OW29647   5.607   9.299   6.690  0.0525  0.0418  0.1408
40930SOL    HW129648   5.567   9.320   6.606  1.8355 -3.1064 -1.6862
40930SOL    HW229649   5.533   9.275   6.746 -1.0475  0.2524 -1.1771
40931SOL     OW29650   6.280  11.960   7.499  0.0307  0.4152 -0.0884
40931SOL    HW129651   6.357  11.930   7.548  0.3790 -0.7188 -1.2477
40931SOL    HW229652   6.316  12.018   7.432 -0.3533  1.3664  0.5120
40932SOL     OW29653   1.977   7.179   1.719  0.4062  0.2115 -0.3204
40932SOL    HW129654   2.028   7.115   1.769 -0.5546 -1.5910 -1.5413
40932SOL    HW229655   2.036   7.208   1.650 -0.0755 -1.7990 -1.6762
40933SOL     OW29656   1.246   6.923  12.565 -0.1021  0.1924 -0.1686
40933SOL    HW129657   1.317   6.965  12.517  0.1371 -0.3975 -0.3415
40933SOL    HW229658   1.244   6.833  12.532  1.1904 -0.7594  2.0698
40934SOL     OW29659   6.517   0.408   5.095  0.4868  0.0319  0.4450
40934SOL    HW129660   6.421   0.412   5.093  0.4947  1.1506 -2.3535
40934SOL    HW229661   6.541   0.457   5.174 -1.2164  2.3243 -0.3539
40935SOL     OW29662   1.541   8.079   2.335 -0.3432 -0.0633  0.1212
40935SOL    HW129663   1.583   8.032   2.407 -1.2972  0.4048  1.0151
40935SOL    HW229664   1.597   8.154   2.320 -0.0855 -0.2118  0.3186
40936SOL     OW29665   4.311   3.602   2.955 -0.6136  0.4187  0.3151
40936SOL    HW129666   4.340   3.532   3.014  1.1347  1.2042  0.4390
40936SOL    HW229667   4.301   3.559   2.870 -3.0804 -0.7098  1.0952
40937SOL     OW29668  11.257   2.469  11.039  0.1736 -0.1598  0.7881
40937SOL    HW129669  11.168   2.506  11.039  0.5777  0.8566 -0.1875
40937SOL    HW229670  11.309   2.532  11.088  0.6866  0.1146 -0.0957
40938SOL     OW29671   9.816  11.697   9.366  0.0146 -0.4497 -0.4166
40938SOL    HW129672   9.775  11.633   9.307  2.2372 -2.3758 -0.0262
40938SOL    HW229673   9.891  11.731   9.317 -0.4149  0.9623 -0.1341
40939SOL     OW29674   1.549   1.707   2.979  0.1741  0.5617  0.1985
40939SOL    HW129675   1.604   1.761   3.037  1.9260 -0.0157 -0.8479
40939SOL    HW229676   1.536   1.762   2.901  1.6029 -0.2934 -0.6906
40940SOL     OW29677   1.185   2.718   2.653  0.4865  0.2670  0.3052
40940SOL    HW129678   1.229   2.797   2.622 -0.2386 -0.0325 -1.6392
40940SOL    HW229679   1.134   2.747   2.728  2.1514  1.0956  1.1652
40941SOL     OW29680  11.664   8.417   3.940 -0.3452  0.2512 -0.5266
40941SOL    HW129681  11.678   8.511   3.925  0.4729  0.1783 -0.2844
40941SOL    HW229682  11.736   8.375   3.893  0.0052 -0.1905  0.3776
40942SOL     OW29683   4.047  10.849  11.028 -0.2056  0.3427  0.0065
40942SOL    HW129684   3.981  10.815  10.967  0.1176 -1.4336  0.5803
40942SOL    HW229685   4.125  10.863  10.975  0.5316 -2.5670  0.1402
40943SOL     OW29686   9.146   9.666   4.411  0.2109  0.3986  0.1170
40943SOL    HW129687   9.078   9.701   4.354 -0.7427  1.9137  2.0654
40943SOL    HW229688   9.147   9.725   4.486  1.6774 -1.2747  1.5080
40944SOL     OW29689   2.342   8.167   4.083  0.1142  0.4087 -0.6464
40944SOL    HW129690   2.351   8.185   4.177  2.3254 -0.5009 -0.6159
40944SOL    HW229691   2.287   8.088   4.079  1.4677 -0.6102  0.0398
40945SOL     OW29692   7.454   4.894   4.393  0.2472 -0.4134 -0.0773
40945SOL    HW129693   7.486   4.978   4.428  0.0523 -1.2373  2.2690
40945SOL    HW229694   7.359   4.898   4.407  0.2172 -0.9350 -0.1190
40946SOL     OW29695   3.055  10.150   6.316 -0.5063 -0.5376 -0.8345
40946SOL    HW129696   3.120  10.090   6.278 -0.4862  0.3527 -2.2897
40946SOL    HW229697   2.978  10.139   6.262 -0.8034  0.0922 -0.5496
40947SOL     OW29698   4.270   6.883  11.545  0.3181  0.0765  0.2517
40947SOL    HW129699   4.216   6.956  11.515  0.5807  0.1424 -0.0587
40947SOL    HW229700   4.257   6.814  11.480 -0.8771 -0.6070  1.1747
40948SOL     OW29701   8.120  11.208   1.270 -0.3789  0.6148 -0.4262
40948SOL    HW129702   8.205  11.249   1.253 -0.1260  0.0932 -0.4210
40948SOL    HW229703   8.123  11.184   1.363 -1.2953  2.3628  0.1142
40949SOL     OW29704   4.836   2.392   9.308  0.0981  0.0983  0.6532
40949SOL    HW129705   4.745   2.375   9.330  0.2739 -1.3320  0.3616
40949SOL    HW229706   4.883   2.314   9.338  1.4420  1.3721  2.0433
40950SOL     OW29707   6.215   9.518  11.588  0.1063 -0.0743  0.3650
40950SOL    HW129708   6.147   9.560  11.641 -1.3114 -1.0028 -0.6447
40950SOL    HW229709   6.211   9.426  11.612 -0.8477 -0.5935 -1.5668
40951SOL     OW29710   0.843   4.145   4.673 -0.6206  0.5545  0.0071
40951SOL    HW129711   0.899   4.155   4.596  1.0010  1.1726  1.2151
40951SOL    HW229712   0.854   4.053   4.698  0.2278  0.7719  0.4821
40952SOL     OW29713   7.802   9.376   3.044 -0.2838  0.2570 -0.2408
40952SOL    HW129714   7.846   9.446   2.995 -0.4186 -0.0871 -0.8590
40952SOL    HW229715   7.867   9.350   3.110 -0.5618  1.5782  0.6096
40953SOL     OW29716  10.239   8.807   5.131 -0.3967  0.3838  0.3363
40953SOL    HW129717  10.260   8.841   5.044 -1.3364 -1.6202 -0.7328
40953SOL    HW229718  10.154   8.845   5.152 -1.0731 -0.6207 -0.5042
40954SOL     OW29719   1.112   8.438   8.152 -0.5348  0.1481 -0.1146
40954SOL    HW129720   1.099   8.441   8.247  0.6848  0.5740  0.0514
40954SOL    HW229721   1.203   8.464   8.139 -0.2153 -1.4315 -1.2962
40955SOL     OW29722   9.419   2.898   0.969 -0.0044 -0.5286  0.1968
40955SOL    HW129723   9.483   2.843   0.926 -0.2998 -1.5537  1.0207
40955SOL    HW229724   9.335   2.872   0.931 -0.3526 -1.9284  1.7881
40956SOL     OW29725   1.614  11.964  10.791  0.3953  0.6650  0.1865
40956SOL    HW129726   1.619  11.951  10.696 -0.6376 -1.2848  0.3417
40956SOL    HW229727   1.532  11.921  10.817  2.0823 -1.5990  2.3358
40957SOL     OW29728  10.867   5.233   9.366  0.3543  0.2776 -0.0393
40957SOL    HW129729  10.808   5.158   9.378  0.1061  0.5578  0.5380
40957SOL    HW229730  10.947   5.195   9.330  0.2892 -0.2954  0.3987
40958SOL     OW29731   3.824   7.937  10.100 -0.1260  0.1826 -0.0837
40958SOL    HW129732   3.841   7.878  10.026 -1.4434 -0.9667  0.4682
40958SOL    HW229733   3.743   7.903  10.139  0.1922  1.1384  1.5094
40959SOL     OW29734   4.350   3.420   8.485 -0.4705  0.3862 -0.5134
40959SOL    HW129735   4.255   3.433   8.491 -0.7324 -1.4053 -0.0026
40959SOL    HW229736   4.388   3.504   8.510 -1.9064  0.5089  1.4882
40960SOL     OW29737  10.616   9.865   3.445  0.1767  0.2003 -0.3084
40960SOL    HW129738  10.549   9.798   3.430  1.4615 -1.5502  1.3934
40960SOL    HW229739  10.567   9.939   3.481 -1.2869  0.3131 -2.2970
40961SOL     OW29740   1.109   9.108   5.785 -0.3655 -0.0376 -0.4832
40961SOL    HW129741   1.067   9.032   5.826 -0.9583  0.1276 -0.7877
40961SOL    HW229742   1.120   9.171   5.856  2.6421 -1.4081  0.4554
40962SOL     OW29743   5.513   9.070   6.380 -0.3103 -0.2046 -0.1082
40962SOL    HW129744   5.492   9.034   6.467  0.2709 -0.4199 -0.0519
40962SOL    HW229745   5.608   9.058   6.372 -0.3473 -0.0854 -0.7306
40963SOL     OW29746   5.252   1.155   7.370 -0.4083 -0.7102 -0.2777
40963SOL    HW129747   5.256   1.251   7.376  1.0760 -0.7436 -0.1979
40963SOL    HW229748   5.273   1.137   7.278 -3.2264 -0.9117 -0.9738
40964SOL     OW29749   2.949   9.574   6.417 -0.0281  0.3362 -0.3928
40964SOL    HW129750   2.922   9.661   6.388  1.2046  1.7285  2.3059
40964SOL    HW229751   2.875   9.542   6.469 -0.1140  0.1809 -0.6111
40965SOL     OW29752   5.241   7.605   9.666 -0.5115 -0.3642 -0.3916
40965SOL    HW129753   5.181   7.555   9.722  1.7972 -1.8181  0.9491
40965SOL    HW229754   5.294   7.656   9.727  0.4199 -0.0489 -1.4268
40966SOL     OW29755   7.169  12.532  10.274  0.6865  0.1214  0.5918
40966SOL    HW129756   7.171  12.585  10.353  0.3209 -0.7166  1.1807
40966SOL    HW229757   7.092  12.477  10.284  0.6805 -0.0485 -0.3146
40967SOL     OW29758  12.509   6.384  10.317 -0.1999 -0.5306  0.1780
40967SOL    HW129759  12.577   6.339  10.266  0.2637 -2.0426  2.0354
40967SOL    HW229760  12.450   6.315  10.345 -0.8857  0.3722  1.0063
40968SOL     OW29761   6.425   0.008  10.648 -0.3583 -0.2875  0.2881
40968SOL    HW129762   6.516  -0.013  10.627  0.4381  1.8466  1.3848
40968SOL    HW229763   6.388   0.037  10.564  0.3084 -0.0287  0.0744
40969SOL     OW29764   5.116   0.346   1.042  0.2068  0.2800 -0.1162
40969SOL    HW129765   5.159   0.373   0.961  2.9708 -1.2339  0.7181
40969SOL    HW229766   5.135   0.416   1.104  0.6496  0.0520  0.0048
40970SOL     OW29767   6.449   6.888   7.833  0.1975  0.1992  0.2185
40970SOL    HW129768   6.538   6.919   7.819  0.1602 -0.0594 -0.6172
40970SOL    HW229769   6.405   6.961   7.878  0.7569  0.4178  0.4205
40971SOL     OW29770   6.213   7.387   4.999 -0.4380 -0.1083 -0.2732
40971SOL    HW129771   6.203   7.467   5.051  1.5473 -0.0233  0.0399
40971SOL    HW229772   6.305   7.364   5.008 -1.0853 -2.8472  0.2016
40972SOL     OW29773   8.418   4.649   1.886 -0.1050  0.1464  0.4797
40972SOL    HW129774   8.456   4.614   1.967  0.9482 -0.5603 -0.2958
40972SOL    HW229775   8.398   4.571   1.834  0.7086  0.6364 -0.5866
40973SOL     OW29776   7.107   7.400  10.797 -0.4656 -0.5759  0.1026
40973SOL    HW129777   7.153   7.427  10.718 -3.0048  2.4944 -0.5168
40973SOL    HW229778   7.023   7.367  10.766 -1.2751  0.1144  1.4372
40974SOL     OW29779   9.143   5.080   1.364 -0.1839 -0.3946 -0.2204
40974SOL    HW129780   9.091   5.120   1.434  0.4158  0.2025 -0.1154
40974SOL    HW229781   9.082   5.073   1.291 -1.4599 -2.9285  0.9484
40975SOL     OW29782   2.676   4.540   9.281 -0.0929 -0.0541 -0.6126
40975SOL    HW129783   2.694   4.447   9.270 -0.9972 -0.2297 -0.7119
40975SOL    HW229784   2.681   4.576   9.193 -1.4044 -0.3436 -0.8409
40976SOL     OW29785  12.040   0.832   3.593 -0.4113 -0.4181  0.4077
40976SOL    HW129786  12.107   0.897   3.571 -1.1849  0.4222  0.4440
40976SOL    HW229787  11.999   0.811   3.510 -1.7367  0.9572  0.6552
40977SOL     OW29788   8.852   7.872   2.832 -0.2399 -0.0243 -0.1168
40977SOL    HW129789   8.909   7.934   2.787  0.7923 -0.3913  0.6416
40977SOL    HW229790   8.862   7.790   2.783 -0.4697  0.0304 -0.2548
40978SOL     OW29791   5.902   9.040   2.009 -0.3999  0.3888 -0.1604
40978SOL    HW129792   5.965   9.072   2.074  1.3874 -2.1475 -0.4673
40978SOL    HW229793   5.872   8.956   2.045 -1.5134  0.2589 -1.3471
40979SOL     OW29794   3.241   0.158   3.352  0.1280  0.5366  0.9932
40979SOL    HW129795   3.247   0.088   3.286 -0.9009  0.9134  0.4623
40979SOL    HW229796   3.148   0.180   3.353  0.6438  3.1069 -0.1567
40980SOL     OW29797   1.310   8.106   1.684  0.6126  0.1010  0.1464
40980SOL    HW129798   1.352   8.163   1.620 -0.2934  0.8507  0.1907
40980SOL    HW229799   1.257   8.046   1.631 -0.2145  0.7849  0.1741
40981SOL     OW29800   4.137   5.719  12.577 -0.2327 -0.2580  0.5745
40981SOL    HW129801   4.072   5.677  12.522 -2.1067 -0.3691  2.7150
40981SOL    HW229802   4.124   5.681  12.664  2.5063 -0.0328  1.2026
40982SOL     OW29803   0.550   8.206   9.007  0.2313  0.0003  0.4987
40982SOL    HW129804   0.475   8.168   8.962 -0.1835 -0.2238  1.3760
40982SOL    HW229805   0.531   8.300   9.011  0.5750  0.1136 -0.3649
40983SOL     OW29806   1.854   8.245  12.132 -0.1539 -0.2851  0.5937
40983SOL    HW129807   1.899   8.262  12.215  2.0819 -0.3604 -0.5425
40983SOL    HW229808   1.859   8.150  12.122 -0.1271 -0.2436  0.2141
40984SOL     OW29809   6.117   1.101   6.208  0.2260  0.3291 -0.0711
40984SOL    HW129810   6.033   1.113   6.252  1.0088  1.9418  1.0334
40984SOL    HW229811   6.107   1.016   6.163 -2.3815  0.9706 -0.9227
40985SOL     OW29812   9.043   4.909   3.700 -0.1448  0.1024  0.3462
40985SOL    HW129813   8.948   4.924   3.701 -0.1109  0.4080 -0.5426
40985SOL    HW229814   9.078   4.980   3.646  0.3462 -1.3037 -1.2681
40986SOL     OW29815   7.854   2.018   7.947  0.1526  0.4628  0.4517
40986SOL    HW129816   7.859   2.055   8.035 -0.6426  1.8626 -0.0632
40986SOL    HW229817   7.906   2.077   7.892 -0.4829  0.3936 -0.2444
40987SOL     OW29818   4.403  12.187  12.503 -0.0010 -0.4956 -0.7939
40987SOL    HW129819   4.449  12.175  12.586  0.6733 -3.9173 -1.5123
40987SOL    HW229820   4.462  12.152  12.437 -0.1607  2.8760 -2.9790
40988SOL     OW29821   7.641   7.835  11.645 -0.2799  0.0618  0.1527
40988SOL    HW129822   7.639   7.931  11.638 -1.5827  0.3194  2.8283
40988SOL    HW229823   7.554   7.808  11.616  0.1259 -0.3624 -0.7080
40989SOL     OW29824   5.844   3.358  12.258  0.1339 -0.1338  0.4814
40989SOL    HW129825   5.791   3.399  12.325 -0.1726  1.0626 -0.4571
40989SOL    HW229826   5.894   3.291  12.304 -3.1517 -2.3133  1.2141
40990SOL     OW29827   2.455   4.778   7.823  0.3923  0.0791 -0.3333
40990SOL    HW129828   2.410   4.846   7.774 -0.1048  0.1057  0.1493
40990SOL    HW229829   2.544   4.778   7.788  0.5388  1.3153 -0.0158
40991SOL     OW29830   6.233   7.341   4.315  0.7975 -0.0097  0.2070
40991SOL    HW129831   6.313   7.344   4.263  1.2001 -1.0833  0.7265
40991SOL    HW229832   6.195   7.256   4.294 -0.3881  0.6238 -0.2799
40992SOL     OW29833   2.983   2.903   5.334  0.1521 -0.2389 -0.0976
40992SOL    HW129834   2.891   2.884   5.355 -0.1632  0.2565 -0.9735
40992SOL    HW229835   3.010   2.831   5.277  0.1226 -0.0669 -0.3289
40993SOL     OW29836   1.631   3.159   8.611  0.3506 -0.1155 -0.2298
40993SOL    HW129837   1.678   3.141   8.530  1.1006 -2.6996  0.6955
40993SOL    HW229838   1.541   3.174   8.583  1.1941  2.6038 -1.8061
40994SOL     OW29839   0.298   8.050   6.792 -0.3105  0.5130 -0.5008
40994SOL    HW129840   0.363   8.013   6.853 -1.5471  1.5280  1.5374
40994SOL    HW229841   0.246   7.974   6.764  0.6678 -0.0593 -0.8292
40995SOL     OW29842   2.685   9.975   2.289  0.0342  0.6617 -0.4078
40995SOL    HW129843   2.640  10.021   2.360  0.9403 -0.7318  1.1204
40995SOL    HW229844   2.653   9.885   2.295  1.1669  0.2105 -0.8549
40996SOL     OW29845  11.919   4.379   0.446  0.6060 -0.0233  0.1183
40996SOL    HW129846  11.908   4.326   0.367  1.0915 -0.9758  0.6788
40996SOL    HW229847  11.830   4.400   0.474  0.4298  0.6802 -0.8988
40997SOL     OW29848   3.998  11.162   1.356  0.2646 -0.3939 -0.0274
40997SOL    HW129849   4.073  11.146   1.413  0.3433 -1.7748 -0.4813
40997SOL    HW229850   4.035  11.165   1.268 -0.0866 -0.0054 -0.1701
40998SOL     OW29851   5.038   4.491   0.504 -0.4959 -0.0986 -0.6025
40998SOL    HW129852   5.059   4.554   0.573  1.0775 -0.0211 -1.1051
40998SOL    HW229853   5.122   4.474   0.461 -1.2143 -1.1480 -1.6553
40999SOL     OW29854  10.106   5.761   3.995  0.3650  0.2818  0.4583
40999SOL    HW129855  10.141   5.776   3.907 -1.7007  1.4956 -0.2377
40999SOL    HW229856  10.138   5.835   4.046 -2.9635  2.9062 -0.8357
41000SOL     OW29857   9.375  10.576   7.414  0.5234 -0.1402 -0.1203
41000SOL    HW129858   9.345  10.652   7.464 -0.3184  0.0540 -0.8961
41000SOL    HW229859   9.385  10.609   7.325 -4.5750 -1.9091 -1.6932
41001SOL     OW29860   6.988   3.295   6.168  0.0356  0.1214 -0.6588
41001SOL    HW129861   6.954   3.296   6.079  0.3741  0.1542 -0.7888
41001SOL    HW229862   7.043   3.373   6.173  0.6135 -0.2840 -0.6526
41002SOL     OW29863  11.592   6.874   4.814  0.2576  0.7756 -0.6739
41002SOL    HW129864  11.587   6.781   4.790  2.2206  0.7250 -1.0435
41002SOL    HW229865  11.677   6.883   4.857 -1.0515  1.8790  1.8850
41003SOL     OW29866   2.333   7.466   5.872 -0.1464  0.6911  0.4260
41003SOL    HW129867   2.316   7.416   5.793 -2.5573  0.2645  1.1514
41003SOL    HW229868   2.334   7.557   5.843  0.3709  0.4712 -0.2730
41004SOL     OW29869  10.357   3.195   1.786 -0.0163 -0.1244 -0.1650
41004SOL    HW129870  10.276   3.188   1.837 -2.1076  0.7864 -3.1431
41004SOL    HW229871  10.372   3.106   1.753 -2.0166  0.3544 -2.6202
41005SOL     OW29872   7.129   3.789   0.919  0.4632  0.8501 -0.5281
41005SOL    HW129873   7.044   3.748   0.903  0.8491  0.2448 -1.0789
41005SOL    HW229874   7.184   3.718   0.952 -0.0696  1.8813  2.8647
41006SOL     OW29875   6.248   0.977   3.884 -0.0208  0.0531 -0.0334
41006SOL    HW129876   6.322   1.008   3.831 -0.9190  1.9386 -0.2601
41006SOL    HW229877   6.184   0.946   3.820 -0.5837  1.1335 -0.0113
41007SOL     OW29878   6.441   1.482   5.557  0.5051 -0.0563  0.4043
41007SOL    HW129879   6.467   1.493   5.465  1.9118  0.9014  0.8896
41007SOL    HW229880   6.445   1.570   5.594 -2.6340  0.0351  0.7831
41008SOL     OW29881   5.267   4.896   3.112 -0.3185  0.6101 -0.1021
41008SOL    HW129882   5.307   4.955   3.176  0.8012  0.6792 -0.8293
41008SOL    HW229883   5.191   4.860   3.156 -0.0499  1.3053  0.9592
41009SOL     OW29884  11.839   6.197   4.162  0.0125  0.7782  0.1043
41009SOL    HW129885  11.777   6.252   4.114 -1.6635 -1.2800 -0.2202
41009SOL    HW229886  11.791   6.171   4.241  0.6109 -0.4998  0.0607
41010SOL     OW29887   5.426  12.034  11.218 -0.0011 -1.0184 -0.2863
41010SOL    HW129888   5.389  12.091  11.150 -2.0195 -0.2815  1.3019
41010SOL    HW229889   5.392  11.947  11.196  1.1124 -1.1946 -1.3798
41011SOL     OW29890  10.882   7.718   8.291  0.0164 -0.5791 -0.5739
41011SOL    HW129891  10.919   7.802   8.261  1.7579 -1.4035 -0.8657
41011SOL    HW229892  10.858   7.733   8.382 -0.5384  0.4806 -0.8745
41012SOL     OW29893   8.751   0.500   6.587 -0.0116  0.2353 -0.1126
41012SOL    HW129894   8.673   0.512   6.534  0.4058 -1.3074 -1.1170
41012SOL    HW229895   8.821   0.543   6.537 -0.1210  1.2628  0.5905
41013SOL     OW29896   9.070   1.531   1.077  0.3286  0.0819  0.2417
41013SOL    HW129897   9.012   1.517   1.152 -1.8554  3.1575 -0.6980
41013SOL    HW229898   9.156   1.505   1.108 -0.7663 -0.3192  3.2532
41014SOL     OW29899   4.871   2.224   2.201  0.4382 -0.0149 -0.0188
41014SOL    HW129900   4.922   2.210   2.121 -0.2025 -0.0054 -0.4268
41014SOL    HW229901   4.895   2.150   2.257 -1.3212 -1.6726 -1.3547
41015SOL     OW29902   3.365   9.351   3.423  0.1205  0.3545 -1.0444
41015SOL    HW129903   3.423   9.426   3.438 -0.3279  0.4303  0.4415
41015SOL    HW229904   3.298   9.359   3.491 -1.4940  0.1187 -2.5370
41016SOL     OW29905   2.036   2.968   8.366  0.5337 -0.4702  0.3602
41016SOL    HW129906   2.104   3.000   8.425  1.4901 -2.6251  0.5132
41016SOL    HW229907   2.044   3.022   8.287  0.0337  1.6460  1.6704
41017SOL     OW29908   3.479   4.098   9.320 -0.1970 -0.4786  0.2146
41017SOL    HW129909   3.539   4.152   9.268  0.8617  0.5520  2.3517
41017SOL    HW229910   3.397   4.146   9.318  0.1613  0.1586  0.4240
41018SOL     OW29911  11.992   8.846   2.266 -0.3270  1.0718  0.3255
41018SOL    HW129912  11.939   8.789   2.321 -1.2266  0.7349 -0.8618
41018SOL    HW229913  11.929   8.891   2.210  0.5844  1.2729 -0.5612
41019SOL     OW29914   1.884   5.802  10.521 -0.8008 -0.2004  1.0330
41019SOL    HW129915   1.883   5.707  10.532 -0.6600 -0.2065  0.9950
41019SOL    HW229916   1.865   5.836  10.608 -1.5105 -0.2713  0.9126
41020SOL     OW29917   2.903   1.319   1.902 -0.3355 -0.0884  0.4872
41020SOL    HW129918   2.981   1.371   1.883  0.1340  0.0765  2.6206
41020SOL    HW229919   2.908   1.245   1.843  0.2578  1.0337 -0.9259
41021SOL     OW29920   8.904   5.739  10.498  0.2369 -0.3711  0.3813
41021SOL    HW129921   8.868   5.790  10.571 -2.2709 -1.8640  0.3046
41021SOL    HW229922   8.972   5.796  10.461  0.0726  1.3503  2.4853
41022SOL     OW29923   7.927   0.881   9.297  0.2280  0.2578  0.0524
41022SOL    HW129924   7.998   0.842   9.347  0.0859  2.7557  2.4759
41022SOL    HW229925   7.847   0.845   9.335  0.1501 -0.0742 -0.4210
41023SOL     OW29926   4.968  11.671  11.111 -0.1448  0.0271 -0.3165
41023SOL    HW129927   4.906  11.681  11.184 -1.1867  2.6007 -1.4521
41023SOL    HW229928   5.054  11.689  11.150 -0.4993 -0.0464  0.5373
41024SOL     OW29929  10.057   7.531   9.272 -0.3131  0.3637  0.2382
41024SOL    HW129930  10.080   7.497   9.186 -0.4759 -0.5123  0.5285
41024SOL    HW229931  10.090   7.466   9.334  0.2497  1.2275  0.8756
41025SOL     OW29932   6.637   5.894  10.462  0.0855 -0.0921  0.3342
41025SOL    HW129933   6.674   5.963  10.516 -0.7997  0.5173  0.1820
41025SOL    HW229934   6.580   5.845  10.520 -0.6479  0.3905  0.0335
41026SOL     OW29935  12.302   4.694   7.085  0.2747 -0.2624  0.0445
41026SOL    HW129936  12.343   4.608   7.093 -0.3453 -0.6534 -0.8417
41026SOL    HW229937  12.325   4.739   7.167  2.3479 -0.4925 -0.3412
41027SOL     OW29938   6.831   7.254  10.159 -0.1059  0.0297 -0.1532
41027SOL    HW129939   6.767   7.184  10.169 -0.7287  0.3244 -1.7506
41027SOL    HW229940   6.800   7.305  10.084  1.2231  1.0428 -0.0660
41028SOL     OW29941   1.942   2.369   7.698  0.2176  0.1182  0.2107
41028SOL    HW129942   1.923   2.337   7.787  1.4325 -0.3601  0.3110
41028SOL    HW229943   2.004   2.305   7.662 -0.4520  0.1702 -1.0868
41029SOL     OW29944   6.940   9.612  11.966 -0.0935  0.3769  0.3057
41029SOL    HW129945   6.850   9.605  11.998  0.0743 -0.7895  0.5589
41029SOL    HW229946   6.983   9.669  12.029 -1.2331  3.1374 -1.1837
41030SOL     OW29947   9.352  12.248   7.985 -0.0065  0.1571 -0.0688
41030SOL    HW129948   9.285  12.274   8.048 -0.6018  0.1665 -0.6990
41030SOL    HW229949   9.326  12.289   7.903  1.1627  0.7555 -0.1706
41031SOL     OW29950  11.649   7.385   3.389  0.4011 -0.1444  0.0729
41031SOL    HW129951  11.564   7.414   3.424  0.7748  1.0009  0.0601
41031SOL    HW229952  11.637   7.291   3.374 -0.7539 -0.0729  0.4046
41032SOL     OW29953   6.781   3.505   3.415  0.7423  0.1711 -0.0825
41032SOL    HW129954   6.814   3.487   3.328 -0.2036 -0.0328 -0.4082
41032SOL    HW229955   6.845   3.565   3.453  0.2006  1.8212 -1.6267
41033SOL     OW29956   1.955   2.921   5.618  0.6004  0.0131 -0.0141
41033SOL    HW129957   1.939   2.838   5.663 -0.0518  0.2890  0.2766
41033SOL    HW229958   2.021   2.965   5.673  2.4415 -1.1115 -1.1961
41034SOL     OW29959   1.720  12.106   2.498  0.1058 -0.0567  0.4160
41034SOL    HW129960   1.680  12.024   2.527 -0.9280 -0.3813 -1.6971
41034SOL    HW229961   1.723  12.098   2.402  0.6320  2.0845  0.2083
41035SOL     OW29962   6.107   0.576   8.191 -0.4422 -0.3906 -0.4650
41035SOL    HW129963   6.135   0.664   8.214 -0.1152 -0.9635  1.5472
41035SOL    HW229964   6.180   0.539   8.142 -0.1910  0.1218 -0.4837
41036SOL     OW29965   0.436   9.295   2.450  0.6768  0.3142 -0.1464
41036SOL    HW129966   0.408   9.205   2.468 -2.3855  0.8974 -1.3371
41036SOL    HW229967   0.427   9.303   2.355  0.4251  2.0075  0.0047
41037SOL     OW29968   7.867   6.463   9.795 -0.3598 -0.2642  0.0070
41037SOL    HW129969   7.931   6.392   9.797 -1.8241 -1.6615 -0.1562
41037SOL    HW229970   7.789   6.423   9.755 -1.2265  1.4567 -0.1136
41038SOL     OW29971   1.518   6.546   4.265 -0.1868 -0.0795  0.3175
41038SOL    HW129972   1.428   6.542   4.298 -0.7358  0.3311 -1.0516
41038SOL    HW229973   1.508   6.546   4.169  1.1915  1.5874  0.1278
41039SOL     OW29974   8.491  10.269   1.849  0.4151  0.2431 -0.2205
41039SOL    HW129975   8.515  10.225   1.767  0.4067  1.3062 -0.8066
41039SOL    HW229976   8.529  10.356   1.841 -0.9912  0.9126  0.2057
41040SOL     OW29977  11.654   2.752  11.193  0.0955  0.2985  0.1814
41040SOL    HW129978  11.719   2.807  11.149 -2.3315  0.9476 -3.0672
41040SOL    HW229979  11.669   2.665  11.158  0.1288  0.1507  0.5619
41041SOL     OW29980   9.180  12.478   5.643  0.5545 -0.0542  0.0414
41041SOL    HW129981   9.092  12.517   5.642  0.2071 -0.8163 -0.4641
41041SOL    HW229982   9.187  12.435   5.558  1.8827  0.9820 -0.4146
41042SOL     OW29983   1.319   8.428  12.531 -0.8381  0.1490 -0.5279
41042SOL    HW129984   1.257   8.464  12.594 -0.7330 -0.8289  0.1628
41042SOL    HW229985   1.389   8.493  12.526 -0.2051 -0.2959  1.3887
41043SOL     OW29986   9.073   6.026   1.412  0.4182  0.3202 -0.4990
41043SOL    HW129987   9.015   6.102   1.419 -0.5006 -0.4732  0.8137
41043SOL    HW229988   9.151   6.050   1.463 -0.7085 -0.3380  1.6483
41044SOL     OW29989   5.345   9.250   6.898 -0.1710  0.6277  0.3445
41044SOL    HW129990   5.412   9.318   6.898  0.8872 -0.3658 -0.7858
41044SOL    HW229991   5.369   9.193   6.971 -0.5547  0.9691  0.7461
41045SOL     OW29992   1.418   7.459   5.879 -0.0008  0.2325 -0.4209
41045SOL    HW129993   1.476   7.493   5.811  1.2300 -0.5085  0.2341
41045SOL    HW229994   1.390   7.374   5.848  0.1548  0.1125 -0.2373
41046SOL     OW29995   7.744   5.818   4.701 -0.1255 -0.5553 -0.2797
41046SOL    HW129996   7.697   5.762   4.640 -0.5766 -1.9731  1.2853
41046SOL    HW229997   7.679   5.882   4.730 -0.2238 -0.5820 -0.4414
41047SOL     OW29998   7.875   9.619   4.646  0.4250  0.0744 -0.3103
41047SOL    HW129999   7.820   9.541   4.648  0.9271 -0.2690  0.4039
41047SOL    HW230000   7.822   9.687   4.688  0.2252 -0.0362 -0.3837
41048SOL     OW30001   1.106   5.708   4.655  0.2982 -0.1549  0.4232
41048SOL    HW130002   1.193   5.736   4.629 -0.5265  0.2828 -2.1269
41048SOL    HW230003   1.068   5.783   4.701  0.9593 -0.0876  0.8725
41049SOL     OW30004   9.675   9.127  12.211 -0.6979  0.0596  0.3137
41049SOL    HW130005   9.724   9.184  12.270 -2.6185  2.2328 -0.0846
41049SOL    HW230006   9.639   9.185  12.144  0.5614 -2.1639 -2.5235
41050SOL     OW30007   6.891  11.573   3.430 -0.1701 -0.1434 -0.1955
41050SOL    HW130008   6.912  11.664   3.453 -0.7797 -0.1169  0.2797
41050SOL    HW230009   6.968  11.523   3.458  1.3057  0.4988 -2.7437
41051SOL     OW30010   4.712   6.500   8.456  0.2028  0.1933 -0.0875
41051SOL    HW130011   4.714   6.454   8.373  0.0934  1.8500 -1.0579
41051SOL    HW230012   4.640   6.459   8.505 -0.7639  0.2266 -1.4480
41052SOL     OW30013  10.276   9.268   6.132 -0.1844 -0.2116 -0.5857
41052SOL    HW130014  10.305   9.289   6.043 -0.0172  1.6618 -0.1347
41052SOL    HW230015  10.265   9.353   6.174 -3.3196 -0.8954  0.2592
41053SOL     OW30016   7.934   8.800   0.156 -0.2347 -0.3152 -0.2880
41053SOL    HW130017   7.903   8.878   0.109 -1.5999 -1.1809 -0.8593
41053SOL    HW230018   7.965   8.741   0.087  0.4373 -0.4469  0.1179
41054SOL     OW30019  11.506  11.481   6.312 -0.2985  0.2830 -0.2785
41054SOL    HW130020  11.562  11.490   6.389 -0.1663  0.6181 -0.4147
41054SOL    HW230021  11.520  11.391   6.283 -2.3454 -0.7567  1.6421
41055SOL     OW30022   0.494  10.059  10.362  0.0402  0.2719  0.1736
41055SOL    HW130023   0.572  10.111  10.380 -0.0870  0.4844  0.1166
41055SOL    HW230024   0.490   9.996  10.434  2.2775 -2.1653 -1.6760
41056SOL     OW30025   6.854   2.294   4.606  0.2557  0.1809 -0.3994
41056SOL    HW130026   6.788   2.233   4.574  2.5635 -2.8319  0.1538
41056SOL    HW230027   6.859   2.277   4.700  1.3332  0.8405 -0.3237
41057SOL     OW30028   2.524   9.405   7.020 -0.7422  0.0245 -0.1848
41057SOL    HW130029   2.487   9.461   7.088 -0.6843  0.5120 -0.5505
41057SOL    HW230030   2.611   9.382   7.052 -0.6188  0.4559 -0.2007
41058SOL     OW30031   9.042   7.494   6.436  0.8000 -0.3776 -0.2548
41058SOL    HW130032   9.084   7.567   6.392  0.3126  1.7097  2.4293
41058SOL    HW230033   9.114   7.444   6.474  1.0647 -0.0783 -0.3605
41059SOL     OW30034   0.363   1.481   1.029 -0.0793  0.3733  0.4282
41059SOL    HW130035   0.425   1.503   0.959  0.7196 -4.7368 -0.9402
41059SOL    HW230036   0.419   1.457   1.103 -0.5194 -1.0552  0.3247
41060SOL     OW30037   6.487   8.798   5.977 -0.4324 -0.0647 -0.2353
41060SOL    HW130038   6.454   8.873   6.027 -1.8567 -0.2681 -0.8134
41060SOL    HW230039   6.512   8.835   5.893 -0.0250 -0.0523 -0.1081
41061SOL     OW30040  10.816   0.273  10.020 -0.0068 -0.4468  0.4027
41061SOL    HW130041  10.753   0.229  10.077 -2.2908  1.4777 -0.4702
41061SOL    HW230042  10.834   0.356  10.063 -2.8959  1.7099 -2.1297
41062SOL     OW30043   4.002  11.226   0.849  0.0024  0.4039 -0.3908
41062SOL    HW130044   3.912  11.200   0.828  0.6482 -2.2120 -0.3282
41062SOL    HW230045   4.049  11.216   0.766  0.3631  1.1385 -0.2754
41063SOL     OW30046   1.341   1.510   8.271  0.6634  0.2604  0.2982
41063SOL    HW130047   1.372   1.434   8.222 -1.2012 -0.1920 -0.2712
41063SOL    HW230048   1.327   1.578   8.204 -2.0044 -0.3963  0.0691
41064SOL     OW30049   3.532   6.967  11.853  0.2107  0.0509  0.3513
41064SOL    HW130050   3.623   6.984  11.877  0.3141  0.9807 -0.6284
41064SOL    HW230051   3.537   6.901  11.784  0.1013 -0.2747  0.6498
41065SOL     OW30052  11.444   6.779   8.943  0.4535  0.5553  0.4656
41065SOL    HW130053  11.452   6.685   8.958  2.5103  0.2232 -2.0032
41065SOL    HW230054  11.373   6.787   8.879  0.4003  0.6655  0.5380
41066SOL     OW30055   7.990   3.965  11.301  0.0178 -0.0128 -0.6799
41066SOL    HW130056   8.017   3.881  11.263 -1.5646 -0.1776 -1.5580
41066SOL    HW230057   7.923   3.941  11.366 -0.2802  0.5474 -0.7757
41067SOL     OW30058   3.339   2.452  10.889  0.2439 -0.3432 -0.1849
41067SOL    HW130059   3.414   2.392  10.890  0.5285  0.0127  0.7326
41067SOL    HW230060   3.378   2.539  10.895 -0.2068 -0.1043 -0.6398
41068SOL     OW30061   7.701   1.374   3.241 -0.1313  0.1686 -0.1541
41068SOL    HW130062   7.673   1.388   3.331 -1.4517 -0.4866 -0.4364
41068SOL    HW230063   7.672   1.284   3.221  1.2169 -0.1339 -0.8404
41069SOL     OW30064  12.414   2.078   9.529 -0.6391 -0.1104  0.2564
41069SOL    HW130065  12.486   2.069   9.591 -0.6582 -1.2870  0.1325
41069SOL    HW230066  12.356   2.144   9.567 -0.1791 -0.1393  1.0093
41070SOL     OW30067   4.413   6.381   7.647 -0.5601  0.6159 -0.1530
41070SOL    HW130068   4.335   6.345   7.605 -1.2543  1.2309  0.5807
41070SOL    HW230069   4.440   6.452   7.589 -1.5908  1.5458  0.4652
41071SOL     OW30070   1.877   9.858   2.290  0.1189  0.1097  0.1996
41071SOL    HW130071   1.943   9.916   2.329  1.5227 -0.3116 -1.4534
41071SOL    HW230072   1.923   9.776   2.275 -0.8747 -0.3077 -0.6723
41072SOL     OW30073   6.233   6.606   2.000 -0.4931  0.5855 -0.4578
41072SOL    HW130074   6.151   6.571   2.036 -0.6949  1.1397 -0.3641
41072SOL    HW230075   6.207   6.686   1.954 -0.0492  0.5885 -0.7093
41073SOL     OW30076  11.758   7.999   9.709 -0.1273  0.6015  0.4903
41073SOL    HW130077  11.819   8.053   9.760  1.0168 -0.3969  0.2383
41073SOL    HW230078  11.775   7.910   9.738 -1.0094  0.2348 -0.0855
41074SOL     OW30079  10.444   9.071   2.190  0.6969  0.5645 -0.2974
41074SOL    HW130080  10.477   8.996   2.239 -1.2029 -1.0411 -1.3172
41074SOL    HW230081  10.348   9.061   2.193  0.2099  4.2553  1.4657
41075SOL     OW30082   8.443   0.087   7.612 -0.0552 -0.4576  0.1176
41075SOL    HW130083   8.536   0.063   7.613 -0.3590 -1.7034  0.5494
41075SOL    HW230084   8.436   0.155   7.545  1.5182  1.1662  1.5155
41076SOL     OW30085  10.694   8.847  10.598  0.5182  0.6720 -0.5256
41076SOL    HW130086  10.686   8.935  10.561 -0.1211  1.6280  1.7161
41076SOL    HW230087  10.783   8.844  10.633  0.4459  0.5280 -0.3529
41077SOL     OW30088  12.553   6.173  11.175 -0.5534  0.3410  0.3331
41077SOL    HW130089  12.459   6.159  11.167 -0.8194  1.5813  1.0466
41077SOL    HW230090  12.565   6.266  11.158  0.3005  0.5773  2.0104
41078SOL     OW30091  10.128  11.551   1.860 -0.9412  0.3737 -0.4706
41078SOL    HW130092  10.176  11.575   1.781 -0.4482  0.8127 -0.0500
41078SOL    HW230093  10.182  11.484   1.902  0.0967  1.8975  0.7517
41079SOL     OW30094   5.389   5.969   5.112 -0.1138 -0.3998 -0.3387
41079SOL    HW130095   5.478   6.005   5.110 -0.2384 -0.1243 -0.9446
41079SOL    HW230096   5.351   5.994   5.029 -0.3869 -1.4974 -0.5583
41080SOL     OW30097   6.043   2.494   1.657 -0.8567  0.0728  0.7771
41080SOL    HW130098   6.133   2.505   1.689 -0.0924 -1.9025 -0.4844
41080SOL    HW230099   5.989   2.493   1.736  0.5690 -1.4157  1.8040
41081SOL     OW30100   2.563   2.613   9.410  0.6038  0.2042 -0.6715
41081SOL    HW130101   2.612   2.687   9.445 -1.4495  2.0854 -1.4634
41081SOL    HW230102   2.597   2.537   9.456  2.5896  1.6717  0.4405
41082SOL     OW30103  10.536   4.197   4.587 -0.3053 -0.1390  0.2131
41082SOL    HW130104  10.449   4.211   4.548 -1.0289 -0.5580  1.6131
41082SOL    HW230105  10.583   4.143   4.523 -0.2349  1.9396 -1.6353
41083SOL     OW30106   9.758   8.587   9.677  0.2681 -0.7038 -0.4615
41083SOL    HW130107   9.767   8.506   9.729 -0.0742 -1.3525 -1.3775
41083SOL    HW230108   9.836   8.638   9.698  0.6140 -1.3818 -0.0495
41084SOL     OW30109  11.744  10.969   8.512 -0.1814 -0.2291  0.2481
41084SOL    HW130110  11.753  11.042   8.450 -1.9366  0.0809  0.3182
41084SOL    HW230111  11.796  10.899   8.473  0.1383  0.5073 -0.7023
41085SOL     OW30112   7.729  11.791   4.781 -0.6387 -0.5925  0.0882
41085SOL    HW130113   7.799  11.856   4.774 -0.9116 -0.3909 -0.8708
41085SOL    HW230114   7.772  11.707   4.773 -0.4245 -0.4963  0.2248
41086SOL     OW30115   5.860   9.210   1.452  0.0643 -0.3458 -0.8155
41086SOL    HW130116   5.809   9.136   1.421  0.1582 -0.2469 -1.2109
41086SOL    HW230117   5.799   9.284   1.449 -0.9587 -0.8807  2.3217
41087SOL     OW30118   8.129   4.879   9.172  0.4005 -0.4974 -0.0995
41087SOL    HW130119   8.189   4.806   9.156  1.0979  0.5670 -2.9599
41087SOL    HW230120   8.185   4.956   9.168 -0.8454  0.4021 -0.8274
41088SOL     OW30121   7.491  10.525  10.415 -0.1480 -0.8066 -0.7228
41088SOL    HW130122   7.562  10.581  10.446 -1.7787  0.4812  0.8510
41088SOL    HW230123   7.531  10.438  10.407  1.0940 -0.6716  2.5306
41089SOL     OW30124  12.091   3.605   4.465 -0.0860  0.2712  0.0271
41089SOL    HW130125  12.109   3.675   4.529 -1.3102 -0.2290  0.9549
41089SOL    HW230126  12.139   3.530   4.498  1.5487  0.7433 -1.1833
41090SOL     OW30127   0.687   0.135   3.804 -0.7720 -0.3680 -0.1241
41090SOL    HW130128   0.628   0.087   3.862 -0.6807 -0.7500 -0.3437
41090SOL    HW230129   0.629   0.185   3.747 -0.8673 -0.1799  0.1370
41091SOL     OW30130  11.383   5.548   5.885 -0.1400  0.2537 -0.2935
41091SOL    HW130131  11.428   5.559   5.801 -0.8347 -1.0999 -0.8762
41091SOL    HW230132  11.433   5.602   5.946  1.1598  0.2412 -1.2926
41092SOL     OW30133   0.996  10.171  12.570  0.1032  0.6343  0.4079
41092SOL    HW130134   1.065  10.168  12.637  1.0766 -2.7297 -0.5689
41092SOL    HW230135   0.941  10.095  12.589 -0.8029  0.7948 -1.3882
41093SOL     OW30136   9.209   7.580   1.702 -0.2688  0.5426 -0.0336
41093SOL    HW130137   9.290   7.546   1.665 -0.2697  0.7918 -0.2742
41093SOL    HW230138   9.173   7.636   1.633 -0.7121  0.3281  0.0182
41094SOL     OW30139   4.146   0.214   3.310 -0.8003  0.3185 -0.2207
41094SOL    HW130140   4.148   0.290   3.369 -0.2401  0.6785 -0.6939
41094SOL    HW230141   4.236   0.204   3.280 -0.8359 -0.6528 -0.0259
41095SOL     OW30142  11.213   4.645   7.606 -1.1562  0.2010 -0.0900
41095SOL    HW130143  11.235   4.559   7.643 -0.5110  0.5407  0.3397
41095SOL    HW230144  11.139   4.628   7.548  0.5654 -1.0866 -2.0414
41096SOL     OW30145   7.776   3.277   6.656  0.0797  0.4938  0.4503
41096SOL    HW130146   7.710   3.301   6.591 -0.0027  1.1457  0.7690
41096SOL    HW230147   7.736   3.205   6.705 -0.8943  1.6252  1.3954
41097SOL     OW30148  11.323   7.327  12.064 -0.5244 -0.1226 -0.0918
41097SOL    HW130149  11.340   7.260  12.130 -0.4041  1.4234  1.5458
41097SOL    HW230150  11.314   7.279  11.982  2.1666 -1.9224  0.5250
41098SOL     OW30151   7.474   6.655   8.843  0.1318  0.5568 -1.0615
41098SOL    HW130152   7.560   6.634   8.807  1.6675  2.4220  1.2103
41098SOL    HW230153   7.460   6.590   8.912 -0.4921  0.0441 -1.6514
41099SOL     OW30154   8.589   5.163   8.403 -0.0068 -0.7373 -0.2113
41099SOL    HW130155   8.601   5.093   8.338  2.1895  0.1028 -0.7702
41099SOL    HW230156   8.609   5.244   8.355  0.0229  0.0470  1.0906
41100SOL     OW30157   7.940   5.105   0.557 -0.6483  0.8927 -0.4526
41100SOL    HW130158   7.963   5.148   0.474 -2.4440 -0.5664 -1.7783
41100SOL    HW230159   8.021   5.061   0.584  0.8032  3.6452  0.1477
41101SOL     OW30160  10.089   0.177   1.154 -0.4806  0.0550 -0.0621
41101SOL    HW130161  10.146   0.234   1.102  0.7334  0.0706  1.2235
41101SOL    HW230162  10.130   0.091   1.149 -0.9462 -0.1714  0.0064
41102SOL     OW30163   9.425   8.624   3.908 -0.4112  0.0666  0.4598
41102SOL    HW130164   9.503   8.679   3.896 -0.6398  0.3663  0.3288
41102SOL    HW230165   9.456   8.535   3.891  0.1732  0.0419  1.5372
41103SOL     OW30166  11.019   3.747  10.636  0.0918 -0.8697  0.2355
41103SOL    HW130167  10.957   3.800  10.685 -0.1083 -0.9790  0.1002
41103SOL    HW230168  11.060   3.808  10.575 -0.0063 -0.8341  0.2055
41104SOL     OW30169   2.221   0.495   5.656 -0.0138 -0.0479 -0.5473
41104SOL    HW130170   2.207   0.558   5.585  0.7376 -0.2943 -0.9231
41104SOL    HW230171   2.137   0.490   5.701 -0.6078 -0.1398 -1.6332
41105SOL     OW30172   6.615  11.870   9.709 -0.6078 -0.1222 -0.5543
41105SOL    HW130173   6.614  11.913   9.794 -0.2877 -0.1669 -0.5256
41105SOL    HW230174   6.705  11.879   9.678 -0.8910  0.5362 -1.2219
41106SOL     OW30175   9.525  11.683   2.430 -1.1734 -0.0398 -0.0534
41106SOL    HW130176   9.610  11.709   2.395 -1.3932  0.0889 -0.4967
41106SOL    HW230177   9.516  11.734   2.511  1.0223 -3.0732  2.3472
41107SOL     OW30178   0.036   1.278   9.660 -0.1373  0.0584  0.0507
41107SOL    HW130179   0.057   1.365   9.694  0.0905 -0.1115  0.3424
41107SOL    HW230180  -0.051   1.259   9.696  0.4715 -0.4987  1.2888
41108SOL     OW30181   9.264   5.536   9.055  0.2268  0.3078 -0.1348
41108SOL    HW130182   9.345   5.583   9.073  0.6408 -0.7251  0.8030
41108SOL    HW230183   9.240   5.497   9.139 -1.6557  1.2141 -0.1981
41109SOL     OW30184  12.091   7.045   9.156  0.4171 -0.3490 -0.1904
41109SOL    HW130185  12.008   7.003   9.133  0.7658 -1.2815  0.2027
41109SOL    HW230186  12.088   7.130   9.111 -0.5938 -0.5115 -0.4597
41110SOL     OW30187   1.590   9.479   0.824 -1.0322  0.0003  0.0399
41110SOL    HW130188   1.662   9.420   0.847 -1.1607 -0.3804 -0.5114
41110SOL    HW230189   1.554   9.506   0.909 -0.2120  0.2427  0.3276
41111SOL     OW30190   4.002   4.334   2.163 -0.1485 -0.3336  0.3578
41111SOL    HW130191   3.977   4.423   2.141  0.6150 -0.1800  0.0626
41111SOL    HW230192   3.944   4.278   2.112 -0.3331 -0.0018  0.2054
41112SOL     OW30193   7.132   4.354   3.872  0.3330 -0.2888  0.3209
41112SOL    HW130194   7.195   4.422   3.851 -0.5573  0.3484 -0.3963
41112SOL    HW230195   7.111   4.368   3.965 -0.8425  1.3041 -0.1437
41113SOL     OW30196   3.648   6.122   0.996 -0.0445 -1.2185  0.3860
41113SOL    HW130197   3.612   6.039   0.963 -0.7004 -0.2351 -1.5092
41113SOL    HW230198   3.683   6.165   0.918 -1.9109  1.3990  0.8747
41114SOL     OW30199   8.585   2.425   0.705  0.0955 -0.0591  0.3783
41114SOL    HW130200   8.669   2.386   0.683  0.5686  1.3751 -0.4983
41114SOL    HW230201   8.568   2.487   0.634 -0.9491  0.8043  1.3321
41115SOL     OW30202   7.404   7.035   7.139 -0.6265 -0.5018 -0.2941
41115SOL    HW130203   7.449   7.089   7.074 -0.5241  0.7804  0.8020
41115SOL    HW230204   7.440   6.947   7.127  2.2660  0.4550  0.5623
41116SOL     OW30205   0.829  10.053   8.107  0.2563  0.2059  0.3702
41116SOL    HW130206   0.791   9.984   8.162  1.1100 -1.7056 -1.3086
41116SOL    HW230207   0.770  10.128   8.118 -2.9569 -1.9614 -0.5807
41117SOL     OW30208   6.679   9.262   1.132 -0.2462  0.2303  0.1469
41117SOL    HW130209   6.766   9.233   1.103 -0.9124 -0.9826 -0.7566
41117SOL    HW230210   6.620   9.235   1.061 -1.6995 -1.2224  1.8078
41118SOL     OW30211   5.677   4.787   3.177  0.6073 -0.3278  0.4210
41118SOL    HW130212   5.682   4.712   3.235  0.7078  0.0286  0.8827
41118SOL    HW230213   5.764   4.794   3.137 -0.1947 -2.1982 -1.8798
41119SOL     OW30214  11.423   2.367   7.506 -0.0255 -0.2182 -0.4312
41119SOL    HW130215  11.458   2.315   7.578  0.4746 -1.8893 -1.7833
41119SOL    HW230216  11.357   2.423   7.546  1.7117  0.5040  1.6403
41120SOL     OW30217   3.023  11.142   8.795 -0.0096  0.6027  0.0963
41120SOL    HW130218   2.944  11.116   8.842 -0.4376  1.9700  0.1696
41120SOL    HW230219   3.095  11.109   8.849 -0.5136 -0.1911  0.2995
41121SOL     OW30220   6.698   6.977   7.820  0.3411 -0.4466  0.5106
41121SOL    HW130221   6.774   6.921   7.806 -0.1714 -1.3641  1.2099
41121SOL    HW230222   6.714   7.055   7.767  1.3392 -1.0188 -0.0498
41122SOL     OW30223   8.902   9.739   1.910 -0.1283  0.3192 -0.2503
41122SOL    HW130224   8.928   9.799   1.980 -0.6200  0.3049 -0.0506
41122SOL    HW230225   8.895   9.654   1.953  1.1652 -0.0140 -0.6570
41123SOL     OW30226   2.745  11.215   1.719  0.2439 -0.1202  0.2043
41123SOL    HW130227   2.809  11.146   1.737 -0.3660 -0.7182  0.1123
41123SOL    HW230228   2.775  11.257   1.638  0.3334 -0.6229 -0.0212
41124SOL     OW30229   2.321   6.866   0.586  0.4079 -0.3516 -0.2595
41124SOL    HW130230   2.234   6.829   0.602  0.7324 -1.1968 -0.4086
41124SOL    HW230231   2.316   6.903   0.498  0.6505 -1.7855 -0.8935
41125SOL     OW30232  12.113   2.711   8.598 -0.2093  0.2904 -0.5944
41125SOL    HW130233  12.114   2.792   8.650 -1.2125  0.3600 -0.6545
41125SOL    HW230234  12.020   2.693   8.583  0.0302 -0.1368 -1.7361
41126SOL     OW30235  11.735   6.779  10.053  0.4144 -0.2462  0.1995
41126SOL    HW130236  11.794   6.833  10.000  0.5529 -0.1652  0.4364
41126SOL    HW230237  11.717   6.831  10.131 -0.0455 -0.2315  0.0896
41127SOL     OW30238   9.741   7.464   9.900 -0.4093  0.6080 -0.4208
41127SOL    HW130239   9.777   7.526   9.964 -2.3045  1.9559 -0.5607
41127SOL    HW230240   9.815   7.409   9.875  1.3080  2.6265 -0.0499
41128SOL     OW30241   3.612   4.577   3.451 -0.0595 -0.7009 -0.7625
41128SOL    HW130242   3.591   4.515   3.522  0.2802  1.5097  1.4063
41128SOL    HW230243   3.703   4.557   3.429  0.8876  0.4920  1.6650
41129SOL     OW30244   2.297   0.049   3.337  1.0196 -0.3498 -0.5661
41129SOL    HW130245   2.375   0.101   3.316  1.8971 -0.6112  1.6872
41129SOL    HW230246   2.317  -0.039   3.304  0.1616  0.2985 -3.0427
41130SOL     OW30247   3.800   4.525   4.322 -0.1440 -0.6878  0.2510
41130SOL    HW130248   3.797   4.429   4.319  0.8925 -0.7228  0.1772
41130SOL    HW230249   3.738   4.553   4.254 -0.7913 -1.2949  0.5820
41131SOL     OW30250   7.476   2.501  10.051  0.0751  0.0879  0.6633
41131SOL    HW130251   7.456   2.432  10.114 -2.7872 -1.6953 -1.9756
41131SOL    HW230252   7.393   2.547  10.038  0.7540  0.8963 -1.2180
41132SOL     OW30253  11.905  11.072   2.502  0.1008 -0.3326 -0.4290
41132SOL    HW130254  11.929  11.068   2.409 -1.0110 -0.5535 -0.7269
41132SOL    HW230255  11.941  11.155   2.533  0.0401 -0.0132 -1.1940
41133SOL     OW30256   4.889   8.288   9.092 -0.2859 -0.0433 -0.1915
41133SOL    HW130257   4.916   8.262   9.180  0.1244  0.3615 -0.1949
41133SOL    HW230258   4.971   8.297   9.043 -0.5268 -0.7329 -0.7574
41134SOL     OW30259   4.924   1.749   7.114  0.0080 -0.4650  0.5025
41134SOL    HW130260   4.955   1.772   7.026  0.3226  0.3587  0.8183
41134SOL    HW230261   4.994   1.779   7.173 -0.3747 -0.6506  1.0595
41135SOL     OW30262   2.611   1.510   4.641 -0.3971  0.0801 -0.1279
41135SOL    HW130263   2.666   1.512   4.563 -2.4740  1.5448 -1.6715
41135SOL    HW230264   2.522   1.503   4.607 -1.2686 -1.8355  2.2518
41136SOL     OW30265   3.654   0.934   2.567 -0.4197  0.0095 -0.1176
41136SOL    HW130266   3.561   0.938   2.544 -0.6960  0.3470  0.9701
41136SOL    HW230267   3.674   1.021   2.602  0.3418 -0.0266 -0.4484
41137SOL     OW30268  11.146   2.140   4.924  0.0474 -0.1190  0.3281
41137SOL    HW130269  11.211   2.209   4.929  0.6109 -0.6916  1.3179
41137SOL    HW230270  11.067   2.183   4.891  0.2177  1.1336  1.4556
41138SOL     OW30271   8.645  11.870   8.942 -0.2663 -0.4360 -0.5503
41138SOL    HW130272   8.702  11.946   8.946  0.2617 -0.8350 -0.1645
41138SOL    HW230273   8.672  11.823   8.863 -1.4566  0.4227 -1.4916
41139SOL     OW30274   9.985   6.342  11.523 -0.4334  0.4926 -0.3530
41139SOL    HW130275  10.047   6.391  11.469 -0.7324 -0.8204 -1.9954
41139SOL    HW230276   9.971   6.260  11.475 -1.9947 -0.0486  0.9164
41140SOL     OW30277   7.012  10.229   3.801 -0.3828  0.4957 -0.2079
41140SOL    HW130278   6.970  10.175   3.868 -0.6535  0.2698 -0.5584
41140SOL    HW230279   7.104  10.235   3.830  0.1301 -1.7373 -1.1243
41141SOL     OW30280   7.047   5.736  10.153 -0.3463 -0.3332  0.3383
41141SOL    HW130281   6.953   5.736  10.133 -0.2500  0.9516 -0.2010
41141SOL    HW230282   7.053   5.780  10.238 -0.1401  0.7171 -0.2076
41142SOL     OW30283   2.559   7.668  11.144  0.3930 -0.0633 -0.5033
41142SOL    HW130284   2.595   7.618  11.217 -0.1487 -0.9905 -0.8605
41142SOL    HW230285   2.546   7.756  11.180  1.2277 -0.1942  0.1694
41143SOL     OW30286  10.085   9.943  11.902 -0.5158  0.0444 -0.1018
41143SOL    HW130287  10.053   9.872  11.957 -0.4852 -1.2997 -1.7416
41143SOL    HW230288  10.044  10.022  11.938  0.9989 -0.4627  2.9734
41144SOL     OW30289   9.626  11.976  12.562  0.4746  0.6052 -0.1356
41144SOL    HW130290   9.537  11.999  12.590 -0.5521 -0.1381 -2.5838
41144SOL    HW230291   9.633  11.882  12.578  1.1257  0.7809  0.7201
41145SOL     OW30292   3.582  12.266   7.113 -0.3756  0.0940  0.4338
41145SOL    HW130293   3.528  12.343   7.128 -0.6030  0.3048 -1.2391
41145SOL    HW230294   3.672  12.299   7.110 -0.4224  0.2133  0.3322
41146SOL     OW30295  11.802  10.494   0.743  0.3904  0.0575  0.2278
41146SOL    HW130296  11.782  10.406   0.710 -0.1006  0.8087 -1.6055
41146SOL    HW230297  11.824  10.544   0.664 -1.0615  2.0372  0.9997
41147SOL     OW30298   3.972   1.065  11.776 -0.0583  0.1206  0.1099
41147SOL    HW130299   3.949   1.136  11.716 -0.7043 -0.7635 -0.7194
41147SOL    HW230300   4.060   1.038  11.748 -1.0009 -1.4040 -1.6143
41148SOL     OW30301   2.103   0.369   9.104 -0.5005  0.4347  0.2556
41148SOL    HW130302   2.036   0.430   9.134 -1.4097 -0.8197  0.8683
41148SOL    HW230303   2.112   0.386   9.011 -1.9366  0.3916  0.0946
41149SOL     OW30304  12.544  10.780   3.441 -0.0903  0.0849  0.0194
41149SOL    HW130305  12.595  10.700   3.439 -1.7130 -1.0120  0.6134
41149SOL    HW230306  12.585  10.837   3.376  1.8503 -0.7241  0.4876
41150SOL     OW30307   3.754   2.363  12.323 -0.1217 -0.1355  0.4627
41150SOL    HW130308   3.729   2.336  12.411  1.1581  0.1519  0.9415
41150SOL    HW230309   3.673   2.397  12.284 -0.3754  1.3573  2.1475
41151SOL     OW30310   0.806   8.131  11.492  0.0042 -0.1794 -0.2833
41151SOL    HW130311   0.880   8.072  11.508 -2.4421 -3.2552  0.6067
41151SOL    HW230312   0.786   8.120  11.399  1.6168  2.0075 -0.9674
41152SOL     OW30313   5.953   8.444   9.336  0.8686 -0.4919 -0.4834
41152SOL    HW130314   5.858   8.450   9.339  0.7294 -2.2999  0.3496
41152SOL    HW230315   5.981   8.526   9.296 -0.9678  0.5196  0.1601
41153SOL     OW30316   4.364  10.159   7.480 -0.0140  0.3011 -0.0061
41153SOL    HW130317   4.417  10.215   7.536 -2.3699  1.5187  1.1353
41153SOL    HW230318   4.291  10.214   7.453 -1.9592 -1.9396  0.3799
41154SOL     OW30319   5.493   0.059   1.015  0.0696  0.3478  0.3070
41154SOL    HW130320   5.443   0.100   1.086 -0.3702 -0.2896  0.3708
41154SOL    HW230321   5.460  -0.031   1.011  0.1626  0.3460 -0.6385
41155SOL     OW30322  10.016   4.269   8.479 -0.5549  0.0787  0.0684
41155SOL    HW130323   9.960   4.253   8.556  0.0636 -1.3063  0.2698
41155SOL    HW230324   9.981   4.349   8.441 -1.6702  0.1259  1.0939
41156SOL     OW30325   5.974   6.920   6.534 -0.7534  0.2432  0.3651
41156SOL    HW130326   5.881   6.932   6.553 -0.9928  0.2460 -0.7281
41156SOL    HW230327   6.013   7.006   6.550 -0.9463  0.2635  0.7448
41157SOL     OW30328   6.985  10.441   9.833  0.7869 -0.2364 -0.0394
41157SOL    HW130329   6.935  10.511   9.875  0.1180 -1.3065  1.0178
41157SOL    HW230330   7.075  10.453   9.865  0.9519  0.8739 -0.8653
41158SOL     OW30331   7.392   9.808   7.105  0.0262 -0.5331  0.2909
41158SOL    HW130332   7.422   9.752   7.177 -1.1667 -0.3919  0.9323
41158SOL    HW230333   7.302   9.779   7.089  0.5859 -1.2732 -1.8727
41159SOL     OW30334   2.290   3.842   3.778 -0.8858 -0.6555  0.6060
41159SOL    HW130335   2.317   3.916   3.833 -0.0403  0.5122 -1.2860
41159SOL    HW230336   2.337   3.767   3.814 -0.8447 -0.0551  1.8524
41160SOL     OW30337  10.223  10.328  11.665  0.1426 -0.2342  0.4212
41160SOL    HW130338  10.266  10.355  11.584 -0.2589 -2.1008 -0.4555
41160SOL    HW230339  10.296  10.312  11.726  0.5599 -0.5268 -0.1378
41161SOL     OW30340   0.992   8.050   8.543 -0.2746  0.8391  0.6475
41161SOL    HW130341   0.942   8.065   8.463  0.8007 -0.5911 -0.3395
41161SOL    HW230342   1.021   7.959   8.537  0.6819  1.0079  2.1859
41162SOL     OW30343   7.587   9.276   1.780 -0.5931 -0.6144  0.0893
41162SOL    HW130344   7.664   9.222   1.796  0.8535  1.3119  0.0452
41162SOL    HW230345   7.544   9.283   1.865 -0.3100 -1.1028  0.2729
41163SOL     OW30346   5.492  10.591   3.723  0.1831 -0.6906  0.1481
41163SOL    HW130347   5.467  10.630   3.639 -0.8735  0.6685  1.0367
41163SOL    HW230348   5.533  10.508   3.700  0.4359 -0.0893 -1.7338
41164SOL     OW30349   5.777   9.203  12.367  0.2624 -0.2775  0.3129
41164SOL    HW130350   5.704   9.206  12.429  0.4942 -0.3196  0.5905
41164SOL    HW230351   5.748   9.142  12.299  0.3130 -0.8388  0.7840
41165SOL     OW30352   5.994   4.713   4.479 -0.4235  0.5172 -0.1115
41165SOL    HW130353   6.004   4.700   4.385  1.4786 -0.2120  0.1532
41165SOL    HW230354   6.049   4.788   4.500  1.6078 -1.1508  0.8308
41166SOL     OW30355  12.202   8.408   3.071 -0.5174  0.0328 -0.2002
41166SOL    HW130356  12.237   8.444   2.990 -1.4594 -0.1244 -0.6924
41166SOL    HW230357  12.143   8.338   3.043 -2.4891  1.3421  0.4775
41167SOL     OW30358   9.074   7.226   2.774  0.0021  0.2523  0.1263
41167SOL    HW130359   8.989   7.183   2.782  0.5992 -1.0244 -0.2307
41167SOL    HW230360   9.065   7.306   2.826 -0.8281 -0.7798  1.6359
41168SOL     OW30361   2.928   1.932   0.487 -0.2779 -0.1540 -0.1337
41168SOL    HW130362   2.837   1.904   0.491 -0.5063  0.3459 -1.2781
41168SOL    HW230363   2.972   1.882   0.555 -1.1877 -1.2355 -0.3180
41169SOL     OW30364   5.106   5.086   3.915 -0.4585  0.8911 -0.4820
41169SOL    HW130365   5.164   5.151   3.875 -0.3941  0.4637 -1.1125
41169SOL    HW230366   5.161   5.008   3.925 -0.7699  0.6557 -0.5780
41170SOL     OW30367   9.943   0.217   7.630 -0.3846 -0.1595  0.1611
41170SOL    HW130368   9.929   0.250   7.541 -0.0792 -0.1300  0.1211
41170SOL    HW230369   9.856   0.214   7.668 -0.3823  1.2115  0.3449
41171SOL     OW30370   3.564   0.295   6.095 -0.0193 -0.4148  0.4038
41171SOL    HW130371   3.480   0.340   6.107  0.3923  0.2225  0.9820
41171SOL    HW230372   3.557   0.217   6.149 -0.0666 -0.1210  0.8261
41172SOL     OW30373   1.077  12.555   3.597 -0.1035  0.3432 -0.5259
41172SOL    HW130374   1.086  12.620   3.666  1.7818 -2.3655  2.0601
41172SOL    HW230375   0.985  12.527   3.601 -0.1960  0.7696  0.3757
41173SOL     OW30376   9.450   2.784  11.012  0.2462 -0.2796 -0.0932
41173SOL    HW130377   9.508   2.770  11.087 -0.1867  1.0710  0.5394
41173SOL    HW230378   9.455   2.703  10.962  1.7426 -0.6382  0.5772
41174SOL     OW30379   9.747   5.095   0.943 -0.3568 -0.6827 -0.2526
41174SOL    HW130380   9.716   5.146   0.869 -0.8927  0.4004  0.6901
41174SOL    HW230381   9.843   5.097   0.935 -0.2979  1.3431  0.2713
41175SOL     OW30382   7.787   3.562   4.876  0.4197 -0.0969 -0.0833
41175SOL    HW130383   7.768   3.628   4.943 -0.6840  0.7882 -1.2082
41175SOL    HW230384   7.797   3.481   4.924 -0.2341  0.5346  1.1773
41176SOL     OW30385   2.177   1.243   1.256 -0.6880 -0.4241  0.1969
41176SOL    HW130386   2.112   1.174   1.265 -0.1308 -1.1387 -1.0265
41176SOL    HW230387   2.181   1.261   1.162 -0.6699  1.1367  0.4676
41177SOL     OW30388   2.106   6.531  12.439  0.0224  0.4857  0.3444
41177SOL    HW130389   2.030   6.569  12.483  0.0947  1.9901 -0.7517
41177SOL    HW230390   2.083   6.532  12.346  0.7336 -0.6040  0.1297
41178SOL     OW30391   0.647   3.776  11.926  0.0464  0.3433 -0.0079
41178SOL    HW130392   0.734   3.811  11.943 -0.6709  1.7534  0.9397
41178SOL    HW230393   0.591   3.853  11.918 -1.0079 -0.5017 -1.3743
41179SOL     OW30394  11.358   1.588  11.005 -0.1672 -0.8459  0.7561
41179SOL    HW130395  11.327   1.676  10.984 -2.6124 -1.9406 -0.6051
41179SOL    HW230396  11.291   1.551  11.061  0.4679 -2.1129  0.7168
41180SOL     OW30397  11.335   2.568   5.646 -0.0578 -0.5307 -0.5434
41180SOL    HW130398  11.332   2.473   5.660  1.9212 -0.5550 -0.0155
41180SOL    HW230399  11.285   2.581   5.565  2.6766 -2.5568 -2.8192
41181SOL     OW30400   2.536   5.599   5.427 -0.4980 -0.0307 -0.4528
41181SOL    HW130401   2.487   5.528   5.385 -0.4297 -0.5505  0.3112
41181SOL    HW230402   2.523   5.674   5.370  0.1497 -0.8735 -1.7735
41182SOL     OW30403   8.517  11.238   5.081 -0.5473  0.5222  0.2610
41182SOL    HW130404   8.524  11.270   5.171 -2.3988  2.4272 -0.1899
41182SOL    HW230405   8.597  11.270   5.039 -0.7892  1.7512  0.6732
41183SOL     OW30406   5.812   4.397   2.850  0.3361  0.1696  0.7220
41183SOL    HW130407   5.773   4.337   2.913  0.4521  0.1138  0.7395
41183SOL    HW230408   5.756   4.391   2.773 -0.8030  1.4899  1.4028
41184SOL     OW30409  10.530   0.045   8.871  0.2110  0.3624  0.2802
41184SOL    HW130410  10.435   0.048   8.882  0.0980 -0.6593 -0.2904
41184SOL    HW230411  10.561   0.125   8.913 -0.8179  0.2820  1.2713
41185SOL     OW30412   9.018  12.205   7.066 -0.0512  0.2379 -0.3478
41185SOL    HW130413   8.951  12.146   7.031  0.0097 -0.4230  0.6234
41185SOL    HW230414   9.096  12.184   7.016  0.0257 -0.6724  0.1329
41186SOL     OW30415  11.176   6.481   2.162  0.0573 -0.3781 -0.1642
41186SOL    HW130416  11.168   6.391   2.194  1.9282 -0.8840 -0.9799
41186SOL    HW230417  11.252   6.479   2.105  0.8601  2.0065  0.7225
41187SOL     OW30418   3.798   4.834   7.876 -0.4074  0.2588 -0.0797
41187SOL    HW130419   3.780   4.816   7.968  1.4107  0.4687  0.3568
41187SOL    HW230420   3.777   4.927   7.865 -3.2090 -0.3627 -0.6039
41188SOL     OW30421   2.488   2.391   7.412 -0.3531  0.4545  0.5945
41188SOL    HW130422   2.538   2.416   7.335  0.0112  0.2648  0.7658
41188SOL    HW230423   2.548   2.336   7.463 -1.0133 -0.4723  0.3995
41189SOL     OW30424   9.491   4.028  10.159 -0.0782 -0.0709  0.0113
41189SOL    HW130425   9.432   3.970  10.207  0.7185 -0.4442  0.5583
41189SOL    HW230426   9.444   4.048  10.078 -1.2279  0.1606  0.7082
41190SOL     OW30427   3.950   2.172   6.685  0.2115  0.2704  0.0448
41190SOL    HW130428   4.028   2.128   6.651  1.3285  0.4884  2.1278
41190SOL    HW230429   3.913   2.110   6.748 -1.0990  0.3411 -0.6189
41191SOL     OW30430   5.782   5.872   4.813  0.1256  0.4606 -0.0821
41191SOL    HW130431   5.857   5.850   4.757 -1.2469  0.7885 -2.1433
41191SOL    HW230432   5.706   5.835   4.768 -1.2229  1.9681  0.8319
41192SOL     OW30433  12.304   4.368   8.190 -0.0315  0.4497  0.5333
41192SOL    HW130434  12.369   4.322   8.243  0.1378  0.9090  0.7318
41192SOL    HW230435  12.338   4.457   8.183 -1.1831  1.0131  1.6000
41193SOL     OW30436   7.370   3.274   5.700 -0.1809 -0.0539  0.0361
41193SOL    HW130437   7.434   3.294   5.768 -1.3875  1.1707  0.8761
41193SOL    HW230438   7.421   3.233   5.630  1.2563 -0.4422  1.2531
41194SOL     OW30439  10.214   6.622   1.575  0.0962 -1.0158  0.3112
41194SOL    HW130440  10.232   6.606   1.482 -1.3356 -0.9462 -0.0012
41194SOL    HW230441  10.138   6.680   1.576  0.2004 -0.8631  1.5264
41195SOL     OW30442   2.816  10.819   0.562 -0.6281  0.9941 -0.1734
41195SOL    HW130443   2.765  10.900   0.563 -1.2168  0.6308  0.3162
41195SOL    HW230444   2.900  10.843   0.524 -0.3420  2.1078  1.0830
41196SOL     OW30445   9.689  12.041   4.426 -0.4074  0.0632 -0.1407
41196SOL    HW130446   9.707  11.978   4.495 -1.9055 -0.3238 -0.0694
41196SOL    HW230447   9.611  12.089   4.457 -0.0494  1.0797 -0.7659
41197SOL     OW30448   8.156   1.148   6.966  0.5061 -0.0590 -0.5985
41197SOL    HW130449   8.179   1.073   7.020  1.0201 -0.7040 -1.6830
41197SOL    HW230450   8.227   1.210   6.980  0.9228 -0.4505 -0.9502
41198SOL     OW30451   0.772   5.916   7.359  0.1666  0.3384  0.4906
41198SOL    HW130452   0.698   5.954   7.312  1.8436 -0.2640 -2.9944
41198SOL    HW230453   0.771   5.824   7.334  1.3831  0.0614  1.3932
41199SOL     OW30454   8.417   2.002   2.116 -0.0849 -0.2625 -0.0020
41199SOL    HW130455   8.417   1.933   2.183 -0.8999 -0.1262  0.1439
41199SOL    HW230456   8.501   1.991   2.071 -0.0254 -1.0912  0.2856
41200SOL     OW30457   2.510   1.319  12.149  0.0498 -0.5454 -0.5167
41200SOL    HW130458   2.594   1.294  12.188 -0.8156 -0.7706  1.2874
41200SOL    HW230459   2.524   1.408  12.117  0.6752 -0.1540  0.7723
41201SOL     OW30460   1.944   7.412   1.918 -0.5209 -0.2276  0.1080
41201SOL    HW130461   1.956   7.398   1.824  1.0013 -0.9715  0.3827
41201SOL    HW230462   1.888   7.340   1.946  0.6009 -1.1412  0.0804
41202SOL     OW30463   5.605   5.280   2.608  0.3879 -0.9447 -0.0064
41202SOL    HW130464   5.659   5.357   2.622 -2.1485  0.8113  0.8303
41202SOL    HW230465   5.625   5.252   2.518  1.6084  0.4597 -0.1944
41203SOL     OW30466   2.449   3.360   4.861  0.1079  0.3465 -0.3485
41203SOL    HW130467   2.484   3.365   4.950  0.9883  0.2482 -0.6831
41203SOL    HW230468   2.476   3.442   4.820 -0.8272  0.6679 -0.3503
41204SOL     OW30469   3.487   0.751   5.070  0.3979 -0.0971  0.1394
41204SOL    HW130470   3.443   0.719   5.148 -0.9530 -0.0222 -0.5623
41204SOL    HW230471   3.435   0.826   5.041  2.0743  1.2198  0.3289
41205SOL     OW30472   3.281   8.472  12.568 -0.1285 -0.1615  0.7481
41205SOL    HW130473   3.244   8.513  12.489  1.2809 -1.3861 -0.6201
41205SOL    HW230474   3.303   8.545  12.625  0.9184  0.9365 -0.9617
41206SOL     OW30475   8.222   3.264   7.112 -0.2305  0.4395 -1.0519
41206SOL    HW130476   8.163   3.272   7.188  0.8341  0.9661 -0.2513
41206SOL    HW230477   8.309   3.281   7.148  0.3739  0.0319 -2.2822
41207SOL     OW30478   0.400  11.116   0.891 -0.1777 -0.3954 -0.0146
41207SOL    HW130479   0.385  11.052   0.821 -1.1232  1.5643 -1.7161
41207SOL    HW230480   0.480  11.161   0.866  0.6657 -1.0640  1.3515
41208SOL     OW30481   2.750   5.709   5.870 -0.4728  0.4458  0.1933
41208SOL    HW130482   2.831   5.757   5.849  0.2105 -1.3604 -1.6213
41208SOL    HW230483   2.707   5.698   5.785 -0.7251 -1.8553  0.5666
41209SOL     OW30484  12.403   0.946   2.152  0.4223  0.2354 -0.1640
41209SOL    HW130485  12.400   0.951   2.248 -0.1889  0.7522 -0.2020
41209SOL    HW230486  12.457   1.021   2.126  3.0459 -1.5220 -0.1132
41210SOL     OW30487   4.458   4.598   2.546  0.1867  0.1410  0.1018
41210SOL    HW130488   4.531   4.563   2.494  0.0410  0.0191 -0.0259
41210SOL    HW230489   4.478   4.691   2.557  1.8704 -0.4255  2.5904
41211SOL     OW30490   8.782   1.172   9.955  0.5531  0.1314  0.0329
41211SOL    HW130491   8.792   1.084   9.990  0.1815 -0.0971 -0.4325
41211SOL    HW230492   8.688   1.182   9.940  0.5632  0.7015  0.3330
41212SOL     OW30493   9.149   4.240   3.914 -0.1769 -0.6466 -0.2327
41212SOL    HW130494   9.163   4.178   3.985  0.5566 -0.4146 -0.1598
41212SOL    HW230495   9.238   4.267   3.889 -0.5087  1.3911  0.6427
41213SOL     OW30496   3.127   9.661   3.227  0.3105 -0.3634 -0.3175
41213SOL    HW130497   3.143   9.677   3.320  0.4479 -1.4254 -0.1478
41213SOL    HW230498   3.144   9.746   3.185  1.5236 -0.1927  0.4717
41214SOL     OW30499   7.547   4.596   9.677 -0.3863  0.5784  0.6845
41214SOL    HW130500   7.468   4.574   9.728  0.4087  1.0950  2.2002
41214SOL    HW230501   7.517   4.662   9.615 -1.5633 -0.6604 -0.1378
41215SOL     OW30502  10.565   4.667   4.817  0.3602  0.2633 -0.6708
41215SOL    HW130503  10.514   4.648   4.896  0.6594  0.4590 -0.4254
41215SOL    HW230504  10.601   4.582   4.791 -0.6467  0.0006 -1.2471
41216SOL     OW30505   6.330   2.054   9.892  0.5281 -0.2383 -0.4788
41216SOL    HW130506   6.373   2.070   9.975  0.9696 -1.4222 -0.4621
41216SOL    HW230507   6.322   2.140   9.852 -0.6556  0.5102  1.2326
41217SOL     OW30508   2.265  10.165   1.522 -0.1058  0.2187  0.3159
41217SOL    HW130509   2.332  10.104   1.552 -0.0242 -0.0453 -0.3702
41217SOL    HW230510   2.247  10.221   1.597  1.3361  0.7083  0.3076
41218SOL     OW30511   5.807   4.337   0.113  0.0722 -0.3204  0.7156
41218SOL    HW130512   5.769   4.264   0.065  0.5033 -0.6660  0.8956
41218SOL    HW230513   5.732   4.383   0.151 -0.4234  0.8381 -1.4836
41219SOL     OW30514   8.378   2.783   4.453  0.1217 -0.0639  0.2296
41219SOL    HW130515   8.453   2.841   4.455  1.7018 -2.0103  1.2001
41219SOL    HW230516   8.313   2.829   4.400  1.9597  1.7121 -0.6143
41220SOL     OW30517   2.397   9.118   8.993 -0.0909 -0.1412 -0.0678
41220SOL    HW130518   2.447   9.193   9.025 -1.2536  0.4353  0.4773
41220SOL    HW230519   2.420   9.046   9.052 -0.2317  0.2342  0.4519
41221SOL     OW30520   4.939  11.836   9.647 -0.5247 -0.2993  0.4569
41221SOL    HW130521   4.918  11.814   9.738 -1.6006  0.0641  0.3128
41221SOL    HW230522   4.898  11.766   9.596 -0.5463 -0.1132  0.2171
41222SOL     OW30523   2.197   8.649  10.806 -0.0338  0.1996 -0.0984
41222SOL    HW130524   2.263   8.582  10.791  0.3842  0.4580  0.5188
41222SOL    HW230525   2.123   8.602  10.845  0.8109  0.2805  1.7116
41223SOL     OW30526   4.539  12.348   0.523  0.1093  0.1478  0.3205
41223SOL    HW130527   4.606  12.306   0.470 -0.4288 -1.5690  0.9153
41223SOL    HW230528   4.587  12.400   0.588  0.7718  1.6556 -1.3064
41224SOL     OW30529   9.238  11.446   9.394 -0.5798  0.2726  0.2469
41224SOL    HW130530   9.237  11.351   9.403 -0.4929  0.1866 -0.5728
41224SOL    HW230531   9.204  11.463   9.306 -0.0409  0.9644  0.1529
41225SOL     OW30532   6.994   2.892   3.787  0.1654 -0.2788 -0.3180
41225SOL    HW130533   6.940   2.931   3.855  1.9293 -0.2148  1.1377
41225SOL    HW230534   7.082   2.890   3.825  1.1720 -0.5014 -2.5047
41226SOL     OW30535   9.818   3.497  11.988 -0.3412  0.3393  0.3428
41226SOL    HW130536   9.787   3.564  11.927  0.3834  1.1383  0.8386
41226SOL    HW230537   9.744   3.484  12.049 -1.1136 -0.5532 -0.7384
41227SOL     OW30538   6.969   4.041   6.149 -0.0136 -0.1786  0.7331
41227SOL    HW130539   7.056   4.074   6.126 -0.0654  1.2022  2.3518
41227SOL    HW230540   6.986   3.974   6.215 -0.0926 -1.4363 -0.4706
41228SOL     OW30541   3.215   4.277   5.721 -0.3534 -0.1589  0.1131
41228SOL    HW130542   3.158   4.347   5.752  2.1905  2.1446 -0.0319
41228SOL    HW230543   3.202   4.275   5.626 -0.0224  0.5256  0.0519
41229SOL     OW30544   0.934   4.583   2.462  0.2453 -0.6103 -0.3633
41229SOL    HW130545   0.971   4.670   2.472 -2.6897  0.6083  1.1331
41229SOL    HW230546   0.891   4.585   2.377 -2.0222  0.4369  0.7178
41230SOL     OW30547  11.365   4.836   9.407 -0.3521  0.3033  0.5652
41230SOL    HW130548  11.289   4.779   9.405  0.0780 -0.2645  0.0103
41230SOL    HW230549  11.392   4.844   9.316  0.3380  0.3761  0.7678
41231SOL     OW30550   1.807   1.586   4.136 -0.5858  0.0015  0.0440
41231SOL    HW130551   1.880   1.612   4.080 -0.1907 -0.0219  0.5414
41231SOL    HW230552   1.801   1.492   4.125 -1.7721  0.2141 -1.4627
41232SOL     OW30553  11.574   4.518   5.691  0.8606 -0.1916  0.0321
41232SOL    HW130554  11.652   4.494   5.641  1.3814  0.8142  0.3296
41232SOL    HW230555  11.574   4.458   5.766 -0.1772 -2.0172 -1.3586
41233SOL     OW30556  10.753   6.902   6.749 -0.0181 -0.1990 -0.2154
41233SOL    HW130557  10.737   6.831   6.685 -0.5666 -0.3220  0.0514
41233SOL    HW230558  10.750   6.982   6.697  0.5701 -0.3624 -0.5145
41234SOL     OW30559   7.367  10.905   0.645 -0.3080 -0.5041 -0.5555
41234SOL    HW130560   7.436  10.879   0.706 -0.0623  0.0023 -0.6144
41234SOL    HW230561   7.381  10.850   0.568 -0.6563 -1.1894 -0.1417
41235SOL     OW30562   4.365  10.365   3.582 -0.1965  0.0826 -0.2481
41235SOL    HW130563   4.439  10.402   3.630 -0.9056  2.3925 -0.7952
41235SOL    HW230564   4.402  10.291   3.534  1.3721  0.1744  0.7381
41236SOL     OW30565   5.510   8.513  10.378  0.1329  0.3711  0.1310
41236SOL    HW130566   5.499   8.486  10.469 -2.4077  1.5703  0.2499
41236SOL    HW230567   5.479   8.438  10.327  1.3004 -0.1923  0.1879
41237SOL     OW30568  11.200   8.450   2.516  0.3520 -0.6185  0.2201
41237SOL    HW130569  11.153   8.368   2.528  0.4210 -0.7132 -0.1521
41237SOL    HW230570  11.193   8.468   2.422  0.8126 -0.4859  0.2116
41238SOL     OW30571   7.730   7.945   8.998 -0.1853 -0.2700  0.2811
41238SOL    HW130572   7.735   8.039   9.017 -0.1539 -0.5343  1.6818
41238SOL    HW230573   7.795   7.931   8.929  0.8432  0.4930  1.0790
41239SOL     OW30574   4.564   1.933   0.306 -0.3005  0.1196 -0.0505
41239SOL    HW130575   4.524   1.904   0.388  1.2699  0.4734  0.8824
41239SOL    HW230576   4.540   2.026   0.299 -1.3984 -0.1926 -0.6094
41240SOL     OW30577   4.550  11.076  11.557  0.0945  0.0731 -0.3951
41240SOL    HW130578   4.569  11.169  11.542 -0.1966  0.5010  1.6204
41240SOL    HW230579   4.590  11.031  11.483  1.5398  1.6812 -0.6481
41241SOL     OW30580   8.393   3.876   8.937  0.3731  0.1128 -0.5423
41241SOL    HW130581   8.482   3.854   8.967 -0.1710 -2.2526 -0.4671
41241SOL    HW230582   8.339   3.871   9.015 -0.1315 -0.4578 -0.9159
41242SOL     OW30583   1.467  11.255   2.325 -0.2946  0.7670  0.1264
41242SOL    HW130584   1.538  11.191   2.327 -0.7402  0.2772  0.5313
41242SOL    HW230585   1.438  11.256   2.234 -1.0235 -0.4499  0.3211
41243SOL     OW30586   0.740   3.694  10.077  0.7044  0.1200  0.8267
41243SOL    HW130587   0.727   3.786  10.053 -1.7083 -0.0276  1.2447
41243SOL    HW230588   0.717   3.690  10.170 -0.3769 -1.0795  0.5399
41244SOL     OW30589  11.399   8.780  11.866  0.4067 -0.0083  0.6263
41244SOL    HW130590  11.493   8.776  11.846  0.2902 -0.3393  0.1514
41244SOL    HW230591  11.376   8.872  11.856  0.2763 -0.1962 -1.1273
41245SOL     OW30592   4.611   3.638   7.831 -0.3102 -0.1908  0.3214
41245SOL    HW130593   4.630   3.569   7.767  1.6524 -2.1882  2.8436
41245SOL    HW230594   4.681   3.701   7.819 -1.2662  0.6708 -0.9860
41246SOL     OW30595  11.828   5.250   9.504  0.2865  0.0717  0.8653
41246SOL    HW130596  11.876   5.257   9.421  1.8727 -0.8734  1.6470
41246SOL    HW230597  11.774   5.328   9.508  0.1171  0.0940 -1.0974
41247SOL     OW30598   6.681   3.590  12.315  0.1076  0.0988  0.1989
41247SOL    HW130599   6.724   3.600  12.231 -0.6784 -2.3537 -0.5889
41247SOL    HW230600   6.751   3.594  12.380  0.8883  0.7314 -0.6790
41248SOL     OW30601  12.422   7.015   3.762 -0.0230 -0.1558 -0.0027
41248SOL    HW130602  12.459   7.103   3.768 -0.4511 -0.0187  0.7067
41248SOL    HW230603  12.472   6.964   3.826 -0.1606 -0.2908 -0.0022
41249SOL     OW30604   5.068   3.669   2.054  0.0536  0.7699 -0.3794
41249SOL    HW130605   5.022   3.655   2.137  1.0200  2.1112  0.4274
41249SOL    HW230606   5.044   3.594   2.000  1.0745 -1.2852  1.8483
41250SOL     OW30607  12.330   0.938   3.192 -0.1977 -0.1025 -0.0128
41250SOL    HW130608  12.285   0.856   3.209  0.6149 -0.1852  1.9626
41250SOL    HW230609  12.274   0.983   3.128 -1.2485 -1.6661 -0.2419
41251SOL     OW30610  11.444   3.139   8.123  0.5291 -0.0204  0.6372
41251SOL    HW130611  11.357   3.138   8.162  0.3859  2.6026  0.5683
41251SOL    HW230612  11.456   3.050   8.088 -2.0133 -0.5071  0.8157
41252SOL     OW30613   2.649  10.264   3.224  0.1063 -0.3306 -0.1049
41252SOL    HW130614   2.631  10.171   3.212  1.7769 -0.6040 -0.8095
41252SOL    HW230615   2.602  10.288   3.303 -1.6090 -1.3957 -0.7492
41253SOL     OW30616   2.370   5.863  11.404  0.6417  0.5378  0.0667
41253SOL    HW130617   2.366   5.929  11.473  0.2561  1.3649 -0.7204
41253SOL    HW230618   2.459   5.828  11.409  0.0663 -0.7664  2.1773
41254SOL     OW30619   8.047   4.424   0.931  0.2672 -0.7937 -0.4808
41254SOL    HW130620   7.993   4.502   0.927  4.4101  2.6560  1.9652
41254SOL    HW230621   8.029   4.387   1.018  0.5681 -0.6271 -0.3440
41255SOL     OW30622   8.077   5.892   5.575 -0.9879  0.1403  0.0688
41255SOL    HW130623   8.108   5.859   5.660 -0.3877  0.3401 -0.0654
41255SOL    HW230624   8.088   5.818   5.515  0.4216  0.5556 -0.2467
41256SOL     OW30625   4.447   4.798   7.838 -0.1849  0.3704  0.0844
41256SOL    HW130626   4.351   4.792   7.840 -0.1436 -0.5710 -0.4278
41256SOL    HW230627   4.469   4.852   7.915 -1.1456  1.0643 -0.1090
41257SOL     OW30628   7.494  11.878   1.686 -0.1451  0.3288  0.2756
41257SOL    HW130629   7.460  11.961   1.653  2.4451  1.4715  0.2096
41257SOL    HW230630   7.562  11.903   1.748  0.6346 -1.7646  0.3573
41258SOL     OW30631   9.655   1.529   2.086  0.3146 -0.1687  0.0383
41258SOL    HW130632   9.672   1.624   2.083  1.5158 -0.3796 -1.5713
41258SOL    HW230633   9.617   1.509   2.001  1.6405 -1.3790 -0.3045
41259SOL     OW30634  10.366   3.066   8.229  0.5467 -0.3600  0.1387
41259SOL    HW130635  10.406   2.991   8.273  0.6812  0.2565  1.1116
41259SOL    HW230636  10.274   3.041   8.218  0.2159 -0.0575  1.9264
41260SOL     OW30637  10.474  12.547  11.977  0.1110  0.0616 -0.0180
41260SOL    HW130638  10.449  12.492  12.052  0.3030  0.1162  0.0867
41260SOL    HW230639  10.413  12.621  11.980  0.3687  0.2636  0.3176
41261SOL     OW30640   8.595   6.077   0.454  0.2624 -0.3498 -0.4805
41261SOL    HW130641   8.616   6.045   0.542  1.0258  2.2945  0.4085
41261SOL    HW230642   8.680   6.089   0.412  0.1864  2.0544 -0.0968
41262SOL     OW30643   5.518   6.163   9.787 -0.3981 -0.3925  0.3027
41262SOL    HW130644   5.502   6.119   9.703 -0.7712 -0.4250  0.3869
41262SOL    HW230645   5.479   6.249   9.776 -1.5065 -0.7980  0.8365
41263SOL     OW30646   8.483   5.752   6.606  0.0678 -0.2321  0.0281
41263SOL    HW130647   8.524   5.749   6.692 -0.2785 -0.7179  0.1773
41263SOL    HW230648   8.412   5.688   6.610 -0.0478 -0.1519 -0.5688
41264SOL     OW30649   9.356   0.268  10.817 -0.1210  0.0513 -0.1512
41264SOL    HW130650   9.313   0.263  10.732 -0.0111  0.9954 -0.2712
41264SOL    HW230651   9.300   0.324  10.870 -0.6926 -1.2921  0.7291
41265SOL     OW30652  10.144   1.914   4.797  0.1967  0.0455 -0.1547
41265SOL    HW130653  10.122   1.904   4.890  2.3110 -0.2771  0.3544
41265SOL    HW230654  10.143   1.824   4.763  0.5813  0.0456 -0.1638
41266SOL     OW30655   7.376   5.160   0.162  0.4841 -0.4374 -0.2412
41266SOL    HW130656   7.322   5.100   0.111  1.2426 -0.4691 -1.0300
41266SOL    HW230657   7.318   5.234   0.180 -0.6664 -1.6317  1.2861
41267SOL     OW30658   4.688   1.746   1.996  0.2515  0.0304  0.0421
41267SOL    HW130659   4.712   1.733   2.087 -0.0817  1.2053  0.3127
41267SOL    HW230660   4.592   1.745   1.996  0.2500 -0.3960 -0.3684
41268SOL     OW30661   8.209   0.730   5.737 -0.0729  0.4027  0.5580
41268SOL    HW130662   8.167   0.815   5.721 -1.6687  0.1951  3.1278
41268SOL    HW230663   8.137   0.667   5.737  0.9057 -0.7712  0.1466
41269SOL     OW30664   4.030   3.935   5.922  0.2396  0.0593 -0.6654
41269SOL    HW130665   4.074   3.916   5.839  3.3215 -1.2665  1.0868
41269SOL    HW230666   4.014   3.849   5.961 -0.4934  0.6685  0.4403
41270SOL     OW30667  10.731  12.376   3.360 -0.0280  0.6316  0.0591
41270SOL    HW130668  10.823  12.388   3.383  1.3919 -0.9241 -3.8107
41270SOL    HW230669  10.711  12.286   3.387 -0.4778  0.9927  0.9661
41271SOL     OW30670   0.392   5.179   1.110 -0.3014  0.0817 -0.2045
41271SOL    HW130671   0.456   5.115   1.078  0.8961  1.3581 -0.4647
41271SOL    HW230672   0.434   5.217   1.187 -0.5758  1.2030 -0.5948
41272SOL     OW30673   6.359   8.535   8.545 -0.4797  0.4361  0.9249
41272SOL    HW130674   6.268   8.548   8.517 -0.6770  0.0086  1.3296
41272SOL    HW230675   6.351   8.479   8.623 -0.0715  2.8092  2.7933
41273SOL     OW30676   2.684   4.169   3.411  0.4041  0.0318 -0.1227
41273SOL    HW130677   2.752   4.235   3.424  0.0572 -0.0117  2.5347
41273SOL    HW230678   2.732   4.091   3.383  0.9971  0.9129 -1.7029
41274SOL     OW30679   4.511   8.637   9.067  0.2032 -0.3844  0.5452
41274SOL    HW130680   4.605   8.650   9.068  0.0253  1.3300 -0.6790
41274SOL    HW230681   4.484   8.652   9.158  0.9416  0.7970  0.5991
41275SOL     OW30682   9.527   7.755   2.055  0.0874  0.3331  0.1210
41275SOL    HW130683   9.434   7.769   2.042  0.3346  0.3994 -1.7453
41275SOL    HW230684   9.563   7.843   2.072  0.0162  0.4955 -0.5634
41276SOL     OW30685   6.682   7.423   9.987 -0.1746 -0.4497  0.0271
41276SOL    HW130686   6.744   7.414   9.915 -1.0436  0.4429 -0.8411
41276SOL    HW230687   6.685   7.516  10.011  1.4089 -0.9876  2.3604
41277SOL     OW30688   9.726   2.609   8.584  0.3991 -0.0927  0.2466
41277SOL    HW130689   9.689   2.655   8.508  1.8136  1.1807  0.2916
41277SOL    HW230690   9.701   2.517   8.571 -1.3174  0.4459 -0.5694
41278SOL     OW30691   1.441   8.152  11.477 -0.1591  0.4486  0.3141
41278SOL    HW130692   1.400   8.066  11.486  1.0105 -0.0107  1.5695
41278SOL    HW230693   1.397   8.192  11.401  0.5517 -1.9783 -1.5091
41279SOL     OW30694  10.898   3.502   9.987 -0.7382  0.5876  0.1581
41279SOL    HW130695  10.898   3.407   9.999 -1.4511  0.6967  1.2012
41279SOL    HW230696  10.810   3.523   9.955 -0.2136  0.7861 -1.1895
41280SOL     OW30697  10.452   6.744   5.355 -0.5589  0.1515  0.5622
41280SOL    HW130698  10.362   6.771   5.373 -0.8382  0.3065 -0.9636
41280SOL    HW230699  10.445   6.680   5.284  0.5669  0.5555  0.0572
41281SOL     OW30700   4.409   6.768   4.141  0.2888  0.1027  0.3121
41281SOL    HW130701   4.500   6.789   4.159  0.7035 -0.6913 -0.7633
41281SOL    HW230702   4.373   6.742   4.226  1.7149 -1.8832  0.3840
41282SOL     OW30703   4.059   5.944  11.000 -0.7293 -0.3300  0.2131
41282SOL    HW130704   4.021   6.028  11.025  0.6317  0.3224  0.2280
41282SOL    HW230705   4.146   5.945  11.040 -0.8777 -1.9858  0.6502
41283SOL     OW30706   4.664   7.139  12.368  0.7726 -0.2538  0.3278
41283SOL    HW130707   4.718   7.158  12.445 -0.7107 -0.4876  1.4770
41283SOL    HW230708   4.672   7.217  12.314  1.3849  0.1643  0.9979
41284SOL     OW30709   8.014   7.261  11.101 -0.4934 -0.5142 -0.4196
41284SOL    HW130710   8.015   7.178  11.054 -0.9110 -1.5173  1.2411
41284SOL    HW230711   8.025   7.236  11.193 -1.5421  1.1900  0.2186
41285SOL     OW30712   8.200   8.083  12.114  0.3954 -0.2515  0.2679
41285SOL    HW130713   8.143   8.026  12.166  0.3138  1.1363  1.8089
41285SOL    HW230714   8.151   8.166  12.109  0.5505 -0.2430 -1.8073
41286SOL     OW30715   2.806  11.833   7.202  0.3724  0.0355  0.3125
41286SOL    HW130716   2.728  11.871   7.241  0.5513  0.2925  0.4230
41286SOL    HW230717   2.870  11.828   7.273 -0.3850 -2.6883  0.9349
41287SOL     OW30718   0.881   4.656   4.924 -0.1409 -0.2700 -0.2924
41287SOL    HW130719   0.858   4.695   5.009 -1.4211  1.1254 -1.2233
41287SOL    HW230720   0.873   4.562   4.938 -1.2368 -0.0363  0.9096
41288SOL     OW30721   4.139   4.151  11.562 -0.5773 -0.0456 -0.3938
41288SOL    HW130722   4.049   4.128  11.582 -0.1541 -0.3702  1.2462
41288SOL    HW230723   4.132   4.222  11.498 -1.9755 -0.3754 -0.6234
41289SOL     OW30724   5.117   5.717   5.822 -0.6806 -0.1343  0.6615
41289SOL    HW130725   5.209   5.694   5.808 -0.3411  1.4982 -0.0519
41289SOL    HW230726   5.072   5.684   5.743 -0.3730  0.6839  0.1284
41290SOL     OW30727   9.749   6.689   1.395  0.1552 -0.1138  0.3021
41290SOL    HW130728   9.753   6.691   1.300 -1.9376  1.2626  0.1896
41290SOL    HW230729   9.772   6.598   1.418 -0.0287 -0.6622 -1.5479
41291SOL     OW30730   7.261  12.143   5.759  0.3546 -0.9250 -0.0176
41291SOL    HW130731   7.209  12.083   5.812  1.4042 -0.9114  1.0899
41291SOL    HW230732   7.278  12.096   5.678 -1.1991 -0.9881 -0.3311
41292SOL     OW30733   9.951   3.783   3.900  0.2207  0.2480  0.1090
41292SOL    HW130734  10.020   3.742   3.953  0.4889  0.0046 -0.4089
41292SOL    HW230735   9.993   3.798   3.815 -1.3586 -3.4500 -1.5629
41293SOL     OW30736  11.018   7.954   5.443  0.0769 -0.0850  0.4794
41293SOL    HW130737  11.012   8.025   5.379  0.7406  1.5550  2.1518
41293SOL    HW230738  10.948   7.893   5.418 -2.9001  2.8530  0.9665
41294SOL     OW30739   5.494   5.619   9.759 -0.5988  0.0287 -0.0264
41294SOL    HW130740   5.583   5.654   9.767 -1.1554  1.3740  0.7753
41294SOL    HW230741   5.491   5.547   9.822 -0.2848  0.4443  0.4721
41295SOL     OW30742   1.893   4.600   0.536 -0.1051  0.0579  0.2772
41295SOL    HW130743   1.822   4.630   0.480  0.4025  1.4187  0.3365
41295SOL    HW230744   1.883   4.505   0.539 -2.4275  0.2658  0.9468
41296SOL     OW30745   3.366   5.165  11.502  0.2121  0.1144 -0.0035
41296SOL    HW130746   3.406   5.079  11.488  0.1238  0.0611  0.0754
41296SOL    HW230747   3.433   5.215  11.549  0.1858  0.0254  0.1282
41297SOL     OW30748   9.863   9.656   7.083  0.0139 -0.0009  0.5239
41297SOL    HW130749   9.856   9.749   7.061  1.2001  0.0707  0.3483
41297SOL    HW230750   9.811   9.611   7.016  0.0797  0.4882  0.1368
41298SOL     OW30751   9.384  11.486   1.020  0.2719  0.0110  0.2265
41298SOL    HW130752   9.446  11.426   1.061  3.2430  2.4297 -0.3370
41298SOL    HW230753   9.361  11.548   1.090  0.7820  0.7561 -0.2450
41299SOL     OW30754  11.861   8.401   8.920  0.2012  0.9727  0.2322
41299SOL    HW130755  11.779   8.404   8.869  0.6657  1.7156 -0.4900
41299SOL    HW230756  11.871   8.309   8.942 -0.6672  0.8212  0.0589
41300SOL     OW30757   0.417   4.768   5.878 -0.2164  0.1164 -0.3703
41300SOL    HW130758   0.454   4.743   5.794  0.5182 -1.9668  0.5037
41300SOL    HW230759   0.452   4.855   5.895 -0.4522  0.6135 -2.2317
41301SOL     OW30760  10.485   9.741  11.265  0.1446  0.0969 -0.8174
41301SOL    HW130761  10.581   9.751  11.264  0.1861 -0.3099 -1.1029
41301SOL    HW230762  10.469   9.676  11.333  0.0429  0.4236 -0.5268
41302SOL     OW30763   5.378  11.792   2.665 -0.5666 -0.0425 -0.2579
41302SOL    HW130764   5.329  11.863   2.623  1.8920  2.5531  0.9226
41302SOL    HW230765   5.439  11.762   2.598 -0.1435  0.4787 -0.1070
41303SOL     OW30766   5.583   3.991   4.539  0.2071  0.8986  0.1608
41303SOL    HW130767   5.610   4.055   4.473 -0.3432  0.2730 -0.6923
41303SOL    HW230768   5.594   3.907   4.496  0.0708  0.4626  0.9657
41304SOL     OW30769   0.012   7.714   8.891  0.0366 -0.3053  0.3292
41304SOL    HW130770   0.029   7.744   8.981  1.9170 -1.8265  0.5504
41304SOL    HW230771   0.099   7.699   8.854 -0.7360 -1.7067 -1.0445
41305SOL     OW30772  11.825   9.759   7.420  0.0562  0.2251  0.2753
41305SOL    HW130773  11.732   9.740   7.416  0.5696 -2.6201 -0.4594
41305SOL    HW230774  11.839   9.798   7.506 -1.7152  0.2183  0.5880
41306SOL     OW30775   1.000  10.968  11.789 -0.0295  0.1903  0.1061
41306SOL    HW130776   0.939  10.894  11.781 -0.4662  0.4477  0.8699
41306SOL    HW230777   0.981  11.023  11.713  0.4957 -0.6142 -0.6218
41307SOL     OW30778   9.465   2.504   9.961 -0.2766 -0.0312 -0.2025
41307SOL    HW130779   9.467   2.456   9.879  0.8483 -0.5533  0.1148
41307SOL    HW230780   9.421   2.445  10.022 -2.9786  1.1350 -0.8526
41308SOL     OW30781   7.400   8.100  12.125  0.7633  0.1084  0.0536
41308SOL    HW130782   7.446   8.168  12.075  0.2743 -0.3226 -1.0195
41308SOL    HW230783   7.451   8.021  12.110  1.8138  0.3467  1.9835
41309SOL     OW30784   4.381   2.695   5.157  0.3784  0.0372  0.0639
41309SOL    HW130785   4.334   2.628   5.107  0.5468 -0.1277  0.1232
41309SOL    HW230786   4.425   2.748   5.091 -0.0103  0.2873 -0.0002
41310SOL     OW30787  11.352   7.895   4.285 -0.1142 -0.5128 -0.2222
41310SOL    HW130788  11.444   7.924   4.284  0.0292 -0.9564 -0.3418
41310SOL    HW230789  11.349   7.825   4.219 -0.0118 -2.0296  1.2996
41311SOL     OW30790   4.752   7.582  11.456 -0.0527  0.2528 -0.4399
41311SOL    HW130791   4.682   7.517  11.444  0.1467  0.0836 -0.7076
41311SOL    HW230792   4.716   7.663  11.421  0.2654 -0.0735 -1.5848
41312SOL     OW30793   8.411  10.537   6.982 -0.4819 -0.7890 -0.7439
41312SOL    HW130794   8.484  10.486   6.949  0.4562  0.8037 -1.2449
41312SOL    HW230795   8.358  10.557   6.905 -1.0049 -1.2436 -0.5067
41313SOL     OW30796   4.097   6.810   8.179 -0.1934 -0.3910  0.1528
41313SOL    HW130797   4.163   6.870   8.143  0.6993 -0.1110  2.1447
41313SOL    HW230798   4.148   6.745   8.226 -1.3221  0.6235  2.9559
41314SOL     OW30799   8.288   9.759   4.382 -0.4718 -0.1339 -0.1203
41314SOL    HW130800   8.222   9.820   4.348 -1.5952 -0.5469  1.2059
41314SOL    HW230801   8.241   9.709   4.449  1.2200 -0.4314  0.8845
41315SOL     OW30802  11.431  10.229   9.909 -0.1176 -0.2619 -0.0998
41315SOL    HW130803  11.513  10.207   9.953 -0.8954 -0.4920  1.2917
41315SOL    HW230804  11.402  10.310   9.951 -0.6639 -0.2389 -0.5053
41316SOL     OW30805  10.474   1.609   0.218  0.3417  0.0778  0.4944
41316SOL    HW130806  10.533   1.548   0.174  1.5329  1.6526 -0.2026
41316SOL    HW230807  10.387   1.572   0.205  0.8091 -0.3454 -1.8941
41317SOL     OW30808   8.460   3.505   9.286 -0.2587 -0.0164  0.8826
41317SOL    HW130809   8.372   3.533   9.260 -0.5793  0.8625  2.7849
41317SOL    HW230810   8.464   3.521   9.380  1.9505 -0.0518  0.8405
41318SOL     OW30811   4.310   7.962  12.406  0.3137  0.1762 -0.4362
41318SOL    HW130812   4.374   7.943  12.337  1.3774 -0.6823  0.7579
41318SOL    HW230813   4.340   8.044  12.444 -1.3029  1.6583 -2.1087
41319SOL     OW30814   6.289   9.780   5.883  0.7312  0.7737 -0.4892
41319SOL    HW130815   6.306   9.858   5.936 -0.6242  0.4786  0.4317
41319SOL    HW230816   6.365   9.724   5.899  0.4154  0.7429  1.0946
41320SOL     OW30817   0.366   3.318  11.422  0.1805 -0.2512  0.2181
41320SOL    HW130818   0.395   3.380  11.489 -0.0447  0.9746 -0.7779
41320SOL    HW230819   0.394   3.357  11.339 -1.6307 -0.4908 -0.5702
41321SOL     OW30820   0.331   8.069   6.094 -0.0302  0.0404  0.6886
41321SOL    HW130821   0.352   7.988   6.048  0.3774  0.5728 -0.0875
41321SOL    HW230822   0.238   8.083   6.076  0.3701  0.8605 -1.0361
41322SOL     OW30823   4.967   3.647   0.238  0.1838  0.3396  0.1117
41322SOL    HW130824   5.055   3.677   0.265  0.1288  2.0967 -1.4500
41322SOL    HW230825   4.976   3.629   0.145 -0.7635 -1.0497  0.2682
41323SOL     OW30826   8.498  10.877   0.929 -0.4840  0.3210 -0.1389
41323SOL    HW130827   8.403  10.891   0.930 -0.3691  1.0688  0.6672
41323SOL    HW230828   8.535  10.961   0.904 -0.0755 -0.3841 -2.0961
41324SOL     OW30829   2.694   3.315   4.260  0.2196  0.1430  0.1754
41324SOL    HW130830   2.782   3.288   4.284  0.6651  1.0585 -0.3902
41324SOL    HW230831   2.654   3.236   4.223  1.0785 -0.0591 -0.3363
41325SOL     OW30832  10.382   8.271   9.973  0.0933  0.5745  0.0515
41325SOL    HW130833  10.427   8.261  10.057 -0.8714 -1.4104  0.3804
41325SOL    HW230834  10.445   8.239   9.908 -0.3098 -0.9193  0.3705
41326SOL     OW30835   3.415  10.710   9.726 -0.4678  0.6025  0.3592
41326SOL    HW130836   3.508  10.736   9.725  0.0936 -1.1761 -2.0507
41326SOL    HW230837   3.389  10.723   9.817  2.6238 -0.3131  1.5360
41327SOL     OW30838   0.195   5.015   9.030  0.3166  0.6761 -0.2500
41327SOL    HW130839   0.109   5.058   9.031 -0.0048  0.0611 -0.4345
41327SOL    HW230840   0.176   4.923   9.047  0.9388  0.5268 -0.3235
41328SOL     OW30841   8.831   3.730   5.312 -0.0421 -0.0676 -0.4519
41328SOL    HW130842   8.900   3.775   5.264  0.4054  2.3392  2.1496
41328SOL    HW230843   8.878   3.679   5.379 -0.6583  1.2013  1.0231
41329SOL     OW30844  12.278   1.605   4.381  0.5217  0.1226  0.0735
41329SOL    HW130845  12.214   1.570   4.443  0.9426 -2.5813 -0.8582
41329SOL    HW230846  12.229   1.615   4.299  0.4673  1.5879  0.2714
41330SOL     OW30847  12.031   3.131   2.370  0.1229  0.4980  0.0787
41330SOL    HW130848  12.065   3.049   2.407 -2.3442  0.1239  1.7412
41330SOL    HW230849  12.109   3.182   2.348  1.7232 -1.2849  1.3276
41331SOL     OW30850   6.775  11.878   4.362 -0.5925  0.2956  0.0284
41331SOL    HW130851   6.812  11.923   4.439 -0.9424  0.1249  0.2978
41331SOL    HW230852   6.776  11.785   4.386 -1.0498  0.2742 -0.0261
41332SOL     OW30853   9.078   5.421   3.698  0.6016 -0.1462  0.1548
41332SOL    HW130854   9.017   5.348   3.709  1.2644 -0.5645  1.2884
41332SOL    HW230855   9.023   5.493   3.666 -0.4384 -0.5903  0.8526
41333SOL     OW30856   6.158  11.526   6.746 -0.0688 -0.2357 -0.4852
41333SOL    HW130857   6.174  11.620   6.737 -1.4689  0.0429 -0.4110
41333SOL    HW230858   6.108  11.503   6.668 -0.5100 -0.7178 -0.0705
41334SOL     OW30859  10.976   1.278   9.970  0.2020 -0.2381 -0.2972
41334SOL    HW130860  11.042   1.320  10.025  1.7524 -2.6137 -0.1913
41334SOL    HW230861  11.025   1.244   9.895 -1.0915 -1.0355 -0.8185
41335SOL     OW30862  10.707   2.940   5.135 -0.4822 -0.0200 -0.8192
41335SOL    HW130863  10.700   2.955   5.229  0.7187  0.1192 -0.7349
41335SOL    HW230864  10.717   3.028   5.098 -2.0479  0.0166 -1.1973
41336SOL     OW30865  11.015   8.867   1.185  0.1082  0.3406 -0.1539
41336SOL    HW130866  11.002   8.790   1.129  2.0599  0.1448 -0.4108
41336SOL    HW230867  10.935   8.918   1.174 -1.4775 -1.8616  0.4074
41337SOL     OW30868  10.017  10.771   4.621  0.2525 -0.2613 -0.0504
41337SOL    HW130869  10.071  10.805   4.550  0.0858  0.6067  0.2321
41337SOL    HW230870   9.938  10.738   4.578  0.8065 -1.1603 -0.4184
41338SOL     OW30871   3.738   9.072   5.063  0.0591 -0.4910  0.6053
41338SOL    HW130872   3.810   9.108   5.114 -0.2129 -0.5361  1.0196
41338SOL    HW230873   3.778   9.003   5.010  0.1585 -1.1432  1.5141
41339SOL     OW30874   8.344   0.058   8.594  0.0911 -0.0726  0.0339
41339SOL    HW130875   8.311   0.116   8.525 -1.4342 -1.7448 -0.7333
41339SOL    HW230876   8.325   0.105   8.675  0.4488  1.2279 -0.6041
41340SOL     OW30877  10.977   2.605   9.393 -0.0058  0.0358 -0.0115
41340SOL    HW130878  10.991   2.697   9.368 -3.3442  1.3764  2.3990
41340SOL    HW230879  10.894   2.581   9.353 -2.1881  0.1546  3.9145
41341SOL     OW30880  10.430   1.951   2.508 -0.1543  0.0772 -0.0075
41341SOL    HW130881  10.408   1.974   2.598  0.7695  0.0014  0.2558
41341SOL    HW230882  10.487   1.874   2.517 -0.8830 -0.5563 -0.7128
41342SOL     OW30883   4.745  11.585   5.043  0.4402  0.1671 -0.3151
41342SOL    HW130884   4.743  11.506   5.097 -1.4290  0.6431  0.3862
41342SOL    HW230885   4.773  11.654   5.104 -0.3827  0.4729 -0.2730
41343SOL     OW30886   1.520   4.243   5.195  0.3752  0.1336 -0.2884
41343SOL    HW130887   1.592   4.182   5.177 -0.9331 -1.7927  0.6302
41343SOL    HW230888   1.527   4.261   5.289 -1.4668 -1.7590  0.2973
41344SOL     OW30889   5.035   5.589  11.917  0.5258 -0.1670  0.0163
41344SOL    HW130890   5.000   5.671  11.882  1.5989 -0.3458 -1.5921
41344SOL    HW230891   4.994   5.521  11.865 -0.3407 -0.6845  1.3312
41345SOL     OW30892  12.115   3.357   9.423 -0.0711 -0.4304  0.9373
41345SOL    HW130893  12.192   3.316   9.383 -0.8500  0.2759 -1.4658
41345SOL    HW230894  12.151   3.418   9.487  1.4474  0.2213 -0.4440
41346SOL     OW30895   7.847  11.330   3.451 -0.3193  0.3877 -0.2335
41346SOL    HW130896   7.819  11.335   3.359 -1.3215 -0.1818  0.0289
41346SOL    HW230897   7.791  11.263   3.489  0.2756  0.4345  0.7369
41347SOL     OW30898   1.862   0.995   4.496 -0.2307  0.6332  0.5165
41347SOL    HW130899   1.823   0.936   4.560  0.4128  1.2298  1.4702
41347SOL    HW230900   1.920   1.052   4.546  0.2821  1.1283 -0.5845
41348SOL     OW30901   6.958   1.979   8.413 -0.0049 -0.8777  0.4711
41348SOL    HW130902   6.971   1.994   8.320 -1.2051 -0.8446  0.2982
41348SOL    HW230903   6.939   1.885   8.421 -2.6332 -0.4371  0.3109
41349SOL     OW30904   8.477  11.393   3.869  0.1824 -0.1077  0.0029
41349SOL    HW130905   8.433  11.393   3.784  2.3181  1.6875 -1.2218
41349SOL    HW230906   8.480  11.301   3.895 -2.4548 -0.4904 -0.7437
41350SOL     OW30907   7.841   4.772  12.033  0.5248  0.4335 -0.4742
41350SOL    HW130908   7.846   4.811  11.945 -1.2359  0.6992 -0.4863
41350SOL    HW230909   7.895   4.830  12.087 -1.2784  2.4345 -0.6763
41351SOL     OW30910   7.459   4.023   4.377 -0.2891  0.4151  0.3517
41351SOL    HW130911   7.504   4.093   4.423 -0.6087 -0.0873  1.4786
41351SOL    HW230912   7.367   4.049   4.378 -0.3292  0.2810  0.2293
41352SOL     OW30913   1.902   7.199   8.875 -0.0220 -0.0329 -0.0045
41352SOL    HW130914   1.910   7.192   8.780 -1.0498  0.4443 -0.1500
41352SOL    HW230915   1.816   7.161   8.894  0.3542 -0.5104  0.7914
41353SOL     OW30916  10.898   2.741   4.616  0.0450  0.2535 -0.0977
41353SOL    HW130917  10.966   2.707   4.558  1.4997 -1.9426  2.6630
41353SOL    HW230918  10.831   2.673   4.617  0.8795 -0.6279  2.0442
41354SOL     OW30919  12.047   0.111   3.979 -0.5662 -0.3217 -0.2274
41354SOL    HW130920  12.015   0.094   3.890  0.9365  0.4958 -0.9625
41354SOL    HW230921  12.111   0.041   3.995  1.8625  1.5268 -1.2731
41355SOL     OW30922   5.009   0.604   2.786 -0.2464  0.1393 -0.3318
41355SOL    HW130923   5.038   0.681   2.739 -1.6515  0.6308 -0.4302
41355SOL    HW230924   4.916   0.618   2.801 -0.6056 -1.6678 -0.6159
41356SOL     OW30925   2.159   8.142   6.826  0.5190 -0.0070  0.0519
41356SOL    HW130926   2.139   8.209   6.891 -1.3925  0.8337 -1.3165
41356SOL    HW230927   2.213   8.187   6.761  1.8059 -0.6512  0.6366
41357SOL     OW30928  10.291   0.800  11.872  0.1432 -0.4752 -0.8359
41357SOL    HW130929  10.328   0.882  11.840  0.6235 -0.3680 -0.0349
41357SOL    HW230930  10.205   0.795  11.831  0.0692  0.4741 -0.8190
41358SOL     OW30931   6.213  11.806   6.748 -0.1468  0.7660 -0.1113
41358SOL    HW130932   6.300  11.844   6.736 -0.5270  2.0227  0.9197
41358SOL    HW230933   6.158  11.878   6.778 -1.0296 -0.4864  1.4645
41359SOL     OW30934   3.166   9.562  11.089 -0.1050  0.1211 -0.4288
41359SOL    HW130935   3.087   9.540  11.138  1.1877 -0.9373  1.2694
41359SOL    HW230936   3.205   9.634  11.138 -0.6105  1.5075 -1.9672
41360SOL     OW30937   0.159   7.779   3.805  0.0521 -0.1517  0.3684
41360SOL    HW130938   0.194   7.768   3.893  0.1449  0.5317  0.4181
41360SOL    HW230939   0.223   7.834   3.760 -0.2859 -0.0199  0.0481
41361SOL     OW30940   5.059   2.146  11.093 -0.2046 -0.0237 -0.0055
41361SOL    HW130941   5.131   2.112  11.147 -0.5151  1.0806  1.1367
41361SOL    HW230942   5.002   2.192  11.154 -0.7425  1.0071 -1.2247
41362SOL     OW30943  10.147  11.010  11.056  0.2811  0.3066 -0.2629
41362SOL    HW130944  10.077  11.058  11.013 -0.4514 -0.8298 -0.3609
41362SOL    HW230945  10.128  11.019  11.150 -0.1830 -0.2533 -0.2974
41363SOL     OW30946  12.321   0.275   3.825 -0.3963 -0.0100 -0.0020
41363SOL    HW130947  12.339   0.187   3.857 -1.9777  0.0462  1.1493
41363SOL    HW230948  12.299   0.325   3.903  0.6605  1.4790 -0.6063
41364SOL     OW30949   3.431  12.558   7.149 -0.0454 -0.2827  0.2302
41364SOL    HW130950   3.349  12.580   7.105 -0.5429 -0.8243  0.8602
41364SOL    HW230951   3.494  12.623   7.117 -0.4830 -0.4156 -0.9661
41365SOL     OW30952   0.949   9.979   2.780 -0.3405  0.1068  0.0391
41365SOL    HW130953   0.942  10.004   2.688  0.3916  0.3959  0.0552
41365SOL    HW230954   0.890   9.904   2.790 -1.3929  0.8549 -0.3755
41366SOL     OW30955   6.334   7.119  10.510  0.4977  0.4705  0.0142
41366SOL    HW130956   6.357   7.190  10.450 -0.3446  0.4852 -0.3035
41366SOL    HW230957   6.239   7.111  10.502  0.2544  1.0248  1.9704
41367SOL     OW30958   6.281   2.625   3.265 -0.1797  0.3736  0.1034
41367SOL    HW130959   6.261   2.675   3.344 -1.2002 -0.0624  0.1411
41367SOL    HW230960   6.279   2.534   3.293 -1.0129  0.1933 -0.5117
41368SOL     OW30961   6.707   1.218   4.458 -0.0406 -0.0897  0.1533
41368SOL    HW130962   6.689   1.310   4.475 -1.6192 -0.8158  3.1541
41368SOL    HW230963   6.792   1.201   4.499  1.0065  0.2859 -1.7458
41369SOL     OW30964  10.572   2.084   2.310 -0.3272 -0.3877  0.4612
41369SOL    HW130965  10.547   2.047   2.395  0.0548  1.5832  1.4898
41369SOL    HW230966  10.622   2.162   2.332  2.3495 -1.3661 -1.5570
41370SOL     OW30967   8.782   6.170   4.231  0.2930 -0.5185  0.3900
41370SOL    HW130968   8.808   6.257   4.201 -0.3871 -0.9071 -1.4919
41370SOL    HW230969   8.741   6.130   4.154 -0.1485 -2.2009  1.4534
41371SOL     OW30970   5.770  10.770   9.620  0.0992 -0.5169 -0.0671
41371SOL    HW130971   5.719  10.797   9.696 -0.4084  0.1853 -0.6463
41371SOL    HW230972   5.788  10.677   9.635 -1.2059 -0.7442  0.2296
41372SOL     OW30973   2.439   8.120   5.896  0.0621 -0.9800 -0.0212
41372SOL    HW130974   2.402   8.153   5.978 -0.1067  1.1987 -0.8887
41372SOL    HW230975   2.507   8.183   5.873  1.9529 -2.9998 -0.2616
41373SOL     OW30976   9.970  10.160  10.235  0.0218  0.3855  0.4555
41373SOL    HW130977   9.889  10.111  10.219 -0.2336  0.3057  1.9095
41373SOL    HW230978  10.026  10.139  10.160 -1.1308  0.1010 -0.3526
41374SOL     OW30979   5.332  10.016   8.490 -0.7464  0.7491  0.0834
41374SOL    HW130980   5.344  10.050   8.401  0.9292  0.4103  0.1457
41374SOL    HW230981   5.412  10.042   8.536 -1.5923  0.9244  1.5048
41375SOL     OW30982  11.686   3.910  11.488 -0.0260  0.5328  0.0774
41375SOL    HW130983  11.670   3.829  11.537 -2.1327  0.7314 -0.1913
41375SOL    HW230984  11.762   3.890  11.433 -0.2105 -1.1155  0.3644
41376SOL     OW30985   5.475  10.847   6.268  0.1550 -0.0037  0.4825
41376SOL    HW130986   5.402  10.857   6.206 -1.4611  0.1267  2.3379
41376SOL    HW230987   5.508  10.758   6.250  1.1212  0.7491 -1.9333
41377SOL     OW30988   3.573   6.095   9.044  0.5274  0.6206 -0.4318
41377SOL    HW130989   3.657   6.083   9.088  0.4121  1.7055  0.1319
41377SOL    HW230990   3.526   6.013   9.058  1.2539  0.2363 -0.2208
41378SOL     OW30991   3.324  12.548   4.394 -0.4959 -0.1423  0.3145
41378SOL    HW130992   3.255  12.487   4.367  0.0997 -1.5304  1.7530
41378SOL    HW230993   3.284  12.600   4.463 -0.8982  0.9101 -0.6828
41379SOL     OW30994   9.418  11.861  12.218 -0.1271  0.2939 -0.6551
41379SOL    HW130995   9.481  11.932  12.210 -1.1315  1.1556 -1.1006
41379SOL    HW230996   9.404  11.851  12.313 -0.3512  1.0325 -0.6056
41380SOL     OW30997   5.264   4.443   1.539  0.1756 -0.2831 -0.5542
41380SOL    HW130998   5.282   4.536   1.523 -0.3482 -0.2088 -0.7441
41380SOL    HW230999   5.227   4.441   1.627  2.1453 -0.5752  0.3185
41381SOL     OW31000   1.507  10.490   1.089  0.5559  0.5638 -0.5586
41381SOL    HW131001   1.446  10.537   1.146  1.4055  0.7198  0.2447
41381SOL    HW231002   1.470  10.402   1.080  0.4685  0.4986  0.3531
41382SOL     OW31003   0.645   3.155   8.486 -0.6223 -0.0721  0.1979
41382SOL    HW131004   0.689   3.217   8.427  0.5344  0.6099  1.7152
41382SOL    HW231005   0.677   3.069   8.457  0.8515  0.3347  0.5359
41383SOL     OW31006   9.746   1.876   8.388 -0.5707 -0.1472 -0.0765
41383SOL    HW131007   9.685   1.838   8.325  0.1886 -1.0289 -0.3082
41383SOL    HW231008   9.821   1.816   8.388  0.2505  0.8453  0.2743
41384SOL     OW31009  10.342   9.149  10.013 -0.0246  0.3420 -0.4984
41384SOL    HW131010  10.347   9.244  10.017  0.7330  0.3341 -1.0122
41384SOL    HW231011  10.281   9.130   9.942 -0.5154  0.4467 -0.1023
41385SOL     OW31012   0.907   2.052   6.223  0.1389  0.0578 -0.2419
41385SOL    HW131013   0.822   2.011   6.241  1.0936 -1.3455  1.2767
41385SOL    HW231014   0.968   1.979   6.213  1.3859  1.0551 -0.1986
41386SOL     OW31015   1.817   0.265  11.029 -0.3376  0.3800 -0.2929
41386SOL    HW131016   1.903   0.224  11.037 -0.7377 -0.4347 -0.0072
41386SOL    HW231017   1.797   0.296  11.117 -0.1737  0.9187 -0.4421
41387SOL     OW31018  10.329   7.876   4.272 -0.3028  0.1113 -0.0999
41387SOL    HW131019  10.391   7.949   4.271  1.1683 -1.0089 -2.9290
41387SOL    HW231020  10.349   7.829   4.353  0.5702  1.3713  0.4410
41388SOL     OW31021   6.495   8.092  10.706 -0.0432  0.4400  0.1853
41388SOL    HW131022   6.520   8.171  10.658 -0.2949  0.6502  0.3986
41388SOL    HW231023   6.408   8.071  10.673  0.4278 -0.3229 -0.5976
41389SOL     OW31024   4.495   3.940   0.981  0.3371  0.2903 -0.5870
41389SOL    HW131025   4.502   4.004   0.910  2.7004  0.6613 -0.1121
41389SOL    HW231026   4.517   3.990   1.060  0.8763 -0.7852 -0.0290
41390SOL     OW31027  12.131   6.309   3.969 -0.4106 -0.3853 -0.0279
41390SOL    HW131028  12.091   6.222   3.962 -0.4839 -0.2558 -2.0080
41390SOL    HW231029  12.065   6.362   4.012 -0.4062 -1.2748  1.1196
41391SOL     OW31030   3.697   5.892  11.684 -0.2256 -0.2107  0.1968
41391SOL    HW131031   3.753   5.861  11.613 -1.2670  0.4796 -0.9630
41391SOL    HW231032   3.673   5.813  11.732  2.4124 -0.4481  1.2858
41392SOL     OW31033   2.898  10.058  10.329 -0.2562 -0.0425 -0.1312
41392SOL    HW131034   2.866  10.011  10.252 -1.3163  0.7532 -0.1911
41392SOL    HW231035   2.962  10.120  10.294 -0.5984  0.1912 -0.3438
41393SOL     OW31036   5.236   3.825   1.681 -0.5536 -0.0148 -0.3391
41393SOL    HW131037   5.221   3.745   1.631 -1.2079 -0.0599 -0.0782
41393SOL    HW231038   5.331   3.837   1.679 -0.5377 -0.2070 -1.2896
41394SOL     OW31039   5.919  11.480   4.501 -0.2799  0.0511 -0.4143
41394SOL    HW131040   5.846  11.534   4.532  1.6392  1.6407  1.6541
41394SOL    HW231041   5.911  11.482   4.405 -3.1613 -0.2263 -0.2497
41395SOL     OW31042   0.154   5.726  11.257  0.0193  0.2246 -0.1983
41395SOL    HW131043   0.151   5.818  11.229  2.1678  0.2875 -0.3727
41395SOL    HW231044   0.200   5.728  11.341  1.1569 -0.7908 -0.7703
41396SOL     OW31045   5.137   4.062  11.279 -0.0165 -0.1660 -0.7858
41396SOL    HW131046   5.161   4.137  11.334  0.3892 -0.1577 -0.9724
41396SOL    HW231047   5.055   4.031  11.317 -0.0465  0.2016 -0.5349
41397SOL     OW31048   6.156   9.034   1.199  0.4384  0.3782 -0.2686
41397SOL    HW131049   6.169   9.127   1.216  0.4126 -0.1556  3.6105
41397SOL    HW231050   6.245   8.999   1.189  0.7463  0.3403  2.0646
41398SOL     OW31051   8.415  11.573  12.052  0.0993  0.2257 -0.9745
41398SOL    HW131052   8.403  11.492  12.102  0.6765 -0.1322 -1.4083
41398SOL    HW231053   8.462  11.546  11.973  0.4358  1.0142 -1.0498
41399SOL     OW31054   7.537   1.424   6.605 -0.2813 -0.5666  0.0045
41399SOL    HW131055   7.540   1.449   6.512 -0.1796  0.5420  0.2927
41399SOL    HW231056   7.496   1.337   6.605  1.0711 -1.2507 -1.2003
41400SOL     OW31057   1.756  11.991   3.808  0.1487  0.0444 -0.3868
41400SOL    HW131058   1.850  11.982   3.799  0.2118  0.4804 -0.1858
41400SOL    HW231059   1.722  11.901   3.806  0.9093 -0.4946  3.6219
41401SOL     OW31060   2.465  10.800   4.227 -0.5091 -0.6039  0.7248
41401SOL    HW131061   2.530  10.775   4.292 -1.0102 -0.1592  1.4091
41401SOL    HW231062   2.496  10.760   4.145 -0.7605 -2.6035  1.5558
41402SOL     OW31063   6.779   8.354  10.743  0.1454  0.1910 -0.5496
41402SOL    HW131064   6.804   8.401  10.823 -1.2657 -0.9727  0.6386
41402SOL    HW231065   6.697   8.396  10.715  0.9832  1.0357 -1.8060
41403SOL     OW31066   5.075   3.826   6.803  0.1196  0.4841  0.3531
41403SOL    HW131067   5.017   3.844   6.729 -0.8204 -0.1417  0.9042
41403SOL    HW231068   5.161   3.812   6.764 -0.2263  0.8069 -0.5523
41404SOL     OW31069  12.313  11.585   0.743 -0.2459  0.1321 -0.4846
41404SOL    HW131070  12.399  11.542   0.732 -0.1834 -0.0580  0.6425
41404SOL    HW231071  12.334  11.678   0.751  0.0691 -0.0981  1.8338
41405SOL     OW31072   3.451   5.327   6.666  0.5487 -0.2465  0.1282
41405SOL    HW131073   3.364   5.358   6.641 -0.1182 -2.6096 -0.7546
41405SOL    HW231074   3.470   5.371   6.749 -0.9887  1.1578 -0.2256
41406SOL     OW31075   1.228   8.805   5.206 -0.2988  0.0267 -0.1114
41406SOL    HW131076   1.227   8.892   5.247 -1.3849  0.9760 -1.9941
41406SOL    HW231077   1.196   8.821   5.117  0.7766 -2.1146 -0.9383
41407SOL     OW31078   0.541   1.071  12.216 -0.0216 -0.0987  0.6588
41407SOL    HW131079   0.538   0.975  12.223  0.3105 -0.1071  0.6602
41407SOL    HW231080   0.537   1.101  12.307 -0.6366 -0.0960  0.6382
41408SOL     OW31081   9.664   8.148  10.099  0.3661  0.4931  0.2664
41408SOL    HW131082   9.662   8.057  10.069  0.3686  0.7837 -0.6652
41408SOL    HW231083   9.572   8.173  10.104  0.3649  0.4388  0.5422
41409SOL     OW31084   1.342   6.626   9.089 -0.1542 -0.3007 -0.1658
41409SOL    HW131085   1.274   6.684   9.054  1.8912  1.0630 -2.2022
41409SOL    HW231086   1.325   6.542   9.046 -0.4650  0.0841 -0.8258
41410SOL     OW31087  10.967   5.611   6.390  0.1582  0.2223 -0.5397
41410SOL    HW131088  11.034   5.678   6.400  0.6362 -0.4624  1.1397
41410SOL    HW231089  11.010   5.543   6.338  0.5641  0.0719 -0.0179
41411SOL     OW31090   9.626   7.283  12.376  0.2122 -0.1103 -0.2359
41411SOL    HW131091   9.663   7.339  12.308 -0.9163 -0.0408 -0.8210
41411SOL    HW231092   9.538   7.263  12.345 -0.1501 -0.4869  0.9733
41412SOL     OW31093   0.980   3.345   8.448  0.1074  0.1038 -0.0176
41412SOL    HW131094   1.066   3.379   8.425 -0.1078  1.2169  0.7019
41412SOL    HW231095   0.982   3.252   8.424  1.0330  0.4231 -1.2404
41413SOL     OW31096  12.305   5.193   6.813  0.5347  0.4690  0.3274
41413SOL    HW131097  12.331   5.140   6.889 -1.5926  0.4361  1.0870
41413SOL    HW231098  12.318   5.283   6.843  3.3933  0.5056 -0.6920
41414SOL     OW31099   0.758  12.066   2.498 -0.6866  0.1851 -0.4724
41414SOL    HW131100   0.772  12.069   2.592 -0.9856  0.8168 -0.4417
41414SOL    HW231101   0.836  12.021   2.463 -0.9455 -0.7548  0.1355
41415SOL     OW31102   5.672   2.384   0.297  0.6349  0.3257 -0.1153
41415SOL    HW131103   5.577   2.373   0.306  0.4018  2.3575  0.3457
41415SOL    HW231104   5.683   2.475   0.272  2.4652 -0.0203 -0.7236
41416SOL     OW31105   1.431   4.797   4.221 -0.2178 -0.2667 -0.2198
41416SOL    HW131106   1.390   4.758   4.298 -0.4921 -0.6132 -0.5382
41416SOL    HW231107   1.480   4.872   4.255 -0.4793 -0.3155  0.2673
41417SOL     OW31108   4.507  10.973   6.741 -0.2272  0.0266  0.2809
41417SOL    HW131109   4.457  11.008   6.667  1.8562  1.5965 -0.4828
41417SOL    HW231110   4.488  10.880   6.740 -2.3220  0.4053 -0.5748
41418SOL     OW31111   0.833   2.651   2.513  0.6423 -0.2613  0.8351
41418SOL    HW131112   0.819   2.666   2.606 -0.7566  1.3632  0.4062
41418SOL    HW231113   0.907   2.590   2.509  0.7228 -0.3614  2.9857
41419SOL     OW31114   6.901   2.280   6.406  0.3504  0.1357 -0.0542
41419SOL    HW131115   6.972   2.216   6.412 -0.1903 -0.4052  0.8311
41419SOL    HW231116   6.913   2.320   6.320  0.7279 -1.1290 -0.6228
41420SOL     OW31117   0.042   7.407   5.552  0.9292  0.1139  0.2487
41420SOL    HW131118  -0.050   7.432   5.560  0.5784 -1.1230  0.2103
41420SOL    HW231119   0.068   7.438   5.465  0.4618  0.1884  0.1371
41421SOL     OW31120   8.968   3.140   8.729  0.4336 -0.6104  0.8355
41421SOL    HW131121   8.954   3.049   8.703 -0.9914  0.0434 -0.8670
41421SOL    HW231122   8.922   3.149   8.813 -1.3228 -0.9323 -0.0549
41422SOL     OW31123  12.128   8.318   9.068  0.3890 -0.3465  0.3568
41422SOL    HW131124  12.042   8.357   9.086  1.4720  2.7860 -0.4988
41422SOL    HW231125  12.163   8.296   9.154  0.1347  1.8060  1.0801
41423SOL     OW31126   9.497   2.230  10.942 -0.1652  0.0465  0.4393
41423SOL    HW131127   9.418   2.197  10.900  0.0922  1.8286 -1.6161
41423SOL    HW231128   9.567   2.172  10.912 -0.3751 -0.2690  0.5596
41424SOL     OW31129   6.950   4.189   4.937  0.0158  0.1154 -0.4701
41424SOL    HW131130   6.859   4.211   4.957  0.2095  1.1409 -0.6657
41424SOL    HW231131   7.002   4.245   4.994  0.5318 -0.0954 -0.7193
41425SOL     OW31132   1.734   5.347   7.542  0.6283  0.4183 -0.5903
41425SOL    HW131133   1.704   5.434   7.516  1.1861  0.4988 -0.9936
41425SOL    HW231134   1.826   5.345   7.517  0.8578  0.0321  0.2448
41426SOL     OW31135  11.734   4.042  11.810  0.1167 -0.1194 -0.9719
41426SOL    HW131136  11.714   4.135  11.808  1.7205  0.2939 -0.1006
41426SOL    HW231137  11.827   4.037  11.788  1.1750 -1.0663  2.8879
41427SOL     OW31138   8.035  11.759   0.870 -0.0155 -0.3956 -0.4496
41427SOL    HW131139   8.003  11.705   0.942  0.0297  0.2739  0.0757
41427SOL    HW231140   8.036  11.848   0.905  0.3196 -0.1101 -1.1712
41428SOL     OW31141   3.486   9.974   6.936 -0.0704 -0.0178 -0.7263
41428SOL    HW131142   3.503   9.884   6.963 -0.1436  0.0149 -0.5742
41428SOL    HW231143   3.571  10.017   6.944 -0.4607  0.4535  1.2372
41429SOL     OW31144   8.954  11.366   3.031  0.7336 -0.0174 -0.9143
41429SOL    HW131145   8.876  11.339   2.982  1.5563  0.2133 -2.4042
41429SOL    HW231146   9.025  11.312   2.996  1.4586  0.5797 -0.3959
41430SOL     OW31147   4.204  10.964   8.483  0.2885  0.4340  0.2263
41430SOL    HW131148   4.297  10.948   8.464  0.2165  1.1932 -0.8954
41430SOL    HW231149   4.159  10.947   8.400 -0.4407  1.0566  0.4839
41431SOL     OW31150   3.672   2.617   6.917  0.0886  0.7534  0.2622
41431SOL    HW131151   3.727   2.660   6.851  1.5607 -0.0382  0.9247
41431SOL    HW231152   3.635   2.541   6.872 -1.8496  2.1350 -0.6631
41432SOL     OW31153   9.712   2.980   6.127 -0.2065 -0.3482  0.2653
41432SOL    HW131154   9.619   3.000   6.120 -0.4004 -1.4772 -0.6908
41432SOL    HW231155   9.738   2.955   6.038  1.1786  0.5896  0.3614
41433SOL     OW31156   9.094   7.390  12.250  0.3303 -0.1573 -0.3914
41433SOL    HW131157   9.115   7.424  12.163 -1.5362 -1.3984 -1.3962
41433SOL    HW231158   8.999   7.380  12.249  0.0666  1.1747  2.3586
41434SOL     OW31159   9.251   5.459   2.167 -0.3111 -0.0272  0.4385
41434SOL    HW131160   9.257   5.436   2.074  0.8050 -1.1043  0.7488
41434SOL    HW231161   9.187   5.398   2.203  1.3735 -1.5900  0.9164
41435SOL     OW31162   5.526   7.306   5.930 -0.3560 -0.2132 -0.1765
41435SOL    HW131163   5.622   7.308   5.930 -0.2467 -0.9244 -2.6445
41435SOL    HW231164   5.501   7.314   6.022  2.0383  0.6740  0.4690
41436SOL     OW31165  11.084   8.744  11.857 -0.2128 -0.0501  0.3965
41436SOL    HW131166  11.177   8.720  11.861  0.0625 -0.1074 -3.2226
41436SOL    HW231167  11.084   8.835  11.827 -1.4126  0.9839  3.1575
41437SOL     OW31168   9.009   0.093   6.429  0.5962  0.4153  0.4584
41437SOL    HW131169   9.024   0.014   6.481  2.4943  1.4025  1.5130
41437SOL    HW231170   8.932   0.133   6.467 -0.4057 -0.8998 -0.0995
41438SOL     OW31171   6.557   5.683   5.562 -0.0023 -0.4028  0.4726
41438SOL    HW131172   6.586   5.706   5.473  0.2791 -2.7541 -0.1262
41438SOL    HW231173   6.509   5.760   5.593  1.3265  1.1276 -1.0499
41439SOL     OW31174   3.791   1.062   2.320 -0.5200 -0.0242 -0.3031
41439SOL    HW131175   3.700   1.086   2.333 -0.2980  1.2842 -0.9490
41439SOL    HW231176   3.839   1.115   2.384 -0.0917  0.4826 -1.0378
41440SOL     OW31177   4.559   9.740   7.028  0.0085  0.2177 -0.3951
41440SOL    HW131178   4.539   9.778   6.942 -1.3113  1.2296  0.3311
41440SOL    HW231179   4.652   9.720   7.024  0.1876  1.1728 -1.7090
41441SOL     OW31180   8.880   4.057   9.436  0.0696 -0.6914 -0.0104
41441SOL    HW131181   8.893   3.988   9.501  0.4106  0.0435  0.7135
41441SOL    HW231182   8.935   4.129   9.465  1.3802 -0.8421 -1.9027
41442SOL     OW31183   0.565  10.948  11.585  0.2676  0.0671  0.0436
41442SOL    HW131184   0.625  10.921  11.516  1.5635  2.9993 -0.1442
41442SOL    HW231185   0.620  10.962  11.661 -0.1707  2.3275  0.0164
41443SOL     OW31186   9.086   1.687   8.371  0.5345  0.8696  0.3779
41443SOL    HW131187   9.143   1.633   8.316 -1.9842 -1.4351 -0.1863
41443SOL    HW231188   9.121   1.675   8.459  0.6416 -0.9481  0.1371
41444SOL     OW31189   8.934   3.168  11.617 -0.5929  0.1109 -0.0927
41444SOL    HW131190   8.988   3.103  11.661  1.2710  2.1522  0.8581
41444SOL    HW231191   8.944   3.150  11.524  0.1754 -0.7130  0.1386
41445SOL     OW31192  11.810   2.237   6.076  0.0911 -0.4277  0.5269
41445SOL    HW131193  11.795   2.331   6.085 -1.7182 -0.8466  3.3216
41445SOL    HW231194  11.904   2.225   6.090  0.7674  1.0779 -2.1404
41446SOL     OW31195   2.689   4.085   2.549  0.3157  0.4057 -0.0866
41446SOL    HW131196   2.634   4.139   2.493  0.4804  0.0507 -0.6015
41446SOL    HW231197   2.778   4.105   2.522  0.3554 -1.8433 -1.9966
41447SOL     OW31198   6.953   1.160   1.046 -0.1267  0.4958  0.2159
41447SOL    HW131199   6.891   1.131   1.113  1.9150 -0.2598  1.8970
41447SOL    HW231200   6.999   1.080   1.021  0.9790  1.2062 -0.0790
41448SOL     OW31201   7.671   9.418   6.425  0.0782  0.3729 -0.6995
41448SOL    HW131202   7.738   9.486   6.421  0.3552  0.0898 -0.8833
41448SOL    HW231203   7.643   9.406   6.334 -1.9796  2.2155 -0.4157
41449SOL     OW31204   8.093   1.667   7.566 -0.0466  0.1770 -0.0353
41449SOL    HW131205   8.172   1.696   7.612 -1.6680  1.8750  1.8461
41449SOL    HW231206   8.087   1.725   7.490 -1.6319  2.9950  2.0803
41450SOL     OW31207   4.949   3.522   5.961 -0.0393 -0.1695 -0.0837
41450SOL    HW131208   5.043   3.532   5.945 -0.2210 -1.0604 -1.8551
41450SOL    HW231209   4.945   3.474   6.045  1.1722 -2.0343 -1.0079
41451SOL     OW31210   4.753   7.577  10.657  0.2268 -0.2101  0.3209
41451SOL    HW131211   4.830   7.607  10.609  1.0732  0.6431  2.0940
41451SOL    HW231212   4.767   7.482  10.667 -0.6433 -0.6692 -2.1675
41452SOL     OW31213  11.944  11.212   8.076 -0.1900 -0.2512  0.2685
41452SOL    HW131214  12.019  11.156   8.093 -0.9072 -1.1978  0.3997
41452SOL    HW231215  11.881  11.155   8.031 -1.8053 -0.1885  2.3197
41453SOL     OW31216   1.929   7.367   1.428  0.2616  0.2615 -0.0270
41453SOL    HW131217   1.841   7.328   1.429  1.2252 -2.0723 -0.6563
41453SOL    HW231218   1.955   7.364   1.336  0.3260  2.6812 -0.1511
41454SOL     OW31219   5.807   4.863   8.446 -0.2214 -0.2821  0.2280
41454SOL    HW131220   5.870   4.933   8.466  1.1642 -1.7604  1.3264
41454SOL    HW231221   5.784   4.877   8.354  2.3090 -0.0825 -0.4551
41455SOL     OW31222   1.057  10.732   0.569  0.1397  0.3007 -0.1445
41455SOL    HW131223   1.092  10.656   0.523 -0.6674  0.3469 -0.8741
41455SOL    HW231224   0.978  10.699   0.613 -0.1871  0.7016 -0.4245
41456SOL     OW31225  12.358   3.332   4.052 -0.2471  0.0236  0.1560
41456SOL    HW131226  12.303   3.407   4.031  1.9195  1.2156 -1.5999
41456SOL    HW231227  12.433   3.369   4.099 -0.7393 -1.5322  2.3419
41457SOL     OW31228   9.620   4.245   1.122  0.0255  0.5524 -0.2282
41457SOL    HW131229   9.683   4.288   1.181 -0.3381  1.9167 -0.7881
41457SOL    HW231230   9.667   4.169   1.088  0.3963 -0.0369  1.4653
41458SOL     OW31231   9.852   9.184   7.951  0.5286  0.1009 -0.2169
41458SOL    HW131232   9.763   9.164   7.981  1.3348  0.2182  2.5295
41458SOL    HW231233   9.881   9.255   8.008  3.0745 -1.3098  0.3780
41459SOL     OW31234   0.726   7.851   9.806 -0.1299  0.0635 -0.2715
41459SOL    HW131235   0.690   7.892   9.885  0.7974 -0.2042  0.3101
41459SOL    HW231236   0.657   7.792   9.776 -0.4196  0.0156  0.4599
41460SOL     OW31237   8.819   7.502   7.045  0.0745 -0.2017  0.6868
41460SOL    HW131238   8.907   7.467   7.027 -1.1106 -2.5809 -1.2230
41460SOL    HW231239   8.802   7.478   7.136  1.1127 -0.4423  0.8356
41461SOL     OW31240   4.330   5.759   1.248  0.9772  1.0965 -0.3616
41461SOL    HW131241   4.254   5.729   1.298  0.7141 -0.3645 -1.5627
41461SOL    HW231242   4.318   5.854   1.241 -0.4386  0.9624 -0.0271
41462SOL     OW31243   7.954   9.565   6.060 -0.1218  0.1141 -0.2169
41462SOL    HW131244   7.934   9.481   6.101 -0.9856  0.0436 -0.7512
41462SOL    HW231245   7.870   9.611   6.057  0.3325  0.9948  0.0499
41463SOL     OW31246   7.686  11.624   1.090  0.2535  0.0680  0.2428
41463SOL    HW131247   7.703  11.555   1.027 -1.5581 -2.3831  2.2004
41463SOL    HW231248   7.767  11.632   1.139  0.2533 -1.3779  0.5343
41464SOL     OW31249   8.638   8.566   3.211 -0.1267 -0.6323 -1.1094
41464SOL    HW131250   8.721   8.596   3.248  0.0348 -1.1546 -1.0437
41464SOL    HW231251   8.663   8.518   3.132 -0.4113 -0.2592 -1.4305
41465SOL     OW31252  10.204   1.952  11.891 -0.0205  0.1702  0.3444
41465SOL    HW131253  10.203   1.967  11.985 -0.1870 -0.2006  0.4048
41465SOL    HW231254  10.263   2.019  11.856 -1.4696  1.6077  0.4909
41466SOL     OW31255   2.352   6.791   6.967 -0.0889  0.0268  0.2046
41466SOL    HW131256   2.382   6.765   6.880 -0.9972 -1.9252  0.4321
41466SOL    HW231257   2.390   6.726   7.026 -1.6298 -0.2557  0.9311
41467SOL     OW31258   0.418   4.356   7.473 -0.3092 -0.0500  0.0891
41467SOL    HW131259   0.344   4.390   7.523 -0.9361  0.1387 -0.9341
41467SOL    HW231260   0.494   4.401   7.508 -0.8519  0.7573  0.2474
41468SOL     OW31261   6.582   1.230  11.229  0.2311 -0.1715  0.2176
41468SOL    HW131262   6.676   1.239  11.243  0.1565 -1.0538  1.3924
41468SOL    HW231263   6.545   1.224  11.317 -0.6748 -2.2322 -0.2577
41469SOL     OW31264   1.999  12.209   5.118  0.0423  0.2816  0.6686
41469SOL    HW131265   1.924  12.169   5.161  1.0587 -0.9560  1.3356
41469SOL    HW231266   1.970  12.222   5.027 -0.7253 -0.8611  0.7321
41470SOL     OW31267   9.990  11.427  12.283 -0.4106  0.2512  1.2565
41470SOL    HW131268   9.963  11.456  12.370 -0.5794  2.2071  0.5928
41470SOL    HW231269  10.085  11.434  12.283 -0.4137  0.2886  1.2757
41471SOL     OW31270   4.900  10.774   6.512 -0.0444  0.2203 -0.0357
41471SOL    HW131271   4.988  10.808   6.524 -0.1730  0.9402 -0.9980
41471SOL    HW231272   4.870  10.753   6.601  1.8194 -1.9916  0.1571
41472SOL     OW31273  11.532   9.704   1.283 -0.4088 -0.3313  0.0018
41472SOL    HW131274  11.501   9.795   1.280  1.6561  0.4599  0.2589
41472SOL    HW231275  11.491   9.667   1.360 -0.4632  0.7316  0.5009
41473SOL     OW31276   5.318   8.890  10.908 -0.1468  0.1440  0.3860
41473SOL    HW131277   5.304   8.797  10.924  2.5721 -0.4643 -0.3263
41473SOL    HW231278   5.408   8.896  10.876 -0.5403  2.9224 -0.4856
41474SOL     OW31279   0.701   3.900  10.920  0.2327  0.3556 -0.4982
41474SOL    HW131280   0.724   3.812  10.950  1.8683  1.0995  0.5924
41474SOL    HW231281   0.752   3.958  10.977 -2.2401  2.0838  0.0994
41475SOL     OW31282   4.440   5.165   6.987 -0.5868  0.2545  0.6715
41475SOL    HW131283   4.368   5.225   7.002 -0.9850 -0.0028 -0.1307
41475SOL    HW231284   4.398   5.080   6.970 -0.0858  0.0111  0.6278
41476SOL     OW31285  10.586   5.353   7.558 -0.0335 -0.0499 -0.5488
41476SOL    HW131286  10.675   5.386   7.561  0.0063 -0.2241  0.4106
41476SOL    HW231287  10.588   5.284   7.491  1.0612 -1.4817  0.8867
41477SOL     OW31288   4.262   1.875   1.822  0.0452  0.0305 -0.2171
41477SOL    HW131289   4.276   1.970   1.813  0.9386 -0.0002  0.6982
41477SOL    HW231290   4.264   1.842   1.732 -2.1855  1.1016 -0.7445
41478SOL     OW31291  10.418   0.816   8.702  0.0957 -0.0913 -0.1406
41478SOL    HW131292  10.478   0.755   8.660  0.0064 -0.6265  0.4846
41478SOL    HW231293  10.334   0.801   8.659 -0.1691 -1.1667  0.7080
41479SOL     OW31294   9.262   3.181  11.530 -0.1862  0.3145  0.0484
41479SOL    HW131295   9.257   3.192  11.435 -0.0303 -1.3723 -0.1851
41479SOL    HW231296   9.355   3.193  11.550  0.0501 -0.8695 -0.2554
41480SOL     OW31297  11.410  11.117   8.358 -0.6090 -0.5334  0.2785
41480SOL    HW131298  11.402  11.149   8.268 -1.6312 -1.0651  0.1658
41480SOL    HW231299  11.407  11.022   8.349 -1.3019 -0.5751  0.9261
41481SOL     OW31300   9.423   9.026  10.140  0.6621  0.0369  0.4048
41481SOL    HW131301   9.379   9.027  10.055  1.9973  0.6359 -0.3134
41481SOL    HW231302   9.498   8.968  10.127  0.6408 -0.2159  1.3243
41482SOL     OW31303   1.279   4.591   4.841  0.0857 -0.3965  0.0257
41482SOL    HW131304   1.219   4.525   4.877  0.3360 -1.1282 -0.8507
41482SOL    HW231305   1.227   4.637   4.775 -0.0824  0.2795  0.6244
41483SOL     OW31306   5.540  11.827   0.866 -0.4314  0.1793  0.3340
41483SOL    HW131307   5.547  11.869   0.952  0.0298 -0.0722  0.4192
41483SOL    HW231308   5.481  11.884   0.817  1.5627  1.9467 -0.1473
41484SOL     OW31309   5.900  10.867  12.395  0.5362 -0.0649 -0.3526
41484SOL    HW131310   5.830  10.807  12.372  0.8879 -0.9807  0.8562
41484SOL    HW231311   5.932  10.900  12.311 -1.8616  1.0511 -0.9129
41485SOL     OW31312   5.813   5.335   6.096 -0.3769 -0.1712 -0.0495
41485SOL    HW131313   5.747   5.266   6.101 -0.2713 -0.1796  1.7565
41485SOL    HW231314   5.823   5.365   6.186  1.7983  0.0975 -0.3276
41486SOL     OW31315   8.505  10.943  10.476  0.2101  0.1518 -0.1746
41486SOL    HW131316   8.517  10.996  10.397  0.8003  0.1708 -0.0796
41486SOL    HW231317   8.451  10.869  10.447  0.5476  0.0753 -0.6408
41487SOL     OW31318   5.420   9.375   5.591  0.2576 -0.2008  0.3078
41487SOL    HW131319   5.495   9.344   5.541 -1.2991 -1.1378 -1.5911
41487SOL    HW231320   5.344   9.348   5.540 -1.3662  2.2695  1.2285
41488SOL     OW31321   7.764   8.126   4.459  0.1986 -0.8978  0.0615
41488SOL    HW131322   7.749   8.126   4.554 -0.4298 -0.8405 -0.0292
41488SOL    HW231323   7.732   8.040   4.430  0.7129 -1.0547 -0.0562
41489SOL     OW31324   1.594   3.306   8.838  0.8689 -0.7430 -0.3521
41489SOL    HW131325   1.623   3.251   8.766  3.7891 -3.1283  2.3093
41489SOL    HW231326   1.536   3.250   8.890  0.9487 -0.0362  0.5290
41490SOL     OW31327   9.173   7.380   9.502 -0.1262 -0.2673  0.2305
41490SOL    HW131328   9.183   7.471   9.531 -1.0602 -0.3310  0.8075
41490SOL    HW231329   9.224   7.329   9.564  0.4123 -0.1487 -0.1026
41491SOL     OW31330   5.501   8.747   0.782  0.4727  0.3989  0.4550
41491SOL    HW131331   5.587   8.790   0.777  0.3398  0.5756 -0.6456
41491SOL    HW231332   5.447   8.794   0.719 -0.0273 -0.5950  0.1116
41492SOL     OW31333  11.947   7.788  10.037 -0.0375 -0.0381 -0.1422
41492SOL    HW131334  11.900   7.744  10.108 -1.1479  0.7354 -0.3692
41492SOL    HW231335  11.898   7.767   9.958 -0.2097  1.0322 -0.3427
41493SOL     OW31336  10.565   1.786   3.526  0.2356 -0.1425  0.3545
41493SOL    HW131337  10.661   1.777   3.521  0.0853 -2.0132  0.2010
41493SOL    HW231338  10.551   1.871   3.568  1.9856 -0.4461  1.6605
41494SOL     OW31339  11.876   4.956   5.550 -0.2320  0.6083 -0.3137
41494SOL    HW131340  11.971   4.954   5.539 -0.0743 -0.7917  0.9145
41494SOL    HW231341  11.844   4.891   5.487 -0.3055  0.5789 -0.2454
41495SOL     OW31342   0.068   4.733   0.449 -0.2028 -0.0485 -0.0616
41495SOL    HW131343   0.141   4.793   0.434  0.9187 -1.4451 -0.4436
41495SOL    HW231344   0.015   4.776   0.516 -0.0177  1.8241 -1.0460
41496SOL     OW31345   7.284   1.469   4.694  0.1914 -0.4357 -0.3920
41496SOL    HW131346   7.378   1.465   4.711  0.4814 -1.8150 -2.0703
41496SOL    HW231347   7.251   1.382   4.715 -0.6049 -0.1547 -0.4157
41497SOL     OW31348   8.279   6.640  10.562 -0.1445  0.5768  0.4059
41497SOL    HW131349   8.333   6.691  10.622  0.6772 -0.9905  1.0414
41497SOL    HW231350   8.260   6.701  10.490  0.6117  1.8358  1.2257
41498SOL     OW31351   1.886  12.454   3.878  0.0308  0.0228  0.5767
41498SOL    HW131352   1.891  12.506   3.798  0.7928 -0.7481  0.1028
41498SOL    HW231353   1.858  12.516   3.946  0.8586  1.0340  0.0168
41499SOL     OW31354  12.132   7.591   0.221  0.0899  0.3303  0.4770
41499SOL    HW131355  12.127   7.686   0.232 -2.1786  0.4836 -1.1483
41499SOL    HW231356  12.078   7.556   0.292 -2.6073  0.5801 -1.2828
41500SOL     OW31357  11.249  10.505  11.827 -0.6502  0.3264 -0.1706
41500SOL    HW131358  11.203  10.516  11.745  0.1691  2.5790 -0.4046
41500SOL    HW231359  11.186  10.464  11.886 -1.2482 -1.3179 -1.8735
41501SOL     OW31360   7.869   3.951   7.819 -0.0257  0.1335  0.0917
41501SOL    HW131361   7.946   4.006   7.806  0.3888 -0.1478  1.2626
41501SOL    HW231362   7.841   3.927   7.730  2.6728 -1.7597 -0.3658
41502SOL     OW31363   5.840  10.803  10.308 -1.0813 -0.1503 -0.0135
41502SOL    HW131364   5.796  10.883  10.280  0.1253  0.5282 -0.0422
41502SOL    HW231365   5.852  10.752  10.228 -0.5345  0.3213 -0.2396
41503SOL     OW31366   8.790  12.143   6.757  0.4975 -0.0906  0.4168
41503SOL    HW131367   8.829  12.220   6.716  0.4627 -0.6864 -0.7847
41503SOL    HW231368   8.696  12.153   6.743  0.3192  0.5654  1.9272
41504SOL     OW31369  11.566   1.166   1.088  0.1132  0.5998 -0.4894
41504SOL    HW131370  11.650   1.145   1.046 -0.5711  0.2361 -1.7077
41504SOL    HW231371  11.500   1.146   1.022 -0.9228  1.2688  0.3101
41505SOL     OW31372   3.201  10.705   5.270 -0.3756  0.0862  0.2599
41505SOL    HW131373   3.117  10.680   5.308 -0.2977 -0.6582 -0.0389
41505SOL    HW231374   3.194  10.799   5.254 -1.4938 -0.1302 -0.6213
41506SOL     OW31375  10.975   5.350   1.692 -0.0637  0.1662  0.2104
41506SOL    HW131376  10.963   5.445   1.696 -0.3022  0.1630 -0.2645
41506SOL    HW231377  10.907   5.315   1.750  1.0411  0.3331  1.6508
41507SOL     OW31378  10.739   7.864   0.627 -0.1654 -0.1067 -0.1446
41507SOL    HW131379  10.647   7.877   0.605 -0.1947 -2.4025 -1.8479
41507SOL    HW231380  10.752   7.910   0.710 -2.1905  2.3041 -1.0654
41508SOL     OW31381  11.014   7.245   7.733 -0.0776 -0.1269  0.4809
41508SOL    HW131382  10.967   7.282   7.807 -3.0182  0.5027 -1.5281
41508SOL    HW231383  11.026   7.153   7.755 -1.7377 -0.1574  1.3925
41509SOL     OW31384   6.529  10.900   9.690 -0.7725  0.1650  0.2343
41509SOL    HW131385   6.469  10.938   9.626 -0.8461 -2.7960 -1.6222
41509SOL    HW231386   6.482  10.824   9.725  1.5369 -1.8430 -0.7496
41510SOL     OW31387  12.491   6.836   2.422 -0.0213 -0.2764 -0.0649
41510SOL    HW131388  12.474   6.922   2.383 -0.2885  0.0719  0.8073
41510SOL    HW231389  12.488   6.851   2.516  0.6549 -1.1024  0.1043
41511SOL     OW31390   6.486   8.974   6.452 -0.2268  0.0751  0.2602
41511SOL    HW131391   6.392   8.960   6.466 -0.6112  1.8997 -0.2635
41511SOL    HW231392   6.518   9.005   6.536 -0.2607  0.2075  0.2253
41512SOL     OW31393   2.502   2.175  11.956 -0.2209  0.0553 -0.1642
41512SOL    HW131394   2.445   2.109  11.916 -0.4721 -1.6312  2.6688
41512SOL    HW231395   2.567   2.123  12.004  0.8939  1.9184  0.4232
41513SOL     OW31396  10.449  10.810   2.081  0.3777 -0.3318  0.4000
41513SOL    HW131397  10.431  10.904   2.088 -0.0040 -0.3816  0.1127
41513SOL    HW231398  10.399  10.771   2.153 -0.5123 -0.4472 -0.2671
41514SOL     OW31399   5.592   3.465  11.373 -0.4555 -0.1611  0.0845
41514SOL    HW131400   5.553   3.552  11.367  0.9128  0.4957  0.2573
41514SOL    HW231401   5.653   3.461  11.300  0.0327 -0.6923  0.5080
41515SOL     OW31402   7.507   0.306   3.705 -0.0044 -0.1719  0.1332
41515SOL    HW131403   7.566   0.251   3.756 -0.7752 -0.0465  1.1905
41515SOL    HW231404   7.461   0.245   3.648 -0.0894 -0.4920  0.5391
41516SOL     OW31405  10.166   3.852   3.400  0.2300 -0.2117 -0.0538
41516SOL    HW131406  10.153   3.898   3.317  1.6085  0.5398  0.1305
41516SOL    HW231407  10.156   3.759   3.377  1.6515 -0.0984 -1.3149
41517SOL     OW31408   1.234   4.217   8.697 -0.4803 -0.1279 -0.1279
41517SOL    HW131409   1.185   4.139   8.724  0.3921 -0.6805 -0.1234
41517SOL    HW231410   1.208   4.230   8.606 -0.9794 -0.1520  0.0078
41518SOL     OW31411   4.944   3.483   0.816 -0.2775  0.2865  0.3405
41518SOL    HW131412   5.004   3.473   0.890  0.7686  0.1418 -0.5129
41518SOL    HW231413   4.996   3.525   0.748 -0.9377 -0.4789 -0.6595
41519SOL     OW31414  10.185   4.931   6.436  0.3881  0.3749 -0.1194
41519SOL    HW131415  10.201   4.959   6.526  1.5311  0.5319 -0.3496
41519SOL    HW231416  10.129   4.854   6.444 -0.7770  1.2707  0.6399
41520SOL     OW31417   4.222   8.318  11.177  0.0069 -0.1033 -0.1807
41520SOL    HW131418   4.229   8.407  11.142  0.2201  0.7351  1.8642
41520SOL    HW231419   4.190   8.330  11.266 -0.0543 -2.1075  0.1092
41521SOL     OW31420   8.338   2.205   9.808  0.4703  0.2347 -0.0563
41521SOL    HW131421   8.286   2.214   9.888 -0.1998  0.4339 -0.5056
41521SOL    HW231422   8.416   2.259   9.824  0.3495  0.2597  0.4681
41522SOL     OW31423   3.301   4.989   3.326 -0.0148  0.2081 -0.0220
41522SOL    HW131424   3.383   4.966   3.369  0.9289  1.9716 -0.7930
41522SOL    HW231425   3.277   5.074   3.363 -2.8203 -1.2661  1.9498
41523SOL     OW31426   6.507   5.000   1.258 -0.1318  0.7344 -0.2593
41523SOL    HW131427   6.519   5.073   1.198  0.0018  0.1749 -0.9365
41523SOL    HW231428   6.512   4.922   1.201  2.5102  0.0313  0.7686
41524SOL     OW31429   4.560   5.746   7.831 -0.4569  0.5526 -0.3470
41524SOL    HW131430   4.474   5.705   7.839 -0.2115  0.2019  0.8198
41524SOL    HW231431   4.621   5.672   7.827 -0.2300  0.7919 -1.6926
41525SOL     OW31432  10.966   3.396   0.582  0.2839  0.6915  0.0133
41525SOL    HW131433  10.955   3.479   0.536  2.7727  1.5254  0.7529
41525SOL    HW231434  10.917   3.407   0.664 -0.1015  1.1052 -0.2704
41526SOL     OW31435  10.576   3.034   0.429  0.4011 -0.2203 -0.1058
41526SOL    HW131436  10.487   3.019   0.459  0.4075 -0.2103 -0.0811
41526SOL    HW231437  10.616   3.087   0.498  0.7014 -0.9866  0.3117
41527SOL     OW31438   8.684   5.857   2.079 -0.3524  0.5263 -0.4374
41527SOL    HW131439   8.731   5.931   2.116 -0.5716 -0.1666  1.3058
41527SOL    HW231440   8.729   5.840   1.996 -0.3310  2.6109 -0.9135
41528SOL     OW31441   5.594  10.612   2.154  0.4403 -0.3160 -0.0504
41528SOL    HW131442   5.536  10.616   2.078 -0.2108 -0.0433  0.4444
41528SOL    HW231443   5.557  10.542   2.208  1.3765 -1.0648 -0.3574
41529SOL     OW31444   4.559   8.360  11.205 -0.0200 -0.1777  0.3023
41529SOL    HW131445   4.512   8.320  11.131  2.0956 -0.7650 -0.8177
41529SOL    HW231446   4.547   8.298  11.277  1.2072 -1.6980 -0.7379
41530SOL     OW31447  11.436   3.419   8.454 -0.0445  0.6219  0.3614
41530SOL    HW131448  11.342   3.433   8.465 -0.1804  0.4298 -0.5388
41530SOL    HW231449  11.447   3.400   8.361  0.7472 -0.4335  0.6565
41531SOL     OW31450  11.679   7.411   1.057  0.1136  0.2151  0.3957
41531SOL    HW131451  11.593   7.371   1.053 -0.2835  1.1414 -1.3272
41531SOL    HW231452  11.739   7.342   1.027  0.0366 -0.5024  1.8163
41532SOL     OW31453   0.528   2.327   0.659 -0.3681 -0.6230  0.2985
41532SOL    HW131454   0.554   2.419   0.655  3.1341 -1.4908 -3.2421
41532SOL    HW231455   0.450   2.322   0.605  0.3119  0.1073 -0.7870
41533SOL     OW31456   9.246   1.266   0.229  0.6553  0.2220 -0.6426
41533SOL    HW131457   9.215   1.328   0.296 -1.9139 -0.5403 -1.0280
41533SOL    HW231458   9.324   1.227   0.268  0.0687  0.8459  1.3065
41534SOL     OW31459   6.009  10.487   5.096 -0.3015 -0.3226  0.0109
41534SOL    HW131460   6.006  10.391   5.087 -0.7299 -0.3028 -0.0731
41534SOL    HW231461   6.043  10.501   5.184  1.0628 -0.5371 -0.4446
41535SOL     OW31462   8.139  10.383  10.317  0.7928  1.0104 -0.2732
41535SOL    HW131463   8.114  10.469  10.282 -0.7096  1.3894  1.5483
41535SOL    HW231464   8.234  10.382  10.314  0.8313  2.6893 -0.4834
41536SOL     OW31465   3.619   0.167   7.083 -0.3390 -0.3169 -0.3890
41536SOL    HW131466   3.672   0.109   7.028 -0.3573  0.6350 -1.4381
41536SOL    HW231467   3.642   0.255   7.054 -0.9534  0.1846  0.5915
41537SOL     OW31468   8.237   4.065   5.585 -0.7682 -0.1375  0.4576
41537SOL    HW131469   8.322   4.029   5.611 -0.7603 -0.9221 -0.5585
41537SOL    HW231470   8.193   4.086   5.667  0.0050 -0.6931  1.0290
41538SOL     OW31471  11.776   5.853   7.951 -0.3262 -0.2713  0.2178
41538SOL    HW131472  11.832   5.845   8.028 -0.3167 -1.7285  0.0899
41538SOL    HW231473  11.765   5.947   7.939  0.3509 -0.0041  1.4994
41539SOL     OW31474   6.191   1.696   4.017 -0.5502  0.2955 -0.1117
41539SOL    HW131475   6.239   1.774   3.989  0.1069 -0.0015  0.1626
41539SOL    HW231476   6.255   1.647   4.069 -1.0084 -0.3437 -0.1502
41540SOL     OW31477   7.948   6.382  12.274 -0.2031  0.2038 -0.0242
41540SOL    HW131478   8.006   6.336  12.335 -1.8631 -1.2396  0.5479
41540SOL    HW231479   7.998   6.458  12.246  2.1571 -1.2046  0.0648
41541SOL     OW31480   5.233   3.219   2.797 -0.2200  0.0569  0.5326
41541SOL    HW131481   5.187   3.234   2.714  1.6363  0.9265 -0.3986
41541SOL    HW231482   5.302   3.156   2.776 -1.5232 -2.0497  2.1398
41542SOL     OW31483   4.295   3.801   4.269  0.2147 -0.0684  0.1426
41542SOL    HW131484   4.360   3.739   4.303  1.0786  0.4757 -0.4599
41542SOL    HW231485   4.212   3.771   4.305  0.3791 -2.3849 -1.1682
41543SOL     OW31486   1.057   2.365  10.574  0.2213  0.0825 -0.4486
41543SOL    HW131487   0.986   2.310  10.539  0.1101 -0.8628  1.1710
41543SOL    HW231488   1.136   2.331  10.532  0.5895 -3.3608  2.4801
41544SOL     OW31489  12.297   4.713   2.932  0.5379  0.2660  0.1205
41544SOL    HW131490  12.253   4.677   2.855 -1.7268 -1.3305  2.0339
41544SOL    HW231491  12.347   4.639   2.967 -0.0266  0.4014  1.2402
41545SOL     OW31492   7.342  11.288   0.342  0.3597  0.3795 -0.0031
41545SOL    HW131493   7.437  11.279   0.347  0.1887 -1.0788  1.5980
41545SOL    HW231494   7.313  11.292   0.433 -1.1092  1.1458 -0.4659
41546SOL     OW31495   3.126   3.162   7.005  0.4171 -0.3796  0.1206
41546SOL    HW131496   3.207   3.176   6.958 -0.6507  3.2989 -1.0080
41546SOL    HW231497   3.126   3.230   7.073 -1.6788 -0.2296  0.0464
41547SOL     OW31498   1.919   2.301   6.641 -0.2615 -0.5092  0.3326
41547SOL    HW131499   1.914   2.396   6.645  0.7860 -0.4354  0.2965
41547SOL    HW231500   1.862   2.270   6.711 -0.6027  0.1452  0.3455
41548SOL     OW31501   9.167   0.200  11.875 -0.1775  0.3448 -0.0448
41548SOL    HW131502   9.228   0.245  11.817 -0.7482  2.9145  1.2062
41548SOL    HW231503   9.088   0.255  11.874 -1.8279 -1.8869 -0.1773
41549SOL     OW31504   6.501   1.216   2.730  0.1718 -0.7003  0.1152
41549SOL    HW131505   6.463   1.294   2.691  1.1457 -0.0926  0.3458
41549SOL    HW231506   6.440   1.145   2.708 -1.3092  0.3098  0.8545
41550SOL     OW31507   8.896   6.692   1.295 -0.4253  0.3239 -0.7061
41550SOL    HW131508   8.839   6.768   1.283  0.0671  0.8001 -0.0508
41550SOL    HW231509   8.975   6.713   1.244  0.2520  0.8428  0.5199
41551SOL     OW31510   1.525   1.921   7.682 -0.0794  0.1273 -0.0901
41551SOL    HW131511   1.609   1.965   7.668  0.4489  0.2094  2.7965
41551SOL    HW231512   1.544   1.828   7.669  0.5226  0.1312  0.7133
41552SOL     OW31513   2.884  11.790   0.380 -0.6127  0.4060 -0.2654
41552SOL    HW131514   2.943  11.859   0.348  1.1767 -1.2060 -0.6344
41552SOL    HW231515   2.854  11.746   0.301 -0.7620  0.0032  0.0141
41553SOL     OW31516   7.215   8.864  12.292  0.1382 -0.0377  0.6518
41553SOL    HW131517   7.192   8.815  12.371  2.0222 -1.0872  0.5999
41553SOL    HW231518   7.150   8.934  12.287 -1.0724 -1.0007  2.1558
41554SOL     OW31519   8.551  10.689   5.697  0.0219 -0.5076  0.1537
41554SOL    HW131520   8.514  10.603   5.718 -2.0353  0.0269 -1.0855
41554SOL    HW231521   8.502  10.750   5.751 -0.5243  0.1624 -1.0692
41555SOL     OW31522   9.217  11.131   6.020  0.1087 -0.1756  0.4807
41555SOL    HW131523   9.127  11.101   6.013  0.3685 -1.6264  2.5523
41555SOL    HW231524   9.270  11.053   6.010  0.9219 -0.0710  3.1564
41556SOL     OW31525   4.173  10.766  12.479  0.3089 -0.3249  0.0210
41556SOL    HW131526   4.102  10.706  12.457 -1.5270  1.4311  0.8744
41556SOL    HW231527   4.219  10.723  12.552 -0.8537 -0.7701  0.5090
41557SOL     OW31528   6.832   8.111   4.063  0.5751 -0.0541  0.4941
41557SOL    HW131529   6.788   8.032   4.031  0.6772  0.0497  0.0960
41557SOL    HW231530   6.763   8.163   4.103  0.3109  0.1673 -0.2404
41558SOL     OW31531   3.899   0.928   1.852  0.4772  0.5920 -0.2195
41558SOL    HW131532   3.857   1.008   1.885 -0.6933 -0.1822  0.2129
41558SOL    HW231533   3.857   0.857   1.899  0.4268 -0.4052 -1.6923
41559SOL     OW31534   0.545   2.560   2.099  0.6183  0.1904 -0.4733
41559SOL    HW131535   0.484   2.506   2.049  0.5398 -1.7795  1.5837
41559SOL    HW231536   0.615   2.500   2.125  1.0935  1.3194  1.0152
41560SOL     OW31537   6.840   3.724  11.322  0.0484 -0.7025 -0.0832
41560SOL    HW131538   6.883   3.670  11.387 -0.7552 -1.1171  0.1191
41560SOL    HW231539   6.755   3.683  11.309 -0.0550 -0.2539 -0.9170
41561SOL     OW31540   0.740   2.619   6.110 -0.0196 -0.5943 -0.1424
41561SOL    HW131541   0.653   2.584   6.089 -0.5821 -0.0543  1.1721
41561SOL    HW231542   0.757   2.589   6.200  0.3761  0.7606  0.2623
41562SOL     OW31543   4.124  12.234   1.933  0.1873  0.6380 -0.0644
41562SOL    HW131544   4.219  12.245   1.938  0.3441 -0.3696 -0.6341
41562SOL    HW231545   4.103  12.251   1.841 -0.3074  1.7052  0.2368
41563SOL     OW31546   9.195  11.943   2.735  0.1612 -0.4294  0.3808
41563SOL    HW131547   9.182  11.884   2.661 -0.6333  0.3585 -0.1295
41563SOL    HW231548   9.123  11.923   2.796 -0.7494  0.7034 -0.2796
41564SOL     OW31549   4.684   9.337   1.937 -0.1336  0.2710  0.0253
41564SOL    HW131550   4.720   9.424   1.919 -1.2989  0.9285  0.7093
41564SOL    HW231551   4.590   9.352   1.950 -0.4361 -1.1660 -0.3112
41565SOL     OW31552   0.088  11.885   8.912  0.0488 -0.0223 -0.4078
41565SOL    HW131553   0.175  11.861   8.882 -0.5663 -2.7629 -0.2487
41565SOL    HW231554   0.100  11.907   9.005  0.4746 -1.2050 -0.1683
41566SOL     OW31555   2.307  11.855   7.801  0.6837 -0.0104  0.1824
41566SOL    HW131556   2.334  11.938   7.839  1.1687  0.1663 -0.5311
41566SOL    HW231557   2.308  11.793   7.875  3.1287 -0.0399  0.2222
41567SOL     OW31558   9.885   8.850   4.576 -0.2171  0.3646  0.5341
41567SOL    HW131559   9.825   8.821   4.508  0.1467 -1.7547  1.0558
41567SOL    HW231560   9.972   8.835   4.540 -0.0109  0.6471  0.9018
41568SOL     OW31561   6.473   5.599   7.319 -0.3086 -0.4085  0.0151
41568SOL    HW131562   6.478   5.600   7.415 -0.0959 -2.5762  0.0840
41568SOL    HW231563   6.557   5.563   7.291 -0.1059  0.8436 -1.0474
41569SOL     OW31564   6.045   3.517   6.959  0.0173  0.4451  0.1812
41569SOL    HW131565   6.080   3.447   7.014 -1.4025  0.3237  0.9882
41569SOL    HW231566   6.058   3.487   6.869  3.3652  1.1121  0.3158
41570SOL     OW31567   4.954   6.553   1.953 -0.4622 -0.1270  0.6261
41570SOL    HW131568   4.939   6.520   1.864  0.2565 -1.4332  0.9617
41570SOL    HW231569   4.868   6.553   1.994 -0.6717 -0.3206  0.1910
41571SOL     OW31570  10.943   6.808   4.752  0.1655  0.2809  0.0401
41571SOL    HW131571  10.952   6.904   4.753  0.9325  0.3000 -2.3420
41571SOL    HW231572  10.895   6.789   4.672  0.2892 -1.3576  0.3212
41572SOL     OW31573   6.860   7.743  11.804  0.2614  0.6559 -0.1181
41572SOL    HW131574   6.854   7.693  11.723 -0.9033 -1.5116  1.2061
41572SOL    HW231575   6.775   7.729  11.846  0.6526  2.1535  1.2453
41573SOL     OW31576   5.861   6.365  12.178 -0.2081 -0.0616 -0.2297
41573SOL    HW131577   5.918   6.371  12.255 -0.4787  0.0502 -0.0351
41573SOL    HW231578   5.782   6.413  12.203 -0.6638 -0.7807 -0.2449
41574SOL     OW31579   9.470  10.451  11.881 -0.4283 -0.3206 -0.1172
41574SOL    HW131580   9.468  10.520  11.947  0.1211 -0.3211 -0.0924
41574SOL    HW231581   9.384  10.453  11.841 -0.4683  0.2785 -0.0111
41575SOL     OW31582   4.190   8.348   2.398  0.0450 -0.0623 -0.3088
41575SOL    HW131583   4.224   8.429   2.359  1.2420 -0.2192  0.3690
41575SOL    HW231584   4.240   8.337   2.478 -1.6871 -0.2930  0.7841
41576SOL     OW31585   2.946   4.157  11.194  0.1735  0.3279  0.1005
41576SOL    HW131586   3.031   4.114  11.205  0.4735  0.5789 -1.0729
41576SOL    HW231587   2.952   4.237  11.247  1.0282  0.8110 -0.6907
41577SOL     OW31588   7.547   8.655   1.616 -0.8275 -0.1945 -0.3811
41577SOL    HW131589   7.622   8.634   1.560 -0.7997 -1.4686  0.0918
41577SOL    HW231590   7.539   8.578   1.673 -3.0553 -0.4966 -1.0231
41578SOL     OW31591   2.945   0.453   7.372 -0.9772 -0.2490  0.4425
41578SOL    HW131592   2.913   0.542   7.356  2.2621  0.8669 -0.5753
41578SOL    HW231593   2.891   0.398   7.315 -0.1025  1.7174 -2.5393
41579SOL     OW31594   3.500  11.739   7.709  0.6302 -0.4063 -0.1447
41579SOL    HW131595   3.467  11.826   7.683  1.2038  0.3166  1.4418
41579SOL    HW231596   3.594  11.751   7.719  0.7868 -1.3502 -0.3657
41580SOL     OW31597   9.647   4.100   5.717 -0.2546  0.6945 -0.6466
41580SOL    HW131598   9.713   4.135   5.657 -0.7603  0.4085 -1.3812
41580SOL    HW231599   9.656   4.005   5.710  0.8490  0.6304  1.0500
41581SOL     OW31600   7.891  10.973   3.270 -0.2185  0.1929  0.8476
41581SOL    HW131601   7.884  11.044   3.206 -0.3471  1.3231  2.0892
41581SOL    HW231602   7.927  10.900   3.219  0.3718  1.2688 -0.3582
41582SOL     OW31603   3.514  11.994   0.378  0.6407 -0.0061  0.0094
41582SOL    HW131604   3.573  11.968   0.449  0.8927  2.6554  0.8986
41582SOL    HW231605   3.520  11.923   0.315 -0.4299 -3.0820  3.0288
41583SOL     OW31606   4.654   3.337  11.161 -0.5745  0.3681  0.6433
41583SOL    HW131607   4.710   3.282  11.107  0.4669  0.9764  1.0730
41583SOL    HW231608   4.676   3.313  11.251  0.0971  1.6237  0.8479
41584SOL     OW31609   9.967  11.866   2.569  0.4075 -0.1462  0.1257
41584SOL    HW131610   9.995  11.951   2.535 -0.2786 -0.5067 -1.4016
41584SOL    HW231611  10.045  11.830   2.611  0.2287  2.0507  2.5917
41585SOL     OW31612  11.412   6.496   6.516  0.1844  0.1459 -0.0158
41585SOL    HW131613  11.439   6.581   6.551  2.2804 -0.6868  0.5395
41585SOL    HW231614  11.359   6.456   6.585  0.0741  0.5717  0.1451
41586SOL     OW31615   8.763   0.913  12.286  0.3076 -0.1599  0.0485
41586SOL    HW131616   8.681   0.955  12.258  0.1837 -0.4587 -0.0350
41586SOL    HW231617   8.832   0.969  12.249  0.1788 -1.4524 -2.3264
41587SOL     OW31618   5.197   4.035   5.933 -0.0714 -0.2856 -0.7197
41587SOL    HW131619   5.181   4.083   6.015  0.8149 -0.1720 -0.6075
41587SOL    HW231620   5.261   4.088   5.886  0.1839 -0.8722 -1.0389
41588SOL     OW31621  10.088   1.112   1.222  0.3002  0.5514 -0.2733
41588SOL    HW131622  10.120   1.079   1.139  0.1377 -0.4462  0.0481
41588SOL    HW231623  10.008   1.160   1.200  0.6185  0.8620 -0.7645
41589SOL     OW31624   1.297   7.060   3.436 -0.0360  0.2522  0.2355
41589SOL    HW131625   1.383   7.094   3.462 -0.3819  0.1022  1.6954
41589SOL    HW231626   1.310   6.966   3.424 -0.1638  0.0739  1.3661
41590SOL     OW31627   3.857   9.200   1.938 -0.2449 -0.0536 -0.6402
41590SOL    HW131628   3.874   9.114   1.977  0.5432  0.7463  0.8906
41590SOL    HW231629   3.943   9.242   1.935 -0.6633  0.7884 -1.0908
41591SOL     OW31630  10.194   0.567  10.948  0.4966 -0.4067  0.2118
41591SOL    HW131631  10.215   0.476  10.969  1.2025 -0.5225 -0.9315
41591SOL    HW231632  10.161   0.603  11.030 -0.1512 -1.7859  0.5935
41592SOL     OW31633  11.182   9.301   0.187  0.5183 -0.0492 -0.4254
41592SOL    HW131634  11.097   9.301   0.230  0.3185 -1.8373 -0.7275
41592SOL    HW231635  11.230   9.373   0.229 -0.9115  0.6033  0.1687
41593SOL     OW31636   3.186   0.311   6.561  0.1965  0.3020  0.0369
41593SOL    HW131637   3.227   0.387   6.521 -2.1237  1.5684 -0.1528
41593SOL    HW231638   3.159   0.256   6.487 -1.2988  1.1047 -0.0564
41594SOL     OW31639  11.596  10.583   4.731  0.4293  0.4263 -0.3148
41594SOL    HW131640  11.638  10.511   4.684  0.5911  0.7941 -0.7373
41594SOL    HW231641  11.589  10.552   4.821 -1.1108 -0.8329 -0.8231
41595SOL     OW31642   7.430   1.817   7.158  0.7866 -0.2092  0.0842
41595SOL    HW131643   7.439   1.763   7.237  1.4086  0.9933  0.8652
41595SOL    HW231644   7.484   1.894   7.176  0.8639  0.1310 -1.4900
41596SOL     OW31645   0.483   4.151   0.511 -0.2849 -0.7553  0.1010
41596SOL    HW131646   0.555   4.093   0.538 -1.3506 -0.8444  3.0102
41596SOL    HW231647   0.502   4.235   0.553 -0.2993  0.2242 -1.7121
41597SOL     OW31648   8.760   7.367  10.400 -0.4550 -0.5306  0.2685
41597SOL    HW131649   8.767   7.364  10.304 -0.4418 -1.2127  0.2848
41597SOL    HW231650   8.672   7.399  10.417  0.0845  1.1347  0.0388
41598SOL     OW31651  11.388  11.231   9.884  0.4116  0.0272  0.5065
41598SOL    HW131652  11.465  11.259   9.836 -0.0360  3.6254  1.5729
41598SOL    HW231653  11.314  11.264   9.832 -0.1098  2.6911  2.6908
41599SOL     OW31654   4.317  12.003  11.611  0.1133  0.1585  0.3683
41599SOL    HW131655   4.374  12.042  11.545  1.8925 -0.6245  1.3623
41599SOL    HW231656   4.307  12.071  11.677 -1.7603  0.9830 -0.6946
41600SOL     OW31657  11.707   0.942   2.508 -0.0174 -0.4307 -0.1643
41600SOL    HW131658  11.803   0.940   2.508 -0.0086 -0.4127 -1.3957
41600SOL    HW231659  11.684   1.025   2.466 -0.5853 -0.2650  0.4490
41601SOL     OW31660   5.581   2.989   0.317 -0.1607 -0.0980  0.4231
41601SOL    HW131661   5.672   3.013   0.333 -0.0817 -0.3236  0.3140
41601SOL    HW231662   5.579   2.958   0.227 -0.3815  0.0803  0.3667
41602SOL     OW31663   3.253  11.327   4.396 -0.8698 -0.0998 -0.0082
41602SOL    HW131664   3.176  11.295   4.348 -0.9685 -1.0701  0.7617
41602SOL    HW231665   3.305  11.248   4.411 -0.8760  0.1598  1.5251
41603SOL     OW31666   5.608   8.153   4.611 -0.2448  0.4347 -0.7122
41603SOL    HW131667   5.563   8.170   4.528 -0.0056 -1.0071 -1.1626
41603SOL    HW231668   5.667   8.080   4.592 -0.1889  0.0654  0.7360
41604SOL     OW31669   5.189   7.072   1.687  0.2935 -0.7768 -0.1775
41604SOL    HW131670   5.252   7.002   1.704  1.3314  0.4210  1.1732
41604SOL    HW231671   5.108   7.043   1.729  1.0958 -0.6096  1.5557
41605SOL     OW31672   5.412   6.194   2.138  0.3800  0.0089  0.2331
41605SOL    HW131673   5.503   6.211   2.164 -0.1009  0.8386  1.4358
41605SOL    HW231674   5.414   6.201   2.042  2.0832 -2.6199 -0.0225
41606SOL     OW31675   0.490   3.236   9.696 -0.0447  0.4186 -0.0129
41606SOL    HW131676   0.543   3.157   9.710 -0.5279  0.1024  0.0504
41606SOL    HW231677   0.554   3.306   9.688  0.3729  0.1194  0.5953
41607SOL     OW31678  12.391   6.613  12.029  0.4309 -0.6581  0.5800
41607SOL    HW131679  12.475   6.579  11.997  0.6416 -0.1120  0.5381
41607SOL    HW231680  12.385   6.701  11.992 -0.5998 -1.0250 -0.1880
41608SOL     OW31681   0.934  12.250   9.298 -0.4807  0.0138  0.3728
41608SOL    HW131682   0.944  12.321   9.234 -1.2777  1.2811  1.5951
41608SOL    HW231683   0.893  12.179   9.249  1.5656 -0.1462 -1.2158
41609SOL     OW31684  11.790   2.144   4.061  0.5824  0.1948 -0.1003
41609SOL    HW131685  11.812   2.229   4.100 -2.7990  0.0576  2.5726
41609SOL    HW231686  11.764   2.166   3.971  1.1570  1.7261  0.0642
41610SOL     OW31687   3.872   1.922   1.235 -0.0550  0.3913  0.5485
41610SOL    HW131688   3.889   2.000   1.183  2.9092 -1.2047 -1.2074
41610SOL    HW231689   3.850   1.954   1.322  1.3767  3.1958 -0.0203
41611SOL     OW31690   9.004  11.726   2.750  0.0135 -0.5456 -0.3209
41611SOL    HW131691   8.984  11.649   2.696 -0.6222 -0.0101 -0.8663
41611SOL    HW231692   9.037  11.689   2.832 -0.5009 -1.4065 -0.4811
41612SOL     OW31693   6.936   9.873   6.014  0.1540 -0.1769  0.3248
41612SOL    HW131694   6.862   9.906   5.962  1.1582  0.4662 -0.7565
41612SOL    HW231695   6.896   9.838   6.093 -1.3316 -0.0599 -0.3331
41613SOL     OW31696  10.232   8.571   6.702 -0.2158 -0.2047  0.1613
41613SOL    HW131697  10.314   8.535   6.670  0.0396  0.0302  0.5520
41613SOL    HW231698  10.257   8.645   6.756 -0.6718 -0.2492  0.4398
41614SOL     OW31699   7.532   8.926   2.522 -0.3109 -0.5460 -0.1669
41614SOL    HW131700   7.491   9.003   2.561 -1.5704 -0.9263 -0.6682
41614SOL    HW231701   7.606   8.906   2.579  0.8015  1.7272 -0.6856
41615SOL     OW31702   7.532   2.705   2.145  0.3819  0.1002 -0.1910
41615SOL    HW131703   7.491   2.695   2.059 -0.3162 -1.0353  0.2502
41615SOL    HW231704   7.585   2.626   2.155 -0.4961 -0.3831  0.8967
41616SOL     OW31705   4.653   2.205  11.595  0.4923 -0.2927 -0.1398
41616SOL    HW131706   4.695   2.289  11.576 -0.2666 -0.1690 -1.3609
41616SOL    HW231707   4.666   2.153  11.516 -0.5850 -0.6796 -0.0740
41617SOL     OW31708   8.653   3.729   5.936 -0.0431  0.0584  0.4793
41617SOL    HW131709   8.669   3.820   5.961 -0.1938  0.1180  0.3610
41617SOL    HW231710   8.663   3.679   6.017  1.2010  0.0307  0.3348
41618SOL     OW31711   1.250   9.712   4.296  0.1095  0.0741 -0.7826
41618SOL    HW131712   1.264   9.620   4.317  0.4044  0.4869  0.9687
41618SOL    HW231713   1.333   9.740   4.256  0.9788  0.1614  0.9667
41619SOL     OW31714   1.285   3.439   8.670  0.7337  0.2128 -0.3205
41619SOL    HW131715   1.346   3.461   8.599  0.7645  0.3194 -0.2608
41619SOL    HW231716   1.303   3.347   8.689 -0.5526 -0.3628 -1.7153
41620SOL     OW31717   9.105   1.934  12.417  0.0039  0.1574  0.0208
41620SOL    HW131718   9.146   2.007  12.463  0.0162  0.2069 -0.0690
41620SOL    HW231719   9.167   1.913  12.347  0.4581 -0.5600  0.6245
41621SOL     OW31720   7.480   6.908   3.844 -0.2167  0.3556  0.1995
41621SOL    HW131721   7.407   6.863   3.887  2.7795 -4.0782  1.3835
41621SOL    HW231722   7.458   6.906   3.751 -2.1569  0.4415  0.6133
41622SOL     OW31723   2.325  11.401   0.304  0.5478  0.0479  0.1358
41622SOL    HW131724   2.323  11.340   0.231  0.7362 -0.2382  0.3627
41622SOL    HW231725   2.235  11.433   0.313  0.8512  1.4274 -1.3223
41623SOL     OW31726  10.643   4.866  10.201 -0.6550 -0.1351 -0.2014
41623SOL    HW131727  10.552   4.864  10.172 -0.5486 -2.1880 -0.5451
41623SOL    HW231728  10.693   4.893  10.123 -0.7650 -1.5417 -0.7929
41624SOL     OW31729  11.818   8.961   6.791 -0.4964  0.3880  0.0103
41624SOL    HW131730  11.863   9.028   6.842 -2.0745 -0.2917  2.4468
41624SOL    HW231731  11.738   9.004   6.760 -0.1329  0.4309 -0.9119
41625SOL     OW31732   1.342   3.589   5.036 -0.0717  0.2199  0.2565
41625SOL    HW131733   1.369   3.499   5.020  1.5554  0.5412  0.9139
41625SOL    HW231734   1.281   3.584   5.109  0.9667 -0.2757  1.1212
41626SOL     OW31735   3.712   7.629   6.654 -0.1414  0.4153 -0.1342
41626SOL    HW131736   3.670   7.545   6.635 -1.0648  0.8790 -0.1918
41626SOL    HW231737   3.642   7.693   6.642  1.0901  1.4316 -2.3953
41627SOL     OW31738   8.845   1.438   5.975  0.8294 -0.0616 -0.4010
41627SOL    HW131739   8.824   1.420   5.883 -0.7553  2.9133 -0.7558
41627SOL    HW231740   8.931   1.480   5.972 -0.1223  1.9761 -0.8650
41628SOL     OW31741   3.155  10.096   1.738  0.1024 -0.2070 -0.4892
41628SOL    HW131742   3.079  10.046   1.768 -0.4384  1.2065  0.6180
41628SOL    HW231743   3.176  10.153   1.812  1.5070  0.2775 -1.2305
41629SOL     OW31744  11.770   1.171   9.768  0.5043 -0.6303  0.0222
41629SOL    HW131745  11.863   1.191   9.754 -0.1699  1.5018 -2.0892
41629SOL    HW231746  11.755   1.091   9.718  1.3634 -1.5127  1.1286
41630SOL     OW31747   1.973   9.551   4.060  0.1870 -0.2943  0.2515
41630SOL    HW131748   1.984   9.646   4.061 -1.0967 -0.0891 -1.2143
41630SOL    HW231749   1.878   9.538   4.068  0.3435 -1.4550  0.3297
41631SOL     OW31750   3.025   4.833   0.820  0.0885 -0.6010  0.3566
41631SOL    HW131751   2.996   4.770   0.753 -0.0899 -1.3035  1.0799
41631SOL    HW231752   3.120   4.827   0.819  0.0534 -1.2740  0.7866
41632SOL     OW31753   1.925   5.020   1.671  0.3134 -0.7979  0.0811
41632SOL    HW131754   1.965   5.102   1.698  1.6890 -0.5949 -2.2983
41632SOL    HW231755   1.831   5.037   1.677  0.5407  1.3079 -1.1954
41633SOL     OW31756   1.906   1.267   3.607  0.1053 -0.6317  0.2804
41633SOL    HW131757   1.836   1.330   3.621 -0.2291 -0.4041 -2.0426
41633SOL    HW231758   1.983   1.321   3.588  0.4856 -0.9090  0.9975
41634SOL     OW31759  12.383   9.219   0.050  0.4541  0.1729  0.5566
41634SOL    HW131760  12.394   9.225   0.145  3.4450  0.7598  0.2928
41634SOL    HW231761  12.430   9.295   0.015 -2.8446  1.5106 -1.3905
41635SOL     OW31762   9.903   3.204   5.199 -0.0587  0.1517 -0.6014
41635SOL    HW131763   9.899   3.136   5.132  0.0426 -1.0067  0.5307
41635SOL    HW231764   9.954   3.165   5.270 -0.5468  1.1651  0.3416
41636SOL     OW31765  11.331   4.613   6.492 -0.0598  0.4957  0.0079
41636SOL    HW131766  11.407   4.556   6.496 -0.0244  0.5047 -0.5684
41636SOL    HW231767  11.306   4.615   6.400 -0.7648  0.4864  0.1953
41637SOL     OW31768  12.034   7.540   1.466 -0.0163 -0.4450 -0.2251
41637SOL    HW131769  11.966   7.501   1.411  1.6016  0.4582 -3.0377
41637SOL    HW231770  12.029   7.633   1.448  0.5504 -0.1082  1.2364
41638SOL     OW31771   3.265   9.522   1.107 -0.2569  0.0717  0.4426
41638SOL    HW131772   3.214   9.600   1.129 -0.0963  0.1666  0.4766
41638SOL    HW231773   3.352   9.539   1.141 -0.3319 -0.3063  0.8346
41639SOL     OW31774   6.996   1.406   6.217  0.3143 -0.1800 -0.1730
41639SOL    HW131775   6.978   1.456   6.137  0.0973 -1.2511 -0.8129
41639SOL    HW231776   6.958   1.459   6.287 -0.8884  0.0265 -0.9567
41640SOL     OW31777  12.465   0.533  11.994 -0.5996  0.2701 -0.3719
41640SOL    HW131778  12.433   0.448  11.964 -1.7646  1.3889 -2.6489
41640SOL    HW231779  12.554   0.540  11.959 -1.4098  0.9362 -2.5077
41641SOL     OW31780   5.484   3.946   2.186 -0.6975 -0.2114  0.3705
41641SOL    HW131781   5.425   3.870   2.185 -2.9185  1.3880  0.0902
41641SOL    HW231782   5.493   3.970   2.093 -0.0299 -0.1359  0.4543
41642SOL     OW31783   0.702   9.544   7.148  0.3671  0.1257  0.2472
41642SOL    HW131784   0.782   9.542   7.096 -0.5165 -0.7118 -1.1677
41642SOL    HW231785   0.636   9.580   7.088 -0.4110  0.3760  1.2361
41643SOL     OW31786   9.968  12.332   8.478  0.3858 -0.9922  0.4223
41643SOL    HW131787   9.960  12.295   8.391  2.1946 -2.2223  0.7193
41643SOL    HW231788   9.918  12.273   8.535  0.8423 -1.3169  0.4880
41644SOL     OW31789   1.537   0.310   9.048  0.3427  0.0805  0.5456
41644SOL    HW131790   1.505   0.263   9.125  0.5510 -0.4601  0.3024
41644SOL    HW231791   1.549   0.243   8.981  1.7593  0.3002  0.5466
41645SOL     OW31792  11.054   8.545   9.347  0.6929  0.8372 -0.1353
41645SOL    HW131793  10.992   8.512   9.413 -2.6186 -0.0259 -3.3403
41645SOL    HW231794  11.122   8.477   9.342  0.5521  0.5134  1.6816
41646SOL     OW31795   1.220  11.291  11.978  0.4454 -0.3864  0.6329
41646SOL    HW131796   1.293  11.352  11.987  0.5506 -0.7430  2.7568
41646SOL    HW231797   1.153  11.340  11.931  0.5236  1.4106  2.2955
41647SOL     OW31798   0.941   1.937   4.719 -0.6134 -0.2498  0.1349
41647SOL    HW131799   0.876   1.891   4.667 -0.5156 -0.3476  0.0975
41647SOL    HW231800   0.932   1.901   4.807 -0.7515 -0.1131  0.1776
41648SOL     OW31801  12.325   2.843   9.146 -0.0878  0.1138 -0.4078
41648SOL    HW131802  12.386   2.909   9.178  0.3263  0.2616 -1.4543
41648SOL    HW231803  12.292   2.799   9.225  1.8945 -0.4449  0.1634
41649SOL     OW31804   1.493   3.370   3.312  0.3136 -0.2360 -0.0006
41649SOL    HW131805   1.502   3.374   3.407 -0.9419 -0.7486  0.1558
41649SOL    HW231806   1.400   3.353   3.297  0.6754 -1.2477 -1.2918
41650SOL     OW31807   5.422   8.313   8.068  0.3327  0.3617  0.2578
41650SOL    HW131808   5.351   8.366   8.104 -1.1221  1.4481 -3.6812
41650SOL    HW231809   5.385   8.224   8.063  0.3449  0.3201  0.9019
41651SOL     OW31810   2.370  12.195  10.193 -0.0445 -0.0545 -0.0505
41651SOL    HW131811   2.384  12.279  10.149 -1.3282  0.9986  1.4306
41651SOL    HW231812   2.313  12.146  10.134 -0.5814  0.7601 -0.2289
41652SOL     OW31813   9.803   3.088   7.629 -0.1637  0.2812 -0.7199
41652SOL    HW131814   9.872   3.114   7.568 -0.3415  0.6959 -0.7435
41652SOL    HW231815   9.747   3.165   7.637  0.9162  0.9082  1.4446
41653SOL     OW31816   8.776   6.994   0.784 -0.5302 -0.4381  0.1730
41653SOL    HW131817   8.737   7.019   0.700  0.9467  0.8660 -0.1718
41653SOL    HW231818   8.714   7.025   0.850 -0.1078  1.6570 -0.3503
41654SOL     OW31819   5.810   8.832  12.164 -0.2611 -0.0850  0.0494
41654SOL    HW131820   5.808   8.758  12.103 -1.9912 -0.8267  0.9399
41654SOL    HW231821   5.877   8.810  12.228  0.8540  0.2284 -0.9737
41655SOL     OW31822   7.493   8.246   4.596 -0.3197  0.1123  0.2017
41655SOL    HW131823   7.527   8.307   4.531  1.1326  0.2096  1.0020
41655SOL    HW231824   7.477   8.165   4.547  0.6541  0.2100 -0.3130
41656SOL     OW31825   3.581   6.774   4.919  0.1184  0.4965  0.1214
41656SOL    HW131826   3.489   6.794   4.904 -0.2441 -0.8221  0.4936
41656SOL    HW231827   3.627   6.823   4.850 -0.8381  1.2317 -0.0227
41657SOL     OW31828   8.947   3.389   1.958  0.2329 -0.3245  0.1194
41657SOL    HW131829   8.985   3.304   1.979 -0.2439 -0.1435  1.8485
41657SOL    HW231830   8.989   3.414   1.876  0.0409 -2.4214 -0.6849
41658SOL     OW31831  10.639   7.611  10.639  0.2957  0.1066 -0.0666
41658SOL    HW131832  10.730   7.584  10.629  1.1941  3.0362 -0.4423
41658SOL    HW231833  10.614   7.646  10.553 -0.5783  1.0505  0.5525
41659SOL     OW31834   4.853   0.101   3.054  0.3221 -0.2448  0.1104
41659SOL    HW131835   4.796   0.024   3.051 -0.2803  0.2187 -0.9377
41659SOL    HW231836   4.916   0.081   3.123  0.2804 -1.7462 -0.2372
41660SOL     OW31837   3.375   2.127  12.094 -0.2751 -0.2446  0.6994
41660SOL    HW131838   3.409   2.134  12.005  1.2508 -0.0306  1.2738
41660SOL    HW231839   3.318   2.050  12.092 -1.3213  0.5099 -0.7652
41661SOL     OW31840   4.556  10.612  12.026  0.6027 -0.1212 -0.1716
41661SOL    HW131841   4.592  10.524  12.021 -0.2089 -0.6112  1.8272
41661SOL    HW231842   4.612  10.657  12.089 -0.1405  0.1730  0.2964
41662SOL     OW31843   5.586   9.496   0.159 -0.8400 -0.3927  0.1660
41662SOL    HW131844   5.673   9.519   0.191 -1.5291  1.0223  1.0978
41662SOL    HW231845   5.559   9.423   0.214 -0.9955  0.3944  1.1571
41663SOL     OW31846   5.069   0.181   7.634 -0.1471 -0.1800 -0.0513
41663SOL    HW131847   5.124   0.251   7.670  0.5477 -0.1091 -1.1981
41663SOL    HW231848   5.123   0.102   7.641 -0.7611 -0.5467  0.8329
41664SOL     OW31849  12.373   2.282   3.555 -0.8628  0.3143  0.2011
41664SOL    HW131850  12.405   2.193   3.569 -2.0560 -0.0619  0.6204
41664SOL    HW231851  12.278   2.276   3.566 -1.0574  1.4699 -0.6406
41665SOL     OW31852   1.988   7.046  12.173 -0.3889 -0.1381  0.5649
41665SOL    HW131853   1.943   6.967  12.204 -1.5167 -0.5900 -1.9833
41665SOL    HW231854   2.056   7.013  12.114  1.0672  0.7361  1.6748
41666SOL     OW31855  10.681   3.332  11.979  0.1023 -0.1754  0.1042
41666SOL    HW131856  10.655   3.313  11.889 -1.5850 -0.7022  0.6745
41666SOL    HW231857  10.701   3.247  12.018 -0.0479 -0.0402  0.4884
41667SOL     OW31858  11.179  10.389   2.726  0.2515 -0.4649  0.1494
41667SOL    HW131859  11.274  10.386   2.723  0.3112  1.1749 -0.3888
41667SOL    HW231860  11.158  10.413   2.816  0.4321  0.7452 -0.1139
41668SOL     OW31861  12.071  11.456   2.847 -0.1023  0.1177 -0.2890
41668SOL    HW131862  12.063  11.376   2.900 -0.2716  0.5155  0.2896
41668SOL    HW231863  12.018  11.521   2.893  1.0857  0.9409 -0.0300
41669SOL     OW31864   4.509   2.694   1.038  0.4057 -0.1037  0.6965
41669SOL    HW131865   4.539   2.687   1.129  0.4218 -0.1201  0.6898
41669SOL    HW231866   4.414   2.704   1.045  0.2524 -1.4064  0.6649
41670SOL     OW31867   1.909   6.066   1.302 -0.0443  1.1537 -0.0010
41670SOL    HW131868   1.971   6.054   1.231 -0.2694  1.6962 -0.2953
41670SOL    HW231869   1.868   6.151   1.285 -1.1548  0.6358 -0.0436
41671SOL     OW31870  11.907   4.398  12.303  0.0059 -0.0630 -0.2962
41671SOL    HW131871  11.921   4.349  12.384  0.3731  0.7691  0.1647
41671SOL    HW231872  11.962   4.353  12.238 -2.0659 -2.1498 -0.7132
41672SOL     OW31873   9.172  10.564   3.788 -0.0728 -0.4253  0.5294
41672SOL    HW131874   9.244  10.555   3.850  1.6120  0.3200 -1.2290
41672SOL    HW231875   9.163  10.478   3.748  2.2010  0.2524 -1.6490
41673SOL     OW31876   2.862   0.461   2.637 -0.1257 -0.0356 -0.1147
41673SOL    HW131877   2.875   0.367   2.652 -0.8521  0.0635  1.2739
41673SOL    HW231878   2.782   0.482   2.684 -0.3948  1.1508 -1.0359
41674SOL     OW31879   3.566  11.185  10.836  0.1579  0.1973 -0.3282
41674SOL    HW131880   3.602  11.101  10.808  1.5328  0.3805  0.7899
41674SOL    HW231881   3.579  11.187  10.931 -0.6180  1.3314 -0.2199
41675SOL     OW31882  12.178   9.160  10.584 -0.4644  0.4579 -0.2780
41675SOL    HW131883  12.243   9.178  10.652 -1.0463 -1.8641  0.9925
41675SOL    HW231884  12.222   9.101  10.523 -0.3718  1.5061 -1.2817
41676SOL     OW31885  11.077   9.306  12.514 -0.3638  0.2056  0.0098
41676SOL    HW131886  11.145   9.312  12.581 -0.6649  1.3368  0.2380
41676SOL    HW231887  10.998   9.280  12.562 -0.6087  1.1382  0.1357
41677SOL     OW31888   9.460   9.171  11.189  0.0274  0.1952  0.2322
41677SOL    HW131889   9.423   9.189  11.103 -0.2770  1.9281  0.6749
41677SOL    HW231890   9.438   9.080  11.207 -0.4004 -0.0189 -1.2618
41678SOL     OW31891  11.285   3.398  12.026  0.4737 -0.1409 -0.3460
41678SOL    HW131892  11.353   3.332  12.041  0.9383  0.5177  0.5255
41678SOL    HW231893  11.254   3.380  11.937 -0.0696 -2.1046  0.1958
41679SOL     OW31894   8.363   3.703   5.433 -0.0167  0.1603  0.4371
41679SOL    HW131895   8.302   3.739   5.498 -0.5079  1.0145 -0.4848
41679SOL    HW231896   8.341   3.610   5.429 -0.1515  0.1450  1.3002
41680SOL     OW31897   5.945  10.566   3.368 -0.2274  0.4430  0.2068
41680SOL    HW131898   6.033  10.596   3.346  0.0606  0.4614  1.2907
41680SOL    HW231899   5.955  10.473   3.389 -0.4795  0.4172  0.2225
41681SOL     OW31900   8.692   5.107   8.638 -0.1700 -0.1330  0.4381
41681SOL    HW131901   8.688   5.013   8.622  0.5278  0.0933 -1.2539
41681SOL    HW231902   8.675   5.147   8.553 -2.1796  1.3428  1.4370
41682SOL     OW31903   6.649   6.968  11.554 -0.0952 -0.1446  0.1983
41682SOL    HW131904   6.599   7.044  11.525 -0.2917 -0.6851 -0.9285
41682SOL    HW231905   6.724   7.004  11.601  0.1152  0.7496 -0.8112
41683SOL     OW31906   3.871  11.030  12.319  0.1342  0.0013 -0.2893
41683SOL    HW131907   3.896  10.974  12.245 -2.0041 -1.1458 -0.2000
41683SOL    HW231908   3.804  11.088  12.284  1.3566  1.6477 -0.0176
41684SOL     OW31909   1.976  10.558   2.495 -0.1512  0.0648  0.0135
41684SOL    HW131910   1.942  10.474   2.528  1.3499 -0.5950 -0.0490
41684SOL    HW231911   1.897  10.609   2.476 -1.0979 -1.0665  0.7149
41685SOL     OW31912   7.638  11.567   2.520 -0.1872  0.0568 -0.6116
41685SOL    HW131913   7.698  11.493   2.510 -1.4284 -1.6104  2.8972
41685SOL    HW231914   7.551  11.528   2.518 -0.9497  1.6551 -0.0808
41686SOL     OW31915   5.276   6.655   4.359  0.3320  0.6232 -0.1033
41686SOL    HW131916   5.252   6.626   4.447 -2.6232 -0.1349 -1.0184
41686SOL    HW231917   5.241   6.743   4.353 -1.3164 -0.0467 -1.0872
41687SOL     OW31918   7.173   0.927   3.568  0.3550  0.8535 -0.1891
41687SOL    HW131919   7.178   0.834   3.591  1.4944  0.4721 -1.7945
41687SOL    HW231920   7.091   0.934   3.518  0.6403  0.5337 -0.7157
41688SOL     OW31921   3.980   6.795   7.751  0.0844 -0.0992  0.5686
41688SOL    HW131922   4.054   6.736   7.767  0.8208  0.3669 -0.9103
41688SOL    HW231923   4.018   6.883   7.753 -0.2538  0.1133 -0.9072
41689SOL     OW31924   2.147   7.502   7.565  0.4738  0.2123 -0.4688
41689SOL    HW131925   2.237   7.509   7.534  1.7436 -3.0707  1.8958
41689SOL    HW231926   2.155   7.504   7.661 -1.6431 -2.0997 -0.1457
41690SOL     OW31927   4.372   8.119  12.135 -0.1977  0.0211 -0.4683
41690SOL    HW131928   4.420   8.062  12.195 -1.7721 -1.6740 -0.7273
41690SOL    HW231929   4.440   8.169  12.090  1.5127 -3.0454 -1.6428
41691SOL     OW31930   6.423   9.492   6.075  0.1724  0.4061  0.0732
41691SOL    HW131931   6.386   9.439   6.145  0.3286  1.8692  1.3282
41691SOL    HW231932   6.356   9.493   6.006 -0.8659  0.6184  1.0694
41692SOL     OW31933  11.235   0.589  11.567  0.1789  0.2259 -0.0312
41692SOL    HW131934  11.200   0.665  11.520 -0.7452 -0.7783 -1.0218
41692SOL    HW231935  11.281   0.539  11.499  0.4109 -0.3165  0.5238
41693SOL     OW31936  10.403   9.721   8.318  0.2084  0.2449 -0.0150
41693SOL    HW131937  10.349   9.742   8.394 -0.3125 -0.6811 -0.1262
41693SOL    HW231938  10.458   9.648   8.346  1.5574  1.2823  0.1583
41694SOL     OW31939   8.093  11.830   6.795  0.0234  0.2345 -0.3283
41694SOL    HW131940   8.089  11.855   6.887  1.7826  2.0276 -0.6725
41694SOL    HW231941   8.152  11.755   6.793  1.0691  1.0177 -0.0902
41695SOL     OW31942   0.263   3.609   9.453  0.2467 -0.5833  0.3338
41695SOL    HW131943   0.204   3.683   9.442  2.6838  1.3572 -0.4893
41695SOL    HW231944   0.252   3.583   9.545 -1.2117  0.2739  0.4268
41696SOL     OW31945   2.446   2.927   0.175  0.3229  0.5433  0.1005
41696SOL    HW131946   2.449   2.841   0.216  0.1552  0.8195  0.7032
41696SOL    HW231947   2.361   2.963   0.200  0.2153  0.7161 -0.4974
41697SOL     OW31948  11.003   2.556   2.235  0.5684 -0.0983 -0.3126
41697SOL    HW131949  10.981   2.649   2.225  0.0673 -0.4276 -3.0127
41697SOL    HW231950  11.031   2.548   2.326 -0.9545  2.3657  0.4754
41698SOL     OW31951   6.898   9.305   0.501  0.3815  0.0036 -0.0245
41698SOL    HW131952   6.852   9.270   0.425  2.9176 -2.1461 -0.7254
41698SOL    HW231953   6.948   9.231   0.536  0.2424  1.2008  3.0762
41699SOL     OW31954   8.749   8.735   7.049  0.2122 -0.0930 -0.0424
41699SOL    HW131955   8.784   8.725   7.138 -0.3235 -1.1373  0.0714
41699SOL    HW231956   8.688   8.662   7.040  0.2674  0.0005 -1.2716
41700SOL     OW31957   9.624  11.420   4.357  0.1139  0.3951 -0.5091
41700SOL    HW131958   9.665  11.353   4.411  0.3126 -0.4706 -1.6952
41700SOL    HW231959   9.663  11.408   4.270  0.3630  2.2231 -0.7006
41701SOL     OW31960   9.729   4.875  11.952  0.2573  0.3839 -0.3269
41701SOL    HW131961   9.809   4.912  11.916  0.4921 -0.0215 -0.2258
41701SOL    HW231962   9.666   4.880  11.880  0.0400  1.7223 -0.0701
41702SOL     OW31963  10.198   6.637  11.705 -0.3950 -0.4163 -0.1135
41702SOL    HW131964  10.224   6.545  11.714  1.3193 -0.3926 -3.4896
41702SOL    HW231965  10.274   6.687  11.734 -0.8332 -0.0553  0.4444
41703SOL     OW31966  11.310   8.116   7.980 -1.0054 -0.5383 -0.1330
41703SOL    HW131967  11.373   8.061   8.027 -1.4731  0.5328  1.8712
41703SOL    HW231968  11.364   8.169   7.922  0.0272  0.4637  1.6488
41704SOL     OW31969   9.480   6.777   1.431  0.0446 -0.0303  0.2197
41704SOL    HW131970   9.573   6.756   1.423 -0.4627 -2.5772  0.0382
41704SOL    HW231971   9.465   6.848   1.369  2.0305  1.1236  0.9921
41705SOL     OW31972  11.122   9.704   2.678 -0.3549  0.5958 -0.0443
41705SOL    HW131973  11.166   9.786   2.654 -0.7783  1.0736  0.7679
41705SOL    HW231974  11.171   9.636   2.631  0.2420  1.2709 -0.4258
41706SOL     OW31975   4.975   0.254   4.338 -0.5789 -0.3497  0.1634
41706SOL    HW131976   4.965   0.281   4.247 -0.2214  1.0545  0.5215
41706SOL    HW231977   4.888   0.226   4.365 -0.7948 -0.2866 -0.4614
41707SOL     OW31978   4.667   3.102   0.765  0.1355  0.0727  0.0180
41707SOL    HW131979   4.657   3.022   0.817  0.6715  0.5874  0.9423
41707SOL    HW231980   4.578   3.125   0.739  0.0278 -1.0886 -0.6736
41708SOL     OW31981   0.135   4.064  10.181  0.2723  0.3669 -0.7261
41708SOL    HW131982   0.070   4.057  10.251 -0.1919  1.2287 -1.0554
41708SOL    HW231983   0.213   4.023  10.217  0.1620  1.1521  0.4666
41709SOL     OW31984   9.225   6.710   4.033  0.0860  0.1927 -0.1148
41709SOL    HW131985   9.219   6.801   4.004  1.3249 -0.5114 -2.8543
41709SOL    HW231986   9.312   6.702   4.071 -0.3732  0.3392  1.0114
41710SOL     OW31987  11.546   9.404  10.076 -0.1049  0.5133 -0.5444
41710SOL    HW131988  11.497   9.321  10.079 -1.1596  1.1324 -0.0794
41710SOL    HW231989  11.638   9.378  10.081 -0.4645 -0.5554  1.5142
41711SOL     OW31990   7.701  11.519   2.180  0.1592 -0.3941 -0.4118
41711SOL    HW131991   7.652  11.439   2.162 -0.6996  0.0326 -0.0861
41711SOL    HW231992   7.717  11.516   2.275  0.3830 -0.3255 -0.4476
41712SOL     OW31993   1.956   7.672   0.393 -0.5406  0.1449  0.1012
41712SOL    HW131994   1.956   7.745   0.454 -1.2200 -0.0679  0.3636
41712SOL    HW231995   1.864   7.661   0.368 -0.1747  0.8514 -1.7229
41713SOL     OW31996  12.169   6.279   0.287  0.6530 -0.6028 -0.3545
41713SOL    HW131997  12.210   6.340   0.348 -0.5982 -0.9847  0.9144
41713SOL    HW231998  12.082   6.315   0.271 -0.5917 -2.5878  1.3849
41714SOL     OW31999  11.612  12.264   1.982 -0.2901 -0.5589  0.1931
41714SOL    HW132000  11.560  12.183   1.976 -2.3410  0.4140  2.9832
41714SOL    HW232001  11.548  12.333   1.998  1.5621  1.4318 -0.4207
41715SOL     OW32002  12.029   5.366   0.074 -0.3643 -0.3373 -0.1060
41715SOL    HW132003  11.992   5.291   0.027 -1.2023 -0.2215  0.3460
41715SOL    HW232004  12.015   5.440   0.015  1.6712 -0.7146 -1.1443
41716SOL     OW32005   2.125   6.823   9.161  0.2345 -0.3201 -0.3888
41716SOL    HW132006   2.054   6.783   9.110 -0.2827 -2.1411  1.6377
41716SOL    HW232007   2.096   6.913   9.176 -1.8576 -1.1004  0.6357
41717SOL     OW32008   9.907   4.447  11.895  0.3154  0.5595  0.2466
41717SOL    HW132009   9.898   4.422  11.988 -1.4213 -0.9971 -0.2708
41717SOL    HW232010   9.912   4.363  11.849 -2.7313  1.1221 -1.3653
41718SOL     OW32011   0.593   5.922   0.120  0.0418  0.0205 -0.1847
41718SOL    HW132012   0.529   5.859   0.153  0.9918 -0.0678  1.6535
41718SOL    HW232013   0.620   5.887   0.035 -0.4862 -1.2990  0.1580
41719SOL     OW32014   3.691  10.455   5.341  0.2434  0.1213  0.2505
41719SOL    HW132015   3.659  10.452   5.432  0.4426 -1.5026  0.2984
41719SOL    HW232016   3.618  10.493   5.292 -0.8156 -1.1466  0.7552
41720SOL     OW32017   7.497   8.277   0.386 -0.5797 -0.2618  0.1965
41720SOL    HW132018   7.450   8.243   0.462  0.6330  0.3159  1.2584
41720SOL    HW232019   7.488   8.372   0.392  1.5087 -0.0395  1.0661
41721SOL     OW32020   5.316   2.019   9.688 -0.6069 -0.7074 -0.1769
41721SOL    HW132021   5.267   2.098   9.666 -1.7649 -0.7336  2.0171
41721SOL    HW232022   5.290   1.955   9.621 -2.5265 -0.2860  0.1052
41722SOL     OW32023   8.909   7.287  12.020 -0.7317 -0.3400  0.1337
41722SOL    HW132024   8.817   7.310  12.033 -0.3861  0.5581  1.1003
41722SOL    HW232025   8.918   7.200  12.060 -1.2914 -0.7229 -0.5441
41723SOL     OW32026   2.255  11.638   3.095 -0.5338  0.7027 -0.3670
41723SOL    HW132027   2.314  11.609   3.025 -0.8014  0.1748 -0.3785
41723SOL    HW232028   2.225  11.725   3.067  1.0404  1.4436  0.1364
41724SOL     OW32029   5.781  10.985   2.037 -0.3253 -0.5725 -0.1553
41724SOL    HW132030   5.708  10.972   2.097  0.1337  0.2848  0.6116
41724SOL    HW232031   5.743  10.971   1.950 -1.2490 -0.7699  0.2691
41725SOL     OW32032   2.691   0.758   7.615  0.2445  0.6678  0.2036
41725SOL    HW132033   2.659   0.832   7.667  1.9176  0.3666  1.7278
41725SOL    HW232034   2.734   0.701   7.678  0.3141 -0.8866 -1.1857
41726SOL     OW32035   3.603  11.126  11.114  0.3490 -0.2976 -0.4283
41726SOL    HW132036   3.517  11.094  11.140  0.1527  1.1796  0.9248
41726SOL    HW232037   3.657  11.114  11.192  1.1721 -0.4886 -1.0143
41727SOL     OW32038   3.109   0.569   1.942 -0.5861  0.4649 -0.2190
41727SOL    HW132039   3.157   0.488   1.956 -1.1196  0.1000 -0.4780
41727SOL    HW232040   3.177   0.634   1.924 -0.2097 -0.7154 -4.0520
41728SOL     OW32041   3.908   7.986   2.495  0.5387  0.1386 -0.3258
41728SOL    HW132042   3.820   7.997   2.460 -0.2439  0.3314  1.5749
41728SOL    HW232043   3.960   8.052   2.449 -1.5262  4.0268  2.3572
41729SOL     OW32044   8.486  12.171   1.408 -0.0709 -0.3510 -0.2011
41729SOL    HW132045   8.414  12.173   1.471 -0.6000 -3.0064 -0.6176
41729SOL    HW232046   8.445  12.142   1.326  1.2014 -0.2081 -0.9051
41730SOL     OW32047   5.255   4.492  10.076  0.5610  0.5940 -0.0900
41730SOL    HW132048   5.335   4.493  10.024  0.4765 -0.2899 -0.2591
41730SOL    HW232049   5.280   4.528  10.161  1.4946 -0.9519  0.3318
41731SOL     OW32050   2.943   0.113   5.894 -0.3006  0.0413 -0.3602
41731SOL    HW132051   2.881   0.059   5.844 -0.9066  0.8996 -0.5451
41731SOL    HW232052   2.932   0.201   5.859  1.3224  0.1558 -0.6756
41732SOL     OW32053   6.307   9.923  10.848  0.0919 -0.3482  0.0882
41732SOL    HW132054   6.236   9.917  10.911 -0.2735 -0.2767 -0.3091
41732SOL    HW232055   6.386   9.931  10.901 -0.1841 -0.5477  0.5341
41733SOL     OW32056   7.129   3.825  11.528  0.6139  0.5269 -0.4866
41733SOL    HW132057   7.091   3.738  11.516 -1.0019  1.2899 -1.3040
41733SOL    HW232058   7.149   3.854  11.439  0.8242  1.1225 -0.2460
41734SOL     OW32059   3.994  11.123   4.852  0.1946 -0.0075  0.6486
41734SOL    HW132060   3.919  11.182   4.849 -0.2575 -0.5985 -0.3567
41734SOL    HW232061   3.965  11.045   4.804  1.4428 -0.2471  0.2433
41735SOL     OW32062   2.978   4.437  11.451  0.6220 -0.3823  0.4870
41735SOL    HW132063   2.909   4.500  11.474 -0.7992 -2.2369  1.5420
41735SOL    HW232064   2.967   4.423  11.357  1.4561  1.4444  0.0665
41736SOL     OW32065   6.279   9.313   7.580 -0.0885 -0.4500 -0.1674
41736SOL    HW132066   6.332   9.303   7.501 -0.8220  0.1923 -0.7571
41736SOL    HW232067   6.308   9.242   7.637  0.0951 -1.2407 -1.2142
41737SOL     OW32068   4.192   8.656   0.824 -0.7077 -0.2406  0.1349
41737SOL    HW132069   4.160   8.737   0.865 -0.9789  0.1662 -0.8601
41737SOL    HW232070   4.128   8.638   0.755  1.3822  0.8380 -2.2305
41738SOL     OW32071   2.436   5.427   5.650 -0.1308  0.6472 -0.0949
41738SOL    HW132072   2.480   5.343   5.638 -0.0542  0.6167  0.3872
41738SOL    HW232073   2.493   5.489   5.604  0.2908  0.5696  0.3147
41739SOL     OW32074   3.692   1.033   3.368 -0.5020 -0.0128  0.4159
41739SOL    HW132075   3.652   0.946   3.358 -0.3555 -0.0723  0.3527
41739SOL    HW232076   3.619   1.093   3.353 -0.4894 -0.1175 -0.0946
41740SOL     OW32077  11.865   3.585  10.663  0.5324 -0.4055  0.2011
41740SOL    HW132078  11.849   3.644  10.737  2.2738  0.7042 -0.2487
41740SOL    HW232079  11.798   3.610  10.599  1.5724  1.5682 -0.2082
41741SOL     OW32080  10.875   0.555   2.673  0.2223 -0.0995  0.0937
41741SOL    HW132081  10.804   0.563   2.609  0.6523  1.0385 -0.2596
41741SOL    HW232082  10.955   0.550   2.621  0.6931  2.1139  0.5143
41742SOL     OW32083   6.005   8.415  11.459  0.0790 -0.5380  0.1850
41742SOL    HW132084   6.038   8.326  11.456 -0.1298 -0.5925 -2.6956
41742SOL    HW232085   6.083   8.470  11.467  0.1692 -0.9007  2.7548
41743SOL     OW32086   5.547  10.315   6.989  0.0226  0.1694 -0.3021
41743SOL    HW132087   5.567  10.224   7.014 -0.9412 -0.4919 -1.8297
41743SOL    HW232088   5.458  10.312   6.955 -0.1261  1.7607 -0.1328
41744SOL     OW32089   6.326   3.947  10.583 -0.0149 -0.1232 -0.3151
41744SOL    HW132090   6.373   3.980  10.507 -1.7131  3.3463 -0.0359
41744SOL    HW232091   6.271   3.876  10.549  0.8045 -0.0670 -1.8270
41745SOL     OW32092   0.247   5.601   6.664  0.4205 -0.1138  0.7452
41745SOL    HW132093   0.252   5.694   6.641  1.4722 -0.2871  0.2238
41745SOL    HW232094   0.217   5.559   6.583  3.2387 -0.6154 -0.1509
41746SOL     OW32095   9.359   9.020   8.210 -0.0890  0.1223  0.2091
41746SOL    HW132096   9.401   8.981   8.287 -0.9252 -0.1145  0.5586
41746SOL    HW232097   9.349   9.112   8.232 -0.8915 -0.0655  0.6414
41747SOL     OW32098  11.627  10.263   2.353 -0.1951 -0.2908  0.0260
41747SOL    HW132099  11.536  10.233   2.353 -0.6041  0.6888 -2.5204
41747SOL    HW232100  11.666  10.222   2.276  0.4763  2.0274 -0.9686
41748SOL     OW32101   8.192   8.669  10.168  0.1956  0.0480  0.3690
41748SOL    HW132102   8.154   8.756  10.157  0.3639  0.1691  0.7042
41748SOL    HW232103   8.204   8.636  10.079 -0.7188 -0.0109  0.2628
41749SOL     OW32104   7.198   9.985   1.473 -0.4422 -0.5415 -0.6099
41749SOL    HW132105   7.115   9.948   1.504 -0.9361  0.1110 -1.1160
41749SOL    HW232106   7.183  10.079   1.472 -0.3286 -0.5013 -2.4240
41750SOL     OW32107   4.436  12.533   9.717  0.6104  0.5204  0.3135
41750SOL    HW132108   4.420  12.591   9.643 -3.1485  0.2608  0.7391
41750SOL    HW232109   4.449  12.592   9.792  1.0623  0.7687  0.0466
41751SOL     OW32110   5.817   8.110   3.632  0.0473  0.0448  0.3748
41751SOL    HW132111   5.844   8.142   3.546 -0.6262  2.1878  0.9066
41751SOL    HW232112   5.892   8.060   3.664  1.6734  2.0803 -0.0595
41752SOL     OW32113   6.566   3.285   6.799 -0.2405  0.0960  0.2145
41752SOL    HW132114   6.476   3.252   6.795  0.1248 -0.8316 -0.4330
41752SOL    HW232115   6.556   3.379   6.817 -1.3285 -0.0392  0.3666
41753SOL     OW32116   6.550   0.542   5.332 -0.4589 -0.4972  0.1309
41753SOL    HW132117   6.502   0.578   5.407 -0.2333 -0.5466  0.3009
41753SOL    HW232118   6.641   0.539   5.362 -0.7247 -3.0964  0.8801
41754SOL     OW32119   7.348   3.589   2.351  0.3387  0.0546  0.5665
41754SOL    HW132120   7.257   3.621   2.355  0.5623  0.5843  1.9764
41754SOL    HW232121   7.372   3.574   2.443  1.5428 -0.4943  0.1796
41755SOL     OW32122   1.737   7.493   0.067  0.6820  0.0014 -0.3161
41755SOL    HW132123   1.747   7.551  -0.008 -0.4348 -1.3008 -1.5369
41755SOL    HW232124   1.701   7.412   0.030 -2.2838  0.1220  1.8832
41756SOL     OW32125   3.720  12.384   7.401 -0.5144 -0.0809 -0.1215
41756SOL    HW132126   3.701  12.475   7.377  1.2464  0.6832  1.1444
41756SOL    HW232127   3.779  12.353   7.333 -1.3257 -0.4021 -0.7004
41757SOL     OW32128  10.188   8.533   7.476 -0.2940  0.1586 -0.4336
41757SOL    HW132129  10.138   8.602   7.518 -0.3283  0.3349 -0.7564
41757SOL    HW232130  10.217   8.572   7.393 -0.9559 -0.4627 -0.9678
41758SOL     OW32131   5.066   8.872   7.034  0.0631 -0.1412 -0.2731
41758SOL    HW132132   4.979   8.878   7.074  0.9315 -0.2118  1.7287
41758SOL    HW232133   5.106   8.957   7.052  0.4358 -0.1314 -1.1362
41759SOL     OW32134   4.394   9.941  10.294 -1.0553  0.2838 -0.1146
41759SOL    HW132135   4.439   9.861  10.319 -1.2879  0.3772  0.5994
41759SOL    HW232136   4.303   9.927  10.319 -0.9299  1.1269  0.8774
41760SOL     OW32137   5.887   6.289   9.197 -0.5381 -0.0439  0.0198
41760SOL    HW132138   5.803   6.294   9.152  0.5234  0.9367 -1.9778
41760SOL    HW232139   5.872   6.229   9.270 -2.9412  0.0799 -0.3109
41761SOL     OW32140   7.045   6.728   0.521 -0.2603  0.0493  0.0650
41761SOL    HW132141   7.140   6.728   0.526 -0.1500 -3.0740 -0.3140
41761SOL    HW232142   7.016   6.698   0.607 -0.9354  0.7978  0.1152
41762SOL     OW32143  10.913  11.858  12.408  0.2305  0.4006  0.3109
41762SOL    HW132144  10.829  11.893  12.379 -0.3313 -0.6816  0.5766
41762SOL    HW232145  10.961  11.842  12.327 -0.7601 -1.2238  0.0067
41763SOL     OW32146  11.573   1.590   8.888  0.2204 -0.1136  0.6027
41763SOL    HW132147  11.539   1.631   8.967 -0.0598  0.2527  0.2910
41763SOL    HW232148  11.495   1.565   8.838  0.4038  0.6605 -0.0752
41764SOL     OW32149  10.799   9.023   3.121  0.1851  0.2078 -0.6666
41764SOL    HW132150  10.785   8.952   3.059 -1.1565 -0.6124  0.5277
41764SOL    HW232151  10.822   9.098   3.066  0.6422 -0.8851 -2.0189
41765SOL     OW32152   3.844   0.527  10.115  0.0101 -0.3628 -0.0767
41765SOL    HW132153   3.843   0.582  10.036 -0.4279 -0.3704 -0.0801
41765SOL    HW232154   3.916   0.562  10.168  1.2379 -1.2478 -1.1015
41766SOL     OW32155   6.779   1.879   2.848 -0.3937 -0.4180  0.3320
41766SOL    HW132156   6.687   1.882   2.823 -0.6723  1.2473  1.3825
41766SOL    HW232157   6.826   1.917   2.773 -0.5871 -0.9206 -0.0492
41767SOL     OW32158   0.870   2.214   7.502  0.0647 -0.2540 -0.3273
41767SOL    HW132159   0.957   2.229   7.466  0.4991  0.0698  0.8007
41767SOL    HW232160   0.825   2.298   7.490  0.0059 -0.3272 -0.6316
41768SOL     OW32161   0.832   4.898   0.099  0.2543  0.9311  0.5671
41768SOL    HW132162   0.908   4.956   0.095 -0.1676  1.4441 -0.7493
41768SOL    HW232163   0.816   4.874   0.007 -1.4409  1.2097  0.7538
41769SOL     OW32164   9.236   5.062   9.499  0.3682  0.4101 -0.0610
41769SOL    HW132165   9.260   5.011   9.422  1.4086 -0.1884  0.6208
41769SOL    HW232166   9.212   4.996   9.564 -0.1242  0.8861  0.2426
41770SOL     OW32167   6.068   7.981   6.094  0.1026  0.3450 -0.4163
41770SOL    HW132168   6.125   8.013   6.024  0.4840  0.5107 -0.0363
41770SOL    HW232169   6.021   8.059   6.124 -0.1094  0.2618 -0.5351
41771SOL     OW32170   5.232   0.939   0.074 -0.6638 -0.2687 -0.8604
41771SOL    HW132171   5.327   0.942   0.091 -0.6075 -0.9752 -1.0340
41771SOL    HW232172   5.221   0.869   0.010 -1.2888 -0.0580 -0.9905
41772SOL     OW32173   2.607  11.263   1.231  0.0285  0.7215  0.2659
41772SOL    HW132174   2.554  11.276   1.153  0.8161 -1.6790 -0.7975
41772SOL    HW232175   2.582  11.176   1.263  1.1212  0.8249  1.5168
41773SOL     OW32176   5.461   3.763   1.036  0.5431  0.0495  0.2038
41773SOL    HW132177   5.395   3.777   0.967  1.0249  0.5114 -0.1728
41773SOL    HW232178   5.526   3.707   0.995  1.3977  1.2210 -0.1016
41774SOL     OW32179   1.922   9.005   0.140  0.1305 -0.2390 -0.2017
41774SOL    HW132180   1.935   8.998   0.045 -0.1019 -0.3547 -0.2257
41774SOL    HW232181   1.863   9.079   0.151  1.1298  0.5565 -0.0630
41775SOL     OW32182  11.853   7.106   2.680  0.1469  0.0530  0.0995
41775SOL    HW132183  11.789   7.118   2.609  0.4889  1.2995 -0.0121
41775SOL    HW232184  11.800   7.079   2.755 -0.1393 -2.0764 -0.7918
41776SOL     OW32185   9.701  10.073   4.399  0.2474  0.0159  0.0255
41776SOL    HW132186   9.712  10.009   4.329  1.1497  0.2523 -0.0619
41776SOL    HW232187   9.788  10.108   4.413 -0.1403  0.8487  0.4375
41777SOL     OW32188   4.856   4.575   9.099 -0.0631  0.1273 -0.1734
41777SOL    HW132189   4.950   4.559   9.093 -0.1050 -0.1582 -0.0540
41777SOL    HW232190   4.837   4.634   9.026  0.5671  1.8388  0.9673
41778SOL     OW32191  12.083   9.641   8.070  0.4251 -0.5352  0.3972
41778SOL    HW132192  12.024   9.717   8.070 -0.4368 -1.1846 -0.3133
41778SOL    HW232193  12.135   9.651   7.990 -0.5782 -1.3402 -0.3829
41779SOL     OW32194   6.373   6.750   6.944 -0.1368 -0.7467 -0.1110
41779SOL    HW132195   6.295   6.729   6.995 -1.2485  1.0531 -0.9412
41779SOL    HW232196   6.443   6.761   7.009 -0.6785 -1.8668  0.6919
41780SOL     OW32197   9.034  12.462   2.151 -0.3206 -0.1502 -0.4061
41780SOL    HW132198   8.948  12.427   2.128  0.1855 -1.1388 -0.8381
41780SOL    HW232199   9.015  12.548   2.190 -1.4973 -0.3662 -0.4669
41781SOL     OW32200   7.989   1.480   4.895  1.1376  0.3604  0.0428
41781SOL    HW132201   8.045   1.436   4.831 -0.4126 -0.0057 -1.1207
41781SOL    HW232202   7.954   1.556   4.848  0.0196  0.1200  0.4409
41782SOL     OW32203  12.503   2.156   1.129 -0.4768 -0.5371 -0.1958
41782SOL    HW132204  12.554   2.232   1.159 -0.9344 -0.4017  0.2438
41782SOL    HW232205  12.491   2.103   1.208 -1.3650 -0.3640 -0.2061
41783SOL     OW32206  11.744   3.322   7.548 -0.5065  0.1640 -0.3738
41783SOL    HW132207  11.737   3.412   7.519 -0.6452  0.1322 -0.4387
41783SOL    HW232208  11.747   3.327   7.643 -0.0788  0.2669 -0.3876
41784SOL     OW32209   0.849   1.165  10.176 -0.0480 -0.1321 -0.1158
41784SOL    HW132210   0.829   1.171  10.083  1.7038  3.3291 -0.4397
41784SOL    HW232211   0.943   1.146  10.180  0.1200  0.7710  0.8899
41785SOL     OW32212   6.640   8.364   0.278 -0.1832  0.0958  0.5135
41785SOL    HW132213   6.698   8.397   0.210  1.5167  1.1395  2.3662
41785SOL    HW232214   6.595   8.443   0.311 -0.3606 -0.2601  1.1420
41786SOL     OW32215   2.708   1.530   4.378  0.1584  0.3865  0.2678
41786SOL    HW132216   2.767   1.546   4.304 -2.0093 -0.9273 -1.9307
41786SOL    HW232217   2.653   1.608   4.382 -0.8002 -0.2109 -0.6725
41787SOL     OW32218   1.769   9.746   4.616  0.2249  0.0971 -0.1134
41787SOL    HW132219   1.675   9.739   4.600  0.3384 -0.2648 -0.6590
41787SOL    HW232220   1.803   9.797   4.542  0.0005  3.2596  1.7880
41788SOL     OW32221   3.708   6.446   7.991  0.1776  0.2789  0.2847
41788SOL    HW132222   3.702   6.355   8.021  2.1128 -0.9497 -2.6129
41788SOL    HW232223   3.617   6.474   7.985 -0.4199 -0.7430  3.0479
41789SOL     OW32224   8.753   0.489  12.134 -0.0108 -0.2775 -0.0049
41789SOL    HW132225   8.711   0.489  12.048  0.0833 -2.2560 -0.1038
41789SOL    HW232226   8.684   0.517  12.195  0.0692  1.6429 -0.7388
41790SOL     OW32227   3.188  10.674  11.018 -0.1876  0.0688 -0.3185
41790SOL    HW132228   3.185  10.768  11.037  0.5223  0.3874 -1.6715
41790SOL    HW232229   3.096  10.648  11.013 -0.4312  1.0471 -1.4589
41791SOL     OW32230   3.125  12.531   7.402 -0.1706 -0.4681 -0.3753
41791SOL    HW132231   3.118  12.568   7.314  1.0031 -1.8005 -1.0740
41791SOL    HW232232   3.215  12.550   7.429 -0.0538 -1.3556 -0.1035
41792SOL     OW32233   5.051   1.924   3.063  0.2068  0.3248 -0.2807
41792SOL    HW132234   5.065   1.956   3.152  0.3424  1.5533 -0.7337
41792SOL    HW232235   5.128   1.953   3.014  0.5838 -1.1286 -0.6087
41793SOL     OW32236   6.700   4.088   3.297 -0.0681 -0.3640  0.4368
41793SOL    HW132237   6.611   4.058   3.316  0.2487 -0.7471  1.3606
41793SOL    HW232238   6.708   4.171   3.345 -0.2157  0.1318 -0.3734
41794SOL     OW32239   4.532   9.568  11.334  0.0707  0.5586 -0.2227
41794SOL    HW132240   4.545   9.628  11.261  1.3902  0.9940  0.3297
41794SOL    HW232241   4.618   9.528  11.347 -0.3902 -0.2342  0.4679
41795SOL     OW32242   2.268   7.758   0.359 -0.4951  0.2660 -0.1491
41795SOL    HW132243   2.239   7.832   0.412  0.2208  2.1223 -2.2205
41795SOL    HW232244   2.188   7.707   0.343 -1.0586  0.7455  0.9973
41796SOL     OW32245   0.979   6.167  11.399  0.1586  0.4157 -0.3713
41796SOL    HW132246   1.009   6.241  11.452 -1.3474  0.8412 -0.0646
41796SOL    HW232247   0.923   6.206  11.333 -0.6598 -0.4336 -0.2065
41797SOL     OW32248  11.019   0.681  10.576 -0.4226 -0.4031  0.6735
41797SOL    HW132249  11.053   0.694  10.664 -0.2151  0.9358  0.4126
41797SOL    HW232250  11.044   0.760  10.528 -0.8581 -0.9390 -0.4857
41798SOL     OW32251   0.543   3.715   9.658 -0.3200 -0.1914  0.1798
41798SOL    HW132252   0.562   3.703   9.565  1.3895  0.5458  0.3955
41798SOL    HW232253   0.576   3.635   9.700 -2.2784 -1.1167  0.0491
41799SOL     OW32254   1.996  11.351  11.769  0.1851 -0.4281 -0.7217
41799SOL    HW132255   1.901  11.348  11.783  0.5426 -0.5663  2.1696
41799SOL    HW232256   2.030  11.277  11.818  2.0040  1.2752  0.7709
41800SOL     OW32257   0.805   9.821   8.977  0.4501 -0.5876 -0.4443
41800SOL    HW132258   0.862   9.893   8.951  0.0985 -0.3693 -0.6159
41800SOL    HW232259   0.865   9.755   9.012  0.6018  0.7658  2.0834
41801SOL     OW32260   9.159   4.344   9.804  0.2743  0.4404 -0.3377
41801SOL    HW132261   9.167   4.429   9.761  2.1320  0.3702 -0.2172
41801SOL    HW232262   9.224   4.346   9.874 -0.1753 -0.8024  0.1531
41802SOL     OW32263   3.278   6.401   0.481 -0.0387 -0.0631  0.1444
41802SOL    HW132264   3.335   6.333   0.445 -0.6455 -0.8030  0.5504
41802SOL    HW232265   3.234   6.359   0.556 -1.2404  0.4290 -0.2568
41803SOL     OW32266   7.603   4.131   1.183  0.0879  0.1624  0.1732
41803SOL    HW132267   7.562   4.204   1.135 -3.2496 -1.7589 -0.2336
41803SOL    HW232268   7.581   4.149   1.275 -0.6180 -0.2311  0.0869
41804SOL     OW32269   6.199   6.153   3.630 -0.4300 -0.0345  0.0338
41804SOL    HW132270   6.255   6.195   3.565 -1.5371 -0.0377 -0.9735
41804SOL    HW232271   6.226   6.062   3.630 -0.2295  0.0247 -0.2121
41805SOL     OW32272  11.869   8.852   4.993  0.2429 -0.1135  0.8898
41805SOL    HW132273  11.936   8.853   4.924 -0.5875 -2.0821 -0.0103
41805SOL    HW232274  11.792   8.892   4.952 -0.1878 -1.0910  0.7280
41806SOL     OW32275   1.370   7.214   5.029  0.2216  0.1663  0.3729
41806SOL    HW132276   1.427   7.212   5.107  0.3191 -1.0574  0.2818
41806SOL    HW232277   1.424   7.255   4.962 -0.3144  2.4969  1.2624
41807SOL     OW32278   8.493   3.225   2.225  0.2425 -0.6780  0.0722
41807SOL    HW132279   8.578   3.257   2.195 -0.5304  0.0034 -1.5014
41807SOL    HW232280   8.514   3.149   2.280  1.8028 -1.8584 -1.9894
41808SOL     OW32281  11.435   7.165   5.744  0.1826 -0.0249 -0.0493
41808SOL    HW132282  11.414   7.126   5.659 -1.0567  0.2727  0.0994
41808SOL    HW232283  11.451   7.258   5.724 -1.9447  0.4426  0.2603
41809SOL     OW32284   7.244   2.397   2.377  0.2344  0.4982 -0.3514
41809SOL    HW132285   7.223   2.447   2.298 -1.6707  1.1049  0.4705
41809SOL    HW232286   7.313   2.447   2.419  0.3295  0.8959 -0.9640
41810SOL     OW32287   7.198  10.857   9.672  0.3750  0.4284  0.2181
41810SOL    HW132288   7.292  10.842   9.672  0.2188 -0.7602  1.7084
41810SOL    HW232289   7.164  10.800   9.603  0.7589  1.1129 -0.5510
41811SOL     OW32290   8.177   7.115   6.863 -0.0280 -0.2132  0.5058
41811SOL    HW132291   8.110   7.054   6.893  1.7735 -1.4393  2.3123
41811SOL    HW232292   8.164   7.194   6.917 -2.5729  1.3134 -2.0641
41812SOL     OW32293  10.211  10.625   3.678  0.5129  0.0767  0.3798
41812SOL    HW132294  10.245  10.706   3.715  0.1985 -0.3599  1.6695
41812SOL    HW232295  10.257  10.555   3.725  1.6772 -0.5543 -1.5303
41813SOL     OW32296   7.098  11.914   3.859  0.1523  0.0016 -0.0673
41813SOL    HW132297   7.176  11.886   3.907  1.2285  0.1677 -1.6633
41813SOL    HW232298   7.025  11.889   3.916  1.3838  0.7168  1.9059
41814SOL     OW32299  10.676   2.124   4.482  0.1390  0.1913  0.3752
41814SOL    HW132300  10.623   2.107   4.404  1.0443 -1.1045  0.0058
41814SOL    HW232301  10.750   2.175   4.450  0.0860  0.3746  0.5438
41815SOL     OW32302  11.995   9.586   7.217 -0.0402 -0.3290  0.1290
41815SOL    HW132303  12.080   9.623   7.238 -0.2020  0.1432 -0.0469
41815SOL    HW232304  11.933   9.658   7.226 -0.1054 -0.0118 -2.0828
41816SOL     OW32305   9.099   0.534   4.213  0.5923  0.7541  0.6026
41816SOL    HW132306   9.193   0.514   4.205  0.9201  2.6376 -0.8801
41816SOL    HW232307   9.097   0.614   4.265 -0.1722  0.9359  0.2932
41817SOL     OW32308  12.004  11.502  12.492 -0.7322 -0.2669 -0.6597
41817SOL    HW132309  12.031  11.594  12.490 -0.7605 -0.2621 -0.9073
41817SOL    HW232310  11.929  11.498  12.433 -0.8056 -0.4253 -0.5565
41818SOL     OW32311   2.213   6.274   9.615 -0.1318 -0.0816 -0.2231
41818SOL    HW132312   2.167   6.353   9.641 -0.7565  0.1306 -1.8523
41818SOL    HW232313   2.222   6.223   9.696 -1.9258  0.5263  0.3932
41819SOL     OW32314   0.778   5.112  11.098  0.3959  0.3929 -0.0446
41819SOL    HW132315   0.760   5.201  11.128 -2.4417  0.8143 -2.5063
41819SOL    HW232316   0.775   5.118  11.003  1.8525 -2.0600 -0.3181
41820SOL     OW32317   1.161   3.355   1.151  0.4061  0.0609 -0.1388
41820SOL    HW132318   1.188   3.370   1.242 -2.0320 -0.1928  0.6840
41820SOL    HW232319   1.121   3.438   1.125  0.7590  0.0046 -0.8881
41821SOL     OW32320   1.148  11.140   4.070 -0.1721  0.5071 -0.1180
41821SOL    HW132321   1.134  11.137   3.975 -0.5585  1.0481 -0.0881
41821SOL    HW232322   1.203  11.064   4.089 -2.6267 -1.4719 -0.3384
41822SOL     OW32323   7.206   2.255   4.774  0.1458 -0.2206 -0.4521
41822SOL    HW132324   7.151   2.293   4.706  0.0024  0.4006  0.0037
41822SOL    HW232325   7.213   2.162   4.750  0.5250  0.0874 -1.5955
41823SOL     OW32326   5.892  12.345   6.978  0.7872 -0.1890  0.1668
41823SOL    HW132327   5.977  12.372   6.941  0.8340 -1.5111 -0.7568
41823SOL    HW232328   5.828  12.399   6.931  0.9590 -0.8384 -0.8376
41824SOL     OW32329  12.527   2.626  10.496  0.0510 -0.3511  0.0831
41824SOL    HW132330  12.594   2.644  10.430  0.0803  0.7278  0.3957
41824SOL    HW232331  12.524   2.705  10.549 -1.9843 -0.0741 -0.3662
41825SOL     OW32332   1.006   0.885   5.455 -0.2838 -0.1194 -0.1176
41825SOL    HW132333   1.085   0.935   5.433  0.3011 -0.9088  0.1527
41825SOL    HW232334   1.020   0.799   5.416 -1.7435  0.2127 -1.4871
41826SOL     OW32335   8.535   3.065   1.857 -0.4112  0.7837  0.7806
41826SOL    HW132336   8.457   3.040   1.806  0.1726  1.5170 -0.5285
41826SOL    HW232337   8.525   3.159   1.871  1.0018  1.2207 -0.8470
41827SOL     OW32338   7.316   4.769  10.065  0.8389  0.3089  0.0008
41827SOL    HW132339   7.354   4.681  10.070  2.3197  0.9802  2.0969
41827SOL    HW232340   7.263   4.776  10.144 -2.0708  0.1768 -1.8247
41828SOL     OW32341  12.577  10.155  10.013 -0.2167  0.2357 -0.3183
41828SOL    HW132342  12.489  10.144  10.048 -0.0498  1.4646  0.5351
41828SOL    HW232343  12.569  10.130   9.921 -0.6599 -3.0537  0.4963
41829SOL     OW32344   5.866   6.528  10.575 -0.1959  0.6253 -0.6393
41829SOL    HW132345   5.940   6.584  10.552 -1.6601  1.9471 -2.5818
41829SOL    HW232346   5.853   6.542  10.669  0.5335  2.2752 -0.7458
41830SOL     OW32347   7.522   2.551   3.557  0.3917 -0.6682 -0.3072
41830SOL    HW132348   7.489   2.462   3.570  2.5362 -1.1647  2.5582
41830SOL    HW232349   7.585   2.544   3.486  0.5648 -1.4601 -0.0772
41831SOL     OW32350   1.137   3.126   2.722  0.4069 -0.4543  0.3453
41831SOL    HW132351   1.084   3.205   2.730  0.3538 -0.6014  1.5677
41831SOL    HW232352   1.161   3.123   2.629 -1.5440 -0.2699 -0.2228
41832SOL     OW32353   7.668  11.152   5.462 -0.5075 -0.2506  0.4297
41832SOL    HW132354   7.586  11.192   5.431 -0.3328  2.5249  3.0647
41832SOL    HW232355   7.641  11.066   5.494 -1.9887 -0.2640 -0.7332
41833SOL     OW32356   9.897   7.283  11.548  0.2383  0.0727 -0.0191
41833SOL    HW132357   9.948   7.217  11.595  0.8404 -0.1924 -1.0268
41833SOL    HW232358   9.892   7.250  11.458 -1.7248  0.0843  0.0348
41834SOL     OW32359   4.433   8.949   1.512 -1.2956 -0.1287 -0.0649
41834SOL    HW132360   4.370   8.988   1.450 -0.8087  2.4192  0.9259
41834SOL    HW232361   4.443   9.015   1.581 -0.1025 -1.9244  1.5814
41835SOL     OW32362  10.769  10.832   9.975 -0.0582  0.2374  0.7412
41835SOL    HW132363  10.738  10.843   9.885  1.5593 -1.7477 -0.1641
41835SOL    HW232364  10.691  10.845  10.029 -0.5070  4.5925 -0.5969
41836SOL     OW32365   4.429   7.811   8.121  0.1179 -0.3692  0.1437
41836SOL    HW132366   4.463   7.745   8.181 -1.0569 -0.0943  1.1466
41836SOL    HW232367   4.336   7.819   8.144 -0.3145 -0.0882 -1.5557
41837SOL     OW32368   6.012   1.201   8.405 -0.0698  0.2673 -0.6449
41837SOL    HW132369   6.024   1.227   8.313  0.6415  1.9686 -0.1120
41837SOL    HW232370   5.921   1.222   8.424  0.1613  1.2807 -0.5852
41838SOL     OW32371   7.709   7.746   4.144 -0.3860 -0.0004 -0.2859
41838SOL    HW132372   7.687   7.707   4.059 -1.5249  2.0127 -0.9766
41838SOL    HW232373   7.624   7.762   4.186  0.1193  0.1447  0.7020
41839SOL     OW32374   3.848   9.291   5.207  0.3613 -0.0506 -0.0319
41839SOL    HW132375   3.943   9.301   5.214  0.1833  1.0434  1.2925
41839SOL    HW232376   3.814   9.343   5.279 -1.2390 -0.7846 -0.2294
41840SOL     OW32377   8.833   4.259   3.756 -0.3528  0.4523 -0.8140
41840SOL    HW132378   8.870   4.184   3.710 -0.2365  0.4942 -0.7885
41840SOL    HW232379   8.829   4.232   3.848 -0.2189  0.5138 -0.7900
41841SOL     OW32380   2.154  12.572   2.784  0.7095 -0.4310  0.0088
41841SOL    HW132381   2.198  12.516   2.848 -0.3782 -0.4146  0.7994
41841SOL    HW232382   2.103  12.512   2.731  1.0043 -0.3620 -0.3609
41842SOL     OW32383  10.546   3.090   2.991 -0.4379 -0.0486  0.0807
41842SOL    HW132384  10.519   3.047   2.910  0.5712  0.8193 -0.7579
41842SOL    HW232385  10.466   3.099   3.042 -1.1013 -0.5599 -0.8535
41843SOL     OW32386   2.912   2.749   7.853  0.0510 -0.2851 -0.1587
41843SOL    HW132387   2.910   2.830   7.802  0.2081  0.1614  0.5250
41843SOL    HW232388   2.831   2.751   7.903  0.7868  0.2618  1.0598
41844SOL     OW32389   6.647   9.118   3.841 -0.0431 -0.5163  0.5255
41844SOL    HW132390   6.555   9.129   3.867 -0.2347 -0.6810 -0.0610
41844SOL    HW232391   6.642   9.078   3.754  0.5413  1.2053 -0.3440
41845SOL     OW32392   9.166   1.018   6.718 -0.2702 -0.5091 -0.5520
41845SOL    HW132393   9.180   1.030   6.624  0.9364  2.2764 -0.1071
41845SOL    HW232394   9.086   0.966   6.724  0.6863 -2.5392 -3.0914
41846SOL     OW32395   0.812  11.392   2.134  0.2698 -0.1654  0.0763
41846SOL    HW132396   0.788  11.460   2.198 -1.9814 -1.7331  1.0187
41846SOL    HW232397   0.809  11.437   2.049  1.4989  1.5153  0.8692
41847SOL     OW32398  12.261  11.868   1.659 -0.0783  0.0832 -0.3859
41847SOL    HW132399  12.352  11.863   1.628  0.1895  1.4149  0.1307
41847SOL    HW232400  12.269  11.868   1.754 -0.7300 -1.1303 -0.3071
41848SOL     OW32401  10.030   2.566   9.548 -0.1987 -0.9457 -0.4608
41848SOL    HW132402  10.084   2.644   9.550 -0.3491 -0.8553  0.1389
41848SOL    HW232403   9.958   2.587   9.488  0.8017 -1.3256 -1.8534
41849SOL     OW32404   2.474   7.672   9.862  0.3290  0.2883 -0.6302
41849SOL    HW132405   2.477   7.577   9.875  0.5009  0.3044 -0.5506
41849SOL    HW232406   2.384   7.689   9.834  0.8155 -0.1472 -2.6387
41850SOL     OW32407  11.135   7.063   5.290  0.0592  0.0857 -0.7436
41850SOL    HW132408  11.046   7.088   5.265 -0.2046  0.0114  0.0721
41850SOL    HW232409  11.126   6.975   5.327  0.1066  0.8638  1.2557
41851SOL     OW32410   6.578  11.403   9.402  0.2908 -0.0950  0.4361
41851SOL    HW132411   6.537  11.489   9.394 -1.3301 -0.5951  2.3650
41851SOL    HW232412   6.578  11.368   9.313  3.4479  2.8297 -0.9573
41852SOL     OW32413   3.743  11.158   1.042 -0.3034  0.2968 -0.0040
41852SOL    HW132414   3.662  11.188   1.083 -0.0109  2.4638 -0.8318
41852SOL    HW232415   3.748  11.208   0.960  0.9274 -1.2040 -0.9115
41853SOL     OW32416   7.704   1.156   6.057  0.1061 -0.5908 -0.0445
41853SOL    HW132417   7.710   1.170   5.962 -0.6539 -0.3442 -0.0687
41853SOL    HW232418   7.757   1.227   6.094  1.3398 -1.3581 -0.2969
41854SOL     OW32419   4.607   8.112  11.817  0.1774 -0.2645  0.5464
41854SOL    HW132420   4.651   8.138  11.736  0.1858 -0.6575  0.4176
41854SOL    HW232421   4.602   8.016  11.810  0.7862 -0.3578  1.3274
41855SOL     OW32422   4.615   3.078   8.420 -0.2052  0.1419  0.0195
41855SOL    HW132423   4.645   3.166   8.441 -0.1557 -0.3528  2.2310
41855SOL    HW232424   4.631   3.027   8.499 -1.5685 -1.5153 -0.7010
41856SOL     OW32425   9.752   3.756  11.152  0.6948  0.3607  0.4681
41856SOL    HW132426   9.737   3.814  11.227 -2.0627  0.1623  0.1826
41856SOL    HW232427   9.666   3.717  11.135  1.7883 -1.4401 -1.3073
41857SOL     OW32428   1.588   5.698   5.926  0.2199  0.4530  0.1046
41857SOL    HW132429   1.628   5.775   5.967 -0.2175  1.4831 -1.3166
41857SOL    HW232430   1.636   5.624   5.962  1.1803  1.4479  0.9363
41858SOL     OW32431   1.188   2.865   0.171 -0.7556  0.2073 -0.1306
41858SOL    HW132432   1.209   2.857   0.078 -0.1397  0.8612 -0.0630
41858SOL    HW232433   1.201   2.958   0.190  1.3733 -0.2696  1.1049
41859SOL     OW32434   1.762   9.683   9.513  0.2908 -0.1373  0.1736
41859SOL    HW132435   1.756   9.607   9.571 -0.1625 -1.0247 -0.9931
41859SOL    HW232436   1.854   9.685   9.486  0.2150 -0.5264 -0.1177
41860SOL     OW32437   7.049   8.341   2.166  0.2218 -0.4078 -0.1481
41860SOL    HW132438   6.993   8.275   2.125  0.9752 -1.4650  0.4693
41860SOL    HW232439   7.032   8.421   2.117  0.2434 -1.3513 -1.7536
41861SOL     OW32440   7.930   0.848   6.503  0.0105  0.2573  0.1869
41861SOL    HW132441   7.836   0.860   6.512  0.0484 -0.8719  2.8529
41861SOL    HW232442   7.940   0.757   6.473  0.2807  0.6244 -0.9136
41862SOL     OW32443   1.162   6.415   3.280 -0.3294 -0.1480  0.3321
41862SOL    HW132444   1.162   6.440   3.188 -1.8103 -0.1130  0.3192
41862SOL    HW232445   1.225   6.475   3.321 -2.2031  2.2142 -0.0714
41863SOL     OW32446   7.389   1.550   0.288  0.0178  0.0924  0.7164
41863SOL    HW132447   7.436   1.473   0.257 -0.1811 -0.0797  0.8392
41863SOL    HW232448   7.421   1.564   0.377 -1.5973 -1.2266  1.5672
41864SOL     OW32449   2.040   1.547  11.031 -0.6100  0.2285 -0.1556
41864SOL    HW132450   2.131   1.519  11.038 -0.7774 -0.3040 -0.0616
41864SOL    HW232451   2.008   1.548  11.121 -0.2353  2.0256 -0.0078
41865SOL     OW32452  10.630   6.600   4.821  0.1266  0.5338  0.2804
41865SOL    HW132453  10.586   6.662   4.764 -0.2962  0.5908  0.6680
41865SOL    HW232454  10.684   6.654   4.879  4.1661  0.3746 -2.9102
41866SOL     OW32455   1.409   4.679   6.614  0.1135 -0.3416  0.3357
41866SOL    HW132456   1.487   4.679   6.670  0.6320  1.9666 -0.2952
41866SOL    HW232457   1.357   4.753   6.646 -2.2753 -2.2709  1.2477
41867SOL     OW32458   0.558  10.117   8.416 -0.1533 -0.0865 -0.4047
41867SOL    HW132459   0.647  10.087   8.433 -0.3604 -0.6286 -0.2646
41867SOL    HW232460   0.548  10.114   8.321 -0.8980 -2.6421 -0.3250
41868SOL     OW32461   2.322   8.235  10.897  0.1231 -0.1990  0.0516
41868SOL    HW132462   2.405   8.213  10.939  0.6054 -1.1056 -1.3330
41868SOL    HW232463   2.341   8.312  10.844  0.2155 -0.7005 -0.6529
41869SOL     OW32464  11.434   2.232  10.027 -0.2907 -0.0128 -0.1674
41869SOL    HW132465  11.377   2.193   9.961 -0.1680  1.5045 -1.2282
41869SOL    HW232466  11.413   2.326  10.025  0.6326  0.2509  1.0375
41870SOL     OW32467   1.688   8.467   2.546  0.4495  0.2701 -0.4232
41870SOL    HW132468   1.730   8.390   2.509 -0.3426  0.7220 -2.3884
41870SOL    HW232469   1.749   8.498   2.614  2.2992 -0.2497 -1.7826
41871SOL     OW32470  10.774   4.784   2.466  0.6236 -0.4218  0.3224
41871SOL    HW132471  10.704   4.720   2.480  0.4524 -0.1718  0.6026
41871SOL    HW232472  10.732   4.853   2.414  0.9423 -0.7743 -0.4286
41872SOL     OW32473   7.239  10.791  10.024 -0.2639 -0.1881 -0.7803
41872SOL    HW132474   7.180  10.854   9.981  0.1315 -0.3623 -1.6083
41872SOL    HW232475   7.216  10.796  10.116  0.2873  1.7564 -0.6952
41873SOL     OW32476   2.036   6.485   3.088 -0.2682 -0.3533 -0.0937
41873SOL    HW132477   1.976   6.411   3.076  1.0509 -1.0515 -3.4567
41873SOL    HW232478   2.110   6.448   3.136  0.1281 -1.1053 -1.2523
41874SOL     OW32479   8.160  12.574   0.729  0.0130  0.1219  1.1673
41874SOL    HW132480   8.223  12.504   0.712  0.0867  0.3559  0.4437
41874SOL    HW232481   8.087  12.556   0.669  0.2516  0.9352  0.6194
41875SOL     OW32482   9.806   7.846   7.949 -0.5822 -0.2286 -1.0359
41875SOL    HW132483   9.836   7.904   8.020 -2.9152 -1.4441  1.1387
41875SOL    HW232484   9.851   7.878   7.871  1.5584  1.7031  0.8289
41876SOL     OW32485   3.515   0.015  12.291 -0.0788 -0.7347 -0.1431
41876SOL    HW132486   3.464  -0.060  12.322  0.3503 -0.2018  1.9746
41876SOL    HW232487   3.580   0.030  12.359  0.8031  0.6496 -1.2383
41877SOL     OW32488  10.451  10.655  11.481  0.2721 -0.2838  0.2203
41877SOL    HW132489  10.425  10.564  11.463 -0.5882 -0.0679  0.3230
41877SOL    HW232490  10.482  10.688  11.397 -2.1050  0.1866 -0.5646
41878SOL     OW32491  12.460  10.318   2.147  0.5899  0.0781 -0.4724
41878SOL    HW132492  12.463  10.343   2.054  1.3319  1.8741 -0.0058
41878SOL    HW232493  12.425  10.396   2.191  1.8119 -0.1474  0.9369
41879SOL     OW32494   3.297   4.792   2.480 -0.1894 -0.1302 -0.4896
41879SOL    HW132495   3.366   4.845   2.522 -0.2141  1.0390 -1.8305
41879SOL    HW232496   3.242   4.857   2.435 -0.2990 -1.2985 -2.0982
41880SOL     OW32497   7.277   5.087   2.643 -0.2099 -0.7229 -0.2186
41880SOL    HW132498   7.309   4.998   2.654 -0.5557 -0.8296 -0.0620
41880SOL    HW232499   7.231   5.086   2.559  0.4818 -0.4808 -0.6141
41881SOL     OW32500   4.461   2.405   0.125 -0.3609 -0.3684 -0.0302
41881SOL    HW132501   4.512   2.485   0.139 -1.8804  0.4476  1.2512
41881SOL    HW232502   4.400   2.427   0.055  0.1041 -0.8638 -0.5941
41882SOL     OW32503   8.054   5.091   3.844 -0.0860 -0.3374 -0.1013
41882SOL    HW132504   8.028   5.005   3.812 -1.1734  0.5556 -1.7618
41882SOL    HW232505   8.131   5.114   3.792 -0.3587  0.0837 -0.3203
41883SOL     OW32506  12.344  12.551  11.126  1.1418 -0.0333 -0.6557
41883SOL    HW132507  12.287  12.600  11.066  0.2361 -0.3986 -0.1234
41883SOL    HW232508  12.284  12.492  11.172  2.2320 -1.8851 -1.5052
41884SOL     OW32509   8.434   2.844   2.054 -0.0156  0.9766  0.1840
41884SOL    HW132510   8.439   2.749   2.066 -1.5145  1.1434  2.9953
41884SOL    HW232511   8.398   2.855   1.966 -1.5496 -1.1834  0.4575
41885SOL     OW32512  12.357  12.301  12.428  0.1791  0.1393 -0.2901
41885SOL    HW132513  12.318  12.215  12.418  0.8784 -0.1615 -0.4917
41885SOL    HW232514  12.435  12.286  12.482 -1.4486  1.1376  2.5964
41886SOL     OW32515   0.294   8.787  11.361  0.2783 -0.4702  0.7719
41886SOL    HW132516   0.322   8.851  11.426  1.5602 -0.3840  0.1768
41886SOL    HW232517   0.206   8.762  11.387  0.4773  0.1395  2.0917
41887SOL     OW32518   3.422  12.243   4.964 -0.3124 -0.1649 -0.2369
41887SOL    HW132519   3.372  12.163   4.976  0.2322 -0.7018 -1.3873
41887SOL    HW232520   3.362  12.303   4.921 -0.0036 -0.8245 -1.6629
41888SOL     OW32521  11.230   7.160  11.853 -0.0132 -0.3189  0.7111
41888SOL    HW132522  11.248   7.079  11.902  1.8880 -0.8938 -0.8015
41888SOL    HW232523  11.217   7.131  11.763  1.0182  1.0590  0.0821
41889SOL     OW32524  10.036   0.007   2.388 -0.1252 -0.2767  0.3763
41889SOL    HW132525  10.036  -0.084   2.419 -1.5145  0.2022  1.9448
41889SOL    HW232526   9.954   0.016   2.340 -1.8424  0.9967  3.2645
41890SOL     OW32527  10.288   5.282   5.780 -0.2071 -0.6606 -0.9133
41890SOL    HW132528  10.375   5.290   5.820  0.4402  0.4660 -2.4637
41890SOL    HW232529  10.251   5.203   5.819  0.2160  0.5238  2.1333
41891SOL     OW32530  11.124  12.233   2.634  1.2698 -0.8467  0.4699
41891SOL    HW132531  11.212  12.264   2.657  2.3126 -1.4995 -2.2453
41891SOL    HW232532  11.139  12.150   2.588 -0.5523 -0.0487 -1.7602
41892SOL     OW32533   7.898   8.146   6.575 -0.1608 -0.2247 -0.9765
41892SOL    HW132534   7.988   8.172   6.559  0.3828 -1.4543 -0.1221
41892SOL    HW232535   7.858   8.222   6.618  0.3277  0.4823 -1.7435
41893SOL     OW32536   3.516   6.076  11.573  0.0399 -0.4526 -0.2958
41893SOL    HW132537   3.590   6.024  11.604  0.4434  0.9322  1.1809
41893SOL    HW232538   3.532   6.084  11.479  2.0273  0.1510  0.0341
41894SOL     OW32539   7.668  12.363  11.079  0.6197  0.6080 -0.1187
41894SOL    HW132540   7.680  12.289  11.139  0.3769  0.4865 -0.2137
41894SOL    HW232541   7.722  12.433  11.114  0.9846  0.3281 -0.1211
41895SOL     OW32542   9.963  10.166   9.349  0.4980 -0.0468 -0.5622
41895SOL    HW132543   9.997  10.125   9.269 -0.8846  1.0222 -1.7670
41895SOL    HW232544   9.905  10.100   9.387  2.7805 -1.3966  0.8259
41896SOL     OW32545   5.774   2.149   8.871  0.0320 -0.0862 -0.2810
41896SOL    HW132546   5.852   2.204   8.859 -1.7997  2.0888 -4.3287
41896SOL    HW232547   5.796   2.066   8.829  0.5962 -0.0001 -0.1591
41897SOL     OW32548   3.303   5.590   5.779 -0.0811  0.0324  0.4348
41897SOL    HW132549   3.380   5.648   5.787 -0.1023  0.0022  0.8887
41897SOL    HW232550   3.230   5.650   5.765  0.0350  0.0567 -0.0935
41898SOL     OW32551   6.729   4.818   8.272 -0.2248  0.1445  0.2436
41898SOL    HW132552   6.807   4.832   8.220  0.7393 -0.5274  1.4631
41898SOL    HW232553   6.663   4.874   8.232  0.3852 -0.5605 -1.8477
41899SOL     OW32554  10.397   6.200   3.252 -0.0243 -0.3610  0.0685
41899SOL    HW132555  10.399   6.293   3.276  3.0555 -0.9767  2.9494
41899SOL    HW232556  10.340   6.160   3.318 -0.1760 -0.7137 -0.2758
41900SOL     OW32557   5.959   8.538   1.517 -0.2431  0.8290  0.2298
41900SOL    HW132558   6.002   8.465   1.474 -0.1398  1.5050 -0.8614
41900SOL    HW232559   5.906   8.579   1.448  0.1220  2.0893  0.6627
41901SOL     OW32560   0.331   4.789  11.950 -0.0614 -0.3271 -0.3207
41901SOL    HW132561   0.366   4.714  11.997  0.8190  0.7253  0.7528
41901SOL    HW232562   0.258   4.820  12.004  2.1773  2.1061  1.6005
41902SOL     OW32563   0.914   8.857  11.735 -0.2335  0.4173  0.0969
41902SOL    HW132564   0.974   8.928  11.716  0.4796 -0.3450 -0.5436
41902SOL    HW232565   0.831   8.884  11.696 -0.0659  1.0467  0.1688
41903SOL     OW32566   5.775   3.305  10.840  0.3808  0.4158  0.3370
41903SOL    HW132567   5.819   3.284  10.758 -0.9077  0.6481 -0.4466
41903SOL    HW232568   5.718   3.231  10.857 -0.5423  1.0697  0.1642
41904SOL     OW32569   0.624  11.451   8.840 -0.1047 -0.5356  0.0813
41904SOL    HW132570   0.635  11.541   8.811 -0.5994  0.0177  1.5701
41904SOL    HW232571   0.676  11.443   8.919  1.9464 -2.2931 -1.3280
41905SOL     OW32572   1.377   5.239  10.811 -0.2110 -0.0400  0.4828
41905SOL    HW132573   1.458   5.255  10.762  0.1396  0.2881  1.1501
41905SOL    HW232574   1.319   5.310  10.784 -0.7448 -0.9874 -0.9510
41906SOL     OW32575   6.205   3.495  10.034 -0.4188 -0.5709  0.6242
41906SOL    HW132576   6.175   3.543   9.956  1.3444  0.8183  0.7068
41906SOL    HW232577   6.195   3.403  10.011 -0.4779 -0.1861 -1.0454
41907SOL     OW32578   7.154   3.636   7.899  0.5737 -0.0049 -0.0057
41907SOL    HW132579   7.241   3.598   7.883  1.6081  1.7481  1.1218
41907SOL    HW232580   7.162   3.727   7.870 -0.3956  0.6224  1.5879
41908SOL     OW32581   0.872   3.882   3.126 -0.5858 -0.0080  0.1586
41908SOL    HW132582   0.905   3.878   3.216  0.7468  0.5503 -0.2763
41908SOL    HW232583   0.917   3.958   3.087  0.0508 -1.1269 -1.4102
41909SOL     OW32584  11.725  10.472  11.979  0.3858 -0.9265  0.0916
41909SOL    HW132585  11.777  10.428  11.912  0.6582 -1.7184  0.8009
41909SOL    HW232586  11.636  10.437  11.967  0.1234 -0.0089 -0.7460
41910SOL     OW32587   9.153   7.448   1.933  0.1473 -0.2031  0.2097
41910SOL    HW132588   9.162   7.483   1.845  0.5013 -2.5562 -0.7585
41910SOL    HW232589   9.089   7.377   1.925 -0.7576  0.3069  2.1186
41911SOL     OW32590   8.674  11.076   6.457  0.6311  0.3815  0.5584
41911SOL    HW132591   8.681  11.157   6.407 -0.6677  0.5119  0.5446
41911SOL    HW232592   8.752  11.025   6.434  0.0661  0.4241 -1.6135
41912SOL     OW32593   1.735   2.863   7.413 -0.2200  0.2338  0.4372
41912SOL    HW132594   1.698   2.907   7.336 -1.1904 -1.6722 -0.2709
41912SOL    HW232595   1.828   2.886   7.412 -0.5641  1.7291 -0.2190
41913SOL     OW32596   1.759   7.998   7.119  0.2433 -0.2376 -0.3067
41913SOL    HW132597   1.778   8.092   7.125 -0.4878 -0.1018 -0.0517
41913SOL    HW232598   1.791   7.974   7.031 -0.9711  0.5943 -1.0054
41914SOL     OW32599   6.224   0.069   4.126  0.2032  0.3408  0.2409
41914SOL    HW132600   6.182   0.127   4.189 -0.9518 -0.7478  0.5108
41914SOL    HW232601   6.200  -0.020   4.154  1.8474 -0.2987 -0.2082
41915SOL     OW32602  12.073   2.496  10.680  0.2112  0.3120  0.0007
41915SOL    HW132603  11.982   2.467  10.689  0.5778 -1.2368 -0.8981
41915SOL    HW232604  12.083   2.513  10.587  0.7017  0.9819  0.1741
41916SOL     OW32605   6.648   4.573   0.701  0.4630 -0.4966  0.2172
41916SOL    HW132606   6.738   4.566   0.735  0.8801  0.2539 -0.7099
41916SOL    HW232607   6.621   4.482   0.688 -0.0673 -0.9096  3.3513
41917SOL     OW32608   1.982   0.841   9.147  0.0970  0.2192 -0.6800
41917SOL    HW132609   2.054   0.896   9.178  2.0502 -2.4534 -0.1728
41917SOL    HW232610   1.981   0.855   9.052  1.2908  0.3319 -0.6967
41918SOL     OW32611   7.658   7.612   0.192 -0.2676 -0.5558 -0.2349
41918SOL    HW132612   7.667   7.630   0.286  0.1112  0.1212 -0.3938
41918SOL    HW232613   7.584   7.665   0.164 -0.3726 -0.7470 -0.3230
41919SOL     OW32614   3.528   4.331  11.432 -0.3445 -0.2544  0.2288
41919SOL    HW132615   3.596   4.328  11.500  0.4033 -0.2916 -0.5029
41919SOL    HW232616   3.445   4.328  11.481  0.1092  2.0047  1.2883
41920SOL     OW32617   8.844   9.096   5.431 -0.1671 -0.2069  0.1715
41920SOL    HW132618   8.854   9.110   5.525 -1.5425  0.0314  0.3083
41920SOL    HW232619   8.923   9.049   5.405  1.1909  1.5068  1.0533
41921SOL     OW32620   9.214   9.035  10.575 -0.2257  0.0394 -0.1202
41921SOL    HW132621   9.170   9.066  10.654  2.6606  2.0653  0.8431
41921SOL    HW232622   9.255   9.113  10.538  1.3916 -1.4522 -1.6698
41922SOL     OW32623   4.380   8.975   9.085 -0.2698  0.4056  0.1944
41922SOL    HW132624   4.422   8.928   9.157 -1.7590 -1.8419 -0.3030
41922SOL    HW232625   4.286   8.957   9.096 -0.5532  0.2062 -2.1206
41923SOL     OW32626   9.045   8.758   8.024  0.0568 -0.3061 -0.0476
41923SOL    HW132627   9.045   8.665   7.999  0.3655 -0.9980  2.2661
41923SOL    HW232628   9.015   8.804   7.946  2.2868 -2.0987 -2.1256
41924SOL     OW32629   9.272   8.839   3.456  0.4818 -0.0649  0.7835
41924SOL    HW132630   9.358   8.867   3.487  0.7587  0.2943 -0.2670
41924SOL    HW232631   9.267   8.746   3.478 -0.0111  0.4906  3.3562
41925SOL     OW32632   8.752   2.239  11.432  0.2098  0.8223 -0.6177
41925SOL    HW132633   8.747   2.324  11.475  2.3095  1.4564 -1.4654
41925SOL    HW232634   8.804   2.256  11.353 -1.3945 -0.7781 -2.1087
41926SOL     OW32635   6.503   3.928   8.033  0.0285 -0.4575  0.2438
41926SOL    HW132636   6.481   3.848   8.080 -0.7180  0.6688  1.9553
41926SOL    HW232637   6.519   3.992   8.103 -0.3680  1.1239 -1.0577
41927SOL     OW32638   7.397  12.454   9.915 -0.4054  0.3304  0.5679
41927SOL    HW132639   7.467  12.390   9.930  0.9367  1.9051  1.4334
41927SOL    HW232640   7.405  12.477   9.823 -0.9230 -0.7590  0.2436
41928SOL     OW32641   4.014   5.254  11.539 -0.1419  0.4823  0.2009
41928SOL    HW132642   3.963   5.188  11.586 -0.4511  1.9665  2.0315
41928SOL    HW232643   3.949   5.313  11.502 -0.0458 -1.6233 -3.8766
41929SOL     OW32644   1.558   9.322  11.925  0.5319 -0.1259 -0.5714
41929SOL    HW132645   1.495   9.386  11.891  0.5266 -0.3889 -1.0679
41929SOL    HW232646   1.552   9.249  11.864  0.2594 -0.7608  0.2047
41930SOL     OW32647   3.141   9.019   1.044 -0.1239  0.6608  0.2622
41930SOL    HW132648   3.207   9.040   0.978  0.3213  1.1394  0.8451
41930SOL    HW232649   3.136   8.924   1.044 -0.6383  0.6697 -0.9435
41931SOL     OW32650   5.388   7.962   0.642 -0.6209  0.1214  0.3498
41931SOL    HW132651   5.299   7.941   0.612  0.0998 -2.5172 -0.1829
41931SOL    HW232652   5.425   7.878   0.668  1.9556  1.0566 -0.0119
41932SOL     OW32653   2.151  10.775   9.494  0.0381 -0.2051  0.2682
41932SOL    HW132654   2.213  10.840   9.462 -1.5366  0.9280 -0.5824
41932SOL    HW232655   2.108  10.817   9.569 -0.0696 -0.7771  0.5347
41933SOL     OW32656   1.679   2.805   2.429  0.1513 -0.3686  0.1324
41933SOL    HW132657   1.747   2.758   2.476  2.6243  1.7283 -1.0984
41933SOL    HW232658   1.649   2.872   2.490 -0.3270 -0.8510  0.4337
41934SOL     OW32659   2.049   1.172   3.048  0.2277  0.6969  0.1516
41934SOL    HW132660   2.059   1.118   2.970  1.0557 -0.1171  0.7876
41934SOL    HW232661   2.133   1.218   3.055  0.2821  0.5149  0.7319
41935SOL     OW32662   5.048   0.029   4.058  0.0880  0.4737  0.1173
41935SOL    HW132663   5.058   0.017   3.963  1.7001 -0.9217  0.4040
41935SOL    HW232664   5.136   0.054   4.087 -0.4957  1.3135  1.2006
41936SOL     OW32665   3.413   6.394   5.546  0.2532 -0.6174  0.2768
41936SOL    HW132666   3.394   6.446   5.468  2.1457  2.2884  1.5598
41936SOL    HW232667   3.330   6.391   5.594 -0.5017 -0.9760 -0.9995
41937SOL     OW32668  12.286   2.491   9.128  0.0766  0.0049  0.8192
41937SOL    HW132669  12.271   2.446   9.211  0.5399 -0.4735  0.6560
41937SOL    HW232670  12.218   2.557   9.123  0.3442  0.3739  1.8181
41938SOL     OW32671   7.716   6.089   9.452 -0.0421  0.2977 -0.0931
41938SOL    HW132672   7.707   6.162   9.513 -1.6961  0.2228 -0.1908
41938SOL    HW232673   7.628   6.077   9.416  0.1172 -1.8717  0.0790
41939SOL     OW32674   5.827   0.006   6.440 -0.4085  0.4297 -0.0529
41939SOL    HW132675   5.853   0.071   6.376 -1.2594 -0.8190 -1.7389
41939SOL    HW232676   5.740   0.034   6.469 -0.8306  0.0067 -0.8750
41940SOL     OW32677   2.411   2.124   5.850 -0.7184 -0.8442 -0.3853
41940SOL    HW132678   2.373   2.200   5.895 -1.0237 -0.4017 -1.3531
41940SOL    HW232679   2.442   2.067   5.920  0.9862  0.8947  0.3775
41941SOL     OW32680   5.430   1.540   0.681  0.4271  0.2681 -0.2924
41941SOL    HW132681   5.446   1.539   0.586  0.1896  0.4500 -0.3357
41941SOL    HW232682   5.402   1.629   0.699 -0.1815  0.0529 -0.1611
41942SOL     OW32683   2.451   2.467  10.847  0.4146 -0.1452  0.0584
41942SOL    HW132684   2.471   2.433  10.760 -0.8760  0.9469 -0.7183
41942SOL    HW232685   2.404   2.549  10.830 -0.7252 -0.3981  1.7603
41943SOL     OW32686   3.568   2.064   3.265  1.0557  0.4692 -0.3364
41943SOL    HW132687   3.659   2.058   3.239  1.2014  1.1518 -0.0227
41943SOL    HW232688   3.531   1.978   3.246  1.9572 -0.0831  0.2990
41944SOL     OW32689   6.801   5.998   0.568 -0.4890  0.6791  0.4517
41944SOL    HW132690   6.778   5.939   0.640  0.9163  1.0536  1.2596
41944SOL    HW232691   6.895   6.012   0.578 -0.3925  1.2900 -1.0692
41945SOL     OW32692   3.506  11.207   7.328  0.5403 -0.3240  0.5162
41945SOL    HW132693   3.540  11.132   7.280  2.6227 -0.6940  2.4015
41945SOL    HW232694   3.442  11.170   7.388  0.5014 -0.3880  0.4342
41946SOL     OW32695   1.650   5.925   9.606 -0.3420 -0.6973  0.1481
41946SOL    HW132696   1.607   6.003   9.641 -0.1740 -0.1191 -0.8790
41946SOL    HW232697   1.731   5.918   9.657  0.2548  0.5521 -0.5802
41947SOL     OW32698   9.568   2.415  12.288 -0.2390 -0.7302  0.0856
41947SOL    HW132699   9.593   2.491  12.340  2.0398  0.3156 -2.2895
41947SOL    HW232700   9.651   2.379  12.257 -1.4275 -1.6960 -2.2281
41948SOL     OW32701   0.861   4.174   3.265  0.0441  0.5087 -0.0027
41948SOL    HW132702   0.938   4.191   3.320  0.9440  0.8595 -1.3061
41948SOL    HW232703   0.847   4.080   3.271  1.1549  0.2974 -0.4394
41949SOL     OW32704   3.899   1.811   4.380  0.0141 -0.2136  0.3906
41949SOL    HW132705   3.981   1.853   4.352 -1.2523  1.4122 -1.0936
41949SOL    HW232706   3.922   1.768   4.462  2.9533 -1.8659 -1.1193
41950SOL     OW32707  10.838   3.175   1.540 -0.6773 -0.4962 -0.3031
41950SOL    HW132708  10.874   3.237   1.476 -1.1620 -0.0254 -0.1366
41950SOL    HW232709  10.747   3.162   1.511 -0.9202 -0.2300  0.3166
41951SOL     OW32710   6.590   6.973   2.024  0.5097 -0.4603 -0.3463
41951SOL    HW132711   6.531   7.004   2.092  1.0201 -0.8780  0.3009
41951SOL    HW232712   6.537   6.972   1.944 -0.3931 -0.9434  0.2475
41952SOL     OW32713   5.336   9.893  10.032  0.1585 -0.1774 -0.2281
41952SOL    HW132714   5.416   9.880   9.980  1.5946  1.0772  1.5217
41952SOL    HW232715   5.271   9.925   9.970  1.7390  1.0427 -1.3272
41953SOL     OW32716   9.593   2.714  12.094  0.0898 -0.4584  0.4154
41953SOL    HW132717   9.617   2.632  12.139 -1.2268 -0.0314  1.9979
41953SOL    HW232718   9.510   2.694  12.051  0.2232 -0.2104  0.0426
41954SOL     OW32719   6.081   8.808  12.271 -0.0955  0.5389  0.1071
41954SOL    HW132720   6.129   8.886  12.299 -0.9608  0.2234  2.7512
41954SOL    HW232721   6.087   8.748  12.345 -0.3812 -1.4996 -1.4432
41955SOL     OW32722   6.711  12.336   6.705 -0.1159 -0.0463 -0.5249
41955SOL    HW132723   6.764  12.393   6.649  1.2971 -1.3696 -0.6094
41955SOL    HW232724   6.751  12.342   6.791 -0.4350 -0.3017 -0.3542
41956SOL     OW32725  10.839   3.431   6.458  0.4586 -0.6335  0.0624
41956SOL    HW132726  10.845   3.515   6.503  3.1308 -1.0011  0.5218
41956SOL    HW232727  10.749   3.429   6.424  0.0950  2.0677  0.6229
41957SOL     OW32728  10.305   1.568   3.846 -0.8050  0.4163  0.0217
41957SOL    HW132729  10.269   1.655   3.830  0.6010  0.9110 -0.6085
41957SOL    HW232730  10.242   1.507   3.807 -1.4959  1.1809 -0.0665
41958SOL     OW32731   3.683   3.163  12.469  0.0393 -0.2406  0.1179
41958SOL    HW132732   3.609   3.184  12.526  0.7334 -0.5203  1.1465
41958SOL    HW232733   3.701   3.071  12.485  1.2494  0.0638  0.6662
41959SOL     OW32734   3.977   8.578   2.890 -0.6296 -0.3454 -0.2761
41959SOL    HW132735   4.037   8.568   2.964 -2.2148  2.4731  1.5574
41959SOL    HW232736   4.034   8.581   2.813  1.3821 -0.1370  1.1348
41960SOL     OW32737   2.386   6.094  11.602  0.7792  0.6131  0.0583
41960SOL    HW132738   2.322   6.127  11.665  0.9426  0.2979  0.3880
41960SOL    HW232739   2.430   6.173  11.570 -1.1130  1.0500 -1.6616
41961SOL     OW32740   4.069   8.793  11.385 -0.6001  0.0336  0.1893
41961SOL    HW132741   4.110   8.752  11.309 -0.7982 -0.1556  0.1803
41961SOL    HW232742   4.053   8.720  11.445  0.2465  0.2907  0.7364
41962SOL     OW32743   5.761  10.676   1.895 -0.4647  0.1314  0.3371
41962SOL    HW132744   5.726  10.764   1.885 -2.3584 -0.4535  1.1881
41962SOL    HW232745   5.715  10.624   1.829 -0.1960 -0.4174  0.5716
41963SOL     OW32746   8.337   3.832  11.354  0.7589  0.1004 -0.2933
41963SOL    HW132747   8.286   3.774  11.411 -0.2191 -1.1077 -2.3014
41963SOL    HW232748   8.295   3.918  11.364 -2.5964 -1.0488 -2.6769
41964SOL     OW32749   1.390   9.173   3.519  0.3626  0.3277 -0.0796
41964SOL    HW132750   1.373   9.215   3.604  0.1949  0.8016 -0.3422
41964SOL    HW232751   1.484   9.183   3.506  0.0739  2.3660 -1.0182
41965SOL     OW32752  12.509   2.554   5.830 -0.3081  0.2445  0.2114
41965SOL    HW132753  12.559   2.569   5.910  0.8785 -2.8374  0.1681
41965SOL    HW232754  12.575   2.541   5.763 -1.1171 -2.3259 -0.1855
41966SOL     OW32755   1.852  10.334   7.036  0.3343 -0.6454  0.0083
41966SOL    HW132756   1.758  10.347   7.047  0.4204 -0.9681  1.3164
41966SOL    HW232757   1.878  10.399   6.971 -0.4935  0.7072  0.9790
41967SOL     OW32758   5.060   7.766   8.933  0.3812 -0.0851 -0.1656
41967SOL    HW132759   5.012   7.834   8.886  2.1211  0.1978 -1.5892
41967SOL    HW232760   5.086   7.808   9.015 -0.3507  0.2614 -0.0950
41968SOL     OW32761  10.214  12.046  11.813 -0.0312 -0.5718 -0.4778
41968SOL    HW132762  10.140  12.055  11.752 -1.5372 -0.1962  1.3030
41968SOL    HW232763  10.250  11.960  11.795 -1.3217 -1.0303 -0.9649
41969SOL     OW32764  11.402   6.579   4.300 -0.2852  0.2973  0.2575
41969SOL    HW132765  11.487   6.576   4.256 -0.0284  0.6834  0.7257
41969SOL    HW232766  11.400   6.499   4.352  0.5245  1.1134  1.5832
41970SOL     OW32767   7.347   5.810   4.252 -0.0577 -0.5825 -0.0055
41970SOL    HW132768   7.319   5.719   4.247  1.8512 -1.2647  0.7138
41970SOL    HW232769   7.305   5.844   4.332 -0.3111 -0.9958  0.0373
41971SOL     OW32770   5.259   7.963  12.008 -0.5402  0.0725 -0.8933
41971SOL    HW132771   5.193   7.975  12.076  0.5899  1.4899  0.0157
41971SOL    HW232772   5.313   7.890  12.040 -0.4364  0.2752 -0.5918
41972SOL     OW32773  11.480   7.739  12.196  0.4089  0.2606 -0.5470
41972SOL    HW132774  11.497   7.711  12.286  0.1885 -0.8795 -0.8413
41972SOL    HW232775  11.504   7.663  12.142  1.1694  1.1589 -1.5045
41973SOL     OW32776   0.438  12.368   2.892  0.1343  0.1514  0.0602
41973SOL    HW132777   0.523  12.325   2.883 -0.8511 -1.8596 -0.0826
41973SOL    HW232778   0.433  12.391   2.985  1.2664  1.3198 -0.1367
41974SOL     OW32779   5.944   0.462   5.385 -0.3067  0.0590 -0.3576
41974SOL    HW132780   5.874   0.429   5.442  0.0391 -0.5230 -0.2616
41974SOL    HW232781   5.899   0.521   5.324 -0.9980 -0.7755 -0.6844
41975SOL     OW32782   2.850   3.244   5.701 -0.3247 -0.0891 -0.6352
41975SOL    HW132783   2.889   3.171   5.653  0.3727  0.5582 -1.0657
41975SOL    HW232784   2.758   3.218   5.714 -0.0371 -1.1350 -0.5832
41976SOL     OW32785  10.919   5.913   3.084 -0.2263 -0.0420 -0.2001
41976SOL    HW132786  10.958   5.975   3.146  0.3672  0.7151 -1.2986
41976SOL    HW232787  10.921   5.829   3.130 -0.2065  0.5681  0.9656
41977SOL     OW32788   5.348   7.082   5.613 -0.5131  0.3614 -0.4562
41977SOL    HW132789   5.432   7.077   5.568 -0.3640  0.5264 -0.1922
41977SOL    HW232790   5.368   7.067   5.705 -1.0493 -1.8225 -0.6502
41978SOL     OW32791   8.618   4.981   2.360  0.4916 -0.1051 -0.2565
41978SOL    HW132792   8.636   4.942   2.446  0.8904 -1.5009 -0.9437
41978SOL    HW232793   8.691   5.041   2.345 -0.9532  2.2765  1.5234
41979SOL     OW32794   1.751   3.527  10.925 -0.0713 -0.3593  0.1743
41979SOL    HW132795   1.832   3.537  10.875 -0.7842  1.5054 -0.7446
41979SOL    HW232796   1.766   3.576  11.005  0.0968 -0.9652  0.5151
41980SOL     OW32797  11.376   9.524   8.995  0.1750  0.0528  0.1106
41980SOL    HW132798  11.364   9.494   9.085  0.7544  1.0123  0.5269
41980SOL    HW232799  11.391   9.618   9.003 -3.2262  0.8408 -1.2611
41981SOL     OW32800   5.162   6.385   0.369  0.0376  0.1763  0.0330
41981SOL    HW132801   5.165   6.395   0.464  0.6559 -3.4661  0.5367
41981SOL    HW232802   5.096   6.317   0.355 -0.2647  0.8771 -2.1857
41982SOL     OW32803   6.627   3.649   9.010 -0.2782  0.4328 -0.2231
41982SOL    HW132804   6.637   3.599   9.091 -0.1282  0.5887 -0.1470
41982SOL    HW232805   6.717   3.661   8.978 -0.3825 -0.4634 -0.9164
41983SOL     OW32806   6.388   4.349  11.376  0.0352 -0.2000 -0.2037
41983SOL    HW132807   6.336   4.427  11.396 -1.2173 -0.9722 -0.2820
41983SOL    HW232808   6.328   4.276  11.392  1.3650 -1.1885  0.4614
41984SOL     OW32809   8.186   1.324  10.805  0.4581 -0.1449 -0.3262
41984SOL    HW132810   8.190   1.338  10.900  2.4468  0.1744 -0.4149
41984SOL    HW232811   8.103   1.280  10.791 -0.4833  0.9483  1.4186
41985SOL     OW32812   5.727   0.707   6.135  0.2606 -0.0363  0.7614
41985SOL    HW132813   5.810   0.675   6.170  0.5495  0.3307  0.4175
41985SOL    HW232814   5.703   0.644   6.067  1.4793  1.1171 -0.8214
41986SOL     OW32815   2.794   4.739   0.985 -0.2003 -0.0688  0.0775
41986SOL    HW132816   2.701   4.724   1.000 -0.0134 -1.5928 -0.0670
41986SOL    HW232817   2.829   4.652   0.961  1.5722  0.0617  1.8679
41987SOL     OW32818   7.475  12.244  10.729 -0.0479  0.4062 -0.1990
41987SOL    HW132819   7.456  12.151  10.719 -0.8169  0.2975  1.7812
41987SOL    HW232820   7.570  12.248  10.742  0.0749 -0.0258 -0.9274
41988SOL     OW32821   4.760   8.618   7.502 -0.3195  0.2661 -0.0578
41988SOL    HW132822   4.783   8.530   7.472  0.2129 -0.3302  1.9542
41988SOL    HW232823   4.665   8.614   7.516 -0.7763  0.8888 -2.5675
41989SOL     OW32824   3.389   6.999   0.897  0.6343  0.1561  0.2627
41989SOL    HW132825   3.456   6.936   0.923  1.1657  0.7460  0.3352
41989SOL    HW232826   3.325   6.947   0.847  0.5960 -0.6026  1.0914
41990SOL     OW32827   2.120   5.461   8.026 -0.0369 -0.3612 -0.0416
41990SOL    HW132828   2.049   5.449   7.963  1.0428 -2.2822 -1.0021
41990SOL    HW232829   2.183   5.517   7.980  0.8552 -1.9502 -0.8156
41991SOL     OW32830  10.723  11.810   9.349  0.6042 -0.0359 -0.6343
41991SOL    HW132831  10.653  11.849   9.297 -0.6380 -0.3185  0.7600
41991SOL    HW232832  10.725  11.861   9.430  0.7643 -1.1605  0.1038
41992SOL     OW32833   6.553  11.488   9.657 -0.6849  0.1248 -0.0396
41992SOL    HW132834   6.574  11.458   9.569  0.5363  1.6533 -0.3007
41992SOL    HW232835   6.535  11.582   9.647 -0.2795  0.3808  1.3645
41993SOL     OW32836   5.794   9.358   8.905 -0.2446  0.5271 -0.1870
41993SOL    HW132837   5.781   9.427   8.839  0.6552  1.6795  0.7830
41993SOL    HW232838   5.804   9.406   8.988  3.4087 -0.4850  0.1339
41994SOL     OW32839   6.812   7.956   4.451 -0.0545 -0.7181 -0.1887
41994SOL    HW132840   6.775   7.910   4.526  0.5200 -0.6765  0.1233
41994SOL    HW232841   6.741   8.013   4.421 -0.5499 -1.3118 -0.1691
41995SOL     OW32842   0.904  12.524  11.002 -0.4125 -0.7500  0.3798
41995SOL    HW132843   0.945  12.596  11.050 -2.0067 -1.6088  3.2615
41995SOL    HW232844   0.812  12.549  10.995 -0.4568 -1.2312 -1.2592
41996SOL     OW32845   5.405   6.102   3.149  0.2116 -0.2464 -0.1299
41996SOL    HW132846   5.417   6.038   3.219 -2.2449 -1.9955 -1.1876
41996SOL    HW232847   5.414   6.051   3.068 -3.3312  0.3015 -1.0115
41997SOL     OW32848   9.187   8.943   9.600 -0.8742 -0.3006  0.3089
41997SOL    HW132849   9.158   8.946   9.509 -0.0121  0.5247  0.0501
41997SOL    HW232850   9.108   8.955   9.651 -1.1829  0.5293 -0.3552
41998SOL     OW32851   6.984  11.594  11.961  0.5379 -0.1140  0.3590
41998SOL    HW132852   6.898  11.636  11.951 -0.8317 -2.7384  0.0001
41998SOL    HW232853   7.012  11.618  12.050 -1.4588 -0.5793  1.1847
41999SOL     OW32854   3.713   1.069   5.033 -0.1771  0.4882  0.0708
41999SOL    HW132855   3.770   1.049   4.959 -0.2118 -0.2726  0.2467
41999SOL    HW232856   3.635   1.107   4.993 -0.9741 -1.5813 -0.4572
42000SOL     OW32857  10.546   1.016   8.526 -0.4714 -0.1639  0.2138
42000SOL    HW132858  10.505   0.948   8.579 -1.0194  0.4767  0.6245
42000SOL    HW232859  10.623   0.973   8.488 -0.2825 -0.7356  1.2138
42001SOL     OW32860   9.801  11.671   0.178  0.2530 -0.6327  0.7547
42001SOL    HW132861   9.873  11.719   0.220 -0.4396  0.1844  1.0402
42001SOL    HW232862   9.779  11.723   0.101 -1.4105  0.3282  1.7929
42002SOL     OW32863  10.597  10.776   1.869 -0.5928 -0.2950  0.3818
42002SOL    HW132864  10.537  10.802   1.939 -2.0804  0.0202 -0.9653
42002SOL    HW232865  10.557  10.698   1.830  0.6513 -0.9662  0.3943
42003SOL     OW32866   2.493   2.607   6.837 -0.1478  0.5409 -0.0814
42003SOL    HW132867   2.548   2.550   6.783 -0.6848  0.1948 -0.2721
42003SOL    HW232868   2.446   2.547   6.894 -2.0005  0.6164 -1.4310
42004SOL     OW32869   8.765  10.913   8.136 -0.0445  0.5102 -0.0225
42004SOL    HW132870   8.703  10.840   8.132  0.0807  0.4465 -0.9378
42004SOL    HW232871   8.709  10.991   8.146 -0.2648  0.4372 -0.6571
42005SOL     OW32872   2.722   9.121   6.116  0.1550  0.0655  0.4208
42005SOL    HW132873   2.796   9.180   6.101  0.6558 -0.8491 -0.9005
42005SOL    HW232874   2.646   9.170   6.087  0.4969  0.3025 -0.0954
42006SOL     OW32875   4.573   6.838  11.575 -0.2546  0.2060 -0.5261
42006SOL    HW132876   4.635   6.766  11.583 -1.0383 -0.4296 -0.0293
42006SOL    HW232877   4.533   6.827  11.489 -0.8826 -0.3946 -0.1740
42007SOL     OW32878   6.038   9.493   9.918 -0.2286 -0.3738  0.4915
42007SOL    HW132879   5.986   9.566   9.882  1.0986 -0.3511 -1.5164
42007SOL    HW232880   6.103   9.536   9.973 -1.6258 -0.3415  2.2237
42008SOL     OW32881   9.030  11.841  12.052  0.3288 -0.2028  0.0742
42008SOL    HW132882   9.121  11.822  12.030  0.8592 -0.0232  1.9441
42008SOL    HW232883   9.035  11.913  12.115 -1.0843 -0.3921  0.4361
42009SOL     OW32884   1.949   2.977   1.931  0.5804  0.3035  0.5595
42009SOL    HW132885   2.006   3.032   1.878  0.0082 -0.2879 -0.7070
42009SOL    HW232886   1.867   2.974   1.883 -0.8581  1.8278  2.7745
42010SOL     OW32887   4.317   6.255   2.277 -0.0756 -0.2794  0.0544
42010SOL    HW132888   4.327   6.186   2.212 -0.9622 -0.6805  0.3414
42010SOL    HW232889   4.299   6.210   2.359  0.6282  0.2428  0.5140
42011SOL     OW32890   6.272   4.263   2.017  0.2411  0.3246 -0.2014
42011SOL    HW132891   6.181   4.260   2.047  0.5847 -2.3797  0.8644
42011SOL    HW232892   6.287   4.355   1.995 -2.3565  1.0735  0.7693
42012SOL     OW32893   3.183  10.428   3.200  0.1029 -0.1430 -0.6303
42012SOL    HW132894   3.155  10.468   3.117  0.6285  0.0806 -0.7060
42012SOL    HW232895   3.127  10.469   3.266 -0.4686 -0.4830 -0.8950
42013SOL     OW32896   1.662  10.823   2.249  0.8143  0.1587  0.3593
42013SOL    HW132897   1.716  10.765   2.196 -1.8515 -1.2388 -1.0669
42013SOL    HW232898   1.681  10.798   2.339  1.7347 -1.0221 -0.1421
42014SOL     OW32899  12.058  10.235  11.905  0.3272  0.0336 -0.4144
42014SOL    HW132900  12.070  10.154  11.954 -0.8145  0.3993  0.5318
42014SOL    HW232901  12.032  10.299  11.971 -0.0161  0.8558 -1.3174
42015SOL     OW32902   6.515   6.649   9.268  0.3356  0.0671  0.0934
42015SOL    HW132903   6.591   6.643   9.210  0.9879  0.6495  0.8536
42015SOL    HW232904   6.504   6.743   9.283 -1.9552  0.1831 -1.7815
42016SOL     OW32905   0.825   2.886   8.633  0.4122 -0.3909 -0.2391
42016SOL    HW132906   0.874   2.914   8.710  1.9326  0.3699 -1.4353
42016SOL    HW232907   0.885   2.829   8.586 -0.2103 -0.2299 -1.2563
42017SOL     OW32908  12.038   9.152  11.246  0.2621 -0.2708  0.5275
42017SOL    HW132909  12.057   9.069  11.289  0.3746 -0.1858  0.6431
42017SOL    HW232910  11.986   9.202  11.309 -0.9865 -0.7844 -0.0626
42018SOL     OW32911   7.945   8.368   2.094  0.1111 -0.4747  0.0337
42018SOL    HW132912   7.933   8.413   2.178 -0.0178  2.5367 -1.4809
42018SOL    HW232913   7.856   8.357   2.060  0.1021 -2.3811  0.5284
42019SOL     OW32914   1.233   7.630   7.881 -0.3437  0.0548 -0.2794
42019SOL    HW132915   1.201   7.623   7.971 -1.2620  0.9574 -0.5280
42019SOL    HW232916   1.325   7.601   7.886 -0.3329  0.2725  0.9733
42020SOL     OW32917   8.031   2.464   8.418  0.1345 -0.1793 -0.4572
42020SOL    HW132918   8.097   2.521   8.378  0.0800 -0.8790 -1.6003
42020SOL    HW232919   7.949   2.511   8.408  0.1723 -0.1974 -0.8691
42021SOL     OW32920   4.165   6.879   2.862 -0.2009 -0.4684 -0.3418
42021SOL    HW132921   4.105   6.947   2.833 -0.6079  0.6160  2.6664
42021SOL    HW232922   4.116   6.830   2.929  2.3663  1.1201  3.0209
42022SOL     OW32923   6.654   8.459   5.499 -0.3010  0.0137 -0.0147
42022SOL    HW132924   6.724   8.491   5.555 -0.6292 -0.0999  0.4650
42022SOL    HW232925   6.670   8.365   5.492  0.5383  0.2172 -1.2486
42023SOL     OW32926   9.993   1.235   0.800 -0.1598 -0.1346  0.7651
42023SOL    HW132927  10.006   1.141   0.791 -0.4014 -0.1566  0.6332
42023SOL    HW232928   9.921   1.255   0.740 -1.4787 -0.2013  2.2482
42024SOL     OW32929   3.994   1.718  12.187  0.3409  0.2498 -0.1152
42024SOL    HW132930   3.905   1.684  12.181 -0.4720  2.4839 -2.3050
42024SOL    HW232931   4.037   1.686  12.108  0.7511  1.0546 -0.2268
42025SOL     OW32932  12.235   8.926   1.777  0.4366  0.2938  0.3252
42025SOL    HW132933  12.327   8.941   1.797  1.2246 -1.7840 -1.4194
42025SOL    HW232934  12.215   8.842   1.818  0.0877 -0.5295 -1.4513
42026SOL     OW32935   1.213   8.602   9.837  0.2048  0.2359  0.1464
42026SOL    HW132936   1.283   8.550   9.876  1.3248  1.0233 -0.7476
42026SOL    HW232937   1.209   8.681   9.891 -1.1589 -0.5034  1.2014
42027SOL     OW32938   0.708   7.327  11.349  0.4605 -0.2417  0.0258
42027SOL    HW132939   0.686   7.235  11.333 -2.1405  0.1581  0.9089
42027SOL    HW232940   0.679   7.372  11.269  0.8242 -0.0541 -0.0006
42028SOL     OW32941   0.472   5.101   3.625 -0.5272 -0.3401  0.6881
42028SOL    HW132942   0.393   5.124   3.577 -0.5278 -1.1912  0.2725
42028SOL    HW232943   0.541   5.103   3.559 -0.3727 -0.6167  0.8413
42029SOL     OW32944  11.671   9.081  11.857  0.2821 -0.1909 -0.2097
42029SOL    HW132945  11.706   9.000  11.894  3.7495  0.8270 -0.9116
42029SOL    HW232946  11.652   9.059  11.766  1.2571 -0.2253 -0.4107
42030SOL     OW32947   6.484   2.852   8.774 -0.0119  0.0509  0.5480
42030SOL    HW132948   6.564   2.864   8.825 -0.3350  0.6821  0.9295
42030SOL    HW232949   6.467   2.938   8.735 -0.1971 -0.2237  0.0118
42031SOL     OW32950   7.163   3.924   8.114  0.1748  0.1780 -0.4706
42031SOL    HW132951   7.238   3.950   8.166  0.0722 -1.1930  0.4151
42031SOL    HW232952   7.192   3.932   8.023  1.9606 -1.7869 -0.1430
42032SOL     OW32953   5.645   9.721   2.115 -0.4276  0.0394 -0.0197
42032SOL    HW132954   5.662   9.743   2.024  2.1506 -2.9319 -0.4001
42032SOL    HW232955   5.714   9.765   2.164  0.0942 -0.8817  0.0930
42033SOL     OW32956   0.006   1.916   6.502 -0.0586  0.2088 -0.9107
42033SOL    HW132957   0.072   1.887   6.439 -0.0228 -1.4011 -0.1771
42033SOL    HW232958  -0.043   1.837   6.524 -0.4417  0.8427  0.6413
42034SOL     OW32959  10.251   7.900   6.324 -0.4703  0.3185 -0.7811
42034SOL    HW132960  10.278   7.808   6.319 -0.2180  0.3697 -0.3842
42034SOL    HW232961  10.156   7.896   6.331 -0.4864  0.1001 -1.0786
42035SOL     OW32962  10.672   5.013   5.825 -0.0840 -0.4871  0.8606
42035SOL    HW132963  10.636   5.100   5.844 -1.5769 -0.4756 -1.5597
42035SOL    HW232964  10.618   4.953   5.875 -2.1321 -0.2793 -0.9275
42036SOL     OW32965  10.609  10.094   4.613 -0.0062  0.1128  0.2213
42036SOL    HW132966  10.565  10.019   4.573  0.4528  1.4818 -3.1973
42036SOL    HW232967  10.698  10.063   4.631 -0.1078 -0.4302 -0.1877
42037SOL     OW32968   8.429  10.075  10.075  0.0922  0.2468  0.1153
42037SOL    HW132969   8.382  10.126  10.008  2.3636  1.7195 -0.4727
42037SOL    HW232970   8.426   9.985  10.043  2.2158  1.0642 -2.7757
42038SOL     OW32971  11.501   3.933   2.795  0.1982 -0.3904 -0.0172
42038SOL    HW132972  11.435   4.003   2.789  1.9339  1.2736 -0.7525
42038SOL    HW232973  11.518   3.924   2.889  0.5022  0.7567  0.0541
42039SOL     OW32974   0.663   3.368   2.028  0.3488  0.4246 -0.6336
42039SOL    HW132975   0.711   3.404   1.954  0.6657 -0.9208 -1.1128
42039SOL    HW232976   0.572   3.397   2.015  0.7505  1.8358 -0.4543
42040SOL     OW32977   1.349  12.041   3.640 -0.2393  0.2220  0.4468
42040SOL    HW132978   1.254  12.052   3.652 -0.2483 -0.9273  1.6954
42040SOL    HW232979   1.382  12.024   3.728  0.8049 -1.5429 -0.2435
42041SOL     OW32980   5.141   2.388   4.222  0.1665  0.6544 -0.0969
42041SOL    HW132981   5.200   2.356   4.291 -0.1494  0.2130 -0.0304
42041SOL    HW232982   5.086   2.453   4.265 -0.8529 -0.4972  0.3742
42042SOL     OW32983   3.091   8.443  11.843 -0.3968  0.2704  0.1847
42042SOL    HW132984   3.058   8.481  11.925 -0.7339  0.3511  0.0147
42042SOL    HW232985   3.103   8.519  11.785  0.8875  0.3324  0.5136
42043SOL     OW32986   0.963  12.462   0.283  0.9940 -0.4435  0.5205
42043SOL    HW132987   0.964  12.487   0.191  0.5435 -0.5892  0.4778
42043SOL    HW232988   1.056  12.448   0.304  1.0413 -1.1204 -0.0982
42044SOL     OW32989   7.204   9.661  12.353  0.0754  0.2666 -0.9325
42044SOL    HW132990   7.281   9.605  12.362  0.7008  1.0251 -1.5094
42044SOL    HW232991   7.137   9.604  12.315  0.7542 -0.0518 -1.6707
42045SOL     OW32992   2.717   5.894   2.039 -0.5298  0.1014  0.3360
42045SOL    HW132993   2.631   5.921   2.072 -0.0579 -0.2683  1.9923
42045SOL    HW232994   2.724   5.802   2.065 -0.5260 -0.5545 -1.7853
42046SOL     OW32995   2.747   6.393   9.982 -0.1944 -0.0537 -0.0427
42046SOL    HW132996   2.843   6.398   9.991  0.0937 -3.4916  0.4222
42046SOL    HW232997   2.728   6.432   9.897  1.6098  0.8464 -0.0728
42047SOL     OW32998   1.743  10.122  11.707  0.6735 -0.7311 -0.0371
42047SOL    HW132999   1.674  10.133  11.642 -0.6095 -1.7153  1.0974
42047SOL    HW233000   1.785  10.208  11.714 -0.7443  0.0115 -0.4139
42048SOL     OW33001   1.199   0.835  12.415 -0.2903 -0.6154  0.2319
42048SOL    HW133002   1.213   0.913  12.363  0.3516 -1.3136 -0.6828
42048SOL    HW233003   1.114   0.848  12.458  0.0532  0.7896  0.5081
42049SOL     OW33004   0.168   1.116   9.928 -0.0606 -0.5972 -0.2754
42049SOL    HW133005   0.251   1.070   9.941 -0.1344 -0.6898 -0.1296
42049SOL    HW233006   0.144   1.148  10.014 -0.5909 -1.2907 -0.1517
42050SOL     OW33007   5.365   5.622   5.768 -0.2355  0.1033 -0.0291
42050SOL    HW133008   5.325   5.584   5.689  0.7029 -0.2470 -0.3598
42050SOL    HW233009   5.405   5.703   5.737  0.1524 -0.0455  0.0770
42051SOL     OW33010   6.589   7.568   2.870  0.3394  0.0293  0.0014
42051SOL    HW133011   6.571   7.505   2.940 -0.8678 -0.3938 -0.6593
42051SOL    HW233012   6.589   7.653   2.913 -1.6811 -0.0978  0.3553
42052SOL     OW33013   0.415   7.959  10.500 -0.1489 -0.3117  0.3472
42052SOL    HW133014   0.447   7.968  10.411 -1.6798  0.4725 -0.1572
42052SOL    HW233015   0.390   7.867  10.509 -0.8151 -0.2075 -0.3432
42053SOL     OW33016   8.227   8.633   3.563  0.6710  0.3851  0.0069
42053SOL    HW133017   8.229   8.568   3.493  0.6189  0.7104 -0.3010
42053SOL    HW233018   8.165   8.699   3.533  0.0229  0.1254  0.7268
42054SOL     OW33019   6.808   0.767  12.101 -0.2547 -0.1023 -0.1677
42054SOL    HW133020   6.793   0.673  12.108  0.1857 -0.2030 -0.4924
42054SOL    HW233021   6.763   0.793  12.020 -1.3944  0.1973  0.5329
42055SOL     OW33022   7.490  11.933   1.335 -0.3497  0.0148 -0.4020
42055SOL    HW133023   7.451  12.009   1.379  0.2182 -0.2404  0.5618
42055SOL    HW233024   7.416  11.890   1.292 -1.1415 -0.3321  1.2101
42056SOL     OW33025   8.339   5.798  11.953  0.1380  0.1435  0.5361
42056SOL    HW133026   8.389   5.722  11.981  1.0056  1.2086  1.9810
42056SOL    HW233027   8.281   5.818  12.027 -2.7218 -1.2160 -1.1744
42057SOL     OW33028   3.644   2.671   0.095 -0.1902  0.2472  0.6674
42057SOL    HW133029   3.670   2.693   0.185  0.2623 -0.9707  0.8573
42057SOL    HW233030   3.655   2.576   0.090 -0.3050  0.2893 -0.6507
42058SOL     OW33031   9.475   3.154   1.527  0.2591  0.0178  0.0672
42058SOL    HW133032   9.384   3.138   1.551 -0.6325 -2.0341 -3.7948
42058SOL    HW233033   9.512   3.067   1.514  1.8008  0.8283 -1.4120
42059SOL     OW33034   8.629  11.499   8.112  0.0687 -0.3065  0.5713
42059SOL    HW133035   8.591  11.422   8.071  0.3934 -0.2993  0.2486
42059SOL    HW233036   8.575  11.515   8.189  2.2810 -3.2458  2.9607
42060SOL     OW33037   1.729   4.247   8.907  0.6310 -0.5747 -0.6233
42060SOL    HW133038   1.656   4.185   8.911  0.2745 -0.1846 -1.0165
42060SOL    HW233039   1.775   4.224   8.826 -0.4625  0.7178 -1.6616
42061SOL     OW33040   1.175   3.239  12.030  0.1532  0.7947 -0.4991
42061SOL    HW133041   1.143   3.234  12.120 -0.8358 -3.2051 -0.8685
42061SOL    HW233042   1.271   3.238  12.038  0.1135  2.4203  0.4802
42062SOL     OW33043  11.451   8.314   4.641  0.6629 -0.2332 -0.2755
42062SOL    HW133044  11.493   8.400   4.647  1.7495 -0.6663 -1.0920
42062SOL    HW233045  11.523   8.255   4.616 -0.2787 -1.1783 -0.8120
42063SOL     OW33046   1.283   9.304   1.001 -0.4143 -0.3755  0.0912
42063SOL    HW133047   1.342   9.284   0.928 -0.2802  0.2820  0.0103
42063SOL    HW233048   1.195   9.300   0.963 -0.3114  0.7506 -0.3246
42064SOL     OW33049  12.332   5.086   7.303 -0.1063 -0.0109 -0.1969
42064SOL    HW133050  12.386   5.156   7.341 -0.9631 -0.0107  1.0742
42064SOL    HW233051  12.242   5.117   7.313 -0.4246 -0.6711 -0.9371
42065SOL     OW33052  10.330   1.025   5.187  0.5177 -0.2511  0.1160
42065SOL    HW133053  10.282   0.943   5.172 -0.8171  0.9048 -2.7613
42065SOL    HW233054  10.409   1.016   5.134  0.2993  0.3368 -0.3216
42066SOL     OW33055   2.446   0.068   0.222  0.0423 -0.1975 -0.0715
42066SOL    HW133056   2.468   0.153   0.258  2.1105  0.9735 -3.5952
42066SOL    HW233057   2.529   0.022   0.216 -0.5023 -1.1013 -1.2827
42067SOL     OW33058   9.577   1.397   7.911 -0.8699  0.2813  0.3269
42067SOL    HW133059   9.502   1.338   7.896  0.0237 -0.8395  0.1198
42067SOL    HW233060   9.599   1.430   7.823 -1.0812  0.5728  0.3813
42068SOL     OW33061   9.239   6.340   4.934 -0.0495 -0.3646 -0.1206
42068SOL    HW133062   9.238   6.253   4.974  1.3844 -0.0891  0.6006
42068SOL    HW233063   9.320   6.341   4.881 -0.0951  0.4926 -0.1931
42069SOL     OW33064   9.940   7.712   5.034 -0.3456 -0.3414 -0.4690
42069SOL    HW133065   9.891   7.711   5.116 -1.4148  1.5664 -1.0105
42069SOL    HW233066  10.018   7.765   5.053 -1.3057  1.3260 -0.9997
42070SOL     OW33067  12.037   2.059   0.640  0.4459 -0.7077  0.1498
42070SOL    HW133068  12.035   2.044   0.545  0.2259 -0.8318  0.1743
42070SOL    HW233069  11.994   1.982   0.677 -0.0577 -0.3466  0.3146
42071SOL     OW33070   4.516   5.494   7.665  0.0432 -0.1816 -0.7461
42071SOL    HW133071   4.591   5.513   7.720 -1.2426 -0.3415  1.1811
42071SOL    HW233072   4.508   5.399   7.667 -0.8965 -0.1054  0.0984
42072SOL     OW33073   2.886   2.610   0.406 -0.6191  0.2939  0.1920
42072SOL    HW133074   2.980   2.623   0.391 -0.4869 -1.2115 -0.4115
42072SOL    HW233075   2.877   2.608   0.501 -0.0667  0.5875  0.2535
42073SOL     OW33076   6.304   8.425   1.728 -0.3853  0.2230  0.6763
42073SOL    HW133077   6.371   8.361   1.753 -1.0966 -0.3420  1.1693
42073SOL    HW233078   6.246   8.430   1.804 -1.9964 -0.7308 -0.4356
42074SOL     OW33079   5.110   6.870   0.580  0.2149  0.3215  0.6425
42074SOL    HW133080   5.032   6.901   0.626  0.0727 -0.6839  1.1035
42074SOL    HW233081   5.084   6.868   0.488  0.2826  1.6843  0.5668
42075SOL     OW33082   8.801   9.404  10.974 -0.0967 -0.4053 -0.3984
42075SOL    HW133083   8.817   9.484  10.924 -0.8200 -0.1675 -0.2572
42075SOL    HW233084   8.717   9.419  11.017  0.4192 -0.6836  0.7350
42076SOL     OW33085   8.379   0.626  12.372 -0.4020  0.8071 -0.6151
42076SOL    HW133086   8.292   0.610  12.409 -0.1816  2.1821  0.5931
42076SOL    HW233087   8.409   0.705  12.416  0.5082  1.6911 -2.7231
42077SOL     OW33088   3.514   9.343   2.959 -0.3592 -0.3851 -0.0142
42077SOL    HW133089   3.461   9.319   3.035 -0.0095  0.1487  0.4087
42077SOL    HW233090   3.594   9.291   2.969 -0.0162  0.2033  0.3715
42078SOL     OW33091   1.003   2.386   5.946 -0.6097  0.0497  0.2502
42078SOL    HW133092   1.010   2.360   6.038  0.9030  0.2466  0.2266
42078SOL    HW233093   0.910   2.399   5.931 -1.1882 -2.4522  1.0722
42079SOL     OW33094   4.653   6.601   1.024  0.5578 -0.5413  0.4966
42079SOL    HW133095   4.724   6.620   1.085  0.9563 -0.9562  0.1717
42079SOL    HW233096   4.683   6.524   0.976  0.9896  0.7028 -1.3509
42080SOL     OW33097   8.449   1.622   9.269  0.3907  0.4907 -0.2557
42080SOL    HW133098   8.527   1.570   9.248  0.3607 -0.2908  1.3681
42080SOL    HW233099   8.472   1.666   9.351 -1.4524 -1.1845  1.2578
42081SOL     OW33100   8.040   3.263   6.642 -0.0164 -0.4003 -0.1369
42081SOL    HW133101   7.947   3.272   6.664 -0.3431  0.8310 -1.7634
42081SOL    HW233102   8.040   3.216   6.558  0.6956  0.9009 -0.9033
42082SOL     OW33103   5.494   9.165   6.077 -0.1091 -0.2470  0.0647
42082SOL    HW133104   5.562   9.218   6.117  0.0831 -0.2839 -0.2095
42082SOL    HW233105   5.524   9.151   5.987 -1.1507  0.9698 -0.5235
42083SOL     OW33106   5.929   4.440   6.459 -0.0671 -0.3525  0.1887
42083SOL    HW133107   5.862   4.372   6.455 -0.5205  0.0995  0.0906
42083SOL    HW233108   5.933   4.476   6.370  1.4677 -1.4715 -0.2573
42084SOL     OW33109  11.479   1.384  10.236 -0.4076  0.1391  0.1556
42084SOL    HW133110  11.529   1.303  10.231 -1.8869 -0.9307  1.5586
42084SOL    HW233111  11.466   1.399  10.330  1.1613  2.9096  0.0391
42085SOL     OW33112   5.239   5.917   8.184 -0.0632 -0.3943 -0.0994
42085SOL    HW133113   5.156   5.964   8.194  0.8848  1.0411  1.6321
42085SOL    HW233114   5.305   5.980   8.213  1.4951 -1.9824 -0.0995
42086SOL     OW33115  10.865   9.793   6.760  0.0447  0.1728  0.2378
42086SOL    HW133116  10.878   9.782   6.666 -0.1923 -0.8896  0.3198
42086SOL    HW233117  10.776   9.762   6.777  0.2392 -0.0629  0.8703
42087SOL     OW33118   4.995   3.464   1.335  0.0294  0.4573 -0.2053
42087SOL    HW133119   5.012   3.527   1.265 -1.6193 -0.0468 -1.1063
42087SOL    HW233120   4.928   3.406   1.300  0.0933 -0.6157  1.3294
42088SOL     OW33121  10.507   7.300  10.403  0.2054  0.3001  0.1571
42088SOL    HW133122  10.529   7.299  10.310  0.1748  0.0734  0.1530
42088SOL    HW233123  10.437   7.365  10.410  0.7835  0.9471  0.1505
42089SOL     OW33124   5.881   1.684   1.159  0.1420 -0.0568  0.6311
42089SOL    HW133125   5.888   1.600   1.204 -1.8842 -0.7995 -0.2887
42089SOL    HW233126   5.864   1.748   1.228 -0.4639 -0.7732  1.1632
42090SOL     OW33127   2.473   1.506   0.170 -1.0249  0.3103  0.4422
42090SOL    HW133128   2.440   1.535   0.084  0.0595  1.8408  0.5011
42090SOL    HW233129   2.447   1.575   0.230  2.3376  1.7685  0.4534
42091SOL     OW33130   5.287  12.196   9.128  0.2392  0.1812 -0.3072
42091SOL    HW133131   5.209  12.250   9.144  1.2947  2.7774 -2.9189
42091SOL    HW233132   5.337  12.201   9.209 -1.2669  0.2691  0.6647
42092SOL     OW33133  11.378   2.799  10.348 -0.7396 -0.4197 -0.0598
42092SOL    HW133134  11.290   2.766  10.328 -0.5062 -0.8518 -0.3782
42092SOL    HW233135  11.422   2.805  10.263 -0.5706  0.1308  0.0599
42093SOL     OW33136   5.135  10.866  11.244 -0.7754  0.6629  0.0097
42093SOL    HW133137   5.161  10.949  11.283 -0.2399  1.1865 -1.4071
42093SOL    HW233138   5.094  10.890  11.161  0.6132 -0.5070 -1.0830
42094SOL     OW33139   5.038   5.650   0.142 -0.3357 -0.3392  0.2258
42094SOL    HW133140   5.050   5.557   0.161 -2.0430 -1.2830 -2.5642
42094SOL    HW233141   5.110   5.672   0.083 -1.5198 -0.7769 -1.4531
42095SOL     OW33142   5.579   1.680   8.986  0.0827  0.1030  0.2300
42095SOL    HW133143   5.520   1.652   9.057  0.2114  2.4667  1.3623
42095SOL    HW233144   5.667   1.665   9.021  0.1679 -0.4773 -0.2129
42096SOL     OW33145   2.607   9.193   2.284 -0.1992 -0.1893 -0.0644
42096SOL    HW133146   2.623   9.241   2.203  0.1519  0.1596  0.2113
42096SOL    HW233147   2.574   9.258   2.345  0.6160 -0.2173  0.4187
42097SOL     OW33148   8.959  11.783   2.099  0.0209 -0.2638  0.2867
42097SOL    HW133149   9.024  11.853   2.105  0.9263 -1.1209  0.8014
42097SOL    HW233150   8.899  11.812   2.030  0.3049  1.0601  0.5633
42098SOL     OW33151   8.002   5.861   9.834 -0.4240 -0.3708 -0.0272
42098SOL    HW133152   7.984   5.843   9.742  1.0305  0.2903 -0.4714
42098SOL    HW233153   8.019   5.776   9.873 -1.9295 -0.7502 -0.1381
42099SOL     OW33154   8.509  10.591   3.602  0.7450  0.4570  0.0152
42099SOL    HW133155   8.566  10.666   3.583 -0.4549  1.8182  1.4416
42099SOL    HW233156   8.429  10.630   3.638  0.4257 -1.5431  1.6833
42100SOL     OW33157   0.214  11.992   4.185 -0.2659 -0.2841 -0.4681
42100SOL    HW133158   0.178  11.963   4.269  0.0630  1.4744  0.3117
42100SOL    HW233159   0.309  11.978   4.193  0.1341  2.4318  0.6029
42101SOL     OW33160   0.407   2.041   0.556  0.0105 -0.0832 -0.1677
42101SOL    HW133161   0.390   2.104   0.486 -0.0077  0.0558 -0.0387
42101SOL    HW233162   0.426   2.095   0.633  0.2882 -0.2346 -0.1279
42102SOL     OW33163   1.721   5.029   2.976  0.7183  0.4436 -0.0642
42102SOL    HW133164   1.794   5.091   2.976  0.2279  1.0416 -0.5779
42102SOL    HW233165   1.643   5.084   2.982  0.3107 -0.2121  1.0596
42103SOL     OW33166   6.091   4.249  11.068  0.5259  0.2840  0.0243
42103SOL    HW133167   6.075   4.205  10.984 -0.5357  0.5673  0.0617
42103SOL    HW233168   6.182   4.227  11.089  0.9724  0.5833 -1.4230
42104SOL     OW33169   7.044   2.034   5.190 -0.3856  0.5825 -0.2496
42104SOL    HW133170   7.044   1.984   5.108  0.3368  1.4149 -0.7717
42104SOL    HW233171   7.072   1.972   5.257  0.1823  0.1992 -0.8368
42105SOL     OW33172   0.999   3.383   3.461  0.0005 -0.6854 -0.3294
42105SOL    HW133173   1.060   3.415   3.527  1.4351  0.0327 -1.9286
42105SOL    HW233174   1.021   3.291   3.449 -1.4969 -1.3283  1.4508
42106SOL     OW33175   8.600   3.716   3.688  0.0883  0.2783  0.0739
42106SOL    HW133176   8.547   3.734   3.766 -0.1612 -1.0044  0.2333
42106SOL    HW233177   8.661   3.648   3.716 -0.1538 -0.3555 -0.9054
42107SOL     OW33178   6.981   4.350   2.675 -0.2590 -0.0698 -0.0796
42107SOL    HW133179   6.924   4.358   2.599 -0.4409 -0.0605  0.0561
42107SOL    HW233180   6.960   4.263   2.712 -2.5292  1.1389  1.8136
42108SOL     OW33181  10.433   8.813   7.997  0.3524 -0.3432  0.7389
42108SOL    HW133182  10.413   8.722   7.976 -0.9671 -0.0915  0.8388
42108SOL    HW233183  10.522   8.826   7.963 -0.2995 -1.0059 -1.3932
42109SOL     OW33184  10.909   4.521   9.815 -0.3881  0.9375 -0.1263
42109SOL    HW133185  10.843   4.571   9.767  0.3655  0.9093 -1.2292
42109SOL    HW233186  10.992   4.547   9.776  0.1941  0.3783  0.7049
42110SOL     OW33187   0.531   3.350   4.965 -0.2662 -0.0341  0.5231
42110SOL    HW133188   0.556   3.271   5.012 -1.5208 -1.0646 -0.4340
42110SOL    HW233189   0.442   3.332   4.933 -0.4470  1.6161 -0.0505
42111SOL     OW33190   6.299   3.257   6.782  0.2481  0.3057  0.1364
42111SOL    HW133191   6.305   3.351   6.800 -0.7282  0.5767 -0.7944
42111SOL    HW233192   6.222   3.228   6.831  0.6933 -0.0688  0.6219
42112SOL     OW33193  12.223   0.456   2.856  0.2038  0.1853 -0.2091
42112SOL    HW133194  12.202   0.517   2.927 -0.3251 -0.8093  0.5085
42112SOL    HW233195  12.190   0.499   2.777 -0.2004  0.8048  0.2886
42113SOL     OW33196   4.995   8.727   8.074  0.0818  0.1020  0.0476
42113SOL    HW133197   5.036   8.728   7.987 -0.0577  2.5135 -0.0362
42113SOL    HW233198   5.064   8.753   8.134 -0.5097  1.1532  0.2942
42114SOL     OW33199   1.426   6.255   3.090  0.6599 -0.5263 -0.0044
42114SOL    HW133200   1.361   6.195   3.053  0.2536  0.1577 -0.4261
42114SOL    HW233201   1.375   6.323   3.133  1.0816  0.0828 -0.4419
42115SOL     OW33202   7.225   1.536  11.286 -0.2635  0.4678  0.2375
42115SOL    HW133203   7.221   1.536  11.190  0.6974  0.0058  0.1883
42115SOL    HW233204   7.283   1.463  11.307 -0.9587  0.1740  1.2009
42116SOL     OW33205   2.825   4.176   6.011  0.0237  0.4395  0.7018
42116SOL    HW133206   2.872   4.202   6.091  1.7473  0.9705 -0.4387
42116SOL    HW233207   2.885   4.117   5.966 -1.6126 -1.2135  0.5483
42117SOL     OW33208   6.203   5.557   4.800 -0.7665 -0.6052  0.5067
42117SOL    HW133209   6.170   5.467   4.800  0.6592 -1.1572  1.3361
42117SOL    HW233210   6.221   5.576   4.892  1.3088 -0.3943  0.1083
42118SOL     OW33211   1.175   4.692   8.967 -0.2176 -0.1712 -0.4538
42118SOL    HW133212   1.259   4.704   8.923 -0.4771 -0.1632 -0.9573
42118SOL    HW233213   1.175   4.755   9.039  0.2076 -0.1771 -0.4480
42119SOL     OW33214   5.847  12.527   5.998  0.3647 -0.1705  0.0404
42119SOL    HW133215   5.897  12.465   5.945  2.8497  0.4270  1.4773
42119SOL    HW233216   5.816  12.592   5.936 -0.5465 -1.7240 -1.2128
42120SOL     OW33217   5.031   0.904   4.518  0.3339  0.0949  0.2433
42120SOL    HW133218   5.121   0.934   4.526  0.1825  0.1507  2.7444
42120SOL    HW233219   4.979   0.973   4.560 -0.5465 -1.1768  1.3371
42121SOL     OW33220   3.901   0.166   6.472 -0.3038  0.6594  0.5345
42121SOL    HW133221   3.991   0.194   6.454  0.4898 -2.3620 -0.9364
42121SOL    HW233222   3.852   0.191   6.394  0.5160 -2.1213 -1.0095
42122SOL     OW33223   9.078  10.581   1.056  0.5459 -0.0580 -0.5931
42122SOL    HW133224   9.051  10.598   0.966 -1.2407  5.0573  0.5725
42122SOL    HW233225   8.999  10.591   1.108  1.8492 -1.0938  1.7884
42123SOL     OW33226   3.944   5.315   0.335  0.1586 -0.1552  0.0485
42123SOL    HW133227   3.958   5.399   0.379  0.6123 -0.5917  0.7607
42123SOL    HW233228   3.992   5.323   0.253  1.6446 -0.3337  0.8777
42124SOL     OW33229   3.862  10.512   3.383  0.0500 -0.3323 -0.3774
42124SOL    HW133230   3.809  10.478   3.455 -0.2294  0.0252 -0.4136
42124SOL    HW233231   3.866  10.606   3.399 -2.2125  0.1672 -2.2389
42125SOL     OW33232   2.602   0.247   4.502 -0.0592 -0.2121  0.2006
42125SOL    HW133233   2.615   0.322   4.444 -0.7138 -1.0878 -1.1274
42125SOL    HW233234   2.650   0.270   4.582  1.4364  0.7495 -0.9200
42126SOL     OW33235  10.129   5.890   3.114  0.4459  0.0143 -0.0105
42126SOL    HW133236  10.130   5.961   3.050 -0.9865 -0.6704 -0.8563
42126SOL    HW233237  10.090   5.929   3.192  0.6773  0.4457 -0.1099
42127SOL     OW33238   0.138   3.643   6.517 -0.1270  0.5448  0.0880
42127SOL    HW133239   0.150   3.639   6.612 -1.4132  0.7474  0.2823
42127SOL    HW233240   0.225   3.662   6.482  0.2038  1.3575  1.2861
42128SOL     OW33241   8.150   1.403  11.272  0.1521  0.5617 -0.2319
42128SOL    HW133242   8.107   1.469  11.218 -1.7832 -1.7607 -1.7152
42128SOL    HW233243   8.081   1.369  11.329  0.8558 -0.7504 -0.1119
42129SOL     OW33244   3.150   4.405   9.803  0.3983 -0.0189 -0.2162
42129SOL    HW133245   3.132   4.354   9.882  0.9439  0.2094  0.0569
42129SOL    HW233246   3.187   4.342   9.742 -1.9288 -0.6741 -1.0511
42130SOL     OW33247   5.245   9.690   3.762  0.1425 -0.5839 -0.7011
42130SOL    HW133248   5.262   9.596   3.775  1.1883 -0.4539 -1.0152
42130SOL    HW233249   5.151   9.695   3.746 -0.2795 -1.3699  1.2181
42131SOL     OW33250   2.814  11.600   0.189  0.1475 -0.4938  0.0413
42131SOL    HW133251   2.780  11.516   0.218  0.8168 -0.5624  0.6602
42131SOL    HW233252   2.772  11.616   0.105  0.6373 -1.8502 -0.4841
42132SOL     OW33253   2.776   3.083  12.049  0.6218  0.3378 -0.4298
42132SOL    HW133254   2.751   3.175  12.059 -0.2380  0.3235 -2.1259
42132SOL    HW233255   2.776   3.068  11.955  0.2182 -1.5560 -0.1676
42133SOL     OW33256   9.151  11.420   8.307  0.2056  0.7661 -0.1573
42133SOL    HW133257   9.091  11.422   8.381  1.2703 -0.7897  0.8109
42133SOL    HW233258   9.123  11.344   8.255  1.4230 -0.1250  0.4344
42134SOL     OW33259   1.402   5.126   1.022 -0.0686  0.0482 -0.1052
42134SOL    HW133260   1.344   5.057   0.990 -1.6065  0.0651  2.3725
42134SOL    HW233261   1.490   5.087   1.017 -0.4037 -0.5883 -2.3937
42135SOL     OW33262   1.934   6.638   1.035  0.0879  0.1670 -0.1623
42135SOL    HW133263   1.844   6.667   1.019  0.1503 -0.3099 -1.5067
42135SOL    HW233264   1.984   6.671   0.960  0.8306 -0.4500  0.0456
42136SOL     OW33265  10.806   4.385   6.052  0.6761  0.0968 -0.4387
42136SOL    HW133266  10.746   4.342   6.113  1.8405 -0.3745  0.4066
42136SOL    HW233267  10.794   4.339   5.969 -0.6842  0.5261 -0.5146
42137SOL     OW33268   5.784  11.138   1.182  0.2210  0.1401  0.2681
42137SOL    HW133269   5.695  11.111   1.203  0.4998 -0.0166  1.3013
42137SOL    HW233270   5.840  11.082   1.236  0.9135  0.7829  0.2398
42138SOL     OW33271   5.457   4.574  11.845  0.2259 -0.7009 -0.0286
42138SOL    HW133272   5.397   4.533  11.908 -0.0204 -0.6273 -0.2141
42138SOL    HW233273   5.504   4.501  11.805 -1.3608 -0.9514 -1.5477
42139SOL     OW33274   9.311   1.334   4.348 -0.2398 -0.5406 -0.0489
42139SOL    HW133275   9.329   1.275   4.275 -0.3687  0.6499 -1.0877
42139SOL    HW233276   9.396   1.349   4.389  0.0937 -0.0547 -0.8942
42140SOL     OW33277   4.830   1.987   1.847  0.4990  0.1760  0.7704
42140SOL    HW133278   4.776   1.952   1.918 -1.4687  0.1576 -0.6481
42140SOL    HW233279   4.819   1.924   1.776 -0.0754  1.7104 -0.5618
42141SOL     OW33280  10.514   4.655   2.511  0.2524  0.3018  0.3175
42141SOL    HW133281  10.496   4.566   2.542 -2.6015  0.3413 -0.9003
42141SOL    HW233282  10.509   4.710   2.589 -0.0945 -0.3757  0.7812
42142SOL     OW33283   3.770  12.406   9.012 -0.2928  0.1299 -0.1746
42142SOL    HW133284   3.830  12.439   8.946  0.3631 -0.8741 -0.1010
42142SOL    HW233285   3.817  12.334   9.054 -1.9264 -1.4179 -0.8492
42143SOL     OW33286   2.537  12.146   9.694 -0.1739 -0.3537  0.2733
42143SOL    HW133287   2.512  12.079   9.630  0.4941 -0.5684  0.2359
42143SOL    HW233288   2.623  12.175   9.666  0.3740 -0.8450  1.3911
42144SOL     OW33289   0.058   4.284   2.151  0.0042 -0.0175 -0.4080
42144SOL    HW133290  -0.010   4.230   2.110 -1.1128  0.7831  0.3209
42144SOL    HW233291   0.029   4.374   2.137  0.9847  0.3461 -0.1763
42145SOL     OW33292  10.725   2.393   2.038  0.4123  0.3433 -0.1668
42145SOL    HW133293  10.706   2.379   2.130  2.4446  0.6037  0.3382
42145SOL    HW233294  10.777   2.317   2.013 -0.2104  0.2202 -1.1561
42146SOL     OW33295   8.478   5.549   3.779 -0.1207  0.0705  0.1154
42146SOL    HW133296   8.567   5.546   3.815 -0.3914 -0.7466  0.7308
42146SOL    HW233297   8.425   5.497   3.840 -0.3895 -2.3170 -1.9887
42147SOL     OW33298   5.956  12.225  10.216  0.3638  0.5636 -0.5176
42147SOL    HW133299   6.018  12.267  10.156 -0.7668  0.1448 -2.0501
42147SOL    HW233300   5.984  12.253  10.303  2.8846  0.1359 -1.0971
42148SOL     OW33301   6.620   2.581   9.438 -0.6772 -0.4471  0.5712
42148SOL    HW133302   6.645   2.672   9.420 -0.4291 -0.6943 -0.4436
42148SOL    HW233303   6.559   2.587   9.511 -1.6966  0.6762 -0.3199
42149SOL     OW33304   3.512  11.214   2.240 -0.1323 -0.0103  0.2276
42149SOL    HW133305   3.561  11.293   2.216 -1.3228  1.0832  1.2764
42149SOL    HW233306   3.430  11.220   2.191  0.1576 -1.1230 -0.4393
42150SOL     OW33307   0.682   8.420   0.487  0.0608 -0.2385  0.4283
42150SOL    HW133308   0.590   8.449   0.488 -0.2596 -0.7655 -3.1486
42150SOL    HW233309   0.677   8.325   0.484  0.7436 -0.2778  0.4221
42151SOL     OW33310   4.981   2.953   2.475 -0.2213  0.4142 -0.2382
42151SOL    HW133311   4.965   3.028   2.418 -2.2885 -0.3751 -0.8225
42151SOL    HW233312   4.897   2.905   2.475  0.1237 -0.3575  2.3844
42152SOL     OW33313   6.762   9.457  11.225  0.4075 -0.2667  0.8810
42152SOL    HW133314   6.815   9.412  11.160 -1.8886 -0.4721 -0.9782
42152SOL    HW233315   6.717   9.387  11.272 -0.0143 -0.0324  0.8276
42153SOL     OW33316   2.876   9.313  10.750  0.5519  0.5231  0.3413
42153SOL    HW133317   2.958   9.296  10.796  0.6816 -0.4945 -0.2364
42153SOL    HW233318   2.811   9.262  10.798  0.8828 -1.4620 -1.2132
42154SOL     OW33319   3.956  12.092  10.225  0.1355  0.1424  0.3727
42154SOL    HW133320   3.914  12.177  10.214  3.8084  1.9829 -0.7182
42154SOL    HW233321   3.995  12.096  10.312  3.8773  1.4768 -1.1904
42155SOL     OW33322   9.665  11.368   3.103  0.1097  0.1314 -0.0910
42155SOL    HW133323   9.588  11.368   3.160  1.4765  0.2896  1.8445
42155SOL    HW233324   9.639  11.315   3.028 -1.3768 -1.1232  1.2314
42156SOL     OW33325   8.015   8.539  12.246 -0.3126 -0.1940 -0.2842
42156SOL    HW133326   8.039   8.573  12.159 -2.2466 -0.8263 -1.1222
42156SOL    HW233327   8.004   8.617  12.300  1.2702  0.1955 -0.4748
42157SOL     OW33328   1.246   0.866   6.394 -0.1073  0.2088 -0.0595
42157SOL    HW133329   1.268   0.906   6.478 -0.2358 -2.8298  1.5599
42157SOL    HW233330   1.327   0.826   6.365 -0.3858  0.1259 -0.7321
42158SOL     OW33331  10.951  11.326   3.951  0.5153 -0.4822 -0.3586
42158SOL    HW133332  11.031  11.315   4.001  1.4998 -0.2846 -1.8315
42158SOL    HW233333  10.924  11.416   3.969  0.0307 -0.8755  0.9519
42159SOL     OW33334   3.708   2.449   3.231  0.0816  0.2469  0.3242
42159SOL    HW133335   3.612   2.442   3.226  0.1134  0.5775 -1.3653
42159SOL    HW233336   3.739   2.402   3.153  1.2446  0.9961  0.3252
42160SOL     OW33337   7.160   6.842   4.481 -0.3286  0.0198 -0.5420
42160SOL    HW133338   7.124   6.773   4.536 -1.5790  0.9619 -0.1396
42160SOL    HW233339   7.152   6.808   4.392 -0.4943 -0.5367 -0.3194
42161SOL     OW33340  11.703   5.362   2.787 -0.0781  0.1377 -0.0272
42161SOL    HW133341  11.770   5.338   2.851  0.8128  0.3732 -0.8455
42161SOL    HW233342  11.664   5.279   2.760  1.4159 -0.2527 -1.1536
42162SOL     OW33343   8.540   4.432   1.453 -0.2727  0.0006 -0.8456
42162SOL    HW133344   8.522   4.523   1.479  0.1661 -0.6553  2.0926
42162SOL    HW233345   8.457   4.387   1.463 -0.5878  0.1080 -2.7012
42163SOL     OW33346   7.285   5.783   9.335 -0.4338  0.3144 -0.2422
42163SOL    HW133347   7.310   5.869   9.368 -0.6839 -0.3388  1.7861
42163SOL    HW233348   7.360   5.727   9.356 -1.4587 -0.5714  1.2333
42164SOL     OW33349  10.405   2.550   1.809 -0.7082  0.5767  0.2624
42164SOL    HW133350  10.470   2.613   1.840 -0.1502 -0.4173  1.1829
42164SOL    HW233351  10.326   2.572   1.859 -0.5621  0.6610  0.4608
42165SOL     OW33352   6.920  12.454   1.507 -0.2959 -0.3054  0.2555
42165SOL    HW133353   6.904  12.379   1.564 -0.4518  0.3665  1.1094
42165SOL    HW233354   6.836  12.499   1.503  0.6021  1.8571  2.7569
42166SOL     OW33355  11.791   9.903  12.271  1.1058  0.4506 -0.5419
42166SOL    HW133356  11.728   9.832  12.258 -0.0035  1.3410 -0.2810
42166SOL    HW233357  11.776   9.932  12.361  1.0456  1.4581 -0.8628
42167SOL     OW33358   3.189   5.356   7.419 -0.2656 -0.6443  0.3097
42167SOL    HW133359   3.223   5.398   7.498 -2.6870  0.3288  0.9405
42167SOL    HW233360   3.164   5.268   7.447  0.3927 -0.8670  0.2026
42168SOL     OW33361  12.152   5.029  11.383 -0.3522  0.0051  0.5357
42168SOL    HW133362  12.242   4.997  11.376 -0.8279 -1.5732  1.2073
42168SOL    HW233363  12.134   5.067  11.298  0.6398 -0.5153  0.0743
42169SOL     OW33364   2.036   8.558   0.800 -0.0365 -0.3586 -0.0473
42169SOL    HW133365   2.131   8.558   0.800 -0.0265 -0.5644  1.3645
42169SOL    HW233366   2.012   8.475   0.758  0.3943 -0.4296 -0.1608
42170SOL     OW33367   2.421   8.966   8.411 -0.2058 -0.2143  0.1021
42170SOL    HW133368   2.504   8.974   8.363  0.3565  0.7807  1.1969
42170SOL    HW233369   2.423   9.038   8.475 -1.6158 -0.5872  0.5998
42171SOL     OW33370   1.773   6.556   4.948 -0.2781  0.1343 -0.0499
42171SOL    HW133371   1.743   6.498   5.019 -0.4674 -3.4721 -2.7990
42171SOL    HW233372   1.722   6.636   4.959 -0.7391 -0.4785  3.4522
42172SOL     OW33373   6.083   0.037   2.769 -0.3723 -0.0676 -0.1588
42172SOL    HW133374   6.040  -0.036   2.724 -0.5739 -0.2802  0.3691
42172SOL    HW233375   6.092   0.105   2.702 -0.0686 -0.6198 -0.6891
42173SOL     OW33376   6.158   2.146   1.709  0.3604  0.4403  0.0547
42173SOL    HW133377   6.100   2.158   1.784  0.8409 -0.0772  0.5110
42173SOL    HW233378   6.212   2.225   1.707  0.4312  0.3969  0.3235
42174SOL     OW33379   8.276  12.083   0.620 -0.3012 -0.3482 -0.0865
42174SOL    HW133380   8.225  12.045   0.692 -0.5220 -0.9257 -0.5468
42174SOL    HW233381   8.268  12.020   0.549  0.0831  0.1275 -0.5550
42175SOL     OW33382   7.531   1.145   5.094  0.2471 -0.0485  0.3159
42175SOL    HW133383   7.570   1.202   5.160  0.2569 -0.6752  0.8511
42175SOL    HW233384   7.500   1.206   5.026 -0.2251  0.6474  1.1290
42176SOL     OW33385   8.242   2.640  10.494  0.3339  0.1287  0.0218
42176SOL    HW133386   8.292   2.630  10.413  0.0448  0.6847 -0.2274
42176SOL    HW233387   8.230   2.735  10.503  1.2242  0.1532  1.2361
42177SOL     OW33388   5.461   6.784   5.295  0.3158  0.7570  0.5295
42177SOL    HW133389   5.515   6.801   5.218  0.5959  0.2708  0.6135
42177SOL    HW233390   5.493   6.846   5.361  0.4062  0.8375  0.4099
42178SOL     OW33391   7.556   9.253   3.374  0.9073  0.3620  0.4733
42178SOL    HW133392   7.545   9.249   3.279 -1.4623 -0.7996  0.7251
42178SOL    HW233393   7.511   9.334   3.400  2.8869  1.5087  0.5176
42179SOL     OW33394   5.687   8.554   3.596  0.1838  0.5232  0.3425
42179SOL    HW133395   5.748   8.528   3.527 -0.4639 -1.2421  0.4025
42179SOL    HW233396   5.739   8.550   3.677  1.1261  3.2040  0.0002
42180SOL     OW33397   3.387   1.002   8.988  0.1887  0.0888 -0.1942
42180SOL    HW133398   3.345   0.922   8.956 -1.5554  1.0590 -0.4713
42180SOL    HW233399   3.398   0.987   9.082 -2.2331  0.3359  0.2018
42181SOL     OW33400   3.583   9.273   9.608 -0.7055  0.3659 -0.3771
42181SOL    HW133401   3.548   9.322   9.683 -0.2084  0.9453 -0.5135
42181SOL    HW233402   3.649   9.332   9.570 -1.0445  0.1238 -1.3484
42182SOL     OW33403   8.888   8.788   3.963  0.0937  0.2659 -0.4640
42182SOL    HW133404   8.875   8.701   3.925 -0.7703 -0.6414  1.7248
42182SOL    HW233405   8.847   8.783   4.049  3.1230  1.6888  1.2450
42183SOL     OW33406   6.079   7.147   2.650 -0.0835 -0.2590  0.0846
42183SOL    HW133407   6.140   7.074   2.666 -1.4065 -1.7878 -1.4793
42183SOL    HW233408   6.003   7.106   2.611 -0.4108  2.1334 -2.0038
42184SOL     OW33409   1.914   7.559   6.993  0.3135  0.1017 -0.0926
42184SOL    HW133410   1.955   7.590   7.073 -1.9733  0.4893  1.0202
42184SOL    HW233411   1.848   7.496   7.023 -0.0416 -0.3642 -1.7450
42185SOL     OW33412   9.978   5.554  12.424  0.1046  0.4344  0.1103
42185SOL    HW133413   9.952   5.494  12.355 -0.1368  0.1383  0.4561
42185SOL    HW233414   9.964   5.505  12.505 -1.9145  1.5759  0.5264
42186SOL     OW33415   8.408   6.120   8.472 -0.0842  0.5472  0.4296
42186SOL    HW133416   8.357   6.046   8.503  0.6107  0.1052  0.5454
42186SOL    HW233417   8.493   6.083   8.447  0.2394  1.2811  0.3855
42187SOL     OW33418  10.782   4.440   1.871 -0.1338  0.3734  0.4254
42187SOL    HW133419  10.727   4.513   1.843 -0.0701  0.7580  1.2741
42187SOL    HW233420  10.846   4.479   1.931  2.2324  0.2837 -1.8411
42188SOL     OW33421  12.536   9.759   2.632 -0.2975  0.4569  0.3964
42188SOL    HW133422  12.466   9.694   2.638  0.0419  0.2162  2.6290
42188SOL    HW233423  12.547   9.790   2.722  1.7284  1.2993 -0.0900
42189SOL     OW33424   4.305   2.109   2.004  0.2159 -0.4167  0.2485
42189SOL    HW133425   4.362   2.154   2.066 -0.6050  0.3492  0.4643
42189SOL    HW233426   4.256   2.179   1.961  1.1582 -0.8712 -1.6937
42190SOL     OW33427   2.909  10.500   3.673 -0.0210 -0.2426 -0.6624
42190SOL    HW133428   2.879  10.448   3.747 -0.7766  1.5926  0.3943
42190SOL    HW233429   2.828  10.535   3.634  0.4963  1.6677 -0.1346
42191SOL     OW33430   1.495   2.004  12.564  0.1531 -0.0861 -0.3622
42191SOL    HW133431   1.415   2.054  12.581  0.8307  0.9055  0.0324
42191SOL    HW233432   1.499   1.942  12.636 -0.2803 -0.1709 -0.4059
42192SOL     OW33433   0.306   9.171   8.701 -0.3693  0.6250 -0.2805
42192SOL    HW133434   0.304   9.138   8.791 -0.2346 -0.9851 -0.8357
42192SOL    HW233435   0.216   9.201   8.685 -0.5247  0.4436  0.2214
42193SOL     OW33436   5.666   9.739   7.381  0.1205  0.6927 -0.2261
42193SOL    HW133437   5.672   9.669   7.447 -1.2481 -1.3165 -2.1105
42193SOL    HW233438   5.653   9.819   7.433 -1.7930 -0.8935  1.9574
42194SOL     OW33439  12.051  10.342   9.439 -0.4485 -0.1172  0.3269
42194SOL    HW133440  11.963  10.370   9.462 -0.7962 -0.4364 -0.5543
42194SOL    HW233441  12.061  10.257   9.482 -1.1698 -0.8102 -0.8237
42195SOL     OW33442   8.445   0.451   1.743  0.1561  0.1010 -0.0561
42195SOL    HW133443   8.412   0.474   1.830  1.0267 -1.0370  0.6070
42195SOL    HW233444   8.505   0.378   1.759  0.5198  0.0335 -1.5919
42196SOL     OW33445   4.561   5.508   6.929  0.0949  0.0437 -0.1943
42196SOL    HW133446   4.597   5.582   6.881  0.4792  0.1228  0.2148
42196SOL    HW233447   4.478   5.489   6.885  0.3790  0.2031 -0.7969
42197SOL     OW33448   0.741   0.751   3.784  0.3416 -0.1978  0.0246
42197SOL    HW133449   0.814   0.798   3.824 -0.8199  1.2782  0.5056
42197SOL    HW233450   0.681   0.733   3.857 -0.1383 -0.6881 -0.4804
42198SOL     OW33451   2.293   9.652   2.268 -0.0389  0.0649  0.0885
42198SOL    HW133452   2.287   9.746   2.248  1.0103 -0.2027 -1.6785
42198SOL    HW233453   2.202   9.624   2.279 -0.4568  1.0252 -0.7357
42199SOL     OW33454   3.585   9.773   8.927  0.0464 -0.1386 -0.4847
42199SOL    HW133455   3.645   9.837   8.889  0.3312  0.1695  0.4509
42199SOL    HW233456   3.632   9.740   9.004 -0.6435 -0.5052 -0.2136
42200SOL     OW33457   0.362   9.410  11.989  0.1768 -0.5246  0.4366
42200SOL    HW133458   0.290   9.355  11.956  0.4980 -1.8267  1.7731
42200SOL    HW233459   0.441   9.373  11.949  0.1735  0.6680 -0.7342
42201SOL     OW33460   8.501   6.429   1.580  0.3882 -0.6542  0.1207
42201SOL    HW133461   8.451   6.392   1.507  0.5583  0.1229 -0.3954
42201SOL    HW233462   8.582   6.378   1.580  0.1407 -1.0567  0.1521
42202SOL     OW33463  10.026   0.836   4.286  0.0650  0.3076  0.3237
42202SOL    HW133464   9.960   0.875   4.343 -0.2601 -0.6972  0.6397
42202SOL    HW233465   9.994   0.852   4.197 -0.7206 -0.3688  0.4800
42203SOL     OW33466   0.103   7.140   6.574 -0.2201  0.2829  0.1676
42203SOL    HW133467   0.191   7.159   6.541 -0.4077  1.9546  0.5543
42203SOL    HW233468   0.114   7.062   6.628  0.7334 -0.4090 -0.9647
42204SOL     OW33469   8.276   6.312  11.860  0.1648  0.0817  0.7942
42204SOL    HW133470   8.344   6.379  11.861 -0.7564  1.0531  1.4269
42204SOL    HW233471   8.211   6.345  11.798 -0.2732 -0.2358  1.0719
42205SOL     OW33472   0.603   6.839   0.020  0.0004  0.0986  0.1997
42205SOL    HW133473   0.567   6.789   0.093 -0.2326  0.1485  0.1168
42205SOL    HW233474   0.648   6.913   0.062  1.2643 -0.7375  0.3970
42206SOL     OW33475   3.700  11.523   7.684 -0.0386  0.2175  0.2982
42206SOL    HW133476   3.772  11.548   7.625 -0.7784  1.0745 -0.2836
42206SOL    HW233477   3.675  11.605   7.726 -0.5444 -0.1095  0.6375
42207SOL     OW33478   1.153   7.588   7.152  0.1498  0.2904 -0.6593
42207SOL    HW133479   1.164   7.596   7.247  1.9812  0.6068 -0.8613
42207SOL    HW233480   1.157   7.494   7.135 -0.2929  0.2253 -0.4226
42208SOL     OW33481   1.697   6.999   4.917  0.6211 -0.3585 -0.6704
42208SOL    HW133482   1.666   7.059   4.984 -0.2755  0.6957 -1.9785
42208SOL    HW233483   1.636   6.925   4.920  0.4265 -0.1913 -0.5285
42209SOL     OW33484  10.981   5.078  10.182  0.2698 -0.8026  0.1240
42209SOL    HW133485  11.056   5.037  10.225  0.4497 -0.4975  0.1042
42209SOL    HW233486  10.959   5.153  10.238  1.8007  0.8382 -1.3739
42210SOL     OW33487   3.908  11.834   8.783  0.2262 -0.1828  0.4852
42210SOL    HW133488   3.873  11.806   8.868  0.0777 -1.0005  0.1610
42210SOL    HW233489   3.946  11.755   8.746 -1.1764 -0.2440 -0.9378
42211SOL     OW33490   0.575  12.191  12.272  0.1383 -0.0041 -0.4144
42211SOL    HW133491   0.536  12.129  12.334 -1.9796  0.1361 -1.5156
42211SOL    HW233492   0.539  12.165  12.187  1.4695  0.9941 -1.3223
42212SOL     OW33493  12.053   8.034   3.334  0.2071 -0.1613  0.7248
42212SOL    HW133494  12.099   8.014   3.252  0.1797 -3.8182  1.4597
42212SOL    HW233495  11.961   8.043   3.308  0.2786 -0.7076  0.2556
42213SOL     OW33496   6.746   5.090  12.019  0.0776 -0.6627  0.5353
42213SOL    HW133497   6.819   5.073  12.079  0.4116  2.8745  1.3665
42213SOL    HW233498   6.782   5.074  11.932  1.4462 -0.3422  1.0133
42214SOL     OW33499   5.553   7.693   8.406 -0.2144 -0.4640 -0.2072
42214SOL    HW133500   5.531   7.768   8.350 -3.6196 -0.1456  1.2578
42214SOL    HW233501   5.636   7.660   8.372 -0.0047  2.2434 -2.6913
42215SOL     OW33502   5.573   5.517   7.045 -0.3335  0.4171  0.3080
42215SOL    HW133503   5.594   5.521   7.139 -1.5835  2.6713  0.5776
42215SOL    HW233504   5.507   5.448   7.038  0.0543 -0.0377  1.0274
42216SOL     OW33505  11.246  11.745   1.754 -0.1481 -0.3701 -0.8412
42216SOL    HW133506  11.325  11.705   1.720  0.2232 -1.3449  1.0011
42216SOL    HW233507  11.176  11.710   1.699  0.5109 -0.9874 -1.3047
42217SOL     OW33508   8.755   4.041   9.906 -0.1005  0.0616  0.7509
42217SOL    HW133509   8.758   3.960   9.957  1.8398 -0.0021  0.6095
42217SOL    HW233510   8.685   4.092   9.946  1.2563 -0.0217  3.4472
42218SOL     OW33511   2.750   2.275   7.530  0.1226 -0.0163 -0.2436
42218SOL    HW133512   2.796   2.350   7.566  0.5842 -0.2709 -0.3039
42218SOL    HW233513   2.705   2.236   7.605 -1.3164  1.1498 -0.4386
42219SOL     OW33514   2.915   1.425   9.353  0.1614  0.1179  0.3604
42219SOL    HW133515   2.966   1.425   9.272 -0.4313 -2.4097 -0.0989
42219SOL    HW233516   2.836   1.474   9.332  0.4427  0.3048 -0.2994
42220SOL     OW33517   7.497  10.066   4.514 -0.7770 -0.0454  0.2088
42220SOL    HW133518   7.463   9.976   4.511 -0.3061 -0.2131 -2.9287
42220SOL    HW233519   7.425  10.117   4.549 -1.5073 -1.4586  0.8789
42221SOL     OW33520   2.991  10.838   7.461  0.1768  0.4492  0.1612
42221SOL    HW133521   3.004  10.913   7.403  0.8663  0.1982 -0.0178
42221SOL    HW233522   2.905  10.804   7.438 -1.1842  2.5317  1.7812
42222SOL     OW33523   5.200  11.111   8.482 -0.1230 -0.2682 -0.0329
42222SOL    HW133524   5.229  11.136   8.570 -1.5508  3.3257 -0.3956
42222SOL    HW233525   5.111  11.078   8.495 -0.9344  1.7059 -0.1520
42223SOL     OW33526   2.468   3.224   2.740  0.4143  0.1681  0.1320
42223SOL    HW133527   2.455   3.208   2.834 -0.1144  0.6168  0.1384
42223SOL    HW233528   2.535   3.292   2.737 -0.1234  0.7163  0.2165
42224SOL     OW33529   7.688   5.625  11.939 -0.4195 -0.0939  0.4442
42224SOL    HW133530   7.661   5.716  11.932 -1.1693 -0.1684  1.9066
42224SOL    HW233531   7.640   5.580  11.870  1.1380  0.8169 -1.3210
42225SOL     OW33532   6.110   3.666   4.759 -0.5650 -0.3750  0.2366
42225SOL    HW133533   6.053   3.722   4.812 -0.8256 -1.4604  1.1233
42225SOL    HW233534   6.193   3.713   4.755  0.1585 -1.2031  3.3830
42226SOL     OW33535  10.938   8.790   0.049  0.0740  0.0412 -0.4737
42226SOL    HW133536  10.957   8.821   0.137 -0.2100 -0.3031 -0.2901
42226SOL    HW233537  10.929   8.695   0.058  1.2612 -0.1494 -1.0889
42227SOL     OW33538   4.985   3.776   6.515 -0.6197 -0.4458 -0.5495
42227SOL    HW133539   5.065   3.753   6.467  0.1769 -1.8952  1.3336
42227SOL    HW233540   4.915   3.733   6.467 -0.1746  0.0092 -1.6542
42228SOL     OW33541   0.969   5.924  11.199  0.1244  0.5890  0.4102
42228SOL    HW133542   1.051   5.878  11.213  0.7922  1.9327  1.0686
42228SOL    HW233543   0.917   5.905  11.277 -0.5620 -0.9684 -0.3928
42229SOL     OW33544  10.235   6.380   3.688  0.1866  0.1447 -0.0506
42229SOL    HW133545  10.279   6.447   3.741  0.8209 -0.5166  0.2763
42229SOL    HW233546  10.157   6.357   3.739  0.9067 -0.6451  0.7379
42230SOL     OW33547  12.381   1.446   7.384  0.2647  0.1853 -0.0814
42230SOL    HW133548  12.319   1.475   7.317  1.7332  0.0647 -1.5560
42230SOL    HW233549  12.414   1.526   7.424 -0.6743  0.2548  0.5875
42231SOL     OW33550   6.210   6.786   3.205 -0.5105 -0.1164 -0.0862
42231SOL    HW133551   6.302   6.789   3.232 -0.7011 -0.5151  0.6350
42231SOL    HW233552   6.167   6.735   3.273 -0.9686 -1.4283 -1.3185
42232SOL     OW33553   1.332   1.850   7.251  0.7241  0.7602 -0.6713
42232SOL    HW133554   1.261   1.908   7.278 -0.3444  0.0452 -1.8488
42232SOL    HW233555   1.355   1.879   7.163 -0.3600 -1.0136 -1.6000
42233SOL     OW33556  11.447   7.369   3.774  0.4599  0.1235  0.1381
42233SOL    HW133557  11.526   7.319   3.754 -0.2819 -0.5995 -1.0610
42233SOL    HW233558  11.444   7.372   3.870  1.0991 -1.1843  0.2109
42234SOL     OW33559   7.575   7.802  10.337 -0.6203  0.2590 -0.2057
42234SOL    HW133560   7.522   7.762  10.267 -3.1406  0.9750  1.1634
42234SOL    HW233561   7.626   7.730  10.372  0.1085 -0.2806 -2.2193
42235SOL     OW33562   3.269   7.516   4.439 -0.4119 -0.1285  0.1846
42235SOL    HW133563   3.192   7.478   4.480 -1.8305  0.9735 -1.3356
42235SOL    HW233564   3.277   7.469   4.356  0.8412 -0.5270  0.5038
42236SOL     OW33565   7.769  10.902   1.729  0.1111  0.0403  0.3670
42236SOL    HW133566   7.769  10.891   1.634  0.1416 -0.3738  0.4156
42236SOL    HW233567   7.716  10.980   1.744 -2.4917 -1.6036  0.2242
42237SOL     OW33568   6.463  10.161   3.583 -0.7954  0.7093 -0.0308
42237SOL    HW133569   6.533  10.175   3.647 -0.2179 -2.4937  0.2135
42237SOL    HW233570   6.386  10.140   3.636 -0.9889  0.6357 -0.3394
42238SOL     OW33571  12.050  10.352   0.524  0.0501  0.1950  0.5518
42238SOL    HW133572  12.086  10.349   0.435 -3.6999 -0.5030 -1.1510
42238SOL    HW233573  11.989  10.427   0.522 -0.9032 -0.5025  2.1510
42239SOL     OW33574   7.867   6.520   8.279  0.0013 -0.0099  0.2174
42239SOL    HW133575   7.917   6.570   8.215 -0.5489 -0.4021 -0.5388
42239SOL    HW233576   7.786   6.497   8.233  0.5789 -2.3138  0.2001
42240SOL     OW33577   9.884   6.873   4.861  0.3683  0.3555 -0.0859
42240SOL    HW133578   9.816   6.808   4.846  0.0691  0.3040  1.3294
42240SOL    HW233579   9.923   6.848   4.945  0.6721  1.6186  0.1736
42241SOL     OW33580   0.119   6.695   7.782 -0.2376  0.1511  0.4204
42241SOL    HW133581   0.085   6.700   7.693 -0.6161  1.5511  0.6157
42241SOL    HW233582   0.141   6.786   7.805 -0.1018 -0.1850  1.7344
42242SOL     OW33583   4.325   1.901   9.019  0.0145 -0.0432  0.0291
42242SOL    HW133584   4.271   1.828   9.049  0.7863 -0.6010  0.1039
42242SOL    HW233585   4.340   1.953   9.098 -0.1065 -0.0935  0.0856
42243SOL     OW33586   3.774   4.645   6.075  0.4922  0.0331  0.1754
42243SOL    HW133587   3.763   4.720   6.134  0.2615 -0.8524  1.2827
42243SOL    HW233588   3.724   4.669   5.997  0.8119  1.2371  0.3174
42244SOL     OW33589   4.412   2.147   5.679  0.2583 -0.1561 -0.2438
42244SOL    HW133590   4.345   2.083   5.700  0.2454 -0.4697 -1.1795
42244SOL    HW233591   4.394   2.171   5.588  2.6541 -1.8737 -1.2930
42245SOL     OW33592   6.237   3.000   2.787 -0.4728  0.1945  0.1355
42245SOL    HW133593   6.196   3.062   2.848 -0.9712 -1.3063  1.3815
42245SOL    HW233594   6.215   2.914   2.822 -0.8138 -0.7476 -2.2019
42246SOL     OW33595  10.707  11.602   2.159  0.2097  0.0801 -0.1954
42246SOL    HW133596  10.623  11.615   2.202  0.3085 -0.4745  0.1698
42246SOL    HW233597  10.687  11.544   2.086  0.2326  0.1718 -0.2760
42247SOL     OW33598   1.809   9.639   2.951  0.3958 -0.2109  0.2147
42247SOL    HW133599   1.837   9.558   2.910  1.3223 -0.3594  1.0965
42247SOL    HW233600   1.848   9.708   2.898 -0.0426 -0.3486 -0.2885
42248SOL     OW33601   4.537   0.172   2.551 -0.3040 -0.4893  0.2506
42248SOL    HW133602   4.542   0.136   2.639 -2.9850  0.7019  0.9871
42248SOL    HW233603   4.590   0.252   2.554 -0.3049 -0.5088  0.7581
42249SOL     OW33604  10.586   2.190   7.556 -0.7283 -0.5902  0.1455
42249SOL    HW133605  10.667   2.176   7.606 -2.2038 -0.6852  2.6839
42249SOL    HW233606  10.525   2.125   7.591 -1.7182 -1.0858 -2.3079
42250SOL     OW33607   1.478   2.266   8.969 -0.1793  0.1690 -0.6581
42250SOL    HW133608   1.565   2.245   9.002 -0.8060 -1.1814  0.2370
42250SOL    HW233609   1.481   2.245   8.876  0.3183 -0.3068 -0.5352
42251SOL     OW33610   8.455   5.441   9.145  0.1857  0.2842  0.1957
42251SOL    HW133611   8.444   5.383   9.221 -0.6026  0.3501  0.1398
42251SOL    HW233612   8.420   5.525   9.174  0.5246  0.5007 -0.0132
42252SOL     OW33613   0.509   8.142   5.307 -0.3749 -0.0935 -0.2150
42252SOL    HW133614   0.500   8.051   5.280  1.9433 -0.2097 -0.7898
42252SOL    HW233615   0.540   8.188   5.229  0.6953  0.7261  0.6603
42253SOL     OW33616   0.503   4.506  11.838  0.2773 -0.1143  0.0403
42253SOL    HW133617   0.578   4.527  11.895  0.5315 -0.4788 -0.1541
42253SOL    HW233618   0.523   4.551  11.756 -0.5121  1.1324  0.5126
42254SOL     OW33619  10.761   8.506   0.765  0.1236 -0.2672  0.4009
42254SOL    HW133620  10.706   8.452   0.822 -0.3299 -0.7901 -0.5120
42254SOL    HW233621  10.827   8.445   0.732 -0.7634 -0.4449 -1.1291
42255SOL     OW33622   5.422   0.690   2.930 -0.0604 -0.2361  0.4817
42255SOL    HW133623   5.400   0.688   2.837 -1.1093  0.6185  0.6944
42255SOL    HW233624   5.483   0.763   2.939 -1.0281  0.5674  0.6659
42256SOL     OW33625   3.561  11.971   6.643 -0.2015  0.1114  0.4331
42256SOL    HW133626   3.564  11.895   6.700 -3.4846 -1.1061 -0.7628
42256SOL    HW233627   3.646  11.972   6.599  1.8432  0.2309  4.0353
42257SOL     OW33628   4.257   9.328  12.447  0.1042 -0.1587  0.2279
42257SOL    HW133629   4.251   9.405  12.504  0.4540  0.7641 -0.9581
42257SOL    HW233630   4.206   9.261  12.493 -1.5038  1.2196  0.5714
42258SOL     OW33631   2.840   7.958   3.159  0.5242  0.7337  0.1032
42258SOL    HW133632   2.928   7.954   3.196 -0.3808  0.7492  2.4432
42258SOL    HW233633   2.809   8.046   3.179  0.5843  1.4024 -2.3760
42259SOL     OW33634   6.498   3.685   2.057  0.3454  0.2431 -0.6308
42259SOL    HW133635   6.580   3.669   2.104  0.3308  1.5011 -0.1572
42259SOL    HW233636   6.505   3.632   1.977  0.8047 -1.1190  0.2834
42260SOL     OW33637   5.839   4.860   5.748  0.1041 -0.1603  0.6887
42260SOL    HW133638   5.743   4.869   5.744  0.1497 -0.2148 -0.8136
42260SOL    HW233639   5.871   4.950   5.751  0.0440 -0.1196  0.1202
42261SOL     OW33640   3.761  10.187   2.020  0.1599  0.2877  0.4271
42261SOL    HW133641   3.766  10.251   2.091 -1.3117  0.4901  0.3750
42261SOL    HW233642   3.711  10.114   2.057  2.1511 -1.0484  0.6132
42262SOL     OW33643   5.474   5.776   9.469  0.0520 -0.6193 -0.6708
42262SOL    HW133644   5.552   5.738   9.508 -0.2882 -0.3834  0.2714
42262SOL    HW233645   5.411   5.705   9.467 -0.3204 -0.3356  0.3440
42263SOL     OW33646  12.058   1.938   5.916 -0.0388 -0.1449  0.4670
42263SOL    HW133647  12.063   1.883   5.994  0.5798 -0.0137  0.5247
42263SOL    HW233648  12.149   1.958   5.894 -0.2189  0.0877 -0.0997
42264SOL     OW33649   8.650   1.357   7.466  0.4370 -0.1280 -0.2719
42264SOL    HW133650   8.703   1.414   7.522 -0.7372  0.0475  0.7114
42264SOL    HW233651   8.640   1.406   7.384  0.5558  0.4920  0.0755
42265SOL     OW33652   6.230   4.096  11.692 -0.1933  0.2106  0.7074
42265SOL    HW133653   6.197   4.157  11.757  0.4890  0.0754  1.1865
42265SOL    HW233654   6.193   4.011  11.718 -0.4376  0.2634  0.5407
42266SOL     OW33655   6.047   6.559   6.861  0.0464  0.2273 -0.4435
42266SOL    HW133656   6.083   6.583   6.775 -1.4170 -0.1518 -1.1782
42266SOL    HW233657   5.958   6.593   6.860 -0.2924 -0.5925  0.5793
42267SOL     OW33658   9.210   8.534   5.805 -0.1779 -0.2769 -0.2406
42267SOL    HW133659   9.177   8.466   5.747  1.1006 -0.1540 -1.1797
42267SOL    HW233660   9.278   8.490   5.857 -0.7680 -0.1934  0.6238
42268SOL     OW33661   0.826   8.602   7.083 -0.1829  0.2325 -0.1890
42268SOL    HW133662   0.740   8.609   7.125 -0.2542  0.6973 -0.3991
42268SOL    HW233663   0.863   8.521   7.118 -0.2752  0.5580  0.6983
42269SOL     OW33664   8.145   7.843   9.486 -0.0665  0.0149 -0.3549
42269SOL    HW133665   8.217   7.781   9.477 -0.2672 -0.3031  0.1673
42269SOL    HW233666   8.122   7.840   9.579 -1.2421 -0.4511 -0.6446
42270SOL     OW33667   2.986   2.173   8.056 -0.1601  0.0763 -0.1315
42270SOL    HW133668   2.959   2.241   8.117 -1.3474 -0.6609  0.2026
42270SOL    HW233669   2.962   2.207   7.970  0.1125  0.4651 -0.0584
42271SOL     OW33670   9.202   0.802   3.921  0.6703 -0.4609  0.2474
42271SOL    HW133671   9.175   0.734   3.859  1.2633 -1.0174  0.5959
42271SOL    HW233672   9.292   0.780   3.944 -0.0605 -1.2758  2.6318
42272SOL     OW33673   5.392  10.065   4.549  0.4634 -0.3332  0.3660
42272SOL    HW133674   5.406  10.145   4.600  0.6669  1.3315 -2.1285
42272SOL    HW233675   5.480  10.037   4.525  0.3071 -0.0838 -0.5153
42273SOL     OW33676  11.959  10.962   1.837  0.2330  0.1725  0.3410
42273SOL    HW133677  12.023  10.894   1.856 -0.0976 -0.2955 -0.2159
42273SOL    HW233678  12.008  11.044   1.845  1.1573 -0.2122 -1.0711
42274SOL     OW33679   3.009   7.442   7.663  0.1194 -0.0045 -0.3914
42274SOL    HW133680   2.933   7.433   7.606  0.5593  1.0370 -1.1785
42274SOL    HW233681   3.080   7.399   7.616 -0.2842 -2.4722  1.0903
42275SOL     OW33682   9.024  11.153   6.762  0.0176 -0.1823  0.1159
42275SOL    HW133683   9.035  11.180   6.853  0.8045 -0.4542  0.1008
42275SOL    HW233684   9.086  11.206   6.713 -1.0391  0.6314 -0.4024
42276SOL     OW33685   9.104   2.674   3.794  0.3200 -0.1208 -0.2553
42276SOL    HW133686   9.109   2.592   3.844 -1.0664 -0.9452 -1.3917
42276SOL    HW233687   9.195   2.696   3.775  0.7443 -1.1051  0.5307
42277SOL     OW33688   6.871   0.381   5.636 -0.7660  0.6432  0.6727
42277SOL    HW133689   6.851   0.326   5.560 -1.7076 -0.2322  1.5197
42277SOL    HW233690   6.824   0.463   5.620 -2.6680 -0.2949  1.2403
42278SOL     OW33691  10.076   8.249   1.539  0.6119 -0.4467 -0.0069
42278SOL    HW133692  10.052   8.338   1.565 -1.8198 -1.1889  0.5670
42278SOL    HW233693  10.168   8.240   1.563  0.3284  1.2167  1.8876
42279SOL     OW33694  10.808   6.317   1.912 -0.3905 -0.2734 -0.1021
42279SOL    HW133695  10.850   6.258   1.850 -1.0377 -0.3014 -0.5172
42279SOL    HW233696  10.881   6.356   1.961  0.0342 -1.4976  0.2684
42280SOL     OW33697   5.541  11.400   9.755  0.2871 -0.1068  0.0021
42280SOL    HW133698   5.590  11.479   9.733  0.8799 -0.2007  0.9578
42280SOL    HW233699   5.463  11.432   9.801  0.3078 -0.0595  0.0032
42281SOL     OW33700   4.387   8.052   9.961 -0.2751 -0.6670  0.1452
42281SOL    HW133701   4.349   8.022   9.878 -1.3141 -0.8466  0.6728
42281SOL    HW233702   4.327   8.020  10.028  0.3375 -0.1749  0.9452
42282SOL     OW33703   6.060   0.648   2.461  0.1719  0.5146  0.4872
42282SOL    HW133704   6.075   0.614   2.372  0.4198  1.4925  0.1377
42282SOL    HW233705   6.007   0.727   2.447  0.5654  0.9051  1.1794
42283SOL     OW33706   2.796   5.395   8.514  0.1463 -0.1840 -0.0235
42283SOL    HW133707   2.771   5.482   8.482  0.2431 -0.4718 -0.9079
42283SOL    HW233708   2.880   5.377   8.470 -0.2739 -1.0661 -0.4842
42284SOL     OW33709   0.643   2.229   6.030 -0.7414  0.3912  0.0243
42284SOL    HW133710   0.684   2.299   5.979 -0.1785 -0.3612 -0.5737
42284SOL    HW233711   0.677   2.149   5.992  0.8187 -0.1932  2.4856
42285SOL     OW33712   5.670   3.419   9.728 -0.0921  0.4403  0.1595
42285SOL    HW133713   5.614   3.491   9.759  0.6120  0.7013  0.8399
42285SOL    HW233714   5.686   3.440   9.636 -0.0708  1.0392  0.2956
42286SOL     OW33715   6.466  11.685   4.641  0.4511  0.0706 -0.7519
42286SOL    HW133716   6.386  11.652   4.683  0.4412 -0.0863 -0.8902
42286SOL    HW233717   6.438  11.766   4.597  0.2815 -0.1738 -1.1028
42287SOL     OW33718  10.757  10.071   7.085  0.2224 -0.2087 -0.1443
42287SOL    HW133719  10.669  10.040   7.065  0.6781 -0.6926 -1.5736
42287SOL    HW233720  10.757  10.163   7.057  0.3628 -0.4143 -0.8576
42288SOL     OW33721   9.653   3.991  12.122 -0.3222  0.1956 -0.9211
42288SOL    HW133722   9.619   3.930  12.187  2.0838 -0.8884 -0.6019
42288SOL    HW233723   9.665   3.938  12.043  3.0936 -0.2510 -0.2550
42289SOL     OW33724   3.593   9.580  10.099  0.2783 -0.7324  0.0306
42289SOL    HW133725   3.525   9.625  10.048  0.7934 -0.1969 -0.2011
42289SOL    HW233726   3.545   9.538  10.170 -0.4183 -1.2157 -0.7025
42290SOL     OW33727  11.163   3.252   2.923 -0.4846 -0.1908 -0.0539
42290SOL    HW133728  11.127   3.174   2.882 -0.1632 -0.8917  0.9687
42290SOL    HW233729  11.250   3.226   2.952  0.0438  0.8656 -0.6254
42291SOL     OW33730   9.270   4.950  12.068 -0.1857 -0.0280  0.4038
42291SOL    HW133731   9.297   5.035  12.032  1.2332 -0.8721 -0.6136
42291SOL    HW233732   9.308   4.949  12.156  1.5157 -0.3691 -0.2874
42292SOL     OW33733  12.175   7.157   6.813 -0.1765 -0.0415  0.1185
42292SOL    HW133734  12.202   7.065   6.814  1.4148  0.3882  0.5781
42292SOL    HW233735  12.248   7.204   6.855 -1.0372  1.4106  0.0815
42293SOL     OW33736   7.414  12.190   6.422  0.6048  0.1506 -0.3649
42293SOL    HW133737   7.507  12.197   6.403  0.8655 -2.2378 -0.1879
42293SOL    HW233738   7.407  12.210   6.516  1.0304 -0.2747 -0.2413
42294SOL     OW33739  10.429  11.247   2.468 -0.6782  0.2411  0.2625
42294SOL    HW133740  10.404  11.156   2.450  0.9873 -0.4693  1.2088
42294SOL    HW233741  10.503  11.263   2.409 -2.0796  1.6255 -1.1754
42295SOL     OW33742   7.257   6.408   3.687 -0.3100 -0.0148 -0.3031
42295SOL    HW133743   7.234   6.486   3.637  1.3065  0.6346 -0.0975
42295SOL    HW233744   7.343   6.428   3.724  0.5525 -2.2113 -0.9500
42296SOL     OW33745  11.934   5.641   2.494 -0.3075 -0.3436 -0.1205
42296SOL    HW133746  11.963   5.602   2.576  1.8867  2.1207  0.4191
42296SOL    HW233747  11.842   5.662   2.509 -0.6934 -2.3424  0.6524
42297SOL     OW33748   0.965   5.481   9.009  0.5703 -0.7450  0.2090
42297SOL    HW133749   0.963   5.478   8.914  0.3578 -0.2522  0.1933
42297SOL    HW233750   1.058   5.492   9.030  0.6004 -0.6952  0.0508
42298SOL     OW33751   0.351   3.140   1.528  0.2484  0.0693 -0.3112
42298SOL    HW133752   0.300   3.220   1.542 -0.4211  0.0616 -2.4126
42298SOL    HW233753   0.327   3.083   1.601 -0.4576  1.1669  0.3522
42299SOL     OW33754   4.318   6.202  12.303 -0.8147  0.1011 -0.1239
42299SOL    HW133755   4.339   6.274  12.362  1.0949  0.4405 -1.1181
42299SOL    HW233756   4.225   6.185  12.317 -0.4688  0.1654  2.9234
42300SOL     OW33757  10.804   1.608  12.520 -0.2848 -0.3859 -0.1850
42300SOL    HW133758  10.884   1.596  12.571  0.7869 -0.3112 -1.7609
42300SOL    HW233759  10.773   1.695  12.545 -0.4420 -0.8146  1.1738
42301SOL     OW33760   5.976   4.621  11.685 -0.2065 -0.1067  0.2331
42301SOL    HW133761   5.919   4.654  11.755  0.0910  0.1961  0.3350
42301SOL    HW233762   6.054   4.677  11.689 -0.3951  0.2408 -0.6615
42302SOL     OW33763   9.107   4.183   5.422 -0.1785 -0.2033 -0.2540
42302SOL    HW133764   9.181   4.193   5.361  1.4386 -0.8064  1.5200
42302SOL    HW233765   9.116   4.094   5.456 -1.4594 -0.1166  0.3558
42303SOL     OW33766   9.285  12.067   1.881  0.5919  0.0403 -0.5344
42303SOL    HW133767   9.356  12.121   1.918  0.5570  0.3545 -0.9134
42303SOL    HW233768   9.318  11.978   1.884  0.9086  0.1582 -0.4803
42304SOL     OW33769   9.615   5.628   7.685  0.0771 -0.0261 -0.0643
42304SOL    HW133770   9.551   5.698   7.692  1.1208  0.8804  0.7410
42304SOL    HW233771   9.572   5.553   7.726 -1.4178 -0.1880 -1.7667
42305SOL     OW33772   0.387   4.831   5.191 -0.3767 -0.7806  0.1061
42305SOL    HW133773   0.340   4.833   5.275  0.0595 -1.4799  0.3799
42305SOL    HW233774   0.439   4.751   5.195  0.4427 -0.2912 -0.4056
42306SOL     OW33775   2.364   7.740   0.903  0.2852 -0.1126  0.4513
42306SOL    HW133776   2.379   7.704   0.990  0.9385 -1.9597 -0.3709
42306SOL    HW233777   2.380   7.667   0.844 -2.3022  0.4815 -1.1385
42307SOL     OW33778   4.182  11.609   6.488 -0.3310 -0.3237 -0.7889
42307SOL    HW133779   4.249  11.664   6.447  1.3922 -2.7807 -1.4584
42307SOL    HW233780   4.227  11.566   6.560 -0.6381 -3.2007 -2.1745
42308SOL     OW33781   4.907   6.671   9.013 -0.2183  0.2308  0.3582
42308SOL    HW133782   4.999   6.651   8.994  0.0107  0.7046  0.9492
42308SOL    HW233783   4.907   6.763   9.037 -0.7289  0.0403  1.1114
42309SOL     OW33784   8.554  10.939   9.769 -0.0401  0.1279  0.1416
42309SOL    HW133785   8.647  10.917   9.764 -0.2554 -0.5628 -1.1188
42309SOL    HW233786   8.510  10.856   9.783 -0.4627  0.4972  1.1180
42310SOL     OW33787   7.984   1.270   4.558  0.1277 -0.7255  0.3004
42310SOL    HW133788   7.938   1.193   4.592  1.1341 -1.8348 -0.7309
42310SOL    HW233789   8.048   1.234   4.496  1.9607  0.7849  1.2021
42311SOL     OW33790  10.724   3.506   9.225 -0.0936  0.1062  0.1516
42311SOL    HW133791  10.699   3.587   9.270 -1.2914 -0.3522  0.3657
42311SOL    HW233792  10.819   3.501   9.234  0.3217  2.5383 -1.6390
42312SOL     OW33793  11.362   5.759   0.760 -0.3893  0.1324  0.1615
42312SOL    HW133794  11.369   5.667   0.732 -0.5341  0.7140 -1.9395
42312SOL    HW233795  11.272   5.767   0.792 -0.6743 -0.2254 -0.5384
42313SOL     OW33796   1.553   3.348   7.916  0.2249 -0.0853 -0.0529
42313SOL    HW133797   1.593   3.354   7.829  1.6577  0.2469  0.6029
42313SOL    HW233798   1.468   3.391   7.906 -0.1526 -1.1013 -1.5652
42314SOL     OW33799  12.038   8.138   1.152 -0.2537  0.2638 -0.1806
42314SOL    HW133800  11.985   8.062   1.126 -0.5010  0.8972 -1.6479
42314SOL    HW233801  12.072   8.172   1.069  2.5787 -0.1738  0.6812
42315SOL     OW33802   8.059   0.222   2.140  0.1689 -0.1566 -0.0169
42315SOL    HW133803   8.098   0.266   2.216 -0.9146 -1.3951  1.3185
42315SOL    HW233804   7.979   0.271   2.123 -0.8600 -1.3134  1.2528
42316SOL     OW33805   9.836   3.872  11.921  0.1768  0.4345  0.1184
42316SOL    HW133806   9.901   3.887  11.989  1.8970 -1.2269 -1.0530
42316SOL    HW233807   9.886   3.840  11.846 -2.1000 -2.2105 -0.4421
42317SOL     OW33808   2.997   9.530  10.658  0.2978 -0.1251  0.0869
42317SOL    HW133809   2.951   9.448  10.678 -1.0854  0.6364  0.1253
42317SOL    HW233810   2.977   9.587  10.732  0.6358  0.5029 -0.3027
42318SOL     OW33811   3.068  11.980   0.310 -0.0479  0.1674  0.3722
42318SOL    HW133812   3.044  12.059   0.360 -2.4593 -0.0639 -0.2896
42318SOL    HW233813   3.091  12.013   0.223 -0.6707  0.2004  0.2129
42319SOL     OW33814   4.021   4.794   6.720  0.6472 -0.3836  0.0440
42319SOL    HW133815   4.109   4.809   6.686  0.1166  2.2638 -0.4150
42319SOL    HW233816   4.034   4.775   6.813  1.7168 -0.0064 -0.0140
42320SOL     OW33817   4.012  11.369  12.106  0.1053  0.3901  0.3259
42320SOL    HW133818   4.074  11.306  12.142  1.1573  2.3747  2.1690
42320SOL    HW233819   3.939  11.369  12.167  0.1568  1.0187  0.3903
42321SOL     OW33820   3.740   8.675  11.672  0.2692 -0.5889 -0.1372
42321SOL    HW133821   3.714   8.750  11.618  2.1065 -0.8453 -1.4733
42321SOL    HW233822   3.793   8.713  11.742  0.3873 -0.5453 -0.2505
42322SOL     OW33823   6.383   2.852   3.931 -0.1503  0.6942 -0.2766
42322SOL    HW133824   6.473   2.824   3.946 -0.3458 -1.4295 -2.3691
42322SOL    HW233825   6.386   2.947   3.930  1.8413  0.6767  0.8665
42323SOL     OW33826   9.223   4.027  12.096 -0.5221  0.2158 -0.4127
42323SOL    HW133827   9.280   4.077  12.038 -0.3059  0.5342  0.0680
42323SOL    HW233828   9.160   3.984  12.037 -1.0490  1.4709 -0.7981
42324SOL     OW33829  11.782   7.510   4.341 -0.3352  0.2198 -0.4921
42324SOL    HW133830  11.809   7.538   4.429  0.3207  0.0711 -0.6428
42324SOL    HW233831  11.853   7.539   4.284 -0.2290 -0.6687 -0.8208
42325SOL     OW33832   4.821   3.496   1.690  0.5171  0.5082 -0.0867
42325SOL    HW133833   4.728   3.479   1.673  0.8759 -1.6353 -0.2462
42325SOL    HW233834   4.831   3.591   1.679 -1.6315  0.7812 -0.0927
42326SOL     OW33835  12.056   5.976   7.693  0.3478 -0.3017  0.6403
42326SOL    HW133836  12.094   6.013   7.772  1.0466  0.3632  0.0020
42326SOL    HW233837  12.112   5.902   7.671  2.5605  1.8062 -1.3829
42327SOL     OW33838   2.233   7.377   8.734 -0.2636  0.6343 -0.1204
42327SOL    HW133839   2.146   7.386   8.695 -0.1292  0.2604 -0.5156
42327SOL    HW233840   2.262   7.467   8.748 -1.2113  0.7699  1.1562
42328SOL     OW33841   3.149   5.492   7.004  0.3072  0.1208 -0.5203
42328SOL    HW133842   3.065   5.454   6.978  0.8218 -0.1240 -1.8892
42328SOL    HW233843   3.152   5.577   6.960  0.4621  0.4664  0.1336
42329SOL     OW33844  12.068   4.770  11.424 -0.4765  0.0322  0.3773
42329SOL    HW133845  12.127   4.845  11.431 -0.5696  0.4108 -2.1029
42329SOL    HW233846  11.981   4.807  11.441 -0.2664 -0.1022  1.8825
42330SOL     OW33847   5.008  10.344   4.350 -0.2417  0.4558  0.2855
42330SOL    HW133848   5.023  10.264   4.299 -0.2163  0.0578  0.8990
42330SOL    HW233849   5.064  10.410   4.310 -0.8535  0.3875 -0.7339
42331SOL     OW33850   2.130   9.474   8.232  0.0347  0.2657 -0.3772
42331SOL    HW133851   2.157   9.489   8.141  0.5334  0.4789 -0.1926
42331SOL    HW233852   2.191   9.409   8.265 -0.7667 -0.5743 -0.4923
42332SOL     OW33853   0.524   5.862   6.944 -0.0486  0.4287  0.1653
42332SOL    HW133854   0.546   5.948   6.909  0.1110  0.4894  0.4096
42332SOL    HW233855   0.429   5.866   6.959 -0.2287  0.1692 -0.8744
42333SOL     OW33856   7.726   2.668   0.377  0.3750 -0.2095 -0.0737
42333SOL    HW133857   7.648   2.723   0.380 -0.2081 -1.0478  0.7914
42333SOL    HW233858   7.692   2.579   0.370  1.2838 -0.5296 -0.6593
42334SOL     OW33859  11.789   7.600   0.881 -0.5504  0.1571  0.0824
42334SOL    HW133860  11.837   7.647   0.950  1.3225 -1.4004 -0.0818
42334SOL    HW233861  11.731   7.542   0.929  1.1278 -1.3121  0.4456
42335SOL     OW33862  11.846   7.248  11.724  0.8584  0.3289 -0.5096
42335SOL    HW133863  11.872   7.187  11.792  0.9905  0.5203 -0.3875
42335SOL    HW233864  11.928   7.272  11.681  0.9360  1.1808  0.0818
42336SOL     OW33865   9.496  11.197   1.960  0.9955  0.3833  0.0681
42336SOL    HW133866   9.535  11.112   1.984 -0.6879  0.5071  4.0718
42336SOL    HW233867   9.555  11.262   1.998 -0.9760  0.6391  3.1294
42337SOL     OW33868  11.006   4.190   8.480  0.5766  0.1230 -0.1565
42337SOL    HW133869  10.949   4.173   8.404 -0.1895 -0.8534  0.6076
42337SOL    HW233870  11.078   4.243   8.444 -0.4389  0.8007 -1.2903
42338SOL     OW33871  10.579   8.733   6.726 -0.2343  1.1262  0.1199
42338SOL    HW133872  10.521   8.789   6.676 -2.9308 -1.2509  0.3567
42338SOL    HW233873  10.566   8.645   6.690  1.9614  0.1878  1.3401
42339SOL     OW33874  11.858   0.123  11.530 -0.1624  0.2033  0.5712
42339SOL    HW133875  11.878   0.208  11.490 -0.5384  0.1950  0.3614
42339SOL    HW233876  11.931   0.067  11.505  0.7606  0.8091  1.7940
42340SOL     OW33877   7.488   6.772   6.177  0.6490  0.8090 -0.0210
42340SOL    HW133878   7.434   6.840   6.218  1.0257  0.8441  0.4176
42340SOL    HW233879   7.568   6.770   6.229  1.0538  0.7251 -0.6382
42341SOL     OW33880   2.629   2.744   2.454 -0.0731 -0.2424 -0.7721
42341SOL    HW133881   2.584   2.820   2.489  0.4477 -0.4538  0.4071
42341SOL    HW233882   2.625   2.755   2.359  2.2917  2.6775 -0.6871
42342SOL     OW33883   4.473  10.735  10.070  0.0398  0.1622 -1.0385
42342SOL    HW133884   4.409  10.729  10.141 -1.4403  1.0766 -2.2003
42342SOL    HW233885   4.464  10.653  10.022  1.9045 -0.9767  0.4525
42343SOL     OW33886   2.000   9.702  10.507  0.0139 -0.6798  0.2976
42343SOL    HW133887   1.955   9.784  10.526 -1.5456 -0.9976 -1.7350
42343SOL    HW233888   2.074   9.728  10.452 -2.4236 -0.7852 -3.3567
42344SOL     OW33889  10.859   9.653   7.225 -0.0496  0.0187 -0.0237
42344SOL    HW133890  10.895   9.740   7.209  1.4139 -0.3089  1.2466
42344SOL    HW233891  10.780   9.650   7.173 -1.2146  2.8325  1.3749
42345SOL     OW33892   9.604   8.513   5.487  0.0938 -0.0707  0.2377
42345SOL    HW133893   9.680   8.529   5.543  0.1177  1.4167 -0.1804
42345SOL    HW233894   9.536   8.569   5.523 -0.6396 -0.9439  0.2418
42346SOL     OW33895   1.503   1.021  10.245  0.3937  0.0797 -0.3001
42346SOL    HW133896   1.455   0.942  10.268 -0.7077  0.4475 -1.2415
42346SOL    HW233897   1.548   0.999  10.164 -1.2013  0.8766 -1.4522
42347SOL     OW33898   0.904   1.421  10.453  0.2177  0.0556 -0.1725
42347SOL    HW133899   0.885   1.327  10.457  0.8126 -0.0563  0.0792
42347SOL    HW233900   0.985   1.432  10.504  0.5889  0.5933 -0.8648
42348SOL     OW33901   8.522   1.994  11.807  0.9637  0.1858 -0.0434
42348SOL    HW133902   8.450   2.033  11.756  1.3936  0.9031 -0.1187
42348SOL    HW233903   8.591   1.979  11.743  0.8609 -0.5806  0.0151
42349SOL     OW33904   1.521  11.514   9.042 -0.1234  0.0778  0.0501
42349SOL    HW133905   1.616  11.526   9.039 -0.2195  0.7908 -0.4430
42349SOL    HW233906   1.509  11.419   9.047  0.6165 -0.0071  0.3547
42350SOL     OW33907   5.864   4.242   9.718  0.0194 -0.1722 -0.1946
42350SOL    HW133908   5.849   4.181   9.791 -3.2311  1.0260  0.2928
42350SOL    HW233909   5.851   4.189   9.640  0.2069 -0.7338  0.1469
42351SOL     OW33910   6.377   4.843  10.303 -0.0703  0.5954 -0.2284
42351SOL    HW133911   6.382   4.851  10.208 -0.7625  2.0802 -0.1685
42351SOL    HW233912   6.328   4.920  10.331  2.0241  1.4028  1.5358
42352SOL     OW33913  12.218   5.173   7.674 -0.0821  0.6943  0.1726
42352SOL    HW133914  12.164   5.189   7.751 -0.5625 -0.1267  0.0186
42352SOL    HW233915  12.166   5.205   7.601  0.2917  1.2942  0.1618
42353SOL     OW33916   5.232   2.118   2.432 -0.8364  0.3430 -0.1468
42353SOL    HW133917   5.247   2.101   2.339 -1.9680 -0.5227 -0.1864
42353SOL    HW233918   5.320   2.125   2.469 -0.3322 -1.6704 -0.8687
42354SOL     OW33919   3.425  10.573  10.739  0.3360 -0.1725  0.6144
42354SOL    HW133920   3.352  10.633  10.728 -0.4708 -1.1965  0.1494
42354SOL    HW233921   3.474  10.579  10.657  0.0621 -0.3856  0.4313
42355SOL     OW33922   3.322   2.286   9.723 -0.3606  0.4266 -0.7792
42355SOL    HW133923   3.285   2.342   9.655 -0.2975  0.0979 -1.0866
42355SOL    HW233924   3.270   2.307   9.801  0.3848  1.7201 -0.6005
42356SOL     OW33925   3.759   2.013  12.493  0.2409 -0.2107  0.3358
42356SOL    HW133926   3.787   2.102  12.517  0.1920 -0.7584  2.7204
42356SOL    HW233927   3.810   1.992  12.415  0.7918  1.6333  0.1529
42357SOL     OW33928   6.256   2.067   4.821  0.3406 -0.0572 -0.5529
42357SOL    HW133929   6.190   2.017   4.773  0.8747 -2.1397  0.7336
42357SOL    HW233930   6.340   2.030   4.792  0.9412  1.7499 -1.2928
42358SOL     OW33931   8.036   8.569   7.525  0.1117  0.3229  0.3724
42358SOL    HW133932   7.959   8.533   7.482  0.2154  0.3191  0.1848
42358SOL    HW233933   8.108   8.511   7.499  0.1092  0.0849  0.8838
42359SOL     OW33934   2.499   6.861   2.973 -0.4886 -0.5663  0.2885
42359SOL    HW133935   2.556   6.878   3.048  1.5408 -3.3420 -0.4852
42359SOL    HW233936   2.515   6.769   2.951 -3.4748 -0.7525 -1.5468
42360SOL     OW33937   2.297   4.992   7.716  0.6577 -0.0812  0.1617
42360SOL    HW133938   2.360   5.025   7.652 -0.3552  1.1878 -0.2207
42360SOL    HW233939   2.247   4.925   7.669  1.0599 -0.3952  0.1730
42361SOL     OW33940   5.603  11.283  11.860  0.3300 -0.1609  0.0442
42361SOL    HW133941   5.653  11.341  11.918 -0.9470 -1.2435  2.3646
42361SOL    HW233942   5.651  11.201  11.861  0.7423  0.0517 -1.1501
42362SOL     OW33943   6.552   9.238   3.378  0.4786  0.2877 -0.1521
42362SOL    HW133944   6.539   9.311   3.317  0.5569 -0.6948 -1.3947
42362SOL    HW233945   6.510   9.163   3.335 -1.4947  0.0127  2.0728
42363SOL     OW33946   5.133  11.596  12.150  0.3365  0.3011  0.0389
42363SOL    HW133947   5.080  11.671  12.177  1.4133  0.2928  2.4680
42363SOL    HW233948   5.081  11.519  12.173  0.4403  0.2997  0.2731
42364SOL     OW33949   5.799  10.220   6.738  0.2652  0.3635  0.0269
42364SOL    HW133950   5.797  10.266   6.654 -2.4818  0.3094 -0.0032
42364SOL    HW233951   5.810  10.127   6.714  1.1334  0.5046 -0.1554
42365SOL     OW33952   7.348   2.302   5.038 -0.6270  0.2954  0.1320
42365SOL    HW133953   7.293   2.307   4.960 -0.4512  1.2358  0.0626
42365SOL    HW233954   7.358   2.393   5.066 -2.9081 -0.1563  2.8351
42366SOL     OW33955   2.724  11.969   4.753 -0.2082  0.3584 -0.3934
42366SOL    HW133956   2.687  11.946   4.668 -0.0552  1.5337 -0.7911
42366SOL    HW233957   2.785  12.040   4.735 -1.7457  2.1353  0.9388
42367SOL     OW33958   3.452   9.191   7.058 -0.1849  0.4385  0.1529
42367SOL    HW133959   3.382   9.171   7.120 -1.8327  0.2702 -1.6507
42367SOL    HW233960   3.523   9.131   7.082 -0.9850 -0.0218  1.4774
42368SOL     OW33961   9.732   4.225   5.090 -0.2499  0.4218  0.1990
42368SOL    HW133962   9.652   4.231   5.039 -0.0150  1.7694 -0.0584
42368SOL    HW233963   9.763   4.315   5.098  1.6969 -0.1274 -0.4566
42369SOL     OW33964   5.913  10.443   2.660  0.2306  0.3675  0.5683
42369SOL    HW133965   5.933  10.462   2.752  2.8016  1.9862 -0.2195
42369SOL    HW233966   5.843  10.505   2.638  0.5570  0.9381  1.0838
42370SOL     OW33967   6.360   5.716   7.913 -0.6164  0.2564 -0.3238
42370SOL    HW133968   6.297   5.671   7.857 -0.8513 -1.2802  1.0978
42370SOL    HW233969   6.305   5.764   7.976 -0.3751  0.0134  0.0764
42371SOL     OW33970   6.725   7.979   8.151 -0.9573 -0.1864 -0.4452
42371SOL    HW133971   6.632   7.999   8.159 -0.4908  2.3523 -0.5033
42371SOL    HW233972   6.769   8.047   8.202  0.8969 -1.0749 -0.7522
42372SOL     OW33973   8.403   0.869   5.897 -0.2980  0.1341 -0.0801
42372SOL    HW133974   8.351   0.899   5.972  1.2673  0.9065  0.7451
42372SOL    HW233975   8.353   0.796   5.862 -0.8443 -0.5910  2.0346
42373SOL     OW33976   4.621  11.974   4.529  0.2855 -0.1886 -0.7176
42373SOL    HW133977   4.700  11.944   4.573 -0.0937 -2.1769 -1.2915
42373SOL    HW233978   4.606  11.910   4.459 -2.7945 -0.9611  0.4761
42374SOL     OW33979   1.703   0.126   8.898  0.4344  0.0656  0.6351
42374SOL    HW133980   1.720   0.198   8.837 -2.0539  1.2199  1.1975
42374SOL    HW233981   1.691   0.049   8.842 -0.9085  0.9233 -0.2851
42375SOL     OW33982   5.413   3.471   1.866  0.2422 -0.2911  0.1062
42375SOL    HW133983   5.447   3.558   1.886  1.4514 -0.9791  1.1989
42375SOL    HW233984   5.345   3.455   1.932  0.6734 -0.5402  0.4931
42376SOL     OW33985   7.544   7.162   7.360 -0.2497  0.4619  0.4833
42376SOL    HW133986   7.488   7.125   7.293  1.5312  0.5344 -1.1134
42376SOL    HW233987   7.530   7.106   7.437 -2.3652  0.4285  0.1283
42377SOL     OW33988   7.339   0.408   8.182 -0.3310 -0.0822 -0.3367
42377SOL    HW133989   7.314   0.497   8.157 -0.0861 -0.2185 -1.0735
42377SOL    HW233990   7.361   0.416   8.275  0.8876  0.8971 -0.6748
42378SOL     OW33991   1.350   4.236   8.316  0.3559  0.3428 -0.2608
42378SOL    HW133992   1.269   4.246   8.365  0.8222  0.4105  0.5214
42378SOL    HW233993   1.326   4.253   8.225 -0.5272  0.2168 -0.0573
42379SOL     OW33994   0.750   7.243   0.535  0.7806 -0.3434 -0.0809
42379SOL    HW133995   0.755   7.149   0.556  0.5086 -0.2340  0.5195
42379SOL    HW233996   0.719   7.283   0.617 -0.9762  0.0359 -0.8779
42380SOL     OW33997   3.674   4.888   7.400 -0.2333  0.5571 -0.3668
42380SOL    HW133998   3.674   4.865   7.493 -0.9648 -0.3294 -0.5726
42380SOL    HW233999   3.621   4.967   7.394 -1.1678 -0.0422 -0.1713
42381SOL     OW34000   4.250   7.143  11.232 -0.2451 -0.3612  0.2705
42381SOL    HW134001   4.256   7.231  11.195  1.5441 -0.4098  0.3888
42381SOL    HW234002   4.259   7.085  11.157  0.1333 -0.4513  0.3854
42382SOL     OW34003   7.860   2.479  11.473 -0.5505  0.7402  0.2699
42382SOL    HW134004   7.878   2.560  11.520  1.3683  0.9382 -0.7072
42382SOL    HW234005   7.882   2.499  11.382  1.6368 -1.2973  0.2497
42383SOL     OW34006   3.093   8.399   3.744  0.4233  0.7432 -0.0466
42383SOL    HW134007   3.055   8.457   3.810 -0.4784  0.0130  0.0814
42383SOL    HW234008   3.084   8.448   3.662 -0.0056  0.9294  0.1109
42384SOL     OW34009   2.093   3.470  11.584 -0.0947 -0.3529 -0.0901
42384SOL    HW134010   2.065   3.517  11.506 -1.0168 -1.2564 -0.3186
42384SOL    HW234011   2.185   3.495  11.595 -0.0239 -0.0211 -1.3119
42385SOL     OW34012   3.876  11.854   9.873  0.1684  0.3621  0.5783
42385SOL    HW134013   3.801  11.847   9.933 -1.2991  0.5285 -1.1260
42385SOL    HW234014   3.895  11.947   9.869 -0.0326  0.4005  0.4731
42386SOL     OW34015   3.181  12.476   3.792 -0.6606 -0.0858  0.0077
42386SOL    HW134016   3.115  12.424   3.838 -0.6671  0.0890  0.1966
42386SOL    HW234017   3.145  12.565   3.793 -0.4638 -0.0073  0.0307
42387SOL     OW34018   2.150   0.924   6.233  0.0724  0.3886  0.1521
42387SOL    HW134019   2.104   0.853   6.188  1.9368  0.2814 -1.7269
42387SOL    HW234020   2.082   0.989   6.251 -1.1374 -0.5581 -0.8347
42388SOL     OW34021   5.511   4.911   6.298 -0.5130  0.4301  0.7593
42388SOL    HW134022   5.452   4.905   6.372 -2.6732 -0.4753 -0.9338
42388SOL    HW234023   5.530   4.821   6.274 -1.1078  0.6703 -0.7136
42389SOL     OW34024   3.520   1.412   2.120 -0.4687  0.4408 -0.2783
42389SOL    HW134025   3.451   1.454   2.171 -0.0718  2.7152 -1.4835
42389SOL    HW234026   3.589   1.393   2.184 -0.2017  2.7538  0.2161
42390SOL     OW34027  10.193   0.348  12.347  0.3557  0.1746  0.7538
42390SOL    HW134028  10.230   0.292  12.279 -1.4815 -1.5684  1.0739
42390SOL    HW234029  10.258   0.416  12.361  1.0900  0.2028 -2.2306
42391SOL     OW34030   5.099   3.802   6.035  0.6406  0.2014  0.6966
42391SOL    HW134031   5.134   3.889   6.015  1.6859 -0.1596  0.9365
42391SOL    HW234032   5.112   3.751   5.955 -0.3538  0.3608  0.4106
42392SOL     OW34033  11.452   6.115  10.616 -0.1632  0.5116 -0.4712
42392SOL    HW134034  11.420   6.070  10.538 -1.2307  0.0153  0.2335
42392SOL    HW234035  11.516   6.179  10.582 -0.5051  0.2149 -1.7240
42393SOL     OW34036   0.528   7.392  11.864  0.4737  0.4808  0.3807
42393SOL    HW134037   0.553   7.300  11.868  0.8653  0.6300  1.6534
42393SOL    HW234038   0.608   7.440  11.885 -0.0012  1.0688  0.8926
42394SOL     OW34039  10.358  10.976   2.361 -0.5085  0.1632 -0.5358
42394SOL    HW134040  10.313  10.922   2.426 -0.7798  1.0183 -0.0050
42394SOL    HW234041  10.450  10.970   2.385 -0.7082  1.3951  0.6556
42395SOL     OW34042   0.346   4.341   9.757 -0.5795  0.4212  0.1548
42395SOL    HW134043   0.370   4.259   9.714  1.0178  1.2337 -0.6098
42395SOL    HW234044   0.387   4.336   9.843  0.6799  0.9539 -0.3937
42396SOL     OW34045   5.024   5.342   2.508  0.0726 -0.5409  0.4541
42396SOL    HW134046   5.008   5.430   2.542  0.2387 -0.9471  1.6523
42396SOL    HW234047   5.119   5.329   2.518  0.3379 -0.2119 -1.3780
42397SOL     OW34048   2.261   5.823  11.934  0.1472 -0.0241  0.4879
42397SOL    HW134049   2.343   5.864  11.960  1.6728 -3.4363  1.6344
42397SOL    HW234050   2.286   5.759  11.867 -1.1150 -2.6068  2.3237
42398SOL     OW34051   8.863   1.722   2.634  0.2622 -0.0009  0.0373
42398SOL    HW134052   8.879   1.769   2.715 -0.4189 -0.8743  0.6901
42398SOL    HW234053   8.946   1.678   2.614 -0.1907 -1.6173  1.4956
42399SOL     OW34054   0.095   0.453  12.179 -0.4907  0.3827 -0.1231
42399SOL    HW134055   0.005   0.484  12.173 -0.7359 -0.4494 -0.8695
42399SOL    HW234056   0.090   0.376  12.236 -0.2471  0.3544 -0.1391
42400SOL     OW34057   2.256   2.476  11.656 -0.2946  0.1195 -0.3112
42400SOL    HW134058   2.168   2.453  11.628 -0.4482 -0.5853  0.7160
42400SOL    HW234059   2.257   2.462  11.750  1.8327 -3.2903 -0.6459
42401SOL     OW34060   5.431  11.142  11.010 -0.0268  0.1890  0.4039
42401SOL    HW134061   5.436  11.197  11.088 -1.0536  0.5758  0.2105
42401SOL    HW234062   5.339  11.147  10.983  0.0704 -0.8599 -0.1662
42402SOL     OW34063   9.173   7.614  10.042  0.3323 -0.4545  0.2138
42402SOL    HW134064   9.159   7.706  10.018  1.3668 -0.6574 -1.3441
42402SOL    HW234065   9.085   7.580  10.056 -0.0501  0.8530  1.2317
42403SOL     OW34066   6.459   5.347   1.270 -0.3712 -0.0240 -0.0915
42403SOL    HW134067   6.454   5.329   1.176 -0.6167 -2.9820  0.3658
42403SOL    HW234068   6.552   5.353   1.289 -0.2763 -0.3916 -0.4145
42404SOL     OW34069   7.106   1.772   9.935 -0.1346  0.3681  0.1478
42404SOL    HW134070   7.103   1.716   9.858  0.3074  0.7366 -0.1379
42404SOL    HW234071   7.195   1.808   9.935  0.2781 -0.5492  1.4795
42405SOL     OW34072   1.113   7.348   6.949  0.1055  0.1662 -0.4286
42405SOL    HW134073   1.186   7.345   6.887  0.0906  0.4153 -0.4600
42405SOL    HW234074   1.139   7.292   7.021  0.0668 -0.2389 -0.7256
42406SOL     OW34075  11.839   8.376  11.021  0.0978  0.4925  0.5007
42406SOL    HW134076  11.836   8.466  11.054 -0.3501  0.5141  0.4042
42406SOL    HW234077  11.778   8.328  11.077  0.6954  0.1426  0.8604
42407SOL     OW34078   3.407   3.944   1.172  0.4997  0.1215  0.9682
42407SOL    HW134079   3.339   4.004   1.202 -0.7100 -0.9140  0.3596
42407SOL    HW234080   3.398   3.942   1.077  0.2814 -1.2717  0.9979
42408SOL     OW34081   9.491  11.564   2.019 -0.3605  0.5871  0.5057
42408SOL    HW134082   9.544  11.630   1.974 -0.1864  0.9085  1.1737
42408SOL    HW234083   9.555  11.498   2.047 -0.4667  0.3903  0.2795
42409SOL     OW34084   9.468   8.277   9.343  0.6980 -0.3654  0.1630
42409SOL    HW134085   9.388   8.239   9.381 -0.0186 -1.8994 -2.5823
42409SOL    HW234086   9.455   8.372   9.348 -0.6410 -0.5763  1.0720
42410SOL     OW34087  11.365   3.138   2.701 -0.1838 -0.3801 -0.4746
42410SOL    HW134088  11.285   3.186   2.683 -0.5003  0.6800  2.9222
42410SOL    HW234089  11.409   3.190   2.769  2.3371 -2.0018 -0.7242
42411SOL     OW34090   9.590   4.901  11.058  0.7394  0.3033  0.1812
42411SOL    HW134091   9.581   4.888  10.963 -0.1022 -2.0992  0.4976
42411SOL    HW234092   9.637   4.823  11.088  1.2609  1.1767  1.7186
42412SOL     OW34093   0.645   0.531   9.797 -0.5286 -0.1293  0.3483
42412SOL    HW134094   0.705   0.526   9.722 -1.4236 -0.6255 -0.3488
42412SOL    HW234095   0.702   0.552   9.871  0.4936 -0.4580 -0.3203
42413SOL     OW34096  10.899   0.518  11.574  0.2699  0.9057 -0.0001
42413SOL    HW134097  10.860   0.521  11.487  0.8837 -0.4697 -0.3381
42413SOL    HW234098  10.956   0.596  11.577 -0.8530  1.7581 -0.2716
42414SOL     OW34099   4.596   2.179   2.537  0.0659 -0.1232 -0.8794
42414SOL    HW134100   4.535   2.244   2.573  0.1588 -1.1510  1.2970
42414SOL    HW234101   4.681   2.205   2.573  0.3442 -0.5993 -1.1953
42415SOL     OW34102   3.648   2.913   0.688 -0.0284 -0.2918  0.1541
42415SOL    HW134103   3.716   2.846   0.692 -1.9369 -2.6251 -2.1604
42415SOL    HW234104   3.566   2.863   0.685 -1.6713  2.2464  0.0100
42416SOL     OW34105   7.515   1.018   8.166  0.1954  0.5308 -0.0750
42416SOL    HW134106   7.520   1.101   8.118  0.6702 -0.0630 -1.0957
42416SOL    HW234107   7.436   0.975   8.131 -0.9326  1.1990  1.5603
42417SOL     OW34108   2.525   6.767   4.461  0.4297 -0.0439  0.4221
42417SOL    HW134109   2.591   6.768   4.391  0.6745 -0.5258  0.6381
42417SOL    HW234110   2.576   6.762   4.542  0.1397  0.2274  0.6193
42418SOL     OW34111   0.281   2.065  10.719 -0.2819  0.1988 -0.2980
42418SOL    HW134112   0.331   2.002  10.668  1.5561  0.9582  0.4938
42418SOL    HW234113   0.215   2.012  10.764  1.0189 -1.1396  0.1180
42419SOL     OW34114   9.190   7.948   0.650 -0.5222  0.0464 -0.4977
42419SOL    HW134115   9.282   7.965   0.670 -0.2678 -0.0165 -1.5575
42419SOL    HW234116   9.191   7.868   0.599 -0.9855  0.9592 -1.9853
42420SOL     OW34117   8.689   5.416   2.092 -0.4238  0.0395  0.0171
42420SOL    HW134118   8.634   5.493   2.103  1.0007  0.9267  1.4500
42420SOL    HW234119   8.658   5.354   2.157  0.1640  0.5030  0.7589
42421SOL     OW34120   2.773   0.045   1.769 -0.1492  0.0133  0.3179
42421SOL    HW134121   2.784   0.128   1.723 -0.5537 -0.8140 -1.3777
42421SOL    HW234122   2.685   0.050   1.806  0.1288  0.6417  0.9119
42422SOL     OW34123   8.182   5.994   4.937 -0.4029  0.0044  0.1310
42422SOL    HW134124   8.251   6.014   4.874  0.8797 -1.2123  1.0846
42422SOL    HW234125   8.108   5.964   4.883  1.4552 -3.3951 -0.8254
42423SOL     OW34126   9.530  12.485   3.316  0.2194 -0.0684  0.7830
42423SOL    HW134127   9.599  12.525   3.263 -0.0503  0.9669  1.1961
42423SOL    HW234128   9.459  12.469   3.254  0.0267  0.8426  0.7539
42424SOL     OW34129   2.235  10.211   2.507  0.3259 -0.1268  0.0090
42424SOL    HW134130   2.257  10.295   2.468  1.0130 -1.0335 -1.6901
42424SOL    HW234131   2.320  10.176   2.537 -0.0234 -0.0114  1.1989
42425SOL     OW34132   7.284   2.694   2.298 -0.1205 -0.1911  0.3627
42425SOL    HW134133   7.310   2.705   2.390  0.2276 -2.6088  0.6188
42425SOL    HW234134   7.363   2.715   2.248  0.9331 -2.5891  0.8808
42426SOL     OW34135  10.985   2.862  11.171  0.4833 -0.7771  0.5342
42426SOL    HW134136  10.981   2.905  11.256  2.0349 -0.3605  0.4441
42426SOL    HW234137  10.899   2.877  11.132  1.4689  4.3410 -0.4194
42427SOL     OW34138   4.377   1.329  11.636 -0.0442 -0.2871  0.5605
42427SOL    HW134139   4.402   1.417  11.663 -2.9832  1.4556 -1.8955
42427SOL    HW234140   4.442   1.304  11.571  0.2371  0.4692  0.5477
42428SOL     OW34141   5.324   0.510   3.328  0.2868 -0.0198 -0.2063
42428SOL    HW134142   5.294   0.582   3.272  0.9321 -0.0093 -0.5551
42428SOL    HW234143   5.417   0.529   3.343  0.7548 -1.3232 -1.1926
42429SOL     OW34144   5.964  11.008   7.942  0.0582 -0.1846  0.0316
42429SOL    HW134145   5.930  10.953   7.872 -1.8214  0.9789 -0.0636
42429SOL    HW234146   5.927  10.970   8.022  0.6733 -0.4162  0.2124
42430SOL     OW34147  11.659   5.469   3.732  0.3818 -0.6931  0.0439
42430SOL    HW134148  11.752   5.461   3.751  0.5410 -1.3728 -0.9407
42430SOL    HW234149  11.618   5.488   3.817  1.1951 -2.2929  0.8488
42431SOL     OW34150   5.166   7.970   4.859  0.7818 -0.3638  0.2794
42431SOL    HW134151   5.086   7.934   4.898 -0.3360 -1.5262 -2.7741
42431SOL    HW234152   5.234   7.907   4.882  0.0617 -1.2630  0.0161
42432SOL     OW34153  11.957   2.381  12.114  0.5130  0.1292 -0.2361
42432SOL    HW134154  11.979   2.458  12.062 -0.4494 -0.3870 -1.4737
42432SOL    HW234155  12.028   2.320  12.098  1.2396  0.7154  0.6861
42433SOL     OW34156  12.002  11.533   3.470 -0.3007 -0.3564 -0.4803
42433SOL    HW134157  12.082  11.549   3.419 -0.2465  4.6013  0.6183
42433SOL    HW234158  12.029  11.473   3.539  2.9870  2.0872  0.5814
42434SOL     OW34159   6.469  11.697   7.562  0.4227 -0.4091 -0.0882
42434SOL    HW134160   6.508  11.698   7.649 -1.1901  0.1968  0.6567
42434SOL    HW234161   6.532  11.648   7.508  1.8232 -0.1153  1.2135
42435SOL     OW34162   9.437   9.416  11.578 -0.9841  0.0446 -1.2279
42435SOL    HW134163   9.420   9.401  11.485  2.3153 -1.7955 -1.7030
42435SOL    HW234164   9.531   9.434  11.583 -1.1023  0.3922  1.7295
42436SOL     OW34165   0.190   1.818   8.493 -0.0341 -0.5923 -0.6048
42436SOL    HW134166   0.157   1.888   8.436 -0.1695 -1.5131 -1.6898
42436SOL    HW234167   0.275   1.795   8.456  0.9270  0.3394  0.9408
42437SOL     OW34168   8.015   0.808   5.007 -0.3666 -0.3613  0.4636
42437SOL    HW134169   8.020   0.899   5.036  0.2810 -0.3833  0.4236
42437SOL    HW234170   8.104   0.775   5.013 -0.6744 -1.1532  0.9610
42438SOL     OW34171   7.453   2.142   8.899  0.7752  0.2458  0.2275
42438SOL    HW134172   7.421   2.193   8.825  3.7200  3.1954  0.7550
42438SOL    HW234173   7.502   2.070   8.860 -3.5947 -2.7339 -0.5354
42439SOL     OW34174   1.750  11.402   9.570  0.9915  0.4741 -0.8102
42439SOL    HW134175   1.678  11.391   9.507  0.0938 -3.6273  0.6430
42439SOL    HW234176   1.807  11.327   9.555  1.9131  0.5571  1.8148
42440SOL     OW34177   7.400   8.899   7.688  0.5718 -0.0508  0.5263
42440SOL    HW134178   7.382   8.992   7.676  3.1055  0.4155 -0.4137
42440SOL    HW234179   7.435   8.893   7.777  3.3145  0.5518 -0.3885
42441SOL     OW34180   2.408   8.063   0.924 -0.8382  0.5418 -0.2386
42441SOL    HW134181   2.389   7.976   0.888 -0.7653  0.0773  0.7933
42441SOL    HW234182   2.481   8.047   0.985  0.1085  1.5737 -1.0803
42442SOL     OW34183   6.565   1.770   8.415  0.5246 -0.1883  0.0330
42442SOL    HW134184   6.604   1.699   8.467 -1.3202 -0.7958  0.6448
42442SOL    HW234185   6.476   1.740   8.397 -0.3275  1.9984  0.3439
42443SOL     OW34186   8.625   2.669   9.459 -0.1575  0.0675 -0.0916
42443SOL    HW134187   8.696   2.641   9.401 -0.5863 -1.9379  0.2615
42443SOL    HW234188   8.546   2.658   9.407 -0.3871  0.1701  0.2339
42444SOL     OW34189   4.827  11.149   6.526 -0.2024 -0.4269  0.0188
42444SOL    HW134190   4.769  11.175   6.598  0.1383 -2.1756  0.9672
42444SOL    HW234191   4.772  11.154   6.448 -1.2599 -0.7621  0.7203
42445SOL     OW34192   6.855   9.597   0.158 -0.4537 -0.8839 -0.3258
42445SOL    HW134193   6.877   9.511   0.193 -1.3753 -1.2258 -0.5716
42445SOL    HW234194   6.935   9.625   0.112  1.5407  0.4252  3.4939
42446SOL     OW34195  10.755   0.902   1.205 -0.0710  0.1435  0.2314
42446SOL    HW134196  10.792   0.815   1.214  0.6975  0.2448 -1.5391
42446SOL    HW234197  10.823   0.961   1.238 -0.5993  0.1091  1.4495
42447SOL     OW34198   3.681   2.731   9.267 -0.1099 -0.1643 -0.1947
42447SOL    HW134199   3.710   2.706   9.355 -1.8648 -1.2020  0.1306
42447SOL    HW234200   3.704   2.656   9.212  1.6300  0.7705 -0.8082
42448SOL     OW34201   2.768   1.390   7.449  0.0634  0.0488 -1.0836
42448SOL    HW134202   2.791   1.471   7.495  1.1588 -0.9095  0.1122
42448SOL    HW234203   2.724   1.420   7.369  0.3554  1.8185 -0.6226
42449SOL     OW34204   0.185   8.048   5.508 -0.4315 -0.2382  0.1397
42449SOL    HW134205   0.166   7.979   5.571 -1.3522  1.8332  2.3076
42449SOL    HW234206   0.099   8.084   5.485  0.0710  2.1229  1.5286
42450SOL     OW34207   7.766   7.597   0.744  0.1441 -0.0797 -0.3718
42450SOL    HW134208   7.860   7.611   0.734  0.0481  1.5762  0.6366
42450SOL    HW234209   7.737   7.667   0.803 -1.3919 -1.7009  0.9175
42451SOL     OW34210   8.465   8.461  11.767  0.3811  1.0767 -0.1730
42451SOL    HW134211   8.427   8.549  11.765  1.2455  1.5246  1.3389
42451SOL    HW234212   8.559   8.476  11.781  0.3197 -0.0959  1.8155
42452SOL     OW34213   8.103  11.319   7.718  0.0692  0.2840  0.0605
42452SOL    HW134214   8.103  11.385   7.650  1.3344  1.0879  0.7968
42452SOL    HW234215   8.178  11.341   7.773 -0.8014 -0.4385  1.6094
42453SOL     OW34216   2.695   7.090   5.870  0.0814 -0.1702  0.1373
42453SOL    HW134217   2.662   7.014   5.918 -1.0690  0.8272  0.9943
42453SOL    HW234218   2.725   7.054   5.786 -3.0690 -1.2343 -0.6904
42454SOL     OW34219   0.414   6.637  10.441 -0.5532  0.1094  0.0266
42454SOL    HW134220   0.322   6.644  10.418  0.1300  0.0208 -3.3152
42454SOL    HW234221   0.460   6.683  10.370  2.0379 -1.5352  0.4768
42455SOL     OW34222   5.026   3.505  11.415  0.5449  0.2539 -0.8161
42455SOL    HW134223   5.031   3.414  11.443  0.7349  0.5122  0.0168
42455SOL    HW234224   5.009   3.554  11.495  0.1801  0.9298 -1.2942
42456SOL     OW34225   6.085   0.909   2.950  0.3725 -0.4550  0.4060
42456SOL    HW134226   6.010   0.921   2.892 -1.3488 -0.5847  2.4980
42456SOL    HW234227   6.133   0.992   2.945 -0.5936  0.0862 -0.0524
42457SOL     OW34228   4.653  10.173   5.211 -0.7232  0.1204  0.6674
42457SOL    HW134229   4.582  10.121   5.247 -0.6873  0.7362  1.6605
42457SOL    HW234230   4.618  10.262   5.205 -1.1445 -0.1282 -2.0076
42458SOL     OW34231   3.614  11.597  12.148  0.3104 -0.5657  0.0633
42458SOL    HW134232   3.644  11.540  12.077 -0.7078 -1.2037  0.1270
42458SOL    HW234233   3.545  11.548  12.191 -0.3679  0.5750  0.3296
42459SOL     OW34234   8.327   9.203   5.136  0.4251 -0.7359 -0.6494
42459SOL    HW134235   8.400   9.262   5.114  1.2238 -1.4248  0.0607
42459SOL    HW234236   8.342   9.182   5.228 -0.5127 -1.1353 -0.5878
42460SOL     OW34237   3.526  10.631   7.578  0.0330  0.0610 -0.2107
42460SOL    HW134238   3.613  10.615   7.542  0.6816  0.9144  0.9268
42460SOL    HW234239   3.519  10.572   7.653 -0.1523  0.3810  0.0278
42461SOL     OW34240  12.094   5.126   5.388  0.0249  0.8366  0.1671
42461SOL    HW134241  12.089   5.221   5.397  0.1529  0.7872  0.7581
42461SOL    HW234242  12.181   5.103   5.419  0.3839  0.6274 -0.9357
42462SOL     OW34243   4.529   8.270   7.405 -0.1600 -0.0466  0.2300
42462SOL    HW134244   4.591   8.208   7.368  0.9570  0.5534  1.0500
42462SOL    HW234245   4.558   8.356   7.372 -1.6506  0.0873 -0.8505
42463SOL     OW34246  10.181   2.817   9.579 -0.1955 -0.2578  0.0749
42463SOL    HW134247  10.263   2.862   9.560  0.6605 -1.0538  1.6463
42463SOL    HW234248  10.113   2.873   9.541  1.0630  0.2872 -1.4943
42464SOL     OW34249   0.455  12.334   2.212 -0.0992  0.1272  0.1491
42464SOL    HW134250   0.415  12.419   2.195  1.5242  0.9305  0.1271
42464SOL    HW234251   0.546  12.345   2.184  0.1569 -1.5907  0.2460
42465SOL     OW34252   3.618   5.244  10.131 -0.2935  0.6403 -0.0935
42465SOL    HW134253   3.616   5.272  10.040 -2.2595 -1.3689 -0.7761
42465SOL    HW234254   3.544   5.290  10.172 -1.5835 -1.0152 -0.4497
42466SOL     OW34255   3.459   6.579   4.192  0.0190  0.0928  0.1975
42466SOL    HW134256   3.548   6.584   4.159 -0.2211 -1.2762 -0.7638
42466SOL    HW234257   3.444   6.485   4.206 -1.5760  0.1978 -0.5977
42467SOL     OW34258  11.389   9.433   2.325 -0.0906  0.1226 -0.5984
42467SOL    HW134259  11.462   9.375   2.302  0.1798  0.6492 -1.1011
42467SOL    HW234260  11.429   9.520   2.332 -0.4253  0.2028  0.5050
42468SOL     OW34261   8.521   2.529   5.680  0.1987  0.4600  0.0549
42468SOL    HW134262   8.564   2.488   5.604  0.4628  0.6649  0.0946
42468SOL    HW234263   8.593   2.562   5.733 -0.0155  0.9783  0.0243
42469SOL     OW34264   4.626   6.977   3.840 -0.1465  0.2275  0.1435
42469SOL    HW134265   4.554   6.918   3.820 -0.7868  1.5458 -1.7248
42469SOL    HW234266   4.612   7.053   3.783  0.7525  2.1183  2.2509
42470SOL     OW34267   9.834   4.207   9.459  0.0882  0.6679 -0.2688
42470SOL    HW134268   9.881   4.291   9.457 -2.2126  2.1596  1.6728
42470SOL    HW234269   9.770   4.214   9.388  1.9309 -0.8760 -2.1759
42471SOL     OW34270  10.561   3.652  10.121 -0.4318  0.7008 -0.1345
42471SOL    HW134271  10.550   3.576  10.063  1.1131 -0.4615  1.0273
42471SOL    HW234272  10.521   3.725  10.073 -2.1339 -0.8525 -1.2084
42472SOL     OW34273  11.366   9.908   4.849  0.2236  0.5060  0.1455
42472SOL    HW134274  11.405   9.880   4.766  1.4607 -1.6627  1.3681
42472SOL    HW234275  11.290   9.960   4.824  0.4143 -0.3090 -2.3483
42473SOL     OW34276   7.534   2.080   4.947  0.2579 -0.4387  0.0749
42473SOL    HW134277   7.469   2.137   4.988  0.4790 -0.2808  0.2074
42473SOL    HW234278   7.520   2.091   4.853 -1.4083 -2.1258  0.0881
42474SOL     OW34279   4.850   1.489   8.986 -0.0182  0.2365 -0.2869
42474SOL    HW134280   4.801   1.425   9.037 -0.1086 -0.0934 -0.7814
42474SOL    HW234281   4.878   1.441   8.907 -0.1759  0.8263 -0.7096
42475SOL     OW34282   2.585   7.043  11.272  0.5263  0.4919 -0.3925
42475SOL    HW134283   2.559   7.061  11.362  1.1388 -1.6540  0.2531
42475SOL    HW234284   2.586   6.948  11.265  0.6288  0.6066 -2.6413
42476SOL     OW34285   6.115   7.547   4.770  0.2950  0.5923  0.1376
42476SOL    HW134286   6.186   7.497   4.812 -0.8016 -0.9361  0.2497
42476SOL    HW234287   6.153   7.579   4.688  0.7770 -1.2550 -0.3940
42477SOL     OW34288   9.204   4.829   6.371 -0.0514 -0.0073  0.3145
42477SOL    HW134289   9.196   4.786   6.457 -1.1593 -1.1688 -0.3292
42477SOL    HW234290   9.186   4.759   6.308 -0.3692  1.0730 -0.8346
42478SOL     OW34291   7.062   0.212  11.505  0.4756  0.3120 -0.1963
42478SOL    HW134292   7.036   0.121  11.519  1.1979  0.0149 -0.7465
42478SOL    HW234293   6.988   0.251  11.457 -0.0040  0.1255  0.3825
42479SOL     OW34294   2.969   5.240   4.147  0.3235  0.1442 -0.4994
42479SOL    HW134295   2.943   5.332   4.160  2.3090  1.1457 -2.7889
42479SOL    HW234296   2.995   5.210   4.234 -0.1442  1.8152  0.2691
42480SOL     OW34297   5.670   6.377   1.333  0.3876  0.6210  0.6632
42480SOL    HW134298   5.753   6.342   1.300 -0.2635  0.1784 -0.5603
42480SOL    HW234299   5.612   6.301   1.337 -0.5746  1.2658 -0.5134
42481SOL     OW34300  11.778   9.653   9.517 -0.9847 -0.0512  0.4506
42481SOL    HW134301  11.687   9.626   9.515 -0.7206 -1.0479  1.0321
42481SOL    HW234302  11.825   9.577   9.551  0.2132  0.0463 -0.8748
42482SOL     OW34303   1.979   5.607   0.468  0.4280 -0.0639 -0.3686
42482SOL    HW134304   1.889   5.609   0.437  0.6006 -0.2938 -0.8945
42482SOL    HW234305   2.023   5.677   0.419  1.0348 -1.3401 -1.7284
42483SOL     OW34306   6.416   3.044  10.113  0.1064 -0.1598  0.2190
42483SOL    HW134307   6.447   3.134  10.127  0.1694 -0.2925  0.9573
42483SOL    HW234308   6.389   3.014  10.199  1.0852 -1.2152  0.1874
42484SOL     OW34309   1.762   2.226   5.241 -0.2243  0.3712  0.2270
42484SOL    HW134310   1.753   2.158   5.174  0.9566 -1.5573  1.9083
42484SOL    HW234311   1.817   2.293   5.200  0.3319 -0.6662 -0.7945
42485SOL     OW34312   3.098  11.367  12.338 -0.1719  0.0601  0.3385
42485SOL    HW134313   3.179  11.322  12.314 -1.6611 -1.5211 -2.2766
42485SOL    HW234314   3.127  11.450  12.375  2.6701  0.1455 -1.6749
42486SOL     OW34315   2.235   6.635   5.385  0.7109  0.0619  0.5361
42486SOL    HW134316   2.308   6.670   5.334 -0.4539  2.0409  0.0761
42486SOL    HW234317   2.157   6.674   5.344 -0.6836 -2.3792  0.6442
42487SOL     OW34318  11.699   7.169  10.476 -0.6767  0.2406 -0.4979
42487SOL    HW134319  11.703   7.100  10.543  1.3369  0.5102 -0.2740
42487SOL    HW234320  11.766   7.232  10.503 -1.2196  1.3763 -1.6922
42488SOL     OW34321  10.916  11.789   2.213  0.1397  0.0820 -0.0046
42488SOL    HW134322  10.909  11.771   2.307  1.5540 -0.2176  0.0626
42488SOL    HW234323  10.840  11.744   2.175  0.1918 -0.7817  0.8704
42489SOL     OW34324  11.801   4.557  11.008  0.1619 -0.1100 -0.3512
42489SOL    HW134325  11.839   4.472  11.033  1.1573  0.6422  0.7890
42489SOL    HW234326  11.876   4.617  11.008 -0.8100  1.1314  0.5489
42490SOL     OW34327  11.930   5.902   8.180  0.0089  0.1958  0.3565
42490SOL    HW134328  11.985   5.979   8.162  0.7381 -0.6006 -0.9904
42490SOL    HW234329  11.922   5.900   8.275  1.4511  0.9240  0.5266
42491SOL     OW34330  12.442   8.984   8.617  0.0645  0.2240 -0.1524
42491SOL    HW134331  12.397   9.055   8.571 -0.6008  0.6869  1.1754
42491SOL    HW234332  12.528   8.979   8.575 -0.4623  0.7051 -1.3570
42492SOL     OW34333   5.164   1.402   9.696  0.1429  0.1415  0.7819
42492SOL    HW134334   5.187   1.336   9.762 -1.1623 -2.8803 -1.5950
42492SOL    HW234335   5.076   1.378   9.668  1.1184  0.4149 -2.9845
42493SOL     OW34336   8.245   7.367   3.124  0.1803 -0.0316 -0.0913
42493SOL    HW134337   8.223   7.328   3.209 -3.9111  1.6610 -0.1087
42493SOL    HW234338   8.162   7.364   3.075  1.7594  1.3087 -3.0907
42494SOL     OW34339   4.743   6.748   5.748 -0.3901  0.5867  0.4803
42494SOL    HW134340   4.758   6.666   5.796  0.9148  0.2783 -0.3944
42494SOL    HW234341   4.828   6.792   5.750 -1.4360  2.7408  2.3206
42495SOL     OW34342  10.036   3.364   1.371  0.3627  0.0498  0.0038
42495SOL    HW134343  10.113   3.345   1.319  0.3422 -0.4218  0.1398
42495SOL    HW234344   9.963   3.331   1.319  0.2408  0.5750 -0.1654
42496SOL     OW34345   1.514   5.307   7.713  0.0421  0.1082 -0.2464
42496SOL    HW134346   1.600   5.314   7.670 -0.4356 -0.4169 -1.3483
42496SOL    HW234347   1.497   5.394   7.747  2.1956 -0.3664  2.4301
42497SOL     OW34348   7.537   8.045  12.567  0.3140  0.1413 -0.2875
42497SOL    HW134349   7.464   8.090  12.525 -0.2081  0.7416  1.2066
42497SOL    HW234350   7.501   7.961  12.595  0.6096 -0.1827 -0.8643
42498SOL     OW34351  12.535   1.957  10.715 -0.0652 -0.4732  0.2337
42498SOL    HW134352  12.453   2.006  10.717  0.4248  0.3873 -0.1065
42498SOL    HW234353  12.574   1.971  10.802 -0.3700 -1.0609  0.4719
42499SOL     OW34354   2.590   3.421  12.458  0.2315 -0.3460  0.0812
42499SOL    HW134355   2.590   3.448  12.550 -0.4073  1.6855 -0.4524
42499SOL    HW234356   2.550   3.334  12.458  2.1049 -1.2875  1.9047
42500SOL     OW34357   8.937   4.728  11.549 -0.1884  0.5923 -0.0857
42500SOL    HW134358   8.889   4.685  11.479 -0.3568  0.5752  0.0418
42500SOL    HW234359   8.890   4.810  11.565 -1.0686 -0.1256  1.0869
42501SOL     OW34360  10.028   9.114   2.978 -0.2046 -0.3877  0.0361
42501SOL    HW134361   9.965   9.103   2.907 -0.0286  0.7885 -0.3341
42501SOL    HW234362   9.977   9.150   3.051  0.2425  2.1050 -0.7755
42502SOL     OW34363   8.316  10.142   5.402 -0.2141  0.3618 -0.2935
42502SOL    HW134364   8.403  10.180   5.388 -0.6321  1.3031 -0.4040
42502SOL    HW234365   8.309  10.132   5.497 -0.5086  1.5977 -0.1696
42503SOL     OW34366   6.141   2.086   3.580 -0.2233 -0.6487  0.0737
42503SOL    HW134367   6.213   2.128   3.628 -0.0124  1.2705 -1.8030
42503SOL    HW234368   6.163   1.992   3.581  0.8018 -0.4396  1.9060
42504SOL     OW34369  11.372   7.273   0.153 -0.0101 -0.2090  0.4182
42504SOL    HW134370  11.464   7.255   0.132 -0.3364 -0.4498 -0.8590
42504SOL    HW234371  11.369   7.367   0.169  0.2944 -0.0407 -0.4667
42505SOL     OW34372   5.933   6.609   0.558  0.4214 -0.6024  0.1379
42505SOL    HW134373   5.857   6.559   0.589 -0.6982  0.5451 -0.6269
42505SOL    HW234374   5.965   6.654   0.636  1.5057 -2.5005  0.8633
42506SOL     OW34375  11.568  11.584  10.311  0.4496  0.3843 -1.0207
42506SOL    HW134376  11.604  11.672  10.298 -0.7485  0.7589 -1.9015
42506SOL    HW234377  11.583  11.540  10.227  2.1481 -0.6976 -0.2088
42507SOL     OW34378   8.179   5.908  12.150 -0.1167  0.0347 -0.1118
42507SOL    HW134379   8.104   5.895  12.208  0.6363  2.1476  1.5061
42507SOL    HW234380   8.178   6.002  12.131  1.8412  0.0458 -0.3821
42508SOL     OW34381   2.063   0.604   1.286  0.0599  0.4317  0.2119
42508SOL    HW134382   2.031   0.546   1.355  0.9107 -0.4088 -0.0867
42508SOL    HW234383   2.087   0.685   1.332 -0.1423  0.1728  0.7795
42509SOL     OW34384   8.973  11.053   4.897  0.2318  0.1191 -0.6491
42509SOL    HW134385   9.046  11.104   4.932  1.1418 -0.0127 -2.2695
42509SOL    HW234386   8.955  11.092   4.812 -0.8025 -0.6093 -0.7820
42510SOL     OW34387   2.257   0.880   3.028 -0.1228  0.3174  0.5976
42510SOL    HW134388   2.302   0.957   2.993  1.2895 -0.6578  0.1788
42510SOL    HW234389   2.170   0.883   2.988 -0.2059  1.8480  0.8335
42511SOL     OW34390   8.140   0.536   9.460 -0.0979  0.0552  0.6248
42511SOL    HW134391   8.087   0.498   9.390  0.3154  3.1179 -1.5052
42511SOL    HW234392   8.166   0.460   9.513 -4.7086 -1.8901  0.5996
42512SOL     OW34393  11.121   0.054   9.751 -0.1963 -0.3782 -0.4740
42512SOL    HW134394  11.180  -0.011   9.788 -0.2413  0.3041  0.8521
42512SOL    HW234395  11.040   0.046   9.801 -0.2211  0.6439 -0.3159
42513SOL     OW34396   5.825   0.807   1.572 -0.0949  0.1507  0.1091
42513SOL    HW134397   5.772   0.860   1.632  0.3553  0.5943  0.1156
42513SOL    HW234398   5.889   0.763   1.628  0.4918  0.7645 -0.0697
42514SOL     OW34399   1.362   7.639   2.313 -0.2793  0.2735 -0.4109
42514SOL    HW134400   1.360   7.636   2.218 -0.7114  0.9637 -0.4332
42514SOL    HW234401   1.382   7.550   2.340 -0.7606 -0.0597 -1.1389
42515SOL     OW34402   6.709   0.479   4.343  0.3307  0.2844  0.4405
42515SOL    HW134403   6.780   0.423   4.313 -1.9707 -2.3118 -0.6430
42515SOL    HW234404   6.732   0.502   4.433  1.7930 -1.7266  0.6313
42516SOL     OW34405   1.605  10.149   4.454 -0.3183  0.2168 -0.0686
42516SOL    HW134406   1.698  10.169   4.443 -0.0790  0.8364  2.3513
42516SOL    HW234407   1.563  10.235   4.461 -0.6302 -0.0225  1.4644
42517SOL     OW34408   6.992   2.530   3.022  0.2185 -0.9302  0.0052
42517SOL    HW134409   7.057   2.460   3.015  0.0338 -1.2403  1.2119
42517SOL    HW234410   6.995   2.574   2.937  1.8077 -1.1164 -0.0682
42518SOL     OW34411   1.524  10.175   3.829  0.2998  0.0921 -0.0567
42518SOL    HW134412   1.516  10.161   3.735  1.1043 -0.5440 -0.0467
42518SOL    HW234413   1.598  10.234   3.838 -0.9956  1.7689  0.0966
42519SOL     OW34414   6.582   2.568   8.922  0.0954  0.5101 -0.0882
42519SOL    HW134415   6.669   2.569   8.881 -0.4134  0.5534 -1.1709
42519SOL    HW234416   6.533   2.636   8.876 -0.8268 -0.2052 -0.1712
42520SOL     OW34417   1.855  11.281   2.851 -0.6906  0.2071 -0.0090
42520SOL    HW134418   1.832  11.326   2.933 -2.4695  2.3289 -1.5784
42520SOL    HW234419   1.861  11.189   2.876 -1.8571  0.6887  2.3770
42521SOL     OW34420   3.129   5.273   1.041  0.0770  0.5315 -0.0345
42521SOL    HW134421   3.210   5.296   1.085  0.0078 -0.4622  0.6314
42521SOL    HW234422   3.061   5.323   1.087  0.4346  2.6163 -1.5890
42522SOL     OW34423  11.218   2.532   7.624  0.2736  0.2263  0.5059
42522SOL    HW134424  11.232   2.601   7.560 -0.0504  0.5540  0.7843
42522SOL    HW234425  11.123   2.517   7.623  0.0745  1.2204  1.9153
42523SOL     OW34426   9.072  11.244   9.875  0.0071  0.1568 -0.2687
42523SOL    HW134427   9.047  11.252   9.967 -0.4206 -1.8603 -0.1726
42523SOL    HW234428   8.997  11.277   9.826  0.2978  1.3842  0.0660
42524SOL     OW34429   7.042   9.575   0.961 -0.4335  0.5561 -0.3149
42524SOL    HW134430   7.109   9.514   0.929  0.5301  0.9023  0.9512
42524SOL    HW234431   7.017   9.626   0.884  0.3413  0.0303 -0.9286
42525SOL     OW34432  10.684   7.425  11.637  0.4136  0.2822 -0.0389
42525SOL    HW134433  10.726   7.508  11.615  0.9155 -0.0314 -0.2816
42525SOL    HW234434  10.606   7.423  11.582  0.4228  0.5730 -0.0645
42526SOL     OW34435   9.872   3.496  10.960 -0.6018 -0.6240  0.2889
42526SOL    HW134436   9.897   3.540  11.042 -1.6107  0.0495  0.2594
42526SOL    HW234437   9.786   3.459  10.979 -2.1566  1.9047 -1.2651
42527SOL     OW34438   5.454   2.973  10.777  0.0417 -0.2536  0.3980
42527SOL    HW134439   5.479   2.888  10.741  0.5238  0.1726 -0.2985
42527SOL    HW234440   5.458   3.033  10.703  0.2955  0.4980  0.9969
42528SOL     OW34441   2.588  10.560  12.533 -0.0369  0.7095 -0.4118
42528SOL    HW134442   2.528  10.588  12.602 -0.5859  1.5827 -1.2204
42528SOL    HW234443   2.596  10.636  12.475  0.2125 -0.0757 -1.4503
42529SOL     OW34444   3.785  10.784  12.501  0.4597  0.1793 -0.1314
42529SOL    HW134445   3.835  10.797  12.581 -0.7360 -1.1964  0.8799
42529SOL    HW234446   3.792  10.867  12.454  0.8159  1.1476  1.5851
42530SOL     OW34447   8.941   0.661   0.639  0.0160  0.4867 -0.0942
42530SOL    HW134448   8.968   0.618   0.720  0.8893  0.4288 -0.4064
42530SOL    HW234449   9.022   0.675   0.591 -0.5749 -0.4607 -1.4490
42531SOL     OW34450   5.803   9.653  10.909 -0.4737 -0.6268 -0.3484
42531SOL    HW134451   5.825   9.711  10.836 -0.7960 -1.7562 -1.3849
42531SOL    HW234452   5.768   9.711  10.977  0.6051  0.5413 -0.7689
42532SOL     OW34453   7.583   5.831  10.303 -0.7311 -0.2672 -0.1342
42532SOL    HW134454   7.621   5.820  10.216 -2.6315  0.8876 -1.1595
42532SOL    HW234455   7.554   5.743  10.327 -0.0072 -0.6330 -0.5411
42533SOL     OW34456  10.007   6.508   7.323 -0.5943 -0.0934  0.2714
42533SOL    HW134457   9.920   6.504   7.285 -0.6513 -0.8616  0.4739
42533SOL    HW234458  10.060   6.450   7.268 -0.5373 -0.7191  0.9700
42534SOL     OW34459  11.417   7.279   9.591 -0.0285  0.1448 -0.6528
42534SOL    HW134460  11.353   7.234   9.536 -0.3777 -0.8431  0.5124
42534SOL    HW234461  11.485   7.308   9.530  0.5291 -2.5176 -1.4331
42535SOL     OW34462   8.136   2.653   2.956 -0.0827  0.2279 -0.4909
42535SOL    HW134463   8.200   2.664   2.885 -1.2579  1.9464 -1.3373
42535SOL    HW234464   8.184   2.677   3.035  0.6440  0.3686 -0.9654
42536SOL     OW34465  10.881   0.866  11.776  0.3398 -0.2086 -0.4763
42536SOL    HW134466  10.879   0.825  11.862 -1.4997 -1.2187 -0.9576
42536SOL    HW234467  10.969   0.849  11.743  0.8882 -0.2713  0.9593
42537SOL     OW34468  12.203   8.326   1.863  0.0279 -0.0374  0.3936
42537SOL    HW134469  12.112   8.311   1.889  0.5531 -3.5278  0.6608
42537SOL    HW234470  12.204   8.314   1.768  0.0933  1.1121  0.2243
42538SOL     OW34471   1.493   4.298   7.537 -0.1485 -0.3362  0.3607
42538SOL    HW134472   1.583   4.300   7.571  0.3029  2.5880 -0.7041
42538SOL    HW234473   1.503   4.295   7.442 -1.2148 -1.1212  0.2585
42539SOL     OW34474   8.703   3.832   6.370  0.5162 -0.0598  0.3711
42539SOL    HW134475   8.774   3.785   6.325  0.1400 -0.9444  0.6792
42539SOL    HW234476   8.724   3.924   6.357  0.0866 -0.2559 -2.1430
42540SOL     OW34477   6.612   1.017   1.505 -0.0833  0.0567 -0.1363
42540SOL    HW134478   6.548   0.947   1.520  0.6741 -0.4447  0.9154
42540SOL    HW234479   6.576   1.068   1.433 -1.9519  0.1158  0.7862
42541SOL     OW34480   8.073  10.971   4.015  0.2101 -0.0469  0.0789
42541SOL    HW134481   8.071  11.067   4.019  0.1821 -0.0732  2.5908
42541SOL    HW234482   8.099  10.945   4.104 -0.2246 -2.3797 -0.4324
42542SOL     OW34483  10.852  12.302  11.978 -0.0012 -0.6605 -0.2612
42542SOL    HW134484  10.784  12.240  11.952 -1.0991  0.0499  0.8418
42542SOL    HW234485  10.830  12.327  12.068  0.4276  1.2834 -0.6444
42543SOL     OW34486   3.278   7.766  10.536  0.3311  0.4282 -0.5979
42543SOL    HW134487   3.254   7.718  10.457 -2.1704 -0.4219  0.5867
42543SOL    HW234488   3.309   7.699  10.597 -1.3415  0.4973  0.3911
42544SOL     OW34489   1.495   6.763   5.585 -0.2628 -0.3933  0.7152
42544SOL    HW134490   1.543   6.695   5.633 -0.2734 -1.3357 -0.5667
42544SOL    HW234491   1.556   6.837   5.582  1.4405 -1.7404 -1.3536
42545SOL     OW34492  10.958   4.264   7.519 -0.4450  0.0487  0.3698
42545SOL    HW134493  11.040   4.241   7.564  0.5160  0.5318 -1.0568
42545SOL    HW234494  10.969   4.230   7.430 -1.6623  0.4292  0.0543
42546SOL     OW34495   6.546   8.414   3.035 -0.1985 -0.1956 -0.3459
42546SOL    HW134496   6.601   8.337   3.047  0.5544  0.4947  0.8686
42546SOL    HW234497   6.578   8.453   2.953 -0.1333 -0.7939 -0.6123
42547SOL     OW34498   2.351   7.434   6.144 -0.2236 -0.0422  0.1545
42547SOL    HW134499   2.423   7.375   6.165 -0.5644 -1.9636 -3.3085
42547SOL    HW234500   2.369   7.465   6.056 -2.0623  2.0316  0.3921
42548SOL     OW34501   1.780   7.131  12.349  0.2770  0.4169 -0.3267
42548SOL    HW134502   1.847   7.164  12.289  0.4731 -0.2156 -0.4673
42548SOL    HW234503   1.828   7.078  12.412 -0.0502  0.2201 -0.2366
42549SOL     OW34504   9.991   8.788   1.694  0.1472  0.5387 -0.3467
42549SOL    HW134505   9.898   8.783   1.672  0.0518  1.9089 -0.3335
42549SOL    HW234506  10.018   8.876   1.665  0.3179  2.0145  3.7252
42550SOL     OW34507   5.047   6.020   4.148  0.2045  0.3798 -0.8359
42550SOL    HW134508   4.969   5.977   4.184  0.2174 -0.1776 -1.4364
42550SOL    HW234509   5.056   6.100   4.198  0.9134 -0.9096  1.2245
42551SOL     OW34510  10.742   7.029  10.886  0.3239  0.2138 -0.0858
42551SOL    HW134511  10.820   7.003  10.836 -0.2979  0.1222 -1.0437
42551SOL    HW234512  10.755   7.122  10.902  0.5521  0.2379 -0.3873
42552SOL     OW34513   5.740   8.359   1.598 -0.2307 -0.5077 -0.2984
42552SOL    HW134514   5.830   8.326   1.607  0.4526 -0.1068 -4.0821
42552SOL    HW234515   5.747   8.453   1.609  0.3285 -0.1945 -2.8098
42553SOL     OW34516   6.926   8.053   5.441  0.2307  0.1384 -0.4230
42553SOL    HW134517   6.999   8.115   5.444  1.1114 -0.8684 -0.5050
42553SOL    HW234518   6.967   7.968   5.428 -1.1029 -0.1780 -3.2562
42554SOL     OW34519   8.022   7.918   1.890  0.2816 -0.0479 -0.3530
42554SOL    HW134520   8.038   7.834   1.934  1.7435 -0.0883 -0.9079
42554SOL    HW234521   8.015   7.981   1.962  1.3194 -0.3237  0.0102
42555SOL     OW34522   0.155   9.043   4.077  0.7853  0.2609 -0.7477
42555SOL    HW134523   0.233   9.093   4.099  1.1569 -0.7701  0.4272
42555SOL    HW234524   0.131   8.999   4.159  0.0268 -0.8320 -1.5231
42556SOL     OW34525   2.173  12.552  11.997 -0.3575  0.1924 -0.2538
42556SOL    HW134526   2.143  12.643  11.997  0.3074  0.4141 -0.4172
42556SOL    HW234527   2.256  12.554  12.044 -0.2969 -0.3201 -0.3332
42557SOL     OW34528  10.119   8.292   9.858  0.0926 -0.1260 -0.3672
42557SOL    HW134529  10.209   8.300   9.888  0.0825 -0.7167 -0.1777
42557SOL    HW234530  10.076   8.372   9.890  0.3750 -0.1778  0.1478
42558SOL     OW34531   9.822   9.493   2.747  0.3746  0.3323 -0.5527
42558SOL    HW134532   9.813   9.417   2.689 -1.6091 -0.2434  0.4185
42558SOL    HW234533   9.866   9.458   2.825 -1.3359 -0.0999  0.2692
42559SOL     OW34534   8.116   7.169   3.519  0.3980 -0.4930  0.3860
42559SOL    HW134535   8.024   7.196   3.525 -0.2430 -2.2151 -0.7521
42559SOL    HW234536   8.140   7.146   3.608  0.1295  1.0904  0.9055
42560SOL     OW34537   8.342   2.039   9.067  0.1628  0.4614  0.0672
42560SOL    HW134538   8.262   2.051   9.118 -0.0273 -2.6663  0.7421
42560SOL    HW234539   8.326   2.085   8.985 -2.4384 -0.1806  0.1226
42561SOL     OW34540  12.019   1.100   4.269 -0.3692  0.0525  0.4772
42561SOL    HW134541  12.045   1.190   4.252  0.9179 -0.0884  1.5177
42561SOL    HW234542  12.097   1.060   4.309 -1.4152 -1.1107  1.4131
42562SOL     OW34543   4.321   0.874   9.243  0.0950  0.5255  0.1596
42562SOL    HW134544   4.351   0.854   9.332 -0.7929  0.6363  0.4965
42562SOL    HW234545   4.351   0.964   9.227  2.2352 -0.2585 -0.5451
42563SOL     OW34546   4.800   8.605   6.877 -0.2362  0.1066 -0.3030
42563SOL    HW134547   4.733   8.575   6.816 -2.3338 -0.5446  2.1366
42563SOL    HW234548   4.752   8.636   6.953  2.2207  0.9847  1.0221
42564SOL     OW34549  11.568   5.940  12.438  0.1338  0.2059  0.3860
42564SOL    HW134550  11.479   5.972  12.454  0.4102  1.0587  0.2626
42564SOL    HW234551  11.605   6.002  12.375  0.6484 -0.4298  0.0507
42565SOL     OW34552   0.089   4.051   5.260 -0.1096  0.7227  0.2704
42565SOL    HW134553   0.032   4.115   5.302  0.0801  0.3962  1.0472
42565SOL    HW234554   0.067   3.968   5.302 -0.2139  0.3033 -0.5785
42566SOL     OW34555   2.986  12.319  12.214  0.1001 -0.5737 -0.2783
42566SOL    HW134556   2.937  12.399  12.234 -0.3970 -1.3740  2.0040
42566SOL    HW234557   3.078  12.346  12.217 -0.0199 -0.2751  1.5933
42567SOL     OW34558   1.007   0.633   5.396 -0.9065 -0.0463  0.4105
42567SOL    HW134559   1.019   0.579   5.318 -0.6535 -0.0929  0.4778
42567SOL    HW234560   0.980   0.572   5.464 -1.0205 -0.0227  0.3865
42568SOL     OW34561  10.902   5.840  10.194  0.5294 -0.1755 -0.2475
42568SOL    HW134562  10.857   5.917  10.229  1.0317 -0.1586  0.3826
42568SOL    HW234563  10.867   5.766  10.244  1.5956 -0.0973  0.6653
42569SOL     OW34564   0.154   4.640   1.952  0.7309 -0.3778  0.4327
42569SOL    HW134565   0.210   4.709   1.986  1.3206 -0.6842  0.1031
42569SOL    HW234566   0.122   4.595   2.030 -0.8694  1.1616  0.7343
42570SOL     OW34567   9.823   2.591   9.357  0.8818  0.4851 -0.7776
42570SOL    HW134568   9.772   2.510   9.362  0.5022  0.7541 -0.2022
42570SOL    HW234569   9.847   2.598   9.265  0.6486 -0.1164 -0.8916
42571SOL     OW34570  11.904  12.189   2.882  0.6946  0.0220  0.1737
42571SOL    HW134571  11.829  12.248   2.891  0.4932  1.0171 -4.7992
42571SOL    HW234572  11.866  12.106   2.855  1.2588 -0.4579  0.8347
42572SOL     OW34573   0.637   7.211   1.768 -0.6683  0.4893 -0.0158
42572SOL    HW134574   0.692   7.186   1.842 -2.6828 -1.8489  0.8537
42572SOL    HW234575   0.660   7.148   1.699 -2.7524 -1.1740  0.6836
42573SOL     OW34576   0.353   8.463   7.209 -0.0533  0.2264 -0.0489
42573SOL    HW134577   0.343   8.372   7.184  1.2559  0.0955 -0.1606
42573SOL    HW234578   0.278   8.481   7.266 -0.4258 -0.8497 -0.1819
42574SOL     OW34579   6.860   8.110  12.108 -0.2888  0.1002 -0.0567
42574SOL    HW134580   6.944   8.096  12.065 -0.0875 -0.5080  0.5089
42574SOL    HW234581   6.842   8.203  12.096  1.7167  0.8543  1.9923
42575SOL     OW34582   5.879   3.173   8.585 -0.3457 -0.2027  0.0405
42575SOL    HW134583   5.793   3.151   8.621 -0.1934 -0.4667  0.2481
42575SOL    HW234584   5.938   3.108   8.623 -0.0462  0.0048 -0.0674
42576SOL     OW34585   5.316  11.000   2.261  0.0027 -0.0731 -0.5039
42576SOL    HW134586   5.302  11.037   2.173  0.3905  0.2240 -0.4452
42576SOL    HW234587   5.244  10.937   2.272 -1.4495  1.5650 -0.1087
42577SOL     OW34588   8.593  11.989   3.259  0.2901 -0.2543  0.1127
42577SOL    HW134589   8.505  12.024   3.246  1.1196  2.0962  0.2255
42577SOL    HW234590   8.606  11.993   3.354  1.0840  1.0523 -0.0274
42578SOL     OW34591  11.170  10.425   9.480 -0.6179  0.2610 -0.2027
42578SOL    HW134592  11.155  10.409   9.573  2.1476  0.1548  0.3153
42578SOL    HW234593  11.238  10.492   9.478  1.1246 -1.4311 -2.0629
42579SOL     OW34594   8.479   8.962   5.616  0.4378  0.4420 -0.8642
42579SOL    HW134595   8.446   8.962   5.706 -0.0980 -0.9559 -1.0255
42579SOL    HW234596   8.569   8.932   5.623  0.1975 -0.2955 -0.8370
42580SOL     OW34597   1.105  10.660  11.168 -0.2382 -0.3486  0.1553
42580SOL    HW134598   1.062  10.700  11.092  0.1583 -0.6650 -0.2444
42580SOL    HW234599   1.130  10.573  11.138  2.2087  0.3985 -0.2167
42581SOL     OW34600   9.785   2.755   7.088 -0.3151 -0.4022  0.2049
42581SOL    HW134601   9.766   2.833   7.037  0.7618 -1.4710 -1.9719
42581SOL    HW234602   9.724   2.689   7.055  1.5961 -1.6233 -1.1525
42582SOL     OW34603  12.005  11.508   9.863  0.4591  0.7437 -0.1910
42582SOL    HW134604  12.100  11.509   9.870  0.3496  1.1954  2.0208
42582SOL    HW234605  11.979  11.423   9.900  0.0368 -0.0838 -2.2534
42583SOL     OW34606   5.548   7.190   7.629 -0.4716 -0.9735 -0.0364
42583SOL    HW134607   5.502   7.164   7.549 -0.3690 -0.7987 -0.1545
42583SOL    HW234608   5.479   7.198   7.695 -0.7965  0.4498 -0.5008
42584SOL     OW34609   9.556   2.637   6.478  1.0361 -0.8131  0.0593
42584SOL    HW134610   9.634   2.671   6.433  1.3259 -2.2772 -0.6155
42584SOL    HW234611   9.591   2.596   6.557  0.7147  0.1965  0.7452
42585SOL     OW34612   2.722   1.770   8.071  0.2513  0.3077  0.7630
42585SOL    HW134613   2.803   1.797   8.028  0.2271  0.3121  0.7207
42585SOL    HW234614   2.732   1.799   8.161  0.3522  0.1940  0.7904
42586SOL     OW34615  10.689   2.575  11.172 -0.4387  0.5820 -0.0606
42586SOL    HW134616  10.703   2.655  11.223 -0.0460  1.9552 -2.1660
42586SOL    HW234617  10.736   2.507  11.220 -0.2929  1.7276  1.4983
42587SOL     OW34618  11.918   7.848   2.423  0.0651 -0.5590 -0.1693
42587SOL    HW134619  11.986   7.815   2.482  0.3862  0.9629  0.3636
42587SOL    HW234620  11.913   7.783   2.353  1.2227 -1.3049  0.4092
42588SOL     OW34621   0.352   0.637   3.638  0.5320  0.0288  0.1212
42588SOL    HW134622   0.392   0.582   3.706 -0.7079 -0.7155  0.2679
42588SOL    HW234623   0.377   0.726   3.662  3.0096 -0.4464 -0.4058
42589SOL     OW34624   7.959   8.865   8.494  0.4143  0.3889 -0.0881
42589SOL    HW134625   8.037   8.920   8.499  0.6367  0.3668 -2.3051
42589SOL    HW234626   7.980   8.801   8.426 -1.1588 -0.2611  0.0042
42590SOL     OW34627  10.092   0.650   9.758  0.0387 -0.2035  0.2516
42590SOL    HW134628  10.144   0.623   9.833 -0.3934  0.2591  0.7301
42590SOL    HW234629  10.008   0.604   9.770  0.2337 -0.7414 -0.3715
42591SOL     OW34630   6.171   6.976   0.041  0.1327 -0.4771  0.3708
42591SOL    HW134631   6.184   6.901  -0.017 -0.9574 -0.0525 -0.4664
42591SOL    HW234632   6.201   7.051  -0.010 -1.0374 -0.0718  0.2550
42592SOL     OW34633  10.634  11.397   3.831 -0.6250  0.7088  0.1218
42592SOL    HW134634  10.618  11.306   3.807 -1.1213  0.6084  0.8132
42592SOL    HW234635  10.586  11.448   3.767 -0.5180  0.4846 -0.1402
42593SOL     OW34636   7.526   0.065   4.434  0.3548 -0.0721  0.6217
42593SOL    HW134637   7.538   0.093   4.343  1.2175 -0.9721  0.4486
42593SOL    HW234638   7.547   0.143   4.486  1.9087 -0.1149  0.1122
42594SOL     OW34639   9.883   6.436   3.818 -0.1497  0.1336 -0.2980
42594SOL    HW134640   9.887   6.487   3.737 -1.1738 -0.4521 -0.7323
42594SOL    HW234641   9.799   6.459   3.857  1.3680  2.3459  1.9551
42595SOL     OW34642   5.354   7.195  10.214  0.7328  0.2522 -0.1122
42595SOL    HW134643   5.377   7.129  10.279  0.3381 -0.1666 -0.3893
42595SOL    HW234644   5.321   7.144  10.140 -2.1771  0.8498  0.6748
42596SOL     OW34645   7.289   0.890   0.125 -0.0001  0.6824 -0.0697
42596SOL    HW134646   7.216   0.952   0.127 -0.0789  0.5678  0.6721
42596SOL    HW234647   7.278   0.837   0.204  0.2429 -0.0763 -0.5349
42597SOL     OW34648   9.271   2.091   0.407 -0.1381  0.5737 -0.8020
42597SOL    HW134649   9.249   2.183   0.400 -1.3640  0.1974 -2.3546
42597SOL    HW234650   9.229   2.062   0.488 -0.5335  1.1617 -0.7969
42598SOL     OW34651   0.656   1.415  12.337  0.1752  0.1368  0.4796
42598SOL    HW134652   0.665   1.453  12.249 -1.5155 -2.4963 -0.9424
42598SOL    HW234653   0.576   1.455  12.372  0.2330  0.3449  0.3788
42599SOL     OW34654   1.010   5.060   0.456  0.4880 -0.5662 -0.1918
42599SOL    HW134655   0.993   4.966   0.453 -3.4567  0.0199 -2.6015
42599SOL    HW234656   1.064   5.077   0.378  0.3629 -0.7288 -0.3153
42600SOL     OW34657   4.318   7.009   6.727 -0.0090 -0.3224 -0.3275
42600SOL    HW134658   4.405   6.993   6.762  0.3170  0.6860 -0.6480
42600SOL    HW234659   4.328   6.999   6.632  0.0571  0.9936 -0.4801
42601SOL     OW34660   5.981   0.605  10.628  0.4709  0.2488 -0.4304
42601SOL    HW134661   6.019   0.663  10.562  0.1241  1.3787  0.3243
42601SOL    HW234662   6.002   0.646  10.711 -0.1320 -0.5145  0.1152
42602SOL     OW34663   1.534   4.171   3.277  0.5013 -0.3043  0.0557
42602SOL    HW134664   1.539   4.228   3.200  0.1977 -0.2057  0.1074
42602SOL    HW234665   1.514   4.230   3.349 -0.4612 -0.5556 -0.0002
42603SOL     OW34666   1.984   2.299  12.536  0.4414  0.6992 -0.1572
42603SOL    HW134667   1.891   2.275  12.533  0.6529 -0.4930  1.3260
42603SOL    HW234668   2.029   2.226  12.494  0.7568  0.8832 -0.1398
42604SOL     OW34669  10.696   2.535   0.344  0.0734 -0.3365  0.2585
42604SOL    HW134670  10.666   2.615   0.301  1.0624 -0.8479 -1.5282
42604SOL    HW234671  10.616   2.483   0.357 -0.2274 -0.4114 -1.6032
42605SOL     OW34672   5.713  11.164   6.612 -1.0556  0.4014 -0.0510
42605SOL    HW134673   5.791  11.139   6.562  0.1954  2.3360  0.8258
42605SOL    HW234674   5.698  11.090   6.671 -0.6493 -0.5267 -1.0637
42606SOL     OW34675   8.789   2.269   0.629 -0.6400  0.0467 -0.1769
42606SOL    HW134676   8.854   2.198   0.631 -0.3799  0.2966  0.5487
42606SOL    HW234677   8.821   2.329   0.561 -0.0698  0.2080  0.2314
42607SOL     OW34678   4.802  10.638   6.729 -0.5644  0.2584  0.1881
42607SOL    HW134679   4.726  10.651   6.673 -1.3849 -0.4871  1.0938
42607SOL    HW234680   4.784  10.555   6.774 -1.0236  1.8897  3.2409
42608SOL     OW34681   3.367   6.447  11.409  0.2333  0.1628  0.1202
42608SOL    HW134682   3.286   6.403  11.436 -0.4190  1.4877  0.4556
42608SOL    HW234683   3.370   6.437  11.314  2.1523 -3.9013  0.3886
42609SOL     OW34684   2.007  10.102   2.428 -0.8245 -0.2561  0.0267
42609SOL    HW134685   2.090  10.138   2.458 -0.4987  0.2747 -1.4030
42609SOL    HW234686   1.943  10.171   2.445 -0.6262  0.0766 -0.5501
42610SOL     OW34687  10.716   5.557   5.999 -0.1799 -0.1521 -0.4054
42610SOL    HW134688  10.697   5.514   5.916  0.1342  0.3228 -0.7219
42610SOL    HW234689  10.694   5.491   6.065  1.0928 -1.1099 -0.9096
42611SOL     OW34690   5.020   5.159  11.363 -0.0154  0.0959 -0.5581
42611SOL    HW134691   4.965   5.204  11.427  1.6295  0.3721  0.7163
42611SOL    HW234692   4.974   5.077  11.345 -0.0698 -0.4414  1.7449
42612SOL     OW34693   1.992   3.944   5.998  0.3606 -0.2729  0.4339
42612SOL    HW134694   1.957   3.942   6.087  1.3232  0.3300  0.8552
42612SOL    HW234695   1.953   3.869   5.954 -2.0856  0.8064  0.5967
42613SOL     OW34696   6.638   9.211  11.283  0.2796 -0.3924 -0.0966
42613SOL    HW134697   6.553   9.183  11.317  0.7681 -0.2220  1.2955
42613SOL    HW234698   6.697   9.137  11.301  0.2341 -0.9794 -2.0537
42614SOL     OW34699   5.739   1.850   4.546  1.1701  0.3603 -0.0219
42614SOL    HW134700   5.760   1.926   4.491  0.8851  1.3192  1.1392
42614SOL    HW234701   5.659   1.875   4.592  1.8587 -0.0530  1.4508
42615SOL     OW34702   4.804   2.934   3.488  0.2630  0.0173  0.5726
42615SOL    HW134703   4.884   2.970   3.526  0.1129  0.2856  0.6341
42615SOL    HW234704   4.779   2.864   3.548  0.4780 -0.1026  0.5257
42616SOL     OW34705   2.553   7.321   8.249 -0.2078 -0.0226 -0.0913
42616SOL    HW134706   2.592   7.402   8.281 -2.5545  1.3388 -0.3924
42616SOL    HW234707   2.605   7.252   8.289  3.1752  1.5421 -1.3967
42617SOL     OW34708   1.506   8.804  10.371  0.1686  0.7894 -0.5021
42617SOL    HW134709   1.495   8.877  10.311  0.7438  1.8816  0.6804
42617SOL    HW234710   1.416   8.776  10.391 -0.0283  0.4639 -1.7654
42618SOL     OW34711   3.018   5.336   0.404  0.4056  0.6120  0.4526
42618SOL    HW134712   3.063   5.274   0.462 -0.9440 -0.6392  0.2205
42618SOL    HW234713   3.088   5.385   0.363  1.4849 -0.0218  1.4646
42619SOL     OW34714   5.694   7.320  12.253 -0.5304  0.2121 -0.3809
42619SOL    HW134715   5.667   7.235  12.287 -1.5948  0.2109 -1.1568
42619SOL    HW234716   5.666   7.383  12.321  1.4549 -0.1154  0.8232
42620SOL     OW34717   1.558   0.705   3.870  0.0601  0.2359 -0.6146
42620SOL    HW134718   1.496   0.752   3.816 -0.2529 -0.2950 -0.7211
42620SOL    HW234719   1.618   0.773   3.903 -0.9486  0.8465  0.0146
42621SOL     OW34720   6.517  12.403   2.337  0.3060  0.0075  0.1628
42621SOL    HW134721   6.542  12.468   2.403  1.9117 -0.0958 -0.3002
42621SOL    HW234722   6.477  12.333   2.387 -0.4577  0.8641  0.7905
42622SOL     OW34723   7.554  11.130   6.458 -0.1307 -0.0495 -0.6917
42622SOL    HW134724   7.610  11.116   6.381  0.1690  2.0834 -0.9321
42622SOL    HW234725   7.615  11.129   6.532 -0.0314  0.4984 -0.7645
42623SOL     OW34726  12.528   2.035   1.574  0.3660  0.5323 -0.2251
42623SOL    HW134727  12.439   2.067   1.584  0.4808  0.8000 -0.0516
42623SOL    HW234728  12.518   1.941   1.562 -0.0219  0.7282 -1.5269
42624SOL     OW34729  10.444   0.069   4.327 -0.2739 -0.0226 -0.0490
42624SOL    HW134730  10.497   0.147   4.342  2.5744 -1.7331 -0.4395
42624SOL    HW234731  10.413   0.077   4.237  0.5171  0.3633 -0.2909
42625SOL     OW34732  11.104   4.147   2.823 -0.1842  0.0052  0.2973
42625SOL    HW134733  11.069   4.179   2.906 -0.4864  2.1679 -0.5916
42625SOL    HW234734  11.027   4.144   2.765 -0.0071 -1.6244  0.0920
42626SOL     OW34735   6.135   7.930   1.198 -0.0902  0.0242 -0.0000
42626SOL    HW134736   6.096   7.929   1.111 -3.0669  0.4758  1.1956
42626SOL    HW234737   6.098   7.852   1.241 -0.0075  0.7004  1.3491
42627SOL     OW34738   0.156   3.659   1.661 -0.0307 -0.8258  0.6624
42627SOL    HW134739   0.163   3.728   1.727  0.8364 -0.4075  0.1480
42627SOL    HW234740   0.091   3.692   1.599 -0.9918 -1.3032  1.3748
42628SOL     OW34741   0.814  11.265   9.224  0.1586  0.2776  0.1761
42628SOL    HW134742   0.821  11.187   9.169 -0.6486 -0.1168  0.6136
42628SOL    HW234743   0.773  11.235   9.304  1.2444  0.8715  0.9794
42629SOL     OW34744   4.555   1.356   7.932  0.0530 -0.5757  0.3984
42629SOL    HW134745   4.524   1.400   7.853 -0.9473 -1.0255  0.5228
42629SOL    HW234746   4.647   1.336   7.914 -0.1003 -0.4765 -0.5571
42630SOL     OW34747   9.351   4.303  10.988 -0.2975  0.5425 -0.4800
42630SOL    HW134748   9.340   4.295  11.082 -1.4080  0.7523 -0.5843
42630SOL    HW234749   9.295   4.376  10.963 -2.5937 -1.4990 -1.7335
42631SOL     OW34750   1.186  12.018  10.915  0.4117  0.0924 -0.2865
42631SOL    HW134751   1.201  11.987  10.826  1.4104  1.0071 -0.4574
42631SOL    HW234752   1.176  12.113  10.906  0.4973  0.1925  0.5772
42632SOL     OW34753   8.030   1.283   7.992 -0.0163  0.2133 -0.2485
42632SOL    HW134754   8.020   1.244   7.905 -2.7418 -0.4659  0.2822
42632SOL    HW234755   7.967   1.236   8.046  0.9891  1.2354  1.8989
42633SOL     OW34756  11.953   3.160   9.384  0.4275 -0.1708  0.1996
42633SOL    HW134757  11.901   3.206   9.318 -0.3180 -0.3059  0.6880
42633SOL    HW234758  12.030   3.217   9.397 -0.4878  0.9734  0.8090
42634SOL     OW34759  11.644   8.078   8.144  0.2851 -0.1244  0.6269
42634SOL    HW134760  11.697   8.053   8.068 -0.8768 -0.0565 -0.2285
42634SOL    HW234761  11.627   8.171   8.132  0.4830 -0.0051  1.2264
42635SOL     OW34762   7.534   3.612   9.746 -0.0643  0.0181  0.0875
42635SOL    HW134763   7.560   3.635   9.835 -1.6366 -0.3251  0.6698
42635SOL    HW234764   7.503   3.695   9.708 -1.9196 -0.2933  0.8112
42636SOL     OW34765  11.760   6.565  12.198 -0.2090  0.1553 -0.1781
42636SOL    HW134766  11.690   6.593  12.139  1.1303  5.2275  0.2065
42636SOL    HW234767  11.834   6.547  12.141  0.0162  1.3863 -0.2974
42637SOL     OW34768  11.563   6.535  10.374  0.3632  0.2143 -0.2608
42637SOL    HW134769  11.511   6.487  10.309 -0.3573 -0.6858  0.9347
42637SOL    HW234770  11.652   6.536  10.339  0.0896 -0.7254 -1.0010
42638SOL     OW34771  11.479   2.050   4.757  0.2010  0.1548  0.4958
42638SOL    HW134772  11.501   2.134   4.796  1.4632  0.1498 -0.1501
42638SOL    HW234773  11.495   1.986   4.826 -1.2282  0.4594  1.1457
42639SOL     OW34774   1.411   7.865  11.452  0.4457 -0.6938 -0.3604
42639SOL    HW134775   1.338   7.807  11.432 -0.0647 -0.5068  0.8618
42639SOL    HW234776   1.421   7.859  11.547  2.6550 -1.4463 -0.5950
42640SOL     OW34777   7.177  10.694  11.168  0.0582 -0.1354 -0.7616
42640SOL    HW134778   7.109  10.664  11.229  2.3275 -0.2145  1.9160
42640SOL    HW234779   7.206  10.778  11.204  2.9041 -1.1639 -0.4545
42641SOL     OW34780   8.943   9.356   4.590  0.0042 -0.5449 -0.0923
42641SOL    HW134781   8.884   9.281   4.594  0.7605 -1.1730 -0.4332
42641SOL    HW234782   8.886   9.431   4.572 -0.7625 -1.0294  0.2934
42642SOL     OW34783   7.877   7.928   1.651 -0.1733  0.0126 -0.0005
42642SOL    HW134784   7.901   7.960   1.738 -1.3808  0.6191  0.1179
42642SOL    HW234785   7.957   7.885   1.620 -0.1404 -1.4670  1.9591
42643SOL     OW34786  10.250   3.379   8.690 -0.5330  0.0162  0.4948
42643SOL    HW134787  10.247   3.474   8.676 -0.2872  0.0493  0.6471
42643SOL    HW234788  10.242   3.342   8.602  0.9793  0.2181  0.2427
42644SOL     OW34789   3.171   7.753  11.381 -0.5080  0.2866 -0.5237
42644SOL    HW134790   3.187   7.766  11.287 -1.6718  0.7263 -0.6837
42644SOL    HW234791   3.176   7.658  11.393  1.3054  0.3282 -0.6856
42645SOL     OW34792  11.952   6.279   0.657 -0.3872 -0.5064 -0.1904
42645SOL    HW134793  11.862   6.308   0.642 -0.6394 -1.2399 -0.1290
42645SOL    HW234794  11.945   6.208   0.721 -0.0211 -2.1805 -1.9195
42646SOL     OW34795   2.881   2.608  11.476 -0.3252 -0.2249 -0.1135
42646SOL    HW134796   2.901   2.701  11.468 -0.4433 -0.2424 -0.6451
42646SOL    HW234797   2.943   2.576  11.541 -0.1504  0.1848 -0.0737
42647SOL     OW34798   0.365   7.939   1.691 -0.3215  0.3660  0.4120
42647SOL    HW134799   0.338   8.006   1.754 -2.4364 -0.7688  0.8046
42647SOL    HW234800   0.293   7.937   1.627  0.6295 -0.2121 -0.6675
42648SOL     OW34801   7.039  10.489   5.727 -0.4487  0.3258  0.1271
42648SOL    HW134802   6.975  10.543   5.774 -0.2799  0.8678 -0.2500
42648SOL    HW234803   6.998  10.403   5.720 -1.1090  0.6482 -0.0449
42649SOL     OW34804   0.103  12.121   5.090  0.0976  0.6372 -0.4091
42649SOL    HW134805   0.111  12.119   4.994  1.9337  2.5275 -0.3590
42649SOL    HW234806   0.020  12.166   5.106 -1.5118 -1.9049 -1.0412
42650SOL     OW34807   6.128   9.699   0.025 -0.1009 -0.4020  0.3769
42650SOL    HW134808   6.197   9.680   0.088 -0.0246 -1.4327  0.0103
42650SOL    HW234809   6.152   9.784  -0.012  0.6291 -0.4521  0.7151
42651SOL     OW34810   7.471  10.738   6.906 -0.4408 -0.0099 -0.6128
42651SOL    HW134811   7.531  10.755   6.835 -0.5279  1.3517 -0.3848
42651SOL    HW234812   7.521  10.685   6.968 -0.5625 -1.7560 -1.9319
42652SOL     OW34813   1.803  12.116   2.236 -0.3446  0.1694 -0.0468
42652SOL    HW134814   1.795  12.208   2.265 -0.9593  0.4962 -1.1909
42652SOL    HW234815   1.772  12.117   2.146  0.0937 -1.0988 -0.2238
42653SOL     OW34816   5.391   8.265   8.807 -0.3655 -0.3148 -0.0033
42653SOL    HW134817   5.376   8.290   8.899 -3.1322 -0.6821 -0.2834
42653SOL    HW234818   5.395   8.348   8.760 -3.3666 -0.1175 -0.0802
42654SOL     OW34819  10.587   9.233   5.262 -0.0906 -0.0717 -0.4735
42654SOL    HW134820  10.576   9.184   5.180  0.4540 -1.7788  0.4121
42654SOL    HW234821  10.561   9.322   5.241 -0.1402 -0.5111 -2.4555
42655SOL     OW34822   4.098   6.226   6.285  0.0531  0.2728 -0.8646
42655SOL    HW134823   4.135   6.151   6.240 -0.0916  0.7042 -1.7270
42655SOL    HW234824   4.161   6.297   6.269 -0.4276  0.6493 -1.1354
42656SOL     OW34825   9.168   0.704   0.506  0.3270  0.1383  0.9373
42656SOL    HW134826   9.202   0.614   0.511 -0.4281 -0.1258  1.7032
42656SOL    HW234827   9.212   0.743   0.431  1.1536 -0.6731  0.9890
42657SOL     OW34828   7.624   5.754   6.383 -0.2375 -0.1623  0.0878
42657SOL    HW134829   7.548   5.726   6.332  0.3439  0.0758 -0.9372
42657SOL    HW234830   7.668   5.819   6.328 -0.2782  1.0512  1.4360
42658SOL     OW34831   6.367   5.656  11.188  0.6403 -0.4277  0.4042
42658SOL    HW134832   6.402   5.711  11.118 -0.1817 -1.2395 -0.6777
42658SOL    HW234833   6.443   5.612  11.225  0.9492 -1.1609 -1.0241
42659SOL     OW34834   7.775  11.765   3.353 -0.1577  0.2110  0.3369
42659SOL    HW134835   7.767  11.670   3.338  1.0312 -0.0852  1.4175
42659SOL    HW234836   7.854  11.790   3.306  0.1309  0.4589  0.9536
42660SOL     OW34837   9.804   3.352   9.521  0.3900  0.2295 -0.2803
42660SOL    HW134838   9.827   3.341   9.429 -0.2311  2.3116 -0.7564
42660SOL    HW234839   9.709   3.364   9.521  0.0679 -1.8240  0.9059
42661SOL     OW34840   7.852   3.414   6.217  0.0872  0.5506  0.1380
42661SOL    HW134841   7.928   3.461   6.250 -0.4945  0.4480  1.6957
42661SOL    HW234842   7.859   3.327   6.257 -0.7244  0.4701  0.1194
42662SOL     OW34843  11.535   6.018   9.171  0.0713  0.7051 -0.6086
42662SOL    HW134844  11.505   6.100   9.132 -0.4084  1.3111  0.9782
42662SOL    HW234845  11.505   6.021   9.262  1.2465 -0.6035 -0.1291
42663SOL     OW34846   6.615   8.534   3.784  0.3915  0.5815 -0.2295
42663SOL    HW134847   6.700   8.490   3.790  0.4585  0.6887 -0.3624
42663SOL    HW234848   6.601   8.545   3.690 -0.1288 -0.1113 -0.2298
42664SOL     OW34849   9.906   1.621   5.266 -0.3214  0.3003 -0.6555
42664SOL    HW134850   9.898   1.686   5.197 -0.7387 -0.6284 -1.5053
42664SOL    HW234851   9.880   1.539   5.225  2.7017 -0.9135 -0.3587
42665SOL     OW34852   0.792   8.297  11.724  0.4080  0.0510 -0.1259
42665SOL    HW134853   0.797   8.235  11.652  1.5029 -0.0127 -0.0095
42665SOL    HW234854   0.782   8.383  11.681 -1.7294 -0.2077 -0.2773
42666SOL     OW34855   7.999   6.760   7.106  0.4303  0.0778 -0.4134
42666SOL    HW134856   8.016   6.747   7.199  0.7833 -2.4900 -0.7515
42666SOL    HW234857   8.000   6.671   7.069  0.8910  1.0622 -2.9744
42667SOL     OW34858   2.032   1.006   2.826 -0.6697 -0.0242  0.3110
42667SOL    HW134859   1.950   0.959   2.810 -0.4972 -0.2856  0.1892
42667SOL    HW234860   2.073   1.012   2.740 -0.1817 -0.6006  0.5022
42668SOL     OW34861   5.667   2.559   1.966 -0.1999 -0.1700 -0.1423
42668SOL    HW134862   5.627   2.644   1.948  0.8247  0.0584 -1.5397
42668SOL    HW234863   5.714   2.570   2.048 -2.3602 -0.2516  1.1867
42669SOL     OW34864   2.611   9.809  11.692  0.4774 -0.0616  0.1122
42669SOL    HW134865   2.548   9.858  11.745  0.7954  0.2891  0.1731
42669SOL    HW234866   2.696   9.849  11.714  0.8234 -1.0715  0.6636
42670SOL     OW34867   5.102   0.815   7.907 -0.2137  0.9253  0.2238
42670SOL    HW134868   5.166   0.850   7.844 -0.2159  2.6147  1.0864
42670SOL    HW234869   5.019   0.817   7.860  0.1309  0.0461 -0.4439
42671SOL     OW34870   3.933  12.195   7.602  0.1404 -0.0136  0.2689
42671SOL    HW134871   3.938  12.228   7.692 -0.3336 -0.4821  0.4717
42671SOL    HW234872   4.009  12.232   7.558 -0.0048  0.7956  0.6789
42672SOL     OW34873  11.230  11.350   2.376 -0.3966 -0.0431  0.0262
42672SOL    HW134874  11.271  11.289   2.438 -1.0662 -0.9530 -0.4007
42672SOL    HW234875  11.288  11.351   2.300  2.5145  3.9481  1.9323
42673SOL     OW34876   3.138   9.417   6.565 -0.2260  0.3914  0.3546
42673SOL    HW134877   3.134   9.473   6.643  0.5683 -0.3710  0.9607
42673SOL    HW234878   3.097   9.469   6.496  0.1147  1.5428  0.9993
42674SOL     OW34879   7.551   2.302  11.872 -0.1847  0.2145 -0.0206
42674SOL    HW134880   7.540   2.362  11.799  1.5318 -0.0733 -0.5601
42674SOL    HW234881   7.483   2.328  11.935 -2.4861 -0.3064 -2.1652
42675SOL     OW34882   1.655  11.654   3.251 -0.3227 -0.4768  0.1234
42675SOL    HW134883   1.651  11.578   3.309 -2.4837 -1.3200 -1.0429
42675SOL    HW234884   1.673  11.728   3.310  0.8531 -1.7170  1.3944
42676SOL     OW34885   6.782   5.646   9.108 -0.2676  0.4101  0.4713
42676SOL    HW134886   6.855   5.684   9.156 -0.5388 -0.3249  1.4899
42676SOL    HW234887   6.798   5.670   9.017 -0.4207  2.8968  1.0487
42677SOL     OW34888   8.742   7.690  11.110  0.0430  0.0906  0.1910
42677SOL    HW134889   8.744   7.757  11.178 -1.2135 -0.4250  0.7730
42677SOL    HW234890   8.685   7.621  11.146 -0.2276 -0.4285 -1.1644
42678SOL     OW34891   7.898   9.235   4.803  0.6821  0.1470 -0.2094
42678SOL    HW134892   7.868   9.147   4.781  3.0235 -0.4197 -1.4798
42678SOL    HW234893   7.914   9.277   4.719 -1.2988  2.2089  0.3491
42679SOL     OW34894   0.275   5.187   1.975 -0.3291  0.2467 -0.2173
42679SOL    HW134895   0.227   5.270   1.971 -0.7623  0.0737  0.8571
42679SOL    HW234896   0.230   5.137   2.044 -0.5247 -1.1705 -1.3330
42680SOL     OW34897   4.910   9.161  10.682  0.2723 -0.6960 -0.0008
42680SOL    HW134898   4.938   9.251  10.669 -0.8829 -0.1499  1.1645
42680SOL    HW234899   4.991   9.112  10.693  0.9498  0.0414 -1.4123
42681SOL     OW34900   7.591   9.188   3.083 -0.0243 -0.8559 -0.5419
42681SOL    HW134901   7.633   9.274   3.094 -2.1126 -0.0060  1.5835
42681SOL    HW234902   7.517   9.205   3.025 -0.6454 -1.1318  0.1570
42682SOL     OW34903   3.519   4.156   5.448 -0.5102 -0.6064 -0.4710
42682SOL    HW134904   3.586   4.215   5.414 -1.1540  0.0161 -0.7015
42682SOL    HW234905   3.525   4.078   5.393  0.2550 -0.7059 -0.2574
42683SOL     OW34906  11.844   8.621   0.839 -0.3556  0.6252 -0.0866
42683SOL    HW134907  11.837   8.686   0.909 -1.5408 -2.8949  3.4321
42683SOL    HW234908  11.755   8.592   0.824  0.2007 -0.6714 -1.0574
42684SOL     OW34909   4.370   1.261   0.303 -0.6108 -0.3495 -0.6279
42684SOL    HW134910   4.452   1.211   0.295 -0.5926 -0.3063 -0.7045
42684SOL    HW234911   4.366   1.286   0.396 -0.3153  0.0334 -0.7176
42685SOL     OW34912   5.377   8.333   1.279  0.0739 -0.1210 -0.5456
42685SOL    HW134913   5.396   8.391   1.206  0.1844  0.3166 -0.1758
42685SOL    HW234914   5.450   8.271   1.281  0.0962 -0.1018 -0.7730
42686SOL     OW34915   2.752   3.310   2.797 -0.3003 -0.8819 -0.0374
42686SOL    HW134916   2.717   3.340   2.881  1.9181  2.4484 -0.1262
42686SOL    HW234917   2.838   3.274   2.819  0.8336  1.1436 -0.8943
42687SOL     OW34918   5.194   1.932  10.624 -0.3990  0.0607 -0.0087
42687SOL    HW134919   5.222   2.020  10.647  0.5627 -0.3442  0.4197
42687SOL    HW234920   5.211   1.925  10.530  2.2116 -0.5930  0.4446
42688SOL     OW34921   8.410   9.603   7.034  0.6935 -0.0850  0.0493
42688SOL    HW134922   8.425   9.691   7.068 -2.4797 -0.6859  3.6661
42688SOL    HW234923   8.455   9.545   7.095  0.2414 -1.0771 -0.5390
42689SOL     OW34924   1.388   5.981   4.871 -0.3178  0.3410 -0.2327
42689SOL    HW134925   1.367   6.001   4.780 -0.6059  2.0664  0.1896
42689SOL    HW234926   1.405   6.066   4.912  0.0918 -0.4217  1.2644
42690SOL     OW34927   9.990   5.124  11.454  0.8110  0.4472 -0.2967
42690SOL    HW134928   9.996   5.146  11.361  0.1792 -1.8565 -0.9470
42690SOL    HW234929  10.081   5.112  11.482  0.9815 -3.1969 -1.8579
42691SOL     OW34930   6.956   5.510   3.534 -0.1240 -0.2739 -0.7709
42691SOL    HW134931   6.891   5.578   3.552  1.0969  0.8021 -0.2700
42691SOL    HW234932   7.030   5.531   3.591 -0.7262 -3.6406  1.5418
42692SOL     OW34933   2.667   8.495   6.771  0.2737 -0.7974  0.5106
42692SOL    HW134934   2.722   8.567   6.802 -0.5314 -1.0476  2.6778
42692SOL    HW234935   2.719   8.453   6.702  2.0901 -0.0540  1.3587
42693SOL     OW34936   4.184  11.593   5.116 -0.5285 -0.2070  0.1618
42693SOL    HW134937   4.119  11.528   5.088  0.1695 -0.6506 -0.4552
42693SOL    HW234938   4.269  11.551   5.100 -0.0758  0.6142  0.3528
42694SOL     OW34939   9.171   2.907   7.205 -0.2818 -0.4649  0.1616
42694SOL    HW134940   9.211   2.973   7.148 -0.1123 -0.6129  0.1102
42694SOL    HW234941   9.243   2.850   7.230 -0.3733 -0.4623  0.4406
42695SOL     OW34942   3.176   1.909   4.458 -0.8219 -0.1577  0.0461
42695SOL    HW134943   3.112   1.946   4.519 -1.2072  0.7651 -0.8837
42695SOL    HW234944   3.138   1.826   4.431 -1.0445 -0.1803  0.4262
42696SOL     OW34945   0.096   4.064   0.792  0.0424  0.5679  0.3922
42696SOL    HW134946   0.055   4.151   0.785 -0.4840  0.3785  1.0729
42696SOL    HW234947   0.190   4.082   0.789 -0.0600  1.1781  0.6455
42697SOL     OW34948   5.494   8.748  10.195  0.3740 -0.0753  0.6228
42697SOL    HW134949   5.521   8.705  10.276  0.1514  1.0680  1.3358
42697SOL    HW234950   5.542   8.831  10.194  1.3551 -0.6118 -1.0830
42698SOL     OW34951   8.106   0.909   8.880  0.4411 -0.3512 -0.2513
42698SOL    HW134952   8.050   0.885   8.954 -1.0655  1.8059 -0.6173
42698SOL    HW234953   8.119   0.826   8.833  0.4853 -1.5518  1.7523
42699SOL     OW34954   4.784   3.120  11.040 -0.3057 -0.6159 -0.1792
42699SOL    HW134955   4.876   3.097  11.025 -0.5631 -0.7898 -1.6107
42699SOL    HW234956   4.748   3.045  11.088  0.8585  0.5356  2.7541
42700SOL     OW34957   8.676   5.022   0.515 -0.3291 -0.0969  0.1481
42700SOL    HW134958   8.652   5.012   0.608 -3.9521  0.5723 -0.5398
42700SOL    HW234959   8.601   5.067   0.477  0.4999 -1.4177 -3.3776
42701SOL     OW34960   9.041   5.642   5.193 -0.6151  0.0396  0.6388
42701SOL    HW134961   9.066   5.618   5.104  1.4787  1.7121  0.6739
42701SOL    HW234962   9.029   5.737   5.189 -0.7504  0.1028  2.0844
42702SOL     OW34963   2.524  10.897  11.259  0.2993  0.2919 -0.1335
42702SOL    HW134964   2.541  10.990  11.244 -3.3717  1.4382  1.5629
42702SOL    HW234965   2.447  10.878  11.205  0.0202 -1.3126  0.7608
42703SOL     OW34966  12.195  12.176   3.109  0.3079  0.5917 -0.0936
42703SOL    HW134967  12.134  12.144   3.043  1.3798  1.0406 -1.3585
42703SOL    HW234968  12.280  12.139   3.082  1.1757  2.6152 -0.3032
42704SOL     OW34969   4.004   9.090   1.058  0.3108 -0.1042 -0.9445
42704SOL    HW134970   3.952   9.171   1.059 -1.2489 -1.0238 -2.3685
42704SOL    HW234971   4.094   9.120   1.045  0.3002  1.5734  1.9555
42705SOL     OW34972   6.911  12.001   4.568  0.1952  0.4018  0.0493
42705SOL    HW134973   6.999  11.969   4.546  0.1499  0.3505 -0.0575
42705SOL    HW234974   6.922  12.042   4.654  0.5293  1.2045 -0.3531
42706SOL     OW34975   0.806  11.427   2.672  0.7047  0.3106 -0.0503
42706SOL    HW134976   0.775  11.363   2.608  0.0484  2.0674 -1.6000
42706SOL    HW234977   0.857  11.376   2.734 -0.6298 -1.8616 -0.5987
42707SOL     OW34978   3.533  10.369   3.349  0.3840 -0.4543 -0.1707
42707SOL    HW134979   3.578  10.447   3.316 -0.1897 -0.4838 -1.0451
42707SOL    HW234980   3.463  10.404   3.405 -1.3037 -0.2089 -2.3217
42708SOL     OW34981   2.297   2.648   4.172 -0.7962  0.0071  0.1487
42708SOL    HW134982   2.392   2.659   4.173 -0.9274  1.2263  1.0710
42708SOL    HW234983   2.264   2.731   4.138 -1.5760 -0.0706  0.7037
42709SOL     OW34984  11.176   3.210   1.376  0.0189  0.1037 -0.1504
42709SOL    HW134985  11.181   3.166   1.461  1.0653 -0.0537 -0.2797
42709SOL    HW234986  11.111   3.160   1.327 -1.1915  0.6732  0.8185
42710SOL     OW34987   7.000  11.563   4.145  0.4125 -0.3501  0.7600
42710SOL    HW134988   7.047  11.544   4.226  0.0236  1.9966  1.6311
42710SOL    HW234989   6.917  11.516   4.153  0.2979  0.0072  1.8339
42711SOL     OW34990   2.653   0.341  10.136 -0.1026 -0.4637  0.2541
42711SOL    HW134991   2.588   0.291  10.086  0.0118  1.3877 -1.9149
42711SOL    HW234992   2.731   0.286  10.136 -0.7457 -1.3919  0.2235
42712SOL     OW34993  11.254   3.678   5.037 -0.0435 -0.1981 -0.3191
42712SOL    HW134994  11.215   3.759   5.003  0.0620  0.0939  0.2300
42712SOL    HW234995  11.340   3.706   5.070  0.1399 -0.6080 -0.4456
42713SOL     OW34996   2.167   9.729   6.922 -0.1610  0.5095 -0.4025
42713SOL    HW134997   2.077   9.730   6.891 -1.1703 -0.1452  2.2581
42713SOL    HW234998   2.171   9.799   6.988  1.6901  1.4362 -1.4055
42714SOL     OW34999   0.106  10.685   4.994  0.2069  0.5075  0.4062
42714SOL    HW135000   0.105  10.776   4.964 -0.4248  0.3642 -0.0089
42714SOL    HW235001   0.095  10.633   4.914 -1.3031  0.1164  0.8366
42715SOL     OW35002   7.695   2.535   7.686  0.2781  0.4904 -0.1857
42715SOL    HW135003   7.677   2.451   7.727  1.1318  0.4295  0.0905
42715SOL    HW235004   7.638   2.538   7.609 -0.0009 -0.1897 -0.0058
42716SOL     OW35005   6.504   7.234   7.485 -0.0435 -0.1077  0.4582
42716SOL    HW135006   6.555   7.315   7.483 -0.0333 -0.1090  0.6505
42716SOL    HW235007   6.516   7.197   7.398  1.3556 -0.7752  0.9083
42717SOL     OW35008   3.514   8.421   1.194  0.3574  0.2867  0.0611
42717SOL    HW135009   3.434   8.472   1.209  0.0445 -0.3208  0.5298
42717SOL    HW235010   3.513   8.400   1.101 -0.0960  0.1805  0.0894
42718SOL     OW35011   2.271   2.716   5.179  0.0736 -0.1865  0.1749
42718SOL    HW135012   2.331   2.649   5.148 -0.3460  0.1823 -1.5330
42718SOL    HW235013   2.266   2.779   5.108 -0.5923  0.9661  1.1917
42719SOL     OW35014   3.594   2.097   2.858 -0.4587  0.0624  0.3254
42719SOL    HW135015   3.634   2.150   2.927  4.1200 -1.7046 -0.5623
42719SOL    HW235016   3.655   2.105   2.784 -2.9903 -1.3649 -2.0918
42720SOL     OW35017   2.427   5.380   3.218  0.1808 -0.3443 -0.1520
42720SOL    HW135018   2.514   5.407   3.190 -0.3839 -0.4780 -2.2263
42720SOL    HW235019   2.442   5.330   3.298  1.8569  0.6635  0.2206
42721SOL     OW35020   4.982   8.749   7.467  0.4479 -0.3565  0.3081
42721SOL    HW135021   4.901   8.698   7.460 -0.7225  1.1783  2.0081
42721SOL    HW235022   5.020   8.722   7.550  2.1542 -1.6359 -0.8300
42722SOL     OW35023   1.532   3.595   4.391  0.0373 -0.4108  0.1459
42722SOL    HW135024   1.446   3.564   4.364 -0.1065 -1.0272  1.2502
42722SOL    HW235025   1.559   3.534   4.460  0.4342  0.9743  1.2850
42723SOL     OW35026   2.086   9.655  11.003  0.7252 -0.0490  0.2607
42723SOL    HW135027   2.097   9.569  11.043 -0.4688  0.5134  1.9316
42723SOL    HW235028   2.034   9.639  10.924  2.3790 -1.0844 -0.6623
42724SOL     OW35029   6.346   6.710   2.946  0.1450 -0.3015  0.1318
42724SOL    HW135030   6.310   6.636   2.897  0.5897 -0.3847 -0.0736
42724SOL    HW235031   6.282   6.727   3.015 -1.2744  0.8029 -1.3885
42725SOL     OW35032   9.851  10.626   1.887 -0.0290 -0.4105  0.6010
42725SOL    HW135033   9.849  10.719   1.864 -0.0864 -0.8304 -1.2312
42725SOL    HW235034   9.767  10.611   1.932 -0.5889  0.1686 -0.2198
42726SOL     OW35035   8.453   0.096   2.695  0.2094 -0.1758 -0.1226
42726SOL    HW135036   8.521   0.032   2.713 -0.7663 -1.1120  0.3129
42726SOL    HW235037   8.373   0.045   2.688 -0.5927  0.9934  0.2226
42727SOL     OW35038   6.952   1.280  11.446  0.2150  0.1679 -0.2509
42727SOL    HW135039   6.949   1.368  11.407 -0.6379 -0.2290 -1.1269
42727SOL    HW235040   6.902   1.287  11.527  1.3492  0.8158  0.4265
42728SOL     OW35041   7.249   9.523   9.663  0.0613 -0.5355  0.1334
42728SOL    HW135042   7.200   9.489   9.737  0.1181  0.0650  0.4531
42728SOL    HW235043   7.333   9.551   9.700 -0.7372  1.8853  0.2985
42729SOL     OW35044   4.399   0.733   7.396  0.1325 -0.3979 -0.0071
42729SOL    HW135045   4.337   0.799   7.426 -0.4408 -1.0222  0.2085
42729SOL    HW235046   4.374   0.715   7.306 -0.6024 -1.3202  0.3663
42730SOL     OW35047   4.494   6.788   7.089  0.0228  0.1691 -0.4997
42730SOL    HW135048   4.551   6.712   7.100 -0.0828 -0.2298 -2.3988
42730SOL    HW235049   4.554   6.863   7.085  0.0776  0.3972  2.3849
42731SOL     OW35050   4.562   4.668   1.355  0.1821 -0.1525  0.2409
42731SOL    HW135051   4.498   4.637   1.419 -0.5170 -0.6244 -0.6420
42731SOL    HW235052   4.582   4.757   1.381  1.1233 -0.8343  2.0203
42732SOL     OW35053   6.263   7.240   3.979 -0.0419  0.1283  0.9903
42732SOL    HW135054   6.234   7.329   3.960 -0.4170 -0.6008 -2.5077
42732SOL    HW235055   6.183   7.187   3.971  0.5076 -0.7356  1.1374
42733SOL     OW35056   9.644  11.022  11.914 -0.0430  0.3308  0.0386
42733SOL    HW135057   9.656  10.958  11.845 -2.2022  0.3888 -0.4752
42733SOL    HW235058   9.677  11.104  11.878  1.7980 -0.2514  0.3226
42734SOL     OW35059   6.037  10.980  11.895 -0.4401 -0.1662  0.3315
42734SOL    HW135060   6.118  11.030  11.904 -1.2301  1.1502  0.2697
42734SOL    HW235061   6.040  10.947  11.805 -0.6029  1.0277 -0.1252
42735SOL     OW35062   3.436   8.009   1.223  0.1096 -0.8008  0.2067
42735SOL    HW135063   3.452   7.996   1.129  3.3149  0.7864  0.3883
42735SOL    HW235064   3.381   7.935   1.249 -0.4238 -1.5885 -2.7869
42736SOL     OW35065   5.544   8.529   5.313 -0.3858 -0.0895 -0.1299
42736SOL    HW135066   5.452   8.519   5.288 -0.8007  1.1143  0.8366
42736SOL    HW235067   5.576   8.600   5.259  0.2963 -1.1819 -1.2087
42737SOL     OW35068   6.867  11.529   6.093  0.2608  0.1646 -0.1826
42737SOL    HW135069   6.838  11.515   6.183  2.4815 -1.1226  0.4228
42737SOL    HW235070   6.834  11.454   6.044 -1.7875  1.3464 -0.7538
42738SOL     OW35071   4.348   4.555   8.673  0.0952  0.6486 -0.6327
42738SOL    HW135072   4.297   4.607   8.736  0.0633  1.1065 -1.0348
42738SOL    HW235073   4.311   4.578   8.588  0.6080  0.5640 -0.8796
42739SOL     OW35074   6.118  11.008   5.113 -0.2651 -0.1159  0.4330
42739SOL    HW135075   6.207  11.028   5.145 -0.7715  0.6192  1.4393
42739SOL    HW235076   6.124  10.917   5.082  0.7090 -0.2596  0.9978
42740SOL     OW35077   7.233   5.132   5.044 -0.5897  0.5587  0.2346
42740SOL    HW135078   7.159   5.193   5.049 -0.6659  0.4284  0.9088
42740SOL    HW235079   7.271   5.146   4.958  0.1641  2.4694  0.8284
42741SOL     OW35080   6.564   0.504   2.163  0.3188 -0.1996 -0.2383
42741SOL    HW135081   6.593   0.551   2.241 -0.0349 -0.3798  0.0084
42741SOL    HW235082   6.610   0.546   2.090 -1.6990  2.1314 -0.3277
42742SOL     OW35083   3.538   0.256   2.490  0.0770  0.2085 -0.0152
42742SOL    HW135084   3.449   0.252   2.455 -0.1616  1.2454  0.4250
42742SOL    HW235085   3.550   0.348   2.515  0.8303 -0.1557  1.0587
42743SOL     OW35086   6.717   2.304   2.187 -0.5961  0.1080  0.3514
42743SOL    HW135087   6.686   2.304   2.096 -3.6446  0.2235  1.2757
42743SOL    HW235088   6.812   2.293   2.180 -0.8349 -0.9790 -2.7944
42744SOL     OW35089   2.620   4.234   7.306 -0.0421  0.3048 -0.5442
42744SOL    HW135090   2.624   4.222   7.211  1.6139  0.7591 -0.5637
42744SOL    HW235091   2.596   4.147   7.340  2.6428 -0.8102 -1.2213
42745SOL     OW35092   7.517   1.791   8.624 -0.0840  0.1459 -0.0094
42745SOL    HW135093   7.567   1.852   8.677  0.2193 -0.5964  0.5796
42745SOL    HW235094   7.578   1.720   8.603 -0.8715 -0.7923  0.7508
42746SOL     OW35095   8.269  11.841   4.488  0.3718  0.5104 -0.3116
42746SOL    HW135096   8.290  11.915   4.544  0.8889  0.2147 -0.0982
42746SOL    HW235097   8.325  11.852   4.412  0.7721  0.1123 -0.0804
42747SOL     OW35098   4.764   0.150   4.502  0.0404 -0.5024  0.1307
42747SOL    HW135099   4.801   0.142   4.589 -1.0658  1.5415  0.8591
42747SOL    HW235100   4.744   0.060   4.476  1.6814 -1.2881  1.3504
42748SOL     OW35101   2.069   5.861   2.046  0.4818 -0.0073 -0.3796
42748SOL    HW135102   2.141   5.797   2.046  0.6939  0.2319  0.3862
42748SOL    HW235103   2.001   5.819   1.993  1.5231  0.1602 -1.9475
42749SOL     OW35104   9.410   8.764   4.326  0.2207 -0.0204  0.1522
42749SOL    HW135105   9.352   8.772   4.401 -0.2230  2.2255 -0.3648
42749SOL    HW235106   9.354   8.735   4.254  0.1953 -0.0717  0.1932
42750SOL     OW35107   1.750   0.096   1.545  0.4686  0.1735 -0.3480
42750SOL    HW135108   1.789   0.009   1.543  2.2322  0.8614  1.2051
42750SOL    HW235109   1.696   0.100   1.466  1.9935 -1.5648 -1.5516
42751SOL     OW35110  11.990   3.186   7.521 -0.0294 -0.8417  0.2058
42751SOL    HW135111  12.032   3.214   7.602  1.5826  0.0966 -0.9040
42751SOL    HW235112  11.898   3.209   7.533  0.8055  3.1509  0.2450
42752SOL     OW35113   5.131   7.738   0.572 -0.1819 -0.5549 -0.5478
42752SOL    HW135114   5.125   7.795   0.649  0.4586 -0.7707 -0.3280
42752SOL    HW235115   5.169   7.656   0.606 -1.2980 -1.2022 -0.8141
42753SOL     OW35116   3.646  12.487  11.447  0.4142 -0.3265  0.0293
42753SOL    HW135117   3.703  12.460  11.520  0.4249 -1.3440 -0.3295
42753SOL    HW235118   3.559  12.459  11.474  0.2811  0.0928  0.0293
42754SOL     OW35119   4.409  11.894   9.654  0.5405  0.1994 -0.1674
42754SOL    HW135120   4.401  11.839   9.577 -0.4536 -0.3663  0.3073
42754SOL    HW235121   4.388  11.982   9.624  0.4936  0.0373 -0.6063
42755SOL     OW35122   4.776   0.400   4.873  0.5689  0.0348 -0.3424
42755SOL    HW135123   4.711   0.430   4.937  1.3668  0.4329  0.2858
42755SOL    HW235124   4.753   0.447   4.793 -0.4745 -0.5104 -0.3877
42756SOL     OW35125   1.125   9.616   2.337  0.7603 -0.1236 -0.2596
42756SOL    HW135126   1.064   9.689   2.322 -1.4329 -1.4788  1.4072
42756SOL    HW235127   1.145   9.583   2.250  0.4350  1.3931 -0.9470
42757SOL     OW35128   3.842   7.407   2.236 -0.4698  0.0700 -0.0244
42757SOL    HW135129   3.828   7.366   2.322 -0.5216  0.6034  0.2264
42757SOL    HW235130   3.811   7.342   2.173 -2.2135  0.4020  0.4410
42758SOL     OW35131   8.645  10.789   3.839 -0.3983  0.1676 -0.1658
42758SOL    HW135132   8.726  10.812   3.793 -0.9851  0.6989 -0.9616
42758SOL    HW235133   8.603  10.874   3.856 -0.7619 -0.1034  0.3020
42759SOL     OW35134   2.182   5.779   4.233 -0.0467  0.1129  0.3032
42759SOL    HW135135   2.165   5.728   4.313 -0.1614  0.8516  0.7634
42759SOL    HW235136   2.273   5.808   4.242  0.0789 -0.1706 -0.0476
42760SOL     OW35137   7.576  10.808   0.816 -0.4946  0.7732 -0.4887
42760SOL    HW135138   7.662  10.850   0.820 -1.1356  2.0537  1.1900
42760SOL    HW235139   7.560  10.777   0.905 -1.2964 -0.4890 -1.0482
42761SOL     OW35140   0.668   8.204   5.605 -0.3854  0.0201  0.0030
42761SOL    HW135141   0.688   8.293   5.634 -0.3051  0.3721 -1.0563
42761SOL    HW235142   0.643   8.214   5.513  0.1308 -1.1061 -0.2877
42762SOL     OW35143   2.550   8.480   4.054  0.3321 -0.1762  0.8679
42762SOL    HW135144   2.567   8.519   3.969  0.3412 -2.5055 -0.2721
42762SOL    HW235145   2.470   8.522   4.084  0.5237  0.9348 -0.1000
42763SOL     OW35146   7.234   0.097   7.111  0.1267 -0.2730 -0.0523
42763SOL    HW135147   7.307   0.054   7.066 -1.4516 -1.7149 -1.3794
42763SOL    HW235148   7.173   0.120   7.041  0.2122  2.9235  0.7696
42764SOL     OW35149   4.280   2.858   1.229  0.2210  0.1002 -0.7766
42764SOL    HW135150   4.206   2.915   1.250  0.8052 -0.2673  3.0441
42764SOL    HW235151   4.357   2.912   1.246  0.8446 -0.5185 -1.5333
42765SOL     OW35152  11.480   7.773   1.411  0.1626  0.4770 -0.0759
42765SOL    HW135153  11.522   7.764   1.497 -0.9020 -1.0876  0.3168
42765SOL    HW235154  11.443   7.687   1.393  0.4058  0.7549 -2.1571
42766SOL     OW35155   5.831   4.404   5.851  0.2836 -0.2380  0.2828
42766SOL    HW135156   5.761   4.363   5.801  0.1919 -0.4287  0.5651
42766SOL    HW235157   5.903   4.414   5.788  0.0631 -0.1946  0.0371
42767SOL     OW35158   1.232   5.239  11.158 -0.0114 -0.2731  0.2863
42767SOL    HW135159   1.266   5.274  11.241  0.5946 -2.2019  0.8933
42767SOL    HW235160   1.310   5.232  11.102 -0.1227 -0.6681  0.1806
42768SOL     OW35161   6.596   1.666   3.048 -0.2783 -0.0654 -0.2368
42768SOL    HW135162   6.673   1.611   3.032 -0.7523  0.1392 -4.4864
42768SOL    HW235163   6.522   1.605   3.045 -0.4797  0.0159  1.7810
42769SOL     OW35164   8.326  10.464   1.469  0.4289  0.3454 -0.0594
42769SOL    HW135165   8.393  10.532   1.478  0.3844  0.4179 -0.2746
42769SOL    HW235166   8.289  10.478   1.382 -0.1123  0.5346  0.1914
42770SOL     OW35167   1.215  11.591   3.644 -0.1525 -0.5488  0.0379
42770SOL    HW135168   1.236  11.628   3.730 -0.3437  0.0379 -0.1660
42770SOL    HW235169   1.298  11.596   3.595 -0.3786  0.3615 -0.2592
42771SOL     OW35170   0.154  11.469   1.807  0.6103  0.1930 -0.5825
42771SOL    HW135171   0.248  11.457   1.792  0.5148  0.2448 -1.2687
42771SOL    HW235172   0.128  11.393   1.858  1.2900  0.8782  0.8305
42772SOL     OW35173  11.414   5.381   9.136  0.1069 -0.3148  0.1011
42772SOL    HW135174  11.372   5.444   9.195  1.3969 -1.3844  2.2818
42772SOL    HW235175  11.467   5.435   9.077 -0.4338  0.7366  0.5578
42773SOL     OW35176   4.651  11.685   7.918 -0.0520  0.3957  0.1153
42773SOL    HW135177   4.602  11.753   7.873 -0.8149  0.4438  0.9942
42773SOL    HW235178   4.607  11.604   7.896  1.5137 -0.0117 -1.8451
42774SOL     OW35179   1.868   1.829  11.638  0.0190 -0.0052  0.3210
42774SOL    HW135180   1.832   1.797  11.555 -0.5420  1.3832 -0.0054
42774SOL    HW235181   1.961   1.810  11.633  0.4802  2.2838 -1.7907
42775SOL     OW35182   8.321   9.635  10.171  0.2964  0.1149  0.3056
42775SOL    HW135183   8.373   9.615  10.249 -1.2277  1.7372  1.8358
42775SOL    HW235184   8.364   9.711  10.132  0.1998  0.2467  0.4527
42776SOL     OW35185  12.082  10.607   9.858 -0.1456  0.0789 -0.0343
42776SOL    HW135186  12.001  10.614   9.808  0.4002  1.5236 -0.7678
42776SOL    HW235187  12.151  10.622   9.793  0.6142  1.1209  0.9878
42777SOL     OW35188   0.204   2.424  10.004  0.3720  0.1369  0.3631
42777SOL    HW135189   0.271   2.395  10.066  1.5031  1.3150 -0.2666
42777SOL    HW235190   0.252   2.469   9.935 -1.1308  1.7802  0.3153
42778SOL     OW35191  10.151  11.868   2.903 -0.3040 -0.7081  0.0288
42778SOL    HW135192  10.205  11.947   2.898 -1.8360  0.3229 -1.9793
42778SOL    HW235193  10.210  11.798   2.876  0.1069  0.3943 -2.2447
42779SOL     OW35194   5.254   3.316   0.827  0.1687 -0.8533 -0.5683
42779SOL    HW135195   5.303   3.237   0.848 -0.4817 -0.9689  0.5792
42779SOL    HW235196   5.206   3.337   0.907 -1.1256 -0.3634 -1.4427
42780SOL     OW35197  10.247   5.098   2.696  0.1424  0.2030 -0.0292
42780SOL    HW135198  10.185   5.025   2.682  0.7940 -0.3891  0.1084
42780SOL    HW235199  10.323   5.075   2.644 -0.6112  2.0999 -2.1265
42781SOL     OW35200  10.700   2.595   8.633 -0.3753 -0.0760  0.0625
42781SOL    HW135201  10.633   2.629   8.693 -2.4388 -1.3484 -1.3709
42781SOL    HW235202  10.725   2.670   8.579  1.5101  1.0866  2.3749
42782SOL     OW35203   4.231   8.786  12.460 -0.1051  0.3012 -0.3287
42782SOL    HW135204   4.305   8.726  12.456 -0.2097 -0.1094  2.0797
42782SOL    HW235205   4.217   8.814  12.370  1.3818 -1.5351 -1.1911
42783SOL     OW35206   0.677   2.654   8.697  0.5080  0.3537 -0.0703
42783SOL    HW135207   0.693   2.741   8.662  0.4295  1.2985  2.0851
42783SOL    HW235208   0.596   2.663   8.748  1.7534 -0.3105  2.1760
42784SOL     OW35209   2.924   5.792   0.398  0.1485 -0.2065 -0.3306
42784SOL    HW135210   2.880   5.877   0.404 -0.9832 -0.7149 -0.9828
42784SOL    HW235211   3.011   5.811   0.364 -0.0049  0.7142 -0.2218
42785SOL     OW35212   0.183   6.742   8.266  0.2321 -0.1208  0.0735
42785SOL    HW135213   0.115   6.680   8.292 -0.2377  0.1669 -0.4740
42785SOL    HW235214   0.227   6.765   8.349 -1.1042  0.6197  0.6080
42786SOL     OW35215   6.534   7.869   1.058  0.4065 -0.7221 -0.1637
42786SOL    HW135216   6.503   7.906   1.140  0.6181 -1.3179  0.1952
42786SOL    HW235217   6.601   7.930   1.027 -0.4744  0.1037 -0.4941
42787SOL     OW35218  11.213  10.375   3.735  0.2992  0.1879  0.1929
42787SOL    HW135219  11.300  10.335   3.732 -0.5800 -1.7708 -2.2565
42787SOL    HW235220  11.186  10.366   3.827  0.8343 -3.4907  0.1422
42788SOL     OW35221   9.022  11.181   6.363 -0.2472  0.2351 -0.2010
42788SOL    HW135222   8.939  11.228   6.355 -0.8346 -0.6089  0.7993
42788SOL    HW235223   8.998  11.093   6.390  1.0257  0.2201  0.9870
42789SOL     OW35224   2.689   8.021   0.569  0.0999  0.0419 -0.2240
42789SOL    HW135225   2.633   8.071   0.509  0.9058  0.7969 -0.3691
42789SOL    HW235226   2.688   7.932   0.534 -4.1322 -1.0537  1.9339
42790SOL     OW35227   4.856   7.461   5.065 -0.2380  0.5381  0.4884
42790SOL    HW135228   4.925   7.402   5.032 -0.8181  0.1621 -0.0823
42790SOL    HW235229   4.782   7.403   5.084 -0.2977  0.8990  1.4046
42791SOL     OW35230   7.503  11.785   3.442  0.4165 -0.5381  0.3866
42791SOL    HW135231   7.595  11.782   3.418  0.1096  1.0141 -1.0927
42791SOL    HW235232   7.456  11.795   3.359 -1.0113 -0.0451  1.2180
42792SOL     OW35233   2.040   7.667   8.186  0.3192  0.3740  0.2100
42792SOL    HW135234   2.031   7.602   8.117 -0.0688 -0.2477  0.8377
42792SOL    HW235235   1.984   7.739   8.157  1.5480  0.8978 -0.9919
42793SOL     OW35236   5.359   7.380   1.300  0.3719  0.0805 -0.9200
42793SOL    HW135237   5.395   7.308   1.248  1.5541  1.0805 -1.5549
42793SOL    HW235238   5.320   7.338   1.376  1.5846 -1.1916 -0.9561
42794SOL     OW35239  10.530   5.152  11.876 -0.2098 -0.0817  0.3619
42794SOL    HW135240  10.559   5.210  11.806  0.2222 -1.1828 -0.4112
42794SOL    HW235241  10.577   5.070  11.859 -0.4851 -0.5301  1.6529
42795SOL     OW35242   5.168   1.274   5.602  0.5403  0.4784 -0.7359
42795SOL    HW135243   5.222   1.235   5.533  1.1334 -0.5300  0.2744
42795SOL    HW235244   5.216   1.257   5.683 -2.8190 -3.6641  0.7622
42796SOL     OW35245   3.764   6.375   4.599  0.6067 -0.2086  0.2794
42796SOL    HW135246   3.760   6.419   4.514  0.4857  0.9093  0.8346
42796SOL    HW235247   3.744   6.445   4.662  2.2256 -0.6605  1.3348
42797SOL     OW35248   2.370  10.754   3.226 -0.2107 -0.3650 -0.0116
42797SOL    HW135249   2.385  10.772   3.133 -1.3713  0.7777 -0.0158
42797SOL    HW235250   2.458  10.743   3.263  0.3592  0.7001 -0.9673
42798SOL     OW35251   4.208  12.463   0.906  0.1207  0.4382  0.0686
42798SOL    HW135252   4.145  12.410   0.857  1.3831  1.7662 -3.3091
42798SOL    HW235253   4.161  12.542   0.931 -0.4461 -0.1014  0.7416
42799SOL     OW35254   2.869   7.592   1.000 -0.1377 -0.4693  0.3575
42799SOL    HW135255   2.929   7.527   1.036  1.0546  0.7387  0.6062
42799SOL    HW235256   2.829   7.548   0.925  1.1643 -1.2607  0.0966
42800SOL     OW35257   7.242   5.879  10.010 -0.1249 -0.5539  0.3048
42800SOL    HW135258   7.166   5.829  10.041 -0.6087  0.1177  0.2269
42800SOL    HW235259   7.204   5.949   9.958  0.4502  0.6884  1.5030
42801SOL     OW35260   8.376   7.107   6.248  0.5585 -0.1605 -0.0353
42801SOL    HW135261   8.350   7.199   6.244 -0.6946 -0.4479  0.9421
42801SOL    HW235262   8.426   7.100   6.330  1.2162 -0.2317 -0.4327
42802SOL     OW35263  10.367   2.883  10.217  0.0405 -0.2543 -0.5332
42802SOL    HW135264  10.462   2.894  10.209  0.1677 -1.8741 -1.7952
42802SOL    HW235265  10.341   2.947  10.283  2.2100 -0.6679  0.8347
42803SOL     OW35266   3.946   2.183   0.038  0.5687 -0.4262  0.0642
42803SOL    HW135267   3.955   2.235   0.118  0.3871  1.4328 -1.0664
42803SOL    HW235268   3.958   2.092   0.067  1.1201  0.2360  2.0853
42804SOL     OW35269   5.379   0.749   6.969  0.0633  0.5258  0.0616
42804SOL    HW135270   5.335   0.804   6.903 -0.7460 -0.5967 -0.3587
42804SOL    HW235271   5.472   0.766   6.956 -0.1289  0.9782 -0.7940
42805SOL     OW35272   1.476   0.021   2.084 -0.1875 -0.4769 -0.5278
42805SOL    HW135273   1.388   0.011   2.121 -0.2765  0.0148 -0.5930
42805SOL    HW235274   1.461   0.027   1.989 -0.2755  1.4488 -0.4282
42806SOL     OW35275   6.417   8.085   9.780  0.2959 -0.2282  0.2714
42806SOL    HW135276   6.404   8.027   9.704 -0.7181 -0.4370  0.5876
42806SOL    HW235277   6.375   8.167   9.755  0.8222  0.0299  0.2301
42807SOL     OW35278   2.847   3.347   7.189 -0.2375  0.1287 -0.3198
42807SOL    HW135279   2.819   3.375   7.102 -1.2208 -0.3512 -0.1803
42807SOL    HW235280   2.942   3.343   7.184 -0.2726  0.2870 -1.3138
42808SOL     OW35281  12.490   4.873   7.586  0.9428  0.0006  0.0055
42808SOL    HW135282  12.409   4.834   7.618  1.9454 -2.5279 -0.3438
42808SOL    HW235283  12.471   4.894   7.495  0.5863 -0.2971  0.0052
42809SOL     OW35284  11.484   5.131   3.770  0.2085  0.3392 -0.6866
42809SOL    HW135285  11.563   5.171   3.805  1.3253 -2.7618  0.7422
42809SOL    HW235286  11.421   5.135   3.843  1.6958 -3.8263  1.1505
42810SOL     OW35287   8.536   7.197   5.683 -0.8096 -0.1228 -0.6294
42810SOL    HW135288   8.527   7.291   5.700  2.0391  0.0029  0.8336
42810SOL    HW235289   8.469   7.177   5.618 -1.7347  2.8473 -0.6975
42811SOL     OW35290   9.736  12.227   4.010 -0.1759 -0.0401 -0.3657
42811SOL    HW135291   9.721  12.314   3.974 -1.5092  0.3346  1.0361
42811SOL    HW235292   9.661  12.176   3.982  0.2537 -0.5651 -0.5834
42812SOL     OW35293  12.289   9.243   8.054  0.0506  0.1778 -0.6182
42812SOL    HW135294  12.367   9.189   8.066 -0.8415 -0.9715  0.3983
42812SOL    HW235295  12.308   9.297   7.977  0.8404 -1.8803 -1.9525
42813SOL     OW35296   8.879   9.256   6.299 -0.1308 -0.1908 -0.2077
42813SOL    HW135297   8.848   9.230   6.386  0.1318 -1.4886 -0.4767
42813SOL    HW235298   8.932   9.182   6.270  2.2325  1.4436 -0.2766
42814SOL     OW35299   3.134   6.336   1.592  0.0495 -0.1865  0.2408
42814SOL    HW135300   3.057   6.391   1.584 -1.4323 -2.2832 -1.0820
42814SOL    HW235301   3.156   6.337   1.685 -1.5403  0.5095  0.6364
42815SOL     OW35302   9.005   0.668   9.994 -0.0937 -0.2543 -0.1261
42815SOL    HW135303   9.063   0.648  10.067  0.8101  0.6760 -0.5683
42815SOL    HW235304   8.998   0.763   9.993 -1.4900 -0.3480 -0.2001
42816SOL     OW35305  12.019   8.246   2.914  0.2834  0.0852  0.2109
42816SOL    HW135306  11.945   8.302   2.935  1.6063  0.7322  3.8899
42816SOL    HW235307  11.996   8.160   2.950  0.1805 -0.5464 -1.2716
42817SOL     OW35308   4.162   1.728   6.720  0.2834 -0.2304  0.3033
42817SOL    HW135309   4.229   1.727   6.789 -0.2014 -1.1551  0.7787
42817SOL    HW235310   4.205   1.688   6.645  1.0980  1.5541 -0.2504
42818SOL     OW35311   8.550   2.195  12.497 -0.5267 -0.5477  0.0111
42818SOL    HW135312   8.578   2.286  12.493 -3.0040  0.2662 -1.1633
42818SOL    HW235313   8.501   2.182  12.416  0.9428 -3.4086 -0.5532
42819SOL     OW35314   7.434   5.281   2.505 -0.1034  0.0150 -0.2400
42819SOL    HW135315   7.448   5.230   2.425 -1.8927 -1.3225  0.2431
42819SOL    HW235316   7.421   5.215   2.573  0.6396  1.1340  1.0390
42820SOL     OW35317   7.011   7.082   3.577 -0.0985 -0.2544 -0.2322
42820SOL    HW135318   7.057   7.055   3.657 -0.0991 -1.2373 -0.5478
42820SOL    HW235319   7.078   7.125   3.524  0.5010 -1.6850 -0.6941
42821SOL     OW35320   7.410   9.494   3.635 -0.5270 -0.4606  0.2929
42821SOL    HW135321   7.367   9.423   3.587  0.1968 -1.4921  1.1111
42821SOL    HW235322   7.471   9.449   3.693  1.1681  0.9205 -0.3525
42822SOL     OW35323  12.178   9.501  11.925  0.1129  0.6823  0.1825
42822SOL    HW135324  12.125   9.422  11.915  0.8170  0.1027  0.8558
42822SOL    HW235325  12.122   9.572  11.895 -0.4137 -0.1124 -0.7686
42823SOL     OW35326  11.623   3.455   9.891  0.1216  0.2520 -0.7246
42823SOL    HW135327  11.646   3.434   9.800  1.5243 -0.0947 -0.3049
42823SOL    HW235328  11.676   3.532   9.913 -0.8471  0.8644 -0.4529
42824SOL     OW35329   2.988   6.603   9.526  0.8247 -0.5929 -0.3440
42824SOL    HW135330   3.062   6.543   9.519 -0.1054 -1.9042  0.5907
42824SOL    HW235331   2.971   6.610   9.620 -1.4503 -1.9207 -0.5822
42825SOL     OW35332  10.310  10.145   6.414 -0.3662  0.0188  0.0337
42825SOL    HW135333  10.396  10.124   6.379 -0.2289  0.5379  0.0385
42825SOL    HW235334  10.255  10.158   6.337 -0.4184 -0.2240  0.0294
42826SOL     OW35335   3.475   0.764   2.878 -0.2067 -0.1349  0.3753
42826SOL    HW135336   3.541   0.790   2.943 -1.1613  0.5530  1.1070
42826SOL    HW235337   3.393   0.766   2.927 -0.7396 -1.2454 -0.4534
42827SOL     OW35338   7.230  11.712   6.534  0.0125  0.2087 -0.2320
42827SOL    HW135339   7.207  11.717   6.627 -1.1988 -0.1557 -0.4933
42827SOL    HW235340   7.157  11.666   6.494 -0.0913  1.4708 -1.5685
42828SOL     OW35341   9.208   6.968   5.837 -0.2041 -0.3657  0.2796
42828SOL    HW135342   9.136   6.986   5.898 -0.7489  0.2592 -0.5171
42828SOL    HW235343   9.275   7.031   5.859 -0.6058  0.1986 -0.0795
42829SOL     OW35344   6.740  11.129   3.956  0.0433  0.2586 -0.6637
42829SOL    HW135345   6.751  11.040   3.990 -2.2140  0.9431  2.3058
42829SOL    HW235346   6.825  11.170   3.969  0.0317 -0.3411  1.8875
42830SOL     OW35347  10.506   7.646  10.385  0.7766  0.4836 -0.5757
42830SOL    HW135348  10.459   7.565  10.401  1.1204  0.3499 -0.2247
42830SOL    HW235349  10.528   7.644  10.292  2.5532 -0.7875 -0.1759
42831SOL     OW35350  10.252   3.141   5.209  0.3467 -0.2340 -0.3427
42831SOL    HW135351  10.326   3.081   5.220 -0.2576 -0.8943  0.2036
42831SOL    HW235352  10.192   3.119   5.280 -1.1845 -0.9127 -1.7646
42832SOL     OW35353  11.648   5.796   2.932 -0.0885 -0.4001 -0.4795
42832SOL    HW135354  11.718   5.733   2.916  0.1304 -0.1762 -0.4084
42832SOL    HW235355  11.567   5.747   2.918  0.0750 -0.8097 -0.0063
42833SOL     OW35356   6.689   1.302   1.157  0.0357  0.4896  0.2270
42833SOL    HW135357   6.696   1.210   1.183  0.2479  0.4181 -0.0775
42833SOL    HW235358   6.652   1.299   1.069 -0.5837  0.7258  0.4801
42834SOL     OW35359   0.891   7.461   2.372  0.1716  0.1905  0.5258
42834SOL    HW135360   0.827   7.531   2.384 -1.8786 -1.6168  0.6263
42834SOL    HW235361   0.890   7.413   2.455  0.0086 -1.1755 -0.2458
42835SOL     OW35362   9.269   9.377   4.093 -0.3332 -0.4701  0.7935
42835SOL    HW135363   9.183   9.358   4.056 -0.6884  0.8524  0.9091
42835SOL    HW235364   9.303   9.449   4.039  0.6348 -0.8582  0.8561
42836SOL     OW35365   1.801   1.901   6.165 -0.9863  0.0082  0.1781
42836SOL    HW135366   1.849   1.901   6.248  1.2576  0.6655 -1.0203
42836SOL    HW235367   1.722   1.952   6.182 -0.5400  0.1755  1.8877
42837SOL     OW35368  12.219  11.090   4.358  0.3218  0.2359  0.4712
42837SOL    HW135369  12.213  11.154   4.287 -1.3963  1.7301  1.8643
42837SOL    HW235370  12.223  11.143   4.437 -0.2192 -1.3788  1.6280
42838SOL     OW35371  10.086   1.511   4.949  0.0679  0.4078 -0.1907
42838SOL    HW135372  10.128   1.444   5.002  0.5414  1.1565  0.4048
42838SOL    HW235373   9.992   1.499   4.963  0.1626  0.0572  0.1308
42839SOL     OW35374   3.994   7.562   8.211 -0.0184 -0.2004 -0.0065
42839SOL    HW135375   3.905   7.598   8.208  0.0372  0.4759  2.8980
42839SOL    HW235376   4.051   7.639   8.215  0.3987 -0.5542  1.9227
42840SOL     OW35377   9.225   3.452   2.402  0.1868 -0.2787 -0.0136
42840SOL    HW135378   9.171   3.441   2.480 -1.3030  1.1650 -0.7777
42840SOL    HW235379   9.245   3.546   2.400  0.6782 -0.3906 -1.0593
42841SOL     OW35380   0.571   9.778   6.933  0.1836  0.9227 -0.7971
42841SOL    HW135381   0.573   9.840   6.860 -1.1998  1.3925 -0.4595
42841SOL    HW235382   0.579   9.833   7.011  0.8476  0.4941 -0.5531
42842SOL     OW35383   9.800   3.129   6.387  0.1324 -0.4623  0.5077
42842SOL    HW135384   9.780   3.186   6.313 -0.5914  0.1703  1.1662
42842SOL    HW235385   9.717   3.122   6.434  0.1685 -2.1959  0.3637
42843SOL     OW35386  10.543  12.175   3.067 -0.1746 -0.0685 -1.0826
42843SOL    HW135387  10.496  12.176   3.150  0.4394 -1.4283 -0.6764
42843SOL    HW235388  10.541  12.265   3.036 -2.9254 -0.0524 -1.0563
42844SOL     OW35389   4.168   2.720   4.717  0.0376 -1.0015  0.0067
42844SOL    HW135390   4.109   2.776   4.667 -1.4836 -1.5753  1.0772
42844SOL    HW235391   4.199   2.777   4.788  0.2850 -0.8827 -0.1937
42845SOL     OW35392   8.499  12.398   8.664  0.3206 -0.5986  0.0315
42845SOL    HW135393   8.442  12.474   8.660  0.2075 -0.6541  0.5357
42845SOL    HW235394   8.489  12.356   8.579 -1.0813 -1.1023  0.4214
42846SOL     OW35395   7.378   3.054   6.511  0.2952 -0.0428  0.0944
42846SOL    HW135396   7.324   3.132   6.498  0.3870 -0.2262 -1.5790
42846SOL    HW235397   7.396   3.022   6.423  0.7649 -1.6189  0.7226
42847SOL     OW35398   9.483  11.071   5.122  0.3766  0.3093  0.1323
42847SOL    HW135399   9.459  11.020   5.044 -0.3120 -1.4403  1.4316
42847SOL    HW235400   9.489  11.161   5.090 -0.2190 -0.2978 -1.8704
42848SOL     OW35401   2.866   0.562   3.466  0.4909 -0.5234 -0.0253
42848SOL    HW135402   2.814   0.518   3.533  1.1914 -1.9797 -0.3955
42848SOL    HW235403   2.955   0.563   3.502  0.4703  0.7396  0.0316
42849SOL     OW35404   0.531   4.393   2.154 -0.1697  0.2837  0.1110
42849SOL    HW135405   0.534   4.486   2.178 -1.3162  0.3049  0.2278
42849SOL    HW235406   0.594   4.351   2.212 -0.2190  0.8789  0.6062
42850SOL     OW35407   1.612   5.329  10.631  0.1694  0.1905  0.4874
42850SOL    HW135408   1.678   5.329  10.563 -1.1018 -0.3042 -0.7966
42850SOL    HW235409   1.599   5.421  10.653  1.1484  0.2949  0.6412
42851SOL     OW35410  10.860   6.796  11.851  0.4224  0.3054 -0.0320
42851SOL    HW135411  10.927   6.728  11.858 -0.6050 -0.8177 -0.7875
42851SOL    HW235412  10.881   6.842  11.770  0.8180  0.5581  0.2116
42852SOL     OW35413   2.717   0.530   9.747  0.1003 -0.4565 -0.1817
42852SOL    HW135414   2.630   0.568   9.755 -0.0296 -0.7887  0.0360
42852SOL    HW235415   2.712   0.474   9.670  0.6131  0.7947 -1.1588
42853SOL     OW35416  10.382   4.241   8.367  0.5249 -0.5558 -0.3660
42853SOL    HW135417  10.400   4.169   8.428 -0.0305 -0.3878  0.0052
42853SOL    HW235418  10.319   4.297   8.413  2.1383  1.0381 -0.0008
42854SOL     OW35419   3.711  11.607   2.595 -0.3751 -0.7675 -0.2695
42854SOL    HW135420   3.627  11.584   2.634 -0.1957 -0.5013  0.2695
42854SOL    HW235421   3.734  11.691   2.635 -0.0535 -0.6317 -0.7324
42855SOL     OW35422   8.344   7.408   2.418  0.3908 -0.0562 -0.0196
42855SOL    HW135423   8.387   7.338   2.467  0.4704  0.1091  0.1488
42855SOL    HW235424   8.262   7.423   2.463 -0.2896 -1.0266 -0.9022
42856SOL     OW35425   0.939   5.333  10.969  0.4563  0.4645  0.6244
42856SOL    HW135426   0.864   5.317  10.912 -0.3329 -0.6228  1.8911
42856SOL    HW235427   0.964   5.424  10.951  1.8010 -0.4511 -3.1586
42857SOL     OW35428   5.418   5.346   6.225 -0.0376 -0.5607  0.1232
42857SOL    HW135429   5.484   5.289   6.265  0.3365  1.3449  2.4034
42857SOL    HW235430   5.459   5.432   6.223 -1.8263  0.3192 -0.1186
42858SOL     OW35431  10.591   4.259   0.079  0.1172 -0.1440 -0.1983
42858SOL    HW135432  10.519   4.282   0.137 -0.7145 -0.0484 -1.2359
42858SOL    HW235433  10.568   4.299  -0.005  2.2683  1.4470 -0.1130
42859SOL     OW35434   3.326   4.521   2.802  0.3628  0.1918  0.2733
42859SOL    HW135435   3.371   4.464   2.864  0.7642  0.8028  0.5518
42859SOL    HW235436   3.388   4.591   2.784 -0.1195  0.5415 -0.0682
42860SOL     OW35437   4.284   4.766   6.616  0.5450  0.6357  0.0976
42860SOL    HW135438   4.342   4.722   6.678  0.5053  0.0747 -0.2523
42860SOL    HW235439   4.252   4.695   6.560 -1.2894  0.7776  0.9135
42861SOL     OW35440   5.133  11.473   6.739 -0.0327 -0.1635  0.2245
42861SOL    HW135441   5.159  11.406   6.802 -0.1118 -0.8367 -0.4436
42861SOL    HW235442   5.107  11.424   6.661  1.5823  0.6831 -0.9055
42862SOL     OW35443   4.044   5.356   3.784  0.4610  0.0983 -0.1189
42862SOL    HW135444   4.097   5.418   3.734  2.4721 -0.8301  0.7289
42862SOL    HW235445   4.001   5.302   3.717  0.1737  1.1833 -0.8397
42863SOL     OW35446  11.279   7.796   0.345 -0.0384 -0.0790 -0.3711
42863SOL    HW135447  11.190   7.762   0.346  0.4184 -1.3349 -0.9335
42863SOL    HW235448  11.284   7.850   0.266 -0.2732 -0.0734 -0.3810
42864SOL     OW35449   5.632   2.582   6.244  0.1749 -0.3105 -0.3586
42864SOL    HW135450   5.579   2.641   6.190 -0.1843  0.2945  0.6407
42864SOL    HW235451   5.577   2.505   6.257 -0.7313  0.5666  1.1816
42865SOL     OW35452   8.915   2.302   9.469 -0.1779 -0.5211 -0.1645
42865SOL    HW135453   8.908   2.262   9.383 -0.2503 -1.6283  0.3343
42865SOL    HW235454   8.830   2.344   9.482  0.1326  0.3860 -0.9678
42866SOL     OW35455   7.320   3.401  10.834  0.9293 -0.4881 -0.0116
42866SOL    HW135456   7.396   3.393  10.777  1.0938 -0.5939  0.2208
42866SOL    HW235457   7.305   3.313  10.867  0.7312 -0.4592 -0.0242
42867SOL     OW35458   2.345   0.927  12.226  0.1597  0.6265 -0.2252
42867SOL    HW135459   2.309   0.971  12.303  0.5844 -0.9541  0.9276
42867SOL    HW235460   2.402   0.992  12.185  0.1662  1.3978  0.9730
42868SOL     OW35461   9.266   7.405   6.518  0.2114  0.0851  0.0590
42868SOL    HW135462   9.300   7.316   6.529  1.2326  0.6761  2.4760
42868SOL    HW235463   9.320   7.458   6.577 -1.1629  2.1049 -0.4102
42869SOL     OW35464   7.397  10.288   1.688  0.3507  0.5037 -0.4734
42869SOL    HW135465   7.467  10.246   1.638  0.7576  0.8272 -0.1876
42869SOL    HW235466   7.318  10.276   1.635  1.0793  2.4310 -2.1053
42870SOL     OW35467   2.397   5.438   4.240  0.1146  0.1590  0.3949
42870SOL    HW135468   2.360   5.356   4.274 -0.1121  0.1960  0.2346
42870SOL    HW235469   2.322   5.486   4.204  0.1167  0.7701  1.1624
42871SOL     OW35470   4.532  11.916   5.713 -0.1505  0.3642  0.1477
42871SOL    HW135471   4.442  11.940   5.695 -0.1010  0.1920 -0.3551
42871SOL    HW235472   4.547  11.838   5.660 -0.2932 -0.7656  1.6866
42872SOL     OW35473   3.905   6.734  12.104 -0.3187 -0.2637  0.1491
42872SOL    HW135474   3.891   6.740  12.199 -0.3206 -0.6723  0.1762
42872SOL    HW235475   3.831   6.682  12.072  0.4272 -1.3147  0.1120
42873SOL     OW35476   2.636   1.298   6.085 -0.0964  0.1848  0.2498
42873SOL    HW135477   2.626   1.213   6.128 -1.4762 -0.7634 -1.7466
42873SOL    HW235478   2.695   1.348   6.142 -0.7161 -1.4332  2.4276
42874SOL     OW35479   0.871  12.286   0.671  0.1074 -0.1153 -0.2746
42874SOL    HW135480   0.842  12.197   0.652  1.4234 -0.8985  1.1074
42874SOL    HW235481   0.948  12.299   0.615  0.6318 -0.3212  0.3827
42875SOL     OW35482   5.274   9.465   1.621 -0.4734 -0.0881 -0.0884
42875SOL    HW135483   5.295   9.388   1.673  0.3632  0.7122  0.8226
42875SOL    HW235484   5.183   9.485   1.642 -0.6452 -0.7410 -0.2156
42876SOL     OW35485   4.687   7.537   6.995  0.2706  0.0043  0.2033
42876SOL    HW135486   4.758   7.515   7.055 -1.0456  0.3261  1.9413
42876SOL    HW235487   4.661   7.626   7.020 -0.5521  0.0059 -0.6116
42877SOL     OW35488  12.081   7.674  12.101  0.3289 -0.1969 -0.4017
42877SOL    HW135489  12.104   7.705  12.014 -2.1385  1.0862 -0.6688
42877SOL    HW235490  12.007   7.615  12.088 -0.2173  0.1782  0.8437
42878SOL     OW35491   5.146  11.806   8.010  0.1693 -0.0726  0.4332
42878SOL    HW135492   5.233  11.806   8.050 -0.4607  0.5508  1.8995
42878SOL    HW235493   5.162  11.821   7.917  1.6322 -0.2121  0.6370
42879SOL     OW35494  10.932   4.844   9.381  0.3088  0.3472 -0.1129
42879SOL    HW135495  10.844   4.859   9.346  0.1708 -0.9426 -0.3647
42879SOL    HW235496  10.925   4.865   9.474 -0.1231  0.7759 -0.2411
42880SOL     OW35497   0.796   7.183   8.749  0.3740 -0.1262 -0.0028
42880SOL    HW135498   0.835   7.106   8.709  1.6201  0.1787  0.5771
42880SOL    HW235499   0.814   7.174   8.842 -1.3670 -0.1904  0.3609
42881SOL     OW35500  11.780   2.730   1.037  0.0142 -0.0807  0.4301
42881SOL    HW135501  11.814   2.653   0.991  1.8641 -0.6462  2.6211
42881SOL    HW235502  11.824   2.804   0.995  2.9862 -0.6963  2.1762
42882SOL     OW35503   7.667   8.951   6.521 -0.4500  0.2454  0.0785
42882SOL    HW135504   7.726   8.983   6.589 -1.6911  2.2274  0.3098
42882SOL    HW235505   7.649   8.860   6.545  1.2100  0.1068  0.8900
42883SOL     OW35506  12.454  12.385   3.459 -0.0922  0.1112 -0.1158
42883SOL    HW135507  12.446  12.306   3.514  1.3687  2.2734  3.5941
42883SOL    HW235508  12.370  12.429   3.469 -0.4703 -0.3583 -1.1701
42884SOL     OW35509  11.100  10.441   0.592 -0.4828 -0.0568 -0.0744
42884SOL    HW135510  11.113  10.417   0.500  2.6730 -2.4625  0.8174
42884SOL    HW235511  11.011  10.411   0.612  0.1225 -3.2194 -1.4375
42885SOL     OW35512   5.336   8.637   5.139  0.3001  0.5513 -0.0987
42885SOL    HW135513   5.322   8.545   5.159  0.6384  0.1992 -1.4281
42885SOL    HW235514   5.273   8.683   5.195  0.1281 -0.4767  0.5759
42886SOL     OW35515  11.027   5.278   5.177 -0.3104 -0.2488 -0.0941
42886SOL    HW135516  11.001   5.275   5.085 -0.4083  1.8620 -0.1811
42886SOL    HW235517  10.960   5.228   5.223  0.6432 -2.7979 -1.2950
42887SOL     OW35518   6.047   5.675  12.122 -0.7639 -0.0197  0.0918
42887SOL    HW135519   5.983   5.632  12.066 -1.8392 -0.3344  1.4908
42887SOL    HW235520   6.024   5.647  12.211 -1.0347  2.7799  1.0145
42888SOL     OW35521   6.247   3.260   0.186 -0.2490  0.1024  0.8503
42888SOL    HW135522   6.240   3.168   0.209  0.6612 -0.0484  0.5821
42888SOL    HW235523   6.306   3.297   0.252 -0.4656  0.4550  0.8513
42889SOL     OW35524   7.398  12.471   7.009  0.2868  0.1764  0.3074
42889SOL    HW135525   7.353  12.393   7.041  0.0065 -0.1211 -0.7662
42889SOL    HW235526   7.373  12.477   6.917  0.6533  1.2932  0.2685
42890SOL     OW35527  10.523   4.447   8.239 -0.1884 -0.0306  0.6722
42890SOL    HW135528  10.617   4.436   8.247 -0.0354  0.4345 -0.3899
42890SOL    HW235529  10.486   4.380   8.297  0.7732 -0.9447  0.2613
42891SOL     OW35530   6.263   4.521   9.520 -0.4865 -0.1356  0.2287
42891SOL    HW135531   6.200   4.580   9.560 -0.4961 -0.7271  1.0937
42891SOL    HW235532   6.312   4.484   9.593  1.1079  0.5597 -0.4234
42892SOL     OW35533   7.085   5.851   1.372 -0.3983 -0.4571  0.1404
42892SOL    HW135534   7.099   5.938   1.409  2.8317 -0.5862 -0.4765
42892SOL    HW235535   7.066   5.867   1.280 -1.0415 -0.3614  0.2905
42893SOL     OW35536   6.000   3.749   8.739  0.2284 -0.4948  0.2607
42893SOL    HW135537   6.012   3.819   8.674 -0.3938 -0.5931  0.0375
42893SOL    HW235538   5.973   3.673   8.688 -0.2935 -0.5653  0.6351
42894SOL     OW35539   1.029   7.924   6.494 -0.0071 -0.4947 -0.7781
42894SOL    HW135540   1.010   7.863   6.423  0.4081  0.2333 -1.5350
42894SOL    HW235541   0.995   8.008   6.463  1.6980  0.1985 -0.8820
42895SOL     OW35542   5.263   9.627   6.729  0.2321  0.2040  0.6151
42895SOL    HW135543   5.235   9.610   6.819 -0.1612  0.7006  0.5882
42895SOL    HW235544   5.256   9.542   6.685  2.1412 -0.4627  1.4918
42896SOL     OW35545   6.433  10.637   0.900  0.2512  0.2830  0.3304
42896SOL    HW135546   6.521  10.642   0.939  0.1405  0.4140  0.5671
42896SOL    HW235547   6.444  10.581   0.823  0.4056 -0.2597  0.7422
42897SOL     OW35548   1.699   4.439   1.990  0.0186 -0.1194 -0.0717
42897SOL    HW135549   1.616   4.445   2.038 -0.9427 -3.1292 -1.1258
42897SOL    HW235550   1.724   4.347   1.997  3.7984  0.8025  0.9077
42898SOL     OW35551  11.282   0.389   3.257  0.1191  0.0267 -0.3691
42898SOL    HW135552  11.285   0.476   3.297  1.4930  0.4435 -1.3172
42898SOL    HW235553  11.221   0.399   3.184 -1.1313 -0.3108  0.5948
42899SOL     OW35554   0.538  10.970   3.005  0.2553  0.0578 -0.5391
42899SOL    HW135555   0.584  10.892   2.974  1.0923 -0.1667  1.1509
42899SOL    HW235556   0.453  10.967   2.962  1.2665 -0.3189 -2.5872
42900SOL     OW35557   0.279  10.745  10.575  0.4300  0.1767 -0.0472
42900SOL    HW135558   0.281  10.721  10.668  3.6626 -0.8822 -0.2418
42900SOL    HW235559   0.259  10.663  10.529  1.7711 -0.0179 -0.3382
42901SOL     OW35560   6.989  10.364   1.731 -0.0405 -0.2142 -0.3518
42901SOL    HW135561   7.061  10.345   1.672  0.5264 -0.0524  0.2796
42901SOL    HW235562   6.910  10.357   1.677  0.5989  2.6466 -1.8314
42902SOL     OW35563   1.884   4.347   2.265  0.2950 -0.3877  0.0953
42902SOL    HW135564   1.877   4.257   2.233 -0.1953 -0.3598  0.1136
42902SOL    HW235565   1.793   4.374   2.280  0.4559  0.0154  0.3524
42903SOL     OW35566  10.880   8.804   3.484  0.4705  0.1569  0.0621
42903SOL    HW135567  10.844   8.716   3.494  2.1387 -0.3695  2.0058
42903SOL    HW235568  10.971   8.791   3.457  0.5686  1.3049 -0.2204
42904SOL     OW35569  11.320   8.382   1.382 -0.2748 -0.8269 -0.1272
42904SOL    HW135570  11.305   8.477   1.382 -0.9631 -0.8941 -1.8918
42904SOL    HW235571  11.414   8.373   1.369 -0.4777 -0.3228 -2.4602
42905SOL     OW35572   6.383   0.849   1.529 -0.2549  0.2062 -0.5483
42905SOL    HW135573   6.323   0.860   1.455  0.4871  0.2487 -1.1529
42905SOL    HW235574   6.347   0.774   1.578  1.0733 -2.0727 -2.8240
42906SOL     OW35575   8.302  11.631   0.371  0.1134 -0.2873  0.2601
42906SOL    HW135576   8.382  11.580   0.358  0.7487  0.6590  0.3503
42906SOL    HW235577   8.315  11.677   0.453 -0.3571  0.1816  0.0827
42907SOL     OW35578  10.503   4.822   2.709  0.1702 -0.3825 -0.3632
42907SOL    HW135579  10.510   4.913   2.681  0.4625 -0.0037  0.8650
42907SOL    HW235580  10.496   4.827   2.804 -0.7426 -1.5969 -0.3348
42908SOL     OW35581   9.958   1.846   1.013  0.1723  0.1883 -0.0241
42908SOL    HW135582   9.964   1.769   1.070  0.8267  1.1666  1.2815
42908SOL    HW235583  10.030   1.835   0.951 -0.7423 -1.0517 -0.9193
42909SOL     OW35584   5.965   9.040  12.119 -0.3427 -0.6098  0.1269
42909SOL    HW135585   5.919   8.957  12.122  0.0284 -0.8178  0.0480
42909SOL    HW235586   6.055   9.020  12.147 -0.6701  0.0518  1.7592
42910SOL     OW35587   9.458   8.600   6.962 -0.3471 -0.0469  0.1807
42910SOL    HW135588   9.494   8.619   7.049  0.0515  1.4666 -0.2830
42910SOL    HW235589   9.527   8.549   6.919 -0.3545 -0.4089  0.5910
42911SOL     OW35590   7.663  10.065   0.955  0.3257  0.1917 -0.3552
42911SOL    HW135591   7.603   9.999   0.990  0.9063  0.2333  0.7738
42911SOL    HW235592   7.615  10.147   0.962  0.1882  0.1039 -0.2675
42912SOL     OW35593   3.845   5.184  12.420  0.0986  0.1978  0.2547
42912SOL    HW135594   3.821   5.127  12.494 -0.3508  0.2015  0.1142
42912SOL    HW235595   3.763   5.225  12.394 -0.1280 -1.2494 -1.4697
42913SOL     OW35596   7.036   4.885  11.611  0.2438 -0.3288 -0.0379
42913SOL    HW135597   7.077   4.971  11.609  0.4684 -0.3993  0.8730
42913SOL    HW235598   7.076   4.842  11.687  0.2878 -1.3136 -0.6001
42914SOL     OW35599   6.376   9.060   7.349 -0.2441  0.0594  0.4173
42914SOL    HW135600   6.382   9.001   7.425  0.2678 -2.0195 -1.1294
42914SOL    HW235601   6.378   9.001   7.274  2.9097  2.1749 -1.3628
42915SOL     OW35602   8.895   5.552   1.917 -0.7777  0.4663 -0.6851
42915SOL    HW135603   8.924   5.642   1.909  0.0591  0.3124  0.4799
42915SOL    HW235604   8.878   5.539   2.010 -0.0092 -0.8354 -0.6970
42916SOL     OW35605   7.235   7.106   5.738 -0.1002 -0.3497 -0.1617
42916SOL    HW135606   7.192   7.161   5.803 -0.3315 -3.1703  2.2762
42916SOL    HW235607   7.321   7.087   5.775 -0.0386 -1.5970 -0.8870
42917SOL     OW35608   3.390   1.119   1.523  0.3600  0.1424  0.7430
42917SOL    HW135609   3.420   1.121   1.432 -2.3385 -0.3321 -0.2430
42917SOL    HW235610   3.452   1.061   1.567  0.2325 -1.8109 -1.4496
42918SOL     OW35611  12.358  11.833   2.452 -0.4817  0.5056  0.4709
42918SOL    HW135612  12.364  11.928   2.466  1.1295  0.3020  1.3831
42918SOL    HW235613  12.435  11.812   2.400 -1.9348 -0.0401 -1.5868
42919SOL     OW35614   8.965  11.823   7.953 -0.1234 -0.3748  0.0685
42919SOL    HW135615   9.006  11.763   8.016  1.2120  0.1463 -0.2594
42919SOL    HW235616   8.971  11.909   7.995 -0.0100 -0.1503 -0.3974
42920SOL     OW35617   6.725   0.045   9.260 -0.2971  0.1159  0.4422
42920SOL    HW135618   6.638   0.075   9.287 -0.4564  1.5103 -1.4043
42920SOL    HW235619   6.760   0.117   9.208  1.9078 -0.5127  0.9604
42921SOL     OW35620   8.298   0.335   6.316  0.7657  0.1488 -0.4340
42921SOL    HW135621   8.326   0.301   6.231  0.3932  0.0067 -0.5000
42921SOL    HW235622   8.249   0.414   6.296 -0.4338 -0.5765 -0.4481
42922SOL     OW35623   5.374   0.742   3.643  0.4332  0.0577 -0.3892
42922SOL    HW135624   5.365   0.657   3.600 -1.3482 -1.5255  2.7644
42922SOL    HW235625   5.317   0.801   3.594 -0.5323 -1.3092 -0.9360
42923SOL     OW35626   8.622   3.822   4.254  0.9715  0.6778  0.4262
42923SOL    HW135627   8.696   3.761   4.254  1.8311  1.6976  0.6093
42923SOL    HW235628   8.622   3.860   4.342  0.2759  0.7509  0.4002
42924SOL     OW35629  12.174   4.677  11.179  0.2956  0.9065 -0.1486
42924SOL    HW135630  12.125   4.714  11.253  0.4423  2.3518 -0.7484
42924SOL    HW235631  12.253   4.730  11.174  1.0834 -0.2487 -0.3272
42925SOL     OW35632   6.131   8.002  11.060  0.1437 -0.2192 -0.3170
42925SOL    HW135633   6.223   8.018  11.077  0.0264  0.3952 -0.2501
42925SOL    HW235634   6.091   7.997  11.147 -0.1796  1.3009 -0.3560
42926SOL     OW35635   6.570  12.127   0.402 -0.3463 -0.2689  0.0781
42926SOL    HW135636   6.560  12.032   0.414 -2.5444  0.0207  1.1296
42926SOL    HW235637   6.657  12.146   0.435  0.5866 -2.0423 -1.1512
42927SOL     OW35638   4.633   9.705   5.321 -0.4763 -0.5926  0.3443
42927SOL    HW135639   4.614   9.634   5.382  0.8673 -1.2586  0.0245
42927SOL    HW235640   4.728   9.712   5.321 -0.4129 -0.7967 -1.8657
42928SOL     OW35641   1.933   2.646   4.044 -0.0547  0.0690  0.2280
42928SOL    HW135642   1.872   2.588   3.999  0.4075 -0.5784  0.4205
42928SOL    HW235643   1.900   2.734   4.027 -1.9778 -0.3008  1.6340
42929SOL     OW35644   4.390  11.603   5.682 -0.1316 -0.2021 -0.6435
42929SOL    HW135645   4.384  11.645   5.768  0.2307  1.5622 -1.4475
42929SOL    HW235646   4.316  11.638   5.633  1.1603  0.9059 -1.8903
42930SOL     OW35647  10.426  11.877   1.003 -0.1208 -0.1625 -0.1407
42930SOL    HW135648  10.482  11.801   0.985  3.5650  2.1385  0.4527
42930SOL    HW235649  10.346  11.840   1.040  1.8380 -3.7373  1.0282
42931SOL     OW35650  10.261   1.247   0.707 -0.6508  0.3985 -0.1501
42931SOL    HW135651  10.170   1.275   0.696 -0.1727  2.3591  0.4329
42931SOL    HW235652  10.308   1.286   0.634 -0.2333 -0.3871 -0.3070
42932SOL     OW35653   5.676   6.869   3.386  0.1885 -0.2616 -0.0377
42932SOL    HW135654   5.741   6.824   3.439 -0.4993 -0.7155  0.4470
42932SOL    HW235655   5.700   6.850   3.296  1.2328  0.3141  0.1062
42933SOL     OW35656   6.551  11.961  11.508  0.1881 -0.0130 -0.3233
42933SOL    HW135657   6.510  12.038  11.546 -1.0128 -0.6981 -0.1720
42933SOL    HW235658   6.580  11.988  11.422  1.1402  1.0116  0.2938
42934SOL     OW35659   8.797   1.423   5.340  0.2616 -0.0068  0.4513
42934SOL    HW135660   8.750   1.506   5.355  1.6784  0.6977  1.2167
42934SOL    HW235661   8.756   1.386   5.263 -3.3864 -0.7797  2.5388
42935SOL     OW35662  10.817   5.123   5.295 -0.2010  0.3860  0.6531
42935SOL    HW135663  10.741   5.179   5.279 -0.3994  0.0292  0.3548
42935SOL    HW235664  10.801   5.085   5.382  0.1999  1.2130  1.1094
42936SOL     OW35665   5.786   3.710   8.484  0.0743 -0.1730  0.0319
42936SOL    HW135666   5.765   3.803   8.471 -0.0136 -0.2600 -0.4641
42936SOL    HW235667   5.799   3.676   8.396 -0.2977 -0.7268  0.1842
42937SOL     OW35668   8.920   0.642  11.177 -0.3206 -0.0513  0.2041
42937SOL    HW135669   8.917   0.638  11.272 -0.4731  2.4960  0.3526
42937SOL    HW235670   8.862   0.714  11.153 -1.8853 -1.8886 -1.9919
42938SOL     OW35671   5.438   5.504  10.501  0.1343  0.6632  0.4207
42938SOL    HW135672   5.450   5.421  10.456 -1.8301  0.5066  0.1084
42938SOL    HW235673   5.460   5.485  10.593  2.4873  0.5710 -0.0911
42939SOL     OW35674   4.539   3.184   4.441 -0.1355 -0.4478  0.0564
42939SOL    HW135675   4.470   3.225   4.493 -0.1409  0.1657 -0.4186
42939SOL    HW235676   4.499   3.103   4.409 -0.0764 -0.9133  1.1189
42940SOL     OW35677   4.775   1.205  11.346 -0.8230 -0.3072 -0.3289
42940SOL    HW135678   4.727   1.138  11.395 -1.0134 -0.3649 -0.5943
42940SOL    HW235679   4.795   1.164  11.262  0.6782 -0.6924  0.1735
42941SOL     OW35680   5.078   7.018   9.338 -0.2638 -0.0510  0.0850
42941SOL    HW135681   5.162   7.010   9.384 -0.3376 -1.1841  0.0614
42941SOL    HW235682   5.023   7.070   9.396 -0.0363 -0.6192  0.8339
42942SOL     OW35683   8.726   8.829   6.165 -0.1954 -0.2121  0.1264
42942SOL    HW135684   8.661   8.764   6.140  1.5207 -1.8047 -0.4138
42942SOL    HW235685   8.764   8.859   6.082 -1.1956  1.8270  0.3280
42943SOL     OW35686   7.127  11.707   9.334 -0.1839 -0.1949 -0.0128
42943SOL    HW135687   7.179  11.748   9.403 -0.7221  1.0434 -0.3171
42943SOL    HW235688   7.185  11.640   9.297  0.9703  0.7178  0.0824
42944SOL     OW35689   1.674   9.082  11.097  0.0161  0.0530 -0.3083
42944SOL    HW135690   1.624   9.162  11.087  0.1279  0.1498 -0.1027
42944SOL    HW235691   1.720   9.093  11.181 -0.0744 -0.2799 -0.2134
42945SOL     OW35692   6.189   5.160   6.316  0.5278 -0.4840  0.6722
42945SOL    HW135693   6.198   5.151   6.221 -0.1018  0.5986  0.4936
42945SOL    HW235694   6.231   5.082   6.351  0.6277 -0.9872 -0.5026
42946SOL     OW35695   2.000   3.986   6.340 -0.0493 -0.4349 -0.0200
42946SOL    HW135696   2.071   4.021   6.393 -1.3806 -0.0827  1.5873
42946SOL    HW235697   2.036   3.905   6.302  1.8770  0.7833 -0.9484
42947SOL     OW35698   9.817   8.522   3.020 -0.1607  0.0494 -0.3319
42947SOL    HW135699   9.836   8.469   2.943 -0.6614  0.5105 -0.7780
42947SOL    HW235700   9.815   8.612   2.988 -1.7655  0.1339 -0.0674
42948SOL     OW35701   1.970   6.379   5.102 -0.2133  0.0306  0.2267
42948SOL    HW135702   1.984   6.401   5.010  1.3216 -2.9966 -0.3894
42948SOL    HW235703   1.927   6.294   5.100 -1.0383  0.3397  2.3532
42949SOL     OW35704  12.577   0.898   3.113  0.0733  0.0211 -0.6608
42949SOL    HW135705  12.540   0.823   3.066 -0.7545 -0.9887  1.4336
42949SOL    HW235706  12.500   0.945   3.147  0.6250  0.4271  0.0544
42950SOL     OW35707   4.208   7.719  12.495  0.1932 -0.0630  0.4608
42950SOL    HW135708   4.195   7.786  12.428 -0.5899 -0.3304  0.3271
42950SOL    HW235709   4.288   7.744  12.540 -0.2342  1.1157  0.5881
42951SOL     OW35710  11.539   5.504   3.501 -0.5626  0.2708  0.4261
42951SOL    HW135711  11.580   5.513   3.587 -0.4362  1.5640  0.2496
42951SOL    HW235712  11.522   5.410   3.492  1.3921 -0.1754  0.9433
42952SOL     OW35713   5.992   4.530   0.287 -0.3145  0.4237 -0.1279
42952SOL    HW135714   6.050   4.586   0.236  1.0508 -0.2640  0.5813
42952SOL    HW235715   6.036   4.522   0.372 -1.1158 -0.6742  0.2050
42953SOL     OW35716   2.995  11.039  11.747  0.0347  0.0744 -0.4387
42953SOL    HW135717   3.004  10.971  11.681  0.7204 -0.1029 -0.1750
42953SOL    HW235718   3.047  11.112  11.714  1.7317 -0.5847  0.6220
42954SOL     OW35719   6.496   1.594  11.660  0.2448  0.5669 -0.2751
42954SOL    HW135720   6.523   1.684  11.643  0.1677  1.2751  2.9145
42954SOL    HW235721   6.545   1.568  11.738  0.8561 -2.4917 -1.5045
42955SOL     OW35722  12.008   4.956   1.586  0.1220  0.1590  0.4311
42955SOL    HW135723  12.001   4.922   1.675 -0.5044 -3.8651 -0.9364
42955SOL    HW235724  11.918   4.974   1.561  0.0459 -0.7342  0.0034
42956SOL     OW35725   4.974  10.649   8.500  0.2710 -0.3526  0.1796
42956SOL    HW135726   4.908  10.634   8.432  0.1106 -0.1978  0.3012
42956SOL    HW235727   5.018  10.564   8.510 -0.0888 -0.5285  0.2884
42957SOL     OW35728  12.329   3.612   6.268 -0.4171  0.0606 -0.7437
42957SOL    HW135729  12.252   3.621   6.324 -0.7104 -2.0115 -0.7316
42957SOL    HW235730  12.397   3.661   6.313 -0.9909 -0.4536  0.7519
42958SOL     OW35731   9.274  10.906   4.429  0.6487 -0.5183 -0.3448
42958SOL    HW135732   9.204  10.943   4.375  0.7291 -1.1210 -0.8697
42958SOL    HW235733   9.262  10.811   4.421  1.8670 -0.6371 -0.8946
42959SOL     OW35734   6.923   4.875   2.407  0.0896 -0.1642 -0.1622
42959SOL    HW135735   6.889   4.863   2.319  0.5701 -0.7664 -0.2722
42959SOL    HW235736   6.892   4.799   2.456 -3.5899  2.0630  1.3181
42960SOL     OW35737   1.098   3.632   6.888 -0.5366 -0.5378  0.8473
42960SOL    HW135738   1.098   3.575   6.812 -1.6917 -0.1087  0.5077
42960SOL    HW235739   1.074   3.575   6.961 -3.6942 -0.1704  0.2035
42961SOL     OW35740  12.534   2.292   6.898 -0.5879 -0.3678  0.0230
42961SOL    HW135741  12.610   2.318   6.950  0.3006 -0.4193 -1.2093
42961SOL    HW235742  12.505   2.373   6.856 -0.5010 -0.5488 -0.3970
42962SOL     OW35743   3.744   4.726  10.184  0.5287 -0.0185  0.8225
42962SOL    HW135744   3.668   4.669  10.171  0.6115 -0.7901  3.1410
42962SOL    HW235745   3.707   4.815  10.187 -0.3403 -0.3932  2.0282
42963SOL     OW35746   7.675   5.039   5.717 -0.1892  0.2321 -0.5639
42963SOL    HW135747   7.659   5.051   5.811  0.9362 -1.4778 -0.0995
42963SOL    HW235748   7.660   5.125   5.679  1.4346  1.5477  1.5047
42964SOL     OW35749   6.224   6.382   1.698  0.6003 -0.4430 -0.1008
42964SOL    HW135750   6.146   6.375   1.644  0.2689 -0.4578  0.3724
42964SOL    HW235751   6.253   6.473   1.685 -0.6575  0.2059  1.2631
42965SOL     OW35752   7.016   2.945   0.246 -0.3198  0.2257  0.1904
42965SOL    HW135753   7.038   2.929   0.154  0.5749  2.6672 -0.0902
42965SOL    HW235754   6.959   2.872   0.270 -0.9479 -0.2460 -2.4155
42966SOL     OW35755  10.356   9.511   8.814 -0.5807 -0.1110 -0.5489
42966SOL    HW135756  10.400   9.577   8.868 -0.6602 -0.5385  0.0496
42966SOL    HW235757  10.412   9.434   8.819 -1.6653 -0.8645  0.7223
42967SOL     OW35758   1.435   4.225   6.603  0.2807  0.7989  0.4763
42967SOL    HW135759   1.405   4.214   6.512  1.4741 -0.2939  0.1860
42967SOL    HW235760   1.518   4.272   6.595  0.8226 -0.0748  0.9393
42968SOL     OW35761   7.229   0.019   4.500  0.1560 -0.1962  0.4935
42968SOL    HW135762   7.223   0.062   4.414  0.6213 -0.7872  0.1506
42968SOL    HW235763   7.151   0.047   4.547 -0.2773 -0.1319 -0.2501
42969SOL     OW35764   9.663  11.292   9.398 -0.0632 -0.0949  0.0806
42969SOL    HW135765   9.624  11.213   9.359  0.1622 -0.9518  1.5396
42969SOL    HW235766   9.595  11.326   9.456  0.8836 -0.9549  1.7660
42970SOL     OW35767   2.647   1.201   9.825  0.2608 -0.2895  0.1922
42970SOL    HW135768   2.647   1.208   9.730  0.2391 -0.0514  0.2111
42970SOL    HW235769   2.610   1.114   9.842  1.2954 -0.8082 -0.0568
42971SOL     OW35770   8.155   9.433   5.227  0.0301 -0.3414 -0.1106
42971SOL    HW135771   8.078   9.416   5.173 -0.4902  2.3508 -0.3720
42971SOL    HW235772   8.197   9.348   5.238 -1.0848 -1.3316 -2.8631
42972SOL     OW35773   9.309   2.648   6.320  0.1339 -0.3335  0.3349
42972SOL    HW135774   9.246   2.635   6.392  0.2411  0.4076  0.5724
42972SOL    HW235775   9.394   2.656   6.364  0.3208 -0.7616  0.0545
42973SOL     OW35776   8.189   1.545   3.848  0.1089 -0.4165 -0.3456
42973SOL    HW135777   8.176   1.556   3.942  1.8829  0.6115 -0.1825
42973SOL    HW235778   8.283   1.534   3.837  0.3771  2.5056 -2.2247
42974SOL     OW35779   2.487   0.783   1.833 -0.7546 -0.1073 -0.1637
42974SOL    HW135780   2.459   0.737   1.912 -2.9858  0.2757 -0.6382
42974SOL    HW235781   2.541   0.720   1.785 -2.0666 -1.5282  0.1552
42975SOL     OW35782   0.137   7.202   3.363 -0.2408  0.1677 -0.2254
42975SOL    HW135783   0.191   7.269   3.405  1.5504 -1.2452 -0.1317
42975SOL    HW235784   0.119   7.138   3.433  0.9552 -1.1255 -1.0523
42976SOL     OW35785  10.844  11.847   8.984  0.1872 -0.3723 -0.1289
42976SOL    HW135786  10.760  11.805   8.969  0.3598 -1.6057  1.9744
42976SOL    HW235787  10.894  11.783   9.035  2.1925  0.5561 -0.8271
42977SOL     OW35788   0.113  10.561   4.019  0.7822 -0.2114 -0.3249
42977SOL    HW135789   0.072  10.584   4.102 -1.2233 -1.6709 -0.8193
42977SOL    HW235790   0.189  10.509   4.043  1.4624  1.1592  0.6046
42978SOL     OW35791   1.098   9.196   3.173  0.0980  0.0542  0.1284
42978SOL    HW135792   1.077   9.276   3.126 -0.0723  0.1127  0.3017
42978SOL    HW235793   1.191   9.203   3.193 -0.1795  0.8239  1.2884
42979SOL     OW35794   4.933  11.081   4.319 -0.8291 -0.3599  0.2729
42979SOL    HW135795   5.005  11.095   4.381 -1.1570  1.4705  0.3005
42979SOL    HW235796   4.944  11.149   4.253 -1.7548 -0.9125 -0.4806
42980SOL     OW35797   3.909   9.678   5.086 -0.3131  0.1471  0.1170
42980SOL    HW135798   3.853   9.609   5.121  1.5610 -0.3083  2.4355
42980SOL    HW235799   3.991   9.668   5.133  0.8716  2.4021 -1.3217
42981SOL     OW35800   0.986   2.147   2.918 -0.0295  0.1743 -0.0223
42981SOL    HW135801   0.914   2.086   2.931  0.0909 -0.1336 -0.7432
42981SOL    HW235802   0.948   2.219   2.868  0.0033  0.3334  0.1827
42982SOL     OW35803   6.810   2.735   7.213  0.2674 -0.0951 -0.8367
42982SOL    HW135804   6.749   2.760   7.143 -2.2009 -1.5572  0.6520
42982SOL    HW235805   6.858   2.661   7.177 -1.0270 -0.8801 -1.0179
42983SOL     OW35806  12.233   0.315  11.099 -0.0146  0.5777 -0.5806
42983SOL    HW135807  12.164   0.380  11.108  0.0252  0.6611 -0.8723
42983SOL    HW235808  12.225   0.284  11.009  0.1897  0.4329 -0.5495
42984SOL     OW35809  11.415   5.979   3.209  0.1407 -0.3364 -0.2698
42984SOL    HW135810  11.502   5.954   3.178 -0.4512 -1.6460 -0.9809
42984SOL    HW235811  11.415   5.953   3.301  0.6111 -0.0150 -0.1747
42985SOL     OW35812   7.780   4.552  12.176  0.0589 -0.0968  0.1571
42985SOL    HW135813   7.771   4.624  12.114  2.5239 -1.0695 -1.4935
42985SOL    HW235814   7.873   4.551  12.198 -0.0221 -2.3188  0.6907
42986SOL     OW35815   5.698   0.668   7.588  0.3867 -0.2505 -0.3266
42986SOL    HW135816   5.768   0.636   7.645 -0.3576 -0.4176  0.5229
42986SOL    HW235817   5.669   0.750   7.628  0.3024 -0.0170 -0.8494
42987SOL     OW35818   1.035   8.968  10.838 -0.0797  0.6117  0.0911
42987SOL    HW135819   0.999   8.879  10.834  0.5245  0.3361  0.7421
42987SOL    HW235820   1.083   8.978  10.755  0.9746 -0.1629  0.5892
42988SOL     OW35821   1.462   5.441  10.261  0.3571 -0.2170 -0.2188
42988SOL    HW135822   1.414   5.512  10.304  0.9648 -2.6917  5.4024
42988SOL    HW235823   1.395   5.388  10.219 -0.4296  1.8244 -1.7037
42989SOL     OW35824   4.251   5.100   2.822 -0.6597 -0.0166  0.1980
42989SOL    HW135825   4.288   5.118   2.736  1.9775 -0.6459  1.0947
42989SOL    HW235826   4.236   5.006   2.823  0.2599 -0.1761  0.7101
42990SOL     OW35827   9.825   2.956   1.515  0.1701 -0.0885 -0.1305
42990SOL    HW135828   9.742   2.982   1.474 -1.0988  0.9958  2.8310
42990SOL    HW235829   9.877   3.036   1.516  0.2089 -0.1189  0.3113
42991SOL     OW35830   7.515   6.504  10.314 -0.1917  0.1717 -0.0462
42991SOL    HW135831   7.473   6.515  10.400 -1.2728  0.0299 -0.5390
42991SOL    HW235832   7.501   6.411  10.293  1.5451 -0.2126  0.3577
42992SOL     OW35833   7.436   1.010   3.676 -0.1242  0.4563  0.3792
42992SOL    HW135834   7.463   0.932   3.627  1.0094 -0.7048  2.7153
42992SOL    HW235835   7.352   1.034   3.637 -0.9213 -2.4054  0.0756
42993SOL     OW35836   8.694   5.538   1.010 -0.2772  0.1570  0.0412
42993SOL    HW135837   8.759   5.608   0.999 -0.2492 -0.1692 -2.4187
42993SOL    HW235838   8.628   5.555   0.943 -0.7296 -1.6565 -0.0342
42994SOL     OW35839  11.208   7.185   6.980 -0.2282 -0.3420 -0.0479
42994SOL    HW135840  11.289   7.204   6.933 -0.1769 -1.5948 -0.4958
42994SOL    HW235841  11.164   7.270   6.987  1.1530  0.3659  0.2829
42995SOL     OW35842   3.792  12.215   3.628  0.4236 -0.1933  0.3887
42995SOL    HW135843   3.709  12.169   3.614  1.6458 -2.1567 -0.9323
42995SOL    HW235844   3.795  12.280   3.558 -0.3268  0.4115  0.9067
42996SOL     OW35845   9.586  12.506   1.609  0.0318  0.4428 -0.4793
42996SOL    HW135846   9.669  12.472   1.641 -0.4603 -0.5835 -0.2406
42996SOL    HW235847   9.574  12.589   1.655  0.6903  0.3580 -0.1525
42997SOL     OW35848  10.955   3.860   2.774 -0.1648  0.3294 -0.0702
42997SOL    HW135849  10.871   3.852   2.819 -0.0704 -2.1778 -0.1865
42997SOL    HW235850  11.020   3.836   2.841  0.3292  0.7701 -0.3880
42998SOL     OW35851   2.952   6.511  11.254 -0.5206 -0.2408 -0.0460
42998SOL    HW135852   2.992   6.519  11.168 -1.4828  0.8911 -0.4096
42998SOL    HW235853   2.858   6.506  11.237 -0.6157 -2.5252  0.8034
42999SOL     OW35854   2.039   7.094   1.130  0.6237 -0.3109  0.0742
42999SOL    HW135855   2.035   7.070   1.222 -0.4692 -1.1570 -0.1683
42999SOL    HW235856   2.085   7.021   1.088  0.8772 -0.0578 -0.0921
43000SOL     OW35857   7.170   1.718   9.302  0.0448  0.2738 -0.0134
43000SOL    HW135858   7.232   1.774   9.348  0.9096  0.1859 -1.0347
43000SOL    HW235859   7.126   1.777   9.241 -0.2334  0.1556  0.0732
43001SOL     OW35860   8.884   5.291   3.192 -1.1995  0.1646 -0.0316
43001SOL    HW135861   8.898   5.362   3.255  0.4551  0.4710 -0.6670
43001SOL    HW235862   8.972   5.272   3.160 -1.6497 -2.0192 -0.0717
43002SOL     OW35863   1.762   3.807   4.106  0.3474 -0.8546  0.3086
43002SOL    HW135864   1.777   3.822   4.200  0.1429 -1.4767  0.4447
43002SOL    HW235865   1.691   3.743   4.103 -2.8247  2.3704 -0.2934
43003SOL     OW35866  10.326   3.974   2.445  0.1037  0.0239 -0.1151
43003SOL    HW135867  10.235   3.995   2.467  0.2922 -0.5102  1.2500
43003SOL    HW235868  10.319   3.895   2.390 -0.2815  0.3047 -0.4782
43004SOL     OW35869   5.327  10.656   8.329  0.2486 -0.6900 -0.1166
43004SOL    HW135870   5.245  10.631   8.286 -0.2186 -0.9419  0.8829
43004SOL    HW235871   5.299  10.695   8.412  1.1276 -0.3670  0.0366
43005SOL     OW35872  10.241  10.469   6.948  0.3139 -0.2266  0.4712
43005SOL    HW135873  10.257  10.379   6.921  1.6415  0.3194 -0.7067
43005SOL    HW235874  10.324  10.497   6.988 -0.4827  0.1004  1.9616
43006SOL     OW35875   4.471   1.840   0.013 -0.5515 -0.2912  0.2453
43006SOL    HW135876   4.520   1.890   0.079  0.5979 -0.6416 -0.3188
43006SOL    HW235877   4.476   1.893  -0.066 -0.8697 -0.4529  0.1165
43007SOL     OW35878   6.590   0.069   1.276 -0.0807  0.7233 -0.5904
43007SOL    HW135879   6.505   0.114   1.272 -0.1337  0.5498 -1.9003
43007SOL    HW235880   6.641   0.120   1.339 -0.6175  1.7912 -0.9923
43008SOL     OW35881   4.869   6.917   6.779 -0.5272  0.0398 -0.8949
43008SOL    HW135882   4.925   6.926   6.856 -1.1203  0.2863 -0.4918
43008SOL    HW235883   4.781   6.907   6.814 -0.8544  0.5403 -1.5518
43009SOL     OW35884   2.126   3.036   7.489  0.2183 -0.0946 -0.3975
43009SOL    HW135885   2.163   3.100   7.550  0.2719 -0.0737 -0.4510
43009SOL    HW235886   2.170   2.954   7.511 -1.2941 -0.5738  1.0082
43010SOL     OW35887  12.129   5.854   5.409 -0.0669  0.0367  0.0576
43010SOL    HW135888  12.104   5.940   5.442 -0.3911 -0.0935  0.1524
43010SOL    HW235889  12.137   5.799   5.487 -0.5199 -0.1875 -0.0495
43011SOL     OW35890   2.989   1.508   4.623 -0.0494 -0.4338  0.2234
43011SOL    HW135891   3.015   1.566   4.551 -1.2060 -0.5752 -0.3299
43011SOL    HW235892   2.998   1.562   4.702 -2.9125  1.1901 -0.4362
43012SOL     OW35893   7.963   5.092   8.905  0.6692 -0.0501  0.7280
43012SOL    HW135894   7.930   5.003   8.917 -0.3557  0.2271  0.0895
43012SOL    HW235895   7.917   5.124   8.828  2.0638  0.5526  0.1235
43013SOL     OW35896  10.585   6.553  12.294  0.0965 -0.0512 -0.2168
43013SOL    HW135897  10.532   6.474  12.309 -0.5362  0.3155 -0.4529
43013SOL    HW235898  10.632   6.535  12.213  0.8694 -0.6519  0.3469
43014SOL     OW35899  12.271   8.732   5.158 -0.3433 -0.0780 -0.7452
43014SOL    HW135900  12.235   8.647   5.134  1.8309 -0.7077 -2.0709
43014SOL    HW235901  12.310   8.719   5.244  1.6650 -1.0146 -1.7546
43015SOL     OW35902   5.142   8.254   5.036  0.6224 -0.1172 -0.4205
43015SOL    HW135903   5.123   8.311   4.961 -0.3531 -0.2517 -0.2849
43015SOL    HW235904   5.068   8.194   5.040 -0.3229  1.0697  1.7804
43016SOL     OW35905   7.224   2.647   3.775 -0.6490  0.5099 -0.0881
43016SOL    HW135906   7.247   2.567   3.728  1.0442  1.1534 -0.4427
43016SOL    HW235907   7.169   2.618   3.847 -0.2793 -0.9426 -0.3587
43017SOL     OW35908   8.221   5.321   8.209  0.0155  0.0977  0.0601
43017SOL    HW135909   8.131   5.352   8.220 -0.6982 -1.6706 -0.4655
43017SOL    HW235910   8.251   5.303   8.298 -0.5503 -0.3471  0.1674
43018SOL     OW35911   8.486   1.180   3.936 -0.0923 -0.6728 -0.4146
43018SOL    HW135912   8.564   1.129   3.959  0.0573 -0.5415 -0.6188
43018SOL    HW235913   8.490   1.257   3.993  0.9922  0.3179 -1.7619
43019SOL     OW35914   1.747  12.517  10.419  0.0194  0.2308 -0.1330
43019SOL    HW135915   1.824  12.560  10.382  0.7344 -1.1911 -0.3605
43019SOL    HW235916   1.779  12.433  10.450 -1.2686 -0.0077  0.6297
43020SOL     OW35917   6.200   7.475   1.075 -0.0244  0.2502 -0.1532
43020SOL    HW135918   6.268   7.517   1.128 -0.3317 -1.6379  1.9069
43020SOL    HW235919   6.204   7.520   0.990  1.9613  1.9752  0.7553
43021SOL     OW35920   3.863  10.049   1.809  0.0663 -0.7860  0.3006
43021SOL    HW135921   3.816  10.071   1.889  1.0060 -1.3083  1.0258
43021SOL    HW235922   3.915  10.127   1.790 -0.3401 -0.5724  0.0575
43022SOL     OW35923   6.977  10.786  11.740 -0.3358  0.3274 -0.8840
43022SOL    HW135924   7.046  10.849  11.765 -1.8349  2.7480 -2.3906
43022SOL    HW235925   6.941  10.756  11.823  0.3906  1.5579 -0.0770
43023SOL     OW35926   3.429   1.672  11.404  0.6766 -0.0159  0.0583
43023SOL    HW135927   3.368   1.694  11.334  1.6720 -1.4313 -1.3061
43023SOL    HW235928   3.423   1.577  11.412  2.2441 -0.1157  0.3048
43024SOL     OW35929   0.984   9.985  10.959  0.1213 -0.5194 -0.6690
43024SOL    HW135930   1.055  10.003  11.021 -0.1223 -0.8046 -0.3041
43024SOL    HW235931   1.020   9.919  10.900 -0.3017 -1.7173  0.3699
43025SOL     OW35932   2.137  11.274   9.057 -1.0321 -0.4890  0.6603
43025SOL    HW135933   2.142  11.340   8.988 -0.2738 -1.8348 -0.6421
43025SOL    HW235934   2.187  11.310   9.130 -1.5096  0.7932  0.3733
43026SOL     OW35935   6.763   6.040   0.278 -0.3688  0.4172 -0.3822
43026SOL    HW135936   6.718   5.968   0.233  0.4610 -0.5838  0.3529
43026SOL    HW235937   6.766   6.013   0.369  2.2235  0.1626 -0.4778
43027SOL     OW35938   2.077   3.430  11.037 -0.4770  0.0244  0.2003
43027SOL    HW135939   2.049   3.396  11.122  0.1116 -1.3997 -0.1500
43027SOL    HW235940   2.161   3.472  11.054 -0.3081 -0.3543  0.3089
43028SOL     OW35941   8.483   5.009  11.864 -0.4098 -0.1987  0.0081
43028SOL    HW135942   8.415   5.069  11.833  0.2833  1.2380  1.1262
43028SOL    HW235943   8.554   5.020  11.801 -0.9739 -1.3418 -0.8848
43029SOL     OW35944   2.159   9.717   9.558 -0.7183 -0.3680 -0.1535
43029SOL    HW135945   2.149   9.759   9.473 -0.6331  0.4752  0.2397
43029SOL    HW235946   2.139   9.786   9.622  1.0172 -0.4396  0.5498
43030SOL     OW35947   1.022  11.070   3.211  0.3057  0.1019 -0.0881
43030SOL    HW135948   1.106  11.076   3.166 -0.5931 -0.1073 -1.8690
43030SOL    HW235949   0.972  11.145   3.178 -0.1584  0.3411  1.1036
43031SOL     OW35950  12.279   4.150  11.258  0.5096  0.0821  0.0603
43031SOL    HW135951  12.280   4.074  11.316  0.6618  0.2071  0.2230
43031SOL    HW235952  12.351   4.135  11.196  0.1261 -0.2191 -0.3149
43032SOL     OW35953   0.226   7.126   6.289 -0.0899 -0.2470 -0.4885
43032SOL    HW135954   0.157   7.186   6.262 -0.9926 -0.7935  0.5406
43032SOL    HW235955   0.233   7.063   6.216 -0.3599  0.0688 -0.7882
43033SOL     OW35956   8.260   4.816  11.963  0.0245  0.4403  0.4978
43033SOL    HW135957   8.183   4.831  11.907 -0.4495 -0.4201  0.9021
43033SOL    HW235958   8.330   4.798  11.901 -0.2153  0.7209  0.1372
43034SOL     OW35959   1.197  10.018   2.319 -0.5099  0.4556  0.1830
43034SOL    HW135960   1.118   9.968   2.340 -1.2568  0.9691 -1.2814
43034SOL    HW235961   1.264   9.951   2.306 -0.6988  0.0093  1.3896
43035SOL     OW35962   6.178   5.445  11.743 -0.5714  0.0807  0.1679
43035SOL    HW135963   6.178   5.452  11.647  0.4319 -0.3134  0.1239
43035SOL    HW235964   6.170   5.535  11.773  0.8921  0.4076 -0.3148
43036SOL     OW35965  10.932   9.865   0.105 -0.2505 -0.3556 -0.3773
43036SOL    HW135966  11.000   9.878   0.171 -0.0988  1.7133 -0.8960
43036SOL    HW235967  10.978   9.823   0.032  0.5791  1.2946 -0.8412
43037SOL     OW35968   5.970   5.805   4.342 -0.2302  0.3143  0.1375
43037SOL    HW135969   6.038   5.833   4.281 -0.1689 -0.5203 -0.1908
43037SOL    HW235970   6.012   5.738   4.397  0.1280  2.0019  2.0428
43038SOL     OW35971   6.563  11.714   3.191  0.2773 -0.0172  0.2338
43038SOL    HW135972   6.490  11.663   3.226  0.1319  0.0012 -0.0405
43038SOL    HW235973   6.627  11.649   3.163  0.2323 -0.0406  0.1846
43039SOL     OW35974  10.109   5.239   0.630 -0.3618  0.6889 -0.3143
43039SOL    HW135975  10.079   5.196   0.550  0.2501  1.2507 -0.8585
43039SOL    HW235976  10.199   5.207   0.642 -0.8455 -0.3253  0.8268
43040SOL     OW35977   0.001   0.620   2.975  0.1305  0.0360 -0.9724
43040SOL    HW135978   0.003   0.576   3.060 -1.6286  0.4536 -0.6812
43040SOL    HW235979  -0.021   0.552   2.912  0.9389 -0.1708 -1.0509
43041SOL     OW35980   3.701   4.820   6.284  0.4456 -0.2073 -0.2503
43041SOL    HW135981   3.606   4.805   6.289  0.8196 -3.7271 -1.0371
43041SOL    HW235982   3.736   4.776   6.362  1.4436  1.6338  0.3969
43042SOL     OW35983   0.536   4.953   1.012  0.4358 -0.6415 -0.0094
43042SOL    HW135984   0.584   4.936   0.931  1.0247  0.1474  0.1633
43042SOL    HW235985   0.603   4.975   1.076 -0.0926 -0.3215  0.4494
43043SOL     OW35986   5.498   1.418   3.822  0.5354  0.4088 -0.3907
43043SOL    HW135987   5.426   1.385   3.769  1.4108 -2.3042 -0.0529
43043SOL    HW235988   5.555   1.463   3.759 -0.6423  1.2186 -0.9151
43044SOL     OW35989   1.720  12.328   0.028  0.2111 -0.4452 -0.1071
43044SOL    HW135990   1.679  12.414   0.019  0.5979 -0.1935  0.4580
43044SOL    HW235991   1.813  12.344   0.013  0.3469 -0.6777  0.4376
43045SOL     OW35992   8.171   6.991   0.957  0.2041 -0.3742 -0.0631
43045SOL    HW135993   8.140   6.963   1.043  2.0491  1.0502  1.1405
43045SOL    HW235994   8.091   7.003   0.905 -1.0747  0.4135  1.9742
43046SOL     OW35995   5.081   1.839   4.875 -0.0430  0.9975 -0.0759
43046SOL    HW135996   5.165   1.813   4.915 -1.0585 -0.7757  1.0468
43046SOL    HW235997   5.106   1.876   4.790  1.7959 -1.3786 -0.6890
43047SOL     OW35998   8.450   0.577   6.209 -0.3572 -0.3674  0.0089
43047SOL    HW135999   8.494   0.643   6.155  1.2493 -2.2815 -1.1547
43047SOL    HW236000   8.372   0.553   6.158 -0.1842 -0.3521 -0.2691
43048SOL     OW36001  11.568   1.115   0.624  0.4575 -0.6041  0.0344
43048SOL    HW136002  11.564   1.179   0.695  1.3863 -1.8670  1.2887
43048SOL    HW236003  11.566   1.030   0.669  2.0977 -1.4485 -1.3760
43049SOL     OW36004  12.575   7.557   4.811 -0.0409  0.0780 -0.2945
43049SOL    HW136005  12.532   7.642   4.818  1.2430  0.7887 -0.6241
43049SOL    HW236006  12.597   7.534   4.902 -0.3823  0.0960 -0.2055
43050SOL     OW36007  10.837   3.583   2.272 -0.3262  0.5826 -0.3023
43050SOL    HW136008  10.932   3.595   2.262 -0.4816  1.6440 -0.6258
43050SOL    HW236009  10.820   3.602   2.364 -0.1732 -0.0012 -0.1517
43051SOL     OW36010  10.523   7.078   4.215 -0.5180  0.0694  0.0435
43051SOL    HW136011  10.609   7.051   4.248 -0.8146 -1.7007 -0.5021
43051SOL    HW236012  10.506   7.162   4.257  0.9598 -0.1203  1.0900
43052SOL     OW36013   7.708   2.454  11.026 -0.1576 -0.1827 -0.0455
43052SOL    HW136014   7.717   2.522  11.093  1.9276  1.1782 -1.5803
43052SOL    HW236015   7.643   2.394  11.062 -1.8205  2.3911  1.5864
43053SOL     OW36016   9.142   6.590   9.782  0.9740  0.2637 -0.3877
43053SOL    HW136017   9.133   6.505   9.740  1.3769  0.3251 -0.5976
43053SOL    HW236018   9.137   6.653   9.710  0.3886  0.4368 -0.2058
43054SOL     OW36019   9.102   7.365   6.050 -0.4210 -0.3115  0.4155
43054SOL    HW136020   9.153   7.446   6.060  0.6999 -1.0584  0.9663
43054SOL    HW236021   9.139   7.324   5.972  0.0001 -0.9658  0.9447
43055SOL     OW36022  12.506   5.276   9.638 -0.4012 -0.3936  0.6657
43055SOL    HW136023  12.486   5.183   9.622  0.1348 -0.3610 -0.2619
43055SOL    HW236024  12.595   5.287   9.606 -0.9464  0.7525 -0.5351
43056SOL     OW36025   3.679   8.525   7.341  0.1576 -0.7606  0.4818
43056SOL    HW136026   3.706   8.495   7.428  2.6305 -3.1276 -0.9427
43056SOL    HW236027   3.759   8.522   7.288 -1.2933  0.3103 -1.9638
43057SOL     OW36028   8.303   5.679   9.974  0.1499 -0.5038 -0.5013
43057SOL    HW136029   8.396   5.660   9.984  0.3796 -0.1091 -1.7525
43057SOL    HW236030   8.282   5.737  10.048  1.2135  0.4801 -0.9539
43058SOL     OW36031   5.225   1.184   1.078 -0.1331  0.9209 -0.1410
43058SOL    HW136032   5.140   1.192   1.036  0.2278  2.8264 -0.6086
43058SOL    HW236033   5.250   1.274   1.098  1.5107  0.3508  0.5164
43059SOL     OW36034  11.511   8.180   5.386 -0.5367  0.3761 -0.4383
43059SOL    HW136035  11.485   8.211   5.473 -0.6163 -0.7789 -0.0258
43059SOL    HW236036  11.606   8.173   5.391 -0.5874 -0.2117 -0.2568
43060SOL     OW36037   1.492   5.710   2.921 -0.0071 -0.1414  0.3384
43060SOL    HW136038   1.397   5.707   2.910 -0.1862  0.3596  1.5227
43060SOL    HW236039   1.517   5.795   2.885  0.1711 -0.7494 -1.0290
43061SOL     OW36040  11.554   3.600   4.271  0.2961  0.1296 -0.5501
43061SOL    HW136041  11.527   3.690   4.288  0.6949  0.0893  0.3355
43061SOL    HW236042  11.645   3.596   4.298  0.9961  0.0365 -2.7132
43062SOL     OW36043   7.969   6.712   9.663  0.0743 -0.2596 -0.3987
43062SOL    HW136044   7.914   6.706   9.585  0.2541  0.1212 -0.5605
43062SOL    HW236045   7.973   6.623   9.697 -1.5469 -0.1233  0.2511
43063SOL     OW36046   6.504   0.811   6.058  0.0095 -0.0779 -0.9989
43063SOL    HW136047   6.581   0.782   6.008 -0.5036  0.1421 -1.9463
43063SOL    HW236048   6.540   0.856   6.133  0.8360  1.2396 -2.1422
43064SOL     OW36049   2.253   4.105   4.869  0.2441 -0.2693 -0.2540
43064SOL    HW136050   2.347   4.087   4.869 -0.0612 -2.0422 -0.3084
43064SOL    HW236051   2.218   4.051   4.799 -0.5097  2.5459 -2.2292
43065SOL     OW36052  10.900   7.561   6.577  0.6222 -0.3635  0.5710
43065SOL    HW136053  10.845   7.640   6.576  0.5339 -0.3926  1.8233
43065SOL    HW236054  10.938   7.558   6.489  0.1402  0.7323  0.3000
43066SOL     OW36055  10.373   7.680   5.952  0.3708  0.1903  0.2254
43066SOL    HW136056  10.433   7.738   5.906 -1.4479 -0.0246 -2.6583
43066SOL    HW236057  10.405   7.592   5.934 -0.1948  0.1181 -0.5077
43067SOL     OW36058   6.446   7.154  11.563  0.1309  0.3253  0.0923
43067SOL    HW136059   6.413   7.230  11.516  1.0417  0.8149  0.2349
43067SOL    HW236060   6.429   7.173  11.655 -0.7603 -0.2016  0.0498
43068SOL     OW36061   7.424   9.781   3.711  0.9148 -0.1648  0.4283
43068SOL    HW136062   7.410   9.690   3.685  0.9416 -0.1312  0.2952
43068SOL    HW236063   7.378   9.832   3.645  2.4668 -0.0111 -0.5869
43069SOL     OW36064   0.384   8.338   1.887 -0.2846  0.1917 -0.1877
43069SOL    HW136065   0.430   8.367   1.808 -0.0805 -2.1340 -0.9917
43069SOL    HW236066   0.292   8.353   1.869 -0.1140  1.7265  0.0711
43070SOL     OW36067   7.745   9.746   5.996  0.5044  0.1323  0.1038
43070SOL    HW136068   7.691   9.823   6.010  1.1550  0.8950 -1.2909
43070SOL    HW236069   7.706   9.704   5.919 -0.0374 -1.1281  1.0418
43071SOL     OW36070   4.639  10.807   8.713  0.0431 -0.4165  0.1619
43071SOL    HW136071   4.625  10.842   8.625 -1.2121  0.7471  0.7869
43071SOL    HW236072   4.691  10.728   8.699  1.0092  0.4416 -1.5111
43072SOL     OW36073   7.296   0.110   3.333 -0.9707  0.2986  0.4104
43072SOL    HW136074   7.284   0.110   3.428 -0.5306  0.1916  0.4711
43072SOL    HW236075   7.225   0.164   3.300 -1.2188  0.2095  0.7901
43073SOL     OW36076   9.409   1.021   4.904  0.0449  0.2706 -0.0939
43073SOL    HW136077   9.364   0.937   4.899  1.8194 -0.7544  0.0097
43073SOL    HW236078   9.360   1.071   4.969 -1.0634 -0.6664 -0.1834
43074SOL     OW36079   8.866  11.261   2.383 -0.1220 -0.2073 -0.4428
43074SOL    HW136080   8.787  11.278   2.435  0.5610 -1.9276  1.2738
43074SOL    HW236081   8.842  11.288   2.295 -1.2988  3.0386  0.6964
43075SOL     OW36082   2.912   5.615  11.317  0.8456  0.2007 -0.1339
43075SOL    HW136083   2.925   5.535  11.266  1.7699  0.8813 -1.0189
43075SOL    HW236084   3.001   5.645  11.338  0.6667  2.2396 -1.8901
43076SOL     OW36085   6.822   9.657   7.963 -1.1166 -0.2109 -0.3804
43076SOL    HW136086   6.874   9.577   7.973  0.7026  0.8418 -0.9852
43076SOL    HW236087   6.739   9.636   8.005 -0.6153 -2.3401 -0.3248
43077SOL     OW36088   7.871  12.369   1.279  0.0478 -0.3085 -0.1887
43077SOL    HW136089   7.858  12.440   1.342 -0.8578  0.9056 -1.6719
43077SOL    HW236090   7.965  12.355   1.278  0.2424  0.8573  0.1515
43078SOL     OW36091   9.518   0.218   3.065 -0.1302  0.3103 -0.1656
43078SOL    HW136092   9.512   0.229   2.970  0.1842 -0.0745 -0.2320
43078SOL    HW236093   9.427   0.215   3.094 -0.2419 -0.2031 -0.5348
43079SOL     OW36094   2.274   9.729   8.020  0.5913  0.1888  0.3111
43079SOL    HW136095   2.353   9.720   7.968 -0.1206  0.6178 -0.8771
43079SOL    HW236096   2.237   9.813   7.993  0.1772  0.4187  1.4998
43080SOL     OW36097   1.547  11.209   9.149  0.3087 -0.0539  0.2674
43080SOL    HW136098   1.630  11.164   9.131 -0.0142 -0.7620  0.5347
43080SOL    HW236099   1.492  11.188   9.074  1.0681  2.2427 -1.0684
43081SOL     OW36100  10.746   7.132   1.939 -0.0639  0.3517  0.2317
43081SOL    HW136101  10.747   7.037   1.942 -2.2640  0.2978  1.3732
43081SOL    HW236102  10.767   7.159   2.029 -0.2223  0.9099  0.1070
43082SOL     OW36103   0.058   7.789  10.475  0.0412  0.3605  0.0283
43082SOL    HW136104   0.088   7.852  10.409  0.5325  0.6559  0.5156
43082SOL    HW236105   0.030   7.713  10.425 -1.1620  1.1969 -0.6246
43083SOL     OW36106  11.195   5.630   9.627  0.3936  0.3505  0.4018
43083SOL    HW136107  11.199   5.575   9.706  1.9317  1.1734  0.9327
43083SOL    HW236108  11.212   5.718   9.659 -1.6322  1.1399 -0.4978
43084SOL     OW36109   2.345   4.667   6.319  0.5881 -0.0401  0.5696
43084SOL    HW136110   2.276   4.721   6.279  0.9216  0.3349  0.4957
43084SOL    HW236111   2.422   4.683   6.265  1.0471  0.4846  1.3639
43085SOL     OW36112   3.118   4.773   4.522  0.1253 -0.1962 -0.4225
43085SOL    HW136113   3.161   4.709   4.466  0.2289 -0.8684  0.4079
43085SOL    HW236114   3.092   4.723   4.600 -0.1693  0.6800  0.0523
43086SOL     OW36115   0.541  10.970   9.139  0.0076 -0.4550 -0.1953
43086SOL    HW136116   0.627  10.977   9.096  0.4402 -0.5987  0.6134
43086SOL    HW236117   0.546  10.889   9.189 -0.8121 -0.7474 -0.5752
43087SOL     OW36118   7.993   1.165   9.793  0.1753 -0.3565  0.8556
43087SOL    HW136119   8.049   1.100   9.835 -0.7425 -0.9278  1.2222
43087SOL    HW236120   7.906   1.125   9.793 -0.1038  0.2130 -0.3441
43088SOL     OW36121  10.856   0.253   1.363 -0.3280  0.7218  0.2351
43088SOL    HW136122  10.781   0.197   1.383 -0.2938  0.9181  0.9043
43088SOL    HW236123  10.844   0.277   1.271  0.3904 -1.5252 -0.5263
43089SOL     OW36124   4.231   8.719   4.952  0.1996  0.1105  0.1535
43089SOL    HW136125   4.238   8.698   5.045  1.6701  0.8765  0.2418
43089SOL    HW236126   4.315   8.691   4.914 -0.8281 -1.3606 -1.2239
43090SOL     OW36127   7.132   3.866  11.266 -0.1990  0.1607 -0.6725
43090SOL    HW136128   7.201   3.814  11.224  1.5032 -0.6901  2.7550
43090SOL    HW236129   7.050   3.823  11.241  0.8790 -1.6658 -1.2592
43091SOL     OW36130  12.363   7.453   6.541  0.2926  0.0294 -0.0240
43091SOL    HW136131  12.282   7.483   6.582  0.5933 -1.6070  1.9375
43091SOL    HW236132  12.428   7.455   6.612  1.8380  0.7149 -1.3974
43092SOL     OW36133   9.774  11.327   6.154  0.2343 -0.4126 -0.3119
43092SOL    HW136134   9.757  11.388   6.082 -1.1585 -1.2487 -0.7256
43092SOL    HW236135   9.867  11.306   6.146  0.2338 -0.0241 -1.5141
43093SOL     OW36136   2.116   4.948   1.213  0.3868  0.1107 -0.4676
43093SOL    HW136137   2.037   4.903   1.244 -0.5233  2.6025  1.1408
43093SOL    HW236138   2.173   4.878   1.182 -2.3269 -1.8222 -1.4593
43094SOL     OW36139   8.375   9.041  12.347 -0.2671 -0.1260 -0.2035
43094SOL    HW136140   8.354   9.128  12.380  1.9706 -0.0140  1.1129
43094SOL    HW236141   8.355   8.982  12.420  2.5905 -0.1365  0.6615
43095SOL     OW36142   8.731   1.855   3.772  0.1976 -0.0012 -0.3688
43095SOL    HW136143   8.649   1.903   3.786  0.2443  0.2846 -1.0454
43095SOL    HW236144   8.799   1.915   3.803  0.1457 -0.3133  0.3694
43096SOL     OW36145   6.228  10.290   9.937 -0.0552  0.0676 -0.2833
43096SOL    HW136146   6.239  10.303   9.843  1.2148  3.0270  0.1476
43096SOL    HW236147   6.154  10.346   9.961 -0.8821 -1.2709  0.3920
43097SOL     OW36148   8.203   6.962   7.209  0.1655 -0.2804  0.1929
43097SOL    HW136149   8.144   6.889   7.224  1.7503 -1.7302 -0.2411
43097SOL    HW236150   8.240   6.982   7.295  0.3674 -0.5870  0.1802
43098SOL     OW36151   4.706   1.725   9.224  0.2343 -0.4950  0.6516
43098SOL    HW136152   4.799   1.749   9.220  0.6837 -1.9577  1.5323
43098SOL    HW236153   4.662   1.805   9.255  1.2653  0.0528  0.7599
43099SOL     OW36154   8.923   1.605   2.960 -0.4518 -0.7412 -0.1842
43099SOL    HW136155   8.963   1.569   3.039 -1.2416 -2.2096 -0.4107
43099SOL    HW236156   8.992   1.603   2.894 -0.3058 -1.2733 -0.0175
43100SOL     OW36157  11.558  11.776   3.742 -0.5073 -0.6898  0.2551
43100SOL    HW136158  11.513  11.696   3.715 -0.5311 -0.4102 -0.5572
43100SOL    HW236159  11.500  11.847   3.715 -0.4291 -0.3870  0.8587
43101SOL     OW36160  10.631   4.726   9.133 -0.0827 -0.3326 -0.2764
43101SOL    HW136161  10.609   4.817   9.111 -0.9017 -0.6816 -0.9725
43101SOL    HW236162  10.579   4.674   9.072  1.3666 -1.2543 -0.7755
43102SOL     OW36163   1.377   6.627   0.260  0.0092  0.0595  0.1027
43102SOL    HW136164   1.291   6.636   0.300 -0.4963 -1.0557 -0.7064
43102SOL    HW236165   1.430   6.583   0.326  0.4963  2.2749  1.2912
43103SOL     OW36166  11.755   6.702   7.467  0.7272 -0.1452  0.1787
43103SOL    HW136167  11.811   6.780   7.463 -0.9573  1.1411  0.3457
43103SOL    HW236168  11.764   6.662   7.380 -0.5980  1.9389 -1.0330
43104SOL     OW36169   3.753   8.720   4.438 -0.1722  0.0252 -0.3323
43104SOL    HW136170   3.784   8.781   4.505 -0.7159 -1.3932  1.3066
43104SOL    HW236171   3.825   8.658   4.427 -0.8995 -1.0537  0.6673
43105SOL     OW36172   8.770   7.301   8.499  0.0348  0.2736  0.6882
43105SOL    HW136173   8.810   7.386   8.485  4.8720 -1.9890 -1.5733
43105SOL    HW236174   8.809   7.269   8.580 -0.1612 -0.5846  0.4562
43106SOL     OW36175   7.249   1.529   6.506  0.4781 -0.2141 -0.0428
43106SOL    HW136176   7.232   1.621   6.485 -0.8847 -0.4973 -0.2716
43106SOL    HW236177   7.284   1.491   6.425 -0.5347 -0.2654 -0.4721
43107SOL     OW36178  10.073   4.099   5.451 -0.6577 -0.3777  0.1727
43107SOL    HW136179  10.165   4.125   5.453 -1.4183  2.5455  0.8736
43107SOL    HW236180  10.046   4.118   5.361 -0.8712 -0.0832  0.2995
43108SOL     OW36181  11.547   3.847  10.663  0.0015 -0.1209 -0.0460
43108SOL    HW136182  11.495   3.927  10.655  1.2703  0.5773 -2.4410
43108SOL    HW236183  11.517   3.791  10.592  0.3907 -1.0106  0.4704
43109SOL     OW36184   6.571   5.166   1.044 -0.0215 -0.1988 -0.3385
43109SOL    HW136185   6.652   5.118   1.060 -0.7636 -0.8782  1.7859
43109SOL    HW236186   6.595   5.258   1.053  0.4358 -0.4132  0.9046
43110SOL     OW36187   9.232   9.521   2.937  0.5145 -0.3903 -0.1104
43110SOL    HW136188   9.288   9.486   2.867  0.2625  1.4020 -1.2428
43110SOL    HW236189   9.269   9.606   2.957 -0.4227 -0.1784  0.7901
43111SOL     OW36190   5.318  11.182   4.005 -0.1951  0.1634  0.3197
43111SOL    HW136191   5.369  11.263   4.005  1.3348 -0.7455 -0.9864
43111SOL    HW236192   5.275  11.180   3.919 -1.1912  0.1503  0.8023
43112SOL     OW36193   9.285   2.431   8.795 -0.4920 -0.0613  0.1175
43112SOL    HW136194   9.373   2.456   8.824 -0.1028 -1.9703  0.7963
43112SOL    HW236195   9.245   2.512   8.766  1.7278  0.7717 -0.8575
43113SOL     OW36196  12.502  11.954   1.462 -0.1627 -0.2519  0.6479
43113SOL    HW136197  12.562  12.028   1.454 -0.2709 -0.2113  0.1672
43113SOL    HW236198  12.415  11.994   1.459 -0.2381 -0.4596 -0.4718
43114SOL     OW36199   7.407   1.016  10.230 -0.4808  0.1858  0.1173
43114SOL    HW136200   7.471   0.989  10.165  1.2116  1.6034  1.1116
43114SOL    HW236201   7.345   1.070  10.182  1.8523  2.8964 -0.0889
43115SOL     OW36202  10.825  10.396   8.277 -0.2275  0.4208 -0.0340
43115SOL    HW136203  10.920  10.409   8.283 -0.2816  0.6297  0.3985
43115SOL    HW236204  10.804  10.342   8.353 -0.4266  0.2107 -0.2407
43116SOL     OW36205   8.682   9.187   4.134  0.2087 -0.1205 -0.0110
43116SOL    HW136206   8.764   9.236   4.135  0.3652 -0.3857  0.6322
43116SOL    HW236207   8.677   9.149   4.046  0.4109  0.4915 -0.2934
43117SOL     OW36208   0.834   1.574   6.661  0.0959  0.0107 -0.2953
43117SOL    HW136209   0.789   1.496   6.627 -0.5891  0.3555 -0.1941
43117SOL    HW236210   0.924   1.563   6.632  0.0397 -0.8962 -0.1533
43118SOL     OW36211  10.423   5.370   9.781 -0.0558  0.2784 -0.1316
43118SOL    HW136212  10.401   5.457   9.747  1.1725  0.9628  0.7138
43118SOL    HW236213  10.513   5.380   9.815  0.3163 -1.4710 -0.5110
43119SOL     OW36214  12.547  11.000   1.482 -0.7222 -0.3765  0.1809
43119SOL    HW136215  12.498  10.930   1.438 -0.8413 -1.4093  1.8791
43119SOL    HW236216  12.564  11.064   1.413 -1.6652 -1.5085 -1.1585
43120SOL     OW36217   2.216  11.741   4.768 -0.2016  0.1276  0.6009
43120SOL    HW136218   2.218  11.767   4.676  2.0010 -0.7979  0.3174
43120SOL    HW236219   2.227  11.823   4.816  2.6856  0.3022 -0.1592
43121SOL     OW36220   9.882   7.905   3.380  0.1558 -0.0694  0.5261
43121SOL    HW136221   9.962   7.941   3.343 -0.2652 -0.7784 -1.1882
43121SOL    HW236222   9.867   7.824   3.330 -1.0665 -0.4822  1.5054
43122SOL     OW36223   8.904   8.089   4.939 -0.1592  0.1017  0.2053
43122SOL    HW136224   8.864   8.071   5.024  0.6880 -0.6596  0.4530
43122SOL    HW236225   8.881   8.012   4.885 -0.9469  0.7138 -0.3611
43123SOL     OW36226   4.349   2.516   3.603 -0.5561  0.2058 -0.3369
43123SOL    HW136227   4.381   2.443   3.552 -1.1781  0.0961 -0.5860
43123SOL    HW236228   4.295   2.567   3.542 -1.6002 -0.1218  0.2724
43124SOL     OW36229   7.176   3.711   9.207  0.4787 -0.2858  0.0010
43124SOL    HW136230   7.093   3.684   9.167  0.9239 -1.3353 -0.2236
43124SOL    HW236231   7.238   3.714   9.135  0.7889 -0.1006  0.2728
43125SOL     OW36232  10.488   1.831   0.051 -0.2203  0.3776  0.5439
43125SOL    HW136233  10.477   1.745   0.091  1.7180 -0.8695 -1.4057
43125SOL    HW236234  10.580   1.853   0.067 -0.5484  1.8639  0.5431
43126SOL     OW36235   1.996   2.516   9.495 -0.6483 -0.3466  0.5080
43126SOL    HW136236   1.913   2.524   9.449 -0.3406  0.4209  0.0562
43126SOL    HW236237   2.061   2.546   9.432  0.0632 -1.6709  0.5939
43127SOL     OW36238   0.578   9.253   1.727  0.1465  0.4891  0.2493
43127SOL    HW136239   0.657   9.273   1.676  0.0408 -0.9464 -0.5395
43127SOL    HW236240   0.582   9.312   1.802  0.2430  2.8022 -1.4827
43128SOL     OW36241  10.471   2.613   5.025  0.2716  0.2390  0.0756
43128SOL    HW136242  10.493   2.698   4.986  1.1289  1.1021  2.2909
43128SOL    HW236243  10.408   2.635   5.094  0.1432 -1.0082  0.3668
43129SOL     OW36244   4.520   0.853   5.629  0.7707  0.1485  0.5896
43129SOL    HW136245   4.600   0.881   5.585  1.8090 -1.0794  1.5907
43129SOL    HW236246   4.471   0.933   5.645 -0.0072  0.6223 -3.3025
43130SOL     OW36247   9.943   5.285   7.994 -0.1713  0.3384 -0.3780
43130SOL    HW136248  10.023   5.319   8.036  0.9799 -1.3584 -1.1039
43130SOL    HW236249   9.894   5.364   7.970  0.1875  1.4179  2.0479
43131SOL     OW36250  11.195   8.958  12.546 -0.8135 -0.1512  0.1456
43131SOL    HW136251  11.249   9.026  12.587 -0.9172 -0.5416  0.9472
43131SOL    HW236252  11.107   8.974  12.581 -1.1216  0.1592 -0.7507
43132SOL     OW36253  10.880   0.865   4.808 -0.0323 -0.0667 -0.5185
43132SOL    HW136254  10.937   0.808   4.757 -0.7252  1.2455 -2.8644
43132SOL    HW236255  10.792   0.829   4.796 -0.2130  0.2926 -0.3082
43133SOL     OW36256   3.647  11.389   0.550  0.2103 -0.6090  0.0481
43133SOL    HW136257   3.679  11.325   0.486  0.3629 -0.1526 -0.3362
43133SOL    HW236258   3.623  11.465   0.498  1.6945  0.3098  0.6521
43134SOL     OW36259   2.468   5.046  10.955  0.2451  0.1174  0.3102
43134SOL    HW136260   2.458   4.983  10.884  1.2173 -0.4951  0.6925
43134SOL    HW236261   2.378   5.072  10.977 -0.0971 -0.1854 -0.6828
43135SOL     OW36262  11.160   9.324   4.369  0.0937 -0.2219  0.3367
43135SOL    HW136263  11.168   9.230   4.353 -1.5173 -0.5684  1.3589
43135SOL    HW236264  11.157   9.332   4.465  2.2100  1.0852  0.3673
43136SOL     OW36265   8.586  12.473   1.453  0.5743  0.1150  0.2234
43136SOL    HW136266   8.545  12.515   1.378  1.3064  0.3850 -0.0359
43136SOL    HW236267   8.580  12.379   1.435 -0.6899  0.1043  0.6057
43137SOL     OW36268   7.631   6.854   5.687  0.2087 -0.9100 -0.7749
43137SOL    HW136269   7.632   6.854   5.783  0.5955 -1.5301 -0.7736
43137SOL    HW236270   7.548   6.896   5.664  0.5544  0.1116 -0.1812
43138SOL     OW36271   9.245   4.953   6.089  0.5078 -0.8490  0.3160
43138SOL    HW136272   9.197   5.004   6.023  1.0747  0.0188  0.5584
43138SOL    HW236273   9.226   4.998   6.171  0.5088 -1.4141  0.6293
43139SOL     OW36274   4.266   6.786   8.816  0.0425 -0.2692 -0.4333
43139SOL    HW136275   4.239   6.793   8.908  1.1313 -0.6747 -0.0723
43139SOL    HW236276   4.297   6.696   8.807 -0.7632 -0.4699 -1.4118
43140SOL     OW36277   9.476   3.828   4.625  0.1778  0.1899  0.3607
43140SOL    HW136278   9.495   3.739   4.595  1.8612  0.7136 -0.2151
43140SOL    HW236279   9.560   3.861   4.657 -0.6052  1.2873  1.3750
43141SOL     OW36280   1.131   2.850   3.494 -0.2460 -0.2667  0.2366
43141SOL    HW136281   1.173   2.845   3.580  0.1054  0.3807  0.1091
43141SOL    HW236282   1.100   2.761   3.477  0.3140 -0.5599  0.7136
43142SOL     OW36283  12.217   3.533   5.134 -0.4733  0.3816  0.3567
43142SOL    HW136284  12.261   3.580   5.063  0.6860 -0.2228  0.6451
43142SOL    HW236285  12.233   3.440   5.114  0.6070  0.2171  1.8246
43143SOL     OW36286   2.789  11.619  11.792  0.1506  0.4773 -0.6227
43143SOL    HW136287   2.823  11.630  11.703 -0.3583  1.2616 -0.7250
43143SOL    HW236288   2.867  11.612  11.847  0.4843 -0.8727 -1.2094
43144SOL     OW36289   4.698   4.757  11.118 -0.0156  0.1537  0.3710
43144SOL    HW136290   4.724   4.668  11.098 -0.7403 -0.3816  1.6815
43144SOL    HW236291   4.631   4.778  11.053 -0.1330 -0.4108  0.3035
43145SOL     OW36292   5.498  11.444   1.885  0.1138  0.1073  0.0577
43145SOL    HW136293   5.444  11.414   1.958 -0.1328  0.4965  0.0355
43145SOL    HW236294   5.588  11.437   1.917  0.0275 -0.0896  0.2588
43146SOL     OW36295   5.456   5.137  12.406 -0.3678 -0.4202 -0.1341
43146SOL    HW136296   5.529   5.193  12.432  0.0169 -1.5527  1.4101
43146SOL    HW236297   5.385   5.161  12.465 -1.0413  0.1741 -1.1539
43147SOL     OW36298   3.351  12.526   5.799  0.4674 -0.0720 -0.9072
43147SOL    HW136299   3.341  12.573   5.881 -0.1608  0.2040 -1.1359
43147SOL    HW236300   3.273  12.470   5.793 -0.5875  1.4594 -2.3067
43148SOL     OW36301   2.017   7.416   1.069 -0.0287 -0.5339 -0.8473
43148SOL    HW136302   2.032   7.343   1.008 -0.0929 -1.9648  0.7832
43148SOL    HW236303   1.922   7.423   1.075 -0.0284  0.1368 -1.4933
43149SOL     OW36304   7.149   3.471   2.918  0.3415 -0.2230  0.2504
43149SOL    HW136305   7.217   3.532   2.947  0.6603 -1.5048  2.4053
43149SOL    HW236306   7.068   3.521   2.927  0.6744  0.1971  1.1182
43150SOL     OW36307   5.834   3.927   5.541 -0.1302  0.1142  0.0260
43150SOL    HW136308   5.830   3.997   5.606  0.6759 -1.2284  1.5936
43150SOL    HW236309   5.855   3.848   5.591  0.0862 -1.0747 -1.8182
43151SOL     OW36310   6.422   8.925   9.806  0.2089  0.1211 -0.2813
43151SOL    HW136311   6.464   8.898   9.887 -0.4100 -0.5400 -0.1717
43151SOL    HW236312   6.426   9.021   9.808  1.2197  0.0848 -0.0266
43152SOL     OW36313   6.363   8.983   0.336 -0.3490 -0.0212  0.5297
43152SOL    HW136314   6.457   8.988   0.355 -0.1246 -1.2392 -0.1137
43152SOL    HW236315   6.326   9.064   0.371  0.4526 -0.8784  3.6393
43153SOL     OW36316   2.686   5.245   2.216  0.1530  0.2133 -0.1872
43153SOL    HW136317   2.718   5.266   2.304 -1.6072  0.8777  0.3587
43153SOL    HW236318   2.590   5.249   2.225 -0.2102 -3.2270 -1.2945
43154SOL     OW36319  12.127   8.554   4.153  0.0302  0.2404  0.4592
43154SOL    HW136320  12.086   8.576   4.070  1.7300  0.0688 -0.4584
43154SOL    HW236321  12.057   8.562   4.217 -1.4303 -0.0662 -1.0391
43155SOL     OW36322   6.725  11.014   2.776 -0.3677  0.4220  0.6203
43155SOL    HW136323   6.669  10.938   2.759 -0.3108  0.5295 -0.0657
43155SOL    HW236324   6.811  10.989   2.743  0.2685 -0.1174  2.5530
43156SOL     OW36325   9.760   7.151   4.311  0.3956 -0.3957  0.1060
43156SOL    HW136326   9.769   7.192   4.225 -0.0942 -1.1758 -0.3370
43156SOL    HW236327   9.768   7.057   4.293 -1.7498 -0.7192  0.5823
43157SOL     OW36328  10.822   4.173   1.124 -0.6268 -0.0815 -0.2566
43157SOL    HW136329  10.859   4.130   1.046  0.9745  1.3386 -0.3418
43157SOL    HW236330  10.876   4.142   1.196 -0.7339  0.2544 -0.0312
43158SOL     OW36331   4.104   5.030   9.356 -0.0607  0.0164 -0.3224
43158SOL    HW136332   4.198   5.033   9.376 -0.2854  0.5260  0.7380
43158SOL    HW236333   4.086   5.114   9.315 -0.0009 -0.2032 -0.8039
43159SOL     OW36334   4.496  12.522  10.517  0.3681  0.0584  0.4869
43159SOL    HW136335   4.537  12.519  10.431  1.3109 -0.2734  0.9414
43159SOL    HW236336   4.432  12.593  10.510  1.4300  0.9925 -0.0558
43160SOL     OW36337   9.523   7.128   8.184  0.1224  0.0835  0.5560
43160SOL    HW136338   9.602   7.075   8.188 -1.3546 -2.2793  0.2630
43160SOL    HW236339   9.519   7.159   8.093  0.4319 -0.2418  0.4323
43161SOL     OW36340   9.255   4.854   8.305 -0.2151 -0.2810 -0.3493
43161SOL    HW136341   9.314   4.834   8.232 -2.1677 -3.9413 -1.2013
43161SOL    HW236342   9.219   4.940   8.284  1.0622 -0.1712 -2.4111
43162SOL     OW36343   6.996   5.934  10.816 -0.2903 -0.1765 -0.5124
43162SOL    HW136344   7.089   5.914  10.809 -0.1731  0.6412 -1.4447
43162SOL    HW236345   6.971   5.901  10.903  1.6353  2.6223  1.2568
43163SOL     OW36346   1.459   6.087  10.100  0.1403  0.1679 -0.1298
43163SOL    HW136347   1.515   6.065  10.175  0.6538  0.6999 -0.3545
43163SOL    HW236348   1.418   6.170  10.123  0.5229  0.4813 -0.5551
43164SOL     OW36349   2.394   4.498   2.899 -0.3672 -0.2976 -0.1116
43164SOL    HW136350   2.393   4.593   2.903  2.1740 -0.2411  0.6922
43164SOL    HW236351   2.474   4.477   2.851 -2.5973 -2.0572 -3.5105
43165SOL     OW36352  12.326   1.456   4.990 -0.5259 -0.1060  0.3654
43165SOL    HW136353  12.354   1.540   5.025 -2.3507  0.2054  1.1537
43165SOL    HW236354  12.270   1.478   4.915 -1.3239 -0.5925  0.8051
43166SOL     OW36355  12.210   7.879   6.455 -0.2819 -0.3323  0.1938
43166SOL    HW136356  12.296   7.856   6.489 -0.4049  1.9123  2.2685
43166SOL    HW236357  12.151   7.811   6.489  0.5275 -1.5569 -0.7663
43167SOL     OW36358   9.941   2.126   6.347 -0.0092 -0.1992  0.5027
43167SOL    HW136359   9.902   2.213   6.348 -1.3344 -0.7325 -0.8951
43167SOL    HW236360   9.904   2.081   6.422 -0.5679 -0.0616  0.3106
43168SOL     OW36361   7.621   7.699   5.289 -0.1042  0.0723 -0.0454
43168SOL    HW136362   7.542   7.691   5.236 -1.1009 -0.9099  1.4980
43168SOL    HW236363   7.667   7.775   5.253 -2.6618  1.8261  0.1245
43169SOL     OW36364  12.429   1.409   1.549  0.3628  0.2844 -0.8397
43169SOL    HW136365  12.522   1.432   1.551  0.3705  0.2235 -0.5272
43169SOL    HW236366  12.392   1.447   1.628  0.1377  0.2334 -0.9187
43170SOL     OW36367   3.527   0.706   9.264  0.2317 -0.3062 -0.2131
43170SOL    HW136368   3.440   0.737   9.239 -0.1598  0.2914  1.7226
43170SOL    HW236369   3.513   0.663   9.348  1.5306 -1.8812 -0.7441
43171SOL     OW36370   2.594   6.956  10.820  0.0377  0.0463 -0.2563
43171SOL    HW136371   2.634   6.892  10.879 -1.3773 -0.7063 -0.0524
43171SOL    HW236372   2.644   6.949  10.739  0.8729 -0.1971  0.2645
43172SOL     OW36373  11.631   5.534   5.319  0.5673  0.0870  0.3477
43172SOL    HW136374  11.580   5.577   5.251  1.7465 -0.2534 -0.7885
43172SOL    HW236375  11.565   5.495   5.377 -0.4778  1.6420  0.2691
43173SOL     OW36376   5.847   9.499   5.592 -0.5126 -1.2703 -0.1675
43173SOL    HW136377   5.840   9.410   5.627  0.2915 -1.3908 -0.2999
43173SOL    HW236378   5.911   9.543   5.648 -0.7719 -0.8229 -0.2112
43174SOL     OW36379   3.178   7.638   8.297  0.2473 -0.3479  0.2330
43174SOL    HW136380   3.186   7.688   8.215 -0.9212 -0.2545  0.1640
43174SOL    HW236381   3.133   7.557   8.272  1.3836 -1.0818  0.4962
43175SOL     OW36382   6.331   7.785  11.823  0.2983  0.3905 -0.0469
43175SOL    HW136383   6.376   7.851  11.876  1.7022 -0.1294 -0.5396
43175SOL    HW236384   6.351   7.809  11.732  1.7826 -1.2873 -0.2240
43176SOL     OW36385   1.226   4.096   3.257  0.1349  0.3396  0.3612
43176SOL    HW136386   1.305   4.077   3.208  0.7623  1.2175  0.9981
43176SOL    HW236387   1.158   4.108   3.191  0.5696 -0.2587 -0.1940
43177SOL     OW36388   7.418   7.739  10.087  0.3818 -0.2084  0.0561
43177SOL    HW136389   7.322   7.735  10.084  0.3329  0.0649  0.8918
43177SOL    HW236390   7.444   7.775  10.003 -0.2744  0.0449 -0.0415
43178SOL     OW36391   6.373   6.206   7.243 -0.6764  0.8647  0.0017
43178SOL    HW136392   6.381   6.300   7.260  1.8039  0.6955  0.1332
43178SOL    HW236393   6.344   6.169   7.326 -0.5341  1.3981  0.2982
43179SOL     OW36394   8.444   5.639   7.846 -0.0370 -0.1661  0.1887
43179SOL    HW136395   8.507   5.645   7.918 -1.2679  0.8446  1.2255
43179SOL    HW236396   8.378   5.576   7.877  0.1838 -0.8517 -0.6851
43180SOL     OW36397   5.902  10.588   3.633  0.7607  0.3042  0.0893
43180SOL    HW136398   5.834  10.654   3.646 -0.3657 -0.9349  0.6358
43180SOL    HW236399   5.912  10.585   3.537 -0.5595 -0.0784 -0.0622
43181SOL     OW36400  10.160   5.198   9.183 -1.0394  0.4035  0.3516
43181SOL    HW136401  10.158   5.209   9.088 -0.7370 -0.1589  0.2737
43181SOL    HW236402  10.231   5.135   9.199 -1.4131  0.1087  0.9076
43182SOL     OW36403   1.518   3.361   6.145 -0.3125 -0.1144  0.0486
43182SOL    HW136404   1.580   3.360   6.218 -0.0628 -0.0061 -0.1604
43182SOL    HW236405   1.478   3.447   6.148 -0.7117 -0.3070  0.3966
43183SOL     OW36406   0.975   5.808   3.604  0.4385 -0.6089  0.4974
43183SOL    HW136407   0.998   5.759   3.525  0.6488 -0.1680  0.2827
43183SOL    HW236408   1.005   5.897   3.587  0.5032 -0.5133  1.0840
43184SOL     OW36409   4.897   5.823  10.279  0.1591 -0.5703  0.4193
43184SOL    HW136410   4.906   5.796  10.188  1.8579  0.7427  0.1314
43184SOL    HW236411   4.921   5.746  10.330  0.3222 -0.9860 -0.2812
43185SOL     OW36412   8.631   6.844   6.403  0.0950  0.0513 -0.2012
43185SOL    HW136413   8.641   6.758   6.445  1.4697  0.8021  1.0755
43185SOL    HW236414   8.720   6.879   6.398 -0.3619  1.1247 -1.3586
43186SOL     OW36415   9.658   5.679   8.076  0.2868  0.0874 -0.4644
43186SOL    HW136416   9.612   5.620   8.016 -0.3318 -0.5834  0.6316
43186SOL    HW236417   9.747   5.644   8.079  0.3115  0.0997 -0.9499
43187SOL     OW36418   3.112   6.744  11.505 -0.6273  0.3731  0.0143
43187SOL    HW136419   3.160   6.743  11.422  0.3807 -1.5424  0.5330
43187SOL    HW236420   3.068   6.659  11.508  0.5484 -0.2452  2.0382
43188SOL     OW36421   8.281   8.637   8.632  0.4983 -0.0200 -0.4729
43188SOL    HW136422   8.303   8.703   8.567  0.2303 -0.9676 -1.5714
43188SOL    HW236423   8.248   8.686   8.707  0.2302  1.0828 -1.2875
43189SOL     OW36424   5.152   0.279   2.998  0.0449 -0.1577 -0.1875
43189SOL    HW136425   5.106   0.227   2.931 -2.5800  0.4107  1.0411
43189SOL    HW236426   5.122   0.242   3.081  0.7321  1.1911  0.6888
43190SOL     OW36427   1.765   5.871   2.326 -0.2392  0.0914  0.4506
43190SOL    HW136428   1.679   5.828   2.327  0.2885 -1.0432 -0.2710
43190SOL    HW236429   1.759   5.934   2.254 -0.0309 -1.0157 -0.5801
43191SOL     OW36430   6.242   0.486   4.725 -0.1316 -0.2702  0.6880
43191SOL    HW136431   6.292   0.405   4.722  0.1761 -0.1637  2.3259
43191SOL    HW236432   6.241   0.511   4.817 -0.7013  1.2928  0.2913
43192SOL     OW36433   9.565   5.041   1.666  0.0470 -0.4263 -0.0677
43192SOL    HW136434   9.609   5.122   1.692 -1.2925  0.5211 -0.6403
43192SOL    HW236435   9.618   5.008   1.594  0.1743  0.3691 -0.3575
43193SOL     OW36436   1.606   3.001   2.600  0.1121  0.6046  0.4711
43193SOL    HW136437   1.536   3.045   2.648  0.2406  0.0212  1.2072
43193SOL    HW236438   1.676   2.989   2.664  0.4138  0.1111  0.0596
43194SOL     OW36439   9.774   3.964   0.664  0.0136  0.7269 -0.3056
43194SOL    HW136440   9.798   3.952   0.756 -1.7475 -1.4174 -0.0545
43194SOL    HW236441   9.690   4.009   0.667 -0.4627 -0.1158 -0.8334
43195SOL     OW36442   3.976   6.072   2.217  0.5052  0.0894 -0.1974
43195SOL    HW136443   4.011   6.051   2.304 -0.3655 -0.8595 -0.0493
43195SOL    HW236444   3.925   6.151   2.231  0.8710  0.2915  0.0236
43196SOL     OW36445  12.225   6.267   7.225 -0.5224 -0.0799 -0.2523
43196SOL    HW136446  12.233   6.357   7.256 -0.7615 -0.2508  0.3088
43196SOL    HW236447  12.225   6.214   7.305 -1.5631 -0.4972 -0.5184
43197SOL     OW36448  11.977   9.648  11.867 -0.4643  0.1718  0.6876
43197SOL    HW136449  11.893   9.607  11.887  0.0809 -0.2433  2.2655
43197SOL    HW236450  11.970   9.736  11.904 -0.1319  0.0601  1.0198
43198SOL     OW36451   8.172   3.027   2.873  0.3483  0.0396 -0.3188
43198SOL    HW136452   8.158   3.010   2.780  0.0059  0.4602 -0.3489
43198SOL    HW236453   8.095   2.990   2.917  1.2006 -1.4913 -0.0380
43199SOL     OW36454   8.892   6.419   4.208 -0.0876  0.4282 -0.1467
43199SOL    HW136455   8.930   6.466   4.135  0.0484  0.8293  0.1793
43199SOL    HW236456   8.845   6.486   4.259 -0.4053  0.1111 -0.0124
43200SOL     OW36457   1.028   7.286   3.693 -0.1342 -0.3201 -0.2414
43200SOL    HW136458   1.016   7.304   3.786  1.4231  0.7468 -0.2187
43200SOL    HW236459   0.991   7.362   3.648  1.4701  0.4211 -0.3657
43201SOL     OW36460   0.240   2.911   6.312 -0.3533 -0.1996 -0.1730
43201SOL    HW136461   0.234   2.820   6.340  1.5828  0.1751  1.8296
43201SOL    HW236462   0.153   2.947   6.328 -1.1059 -1.6414 -0.8492
43202SOL     OW36463   8.557   4.297   6.597 -0.4117  0.4765 -0.0729
43202SOL    HW136464   8.499   4.303   6.521  1.0397 -0.0809 -1.2800
43202SOL    HW236465   8.549   4.382   6.640  0.3027  1.6192 -2.0752
43203SOL     OW36466  12.021   2.903   8.757 -0.3456 -0.1256 -0.1419
43203SOL    HW136467  12.050   2.912   8.848  0.8982  2.0777 -0.6724
43203SOL    HW236468  11.926   2.892   8.763 -0.5656  1.9227  1.4154
43204SOL     OW36469   5.115   0.525   6.693  0.5960 -0.0881 -0.3226
43204SOL    HW136470   5.106   0.559   6.782 -0.3055 -1.7615  0.2489
43204SOL    HW236471   5.053   0.453   6.687 -0.5766  0.9691 -2.8443
43205SOL     OW36472   1.337   6.166   2.044 -0.2163  0.6399 -0.4555
43205SOL    HW136473   1.334   6.072   2.063 -0.0602  0.6842 -0.2121
43205SOL    HW236474   1.315   6.208   2.127 -2.7239  0.7970 -1.0941
43206SOL     OW36475   1.606   6.731   9.101  0.4882 -0.4201 -0.2578
43206SOL    HW136476   1.524   6.681   9.105  0.2376  0.0513  1.3136
43206SOL    HW236477   1.585   6.814   9.142  1.2259  0.5468 -1.7580
43207SOL     OW36478   2.741   3.609   5.303  0.2704  0.2967  0.2273
43207SOL    HW136479   2.767   3.519   5.284 -0.4069  0.2038 -0.3069
43207SOL    HW236480   2.786   3.630   5.384  1.9236  0.1176 -0.5892
43208SOL     OW36481   2.230   1.348   6.780 -0.6730  0.2791 -0.6279
43208SOL    HW136482   2.262   1.405   6.850 -2.7677 -0.0591  0.6765
43208SOL    HW236483   2.219   1.405   6.705 -0.2263  1.0535 -0.1165
43209SOL     OW36484   0.599   9.801   1.693 -0.5926  0.3012  0.3842
43209SOL    HW136485   0.518   9.813   1.742 -0.4346 -3.8957  2.0797
43209SOL    HW236486   0.571   9.765   1.609 -0.5543 -0.4900  0.7027
43210SOL     OW36487   2.265  10.245   1.115 -0.3022  0.1023  0.4252
43210SOL    HW136488   2.327  10.206   1.177  0.8158 -0.5048 -1.0131
43210SOL    HW236489   2.215  10.308   1.167 -1.0237 -2.0123  2.4687
43211SOL     OW36490  12.572   0.091   9.658  0.0116  0.0503 -0.5111
43211SOL    HW136491  12.664   0.065   9.651 -0.3286 -1.2166 -0.6084
43211SOL    HW236492  12.566   0.133   9.744  0.1641 -2.3498  0.7710
43212SOL     OW36493   9.350   8.549   9.373 -0.5563 -0.5585  0.2447
43212SOL    HW136494   9.414   8.600   9.422 -1.8140 -0.5041  1.9137
43212SOL    HW236495   9.266   8.591   9.392 -1.3705 -1.9908 -0.0320
43213SOL     OW36496   7.451   0.082   3.067 -0.4387 -0.4883  0.0984
43213SOL    HW136497   7.390   0.121   3.130 -0.0362  1.3875 -0.6210
43213SOL    HW236498   7.397   0.063   2.990 -0.5970 -1.2184  0.3804
43214SOL     OW36499   2.670   3.695   7.018 -0.4338  0.2044  0.0866
43214SOL    HW136500   2.615   3.623   7.051 -1.9398  1.2067 -0.1103
43214SOL    HW236501   2.645   3.769   7.073 -0.5606  1.1050 -1.1580
43215SOL     OW36502   5.485   7.918  10.361 -0.2990 -0.5751  0.4569
43215SOL    HW136503   5.397   7.951  10.343 -0.3686 -0.7956  0.3808
43215SOL    HW236504   5.486   7.830  10.322 -0.4761 -1.0979  1.5828
43216SOL     OW36505   8.594  12.020   5.813  0.3808  0.0357 -0.2777
43216SOL    HW136506   8.650  12.019   5.891  0.1802  1.6109 -0.0896
43216SOL    HW236507   8.529  12.087   5.831 -0.3411 -0.3543 -1.3561
43217SOL     OW36508   6.628   7.359   3.650  0.4608  0.3350 -0.2204
43217SOL    HW136509   6.687   7.368   3.724 -0.3478 -1.8307  0.7863
43217SOL    HW236510   6.545   7.331   3.688 -0.8954  2.1084 -1.6994
43218SOL     OW36511   0.604   3.740   9.042  0.7140 -0.0726 -0.3498
43218SOL    HW136512   0.569   3.653   9.020  0.2313  0.3117 -1.1393
43218SOL    HW236513   0.675   3.722   9.104 -0.2983 -0.9281  0.6121
43219SOL     OW36514  11.860  11.073  12.226 -0.0072  0.5516  0.4204
43219SOL    HW136515  11.781  11.037  12.266  0.2339  2.2098  2.5698
43219SOL    HW236516  11.829  11.147  12.174  0.0426  0.7391  0.6552
43220SOL     OW36517   4.997   1.766   9.209  0.3777  0.1459 -0.0829
43220SOL    HW136518   5.005   1.783   9.303  0.5320 -2.1707  0.3761
43220SOL    HW236519   5.035   1.844   9.168 -0.2639  1.5065  1.7281
43221SOL     OW36520   3.427  10.464   6.216  0.0956  0.0059 -0.1613
43221SOL    HW136521   3.343  10.425   6.239  0.1382  0.6973  1.3104
43221SOL    HW236522   3.469  10.400   6.159 -0.3715 -1.5008  1.1290
43222SOL     OW36523   8.144   6.972   0.202 -0.5092 -0.0804 -0.1303
43222SOL    HW136524   8.114   6.963   0.293  0.8405  0.3684  0.4015
43222SOL    HW236525   8.220   6.914   0.197 -1.7228 -1.6388 -1.5862
43223SOL     OW36526   3.514   9.399   4.949  0.6023 -0.5867  0.4573
43223SOL    HW136527   3.555   9.478   4.984  1.2313 -1.0797  0.8522
43223SOL    HW236528   3.576   9.367   4.883 -0.7354  0.5364 -1.4439
43224SOL     OW36529   8.487   1.323   8.902 -0.4227 -0.8956  0.4774
43224SOL    HW136530   8.504   1.417   8.901 -1.1486 -0.7524 -0.4534
43224SOL    HW236531   8.397   1.315   8.869  0.2594 -2.0271 -1.2462
43225SOL     OW36532   4.923  10.214   1.993  0.0134 -0.3521  0.5435
43225SOL    HW136533   4.976  10.293   1.977  1.8363 -1.0753  2.5404
43225SOL    HW236534   4.848  10.224   1.935  2.7241  0.3198 -3.2214
43226SOL     OW36535   5.429   5.451  11.746  0.4981  0.2554 -0.1273
43226SOL    HW136536   5.375   5.503  11.806 -0.6388 -0.1567 -0.7692
43226SOL    HW236537   5.366   5.395  11.700  1.4887 -0.2691 -0.8639
43227SOL     OW36538   4.852   0.961   2.337 -0.1113  0.3842 -0.0347
43227SOL    HW136539   4.927   1.020   2.343  0.4979 -0.4757  1.4034
43227SOL    HW236540   4.813   0.962   2.424 -1.3331  0.2287 -0.5550
43228SOL     OW36541   4.626   3.075   4.699 -0.1038  0.0909  0.0380
43228SOL    HW136542   4.595   3.122   4.621 -0.0095  0.0182 -0.0430
43228SOL    HW236543   4.719   3.096   4.704 -0.3720  1.1476  0.8732
43229SOL     OW36544   9.634   1.453   3.010  0.2415 -0.0858  0.4966
43229SOL    HW136545   9.724   1.421   3.020  0.3407 -1.4875 -3.2067
43229SOL    HW236546   9.579   1.377   3.030  0.2528 -1.1267 -2.8508
43230SOL     OW36547   3.372  10.325   2.678  1.1638 -0.3270 -0.0453
43230SOL    HW136548   3.330  10.261   2.621 -3.8693  1.8603  0.6001
43230SOL    HW236549   3.409  10.390   2.618  0.2985 -0.5018 -0.7841
43231SOL     OW36550   5.636   9.934  11.399  0.1914 -0.3476 -0.1194
43231SOL    HW136551   5.616  10.026  11.415  0.5040 -0.0101 -1.4845
43231SOL    HW236552   5.553   9.888  11.413 -0.3223  0.3422 -0.8188
43232SOL     OW36553   5.540   1.834   8.311  0.5335 -0.2384  0.5657
43232SOL    HW136554   5.509   1.850   8.400  1.2221  0.1056  0.7503
43232SOL    HW236555   5.586   1.750   8.316  0.9069 -0.0321  0.6233
43233SOL     OW36556   0.616  12.111   0.162  0.0664 -0.1961  0.1960
43233SOL    HW136557   0.553  12.050   0.200  0.0333 -0.2228  0.0983
43233SOL    HW236558   0.655  12.155   0.237 -0.3686  0.1179  0.2422
43234SOL     OW36559   6.822   4.795   1.268  0.3578 -0.5055 -0.6857
43234SOL    HW136560   6.777   4.875   1.241  1.5677  0.5977  0.3792
43234SOL    HW236561   6.814   4.736   1.193 -1.3509  0.2671 -1.1507
43235SOL     OW36562   7.216   4.251   1.297  0.2198 -0.2573 -0.3835
43235SOL    HW136563   7.183   4.229   1.210 -1.0656 -1.9874  0.4780
43235SOL    HW236564   7.144   4.301   1.337  0.6037  0.0957 -0.1312
43236SOL     OW36565   4.458   2.179   4.956  0.3979  0.1480  0.4948
43236SOL    HW136566   4.446   2.128   5.035  1.7991 -0.6861  0.2133
43236SOL    HW236567   4.530   2.136   4.910 -0.7943  0.1995 -1.5742
43237SOL     OW36568   3.707   6.264   3.659 -0.2943  0.1308 -0.6877
43237SOL    HW136569   3.643   6.220   3.717 -0.5002  0.0134 -0.9978
43237SOL    HW236570   3.783   6.206   3.660  0.3607  0.9825  0.8028
43238SOL     OW36571   5.736   9.371   5.923  0.2631 -0.1657 -0.1122
43238SOL    HW136572   5.818   9.349   5.879 -0.4536 -1.7124 -0.7700
43238SOL    HW236573   5.751   9.457   5.962  1.9026 -0.0509 -0.9276
43239SOL     OW36574  11.823   4.810   9.848 -0.2945 -0.0650  0.1105
43239SOL    HW136575  11.765   4.870   9.802  0.5644  1.9866  1.5442
43239SOL    HW236576  11.773   4.780   9.924 -0.3604 -0.3418 -0.0412
43240SOL     OW36577   3.231   9.788   1.613 -0.3125  0.1224 -0.1501
43240SOL    HW136578   3.200   9.863   1.664  2.2394  1.1371  0.0395
43240SOL    HW236579   3.320   9.774   1.643  0.3198 -1.0518 -2.3705
43241SOL     OW36580   9.556   0.639   1.665 -0.4975  0.1941 -0.6052
43241SOL    HW136581   9.546   0.553   1.706  1.3585  0.3855  0.3717
43241SOL    HW236582   9.585   0.696   1.737  0.5503  1.1013 -1.7044
43242SOL     OW36583  12.094   3.094   1.595  0.0834  0.2372 -0.0316
43242SOL    HW136584  12.089   3.035   1.671  0.6658  0.7884  0.4440
43242SOL    HW236585  12.003   3.111   1.572 -0.1054  0.3774  0.7944
43243SOL     OW36586   5.233   6.940   4.621  0.5998 -0.3950  0.1967
43243SOL    HW136587   5.234   6.997   4.697 -1.3282  0.3648 -0.2761
43243SOL    HW236588   5.245   6.852   4.656  0.4553  0.0160  1.3004
43244SOL     OW36589   7.687   7.240   9.117  0.4732  0.1085  0.0613
43244SOL    HW136590   7.717   7.224   9.028  0.1704  0.6290 -0.1361
43244SOL    HW236591   7.663   7.333   9.118  0.4950  0.1111  0.6886
43245SOL     OW36592   3.117   9.300  11.613  0.3353  0.5074  0.7163
43245SOL    HW136593   3.056   9.365  11.580 -2.1016 -1.4445  1.1412
43245SOL    HW236594   3.181   9.289  11.542 -1.2284  0.8503 -0.8197
43246SOL     OW36595   9.269   7.248   3.223  0.0403  0.2866 -0.4704
43246SOL    HW136596   9.334   7.181   3.246  1.4706  1.7599 -0.0619
43246SOL    HW236597   9.282   7.264   3.130  0.8507  1.1545 -0.2222
43247SOL     OW36598  12.254   3.067  10.551  0.3727  0.3466  0.6219
43247SOL    HW136599  12.298   3.152  10.556  1.0946 -0.0092  0.3230
43247SOL    HW236600  12.165   3.085  10.581  0.4656  1.2491  0.3784
43248SOL     OW36601   2.645   0.845   4.658  0.7013  0.5122 -0.1577
43248SOL    HW136602   2.588   0.798   4.720  0.8823  0.2755 -0.1685
43248SOL    HW236603   2.733   0.809   4.675  0.7104  0.2419 -0.7437
43249SOL     OW36604   4.268   1.985   8.121 -0.2607 -0.8210 -0.2779
43249SOL    HW136605   4.205   1.918   8.095  0.8357 -1.9047 -0.2059
43249SOL    HW236606   4.339   1.937   8.163 -0.5539  0.6020  1.9872
43250SOL     OW36607   5.175  10.540   1.673 -0.0332  0.7846 -0.2650
43250SOL    HW136608   5.228  10.467   1.641 -0.8852  0.7252 -1.6240
43250SOL    HW236609   5.236  10.613   1.680  1.1971 -0.3832  2.6573
43251SOL     OW36610  10.271   1.226   1.000  0.0934  0.0958 -0.1454
43251SOL    HW136611  10.283   1.132   1.016  0.5527 -0.0087 -0.9820
43251SOL    HW236612  10.255   1.232   0.905 -1.5057  0.7306  0.1360
43252SOL     OW36613   6.549   5.425   4.523 -0.6315 -0.0188 -0.4116
43252SOL    HW136614   6.459   5.459   4.526 -0.7225 -0.2724 -0.2447
43252SOL    HW236615   6.539   5.330   4.529 -0.2877  0.0117  0.7784
43253SOL     OW36616   6.240   3.719   8.351 -0.5123 -0.0536  0.4519
43253SOL    HW136617   6.249   3.762   8.436  0.7215  0.0984  0.2660
43253SOL    HW236618   6.232   3.626   8.372  0.0482 -0.0446  0.7363
43254SOL     OW36619   1.040   8.286   7.494  0.3339 -0.5153 -0.6626
43254SOL    HW136620   1.042   8.222   7.566  1.7519 -1.2136 -1.3018
43254SOL    HW236621   1.041   8.371   7.538  2.2627 -0.9199  0.1779
43255SOL     OW36622   3.420   7.978  11.241  0.1069 -0.0947 -0.3476
43255SOL    HW136623   3.362   8.046  11.206 -1.5497 -1.1996  0.1114
43255SOL    HW236624   3.390   7.897  11.199  0.6772 -0.8441  0.6491
43256SOL     OW36625   6.339   8.938   5.659  0.2725 -0.5640  0.0598
43256SOL    HW136626   6.430   8.947   5.687  0.7329 -0.9336 -1.2489
43256SOL    HW236627   6.290   8.989   5.723  1.7331  2.6463 -1.1287
43257SOL     OW36628   1.577   1.627   0.868  0.1866  0.1183 -1.0218
43257SOL    HW136629   1.600   1.669   0.785  1.0221 -0.8029 -1.2690
43257SOL    HW236630   1.586   1.697   0.933  0.8373  0.5102 -1.5187
43258SOL     OW36631   3.824   3.165   5.469 -0.2430  0.1598  0.0724
43258SOL    HW136632   3.774   3.095   5.428 -1.3153  1.6339 -1.2567
43258SOL    HW236633   3.772   3.191   5.545  0.0321 -0.3136  0.4245
43259SOL     OW36634   8.840  11.364   6.884  0.1469  0.1389  0.5777
43259SOL    HW136635   8.839  11.456   6.911 -0.9771  0.3817 -0.2154
43259SOL    HW236636   8.907  11.323   6.939  0.7554  1.4532  0.8535
43260SOL     OW36637   2.983   6.896   0.581 -0.6259 -0.7120  0.0223
43260SOL    HW136638   3.022   6.974   0.541  0.0919 -0.8030  0.5078
43260SOL    HW236639   2.890   6.901   0.559 -0.6559  0.4574  0.3271
43261SOL     OW36640   6.098   2.789   6.412 -0.1112 -0.2360 -0.2489
43261SOL    HW136641   6.155   2.856   6.376 -0.0182 -0.0825  0.1755
43261SOL    HW236642   6.036   2.769   6.342 -1.1477  1.4318  0.1516
43262SOL     OW36643   0.135   5.302  10.481  0.1466 -0.1791  0.1077
43262SOL    HW136644   0.040   5.294  10.483  0.0967  0.0058 -0.8834
43262SOL    HW236645   0.158   5.296  10.388  1.3193 -2.4691  0.4710
43263SOL     OW36646   2.896   6.681   3.036  0.4420 -0.7333  0.0863
43263SOL    HW136647   2.849   6.738   3.096  2.0799  0.8707 -0.0918
43263SOL    HW236648   2.829   6.622   3.002 -0.8777 -0.4123  1.9818
43264SOL     OW36649   6.825  12.052   0.130 -0.2153  0.5845  0.2319
43264SOL    HW136650   6.771  12.085   0.058 -2.1014  0.4056  1.4897
43264SOL    HW236651   6.909  12.032   0.090 -1.3866 -0.0833 -2.0537
43265SOL     OW36652   0.767   1.019   0.787 -0.7521 -0.1778 -0.6923
43265SOL    HW136653   0.801   1.099   0.826  2.0358 -1.1412 -0.9401
43265SOL    HW236654   0.730   1.047   0.703  0.7822  0.8050 -1.0833
43266SOL     OW36655   1.346   3.834   3.430  0.1084  0.1446  0.0126
43266SOL    HW136656   1.438   3.812   3.444  0.0027 -0.1297  0.2976
43266SOL    HW236657   1.329   3.812   3.339 -0.0729 -1.2626  0.3663
43267SOL     OW36658   7.782   9.247  11.930  0.1228 -0.6325  1.1705
43267SOL    HW136659   7.799   9.285  12.016 -0.4777  0.6061  0.7627
43267SOL    HW236660   7.727   9.311  11.885  0.3864 -1.2733 -0.1340
43268SOL     OW36661   6.925   7.879   9.471 -0.8193 -0.4030 -0.1852
43268SOL    HW136662   6.928   7.974   9.482 -1.4478 -0.3372 -0.5536
43268SOL    HW236663   6.836   7.855   9.496 -0.2095 -1.1106  1.5051
43269SOL     OW36664   3.929   8.113   4.013  0.2525 -0.0998  0.0139
43269SOL    HW136665   4.011   8.137   4.056 -1.7943  1.1601  3.5448
43269SOL    HW236666   3.927   8.018   4.017  2.1983 -0.3115 -1.7243
43270SOL     OW36667   6.904   0.558  10.468 -0.1767 -0.1181  0.9373
43270SOL    HW136668   6.913   0.483  10.528  0.0002  0.1369  1.2335
43270SOL    HW236669   6.811   0.580  10.470 -0.5280 -1.3001 -0.3414
43271SOL     OW36670   4.541   9.409   1.431  0.3216 -1.0759 -0.0343
43271SOL    HW136671   4.501   9.387   1.515  1.1582 -1.1033  0.3741
43271SOL    HW236672   4.471   9.449   1.380 -0.8987 -3.2975 -0.2582
43272SOL     OW36673   2.705  11.795   2.635 -0.6009 -0.3465  0.0295
43272SOL    HW136674   2.659  11.780   2.718 -1.8639  1.4973 -0.2557
43272SOL    HW236675   2.758  11.873   2.652  0.0661 -0.6740 -0.5464
43273SOL     OW36676   7.568   2.285   3.451 -0.1841 -0.1178 -0.0388
43273SOL    HW136677   7.613   2.203   3.428  1.6808  0.9720 -0.5258
43273SOL    HW236678   7.629   2.354   3.423 -1.2473  1.4316  1.2911
43274SOL     OW36679   3.370   6.939   3.006  0.0591 -0.5630 -0.2133
43274SOL    HW136680   3.375   7.034   3.012  1.1381 -0.6586  0.6722
43274SOL    HW236681   3.283   6.918   3.042 -0.2859  0.0857 -0.6378
43275SOL     OW36682   7.805   5.764  11.498  0.0031 -0.4111 -0.1276
43275SOL    HW136683   7.844   5.679  11.519  1.2889  0.1453 -0.2193
43275SOL    HW236684   7.759   5.749  11.415 -2.1621 -1.7120  1.1686
43276SOL     OW36685  11.734   5.142  12.574  0.1766 -0.3876  0.0019
43276SOL    HW136686  11.653   5.188  12.549 -2.0866 -2.6980  2.4654
43276SOL    HW236687  11.732   5.061  12.523  2.5112  0.6618 -1.9729
43277SOL     OW36688   0.043   4.552   4.758  0.5362  0.0233 -0.1075
43277SOL    HW136689   0.126   4.550   4.711  1.3868 -0.5918  1.3661
43277SOL    HW236690   0.028   4.461   4.784 -0.8391  0.0417 -0.7248
43278SOL     OW36691   8.591   5.632   3.068  0.2663 -0.6002 -0.0845
43278SOL    HW136692   8.523   5.612   3.133  0.5007  0.3105  0.4676
43278SOL    HW236693   8.665   5.665   3.121  0.5818 -0.1655 -0.7861
43279SOL     OW36694   9.838   5.631   4.809 -0.1462  0.2983  0.8308
43279SOL    HW136695   9.845   5.544   4.769 -0.0007  0.3268  0.7928
43279SOL    HW236696   9.922   5.645   4.852  0.7588  1.4020 -1.1782
43280SOL     OW36697   4.741   9.724   9.792 -0.2953  0.3696 -0.3467
43280SOL    HW136698   4.685   9.738   9.869 -0.2064  1.3735 -0.4416
43280SOL    HW236699   4.705   9.647   9.749  0.1430 -0.7169  1.1306
43281SOL     OW36700   3.991  10.481   8.948  0.3447  0.0139  0.5652
43281SOL    HW136701   4.008  10.467   9.041  0.6781  0.1680  0.5271
43281SOL    HW236702   4.017  10.400   8.905 -0.8742 -0.4842  0.7338
43282SOL     OW36703   4.684   9.409   4.156 -0.9648  0.7249  0.3154
43282SOL    HW136704   4.717   9.496   4.179 -0.9722  0.6757  0.5122
43282SOL    HW236705   4.725   9.350   4.220  0.6537  0.3022 -1.0067
43283SOL     OW36706  11.332   3.401   1.891 -1.4084  0.3194  0.1246
43283SOL    HW136707  11.237   3.399   1.892 -1.4111 -0.2002 -0.2828
43283SOL    HW236708  11.356   3.358   1.809 -0.8462  1.8461 -0.5381
43284SOL     OW36709   7.121   8.142   5.250 -0.4899  0.2680  0.1733
43284SOL    HW136710   7.125   8.118   5.157  1.4454  1.8529 -0.2384
43284SOL    HW236711   7.120   8.238   5.249  0.1006  0.3151  1.7984
43285SOL     OW36712   2.774   3.580   9.472 -0.0150 -0.2828 -0.2069
43285SOL    HW136713   2.688   3.619   9.455 -0.3832 -0.8709  0.2378
43285SOL    HW236714   2.834   3.628   9.415 -0.9772 -1.2863 -2.1644
43286SOL     OW36715   9.488  10.916   7.923  0.2329  0.1406 -0.2375
43286SOL    HW136716   9.563  10.881   7.971  0.4870  1.5862  0.4471
43286SOL    HW236717   9.426  10.842   7.920  0.7287 -0.3798  1.2052
43287SOL     OW36718   5.260   9.508   4.578 -0.1798  0.0886  0.3272
43287SOL    HW136719   5.254   9.597   4.613  1.0738  0.0676  0.6428
43287SOL    HW236720   5.316   9.461   4.640 -2.7084 -1.6247  1.5020
43288SOL     OW36721   9.920   2.705   1.388  0.0574 -1.0715 -0.0710
43288SOL    HW136722   9.855   2.638   1.365 -0.3524 -0.8083  0.2964
43288SOL    HW236723   9.869   2.774   1.431  0.2870  0.0320 -1.5036
43289SOL     OW36724   3.442   0.821   1.444  0.1694 -0.1406 -0.0719
43289SOL    HW136725   3.377   0.853   1.381 -0.3846  1.8708  1.4136
43289SOL    HW236726   3.400   0.745   1.484 -0.0939 -0.5321 -1.0430
43290SOL     OW36727   2.347  10.590  12.319 -0.0899 -0.1695 -0.4047
43290SOL    HW136728   2.352  10.574  12.414 -0.3306  0.4137 -0.2916
43290SOL    HW236729   2.263  10.633  12.306  0.1792  0.2547 -0.8062
43291SOL     OW36730  11.241   9.630   0.871 -0.0228  0.3205 -0.0497
43291SOL    HW136731  11.187   9.666   0.941  2.2206  1.4374  1.2073
43291SOL    HW236732  11.244   9.536   0.888 -0.8620  0.3595  0.3436
43292SOL     OW36733   9.788  10.769   1.314  0.3893  0.1706 -0.2741
43292SOL    HW136734   9.830  10.855   1.321  0.9439 -0.0851 -0.4082
43292SOL    HW236735   9.805  10.727   1.398  1.2088 -0.2881 -0.6577
43293SOL     OW36736   4.719   9.180   9.743  0.3002 -0.0241  0.3542
43293SOL    HW136737   4.774   9.173   9.665  0.3854 -0.0410  0.4151
43293SOL    HW236738   4.779   9.210   9.812  0.4798 -1.1378  0.7003
43294SOL     OW36739   1.694   3.294   7.671  0.0127  0.4002 -0.1615
43294SOL    HW136740   1.711   3.386   7.652  0.1731  0.1924 -1.0326
43294SOL    HW236741   1.604   3.280   7.644  0.1269  0.1900 -0.4261
43295SOL     OW36742  11.382   7.439   5.701  0.1828  0.6200 -0.5641
43295SOL    HW136743  11.394   7.534   5.696  0.1008  0.6442 -0.2914
43295SOL    HW236744  11.325   7.419   5.627  0.9627  0.6569 -1.1851
43296SOL     OW36745   5.320  10.769   1.626 -0.2807 -0.1908 -0.5443
43296SOL    HW136746   5.404  10.786   1.668 -1.3993  0.6621  1.4823
43296SOL    HW236747   5.271  10.850   1.637 -2.3338 -1.5254  0.7506
43297SOL     OW36748   5.912   1.169   1.944  0.1693 -0.6945 -0.0401
43297SOL    HW136749   5.951   1.146   2.028 -1.9292  0.0409  1.2141
43297SOL    HW236750   5.817   1.167   1.960 -0.2541  0.9608 -1.9609
43298SOL     OW36751   5.741   2.372   0.598 -0.1246 -0.1875  0.3162
43298SOL    HW136752   5.719   2.390   0.506  0.7402  1.2169  0.3496
43298SOL    HW236753   5.738   2.458   0.640  0.1732 -0.7228  1.4525
43299SOL     OW36754   6.402   8.757   7.400  0.1089 -0.0716 -0.1317
43299SOL    HW136755   6.470   8.712   7.351  1.4611  1.2527  0.4547
43299SOL    HW236756   6.437   8.766   7.488 -1.0641  0.1754  0.3388
43300SOL     OW36757   4.618   6.815   0.268  0.0509 -0.2654 -0.2683
43300SOL    HW136758   4.689   6.849   0.214  0.7670  0.1354  0.8814
43300SOL    HW236759   4.552   6.884   0.268 -0.7264 -0.9476 -1.9675
43301SOL     OW36760   6.246   6.876   2.604  0.2825 -0.4453  0.2946
43301SOL    HW136761   6.325   6.916   2.638 -0.2515 -0.6186  1.7862
43301SOL    HW236762   6.261   6.782   2.613 -0.9306 -0.4657  2.6674
43302SOL     OW36763   7.581   6.976   1.027  0.2224  0.3196  0.2309
43302SOL    HW136764   7.644   7.048   1.025  0.6581  0.1921  3.4771
43302SOL    HW236765   7.498   7.017   1.053 -0.1823 -0.0104 -0.5084
43303SOL     OW36766   6.554   3.470   2.579  0.5418 -0.0246 -0.2820
43303SOL    HW136767   6.521   3.389   2.542  1.8011 -0.9697  0.6103
43303SOL    HW236768   6.645   3.452   2.602  0.0647  0.6725  2.6053
43304SOL     OW36769   7.242   2.492  12.285  0.2256 -0.2223 -0.3399
43304SOL    HW136770   7.188   2.564  12.318 -0.5004 -0.9610  0.1143
43304SOL    HW236771   7.306   2.476  12.354  0.6579  0.2545 -0.6209
43305SOL     OW36772   2.751   3.930   0.378 -0.2353 -0.2086 -0.9001
43305SOL    HW136773   2.826   3.970   0.335 -1.4317  0.4352 -2.4849
43305SOL    HW236774   2.706   3.882   0.309 -0.2564 -2.2386  0.4215
43306SOL     OW36775   9.896   1.760   1.994 -0.1284 -0.3056  0.2105
43306SOL    HW136776   9.945   1.695   1.945  1.6565  0.4111  0.9631
43306SOL    HW236777   9.893   1.836   1.937 -0.6407 -0.4343  0.0562
43307SOL     OW36778   2.851   3.736   8.508  0.0408  0.0433 -0.0260
43307SOL    HW136779   2.761   3.741   8.541  0.1760  0.3805  0.2934
43307SOL    HW236780   2.905   3.719   8.585  0.0114 -2.7837 -0.5464
43308SOL     OW36781   4.303   7.068   9.673  0.0323  0.0912 -0.4403
43308SOL    HW136782   4.379   7.126   9.677 -0.0318  0.1639 -0.2569
43308SOL    HW236783   4.228   7.126   9.686  0.0683 -0.2948  1.8507
43309SOL     OW36784   5.576   6.130   5.332  0.1643 -0.4976  0.0578
43309SOL    HW136785   5.533   6.153   5.414  0.4011  0.6263 -0.1187
43309SOL    HW236786   5.662   6.097   5.358  1.1625  2.0170  0.1989
43310SOL     OW36787   0.594   6.607   8.135 -0.0330  0.4842  0.2548
43310SOL    HW136788   0.505   6.608   8.099 -0.5965 -1.4582  1.4260
43310SOL    HW236789   0.581   6.609   8.230  1.1083 -0.7891  0.4653
43311SOL     OW36790   5.694   8.191   5.818 -0.0172  0.0647  0.2788
43311SOL    HW136791   5.616   8.244   5.804 -0.3046 -0.5256 -0.3871
43311SOL    HW236792   5.767   8.249   5.795 -0.2963  0.3737  0.1748
43312SOL     OW36793   6.491   9.268   8.737 -0.3125  0.2825  0.0147
43312SOL    HW136794   6.488   9.179   8.770 -1.1926  0.0895 -0.5475
43312SOL    HW236795   6.403   9.303   8.755 -0.3734  0.6137 -0.8785
43313SOL     OW36796   3.748  10.019   9.882  0.2426  0.6105  0.5048
43313SOL    HW136797   3.774  10.107   9.909 -0.4583 -0.0242  3.5388
43313SOL    HW236798   3.733   9.972   9.964 -1.9118 -1.6092 -1.0369
43314SOL     OW36799  10.730   9.492   7.834 -0.3975 -0.0489 -0.3950
43314SOL    HW136800  10.755   9.566   7.890 -1.2567 -0.5026  0.6111
43314SOL    HW236801  10.803   9.431   7.841 -0.7980 -0.4114  0.8068
43315SOL     OW36802   9.074   4.347   3.268 -0.2193  0.6804 -0.2901
43315SOL    HW136803   9.033   4.433   3.274  0.7460  1.1895 -0.7843
43315SOL    HW236804   9.088   4.320   3.359  0.2896  1.4535 -0.1320
43316SOL     OW36805   1.962   0.595   8.282 -0.0767 -0.1086 -0.4640
43316SOL    HW136806   1.968   0.627   8.372  0.6828 -0.0791 -0.5162
43316SOL    HW236807   1.965   0.500   8.290  1.4453 -0.0951 -0.5263
43317SOL     OW36808   8.432   1.369   1.308 -0.1775 -0.7003 -0.3959
43317SOL    HW136809   8.490   1.308   1.263  2.2338  0.7458  0.5735
43317SOL    HW236810   8.469   1.377   1.396 -1.0103  1.3563 -0.1728
43318SOL     OW36811   6.762   9.682  11.395 -0.3767 -0.7539  0.6789
43318SOL    HW136812   6.844   9.659  11.441  0.6242  0.1320 -0.6030
43318SOL    HW236813   6.757   9.619  11.324  0.6693  0.8356 -0.8837
43319SOL     OW36814  11.960   5.021   2.828 -0.2114  0.1650 -0.3022
43319SOL    HW136815  11.950   4.927   2.816 -1.4515  0.2679 -0.1729
43319SOL    HW236816  12.023   5.029   2.901  1.4420 -0.5082 -1.5939
43320SOL     OW36817   6.401  11.763  10.611  0.2501 -0.0799 -0.7948
43320SOL    HW136818   6.357  11.829  10.664 -2.4849  0.0368 -2.9759
43320SOL    HW236819   6.375  11.680  10.651  2.7057  0.0211  1.2183
43321SOL     OW36820   1.702  12.481   6.417  0.2524 -0.1440  0.1374
43321SOL    HW136821   1.725  12.420   6.487 -0.4927  0.2684  0.7547
43321SOL    HW236822   1.607  12.492   6.425 -0.1558 -1.4029 -2.0111
43322SOL     OW36823   2.962  10.131  11.007  0.5352  0.3610 -0.0019
43322SOL    HW136824   3.012  10.146  10.926  0.8362 -3.3548 -0.7140
43322SOL    HW236825   2.874  10.110  10.977  0.6570 -1.0948  0.5703
43323SOL     OW36826   5.363   2.531   3.920  0.2675 -0.0410  0.3518
43323SOL    HW136827   5.388   2.522   3.828 -0.0531 -1.4324  0.3766
43323SOL    HW236828   5.398   2.617   3.946 -0.1163  0.6246 -1.2023
43324SOL     OW36829   7.762   1.728   5.934 -0.3240  0.1753  0.4582
43324SOL    HW136830   7.698   1.728   5.862  0.6455  0.2392 -0.4352
43324SOL    HW236831   7.709   1.727   6.013 -1.4956  2.5760 -0.1923
43325SOL     OW36832   4.651   7.960   0.416  0.5380  0.6388  0.0255
43325SOL    HW136833   4.699   7.880   0.393 -0.1467 -0.6242  2.5725
43325SOL    HW236834   4.608   7.986   0.335  0.3345 -1.9603 -0.8058
43326SOL     OW36835   6.505   4.167  10.103 -0.1088  0.2936 -0.9295
43326SOL    HW136836   6.517   4.170  10.008 -1.2731  1.4121 -1.0663
43326SOL    HW236837   6.416   4.198  10.117 -0.2020 -0.5574  0.4926
43327SOL     OW36838   8.859   0.001   4.928  0.5495  0.6661  0.3476
43327SOL    HW136839   8.887  -0.080   4.885  0.4551  1.0116 -0.3856
43327SOL    HW236840   8.763  -0.004   4.929  0.5027  1.1450 -0.4831
43328SOL     OW36841   5.453   9.077   5.542 -0.2862 -0.2135  0.0862
43328SOL    HW136842   5.491   8.993   5.568  1.7144 -0.0689 -2.0475
43328SOL    HW236843   5.359   9.063   5.546 -0.0358 -1.9070  1.6774
43329SOL     OW36844   4.221  10.537   2.794 -0.2756 -0.1265 -0.5825
43329SOL    HW136845   4.146  10.484   2.767 -1.1271  0.1332  1.1532
43329SOL    HW236846   4.187  10.626   2.800  0.3401  0.1030 -0.3875
43330SOL     OW36847   1.404  10.996   9.464  0.1147  0.1071 -0.1063
43330SOL    HW136848   1.476  11.048   9.428  0.4378  0.5150  1.0807
43330SOL    HW236849   1.405  11.015   9.558 -0.2550 -1.4426  0.2413
43331SOL     OW36850   1.090   8.552  11.530 -0.6480  0.2411 -0.3014
43331SOL    HW136851   1.026   8.495  11.487 -0.9785  0.4330 -0.0739
43331SOL    HW236852   1.094   8.630  11.475 -0.8466  0.3596 -0.1524
43332SOL     OW36853   5.758   9.918   0.491 -0.3872 -0.1521  0.0631
43332SOL    HW136854   5.693   9.939   0.425  0.4062  0.7150 -0.4684
43332SOL    HW236855   5.715   9.936   0.575 -0.2607  2.2654 -0.3158
43333SOL     OW36856  12.070   4.067   1.237 -0.5612 -0.5656  0.3061
43333SOL    HW136857  12.040   4.083   1.327 -2.5854  0.1307 -0.4277
43333SOL    HW236858  11.995   4.025   1.194  0.1323 -0.3166 -1.2164
43334SOL     OW36859   8.921   5.816   1.539 -0.6083  0.0266  0.3584
43334SOL    HW136860   8.873   5.898   1.527 -0.8240 -0.1867 -0.2787
43334SOL    HW236861   9.007   5.843   1.570 -1.4466  0.3766  2.6014
43335SOL     OW36862   4.181   3.261  10.462 -0.0885 -0.1895  0.3467
43335SOL    HW136863   4.089   3.241  10.478 -0.7285  1.7747 -0.5598
43335SOL    HW236864   4.213   3.188  10.408 -1.0831 -0.9255  0.7317
43336SOL     OW36865   0.228   5.649   8.445  0.5741  0.6182 -0.1134
43336SOL    HW136866   0.245   5.703   8.522 -0.4093  0.1801  0.4295
43336SOL    HW236867   0.294   5.580   8.449 -0.6505 -0.5544  1.4743
43337SOL     OW36868   7.929  11.840   4.188  0.1267  0.4246  0.0495
43337SOL    HW136869   7.976  11.922   4.202 -1.4045  1.2713  0.4666
43337SOL    HW236870   7.914  11.805   4.276  0.5829 -0.1988 -0.1157
43338SOL     OW36871   1.521   3.004   7.523 -0.1058  0.2993  0.2991
43338SOL    HW136872   1.609   2.986   7.489 -0.7221 -0.1681 -1.1088
43338SOL    HW236873   1.513   2.947   7.599  0.9802  0.7074  0.7436
43339SOL     OW36874   1.286   0.122   5.332  0.1829 -1.0093 -0.2741
43339SOL    HW136875   1.251   0.080   5.253  1.1904  1.4017 -2.1390
43339SOL    HW236876   1.244   0.208   5.335 -1.0367 -1.5804  2.8007
43340SOL     OW36877   4.621   1.064  10.122 -0.3844 -0.3971  0.2405
43340SOL    HW136878   4.541   1.013  10.138 -0.8215  0.0622 -0.4012
43340SOL    HW236879   4.617   1.136  10.185 -2.1462  1.4604 -1.7869
43341SOL     OW36880   8.648   3.398   8.563 -0.7165  0.4510 -0.2437
43341SOL    HW136881   8.651   3.494   8.558  0.9828  0.4209 -0.2939
43341SOL    HW236882   8.737   3.373   8.589 -1.7473 -0.9817  2.2060
43342SOL     OW36883   7.587   3.346   6.496  0.5159  0.5231 -0.0250
43342SOL    HW136884   7.501   3.334   6.537  0.9416  1.2251  1.1120
43342SOL    HW236885   7.594   3.441   6.484  1.1058  0.4622 -0.1772
43343SOL     OW36886   7.417  12.367   5.397 -0.4944  0.3778  0.0316
43343SOL    HW136887   7.325  12.370   5.370 -0.0714 -0.0304 -1.5248
43343SOL    HW236888   7.465  12.343   5.318  0.9508  0.4437  0.8531
43344SOL     OW36889   6.897  10.222  12.568  0.1440  0.2002 -0.3017
43344SOL    HW136890   6.980  10.267  12.583 -0.5755  1.8561 -1.0101
43344SOL    HW236891   6.884  10.169  12.647  1.0702  1.1833  0.5525
43345SOL     OW36892   6.665  10.158  11.530  0.2148 -0.1111 -0.1785
43345SOL    HW136893   6.758  10.155  11.553  0.2604 -3.1473 -0.2954
43345SOL    HW236894   6.641  10.066  11.519 -2.3818  0.6692 -1.9097
43346SOL     OW36895   6.272   4.770   8.794  0.5175 -0.2561  0.3291
43346SOL    HW136896   6.215   4.821   8.851 -0.1433 -0.3257 -0.2419
43346SOL    HW236897   6.224   4.687   8.780  1.1556 -0.6616  0.5253
43347SOL     OW36898   3.171   3.633   9.645 -0.5521  0.2922 -0.4550
43347SOL    HW136899   3.169   3.563   9.579 -3.7917 -0.3895  0.2350
43347SOL    HW236900   3.227   3.599   9.715  0.2653 -0.3334 -1.3828
43348SOL     OW36901   0.065   8.430  11.158  0.1159  0.6297  0.3988
43348SOL    HW136902   0.040   8.358  11.100 -0.9815  1.5106 -0.2685
43348SOL    HW236903   0.130   8.392  11.217  0.6721 -0.5071 -0.8950
43349SOL     OW36904  12.477  10.117   3.765  0.0359  0.3277 -0.6568
43349SOL    HW136905  12.565  10.081   3.771 -0.4706 -0.8701 -0.1170
43349SOL    HW236906  12.483  10.203   3.808  1.0761  0.5697 -1.2456
43350SOL     OW36907   5.332   3.119   8.081 -0.0903  0.0655  0.4255
43350SOL    HW136908   5.264   3.058   8.053  1.6808 -2.0509  0.5469
43350SOL    HW236909   5.295   3.161   8.160 -2.0940  0.6449 -0.7302
43351SOL     OW36910   6.309   0.735   4.581 -0.3546  0.0251 -0.2487
43351SOL    HW136911   6.281   0.646   4.603 -0.6159 -0.1237 -1.1273
43351SOL    HW236912   6.252   0.792   4.632 -0.8584 -0.3035 -0.4399
43352SOL     OW36913   0.674   8.117   7.134  0.2595  0.1720 -0.1176
43352SOL    HW136914   0.754   8.081   7.094  0.4276  0.5038 -0.0828
43352SOL    HW236915   0.640   8.045   7.187 -1.1514 -1.0250 -2.5058
43353SOL     OW36916   5.184   5.767   3.221 -0.0368 -0.2113  0.2395
43353SOL    HW136917   5.102   5.786   3.267  0.5023  0.5674  0.8899
43353SOL    HW236918   5.185   5.827   3.147 -0.8605 -1.4019 -0.7860
43354SOL     OW36919   1.137  12.438   0.577 -0.1967 -0.2567  0.2943
43354SOL    HW136920   1.065  12.493   0.607  1.4328  0.6011  2.8953
43354SOL    HW236921   1.190  12.495   0.521 -0.5955 -0.3686 -0.1997
43355SOL     OW36922   0.998   5.489   1.533  0.1705  0.2388  0.0680
43355SOL    HW136923   0.964   5.526   1.452 -0.5607 -0.0292  0.2475
43355SOL    HW236924   0.976   5.396   1.529 -0.5766  0.3594  0.9114
43356SOL     OW36925   4.684   1.807   8.918 -0.3237  0.2473 -0.4856
43356SOL    HW136926   4.670   1.730   8.862  2.3362 -0.4352 -0.3576
43356SOL    HW236927   4.683   1.772   9.007  1.1955  0.2578 -0.4408
43357SOL     OW36928  10.454  10.742  10.575  0.0900  0.2029  0.2200
43357SOL    HW136929  10.409  10.678  10.631 -2.9402  1.1872 -0.8881
43357SOL    HW236930  10.452  10.823  10.625 -0.0695  0.4272 -0.1441
43358SOL     OW36931   9.284   7.768   2.400  0.1264 -0.6380  0.1278
43358SOL    HW136932   9.369   7.773   2.444  0.4472 -0.5040 -0.4942
43358SOL    HW236933   9.222   7.747   2.470  0.0815  2.8087  1.2823
43359SOL     OW36934   5.430   7.376   5.686 -0.0148  0.3819 -0.3762
43359SOL    HW136935   5.393   7.290   5.665  1.2518 -0.3420  0.2745
43359SOL    HW236936   5.483   7.361   5.764  2.2032  1.2105 -1.6354
43360SOL     OW36937   3.643   2.836   7.239 -0.5673 -0.0961 -0.1694
43360SOL    HW136938   3.682   2.865   7.157  2.6262 -1.3932  0.7440
43360SOL    HW236939   3.657   2.908   7.300 -0.4108 -0.2230 -0.0553
43361SOL     OW36940  12.484   9.658   2.028  0.1250 -0.5927  0.4539
43361SOL    HW136941  12.406   9.603   2.019  1.3178 -2.3321  0.1041
43361SOL    HW236942  12.513   9.642   2.118  0.2159 -0.1447  0.5039
43362SOL     OW36943   2.548   1.698   5.437  0.1744 -0.2239  0.1977
43362SOL    HW136944   2.622   1.692   5.377  0.3247 -0.1086  0.3686
43362SOL    HW236945   2.561   1.626   5.499  0.7964  0.5030  0.9407
43363SOL     OW36946   3.951  11.359   1.999  0.2665 -0.1806  0.2818
43363SOL    HW136947   3.927  11.317   1.917 -0.3572  0.1178  0.3018
43363SOL    HW236948   3.970  11.286   2.058  0.2688 -0.4076  0.0029
43364SOL     OW36949   5.934  11.118   3.002 -0.1334  0.2913 -0.4888
43364SOL    HW136950   5.932  11.150   2.911 -1.0011  0.6652 -0.3497
43364SOL    HW236951   5.842  11.103   3.023  0.1803 -1.5515 -0.2710
43365SOL     OW36952   5.337   0.594   1.004 -0.6115  0.3250 -0.1149
43365SOL    HW136953   5.336   0.568   0.912 -0.7607  1.9744 -0.6031
43365SOL    HW236954   5.415   0.550   1.040  0.7194  1.3714 -1.5686
43366SOL     OW36955   3.060   7.175  10.131 -0.0213  0.1199 -0.6177
43366SOL    HW136956   3.118   7.237  10.088 -0.2324  0.7992  0.0526
43366SOL    HW236957   3.046   7.211  10.218 -0.6917 -0.5165 -0.4463
43367SOL     OW36958  11.985   3.704   0.988  0.1286 -0.6855 -0.0526
43367SOL    HW136959  12.071   3.737   1.012 -0.6279  1.1886  0.2604
43367SOL    HW236960  11.924   3.772   1.016 -1.4179 -1.6881 -0.7945
43368SOL     OW36961   6.217   5.452   9.648 -0.4287 -0.8520 -0.5102
43368SOL    HW136962   6.307   5.418   9.653  0.3355  1.0146 -0.6670
43368SOL    HW236963   6.208   5.481   9.557 -1.8243 -2.5530 -0.9582
43369SOL     OW36964   3.328   6.834   3.495 -0.4079  0.4693  0.0271
43369SOL    HW136965   3.398   6.783   3.536 -1.8160 -0.5584  1.2708
43369SOL    HW236966   3.368   6.919   3.476  1.1608 -0.0887  0.7062
43370SOL     OW36967   3.800   5.538   7.403  0.4514  0.4899  0.0760
43370SOL    HW136968   3.843   5.482   7.467  1.1850  0.5561 -0.3443
43370SOL    HW236969   3.796   5.485   7.323 -0.7193  0.3020  0.2504
43371SOL     OW36970  10.903  11.015   2.054  0.1753  0.2118  0.7400
43371SOL    HW136971  10.899  11.073   1.978 -2.1581 -1.0551 -0.2037
43371SOL    HW236972  10.943  11.069   2.123  1.8453  1.5695 -1.1824
43372SOL     OW36973   7.422   0.531   7.379 -0.5485  0.4140  0.2908
43372SOL    HW136974   7.416   0.536   7.474  0.3291 -2.9135  0.6411
43372SOL    HW236975   7.375   0.451   7.356  1.4554 -0.2897 -1.7383
43373SOL     OW36976   3.937  12.034   0.384  0.4367 -0.5710  0.2828
43373SOL    HW136977   3.976  12.045   0.471  2.2579 -1.8236 -0.3108
43373SOL    HW236978   3.998  12.080   0.326  1.5998 -3.2443 -0.7714
43374SOL     OW36979   4.971  12.278   1.965 -0.5187 -0.1297 -0.1521
43374SOL    HW136980   5.057  12.277   2.006 -0.9943 -1.1193  0.8809
43374SOL    HW236981   4.967  12.197   1.914  0.2428  1.2910 -2.6435
43375SOL     OW36982   6.085   8.350   8.898  0.7488  0.3047  0.6118
43375SOL    HW136983   6.011   8.388   8.852  1.2789 -1.0684 -1.5127
43375SOL    HW236984   6.045   8.297   8.968 -0.5053 -1.8793 -1.5760
43376SOL     OW36985   4.114  11.171   8.830  0.8741  0.5266 -0.0845
43376SOL    HW136986   4.185  11.180   8.894  0.2964 -1.3979  0.9064
43376SOL    HW236987   4.080  11.083   8.845 -0.5830  0.7647 -1.7388
43377SOL     OW36988   4.109   9.319   0.573 -0.7441  0.5922  0.4801
43377SOL    HW136989   4.103   9.224   0.561 -0.9902  0.6822 -0.1370
43377SOL    HW236990   4.145   9.329   0.661  4.7478 -0.2048 -1.2431
43378SOL     OW36991   4.507   7.418  11.448  0.0086  0.2506  0.3073
43378SOL    HW136992   4.430   7.463  11.412  0.7677  0.3963 -1.2289
43378SOL    HW236993   4.554   7.386  11.371  1.4731  0.1451  1.2072
43379SOL     OW36994   3.084   9.499  12.167  0.7682 -0.1659  0.1512
43379SOL    HW136995   3.087   9.467  12.076 -1.8524  3.1887 -1.3625
43379SOL    HW236996   3.044   9.428  12.216  0.8437 -1.5202 -1.6429
43380SOL     OW36997  11.945   9.318   9.324  0.3869 -0.5451 -0.3182
43380SOL    HW136998  11.926   9.334   9.231 -1.1445  1.5737  0.2806
43380SOL    HW236999  11.859   9.308   9.365  0.9818 -0.3001  1.0481
43381SOL     OW37000  10.770   3.436   5.500  0.0252 -0.1136 -0.3973
43381SOL    HW137001  10.689   3.471   5.462  0.2348  1.1299  0.2343
43381SOL    HW237002  10.833   3.439   5.428 -0.0332  0.5997 -0.4315
43382SOL     OW37003   9.532  12.473   5.600  0.1331 -0.0995 -0.0584
43382SOL    HW137004   9.502  12.531   5.530  1.1088  1.6434  0.8934
43382SOL    HW237005   9.511  12.385   5.569  0.4330  0.6103 -2.4857
43383SOL     OW37006   0.040   1.026  10.930  0.1512 -0.1671  0.8366
43383SOL    HW137007   0.046   1.035  10.835  0.2390  0.6579  0.9076
43383SOL    HW237008   0.006   1.111  10.960 -0.2054 -0.5387  1.5103
43384SOL     OW37009   9.802   3.925   8.596  0.1085  0.0553  0.1910
43384SOL    HW137010   9.733   3.915   8.531  0.8190 -1.2297 -0.4005
43384SOL    HW237011   9.771   3.876   8.672 -0.4558  1.0604  0.6245
43385SOL     OW37012   3.781  11.563  12.548  0.0295 -0.4469 -0.5651
43385SOL    HW137013   3.808  11.483  12.594 -0.9847 -0.2697  0.3775
43385SOL    HW237014   3.847  11.628  12.572 -0.0058 -0.5933 -0.0599
43386SOL     OW37015   4.143   3.031  10.990  0.0855 -0.4750 -0.2870
43386SOL    HW137016   4.235   3.032  11.016 -0.0525 -1.0397  0.2564
43386SOL    HW237017   4.118   3.123  10.986  0.4842 -0.3394  0.2542
43387SOL     OW37018   8.582  11.434   1.496 -0.0265 -0.0587 -0.0132
43387SOL    HW137019   8.664  11.482   1.510 -1.4690  2.3343  0.8480
43387SOL    HW237020   8.605  11.364   1.435  2.7622  0.1620  0.6664
43388SOL     OW37021   5.483   8.466   0.854  0.0513 -0.5182 -0.5363
43388SOL    HW137022   5.577   8.451   0.847  0.1332 -0.0696 -0.4414
43388SOL    HW237023   5.469   8.552   0.814  0.0019  0.3970  1.3455
43389SOL     OW37024  11.557   3.685   7.992  0.0346  0.7177  0.2228
43389SOL    HW137025  11.612   3.614   7.959 -0.4480  0.3262  0.2640
43389SOL    HW237026  11.612   3.763   7.983  0.2781  0.4610 -0.5387
43390SOL     OW37027   3.974   6.840   5.467  0.8023  0.9401 -0.4955
43390SOL    HW137028   4.054   6.831   5.416  0.6712 -2.6987 -0.3107
43390SOL    HW237029   4.003   6.868   5.553  2.0328 -1.0371 -0.2180
43391SOL     OW37030   5.111   3.815  11.915 -0.2685  0.4247  0.8319
43391SOL    HW137031   5.161   3.752  11.968 -1.8973 -0.4514  1.4106
43391SOL    HW237032   5.095   3.889  11.973 -1.7881 -0.4040  1.5373
43392SOL     OW37033   0.454   5.830   4.592  0.2449 -0.5532 -0.0121
43392SOL    HW137034   0.395   5.825   4.668  1.1400 -0.3151  0.7177
43392SOL    HW237035   0.416   5.770   4.529 -0.9377 -0.2008  0.3310
43393SOL     OW37036   1.406   6.311   6.144  0.2106 -0.4702  0.1389
43393SOL    HW137037   1.437   6.258   6.070  0.0130 -1.2155  0.5857
43393SOL    HW237038   1.467   6.291   6.215  1.6671  1.8005 -0.3632
43394SOL     OW37039   0.282  11.213   0.337 -0.3765 -0.2424  0.0340
43394SOL    HW137040   0.301  11.262   0.257 -1.1517  0.5376  0.3064
43394SOL    HW237041   0.364  11.170   0.359 -0.1485 -0.4447 -1.1593
43395SOL     OW37042   1.771   3.418   8.470 -0.0695 -0.3386  0.5223
43395SOL    HW137043   1.775   3.325   8.447 -0.5591 -0.6079  1.5276
43395SOL    HW237044   1.843   3.457   8.419  0.1349 -1.2516  0.0825
43396SOL     OW37045   5.851   4.837   6.256 -0.2419  0.4901  0.2773
43396SOL    HW137046   5.824   4.747   6.241  0.6507  0.0136  1.3984
43396SOL    HW237047   5.777   4.890   6.226 -1.0318 -0.6293  0.1996
43397SOL     OW37048   8.244   1.686   1.687 -0.1867  0.6059  0.3619
43397SOL    HW137049   8.240   1.692   1.591  0.0096  1.2003  0.3877
43397SOL    HW237050   8.296   1.762   1.713 -0.1486  0.3849  0.9351
43398SOL     OW37051   4.273   5.738   5.349  0.1008 -0.6836 -0.0357
43398SOL    HW137052   4.261   5.721   5.255 -1.2100  0.2196 -0.0656
43398SOL    HW237053   4.190   5.777   5.376  1.1109  0.7291  1.1188
43399SOL     OW37054   5.523   2.774   1.920  0.0272  0.7261 -0.3489
43399SOL    HW137055   5.534   2.812   1.833  0.0515  1.5736  0.0087
43399SOL    HW237056   5.440   2.727   1.915 -1.4882  3.1566 -0.0552
43400SOL     OW37057   5.538   1.816   7.530 -0.8910 -0.1981 -0.1456
43400SOL    HW137058   5.576   1.781   7.612 -0.5099 -0.3539 -0.3847
43400SOL    HW237059   5.467   1.873   7.559 -0.4960  0.0726  0.3152
43401SOL     OW37060   9.657   0.903   9.151  0.0153  0.0417  0.1493
43401SOL    HW137061   9.723   0.838   9.127  0.8389  1.0480 -0.4615
43401SOL    HW237062   9.648   0.957   9.072 -1.5796 -0.0833  0.2150
43402SOL     OW37063   9.482   9.593   4.628  0.6664 -0.0462  0.0541
43402SOL    HW137064   9.489   9.605   4.533 -2.8522  1.6709 -0.1451
43402SOL    HW237065   9.490   9.681   4.664  0.7814 -0.5237  1.2245
43403SOL     OW37066   6.479   1.700  10.991  0.2875  0.4784  0.3258
43403SOL    HW137067   6.552   1.639  11.007  0.2751  0.6014  0.8883
43403SOL    HW237068   6.521   1.786  10.989  0.2501  0.4881 -0.0572
43404SOL     OW37069   1.568   8.361   6.880  0.9121 -0.6117 -0.0600
43404SOL    HW137070   1.483   8.329   6.851  1.3230 -0.8443 -1.0529
43404SOL    HW237071   1.547   8.436   6.936  0.0800  1.6018 -3.0476
43405SOL     OW37072   2.423   8.429   3.419  0.2290  0.0111 -0.1068
43405SOL    HW137073   2.489   8.470   3.364  1.7585 -0.2304  1.4858
43405SOL    HW237074   2.402   8.495   3.485 -0.1380 -0.4094  0.2059
43406SOL     OW37075   3.273  10.081   7.734 -0.2401 -0.2786 -0.0268
43406SOL    HW137076   3.233  10.118   7.813 -1.0983 -0.3106 -0.4370
43406SOL    HW237077   3.319  10.003   7.765  1.1812  0.8094  0.7758
43407SOL     OW37078   7.503  12.335   1.359  0.5350  0.5473 -0.2883
43407SOL    HW137079   7.568  12.303   1.296  0.5477  1.4071 -0.7351
43407SOL    HW237080   7.429  12.364   1.304  0.1926  0.5109  0.1493
43408SOL     OW37081  10.052   9.680   8.239  0.1542  0.0005  0.4359
43408SOL    HW137082  10.146   9.694   8.249 -0.1717  2.2198  1.0062
43408SOL    HW237083  10.015   9.769   8.235 -1.6237 -0.7207 -3.1795
43409SOL     OW37084   9.825  12.404  10.518 -0.3704  0.8312 -0.1455
43409SOL    HW137085   9.771  12.344  10.570  2.1194 -1.3090  0.1686
43409SOL    HW237086   9.769  12.432  10.446 -2.3419 -0.0587  0.9811
43410SOL     OW37087   1.601   9.080   9.456 -0.0220  0.5358  0.5321
43410SOL    HW137088   1.581   9.013   9.391 -0.9528  0.0976  1.2408
43410SOL    HW237089   1.676   9.128   9.420 -1.4427  1.3111 -1.5949
43411SOL     OW37090   3.051  10.498   6.078  0.6024  0.6593 -0.0292
43411SOL    HW137091   3.126  10.544   6.039  0.6634  0.8948  0.3670
43411SOL    HW237092   3.084  10.466   6.162  1.1316 -1.6773 -1.0502
43412SOL     OW37093   2.450   1.154  10.570 -0.4948  0.7858  0.4610
43412SOL    HW137094   2.519   1.096  10.539 -1.0730  0.3972 -0.1097
43412SOL    HW237095   2.485   1.242  10.558 -0.1685  0.5956  0.0122
43413SOL     OW37096   7.500   7.079  12.017  0.7861 -0.3846 -0.1060
43413SOL    HW137097   7.434   7.015  11.992 -0.3016  0.6290  0.0560
43413SOL    HW237098   7.511   7.133  11.939 -0.2857  0.8369  0.5438
43414SOL     OW37099   8.528   7.523   7.742 -0.4305  0.3444 -0.2708
43414SOL    HW137100   8.515   7.573   7.822 -0.4073  1.1792 -0.7819
43414SOL    HW237101   8.481   7.572   7.675 -0.2199 -0.1980 -0.8273
43415SOL     OW37102   9.936   8.544   6.775  0.6271 -0.2440 -0.2023
43415SOL    HW137103  10.017   8.536   6.726  1.3543  0.1418  0.8894
43415SOL    HW237104   9.884   8.607   6.725  1.7640  0.9369  0.0253
43416SOL     OW37105  11.044   3.394   9.462  0.0097  0.3490  0.1710
43416SOL    HW137106  11.140   3.387   9.465  0.2449  0.6345 -3.2097
43416SOL    HW237107  11.013   3.304   9.467  0.4137  0.2429  1.0974
43417SOL     OW37108   6.514   7.800   6.682  0.1066 -0.6401  0.0007
43417SOL    HW137109   6.456   7.868   6.647 -2.8427 -2.3409  1.1701
43417SOL    HW237110   6.554   7.839   6.759 -0.8565  0.0715  0.1543
43418SOL     OW37111   7.734   6.169   6.565 -0.3361 -0.0436 -0.7910
43418SOL    HW137112   7.793   6.102   6.531  0.2569 -0.7277  1.4217
43418SOL    HW237113   7.647   6.130   6.559 -0.3638  0.1681 -2.1725
43419SOL     OW37114   9.334   7.445  12.468  0.3982 -0.3691 -0.0317
43419SOL    HW137115   9.392   7.519  12.452  1.1080 -0.9990 -0.4517
43419SOL    HW237116   9.348   7.387  12.393  0.4056 -1.2751  0.6517
43420SOL     OW37117   3.632   5.573  11.506 -0.0447 -0.5098  0.0534
43420SOL    HW137118   3.620   5.629  11.583  1.9155 -1.2981  1.0058
43420SOL    HW237119   3.591   5.621  11.435  0.9607  1.8600  0.9647
43421SOL     OW37120   7.624  10.033   7.264 -0.2484 -0.0116  0.2683
43421SOL    HW137121   7.550  10.038   7.325 -1.4101 -0.8327 -1.0247
43421SOL    HW237122   7.587  10.056   7.179  1.3331  1.0521 -0.1879
43422SOL     OW37123   8.080   1.983   5.225  0.1184 -0.3176 -0.0600
43422SOL    HW137124   7.993   1.996   5.262 -0.1686 -0.4989 -0.6652
43422SOL    HW237125   8.078   1.895   5.188  0.5416 -0.3017 -0.1302
43423SOL     OW37126   6.497   2.358   7.950  0.0126  0.7792 -0.4009
43423SOL    HW137127   6.429   2.295   7.926  0.0523  1.2901 -1.9554
43423SOL    HW237128   6.481   2.376   8.043 -2.8635  1.9222 -0.9931
43424SOL     OW37129   1.934   8.621  10.912 -0.1938  0.4809  0.1517
43424SOL    HW137130   1.925   8.530  10.940 -0.3425  0.4752  0.0849
43424SOL    HW237131   1.866   8.633  10.846 -1.4132  1.1661  1.4813
43425SOL     OW37132   0.913   3.831  11.344  0.2376  0.3833 -0.2191
43425SOL    HW137133   0.902   3.924  11.361 -1.5125  0.3289 -0.8534
43425SOL    HW237134   0.857   3.787  11.409  0.9865 -0.2318  0.0273
43426SOL     OW37135   3.038   3.056   0.109 -0.3479  0.4208 -0.2936
43426SOL    HW137136   3.007   3.146   0.113 -0.3202  0.3804  1.8171
43426SOL    HW237137   2.975   3.006   0.160 -1.2731 -1.1121 -2.7286
43427SOL     OW37138   1.635   9.877   1.756 -0.2208  0.0851 -0.1419
43427SOL    HW137139   1.671   9.808   1.700  1.6995 -1.5910  2.8652
43427SOL    HW237140   1.548   9.844   1.781  0.6944 -1.4219  1.3085
43428SOL     OW37141   3.716   6.552  11.953  0.3939 -0.1925  0.3606
43428SOL    HW137142   3.714   6.555  11.858 -0.6366  1.0208  0.3834
43428SOL    HW237143   3.623   6.554  11.979  0.5973 -1.8497  1.3816
43429SOL     OW37144   0.250   7.695   1.831 -0.0937  0.1910 -0.0677
43429SOL    HW137145   0.185   7.755   1.867 -0.4137  0.5476 -1.1948
43429SOL    HW237146   0.334   7.726   1.867 -0.6014 -0.9327  2.2720
43430SOL     OW37147  10.904   7.552   4.389  0.1257  0.1232 -0.0148
43430SOL    HW137148  10.853   7.592   4.319  0.9061  0.2440 -0.5210
43430SOL    HW237149  10.990   7.595   4.385  0.2257  0.0445  0.9324
43431SOL     OW37150   2.306  12.170   6.127 -0.2268  0.2137 -0.0692
43431SOL    HW137151   2.395  12.156   6.095 -0.3773  1.3008 -1.0502
43431SOL    HW237152   2.252  12.164   6.048 -1.1809 -1.4427  0.6424
43432SOL     OW37153  12.415   9.463   2.875  0.4533  0.1105  0.3487
43432SOL    HW137154  12.488   9.510   2.914  0.9716 -0.8290  0.5460
43432SOL    HW237155  12.442   9.445   2.785  0.6755 -0.6538  0.5622
43433SOL     OW37156   5.828   5.607   4.424 -0.3572 -0.2686 -0.0553
43433SOL    HW137157   5.870   5.527   4.391  0.5330 -0.1749  0.8060
43433SOL    HW237158   5.823   5.593   4.519  1.3288  1.3689  0.3262
43434SOL     OW37159   8.043   9.739   8.882 -0.5320  0.2635  0.1300
43434SOL    HW137160   7.948   9.754   8.880 -0.9511 -1.1099  3.5883
43434SOL    HW237161   8.058   9.693   8.964  2.9687 -1.1436 -1.1262
43435SOL     OW37162   4.984   5.186   0.068  0.5673  0.1385 -0.1549
43435SOL    HW137163   4.977   5.162   0.160 -1.6020 -0.9091 -0.5242
43435SOL    HW237164   4.961   5.279   0.065  0.9299  0.2479  0.3800
43436SOL     OW37165   9.518   7.459   6.745  0.1038 -0.3685 -0.7782
43436SOL    HW137166   9.591   7.515   6.772  0.6222 -1.2401 -0.3414
43436SOL    HW237167   9.560   7.390   6.693 -0.3920 -0.9407 -0.4248
43437SOL     OW37168   7.331  11.558   9.245  0.1609 -0.1243  0.4752
43437SOL    HW137169   7.393  11.501   9.292 -0.8722 -0.6801  1.2054
43437SOL    HW237170   7.359  11.554   9.154  0.8218 -0.8715  0.7000
43438SOL     OW37171  12.150   4.087  12.100 -0.7534 -0.1604  0.2226
43438SOL    HW137172  12.167   4.023  12.031  0.2202 -0.2019  0.4783
43438SOL    HW237173  12.056   4.083  12.115 -1.0648  0.2440 -1.4920
43439SOL     OW37174   9.520   3.148   5.614 -0.0820 -0.4239 -0.2850
43439SOL    HW137175   9.518   3.177   5.523  2.9816 -0.0060 -0.3210
43439SOL    HW237176   9.495   3.225   5.665  1.5520  0.4232 -0.6861
43440SOL     OW37177   6.441   2.939   7.170 -0.0729 -0.0897  0.3671
43440SOL    HW137178   6.479   3.024   7.149 -0.2946 -0.0978 -0.0983
43440SOL    HW237179   6.393   2.953   7.251  0.1901  0.1363  0.4862
43441SOL     OW37180   8.354   8.981   5.875  0.4014 -0.6247 -0.5021
43441SOL    HW137181   8.258   8.982   5.868  0.4074  0.9334 -0.9255
43441SOL    HW237182   8.372   9.002   5.966  0.3165  0.2381 -0.6715
43442SOL     OW37183   3.367   3.844   0.359  0.1992  0.4223 -0.3323
43442SOL    HW137184   3.410   3.759   0.374 -1.5115 -0.5963 -0.8980
43442SOL    HW237185   3.290   3.841   0.415 -0.9504  0.7396 -1.8426
43443SOL     OW37186   6.282   8.483   6.359  0.0344  0.2921 -0.2809
43443SOL    HW137187   6.283   8.405   6.303  1.3031  0.7512 -0.9253
43443SOL    HW237188   6.354   8.537   6.326 -0.6017  1.5793  0.3878
43444SOL     OW37189   3.297   5.969   7.819  0.1118 -0.1386  0.6837
43444SOL    HW137190   3.233   5.979   7.890 -0.2363 -0.9857  0.5060
43444SOL    HW237191   3.251   6.001   7.742  0.8748  1.8305  0.9958
43445SOL     OW37192   7.880   3.675   8.622  0.4508 -0.2477 -0.3351
43445SOL    HW137193   7.821   3.601   8.636  1.2303 -0.9167 -0.4866
43445SOL    HW237194   7.835   3.750   8.662 -0.7804 -0.5964 -1.0084
43446SOL     OW37195   0.778   2.298   9.674 -0.4158  0.1559 -0.3404
43446SOL    HW137196   0.683   2.304   9.674 -0.5188 -0.5373 -2.6555
43446SOL    HW237197   0.798   2.224   9.617  1.5221  0.8396 -0.6483
43447SOL     OW37198   4.841   2.182   0.086 -0.0498  0.2455  0.1517
43447SOL    HW137199   4.931   2.208   0.103  1.0004 -1.1094 -2.8270
43447SOL    HW237200   4.847   2.099   0.039 -2.6686  1.2511 -2.2936
43448SOL     OW37201   4.500  10.264   8.490  0.1483 -0.3390 -0.3755
43448SOL    HW137202   4.465  10.184   8.529  1.0294 -1.1120 -1.1159
43448SOL    HW237203   4.471  10.262   8.399 -0.0059  0.3025 -0.3442
43449SOL     OW37204   7.724   6.737   4.198 -0.1005  0.0327  0.5337
43449SOL    HW137205   7.757   6.814   4.244 -0.4513  0.7381 -0.3614
43449SOL    HW237206   7.802   6.696   4.161 -0.1236  1.4627 -1.2302
43450SOL     OW37207   9.844   6.804   3.282 -0.4577  0.4534  0.3669
43450SOL    HW137208   9.872   6.851   3.204  0.9446 -0.9179 -0.0042
43450SOL    HW237209   9.777   6.743   3.251  0.3738 -0.3627  0.1291
43451SOL     OW37210   4.334   7.671   7.150 -0.3422  0.3498 -0.5863
43451SOL    HW137211   4.247   7.704   7.173 -0.5933 -0.7574  0.1531
43451SOL    HW237212   4.319   7.579   7.128  0.7645 -0.1016  0.4620
43452SOL     OW37213  12.302  11.355   9.414 -0.1814 -0.2138  0.1611
43452SOL    HW137214  12.361  11.347   9.489 -0.9951  1.5079  1.0368
43452SOL    HW237215  12.333  11.289   9.352  0.0477 -2.2453  2.3068
43453SOL     OW37216   7.075   4.816   5.020 -0.0986  0.0832  0.1466
43453SOL    HW137217   7.039   4.871   5.089  0.1371  1.8797 -1.0774
43453SOL    HW237218   7.011   4.747   5.007  0.0388 -0.5396  2.3870
43454SOL     OW37219   6.990   1.692   6.127  0.5961  0.2045  0.6993
43454SOL    HW137220   7.022   1.627   6.066  2.1880  0.5551  1.1087
43454SOL    HW237221   6.908   1.724   6.088  1.9518  1.0099 -1.6764
43455SOL     OW37222   4.761   4.515   8.213 -0.2890  0.2709  0.1212
43455SOL    HW137223   4.687   4.499   8.154  0.4740 -1.8076 -0.3422
43455SOL    HW237224   4.811   4.585   8.171 -1.1060  0.5606 -0.3868
43456SOL     OW37225   3.236   5.767   3.124 -0.0827 -0.7193 -0.5132
43456SOL    HW137226   3.192   5.836   3.174  0.4630 -0.0497 -0.9366
43456SOL    HW237227   3.166   5.709   3.096 -0.6119 -0.0844 -0.5339
43457SOL     OW37228   5.801  12.385   7.706 -0.4243 -0.0166 -0.1992
43457SOL    HW137229   5.748  12.418   7.634  1.5075  1.4781 -1.0581
43457SOL    HW237230   5.885  12.363   7.666  1.2037  2.1769  1.7104
43458SOL     OW37231  10.653   6.158  10.105 -0.1810 -0.4582 -0.5352
43458SOL    HW137232  10.598   6.119  10.038  0.3467 -0.8586 -0.7354
43458SOL    HW237233  10.699   6.230  10.061 -0.1778 -0.4293 -0.4858
43459SOL     OW37234   6.087  11.323   1.489  0.1572 -0.1673  0.5197
43459SOL    HW137235   6.158  11.349   1.548  0.8930 -1.2706  0.1674
43459SOL    HW237236   6.065  11.402   1.440  2.0669 -0.0799 -0.2778
43460SOL     OW37237   6.960   6.119  12.295 -0.6665  0.2986 -0.3973
43460SOL    HW137238   6.907   6.151  12.368  0.3613 -0.3277  0.6623
43460SOL    HW237239   7.038   6.174  12.296  0.4908 -1.2546  0.5866
43461SOL     OW37240   4.528   2.606   7.656  0.5258  0.0949  0.1958
43461SOL    HW137241   4.439   2.607   7.692  1.0991  0.7117  1.6896
43461SOL    HW237242   4.578   2.552   7.718  1.1651 -0.3790 -0.7107
43462SOL     OW37243   6.428   4.400   4.897 -0.2745  0.0144  0.1784
43462SOL    HW137244   6.377   4.444   4.964  0.1954  0.6048  0.1533
43462SOL    HW237245   6.502   4.458   4.880 -0.3827 -0.1201 -0.8536
43463SOL     OW37246   6.634   3.434   9.606 -0.2547  0.6190  0.0446
43463SOL    HW137247   6.666   3.502   9.546  0.9849 -0.1025 -0.1445
43463SOL    HW237248   6.548   3.466   9.634  0.4337  2.4311  0.2288
43464SOL     OW37249   9.469   5.277  10.707 -0.2058  0.3946  0.3698
43464SOL    HW137250   9.395   5.268  10.647 -0.2228 -0.2849  0.4820
43464SOL    HW237251   9.464   5.367  10.738 -0.2304  0.7350 -0.6012
43465SOL     OW37252   3.914   1.814   5.262 -0.3646 -0.2040  0.0919
43465SOL    HW137253   3.858   1.738   5.243  0.4454 -0.9167  0.4589
43465SOL    HW237254   3.874   1.854   5.340 -1.1666  0.1456 -0.4794
43466SOL     OW37255  10.418   6.689  11.295 -0.2630  0.8571 -0.1206
43466SOL    HW137256  10.476   6.719  11.224 -0.2267  2.3962  0.5347
43466SOL    HW237257  10.337   6.738  11.282 -0.5892  0.4538  0.3635
43467SOL     OW37258   7.081   9.183   3.653  0.0733 -0.2338  0.2638
43467SOL    HW137259   7.130   9.170   3.735 -0.3666  0.4044  0.6357
43467SOL    HW237260   7.004   9.232   3.679  0.7649  1.4903 -0.7809
43468SOL     OW37261   0.384   6.167   9.538 -0.2086 -0.0468 -0.5754
43468SOL    HW137262   0.476   6.178   9.514  0.1620 -0.3359  0.6290
43468SOL    HW237263   0.370   6.230   9.610 -0.6282 -0.8102  0.0278
43469SOL     OW37264   6.616   9.297   1.838  0.1141 -0.0923  0.0634
43469SOL    HW137265   6.695   9.339   1.871  0.6046  0.8976 -2.2021
43469SOL    HW237266   6.638   9.270   1.749 -2.0705  0.1648 -0.6105
43470SOL     OW37267   4.137   3.734  11.320 -0.0351  0.0788 -0.4183
43470SOL    HW137268   4.125   3.641  11.336  1.6861 -0.1229 -0.0925
43470SOL    HW237269   4.062   3.759  11.266  0.2139 -1.8148 -1.7393
43471SOL     OW37270  10.452   7.692   6.530  0.3472  0.4840 -1.0065
43471SOL    HW137271  10.413   7.619   6.578 -0.2667  1.1525 -0.4495
43471SOL    HW237272  10.465   7.659   6.442 -1.2366  0.1217 -1.1378
43472SOL     OW37273   8.059   3.433   5.438  0.3448  0.3478 -0.1796
43472SOL    HW137274   8.098   3.472   5.360 -0.9310  0.8037 -0.6139
43472SOL    HW237275   7.968   3.462   5.437 -0.4888 -2.0337 -0.1168
43473SOL     OW37276   5.914   9.254   2.414 -0.4300  0.1770 -0.1912
43473SOL    HW137277   5.979   9.274   2.346 -1.1165 -0.5745 -1.0766
43473SOL    HW237278   5.922   9.160   2.428 -0.1143  0.3617  0.9799
43474SOL     OW37279   6.981  10.715  12.407  0.4509 -0.2326  0.1637
43474SOL    HW137280   6.936  10.760  12.478 -1.6382  1.2246 -1.9522
43474SOL    HW237281   6.936  10.631  12.399 -0.1254  0.1040 -0.1948
43475SOL     OW37282   0.727   4.626   0.480  0.0714  0.2741 -0.4172
43475SOL    HW137283   0.682   4.687   0.422 -2.1655  0.1368  1.0586
43475SOL    HW237284   0.738   4.674   0.562  0.5258 -0.4923 -0.0179
43476SOL     OW37285   8.754  11.666   6.633  0.0333 -0.0137 -0.2055
43476SOL    HW137286   8.752  11.607   6.558 -2.7817  0.0637 -0.2842
43476SOL    HW237287   8.742  11.753   6.594 -0.9660  0.0733  0.2866
43477SOL     OW37288   9.036   5.440   9.600 -0.0749 -0.0426  0.4436
43477SOL    HW137289   9.025   5.491   9.681 -0.4962  0.5573  0.0199
43477SOL    HW237290   9.110   5.382   9.618  0.7767  1.1060  0.7638
43478SOL     OW37291   8.773  11.132   6.712  0.2121  1.1997 -0.0579
43478SOL    HW137292   8.754  11.061   6.651  1.0940  1.3646 -0.5353
43478SOL    HW237293   8.861  11.113   6.745 -0.4693  0.7806  1.6482
43479SOL     OW37294   1.989   5.511   6.461 -0.1016 -0.1127  0.3145
43479SOL    HW137295   1.943   5.540   6.540 -0.4611 -0.4372  0.2287
43479SOL    HW237296   2.080   5.533   6.478 -0.4278  1.6501 -0.0261
43480SOL     OW37297   4.400   2.127   2.351 -0.2357  0.2307  0.1875
43480SOL    HW137298   4.469   2.131   2.417 -0.2171  1.7169  0.1276
43480SOL    HW237299   4.422   2.197   2.289 -1.6533  0.5887  0.0366
43481SOL     OW37300   8.365  10.491   9.020 -0.0436  0.0474  0.0469
43481SOL    HW137301   8.420  10.415   9.034 -0.3012 -0.2969 -0.7593
43481SOL    HW237302   8.340  10.520   9.108 -0.2930 -1.0496  0.3416
43482SOL     OW37303   6.363  10.177   6.398 -0.0722 -0.2320  0.3830
43482SOL    HW137304   6.335  10.241   6.463  0.2717  0.5989 -0.2583
43482SOL    HW237305   6.396  10.230   6.325 -1.7632 -1.0757 -1.0874
43483SOL     OW37306   8.086   7.878  12.537 -0.7304  0.0658 -0.1061
43483SOL    HW137307   8.174   7.844  12.553  0.0467  0.9408 -2.1411
43483SOL    HW237308   8.096   7.973  12.540 -1.5096  0.1854 -0.7238
43484SOL     OW37309   3.431   0.950  11.241 -0.0723  0.1314 -0.2437
43484SOL    HW137310   3.375   0.989  11.309 -0.5434  0.9327 -1.0703
43484SOL    HW237311   3.420   0.856  11.252 -0.3018  0.2503  0.6612
43485SOL     OW37312   7.897   4.752   4.532  0.0862 -0.3844 -0.0387
43485SOL    HW137313   7.929   4.712   4.451 -0.3833  2.0096 -1.5029
43485SOL    HW237314   7.974   4.795   4.569 -0.1262  0.2913 -0.3607
43486SOL     OW37315   7.515   4.786   1.895 -0.3233 -0.1078 -0.2353
43486SOL    HW137316   7.587   4.846   1.914 -0.7704  1.2213 -2.4115
43486SOL    HW237317   7.551   4.725   1.830 -0.6589 -0.5748  0.0089
43487SOL     OW37318   7.416   3.843   4.982  0.0616 -0.5940  0.1888
43487SOL    HW137319   7.335   3.796   4.997 -0.3179 -0.1053 -0.2952
43487SOL    HW237320   7.389   3.933   4.965  0.6575 -0.5336 -0.4949
43488SOL     OW37321   8.366   8.827  11.470  0.4278  0.2775 -0.2431
43488SOL    HW137322   8.362   8.915  11.505 -3.1362  0.7324 -1.3326
43488SOL    HW237323   8.353   8.770  11.545  0.0594  0.8287  0.1137
43489SOL     OW37324   1.896   6.972  12.565 -0.3983  0.2691 -0.3178
43489SOL    HW137325   1.816   6.962  12.616 -0.1429 -3.3916 -0.3330
43489SOL    HW237326   1.961   7.003  12.628 -0.3196 -3.2458  1.5837
43490SOL     OW37327   5.158   9.174   4.830 -0.2229  0.2641  0.4943
43490SOL    HW137328   5.196   9.259   4.853  0.0196  0.3626 -0.2330
43490SOL    HW237329   5.157   9.125   4.912 -0.7301  1.1070  1.0041
43491SOL     OW37330   1.102   7.730   4.321  0.2580  0.1539  0.3491
43491SOL    HW137331   1.168   7.778   4.372  1.5171  0.4019 -1.4236
43491SOL    HW237332   1.048   7.799   4.282  0.0650  0.0172  0.3788
43492SOL     OW37333   9.021   7.592   3.717 -0.6318  0.2622  0.1230
43492SOL    HW137334   9.039   7.676   3.675 -0.5417  0.2044  0.0456
43492SOL    HW237335   8.928   7.577   3.703 -0.6637  0.3865  0.2016
43493SOL     OW37336   0.359   9.071  11.470  0.0898 -0.1102  0.0847
43493SOL    HW137337   0.433   9.039  11.419 -0.4782 -0.7001 -0.4019
43493SOL    HW237338   0.295   9.099  11.404  0.3587  1.5525  0.4995
43494SOL     OW37339   5.126   0.030   0.303 -0.4313 -0.6118  0.0641
43494SOL    HW137340   5.169  -0.052   0.328  0.7867 -0.0196 -0.0344
43494SOL    HW237341   5.034   0.017   0.327 -0.5266 -2.4903 -1.1064
43495SOL     OW37342   7.794   9.010  10.995 -0.3072  0.2644 -0.2366
43495SOL    HW137343   7.725   9.034  10.934 -0.6143  2.1589  0.7898
43495SOL    HW237344   7.864   9.072  10.979  0.0063  0.1601  0.6495
43496SOL     OW37345   1.517   4.598   0.605 -0.0654 -0.1116  0.3220
43496SOL    HW137346   1.477   4.665   0.661  1.1814  0.2545  0.7937
43496SOL    HW237347   1.593   4.567   0.654 -0.5425 -1.8001  0.0466
43497SOL     OW37348  10.916   4.930   6.846 -0.2649 -0.4170  0.7984
43497SOL    HW137349  10.966   4.984   6.786  0.1583  1.0790  2.4165
43497SOL    HW237350  10.981   4.871   6.885 -0.4608 -1.0704  0.1705
43498SOL     OW37351   0.140   8.409   9.665  0.3573  0.0922  0.2198
43498SOL    HW137352   0.178   8.395   9.578  0.9734 -1.8429  0.7747
43498SOL    HW237353   0.071   8.343   9.672  2.0163 -1.5409  2.1580
43499SOL     OW37354   2.406   0.407   9.785 -0.2699  0.1445  0.5312
43499SOL    HW137355   2.361   0.374   9.707  0.1850 -0.7010  0.6149
43499SOL    HW237356   2.409   0.502   9.772  1.3462 -0.0742 -1.3812
43500SOL     OW37357   4.681   5.718   7.204 -0.0127  0.1441  0.2429
43500SOL    HW137358   4.771   5.720   7.171 -0.4395  2.5355 -0.9698
43500SOL    HW237359   4.652   5.628   7.188  1.0459  0.2182 -2.6187
43501SOL     OW37360   8.712   7.977   4.354 -0.3842 -0.0528 -0.2603
43501SOL    HW137361   8.712   8.061   4.309  3.0054  0.4503  0.4376
43501SOL    HW237362   8.740   7.914   4.288 -0.1726 -0.1402 -0.0897
43502SOL     OW37363  10.462   8.728   9.278  0.2430  0.7193  0.3912
43502SOL    HW137364  10.460   8.685   9.364 -1.0218 -1.2678 -0.5712
43502SOL    HW237365  10.374   8.762   9.266  0.4593  1.1289 -0.0617
43503SOL     OW37366   2.558   1.113   4.144 -0.2307  0.0514 -0.2032
43503SOL    HW137367   2.527   1.195   4.180 -0.5075  0.2472 -0.8690
43503SOL    HW237368   2.545   1.122   4.049  0.6586 -0.3679 -0.3743
43504SOL     OW37369   4.814   7.921   9.569  0.3748 -0.4841 -0.5010
43504SOL    HW137370   4.771   7.977   9.633  0.9661  1.0689 -1.4158
43504SOL    HW237371   4.855   7.852   9.620  0.4554  0.4620  0.7430
43505SOL     OW37372   7.945  10.526   8.159 -0.0976  0.1229  0.0027
43505SOL    HW137373   7.958  10.575   8.078  2.6974  0.9854  0.8621
43505SOL    HW237374   7.999  10.447   8.148 -1.3634 -0.8071  0.2438
43506SOL     OW37375  11.852   5.729   6.682  0.3546  0.3025 -0.1532
43506SOL    HW137376  11.870   5.635   6.691 -0.7987  0.2614  2.6052
43506SOL    HW237377  11.922   5.772   6.732  0.3625  0.8574 -0.6336
43507SOL     OW37378   1.860  11.413   3.688 -0.0780  0.3703 -0.6168
43507SOL    HW137379   1.866  11.505   3.663  0.2940 -0.1749 -2.7737
43507SOL    HW237380   1.948  11.378   3.673 -0.4138 -0.5080 -0.6344
43508SOL     OW37381   6.667  10.485   1.844  0.1144 -0.3829  0.1899
43508SOL    HW137382   6.658  10.580   1.832  2.0052 -0.3915 -1.7826
43508SOL    HW237383   6.672  10.474   1.939 -0.0449  1.4844  0.4567
43509SOL     OW37384   3.320   2.884   0.533  0.4017 -0.4494  0.2676
43509SOL    HW137385   3.303   2.791   0.516  1.5255 -0.3765 -1.6066
43509SOL    HW237386   3.335   2.922   0.446 -1.1423  1.7529  0.8701
43510SOL     OW37387   2.087  11.046   8.239  0.3323 -0.0163  0.1029
43510SOL    HW137388   2.107  11.006   8.154  0.6674 -0.3114  0.3198
43510SOL    HW237389   2.125  11.134   8.234  0.8787 -0.2467  0.1700
43511SOL     OW37390   9.982   7.955  11.582  0.1258  0.3574  0.5529
43511SOL    HW137391   9.895   7.986  11.560  0.6359  1.6407  0.2340
43511SOL    HW237392  10.041   8.009  11.528  1.1593  0.2109  1.4861
43512SOL     OW37393   1.296   2.929   8.098  0.6130  0.0565  0.0175
43512SOL    HW137394   1.275   2.948   8.190  1.8649 -0.6286  0.4646
43512SOL    HW237395   1.343   2.846   8.101  1.4674  0.4714 -1.1497
43513SOL     OW37396  12.372   3.584  10.494  0.3599 -0.0671  0.2343
43513SOL    HW137397  12.293   3.597  10.441 -0.8730  0.3616  2.0975
43513SOL    HW237398  12.430   3.656  10.468 -1.1229  1.4872  1.0139
43514SOL     OW37399  10.656   2.033  10.056 -0.3247  0.5698  0.3290
43514SOL    HW137400  10.718   1.974  10.098  0.3765  1.4726  0.5908
43514SOL    HW237401  10.574   2.018  10.102 -0.3688 -0.7575 -0.1323
43515SOL     OW37402   1.533   9.695  11.221  0.2122 -0.1913 -0.0624
43515SOL    HW137403   1.579   9.640  11.158 -0.5407  0.3838 -1.1291
43515SOL    HW237404   1.546   9.784  11.190 -0.7750  0.0485  0.1781
43516SOL     OW37405  11.224   2.120   1.023 -0.0866  0.2910 -0.3559
43516SOL    HW137406  11.153   2.073   1.067 -0.7867  1.5156 -0.1189
43516SOL    HW237407  11.244   2.066   0.946 -2.7764  0.9041 -1.6411
43517SOL     OW37408   7.070   0.518  12.205  0.1486 -0.4119 -0.6108
43517SOL    HW137409   7.035   0.600  12.171  1.7477  0.8794  0.7056
43517SOL    HW237410   7.126   0.485  12.135  1.9889  1.2885 -0.0047
43518SOL     OW37411   4.802   8.059   0.606 -0.1135  0.3327  0.3540
43518SOL    HW137412   4.746   8.043   0.682 -0.3146 -0.5895  0.0322
43518SOL    HW237413   4.748   8.032   0.531 -0.2032  1.9597 -0.1947
43519SOL     OW37414  11.509   1.716   0.376 -0.1854  0.2889  0.2084
43519SOL    HW137415  11.444   1.734   0.444 -0.1188  0.0762  0.3304
43519SOL    HW237416  11.575   1.784   0.387 -0.4506  0.5803  0.0034
43520SOL     OW37417  11.033  11.494   2.813 -0.1825  0.5475  0.1373
43520SOL    HW137418  11.063  11.507   2.723  0.6763  1.3188  0.5173
43520SOL    HW237419  10.956  11.550   2.821 -0.2271  0.5220 -0.0926
43521SOL     OW37420   6.895   5.150   4.805  0.4111  0.7298 -0.2430
43521SOL    HW137421   6.822   5.089   4.809  0.6267  0.2246 -2.5356
43521SOL    HW237422   6.971   5.096   4.783  0.6620  1.7282 -2.0209
43522SOL     OW37423   7.691   3.665  10.031 -0.6269  0.3120  0.1785
43522SOL    HW137424   7.622   3.695  10.091 -0.7025 -1.1106  0.8495
43522SOL    HW237425   7.737   3.597  10.080 -0.1150 -0.2545 -1.0568
43523SOL     OW37426   7.772   1.522  12.199  0.4396  0.1542 -0.3181
43523SOL    HW137427   7.677   1.519  12.212  0.5961  3.2968  3.6724
43523SOL    HW237428   7.786   1.601  12.146  0.7921  1.3449  1.4429
43524SOL     OW37429   5.392   3.415   2.512 -0.0768 -0.2232  0.6389
43524SOL    HW137430   5.391   3.420   2.417  0.2167 -0.2575  0.6338
43524SOL    HW237431   5.302   3.396   2.536 -0.4543  1.1938  0.4408
43525SOL     OW37432   6.559   7.025   5.128  0.3218 -0.1107 -0.3215
43525SOL    HW137433   6.477   7.070   5.148  0.8182  1.0752 -0.8855
43525SOL    HW237434   6.549   6.939   5.168 -0.2236  0.8589  1.7498
43526SOL     OW37435  10.784   1.089  12.455  0.3118 -0.1880 -0.5122
43526SOL    HW137436  10.692   1.067  12.442 -0.2796  0.4463  2.0318
43526SOL    HW237437  10.809   1.137  12.376 -1.0200 -1.8484 -2.0024
43527SOL     OW37438   8.715  10.236  10.121 -0.0524  0.1868 -0.2493
43527SOL    HW137439   8.724  10.145  10.151 -2.2267 -0.8397 -2.3823
43527SOL    HW237440   8.621  10.248  10.108 -0.0366  3.3523  1.5197
43528SOL     OW37441   3.635   7.030   2.627  0.1819 -0.2256 -0.5516
43528SOL    HW137442   3.726   7.001   2.631  0.3410  0.3288 -0.0435
43528SOL    HW237443   3.598   7.006   2.712  0.3547  1.1662 -0.0691
43529SOL     OW37444   6.155   1.728   4.934 -0.3892  0.9194  0.0959
43529SOL    HW137445   6.238   1.742   4.889 -0.5549 -0.4145 -0.6892
43529SOL    HW237446   6.089   1.731   4.864 -0.5568 -2.2633 -0.0517
43530SOL     OW37447   3.334  12.316   3.618 -0.3417  0.0528  0.1235
43530SOL    HW137448   3.267  12.342   3.682 -1.0156  0.2239 -0.6364
43530SOL    HW237449   3.323  12.378   3.546  1.2837  0.6857  0.3904
43531SOL     OW37450   8.481   8.605   6.155  0.5652 -0.1394 -0.2732
43531SOL    HW137451   8.508   8.584   6.245  0.2984  2.6323  0.5430
43531SOL    HW237452   8.391   8.636   6.164  1.0595  1.6784 -1.2310
43532SOL     OW37453   2.485   1.229   5.858 -0.7637 -0.2889  0.0651
43532SOL    HW137454   2.537   1.275   5.924 -1.6497  0.7105  0.0937
43532SOL    HW237455   2.523   1.255   5.774 -1.1098  0.3058  0.0915
43533SOL     OW37456   5.320  10.453  12.574  0.0281  0.0435 -0.0750
43533SOL    HW137457   5.415  10.442  12.574 -0.1520 -2.2622 -1.3260
43533SOL    HW237458   5.287  10.367  12.599 -1.7324  0.2400 -1.5451
43534SOL     OW37459   7.656   2.874   0.679  0.3822 -0.4257  0.3789
43534SOL    HW137460   7.660   2.779   0.682  2.7660 -0.3965  0.0958
43534SOL    HW237461   7.598   2.898   0.751  0.0266 -2.0567  0.6754
43535SOL     OW37462   7.967  10.190  11.645  0.3477 -0.3152  0.0843
43535SOL    HW137463   7.886  10.166  11.600  1.3379 -1.1554 -1.3606
43535SOL    HW237464   7.961  10.284  11.656 -1.4057 -0.5137  1.2438
43536SOL     OW37465   4.552   6.535   5.345 -0.3147 -0.6701 -0.0529
43536SOL    HW137466   4.619   6.466   5.343 -0.7422 -1.1106  0.4548
43536SOL    HW237467   4.531   6.545   5.438 -0.5907 -0.1827 -0.1678
43537SOL     OW37468  10.800   6.559   8.799 -0.4602 -0.4429 -0.1459
43537SOL    HW137469  10.893   6.536   8.788 -0.9171 -2.4517 -0.2866
43537SOL    HW237470  10.760   6.538   8.715 -1.3525 -1.4900  0.5012
43538SOL     OW37471  11.107   8.727   6.915 -0.1036  0.2674 -0.1121
43538SOL    HW137472  11.023   8.723   6.962 -0.7021  0.8928 -1.0944
43538SOL    HW237473  11.127   8.821   6.910  0.2561  0.1706 -0.5817
43539SOL     OW37474   7.808   2.424   3.729  0.3488  0.0045 -0.1633
43539SOL    HW137475   7.777   2.498   3.678 -1.2150  0.3290  1.1696
43539SOL    HW237476   7.734   2.400   3.785  1.5739 -1.0855  1.0922
43540SOL     OW37477   8.530   7.327   6.107  0.0302 -0.0889 -0.2232
43540SOL    HW137478   8.512   7.241   6.068 -1.6913  0.4353 -0.6761
43540SOL    HW237479   8.546   7.309   6.200  0.3789 -0.9602 -0.4453
43541SOL     OW37480   2.085   6.507   0.816  0.6214 -0.1144 -0.1659
43541SOL    HW137481   2.015   6.469   0.870  0.6111 -1.1635 -0.8774
43541SOL    HW237482   2.122   6.432   0.769  1.3337  0.6229 -0.8134
43542SOL     OW37483   6.920   6.026  10.372 -0.5547 -0.3021  0.2423
43542SOL    HW137484   6.881   6.057  10.454 -0.2063  1.4678 -0.2004
43542SOL    HW237485   6.846   6.000  10.318 -1.0071  0.9997  0.1934
43543SOL     OW37486  12.442   1.976   3.211  0.0255 -0.4171 -0.1915
43543SOL    HW137487  12.363   2.024   3.186 -0.2225 -0.0822  1.1809
43543SOL    HW237488  12.412   1.887   3.229  0.4159 -1.0447 -2.2917
43544SOL     OW37489   1.996  12.351  12.577 -0.2408 -0.4009 -0.7045
43544SOL    HW137490   2.006  12.256  12.569 -0.5802 -0.3930 -1.3178
43544SOL    HW237491   2.074  12.380  12.625  1.8811 -0.5154 -3.8398
43545SOL     OW37492   5.389  10.220   2.946 -0.0914  0.3916 -0.2482
43545SOL    HW137493   5.387  10.294   3.006 -0.1975  1.0474 -1.0538
43545SOL    HW237494   5.366  10.145   3.001 -1.4652  1.1583  0.2768
43546SOL     OW37495   3.901   5.839   7.354  0.3458  0.3327 -0.1991
43546SOL    HW137496   3.869   5.749   7.357  1.3932 -0.0124  1.2607
43546SOL    HW237497   3.906   5.859   7.260  3.0978 -2.2327 -0.7489
43547SOL     OW37498  12.541  11.563  11.669  0.6395  0.2568 -0.1753
43547SOL    HW137499  12.585  11.486  11.702 -1.4404 -1.1973 -0.5936
43547SOL    HW237500  12.511  11.610  11.748  3.2877  1.6063  0.1407
43548SOL     OW37501   2.310  10.801   1.398  0.2989  0.0095  0.2467
43548SOL    HW137502   2.248  10.765   1.334 -1.0885 -0.5628  1.8447
43548SOL    HW237503   2.340  10.883   1.358 -2.9299  1.2834  0.1691
43549SOL     OW37504   0.872   2.124   2.432 -0.2429  0.4392 -0.1206
43549SOL    HW137505   0.807   2.169   2.486  0.9273 -0.8000  2.5186
43549SOL    HW237506   0.938   2.190   2.413 -0.6512  0.8852 -0.0014
43550SOL     OW37507   3.071   1.096  11.979  0.3815  0.0747 -0.1500
43550SOL    HW137508   3.121   1.077  12.058  0.1361  0.4996  0.1116
43550SOL    HW237509   3.103   1.183  11.951 -1.3653  1.1361  0.9612
43551SOL     OW37510   3.922   9.226   5.600  0.3906  0.8924  0.1074
43551SOL    HW137511   3.861   9.205   5.530 -0.7655  0.3645  1.2362
43551SOL    HW237512   3.875   9.205   5.680  1.8300  1.0758  1.0412
43552SOL     OW37513   8.898   3.068   5.839  0.2780  0.8276 -0.0649
43552SOL    HW137514   8.942   3.086   5.756  0.8864  1.2746  0.3469
43552SOL    HW237515   8.925   2.979   5.862 -0.3446  0.4833 -0.6151
43553SOL     OW37516   8.188   5.578   6.395 -0.1964  0.0620  0.2411
43553SOL    HW137517   8.226   5.542   6.315  0.5177 -1.0919  1.0728
43553SOL    HW237518   8.121   5.515   6.421 -2.3938  1.7797 -0.8805
43554SOL     OW37519   4.741  10.752  12.543  0.3052  0.2941 -0.5800
43554SOL    HW137520   4.725  10.704  12.623 -1.2943  0.5469 -0.7220
43554SOL    HW237521   4.824  10.717  12.510  0.3481 -0.6897  0.5256
43555SOL     OW37522   6.640   3.980   0.839  0.0350 -0.3913  0.4149
43555SOL    HW137523   6.716   3.937   0.799 -0.7837 -0.6596 -0.8988
43555SOL    HW237524   6.636   3.942   0.927  0.3484 -1.7693 -0.1319
43556SOL     OW37525   5.126   1.990   4.583 -0.3370 -0.0401 -0.1584
43556SOL    HW137526   5.139   2.080   4.615  0.6177  0.3464 -1.4981
43556SOL    HW237527   5.048   1.995   4.528 -1.0027 -0.3261  0.7414
43557SOL     OW37528  11.175   3.885   7.623  0.1432 -0.6853 -0.7550
43557SOL    HW137529  11.226   3.831   7.562  3.5329  2.1488 -0.7907
43557SOL    HW237530  11.220   3.875   7.707 -2.5399 -2.0413  0.6564
43558SOL     OW37531  10.711   7.428   9.039 -0.1868 -0.7341  0.2339
43558SOL    HW137532  10.779   7.382   9.088 -1.1205 -0.9902  1.3306
43558SOL    HW237533  10.751   7.446   8.954  1.3658 -0.5747  0.9628
43559SOL     OW37534   7.572   4.387   2.862  0.0449  0.6584  0.1513
43559SOL    HW137535   7.616   4.302   2.862 -1.9883 -0.4801  0.8359
43559SOL    HW237536   7.482   4.367   2.889 -0.3898  3.1082  0.7739
43560SOL     OW37537   4.531   5.446   1.054 -0.2554  0.1957 -0.1502
43560SOL    HW137538   4.518   5.386   0.980  0.3121 -0.6701  0.4311
43560SOL    HW237539   4.443   5.473   1.079 -0.4520  0.5325 -1.1686
43561SOL     OW37540   9.624   6.992   4.758 -0.1382 -0.0969  0.0752
43561SOL    HW137541   9.664   7.019   4.676 -1.4253 -0.4345 -0.6969
43561SOL    HW237542   9.568   7.065   4.783  1.2754  0.5800  1.4057
43562SOL     OW37543   4.497   0.289   0.089 -0.5036  0.3194  0.1388
43562SOL    HW137544   4.549   0.264   0.012 -2.1207  0.5376 -1.0588
43562SOL    HW237545   4.562   0.318   0.153  0.7642  2.1726 -1.8804
43563SOL     OW37546   8.562   7.978   8.908  0.3520  0.6852 -0.8335
43563SOL    HW137547   8.544   8.049   8.847 -0.2667  0.2080 -1.2263
43563SOL    HW237548   8.500   7.909   8.883  2.1288 -0.6924 -1.6398
43564SOL     OW37549   2.051   9.504  12.527 -0.4207 -0.1250 -0.0435
43564SOL    HW137550   1.985   9.539  12.587  0.4871 -0.4873  1.1905
43564SOL    HW237551   2.099   9.439  12.578  1.9649  1.2521 -0.3895
43565SOL     OW37552   2.202   7.049   2.019  0.5528  0.2810 -0.3042
43565SOL    HW137553   2.137   7.113   2.050  0.0289 -0.8698  1.1504
43565SOL    HW237554   2.153   6.992   1.959  0.9209  1.0084 -1.3028
43566SOL     OW37555   8.680   9.388   6.222  0.2305  0.1730 -0.0035
43566SOL    HW137556   8.616   9.385   6.293  0.8574 -0.4347  0.5516
43566SOL    HW237557   8.757   9.343   6.257  1.3407  1.7645 -0.3019
43567SOL     OW37558  10.235   9.816   1.920  0.5709  0.4477  0.3607
43567SOL    HW137559  10.324   9.780   1.913  0.1813 -0.7642  1.2239
43567SOL    HW237560  10.243   9.907   1.891  1.8711  0.0491 -0.6127
43568SOL     OW37561  12.431   5.887   8.026 -0.2210  0.1992  0.6737
43568SOL    HW137562  12.424   5.798   8.063 -1.6902 -0.7449 -1.6580
43568SOL    HW237563  12.525   5.902   8.016  0.0522 -1.1269  1.0329
43569SOL     OW37564  12.559  11.377   0.791  0.5343 -0.1266 -0.0300
43569SOL    HW137565  12.500  11.321   0.840 -0.0206  0.7022  0.2610
43569SOL    HW237566  12.549  11.349   0.700 -1.2526  0.8213 -0.1585
43570SOL     OW37567   2.592  12.383   7.149  0.1105 -0.2292  0.1033
43570SOL    HW137568   2.618  12.426   7.067  0.5169 -1.8094 -0.6345
43570SOL    HW237569   2.652  12.419   7.215  0.5866  0.1531 -0.5256
43571SOL     OW37570   3.859  11.199   2.564  0.2355 -0.2051  0.0483
43571SOL    HW137571   3.930  11.182   2.626 -0.0430  0.0472  0.4434
43571SOL    HW237572   3.822  11.282   2.593 -0.5279 -0.5707  0.1439
43572SOL     OW37573   2.308   7.376  11.910  0.1652  0.3108 -0.2881
43572SOL    HW137574   2.383   7.339  11.864  1.3140 -0.3871  1.9849
43572SOL    HW237575   2.341   7.457  11.948 -1.0729  1.4408 -1.5502
43573SOL     OW37576   2.198   0.044   5.514  0.2326  0.2298 -0.1647
43573SOL    HW137577   2.144   0.123   5.517  0.7099  0.5796 -0.6412
43573SOL    HW237578   2.212   0.021   5.606  0.1514  0.7378 -0.0207
43574SOL     OW37579  10.831   7.166   4.517  0.1522 -0.8217  0.0609
43574SOL    HW137580  10.885   7.133   4.589 -1.6418 -1.9722  0.9576
43574SOL    HW237581  10.821   7.259   4.536  3.4280 -0.0491 -1.2717
43575SOL     OW37582   5.335   1.764   2.783  0.3026 -0.0117  0.1485
43575SOL    HW137583   5.284   1.698   2.830 -2.2862  0.9294 -1.1080
43575SOL    HW237584   5.374   1.818   2.852 -1.7569  0.1629  1.2678
43576SOL     OW37585   6.543   9.430   3.579  0.0940  0.2309  0.4727
43576SOL    HW137586   6.577   9.519   3.572 -1.4435  0.9275  1.3410
43576SOL    HW237587   6.509   9.410   3.491  0.1104  0.6477  0.3724
43577SOL     OW37588   9.348  11.796   0.445  0.0014  0.0084  0.2788
43577SOL    HW137589   9.437  11.764   0.457 -0.2604 -0.1815  2.0564
43577SOL    HW237590   9.294  11.738   0.498 -1.0458  0.7552  0.0726
43578SOL     OW37591   0.695   8.212   2.368  0.0422 -0.3593 -0.6465
43578SOL    HW137592   0.730   8.124   2.380  0.0616 -0.9256 -3.8343
43578SOL    HW237593   0.602   8.198   2.350  0.2166  0.1226 -2.0446
43579SOL     OW37594  11.517   4.232   5.492 -0.0068  0.4565  0.4178
43579SOL    HW137595  11.448   4.278   5.540 -1.4939 -0.3947 -0.8226
43579SOL    HW237596  11.517   4.272   5.405  1.2980  0.6405  0.4778
43580SOL     OW37597   6.321   4.544   3.495 -0.2371  0.0659  0.1907
43580SOL    HW137598   6.255   4.503   3.439 -0.5116 -0.1586  0.6768
43580SOL    HW237599   6.342   4.477   3.561  0.6644  0.0423 -0.1095
43581SOL     OW37600   6.717   4.638   2.887 -0.0486 -0.2937  0.3089
43581SOL    HW137601   6.640   4.638   2.944  0.4142 -0.3876  0.9296
43581SOL    HW237602   6.737   4.731   2.873 -1.0918 -0.2172 -0.9836
43582SOL     OW37603   1.151   3.269   8.930  0.4194  0.8057 -0.1162
43582SOL    HW137604   1.101   3.329   8.875 -0.0861  0.6846  0.2009
43582SOL    HW237605   1.085   3.213   8.970  0.7602  1.0070  0.7547
43583SOL     OW37606   3.398   0.345  12.507  0.1616 -0.3862 -0.0879
43583SOL    HW137607   3.350   0.292  12.444 -0.7321  0.8576 -0.5106
43583SOL    HW237608   3.377   0.436  12.482  1.4628  0.1582  0.7197
43584SOL     OW37609   7.802   4.514   2.150  0.1432  0.2006  0.0749
43584SOL    HW137610   7.711   4.508   2.180 -0.6654 -0.5980 -2.3775
43584SOL    HW237611   7.816   4.608   2.135  0.0163  0.4135  1.1510
43585SOL     OW37612   9.102  10.509   3.292  0.3130  0.5385  0.2688
43585SOL    HW137613   9.007  10.507   3.287  0.2753  2.4463 -0.8541
43585SOL    HW237614   9.125  10.433   3.345 -1.7916 -0.2428  0.1565
43586SOL     OW37615   7.784  11.901  11.153  0.0487 -0.3907 -0.0917
43586SOL    HW137616   7.728  11.828  11.128 -0.1523  0.2504 -1.6076
43586SOL    HW237617   7.862  11.892  11.097  0.3766  0.1022  0.2770
43587SOL     OW37618  11.499   1.413   3.961  0.1735  0.5914 -0.6745
43587SOL    HW137619  11.567   1.347   3.973  0.7357  1.1101 -0.9997
43587SOL    HW237620  11.463   1.394   3.874 -0.3785  0.0697 -0.3415
43588SOL     OW37621  11.252   5.162   3.437  0.0191  0.5608  0.8903
43588SOL    HW137622  11.196   5.190   3.510 -1.9292 -1.4107  0.2841
43588SOL    HW237623  11.254   5.237   3.378  0.3883  1.6673  2.2449
43589SOL     OW37624  11.367  10.954  11.711  0.5402 -0.0740 -0.0347
43589SOL    HW137625  11.406  10.868  11.730  1.1629  0.2097  0.0157
43589SOL    HW237626  11.397  10.974  11.622  1.4364  0.6360  0.4083
43590SOL     OW37627   1.880   4.136   3.227  0.0192 -0.7252 -0.2652
43590SOL    HW137628   1.895   4.211   3.170  0.4814 -0.0888  0.6730
43590SOL    HW237629   1.790   4.145   3.257  1.1202  1.6674  2.8845
43591SOL     OW37630   2.821   7.437   1.588  0.0204  0.7469 -0.1238
43591SOL    HW137631   2.878   7.360   1.592 -0.3379  0.5094  0.5909
43591SOL    HW237632   2.880   7.511   1.577  0.3490  0.3453 -1.2980
43592SOL     OW37633   1.774  12.547  10.841 -0.0890  0.0856 -0.3351
43592SOL    HW137634   1.832  12.622  10.837  1.5382 -0.9527  1.6166
43592SOL    HW237635   1.826  12.475  10.805 -1.1502 -0.3875 -0.9785
43593SOL     OW37636   7.823  11.226   7.423 -1.3212 -0.7063 -0.5400
43593SOL    HW137637   7.816  11.295   7.357  2.5913  0.4057 -0.0411
43593SOL    HW237638   7.880  11.161   7.383  1.3016  0.0852  1.6380
43594SOL     OW37639   4.675   9.456   6.034 -0.0955  0.1821  0.2639
43594SOL    HW137640   4.652   9.363   6.028 -0.6358  0.4052 -1.7044
43594SOL    HW237641   4.704   9.480   5.946 -0.0064  1.8919  0.7197
43595SOL     OW37642   2.133   9.284   8.630  0.0956  0.5880 -0.0422
43595SOL    HW137643   2.155   9.272   8.722  1.9833  2.2164 -0.2264
43595SOL    HW237644   2.110   9.377   8.622 -0.0980  0.4595 -1.2182
43596SOL     OW37645  10.270   9.881   3.642  0.1295 -0.0964 -0.2713
43596SOL    HW137646  10.182   9.912   3.619  0.4377  1.3331  0.3552
43596SOL    HW237647  10.266   9.786   3.630 -0.7350  0.1727 -2.7585
43597SOL     OW37648  10.384  11.413   4.847 -0.5665 -0.8281 -0.0605
43597SOL    HW137649  10.343  11.457   4.922  0.9914  0.3701  0.1353
43597SOL    HW237650  10.415  11.330   4.882 -0.7075 -0.7038  0.3675
43598SOL     OW37651   5.438   4.933   2.589 -0.2507 -0.0934 -0.3561
43598SOL    HW137652   5.462   5.007   2.533 -2.4463  0.0208 -1.2359
43598SOL    HW237653   5.349   4.912   2.563 -0.4343 -1.6698  1.4045
43599SOL     OW37654   6.441   6.837   9.461 -0.3213 -0.9372 -0.5910
43599SOL    HW137655   6.468   6.850   9.552  0.4933  0.0833 -0.9668
43599SOL    HW237656   6.367   6.777   9.467  1.4931 -3.2141  0.5258
43600SOL     OW37657   3.471   9.283   6.756  0.2570  0.2735 -0.2717
43600SOL    HW137658   3.530   9.340   6.805 -1.6267  0.9322  1.3711
43600SOL    HW237659   3.434   9.224   6.822 -0.6660 -0.3365 -1.3016
43601SOL     OW37660   8.891  12.042   8.851  0.0972  0.1858  0.6261
43601SOL    HW137661   8.851  12.127   8.832 -0.4385 -0.1601  0.1718
43601SOL    HW237662   8.984  12.056   8.834 -0.3241 -0.1101 -2.5452
43602SOL     OW37663  11.498   2.936   0.728 -0.2198  0.3394  0.1758
43602SOL    HW137664  11.521   2.922   0.636  2.4193 -1.1194  0.9427
43602SOL    HW237665  11.581   2.928   0.775 -1.2069  2.5553  2.5924
43603SOL     OW37666   2.720  10.796   8.609 -0.1209  0.0620  0.1741
43603SOL    HW137667   2.717  10.735   8.535  0.4113  0.4772 -0.1887
43603SOL    HW237668   2.810  10.790   8.641 -0.3747 -0.1969  0.8632
43604SOL     OW37669   9.267   6.963   7.672 -0.4238 -0.4540 -0.0052
43604SOL    HW137670   9.223   6.976   7.588 -2.0590  1.8989  1.1146
43604SOL    HW237671   9.212   6.900   7.719 -1.3745  0.6921  0.4825
43605SOL     OW37672   6.923   4.582  12.046 -0.0682  0.0462 -0.0354
43605SOL    HW137673   6.889   4.506  12.094 -0.1131  0.1494  0.0961
43605SOL    HW237674   7.018   4.570  12.046 -0.0947 -0.1942 -0.3208
43606SOL     OW37675   5.025   2.663   2.113 -0.5567 -0.8283  0.0306
43606SOL    HW137676   5.109   2.656   2.158 -0.6802 -1.3388  0.1969
43606SOL    HW237677   5.033   2.603   2.038 -0.3862 -0.0555 -0.5754
43607SOL     OW37678   4.288   7.937   7.392  0.9044  0.3839 -0.2326
43607SOL    HW137679   4.327   7.953   7.306 -0.3298  0.2081 -0.8373
43607SOL    HW237680   4.282   7.842   7.399  0.2719  0.4186 -0.2857
43608SOL     OW37681   6.442   2.040   7.917  0.2033  0.0542  0.1817
43608SOL    HW137682   6.462   2.013   8.007  3.5146  0.2100 -0.3800
43608SOL    HW237683   6.346   2.037   7.912 -0.1194  0.1258  3.7013
43609SOL     OW37684   8.370  12.196  12.236 -0.0410  0.6413 -0.1616
43609SOL    HW137685   8.431  12.221  12.167 -0.6909  2.3778 -0.1599
43609SOL    HW237686   8.413  12.223  12.318  1.3944 -2.7337  0.3489
43610SOL     OW37687   6.670   8.388  10.103 -0.1148 -0.7485  0.5266
43610SOL    HW137688   6.708   8.364  10.187  0.3699 -2.5819 -0.1651
43610SOL    HW237689   6.688   8.312  10.046 -0.1553  0.5557 -1.3065
43611SOL     OW37690   9.060   0.027   0.377  0.6621  0.1448  0.7789
43611SOL    HW137691   9.132  -0.037   0.382  0.1715 -0.6337 -1.2369
43611SOL    HW237692   9.010   0.013   0.457  2.7916  0.8008  2.3169
43612SOL     OW37693   7.955   2.841  10.521  0.3264 -0.5066 -0.2339
43612SOL    HW137694   7.865   2.832  10.492  0.2728 -1.1606  0.1429
43612SOL    HW237695   7.967   2.774  10.588  0.8843  0.0346  0.2221
43613SOL     OW37696   8.905   6.920  11.488 -0.1970  0.3229 -0.3040
43613SOL    HW137697   8.909   6.888  11.397  0.6523 -0.8634  0.1243
43613SOL    HW237698   8.981   6.880  11.530 -1.7126 -0.8636  1.4594
43614SOL     OW37699   8.015   7.389   0.634 -0.2545 -0.2564 -0.1518
43614SOL    HW137700   8.072   7.341   0.574  1.1432  0.6691  0.3784
43614SOL    HW237701   8.029   7.481   0.612 -0.8036  0.0274  0.6443
43615SOL     OW37702   5.940   9.327  11.979  0.1488  0.0164  0.2079
43615SOL    HW137703   5.907   9.390  12.043  0.1041  0.7777 -0.5522
43615SOL    HW237704   5.995   9.379  11.920  0.1816 -0.6750 -0.3829
43616SOL     OW37705  11.886  10.750   8.793  0.0516 -0.4593 -0.3166
43616SOL    HW137706  11.869  10.656   8.801  0.6831 -0.5809 -0.3824
43616SOL    HW237707  11.831  10.790   8.861  2.0742 -1.1278  1.8670
43617SOL     OW37708   7.751  11.523   8.869  0.1838  0.2903 -0.0679
43617SOL    HW137709   7.718  11.564   8.789  0.0331  0.0875 -0.1121
43617SOL    HW237710   7.768  11.432   8.844 -2.4762 -0.5214  0.7985
43618SOL     OW37711   3.737   9.878   2.091  0.4617  0.0658 -0.4518
43618SOL    HW137712   3.719   9.784   2.100 -0.7191  0.0577 -2.3136
43618SOL    HW237713   3.833   9.884   2.088  0.5840 -0.9462  0.5926
43619SOL     OW37714  11.663  12.285   7.345  0.4025  0.2224 -0.3246
43619SOL    HW137715  11.636  12.286   7.253 -2.5678 -3.1969  0.2914
43619SOL    HW237716  11.737  12.225   7.348  0.7011  0.5752 -0.4755
43620SOL     OW37717   6.844   4.653   0.444 -0.0348  0.0006  0.8574
43620SOL    HW137718   6.789   4.650   0.522 -3.2739 -0.5650 -1.2635
43620SOL    HW237719   6.822   4.574   0.395  2.2345  0.0904 -0.4461
43621SOL     OW37720   0.008   7.233   6.166  0.2698 -0.4736  0.1562
43621SOL    HW137721  -0.048   7.166   6.205  0.3117 -0.2839  0.5429
43621SOL    HW237722  -0.040   7.263   6.089 -0.6216  0.3862  1.0201
43622SOL     OW37723   7.905   2.096  11.966  0.5533 -0.4151  0.5701
43622SOL    HW137724   7.824   2.097  11.914  0.1604  0.9328  1.1651
43622SOL    HW237725   7.965   2.040  11.916 -0.6394 -1.2038 -0.0285
43623SOL     OW37726  11.691   2.898  11.790 -0.5999 -0.0777 -0.1866
43623SOL    HW137727  11.756   2.950  11.743  0.9714 -2.5047 -0.8836
43623SOL    HW237728  11.695   2.812  11.749 -3.3535 -0.6893  0.6471
43624SOL     OW37729   3.815   0.194   5.608 -0.3407  0.2864 -0.2616
43624SOL    HW137730   3.904   0.196   5.642 -0.2828 -1.5155 -0.1885
43624SOL    HW237731   3.783   0.283   5.618  1.3152  0.8763  0.0674
43625SOL     OW37732  11.378   0.684   1.511 -0.5861 -0.9439 -0.5470
43625SOL    HW137733  11.380   0.711   1.603  0.8835 -1.8572 -0.2678
43625SOL    HW237734  11.288   0.655   1.495 -0.4305 -2.5009  1.1462
43626SOL     OW37735   8.375   8.525   0.752  0.1184  0.4916  0.1802
43626SOL    HW137736   8.449   8.584   0.769  1.0447 -0.1792 -1.3251
43626SOL    HW237737   8.416   8.443   0.723 -1.2008 -0.2184  0.2575
43627SOL     OW37738   8.270   2.637   7.445 -0.0279  0.4109 -0.9507
43627SOL    HW137739   8.306   2.716   7.485 -0.4577 -0.2081  0.7336
43627SOL    HW237740   8.319   2.627   7.363  3.3494 -0.1359  0.9575
43628SOL     OW37741  12.135  10.943   2.583  0.1775 -0.8453 -0.2720
43628SOL    HW137742  12.060  10.947   2.524 -0.5289 -0.4152  0.6260
43628SOL    HW237743  12.170  10.854   2.571 -0.7618 -1.2156 -0.3701
43629SOL     OW37744  10.806   9.280   4.055 -0.0326  0.2106  0.1787
43629SOL    HW137745  10.827   9.300   4.146 -0.5107  1.4649  0.0319
43629SOL    HW237746  10.892   9.265   4.014  0.1129 -2.2324  1.1888
43630SOL     OW37747  10.818   1.396   8.157 -0.7320 -0.1593 -0.1431
43630SOL    HW137748  10.913   1.399   8.164 -0.7310 -1.1024  0.4958
43630SOL    HW237749  10.799   1.426   8.068  0.2396 -0.9328 -0.6271
43631SOL     OW37750   1.825  10.341   8.007 -0.4629  0.0780 -0.0799
43631SOL    HW137751   1.893  10.403   7.980  0.6776 -0.2296  1.8620
43631SOL    HW237752   1.755  10.396   8.041  1.0577  0.4211  2.8097
43632SOL     OW37753   2.388   2.004   3.675  0.5322 -0.1888 -0.9193
43632SOL    HW137754   2.395   2.084   3.622  0.8586  1.0945  0.9876
43632SOL    HW237755   2.294   1.988   3.681  0.2497  1.6868  0.9307
43633SOL     OW37756   1.359   6.351  10.122 -0.2748 -0.0012 -0.9633
43633SOL    HW137757   1.346   6.410  10.196 -0.9038 -1.0333 -0.2253
43633SOL    HW237758   1.272   6.335  10.088  0.1028  1.3340 -2.6578
43634SOL     OW37759   7.229   3.253   7.749  0.4602 -0.1594  0.4433
43634SOL    HW137760   7.267   3.256   7.837  2.4736  2.2762 -0.3762
43634SOL    HW237761   7.141   3.289   7.759  0.8919  0.6698  1.3718
43635SOL     OW37762   8.134  10.612   1.290 -0.3895  0.8896 -0.2922
43635SOL    HW137763   8.151  10.691   1.341 -1.0688  1.2168 -0.5745
43635SOL    HW237764   8.040  10.612   1.274 -0.5304 -0.3806  0.3639
43636SOL     OW37765   7.034   8.069   0.363  0.2318 -0.0921  0.6171
43636SOL    HW137766   7.026   8.139   0.427 -0.9124  0.2478  0.1186
43636SOL    HW237767   7.059   8.113   0.282 -2.3413  0.0371 -0.1857
43637SOL     OW37768   7.652   1.668   0.278 -0.5537  0.1644 -0.0122
43637SOL    HW137769   7.676   1.687   0.187 -0.3592  1.4275  0.2844
43637SOL    HW237770   7.557   1.681   0.281 -0.5016  0.5285  0.0598
43638SOL     OW37771   1.857   8.356   3.002  0.4426 -0.3511  0.0472
43638SOL    HW137772   1.905   8.273   3.000 -0.8934 -1.1438 -0.5668
43638SOL    HW237773   1.812   8.356   3.087  0.9123  0.0325  0.2998
43639SOL     OW37774   3.394   5.157   8.882 -0.0049  0.7222 -0.1462
43639SOL    HW137775   3.397   5.066   8.853 -0.7961  0.5739  0.2058
43639SOL    HW237776   3.324   5.196   8.829  0.7263  1.2885 -0.7186
43640SOL     OW37777   7.336   1.868   5.228  0.0963 -0.4986  0.8874
43640SOL    HW137778   7.258   1.854   5.282  0.3992 -2.9078  0.8034
43640SOL    HW237779   7.321   1.814   5.150  1.2225  0.1575  0.1880
43641SOL     OW37780   3.138   3.818   9.093 -0.3950  0.1776 -0.1368
43641SOL    HW137781   3.184   3.845   9.013  0.3932 -1.0432 -0.1263
43641SOL    HW237782   3.055   3.784   9.062  0.2225 -1.0122 -0.5408
43642SOL     OW37783  11.970   5.131   2.571 -0.3982  0.2716  0.5663
43642SOL    HW137784  12.018   5.061   2.525 -1.1087 -0.4428  0.8942
43642SOL    HW237785  11.953   5.095   2.658  0.6867  1.5089  1.3304
43643SOL     OW37786  10.387   5.102  12.164 -0.3020 -0.2437  0.1369
43643SOL    HW137787  10.367   5.065  12.078 -1.5809  1.4440 -0.3394
43643SOL    HW237788  10.316   5.164  12.181  0.0474 -0.3556  2.3216
43644SOL     OW37789   4.237   9.179   6.252  0.5436 -0.3504 -0.2601
43644SOL    HW137790   4.327   9.211   6.242  1.6860 -2.3747  2.1165
43644SOL    HW237791   4.207   9.216   6.335 -0.3821 -0.5825 -0.4752
43645SOL     OW37792   6.456   4.683  11.086  0.4919 -0.1303 -0.0703
43645SOL    HW137793   6.432   4.766  11.127  1.7507 -0.6410  1.8779
43645SOL    HW237794   6.500   4.635  11.156 -0.5024 -2.5871 -1.0312
43646SOL     OW37795   5.510   5.464   8.570  0.0650  0.0644  0.2180
43646SOL    HW137796   5.595   5.431   8.540  0.0650  0.3129 -0.0644
43646SOL    HW237797   5.453   5.456   8.494  0.3210  1.6246 -0.1755
43647SOL     OW37798   2.318   1.034   2.324  0.2778 -0.7398 -0.0161
43647SOL    HW137799   2.363   1.030   2.239  1.6561 -1.9967  0.7392
43647SOL    HW237800   2.242   1.089   2.307  0.4289 -1.0762 -2.1211
43648SOL     OW37801   7.856   2.662   5.815  0.9190  0.0106 -0.5631
43648SOL    HW137802   7.820   2.574   5.809  0.6582  0.1397 -0.9548
43648SOL    HW237803   7.922   2.657   5.884  0.2496 -0.2596  0.0662
43649SOL     OW37804   0.738   5.855   6.641 -0.0385 -0.9471 -0.0379
43649SOL    HW137805   0.725   5.762   6.624 -1.8773 -1.2950  2.7368
43649SOL    HW237806   0.794   5.859   6.718 -0.4448  0.2016  0.2327
43650SOL     OW37807   1.431   2.747  10.015  0.6149 -0.0290  0.0881
43650SOL    HW137808   1.477   2.828   9.996  1.4121 -0.3223  0.7090
43650SOL    HW237809   1.380   2.766  10.093 -0.6406  0.4048 -0.8040
43651SOL     OW37810  12.148   2.961   1.020  0.2892  0.0233 -0.3685
43651SOL    HW137811  12.157   3.000   1.107  0.3104 -1.0060  0.0999
43651SOL    HW237812  12.141   3.036   0.961  2.0640  0.7575  0.3065
43652SOL     OW37813  12.190   0.840   2.520  0.0262  0.4215 -0.0801
43652SOL    HW137814  12.113   0.895   2.508 -1.1855 -1.3539 -0.7743
43652SOL    HW237815  12.196   0.789   2.439  0.6264 -1.0364  0.8449
43653SOL     OW37816   9.293   3.268   1.830 -0.3154  0.1817 -0.0625
43653SOL    HW137817   9.287   3.336   1.763 -0.3920  0.2500  0.0136
43653SOL    HW237818   9.251   3.192   1.791  1.2946 -0.3569 -0.8205
43654SOL     OW37819   7.633   3.238   2.098  0.6287 -0.0615  0.0965
43654SOL    HW137820   7.683   3.250   2.178 -1.1554 -0.0233  1.2771
43654SOL    HW237821   7.671   3.160   2.057  2.0735  0.3797  0.5507
43655SOL     OW37822   1.769   4.749   8.534  0.3141 -0.4421  0.4497
43655SOL    HW137823   1.689   4.783   8.494 -0.0556 -1.7933 -0.0198
43655SOL    HW237824   1.738   4.683   8.596  0.9425  0.8395  2.2065
43656SOL     OW37825  12.027   2.848  10.083  0.2808 -0.8358 -0.0237
43656SOL    HW137826  12.063   2.764  10.056  1.6163 -0.6003  0.9193
43656SOL    HW237827  11.973   2.828  10.159 -0.0175 -0.9336 -0.2587
43657SOL     OW37828  12.001   3.412   2.228 -0.1268  0.3719 -0.1467
43657SOL    HW137829  12.027   3.404   2.136 -0.9814  0.4255 -0.4002
43657SOL    HW237830  12.022   3.326   2.266 -0.0426  0.2505 -0.4631
43658SOL     OW37831   5.487   1.719   5.654 -0.1173 -0.4234  0.6260
43658SOL    HW137832   5.505   1.809   5.627  0.8373 -0.3592  1.3988
43658SOL    HW237833   5.506   1.666   5.577 -1.1499  0.0635  0.0175
43659SOL     OW37834   7.247   9.979  10.181  0.2324  0.0988  0.3530
43659SOL    HW137835   7.321  10.005  10.125 -0.8907  0.2309 -1.1543
43659SOL    HW237836   7.178  10.043  10.161 -0.8024 -0.9159  0.5572
43660SOL     OW37837  10.365   2.671  10.006  0.0431 -0.4930 -0.2044
43660SOL    HW137838  10.427   2.608  10.042  1.2563  0.4720 -0.4965
43660SOL    HW237839  10.385   2.753  10.052  1.7584  0.8420 -3.0463
43661SOL     OW37840   3.179   8.504   0.418 -0.2754  0.3752 -0.5823
43661SOL    HW137841   3.125   8.431   0.387 -0.1221 -0.3268  0.7284
43661SOL    HW237842   3.269   8.470   0.414 -0.1642  0.6429 -0.3551
43662SOL     OW37843   0.647   9.774   8.467 -0.5392 -0.1045  0.1953
43662SOL    HW137844   0.689   9.839   8.525 -0.6784 -0.2360  0.4443
43662SOL    HW237845   0.720   9.739   8.416  0.0385 -1.8495  2.0708
43663SOL     OW37846   2.627   7.339  12.384  0.1429  0.2801  0.0610
43663SOL    HW137847   2.678   7.416  12.360 -3.1172  2.5904 -0.0812
43663SOL    HW237848   2.639   7.279  12.310  1.4311  1.3323 -0.6320
43664SOL     OW37849   7.825  12.089   7.147 -0.1048 -0.2134  0.1583
43664SOL    HW137850   7.866  12.009   7.179 -1.8447 -1.5473 -0.8013
43664SOL    HW237851   7.875  12.112   7.069 -1.2029 -1.9381 -1.1180
43665SOL     OW37852   0.860   3.927  12.056 -0.2833 -0.8635  0.0022
43665SOL    HW137853   0.807   3.982  11.998 -3.0982 -0.0435  3.0227
43665SOL    HW237854   0.932   3.896  12.001 -0.2481  3.2634 -2.7274
43666SOL     OW37855   6.944   8.262   7.746  0.1744  0.6278  0.2541
43666SOL    HW137856   6.953   8.248   7.841 -1.1672 -2.8033  0.0393
43666SOL    HW237857   6.850   8.260   7.731  0.3016 -4.1668 -1.5378
43667SOL     OW37858   9.928  10.747   5.496 -0.6548 -0.3155 -0.3645
43667SOL    HW137859   9.862  10.787   5.553 -2.2606 -1.6322 -1.2108
43667SOL    HW237860   9.889  10.664   5.468  2.8474 -3.0040  1.9330
43668SOL     OW37861   1.386   1.540   6.710 -0.1035  0.6935  0.3593
43668SOL    HW137862   1.323   1.550   6.781 -0.8488  1.9708 -0.4533
43668SOL    HW237863   1.352   1.467   6.657  0.7784 -0.6740  1.6006
43669SOL     OW37864   9.314  11.018   1.806  0.1200 -0.5155  0.7184
43669SOL    HW137865   9.364  10.997   1.726 -0.3884 -0.3140  0.3402
43669SOL    HW237866   9.362  11.092   1.844  0.4903 -0.7508  0.7166
43670SOL     OW37867   6.186   5.651   6.978  0.7345  0.1289  0.7622
43670SOL    HW137868   6.092   5.657   6.961  0.7814 -0.0869  0.4150
43670SOL    HW237869   6.192   5.623   7.070  0.4582  0.0220  0.7495
43671SOL     OW37870   0.425   4.699  10.002  0.1158  0.1548  0.3677
43671SOL    HW137871   0.332   4.676  10.008 -0.3986  2.2782  1.2524
43671SOL    HW237872   0.443   4.749  10.082  2.0039 -0.0739  0.1449
43672SOL     OW37873   0.116  12.156  12.385 -0.0755  0.2067 -0.3040
43672SOL    HW137874   0.178  12.227  12.406 -0.9142  0.5074  1.2963
43672SOL    HW237875   0.148  12.081  12.434 -0.2160 -0.0223 -0.5603
43673SOL     OW37876   9.670   5.840   7.167  0.2787 -0.2564  0.2530
43673SOL    HW137877   9.729   5.843   7.242 -0.6302 -0.3219  0.9997
43673SOL    HW237878   9.724   5.808   7.095  1.6570  1.6690  0.3792
43674SOL     OW37879   8.015  11.949  12.266 -0.0485  0.2115 -0.2168
43674SOL    HW137880   7.989  11.866  12.228 -1.4450 -0.0036  1.1202
43674SOL    HW237881   7.936  11.982  12.309  1.1590  0.8924  1.6308
43675SOL     OW37882   1.440   4.700   3.305  0.3490 -0.1092 -0.2400
43675SOL    HW137883   1.522   4.743   3.281 -0.7081  3.2080  1.4872
43675SOL    HW237884   1.425   4.726   3.396 -2.9861  0.1795 -0.7450
43676SOL     OW37885   9.462   5.397  11.597 -0.5153 -0.4731  0.3631
43676SOL    HW137886   9.512   5.325  11.559  2.0903  0.5329  1.6706
43676SOL    HW237887   9.505   5.476  11.564 -1.7070  0.4711  0.9910
43677SOL     OW37888  11.040  12.223  10.209 -0.3938  0.2609 -0.6162
43677SOL    HW137889  11.110  12.165  10.240 -0.0361  1.1000  0.1876
43677SOL    HW237890  11.079  12.269  10.135 -1.1895 -1.6151 -2.2853
43678SOL     OW37891   3.485  11.601   1.745  0.0583  0.2214 -0.0052
43678SOL    HW137892   3.557  11.631   1.689  0.1026 -1.5780 -1.0164
43678SOL    HW237893   3.427  11.553   1.686 -1.9794  1.5754  0.8115
43679SOL     OW37894   1.071   1.205  11.404 -0.0605  0.1312 -0.0274
43679SOL    HW137895   1.157   1.226  11.368  0.0423 -0.4310 -0.1228
43679SOL    HW237896   1.061   1.111  11.389  0.1353 -0.2118  1.7344
43680SOL     OW37897   7.523   7.847   1.289 -0.0538 -0.2825  0.6846
43680SOL    HW137898   7.565   7.863   1.373  2.2109 -0.8324 -0.2872
43680SOL    HW237899   7.561   7.765   1.258 -1.2027 -0.3353 -0.6764
43681SOL     OW37900   5.083   4.742   9.264  0.0129 -0.1934 -0.1724
43681SOL    HW137901   5.161   4.785   9.229 -1.1179  2.0400 -0.1264
43681SOL    HW237902   5.073   4.663   9.210  0.7452  0.9144 -2.0385
43682SOL     OW37903   2.126   8.565   4.207 -0.2215 -0.5530 -0.0777
43682SOL    HW137904   2.042   8.556   4.252 -0.4746 -0.8243 -0.5982
43682SOL    HW237905   2.130   8.656   4.181  0.6719  0.0374  1.9372
43683SOL     OW37906   6.601   5.332   6.814 -0.1189  0.2546 -0.1953
43683SOL    HW137907   6.651   5.327   6.896  0.9618 -0.9829 -0.9093
43683SOL    HW237908   6.586   5.241   6.789 -1.3685  0.6135 -0.8424
43684SOL     OW37909   8.826   7.896   6.538  0.0203  0.0885 -0.1998
43684SOL    HW137910   8.886   7.954   6.490  0.8152  1.0489  1.8481
43684SOL    HW237911   8.883   7.836   6.585 -0.6477  0.3557  0.9827
43685SOL     OW37912   9.138  11.063   3.545 -0.6630 -0.7480  0.3761
43685SOL    HW137913   9.128  10.969   3.559  0.4698 -1.1362 -1.1633
43685SOL    HW237914   9.209  11.070   3.481 -1.5323  1.0924 -0.4605
43686SOL     OW37915   6.529   3.860   5.050  0.5197  0.0565  0.4806
43686SOL    HW137916   6.578   3.869   4.968  1.0820 -1.0764  0.6575
43686SOL    HW237917   6.513   3.949   5.079  2.9095  0.4932  0.6371
43687SOL     OW37918   6.640   9.713   6.418 -0.2524  0.0190 -0.1932
43687SOL    HW137919   6.561   9.764   6.438  0.1973  0.6198  0.0580
43687SOL    HW237920   6.684   9.703   6.502 -0.6341 -1.3165 -0.1256
43688SOL     OW37921   7.911   5.197   3.170 -0.2421 -0.2523 -0.2934
43688SOL    HW137922   7.958   5.121   3.203 -0.8878 -0.2832  0.5922
43688SOL    HW237923   7.907   5.257   3.244  0.3346  0.6885 -1.0089
43689SOL     OW37924   4.143   6.045   3.388  0.0524  0.0480 -0.0988
43689SOL    HW137925   4.074   6.076   3.329  1.0706 -0.0313 -1.3741
43689SOL    HW237926   4.134   6.099   3.467 -0.5922  0.9633 -0.7847
43690SOL     OW37927   3.989   8.695   3.682  0.9629  0.0770  0.2317
43690SOL    HW137928   4.024   8.755   3.748  0.4342  0.3066  0.3112
43690SOL    HW237929   3.948   8.752   3.617  0.2873 -0.2005  0.4055
43691SOL     OW37930   9.480   7.815   1.322  0.1423 -0.6156 -0.4166
43691SOL    HW137931   9.461   7.796   1.230  0.6148  1.8262 -1.0772
43691SOL    HW237932   9.574   7.833   1.324 -0.0547  0.4327  0.3182
43692SOL     OW37933   7.271   5.965   2.759  0.2518 -0.4315 -0.3658
43692SOL    HW137934   7.298   6.001   2.675 -0.4811 -0.2360 -0.5285
43692SOL    HW237935   7.175   5.968   2.757  0.2210 -0.1946  0.5768
43693SOL     OW37936   5.733   6.475   2.405 -0.3042 -0.3694  0.0949
43693SOL    HW137937   5.694   6.399   2.448  0.8183 -1.1394 -0.1916
43693SOL    HW237938   5.684   6.550   2.439 -0.3858 -1.0712  1.6081
43694SOL     OW37939   0.498   2.905   3.429  0.2679 -0.0195 -0.3938
43694SOL    HW137940   0.466   2.995   3.442  2.4033  1.0238 -1.8977
43694SOL    HW237941   0.443   2.870   3.359 -0.2179  0.2762 -0.1705
43695SOL     OW37942   8.312   1.573   8.129  0.3777 -0.2760  0.1247
43695SOL    HW137943   8.244   1.563   8.195 -0.1186 -0.0485 -0.3403
43695SOL    HW237944   8.319   1.486   8.088 -0.2098 -0.0941 -0.3718
43696SOL     OW37945   2.529   2.086   7.017 -0.4426 -0.1204  0.8880
43696SOL    HW137946   2.474   2.019   7.059  0.1268 -1.8089 -0.9060
43696SOL    HW237947   2.618   2.061   7.040 -0.1729 -0.5895 -0.5370
43697SOL     OW37948   3.200   2.408   6.215 -0.5470  0.1200  0.2330
43697SOL    HW137949   3.171   2.422   6.125 -0.1264 -0.8579 -0.0637
43697SOL    HW237950   3.141   2.463   6.267 -2.1333 -0.8392 -0.4695
43698SOL     OW37951   6.850   5.957   7.468 -0.1695 -0.5153  0.0197
43698SOL    HW137952   6.850   5.888   7.534 -0.0490 -0.4275  0.1133
43698SOL    HW237953   6.759   5.983   7.459  0.0856  1.6561  2.4493
43699SOL     OW37954  12.103   5.639  11.237  0.3644 -0.7121 -0.3067
43699SOL    HW137955  12.121   5.686  11.155 -0.0287  0.0901  0.0558
43699SOL    HW237956  12.185   5.646  11.287 -0.3688  1.6476  0.7186
43700SOL     OW37957   9.949   9.895   6.349 -0.0458  0.0699  0.1923
43700SOL    HW137958   9.884   9.854   6.406  1.3385 -0.6525  1.3372
43700SOL    HW237959   9.997   9.821   6.312  1.4630  0.5700  1.0322
43701SOL     OW37960   5.869   4.898   5.271 -0.0543 -0.5610 -0.0039
43701SOL    HW137961   5.898   4.849   5.194 -2.1535 -1.8521 -0.0511
43701SOL    HW237962   5.779   4.870   5.285 -0.5838  1.5872  1.4132
43702SOL     OW37963   2.407   9.682   7.603 -0.5282  0.0522  0.2060
43702SOL    HW137964   2.492   9.655   7.638 -0.8447 -1.1897  0.0526
43702SOL    HW237965   2.344   9.628   7.650 -0.9390 -2.3386 -2.8344
43703SOL     OW37966  10.596   2.329   1.143 -0.0645  0.6677 -0.2694
43703SOL    HW137967  10.556   2.367   1.064 -2.7006 -0.3476  0.4726
43703SOL    HW237968  10.559   2.380   1.215 -1.0378 -1.1270  0.5344
43704SOL     OW37969   6.656   3.073   6.946  0.3082  0.0685 -0.0218
43704SOL    HW137970   6.635   3.141   6.883  0.7635 -0.7347 -1.0727
43704SOL    HW237971   6.708   3.118   7.014  0.0168  0.8895 -0.3385
43705SOL     OW37972  10.042   1.920   9.144 -0.0024 -0.3369 -0.2173
43705SOL    HW137973  10.088   1.844   9.107  0.1913 -0.2699 -0.1146
43705SOL    HW237974   9.956   1.918   9.102 -0.0609 -0.7138 -0.0910
43706SOL     OW37975   9.193   5.557   3.243 -0.0986  0.3927  0.7004
43706SOL    HW137976   9.237   5.630   3.288 -0.7233  0.0651  1.8754
43706SOL    HW237977   9.138   5.600   3.177  0.1749  0.9410  0.8213
43707SOL     OW37978   4.742   2.576   2.651  0.1862 -0.2252  0.3443
43707SOL    HW137979   4.742   2.564   2.746  1.4148  0.9905  0.5412
43707SOL    HW237980   4.831   2.553   2.624 -0.5987 -2.1381 -0.7778
43708SOL     OW37981   9.137   5.936  10.399  0.2869  0.1355 -0.4320
43708SOL    HW137982   9.216   5.987  10.416  0.6527  0.1063 -1.8706
43708SOL    HW237983   9.078   5.998  10.356 -0.0047 -0.1640 -0.4649
43709SOL     OW37984   3.736   5.698   8.840  0.1999 -0.0220 -0.5249
43709SOL    HW137985   3.693   5.618   8.808  2.5719 -0.9893 -1.5370
43709SOL    HW237986   3.724   5.761   8.769 -0.9179  0.2672 -0.0984
43710SOL     OW37987   4.004  11.038   0.305 -0.4892 -0.7317  0.0060
43710SOL    HW137988   4.075  11.088   0.264 -1.3552  0.8015  0.2918
43710SOL    HW237989   4.048  10.964   0.348  0.9025  0.0410 -0.0337
43711SOL     OW37990   5.147   7.647  11.862 -0.5377 -0.4109  0.1617
43711SOL    HW137991   5.087   7.660  11.789  2.4132 -1.3008 -2.7161
43711SOL    HW237992   5.161   7.552  11.865  1.5163 -0.1803 -0.1284
43712SOL     OW37993   6.986   8.673   5.858 -0.0786 -0.0471 -0.3240
43712SOL    HW137994   7.046   8.745   5.836 -1.0593  0.6538 -0.8119
43712SOL    HW237995   6.946   8.701   5.941  1.6950 -1.4555  1.0786
43713SOL     OW37996   4.957   3.847   4.559  0.0400 -0.0716  0.3692
43713SOL    HW137997   4.920   3.932   4.533  0.6549  0.3362  0.8159
43713SOL    HW237998   4.923   3.832   4.647 -0.5861 -0.6050  0.0506
43714SOL     OW37999   5.556  10.187  10.116 -0.3440  0.7468  0.1582
43714SOL    HW138000   5.567  10.095  10.093  2.8626  0.1703  3.1004
43714SOL    HW238001   5.611  10.234  10.054  0.6512  0.2587  0.6454
43715SOL     OW38002   0.494  12.496  10.926  0.2687 -1.0774  0.1469
43715SOL    HW138003   0.561  12.476  10.991  0.3351  0.2361  0.5116
43715SOL    HW238004   0.418  12.525  10.976 -0.0953 -1.2273 -0.3090
43716SOL     OW38005   8.584  11.284   9.547  0.0641  0.1894 -0.6397
43716SOL    HW138006   8.649  11.305   9.614  0.4083  0.6289 -1.1058
43716SOL    HW238007   8.598  11.190   9.530 -1.1223 -0.3477  1.0607
43717SOL     OW38008   4.514  11.163  10.884 -0.4691 -0.0109  0.4073
43717SOL    HW138009   4.432  11.132  10.845 -0.5322  1.2036 -0.4858
43717SOL    HW238010   4.560  11.083  10.910 -1.8720 -0.7135  0.7967
43718SOL     OW38011   2.811   9.706  11.110 -0.3469 -0.6035 -0.1016
43718SOL    HW138012   2.812   9.734  11.201 -0.7789 -1.3106  0.1290
43718SOL    HW238013   2.744   9.761  11.068  0.8115  0.6938 -0.3345
43719SOL     OW38014   7.768   5.528   1.767  0.1199 -0.0685  0.4069
43719SOL    HW138015   7.844   5.512   1.823  0.1284  1.1872  0.7757
43719SOL    HW238016   7.776   5.619   1.740 -1.8535  0.4559  1.4006
43720SOL     OW38017  11.252   6.938   0.409  0.0086 -0.1135 -0.2243
43720SOL    HW138018  11.232   6.913   0.319 -0.4505 -0.3193 -0.0726
43720SOL    HW238019  11.291   7.025   0.402 -0.2870 -0.0074 -0.6048
43721SOL     OW38020   3.238  11.971   7.809  0.2360 -0.9334 -0.4653
43721SOL    HW138021   3.157  12.015   7.832  0.2836 -0.9975 -0.1679
43721SOL    HW238022   3.281  11.954   7.893  0.4671 -1.0694 -0.6081
43722SOL     OW38023   1.907   5.483   6.209 -0.3132  0.7017 -0.3575
43722SOL    HW138024   1.932   5.500   6.300  0.1676 -0.1300 -0.3307
43722SOL    HW238025   1.984   5.442   6.170 -1.4025 -1.4087 -0.4205
43723SOL     OW38026   6.975   8.341   2.645  0.2093 -0.3830  0.0922
43723SOL    HW138027   6.900   8.397   2.664  0.5753 -0.3543  1.6263
43723SOL    HW238028   6.945   8.280   2.578 -0.4056  1.2091 -1.1552
43724SOL     OW38029   2.414   0.608   6.126 -0.2855  0.0974  0.6849
43724SOL    HW138030   2.400   0.612   6.032 -1.0367  0.2092  0.7971
43724SOL    HW238031   2.349   0.546   6.158  0.5576 -0.6412  1.0232
43725SOL     OW38032   7.101   5.999   5.590  0.0427  0.5503  0.4860
43725SOL    HW138033   7.032   6.020   5.527 -0.4474  2.0078  1.4286
43725SOL    HW238034   7.131   6.085   5.621  0.9681 -0.1083  1.4735
43726SOL     OW38035   4.487   2.828  11.527 -0.2545  0.1673  0.7666
43726SOL    HW138036   4.510   2.918  11.505  0.2268  0.0093  0.6158
43726SOL    HW238037   4.520   2.814  11.615  1.5299 -0.4966  0.0462
43727SOL     OW38038   8.928   1.741   7.661 -0.3426 -0.0723 -0.5649
43727SOL    HW138039   8.868   1.667   7.667  0.1921 -0.4848 -0.1349
43727SOL    HW238040   9.015   1.700   7.657 -0.1122  0.4916 -1.8019
43728SOL     OW38041   6.107  10.774  10.724  0.2587 -0.6970  0.2990
43728SOL    HW138042   6.034  10.718  10.751  1.0294 -2.4131 -1.0040
43728SOL    HW238043   6.065  10.857  10.700 -1.0485 -1.0493  1.2581
43729SOL     OW38044  10.284  12.491   3.684 -0.2777  0.2457  0.3936
43729SOL    HW138045  10.238  12.409   3.672  0.8243 -0.4090  0.4751
43729SOL    HW238046  10.346  12.496   3.611 -0.9191  1.4288 -0.0953
43730SOL     OW38047   2.015   5.536   9.369 -0.6222 -0.2050  0.9051
43730SOL    HW138048   2.061   5.587   9.303 -0.2382  0.4980  1.6935
43730SOL    HW238049   1.941   5.497   9.323 -0.0293 -0.2018 -0.0590
43731SOL     OW38050   1.465   7.400   0.855  0.3690  0.2210 -0.0845
43731SOL    HW138051   1.469   7.495   0.847  0.0773  0.3635  1.1855
43731SOL    HW238052   1.372   7.379   0.857  0.3723  0.1759  1.9104
43732SOL     OW38053   0.809   9.186   2.458 -0.0513  0.3671  0.4875
43732SOL    HW138054   0.794   9.240   2.536 -2.0797  0.3303  0.1715
43732SOL    HW238055   0.824   9.249   2.388 -3.3910  0.6735 -0.0800
43733SOL     OW38056  11.295   6.352   6.315  0.2017 -1.0355  0.1153
43733SOL    HW138057  11.332   6.418   6.374  1.7404 -1.5876 -0.1943
43733SOL    HW238058  11.221   6.316   6.363 -0.9320  1.1412  0.1571
43734SOL     OW38059   1.137   7.966   1.525 -0.5096  0.2335  0.2693
43734SOL    HW138060   1.047   7.972   1.557 -0.7577 -0.4225 -0.2790
43734SOL    HW238061   1.136   8.012   1.441 -0.1893  0.7370  0.5351
43735SOL     OW38062   9.821  12.164  10.275  0.0710 -0.2100  0.9369
43735SOL    HW138063   9.761  12.183  10.203  1.1940 -0.8380 -0.2176
43735SOL    HW238064   9.764  12.144  10.349 -1.1269  0.2449  0.1783
43736SOL     OW38065   0.863   0.303   3.961 -0.9690 -0.4742  0.2517
43736SOL    HW138066   0.871   0.396   3.941  0.5518 -0.2955  1.4875
43736SOL    HW238067   0.802   0.270   3.896 -0.0680  0.9947 -1.4374
43737SOL     OW38068   1.608   3.596   7.205 -0.4773 -0.0233  0.1443
43737SOL    HW138069   1.661   3.649   7.266 -1.2434 -0.4049  1.1754
43737SOL    HW238070   1.573   3.659   7.143  0.6588  0.3243 -0.1674
43738SOL     OW38071   8.649   2.018  10.924  0.2182  0.3697  0.1155
43738SOL    HW138072   8.682   2.056  10.842 -0.1076 -1.4878 -0.9257
43738SOL    HW238073   8.556   2.004  10.907  0.4744 -1.5631  0.1708
43739SOL     OW38074   9.636  11.756   2.671 -0.3572 -0.6960  0.1353
43739SOL    HW138075   9.637  11.668   2.708 -1.3391 -0.0172  1.9159
43739SOL    HW238076   9.721  11.793   2.696 -0.5617 -0.6227  0.7204
43740SOL     OW38077   9.609  12.162   1.260  0.3602  0.0164 -0.1783
43740SOL    HW138078   9.538  12.212   1.301  1.4647  1.7129 -0.2392
43740SOL    HW238079   9.582  12.152   1.169 -0.7813 -1.2830  0.2576
43741SOL     OW38080   0.039   1.895  12.076 -0.4505  0.2697  0.5576
43741SOL    HW138081   0.018   1.811  12.035 -3.2270  0.8851  0.4888
43741SOL    HW238082   0.027   1.959  12.006  1.4769  0.7805  0.6485
43742SOL     OW38083   6.890   2.079  10.706  0.0320  0.4653 -0.0621
43742SOL    HW138084   6.880   2.095  10.800 -0.3985 -0.2962  0.0342
43742SOL    HW238085   6.897   2.166  10.667 -0.5630  0.8155  0.5936
43743SOL     OW38086   0.931   0.465  11.050 -0.1818 -0.3045  0.3261
43743SOL    HW138087   0.943   0.400  10.982  0.8037 -1.2469  1.3568
43743SOL    HW238088   0.965   0.546  11.012 -0.4152 -0.6169 -0.5747
43744SOL     OW38089  10.225  11.011  12.262 -0.0100 -0.1700  0.5887
43744SOL    HW138090  10.151  11.006  12.203 -1.9397 -1.2821  2.9168
43744SOL    HW238091  10.277  10.933  12.242  0.2630  0.3151 -0.6725
43745SOL     OW38092   4.270   9.274   3.054 -0.0034 -0.3550  0.0133
43745SOL    HW138093   4.315   9.289   2.971 -1.2987 -0.8650 -0.8080
43745SOL    HW238094   4.310   9.195   3.089  0.7585  0.0317  0.0408
43746SOL     OW38095  11.628   8.156  11.120 -0.1509  0.5513  0.3919
43746SOL    HW138096  11.584   8.182  11.201  0.4834  0.0049  0.9174
43746SOL    HW238097  11.672   8.074  11.141 -0.2675  0.2170 -0.6106
43747SOL     OW38098   2.251  11.589   0.052  0.2581 -0.2029  0.4107
43747SOL    HW138099   2.160  11.574   0.077 -0.4757  0.7552 -1.4930
43747SOL    HW238100   2.284  11.649   0.119 -0.6573 -0.1733  0.8572
43748SOL     OW38101   7.681   0.887   1.104 -0.2625 -0.0481  0.2551
43748SOL    HW138102   7.718   0.948   1.168  0.6970  0.6672 -0.9289
43748SOL    HW238103   7.615   0.838   1.153 -0.8422  1.7009  1.3363
43749SOL     OW38104   0.209  12.513   0.762  0.2305  0.5927  0.5135
43749SOL    HW138105   0.151  12.517   0.687  1.5457  0.3125 -0.5591
43749SOL    HW238106   0.225  12.419   0.775  1.5609  0.6948 -0.1474
43750SOL     OW38107   7.157   5.024   2.385  0.2723 -0.1025  0.2790
43750SOL    HW138108   7.069   4.987   2.396  0.1091  0.6208  1.5408
43750SOL    HW238109   7.142   5.118   2.371  0.8004 -0.1370 -0.6146
43751SOL     OW38110   2.459   3.707   5.515  0.0010  0.4200 -0.1845
43751SOL    HW138111   2.498   3.785   5.555  0.6255 -0.5944  1.2602
43751SOL    HW238112   2.479   3.636   5.576 -1.9644 -0.5970 -0.6397
43752SOL     OW38113  12.143   9.996   8.108 -0.9342 -0.6641 -0.7077
43752SOL    HW138114  12.084  10.056   8.153 -1.0640  0.3087 -2.0956
43752SOL    HW238115  12.165   9.930   8.173 -1.5554  0.3569  0.5885
43753SOL     OW38116   0.315  10.861   8.161 -0.7558  0.0932  1.0208
43753SOL    HW138117   0.314  10.896   8.250  0.9694 -0.4166  1.2667
43753SOL    HW238118   0.352  10.932   8.108  1.3026 -0.7290  1.2749
43754SOL     OW38119   2.229   8.460   9.280  0.2458 -0.3448 -0.1922
43754SOL    HW138120   2.270   8.432   9.198 -1.1927  2.5586 -2.0622
43754SOL    HW238121   2.300   8.498   9.331  0.5759  1.2781 -1.7845
43755SOL     OW38122  10.393   8.305   7.147  0.2531  0.1789 -0.6499
43755SOL    HW138123  10.487   8.323   7.136  0.4940 -1.1471 -0.9338
43755SOL    HW238124  10.379   8.309   7.242  0.4254  1.1488 -0.6583
43756SOL     OW38125  11.557   9.881   1.948  0.4130 -0.3282 -0.0912
43756SOL    HW138126  11.622   9.817   1.977  1.6547  1.6039  1.6736
43756SOL    HW238127  11.521   9.917   2.029  0.4956  1.9140 -0.9841
43757SOL     OW38128  12.514   2.989   0.449  0.2785 -0.1536  0.3600
43757SOL    HW138129  12.443   2.966   0.508  0.1125 -0.3505  0.0887
43757SOL    HW238130  12.499   3.081   0.428 -0.9162 -0.6331 -1.0574
43758SOL     OW38131   9.996   7.141   5.655 -0.2874 -0.1177 -0.3414
43758SOL    HW138132  10.059   7.113   5.590 -0.5652 -1.4368 -0.0848
43758SOL    HW238133   9.918   7.164   5.605  0.0650  0.5697 -0.5850
43759SOL     OW38134   3.922   3.453  11.146  0.1155  0.1463 -0.0559
43759SOL    HW138135   3.927   3.542  11.181  0.7134  0.3596 -0.6766
43759SOL    HW238136   3.996   3.445  11.087  1.9854 -1.7990  2.3215
43760SOL     OW38137   7.443  10.068   5.060  0.1860 -0.2143 -0.3242
43760SOL    HW138138   7.471  10.009   4.989  0.5998 -0.2854 -0.1037
43760SOL    HW238139   7.353  10.091   5.037 -0.2198 -1.4734 -0.0550
43761SOL     OW38140   8.516   2.880   1.321 -0.0260  0.3420 -0.0673
43761SOL    HW138141   8.470   2.964   1.327 -0.1066  0.2815  0.1801
43761SOL    HW238142   8.600   2.895   1.364 -0.3901  0.0574  0.7823
43762SOL     OW38143   5.416   3.497   2.240 -0.5586  0.0214  1.0374
43762SOL    HW138144   5.502   3.458   2.224 -0.4978 -0.5055  2.5012
43762SOL    HW238145   5.356   3.445   2.188  0.0003  0.5099 -0.1526
43763SOL     OW38146   9.716   5.907   7.540 -0.1175  0.3102  0.1315
43763SOL    HW138147   9.770   5.974   7.582 -1.0406  0.9857  0.2773
43763SOL    HW238148   9.768   5.827   7.546  1.5763  1.2506 -1.1988
43764SOL     OW38149   8.310   4.884   6.107  0.1675  0.3045 -0.3149
43764SOL    HW138150   8.356   4.801   6.121 -2.1238 -0.6936  1.9273
43764SOL    HW238151   8.306   4.893   6.011  2.5881 -0.8482 -0.6085
43765SOL     OW38152   9.222   4.660   5.805  0.4052 -0.1915 -0.3608
43765SOL    HW138153   9.312   4.638   5.827 -0.2257 -1.4930  1.1432
43765SOL    HW238154   9.228   4.703   5.719  2.8114  3.1278  1.2655
43766SOL     OW38155   9.627   2.694  11.209  0.3515 -0.3658 -0.0096
43766SOL    HW138156   9.652   2.614  11.164 -0.3961 -1.7841  1.9597
43766SOL    HW238157   9.709   2.726  11.247  0.5977 -0.3814 -0.5262
43767SOL     OW38158   8.264   2.198   2.154 -0.1920 -0.2294 -0.3769
43767SOL    HW138159   8.326   2.128   2.131 -0.3591  0.1064 -2.0073
43767SOL    HW238160   8.184   2.152   2.177 -0.4228 -0.6038 -1.8244
43768SOL     OW38161  11.324   9.145   3.244  0.3048  0.4073  0.2587
43768SOL    HW138162  11.352   9.236   3.237 -0.0102  0.4251 -1.0500
43768SOL    HW238163  11.387   9.096   3.191 -0.3703  0.0646 -0.2453
43769SOL     OW38164  12.326  11.162   0.887  0.3893  0.0346  0.1749
43769SOL    HW138165  12.260  11.100   0.857 -1.3123  1.5318  0.6507
43769SOL    HW238166  12.410  11.118   0.871 -0.6898 -1.7654 -0.8157
43770SOL     OW38167   1.802   9.092   2.886  0.6070  0.2154 -0.7510
43770SOL    HW138168   1.874   9.037   2.857  0.0256  0.0549 -1.9665
43770SOL    HW238169   1.838   9.181   2.889  0.8339  0.1436 -1.4087
43771SOL     OW38170   9.346   0.831   8.432  0.0288 -0.2515 -0.2533
43771SOL    HW138171   9.348   0.735   8.431 -0.6255 -0.3624  2.1459
43771SOL    HW238172   9.341   0.853   8.525  0.7679  2.1442 -0.7245
43772SOL     OW38173   7.905   3.682   3.437 -0.2152 -0.0778 -0.8949
43772SOL    HW138174   7.924   3.766   3.478 -0.2585  0.3273 -1.6733
43772SOL    HW238175   7.839   3.642   3.494 -2.0465  1.5059 -1.7611
43773SOL     OW38176   9.906   7.700   8.287 -0.1525 -0.0544 -0.2749
43773SOL    HW138177   9.905   7.655   8.372  0.9707 -0.6318 -0.5451
43773SOL    HW238178   9.900   7.793   8.309  1.5276 -0.1028  0.5377
43774SOL     OW38179   8.010   5.893  10.381  0.0618  0.5390 -0.2708
43774SOL    HW138180   7.931   5.924  10.338  0.1201  1.5182  0.2824
43774SOL    HW238181   7.986   5.885  10.473  0.8338  1.7970  0.0777
43775SOL     OW38182   2.642   3.939   2.189 -0.2525  0.1866 -0.1482
43775SOL    HW138183   2.614   4.021   2.228  0.7226 -0.6730  2.5678
43775SOL    HW238184   2.685   3.891   2.260  0.5350 -2.0648 -1.9905
43776SOL     OW38185   9.452   7.005  10.453  0.1215 -0.0205 -0.0681
43776SOL    HW138186   9.464   6.938  10.520 -1.5819 -0.0952  0.2104
43776SOL    HW238187   9.383   7.062  10.488  2.1018  2.4460  0.1098
43777SOL     OW38188   7.427   3.690  10.228  0.1391 -0.1914  0.3010
43777SOL    HW138189   7.383   3.712  10.146 -0.7519 -0.3424  0.7269
43777SOL    HW238190   7.360   3.647  10.280  0.0967  1.6483  1.8879
43778SOL     OW38191  12.407   1.561   1.778  0.4224  0.3053  0.3371
43778SOL    HW138192  12.352   1.638   1.792  1.0083  0.7814  0.0665
43778SOL    HW238193  12.497   1.593   1.786  0.7918  0.2809 -2.5855
43779SOL     OW38194   4.630   9.170  10.491 -0.3318 -0.2646  0.0241
43779SOL    HW138195   4.658   9.209  10.574  1.5100 -0.9003 -0.2620
43779SOL    HW238196   4.619   9.077  10.510 -0.8994 -0.2479 -0.2112
43780SOL     OW38197   0.119   9.410  11.383 -0.0320  0.1619 -0.0715
43780SOL    HW138198   0.213   9.403  11.396  0.3046  3.2663 -0.0496
43780SOL    HW238199   0.101   9.356  11.305  1.5634 -1.1771  0.4408
43781SOL     OW38200   5.976   7.076   8.878 -0.3061 -0.1498 -0.1859
43781SOL    HW138201   5.981   7.080   8.783  0.2172 -0.2619 -0.1699
43781SOL    HW238202   6.062   7.106   8.908 -0.4832 -0.0622  0.2524
43782SOL     OW38203   7.005   1.754   7.835  0.3420 -0.2321 -0.2819
43782SOL    HW138204   7.049   1.837   7.854  0.7315 -0.6111  0.5334
43782SOL    HW238205   6.945   1.742   7.909  0.3129 -0.6917 -0.3819
43783SOL     OW38206  11.022   3.426   8.711  0.0049  0.9481 -0.1707
43783SOL    HW138207  10.950   3.447   8.770 -1.7114 -1.1025 -1.3999
43783SOL    HW238208  11.055   3.341   8.742  1.9503  1.8405  0.3654
43784SOL     OW38209   6.957   8.602   4.089 -0.0915  0.1112  0.5297
43784SOL    HW138210   7.047   8.613   4.060  0.6367 -1.4504  2.0379
43784SOL    HW238211   6.923   8.691   4.098  1.5575  0.7453  0.7544
43785SOL     OW38212   9.340   9.859   6.465 -0.3174 -0.4837 -0.0738
43785SOL    HW138213   9.401   9.932   6.472 -0.3083 -0.5158  0.1674
43785SOL    HW238214   9.384   9.796   6.408 -0.4780 -0.1475 -0.5859
43786SOL     OW38215  10.161  11.837  11.198 -0.8525 -0.3240  0.6882
43786SOL    HW138216  10.074  11.800  11.180 -0.9584  0.5389 -0.6983
43786SOL    HW238217  10.150  11.931  11.185 -0.1619  0.0478  2.4386
43787SOL     OW38218   3.099   8.359  12.287 -0.0179  0.1942 -0.0396
43787SOL    HW138219   3.126   8.451  12.288  2.4912 -0.4182 -1.7628
43787SOL    HW238220   3.134   8.325  12.205 -0.4700 -2.4483  0.7767
43788SOL     OW38221  12.027   8.456   0.670 -0.1922 -0.2442 -0.1712
43788SOL    HW138222  11.961   8.487   0.733  0.0813 -0.5629  0.2802
43788SOL    HW238223  12.016   8.361   0.668  0.1460 -0.2835 -0.2153
43789SOL     OW38224   2.513   0.921   9.915  0.2431  0.3520 -0.1119
43789SOL    HW138225   2.428   0.960   9.938  0.2245 -0.1221  0.6684
43789SOL    HW238226   2.562   0.923   9.997  0.3506 -0.9859 -0.1209
43790SOL     OW38227   3.164   8.260   5.769  0.1799  0.1564 -0.4392
43790SOL    HW138228   3.102   8.316   5.722 -0.4928  0.7421  1.1039
43790SOL    HW238229   3.115   8.180   5.789 -0.3689  0.9022  1.4078
43791SOL     OW38230   9.707   2.931   3.445 -0.5910 -0.0526  0.2188
43791SOL    HW138231   9.751   3.002   3.493 -0.8519  0.8290 -0.8137
43791SOL    HW238232   9.777   2.870   3.424 -0.5231 -0.6697  2.0354
43792SOL     OW38233   3.339   1.186   0.919 -0.0174  0.2523 -0.2200
43792SOL    HW138234   3.258   1.183   0.971 -0.2688  2.3236 -0.3969
43792SOL    HW238235   3.348   1.097   0.883 -1.0407 -0.6094  1.5224
43793SOL     OW38236   6.031   2.405   8.488  1.2324 -0.4224 -0.3835
43793SOL    HW138237   6.115   2.388   8.531  0.9426  0.3992  0.5076
43793SOL    HW238238   6.046   2.483   8.435  0.7681  0.3269  0.5596
43794SOL     OW38239   8.908  10.075   8.572  0.0469  0.0067 -0.1035
43794SOL    HW138240   8.945  10.149   8.620 -2.1584  1.5763 -0.6714
43794SOL    HW238241   8.939  10.087   8.482 -1.1134  0.8679 -0.4107
43795SOL     OW38242   9.196   2.732   9.358  0.5852  0.2582 -0.0366
43795SOL    HW138243   9.221   2.640   9.366 -0.6882 -0.1092 -0.0952
43795SOL    HW238244   9.277   2.777   9.338  1.5979 -0.5807  1.8640
43796SOL     OW38245   5.563   4.233   3.997 -0.7232 -0.3301  0.2052
43796SOL    HW138246   5.523   4.318   4.015  1.1045  0.6825 -0.2756
43796SOL    HW238247   5.562   4.225   3.901 -0.0929 -0.4455  0.2038
43797SOL     OW38248   5.872   5.680   9.108  0.3790 -0.0412  0.4165
43797SOL    HW138249   5.901   5.728   9.030 -0.0851  1.6847  1.2665
43797SOL    HW238250   5.935   5.609   9.118 -0.2754 -1.1384 -2.2762
43798SOL     OW38251   3.576   9.461   6.986 -0.6391  0.4089 -0.5801
43798SOL    HW138252   3.555   9.378   7.028  0.0013  0.1827 -0.6885
43798SOL    HW238253   3.660   9.445   6.943 -0.4309  1.1650 -0.4609
43799SOL     OW38254   9.127   7.073   7.395 -0.0649 -0.6433  0.2837
43799SOL    HW138255   9.073   6.995   7.385 -1.9508  0.6685 -0.2433
43799SOL    HW238256   9.065   7.145   7.401  1.6197  0.8494  0.6685
43800SOL     OW38257   4.227   8.465   9.908  0.6125  0.1405 -0.5300
43800SOL    HW138258   4.267   8.539   9.952 -0.2804  1.1348 -1.3342
43800SOL    HW238259   4.210   8.496   9.819 -1.6494 -0.2849 -0.3183
43801SOL     OW38260   6.640   5.375  11.009 -0.5262 -0.1107 -0.1289
43801SOL    HW138261   6.561   5.322  11.019 -0.1566 -0.8717 -1.0514
43801SOL    HW238262   6.613   5.446  10.950 -0.4952 -0.4612 -0.5757
43802SOL     OW38263   0.946   6.993   0.381  0.1625  0.8051 -0.2896
43802SOL    HW138264   1.018   7.009   0.319  0.8112 -2.7776 -0.6685
43802SOL    HW238265   0.982   6.931   0.444 -2.2740 -0.2023  0.2083
43803SOL     OW38266   4.611  11.500   2.003  0.4395  0.1770  0.2953
43803SOL    HW138267   4.642  11.482   1.915  0.8943  0.8497  0.3102
43803SOL    HW238268   4.632  11.421   2.053  1.8018  0.4697  0.2187
43804SOL     OW38269   8.562   0.122   4.656 -0.4108  0.0307  0.1918
43804SOL    HW138270   8.603   0.066   4.591  0.6382  0.3656  0.5503
43804SOL    HW238271   8.571   0.074   4.738 -2.7712 -0.9468 -0.0183
43805SOL     OW38272   9.453   7.417   2.224 -0.5324 -0.1676  0.4251
43805SOL    HW138273   9.495   7.460   2.149  0.0573 -1.1459  0.1856
43805SOL    HW238274   9.504   7.446   2.300 -0.9067  0.5348  0.4174
43806SOL     OW38275   7.591   7.723   4.931  0.0991  0.4497  0.3469
43806SOL    HW138276   7.684   7.744   4.938 -0.2645  1.9109  1.2687
43806SOL    HW238277   7.571   7.735   4.838  1.0315 -0.8718 -0.0461
43807SOL     OW38278   2.938   6.687   4.571 -0.0831  0.0091  0.0506
43807SOL    HW138279   2.913   6.752   4.636 -1.4589 -0.4039 -0.0262
43807SOL    HW238280   2.981   6.737   4.502  1.1834  0.4819  1.1404
43808SOL     OW38281   6.995   4.048   1.770 -0.3910 -0.9759 -0.3878
43808SOL    HW138282   6.930   4.117   1.782  0.6083 -0.0120 -0.2651
43808SOL    HW238283   7.028   4.030   1.858  0.6922 -0.2136 -0.6030
43809SOL     OW38284   4.654   2.095   8.496  0.4332  0.4625  0.4773
43809SOL    HW138285   4.609   2.031   8.551 -0.7235  0.4019 -0.4894
43809SOL    HW238286   4.653   2.057   8.408 -0.2861  1.7882 -0.1271
43810SOL     OW38287   7.504   4.424   1.502  0.8455  0.3338  0.1000
43810SOL    HW138288   7.549   4.446   1.421 -3.2376  2.1010 -1.9984
43810SOL    HW238289   7.512   4.503   1.557 -1.7663  1.8542 -1.4763
43811SOL     OW38290   9.287   7.123   6.552 -0.2725  0.0366 -0.0150
43811SOL    HW138291   9.294   7.092   6.643 -1.1490 -2.5781 -0.7415
43811SOL    HW238292   9.197   7.103   6.528 -0.0527  0.7261 -1.4700
43812SOL     OW38293  10.706   4.176   6.702 -0.2963  0.3134 -0.1029
43812SOL    HW138294  10.752   4.206   6.623 -0.7033  0.4537 -0.2889
43812SOL    HW238295  10.757   4.101   6.732 -0.6961 -0.3631 -1.0687
43813SOL     OW38296   1.586   3.066   7.846 -0.2139  0.4599 -0.2189
43813SOL    HW138297   1.559   3.152   7.879  0.3923  0.3433  0.5968
43813SOL    HW238298   1.680   3.062   7.861  0.2290  0.6524 -2.5713
43814SOL     OW38299  10.590   9.548   8.457  0.1482  0.4130  0.0555
43814SOL    HW138300  10.530   9.475   8.469  1.7772 -0.8613  0.8723
43814SOL    HW238301  10.642   9.523   8.380 -2.2931  2.9504 -2.6904
43815SOL     OW38302   5.611   6.806   3.775  0.9987 -0.6207  0.0143
43815SOL    HW138303   5.699   6.830   3.746  0.8258 -1.2863 -1.1143
43815SOL    HW238304   5.601   6.850   3.859  2.0653  0.2110 -0.2683
43816SOL     OW38305   4.364   6.663   2.835  0.1562  0.5268 -0.0026
43816SOL    HW138306   4.396   6.722   2.903 -0.1997  0.2105  0.4489
43816SOL    HW238307   4.297   6.714   2.790  1.7643  1.4625 -1.4424
43817SOL     OW38308   7.615   8.807   7.270  0.5425 -0.4561 -0.6008
43817SOL    HW138309   7.586   8.883   7.219  0.7594  0.0990  0.0938
43817SOL    HW238310   7.535   8.759   7.290  0.2041  0.5216  0.4410
43818SOL     OW38311   8.870   9.824  11.226 -0.5425  0.4167 -0.2097
43818SOL    HW138312   8.946   9.876  11.200 -0.6922  0.4509 -0.5856
43818SOL    HW238313   8.898   9.733  11.215 -0.6551  0.4320 -0.6507
43819SOL     OW38314   2.102   8.194  11.488 -0.8480 -0.0644 -0.0115
43819SOL    HW138315   2.150   8.129  11.437  2.5418  1.3513  1.1091
43819SOL    HW238316   2.095   8.156  11.576 -0.8096  0.2045  0.1085
43820SOL     OW38317   9.923   8.776   6.904  0.2801  0.1282  0.0615
43820SOL    HW138318   9.892   8.763   6.994 -1.9526 -1.7776 -0.8885
43820SOL    HW238319   9.952   8.690   6.876  1.3244  0.7857 -0.9608
43821SOL     OW38320   7.114  12.087   4.325 -0.1291  0.0179  0.1621
43821SOL    HW138321   7.024  12.073   4.294 -0.0145  1.4722 -0.9674
43821SOL    HW238322   7.131  12.179   4.306  1.6347 -0.2530  0.2966
43822SOL     OW38323   3.536   3.809   7.601  0.1822 -0.1843  0.5583
43822SOL    HW138324   3.443   3.812   7.578  0.1100  1.5352  0.9099
43822SOL    HW238325   3.566   3.899   7.590  2.0392 -0.8652 -0.4138
43823SOL     OW38326   9.234  10.025   8.629 -0.0787  0.3875 -0.4245
43823SOL    HW138327   9.175  10.099   8.642 -0.4181 -0.1154  1.2201
43823SOL    HW238328   9.271  10.038   8.542 -3.5446  0.0741 -2.1055
43824SOL     OW38329   8.667   2.977   8.014  0.1037  0.4273 -0.8951
43824SOL    HW138330   8.626   2.893   7.992 -1.1141  0.5219  0.8707
43824SOL    HW238331   8.595   3.040   8.013  0.1301  0.6303  2.1161
43825SOL     OW38332   9.581   0.202   4.830 -0.4095  0.1028  0.0525
43825SOL    HW138333   9.650   0.154   4.876 -1.4579 -0.9654  0.5433
43825SOL    HW238334   9.628   0.255   4.765  0.9429  0.1129  0.9987
43826SOL     OW38335   6.080   6.313   3.804 -0.5580  0.3924 -0.1433
43826SOL    HW138336   6.122   6.297   3.889 -0.3590  0.7645 -0.1682
43826SOL    HW238337   6.129   6.258   3.742 -0.4645  0.4034 -0.0795
43827SOL     OW38338   8.025   8.782   4.153 -1.0352 -0.7824 -0.2298
43827SOL    HW138339   8.006   8.688   4.140 -0.4170 -0.6602 -2.3450
43827SOL    HW238340   8.062   8.811   4.070 -0.6611  1.2350  0.5821
43828SOL     OW38341   8.057   3.081   5.249  0.1893 -0.7375 -0.3219
43828SOL    HW138342   8.018   3.168   5.237 -0.9637 -1.1493  0.2893
43828SOL    HW238343   7.983   3.021   5.248  0.7853 -1.5397  1.0042
43829SOL     OW38344   3.378  11.568   7.865 -0.2322  0.0056  0.2529
43829SOL    HW138345   3.332  11.602   7.942  2.0192  0.4711  1.4744
43829SOL    HW238346   3.422  11.645   7.828 -0.8690 -0.3086 -1.2455
43830SOL     OW38347   9.992   1.287   6.975  0.4694 -0.5988 -0.1470
43830SOL    HW138348   9.933   1.304   7.049 -0.0836 -0.1424 -0.6837
43830SOL    HW238349  10.007   1.373   6.937 -1.6385 -1.1022 -2.3699
43831SOL     OW38350   7.504   7.454   3.480  0.0284  0.6841 -0.2761
43831SOL    HW138351   7.467   7.385   3.425  1.1539  0.5985 -0.9815
43831SOL    HW238352   7.554   7.509   3.419 -2.5259  3.4187 -0.1222
43832SOL     OW38353   2.432   6.433   0.483  0.0961 -0.0771  0.4971
43832SOL    HW138354   2.421   6.528   0.480  0.5171 -0.0160  0.7750
43832SOL    HW238355   2.413   6.404   0.394  0.8480  0.3667  0.1854
43833SOL     OW38356   2.518  10.330   2.430 -0.6371 -0.1422  0.1156
43833SOL    HW138357   2.479  10.267   2.368 -1.1992  0.6496 -0.3602
43833SOL    HW238358   2.451  10.398   2.439  0.1203  0.5894  0.3111
43834SOL     OW38359   0.769   7.850  10.397  0.2857  0.4856 -0.4623
43834SOL    HW138360   0.794   7.909  10.468  1.2118 -1.5328  1.0018
43834SOL    HW238361   0.848   7.839  10.345  0.2283  0.2206 -0.4930
43835SOL     OW38362   1.316   3.692   3.723  0.1294 -0.3470 -0.4138
43835SOL    HW138363   1.409   3.711   3.730 -0.0280  0.0621  1.0390
43835SOL    HW238364   1.276   3.773   3.693  0.1931 -0.3633 -0.5385
43836SOL     OW38365   0.292  11.464   8.554  0.1788 -0.2932 -0.1607
43836SOL    HW138366   0.329  11.384   8.592  2.6667  0.9740  0.2387
43836SOL    HW238367   0.363  11.501   8.502 -1.1776  1.2745 -0.9691
43837SOL     OW38368   7.623   5.531  12.457  0.0549  0.1096 -0.0502
43837SOL    HW138369   7.542   5.482  12.475 -0.3589  1.0152  0.5782
43837SOL    HW238370   7.626   5.535  12.361  0.7796 -2.2474 -0.1962
43838SOL     OW38371   8.800   7.654   0.589  0.2627  0.0429  0.0421
43838SOL    HW138372   8.798   7.621   0.499 -0.2614 -1.5040  0.5819
43838SOL    HW238373   8.880   7.618   0.627  1.3717  2.0792 -0.2653
43839SOL     OW38374   4.983   8.919  12.269  0.2650  0.0724  0.8130
43839SOL    HW138375   4.953   8.948  12.354 -0.0849  0.8713  0.4295
43839SOL    HW238376   4.945   8.981  12.207  1.3346  0.1193  0.1654
43840SOL     OW38377   0.295   8.999   2.029 -0.0904 -0.0263 -0.0922
43840SOL    HW138378   0.268   8.920   2.076 -0.4048  1.1589  1.8283
43840SOL    HW238379   0.358   8.969   1.964 -0.8600 -1.9582  0.0046
43841SOL     OW38380   9.042   8.217   0.544  0.2506  0.1664 -0.5049
43841SOL    HW138381   9.000   8.184   0.624 -0.7807 -0.0505 -1.1226
43841SOL    HW238382   9.102   8.147   0.518 -0.6255 -0.4761 -0.8296
43842SOL     OW38383  11.078   8.943   7.187 -0.1935  0.1582 -0.4364
43842SOL    HW138384  11.041   9.023   7.225 -0.7318 -0.0032 -0.6141
43842SOL    HW238385  11.001   8.892   7.160  0.1404 -0.4905 -0.1736
43843SOL     OW38386   6.474  10.788   3.480 -0.0000 -0.0270 -0.3758
43843SOL    HW138387   6.565  10.758   3.487  0.4452  1.2990 -0.0981
43843SOL    HW238388   6.481  10.879   3.450 -1.2506  0.0083 -0.6111
43844SOL     OW38389  10.420   3.490   7.156  0.3146  0.3658  0.1422
43844SOL    HW138390  10.454   3.467   7.242 -0.3262  1.0982  0.5947
43844SOL    HW238391  10.487   3.457   7.095  2.0230  2.0552  1.0046
43845SOL     OW38392   7.803   1.314   2.940  0.1225  0.6797 -0.0463
43845SOL    HW138393   7.751   1.378   2.989  0.2819 -0.0778  1.1425
43845SOL    HW238394   7.738   1.265   2.889 -0.2700  0.2020  0.8914
43846SOL     OW38395   1.281   1.215   7.835 -0.6463 -0.0082 -0.5692
43846SOL    HW138396   1.189   1.222   7.861 -1.6828 -0.4484 -3.7339
43846SOL    HW238397   1.287   1.267   7.755  1.7067 -0.6796 -0.9006
43847SOL     OW38398   5.774  12.364   2.395  0.3615  0.0365  0.0962
43847SOL    HW138399   5.720  12.415   2.455 -0.0172  0.5026 -0.6180
43847SOL    HW238400   5.825  12.429   2.347  1.5943 -0.4027  0.7847
43848SOL     OW38401   8.972  11.436   7.212  0.4718 -0.3331 -0.3222
43848SOL    HW138402   9.021  11.405   7.288  1.5572  0.3138 -0.7272
43848SOL    HW238403   8.889  11.467   7.247  0.7398 -0.5554  0.5215
43849SOL     OW38404   4.518   0.847   4.289 -0.5532 -0.3443  0.8734
43849SOL    HW138405   4.514   0.783   4.218  0.5834 -0.5719  0.9934
43849SOL    HW238406   4.606   0.837   4.325 -0.5674  0.8624  1.2932
43850SOL     OW38407   4.003   9.674   5.741  0.3732 -0.3413 -0.2183
43850SOL    HW138408   4.030   9.585   5.765  0.4867 -0.1711  0.2894
43850SOL    HW238409   3.917   9.662   5.701  0.7839 -0.7779 -0.9958
43851SOL     OW38410   3.061   8.084   5.178  0.3066  0.1313 -0.0225
43851SOL    HW138411   2.991   8.141   5.209  0.6230  0.1541  0.6689
43851SOL    HW238412   3.113   8.140   5.119 -0.8040 -0.1664 -1.3245
43852SOL     OW38413   3.291   8.677  11.691  0.3932 -0.1894 -0.5471
43852SOL    HW138414   3.304   8.584  11.707 -1.2933 -0.4161 -0.3371
43852SOL    HW238415   3.377   8.717  11.708  0.7207 -1.4842  1.0008
43853SOL     OW38416   2.626  11.898  12.553 -0.2209  0.3881  0.6615
43853SOL    HW138417   2.610  11.884  12.646 -0.5811  0.8827  0.6756
43853SOL    HW238418   2.557  11.958  12.525  0.2917  0.7844  0.2263
43854SOL     OW38419   9.054  11.904  11.423  0.2890 -0.1858 -0.2024
43854SOL    HW138420   9.019  11.867  11.343  0.1770  0.2978 -0.3791
43854SOL    HW238421   9.008  11.988  11.434 -0.0461 -0.4592  0.6177
43855SOL     OW38422  12.091   1.346   1.687 -0.1644 -0.2203 -0.1213
43855SOL    HW138423  12.002   1.380   1.674 -0.4177 -1.1095 -0.7981
43855SOL    HW238424  12.092   1.262   1.641  1.2786  0.1554 -0.8230
43856SOL     OW38425   0.646   8.728   3.834 -0.1705 -0.1329  0.3810
43856SOL    HW138426   0.561   8.771   3.837 -0.9979 -1.6931  0.5228
43856SOL    HW238427   0.656   8.702   3.742  0.2010  0.1264  0.3454
43857SOL     OW38428   0.238   5.409   7.654 -0.0502  0.0381 -0.0686
43857SOL    HW138429   0.260   5.349   7.725 -1.7459  0.2610  0.6929
43857SOL    HW238430   0.220   5.492   7.698  0.4416  0.6071 -0.9270
43858SOL     OW38431   0.738  11.544   2.359  0.2331 -0.3852 -0.6807
43858SOL    HW138432   0.645  11.567   2.363  0.3346  1.1139 -3.8296
43858SOL    HW238433   0.783  11.624   2.388  0.4791  0.4105 -2.9963
43859SOL     OW38434  10.038   0.545   1.600  0.2616  0.4983  0.3363
43859SOL    HW138435  10.010   0.498   1.679  0.8736 -0.7038 -0.1368
43859SOL    HW238436  10.089   0.619   1.632 -0.5813  0.7707  1.0938
43860SOL     OW38437   6.979  10.494   6.383  0.2286  0.0878 -0.1402
43860SOL    HW138438   7.067  10.459   6.378  0.5897  0.8507  0.6618
43860SOL    HW238439   6.951  10.478   6.473 -1.2132 -1.8906 -0.8792
43861SOL     OW38440   1.929   2.190   7.003 -0.3009 -0.4120 -0.3366
43861SOL    HW138441   1.894   2.279   7.001  0.4038 -0.1217 -0.0166
43861SOL    HW238442   1.861   2.137   6.960 -1.1249  0.1314  0.2495
43862SOL     OW38443   2.844  10.169   8.399  0.2383 -0.1407  0.3750
43862SOL    HW138444   2.839  10.155   8.494  0.4128 -2.0214  0.1415
43862SOL    HW238445   2.763  10.130   8.365  0.6204 -0.3419 -0.3225
43863SOL     OW38446   2.971   3.868   5.345  0.5683  0.3017  0.3707
43863SOL    HW138447   2.885   3.903   5.368  0.1580 -0.1133 -0.4899
43863SOL    HW238448   2.977   3.785   5.392  0.4223  0.2517  0.3016
43864SOL     OW38449   0.127   1.583   2.032 -0.0952  0.3274 -0.1705
43864SOL    HW138450   0.080   1.511   1.990 -1.0039  1.6595 -1.5871
43864SOL    HW238451   0.073   1.606   2.108 -0.2014  0.0048 -0.1475
43865SOL     OW38452   6.127   0.625   2.032  0.1065 -0.3616 -0.7889
43865SOL    HW138453   6.038   0.654   2.014  0.8088  1.3572 -1.7233
43865SOL    HW238454   6.181   0.669   1.967  1.5489 -2.2551 -0.9782
43866SOL     OW38455   0.664   2.827   0.911  0.0533 -0.1010  0.1344
43866SOL    HW138456   0.743   2.786   0.945 -0.2183 -1.6531 -1.0011
43866SOL    HW238457   0.592   2.776   0.948 -0.4531  1.2048  1.0432
43867SOL     OW38458   6.618   9.896  11.497  0.3575 -0.7782  0.0570
43867SOL    HW138459   6.657   9.812  11.473 -0.1569 -0.9473 -0.2149
43867SOL    HW238460   6.588   9.884  11.587  1.6610 -0.3751  0.5618
43868SOL     OW38461  11.841  10.974  11.669  0.2293 -0.2980  0.7339
43868SOL    HW138462  11.862  11.028  11.593 -1.6870 -0.1111  0.2854
43868SOL    HW238463  11.926  10.949  11.705  1.2122 -0.3465 -1.4374
43869SOL     OW38464   9.652   0.931  12.111 -0.3611 -0.4666 -0.6146
43869SOL    HW138465   9.595   0.856  12.129 -1.4971  0.0965 -1.6764
43869SOL    HW238466   9.702   0.942  12.192 -1.1435 -1.5201  0.0578
43870SOL     OW38467   8.213   5.482   7.989 -0.2764  0.8215  0.8299
43870SOL    HW138468   8.131   5.447   7.956  0.1366 -0.4755  1.1452
43870SOL    HW238469   8.243   5.418   8.053  1.0997  1.1457  0.5464
43871SOL     OW38470   3.444   7.662  12.465  0.1273 -0.3967  0.3631
43871SOL    HW138471   3.454   7.636  12.373  1.6890 -1.3777  0.7708
43871SOL    HW238472   3.416   7.582  12.509  0.8879 -0.3232  0.9831
43872SOL     OW38473   1.822   0.762   7.102 -0.6220 -0.2431 -0.0223
43872SOL    HW138474   1.813   0.699   7.030  1.7787  0.2802 -0.9135
43872SOL    HW238475   1.733   0.780   7.131 -1.9814  1.0559 -4.2645
43873SOL     OW38476   5.014  10.502   6.224 -0.4005  0.4799 -0.2079
43873SOL    HW138477   4.938  10.494   6.282 -1.9959 -0.4609 -2.3012
43873SOL    HW238478   5.005  10.590   6.186 -0.9443  0.0575 -1.0813
43874SOL     OW38479   4.689   9.081   2.675 -0.4841 -0.1358  0.2193
43874SOL    HW138480   4.697   9.126   2.759 -1.0627  0.1823  0.1103
43874SOL    HW238481   4.764   9.111   2.624 -0.1973 -0.2388  0.5782
43875SOL     OW38482   0.784   9.807  10.639  0.1570 -0.0412  0.9982
43875SOL    HW138483   0.769   9.739  10.705  0.1917 -2.0379 -0.9490
43875SOL    HW238484   0.702   9.856  10.637  0.4013  0.5535  2.9945
43876SOL     OW38485  12.491  12.316   3.159  0.6953  0.4917 -0.5286
43876SOL    HW138486  12.562  12.252   3.161  0.7703  0.5835  0.6456
43876SOL    HW238487  12.463  12.323   3.250 -1.0538  0.2173 -1.0105
43877SOL     OW38488   2.701   5.009   1.073 -0.2374 -0.3087  0.4522
43877SOL    HW138489   2.681   5.102   1.066  3.9050  0.7781  0.3752
43877SOL    HW238490   2.641   4.976   1.140 -0.4232  2.9453  2.0851
43878SOL     OW38491   9.929   4.674   0.634 -0.3172 -0.0155  0.0600
43878SOL    HW138492   9.941   4.767   0.655 -0.5176  0.3700 -1.4197
43878SOL    HW238493   9.952   4.668   0.541  1.2229 -1.7565  0.5050
43879SOL     OW38494   3.457   2.713   3.023 -0.5296 -0.3242  0.0178
43879SOL    HW138495   3.438   2.649   2.955 -1.9381 -0.7252  0.7644
43879SOL    HW238496   3.446   2.666   3.105 -0.8122  0.6693  0.5693
43880SOL     OW38497   6.211  10.742   7.317  0.1690 -0.4201 -0.0209
43880SOL    HW138498   6.255  10.671   7.364 -2.4387 -1.8230  0.4531
43880SOL    HW238499   6.164  10.698   7.246 -1.7891  0.7534  0.4877
43881SOL     OW38500   0.898   1.521   5.852  0.2862 -0.3308 -0.5411
43881SOL    HW138501   0.931   1.520   5.942 -0.2523 -1.7834 -0.3218
43881SOL    HW238502   0.922   1.435   5.818 -1.1111 -0.4891 -1.1733
43882SOL     OW38503   8.497   2.186   9.500  0.6540  0.2260 -0.3596
43882SOL    HW138504   8.537   2.264   9.539 -0.2593  0.4104  0.2493
43882SOL    HW238505   8.484   2.127   9.574 -0.9273  0.4993 -0.3797
43883SOL     OW38506   9.762   1.137   2.797 -0.4334 -0.0220  0.2466
43883SOL    HW138507   9.713   1.198   2.741 -1.6779  0.2054  1.5209
43883SOL    HW238508   9.744   1.051   2.758  0.3981  0.2863 -0.8838
43884SOL     OW38509   9.448  10.747   9.112 -0.3347  0.1093  0.7416
43884SOL    HW138510   9.356  10.761   9.089 -0.4826  0.6261  1.5974
43884SOL    HW238511   9.447  10.725   9.205  0.3444 -0.7005  0.5743
43885SOL     OW38512  11.309   9.436   8.200  0.0219 -0.1961 -0.2731
43885SOL    HW138513  11.343   9.347   8.210  0.0184 -0.1862 -0.1691
43885SOL    HW238514  11.364   9.489   8.257  0.9247  0.1011 -1.3877
43886SOL     OW38515  12.510   7.043   1.703  0.3545  0.4299 -0.2391
43886SOL    HW138516  12.423   7.082   1.703  0.1904  0.0894  0.9120
43886SOL    HW238517  12.553   7.079   1.780 -0.1544 -2.3619  1.4589
43887SOL     OW38518   7.542  10.569   0.221  0.3224 -0.3917 -0.1219
43887SOL    HW138519   7.627  10.527   0.210  0.2317 -0.5102 -0.3711
43887SOL    HW238520   7.501  10.564   0.135  0.9219  1.5535 -0.5730
43888SOL     OW38521   1.977   5.081  10.126  0.3459  0.4298 -0.2193
43888SOL    HW138522   1.895   5.046  10.092  0.9140 -0.3379 -0.8602
43888SOL    HW238523   1.972   5.067  10.220  0.5689 -1.5505 -0.4401
43889SOL     OW38524   6.066   5.715  11.735  0.2333  0.6645  0.4742
43889SOL    HW138525   6.036   5.729  11.646 -2.3266 -0.5990  1.0423
43889SOL    HW238526   6.033   5.790  11.784 -0.4818  0.1842  0.7567
43890SOL     OW38527  11.364   5.186   8.137 -0.3780 -0.1224 -0.4127
43890SOL    HW138528  11.354   5.225   8.224  0.8161  1.2729 -0.8552
43890SOL    HW238529  11.299   5.116   8.135 -0.7234  0.0825  1.4411
43891SOL     OW38530  12.047   1.773  11.997  0.6199  0.0073  0.1908
43891SOL    HW138531  12.002   1.761  12.081 -0.3563  0.4081 -0.2666
43891SOL    HW238532  11.991   1.728  11.934  1.4801 -0.5111 -0.2216
43892SOL     OW38533   2.133   1.779  11.667  0.1984  0.0133  0.3762
43892SOL    HW138534   2.187   1.767  11.745  0.6416  0.3965  0.1348
43892SOL    HW238535   2.174   1.725  11.600 -0.6503 -0.9542  0.6188
43893SOL     OW38536   7.702   2.404   7.179  0.4960 -0.3751 -0.5054
43893SOL    HW138537   7.695   2.327   7.236  3.0012  0.0370  0.4997
43893SOL    HW238538   7.736   2.473   7.236  2.6087  0.2113 -2.3261
43894SOL     OW38539  10.298   0.194   2.385  0.5451  0.1829 -0.6288
43894SOL    HW138540  10.287   0.213   2.478  2.0436  1.5714 -0.6895
43894SOL    HW238541  10.221   0.141   2.362  0.2206 -0.3166  1.4066
43895SOL     OW38542  10.551   0.671   3.049  0.3175  0.3531  0.0731
43895SOL    HW138543  10.582   0.748   3.002  1.5463 -0.4046 -0.4041
43895SOL    HW238544  10.576   0.686   3.140 -0.7244  1.1432  0.2454
43896SOL     OW38545   2.147   3.465   1.829  0.0562 -0.2159  0.6005
43896SOL    HW138546   2.160   3.528   1.900  2.3326 -0.0538  0.1188
43896SOL    HW238547   2.226   3.472   1.777 -1.0702 -1.1558 -1.3386
43897SOL     OW38548   9.371   4.988   3.852 -0.3802  0.0861 -0.0680
43897SOL    HW138549   9.337   5.052   3.790 -0.4912 -1.0300 -1.1981
43897SOL    HW238550   9.307   4.916   3.850 -1.3114  0.7407  2.6493
43898SOL     OW38551   8.271   7.233   3.749 -0.6119 -0.1917  0.1183
43898SOL    HW138552   8.355   7.275   3.732 -0.3279 -0.8327 -0.1123
43898SOL    HW238553   8.245   7.265   3.836  0.6207 -1.1580  0.8750
43899SOL     OW38554   3.688  11.157  11.796  0.2898  0.5380 -0.7457
43899SOL    HW138555   3.680  11.103  11.718 -0.9531  0.3620 -0.5049
43899SOL    HW238556   3.782  11.156  11.816  0.2801 -1.8739 -0.5038
43900SOL     OW38557   2.106   2.139   5.635  0.3823  0.1506  0.8620
43900SOL    HW138558   2.176   2.116   5.573  1.0331 -1.3209  2.0475
43900SOL    HW238559   2.133   2.223   5.671  0.9690  0.1278  0.4941
43901SOL     OW38560   3.757   5.954  11.156 -0.6512 -0.6021  0.3062
43901SOL    HW138561   3.844   5.933  11.189 -0.2777  0.2878 -0.0855
43901SOL    HW238562   3.699   5.937  11.230  0.1012  0.8730  1.2734
43902SOL     OW38563   0.552  10.460   1.343 -0.0716  0.1143 -0.4577
43902SOL    HW138564   0.580  10.409   1.267 -1.7467  1.1352 -1.8388
43902SOL    HW238565   0.462  10.487   1.322 -0.5388  0.5371  1.8483
43903SOL     OW38566   3.553   7.841   8.081 -0.1231  0.7077 -0.0250
43903SOL    HW138567   3.550   7.890   7.998  0.9776  0.4290 -0.2438
43903SOL    HW238568   3.488   7.772   8.071 -0.1043  0.7708 -0.5989
43904SOL     OW38569   5.446   5.402   0.471  0.1718 -0.1655 -0.0934
43904SOL    HW138570   5.461   5.338   0.540 -1.4473  0.5598  0.9785
43904SOL    HW238571   5.420   5.482   0.517  1.3213  1.0507 -1.4397
43905SOL     OW38572   9.568   5.324   0.477 -0.1642 -0.4269  0.1045
43905SOL    HW138573   9.616   5.406   0.466  0.9572 -1.1992 -1.0183
43905SOL    HW238574   9.555   5.291   0.388  1.5024 -2.6073  0.5763
43906SOL     OW38575   8.180  12.546   5.005 -0.1363 -0.1962  0.5372
43906SOL    HW138576   8.167  12.514   5.094 -0.5892 -0.4888  0.3667
43906SOL    HW238577   8.133  12.484   4.949  1.4210 -0.9301 -0.0422
43907SOL     OW38578   9.552   8.215   0.063 -0.2894  0.0595  0.5312
43907SOL    HW138579   9.625   8.161   0.032 -0.4275  0.1648  0.0064
43907SOL    HW238580   9.548   8.287   0.001 -1.1596 -0.2117  0.2495
43908SOL     OW38581   6.119  11.747   5.862 -0.4087 -0.6881 -0.1583
43908SOL    HW138582   6.086  11.781   5.779  0.4967  0.7838  0.0405
43908SOL    HW238583   6.212  11.729   5.846 -0.8969 -3.4711 -0.3284
43909SOL     OW38584   7.323   8.343   2.962  0.1108 -0.1314 -0.1155
43909SOL    HW138585   7.376   8.325   2.884 -1.0432  1.2815 -1.2668
43909SOL    HW238586   7.241   8.378   2.928  1.4706  5.9471  1.6585
43910SOL     OW38587   0.213   3.304   1.023  0.8698 -0.2543 -0.1307
43910SOL    HW138588   0.194   3.321   1.115 -0.5071 -1.5999 -0.1243
43910SOL    HW238589   0.308   3.291   1.020  1.1051  1.0526  0.8630
43911SOL     OW38590   6.875   5.850   9.470 -0.4966 -0.1295 -0.3042
43911SOL    HW138591   6.893   5.941   9.447  0.1099 -0.3052 -0.5431
43911SOL    HW238592   6.929   5.833   9.547 -0.3873 -0.3673 -0.4307
43912SOL     OW38593   7.795   1.083   5.277 -0.7311  0.8028 -0.0023
43912SOL    HW138594   7.816   1.141   5.203  1.5890 -1.3644 -1.1865
43912SOL    HW238595   7.873   1.028   5.287 -1.9401 -0.5995  2.5245
43913SOL     OW38596   2.122   2.227   0.941  0.5855  0.0531  0.2738
43913SOL    HW138597   2.111   2.135   0.961  2.2277 -0.5969 -1.4882
43913SOL    HW238598   2.217   2.241   0.944  0.4261  1.4723 -0.3223
43914SOL     OW38599   8.637   5.328  10.461 -0.0282  0.3076 -0.2307
43914SOL    HW138600   8.682   5.327  10.545  1.6203  0.3124 -1.0572
43914SOL    HW238601   8.674   5.404  10.415 -2.9224  2.0181  0.0446
43915SOL     OW38602   8.930   9.278   0.360 -0.4337 -0.4342 -0.0370
43915SOL    HW138603   8.857   9.337   0.377  0.0240  0.2693 -0.4366
43915SOL    HW238604   8.914   9.246   0.271 -1.4959 -2.1477  0.7069
43916SOL     OW38605   3.197   1.208  10.702 -0.1405 -0.3230 -0.0194
43916SOL    HW138606   3.266   1.249  10.650 -0.6105 -0.9336 -1.1642
43916SOL    HW238607   3.244   1.160  10.771  0.5816 -0.6609 -0.7270
43917SOL     OW38608   8.484   3.181   8.019 -0.4012  0.6905 -0.2729
43917SOL    HW138609   8.488   3.223   8.105  0.3439  0.4992 -0.2110
43917SOL    HW238610   8.508   3.251   7.958  0.1110  0.5546 -0.2319
43918SOL     OW38611  12.451   7.232   7.267  0.5805 -0.2313 -0.4702
43918SOL    HW138612  12.484   7.189   7.346  1.1093 -1.3845 -1.2868
43918SOL    HW238613  12.416   7.160   7.214 -0.7927  0.6466 -0.8190
43919SOL     OW38614   7.368   4.734   6.131 -0.1477  0.1476  0.4430
43919SOL    HW138615   7.404   4.655   6.171 -0.6683 -0.8322 -0.9628
43919SOL    HW238616   7.417   4.743   6.049 -0.8145  0.6867  0.0972
43920SOL     OW38617   3.145   3.730  11.282  0.2997  0.1571  0.2633
43920SOL    HW138618   3.158   3.705  11.373  0.1862  2.0191  0.8327
43920SOL    HW238619   3.192   3.664  11.231  1.7262  0.0067  1.7310
43921SOL     OW38620   0.420   7.295   3.776 -0.5678  0.0402 -0.2264
43921SOL    HW138621   0.462   7.367   3.823 -0.0346 -0.5697  0.2558
43921SOL    HW238622   0.346   7.270   3.831  1.1525 -1.9362  1.3510
43922SOL     OW38623   4.548   5.525   9.865  0.0111  0.7200 -0.2915
43922SOL    HW138624   4.580   5.607   9.828  0.5195  0.3723 -0.6531
43922SOL    HW238625   4.628   5.476   9.886 -0.2836  0.2479 -0.2496
43923SOL     OW38626   5.234   1.899   7.532 -0.2216  0.0707  0.0184
43923SOL    HW138627   5.228   1.852   7.616 -0.1041  0.4505  0.2444
43923SOL    HW238628   5.270   1.985   7.556 -0.6204  0.3468 -0.3618
43924SOL     OW38629   4.040   3.607  11.814 -0.0880 -0.1493  0.0413
43924SOL    HW138630   4.122   3.559  11.823  0.2990  0.5589  0.3502
43924SOL    HW238631   4.058   3.672  11.746 -1.0833 -1.4181 -1.5428
43925SOL     OW38632   7.243   7.727   7.341 -0.7490 -0.7420  0.1781
43925SOL    HW138633   7.285   7.710   7.426  0.0056 -0.4159 -0.1291
43925SOL    HW238634   7.315   7.741   7.280 -1.2646 -1.7501 -0.6959
43926SOL     OW38635   0.598   1.773   3.465 -0.1289  0.1144 -0.2117
43926SOL    HW138636   0.572   1.710   3.397  2.1661 -2.2146  0.8951
43926SOL    HW238637   0.518   1.787   3.516 -0.7890 -1.7613 -0.6473
43927SOL     OW38638  10.208   2.976   3.319 -0.3075 -0.4006  0.0710
43927SOL    HW138639  10.231   3.022   3.399  1.4005 -0.8926 -0.0794
43927SOL    HW238640  10.187   2.887   3.347  1.6199 -0.9592 -0.0910
43928SOL     OW38641   9.590   9.672   2.249 -0.3322  0.0553 -0.2686
43928SOL    HW138642   9.647   9.598   2.230  2.4642  2.0321 -0.2922
43928SOL    HW238643   9.616   9.700   2.336 -2.4869  0.0810  0.4077
43929SOL     OW38644   7.308   5.244   4.533  0.3419  0.1980 -0.0192
43929SOL    HW138645   7.363   5.198   4.469 -0.1106  0.3487 -0.5178
43929SOL    HW238646   7.371   5.294   4.585  0.8325 -0.8541  0.4375
43930SOL     OW38647   0.223   0.784  11.470  0.4429 -0.7934 -0.5885
43930SOL    HW138648   0.301   0.755  11.518  0.8662 -0.0361 -0.8017
43930SOL    HW238649   0.230   0.741  11.385 -0.4239 -2.3196  0.0664
43931SOL     OW38650  11.445   6.821   5.304 -0.5496 -0.1072  0.0054
43931SOL    HW138651  11.453   6.726   5.294  0.5435 -0.1819  1.1879
43931SOL    HW238652  11.533   6.854   5.285 -0.7624  0.5982  0.2207
43932SOL     OW38653   2.072   6.655   4.670 -0.0321 -0.2190  0.2125
43932SOL    HW138654   2.154   6.612   4.648  0.8452  1.4280  0.0452
43932SOL    HW238655   2.009   6.626   4.604  0.3969 -1.5063  0.3572
43933SOL     OW38656   3.810   1.117   2.020  0.0842 -0.8054  0.1301
43933SOL    HW138657   3.850   1.155   2.098 -2.2455 -0.3619  1.2093
43933SOL    HW238658   3.732   1.073   2.053 -0.0108 -2.1667 -1.7555
43934SOL     OW38659   5.709  10.946   6.756 -0.1455  0.3437 -0.3567
43934SOL    HW138660   5.772  10.912   6.819 -1.4174 -0.3209  0.5985
43934SOL    HW238661   5.710  10.883   6.684  1.6757  1.3612 -1.3177
43935SOL     OW38662   5.262  10.581  10.636 -0.1417 -0.0323  0.1556
43935SOL    HW138663   5.186  10.583  10.578 -2.3900 -0.8633  2.8254
43935SOL    HW238664   5.284  10.489  10.645  0.9758  0.1724 -0.2651
43936SOL     OW38665   5.099   4.802   5.911 -0.3294  0.3815  0.1381
43936SOL    HW138666   5.068   4.794   5.821  2.0224 -1.6782 -0.5744
43936SOL    HW238667   5.192   4.825   5.903 -0.8830  4.2332  2.1640
43937SOL     OW38668  10.538   5.685  10.461  0.1841 -0.0356 -0.1912
43937SOL    HW138669  10.494   5.642  10.534  0.6342  1.3878  0.9568
43937SOL    HW238670  10.468   5.723  10.409 -0.0310  2.4217  1.7512
43938SOL     OW38671   4.266   0.942   5.208 -0.5408  0.1277  0.7108
43938SOL    HW138672   4.207   0.912   5.139  0.5074  0.1352 -0.2222
43938SOL    HW238673   4.354   0.917   5.177 -0.0037  0.6036  1.7942
43939SOL     OW38674   9.323   3.467   0.994 -0.6692  0.1899 -0.1083
43939SOL    HW138675   9.340   3.449   0.902 -2.0368  0.3835 -0.4206
43939SOL    HW238676   9.392   3.420   1.041 -0.5415 -0.7309 -1.1809
43940SOL     OW38677   9.139   6.351   2.428  0.1009  0.9108  0.3251
43940SOL    HW138678   9.096   6.378   2.509 -0.0017  1.8435 -0.0363
43940SOL    HW238679   9.069   6.351   2.362  0.3273  0.8391  0.0842
43941SOL     OW38680   3.879  11.378   9.559 -0.0933  0.1497  0.3711
43941SOL    HW138681   3.879  11.464   9.600 -0.4342  0.4243 -0.1892
43941SOL    HW238682   3.787  11.358   9.545  0.0437  0.5773 -1.3027
43942SOL     OW38683   5.067  10.345   5.183  0.7981  0.2461  0.2942
43942SOL    HW138684   4.991  10.361   5.128  0.3873  0.0403  0.7916
43942SOL    HW238685   5.032  10.338   5.272  1.1839 -1.3798  0.3579
43943SOL     OW38686   9.229   0.314  12.136 -0.2223 -0.3134  0.0311
43943SOL    HW138687   9.164   0.278  12.076  0.2176  0.2268 -0.7800
43943SOL    HW238688   9.270   0.385  12.088  0.6813 -0.3716  0.6892
43944SOL     OW38689  12.384   4.125   9.704 -0.2182 -0.2260  0.0577
43944SOL    HW138690  12.419   4.047   9.747 -1.3898 -1.2265 -0.7255
43944SOL    HW238691  12.297   4.099   9.674 -0.6765  1.4179 -0.1544
43945SOL     OW38692   7.523   8.988   4.038 -0.2512  0.8839  0.1949
43945SOL    HW138693   7.492   8.976   3.949  1.1623 -2.9107  0.0579
43945SOL    HW238694   7.561   9.076   4.038 -2.5022  1.9870 -2.1372
43946SOL     OW38695   9.083   9.132   8.364  0.6345 -0.1775  0.7733
43946SOL    HW138696   9.028   9.110   8.288 -0.1589  0.5017  1.1284
43946SOL    HW238697   9.100   9.226   8.354 -0.4158  0.1701  2.0086
43947SOL     OW38698   6.713  11.509   5.418  0.1505 -0.8288 -0.2913
43947SOL    HW138699   6.664  11.552   5.487  1.1690  0.9680 -0.6007
43947SOL    HW238700   6.767  11.444   5.463 -2.1871 -2.6553  0.0772
43948SOL     OW38701   7.672  12.090   6.740 -0.1473  0.0426  0.3429
43948SOL    HW138702   7.666  12.110   6.647  1.1548  0.4205  0.3190
43948SOL    HW238703   7.646  11.998   6.746  1.5963 -0.5751 -0.6963
43949SOL     OW38704   3.353   5.031   5.730 -0.1452 -0.6685  0.2062
43949SOL    HW138705   3.339   5.079   5.648  1.1535  0.3627  0.5626
43949SOL    HW238706   3.265   5.000   5.755 -0.6194 -0.6607 -1.3497
43950SOL     OW38707   0.094   3.042  12.219  0.6784  0.3593 -0.2673
43950SOL    HW138708   0.110   2.948  12.214  1.1969  0.4468 -0.2405
43950SOL    HW238709  -0.001   3.050  12.205  0.6857 -0.1364 -0.6588
43951SOL     OW38710  10.191   4.611  10.743  0.3384  0.2527 -0.1249
43951SOL    HW138711  10.175   4.557  10.819 -1.0731  2.9262  1.6527
43951SOL    HW238712  10.269   4.662  10.766 -2.0453  3.6300  1.3074
43952SOL     OW38713   5.980   9.622   7.695 -0.3317  0.1542 -0.0624
43952SOL    HW138714   6.060   9.570   7.689 -0.7391 -0.3088 -2.3932
43952SOL    HW238715   5.910   9.556   7.704 -0.6750  0.4030 -0.8775
43953SOL     OW38716   3.399   6.343   2.137  0.1197  0.3444  0.0177
43953SOL    HW138717   3.402   6.250   2.115  0.0315  0.1184  0.9211
43953SOL    HW238718   3.447   6.385   2.066  1.6679 -0.5667  0.4687
43954SOL     OW38719   2.414   7.950   2.771 -0.1834  0.0173  0.5891
43954SOL    HW138720   2.334   7.981   2.730 -0.0853 -0.5399 -0.0506
43954SOL    HW238721   2.463   8.029   2.792 -0.7491  0.3458  0.6745
43955SOL     OW38722   7.064  10.314   4.168  0.7257  0.1168 -0.1585
43955SOL    HW138723   7.137  10.372   4.149  1.7823 -1.1037  0.0107
43955SOL    HW238724   7.098  10.253   4.233 -0.7448  0.0920  0.6266
43956SOL     OW38725   8.303   8.683   0.481 -0.2361 -0.0207 -0.4745
43956SOL    HW138726   8.329   8.770   0.452  0.4896 -0.7311 -2.1095
43956SOL    HW238727   8.381   8.630   0.469 -0.3376 -0.6895  1.5449
43957SOL     OW38728   8.831  11.167   1.405  0.2304  0.3367 -0.6121
43957SOL    HW138729   8.867  11.131   1.324 -0.5454  0.5194 -1.0434
43957SOL    HW238730   8.771  11.236   1.377 -1.4142 -0.7865  0.0297
43958SOL     OW38731   9.390  12.094   2.362 -0.6023  0.0063  0.4297
43958SOL    HW138732   9.373  12.119   2.271  0.1955  0.3716  0.3662
43958SOL    HW238733   9.433  12.009   2.356 -1.3171 -0.3597  0.5149
43959SOL     OW38734   4.601   9.951   2.502  0.4285 -0.1460  0.2684
43959SOL    HW138735   4.650  10.031   2.481  0.7140  0.3691  2.6538
43959SOL    HW238736   4.595   9.951   2.597 -1.4814 -1.8725  0.2038
43960SOL     OW38737   2.718  12.274  10.448 -0.0693 -0.1726 -0.1865
43960SOL    HW138738   2.661  12.205  10.415 -2.0526  1.7141 -0.9558
43960SOL    HW238739   2.802  12.258  10.405 -1.0315 -1.0188 -1.8550
43961SOL     OW38740   0.516   1.220  10.559  0.0031 -0.0068 -0.8844
43961SOL    HW138741   0.582   1.193  10.623  0.6789  1.6841 -0.8019
43961SOL    HW238742   0.551   1.301  10.521 -1.0213 -0.2290 -2.4223
43962SOL     OW38743   2.200  10.638   6.646 -0.0553 -0.0791 -0.0734
43962SOL    HW138744   2.273  10.669   6.593 -0.2301  0.6961  0.1124
43962SOL    HW238745   2.205  10.543   6.642  1.4479 -0.0578  0.5921
43963SOL     OW38746   6.937   1.900   7.162  0.5087 -0.1445 -0.0832
43963SOL    HW138747   6.850   1.940   7.171 -0.2862 -1.6005 -0.8749
43963SOL    HW238748   6.923   1.826   7.104  2.0093 -1.2696  0.9097
43964SOL     OW38749   0.954   1.211  10.719 -0.0454 -0.4832 -0.6460
43964SOL    HW138750   1.030   1.169  10.760 -0.0577 -2.1038 -2.1340
43964SOL    HW238751   0.968   1.198  10.625 -1.3762  0.6142 -1.0234
43965SOL     OW38752   6.685   1.903  10.755  0.2944  0.0844 -0.1172
43965SOL    HW138753   6.709   1.831  10.813 -1.2044 -0.1566  0.2253
43965SOL    HW238754   6.762   1.961  10.757  0.8230 -0.6097  0.9942
43966SOL     OW38755   4.423   4.067   7.545 -0.0146 -0.2868  0.2527
43966SOL    HW138756   4.370   4.146   7.548  0.3961  0.0624 -1.2049
43966SOL    HW238757   4.457   4.057   7.634 -1.2918  0.3145  0.8283
43967SOL     OW38758  11.430  11.139   1.585 -0.3292 -0.3263 -0.6638
43967SOL    HW138759  11.519  11.157   1.613 -1.2094  0.4448  1.8938
43967SOL    HW238760  11.433  11.048   1.553  0.4633 -2.3532  4.3102
43968SOL     OW38761   1.505   1.699   2.024 -0.5953 -0.0544  1.0391
43968SOL    HW138762   1.560   1.656   1.959 -0.0896  2.0647 -0.0279
43968SOL    HW238763   1.548   1.681   2.108 -0.6647 -1.9136  0.7281
43969SOL     OW38764  11.210  12.182   3.630  0.0999 -0.7796 -0.1495
43969SOL    HW138765  11.168  12.159   3.548 -2.1471  0.4383  0.5847
43969SOL    HW238766  11.202  12.278   3.635  0.0783 -0.8432  1.5489
43970SOL     OW38767   8.669   3.778   0.736  0.7151  0.0156 -0.4770
43970SOL    HW138768   8.737   3.829   0.780  1.8028 -0.3386 -1.6610
43970SOL    HW238769   8.698   3.773   0.645 -1.2554  0.3974 -1.1689
43971SOL     OW38770  11.362  12.449  12.453  0.2323  0.4384 -0.4070
43971SOL    HW138771  11.397  12.508  12.387 -0.7034  0.4488 -0.9065
43971SOL    HW238772  11.317  12.506  12.515 -1.2972  0.2394 -1.2745
43972SOL     OW38773  11.390   7.916   4.569 -0.6912  0.4251  0.0264
43972SOL    HW138774  11.378   7.916   4.474 -1.3234 -1.6134  0.0549
43972SOL    HW238775  11.463   7.857   4.584 -1.3023 -0.1473  0.8535
43973SOL     OW38776   3.443   6.962   0.413 -0.0493  0.1573  0.2647
43973SOL    HW138777   3.533   6.987   0.391 -0.1735  1.4574  1.1682
43973SOL    HW238778   3.413   6.912   0.336  1.3477 -0.1066 -0.1465
43974SOL     OW38779  11.713   3.157   7.861 -0.5820  0.1171  0.3559
43974SOL    HW138780  11.642   3.126   7.805  0.5178 -1.2817 -0.3073
43974SOL    HW238781  11.744   3.079   7.906  1.0548  0.5461  0.0266
43975SOL     OW38782   1.839   3.151   0.338  0.3151  0.0176  0.2612
43975SOL    HW138783   1.896   3.215   0.294  2.0173 -1.9353 -0.5615
43975SOL    HW238784   1.898   3.081   0.364 -1.2081 -0.4808  2.7026
43976SOL     OW38785   3.014   1.228   7.931 -0.3591  0.1487 -0.8721
43976SOL    HW138786   2.919   1.220   7.924 -0.6034 -2.4108  2.8592
43976SOL    HW238787   3.028   1.301   7.992  0.1479  0.6994 -1.6206
43977SOL     OW38788   1.363   1.215   7.502  0.4278  0.1971 -0.0828
43977SOL    HW138789   1.434   1.152   7.485  0.3831  0.4851 -1.4728
43977SOL    HW238790   1.402   1.300   7.484  0.2736  0.5316  1.0832
43978SOL     OW38791   5.168   2.441   6.468  0.5756 -0.2494  0.1254
43978SOL    HW138792   5.228   2.516   6.467  1.0864 -0.6533  0.0842
43978SOL    HW238793   5.108   2.458   6.395  2.6849 -1.4587 -2.0216
43979SOL     OW38794   6.715   2.851   9.409  0.1197 -0.0889 -0.7686
43979SOL    HW138795   6.647   2.911   9.380  1.0754  1.5794  0.2703
43979SOL    HW238796   6.794   2.905   9.418  0.8743 -1.3413  0.8235
43980SOL     OW38797   7.989   1.240   2.459 -0.0519 -0.2877 -0.3409
43980SOL    HW138798   7.913   1.195   2.496 -0.0719 -0.8268 -1.0139
43980SOL    HW238799   8.059   1.223   2.521 -0.4003 -0.0671  0.1180
43981SOL     OW38800   3.009   0.085   2.454  0.1476 -0.4104 -0.3746
43981SOL    HW138801   2.971   0.169   2.430  0.7864  0.3726  1.2060
43981SOL    HW238802   2.934   0.029   2.472 -0.2749  0.1669 -0.2950
43982SOL     OW38803   5.082   7.119  11.834 -0.3316  0.3476  0.2931
43982SOL    HW138804   5.111   7.030  11.818 -0.2568  0.5025 -0.4736
43982SOL    HW238805   5.031   7.142  11.757 -1.4474  0.5251  1.0538
43983SOL     OW38806   7.252   6.315   5.333  0.1455  0.2960  0.5044
43983SOL    HW138807   7.215   6.250   5.274  0.7836  1.4582 -1.2619
43983SOL    HW238808   7.220   6.289   5.420 -1.9583 -0.6932 -0.4774
43984SOL     OW38809   7.898   3.399  10.697 -0.4267  0.2317 -0.4267
43984SOL    HW138810   7.959   3.332  10.666 -1.6880 -0.9093 -0.5249
43984SOL    HW238811   7.923   3.478  10.649  0.5186 -0.3819 -0.9843
43985SOL     OW38812   3.919  11.050   5.915  0.3002 -0.2084 -0.6488
43985SOL    HW138813   3.898  11.047   5.821 -1.2001 -1.6595 -0.3157
43985SOL    HW238814   3.845  11.095   5.954  0.3498 -0.6437 -0.0403
43986SOL     OW38815   3.332   2.156   5.509 -0.1187 -0.2480 -0.2433
43986SOL    HW138816   3.419   2.191   5.493  0.6410 -0.9147  2.0883
43986SOL    HW238817   3.333   2.070   5.466  0.4413 -0.3411 -0.0497
43987SOL     OW38818   2.723   2.661   5.005 -0.5649  0.1156 -0.1928
43987SOL    HW138819   2.693   2.630   4.920 -1.4695 -1.1638  0.5783
43987SOL    HW238820   2.819   2.665   4.996 -0.6797  0.6785 -1.4713
43988SOL     OW38821   7.326   3.701   1.776 -0.1932  0.1888 -0.0657
43988SOL    HW138822   7.290   3.761   1.711  3.9027  1.8803 -1.0602
43988SOL    HW238823   7.336   3.618   1.729 -1.3687  0.0901 -0.1693
43989SOL     OW38824   7.621   7.011   5.247  0.0442  0.2834  0.0089
43989SOL    HW138825   7.661   7.023   5.333  0.0437  2.7196 -0.2741
43989SOL    HW238826   7.680   7.053   5.186 -1.2400  0.9020 -0.8529
43990SOL     OW38827  12.573   4.970   6.687  0.3201  0.8700 -0.4171
43990SOL    HW138828  12.640   4.935   6.629  1.1945  1.1890  0.3907
43990SOL    HW238829  12.491   4.931   6.655  0.9605  0.0019 -1.0240
43991SOL     OW38830   0.578   7.022   7.408 -0.7965  0.4586  0.3662
43991SOL    HW138831   0.661   6.986   7.438 -0.3182  0.8381 -0.4675
43991SOL    HW238832   0.512   6.979   7.463 -0.1227 -0.5333  0.4302
43992SOL     OW38833  11.468   6.460  11.802 -0.3496  0.2959  0.3623
43992SOL    HW138834  11.494   6.369  11.789  0.0699  0.4845 -0.1395
43992SOL    HW238835  11.440   6.465  11.893 -1.0687 -0.5058  0.1983
43993SOL     OW38836  12.075   0.572   2.595  0.0282 -0.5157 -0.8898
43993SOL    HW138837  12.062   0.648   2.537  0.4693 -0.9258 -1.5424
43993SOL    HW238838  12.110   0.504   2.537  1.9201 -0.4793  0.1318
43994SOL     OW38839   1.093  12.388   1.385  0.2411  0.3879 -0.0329
43994SOL    HW138840   1.115  12.469   1.432  1.2211 -0.0006  0.2100
43994SOL    HW238841   1.005  12.403   1.351 -1.0716  0.2225  2.9769
43995SOL     OW38842   2.417   6.691   5.623  0.0101 -0.1109  0.1857
43995SOL    HW138843   2.383   6.672   5.535 -1.4913  0.2518  0.6606
43995SOL    HW238844   2.484   6.757   5.608  1.3890 -1.6497 -0.8966
43996SOL     OW38845  10.332   0.100   1.438 -0.0644 -0.1556 -0.0709
43996SOL    HW138846  10.323   0.065   1.349  0.0732 -0.5734  0.0829
43996SOL    HW238847  10.354   0.025   1.492  1.8213  0.4088  0.0049
43997SOL     OW38848  10.022   0.798   8.788  0.3066 -1.1478  0.9781
43997SOL    HW138849  10.011   0.742   8.712  1.8826 -0.3217  0.0821
43997SOL    HW238850  10.084   0.751   8.844  0.3043 -1.0837  1.0348
43998SOL     OW38851  12.550   6.135   4.810  0.2183  0.2680 -0.2553
43998SOL    HW138852  12.638   6.173   4.808 -0.3051  1.5319 -0.0782
43998SOL    HW238853  12.559   6.058   4.867  1.0514  0.7897  0.3481
43999SOL     OW38854   0.947  11.065   8.632 -0.4087  0.0675 -0.1351
43999SOL    HW138855   1.040  11.053   8.611 -0.3393  0.6025 -0.1490
43999SOL    HW238856   0.944  11.148   8.680 -0.7572 -0.4126  0.7084
44000SOL     OW38857   5.773   3.941   6.139  0.1620  0.0883 -0.6617
44000SOL    HW138858   5.764   3.918   6.047 -0.3921 -1.1110 -0.3325
44000SOL    HW238859   5.838   3.879   6.173  0.4065  0.5609 -0.2629
44001SOL     OW38860   4.159  10.380  12.325 -0.5764 -0.3678  0.1699
44001SOL    HW138861   4.218  10.424  12.264 -1.1528  0.6438  0.3389
44001SOL    HW238862   4.203  10.386  12.410  0.8435 -2.8684 -0.2558
44002SOL     OW38863  11.046  10.118   8.264 -0.3588 -0.3840 -0.0349
44002SOL    HW138864  11.014  10.063   8.192  0.7108 -1.2792  0.1507
44002SOL    HW238865  10.971  10.129   8.322 -0.7950 -0.9944 -0.4789
44003SOL     OW38866   8.322   7.862   6.150  0.3315  0.4404 -0.0569
44003SOL    HW138867   8.236   7.875   6.111 -0.6131 -2.4712  0.8260
44003SOL    HW238868   8.378   7.838   6.075 -0.4274 -0.7837 -0.2677
44004SOL     OW38869  11.817   7.833   9.439 -0.5388  0.5473  0.0096
44004SOL    HW138870  11.823   7.807   9.347 -0.8652 -0.2208  0.1996
44004SOL    HW238871  11.758   7.769   9.478 -1.3418  1.5548  0.5049
44005SOL     OW38872  11.619  10.423  12.469 -0.5729 -0.2409 -0.4085
44005SOL    HW138873  11.664  10.502  12.499 -1.2813 -0.6002  1.8028
44005SOL    HW238874  11.613  10.433  12.374 -0.4750  2.2469 -0.2142
44006SOL     OW38875   2.143   5.778  10.713 -0.3107 -0.2193 -0.2356
44006SOL    HW138876   2.145   5.694  10.758  1.3205 -0.2838 -0.3657
44006SOL    HW238877   2.171   5.757  10.623 -0.0171  0.4244 -0.3005
44007SOL     OW38878   1.677   8.736   3.125 -0.2210  0.4887  0.1290
44007SOL    HW138879   1.624   8.747   3.047 -1.1797  0.9078  0.8292
44007SOL    HW238880   1.627   8.676   3.180  2.1881 -3.0758 -1.1390
44008SOL     OW38881   6.950   9.211   8.677 -0.0098  0.1327  0.5155
44008SOL    HW138882   6.880   9.163   8.722 -1.5734 -0.9670 -2.7549
44008SOL    HW238883   6.905   9.285   8.636  1.3211  1.0846  0.7180
44009SOL     OW38884   2.204   8.540   6.485 -0.1620  0.8941  0.4115
44009SOL    HW138885   2.252   8.516   6.406 -0.8343  3.0031 -0.7250
44009SOL    HW238886   2.161   8.459   6.513  1.7145 -0.3770 -0.1561
44010SOL     OW38887   6.194  12.093   8.798 -0.0974  0.3314 -0.0779
44010SOL    HW138888   6.269  12.139   8.760 -0.9904  2.5193  0.6558
44010SOL    HW238889   6.138  12.072   8.723  0.3835  0.3086 -0.4365
44011SOL     OW38890   0.305  10.263   2.755  0.1470 -0.5572  0.3686
44011SOL    HW138891   0.290  10.354   2.780  2.1104 -0.0929 -0.0258
44011SOL    HW238892   0.297  10.214   2.838  3.3120  0.5627  1.4896
44012SOL     OW38893   3.143   1.970   1.148 -0.3344  0.4464  0.0161
44012SOL    HW138894   3.232   1.945   1.171 -0.6444  0.0674  0.8597
44012SOL    HW238895   3.140   1.964   1.053  1.2240  2.8416 -0.2566
44013SOL     OW38896   3.432   7.124   6.437  0.5338  0.0620 -0.0322
44013SOL    HW138897   3.499   7.178   6.394  1.0970 -0.5002  0.1127
44013SOL    HW238898   3.482   7.050   6.474  0.1004  0.6193  1.7411
44014SOL     OW38899   8.964   6.634   5.860  1.1209  0.3529 -0.4237
44014SOL    HW138900   9.030   6.581   5.907  2.4009  2.2120 -0.0115
44014SOL    HW238901   9.016   6.691   5.804 -0.2897  0.2560 -1.8873
44015SOL     OW38902   8.798   2.631   2.716 -0.6135 -0.0121  0.0204
44015SOL    HW138903   8.890   2.607   2.727 -0.5853 -0.7145 -1.5190
44015SOL    HW238904   8.752   2.547   2.714 -1.7217  0.3422  3.5574
44016SOL     OW38905  10.241   9.789  10.320  0.1155 -0.0540 -0.3237
44016SOL    HW138906  10.321   9.755  10.360 -0.4180 -0.1431  0.6897
44016SOL    HW238907  10.174   9.726  10.342 -0.2781  0.1133 -1.0205
44017SOL     OW38908   4.954   0.442   9.170 -0.5301  0.2123 -0.3732
44017SOL    HW138909   4.983   0.379   9.236 -1.8615 -0.8813 -0.7898
44017SOL    HW238910   4.950   0.525   9.216 -0.7932 -0.4114  0.7505
44018SOL     OW38911   2.844   3.592   1.876 -0.1929  1.0613  0.0927
44018SOL    HW138912   2.842   3.680   1.913 -0.7932  1.7794 -1.5852
44018SOL    HW238913   2.805   3.601   1.789 -2.1892 -1.2156  0.6393
44019SOL     OW38914   3.974   0.852   2.558 -0.2256 -0.1164 -0.0915
44019SOL    HW138915   3.885   0.872   2.532 -1.1420  0.2844  2.9001
44019SOL    HW238916   3.990   0.909   2.634  3.0512  0.7385 -1.2539
44020SOL     OW38917   1.129  11.613   2.075  0.6189 -0.0058 -0.2164
44020SOL    HW138918   1.212  11.567   2.088  1.0321  0.9645  0.7609
44020SOL    HW238919   1.112  11.607   1.981  1.0074 -1.5266 -0.2125
44021SOL     OW38920   0.007   3.918   9.209  0.5690  0.2501 -1.0061
44021SOL    HW138921  -0.028   3.932   9.297  1.2887  0.3626 -0.7356
44021SOL    HW238922   0.063   3.994   9.192  2.6024 -1.0517 -0.4634
44022SOL     OW38923   4.413   7.936  11.421 -0.2250  0.1873 -0.4265
44022SOL    HW138924   4.412   7.885  11.501 -1.0073 -1.6309 -1.5429
44022SOL    HW238925   4.327   7.978  11.417  1.0291  3.2830  1.4236
44023SOL     OW38926   3.299   6.401   7.587 -0.6185 -0.4389  0.4439
44023SOL    HW138927   3.240   6.383   7.660 -2.0544 -0.5433 -0.7023
44023SOL    HW238928   3.346   6.480   7.614 -2.1201  0.3336  0.9184
44024SOL     OW38929   4.548  10.042   7.811 -0.5697 -0.0059 -0.2920
44024SOL    HW138930   4.477  10.104   7.833 -0.3615 -0.2672  1.2881
44024SOL    HW238931   4.504   9.958   7.801 -0.4400 -0.3692  1.6873
44025SOL     OW38932   4.463  12.184  10.329 -0.1177  0.2480  0.2164
44025SOL    HW138933   4.431  12.094  10.323  1.7356 -0.4670  0.4607
44025SOL    HW238934   4.465  12.202  10.423  1.0836 -0.0741  0.2650
44026SOL     OW38935   4.327   8.501  10.741  0.7020 -0.2190 -0.3994
44026SOL    HW138936   4.316   8.428  10.679  0.4887  0.8474 -1.6445
44026SOL    HW238937   4.241   8.541  10.746  0.7791 -0.1415  0.4245
44027SOL     OW38938   8.196  10.180   4.355 -0.3067  0.3096 -0.1398
44027SOL    HW138939   8.253  10.247   4.316 -0.0541 -1.0984 -2.3716
44027SOL    HW238940   8.238  10.159   4.438  0.5411  1.7074 -0.1743
44028SOL     OW38941   6.965   7.871   6.964  0.5079 -0.0925  0.0458
44028SOL    HW138942   6.997   7.811   6.897 -1.0222 -0.6503 -0.2131
44028SOL    HW238943   6.921   7.941   6.915 -0.6626 -0.5290  0.4391
44029SOL     OW38944   8.851   1.415   6.630 -0.0772  0.1010 -0.1304
44029SOL    HW138945   8.817   1.327   6.613  1.1748 -0.6648  1.1159
44029SOL    HW238946   8.795   1.473   6.578 -1.7120 -1.3090 -0.0119
44030SOL     OW38947  11.001   3.720   6.754  0.5337  0.7680 -0.3543
44030SOL    HW138948  10.982   3.627   6.744 -1.0542  1.1114 -0.9095
44030SOL    HW238949  11.094   3.724   6.774  0.4820 -0.9703  0.3685
44031SOL     OW38950   1.170  11.397   2.316  0.0511  0.1234  0.1253
44031SOL    HW138951   1.257  11.357   2.316 -0.5377 -1.2312  0.9675
44031SOL    HW238952   1.152  11.413   2.223  0.0284 -2.3298 -0.3670
44032SOL     OW38953   4.213   5.963   1.677  0.6013 -0.0745  0.4312
44032SOL    HW138954   4.168   6.041   1.711  0.7780 -1.0406  3.1969
44032SOL    HW238955   4.261   5.929   1.753 -0.3314 -3.4586 -0.3337
44033SOL     OW38956   1.728   2.911  12.043 -0.0387 -0.2091 -0.0223
44033SOL    HW138957   1.712   2.860  12.123 -1.2502 -0.6558 -0.5184
44033SOL    HW238958   1.756   2.996  12.075 -1.9632  0.1256  0.9781
44034SOL     OW38959   8.216   5.968  10.886  0.0244  0.0021  0.0209
44034SOL    HW138960   8.251   5.879  10.880 -0.8764 -0.4653  1.2966
44034SOL    HW238961   8.212   5.986  10.980 -1.9199  0.5086 -0.1127
44035SOL     OW38962   0.987   9.427   0.991 -0.2928  0.5960  0.2938
44035SOL    HW138963   0.914   9.390   0.941 -1.1433  1.3022  0.9855
44035SOL    HW238964   0.997   9.515   0.956 -0.2691  0.7633  0.7185
44036SOL     OW38965   4.003   0.824   6.305 -0.7566  0.3140 -0.6215
44036SOL    HW138966   4.044   0.797   6.386  0.3921 -1.9951 -1.8820
44036SOL    HW238967   4.069   0.880   6.263 -0.6555  0.1265 -0.7140
44037SOL     OW38968   7.942   7.781   1.280 -0.1938 -0.6612 -0.4585
44037SOL    HW138969   7.918   7.721   1.209 -0.7329  0.4770 -1.2712
44037SOL    HW238970   7.968   7.862   1.235 -1.5188  0.4265  0.6556
44038SOL     OW38971  12.184   0.832   0.882  0.3617 -0.1294 -0.5215
44038SOL    HW138972  12.123   0.905   0.897 -0.4901 -0.1980 -3.1495
44038SOL    HW238973  12.131   0.754   0.893  0.3547 -0.2278 -1.1841
44039SOL     OW38974  11.511   3.744   1.751 -0.1464  0.0909 -0.4282
44039SOL    HW138975  11.572   3.670   1.747 -0.3767 -0.1444  0.2936
44039SOL    HW238976  11.546   3.801   1.820 -0.6227  0.0611 -0.1591
44040SOL     OW38977   0.867   0.136   4.193  0.3737 -0.0379  0.5403
44040SOL    HW138978   0.942   0.098   4.146  0.1846  0.4052 -0.1421
44040SOL    HW238979   0.851   0.219   4.148 -0.7489 -0.2905  0.4607
44041SOL     OW38980   3.126   7.500  10.597  0.3924 -0.2638 -0.1751
44041SOL    HW138981   3.049   7.522  10.649 -0.2272  0.2462 -1.2695
44041SOL    HW238982   3.200   7.522  10.653 -0.2529  0.5890  0.3698
44042SOL     OW38983   1.353   4.962   6.667 -0.4308 -0.1350  0.0425
44042SOL    HW138984   1.355   5.057   6.683 -0.4470 -0.0047 -0.7274
44042SOL    HW238985   1.375   4.952   6.575  0.4517 -0.9471  0.3246
44043SOL     OW38986   9.987   3.103   0.341  0.4658 -0.3935  0.3745
44043SOL    HW138987   9.919   3.105   0.273  2.1019 -0.8158 -1.3851
44043SOL    HW238988  10.069   3.095   0.291  1.9900  1.9813  2.2632
44044SOL     OW38989   0.446   1.303   4.384 -0.5101  0.1030  0.5029
44044SOL    HW138990   0.466   1.318   4.477  1.9168 -0.1764  0.0815
44044SOL    HW238991   0.458   1.388   4.343 -0.0449 -0.1064  0.2044
44045SOL     OW38992   6.453   1.344   4.030  0.0168 -0.0341  0.2869
44045SOL    HW138993   6.466   1.255   4.062  0.1589 -0.1016  0.0424
44045SOL    HW238994   6.539   1.384   4.034  0.0403 -0.0486 -0.0228
44046SOL     OW38995   2.958  11.948   2.379  0.3592 -0.1583 -0.0491
44046SOL    HW138996   2.876  11.992   2.402  1.3050  1.7344 -0.1184
44046SOL    HW238997   3.016  11.965   2.452  1.1690 -0.1795 -0.6763
44047SOL     OW38998   6.296  11.392   0.004 -0.7851 -0.4348 -0.2234
44047SOL    HW138999   6.322  11.308  -0.033  0.4775 -0.3779  0.4877
44047SOL    HW239000   6.369  11.451  -0.016 -1.3607  0.3271 -0.1311
44048SOL     OW39001   9.009  12.110   7.329  0.2507  0.5616  0.1231
44048SOL    HW139002   9.013  12.162   7.249  0.2484  2.0034  1.0200
44048SOL    HW239003   8.940  12.151   7.381 -0.7443 -1.2364  0.3012
44049SOL     OW39004   7.374   1.702   7.963  0.0778 -0.3925 -0.0204
44049SOL    HW139005   7.349   1.773   7.904 -1.3990 -1.3869 -0.6629
44049SOL    HW239006   7.291   1.673   8.001  0.6146 -1.9189  0.0447
44050SOL     OW39007  10.835   2.759   3.358 -0.3092  0.0593  0.0805
44050SOL    HW139008  10.816   2.836   3.412  0.5110 -0.1403  0.6779
44050SOL    HW239009  10.877   2.794   3.279  0.6821  0.2002  0.6459
44051SOL     OW39010   4.726   4.088   4.050  0.0158 -0.1419 -0.6589
44051SOL    HW139011   4.633   4.108   4.054 -0.1627 -0.5969 -2.0629
44051SOL    HW239012   4.742   4.065   3.959  1.3846 -0.6601 -0.3151
44052SOL     OW39013   4.691   7.195   9.145  0.6353  0.0249 -0.1791
44052SOL    HW139014   4.744   7.177   9.222  0.9210 -2.1479 -0.8091
44052SOL    HW239015   4.635   7.269   9.171  0.1669 -1.1187  2.4007
44053SOL     OW39016   9.583   8.121   6.624  0.1874  1.1266  0.3873
44053SOL    HW139017   9.618   8.190   6.568 -0.9007 -0.4585 -2.4367
44053SOL    HW239018   9.600   8.152   6.713  1.2675  4.1912 -0.7476
44054SOL     OW39019   6.725   7.681  10.073  0.7971  0.5269 -0.2335
44054SOL    HW139020   6.689   7.725   9.996  1.6556 -0.0694 -1.0028
44054SOL    HW239021   6.795   7.739  10.103 -0.2882  1.3387  0.8367
44055SOL     OW39022   2.223   8.054   9.564  0.3843  0.7874 -0.0641
44055SOL    HW139023   2.206   8.095   9.479 -0.5610 -1.9396 -1.3252
44055SOL    HW239024   2.196   8.119   9.628  1.3517  3.0354 -1.7972
44056SOL     OW39025   9.688   2.222   1.336  0.3924 -0.8979 -0.3698
44056SOL    HW139026   9.607   2.220   1.386  0.0903 -1.1807 -0.8600
44056SOL    HW239027   9.715   2.131   1.331  1.3513 -0.7027  0.7464
44057SOL     OW39028   8.060   1.813   8.950  0.1628  0.2521  0.2403
44057SOL    HW139029   8.066   1.717   8.954  0.2008  0.1886 -0.9578
44057SOL    HW239030   8.136   1.840   8.899  0.4453  0.9768  1.0250
44058SOL     OW39031   5.881   9.148  11.662 -0.1028 -0.4956  0.3901
44058SOL    HW139032   5.863   9.077  11.600  0.2460  0.1625 -0.4824
44058SOL    HW239033   5.802   9.201  11.661  1.7530  2.8372 -4.0293
44059SOL     OW39034   8.483  11.193   5.452 -0.5887  0.5047  0.3378
44059SOL    HW139035   8.482  11.273   5.401  2.6694  1.0249  0.8186
44059SOL    HW239036   8.546  11.211   5.522 -1.6682 -1.6416  1.9760
44060SOL     OW39037   1.867   4.385   9.464 -0.2020  0.1573 -0.0665
44060SOL    HW139038   1.868   4.301   9.509  1.4504  0.9097  1.3784
44060SOL    HW239039   1.938   4.380   9.400  0.3257  0.6620  0.4663
44061SOL     OW39040   1.820   0.742   3.124 -0.1059 -0.1309 -0.2783
44061SOL    HW139041   1.797   0.835   3.126 -1.1222 -0.3670 -0.2870
44061SOL    HW239042   1.902   0.738   3.074 -0.6866  0.6425 -1.3440
44062SOL     OW39043   1.832   6.713   1.823 -0.5102  0.7160  0.6648
44062SOL    HW139044   1.846   6.744   1.913 -1.8098  1.9493  0.4842
44062SOL    HW239045   1.754   6.760   1.794 -1.2416 -1.1083 -0.4558
44063SOL     OW39046  11.051  11.025   2.722  0.2271 -0.2275  0.2952
44063SOL    HW139047  11.099  10.944   2.706  1.5656  0.9626 -2.2874
44063SOL    HW239048  10.962  11.007   2.691  0.8843 -0.3142 -1.6386
44064SOL     OW39049   7.379   3.859   2.248  0.2840  0.2009 -0.3108
44064SOL    HW139050   7.379   3.764   2.242 -0.6085  0.1193  0.7728
44064SOL    HW239051   7.423   3.888   2.168 -0.4150 -1.0750 -1.1844
44065SOL     OW39052   6.791   3.474   2.715 -0.0619  0.2192 -0.3967
44065SOL    HW139053   6.864   3.428   2.673  1.5024  0.5624  1.7569
44065SOL    HW239054   6.768   3.419   2.790  0.3605  1.7857  0.9501
44066SOL     OW39055   1.077  11.752   4.605  0.1401  0.0348 -0.0620
44066SOL    HW139056   1.042  11.670   4.640 -0.0598  1.1911  2.6734
44066SOL    HW239057   1.011  11.818   4.629  0.3630  1.0559 -2.0781
44067SOL     OW39058   2.597   9.840  11.001  0.0714  0.1091 -0.4101
44067SOL    HW139059   2.530   9.852  10.934  0.6266  0.9097 -0.8461
44067SOL    HW239060   2.584   9.914  11.061 -0.7339 -0.8663  0.6609
44068SOL     OW39061  11.744   0.731  10.244 -0.0141  0.6195  0.1596
44068SOL    HW139062  11.717   0.661  10.184 -1.4253 -0.1290  1.6136
44068SOL    HW239063  11.728   0.812  10.195  0.1944 -0.0064 -0.9821
44069SOL     OW39064   8.682  10.175   7.356  0.2833 -0.6752  0.4176
44069SOL    HW139065   8.643  10.171   7.444 -0.8113 -1.7141 -0.0772
44069SOL    HW239066   8.756  10.115   7.360  1.9145  1.2957  1.3636
44070SOL     OW39067  12.254  11.269   2.008  0.0749  0.2260 -0.2216
44070SOL    HW139068  12.249  11.231   2.096  1.4984 -0.0333 -0.2374
44070SOL    HW239069  12.162  11.285   1.984 -0.6816 -3.5234 -0.3527
44071SOL     OW39070  10.708   4.344   3.863  0.1583  0.3973  0.6616
44071SOL    HW139071  10.793   4.342   3.820  0.3526 -0.7285  1.0429
44071SOL    HW239072  10.647   4.309   3.798  0.2691 -0.2854  0.9131
44072SOL     OW39073   0.465   6.744  12.393  0.0596  0.3320 -0.0486
44072SOL    HW139074   0.513   6.749  12.310 -0.0205 -1.1947 -0.2208
44072SOL    HW239075   0.526   6.779  12.458  1.4706 -1.5510 -0.2672
44073SOL     OW39076   1.455   8.667  12.384  0.2622 -0.1357  0.1760
44073SOL    HW139077   1.478   8.732  12.317  1.4532 -2.5903 -1.9892
44073SOL    HW239078   1.507   8.692  12.460  1.2799  1.0177 -0.8495
44074SOL     OW39079   9.537   2.486   8.850 -0.3521  0.3670  0.4255
44074SOL    HW139080   9.595   2.562   8.862 -0.7318  1.1461 -2.1127
44074SOL    HW239081   9.592   2.410   8.868  0.7674  1.1668  0.4830
44075SOL     OW39082   9.893   9.090   5.637 -0.4882  0.2182  0.2687
44075SOL    HW139083   9.948   9.016   5.612  1.7699  2.0905 -0.6883
44075SOL    HW239084   9.818   9.086   5.577 -2.4033 -3.2371  2.5544
44076SOL     OW39085   3.637   5.413   0.081 -0.0747  0.0759 -0.2907
44076SOL    HW139086   3.642   5.318   0.084 -0.4134 -0.1363 -3.1923
44076SOL    HW239087   3.562   5.431   0.024  0.8732  2.0232 -1.0014
44077SOL     OW39088   9.037   6.636   2.849  0.2942 -0.0542  0.4886
44077SOL    HW139089   8.947   6.612   2.826  0.0007  0.8870  0.6160
44077SOL    HW239090   9.075   6.556   2.885  0.5334 -1.3967 -2.4921
44078SOL     OW39091  12.492   8.937   1.031  0.1154 -0.0540  0.3396
44078SOL    HW139092  12.492   8.855   0.982 -1.1462 -1.7848  3.0148
44078SOL    HW239093  12.559   8.925   1.098  0.8081  1.6546 -0.0051
44079SOL     OW39094   5.204   4.091   0.650  0.1420 -0.2107 -0.0468
44079SOL    HW139095   5.293   4.114   0.624  0.3746 -0.1810  0.7612
44079SOL    HW239096   5.213   4.047   0.734 -0.7060  1.1131  0.7873
44080SOL     OW39097   4.148  10.071   1.601  0.4543  0.4885  0.0305
44080SOL    HW139098   4.147  10.130   1.525 -1.1212 -0.8393 -1.0545
44080SOL    HW239099   4.106  10.122   1.670 -0.2980  0.8906 -0.6965
44081SOL     OW39100   6.440   9.253   1.275  0.8113 -0.3909  0.4136
44081SOL    HW139101   6.384   9.329   1.258 -0.4129 -0.9667  1.6778
44081SOL    HW239102   6.527   9.280   1.244  0.8600  2.2581  2.5071
44082SOL     OW39103   4.122   3.815   5.360 -0.6247  0.4165 -0.2316
44082SOL    HW139104   4.063   3.741   5.378  2.0784 -1.3965  2.0737
44082SOL    HW239105   4.200   3.796   5.412  1.4291  3.4349 -1.9388
44083SOL     OW39106   6.213   4.955  12.578 -0.2763 -0.3781 -0.5542
44083SOL    HW139107   6.200   4.890  12.510 -0.0223 -0.4586 -0.5276
44083SOL    HW239108   6.188   4.911  12.659  0.8546 -0.7796 -0.4077
44084SOL     OW39109   1.824   4.964   4.443 -0.1192 -0.0732  0.0390
44084SOL    HW139110   1.910   4.926   4.424  0.2816  1.0286 -0.4221
44084SOL    HW239111   1.838   5.059   4.439 -1.8366  0.1818 -2.3902
44085SOL     OW39112   2.334   1.601   9.536 -0.2519  0.3920  0.2383
44085SOL    HW139113   2.351   1.680   9.484  0.2696 -0.5002 -0.9970
44085SOL    HW239114   2.249   1.569   9.505  0.2549 -0.3783 -0.3835
44086SOL     OW39115   1.640   6.166   2.135  0.1827 -0.3407 -0.0399
44086SOL    HW139116   1.593   6.095   2.179 -2.1073 -1.3682 -3.6772
44086SOL    HW239117   1.574   6.233   2.119  1.6946  1.4737  0.8837
44087SOL     OW39118   8.994   5.842   9.750  0.3994 -0.3580 -0.0405
44087SOL    HW139119   9.076   5.794   9.738 -0.6648 -2.4947  0.6684
44087SOL    HW239120   9.020   5.929   9.780  2.4432 -0.3626 -1.6223
44088SOL     OW39121   8.094   4.323   1.220 -0.3969  0.6114 -0.4419
44088SOL    HW139122   8.088   4.231   1.191  0.2998  1.1385 -2.4466
44088SOL    HW239123   8.026   4.331   1.287 -0.4221 -1.3819 -0.1557
44089SOL     OW39124   3.912   7.157   6.028 -0.4623 -0.2943  0.2104
44089SOL    HW139125   3.985   7.219   6.028 -1.0644  0.4350  0.2116
44089SOL    HW239126   3.950   7.074   5.999  0.2972  0.1455 -0.0687
44090SOL     OW39127  10.679   2.200  10.646  0.5446 -0.1474  0.2448
44090SOL    HW139128  10.612   2.151  10.694 -0.9716  0.9172 -0.7010
44090SOL    HW239129  10.726   2.249  10.715 -0.1286 -0.3456  0.8573
44091SOL     OW39130   3.135   6.221   5.456 -0.1626  0.7108  0.9540
44091SOL    HW139131   3.171   6.159   5.520  0.0830 -0.0183  0.1194
44091SOL    HW239132   3.163   6.188   5.371 -0.1531  1.8935  0.4750
44092SOL     OW39133   9.921   1.151   7.505 -0.1756  0.0462  0.6580
44092SOL    HW139134   9.990   1.210   7.475 -1.0782  0.8806  0.1842
44092SOL    HW239135   9.879   1.120   7.425 -0.1597 -0.6915  0.9308
44093SOL     OW39136   8.289   1.201  12.304  0.1923 -0.6116  0.1767
44093SOL    HW139137   8.331   1.259  12.368  0.4296 -0.3838 -0.1809
44093SOL    HW239138   8.226   1.151  12.355 -0.9830  0.8966  0.2768
44094SOL     OW39139   1.473   4.539   6.369 -0.1195  0.6281  0.1603
44094SOL    HW139140   1.456   4.606   6.436 -1.9013  0.0196  0.3762
44094SOL    HW239141   1.402   4.476   6.380  0.1521 -0.0460 -1.6151
44095SOL     OW39142   2.824   0.385  11.793  0.4576 -0.4058  0.0009
44095SOL    HW139143   2.818   0.334  11.712  0.0792  1.6449 -1.3527
44095SOL    HW239144   2.911   0.424  11.791  0.2558  0.0708  0.3155
44096SOL     OW39145  10.303  10.124  12.180  0.1293  0.1556  0.5464
44096SOL    HW139146  10.211  10.103  12.169 -0.7884  3.6619  0.2685
44096SOL    HW239147  10.321  10.110  12.273 -0.2903 -1.6999  0.3731
44097SOL     OW39148   9.011   1.327  10.636  0.4474 -0.2048  0.1078
44097SOL    HW139149   8.984   1.406  10.589 -2.2755 -2.0088 -1.6450
44097SOL    HW239150   8.975   1.338  10.724  1.8506  1.3151  0.5440
44098SOL     OW39151   7.458  10.890   8.124  0.5946 -0.0555 -0.0601
44098SOL    HW139152   7.397  10.936   8.182 -0.4393 -1.0708 -0.3238
44098SOL    HW239153   7.539  10.940   8.131 -0.1734  1.1565  0.5197
44099SOL     OW39154   5.593   4.858   8.818 -0.5593 -0.8430  0.3247
44099SOL    HW139155   5.546   4.912   8.755  0.9105 -1.7165 -1.6415
44099SOL    HW239156   5.528   4.796   8.851 -1.2646 -0.6584 -0.6764
44100SOL     OW39157   3.102   3.464   3.496  0.1118  0.5196 -0.2931
44100SOL    HW139158   3.079   3.455   3.589 -0.5698 -0.1955 -0.5221
44100SOL    HW239159   3.169   3.397   3.481  0.8345  1.1870 -0.1343
44101SOL     OW39160   8.509   9.848   0.441 -0.6127 -0.0414 -0.3275
44101SOL    HW139161   8.481   9.827   0.352 -2.0999  2.2246 -0.4737
44101SOL    HW239162   8.466   9.782   0.496  0.6608 -1.7286 -1.2413
44102SOL     OW39163   6.696   1.429   1.741 -0.0598  0.2042 -0.4950
44102SOL    HW139164   6.628   1.492   1.718 -1.2109 -1.3832 -1.7275
44102SOL    HW239165   6.669   1.395   1.827 -0.9685 -0.5265 -1.0431
44103SOL     OW39166   8.339   8.397   9.019 -0.0970 -0.3716 -0.2444
44103SOL    HW139167   8.269   8.377   8.956 -0.2547  1.0056 -0.5526
44103SOL    HW239168   8.350   8.492   9.012  0.5160 -0.3160  1.1616
44104SOL     OW39169   8.542   8.434   7.930 -0.4608  0.1157  0.5237
44104SOL    HW139170   8.540   8.447   7.835 -0.4303  1.1313  0.6452
44104SOL    HW239171   8.460   8.473   7.961  0.4138  1.6122  1.0901
44105SOL     OW39172   8.304  10.206   6.478 -0.4836  0.3517  0.3350
44105SOL    HW139173   8.377  10.146   6.461 -0.7529 -0.1193  0.7902
44105SOL    HW239174   8.344  10.281   6.521  0.1343  1.3432 -1.8329
44106SOL     OW39175   5.044   3.202  11.812 -0.0769  0.2071  0.5285
44106SOL    HW139176   4.989   3.247  11.876 -0.3704  0.3280  0.1937
44106SOL    HW239177   5.123   3.257  11.806 -1.6467  2.4207 -2.1115
44107SOL     OW39178   6.333   0.580   5.568  0.0530  0.4627  0.2944
44107SOL    HW139179   6.364   0.540   5.650 -2.9739  0.9208  1.8160
44107SOL    HW239180   6.361   0.671   5.574  2.2541 -0.1088 -0.5804
44108SOL     OW39181   4.607  11.529   9.425 -0.0828  0.1904  0.2093
44108SOL    HW139182   4.688  11.544   9.474  0.7792  1.9586 -1.5832
44108SOL    HW239183   4.538  11.567   9.480  1.0894  3.8926 -0.5703
44109SOL     OW39184   4.364   8.841  11.495  0.6511  0.5064 -0.0393
44109SOL    HW139185   4.339   8.929  11.522  0.9616 -0.0372  2.3147
44109SOL    HW239186   4.292   8.810  11.440 -0.9815  1.1269  1.6592
44110SOL     OW39187   9.245   1.390  10.781  0.4335 -0.0679  0.0491
44110SOL    HW139188   9.188   1.372  10.707  1.3395 -1.7562 -0.2942
44110SOL    HW239189   9.220   1.325  10.847 -0.1102  1.1734  1.1143
44111SOL     OW39190   8.995  12.174  10.893 -0.9162  0.1948 -0.3611
44111SOL    HW139191   8.958  12.262  10.883 -0.2589  0.7288  1.4308
44111SOL    HW239192   8.986  12.155  10.986  0.1597 -1.0864 -0.4885
44112SOL     OW39193   3.538   9.225   5.345  0.0317  0.5210 -0.0682
44112SOL    HW139194   3.483   9.213   5.267  0.3865  1.1609 -0.4218
44112SOL    HW239195   3.627   9.233   5.311  0.0513  2.1531  0.2784
44113SOL     OW39196   6.739   1.227   4.017  0.2468 -0.4333 -0.3842
44113SOL    HW139197   6.692   1.149   4.047 -0.0249  0.2130  0.9589
44113SOL    HW239198   6.714   1.236   3.925 -2.0372 -0.3180  0.1857
44114SOL     OW39199   7.264   0.906   9.976 -0.2138 -0.6210  0.2953
44114SOL    HW139200   7.226   0.983  10.018 -3.1205 -1.6428 -0.2496
44114SOL    HW239201   7.215   0.832  10.011 -1.8393 -1.6510 -3.6550
44115SOL     OW39202   0.472   2.995  11.580 -0.0004 -0.4781 -0.1571
44115SOL    HW139203   0.519   3.062  11.631  0.4903  0.4142 -1.7167
44115SOL    HW239204   0.444   2.930  11.646  1.9888 -0.2028  1.0554
44116SOL     OW39205   5.947   8.648   0.332 -0.1598 -0.7288 -0.4615
44116SOL    HW139206   5.912   8.707   0.265 -0.2237  0.2863  0.4247
44116SOL    HW239207   6.015   8.597   0.288 -0.4469 -0.3271 -1.3730
44117SOL     OW39208   0.077  10.997   9.161  0.2032  0.2215  0.6519
44117SOL    HW139209   0.120  11.078   9.133  0.2919 -0.1494 -0.3190
44117SOL    HW239210   0.127  10.927   9.119 -1.4749 -0.2201 -0.7045
44118SOL     OW39211   5.396  10.646   6.874 -0.6241  0.2043  0.0402
44118SOL    HW139212   5.422  10.730   6.912 -1.0151 -0.2302  1.3083
44118SOL    HW239213   5.301  10.652   6.866 -0.5418  0.3296 -1.0171
44119SOL     OW39214  11.842   1.736   8.931  0.0746  0.1260 -0.0726
44119SOL    HW139215  11.784   1.738   8.855 -2.9086  0.5636  2.0292
44119SOL    HW239216  11.922   1.779   8.902 -1.1801  0.8277 -2.7656
44120SOL     OW39217   1.339   6.561   9.780  0.3910  0.1336 -1.0212
44120SOL    HW139218   1.431   6.570   9.754  0.4097 -0.3094 -1.1235
44120SOL    HW239219   1.290   6.597   9.706  0.4732 -0.0570 -1.1702
44121SOL     OW39220   3.059  11.544   4.482  0.3701  0.1238 -0.3467
44121SOL    HW139221   3.014  11.547   4.397 -0.9365 -0.6636  0.2886
44121SOL    HW239222   3.066  11.451   4.502  0.9659  0.2963  0.2693
44122SOL     OW39223  11.442   4.602   2.320  0.1952 -0.1787  0.4803
44122SOL    HW139224  11.396   4.520   2.341 -0.3973  0.2539  0.9024
44122SOL    HW239225  11.423   4.617   2.228  0.6574 -0.7316  0.2852
44123SOL     OW39226   9.124   9.419   2.212  0.1901 -0.7181  0.2578
44123SOL    HW139227   9.188   9.483   2.243 -1.2228  1.6552 -1.4408
44123SOL    HW239228   9.053   9.471   2.175 -1.2047 -3.2894 -0.9785
44124SOL     OW39229  10.181  11.624   0.843 -0.2327  0.1156  0.3012
44124SOL    HW139230  10.140  11.698   0.887 -0.3720  0.7700 -0.8733
44124SOL    HW239231  10.164  11.549   0.900  0.3209  1.0518  1.7526
44125SOL     OW39232   8.330   2.496   0.705  0.3547 -0.5098  0.0310
44125SOL    HW139233   8.294   2.435   0.640  0.6314 -0.2714 -0.3464
44125SOL    HW239234   8.421   2.469   0.715  0.5253 -0.0501 -0.2646
44126SOL     OW39235   7.445   3.724   0.278 -0.2935  0.0007 -0.3364
44126SOL    HW139236   7.415   3.634   0.267 -0.6662  0.2321 -1.2703
44126SOL    HW239237   7.450   3.736   0.373 -1.2109 -0.6769 -0.1923
44127SOL     OW39238   6.434   0.861   0.080 -0.4143  0.7904  0.2549
44127SOL    HW139239   6.488   0.828   0.151  0.6661  0.8728 -0.4987
44127SOL    HW239240   6.348   0.820   0.093  0.3338 -0.7845  0.4649
44128SOL     OW39241   1.950   5.000   9.597 -0.2562  0.3361 -0.2799
44128SOL    HW139242   1.952   4.964   9.508 -1.9819  0.9856 -0.6280
44128SOL    HW239243   1.990   5.086   9.589  1.2878 -0.3238 -0.0174
44129SOL     OW39244  11.732  10.068   9.233  0.3741 -0.2084 -0.4804
44129SOL    HW139245  11.726  10.115   9.316  0.4346  0.5314 -0.8882
44129SOL    HW239246  11.769  10.131   9.172  1.6105 -1.1581 -0.7632
44130SOL     OW39247   1.824   7.853   3.173 -0.0065 -0.1955  0.1911
44130SOL    HW139248   1.784   7.823   3.091  2.1744 -0.7907 -0.7165
44130SOL    HW239249   1.891   7.787   3.192  0.7949  0.9424  1.4537
44131SOL     OW39250   1.109   2.442   4.483  0.1209  0.2445 -0.0444
44131SOL    HW139251   1.016   2.446   4.506  0.2274  0.8906  0.2856
44131SOL    HW239252   1.154   2.442   4.567  0.4648  1.3614 -0.2147
44132SOL     OW39253   5.119   4.361   4.059  0.2271  0.4413 -0.2687
44132SOL    HW139254   5.140   4.431   3.997 -0.0038  1.2011  0.4872
44132SOL    HW239255   5.029   4.380   4.086  0.8950  1.1671  1.6109
44133SOL     OW39256   1.409   4.785   7.941  0.4566 -0.1714  0.2374
44133SOL    HW139257   1.406   4.874   7.905  0.7588  0.8894  2.6154
44133SOL    HW239258   1.418   4.798   8.035  1.8800 -2.7567  0.5491
44134SOL     OW39259   3.181   8.361   7.885 -0.3582  0.3979  0.5946
44134SOL    HW139260   3.204   8.425   7.817  0.9446 -0.7129 -0.0453
44134SOL    HW239261   3.242   8.378   7.956 -1.4828  1.3151  1.3872
44135SOL     OW39262   5.564   2.661   1.299 -0.5874  0.0364  0.1220
44135SOL    HW139263   5.515   2.603   1.239  0.9644 -0.3512 -0.8197
44135SOL    HW239264   5.568   2.612   1.381 -2.7007  0.5518  0.6047
44136SOL     OW39265   0.546  11.473  12.267 -0.5060 -0.0918  0.6227
44136SOL    HW139266   0.547  11.425  12.185 -1.2469 -1.7581  1.5398
44136SOL    HW239267   0.618  11.436  12.318 -0.7801  0.0965  1.1586
44137SOL     OW39268   8.165   3.847   7.065 -0.5449 -0.5129  0.2743
44137SOL    HW139269   8.116   3.764   7.070 -0.0403 -0.8862 -0.7442
44137SOL    HW239270   8.098   3.913   7.052 -0.8235 -0.9789 -0.7353
44138SOL     OW39271  10.394   1.298  11.375  0.4559 -0.0741 -0.5969
44138SOL    HW139272  10.427   1.334  11.292  0.4266  2.1188  0.2742
44138SOL    HW239273  10.405   1.203  11.366  2.4031  0.2348 -2.2704
44139SOL     OW39274  12.038   5.941   9.070  0.2104  0.5409 -0.5588
44139SOL    HW139275  11.966   5.954   9.009  0.7068  2.4920 -0.8118
44139SOL    HW239276  11.997   5.947   9.156 -0.5545 -2.5997 -0.5929
44140SOL     OW39277   9.542   8.660   5.186  0.0950 -0.1695 -0.5168
44140SOL    HW139278   9.617   8.636   5.239 -0.0865  2.1198  0.9488
44140SOL    HW239279   9.577   8.720   5.120 -0.0517 -1.2124 -1.5719
44141SOL     OW39280   6.727   8.178   7.455 -0.1904  0.1206 -0.1736
44141SOL    HW139281   6.681   8.244   7.404 -0.0604 -0.1128 -0.5991
44141SOL    HW239282   6.811   8.166   7.409 -0.7416 -1.2846 -0.8707
44142SOL     OW39283   1.902   6.093   9.467  0.0495  0.2929  0.8901
44142SOL    HW139284   1.822   6.134   9.433  0.1819  1.3128  1.7541
44142SOL    HW239285   1.914   6.132   9.554  1.0459 -0.4502  1.1082
44143SOL     OW39286   6.969   5.469   5.399  0.4698 -0.4161 -0.1135
44143SOL    HW139287   7.014   5.546   5.362  0.1142 -0.1883 -0.0728
44143SOL    HW239288   7.037   5.425   5.451  0.2613  0.7761  1.2262
44144SOL     OW39289   2.697  11.542   7.307  0.6550 -0.6248  0.2072
44144SOL    HW139290   2.618  11.578   7.346  0.4500  2.9542 -2.9371
44144SOL    HW239291   2.666  11.489   7.234  0.9864  1.0594 -1.2477
44145SOL     OW39292   9.117  10.190   4.374 -0.1963  0.2667 -0.3024
44145SOL    HW139293   9.053  10.227   4.313  0.3894 -1.2220 -1.8810
44145SOL    HW239294   9.202  10.206   4.332  0.3125  0.2358  0.6878
44146SOL     OW39295  11.744   2.007   9.752 -0.1587  0.1143 -0.3599
44146SOL    HW139296  11.660   2.035   9.715  0.6712  0.1522 -2.3829
44146SOL    HW239297  11.750   1.914   9.729  0.5970  0.2590 -0.7929
44147SOL     OW39298   3.192   0.246  10.915 -0.0338  0.5080  0.4496
44147SOL    HW139299   3.226   0.219  10.830  0.6937 -1.2237  1.2357
44147SOL    HW239300   3.200   0.341  10.915 -0.5710  0.6163 -1.6072
44148SOL     OW39301   3.476   0.521   0.218  0.5248 -0.4275 -0.1249
44148SOL    HW139302   3.542   0.491   0.280  1.2112  0.0770 -0.6002
44148SOL    HW239303   3.521   0.522   0.134  0.2709  1.0679 -0.2656
44149SOL     OW39304   1.829   7.065   7.829  0.4325  0.4671  0.3256
44149SOL    HW139305   1.755   7.104   7.781  1.2114  0.5934 -0.7964
44149SOL    HW239306   1.890   7.137   7.842  1.5858 -0.1853 -1.1779
44150SOL     OW39307   1.404   7.536   3.103 -0.3513 -0.2075 -0.1875
44150SOL    HW139308   1.459   7.560   3.178 -0.6907 -0.8348  0.2675
44150SOL    HW239309   1.396   7.617   3.053 -1.0106  0.5206  1.0272
44151SOL     OW39310   5.012   8.644   0.217 -0.6487  0.1157 -0.3945
44151SOL    HW139311   5.062   8.567   0.190  0.7053  1.0473 -0.6135
44151SOL    HW239312   4.957   8.612   0.289 -0.0944 -1.0490 -0.4624
44152SOL     OW39313   5.028   6.157   7.914 -0.2033  0.2061 -0.3876
44152SOL    HW139314   4.996   6.086   7.857  1.7061  0.5761 -2.0523
44152SOL    HW239315   4.986   6.236   7.879 -0.6584  0.1784  0.0879
44153SOL     OW39316  11.830  11.243   8.341 -0.5641  0.0581  0.6985
44153SOL    HW139317  11.918  11.277   8.357 -1.0820  1.3364  0.9703
44153SOL    HW239318  11.843  11.170   8.280  0.6116  0.7673  0.0581
44154SOL     OW39319   2.358  12.271  11.300  0.4257  0.0618 -0.6365
44154SOL    HW139320   2.439  12.311  11.268 -0.0666  1.0191 -0.6961
44154SOL    HW239321   2.310  12.343  11.341  0.0595 -0.7018  0.3279
44155SOL     OW39322   6.718   3.759   3.088 -0.3016  0.3079  0.5180
44155SOL    HW139323   6.686   3.846   3.061 -1.7900 -1.1583 -3.0738
44155SOL    HW239324   6.753   3.773   3.176 -2.9760  3.9775  1.2728
44156SOL     OW39325   1.582   4.287   6.918  0.3602  0.3553 -0.2905
44156SOL    HW139326   1.539   4.204   6.937  0.0372  0.2645 -1.3553
44156SOL    HW239327   1.635   4.269   6.840 -0.4326  1.3724 -1.0985
44157SOL     OW39328   0.279   1.544  10.993  0.0590  0.0131  0.1505
44157SOL    HW139329   0.237   1.497  11.065 -0.5858 -0.1023 -0.2964
44157SOL    HW239330   0.208   1.591  10.950 -0.0388 -1.8754 -1.9343
44158SOL     OW39331   4.727   6.295   3.858  0.2849  0.2580  0.4374
44158SOL    HW139332   4.719   6.213   3.907 -0.1722  0.0119 -0.0368
44158SOL    HW239333   4.657   6.291   3.792  0.5952  0.7873  0.0618
44159SOL     OW39334  11.003   8.277   1.263 -0.6623 -0.1868  0.0514
44159SOL    HW139335  10.938   8.234   1.207 -0.3391 -0.4730 -0.1104
44159SOL    HW239336  11.048   8.204   1.307  0.2178 -0.0431 -0.5858
44160SOL     OW39337   6.529   4.240   5.302 -0.3314 -0.4373  0.2772
44160SOL    HW139338   6.615   4.283   5.300  0.0866 -1.2163 -2.6218
44160SOL    HW239339   6.538   4.173   5.369  2.2910 -2.1458 -1.5753
44161SOL     OW39340   2.949  11.954   3.502 -0.3380 -0.0188  0.0011
44161SOL    HW139341   3.025  11.900   3.479 -1.9835 -1.9793 -1.2456
44161SOL    HW239342   2.907  11.973   3.419 -2.0829 -0.3926  0.7560
44162SOL     OW39343   2.052   0.143   8.603  0.3812 -0.2388  0.2805
44162SOL    HW139344   2.094   0.150   8.517  1.4640 -2.4813  0.5408
44162SOL    HW239345   2.123   0.152   8.666  0.5390 -3.4311  0.7427
44163SOL     OW39346  12.108   9.098  10.951 -0.2922 -0.0481  0.2806
44163SOL    HW139347  12.126   9.098  11.045  1.8568 -0.4725 -0.0889
44163SOL    HW239348  12.110   9.190  10.926  1.4000 -0.0516  0.2927
44164SOL     OW39349  12.144   7.569   7.970  0.2813 -0.0160  0.2922
44164SOL    HW139350  12.234   7.601   7.979 -0.1978  1.0108  1.9664
44164SOL    HW239351  12.093   7.646   7.944 -0.5820  0.2655  2.5319
44165SOL     OW39352   1.692  11.841   3.422 -0.1308  0.2688 -0.1820
44165SOL    HW139353   1.732  11.928   3.428 -1.0577  0.7275 -0.4222
44165SOL    HW239354   1.598  11.858   3.419 -0.3841 -0.7926  0.7634
44166SOL     OW39355  10.830   5.936   5.839 -0.4168  0.1952 -0.2620
44166SOL    HW139356  10.881   5.863   5.876 -2.2066 -0.1615  1.6330
44166SOL    HW239357  10.897   5.997   5.808  1.2264 -0.2302  2.1146
44167SOL     OW39358   5.021   8.458   2.529  0.7705 -0.5645 -0.2592
44167SOL    HW139359   5.022   8.364   2.544  0.2780 -0.6724 -0.8790
44167SOL    HW239360   4.945   8.490   2.578  1.1602 -0.4275  0.2681
44168SOL     OW39361   4.906   7.795   3.995  0.1634  0.0892 -0.0152
44168SOL    HW139362   4.959   7.814   3.918  0.3807 -0.8035 -0.0898
44168SOL    HW239363   4.969   7.778   4.065 -0.0281  0.0694  0.1532
44169SOL     OW39364  11.173   3.905  10.909  0.1993 -0.6139 -0.8238
44169SOL    HW139365  11.079   3.921  10.902  0.0705 -1.7571 -2.2992
44169SOL    HW239366  11.180   3.813  10.935  0.9122 -0.5173 -0.6419
44170SOL     OW39367  10.719   4.712  12.185  0.0230  0.5078 -0.0157
44170SOL    HW139368  10.755   4.770  12.118 -1.5375  1.3619 -0.1670
44170SOL    HW239369  10.625   4.711  12.167 -0.4376  0.7809  2.1552
44171SOL     OW39370   6.921   7.259   7.996  0.0183 -0.0191 -0.2554
44171SOL    HW139371   6.892   7.173   8.026  0.0864  0.4075  1.0652
44171SOL    HW239372   7.008   7.270   8.035 -0.4452  1.1071  0.4965
44172SOL     OW39373   1.861   9.168   2.584 -0.0080 -0.3887  0.4962
44172SOL    HW139374   1.899   9.097   2.635 -1.0881 -0.2872  1.4860
44172SOL    HW239375   1.924   9.183   2.513  0.8198 -1.5053  0.9632
44173SOL     OW39376   1.806   1.969   5.885 -0.0845 -0.2041  0.8282
44173SOL    HW139377   1.867   1.929   5.822  0.9471 -1.5313  2.5721
44173SOL    HW239378   1.818   1.918   5.965 -3.8025 -0.7760  1.1665
44174SOL     OW39379   6.054   7.179   9.225  0.4991  0.2827 -0.6464
44174SOL    HW139380   6.008   7.261   9.208 -0.2342 -0.1330 -0.6784
44174SOL    HW239381   6.007   7.139   9.298  0.2095 -0.5892 -1.2810
44175SOL     OW39382  10.789   6.661  10.473 -0.2075 -0.1421  0.5105
44175SOL    HW139383  10.722   6.662  10.404  0.4189 -1.8673 -0.1857
44175SOL    HW239384  10.831   6.576  10.464  1.9180  0.7797  1.1138
44176SOL     OW39385   7.180   0.266   9.540  0.1724  0.6931 -0.4834
44176SOL    HW139386   7.204   0.356   9.561  0.3348  0.2235  1.5245
44176SOL    HW239387   7.084   0.266   9.544  0.2200  0.2233  2.3134
44177SOL     OW39388   6.409   9.380  12.496 -0.3854  0.5792  0.5186
44177SOL    HW139389   6.343   9.363  12.429 -1.3803  0.1707  1.5744
44177SOL    HW239390   6.416   9.298  12.544  0.0851  0.9611  1.1161
44178SOL     OW39391   2.017   8.334   1.454  0.5713  0.1219 -0.4809
44178SOL    HW139392   2.020   8.395   1.528  1.2820  0.0221 -0.4226
44178SOL    HW239393   2.027   8.390   1.377  1.1274  0.0946 -0.4320
44179SOL     OW39394   9.984   7.079  10.595  0.0405  0.2603  0.1799
44179SOL    HW139395   9.952   7.163  10.628  1.2920  1.5026 -1.5841
44179SOL    HW239396   9.933   7.063  10.516  1.6701  0.8212 -1.0498
44180SOL     OW39397   5.709   3.633   8.990 -0.2108  0.2662  0.2034
44180SOL    HW139398   5.662   3.681   8.922 -1.0496 -0.8341 -0.0190
44180SOL    HW239399   5.752   3.701   9.042 -2.1706  1.3473  0.5066
44181SOL     OW39400   0.039   3.951   4.568 -0.4274  0.1422  0.3648
44181SOL    HW139401   0.124   3.922   4.600 -0.6928  1.3558  2.2773
44181SOL    HW239402  -0.021   3.933   4.640 -1.5704  0.4698 -0.4824
44182SOL     OW39403   1.944   5.555  11.956  0.1725  0.5589  0.1287
44182SOL    HW139404   1.874   5.536  12.020  0.7859 -0.7212  0.4623
44182SOL    HW239405   1.977   5.468  11.932  1.6800  1.1467  0.0130
44183SOL     OW39406   7.529   0.850   4.735 -0.2094  0.1497  0.3234
44183SOL    HW139407   7.513   0.768   4.783 -0.2761  0.5403  0.9877
44183SOL    HW239408   7.442   0.882   4.713 -0.1631 -0.9919 -1.7870
44184SOL     OW39409   8.519  10.631   6.091 -0.0850  0.6098  0.4571
44184SOL    HW139410   8.480  10.697   6.034 -0.1326 -0.9653 -1.4133
44184SOL    HW239411   8.587  10.590   6.038  0.8520  0.0377  2.0314
44185SOL     OW39412   7.045   4.084   7.722 -0.6320 -0.0582  0.9536
44185SOL    HW139413   7.074   4.174   7.707 -2.0054  0.2576 -0.0767
44185SOL    HW239414   6.970   4.093   7.781  0.0322 -0.6541  1.9019
44186SOL     OW39415   3.448   1.825   4.849  0.0688  0.2417 -0.1556
44186SOL    HW139416   3.535   1.808   4.884  0.0566  1.0184  0.2770
44186SOL    HW239417   3.452   1.915   4.816 -0.2733 -0.0691 -1.0726
44187SOL     OW39418   8.854   7.375   4.273  0.5772  0.5166  0.6999
44187SOL    HW139419   8.870   7.339   4.360  1.6046 -0.1529  0.2441
44187SOL    HW239420   8.832   7.467   4.289 -0.0892  0.1919  1.7185
44188SOL     OW39421   4.979   7.865  12.011  0.6875 -0.0665  0.1154
44188SOL    HW139422   5.046   7.796  12.008  2.0057  1.1371  0.7080
44188SOL    HW239423   4.921   7.839  12.082  0.2110 -1.3787 -0.7145
44189SOL     OW39424   1.970  12.083   0.442  0.0757 -0.1031  0.1415
44189SOL    HW139425   1.908  12.109   0.374 -0.2302  0.0197  0.4655
44189SOL    HW239426   2.008  12.165   0.472  0.4667 -0.1860 -0.1200
44190SOL     OW39427   9.005   4.737   9.761  0.0658 -0.7180  0.3466
44190SOL    HW139428   8.931   4.751   9.702 -0.1845 -1.1210  0.5581
44190SOL    HW239429   8.965   4.737   9.848  0.6274  1.3596  0.6501
44191SOL     OW39430   2.763   3.051   6.427 -0.2200  0.1720  0.2091
44191SOL    HW139431   2.846   3.050   6.379  0.3433 -0.3936  1.1848
44191SOL    HW239432   2.779   3.108   6.502 -0.4446 -0.6411  0.8785
44192SOL     OW39433   4.057  11.996  11.270 -0.3946  0.1281 -0.0012
44192SOL    HW139434   4.020  11.919  11.228 -0.1220  0.5373 -1.0433
44192SOL    HW239435   4.074  11.970  11.360 -1.0130 -0.7828 -0.1432
44193SOL     OW39436   4.195   2.220   7.269 -0.0761  0.3820  0.3118
44193SOL    HW139437   4.126   2.237   7.333 -0.8105 -0.5750 -0.2074
44193SOL    HW239438   4.166   2.266   7.190 -0.2491 -0.2078  0.0240
44194SOL     OW39439  10.076   4.640   5.351  0.0928  0.2224  0.5619
44194SOL    HW139440  10.046   4.731   5.356 -1.5649 -0.2112 -0.5450
44194SOL    HW239441  10.003   4.589   5.385  0.1403 -0.7958 -0.7740
44195SOL     OW39442   6.126   8.027   4.141 -0.1188  0.0100 -0.2244
44195SOL    HW139443   6.164   8.010   4.055  1.0233 -0.0036  0.2646
44195SOL    HW239444   6.118   7.941   4.182  2.0207  0.2116  0.7516
44196SOL     OW39445   5.454   9.966   1.357 -0.1347 -0.6397 -0.5807
44196SOL    HW139446   5.511   9.907   1.405  1.3422  1.3686  0.2793
44196SOL    HW239447   5.367   9.927   1.364  0.9559 -3.4274 -1.3114
44197SOL     OW39448  12.523  10.840   8.521  0.1227  0.1660  0.2117
44197SOL    HW139449  12.558  10.918   8.477  0.4676 -0.0586  0.0863
44197SOL    HW239450  12.600  10.787   8.540  0.0570  0.5687  1.7088
44198SOL     OW39451   3.654   6.301   9.321 -0.2310  0.0908 -0.1391
44198SOL    HW139452   3.708   6.240   9.271  0.5275  0.9819 -0.4319
44198SOL    HW239453   3.637   6.255   9.404  1.8630  0.1865  0.3972
44199SOL     OW39454   8.972   5.840   4.740 -0.7362 -0.2717  0.1700
44199SOL    HW139455   9.011   5.851   4.653  0.5299 -1.1606  0.6003
44199SOL    HW239456   8.911   5.913   4.748 -0.6987 -0.0329 -1.3670
44200SOL     OW39457   4.342   7.477   3.357  0.3316  0.8407 -0.1861
44200SOL    HW139458   4.395   7.537   3.409 -0.7109  0.7530  1.0324
44200SOL    HW239459   4.359   7.391   3.396  1.1281  0.4547 -1.3438
44201SOL     OW39460   2.704   6.789  10.624 -0.2082 -0.0129  0.0680
44201SOL    HW139461   2.704   6.834  10.540 -1.6449 -2.5197 -1.3963
44201SOL    HW239462   2.785   6.739  10.624 -1.6831 -2.6627 -1.5201
44202SOL     OW39463   1.200  10.142   0.197 -0.3711  0.9544  0.0095
44202SOL    HW139464   1.206  10.178   0.285 -1.9776  0.2134  0.4634
44202SOL    HW239465   1.283  10.096   0.184  0.9373  3.1603  0.1237
44203SOL     OW39466   9.780   0.597   1.943  0.1994  0.6314 -0.1934
44203SOL    HW139467   9.730   0.634   2.016  0.2395 -0.0770  0.1987
44203SOL    HW239468   9.717   0.542   1.896  0.3679  0.4897 -0.2563
44204SOL     OW39469   2.148   8.766   8.387  0.5471 -0.3446  0.5185
44204SOL    HW139470   2.138   8.850   8.343 -0.4306 -0.1128  1.1519
44204SOL    HW239471   2.229   8.729   8.351 -0.3683 -0.3187 -1.6907
44205SOL     OW39472  11.779  10.501   8.863 -0.0141 -0.2383 -0.3250
44205SOL    HW139473  11.688  10.524   8.847 -0.1483  0.3234  1.0868
44205SOL    HW239474  11.783  10.486   8.958  1.2103 -0.9401 -0.4727
44206SOL     OW39475  11.688   9.572   5.429  0.1893  0.3527 -0.6319
44206SOL    HW139476  11.613   9.550   5.373  1.3347  1.3601 -2.6939
44206SOL    HW239477  11.740   9.634   5.376  1.7819  0.7355  1.2573
44207SOL     OW39478  10.657   1.286   7.664  0.4667 -0.4048 -1.0031
44207SOL    HW139479  10.659   1.256   7.573 -0.1914 -1.4804 -0.6903
44207SOL    HW239480  10.664   1.205   7.716  1.5098  0.2358 -0.0861
44208SOL     OW39481   3.825  12.003   1.337 -0.1963 -0.3617  0.5234
44208SOL    HW139482   3.839  12.098   1.332  1.6357 -0.6115  0.0481
44208SOL    HW239483   3.748  11.988   1.283  0.3436  0.7257 -0.6295
44209SOL     OW39484   0.726   1.972  10.799  0.5227 -0.0660 -0.0172
44209SOL    HW139485   0.748   2.032  10.871 -1.7563  0.4224  0.3327
44209SOL    HW239486   0.712   1.888  10.842  0.1424 -0.0051 -0.0212
44210SOL     OW39487   8.175   2.388   0.320  0.5647  0.0418 -0.3200
44210SOL    HW139488   8.140   2.411   0.406  1.8727 -0.2841  0.3326
44210SOL    HW239489   8.101   2.352   0.272  0.2516 -1.8937  1.4543
44211SOL     OW39490   0.231   0.631   0.060 -0.2171 -0.4296  0.4899
44211SOL    HW139491   0.181   0.707   0.031 -0.7994 -0.9724  0.0584
44211SOL    HW239492   0.179   0.593   0.131 -0.0315 -0.5577  0.5605
44212SOL     OW39493   1.540   2.540   6.801  0.2100 -0.5889  0.1161
44212SOL    HW139494   1.549   2.589   6.883  0.6163 -1.3890  0.5557
44212SOL    HW239495   1.446   2.524   6.793  0.2015 -0.8078  0.6099
44213SOL     OW39496  12.534   5.680   8.491 -0.2058 -0.5537  0.3133
44213SOL    HW139497  12.629   5.678   8.483 -0.1850 -0.3733  0.4997
44213SOL    HW239498  12.516   5.757   8.546 -0.5641  0.5915 -1.3051
44214SOL     OW39499   1.547   7.715  10.484  0.1887 -0.8436 -0.5166
44214SOL    HW139500   1.560   7.636  10.538  0.2502 -0.9460 -0.6803
44214SOL    HW239501   1.455   7.713  10.461 -0.3667  0.3749  1.4148
44215SOL     OW39502  10.663   3.715  12.334  0.0535  0.3790 -0.2084
44215SOL    HW139503  10.573   3.716  12.367  0.8870 -0.6702  2.3736
44215SOL    HW239504  10.676   3.802  12.296 -1.0601  1.8433  2.4825
44216SOL     OW39505   3.612  12.522  10.178  0.7077 -0.4257 -0.5657
44216SOL    HW139506   3.529  12.543  10.220  0.2007 -0.9124 -1.2886
44216SOL    HW239507   3.639  12.603  10.136  1.3509  0.1357  0.8777
44217SOL     OW39508   0.878  11.718   0.776  0.2379 -0.5572 -0.3007
44217SOL    HW139509   0.969  11.736   0.796  0.0603 -1.2311  1.2285
44217SOL    HW239510   0.833  11.802   0.786  0.8679  0.0951 -2.4338
44218SOL     OW39511   0.645   3.204   7.322  0.1892 -0.0153  0.1843
44218SOL    HW139512   0.686   3.275   7.273  0.0588  0.3178  0.5572
44218SOL    HW239513   0.574   3.246   7.371  0.4662 -0.3066  0.8453
44219SOL     OW39514   9.811  10.791   9.418  0.0215 -0.7834  0.1546
44219SOL    HW139515   9.754  10.806   9.493 -1.3591 -1.0772 -0.8083
44219SOL    HW239516   9.900  10.796   9.454 -0.6119 -1.1644  1.8456
44220SOL     OW39517   1.296   4.202   0.173 -1.2666  0.5414  0.2653
44220SOL    HW139518   1.250   4.284   0.188 -2.7452  0.1575 -1.8206
44220SOL    HW239519   1.357   4.195   0.247 -1.9210  2.9060  1.1086
44221SOL     OW39520   2.746   6.989  10.424  0.0077  0.2989 -0.2504
44221SOL    HW139521   2.736   7.007  10.330 -0.5857  0.0790 -0.2322
44221SOL    HW239522   2.659   7.003  10.460  0.0732 -0.3030  0.1538
44222SOL     OW39523   6.162   5.426   1.925  0.8648 -0.1986 -0.8640
44222SOL    HW139524   6.245   5.380   1.909  1.3802  0.3615  0.1321
44222SOL    HW239525   6.173   5.466   2.011 -0.8209 -0.9550 -0.2560
44223SOL     OW39526   4.274   2.415   6.823  0.1138 -0.0089  0.2052
44223SOL    HW139527   4.182   2.437   6.808  0.3776  0.9479 -0.0245
44223SOL    HW239528   4.271   2.347   6.891 -0.7070  0.8125  1.0158
44224SOL     OW39529   5.282   0.576   8.467  0.0142  0.2454 -0.0533
44224SOL    HW139530   5.233   0.637   8.412 -0.7733  0.0538  0.4137
44224SOL    HW239531   5.327   0.632   8.530  0.4442  0.4265 -0.5126
44225SOL     OW39532   0.652   1.946   0.843  0.2652  1.2429 -0.1176
44225SOL    HW139533   0.716   1.923   0.776  0.3664 -0.8741  0.6398
44225SOL    HW239534   0.679   1.896   0.921 -1.7839  0.9588  0.4740
44226SOL     OW39535   6.584   4.268   0.909 -0.4588 -0.1730 -0.4937
44226SOL    HW139536   6.635   4.191   0.883 -1.6940 -1.1755 -0.0136
44226SOL    HW239537   6.549   4.245   0.995 -0.6163  1.0527 -0.2216
44227SOL     OW39538   8.324   1.656  11.008  0.6164 -0.3496 -0.0259
44227SOL    HW139539   8.342   1.602  11.085  0.8711 -0.0462  0.1288
44227SOL    HW239540   8.408   1.662  10.962  0.3979 -0.7646 -0.4781
44228SOL     OW39541   0.540  11.510  10.370  0.2173 -0.4059  0.0569
44228SOL    HW139542   0.584  11.471  10.446  1.5496 -1.4900 -1.2155
44228SOL    HW239543   0.552  11.446  10.300 -3.7942 -0.9706 -0.3337
44229SOL     OW39544   5.757   8.907   3.186  0.7071  0.1139  0.2784
44229SOL    HW139545   5.816   8.833   3.197  1.5299  0.9062  1.4707
44229SOL    HW239546   5.669   8.869   3.194  1.0455 -0.9501 -0.7359
44230SOL     OW39547   0.001  10.568   4.751 -0.0157  0.4506  0.2898
44230SOL    HW139548  -0.086  10.550   4.717  0.3184 -0.5084 -0.0847
44230SOL    HW239549   0.032  10.643   4.700 -0.3493  0.3579 -0.0461
44231SOL     OW39550   8.753   2.142   5.680 -0.2481  0.1772  0.7546
44231SOL    HW139551   8.790   2.058   5.654 -2.1633 -0.3734 -0.3392
44231SOL    HW239552   8.659   2.129   5.679 -0.6290  2.4848  0.0627
44232SOL     OW39553  11.277   6.576   4.042  0.3796 -0.2980 -0.7040
44232SOL    HW139554  11.321   6.603   4.123 -0.3179 -0.9369 -0.0947
44232SOL    HW239555  11.212   6.644   4.027  1.1593  0.3350 -1.2778
44233SOL     OW39556   2.591   1.507   5.247 -0.0036  0.4557 -0.0994
44233SOL    HW139557   2.661   1.442   5.259 -1.1230 -0.4456  2.0080
44233SOL    HW239558   2.510   1.456   5.248 -0.9380  1.8571  1.8984
44234SOL     OW39559   7.316   2.047   1.795  0.2851 -0.8187  0.1222
44234SOL    HW139560   7.269   2.050   1.711  0.0322 -0.6112  0.2687
44234SOL    HW239561   7.396   2.097   1.779 -0.4337  0.4652  0.4089
44235SOL     OW39562   2.490   0.785   6.935 -0.6771 -0.1797 -0.5400
44235SOL    HW139563   2.510   0.814   7.025  1.0510 -0.8722 -0.6587
44235SOL    HW239564   2.486   0.690   6.941 -1.4495 -0.1802 -1.0369
44236SOL     OW39565   2.710   4.279   7.609 -0.1857  0.0796  0.3247
44236SOL    HW139566   2.706   4.192   7.570  1.3206  0.0667  0.1517
44236SOL    HW239567   2.675   4.266   7.698  0.4848 -0.8189  0.4784
44237SOL     OW39568   3.145   0.688  11.915  0.4288 -0.3949  0.3459
44237SOL    HW139569   3.094   0.620  11.871 -0.4732  0.5577 -0.1309
44237SOL    HW239570   3.080   0.742  11.959  0.8903  1.3601 -0.9751
44238SOL     OW39571   6.078   6.818   3.893 -0.0495 -0.6808 -0.8137
44238SOL    HW139572   6.043   6.730   3.907 -0.2644 -0.5634 -0.6032
44238SOL    HW239573   6.172   6.804   3.879 -0.4210 -1.1911 -3.3250
44239SOL     OW39574   8.690   1.619   6.527 -0.4006 -0.2439  0.1902
44239SOL    HW139575   8.693   1.714   6.516 -1.8305 -0.2762 -0.7442
44239SOL    HW239576   8.632   1.589   6.458  1.7465 -2.0608 -0.9634
44240SOL     OW39577   1.527   1.353  12.274 -0.7192 -0.3822 -0.0284
44240SOL    HW139578   1.510   1.259  12.268 -2.1781 -0.0675 -2.4602
44240SOL    HW239579   1.450   1.393  12.234 -0.1097  1.8558  0.9215
44241SOL     OW39580   1.481   4.278   9.687 -0.8705  0.0865  0.3858
44241SOL    HW139581   1.571   4.312   9.688 -0.7080 -0.3151 -0.0842
44241SOL    HW239582   1.431   4.341   9.738 -0.1449 -0.1679  1.4426
44242SOL     OW39583   8.878  10.522   2.947  0.3971 -0.7444  0.0713
44242SOL    HW139584   8.841  10.472   2.874  1.2374 -0.3343 -0.6567
44242SOL    HW239585   8.815  10.510   3.018 -0.9544 -0.3747 -0.9965
44243SOL     OW39586  10.866   2.326   0.920 -0.2656  0.2440 -0.0499
44243SOL    HW139587  10.915   2.341   1.001 -1.3149 -2.3162  1.1814
44243SOL    HW239588  10.800   2.394   0.919  0.3527  0.8830  0.7386
44244SOL     OW39589  10.908  10.811   8.893  0.0712 -0.0863 -0.1371
44244SOL    HW139590  10.825  10.772   8.865 -0.9055 -0.0164  2.4100
44244SOL    HW239591  10.911  10.897   8.850 -1.2027 -0.0825 -0.2322
44245SOL     OW39592  12.156  12.341   9.807 -0.3898 -0.5622  0.3387
44245SOL    HW139593  12.194  12.429   9.802 -1.0073 -0.3254 -0.4475
44245SOL    HW239594  12.064  12.354   9.787 -0.4344 -1.4292 -0.0575
44246SOL     OW39595   1.741  10.476  10.061 -0.1543 -0.1986 -0.6726
44246SOL    HW139596   1.770  10.422   9.987 -0.8884 -0.4439 -0.7841
44246SOL    HW239597   1.656  10.439  10.086  0.3398 -0.4829  0.6702
44247SOL     OW39598   3.741   4.447  12.190  0.1225 -0.8068 -0.3064
44247SOL    HW139599   3.679   4.457  12.263 -0.0108 -0.7101 -0.4311
44247SOL    HW239600   3.729   4.526  12.138  2.9146  1.0202  1.5782
44248SOL     OW39601   1.897  10.552   0.057  0.3976  0.1428  0.4548
44248SOL    HW139602   1.911  10.527  -0.035 -0.0472  0.2810  0.3442
44248SOL    HW239603   1.945  10.487   0.107  1.0769  0.3690  0.1119
44249SOL     OW39604   3.976   8.653   8.096 -0.5642 -0.4416  0.1741
44249SOL    HW139605   3.978   8.560   8.115  0.7072 -0.9145 -2.0381
44249SOL    HW239606   4.002   8.695   8.179 -1.4806 -1.9878  1.2850
44250SOL     OW39607   4.037  10.749   5.436  0.0716 -0.2565 -0.3023
44250SOL    HW139608   4.037  10.760   5.531  1.2163 -0.9715 -0.1952
44250SOL    HW239609   3.946  10.732   5.413 -0.4542  1.3393  0.4685
44251SOL     OW39610   7.842   5.856   8.246  0.2241  0.6172 -0.0428
44251SOL    HW139611   7.765   5.803   8.265 -0.5517  0.7400 -2.5222
44251SOL    HW239612   7.863   5.899   8.329 -1.7639 -0.1916  0.9324
44252SOL     OW39613   2.549  10.980   9.189 -1.1281 -0.2558  0.6427
44252SOL    HW139614   2.589  11.058   9.229 -0.5891 -0.4020  0.4051
44252SOL    HW239615   2.500  11.015   9.114 -1.7753 -0.0306  1.1677
44253SOL     OW39616   7.992   7.943   4.901  1.1597  0.0810  0.2088
44253SOL    HW139617   7.998   7.982   4.814 -1.0533 -0.1432 -0.0943
44253SOL    HW239618   7.958   8.012   4.956  2.0380  0.0553  0.8081
44254SOL     OW39619   6.868   0.397   9.769  0.2098 -0.0539 -0.1484
44254SOL    HW139620   6.888   0.337   9.842  1.7173  1.6993  0.9598
44254SOL    HW239621   6.886   0.345   9.690  1.4471 -1.0775  0.7677
44255SOL     OW39622   3.512   2.014   0.877 -0.2721  0.0980  0.3701
44255SOL    HW139623   3.503   2.039   0.969 -2.4740  0.8234  0.0149
44255SOL    HW239624   3.517   1.918   0.879  1.8726  0.1576  1.3193
44256SOL     OW39625   7.046   0.881   5.531  0.4161 -0.0360  0.0871
44256SOL    HW139626   6.958   0.858   5.563  1.5222 -1.2689  2.5172
44256SOL    HW239627   7.030   0.939   5.457 -2.4496 -0.2323  0.4328
44257SOL     OW39628   8.715   6.090   3.440  0.2783 -0.2343 -0.2553
44257SOL    HW139629   8.679   6.160   3.387  2.5411  2.0475  1.0071
44257SOL    HW239630   8.649   6.074   3.507  0.1852  1.5543  0.1298
44258SOL     OW39631   2.937   4.396  11.878 -0.1769  0.2641  0.6343
44258SOL    HW139632   2.971   4.448  11.951 -0.6317  0.1290  0.9444
44258SOL    HW239633   3.002   4.407  11.809  1.0303 -0.8245  1.5603
44259SOL     OW39634   0.747  10.200  11.375 -0.5561  0.5429  0.1369
44259SOL    HW139635   0.774  10.110  11.355 -0.9034  0.5809 -0.5169
44259SOL    HW239636   0.691  10.191  11.452 -0.2768  0.2414  0.3074
44260SOL     OW39637  11.278   0.679   4.145  0.2669 -0.4650 -0.6203
44260SOL    HW139638  11.361   0.716   4.115  1.3075 -0.5685  1.8935
44260SOL    HW239639  11.303   0.613   4.210 -1.7708 -0.8637 -0.1608
44261SOL     OW39640  12.443  12.349   1.668 -0.7683 -0.1168  0.4767
44261SOL    HW139641  12.510  12.286   1.642 -1.6412 -0.5696 -0.7949
44261SOL    HW239642  12.368  12.296   1.695 -1.1884  0.3748  0.3097
44262SOL     OW39643   8.168   7.838   7.476 -0.4603  0.1736  0.6660
44262SOL    HW139644   8.100   7.848   7.543 -0.4062 -0.4433  0.8161
44262SOL    HW239645   8.248   7.818   7.525 -0.6796 -1.5666  0.3698
44263SOL     OW39646  11.330   8.343   6.603  0.4661 -0.2705 -0.3037
44263SOL    HW139647  11.286   8.364   6.521  0.4677 -1.6052 -0.6702
44263SOL    HW239648  11.289   8.401   6.668  0.6330  0.9754 -1.2667
44264SOL     OW39649   8.035   7.982   9.249 -0.1758  0.0657 -1.2825
44264SOL    HW139650   8.110   7.962   9.306 -0.9479 -0.1048 -0.2892
44264SOL    HW239651   8.062   7.951   9.163  0.0259 -2.1826 -0.4975
44265SOL     OW39652  11.685   9.040   6.017  0.5978 -0.4589  0.1760
44265SOL    HW139653  11.757   9.086   6.059  0.3502 -1.2093  1.4795
44265SOL    HW239654  11.620   9.108   6.000  0.5638 -0.1845  1.3466
44266SOL     OW39655   9.603   1.562   3.291 -0.2445  0.5588 -0.4269
44266SOL    HW139656   9.513   1.582   3.268 -1.0020 -0.7763  1.1991
44266SOL    HW239657   9.638   1.518   3.213 -1.9758 -1.6542 -0.0429
44267SOL     OW39658   9.396   0.261   0.916  0.0710  0.8790  0.1436
44267SOL    HW139659   9.479   0.285   0.873  0.7278  1.3111  1.5811
44267SOL    HW239660   9.368   0.341   0.960 -0.1798  0.2556  1.1352
44268SOL     OW39661   3.913   8.180  10.167 -0.0788  0.1956  0.7712
44268SOL    HW139662   3.883   8.092  10.187  0.2701  0.1349  1.0371
44268SOL    HW239663   3.844   8.218  10.112 -0.1154 -0.3204  0.4608
44269SOL     OW39664   8.802   1.049   2.977 -0.2451  0.0479  0.0896
44269SOL    HW139665   8.815   1.028   2.885 -1.4165  1.1342 -0.3592
44269SOL    HW239666   8.859   1.124   2.994 -0.3072  0.0856  0.1368
44270SOL     OW39667   1.289  10.181  11.388 -0.2903 -0.1097 -0.9439
44270SOL    HW139668   1.252  10.259  11.429  1.0171 -0.6275  1.4345
44270SOL    HW239669   1.237  10.108  11.422  0.5910 -0.5283 -0.4568
44271SOL     OW39670   9.048   0.591   4.808  0.5394  0.0050 -0.2599
44271SOL    HW139671   9.096   0.523   4.854 -0.2749  0.0896  0.7374
44271SOL    HW239672   9.029   0.552   4.722  0.3381 -0.9194  0.1866
44272SOL     OW39673   2.324  12.144   0.486 -0.1149 -0.3208 -0.1720
44272SOL    HW139674   2.339  12.084   0.558  0.6024  0.4380  0.3352
44272SOL    HW239675   2.394  12.210   0.494 -0.6329  0.3523 -0.9377
44273SOL     OW39676   5.375   7.033  12.415 -0.2795  0.8536  0.3723
44273SOL    HW139677   5.359   7.074  12.329  0.0547  0.9940  0.3763
44273SOL    HW239678   5.344   6.943  12.404  0.5253  0.6253 -0.1639
44274SOL     OW39679   8.666   0.154   6.752  0.0795 -0.1118 -0.0949
44274SOL    HW139680   8.631   0.234   6.791 -1.0938 -0.3831 -0.5378
44274SOL    HW239681   8.619   0.083   6.796 -1.1996 -0.4235 -1.8849
44275SOL     OW39682   1.457   2.333   3.542 -0.7607  0.0467  0.1911
44275SOL    HW139683   1.497   2.380   3.469 -2.2513  1.5866  0.3177
44275SOL    HW239684   1.528   2.279   3.577  0.3261  0.2755 -1.5631
44276SOL     OW39685   1.060   5.443   9.405  0.5112  0.0217  0.1612
44276SOL    HW139686   1.081   5.364   9.355 -1.6554  0.1848 -1.1324
44276SOL    HW239687   1.052   5.512   9.340  0.4377  0.8758  1.0607
44277SOL     OW39688   3.922  12.351   9.938 -0.2984  0.0155  0.5394
44277SOL    HW139689   3.981  12.278   9.956  0.3927  0.3591 -0.2692
44277SOL    HW239690   3.980  12.427   9.926 -0.8888  0.3502 -0.3337
44278SOL     OW39691   6.841  12.121   5.733  0.4723  0.0033  0.2879
44278SOL    HW139692   6.748  12.100   5.721  0.6030 -0.7910  0.6014
44278SOL    HW239693   6.841  12.203   5.781 -0.0725 -0.1235  0.5092
44279SOL     OW39694   3.795   2.007   5.753 -0.3857  1.0091 -0.2949
44279SOL    HW139695   3.756   2.091   5.776 -1.7557  0.3365 -0.0863
44279SOL    HW239696   3.754   1.944   5.813  3.3117  0.6541  2.2354
44280SOL     OW39697   9.265   8.372  12.184 -0.6151  0.4315 -0.0073
44280SOL    HW139698   9.204   8.445  12.181  0.1926  1.1026 -0.7960
44280SOL    HW239699   9.280   8.350  12.092  0.4409  0.3896  0.1588
44281SOL     OW39700   0.769   2.529   9.512 -0.3426 -0.1445 -0.3886
44281SOL    HW139701   0.847   2.580   9.489  0.5684 -0.7017  1.2947
44281SOL    HW239702   0.802   2.460   9.570 -2.3575  0.9002  2.1721
44282SOL     OW39703   2.344   4.911   6.110 -0.2902  0.1796 -0.0045
44282SOL    HW139704   2.385   4.884   6.027 -2.6988 -3.4561 -0.2521
44282SOL    HW239705   2.254   4.932   6.086 -0.8598 -0.2998  1.6015
44283SOL     OW39706   0.968   0.784  10.726  0.0323 -0.4928 -0.1129
44283SOL    HW139707   0.883   0.823  10.748 -0.7761 -2.6523  0.9453
44283SOL    HW239708   0.945   0.703  10.680  1.4693 -1.4657  0.7999
44284SOL     OW39709   3.439   7.582   6.742  0.4012  0.4106  0.0691
44284SOL    HW139710   3.422   7.490   6.720 -2.1848  0.7565  0.2776
44284SOL    HW239711   3.519   7.580   6.795  1.8633 -1.3891 -2.0434
44285SOL     OW39712  12.104   5.780   2.057 -0.1699 -0.1330 -0.3153
44285SOL    HW139713  12.172   5.763   2.122  0.1885  1.0149 -0.3750
44285SOL    HW239714  12.044   5.706   2.065  0.7347 -0.8311  0.1917
44286SOL     OW39715   0.654   9.199   5.174  0.1496 -0.4975 -0.3176
44286SOL    HW139716   0.682   9.289   5.156 -1.1520 -0.1851 -0.8862
44286SOL    HW239717   0.702   9.174   5.252 -1.6707  1.7823  1.6855
44287SOL     OW39718   3.980   0.627   3.424 -0.7179 -0.2684 -0.7877
44287SOL    HW139719   3.927   0.696   3.465 -0.5402 -0.7885  0.3447
44287SOL    HW239720   4.030   0.589   3.496 -1.3502 -2.0742 -1.2467
44288SOL     OW39721   0.476   3.340   1.795  0.2720  0.0804 -0.3551
44288SOL    HW139722   0.507   3.347   1.704 -0.1017  0.9176 -0.4265
44288SOL    HW239723   0.470   3.431   1.825  0.4894 -0.1973  0.5460
44289SOL     OW39724   3.294   7.608   1.650 -0.2505 -0.4290  0.1612
44289SOL    HW139725   3.291   7.545   1.578 -1.1364  0.9583 -1.0791
44289SOL    HW239726   3.334   7.686   1.612 -2.6057  1.0537  0.5207
44290SOL     OW39727   0.705   1.035   5.750 -0.3947  0.1417  0.2855
44290SOL    HW139728   0.719   1.023   5.656  0.7277 -0.3380  0.5005
44290SOL    HW239729   0.753   1.115   5.772  0.3318 -0.3766  0.6476
44291SOL     OW39730   6.464   8.315   3.864  0.2295 -0.3027 -0.3179
44291SOL    HW139731   6.418   8.368   3.929  0.9142 -1.1815  0.9346
44291SOL    HW239732   6.519   8.377   3.817 -0.3285  0.3675 -0.1122
44292SOL     OW39733   9.842   8.150   6.854 -0.0381  0.4222  0.1949
44292SOL    HW139734   9.896   8.229   6.848 -0.0174  0.6020  2.1423
44292SOL    HW239735   9.816   8.146   6.946 -0.0223 -1.8529  0.1583
44293SOL     OW39736  10.005   4.896   3.988  0.2126 -0.2575 -0.6855
44293SOL    HW139737   9.984   4.918   3.897 -1.3633 -1.7576 -0.7435
44293SOL    HW239738   9.921   4.897   4.033  0.9492  0.2441  0.7292
44294SOL     OW39739   7.142  11.874  11.792  0.5694  0.4697  0.6363
44294SOL    HW139740   7.115  11.875  11.700 -0.2545 -3.5542  0.6741
44294SOL    HW239741   7.070  11.915  11.839 -0.1438  0.3106 -0.2939
44295SOL     OW39742   8.484   2.721   3.017  0.0292 -0.2893 -0.2760
44295SOL    HW139743   8.432   2.799   3.035  0.0072 -0.1663 -0.8539
44295SOL    HW239744   8.432   2.648   3.052  0.0668 -0.0491  0.2993
44296SOL     OW39745   1.704   3.394  11.309 -0.5933  0.7674  0.0843
44296SOL    HW139746   1.662   3.449  11.375 -2.2236 -1.6121  1.2159
44296SOL    HW239747   1.744   3.323  11.359  1.0282  0.6383 -1.3167
44297SOL     OW39748   5.779   6.842   8.877  0.0097  0.3709 -0.9138
44297SOL    HW139749   5.730   6.869   8.800 -0.1783  1.6714 -0.3572
44297SOL    HW239750   5.823   6.921   8.908 -1.9336  0.5548  1.7759
44298SOL     OW39751   2.010  10.467   1.926 -0.4938  0.1267  0.2188
44298SOL    HW139752   2.073  10.531   1.893  0.3892  0.4674  2.4051
44298SOL    HW239753   1.925  10.510   1.915 -0.2120  0.4026 -1.0879
44299SOL     OW39754   9.494   6.843  10.063  0.2402  0.2246  0.0739
44299SOL    HW139755   9.576   6.794  10.057  0.0076 -0.5690  2.5532
44299SOL    HW239756   9.518   6.925  10.104 -0.2698 -0.2537  1.3652
44300SOL     OW39757   5.996   9.921   6.102  0.3393 -0.4380 -0.2550
44300SOL    HW139758   5.958  10.001   6.139 -1.5887 -1.2515 -0.3427
44300SOL    HW239759   6.068   9.899   6.161 -2.4242 -1.5240  3.0024
44301SOL     OW39760   8.120   4.040   2.810  0.2338  0.6752  0.3717
44301SOL    HW139761   8.166   4.056   2.728 -0.1057  1.6202  0.3477
44301SOL    HW239762   8.120   4.125   2.854 -3.4126  1.3547 -0.6304
44302SOL     OW39763   5.196   1.814   2.557 -0.5181  0.3948 -0.2455
44302SOL    HW139764   5.224   1.790   2.646 -0.4849  0.7529 -0.1562
44302SOL    HW239765   5.122   1.874   2.571 -1.0635 -0.2132 -0.4740
44303SOL     OW39766   5.710   7.806   0.572  0.0409  0.7579  0.0417
44303SOL    HW139767   5.675   7.840   0.489 -0.2580 -0.1967 -0.2383
44303SOL    HW239768   5.632   7.779   0.621  0.3353 -1.2684 -0.5353
44304SOL     OW39769   3.172   2.180  11.093 -0.5387  0.1571 -0.0935
44304SOL    HW139770   3.135   2.125  11.162 -1.3833  0.9779  0.1134
44304SOL    HW239771   3.190   2.264  11.136  1.3673 -0.1241 -0.2386
44305SOL     OW39772   6.514   1.274   2.290 -0.4254 -0.1206 -0.2878
44305SOL    HW139773   6.462   1.214   2.344 -0.9737  2.6977  2.6418
44305SOL    HW239774   6.605   1.247   2.306 -0.7167 -1.7816 -1.2066
44306SOL     OW39775   4.407   8.051   4.102 -0.4835 -0.2498  0.1906
44306SOL    HW139776   4.474   7.982   4.104 -1.2511 -1.0053  1.4185
44306SOL    HW239777   4.454   8.131   4.128  0.1922 -0.5240 -0.1591
44307SOL     OW39778   3.395   3.367   8.762  0.1977  0.4230  0.2281
44307SOL    HW139779   3.401   3.456   8.799  2.7984  0.0284  0.9405
44307SOL    HW239780   3.327   3.374   8.695 -2.0720  2.0934  2.4878
44308SOL     OW39781   0.897   5.214   9.054 -0.3292 -0.4376 -0.1552
44308SOL    HW139782   0.831   5.234   8.987  0.7063  1.6042 -0.6613
44308SOL    HW239783   0.933   5.300   9.078  1.7677 -1.4219  0.4573
44309SOL     OW39784   5.803   6.574  10.830 -0.5192  0.7807 -0.3875
44309SOL    HW139785   5.713   6.544  10.818 -0.4444  0.2765  0.2534
44309SOL    HW239786   5.809   6.596  10.923  0.0705  0.6249 -0.3829
44310SOL     OW39787  10.333  10.689  12.537  0.0139  0.6073  0.2937
44310SOL    HW139788  10.379  10.750  12.480 -0.8392  0.2705 -0.7981
44310SOL    HW239789  10.246  10.681  12.498  0.3606 -1.9653 -0.1158
44311SOL     OW39790   9.553   0.552   2.564 -0.2713 -0.4651 -0.6255
44311SOL    HW139791   9.521   0.518   2.648  0.9015 -0.0188  0.0398
44311SOL    HW239792   9.481   0.605   2.530 -0.7281 -0.5707  0.1538
44312SOL     OW39793  11.593   3.213   9.408  0.3522 -0.5203  0.5207
44312SOL    HW139794  11.551   3.169   9.481 -1.7539  1.6171  0.7108
44312SOL    HW239795  11.621   3.298   9.443 -2.6337  1.4769 -1.4737
44313SOL     OW39796  11.774   3.552   3.444  0.0598  0.1153  0.3868
44313SOL    HW139797  11.850   3.563   3.386 -0.7074  2.5460 -0.2751
44313SOL    HW239798  11.718   3.627   3.425 -1.5922 -0.5400  2.2865
44314SOL     OW39799   7.090   5.229   7.508 -0.1741  0.3114  0.1799
44314SOL    HW139800   6.999   5.202   7.507 -0.3269  0.7829  0.8624
44314SOL    HW239801   7.140   5.147   7.498 -0.6634  0.1722 -1.4999
44315SOL     OW39802   5.472   1.913   6.217 -0.1980 -0.1667  0.5795
44315SOL    HW139803   5.443   1.833   6.261  1.3254  0.1532  2.2916
44315SOL    HW239804   5.429   1.984   6.265 -0.3015  0.1043  0.0890
44316SOL     OW39805   2.822   1.076   1.735  0.4543 -0.7326 -0.3349
44316SOL    HW139806   2.897   1.084   1.677  0.7474  0.4286  0.1660
44316SOL    HW239807   2.771   1.156   1.720 -0.4016 -1.2506 -0.2793
44317SOL     OW39808   2.988   0.141   4.349  0.0390  0.6350  0.0349
44317SOL    HW139809   2.965   0.201   4.420 -0.1035 -0.1275  0.6572
44317SOL    HW239810   2.969   0.054   4.385  0.4246  0.2075 -0.7705
44318SOL     OW39811   8.206  10.196   3.394 -0.3372  0.2005  0.6714
44318SOL    HW139812   8.258  10.271   3.421  0.4425 -0.3779  0.8118
44318SOL    HW239813   8.270  10.134   3.358 -1.0460 -0.1076 -0.1106
44319SOL     OW39814   2.738  10.660   4.648 -0.3132 -0.1960 -0.1928
44319SOL    HW139815   2.668  10.720   4.622 -0.6454  0.1982  1.4382
44319SOL    HW239816   2.709  10.574   4.616  0.4669  0.5310 -3.1044
44320SOL     OW39817   4.107   6.536   7.696 -0.3430 -0.4356  0.2805
44320SOL    HW139818   4.039   6.469   7.692  0.3315 -1.0838 -0.9159
44320SOL    HW239819   4.161   6.520   7.619  1.0735  0.1750  1.1127
44321SOL     OW39820   9.882   2.763   7.320  0.1901 -0.3554  0.1546
44321SOL    HW139821   9.954   2.823   7.300  0.7096 -1.6493 -2.1195
44321SOL    HW239822   9.829   2.761   7.241 -0.1548 -2.4005  0.3781
44322SOL     OW39823   1.976   3.203   3.154 -0.4225 -0.0583 -0.0310
44322SOL    HW139824   1.961   3.126   3.099 -0.8392 -0.0006 -0.0018
44322SOL    HW239825   1.893   3.250   3.153 -0.1649  0.4070 -0.0670
44323SOL     OW39826   3.727   5.945   6.237  0.1792  0.0621  0.1833
44323SOL    HW139827   3.639   5.932   6.272  0.0907  1.5568  0.6124
44323SOL    HW239828   3.750   6.034   6.263  1.1490  0.3147 -1.3760
44324SOL     OW39829   0.817   9.235   7.099 -0.1846  0.0833  0.1004
44324SOL    HW139830   0.872   9.208   7.172 -0.4654  0.7995  0.5804
44324SOL    HW239831   0.846   9.323   7.077 -0.1187 -0.1124 -0.6428
44325SOL     OW39832   3.838   4.698   6.510  0.4157  0.1523 -0.6712
44325SOL    HW139833   3.898   4.745   6.567  1.9855 -0.1862 -1.9817
44325SOL    HW239834   3.876   4.611   6.500 -0.2746 -0.0663 -1.5373
44326SOL     OW39835  11.241  12.208   1.900 -0.0371 -0.3343  0.4242
44326SOL    HW139836  11.242  12.207   1.805  0.0446  0.3936  0.4066
44326SOL    HW239837  11.201  12.292   1.923 -1.5946 -1.2072  1.0512
44327SOL     OW39838  10.260  11.351   1.989 -0.3310 -0.6254 -0.0793
44327SOL    HW139839  10.270  11.322   2.080 -0.0262 -2.7149 -0.7156
44327SOL    HW239840  10.202  11.285   1.949  1.7647 -1.4145 -2.0711
44328SOL     OW39841   5.942   2.940   9.561  0.5476 -0.7537  0.0103
44328SOL    HW139842   5.883   2.973   9.493  0.9381  2.9786  1.2746
44328SOL    HW239843   5.933   3.002   9.633  3.8351 -1.7166  1.4150
44329SOL     OW39844  11.781   1.346   8.293 -0.2355  0.3618  0.0852
44329SOL    HW139845  11.701   1.375   8.250  0.2058  0.1751 -0.9003
44329SOL    HW239846  11.851   1.393   8.246  0.3617 -0.9160 -0.3309
44330SOL     OW39847  11.527   5.017   1.488 -0.0158 -0.2628  0.6037
44330SOL    HW139848  11.500   5.040   1.577 -0.5664  1.1401  0.1029
44330SOL    HW239849  11.613   5.057   1.477 -0.0887 -0.1553  0.4080
44331SOL     OW39850   6.367   3.850  11.974  0.1348  0.2166  0.1155
44331SOL    HW139851   6.311   3.782  12.009 -1.6426  1.6963  0.3162
44331SOL    HW239852   6.433   3.804  11.922  0.0677 -1.7145  1.6549
44332SOL     OW39853   6.401   4.655   1.381 -0.1777  0.1940 -0.0861
44332SOL    HW139854   6.494   4.654   1.404  0.1823  0.8694 -1.4191
44332SOL    HW239855   6.358   4.695   1.457  0.6828  0.4096  0.3046
44333SOL     OW39856  10.240   9.654   8.608 -0.0462 -0.2150 -0.9355
44333SOL    HW139857  10.288   9.612   8.680  1.4700  1.3024 -0.9983
44333SOL    HW239858  10.212   9.582   8.552  0.4181 -1.2868  0.1693
44334SOL     OW39859   5.509   2.887   8.418  0.2578  0.0295  0.3691
44334SOL    HW139860   5.573   2.821   8.446 -0.1122  0.3985  2.2363
44334SOL    HW239861   5.433   2.872   8.474 -1.4055 -0.4900 -1.8959
44335SOL     OW39862   9.258  10.380   7.910 -0.5704  0.2944  0.3117
44335SOL    HW139863   9.327  10.340   7.963  0.0379 -0.8817 -1.2904
44335SOL    HW239864   9.292  10.379   7.821 -2.9522 -1.1073 -0.6955
44336SOL     OW39865  11.029   6.832   6.121 -0.3263 -0.6038  0.0223
44336SOL    HW139866  10.944   6.850   6.163  0.0447  0.0376  0.5333
44336SOL    HW239867  11.069   6.765   6.176 -0.0680 -0.1491  0.4030
44337SOL     OW39868   2.784   5.036   9.644 -0.0704  0.0372  0.4200
44337SOL    HW139869   2.709   5.085   9.677 -0.6133 -0.7200  0.3391
44337SOL    HW239870   2.787   5.056   9.551  1.1897  1.8187  0.7898
44338SOL     OW39871   4.308   1.680   8.500  0.1818  0.1071  0.1498
44338SOL    HW139872   4.249   1.605   8.492  0.7823 -0.5702  1.6226
44338SOL    HW239873   4.393   1.641   8.520  0.7554  1.1445 -0.2060
44339SOL     OW39874   5.107   8.361   8.629  0.3352 -0.8303 -0.0491
44339SOL    HW139875   5.124   8.377   8.536  1.4162  0.3653  0.3173
44339SOL    HW239876   5.053   8.434   8.657  0.9761 -0.5539  0.5055
44340SOL     OW39877   3.103   2.995   1.707 -0.0559 -0.1016 -0.2251
44340SOL    HW139878   3.178   2.964   1.657  0.6597 -1.9346  1.8005
44340SOL    HW239879   3.114   3.090   1.711  2.2228 -0.3162  0.0362
44341SOL     OW39880   2.457   2.864   9.122  0.0567 -0.3108  0.0026
44341SOL    HW139881   2.438   2.771   9.136 -1.0624 -0.0076  0.6948
44341SOL    HW239882   2.376   2.899   9.083  1.2804 -0.0705 -2.5036
44342SOL     OW39883  11.124  11.842  12.208  0.1517  0.0865 -0.0292
44342SOL    HW139884  11.180  11.765  12.215 -0.3774 -0.3187 -0.2215
44342SOL    HW239885  11.185  11.916  12.217  0.8269 -0.3258 -0.9674
44343SOL     OW39886   7.023  10.388   6.666  0.2121  0.0119 -0.4546
44343SOL    HW139887   7.031  10.384   6.761 -1.1635  0.4758 -0.2972
44343SOL    HW239888   6.955  10.324   6.644  0.7654 -0.3523 -1.1701
44344SOL     OW39889  11.303   5.918   5.830  0.3748 -0.1792  0.2270
44344SOL    HW139890  11.317   5.870   5.912 -1.0326  1.3470  1.4194
44344SOL    HW239891  11.359   5.873   5.766  0.5246 -2.2218  1.7004
44345SOL     OW39892   5.266  11.336   9.009  0.2237  0.4189  0.1054
44345SOL    HW139893   5.209  11.276   9.057 -0.3677 -1.0611 -2.2428
44345SOL    HW239894   5.210  11.410   8.987 -0.3454 -0.2375 -0.7205
44346SOL     OW39895   1.738   6.447  10.861 -0.0962 -0.3313  0.1120
44346SOL    HW139896   1.759   6.437  10.953  0.2354 -2.1238 -0.1285
44346SOL    HW239897   1.817   6.419  10.814 -0.4130  0.1160 -0.7133
44347SOL     OW39898  11.840   9.974   1.244 -0.1101  0.6702  0.2834
44347SOL    HW139899  11.844   9.984   1.149 -0.6379  0.7215  0.2589
44347SOL    HW239900  11.918  10.017   1.278  0.9280 -0.7435 -0.2310
44348SOL     OW39901   5.119   5.873   3.772 -0.3923  0.3436  0.0196
44348SOL    HW139902   5.180   5.812   3.730 -1.5327 -0.6594 -0.2509
44348SOL    HW239903   5.032   5.839   3.750 -1.0660  0.2531  2.4815
44349SOL     OW39904   5.785   5.154   0.665 -0.2585 -0.0553 -0.0162
44349SOL    HW139905   5.828   5.223   0.614 -1.4433 -0.6012 -1.8295
44349SOL    HW239906   5.847   5.135   0.736  1.2443  1.0410 -0.9782
44350SOL     OW39907  12.097   3.073   5.194 -0.3883 -0.3061  0.1077
44350SOL    HW139908  12.056   2.986   5.197 -1.6224  0.1905 -1.3945
44350SOL    HW239909  12.069   3.114   5.276 -3.1630  0.0670 -0.9048
44351SOL     OW39910  12.153   7.755   5.378 -0.3157 -0.4485 -0.4068
44351SOL    HW139911  12.168   7.846   5.405 -1.0528 -0.5562  0.3808
44351SOL    HW239912  12.058   7.747   5.374 -0.2466 -0.9641 -1.2765
44352SOL     OW39913   1.912  11.824  10.405 -0.0165  0.5440 -0.4071
44352SOL    HW139914   1.981  11.856  10.347 -0.0399  0.7011 -0.3492
44352SOL    HW239915   1.923  11.729  10.406  1.1598  0.6690  0.8108
44353SOL     OW39916   0.869   3.430  10.038 -0.2029 -0.3862 -0.2556
44353SOL    HW139917   0.824   3.514  10.048  0.5618  0.0968 -0.7578
44353SOL    HW239918   0.833   3.374  10.107 -3.2750 -0.7882 -1.9992
44354SOL     OW39919   1.723  10.536   4.148  0.1324 -0.5990  0.6725
44354SOL    HW139920   1.775  10.491   4.213 -1.5520 -0.5213  2.1426
44354SOL    HW239921   1.674  10.602   4.197 -0.7552 -0.1367 -0.7506
44355SOL     OW39922  12.315   1.951  11.719 -0.1621 -0.5076  0.0723
44355SOL    HW139923  12.333   2.044  11.726  2.8320 -1.0835  2.2742
44355SOL    HW239924  12.392   1.915  11.676 -0.7713 -2.0994  0.2379
44356SOL     OW39925  11.233  11.127   1.789  0.4900  0.1124 -0.4065
44356SOL    HW139926  11.285  11.069   1.845 -0.7069 -0.1087  0.5155
44356SOL    HW239927  11.290  11.145   1.714  2.6431  1.4227  1.4143
44357SOL     OW39928   3.332   3.683   3.056  0.6898  0.1834 -0.0769
44357SOL    HW139929   3.273   3.723   3.120  1.5088  0.8489  0.2827
44357SOL    HW239930   3.274   3.642   2.992 -0.1789  1.2137  0.0144
44358SOL     OW39931   8.209   2.413   1.143 -0.7383 -0.4342 -0.0774
44358SOL    HW139932   8.240   2.498   1.112 -0.5211 -0.4648  0.0561
44358SOL    HW239933   8.289   2.365   1.164 -0.9103  0.0666  1.8636
44359SOL     OW39934   6.291   3.117   8.445  0.3370  0.3539  0.0407
44359SOL    HW139935   6.240   3.100   8.524 -1.4084 -3.1041 -1.6199
44359SOL    HW239936   6.382   3.107   8.472  0.0117  2.3780  2.1772
44360SOL     OW39937   0.324   0.018  10.242 -0.4371  0.0135 -0.4730
44360SOL    HW139938   0.254   0.045  10.302 -2.0557 -1.8360 -1.4249
44360SOL    HW239939   0.336  -0.075  10.260  1.1464  0.0937 -0.9978
44361SOL     OW39940   8.266   2.906   9.645 -0.0353 -0.0754 -0.1081
44361SOL    HW139941   8.192   2.958   9.613  0.0536 -0.9735 -1.8678
44361SOL    HW239942   8.234   2.815   9.644  1.3678 -0.6013 -1.8730
44362SOL     OW39943  11.660   2.195   8.016 -0.2081  0.1159  0.7470
44362SOL    HW139944  11.727   2.139   8.055  1.0361  0.1017 -1.2375
44362SOL    HW239945  11.577   2.152   8.036  0.3767 -0.1592  2.8071
44363SOL     OW39946   1.929   5.462   7.827  0.6890  0.0932  0.6475
44363SOL    HW139947   1.847   5.467   7.877  0.0733 -1.6936 -0.0954
44363SOL    HW239948   1.912   5.513   7.748 -0.1625 -1.1763 -0.0305
44364SOL     OW39949   9.367  12.000   5.371  0.5359 -0.1185 -0.1731
44364SOL    HW139950   9.274  12.022   5.360  0.3680 -0.8752 -0.2779
44364SOL    HW239951   9.404  12.006   5.283  0.5031 -0.1979 -0.1923
44365SOL     OW39952   9.014   2.690   1.308 -0.5449  0.4641  0.3439
44365SOL    HW139953   8.999   2.769   1.359  0.4756  0.4374  0.6991
44365SOL    HW239954   9.062   2.631   1.367  1.5772  0.8198 -0.8971
44366SOL     OW39955   7.166   7.353  11.537  0.0984  0.4012  0.2671
44366SOL    HW139956   7.217   7.353  11.619 -1.0922  2.9378  1.1414
44366SOL    HW239957   7.075   7.364  11.566 -0.4904  0.1390 -1.3853
44367SOL     OW39958  10.597   2.540   3.558  0.0109  0.6353 -0.2359
44367SOL    HW139959  10.538   2.615   3.546 -0.9631  0.5508  3.2157
44367SOL    HW239960  10.542   2.471   3.595  1.8898 -0.0007  1.5664
44368SOL     OW39961   7.003   8.916   2.978 -0.2855  0.5136  0.1334
44368SOL    HW139962   7.009   8.892   3.070 -2.3884 -0.2256  0.1296
44368SOL    HW239963   6.974   9.008   2.979 -1.2501  0.2233  0.2502
44369SOL     OW39964   2.196   7.082   3.117  0.0883  1.1428 -0.5128
44369SOL    HW139965   2.190   7.041   3.031  1.6116 -2.3054  0.8566
44369SOL    HW239966   2.284   7.120   3.119  1.1294 -1.1655  0.3707
44370SOL     OW39967   2.941   5.406   9.435 -0.3685 -0.0062  0.9383
44370SOL    HW139968   2.849   5.406   9.461 -1.0266  0.0692 -1.1947
44370SOL    HW239969   2.947   5.338   9.368  1.2310 -0.2894  1.3372
44371SOL     OW39970  12.000   2.970   2.146 -0.1934 -0.1309  0.2276
44371SOL    HW139971  11.977   3.027   2.073 -1.9272 -0.1341  0.7403
44371SOL    HW239972  12.009   3.029   2.221  0.2908 -0.2754  0.2879
44372SOL     OW39973  11.458  10.526   1.780 -0.3121  0.2368  0.5425
44372SOL    HW139974  11.512  10.447   1.774 -1.0342 -0.1343 -2.5902
44372SOL    HW239975  11.403  10.511   1.857  2.0988 -0.5696  2.2371
44373SOL     OW39976   5.751  10.647   1.100  0.5570  0.4243 -0.1540
44373SOL    HW139977   5.765  10.731   1.058 -0.0534  1.4019  1.4849
44373SOL    HW239978   5.692  10.666   1.173 -0.4843 -1.6156 -0.3711
44374SOL     OW39979   7.853   0.238  12.486  0.6320  0.6117  0.1200
44374SOL    HW139980   7.939   0.268  12.458  0.8150 -2.2225 -3.0124
44374SOL    HW239981   7.871   0.165  12.546  0.3196  1.3746  1.1757
44375SOL     OW39982   5.620   6.433   6.167 -0.2066  0.3206 -0.2673
44375SOL    HW139983   5.526   6.415   6.173 -0.6525  2.3734 -0.2607
44375SOL    HW239984   5.629   6.522   6.201  1.1377  1.7811 -3.9142
44376SOL     OW39985   1.982  11.675   8.223  0.0743 -0.4609  0.3729
44376SOL    HW139986   2.021  11.685   8.310  1.5324 -0.1045 -0.2995
44376SOL    HW239987   2.020  11.746   8.171 -3.1249  1.3154  0.1944
44377SOL     OW39988   1.450  11.169   3.372  0.2926  0.4614  0.4533
44377SOL    HW139989   1.492  11.254   3.382  1.6053 -0.2838  1.6094
44377SOL    HW239990   1.356  11.188   3.378  0.2476  2.3010 -3.1853
44378SOL     OW39991  11.288  10.450   7.898  0.1630 -0.4590 -0.2726
44378SOL    HW139992  11.229  10.423   7.968 -0.7104 -0.0314 -0.8352
44378SOL    HW239993  11.245  10.422   7.817 -0.4625  1.9294 -0.8453
44379SOL     OW39994  11.000   9.830   2.909  0.0203  0.1169 -0.7704
44379SOL    HW139995  10.973   9.909   2.861 -1.6202 -0.0387 -0.1580
44379SOL    HW239996  11.029   9.770   2.841 -2.9558 -0.3733 -1.7526
44380SOL     OW39997   5.324   0.909   7.763 -0.0624  0.2891 -0.4617
44380SOL    HW139998   5.406   0.941   7.726 -0.0391 -0.6750 -1.2815
44380SOL    HW239999   5.318   0.952   7.848  1.3471  0.2915 -0.3416
44381SOL     OW40000   3.397   0.116   2.276 -0.3800  0.5658  0.2972
44381SOL    HW140001   3.486   0.094   2.302 -0.0273  0.2822 -1.0866
44381SOL    HW240002   3.407   0.181   2.208 -0.9578 -2.5072 -3.0230
44382SOL     OW40003   5.656  12.022  11.371  0.2797 -0.3614  0.3164
44382SOL    HW140004   5.725  12.079  11.337 -0.2362  0.5385  0.7357
44382SOL    HW240005   5.579  12.043  11.319  0.5315 -2.0991 -0.8491
44383SOL     OW40006   8.034   1.151  10.463 -0.1904 -0.0596  0.2929
44383SOL    HW140007   8.077   1.074  10.426 -2.3203 -1.5093  0.6831
44383SOL    HW240008   7.940   1.132  10.455 -0.7515  1.3588  2.7318
44384SOL     OW40009  11.699  11.834   1.784  0.0554 -0.5191 -0.3473
44384SOL    HW140010  11.768  11.774   1.756 -0.8138 -1.2287 -1.0330
44384SOL    HW240011  11.618  11.795   1.751 -0.7374  0.0396  0.8483
44385SOL     OW40012   6.740   0.205   7.870  0.0446  1.0148  0.2101
44385SOL    HW140013   6.686   0.280   7.895  0.0347  1.4967 -1.1734
44385SOL    HW240014   6.773   0.227   7.783  0.3694 -0.4211 -0.0581
44386SOL     OW40015   5.272   0.927   4.299  0.1426 -0.1242  0.4805
44386SOL    HW140016   5.303   0.986   4.230 -1.2240  0.8967  0.7018
44386SOL    HW240017   5.338   0.934   4.368 -0.2653  1.6264  0.7376
44387SOL     OW40018   3.969  12.117   5.910 -0.3361 -0.1512  0.0806
44387SOL    HW140019   4.000  12.207   5.900 -0.8537 -0.0279 -0.4567
44387SOL    HW240020   3.953  12.086   5.821 -0.7620 -0.5587  0.2889
44388SOL     OW40021   1.949   3.560  10.751  0.3943  0.5337  0.1722
44388SOL    HW140022   1.922   3.524  10.666  0.9715 -0.6108  0.4593
44388SOL    HW240023   2.045   3.559  10.748  0.4155  0.6754  0.7644
44389SOL     OW40024  11.063  10.299  10.847  0.1078 -0.4214  0.2783
44389SOL    HW140025  11.091  10.341  10.766 -0.9610 -1.0830 -0.4608
44389SOL    HW240026  11.106  10.349  10.916  1.6067 -0.2781 -0.7179
44390SOL     OW40027   7.830   2.897   5.283 -0.1091 -0.6268  0.4396
44390SOL    HW140028   7.772   2.961   5.241  1.2570 -1.5992 -3.3720
44390SOL    HW240029   7.784   2.873   5.364 -2.1181  2.8292  0.5367
44391SOL     OW40030   4.721   8.421   0.993  0.0800 -0.0880 -0.6924
44391SOL    HW140031   4.731   8.472   0.912  1.6609  0.3023 -0.2739
44391SOL    HW240032   4.774   8.467   1.057 -1.6402 -0.0409  0.7733
44392SOL     OW40033   5.729   5.093   9.467 -0.1099 -0.2995 -0.5126
44392SOL    HW140034   5.692   5.180   9.477 -1.8154 -1.1597  1.2689
44392SOL    HW240035   5.667   5.035   9.510  1.9904 -2.1876  0.2013
44393SOL     OW40036  12.005   4.480  12.001 -1.1840  0.1751  0.1055
44393SOL    HW140037  11.965   4.515  12.081  0.5571  1.1871  0.5812
44393SOL    HW240038  12.099   4.478  12.020 -0.7735  0.0050 -1.7705
44394SOL     OW40039   5.978   6.287   6.269 -0.6234 -0.2795  0.2652
44394SOL    HW140040   6.054   6.245   6.228 -0.0521  0.0564  0.9600
44394SOL    HW240041   5.998   6.286   6.362 -1.2484  0.2761  0.4097
44395SOL     OW40042   2.800   8.322   6.336 -0.3625 -0.0535  0.2514
44395SOL    HW140043   2.751   8.314   6.254 -2.1869 -1.5680  1.3879
44395SOL    HW240044   2.845   8.238   6.346 -0.3600  0.0188  0.9079
44396SOL     OW40045  11.379  10.565   0.695  0.3479 -0.5633 -0.4253
44396SOL    HW140046  11.406  10.648   0.655  0.2425 -1.1154 -1.6520
44396SOL    HW240047  11.286  10.557   0.674 -0.0850 -0.1618  1.1881
44397SOL     OW40048   0.720  10.423   0.685 -0.3197 -0.3006  0.1368
44397SOL    HW140049   0.677  10.479   0.620  0.4688  0.6947  0.4339
44397SOL    HW240050   0.813  10.429   0.662 -0.2307 -1.5587  0.1410
44398SOL     OW40051   4.600   9.576   4.511  0.3047  0.0132 -0.8010
44398SOL    HW140052   4.609   9.510   4.580  4.0072 -0.9151 -1.9006
44398SOL    HW240053   4.554   9.531   4.440  0.7457 -0.6688 -0.6684
44399SOL     OW40054   2.481   9.485   1.398 -0.4510  0.1850  0.4623
44399SOL    HW140055   2.506   9.473   1.306  0.6142 -2.1008  0.9786
44399SOL    HW240056   2.408   9.547   1.395 -0.0291  0.6690 -1.8541
44400SOL     OW40057   0.746   8.373   6.095 -0.6972 -0.5331  0.2414
44400SOL    HW140058   0.672   8.318   6.069 -0.9723 -0.4247  0.7771
44400SOL    HW240059   0.717   8.414   6.176 -0.4634  0.3329 -0.0997
44401SOL     OW40060   2.838   2.659  12.207  0.2095 -0.1190  0.0883
44401SOL    HW140061   2.869   2.701  12.127 -0.8623  0.3280 -0.1069
44401SOL    HW240062   2.908   2.673  12.271 -0.6022  3.2223  0.4577
44402SOL     OW40063   6.755  10.322   5.399 -0.6771  0.0552  0.2463
44402SOL    HW140064   6.675  10.277   5.375 -1.3889  0.9749  0.8415
44402SOL    HW240065   6.820  10.252   5.406 -2.0061 -1.0855  2.2864
44403SOL     OW40066   2.327   8.764   3.227  0.1813  0.4285  0.1966
44403SOL    HW140067   2.399   8.724   3.276  2.4721  2.0864 -1.6299
44403SOL    HW240068   2.319   8.711   3.148  0.2914  1.0107 -0.2082
44404SOL     OW40069  10.223   0.734   8.529 -0.2296  0.8030  0.4630
44404SOL    HW140070  10.129   0.750   8.517 -0.6080 -0.6075  1.2973
44404SOL    HW240071  10.253   0.699   8.446 -1.0192 -1.1199  0.9420
44405SOL     OW40072   1.009   6.793   9.220  0.7203 -0.2831  0.0763
44405SOL    HW140073   0.917   6.770   9.208  0.4734  0.8221 -0.1994
44405SOL    HW240074   1.031   6.756   9.306 -0.7096  1.5725  1.3192
44406SOL     OW40075  11.807  10.030  10.396 -0.4513 -0.4864 -0.0865
44406SOL    HW140076  11.886   9.979  10.409  0.5700  0.9126 -0.4941
44406SOL    HW240077  11.805  10.091  10.470  1.2872  2.4035 -2.1883
44407SOL     OW40078  10.280   3.917   8.825 -0.6061 -0.8215  0.6124
44407SOL    HW140079  10.265   3.934   8.732  0.3123 -0.4453  0.5258
44407SOL    HW240080  10.204   3.864   8.852 -2.6756  1.8502  0.4649
44408SOL     OW40081   4.784  12.158   5.976 -0.2914 -0.8393 -0.8519
44408SOL    HW140082   4.768  12.067   5.951 -0.3001 -0.5863 -1.8013
44408SOL    HW240083   4.825  12.152   6.062 -1.2012 -1.6940 -0.4538
44409SOL     OW40084   9.519   8.430   8.291 -0.6147 -0.2940  0.1151
44409SOL    HW140085   9.474   8.486   8.354  0.0037 -0.6700  0.9060
44409SOL    HW240086   9.514   8.342   8.329 -0.2015 -0.5180 -0.3391
44410SOL     OW40087   6.531   0.450  10.620  0.2323  0.5478  0.1317
44410SOL    HW140088   6.587   0.377  10.647 -1.4440 -0.5907  0.6875
44410SOL    HW240089   6.539   0.513  10.692  0.2173  0.0639  0.5635
44411SOL     OW40090   9.854   6.748   9.616  0.6190 -0.1280  0.1310
44411SOL    HW140091   9.884   6.759   9.706  0.8832  0.1811  0.0054
44411SOL    HW240092   9.929   6.710   9.571  0.5405 -0.1323  0.0047
44412SOL     OW40093   9.564   5.566  11.849  0.1152 -0.1939  0.0397
44412SOL    HW140094   9.588   5.640  11.905 -1.7514 -1.2315  2.3825
44412SOL    HW240095   9.643   5.513  11.842  2.2001  2.8750 -3.4685
44413SOL     OW40096   7.626   9.563   1.851  0.1029 -0.2197 -0.6726
44413SOL    HW140097   7.622   9.473   1.820  0.0210 -0.8993  1.2063
44413SOL    HW240098   7.708   9.569   1.900 -0.2627  0.4947 -0.1193
44414SOL     OW40099   6.175   5.867   8.406  0.0307  0.2906  0.1134
44414SOL    HW140100   6.206   5.791   8.455 -0.9695 -0.1113  0.1280
44414SOL    HW240101   6.113   5.911   8.464  0.3980  0.9800  0.0042
44415SOL     OW40102   7.525   1.484   4.202  0.2330  0.2107  0.0847
44415SOL    HW140103   7.570   1.532   4.272  1.2847  0.9929 -1.0958
44415SOL    HW240104   7.569   1.399   4.199 -0.2008 -0.0494  0.7367
44416SOL     OW40105   2.980   3.376   8.717  0.1508 -0.2226  0.5232
44416SOL    HW140106   2.892   3.338   8.719 -0.6582  1.4557 -0.8454
44416SOL    HW240107   3.031   3.315   8.662 -1.1749  0.6509 -1.8205
44417SOL     OW40108   5.547   9.038   2.958 -0.3137 -0.6071  0.3375
44417SOL    HW140109   5.501   9.121   2.948  0.1728 -0.3382  0.2838
44417SOL    HW240110   5.569   9.035   3.051  0.3711 -0.2906  0.1930
44418SOL     OW40111   3.706   2.655   1.503 -0.3594 -0.4663  0.4754
44418SOL    HW140112   3.785   2.654   1.448  0.4725 -0.2816  1.6164
44418SOL    HW240113   3.701   2.567   1.539 -0.6605 -0.4684  0.4269
44419SOL     OW40114  10.634  12.313  10.551  0.5992  0.3318  0.0772
44419SOL    HW140115  10.682  12.299  10.470 -1.2595 -0.6729 -0.9058
44419SOL    HW240116  10.639  12.229  10.597 -1.1763 -0.2029 -0.6170
44420SOL     OW40117   6.847  12.299   3.327  0.0838  0.7182  0.3755
44420SOL    HW140118   6.824  12.305   3.235  1.0370  0.1459  0.0936
44420SOL    HW240119   6.932  12.342   3.334  0.5126 -0.1835  0.7947
44421SOL     OW40120   8.628  11.792   6.172  0.1918  0.2896  0.9357
44421SOL    HW140121   8.554  11.732   6.175 -0.1072  0.5531 -0.6180
44421SOL    HW240122   8.596  11.872   6.213 -0.0519  0.0649  1.1862
44422SOL     OW40123   9.579  12.156   8.092 -0.7238  0.4432 -0.3481
44422SOL    HW140124   9.643  12.226   8.074  0.9610 -1.0328 -0.4369
44422SOL    HW240125   9.497  12.189   8.055 -0.2985  2.8323  0.6056
44423SOL     OW40126   4.344   6.079  11.718 -0.2625  0.3405 -0.0379
44423SOL    HW140127   4.275   6.015  11.700  0.7117 -0.7225 -0.0640
44423SOL    HW240128   4.386   6.048  11.798 -0.9923  2.0089  1.0610
44424SOL     OW40129  11.656   7.169  12.107 -0.0403 -0.1999  0.1164
44424SOL    HW140130  11.625   7.084  12.078  0.9877 -0.8516  0.8346
44424SOL    HW240131  11.640   7.170  12.201 -2.2833  1.4140 -0.2043
44425SOL     OW40132   5.270   0.165   5.323 -0.9760  1.0420  0.2747
44425SOL    HW140133   5.203   0.117   5.372 -0.8950  0.9255  0.2731
44425SOL    HW240134   5.350   0.155   5.375  0.2673 -2.8146 -1.8891
44426SOL     OW40135   2.165   8.255   7.701 -0.4263  0.3836 -0.9465
44426SOL    HW140136   2.161   8.343   7.738 -2.3648 -0.0367 -0.0319
44426SOL    HW240137   2.195   8.199   7.773 -0.9295  0.0495 -0.9877
44427SOL     OW40138   2.026   9.943  11.002  0.2265  0.7761 -0.2245
44427SOL    HW140139   2.077   9.863  11.012  1.9635  1.8935  0.3409
44427SOL    HW240140   1.955   9.919  10.942  1.1022 -0.9721 -0.6376
44428SOL     OW40141   5.765   6.642  12.465  0.3314 -0.3065 -0.2305
44428SOL    HW140142   5.812   6.721  12.436  0.7778 -0.2887  0.5314
44428SOL    HW240143   5.718   6.670  12.544  1.6690 -1.1653  0.9116
44429SOL     OW40144   6.964   2.244   7.405 -0.3689 -0.5157 -0.1235
44429SOL    HW140145   7.052   2.277   7.390 -0.1774  0.5131  2.5889
44429SOL    HW240146   6.942   2.275   7.493 -3.1842 -1.3256 -0.4439
44430SOL     OW40147   9.254   5.766   1.789 -0.5306 -0.3710 -0.0081
44430SOL    HW140148   9.239   5.683   1.744 -1.0828  0.6481 -1.7535
44430SOL    HW240149   9.319   5.811   1.735  0.6402 -0.1015  1.5446
44431SOL     OW40150   0.692   7.164  11.722  0.0333 -0.5289  0.7299
44431SOL    HW140151   0.777   7.177  11.764  1.9208 -0.3881 -2.6883
44431SOL    HW240152   0.680   7.242  11.668 -1.5145 -1.2614 -0.0535
44432SOL     OW40153  12.551  11.307  11.909  0.1006 -0.0181 -0.1102
44432SOL    HW140154  12.470  11.357  11.906  0.2032  0.1757  0.2900
44432SOL    HW240155  12.548  11.251  11.831 -1.4463 -1.6119  1.0217
44433SOL     OW40156   7.513   0.322   5.274  0.2020  0.1858 -0.1880
44433SOL    HW140157   7.439   0.368   5.315  0.8925  1.2028 -0.0440
44433SOL    HW240158   7.586   0.384   5.281  0.6290 -0.0877 -1.9091
44434SOL     OW40159   6.425   0.367   2.461  0.6405  0.0393  0.0848
44434SOL    HW140160   6.362   0.434   2.434  1.0203  0.5520  0.4520
44434SOL    HW240161   6.450   0.323   2.379 -0.4417 -0.4045 -0.0267
44435SOL     OW40162   6.601   0.133   8.211 -0.5552 -0.1894 -0.0112
44435SOL    HW140163   6.616   0.174   8.126 -0.7971 -1.6902 -0.8095
44435SOL    HW240164   6.611   0.039   8.195  0.5732 -0.4470  1.8755
44436SOL     OW40165   1.146   4.415   8.960 -0.3044  0.2527 -0.7018
44436SOL    HW140166   1.223   4.364   8.984  0.0646  0.2986 -1.7282
44436SOL    HW240167   1.170   4.506   8.980 -0.1154  0.2583 -0.9500
44437SOL     OW40168  10.580   7.579   1.440  0.2182  0.5612 -0.1791
44437SOL    HW140169  10.577   7.669   1.409  0.5959  0.9283  0.8350
44437SOL    HW240170  10.590   7.527   1.360 -0.9193  1.3357 -0.8694
44438SOL     OW40171   6.004   2.845   6.961  0.2699 -0.4719  0.1584
44438SOL    HW140172   6.095   2.838   6.991  0.6985  2.4320 -0.2213
44438SOL    HW240173   6.009   2.846   6.866  0.0088  1.0774  0.1420
44439SOL     OW40174   2.985   7.463  12.112 -0.0718 -0.6860  0.2641
44439SOL    HW140175   2.892   7.480  12.094  0.4365  1.8764 -0.3747
44439SOL    HW240176   3.003   7.381  12.067 -1.7285 -0.5654 -0.7293
44440SOL     OW40177  11.157   4.018   3.100 -0.1620 -0.1647 -0.3040
44440SOL    HW140178  11.126   4.104   3.129 -0.2107 -0.7282  1.4540
44440SOL    HW240179  11.238   4.004   3.149  1.3338 -0.0064 -2.5947
44441SOL     OW40180   5.582   5.028  10.493 -0.3156 -0.0377  0.6402
44441SOL    HW140181   5.662   4.987  10.525  1.0139  1.3559 -0.7029
44441SOL    HW240182   5.569   5.103  10.551  0.7875  1.1427 -0.5556
44442SOL     OW40183   5.264   9.526   8.312  0.2557 -0.3045  0.1595
44442SOL    HW140184   5.244   9.591   8.378  0.0850  0.3423 -0.5187
44442SOL    HW240185   5.359   9.517   8.315  0.0756 -2.4376  2.4932
44443SOL     OW40186   5.164   3.745   9.876 -0.3391 -0.0370  0.2745
44443SOL    HW140187   5.091   3.807   9.865  1.0526  1.5024 -0.8034
44443SOL    HW240188   5.212   3.751   9.794 -1.5279 -4.5708 -1.0234
44444SOL     OW40189   4.980   6.984  10.944  0.4386  0.0036 -0.5146
44444SOL    HW140190   4.953   7.046  11.012 -1.6473  0.3004 -1.5260
44444SOL    HW240191   4.992   6.901  10.990 -1.8348 -0.0259  0.1320
44445SOL     OW40192  12.513   5.930   7.672  0.0232  0.0392  0.1080
44445SOL    HW140193  12.580   5.880   7.719  0.9904  0.9236 -0.3019
44445SOL    HW240194  12.496   6.006   7.727 -0.4668 -0.0504  0.0881
44446SOL     OW40195  11.725   2.679   7.676 -0.1638 -0.0321 -0.3917
44446SOL    HW140196  11.642   2.687   7.722  0.3039 -0.6136  0.5811
44446SOL    HW240197  11.707   2.710   7.587 -1.1111  1.0081  0.1411
44447SOL     OW40198   8.084  11.722   8.267  0.2513 -0.0233 -0.4630
44447SOL    HW140199   8.081  11.815   8.247  1.3704  0.2164  0.3442
44447SOL    HW240200   8.016  11.683   8.213 -0.6687  1.3476 -0.3417
44448SOL     OW40201   2.654   7.380   7.025 -0.4101 -0.3506 -0.5599
44448SOL    HW140202   2.578   7.337   6.986  0.9161 -1.2724 -2.2902
44448SOL    HW240203   2.716   7.309   7.039  0.6139  0.5584 -0.4052
44449SOL     OW40204   8.840   1.547   8.342 -0.0969  0.7706  0.3919
44449SOL    HW140205   8.915   1.605   8.335  1.2238 -0.9321 -0.4961
44449SOL    HW240206   8.813   1.552   8.434  2.0810  0.3077  1.1021
44450SOL     OW40207   4.538   7.664   0.132 -0.3500 -0.1533 -0.1205
44450SOL    HW140208   4.485   7.690   0.207  0.1445 -2.2639  1.0378
44450SOL    HW240209   4.476   7.625   0.070 -0.3441 -1.6899  0.7920
44451SOL     OW40210   3.809  11.708   6.703 -0.5961 -0.3184 -0.4266
44451SOL    HW140211   3.860  11.779   6.663 -0.2131 -0.4345 -0.1512
44451SOL    HW240212   3.870  11.667   6.764 -1.2688  0.0558  0.5190
44452SOL     OW40213   8.448   2.716   4.040  0.4461  0.7047 -0.0029
44452SOL    HW140214   8.394   2.637   4.041 -0.3876  1.2377  2.5110
44452SOL    HW240215   8.538   2.683   4.033  0.1509 -0.5138  1.4541
44453SOL     OW40216   0.658   5.151   3.038  0.0806 -0.2763  0.3182
44453SOL    HW140217   0.702   5.079   2.994 -1.5820 -1.2507  0.1733
44453SOL    HW240218   0.667   5.225   2.978  0.5436 -0.7566 -0.2156
44454SOL     OW40219   7.714   6.960  10.844  0.2506  0.1761  0.0423
44454SOL    HW140220   7.779   6.944  10.912 -0.8109 -3.3241  0.4438
44454SOL    HW240221   7.633   6.978  10.891  0.2359  1.3379 -0.3978
44455SOL     OW40222   7.176   9.634   7.214 -0.3144  0.0355  0.3268
44455SOL    HW140223   7.111   9.572   7.180  0.9437 -0.5579 -1.1212
44455SOL    HW240224   7.205   9.596   7.297 -0.1548 -0.8968 -0.1441
44456SOL     OW40225  10.883   5.156   6.252 -0.1399  0.0985  0.2218
44456SOL    HW140226  10.837   5.235   6.278  0.5393  0.8708 -0.8554
44456SOL    HW240227  10.898   5.166   6.158  0.2866 -1.1309  0.1413
44457SOL     OW40228  11.420   1.657  10.091  0.1012  0.1457  0.2026
44457SOL    HW140229  11.514   1.668  10.079  0.4038 -1.1733  1.1506
44457SOL    HW240230  11.412   1.592  10.161 -1.5185  0.6728  0.5586
44458SOL     OW40231  12.508  10.113   4.251  0.1613 -0.4184  0.0699
44458SOL    HW140232  12.415  10.091   4.241 -0.3003  0.9202  1.2042
44458SOL    HW240233  12.544  10.042   4.305 -0.2168 -0.8790 -0.2758
44459SOL     OW40234  10.760  10.831   2.901  0.1510 -0.1454  0.3276
44459SOL    HW140235  10.764  10.833   2.806  3.1709  0.1039  0.3625
44459SOL    HW240236  10.739  10.920   2.927 -1.3056 -0.3475 -0.0624
44460SOL     OW40237   9.705   9.231  11.071  0.6000  0.1131  0.6237
44460SOL    HW140238   9.729   9.154  11.019 -1.1176  0.0401 -0.1306
44460SOL    HW240239   9.628   9.203  11.120 -1.2657  1.8513 -1.1129
44461SOL     OW40240   2.832   2.297   5.318  0.1399 -0.0771 -0.0979
44461SOL    HW140241   2.871   2.349   5.387 -1.9034 -0.1651  1.2264
44461SOL    HW240242   2.879   2.322   5.238  1.2121  1.5226  0.9867
44462SOL     OW40243   3.222   2.434   7.083 -0.4111 -0.5132  0.2630
44462SOL    HW140244   3.233   2.343   7.055 -0.2601 -0.1494 -0.9464
44462SOL    HW240245   3.285   2.483   7.030  0.9626  0.0877  2.3367
44463SOL     OW40246   2.062   6.041   5.917 -0.3698  0.2095 -0.1720
44463SOL    HW140247   2.082   6.120   5.867 -0.9344  0.8862  0.6299
44463SOL    HW240248   2.061   5.971   5.852 -1.0734  1.0571 -1.1049
44464SOL     OW40249   1.663   0.477   2.355  0.5026 -0.8516  0.4420
44464SOL    HW140250   1.656   0.572   2.350 -0.8511 -1.0031 -1.7345
44464SOL    HW240251   1.738   0.456   2.299  1.3164 -1.0348  1.5785
44465SOL     OW40252   8.869   6.427   2.844  0.0187  0.3184 -0.0404
44465SOL    HW140253   8.852   6.371   2.920 -0.3147 -0.7409 -0.8648
44465SOL    HW240254   8.782   6.458   2.819  0.0642  0.2243 -0.3137
44466SOL     OW40255   7.761   9.374  12.196 -0.4503 -0.2218  0.8903
44466SOL    HW140256   7.711   9.299  12.228 -1.5398 -0.2679 -0.8110
44466SOL    HW240257   7.843   9.371  12.246 -1.3010 -1.3249  2.3018
44467SOL     OW40258  12.402   9.211   0.334  0.0495 -0.6025  0.0693
44467SOL    HW140259  12.316   9.252   0.331  0.3376  0.0398  0.2701
44467SOL    HW240260  12.386   9.118   0.321 -0.6693 -0.4825  0.0970
44468SOL     OW40261   7.525   1.369   9.143 -0.0254 -0.1383  0.5642
44468SOL    HW140262   7.534   1.284   9.186  0.2315 -0.2605  0.2749
44468SOL    HW240263   7.447   1.361   9.089 -0.0404 -0.1675  0.5907
44469SOL     OW40264   6.316   8.662   4.092  0.5501  0.1311  0.1196
44469SOL    HW140265   6.225   8.685   4.077  0.3336 -0.0731  1.1135
44469SOL    HW240266   6.343   8.715   4.167  0.7929 -0.9227  0.7991
44470SOL     OW40267   3.747   9.018   9.870  0.2777 -0.3859 -0.4614
44470SOL    HW140268   3.831   8.997   9.912 -0.6626 -0.3323  1.5358
44470SOL    HW240269   3.758   9.108   9.839  1.6517 -1.0712 -2.1392
44471SOL     OW40270   7.392   7.453   1.763 -0.2787  0.0892  0.4054
44471SOL    HW140271   7.313   7.401   1.747  0.5826 -1.1376 -0.0111
44471SOL    HW240272   7.391   7.519   1.694 -0.5811 -0.3672 -0.0415
44472SOL     OW40273   5.548   3.747   5.708 -0.4141 -0.1287  0.0684
44472SOL    HW140274   5.469   3.709   5.670 -0.2013 -0.4802 -0.0269
44472SOL    HW240275   5.616   3.735   5.642  0.3711 -2.2575  1.1516
44473SOL     OW40276   0.213   8.289   9.039 -0.3162 -0.0031 -0.3299
44473SOL    HW140277   0.137   8.338   9.007 -0.0615 -0.0071 -0.9637
44473SOL    HW240278   0.272   8.356   9.074  0.1758  0.1971 -1.4923
44474SOL     OW40279   5.076   7.764   7.398  0.0904  0.0880 -0.8055
44474SOL    HW140280   5.058   7.834   7.336 -2.0133  0.0530 -0.3250
44474SOL    HW240281   4.994   7.713   7.401  0.6612 -0.8052  0.8333
44475SOL     OW40282   9.656   0.253   8.265 -0.2376  0.2387 -0.4083
44475SOL    HW140283   9.651   0.307   8.344  0.7254 -2.1188  1.4108
44475SOL    HW240284   9.750   0.250   8.245 -0.2183 -0.9904 -0.2267
44476SOL     OW40285   7.183   6.471  12.110  0.0510 -0.2267 -0.4464
44476SOL    HW140286   7.124   6.534  12.069 -0.7728 -0.3763  0.4701
44476SOL    HW240287   7.236   6.438  12.038  0.0554  1.0251 -1.0511
44477SOL     OW40288   5.263   7.081  11.552 -0.7037  0.4155  0.4616
44477SOL    HW140289   5.323   7.096  11.624  0.7713 -1.5976 -0.2296
44477SOL    HW240290   5.259   7.165  11.505  0.7944  0.8817  1.1116
44478SOL     OW40291   8.978   6.748   5.419  0.3597 -0.3506  0.0516
44478SOL    HW140292   9.017   6.663   5.399 -0.4638 -0.8091  0.3572
44478SOL    HW240293   9.004   6.766   5.509  0.0104 -0.5768  0.1986
44479SOL     OW40294   7.496  10.407   1.386  0.0476 -0.2762 -0.2478
44479SOL    HW140295   7.489  10.394   1.292 -2.6063  0.9328 -0.3118
44479SOL    HW240296   7.407  10.394   1.419  1.0580 -1.6022  2.2677
44480SOL     OW40297   0.974   7.232   8.091 -0.1034  0.1147  0.1467
44480SOL    HW140298   0.931   7.216   8.175 -0.3792  1.3717  0.2726
44480SOL    HW240299   0.901   7.243   8.030  0.0653  0.7734  0.0621
44481SOL     OW40300  11.104   5.935   7.862  0.1354  0.3261 -0.4580
44481SOL    HW140301  11.108   6.028   7.841 -0.0967  0.0557 -1.7657
44481SOL    HW240302  11.117   5.890   7.778 -2.7453 -0.7917 -0.3996
44482SOL     OW40303   5.237   6.146   1.193  0.1957 -0.0737 -0.3724
44482SOL    HW140304   5.150   6.114   1.217  0.3626 -0.3854 -0.1693
44482SOL    HW240305   5.246   6.230   1.239  0.6523 -0.8317  0.9972
44483SOL     OW40306  10.479  10.905  12.121  0.0107  0.0366  0.1517
44483SOL    HW140307  10.449  10.868  12.038  1.6592  1.0309 -0.9357
44483SOL    HW240308  10.513  10.991  12.098  1.1580  0.0460  1.7481
44484SOL     OW40309   0.087  10.715   3.775 -0.5942 -0.0991 -0.8235
44484SOL    HW140310   0.007  10.685   3.733 -0.3124 -1.0465 -0.7124
44484SOL    HW240311   0.097  10.658   3.851 -0.8139  1.2389  0.2402
44485SOL     OW40312   6.211   4.500   3.839  0.2112  0.1175  0.2364
44485SOL    HW140313   6.233   4.455   3.921  0.2021  2.1635  1.4357
44485SOL    HW240314   6.128   4.544   3.858 -0.7503 -0.8426 -1.5228
44486SOL     OW40315  11.187   1.766   5.941 -0.2106  0.5320  0.1792
44486SOL    HW140316  11.148   1.849   5.969  0.5463  1.2017 -0.6783
44486SOL    HW240317  11.114   1.715   5.909 -0.6413  1.0213  0.3633
44487SOL     OW40318   3.911  12.555   7.560 -0.0489 -0.3645  0.0567
44487SOL    HW140319   3.928  12.629   7.503  0.2862 -0.7308 -0.3220
44487SOL    HW240320   3.845  12.503   7.513  1.4493 -1.5553 -0.8156
44488SOL     OW40321   5.495   6.653  11.543  0.2474  0.0863 -0.0226
44488SOL    HW140322   5.533   6.648  11.455 -1.5477  1.7212 -0.9722
44488SOL    HW240323   5.401   6.661  11.528 -0.0771  0.7585  2.0388
44489SOL     OW40324   7.666   2.659   3.829  0.2698 -0.1382  0.7055
44489SOL    HW140325   7.589   2.624   3.784  1.2596  0.6280 -1.7366
44489SOL    HW240326   7.696   2.587   3.884 -2.1357 -0.4586  1.7327
44490SOL     OW40327   7.831   3.450   2.063 -0.0279 -0.0160  0.0574
44490SOL    HW140328   7.787   3.531   2.085  0.1593  0.3836 -0.9780
44490SOL    HW240329   7.848   3.407   2.147  0.3288  1.2525  0.6514
44491SOL     OW40330   0.017   3.470   5.735  0.2815 -0.0016  0.9069
44491SOL    HW140331   0.061   3.523   5.801  0.7624 -0.3728  0.8887
44491SOL    HW240332  -0.047   3.419   5.784 -0.5314  0.9477  0.8631
44492SOL     OW40333   8.628   0.675   3.739 -0.1589  0.1879  0.0720
44492SOL    HW140334   8.535   0.677   3.715 -0.2264  2.3401  0.2930
44492SOL    HW240335   8.673   0.707   3.660  0.2367  0.6694  0.4843
44493SOL     OW40336  10.873   9.258   7.585  0.0528 -1.1235 -0.1294
44493SOL    HW140337  10.918   9.299   7.659  1.5241 -1.2826 -0.8859
44493SOL    HW240338  10.893   9.316   7.511 -2.0032 -0.5566 -0.3110
44494SOL     OW40339   3.502  10.046   3.048  0.3014 -0.0796  0.7069
44494SOL    HW140340   3.512  10.063   3.142 -1.7592  0.4508  0.8751
44494SOL    HW240341   3.478  10.131   3.011 -0.9368 -0.7071  0.0424
44495SOL     OW40342   6.796  11.283   6.483 -0.7203  0.0335  0.3953
44495SOL    HW140343   6.769  11.191   6.488 -0.3904 -0.0573  0.5954
44495SOL    HW240344   6.748  11.319   6.409 -0.6132 -0.3844  0.1201
44496SOL     OW40345   1.668   4.215   1.299 -0.5386 -0.1064  0.8730
44496SOL    HW140346   1.588   4.262   1.275 -0.6125 -0.8033 -0.3443
44496SOL    HW240347   1.657   4.194   1.392 -1.5005  0.3163  0.8675
44497SOL     OW40348   4.305  11.291   1.018  0.3865  0.1206 -0.0440
44497SOL    HW140349   4.262  11.376   1.021 -1.2177 -0.6096  3.2752
44497SOL    HW240350   4.398  11.310   1.009 -0.0708  2.1172 -0.9078
44498SOL     OW40351   9.453  10.812   6.880  0.0702  0.2263 -0.7831
44498SOL    HW140352   9.536  10.776   6.910 -0.4063  0.6766  1.1991
44498SOL    HW240353   9.476  10.870   6.807  1.5156  0.5349 -0.1007
44499SOL     OW40354   9.462   2.786  10.003  0.2339 -0.2898  0.3881
44499SOL    HW140355   9.455   2.690  10.003  0.9475 -0.3689 -1.3434
44499SOL    HW240356   9.399   2.815   9.938 -0.4328  0.4840  1.3539
44500SOL     OW40357   5.132  12.542   2.849  0.2793  0.2664  0.1453
44500SOL    HW140358   5.050  12.589   2.867  0.0995  0.5721 -1.3059
44500SOL    HW240359   5.105  12.451   2.834  0.4475 -0.0199  1.4783
44501SOL     OW40360   6.257  10.316   8.875 -0.5226 -1.0091 -0.4691
44501SOL    HW140361   6.331  10.366   8.839 -2.0296  0.8707 -1.1092
44501SOL    HW240362   6.270  10.319   8.970 -0.1156 -0.1631 -0.5443
44502SOL     OW40363   2.598   7.883   4.875  0.0285  0.3659 -0.2332
44502SOL    HW140364   2.558   7.885   4.962  1.1083 -1.0152  0.3292
44502SOL    HW240365   2.528   7.853   4.817 -0.1162 -0.7788  0.5190
44503SOL     OW40366   6.330   7.065   9.636 -0.2084 -0.1746  0.2036
44503SOL    HW140367   6.389   6.994   9.662 -0.1795  0.2393  1.3389
44503SOL    HW240368   6.244   7.023   9.629  0.1383 -0.7146 -1.1370
44504SOL     OW40369  10.191   8.407   3.961  0.1027 -0.0470 -1.0665
44504SOL    HW140370  10.250   8.482   3.968  0.8657 -0.6421 -0.9985
44504SOL    HW240371  10.248   8.331   3.967 -0.9203 -0.7099  1.7692
44505SOL     OW40372   7.980   6.385   4.824  0.8093  0.3899  0.0009
44505SOL    HW140373   7.982   6.425   4.911  0.0294  0.9430 -0.2270
44505SOL    HW240374   7.888   6.364   4.809  0.8751  0.6690 -0.8569
44506SOL     OW40375   7.739  11.485   9.243  0.0103  0.1299 -0.3526
44506SOL    HW140376   7.651  11.498   9.280  1.2333  0.4075  2.7788
44506SOL    HW240377   7.751  11.560   9.184 -0.6023  2.1866  1.9312
44507SOL     OW40378   6.832   2.901   7.421 -0.0204  0.4103 -0.6228
44507SOL    HW140379   6.810   2.848   7.344  0.0197  0.7536 -0.8718
44507SOL    HW240380   6.769   2.973   7.419  0.2899  0.6817 -0.6046
44508SOL     OW40381  12.506   2.834   4.177  0.5427 -0.5126 -0.3376
44508SOL    HW140382  12.482   2.776   4.104 -1.2080  0.6052 -0.6957
44508SOL    HW240383  12.532   2.916   4.136 -0.2391  0.0541  0.2572
44509SOL     OW40384   0.838   6.528  10.832  0.1123  0.0347 -1.2617
44509SOL    HW140385   0.767   6.544  10.895  2.1747  2.1749  0.7728
44509SOL    HW240386   0.906   6.485  10.884  1.1792  0.1745 -2.5054
44510SOL     OW40387   2.822   4.672   5.282 -0.0395 -0.1235 -0.2710
44510SOL    HW140388   2.774   4.699   5.204 -0.9969 -2.4664 -0.5834
44510SOL    HW240389   2.909   4.710   5.271 -1.0413  2.0995 -0.9480
44511SOL     OW40390   6.114   1.616   9.035  0.0653 -0.2627  0.1210
44511SOL    HW140391   6.206   1.629   9.057 -0.1071  1.2524  0.0510
44511SOL    HW240392   6.091   1.690   8.979 -0.8895 -1.2619 -0.9019
44512SOL     OW40393   8.877   2.214   4.897 -0.1221 -0.5695 -0.4508
44512SOL    HW140394   8.796   2.247   4.935  0.5020  0.2496  0.1995
44512SOL    HW240395   8.856   2.198   4.805 -0.9391 -0.0836 -0.3529
44513SOL     OW40396   5.861   6.870  10.590  0.4282  0.9729 -0.4284
44513SOL    HW140397   5.789   6.807  10.590  1.3762 -0.2064  1.7185
44513SOL    HW240398   5.938   6.818  10.567  0.8139  1.9705 -1.4969
44514SOL     OW40399  10.063   1.964   5.049  0.1462  0.4009  0.1174
44514SOL    HW140400  10.044   2.052   5.015 -2.0924  0.2539  0.8205
44514SOL    HW240401  10.120   1.980   5.124  1.1897  1.0882 -0.7844
44515SOL     OW40402   8.373   7.564   4.524 -0.3719 -0.2858 -0.4996
44515SOL    HW140403   8.344   7.635   4.581 -1.6574  0.1594 -1.6594
44515SOL    HW240404   8.348   7.484   4.571 -1.1697  0.0672 -0.3131
44516SOL     OW40405   7.883   4.070   1.950  0.2577 -0.0357  0.5831
44516SOL    HW140406   7.913   4.160   1.944  1.2806 -0.4316 -0.7872
44516SOL    HW240407   7.908   4.031   1.866 -1.3627 -1.2414  0.6122
44517SOL     OW40408   4.046   9.004   5.121 -0.0921  0.2387 -0.2870
44517SOL    HW140409   4.085   9.081   5.162  1.0921 -0.0940 -0.7449
44517SOL    HW240410   3.980   8.975   5.184 -0.0125  1.1702  0.2456
44518SOL     OW40411   8.704  12.575   9.840  0.4422 -0.3948  0.1548
44518SOL    HW140412   8.793  12.609   9.825  0.4216 -0.4601 -0.1300
44518SOL    HW240413   8.656  12.601   9.761  0.1344 -0.1020  0.4416
44519SOL     OW40414   7.076   8.633   4.551 -0.1126  0.3951 -0.3100
44519SOL    HW140415   7.017   8.679   4.610 -0.9247  0.1756 -0.9244
44519SOL    HW240416   7.017   8.586   4.491  0.6766 -1.0898  0.0290
44520SOL     OW40417   8.882   6.217   5.870 -0.0200  0.3680  0.1156
44520SOL    HW140418   8.894   6.181   5.958 -0.8424  0.1244  0.1416
44520SOL    HW240419   8.823   6.292   5.883 -1.2033 -0.4409 -0.3661
44521SOL     OW40420   5.247   5.642   4.722  0.5463  0.6641 -0.8238
44521SOL    HW140421   5.226   5.650   4.629 -1.4187  0.7723 -0.4135
44521SOL    HW240422   5.318   5.577   4.725 -1.3424 -1.6242 -2.1759
44522SOL     OW40423   3.161  10.663  12.216 -0.5935  0.2879 -0.6989
44522SOL    HW140424   3.149  10.568  12.224  1.1582  0.0259 -0.7614
44522SOL    HW240425   3.167  10.678  12.121 -1.6876  0.5956 -0.7325
44523SOL     OW40426   5.202   4.144   5.535 -0.1322 -0.0973 -0.1218
44523SOL    HW140427   5.215   4.227   5.580  2.0390 -0.1998 -0.4548
44523SOL    HW240428   5.118   4.154   5.489 -1.7826  0.4950  2.7287
44524SOL     OW40429   8.777   5.649   2.438  0.3601  0.3960  0.1065
44524SOL    HW140430   8.834   5.688   2.503  0.5464  1.2136 -0.5366
44524SOL    HW240431   8.737   5.574   2.483 -0.0710  1.3534  1.3872
44525SOL     OW40432   0.369   6.205  12.358 -0.0691  0.1007  0.1478
44525SOL    HW140433   0.296   6.247  12.313  0.2417  0.8196  0.3076
44525SOL    HW240434   0.445   6.224  12.304 -0.1974 -1.9552 -0.8588
44526SOL     OW40435   2.747   6.164   5.153 -0.6879  0.0890  0.1585
44526SOL    HW140436   2.727   6.255   5.173 -1.1224  0.3457 -1.3341
44526SOL    HW240437   2.842   6.158   5.160 -0.6931  0.5374  0.6880
44527SOL     OW40438   9.390   8.390   9.075 -0.8906  0.1007 -0.0028
44527SOL    HW140439   9.376   8.315   9.132 -0.0300 -0.0035  0.0858
44527SOL    HW240440   9.317   8.448   9.093 -1.6378 -0.7636 -0.1592
44528SOL     OW40441   8.673  12.060  11.935 -0.8265  0.1653 -0.5779
44528SOL    HW140442   8.600  12.000  11.926  0.7334 -1.7539 -1.3424
44528SOL    HW240443   8.751  12.004  11.925  0.7638  1.9645  0.9445
44529SOL     OW40444   5.187   6.209  10.363  0.4274 -0.3463 -0.2723
44529SOL    HW140445   5.278   6.225  10.338 -0.5970  1.8740 -3.1159
44529SOL    HW240446   5.157   6.140  10.302  0.1999 -1.1687  0.7409
44530SOL     OW40447   8.511   4.052   0.586  0.3730  0.2883 -0.3552
44530SOL    HW140448   8.502   4.050   0.681  1.1284  1.5929 -0.2378
44530SOL    HW240449   8.601   4.026   0.570  0.8705  1.9982 -0.5598
44531SOL     OW40450  10.997   9.023   6.649  0.1663 -0.4717  0.0499
44531SOL    HW140451  11.043   8.991   6.571  0.9349  1.5205 -0.3686
44531SOL    HW240452  10.920   8.966   6.656 -0.7376  0.1784 -3.0251
44532SOL     OW40453   9.404   6.543   2.052 -0.4798  0.1109 -0.2213
44532SOL    HW140454   9.328   6.596   2.026  0.0123  1.7421  1.4237
44532SOL    HW240455   9.367   6.457   2.072 -1.8986  0.8367  0.4438
44533SOL     OW40456   6.739   8.949   9.851 -0.0492  0.2656  0.1517
44533SOL    HW140457   6.769   8.977   9.938  1.4989  0.8084 -0.5297
44533SOL    HW240458   6.710   9.030   9.809 -0.7007  0.0164  0.1134
44534SOL     OW40459   5.602  10.844   3.377  0.2878 -0.5923  0.7035
44534SOL    HW140460   5.524  10.887   3.343  0.1414 -0.9303  0.6109
44534SOL    HW240461   5.608  10.874   3.468  0.0344 -0.5883  0.7193
44535SOL     OW40462  10.317  12.308  11.342 -0.0807  0.5341 -0.1694
44535SOL    HW140463  10.293  12.216  11.350 -1.9494  1.0359  0.3968
44535SOL    HW240464  10.323  12.323  11.248 -2.6138  0.4815 -0.3958
44536SOL     OW40465   6.311   7.411   6.315  0.5019 -0.0943  0.0259
44536SOL    HW140466   6.344   7.489   6.361 -1.3761 -1.0196  3.2356
44536SOL    HW240467   6.337   7.338   6.370 -0.8886 -1.4343 -1.0190
44537SOL     OW40468   9.975   2.508   8.436  0.1085 -0.1315  0.0803
44537SOL    HW140469   9.894   2.549   8.469 -0.6242 -1.6022  0.1954
44537SOL    HW240470  10.020   2.578   8.390 -1.4695  0.6184 -0.3936
44538SOL     OW40471  10.685   4.234   0.532 -0.1868 -0.9342  0.0035
44538SOL    HW140472  10.764   4.183   0.547  1.8701  1.9764 -0.1039
44538SOL    HW240473  10.643   4.192   0.456  1.6009 -2.1582 -0.3627
44539SOL     OW40474   0.685   0.956   4.202  0.6054 -0.5282 -0.1819
44539SOL    HW140475   0.644   1.037   4.171  1.9269  0.2711  0.0636
44539SOL    HW240476   0.623   0.887   4.179 -1.3933  0.7203  1.2471
44540SOL     OW40477   9.319   9.832  10.922 -0.2327  0.5836 -0.7470
44540SOL    HW140478   9.401   9.798  10.959 -0.9538 -0.5562 -0.1427
44540SOL    HW240479   9.337   9.925  10.906  0.9017  0.5518  0.1776
44541SOL     OW40480   9.622   5.086   9.441 -0.0685  0.1862 -0.1769
44541SOL    HW140481   9.584   5.084   9.529 -0.3142  0.8890 -0.2576
44541SOL    HW240482   9.690   5.020   9.442 -0.1855  0.0716  0.4917
44542SOL     OW40483   8.259   5.327  12.562 -0.7671  0.1137 -0.3849
44542SOL    HW140484   8.347   5.364  12.564 -1.1592  1.1031 -0.7666
44542SOL    HW240485   8.211   5.376  12.629 -1.1451 -0.1073 -0.4903
44543SOL     OW40486   2.629   2.531  12.344 -0.2008 -0.1149  0.1414
44543SOL    HW140487   2.593   2.617  12.367  3.0382  0.8981  2.1704
44543SOL    HW240488   2.713   2.551  12.304  1.8810 -2.2390  3.0312
44544SOL     OW40489   7.136   0.925   0.980 -0.3424  0.3242 -0.0101
44544SOL    HW140490   7.132   0.848   1.038  0.3190 -0.2518 -0.7118
44544SOL    HW240491   7.214   0.972   1.008 -0.5895  0.5929  0.2319
44545SOL     OW40492   5.597   7.049  10.086 -0.1122  0.0191  0.1428
44545SOL    HW140493   5.657   7.009  10.022  1.9101  2.6869  0.1874
44545SOL    HW240494   5.541   7.107  10.035 -3.4717 -3.0062 -0.0117
44546SOL     OW40495   2.358   8.330   6.705  0.3120 -0.8644  0.4056
44546SOL    HW140496   2.381   8.403   6.762  0.0652  0.7959 -1.4942
44546SOL    HW240497   2.438   8.277   6.701  0.8255 -0.1678  1.0515
44547SOL     OW40498   9.348   2.371  12.469 -0.4757  0.2235  0.2582
44547SOL    HW140499   9.410   2.406  12.406  0.2788  1.6147  1.7251
44547SOL    HW240500   9.386   2.287  12.495 -0.2656  0.1217 -0.3513
44548SOL     OW40501  11.912   4.398   6.192  0.2742  0.0156 -0.4658
44548SOL    HW140502  11.979   4.342   6.152  0.2805  1.3859 -2.5772
44548SOL    HW240503  11.911   4.476   6.136 -0.4509  1.6841  1.7275
44549SOL     OW40504   4.913   6.564   3.767 -0.1711 -0.0932  0.1832
44549SOL    HW140505   4.976   6.545   3.698 -0.2041 -0.7643  0.3360
44549SOL    HW240506   4.927   6.657   3.787 -0.0963  0.0814 -0.6479
44550SOL     OW40507   4.270  11.942   4.125 -0.3331  0.1770 -0.1839
44550SOL    HW140508   4.331  12.000   4.172 -1.3077 -0.3153  1.8258
44550SOL    HW240509   4.205  12.002   4.088 -0.0173  0.5349 -0.1734
44551SOL     OW40510  10.480   9.769   6.219 -0.0294 -0.4959 -0.0808
44551SOL    HW140511  10.416   9.823   6.172  0.0727  0.4826  0.8530
44551SOL    HW240512  10.498   9.696   6.160 -0.8765  0.0066 -0.9937
44552SOL     OW40513   7.087   2.916  11.957 -0.0950 -0.2595 -0.0355
44552SOL    HW140514   7.142   2.845  11.988 -0.7393 -1.1186 -0.7977
44552SOL    HW240515   7.040   2.947  12.035 -0.2283 -1.0502  0.2031
44553SOL     OW40516   1.486   7.899   6.305 -0.8607  0.3235 -0.3719
44553SOL    HW140517   1.426   7.945   6.364 -0.1003  1.3063 -0.3448
44553SOL    HW240518   1.572   7.914   6.342 -0.5197 -0.4343 -0.8390
44554SOL     OW40519   7.144   9.518   9.917  0.0913  0.3520  0.4425
44554SOL    HW140520   7.226   9.478   9.945 -0.8758 -0.7142  1.9208
44554SOL    HW240521   7.163   9.611   9.913  1.3273  0.1489  0.9339
44555SOL     OW40522   7.584  11.596   8.286 -0.3191 -0.4586 -0.4262
44555SOL    HW140523   7.510  11.536   8.276  0.3431 -1.3716 -0.0388
44555SOL    HW240524   7.550  11.667   8.340 -1.1187 -0.4980 -0.8715
44556SOL     OW40525  12.151   8.762   6.989 -0.0589 -0.5020  0.2052
44556SOL    HW140526  12.197   8.684   7.020  2.1255 -0.2258 -2.0494
44556SOL    HW240527  12.169   8.766   6.895 -0.6150  2.3691  0.1044
44557SOL     OW40528  12.432   4.534  11.138  0.4253 -0.6094  0.2365
44557SOL    HW140529  12.400   4.576  11.058  0.8841 -1.1548 -0.2488
44557SOL    HW240530  12.375   4.457  11.149  0.9635 -1.0664 -0.1096
44558SOL     OW40531   7.861   2.683  10.916  0.6271  0.2953  0.8224
44558SOL    HW140532   7.881   2.747  10.984  0.5480  0.4797  0.6729
44558SOL    HW240533   7.829   2.606  10.964 -1.6592  1.2219  0.9067
44559SOL     OW40534   3.647   7.127   8.639 -0.0400 -0.6622 -0.4058
44559SOL    HW140535   3.642   7.044   8.687 -1.2040  0.4281  1.4940
44559SOL    HW240536   3.557   7.160   8.641  0.7516  1.6098  0.7443
44560SOL     OW40537   4.592   9.238   8.358 -0.5693 -0.3003 -0.3288
44560SOL    HW140538   4.531   9.310   8.369 -2.0182 -1.6925  1.3098
44560SOL    HW240539   4.542   9.172   8.309  0.5872 -0.3982 -1.4401
44561SOL     OW40540   5.699   0.474   6.468 -0.4960  0.3091  0.1495
44561SOL    HW140541   5.675   0.391   6.427 -1.3881  0.4700  0.3038
44561SOL    HW240542   5.762   0.513   6.409  0.3398 -0.7147  0.3385
44562SOL     OW40543   2.339   9.569   4.253  0.1020  0.3972 -0.3330
44562SOL    HW140544   2.350   9.660   4.225 -0.1276  0.0221 -1.7272
44562SOL    HW240545   2.245   9.557   4.261  0.1481  0.3897  0.2877
44563SOL     OW40546  10.176   7.620   7.653 -0.0262 -0.1678  0.3268
44563SOL    HW140547  10.226   7.701   7.649 -1.0609  0.4529 -1.5117
44563SOL    HW240548  10.207   7.569   7.578 -0.6808 -0.6547  0.3757
44564SOL     OW40549   7.917   8.449   2.356  0.0442 -0.1164 -0.1765
44564SOL    HW140550   7.822   8.452   2.371 -0.0150 -0.1933 -0.5334
44564SOL    HW240551   7.954   8.496   2.431 -0.2684 -0.1964  0.0323
44565SOL     OW40552   2.809   2.177   9.590 -0.1870 -0.0819 -0.1999
44565SOL    HW140553   2.890   2.228   9.601 -0.2646  0.0859 -0.3976
44565SOL    HW240554   2.773   2.170   9.678  2.1950 -3.7700  0.7048
44566SOL     OW40555   1.734   9.610   3.529  0.2606  0.1045 -0.6832
44566SOL    HW140556   1.693   9.531   3.495  0.1519 -0.1279 -0.0331
44566SOL    HW240557   1.809   9.624   3.472  0.2859 -0.4780 -0.8031
44567SOL     OW40558   9.729   0.543   7.553 -0.3265  0.1941  0.0272
44567SOL    HW140559   9.738   0.518   7.645 -1.6950  0.5613  0.2822
44567SOL    HW240560   9.731   0.639   7.554  1.0891  0.1864 -0.5030
44568SOL     OW40561   7.345  11.045   7.414  0.1416 -0.2366 -0.1005
44568SOL    HW140562   7.343  10.967   7.358  0.9925 -1.0424  0.9528
44568SOL    HW240563   7.261  11.088   7.397 -0.4006 -1.4346 -0.6323
44569SOL     OW40564  11.390   8.387   2.819 -0.0007  0.5392 -0.3049
44569SOL    HW140565  11.336   8.439   2.761 -0.3235 -0.3783 -0.8471
44569SOL    HW240566  11.402   8.304   2.773  0.1224 -0.0350  0.7273
44570SOL     OW40567  11.118   8.666   2.913 -0.0387  1.2652 -0.6331
44570SOL    HW140568  11.172   8.744   2.929 -0.9533  2.0885 -1.4732
44570SOL    HW240569  11.174   8.609   2.861  0.9923  0.9137  0.7896
44571SOL     OW40570   5.481   4.700  11.055 -0.0487 -0.1662  0.0648
44571SOL    HW140571   5.563   4.672  11.016  1.2962  1.1499  1.7668
44571SOL    HW240572   5.423   4.718  10.981  1.3415 -0.6469 -1.1771
44572SOL     OW40573   9.928   3.576   6.095  0.1398  0.1312  0.0993
44572SOL    HW140574   9.973   3.609   6.173  0.2735  1.4773 -0.5205
44572SOL    HW240575   9.838   3.608   6.105  0.7011  2.3843 -1.4050
44573SOL     OW40576   0.156   5.549  10.640 -0.4410  0.4709  0.2182
44573SOL    HW140577   0.208   5.571  10.563  1.7268 -1.3455  1.0606
44573SOL    HW240578   0.114   5.466  10.619  0.0111  0.0590  0.8799
44574SOL     OW40579   7.221   1.109   3.299  0.0831 -0.1875  0.1647
44574SOL    HW140580   7.176   1.159   3.231  1.3200  2.7475  1.3466
44574SOL    HW240581   7.165   1.117   3.376  1.2275  1.2038  0.9052
44575SOL     OW40582   3.828   9.904   1.557  0.0693  0.3662  0.6375
44575SOL    HW140583   3.852   9.954   1.635 -0.4459 -0.4153  1.3168
44575SOL    HW240584   3.882   9.825   1.560 -0.6777 -0.1543  0.7713
44576SOL     OW40585   4.825   9.491  11.636 -0.4062  0.0276  0.5209
44576SOL    HW140586   4.761   9.420  11.642 -0.0550 -0.3773 -0.3725
44576SOL    HW240587   4.887   9.473  11.706  0.4904 -1.3841 -0.5920
44577SOL     OW40588  12.312   3.095   6.563 -0.1019 -0.1847 -0.7332
44577SOL    HW140589  12.324   3.171   6.506 -1.8829  0.5597 -0.2003
44577SOL    HW240590  12.308   3.132   6.651 -2.8363 -0.5789 -0.5852
44578SOL     OW40591   4.251   8.380   0.312  0.1376  0.3838 -0.2292
44578SOL    HW140592   4.279   8.376   0.221  1.3618  1.9204  0.0265
44578SOL    HW240593   4.158   8.399   0.308  0.0428 -0.2004 -1.1395
44579SOL     OW40594   1.910   5.662   5.949 -0.6250  0.0011  0.1309
44579SOL    HW140595   1.991   5.611   5.958  0.0537  1.1693  1.0388
44579SOL    HW240596   1.904   5.711   6.032 -1.6120  0.8534 -0.4239
44580SOL     OW40597   2.312   1.299   7.219  0.3667  0.2722  0.0904
44580SOL    HW140598   2.318   1.368   7.154  1.0112  2.0339  1.9327
44580SOL    HW240599   2.379   1.236   7.194  0.2785  0.6732 -1.1926
44581SOL     OW40600   3.047   5.563   0.104 -0.1620  0.6697  0.2008
44581SOL    HW140601   3.113   5.562   0.174 -1.2205  1.4271  1.2596
44581SOL    HW240602   3.034   5.471   0.081  2.0009  0.5602 -0.7770
44582SOL     OW40603   3.196   1.955   0.865 -1.0271  0.5383 -0.0192
44582SOL    HW140604   3.286   1.979   0.843 -1.0387 -1.4163 -2.6235
44582SOL    HW240605   3.143   2.028   0.833 -0.4693  1.2699  0.6885
44583SOL     OW40606   0.128   8.178   4.311  0.1890  0.1779  0.4378
44583SOL    HW140607   0.175   8.216   4.236 -0.7879  1.4789  0.4422
44583SOL    HW240608   0.168   8.218   4.388 -0.2338  0.5187  0.4885
44584SOL     OW40609   6.271  11.981   4.523  0.1055 -0.8911  0.3753
44584SOL    HW140610   6.306  12.044   4.460 -1.2925 -0.6757 -0.2313
44584SOL    HW240611   6.271  12.029   4.607 -0.4933 -0.2359  0.0120
44585SOL     OW40612   5.838   9.179   3.838 -0.0637 -0.5439 -0.0131
44585SOL    HW140613   5.773   9.122   3.879  0.3114 -0.1339  1.1955
44585SOL    HW240614   5.919   9.128   3.837  0.4488  0.1840  1.7180
44586SOL     OW40615   0.839   7.512   0.171  0.0067  0.3202  0.3328
44586SOL    HW140616   0.893   7.581   0.210 -0.3843  2.0477 -2.0006
44586SOL    HW240617   0.856   7.435   0.226  1.1703  1.9964  2.4788
44587SOL     OW40618   9.892   7.091   9.655  0.6807  0.2874 -0.5948
44587SOL    HW140619   9.908   6.997   9.660  0.0056  0.1962 -0.1254
44587SOL    HW240620   9.807   7.099   9.612  0.5697  0.6712 -0.3103
44588SOL     OW40621   3.466   2.204   8.923 -0.4356 -0.4368 -0.4744
44588SOL    HW140622   3.408   2.175   8.853 -0.4493 -0.0713 -0.6172
44588SOL    HW240623   3.414   2.196   9.003 -1.1212  1.0373 -0.7326
44589SOL     OW40624   5.191   3.956  12.224  0.7254 -0.3512  0.4677
44589SOL    HW140625   5.107   3.946  12.179  1.4094 -0.4402 -0.8549
44589SOL    HW240626   5.205   4.051  12.227  1.0611 -0.3624 -0.3067
44590SOL     OW40627   5.735   2.800   9.653  0.1851 -0.0770 -0.0527
44590SOL    HW140628   5.822   2.823   9.620  0.8482 -1.0813  0.9643
44590SOL    HW240629   5.704   2.732   9.593  0.6072 -0.5683  0.2803
44591SOL     OW40630   6.224   3.721  10.472  0.2335  0.0083  0.1947
44591SOL    HW140631   6.188   3.661  10.406  0.1035 -1.7392  1.7635
44591SOL    HW240632   6.215   3.673  10.554  2.7009  1.0728  1.1580
44592SOL     OW40633   3.489   3.434   6.675 -0.4210 -0.5047 -0.3480
44592SOL    HW140634   3.563   3.452   6.732 -0.1880 -1.1094 -0.4521
44592SOL    HW240635   3.461   3.520   6.643 -0.3608 -0.1927  0.4297
44593SOL     OW40636   4.122   7.054   0.326 -0.7547  0.1890  0.4844
44593SOL    HW140637   4.082   7.015   0.403 -0.8600  0.0017  0.3373
44593SOL    HW240638   4.054   7.048   0.258 -0.4020 -0.3450  0.1657
44594SOL     OW40639   5.203  10.224  10.850 -0.3063 -0.2525  0.0728
44594SOL    HW140640   5.186  10.247  10.759 -0.2212  0.4344  0.2269
44594SOL    HW240641   5.150  10.285  10.901  0.3662 -0.0128  0.5002
44595SOL     OW40642   2.586   9.125  10.528 -0.3271 -0.3253  0.1367
44595SOL    HW140643   2.499   9.112  10.489 -0.4108  1.7243 -0.5013
44595SOL    HW240644   2.595   9.055  10.592 -2.5353 -0.4950  0.3380
44596SOL     OW40645   5.674  12.392   4.034 -0.2931  0.4986 -0.5070
44596SOL    HW140646   5.635  12.309   4.060  0.1397  0.3201 -0.4057
44596SOL    HW240647   5.768  12.375   4.034 -0.2562  0.6665 -1.6198
44597SOL     OW40648   0.804   5.628   3.442  0.1488 -0.1782 -0.5090
44597SOL    HW140649   0.718   5.654   3.474  0.0935 -0.9812  0.0293
44597SOL    HW240650   0.815   5.537   3.472  2.4077  0.7864  2.1013
44598SOL     OW40651   3.666   5.844   0.909 -0.2933 -0.3204 -0.0288
44598SOL    HW140652   3.695   5.824   0.820  0.7624 -2.0648  0.6375
44598SOL    HW240653   3.725   5.793   0.965 -1.3459  0.2116  1.6520
44599SOL     OW40654   1.608   3.489   1.458  0.5541 -0.4229  0.3353
44599SOL    HW140655   1.669   3.494   1.383 -0.1229  1.0712 -0.1567
44599SOL    HW240656   1.528   3.529   1.426  0.2218  0.1877  1.8467
44600SOL     OW40657   4.532   5.580   2.839 -0.5571 -0.1448  0.1968
44600SOL    HW140658   4.613   5.627   2.817 -0.2520 -0.5783  0.3877
44600SOL    HW240659   4.471   5.649   2.864 -0.3719  0.2166 -0.3331
44601SOL     OW40660   5.884   2.584   1.462 -0.3997 -0.2852 -0.1250
44601SOL    HW140661   5.856   2.526   1.392  0.2197  0.1581 -0.7478
44601SOL    HW240662   5.940   2.529   1.517  1.5929  0.1157 -1.6494
44602SOL     OW40663  11.516   7.232   5.322 -0.5395  0.0916  0.4892
44602SOL    HW140664  11.478   7.199   5.241  1.5338 -1.1195 -0.0537
44602SOL    HW240665  11.472   7.181   5.391  0.0188 -1.2640 -0.1196
44603SOL     OW40666   7.264   8.822   0.189 -0.3129 -0.1258  0.1738
44603SOL    HW140667   7.213   8.753   0.232 -1.6782  0.3728 -0.5592
44603SOL    HW240668   7.290   8.880   0.260  0.0860 -0.9094  0.6845
44604SOL     OW40669   2.186   1.825  10.870  0.7541  0.2609  0.5543
44604SOL    HW140670   2.141   1.751  10.911  0.8242 -0.2051 -0.1922
44604SOL    HW240671   2.247   1.784  10.809  0.4670  0.9569 -0.2068
44605SOL     OW40672   1.261   2.999  11.070 -0.4934  0.2038 -0.0241
44605SOL    HW140673   1.347   3.031  11.043 -0.0574  0.1648  1.2609
44605SOL    HW240674   1.279   2.928  11.131 -1.4352  0.3023  0.3956
44606SOL     OW40675   0.063  12.072  10.436  0.6524  0.3361  0.2609
44606SOL    HW140676   0.133  12.010  10.418 -1.2755 -1.9888  0.3122
44606SOL    HW240677   0.000  12.059  10.365 -1.7265 -0.8465  2.3924
44607SOL     OW40678  12.537   4.297  12.008 -0.3384 -0.1094 -0.9303
44607SOL    HW140679  12.463   4.264  11.957 -2.5573 -0.6395  2.3582
44607SOL    HW240680  12.592   4.221  12.023 -0.9805 -0.4985 -0.5036
44608SOL     OW40681   6.063   8.865   1.019  0.4120  0.4073 -0.4224
44608SOL    HW140682   6.092   8.928   1.085 -0.9342  1.7726 -1.0820
44608SOL    HW240683   6.056   8.916   0.938  1.3933 -1.0922 -1.5080
44609SOL     OW40684   8.170  10.355   8.785  0.0108  0.5299 -0.0567
44609SOL    HW140685   8.098  10.416   8.802  0.7138  1.9637 -1.9278
44609SOL    HW240686   8.232  10.370   8.856  0.1123  1.9133 -0.4228
44610SOL     OW40687   4.728   5.105   9.838 -0.1533  0.1741 -0.0251
44610SOL    HW140688   4.798   5.091   9.774 -0.1392  1.2346 -0.2529
44610SOL    HW240689   4.648   5.108   9.786 -0.2497  0.0462  0.1152
44611SOL     OW40690   5.597   4.415   1.892 -0.0233  0.1497  0.1775
44611SOL    HW140691   5.590   4.348   1.825  2.0077  0.2701 -0.2111
44611SOL    HW240692   5.534   4.482   1.866 -2.3089 -1.6789  0.7372
44612SOL     OW40693   6.725  11.742   8.158  0.0900 -0.1967  0.1381
44612SOL    HW140694   6.792  11.810   8.163  1.5371 -1.3894 -1.7437
44612SOL    HW240695   6.736  11.692   8.239  1.7094 -0.5222 -0.2399
44613SOL     OW40696   1.463   3.354  11.875 -0.0824  0.2411 -0.6804
44613SOL    HW140697   1.406   3.430  11.870 -2.7959 -1.5729  0.4906
44613SOL    HW240698   1.459   3.315  11.787 -0.8025  0.0220 -0.5520
44614SOL     OW40699   1.754   4.483   8.394 -0.2895  0.1411 -0.4064
44614SOL    HW140700   1.809   4.470   8.471  1.0288 -1.0954 -1.5005
44614SOL    HW240701   1.806   4.541   8.338 -1.1288  0.8291 -0.4844
44615SOL     OW40702   6.953   7.367   1.714  0.1817 -0.3799  0.6426
44615SOL    HW140703   6.860   7.377   1.734  0.4894  0.7920  1.6159
44615SOL    HW240704   6.956   7.351   1.620 -0.9203  1.1109  0.3292
44616SOL     OW40705  12.262   5.044   9.982  0.1521  0.0474 -0.2971
44616SOL    HW140706  12.297   4.975   9.927 -0.8555 -0.9031  0.2181
44616SOL    HW240707  12.265   5.123   9.927  1.4294 -0.3552 -0.8443
44617SOL     OW40708   6.905   8.361   0.895 -0.2329  0.0673  0.1934
44617SOL    HW140709   6.953   8.428   0.848  1.9607 -2.3074 -1.2249
44617SOL    HW240710   6.943   8.361   0.983  0.6209 -0.0920 -0.1696
44618SOL     OW40711  11.312   5.652  11.566 -0.2624 -0.3500  0.4897
44618SOL    HW140712  11.284   5.738  11.598 -2.0847  0.2905 -2.3962
44618SOL    HW240713  11.391   5.670  11.516  0.5906 -0.7613  1.6565
44619SOL     OW40714   1.428   5.257   9.038  0.5213 -0.2056  0.7841
44619SOL    HW140715   1.434   5.213   9.123  2.1441 -1.2075  0.2059
44619SOL    HW240716   1.391   5.191   8.979 -0.9104  0.5925  0.7611
44620SOL     OW40717   3.993   5.502   2.076 -0.4257  0.4449  0.4341
44620SOL    HW140718   4.075   5.453   2.072 -0.4664  0.4356 -0.2888
44620SOL    HW240719   4.005   5.563   2.149  0.9103  1.6734 -0.7576
44621SOL     OW40720   1.000   1.362  11.949  0.1446  0.0571  0.4075
44621SOL    HW140721   1.075   1.398  11.902 -0.8720  2.6279  0.5828
44621SOL    HW240722   0.994   1.415  12.029  0.5664 -2.8322  2.4790
44622SOL     OW40723   0.522   5.761  12.183 -0.6233 -0.3803  0.4091
44622SOL    HW140724   0.451   5.729  12.127 -0.3093 -0.6978  0.1864
44622SOL    HW240725   0.513   5.856  12.180 -0.0148 -0.3432 -1.0011
44623SOL     OW40726   4.372   6.016   8.266  0.2491 -0.1828  0.6649
44623SOL    HW140727   4.309   6.086   8.284  0.1175 -0.1922  0.2565
44623SOL    HW240728   4.334   5.969   8.192  1.0419  0.1767  0.0238
44624SOL     OW40729   5.497   9.829   9.712 -0.0267 -0.3293 -0.2155
44624SOL    HW140730   5.403   9.839   9.698  0.3004  1.2865 -1.7049
44624SOL    HW240731   5.529   9.789   9.630  0.6134 -0.6719  0.1925
44625SOL     OW40732   5.290   1.403  12.412 -0.9435  0.1176  0.0530
44625SOL    HW140733   5.305   1.334  12.348 -1.2831  0.2840 -0.2116
44625SOL    HW240734   5.196   1.396  12.433 -0.7333 -0.2443  0.8913
44626SOL     OW40735   9.632   1.211   7.614  0.2690  1.1117  0.2334
44626SOL    HW140736   9.721   1.191   7.585  0.1034  2.3057 -1.2314
44626SOL    HW240737   9.621   1.161   7.694  1.0655 -1.7832 -1.3181
44627SOL     OW40738   0.532  10.412   8.095 -0.3312 -0.2258 -0.2598
44627SOL    HW140739   0.623  10.383   8.088 -1.0090 -2.7712  0.3921
44627SOL    HW240740   0.525  10.450   8.182 -0.1017 -0.9470  0.0815
44628SOL     OW40741   0.553   3.685   4.521  0.8223  0.2505  0.2013
44628SOL    HW140742   0.521   3.760   4.570 -0.4087  0.5081 -0.9403
44628SOL    HW240743   0.646   3.703   4.506  1.5349 -0.3583  3.2990
44629SOL     OW40744   4.192  11.833   6.866  0.6161  0.5772 -0.1336
44629SOL    HW140745   4.117  11.835   6.806 -0.0280 -1.5995  0.4886
44629SOL    HW240746   4.255  11.775   6.823  0.6709 -0.0004  0.7018
44630SOL     OW40747   2.235   9.465   6.546  0.2176  0.4208  0.3450
44630SOL    HW140748   2.317   9.458   6.498 -0.4852  1.3016 -1.0552
44630SOL    HW240749   2.198   9.376   6.544  0.2092  0.4351 -0.7746
44631SOL     OW40750   5.682   1.237  10.435  0.0020  0.8194 -0.1418
44631SOL    HW140751   5.756   1.257  10.493 -0.7207  1.7019  0.5065
44631SOL    HW240752   5.723   1.204  10.355  1.0118 -1.4026  1.1906
44632SOL     OW40753   4.630   3.450   5.244  0.1752  0.0215  0.2603
44632SOL    HW140754   4.660   3.375   5.192 -1.6891 -0.5221 -0.0991
44632SOL    HW240755   4.659   3.429   5.333 -0.4056 -1.2030  0.1820
44633SOL     OW40756   4.458   5.444   0.057  0.4301 -0.2676  0.2817
44633SOL    HW140757   4.442   5.413  -0.032  0.2814  1.1591 -0.2133
44633SOL    HW240758   4.495   5.532   0.046 -0.4782  0.3164  1.6266
44634SOL     OW40759   0.322   5.453   3.752  0.7082 -0.3224 -0.6127
44634SOL    HW140760   0.409   5.469   3.787  0.3918  1.0798 -0.3923
44634SOL    HW240761   0.313   5.515   3.680 -0.5169  0.4013  0.1179
44635SOL     OW40762  10.315   8.021   4.644 -0.7222 -0.0609  0.2151
44635SOL    HW140763  10.378   8.089   4.619 -0.4335  0.2709  1.7360
44635SOL    HW240764  10.233   8.069   4.660 -0.9069 -0.2632 -0.1320
44636SOL     OW40765   0.219   1.641  11.373 -0.0483 -0.9635  0.2154
44636SOL    HW140766   0.249   1.563  11.326 -1.2574 -1.9929  1.1012
44636SOL    HW240767   0.177   1.608  11.452 -0.2200  0.6134  0.8326
44637SOL     OW40768   3.381  11.018   9.709  0.5400 -0.3033  0.1792
44637SOL    HW140769   3.327  10.986   9.637  0.0347  2.5904 -0.8652
44637SOL    HW240770   3.371  10.952   9.778 -1.0310 -1.8796 -1.4424
44638SOL     OW40771   8.317  11.500   2.553  0.8716  0.1624  0.5383
44638SOL    HW140772   8.362  11.584   2.548 -1.9593  1.7461 -0.4631
44638SOL    HW240773   8.322  11.475   2.645  0.1634  2.3777  1.2253
44639SOL     OW40774   2.648   2.804   3.751 -0.2414 -0.1658 -0.2096
44639SOL    HW140775   2.739   2.826   3.770  0.1618 -0.6263 -1.5239
44639SOL    HW240776   2.599   2.883   3.773  0.7993  1.0029 -1.8864
44640SOL     OW40777   4.350  11.496   6.655 -0.3627 -0.5348  0.1093
44640SOL    HW140778   4.393  11.429   6.603 -0.9641 -0.7855 -0.0725
44640SOL    HW240779   4.332  11.455   6.739  0.7661 -0.0752  0.5963
44641SOL     OW40780   4.213  12.273   2.870  0.4733 -0.0606 -0.0066
44641SOL    HW140781   4.138  12.322   2.906  0.5960 -0.3047  0.5844
44641SOL    HW240782   4.269  12.341   2.832 -0.1469  0.1072 -0.6427
44642SOL     OW40783  12.001   6.049   0.814  0.8387  0.1163 -0.0131
44642SOL    HW140784  11.983   6.077   0.904  1.7052  0.0009  0.2024
44642SOL    HW240785  12.093   6.070   0.801  0.6583  0.3629 -0.9657
44643SOL     OW40786  12.522   9.804   3.663  0.8737  0.1765  0.5265
44643SOL    HW140787  12.605   9.763   3.684  1.5661  0.9255 -0.6055
44643SOL    HW240788  12.536   9.843   3.576 -0.6063  0.4410  0.3760
44644SOL     OW40789   8.968   0.662   9.245 -0.1489 -0.0624  0.5517
44644SOL    HW140790   9.002   0.627   9.162  0.4396 -0.6077  1.0129
44644SOL    HW240791   8.891   0.712   9.220  1.3833  1.8482 -0.6479
44645SOL     OW40792   3.377   4.535   5.657 -0.2409  0.5406  0.7501
44645SOL    HW140793   3.424   4.469   5.708 -0.5952  0.7147  1.3052
44645SOL    HW240794   3.290   4.540   5.696 -1.0480 -0.4170 -0.8353
44646SOL     OW40795   8.873   1.412   0.835 -0.1961  0.0247  0.0118
44646SOL    HW140796   8.832   1.384   0.916  0.7396 -0.0218  0.4798
44646SOL    HW240797   8.917   1.494   0.857 -0.5697  0.4121 -0.6410
44647SOL     OW40798   2.890   3.021   2.284 -1.2325 -0.0629  0.3877
44647SOL    HW140799   2.913   3.039   2.193 -1.6734  1.2995  0.5184
44647SOL    HW240800   2.972   3.034   2.332 -1.0271 -0.6709  0.2177
44648SOL     OW40801  11.696   1.018   3.819 -0.1758 -0.2862  0.1986
44648SOL    HW140802  11.651   1.089   3.864  0.0040  0.3121 -0.5600
44648SOL    HW240803  11.756   0.983   3.886 -0.3025  0.2345  0.5952
44649SOL     OW40804  10.108  10.191  10.756  0.1937  0.1772  0.1867
44649SOL    HW140805  10.172  10.231  10.697 -0.1313  1.9532  0.9730
44649SOL    HW240806  10.086  10.260  10.818 -0.6784 -1.1493  1.4196
44650SOL     OW40807   9.127  11.494  11.638 -0.1979  0.2917  0.1502
44650SOL    HW140808   9.142  11.502  11.544 -0.8042  0.5577  0.0712
44650SOL    HW240809   9.209  11.458  11.673 -0.4537 -1.1914 -0.6848
44651SOL     OW40810  10.830   3.225   9.999  0.2015 -0.4856 -0.1552
44651SOL    HW140811  10.799   3.207  10.088  2.0629 -0.6528  0.5078
44651SOL    HW240812  10.754   3.208   9.944 -0.9400 -0.6100  1.3747
44652SOL     OW40813   1.648   1.806   1.094 -0.0842  0.6709  0.5824
44652SOL    HW140814   1.623   1.897   1.108  1.2941  0.8163  2.6051
44652SOL    HW240815   1.683   1.778   1.179  0.1359 -1.5434 -0.1794
44653SOL     OW40816   1.537  11.358   1.232 -0.7489 -0.2941 -0.0317
44653SOL    HW140817   1.468  11.390   1.290  0.1267  0.1836  0.7702
44653SOL    HW240818   1.496  11.355   1.146 -1.2485  1.7655  0.0879
44654SOL     OW40819   6.169   9.678   3.042  0.3417  0.1989  0.2787
44654SOL    HW140820   6.217   9.761   3.046 -1.2127  1.1315  0.5654
44654SOL    HW240821   6.192   9.642   2.956  1.3716  0.7045  0.3224
44655SOL     OW40822   8.355   7.374   1.145  0.2679 -0.1049  0.0733
44655SOL    HW140823   8.311   7.452   1.111 -1.5613 -0.7322  0.8974
44655SOL    HW240824   8.396   7.404   1.227 -1.0371 -0.1354  0.7639
44656SOL     OW40825   4.931   0.575   8.873 -0.1805 -0.2400 -0.2118
44656SOL    HW140826   5.008   0.592   8.927  1.2066 -0.4238 -1.9932
44656SOL    HW240827   4.861   0.554   8.935  0.6528  1.8857  1.5691
44657SOL     OW40828   4.687   3.747   1.856 -0.1434  0.2539 -0.4230
44657SOL    HW140829   4.660   3.812   1.921  1.6923  0.6853 -0.0188
44657SOL    HW240830   4.702   3.667   1.905 -0.2428  0.1478 -0.5634
44658SOL     OW40831   6.943   0.416  10.709  0.0679  0.4253  0.4605
44658SOL    HW140832   7.035   0.441  10.703  0.0444  0.4351  0.1147
44658SOL    HW240833   6.906   0.475  10.775  0.1335  0.9486  0.0366
44659SOL     OW40834   0.278   2.163  11.626 -0.3251  0.0031  0.5631
44659SOL    HW140835   0.372   2.183  11.627 -0.2798 -0.0232 -0.8986
44659SOL    HW240836   0.272   2.078  11.669  0.2933  0.1342  0.9209
44660SOL     OW40837   3.411   6.125   6.228  0.7025 -0.0342  0.0648
44660SOL    HW140838   3.413   6.155   6.319  0.0784  0.3960 -0.0601
44660SOL    HW240839   3.458   6.192   6.179 -0.0418  0.3595 -0.1080
44661SOL     OW40840   4.285   3.727   5.541 -0.0592 -0.3696  0.1015
44661SOL    HW140841   4.248   3.693   5.622  0.0968  1.7236  1.1200
44661SOL    HW240842   4.362   3.673   5.524 -1.8063 -2.8940 -0.4595
44662SOL     OW40843  11.176   9.572   2.193 -0.1080 -0.7124  0.0075
44662SOL    HW140844  11.221   9.511   2.251 -1.4011 -2.4252 -0.7043
44662SOL    HW240845  11.128   9.516   2.132 -0.4862  1.0313 -1.3817
44663SOL     OW40846   9.162  10.360   3.051  0.1579  0.3603  0.4154
44663SOL    HW140847   9.135  10.432   3.108  0.6101  1.6249 -0.8944
44663SOL    HW240848   9.247  10.333   3.085  0.8357  1.6951 -0.1229
44664SOL     OW40849   7.465  12.363   5.975 -0.3144  0.4682  0.2832
44664SOL    HW140850   7.462  12.279   5.929 -0.5582 -0.3390  1.7169
44664SOL    HW240851   7.384  12.407   5.950 -0.2553  0.2172 -0.3562
44665SOL     OW40852   4.600  10.312  11.734  0.0119 -0.1540  0.1354
44665SOL    HW140853   4.626  10.395  11.694 -0.1044 -0.9494 -1.6887
44665SOL    HW240854   4.672  10.253  11.713 -0.3488 -0.7515  0.5767
44666SOL     OW40855   8.757   9.122   1.957  0.0944 -0.1691  0.2540
44666SOL    HW140856   8.845   9.107   1.990 -0.3764 -0.8523  1.2564
44666SOL    HW240857   8.747   9.217   1.959  0.1851 -0.1526  1.9108
44667SOL     OW40858   7.922  10.948   0.035  0.1695 -0.4157  1.0724
44667SOL    HW140859   8.004  10.974  -0.007 -0.7334  1.7468  0.4715
44667SOL    HW240860   7.933  10.855   0.055  2.0078 -0.6591 -0.7389
44668SOL     OW40861   7.443   8.926   4.290  0.6246 -0.3707 -0.3459
44668SOL    HW140862   7.352   8.918   4.262  0.2213  1.0993  0.4230
44668SOL    HW240863   7.489   8.962   4.214  0.5439 -0.9608 -0.6799
44669SOL     OW40864   0.351   4.315   7.210 -0.1267  0.6138 -0.1219
44669SOL    HW140865   0.370   4.317   7.304  1.4275 -1.6208 -0.2807
44669SOL    HW240866   0.261   4.284   7.204 -0.3624  1.1428  0.6439
44670SOL     OW40867   6.114  11.131   9.677  0.3039  0.2326  0.3055
44670SOL    HW140868   6.101  11.118   9.770  0.3649  1.0123  0.4283
44670SOL    HW240869   6.048  11.076   9.635 -1.9000  2.2855  0.8502
44671SOL     OW40870   6.716   3.068   9.080  0.0996 -1.1655 -0.1169
44671SOL    HW140871   6.805   3.103   9.077 -0.1733 -0.4724 -0.2119
44671SOL    HW240872   6.718   2.993   9.021  0.7012 -1.3470  0.1259
44672SOL     OW40873   5.329   0.160  10.227  0.0087 -0.3152 -0.3385
44672SOL    HW140874   5.326   0.091  10.160  0.7349  0.3785 -1.1102
44672SOL    HW240875   5.422   0.183  10.233  0.0327 -0.7905  1.3661
44673SOL     OW40876   5.487   3.986   7.416  0.3192  0.3524  0.2153
44673SOL    HW140877   5.508   3.893   7.403  0.5214  0.5470 -0.9471
44673SOL    HW240878   5.548   4.016   7.483  1.3702  0.0434 -0.5856
44674SOL     OW40879   1.270   3.550  11.958  0.3683  0.0879 -0.4644
44674SOL    HW140880   1.289   3.553  12.052 -0.1043  0.6213 -0.3827
44674SOL    HW240881   1.186   3.505  11.952  0.9680 -1.0340 -0.7276
44675SOL     OW40882   7.065   2.583   3.984 -0.2212  0.2917  0.0494
44675SOL    HW140883   6.973   2.590   3.957 -0.0576 -0.5105 -0.7757
44675SOL    HW240884   7.062   2.540   4.069 -0.6690  1.5168  0.6832
44676SOL     OW40885   8.296  11.724   1.416  0.7418 -0.4714 -0.3418
44676SOL    HW140886   8.375  11.698   1.369 -0.2750 -0.2960 -2.2946
44676SOL    HW240887   8.231  11.659   1.389  0.1508 -0.4784  1.0408
44677SOL     OW40888   9.730   4.681  11.094 -0.1014  0.5804 -0.3314
44677SOL    HW140889   9.768   4.606  11.050 -2.3161 -0.6702 -0.2401
44677SOL    HW240890   9.716   4.652  11.184  1.7306  2.1390  0.5220
44678SOL     OW40891   2.387   3.838   2.406 -0.1019  0.0923  0.7481
44678SOL    HW140892   2.302   3.857   2.366 -0.4970 -1.0323  1.0301
44678SOL    HW240893   2.438   3.918   2.392 -1.1511  0.7304  0.4504
44679SOL     OW40894   6.079  10.440   5.878  0.2797  0.3378  0.3983
44679SOL    HW140895   6.132  10.430   5.957  1.4229 -1.0944 -0.4840
44679SOL    HW240896   6.140  10.474   5.813 -0.0981 -0.4473 -0.3948
44680SOL     OW40897  12.211   0.647   0.641 -0.0187  0.0218 -0.4154
44680SOL    HW140898  12.167   0.587   0.582  0.2324  0.5074 -1.1130
44680SOL    HW240899  12.155   0.650   0.719  0.1540 -1.3726 -0.2192
44681SOL     OW40900   9.353   7.327   7.454 -0.5700  0.2127 -0.2600
44681SOL    HW140901   9.292   7.391   7.490  1.9776  1.3096  2.5738
44681SOL    HW240902   9.298   7.252   7.429 -3.1377  1.4874  1.1719
44682SOL     OW40903   2.549   6.547   7.596  0.9110 -0.2732 -0.3952
44682SOL    HW140904   2.559   6.612   7.666  0.6420 -0.7622  0.1072
44682SOL    HW240905   2.455   6.543   7.580  0.8669 -0.9659 -0.0033
44683SOL     OW40906  10.844   8.625   1.359  0.2835 -0.5297 -0.0726
44683SOL    HW140907  10.883   8.597   1.276  0.0895 -0.4970 -0.1769
44683SOL    HW240908  10.889   8.707   1.381  0.4748 -0.6425 -0.0426
44684SOL     OW40909   8.372  12.367   4.909  0.1201 -0.4071  0.4122
44684SOL    HW140910   8.299  12.426   4.929  0.3142 -0.4104  1.1716
44684SOL    HW240911   8.331  12.282   4.895 -0.0970 -0.2348 -0.0289
44685SOL     OW40912  12.453   0.809   1.590 -0.1641  0.3076  0.2960
44685SOL    HW140913  12.426   0.759   1.668  0.0618 -0.9156 -0.3820
44685SOL    HW240914  12.396   0.885   1.590 -1.8502 -0.8890  0.3626
44686SOL     OW40915   3.324   7.612  10.750 -0.2805 -0.5410 -0.0854
44686SOL    HW140916   3.276   7.683  10.792  3.7028  2.9794 -0.8688
44686SOL    HW240917   3.392   7.588  10.814  1.5238 -0.0215 -1.7101
44687SOL     OW40918  12.172   1.608   7.783  0.3191  0.5241  0.6366
44687SOL    HW140919  12.113   1.544   7.822 -1.4962  0.4309 -2.0227
44687SOL    HW240920  12.245   1.556   7.751  0.5627  0.2847  1.5461
44688SOL     OW40921   2.986  12.066   3.766  0.5333  0.1004 -0.1046
44688SOL    HW140922   2.962  12.024   3.683  0.9174  0.2169 -0.2743
44688SOL    HW240923   3.071  12.029   3.788 -0.0794 -0.8283  0.8494
44689SOL     OW40924   2.160   4.796  11.868  0.2926  0.2675 -0.1375
44689SOL    HW140925   2.076   4.781  11.825 -1.1597  1.7494  1.9903
44689SOL    HW240926   2.178   4.889  11.852 -0.6360  1.0692  2.8022
44690SOL     OW40927   8.516   1.415   4.075 -0.3424 -0.1026  0.1071
44690SOL    HW140928   8.505   1.506   4.102 -1.5868 -0.1931 -0.0302
44690SOL    HW240929   8.582   1.380   4.135 -0.8272  0.5339  1.0402
44691SOL     OW40930   6.504   1.704   5.902 -0.0022 -0.3537  0.0773
44691SOL    HW140931   6.463   1.691   5.816 -1.4461  0.9779  0.5199
44691SOL    HW240932   6.433   1.688   5.964 -0.1296  2.7041  0.8582
44692SOL     OW40933   9.765   8.147   5.608 -0.1435 -0.2973 -0.5231
44692SOL    HW140934   9.853   8.181   5.623 -0.7308  0.9245  0.3688
44692SOL    HW240935   9.756   8.143   5.512  0.2426  1.3678 -0.6557
44693SOL     OW40936   4.473  11.571   6.016 -0.5448 -0.9926 -0.0881
44693SOL    HW140937   4.505  11.662   6.017 -0.1440 -1.1275  0.9094
44693SOL    HW240938   4.521  11.529   6.088 -2.1772 -1.4917  0.7471
44694SOL     OW40939   7.241   4.977   4.138 -0.0226 -0.1323 -0.6687
44694SOL    HW140940   7.228   4.882   4.139 -0.4032 -0.0779 -0.2438
44694SOL    HW240941   7.184   5.008   4.068  0.2645 -0.2374 -0.9522
44695SOL     OW40942   9.701   6.200  10.821 -0.5464  0.3113 -0.3436
44695SOL    HW140943   9.657   6.155  10.894  0.7027 -1.4642 -0.6452
44695SOL    HW240944   9.789   6.163  10.819 -0.1894  1.1595 -2.0524
44696SOL     OW40945   6.053   7.603   7.082 -0.3978 -0.2051 -0.4481
44696SOL    HW140946   6.088   7.686   7.049 -0.5419 -0.3754 -1.0469
44696SOL    HW240947   6.110   7.537   7.044 -0.9689 -0.4464 -0.9142
44697SOL     OW40948   2.700  12.063   8.143  0.6485 -0.3189  0.7214
44697SOL    HW140949   2.693  12.070   8.048  0.0763 -0.1265  0.7743
44697SOL    HW240950   2.622  12.107   8.176  1.0785  0.0359  1.2959
44698SOL     OW40951   5.482   1.277   6.620  0.0357 -0.0351 -0.1054
44698SOL    HW140952   5.538   1.314   6.552 -0.1619 -0.8781 -0.7391
44698SOL    HW240953   5.516   1.189   6.634 -1.6508 -0.8984 -1.1417
44699SOL     OW40954   7.745  12.113   1.909 -0.1695  0.4254  0.4862
44699SOL    HW140955   7.779  12.027   1.882 -1.0626  0.0046  0.6761
44699SOL    HW240956   7.653  12.097   1.929 -0.3929  1.4771  0.3324
44700SOL     OW40957   0.375   5.120   1.654  0.0451  0.0026 -0.4236
44700SOL    HW140958   0.352   5.112   1.747  0.8813  3.9940  0.3551
44700SOL    HW240959   0.309   5.180   1.619  0.0703 -1.0211 -2.3204
44701SOL     OW40960   2.359   9.199   5.844 -0.2378 -0.2394  0.4406
44701SOL    HW140961   2.429   9.213   5.907 -0.0144 -1.2685  0.4401
44701SOL    HW240962   2.333   9.287   5.817  1.0963  0.1657  0.3925
44702SOL     OW40963   4.664  10.283   2.168  0.3236 -0.1293  0.0877
44702SOL    HW140964   4.747  10.262   2.211 -0.3707 -0.4041  1.3420
44702SOL    HW240965   4.628  10.197   2.144  0.3440 -0.0188 -0.3352
44703SOL     OW40966   0.743   1.303   8.994 -0.7176 -0.1738  0.4840
44703SOL    HW140967   0.652   1.300   9.023 -0.5804  2.3551  1.4388
44703SOL    HW240968   0.792   1.331   9.072  0.4357  1.5643 -0.8063
44704SOL     OW40969   7.907   5.873   5.129  0.5707  0.1768  0.1709
44704SOL    HW140970   7.895   5.944   5.192 -1.8308 -0.5408  0.6119
44704SOL    HW240971   7.822   5.862   5.087  1.6063 -0.6278 -1.8992
44705SOL     OW40972   5.691   0.536  10.702 -0.1360 -0.5820  0.0043
44705SOL    HW140973   5.667   0.598  10.770  0.6416 -1.6262  1.2753
44705SOL    HW240974   5.774   0.568  10.668 -1.3778  0.9545 -1.7955
44706SOL     OW40975   3.277   5.297   7.173 -0.2082 -0.3723  0.1277
44706SOL    HW140976   3.262   5.308   7.267 -1.4271 -0.2311 -0.0603
44706SOL    HW240977   3.228   5.369   7.133  0.0637 -0.6011 -0.6252
44707SOL     OW40978   4.557  10.589   4.064 -0.2595 -0.0321  0.0787
44707SOL    HW140979   4.492  10.557   4.127  0.8291  0.0468  1.2631
44707SOL    HW240980   4.586  10.672   4.100  0.0640  0.2268 -0.7677
44708SOL     OW40981   9.829   0.720   5.535  0.0543  0.1106 -0.3640
44708SOL    HW140982   9.875   0.658   5.478  1.3226  0.0380  0.6978
44708SOL    HW240983   9.878   0.802   5.527  1.7430 -0.5079  2.3334
44709SOL     OW40984  11.495   8.968  10.445 -0.5568 -0.4856  0.6786
44709SOL    HW140985  11.429   9.003  10.504  0.4799  0.9226  1.0562
44709SOL    HW240986  11.465   8.992  10.357 -1.8844 -2.2219  0.5984
44710SOL     OW40987   7.544   2.185   9.150  0.1209 -0.1504  0.4378
44710SOL    HW140988   7.488   2.136   9.211 -1.6156 -0.1888 -1.1171
44710SOL    HW240989   7.519   2.154   9.064  2.7875 -0.3580 -0.3599
44711SOL     OW40990   0.498   9.139   7.386 -0.4512 -0.1413  0.1635
44711SOL    HW140991   0.571   9.159   7.327  0.2503 -2.2614  0.2308
44711SOL    HW240992   0.539   9.132   7.473 -0.5976 -1.9490  0.1106
44712SOL     OW40993   4.245  12.138  10.822 -0.2319  0.0726 -0.2221
44712SOL    HW140994   4.211  12.223  10.794  0.0797  0.1822 -0.2680
44712SOL    HW240995   4.189  12.075  10.776 -1.2098  0.2347  0.7020
44713SOL     OW40996  10.618   3.019   7.829  0.1112 -0.2344 -0.1826
44713SOL    HW140997  10.605   2.931   7.793  0.4709 -0.9757  1.4154
44713SOL    HW240998  10.537   3.037   7.877  1.0241 -0.8481  1.7094
44714SOL     OW40999   9.595   2.135   7.468 -0.1132 -0.1704  1.0016
44714SOL    HW141000   9.572   2.185   7.546 -1.6003  1.4162 -0.3666
44714SOL    HW241001   9.517   2.082   7.450 -1.7678  2.8036 -1.8102
44715SOL     OW41002   7.096   0.146   0.086 -0.6089  0.6339 -0.8155
44715SOL    HW141003   7.081   0.077   0.151 -0.9338  0.7092 -0.8076
44715SOL    HW241004   7.173   0.117   0.038 -0.9913  0.0447 -1.0950
44716SOL     OW41005   4.795   2.266   5.034 -0.6750  0.2363 -0.0464
44716SOL    HW141006   4.849   2.188   5.037 -0.5465  0.2170 -1.8524
44716SOL    HW241007   4.855   2.338   5.054 -0.2004  0.1069 -0.9485
44717SOL     OW41008  11.978  12.505   2.597  0.0577 -0.2805 -0.1042
44717SOL    HW141009  11.895  12.463   2.574  0.7324 -0.9924 -1.3434
44717SOL    HW241010  12.043  12.434   2.594  0.9231  0.4945 -0.4360
44718SOL     OW41011   6.793   1.823   8.034  0.4408  0.3881 -0.5546
44718SOL    HW141012   6.746   1.745   8.005  0.3964  0.8353 -1.7397
44718SOL    HW241013   6.740   1.858   8.106  0.2429 -0.4366 -0.2933
44719SOL     OW41014   1.516   7.965   2.758  0.0018  0.1163 -0.0577
44719SOL    HW141015   1.567   7.920   2.690  1.7044 -0.5341  1.5827
44719SOL    HW241016   1.570   8.038   2.785 -0.9505  0.7513  0.1787
44720SOL     OW41017   3.179   1.029   8.039  0.4410 -0.0879  0.0225
44720SOL    HW141018   3.104   1.084   8.014  0.9777  0.8550  0.4300
44720SOL    HW241019   3.144   0.970   8.106 -0.5492 -1.3830 -1.5513
44721SOL     OW41020   2.166   7.227   1.535 -0.0379 -0.1333 -0.3265
44721SOL    HW141021   2.194   7.211   1.445 -0.5646 -0.6955 -0.3936
44721SOL    HW241022   2.246   7.255   1.580  0.2252  0.1719 -0.9676
44722SOL     OW41023  11.770   3.905   9.508  0.4804  0.3529  0.0068
44722SOL    HW141024  11.852   3.909   9.458 -0.4556 -0.3099 -1.6612
44722SOL    HW241025  11.776   3.823   9.556  0.8453  0.3733  0.0025
44723SOL     OW41026   1.558  12.097  11.638 -0.1301 -0.9438  0.2418
44723SOL    HW141027   1.522  12.121  11.553  1.3872 -1.2526 -0.5160
44723SOL    HW241028   1.618  12.168  11.660  0.0945 -1.2666  0.6810
44724SOL     OW41029   2.749   3.529   7.431 -0.1217  0.2865 -0.0984
44724SOL    HW141030   2.794   3.468   7.372  0.3301 -0.2326  0.7572
44724SOL    HW241031   2.659   3.532   7.398  0.6870  2.0131 -2.3635
44725SOL     OW41032   3.939   2.221   3.198 -0.3456  0.0607  0.6849
44725SOL    HW141033   3.901   2.153   3.254  1.3963  1.4474  3.7990
44725SOL    HW241034   4.031   2.196   3.189 -0.3691  0.4135 -0.8090
44726SOL     OW41035  12.460  11.194  10.055  0.1019 -0.0313 -0.2353
44726SOL    HW141036  12.489  11.273  10.009  1.0039 -0.2025  0.0146
44726SOL    HW241037  12.450  11.129   9.986 -0.1312  0.1538 -0.3794
44727SOL     OW41038   2.874  12.487   8.989 -0.0373  0.0075 -0.0435
44727SOL    HW141039   2.848  12.395   8.994 -1.5715  0.4562  0.6147
44727SOL    HW241040   2.970  12.484   8.996  0.0300 -1.5884 -1.0302
44728SOL     OW41041   4.316   5.814  11.015 -0.0201  0.3543 -0.0512
44728SOL    HW141042   4.332   5.776  10.928 -1.5592  3.1661 -1.7309
44728SOL    HW241043   4.401   5.845  11.043  1.0977 -3.1439  0.9394
44729SOL     OW41044   7.655   8.782   2.319 -0.7188  0.0816 -0.9494
44729SOL    HW141045   7.609   8.829   2.389  0.6006  2.3269 -1.4918
44729SOL    HW241046   7.747   8.801   2.333 -0.0536 -2.6081 -1.1141
44730SOL     OW41047   8.552   6.281   3.329  0.1480 -0.5992 -0.0640
44730SOL    HW141048   8.607   6.341   3.278  0.2063  0.6890  1.4450
44730SOL    HW241049   8.463   6.312   3.315  0.2730  0.7123  1.7256
44731SOL     OW41050   9.496   4.830  12.543 -0.0223 -0.3635 -0.1414
44731SOL    HW141051   9.483   4.742  12.506 -1.4484 -0.4534  0.4782
44731SOL    HW241052   9.587   4.851  12.524 -0.2526 -1.0320 -2.2962
44732SOL     OW41053  11.811   3.204   0.068  0.5563  0.3725  0.0225
44732SOL    HW141054  11.854   3.231  -0.013  0.8362  0.1701  0.1040
44732SOL    HW241055  11.805   3.109   0.062 -0.0217  0.4094 -0.0584
44733SOL     OW41056   5.075   0.733   5.203 -0.1574  0.2439  0.8090
44733SOL    HW141057   5.052   0.681   5.126  0.3495  1.5551 -0.2649
44733SOL    HW241058   5.011   0.706   5.270  0.2446 -1.9047  0.3944
44734SOL     OW41059   4.303   7.182   8.818  0.4795 -0.1045  0.2525
44734SOL    HW141060   4.395   7.161   8.831  0.7356  0.8374  0.0023
44734SOL    HW241061   4.296   7.275   8.839 -0.1638  0.1336 -0.9058
44735SOL     OW41062   3.267   8.569   5.683 -0.3816 -0.0912 -0.2148
44735SOL    HW141063   3.307   8.485   5.660 -0.8893 -0.9102  1.6559
44735SOL    HW241064   3.177   8.546   5.707 -0.0086  0.6495  2.1594
44736SOL     OW41065   2.687   1.263   5.661 -0.0754  0.0777 -0.1898
44736SOL    HW141066   2.638   1.288   5.582 -2.2588  0.4492  1.1939
44736SOL    HW241067   2.754   1.331   5.669 -0.3009  0.4607 -1.2974
44737SOL     OW41068   7.684   5.495   3.152  0.1409  0.4331  0.2357
44737SOL    HW141069   7.614   5.477   3.090 -1.0785  1.9377  1.0996
44737SOL    HW241070   7.764   5.497   3.099 -0.4717 -1.0662 -0.8024
44738SOL     OW41071   7.322   9.664   5.747 -0.2922  0.1186  0.0512
44738SOL    HW141072   7.362   9.610   5.679 -0.2867  0.7321 -0.4400
44738SOL    HW241073   7.396   9.710   5.788 -0.3406  0.0917  0.1712
44739SOL     OW41074   9.741   5.980   2.191  0.3274  0.5588  0.7463
44739SOL    HW141075   9.701   5.921   2.127 -0.9093  0.0861  1.9128
44739SOL    HW241076   9.678   6.051   2.201  1.2458  1.4656  0.2761
44740SOL     OW41077   1.167   6.914  12.206 -0.3263  0.2458 -0.5371
44740SOL    HW141078   1.093   6.854  12.216 -1.5514  1.8927  0.8677
44740SOL    HW241079   1.192   6.905  12.114 -0.4695 -2.3340 -0.4169
44741SOL     OW41080   0.432   4.577  10.434  0.0728 -0.3766 -0.2157
44741SOL    HW141081   0.425   4.648  10.370  1.1279  0.2334  0.3161
44741SOL    HW241082   0.495   4.610  10.498  0.7515 -1.8911 -0.0817
44742SOL     OW41083   9.126   2.589   9.878 -0.7033  0.2864 -0.0256
44742SOL    HW141084   9.149   2.674   9.840  2.8729 -0.0248  1.0621
44742SOL    HW241085   9.165   2.525   9.819  0.0344 -0.3898  1.1374
44743SOL     OW41086   8.808  10.175  10.497  0.0947 -0.1637 -0.3379
44743SOL    HW141087   8.896  10.199  10.526 -0.9430  3.1346  0.5767
44743SOL    HW241088   8.822  10.122  10.419  2.8964  0.0895 -0.1291
44744SOL     OW41089   4.901   4.256   5.402 -0.5140 -0.2833  0.1064
44744SOL    HW141090   4.920   4.184   5.342 -1.0915 -0.4681  0.1373
44744SOL    HW241091   4.876   4.328   5.345 -2.9586 -1.0176  0.1463
44745SOL     OW41092   9.135   7.831   5.802  0.8875  0.1658  0.3822
44745SOL    HW141093   9.110   7.905   5.746 -0.4141  0.5650  1.4432
44745SOL    HW241094   9.053   7.785   5.820  1.2729 -0.0154  1.8453
44746SOL     OW41095   2.147   4.358  10.215 -0.2805  0.3703  0.1082
44746SOL    HW141096   2.194   4.315  10.143  0.0283 -1.0514  1.1122
44746SOL    HW241097   2.205   4.350  10.290 -1.1380  0.6986  0.8294
44747SOL     OW41098   7.039   3.268   3.291 -0.0861  0.5061 -0.0836
44747SOL    HW141099   7.057   3.232   3.204  0.2922 -0.6953  0.4703
44747SOL    HW241100   7.043   3.362   3.279  1.3424  0.3470 -1.0952
44748SOL     OW41101  11.440   2.439   3.673  0.4943  0.2957  0.2641
44748SOL    HW141102  11.456   2.384   3.749 -0.0874  2.3494  1.9581
44748SOL    HW241103  11.452   2.528   3.704 -0.5554  1.2573 -1.8483
44749SOL     OW41104   1.353  10.359   2.098 -0.1755 -0.1913  0.3305
44749SOL    HW141105   1.355  10.271   2.059 -0.6737 -0.0312 -0.0598
44749SOL    HW241106   1.294  10.350   2.173 -1.5562  0.1923 -0.6754
44750SOL     OW41107   3.706   1.593   9.461  0.1375  0.2025  0.5275
44750SOL    HW141108   3.684   1.522   9.522  0.9954 -0.2273  0.3526
44750SOL    HW241109   3.731   1.666   9.518  5.2142 -1.4480  0.9409
44751SOL     OW41110  11.843  12.081   1.218  0.1465 -0.1573 -0.0970
44751SOL    HW141111  11.927  12.121   1.241 -0.3286  0.4095  0.7441
44751SOL    HW241112  11.789  12.155   1.190 -0.0293 -0.5411 -0.7982
44752SOL     OW41113  11.650   3.630  10.477  0.1964  0.2348  0.9149
44752SOL    HW141114  11.556   3.616  10.494 -0.2700  2.0150  0.0649
44752SOL    HW241115  11.652   3.701  10.413  2.0391 -1.7758 -1.4523
44753SOL     OW41116   8.235  10.800   8.505 -0.1877  0.2367 -0.0242
44753SOL    HW141117   8.158  10.757   8.468  0.6407 -0.5669 -0.8625
44753SOL    HW241118   8.221  10.797   8.599 -0.9585 -0.3242 -0.1474
44754SOL     OW41119   1.063   0.949  11.071  0.7437  0.1171 -0.1792
44754SOL    HW141120   1.009   1.002  11.130  2.1815  0.4261  0.8977
44754SOL    HW241121   1.109   1.013  11.017 -0.6578 -0.1625 -1.7970
44755SOL     OW41122   2.915   2.871   5.680 -0.0625 -0.0271 -0.2651
44755SOL    HW141123   2.972   2.918   5.741 -1.2235  0.3970  0.5282
44755SOL    HW241124   2.972   2.807   5.637  1.5486  2.0259 -1.3318
44756SOL     OW41125   2.641   6.097   8.846 -0.1556 -0.8337 -0.0511
44756SOL    HW141126   2.695   6.069   8.920  0.9243  0.6157 -0.2277
44756SOL    HW241127   2.594   6.018   8.819  0.3610 -1.6752  1.3973
44757SOL     OW41128   8.031   3.867  11.913  0.4235 -0.2045  0.2535
44757SOL    HW141129   7.949   3.889  11.868 -0.0225  1.4996  1.7528
44757SOL    HW241130   8.084   3.822  11.847 -1.2170 -0.2139 -1.1285
44758SOL     OW41131   4.629   7.709   8.483  0.1949  0.3524  0.1615
44758SOL    HW141132   4.567   7.652   8.438 -0.0399  0.8570 -0.1540
44758SOL    HW241133   4.603   7.703   8.576  1.0578 -1.1562  0.3325
44759SOL     OW41134   7.720   0.169   8.426  0.3124  0.2845  0.3415
44759SOL    HW141135   7.708   0.075   8.412 -1.1857  0.5948 -0.6571
44759SOL    HW241136   7.743   0.204   8.340  0.1228  0.9448  0.5522
44760SOL     OW41137  10.791   3.687   2.571  0.4713 -0.6217  0.1234
44760SOL    HW141138  10.828   3.699   2.659  1.2309  0.1598 -0.2850
44760SOL    HW241139  10.827   3.759   2.520 -0.3009 -0.8249 -0.7300
44761SOL     OW41140   3.265   5.429  11.734 -0.1708 -0.2011 -0.3169
44761SOL    HW141141   3.321   5.400  11.805 -0.8919  0.0548  0.3635
44761SOL    HW241142   3.293   5.376  11.659  2.1884  1.1666 -0.4823
44762SOL     OW41143   1.974   6.955   0.840  0.3027  0.3522  0.1617
44762SOL    HW141144   2.041   6.945   0.908  0.8748  0.3790 -0.3980
44762SOL    HW241145   1.970   7.049   0.823  0.1679  0.3434  0.1404
44763SOL     OW41146  10.991   5.974  11.729 -0.1111 -0.0811 -0.0972
44763SOL    HW141147  10.998   5.888  11.687  1.8336  0.4288 -0.8957
44763SOL    HW241148  10.961   6.032  11.659 -2.0273 -0.1674  0.5885
44764SOL     OW41149  11.509   8.760   8.456  0.5457  0.1691 -0.1411
44764SOL    HW141150  11.583   8.792   8.508  0.8443 -2.0924  0.9413
44764SOL    HW241151  11.464   8.698   8.513 -1.2542  0.2704 -1.3643
44765SOL     OW41152   5.167  10.763   7.298  0.0409  0.0493  0.1414
44765SOL    HW141153   5.202  10.718   7.374 -1.7019  0.9337  1.5568
44765SOL    HW241154   5.241  10.813   7.263  0.8866 -0.3661  1.2726
44766SOL     OW41155   7.680   8.089  11.042 -0.4637  0.2004 -0.5036
44766SOL    HW141156   7.623   8.166  11.052 -0.6511  0.0858 -0.6771
44766SOL    HW241157   7.769   8.125  11.041 -0.3420  0.1664  2.3486
44767SOL     OW41158   7.473   8.801   4.530 -0.0605  0.0080  0.1500
44767SOL    HW141159   7.516   8.848   4.459  1.2543 -1.4478 -0.0652
44767SOL    HW241160   7.418   8.736   4.487  0.9362 -1.0480  0.4273
44768SOL     OW41161   1.147   7.676   5.880 -0.2617 -0.0166 -0.0953
44768SOL    HW141162   1.132   7.760   5.837 -2.0271  0.7518  1.8532
44768SOL    HW241163   1.231   7.687   5.926  2.2368 -1.2126 -3.8616
44769SOL     OW41164   5.438   9.051   6.650  0.0471 -0.4864 -0.3773
44769SOL    HW141165   5.475   9.046   6.738 -1.2275  1.0997  0.2930
44769SOL    HW241166   5.343   9.055   6.663 -0.1001  2.4529 -1.5926
44770SOL     OW41167  10.037   4.420   9.531  0.1305  0.1734  0.1231
44770SOL    HW141168  10.115   4.364   9.532 -0.6476 -0.9404  0.8530
44770SOL    HW241169  10.056   4.485   9.464  1.1818 -0.8037 -0.5796
44771SOL     OW41170   4.518   4.922   0.479 -0.0213 -0.3474 -0.3593
44771SOL    HW141171   4.427   4.904   0.454 -0.7821  1.2254  1.1349
44771SOL    HW241172   4.524   4.890   0.569  0.2752  1.4532  0.2819
44772SOL     OW41173   8.847   2.046   8.769  0.0878 -0.3382  0.3358
44772SOL    HW141174   8.757   2.048   8.803  0.0469 -0.3927  0.2314
44772SOL    HW241175   8.842   2.097   8.688  0.1115 -0.4934  0.2367
44773SOL     OW41176   6.006  10.956   7.101  0.6670 -0.3149  0.2193
44773SOL    HW141177   6.047  10.980   7.184 -1.0170  1.5148  0.6068
44773SOL    HW241178   5.955  11.034   7.076 -2.1790 -2.2239 -0.4344
44774SOL     OW41179   3.672   7.291  12.351  0.5207 -0.3633 -0.0865
44774SOL    HW141180   3.634   7.279  12.438 -1.3492 -1.0653 -0.9444
44774SOL    HW241181   3.652   7.210  12.305 -0.2334  0.7275 -1.7679
44775SOL     OW41182   3.237   0.162  12.385 -0.1016  0.0723  0.1509
44775SOL    HW141183   3.185   0.107  12.443 -0.2974  1.3631  1.2571
44775SOL    HW241184   3.209   0.137  12.297 -0.3869 -1.3632  0.6231
44776SOL     OW41185   5.440   7.133   6.449  0.2161 -0.0783 -0.0658
44776SOL    HW141186   5.438   7.042   6.417  0.6939  0.0344 -0.4255
44776SOL    HW241187   5.356   7.169   6.422 -0.1889 -0.5599  0.5213
44777SOL     OW41188   3.910   9.721   6.805 -0.0111  0.4300  0.1135
44777SOL    HW141189   3.927   9.674   6.887 -1.5532  0.7525  0.6547
44777SOL    HW241190   3.868   9.655   6.749  1.2625  0.1416 -0.5335
44778SOL     OW41191   6.321   5.601   5.047  0.1281  0.2983 -0.1739
44778SOL    HW141192   6.307   5.628   5.137 -0.4252 -1.8026  0.4351
44778SOL    HW241193   6.407   5.558   5.048 -0.7645 -1.5912 -0.1175
44779SOL     OW41194   0.373   1.120   9.640  0.0697 -0.2922  0.1524
44779SOL    HW141195   0.320   1.138   9.717 -0.0983 -0.1609  0.0070
44779SOL    HW241196   0.411   1.034   9.657  1.7628  0.6349  1.3485
44780SOL     OW41197   8.390   4.239   0.136 -0.4927  0.0940 -0.1267
44780SOL    HW141198   8.432   4.236   0.222 -0.0551 -0.1527 -0.3456
44780SOL    HW241199   8.339   4.159   0.132 -1.1371  0.4802  0.2116
44781SOL     OW41200   5.214   7.965   1.026 -0.1840  0.5370  0.3321
44781SOL    HW141201   5.128   7.929   1.003 -0.1456 -0.2171  1.3177
44781SOL    HW241202   5.227   8.036   0.963 -2.3275  1.8895  1.2740
44782SOL     OW41203  12.446   8.252  11.399  0.4921  0.0032 -0.3222
44782SOL    HW141204  12.538   8.235  11.375  0.8599 -1.0634  1.6466
44782SOL    HW241205  12.432   8.343  11.375  2.5137  0.6217  0.6107
44783SOL     OW41206   1.646   0.495  11.788  0.3321 -0.7817  0.2134
44783SOL    HW141207   1.650   0.462  11.699  1.5068  0.6146 -0.3088
44783SOL    HW241208   1.573   0.557  11.788  0.8781 -0.1186 -0.0559
44784SOL     OW41209   6.279   3.881  10.910  0.2710 -0.1658  0.9943
44784SOL    HW141210   6.272   3.817  10.839  1.6069  1.5107 -0.7448
44784SOL    HW241211   6.277   3.828  10.990  1.0647 -2.3624 -0.3419
44785SOL     OW41212  12.263   9.707   7.829  0.0670  0.3960 -0.3655
44785SOL    HW141213  12.317   9.629   7.820 -1.2187 -0.4528 -1.1303
44785SOL    HW241214  12.236   9.728   7.739 -0.7452  0.8637 -0.0278
44786SOL     OW41215   2.024   0.925   2.535  0.2189 -0.3818 -0.0813
44786SOL    HW141216   1.987   0.927   2.447  1.9661  1.2653 -0.8403
44786SOL    HW241217   2.041   1.016   2.557  0.0308 -0.7705  1.8913
44787SOL     OW41218   0.468   4.579   7.864  0.2307 -0.1930  0.3022
44787SOL    HW141219   0.527   4.652   7.882  1.7904 -1.5105  0.7975
44787SOL    HW241220   0.504   4.506   7.914 -3.1843 -0.5314  2.6571
44788SOL     OW41221  11.567   8.990   9.261 -0.4021 -0.3107  0.6855
44788SOL    HW141222  11.619   8.929   9.209 -1.2697  0.9111 -1.7635
44788SOL    HW241223  11.498   8.935   9.300 -1.4582 -0.9172 -1.8538
44789SOL     OW41224   3.284  12.159   2.386  0.2343 -0.3407  0.6282
44789SOL    HW141225   3.283  12.083   2.445  0.7673  1.2305  2.7890
44789SOL    HW241226   3.377  12.172   2.367  0.5071  1.5576  2.8471
44790SOL     OW41227   6.830   8.354   1.354 -0.1109  0.0981 -0.0209
44790SOL    HW141228   6.783   8.270   1.357 -0.3871  0.2774  0.8383
44790SOL    HW241229   6.764   8.419   1.374  0.0712  0.5474 -0.8492
44791SOL     OW41230   1.883   0.857   0.019  0.1888 -0.0322 -0.3100
44791SOL    HW141231   1.902   0.765   0.000  0.5422  0.1114 -0.6707
44791SOL    HW241232   1.952   0.884   0.079  0.2081  0.0544 -0.3702
44792SOL     OW41233   5.994   7.639   4.064 -0.2528 -0.7663 -0.0092
44792SOL    HW141234   5.931   7.567   4.073  0.6007 -1.3327  1.7505
44792SOL    HW241235   6.076   7.604   4.099  0.0511  1.2384  1.4518
44793SOL     OW41236   4.210  10.507   2.270 -0.4241  0.2942 -0.4732
44793SOL    HW141237   4.220  10.578   2.333  0.4229 -1.3379  1.3361
44793SOL    HW241238   4.297  10.494   2.233 -0.0952 -1.0229  0.6647
44794SOL     OW41239   4.710   9.718  11.719 -0.3036 -0.1465 -0.2225
44794SOL    HW141240   4.727   9.632  11.680  0.5045 -0.0148 -0.1746
44794SOL    HW241241   4.773   9.725  11.791  0.2802  0.8643 -0.8081
44795SOL     OW41242   6.827   9.521   6.931 -0.2136 -0.1882  0.4120
44795SOL    HW141243   6.857   9.600   6.886 -1.1618 -0.3236 -0.4864
44795SOL    HW241244   6.736   9.539   6.954 -0.2524 -0.7802  0.7521
44796SOL     OW41245  11.919   2.397   0.290 -0.7008  0.6005 -0.3246
44796SOL    HW141246  11.925   2.492   0.283 -2.1388  0.8675  1.3769
44796SOL    HW241247  11.928   2.378   0.383 -0.0710 -0.9859 -0.6665
44797SOL     OW41248   4.608   9.374  12.098  0.0377 -0.6124 -0.3560
44797SOL    HW141249   4.585   9.464  12.078  0.7916 -0.7646 -2.1502
44797SOL    HW241250   4.524   9.332  12.119 -0.2078  0.6682  1.4013
44798SOL     OW41251  10.182   2.247   1.755 -0.2184  0.3898  0.0911
44798SOL    HW141252  10.175   2.154   1.733 -1.7645  0.9760 -2.3062
44798SOL    HW241253  10.128   2.259   1.833  1.6199 -0.9980  1.6749
44799SOL     OW41254   2.550   8.191   2.857 -0.2998  0.5067  0.1554
44799SOL    HW141255   2.523   8.142   2.935 -2.8109 -0.6172 -1.3250
44799SOL    HW241256   2.512   8.278   2.870  0.3303  0.7056  0.7202
44800SOL     OW41257   3.839   6.466   7.469  0.3232 -0.0670  0.1904
44800SOL    HW141258   3.908   6.401   7.453  0.4407  0.4886 -1.8501
44800SOL    HW241259   3.789   6.468   7.387 -0.4362  1.5279  0.6618
44801SOL     OW41260   5.081   3.021   0.822  0.1191 -0.0168  0.5807
44801SOL    HW141261   5.021   3.086   0.787  1.3019 -0.0635 -1.7580
44801SOL    HW241262   5.153   3.072   0.859  1.0143  0.0979 -1.1931
44802SOL     OW41263  11.040   2.397  10.586 -0.1507  0.3426 -0.2361
44802SOL    HW141264  10.963   2.447  10.613 -1.1488 -1.5407  0.6419
44802SOL    HW241265  11.004   2.325  10.534  0.6587 -2.0129  2.2163
44803SOL     OW41266   9.779   2.798  11.916  0.1507  0.0767  0.1157
44803SOL    HW141267   9.687   2.779  11.935  0.6519 -2.0375  0.6409
44803SOL    HW241268   9.810   2.848  11.992 -0.0243 -1.0637  0.9484
44804SOL     OW41269   5.332  11.444  12.312 -0.3428  0.2214  0.2212
44804SOL    HW141270   5.258  11.501  12.331 -0.0584 -0.0675  2.4670
44804SOL    HW241271   5.292  11.365  12.274 -0.8744  1.2115 -1.3663
44805SOL     OW41272   7.924   8.143  12.455  0.1034 -0.6368 -0.2520
44805SOL    HW141273   7.881   8.227  12.469  0.3348 -0.6646  0.6458
44805SOL    HW241274   7.940   8.109  12.543  1.2234 -1.0046 -0.5829
44806SOL     OW41275  11.341   7.186   9.146  0.3944  0.5831  0.0809
44806SOL    HW141276  11.367   7.278   9.142  2.8670 -0.1228 -1.6084
44806SOL    HW241277  11.291   7.172   9.066 -1.2600  0.7442  1.0345
44807SOL     OW41278   7.984   3.614   6.927 -0.4538  0.2449  0.1445
44807SOL    HW141279   8.055   3.551   6.939 -1.0496 -0.3959  0.3513
44807SOL    HW241280   7.929   3.576   6.859 -0.8511  0.5088  0.3143
44808SOL     OW41281  10.140   5.863   8.386 -0.3174 -0.3974 -0.1596
44808SOL    HW141282  10.138   5.870   8.482 -2.1163  0.0911 -0.1958
44808SOL    HW241283  10.194   5.785   8.369 -0.4690 -0.8453  1.2804
44809SOL     OW41284   2.447   1.522   1.753  0.0346 -0.1026  0.2449
44809SOL    HW141285   2.423   1.610   1.784 -0.1262 -0.5830  1.5305
44809SOL    HW241286   2.542   1.517   1.768 -0.3120 -1.0237  2.5892
44810SOL     OW41287   6.771   3.849   4.013 -0.2922 -0.3506  0.1470
44810SOL    HW141288   6.792   3.930   3.967 -0.0207  0.3980  1.5243
44810SOL    HW241289   6.855   3.815   4.044 -0.4050 -1.1648 -0.3889
44811SOL     OW41290   9.928   1.941   6.611 -0.0225  0.3959 -0.4367
44811SOL    HW141291   9.997   1.916   6.550  0.4380 -0.9517  0.5702
44811SOL    HW241292   9.862   1.872   6.601 -0.1401  0.3965  0.2521
44812SOL     OW41293   5.067   3.528   1.781  0.2007  0.2954 -0.4184
44812SOL    HW141294   5.129   3.473   1.733 -0.3661  0.6456 -1.5806
44812SOL    HW241295   4.982   3.487   1.765 -0.0753  0.8127 -0.2730
44813SOL     OW41296   7.447  10.229  10.679 -0.4557  0.2057  0.0946
44813SOL    HW141297   7.497  10.286  10.621 -0.4469 -1.0956 -1.2355
44813SOL    HW241298   7.361  10.221  10.639 -0.7997  0.1247  0.8256
44814SOL     OW41299  11.758   1.395   3.412 -0.1770  0.6598  0.5514
44814SOL    HW141300  11.766   1.351   3.497  1.0247 -0.4446 -0.1000
44814SOL    HW241301  11.791   1.331   3.349 -0.5043  1.6846 -0.6866
44815SOL     OW41302  10.299   3.713   5.645 -0.2100 -0.6898  0.0993
44815SOL    HW141303  10.245   3.783   5.681  1.0023  1.2504 -1.5691
44815SOL    HW241304  10.336   3.751   5.564  3.9874 -1.6146  1.3066
44816SOL     OW41305   2.637  10.867   3.279 -0.3338 -0.3876 -0.2152
44816SOL    HW141306   2.656  10.818   3.199 -0.1396  1.2928 -1.2662
44816SOL    HW241307   2.715  10.857   3.333 -0.8471 -2.3315  0.2246
44817SOL     OW41308  12.526  10.633  10.170  0.0544  0.7843  0.7324
44817SOL    HW141309  12.617  10.646  10.144  0.6952 -1.5623  1.5814
44817SOL    HW241310  12.479  10.621  10.088  0.8908 -0.0057  0.3540
44818SOL     OW41311   4.049   1.817   2.602 -0.1866  0.1380 -0.3420
44818SOL    HW141312   4.084   1.903   2.576  2.4277 -0.6940  0.1010
44818SOL    HW241313   3.955   1.831   2.610 -0.0766  2.5047 -2.0107
44819SOL     OW41314   3.466  11.102   4.645 -0.1899 -0.3411 -0.4225
44819SOL    HW141315   3.405  11.049   4.595 -0.6867 -0.0445 -0.1389
44819SOL    HW241316   3.503  11.164   4.582 -1.1378  0.3205 -0.3433
44820SOL     OW41317   3.547   7.467   7.757  0.3033  0.2201 -0.1231
44820SOL    HW141318   3.615   7.467   7.825 -1.5188 -2.0556  1.8422
44820SOL    HW241319   3.483   7.531   7.788 -0.4321 -0.6618  0.1743
44821SOL     OW41320   3.716   1.095   9.055  0.4506  0.2698 -0.3712
44821SOL    HW141321   3.720   1.187   9.030  1.8563 -0.5372 -3.5823
44821SOL    HW241322   3.630   1.085   9.096  0.1378  2.9006 -0.2224
44822SOL     OW41323   9.240   5.658   8.790  0.2789  0.1647  0.2240
44822SOL    HW141324   9.219   5.628   8.878 -1.5302 -0.1904 -0.2796
44822SOL    HW241325   9.326   5.700   8.798  1.1902 -1.8141  1.6938
44823SOL     OW41326   5.469   3.897   5.374  0.3066 -0.1519 -0.2687
44823SOL    HW141327   5.379   3.877   5.399  0.4489 -0.6820 -0.1739
44823SOL    HW241328   5.482   3.988   5.402 -0.5895  0.3482 -1.3829
44824SOL     OW41329   4.555   2.553   2.396 -0.0956  0.1542 -0.4178
44824SOL    HW141330   4.593   2.545   2.483 -2.2593 -4.1520  0.3928
44824SOL    HW241331   4.617   2.508   2.338 -0.8420 -1.1866 -0.2083
44825SOL     OW41332   4.004  11.656  10.061  0.0975 -0.0221  0.1685
44825SOL    HW141333   3.996  11.745  10.028 -1.8251  0.0567  0.7151
44825SOL    HW241334   4.096  11.633  10.048  0.5478  1.9030 -0.2827
44826SOL     OW41335   5.709   3.289   3.558 -0.5394 -0.2128  0.0771
44826SOL    HW141336   5.734   3.246   3.476  2.2871  0.8378  0.2651
44826SOL    HW241337   5.685   3.218   3.617 -0.8349 -1.1114 -1.1032
44827SOL     OW41338   5.395   5.802  12.027 -0.1539  0.4894  0.4730
44827SOL    HW141339   5.393   5.857  12.106  1.5611  0.9247  0.2631
44827SOL    HW241340   5.398   5.864  11.955  0.1490  0.1117  0.1568
44828SOL     OW41341   2.518   5.527   4.528 -0.0134 -0.0497 -0.5331
44828SOL    HW141342   2.454   5.469   4.487 -0.7609  1.0607 -1.0034
44828SOL    HW241343   2.576   5.552   4.456  1.2121 -1.3524 -0.0316
44829SOL     OW41344   5.755   0.129   5.825  0.2107  0.2453 -0.3248
44829SOL    HW141345   5.788   0.116   5.736 -0.3582  2.4516 -0.9295
44829SOL    HW241346   5.668   0.166   5.812 -1.2028 -2.2598  1.2186
44830SOL     OW41347   2.097   9.587   7.338 -0.1215  0.2599  0.1072
44830SOL    HW141348   2.084   9.610   7.430 -2.7473 -1.5927  0.3139
44830SOL    HW241349   2.137   9.500   7.341  1.3928  0.9114 -0.5514
44831SOL     OW41350   7.106   5.860   3.046 -0.0522 -0.1440  0.2548
44831SOL    HW141351   7.079   5.952   3.040  0.8525  0.0886 -0.4744
44831SOL    HW241352   7.053   5.816   2.980  1.5987  0.3975 -1.5261
44832SOL     OW41353   6.634   2.723   5.015  0.4482 -1.0838 -0.3556
44832SOL    HW141354   6.559   2.715   5.075  1.2298 -1.0512  0.6497
44832SOL    HW241355   6.667   2.811   5.031 -0.9676 -0.0064 -2.8369
44833SOL     OW41356   4.940   0.779   1.161  0.4870  0.1376  0.4330
44833SOL    HW141357   4.884   0.726   1.105 -0.6681  1.2858  0.4481
44833SOL    HW241358   5.009   0.811   1.103  0.1775  0.0692  0.0247
44834SOL     OW41359   8.975   6.615   8.872 -0.2194  0.4948  0.1702
44834SOL    HW141360   9.020   6.687   8.829  1.6570 -0.2516  0.7462
44834SOL    HW241361   8.885   6.619   8.839  0.1108  2.3976 -0.6309
44835SOL     OW41362   4.250   4.682   8.908 -0.0068 -0.2147  0.4024
44835SOL    HW141363   4.217   4.605   8.955 -1.9889  0.2580 -0.1091
44835SOL    HW241364   4.191   4.753   8.935  0.4682  0.6431 -0.7414
44836SOL     OW41365   6.356   2.966   0.381  0.2971 -0.0648  0.1574
44836SOL    HW141366   6.448   2.990   0.391 -0.2759  2.0792  0.7236
44836SOL    HW241367   6.322   2.963   0.471 -0.2373 -0.6707 -0.0540
44837SOL     OW41368  10.296   2.779   5.521 -0.7108 -0.6530  0.1434
44837SOL    HW141369  10.247   2.856   5.548 -0.4422 -1.0832  1.9910
44837SOL    HW241370  10.373   2.779   5.578  0.1739 -1.3507 -1.0112
44838SOL     OW41371   1.990   5.414  11.524 -0.0741 -0.8964  0.3114
44838SOL    HW141372   1.923   5.430  11.459 -0.2136  0.6985  0.7950
44838SOL    HW241373   2.073   5.426  11.477 -0.1625 -0.7212  0.1988
44839SOL     OW41374   7.938   4.706  10.844  0.3981 -0.3793  0.3076
44839SOL    HW141375   7.950   4.775  10.779 -1.9309 -0.4823 -0.3144
44839SOL    HW241376   7.996   4.730  10.915 -0.3164  2.2520  0.1077
44840SOL     OW41377   8.613   8.736   4.576  0.7769  0.1322  0.4695
44840SOL    HW141378   8.594   8.794   4.502 -2.6340  1.6105  2.2783
44840SOL    HW241379   8.580   8.650   4.549 -0.4114  0.6531  0.2195
44841SOL     OW41380   2.882   5.095   1.482 -0.3923 -0.3271  0.4419
44841SOL    HW141381   2.946   5.024   1.472 -1.2720 -0.9095 -1.6622
44841SOL    HW241382   2.933   5.169   1.514  0.7578 -1.5652  1.6488
44842SOL     OW41383   3.226   5.011   3.060  0.0251  0.2510  0.3632
44842SOL    HW141384   3.306   5.014   3.007 -0.2734  0.8255 -0.0550
44842SOL    HW241385   3.258   5.004   3.150  0.5462  0.3141  0.1879
44843SOL     OW41386  12.060   0.166   3.230 -0.1825 -0.3124 -0.1529
44843SOL    HW141387  12.122   0.189   3.161 -0.4131 -0.8802 -0.5592
44843SOL    HW241388  11.975   0.198   3.197 -0.6829 -2.4783 -1.1709
44844SOL     OW41389   7.221   1.056   4.462  0.3885  0.3714 -0.2976
44844SOL    HW141390   7.250   0.995   4.394  2.3897  0.2749  0.5881
44844SOL    HW241391   7.287   1.126   4.463  0.0482  0.7178  1.0789
44845SOL     OW41392   6.468  11.973   2.164  0.3997 -0.0237  0.4420
44845SOL    HW141393   6.426  12.031   2.101  1.8695  0.0164 -0.5501
44845SOL    HW241394   6.462  12.020   2.248  0.1166  0.8028 -0.0335
44846SOL     OW41395   9.413  11.630   8.508  0.0638 -0.3118  0.1634
44846SOL    HW141396   9.331  11.679   8.518 -0.0967 -0.2777 -1.0979
44846SOL    HW241397   9.459  11.643   8.591 -1.4728 -0.8592  1.1447
44847SOL     OW41398   9.179   4.334   4.273  0.1716 -0.7936  0.0949
44847SOL    HW141399   9.235   4.362   4.345  1.0996 -0.3992 -0.7504
44847SOL    HW241400   9.237   4.285   4.215 -0.7583 -1.9012  0.0465
44848SOL     OW41401   9.198   7.433   3.582 -0.0450  0.5081 -0.3199
44848SOL    HW141402   9.107   7.462   3.591 -0.6411 -1.4635  0.5521
44848SOL    HW241403   9.240   7.460   3.664  0.0838  1.1612 -0.5994
44849SOL     OW41404   5.639  11.588   0.418 -0.0126 -0.0996 -0.4748
44849SOL    HW141405   5.675  11.597   0.329  0.0331 -1.8590 -0.6702
44849SOL    HW241406   5.544  11.594   0.406 -0.1164 -2.0049 -0.9307
44850SOL     OW41407   2.993   2.522   6.797 -0.4197 -0.0211 -0.6344
44850SOL    HW141408   2.910   2.524   6.749 -1.6396  2.3467  1.2943
44850SOL    HW241409   2.971   2.476   6.879 -0.1884  1.5226  0.3411
44851SOL     OW41410   2.853   0.543   2.009  0.5096 -0.0594 -0.4824
44851SOL    HW141411   2.856   0.591   2.092 -1.5483  0.5630 -0.7175
44851SOL    HW241412   2.944   0.544   1.979  1.0167  1.2230  0.9088
44852SOL     OW41413  11.680   9.286   4.855  0.3611  0.3946 -0.0329
44852SOL    HW141414  11.635   9.331   4.927  1.9184 -0.4848  1.5756
44852SOL    HW241415  11.676   9.193   4.879  0.8698  0.0846 -1.1219
44853SOL     OW41416   3.090   8.403   9.172 -0.2680  0.5172 -0.1425
44853SOL    HW141417   3.029   8.393   9.245 -1.0047  2.2126 -0.4839
44853SOL    HW241418   3.122   8.493   9.180  0.5429  0.3462 -1.2340
44854SOL     OW41419  11.164   2.137   3.700  0.4933 -0.3571  0.2967
44854SOL    HW141420  11.092   2.199   3.688  0.5394 -0.3833 -0.1463
44854SOL    HW241421  11.217   2.146   3.621 -0.1909 -1.8493 -0.3735
44855SOL     OW41422   2.456   9.796   4.968 -0.7579 -0.1131  0.6238
44855SOL    HW141423   2.371   9.823   5.004 -0.6067  0.3455  0.6448
44855SOL    HW241424   2.517   9.865   4.996 -0.5084 -0.1031  0.0588
44856SOL     OW41425   4.578   0.747  12.338 -0.6115  0.3227 -0.4111
44856SOL    HW141426   4.584   0.662  12.382 -0.1513  0.4790 -0.1737
44856SOL    HW241427   4.512   0.795  12.388 -0.4393  0.3219 -0.1820
44857SOL     OW41428   8.897   2.266  11.213 -0.3826 -0.0892 -0.1073
44857SOL    HW141429   8.933   2.336  11.158 -1.6489  0.0271 -0.8337
44857SOL    HW241430   8.917   2.185  11.165 -1.0528 -0.0255 -0.5044
44858SOL     OW41431   3.317   5.521   8.078 -0.1870  0.1784  0.1649
44858SOL    HW141432   3.235   5.502   8.032 -0.1615  0.2463  0.0912
44858SOL    HW241433   3.363   5.582   8.020  0.5237 -0.9015 -0.4411
44859SOL     OW41434  12.091   0.544   1.690 -0.2666  0.0336  0.6413
44859SOL    HW141435  12.069   0.557   1.783 -0.0801  2.6785  0.4118
44859SOL    HW241436  12.015   0.578   1.643 -1.2033 -3.0525 -0.2741
44860SOL     OW41437  11.249   8.646   6.211  0.1706 -0.2284  0.1821
44860SOL    HW141438  11.246   8.612   6.300  0.2978 -1.3022 -0.1962
44860SOL    HW241439  11.316   8.714   6.212 -0.2811  0.2181  1.0388
44861SOL     OW41440  12.333   0.326  11.838 -0.8150 -0.0767 -0.4967
44861SOL    HW141441  12.357   0.245  11.795 -2.0839  0.2027 -1.7904
44861SOL    HW241442  12.292   0.379  11.770 -1.5176  0.9848  0.6936
44862SOL     OW41443   9.577   6.650   3.473  0.2215 -0.3169 -1.1256
44862SOL    HW141444   9.656   6.635   3.524  0.4091  0.3954 -1.1991
44862SOL    HW241445   9.608   6.651   3.382  0.1948  0.3919 -1.1266
44863SOL     OW41446   8.091   9.904   6.774 -0.1107 -0.4399  0.5153
44863SOL    HW141447   8.126   9.821   6.743 -0.1017 -0.6675  1.1249
44863SOL    HW241448   8.127   9.914   6.863  2.0112  1.4597 -0.4508
44864SOL     OW41449   5.113   1.947   4.254  0.6550 -0.0002  0.3945
44864SOL    HW141450   5.055   1.966   4.327 -0.2768  1.5301 -0.6752
44864SOL    HW241451   5.199   1.936   4.294  0.3314  1.6820  1.6799
44865SOL     OW41452  11.377   9.012  11.583  0.1854  0.6169  0.4757
44865SOL    HW141453  11.461   8.967  11.582 -0.1012  0.0651  0.4050
44865SOL    HW241454  11.398   9.103  11.565  0.6394  0.2382 -1.1009
44866SOL     OW41455   6.808   5.952   1.576  0.7196  0.0514  0.8329
44866SOL    HW141456   6.894   5.984   1.547 -0.0391  1.1606 -0.3081
44866SOL    HW241457   6.828   5.888   1.644  2.5501 -1.2746 -0.8261
44867SOL     OW41458   6.989   1.218   8.704  0.4595 -0.4809 -0.0289
44867SOL    HW141459   6.959   1.202   8.614  1.9718  0.3173 -0.7166
44867SOL    HW241460   6.912   1.251   8.749 -0.0705  0.1550 -1.3316
44868SOL     OW41461   7.267   7.201   9.779  0.3035  0.1102 -0.1696
44868SOL    HW141462   7.233   7.277   9.733 -0.1935 -0.1995 -0.3236
44868SOL    HW241463   7.224   7.204   9.865  0.2258 -0.0357 -0.2022
44869SOL     OW41464   6.426  12.209   8.679  0.1809  0.8021  0.3844
44869SOL    HW141465   6.484  12.238   8.748  0.4765  2.7899 -0.6131
44869SOL    HW241466   6.484  12.181   8.608 -0.0903  0.8397  0.1436
44870SOL     OW41467   2.232  12.238   5.586  0.2090  0.5493 -0.2374
44870SOL    HW141468   2.287  12.309   5.554  1.9651  0.4313  2.2398
44870SOL    HW241469   2.192  12.273   5.666 -0.3068 -0.6608  0.0568
44871SOL     OW41470   0.775   0.470  11.635  0.3526  0.1852  0.2152
44871SOL    HW141471   0.728   0.393  11.605  0.8600 -0.4224  0.9524
44871SOL    HW241472   0.861   0.438  11.661  1.0017  1.1908 -0.5771
44872SOL     OW41473   5.519  12.448   5.618  0.1431 -0.3441  0.1023
44872SOL    HW141474   5.527  12.402   5.702  0.9645 -1.6698 -0.6881
44872SOL    HW241475   5.609  12.468   5.592 -0.0310 -0.9515 -1.0108
44873SOL     OW41476   4.122  10.373   7.700 -0.2066 -0.1858  0.3189
44873SOL    HW141477   4.047  10.319   7.726 -0.2666 -0.5610 -0.5782
44873SOL    HW241478   4.089  10.424   7.625  0.7696 -1.2884 -0.9193
44874SOL     OW41479   8.950   5.232   2.788  0.2672 -0.0808 -0.5640
44874SOL    HW141480   9.039   5.209   2.817 -0.7717 -2.7624  0.8752
44874SOL    HW241481   8.926   5.307   2.842  2.2655  1.9885 -2.3414
44875SOL     OW41482   1.549   3.910   2.782  0.4866 -0.6875 -0.1365
44875SOL    HW141483   1.504   3.859   2.715  0.3345 -2.0726  0.9660
44875SOL    HW241484   1.578   3.844   2.846 -0.2186  0.6499  1.6388
44876SOL     OW41485   1.425  11.764   5.577 -0.2174 -0.3437 -0.2328
44876SOL    HW141486   1.483  11.767   5.501 -1.5301  1.1701 -1.2270
44876SOL    HW241487   1.436  11.675   5.612  0.4228 -1.0696 -2.1592
44877SOL     OW41488   3.393   5.887   4.028 -0.1556 -0.4552  0.3977
44877SOL    HW141489   3.351   5.805   4.055 -0.2455 -0.5224  0.0546
44877SOL    HW241490   3.472   5.860   3.982 -0.1710 -0.3506  0.3095
44878SOL     OW41491   7.758  11.233   8.916  0.0382 -0.3424  0.5545
44878SOL    HW141492   7.687  11.205   8.973 -0.9471  2.4593  0.8748
44878SOL    HW241493   7.748  11.179   8.837 -1.7888 -0.7544  1.0145
44879SOL     OW41494  10.307   4.914   1.240  0.5332 -0.4976 -0.0724
44879SOL    HW141495  10.363   4.990   1.225 -0.4378  0.5620  1.4401
44879SOL    HW241496  10.262   4.900   1.156  0.4133  0.8720 -0.2502
44880SOL     OW41497   6.081   7.728   3.584 -0.5349  0.0977 -0.0654
44880SOL    HW141498   6.073   7.747   3.491  1.2514 -0.7840 -0.4571
44880SOL    HW241499   6.081   7.813   3.627  0.1030  0.5988 -1.0345
44881SOL     OW41500   5.368   7.387   6.173 -0.1205  0.1689  0.0219
44881SOL    HW141501   5.301   7.445   6.136  0.0416  0.4261  0.1279
44881SOL    HW241502   5.333   7.361   6.258  0.1253  0.6819  0.2814
44882SOL     OW41503   9.711   3.504  12.252 -0.2380 -0.5915  0.0427
44882SOL    HW141504   9.784   3.565  12.265 -1.8221  1.0191  1.9026
44882SOL    HW241505   9.753   3.418  12.246  1.7834  0.1589  2.0656
44883SOL     OW41506   3.765   9.524   1.831 -0.2299  0.8981  0.3537
44883SOL    HW141507   3.854   9.498   1.854 -0.5393 -0.2206  0.3553
44883SOL    HW241508   3.734   9.575   1.905  0.2103  0.8053  0.6032
44884SOL     OW41509   5.591   6.410   8.071 -0.1311 -0.2203  0.0300
44884SOL    HW141510   5.637   6.493   8.074  2.1157 -1.3632 -0.8004
44884SOL    HW241511   5.596   6.383   7.979 -0.4067 -1.4927  0.3735
44885SOL     OW41512   5.469  11.273   9.168  0.2816 -0.1612  0.0695
44885SOL    HW141513   5.506  11.352   9.209 -0.0047 -0.3192  0.6466
44885SOL    HW241514   5.419  11.306   9.093 -1.1147  0.3771  1.1875
44886SOL     OW41515   1.290  12.403   4.941 -0.0288 -0.4555  0.6624
44886SOL    HW141516   1.238  12.332   4.901 -1.5018 -0.2149  2.0547
44886SOL    HW241517   1.349  12.359   5.001 -0.0499 -0.5821  0.5914
44887SOL     OW41518   8.150   3.749   2.534  0.2292  0.2913  0.1431
44887SOL    HW141519   8.093   3.724   2.606  0.8480  1.1835  0.9802
44887SOL    HW241520   8.194   3.668   2.508 -0.4743 -0.1564  0.3249
44888SOL     OW41521   6.208  10.762   5.980  0.2650 -0.0181  0.0683
44888SOL    HW141522   6.260  10.773   6.059  1.3722 -0.4793 -0.5739
44888SOL    HW241523   6.266  10.789   5.908 -0.9823  1.1738 -0.5466
44889SOL     OW41524  10.335   1.698  11.903  0.2538  0.0880 -0.2599
44889SOL    HW141525  10.277   1.769  11.875  0.0387  0.2070  0.4640
44889SOL    HW241526  10.278   1.622  11.909 -0.2853  0.6182  2.3270
44890SOL     OW41527  11.327   5.761   3.831  0.2903  0.0686 -0.5538
44890SOL    HW141528  11.240   5.787   3.861  0.0504 -0.5952 -0.6460
44890SOL    HW241529  11.374   5.843   3.821 -0.4831  0.4782 -0.9760
44891SOL     OW41530   3.718   9.359   8.759  0.4511 -1.0711  0.4781
44891SOL    HW141531   3.692   9.361   8.667  1.8541  1.2220  0.0492
44891SOL    HW241532   3.775   9.283   8.767  1.1606 -0.7018 -0.8314
44892SOL     OW41533  10.031   2.653   3.725 -0.2488 -0.4125  0.0444
44892SOL    HW141534   9.938   2.646   3.706 -0.6958  0.4125  1.7065
44892SOL    HW241535  10.039   2.730   3.782  1.1803 -1.4900  1.4171
44893SOL     OW41536  11.541   4.656   0.615 -0.1106 -0.1497  1.0422
44893SOL    HW141537  11.457   4.631   0.575  0.1461  0.9594 -0.2568
44893SOL    HW241538  11.528   4.746   0.645  0.6629  0.1062  0.6480
44894SOL     OW41539   2.709   5.550   0.768  0.5467  0.4171 -0.0993
44894SOL    HW141540   2.614   5.548   0.779  0.5934  1.0579  0.4258
44894SOL    HW241541   2.725   5.618   0.703  0.3900 -2.2805 -3.2143
44895SOL     OW41542   5.636  12.048   6.574 -0.3049 -0.5349  0.1159
44895SOL    HW141543   5.626  11.989   6.649 -0.3580  0.5297  0.9624
44895SOL    HW241544   5.554  12.096   6.571 -0.7049 -1.2564 -1.2579
44896SOL     OW41545   3.292   2.161   4.855 -0.0440 -0.5048  0.2625
44896SOL    HW141546   3.312   2.097   4.786  2.2932  1.2318 -0.8213
44896SOL    HW241547   3.248   2.233   4.810  0.1489 -0.0125  0.8394
44897SOL     OW41548   8.534   7.560   3.219  0.3677 -0.2531  0.5144
44897SOL    HW141549   8.608   7.520   3.265 -0.3085 -3.2286 -0.7538
44897SOL    HW241550   8.553   7.546   3.126 -2.2320 -2.1360  0.1763
44898SOL     OW41551   4.869   0.864  11.096 -0.4109 -0.0271  0.1539
44898SOL    HW141552   4.961   0.886  11.080 -0.9503  0.7462 -2.3033
44898SOL    HW241553   4.873   0.783  11.147  1.6488 -0.4597 -0.5718
44899SOL     OW41554   3.203   5.005  10.615  0.2299  0.0584 -0.0669
44899SOL    HW141555   3.249   5.059  10.679 -0.6072  0.6444  0.0569
44899SOL    HW241556   3.155   4.941  10.668 -2.6933  2.2422  0.1620
44900SOL     OW41557   5.295   8.809   2.754 -0.2157 -0.3811 -0.2301
44900SOL    HW141558   5.252   8.894   2.737  1.6046  0.3579 -1.4370
44900SOL    HW241559   5.222   8.748   2.764 -1.5976  1.2916  0.6303
44901SOL     OW41560   3.617   4.467   5.187 -0.0400  0.0461 -0.2429
44901SOL    HW141561   3.529   4.501   5.172 -0.3363  0.0234  1.2485
44901SOL    HW241562   3.621   4.452   5.282  1.0794 -1.3122 -0.4684
44902SOL     OW41563   7.065   3.443   0.161  0.3791  0.2045 -0.1843
44902SOL    HW141564   7.147   3.425   0.115 -0.0726  0.9264 -1.3255
44902SOL    HW241565   7.020   3.507   0.105 -0.0973  1.3211  1.4094
44903SOL     OW41566   9.053  12.197  11.546 -0.2888 -0.0082 -0.2175
44903SOL    HW141567   9.078  12.272  11.600  1.4928  0.0877 -1.1225
44903SOL    HW241568   9.115  12.128  11.571 -1.8864 -1.2322  0.5991
44904SOL     OW41569   9.829   3.146  11.645 -0.1335 -0.8501  0.5350
44904SOL    HW141570   9.901   3.209  11.642 -0.7004 -0.2022 -2.3847
44904SOL    HW241571   9.872   3.061  11.652  1.0355 -0.5161 -1.6626
44905SOL     OW41572   3.824  12.007   6.539  0.1548 -0.0144 -0.1522
44905SOL    HW141573   3.861  12.074   6.598  1.4244 -0.1197 -0.8020
44905SOL    HW241574   3.864  12.025   6.454  0.7559 -1.7772 -0.2764
44906SOL     OW41575   3.293   5.946   8.209 -0.4713  0.3990  0.7756
44906SOL    HW141576   3.371   5.962   8.156 -1.6962  1.0619 -0.9127
44906SOL    HW241577   3.316   5.979   8.296  0.9344  1.0823  0.1811
44907SOL     OW41578   6.335   2.596   3.877 -0.1014  0.5782 -0.1355
44907SOL    HW141579   6.333   2.690   3.899 -2.3162  0.8247 -1.1515
44907SOL    HW241580   6.261   2.583   3.819  0.3457 -1.7840 -0.2836
44908SOL     OW41581   1.961   1.217   4.923  0.1186  0.1383 -0.4785
44908SOL    HW141582   1.999   1.146   4.976 -4.5998 -1.5706  1.1661
44908SOL    HW241583   1.939   1.285   4.987 -0.3451  0.6383 -1.1567
44909SOL     OW41584  10.183  10.988   4.119 -0.5441  0.0021  0.2092
44909SOL    HW141585  10.143  10.995   4.206 -1.0829  0.4848 -0.0720
44909SOL    HW241586  10.278  10.988   4.136 -0.5810 -3.4086  1.0774
44910SOL     OW41587   8.669  12.506   9.440 -0.8993  0.0347  0.0570
44910SOL    HW141588   8.622  12.542   9.364 -2.1911  2.0829  1.7130
44910SOL    HW241589   8.642  12.561   9.513  3.5095  0.8723  1.3329
44911SOL     OW41590   7.735   5.687   9.313 -0.1511 -0.2467 -0.4225
44911SOL    HW141591   7.823   5.678   9.352  0.2101  2.2088 -0.5334
44911SOL    HW241592   7.723   5.607   9.263  1.4214 -1.2886  0.7600
44912SOL     OW41593   2.650   8.628   8.277  0.1594 -0.0872  0.0430
44912SOL    HW141594   2.597   8.550   8.261  0.1718 -0.2785  0.9149
44912SOL    HW241595   2.653   8.636   8.372  0.7534  0.5716 -0.0257
44913SOL     OW41596   7.922  12.321   9.769  0.8946  0.2285 -0.7208
44913SOL    HW141597   7.926  12.336   9.674  1.0471  0.8731 -0.6183
44913SOL    HW241598   7.893  12.405   9.805  1.5817  0.2248 -0.1317
44914SOL     OW41599   8.786   9.677   6.938  0.0665 -0.5610 -0.0090
44914SOL    HW141600   8.703   9.723   6.925 -1.0342 -2.0365  1.3444
44914SOL    HW241601   8.773   9.627   7.019  2.2940 -0.8395  0.2522
44915SOL     OW41602   6.875   6.310   0.889  0.4267 -0.8681  0.2916
44915SOL    HW141603   6.782   6.291   0.880  0.8918 -3.7465  0.5641
44915SOL    HW241604   6.894   6.298   0.982  0.9980  0.1357  0.3191
44916SOL     OW41605  11.625   6.549   7.236  0.0810 -0.1814  0.6312
44916SOL    HW141606  11.668   6.570   7.154  0.2682 -0.8812  0.5377
44916SOL    HW241607  11.552   6.491   7.211 -0.4606  0.3921  0.8605
44917SOL     OW41608   3.459   2.127  11.822  0.8963  0.2351 -0.0252
44917SOL    HW141609   3.546   2.169  11.822  2.2929 -2.3375  2.2396
44917SOL    HW241610   3.466   2.058  11.756 -0.7719  2.1976 -2.4236
44918SOL     OW41611   1.719   7.542   6.385 -0.1295 -0.2479  0.1652
44918SOL    HW141612   1.786   7.543   6.453 -1.2405  0.4552  1.2947
44918SOL    HW241613   1.768   7.541   6.303  1.2516 -1.2153  0.9492
44919SOL     OW41614   9.118   7.915  10.068  0.6138  0.3522  0.1151
44919SOL    HW141615   9.024   7.930  10.066  0.6576  0.6213 -0.0088
44919SOL    HW241616   9.147   7.952  10.151  0.5914  0.1589  0.2080
44920SOL     OW41617   0.840   3.415  11.782 -0.1666 -0.0210  0.2787
44920SOL    HW141618   0.915   3.458  11.741 -0.6443  0.0446 -0.5419
44920SOL    HW241619   0.871   3.327  11.803  1.0201  0.8502  2.5260
44921SOL     OW41620   1.526   8.501   0.851  0.0395  0.0158  0.3346
44921SOL    HW141621   1.555   8.552   0.927  1.9255  0.2563 -0.4782
44921SOL    HW241622   1.493   8.565   0.789  0.3107  0.0277  0.2002
44922SOL     OW41623   4.217   7.540   8.981  0.3468 -0.4415 -0.2118
44922SOL    HW141624   4.204   7.533   8.887  0.1693 -1.4939 -0.1269
44922SOL    HW241625   4.132   7.521   9.019  0.3570  0.2252  0.1651
44923SOL     OW41626   9.702   5.620   1.394  0.2121 -0.0612 -0.2270
44923SOL    HW141627   9.617   5.614   1.352  0.5547 -0.0531 -0.9270
44923SOL    HW241628   9.752   5.546   1.360  1.3508  1.3657 -1.8524
44924SOL     OW41629  11.957   3.320   5.668 -0.1056 -0.0105 -0.3878
44924SOL    HW141630  11.996   3.244   5.711  0.7760  0.6817  0.0678
44924SOL    HW241631  11.875   3.287   5.631 -0.1664 -0.9707  0.5546
44925SOL     OW41632   1.730  10.614  11.573  0.1999 -0.1339  0.1861
44925SOL    HW141633   1.760  10.644  11.487 -1.7852 -2.8925 -1.6335
44925SOL    HW241634   1.803  10.563  11.607  0.6146  0.0651 -0.3834
44926SOL     OW41635   8.254   4.368   4.757  0.1074 -0.1829 -0.2110
44926SOL    HW141636   8.294   4.454   4.761  1.3171 -0.7473  0.5661
44926SOL    HW241637   8.193   4.372   4.683 -1.0308  1.7977  0.7670
44927SOL     OW41638   0.851   7.107   9.010 -0.1430  0.3715  0.2722
44927SOL    HW141639   0.833   7.014   9.020  1.1763  0.2438  1.9441
44927SOL    HW241640   0.942   7.117   9.036  0.3587  1.8609 -1.8052
44928SOL     OW41641   6.673   1.538   6.760 -0.6082  0.2802  0.3407
44928SOL    HW141642   6.737   1.467   6.755 -1.4778 -0.6520  1.7943
44928SOL    HW241643   6.589   1.496   6.743 -1.2747  0.6882  2.3416
44929SOL     OW41644   9.835   5.443   1.227  0.4242 -0.2055  0.2043
44929SOL    HW141645   9.798   5.357   1.247  0.2076 -0.0292  0.5550
44929SOL    HW241646   9.815   5.456   1.134  2.0650 -1.3358 -0.3504
44930SOL     OW41647   2.161   7.141  11.400 -0.0816 -0.3937 -0.1552
44930SOL    HW141648   2.207   7.198  11.463  1.2955  0.0785 -1.5366
44930SOL    HW241649   2.119   7.202  11.340 -0.2001 -0.8452 -0.5328
44931SOL     OW41650   3.394   2.999   6.241  0.3759  0.3397  0.3856
44931SOL    HW141651   3.443   2.917   6.246  1.4303  1.0067  1.3022
44931SOL    HW241652   3.390   3.031   6.331 -1.1582  0.6660  0.2446
44932SOL     OW41653   5.215   5.102   3.499 -0.2896  0.0508  0.1260
44932SOL    HW141654   5.132   5.123   3.542 -1.2298 -1.6936 -0.7574
44932SOL    HW241655   5.239   5.183   3.453 -1.8149  0.3990 -0.1179
44933SOL     OW41656  12.471   3.957   0.129  0.2171 -0.2010  0.8045
44933SOL    HW141657  12.549   3.924   0.083  1.5943  2.0325  1.3997
44933SOL    HW241658  12.492   3.946   0.221 -2.0643 -3.5864  1.0883
44934SOL     OW41659   5.091   6.841  12.111 -0.2893  0.0130  0.0214
44934SOL    HW141660   4.999   6.859  12.129  0.1850  0.5547  2.2005
44934SOL    HW241661   5.096   6.746  12.105 -1.1295  0.0166 -1.2400
44935SOL     OW41662  10.452   7.222   5.730 -0.2998  0.1782  0.8839
44935SOL    HW141663  10.387   7.279   5.690 -0.8416  0.0421  1.5629
44935SOL    HW241664  10.478   7.268   5.810 -0.6557 -0.4637  1.3751
44936SOL     OW41665  11.417   2.097   5.298  0.4202  0.3337  0.0993
44936SOL    HW141666  11.357   2.047   5.242 -0.7028  0.4238  1.1695
44936SOL    HW241667  11.382   2.186   5.296 -0.7385 -0.0022  2.3170
44937SOL     OW41668   7.950   7.238   2.071 -0.4364 -0.3065 -0.1090
44937SOL    HW141669   8.029   7.278   2.108 -0.0311 -0.0888 -1.1630
44937SOL    HW241670   7.972   7.145   2.063 -0.4545 -0.3220  0.0197
44938SOL     OW41671   0.194   5.388   1.736 -0.0360 -0.0734  0.0842
44938SOL    HW141672   0.157   5.378   1.824 -0.8887 -1.8833 -0.4215
44938SOL    HW241673   0.198   5.482   1.721 -1.1513  0.2269  1.5375
44939SOL     OW41674  11.686   3.960   2.430  0.2932  0.0479  0.3460
44939SOL    HW141675  11.641   4.036   2.467 -2.0149 -1.5868  1.2040
44939SOL    HW241676  11.642   3.946   2.346 -0.6256 -1.3464  1.0175
44940SOL     OW41677   5.935   3.055   8.114  0.3301 -0.4858  0.2619
44940SOL    HW141678   5.907   3.136   8.157  0.8302  0.2420 -0.7339
44940SOL    HW241679   6.002   3.019   8.172  2.1523  1.3059 -0.6035
44941SOL     OW41680   3.531  10.518   5.844  0.1835  0.1813  0.5369
44941SOL    HW141681   3.589  10.566   5.903  1.9489 -0.4634 -0.5719
44941SOL    HW241682   3.487  10.586   5.793  1.2189  0.6962  0.2891
44942SOL     OW41683   8.427   3.617   2.098  0.4435  0.2324 -0.1661
44942SOL    HW141684   8.470   3.699   2.122  0.5090  0.6897 -1.7374
44942SOL    HW241685   8.375   3.639   2.021 -1.8327 -0.5470  1.0729
44943SOL     OW41686   5.051   2.076   1.577  0.2191 -0.3175  0.6392
44943SOL    HW141687   5.077   2.042   1.662 -0.2415  0.5521  1.1466
44943SOL    HW241688   4.956   2.074   1.578  0.2192 -0.7511 -0.0486
44944SOL     OW41689   9.411  11.445  11.083 -0.0319  0.0895 -0.0607
44944SOL    HW141690   9.326  11.400  11.077  0.2092 -0.2683 -0.9134
44944SOL    HW241691   9.431  11.471  10.993  0.1495  1.3391  0.3277
44945SOL     OW41692   7.187   0.166   8.807 -0.1799 -0.1004 -0.9450
44945SOL    HW141693   7.153   0.112   8.878  0.6303  3.0028  2.0790
44945SOL    HW241694   7.110   0.191   8.756 -1.1353 -0.5116  0.2560
44946SOL     OW41695   6.216   6.228   9.284 -0.5448  0.7262 -0.3596
44946SOL    HW141696   6.155   6.174   9.233  0.2651 -0.5730 -0.0179
44946SOL    HW241697   6.242   6.298   9.225 -1.1372  0.3748 -1.0542
44947SOL     OW41698   7.344  10.164   2.350  0.1510 -0.2576  0.1042
44947SOL    HW141699   7.353  10.147   2.256  0.2925  0.1941  0.0347
44947SOL    HW241700   7.305  10.084   2.385 -0.1685 -0.3180 -0.3852
44948SOL     OW41701   9.083   0.416   1.132 -1.0937 -0.0146  0.3599
44948SOL    HW141702   9.072   0.415   1.037  2.6265 -1.1181 -0.2506
44948SOL    HW241703   9.136   0.494   1.149 -3.8417  1.6378  1.9962
44949SOL     OW41704   6.936   7.946  10.792  0.3137  0.0806  0.3601
44949SOL    HW141705   6.854   7.925  10.838 -0.0229  0.9195  0.1672
44949SOL    HW241706   6.912   7.948  10.700  0.5833  0.1886  0.2921
44950SOL     OW41707   7.610  10.900  10.534  0.0853 -0.3605  0.3656
44950SOL    HW141708   7.539  10.836  10.535  1.4901 -2.0920 -1.5764
44950SOL    HW241709   7.574  10.976  10.580 -3.0941 -1.0575 -0.6832
44951SOL     OW41710  10.275   4.330   3.414  1.1430 -0.2550  0.0260
44951SOL    HW141711  10.253   4.266   3.346  0.4178 -1.5476  1.4032
44951SOL    HW241712  10.334   4.283   3.472  0.6750  0.3517  1.0195
44952SOL     OW41713  10.001   4.901  10.011  0.0374 -0.0944  0.5330
44952SOL    HW141714  10.059   4.976  10.022 -0.9791  0.7288  0.4930
44952SOL    HW241715  10.032   4.858   9.931  1.3558 -0.4159  1.1846
44953SOL     OW41716  11.482  12.009   0.865  0.6527  0.4381 -0.6902
44953SOL    HW141717  11.423  11.978   0.797 -0.3719  1.2534 -0.2107
44953SOL    HW241718  11.530  11.931   0.894 -1.6358 -0.7011  0.2961
44954SOL     OW41719  12.070   8.027   4.875 -0.2831  0.2045  0.1179
44954SOL    HW141720  12.036   7.972   4.946 -0.6400  0.1172 -0.1165
44954SOL    HW241721  12.081   7.966   4.802 -0.3872  0.3890 -0.0504
44955SOL     OW41722   3.079   3.335   5.056  0.3102 -0.0379 -0.4027
44955SOL    HW141723   3.014   3.385   5.007  0.9996  1.8245  0.4597
44955SOL    HW241724   3.161   3.353   5.011  0.6998  0.3739  0.4368
44956SOL     OW41725  12.229   2.632   1.860 -0.7484 -0.3552  0.1858
44956SOL    HW141726  12.207   2.722   1.834 -0.9367 -0.7927 -1.2249
44956SOL    HW241727  12.188   2.622   1.946 -0.3898  1.0320  0.5545
44957SOL     OW41728   3.653   9.435   9.841  0.0910  0.9955 -0.4212
44957SOL    HW141729   3.746   9.413   9.837 -0.4207 -1.5706  0.2405
44957SOL    HW241730   3.633   9.437   9.934 -0.4562  2.0844 -0.5408
44958SOL     OW41731  10.189  10.224   4.882  0.3631 -0.2053 -0.1882
44958SOL    HW141732  10.278  10.212   4.914 -0.4940 -0.6357  2.2152
44958SOL    HW241733  10.189  10.311   4.842  1.6296  0.1779  0.6000
44959SOL     OW41734   4.280   0.966   9.828 -0.4264  0.0363 -0.0869
44959SOL    HW141735   4.216   0.901   9.798 -0.3924  0.4409 -1.0875
44959SOL    HW241736   4.246   1.049   9.795 -0.2895  0.4818  0.8826
44960SOL     OW41737   2.278   3.567   2.985  0.2172  0.3846  0.0359
44960SOL    HW141738   2.355   3.606   3.026  1.4753 -2.3863  0.5081
44960SOL    HW241739   2.233   3.522   3.056 -0.2620 -0.4136 -0.7485
44961SOL     OW41740   2.755  10.671  10.520 -0.5037  0.2544  0.0387
44961SOL    HW141741   2.684  10.611  10.544  1.4843 -2.9880 -1.5020
44961SOL    HW241742   2.822  10.656  10.587 -0.8721  2.7842  1.0913
44962SOL     OW41743   6.734  11.017   9.815  0.2199  0.7566 -0.4110
44962SOL    HW141744   6.685  10.949   9.768 -1.1733 -1.2472  3.5357
44962SOL    HW241745   6.671  11.090   9.824 -0.2263  0.3217  0.0580
44963SOL     OW41746   5.305   0.005   9.762 -0.6360  0.1235  0.2249
44963SOL    HW141747   5.320   0.085   9.811  2.3360 -1.1408  1.6174
44963SOL    HW241748   5.330   0.027   9.672  0.8013  0.6191  0.7222
44964SOL     OW41749   3.553   8.149   7.475 -0.0813  0.0662  0.0744
44964SOL    HW141750   3.469   8.139   7.520 -0.5588 -0.2746 -0.8815
44964SOL    HW241751   3.593   8.225   7.517 -0.7752  0.1153  0.6714
44965SOL     OW41752   0.119   0.615  11.912  0.1049 -0.8839  0.5510
44965SOL    HW141753   0.137   0.707  11.930  1.5582 -0.6898 -1.5310
44965SOL    HW241754   0.164   0.568  11.982 -1.1701 -0.0366  1.9936
44966SOL     OW41755   3.514   0.178   2.754 -0.7881 -0.1077  0.4888
44966SOL    HW141756   3.419   0.179   2.762 -0.7792  0.6451  0.6587
44966SOL    HW241757   3.530   0.181   2.660 -0.9134 -2.3342  0.3623
44967SOL     OW41758   6.699   6.084   4.470 -0.3284 -0.0585  0.1275
44967SOL    HW141759   6.650   6.040   4.400 -0.2054 -2.4082  1.4100
44967SOL    HW241760   6.713   6.016   4.536  2.4133  1.2115  0.9961
44968SOL     OW41761   3.388  10.896   0.473  0.1014 -0.7551  0.4087
44968SOL    HW141762   3.322  10.892   0.542 -0.1467 -1.1366  0.1563
44968SOL    HW241763   3.379  10.813   0.426  1.7928 -1.5070  1.3044
44969SOL     OW41764   1.897   1.661  10.607 -0.0668  0.4061 -0.1230
44969SOL    HW141765   1.957   1.728  10.574  0.4986 -0.0816 -0.0999
44969SOL    HW241766   1.885   1.601  10.533 -0.3176  0.3531 -0.0416
44970SOL     OW41767   8.547   6.348  12.238  0.4565 -0.5908 -0.0863
44970SOL    HW141768   8.553   6.256  12.261 -1.0500 -1.2528 -2.0743
44970SOL    HW241769   8.638   6.376  12.226  0.9089 -1.9893 -0.0847
44971SOL     OW41770  10.268   2.664  11.407  0.3956 -0.2057 -0.1593
44971SOL    HW141771  10.301   2.585  11.364 -0.3769 -1.0044  0.6845
44971SOL    HW241772  10.262   2.729  11.337  2.8102 -0.3026 -0.5319
44972SOL     OW41773   9.719   9.448   9.506  0.3688 -0.0650 -0.1690
44972SOL    HW141774   9.712   9.439   9.600 -3.2718  0.9590 -0.2162
44972SOL    HW241775   9.716   9.543   9.490  1.4623 -0.1828 -1.3533
44973SOL     OW41776   7.834  11.209   2.216 -0.5099 -0.0304 -0.0925
44973SOL    HW141777   7.915  11.258   2.230 -0.6909 -0.1034  1.3978
44973SOL    HW241778   7.844  11.171   2.129  1.4477 -0.7428  0.3771
44974SOL     OW41779  11.611   8.579   5.607  0.0045  0.6814 -0.9386
44974SOL    HW141780  11.566   8.650   5.653  0.8151  0.4070  0.3301
44974SOL    HW241781  11.703   8.588   5.632 -0.0814 -1.8052  0.6860
44975SOL     OW41782   2.531   2.760   0.820  0.1487 -0.1171 -0.0732
44975SOL    HW141783   2.442   2.730   0.805  0.5962 -0.8462 -1.4236
44975SOL    HW241784   2.586   2.685   0.796  1.0931 -0.5819  3.0664
44976SOL     OW41785   9.791   9.254   9.835 -0.1842  0.3184  0.0916
44976SOL    HW141786   9.772   9.172   9.880  0.6617  1.3525  2.5015
44976SOL    HW241787   9.856   9.231   9.768 -1.0656 -1.1905 -0.2810
44977SOL     OW41788   0.680   7.585   4.645  0.1123  0.1072 -0.2111
44977SOL    HW141789   0.606   7.567   4.587 -0.9613  0.7107  0.9475
44977SOL    HW241790   0.737   7.509   4.635 -1.4656 -1.1549  0.1327
44978SOL     OW41791   9.482  10.585   3.736  0.3763 -0.0095  0.2593
44978SOL    HW141792   9.445  10.673   3.741  0.1482 -0.1477  1.1687
44978SOL    HW241793   9.459  10.544   3.820  1.8539 -0.3797  0.5237
44979SOL     OW41794  10.036   8.746   8.782  0.6705 -0.3287 -0.4035
44979SOL    HW141795  10.125   8.739   8.815  0.4607  1.7762  0.7783
44979SOL    HW241796   9.985   8.685   8.836  0.9930  0.2834  0.6172
44980SOL     OW41797   7.833   4.798   2.215 -0.5312  0.4333  0.1603
44980SOL    HW141798   7.760   4.826   2.270 -0.2302  0.9276  0.3122
44980SOL    HW241799   7.909   4.798   2.274 -0.4884 -0.5252  0.1200
44981SOL     OW41800   7.413   8.180   3.779 -0.3685 -0.7485  0.1758
44981SOL    HW141801   7.492   8.136   3.811 -0.4507 -0.8249  0.2760
44981SOL    HW241802   7.360   8.110   3.740  0.2564 -0.4856 -1.2143
44982SOL     OW41803   7.812   6.956   5.448 -0.1471  1.0423 -0.3841
44982SOL    HW141804   7.734   6.902   5.435  0.1041  0.7213 -0.5813
44982SOL    HW241805   7.811   6.979   5.541 -1.3814  2.4489 -0.7074
44983SOL     OW41806   1.360   0.536   3.523 -0.3742 -0.1790  0.2422
44983SOL    HW141807   1.433   0.506   3.468 -0.0896  1.4481 -0.3038
44983SOL    HW241808   1.312   0.597   3.468 -1.7598 -0.6843  0.8572
44984SOL     OW41809   9.756   8.937  11.894  0.2142 -0.5853 -0.1506
44984SOL    HW141810   9.680   8.905  11.942  0.8074 -1.3081  0.3415
44984SOL    HW241811   9.722   9.004  11.835 -0.6012  0.0941  1.0461
44985SOL     OW41812   1.684   0.645   6.137 -0.0838  0.3822  0.0461
44985SOL    HW141813   1.778   0.659   6.132  0.1364 -1.1057 -0.3882
44985SOL    HW241814   1.654   0.649   6.046  0.1659 -2.7387 -0.2731
44986SOL     OW41815   4.427   0.596   5.572  0.1686  0.1399 -0.0260
44986SOL    HW141816   4.513   0.555   5.585  0.8477  0.6366 -2.3676
44986SOL    HW241817   4.439   0.686   5.603  0.1540 -0.0956  0.6693
44987SOL     OW41818   2.697  10.795   1.413 -0.1008  0.3645 -0.2058
44987SOL    HW141819   2.640  10.840   1.475  1.7233  1.6719  0.5903
44987SOL    HW241820   2.724  10.715   1.459  1.8186  1.6699  1.0695
44988SOL     OW41821   2.182   0.306   7.873  0.0646 -0.2475  0.1082
44988SOL    HW141822   2.161   0.379   7.814 -0.6047  0.8469  1.6181
44988SOL    HW241823   2.160   0.227   7.824 -1.1181  0.6532 -0.8620
44989SOL     OW41824   4.297   5.842   7.538 -0.4315 -0.3687 -0.1016
44989SOL    HW141825   4.373   5.786   7.521 -0.1850  0.3185 -1.4104
44989SOL    HW241826   4.334   5.930   7.547 -1.0059 -0.1264 -0.0753
44990SOL     OW41827   6.205   2.801  10.698  0.1005 -0.3503 -0.1266
44990SOL    HW141828   6.172   2.735  10.759 -0.4123  0.1528  0.1443
44990SOL    HW241829   6.298   2.808  10.720  0.0539 -0.6281  0.1754
44991SOL     OW41830   3.570   7.876   6.783  0.1982  0.0934 -0.1364
44991SOL    HW141831   3.652   7.908   6.820  0.2604 -1.5273  1.2447
44991SOL    HW241832   3.506   7.943   6.807  1.0420  1.2667 -1.0391
44992SOL     OW41833  10.311   6.233   9.548 -0.3982  0.2111  0.2656
44992SOL    HW141834  10.245   6.288   9.590 -0.1661  0.5731  0.1690
44992SOL    HW241835  10.392   6.252   9.595  0.3106  2.1625 -1.5600
44993SOL     OW41836   2.849   2.091   4.879  0.6282  0.1350  0.4270
44993SOL    HW141837   2.777   2.051   4.829  1.5126 -0.9230 -0.0437
44993SOL    HW241838   2.808   2.123   4.959 -0.4633  0.0647 -0.0828
44994SOL     OW41839   0.644   2.907   7.931  0.1700  0.2983 -0.3543
44994SOL    HW141840   0.617   2.834   7.987 -1.7629 -0.2410 -1.8757
44994SOL    HW241841   0.735   2.924   7.956  0.0169 -1.2324  1.4963
44995SOL     OW41842   6.527   3.863   1.538  0.1801  0.0325  0.1768
44995SOL    HW141843   6.580   3.810   1.597 -1.5561  0.5044  2.2999
44995SOL    HW241844   6.437   3.834   1.553 -0.4973  1.3774 -0.9884
44996SOL     OW41845   1.574  10.309  12.565 -0.3209  0.0021  0.0575
44996SOL    HW141846   1.550  10.272  12.650  0.1954  0.1826  0.2877
44996SOL    HW241847   1.545  10.244  12.501  0.2411 -0.6399  0.4335
44997SOL     OW41848   6.296   4.015   7.869  0.0909 -0.0537 -0.7328
44997SOL    HW141849   6.342   3.991   7.949 -0.8486  0.7738  0.0941
44997SOL    HW241850   6.204   4.022   7.896 -0.8510 -3.2547 -2.6490
44998SOL     OW41851   0.615   7.752  10.613 -0.2046 -0.4552  0.0267
44998SOL    HW141852   0.657   7.793  10.537 -0.9795 -2.5130 -1.5961
44998SOL    HW241853   0.532   7.718  10.580 -0.5759 -1.4090  1.7971
44999SOL     OW41854   7.858  10.100   6.143 -0.8599  0.3070  0.2578
44999SOL    HW141855   7.874  10.122   6.235  0.5945  1.0444 -0.1487
44999SOL    HW241856   7.875  10.182   6.096 -1.5263 -0.0852 -0.6771
45000SOL     OW41857   2.640   9.916   3.594  0.2790 -0.0955 -0.1451
45000SOL    HW141858   2.575   9.858   3.635  1.5989 -1.5506 -0.0080
45000SOL    HW241859   2.719   9.904   3.646  0.7676  1.4410 -0.4694
45001SOL     OW41860   5.859   2.742  10.070  0.3755 -0.2114 -0.7139
45001SOL    HW141861   5.881   2.653  10.044 -0.8710 -0.0880 -2.2951
45001SOL    HW241862   5.943   2.781  10.096  0.7227 -2.3734  1.9064
45002SOL     OW41863  11.658   0.610  11.712  0.2268 -0.1580  0.3554
45002SOL    HW141864  11.732   0.614  11.773 -0.8654 -1.4938  1.8734
45002SOL    HW241865  11.581   0.624  11.767 -0.6624  3.8915 -1.5598
45003SOL     OW41866   8.307   2.474   3.898  0.3806 -0.1554 -0.5396
45003SOL    HW141867   8.220   2.508   3.877  0.8616  2.5612  1.3247
45003SOL    HW241868   8.303   2.456   3.992  1.4544 -1.3898 -0.7027
45004SOL     OW41869   8.823   4.524   7.860 -0.3792  1.0359  0.6217
45004SOL    HW141870   8.803   4.464   7.788 -0.6841 -0.0769  1.6242
45004SOL    HW241871   8.794   4.479   7.939 -0.5420  2.4626  1.4194
45005SOL     OW41872   0.971   2.808   6.819 -0.0993  0.3744  0.0096
45005SOL    HW141873   0.994   2.832   6.730  1.7282  0.2802  0.4115
45005SOL    HW241874   1.025   2.731   6.838 -1.9934 -0.8939  0.5074
45006SOL     OW41875  10.172  11.867   4.673 -0.2493 -0.3325  0.1314
45006SOL    HW141876  10.152  11.844   4.763  0.8029 -1.4158  0.1076
45006SOL    HW241877  10.195  11.960   4.677 -1.6224  0.0006  0.7259
45007SOL     OW41878   3.882   3.598   3.737 -0.6289 -0.3835 -0.0500
45007SOL    HW141879   3.913   3.618   3.649 -0.7061 -0.1964 -0.0363
45007SOL    HW241880   3.787   3.595   3.730 -0.6065 -1.0007 -0.1002
45008SOL     OW41881   2.729   6.178   5.952  0.5417 -0.0926  0.0182
45008SOL    HW141882   2.787   6.128   5.895  0.9074  0.3259  0.0218
45008SOL    HW241883   2.647   6.186   5.903  0.8078  0.1486 -0.3918
45009SOL     OW41884   6.902   8.005   2.620 -0.0136  0.0969 -0.5108
45009SOL    HW141885   6.929   8.054   2.543 -1.3692  1.3503 -0.2335
45009SOL    HW241886   6.961   7.929   2.622  0.8397  0.6691 -2.0682
45010SOL     OW41887  12.119   8.965   7.419  0.3673 -0.0115 -0.1320
45010SOL    HW141888  12.063   9.041   7.432  1.8239  1.2215 -0.8154
45010SOL    HW241889  12.140   8.935   7.508  0.6215  1.0271  0.1698
45011SOL     OW41890   6.748   6.587   2.876  0.2245 -0.0708  0.4559
45011SOL    HW141891   6.773   6.662   2.822 -2.3985  0.4910 -0.0889
45011SOL    HW241892   6.761   6.511   2.819 -0.8910  0.3614 -0.4049
45012SOL     OW41893   3.177  10.153   7.361  0.1193  0.1652 -0.8636
45012SOL    HW141894   3.263  10.195   7.356 -0.6090  2.2822  2.0082
45012SOL    HW241895   3.197  10.059   7.368  2.4592  0.7227  2.1253
45013SOL     OW41896   1.106   7.128   4.847 -0.2917 -0.0185  0.2243
45013SOL    HW141897   1.014   7.108   4.830 -0.8667  1.7481  1.0969
45013SOL    HW241898   1.105   7.214   4.888  1.7333 -0.1665  0.6699
45014SOL     OW41899   3.692   1.048   5.293 -0.1410 -0.1740  0.0314
45014SOL    HW141900   3.682   1.053   5.198 -0.5179 -0.0581  0.0758
45014SOL    HW241901   3.786   1.039   5.307 -0.2498 -3.3071 -0.5064
45015SOL     OW41902   2.763   5.368   8.793  0.0571 -0.0739  0.1347
45015SOL    HW141903   2.759   5.460   8.819  0.2596  0.0184 -0.1495
45015SOL    HW241904   2.759   5.370   8.697 -1.0487 -0.4239  0.1549
45016SOL     OW41905   3.373  10.250   0.286 -0.3465 -0.0111  0.3311
45016SOL    HW141906   3.291  10.208   0.258  0.8799 -1.3726 -1.3783
45016SOL    HW241907   3.413  10.186   0.345 -0.5128  0.7036  1.2538
45017SOL     OW41908  11.563   9.823   8.244  0.2332 -0.6877 -0.2433
45017SOL    HW141909  11.657   9.836   8.257  0.2365 -1.7672  1.0047
45017SOL    HW241910  11.555   9.734   8.209 -0.2507 -0.0600 -1.8365
45018SOL     OW41911   8.332   3.568   2.361  0.2029  0.0926 -0.0052
45018SOL    HW141912   8.373   3.563   2.275  0.2875 -1.3119  0.0967
45018SOL    HW241913   8.397   3.532   2.422 -0.5506 -0.6713  0.3779
45019SOL     OW41914   2.367  11.778   9.995  0.1410  0.2882  0.6064
45019SOL    HW141915   2.406  11.769  10.082  0.2097 -0.4560  0.5042
45019SOL    HW241916   2.366  11.873   9.979  3.2039  0.3466  0.0520
45020SOL     OW41917   9.180   7.716   2.670 -0.2158 -0.2237 -0.3280
45020SOL    HW141918   9.116   7.646   2.664  0.6671 -1.0771 -0.1560
45020SOL    HW241919   9.254   7.677   2.717  0.6310  0.5677 -0.9487
45021SOL     OW41920   1.896   6.562   7.323 -0.0940  0.0855  0.0942
45021SOL    HW141921   1.830   6.622   7.357  0.0737  0.6189 -0.4934
45021SOL    HW241922   1.969   6.619   7.296  0.3600 -0.4416  0.1828
45022SOL     OW41923   8.622   2.433   4.743 -0.1996  0.4676 -0.0035
45022SOL    HW141924   8.562   2.359   4.755  1.6179 -0.8309  1.8371
45022SOL    HW241925   8.610   2.460   4.652 -3.2276  0.0323  0.1771
45023SOL     OW41926   0.975   7.640   3.801 -0.1548 -0.0185  0.1646
45023SOL    HW141927   1.009   7.583   3.870  1.6416  1.0876  0.2779
45023SOL    HW241928   0.983   7.728   3.837 -0.4620  0.4850 -0.9490
45024SOL     OW41929   7.027   9.705   7.598  1.1843 -0.0116  0.1277
45024SOL    HW141930   7.088   9.696   7.525  0.2567  0.3509 -0.7104
45024SOL    HW241931   7.027   9.619   7.640 -0.3673 -1.1077 -2.0035
45025SOL     OW41932   5.857   0.229  11.679  0.0380  0.3284  0.0503
45025SOL    HW141933   5.766   0.200  11.686 -0.1642  1.2246  1.7023
45025SOL    HW241934   5.898   0.198  11.759  0.8986  0.8747 -0.1720
45026SOL     OW41935   7.448   0.673   4.403 -0.3051 -0.4242  0.0212
45026SOL    HW141936   7.378   0.725   4.362 -0.2067 -0.3008  0.0091
45026SOL    HW241937   7.442   0.587   4.361 -0.5601 -0.4667  0.1389
45027SOL     OW41938   1.045   7.456   7.789 -0.1854  0.1911 -0.5463
45027SOL    HW141939   1.069   7.363   7.790 -1.1909 -0.0785  0.0342
45027SOL    HW241940   1.127   7.502   7.808  0.6724 -0.4785 -2.3747
45028SOL     OW41941   9.629  11.862   5.825  0.4797  0.5946 -0.1419
45028SOL    HW141942   9.660  11.870   5.735 -0.9825 -3.9320 -1.3286
45028SOL    HW241943   9.538  11.889   5.822  0.5328  0.7979  0.0747
45029SOL     OW41944   0.878   4.477   7.740 -0.6433 -0.5849 -0.0726
45029SOL    HW141945   0.965   4.456   7.705 -0.1882  0.5416  0.3563
45029SOL    HW241946   0.852   4.398   7.788  0.5513 -0.6000  0.5911
45030SOL     OW41947  10.083   7.831   3.830 -0.8498 -0.1461 -0.0882
45030SOL    HW141948  10.102   7.917   3.792  0.2328  0.1144  0.9812
45030SOL    HW241949  10.169   7.788   3.837 -1.3013 -1.0766 -0.0196
45031SOL     OW41950  10.251   0.850   4.051 -0.0423  0.2393  0.7513
45031SOL    HW141951  10.281   0.871   4.139 -2.0143  0.3903  1.4265
45031SOL    HW241952  10.156   0.847   4.057 -0.1845 -2.9185 -0.6364
45032SOL     OW41953   8.258   9.488   9.257 -0.4809  0.1105 -0.0115
45032SOL    HW141954   8.278   9.423   9.324  2.8156  0.6146 -0.3605
45032SOL    HW241955   8.277   9.443   9.174 -1.5762  0.4511 -0.4640
45033SOL     OW41956   3.832   5.739   5.669  0.2025 -0.1121 -0.7065
45033SOL    HW141957   3.786   5.655   5.655 -0.3333  0.3541 -1.9319
45033SOL    HW241958   3.880   5.727   5.750 -1.4521 -0.9223  0.2034
45034SOL     OW41959  11.882   0.644   1.843 -0.2507 -0.0162  0.5244
45034SOL    HW141960  11.873   0.722   1.789  0.9990 -0.5642 -0.5525
45034SOL    HW241961  11.936   0.672   1.917  3.7594 -0.6100 -1.8600
45035SOL     OW41962  10.810  12.199   0.060 -0.3761  0.1071 -0.1445
45035SOL    HW141963  10.724  12.161   0.083 -0.0383 -0.1398  0.7740
45035SOL    HW241964  10.873  12.135   0.092  0.1757  0.7653  0.1010
45036SOL     OW41965   3.656   2.445   6.690  0.2866  0.1861 -0.0559
45036SOL    HW141966   3.621   2.363   6.656  0.8852 -0.0391 -0.1365
45036SOL    HW241967   3.656   2.505   6.615 -0.4673  0.3730  0.0819
45037SOL     OW41968   1.718  10.052   1.414  0.0036  0.3891 -0.5953
45037SOL    HW141969   1.692  10.029   1.504  0.8341 -0.3067 -0.5197
45037SOL    HW241970   1.813  10.060   1.418  0.0842 -0.0458 -1.4980
45038SOL     OW41971  12.013   5.700   0.242  0.2727 -0.1535 -0.4069
45038SOL    HW141972  12.095   5.658   0.217  0.6679  0.0757  0.4565
45038SOL    HW241973  12.041   5.777   0.293 -0.4713  0.1116 -0.3930
45039SOL     OW41974  10.199   8.903   4.094  0.2788  0.2411 -0.9140
45039SOL    HW141975  10.160   8.989   4.104  2.4072  1.0318  1.4936
45039SOL    HW241976  10.124   8.844   4.086 -1.3068  2.0371 -0.1668
45040SOL     OW41977  11.953   4.039   7.802 -0.0730  0.5268  0.2854
45040SOL    HW141978  11.984   4.034   7.712  0.7953  0.3826  0.5800
45040SOL    HW241979  12.000   4.114   7.840  1.4046 -0.8233  1.2738
45041SOL     OW41980   6.327   1.280   3.398 -0.2498  0.0388 -0.0095
45041SOL    HW141981   6.277   1.354   3.432 -0.1102  0.4328 -0.6408
45041SOL    HW241982   6.414   1.316   3.378 -0.2416 -0.2372 -0.5047
45042SOL     OW41983   8.023   6.783   0.393  0.0377 -0.0898 -1.1061
45042SOL    HW141984   8.103   6.731   0.405 -0.6343 -1.1219 -1.0273
45042SOL    HW241985   7.961   6.723   0.352 -1.6404 -0.1961  1.3691
45043SOL     OW41986   1.619   9.470  10.262  0.3120 -0.3992  0.3333
45043SOL    HW141987   1.675   9.522  10.320 -1.6749  0.9582  1.1228
45043SOL    HW241988   1.662   9.475  10.177  3.0367 -2.0127  1.4741
45044SOL     OW41989   1.290   5.582   3.723  0.0120  0.3238 -0.7343
45044SOL    HW141990   1.215   5.537   3.684 -0.8333  1.1751 -0.1313
45044SOL    HW241991   1.270   5.587   3.816  0.4034  1.3159 -0.6856
45045SOL     OW41992  11.603   4.403   3.400 -0.1859  0.2126  0.2421
45045SOL    HW141993  11.540   4.450   3.345 -0.8487 -2.0227 -1.0019
45045SOL    HW241994  11.550   4.346   3.455  0.5055  1.8813  2.8509
45046SOL     OW41995   6.441  12.224   9.770 -0.2708  0.4521 -0.2721
45046SOL    HW141996   6.378  12.232   9.842  1.2731  1.5225  1.0313
45046SOL    HW241997   6.387  12.221   9.691 -1.9425  2.2331  0.7177
45047SOL     OW41998   7.160   8.780   2.774  0.4161 -0.2220  0.4988
45047SOL    HW141999   7.090   8.806   2.835  0.9173  0.7175  0.6915
45047SOL    HW242000   7.155   8.844   2.703 -0.3761 -1.5011 -0.6437
45048SOL     OW42001   0.593   2.027  12.385 -0.2870 -0.0469  0.2146
45048SOL    HW142002   0.659   1.972  12.342 -0.0887  1.1305 -1.0411
45048SOL    HW242003   0.636   2.111  12.397 -0.9912  0.2100  1.0069
45049SOL     OW42004  11.557   8.188  11.614 -0.5554 -0.1779 -0.1024
45049SOL    HW142005  11.615   8.225  11.680  0.8117 -0.8125 -0.9157
45049SOL    HW242006  11.473   8.178  11.660 -0.3313  1.6872  0.7984
45050SOL     OW42007  10.866   9.694   1.939  0.1006 -0.3283 -0.0339
45050SOL    HW142008  10.899   9.607   1.964 -1.1399 -1.2913 -1.4884
45050SOL    HW242009  10.804   9.717   2.007  0.7605 -0.3813  0.5918
45051SOL     OW42010   3.655  10.411  12.176 -0.5663  0.2773 -0.7081
45051SOL    HW142011   3.656  10.507  12.169  1.6682  0.2200 -2.2070
45051SOL    HW242012   3.722  10.391  12.241  0.6510 -0.2994 -2.0856
45052SOL     OW42013  11.617  12.558  12.556  0.5246 -0.6521 -0.2945
45052SOL    HW142014  11.570  12.477  12.535  1.7930 -1.1534 -1.3695
45052SOL    HW242015  11.616  12.562  12.652 -1.4664 -0.7532 -0.2774
45053SOL     OW42016   4.446   5.986   5.761 -0.1392  0.6141 -0.4635
45053SOL    HW142017   4.514   5.958   5.823  0.0919  1.2115 -0.4371
45053SOL    HW242018   4.386   5.912   5.757  1.3534 -0.5940 -1.7071
45054SOL     OW42019  11.827   8.019   2.760 -0.1480 -0.3994  0.1768
45054SOL    HW142020  11.865   7.956   2.821  0.5148  0.7840  1.0394
45054SOL    HW242021  11.902   8.063   2.721 -0.5915 -0.3174 -0.6027
45055SOL     OW42022   9.829   0.022  11.612  0.2783  0.0340  0.2849
45055SOL    HW142023   9.880  -0.045  11.566  0.8613  0.1374  0.7615
45055SOL    HW242024   9.755  -0.025  11.649 -0.6524  0.0752 -1.4039
45056SOL     OW42025   7.377   8.775   7.010 -0.1527 -1.5785  0.1234
45056SOL    HW142026   7.440   8.845   7.025  0.9437 -2.6700  0.7175
45056SOL    HW242027   7.328   8.768   7.092 -2.1115  0.2222 -0.7783
45057SOL     OW42028   6.374   2.165   3.693 -0.0379 -0.2463 -0.5053
45057SOL    HW142029   6.420   2.108   3.631  1.1262  0.0302  0.0904
45057SOL    HW242030   6.434   2.173   3.767 -1.8065 -1.4313  1.1642
45058SOL     OW42031   4.850   9.204   9.327  0.2722  0.0713 -0.1626
45058SOL    HW142032   4.904   9.190   9.404 -1.8642  0.5770  1.5157
45058SOL    HW242033   4.798   9.282   9.348 -1.5175 -0.7174 -1.4146
45059SOL     OW42034  11.976   7.810   6.824 -0.3846 -0.4352 -0.9557
45059SOL    HW142035  11.934   7.879   6.772  1.2797  0.8581 -0.6561
45059SOL    HW242036  12.056   7.790   6.776 -0.6211 -1.8790 -0.7896
45060SOL     OW42037   7.081  10.611   5.152  0.1937 -0.3103 -0.3796
45060SOL    HW142038   7.047  10.609   5.241 -1.1471  1.0041 -0.8212
45060SOL    HW242039   7.100  10.519   5.131 -1.1457 -0.8601  0.6449
45061SOL     OW42040   8.979  10.085   2.425  0.0143 -0.3263 -0.0596
45061SOL    HW142041   9.068  10.076   2.460  0.7961 -1.2519 -2.1653
45061SOL    HW242042   8.973  10.019   2.356 -2.2687 -0.1589 -0.0989
45062SOL     OW42043   3.035  11.241   4.276  0.0849 -0.1488 -0.4014
45062SOL    HW142044   3.000  11.182   4.210 -0.4017 -0.3919  0.0713
45062SOL    HW242045   2.973  11.237   4.348  1.5126 -1.2646  0.8304
45063SOL     OW42046   3.297   0.404  10.353 -0.8739 -0.0152  0.0835
45063SOL    HW142047   3.384   0.439  10.330 -0.4142  0.6345  2.5300
45063SOL    HW242048   3.243   0.424  10.276  0.6716  1.3321 -0.7318
45064SOL     OW42049   5.977   2.034   5.464  0.0306  1.6390  0.3299
45064SOL    HW142050   6.015   2.118   5.437  1.0486  1.0453 -0.1281
45064SOL    HW242051   5.931   2.003   5.386  3.6480 -0.4649 -1.1946
45065SOL     OW42052   6.345   9.895   0.242  0.5508  0.7425 -0.0170
45065SOL    HW142053   6.324   9.813   0.288 -3.9075  0.5973 -1.8282
45065SOL    HW242054   6.398   9.868   0.167  1.6310  0.0017  0.9769
45066SOL     OW42055   8.669   6.222   1.733 -0.5780 -0.1910  0.1236
45066SOL    HW142056   8.580   6.188   1.746 -1.3320  1.1758 -1.1443
45066SOL    HW242057   8.681   6.284   1.805 -0.9345  0.1568 -0.1156
45067SOL     OW42058   2.149   9.908  10.710  0.4273 -0.6805 -0.0226
45067SOL    HW142059   2.136   9.888  10.617  0.7123 -0.2440 -0.1589
45067SOL    HW242060   2.111   9.994  10.721  1.9016  0.0114 -0.1208
45068SOL     OW42061   1.769   4.518   3.455 -0.1456  0.5484  0.0573
45068SOL    HW142062   1.745   4.447   3.514  0.0888  1.0868  0.8063
45068SOL    HW242063   1.852   4.490   3.416 -0.1677  0.3172  0.1771
45069SOL     OW42064   7.511   9.184   0.641  0.0086  0.2641 -0.6082
45069SOL    HW142065   7.577   9.148   0.699  1.0953  0.5690 -1.6172
45069SOL    HW242066   7.473   9.108   0.597 -0.4866  0.0730  0.1240
45070SOL     OW42067   9.818  10.049   2.674 -0.0108  0.5500 -0.1797
45070SOL    HW142068   9.824  10.019   2.583  2.4494  1.7875 -0.5272
45070SOL    HW242069   9.728  10.080   2.683 -1.8817 -4.0780 -0.5819
45071SOL     OW42070   8.979   5.822   9.123 -0.2060 -0.5887  0.4920
45071SOL    HW142071   9.047   5.885   9.098 -2.4715  1.3273 -1.3269
45071SOL    HW242072   8.979   5.823   9.219  0.2427  1.7607  0.5147
45072SOL     OW42073   1.609   1.564   0.136  0.0483 -0.1359  0.1366
45072SOL    HW142074   1.632   1.499   0.069 -0.8147  0.4224 -0.7347
45072SOL    HW242075   1.562   1.514   0.203 -1.4770 -0.2924 -0.9928
45073SOL     OW42076   4.095  10.183   0.032 -0.5795 -0.2112 -0.1027
45073SOL    HW142077   4.057  10.168  -0.054  0.8806 -0.1392 -0.7946
45073SOL    HW242078   4.078  10.275   0.051 -0.3536 -0.0611 -0.6128
45074SOL     OW42079   7.328   0.597   2.842  0.2178 -0.0078  0.0648
45074SOL    HW142080   7.393   0.666   2.847  1.2189 -1.0014  1.2052
45074SOL    HW242081   7.262   0.621   2.907 -0.9125  1.2974 -1.4836
45075SOL     OW42082   7.628   8.328   7.542  0.4599  0.1558  0.0484
45075SOL    HW142083   7.543   8.371   7.533 -0.1462 -0.7360  1.2626
45075SOL    HW242084   7.618   8.243   7.498 -0.0395 -0.9090  2.1099
45076SOL     OW42085   9.184   2.377   1.536 -0.0028  0.2428 -0.0080
45076SOL    HW142086   9.272   2.405   1.510  0.2757  0.1653  0.8222
45076SOL    HW242087   9.192   2.358   1.629 -1.1384  1.2163  0.3069
45077SOL     OW42088  10.209  10.661   1.165 -0.3956 -0.5913  0.4538
45077SOL    HW142089  10.179  10.750   1.184 -0.2612 -0.7542  1.4710
45077SOL    HW242090  10.290  10.674   1.115  0.6285 -0.1041  2.1531
45078SOL     OW42091   2.029   6.038   4.654 -0.0483 -0.2650 -0.0955
45078SOL    HW142092   2.002   5.982   4.726  0.4974  0.8993  1.0653
45078SOL    HW242093   2.048   6.123   4.696  2.5853 -0.2048 -1.2305
45079SOL     OW42094   3.580  10.687   0.831 -0.2526 -0.4272 -0.2092
45079SOL    HW142095   3.626  10.754   0.880 -0.1330 -0.5065 -0.2138
45079SOL    HW242096   3.494  10.682   0.872  0.0174 -0.8431  0.3033
45080SOL     OW42097  11.221   2.160  10.221 -0.1474  0.0357  0.2110
45080SOL    HW142098  11.183   2.088  10.170 -0.3375  1.2266 -1.3751
45080SOL    HW242099  11.147   2.218  10.239 -0.1552 -0.4995  2.1688
45081SOL     OW42100   0.553   8.677   6.573  0.1735 -0.0194 -0.4953
45081SOL    HW142101   0.592   8.717   6.651  1.8710 -0.1129 -1.2436
45081SOL    HW242102   0.558   8.583   6.590  0.2509 -0.0295 -0.5707
45082SOL     OW42103   7.972   1.809   5.513 -0.6311  0.2435  0.5617
45082SOL    HW142104   7.893   1.756   5.526  0.0442 -0.5972  1.4470
45082SOL    HW242105   7.946   1.878   5.453 -1.8732 -0.3935  0.3445
45083SOL     OW42106   1.870   7.785   7.627 -0.3775  0.2527 -0.2657
45083SOL    HW142107   1.874   7.799   7.532 -1.2784  1.0357 -0.2010
45083SOL    HW242108   1.843   7.694   7.636 -1.2159  0.4348 -0.7835
45084SOL     OW42109   0.674   1.940  12.003 -0.9797  0.1717  0.6030
45084SOL    HW142110   0.698   2.003  11.935 -2.8814 -0.4186 -0.6863
45084SOL    HW242111   0.734   1.959  12.074 -0.3924  2.3475 -0.3646
45085SOL     OW42112   5.132   9.655  10.986  0.3892 -0.2647 -0.5018
45085SOL    HW142113   5.132   9.745  10.954  1.5821 -0.2777 -0.5725
45085SOL    HW242114   5.069   9.655  11.058  0.8791  0.7915 -0.0501
45086SOL     OW42115   4.261   3.475   4.176  0.0442  0.4354  0.4847
45086SOL    HW142116   4.257   3.500   4.269  0.2807  1.2447  0.2850
45086SOL    HW242117   4.330   3.530   4.140  0.7889 -0.7259  0.0757
45087SOL     OW42118   8.542   0.124   5.153  0.3290 -0.1278 -0.5483
45087SOL    HW142119   8.525   0.202   5.099  1.0784  0.6711  0.3250
45087SOL    HW242120   8.487   0.136   5.230 -0.6055 -1.1787 -1.0240
45088SOL     OW42121   8.620   1.405   1.516  0.2072  0.5364  0.1578
45088SOL    HW142122   8.600   1.429   1.606 -2.0021  0.1921 -0.1822
45088SOL    HW242123   8.649   1.487   1.476 -1.1649  1.2585  0.5846
45089SOL     OW42124   1.593   8.156  10.575 -0.6225  0.8134  0.5314
45089SOL    HW142125   1.539   8.232  10.599  1.1567  2.1373  0.5559
45089SOL    HW242126   1.589   8.098  10.651 -1.3348  1.2834  0.8605
45090SOL     OW42127   8.013  10.481  12.346  0.1228 -0.1611 -0.4085
45090SOL    HW142128   8.026  10.485  12.251 -1.5722 -1.2690 -0.7229
45090SOL    HW242129   7.920  10.495  12.359  0.2225 -0.6322  1.0441
45091SOL     OW42130   3.060  10.344   8.681  0.0727 -0.6086 -0.0369
45091SOL    HW142131   3.136  10.383   8.637  0.5210 -0.8842  0.4914
45091SOL    HW242132   3.097  10.278   8.739 -0.7038 -2.3652 -1.4366
45092SOL     OW42133   9.078   3.864   1.269 -0.1004  0.1137  0.3412
45092SOL    HW142134   9.096   3.772   1.248 -0.1203  0.5194 -1.6637
45092SOL    HW242135   9.012   3.891   1.205 -0.7355  1.3001  1.4496
45093SOL     OW42136  11.398   3.632  12.462 -0.0639  0.3137 -1.0250
45093SOL    HW142137  11.332   3.622  12.393 -0.2302 -0.5980 -0.7504
45093SOL    HW242138  11.347   3.651  12.541  0.1011  0.9830 -1.0797
45094SOL     OW42139   3.782  10.311   3.664 -0.2452 -0.4493  0.2578
45094SOL    HW142140   3.878  10.308   3.666 -0.2013  0.3868  2.5389
45094SOL    HW242141   3.757  10.228   3.622  1.4604 -0.9908  0.2056
45095SOL     OW42142   5.619   1.723   4.899  0.3650 -0.1453 -0.0205
45095SOL    HW142143   5.665   1.645   4.866  0.2862 -0.3036  0.2494
45095SOL    HW242144   5.572   1.693   4.976 -0.4415 -0.0524 -0.4669
45096SOL     OW42145   7.272   7.032  12.513  0.1759  0.0320  0.0127
45096SOL    HW142146   7.280   7.008  12.420 -2.1603 -1.9042  0.2096
45096SOL    HW242147   7.334   6.975  12.558 -1.2607 -1.7095 -0.0921
45097SOL     OW42148   2.915   2.196   6.842  0.3604  0.1490  0.1087
45097SOL    HW142149   2.957   2.113   6.866 -1.1391 -1.1938 -1.6159
45097SOL    HW242150   2.972   2.233   6.775  0.9731  0.4604  0.7972
45098SOL     OW42151  10.781   1.237   0.239  0.0402 -0.1546  0.2354
45098SOL    HW142152  10.717   1.168   0.252 -0.5112  0.0496 -1.1563
45098SOL    HW242153  10.859   1.192   0.207  0.7004 -0.4235  2.0996
45099SOL     OW42154  12.177   8.613   0.466  0.3254  0.7024  0.2767
45099SOL    HW142155  12.139   8.699   0.451 -1.2584  0.1740  1.0713
45099SOL    HW242156  12.133   8.580   0.544  1.8162 -0.3128  0.7313
45100SOL     OW42157   4.155   8.781   1.970 -0.4053 -0.3210  0.4416
45100SOL    HW142158   4.204   8.800   1.890 -2.1080 -0.1268 -0.6156
45100SOL    HW242159   4.149   8.685   1.972 -1.9340 -0.2953 -0.7329
45101SOL     OW42160  10.261   7.557   4.860  0.1455  0.1830 -0.0831
45101SOL    HW142161  10.175   7.531   4.894 -0.5600  0.5078 -1.5650
45101SOL    HW242162  10.242   7.620   4.791  1.5264 -0.4172 -1.0663
45102SOL     OW42163   9.664  10.248   8.247  0.1293  0.2964 -0.8735
45102SOL    HW142164   9.646  10.156   8.266 -1.1616  0.7189  0.1346
45102SOL    HW242165   9.757  10.251   8.224  1.0416 -0.8332  2.1332
45103SOL     OW42166   0.043   1.947   5.126 -0.6932 -0.3312 -0.1889
45103SOL    HW142167  -0.009   2.027   5.126 -2.9210 -1.6313  1.8052
45103SOL    HW242168   0.109   1.962   5.194 -0.2654  0.2722 -0.7290
45104SOL     OW42169   4.423   8.294   4.816 -0.0747  0.0019  0.1104
45104SOL    HW142170   4.328   8.307   4.818 -0.1462 -0.5727  1.6323
45104SOL    HW242171   4.438   8.242   4.738 -1.1549 -0.8658  0.4574
45105SOL     OW42172   3.010  10.596  10.675 -0.2667  0.1885 -0.5469
45105SOL    HW142173   3.094  10.640  10.658 -0.5835  0.8342 -0.4286
45105SOL    HW242174   3.012  10.520  10.616  0.7173 -0.2216 -0.0302
45106SOL     OW42175   5.618  10.804   2.984  0.1000  0.0095  0.4400
45106SOL    HW142176   5.602  10.717   3.022  0.9423 -0.8378 -1.0155
45106SOL    HW242177   5.686  10.842   3.039  1.2273 -1.1461 -0.0863
45107SOL     OW42178   2.338   1.469   4.547  0.1440 -0.6693  0.2683
45107SOL    HW142179   2.250   1.504   4.533 -0.0517 -0.9742  0.7121
45107SOL    HW242180   2.324   1.376   4.565  0.4102 -0.4203  1.9298
45108SOL     OW42181   0.266  11.897  10.425  0.1324 -0.0773 -0.2219
45108SOL    HW142182   0.343  11.844  10.405  0.1211  0.2121 -1.0530
45108SOL    HW242183   0.205  11.837  10.467 -0.3029 -0.9973 -2.0905
45109SOL     OW42184   7.174   5.610   8.976 -0.0577  0.1831  0.0407
45109SOL    HW142185   7.123   5.643   9.050  0.0718 -0.2714  0.3380
45109SOL    HW242186   7.123   5.537   8.942  0.3239 -0.1881  0.2552
45110SOL     OW42187   7.525   5.082   9.707 -0.4089  0.3226 -0.5320
45110SOL    HW142188   7.439   5.048   9.730  0.6893 -1.8372  0.6969
45110SOL    HW242189   7.569   5.009   9.664  1.1890  0.9849 -0.0934
45111SOL     OW42190   4.667  11.174   6.306  0.1377 -0.0805 -0.5513
45111SOL    HW142191   4.741  11.157   6.248  1.0571 -2.1497  1.1400
45111SOL    HW242192   4.607  11.101   6.292  0.1651 -0.3787  0.7618
45112SOL     OW42193   6.610   0.996   4.141 -0.2270 -0.2042 -0.1363
45112SOL    HW142194   6.619   0.922   4.080 -0.5553  0.2715 -0.7757
45112SOL    HW242195   6.639   0.961   4.225  2.2232 -0.3153 -0.9532
45113SOL     OW42196   7.819   3.325   0.806  0.3352 -0.1535  0.1636
45113SOL    HW142197   7.839   3.251   0.863  3.3158  0.0734 -0.4332
45113SOL    HW242198   7.895   3.331   0.747 -0.7469  2.1378 -1.1092
45114SOL     OW42199   9.418   4.534  12.559 -0.2729 -0.2559  0.0776
45114SOL    HW142200   9.327   4.552  12.582 -0.2099 -1.2415  1.1928
45114SOL    HW242201   9.411   4.477  12.482 -0.6221 -0.5633  0.3263
45115SOL     OW42202   9.874   2.131   3.254  0.2829 -0.2956  0.3617
45115SOL    HW142203   9.923   2.056   3.286  2.2046  0.0567 -1.5108
45115SOL    HW242204   9.930   2.206   3.273 -1.7137  0.8088  2.4629
45116SOL     OW42205   3.045   6.070  12.470 -0.4669 -0.0457 -0.1001
45116SOL    HW142206   3.003   5.984  12.477 -3.2277  1.2990  1.3758
45116SOL    HW242207   3.086   6.083  12.555  0.0973  0.0660 -0.3828
45117SOL     OW42208   6.862   3.078   3.022 -0.2272 -0.0774 -0.2157
45117SOL    HW142209   6.862   3.045   3.112 -0.4194 -3.7069 -1.3640
45117SOL    HW242210   6.941   3.130   3.015 -1.0851  1.7892  2.4435
45118SOL     OW42211   8.676   1.564   5.033  0.3899  0.0017  0.6447
45118SOL    HW142212   8.621   1.519   5.096 -2.8755  0.5267 -1.6198
45118SOL    HW242213   8.653   1.657   5.043  0.0842  0.1366 -0.9694
45119SOL     OW42214  11.322   5.195   7.465 -0.2058  0.4019  0.1155
45119SOL    HW142215  11.388   5.258   7.494  0.0835 -0.1400  0.6478
45119SOL    HW242216  11.304   5.221   7.374 -0.6570  1.7108  0.5551
45120SOL     OW42217   7.165   8.071   1.964 -0.7783  0.0094 -0.7422
45120SOL    HW142218   7.195   8.157   1.934 -0.9906 -0.1923 -1.5650
45120SOL    HW242219   7.241   8.014   1.953 -0.8053 -0.0274 -0.7380
45121SOL     OW42220   5.980   2.032   8.118  0.0328  0.0535 -0.1149
45121SOL    HW142221   6.015   2.121   8.122  1.8821 -0.6161 -0.3715
45121SOL    HW242222   5.889   2.040   8.148  0.5642  1.7947  1.1518
45122SOL     OW42223   5.553   9.647   6.349  0.0515 -0.3457  0.3986
45122SOL    HW142224   5.466   9.611   6.329 -0.1271  0.5197 -0.4419
45122SOL    HW242225   5.546   9.679   6.438  0.3193 -2.6723  1.3265
45123SOL     OW42226   7.882  10.649   2.179  0.6343 -0.1388  0.1068
45123SOL    HW142227   7.830  10.730   2.180  0.6628 -0.1307  1.2219
45123SOL    HW242228   7.817  10.579   2.181  0.6409 -0.1306  0.8267
45124SOL     OW42229  12.424   9.517   0.826  0.0641 -0.4043  0.2646
45124SOL    HW142230  12.346   9.495   0.775  0.8510  0.1696 -1.2340
45124SOL    HW242231  12.390   9.543   0.912 -1.7010  2.8010 -1.2277
45125SOL     OW42232   4.831   2.155   2.982 -0.0811  0.2337  0.1081
45125SOL    HW142233   4.880   2.204   3.047  0.6261 -0.3146  0.0026
45125SOL    HW242234   4.859   2.064   2.993 -1.9794 -0.3118  0.8653
45126SOL     OW42235   5.921   5.733   6.424 -0.5415  0.4777  0.0955
45126SOL    HW142236   5.873   5.816   6.433 -0.1338  0.9141 -1.4421
45126SOL    HW242237   5.950   5.732   6.332  1.2805 -0.3691  0.6369
45127SOL     OW42238   3.820   8.140   8.621 -0.2897  0.5080 -0.1952
45127SOL    HW142239   3.873   8.061   8.629 -3.1850 -1.3742  2.4411
45127SOL    HW242240   3.871   8.208   8.666  2.0836  0.2334 -2.2063
45128SOL     OW42241   1.738   3.981   1.514  0.1523  0.2946  0.2242
45128SOL    HW142242   1.780   4.013   1.434 -0.1429  1.5743  0.5568
45128SOL    HW242243   1.666   3.926   1.484  0.7487 -0.1645 -0.3744
45129SOL     OW42244   2.572  10.713   9.724  0.1875  0.5645  0.1828
45129SOL    HW142245   2.512  10.643   9.749  1.3490 -0.3619  0.4689
45129SOL    HW242246   2.579  10.768   9.802  0.1291  0.3859  0.3135
45130SOL     OW42247   4.898   0.184   2.402 -0.1657  0.4784  0.1082
45130SOL    HW142248   4.949   0.109   2.434  0.5235  1.6542  1.8987
45130SOL    HW242249   4.840   0.206   2.475 -1.6975  0.5599 -1.0901
45131SOL     OW42250   6.067   2.367   3.022 -0.0523  0.7068  0.5599
45131SOL    HW142251   5.975   2.378   2.999  0.2841 -0.0853 -1.3094
45131SOL    HW242252   6.114   2.423   2.961  0.8278 -0.6880 -0.0853
45132SOL     OW42253  10.841  10.846  11.171 -0.0517  0.2450 -0.3970
45132SOL    HW142254  10.763  10.791  11.167 -0.6485  1.1055 -0.6833
45132SOL    HW242255  10.817  10.917  11.230  0.3202  0.8301 -0.9458
45133SOL     OW42256   4.543  10.415   5.245 -0.5353 -0.1110 -0.0555
45133SOL    HW142257   4.560  10.501   5.208 -0.0088 -0.7739 -1.4145
45133SOL    HW242258   4.448  10.409   5.251 -0.5550  1.0452  1.2893
45134SOL     OW42259  10.343   9.876   0.580  0.7318 -0.5418 -0.3352
45134SOL    HW142260  10.355   9.781   0.574 -0.5356 -0.8378  1.1433
45134SOL    HW242261  10.283   9.888   0.653 -1.0546  1.2629 -1.9693
45135SOL     OW42262   5.817  11.908   1.853 -0.2017  0.4336 -0.2681
45135SOL    HW142263   5.733  11.874   1.884 -0.3336 -2.1974 -3.1300
45135SOL    HW242264   5.795  11.960   1.776  0.6305  2.0417  0.5261
45136SOL     OW42265   4.618   3.422   9.615  0.1423  0.0719 -0.0142
45136SOL    HW142266   4.546   3.411   9.553  1.3734  0.8581 -1.6756
45136SOL    HW242267   4.663   3.337   9.614  1.1541  0.5684 -1.6066
45137SOL     OW42268   5.119   1.240  10.883 -0.0175 -0.0291 -0.7788
45137SOL    HW142269   5.169   1.317  10.856  0.8668 -0.7604 -1.3058
45137SOL    HW242270   5.139   1.174  10.816  2.6300 -2.0742  1.7447
45138SOL     OW42271   0.217   1.831   6.689  0.5207  0.2152  0.3677
45138SOL    HW142272   0.300   1.785   6.695 -0.0597 -0.6327  2.8926
45138SOL    HW242273   0.178   1.824   6.776 -1.7159  1.5267 -0.4215
45139SOL     OW42274   3.253   3.291   2.070 -0.0924  0.4592 -0.1185
45139SOL    HW142275   3.296   3.225   2.125 -0.6483  1.0208  1.0330
45139SOL    HW242276   3.168   3.304   2.111 -0.9632  0.1598 -1.7298
45140SOL     OW42277  10.903   4.580   2.700 -0.5151 -0.0355 -0.4384
45140SOL    HW142278  10.984   4.582   2.751  0.1789  0.2533 -1.5186
45140SOL    HW242279  10.881   4.673   2.687 -1.2659 -0.1123  0.2118
45141SOL     OW42280   5.271   3.821   1.204  0.3395  0.7059 -0.4195
45141SOL    HW142281   5.290   3.891   1.266  1.0383  0.8383 -0.7813
45141SOL    HW242282   5.355   3.799   1.165  0.6042 -1.8645  1.2957
45142SOL     OW42283   4.431  10.970   2.928  0.4093 -0.2455 -0.6230
45142SOL    HW142284   4.392  11.046   2.886 -2.2557 -0.9929  0.2880
45142SOL    HW242285   4.398  10.972   3.018  0.9080 -2.0319 -0.3461
45143SOL     OW42286   5.586   9.038   5.839  0.3124  0.0526  0.2078
45143SOL    HW142287   5.606   8.982   5.764  2.4054 -0.9762  1.4638
45143SOL    HW242288   5.664   9.093   5.849 -1.2493  2.5445 -0.3344
45144SOL     OW42289   5.911   8.771   3.715  0.0666 -0.0664 -0.4671
45144SOL    HW142290   5.834   8.813   3.754  0.9353 -0.7665  2.2428
45144SOL    HW242291   5.922   8.814   3.630 -2.8418  0.5726 -0.6212
45145SOL     OW42292   2.077   5.172   4.636 -0.2211  0.1785  0.6453
45145SOL    HW142293   2.145   5.174   4.569  0.2914 -0.2362  1.1446
45145SOL    HW242294   1.995   5.164   4.587  0.1769 -0.5759  0.0829
45146SOL     OW42295   5.643   0.119  12.507  0.0143 -0.0212 -0.3318
45146SOL    HW142296   5.577   0.146  12.444 -1.6079 -0.2724  1.1794
45146SOL    HW242297   5.638   0.185  12.576  1.5612  0.1044 -0.3095
45147SOL     OW42298   9.611   5.615   9.917 -0.4140 -0.0148  0.0462
45147SOL    HW142299   9.541   5.615   9.983  0.7292  2.1127  1.4040
45147SOL    HW242300   9.689   5.638   9.967  0.7981  0.0930 -1.8410
45148SOL     OW42301   3.536   7.589   5.772 -0.0742  0.3482 -0.5091
45148SOL    HW142302   3.446   7.557   5.783  0.5570 -1.7344 -0.9895
45148SOL    HW242303   3.539   7.670   5.823 -1.8765 -0.2178  0.5832
45149SOL     OW42304  10.278   4.498   5.806 -0.3870 -0.3326 -0.0097
45149SOL    HW142305  10.312   4.498   5.896 -0.3190 -1.5089 -0.0268
45149SOL    HW242306  10.354   4.519   5.752 -0.6372  1.4068  0.2581
45150SOL     OW42307   8.880   2.332   5.909  0.2197 -0.2709  0.6185
45150SOL    HW142308   8.796   2.286   5.901 -1.1633  2.2375 -0.8783
45150SOL    HW242309   8.946   2.268   5.884 -1.3550 -1.9673  0.6059
45151SOL     OW42310   8.555  10.816   2.775  0.5527 -0.4218  0.3908
45151SOL    HW142311   8.519  10.905   2.777  1.7623  0.1218 -0.6156
45151SOL    HW242312   8.520  10.778   2.694 -0.2647 -1.0146  1.0085
45152SOL     OW42313   0.215  10.336   9.890  0.0987  0.2955 -0.2116
45152SOL    HW142314   0.272  10.290   9.829  0.1136  1.3929 -1.0455
45152SOL    HW242315   0.158  10.268   9.925  0.1977 -0.3814 -1.3177
45153SOL     OW42316   4.112   0.380   8.535  0.0985 -1.0949  0.3360
45153SOL    HW142317   4.096   0.362   8.442  1.5148  2.2475 -0.7108
45153SOL    HW242318   4.200   0.347   8.551  0.7663  0.3621 -0.2055
45154SOL     OW42319   0.217   2.892   9.326  0.1960 -0.1862 -0.4069
45154SOL    HW142320   0.218   2.924   9.416 -3.2675 -0.6420 -0.0722
45154SOL    HW242321   0.237   2.799   9.332 -3.8157 -1.1658  0.5733
45155SOL     OW42322   0.549   3.914  11.591  0.6117 -0.6192 -0.3283
45155SOL    HW142323   0.619   3.977  11.606 -0.4938  0.6081 -0.1249
45155SOL    HW242324   0.587   3.848  11.533  2.5273 -1.0652  1.2970
45156SOL     OW42325   4.793   7.454   0.325  0.8507 -0.3891  0.0464
45156SOL    HW142326   4.765   7.365   0.301 -2.7135  0.3884  0.7941
45156SOL    HW242327   4.764   7.464   0.416  2.7934  0.9781  0.5621
45157SOL     OW42328   7.013   3.744   8.441  0.1761  0.2166 -0.0395
45157SOL    HW142329   6.941   3.741   8.378  0.0506  1.3144  0.0303
45157SOL    HW242330   6.988   3.683   8.510 -1.6123  1.9609  0.9355
45158SOL     OW42331  10.556  10.017   1.288 -0.0330  0.1949  0.2857
45158SOL    HW142332  10.604   9.973   1.218  0.6344  1.3186  0.0046
45158SOL    HW242333  10.621  10.074   1.330 -0.6139  0.1339  1.3134
45159SOL     OW42334   8.187   9.590   4.956 -0.7441 -0.3214 -0.3859
45159SOL    HW142335   8.259   9.527   4.961 -0.3150  0.2362  0.9221
45159SOL    HW242336   8.114   9.545   4.998 -1.0710 -0.7433 -1.3763
45160SOL     OW42337   1.670  10.763   5.171 -0.1996  0.6015 -0.1542
45160SOL    HW142338   1.724  10.842   5.176  0.1057  0.4669 -1.1896
45160SOL    HW242339   1.606  10.782   5.102  0.3544 -0.3332 -0.9356
45161SOL     OW42340   9.822   9.721   0.788 -0.0211 -0.0016 -0.1454
45161SOL    HW142341   9.838   9.736   0.882 -1.6336 -1.0652  0.3400
45161SOL    HW242342   9.833   9.626   0.778 -1.1302 -0.0750 -0.7571
45162SOL     OW42343   2.231  12.072   8.781  0.1744 -0.0992  0.0412
45162SOL    HW142344   2.297  12.137   8.754  1.7327 -1.7754 -0.3517
45162SOL    HW242345   2.208  12.098   8.870  1.8057  0.2147  0.4078
45163SOL     OW42346   4.720   9.358   9.037 -0.1009 -0.0755 -0.4015
45163SOL    HW142347   4.788   9.373   9.103  0.1143  1.2924 -0.8892
45163SOL    HW242348   4.768   9.334   8.959 -0.3985 -2.4810  0.0959
45164SOL     OW42349  10.562   9.133   1.875 -0.0285 -0.1965  0.4008
45164SOL    HW142350  10.609   9.165   1.798 -0.5261 -0.9303 -0.2164
45164SOL    HW242351  10.470   9.153   1.857  0.0608  2.0412  1.9894
45165SOL     OW42352   9.577   2.633   2.035 -0.3749  0.3155  0.5593
45165SOL    HW142353   9.632   2.661   2.108 -0.5133  0.0834  0.7528
45165SOL    HW242354   9.537   2.714   2.003  0.6565  0.6009 -0.0699
45166SOL     OW42355   5.035   7.495   3.924  0.4803  0.8759  0.1950
45166SOL    HW142356   5.035   7.563   3.992  1.9946  2.2112 -1.0454
45166SOL    HW242357   5.122   7.500   3.885 -0.2710  0.0562 -1.7468
45167SOL     OW42358   6.967  11.183   0.524  0.5954 -0.3113  0.3250
45167SOL    HW142359   6.890  11.219   0.481 -1.1830 -2.1443  1.7489
45167SOL    HW242360   6.994  11.110   0.468 -0.5833 -1.5302  1.2822
45168SOL     OW42361   8.871   9.487   8.238 -0.4413 -0.1127  0.1528
45168SOL    HW142362   8.802   9.421   8.238  0.4095 -1.0337  0.2007
45168SOL    HW242363   8.826   9.570   8.228 -1.6524 -0.5936  1.4019
45169SOL     OW42364   9.118   7.114   2.319 -0.5078  0.0779 -0.0204
45169SOL    HW142365   9.176   7.183   2.348 -0.2050  0.1188 -0.7009
45169SOL    HW242366   9.108   7.129   2.225  1.6110 -2.2506 -0.7437
45170SOL     OW42367   6.758   2.498  10.481 -0.5956 -0.1486  0.0174
45170SOL    HW142368   6.768   2.418  10.430  2.4040 -0.7460  1.3241
45170SOL    HW242369   6.766   2.569  10.417 -0.5957 -0.8724 -0.8035
45171SOL     OW42370  10.248   8.443   2.873 -0.6939  0.0118 -0.1712
45171SOL    HW142371  10.217   8.353   2.879 -0.8679 -0.0717 -1.9628
45171SOL    HW242372  10.342   8.437   2.887 -0.9157 -0.1810  1.5543
45172SOL     OW42373   4.899  11.970   2.575  0.2034 -0.1826 -0.9659
45172SOL    HW142374   4.915  12.040   2.639 -1.1615 -0.8133  0.1250
45172SOL    HW242375   4.947  11.895   2.610 -2.9288 -1.4308  1.1115
45173SOL     OW42376  11.653   7.548   7.695  0.2327  0.3364 -0.5264
45173SOL    HW142377  11.708   7.476   7.726 -1.0492  0.0170  1.1394
45173SOL    HW242378  11.674   7.621   7.754  0.9285  1.1050 -1.6917
45174SOL     OW42379  10.202   2.495   5.648  0.1319  0.5539  0.5571
45174SOL    HW142380  10.153   2.550   5.587 -1.3280 -0.4669  0.7456
45174SOL    HW242381  10.284   2.475   5.603 -1.5846 -1.5538 -1.8744
45175SOL     OW42382   8.952   4.188   1.144 -1.0510  0.1076 -0.3579
45175SOL    HW142383   8.992   4.184   1.231 -0.0177 -0.7186 -0.8540
45175SOL    HW242384   8.858   4.178   1.160 -0.9371  0.6521  0.7109
45176SOL     OW42385   3.565   9.740   0.242 -0.0714  0.1635 -0.8967
45176SOL    HW142386   3.649   9.742   0.288 -1.3695 -0.2575  1.7169
45176SOL    HW242387   3.547   9.831   0.221 -0.7036  0.8562  2.1481
45177SOL     OW42388  11.266   6.892  11.357  0.4278  0.5075  0.3700
45177SOL    HW142389  11.330   6.881  11.427  0.7356 -1.4793 -0.1600
45177SOL    HW242390  11.280   6.817  11.300 -1.5103  0.7281 -0.4723
45178SOL     OW42391  10.834  11.503  11.015 -0.0506 -0.0328  0.3421
45178SOL    HW142392  10.918  11.465  11.041 -0.1291 -0.0882  0.5160
45178SOL    HW242393  10.806  11.451  10.941 -0.4812 -0.7518  0.9980
45179SOL     OW42394   3.580  10.620  11.253  0.1245 -0.1286 -0.1050
45179SOL    HW142395   3.533  10.622  11.169 -0.8694 -0.6210  0.4214
45179SOL    HW242396   3.591  10.527  11.272 -2.4907 -0.1706  1.7992
45180SOL     OW42397   8.197   8.733  11.209 -0.0434  0.0390  0.1392
45180SOL    HW142398   8.270   8.748  11.269  0.6114  0.6297 -0.7592
45180SOL    HW242399   8.143   8.812  11.217  1.0748  1.0461 -1.3953
45181SOL     OW42400   2.358   1.539   4.068  0.7478  0.1630 -0.2368
45181SOL    HW142401   2.361   1.608   4.134  4.0375  2.5585 -2.5994
45181SOL    HW242402   2.410   1.468   4.106 -0.8776 -0.2952  1.3140
45182SOL     OW42403   4.329   0.364   4.967 -0.3937 -0.0427  0.1298
45182SOL    HW142404   4.416   0.375   5.004 -0.0161  0.4900 -0.8602
45182SOL    HW242405   4.287   0.298   5.022  0.4535  0.0607  0.9211
45183SOL     OW42406   5.722   3.711   3.331 -0.4329 -0.2969  0.3814
45183SOL    HW142407   5.756   3.769   3.400 -0.0233 -1.2481  0.9926
45183SOL    HW242408   5.672   3.645   3.378  0.5860 -1.4682 -0.1427
45184SOL     OW42409   5.024   2.560   1.858 -0.4437 -0.2066  0.0569
45184SOL    HW142410   5.070   2.477   1.846  1.4078  0.7786 -0.0585
45184SOL    HW242411   4.962   2.564   1.785 -1.4892 -2.0210  0.7782
45185SOL     OW42412   4.016  10.235   5.231 -0.1388 -0.1643  0.3648
45185SOL    HW142413   3.945  10.246   5.167 -0.2963 -0.7041  0.4387
45185SOL    HW242414   4.029  10.140   5.235 -1.1345 -0.2552  2.2183
45186SOL     OW42415   5.635   4.656   0.418 -0.2501 -0.6652  0.1688
45186SOL    HW142416   5.552   4.702   0.411  0.2194  0.1248 -0.4321
45186SOL    HW242417   5.613   4.563   0.412 -0.9825 -0.4214 -0.9776
45187SOL     OW42418  10.099   3.214   1.893  0.0080  0.0402 -0.2637
45187SOL    HW142419  10.040   3.232   1.819 -0.6017  0.0901  0.2245
45187SOL    HW242420  10.042   3.175   1.959  0.3033  1.0368  0.6066
45188SOL     OW42421   0.765   5.997   6.165 -0.0068 -0.2032 -0.3199
45188SOL    HW142422   0.757   6.001   6.070 -0.9683 -0.9915 -0.2806
45188SOL    HW242423   0.677   6.016   6.198  0.3732  0.3511  0.4308
45189SOL     OW42424   3.383   8.917   3.755 -0.2314 -0.7177  1.0476
45189SOL    HW142425   3.312   8.958   3.804  0.1322  0.9435  0.2621
45189SOL    HW242426   3.461   8.932   3.808 -0.0464 -0.0958  0.6082
45190SOL     OW42427  11.725   8.500   1.107  0.3339  0.2380  0.1818
45190SOL    HW142428  11.740   8.582   1.059 -0.4303  0.7050  0.7240
45190SOL    HW242429  11.756   8.432   1.048 -0.8807  0.7762 -1.1512
45191SOL     OW42430   6.828   4.866   2.122  0.7251 -0.1444 -0.3767
45191SOL    HW142431   6.921   4.882   2.106  0.4223  1.0650 -1.0714
45191SOL    HW242432   6.803   4.799   2.059  1.0299 -0.1314 -0.5122
45192SOL     OW42433  11.586   6.781   2.261  0.4027  0.5368  0.0223
45192SOL    HW142434  11.516   6.722   2.288  0.7260 -0.6125 -1.5635
45192SOL    HW242435  11.638   6.794   2.341 -0.8853  0.4138  0.9051
45193SOL     OW42436   1.143   9.181   7.007 -0.0469 -0.2235  0.6103
45193SOL    HW142437   1.156   9.092   7.041  0.3116  0.0298  1.1507
45193SOL    HW242438   1.202   9.235   7.059  1.8677 -0.0573 -1.5892
45194SOL     OW42439  10.187   3.964   7.999  0.3106 -0.3444  0.4082
45194SOL    HW142440  10.140   4.026   8.055 -0.3427  0.2153 -0.7289
45194SOL    HW242441  10.195   4.009   7.915  0.0534 -1.7007 -0.3664
45195SOL     OW42442   5.802   4.351   0.644 -0.2719 -0.4458  0.0793
45195SOL    HW142443   5.805   4.404   0.724 -1.2275  0.0354 -0.1982
45195SOL    HW242444   5.875   4.385   0.591 -0.5417  0.2443  0.1310
45196SOL     OW42445   8.300   0.244  11.398 -0.0945 -0.2252 -0.3985
45196SOL    HW142446   8.233   0.185  11.432 -1.2847  0.3315 -1.6811
45196SOL    HW242447   8.357   0.188  11.345  0.3095 -0.6541  0.4760
45197SOL     OW42448   2.295  11.332   9.516 -0.1570  0.5671 -0.1476
45197SOL    HW142449   2.239  11.401   9.549 -0.5899 -0.4433  1.3526
45197SOL    HW242450   2.325  11.286   9.595 -2.3357 -2.8421 -1.1099
45198SOL     OW42451  12.458   4.430   0.153 -0.0066 -0.2249 -0.1420
45198SOL    HW142452  12.546   4.407   0.182  0.1994  2.1451  1.3421
45198SOL    HW242453  12.470   4.471   0.068 -0.1246 -2.8878 -1.5701
45199SOL     OW42454  11.554   2.955   3.915 -0.2470  0.3125  0.0183
45199SOL    HW142455  11.554   2.957   4.010 -1.0416 -2.3657  0.1427
45199SOL    HW242456  11.464   2.977   3.891  0.6113  4.2047 -0.3920
45200SOL     OW42457   8.616  11.339   6.604  0.5092  0.4559  0.0147
45200SOL    HW142458   8.633  11.271   6.538 -0.8602  0.4287 -0.3305
45200SOL    HW242459   8.584  11.413   6.553  0.1166  0.6838  0.5927
45201SOL     OW42460  11.212   2.653  10.592  0.1284 -0.5326 -0.1167
45201SOL    HW142461  11.175   2.565  10.589 -0.0755 -0.4521 -0.0013
45201SOL    HW242462  11.225   2.671  10.685 -1.8059  0.3655  0.0410
45202SOL     OW42463  10.150   1.986   9.609 -0.0554 -0.5560  0.4061
45202SOL    HW142464  10.073   2.035   9.637 -0.0938  0.4862 -1.3636
45202SOL    HW242465  10.166   2.015   9.519  1.9397 -1.3209  0.4491
45203SOL     OW42466   7.208  10.142   4.314  0.1646 -0.3541  0.2826
45203SOL    HW142467   7.295  10.167   4.285  0.1442  1.2275  1.4456
45203SOL    HW242468   7.212  10.147   4.410 -1.4072  0.5700  0.3409
45204SOL     OW42469   3.036   8.163   7.797  0.4093  0.3238 -0.4293
45204SOL    HW142470   3.067   8.247   7.832 -0.3201  0.9438 -1.2242
45204SOL    HW242471   2.965   8.187   7.737 -2.2286 -1.0312  1.9144
45205SOL     OW42472   1.241   0.905   3.953  0.5947 -0.5701 -0.0686
45205SOL    HW142473   1.331   0.935   3.966  0.3992  2.0553 -3.2681
45205SOL    HW242474   1.240   0.870   3.864 -1.6706  0.2158 -0.4317
45206SOL     OW42475   3.423   4.847   9.541  0.2840  1.0925  0.2314
45206SOL    HW142476   3.444   4.849   9.448  0.1790  0.0896  0.1783
45206SOL    HW242477   3.335   4.810   9.545  0.2193  1.2918  0.7260
45207SOL     OW42478   4.063   6.403  12.348  0.6950 -0.5921 -0.0557
45207SOL    HW142479   4.054   6.361  12.263 -1.2620  0.4708 -0.4425
45207SOL    HW242480   4.004   6.355  12.406 -0.7330  0.8493 -0.2393
45208SOL     OW42481   0.074   1.700  10.894  0.4536  0.1513 -0.4067
45208SOL    HW142482   0.025   1.715  10.975  1.7444 -1.2790  0.6910
45208SOL    HW242483   0.009   1.668  10.832 -0.1286 -1.2244  0.8557
45209SOL     OW42484  11.467   1.984   4.430 -0.1613 -0.3432 -0.1964
45209SOL    HW142485  11.557   2.016   4.430 -0.2890  0.0104 -0.4354
45209SOL    HW242486  11.442   1.983   4.523 -0.0696 -0.0035 -0.1690
45210SOL     OW42487  11.651  10.896   2.199 -0.8431  0.2926  0.0788
45210SOL    HW142488  11.705  10.966   2.164  0.6656 -1.0661 -0.4606
45210SOL    HW242489  11.662  10.824   2.137 -0.7567 -1.0662  1.5949
45211SOL     OW42490  10.399   3.121  12.570 -0.5227 -0.0785 -0.1606
45211SOL    HW142491  10.476   3.068  12.550 -0.3565  0.1744 -0.1983
45211SOL    HW242492  10.334   3.094  12.505 -0.9871 -1.3815  0.8085
45212SOL     OW42493   5.003   3.835  10.348  0.6549  0.3974 -0.0372
45212SOL    HW142494   4.932   3.792  10.302  0.5531  0.1980  0.3027
45212SOL    HW242495   5.028   3.908  10.292  0.2960  0.3674 -0.2352
45213SOL     OW42496   4.871  11.365   9.347 -0.5573  0.3418  0.3941
45213SOL    HW142497   4.821  11.298   9.393 -0.9960 -1.2720 -2.1881
45213SOL    HW242498   4.954  11.323   9.326 -1.0165  0.3197 -1.6743
45214SOL     OW42499   5.769   6.114   2.770  0.5611 -0.6889  0.5949
45214SOL    HW142500   5.741   6.126   2.861  0.3136  0.4071  0.3890
45214SOL    HW242501   5.731   6.030   2.744 -0.7536 -0.2417  0.9973
45215SOL     OW42502   9.777   5.615  12.213  0.3911  0.0943  0.7294
45215SOL    HW142503   9.766   5.707  12.238 -1.6017  0.0623  0.2243
45215SOL    HW242504   9.688   5.587  12.190  1.2157 -1.4722 -0.7716
45216SOL     OW42505   5.139   2.200   3.656 -0.0136  0.3023  0.0227
45216SOL    HW142506   5.175   2.264   3.717 -0.5618 -0.0401  0.7209
45216SOL    HW242507   5.108   2.129   3.711 -0.3870 -0.0861 -0.6675
45217SOL     OW42508   8.034   3.653   0.457 -0.5587 -0.5467  0.2412
45217SOL    HW142509   7.984   3.719   0.410  2.2754  0.6371 -1.4052
45217SOL    HW242510   8.057   3.693   0.541 -1.5394 -0.7402  0.6086
45218SOL     OW42511   6.167  11.661  11.656 -0.5355  0.3459  0.4971
45218SOL    HW142512   6.130  11.584  11.613  0.7338  0.0425 -0.0780
45218SOL    HW242513   6.186  11.722  11.585 -0.1073  0.5745  0.8044
45219SOL     OW42514   4.386  12.438   4.075  0.0952  0.3142  1.2407
45219SOL    HW142515   4.406  12.498   4.146 -0.0484  1.6898  0.1678
45219SOL    HW242516   4.291  12.446   4.063  0.4090  2.1004 -0.7410
45220SOL     OW42517   6.849   0.731   6.315 -0.5054 -0.6629  0.5611
45220SOL    HW142518   6.928   0.779   6.288 -0.1409 -1.2015  0.6501
45220SOL    HW242519   6.845   0.657   6.255 -1.9224  0.2800 -0.5785
45221SOL     OW42520   7.156   8.272  12.455  0.6132 -0.0415 -0.2616
45221SOL    HW142521   7.211   8.195  12.446  1.4382  0.6054 -0.9106
45221SOL    HW242522   7.176   8.325  12.378  0.2198  0.9239  0.2810
45222SOL     OW42523  10.321  12.074   2.907  0.2621 -1.3714  0.3341
45222SOL    HW142524  10.252  12.140   2.904 -1.0261 -2.7087 -0.8644
45222SOL    HW242525  10.389  12.113   2.962 -0.4926  0.8858 -0.2209
45223SOL     OW42526   4.684   2.304  11.846 -0.3242  0.1995  0.2638
45223SOL    HW142527   4.755   2.260  11.893  0.1626 -0.3519 -0.9358
45223SOL    HW242528   4.670   2.250  11.768 -0.6121  1.4708 -0.5939
45224SOL     OW42529   7.005  11.497   8.386 -0.3114  0.0533  0.1356
45224SOL    HW142530   7.058  11.419   8.397  1.0424  0.6909 -1.4702
45224SOL    HW242531   7.044  11.561   8.446 -0.2602  0.0479  0.1082
45225SOL     OW42532   7.236   3.720   8.781 -0.2392  0.0263 -0.1902
45225SOL    HW142533   7.264   3.754   8.696 -1.6991  1.8889 -0.0002
45225SOL    HW242534   7.178   3.647   8.760 -0.1834  0.1493 -0.7854
45226SOL     OW42535   1.424   5.656   4.251  0.5311 -0.2164  0.4090
45226SOL    HW142536   1.342   5.667   4.299  0.8207 -0.2446  0.9229
45226SOL    HW242537   1.411   5.576   4.199 -0.2717  0.5402 -0.5892
45227SOL     OW42538   5.990   2.192   9.259  0.2190 -0.1258  0.2232
45227SOL    HW142539   5.919   2.130   9.272  0.0419  0.1254  0.4649
45227SOL    HW242540   6.036   2.160   9.181 -0.7896  0.2955 -0.5646
45228SOL     OW42541   2.397   8.281  10.032 -0.2405 -0.1594  0.3759
45228SOL    HW142542   2.454   8.352  10.062 -0.6880 -0.0775  1.0300
45228SOL    HW242543   2.446   8.201  10.054 -0.5879 -0.1039  1.3865
45229SOL     OW42544   8.936   6.187   3.550  0.1500 -0.0241 -0.2852
45229SOL    HW142545   8.969   6.181   3.460 -1.6704 -0.4875 -0.9649
45229SOL    HW242546   8.860   6.129   3.551 -1.3559  1.8822  0.8504
45230SOL     OW42547   9.114   3.037   6.531  0.8585 -0.6593  0.0208
45230SOL    HW142548   9.024   3.025   6.502  1.1212 -0.7978 -0.7523
45230SOL    HW242549   9.133   2.959   6.583  0.4487 -0.4942  0.4344
45231SOL     OW42550   7.023   7.067   9.432 -0.1433 -0.1545  0.8012
45231SOL    HW142551   6.976   7.055   9.350 -0.7954  0.8776  1.0123
45231SOL    HW242552   7.087   6.996   9.433  0.1765  0.0748 -0.8029
45232SOL     OW42553   3.361   0.923   8.248  0.5047 -0.5433  1.0178
45232SOL    HW142554   3.335   0.835   8.275 -0.3669 -0.5440  0.2181
45232SOL    HW242555   3.289   0.954   8.194  0.6465  0.7966  1.5533
45233SOL     OW42556   5.731   9.041   6.942 -0.5268 -0.3219 -0.3543
45233SOL    HW142557   5.766   9.119   6.900 -1.5692  0.5483  0.3140
45233SOL    HW242558   5.797   9.016   7.007  0.4798 -0.8947 -1.5588
45234SOL     OW42559   1.276   5.951   3.668 -0.0254  0.2920 -0.0207
45234SOL    HW142560   1.299   5.873   3.618 -2.4741 -0.7376  0.3117
45234SOL    HW242561   1.236   5.917   3.749  0.1577  1.8974  0.7883
45235SOL     OW42562  12.250   6.963   3.545 -0.0888 -0.5797 -0.0184
45235SOL    HW142563  12.325   6.956   3.604 -0.5781 -2.2952  0.4379
45235SOL    HW242564  12.192   6.892   3.570 -0.9515 -0.5192 -1.6770
45236SOL     OW42565   4.034   8.189   1.066 -0.0951  0.1182  0.1165
45236SOL    HW142566   4.000   8.157   0.982  0.4647 -0.0066 -0.0615
45236SOL    HW242567   3.977   8.148   1.131  0.9946 -1.8081 -0.0660
45237SOL     OW42568   8.589   6.443  10.431  0.1456  0.3021  0.3289
45237SOL    HW142569   8.580   6.535  10.405 -1.1649  0.7529  2.0855
45237SOL    HW242570   8.641   6.446  10.511  1.1059 -0.6411 -0.2353
45238SOL     OW42571   9.361  10.915   5.923 -1.1344  0.2889  0.1492
45238SOL    HW142572   9.418  10.954   5.858  1.6007 -2.0724  0.9162
45238SOL    HW242573   9.326  10.837   5.881 -1.5052  0.1818  0.6424
45239SOL     OW42574   2.911  12.556   8.371  0.0809 -0.4313  0.3728
45239SOL    HW142575   2.982  12.491   8.365  0.8640  0.3914  0.5689
45239SOL    HW242576   2.886  12.572   8.280  0.7797 -0.0545  0.2404
45240SOL     OW42577   4.191   4.630   4.733 -0.1775  0.6298 -0.1591
45240SOL    HW142578   4.134   4.660   4.662  1.8793  1.4123 -1.5618
45240SOL    HW242579   4.179   4.696   4.802  0.5611  1.9974 -1.2797
45241SOL     OW42580   7.483  10.065   1.484  0.2829 -0.0581  0.1488
45241SOL    HW142581   7.496  10.116   1.404 -0.8127  2.0342  1.2104
45241SOL    HW242582   7.394  10.030   1.476  0.6755 -1.0457 -0.1293
45242SOL     OW42583   7.730   1.291   2.149  0.2181 -0.4401  0.5597
45242SOL    HW142584   7.732   1.233   2.225 -0.5503 -0.3166  0.6853
45242SOL    HW242585   7.795   1.358   2.168 -0.4732  0.0001  1.4543
45243SOL     OW42586  11.286   7.081   4.131 -0.6532  0.1836  0.4609
45243SOL    HW142587  11.206   7.057   4.179 -0.6616  0.1947  0.4517
45243SOL    HW242588  11.281   7.031   4.050 -0.9810  0.7011  0.1598
45244SOL     OW42589  10.140  12.574   3.935 -0.1809  0.5442  0.1061
45244SOL    HW142590  10.219  12.628   3.941 -1.8231  3.8538 -3.5943
45244SOL    HW242591  10.153  12.521   3.856 -1.1750  0.2780  0.1085
45245SOL     OW42592   7.105   1.542   0.377 -0.2865 -0.0653 -0.0705
45245SOL    HW142593   7.141   1.594   0.449 -0.3287 -0.4092  0.2068
45245SOL    HW242594   7.181   1.508   0.331 -0.2177 -1.3053  0.8891
45246SOL     OW42595   1.663  10.778   9.565 -0.1576  0.3668 -0.4258
45246SOL    HW142596   1.675  10.683   9.561 -0.7979  0.3058 -0.9206
45246SOL    HW242597   1.644  10.804   9.475  1.7290  1.2138 -0.6312
45247SOL     OW42598   1.942   6.353  10.690  0.0492 -0.1972 -0.0493
45247SOL    HW142599   2.013   6.309  10.736  1.8440  0.6858 -1.8284
45247SOL    HW242600   1.949   6.322  10.600 -2.0780 -0.3505 -0.2133
45248SOL     OW42601   5.244   2.844  12.188 -0.4570  0.1668 -0.6240
45248SOL    HW142602   5.286   2.908  12.130 -0.0963 -0.3582 -0.9560
45248SOL    HW242603   5.309   2.826  12.255  0.1100 -1.0880 -1.4663
45249SOL     OW42604   9.647   6.988   2.281 -0.1258  0.1624  0.7563
45249SOL    HW142605   9.658   6.951   2.194 -2.3785  0.0198  0.4691
45249SOL    HW242606   9.713   7.057   2.286  1.3639 -1.1033 -0.2751
45250SOL     OW42607   7.692   5.478   9.133  0.1283 -0.1419  0.0688
45250SOL    HW142608   7.614   5.505   9.085  0.2108  0.9519  0.4931
45250SOL    HW242609   7.689   5.383   9.136 -0.6984 -0.1394 -0.7208
45251SOL     OW42610  10.365   4.942   0.503  0.3009  0.2135 -0.3114
45251SOL    HW142611  10.361   4.975   0.592  0.8395 -1.6656  0.4636
45251SOL    HW242612  10.275   4.918   0.482  0.1484  0.7999 -0.3552
45252SOL     OW42613   4.845   3.665   3.611  0.5956  0.4862  0.6367
45252SOL    HW142614   4.884   3.723   3.545 -0.9352 -0.2935 -1.0527
45252SOL    HW242615   4.752   3.663   3.589  0.1490 -0.3716  2.4316
45253SOL     OW42616   5.789   3.634   0.563  0.4205  0.0167  0.1525
45253SOL    HW142617   5.780   3.543   0.535  0.7865  0.1011 -0.2533
45253SOL    HW242618   5.859   3.669   0.508 -0.7630  0.9834 -0.7872
45254SOL     OW42619   7.579   8.533  12.112  0.0251  0.3178 -0.2617
45254SOL    HW142620   7.592   8.570  12.025 -1.4546 -0.8325 -1.0272
45254SOL    HW242621   7.602   8.604  12.172 -1.8704  2.2333 -1.6322
45255SOL     OW42622   3.233   9.138  10.677 -0.5273 -0.3500 -0.0666
45255SOL    HW142623   3.221   9.073  10.745 -0.0441 -1.3310 -0.8848
45255SOL    HW242624   3.148   9.144  10.633  0.2838 -3.3048 -2.4130
45256SOL     OW42625   4.598   8.861   2.566 -0.4759  0.2120  0.7327
45256SOL    HW142626   4.544   8.903   2.499  0.0416 -0.5304 -0.1806
45256SOL    HW242627   4.621   8.932   2.626 -1.7974  0.6856  0.7073
45257SOL     OW42628   7.502   1.622   6.795 -0.3149 -0.1142 -0.2597
45257SOL    HW142629   7.421   1.641   6.748 -0.7089 -0.3429  0.3260
45257SOL    HW242630   7.539   1.547   6.749  1.0233  1.6837 -2.3124
45258SOL     OW42631   2.897  11.030   4.143  0.3438 -0.3378 -0.6261
45258SOL    HW142632   2.808  11.018   4.110 -0.1779  0.3405  0.4656
45258SOL    HW242633   2.919  10.945   4.182  0.4356 -0.7135 -1.4927
45259SOL     OW42634   3.718   7.232   1.271 -0.4573  0.5478 -0.0510
45259SOL    HW142635   3.642   7.259   1.218 -1.5090  0.0452  1.1350
45259SOL    HW242636   3.686   7.235   1.361  0.9338  0.2458  0.4747
45260SOL     OW42637   4.881   9.041   5.170 -0.0745 -0.3755  0.4181
45260SOL    HW142638   4.917   8.967   5.122 -0.2025 -1.5152  2.0007
45260SOL    HW242639   4.956   9.098   5.188  0.2887 -0.8742  0.4762
45261SOL     OW42640   9.452  11.543   9.157 -0.2483 -0.5126  0.5785
45261SOL    HW142641   9.464  11.479   9.087 -2.0178 -0.1522 -0.0986
45261SOL    HW242642   9.531  11.535   9.211  0.4047 -1.9353 -0.5382
45262SOL     OW42643  10.242   3.479  12.069  0.4407 -0.2411  0.1833
45262SOL    HW142644  10.187   3.493  12.146  1.5138  0.5746  0.8236
45262SOL    HW242645  10.321   3.439  12.102  0.6134 -0.5696 -0.6069
45263SOL     OW42646  11.576   9.353   6.614 -0.0849  0.5786  0.1360
45263SOL    HW142647  11.598   9.441   6.584  1.1687  0.2697  0.0846
45263SOL    HW242648  11.657   9.319   6.652  0.2730 -1.4687 -2.1078
45264SOL     OW42649   5.516   8.907   2.547  0.4902  0.0707  0.1917
45264SOL    HW142650   5.572   8.922   2.624  0.0986  0.5815  0.3835
45264SOL    HW242651   5.446   8.850   2.578 -0.3022  1.1932  0.5171
45265SOL     OW42652  11.555   3.549  11.761  0.1870 -0.3366 -0.0739
45265SOL    HW142653  11.550   3.644  11.748 -0.8830 -0.4083 -0.3220
45265SOL    HW242654  11.467   3.518  11.741  0.7531 -1.4983 -0.9243
45266SOL     OW42655   7.761   4.595  11.181 -0.2902 -0.0120  0.1878
45266SOL    HW142656   7.745   4.573  11.089 -0.7708 -0.6126  0.4050
45266SOL    HW242657   7.798   4.683  11.179 -3.1195  1.2748 -0.4069
45267SOL     OW42658   6.346   4.456   9.770  0.2380 -0.1335 -0.0771
45267SOL    HW142659   6.390   4.537   9.794  0.4434  0.5198 -2.3790
45267SOL    HW242660   6.256   4.467   9.799  0.5556  0.3926  0.7198
45268SOL     OW42661   8.569  11.365   1.781  0.7884 -0.8097 -0.4961
45268SOL    HW142662   8.641  11.304   1.762  2.1125  0.4854  0.1834
45268SOL    HW242663   8.587  11.441   1.726  0.4993 -0.0674  0.4136
45269SOL     OW42664   1.642   4.012   2.429  0.0581  0.0321 -0.3210
45269SOL    HW142665   1.562   3.965   2.405  0.1861  0.3110 -1.3565
45269SOL    HW242666   1.679   4.040   2.345  1.1268  0.1011  0.1550
45270SOL     OW42667   4.778   3.988   5.977 -0.9916  0.4821 -0.2717
45270SOL    HW142668   4.781   3.920   6.045  1.2588  0.5419 -0.2255
45270SOL    HW242669   4.788   4.070   6.025  1.5562  0.4764 -0.6379
45271SOL     OW42670  11.268   6.629   0.711  0.6142  0.2744  0.3401
45271SOL    HW142671  11.307   6.656   0.628  1.5501 -0.7270  0.4305
45271SOL    HW242672  11.313   6.681   0.777  1.1770 -0.2261  0.3633
45272SOL     OW42673  10.940   4.949  12.267  0.2350 -0.2417 -0.4558
45272SOL    HW142674  10.889   4.888  12.320  2.0788 -1.9050 -0.4800
45272SOL    HW242675  11.031   4.926  12.285  0.9933  1.9303 -1.1868
45273SOL     OW42676  11.431   1.329  11.969 -0.4986  0.4853 -0.3776
45273SOL    HW142677  11.421   1.339  12.064  0.5366 -0.1057 -0.1828
45273SOL    HW242678  11.391   1.407  11.932 -1.0306  0.6634  0.5393
45274SOL     OW42679   2.204   8.972   4.780 -0.3348  0.1459  0.0749
45274SOL    HW142680   2.156   9.034   4.836 -0.2391  1.9019 -1.6670
45274SOL    HW242681   2.142   8.951   4.710  0.9281  1.4748 -1.5293
45275SOL     OW42682  11.964   0.986   2.868  0.1297  0.1285 -0.0496
45275SOL    HW142683  11.915   0.953   2.943  0.5212 -0.0348  0.1308
45275SOL    HW242684  11.919   1.067   2.845 -0.5679 -0.2996 -0.2287
45276SOL     OW42685   3.797   0.104   0.752  0.0890 -0.3135  0.0535
45276SOL    HW142686   3.799   0.194   0.783 -2.4216 -0.3877  0.6791
45276SOL    HW242687   3.733   0.104   0.681  0.6123 -1.4750 -0.4532
45277SOL     OW42688  11.162   8.951  10.839  0.5345  0.1234  0.0660
45277SOL    HW142689  11.206   9.012  10.780 -0.3107 -0.7087 -1.4889
45277SOL    HW242690  11.229   8.929  10.905  1.1586  1.9099  0.0837
45278SOL     OW42691   7.615   4.276  11.572 -0.2652 -0.2175 -0.3108
45278SOL    HW142692   7.558   4.226  11.514 -0.0361 -0.3467 -0.4239
45278SOL    HW242693   7.657   4.341  11.516  0.6449 -0.9302 -0.4648
45279SOL     OW42694   0.992  12.001   2.973 -0.0171  0.3755  0.4027
45279SOL    HW142695   1.056  12.008   2.902  0.3520 -1.8299  0.4577
45279SOL    HW242696   1.038  12.035   3.050  1.5600 -2.0600  0.6636
45280SOL     OW42697   2.418   0.110   5.098 -0.2791 -0.0186 -0.0569
45280SOL    HW142698   2.480   0.142   5.032  2.1910  0.6243  2.3724
45280SOL    HW242699   2.342   0.168   5.090  1.2720  2.0864 -0.3031
45281SOL     OW42700   1.461   5.562   6.845  0.0514 -0.0049  0.1352
45281SOL    HW142701   1.400   5.619   6.892 -0.4653  0.0131 -0.5426
45281SOL    HW242702   1.523   5.533   6.911 -1.0012 -0.4425  0.9401
45282SOL     OW42703   2.596   7.741   3.653 -0.2041 -0.1533  0.5547
45282SOL    HW142704   2.659   7.717   3.721  1.2388  3.5593  0.7949
45282SOL    HW242705   2.650   7.761   3.577 -1.3910  0.0720 -0.2559
45283SOL     OW42706   4.468   5.990   1.558  0.1672 -0.3985  0.7323
45283SOL    HW142707   4.491   5.909   1.604 -1.0703 -1.2618 -0.0899
45283SOL    HW242708   4.372   5.988   1.553  0.2263 -0.3655 -1.8648
45284SOL     OW42709  12.539  10.624   8.160 -0.3651  0.2473 -0.2782
45284SOL    HW142710  12.534  10.588   8.071 -1.6875 -0.3614  0.0077
45284SOL    HW242711  12.625  10.597   8.192  0.0760  0.3624 -1.3242
45285SOL     OW42712  10.124  10.433   0.114 -0.4499  0.0822 -0.9602
45285SOL    HW142713  10.145  10.347   0.078 -2.3665 -1.7397  1.8630
45285SOL    HW242714  10.208  10.466   0.147  0.3163 -0.6871 -2.0582
45286SOL     OW42715   0.384   6.279   3.236  0.6333  0.3865 -0.7644
45286SOL    HW142716   0.400   6.317   3.322  1.1193 -0.4387 -0.4822
45286SOL    HW242717   0.357   6.353   3.182 -2.4525  0.5507  0.7587
45287SOL     OW42718   5.481   8.293   1.594  0.4392  0.3486  0.5558
45287SOL    HW142719   5.437   8.285   1.679  1.8508 -1.7592  1.1833
45287SOL    HW242720   5.568   8.325   1.615 -0.1277  2.7887 -0.4923
45288SOL     OW42721   9.077   9.057   8.915 -0.0102  0.8454  0.0825
45288SOL    HW142722   9.042   9.129   8.967  0.4975  1.8550 -0.9245
45288SOL    HW242723   9.094   9.095   8.829  1.4976 -0.1505 -0.1054
45289SOL     OW42724   3.408  12.543   9.976  0.6813  0.8430  0.5013
45289SOL    HW142725   3.500  12.519   9.962  0.2054 -1.1615  0.5241
45289SOL    HW242726   3.369  12.466  10.018 -1.0624  1.5597  0.2861
45290SOL     OW42727   2.967   0.182   6.930 -0.4856 -0.2876 -0.4443
45290SOL    HW142728   2.977   0.275   6.909  0.4527 -0.4320 -0.7120
45290SOL    HW242729   3.012   0.172   7.014 -1.3300 -0.3440  0.0085
45291SOL     OW42730  12.165   3.473  12.412  0.4643 -0.2741  0.0383
45291SOL    HW142731  12.259   3.457  12.409  0.8063  1.2379  1.4575
45291SOL    HW242732  12.144   3.509  12.326  1.3772  0.2490  0.0235
45292SOL     OW42733   0.303   1.781   1.919  0.2338  0.4379 -0.6396
45292SOL    HW142734   0.389   1.744   1.898  0.5882  0.4463  0.7180
45292SOL    HW242735   0.255   1.709   1.959 -0.1121  0.6436 -0.6822
45293SOL     OW42736   4.771  10.370   6.825 -0.3319 -0.1148  0.5128
45293SOL    HW142737   4.802  10.353   6.914  1.9722  1.2244  0.0464
45293SOL    HW242738   4.774  10.284   6.782 -1.1519 -0.7110  1.6096
45294SOL     OW42739   0.829   7.805   4.527  0.4188  0.4148 -0.3207
45294SOL    HW142740   0.792   7.809   4.439 -0.4695  1.4152  0.0762
45294SOL    HW242741   0.790   7.726   4.565  0.7038  0.0522 -0.7603
45295SOL     OW42742   4.883   1.803   1.347 -0.1479  0.2460  0.4389
45295SOL    HW142743   4.796   1.776   1.319  0.2175 -0.0877 -0.4265
45295SOL    HW242744   4.899   1.753   1.427  0.4655 -2.1148 -1.0518
45296SOL     OW42745   0.438  10.043  12.057  0.1590 -0.2022 -0.6748
45296SOL    HW142746   0.471   9.989  12.128  0.8186 -1.1801 -1.6914
45296SOL    HW242747   0.343  10.038  12.065  0.2281 -0.5838 -0.0710
45297SOL     OW42748   3.915   7.319   3.451 -0.2268 -0.4013  0.3002
45297SOL    HW142749   3.934   7.404   3.492  0.7128  0.7458 -2.3012
45297SOL    HW242750   3.821   7.307   3.462 -0.8942  2.3244 -1.5116
45298SOL     OW42751   1.587   1.462  10.191 -1.1513  0.0251 -0.1270
45298SOL    HW142752   1.543   1.411  10.260 -0.4097 -1.5200 -0.7499
45298SOL    HW242753   1.516   1.491  10.134 -1.7124  0.7657  0.9135
45299SOL     OW42754   5.308   1.436   9.471 -0.3339  0.3499 -0.6002
45299SOL    HW142755   5.340   1.346   9.462  1.2847  0.7408  0.6258
45299SOL    HW242756   5.257   1.436   9.552  0.3508  0.6695 -0.1506
45300SOL     OW42757   1.349  11.762   4.136  0.0489  0.1285 -0.0952
45300SOL    HW142758   1.390  11.846   4.154 -1.1349  0.4204  1.4168
45300SOL    HW242759   1.297  11.743   4.214 -1.0719 -1.1851 -1.1105
45301SOL     OW42760   1.669   9.327   9.968  0.2908 -0.4605  0.2906
45301SOL    HW142761   1.618   9.246   9.969  1.7332 -1.3927  0.4632
45301SOL    HW242762   1.620   9.385   9.910 -0.6619 -1.5170  0.0066
45302SOL     OW42763  11.739   5.507   4.903  0.2402  0.1824  0.2038
45302SOL    HW142764  11.827   5.544   4.900 -0.0914  0.9457 -1.3663
45302SOL    HW242765  11.752   5.413   4.890  0.9950 -0.1746  2.9563
45303SOL     OW42766   8.049   4.167   6.741 -0.5540  0.1829  0.1224
45303SOL    HW142767   7.994   4.094   6.773  0.2142 -0.2060  0.5810
45303SOL    HW242768   7.993   4.244   6.750 -0.9427 -0.1679  0.8315
45304SOL     OW42769   7.496  11.065   0.150 -0.1081 -0.2043 -0.4510
45304SOL    HW142770   7.459  10.980   0.129  0.5862 -0.1002 -2.2419
45304SOL    HW242771   7.423  11.126   0.141 -0.4310 -0.5019  0.1015
45305SOL     OW42772   4.350   7.719  11.616  0.1694  0.4061 -0.0935
45305SOL    HW142773   4.282   7.726  11.683 -0.6982  0.7787 -0.9954
45305SOL    HW242774   4.323   7.644  11.563  0.5530  0.4610 -0.3636
45306SOL     OW42775   4.035   4.039   5.190 -0.6883  0.1067  0.0285
45306SOL    HW142776   4.105   4.104   5.178  1.5405 -2.5035 -2.6262
45306SOL    HW242777   4.072   3.974   5.249 -1.2839 -0.7541 -0.5185
45307SOL     OW42778   1.365   2.141  12.262  0.0975  0.2693 -0.2984
45307SOL    HW142779   1.311   2.067  12.288  0.2872 -0.1152 -0.9807
45307SOL    HW242780   1.348   2.207  12.329 -1.0029  0.0577 -0.3398
45308SOL     OW42781   9.036   2.730   2.330 -0.0294 -0.2223 -0.1173
45308SOL    HW142782   8.947   2.714   2.299  1.0994 -3.5115 -2.1711
45308SOL    HW242783   9.057   2.818   2.299 -2.5838  0.7263  0.6261
45309SOL     OW42784   2.926   8.790   5.278  0.1352  0.1652  0.7112
45309SOL    HW142785   2.914   8.885   5.290  1.1512  0.3063  0.6913
45309SOL    HW242786   2.956   8.781   5.188  0.1497 -0.1746  0.7495
45310SOL     OW42787   5.054  11.365   9.749 -0.5195 -0.0060  0.1237
45310SOL    HW142788   4.959  11.356   9.743 -0.2338 -3.0815 -1.6314
45310SOL    HW242789   5.084  11.284   9.790  1.3257  1.4457  1.8686
45311SOL     OW42790   4.699   0.209   8.083 -0.2092 -0.0606  0.1010
45311SOL    HW142791   4.668   0.291   8.043 -1.0640  0.4917  1.7879
45311SOL    HW242792   4.757   0.171   8.017 -0.6934  1.3249 -1.1996
45312SOL     OW42793  12.180   5.474   2.128  0.8579  0.0540  0.3273
45312SOL    HW142794  12.165   5.485   2.034  2.4494  1.3650  0.1809
45312SOL    HW242795  12.098   5.500   2.169  0.2985 -0.0914 -0.6699
45313SOL     OW42796  11.280   8.409   5.726 -0.4767  0.2552  0.1740
45313SOL    HW142797  11.190   8.379   5.715 -0.8546  1.5983 -0.5758
45313SOL    HW242798  11.291   8.420   5.820 -1.0441 -0.0357  0.2761
45314SOL     OW42799  10.859   9.380   5.946  0.2069 -1.0023 -0.1195
45314SOL    HW142800  10.899   9.434   6.015  0.5097  0.0795 -1.1058
45314SOL    HW242801  10.771   9.360   5.979 -0.9090  2.2464 -0.7202
45315SOL     OW42802  10.473   2.332   1.943 -0.3988 -0.1213  0.2203
45315SOL    HW142803  10.420   2.406   1.912 -1.6920 -0.5724  1.2484
45315SOL    HW242804  10.556   2.371   1.970 -0.7307  0.8213 -0.1026
45316SOL     OW42805  11.864   2.574   1.826 -0.2143  0.4905 -0.0478
45316SOL    HW142806  11.872   2.641   1.758  0.7339  0.2349 -0.1968
45316SOL    HW242807  11.902   2.613   1.904 -0.3245  0.3852  0.0595
45317SOL     OW42808  11.624  10.794   2.446  0.1758 -0.3791 -0.0238
45317SOL    HW142809  11.636  10.833   2.359 -0.7014  1.6009  0.6927
45317SOL    HW242810  11.531  10.773   2.450  0.2832 -0.8116  0.3172
45318SOL     OW42811   6.429   5.972   2.341  0.1464 -0.2289  0.3062
45318SOL    HW142812   6.512   5.927   2.360  0.4314  0.6920  1.3610
45318SOL    HW242813   6.365   5.901   2.331  1.2383 -1.0067 -1.6571
45319SOL     OW42814   8.766   5.544  10.337  0.2336 -0.3015 -0.0556
45319SOL    HW142815   8.822   5.598  10.393 -1.9990  0.1835  1.9059
45319SOL    HW242816   8.696   5.603  10.310 -0.0217 -1.1806 -1.3781
45320SOL     OW42817  10.477   2.824   5.761  0.1332 -0.3130  0.4897
45320SOL    HW142818  10.403   2.866   5.804 -0.5579 -1.7844  0.7843
45320SOL    HW242819  10.525   2.896   5.720 -2.7578  0.4992 -1.7863
45321SOL     OW42820   5.788   4.031  10.542 -0.3714  0.3117 -0.5105
45321SOL    HW142821   5.854   4.010  10.476  0.9634  0.3266  0.7665
45321SOL    HW242822   5.789   3.957  10.602 -1.7925  0.1500 -0.6645
45322SOL     OW42823   0.537   4.980   9.767  0.1267 -0.3224 -0.0403
45322SOL    HW142824   0.448   4.999   9.797  0.0904  0.2998 -0.5235
45322SOL    HW242825   0.576   5.066   9.754  1.0318 -0.5832  0.8344
45323SOL     OW42826   4.196   5.655   9.082 -0.5322 -0.3341  0.0388
45323SOL    HW142827   4.212   5.718   9.152  0.8834 -0.3955 -0.2090
45323SOL    HW242828   4.217   5.703   9.001 -2.3596 -0.1878 -0.3879
45324SOL     OW42829   8.495   6.434   8.098 -0.4823 -0.4155 -0.6704
45324SOL    HW142830   8.530   6.469   8.179 -0.5209 -0.1398 -0.7699
45324SOL    HW242831   8.565   6.380   8.061 -0.0521  0.3636 -1.0146
45325SOL     OW42832   0.027  12.534   0.574  0.0845 -0.6567 -0.0353
45325SOL    HW142833  -0.060  12.509   0.543 -0.1585 -1.4920  1.2558
45325SOL    HW242834   0.025  12.630   0.576 -1.2435 -0.6713  1.0808
45326SOL     OW42835   0.856   9.760   1.171  0.0823 -0.0802  0.5508
45326SOL    HW142836   0.799   9.723   1.104  0.6392  1.3585 -0.7929
45326SOL    HW242837   0.812   9.841   1.199 -0.3944 -0.9205  2.3412
45327SOL     OW42838   3.056   8.798   3.355  0.4198 -0.1788 -0.1694
45327SOL    HW142839   3.087   8.780   3.267  1.7877  0.7748  0.0761
45327SOL    HW242840   3.112   8.869   3.386  2.1153 -2.5324  2.6314
45328SOL     OW42841   5.151   9.158   5.827  0.0767  0.0280 -0.4516
45328SOL    HW142842   5.165   9.252   5.836  0.1261  0.0392 -0.6348
45328SOL    HW242843   5.195   9.120   5.903  0.3944  0.1263 -0.5806
45329SOL     OW42844   3.013   6.758  10.675  0.0396  0.2650  0.0834
45329SOL    HW142845   3.058   6.757  10.760  0.7255  0.7679 -0.2689
45329SOL    HW242846   3.021   6.848  10.644 -2.3282  0.7238  0.5688
45330SOL     OW42847   8.805   0.408   6.875 -0.6856  0.2314 -0.1955
45330SOL    HW142848   8.824   0.486   6.926  1.8610  0.1345 -0.8524
45330SOL    HW242849   8.781   0.441   6.789 -0.3167  0.3203 -0.2669
45331SOL     OW42850   0.116   7.630   7.805  1.0394 -0.3185  0.6161
45331SOL    HW142851   0.211   7.627   7.801  1.0781  1.0692 -0.5798
45331SOL    HW242852   0.087   7.591   7.722  0.6279  0.2012  0.5071
45332SOL     OW42853   5.808   5.812   5.551  0.5461 -0.1688  0.3156
45332SOL    HW142854   5.763   5.770   5.624  0.0020  1.3637  0.9229
45332SOL    HW242855   5.739   5.829   5.487  1.1724 -2.3523 -1.0419
45333SOL     OW42856   0.618   3.065  10.143 -0.0516  0.4218 -0.2277
45333SOL    HW142857   0.553   3.068  10.214  0.8051 -0.5159  0.6380
45333SOL    HW242858   0.596   3.138  10.087 -1.5094  0.4589  0.3585
45334SOL     OW42859   4.962  10.816  11.565 -0.5694 -0.0706  0.0337
45334SOL    HW142860   4.895  10.872  11.525  0.4695  0.4293 -1.0370
45334SOL    HW242861   4.911  10.753  11.617 -1.9151 -0.1495 -1.3117
45335SOL     OW42862  12.224   3.369  11.158 -0.4539  0.2337 -0.1527
45335SOL    HW142863  12.290   3.304  11.181 -1.8103 -1.3716 -0.6098
45335SOL    HW242864  12.259   3.452  11.192  0.8212 -0.8848  1.4265
45336SOL     OW42865   0.148  10.374   2.560  0.5375 -0.3043 -0.2385
45336SOL    HW142866   0.074  10.318   2.533  0.6058 -0.3424 -0.3449
45336SOL    HW242867   0.215  10.312   2.588 -0.2407 -0.2612  1.9167
45337SOL     OW42868   2.727   5.449   5.969 -0.1623  0.0199  0.5805
45337SOL    HW142869   2.768   5.530   5.938 -0.1475 -0.3591 -0.3948
45337SOL    HW242870   2.636   5.457   5.943 -0.4190  0.2239  1.5015
45338SOL     OW42871   2.159   7.561   2.715  0.3211 -0.0781 -0.0310
45338SOL    HW142872   2.067   7.536   2.705 -0.2820  2.1504 -0.6690
45338SOL    HW242873   2.157   7.641   2.767  1.8710  0.2190 -0.3627
45339SOL     OW42874   6.306  10.947  10.385 -0.4015 -0.4981  0.1434
45339SOL    HW142875   6.300  11.039  10.409  2.8720  0.1237 -0.8536
45339SOL    HW242876   6.336  10.903  10.465 -0.4183 -0.4144  0.1956
45340SOL     OW42877  11.452  11.613   2.274 -0.6714 -0.1553  0.0924
45340SOL    HW142878  11.363  11.634   2.246 -0.6996  0.2876  0.4982
45340SOL    HW242879  11.469  11.527   2.236 -1.0966 -0.0358 -0.3865
45341SOL     OW42880   0.631  12.317   2.466  0.5511 -0.0466  0.5425
45341SOL    HW142881   0.556  12.289   2.414  0.5313  0.0510  0.5189
45341SOL    HW242882   0.681  12.236   2.481  0.7447 -0.0210  0.0633
45342SOL     OW42883   8.870   2.524   5.127 -0.3660  0.5222  0.4034
45342SOL    HW142884   8.909   2.449   5.172 -0.4009  0.0885 -0.2771
45342SOL    HW242885   8.936   2.550   5.063 -0.4948  0.8577  0.4093
45343SOL     OW42886  12.148   8.767  12.546 -0.5195  0.3610 -0.6474
45343SOL    HW142887  12.069   8.748  12.496  0.1498 -0.9242 -1.2790
45343SOL    HW242888  12.150   8.863  12.554 -2.2072  0.3947 -0.4537
45344SOL     OW42889  10.281   8.972   3.843  0.3715 -0.0522 -0.1919
45344SOL    HW142890  10.244   8.962   3.755  1.0035 -1.7091 -0.2978
45344SOL    HW242891  10.228   8.914   3.898 -1.4647  2.5977  1.0457
45345SOL     OW42892   6.834  11.889  10.217  0.2735  0.0480  0.8443
45345SOL    HW142893   6.769  11.857  10.280  0.5124 -0.4667  0.8306
45345SOL    HW242894   6.839  11.820  10.151  1.2325 -0.1670  1.1279
45346SOL     OW42895  10.781   4.685   8.775 -0.2016  0.1014  0.2520
45346SOL    HW142896  10.792   4.668   8.869  2.0207  1.2113  0.2596
45346SOL    HW242897  10.844   4.626   8.733 -1.0681 -0.2709 -0.5381
45347SOL     OW42898   9.978  11.038  11.593  0.7356  0.0404  0.1222
45347SOL    HW142899  10.052  11.047  11.652  0.0842  1.3202  0.7770
45347SOL    HW242900   9.920  10.976  11.638  1.4690 -1.1197 -0.4858
45348SOL     OW42901   6.836  12.385   3.044 -0.1975  0.0466  0.0870
45348SOL    HW142902   6.797  12.366   2.959  0.3981 -0.3925 -0.0965
45348SOL    HW242903   6.905  12.449   3.025 -0.0634 -0.0520  0.2366
45349SOL     OW42904  10.737   5.411  10.040 -0.4370  0.1526  0.0171
45349SOL    HW142905  10.734   5.498  10.079  0.7244 -0.4051  1.4176
45349SOL    HW242906  10.670   5.361  10.086 -1.4919  0.4086 -1.1673
45350SOL     OW42907  11.118   6.546   9.201  0.1691  0.1684 -0.0566
45350SOL    HW142908  11.045   6.525   9.260  1.2576 -0.3972  1.1507
45350SOL    HW242909  11.123   6.471   9.142 -0.4777  0.4042 -0.4237
45351SOL     OW42910   5.387  11.651  11.550 -0.0500 -0.2901  0.4086
45351SOL    HW142911   5.448  11.579  11.564  0.7982  0.5383  1.0574
45351SOL    HW242912   5.346  11.630  11.466  1.9299 -0.3150 -0.6112
45352SOL     OW42913   6.294   1.806   2.658 -0.3482 -0.0661 -0.3330
45352SOL    HW142914   6.221   1.760   2.617 -0.2320  0.1389 -0.7633
45352SOL    HW242915   6.291   1.894   2.622  0.4518 -0.2137 -0.7863
45353SOL     OW42916   2.405  12.102   1.301  0.6908 -0.2886  0.5883
45353SOL    HW142917   2.413  12.015   1.261 -0.4263 -0.1209 -0.0352
45353SOL    HW242918   2.430  12.088   1.392  1.5582 -1.0404  0.2584
45354SOL     OW42919   7.412   6.356   7.767 -0.3700  0.2574 -0.0304
45354SOL    HW142920   7.490   6.364   7.713  0.1512  0.2936  0.7138
45354SOL    HW242921   7.342   6.395   7.714  0.3500  1.3694 -0.2004
45355SOL     OW42922   2.538   1.050   9.552 -0.5305  0.2032 -0.5490
45355SOL    HW142923   2.567   0.966   9.516  0.7229  1.1403 -1.8255
45355SOL    HW242924   2.447   1.034   9.579  0.0737 -1.9038  0.4681
45356SOL     OW42925   1.727   5.756  11.689  0.3226 -0.0035  0.2386
45356SOL    HW142926   1.703   5.691  11.755  0.6046 -0.7948 -0.4117
45356SOL    HW242927   1.649   5.811  11.680  0.4565  0.4270  1.5750
45357SOL     OW42928   1.573   6.200   2.838 -0.4160 -0.3890  0.2027
45357SOL    HW142929   1.517   6.205   2.915 -0.1128  0.7486  0.3779
45357SOL    HW242930   1.638   6.270   2.852  0.6713 -1.2791 -0.2749
45358SOL     OW42931  11.394   1.242  11.143 -0.1121  0.2979 -0.4353
45358SOL    HW142932  11.461   1.282  11.199  0.0771  0.1913 -0.5841
45358SOL    HW242933  11.364   1.166  11.192  0.5807 -0.2236 -0.7959
45359SOL     OW42934   2.710   2.670   6.295  0.2356 -0.1980  0.2840
45359SOL    HW142935   2.641   2.617   6.335 -0.9718  0.5892 -0.6341
45359SOL    HW242936   2.775   2.683   6.364 -0.7368 -0.6349  1.3139
45360SOL     OW42937   6.546   6.798   6.044  0.2818 -0.4315 -0.1249
45360SOL    HW142938   6.467   6.785   6.096  0.5259  0.1318  0.3849
45360SOL    HW242939   6.516   6.795   5.953 -0.2420 -0.7440  0.0573
45361SOL     OW42940   6.845   1.274  12.408 -0.1694  0.0791  0.1314
45361SOL    HW142941   6.911   1.324  12.455 -1.1445 -0.3235  2.0448
45361SOL    HW242942   6.864   1.183  12.430 -0.8794 -0.0883  0.0824
45362SOL     OW42943   4.885   4.071   3.788  0.0709 -0.2453 -0.1592
45362SOL    HW142944   4.879   3.986   3.832  1.0359 -0.0536  0.3771
45362SOL    HW242945   4.979   4.092   3.789 -0.0904  0.5569 -0.7990
45363SOL     OW42946   3.859   6.521   3.682 -0.6664  0.0366  0.0497
45363SOL    HW142947   3.909   6.541   3.603 -0.4125 -0.7779 -0.0032
45363SOL    HW242948   3.838   6.428   3.675  0.1295 -0.2755  1.3558
45364SOL     OW42949   0.620   6.916   4.362  0.0230  0.1672 -0.1849
45364SOL    HW142950   0.714   6.931   4.362  0.4700 -2.2803  0.1624
45364SOL    HW242951   0.600   6.882   4.449 -1.3556  1.3367  0.0122
45365SOL     OW42952   3.235   4.413   6.189  0.2742 -0.4961  0.6138
45365SOL    HW142953   3.208   4.415   6.280 -2.1425 -1.5603 -0.0002
45365SOL    HW242954   3.330   4.427   6.191 -0.0458  2.0877  3.0538
45366SOL     OW42955   7.859   2.640   1.700  1.0131  0.1493  0.4286
45366SOL    HW142956   7.765   2.658   1.692  0.7178 -0.5385  1.8291
45366SOL    HW242957   7.868   2.601   1.787  2.1657 -2.4676 -0.7528
45367SOL     OW42958  11.265   9.777   4.054 -0.3490 -0.0052 -0.0959
45367SOL    HW142959  11.318   9.717   4.001  0.1274  0.2448  0.0862
45367SOL    HW242960  11.205   9.817   3.991  1.5288  1.7689 -0.8962
45368SOL     OW42961  10.993   8.942   4.436  0.2280 -0.0638 -0.3813
45368SOL    HW142962  11.078   8.968   4.401  0.8285 -0.5832  0.6446
45368SOL    HW242963  10.963   8.871   4.380  0.7209 -0.2371 -0.4209
45369SOL     OW42964   7.513   4.412   2.164 -0.4568  0.2906  0.4834
45369SOL    HW142965   7.466   4.333   2.189 -0.1843  0.0390  0.1961
45369SOL    HW242966   7.505   4.416   2.069  0.7353 -0.1615  0.3440
45370SOL     OW42967   1.691   3.776   7.396 -0.5836  0.2117 -0.2605
45370SOL    HW142968   1.735   3.793   7.479 -1.6286  1.4739  0.0718
45370SOL    HW242969   1.649   3.859   7.374  0.0806  0.0564 -2.3209
45371SOL     OW42970   1.726  11.260  11.809 -0.0700  0.3061 -0.4840
45371SOL    HW142971   1.748  11.173  11.843  0.8119  0.0822 -1.5897
45371SOL    HW242972   1.641  11.248  11.765 -1.0663  0.5302  1.2877
45372SOL     OW42973   0.234   7.519   0.565  0.0788  0.2356  0.0018
45372SOL    HW142974   0.300   7.471   0.515 -1.6530  0.1331 -2.3393
45372SOL    HW242975   0.236   7.608   0.530  0.4066  0.8176  1.4227
45373SOL     OW42976   2.002  10.698  10.722 -0.2993 -0.2012 -0.0770
45373SOL    HW142977   1.989  10.612  10.682 -0.2463  0.0288 -0.5981
45373SOL    HW242978   1.940  10.755  10.676  0.8145  0.3911 -0.8993
45374SOL     OW42979   9.630  10.416   9.318 -0.2693 -0.1896 -0.0869
45374SOL    HW142980   9.693  10.484   9.293  1.1576 -0.9312  1.2978
45374SOL    HW242981   9.564  10.462   9.370 -0.0429  0.3613 -0.2781
45375SOL     OW42982   5.750   8.736   7.843  0.6497  0.6120  0.3217
45375SOL    HW142983   5.681   8.776   7.896 -0.7502 -2.9572  1.4558
45375SOL    HW242984   5.825   8.731   7.902 -0.3830 -1.8031  1.5497
45376SOL     OW42985   4.410   8.186   8.637  0.2973  0.4330 -0.7687
45376SOL    HW142986   4.384   8.157   8.724  1.1804  0.6074 -0.4331
45376SOL    HW242987   4.462   8.114   8.602 -0.7148  0.0317 -1.4794
45377SOL     OW42988  10.075   3.388  11.876 -0.0689  0.4770 -0.2858
45377SOL    HW142989  10.129   3.429  11.943 -1.3229  1.7189  0.0152
45377SOL    HW242990   9.985   3.403  11.905 -0.6080 -1.0429 -1.0529
45378SOL     OW42991  11.784  11.876  11.931 -0.2506  0.3171  0.5100
45378SOL    HW142992  11.843  11.931  11.879 -1.4937 -0.0582 -1.3841
45378SOL    HW242993  11.841  11.833  11.994  1.4644  0.2597 -0.9892
45379SOL     OW42994   1.034   1.626  10.934 -0.0277  0.0117 -0.6529
45379SOL    HW142995   1.072   1.685  10.868 -0.4284 -0.2307 -1.1036
45379SOL    HW242996   1.008   1.549  10.884 -0.7218 -0.0010 -0.2753
45380SOL     OW42997   1.569   2.312  11.896 -0.4495 -0.5422  0.1290
45380SOL    HW142998   1.627   2.256  11.844 -0.0895 -1.5475  1.5536
45380SOL    HW242999   1.625   2.348  11.965 -1.0400  0.2488  0.2138
45381SOL     OW43000   4.047  11.748   4.058  0.2439 -0.3077  0.2792
45381SOL    HW143001   3.970  11.782   4.013 -0.3549 -1.7574  0.1426
45381SOL    HW243002   4.114  11.816   4.046 -0.4202  0.1169 -1.2966
45382SOL     OW43003  11.253   2.180   8.795 -0.3302  0.8552  0.3235
45382SOL    HW143004  11.289   2.203   8.709  0.3526  1.3475  0.7272
45382SOL    HW243005  11.158   2.184   8.783 -0.2455  0.4521 -0.5259
45383SOL     OW43006   1.505   0.859   2.125  0.3209  0.1311  0.0684
45383SOL    HW143007   1.426   0.808   2.141 -0.8235  1.3668 -1.4046
45383SOL    HW243008   1.479   0.925   2.060  1.9567  2.0188  1.2070
45384SOL     OW43009   3.619  11.667   5.836 -0.3539  0.1989 -0.0388
45384SOL    HW143010   3.666  11.745   5.864  1.2798 -0.2499 -1.3799
45384SOL    HW243011   3.563  11.697   5.764 -0.5517  0.3330  0.1701
45385SOL     OW43012   3.309   6.145   1.892 -0.2824  0.4495 -0.8264
45385SOL    HW143013   3.252   6.218   1.869  0.8311  1.1252 -1.4941
45385SOL    HW243014   3.397   6.175   1.872  0.3121 -0.6495  0.0096
45386SOL     OW43015   4.226   5.941   4.176 -0.1818 -0.1232  0.3018
45386SOL    HW143016   4.246   5.849   4.189  1.7801  0.4359  1.6331
45386SOL    HW243017   4.226   5.979   4.264  2.0246  1.6836 -0.3815
45387SOL     OW43018  11.839   4.457   1.020 -0.2258  0.0907  0.5100
45387SOL    HW143019  11.798   4.443   0.935  1.1116 -1.4184  0.0743
45387SOL    HW243020  11.789   4.402   1.080  0.2061 -0.5780  0.2647
45388SOL     OW43021  11.568   2.207  11.725 -0.0187  0.0803  0.0673
45388SOL    HW143022  11.587   2.113  11.722 -1.0672 -0.1341 -0.0582
45388SOL    HW243023  11.510   2.218  11.801  0.9504  0.8017  0.7422
45389SOL     OW43024  12.554   5.682   3.572  0.0983  0.0368  0.8617
45389SOL    HW143025  12.580   5.754   3.629  1.8981 -0.8789  1.2897
45389SOL    HW243026  12.546   5.721   3.485  1.5525  0.6927  0.9986
45390SOL     OW43027   5.236  12.047  10.141  0.4626  0.1552 -0.1000
45390SOL    HW143028   5.288  11.968  10.152 -0.6293 -0.5483  0.2073
45390SOL    HW243029   5.197  12.039  10.054 -0.4727 -0.1741  0.3318
45391SOL     OW43030   2.703   6.425   5.240 -0.4536 -0.1365 -0.3276
45391SOL    HW143031   2.712   6.488   5.169  0.2672 -0.5911 -0.6551
45391SOL    HW243032   2.721   6.475   5.319  0.4589 -0.0011 -0.6143
45392SOL     OW43033   5.484   4.528   3.929 -0.4729 -0.0045  0.5839
45392SOL    HW143034   5.463   4.616   3.897  1.4685 -0.1959 -1.4229
45392SOL    HW243035   5.468   4.534   4.024  1.1218  3.0468  0.8081
45393SOL     OW43036   8.208   3.100  10.591 -0.5866  0.6453  0.2062
45393SOL    HW143037   8.279   3.156  10.620  1.8505 -1.0113 -2.1371
45393SOL    HW243038   8.230   3.014  10.626 -1.8726  0.2352  0.0618
45394SOL     OW43039  10.672   0.916   2.935 -0.3760  0.0682 -0.5109
45394SOL    HW143040  10.641   1.006   2.924 -1.5612 -0.5117 -2.4747
45394SOL    HW243041  10.767   0.924   2.935 -0.4376  1.2512 -1.8835
45395SOL     OW43042   5.456  10.736   5.798  0.3406 -0.0006 -0.3862
45395SOL    HW143043   5.439  10.717   5.891  0.5282  0.8739 -0.1634
45395SOL    HW243044   5.480  10.651   5.761  2.0223 -0.0868  0.7763
45396SOL     OW43045   0.907   6.421   3.369  0.0938 -0.6013 -0.9068
45396SOL    HW143046   0.998   6.448   3.360 -0.1570  0.8277  0.5817
45396SOL    HW243047   0.883   6.389   3.281  2.3407 -2.1560 -1.0433
45397SOL     OW43048   1.974   8.659   9.170  0.0406 -0.1990  0.3421
45397SOL    HW143049   1.981   8.566   9.146 -0.5694 -0.1649  0.0202
45397SOL    HW243050   1.896   8.690   9.124 -0.9848 -0.0432  2.1012
45398SOL     OW43051   3.008   8.737   9.156  0.0867  0.2002 -0.3155
45398SOL    HW143052   3.088   8.702   9.118  0.1188 -0.0692 -0.0015
45398SOL    HW243053   3.022   8.734   9.251 -0.4377 -0.2110 -0.2409
45399SOL     OW43054   5.712  11.040  10.705  0.0226 -0.2031  0.3834
45399SOL    HW143055   5.622  11.070  10.701 -0.3501 -0.8295  2.8798
45399SOL    HW243056   5.710  10.954  10.663 -0.3444  0.1468 -0.3344
45400SOL     OW43057  10.298   6.351   9.914 -0.3044  0.6606 -0.5198
45400SOL    HW143058  10.208   6.335   9.886 -0.5550 -0.4460  0.7744
45400SOL    HW243059  10.299   6.442   9.943 -1.2317  0.4647  0.1610
45401SOL     OW43060   1.963   6.359   8.010 -0.2179 -0.0744  0.1618
45401SOL    HW143061   2.021   6.299   7.964 -0.1800  0.2255 -0.1903
45401SOL    HW243062   1.906   6.303   8.062  0.0441 -0.3953  0.1079
45402SOL     OW43063   9.723   0.853   8.308 -0.3093 -0.2663  0.1799
45402SOL    HW143064   9.742   0.857   8.402 -0.1439  1.4060  0.0988
45402SOL    HW243065   9.804   0.821   8.269 -0.0343  0.0283  0.5021
45403SOL     OW43066   4.375   2.768   1.708  0.0367  0.3004  0.3993
45403SOL    HW143067   4.332   2.693   1.748 -1.6011  1.7202  1.4639
45403SOL    HW243068   4.458   2.776   1.754 -0.1268 -0.3725  0.8262
45404SOL     OW43069   2.860   6.296   9.562 -0.7177 -0.6852 -0.2479
45404SOL    HW143070   2.886   6.249   9.641 -2.0825 -2.0829 -0.5875
45404SOL    HW243071   2.918   6.262   9.494 -0.7761 -0.8420 -0.2181
45405SOL     OW43072  10.378   3.395   4.310  0.3198  0.1938 -0.2010
45405SOL    HW143073  10.398   3.366   4.221 -0.6393 -0.3898 -0.2325
45405SOL    HW243074  10.290   3.432   4.304  0.3442  0.3751  0.4597
45406SOL     OW43075   4.651   2.100   5.820  0.4917  0.8836 -0.2785
45406SOL    HW143076   4.575   2.085   5.764 -1.6961  1.1179  2.4018
45406SOL    HW243077   4.636   2.187   5.858  0.1146 -0.4275  2.9536
45407SOL     OW43078   9.697   2.657   9.022 -0.2277 -0.0645 -0.4229
45407SOL    HW143079   9.739   2.577   9.053  0.0862  0.1932 -0.1701
45407SOL    HW243080   9.755   2.688   8.952 -0.5373 -0.2481 -0.7634
45408SOL     OW43081   4.231   5.644   1.793 -0.3389 -0.3670  0.2706
45408SOL    HW143082   4.269   5.572   1.844 -0.3711  0.0834  0.9487
45408SOL    HW243083   4.221   5.609   1.705  0.5986 -0.8572  0.3503
45409SOL     OW43084  11.350   2.792   9.335  0.1347  0.6173 -0.1944
45409SOL    HW143085  11.417   2.734   9.372 -0.1445  0.9654  0.8841
45409SOL    HW243086  11.369   2.794   9.241 -0.4873 -2.0580 -0.4572
45410SOL     OW43087   1.134   5.120  12.176  0.1335  0.6655 -0.0447
45410SOL    HW143088   1.173   5.207  12.174 -1.8735  1.6965  1.4941
45410SOL    HW243089   1.100   5.111  12.265 -0.7647 -1.2109 -0.5149
45411SOL     OW43090   0.731   1.072   2.913  0.5628  0.1044  0.1886
45411SOL    HW143091   0.774   1.039   2.991  0.8788 -1.0094 -0.4367
45411SOL    HW243092   0.642   1.092   2.941  0.0991 -2.0597  0.4414
45412SOL     OW43093   6.201   1.543   0.788  0.1535 -0.1132  0.5442
45412SOL    HW143094   6.138   1.477   0.817 -0.2185  0.3759  0.8530
45412SOL    HW243095   6.158   1.627   0.804  0.4963  0.2025 -0.1345
45413SOL     OW43096   5.866  11.152   1.563  0.0997  0.5790  0.0043
45413SOL    HW143097   5.923  11.210   1.512 -0.6795  1.2335 -0.1393
45413SOL    HW243098   5.818  11.210   1.621  1.6423 -0.2142  2.2305
45414SOL     OW43099   7.098   1.106   2.457 -0.0800 -0.3628 -0.2997
45414SOL    HW143100   7.100   1.182   2.515 -0.2866  0.6925 -1.5985
45414SOL    HW243101   7.076   1.032   2.513 -0.6384  0.6622  0.8789
45415SOL     OW43102   6.834  10.692  10.283  0.1886 -0.4053  0.1509
45415SOL    HW143103   6.779  10.770  10.286  0.2885 -0.2851 -0.8745
45415SOL    HW243104   6.802  10.637  10.355 -0.1311  0.4074  0.6407
45416SOL     OW43105   8.811   7.759   3.085 -0.1184 -0.3492 -0.2995
45416SOL    HW143106   8.829   7.822   3.014 -0.5405 -0.2901 -0.3573
45416SOL    HW243107   8.717   7.743   3.079 -0.0746 -0.7090 -0.0501
45417SOL     OW43108   1.080   2.142   5.809  0.2437  0.1012 -0.3950
45417SOL    HW143109   1.071   2.221   5.862 -0.9007 -0.8590  0.8930
45417SOL    HW243110   1.027   2.160   5.731  1.3600  1.2373 -0.9385
45418SOL     OW43111   9.500  12.383   2.209 -0.3180  0.0920 -0.6858
45418SOL    HW143112   9.533  12.439   2.139  4.7644  0.2311  1.4123
45418SOL    HW243113   9.474  12.443   2.279 -0.1855 -0.0979 -0.4694
45419SOL     OW43114  10.340   8.144  11.830 -0.3828  0.3612 -0.3094
45419SOL    HW143115  10.284   8.208  11.873  0.9730  1.5754 -0.2697
45419SOL    HW243116  10.411   8.128  11.893 -0.0702 -0.2599 -0.8040
45420SOL     OW43117   0.072   2.740   2.767  0.2497 -0.1929 -0.4445
45420SOL    HW143118   0.165   2.735   2.746  0.3627 -0.4819  0.1064
45420SOL    HW243119   0.067   2.716   2.859 -0.4385 -0.7778 -0.6247
45421SOL     OW43120   4.003  11.801   9.566 -0.1037 -0.4709  0.2789
45421SOL    HW143121   3.946  11.810   9.490 -0.4139  0.0193  0.5667
45421SOL    HW243122   3.960  11.852   9.635  0.9485  0.3838  0.3431
45422SOL     OW43123   8.971   0.895  10.828 -0.4230  0.0016 -0.7892
45422SOL    HW143124   9.006   0.907  10.916 -0.9189  0.6606 -0.6688
45422SOL    HW243125   8.995   0.976  10.782 -2.5206  0.8809 -0.4371
45423SOL     OW43126   3.892   0.555  12.298  0.1904  0.2867  0.2780
45423SOL    HW143127   3.910   0.640  12.259 -0.5374  0.1760 -0.3327
45423SOL    HW243128   3.926   0.492  12.234  0.5462  0.1174  0.6309
45424SOL     OW43129   6.951   1.834   1.227 -0.2292 -0.1886 -0.0401
45424SOL    HW143130   6.963   1.765   1.292 -1.8464  1.5133  2.2386
45424SOL    HW243131   6.856   1.838   1.214 -0.0286  0.4181 -1.5089
45425SOL     OW43132   2.188   8.163   8.150 -0.4185 -0.3003  0.6311
45425SOL    HW143133   2.203   8.227   8.080 -0.3923  1.1920  1.9388
45425SOL    HW243134   2.099   8.132   8.135  0.8915 -3.2873 -2.5248
45426SOL     OW43135   5.182  11.048   6.809  0.5932  0.7395 -0.0744
45426SOL    HW143136   5.240  11.111   6.768 -1.1014  2.4835  0.0535
45426SOL    HW243137   5.115  11.029   6.743 -0.1376  0.7903  0.6298
45427SOL     OW43138   7.040   1.192   1.997  0.3070 -0.0668  0.1370
45427SOL    HW143139   7.007   1.274   1.960 -0.4686 -0.4428 -0.0370
45427SOL    HW243140   6.996   1.124   1.946  0.9152 -0.5921  0.3008
45428SOL     OW43141   7.999  10.151   1.747 -0.1505 -0.9842  0.8086
45428SOL    HW143142   8.086  10.121   1.720  0.0019  0.1956 -0.0866
45428SOL    HW243143   8.014  10.195   1.831  0.4275  0.6246 -0.0934
45429SOL     OW43144   9.628   5.809   3.244 -0.0608  0.4661  0.0662
45429SOL    HW143145   9.691   5.764   3.188 -1.1353 -3.5878  1.7555
45429SOL    HW243146   9.652   5.782   3.333 -1.2505  2.8382  1.2015
45430SOL     OW43147  11.619   3.335   3.475 -0.1621  0.2968  0.0999
45430SOL    HW143148  11.704   3.293   3.490  0.3125  1.3834  0.5214
45430SOL    HW243149  11.639   3.427   3.459 -1.1710  0.3440 -1.0665
45431SOL     OW43150   2.302   1.092   7.989 -0.5485 -0.3909 -0.6882
45431SOL    HW143151   2.364   1.019   7.986 -2.8985 -2.5605 -0.4868
45431SOL    HW243152   2.338   1.151   8.055  1.1861 -1.6325 -0.4440
45432SOL     OW43153   1.452   9.860  10.189  0.5278  0.0393  0.1076
45432SOL    HW143154   1.509   9.924  10.233  2.4921 -0.4029 -1.6294
45432SOL    HW243155   1.407   9.910  10.122  0.9403 -0.1076 -0.2831
45433SOL     OW43156   5.647   6.531  12.262 -0.0519  0.1004 -0.1915
45433SOL    HW143157   5.695   6.578  12.330 -0.6362  1.2479 -0.5599
45433SOL    HW243158   5.614   6.599  12.204 -0.2264 -0.8151 -1.1980
45434SOL     OW43159   2.723  10.958  12.121 -0.0449 -0.2047 -0.0009
45434SOL    HW143160   2.772  11.030  12.081 -0.3604 -0.1125 -0.2250
45434SOL    HW243161   2.734  10.885  12.060 -0.4060 -0.1053 -0.1875
45435SOL     OW43162  12.403   8.028   3.261 -0.0810  0.0574  0.2316
45435SOL    HW143163  12.341   7.978   3.208  1.7194 -1.7813 -0.2913
45435SOL    HW243164  12.472   7.965   3.283  0.3786  1.3211  2.9109
45436SOL     OW43165   4.622   1.339  12.457  0.0616 -0.0835  0.0365
45436SOL    HW143166   4.691   1.332  12.522  0.2667  0.0728 -0.1613
45436SOL    HW243167   4.545   1.367  12.506  0.4375  0.9185  0.0843
45437SOL     OW43168   8.693   7.876   7.114 -0.5970 -0.0833  0.2589
45437SOL    HW143169   8.787   7.864   7.130 -0.0824  1.4985 -1.2916
45437SOL    HW243170   8.674   7.822   7.038 -0.4848  1.1050 -0.6300
45438SOL     OW43171   4.826   6.579   7.325  0.3528  0.1867  0.4200
45438SOL    HW143172   4.849   6.669   7.345 -0.9129  1.0486 -1.6706
45438SOL    HW243173   4.907   6.542   7.287 -0.5584  2.3643 -4.3174
45439SOL     OW43174   2.049   3.580  12.490 -0.5769  0.2421  0.3398
45439SOL    HW143175   2.117   3.517  12.466  0.9444  2.4828 -1.7355
45439SOL    HW243176   2.086   3.627  12.565 -0.4590  0.4901  0.1288
45440SOL     OW43177   1.307   8.792   4.620  0.1902  0.0502  0.1442
45440SOL    HW143178   1.351   8.728   4.677  0.1012 -0.1290  0.0119
45440SOL    HW243179   1.271   8.740   4.549 -0.9962  0.0675  0.7079
45441SOL     OW43180   4.592   6.381   2.262 -0.2206  0.1244 -0.9306
45441SOL    HW143181   4.605   6.438   2.338 -1.2309  1.1984 -1.5460
45441SOL    HW243182   4.507   6.340   2.278 -0.5488  0.5375 -1.5910
45442SOL     OW43183   1.213   4.820   5.009  0.6349 -0.0845  0.5609
45442SOL    HW143184   1.268   4.806   4.932  0.7422  0.0538  0.6102
45442SOL    HW243185   1.198   4.733   5.045  0.5845 -0.1489  0.3830
45443SOL     OW43186   6.008  12.378   9.538  0.0328 -0.5110  0.3205
45443SOL    HW143187   5.947  12.314   9.501 -0.1883  0.2596 -0.6892
45443SOL    HW243188   5.994  12.457   9.486  1.4185 -0.1135  0.5189
45444SOL     OW43189  11.744   7.605   3.537 -0.3284 -0.3853  0.5972
45444SOL    HW143190  11.706   7.519   3.519  0.2994 -0.9452  1.8656
45444SOL    HW243191  11.776   7.600   3.627 -1.5116  1.6326  1.2025
45445SOL     OW43192   0.382   8.754   3.496  0.4581 -0.0304 -0.1503
45445SOL    HW143193   0.475   8.740   3.483  0.1425 -1.7490 -0.8397
45445SOL    HW243194   0.362   8.706   3.577  0.2978  1.0062  0.4451
45446SOL     OW43195   0.703   3.964   0.845  0.4932  0.5474  0.2842
45446SOL    HW143196   0.612   3.986   0.866  0.2918  3.7238 -2.8133
45446SOL    HW243197   0.705   3.963   0.749  3.5819 -0.2146  0.2691
45447SOL     OW43198   5.770   5.195   2.825  0.3920  0.3991 -0.5121
45447SOL    HW143199   5.723   5.271   2.859 -0.3771  0.2531 -1.2050
45447SOL    HW243200   5.722   5.171   2.745  0.9441 -0.4801 -0.5952
45448SOL     OW43201   8.003   5.144   5.078  0.5630  0.1948  0.2211
45448SOL    HW143202   7.997   5.146   5.174  0.3429  0.1749  0.2088
45448SOL    HW243203   8.020   5.235   5.053 -2.3948  0.8035  0.0946
45449SOL     OW43204   8.837   5.488   0.745  0.6029  0.6311  0.1346
45449SOL    HW143205   8.782   5.567   0.742 -0.6967 -0.2461  0.2938
45449SOL    HW243206   8.815   5.447   0.828  1.2226  0.0443  0.0158
45450SOL     OW43207   7.725  11.530   4.157 -0.7756 -0.3999 -0.7755
45450SOL    HW143208   7.687  11.606   4.112  0.8436  1.2636  0.5182
45450SOL    HW243209   7.810  11.517   4.115 -1.7445 -2.7775 -2.2449
45451SOL     OW43210   1.490   0.593   0.454  0.2776  0.7252 -0.0746
45451SOL    HW143211   1.580   0.614   0.477  0.0669  2.3874 -0.6145
45451SOL    HW243212   1.442   0.595   0.537  0.9555 -1.7639  0.4666
45452SOL     OW43213  12.476  11.094  12.547 -0.0892 -0.6590 -0.1814
45452SOL    HW143214  12.420  11.034  12.597 -0.0924  1.1977  2.2455
45452SOL    HW243215  12.559  11.093  12.594  0.1529  0.6221 -0.5624
45453SOL     OW43216   5.248   2.675   7.827 -0.4112 -0.7074 -0.5360
45453SOL    HW143217   5.310   2.695   7.757  0.4286  0.3301  0.4506
45453SOL    HW243218   5.170   2.726   7.806  0.0766  0.1167 -0.3951
45454SOL     OW43219   7.644   8.241   9.468 -0.2732 -0.9406  0.2847
45454SOL    HW143220   7.604   8.228   9.554 -0.7229  0.7683  0.3724
45454SOL    HW243221   7.733   8.210   9.478  0.1796  0.6823  1.8904
45455SOL     OW43222   9.319   6.121   0.473  0.0169 -0.2902  0.2149
45455SOL    HW143223   9.350   6.210   0.459 -0.8923 -0.0874 -0.5572
45455SOL    HW243224   9.358   6.095   0.556  0.4617  0.7403  0.3398
45456SOL     OW43225   6.468   3.003  11.963 -0.0430 -0.5432  0.2373
45456SOL    HW143226   6.469   2.973  12.054  0.5836 -0.2459  0.3355
45456SOL    HW243227   6.375   3.004  11.939 -0.1390 -1.6665  0.5154
45457SOL     OW43228   5.610   1.846  12.496  0.8591  0.3519 -0.0063
45457SOL    HW143229   5.536   1.800  12.458 -0.7945  1.6312  1.5159
45457SOL    HW243230   5.582   1.937  12.500  2.2701  0.7695  1.2074
45458SOL     OW43231   1.197   7.898  10.616  0.1419  0.0566 -0.4009
45458SOL    HW143232   1.210   7.933  10.528  1.3319  0.7543  0.0339
45458SOL    HW243233   1.198   7.975  10.673  0.4234 -0.4736  0.3302
45459SOL     OW43234  11.654   5.509   9.469  0.0199  0.5098 -0.2455
45459SOL    HW143235  11.567   5.550   9.473 -0.0596  0.3457 -0.2707
45459SOL    HW243236  11.683   5.523   9.379 -0.4628 -0.4092 -0.5567
45460SOL     OW43237   5.547  12.435  12.296  0.1933  0.1798 -0.0521
45460SOL    HW143238   5.610  12.368  12.323  0.4858  0.0003 -1.1280
45460SOL    HW243239   5.533  12.487  12.375  1.6315  0.1690  0.2517
45461SOL     OW43240   0.169   5.035   7.373 -0.4274  0.6181 -0.3691
45461SOL    HW143241   0.128   5.121   7.363 -2.2598  0.1648  2.2041
45461SOL    HW243242   0.255   5.045   7.333 -0.4691  3.7390  0.0402
45462SOL     OW43243  10.402  11.945   2.677  0.1585 -0.4910  0.2095
45462SOL    HW143244  10.405  11.862   2.725 -2.1375 -0.8346 -0.1153
45462SOL    HW243245  10.388  12.011   2.745 -1.3277 -0.7872  0.2394
45463SOL     OW43246   4.445   5.755  11.590 -0.5400 -0.2861 -0.4265
45463SOL    HW143247   4.515   5.746  11.525  0.0348  0.7510  0.0171
45463SOL    HW243248   4.490   5.756  11.674 -1.0873  0.3444 -0.1322
45464SOL     OW43249  11.718  10.928  10.043 -0.3096  0.2036  0.7981
45464SOL    HW143250  11.768  10.933   9.962 -0.3748  1.3812  0.8071
45464SOL    HW243251  11.688  11.018  10.058  0.3763  0.1868  2.5465
45465SOL     OW43252   8.061  12.558   5.855 -0.2519  0.0598  0.3503
45465SOL    HW143253   7.993  12.495   5.880  0.0359 -0.1874  0.5045
45465SOL    HW243254   8.013  12.627   5.810 -0.5053 -0.5129 -0.2683
45466SOL     OW43255   0.865   4.339   4.032 -0.1481 -0.3277 -0.2244
45466SOL    HW143256   0.942   4.301   4.075 -0.2502 -0.4191 -0.1225
45466SOL    HW243257   0.894   4.426   4.005 -0.5477  0.3454  1.4197
45467SOL     OW43258   8.058   4.682   0.318  0.1377 -0.2485 -0.6005
45467SOL    HW143259   8.124   4.681   0.249  1.2507 -1.6678  0.4194
45467SOL    HW243260   8.108   4.687   0.400 -0.9946 -1.2060  0.1931
45468SOL     OW43261   9.001   5.322   4.063  0.0173 -0.0915 -0.3189
45468SOL    HW143262   9.076   5.294   4.010  1.2893  0.0763  1.3318
45468SOL    HW243263   8.997   5.417   4.051  2.1585  0.4083  2.0594
45469SOL     OW43264   5.939   7.689   0.481  0.0341 -0.1398  0.4453
45469SOL    HW143265   5.858   7.715   0.524  0.6338  1.3292  0.7324
45469SOL    HW243266   5.986   7.638   0.548 -0.8151 -1.3754  0.1318
45470SOL     OW43267   1.183  10.244   1.526 -0.0298 -0.3260  0.1893
45470SOL    HW143268   1.187  10.339   1.523 -1.6800 -0.2127  0.5239
45470SOL    HW243269   1.248  10.215   1.462 -0.1700  1.0381 -0.5972
45471SOL     OW43270  11.654   9.862   9.925 -0.0643  0.3511  0.0365
45471SOL    HW143271  11.608   9.794   9.974 -2.1724  2.2127  0.8186
45471SOL    HW243272  11.690   9.817   9.848 -1.2769 -1.6376  0.5643
45472SOL     OW43273   8.666   3.768   4.788 -0.6193 -0.0811 -0.1255
45472SOL    HW143274   8.706   3.814   4.861 -0.5092  0.9942 -0.8309
45472SOL    HW243275   8.712   3.801   4.711 -0.2043 -1.7566 -0.6369
45473SOL     OW43276   9.827   8.178   2.444 -0.1957  0.4487 -0.3955
45473SOL    HW143277   9.907   8.229   2.439  0.5164 -0.7171 -1.5129
45473SOL    HW243278   9.757   8.242   2.434  0.6649  1.2345 -1.7040
45474SOL     OW43279   1.873   1.638   6.420 -0.3235 -0.1599 -0.2953
45474SOL    HW143280   1.878   1.733   6.408 -1.0890 -0.0138  0.4883
45474SOL    HW243281   1.958   1.606   6.389  0.8538  1.0056  1.5437
45475SOL     OW43282   7.004   1.227   5.901 -0.5407 -0.0173 -0.4939
45475SOL    HW143283   6.908   1.230   5.898 -0.5129  0.6286 -0.7840
45475SOL    HW243284   7.029   1.202   5.812 -0.4045  0.8867 -0.7181
45476SOL     OW43285   8.510   4.602  10.266  0.5668  0.6156  0.0030
45476SOL    HW143286   8.574   4.649  10.319  2.1500  0.1542 -1.4190
45476SOL    HW243287   8.461   4.549  10.329  0.2794  2.3982  1.3493
45477SOL     OW43288   4.280   5.808   8.072  0.1545 -1.2432  0.6244
45477SOL    HW143289   4.353   5.778   8.019 -0.3343 -0.0570 -0.7814
45477SOL    HW243290   4.209   5.746   8.052  0.6397 -2.1949  1.7346
45478SOL     OW43291  11.481   0.684   1.263 -0.1941 -0.1758 -0.2514
45478SOL    HW143292  11.400   0.713   1.221 -0.6644 -2.1335 -0.7978
45478SOL    HW243293  11.460   0.681   1.357 -0.7729 -0.7165 -0.3950
45479SOL     OW43294   6.485   2.625   1.293 -0.6414 -0.0225  0.0664
45479SOL    HW143295   6.515   2.584   1.212  1.4221  1.4451  0.0084
45479SOL    HW243296   6.565   2.639   1.344 -1.5816  1.4236  1.2359
45480SOL     OW43297  12.018   2.217   1.056  0.5704  0.0725  0.2279
45480SOL    HW143298  12.074   2.169   1.117 -1.6901 -1.5145  1.2079
45480SOL    HW243299  12.058   2.204   0.971  2.8971  0.9285  1.1125
45481SOL     OW43300   5.233   7.322   0.142  0.0226  0.5952 -0.0087
45481SOL    HW143301   5.273   7.399   0.101  1.0713  0.0382 -0.0494
45481SOL    HW243302   5.160   7.358   0.192  0.6193  1.6572  0.1425
45482SOL     OW43303   4.378   9.045  12.078 -0.0478 -0.0508 -0.1858
45482SOL    HW143304   4.307   9.110  12.083 -1.0103 -1.1233  0.6716
45482SOL    HW243305   4.387   9.026  11.985  0.7418  1.7917 -0.5470
45483SOL     OW43306   1.376   7.095  12.278 -0.1036 -0.0063  0.0476
45483SOL    HW143307   1.289   7.062  12.254  0.3343 -0.3249 -1.1840
45483SOL    HW243308   1.428   7.087  12.198  1.7360 -2.0434  1.2957
45484SOL     OW43309   4.708   4.162   4.856 -0.7333  0.4853 -0.0256
45484SOL    HW143310   4.615   4.144   4.872 -1.2462  0.8761 -2.2088
45484SOL    HW243311   4.734   4.098   4.791  0.0063  1.5496 -0.8074
45485SOL     OW43312   6.884   9.485   2.438  0.0295 -0.5599 -0.2034
45485SOL    HW143313   6.876   9.391   2.421  0.8380 -0.3795 -1.7288
45485SOL    HW243314   6.880   9.525   2.352 -2.7859  1.0470  0.5551
45486SOL     OW43315  12.542   4.915   9.254 -0.0171 -0.2375  0.0089
45486SOL    HW143316  12.514   4.977   9.186  0.4158  0.1117  0.1430
45486SOL    HW243317  12.460   4.877   9.287 -0.2197 -0.5474 -0.8282
45487SOL     OW43318   8.574  10.243   2.653 -0.2887  0.3320 -0.5922
45487SOL    HW143319   8.664  10.265   2.630  0.1073 -2.1343 -1.8188
45487SOL    HW243320   8.581  10.202   2.739 -0.1542 -0.2299 -0.8648
45488SOL     OW43321   1.978   7.628  11.231 -0.1349 -0.1675 -0.5095
45488SOL    HW143322   1.985   7.692  11.160  0.1476  0.9480  0.4951
45488SOL    HW243323   1.986   7.680  11.311 -1.5741 -1.2451  0.3731
45489SOL     OW43324   0.802   0.432   2.824 -0.1192 -0.5515  0.2615
45489SOL    HW143325   0.718   0.398   2.794  0.5393  0.2067 -2.7802
45489SOL    HW243326   0.866   0.371   2.790  0.8769  1.8996 -2.7276
45490SOL     OW43327   6.141  11.474   4.658  0.2785 -0.0527 -0.1099
45490SOL    HW143328   6.063  11.449   4.607  0.3323 -1.2718  0.3713
45490SOL    HW243329   6.143  11.570   4.653  1.0099 -0.1201 -3.4570
45491SOL     OW43330   7.737   4.935   4.048  0.3605 -0.5034  0.2604
45491SOL    HW143331   7.736   4.892   4.134 -1.7488  1.1281  1.1505
45491SOL    HW243332   7.742   5.028   4.069  1.7421 -0.1455 -1.4951
45492SOL     OW43333   9.113   9.192   4.265  0.3454  0.8453  0.0095
45492SOL    HW143334   9.097   9.115   4.211 -1.1815  0.8453  0.4296
45492SOL    HW243335   9.036   9.247   4.253  0.7049  1.5830  0.9418
45493SOL     OW43336   7.463   4.627   7.183  0.2129 -0.3483  0.4998
45493SOL    HW143337   7.468   4.665   7.271 -0.5710  0.6679  0.1215
45493SOL    HW243338   7.404   4.685   7.135  0.1837 -1.2128 -0.5417
45494SOL     OW43339   6.060   6.996  11.157  0.5028 -0.2510  0.2256
45494SOL    HW143340   6.120   6.947  11.213 -1.1370 -0.6297  1.7101
45494SOL    HW243341   6.105   7.079  11.140  1.7180 -0.7871  0.7398
45495SOL     OW43342   8.387   9.282   7.710 -0.0745 -0.7353  0.3704
45495SOL    HW143343   8.359   9.373   7.698  2.1140 -0.3379 -3.4170
45495SOL    HW243344   8.463   9.287   7.769  0.0212 -0.0987  0.1940
45496SOL     OW43345   5.233   9.600   1.182  0.3388 -0.0012 -0.1965
45496SOL    HW143346   5.158   9.605   1.241  0.1057  1.3411 -0.5654
45496SOL    HW243347   5.306   9.573   1.237 -0.0388  0.4874  0.5490
45497SOL     OW43348   0.714   0.760  12.321 -0.1838 -0.5399 -0.2880
45497SOL    HW143349   0.701   0.755  12.226  0.7898 -0.6233 -0.4287
45497SOL    HW243350   0.626   0.776  12.356 -0.5318 -0.3170 -1.2146
45498SOL     OW43351   8.187  10.973   2.938 -0.3544 -0.0510  0.7304
45498SOL    HW143352   8.165  11.066   2.944  1.2082  0.3991 -0.1330
45498SOL    HW243353   8.108  10.932   2.900 -1.1754  0.8409  1.4333
45499SOL     OW43354   1.389   7.912   3.683 -0.0235  0.0573 -0.1590
45499SOL    HW143355   1.470   7.874   3.649 -1.4382 -1.4819 -2.0494
45499SOL    HW243356   1.320   7.851   3.657 -1.9804  1.9678  0.1647
45500SOL     OW43357  11.751   5.718   1.072  0.2052 -0.3639  0.0393
45500SOL    HW143358  11.689   5.663   1.120 -0.2236 -0.3829 -0.5274
45500SOL    HW243359  11.697   5.764   1.008  0.5903  0.5425  0.3440
45501SOL     OW43360  12.448   3.728   1.167 -0.0018  0.4755  0.0763
45501SOL    HW143361  12.475   3.791   1.099  0.5874 -0.4856 -0.6084
45501SOL    HW243362  12.514   3.659   1.163 -1.3172 -0.8198 -0.0604
45502SOL     OW43363   3.810   9.199   9.282  0.0024 -0.1059  0.5850
45502SOL    HW143364   3.833   9.200   9.189  0.1413  1.2413  0.6095
45502SOL    HW243365   3.888   9.234   9.326  0.0247 -0.9502  1.2312
45503SOL     OW43366   6.990   2.621   1.507  0.3819  0.0759  0.4907
45503SOL    HW143367   7.021   2.541   1.464 -0.2763 -0.1141  0.3635
45503SOL    HW243368   7.042   2.626   1.588 -0.4003 -1.1363  1.1019
45504SOL     OW43369   5.017   3.362   7.558  0.2119  0.0255  0.0951
45504SOL    HW143370   5.107   3.345   7.529  0.6919  1.4437  0.6812
45504SOL    HW243371   4.967   3.367   7.477  0.8868  0.4295 -0.3106
45505SOL     OW43372   1.930   9.004   2.062  0.3465 -0.6076  0.0246
45505SOL    HW143373   1.847   8.957   2.056  0.4190 -0.7834  0.3766
45505SOL    HW243374   1.984   8.951   2.121 -0.0976  0.6633  1.6616
45506SOL     OW43375  10.296   5.035   7.082  0.0820  0.2106  0.3343
45506SOL    HW143376  10.356   4.996   7.019 -1.3709  0.5558 -1.3298
45506SOL    HW243377  10.293   4.972   7.154  1.3248 -0.4849 -0.1924
45507SOL     OW43378  11.858   4.246  11.015  0.3503  0.1921 -0.1865
45507SOL    HW143379  11.821   4.158  11.005  0.7255  0.0568 -0.4043
45507SOL    HW243380  11.876   4.253  11.108 -0.9142  0.5456  0.0583
45508SOL     OW43381  12.064   9.333   6.993 -0.0610  0.0262 -0.6237
45508SOL    HW143382  12.037   9.423   7.012  0.9918  0.2334 -0.0626
45508SOL    HW243383  12.148   9.342   6.948  0.6917 -0.7013  0.5713
45509SOL     OW43384   6.711   0.474  11.017  0.6721  0.0227 -0.3731
45509SOL    HW143385   6.759   0.529  10.955  1.1929 -0.4953 -0.4326
45509SOL    HW243386   6.779   0.427  11.065  0.2248 -0.7456 -0.4814
45510SOL     OW43387   1.026   4.005   0.431  0.4853 -0.2856  0.4919
45510SOL    HW143388   0.950   3.960   0.395  1.0848 -1.5892  0.8095
45510SOL    HW243389   1.094   3.995   0.364 -0.0359  2.3474 -0.5840
45511SOL     OW43390  10.053   3.024   1.275 -0.2613  0.3661 -0.8398
45511SOL    HW143391  10.071   3.018   1.368 -1.2105  3.0205 -0.4150
45511SOL    HW243392   9.967   2.982   1.264 -1.1120  1.8492 -0.1177
45512SOL     OW43393   9.838   0.741  10.351  0.3081  0.5484 -0.4506
45512SOL    HW143394   9.779   0.764  10.423 -1.7467 -2.2382 -1.0896
45512SOL    HW243395   9.925   0.743  10.391 -0.7286 -0.6562  2.1335
45513SOL     OW43396   3.353   4.032   4.473 -0.0079  0.4510  0.1496
45513SOL    HW143397   3.327   3.998   4.559  0.5269  2.8931  1.3669
45513SOL    HW243398   3.380   3.954   4.424 -0.6536 -1.0693  2.0648
45514SOL     OW43399   2.300   6.770   5.125 -0.1055 -0.5424  0.0322
45514SOL    HW143400   2.304   6.675   5.124 -0.3337 -0.5574  0.3265
45514SOL    HW243401   2.207   6.790   5.110 -0.0371 -0.3644 -0.1556
45515SOL     OW43402   2.658  12.037  10.836 -0.1579 -0.5415  0.0373
45515SOL    HW143403   2.730  12.099  10.828 -0.0833 -0.3998  1.5028
45515SOL    HW243404   2.599  12.059  10.764 -0.5411  1.7867  0.9674
45516SOL     OW43405   2.586   4.163   6.468 -0.0433 -0.4999 -0.4858
45516SOL    HW143406   2.640   4.087   6.445 -0.9958 -0.7421 -2.0133
45516SOL    HW243407   2.649   4.229   6.496  0.7550 -2.4489  3.0642
45517SOL     OW43408   9.249   2.370   0.488 -0.3905  0.1748  0.2501
45517SOL    HW143409   9.274   2.439   0.427 -3.4102  2.3696  1.2029
45517SOL    HW243410   9.267   2.408   0.575 -0.3137 -1.0397  0.7796
45518SOL     OW43411   0.998   9.764   4.232  0.3956 -0.5078 -0.3025
45518SOL    HW143412   1.089   9.750   4.259  0.6352  1.4381  0.0632
45518SOL    HW243413   0.949   9.772   4.313  0.1776 -0.0402 -0.4741
45519SOL     OW43414   3.900  11.688   1.771 -0.3493  0.5400  0.1022
45519SOL    HW143415   3.864  11.684   1.860 -1.0049  0.0639 -0.1828
45519SOL    HW243416   3.824  11.685   1.713  0.0774  0.7699 -0.4819
45520SOL     OW43417  11.957   8.327   1.964 -0.0688 -0.4148 -0.2474
45520SOL    HW143418  11.910   8.291   2.040 -1.3603  1.1698 -0.2483
45520SOL    HW243419  11.890   8.341   1.898  0.9060 -0.9030 -1.3839
45521SOL     OW43420   0.636   4.845   9.557 -0.6477  0.4571 -0.3154
45521SOL    HW143421   0.610   4.898   9.632 -2.9235 -0.2475 -0.5367
45521SOL    HW243422   0.657   4.759   9.594 -0.5847  0.4495 -0.3675
45522SOL     OW43423  10.995   3.976   9.042  0.1513 -0.4600 -0.5657
45522SOL    HW143424  11.072   4.032   9.050  1.1640 -1.9951  1.3094
45522SOL    HW243425  11.011   3.904   9.104 -2.3505 -1.3492 -0.8412
45523SOL     OW43426   4.285   9.619  12.532  0.5503 -0.0287 -0.5542
45523SOL    HW143427   4.216   9.643  12.593 -0.0078 -1.7839 -0.4505
45523SOL    HW243428   4.336   9.699  12.521 -0.1545  0.6894  1.1173
45524SOL     OW43429   8.785  11.375   0.074 -0.7058  0.0465  0.2297
45524SOL    HW143430   8.695  11.407   0.069 -0.4353  0.6874 -1.0292
45524SOL    HW243431   8.816  11.376  -0.017  0.1884 -1.3000  0.4845
45525SOL     OW43432   4.600   8.384   9.299  0.0788  0.3800 -0.8301
45525SOL    HW143433   4.639   8.301   9.327 -0.9576 -0.3624 -1.5227
45525SOL    HW243434   4.618   8.444   9.371  1.4844 -0.2372 -0.6325
45526SOL     OW43435   2.019   0.459   9.435  0.3197 -0.2034 -0.2935
45526SOL    HW143436   1.969   0.501   9.505 -0.9552  0.3142 -1.4676
45526SOL    HW243437   1.985   0.498   9.355  2.2353 -0.2520 -1.1978
45527SOL     OW43438   4.011   3.744   2.624 -0.1772  0.2438  0.0090
45527SOL    HW143439   4.090   3.710   2.582 -0.6136 -1.1201  0.2170
45527SOL    HW243440   4.028   3.734   2.718 -0.2109  0.8767  0.0857
45528SOL     OW43441   5.528   1.333   2.878  0.1829 -0.3415 -0.3477
45528SOL    HW143442   5.464   1.350   2.809  0.1859  1.2425 -0.0033
45528SOL    HW243443   5.610   1.370   2.845  0.7567 -1.6644 -0.4624
45529SOL     OW43444   1.017   7.568   4.675 -0.1069  0.1392 -0.5404
45529SOL    HW143445   1.091   7.617   4.638  0.5723 -0.0785  0.4910
45529SOL    HW243446   1.002   7.609   4.760  1.0340 -1.9497  0.7290
45530SOL     OW43447   8.381   6.739   2.493 -0.4875 -0.2262  0.0415
45530SOL    HW143448   8.440   6.665   2.503  0.0759  0.5037  2.8186
45530SOL    HW243449   8.312   6.724   2.558 -1.4207  0.7238 -0.6879
45531SOL     OW43450   2.691   7.019  11.682 -0.0792  0.6656 -0.1997
45531SOL    HW143451   2.611   7.004  11.631  0.3872  0.2491 -0.8230
45531SOL    HW243452   2.726   7.100  11.647  0.5514  0.0766 -0.9636
45532SOL     OW43453   5.271  10.436  12.265 -0.3414 -0.2166  0.1676
45532SOL    HW143454   5.365  10.442  12.277 -0.4988 -0.1387  1.6559
45532SOL    HW243455   5.244  10.366  12.325 -1.3472  0.5467  0.6416
45533SOL     OW43456  11.926   4.931   8.875  0.5355 -0.4329  0.2310
45533SOL    HW143457  11.969   4.943   8.790 -0.8500  2.1168 -0.2018
45533SOL    HW243458  11.856   4.867   8.858 -0.1317  0.5226 -0.7641
45534SOL     OW43459   8.202   7.630   3.695  0.6208 -0.1352 -0.1862
45534SOL    HW143460   8.122   7.680   3.710 -0.8855 -1.8933 -1.8074
45534SOL    HW243461   8.217   7.583   3.776 -1.0848 -1.1740 -0.4215
45535SOL     OW43462   7.571   2.802   8.161  0.0253 -0.0766 -0.2108
45535SOL    HW143463   7.476   2.788   8.156 -0.0984  0.3584  0.6664
45535SOL    HW243464   7.585   2.836   8.250  0.9437  0.3090 -0.4964
45536SOL     OW43465   5.724   2.945   7.340 -0.1227 -0.3342  0.1618
45536SOL    HW143466   5.795   2.959   7.277  1.3055  0.3265  1.8309
45536SOL    HW243467   5.655   2.902   7.289  1.6045 -1.3613 -1.4469
45537SOL     OW43468   0.423   3.173   3.470  0.0659 -0.7658 -0.1042
45537SOL    HW143469   0.350   3.164   3.531  0.0096 -1.5926 -0.2802
45537SOL    HW243470   0.432   3.267   3.457  1.1182 -0.4213  2.4203
45538SOL     OW43471  10.525   3.668   1.351  0.2458  0.4003 -0.5378
45538SOL    HW143472  10.432   3.666   1.330  0.0914  0.0475  0.1777
45538SOL    HW243473  10.551   3.576   1.353  0.6996  0.5034 -1.0806
45539SOL     OW43474  11.978   5.104   9.697 -0.0027  0.1840 -0.0036
45539SOL    HW143475  11.925   5.154   9.636 -0.5672  0.8113  0.9780
45539SOL    HW243476  12.036   5.169   9.738  0.6269 -0.2862 -0.1300
45540SOL     OW43477   2.487   6.821   0.203  0.3585  0.5195  0.3205
45540SOL    HW143478   2.529   6.806   0.119  0.9401 -3.1164  1.0891
45540SOL    HW243479   2.418   6.755   0.207 -0.4753  1.4390  2.1866
45541SOL     OW43480   8.324   6.499   3.481  0.5639 -0.7690 -0.7276
45541SOL    HW143481   8.332   6.433   3.550 -2.0853 -0.3726  0.0532
45541SOL    HW243482   8.290   6.576   3.526  2.2716  0.7505 -1.8736
45542SOL     OW43483  11.405   2.495  10.019  0.3641  0.0086  0.4347
45542SOL    HW143484  11.428   2.539  10.101 -1.2810 -1.4726  1.7657
45542SOL    HW243485  11.382   2.566   9.960 -2.0249  1.0683  2.4467
45543SOL     OW43486  11.424   7.914  12.418 -0.1103  0.1863  0.3708
45543SOL    HW143487  11.357   7.864  12.372  0.9790 -1.6924  0.7094
45543SOL    HW243488  11.495   7.924  12.354  0.0405  0.5139  0.5839
45544SOL     OW43489  12.016   9.401   2.619  0.5821  0.5131 -0.1775
45544SOL    HW143490  12.075   9.346   2.569  0.5812 -1.6685  2.0097
45544SOL    HW243491  12.065   9.424   2.698 -0.6770  0.6144  0.6132
45545SOL     OW43492  10.100   1.629   4.334  0.2724 -0.6716 -0.2286
45545SOL    HW143493  10.059   1.712   4.310 -1.2180 -1.1615  0.4493
45545SOL    HW243494  10.159   1.609   4.262  0.9619  1.1654 -0.2056
45546SOL     OW43495  12.241   3.949  11.880 -0.0952  0.0829 -0.6155
45546SOL    HW143496  12.233   3.854  11.889  0.9610 -0.3249 -3.0964
45546SOL    HW243497  12.295   3.961  11.802  0.4797  2.7378  0.0849
45547SOL     OW43498   3.939   3.577   6.582 -0.4528 -0.1095  0.2083
45547SOL    HW143499   3.953   3.581   6.487 -0.4570  0.1080  0.2159
45547SOL    HW243500   4.026   3.588   6.620 -0.7674  2.8298  0.2877
45548SOL     OW43501   4.259   7.394   9.493 -0.1514 -0.1687 -0.1209
45548SOL    HW143502   4.282   7.479   9.531  1.8910 -1.8311  2.8686
45548SOL    HW243503   4.180   7.367   9.541  0.1085 -0.5811  0.0837
45549SOL     OW43504   3.558   6.704   0.703  0.1668  0.3648 -0.2232
45549SOL    HW143505   3.503   6.757   0.644  0.1219  1.3492  0.6761
45549SOL    HW243506   3.506   6.626   0.721 -0.9564  1.2894  0.6232
45550SOL     OW43507   7.866   7.991   2.858  0.2198  0.1986  0.6575
45550SOL    HW143508   7.814   7.913   2.841  0.3810  0.4352 -1.0469
45550SOL    HW243509   7.801   8.060   2.875  0.0780 -0.4629  3.2909
45551SOL     OW43510   1.507   1.560   1.304  0.0355 -0.0801 -0.0608
45551SOL    HW143511   1.471   1.641   1.341 -0.3940 -0.7175  0.9785
45551SOL    HW243512   1.599   1.579   1.290  0.0326  0.4640  0.5739
45552SOL     OW43513  12.006   2.557  10.397 -1.0452 -0.2877  0.0204
45552SOL    HW143514  12.047   2.510  10.324  0.1759  0.7118  0.0382
45552SOL    HW243515  11.954   2.626  10.355 -0.7105  0.0020  0.0845
45553SOL     OW43516   1.960  12.248   8.217  0.3677 -0.1562 -0.2590
45553SOL    HW143517   1.993  12.333   8.190  0.3471  0.3911  1.3255
45553SOL    HW243518   2.022  12.217   8.283  1.1212 -2.0222 -1.7411
45554SOL     OW43519   2.268   4.862   6.682  0.4273 -0.6940 -0.4609
45554SOL    HW143520   2.183   4.844   6.723 -0.6686  0.6846 -2.0354
45554SOL    HW243521   2.261   4.952   6.650  2.8040 -0.2517  0.0982
45555SOL     OW43522   0.618  10.355   0.367 -0.5667 -0.1560  0.4213
45555SOL    HW143523   0.698  10.303   0.363 -0.1288  0.4682  0.8468
45555SOL    HW243524   0.603  10.383   0.277  1.2009  1.9202  0.6951
45556SOL     OW43525  11.771   9.691   0.581  0.0861 -0.2219  0.0457
45556SOL    HW143526  11.853   9.669   0.627 -1.1043 -3.1080  1.0177
45556SOL    HW243527  11.717   9.733   0.647 -0.1616 -0.6987  0.1481
45557SOL     OW43528   8.133   4.256  10.526 -0.0583  0.0292 -0.0016
45557SOL    HW143529   8.175   4.182  10.481  0.7538 -0.2555  1.1763
45557SOL    HW243530   8.117   4.320  10.457  2.4714  0.2190 -0.5020
45558SOL     OW43531   3.480   9.456   0.397 -0.6032  0.4044 -0.3149
45558SOL    HW143532   3.547   9.459   0.465  0.3572  4.4831 -1.1688
45558SOL    HW243533   3.401   9.428   0.443  0.6703 -0.0051  1.7725
45559SOL     OW43534   5.394   0.556   2.428 -0.4092 -0.6324  0.2304
45559SOL    HW143535   5.366   0.600   2.348  1.1258  0.1703  0.0915
45559SOL    HW243536   5.352   0.470   2.424 -1.0906 -0.2618 -0.9803
45560SOL     OW43537   6.790   9.846   7.199  0.5266  0.3649  0.5153
45560SOL    HW143538   6.713   9.792   7.180  0.3840  0.6871  0.1782
45560SOL    HW243539   6.794   9.849   7.295  2.0579 -2.4595  0.6427
45561SOL     OW43540  10.242   8.429  10.376  0.1488  0.2591 -0.4403
45561SOL    HW143541  10.289   8.450  10.457  1.3480 -0.4627 -0.9248
45561SOL    HW243542  10.193   8.509  10.356 -0.2058  0.4354  1.0129
45562SOL     OW43543   4.580   9.975   4.966  0.5948 -0.2447 -0.3061
45562SOL    HW143544   4.511  10.031   4.931  0.4140 -0.0655  0.3134
45562SOL    HW243545   4.627  10.030   5.028  0.0508 -0.9313  0.7515
45563SOL     OW43546   6.558   4.479   3.217 -0.0528  0.7866 -0.7758
45563SOL    HW143547   6.615   4.409   3.183  1.9609 -0.0002  3.5636
45563SOL    HW243548   6.502   4.435   3.281 -0.3291  2.7710  0.4126
45564SOL     OW43549   7.928   9.347  10.044 -0.1179 -0.3831 -0.5995
45564SOL    HW143550   7.873   9.416  10.081  0.6209  0.1044 -0.3953
45564SOL    HW243551   7.890   9.330   9.958 -1.0777 -0.6362 -0.1415
45565SOL     OW43552   2.546   3.576   2.692 -0.3976 -0.7051 -0.4149
45565SOL    HW143553   2.617   3.567   2.756 -0.1536  1.1995 -0.3519
45565SOL    HW243554   2.578   3.532   2.614  0.1004 -1.4128  0.1768
45566SOL     OW43555   9.249   8.788   7.311  0.4500  0.2336  0.2403
45566SOL    HW143556   9.180   8.840   7.353  0.8356 -0.5270  1.8980
45566SOL    HW243557   9.329   8.812   7.357  0.5281 -2.3604  1.6496
45567SOL     OW43558   0.478   9.846  11.019 -0.3756  0.1440  0.4178
45567SOL    HW143559   0.560   9.824  11.064 -0.6702 -0.9135  0.4717
45567SOL    HW243560   0.503   9.912  10.954  0.6410 -0.5910  0.0332
45568SOL     OW43561   3.046   9.215   3.253  0.0974 -0.7171  0.7611
45568SOL    HW143562   3.011   9.163   3.181  1.7397 -1.3568  0.3810
45568SOL    HW243563   2.970   9.258   3.291 -0.7889 -0.0431 -1.5884
45569SOL     OW43564   2.617   4.227   1.977 -0.3032  0.9374  0.2238
45569SOL    HW143565   2.588   4.301   1.924 -0.8158  0.3873 -0.2789
45569SOL    HW243566   2.541   4.168   1.979  0.7830 -0.6139 -1.2506
45570SOL     OW43567   3.968   2.874   0.746  0.3040  0.1515 -0.2908
45570SOL    HW143568   4.044   2.932   0.742  0.2225  0.4859  1.8786
45570SOL    HW243569   4.001   2.790   0.713  1.3349  0.5661 -0.3590
45571SOL     OW43570   6.625   8.906   9.098  0.0691 -0.0474 -0.5116
45571SOL    HW143571   6.650   8.991   9.136 -0.5978  0.1957 -0.6035
45571SOL    HW243572   6.570   8.865   9.164  0.3493 -0.3892 -0.4898
45572SOL     OW43573   1.479   8.216   6.388  0.2695  0.5734  0.5684
45572SOL    HW143574   1.411   8.217   6.320 -0.2051  3.6388  0.9318
45572SOL    HW243575   1.436   8.175   6.463 -0.3300  0.1788  0.0211
45573SOL     OW43576   9.204  11.613   0.600 -0.0098 -1.2956  0.9524
45573SOL    HW143577   9.112  11.589   0.598  0.3705 -2.8771  0.6879
45573SOL    HW243578   9.243  11.555   0.665  0.6363  0.0817  1.8398
45574SOL     OW43579   3.380   9.172  11.749  0.3668 -0.2546 -0.1193
45574SOL    HW143580   3.284   9.167  11.744  0.1945  0.4826  1.7026
45574SOL    HW243581   3.398   9.266  11.744  0.9462 -0.3456  0.2714
45575SOL     OW43582   0.561   4.216   0.262  0.1011  0.1255  0.3514
45575SOL    HW143583   0.520   4.186   0.344  2.1986 -1.7526  0.8105
45575SOL    HW243584   0.634   4.271   0.290 -0.7851  1.7444 -0.3916
45576SOL     OW43585   2.205  11.859  12.535  0.3004 -0.2253 -0.2705
45576SOL    HW143586   2.153  11.904  12.601  2.0295  3.2389 -1.0125
45576SOL    HW243587   2.225  11.774  12.573 -2.8967 -0.3236  1.4455
45577SOL     OW43588   9.065   1.366   6.353 -0.0127 -0.0787 -0.4191
45577SOL    HW143589   9.035   1.453   6.381 -1.3323 -0.1242 -1.5820
45577SOL    HW243590   8.985   1.319   6.332  0.7387 -1.2971 -0.6339
45578SOL     OW43591   2.673   2.564  11.680 -0.2928 -0.5664 -0.1610
45578SOL    HW143592   2.703   2.477  11.708  0.5539 -0.4158 -0.5865
45578SOL    HW243593   2.727   2.585  11.604 -0.5454  0.3081 -0.1097
45579SOL     OW43594   1.432   0.854   6.601  0.2391 -0.2025 -0.3705
45579SOL    HW143595   1.510   0.884   6.647 -0.2625 -0.5813  0.8016
45579SOL    HW243596   1.364   0.851   6.669 -1.1272  1.2888 -1.5962
45580SOL     OW43597  11.164   9.452   6.733  0.1703 -0.1126 -0.1454
45580SOL    HW143598  11.171   9.360   6.760  1.6142  0.1440  0.4527
45580SOL    HW243599  11.090   9.485   6.784 -0.2291 -0.8866 -0.2004
45581SOL     OW43600   8.359   0.284   4.705 -0.2169 -0.1738  0.6618
45581SOL    HW143601   8.430   0.227   4.677 -0.5777  0.0690 -0.8375
45581SOL    HW243602   8.331   0.329   4.625 -1.5519  0.3025  1.3575
45582SOL     OW43603   7.678  11.818   4.030 -0.1965  0.4590  0.6236
45582SOL    HW143604   7.692  11.837   3.938 -0.9938  2.4614  0.8689
45582SOL    HW243605   7.766  11.814   4.068  0.1071  0.2781 -0.0897
45583SOL     OW43606  10.240   4.654   2.820  0.2185 -0.3925 -0.4193
45583SOL    HW143607  10.296   4.689   2.751  1.7579 -0.5602  0.6976
45583SOL    HW243608  10.230   4.727   2.881  1.8458 -1.2522  0.9448
45584SOL     OW43609   4.238   9.378   8.039 -0.1059  0.3426  0.1883
45584SOL    HW143610   4.185   9.396   7.961 -0.8472  0.2804  0.6709
45584SOL    HW243611   4.184   9.320   8.092  1.0381 -0.8795  0.0451
45585SOL     OW43612   5.635   8.933   1.846 -0.5765 -0.2312  0.5030
45585SOL    HW143613   5.679   9.014   1.818 -0.1378 -0.6181  0.0418
45585SOL    HW243614   5.701   8.887   1.897 -1.4615  0.6001  2.4998
45586SOL     OW43615   3.250   7.801   8.038  0.0996 -0.0027 -0.4266
45586SOL    HW143616   3.305   7.841   7.971 -1.2534  1.3017 -0.8053
45586SOL    HW243617   3.168   7.849   8.034 -0.5573 -0.9071  1.1388
45587SOL     OW43618   6.507   8.970   8.840  0.3737  0.5765 -0.0135
45587SOL    HW143619   6.487   8.876   8.842  0.6171  0.5194  1.9093
45587SOL    HW243620   6.595   8.976   8.877  0.7732  1.4900 -1.0677
45588SOL     OW43621   6.611   4.458   8.366 -0.0266  0.0685  0.1234
45588SOL    HW143622   6.565   4.540   8.349 -2.2883 -0.5410  2.5756
45588SOL    HW243623   6.658   4.440   8.285 -2.4883  1.8686 -1.8928
45589SOL     OW43624   9.528   0.665   9.294  0.4066  0.3672 -0.2800
45589SOL    HW143625   9.435   0.660   9.316  0.6795 -0.4501  0.7547
45589SOL    HW243626   9.541   0.755   9.264 -0.5980  0.6566  0.1242
45590SOL     OW43627   2.542   0.198   9.200 -0.0920 -0.1298  0.2150
45590SOL    HW143628   2.449   0.219   9.197 -0.0000  0.2160 -0.6437
45590SOL    HW243629   2.586   0.283   9.200  0.2797 -0.1848 -3.0519
45591SOL     OW43630   4.197   7.273   7.835 -0.0462  0.0417  0.2080
45591SOL    HW143631   4.115   7.310   7.869 -0.7219  0.6164 -1.9349
45591SOL    HW243632   4.169   7.202   7.778  1.0962 -1.3047  1.2314
45592SOL     OW43633   8.926   1.396   5.712 -0.4077  0.1738  0.1691
45592SOL    HW143634   8.950   1.459   5.644  0.2195 -0.7085 -0.4521
45592SOL    HW243635   8.883   1.324   5.665 -0.6823 -0.0910  0.8045
45593SOL     OW43636   8.115   9.510  12.090  0.1927  0.3550 -0.1971
45593SOL    HW143637   8.103   9.454  12.167  1.4853  3.0396  2.1462
45593SOL    HW243638   8.038   9.567  12.090  0.6702  1.0035 -0.3083
45594SOL     OW43639   4.127  11.970   8.942  0.1580 -0.0070 -0.1546
45594SOL    HW143640   4.122  11.957   9.037  1.2935  1.9434  0.2258
45594SOL    HW243641   4.095  12.060   8.929  0.7280  0.0059 -1.5317
45595SOL     OW43642   9.531   7.353   8.316 -0.3531 -0.2555 -0.1196
45595SOL    HW143643   9.579   7.393   8.244 -0.4128  0.7865  0.3931
45595SOL    HW243644   9.494   7.273   8.280  0.7739 -0.4584 -0.8487
45596SOL     OW43645   0.899   7.597   3.546  1.1129  0.0047 -0.3487
45596SOL    HW143646   0.953   7.661   3.499 -0.5811  1.0035 -1.0182
45596SOL    HW243647   0.925   7.607   3.638  1.0552  1.5079 -0.4724
45597SOL     OW43648   9.495  11.746   6.721 -0.2442 -0.2902  0.1270
45597SOL    HW143649   9.496  11.747   6.817 -0.5824  0.3205  0.1299
45597SOL    HW243650   9.563  11.808   6.695 -1.9362  1.6036  0.0095
45598SOL     OW43651   7.846   7.544   6.054 -0.3493  0.1235 -0.0631
45598SOL    HW143652   7.897   7.531   6.133  1.7102  2.1948 -0.9518
45598SOL    HW243653   7.842   7.457   6.013  1.1164 -0.3997  0.8270
45599SOL     OW43654   6.679   7.066   4.901  0.3681 -0.4109  0.7032
45599SOL    HW143655   6.628   7.057   4.981  1.4498  0.2026  1.4899
45599SOL    HW243656   6.665   6.984   4.854 -0.0690 -0.8858  1.6418
45600SOL     OW43657   7.219   7.816   8.279  0.5454  0.0600 -0.2223
45600SOL    HW143658   7.255   7.747   8.224  0.0622  0.9326 -1.6994
45600SOL    HW243659   7.124   7.809   8.267  0.5013  1.2968 -0.8611
45601SOL     OW43660  12.219  10.053  12.079  0.0812  0.6830 -0.0479
45601SOL    HW143661  12.256  10.029  11.994 -2.7566  1.3931 -1.6106
45601SOL    HW243662  12.190   9.970  12.117  0.0641  0.5134 -0.4245
45602SOL     OW43663   3.065   2.627   5.200  0.1204 -0.1306  0.2203
45602SOL    HW143664   3.043   2.679   5.123 -1.5259  0.8574  1.2820
45602SOL    HW243665   3.021   2.543   5.186  0.6826 -0.3329 -0.3627
45603SOL     OW43666  10.873   8.222  11.524 -0.1063 -0.2194 -0.1660
45603SOL    HW143667  10.869   8.262  11.611  2.3957  0.1785 -0.1742
45603SOL    HW243668  10.819   8.280  11.469 -2.2006 -0.8024  1.1753
45604SOL     OW43669   1.058   1.827   9.967 -0.1121 -0.2844 -0.6898
45604SOL    HW143670   1.067   1.735   9.991  1.3544  0.1618  0.6175
45604SOL    HW243671   1.017   1.868  10.043  3.5954  0.9484  0.8408
45605SOL     OW43672   0.055   5.607   4.269  0.0167 -1.0244 -0.0090
45605SOL    HW143673   0.028   5.597   4.178  0.6873  0.6779 -0.4343
45605SOL    HW243674  -0.006   5.671   4.306  0.7789 -0.4277  0.2408
45606SOL     OW43675   8.977   6.284   8.871  0.0013  0.2659 -0.6060
45606SOL    HW143676   9.030   6.342   8.817  1.5874  0.2582  0.8517
45606SOL    HW243677   9.026   6.276   8.953 -2.5453  0.7587  1.1082
45607SOL     OW43678  11.682  12.170   1.617  0.5528 -0.1173 -0.1545
45607SOL    HW143679  11.714  12.144   1.704 -2.5537  2.0710  1.8549
45607SOL    HW243680  11.603  12.118   1.605  0.8350 -0.2357 -1.6558
45608SOL     OW43681   9.889   7.139   0.136  0.2028 -0.0436  0.2731
45608SOL    HW143682   9.809   7.186   0.162  1.0782  0.7376  1.6655
45608SOL    HW243683   9.902   7.074   0.206 -0.0452 -1.2503 -0.7569
45609SOL     OW43684   2.588   0.879  10.178 -0.0175  0.6312 -0.0941
45609SOL    HW143685   2.600   0.788  10.150 -1.8033  0.1806  0.4656
45609SOL    HW243686   2.530   0.873  10.254 -0.2675  2.2540 -0.1307
45610SOL     OW43687   4.501   7.319   9.654  0.0638  0.0633  0.1882
45610SOL    HW143688   4.595   7.309   9.636  0.3099  2.8130 -0.4759
45610SOL    HW243689   4.459   7.312   9.568 -0.6080 -2.7166  0.6416
45611SOL     OW43690   8.480   5.056   9.519  0.1744 -0.0393  0.2561
45611SOL    HW143691   8.471   5.099   9.604  1.5083 -0.5813  0.6976
45611SOL    HW243692   8.526   4.974   9.538 -1.6876 -1.3618 -0.6715
45612SOL     OW43693   8.955   2.658   2.020  0.2983 -0.1309 -0.0603
45612SOL    HW143694   8.916   2.640   2.105 -0.4673 -0.1028 -0.3958
45612SOL    HW243695   8.882   2.688   1.966  0.5178 -1.3685 -1.0866
45613SOL     OW43696  10.449   3.944  11.580  0.1385 -0.2005  0.3337
45613SOL    HW143697  10.432   3.931  11.486  0.1967 -0.5604  0.3683
45613SOL    HW243698  10.439   4.038  11.594 -3.0320 -0.4638  0.5761
45614SOL     OW43699   2.075   6.031   4.175  0.0438 -0.0532  0.3042
45614SOL    HW143700   2.019   6.054   4.249  0.0665  1.0145 -0.0024
45614SOL    HW243701   2.112   5.945   4.199  3.1790  1.8930  3.4070
45615SOL     OW43702   4.207   1.604   7.272  0.3380  0.0752 -0.0099
45615SOL    HW143703   4.211   1.693   7.306 -0.3142  0.1531 -0.1352
45615SOL    HW243704   4.123   1.569   7.302  0.1453 -0.1563 -0.7828
45616SOL     OW43705   7.364   4.964   1.205 -0.5527 -0.0285  0.1440
45616SOL    HW143706   7.455   4.986   1.223 -0.1580 -1.5007  0.1098
45616SOL    HW243707   7.315   4.996   1.281  0.0371  0.4916  0.3074
45617SOL     OW43708   0.361   1.428   8.963  0.2475 -0.1901  0.3504
45617SOL    HW143709   0.381   1.336   8.975  0.8696  0.0109  0.8903
45617SOL    HW243710   0.340   1.436   8.869  0.6326 -0.7912  0.2086
45618SOL     OW43711   0.433  10.244  12.530  0.2119 -0.0509 -0.2894
45618SOL    HW143712   0.366  10.210  12.470  0.3658  0.7018 -0.9096
45618SOL    HW243713   0.507  10.185  12.520  0.1102 -0.1292 -0.5832
45619SOL     OW43714   8.785   7.945   5.959  0.4147  0.5655  0.5580
45619SOL    HW143715   8.833   7.863   5.944  1.2931  0.9524  1.1651
45619SOL    HW243716   8.849   8.014   5.941  0.3578  1.0876  2.1941
45620SOL     OW43717   7.678   3.098   1.085 -0.6246 -0.5497 -0.2782
45620SOL    HW143718   7.759   3.051   1.104 -0.4362 -1.1990 -2.4151
45620SOL    HW243719   7.679   3.172   1.145  1.4375 -0.6843 -0.0670
45621SOL     OW43720   9.690   7.018  12.438 -0.3522 -0.3723  0.3290
45621SOL    HW143721   9.660   7.098  12.395 -0.6387 -1.3914 -1.4284
45621SOL    HW243722   9.781   7.009  12.409 -0.5197 -1.0221  0.0084
45622SOL     OW43723  11.719   1.476  12.115 -0.2822  0.0457 -0.1834
45622SOL    HW143724  11.674   1.542  12.062 -0.7091 -1.9157 -2.5172
45622SOL    HW243725  11.791   1.522  12.157  0.3145  1.7514 -2.8259
45623SOL     OW43726   8.867  10.934   2.695 -0.0846  0.3879  0.4957
45623SOL    HW143727   8.836  11.021   2.669 -1.9068 -0.5666 -0.6680
45623SOL    HW243728   8.831  10.875   2.629 -0.5014 -1.4982  2.3387
45624SOL     OW43729   5.955   0.118   3.045  0.4118  0.0516 -0.1260
45624SOL    HW143730   6.009   0.085   3.117  2.8820  2.1424 -0.8568
45624SOL    HW243731   5.995   0.080   2.967  0.9306  1.6575 -0.6850
45625SOL     OW43732   9.049   6.925   0.685 -0.5833  0.1015 -0.5220
45625SOL    HW143733   8.969   6.940   0.735 -0.8023  0.1050 -0.8706
45625SOL    HW243734   9.064   7.007   0.638 -0.0541  0.3058 -0.0177
45626SOL     OW43735  10.167   1.923   7.726 -0.0108  0.4875  0.4916
45626SOL    HW143736  10.186   1.984   7.798  0.2585  1.0646 -0.0598
45626SOL    HW243737  10.087   1.878   7.754  0.6604 -0.0407  1.6184
45627SOL     OW43738   8.998   2.606   0.637 -0.1432 -0.4756  0.4242
45627SOL    HW143739   8.952   2.690   0.635  0.7855  0.0554  0.5755
45627SOL    HW243740   8.955   2.553   0.569 -0.3402  0.3383 -0.1004
45628SOL     OW43741  11.994   2.081   0.367 -0.9354 -0.2894  0.4906
45628SOL    HW143742  12.008   2.017   0.298 -0.0279 -1.9370  2.0922
45628SOL    HW243743  11.954   2.156   0.324 -1.8302 -1.8402 -1.5292
45629SOL     OW43744   5.619   4.938  10.831  1.0675  0.1456 -0.0843
45629SOL    HW143745   5.563   4.935  10.908  1.9144  0.8906  0.5945
45629SOL    HW243746   5.630   4.847  10.805 -1.1722  0.0360 -0.8058
45630SOL     OW43747   5.096   4.020   4.797  0.1576 -0.8080 -0.2020
45630SOL    HW143748   5.045   3.940   4.809  1.8262 -1.9016 -0.0608
45630SOL    HW243749   5.180   3.990   4.762  1.0859  0.8126  0.5071
45631SOL     OW43750   3.380   3.305   3.640  0.2238 -0.4512 -0.3798
45631SOL    HW143751   3.431   3.226   3.657 -0.3310 -0.9303 -0.9012
45631SOL    HW243752   3.344   3.292   3.553  0.8427  0.7757 -0.8474
45632SOL     OW43753   2.899   8.858   4.925  0.1109  0.4537 -0.1189
45632SOL    HW143754   2.873   8.946   4.898  0.8896  0.4533 -0.8935
45632SOL    HW243755   2.816   8.810   4.930 -0.2656  1.0724 -0.2690
45633SOL     OW43756   6.004   3.979  10.375  0.0463 -0.1850  0.1872
45633SOL    HW143757   6.042   4.023  10.299  1.6588 -1.8891 -0.0753
45633SOL    HW243758   5.993   3.888  10.347 -0.0832 -0.6724  1.7350
45634SOL     OW43759   5.152   5.567  10.207 -0.2920 -0.2830  0.3267
45634SOL    HW143760   5.209   5.618  10.264  0.4882 -1.2922  0.4754
45634SOL    HW243761   5.164   5.606  10.120 -0.4288  0.3779  0.6021
45635SOL     OW43762   5.142   6.955   3.974 -0.2071  0.1051 -0.5661
45635SOL    HW143763   5.142   6.925   3.883  0.3011 -1.0355 -0.2048
45635SOL    HW243764   5.125   7.049   3.968 -1.5135 -0.1734 -1.7497
45636SOL     OW43765   9.055   9.461   3.885 -0.0620 -0.1788  0.2247
45636SOL    HW143766   9.028   9.402   3.815  1.0544  0.4866 -0.8105
45636SOL    HW243767   9.073   9.544   3.841  0.5181  0.3036  1.3223
45637SOL     OW43768   5.384   6.213   0.264 -0.1802 -0.3816 -0.1576
45637SOL    HW143769   5.315   6.151   0.286 -0.1014 -0.7606 -0.9436
45637SOL    HW243770   5.343   6.299   0.273 -0.0008 -0.4793  1.9519
45638SOL     OW43771  10.460  11.943   0.367 -0.7709  0.0078 -0.0412
45638SOL    HW143772  10.440  12.021   0.419 -2.5413  0.2296 -0.9900
45638SOL    HW243773  10.391  11.938   0.302 -1.6423 -3.2178  0.9063
45639SOL     OW43774   5.494  12.501   1.285  0.1310 -0.4458  0.5082
45639SOL    HW143775   5.450  12.447   1.219  0.4531 -0.7921  0.5711
45639SOL    HW243776   5.476  12.457   1.368  0.1423 -0.2902  0.5920
45640SOL     OW43777   0.923   3.453   5.205 -0.2219  0.0525 -0.2171
45640SOL    HW143778   0.900   3.497   5.123  0.3295  0.1952 -0.2979
45640SOL    HW243779   0.839   3.424   5.241 -0.5444  0.7309 -0.4122
45641SOL     OW43780  11.239   8.181   6.267  0.2141  0.1975  0.4012
45641SOL    HW143781  11.258   8.089   6.286 -0.4072 -0.0628 -0.1693
45641SOL    HW243782  11.324   8.224   6.268  0.6093 -0.5400 -0.1142
45642SOL     OW43783  10.044   9.291   0.875 -0.0135  0.1715 -0.3010
45642SOL    HW143784   9.985   9.238   0.928  1.1003 -0.3440  0.4590
45642SOL    HW243785  10.058   9.371   0.926  1.3253 -0.4680  0.4001
45643SOL     OW43786   5.162   2.134  10.054 -0.2675  0.3751  0.5028
45643SOL    HW143787   5.241   2.090  10.022 -1.0042  0.2214 -1.2326
45643SOL    HW243788   5.092   2.102   9.997 -1.0911  2.7222  0.0638
45644SOL     OW43789  11.180  11.828   6.344 -0.3983  0.7808 -0.3632
45644SOL    HW143790  11.168  11.875   6.261  0.5796  2.4863  0.4036
45644SOL    HW243791  11.142  11.886   6.410 -0.7827 -0.3622  0.4485
45645SOL     OW43792   7.574   5.773   8.033  0.6538  0.2098  0.2763
45645SOL    HW143793   7.499   5.741   8.084  1.6137 -1.4621  0.7120
45645SOL    HW243794   7.639   5.798   8.098  1.8180 -1.7613 -0.0555
45646SOL     OW43795   8.704   8.464   2.879  0.1828  0.5125  0.2530
45646SOL    HW143796   8.718   8.413   2.958  0.3735 -0.0386 -0.1261
45646SOL    HW243797   8.712   8.400   2.808  1.3563  1.2355 -0.2950
45647SOL     OW43798   8.259  11.940   8.803  0.3620  0.0843  0.2954
45647SOL    HW143799   8.169  11.911   8.810  0.9185 -1.8697 -0.1565
45647SOL    HW243800   8.266  11.978   8.715  0.0015  0.2359  0.3294
45648SOL     OW43801  10.866   6.542   4.326 -0.5680  0.3454  0.7222
45648SOL    HW143802  10.783   6.507   4.357 -0.7754 -0.8101 -1.0201
45648SOL    HW243803  10.922   6.465   4.312 -0.0176  0.9160 -0.3694
45649SOL     OW43804   5.830   1.834  12.344 -0.6133  0.4830 -0.2096
45649SOL    HW143805   5.755   1.845  12.402 -0.9806  1.4911 -0.8493
45649SOL    HW243806   5.824   1.907  12.282 -0.2156 -0.5436 -1.5071
45650SOL     OW43807   9.588   7.101   2.000 -0.2790  0.0971  0.2681
45650SOL    HW143808   9.496   7.124   2.008 -0.7109 -1.6344  0.4850
45650SOL    HW243809   9.591   7.006   2.007  1.2393 -0.1489 -2.2448
45651SOL     OW43810   0.576   9.616   8.166  0.2631  0.4179  0.2964
45651SOL    HW143811   0.669   9.635   8.176  0.6941 -1.6179  0.4257
45651SOL    HW243812   0.545   9.600   8.256 -0.1157  0.6394  0.2093
45652SOL     OW43813   8.636   4.386   4.351 -0.4557 -0.0798 -0.0681
45652SOL    HW143814   8.705   4.354   4.292  0.1714 -0.7752  1.0072
45652SOL    HW243815   8.683   4.441   4.414 -0.9283 -0.3316  0.5065
45653SOL     OW43816   7.282   7.714   3.888 -0.3166  0.0133  0.3629
45653SOL    HW143817   7.343   7.676   3.825 -0.5846  0.7391 -0.3379
45653SOL    HW243818   7.336   7.737   3.964 -0.0884 -1.4279  0.6782
45654SOL     OW43819   5.392   0.509   7.496  0.0408 -0.2879  0.3239
45654SOL    HW143820   5.422   0.540   7.581  0.1702  0.8480 -0.1191
45654SOL    HW243821   5.419   0.417   7.492 -1.3787 -0.8378  2.1578
45655SOL     OW43822   6.671   6.505   4.544  0.2164  0.4700 -0.6865
45655SOL    HW143823   6.580   6.521   4.570 -0.3399 -0.2531 -2.0317
45655SOL    HW243824   6.685   6.412   4.564  0.2344  0.2648 -1.6176
45656SOL     OW43825   5.251   7.389   3.810  0.3551  0.7763 -0.1161
45656SOL    HW143826   5.202   7.359   3.733 -0.3110  1.6098 -0.0262
45656SOL    HW243827   5.342   7.367   3.790 -0.1490 -2.3700  0.4205
45657SOL     OW43828   6.451   6.408   6.771 -0.0342  0.3711 -0.1071
45657SOL    HW143829   6.418   6.408   6.860  0.6701  2.0628  0.1840
45657SOL    HW243830   6.386   6.358   6.721  0.5182 -2.2702  1.6441
45658SOL     OW43831   9.866   0.301  11.964 -0.8032  0.0187  0.6093
45658SOL    HW143832   9.914   0.279  12.044 -0.0499 -1.6101 -0.2431
45658SOL    HW243833   9.776   0.273  11.981 -0.8035  0.3252  1.1297
45659SOL     OW43834   5.853  11.082   6.103  0.3957 -0.4070  0.4896
45659SOL    HW143835   5.913  11.053   6.171  1.2385  0.6334  0.2110
45659SOL    HW243836   5.909  11.124   6.037 -0.6717  1.0592  0.4713
45660SOL     OW43837  10.151   0.108   7.760  0.4733  0.1550 -0.9276
45660SOL    HW143838  10.066   0.135   7.725  0.0843  1.0588  0.6328
45660SOL    HW243839  10.204   0.090   7.682 -0.7991  0.6514 -1.9472
45661SOL     OW43840  10.988   9.675   7.702 -0.2047 -0.0362 -0.2459
45661SOL    HW143841  11.076   9.704   7.676 -0.9903  0.4802 -2.6021
45661SOL    HW243842  11.003   9.618   7.778  1.8029  2.8924  1.7842
45662SOL     OW43843   3.060   6.246   8.178 -0.6148  0.3790  0.5237
45662SOL    HW143844   2.967   6.264   8.165 -0.8542 -0.4254  1.1023
45662SOL    HW243845   3.076   6.268   8.270 -0.1002  1.0346  0.2899
45663SOL     OW43846  11.125   2.316   8.285 -0.5976  0.3669  0.7602
45663SOL    HW143847  11.202   2.363   8.252 -0.3628 -0.8190 -0.5073
45663SOL    HW243848  11.053   2.378   8.278  0.1321  1.3070  1.4315
45664SOL     OW43849   2.015   2.776   6.208 -0.0689  0.7134 -0.2919
45664SOL    HW143850   1.927   2.741   6.217 -0.5551  2.2907  1.8268
45664SOL    HW243851   2.037   2.809   6.296  1.3896  3.1533 -1.4710
45665SOL     OW43852   3.486   8.825  11.142  0.5326 -0.0551 -0.3486
45665SOL    HW143853   3.396   8.806  11.117  0.2521  1.6387 -0.7735
45665SOL    HW243854   3.477   8.882  11.219  1.2312  0.1891 -0.4428
45666SOL     OW43855   3.931   1.832   9.345 -0.3924  0.5094 -0.1173
45666SOL    HW143856   3.919   1.920   9.309 -2.2725  0.3048 -0.1256
45666SOL    HW243857   3.854   1.783   9.313  0.2446 -0.9378  0.4719
45667SOL     OW43858   9.346  10.964   0.180 -0.4041 -0.4124 -0.2096
45667SOL    HW143859   9.286  10.980   0.253  0.2501  1.9636 -0.1024
45667SOL    HW243860   9.428  10.936   0.222 -0.4155 -0.3090 -0.1160
45668SOL     OW43861  12.212   1.153   8.716 -0.3918 -0.1709 -0.2607
45668SOL    HW143862  12.280   1.189   8.658 -1.6841  0.0808 -1.6959
45668SOL    HW243863  12.254   1.148   8.802  1.1960  0.6733 -0.9367
45669SOL     OW43864   2.277   5.611   0.585 -0.3731  0.2292 -0.0198
45669SOL    HW143865   2.193   5.611   0.539 -0.2201 -0.0572 -0.3055
45669SOL    HW243866   2.333   5.668   0.532 -0.1108 -0.3320 -0.3540
45670SOL     OW43867   2.309   7.918  12.309  0.2076 -0.2161 -0.6586
45670SOL    HW143868   2.244   7.982  12.337  2.2747  1.4099  0.8087
45670SOL    HW243869   2.325   7.938  12.217 -2.6590 -1.9503 -1.6719
45671SOL     OW43870   9.816  11.376   4.154  0.2788  0.4155 -0.1811
45671SOL    HW143871   9.886  11.414   4.101 -0.1743  2.3285  0.5093
45671SOL    HW243872   9.764  11.324   4.092  1.7349 -0.2736 -0.8765
45672SOL     OW43873   5.101   1.756  10.294 -0.2285  0.2082 -0.3649
45672SOL    HW143874   5.112   1.850  10.308 -0.0070  0.5369 -2.4346
45672SOL    HW243875   5.190   1.722  10.288 -0.2705 -0.4568  1.9965
45673SOL     OW43876   5.261   2.967   3.924  0.2107  0.0222  0.1346
45673SOL    HW143877   5.189   2.992   3.981 -0.5825 -0.0239 -0.8150
45673SOL    HW243878   5.266   3.037   3.859  1.0638  0.0556  0.2262
45674SOL     OW43879   2.817   4.029   3.944  0.2121  0.1484  0.0912
45674SOL    HW143880   2.880   3.963   3.974 -0.4935 -0.0006  1.3487
45674SOL    HW243881   2.860   4.072   3.871  0.8969 -1.3708 -0.4470
45675SOL     OW43882   4.971   4.766   5.678  0.9484 -0.6043  0.4479
45675SOL    HW143883   4.990   4.778   5.585  0.5106 -0.5276  0.3640
45675SOL    HW243884   4.894   4.710   5.679 -0.8947  1.7668  0.6500
45676SOL     OW43885   0.212   1.221   1.182 -0.2861  0.2094  0.3162
45676SOL    HW143886   0.300   1.260   1.178  0.0803 -0.6229 -0.0126
45676SOL    HW243887   0.196   1.192   1.092 -0.9056  0.3591  0.3782
45677SOL     OW43888   5.337   7.550   1.961  0.4776  0.1704  0.2830
45677SOL    HW143889   5.315   7.509   1.877 -0.4173 -0.7863  0.9496
45677SOL    HW243890   5.384   7.630   1.938  0.8448 -0.4182 -1.1116
45678SOL     OW43891   1.196   5.987   6.760  0.3209 -0.1034  0.5084
45678SOL    HW143892   1.242   6.047   6.818  0.0121  1.0739 -0.4284
45678SOL    HW243893   1.106   6.018   6.760 -0.0304 -1.0717  0.6284
45679SOL     OW43894   0.921   2.361   8.642  0.4545 -0.3224 -0.2839
45679SOL    HW143895   0.989   2.388   8.704  0.1983  1.5015 -0.7279
45679SOL    HW243896   0.892   2.443   8.602 -3.4847 -0.7189  1.3464
45680SOL     OW43897   0.628   5.984   3.535 -0.5681  0.0013 -0.0213
45680SOL    HW143898   0.550   5.962   3.485  0.0562  1.3972 -1.6935
45680SOL    HW243899   0.637   5.911   3.598 -1.3755 -1.8644 -1.9453
45681SOL     OW43900   3.296   1.456   4.934  0.0946 -0.1107  0.0536
45681SOL    HW143901   3.287   1.517   4.861  0.3362  0.0686  0.1711
45681SOL    HW243902   3.217   1.403   4.932 -1.0746  1.5163  1.1764
45682SOL     OW43903   1.061   2.967   1.573 -0.3837  0.1760 -0.3694
45682SOL    HW143904   0.980   2.972   1.522 -0.2332  3.1539 -0.5163
45682SOL    HW243905   1.036   2.998   1.660  0.2020 -0.8907  0.1944
45683SOL     OW43906   9.003   4.858   0.306  0.1611 -0.0845  0.7829
45683SOL    HW143907   9.051   4.872   0.224  1.4694 -1.1590  1.3132
45683SOL    HW243908   8.963   4.942   0.325 -2.9110 -0.5109 -2.5659
45684SOL     OW43909   8.304   0.893   3.523  0.3547  0.7055 -0.2057
45684SOL    HW143910   8.359   0.907   3.446 -0.6569 -0.9018 -1.2816
45684SOL    HW243911   8.356   0.926   3.596  2.0827  0.6654 -1.3604
45685SOL     OW43912   9.961   5.274  10.184 -0.4748 -0.0094 -0.7070
45685SOL    HW143913   9.967   5.369  10.189  1.3083 -0.1070 -0.2669
45685SOL    HW243914   9.902   5.250  10.256  0.7563  0.6449  0.5614
45686SOL     OW43915   1.736  11.245   1.009  0.2414  0.4291  0.0783
45686SOL    HW143916   1.680  11.244   1.086  0.9310  2.1340  0.6489
45686SOL    HW243917   1.683  11.286   0.940  0.7177  1.9692  0.5955
45687SOL     OW43918   2.475   1.970   2.910  0.6959  0.6631  0.2819
45687SOL    HW143919   2.505   2.025   2.837 -0.1426  2.8837  1.4922
45687SOL    HW243920   2.552   1.962   2.967  0.6435  1.2488  0.4490
45688SOL     OW43921   2.273   1.289   0.988  0.2056  0.3700 -0.3097
45688SOL    HW143922   2.280   1.380   0.961  2.9402  0.5338  0.6419
45688SOL    HW243923   2.273   1.240   0.906 -1.2665  1.1560 -0.8286
45689SOL     OW43924   5.656  10.002   9.813  0.3704 -0.0698  0.4955
45689SOL    HW143925   5.690   9.977   9.900 -0.6021 -1.4400  0.5121
45689SOL    HW243926   5.601   9.929   9.787  2.7953 -1.0431 -2.5229
45690SOL     OW43927   8.790   7.137   9.071  0.4190 -0.9508 -0.4371
45690SOL    HW143928   8.735   7.063   9.100 -0.7508 -0.8542 -2.2728
45690SOL    HW243929   8.750   7.213   9.113  0.5406 -1.1337  0.0251
45691SOL     OW43930  10.857   5.811   5.518  0.3784  0.0397 -0.1199
45691SOL    HW143931  10.828   5.764   5.596  0.8457  1.7897  1.1875
45691SOL    HW243932  10.951   5.821   5.529  0.3570  0.8900 -0.5674
45692SOL     OW43933   1.477   7.313   4.415 -0.3292 -0.4740 -0.0521
45692SOL    HW143934   1.394   7.333   4.459 -1.1509 -0.6117 -1.4998
45692SOL    HW243935   1.470   7.220   4.392  0.5461 -0.6797  0.4260
45693SOL     OW43936   9.556   1.872   3.509 -0.6891  0.5906 -0.4232
45693SOL    HW143937   9.533   1.859   3.600 -1.2433 -2.8817 -0.9191
45693SOL    HW243938   9.474   1.863   3.461 -0.0514 -0.2572 -1.4096
45694SOL     OW43939   1.732   2.634   2.788 -0.3685 -0.1167  0.2339
45694SOL    HW143940   1.737   2.577   2.864 -0.2883  0.6543  0.8241
45694SOL    HW243941   1.699   2.578   2.718  0.9892 -1.2246  0.4314
45695SOL     OW43942   8.571  11.639   4.861 -0.1007  0.3652 -0.9758
45695SOL    HW143943   8.511  11.713   4.860  0.7410  1.0752 -2.6898
45695SOL    HW243944   8.514  11.562   4.865 -0.9520  1.0429  2.2062
45696SOL     OW43945   0.585   4.595   5.287 -0.1491  0.0006  0.0113
45696SOL    HW143946   0.505   4.576   5.336  0.8108 -0.7672  1.3483
45696SOL    HW243947   0.581   4.537   5.210 -0.8308 -0.0907  0.1130
45697SOL     OW43948  11.964   3.008   9.638 -0.4805 -0.4456  0.8333
45697SOL    HW143949  11.944   3.043   9.552 -1.2834  1.1375  1.6317
45697SOL    HW243950  11.999   3.082   9.687  2.9731 -1.9712  1.0106
45698SOL     OW43951   3.159   2.558   0.416 -0.0759  0.1800  0.0803
45698SOL    HW143952   3.210   2.587   0.340 -0.9883  1.3996 -0.0996
45698SOL    HW243953   3.225   2.522   0.476  0.9382  1.1296 -0.4141
45699SOL     OW43954   0.064   1.041   1.556  0.6193 -0.1785 -0.2396
45699SOL    HW143955   0.053   0.949   1.580  1.3668 -0.3160 -0.3815
45699SOL    HW243956   0.101   1.082   1.635 -0.6885  0.2308  0.1761
45700SOL     OW43957   7.692   9.582   3.808 -0.3849 -0.4170  0.2285
45700SOL    HW143958   7.659   9.668   3.833 -1.1946 -0.9034  0.9121
45700SOL    HW243959   7.705   9.587   3.713  1.5496  1.0842  0.4997
45701SOL     OW43960   6.574  12.252  11.643 -0.0638  0.0828  0.3400
45701SOL    HW143961   6.568  12.341  11.610  0.5031  0.2913  0.7815
45701SOL    HW243962   6.668  12.235  11.650 -0.1353 -0.9530 -0.8259
45702SOL     OW43963   4.890  10.968   4.931 -0.1881  0.7136  0.4727
45702SOL    HW143964   4.940  10.914   4.992 -0.3885  1.5634  1.4147
45702SOL    HW243965   4.802  10.930   4.933 -0.1042  0.5152  0.4373
45703SOL     OW43966   6.467   0.083   1.850  0.6820  0.0923 -0.0647
45703SOL    HW143967   6.453   0.065   1.757 -0.9324  0.6105  0.0457
45703SOL    HW243968   6.383   0.062   1.891  1.0714  0.8065  1.1297
45704SOL     OW43969   9.620  10.994   3.252 -0.0661  0.0264  0.5461
45704SOL    HW143970   9.596  10.904   3.274 -0.2248  0.0222  0.3570
45704SOL    HW243971   9.556  11.048   3.299 -1.5381 -0.0300 -1.2919
45705SOL     OW43972   6.016   9.481   4.407 -0.3273  0.1737  0.0304
45705SOL    HW143973   5.962   9.402   4.408  0.4036 -0.3665  1.9497
45705SOL    HW243974   5.996   9.523   4.324 -2.7316 -0.6511  0.1152
45706SOL     OW43975  10.495  11.441  10.006  0.0172 -0.5811 -0.2001
45706SOL    HW143976  10.528  11.469  10.092 -0.5011  0.2229 -0.2512
45706SOL    HW243977  10.507  11.346  10.006  1.0816 -0.4677  0.3029
45707SOL     OW43978   4.355   9.794   0.526  1.0836  0.1319 -0.2355
45707SOL    HW143979   4.403   9.868   0.491  1.6750 -0.1827 -0.1011
45707SOL    HW243980   4.380   9.720   0.470 -0.3674  0.2446 -1.0785
45708SOL     OW43981   2.740   5.603   9.536  0.1895  0.2448  0.3125
45708SOL    HW143982   2.653   5.581   9.570 -0.2726  1.3357 -0.1018
45708SOL    HW243983   2.800   5.574   9.605 -0.1825 -3.4439 -0.7059
45709SOL     OW43984   5.881   6.030   8.278  0.4368 -0.4199 -0.3939
45709SOL    HW143985   5.814   5.976   8.237  0.5240 -0.7592 -0.1002
45709SOL    HW243986   5.859   6.120   8.253  0.6790 -0.6397 -1.4427
45710SOL     OW43987  12.369   1.885   7.255  0.3035 -0.1097  0.1919
45710SOL    HW143988  12.293   1.899   7.312 -2.4985 -2.1716 -2.7151
45710SOL    HW243989  12.380   1.968   7.209  0.1215  0.3316  0.9235
45711SOL     OW43990   8.093   9.431   5.570  0.3146  0.1849  0.1347
45711SOL    HW143991   8.168   9.374   5.556  0.9962  1.1359 -0.1654
45711SOL    HW243992   8.118   9.486   5.644 -0.5032 -0.1678  0.6899
45712SOL     OW43993   8.357   8.659   6.747 -0.0291 -0.0256  0.2281
45712SOL    HW143994   8.279   8.683   6.797 -0.1528 -2.1153  1.1540
45712SOL    HW243995   8.411   8.737   6.747 -0.8553  0.5904  2.0658
45713SOL     OW43996   6.732   3.248   9.932 -0.2370 -0.0941 -0.0562
45713SOL    HW143997   6.644   3.266   9.965 -0.4642 -0.9457 -0.1634
45713SOL    HW243998   6.779   3.212  10.007 -0.1140 -0.0410 -0.1095
45714SOL     OW43999   8.202   7.934   4.473  0.2933  0.0773  0.8225
45714SOL    HW144000   8.135   7.988   4.431  0.7715 -1.3218 -1.9850
45714SOL    HW244001   8.285   7.969   4.442  0.6588 -1.1955  0.2950
45715SOL     OW44002   7.596  10.685   4.805  0.0555  0.1829 -0.4006
45715SOL    HW144003   7.585  10.607   4.860 -0.4487  0.2396 -0.4177
45715SOL    HW244004   7.517  10.688   4.752  0.3415  0.3802 -0.8173
45716SOL     OW44005   8.029  11.054   7.717  0.0868  0.5766  0.4501
45716SOL    HW144006   7.956  11.058   7.778  0.0617  0.4630  0.4289
45716SOL    HW244007   8.040  11.143   7.685 -0.3769  0.4954  0.0594
45717SOL     OW44008  11.326   7.548   1.403  0.0582 -0.1248 -0.0342
45717SOL    HW144009  11.260   7.522   1.339  0.5220 -0.5237 -0.3641
45717SOL    HW244010  11.399   7.489   1.387  0.4146  0.1699  0.4656
45718SOL     OW44011   0.826   8.018  10.583  0.2433  0.9471  0.0090
45718SOL    HW144012   0.753   8.076  10.564 -1.4577 -1.1624 -0.3127
45718SOL    HW244013   0.869   8.057  10.659 -0.8543  2.5510 -0.1483
45719SOL     OW44014  11.638   6.132   1.108 -0.6587 -0.0525  0.1794
45719SOL    HW144015  11.601   6.209   1.151  0.3147  0.7236 -0.3319
45719SOL    HW244016  11.611   6.140   1.017  0.0243  0.0669 -0.0193
45720SOL     OW44017   9.470  11.963   2.785  0.4555  0.4490 -0.5650
45720SOL    HW144018   9.496  11.872   2.794  0.4830  0.6707  3.1981
45720SOL    HW244019   9.374  11.961   2.786  0.4436  0.4678  0.9634
45721SOL     OW44020   1.280  10.817   0.730 -0.3789 -0.6473  0.6542
45721SOL    HW144021   1.199  10.817   0.678 -1.0819 -1.1963  1.7099
45721SOL    HW244022   1.273  10.738   0.784  0.5446 -0.3254  1.2576
45722SOL     OW44023   2.819   1.853   7.763 -0.2458 -0.2374 -1.1622
45722SOL    HW144024   2.876   1.865   7.840 -0.4934 -0.6546 -0.9116
45722SOL    HW244025   2.762   1.930   7.763  0.0663 -0.0047 -1.1966
45723SOL     OW44026   9.758   4.574   1.336  0.2080  0.6529  0.3802
45723SOL    HW144027   9.714   4.641   1.285 -0.3797  1.3948  1.8032
45723SOL    HW244028   9.851   4.598   1.333  0.6548 -0.9605 -2.6905
45724SOL     OW44029  10.723   2.291  11.366  0.5731  0.1927  0.2917
45724SOL    HW144030  10.816   2.299  11.343  1.0961 -0.3468  2.0217
45724SOL    HW244031  10.705   2.370  11.418  0.1935  0.0552  0.3702
45725SOL     OW44032   3.011   9.676   5.762 -0.3977 -0.6737 -0.0452
45725SOL    HW144033   3.032   9.600   5.707 -0.2760 -0.8051  0.1833
45725SOL    HW244034   2.932   9.712   5.723  1.2831  1.0175 -2.1682
45726SOL     OW44035   7.335   2.726  10.747 -0.2708 -0.3255  0.3793
45726SOL    HW144036   7.377   2.774  10.818  0.8084 -1.5052  0.5815
45726SOL    HW244037   7.398   2.731  10.675 -1.0169  0.2078 -0.2492
45727SOL     OW44038   8.730   9.712   2.824 -0.0047  0.8909 -0.1389
45727SOL    HW144039   8.639   9.684   2.838  0.3898  0.7435  2.7902
45727SOL    HW244040   8.729   9.806   2.842  0.4311  0.8910 -0.1120
45728SOL     OW44041   6.512   4.356   7.977  0.3952 -0.2468  0.4456
45728SOL    HW144042   6.549   4.433   7.934  0.0613  0.5469  1.5372
45728SOL    HW244043   6.547   4.282   7.929  1.8400  0.5498  0.2391
45729SOL     OW44044   0.399   3.351   4.611 -0.0485 -0.0985  0.1050
45729SOL    HW144045   0.479   3.305   4.633 -0.1435  0.2074  1.1500
45729SOL    HW244046   0.338   3.329   4.681 -0.1533  1.4513  0.5342
45730SOL     OW44047   9.284  11.202   6.438 -0.2272  0.3400 -0.0379
45730SOL    HW144048   9.191  11.195   6.415 -0.1041  0.9075 -0.7388
45730SOL    HW244049   9.324  11.247   6.363  0.4976  0.6671  0.5343
45731SOL     OW44050   6.368   9.753  12.291 -0.0136 -0.2943 -0.2678
45731SOL    HW144051   6.371   9.759  12.196 -0.1658 -0.2903 -0.2736
45731SOL    HW244052   6.275   9.739  12.311 -0.1761  0.9787 -0.0431
45732SOL     OW44053   3.581   4.095   6.023 -0.3640 -0.2751  0.8373
45732SOL    HW144054   3.660   4.103   5.971 -1.2629  2.5898 -0.2926
45732SOL    HW244055   3.604   4.133   6.108 -0.7211  1.6162  0.1491
45733SOL     OW44056   0.628  10.594   1.572  0.1670  0.1066 -0.2383
45733SOL    HW144057   0.577  10.539   1.513  1.7052 -0.2192 -1.3336
45733SOL    HW244058   0.716  10.558   1.569  0.5302  0.7357  1.4774
45734SOL     OW44059   3.834   5.881   4.712  0.4287 -0.2663  0.3903
45734SOL    HW144060   3.803   5.837   4.791  2.7257  1.0582  2.1566
45734SOL    HW244061   3.797   5.969   4.718  0.9711 -0.0263  0.2314
45735SOL     OW44062   2.363  10.935   9.379 -0.0964 -0.2062  0.0166
45735SOL    HW144063   2.435  10.994   9.402 -0.8236  1.7530 -2.2508
45735SOL    HW244064   2.400  10.879   9.311 -0.4481  0.2421 -0.5539
45736SOL     OW44065   3.870  10.231   4.208  0.5053  0.2411 -0.3441
45736SOL    HW144066   3.777  10.235   4.187  0.6208  0.4655 -0.8368
45736SOL    HW244067   3.885  10.307   4.263 -0.0647 -1.0527  1.7090
45737SOL     OW44068   5.849   6.214   1.196 -0.4537 -0.4667  0.1416
45737SOL    HW144069   5.916   6.273   1.163 -1.7162  0.9047 -0.0901
45737SOL    HW244070   5.860   6.134   1.145  0.8067 -0.1757 -0.0812
45738SOL     OW44071   9.059   2.146   9.665 -0.0657 -0.1598  0.3482
45738SOL    HW144072   9.006   2.187   9.596 -1.0705  1.0014  1.7352
45738SOL    HW244073   9.130   2.207   9.681 -1.2002  0.8179  1.9694
45739SOL     OW44074   1.651   2.862   0.360 -0.6915  0.5172  0.4331
45739SOL    HW144075   1.567   2.819   0.372 -1.2986  1.6626  0.4741
45739SOL    HW244076   1.640   2.916   0.282  0.4933 -0.4238 -0.4199
45740SOL     OW44077  11.476   4.595   7.959 -1.1564 -0.2351  0.1153
45740SOL    HW144078  11.540   4.621   7.893 -0.5544 -0.6113  0.5381
45740SOL    HW244079  11.501   4.643   8.038 -2.4130  0.9053 -0.1491
45741SOL     OW44080  10.149  10.367   4.251  0.5693  0.6702 -0.0777
45741SOL    HW144081  10.143  10.456   4.216  0.3308 -0.5612 -3.5147
45741SOL    HW244082  10.191  10.378   4.337 -0.4331  4.1464  0.1176
45742SOL     OW44083   4.247  10.624   8.233  0.3505 -0.0615  0.2410
45742SOL    HW144084   4.222  10.550   8.289  1.3295  0.0372  0.8346
45742SOL    HW244085   4.300  10.584   8.164  0.7259  0.0535  0.4588
45743SOL     OW44086   4.813   2.212   3.694 -0.1021 -0.3315 -0.4118
45743SOL    HW144087   4.805   2.255   3.608 -0.8158  1.9857  0.7247
45743SOL    HW244088   4.723   2.186   3.715 -0.1022  0.0664  0.0849
45744SOL     OW44089   9.274   7.163   8.304 -0.6069  0.0474 -0.5147
45744SOL    HW144090   9.190   7.172   8.258 -1.3258  0.1958  0.7961
45744SOL    HW244091   9.336   7.140   8.235 -1.5940  0.5645 -1.6142
45745SOL     OW44092   1.288   1.033   5.142 -0.2270 -0.3456 -0.2035
45745SOL    HW144093   1.383   1.025   5.147 -0.2729 -1.0118 -0.3734
45745SOL    HW244094   1.259   1.035   5.233 -0.0968 -0.7346 -0.1536
45746SOL     OW44095  12.207   1.666   3.577 -0.5101  0.0834 -0.6711
45746SOL    HW144096  12.119   1.641   3.603 -0.2424  0.8435  1.1323
45746SOL    HW244097  12.203   1.761   3.566  1.0422  1.0622  4.4200
45747SOL     OW44098   9.159  10.793   3.647  0.2590  0.1378 -0.0450
45747SOL    HW144099   9.158  10.705   3.685  0.3193  1.0127  2.0606
45747SOL    HW244100   9.251  10.821   3.654  0.5456 -0.1296 -2.0376
45748SOL     OW44101   0.034   3.561   3.991 -0.0505 -0.5326 -0.2342
45748SOL    HW144102   0.033   3.493   3.923  1.1861 -1.1807  0.3682
45748SOL    HW244103   0.112   3.613   3.972 -0.0905 -0.2787  0.2737
45749SOL     OW44104   0.332   2.733   4.279 -0.3875 -0.4412  0.2778
45749SOL    HW144105   0.279   2.680   4.219 -1.6162  1.7968 -0.7256
45749SOL    HW244106   0.268   2.783   4.330  0.7149  0.6642  0.6342
45750SOL     OW44107   9.046   3.843   5.216  0.1139 -0.1206  0.5594
45750SOL    HW144108   9.098   3.863   5.294  0.4584 -1.7766  0.7907
45750SOL    HW244109   9.073   3.909   5.152  0.8794  0.3863  1.3735
45751SOL     OW44110   7.309  11.489   6.103 -0.2045 -0.2600  0.4243
45751SOL    HW144111   7.344  11.520   6.187  0.1068 -0.2734  0.3030
45751SOL    HW244112   7.274  11.402   6.122  0.3428 -0.4852  0.4321
45752SOL     OW44113   4.758   0.446   0.764  0.5095  0.2662 -0.5639
45752SOL    HW144114   4.708   0.425   0.685  1.1949 -1.4052 -0.6006
45752SOL    HW244115   4.726   0.384   0.830  1.2433  0.4052 -0.0659
45753SOL     OW44116   8.473   2.535   3.696  0.0483  0.6751 -0.2348
45753SOL    HW144117   8.547   2.478   3.718 -0.0610  0.7036  0.2156
45753SOL    HW244118   8.417   2.533   3.773 -0.5348  0.4849 -0.6577
45754SOL     OW44119   8.018   4.848   0.898  0.6340  0.0076 -1.1564
45754SOL    HW144120   8.095   4.801   0.866  0.9563 -0.7611  0.6305
45754SOL    HW244121   7.973   4.785   0.954  1.5820  2.0050  2.1374
45755SOL     OW44122  10.588   4.113   7.566 -0.1521 -0.1119 -0.3499
45755SOL    HW144123  10.510   4.076   7.607 -0.9377  0.2110 -1.5049
45755SOL    HW244124  10.566   4.118   7.473  0.7022  1.3370 -0.5009
45756SOL     OW44125  11.524   2.668   1.080  0.1017 -0.8493 -0.1643
45756SOL    HW144126  11.463   2.727   1.035 -0.4468 -0.8860  0.5231
45756SOL    HW244127  11.611   2.700   1.055 -0.1796  0.4620  0.4468
45757SOL     OW44128   1.038   4.764  11.242  0.0388 -0.1373  0.7915
45757SOL    HW144129   1.018   4.849  11.203 -1.4154 -0.6883  0.2881
45757SOL    HW244130   1.133   4.766  11.256  0.2742  0.9482 -0.6991
45758SOL     OW44131   6.518  11.867   5.937 -0.4703  0.1980  0.0138
45758SOL    HW144132   6.468  11.806   5.991 -0.3436 -0.0579 -0.1529
45758SOL    HW244133   6.607  11.862   5.970  0.3786 -2.4898 -2.2877
45759SOL     OW44134   6.037   5.800   2.542 -0.6808 -0.4422  0.5436
45759SOL    HW144135   6.095   5.841   2.606  1.4055 -1.0713 -0.8280
45759SOL    HW244136   6.062   5.708   2.543 -0.2684 -0.4082 -1.4189
45760SOL     OW44137   1.939   8.621   6.865 -0.7405 -0.2060  0.2076
45760SOL    HW144138   1.904   8.651   6.949 -2.5321 -1.0226 -0.1942
45760SOL    HW244139   1.928   8.696   6.807 -0.2286  0.1072  0.5127
45761SOL     OW44140   3.792   1.356   8.849 -0.2885 -0.1501  0.0263
45761SOL    HW144141   3.818   1.277   8.800 -1.9773 -0.7078 -0.0326
45761SOL    HW244142   3.867   1.415   8.841  0.4098 -1.1584 -1.2328
45762SOL     OW44143   4.678   6.062   6.064 -0.0084  0.2894  0.6148
45762SOL    HW144144   4.702   6.058   6.157  1.5981  0.1012  0.2175
45762SOL    HW244145   4.689   5.973   6.032  0.5966  0.5837 -0.0195
45763SOL     OW44146   0.207   5.679   9.361 -0.2407  0.5623  0.1452
45763SOL    HW144147   0.125   5.631   9.373  1.0294 -1.4734  1.2386
45763SOL    HW244148   0.247   5.679   9.447  2.0760 -0.7849 -0.8447
45764SOL     OW44149   1.270   1.249   0.597  0.6130  0.0644  0.8098
45764SOL    HW144150   1.197   1.250   0.659  0.8448 -0.4399  1.0969
45764SOL    HW244151   1.346   1.224   0.650  0.9511  0.3440  0.4636
45765SOL     OW44152   5.301   9.439   9.675 -0.0487 -0.9498 -0.6244
45765SOL    HW144153   5.396   9.450   9.674 -0.1051 -0.4830 -1.4667
45765SOL    HW244154   5.271   9.495   9.747  0.0875  1.0347 -2.0309
45766SOL     OW44155   5.587   2.187  10.339  0.0821  0.4016 -0.1024
45766SOL    HW144156   5.608   2.245  10.265  0.5547 -0.9842 -1.0843
45766SOL    HW244157   5.532   2.241  10.396 -1.2771  1.1531 -2.0255
45767SOL     OW44158   2.087   1.387   4.088 -0.2281  0.4265 -0.3992
45767SOL    HW144159   2.155   1.454   4.082  1.4493 -1.0916  0.7640
45767SOL    HW244160   2.093   1.340   4.005  1.1339 -0.5740  0.2402
45768SOL     OW44161   5.324   4.326  11.403 -0.1634  0.1828 -0.2495
45768SOL    HW144162   5.397   4.285  11.356  0.4128 -0.6372  1.3018
45768SOL    HW244163   5.362   4.404  11.442 -0.2382  0.0108  0.1680
45769SOL     OW44164   0.536   6.661  10.687  0.3551  0.2635  0.3953
45769SOL    HW144165   0.607   6.599  10.671 -0.6880 -1.1688  1.0224
45769SOL    HW244166   0.484   6.659  10.606  0.2630  0.2547  0.4548
45770SOL     OW44167   7.005  12.431   9.484 -0.1246 -0.5628 -0.1567
45770SOL    HW144168   7.012  12.448   9.578 -1.3645 -0.3983 -0.0677
45770SOL    HW244169   7.068  12.490   9.443 -0.9473  0.7928  0.4688
45771SOL     OW44170   3.244   0.667   6.908  0.4719  0.4701 -0.7734
45771SOL    HW144171   3.173   0.646   6.969  2.0640 -0.0094  1.0042
45771SOL    HW244172   3.243   0.763   6.902  0.9706  0.6097  0.9078
45772SOL     OW44173   8.992   1.235   0.639 -0.3797  0.2322  0.5805
45772SOL    HW144174   8.963   1.302   0.701  0.1191  0.9662  0.0220
45772SOL    HW244175   8.927   1.237   0.569  0.1737  0.8184  0.0801
45773SOL     OW44176   9.382  12.212   9.495 -0.1313 -0.5454 -0.5318
45773SOL    HW144177   9.438  12.271   9.444  1.1498  0.7606  2.1332
45773SOL    HW244178   9.295  12.221   9.456  0.5784  1.1066 -1.8597
45774SOL     OW44179   2.353   9.939  11.711 -0.4058  0.0934  0.0709
45774SOL    HW144180   2.395  10.003  11.653 -0.8411  0.8110  0.5350
45774SOL    HW244181   2.275   9.912  11.662  1.5196 -2.7346 -1.6860
45775SOL     OW44182   3.561   6.795   1.620  0.3669  0.1652  0.5144
45775SOL    HW144183   3.631   6.854   1.592 -0.1071  1.3164  1.7013
45775SOL    HW244184   3.527   6.834   1.700 -1.1114 -0.8096  0.3908
45776SOL     OW44185   8.753  10.099   1.206 -0.1645 -0.7838 -0.7174
45776SOL    HW144186   8.732  10.179   1.158  1.5126 -1.1045 -2.0643
45776SOL    HW244187   8.673  10.045   1.199 -2.9648  2.1236  3.6010
45777SOL     OW44188   2.570   6.894   2.433 -0.2205 -0.1271 -0.2433
45777SOL    HW144189   2.597   6.979   2.398 -0.9602  0.2619  0.1000
45777SOL    HW244190   2.648   6.861   2.478  0.0899  0.3458 -0.4204
45778SOL     OW44191  11.862   3.426   3.156  0.3996 -0.0743  0.1068
45778SOL    HW144192  11.846   3.339   3.193 -1.0296  0.6657  1.3092
45778SOL    HW244193  11.957   3.429   3.144  0.5549 -1.5289  0.7184
45779SOL     OW44194  11.899  11.760   1.387  0.1449  0.4071 -0.1876
45779SOL    HW144195  11.862  11.683   1.345 -0.9485  0.1588  1.1724
45779SOL    HW244196  11.824  11.806   1.424  1.0678  0.3611  1.8709
45780SOL     OW44197   4.723   5.539   1.959  0.6943  0.0593 -0.0949
45780SOL    HW144198   4.811   5.559   1.989  0.3834  2.3096 -0.4778
45780SOL    HW244199   4.735   5.503   1.871  1.2607 -0.3603  0.1504
45781SOL     OW44200   7.048  11.668   1.796  0.1526  0.5849  0.2506
45781SOL    HW144201   6.964  11.695   1.759  0.8960  0.3918 -1.7187
45781SOL    HW244202   7.027  11.640   1.885 -1.9338  0.1665 -0.3074
45782SOL     OW44203   1.423   9.250   0.652  0.1581  0.0383  0.4064
45782SOL    HW144204   1.489   9.192   0.614  0.3055 -0.6036  1.5827
45782SOL    HW244205   1.341   9.225   0.611  0.0840 -1.5850  1.4640
45783SOL     OW44206   0.481  10.460  10.463  0.0398  0.0681 -0.2216
45783SOL    HW144207   0.573  10.437  10.475 -0.4629 -1.9786  0.0893
45783SOL    HW244208   0.465  10.450  10.370  0.0195 -0.0137 -0.2093
45784SOL     OW44209   2.994   5.642   3.445 -0.1964 -0.3502 -0.8648
45784SOL    HW144210   3.085   5.666   3.461 -0.0374 -0.6007 -1.3773
45784SOL    HW244211   2.946   5.724   3.452  0.0789 -0.2034 -0.6830
45785SOL     OW44212  11.401   8.970   4.854 -0.0465 -0.0616 -0.7426
45785SOL    HW144213  11.369   8.953   4.943  0.6681 -0.0433 -0.4788
45785SOL    HW244214  11.362   8.900   4.801  0.4636 -0.7773 -0.1984
45786SOL     OW44215   4.746   2.002  12.303 -0.3659  0.2573 -0.8811
45786SOL    HW144216   4.747   1.912  12.271  0.2613  0.0992 -0.4310
45786SOL    HW244217   4.797   1.999  12.384 -0.6833  0.9397 -0.6531
45787SOL     OW44218  12.537   9.108   4.548 -0.4086  0.3304  0.5597
45787SOL    HW144219  12.608   9.157   4.507 -0.7854  0.3803 -0.0385
45787SOL    HW244220  12.533   9.026   4.500 -0.9425  0.4445  0.4051
45788SOL     OW44221   5.257   5.718   9.961 -0.3666 -0.0295  0.1849
45788SOL    HW144222   5.284   5.743   9.873  0.2420  0.5911  0.5386
45788SOL    HW244223   5.330   5.667   9.995 -0.3214  0.2890  0.5693
45789SOL     OW44224   5.484  11.095   5.127 -0.0688  0.0273 -0.6469
45789SOL    HW144225   5.496  11.010   5.085 -2.3849 -1.1399  0.8687
45789SOL    HW244226   5.402  11.128   5.091 -1.0188 -0.0520  1.3599
45790SOL     OW44227   8.448   5.608  11.732 -0.4035 -0.3592 -0.1247
45790SOL    HW144228   8.470   5.690  11.777 -0.9952 -1.6602  2.7451
45790SOL    HW244229   8.532   5.571  11.708 -0.0863  0.5985 -0.5463
45791SOL     OW44230  10.470   6.698  12.518  0.5690  1.0026 -0.2256
45791SOL    HW144231  10.505   6.650  12.443  2.7283  1.3497  0.4862
45791SOL    HW244232  10.421   6.771  12.479  1.3671  0.9919 -1.3121
45792SOL     OW44233   0.793   7.115   4.873 -0.2344  0.2855  0.2084
45792SOL    HW144234   0.825   7.072   4.952  1.3017  1.1584  0.1095
45792SOL    HW244235   0.706   7.147   4.897 -0.2645 -0.4727  1.1632
45793SOL     OW44236   2.734   1.656   3.188 -0.0489  0.1066 -0.1277
45793SOL    HW144237   2.661   1.705   3.151  0.0676  1.2843  1.0945
45793SOL    HW244238   2.703   1.566   3.193 -1.2295  0.4916 -0.1188
45794SOL     OW44239   7.329   4.301   9.920  0.2411  0.6394  0.5388
45794SOL    HW144240   7.311   4.300  10.014 -1.1973 -1.3618  0.3020
45794SOL    HW244241   7.416   4.262   9.912  0.3446  0.7600  1.0420
45795SOL     OW44242   1.570   1.119   7.256  0.1756 -0.3307 -0.0321
45795SOL    HW144243   1.646   1.166   7.221  0.6702 -0.6336  0.6237
45795SOL    HW244244   1.602   1.076   7.335 -0.7491 -0.2363  0.4079
45796SOL     OW44245   2.183   5.438   7.710  0.6443 -0.3253  0.4941
45796SOL    HW144246   2.090   5.457   7.719  0.4573  0.1050 -1.7101
45796SOL    HW244247   2.226   5.497   7.773 -0.4499  1.3337 -0.2312
45797SOL     OW44248   5.606  10.233  11.271  0.2241  0.4931 -0.1937
45797SOL    HW144249   5.526  10.188  11.244  0.1470  0.8124 -0.4951
45797SOL    HW244250   5.582  10.325  11.275  0.5015  0.5593 -0.0074
45798SOL     OW44251   2.705   3.921  11.507 -0.1863 -0.3457  0.5220
45798SOL    HW144252   2.710   3.953  11.417 -0.8613  1.0863  0.9591
45798SOL    HW244253   2.792   3.886  11.525  0.4150  0.7042 -0.2239
45799SOL     OW44254   8.537   1.038  12.545  0.0093 -0.3445 -0.0871
45799SOL    HW144255   8.473   1.087  12.598  0.2867 -0.0851  0.0094
45799SOL    HW244256   8.578   1.104  12.489  1.2269 -0.2453  0.8733
45800SOL     OW44257  10.627   2.862  11.972 -0.5017  0.1514  0.0142
45800SOL    HW144258  10.576   2.811  12.034  0.1625  1.4216  1.6998
45800SOL    HW244259  10.592   2.951  11.980  0.5445  0.6120 -0.3677
45801SOL     OW44260   6.378   9.893   6.408 -0.1407 -0.5412  0.1725
45801SOL    HW144261   6.324   9.854   6.477  0.4617 -0.8665  0.4729
45801SOL    HW244262   6.345   9.983   6.399  0.3653 -0.1998  1.5264
45802SOL     OW44263   1.686   4.091  11.522 -0.2208  0.4857 -0.2092
45802SOL    HW144264   1.624   4.033  11.478  0.9926  0.6742 -2.3269
45802SOL    HW244265   1.723   4.038  11.593 -1.1303 -0.3783 -0.3615
45803SOL     OW44266   9.583   6.379   7.881 -0.0797 -0.2473 -0.7202
45803SOL    HW144267   9.673   6.399   7.910 -0.5036 -0.3427  0.7802
45803SOL    HW244268   9.546   6.464   7.858 -0.2295  0.0757  0.6282
45804SOL     OW44269   7.135   6.523   9.200  0.2793  0.2177  0.5699
45804SOL    HW144270   7.080   6.454   9.163  1.8778 -0.6357 -0.3340
45804SOL    HW244271   7.074   6.594   9.220 -1.3238 -1.1937  0.9294
45805SOL     OW44272   3.628  12.482   0.909  0.0016 -0.4015 -0.3744
45805SOL    HW144273   3.715  12.473   0.870  0.1251  0.8352 -0.4187
45805SOL    HW244274   3.568  12.460   0.837  0.2417  1.3275 -1.1586
45806SOL     OW44275   8.370   6.738   5.123 -0.6794 -0.0814 -0.1731
45806SOL    HW144276   8.379   6.832   5.112 -1.1111  0.5863  3.8725
45806SOL    HW244277   8.440   6.701   5.069  0.9825  2.6689 -0.0743
45807SOL     OW44278   7.540  12.466   2.447  0.0135  0.1934 -0.6732
45807SOL    HW144279   7.594  12.487   2.371  2.0147 -1.1449  0.2828
45807SOL    HW244280   7.602  12.429   2.510 -1.8626 -0.3099  0.9496
45808SOL     OW44281  11.063  10.066   7.988  0.1183 -0.1305  0.1670
45808SOL    HW144282  11.022  10.117   7.918  0.1690  0.4941  0.5919
45808SOL    HW244283  11.129  10.124   8.025 -1.2565  0.2898  2.0731
45809SOL     OW44284   6.414   0.302   0.062  0.3172  0.0617 -0.2812
45809SOL    HW144285   6.494   0.303   0.009  0.9557  0.0561  0.6443
45809SOL    HW244286   6.427   0.229   0.123 -0.6868 -0.3422 -0.5435
45810SOL     OW44287   2.384   7.751  11.356 -0.3319 -0.1669 -0.5839
45810SOL    HW144288   2.320   7.822  11.347  0.4751  0.2825 -3.9021
45810SOL    HW244289   2.344   7.677  11.309  0.5649 -0.6451 -0.6114
45811SOL     OW44290  12.469   8.848   4.461 -0.0545  0.1444  0.7938
45811SOL    HW144291  12.430   8.823   4.378 -1.1329  0.4526  1.1901
45811SOL    HW244292  12.408   8.816   4.527  0.7055  0.0447  1.4683
45812SOL     OW44293   2.079   3.061  11.759  0.5131  0.6695  0.1482
45812SOL    HW144294   2.121   3.099  11.836 -2.7415  1.6230  1.6331
45812SOL    HW244295   2.087   2.967  11.771  1.5527  0.8130  0.6993
45813SOL     OW44296   9.307  11.875  11.977  0.0801 -0.0760 -0.1808
45813SOL    HW144297   9.322  11.951  11.920  1.3744 -1.0861 -1.2516
45813SOL    HW244298   9.365  11.890  12.052  0.9727 -0.3843 -0.7920
45814SOL     OW44299   1.503   2.455   3.276 -0.3319  0.4104  0.2929
45814SOL    HW144300   1.440   2.509   3.227 -0.0151  0.0165 -0.5693
45814SOL    HW244301   1.485   2.365   3.248 -0.5858  0.0918  1.4176
45815SOL     OW44302   7.525   0.027   9.017  0.4531  0.1526  0.0948
45815SOL    HW144303   7.454  -0.026   8.982 -2.3440  2.5960  1.6014
45815SOL    HW244304   7.529   0.103   8.960  1.7166  0.2018  0.2045
45816SOL     OW44305  10.302   8.554   5.059 -0.9572 -0.0170  0.6815
45816SOL    HW144306  10.343   8.494   5.122 -1.2212  1.5260  2.4333
45816SOL    HW244307  10.302   8.638   5.104  0.3908  1.6009 -2.0804
45817SOL     OW44308  11.739   4.908  11.501 -0.2044 -0.2204  0.4506
45817SOL    HW144309  11.735   5.003  11.512  1.3838 -0.0890  0.1368
45817SOL    HW244310  11.685   4.891  11.425  0.5275  0.6004 -0.2779
45818SOL     OW44311   2.328   8.879  11.839  0.3812 -0.8947  0.0272
45818SOL    HW144312   2.293   8.917  11.919  0.4952 -1.8742  0.5619
45818SOL    HW244313   2.421   8.898  11.841  0.4787 -1.3888  0.4123
45819SOL     OW44314   4.437   4.398   6.352  0.0112 -0.8240 -0.1946
45819SOL    HW144315   4.477   4.476   6.313 -0.0294 -1.2046 -1.0215
45819SOL    HW244316   4.366   4.432   6.406  1.5615 -0.1180  1.4887
45820SOL     OW44317  11.257   8.482  11.633 -0.0461 -0.0407  0.3979
45820SOL    HW144318  11.230   8.392  11.614 -0.6378  0.1487  0.3470
45820SOL    HW244319  11.177   8.533  11.628  0.5279  0.7505 -1.1053
45821SOL     OW44320   2.337   6.634   9.998 -0.7523 -0.4181  0.0488
45821SOL    HW144321   2.330   6.722  10.037 -0.7356 -0.4877  0.2110
45821SOL    HW244322   2.292   6.578  10.061 -0.9884 -0.4883 -0.1822
45822SOL     OW44323   9.652  10.316   1.242 -0.0284 -0.2559  0.0151
45822SOL    HW144324   9.557  10.315   1.237 -0.0908  1.2948  0.1934
45822SOL    HW244325   9.675  10.409   1.240  1.5895 -0.6204 -1.7597
45823SOL     OW44326   7.571   0.524   2.522 -0.1682 -0.1776 -0.0217
45823SOL    HW144327   7.542   0.608   2.558  0.0147 -0.7017  1.4142
45823SOL    HW244328   7.529   0.519   2.436 -1.4495  0.6809  0.5260
45824SOL     OW44329   1.204   4.889   7.174  0.3900 -0.4134 -0.2145
45824SOL    HW144330   1.251   4.874   7.091 -0.8010 -1.7001 -0.7112
45824SOL    HW244331   1.123   4.839   7.164 -0.0652 -0.0731  1.4993
45825SOL     OW44332   6.652   4.918   3.107  0.0080  0.3327  0.1454
45825SOL    HW144333   6.588   4.965   3.160 -0.3768  0.3457 -0.3244
45825SOL    HW244334   6.677   4.981   3.039 -0.6590 -0.2078 -0.6049
45826SOL     OW44335   9.251   3.015   4.306 -0.2964 -0.4170 -0.2522
45826SOL    HW144336   9.293   3.005   4.221  0.2656 -1.0170  0.0932
45826SOL    HW244337   9.166   3.056   4.286  0.0489 -0.0679 -1.0401
45827SOL     OW44338   3.893   2.230   2.452  0.2559 -0.1560 -0.0972
45827SOL    HW144339   3.894   2.316   2.494 -1.1463 -0.1928  0.0542
45827SOL    HW244340   3.959   2.180   2.500  0.1059  0.4129  0.7232
45828SOL     OW44341   1.969  11.408   8.275 -0.7468  0.2729 -0.1933
45828SOL    HW144342   2.028  11.350   8.225 -0.3670  0.1289  0.4065
45828SOL    HW244343   1.991  11.496   8.244  1.3566  0.4325  1.5553
45829SOL     OW44344   7.758   0.750  10.967 -0.7188 -0.0106  0.4185
45829SOL    HW144345   7.764   0.654  10.959 -1.1455  0.0816 -1.6886
45829SOL    HW244346   7.846   0.781  10.946 -1.1905  0.1230 -1.5761
45830SOL     OW44347  10.133   8.285   6.722 -0.5674 -0.2578 -0.1957
45830SOL    HW144348  10.181   8.365   6.699  0.0745 -0.1376  1.4149
45830SOL    HW244349  10.167   8.260   6.808 -1.3456 -1.8165 -0.2938
45831SOL     OW44350   8.573   3.693   1.796  0.5655  0.1350 -0.5451
45831SOL    HW144351   8.547   3.608   1.834 -1.3869  0.7311 -0.4457
45831SOL    HW244352   8.658   3.712   1.837 -0.0824 -0.6558  1.2962
45832SOL     OW44353   1.938   4.985   4.009 -0.2604 -0.1575  0.1589
45832SOL    HW144354   1.890   5.022   3.935 -0.1644  1.7596  0.9940
45832SOL    HW244355   1.885   4.910   4.038 -0.0238 -1.2837 -2.1250
45833SOL     OW44356   5.967   2.075   4.188  0.3015 -0.2167 -0.3041
45833SOL    HW144357   5.994   2.164   4.167 -3.6822  0.8973 -1.4371
45833SOL    HW244358   5.983   2.026   4.107  0.0195  0.1361 -0.5784
45834SOL     OW44359   9.396  12.016   0.133  0.3165 -0.2180 -0.5300
45834SOL    HW144360   9.433  12.036   0.219  0.4196  2.4812 -1.0867
45834SOL    HW244361   9.320  11.962   0.150  1.1687 -0.9394  1.1246
45835SOL     OW44362   9.957   3.113  12.219  0.3642 -0.7178 -0.3859
45835SOL    HW144363  10.027   3.171  12.250  0.3896 -1.4994  1.1200
45835SOL    HW244364   9.914   3.083  12.299 -1.9789  0.0445 -1.2689
45836SOL     OW44365   1.168   6.919   5.281  0.2299 -0.3101  0.1603
45836SOL    HW144366   1.134   7.005   5.308 -0.9770 -0.5712 -0.4846
45836SOL    HW244367   1.119   6.856   5.334 -1.8273 -0.8078 -2.1905
45837SOL     OW44368   5.690   1.638   9.958 -0.0472  0.5022  0.1483
45837SOL    HW144369   5.734   1.719   9.931  2.0458 -0.3913  0.6729
45837SOL    HW244370   5.629   1.619   9.887  1.6160  0.9425 -1.4695
45838SOL     OW44371   6.748   9.972   3.446 -0.0344 -0.0403 -0.4873
45838SOL    HW144372   6.814   9.922   3.398  1.6760  0.6048  1.0638
45838SOL    HW244373   6.796  10.047   3.481 -1.8001  0.8881  0.0125
45839SOL     OW44374   8.346   3.132   9.271  0.5518  0.4071  0.1270
45839SOL    HW144375   8.361   3.163   9.360  0.0155  1.1773 -0.0416
45839SOL    HW244376   8.349   3.211   9.217  0.3708  0.0155 -0.4677
45840SOL     OW44377  10.798   4.441   8.272  0.1553 -0.8004 -0.0404
45840SOL    HW144378  10.884   4.466   8.306 -0.5472  1.0683  0.5228
45840SOL    HW244379  10.797   4.476   8.183 -0.0631 -0.6938  0.0039
45841SOL     OW44380   9.085   0.555   7.187 -0.0764  0.4540  0.0681
45841SOL    HW144381   9.170   0.523   7.158 -0.2019 -1.5325  1.6402
45841SOL    HW244382   9.106   0.620   7.254  0.1990  0.4746 -0.0352
45842SOL     OW44383   2.948   4.394   3.982  0.6773  0.0421  0.0054
45842SOL    HW144384   2.936   4.426   3.893 -1.0046  0.8012  0.4641
45842SOL    HW244385   2.863   4.360   4.007  1.6886 -2.2212  0.5819
45843SOL     OW44386   0.109   9.470   3.080  0.3960  0.5808  0.4866
45843SOL    HW144387   0.043   9.409   3.116  0.4317  1.4951  2.2125
45843SOL    HW244388   0.170   9.413   3.033 -0.2046 -0.5874  1.0574
45844SOL     OW44389   8.407   1.392   0.462 -0.0749 -0.2031 -0.1961
45844SOL    HW144390   8.468   1.464   0.446  0.0843  0.3721  2.4754
45844SOL    HW244391   8.461   1.322   0.499 -1.0086  0.7042  3.2648
45845SOL     OW44392   1.247   5.930   3.138 -0.1898 -0.0950 -0.6857
45845SOL    HW144393   1.261   5.992   3.068  0.0545  2.2649  1.3223
45845SOL    HW244394   1.166   5.959   3.181 -0.7283 -1.8809 -0.3645
45846SOL     OW44395   2.276   4.919  12.128  0.1744  0.3609 -0.1893
45846SOL    HW144396   2.182   4.921  12.110 -0.1797  1.2450  1.4724
45846SOL    HW244397   2.300   5.011  12.140  1.1778  0.1186 -0.2478
45847SOL     OW44398   2.078   0.409   4.257  0.9928 -0.0943  0.1235
45847SOL    HW144399   2.144   0.351   4.219 -0.1136 -1.6051  0.4055
45847SOL    HW244400   2.101   0.496   4.225  0.4239 -1.1551 -3.7052
45848SOL     OW44401   7.362   7.434   7.446 -0.5497 -0.0318  0.4800
45848SOL    HW144402   7.344   7.348   7.409  0.4414  0.7189 -1.9310
45848SOL    HW244403   7.440   7.420   7.500  1.5920 -0.1843 -2.4000
45849SOL     OW44404  10.138   7.496   0.802 -0.2496  0.2380  0.5085
45849SOL    HW144405  10.166   7.404   0.800  0.3242  0.4140  0.0504
45849SOL    HW244406  10.174   7.530   0.884  1.0843  0.5108 -0.1615
45850SOL     OW44407   5.816   6.229   8.767  0.0158 -0.4409  0.2568
45850SOL    HW144408   5.789   6.143   8.735 -1.0768  0.1294 -0.4172
45850SOL    HW244409   5.860   6.270   8.692  1.1257 -0.6463  0.7767
45851SOL     OW44410   0.674  11.737   2.961  0.2531 -0.1348 -0.0707
45851SOL    HW144411   0.762  11.723   2.996 -0.3994 -0.2932  1.5903
45851SOL    HW244412   0.654  11.656   2.915  0.2798 -0.8427  1.1295
45852SOL     OW44413   0.925   4.148   1.185  0.2915  0.1008  0.4078
45852SOL    HW144414   0.832   4.162   1.197  0.3229  0.4010  0.3065
45852SOL    HW244415   0.967   4.222   1.229  0.5232 -0.6016  1.4197
45853SOL     OW44416   0.504   5.209   4.918  0.1038  0.1717  1.1992
45853SOL    HW144417   0.515   5.165   5.002 -0.6891 -1.7489  0.3700
45853SOL    HW244418   0.592   5.212   4.881  0.2772 -0.1182  1.5741
45854SOL     OW44419   4.309   2.451  12.214 -0.2218 -0.3939  0.3135
45854SOL    HW144420   4.306   2.420  12.124 -0.8226 -1.8768  0.8213
45854SOL    HW244421   4.224   2.427  12.251 -0.3978  1.1645  0.9834
45855SOL     OW44422   1.994   3.479   2.100  0.3287 -0.2868  0.2058
45855SOL    HW144423   2.041   3.528   2.033 -2.5951 -1.0050 -2.6474
45855SOL    HW244424   1.980   3.392   2.061 -0.6659 -1.0787  2.1753
45856SOL     OW44425  11.261   2.637   5.178 -0.5836 -0.1738 -0.7633
45856SOL    HW144426  11.353   2.663   5.182 -0.8352  0.5791  1.2960
45856SOL    HW244427  11.232   2.664   5.091  1.3917 -1.4413 -1.8899
45857SOL     OW44428   5.129   2.570   9.297 -0.0758 -0.5839 -0.0303
45857SOL    HW144429   5.219   2.553   9.324 -0.2751 -1.2013  0.2516
45857SOL    HW244430   5.075   2.543   9.371 -0.6849 -3.0175 -1.2599
45858SOL     OW44431   2.555   9.423   2.820 -0.6112 -0.7342 -0.0848
45858SOL    HW144432   2.523   9.482   2.888 -1.1752 -1.7096  0.5158
45858SOL    HW244433   2.506   9.342   2.834  0.5858 -1.5486 -0.5054
45859SOL     OW44434  10.175   9.148   4.224 -0.1176 -0.1629  0.1246
45859SOL    HW144435  10.218   9.070   4.256  0.1710 -1.1148 -2.3424
45859SOL    HW244436  10.241   9.217   4.229 -0.0858 -0.2733  1.4398
45860SOL     OW44437   5.867   7.756   9.488  0.2899 -0.3515  0.1870
45860SOL    HW144438   5.868   7.660   9.487 -1.6943 -0.4079  0.1577
45860SOL    HW244439   5.878   7.781   9.396  1.6931 -0.4986  0.2932
45861SOL     OW44440  12.407   7.050   9.539  0.4528 -0.1474 -0.3736
45861SOL    HW144441  12.359   7.010   9.467  1.6031 -0.3846 -1.0444
45861SOL    HW244442  12.463   6.979   9.572 -0.2126 -0.0981  0.8969
45862SOL     OW44443   9.211   4.058   7.154  0.2180 -0.2270  0.2117
45862SOL    HW144444   9.189   3.981   7.102 -1.3493  1.0591 -1.1153
45862SOL    HW244445   9.229   4.127   7.090  1.0158  0.6916  1.3712
45863SOL     OW44446   3.031   0.347   3.704  0.4634  0.2750  0.2927
45863SOL    HW144447   3.079   0.269   3.674 -0.1090 -0.4673  1.2551
45863SOL    HW244448   2.961   0.358   3.640  0.0915 -0.4656  0.5615
45864SOL     OW44449   7.547   0.169   4.163 -0.1720  0.0865  0.2313
45864SOL    HW144450   7.515   0.123   4.086  0.3082 -0.9412  0.6286
45864SOL    HW244451   7.631   0.207   4.137  0.1873 -0.6054  0.3532
45865SOL     OW44452  10.256   0.925   3.625  0.2211  0.2152  0.1448
45865SOL    HW144453  10.352   0.931   3.628  0.1513  1.3691  0.5858
45865SOL    HW244454  10.231   0.976   3.548 -0.0211 -0.5886 -0.3271
45866SOL     OW44455   8.411   6.784   7.738 -0.5575  0.2832 -0.3734
45866SOL    HW144456   8.389   6.876   7.756  0.5179  0.4740  0.0677
45866SOL    HW244457   8.390   6.738   7.819  3.5709  1.0184  1.3930
45867SOL     OW44458   4.525   0.366   4.349  0.6824 -0.3648  0.1590
45867SOL    HW144459   4.563   0.394   4.432  0.1817  1.8884 -0.3193
45867SOL    HW244460   4.596   0.318   4.305  2.2493  1.6787  0.3035
45868SOL     OW44461   9.221   0.654  11.262  0.1495 -0.2696 -0.3213
45868SOL    HW144462   9.143   0.673  11.209 -0.0289  0.0123  0.0401
45868SOL    HW244463   9.289   0.632  11.197 -0.5607 -1.8052 -0.6075
45869SOL     OW44464  11.078   9.370  11.070 -0.3142 -0.7408  0.1406
45869SOL    HW144465  11.100   9.358  11.162 -1.8091 -0.9241  0.5038
45869SOL    HW244466  11.084   9.465  11.056  0.4125 -0.7620  0.2820
45870SOL     OW44467  10.668  12.489  10.305 -0.6858 -0.1124  0.6918
45870SOL    HW144468  10.600  12.439  10.350 -1.2869  0.4140  0.3973
45870SOL    HW244469  10.621  12.565  10.269 -0.0966 -0.1651 -0.2249
45871SOL     OW44470   8.132  12.500   5.285 -0.2819 -0.1787 -0.1371
45871SOL    HW144471   8.207  12.508   5.345 -0.4132 -1.8309  0.2794
45871SOL    HW244472   8.076  12.575   5.308  0.8809  0.6719  0.0281
45872SOL     OW44473   5.410   7.281  11.997  0.7233  0.2430  0.2067
45872SOL    HW144474   5.399   7.302  11.904  0.0619 -0.9979 -0.0247
45872SOL    HW244475   5.504   7.286  12.012  0.7719  1.2130 -0.3296
45873SOL     OW44476   7.384   7.160   1.082 -0.1057  0.0145 -0.8102
45873SOL    HW144477   7.353   7.239   1.036  0.0785  0.9718  0.6281
45873SOL    HW244478   7.360   7.175   1.174  2.2255 -0.3946 -0.0591
45874SOL     OW44479  10.531   7.927   5.863 -0.1208 -0.4450 -0.3378
45874SOL    HW144480  10.476   7.995   5.826  0.5941  0.8467  0.8893
45874SOL    HW244481  10.592   7.904   5.793 -0.3028  0.2376 -0.7252
45875SOL     OW44482  10.764  11.870  11.133  0.0661  0.3639 -0.1616
45875SOL    HW144483  10.783  11.957  11.167 -1.0414  0.5210  0.0902
45875SOL    HW244484  10.757  11.883  11.038  4.4679 -0.3042 -0.7981
45876SOL     OW44485   4.729   3.426   5.490 -0.2270 -0.0657  0.0670
45876SOL    HW144486   4.805   3.369   5.502  0.6182  0.7126 -1.3366
45876SOL    HW244487   4.759   3.513   5.515 -0.5764  0.2873 -0.7047
45877SOL     OW44488  10.319   2.208   2.136  0.2192 -0.0391 -0.0535
45877SOL    HW144489  10.367   2.259   2.200  1.8926 -1.2766 -0.2623
45877SOL    HW244490  10.367   2.219   2.054 -1.4953  0.9673 -0.9842
45878SOL     OW44491   2.449   8.278  12.275 -0.3609 -0.9241 -0.8316
45878SOL    HW144492   2.544   8.269  12.278 -0.3359 -0.3210  0.9794
45878SOL    HW244493   2.434   8.357  12.223  0.2462  0.1911  0.6260
45879SOL     OW44494  10.372  12.030   9.628 -0.0818 -0.0699  0.0008
45879SOL    HW144495  10.427  11.971   9.680  2.9965  2.2216 -0.3406
45879SOL    HW244496  10.330  12.086   9.692 -0.5831 -0.6488  0.1902
45880SOL     OW44497   0.659   2.736  11.799 -0.1233  0.5467 -0.3076
45880SOL    HW144498   0.585   2.775  11.845  0.7981  1.4894  0.4205
45880SOL    HW244499   0.737   2.776  11.839  0.7869 -0.3899 -1.0674
45881SOL     OW44500   2.797  10.768   2.173 -0.3187 -0.3370 -0.1943
45881SOL    HW144501   2.845  10.689   2.147 -1.5804 -1.7950  1.6384
45881SOL    HW244502   2.708  10.738   2.189 -0.9615  1.5819  0.0604
45882SOL     OW44503   6.559   6.445   0.768  0.3186 -0.0091  0.7389
45882SOL    HW144504   6.576   6.518   0.708 -0.1463 -1.1031 -0.7672
45882SOL    HW244505   6.509   6.485   0.840  0.5087  1.2462  0.2100
45883SOL     OW44506   8.320  12.001   0.915  0.1693 -0.0280  0.3636
45883SOL    HW144507   8.308  11.919   0.963 -0.6642  0.2397  0.6292
45883SOL    HW244508   8.405  11.992   0.872  0.5843 -0.5700  1.2874
45884SOL     OW44509   8.324   6.340   6.325  0.1468  0.0511  0.0461
45884SOL    HW144510   8.358   6.418   6.281  0.6514 -0.8247 -1.1424
45884SOL    HW244511   8.351   6.267   6.271 -1.0556 -0.9145  0.6802
45885SOL     OW44512  10.921   9.728   5.970 -0.1397 -0.1250 -0.3415
45885SOL    HW144513  10.905   9.657   6.032  0.0294 -0.1209 -0.2924
45885SOL    HW244514  10.967   9.685   5.897  1.5066  0.2248  0.4270
45886SOL     OW44515   9.047   0.055   1.344 -0.2177  0.1814 -0.0033
45886SOL    HW144516   9.127   0.025   1.301  0.0543  0.0234  0.6128
45886SOL    HW244517   8.977   0.030   1.282  0.2463  0.9250 -0.8519
45887SOL     OW44518   2.153   2.939   9.279 -0.2703  0.0948 -0.7369
45887SOL    HW144519   2.111   2.855   9.266  0.9490 -0.6708  0.0489
45887SOL    HW244520   2.089   2.992   9.326 -1.2117 -0.2279 -1.6382
45888SOL     OW44521   3.888   9.197   6.665 -0.6429 -0.3537 -0.0434
45888SOL    HW144522   3.813   9.165   6.614 -0.7240 -1.0830  0.5142
45888SOL    HW244523   3.858   9.192   6.756 -0.0547 -0.2644  0.1575
45889SOL     OW44524  11.163   7.375   6.103 -0.1373  0.0246 -0.5809
45889SOL    HW144525  11.186   7.458   6.061  0.2598 -0.0378 -0.4866
45889SOL    HW244526  11.174   7.310   6.034 -0.3342  0.0326 -0.6214
45890SOL     OW44527   0.930   4.714  11.976  0.1027  0.0378  0.0915
45890SOL    HW144528   0.843   4.676  11.964 -0.6674  1.9014 -0.6069
45890SOL    HW244529   0.943   4.768  11.899  0.6530  2.0374  1.5118
45891SOL     OW44530   0.323   4.372   1.753 -0.6195  0.7135  0.0957
45891SOL    HW144531   0.318   4.376   1.657  1.7798  0.1668 -0.1278
45891SOL    HW244532   0.270   4.446   1.783 -0.6607  1.4615 -1.6981
45892SOL     OW44533   4.939   7.756   7.118  0.0801  0.1466  0.0732
45892SOL    HW144534   5.011   7.819   7.117 -0.3306  0.6298  0.6264
45892SOL    HW244535   4.904   7.758   7.028  0.3772  0.3392 -0.0386
45893SOL     OW44536  12.498   8.824   9.443 -0.1801 -0.0995 -0.0507
45893SOL    HW144537  12.476   8.731   9.435  1.1687 -0.5058  0.6521
45893SOL    HW244538  12.507   8.839   9.537  0.0171  0.6400 -0.1797
45894SOL     OW44539   6.416   7.640   6.452  0.4825 -0.1977 -0.4051
45894SOL    HW144540   6.477   7.659   6.381 -0.8317  0.6777 -1.3363
45894SOL    HW244541   6.440   7.701   6.522  1.1460 -0.3956 -0.4459
45895SOL     OW44542  12.008   3.984   6.674  0.1578  0.3435  0.3212
45895SOL    HW144543  11.993   4.072   6.639 -0.8713 -0.2184 -0.7136
45895SOL    HW244544  11.921   3.947   6.686  0.5567 -0.2906  1.4449
45896SOL     OW44545  11.480   0.736   3.984  0.2278  0.2071 -0.2013
45896SOL    HW144546  11.443   0.739   3.896  0.8166 -0.1833 -0.4672
45896SOL    HW244547  11.562   0.687   3.975  0.2539  0.0847  0.5790
45897SOL     OW44548   9.579   6.805   3.717  0.0698  0.1762  0.3537
45897SOL    HW144549   9.564   6.895   3.746 -0.1757 -0.7241  3.3741
45897SOL    HW244550   9.493   6.764   3.718  0.2349 -0.2381 -0.6282
45898SOL     OW44551   3.206   3.631   5.237 -0.1588 -0.3413  0.1219
45898SOL    HW144552   3.125   3.626   5.186  0.2783 -1.3696 -0.5245
45898SOL    HW244553   3.272   3.590   5.181  0.2771 -1.8336  1.6328
45899SOL     OW44554  10.306   7.908   7.144  0.7851  0.2908  0.0846
45899SOL    HW144555  10.287   7.855   7.221  0.5332 -1.4789 -1.1473
45899SOL    HW244556  10.220   7.935   7.112  0.9261  3.0161  1.6533
45900SOL     OW44557   0.772   0.907   3.139  0.0057 -0.1562 -0.2339
45900SOL    HW144558   0.785   0.813   3.131  0.4165  0.0412 -2.3504
45900SOL    HW244559   0.827   0.933   3.213  1.4853 -1.2720 -0.9073
45901SOL     OW44560   9.789  10.723   1.578 -0.3589  0.1701 -0.1938
45901SOL    HW144561   9.789  10.751   1.670  0.5245 -0.4293  0.0061
45901SOL    HW244562   9.726  10.651   1.574  0.0664 -0.2245  0.0900
45902SOL     OW44563  12.429   8.350  10.218  0.4275  0.5987 -0.5474
45902SOL    HW144564  12.485   8.274  10.236 -1.5170 -0.6912  0.3054
45902SOL    HW244565  12.437   8.403  10.297 -0.8611 -0.4619  0.3386
45903SOL     OW44566   0.642   5.464  11.499  0.5010 -0.1995  0.4032
45903SOL    HW144567   0.548   5.469  11.484  0.3182  1.6713  1.7570
45903SOL    HW244568   0.653   5.482  11.592  2.2203 -0.1147  0.2316
45904SOL     OW44569   2.771   6.443   4.077  0.0094 -0.0417  0.0421
45904SOL    HW144570   2.809   6.469   3.993  0.0982  0.1368  0.1383
45904SOL    HW244571   2.678   6.429   4.057 -0.2022  1.0857  0.1404
45905SOL     OW44572   1.069  11.495   8.996  0.2951 -0.1598  0.2713
45905SOL    HW144573   1.131  11.538   8.937 -1.7851  1.3872 -0.9093
45905SOL    HW244574   1.063  11.406   8.964  0.2199  0.2995 -1.0357
45906SOL     OW44575   6.262   0.922   4.885  0.5439  0.2597 -0.0868
45906SOL    HW144576   6.179   0.896   4.844  1.6664 -1.7977 -1.2691
45906SOL    HW244577   6.267   0.868   4.964  0.4368  0.9219  0.3765
45907SOL     OW44578   5.234  10.417   7.044 -0.1660 -0.5327 -0.1567
45907SOL    HW144579   5.300  10.471   7.087 -0.8188 -0.4763  0.7896
45907SOL    HW244580   5.165  10.405   7.109 -0.5778 -1.5388 -0.7427
45908SOL     OW44581   7.197   0.865   3.174 -0.2858 -0.5404 -0.0706
45908SOL    HW144582   7.209   0.955   3.202 -1.0561 -0.5848  0.4368
45908SOL    HW244583   7.161   0.820   3.251 -0.1998 -1.2032 -0.4101
45909SOL     OW44584   8.385  11.086   9.375  0.1739 -0.1009 -0.2760
45909SOL    HW144585   8.380  11.157   9.439 -0.3881  0.8968 -1.4038
45909SOL    HW244586   8.479  11.078   9.356  0.4985 -1.1961  1.4777
45910SOL     OW44587  11.846   6.514   2.623  0.2674 -0.2532 -0.4238
45910SOL    HW144588  11.811   6.473   2.702  0.7717 -0.5162 -0.3299
45910SOL    HW244589  11.843   6.444   2.557 -0.7896  0.1617 -0.8284
45911SOL     OW44590   9.068   1.409   9.776 -0.0252 -0.3434  0.1511
45911SOL    HW144591   9.061   1.315   9.794  0.6686 -0.5279 -0.4629
45911SOL    HW244592   9.157   1.431   9.803  0.0561 -0.0197 -0.3730
45912SOL     OW44593   3.337  11.693   8.764  0.3014 -0.7905  0.7073
45912SOL    HW144594   3.290  11.775   8.780 -0.2099 -1.2144  1.4532
45912SOL    HW244595   3.412  11.696   8.824  0.6639 -0.5595  0.2400
45913SOL     OW44596   7.554   4.210   3.102  0.7559  0.1883 -0.0360
45913SOL    HW144597   7.602   4.285   3.137 -0.9700 -0.2683  3.7771
45913SOL    HW244598   7.462   4.234   3.110  0.1999 -1.6045 -0.4789
45914SOL     OW44599   3.194  11.374   1.833 -0.1930 -0.0055 -0.2223
45914SOL    HW144600   3.099  11.381   1.840 -0.0593  3.0227 -0.0350
45914SOL    HW244601   3.209  11.335   1.747 -1.5508 -2.1882  0.4626
45915SOL     OW44602   8.609   1.970   4.786 -0.2153  0.0381  0.4385
45915SOL    HW144603   8.663   1.931   4.718 -0.0330 -0.4509  0.8492
45915SOL    HW244604   8.625   1.916   4.863 -0.0382  0.8766  1.0040
45916SOL     OW44605   3.368   7.054   1.226  0.2032  0.1592  0.7578
45916SOL    HW144606   3.415   7.032   1.146 -1.5075 -0.2287 -0.1842
45916SOL    HW244607   3.301   6.986   1.234  0.2974  0.2266  2.4983
45917SOL     OW44608   1.419   3.613  10.465  0.2238  0.6962  0.0948
45917SOL    HW144609   1.356   3.629  10.396  1.4583  0.4527 -1.1314
45917SOL    HW244610   1.480   3.687  10.460  1.9513 -0.7163 -1.0037
45918SOL     OW44611  10.443   5.469  10.616 -0.1027 -0.2973  0.0198
45918SOL    HW144612  10.538   5.479  10.622 -0.2122  0.9747 -0.1340
45918SOL    HW244613  10.429   5.374  10.612  1.1533 -0.4979  0.0518
45919SOL     OW44614   4.969   0.338   6.058  0.0384 -0.2490  0.2650
45919SOL    HW144615   4.903   0.324   5.989  0.7684  1.8222 -0.9470
45919SOL    HW244616   5.015   0.255   6.065 -0.3987 -0.6690 -1.4176
45920SOL     OW44617   5.706   6.283   9.936 -0.3361 -0.2897  0.2668
45920SOL    HW144618   5.777   6.279   9.871  0.8740  0.5494  1.4910
45920SOL    HW244619   5.632   6.241   9.892  0.5341 -0.0674 -1.5310
45921SOL     OW44620   2.698   7.799   9.412  0.8144  0.4455 -0.5570
45921SOL    HW144621   2.761   7.747   9.462 -0.9765 -0.7258  0.6184
45921SOL    HW244622   2.673   7.743   9.339  0.5450  0.5919 -0.5761
45922SOL     OW44623   0.849  11.256   9.913  0.3070  0.1728  0.4576
45922SOL    HW144624   0.863  11.235   9.821 -1.8168  0.3345  0.0441
45922SOL    HW244625   0.827  11.349   9.912 -2.1845 -0.3482  0.7675
45923SOL     OW44626  12.343  12.468   2.814  0.2678 -0.1015  0.0954
45923SOL    HW144627  12.279  12.398   2.797  0.0011  0.4498 -1.3792
45923SOL    HW244628  12.319  12.502   2.900 -2.6791  1.3034 -1.1178
45924SOL     OW44629   5.542  12.250   2.033 -0.3401  0.4071  0.2385
45924SOL    HW144630   5.589  12.325   1.996  0.0810 -1.1423 -2.7031
45924SOL    HW244631   5.585  12.233   2.117  0.4127  2.5917  0.3592
45925SOL     OW44632   8.672   1.011   8.113 -0.6727 -0.2542  0.1081
45925SOL    HW144633   8.637   0.924   8.099 -0.9175  0.1237 -1.8184
45925SOL    HW244634   8.596   1.066   8.132 -0.6318 -0.2722  0.3218
45926SOL     OW44635   0.569   2.486   9.360  0.6432 -0.6590  0.1671
45926SOL    HW144636   0.598   2.518   9.274 -0.7501  1.0458  0.2803
45926SOL    HW244637   0.647   2.492   9.415  1.1107 -0.0908 -0.5264
45927SOL     OW44638   7.978   7.847  10.529  0.1896 -0.0164  0.0931
45927SOL    HW144639   8.022   7.788  10.590 -0.0410  0.5503  0.8143
45927SOL    HW244640   7.981   7.801  10.445  1.3869 -0.3663  0.3082
45928SOL     OW44641   5.341   5.440   7.676 -0.3059  1.0360  0.8119
45928SOL    HW144642   5.343   5.526   7.633  0.4911  1.0595  0.8872
45928SOL    HW244643   5.365   5.379   7.607 -2.0389  0.7100  0.4357
45929SOL     OW44644   6.715   0.710  11.578  0.0825 -0.0186 -0.3419
45929SOL    HW144645   6.675   0.706  11.665  1.4032  3.2888  0.5520
45929SOL    HW244646   6.778   0.637  11.577 -0.5412 -0.6188  1.1244
45930SOL     OW44647   6.545   6.727  12.452  0.1042 -0.4056 -0.4051
45930SOL    HW144648   6.631   6.740  12.413  0.9608  0.3328  1.6516
45930SOL    HW244649   6.533   6.632  12.450  0.2954 -0.4330 -1.9939
45931SOL     OW44650   9.528   4.155   7.266  0.2556  0.6193  0.2797
45931SOL    HW144651   9.468   4.095   7.311  0.4232 -0.4462 -0.8596
45931SOL    HW244652   9.587   4.186   7.334  1.2561 -1.8597  0.6531
45932SOL     OW44653   5.932   5.295   4.417 -0.0277 -0.0989 -0.1960
45932SOL    HW144654   5.976   5.293   4.331  0.5836  0.1216  0.1056
45932SOL    HW244655   6.004   5.301   4.480 -0.4787 -0.1916  0.3327
45933SOL     OW44656   1.463   9.824   9.088  0.8517 -0.9023  0.6782
45933SOL    HW144657   1.396   9.858   9.147  0.4254 -1.2748  0.4242
45933SOL    HW244658   1.486   9.738   9.125 -1.2272 -2.3014 -0.9876
45934SOL     OW44659   8.377   7.125   2.549  0.0571  0.0551  0.0855
45934SOL    HW144660   8.425   7.048   2.580 -1.1723 -0.9769 -0.5109
45934SOL    HW244661   8.374   7.114   2.454  0.8370  1.4361 -0.1275
45935SOL     OW44662   7.236   8.479   9.037 -0.1540  0.7711 -0.2653
45935SOL    HW144663   7.253   8.464   9.130  3.7833  1.1576 -0.7490
45935SOL    HW244664   7.243   8.392   8.997  2.5605  1.1038 -0.6482
45936SOL     OW44665   3.526   7.124   2.351 -0.1953 -0.2739  0.7757
45936SOL    HW144666   3.565   7.114   2.438  1.8820  0.6397  0.0143
45936SOL    HW244667   3.501   7.216   2.346 -1.8162 -0.6814  0.9597
45937SOL     OW44668   4.885   8.596   6.278  0.0929 -0.7893  0.2944
45937SOL    HW144669   4.877   8.668   6.340  0.0958 -0.3139 -0.2413
45937SOL    HW244670   4.825   8.619   6.207  2.5560  0.4201 -1.5208
45938SOL     OW44671   5.608   8.440   3.960 -0.1834  0.1142 -0.2479
45938SOL    HW144672   5.653   8.408   3.881 -1.8435 -0.5673 -0.9748
45938SOL    HW244673   5.608   8.365   4.019  1.2802  0.7011  0.5396
45939SOL     OW44674   4.129   5.610   7.568  0.0223 -0.4823 -0.1539
45939SOL    HW144675   4.150   5.703   7.576  0.2358 -0.5806  0.5189
45939SOL    HW244676   4.068   5.592   7.640 -0.5922 -0.7051 -0.7195
45940SOL     OW44677   1.510  12.241   2.010  0.9094  0.0084 -0.2238
45940SOL    HW144678   1.584  12.288   2.048 -0.3255  1.8410  0.0317
45940SOL    HW244679   1.490  12.172   2.074 -0.3141  2.2274  1.9383
45941SOL     OW44680  11.738   1.815   5.458  0.1199 -0.0168  0.0573
45941SOL    HW144681  11.668   1.777   5.405  0.6151  0.7828 -1.2030
45941SOL    HW244682  11.815   1.762   5.438 -0.1038 -0.9502  1.5056
45942SOL     OW44683  11.336  12.478   1.563 -0.6583  0.9915  0.0471
45942SOL    HW144684  11.282  12.474   1.484  0.2067  0.5229 -0.5234
45942SOL    HW244685  11.286  12.536   1.622 -2.2907 -0.2252 -0.0638
45943SOL     OW44686   9.036   0.539   2.457 -0.0737  0.1068 -0.2002
45943SOL    HW144687   9.095   0.592   2.510 -0.9142  0.4658  0.3933
45943SOL    HW244688   8.979   0.602   2.413 -0.9173 -0.2843  0.3185
45944SOL     OW44689   7.771   6.809   7.634 -0.1006 -0.0116  0.3538
45944SOL    HW144690   7.790   6.894   7.674  0.2213  0.9869 -1.7997
45944SOL    HW244691   7.688   6.783   7.674  0.6349  0.4519  2.3181
45945SOL     OW44692   2.385   4.149  10.804 -0.4768  0.0776  0.5325
45945SOL    HW144693   2.298   4.145  10.843 -0.9197  0.4088 -0.3896
45945SOL    HW244694   2.440   4.094  10.860 -0.7840  1.5587  2.3618
45946SOL     OW44695   0.612   6.410   9.704  0.1592 -0.3576 -0.3642
45946SOL    HW144696   0.521   6.385   9.716  0.3678 -1.0602 -0.1900
45946SOL    HW244697   0.629   6.475   9.772  0.5676 -2.2854  1.4568
45947SOL     OW44698   9.244   8.146   8.943  0.4171  0.6734 -0.2072
45947SOL    HW144699   9.305   8.191   8.884  1.5267 -0.3480  0.0988
45947SOL    HW244700   9.158   8.161   8.905  0.9313  1.5516 -1.0769
45948SOL     OW44701   4.213   2.038   8.434 -0.0722 -0.1733  0.2345
45948SOL    HW144702   4.128   2.008   8.466  0.1542  0.2937  1.3241
45948SOL    HW244703   4.252   1.961   8.393 -0.7254 -0.5764  0.3587
45949SOL     OW44704   2.761   1.182   1.085  0.0276 -0.2335 -0.2675
45949SOL    HW144705   2.818   1.254   1.111  0.9276 -1.2270  0.6013
45949SOL    HW244706   2.672   1.215   1.098  0.4340  0.6178  0.4063
45950SOL     OW44707   4.125   5.663   2.579  0.0951 -0.6164 -0.1799
45950SOL    HW144708   4.035   5.693   2.580  0.0015 -0.9114  0.4446
45950SOL    HW244709   4.141   5.639   2.487  0.1868  1.2938 -0.7041
45951SOL     OW44710   7.269   5.586   6.470 -0.1802  0.6988 -0.8914
45951SOL    HW144711   7.274   5.654   6.537  0.1827  1.8151 -1.9978
45951SOL    HW244712   7.216   5.625   6.401  0.8051  0.2350 -1.9451
45952SOL     OW44713   6.009  11.939   7.803  0.4316  0.3635 -0.0676
45952SOL    HW144714   6.099  11.924   7.833 -0.2288 -0.6812  1.5363
45952SOL    HW244715   6.016  12.013   7.743  2.1083  1.4761  1.3878
45953SOL     OW44716  12.361  10.302   9.274 -0.4930 -0.3233 -0.1016
45953SOL    HW144717  12.397  10.390   9.274 -0.2848 -0.3891  1.0460
45953SOL    HW244718  12.323  10.291   9.187 -0.8142  1.0104 -0.1459
45954SOL     OW44719   8.075   3.966  11.606 -0.4920 -0.3768 -0.0652
45954SOL    HW144720   8.011   4.036  11.597  0.0968  0.2736  0.6792
45954SOL    HW244721   8.150   4.007  11.648 -0.6369 -1.7450  1.6512
45955SOL     OW44722   6.632  10.488   9.916  0.5791  0.6118  0.3914
45955SOL    HW144723   6.629  10.424   9.987  0.8322 -0.2202 -0.3422
45955SOL    HW244724   6.709  10.542   9.936  2.5861 -1.5989 -0.8862
45956SOL     OW44725   5.028   9.473   3.883 -0.3250  0.1118 -0.3547
45956SOL    HW144726   5.039   9.488   3.977 -2.6279  0.7266 -0.1149
45956SOL    HW244727   4.978   9.549   3.853  1.1617  0.3874 -2.2880
45957SOL     OW44728   1.699   8.882   6.300 -0.2612  0.1249  0.6315
45957SOL    HW144729   1.632   8.867   6.367  0.2809  0.0541  1.1626
45957SOL    HW244730   1.744   8.798   6.292 -0.5845  0.0069 -0.1319
45958SOL     OW44731  10.328   5.011   5.233  0.0695  0.1567 -0.1767
45958SOL    HW144732  10.317   4.944   5.300  0.9310 -0.4289 -0.5913
45958SOL    HW244733  10.368   4.964   5.159  0.7298  1.1223 -0.4566
45959SOL     OW44734   5.706   0.163   6.941  0.3117 -0.3910  1.0592
45959SOL    HW144735   5.681   0.211   6.862 -0.0171  1.4741  2.2111
45959SOL    HW244736   5.716   0.072   6.913 -0.8241  0.0383 -0.8885
45960SOL     OW44737   3.925  10.769   6.922 -0.2363  0.3424  0.1914
45960SOL    HW144738   3.865  10.742   6.992  0.6274 -1.7289  0.2032
45960SOL    HW244739   4.010  10.735   6.950  0.2290 -0.0255 -1.5812
45961SOL     OW44740  10.685   9.563   5.262  0.1504 -0.3749  0.0085
45961SOL    HW144741  10.750   9.578   5.331  1.3275 -0.1642 -1.1029
45961SOL    HW244742  10.641   9.648   5.252  0.1303 -0.3448  0.3398
45962SOL     OW44743   4.003   7.967   4.676  0.1119 -0.3632 -0.3482
45962SOL    HW144744   3.987   7.965   4.582  0.1556 -0.5551 -0.3513
45962SOL    HW244745   3.940   7.904   4.713  0.0937 -0.2878 -0.2491
45963SOL     OW44746   9.610   2.545   8.245  0.2473  0.4248  0.2203
45963SOL    HW144747   9.518   2.551   8.223  0.1226  1.9524  1.0492
45963SOL    HW244748   9.627   2.620   8.302  1.2612 -1.5465  2.7378
45964SOL     OW44749   3.900   9.745   6.289 -0.1261  0.1928 -0.3073
45964SOL    HW144750   3.825   9.742   6.230 -0.9880 -0.2451  0.7714
45964SOL    HW244751   3.959   9.808   6.249 -2.1724  2.5010  0.0503
45965SOL     OW44752   0.249   2.785   6.887 -0.0985 -0.2686  0.2289
45965SOL    HW144753   0.339   2.817   6.885 -0.1621  0.1183  1.8630
45965SOL    HW244754   0.243   2.735   6.969 -1.2949 -0.5011  0.0202
45966SOL     OW44755   5.102   1.770   0.817 -0.2561  0.1552 -0.4076
45966SOL    HW144756   5.171   1.718   0.856 -0.9543 -1.5581 -1.3605
45966SOL    HW244757   5.146   1.850   0.786  1.0490 -0.3651  0.0616
45967SOL     OW44758  10.195   9.688  11.253 -0.2140 -0.0549 -0.4065
45967SOL    HW144759  10.162   9.717  11.168 -1.8460 -0.2579  0.1177
45967SOL    HW244760  10.287   9.716  11.255 -0.8237  2.1325 -1.2326
45968SOL     OW44761  11.538   4.500  11.015 -0.3174 -0.4929 -0.6725
45968SOL    HW144762  11.623   4.510  10.972  0.9441 -3.5913  0.7486
45968SOL    HW244763  11.524   4.405  11.019 -3.3043 -0.1426  0.2488
45969SOL     OW44764   4.022  10.145   7.841 -0.8280  0.1451 -0.6858
45969SOL    HW144765   4.060  10.081   7.900 -1.0810  0.9290  0.3607
45969SOL    HW244766   3.959  10.194   7.895 -0.4242  1.4630 -1.3542
45970SOL     OW44767   7.352  12.080   8.261  0.1475  0.0747 -0.9266
45970SOL    HW144768   7.271  12.081   8.209 -0.0715  1.1873 -0.5966
45970SOL    HW244769   7.404  12.152   8.225  0.1961  0.5470  0.0627
45971SOL     OW44770   8.498   8.470   8.631  0.7118  0.3797  0.2115
45971SOL    HW144771   8.415   8.516   8.618  0.2035 -1.0128 -1.9935
45971SOL    HW244772   8.564   8.539   8.629 -0.1307  1.1812 -1.5591
45972SOL     OW44773   3.135   1.380   8.685  0.4074 -0.3097 -0.0224
45972SOL    HW144774   3.088   1.413   8.762  0.1652 -1.8201  0.5275
45972SOL    HW244775   3.204   1.325   8.722  1.6648  0.6613 -0.8654
45973SOL     OW44776   4.159   6.833   4.373  0.3157  0.0841  0.0307
45973SOL    HW144777   4.073   6.822   4.332  0.2624  0.0517  0.1502
45973SOL    HW244778   4.201   6.747   4.364  0.3547  0.1140 -0.0710
45974SOL     OW44779   5.158   9.023  11.178 -0.0892  0.3176  0.0526
45974SOL    HW144780   5.110   9.071  11.110 -1.4129 -0.4479  0.4071
45974SOL    HW244781   5.191   8.945  11.134 -0.9262 -0.1663  0.2655
45975SOL     OW44782   5.554   9.780   6.056 -0.6069  0.4959 -0.2511
45975SOL    HW144783   5.617   9.713   6.029  0.2039  1.8109 -1.7995
45975SOL    HW244784   5.578   9.799   6.147 -0.7382 -1.1414  0.1581
45976SOL     OW44785   8.015   8.987   0.765  0.1535  0.1582 -0.0052
45976SOL    HW144786   8.048   9.077   0.766 -0.7334  0.4997  1.1697
45976SOL    HW244787   8.074   8.940   0.706  0.1914  1.6645 -1.2026
45977SOL     OW44788   8.516   9.596   5.265 -0.0353 -0.3117  0.3888
45977SOL    HW144789   8.442   9.614   5.322 -0.7995  0.1766 -0.7201
45977SOL    HW244790   8.582   9.661   5.290 -1.7655  2.4670 -1.7582
45978SOL     OW44791   7.443  10.430   4.606  0.6030  0.1123 -0.2980
45978SOL    HW144792   7.381  10.357   4.601  1.4410 -0.6420  0.1011
45978SOL    HW244793   7.499  10.409   4.680  0.2360  1.6727  0.4564
45979SOL     OW44794   3.035   3.001  12.359 -0.5377 -0.3933  0.2748
45979SOL    HW144795   3.073   2.921  12.323 -0.9008 -1.1338  1.4692
45979SOL    HW244796   3.010   2.977  12.448 -0.8729  0.9936  0.5687
45980SOL     OW44797  11.418   3.586   6.835 -0.4963 -0.1689  0.4730
45980SOL    HW144798  11.402   3.491   6.836 -0.9600 -0.0943  1.1142
45980SOL    HW244799  11.498   3.597   6.886 -1.4751 -0.0702  2.0810
45981SOL     OW44800   9.314   9.043   6.678  0.0756 -0.8591 -0.3344
45981SOL    HW144801   9.367   8.977   6.723 -0.3230 -0.9846 -0.0486
45981SOL    HW244802   9.378   9.106   6.645  0.3732 -0.7507  0.4233
45982SOL     OW44803   8.134   1.581   6.138  0.0122  0.3462  0.0081
45982SOL    HW144804   8.203   1.585   6.072 -0.2998  1.6045 -0.2785
45982SOL    HW244805   8.145   1.496   6.180  2.1960  0.8120  0.4811
45983SOL     OW44806   6.644   6.874   7.439  0.5635 -0.0183 -0.1792
45983SOL    HW144807   6.549   6.879   7.437  0.5965  0.5401 -0.5525
45983SOL    HW244808   6.673   6.965   7.446  1.0610 -0.2075  0.2490
45984SOL     OW44809   4.967   5.611   2.054  0.0833 -0.0941  0.0535
45984SOL    HW144810   4.952   5.696   2.012  1.2391  0.5620  0.8971
45984SOL    HW244811   5.043   5.574   2.009 -0.3383 -0.6345 -0.2269
45985SOL     OW44812  10.804   8.182   6.994  0.3907 -0.2543 -0.1128
45985SOL    HW144813  10.867   8.232   6.942 -0.2965 -0.2088 -0.9374
45985SOL    HW244814  10.766   8.246   7.054  2.0316 -0.5460  1.3158
45986SOL     OW44815   0.349   7.711   5.306  0.0759  0.2799 -0.1186
45986SOL    HW144816   0.413   7.650   5.343  0.0839 -0.5477 -1.4427
45986SOL    HW244817   0.401   7.788   5.281  0.6344 -0.4841 -1.4073
45987SOL     OW44818  10.301   7.777  10.535  0.5423  0.1691 -0.3258
45987SOL    HW144819  10.245   7.728  10.475  1.9170  0.2329 -1.7210
45987SOL    HW244820  10.376   7.720  10.551 -0.4889 -0.5072  2.6411
45988SOL     OW44821   5.590   7.391  11.654  0.3052 -0.2151 -0.0634
45988SOL    HW144822   5.637   7.464  11.696 -1.7007  0.3756  1.3326
45988SOL    HW244823   5.538   7.433  11.586  0.1230 -0.5335 -0.1208
45989SOL     OW44824   2.636   9.275   8.334 -0.3761  0.2226 -0.1546
45989SOL    HW144825   2.625   9.230   8.250 -1.6176 -0.0468  0.1358
45989SOL    HW244826   2.601   9.213   8.399  1.1069  0.1781  0.6407
45990SOL     OW44827   4.668   1.099   4.468  0.1321 -0.2318  0.2937
45990SOL    HW144828   4.659   1.163   4.538 -0.7260 -1.4363  1.3214
45990SOL    HW244829   4.582   1.097   4.426  0.7183  0.7016 -1.0352
45991SOL     OW44830   9.660   3.964   0.218  0.0693  0.1857  0.2643
45991SOL    HW144831   9.629   3.882   0.178 -0.8852  0.5402  0.2658
45991SOL    HW244832   9.592   3.987   0.281  1.2763 -0.0560  1.7092
45992SOL     OW44833  11.052   5.315   7.005 -0.1295 -0.0910 -0.2055
45992SOL    HW144834  11.064   5.397   7.053  2.2501  0.5442 -1.7455
45992SOL    HW244835  11.004   5.259   7.065  0.5417  1.5043  1.9269
45993SOL     OW44836   6.279  11.866  11.468 -0.1998 -0.5360 -0.3255
45993SOL    HW144837   6.216  11.935  11.486  0.6443  0.2275 -0.2356
45993SOL    HW244838   6.361  11.896  11.507  0.2403 -1.4852 -0.4711
45994SOL     OW44839   3.827  11.444  12.305 -0.3822 -0.1241  0.1757
45994SOL    HW144840   3.823  11.474  12.395  0.6736  1.8452 -0.3725
45994SOL    HW244841   3.802  11.520  12.253  0.6887 -0.7021 -1.2553
45995SOL     OW44842  10.836   1.127   2.567 -0.3804  0.3086  0.2882
45995SOL    HW144843  10.911   1.135   2.508 -1.2705 -1.1235 -1.1106
45995SOL    HW244844  10.764   1.168   2.520 -0.9240 -0.1390  0.7145
45996SOL     OW44845   1.516  12.241   3.559  0.2577 -0.1314 -0.4906
45996SOL    HW144846   1.583  12.242   3.627 -1.2483  0.3210  1.0619
45996SOL    HW244847   1.450  12.180   3.591 -0.5066  0.1255 -1.5197
45997SOL     OW44848   2.984  10.854  10.799 -0.0690  0.4847 -0.5793
45997SOL    HW144849   2.982  10.761  10.776 -1.0207  0.0977  0.9380
45997SOL    HW244850   2.895  10.884  10.784 -0.2344  0.6810  0.7283
45998SOL     OW44851   5.791   0.797   5.088  0.2265 -0.3620 -0.4403
45998SOL    HW144852   5.814   0.704   5.084  1.5750 -0.0082 -1.8353
45998SOL    HW244853   5.807   0.829   4.999 -2.1234  0.7905 -0.5210
45999SOL     OW44854   5.715  10.252   5.049  0.3863  0.0855  0.2692
45999SOL    HW144855   5.806  10.228   5.063  0.5777  0.6933  0.1164
45999SOL    HW244856   5.695  10.311   5.121  0.5492  1.0639 -0.4663
46000SOL     OW44857   8.804   1.109  10.972 -0.2813 -0.1241 -0.0299
46000SOL    HW144858   8.774   1.066  10.893 -1.6081  0.2519  0.2284
46000SOL    HW244859   8.854   1.043  11.019 -1.9755 -1.3131  0.2021
46001SOL     OW44860   6.746   5.343   1.190  0.3938 -0.1203  0.6404
46001SOL    HW144861   6.807   5.331   1.116 -1.6055 -1.4235 -0.9224
46001SOL    HW244862   6.740   5.438   1.201 -0.1126  0.1888 -1.7060
46002SOL     OW44863   6.011   9.024   9.316  0.0137  0.0628 -0.4851
46002SOL    HW144864   5.957   8.944   9.322 -0.1268  0.1559 -0.5115
46002SOL    HW244865   5.950   9.095   9.338  0.7058 -0.0489  2.1475
46003SOL     OW44866  11.029   5.100   0.136  0.4060  0.0726 -0.7766
46003SOL    HW144867  10.984   5.104   0.220  0.4998  2.4447 -0.7509
46003SOL    HW244868  11.015   5.011   0.104 -2.7265  0.1670  0.0749
46004SOL     OW44869   6.325   0.879   0.613 -0.0019  0.7184 -0.1856
46004SOL    HW144870   6.420   0.885   0.607  0.5772 -1.4101  3.6119
46004SOL    HW244871   6.299   0.830   0.535  2.0158  0.9730 -1.0773
46005SOL     OW44872   0.567  11.261  10.205 -0.2306  0.1927  0.3014
46005SOL    HW144873   0.617  11.180  10.213 -1.3516 -0.5865 -0.4686
46005SOL    HW244874   0.489  11.246  10.258 -0.3233  0.8837  0.3685
46006SOL     OW44875   6.157  10.883   2.669 -0.2372  0.1011  0.6134
46006SOL    HW144876   6.117  10.823   2.606  1.3500  0.2249 -0.5833
46006SOL    HW244877   6.124  10.855   2.754 -0.6490 -1.5416 -0.0596
46007SOL     OW44878   7.648   6.302   3.167 -0.1288  0.3727  0.2709
46007SOL    HW144879   7.690   6.325   3.250 -0.1838  1.8756 -0.0847
46007SOL    HW244880   7.721   6.297   3.105 -0.3291  2.0903 -0.1576
46008SOL     OW44881   9.665   8.452   6.788 -0.2709 -0.1470  0.5445
46008SOL    HW144882   9.758   8.468   6.805 -0.3736 -0.0612  1.0285
46008SOL    HW244883   9.658   8.452   6.692  0.1022  0.6119  0.5035
46009SOL     OW44884   4.254   6.381   7.930 -0.0742  0.3217 -0.7268
46009SOL    HW144885   4.276   6.473   7.946  0.1455  0.2492 -0.5960
46009SOL    HW244886   4.339   6.337   7.929 -0.2777 -0.2585  1.5823
46010SOL     OW44887  12.192   9.581   2.087  0.0909  0.3662  0.5752
46010SOL    HW144888  12.165   9.654   2.031  0.9295  1.4886  1.5950
46010SOL    HW244889  12.112   9.555   2.132 -1.0656 -1.7655 -2.3206
46011SOL     OW44890   4.494  10.873  10.586  0.0027  0.6675  0.4759
46011SOL    HW144891   4.451  10.860  10.671  0.1633 -0.2964  0.4184
46011SOL    HW244892   4.517  10.966  10.585  0.0837  0.6694  1.5258
46012SOL     OW44893   5.984  11.649   8.019  0.4936 -0.1199  0.0723
46012SOL    HW144894   6.066  11.606   7.994 -0.7732 -2.0962 -0.9654
46012SOL    HW244895   5.949  11.683   7.937 -1.0282 -1.7723 -0.0285
46013SOL     OW44896   1.242  11.437   0.825 -0.0760 -0.4914 -0.4298
46013SOL    HW144897   1.212  11.487   0.749  0.4537  3.6780  1.8018
46013SOL    HW244898   1.162  11.399   0.861 -1.1375  1.6911 -0.3456
46014SOL     OW44899   4.619   3.083   6.295 -0.5472 -0.4023  0.0062
46014SOL    HW144900   4.709   3.082   6.328  0.3918 -0.7769 -2.3029
46014SOL    HW244901   4.607   3.172   6.261 -0.3795 -0.8247 -1.2290
46015SOL     OW44902   0.986   9.683  11.605 -0.0018  0.3856  0.9637
46015SOL    HW144903   0.900   9.723  11.619 -0.7079 -0.0469 -1.5657
46015SOL    HW244904   0.988   9.609  11.665 -1.8874 -0.2461  0.3302
46016SOL     OW44905   1.191   4.448   0.249  0.1604  0.7907  0.2257
46016SOL    HW144906   1.202   4.484   0.337 -1.4011  0.6687  0.4912
46016SOL    HW244907   1.119   4.497   0.211 -0.4353 -0.4352 -0.2817
46017SOL     OW44908   3.267   2.839   8.349 -0.5599 -0.2150 -0.2607
46017SOL    HW144909   3.290   2.848   8.441  1.3890  0.3859 -0.7475
46017SOL    HW244910   3.233   2.925   8.325  4.0845  1.6842 -1.2957
46018SOL     OW44911   2.320   0.116   0.722  0.6051  0.2191  0.0497
46018SOL    HW144912   2.228   0.143   0.723 -0.2916 -2.5627  1.5909
46018SOL    HW244913   2.368   0.199   0.730 -1.7916  1.6542  0.8912
46019SOL     OW44914   4.990   0.557   5.010  0.3205 -0.0545  0.1402
46019SOL    HW144915   4.955   0.474   4.978 -0.0563  0.6862 -1.4788
46019SOL    HW244916   4.918   0.620   4.998  1.2961  0.9348 -0.6893
46020SOL     OW44917   9.797   9.452   0.378 -0.5214  0.2506  0.2891
46020SOL    HW144918   9.738   9.379   0.364 -0.8202  0.4393  0.5461
46020SOL    HW244919   9.867   9.416   0.433 -1.8281  0.6934  2.3619
46021SOL     OW44920   7.498   3.166   6.941  0.7924 -0.3872  0.0339
46021SOL    HW144921   7.555   3.117   7.001  3.1932 -0.2147 -1.9669
46021SOL    HW244922   7.555   3.190   6.868 -0.9132  3.2289 -0.2928
46022SOL     OW44923   9.965   5.022  10.981  0.4949  0.0271 -0.2641
46022SOL    HW144924   9.957   5.025  10.886 -0.5277  1.2132 -0.1660
46022SOL    HW244925   9.904   5.089  11.012  0.9533 -0.2150  1.2211
46023SOL     OW44926  11.983   1.506   9.069 -0.9120 -0.3686  0.5961
46023SOL    HW144927  11.912   1.444   9.052 -1.1842  0.6461 -2.5904
46023SOL    HW244928  11.952   1.589   9.034  1.8778  0.0567 -1.1991
46024SOL     OW44929   7.966   5.372   4.758  0.1975  0.2430 -0.4210
46024SOL    HW144930   7.972   5.459   4.799 -1.3651  1.2529 -2.1394
46024SOL    HW244931   7.876   5.344   4.778  0.0943 -0.1428 -1.4018
46025SOL     OW44932   9.296   8.533   5.207 -0.0201  0.6491  0.8754
46025SOL    HW144933   9.320   8.440   5.214 -0.9829  0.4423  1.5430
46025SOL    HW244934   9.380   8.578   5.195  0.5682 -0.2143  1.5606
46026SOL     OW44935   8.703   1.988   6.297  0.7686  0.7766 -0.8461
46026SOL    HW144936   8.708   2.077   6.262 -0.5782  0.6715 -1.4015
46026SOL    HW244937   8.694   1.933   6.219  2.6351  0.0317 -0.5626
46027SOL     OW44938   8.389  12.244  10.763 -0.5676  0.1339  0.0964
46027SOL    HW144939   8.420  12.267  10.675  1.6034 -1.0802  0.4915
46027SOL    HW244940   8.349  12.158  10.753 -0.5918  0.1265  0.2550
46028SOL     OW44941   9.021  10.061   9.779  0.2570 -0.2170 -0.1437
46028SOL    HW144942   8.977  10.134   9.821 -0.7975  0.3902 -2.1622
46028SOL    HW244943   8.966  10.040   9.703  2.2491 -0.9303 -1.4771
46029SOL     OW44944  11.056   4.718   6.962 -0.0399 -0.1673  0.1137
46029SOL    HW144945  11.144   4.719   6.999 -0.2719 -0.5152  0.6898
46029SOL    HW244946  11.046   4.631   6.924 -0.7965 -0.8281  1.7225
46030SOL     OW44947   8.971  10.308  12.506  0.6664 -0.0850  0.1224
46030SOL    HW144948   8.925  10.271  12.431 -1.1205  1.5536  0.3258
46030SOL    HW244949   8.993  10.233  12.561 -0.0750 -1.0967 -0.9270
46031SOL     OW44950   8.995   2.717   3.465 -0.0534 -0.1049 -0.4589
46031SOL    HW144951   9.072   2.661   3.454  0.7785  1.0290 -0.5296
46031SOL    HW244952   9.024   2.804   3.438 -0.6400  0.8715  1.8577
46032SOL     OW44953  12.057   6.983  12.088 -0.1206 -0.5068 -0.1410
46032SOL    HW144954  12.134   7.012  12.138 -1.0620 -0.7337  1.5156
46032SOL    HW244955  12.028   6.903  12.132 -0.5751 -1.1308 -1.5215
46033SOL     OW44956  11.617  11.036  10.588  0.1131  0.4941 -0.0603
46033SOL    HW144957  11.678  11.085  10.533  1.4206 -0.9398  0.0408
46033SOL    HW244958  11.603  11.092  10.665  2.2408  0.3839  0.4564
46034SOL     OW44959  12.364   7.405   1.931  0.0751  0.1488  0.1911
46034SOL    HW144960  12.273   7.408   1.901  0.3715  1.6032 -0.6890
46034SOL    HW244961  12.416   7.394   1.851  0.6394 -2.9994  0.8711
46035SOL     OW44962   9.596  10.294   1.885 -0.5066 -0.1960 -0.4480
46035SOL    HW144963   9.537  10.349   1.835 -1.2485 -0.0755  0.5267
46035SOL    HW244964   9.548  10.213   1.899  0.0976 -0.6276 -0.8036
46036SOL     OW44965   6.608   8.545  11.714  0.1115  0.0558 -0.0113
46036SOL    HW144966   6.689   8.496  11.726  0.0332 -0.1412 -0.2714
46036SOL    HW244967   6.628   8.633  11.745 -0.0240 -0.3649  1.3411
46037SOL     OW44968   6.629   5.968   0.798  0.2497  0.1172  0.1245
46037SOL    HW144969   6.622   5.896   0.860 -0.7322  1.1827  1.2956
46037SOL    HW244970   6.631   6.047   0.853  0.8689  1.0131 -1.1366
46038SOL     OW44971   0.295  12.267   9.886 -0.2073  0.3040 -0.0132
46038SOL    HW144972   0.356  12.215   9.834 -1.4782  0.6888 -1.9968
46038SOL    HW244973   0.329  12.356   9.881  0.5890  0.1013  1.2880
46039SOL     OW44974   9.659  12.491  10.311 -0.0300 -0.1105 -0.1559
46039SOL    HW144975   9.690  12.495  10.220 -0.9958 -0.4262 -0.5133
46039SOL    HW244976   9.626  12.579  10.329 -0.9411 -0.3617 -0.5312
46040SOL     OW44977   1.132   8.602  12.189 -0.1527  0.0128 -0.2702
46040SOL    HW144978   1.044   8.563  12.195 -0.8968  1.7951  2.0240
46040SOL    HW244979   1.182   8.556  12.257  0.0001  0.5445 -0.0166
46041SOL     OW44980   3.801   6.958  11.952 -0.2973 -0.3408 -0.7075
46041SOL    HW144981   3.868   7.026  11.953 -2.2011  1.6648  0.7687
46041SOL    HW244982   3.832   6.891  12.013  0.8084  0.0302 -0.8512
46042SOL     OW44983  10.432   1.513   7.645 -0.0038 -0.4255  0.2352
46042SOL    HW144984  10.462   1.581   7.704  1.8904  0.0002 -1.1034
46042SOL    HW244985  10.484   1.436   7.669 -1.4970 -1.1740  1.1630
46043SOL     OW44986   4.891   6.638   9.297 -0.6861  0.2991  0.2584
46043SOL    HW144987   4.880   6.652   9.203 -0.1154  1.3899  0.3522
46043SOL    HW244988   4.975   6.678   9.318 -1.9806  2.4623  1.7041
46044SOL     OW44989   5.085   6.709   5.336  0.4588  0.2223 -0.2877
46044SOL    HW144990   5.095   6.641   5.270  0.1788 -1.3439  1.2292
46044SOL    HW244991   5.027   6.671   5.402 -2.8574  3.2467 -1.1306
46045SOL     OW44992   9.713  11.979   3.044 -0.0093 -0.0799 -0.7476
46045SOL    HW144993   9.738  11.981   3.136 -1.9051  0.0806 -0.1967
46045SOL    HW244994   9.778  11.922   3.003  1.3139  0.4553  0.5324
46046SOL     OW44995   4.002   1.895   2.233 -0.1083 -0.2742  0.3754
46046SOL    HW144996   3.988   1.941   2.151 -1.9925 -1.8865 -0.2866
46046SOL    HW244997   3.927   1.919   2.287  0.8650  0.3888  1.4990
46047SOL     OW44998   3.498   2.634   7.397 -0.0159  0.2838 -0.7068
46047SOL    HW144999   3.562   2.688   7.351 -0.1642  1.5376  0.4985
46047SOL    HW245000   3.415   2.651   7.352  0.1418  0.2168 -1.0211
46048SOL     OW45001   9.787   1.637  10.236  0.4924  0.3275  0.0410
46048SOL    HW145002   9.741   1.565  10.192 -0.3437  1.0335 -0.2758
46048SOL    HW245003   9.775   1.711  10.177  0.0151  1.1090  1.1068
46049SOL     OW45004   4.764   8.885   7.642 -0.3899  0.0048 -0.3738
46049SOL    HW145005   4.772   8.822   7.570  1.5777  0.6650 -0.8015
46049SOL    HW245006   4.757   8.830   7.720  0.9459 -0.7788 -0.7722
46050SOL     OW45007  11.917  12.120   7.562 -0.3992 -0.4083  0.1875
46050SOL    HW145008  11.901  12.207   7.524 -0.3109 -0.2610  0.4828
46050SOL    HW245009  11.913  12.060   7.488  1.6494  0.0756 -0.3808
46051SOL     OW45010   1.424   2.090   1.660 -0.0638  0.1372  0.1319
46051SOL    HW145011   1.402   2.182   1.652 -0.6887  0.2353  2.5301
46051SOL    HW245012   1.344   2.047   1.689  0.5240 -0.9821  0.1823
46052SOL     OW45013  10.871   0.653   9.756  0.4053 -0.0033  0.0150
46052SOL    HW145014  10.929   0.680   9.684  2.2482 -0.3921  1.2732
46052SOL    HW245015  10.879   0.558   9.758  1.5516  0.0836  1.6006
46053SOL     OW45016   7.663   6.602  12.068 -0.3993 -0.7361 -0.7413
46053SOL    HW145017   7.635   6.574  11.981 -1.7250 -0.9054 -0.2812
46053SOL    HW245018   7.752   6.634  12.056 -0.5873 -0.7159 -2.1669
46054SOL     OW45019   7.440  10.582   5.455  0.2191 -0.1315 -0.4423
46054SOL    HW145020   7.362  10.636   5.462 -0.3841 -0.8927 -1.0571
46054SOL    HW245021   7.502  10.635   5.406  0.5422  0.9467  1.0648
46055SOL     OW45022   4.687   5.174  12.005  0.0763  0.6584  0.2783
46055SOL    HW145023   4.646   5.182  12.091  0.7592 -1.6637  0.8856
46055SOL    HW245024   4.663   5.086  11.975  2.1729  0.3394 -0.6358
46056SOL     OW45025   7.481  12.217   8.723  0.2283 -0.5729 -0.4992
46056SOL    HW145026   7.531  12.237   8.643  0.3715  0.2868 -0.2102
46056SOL    HW245027   7.517  12.277   8.788  2.5075 -3.4877  1.1821
46057SOL     OW45028   8.824   4.828   9.320  0.0895  0.2227 -0.3468
46057SOL    HW145029   8.869   4.773   9.256 -0.8076  0.9281 -1.6208
46057SOL    HW245030   8.835   4.917   9.287  0.6805  0.7452  1.1688
46058SOL     OW45031  11.572   2.210   0.457  0.0342  0.0782  0.2294
46058SOL    HW145032  11.615   2.241   0.538 -1.7237 -0.4676  1.4230
46058SOL    HW245033  11.599   2.273   0.390  0.4536  1.3515  1.5399
46059SOL     OW45034   4.859   8.336   3.664  0.1293 -0.2893 -0.6640
46059SOL    HW145035   4.865   8.334   3.569 -0.3040 -0.0861 -0.6964
46059SOL    HW245036   4.896   8.421   3.689 -0.9536  0.2161 -0.7436
46060SOL     OW45037   5.502   9.108   7.105  0.0843  0.6608  0.3232
46060SOL    HW145038   5.538   9.173   7.164 -0.2024 -0.0384  1.3017
46060SOL    HW245039   5.573   9.087   7.044  0.1114  2.0170 -0.1468
46061SOL     OW45040   3.591   0.522   3.982 -0.5158  0.2052 -0.1346
46061SOL    HW145041   3.506   0.545   4.019 -1.1912  0.9264 -1.9995
46061SOL    HW245042   3.574   0.512   3.888  1.1373 -1.3392 -0.3107
46062SOL     OW45043  11.545   3.246   0.531  0.6662  0.3164  0.8242
46062SOL    HW145044  11.461   3.277   0.565  0.2272 -0.2038  0.2233
46062SOL    HW245045  11.581   3.321   0.484  0.7382  0.6721  1.4393
46063SOL     OW45046  11.205   4.855   0.281 -0.2838 -0.3396 -0.3829
46063SOL    HW145047  11.188   4.763   0.301 -1.0334 -0.0080  0.5801
46063SOL    HW245048  11.241   4.854   0.192  0.2202 -1.6029 -0.1857
46064SOL     OW45049   3.051   5.434   3.282 -0.3390 -0.3362  0.1095
46064SOL    HW145050   3.090   5.362   3.331  3.4247  1.7769  0.5869
46064SOL    HW245051   3.013   5.491   3.349 -1.3433 -0.7684 -0.0795
46065SOL     OW45052   5.862   2.733   6.239  0.7206 -0.0741  0.3298
46065SOL    HW145053   5.771   2.715   6.264  0.7229 -2.7359 -1.1754
46065SOL    HW245054   5.860   2.737   6.143  2.0586  0.9711  0.3056
46066SOL     OW45055   5.120   5.141   8.907  0.3261 -0.0924 -0.1336
46066SOL    HW145056   5.108   5.054   8.945 -2.0936 -0.1387 -0.8297
46066SOL    HW245057   5.204   5.172   8.943  0.4189 -1.9904  1.4575
46067SOL     OW45058   3.234   9.788  11.257 -0.5188 -0.5943  0.1391
46067SOL    HW145059   3.261   9.853  11.191 -0.1763 -0.5189  0.3495
46067SOL    HW245060   3.300   9.796  11.326 -0.8954 -0.6559  0.5020
46068SOL     OW45061  10.430   0.371  10.259 -0.2020 -0.0759 -0.4994
46068SOL    HW145062  10.386   0.456  10.268 -0.6596 -0.2644 -0.8779
46068SOL    HW245063  10.378   0.311  10.313  0.4867  0.0062  0.2759
46069SOL     OW45064   3.875  10.673   0.817  0.5760 -0.1896  0.8113
46069SOL    HW145065   3.935  10.704   0.885 -0.0916 -0.4373  1.5415
46069SOL    HW245066   3.790  10.672   0.860 -0.0266  0.5296 -0.3243
46070SOL     OW45067   7.346   9.325  11.243  0.9862  0.7144  0.1421
46070SOL    HW145068   7.351   9.418  11.218  0.0038  1.2419  1.8209
46070SOL    HW245069   7.277   9.289  11.188  0.7732  1.1828  0.0998
46071SOL     OW45070   6.670   6.097   6.475  0.2332  0.7418 -0.2678
46071SOL    HW145071   6.711   6.036   6.535  0.4430  1.0449 -0.0997
46071SOL    HW245072   6.742   6.153   6.444  0.2552  0.1510 -1.3380
46072SOL     OW45073   3.849   2.670   4.318  0.2114 -0.1165 -0.0123
46072SOL    HW145074   3.936   2.632   4.326 -0.5164 -1.4230  3.0496
46072SOL    HW245075   3.864   2.764   4.308  1.9558 -0.5643 -2.4191
46073SOL     OW45076   4.920   4.239   9.084 -0.1792 -0.3848  0.1448
46073SOL    HW145077   4.962   4.303   9.027 -0.3920  0.8265  1.2876
46073SOL    HW245078   4.942   4.155   9.046  0.7240  0.3382 -0.9999
46074SOL     OW45079  10.034   6.670   7.783 -0.3607 -0.3812 -0.0143
46074SOL    HW145080   9.981   6.728   7.838  0.0212 -1.9993  2.2137
46074SOL    HW245081  10.112   6.652   7.836  0.5354 -1.1967 -1.5496
46075SOL     OW45082   3.759   3.305   8.084 -0.8164  0.5565  0.2715
46075SOL    HW145083   3.738   3.332   8.174  0.3349  0.4560  0.5826
46075SOL    HW245084   3.768   3.210   8.090  0.5341  0.6818  0.3246
46076SOL     OW45085  10.669   0.600  11.777 -0.4938 -0.0782  0.4467
46076SOL    HW145086  10.611   0.545  11.724  1.1855 -1.4779 -0.0418
46076SOL    HW245087  10.721   0.537  11.827 -0.2390  1.1655  1.8228
46077SOL     OW45088   6.957   9.444  10.119  0.3331  0.4407 -0.0501
46077SOL    HW145089   7.012   9.465  10.044  0.8232 -2.4785 -0.6207
46077SOL    HW245090   7.018   9.414  10.187 -0.3306 -0.2640  0.2634
46078SOL     OW45091  10.821   1.922   8.802 -0.6913  0.1472  0.3841
46078SOL    HW145092  10.844   2.011   8.829 -1.9442  0.4936  0.3501
46078SOL    HW245093  10.876   1.905   8.725 -0.2307  0.7741  0.5718
46079SOL     OW45094   0.141  12.202   4.009  0.4183 -0.0789 -0.3186
46079SOL    HW145095   0.067  12.233   4.061 -0.2251  0.2305 -1.3851
46079SOL    HW245096   0.184  12.138   4.066 -1.5081 -1.3441 -0.1689
46080SOL     OW45097   8.327  10.132   3.099  0.2216 -0.0609 -0.0430
46080SOL    HW145098   8.295  10.149   3.011  1.1121  0.8092 -0.2109
46080SOL    HW245099   8.279  10.194   3.155 -0.4871 -0.7443  0.1375
46081SOL     OW45100   2.973  10.208   5.145  0.1024 -0.2205 -0.2420
46081SOL    HW145101   2.943  10.119   5.166  0.5834 -0.7177 -1.5933
46081SOL    HW245102   2.898  10.264   5.167  0.1765 -0.8002  1.6896
46082SOL     OW45103   3.439   7.929   3.184  0.0199 -0.3331  0.2371
46082SOL    HW145104   3.449   7.841   3.221 -0.9233 -0.5785 -0.0503
46082SOL    HW245105   3.420   7.914   3.092  1.2105  0.2355 -0.1192
46083SOL     OW45106   3.212   2.195  12.362 -0.0637  0.0409  0.7036
46083SOL    HW145107   3.186   2.260  12.297  0.2875  1.7703  2.2199
46083SOL    HW245108   3.175   2.226  12.444  2.5126 -0.0622  2.0185
46084SOL     OW45109   7.860   5.515   2.693 -0.0207 -0.2412 -0.4162
46084SOL    HW145110   7.917   5.554   2.759 -1.0490  1.2699 -0.3559
46084SOL    HW245111   7.912   5.515   2.613  0.6027 -0.3570 -0.0110
46085SOL     OW45112  11.879   6.613  11.806  0.3978  0.1954 -0.0093
46085SOL    HW145113  11.843   6.696  11.777 -1.1682 -0.2039  0.6537
46085SOL    HW245114  11.844   6.601  11.894  0.7988 -1.0469  0.0032
46086SOL     OW45115   9.087   9.823   4.622  0.5882  0.2389  0.1711
46086SOL    HW145116   9.046   9.887   4.564  0.7985 -0.6624 -1.0119
46086SOL    HW245117   9.015   9.787   4.673 -0.0643 -0.9249 -1.4867
46087SOL     OW45118   9.154   1.907   9.674  0.0261  0.3616 -0.5676
46087SOL    HW145119   9.094   1.974   9.643 -1.9179 -1.0410 -0.0034
46087SOL    HW245120   9.164   1.847   9.600 -1.4019 -0.8048  0.1316
46088SOL     OW45121   0.420   1.997   1.559 -0.0396  0.5879 -0.6098
46088SOL    HW145122   0.419   2.087   1.526 -0.5113  0.8004 -0.0319
46088SOL    HW245123   0.332   1.983   1.594  0.4259  0.3680  0.5188
46089SOL     OW45124  10.799   8.145  10.130 -0.3743  0.4080 -0.2343
46089SOL    HW145125  10.715   8.122  10.168  0.1514 -0.2663  0.5767
46089SOL    HW245126  10.805   8.093  10.050  0.4119 -1.7203  1.1232
46090SOL     OW45127   0.753  11.897  11.194 -0.4481  0.3884 -0.4106
46090SOL    HW145128   0.704  11.822  11.228 -0.3236  0.9109  0.9785
46090SOL    HW245129   0.810  11.859  11.127 -1.2000 -0.5671 -0.5413
46091SOL     OW45130   9.926   4.441  12.455 -0.3108  0.2593  0.0137
46091SOL    HW145131   9.889   4.435  12.543  1.3292 -0.8624  0.6681
46091SOL    HW245132  10.008   4.490  12.467 -0.5194  0.9162 -1.0642
46092SOL     OW45133  12.095   9.246  11.891  0.0732 -0.3411  0.8548
46092SOL    HW145134  12.075   9.172  11.833 -0.2818 -1.0091  1.7994
46092SOL    HW245135  12.084   9.210  11.979  2.0654  0.2401  1.3828
46093SOL     OW45136   6.894   1.676   1.781  0.5970 -0.3855 -0.0281
46093SOL    HW145137   6.881   1.767   1.755 -2.6649 -0.8275 -0.3499
46093SOL    HW245138   6.962   1.679   1.848  1.8737  2.0155 -1.2950
46094SOL     OW45139   7.352   5.898   1.918 -0.1070  0.1103 -0.1858
46094SOL    HW145140   7.381   5.850   1.995  0.1292  0.0382 -0.3210
46094SOL    HW245141   7.284   5.957   1.951 -0.6242 -0.5385 -0.0796
46095SOL     OW45142   7.634   3.551   3.362  0.0330 -0.4198 -0.3669
46095SOL    HW145143   7.698   3.594   3.304 -0.6544  0.7199 -0.3078
46095SOL    HW245144   7.651   3.588   3.448  0.3580 -1.3424 -0.0182
46096SOL     OW45145   7.662  12.572   6.089  0.0523  0.3452  0.2935
46096SOL    HW145146   7.588  12.576   6.150 -0.1853 -1.5476  0.2009
46096SOL    HW245147   7.621  12.552   6.004  0.5520  0.7040 -0.0328
46097SOL     OW45148   2.647   4.913   6.612  0.2056  0.3810  0.3004
46097SOL    HW145149   2.657   4.826   6.573 -1.2711  0.4997 -0.4153
46097SOL    HW245150   2.707   4.968   6.562  0.7691 -0.1129  0.4149
46098SOL     OW45151   9.688   4.719   4.549  0.4976 -0.1020 -0.3498
46098SOL    HW145152   9.649   4.806   4.546 -2.2565 -1.2566 -1.4966
46098SOL    HW245153   9.678   4.691   4.641  0.7763  0.5063 -0.1296
46099SOL     OW45154   1.541   2.084   6.668  0.5891 -0.1370  0.4161
46099SOL    HW145155   1.473   2.097   6.735  0.5688 -0.8960  0.5522
46099SOL    HW245156   1.493   2.075   6.586  0.5834  0.2760  0.3730
46100SOL     OW45157   5.031   1.023  11.398  0.0998 -0.7995  0.3087
46100SOL    HW145158   5.054   1.035  11.306  0.7702 -2.8348  0.1684
46100SOL    HW245159   4.935   1.024  11.399  0.0654  0.9945 -0.1019
46101SOL     OW45160   9.163   0.389   6.680 -0.4842 -0.7794 -0.2679
46101SOL    HW145161   9.165   0.332   6.604  4.3928 -0.7972 -0.4050
46101SOL    HW245162   9.161   0.330   6.755 -2.2189 -0.8212 -0.2995
46102SOL     OW45163   1.495   8.278  11.104 -0.1448 -0.4678  0.9838
46102SOL    HW145164   1.546   8.313  11.031 -1.3875  1.2267  0.8675
46102SOL    HW245165   1.561   8.258  11.171  0.9379 -1.3035 -0.2814
46103SOL     OW45166   1.703   7.038  10.533  0.6238 -0.7837 -0.3206
46103SOL    HW145167   1.684   7.112  10.475  0.8777 -1.0402 -0.7321
46103SOL    HW245168   1.627   6.981  10.526  0.9584 -1.1667 -0.9625
46104SOL     OW45169  10.084  10.187   3.602  0.0070 -0.1406 -0.1405
46104SOL    HW145170  10.054  10.130   3.673  1.3830  0.0981  0.6724
46104SOL    HW245171  10.061  10.139   3.522 -1.1940 -0.6073  0.4591
46105SOL     OW45172   2.946  10.237   7.257  1.2856 -0.0269  0.2341
46105SOL    HW145173   3.032  10.204   7.282  0.8499  0.2462  2.3124
46105SOL    HW245174   2.940  10.323   7.298 -0.5238 -0.6763  1.4892
46106SOL     OW45175  11.073   7.072   2.100 -0.3704  0.4095  0.1989
46106SOL    HW145176  11.112   7.113   2.024 -0.7709  0.8549  0.2248
46106SOL    HW245177  11.140   7.077   2.168 -0.2411  0.5875  0.0582
46107SOL     OW45178   8.728  12.092   1.500 -0.3317  0.2588 -0.1802
46107SOL    HW145179   8.764  12.173   1.535  0.6950  0.6992 -2.1050
46107SOL    HW245180   8.649  12.118   1.454  0.6859  0.4276 -1.9080
46108SOL     OW45181   8.192   4.063  12.108 -0.4021  0.1781 -0.7855
46108SOL    HW145182   8.218   4.121  12.180  1.0713  1.3327 -2.1575
46108SOL    HW245183   8.267   4.064  12.049 -0.2663 -3.2644 -0.8769
46109SOL     OW45184   1.686   4.898  10.812 -0.0611  0.0035 -0.1711
46109SOL    HW145185   1.702   4.993  10.816 -1.6841  0.2769  0.5199
46109SOL    HW245186   1.648   4.877  10.897 -0.4192 -1.1297 -0.6039
46110SOL     OW45187   3.333   1.509  10.426 -0.4767  0.0392  0.2539
46110SOL    HW145188   3.293   1.437  10.377  0.5630 -0.0074 -0.5532
46110SOL    HW245189   3.405   1.539  10.371  1.1860 -0.4605  2.0240
46111SOL     OW45190  11.036   8.528   2.252 -0.2736  0.0412 -0.1026
46111SOL    HW145191  10.948   8.505   2.281  0.8016 -1.0468  2.5306
46111SOL    HW245192  11.072   8.447   2.216  0.1083  0.1472  0.0311
46112SOL     OW45193   0.569   2.544   4.101 -0.2437 -0.3030  0.4741
46112SOL    HW145194   0.636   2.523   4.036 -0.7743  1.8368 -0.8639
46112SOL    HW245195   0.617   2.576   4.177  0.3098 -0.5255  0.2224
46113SOL     OW45196   4.426   7.384   2.114 -0.1739 -0.1307 -0.0743
46113SOL    HW145197   4.337   7.393   2.146 -0.2088  0.0253 -0.2101
46113SOL    HW245198   4.431   7.296   2.077 -0.2185 -0.2038  0.0966
46114SOL     OW45199   4.699   0.102   6.183  0.1011  0.6432 -0.4062
46114SOL    HW145200   4.657   0.062   6.259  0.8709 -0.1596 -0.3811
46114SOL    HW245201   4.703   0.032   6.118  0.4380  1.0109 -0.7907
46115SOL     OW45202   9.482   4.110   2.002 -0.1595  0.5801 -0.4843
46115SOL    HW145203   9.575   4.111   1.978 -0.1397  1.6781 -0.4211
46115SOL    HW245204   9.482   4.130   2.096 -0.2982 -2.5941  0.3035
46116SOL     OW45205   9.484   6.292   2.960 -0.0301  0.2512  0.5496
46116SOL    HW145206   9.467   6.352   3.033 -0.3673  1.7057 -0.6622
46116SOL    HW245207   9.454   6.340   2.883  0.7785 -1.0363 -0.6085
46117SOL     OW45208   8.469  11.675   3.286 -0.0248 -0.1565  0.5564
46117SOL    HW145209   8.526  11.734   3.236  0.7009  0.0806  1.6449
46117SOL    HW245210   8.428  11.731   3.351  0.4504 -0.7932  1.4161
46118SOL     OW45211   3.442  10.023   8.876  0.0411 -0.2748  0.0934
46118SOL    HW145212   3.496   9.949   8.903  1.8175  0.8877 -0.1237
46118SOL    HW245213   3.496  10.071   8.813 -1.6907  0.3427 -0.9940
46119SOL     OW45214   5.046  10.426   6.581  0.2776  0.4136 -0.5903
46119SOL    HW145215   5.053  10.385   6.667 -0.2699 -0.3766 -0.9125
46119SOL    HW245216   5.126  10.398   6.535 -0.6398 -1.3377 -1.2238
46120SOL     OW45217   5.337   1.043   8.023  0.0095 -0.0165  0.4712
46120SOL    HW145218   5.423   1.030   8.063 -0.7414  0.0888  2.2153
46120SOL    HW245219   5.276   1.043   8.097 -1.4739  0.1350 -0.7028
46121SOL     OW45220  10.840   4.689   4.892 -0.3489  0.1502 -0.3415
46121SOL    HW145221  10.866   4.597   4.890  0.1083  0.2601 -2.6070
46121SOL    HW245222  10.746   4.687   4.878 -0.5771 -0.0088  1.1333
46122SOL     OW45223   5.960   5.228   7.982 -0.6681 -0.1143 -0.2433
46122SOL    HW145224   5.935   5.302   8.036  0.0313 -0.9476  1.3052
46122SOL    HW245225   5.960   5.262   7.892 -1.4665  1.4248  0.3081
46123SOL     OW45226   7.130   8.099   8.050 -0.1384  0.0067 -0.3837
46123SOL    HW145227   7.159   8.184   8.018  0.1610 -0.2993 -0.9268
46123SOL    HW245228   7.081   8.061   7.977 -3.0670  1.0289  0.8778
46124SOL     OW45229  10.614  10.199   1.665  0.5767  0.3017  0.0412
46124SOL    HW145230  10.702  10.216   1.700  0.5719  0.0857  0.1571
46124SOL    HW245231  10.608  10.104   1.661  0.1163  0.2994  0.6290
46125SOL     OW45232   8.593   4.613   6.693  0.4184 -0.2718 -0.2413
46125SOL    HW145233   8.585   4.669   6.615 -0.4155  1.0265  0.7313
46125SOL    HW245234   8.519   4.639   6.748  1.1659 -0.9526  1.1180
46126SOL     OW45235   7.708   0.617   1.522  0.4921 -0.6531  0.5809
46126SOL    HW145236   7.750   0.694   1.484  0.2296 -0.6922  0.2056
46126SOL    HW245237   7.628   0.606   1.471 -0.5981  0.1446  2.0627
46127SOL     OW45238   5.026   9.537   1.787 -0.1851  0.0209 -0.2126
46127SOL    HW145239   4.942   9.578   1.767  0.0039  0.1239 -0.8239
46127SOL    HW245240   5.019   9.511   1.879 -0.4910  0.9818  0.0478
46128SOL     OW45241   0.936   1.818  11.202 -0.0135 -0.3216  0.0881
46128SOL    HW145242   0.873   1.795  11.134 -2.9923  2.9933  1.3979
46128SOL    HW245243   0.996   1.880  11.160 -1.3001  1.0348  0.1941
46129SOL     OW45244  11.945   3.968   2.383 -0.2065 -0.3335  0.3979
46129SOL    HW145245  11.954   4.031   2.312  1.4160  0.0609  0.8915
46129SOL    HW245246  11.851   3.962   2.399 -0.4211  2.0461  0.3898
46130SOL     OW45247   0.129   5.901   6.271 -0.0850 -0.2596 -0.0882
46130SOL    HW145248   0.115   5.816   6.313 -0.3760  0.8685  2.2209
46130SOL    HW245249   0.224   5.908   6.265  0.0550  0.2337  1.9726
46131SOL     OW45250   2.633  10.758   9.457 -0.3679 -0.1457 -0.1680
46131SOL    HW145251   2.670  10.847   9.456 -1.3384  0.2643 -1.3221
46131SOL    HW245252   2.593  10.751   9.544 -2.4842  1.5395 -0.8922
46132SOL     OW45253  11.665  11.167   1.769 -0.2719  0.5643  0.1157
46132SOL    HW145254  11.752  11.205   1.760  0.2460 -0.4337  0.6713
46132SOL    HW245255  11.680  11.073   1.771 -1.3561  0.3771  0.3093
46133SOL     OW45256   3.284   7.222   9.561  0.0546  0.3616 -0.3706
46133SOL    HW145257   3.235   7.140   9.572 -0.7010  0.8644  0.0821
46133SOL    HW245258   3.271   7.269   9.644  2.7014 -0.2087  0.4951
46134SOL     OW45259   6.732   0.724   5.928 -0.5801 -0.5925 -0.1747
46134SOL    HW145260   6.709   0.681   5.846  1.5801 -1.7105 -0.2709
46134SOL    HW245261   6.803   0.784   5.904  1.2761 -2.1460  1.0275
46135SOL     OW45262   9.156   5.280   8.939 -0.5750 -0.1331  0.2752
46135SOL    HW145263   9.183   5.366   8.972 -0.6767 -0.0217  0.0702
46135SOL    HW245264   9.116   5.299   8.854 -0.2621 -0.4251  0.0599
46136SOL     OW45265   1.113   1.583  11.618  0.2757  0.0781 -0.4418
46136SOL    HW145266   1.096   1.677  11.622 -0.6499 -0.1030  0.3539
46136SOL    HW245267   1.172   1.572  11.543  0.4341  1.2888 -0.5137
46137SOL     OW45268   3.097   1.955   8.214 -0.6939  0.2416  0.2586
46137SOL    HW145269   3.157   1.956   8.288  0.6888  0.9258 -0.8321
46137SOL    HW245270   3.063   2.044   8.208 -1.1192  0.0876  0.3087
46138SOL     OW45271   9.064  11.770   9.896 -0.7543 -0.3236  0.2932
46138SOL    HW145272   9.127  11.699   9.904 -0.1298  0.0265 -1.2178
46138SOL    HW245273   8.978  11.727   9.895 -0.6013 -0.7829  2.5927
46139SOL     OW45274   6.330   7.598   5.631  0.4443 -0.8881 -0.0529
46139SOL    HW145275   6.271   7.635   5.696  0.5837 -0.8163  0.0334
46139SOL    HW245276   6.372   7.674   5.591  0.7976 -0.9534  0.1869
46140SOL     OW45277  11.040   4.234   9.880 -0.4149 -0.3540  0.2533
46140SOL    HW145278  10.967   4.231   9.943 -0.5356 -0.6598  0.1008
46140SOL    HW245279  11.058   4.328   9.868 -1.0018 -0.2638  0.0440
46141SOL     OW45280   2.124  12.052  10.404 -0.0675  0.0829  0.0704
46141SOL    HW145281   2.093  12.050  10.313  0.0843  1.3270 -0.0274
46141SOL    HW245282   2.193  11.986  10.407 -0.2202 -0.1216 -0.6650
46142SOL     OW45283   3.720   2.603   1.144  0.0257 -0.0247  0.7115
46142SOL    HW145284   3.811   2.587   1.169  0.0831  0.0134  0.5269
46142SOL    HW245285   3.711   2.698   1.146  0.6022  0.1211 -1.3831
46143SOL     OW45286   4.756   9.822   0.513  0.7804  0.1279  0.1200
46143SOL    HW145287   4.715   9.738   0.537 -0.4926  0.5463 -0.4731
46143SOL    HW245288   4.785   9.809   0.423 -0.3529  0.6322 -0.3362
46144SOL     OW45289   9.097   9.408   8.352 -0.0012  0.5452  0.0398
46144SOL    HW145290   9.015   9.415   8.303  0.2098 -1.3544 -0.6900
46144SOL    HW245291   9.157   9.469   8.309 -0.1643 -0.2686 -1.4035
46145SOL     OW45292   3.688   7.072   1.753 -0.3087 -0.0274  0.1222
46145SOL    HW145293   3.600   7.050   1.782 -0.1367  0.8346  1.3949
46145SOL    HW245294   3.677   7.154   1.705 -0.2739 -0.2090 -0.1956
46146SOL     OW45295   3.305   5.946   9.578  0.2071  0.1698  0.0628
46146SOL    HW145296   3.298   5.973   9.486  0.9391  1.0908  0.2579
46146SOL    HW245297   3.222   5.971   9.617 -0.8846 -1.9533 -0.7393
46147SOL     OW45298   4.679   1.813   5.230 -0.3925 -0.1887 -1.0190
46147SOL    HW145299   4.772   1.835   5.230 -0.6015  0.7510 -1.3488
46147SOL    HW245300   4.657   1.802   5.138 -0.5640 -0.6439 -0.9265
46148SOL     OW45301   8.638   8.751   8.881 -0.7020 -0.0188 -0.1202
46148SOL    HW145302   8.654   8.763   8.787 -0.3620 -1.4977 -0.2745
46148SOL    HW245303   8.694   8.816   8.923  1.7177 -1.4722 -0.8577
46149SOL     OW45304  10.273   4.736   4.659 -0.3013 -0.1867  0.1866
46149SOL    HW145305  10.196   4.791   4.642  0.1457  0.2797 -0.3770
46149SOL    HW245306  10.345   4.798   4.668  0.3731 -0.6915 -1.3580
46150SOL     OW45307   7.729   0.970   5.710  0.2662  0.5441  0.2814
46150SOL    HW145308   7.818   0.943   5.686  0.1116 -2.1764  2.3391
46150SOL    HW245309   7.740   1.055   5.753  1.8989  0.1479  0.7035
46151SOL     OW45310   5.301   3.597   7.701 -0.3913  0.2550  0.0182
46151SOL    HW145311   5.299   3.504   7.727  1.5327 -0.0688 -0.8377
46151SOL    HW245312   5.334   3.596   7.612 -3.1229  1.6225 -1.1184
46152SOL     OW45313  10.714   4.185  10.936 -0.3480 -0.1251 -0.4267
46152SOL    HW145314  10.734   4.269  10.978 -0.1824 -0.7025  0.6812
46152SOL    HW245315  10.705   4.207  10.843  1.0412  0.9068 -0.3600
46153SOL     OW45316   8.787   0.824   4.543 -0.2085  0.0184  0.5810
46153SOL    HW145317   8.852   0.871   4.595  0.3325 -0.5282  0.4085
46153SOL    HW245318   8.738   0.771   4.606 -0.5462  0.4926  0.7213
46154SOL     OW45319  11.747   8.416   2.647 -0.4411  0.1366  0.4067
46154SOL    HW145320  11.672   8.376   2.604 -0.7998 -0.6872  1.7588
46154SOL    HW245321  11.823   8.369   2.612 -0.6691 -0.0528  0.1622
46155SOL     OW45322   2.173   6.705   8.131 -0.0138  0.6032  0.4931
46155SOL    HW145323   2.195   6.791   8.095 -0.3490  0.4731 -0.0496
46155SOL    HW245324   2.089   6.683   8.090 -1.0301  0.9685  2.2615
46156SOL     OW45325   3.052   7.442   9.743 -0.2303  0.2191 -0.9131
46156SOL    HW145326   3.059   7.531   9.777 -0.3182 -1.0047  2.7601
46156SOL    HW245327   2.957   7.424   9.741 -0.1688 -0.6659  1.2625
46157SOL     OW45328   2.014   2.653   2.996  0.2393 -0.2099 -0.5394
46157SOL    HW145329   1.941   2.590   2.991 -0.0658 -0.1319  1.8311
46157SOL    HW245330   2.088   2.600   3.026  0.1156  0.3951  0.9361
46158SOL     OW45331   2.027   1.344  11.545 -0.6618 -0.7917  0.3386
46158SOL    HW145332   2.069   1.270  11.502  1.0480 -0.6437  1.6521
46158SOL    HW245333   2.092   1.376  11.608 -1.1648  2.0724 -0.4190
46159SOL     OW45334   4.090   1.261   3.768 -0.0111  0.1662 -0.3637
46159SOL    HW145335   4.128   1.191   3.714 -0.4734  0.1267 -0.6435
46159SOL    HW245336   4.028   1.216   3.825 -0.4109  0.3631 -0.6391
46160SOL     OW45337   5.371   9.054   4.073  0.2417 -0.3547 -0.1810
46160SOL    HW145338   5.351   8.985   4.009  1.0692 -1.7973  1.0303
46160SOL    HW245339   5.290   9.103   4.083 -1.2619 -2.8994  0.9401
46161SOL     OW45340   4.234   9.439  11.345 -0.4306  0.1900 -0.1417
46161SOL    HW145341   4.298   9.369  11.353 -1.2819 -0.7684 -1.4300
46161SOL    HW245342   4.278   9.506  11.293 -0.3746 -0.3632 -0.8209
46162SOL     OW45343   5.219   1.911   3.838  0.4811 -0.1060  0.2455
46162SOL    HW145344   5.131   1.873   3.832  0.8029 -0.8267 -0.0228
46162SOL    HW245345   5.278   1.835   3.837  1.0674  0.3012  1.4055
46163SOL     OW45346   3.138   3.803   6.691 -0.0126 -0.1448 -0.3001
46163SOL    HW145347   3.132   3.745   6.615 -1.7705  1.7774 -1.7525
46163SOL    HW245348   3.218   3.853   6.676  0.8232 -1.2623  0.3007
46164SOL     OW45349   3.956   7.965   9.303 -0.3420 -0.2295  0.1240
46164SOL    HW145350   3.912   7.881   9.287  0.2555 -0.2575 -1.5635
46164SOL    HW245351   3.891   8.031   9.280 -0.6937 -0.2052  1.1212
46165SOL     OW45352   4.883   7.545  11.762  0.1680 -0.1414  0.1546
46165SOL    HW145353   4.804   7.530  11.709  0.7014  0.4912 -0.8484
46165SOL    HW245354   4.850   7.585  11.842 -0.5208  0.4646 -0.4060
46166SOL     OW45355  10.947   9.987  11.852  0.5717 -0.1590  0.3956
46166SOL    HW145356  10.891  10.057  11.818  0.4091  0.5002  1.9288
46166SOL    HW245357  10.914   9.971  11.941  0.6836 -2.1231  0.1183
46167SOL     OW45358  10.239  12.063   3.473  0.3577  0.1089 -0.3751
46167SOL    HW145359  10.320  12.037   3.516  0.5067 -1.0005 -1.2899
46167SOL    HW245360  10.174  12.001   3.505  0.0644  0.4415 -0.3248
46168SOL     OW45361   0.747   3.594   9.279  0.0542 -0.0047  0.2588
46168SOL    HW145362   0.709   3.507   9.273 -0.0797  0.0829 -0.2117
46168SOL    HW245363   0.673   3.650   9.304 -0.1331  0.1614 -0.6282
46169SOL     OW45364   7.254   5.893  10.826 -0.2539 -0.2983  0.3048
46169SOL    HW145365   7.309   5.934  10.759 -1.4471 -0.4281 -0.7987
46169SOL    HW245366   7.277   5.800  10.822  0.6932 -0.1185  1.0985
46170SOL     OW45367   9.366   8.425   6.387 -0.1743 -0.3104  0.4036
46170SOL    HW145368   9.441   8.420   6.328  0.7026  2.8173  1.0313
46170SOL    HW245369   9.404   8.414   6.474 -0.4017  1.1737  0.7194
46171SOL     OW45370   2.390   2.985   4.820 -0.2923 -0.2184  0.5331
46171SOL    HW145371   2.446   2.981   4.897 -0.1590 -0.0165  0.4497
46171SOL    HW245372   2.443   3.031   4.754 -0.9379  0.9676  0.7999
46172SOL     OW45373   9.224   5.785   0.023  0.1855 -0.1057  0.1776
46172SOL    HW145374   9.314   5.781   0.054  0.0234  1.1097  0.8520
46172SOL    HW245375   9.231   5.822  -0.065  0.4935 -1.9729 -0.6401
46173SOL     OW45376   6.204   7.891   4.773 -0.5496 -0.0309 -0.7117
46173SOL    HW145377   6.196   7.971   4.722  1.0866  0.4500 -0.2665
46173SOL    HW245378   6.223   7.823   4.709 -1.2563  0.0502 -1.0157
46174SOL     OW45379   1.890   8.431   3.628 -0.3149  0.1463 -0.0537
46174SOL    HW145380   1.799   8.441   3.658 -0.2182  1.3753 -0.1373
46174SOL    HW245381   1.943   8.453   3.705 -0.0786 -0.0061 -0.1733
46175SOL     OW45382   7.833   0.370   5.624  0.2590  0.0587 -0.1297
46175SOL    HW145383   7.797   0.375   5.535 -1.1754  0.4983  0.4522
46175SOL    HW245384   7.760   0.391   5.681  1.6937  2.1250  1.0986
46176SOL     OW45385   3.474   9.724   5.802 -0.3901 -0.5831  0.3393
46176SOL    HW145386   3.523   9.715   5.884 -0.5296  2.1046  0.8030
46176SOL    HW245387   3.384   9.741   5.830 -1.0757 -2.5319 -0.4775
46177SOL     OW45388   2.072   2.170   0.272 -0.7222  0.6633 -0.1969
46177SOL    HW145389   1.986   2.160   0.232  0.2065  0.5184 -2.2793
46177SOL    HW245390   2.061   2.138   0.362 -2.7138  0.2600 -0.5426
46178SOL     OW45391   1.550   9.538   8.611  0.5341  0.7771 -0.2865
46178SOL    HW145392   1.629   9.491   8.583 -0.2431 -0.1162 -1.0377
46178SOL    HW245393   1.551   9.530   8.706  0.3789 -0.9059 -0.3819
46179SOL     OW45394   6.123   7.032   2.120 -0.7034 -0.1470 -0.0384
46179SOL    HW145395   6.065   7.109   2.120  0.8617  1.0868  0.2578
46179SOL    HW245396   6.110   6.992   2.206  0.7168  1.6157  1.0593
46180SOL     OW45397   4.647   6.410   0.423 -0.3338 -0.3347  0.2863
46180SOL    HW145398   4.723   6.461   0.398  0.4574 -1.7292 -0.2404
46180SOL    HW245399   4.576   6.442   0.367  0.4611 -0.7060 -0.9443
46181SOL     OW45400   3.583   2.379   9.774  0.1046  0.6009 -0.6683
46181SOL    HW145401   3.593   2.324   9.852 -0.8757 -0.0470 -0.9759
46181SOL    HW245402   3.489   2.374   9.754  0.5757 -0.6425 -2.8838
46182SOL     OW45403   5.385   0.790   7.450 -0.1327 -0.3383  0.4472
46182SOL    HW145404   5.339   0.806   7.368  1.1106 -0.5548 -0.3180
46182SOL    HW245405   5.369   0.697   7.469  0.3207 -0.5278 -0.0506
46183SOL     OW45406   8.626   5.517   8.932  0.6383 -0.4133  0.0228
46183SOL    HW145407   8.697   5.561   8.980  1.3882 -1.4077 -0.1462
46183SOL    HW245408   8.559   5.501   8.999  0.6653  0.3085  0.2382
46184SOL     OW45409  12.189   0.444  10.070  0.3787  0.5300  0.1038
46184SOL    HW145410  12.165   0.363  10.025 -0.2454  1.1628 -0.7401
46184SOL    HW245411  12.281   0.432  10.093  0.3518 -0.3343 -0.1911
46185SOL     OW45412  10.295  10.299   3.379 -0.3158 -0.1675 -0.2994
46185SOL    HW145413  10.286  10.370   3.443  0.6365 -1.1018  0.8972
46185SOL    HW245414  10.213  10.302   3.329 -0.4366  1.5407 -0.0471
46186SOL     OW45415   1.031   0.627   2.293  0.9066 -0.3293 -0.2355
46186SOL    HW145416   1.049   0.561   2.226  1.8538  2.0271 -2.4737
46186SOL    HW245417   1.013   0.706   2.244 -1.4568  0.8642  2.3141
46187SOL     OW45418   5.942  11.333   0.220  0.5066  0.2167  0.0246
46187SOL    HW145419   5.980  11.419   0.206 -1.6708  1.2278 -0.1001
46187SOL    HW245420   5.995  11.274   0.166  1.1052  1.7062 -1.0908
46188SOL     OW45421   4.564   6.541   7.509 -0.4257  0.0222  0.5266
46188SOL    HW145422   4.649   6.582   7.524 -1.3430  1.4828  1.9707
46188SOL    HW245423   4.509   6.611   7.476 -0.8812 -1.1193 -1.2608
46189SOL     OW45424   2.529   0.431   8.329  0.1080  0.1903  0.1471
46189SOL    HW145425   2.615   0.414   8.291 -0.4107 -0.5793 -0.7090
46189SOL    HW245426   2.475   0.458   8.254 -0.2153  1.3894  0.7882
46190SOL     OW45427  11.687   4.902   6.811  0.4676 -0.0695  0.1777
46190SOL    HW145428  11.753   4.965   6.841  1.3900 -0.4736 -0.9655
46190SOL    HW245429  11.651   4.941   6.732 -1.2904  0.5402  1.2318
46191SOL     OW45430   9.605   1.852   7.647  0.4447  0.5904 -0.3258
46191SOL    HW145431   9.545   1.924   7.669 -0.4155  0.1502 -1.1609
46191SOL    HW245432   9.692   1.888   7.663 -0.0162  0.4361  3.4424
46192SOL     OW45433  10.917   4.556   5.370  0.7967 -0.4286 -0.3946
46192SOL    HW145434  10.975   4.623   5.336 -0.7880  1.0526 -0.2924
46192SOL    HW245435  10.874   4.519   5.293 -1.2345  1.4656 -0.2477
46193SOL     OW45436   2.081   5.323   0.280  0.1981 -0.3323 -0.2776
46193SOL    HW145437   2.052   5.357   0.195  1.3676 -2.2551 -1.5373
46193SOL    HW245438   2.006   5.273   0.312  0.0903 -0.4544 -0.7047
46194SOL     OW45439   7.691   9.111   5.760  0.2494 -0.4817  0.3139
46194SOL    HW145440   7.640   9.110   5.679 -2.2034  3.0765  1.5579
46194SOL    HW245441   7.775   9.149   5.736  0.7190 -2.2372 -0.9911
46195SOL     OW45442   9.425  12.212  10.607 -0.3077  0.2205  0.6926
46195SOL    HW145443   9.387  12.295  10.580  0.5606 -0.1183 -1.8299
46195SOL    HW245444   9.352  12.150  10.607 -0.4702  0.4107 -0.1457
46196SOL     OW45445   9.347  11.088   4.683  0.1265  0.4446  0.6739
46196SOL    HW145446   9.393  11.027   4.626 -0.3874 -0.1259  0.8582
46196SOL    HW245447   9.329  11.164   4.628  0.4388  0.2754  0.3370
46197SOL     OW45448   7.416   5.098   2.273 -0.6622  0.3212  0.2932
46197SOL    HW145449   7.348   5.033   2.291 -1.1593  0.3080 -1.5106
46197SOL    HW245450   7.438   5.085   2.181  1.4537  0.6488  0.6938
46198SOL     OW45451   0.636   1.106   4.799 -0.3840 -0.3865 -0.0524
46198SOL    HW145452   0.679   1.034   4.846 -1.8729 -0.7384  0.8240
46198SOL    HW245453   0.549   1.110   4.836 -1.6936 -0.7089 -2.8119
46199SOL     OW45454   2.679  12.150   8.910 -0.0100 -0.5928  0.4717
46199SOL    HW145455   2.773  12.156   8.928 -0.1988 -2.7749  2.7550
46199SOL    HW245456   2.674  12.109   8.823  1.0334  2.3082 -1.0933
46200SOL     OW45457  10.772   3.636  10.737  0.3678  0.0316  0.2344
46200SOL    HW145458  10.737   3.718  10.702 -1.3251 -0.0969  1.5352
46200SOL    HW245459  10.867   3.644  10.724  0.1205  1.5145 -1.0541
46201SOL     OW45460   2.015   1.067  10.996  0.4761  0.4820  0.1650
46201SOL    HW145461   1.984   0.982  11.029 -0.3319  0.2273 -1.1703
46201SOL    HW245462   2.057   1.108  11.071 -1.2322 -0.0897  1.4877
46202SOL     OW45463   6.706   0.776   4.330  0.2294 -0.3914 -0.2224
46202SOL    HW145464   6.801   0.772   4.318  0.0738 -1.0736 -1.3552
46202SOL    HW245465   6.682   0.690   4.365  0.1798  0.2336  1.3137
46203SOL     OW45466   5.858   1.714   7.519 -0.2537  0.3090 -0.3155
46203SOL    HW145467   5.812   1.677   7.443  0.1201 -0.0222 -0.3817
46203SOL    HW245468   5.903   1.639   7.558  1.9188  0.9603 -1.4280
46204SOL     OW45469   5.937   7.104   1.320 -0.2497  0.3542  0.1174
46204SOL    HW145470   5.955   7.028   1.265  1.4643  0.6674  0.1867
46204SOL    HW245471   5.864   7.148   1.277 -0.6907 -0.8465 -0.4046
46205SOL     OW45472   1.745   2.912   9.973 -0.0278 -0.1042  0.3322
46205SOL    HW145473   1.812   2.962   9.927  0.4448  0.2943  1.4290
46205SOL    HW245474   1.662   2.956   9.950  0.3321  0.8885  0.9062
46206SOL     OW45475   4.270   3.103   1.443 -0.5560  0.3500 -0.6120
46206SOL    HW145476   4.296   3.084   1.533 -2.5497 -1.5522 -0.3581
46206SOL    HW245477   4.271   3.199   1.437 -0.7987  0.5208  1.5445
46207SOL     OW45478  12.335   9.631   4.670 -0.3522  0.2769  0.6070
46207SOL    HW145479  12.349   9.537   4.672  0.6512  0.3541 -1.0093
46207SOL    HW245480  12.422   9.668   4.687 -0.4115  0.8710 -0.3044
46208SOL     OW45481   3.379  10.527   4.626  0.7053 -0.0897  0.2622
46208SOL    HW145482   3.379  10.585   4.702  1.4015 -1.2711  1.2137
46208SOL    HW245483   3.291  10.488   4.627 -0.4751  2.2832 -1.5246
46209SOL     OW45484   9.339   3.946   0.863 -0.2081  0.8823  0.3145
46209SOL    HW145485   9.381   3.928   0.948  1.1568  1.0845 -0.2846
46209SOL    HW245486   9.261   3.996   0.886 -1.4172 -1.4274  1.6406
46210SOL     OW45487   2.854   9.962  10.084 -0.2767  0.1244 -0.6364
46210SOL    HW145488   2.810  10.008  10.012  2.1192  0.9169 -1.7192
46210SOL    HW245489   2.833   9.870  10.070 -2.4020  0.5439 -0.4458
46211SOL     OW45490   6.782   3.153  10.298  0.2090  0.1180  0.1475
46211SOL    HW145491   6.732   3.231  10.322  0.2986  0.2931 -0.2328
46211SOL    HW245492   6.800   3.110  10.381  1.9625  1.5729  0.5641
46212SOL     OW45493   5.561  10.708   0.330 -0.0329  0.4800  0.0993
46212SOL    HW145494   5.642  10.756   0.351  0.2256  0.0338  0.1240
46212SOL    HW245495   5.543  10.732   0.239 -1.3889  2.7539  0.8719
46213SOL     OW45496   3.591   2.254   1.355  0.2867 -0.0169  0.4325
46213SOL    HW145497   3.543   2.186   1.402  0.9979 -0.1845  0.9409
46213SOL    HW245498   3.530   2.327   1.350  0.1746 -0.0023  1.6254
46214SOL     OW45499   4.366   5.341   3.094 -0.0482  0.4159  0.1626
46214SOL    HW145500   4.363   5.271   3.159  0.2427 -0.7547 -1.0565
46214SOL    HW245501   4.396   5.418   3.143 -2.8154  0.3969  2.1025
46215SOL     OW45502   8.007  11.842   6.204  0.2316  0.3876 -0.3922
46215SOL    HW145503   8.045  11.904   6.141  1.1156 -1.0139 -1.2896
46215SOL    HW245504   7.934  11.802   6.157  0.3763 -0.0652 -0.2413
46216SOL     OW45505  10.700  11.356  10.848  0.0566  0.1341  0.1585
46216SOL    HW145506  10.763  11.306  10.797  0.1443 -1.0739  1.4048
46216SOL    HW245507  10.629  11.295  10.866  0.3202  0.3181  1.9860
46217SOL     OW45508   3.661   5.561  10.614 -0.2130  0.2218 -0.3817
46217SOL    HW145509   3.720   5.636  10.612  1.3849 -0.9950 -0.5291
46217SOL    HW245510   3.697   5.500  10.549 -1.3533 -0.7678 -0.1203
46218SOL     OW45511   3.028   5.275   0.050  0.1365 -0.5942 -0.2015
46218SOL    HW145512   3.007   5.185   0.073 -1.1072  0.3059  2.7804
46218SOL    HW245513   2.949   5.308   0.007  0.0990 -0.5878 -0.1278
46219SOL     OW45514   2.913   6.895   1.510  0.2141  0.1566  0.0113
46219SOL    HW145515   2.918   6.858   1.422 -1.3769  0.0005 -0.0437
46219SOL    HW245516   2.827   6.869   1.542  0.5692  0.6374  1.4353
46220SOL     OW45517   0.492   2.607   4.454  0.1954 -0.1398  0.7301
46220SOL    HW145518   0.576   2.609   4.408  0.1878 -0.0379  0.7195
46220SOL    HW245519   0.433   2.658   4.398 -0.1834 -1.2045  0.1432
46221SOL     OW45520  11.258   4.882   6.703  0.0731 -0.3147  0.1230
46221SOL    HW145521  11.320   4.949   6.676 -0.0040 -0.3750 -0.2097
46221SOL    HW245522  11.307   4.827   6.764 -0.2279  0.7513  1.3604
46222SOL     OW45523   9.037   7.352   9.825  0.1964 -0.2750  0.3849
46222SOL    HW145524   9.108   7.317   9.771  1.7875  1.1445  1.4547
46222SOL    HW245525   9.007   7.430   9.778  0.7956  0.3034  0.9345
46223SOL     OW45526  11.738   8.314   1.737 -0.3006 -0.6333  0.7138
46223SOL    HW145527  11.738   8.249   1.667  0.7035  0.3228 -0.2151
46223SOL    HW245528  11.727   8.398   1.692 -0.2122 -0.0412  1.7582
46224SOL     OW45529   3.213  12.080  10.792 -0.0017  0.0124  0.0181
46224SOL    HW145530   3.308  12.070  10.784 -0.0156 -1.3767  1.0954
46224SOL    HW245531   3.202  12.139  10.867 -0.0001  0.4558 -0.3244
46225SOL     OW45532   0.268   4.736  10.955  0.2852  0.0512 -0.3862
46225SOL    HW145533   0.291   4.724  10.862  2.3067 -1.0305  0.1844
46225SOL    HW245534   0.204   4.666  10.973 -1.6813  1.4989 -1.3922
46226SOL     OW45535  11.295   8.610   8.732 -0.4074 -0.4008  0.2445
46226SOL    HW145536  11.322   8.552   8.661  2.6656  0.4509  0.5600
46226SOL    HW245537  11.375   8.625   8.783 -1.8712  1.2664  2.2552
46227SOL     OW45538   7.651  11.041   8.751  0.2739  0.0184 -0.1536
46227SOL    HW145539   7.640  10.964   8.694  2.1658 -0.0306 -0.5263
46227SOL    HW245540   7.562  11.067   8.774 -0.5595 -0.3471 -2.6479
46228SOL     OW45541  12.383   4.774  10.357 -0.3060  0.4059  0.5369
46228SOL    HW145542  12.300   4.732  10.334  0.9285 -0.8445 -2.1017
46228SOL    HW245543  12.372   4.866  10.332 -0.7797  0.1701 -0.1309
46229SOL     OW45544   1.699   5.166  10.841 -0.4702  0.2877  0.5827
46229SOL    HW145545   1.680   5.204  10.755 -0.0068 -2.0065 -0.6194
46229SOL    HW245546   1.754   5.231  10.884 -1.7359  2.0584 -0.3264
46230SOL     OW45547   8.802   1.379   2.417 -0.5254  0.1706 -0.3773
46230SOL    HW145548   8.805   1.391   2.512  2.3611  1.3527 -0.4936
46230SOL    HW245549   8.737   1.311   2.403  0.0960 -1.2165  2.6086
46231SOL     OW45550   7.214   3.355   6.432  0.4191 -0.1071  0.0695
46231SOL    HW145551   7.206   3.433   6.377  1.4656 -1.2355 -1.8016
46231SOL    HW245552   7.176   3.381   6.516 -0.9567  1.8268 -1.0518
46232SOL     OW45553   4.005   9.634  11.975 -0.1195 -0.3780 -0.3112
46232SOL    HW145554   4.003   9.579  11.897 -1.1018 -0.5943 -0.1496
46232SOL    HW245555   3.913   9.646  11.998  0.1283 -2.9185  2.5980
46233SOL     OW45556  11.416   9.945   2.498  0.2709  0.3175 -0.5659
46233SOL    HW145557  11.493   9.896   2.527  0.2107  1.3627  1.4861
46233SOL    HW245558  11.402  10.011   2.566 -2.8627 -0.2606 -0.5326
46234SOL     OW45559   5.583   4.152   6.209 -0.3292 -0.4252 -0.3161
46234SOL    HW145560   5.665   4.112   6.183  1.5773  3.2274 -0.5347
46234SOL    HW245561   5.596   4.176   6.301 -1.4662 -0.4399 -0.1345
46235SOL     OW45562   5.378   6.943   4.132 -0.3812 -0.0775 -0.2306
46235SOL    HW145563   5.285   6.925   4.118 -0.5598  0.1849  0.5681
46235SOL    HW245564   5.380   7.021   4.187  0.3229  0.2159 -0.6525
46236SOL     OW45565   5.112   5.046  10.935 -0.1293 -0.4102  0.2886
46236SOL    HW145566   5.095   5.124  10.882  1.0608  2.5404  3.7970
46236SOL    HW245567   5.025   5.017  10.965 -0.5143  0.6151  0.2055
46237SOL     OW45568  11.952   9.193   7.494  0.3009  0.2687  0.2075
46237SOL    HW145569  11.937   9.226   7.405  1.1887 -2.5539 -1.1162
46237SOL    HW245570  11.872   9.144   7.515  0.9890 -1.0172 -0.0567
46238SOL     OW45571  10.131   9.317  12.481 -0.7613  0.2389  0.1253
46238SOL    HW145572  10.210   9.362  12.509  0.2039 -1.3521  0.0636
46238SOL    HW245573  10.161   9.231  12.452 -2.3645  0.0192 -1.0364
46239SOL     OW45574   0.519   4.120   4.891 -0.0253 -0.1681 -0.4591
46239SOL    HW145575   0.563   4.072   4.962 -0.6115 -0.1067 -0.0500
46239SOL    HW245576   0.506   4.208   4.926 -0.5834 -0.2201 -0.5292
46240SOL     OW45577   5.499  11.759   8.257 -0.2485 -0.1377  0.4384
46240SOL    HW145578   5.475  11.669   8.282 -0.3508 -0.5921 -1.2194
46240SOL    HW245579   5.594  11.756   8.245 -0.4518 -0.4705 -1.2592
46241SOL     OW45580   6.572   8.343   9.792  0.1434 -0.3337  0.1701
46241SOL    HW145581   6.581   8.248   9.801 -0.0471 -0.2796  1.0164
46241SOL    HW245582   6.512   8.368   9.862 -2.2389  0.0419 -1.8646
46242SOL     OW45583   9.601   9.987   1.094 -0.1406  0.2457  0.2179
46242SOL    HW145584   9.628  10.078   1.091  1.9680 -0.2339  1.7235
46242SOL    HW245585   9.508   9.989   1.115 -0.7492  2.0163 -2.2700
46243SOL     OW45586   4.529  10.952   9.339 -0.2785  0.2380 -0.5373
46243SOL    HW145587   4.550  10.888   9.407  0.3568 -0.4527 -1.3665
46243SOL    HW245588   4.492  10.900   9.268  1.8120  0.5396 -1.9020
46244SOL     OW45589   1.361   0.604   4.798  0.5359  0.1629  0.0396
46244SOL    HW145590   1.275   0.568   4.818  0.5848 -0.0895 -0.2082
46244SOL    HW245591   1.359   0.692   4.837  0.6399 -0.3175  1.1853
46245SOL     OW45592  10.205   9.915   6.475 -0.2251 -0.4220 -0.3381
46245SOL    HW145593  10.136   9.912   6.408 -0.4495 -1.9892 -0.0614
46245SOL    HW245594  10.249   9.999   6.460  0.3141 -1.1136 -3.0385
46246SOL     OW45595   3.476   2.419   1.634 -0.6225  0.4680 -0.2089
46246SOL    HW145596   3.459   2.492   1.694 -2.1971  0.2143 -0.3155
46246SOL    HW245597   3.490   2.344   1.691 -0.3053  0.5795 -0.1343
46247SOL     OW45598   0.492   1.674   4.691  0.5623 -0.0288 -0.0827
46247SOL    HW145599   0.545   1.674   4.611 -0.8453  0.5421 -1.0577
46247SOL    HW245600   0.453   1.586   4.693 -2.5942  1.1391 -2.3232
46248SOL     OW45601   1.291  11.907  12.015 -0.2666 -0.1074  0.3138
46248SOL    HW145602   1.329  11.985  12.054  0.1474 -0.3348  0.3689
46248SOL    HW245603   1.301  11.920  11.921  0.0832 -0.2336  0.3328
46249SOL     OW45604   4.451   6.974   1.352  0.0806  0.0786 -0.1950
46249SOL    HW145605   4.451   6.955   1.259  1.8682  0.9390 -0.4036
46249SOL    HW245606   4.541   7.000   1.372 -0.2975  0.0904  1.7337
46250SOL     OW45607   2.105   5.218   0.786  0.2302  0.2278 -0.3737
46250SOL    HW145608   2.163   5.262   0.847  1.7694 -2.1578  0.0510
46250SOL    HW245609   2.106   5.272   0.707  2.6310  0.5829 -0.1621
46251SOL     OW45610   2.041   3.761   8.014 -0.5834  0.4373 -0.1361
46251SOL    HW145611   2.063   3.681   7.967 -2.1831  0.0545 -0.2917
46251SOL    HW245612   1.950   3.780   7.988 -1.4212  0.3970  2.4990
46252SOL     OW45613   6.134   7.984   2.961 -0.1914 -0.2142  0.4002
46252SOL    HW145614   6.104   8.053   2.902  1.0347  0.0746  0.0977
46252SOL    HW245615   6.147   7.908   2.905  3.0132  0.6253 -0.1695
46253SOL     OW45616   7.763  10.251   4.052 -0.0005  0.4232  0.1603
46253SOL    HW145617   7.777  10.156   4.051  1.5424  0.5429 -2.9133
46253SOL    HW245618   7.826  10.284   4.115  0.8233 -0.4758 -0.1710
46254SOL     OW45619  12.394   2.621  11.689 -0.0926 -0.6953 -0.3898
46254SOL    HW145620  12.452   2.571  11.632  0.0369 -0.4460 -0.4750
46254SOL    HW245621  12.393   2.709  11.652 -0.1436 -0.5757 -0.1073
46255SOL     OW45622   0.523   0.280   3.640 -0.7552 -0.3808 -1.1441
46255SOL    HW145623   0.591   0.343   3.666 -0.8427 -0.3147 -1.0785
46255SOL    HW245624   0.527   0.280   3.544  1.0493 -2.2111 -1.1586
46256SOL     OW45625   2.857  10.530  10.298  0.0654 -0.4133 -0.5797
46256SOL    HW145626   2.810  10.579  10.366 -0.1858  0.8136 -1.5997
46256SOL    HW245627   2.924  10.482  10.346 -1.4784 -1.3061  0.7883
46257SOL     OW45628   9.051   8.852   0.235  0.5481  0.2902 -0.0491
46257SOL    HW145629   9.063   8.765   0.198  0.4465  0.1104  0.3362
46257SOL    HW245630   9.059   8.839   0.329 -0.1431  0.5847  0.0534
46258SOL     OW45631   0.627   0.695   4.032 -0.0954 -0.2977 -0.4762
46258SOL    HW145632   0.544   0.675   4.075  0.6816 -2.5124  0.1148
46258SOL    HW245633   0.693   0.651   4.085  1.7376  2.8718  0.1166
46259SOL     OW45634   7.301   8.703   1.451  0.3278  0.0941  0.1909
46259SOL    HW145635   7.323   8.701   1.358  0.3997  0.3496  0.2020
46259SOL    HW245636   7.377   8.666   1.495 -0.2448 -1.2934  0.0519
46260SOL     OW45637   0.314  12.265   5.145 -0.2963 -0.0684  0.0002
46260SOL    HW145638   0.383  12.201   5.129 -0.0963  0.4285 -1.2758
46260SOL    HW245639   0.233  12.215   5.137 -0.1345 -0.7800  2.0798
46261SOL     OW45640  10.313   9.919   1.226 -0.1582  0.8793  0.8074
46261SOL    HW145641  10.397   9.953   1.255  0.8194 -1.8213  1.4087
46261SOL    HW245642  10.276   9.878   1.304 -0.0676 -1.5953 -0.3722
46262SOL     OW45643   4.240   0.646   9.584  0.3441  0.0635  0.1374
46262SOL    HW145644   4.274   0.640   9.673 -1.3201 -2.1612  0.7043
46262SOL    HW245645   4.155   0.688   9.594 -0.2617 -1.0379 -0.2500
46263SOL     OW45646   6.911   4.714   6.720  0.6155 -0.2118  0.6552
46263SOL    HW145647   6.971   4.771   6.672 -2.4146  1.0752 -1.9835
46263SOL    HW245648   6.932   4.625   6.690 -0.1306  0.4265 -2.0606
46264SOL     OW45649  10.604   3.473   5.184  0.5554 -0.3964 -0.5245
46264SOL    HW145650  10.548   3.480   5.261  0.6677 -0.7785 -0.4059
46264SOL    HW245651  10.650   3.558   5.180 -1.1542  0.5398 -1.5228
46265SOL     OW45652   6.362  11.061   1.551 -0.0967  0.5155 -0.6250
46265SOL    HW145653   6.421  11.131   1.579 -1.3283  1.5841 -0.6085
46265SOL    HW245654   6.275  11.088   1.582 -0.6499 -0.9142 -0.8154
46266SOL     OW45655  10.194   9.035   1.355 -0.2660 -0.3893 -0.1352
46266SOL    HW145656  10.250   8.965   1.320  1.1431 -0.1342  1.4744
46266SOL    HW245657  10.111   9.024   1.309  0.6186 -1.7334 -1.5289
46267SOL     OW45658   7.671  12.449   8.750 -0.4485  0.3203 -1.0942
46267SOL    HW145659   7.625  12.501   8.816 -1.0339 -0.8228 -0.5866
46267SOL    HW245660   7.750  12.417   8.794  0.3291  1.3814 -1.6437
46268SOL     OW45661  11.765   0.155   1.728  0.3171 -0.0145  0.6565
46268SOL    HW145662  11.774   0.182   1.819 -0.8456 -1.0257  1.0985
46268SOL    HW245663  11.704   0.081   1.731 -0.0218  0.1619 -0.9772
46269SOL     OW45664  10.806   3.001   2.744 -0.3127 -0.5576 -0.3999
46269SOL    HW145665  10.737   3.062   2.720  1.8334  2.7788  1.1107
46269SOL    HW245666  10.793   2.984   2.837 -0.3980 -1.8260 -0.6214
46270SOL     OW45667   3.211   2.163   7.662 -0.1467 -0.2639  0.6552
46270SOL    HW145668   3.225   2.242   7.713  1.2340 -0.3632  0.4612
46270SOL    HW245669   3.210   2.193   7.571  0.7325 -0.5002  0.5601
46271SOL     OW45670   6.228  12.370   8.529  0.1965 -0.7523 -0.0238
46271SOL    HW145671   6.285  12.311   8.578  1.0336 -1.0875 -1.3192
46271SOL    HW245672   6.288  12.418   8.472 -0.6943 -0.1770 -0.4928
46272SOL     OW45673   5.049   8.138   7.888 -0.3380  0.0844 -0.1182
46272SOL    HW145674   4.995   8.210   7.919  1.0603  1.0598  0.1272
46272SOL    HW245675   5.003   8.106   7.810 -1.3969  0.6964  0.2367
46273SOL     OW45676  10.854  10.188   7.809 -0.5138  0.1233 -0.1259
46273SOL    HW145677  10.769  10.227   7.831 -1.1970 -1.2269 -0.2635
46273SOL    HW245678  10.834  10.128   7.737  0.5387 -0.3330 -0.0435
46274SOL     OW45679   2.594   8.405   4.541 -0.6267  0.3258  0.0797
46274SOL    HW145680   2.665   8.436   4.597  0.4972 -0.1639 -1.0425
46274SOL    HW245681   2.577   8.316   4.571 -1.6982  0.8775  1.2115
46275SOL     OW45682   5.389   6.334   2.387 -0.0106  0.2302  0.2062
46275SOL    HW145683   5.374   6.327   2.293  0.9022  0.3284  0.0454
46275SOL    HW245684   5.413   6.246   2.415  0.3510  0.3369  0.2322
46276SOL     OW45685   9.918   9.931   9.539  0.5326 -0.3038 -0.2544
46276SOL    HW145686   9.885   9.843   9.556  2.7948 -1.0776  0.5057
46276SOL    HW245687   9.925   9.972   9.625  3.1104 -0.8388 -0.1188
46277SOL     OW45688   9.543   0.487   1.357 -0.1735  0.2775  0.3322
46277SOL    HW145689   9.594   0.476   1.437 -3.3683 -0.6390  2.4226
46277SOL    HW245690   9.574   0.417   1.299  0.0665 -1.0965  2.0277
46278SOL     OW45691   0.725   9.469   5.110  0.6197  0.3594 -0.2385
46278SOL    HW145692   0.763   9.551   5.141  0.5389  0.9841 -1.6970
46278SOL    HW245693   0.691   9.490   5.023 -0.5917 -0.8929 -0.1046
46279SOL     OW45694   2.415  10.597   5.228 -0.1125 -0.2984  0.7645
46279SOL    HW145695   2.368  10.617   5.147 -1.8499  0.6754  1.9446
46279SOL    HW245696   2.365  10.526   5.268 -0.1554  0.2169  1.6616
46280SOL     OW45697   9.510   9.752   8.867  0.3672  0.1609  0.2480
46280SOL    HW145698   9.590   9.782   8.912  0.0738  1.5941 -0.1216
46280SOL    HW245699   9.447   9.822   8.884  0.1198  0.5397 -2.0194
46281SOL     OW45700   7.109   1.580   1.943 -0.3260  0.1071 -0.4441
46281SOL    HW145701   7.177   1.572   1.876  1.1309  3.7615  0.3802
46281SOL    HW245702   7.128   1.510   2.005  1.2692 -0.3492 -1.3964
46282SOL     OW45703   7.309   4.741   1.526  0.3109 -0.4111  0.0022
46282SOL    HW145704   7.327   4.835   1.525 -1.2977 -0.0772 -1.0760
46282SOL    HW245705   7.383   4.701   1.480  0.3004  0.4901 -0.8125
46283SOL     OW45706   8.491   3.341   4.760 -0.3825  0.2574 -0.3401
46283SOL    HW145707   8.423   3.296   4.710  0.7963 -2.8570  0.6433
46283SOL    HW245708   8.551   3.272   4.787  1.8729  2.5406  0.9206
46284SOL     OW45709  11.459  10.135   7.933  0.1387 -0.4777 -0.0934
46284SOL    HW145710  11.507  10.082   7.870  0.3269 -0.9294  0.4159
46284SOL    HW245711  11.415  10.201   7.881 -0.6265 -1.5268 -0.8138
46285SOL     OW45712   2.769   2.840   6.634  0.1068 -0.4979 -0.3289
46285SOL    HW145713   2.731   2.886   6.559 -0.3517 -1.0517 -0.4492
46285SOL    HW245714   2.806   2.760   6.596  0.4440 -0.4730 -0.0541
46286SOL     OW45715   9.138   3.225   7.179  0.2417 -0.2801  0.3444
46286SOL    HW145716   9.227   3.234   7.145  0.2882 -2.4446 -0.2439
46286SOL    HW245717   9.147   3.176   7.260 -0.5044 -1.8428 -0.4781
46287SOL     OW45718   5.285   4.492   0.371 -0.1066 -0.0072 -0.3292
46287SOL    HW145719   5.359   4.458   0.421 -0.7508  1.1826  1.5090
46287SOL    HW245720   5.293   4.449   0.286  2.9173  0.3954 -0.3532
46288SOL     OW45721   3.780   0.325  11.957  0.3560  0.4637  0.3859
46288SOL    HW145722   3.694   0.356  11.984 -0.6416 -1.9752  0.2111
46288SOL    HW245723   3.786   0.349  11.864 -0.1664  0.5775  0.3794
46289SOL     OW45724   7.995   9.099  11.828  0.2095  0.5347  0.0781
46289SOL    HW145725   8.003   9.140  11.742 -1.3278 -0.4754 -0.5846
46289SOL    HW245726   7.925   9.148  11.872  0.6935  0.7687  0.6070
46290SOL     OW45727  10.923   1.057   0.650  0.0541 -0.5531  0.7372
46290SOL    HW145728  10.880   1.142   0.651 -1.5712 -1.3045  0.0624
46290SOL    HW245729  10.920   1.027   0.741  1.5850  0.5296  1.1650
46291SOL     OW45730  12.240   1.587   1.412  0.4323 -0.0449 -0.2837
46291SOL    HW145731  12.179   1.513   1.412 -0.1725  0.4426 -0.6036
46291SOL    HW245732  12.324   1.548   1.435 -0.0905 -0.6515  0.6792
46292SOL     OW45733  12.158   3.635  10.236  0.2451  0.7815  0.2718
46292SOL    HW145734  12.096   3.708  10.239 -0.2459  0.4841 -1.6672
46292SOL    HW245735  12.105   3.558  10.258  0.2543  0.7143  0.0562
46293SOL     OW45736   0.790   4.308   8.750  0.2876 -0.1219  0.3224
46293SOL    HW145737   0.883   4.333   8.742  0.5503 -1.2891 -0.5761
46293SOL    HW245738   0.747   4.387   8.783  1.7693  0.0888  1.8883
46294SOL     OW45739   9.811   9.480  11.180 -0.0513 -0.1876 -0.3600
46294SOL    HW145740   9.891   9.508  11.136  0.0867 -0.0777 -0.0442
46294SOL    HW245741   9.763   9.431  11.114  0.3921 -0.4672 -0.4770
46295SOL     OW45742   8.983  11.842   8.326 -0.5178  0.3577 -0.1283
46295SOL    HW145743   8.971  11.830   8.420 -0.1222  0.5569 -0.0537
46295SOL    HW245744   8.991  11.753   8.291 -2.5653  0.1598 -0.2370
46296SOL     OW45745  10.865   2.755   2.563  0.4533 -0.6621 -0.4623
46296SOL    HW145746  10.862   2.668   2.603 -1.2827 -0.6109 -0.3771
46296SOL    HW245747  10.871   2.815   2.638 -1.5510 -0.6225 -0.2558
46297SOL     OW45748   1.572  12.465   4.438  0.0177  0.2181 -0.2515
46297SOL    HW145749   1.539  12.546   4.399 -2.4636 -1.1699 -1.2603
46297SOL    HW245750   1.499  12.431   4.490  0.0783 -2.5203 -1.7394
46298SOL     OW45751   4.855   1.059   0.667  0.2314  0.3017 -0.3369
46298SOL    HW145752   4.794   1.014   0.726  1.0381  1.0324  1.0960
46298SOL    HW245753   4.814   1.144   0.651  0.4428  0.4542 -0.0813
46299SOL     OW45754   0.335   9.723   7.309  0.4021 -0.1754  0.5139
46299SOL    HW145755   0.265   9.768   7.263  0.6826  0.3324  0.5727
46299SOL    HW245756   0.311   9.630   7.307 -0.3554  0.0147  0.6865
46300SOL     OW45757   7.379   6.470   8.004 -0.5162  0.1613 -0.2838
46300SOL    HW145758   7.329   6.548   7.977  0.8809  1.2960  0.2780
46300SOL    HW245759   7.398   6.425   7.921 -1.5578  0.2522 -0.5952
46301SOL     OW45760   6.728   9.106   4.100  0.3902  0.5427 -0.3433
46301SOL    HW145761   6.671   9.036   4.131 -2.7177  3.3625  0.9682
46301SOL    HW245762   6.723   9.101   4.004 -1.5199  0.2050 -0.2655
46302SOL     OW45763   6.252   9.363   9.798 -0.2225 -0.6851  0.1043
46302SOL    HW145764   6.166   9.368   9.839 -0.8562 -0.7674 -1.1467
46302SOL    HW245765   6.268   9.452   9.765 -0.8515 -1.1609 -1.5894
46303SOL     OW45766   5.450   7.540  11.515  0.2674  0.3739  0.0964
46303SOL    HW145767   5.367   7.497  11.537 -0.1054 -0.5423 -2.7521
46303SOL    HW245768   5.426   7.630  11.493  0.0337  0.1497 -0.5806
46304SOL     OW45769  10.508   9.926   7.081 -0.4756 -0.0203 -0.1013
46304SOL    HW145770  10.496   9.888   6.994  0.1229  0.5532 -0.4400
46304SOL    HW245771  10.467   9.863   7.141  0.9385 -1.4807 -0.5934
46305SOL     OW45772   3.749   5.493   8.240  0.2152 -0.2825 -0.6515
46305SOL    HW145773   3.833   5.493   8.194  1.2044  0.5387  1.0423
46305SOL    HW245774   3.749   5.576   8.289 -0.6027 -1.2238  1.0510
46306SOL     OW45775   8.851   8.511   4.587  0.0792 -0.4000  0.6837
46306SOL    HW145776   8.830   8.487   4.497 -0.3549 -2.2642  1.2207
46306SOL    HW245777   8.946   8.512   4.591  0.1206  1.1259 -0.1099
46307SOL     OW45778   6.896   5.792   2.040  0.7219  0.2394 -0.0901
46307SOL    HW145779   6.835   5.837   1.981  1.4491  2.5051  0.8021
46307SOL    HW245780   6.847   5.781   2.122  1.1329  1.0763  0.2764
46308SOL     OW45781   7.639  10.658   2.400  0.1885 -0.2746  0.4140
46308SOL    HW145782   7.574  10.644   2.330  0.5811  0.8712 -0.1971
46308SOL    HW245783   7.702  10.587   2.389  1.1924  0.8536 -1.5129
46309SOL     OW45784   8.784  10.973   7.387 -0.9406 -0.2854 -0.5803
46309SOL    HW145785   8.696  10.997   7.417 -0.7889  0.7513 -0.9102
46309SOL    HW245786   8.804  11.037   7.319 -0.1840 -0.9184 -0.9714
46310SOL     OW45787   8.086  12.269   5.149 -0.6413 -0.6636 -0.8171
46310SOL    HW145788   8.088  12.337   5.216  0.4564 -0.1259 -1.3690
46310SOL    HW245789   8.151  12.205   5.178 -3.3762 -2.8837  1.0421
46311SOL     OW45790   7.807   9.395   0.756  0.4120 -0.0207 -0.3146
46311SOL    HW145791   7.825   9.318   0.702  0.5079  1.2766 -2.2142
46311SOL    HW245792   7.892   9.436   0.769  0.0871  1.1474 -1.5609
46312SOL     OW45793   0.336   5.022  11.153  0.0686  0.5628 -0.1085
46312SOL    HW145794   0.396   5.092  11.126  2.2590 -1.0870  0.2813
46312SOL    HW245795   0.339   4.959  11.081 -2.1451  0.9202 -0.6113
46313SOL     OW45796  11.583   5.956  11.703  0.0162 -0.1257 -0.0116
46313SOL    HW145797  11.629   5.942  11.620  1.4771  0.0712  0.7283
46313SOL    HW245798  11.637   5.910  11.768 -0.0415  1.3145  1.1053
46314SOL     OW45799  11.608   5.330  12.016  0.1855 -0.0941  0.0149
46314SOL    HW145800  11.528   5.371  12.048 -0.4758  0.0362 -1.7202
46314SOL    HW245801  11.581   5.280  11.939  1.9596  0.9154 -1.3259
46315SOL     OW45802   7.354   6.472  11.383  0.2141  0.1719  0.1430
46315SOL    HW145803   7.370   6.478  11.289  2.1849 -0.5002  0.3907
46315SOL    HW245804   7.272   6.424  11.391  0.9482 -1.3730 -1.2088
46316SOL     OW45805   2.520   1.714   7.914 -0.0440 -0.1580 -0.2463
46316SOL    HW145806   2.572   1.759   7.980 -1.7691 -0.8163  1.6779
46316SOL    HW245807   2.525   1.769   7.837  0.7205  1.5083  0.9461
46317SOL     OW45808   6.151   1.680  11.804 -0.1237 -0.2384  0.4540
46317SOL    HW145809   6.066   1.663  11.844  0.2648  2.0102  2.4580
46317SOL    HW245810   6.214   1.674  11.876  1.2381 -0.3582 -0.6883
46318SOL     OW45811   4.316  11.725   3.511 -0.2074  0.5809 -0.2298
46318SOL    HW145812   4.295  11.752   3.600 -0.2872  2.2255 -0.6973
46318SOL    HW245813   4.338  11.807   3.466  0.9987 -0.3455 -1.4162
46319SOL     OW45814   8.142   2.885   6.608 -0.5515  0.1413  0.1920
46319SOL    HW145815   8.227   2.924   6.592 -0.2824  0.2194  1.7212
46319SOL    HW245816   8.081   2.940   6.558  0.0163  1.4828  0.9326
46320SOL     OW45817   5.970   8.686  11.156  0.7773 -0.1957  0.1561
46320SOL    HW145818   6.026   8.743  11.208 -0.0686  0.3340  0.5014
46320SOL    HW245819   6.026   8.658  11.083  1.4363  0.4480  0.3987
46321SOL     OW45820   1.576   5.312   5.434 -0.1998  0.2101 -0.6761
46321SOL    HW145821   1.501   5.348   5.387 -0.9892  0.0508  0.4342
46321SOL    HW245822   1.593   5.228   5.391 -1.1429 -0.0993 -0.4670
46322SOL     OW45823   6.675   2.709   2.282 -0.4523  0.2076  0.2329
46322SOL    HW145824   6.664   2.635   2.342  2.6769 -0.0207  0.7136
46322SOL    HW245825   6.660   2.786   2.337  0.3392 -0.0365  0.8092
46323SOL     OW45826   1.187   3.744   7.530  0.6798  0.0142 -0.2760
46323SOL    HW145827   1.222   3.807   7.467  1.0040  0.6042  0.4803
46323SOL    HW245828   1.257   3.734   7.595  0.4616 -0.8042 -0.1557
46324SOL     OW45829   3.079   0.503  11.706  0.7710  0.2147  0.4309
46324SOL    HW145830   3.091   0.417  11.667  0.3926  0.5427 -0.4466
46324SOL    HW245831   3.164   0.547  11.694  0.5574  0.4307 -0.3497
46325SOL     OW45832   7.630   8.468   9.314 -0.1379  0.0032  0.4062
46325SOL    HW145833   7.674   8.438   9.234  0.5059  0.4029  0.5973
46325SOL    HW245834   7.637   8.393   9.374  0.4444  0.1164  0.4898
46326SOL     OW45835   7.340   6.081  10.169  0.3856 -0.0236  0.2113
46326SOL    HW145836   7.320   5.991  10.143  0.8163 -0.0870  0.0956
46326SOL    HW245837   7.255   6.121  10.182  0.1780 -0.2418 -0.4424
46327SOL     OW45838   6.597  10.371   3.099 -0.1856  0.0807 -0.1772
46327SOL    HW145839   6.679  10.322   3.089  0.7354  1.3243  0.8576
46327SOL    HW245840   6.545  10.318   3.160 -0.2514 -0.8003 -0.9671
46328SOL     OW45841   1.490   8.440   4.537  0.2175 -0.0445 -0.0353
46328SOL    HW145842   1.422   8.493   4.578  1.2683  0.1370  1.5653
46328SOL    HW245843   1.472   8.351   4.568  1.1167  0.1196  1.0331
46329SOL     OW45844   0.118   8.011   3.052  0.5839 -0.2358 -0.1234
46329SOL    HW145845   0.111   8.105   3.068  0.1936 -0.5740  1.8910
46329SOL    HW245846   0.048   7.993   2.988  0.8107  0.8569 -0.7085
46330SOL     OW45847   0.138   3.659   7.212  0.7039 -0.2535  0.1872
46330SOL    HW145848   0.231   3.678   7.227  0.4704  1.1885 -0.0392
46330SOL    HW245849   0.101   3.742   7.182 -0.7715 -0.6689  0.7532
46331SOL     OW45850   8.971   3.788   6.748 -0.1927  0.4495 -0.0347
46331SOL    HW145851   8.984   3.707   6.699  1.3146  0.7448 -0.1422
46331SOL    HW245852   8.875   3.799   6.750 -0.4113 -1.1762 -0.2381
46332SOL     OW45853   0.983  10.246   0.531 -0.5163 -0.0010 -0.5207
46332SOL    HW145854   0.982  10.340   0.547 -0.1818  0.0566 -0.8257
46332SOL    HW245855   1.012  10.208   0.614  1.1569  0.2865 -0.9361
46333SOL     OW45856   0.393   5.995   3.172 -0.2109 -0.4570  0.2069
46333SOL    HW145857   0.438   5.984   3.088 -0.5711  1.0747 -0.2241
46333SOL    HW245858   0.371   6.088   3.175 -1.9249 -0.8605  1.1338
46334SOL     OW45859   6.825  10.098  12.050 -0.0172 -0.0335 -0.4047
46334SOL    HW145860   6.753  10.076  11.990 -0.2747  0.1044 -0.1469
46334SOL    HW245861   6.787  10.093  12.137  0.3474 -0.1848 -0.2508
46335SOL     OW45862   8.936   4.388  11.483 -0.0816  0.3827 -0.1077
46335SOL    HW145863   8.925   4.334  11.405 -0.3463  1.8918 -1.1499
46335SOL    HW245864   8.887   4.467  11.465  0.4226  1.0610  1.3224
46336SOL     OW45865   0.029  10.189   2.383  0.0319 -0.4703  0.0612
46336SOL    HW145866   0.043  10.095   2.372 -0.9567 -0.4886 -1.4747
46336SOL    HW245867   0.035  10.224   2.294 -0.0971  0.8407  0.5492
46337SOL     OW45868  11.410  10.708   9.015 -0.3643 -0.1078 -0.4815
46337SOL    HW145869  11.344  10.701   9.084 -0.6922 -0.5264 -0.8427
46337SOL    HW245870  11.486  10.747   9.060 -1.2153  1.4172 -0.3133
46338SOL     OW45871   7.294   0.334   0.395 -0.4968 -0.5655 -0.2879
46338SOL    HW145872   7.321   0.369   0.480 -1.6795  0.4733 -0.3006
46338SOL    HW245873   7.199   0.342   0.395 -0.4669  0.6102 -2.1522
46339SOL     OW45874   1.441   8.056   9.454 -0.1364  0.1531  0.5227
46339SOL    HW145875   1.370   8.120   9.448 -0.1952 -0.0042 -0.8406
46339SOL    HW245876   1.520   8.108   9.469 -0.0418  0.6907 -1.4873
46340SOL     OW45877   6.051   1.322   5.547  0.7190 -0.3004 -0.2327
46340SOL    HW145878   5.963   1.293   5.569  0.7273 -0.4726 -0.4199
46340SOL    HW245879   6.039   1.383   5.474  0.5446  1.5426  1.2667
46341SOL     OW45880   7.329   3.077   3.611  0.0316  0.5766 -0.2849
46341SOL    HW145881   7.309   3.038   3.696 -2.2602 -1.0424 -1.4596
46341SOL    HW245882   7.416   3.043   3.589  0.8232  1.3134  1.4920
46342SOL     OW45883   4.187   2.059   3.850  0.7058  0.1202 -0.4645
46342SOL    HW145884   4.113   2.015   3.892  0.9244  0.5485  0.4027
46342SOL    HW245885   4.184   2.031   3.759 -1.0878  0.8745 -0.6679
46343SOL     OW45886  10.930   6.481   7.935 -0.0049  0.3291  0.0367
46343SOL    HW145887  10.993   6.417   7.969 -0.4872 -1.5330 -2.3292
46343SOL    HW245888  10.954   6.493   7.843 -2.3790  0.4322 -0.6456
46344SOL     OW45889   8.784   2.955   2.231  0.6815  0.1425  0.0000
46344SOL    HW145890   8.870   2.998   2.229  1.0440 -0.5459 -1.4932
46344SOL    HW245891   8.760   2.947   2.138 -0.9889  0.2762  0.3942
46345SOL     OW45892   7.041   0.234   7.950  0.3235 -0.2433 -0.5714
46345SOL    HW145893   7.087   0.174   7.892  1.8368  1.2548 -0.9915
46345SOL    HW245894   7.049   0.319   7.909  1.0612  0.8104  1.5750
46346SOL     OW45895   5.945   5.644   8.467 -0.1418 -0.2987  0.3663
46346SOL    HW145896   5.893   5.677   8.540 -0.7330 -0.7678  0.1595
46346SOL    HW245897   6.020   5.601   8.509  0.5103  1.0374  0.6469
46347SOL     OW45898  10.524   2.108   5.420  0.7081  0.2734  0.0794
46347SOL    HW145899  10.547   2.085   5.510 -1.7027  0.5407  0.8437
46347SOL    HW245900  10.517   2.204   5.421  0.1187  0.2387 -0.2221
46348SOL     OW45901   2.399  11.312   3.160  0.5112 -0.8669  0.2590
46348SOL    HW145902   2.463  11.261   3.210 -0.0904  1.1678  3.3906
46348SOL    HW245903   2.436  11.401   3.158 -0.4659 -0.4613 -1.2234
46349SOL     OW45904   1.160   9.664   7.797  0.4683 -0.3853  0.6766
46349SOL    HW145905   1.112   9.592   7.758  1.5668 -1.4080  1.1498
46349SOL    HW245906   1.106   9.692   7.871 -0.8628  0.5415 -0.6084
46350SOL     OW45907   6.025  10.630   7.956  0.2308  0.9097  0.2668
46350SOL    HW145908   5.964  10.696   7.923 -0.5325 -0.8519 -2.1492
46350SOL    HW245909   5.971  10.552   7.969  1.4825  0.1169  0.9345
46351SOL     OW45910   5.911   5.383   0.569  0.0301  0.0619 -0.0442
46351SOL    HW145911   5.997   5.343   0.579  0.7576  1.6142  0.1306
46351SOL    HW245912   5.926   5.477   0.581 -1.6246  0.4031 -0.3788
46352SOL     OW45913   7.494   4.351  12.121  0.0301 -0.0545 -0.5071
46352SOL    HW145914   7.500   4.332  12.027 -2.3374 -0.0465 -0.7136
46352SOL    HW245915   7.418   4.302  12.151 -0.2778  1.2772  1.0572
46353SOL     OW45916   0.503  11.278  12.084 -0.8228 -0.1192  0.4252
46353SOL    HW145917   0.564  11.209  12.058  0.8308  2.6256 -4.1866
46353SOL    HW245918   0.419  11.252  12.045 -0.0902  0.5581 -1.7168
46354SOL     OW45919   5.508   3.735   2.513  0.0016  0.1039  0.3636
46354SOL    HW145920   5.580   3.680   2.481 -0.8586 -1.4337  0.9674
46354SOL    HW245921   5.429   3.690   2.484 -0.7653 -0.0318  2.5215
46355SOL     OW45922   0.682   7.839   7.767  0.0760 -0.0584 -0.2299
46355SOL    HW145923   0.646   7.893   7.697 -0.5049 -1.0433 -0.7114
46355SOL    HW245924   0.775   7.831   7.746  0.0643  0.3187 -0.4344
46356SOL     OW45925   7.455   9.221  12.215  0.0504 -0.1629  0.4099
46356SOL    HW145926   7.438   9.178  12.298  0.9145  0.6813  1.0475
46356SOL    HW245927   7.542   9.191  12.189 -0.9329 -1.8948 -1.1766
46357SOL     OW45928   6.449   3.747   3.186  0.3840  0.6749 -0.8056
46357SOL    HW145929   6.503   3.734   3.108  0.0022  0.5333 -1.0520
46357SOL    HW245930   6.371   3.694   3.169  0.9599 -0.5923  0.3515
46358SOL     OW45931   9.278   6.069  11.656 -0.7082 -0.1712  0.9504
46358SOL    HW145932   9.334   6.136  11.694 -0.8366  1.5740 -1.6673
46358SOL    HW245933   9.338   6.008  11.614 -0.6725  0.4614  0.0600
46359SOL     OW45934   8.618   0.155   0.289 -0.5189  0.6455 -0.7920
46359SOL    HW145935   8.670   0.222   0.244  1.4688  0.6069  1.2370
46359SOL    HW245936   8.583   0.201   0.365  0.1421 -0.3561  0.1503
46360SOL     OW45937   6.477  11.546   4.380  0.1952  0.4433  0.2655
46360SOL    HW145938   6.489  11.454   4.403 -1.3666 -0.4169 -1.9922
46360SOL    HW245939   6.475  11.592   4.464  2.4808 -1.3139  1.4054
46361SOL     OW45940   6.838   5.472  12.493  0.7927 -0.0675 -0.3332
46361SOL    HW145941   6.828   5.567  12.498 -0.7125 -0.2477  0.9037
46361SOL    HW245942   6.788   5.446  12.416 -0.5515 -0.0372  0.5080
46362SOL     OW45943   3.849  12.518   2.953 -0.4924 -0.1458 -0.1468
46362SOL    HW145944   3.892  12.531   3.038 -0.6740 -1.3076  0.1384
46362SOL    HW245945   3.883  12.589   2.898 -0.2489  0.5296  0.8411
46363SOL     OW45946   5.503  10.137   1.650  0.4901  0.1368  0.3940
46363SOL    HW145947   5.591  10.100   1.645  0.0290 -1.5918  3.3218
46363SOL    HW245948   5.452  10.075   1.702 -2.2706  1.5262 -0.4134
46364SOL     OW45949   3.079   1.871   5.437 -0.4120 -0.1901 -0.0167
46364SOL    HW145950   3.094   1.959   5.472 -0.2792 -0.3601  0.3534
46364SOL    HW245951   3.005   1.881   5.377 -0.2050  0.2330 -0.2071
46365SOL     OW45952   8.974   7.946   4.516 -0.6381  0.2564 -0.1598
46365SOL    HW145953   8.900   7.898   4.553 -1.6356  1.2672 -0.7561
46365SOL    HW245954   8.955   8.038   4.536  0.6547  0.5014  0.0000
46366SOL     OW45955   4.419   0.688  10.686 -0.0936 -0.0049 -0.3336
46366SOL    HW145956   4.476   0.696  10.610  1.2423  0.1276  0.6614
46366SOL    HW245957   4.441   0.603  10.725 -0.6219  0.0151  0.0353
46367SOL     OW45958   7.382   3.219  11.510 -0.3487  0.4849 -0.3185
46367SOL    HW145959   7.467   3.202  11.470 -0.5216 -0.7873 -0.1749
46367SOL    HW245960   7.388   3.182  11.598 -0.9194  0.7467 -0.1597
46368SOL     OW45961   0.976   9.048   5.546  0.0209 -0.4966  0.4664
46368SOL    HW145962   0.926   8.971   5.573  0.0903 -0.0685  1.9131
46368SOL    HW245963   1.020   9.077   5.626  0.0081  1.0325 -0.0506
46369SOL     OW45964   2.009   3.066   4.118 -0.0276  0.1665  0.7685
46369SOL    HW145965   2.015   3.162   4.111  0.5054 -0.0088 -2.7372
46369SOL    HW245966   1.918   3.049   4.141 -0.7594  1.5239 -0.9013
46370SOL     OW45967   1.324   2.802   8.468 -0.0779 -0.2097  0.2990
46370SOL    HW145968   1.266   2.804   8.544  2.3982 -0.5844  2.3166
46370SOL    HW245969   1.314   2.713   8.433 -0.7476 -0.2497  0.5683
46371SOL     OW45970   2.164   3.040   5.193  0.6726 -0.6414  0.0105
46371SOL    HW145971   2.091   3.028   5.254  0.2696  0.8630 -0.1466
46371SOL    HW245972   2.144   2.980   5.121 -0.8702  0.3347 -0.4280
46372SOL     OW45973   9.830   7.698   3.206 -0.1950  0.2726 -0.2869
46372SOL    HW145974   9.849   7.698   3.112 -1.2104 -2.6170 -0.5836
46372SOL    HW245975   9.875   7.622   3.241  1.4998  2.1686  1.9789
46373SOL     OW45976  12.529   4.174   3.793 -0.1134 -0.6293 -0.1417
46373SOL    HW145977  12.527   4.209   3.704  0.6387 -1.1850 -0.3874
46373SOL    HW245978  12.595   4.226   3.838  1.7758 -2.3072 -0.7965
46374SOL     OW45979   1.235   3.946  12.433  0.0884 -0.4629 -0.3420
46374SOL    HW145980   1.148   3.934  12.470  0.7658 -1.4037  1.0198
46374SOL    HW245981   1.229   3.910  12.344 -0.9935 -0.1472 -0.4080
46375SOL     OW45982   8.187   4.863  10.580  0.0145  0.3367  0.4766
46375SOL    HW145983   8.163   4.777  10.612  0.7149 -0.1452 -0.2622
46375SOL    HW245984   8.269   4.884  10.626 -0.7369  1.1254  1.5154
46376SOL     OW45985   1.225   3.968   6.122  0.7090 -0.8835  0.2033
46376SOL    HW145986   1.289   3.938   6.187 -0.4461 -1.1428  1.2453
46376SOL    HW245987   1.144   3.979   6.171  0.5725  2.0581 -0.5421
46377SOL     OW45988   7.171  11.409   9.476 -0.2929  0.0657 -0.0836
46377SOL    HW145989   7.127  11.323   9.478  1.1840 -0.7123  1.3420
46377SOL    HW245990   7.227  11.405   9.399 -0.2766 -0.2351 -0.0597
46378SOL     OW45991   4.674  10.137   3.004 -0.2123 -0.6183 -0.3340
46378SOL    HW145992   4.754  10.152   3.054  0.6326 -1.4477 -1.3956
46378SOL    HW245993   4.675  10.204   2.936 -0.1836 -0.9242 -0.6340
46379SOL     OW45994   3.941   5.128   2.216 -0.1485 -1.0128 -0.5840
46379SOL    HW145995   3.867   5.151   2.160  0.1697 -2.2148 -1.5190
46379SOL    HW245996   3.956   5.035   2.201  0.8070 -1.0614  0.4935
46380SOL     OW45997   5.070   4.853   6.267 -0.0185 -0.0066 -0.0430
46380SOL    HW145998   5.017   4.868   6.345 -0.8567  0.7452 -0.7317
46380SOL    HW245999   5.032   4.775   6.226 -2.1838  1.8144 -1.7649
46381SOL     OW46000   1.863   9.708  11.936 -0.3752 -0.2415  1.2311
46381SOL    HW146001   1.814   9.692  11.855  2.4425 -0.2069 -0.6306
46381SOL    HW246002   1.894   9.621  11.963  0.0092 -0.0766  1.3370
46382SOL     OW46003  11.107   5.571   4.834  0.0619  0.3730  0.0191
46382SOL    HW146004  11.144   5.543   4.750  1.6895  1.5963  0.2850
46382SOL    HW246005  11.109   5.666   4.831  0.1688  0.4406  1.4461
46383SOL     OW46006   6.310   3.213   9.858 -0.3326  0.1797  0.2232
46383SOL    HW146007   6.275   3.172   9.779 -1.9626  0.3612  0.8237
46383SOL    HW246008   6.377   3.273   9.826 -0.9156  0.1955 -1.0182
46384SOL     OW46009   0.312   2.714   1.760  0.5724 -0.0345 -0.1734
46384SOL    HW146010   0.297   2.791   1.814  1.0508 -0.5088  0.6496
46384SOL    HW246011   0.405   2.694   1.771  0.4141 -0.8438 -0.2262
46385SOL     OW46012   5.880   3.536   5.313  0.5936 -0.0561  0.2869
46385SOL    HW146013   5.861   3.526   5.406  0.8342  1.5935  0.5358
46385SOL    HW246014   5.915   3.451   5.287 -2.2106 -1.5594  0.9964
46386SOL     OW46015   0.828  11.165   9.650  0.9477  0.2593 -0.8793
46386SOL    HW146016   0.764  11.110   9.696  1.8101 -1.7746 -1.9535
46386SOL    HW246017   0.778  11.207   9.580  0.6270 -0.8286 -1.3258
46387SOL     OW46018   3.553   4.847   2.018 -0.7500  0.5430  0.4970
46387SOL    HW146019   3.558   4.763   2.063  1.7229  0.2810 -0.1588
46387SOL    HW246020   3.559   4.912   2.088 -0.7400  0.1687  0.8466
46388SOL     OW46021   6.641   6.647   7.901  0.4392  0.9510  0.0184
46388SOL    HW146022   6.595   6.703   7.839  0.9043  2.0433  0.6430
46388SOL    HW246023   6.698   6.593   7.846 -0.9694  0.1232 -0.7015
46389SOL     OW46024  12.250   2.606   6.223  0.8030  0.1154  0.1219
46389SOL    HW146025  12.232   2.680   6.280 -0.1961 -0.3312  0.4073
46389SOL    HW246026  12.342   2.584   6.241  0.9793  1.0071  0.3438
46390SOL     OW46027   0.921   2.909   7.989 -0.0999 -0.0563 -0.0521
46390SOL    HW146028   0.919   2.837   8.052  1.2584  0.4230  0.5728
46390SOL    HW246029   0.968   2.873   7.913  1.4079  0.4164  0.6238
46391SOL     OW46030   7.418   9.636   4.834 -0.0497 -0.6168 -0.0055
46391SOL    HW146031   7.457   9.679   4.757 -0.5201  0.2358  0.2171
46391SOL    HW246032   7.349   9.697   4.863 -0.3344 -1.2532  0.6798
46392SOL     OW46033   8.100   3.420  12.303 -0.0280 -0.8200  0.3938
46392SOL    HW146034   8.137   3.363  12.370 -1.9226  0.1831  2.3998
46392SOL    HW246035   8.005   3.417  12.317 -0.4892 -0.2782 -2.0323
46393SOL     OW46036   6.028   5.723   4.686 -0.0127 -0.0213  0.2082
46393SOL    HW146037   6.077   5.670   4.748  0.3879  1.0340  0.8313
46393SOL    HW246038   6.092   5.788   4.655 -0.3543 -0.1918 -0.8879
46394SOL     OW46039   1.189   2.998  10.784  0.0973 -0.3991 -0.1950
46394SOL    HW146040   1.236   3.066  10.736  2.7114 -1.4766  0.6523
46394SOL    HW246041   1.201   3.021  10.876 -1.8208 -0.2736  0.0630
46395SOL     OW46042   4.407   5.549   7.268  0.0306 -0.1999  0.3563
46395SOL    HW146043   4.420   5.608   7.342 -1.2821 -0.3276  0.7143
46395SOL    HW246044   4.386   5.464   7.308  0.2675 -0.5022 -0.1564
46396SOL     OW46045   4.495   3.041   2.457  0.0131  0.2185 -0.2964
46396SOL    HW146046   4.582   3.008   2.479  0.0685  1.3013  1.2663
46396SOL    HW246047   4.457   2.973   2.402  1.1729 -1.1218  0.4984
46397SOL     OW46048  10.829   7.894  12.025 -0.0339 -0.1150 -0.6330
46397SOL    HW146049  10.774   7.816  12.038 -1.1753  0.5286 -1.3754
46397SOL    HW246050  10.878   7.903  12.106 -1.9699  0.0010  0.5799
46398SOL     OW46051   8.264   7.043  11.733  0.3713 -0.3202  0.0571
46398SOL    HW146052   8.191   7.042  11.795  0.9934 -0.6570  0.7930
46398SOL    HW246053   8.248   7.121  11.678 -0.8777 -0.7500 -0.2119
46399SOL     OW46054   6.129  12.495   5.346 -0.0477 -0.0306  0.4408
46399SOL    HW146055   6.100  12.418   5.395 -0.8570 -1.0753 -1.5314
46399SOL    HW246056   6.222  12.502   5.364  0.3229 -2.2456 -0.2327
46400SOL     OW46057  12.446   8.748  11.047 -0.0831 -0.1272 -0.8221
46400SOL    HW146058  12.528   8.789  11.073 -0.4247  0.3744 -0.5056
46400SOL    HW246059  12.404   8.813  10.991 -0.6636 -0.0075 -0.2605
46401SOL     OW46060   5.388   5.160   8.953 -0.0153 -0.2678 -0.4705
46401SOL    HW146061   5.462   5.098   8.953  0.6089  0.3543  1.7413
46401SOL    HW246062   5.426   5.243   8.923  0.1409 -0.0338  0.3351
46402SOL     OW46063   5.418   7.099   2.698  0.4014 -0.0322  0.5061
46402SOL    HW146064   5.481   7.171   2.702  0.0282  0.2639  1.4447
46402SOL    HW246065   5.444   7.048   2.621 -1.3194  2.9409 -2.3075
46403SOL     OW46066   3.944   5.292   7.701 -0.5017  0.0456 -0.3573
46403SOL    HW146067   3.944   5.375   7.749  0.9203 -0.4079  0.5157
46403SOL    HW246068   4.023   5.295   7.648  0.5825 -1.4316  1.0402
46404SOL     OW46069   0.740   1.418  11.658 -0.0685 -0.0549 -0.2663
46404SOL    HW146070   0.677   1.482  11.690 -0.4121 -1.1818  1.4277
46404SOL    HW246071   0.711   1.400  11.568 -1.2584  0.5443 -0.0273
46405SOL     OW46072   1.881  11.581   5.119 -0.0892  0.2405 -0.3508
46405SOL    HW146073   1.940  11.615   5.052  0.5266 -0.6371 -0.2685
46405SOL    HW246074   1.794  11.584   5.079  0.1252  0.7249 -0.7920
46406SOL     OW46075   6.998   4.719   9.978  0.0940  0.0437  0.1998
46406SOL    HW146076   6.971   4.811   9.980  2.0467  0.7724 -1.9580
46406SOL    HW246077   7.090   4.721  10.003  0.9089 -0.8998 -2.3713
46407SOL     OW46078   8.857   7.592   5.327  0.5498 -0.1904  0.0942
46407SOL    HW146079   8.784   7.597   5.389  0.5614  2.3048  0.0267
46407SOL    HW246080   8.836   7.658   5.260  1.7540 -1.0569 -1.1949
46408SOL     OW46081   7.165  11.811   2.483 -0.0606  0.0578  0.4158
46408SOL    HW146082   7.108  11.790   2.408  0.0554 -1.6391  0.7759
46408SOL    HW246083   7.126  11.764   2.556  0.8823  0.2141  1.0284
46409SOL     OW46084   8.742  10.893  12.053 -0.1342 -0.4882  0.1433
46409SOL    HW146085   8.700  10.813  12.085  0.4747  0.1048  2.6010
46409SOL    HW246086   8.815  10.908  12.113 -0.1248  1.8161 -0.3635
46410SOL     OW46087   2.790   2.580   8.099  0.5525 -0.2528 -0.2121
46410SOL    HW146088   2.736   2.549   8.172 -0.2208 -1.5168 -1.2709
46410SOL    HW246089   2.729   2.626   8.042  1.4231  2.0251  0.5962
46411SOL     OW46090   1.875   6.816  12.207  0.2775 -0.3321  0.2381
46411SOL    HW146091   1.824   6.796  12.129  0.9186  0.9256 -0.5234
46411SOL    HW246092   1.947   6.752  12.205  0.9744  0.4669 -0.8762
46412SOL     OW46093   7.183   8.781   7.185 -0.2990 -0.5930 -0.4233
46412SOL    HW146094   7.211   8.817   7.268  1.4621  0.4018 -1.3965
46412SOL    HW246095   7.154   8.692   7.206 -0.0171 -0.3170  1.2502
46413SOL     OW46096   4.996   1.425   1.376  0.5911 -0.1878 -0.3237
46413SOL    HW146097   4.911   1.433   1.332  0.2580  1.5251  0.5432
46413SOL    HW246098   5.049   1.494   1.337  0.5234  0.8809  1.3653
46414SOL     OW46099   3.646   6.767   2.425  0.6002 -0.0009  0.2676
46414SOL    HW146100   3.594   6.813   2.491  0.0790 -1.5806  1.0212
46414SOL    HW246101   3.602   6.682   2.416  1.5534 -0.3801 -1.0155
46415SOL     OW46102   6.243   0.758   7.225 -0.3748  0.2993  0.4056
46415SOL    HW146103   6.296   0.679   7.219  0.0436  0.3126  2.7114
46415SOL    HW246104   6.276   0.815   7.155  0.8904 -0.6890  0.1565
46416SOL     OW46105   1.697  12.138   9.992  0.2517 -0.1681 -0.4460
46416SOL    HW146106   1.723  12.057  10.036  0.3339  0.8846  1.5652
46416SOL    HW246107   1.769  12.199  10.010 -0.3985  0.7267 -0.8305
46417SOL     OW46108  11.451  10.749  10.662 -0.5473  0.5111  0.0207
46417SOL    HW146109  11.524  10.811  10.659  1.1352 -1.3418 -3.5202
46417SOL    HW246110  11.385  10.786  10.603 -1.2660  0.8024  0.9907
46418SOL     OW46111   8.049  11.126   1.533 -0.8561  0.1909  0.2212
46418SOL    HW146112   7.987  11.054   1.521 -0.2815 -0.1974 -0.5270
46418SOL    HW246113   8.131  11.083   1.555 -0.7443  0.6821  0.7904
46419SOL     OW46114   6.471  11.665  11.789  0.6346  0.1861  0.1460
46419SOL    HW146115   6.504  11.689  11.703  2.1372 -0.5577  0.4926
46419SOL    HW246116   6.395  11.721  11.802  2.1891  2.5323 -0.3624
46420SOL     OW46117   1.644   4.946   1.665  0.3104  0.3897 -0.2231
46420SOL    HW146118   1.643   4.947   1.760 -0.2923 -0.6267 -0.2051
46420SOL    HW246119   1.554   4.967   1.640  0.0620 -0.9462 -0.5229
46421SOL     OW46120   4.238   8.440   6.582  0.6250  0.1730 -0.0998
46421SOL    HW146121   4.233   8.390   6.663  0.0450 -2.1149 -1.4573
46421SOL    HW246122   4.330   8.465   6.575  0.8683 -0.4488  0.7655
46422SOL     OW46123  11.617  11.579   9.929  0.1000  0.7784 -0.1523
46422SOL    HW146124  11.619  11.520  10.004 -0.2438 -0.2671 -0.9386
46422SOL    HW246125  11.709  11.597   9.910  0.1772  2.2799  1.4258
46423SOL     OW46126   9.346   3.766   8.023  0.0768  0.4152  0.1770
46423SOL    HW146127   9.436   3.737   8.037 -0.0356  0.8946  2.2363
46423SOL    HW246128   9.339   3.847   8.073 -1.9849 -0.5781  1.6411
46424SOL     OW46129  10.246   3.216   0.843 -0.4716  0.0115 -0.5238
46424SOL    HW146130  10.212   3.219   0.754  0.9313  1.2223 -1.0502
46424SOL    HW246131  10.168   3.202   0.897 -1.5439  0.7023 -1.8219
46425SOL     OW46132   2.787   6.793   5.327  0.4483  0.1446 -0.1423
46425SOL    HW146133   2.800   6.786   5.232  0.1694 -1.6424 -0.0882
46425SOL    HW246134   2.874   6.778   5.364  0.6489  1.3088 -0.1034
46426SOL     OW46135   7.019   4.115   4.603 -0.3317  0.4082 -0.0078
46426SOL    HW146136   7.026   4.067   4.685  1.3223 -1.0360 -0.9305
46426SOL    HW246137   7.075   4.191   4.614  1.1919 -0.6262 -0.3056
46427SOL     OW46138   9.391   0.338   3.957  0.2973  0.1686  0.2754
46427SOL    HW146139   9.401   0.255   4.003  0.5014 -0.0322 -0.1317
46427SOL    HW246140   9.387   0.314   3.864  1.6074  0.7160  0.0661
46428SOL     OW46141   2.203   5.081   0.500 -0.0947  0.5273 -0.5341
46428SOL    HW146142   2.247   5.162   0.525  0.9285  0.3195 -1.5756
46428SOL    HW246143   2.139   5.107   0.434  0.5908  0.4241 -1.2439
46429SOL     OW46144   0.379   4.332   5.021  0.2195 -0.7602 -0.2568
46429SOL    HW146145   0.387   4.360   4.930  1.0411 -0.9160 -0.2429
46429SOL    HW246146   0.297   4.371   5.052  1.6297  2.3194 -0.0111
46430SOL     OW46147   0.339  11.648  11.276 -0.1621  0.0833 -0.4687
46430SOL    HW146148   0.262  11.686  11.318 -0.5125 -1.9469  0.8972
46430SOL    HW246149   0.303  11.578  11.221  0.6758 -1.1179  0.4578
46431SOL     OW46150   6.179   1.290  10.608  0.4249 -0.5277 -0.1284
46431SOL    HW146151   6.210   1.245  10.686 -1.4224 -0.2116  0.8591
46431SOL    HW246152   6.211   1.380  10.618  0.3391 -0.5308  0.1789
46432SOL     OW46153  10.955   3.147   0.480  0.6135  0.4125  0.3587
46432SOL    HW146154  10.861   3.128   0.485  0.3003  1.8269  0.2283
46432SOL    HW246155  10.962   3.240   0.503  1.9382  0.4235 -0.0267
46433SOL     OW46156   1.155   7.579   2.789  0.3975 -0.1485  0.1612
46433SOL    HW146157   1.188   7.662   2.823 -0.9995  0.1542  0.8376
46433SOL    HW246158   1.225   7.516   2.807  0.8237  0.5622  1.0849
46434SOL     OW46159  11.090   6.706   6.887  0.1443 -0.6874  0.0663
46434SOL    HW146160  11.129   6.619   6.889 -2.6211 -2.0522  0.7584
46434SOL    HW246161  11.133   6.754   6.957  3.0780 -0.7466 -1.5479
46435SOL     OW46162   1.181  12.321   3.506 -0.4704  0.0870 -0.2693
46435SOL    HW146163   1.169  12.408   3.544  0.4630  0.4353 -0.7488
46435SOL    HW246164   1.274  12.317   3.483 -0.4761 -1.0797 -0.1596
46436SOL     OW46165   0.821   9.484  11.468  0.0098 -0.0657  0.0770
46436SOL    HW146166   0.898   9.429  11.451  0.2727  0.2175  0.3207
46436SOL    HW246167   0.756   9.424  11.504 -0.2674 -0.5147 -1.1423
46437SOL     OW46168   8.999   1.565   5.489 -0.2941  0.0140  0.1214
46437SOL    HW146169   9.039   1.608   5.413  1.9399 -1.4249  0.4150
46437SOL    HW246170   8.952   1.490   5.452 -1.3000  0.6912 -0.0337
46438SOL     OW46171   8.975   3.899   2.611 -0.3404  0.3458 -0.4603
46438SOL    HW146172   9.015   3.965   2.554  0.8591  0.8665  0.9036
46438SOL    HW246173   8.905   3.947   2.656 -0.8053  0.1333 -0.9559
46439SOL     OW46174   2.663   0.414   4.267  0.2864 -0.2995  0.6286
46439SOL    HW146175   2.652   0.338   4.211  0.3539  0.9717 -1.1991
46439SOL    HW246176   2.753   0.443   4.251 -0.2545  1.1068  0.0066
46440SOL     OW46177   5.432   3.476  10.067 -0.3176  0.3528 -0.0804
46440SOL    HW146178   5.353   3.520  10.098 -0.0313  0.5817  0.3312
46440SOL    HW246179   5.414   3.383  10.081 -1.2342  0.2592 -1.6822
46441SOL     OW46180   3.849   2.663  12.418 -0.3673 -0.3543 -0.1086
46441SOL    HW146181   3.892   2.748  12.411 -0.0849 -0.5738 -1.2768
46441SOL    HW246182   3.838   2.649  12.512  0.1098  0.7054  0.1154
46442SOL     OW46183   3.786  11.857   2.700 -0.3848  0.7764 -0.0186
46442SOL    HW146184   3.848  11.897   2.638  0.7304 -0.4494  0.2695
46442SOL    HW246185   3.737  11.932   2.735  0.2628  1.6856 -0.9704
46443SOL     OW46186   8.537  12.318   7.774 -0.5718 -0.3865 -0.5023
46443SOL    HW146187   8.595  12.378   7.726  0.2115  1.0468  2.0467
46443SOL    HW246188   8.504  12.259   7.707 -0.2716  2.0134 -2.9617
46444SOL     OW46189   1.444   2.318   4.900 -0.7206 -0.3322  0.3394
46444SOL    HW146190   1.440   2.223   4.886  2.4286 -0.3690 -0.9861
46444SOL    HW246191   1.413   2.330   4.989 -0.6145 -2.6849  0.7672
46445SOL     OW46192   3.075   4.836   4.155  0.6647  1.4930  0.0465
46445SOL    HW146193   3.109   4.824   4.243 -1.4183  0.5254  0.7875
46445SOL    HW246194   3.127   4.777   4.101  2.2563  2.4233  0.5035
46446SOL     OW46195   4.339   5.435  11.725 -0.5037  0.2035  0.1432
46446SOL    HW146196   4.366   5.370  11.790 -2.6059  0.3409  1.2306
46446SOL    HW246197   4.403   5.506  11.733 -0.1189 -0.2562  1.3243
46447SOL     OW46198   3.651   8.614   1.602 -0.6848  0.1008 -0.3613
46447SOL    HW146199   3.649   8.620   1.697 -0.1216 -0.1751 -0.3326
46447SOL    HW246200   3.704   8.688   1.574 -2.2250  1.1812 -0.5655
46448SOL     OW46201   7.998   2.732   7.464  0.1301 -0.0899  0.3871
46448SOL    HW146202   8.083   2.699   7.434  0.2042  0.5261 -0.1118
46448SOL    HW246203   7.967   2.666   7.526  0.8095 -0.4978  0.3047
46449SOL     OW46204   3.497   8.368   0.929 -0.0547 -0.2505  0.4168
46449SOL    HW146205   3.453   8.298   0.880  0.8064 -0.7599  0.3535
46449SOL    HW246206   3.558   8.407   0.867 -0.4024  0.4518  0.5061
46450SOL     OW46207   8.393   1.377  11.834  0.0466  0.3859  0.8176
46450SOL    HW146208   8.415   1.300  11.887 -0.0426 -0.2627 -0.0703
46450SOL    HW246209   8.325   1.422  11.885  0.4360  0.1468  1.5699
46451SOL     OW46210   6.472   6.337   1.274 -0.1153 -0.0846  0.6325
46451SOL    HW146211   6.520   6.319   1.355 -1.3509  2.9725  2.2264
46451SOL    HW246212   6.520   6.410   1.234 -1.3052  0.5783  0.3637
46452SOL     OW46213   1.569   2.426   0.957 -0.5353 -0.4064 -0.5130
46452SOL    HW146214   1.560   2.365   1.030  0.6770 -0.6899 -0.5678
46452SOL    HW246215   1.625   2.379   0.894 -0.2748  0.4358 -0.9223
46453SOL     OW46216   7.447  10.666   8.412 -0.3711 -0.5548  0.3001
46453SOL    HW146217   7.520  10.708   8.366  0.4221 -1.2001  0.9488
46453SOL    HW246218   7.486  10.591   8.457 -1.3951 -0.7874  0.8424
46454SOL     OW46219   7.778  10.315   8.268  0.0074  0.2500 -0.3857
46454SOL    HW146220   7.712  10.384   8.271 -1.3940 -1.0580  1.2816
46454SOL    HW246221   7.856  10.357   8.231 -1.2387  2.2823 -0.8475
46455SOL     OW46222   4.067   5.073   6.900 -0.8798  0.3236 -0.2014
46455SOL    HW146223   4.027   5.140   6.845  0.1641  0.9697 -0.1853
46455SOL    HW246224   3.994   5.015   6.923 -1.8546  1.5745 -0.0211
46456SOL     OW46225   5.699   4.940   1.525 -0.7911  0.2927  0.5114
46456SOL    HW146226   5.621   4.910   1.573 -1.6666 -0.7538 -1.4400
46456SOL    HW246227   5.719   4.868   1.465 -0.5027  1.9812 -1.5250
46457SOL     OW46228   2.659  10.730   9.150  0.1882 -0.0279 -0.4222
46457SOL    HW146229   2.605  10.809   9.152  0.3024  0.1786 -2.8133
46457SOL    HW246230   2.739  10.757   9.105 -0.2277 -1.7331 -2.3189
46458SOL     OW46231   7.644   4.318   1.893  0.3644  0.5062  0.0324
46458SOL    HW146232   7.620   4.280   1.809 -0.3606 -3.6037  1.8587
46458SOL    HW246233   7.740   4.324   1.890  0.3177  0.8039 -1.2100
46459SOL     OW46234   7.938   7.032   6.064  0.0101  0.6333  0.0224
46459SOL    HW146235   7.914   7.030   6.157 -0.6934  0.3225 -0.1603
46459SOL    HW246236   8.033   7.044   6.064  0.0677  0.2138  0.7884
46460SOL     OW46237   9.559   0.380  11.134  0.7976 -0.0902 -0.2172
46460SOL    HW146238   9.562   0.284  11.129  1.4206 -0.0858 -0.0512
46460SOL    HW246239   9.640   0.404  11.179  1.9971  0.6718 -2.5796
46461SOL     OW46240   2.143  12.057   2.111 -0.2882 -0.4281  0.0115
46461SOL    HW146241   2.109  12.038   2.198  1.2901  1.3453  1.0783
46461SOL    HW246242   2.104  12.141   2.087 -2.7585 -2.0500 -2.2063
46462SOL     OW46243   6.069   7.512   1.479 -0.2865 -0.3947 -0.3609
46462SOL    HW146244   6.044   7.575   1.410  0.1059 -0.2588 -0.3810
46462SOL    HW246245   5.986   7.489   1.521 -0.6809 -1.2768 -1.5528
46463SOL     OW46246   4.064   7.524   4.839  0.2608  0.5979  0.6474
46463SOL    HW146247   4.088   7.544   4.930  1.7130  0.1004  0.3905
46463SOL    HW246248   4.002   7.452   4.846  1.8714 -0.7819  1.1891
46464SOL     OW46249  11.684   7.591   9.562  0.1472  0.5896  0.0700
46464SOL    HW146250  11.596   7.567   9.533 -0.0925 -0.0230  1.2417
46464SOL    HW246251  11.743   7.536   9.510 -0.3063 -1.0099  1.1759
46465SOL     OW46252   4.641   2.988   3.027  0.2035 -0.7558 -0.3210
46465SOL    HW146253   4.652   2.919   3.093 -1.0356 -1.7237 -1.0887
46465SOL    HW246254   4.702   3.057   3.055 -0.8325 -0.7802  2.2928
46466SOL     OW46255   8.331   2.154  11.706 -0.1557 -0.2224  0.5207
46466SOL    HW146256   8.371   2.150  11.619  2.1958  2.3627  1.3306
46466SOL    HW246257   8.240   2.180  11.690 -0.5219 -2.2918 -1.2159
46467SOL     OW46258   6.554   6.801   6.715 -0.3840 -0.0391 -0.4074
46467SOL    HW146259   6.578   6.715   6.680  0.2494  0.8133 -2.1694
46467SOL    HW246260   6.506   6.781   6.795  0.4858 -2.0104 -0.3030
46468SOL     OW46261  11.323   9.129   2.409  0.5680 -0.5205 -0.1928
46468SOL    HW146262  11.244   9.147   2.460 -0.2236 -0.9511 -1.2398
46468SOL    HW246263  11.355   9.215   2.382  1.4873 -0.2185  1.6941
46469SOL     OW46264   5.978   5.409   9.799  0.3420  0.1209 -0.0506
46469SOL    HW146265   6.061   5.452   9.781  0.5311 -0.7744 -1.4360
46469SOL    HW246266   5.916   5.450   9.739  0.5385 -1.5206 -1.4468
46470SOL     OW46267   2.328   4.904   1.600  0.0016  0.1056  0.2232
46470SOL    HW146268   2.321   4.953   1.518 -0.1190 -0.6937 -0.2547
46470SOL    HW246269   2.408   4.937   1.641 -0.0841  0.7057 -0.0787
46471SOL     OW46270   0.009   3.379   7.580 -0.6229  0.3192  0.7184
46471SOL    HW146271   0.001   3.352   7.672 -1.9786  1.2696  0.9012
46471SOL    HW246272   0.098   3.414   7.573  0.2180 -1.5547  1.1467
46472SOL     OW46273   0.637   3.052   9.037  0.1539  0.6283 -0.1171
46472SOL    HW146274   0.622   3.077   8.945  0.6620 -3.0645 -1.3852
46472SOL    HW246275   0.549   3.035   9.071  0.0867  0.0134 -0.5890
46473SOL     OW46276   4.299   4.859  11.103  0.0521 -0.4723  0.2367
46473SOL    HW146277   4.352   4.891  11.176  0.3465  0.3215 -0.3077
46473SOL    HW246278   4.229   4.924  11.094 -0.6717 -1.1869  0.5540
46474SOL     OW46279   2.104  11.948  10.933  0.3572  0.4795 -0.0001
46474SOL    HW146280   2.009  11.943  10.927  0.4277  0.4738 -1.3471
46474SOL    HW246281   2.136  11.920  10.847  1.6817 -1.7422  1.1372
46475SOL     OW46282   0.264   0.033   1.630  0.0598 -0.0541  0.1111
46475SOL    HW146283   0.276  -0.007   1.543  0.7703 -0.4852  0.3966
46475SOL    HW246284   0.211   0.111   1.614 -0.5057 -0.5803 -0.5994
46476SOL     OW46285   1.365   3.925   9.749  0.3150  0.2684 -0.8618
46476SOL    HW146286   1.337   4.003   9.798 -0.5627  0.2250 -1.2764
46476SOL    HW246287   1.291   3.905   9.691  0.2501 -1.2784 -0.2848
46477SOL     OW46288   3.841   5.811   0.316  0.5101 -0.4293 -0.3756
46477SOL    HW146289   3.763   5.863   0.298  0.1473 -1.3706 -1.6911
46477SOL    HW246290   3.852   5.757   0.238  1.3275 -1.7448  0.6077
46478SOL     OW46291   2.948   0.620  10.250  0.2792 -0.1758  0.3631
46478SOL    HW146292   3.010   0.666  10.194  0.7228  0.3136  1.2307
46478SOL    HW246293   2.863   0.630  10.206  0.3527  1.5443  0.5623
46479SOL     OW46294   9.167   1.286   1.346  0.4922  0.2016  0.7548
46479SOL    HW146295   9.114   1.210   1.320 -1.0887  1.3347  0.4928
46479SOL    HW246296   9.142   1.303   1.437  2.3946 -0.7945  1.5275
46480SOL     OW46297  10.531   3.625  10.902  0.2683 -0.6126  0.3182
46480SOL    HW146298  10.451   3.585  10.866 -0.8155  0.6262  1.2797
46480SOL    HW246299  10.599   3.600  10.840 -0.6933 -2.3782 -0.1179
46481SOL     OW46300   3.796   4.318   4.056 -0.3867 -0.5172  0.3926
46481SOL    HW146301   3.815   4.279   4.141 -1.5435 -0.7802  0.5441
46481SOL    HW246302   3.739   4.392   4.075 -0.5372 -0.4909 -0.1392
46482SOL     OW46303   7.962   5.948   8.475  0.2660  0.2713 -0.9169
46482SOL    HW146304   7.899   5.967   8.544  0.4723 -2.1465  0.0205
46482SOL    HW246305   8.043   5.927   8.522  1.4198  1.8825 -2.0577
46483SOL     OW46306   2.772   4.594   1.358 -0.2922 -0.7622 -0.1486
46483SOL    HW146307   2.735   4.541   1.287 -0.2941 -0.5707 -0.2915
46483SOL    HW246308   2.818   4.665   1.313  2.0346 -2.1212 -0.0704
46484SOL     OW46309  10.699   6.487   7.350 -0.1191 -0.4785  0.5142
46484SOL    HW146310  10.628   6.427   7.372 -0.0560 -2.1951 -3.2177
46484SOL    HW246311  10.659   6.552   7.293  0.8109  0.0101  0.3911
46485SOL     OW46312   3.628   0.323   7.874  0.0308  0.2995 -0.1674
46485SOL    HW146313   3.582   0.254   7.826  0.3205 -0.0534  0.0531
46485SOL    HW246314   3.694   0.354   7.812 -0.1387  0.4197 -0.2881
46486SOL     OW46315   8.925   0.021   3.360  0.0868 -0.4322 -0.2910
46486SOL    HW146316   8.997   0.009   3.421  1.7870 -0.2893 -2.1699
46486SOL    HW246317   8.967   0.034   3.275 -2.0881  1.4104 -1.2038
46487SOL     OW46318   5.155   4.064   5.066  0.4397 -0.4365 -0.1848
46487SOL    HW146319   5.242   4.025   5.061  0.6953  0.1477 -0.2969
46487SOL    HW246320   5.117   4.050   4.979  0.6991 -0.0404 -0.3605
46488SOL     OW46321  10.773   8.738   9.276  0.5428 -0.3834  0.7705
46488SOL    HW146322  10.762   8.650   9.240  0.2568  0.3972 -1.1652
46488SOL    HW246323  10.684   8.770   9.289  0.6436 -0.2709  1.1885
46489SOL     OW46324   6.984   5.022   5.693 -0.3938  0.1235 -0.5823
46489SOL    HW146325   6.958   5.002   5.783  1.4392  0.8904  0.1632
46489SOL    HW246326   6.910   5.070   5.656 -1.1154 -0.0982  0.5519
46490SOL     OW46327   2.127   8.439   9.780 -0.3901  0.1319  0.1860
46490SOL    HW146328   2.082   8.403   9.704 -1.2549  0.1900  0.6661
46490SOL    HW246329   2.187   8.504   9.744  0.1658 -0.7713 -0.5601
46491SOL     OW46330   3.574   7.838   6.447 -0.5762 -0.3212 -0.7388
46491SOL    HW146331   3.667   7.862   6.449 -0.4586 -0.8077  0.5755
46491SOL    HW246332   3.559   7.807   6.358  0.9394 -1.7690 -0.5237
46492SOL     OW46333   4.169   7.455   2.905 -0.3720 -0.8543  0.3698
46492SOL    HW146334   4.223   7.515   2.854  0.5335 -1.0336  1.0999
46492SOL    HW246335   4.231   7.409   2.962 -1.2021 -1.6090  0.6824
46493SOL     OW46336   1.635   2.342   2.258  0.7506  0.5485 -0.0786
46493SOL    HW146337   1.607   2.424   2.300 -2.4142 -0.6347  0.4307
46493SOL    HW246338   1.580   2.336   2.179  2.1991 -0.2580 -1.0601
46494SOL     OW46339   2.138   7.557   8.457  0.3240  0.2543 -0.0766
46494SOL    HW146340   2.129   7.622   8.388 -0.7579  0.3548  0.1352
46494SOL    HW246341   2.196   7.490   8.421  1.5087  1.3624 -0.2731
46495SOL     OW46342   0.060   5.028   7.755 -0.2607 -0.6355 -0.1166
46495SOL    HW146343   0.027   4.960   7.697 -1.5998  0.0066 -0.1602
46495SOL    HW246344   0.011   5.107   7.729  2.3062  0.7453 -1.0966
46496SOL     OW46345  12.174  11.295  11.618  0.1235  0.0157 -0.1311
46496SOL    HW146346  12.233  11.370  11.614 -1.1783  1.0992  0.0091
46496SOL    HW246347  12.172  11.261  11.528  0.8120  0.0662 -0.1707
46497SOL     OW46348   4.139   9.271   8.443  0.9978 -0.1061 -0.0324
46497SOL    HW146349   4.187   9.207   8.496  2.2619  0.1553 -0.8395
46497SOL    HW246350   4.117   9.341   8.505 -0.8546 -1.4795  0.9908
46498SOL     OW46351   3.698   0.779   1.994  0.3860 -0.2247  0.4401
46498SOL    HW146352   3.607   0.806   1.977  0.6422  0.0917 -0.4969
46498SOL    HW246353   3.708   0.698   1.943  0.8240  0.0965  0.0095
46499SOL     OW46354  12.434   8.206   6.694 -0.0640 -0.1993  0.3217
46499SOL    HW146355  12.398   8.190   6.607  0.5149 -0.0670  0.0507
46499SOL    HW246356  12.525   8.231   6.678  0.4644 -1.5461  1.0326
46500SOL     OW46357   6.079   0.828   9.805 -0.0518 -0.0469 -0.2646
46500SOL    HW146358   6.173   0.838   9.819 -0.1813  1.0936 -0.1393
46500SOL    HW246359   6.039   0.862   9.885 -0.5728 -0.3125 -0.4105
46501SOL     OW46360   5.645   9.083   7.723 -0.0403 -0.1179 -0.0387
46501SOL    HW146361   5.589   9.067   7.799 -0.3338 -0.6732 -0.3624
46501SOL    HW246362   5.729   9.043   7.747  0.6100  1.7214  0.9125
46502SOL     OW46363   1.669   5.104   0.966  0.0560 -0.4080  0.1628
46502SOL    HW146364   1.648   5.165   0.895 -0.4211 -0.3488  0.3510
46502SOL    HW246365   1.762   5.119   0.984 -0.5260  1.9111  1.7578
46503SOL     OW46366   3.026   6.494   3.879  0.6774  0.0147  0.4899
46503SOL    HW146367   3.083   6.527   3.949  1.5030  0.5955 -0.4363
46503SOL    HW246368   3.085   6.482   3.804 -0.1921 -0.5999 -0.1106
46504SOL     OW46369   2.439  11.879   1.127  0.6772 -0.3521 -0.7224
46504SOL    HW146370   2.433  11.931   1.046  1.8725 -1.2316 -1.4139
46504SOL    HW246371   2.372  11.812   1.117 -0.1439  0.3880 -0.3143
46505SOL     OW46372   4.467   6.708   1.211 -0.2262  0.0412  0.3747
46505SOL    HW146373   4.524   6.644   1.169 -0.0240  1.3459 -1.4915
46505SOL    HW246374   4.482   6.789   1.162 -2.1186  0.9474  1.1821
46506SOL     OW46375   4.371   2.827  10.675 -0.3839 -0.5168 -0.2689
46506SOL    HW146376   4.393   2.734  10.667  0.2448 -0.3113 -1.1827
46506SOL    HW246377   4.302   2.841  10.610 -0.3183 -0.3005 -0.2920
46507SOL     OW46378   9.191   6.749   4.928  0.3093 -0.0456  0.2530
46507SOL    HW146379   9.250   6.680   4.959  4.5292  1.5790 -3.1617
46507SOL    HW246380   9.151   6.713   4.849  0.3918  0.4545 -0.0229
46508SOL     OW46381   8.756   9.592   5.000 -0.3203  0.1757 -0.1322
46508SOL    HW146382   8.737   9.525   5.067  1.2814 -1.0428 -0.8493
46508SOL    HW246383   8.773   9.671   5.051 -1.9440  0.0225  0.7510
46509SOL     OW46384  11.966  12.544   2.897 -0.0406 -0.0608 -0.4692
46509SOL    HW146385  12.051  12.521   2.935 -0.8068 -2.2094  0.0737
46509SOL    HW246386  11.977  12.528   2.803 -0.1234 -1.3946 -0.2731
46510SOL     OW46387   6.989  11.182  11.889 -0.0703 -0.3774  0.2841
46510SOL    HW146388   6.936  11.241  11.943 -0.2219 -0.3516  0.1070
46510SOL    HW246389   7.023  11.237  11.819 -0.0036 -0.4467  0.2622
46511SOL     OW46390   7.089  10.616   7.500  0.4015 -0.6543 -0.4264
46511SOL    HW146391   7.081  10.521   7.503  1.9984 -0.8315 -0.8219
46511SOL    HW246392   7.173  10.635   7.543 -0.7807  0.7624  1.4670
46512SOL     OW46393  10.634  12.263  11.658 -0.2353  0.1128 -0.5884
46512SOL    HW146394  10.580  12.205  11.712 -0.1698  0.1065 -0.5296
46512SOL    HW246395  10.722  12.255  11.694 -0.4139  1.0421  0.0767
46513SOL     OW46396   4.163   2.008   6.659  0.0941 -0.3266 -0.1492
46513SOL    HW146397   4.253   2.000   6.628  0.2752  0.2590  0.2062
46513SOL    HW246398   4.135   1.918   6.677  1.4428 -0.3861  2.0646
46514SOL     OW46399   1.025   5.953   2.609  0.1735 -0.1033  0.4351
46514SOL    HW146400   0.984   5.878   2.652  0.0316 -1.0125 -1.1728
46514SOL    HW246401   0.953   5.999   2.568  0.4174  0.0691  0.1954
46515SOL     OW46402   5.469   2.193   5.811  0.0861 -0.1920 -0.2200
46515SOL    HW146403   5.431   2.273   5.847 -0.6348 -0.9062  0.6789
46515SOL    HW246404   5.426   2.122   5.860  0.3256 -1.1445 -1.3479
46516SOL     OW46405   6.742  10.455  11.084 -0.6445  0.2540 -0.3066
46516SOL    HW146406   6.694  10.460  11.001  0.1609 -0.1958 -0.8053
46516SOL    HW246407   6.811  10.391  11.068 -0.8765 -0.3189  0.9163
46517SOL     OW46408   6.007   6.817   6.231  0.4593  0.4677 -0.0838
46517SOL    HW146409   6.058   6.881   6.280  2.4873 -1.7452  0.8879
46517SOL    HW246410   5.922   6.860   6.217  1.5330  3.1420  0.8703
46518SOL     OW46411   7.592   7.469   8.846  0.0475  0.0500 -0.5067
46518SOL    HW146412   7.599   7.375   8.862 -0.4454 -0.0859 -1.0876
46518SOL    HW246413   7.597   7.508   8.934 -0.4875 -0.5590 -0.1958
46519SOL     OW46414   2.883   8.512   3.926 -0.2729  0.4854 -0.3842
46519SOL    HW146415   2.807   8.467   3.888 -0.1508  0.7642 -0.9556
46519SOL    HW246416   2.851   8.543   4.011 -0.0131 -1.6991  0.5774
46520SOL     OW46417   0.373  10.313  10.235 -0.4411  0.6477  0.6404
46520SOL    HW146418   0.439  10.302  10.166  1.2112  1.9674  1.9163
46520SOL    HW246419   0.393  10.243  10.297  1.2204  2.2617  2.0537
46521SOL     OW46420   5.516   3.506   0.201  0.1767 -0.0768 -0.7233
46521SOL    HW146421   5.491   3.472   0.287 -1.2827  1.6880 -0.3949
46521SOL    HW246422   5.609   3.485   0.193  0.1859 -0.8458  0.9977
46522SOL     OW46423   3.689  10.972  10.209 -0.0144  0.0339  0.2713
46522SOL    HW146424   3.634  10.914  10.262 -0.4933  0.3298  0.1035
46522SOL    HW246425   3.778  10.937  10.219 -0.5273 -2.0652 -1.5362
46523SOL     OW46426   4.829   4.779   4.941  0.1475  0.4769 -1.1529
46523SOL    HW146427   4.773   4.856   4.933 -1.6614 -0.1840  2.6403
46523SOL    HW246428   4.772   4.711   4.976  2.7375 -0.9757  0.6324
46524SOL     OW46429   5.378   6.665  10.627  0.1924  0.0844 -0.1951
46524SOL    HW146430   5.369   6.634  10.537  0.1034 -1.4618  0.3042
46524SOL    HW246431   5.293   6.703  10.649 -0.1278 -0.4856 -0.4364
46525SOL     OW46432   3.667   4.182   6.254 -0.2433  0.2940 -0.4840
46525SOL    HW146433   3.711   4.266   6.241 -0.2863  0.5715  1.0424
46525SOL    HW246434   3.663   4.171   6.349 -0.0897 -1.5126 -0.6465
46526SOL     OW46435   5.104  10.649  11.390  0.0702  0.5869 -0.0623
46526SOL    HW146436   5.130  10.705  11.317 -0.2110  0.4431 -0.2767
46526SOL    HW246437   5.068  10.709  11.455  0.8750  0.7789  0.2087
46527SOL     OW46438   6.185  11.763   3.110 -0.0572  0.4449  0.5486
46527SOL    HW146439   6.236  11.796   3.036 -0.4939 -0.5830 -0.2380
46527SOL    HW246440   6.251  11.728   3.170  0.2105 -1.4178 -0.7296
46528SOL     OW46441   3.609   7.196   6.220 -0.5584  0.7149  0.0473
46528SOL    HW146442   3.577   7.260   6.156 -1.4097  0.7881  0.5297
46528SOL    HW246443   3.701   7.220   6.234 -0.0438  0.0565 -1.9152
46529SOL     OW46444   0.415   9.360   0.561  0.0164 -0.2983 -0.7151
46529SOL    HW146445   0.389   9.306   0.486  2.1283 -1.0302 -0.9842
46529SOL    HW246446   0.347   9.428   0.566 -2.5385 -2.6895 -0.5760
46530SOL     OW46447   9.635  12.533   9.656  0.2432 -0.0691  0.1444
46530SOL    HW146448   9.580  12.529   9.734  0.2267  0.2080  0.1454
46530SOL    HW246449   9.713  12.580   9.683  0.6505 -0.7799  0.2408
46531SOL     OW46450   2.875   0.020  12.253 -0.3437 -0.4465 -0.4131
46531SOL    HW146451   2.858   0.050  12.163 -2.0293 -2.9539 -1.0371
46531SOL    HW246452   2.817   0.073  12.307 -2.1863 -1.4791 -1.3000
46532SOL     OW46453   9.639  11.697   1.140  0.3596 -0.1867 -0.2926
46532SOL    HW146454   9.633  11.743   1.223  0.5143 -0.0131 -0.3775
46532SOL    HW246455   9.548  11.682   1.114  0.3049 -0.9147  0.2764
46533SOL     OW46456   3.871   7.677   1.516  0.3529  0.3453  0.0778
46533SOL    HW146457   3.798   7.705   1.462  0.1440  1.8949  1.1250
46533SOL    HW246458   3.941   7.739   1.496  1.6074 -1.3765 -1.2559
46534SOL     OW46459  10.998   5.582   0.217  0.0994 -0.8389 -0.1414
46534SOL    HW146460  10.976   5.664   0.174 -0.0475 -0.5032  0.5568
46534SOL    HW246461  11.000   5.517   0.147  0.1755 -0.2466 -0.6874
46535SOL     OW46462   9.648  11.659   1.569 -0.2613 -0.2170 -0.7677
46535SOL    HW146463   9.717  11.697   1.624 -0.8909 -1.1970  0.7599
46535SOL    HW246464   9.688  11.653   1.483  1.8006 -1.2856  0.1830
46536SOL     OW46465   0.144   7.355   7.242  0.2767  0.2406  0.4625
46536SOL    HW146466   0.165   7.328   7.152 -1.1397  3.0416 -0.8460
46536SOL    HW246467   0.055   7.322   7.256 -0.3105  1.5437 -0.0198
46537SOL     OW46468   3.740  11.457   3.656  0.0641  0.6952  0.5569
46537SOL    HW146469   3.766  11.426   3.570  1.9017  1.3901  0.8005
46537SOL    HW246470   3.662  11.407   3.678  0.1395 -0.1989 -1.0862
46538SOL     OW46471   0.541   2.782   9.073  0.4759 -0.0450  0.2926
46538SOL    HW146472   0.448   2.803   9.069  0.4843 -0.2324 -1.7315
46538SOL    HW246473   0.580   2.855   9.122 -0.6339  0.3687  0.5798
46539SOL     OW46474   9.687   7.158   7.893 -0.2294 -0.1121  0.1940
46539SOL    HW146475   9.770   7.124   7.927  0.5689  0.1547 -1.3707
46539SOL    HW246476   9.678   7.116   7.808 -1.4907  0.2174  0.1533
46540SOL     OW46477  10.653   1.344  12.194 -0.0955 -0.6261 -0.1191
46540SOL    HW146478  10.567   1.369  12.229  0.5906  0.5050  0.8452
46540SOL    HW246479  10.637   1.326  12.101 -1.5450 -1.4145  0.2565
46541SOL     OW46480   0.167   1.071   1.827  0.2296  0.1413  0.3194
46541SOL    HW146481   0.228   1.093   1.898  0.2432  1.9372 -0.1820
46541SOL    HW246482   0.141   0.981   1.844  0.4710  0.4157  2.4449
46542SOL     OW46483  12.571   7.785   7.503 -0.3912 -0.2566 -0.3228
46542SOL    HW146484  12.599   7.714   7.446 -0.1313 -0.2059 -0.2599
46542SOL    HW246485  12.646   7.801   7.560 -0.1808  0.5507 -0.8160
46543SOL     OW46486   8.469   3.191   4.094 -0.1886  0.7450 -0.0492
46543SOL    HW146487   8.556   3.221   4.122 -0.6132  0.7293  1.3572
46543SOL    HW246488   8.408   3.246   4.142 -0.9889 -1.6413  1.8804
46544SOL     OW46489   6.027   2.202   9.847  0.2255  0.4260  0.4651
46544SOL    HW146490   6.067   2.169   9.928 -0.5248  0.5197  0.8812
46544SOL    HW246491   5.936   2.217   9.870 -0.4946 -1.4782 -0.9500
46545SOL     OW46492   6.729   3.687   0.424 -0.1604  0.1812  0.1690
46545SOL    HW146493   6.823   3.687   0.444 -0.1667 -0.4654  0.2036
46545SOL    HW246494   6.724   3.674   0.330 -0.2340 -0.8296  0.3005
46546SOL     OW46495   7.125   8.187   3.284  0.2349 -0.1562 -0.6407
46546SOL    HW146496   7.108   8.221   3.372  0.5901 -0.8759 -0.2873
46546SOL    HW246497   7.047   8.212   3.234 -0.4636 -0.6660  0.1571
46547SOL     OW46498   5.313   9.762  10.243 -0.4104  0.9411  0.4167
46547SOL    HW146499   5.396   9.753  10.289 -0.2908 -1.4574 -0.1293
46547SOL    HW246500   5.334   9.808  10.162  0.6525 -0.6673 -0.2633
46548SOL     OW46501   6.019   3.651   1.264  0.3618 -0.1194 -0.0436
46548SOL    HW146502   6.011   3.689   1.177  0.0284  0.0562  0.0582
46548SOL    HW246503   5.974   3.567   1.258  0.1981 -0.0358 -0.0007
46549SOL     OW46504   9.532   8.240   6.897 -0.0141 -0.7900 -0.0209
46549SOL    HW146505   9.502   8.266   6.984 -1.6225 -1.0987 -0.4527
46549SOL    HW246506   9.562   8.322   6.857 -0.4672 -0.4302  0.3614
46550SOL     OW46507   4.595  10.198   5.883 -0.1871  0.0771 -0.0665
46550SOL    HW146508   4.632  10.176   5.798  2.7088 -0.0783  1.1315
46550SOL    HW246509   4.584  10.293   5.881 -2.3058 -0.1373 -1.3477
46551SOL     OW46510   7.836   8.321   2.977 -0.7295 -0.6589  0.0078
46551SOL    HW146511   7.829   8.284   3.065 -1.0306 -1.2065 -0.2427
46551SOL    HW246512   7.929   8.340   2.965 -0.4921 -1.7945 -0.0439
46552SOL     OW46513   0.139   8.792   2.738  0.5544 -0.0609 -0.4882
46552SOL    HW146514   0.111   8.759   2.824  0.9143  1.4940  0.2645
46552SOL    HW246515   0.058   8.808   2.690  0.3604 -1.3246 -0.6121
46553SOL     OW46516   3.314   6.945   6.774  0.1331  0.4951  0.0256
46553SOL    HW146517   3.326   6.985   6.860  1.1017 -1.0626  0.6465
46553SOL    HW246518   3.370   6.998   6.716 -0.3876  1.4459  0.3654
46554SOL     OW46519   5.434  11.887   6.075 -0.3807 -0.4336 -0.0793
46554SOL    HW146520   5.526  11.865   6.087  0.2162  1.3615 -0.9395
46554SOL    HW246521   5.399  11.894   6.164  0.5070 -0.4014  0.2766
46555SOL     OW46522   0.802   7.163   3.112 -0.2148  0.5460 -0.6022
46555SOL    HW146523   0.793   7.255   3.136  0.9520  0.8281 -1.1617
46555SOL    HW246524   0.760   7.156   3.026  0.4448  0.7665 -0.9545
46556SOL     OW46525   0.615   8.015   9.228 -0.7755  0.0146  0.0476
46556SOL    HW146526   0.527   8.010   9.266 -1.4277 -0.6432 -1.4534
46556SOL    HW246527   0.607   8.079   9.158  0.3271  1.0031  0.8050
46557SOL     OW46528   3.304   6.045   1.307 -0.1750  0.0575 -0.6396
46557SOL    HW146529   3.360   6.095   1.366 -0.6046 -1.7979  1.5056
46557SOL    HW246530   3.362   5.978   1.270 -0.5732 -0.8153  0.2745
46558SOL     OW46531  11.726   0.974  12.293 -0.5859  0.0515  0.6451
46558SOL    HW146532  11.764   0.969  12.381  1.8795  1.0878 -0.2748
46558SOL    HW246533  11.785   1.031  12.244 -1.1480 -1.5059 -2.0538
46559SOL     OW46534   0.634   1.821  10.362 -0.3644 -0.4465 -1.2201
46559SOL    HW146535   0.669   1.734  10.344  1.0157  0.1153 -1.3282
46559SOL    HW246536   0.687   1.855  10.434 -0.3589  0.6171 -1.6995
46560SOL     OW46537  11.073   3.956  10.101  0.0208  0.0063  0.1531
46560SOL    HW146538  11.017   4.034  10.100 -0.0553 -0.0543 -0.5051
46560SOL    HW246539  11.162   3.991  10.093  0.0643  0.0846  0.9102
46561SOL     OW46540   4.567   5.395   8.053 -0.1246 -0.1800 -0.3436
46561SOL    HW146541   4.529   5.458   8.114 -0.0613  0.3004 -0.7983
46561SOL    HW246542   4.493   5.369   7.997 -0.3717 -1.2396  0.4470
46562SOL     OW46543   9.930   6.727   8.523 -0.2107  0.0438  0.2903
46562SOL    HW146544   9.877   6.799   8.488 -0.9958 -0.2492  0.8631
46562SOL    HW246545   9.958   6.756   8.609  2.2545  1.0289 -0.7301
46563SOL     OW46546   3.983   3.469   9.833 -0.2623 -0.3362 -0.4302
46563SOL    HW146547   3.938   3.391   9.866 -0.0724  0.9358  3.2181
46563SOL    HW246548   3.916   3.537   9.831  0.8741  1.1397  3.4456
46564SOL     OW46549   4.800  12.570   2.627 -0.2295 -0.2152  0.7427
46564SOL    HW146550   4.806  12.522   2.544 -0.7463 -0.3633  0.7903
46564SOL    HW246551   4.708  12.561   2.653 -0.2492  0.5085  0.9262
46565SOL     OW46552   2.050   8.488   2.542 -0.4925 -0.1257 -0.9540
46565SOL    HW146553   1.983   8.430   2.576  0.3732 -0.0227  1.0483
46565SOL    HW246554   2.064   8.553   2.611  0.8198  0.5571 -1.8082
46566SOL     OW46555   4.245  12.454   9.358 -0.0210 -0.1637 -0.0851
46566SOL    HW146556   4.154  12.445   9.331  0.0756 -0.1214 -0.4336
46566SOL    HW246557   4.255  12.548   9.377  0.1923  0.0019 -0.9596
46567SOL     OW46558   8.140   3.837   9.687  0.5692  0.2158 -0.1914
46567SOL    HW146559   8.215   3.784   9.715  0.7155 -0.1707 -1.2471
46567SOL    HW246560   8.094   3.859   9.768  0.9026 -0.9379  0.3323
46568SOL     OW46561  11.959   2.710   0.721  0.3060 -0.0533 -0.5905
46568SOL    HW146562  11.988   2.662   0.799 -0.4369 -0.4333 -0.5426
46568SOL    HW246563  11.934   2.796   0.755 -0.6071 -0.4208 -0.2961
46569SOL     OW46564   2.362   4.503   7.676  0.3788 -0.0931  0.6615
46569SOL    HW146565   2.410   4.564   7.732  0.2668  1.0230 -0.4075
46569SOL    HW246566   2.407   4.508   7.591  0.8490 -2.1112  0.7474
46570SOL     OW46567  10.498  11.694   2.313 -0.3328  0.1312 -0.1400
46570SOL    HW146568  10.557  11.663   2.382 -0.5892 -0.1649 -0.0551
46570SOL    HW246569  10.468  11.780   2.343 -1.3461 -0.4905  0.6634
46571SOL     OW46570   2.935  12.066   4.252  0.5054 -0.1447  0.3202
46571SOL    HW146571   2.889  12.070   4.169  0.0155 -0.4066  0.5751
46571SOL    HW246572   2.866  12.063   4.318  0.8345 -2.4244  0.6331
46572SOL     OW46573   1.623  11.598   4.077 -0.0126 -0.2829  0.4977
46572SOL    HW146574   1.636  11.523   4.018 -2.1597  0.3568 -0.9218
46572SOL    HW246575   1.540  11.580   4.121 -0.7493  1.3626 -0.1283
46573SOL     OW46576   3.752  10.037   7.058  0.2259  0.1118  0.3215
46573SOL    HW146577   3.819  10.087   7.105 -0.3476 -0.0721  1.3679
46573SOL    HW246578   3.723   9.970   7.121  0.5244 -1.1423 -0.8262
46574SOL     OW46579  11.209  12.426  10.753 -0.1280 -0.2537  0.2786
46574SOL    HW146580  11.237  12.509  10.715 -2.9978  0.5257 -0.3182
46574SOL    HW246581  11.168  12.379  10.681 -0.5144 -1.2509  1.1231
46575SOL     OW46582   4.232   7.315   0.248  0.7457 -0.0331  0.0787
46575SOL    HW146583   4.204   7.230   0.282  0.1523 -0.6261 -1.7831
46575SOL    HW246584   4.326   7.317   0.263  0.5366 -0.2848  1.6235
46576SOL     OW46585   4.946   3.420  10.800 -0.1203 -0.3913 -0.8202
46576SOL    HW146586   4.945   3.325  10.788 -0.4681 -0.3609 -1.0444
46576SOL    HW246587   4.938   3.432  10.895 -1.2786 -0.5700 -0.8826
46577SOL     OW46588  11.155   3.044  10.645  0.1207  0.3301  0.3472
46577SOL    HW146589  11.136   3.025  10.737 -1.0772 -2.2225 -0.3105
46577SOL    HW246590  11.093   3.112  10.621 -0.1573  0.3913  1.1949
46578SOL     OW46591   9.710   8.259  11.173 -0.7587  0.3903  0.1111
46578SOL    HW146592   9.629   8.212  11.153 -0.0360 -0.3751 -1.1324
46578SOL    HW246593   9.686   8.319  11.244 -2.2303 -0.3217  0.2494
46579SOL     OW46594   6.069   7.182   5.400 -0.1087  0.2388 -0.2789
46579SOL    HW146595   6.145   7.183   5.341 -1.7658 -0.8212 -2.5750
46579SOL    HW246596   6.105   7.150   5.483  1.7567 -1.5646 -1.6617
46580SOL     OW46597   8.195  11.317   3.202  0.4018  0.3884 -0.1923
46580SOL    HW146598   8.153  11.250   3.257 -1.3165  1.5809  0.0387
46580SOL    HW246599   8.240  11.374   3.264 -0.2452  0.8540 -0.1379
46581SOL     OW46600  10.520   6.618   6.876 -0.4591 -0.2493 -0.0717
46581SOL    HW146601  10.492   6.703   6.910 -2.2879 -0.5027 -0.8289
46581SOL    HW246602  10.495   6.621   6.783  0.1629 -1.3225 -0.2829
46582SOL     OW46603   9.415   6.395  11.561 -0.9042 -0.4066  0.1435
46582SOL    HW146604   9.465   6.314  11.579 -0.5295  0.1310  1.7141
46582SOL    HW246605   9.323   6.368  11.569 -0.7847 -0.7004  0.5908
46583SOL     OW46606  12.574   6.215   1.277 -0.2952  0.1927  0.0668
46583SOL    HW146607  12.500   6.274   1.271 -0.7699 -0.5052 -1.7342
46583SOL    HW246608  12.539   6.135   1.315 -0.7010 -0.4069 -1.4814
46584SOL     OW46609   4.492   3.123   5.752  0.3245  0.0531  0.0079
46584SOL    HW146610   4.534   3.040   5.727  0.2622 -0.0569  0.2673
46584SOL    HW246611   4.560   3.172   5.798  0.2436 -0.0224  0.2101
46585SOL     OW46612   4.687   6.477  11.331 -0.1988  0.1188  0.1263
46585SOL    HW146613   4.678   6.485  11.426  0.2890  0.6964  0.1331
46585SOL    HW246614   4.779   6.498  11.313 -0.2706 -0.0443 -0.4661
46586SOL     OW46615   9.075   5.140   0.553 -0.3673 -0.1214  0.0100
46586SOL    HW146616   9.009   5.129   0.484 -2.6582  1.4260  1.8085
46586SOL    HW246617   9.034   5.104   0.632  1.0264  0.7108  1.1649
46587SOL     OW46618   8.959   2.636  12.378  0.0267  0.3444 -0.2809
46587SOL    HW146619   9.003   2.607  12.298 -0.0550 -0.1985 -0.1300
46587SOL    HW246620   8.933   2.727  12.359 -1.2365 -0.2171 -1.3948
46588SOL     OW46621   2.095   0.493   4.935  0.0582 -0.2419  0.5572
46588SOL    HW146622   2.006   0.492   4.970  0.0113 -1.1435  0.4262
46588SOL    HW246623   2.093   0.560   4.867 -0.7185 -0.7504  0.0681
46589SOL     OW46624  10.712   8.145   0.459 -0.1670  0.2564  0.2850
46589SOL    HW146625  10.631   8.155   0.509 -0.3135  1.2397 -0.1279
46589SOL    HW246626  10.772   8.099   0.518 -1.9378 -3.2636 -0.3912
46590SOL     OW46627   9.358   9.780  11.696 -0.3490  0.6826 -0.9828
46590SOL    HW146628   9.326   9.798  11.607 -0.6036 -0.8584 -1.2263
46590SOL    HW246629   9.444   9.741  11.683 -0.0438  1.1779 -0.4942
46591SOL     OW46630  10.198   4.633  12.225  0.5968  0.3999  0.2246
46591SOL    HW146631  10.157   4.719  12.238  0.1802  0.3249 -0.5428
46591SOL    HW246632  10.125   4.573  12.214  0.8890 -0.0666  0.7815
46592SOL     OW46633   0.003   5.431   5.343  0.0732 -0.4874  0.3626
46592SOL    HW146634   0.002   5.387   5.428  1.2339 -1.4546 -0.0919
46592SOL    HW246635   0.017   5.360   5.280 -2.1504  0.0080 -0.7943
46593SOL     OW46636  10.610  11.524   4.088  0.4252 -1.3362 -0.1692
46593SOL    HW146637  10.562  11.598   4.052  2.2096  0.9500  1.7911
46593SOL    HW246638  10.617  11.462   4.015  0.0531  1.0297 -2.3607
46594SOL     OW46639   3.608  12.048   3.546  0.0897 -0.3472  1.1069
46594SOL    HW146640   3.630  11.994   3.470  0.4452 -0.1311  1.0544
46594SOL    HW246641   3.512  12.050   3.547  0.0742 -1.0686  1.1733
46595SOL     OW46642   9.361   3.757   3.771 -0.0929  0.4380 -0.0220
46595SOL    HW146643   9.427   3.810   3.814  0.3352  1.0419 -1.3684
46595SOL    HW246644   9.410   3.707   3.705 -0.7619 -0.2262 -0.0260
46596SOL     OW46645   5.423   8.960   1.385  0.1575 -0.1565  0.6067
46596SOL    HW146646   5.469   8.924   1.309 -0.0834  2.6790 -1.0187
46596SOL    HW246647   5.490   9.008   1.433 -0.1969  0.2276  0.7253
46597SOL     OW46648   3.285  12.239   1.182 -0.0561  0.4232 -0.4835
46597SOL    HW146649   3.325  12.162   1.223 -0.4561  0.2104 -0.4940
46597SOL    HW246650   3.352  12.308   1.192 -0.3705  0.5513  1.0869
46598SOL     OW46651   2.356   9.429   5.441 -0.0272  0.4656  0.3404
46598SOL    HW146652   2.442   9.449   5.478  1.0010  1.1029 -2.1480
46598SOL    HW246653   2.362   9.459   5.350 -3.0175  0.8416  0.1632
46599SOL     OW46654   0.968   8.946   5.942  0.0066  0.1152 -0.2071
46599SOL    HW146655   0.975   8.865   5.992  2.9339  0.2092 -0.3101
46599SOL    HW246656   0.930   9.008   6.005 -0.1204 -0.7559  0.6089
46600SOL     OW46657   1.869   4.559   6.890  0.8869 -1.0631 -0.2990
46600SOL    HW146658   1.880   4.603   6.974  1.1075 -0.1129 -0.8071
46600SOL    HW246659   1.924   4.480   6.896  0.5917 -1.2060  0.5777
46601SOL     OW46660   0.292   0.606  10.572 -0.0911  0.6243  0.2879
46601SOL    HW146661   0.339   0.525  10.551 -1.1871  0.2276 -0.7669
46601SOL    HW246662   0.239   0.584  10.648  1.3742  1.0690  1.4726
46602SOL     OW46663   1.902   5.234   4.416 -0.1197 -0.2503  0.1200
46602SOL    HW146664   1.834   5.271   4.472 -0.5671 -0.4263 -0.2986
46602SOL    HW246665   1.902   5.290   4.338  0.2046 -0.2604  0.1122
46603SOL     OW46666   9.623   5.706   4.970 -0.1520  0.0536 -0.0132
46603SOL    HW146667   9.701   5.679   4.922 -0.5887 -1.6783  0.1908
46603SOL    HW246668   9.655   5.730   5.057  0.2783  0.4322 -0.2721
46604SOL     OW46669  12.288   6.579   9.474 -0.4294  0.4283  0.2929
46604SOL    HW146670  12.359   6.612   9.420  0.7917 -1.5740  0.5781
46604SOL    HW246671  12.243   6.658   9.506  1.3213  1.7347 -0.3308
46605SOL     OW46672   2.563   4.458   2.372  0.2781  0.1721 -0.3755
46605SOL    HW146673   2.508   4.495   2.302 -1.5654  0.2443  1.0380
46605SOL    HW246674   2.532   4.501   2.452  0.4339 -1.9040  0.8651
46606SOL     OW46675   7.745   1.096   7.287  0.0643 -0.6063  0.2331
46606SOL    HW146676   7.791   1.106   7.370 -0.7712  0.1685  0.6197
46606SOL    HW246677   7.745   1.002   7.271 -0.8265 -0.8879  1.7382
46607SOL     OW46678   2.930   9.904   2.070  0.3025  0.2964  0.4129
46607SOL    HW146679   2.922   9.814   2.101  0.6002  0.2331  0.3128
46607SOL    HW246680   2.976   9.950   2.140  2.6637 -0.2708 -0.6648
46608SOL     OW46681  11.663   4.421   0.574 -0.1593 -0.0494  0.2245
46608SOL    HW146682  11.671   4.383   0.662  0.1996 -0.9217 -0.1741
46608SOL    HW246683  11.640   4.513   0.590  0.4757 -0.0470  1.2400
46609SOL     OW46684   5.442   2.868   4.794  0.1294  0.2649  1.0554
46609SOL    HW146685   5.530   2.889   4.826 -0.3740  1.4106  1.7526
46609SOL    HW246686   5.386   2.876   4.871 -0.7459  0.6339  0.3995
46610SOL     OW46687   5.974   3.624  12.108  0.3614  0.1553 -0.4842
46610SOL    HW146688   6.028   3.597  12.183 -0.4528  0.9115  0.3977
46610SOL    HW246689   5.884   3.609  12.137  0.0596 -0.3816 -1.6588
46611SOL     OW46690   2.144  11.873   3.000 -0.0419 -0.3768  0.0007
46611SOL    HW146691   2.079  11.863   3.069 -0.3248 -1.4069 -0.3966
46611SOL    HW246692   2.098  11.850   2.920  1.0599 -2.1604 -0.1760
46612SOL     OW46693   9.524   8.640   8.955  0.2618 -0.5538  0.2684
46612SOL    HW146694   9.477   8.601   8.881  1.4366 -0.2682 -0.6645
46612SOL    HW246695   9.465   8.707   8.988 -0.3033 -0.7103 -0.3876
46613SOL     OW46696   3.891   4.785   1.058  0.1940 -0.1874 -0.1699
46613SOL    HW146697   3.914   4.734   1.136  0.6113  0.0376 -0.1431
46613SOL    HW246698   3.856   4.720   0.997 -1.9266 -0.0968  0.8757
46614SOL     OW46699  11.314   9.772   1.887 -0.0025 -0.1274 -0.3076
46614SOL    HW146700  11.405   9.783   1.859 -0.3884  2.3209 -0.8365
46614SOL    HW246701  11.309   9.816   1.971 -1.3036  2.5725 -1.6821
46615SOL     OW46702   0.130   5.679   8.170 -0.0650  0.3344 -0.0926
46615SOL    HW146703   0.104   5.646   8.256  0.1021  2.3592  0.7921
46615SOL    HW246704   0.165   5.767   8.187  2.3233 -0.1466 -1.9078
46616SOL     OW46705   4.009  11.623  11.841  0.0380 -0.2087  0.3006
46616SOL    HW146706   3.980  11.571  11.917 -0.2086 -1.1428 -0.4078
46616SOL    HW246707   3.964  11.707  11.851  1.4404  0.3982  2.1607
46617SOL     OW46708   7.287   9.936   7.889  0.3104 -0.0086  0.0098
46617SOL    HW146709   7.191   9.928   7.887  0.3828 -1.3253 -1.9988
46617SOL    HW246710   7.303  10.030   7.894 -1.0987  0.2811 -0.3702
46618SOL     OW46711  10.933   9.281   0.281 -0.3564  0.4139 -0.4049
46618SOL    HW146712  10.904   9.306   0.193 -0.2864 -1.1174 -0.8910
46618SOL    HW246713  10.851   9.266   0.330 -0.4097 -0.1715 -0.6597
46619SOL     OW46714   0.304   1.770   4.342  0.2715 -0.4137  0.0787
46619SOL    HW146715   0.398   1.791   4.335  0.5391 -2.0405 -2.2171
46619SOL    HW246716   0.261   1.835   4.287  0.4331 -1.5801 -1.5009
46620SOL     OW46717   0.317   4.194   2.117  0.1924  0.0422  0.8000
46620SOL    HW146718   0.357   4.273   2.152 -0.6910  1.2731 -0.8047
46620SOL    HW246719   0.224   4.202   2.139 -0.1096  0.0762 -0.4234
46621SOL     OW46720   2.007   5.684   1.703  0.1925  0.9009 -0.1303
46621SOL    HW146721   1.948   5.729   1.764 -0.6137 -1.2742  0.8098
46621SOL    HW246722   1.949   5.650   1.635  0.9872  2.5760 -1.7429
46622SOL     OW46723   0.329   8.382   2.836  0.1808 -0.6230 -0.3684
46622SOL    HW146724   0.372   8.442   2.776  0.1998 -1.0443 -0.7827
46622SOL    HW246725   0.400   8.331   2.874  0.3251  0.6768  1.1943
46623SOL     OW46726  11.081   4.681   3.496 -0.2445  0.3492 -0.0402
46623SOL    HW146727  11.009   4.646   3.443  1.0859 -0.4737 -1.4056
46623SOL    HW246728  11.041   4.703   3.580 -1.8221 -1.3564 -0.2800
46624SOL     OW46729  10.844   8.339  11.763 -0.0959 -0.3044  0.3637
46624SOL    HW146730  10.891   8.411  11.805  0.0130 -0.2975  0.2334
46624SOL    HW246731  10.791   8.301  11.832 -1.0749  0.6569  0.1584
46625SOL     OW46732   0.115   5.702   7.757  0.9143 -0.5233 -0.4421
46625SOL    HW146733   0.192   5.756   7.774  1.2822 -1.5106  1.2811
46625SOL    HW246734   0.101   5.654   7.838 -0.2481 -1.9600 -1.4362
46626SOL     OW46735   3.541   2.161   9.598 -0.1753 -0.5422  0.7370
46626SOL    HW146736   3.573   2.206   9.677  1.5195  0.2514 -0.3526
46626SOL    HW246737   3.446   2.167   9.605 -0.0752 -0.3319  2.6234
46627SOL     OW46738  11.762  11.363   3.608 -0.3163  0.2109 -0.1829
46627SOL    HW146739  11.855  11.353   3.629 -0.4033 -2.0769 -0.6015
46627SOL    HW246740  11.761  11.394   3.518 -0.0001  2.0412  0.3939
46628SOL     OW46741   2.276   8.151  12.095  0.2868  0.5657  0.1664
46628SOL    HW146742   2.212   8.213  12.060 -0.6395  1.0148  2.5261
46628SOL    HW246743   2.330   8.204  12.154 -0.2818 -0.7431  1.9347
46629SOL     OW46744   1.513   3.687  10.949 -0.1072  0.1969 -0.1720
46629SOL    HW146745   1.457   3.616  10.916  0.0267  0.1811 -0.3632
46629SOL    HW246746   1.597   3.672  10.908 -0.0680  0.4487 -0.1806
46630SOL     OW46747   7.488   8.438   5.385  0.0773  0.0649 -0.1589
46630SOL    HW146748   7.437   8.476   5.314 -0.9461 -1.8576 -0.5377
46630SOL    HW246749   7.426   8.430   5.457  1.1846  2.2848  1.1281
46631SOL     OW46750   1.229   6.226   3.527  0.5068  0.0167  0.0296
46631SOL    HW146751   1.270   6.162   3.587  0.0397  0.4294  0.7998
46631SOL    HW246752   1.289   6.301   3.528 -0.5286  0.8766  1.6463
46632SOL     OW46753   5.775   0.346   2.686  0.2672 -0.0036 -0.3320
46632SOL    HW146754   5.739   0.328   2.773  0.5418  0.0260 -0.2119
46632SOL    HW246755   5.829   0.424   2.698 -0.5923  0.6807 -0.7621
46633SOL     OW46756   2.563   0.172   4.115 -0.1820 -0.5484 -0.0964
46633SOL    HW146757   2.484   0.146   4.068  0.0610 -1.1861 -0.1580
46633SOL    HW246758   2.571   0.110   4.187 -0.5008  0.3729  0.7592
46634SOL     OW46759   6.420   5.458   5.566 -0.3713  0.0362  0.0808
46634SOL    HW146760   6.363   5.464   5.490 -2.6874 -0.5670  1.6747
46634SOL    HW246761   6.479   5.534   5.558 -0.6506  0.0799 -2.1709
46635SOL     OW46762   9.293   3.028   6.958 -0.3913 -0.3938 -0.2554
46635SOL    HW146763   9.336   3.102   7.000 -1.3584 -0.1930  0.4153
46635SOL    HW246764   9.351   3.003   6.886  0.9562 -0.2885  0.7670
46636SOL     OW46765   7.169  12.225  11.728 -0.0392 -0.2639  0.2457
46636SOL    HW146766   7.250  12.201  11.774 -0.2800 -1.0744  0.2636
46636SOL    HW246767   7.177  12.183  11.642 -0.6981 -0.8677  0.4658
46637SOL     OW46768   9.899   3.949   4.383  0.1005  0.1951  0.1878
46637SOL    HW146769   9.884   3.855   4.370  0.3646  0.0831  0.6802
46637SOL    HW246770   9.915   3.982   4.294 -0.2120 -0.1863 -0.0141
46638SOL     OW46771   9.433   0.564   5.589 -0.1102  0.3014 -0.0035
46638SOL    HW146772   9.384   0.600   5.514 -1.1561 -1.0394  0.0074
46638SOL    HW246773   9.436   0.470   5.573 -1.2898 -0.1715  2.1601
46639SOL     OW46774   8.668   9.385   0.979 -0.1553 -0.3819 -0.1129
46639SOL    HW146775   8.606   9.453   0.955  0.1720 -0.0438 -0.0131
46639SOL    HW246776   8.614   9.311   1.006 -0.6286 -1.2722 -3.0852
46640SOL     OW46777   2.784  10.439  11.418 -0.2228 -0.4387 -0.2649
46640SOL    HW146778   2.831  10.418  11.338  0.6489  1.7062 -0.3851
46640SOL    HW246779   2.787  10.534  11.424 -1.4257 -0.4526  1.6361
46641SOL     OW46780   9.381   0.368  11.426  0.4644 -0.2828 -0.1362
46641SOL    HW146781   9.338   0.320  11.355  0.6455 -1.0285  0.2496
46641SOL    HW246782   9.469   0.330  11.431  0.7139  0.2974 -0.0149
46642SOL     OW46783  11.307   8.163   4.208  0.1758 -0.2342 -0.0642
46642SOL    HW146784  11.308   8.079   4.255  0.3826 -0.7834 -1.0352
46642SOL    HW246785  11.398   8.181   4.188  0.2065  0.5878  0.7461
46643SOL     OW46786   0.600   6.937  11.600  0.4017 -0.4973 -0.6265
46643SOL    HW146787   0.611   6.959  11.507  0.3445 -0.3835 -0.6062
46643SOL    HW246788   0.655   7.000  11.646 -0.9098  0.5812 -0.4759
46644SOL     OW46789   3.663   6.493  10.283  0.3365  0.8724 -0.4493
46644SOL    HW146790   3.732   6.447  10.234 -1.0221  0.6829 -2.2926
46644SOL    HW246791   3.658   6.579  10.242 -1.3353  0.4548 -1.1663
46645SOL     OW46792   6.470   0.538   6.473  0.5634  0.3039  0.6159
46645SOL    HW146793   6.554   0.569   6.504  0.8606  0.1659 -0.0459
46645SOL    HW246794   6.444   0.599   6.405 -0.0279  0.5289  1.0264
46646SOL     OW46795   0.378   1.924  11.351 -0.0164  0.7691 -0.0121
46646SOL    HW146796   0.470   1.916  11.327 -0.5501 -0.9488 -1.7252
46646SOL    HW246797   0.372   1.885  11.438  1.0059  1.8718  0.5855
46647SOL     OW46798   9.466   2.382   5.694  0.1087 -0.5155  0.3060
46647SOL    HW146799   9.374   2.380   5.720 -0.1934 -0.4893 -0.6950
46647SOL    HW246800   9.506   2.447   5.751 -0.8720  0.7294 -0.3765
46648SOL     OW46801   7.615   9.665   8.705  0.1726  0.8759 -0.3683
46648SOL    HW146802   7.619   9.573   8.680 -0.5824  0.7644 -0.1104
46648SOL    HW246803   7.701   9.683   8.744 -0.3186 -0.2567  1.3673
46649SOL     OW46804   8.916   5.479   5.714  0.1201 -0.1601  0.1839
46649SOL    HW146805   8.860   5.505   5.787  0.7267  2.5173 -0.2130
46649SOL    HW246806   8.975   5.413   5.752 -1.1308 -0.6117  1.4488
46650SOL     OW46807   2.733   0.983   3.735  0.3391 -0.0603 -0.2736
46650SOL    HW146808   2.799   0.989   3.805  0.3926  2.2596 -0.4355
46650SOL    HW246809   2.760   1.049   3.671 -2.0774  0.9112 -0.3873
46651SOL     OW46810   1.455   5.214   8.072 -0.7846 -0.5109 -0.2478
46651SOL    HW146811   1.466   5.218   7.977 -2.2134 -0.0674 -0.4208
46651SOL    HW246812   1.519   5.150   8.102 -0.0467 -0.3595 -1.4625
46652SOL     OW46813   1.390   7.286   7.085 -0.5024 -0.0221  0.6113
46652SOL    HW146814   1.382   7.307   6.992 -1.2046 -0.1495  0.6325
46652SOL    HW246815   1.357   7.196   7.092  0.5317 -0.3904  0.8304
46653SOL     OW46816   5.453  11.157   1.840  0.2582  0.5009  0.6898
46653SOL    HW146817   5.459  11.253   1.844 -0.1113  0.4995  1.4888
46653SOL    HW246818   5.384  11.135   1.903  0.7828 -0.3403  0.9758
46654SOL     OW46819  11.412   1.477  10.498 -0.1277  0.0437  0.6050
46654SOL    HW146820  11.359   1.557  10.493 -1.5337 -0.9047 -0.1183
46654SOL    HW246821  11.355   1.413  10.541 -0.3529 -1.5773 -1.9451
46655SOL     OW46822   3.480   9.399  10.880 -0.5061  0.3406 -0.0546
46655SOL    HW146823   3.420   9.396  10.805 -0.0214 -0.6241 -0.4245
46655SOL    HW246824   3.424   9.385  10.956 -0.9592  0.9881 -0.2582
46656SOL     OW46825   8.260  11.328  11.834 -0.4142  0.0665 -0.1320
46656SOL    HW146826   8.349  11.304  11.809 -0.9025 -2.8503  0.6376
46656SOL    HW246827   8.264  11.340  11.929 -0.6165  1.2144 -0.2533
46657SOL     OW46828  11.538   4.426   1.427  0.9097 -0.0118 -0.4119
46657SOL    HW146829  11.588   4.368   1.370  0.7585  1.7013 -2.4490
46657SOL    HW246830  11.452   4.434   1.384 -0.1664 -0.6915  1.4986
46658SOL     OW46831   8.664   4.834   8.569 -0.0450  0.1350  0.5237
46658SOL    HW146832   8.741   4.812   8.517 -0.3052 -0.4004  0.3602
46658SOL    HW246833   8.658   4.763   8.634 -0.5769  0.0046  0.3377
46659SOL     OW46834   9.587   0.229   1.516 -0.1669  0.0193 -0.6749
46659SOL    HW146835   9.604   0.163   1.449 -0.2468 -0.8384  0.1311
46659SOL    HW246836   9.659   0.291   1.507 -0.1717 -0.0952 -1.5474
46660SOL     OW46837   4.981  10.884   9.358 -0.6790  0.1030  0.1912
46660SOL    HW146838   4.960  10.934   9.279 -0.2098  1.2744  0.7804
46660SOL    HW246839   4.904  10.830   9.374 -0.3443 -1.0150 -1.7034
46661SOL     OW46840   0.588   1.130  11.349 -0.2317  0.5017  0.7065
46661SOL    HW146841   0.504   1.107  11.390  0.0205 -2.9146 -0.3339
46661SOL    HW246842   0.573   1.215  11.308 -3.2931 -0.1274  0.3169
46662SOL     OW46843   7.421   4.292   3.504 -1.1378 -0.1496 -0.3209
46662SOL    HW146844   7.439   4.364   3.443  0.6124 -0.1146  0.1707
46662SOL    HW246845   7.326   4.285   3.506 -1.2829  0.4671 -2.3328
46663SOL     OW46846   1.986   6.750   2.460 -0.1950  0.2130 -0.3127
46663SOL    HW146847   2.027   6.665   2.445 -1.2662  0.0316 -2.6932
46663SOL    HW246848   2.051   6.813   2.429  0.0348  0.2113  0.1441
46664SOL     OW46849   6.654  11.254  10.438 -0.1705 -1.0746 -0.0807
46664SOL    HW146850   6.705  11.230  10.361 -1.1800 -1.7145 -0.5656
46664SOL    HW246851   6.674  11.347  10.452  1.0365 -1.2837 -0.3066
46665SOL     OW46852   4.074   0.817   1.266  0.2410 -0.2913  0.1841
46665SOL    HW146853   4.148   0.784   1.316 -0.1868 -1.4488  0.0976
46665SOL    HW246854   4.023   0.869   1.328 -0.0725 -1.3823  0.8773
46666SOL     OW46855   7.744   7.540   2.674 -0.7269  0.1437 -0.4204
46666SOL    HW146856   7.777   7.456   2.706 -2.0481  0.1458  1.1008
46666SOL    HW246857   7.650   7.525   2.660 -1.1319  1.5499  0.5896
46667SOL     OW46858   4.638  10.626   9.217 -0.4441 -0.3484 -0.2870
46667SOL    HW146859   4.557  10.671   9.196 -1.0486 -0.4553  1.6038
46667SOL    HW246860   4.617  10.533   9.206 -0.2428 -0.3390 -0.8043
46668SOL     OW46861   4.503   9.587   0.425 -0.6218  0.3842  0.0417
46668SOL    HW146862   4.542   9.625   0.504 -1.5595  0.9417  0.2470
46668SOL    HW246863   4.482   9.497   0.450  0.9891 -0.1037 -0.2402
46669SOL     OW46864   4.421   5.735  10.071 -0.0626 -0.4393  0.2898
46669SOL    HW146865   4.378   5.821  10.071 -0.9303 -0.8176 -1.5473
46669SOL    HW246866   4.472   5.734   9.990  1.6287 -0.8973  1.3065
46670SOL     OW46867   6.126   6.700  10.510  0.3126 -0.4047 -0.6557
46670SOL    HW146868   6.214   6.734  10.526  0.0473 -0.3673  0.9189
46670SOL    HW246869   6.140   6.617  10.466  1.2201 -1.0724  0.8147
46671SOL     OW46870  11.326   4.034   3.788 -0.1307  0.3558  0.1696
46671SOL    HW146871  11.323   4.095   3.861  0.2824  1.1855 -0.4928
46671SOL    HW246872  11.285   4.081   3.715 -2.3110 -1.1423  0.3123
46672SOL     OW46873  11.692   5.846   9.517  0.0130 -0.0425 -0.1242
46672SOL    HW146874  11.778   5.842   9.476 -1.1506  0.8556 -2.9010
46672SOL    HW246875  11.683   5.762   9.562  2.2808 -0.1689  0.2031
46673SOL     OW46876  10.616   6.648  10.266 -0.2577  0.1298  0.5393
46673SOL    HW146877  10.537   6.698  10.245 -1.0609 -1.3259 -0.1258
46673SOL    HW246878  10.585   6.558  10.275  1.1391 -0.2737  1.6029
46674SOL     OW46879   7.171  10.339   5.953  0.0356 -0.2956 -0.1440
46674SOL    HW146880   7.140  10.425   5.923  1.3014  0.0386 -0.5694
46674SOL    HW246881   7.189  10.291   5.873 -0.0421 -0.7176  0.0907
46675SOL     OW46882   6.091   3.563   1.538  0.0477 -0.1694 -0.3651
46675SOL    HW146883   6.050   3.478   1.554 -0.3867 -0.4442 -2.6286
46675SOL    HW246884   6.044   3.598   1.462 -0.7472  2.7512  1.3165
46676SOL     OW46885   7.952  11.757   4.468  0.4791  0.1754 -0.4349
46676SOL    HW146886   8.042  11.788   4.474  0.1683  1.1456 -0.6128
46676SOL    HW246887   7.901  11.822   4.516 -0.1998 -0.0438 -0.8422
46677SOL     OW46888   5.874   2.151  11.848 -0.3136 -0.2665  0.4397
46677SOL    HW146889   5.949   2.201  11.816 -0.8932  0.5575  0.3520
46677SOL    HW246890   5.895   2.132  11.940  0.3309 -0.6950  0.2137
46678SOL     OW46891   2.539   0.982   6.731  0.1681 -0.5167  0.3079
46678SOL    HW146892   2.576   1.061   6.770 -0.3888 -0.3405  0.4862
46678SOL    HW246893   2.521   0.925   6.806 -0.2562 -0.4548  0.2556
46679SOL     OW46894   5.739   0.397   2.405  0.4035  0.4215  0.3067
46679SOL    HW146895   5.721   0.375   2.497  0.3274 -0.6943  0.0494
46679SOL    HW246896   5.701   0.324   2.356  0.8876  0.7533 -0.5817
46680SOL     OW46897   1.782  11.422  10.816  0.3983  0.0484 -0.2675
46680SOL    HW146898   1.856  11.454  10.868  0.3126  1.2952 -0.8555
46680SOL    HW246899   1.720  11.495  10.816 -0.6108 -0.7872 -0.2177
46681SOL     OW46900  10.220   4.574  11.272  0.3318  0.0241  0.4121
46681SOL    HW146901  10.185   4.619  11.349  1.4343  0.6814  0.5508
46681SOL    HW246902  10.276   4.505  11.307  0.4694  0.0280  0.2037
46682SOL     OW46903   3.249  11.432   8.283 -0.1193 -0.3493  0.3140
46682SOL    HW146904   3.254  11.337   8.292 -1.3172 -0.4820 -0.2696
46682SOL    HW246905   3.201  11.461   8.361 -1.3982 -0.4428 -0.3996
46683SOL     OW46906   5.386   8.356   9.326  0.1589 -0.0979 -0.5907
46683SOL    HW146907   5.318   8.351   9.258  0.0037  1.2887 -0.5600
46683SOL    HW246908   5.374   8.442   9.365 -0.4260 -1.2498  1.9342
46684SOL     OW46909   5.334   3.722   6.829 -0.1746 -0.0493 -0.0334
46684SOL    HW146910   5.367   3.810   6.850  1.2500 -0.9973  1.9025
46684SOL    HW246911   5.309   3.684   6.913 -0.8285 -1.5081 -0.8454
46685SOL     OW46912   3.215   3.740  11.917 -0.6518 -0.2018  0.2345
46685SOL    HW146913   3.209   3.650  11.947 -0.6096 -0.0474  0.7235
46685SOL    HW246914   3.252   3.788  11.992 -0.9556  0.2733  0.0882
46686SOL     OW46915   4.354  10.965   3.186 -0.3414  0.2658  0.2842
46686SOL    HW146916   4.297  11.038   3.212  1.2590  1.6806  0.0146
46686SOL    HW246917   4.307  10.887   3.213 -0.8868  1.4702  3.2031
46687SOL     OW46918   9.611  10.828   2.675 -0.1542 -0.0210  0.6447
46687SOL    HW146919   9.532  10.824   2.728 -1.3286 -1.1220 -1.1016
46687SOL    HW246920   9.583  10.805   2.587  2.0458 -0.0518 -0.1242
46688SOL     OW46921   7.420   4.108   6.462 -0.1213 -0.5255  0.0158
46688SOL    HW146922   7.352   4.171   6.484 -0.4055 -1.1279  0.9480
46688SOL    HW246923   7.375   4.042   6.408  0.2915  0.3098 -1.3846
46689SOL     OW46924   8.103   0.266  12.377 -0.1500 -0.0957 -0.0599
46689SOL    HW146925   8.126   0.178  12.406  1.0519 -0.2905 -1.4653
46689SOL    HW246926   8.183   0.300  12.337 -0.9314  1.1770 -0.6100
46690SOL     OW46927   0.282   4.823   5.429 -1.0959  0.0909 -0.4910
46690SOL    HW146928   0.215   4.844   5.494 -0.5257  4.0140 -0.9595
46690SOL    HW246929   0.361   4.867   5.460  0.0637 -0.5972 -2.2687
46691SOL     OW46930   4.242   4.648  10.141  0.5182 -0.0691  0.0523
46691SOL    HW146931   4.158   4.626  10.180 -0.1815 -0.2683 -1.5201
46691SOL    HW246932   4.237   4.616  10.051  2.3120 -0.1733 -0.0640
46692SOL     OW46933   0.863   8.557  12.300  0.3925  0.3045 -0.0449
46692SOL    HW146934   0.887   8.470  12.333  1.3472  0.7311  0.4156
46692SOL    HW246935   0.868   8.614  12.377 -0.2387  0.7700 -0.3420
46693SOL     OW46936   9.115   4.832   7.898  0.2209 -0.2309  0.6260
46693SOL    HW146937   9.089   4.796   7.983  0.8633 -1.3311  0.3794
46693SOL    HW246938   9.200   4.790   7.880  0.5914  0.7872 -0.0749
46694SOL     OW46939   2.947   0.198   0.039  0.0076 -0.0433  0.3100
46694SOL    HW146940   2.984   0.286   0.048  0.4251 -0.2192  0.3087
46694SOL    HW246941   2.857   0.213   0.012  0.6389  0.3513 -1.7103
46695SOL     OW46942   9.597  12.376  10.784 -0.3467  0.3965  0.7748
46695SOL    HW146943   9.545  12.457  10.791  1.1657  1.2600  4.4286
46695SOL    HW246944   9.548  12.321  10.723 -1.5345  3.9438 -1.8107
46696SOL     OW46945   5.248  10.577   3.001  0.1892  0.3211  0.1640
46696SOL    HW146946   5.163  10.575   3.044  0.2901  0.6214  0.3769
46696SOL    HW246947   5.266  10.670   2.987  0.1472  0.2307 -0.5460
46697SOL     OW46948   3.822   1.195   2.573  0.0148 -0.1001  0.2612
46697SOL    HW146949   3.909   1.235   2.568 -0.6716  1.4573  0.4277
46697SOL    HW246950   3.822   1.148   2.656  0.9496 -0.7950 -0.0994
46698SOL     OW46951  11.789   4.421   5.522 -0.2580 -0.3592  0.2774
46698SOL    HW146952  11.763   4.335   5.491 -3.4052 -0.0874  1.7709
46698SOL    HW246953  11.783   4.478   5.445 -2.0400 -0.7846  0.0679
46699SOL     OW46954   3.269   6.615   0.734  0.0398 -0.6967  0.0642
46699SOL    HW146955   3.260   6.703   0.697  0.6609 -0.5430  0.2756
46699SOL    HW246956   3.262   6.556   0.658 -0.2619 -0.4662 -0.0901
46700SOL     OW46957   8.561   8.855   9.972  0.2813 -0.3834 -0.3080
46700SOL    HW146958   8.623   8.925   9.996  0.6079 -0.7536 -0.0645
46700SOL    HW246959   8.606   8.807   9.903  0.3342 -0.7580 -0.0121
46701SOL     OW46960   6.860   2.403   4.302 -0.4288  0.0808 -0.0583
46701SOL    HW146961   6.956   2.410   4.305 -0.4971  0.9564  1.9097
46701SOL    HW246962   6.840   2.337   4.368 -1.1116 -1.8765 -2.1002
46702SOL     OW46963   7.263   9.944   5.316  0.7069 -0.4201 -0.4877
46702SOL    HW146964   7.286   9.990   5.235  2.8493 -2.6741 -1.2949
46702SOL    HW246965   7.168   9.953   5.324  0.5351  0.4527 -2.8682
46703SOL     OW46966   0.662   9.959   0.761 -0.2344  0.1446 -0.2700
46703SOL    HW146967   0.566   9.956   0.751 -0.0715 -1.7132 -2.1839
46703SOL    HW246968   0.681   9.894   0.828 -0.3563  1.3536  0.9637
46704SOL     OW46969   9.173  11.690   3.723 -0.3453  0.8182 -0.4028
46704SOL    HW146970   9.265  11.664   3.712 -0.0646  2.0581 -1.1983
46704SOL    HW246971   9.176  11.785   3.729 -1.5089  0.8150  0.4980
46705SOL     OW46972   4.780   3.523  11.583 -0.0363  0.5971 -0.2866
46705SOL    HW146973   4.766   3.594  11.520 -0.4099 -0.1580 -1.0668
46705SOL    HW246974   4.863   3.545  11.625  0.9073  0.4377 -1.9810
46706SOL     OW46975   9.503   1.083  10.574  0.3834 -0.0853  0.0621
46706SOL    HW146976   9.432   1.059  10.515 -0.2428  1.0659  0.3257
46706SOL    HW246977   9.468   1.067  10.662  0.4696  0.4102  0.1911
46707SOL     OW46978  10.298   4.501   8.533 -0.4938 -0.2670  0.0623
46707SOL    HW146979  10.390   4.505   8.507 -0.8955 -0.5503 -1.5205
46707SOL    HW246980  10.255   4.565   8.476 -1.2721 -0.0534  0.8728
46708SOL     OW46981  12.239   5.644   0.080 -0.1763  0.5059 -0.0821
46708SOL    HW146982  12.321   5.603   0.053 -0.5041  0.4997 -1.1126
46708SOL    HW246983  12.262   5.735   0.096  0.2880  0.2240  0.9154
46709SOL     OW46984   1.174  11.120   9.347  0.4041  0.0365  0.3663
46709SOL    HW146985   1.185  11.189   9.412  0.0653  0.2441  0.2057
46709SOL    HW246986   1.222  11.045   9.382  1.9711  0.7818 -0.1210
46710SOL     OW46987   8.600  12.163   8.246  0.2749 -0.8456  0.0239
46710SOL    HW146988   8.553  12.087   8.213  0.3603 -0.5200 -0.8969
46710SOL    HW246989   8.646  12.198   8.169 -1.5901  1.4859 -0.1639
46711SOL     OW46990  10.122   2.492  10.052 -0.0056 -0.0167 -0.4209
46711SOL    HW146991  10.200   2.508   9.999  0.1936  3.8111  0.6889
46711SOL    HW246992  10.139   2.541  10.133 -2.6151 -1.0172  0.8257
46712SOL     OW46993   8.589  11.885  10.355  0.2109  0.3965  0.8362
46712SOL    HW146994   8.640  11.917  10.430  0.2877  1.6165  0.2771
46712SOL    HW246995   8.620  11.936  10.281 -1.1613  0.5071  0.3086
46713SOL     OW46996   8.380  12.045   7.978 -0.3374 -0.5266 -0.0925
46713SOL    HW146997   8.366  11.981   8.048  0.0613  0.7619  1.1961
46713SOL    HW246998   8.472  12.034   7.954 -0.1593 -0.1617  0.4159
46714SOL     OW46999   0.219   2.069   2.278  0.3141  0.4976 -0.6442
46714SOL    HW147000   0.141   2.101   2.233 -0.3786 -0.9230 -0.5036
46714SOL    HW247001   0.289   2.127   2.248 -0.9321  2.4403 -0.0264
46715SOL     OW47002   1.851   1.546   3.450  0.8643 -0.7708  0.1756
46715SOL    HW147003   1.792   1.582   3.516  0.8633  1.0519 -0.7331
46715SOL    HW247004   1.800   1.478   3.406 -0.7735  0.9829 -0.8102
46716SOL     OW47005   7.605   0.150   5.759 -0.0658 -0.4787 -0.2788
46716SOL    HW147006   7.517   0.181   5.781  0.5084  0.8103  0.3166
46716SOL    HW247007   7.590   0.077   5.698 -1.5096  0.9764 -1.7780
46717SOL     OW47008   5.719   7.082   7.073 -0.2504 -0.3300 -0.2966
46717SOL    HW147009   5.739   7.116   6.986 -0.5439  0.2933 -0.1261
46717SOL    HW247010   5.787   7.120   7.129  1.5479 -2.7907 -0.6444
46718SOL     OW47011   1.498   0.048   4.754 -1.0567 -0.6537 -0.0591
46718SOL    HW147012   1.533   0.047   4.843 -2.2479 -0.6998  0.4326
46718SOL    HW247013   1.474   0.139   4.739 -3.5188 -1.0988  0.7925
46719SOL     OW47014   7.322   3.684   9.967  0.1463 -0.2480 -0.1498
46719SOL    HW147015   7.273   3.649   9.893  2.1117 -1.3913 -0.9886
46719SOL    HW247016   7.301   3.777   9.968 -1.4163 -0.5642 -0.9237
46720SOL     OW47017   4.561  11.451   0.804  0.3707 -0.6532 -0.1596
46720SOL    HW147018   4.513  11.440   0.722  0.3685  2.0817 -0.6423
46720SOL    HW247019   4.637  11.393   0.795 -0.3805 -1.4957 -1.4453
46721SOL     OW47020   1.398   3.515   4.750 -0.1836  0.0216 -0.0979
46721SOL    HW147021   1.481   3.513   4.798 -0.2939 -1.1234  0.0908
46721SOL    HW247022   1.331   3.506   4.818 -0.3241 -2.0334 -0.4399
46722SOL     OW47023   3.845   0.615  11.569 -0.2064  0.2784  0.2361
46722SOL    HW147024   3.782   0.665  11.622 -0.9001 -1.0482  0.7024
46722SOL    HW247025   3.927   0.664  11.578 -0.3534  0.2599  2.3540
46723SOL     OW47026  11.070  10.267   1.023  0.0894  0.1963 -0.4352
46723SOL    HW147027  11.134  10.211   0.980  2.2766  1.9917  0.2846
46723SOL    HW247028  10.991  10.213   1.032  1.5139 -2.1213 -1.2803
46724SOL     OW47029  11.660   4.959   9.690  0.1665 -0.0437 -0.2374
46724SOL    HW147030  11.695   5.034   9.738  1.2197 -0.1716 -0.7744
46724SOL    HW247031  11.571   4.949   9.724  0.9734 -0.3660  1.9567
46725SOL     OW47032   8.287   2.501   4.957  0.3610 -0.0493  0.3646
46725SOL    HW147033   8.258   2.506   4.866 -0.2894  0.6845  0.6020
46725SOL    HW247034   8.344   2.577   4.967  0.8723 -0.4388  0.4223
46726SOL     OW47035   1.665   3.932   3.243  0.1945 -1.0438  0.2631
46726SOL    HW147036   1.638   3.862   3.303 -0.2047 -0.8965  0.2612
46726SOL    HW247037   1.616   4.009   3.273 -1.2390 -1.3280 -1.2168
46727SOL     OW47038  12.091   9.468  12.224  0.4144 -0.1715  0.0436
46727SOL    HW147039  12.145   9.494  12.150  0.4923  2.8748  1.0409
46727SOL    HW247040  12.005   9.451  12.187  0.4651  1.2410 -0.7679
46728SOL     OW47041   6.063   8.888   4.466  0.2701 -0.3847 -0.0431
46728SOL    HW147042   6.034   8.945   4.537 -0.2700 -2.1482  1.2251
46728SOL    HW247043   6.123   8.942   4.414 -0.6351  1.4716  0.7665
46729SOL     OW47044  12.292   6.786  10.552  0.1225  0.3526 -0.7765
46729SOL    HW147045  12.297   6.784  10.457  0.8400  0.2044 -0.7349
46729SOL    HW247046  12.383   6.785  10.582 -0.0360  1.8267 -0.1217
46730SOL     OW47047   3.135   7.856   4.814 -0.6560  0.0239  0.1965
46730SOL    HW147048   3.170   7.913   4.745  1.2774  1.2815  2.1053
46730SOL    HW247049   3.061   7.904   4.850 -0.5382  0.1854  0.2196
46731SOL     OW47050   6.138   1.571   6.410  0.1052 -0.1769  0.1528
46731SOL    HW147051   6.080   1.568   6.334 -0.2528  1.3330  0.3462
46731SOL    HW247052   6.151   1.664   6.427  1.5299 -0.4968  0.9289
46732SOL     OW47053  11.383  10.297   1.403 -0.2580 -0.0553  0.6788
46732SOL    HW147054  11.420  10.227   1.457 -1.4648 -0.0550  1.5489
46732SOL    HW247055  11.291  10.273   1.394 -0.6321  1.2954  0.7974
46733SOL     OW47056  10.876   8.992   2.108  0.1249 -0.4209 -0.6907
46733SOL    HW147057  10.939   8.922   2.123 -2.3188 -2.9405 -1.4607
46733SOL    HW247058  10.842   9.012   2.195 -0.0534 -1.0686 -0.6099
46734SOL     OW47059   3.439   2.514   6.443  0.9617 -0.5162  0.6625
46734SOL    HW147060   3.431   2.445   6.510  0.6280 -0.3109  0.8368
46734SOL    HW247061   3.452   2.466   6.361 -0.3721 -0.8368  0.6132
46735SOL     OW47062  11.617   8.000   1.254 -0.5209 -0.1029  0.1170
46735SOL    HW147063  11.552   8.022   1.188  1.2862 -1.1370 -2.1455
46735SOL    HW247064  11.593   7.912   1.283 -2.1047  0.8553  1.9759
46736SOL     OW47065  11.801   4.435   3.214  0.4728 -0.0793  0.1062
46736SOL    HW147066  11.729   4.396   3.263  0.3492 -0.1372 -0.1212
46736SOL    HW247067  11.821   4.372   3.145  2.4265 -1.2697  1.6671
46737SOL     OW47068   5.834   4.051   9.905  0.0000  0.1685  0.4228
46737SOL    HW147069   5.745   4.016   9.896 -0.4638  1.3171  0.3513
46737SOL    HW247070   5.834   4.095   9.990  0.7011 -0.3476  0.7020
46738SOL     OW47071   7.485  11.647  11.421  0.1404 -0.2591  0.3068
46738SOL    HW147072   7.565  11.595  11.410  0.8959  0.6551  1.1989
46738SOL    HW247073   7.502  11.699  11.500 -0.4073  1.6286 -0.7617
46739SOL     OW47074  12.349   9.410   4.223  0.0652 -0.2649 -0.4105
46739SOL    HW147075  12.295   9.425   4.301  0.0786  0.7175 -0.5761
46739SOL    HW247076  12.295   9.440   4.150  1.2617  1.9553 -0.4678
46740SOL     OW47077   7.294   7.311   5.486 -0.1999 -0.2183 -0.7612
46740SOL    HW147078   7.287   7.365   5.565 -0.4639 -0.6407 -0.4947
46740SOL    HW247079   7.385   7.279   5.487 -0.0289  0.2576 -0.9458
46741SOL     OW47080   9.292   8.253   1.714  0.0703 -0.2357 -0.1348
46741SOL    HW147081   9.291   8.310   1.791 -1.5661 -0.6870  0.2148
46741SOL    HW247082   9.332   8.172   1.745 -0.5306 -0.3963  0.2424
46742SOL     OW47083  11.930   8.039   9.916  0.5129  0.1811 -0.0976
46742SOL    HW147084  11.949   7.949   9.943  2.9271  0.3767 -0.9032
46742SOL    HW247085  11.981   8.094   9.976 -0.0989  0.9713 -0.2791
46743SOL     OW47086  12.123   7.221   7.391  0.1277  0.0166 -0.3830
46743SOL    HW147087  12.163   7.203   7.306 -1.0285 -0.2344 -0.8968
46743SOL    HW247088  12.176   7.291   7.429  1.1773 -0.4635 -0.9207
46744SOL     OW47089   2.481   8.854   4.764 -0.0966 -0.2012  0.3412
46744SOL    HW147090   2.395   8.896   4.767  0.6550  1.3637  1.8329
46744SOL    HW247091   2.520   8.885   4.682 -0.0614  1.0359  0.8042
46745SOL     OW47092   2.421   7.840  10.364  0.5003  0.3754  0.0602
46745SOL    HW147093   2.417   7.853  10.459 -0.0647  1.1295 -0.0548
46745SOL    HW247094   2.466   7.757  10.353  1.1892  0.6098  0.9717
46746SOL     OW47095  10.905   1.449   0.353 -0.0379 -0.2304 -0.3166
46746SOL    HW147096  10.840   1.519   0.340  0.6075  0.4084 -0.2060
46746SOL    HW247097  10.866   1.372   0.314 -0.6039  0.2939 -0.8016
46747SOL     OW47098   5.475  11.200   1.164 -0.5576 -0.1583 -0.0497
46747SOL    HW147099   5.459  11.271   1.226  1.1071  0.6228 -0.4531
46747SOL    HW247100   5.427  11.226   1.085  0.5119  0.8873 -0.4038
46748SOL     OW47101   4.700   7.722  11.988  0.0362 -0.0401  0.4428
46748SOL    HW147102   4.767   7.665  12.026  0.2974 -0.8466 -1.1518
46748SOL    HW247103   4.683   7.787  12.057  0.8686 -1.0954  1.7094
46749SOL     OW47104   5.428   0.888   9.173  0.1962 -0.2402 -0.2410
46749SOL    HW147105   5.453   0.805   9.213 -0.3284 -0.6068 -0.6546
46749SOL    HW247106   5.503   0.945   9.188  0.1102 -0.4340  1.0446
46750SOL     OW47107   4.977   4.295   6.528  0.0878  0.3751 -1.1396
46750SOL    HW147108   4.983   4.215   6.580  1.1935  0.8810 -0.4474
46750SOL    HW247109   5.068   4.326   6.522 -0.5429  2.8419  0.6252
46751SOL     OW47110   0.213  10.899   3.321 -0.0065 -0.3208 -0.1068
46751SOL    HW147111   0.260  10.974   3.285 -0.5724  1.2572  2.2034
46751SOL    HW247112   0.263  10.875   3.399 -0.7390 -1.3122  0.0765
46752SOL     OW47113   7.450  11.295   5.784 -0.2940 -0.3594 -0.5084
46752SOL    HW147114   7.456  11.226   5.718 -0.4893  0.4764 -1.4301
46752SOL    HW247115   7.422  11.373   5.735 -4.9098 -0.6488  1.1977
46753SOL     OW47116  11.519   3.363   7.163 -0.6729 -0.0760 -0.1889
46753SOL    HW147117  11.614   3.361   7.178 -0.6146 -1.6746 -0.6133
46753SOL    HW247118  11.492   3.448   7.197  0.9190  0.4507 -0.1208
46754SOL     OW47119   9.277   9.448  10.600  0.3561  0.5601 -0.0313
46754SOL    HW147120   9.226   9.478  10.675  0.7428 -0.8455  0.8377
46754SOL    HW247121   9.342   9.516  10.585  1.3929  0.1054  2.0512
46755SOL     OW47122   6.575   9.410   0.420 -0.8896 -0.2634  0.3945
46755SOL    HW147123   6.668   9.394   0.408 -0.1809  1.0844  3.2853
46755SOL    HW247124   6.556   9.487   0.366 -0.4689 -0.7677 -0.4955
46756SOL     OW47125  12.470  10.367   3.122  0.2608  1.0095  0.3088
46756SOL    HW147126  12.514  10.294   3.076  1.4546  0.9675  1.4390
46756SOL    HW247127  12.542  10.417   3.161 -0.5465  2.7747 -0.3636
46757SOL     OW47128   9.482   7.354   5.985 -0.0039  0.6450  0.5270
46757SOL    HW147129   9.403   7.370   5.933 -0.3184  0.9229  1.0916
46757SOL    HW247130   9.497   7.435   6.033  1.2082  0.9601 -0.3342
46758SOL     OW47131   9.525   5.001  10.779 -0.3174 -0.5307 -0.1843
46758SOL    HW147132   9.439   5.017  10.818 -2.0099  0.4712 -3.8200
46758SOL    HW247133   9.541   5.078  10.725  2.2479 -1.3248 -0.6788
46759SOL     OW47134   7.781   2.708   4.833 -0.0875  0.1548  0.2263
46759SOL    HW147135   7.760   2.793   4.871  0.6472  0.3653  0.1878
46759SOL    HW247136   7.864   2.684   4.873 -1.5694 -1.8495  2.3240
46760SOL     OW47137   6.509  11.941   9.477  0.3554  0.0612 -0.2155
46760SOL    HW147138   6.517  11.916   9.569 -0.7793  0.1082 -0.0906
46760SOL    HW247139   6.481  12.032   9.479 -0.3565 -0.1407 -0.5865
46761SOL     OW47140   9.684   3.469  11.318  0.1010 -0.2578  0.2614
46761SOL    HW147141   9.633   3.545  11.289  0.5140  0.6488  1.8305
46761SOL    HW247142   9.619   3.410  11.355  0.0604  0.6602  1.7579
46762SOL     OW47143   4.113   9.283  11.693 -0.0319 -0.2785  0.2452
46762SOL    HW147144   4.045   9.276  11.760  1.2754  1.3850  1.8635
46762SOL    HW247145   4.139   9.375  11.695  3.2401 -1.0842  0.7236
46763SOL     OW47146   0.936   2.854  12.550  0.7935 -0.4238 -0.3298
46763SOL    HW147147   0.983   2.773  12.571  2.1264  0.4700  0.2396
46763SOL    HW247148   0.950   2.910  12.626 -2.7783 -0.7274  0.7528
46764SOL     OW47149   7.646   6.690   1.088 -0.0014  0.3961 -0.6410
46764SOL    HW147150   7.633   6.784   1.100  1.5256  0.6279 -0.6031
46764SOL    HW247151   7.733   6.682   1.050  0.1135 -1.0312 -0.1551
46765SOL     OW47152  12.085   9.753   2.604 -0.3993 -0.2165 -0.3067
46765SOL    HW147153  12.036   9.820   2.557 -2.9659 -1.4276  0.4444
46765SOL    HW247154  12.111   9.796   2.685 -1.7488  0.0162  0.0346
46766SOL     OW47155   9.765   6.474   8.498 -0.0726  0.0219 -0.1963
46766SOL    HW147156   9.836   6.533   8.470  0.1607 -0.3318 -0.3625
46766SOL    HW247157   9.698   6.483   8.430  0.3946 -0.6615 -0.7632
46767SOL     OW47158  11.412   4.893   8.454 -0.2842  0.1539 -0.2652
46767SOL    HW147159  11.486   4.954   8.445 -1.6864  1.7691 -1.6415
46767SOL    HW247160  11.336   4.950   8.469 -1.6328 -1.2408 -1.4642
46768SOL     OW47161   1.936   2.974   5.354 -0.1948 -0.5005  0.4686
46768SOL    HW147162   1.940   2.966   5.449 -0.3336 -1.3461  0.4034
46768SOL    HW247163   1.865   3.036   5.338 -1.0210 -1.3260  0.8786
46769SOL     OW47164   4.719   4.316  12.522  0.5861  0.1319 -0.8088
46769SOL    HW147165   4.706   4.397  12.473  0.8704  0.1884 -0.7916
46769SOL    HW247166   4.631   4.291  12.550  0.5108  0.5179 -0.6828
46770SOL     OW47167  10.195   6.977   5.020 -0.0431  0.5440 -0.0194
46770SOL    HW147168  10.173   6.909   5.084  0.6028 -0.6569 -1.0333
46770SOL    HW247169  10.154   7.057   5.055 -2.3742 -0.7090  0.3036
46771SOL     OW47170   8.055   4.277   6.030 -0.0725 -0.3864 -0.1634
46771SOL    HW147171   8.028   4.218   5.959 -1.2065 -1.0758  0.8107
46771SOL    HW247172   8.098   4.220   6.093  0.9935  0.2395 -0.3051
46772SOL     OW47173   6.054   2.578   4.287  0.5800  0.1266  0.8031
46772SOL    HW147174   6.083   2.634   4.216 -0.7202 -1.5001 -1.1316
46772SOL    HW247175   6.087   2.491   4.264 -0.3678 -0.5556  1.9050
46773SOL     OW47176   1.725   7.094   4.448 -0.2553  0.0248  0.0182
46773SOL    HW147177   1.633   7.068   4.460 -0.0557 -1.1536 -0.9062
46773SOL    HW247178   1.755   7.114   4.537 -1.5631  1.0331  0.2730
46774SOL     OW47179   0.880   6.913   4.395 -0.2431  0.2671  0.0674
46774SOL    HW147180   0.963   6.958   4.377  0.5393 -0.5630  1.4139
46774SOL    HW247181   0.877   6.906   4.490 -1.4773 -0.4497 -0.0076
46775SOL     OW47182   1.753   1.439   3.776  0.0777  0.1538  0.0986
46775SOL    HW147183   1.686   1.507   3.769 -0.0736 -0.1060 -1.4498
46775SOL    HW247184   1.720   1.379   3.843  0.5579  1.9298  2.0258
46776SOL     OW47185   6.726   4.633   1.073  0.1472 -0.1291 -0.0335
46776SOL    HW147186   6.722   4.547   1.115  1.5448 -0.1320  0.1687
46776SOL    HW247187   6.746   4.613   0.981  0.4267 -0.0321  0.0047
46777SOL     OW47188   5.960   1.144   1.343 -0.0126  0.5081 -0.4995
46777SOL    HW147189   5.982   1.222   1.292  2.2411 -0.0233 -0.4557
46777SOL    HW247190   5.876   1.114   1.306  0.0706  1.8264 -1.8489
46778SOL     OW47191   3.813   2.469   9.124  0.5009  0.0829 -0.0462
46778SOL    HW147192   3.897   2.425   9.138  0.7600  0.5706 -0.0286
46778SOL    HW247193   3.761   2.446   9.201  0.5952 -0.2708 -0.0846
46779SOL     OW47194   1.758   2.684   6.224  0.0148 -1.0494 -0.2871
46779SOL    HW147195   1.774   2.718   6.136 -1.3976  0.3633 -0.0475
46779SOL    HW247196   1.663   2.692   6.236  0.1431 -1.4784  1.2486
46780SOL     OW47197   5.647   9.965   4.445  0.4586 -0.3264 -0.0288
46780SOL    HW147198   5.690   9.929   4.522 -0.0489  0.0046  0.4227
46780SOL    HW247199   5.638   9.891   4.386  1.2934 -0.4798  0.0225
46781SOL     OW47200   4.217   2.177   7.749 -0.0922  0.3413 -0.2665
46781SOL    HW147201   4.301   2.133   7.761  0.0969  0.6917 -0.2951
46781SOL    HW247202   4.224   2.220   7.663 -0.5838 -0.2538 -0.6142
46782SOL     OW47203  10.328   8.146   6.437  0.1521  0.4101  0.2318
46782SOL    HW147204  10.351   8.129   6.528  2.2134 -0.5707 -0.4139
46782SOL    HW247205  10.317   8.060   6.398  0.2515  0.7961 -0.6852
46783SOL     OW47206  10.947   9.541   8.892  0.1080  0.0866  0.3470
46783SOL    HW147207  10.995   9.479   8.948  0.4743  0.1780  0.1376
46783SOL    HW247208  10.977   9.521   8.803 -0.0967  0.2758  0.2346
46784SOL     OW47209   7.117  10.401  12.550 -0.3018 -0.3754 -0.5368
46784SOL    HW147210   7.110  10.457  12.627 -0.4684 -0.4385 -0.5050
46784SOL    HW247211   7.121  10.462  12.476 -0.4280 -0.3206 -0.4981
46785SOL     OW47212   4.387   1.494   6.883 -0.6386  0.2607  0.0610
46785SOL    HW147213   4.384   1.458   6.972 -2.9105  1.5902  0.5924
46785SOL    HW247214   4.379   1.589   6.895 -1.9518  0.4064 -1.5659
46786SOL     OW47215   9.763   2.845  10.720  0.1270  0.2749 -0.3159
46786SOL    HW147216   9.755   2.825  10.813 -1.8959 -0.0547 -0.5196
46786SOL    HW247217   9.789   2.761  10.680  0.8394  0.3788 -0.0852
46787SOL     OW47218  11.161   6.412  12.161 -0.7678 -0.0783 -0.5846
46787SOL    HW147219  11.143   6.325  12.196 -0.5429  0.5797  1.3131
46787SOL    HW247220  11.078   6.459  12.170 -1.8793 -0.9417 -4.6324
46788SOL     OW47221   4.498  10.373   8.006  0.1494 -0.4984  0.3607
46788SOL    HW147222   4.588  10.362   7.974  0.4280 -2.9043  1.7328
46788SOL    HW247223   4.445  10.323   7.944 -0.2144  0.5758 -0.2113
46789SOL     OW47224  11.795   8.811   6.489  0.0318 -0.1199  0.0615
46789SOL    HW147225  11.883   8.815   6.526  0.1898  2.0020 -0.4046
46789SOL    HW247226  11.746   8.879   6.536 -0.8758 -0.1098 -0.8587
46790SOL     OW47227   3.570   8.019  11.483  0.5382  0.2907  0.6442
46790SOL    HW147228   3.526   8.066  11.413  1.2445  0.6246  0.4109
46790SOL    HW247229   3.662   8.015  11.456  0.9054  0.8068  1.7432
46791SOL     OW47230   5.661  10.125   8.323 -0.0696 -0.2570 -0.2394
46791SOL    HW147231   5.751  10.095   8.309 -0.4669 -1.1894 -0.9028
46791SOL    HW247232   5.660  10.157   8.413  0.9459 -0.1402 -0.2527
46792SOL     OW47233  12.432   6.921   7.892 -0.0815  0.8473  0.6433
46792SOL    HW147234  12.381   7.002   7.901  0.5684  1.1035  2.3599
46792SOL    HW247235  12.487   6.918   7.970  2.3432  0.4056 -0.9800
46793SOL     OW47236   5.068  11.812   2.194  0.3580 -0.1193  0.1611
46793SOL    HW147237   5.062  11.838   2.102  1.5221 -0.1353  0.0584
46793SOL    HW247238   4.977  11.799   2.222 -0.0964  1.3506 -0.5542
46794SOL     OW47239   0.016   9.256   8.334 -0.6881 -0.5967 -0.7319
46794SOL    HW147240   0.053   9.344   8.343 -0.1995 -0.6795 -1.8399
46794SOL    HW247241  -0.050   9.251   8.403 -2.0484  1.3439 -1.7842
46795SOL     OW47242   5.393  11.869   2.926 -0.7505 -0.7446  0.0958
46795SOL    HW147243   5.461  11.811   2.961 -1.4405 -1.2696  0.5994
46795SOL    HW247244   5.382  11.841   2.835 -1.2178 -1.5705  0.3898
46796SOL     OW47245   9.870   4.760   6.679 -0.3947 -0.5718  0.4263
46796SOL    HW147246   9.801   4.714   6.632 -0.2188 -0.4786  0.0710
46796SOL    HW247247   9.861   4.851   6.652  0.1524 -0.6353  0.0282
46797SOL     OW47248   5.254   2.470   5.420  0.1715  0.4797  0.1456
46797SOL    HW147249   5.337   2.516   5.432  0.0358  0.0015  4.4140
46797SOL    HW247250   5.272   2.380   5.444 -1.4777  0.2822  0.7762
46798SOL     OW47251   0.594  10.743   5.125 -0.3504  0.0983  0.3882
46798SOL    HW147252   0.501  10.747   5.102 -0.0759 -1.6129 -1.2796
46798SOL    HW247253   0.637  10.798   5.060 -0.1261  0.3027  0.7107
46799SOL     OW47254   9.593   9.683   8.217 -0.2894 -0.1031 -0.0707
46799SOL    HW147255   9.600   9.661   8.124 -0.0233  0.9284 -0.3114
46799SOL    HW247256   9.672   9.645   8.256  0.0673  0.2330 -0.4419
46800SOL     OW47257   3.517   4.768   1.262 -0.0199  0.3040  0.3956
46800SOL    HW147258   3.523   4.756   1.356 -1.5567 -0.3982  0.4430
46800SOL    HW247259   3.431   4.808   1.248  0.4624  1.0405 -0.6690
46801SOL     OW47260   8.079   9.008   5.906  0.3385  0.5279  0.0888
46801SOL    HW147261   8.022   9.070   5.862 -0.1694 -0.2600 -0.3943
46801SOL    HW247262   8.019   8.953   5.957  0.7402  0.2236  0.2379
46802SOL     OW47263   2.413   6.179   0.086  0.2765  0.1953  0.5735
46802SOL    HW147264   2.388   6.269   0.065 -1.2420  0.1685  2.0413
46802SOL    HW247265   2.485   6.188   0.149 -1.1616  0.4806  2.2557
46803SOL     OW47266   5.081   2.768   7.440 -0.3573 -0.3094 -0.5564
46803SOL    HW147267   5.062   2.686   7.485  0.0661  0.1780  0.5456
46803SOL    HW247268   5.164   2.752   7.395 -0.6151 -0.6940 -0.9014
46804SOL     OW47269   9.476   4.853  10.272  0.0927  0.2521  0.5292
46804SOL    HW147270   9.540   4.785  10.250  0.4036  0.7301 -0.0594
46804SOL    HW247271   9.514   4.898  10.347  0.7387  0.9000 -0.1641
46805SOL     OW47272   3.685   3.370   0.361  0.0469  0.0032  0.0001
46805SOL    HW147273   3.767   3.364   0.313  0.3419  0.5872  0.4352
46805SOL    HW247274   3.683   3.291   0.416 -0.4440 -0.8444 -1.1775
46806SOL     OW47275  11.262   6.509   1.710  0.4230 -0.0493  0.6273
46806SOL    HW147276  11.234   6.600   1.722  0.5365  0.7367 -3.5346
46806SOL    HW247277  11.180   6.459   1.710  0.3363  0.0400  2.6408
46807SOL     OW47278   3.940   4.523   7.700  0.1284 -0.2214  0.7497
46807SOL    HW147279   4.014   4.477   7.660  0.5704 -0.7635  2.1326
46807SOL    HW247280   3.930   4.482   7.786 -1.1990  0.4684  0.9528
46808SOL     OW47281  11.758   9.625   4.773 -0.3893 -0.2434 -1.3601
46808SOL    HW147282  11.784   9.639   4.682 -2.1942  1.0637 -1.7142
46808SOL    HW247283  11.663   9.614   4.770 -0.5283  0.1120  0.3974
46809SOL     OW47284   4.972   3.250   9.500 -0.0167 -0.2020  0.1172
46809SOL    HW147285   5.064   3.274   9.501 -0.1464  0.2978  0.2814
46809SOL    HW247286   4.965   3.186   9.430  0.3048  0.3592 -0.4353
46810SOL     OW47287  10.798   3.597   8.518  0.0940 -0.1148 -0.0720
46810SOL    HW147288  10.881   3.623   8.559 -0.8176  1.8672  0.6470
46810SOL    HW247289  10.822   3.568   8.430  1.8731 -2.5752  1.0844
46811SOL     OW47290   0.287   9.133   4.836 -0.4294 -0.1443 -0.2697
46811SOL    HW147291   0.338   9.214   4.834  0.9324 -0.9204 -3.7885
46811SOL    HW247292   0.338   9.074   4.893  0.8954  0.1512 -1.0979
46812SOL     OW47293   7.676   4.756   9.216 -0.0829 -0.7389 -0.3427
46812SOL    HW147294   7.752   4.790   9.169 -0.2643 -1.2147 -1.0115
46812SOL    HW247295   7.707   4.675   9.257 -0.1877 -0.8579 -0.4959
46813SOL     OW47296   4.366  10.722  12.284 -0.1548 -0.1799 -0.1224
46813SOL    HW147297   4.325  10.771  12.212 -0.3526  1.0888  0.8204
46813SOL    HW247298   4.309  10.739  12.359 -0.2831 -1.9688  0.2240
46814SOL     OW47299   3.887   8.335   5.652  0.3858  0.0718 -0.0257
46814SOL    HW147300   3.981   8.331   5.673  0.1661  1.8619  1.4724
46814SOL    HW247301   3.854   8.249   5.677  1.8592 -1.1998 -2.0906
46815SOL     OW47302   0.570   2.190   2.959 -0.1135  0.1310 -0.4971
46815SOL    HW147303   0.488   2.141   2.971  0.5411 -0.7383  0.6176
46815SOL    HW247304   0.639   2.125   2.975  0.8084  1.6473  2.2413
46816SOL     OW47305   3.031   9.798  11.853 -0.0333  0.6537 -0.8612
46816SOL    HW147306   3.086   9.827  11.780  0.3154 -0.4737 -1.0570
46816SOL    HW247307   2.947   9.843  11.839  0.0361  0.4585 -1.9405
46817SOL     OW47308   5.753  11.768   8.157  0.1658  0.3657 -0.6295
46817SOL    HW147309   5.836  11.727   8.132 -0.0970  0.0303 -0.9535
46817SOL    HW247310   5.710  11.788   8.073 -0.4979 -0.3074 -0.4540
46818SOL     OW47311   7.746   1.516   8.162 -0.3415  0.2241 -0.1821
46818SOL    HW147312   7.837   1.486   8.165 -0.8419 -1.3822 -0.1257
46818SOL    HW247313   7.738   1.575   8.236  0.0110 -1.6675  1.4646
46819SOL     OW47314  10.643  12.410   1.597  0.2897 -0.0550  0.3715
46819SOL    HW147315  10.550  12.425   1.580  0.5967  0.4260 -1.0381
46819SOL    HW247316  10.651  12.314   1.603 -0.3550 -0.0790  0.8922
46820SOL     OW47317   0.050   4.499   5.593  0.4298  0.1434  0.1359
46820SOL    HW147318  -0.024   4.510   5.652  1.0563 -1.1109  1.2090
46820SOL    HW247319   0.127   4.502   5.650  1.2046  1.0812 -0.9076
46821SOL     OW47320   3.582   4.886  12.508 -0.2546  0.4416  0.0101
46821SOL    HW147321   3.526   4.949  12.553  0.6556  0.2238  1.5427
46821SOL    HW247322   3.668   4.897  12.549  0.2099 -0.9709 -0.5046
46822SOL     OW47323  11.287   5.366   0.367  0.6031  0.6813  0.4238
46822SOL    HW147324  11.300   5.297   0.433  0.8066 -0.3967 -0.7178
46822SOL    HW247325  11.225   5.426   0.408  0.2829 -0.2686  1.3826
46823SOL     OW47326   2.601   9.667   9.294 -0.7735 -0.0806  0.0149
46823SOL    HW147327   2.670   9.640   9.234 -0.5507  2.6311 -1.0940
46823SOL    HW247328   2.644   9.724   9.357 -1.6172 -0.0411  0.5754
46824SOL     OW47329   4.076  11.957  12.450  0.0696 -0.4749  0.5783
46824SOL    HW147330   4.148  11.956  12.387 -0.6607 -0.3893 -0.2840
46824SOL    HW247331   4.071  12.048  12.479  0.7065 -0.6084  1.1185
46825SOL     OW47332   6.042  11.735   6.395 -0.4589 -0.0058  0.9799
46825SOL    HW147333   6.087  11.814   6.424 -0.0725 -0.0212  0.4144
46825SOL    HW247334   6.102  11.693   6.334 -1.3437  0.1229 -0.0082
46826SOL     OW47335   6.514   8.856  11.333  0.1903 -0.6216  0.2111
46826SOL    HW147336   6.468   8.883  11.413 -0.2528 -0.3621 -0.1326
46826SOL    HW247337   6.598   8.901  11.338  0.8709 -1.9227  1.3724
46827SOL     OW47338  10.649   1.236   4.069 -0.2668 -0.5486  0.7544
46827SOL    HW147339  10.727   1.285   4.095 -1.3839  1.5243  0.4089
46827SOL    HW247340  10.599   1.297   4.015 -1.1712 -2.5104 -0.7568
46828SOL     OW47341   7.438   3.853   1.051  1.1903  0.2417  0.0130
46828SOL    HW147342   7.430   3.765   1.014 -0.3672 -0.0044  0.8430
46828SOL    HW247343   7.532   3.864   1.065  1.2743 -2.2727  2.1626
46829SOL     OW47344   8.032   4.408   4.590  0.1508  0.1202 -0.3361
46829SOL    HW147345   7.956   4.410   4.648 -0.4468  1.8762 -1.0936
46829SOL    HW247346   8.063   4.499   4.589  1.8563 -0.4262 -0.5884
46830SOL     OW47347   2.730   8.432   3.279  0.6418 -0.0121  0.0264
46830SOL    HW147348   2.724   8.443   3.185  0.5606  0.5701  0.0964
46830SOL    HW247349   2.758   8.518   3.312 -2.1399  0.6989  0.8114
46831SOL     OW47350  11.342   4.613   3.585  0.0277 -0.3845  0.1116
46831SOL    HW147351  11.352   4.620   3.679  1.6251  0.3235 -0.0851
46831SOL    HW247352  11.251   4.639   3.568 -0.1982 -0.2899  1.4229
46832SOL     OW47353  10.191   5.278  12.186  0.1639 -0.5612  0.4511
46832SOL    HW147354  10.150   5.281  12.272  1.0000  1.7023  0.8377
46832SOL    HW247355  10.170   5.362  12.146 -0.4193 -1.6528 -1.7102
46833SOL     OW47356  10.179   0.786  11.520 -0.2973  0.1678  0.2499
46833SOL    HW147357  10.132   0.840  11.583 -1.1317 -2.1391  1.7054
46833SOL    HW247358  10.140   0.808  11.435  1.2886  3.8231  0.2652
46834SOL     OW47359   2.920  10.755   9.047  0.3698  0.2025  0.1111
46834SOL    HW147360   2.962  10.677   9.012  0.4803 -0.7749  2.2414
46834SOL    HW247361   2.890  10.803   8.970  0.1050 -2.0302 -1.2625
46835SOL     OW47362   1.035   6.652   4.843  0.0221  0.7568 -0.0211
46835SOL    HW147363   1.079   6.567   4.849 -1.5597 -0.0573  0.9123
46835SOL    HW247364   1.082   6.708   4.905 -0.3536 -0.1541  1.1258
46836SOL     OW47365   2.704   5.649   0.482 -0.0915  0.0077 -0.9357
46836SOL    HW147366   2.619   5.687   0.462  1.0891  0.9418 -5.2850
46836SOL    HW247367   2.764   5.724   0.484  0.9171 -0.7790  0.3620
46837SOL     OW47368   4.575   7.763   9.988 -0.7102 -0.4207 -0.4886
46837SOL    HW147369   4.577   7.672  10.018 -1.9406 -1.0277 -2.1568
46837SOL    HW247370   4.558   7.813  10.068  0.3456 -1.5892  0.5238
46838SOL     OW47371   1.418  12.390   4.657 -0.3283 -0.3788 -0.1680
46838SOL    HW147372   1.480  12.329   4.696 -0.9176 -0.0335  1.3715
46838SOL    HW247373   1.431  12.472   4.706  1.4823  1.2899 -3.0965
46839SOL     OW47374  10.106   3.372  10.506  0.2506  0.4636  0.2341
46839SOL    HW147375  10.061   3.387  10.422  1.2090  0.5263 -0.2782
46839SOL    HW247376  10.073   3.287  10.535  0.0676  0.3447 -0.3048
46840SOL     OW47377   1.727   9.529  12.515  0.3207 -0.5461  0.6139
46840SOL    HW147378   1.701   9.619  12.498  0.5750 -0.4889  0.5244
46840SOL    HW247379   1.708   9.515  12.608  0.0157 -0.4908  0.5597
46841SOL     OW47380   1.563   8.739   1.659 -0.0613 -0.2289  0.1697
46841SOL    HW147381   1.538   8.708   1.572  0.7322 -2.5889  0.6964
46841SOL    HW247382   1.536   8.669   1.718 -0.3519  1.2132  1.8051
46842SOL     OW47383   5.835   8.617   4.806 -0.0972  0.4834 -0.1248
46842SOL    HW147384   5.923   8.646   4.784 -0.1281  1.9778  1.4864
46842SOL    HW247385   5.793   8.599   4.722  1.4425  0.6252 -0.9484
46843SOL     OW47386   1.030   1.357   6.972  0.5432 -0.0170 -0.0096
46843SOL    HW147387   0.968   1.427   6.992  0.1868 -0.7633  1.6254
46843SOL    HW247388   1.033   1.304   7.051  3.3629  0.0371  0.0121
46844SOL     OW47389   1.693   5.785  11.166 -0.3647 -0.3106 -0.2071
46844SOL    HW147390   1.716   5.760  11.256 -1.2384 -0.6447 -0.0713
46844SOL    HW247391   1.671   5.878  11.172 -1.7568 -0.6517  0.1950
46845SOL     OW47392   2.608   6.743   7.136  1.0625 -0.1570  0.4374
46845SOL    HW147393   2.698   6.715   7.154  0.5643 -2.0802  0.1173
46845SOL    HW247394   2.579   6.782   7.218  1.6052 -1.1906  1.1536
46846SOL     OW47395   7.772   7.199  12.397 -0.1794  0.2844 -0.7112
46846SOL    HW147396   7.766   7.106  12.420  0.5741  0.3440 -0.2435
46846SOL    HW247397   7.696   7.215  12.341 -0.9743 -0.3355  0.1686
46847SOL     OW47398  12.539   7.008   4.452  0.5762 -0.0940 -0.0243
46847SOL    HW147399  12.604   7.032   4.386 -0.0877 -0.7110 -0.9157
46847SOL    HW247400  12.501   7.092   4.479 -1.6972  0.0024 -3.0857
46848SOL     OW47401   8.043   9.313   1.064 -0.5230  0.1443 -0.0188
46848SOL    HW147402   8.109   9.285   1.001 -0.1305  0.1203  0.3965
46848SOL    HW247403   8.057   9.407   1.074  0.9619 -0.2041  1.7557
46849SOL     OW47404   0.484   8.745   6.163  0.2826  0.4355 -0.5241
46849SOL    HW147405   0.394   8.748   6.133  0.7291 -0.0026 -1.9809
46849SOL    HW247406   0.487   8.806   6.237 -1.0190  1.0214 -0.9334
46850SOL     OW47407   7.180   5.489   2.378 -0.6550 -0.1713  0.0249
46850SOL    HW147408   7.169   5.578   2.343 -0.8617  0.1219  0.8164
46850SOL    HW247409   7.180   5.501   2.473  0.2145 -0.9164  0.1284
46851SOL     OW47410   1.921  10.979   4.356  0.0770 -0.0080 -0.4976
46851SOL    HW147411   1.834  10.977   4.316  0.0858  1.7170 -0.6678
46851SOL    HW247412   1.904  10.981   4.450 -0.0255 -0.6261 -0.4971
46852SOL     OW47413   5.761   8.518   3.028 -0.0834 -0.5458  0.0862
46852SOL    HW147414   5.849   8.497   3.059 -0.0169  0.0559  0.3002
46852SOL    HW247415   5.775   8.562   2.944 -0.2668 -2.3614 -0.9623
46853SOL     OW47416   8.884  12.146   4.552  0.0395 -0.2668 -0.6403
46853SOL    HW147417   8.908  12.063   4.510 -1.7389 -1.4485  0.5798
46853SOL    HW247418   8.951  12.208   4.522  1.1003 -1.9969 -2.0126
46854SOL     OW47419   0.910   9.414   2.328 -0.1373 -0.7841 -0.0341
46854SOL    HW147420   0.942   9.492   2.283 -0.9400  0.4586  1.4491
46854SOL    HW247421   0.973   9.400   2.399 -0.9792 -0.3776  0.8102
46855SOL     OW47422   4.190   4.820   1.629 -0.2799 -0.4329 -0.4034
46855SOL    HW147423   4.165   4.743   1.680  3.4307 -1.4364  0.2101
46855SOL    HW247424   4.107   4.862   1.606 -2.3431 -3.1048  1.5379
46856SOL     OW47425   2.405   1.324   5.228  0.2864  0.4734  0.3479
46856SOL    HW147426   2.311   1.323   5.249  0.6163 -0.2780  1.9401
46856SOL    HW247427   2.415   1.253   5.164 -0.3244  0.9821 -0.3297
46857SOL     OW47428   6.370   6.675  11.823 -0.1861 -0.1573 -0.0812
46857SOL    HW147429   6.314   6.661  11.900  0.8001 -1.0572  0.4929
46857SOL    HW247430   6.309   6.703  11.754 -1.1809 -0.0286  0.8297
46858SOL     OW47431   2.086   2.336   8.451 -0.5838 -0.0035  0.5557
46858SOL    HW147432   2.097   2.297   8.538 -1.5772 -0.7205  0.3756
46858SOL    HW247433   2.140   2.281   8.394  2.3476  2.0973  1.0747
46859SOL     OW47434   8.511   5.321   1.094 -0.0094 -0.2649 -0.8245
46859SOL    HW147435   8.564   5.398   1.073 -0.7393  0.1343 -1.2292
46859SOL    HW247436   8.522   5.263   1.019 -1.4357  0.5270 -1.6899
46860SOL     OW47437   0.780   4.092   5.369 -0.4055 -0.1807  0.2829
46860SOL    HW147438   0.836   4.024   5.407  1.2332  0.1161 -1.4692
46860SOL    HW247439   0.804   4.171   5.417  1.4702  0.1440 -1.1146
46861SOL     OW47440   4.676   3.012   7.003  0.4347  0.5017  0.3042
46861SOL    HW147441   4.755   3.006   6.949  0.3102 -1.0066  0.2280
46861SOL    HW247442   4.623   2.937   6.974 -0.8317  1.2417  0.6552
46862SOL     OW47443   3.295   0.080   8.102 -0.1345  0.6434 -0.1180
46862SOL    HW147444   3.389   0.060   8.104 -0.5710 -1.7144 -0.8933
46862SOL    HW247445   3.273   0.083   8.009 -0.7825  1.6244  0.0456
46863SOL     OW47446  11.539   1.108  11.488 -0.2422 -0.3548 -0.2086
46863SOL    HW147447  11.459   1.099  11.436 -0.5383 -0.6512  0.2843
46863SOL    HW247448  11.515   1.165  11.560 -0.1318 -0.8035  0.1869
46864SOL     OW47449  10.126   4.541  11.563  0.3756 -0.5564 -0.1455
46864SOL    HW147450  10.122   4.492  11.645  1.2031  0.2434  0.3898
46864SOL    HW247451  10.046   4.516  11.516 -0.2290 -0.8494  0.9990
46865SOL     OW47452   1.782   2.589   0.654  0.1371 -0.6502 -0.7084
46865SOL    HW147453   1.780   2.496   0.676 -0.4397 -0.3481  0.5859
46865SOL    HW247454   1.768   2.591   0.560  0.4138 -1.8807 -0.8007
46866SOL     OW47455  12.032   4.715   8.301  0.2283  0.0273 -0.3424
46866SOL    HW147456  12.074   4.709   8.386 -1.2985 -0.3594  0.4088
46866SOL    HW247457  12.029   4.809   8.282 -0.2567  0.1749  0.4576
46867SOL     OW47458   2.047   1.947   0.531 -0.1601 -0.5448  0.0314
46867SOL    HW147459   2.135   1.945   0.570  1.1250  0.5450 -2.5642
46867SOL    HW247460   2.034   1.858   0.499  0.5581 -0.4134 -0.6576
46868SOL     OW47461   7.584   8.301   9.043 -0.3231 -0.6735 -0.0217
46868SOL    HW147462   7.671   8.288   9.006 -0.6406 -0.7119 -0.7845
46868SOL    HW247463   7.540   8.358   8.980 -0.8160 -0.5729  0.4110
46869SOL     OW47464   2.985   6.477   3.586  0.3960 -0.4288 -0.1880
46869SOL    HW147465   2.951   6.534   3.518  1.3447  0.3200 -0.0585
46869SOL    HW247466   3.071   6.450   3.554  0.3796 -0.9811  0.2099
46870SOL     OW47467   6.682   7.471   3.300  0.1503 -0.0559  0.3927
46870SOL    HW147468   6.699   7.561   3.271  0.5924 -0.4671 -0.6885
46870SOL    HW247469   6.733   7.463   3.381  2.7171 -0.2621 -1.1239
46871SOL     OW47470   5.992   9.812   9.642 -0.5686  0.4297  0.6704
46871SOL    HW147471   6.057   9.882   9.631  0.4798 -0.4886  0.9171
46871SOL    HW247472   5.925   9.851   9.699  0.0618  1.1867  0.9166
46872SOL     OW47473  12.178   5.754   0.825 -0.5050 -0.0060  0.3631
46872SOL    HW147474  12.135   5.805   0.894 -1.3644 -0.1144 -0.0743
46872SOL    HW247475  12.145   5.792   0.743 -0.4001 -0.6223  0.0259
46873SOL     OW47476   6.419   1.340   9.080  0.6577  0.3199 -0.4905
46873SOL    HW147477   6.335   1.293   9.078  1.1049 -0.5014 -1.0408
46873SOL    HW247478   6.481   1.277   9.042  1.6237  0.7098  0.4181
46874SOL     OW47479   3.805   2.799   6.341  0.0982 -0.1893  0.1880
46874SOL    HW147480   3.831   2.822   6.430  0.4728  0.1593 -0.0117
46874SOL    HW247481   3.824   2.705   6.334 -2.4433 -0.8769  1.3613
46875SOL     OW47482  10.431   6.866   6.984  0.2177 -0.2651 -0.2035
46875SOL    HW147483  10.363   6.879   6.917  0.0144  0.3916  0.1185
46875SOL    HW247484  10.466   6.954   6.999 -0.1297 -0.3142  0.9737
46876SOL     OW47485   4.319  12.216   6.635  0.4267 -0.1359 -0.3087
46876SOL    HW147486   4.401  12.189   6.676  0.1962 -0.1745  0.1404
46876SOL    HW247487   4.286  12.136   6.594  0.5898 -0.1305 -0.4516
46877SOL     OW47488   1.563   8.336   8.304  0.1003 -0.0381  0.1828
46877SOL    HW147489   1.492   8.273   8.293 -0.3479 -0.1464  3.0060
46877SOL    HW247490   1.622   8.318   8.230 -1.8606 -1.1563 -1.2126
46878SOL     OW47491   8.225   8.263   4.752  0.2267 -0.7921  0.0882
46878SOL    HW147492   8.302   8.214   4.722  0.3851 -0.6299  0.2229
46878SOL    HW247493   8.151   8.204   4.736  0.0453 -0.0162 -2.4032
46879SOL     OW47494   6.623   1.154   3.028  0.1921 -0.8275  0.1928
46879SOL    HW147495   6.530   1.151   3.049 -0.1103 -0.6221 -1.0469
46879SOL    HW247496   6.638   1.074   2.976  0.4654 -0.3508 -0.4811
46880SOL     OW47497   0.846   6.763   3.221  0.3565  0.2909  0.1340
46880SOL    HW147498   0.861   6.755   3.126  0.5368  0.3888  0.1539
46880SOL    HW247499   0.766   6.714   3.237  0.5277 -0.0365 -0.0118
46881SOL     OW47500  11.826   0.426   6.229  0.4151  0.1279 -0.8105
46881SOL    HW147501  11.769   0.444   6.154 -0.7098  1.3081  0.2783
46881SOL    HW247502  11.908   0.395   6.190 -0.1879  0.5685 -2.5113
46882SOL     OW47503   3.716   9.981   8.754 -0.3096 -0.0211 -0.0557
46882SOL    HW147504   3.805  10.011   8.772 -0.0027 -0.9369 -0.0192
46882SOL    HW247505   3.672  10.058   8.717  1.2679 -0.2882 -2.7188
46883SOL     OW47506   3.062   9.227   2.178  0.2310 -0.6204 -0.7015
46883SOL    HW147507   3.123   9.167   2.136  1.2639 -0.2015  0.1168
46883SOL    HW247508   3.063   9.305   2.122  0.3613 -0.6589 -0.7541
46884SOL     OW47509   4.976   5.029   1.693 -0.4221 -0.0380 -0.3596
46884SOL    HW147510   5.019   4.944   1.697  0.8463  0.6136  1.8903
46884SOL    HW247511   4.885   5.009   1.669  0.3374 -1.7632 -2.0486
46885SOL     OW47512   3.726   5.791   4.974  0.3533 -0.5303 -0.8208
46885SOL    HW147513   3.637   5.815   4.946  0.1186  0.8760  0.9078
46885SOL    HW247514   3.713   5.727   5.044  0.5504  0.7658  0.4780
46886SOL     OW47515   9.396   6.656  11.510  0.4474  0.2659 -0.6394
46886SOL    HW147516   9.332   6.670  11.440  0.0707 -0.3332 -0.4225
46886SOL    HW247517   9.394   6.562  11.526  0.6429  0.3763  0.0626
46887SOL     OW47518   3.995   4.826   7.222 -0.2855  0.3477 -0.1553
46887SOL    HW147519   3.979   4.817   7.128 -0.8183  0.9408 -0.1273
46887SOL    HW247520   3.933   4.764   7.263  0.6327 -0.6474 -0.2201
46888SOL     OW47521   6.627   9.712   4.622 -0.3505  0.0722  0.0795
46888SOL    HW147522   6.605   9.620   4.607 -1.0482  0.5247 -1.9321
46888SOL    HW247523   6.704   9.709   4.679 -0.9421 -1.7210  0.8506
46889SOL     OW47524  11.673   6.291  10.514 -0.2634  0.3690 -0.5158
46889SOL    HW147525  11.661   6.285  10.419  0.6257  0.8444 -0.6686
46889SOL    HW247526  11.762   6.323  10.525  0.1579 -1.0711  0.5119
46890SOL     OW47527   2.033   5.600   8.395 -0.5389  0.1444 -0.5317
46890SOL    HW147528   1.993   5.630   8.313 -0.0842  2.4202  0.0192
46890SOL    HW247529   1.966   5.545   8.435 -0.8632 -0.8284 -2.2936
46891SOL     OW47530   6.390   8.708   8.898  0.0409  0.0368  0.6400
46891SOL    HW147531   6.442   8.658   8.961 -0.2485 -0.6153  0.3716
46891SOL    HW247532   6.300   8.702   8.930 -0.3105 -1.3541 -0.4600
46892SOL     OW47533   5.920  10.283   7.226  0.0041  0.0249  0.2068
46892SOL    HW147534   5.898  10.302   7.135  0.0108  0.0528  0.2112
46892SOL    HW247535   6.013  10.263   7.225  0.6409  2.6971  0.6181
46893SOL     OW47536   7.143  11.270   1.983 -0.4946  0.1564  0.0224
46893SOL    HW147537   7.171  11.178   1.989 -1.2448 -0.1104 -0.4058
46893SOL    HW247538   7.101  11.287   2.067 -0.0755  0.2128  0.2263
46894SOL     OW47539   1.391   0.614   1.827 -0.5533  0.3693 -0.1384
46894SOL    HW147540   1.399   0.536   1.773 -0.7632  0.1772  0.1083
46894SOL    HW247541   1.311   0.601   1.878 -0.5659  0.7229 -0.0635
46895SOL     OW47542  11.763   6.988  10.242  0.1721  0.5780 -0.3256
46895SOL    HW147543  11.782   7.059  10.181  1.7819  1.0713  0.6971
46895SOL    HW247544  11.723   7.032  10.317  0.5079  0.3099  0.0109
46896SOL     OW47545   4.697   2.933   2.754 -0.1795 -0.3373 -0.3745
46896SOL    HW147546   4.679   2.964   2.843 -1.4626 -0.6425 -0.5041
46896SOL    HW247547   4.652   2.849   2.749 -0.5487 -0.0842 -1.4833
46897SOL     OW47548   1.584   0.583   7.072  0.2258  0.3059 -0.4294
46897SOL    HW147549   1.492   0.571   7.096  0.3229  0.8545  0.2326
46897SOL    HW247550   1.584   0.658   7.012  0.2086  0.1208 -0.6623
46898SOL     OW47551   3.101   7.087   4.960  0.1315 -0.1090  0.5374
46898SOL    HW147552   3.034   7.051   5.017 -1.1861  1.4556  0.0508
46898SOL    HW247553   3.140   7.158   5.011  0.5869 -0.2233  0.3537
46899SOL     OW47554   1.061   6.484  10.016 -0.3771 -0.3504 -0.5776
46899SOL    HW147555   1.000   6.500   9.944 -0.3401 -1.3628 -0.8516
46899SOL    HW247556   1.114   6.564  10.021  0.2304 -0.6081 -2.2810
46900SOL     OW47557   6.557   4.414   2.249 -0.1527  0.2994 -0.1232
46900SOL    HW147558   6.499   4.350   2.290 -0.1239  0.2945 -0.0899
46900SOL    HW247559   6.501   4.460   2.187  0.2445 -1.0419 -1.5396
46901SOL     OW47560   1.152   6.481   3.008  0.6106  0.1492  0.2634
46901SOL    HW147561   1.147   6.541   2.933 -0.2236  0.7127  0.7540
46901SOL    HW247562   1.112   6.400   2.976 -2.5699  1.3088  0.9359
46902SOL     OW47563   3.754   6.537   6.580  0.3488  0.5179 -0.5098
46902SOL    HW147564   3.762   6.597   6.505  0.9463  0.3762 -0.5628
46902SOL    HW247565   3.844   6.528   6.613  0.0795  0.6389  0.2702
46903SOL     OW47566   7.164  12.077   0.110  0.5847  0.9177 -0.0906
46903SOL    HW147567   7.142  12.065   0.018  2.3149  1.7143 -0.6517
46903SOL    HW247568   7.260  12.075   0.112  0.5744 -0.7670  1.9410
46904SOL     OW47569   0.764   0.447   3.110  0.2195  0.5177  0.6503
46904SOL    HW147570   0.711   0.525   3.098 -2.4392 -1.2479  0.1833
46904SOL    HW247571   0.784   0.418   3.021  0.4704  0.1873  0.8096
46905SOL     OW47572   7.035  11.315   1.301  0.2875  0.3389 -0.0943
46905SOL    HW147573   7.056  11.228   1.265 -1.5795  0.4429 -1.6203
46905SOL    HW247574   6.977  11.296   1.375  0.0789  0.2805 -0.2727
46906SOL     OW47575   5.103   3.789  11.481  0.5267  0.0064 -0.0718
46906SOL    HW147576   5.148   3.850  11.541  1.2154 -0.5683  0.0125
46906SOL    HW247577   5.174   3.742  11.438 -0.0037 -1.3453  0.4897
46907SOL     OW47578   6.671  10.651   8.991 -0.1978  0.0600  0.1099
46907SOL    HW147579   6.583  10.662   8.954 -0.0476  0.3682 -0.1629
46907SOL    HW247580   6.668  10.700   9.073 -0.0678  0.6801 -0.2469
46908SOL     OW47581   3.768   5.242   7.502  0.3683  0.4840  0.2546
46908SOL    HW147582   3.680   5.223   7.534  0.5712  0.1913  0.6559
46908SOL    HW247583   3.820   5.258   7.581  1.0306 -0.9099  0.1476
46909SOL     OW47584   7.654   6.535  12.389  0.3457 -0.0356  0.1684
46909SOL    HW147585   7.644   6.443  12.411  1.5968 -0.2008  0.1061
46909SOL    HW247586   7.685   6.535  12.299 -2.0031  0.5480 -0.6992
46910SOL     OW47587   8.082   5.927   6.729  0.2446 -0.4334  0.4980
46910SOL    HW147588   8.003   5.914   6.782 -0.8493  0.6353 -0.7818
46910SOL    HW247589   8.069   6.013   6.688  1.1484 -1.1014 -1.2925
46911SOL     OW47590   8.565   1.362   5.203  0.4483 -0.5432  0.7275
46911SOL    HW147591   8.508   1.292   5.170  1.1832 -1.2031  0.8126
46911SOL    HW247592   8.521   1.394   5.282 -0.7510  0.2719 -0.2317
46912SOL     OW47593   4.910   5.737   1.720  0.5325 -1.0501  0.0460
46912SOL    HW147594   4.970   5.760   1.649  0.8870  0.2184  0.7379
46912SOL    HW247595   4.937   5.791   1.794 -0.7137 -1.3288  0.7446
46913SOL     OW47596  10.704  11.797   9.990  0.0855  0.1582  0.0504
46913SOL    HW147597  10.777  11.742   9.962  0.1401  0.5104 -0.5038
46913SOL    HW247598  10.681  11.848   9.913 -1.3576 -0.6023 -0.0630
46914SOL     OW47599   9.122   7.645   6.238 -0.1460  0.1938  0.2899
46914SOL    HW147600   9.172   7.600   6.170  1.2554 -0.4569  1.6786
46914SOL    HW247601   9.174   7.722   6.259  0.1490 -0.3171  1.5253
46915SOL     OW47602   7.494   2.192  12.268 -0.6776  0.3197 -0.0752
46915SOL    HW147603   7.424   2.245  12.230 -0.1191  0.6110 -0.7273
46915SOL    HW247604   7.559   2.256  12.297 -0.2402  0.0201 -0.3748
46916SOL     OW47605   9.247   3.056   8.871 -0.1461  0.1700 -0.0365
46916SOL    HW147606   9.159   3.056   8.834  0.3868 -1.9691 -1.4943
46916SOL    HW247607   9.237   3.015   8.957 -0.3645 -2.0111 -1.0245
46917SOL     OW47608   3.663  11.435  10.706  0.0692 -0.7038  0.6370
46917SOL    HW147609   3.621  11.356  10.741 -1.2962 -0.3229 -0.0868
46917SOL    HW247610   3.596  11.502  10.711  0.5024 -0.1276 -0.7995
46918SOL     OW47611   4.554   9.717   5.991  0.6202  0.5085  0.4642
46918SOL    HW147612   4.610   9.650   6.029  1.8007  0.9581 -0.4249
46918SOL    HW247613   4.553   9.788   6.056  0.8690  0.3828  0.6049
46919SOL     OW47614   0.926   7.008  11.246 -0.3198  0.1403  0.5977
46919SOL    HW147615   0.973   7.090  11.257  1.0693 -0.3450 -1.1495
46919SOL    HW247616   0.987   6.941  11.277 -0.5937 -0.3687  0.0625
46920SOL     OW47617   3.537   2.954   7.754  0.1145  0.2283 -0.1507
46920SOL    HW147618   3.565   3.041   7.782  1.8471  0.2303 -1.6812
46920SOL    HW247619   3.616   2.900   7.762 -1.7230 -2.2666  4.3296
46921SOL     OW47620  11.379  12.022   9.384  0.1011 -0.5857 -0.4050
46921SOL    HW147621  11.446  12.063   9.438 -1.8201  1.3316  0.6656
46921SOL    HW247622  11.392  11.928   9.397 -0.0050 -0.2339  3.1512
46922SOL     OW47623  10.872   6.431   8.355  0.4656 -0.0525  0.2632
46922SOL    HW147624  10.824   6.449   8.274  0.0926  0.1269  0.5208
46922SOL    HW247625  10.963   6.449   8.334  0.2848  0.6562  0.0736
46923SOL     OW47626   6.290   8.211   7.307 -0.4089 -0.4062 -0.4465
46923SOL    HW147627   6.373   8.187   7.349  0.9593  1.1753 -2.0759
46923SOL    HW247628   6.307   8.201   7.214 -1.9292  0.3795 -0.8345
46924SOL     OW47629   1.316  11.220   4.604 -0.4304  0.4100  0.2341
46924SOL    HW147630   1.220  11.214   4.614 -0.6099  2.3017 -0.1111
46924SOL    HW247631   1.348  11.135   4.637 -2.2885 -0.7626 -0.7817
46925SOL     OW47632   3.461   9.442   2.698 -0.2560  0.2797 -0.0009
46925SOL    HW147633   3.455   9.383   2.774 -0.2757  1.2108  0.7324
46925SOL    HW247634   3.468   9.383   2.623 -0.6690 -0.6670  0.6829
46926SOL     OW47635   2.023   7.757   3.736 -0.5603  0.1145  0.0348
46926SOL    HW147636   1.949   7.785   3.789 -0.4459 -0.5411  0.5570
46926SOL    HW247637   2.076   7.703   3.796  1.3389  2.1075  0.2731
46927SOL     OW47638   1.537  10.996   2.784  0.4642  0.1552 -0.0111
46927SOL    HW147639   1.590  11.068   2.749 -0.8082 -0.4977 -3.7039
46927SOL    HW247640   1.525  10.937   2.709 -2.4719 -1.5132  1.6147
46928SOL     OW47641   9.233   6.851   2.331 -0.2822  0.0640  0.6137
46928SOL    HW147642   9.173   6.777   2.338 -0.0796 -0.2067 -0.3646
46928SOL    HW247643   9.176   6.926   2.312 -0.3093 -0.2290 -0.5187
46929SOL     OW47644   5.057  12.168   3.793  0.6635  0.3144 -0.6764
46929SOL    HW147645   4.965  12.142   3.783  1.4152 -2.1196 -2.2826
46929SOL    HW247646   5.053  12.256   3.831 -2.3963  1.2745 -2.7846
46930SOL     OW47647  12.193   2.437   0.401  0.0688  0.5409 -0.1453
46930SOL    HW147648  12.103   2.413   0.376  0.6363  0.3192 -2.1756
46930SOL    HW247649  12.182   2.517   0.453 -1.2782  1.1667 -1.2844
46931SOL     OW47650  10.064   7.019   7.697  0.0447 -0.4573 -0.4372
46931SOL    HW147651   9.994   7.041   7.636 -0.6385  0.1023  0.5073
46931SOL    HW247652  10.145   7.034   7.649 -0.4743 -0.1719 -1.2383
46932SOL     OW47653   8.167   4.074  10.210  0.2899  0.6166 -0.2009
46932SOL    HW147654   8.229   4.006  10.186 -0.2685  0.4274 -1.1110
46932SOL    HW247655   8.215   4.156  10.195 -0.1080  0.5236 -2.2304
46933SOL     OW47656   4.123   2.844   7.126 -0.4426 -0.2923 -0.0922
46933SOL    HW147657   4.189   2.775   7.122 -0.3668 -0.4350  2.4453
46933SOL    HW247658   4.135   2.892   7.044  0.9274 -1.9712 -0.9526
46934SOL     OW47659   3.742   5.480  12.327 -0.1816 -0.5500  0.1838
46934SOL    HW147660   3.743   5.415  12.257 -0.6836 -0.1097 -0.2470
46934SOL    HW247661   3.677   5.447  12.389  1.3484 -1.7191  1.2295
46935SOL     OW47662   1.488   3.723   2.575  0.4125  0.1614  0.0522
46935SOL    HW147663   1.458   3.658   2.637  0.1236 -0.0890 -0.3458
46935SOL    HW247664   1.520   3.673   2.500  3.4426  0.3037  1.0906
46936SOL     OW47665   6.835  10.907   5.876  0.3642  0.1452 -0.0050
46936SOL    HW147666   6.819  10.817   5.845  0.3234 -0.3586  1.4090
46936SOL    HW247667   6.751  10.935   5.911  1.1275 -0.5273  2.5727
46937SOL     OW47668   1.744   5.395   8.137 -0.1752 -0.2112 -0.2494
46937SOL    HW147669   1.684   5.457   8.097 -0.0878 -0.0880 -0.1886
46937SOL    HW247670   1.693   5.314   8.146  0.0393 -0.4795 -1.3298
46938SOL     OW47671   7.440  11.757   8.089 -0.1636  0.1777  0.1663
46938SOL    HW147672   7.488  11.788   8.166 -0.8801 -0.3746  0.8517
46938SOL    HW247673   7.465  11.665   8.080  0.3399  0.3823 -0.5991
46939SOL     OW47674   4.697  12.228   6.560 -0.0781 -0.5020 -1.3022
46939SOL    HW147675   4.640  12.230   6.483 -1.0745 -0.9308 -0.5923
46939SOL    HW247676   4.714  12.321   6.579 -2.9679 -0.1788  0.2072
46940SOL     OW47677   2.411   0.896   6.149 -0.1731 -0.4476  0.0969
46940SOL    HW147678   2.431   0.803   6.138  0.6625 -0.1709 -0.8310
46940SOL    HW247679   2.317   0.898   6.165 -0.1680 -1.4652  0.3933
46941SOL     OW47680   3.007   6.171   3.052 -0.2854  0.0052  0.2579
46941SOL    HW147681   2.924   6.178   3.005  0.3714  2.3426 -0.7128
46941SOL    HW247682   2.992   6.221   3.133 -0.4950 -1.5287  1.2057
46942SOL     OW47683  11.519  12.193   7.571 -0.0026 -0.5668 -0.0567
46942SOL    HW147684  11.583  12.195   7.642 -0.6320  0.8984  0.5202
46942SOL    HW247685  11.565  12.229   7.496 -0.2513  0.9815  0.4925
46943SOL     OW47686  11.498   2.436   5.368 -0.0281 -0.4483  0.0734
46943SOL    HW147687  11.421   2.397   5.326 -0.1906 -0.0119 -0.0367
46943SOL    HW247688  11.490   2.530   5.351 -0.2217 -0.2285  1.2876
46944SOL     OW47689   3.538   1.909   0.005  0.1761 -0.1693  0.2325
46944SOL    HW147690   3.475   1.926  -0.065  1.8189 -0.7092 -1.4460
46944SOL    HW247691   3.621   1.943  -0.028  1.3532 -1.9142  1.2052
46945SOL     OW47692  10.834   2.226   5.327 -0.4982  0.0726 -0.6117
46945SOL    HW147693  10.757   2.283   5.325 -1.3243 -0.9552  0.5237
46945SOL    HW247694  10.850   2.203   5.235 -2.3567 -0.7419 -0.7718
46946SOL     OW47695   1.720   5.541   5.552  0.1350  0.0155 -0.1469
46946SOL    HW147696   1.671   5.473   5.506  1.3029 -0.9925  0.0400
46946SOL    HW247697   1.660   5.571   5.620  0.0890 -1.9120  0.7384
46947SOL     OW47698   9.651  10.018   0.064  0.2134 -0.5035 -0.0006
46947SOL    HW147699   9.582  10.047   0.124  1.1358 -0.4518  1.0779
46947SOL    HW247700   9.613  10.029  -0.023 -0.3953  1.5364  0.4568
46948SOL     OW47701   5.824   7.352   2.471  0.4674  0.2429  0.1041
46948SOL    HW147702   5.850   7.435   2.431  0.6891 -0.0927 -0.4718
46948SOL    HW247703   5.801   7.296   2.396 -0.4648  0.0441  0.5319
46949SOL     OW47704   8.933   6.598   4.489  0.1819 -0.5048 -0.1215
46949SOL    HW147705   8.966   6.649   4.415 -1.9967  0.4061 -0.5504
46949SOL    HW247706   8.878   6.659   4.538  0.7744 -1.3730  1.7330
46950SOL     OW47707   7.588   5.858   8.682  0.3603  0.2556  0.1941
46950SOL    HW147708   7.659   5.906   8.640  1.7382 -0.2638  1.8352
46950SOL    HW247709   7.560   5.913   8.755  2.5298 -1.6304  2.6256
46951SOL     OW47710   0.255  11.305   4.066 -0.6491 -0.1839  0.2351
46951SOL    HW147711   0.259  11.400   4.076  0.0229 -0.1200 -0.5025
46951SOL    HW247712   0.264  11.290   3.972 -0.5302 -0.9875  0.3640
46952SOL     OW47713   3.990   1.985   0.651  0.0167  0.0834  0.1682
46952SOL    HW147714   4.034   1.944   0.725  2.0862  1.4842 -0.2042
46952SOL    HW247715   3.900   1.997   0.680  0.3323 -1.0609  1.7308
46953SOL     OW47716   1.351   3.396   0.884 -0.1200  0.1104  0.1787
46953SOL    HW147717   1.330   3.471   0.827 -1.6895 -0.4773 -0.0729
46953SOL    HW247718   1.319   3.422   0.970 -0.2700 -0.0844  0.1830
46954SOL     OW47719   0.647  10.042   9.866 -0.4038 -0.3738 -0.6278
46954SOL    HW147720   0.719  10.003   9.817 -0.4058  0.5169 -1.3678
46954SOL    HW247721   0.568  10.015   9.819 -0.3849  0.7753 -1.3640
46955SOL     OW47722   6.917  10.885   4.803  0.3660 -0.4091  0.2647
46955SOL    HW147723   7.013  10.882   4.813  0.3374  0.9228  1.1496
46955SOL    HW247724   6.884  10.880   4.893 -0.3778 -0.2148  0.0079
46956SOL     OW47725   3.283   5.406   6.288 -0.2767  0.8743 -0.0412
46956SOL    HW147726   3.216   5.462   6.328 -0.6258  0.2648  0.2399
46956SOL    HW247727   3.233   5.345   6.233  0.0788  0.6651 -0.1351
46957SOL     OW47728  10.485   3.461   9.630  0.4549  0.0170  0.0568
46957SOL    HW147729  10.398   3.421   9.633  0.7494 -0.5897  1.5293
46957SOL    HW247730  10.545   3.387   9.623  0.8976  0.3653  0.1040
46958SOL     OW47731  10.372   1.847  12.399  0.1401 -1.0402 -0.2452
46958SOL    HW147732  10.286   1.805  12.397 -0.4624  0.1274  0.0127
46958SOL    HW247733  10.393   1.854  12.492  0.3861 -1.0867 -0.2976
46959SOL     OW47734  12.264   4.594   0.891 -0.6961  0.0066  0.3217
46959SOL    HW147735  12.229   4.676   0.927 -1.4198 -1.1814  2.5523
46959SOL    HW247736  12.353   4.588   0.927 -1.4178 -1.1836  2.0577
46960SOL     OW47737   0.877   5.753  10.991 -0.1761  0.3689 -0.3629
46960SOL    HW147738   0.915   5.802  11.064 -1.5903  0.0220  0.6413
46960SOL    HW247739   0.800   5.709  11.028 -0.0396 -1.0944 -1.6863
46961SOL     OW47740  11.891  11.843   1.076  0.4856  0.1062 -0.0470
46961SOL    HW147741  11.885  11.904   1.151  0.8076  2.1260 -1.5712
46961SOL    HW247742  11.939  11.768   1.110 -1.0651  0.0734  2.3006
46962SOL     OW47743   3.686   3.879   7.294 -0.5741  0.4918 -0.1248
46962SOL    HW147744   3.663   3.950   7.354  1.5335  0.7574  0.4477
46962SOL    HW247745   3.673   3.799   7.345 -1.6333  0.5219 -0.3227
46963SOL     OW47746   7.627   8.567   6.809  0.4441  0.1243 -0.0543
46963SOL    HW147747   7.577   8.647   6.796 -0.2126 -0.3173 -0.2624
46963SOL    HW247748   7.645   8.565   6.903 -2.5545 -1.2266  0.6101
46964SOL     OW47749   3.072   7.960  12.141 -0.0736  0.3411  0.8408
46964SOL    HW147750   3.099   8.046  12.108  0.3155 -0.5543 -1.3883
46964SOL    HW247751   3.153   7.909  12.144 -0.7303 -0.9605 -1.3293
46965SOL     OW47752   8.221  10.573   1.717  0.4856 -0.1489 -0.0980
46965SOL    HW147753   8.126  10.572   1.731  0.1912 -0.1664 -1.8748
46965SOL    HW247754   8.234  10.520   1.639  1.8543  0.6095 -0.4152
46966SOL     OW47755  10.067  11.728   8.900 -0.9185 -0.3454  0.4173
46966SOL    HW147756   9.974  11.741   8.880 -1.1612 -0.2903  1.5059
46966SOL    HW247757  10.078  11.766   8.987 -0.0067 -0.8951  0.5546
46967SOL     OW47758   7.238   3.635  11.770 -0.6415  0.1858 -0.3897
46967SOL    HW147759   7.276   3.549  11.790 -1.1326  0.1747  0.5047
46967SOL    HW247760   7.283   3.662  11.690  0.3562 -0.3835 -0.0394
46968SOL     OW47761  11.915   8.483   7.878  0.3224 -0.3393 -0.0406
46968SOL    HW147762  11.906   8.545   7.951  0.8226 -0.4461  0.1145
46968SOL    HW247763  11.969   8.530   7.814 -1.3418  0.3333 -1.0057
46969SOL     OW47764   5.308   7.491   9.250  0.3646 -0.0827 -0.2052
46969SOL    HW147765   5.252   7.428   9.206 -0.2842 -0.4111  1.0545
46969SOL    HW247766   5.319   7.456   9.339  1.9763  0.3386 -0.1923
46970SOL     OW47767   4.664   8.586   6.094 -0.2238  0.0941 -0.6100
46970SOL    HW147768   4.573   8.565   6.111 -0.2608 -0.7564 -1.7419
46970SOL    HW247769   4.661   8.655   6.027 -0.0305  0.4048 -0.3067
46971SOL     OW47770   3.801  10.372   3.044  0.5053 -0.0194 -0.6242
46971SOL    HW147771   3.783  10.289   3.000 -0.2463  0.6734 -1.6923
46971SOL    HW247772   3.881  10.356   3.094 -0.9276 -2.1102  1.1869
46972SOL     OW47773   0.674   5.958   2.352  0.2065  0.4102  0.2050
46972SOL    HW147774   0.624   5.962   2.270 -0.4465  0.0585  0.5781
46972SOL    HW247775   0.757   5.918   2.327 -0.8875 -1.9561  0.1238
46973SOL     OW47776   9.373   7.494   4.962 -0.2188 -0.0267  0.0448
46973SOL    HW147777   9.333   7.542   5.035  1.7077  0.5029  0.8027
46973SOL    HW247778   9.443   7.551   4.931 -1.0812 -0.1895 -2.3652
46974SOL     OW47779   2.350   3.508  11.668  0.4743 -0.2005  0.3766
46974SOL    HW147780   2.389   3.557  11.741  1.5408 -0.8704  0.2703
46974SOL    HW247781   2.424   3.466  11.625 -0.2656 -0.6732 -0.4632
46975SOL     OW47782   4.456   0.275   2.884  0.3780  0.0007  0.1602
46975SOL    HW147783   4.391   0.338   2.851  0.7621  0.0655 -0.4920
46975SOL    HW247784   4.513   0.327   2.941  1.1003  0.4074 -0.9058
46976SOL     OW47785   2.243   6.774   1.534 -0.9509 -0.4092 -0.3206
46976SOL    HW147786   2.164   6.821   1.559 -1.4473 -1.4193  0.0797
46976SOL    HW247787   2.212   6.701   1.481 -0.3313 -0.9995  0.1069
46977SOL     OW47788  10.948   8.991   5.538 -0.0841 -0.0700  0.4591
46977SOL    HW147789  10.887   9.065   5.541  0.5839  0.5320 -0.1869
46977SOL    HW247790  10.928   8.947   5.456  0.7731  0.5354 -0.1027
46978SOL     OW47791   6.979   0.736   1.677 -0.1541 -0.5395 -0.5067
46978SOL    HW147792   7.029   0.675   1.730 -0.9988 -1.3127 -0.5738
46978SOL    HW247793   6.986   0.820   1.722  0.3959 -0.8549 -0.0073
46979SOL     OW47794  11.704   5.622   3.329 -0.4013  0.2645  0.7874
46979SOL    HW147795  11.655   5.580   3.399 -0.8789  0.9096  0.8533
46979SOL    HW247796  11.793   5.630   3.363 -0.3688 -0.4330  0.8771
46980SOL     OW47797   5.825   2.793   7.799  0.1200  0.0209 -0.3477
46980SOL    HW147798   5.891   2.782   7.732 -1.1993 -0.7958 -1.5791
46980SOL    HW247799   5.753   2.838   7.755 -1.8143 -2.7415 -0.3076
46981SOL     OW47800   0.153   8.362   3.040 -0.7909 -0.0288 -0.4165
46981SOL    HW147801   0.170   8.393   3.129  1.0258  2.8630 -1.6218
46981SOL    HW247802   0.233   8.382   2.992 -2.5414  0.7838 -3.2252
46982SOL     OW47803   3.073   6.530   6.809  0.3322 -0.3334  0.4940
46982SOL    HW147804   3.015   6.549   6.735  0.0233 -1.0801  0.5440
46982SOL    HW247805   3.081   6.614   6.855  0.9496  0.2812 -0.6757
46983SOL     OW47806   0.469   6.598   5.832 -0.3078 -0.7855 -0.3974
46983SOL    HW147807   0.452   6.529   5.897 -1.1886 -0.7234 -0.5545
46983SOL    HW247808   0.435   6.564   5.750  0.0786 -0.5321 -0.6679
46984SOL     OW47809   2.534  11.150  11.487 -0.0972 -0.1511  0.1375
46984SOL    HW147810   2.472  11.078  11.481 -0.0297 -0.1566 -0.7239
46984SOL    HW247811   2.525  11.196  11.403 -0.2657  0.9432  0.7393
46985SOL     OW47812   5.528   4.594   9.508  0.2645 -0.1577 -0.3060
46985SOL    HW147813   5.512   4.653   9.582 -2.8041 -1.2532  0.0443
46985SOL    HW247814   5.592   4.530   9.542 -1.9804 -1.3926  1.9538
46986SOL     OW47815   9.193   0.409  10.147  0.1206  0.5723  0.0341
46986SOL    HW147816   9.100   0.397  10.128  0.1096 -3.5298  1.6025
46986SOL    HW247817   9.195   0.452  10.233 -0.3646  0.0064  0.3354
46987SOL     OW47818   0.840   9.253   2.889 -0.5200 -0.4479  0.2470
46987SOL    HW147819   0.926   9.282   2.920 -0.2004 -0.5434 -0.5037
46987SOL    HW247820   0.818   9.315   2.819 -1.4145  0.0205  0.9372
46988SOL     OW47821   7.052   8.773   5.445  0.5314 -0.2515 -0.1344
46988SOL    HW147822   7.045   8.697   5.503 -1.7726 -0.7199 -0.8967
46988SOL    HW247823   7.077   8.738   5.360 -1.5141 -0.4013 -0.7489
46989SOL     OW47824  12.552   4.117   1.311 -0.3718 -0.5342  0.0228
46989SOL    HW147825  12.474   4.108   1.256 -0.6694 -0.7666  0.4814
46989SOL    HW247826  12.573   4.211   1.307 -1.0505 -0.3589  0.4035
46990SOL     OW47827   5.454   1.216   8.749 -0.2226  0.2476  0.8195
46990SOL    HW147828   5.495   1.250   8.828  1.3281  0.4825 -0.0470
46990SOL    HW247829   5.404   1.289   8.714  1.3832  1.0283  0.0928
46991SOL     OW47830   0.847  12.087   1.062 -0.5645  0.5265 -0.0788
46991SOL    HW147831   0.940  12.065   1.059 -0.9166 -1.2061 -3.1894
46991SOL    HW247832   0.844  12.181   1.049  0.7769  0.4462 -1.2605
46992SOL     OW47833   9.751   6.363   0.042 -0.1915 -0.6253  0.5422
46992SOL    HW147834   9.751   6.269   0.060 -1.1680 -0.9965 -1.1329
46992SOL    HW247835   9.841   6.384   0.019  0.0028 -1.1869  0.7934
46993SOL     OW47836   7.631   6.047   3.210 -0.1337  0.6980 -0.0035
46993SOL    HW147837   7.657   6.139   3.222  1.1227  0.6765 -2.1091
46993SOL    HW247838   7.562   6.050   3.143 -1.3788  0.2153  1.2077
46994SOL     OW47839   8.090   5.729  11.836 -0.2680 -0.4114  0.4137
46994SOL    HW147840   8.144   5.783  11.893  1.1970 -1.4580  0.0564
46994SOL    HW247841   8.006   5.722  11.882  0.0996  0.7023  1.2916
46995SOL     OW47842   9.637   0.669   4.816 -0.1841 -0.0391  0.0469
46995SOL    HW147843   9.642   0.738   4.882 -3.2588  0.6240 -0.2265
46995SOL    HW247844   9.658   0.713   4.733 -0.9445  0.3136  0.0302
46996SOL     OW47845   6.473  10.683  11.899 -0.1126 -0.5625  0.4939
46996SOL    HW147846   6.469  10.773  11.867  0.1776 -0.8048 -0.2716
46996SOL    HW247847   6.423  10.683  11.980 -0.4421  0.1991  0.2962
46997SOL     OW47848  10.238   7.004   5.481 -0.0970  0.1665 -0.4328
46997SOL    HW147849  10.198   6.937   5.426 -0.2039  0.6532 -0.9693
46997SOL    HW247850  10.263   6.959   5.561  0.2514 -0.6089 -0.9673
46998SOL     OW47851   2.333  10.139   6.626 -0.2527 -0.1637 -0.5986
46998SOL    HW147852   2.414  10.120   6.674  0.3558 -0.4822 -1.7162
46998SOL    HW247853   2.267  10.084   6.667 -0.0408  0.5146  0.6994
46999SOL     OW47854   8.060   6.472   6.449 -0.5734 -0.5140 -0.5285
46999SOL    HW147855   8.141   6.519   6.430 -0.8033 -0.2613 -0.8890
46999SOL    HW247856   8.089   6.392   6.493 -0.2093  0.2302  0.6308
47000SOL     OW47857   9.353   6.530   0.833  0.0271 -0.1245 -0.8002
47000SOL    HW147858   9.294   6.544   0.907  0.8495 -1.3535  0.1236
47000SOL    HW247859   9.295   6.515   0.758 -0.8171  0.8200 -0.3686
47001SOL     OW47860   3.240   4.629   0.457 -0.1972 -0.0403 -1.4089
47001SOL    HW147861   3.306   4.628   0.388  0.0399  0.0048 -1.1850
47001SOL    HW247862   3.162   4.664   0.415  0.0931  0.4889 -1.5213
47002SOL     OW47863   2.763   7.599  10.480 -0.1940  1.3737  0.3471
47002SOL    HW147864   2.709   7.525  10.505  0.2696  0.9396  0.0797
47002SOL    HW247865   2.797   7.634  10.563  0.4627  0.6134  0.4092
47003SOL     OW47866   7.036   8.854   9.661  0.2550 -0.0846  0.0508
47003SOL    HW147867   6.977   8.928   9.670 -2.1088 -1.8188 -0.2532
47003SOL    HW247868   7.080   8.868   9.576 -1.1388  0.3307 -0.6274
47004SOL     OW47869   2.222  12.175   0.237  0.4116 -0.3179 -0.5994
47004SOL    HW147870   2.256  12.142   0.320 -2.4142  1.6370  1.5229
47004SOL    HW247871   2.246  12.268   0.236 -0.1969 -0.1518 -1.6263
47005SOL     OW47872  11.006   0.079  12.313  0.1864 -0.0522  0.4498
47005SOL    HW147873  11.018   0.043  12.225 -0.3961  1.2304 -0.1889
47005SOL    HW247874  11.094   0.102  12.342  0.2857  0.3820 -0.1901
47006SOL     OW47875   6.132   3.170   2.951 -0.2993 -0.3642  0.4524
47006SOL    HW147876   6.115   3.187   3.044 -2.0790  0.6834 -0.0033
47006SOL    HW247877   6.154   3.255   2.915 -0.8442 -0.5410 -0.3106
47007SOL     OW47878   0.461   6.405   6.045 -0.3137 -0.0273 -0.0420
47007SOL    HW147879   0.460   6.334   5.980  1.6665 -0.0465 -0.0935
47007SOL    HW247880   0.377   6.396   6.090 -0.6751 -1.5725 -0.9334
47008SOL     OW47881   5.055   7.690   5.779 -0.1180 -0.1407  0.4043
47008SOL    HW147882   5.136   7.686   5.728 -0.4119  0.0499 -0.0832
47008SOL    HW247883   5.059   7.614   5.836  0.0074 -0.6041 -0.2146
47009SOL     OW47884   9.243  10.559  11.754 -0.3500  0.3308  0.0039
47009SOL    HW147885   9.181  10.486  11.745  0.7523 -0.5099 -1.1759
47009SOL    HW247886   9.228  10.613  11.676  2.3907 -1.5421 -2.0222
47010SOL     OW47887   3.545  11.780   3.050 -0.6625  0.1882 -0.5722
47010SOL    HW147888   3.631  11.804   3.014 -0.2643 -1.5920 -0.9061
47010SOL    HW247889   3.542  11.685   3.042 -1.6020 -0.0508  1.8082
47011SOL     OW47890  11.509   0.726  11.490 -0.2779 -0.2953  0.2609
47011SOL    HW147891  11.440   0.772  11.537 -0.9877 -0.5444 -0.5102
47011SOL    HW247892  11.563   0.685  11.558 -1.2138 -0.5559  0.8510
47012SOL     OW47893   4.820  11.635   1.641  0.3409 -0.1418  0.2013
47012SOL    HW147894   4.730  11.667   1.646  0.6980  0.8598  0.5482
47012SOL    HW247895   4.852  11.643   1.731  0.8636 -0.2257  0.0231
47013SOL     OW47896   8.495   4.615   0.901 -0.1259 -0.4679  0.6177
47013SOL    HW147897   8.483   4.527   0.866 -0.0825 -1.0476  2.0055
47013SOL    HW247898   8.569   4.607   0.961 -0.0729  0.5354  0.6966
47014SOL     OW47899   9.510   5.198   3.048 -0.3789  0.2841 -0.0432
47014SOL    HW147900   9.512   5.145   2.968 -2.4044  1.1504 -0.7257
47014SOL    HW247901   9.510   5.288   3.016 -1.3569  0.6420  0.9220
47015SOL     OW47902   4.962   6.148   1.542  0.4627 -0.5544 -0.1955
47015SOL    HW147903   4.899   6.086   1.507  0.6447 -0.5556 -0.5281
47015SOL    HW247904   4.933   6.164   1.632 -0.3735 -0.0675 -0.5472
47016SOL     OW47905   9.047   8.437   9.689 -0.0299  0.0412 -0.0740
47016SOL    HW147906   9.088   8.518   9.658  3.6065 -1.4248  0.4547
47016SOL    HW247907   9.052   8.442   9.784 -0.4189 -0.5434 -0.0148
47017SOL     OW47908   2.150   1.965   9.341  0.1818  0.1508 -0.4645
47017SOL    HW147909   2.102   1.911   9.404  2.2436  0.0830  1.1468
47017SOL    HW247910   2.118   2.054   9.356  0.6990  0.1434  0.7324
47018SOL     OW47911   1.580   4.946   1.988 -0.3046 -0.5339 -0.2456
47018SOL    HW147912   1.532   4.874   1.948 -1.9301  0.7984 -0.7770
47018SOL    HW247913   1.530   4.969   2.066 -1.0486  1.3905 -1.2281
47019SOL     OW47914   3.548   2.500  11.979 -0.2173 -0.0887  0.0197
47019SOL    HW147915   3.569   2.414  12.014  0.2429 -0.0578 -0.1746
47019SOL    HW247916   3.494   2.482  11.901 -0.5635 -0.1811  0.2785
47020SOL     OW47917   7.501  11.766  11.670  0.5669 -0.2778 -0.0581
47020SOL    HW147918   7.464  11.731  11.751  0.8968 -0.0511  0.1903
47020SOL    HW247919   7.596  11.757  11.681  0.5939 -1.6310 -1.0299
47021SOL     OW47920   5.809   1.326  11.700 -0.3327 -0.0257  0.4319
47021SOL    HW147921   5.830   1.385  11.627  1.6885 -1.0590  0.1222
47021SOL    HW247922   5.716   1.342  11.717 -0.0840  2.5877 -0.2198
47022SOL     OW47923   3.075  11.330   3.653 -0.3658 -0.4027 -0.1859
47022SOL    HW147924   3.157  11.359   3.693  1.1605 -0.5265 -2.9753
47022SOL    HW247925   3.037  11.410   3.616 -0.6650 -0.5928 -0.2946
47023SOL     OW47926   3.343  10.354   2.217  0.5531  0.6046 -0.4972
47023SOL    HW147927   3.287  10.349   2.139  0.1191 -2.2207 -0.1276
47023SOL    HW247928   3.407  10.284   2.205  1.0362  0.6935  1.2606
47024SOL     OW47929  11.263   5.595   0.051  0.0637  0.1996  0.0103
47024SOL    HW147930  11.231   5.666   0.106 -0.7178  1.1815 -1.6526
47024SOL    HW247931  11.194   5.529   0.054  0.0837  0.1918  0.3127
47025SOL     OW47932   4.658   4.540   9.264 -0.2333 -0.3160  0.5552
47025SOL    HW147933   4.725   4.569   9.201 -0.6563 -0.6162 -0.0362
47025SOL    HW247934   4.685   4.452   9.290 -0.7458 -0.7072 -0.1939
47026SOL     OW47935  11.807   6.642   0.402  0.5094  0.0085  0.1145
47026SOL    HW147936  11.841   6.719   0.357 -3.1600  0.6967 -1.9031
47026SOL    HW247937  11.780   6.675   0.488 -0.1012  0.7583 -0.3556
47027SOL     OW47938   2.628   8.299   5.828  0.1858  0.6569 -0.3735
47027SOL    HW147939   2.607   8.280   5.736 -1.8033  1.3807 -0.1277
47027SOL    HW247940   2.601   8.390   5.839 -2.6377 -0.3061  1.7062
47028SOL     OW47941  10.246   0.818  12.146  0.1365 -0.1525  0.2561
47028SOL    HW147942  10.290   0.825  12.062  0.4955 -0.6994  0.3957
47028SOL    HW247943  10.153   0.811  12.124  0.1980  0.0754 -0.0780
47029SOL     OW47944   9.956  10.403   3.928  0.0941  0.5382 -0.0353
47029SOL    HW147945  10.052  10.404   3.933  0.1532 -2.0451  1.4273
47029SOL    HW247946   9.931  10.327   3.981 -2.6981  0.2509 -1.6016
47030SOL     OW47947  10.918   9.446   4.936  0.3875 -0.2108 -0.9718
47030SOL    HW147948  10.960   9.373   4.891  0.8288 -0.5061 -0.1092
47030SOL    HW247949  10.954   9.443   5.025 -1.9423 -0.8802  0.0074
47031SOL     OW47950   1.844   3.213   2.457 -0.3925  0.0687  0.2853
47031SOL    HW147951   1.762   3.247   2.491 -0.7486 -0.7069  0.2350
47031SOL    HW247952   1.834   3.216   2.361  0.3825  1.7138  0.2201
47032SOL     OW47953   4.018   1.228   5.072 -0.0769  0.1202 -0.3243
47032SOL    HW147954   3.953   1.158   5.075  0.6288 -0.5989 -1.1890
47032SOL    HW247955   4.063   1.224   5.156 -1.0367  0.5213  0.2168
47033SOL     OW47956   9.088   4.779   4.573 -1.3143  0.7329 -0.0694
47033SOL    HW147957   9.123   4.743   4.492  0.1396  1.3801  0.2483
47033SOL    HW247958   9.148   4.749   4.641 -0.6578  2.7966  0.3463
47034SOL     OW47959   5.705   4.961   9.236  0.7648 -0.2018 -0.2779
47034SOL    HW147960   5.711   5.014   9.156 -1.7570 -0.1417 -0.4831
47034SOL    HW247961   5.712   5.024   9.308  2.2947 -0.1716 -0.4173
47035SOL     OW47962  12.137   6.347   8.342 -0.3383 -0.2214 -0.1120
47035SOL    HW147963  12.103   6.281   8.282 -0.0750 -1.2270  0.8112
47035SOL    HW247964  12.080   6.423   8.329  0.0456 -0.2125 -1.9981
47036SOL     OW47965   2.993   2.525   6.069  0.2574  0.1730 -0.2058
47036SOL    HW147966   2.975   2.433   6.049 -1.2987  0.1816  1.0212
47036SOL    HW247967   2.908   2.567   6.071  0.7377  1.1748  1.4394
47037SOL     OW47968   8.430   1.200  11.459  0.1785 -0.6104 -0.3773
47037SOL    HW147969   8.391   1.115  11.482 -0.5496 -0.8572 -2.3257
47037SOL    HW247970   8.481   1.182  11.380 -0.1658  0.7989 -0.9483
47038SOL     OW47971   5.760  10.577   5.537  0.0302 -0.1730 -0.1139
47038SOL    HW147972   5.830  10.531   5.583  1.2611  0.9530 -0.7825
47038SOL    HW247973   5.797  10.663   5.518 -0.4380 -0.5196 -3.0823
47039SOL     OW47974   9.697   8.853   2.649  0.0343  0.1812 -0.5638
47039SOL    HW147975   9.650   8.888   2.574  0.1533 -0.2280 -0.8353
47039SOL    HW247976   9.772   8.806   2.611 -1.3393 -2.3428 -0.3918
47040SOL     OW47977   6.901   9.728   3.775 -0.4439 -0.6291 -0.2461
47040SOL    HW147978   6.823   9.774   3.744 -0.1909 -0.4610 -0.6343
47040SOL    HW247979   6.926   9.671   3.702 -0.2324 -0.7156 -0.1071
47041SOL     OW47980   7.146   7.923   1.582  0.5212 -0.2470 -0.0049
47041SOL    HW147981   7.210   7.855   1.563  0.1570 -0.6189  0.0738
47041SOL    HW247982   7.180   8.001   1.539  1.0653 -0.4218  0.1103
47042SOL     OW47983   1.281  12.378   1.910 -0.5874  0.5095 -0.7167
47042SOL    HW147984   1.333  12.458   1.904  0.1078  0.4201  2.3696
47042SOL    HW247985   1.346  12.308   1.917 -1.1680 -0.0046 -0.3749
47043SOL     OW47986  11.681   5.252   6.921  0.1200  0.2661 -0.0726
47043SOL    HW147987  11.751   5.187   6.909 -1.5872 -1.5424 -0.9806
47043SOL    HW247988  11.674   5.295   6.836 -1.4726 -1.3777 -0.8594
47044SOL     OW47989   2.547   3.463  10.269 -0.0140  0.3085 -0.3731
47044SOL    HW147990   2.551   3.437  10.177 -0.3261  0.3256 -0.3917
47044SOL    HW247991   2.636   3.448  10.302  0.5433  1.8160 -1.0832
47045SOL     OW47992   6.051  10.632   9.037 -0.2912 -0.2394 -0.4454
47045SOL    HW147993   6.128  10.687   9.052 -0.4711  0.1387 -0.8893
47045SOL    HW247994   6.071  10.550   9.082 -1.2125  1.1498  2.7548
47046SOL     OW47995   3.164   2.111   3.701  0.6952 -0.0991 -0.1313
47046SOL    HW147996   3.231   2.110   3.770  1.7654  1.1845 -1.0999
47046SOL    HW247997   3.215   2.112   3.619 -0.5403 -0.6150 -0.9314
47047SOL     OW47998   9.177   3.012   2.025  0.1106  0.4833 -1.2650
47047SOL    HW147999   9.127   3.033   1.946 -1.5160 -1.9952 -1.0271
47047SOL    HW248000   9.115   3.026   2.097 -0.6291 -3.1575 -1.0020
47048SOL     OW48001   9.755   8.507   1.258  0.8027  0.0890 -0.1052
47048SOL    HW148002   9.786   8.421   1.285 -0.4715  0.0050  1.2306
47048SOL    HW248003   9.705   8.539   1.333 -0.9035  0.9012 -1.5163
47049SOL     OW48004   1.053   7.860   1.161 -0.3007 -0.1984 -0.0365
47049SOL    HW148005   1.009   7.869   1.076 -1.2406  2.2105  0.6517
47049SOL    HW248006   1.036   7.942   1.207  2.3153 -0.4080  1.5301
47050SOL     OW48007   3.209  12.341   0.327 -0.2317  0.0906 -0.3320
47050SOL    HW148008   3.205  12.429   0.366 -3.2149 -0.3057  0.5319
47050SOL    HW248009   3.147  12.345   0.254 -0.1245 -1.2034 -0.5100
47051SOL     OW48010  11.853   2.536   2.873  0.1359  0.0986 -0.0487
47051SOL    HW148011  11.921   2.590   2.834  1.4469 -0.0530  1.8973
47051SOL    HW248012  11.803   2.597   2.929  1.9163 -0.6433  2.5345
47052SOL     OW48013   4.990  10.492   0.638  0.2183  0.3069  0.2183
47052SOL    HW148014   5.054  10.431   0.674 -0.0527  0.4570  0.9751
47052SOL    HW248015   5.015  10.502   0.546  0.1903 -1.0241  0.0549
47053SOL     OW48016   3.230  11.045   7.126 -0.4820 -0.3116  0.1424
47053SOL    HW148017   3.284  11.022   7.201  0.7613  0.0534 -0.6122
47053SOL    HW248018   3.140  11.029   7.155  0.0946 -2.5924  0.8650
47054SOL     OW48019   7.020  11.238   8.895 -0.3155  0.4584 -0.2582
47054SOL    HW148020   7.091  11.232   8.959 -1.1929  1.9248  0.8963
47054SOL    HW248021   7.059  11.282   8.820  0.1735  0.6397  0.0973
47055SOL     OW48022   1.176   1.169  10.526  1.0541  0.6763 -0.1493
47055SOL    HW148023   1.183   1.097  10.588 -2.0442  0.3312 -0.0736
47055SOL    HW248024   1.184   1.127  10.440  0.1127  0.3474 -0.0839
47056SOL     OW48025   0.551   7.486   3.896 -0.5142  0.0184  0.3778
47056SOL    HW148026   0.631   7.498   3.948  1.8639  0.3103 -3.0409
47056SOL    HW248027   0.521   7.575   3.879 -1.2586 -0.0751  1.1506
47057SOL     OW48028  11.562   3.182  11.023 -0.1823 -0.4132  0.1210
47057SOL    HW148029  11.540   3.090  11.035 -0.2234 -0.6043 -1.2608
47057SOL    HW248030  11.499   3.229  11.078  0.0488 -1.2046  1.0905
47058SOL     OW48031   1.308   1.522   1.944  0.4750 -0.3405 -0.3689
47058SOL    HW148032   1.265   1.481   1.868  1.3612 -0.4008 -0.8506
47058SOL    HW248033   1.343   1.448   1.994  1.5254 -0.2221 -0.9043
47059SOL     OW48034  10.151   0.446   4.364  0.6384 -0.6575 -0.1970
47059SOL    HW148035  10.116   0.523   4.409 -0.2849 -1.2044  0.0589
47059SOL    HW248036  10.167   0.477   4.275 -0.5856 -0.3790 -0.3481
47060SOL     OW48037   9.600   0.269   2.697 -0.1391  0.8112 -0.0735
47060SOL    HW148038   9.667   0.201   2.691  0.3098  1.2666 -0.2647
47060SOL    HW248039   9.528   0.237   2.641 -0.0901  0.3212  0.1383
47061SOL     OW48040  11.869   4.554   8.551  0.7061 -0.1782  0.6611
47061SOL    HW148041  11.932   4.626   8.550 -0.6857  1.1850  2.7284
47061SOL    HW248042  11.920   4.478   8.582  1.5773  0.6283  1.2608
47062SOL     OW48043  11.717  11.643   4.223 -0.1045 -0.4417 -0.4363
47062SOL    HW148044  11.641  11.673   4.173 -1.4322  0.3657  1.9337
47062SOL    HW248045  11.782  11.713   4.212 -1.0338  0.5743  0.3635
47063SOL     OW48046   5.730   5.684   3.707 -0.5903  0.2864  0.1133
47063SOL    HW148047   5.684   5.739   3.643 -2.1333 -0.8241  0.2162
47063SOL    HW248048   5.806   5.651   3.660 -1.2524  0.1587 -0.9037
47064SOL     OW48049   7.721   8.444   5.235  0.7226 -0.2948 -0.3406
47064SOL    HW148050   7.735   8.448   5.330  1.4871 -1.7986 -0.3694
47064SOL    HW248051   7.631   8.416   5.225  0.2009  1.1818 -0.0990
47065SOL     OW48052   7.327   7.143   2.921 -0.1336 -0.1309  0.3834
47065SOL    HW148053   7.379   7.108   2.993 -0.1768  0.2323  0.5908
47065SOL    HW248054   7.360   7.097   2.844  0.8245  0.4255  0.4416
47066SOL     OW48055   3.628   1.308   5.863 -0.1758 -0.4851 -0.5329
47066SOL    HW148056   3.537   1.325   5.840 -0.7363  0.1700  1.9077
47066SOL    HW248057   3.664   1.262   5.787 -1.6278  1.9512 -2.8526
47067SOL     OW48058   9.080   1.598   9.017 -0.2460  0.4380  0.2775
47067SOL    HW148059   9.166   1.641   9.010  0.0252 -0.1122  0.1543
47067SOL    HW248060   9.070   1.552   8.934 -0.9094  0.9441  0.0737
47068SOL     OW48061   8.128   7.267   0.430  0.0658 -0.1252  0.4801
47068SOL    HW148062   8.126   7.281   0.335 -1.0341  0.6094  0.5890
47068SOL    HW248063   8.214   7.229   0.447  0.2679 -0.2923 -0.8141
47069SOL     OW48064   7.776   9.908   8.530 -1.2758 -0.2257  0.9527
47069SOL    HW148065   7.826   9.917   8.611 -0.4255  0.8422  0.3371
47069SOL    HW248066   7.780   9.815   8.509  0.1682 -0.2166  1.1020
47070SOL     OW48067   2.437   6.713  10.700  0.1143  0.1894 -0.2239
47070SOL    HW148068   2.395   6.729  10.785 -0.5374 -1.7844 -0.1169
47070SOL    HW248069   2.516   6.767  10.702  0.4392 -0.2318  1.9230
47071SOL     OW48070   7.877   0.138   8.181 -0.6640  0.4786  0.7876
47071SOL    HW148071   7.883   0.095   8.096 -0.8038  0.1313  0.9538
47071SOL    HW248072   7.965   0.128   8.219 -0.4237  1.1711  0.4277
47072SOL     OW48073   7.362  11.172   4.342 -0.1140  0.7706  0.4765
47072SOL    HW148074   7.325  11.097   4.295 -1.7812  2.0217 -0.3028
47072SOL    HW248075   7.407  11.223   4.275 -1.3374  1.8561  0.4473
47073SOL     OW48076  10.422  10.398  10.003  0.3154  0.3592 -0.3352
47073SOL    HW148077  10.467  10.314  10.004 -2.3203 -1.2248 -2.1750
47073SOL    HW248078  10.453  10.441   9.923 -1.7945 -1.0468 -1.9957
47074SOL     OW48079   4.109  12.439   4.083 -0.7468  0.4446 -0.0028
47074SOL    HW148080   4.087  12.525   4.049 -0.3110 -0.6203 -3.4055
47074SOL    HW248081   4.072  12.378   4.020  0.7307 -1.7951  1.1317
47075SOL     OW48082   1.373   5.606   6.567  0.1294 -0.2360  0.3130
47075SOL    HW148083   1.396   5.699   6.560 -0.7607 -0.0365 -0.1687
47075SOL    HW248084   1.394   5.583   6.657  0.8753  0.2863  0.2828
47076SOL     OW48085  10.749   3.668   7.808  0.0251  0.1019  0.0624
47076SOL    HW148086  10.734   3.761   7.826  2.0708  0.0859  2.3941
47076SOL    HW248087  10.698   3.622   7.876  1.3633 -0.3344  0.7993
47077SOL     OW48088   4.229   4.358   9.298  0.1674 -0.4537  0.2023
47077SOL    HW148089   4.292   4.422   9.266  1.7916 -2.7506 -1.5134
47077SOL    HW248090   4.279   4.303   9.358 -0.6160 -1.4264 -0.0276
47078SOL     OW48091   3.196   3.546   8.522 -0.0000 -0.0796  0.2959
47078SOL    HW148092   3.265   3.597   8.479 -1.4561  1.0750 -0.7991
47078SOL    HW248093   3.157   3.607   8.584 -1.3508 -0.0266 -0.5729
47079SOL     OW48094   8.090   0.569   3.558 -0.3973  0.3497 -0.7655
47079SOL    HW148095   8.078   0.491   3.504  0.8791  0.4171 -1.1879
47079SOL    HW248096   8.073   0.642   3.498 -0.4547  0.4029 -0.6830
47080SOL     OW48097   8.204   1.454   9.295  0.1209 -0.2462 -0.0402
47080SOL    HW148098   8.250   1.522   9.246 -0.3149 -0.1121 -0.2632
47080SOL    HW248099   8.176   1.498   9.376  0.2575 -0.2880  0.0298
47081SOL     OW48100   6.508   5.359   8.558 -0.5080 -0.2884  0.5237
47081SOL    HW148101   6.533   5.438   8.605  0.6285 -0.0418 -0.4421
47081SOL    HW248102   6.545   5.288   8.610  0.6496 -0.0232  0.1038
47082SOL     OW48103   0.699   2.215   1.580 -0.5360  0.7864  0.3014
47082SOL    HW148104   0.735   2.249   1.498 -1.7013  1.7824  0.1669
47082SOL    HW248105   0.715   2.121   1.577 -1.2791  0.6740 -1.4668
47083SOL     OW48106   5.422   7.176   1.078 -0.1924 -0.0148  0.2550
47083SOL    HW148107   5.447   7.242   1.014  1.1961  0.9905  1.7551
47083SOL    HW248108   5.326   7.171   1.071 -0.2099  1.2111 -0.7791
47084SOL     OW48109   2.506   7.512   2.715  0.6104 -0.2760 -0.2938
47084SOL    HW148110   2.473   7.591   2.757 -1.7392  0.6056 -3.3779
47084SOL    HW248111   2.596   7.503   2.747 -0.1101  1.6910  2.6730
47085SOL     OW48112   0.329   3.285   8.781 -0.5493 -0.1332  0.0860
47085SOL    HW148113   0.385   3.292   8.704  1.0223 -0.7911  1.1259
47085SOL    HW248114   0.280   3.204   8.768  0.2003 -0.5933  0.0702
47086SOL     OW48115   3.819  11.104   4.455  0.0672 -0.2923 -0.0274
47086SOL    HW148116   3.850  11.031   4.508  0.4694  0.5329  0.8912
47086SOL    HW248117   3.879  11.175   4.474  0.4218 -0.0538 -1.8460
47087SOL     OW48118   3.374   1.863  11.586 -0.0815  0.4744  0.2597
47087SOL    HW148119   3.391   1.791  11.524 -0.8594 -0.4728  1.0984
47087SOL    HW248120   3.361   1.819  11.670 -1.8508  1.4818  0.5658
47088SOL     OW48121   5.681   8.935   3.767  0.2832  0.2309 -0.7861
47088SOL    HW148122   5.680   8.972   3.679 -0.6070 -1.1860 -1.4001
47088SOL    HW248123   5.608   8.873   3.768 -0.1443  0.6990  1.1664
47089SOL     OW48124   2.367   4.343   3.988  0.4461 -0.0099  0.0262
47089SOL    HW148125   2.336   4.423   3.944 -0.9565 -0.7080 -0.3091
47089SOL    HW248126   2.354   4.360   4.081 -0.7941 -0.2058 -0.0971
47090SOL     OW48127  11.803   1.304   4.123  0.4257 -0.2237 -0.5245
47090SOL    HW148128  11.815   1.209   4.120  0.5236 -0.2306 -0.0123
47090SOL    HW248129  11.743   1.319   4.196  1.0494  0.1620 -0.0786
47091SOL     OW48130   8.900   8.185   3.529  0.5482 -0.0722  0.0696
47091SOL    HW148131   8.996   8.192   3.523  0.9442 -2.2021  2.3378
47091SOL    HW248132   8.874   8.144   3.446  1.5183  0.7786 -0.6941
47092SOL     OW48133   6.628   2.947   2.109 -0.0423 -0.1059  0.5585
47092SOL    HW148134   6.594   2.871   2.157 -0.6340 -1.1204 -1.3454
47092SOL    HW248135   6.691   2.909   2.048 -0.0382  1.0003 -0.1475
47093SOL     OW48136   7.597   3.680   1.402  0.2574 -0.5943 -0.5179
47093SOL    HW148137   7.660   3.643   1.340 -0.4011 -0.7101 -1.1323
47093SOL    HW248138   7.564   3.605   1.451  2.7828 -0.2350  1.9379
47094SOL     OW48139   1.461  10.311   8.730  0.0859 -0.6104 -0.2576
47094SOL    HW148140   1.499  10.224   8.730 -0.7342 -0.9941 -1.2897
47094SOL    HW248141   1.380  10.302   8.779  0.2471 -0.3158  0.0620
47095SOL     OW48142   4.484   7.539  11.081 -0.1357  0.0834  0.1079
47095SOL    HW148143   4.530   7.455  11.078 -2.7109 -1.4301 -2.3990
47095SOL    HW248144   4.552   7.605  11.068  1.7051 -1.7710 -0.1075
47096SOL     OW48145   3.579   7.873   3.606  0.0386  0.0633 -0.1204
47096SOL    HW148146   3.629   7.793   3.625  0.0968 -0.6208 -2.7393
47096SOL    HW248147   3.646   7.941   3.599  0.0523  0.2465  1.4728
47097SOL     OW48148  11.327   7.193  12.348 -0.7338 -0.1540  0.2260
47097SOL    HW148149  11.410   7.146  12.355 -0.2439  0.7288  0.5095
47097SOL    HW248150  11.303   7.213  12.439 -1.6876 -1.1178  0.2031
47098SOL     OW48151   2.398   9.312  12.302  0.2074  0.0776 -0.5693
47098SOL    HW148152   2.338   9.379  12.334 -0.7064 -0.6319 -0.7256
47098SOL    HW248153   2.406   9.250  12.375  1.6370  0.7217 -0.1530
47099SOL     OW48154   8.182   0.319   6.883  0.0756  0.4887 -0.0900
47099SOL    HW148155   8.240   0.381   6.927  1.6376  0.3021 -1.7452
47099SOL    HW248156   8.125   0.286   6.952  1.9503  0.6716  1.6403
47100SOL     OW48157   8.620   5.432   6.210 -0.0445  0.5650 -0.1808
47100SOL    HW148158   8.643   5.439   6.302  1.5288  0.3628 -0.5380
47100SOL    HW248159   8.670   5.357   6.178  1.6248  2.2615 -1.8023
47101SOL     OW48160   9.222   0.562   3.782  0.3103 -0.8897 -0.3599
47101SOL    HW148161   9.169   0.498   3.735 -2.2290  0.6300  0.2549
47101SOL    HW248162   9.260   0.512   3.854 -2.4319 -1.6224  0.7263
47102SOL     OW48163   1.921   0.163  10.714 -0.0736 -0.7513  0.0544
47102SOL    HW148164   2.010   0.133  10.734  0.6721  1.8175  1.1497
47102SOL    HW248165   1.926   0.196  10.625  0.4599  0.4447  0.4950
47103SOL     OW48166   6.098   8.402   1.312  0.3255  0.7430  0.2744
47103SOL    HW148167   6.086   8.497   1.306  1.4236  0.8453 -0.5726
47103SOL    HW248168   6.192   8.390   1.320  0.1168 -0.2439  1.6799
47104SOL     OW48169   3.451   7.435   6.425 -0.5223 -0.3335  0.0107
47104SOL    HW148170   3.378   7.408   6.369 -0.8940 -0.9326  0.7603
47104SOL    HW248171   3.434   7.527   6.445  0.4550  0.3837 -2.1139
47105SOL     OW48172   8.332   4.826  11.456 -0.1862  0.1352 -0.3989
47105SOL    HW148173   8.420   4.835  11.492 -0.3395  0.2261 -0.0405
47105SOL    HW248174   8.317   4.907  11.408  0.3103 -0.3060 -1.3229
47106SOL     OW48175   3.763   1.128   0.891 -0.2012 -0.6006 -0.4621
47106SOL    HW148176   3.704   1.053   0.891 -1.0396  0.0400  0.0975
47106SOL    HW248177   3.756   1.164   0.980 -0.2492  0.4764 -0.8921
47107SOL     OW48178  12.405   8.577   3.191 -0.1494  0.0739 -0.7365
47107SOL    HW148179  12.355   8.519   3.133 -0.1476 -0.5438 -0.1296
47107SOL    HW248180  12.341   8.644   3.217 -0.3689 -0.1006 -0.8185
47108SOL     OW48181   2.948   7.266  12.387 -0.5362  0.1864  0.4730
47108SOL    HW148182   2.964   7.350  12.344  0.9586  0.6347  1.7909
47108SOL    HW248183   2.964   7.200  12.320 -0.8815  0.9289 -0.3499
47109SOL     OW48184   7.379   0.430   0.045 -0.3518  0.5438 -0.4252
47109SOL    HW148185   7.428   0.505   0.012 -0.4543  2.4254  3.2805
47109SOL    HW248186   7.298   0.467   0.080 -0.6698 -1.3617  1.0231
47110SOL     OW48187   0.631   8.649   5.243  0.8130  0.0781 -0.3263
47110SOL    HW148188   0.708   8.622   5.194  0.9566  0.9159 -0.5817
47110SOL    HW248189   0.557   8.625   5.188  1.0076  2.3276 -1.6958
47111SOL     OW48190   5.583   9.743   9.011  0.0350  0.2559  0.3089
47111SOL    HW148191   5.555   9.819   9.062 -1.0441  0.9419 -1.2077
47111SOL    HW248192   5.678   9.752   9.004  0.0574  0.7950  1.1792
47112SOL     OW48193   7.705   2.724  12.074 -0.3293 -0.1797 -0.6570
47112SOL    HW148194   7.620   2.680  12.076 -1.0265  1.1385  0.5499
47112SOL    HW248195   7.738   2.708  11.985 -2.9775  1.3099 -2.0319
47113SOL     OW48196   5.881   4.460   2.433 -0.0715  0.6912 -0.1009
47113SOL    HW148197   5.896   4.538   2.380  0.3665 -0.2260 -1.3797
47113SOL    HW248198   5.927   4.477   2.515  1.7211  0.9608 -1.1204
47114SOL     OW48199   0.183  12.431   2.347  0.0040  0.2245 -0.5833
47114SOL    HW148200   0.146  12.357   2.298 -0.2095 -0.2039  0.2097
47114SOL    HW248201   0.241  12.390   2.411 -0.4528  0.7172  0.1502
47115SOL     OW48202   4.715   9.169   7.534  0.3824  0.0416  0.0446
47115SOL    HW148203   4.742   9.237   7.596  2.0770 -0.5704  0.0209
47115SOL    HW248204   4.742   9.087   7.576 -1.4255 -0.6437 -0.0289
47116SOL     OW48205  11.059   5.950   9.664 -0.1531  0.3844  0.0607
47116SOL    HW148206  11.154   5.945   9.652 -0.0822 -0.7410  0.9630
47116SOL    HW248207  11.045   6.031   9.712  0.3785  0.4056  0.1786
47117SOL     OW48208   5.339   5.050   8.161  0.7494  0.5041  0.3777
47117SOL    HW148209   5.384   5.064   8.078 -0.5936  0.2326 -0.4224
47117SOL    HW248210   5.298   5.134   8.180 -0.2191  0.1363 -0.0382
47118SOL     OW48211   4.266   2.519  12.557  0.5710 -0.2768 -0.2914
47118SOL    HW148212   4.316   2.596  12.529  1.7942 -1.2080 -0.7814
47118SOL    HW248213   4.203   2.506  12.486 -0.3802  0.8837  0.3073
47119SOL     OW48214   9.335   9.271   9.719  0.9746  0.5760 -0.0862
47119SOL    HW148215   9.370   9.290   9.806  0.6854 -0.4662  0.2786
47119SOL    HW248216   9.287   9.189   9.730  0.6349  0.6113 -1.1556
47120SOL     OW48217  10.739  10.198   8.116  0.4626 -0.3880  0.1069
47120SOL    HW148218  10.699  10.231   8.036 -1.5648  0.8849  1.5387
47120SOL    HW248219  10.758  10.277   8.167  1.4174 -1.1849  1.0247
47121SOL     OW48220   5.829   8.199   8.153 -0.2009 -0.3827 -0.2220
47121SOL    HW148221   5.884   8.151   8.092  2.2453  0.9793  0.7508
47121SOL    HW248222   5.841   8.155   8.237  0.8507  0.9400  0.3575
47122SOL     OW48223   8.174  10.084   2.439  0.3611 -0.3907  0.5415
47122SOL    HW148224   8.221  10.137   2.503  2.0238 -0.4966 -0.5430
47122SOL    HW248225   8.148  10.146   2.371 -0.3267 -0.4849  0.7083
47123SOL     OW48226   0.994   5.276   2.492 -0.3335 -0.5984  0.5995
47123SOL    HW148227   1.029   5.341   2.553 -0.9863  1.1138 -0.7820
47123SOL    HW248228   1.070   5.223   2.467  0.6749  1.0328  0.0884
47124SOL     OW48229   6.881   2.371   8.019  0.1990  0.3579  0.0072
47124SOL    HW148230   6.833   2.449   7.990 -0.0127  0.2961  0.1929
47124SOL    HW248231   6.819   2.299   8.010  0.6050  0.0979 -0.8051
47125SOL     OW48232   9.655   6.580   0.476 -0.0296  0.3152  0.6468
47125SOL    HW148233   9.695   6.607   0.393 -0.3470 -2.0653 -0.3813
47125SOL    HW248234   9.730   6.564   0.534  0.3995 -0.9666 -0.2134
47126SOL     OW48235   2.217   9.115  11.174 -0.3207  0.1828 -0.0352
47126SOL    HW148236   2.241   9.091  11.263 -0.3208  0.4663  0.0439
47126SOL    HW248237   2.259   9.049  11.119  0.4509  0.5400  0.1131
47127SOL     OW48238   0.513  10.369   8.580 -0.5106  0.2425  0.1975
47127SOL    HW148239   0.601  10.395   8.610 -1.4677  2.3952  1.3492
47127SOL    HW248240   0.530  10.304   8.513  1.9539 -0.1002  1.0228
47128SOL     OW48241   3.321   9.506   7.083 -0.0792 -0.2430 -0.3077
47128SOL    HW148242   3.265   9.448   7.033 -0.8646 -1.2526  1.6603
47128SOL    HW248243   3.409   9.488   7.050 -0.4495 -1.6598 -0.5834
47129SOL     OW48244  10.323   4.057   7.463 -0.2660 -0.0787  0.3923
47129SOL    HW148245  10.340   4.132   7.406  1.3568 -0.0574  0.8494
47129SOL    HW248246  10.252   4.009   7.419 -1.0769  1.4970 -0.1002
47130SOL     OW48247   6.648   4.404  10.718  0.1250 -0.3888 -0.2453
47130SOL    HW148248   6.574   4.416  10.658  0.1085  0.5059 -0.0468
47130SOL    HW248249   6.610   4.359  10.794 -1.1461  3.4504  1.6237
47131SOL     OW48250   8.301  10.078   5.667  0.4110 -0.2832 -0.6691
47131SOL    HW148251   8.380  10.131   5.673  1.9577 -2.3969 -1.3999
47131SOL    HW248252   8.266  10.078   5.756  1.6715  0.0574 -0.1538
47132SOL     OW48253   1.423   7.111   8.992  0.2907  0.3618 -0.2733
47132SOL    HW148254   1.398   7.186   8.937 -0.2702 -0.1756 -0.7757
47132SOL    HW248255   1.375   7.037   8.954 -0.7755  0.1157  1.4509
47133SOL     OW48256   4.175   2.890   1.834  0.0468 -0.2093 -0.5148
47133SOL    HW148257   4.116   2.831   1.789 -0.7566 -0.2785  0.5882
47133SOL    HW248258   4.262   2.865   1.804 -0.4492 -0.2374 -2.0067
47134SOL     OW48259   4.867   9.241   2.508 -0.3655  0.4910  0.2827
47134SOL    HW148260   4.867   9.278   2.596 -0.5608  2.0350 -0.3322
47134SOL    HW248261   4.937   9.289   2.462  0.9741 -1.5559  0.0743
47135SOL     OW48262   7.145  10.151   3.221 -0.1726 -0.2718 -0.4041
47135SOL    HW148263   7.178  10.124   3.136  0.0210 -1.4882  0.0318
47135SOL    HW248264   7.221  10.190   3.265 -0.4919  1.2092 -1.0949
47136SOL     OW48265   5.895  12.161   6.566 -0.9501  0.3495 -0.1791
47136SOL    HW148266   5.919  12.154   6.474 -1.1524 -0.1219 -0.1982
47136SOL    HW248267   5.805  12.127   6.570 -0.7911 -0.0250  0.2615
47137SOL     OW48268   9.932   2.894  11.704 -0.2980  0.5166 -0.3117
47137SOL    HW148269   9.975   2.835  11.642  0.0507  0.8153 -0.3559
47137SOL    HW248270   9.861   2.842  11.741 -1.1588  0.6380 -1.6963
47138SOL     OW48271   8.981   0.583   0.121  0.1130  0.2248 -0.1552
47138SOL    HW148272   9.023   0.498   0.133  0.5953  0.4287 -0.3671
47138SOL    HW248273   8.976   0.595   0.026  1.5941  1.1635 -0.1573
47139SOL     OW48274   1.250   7.013  10.399  0.5454 -0.2006 -0.3261
47139SOL    HW148275   1.313   6.998  10.329  0.3267  1.8139 -1.0377
47139SOL    HW248276   1.188   7.077  10.362  0.1522  0.5642  1.5288
47140SOL     OW48277   8.086   5.426   3.808 -0.3040  0.5489 -0.0868
47140SOL    HW148278   8.016   5.376   3.851 -1.1319  1.3229 -0.4868
47140SOL    HW248279   8.163   5.410   3.861 -1.1107  0.8121  1.2092
47141SOL     OW48280   1.540   8.224  12.493  0.2349  0.3955 -0.1168
47141SOL    HW148281   1.551   8.292  12.427  0.7251  1.0038  0.5841
47141SOL    HW248282   1.475   8.259  12.554  1.9503  1.1465  1.3757
47142SOL     OW48283   1.356   5.126   7.209  0.3116 -0.5484  0.2009
47142SOL    HW148284   1.282   5.067   7.215  1.6964 -2.4695 -0.5267
47142SOL    HW248285   1.336   5.197   7.270 -1.4943 -1.6689  0.9853
47143SOL     OW48286   9.662   3.886  11.393  0.4476 -0.0889  0.4475
47143SOL    HW148287   9.631   3.882  11.484 -0.7320 -0.5569  0.0258
47143SOL    HW248288   9.737   3.946  11.397  0.0375  0.3738  1.6260
47144SOL     OW48289  10.258   8.124   9.437  0.1952 -0.0022  0.3060
47144SOL    HW148290  10.214   8.197   9.481 -3.0960 -2.1724  1.0052
47144SOL    HW248291  10.204   8.107   9.360  1.5194 -1.0124 -0.4222
47145SOL     OW48292  10.662   5.058   9.876 -0.3195  0.0705 -0.1244
47145SOL    HW148293  10.734   5.017   9.923 -0.2030 -2.1486 -2.0371
47145SOL    HW248294  10.692   5.147   9.859  2.3730 -0.9686 -1.4488
47146SOL     OW48295   0.878   4.918   8.426  0.1833  0.5616  0.2042
47146SOL    HW148296   0.939   4.959   8.364  1.4936 -0.7894  0.5451
47146SOL    HW248297   0.872   4.828   8.396 -0.4073  0.2844  1.1299
47147SOL     OW48298   6.331   8.381   9.405 -0.1539 -0.0313  0.2709
47147SOL    HW148299   6.243   8.395   9.440  0.2397  2.0725  0.5335
47147SOL    HW248300   6.389   8.394   9.480  0.5078  1.2839 -0.4383
47148SOL     OW48301   1.314   7.911   8.694 -0.0784 -0.2992  0.1290
47148SOL    HW148302   1.333   7.977   8.628  1.3191 -1.4409 -0.6612
47148SOL    HW248303   1.341   7.952   8.777  0.6707  0.1630 -0.3317
47149SOL     OW48304   6.754   3.673  10.066 -0.6141  0.0771 -0.2243
47149SOL    HW148305   6.790   3.762  10.067 -2.3933  0.9043  2.9159
47149SOL    HW248306   6.826   3.619  10.032  2.1850  2.1440  1.8771
47150SOL     OW48307   4.685   8.019   2.300 -0.2328 -0.3327  0.4691
47150SOL    HW148308   4.611   7.965   2.272  0.4011 -0.9121 -0.1322
47150SOL    HW248309   4.752   7.956   2.326  0.2901  0.1740  0.3627
47151SOL     OW48310   2.538   7.624   3.379  0.1227 -1.0003 -0.3706
47151SOL    HW148311   2.548   7.546   3.434 -2.1095 -0.8404  0.3619
47151SOL    HW248312   2.612   7.621   3.319  3.4921 -0.5834  3.3180
47152SOL     OW48313  11.481   6.392   5.144  0.2576 -1.1889  0.4175
47152SOL    HW148314  11.470   6.487   5.147 -0.0556 -1.1435 -1.2349
47152SOL    HW248315  11.501   6.367   5.234  1.4188  0.5669  0.6902
47153SOL     OW48316   6.005   0.297   8.702  0.0654 -0.0150 -0.2242
47153SOL    HW148317   5.967   0.321   8.787 -0.2700  0.8658 -0.6041
47153SOL    HW248318   6.099   0.300   8.717  0.0204 -1.4498  0.5209
47154SOL     OW48319   1.830   4.213   3.908 -0.5774  0.6820  0.3785
47154SOL    HW148320   1.857   4.121   3.908  0.3261  0.9303 -0.2512
47154SOL    HW248321   1.765   4.219   3.977 -1.4513 -0.6560 -0.2870
47155SOL     OW48322   3.309   4.420  10.784  0.3629 -0.0316 -0.6239
47155SOL    HW148323   3.365   4.390  10.712  4.1924 -0.4059  2.2074
47155SOL    HW248324   3.260   4.342  10.810 -0.6505 -0.0283 -2.3057
47156SOL     OW48325   3.670   2.181   7.249  0.2839  0.5181  0.0873
47156SOL    HW148326   3.702   2.244   7.313  1.3116 -0.4552  0.5647
47156SOL    HW248327   3.575   2.180   7.262  0.3177  1.4536  0.5262
47157SOL     OW48328   4.684   8.938   8.042 -0.4627 -0.0795  0.3316
47157SOL    HW148329   4.679   8.853   7.999  0.5708  0.8892 -1.8345
47157SOL    HW248330   4.593   8.964   8.055 -0.7902 -0.8710 -0.3077
47158SOL     OW48331   4.381  12.373   0.290 -0.4286 -0.1554 -0.3869
47158SOL    HW148332   4.430  12.367   0.372 -1.8169  1.8008  0.6776
47158SOL    HW248333   4.442  12.341   0.223  1.3528 -0.2149  1.1837
47159SOL     OW48334   0.764  11.784   3.387 -0.8627  0.2024  0.0854
47159SOL    HW148335   0.739  11.742   3.469 -1.4255  0.2980 -0.0333
47159SOL    HW248336   0.749  11.717   3.320 -1.0547  0.3508 -0.0190
47160SOL     OW48337   4.363   7.709   3.223  0.5719  0.1414  0.3584
47160SOL    HW148338   4.340   7.616   3.236  1.9937 -0.2999 -0.1028
47160SOL    HW248339   4.341   7.750   3.307  2.8052 -1.2457  1.7234
47161SOL     OW48340   9.635   4.184  11.934 -0.7512  0.1195  0.6731
47161SOL    HW148341   9.628   4.145  12.021  1.0117 -0.0845  0.7668
47161SOL    HW248342   9.648   4.278  11.950  1.6150 -0.1665  0.7817
47162SOL     OW48343   9.660   5.113   3.983  0.6850 -0.4727 -0.2608
47162SOL    HW148344   9.665   5.139   3.891 -0.3779 -0.9215 -0.4515
47162SOL    HW248345   9.602   5.037   3.984 -1.1865  0.8769  1.0408
47163SOL     OW48346  11.800   1.567   8.699 -0.2392  0.2055 -0.1121
47163SOL    HW148347  11.878   1.518   8.722  0.0110  0.5845 -0.1437
47163SOL    HW248348  11.738   1.549   8.770 -0.4062 -0.7131 -0.4721
47164SOL     OW48349   5.105   1.291   5.958 -0.3624 -0.1197 -0.3698
47164SOL    HW148350   5.169   1.296   6.029 -0.8754 -0.9931  0.1765
47164SOL    HW248351   5.082   1.382   5.940  1.3196  0.2436 -0.8601
47165SOL     OW48352   0.783   3.002   5.682 -0.7357  0.3174 -0.1826
47165SOL    HW148353   0.849   2.944   5.643 -2.0201 -0.7966 -0.7514
47165SOL    HW248354   0.790   3.083   5.632  0.6572  0.4847  0.2211
47166SOL     OW48355   1.343   7.345   4.668 -0.9351  0.0195  0.0327
47166SOL    HW148356   1.398   7.335   4.745 -0.0839 -0.4671 -0.6139
47166SOL    HW248357   1.262   7.384   4.701  0.1777  1.7514  0.8520
47167SOL     OW48358   7.796   0.756   3.425  0.4475 -0.2691 -0.3243
47167SOL    HW148359   7.791   0.661   3.421 -0.3678 -0.3927  1.8672
47167SOL    HW248360   7.889   0.777   3.418  0.6867 -1.2755 -0.1807
47168SOL     OW48361   3.434   6.996  10.111 -0.2140 -0.2430 -0.0814
47168SOL    HW148362   3.413   6.914  10.066  3.1977 -1.7571  0.7328
47168SOL    HW248363   3.451   7.059  10.041 -2.0291 -0.4343 -0.7331
47169SOL     OW48364   5.394   0.632   7.749  0.3198  0.3746  0.4773
47169SOL    HW148365   5.417   0.722   7.727  1.5334 -0.0059  0.1460
47169SOL    HW248366   5.298   0.632   7.752  0.3056  2.1458  2.4879
47170SOL     OW48367  10.827   4.439   1.099  0.0232  0.2942  0.8701
47170SOL    HW148368  10.828   4.344   1.088  0.3011  0.2407  1.3112
47170SOL    HW248369  10.873   4.453   1.182  1.2947  0.9201  0.0678
47171SOL     OW48370   5.722   6.161  11.034  0.6948  0.3476  0.1743
47171SOL    HW148371   5.748   6.166  10.942 -0.7412 -0.4615 -0.3031
47171SOL    HW248372   5.674   6.079  11.042  0.1219  0.7725  1.4662
47172SOL     OW48373   9.633   5.233  11.910 -0.3086  0.6151 -0.0018
47172SOL    HW148374   9.625   5.158  11.852  0.4022  1.2506 -0.9360
47172SOL    HW248375   9.673   5.301  11.857  0.6597  1.1172  1.3162
47173SOL     OW48376   0.623   6.948   5.189  0.3394 -0.0002 -0.5027
47173SOL    HW148377   0.593   7.038   5.179 -0.0632 -0.1525 -0.6905
47173SOL    HW248378   0.718   6.955   5.201  0.2390  0.4876  0.0586
47174SOL     OW48379   0.616   6.342  12.249 -0.5833 -0.0879 -0.0587
47174SOL    HW148380   0.649   6.356  12.338 -0.3885  0.1754 -0.1705
47174SOL    HW248381   0.632   6.425  12.204 -0.1836 -0.3966 -0.4945
47175SOL     OW48382   9.257   0.774   3.085 -0.1363 -0.4920 -0.0646
47175SOL    HW148383   9.162   0.788   3.083  0.0902  1.5163  0.9352
47175SOL    HW248384   9.267   0.684   3.118 -1.6856 -0.4054  0.7365
47176SOL     OW48385   9.028   1.767   4.437 -0.6617 -0.3634  0.5276
47176SOL    HW148386   8.961   1.767   4.368 -0.9974 -2.1455  0.8118
47176SOL    HW248387   9.099   1.714   4.401 -0.6762 -0.9730  1.3695
47177SOL     OW48388  11.931   8.616   6.358  0.3072 -0.3269  0.0670
47177SOL    HW148389  11.931   8.558   6.433  3.4260  1.5630  1.7271
47177SOL    HW248390  11.859   8.677   6.374 -0.4307 -1.2564  0.3517
47178SOL     OW48391   7.180   8.495  10.279 -0.2838 -0.3223 -0.0203
47178SOL    HW148392   7.199   8.414  10.232  1.0235  0.4975 -0.9995
47178SOL    HW248393   7.239   8.559  10.239  0.0946  0.6775  2.0297
47179SOL     OW48394   7.591   5.178   3.771 -0.4443  0.2786  0.1723
47179SOL    HW148395   7.566   5.127   3.849  0.5312 -1.0422 -0.3353
47179SOL    HW248396   7.562   5.267   3.790  0.6265  0.2177  2.4876
47180SOL     OW48397   9.845   1.683   2.281 -0.8315  0.6692 -0.4017
47180SOL    HW148398   9.846   1.769   2.322  1.1820  1.3456 -1.7569
47180SOL    HW248399   9.876   1.698   2.192  0.9138 -1.6189 -0.2689
47181SOL     OW48400   9.613   0.523   9.979  0.6307  0.3420  0.5248
47181SOL    HW148401   9.530   0.496   9.939  1.4078 -0.7124 -0.3908
47181SOL    HW248402   9.594   0.611  10.013 -1.2709 -0.4123  1.5795
47182SOL     OW48403   0.168   1.613   0.013 -0.5965 -0.1484  0.0861
47182SOL    HW148404   0.234   1.601   0.081  0.1707 -0.6735 -0.7370
47182SOL    HW248405   0.089   1.637   0.061  0.7663  3.0746  0.9602
47183SOL     OW48406  10.106   3.916  12.311 -0.0443 -0.1960 -0.1146
47183SOL    HW148407  10.175   3.890  12.251  0.3726 -1.8489  1.0016
47183SOL    HW248408  10.143   3.988  12.361  0.7081 -0.7188  0.1099
47184SOL     OW48409   2.247   7.609   3.415  0.5043 -0.5763  0.3952
47184SOL    HW148410   2.236   7.686   3.470  1.4561 -2.0741  2.8545
47184SOL    HW248411   2.342   7.603   3.402  0.4230 -1.2272  0.0773
47185SOL     OW48412   6.911   9.529   9.365 -0.0039 -0.2052 -0.0312
47185SOL    HW148413   6.942   9.466   9.300 -0.6995 -0.3301 -0.2431
47185SOL    HW248414   6.845   9.581   9.319 -0.8625 -0.6200  0.7128
47186SOL     OW48415   6.775  10.616   0.511 -0.4169 -0.6365  0.7573
47186SOL    HW148416   6.864  10.597   0.541 -0.4597 -1.3708  0.4494
47186SOL    HW248417   6.768  10.570   0.427 -0.2203  1.5100 -0.5059
47187SOL     OW48418   0.537   9.903  11.312  0.0670  0.6975 -0.4907
47187SOL    HW148419   0.581   9.931  11.232 -0.8079 -0.2022 -1.3074
47187SOL    HW248420   0.588   9.827  11.342 -0.6744 -0.1059 -1.2246
47188SOL     OW48421   3.809   6.730   9.714  0.5104 -0.0348  0.3321
47188SOL    HW148422   3.781   6.714   9.624  0.1672  0.7430  0.2986
47188SOL    HW248423   3.745   6.792   9.749  0.7310 -0.2114  1.0634
47189SOL     OW48424  10.397   5.942   2.717  0.0186  0.2942 -0.3347
47189SOL    HW148425  10.374   5.944   2.624  1.0700  0.1199 -0.6064
47189SOL    HW248426  10.412   5.850   2.736  0.4374  0.3990 -0.1519
47190SOL     OW48427   9.873   7.650   2.594 -0.2716  0.1397  0.1716
47190SOL    HW148428   9.799   7.686   2.643  0.8952  1.6243  0.9368
47190SOL    HW248429   9.836   7.579   2.542 -2.4523  1.6622 -0.4482
47191SOL     OW48430  11.809   1.811   8.257 -0.4530 -0.5840  0.1178
47191SOL    HW148431  11.734   1.774   8.210  0.3478  0.1134 -1.8227
47191SOL    HW248432  11.856   1.736   8.292 -1.9641 -1.0380  1.2378
47192SOL     OW48433   8.585   3.734  10.411 -0.4423  0.5066 -0.1056
47192SOL    HW148434   8.595   3.781  10.493  1.0196  0.2757 -0.1264
47192SOL    HW248435   8.672   3.701  10.391 -0.8420  0.2557 -1.5762
47193SOL     OW48436   5.502  11.760   2.429  0.4727 -0.2997 -0.3673
47193SOL    HW148437   5.573  11.741   2.367 -0.9967  0.6849 -2.4676
47193SOL    HW248438   5.423  11.732   2.383 -0.6075 -0.7289  1.6349
47194SOL     OW48439   8.143   2.650   7.840  0.0369 -0.0379  0.1389
47194SOL    HW148440   8.204   2.723   7.848  0.9349 -0.8388  0.7730
47194SOL    HW248441   8.195   2.578   7.806 -1.3364  0.1991 -2.7506
47195SOL     OW48442   4.897  11.542  10.429  0.0836 -0.0748  0.2672
47195SOL    HW148443   4.981  11.497  10.417 -0.1192 -0.7402  1.2493
47195SOL    HW248444   4.912  11.601  10.502 -0.2792 -0.1239  0.3804
47196SOL     OW48445   8.444   0.913   4.555  0.4144 -0.0529  0.0046
47196SOL    HW148446   8.450   0.867   4.638 -0.1540 -1.5685 -0.7510
47196SOL    HW248447   8.521   0.885   4.506  0.2299  0.0412 -0.3425
47197SOL     OW48448   6.901   2.651   8.475  0.6311 -0.2795 -0.0614
47197SOL    HW148449   6.994   2.640   8.494  0.5477  1.5446  1.8076
47197SOL    HW248450   6.895   2.734   8.429 -0.1710  0.3107  1.0618
47198SOL     OW48451   3.802   4.160   5.305  0.0867 -0.0278 -0.4484
47198SOL    HW148452   3.884   4.117   5.279  0.6242 -0.0026  1.1052
47198SOL    HW248453   3.830   4.244   5.340 -0.7272  0.4831 -1.0029
47199SOL     OW48454   8.944  11.527   5.905 -0.3971  0.4006  0.3559
47199SOL    HW148455   8.951  11.476   5.824 -0.0870 -0.8676  1.1525
47199SOL    HW248456   9.034  11.541   5.933 -0.5010  0.9122  0.4552
47200SOL     OW48457   0.858   7.451   1.731 -0.7999  0.1549 -0.0062
47200SOL    HW148458   0.862   7.404   1.647  0.0276  1.0505 -0.4998
47200SOL    HW248459   0.775   7.498   1.728  0.0649  1.7041 -1.2119
47201SOL     OW48460   7.046   6.966  10.867  0.5146  0.3020 -0.2796
47201SOL    HW148461   7.013   6.886  10.826  0.7473 -0.7584  1.4861
47201SOL    HW248462   6.987   7.034  10.837 -0.4536 -0.7475 -0.8430
47202SOL     OW48463   9.025   9.867   1.204 -0.1110 -0.2782  0.0237
47202SOL    HW148464   9.048   9.956   1.177 -0.0261 -0.3166 -0.0354
47202SOL    HW248465   8.939   9.852   1.166 -0.2556 -0.1113  0.2911
47203SOL     OW48466  10.192   3.713   0.579 -0.1126  0.1619  0.1877
47203SOL    HW148467  10.182   3.626   0.618 -1.8372  0.4542  0.4773
47203SOL    HW248468  10.171   3.774   0.650  1.7239  0.8755  0.1762
47204SOL     OW48469   5.056   0.264   9.338  0.1926 -0.4820 -0.0441
47204SOL    HW148470   4.979   0.209   9.351  1.0398 -1.8913 -0.7298
47204SOL    HW248471   5.080   0.293   9.427  0.4998 -2.3377  0.5200
47205SOL     OW48472   3.243   1.225  11.797  0.7027 -0.0712 -0.2075
47205SOL    HW148473   3.291   1.151  11.836 -0.3673 -0.0534  1.2224
47205SOL    HW248474   3.195   1.186  11.724 -1.0509 -1.2016  1.4348
47206SOL     OW48475   7.111   0.721   7.800 -0.5325  0.1825  0.3259
47206SOL    HW148476   7.170   0.740   7.726  0.2410  0.7345  1.0648
47206SOL    HW248477   7.058   0.800   7.810 -0.2562  0.3259  0.6975
47207SOL     OW48478  10.955   2.812   2.306 -0.2888 -0.3088 -0.1911
47207SOL    HW148479  11.004   2.893   2.317 -2.0226  1.0094 -1.4417
47207SOL    HW248480  10.911   2.799   2.389 -2.0391  1.5548 -0.7348
47208SOL     OW48481   8.478   2.323  10.442  0.6978 -0.5290 -0.1655
47208SOL    HW148482   8.557   2.357  10.482  1.7554 -0.6054 -2.0626
47208SOL    HW248483   8.446   2.257  10.503  1.2028  0.5858  1.3562
47209SOL     OW48484   5.531   3.030   3.197  0.0447 -0.1568  0.2063
47209SOL    HW148485   5.441   3.052   3.173  0.4536  2.0437  0.5521
47209SOL    HW248486   5.560   2.972   3.126 -1.5469 -0.7545 -0.0129
47210SOL     OW48487   8.008   7.787   2.254  0.1641 -0.1537 -0.3040
47210SOL    HW148488   7.964   7.740   2.326 -3.6215 -0.5847 -2.6296
47210SOL    HW248489   8.023   7.875   2.290  0.6007 -1.0040  1.7625
47211SOL     OW48490   7.215   9.601   0.590 -0.3201 -0.5192  0.0510
47211SOL    HW148491   7.227   9.506   0.592  0.6156 -0.4492  3.0666
47211SOL    HW248492   7.125   9.614   0.561 -0.5475 -2.3282 -0.1531
47212SOL     OW48493   1.103   0.217   5.605  0.2343  0.2331 -0.1257
47212SOL    HW148494   1.194   0.225   5.574  0.9146 -1.2277  1.3578
47212SOL    HW248495   1.056   0.182   5.530  0.8625  1.1242 -0.9618
47213SOL     OW48496   3.991  10.370  11.398  0.1599 -0.2296 -0.0354
47213SOL    HW148497   4.061  10.432  11.379 -0.1164  0.4206  0.9766
47213SOL    HW248498   3.954  10.401  11.481 -0.7828 -1.0432 -0.1407
47214SOL     OW48499   8.699   8.320   2.623 -0.4985 -0.5190  0.4140
47214SOL    HW148500   8.631   8.350   2.563  0.6884 -1.0738 -1.2967
47214SOL    HW248501   8.689   8.225   2.625 -0.2327 -0.5435  0.7039
47215SOL     OW48502   6.323   0.837  10.308 -0.1484  0.7964 -0.9334
47215SOL    HW148503   6.417   0.830  10.291 -0.1242  1.4581 -1.0885
47215SOL    HW248504   6.289   0.890  10.236 -0.4169  1.6986 -0.1648
47216SOL     OW48505  11.023   1.142   0.099 -0.1447 -0.5880  0.9078
47216SOL    HW148506  11.068   1.063   0.129 -1.4617 -1.9414 -0.4992
47216SOL    HW248507  10.975   1.114   0.022  1.9536  2.3593 -1.7086
47217SOL     OW48508   5.002   1.240   0.961  0.8179  0.1522 -0.5003
47217SOL    HW148509   4.992   1.182   0.885  1.3787 -0.8193  0.1499
47217SOL    HW248510   4.982   1.327   0.927  3.2473  0.0912 -2.3414
47218SOL     OW48511   7.515   4.292   9.635 -0.0414 -0.4969 -0.4131
47218SOL    HW148512   7.591   4.338   9.670 -0.8016 -0.1575  0.8194
47218SOL    HW248513   7.443   4.354   9.644 -1.0963 -1.8871  1.3364
47219SOL     OW48514   7.876   6.277   8.525  1.1058  0.3895  0.3586
47219SOL    HW148515   7.841   6.364   8.507  0.4134  0.2291  0.9005
47219SOL    HW248516   7.831   6.220   8.462  0.4441  0.1950  1.0014
47220SOL     OW48517  10.234   4.159   7.196  0.3483  0.1122 -0.3087
47220SOL    HW148518  10.169   4.101   7.234  0.7896  0.1402  0.5127
47220SOL    HW248519  10.203   4.176   7.107  0.0375 -1.0976 -0.4421
47221SOL     OW48520   7.311   4.610   4.353 -0.5488 -0.6556 -0.1768
47221SOL    HW148521   7.220   4.615   4.326 -0.7755 -0.3418  0.6203
47221SOL    HW248522   7.319   4.674   4.424  0.6313  0.3967 -1.1758
47222SOL     OW48523   3.969   2.264   4.825 -0.1708 -0.0100 -0.2649
47222SOL    HW148524   3.965   2.357   4.806 -1.8528 -0.2641 -1.3162
47222SOL    HW248525   4.024   2.258   4.903  0.3917  1.7945 -0.4797
47223SOL     OW48526   0.042  12.184   1.412 -0.5168 -0.1134  0.1979
47223SOL    HW148527   0.114  12.169   1.351 -0.6165 -1.0110  0.2947
47223SOL    HW248528  -0.029  12.218   1.359 -0.5591 -0.7635 -0.1714
47224SOL     OW48529   7.738   4.369   9.003  0.2659 -0.2160  0.1017
47224SOL    HW148530   7.643   4.370   8.987 -0.0538  0.2333  1.8200
47224SOL    HW248531   7.766   4.281   8.980 -0.3830 -0.0992 -1.2705
47225SOL     OW48532   7.846   6.638  10.939  0.0227 -0.6311  0.3262
47225SOL    HW148533   7.800   6.562  10.902  0.7516 -1.2934  0.7557
47225SOL    HW248534   7.869   6.611  11.028  1.3318 -0.3591  0.0922
47226SOL     OW48535  11.959   5.273   9.021  0.0295 -0.1099 -0.3486
47226SOL    HW148536  11.963   5.343   8.956 -0.1946 -0.2905 -0.5608
47226SOL    HW248537  12.031   5.291   9.081  0.6249 -0.2855 -0.9957
47227SOL     OW48538   5.903   0.201  12.331 -0.3048 -0.9388 -0.3730
47227SOL    HW148539   5.998   0.185  12.336 -0.2291 -0.1826  2.9748
47227SOL    HW248540   5.864   0.118  12.360 -0.5492 -0.5780  0.3543
47228SOL     OW48541   5.954  10.991   5.346 -0.2580  0.4672 -0.2590
47228SOL    HW148542   6.014  10.993   5.272  0.1584 -1.7419 -0.0252
47228SOL    HW248543   5.878  11.042   5.316  1.4172  2.8892 -0.7444
47229SOL     OW48544   0.379   8.514  12.498  0.1611 -0.0118  0.1475
47229SOL    HW148545   0.460   8.470  12.471 -0.4102 -1.1119  0.1677
47229SOL    HW248546   0.334   8.534  12.416 -0.3025 -0.8786  0.1880
47230SOL     OW48547   5.339   4.690   0.625 -0.1125  0.3216  0.3345
47230SOL    HW148548   5.365   4.712   0.535 -0.2346  0.0617  0.2351
47230SOL    HW248549   5.302   4.772   0.658 -0.7454  0.2246 -0.1062
47231SOL     OW48550   2.373   8.172  11.276  0.1334 -0.0008  0.2961
47231SOL    HW148551   2.441   8.149  11.212 -0.8477  2.0764 -1.5991
47231SOL    HW248552   2.334   8.088  11.300  3.1560 -1.2695  1.3347
47232SOL     OW48553   3.816   1.228   7.021  0.2039 -0.4075 -0.0625
47232SOL    HW148554   3.768   1.298   6.976 -0.8544  0.2778  1.9951
47232SOL    HW248555   3.756   1.197   7.089  1.3362 -2.0906  0.2331
47233SOL     OW48556   9.184   1.768  11.518  0.1459 -0.2445 -0.1587
47233SOL    HW148557   9.194   1.724  11.434 -2.0618 -0.9974 -0.0957
47233SOL    HW248558   9.240   1.719  11.578 -0.4271 -1.4812 -0.6058
47234SOL     OW48559  11.575  11.278  11.741  0.2697  0.5982 -0.1514
47234SOL    HW148560  11.609  11.194  11.772 -0.8939 -0.5517 -1.8195
47234SOL    HW248561  11.653  11.331  11.723  1.0610 -0.5965 -0.3386
47235SOL     OW48562   4.711   0.226   4.185 -0.6493 -0.2607  0.1822
47235SOL    HW148563   4.786   0.284   4.170 -0.3949 -0.9609 -1.5234
47235SOL    HW248564   4.751   0.139   4.192 -1.0990 -0.3623  1.8753
47236SOL     OW48565  12.319  11.557   1.341 -0.5635  0.1786  0.2728
47236SOL    HW148566  12.339  11.514   1.258 -2.5145 -0.0310 -0.1361
47236SOL    HW248567  12.289  11.645   1.315  1.7192  1.2408  0.9903
47237SOL     OW48568   7.348   5.201   1.677  0.0619  0.1933 -0.4463
47237SOL    HW148569   7.333   5.284   1.632  1.6317  0.3469 -0.7207
47237SOL    HW248570   7.264   5.182   1.720  0.0371  2.5619  0.7165
47238SOL     OW48571   7.940   5.895  11.072 -0.1515 -0.0733  0.2849
47238SOL    HW148572   7.929   5.802  11.051 -0.3120 -0.0781  0.3832
47238SOL    HW248573   7.922   5.941  10.990  0.0807 -0.1361  0.1966
47239SOL     OW48574   7.949  10.689   1.814  0.1892 -0.4592 -0.0259
47239SOL    HW148575   7.961  10.778   1.846  1.1595 -1.0180  1.2641
47239SOL    HW248576   7.878  10.653   1.867 -0.5032 -0.3453 -0.8418
47240SOL     OW48577   6.454   3.877   9.065  0.7981 -0.0021  0.4473
47240SOL    HW148578   6.469   3.802   9.123 -0.7693 -0.6608  0.0476
47240SOL    HW248579   6.486   3.847   8.980 -3.0125 -1.7120 -0.5969
47241SOL     OW48580   7.202   6.639   7.288 -0.3357  0.1680  0.3160
47241SOL    HW148581   7.124   6.595   7.253 -1.4862  3.1639 -1.2906
47241SOL    HW248582   7.168   6.696   7.357  0.7180  0.2115  0.8034
47242SOL     OW48583   8.013  12.185   8.597  1.0095  0.0415  0.8148
47242SOL    HW148584   7.987  12.223   8.514  1.2445  0.1420  0.7865
47242SOL    HW248585   8.060  12.255   8.643  2.8181 -0.6551  0.1145
47243SOL     OW48586  10.506   1.642  11.654  0.0905 -1.2329 -0.4603
47243SOL    HW148587  10.568   1.591  11.707 -1.2373 -2.8044 -0.3289
47243SOL    HW248588  10.428   1.648  11.709 -0.5882 -1.0914 -1.4183
47244SOL     OW48589   7.204   4.296   6.435  0.0218 -0.2730 -0.3018
47244SOL    HW148590   7.248   4.371   6.475 -0.8687 -0.7068  1.6229
47244SOL    HW248591   7.132   4.333   6.385  0.7629  0.2567 -0.9862
47245SOL     OW48592  12.213   2.376  10.274  0.1413 -0.4389  0.0799
47245SOL    HW148593  12.284   2.331  10.227  0.1792 -1.2861  0.9072
47245SOL    HW248594  12.250   2.461  10.297 -0.0755  0.2631 -1.9027
47246SOL     OW48595   3.395  10.037  10.595 -0.2356 -0.1410 -0.1203
47246SOL    HW148596   3.365  10.127  10.610  0.7350  0.2561 -0.4947
47246SOL    HW248597   3.332   9.983  10.642 -0.4403  0.7745  0.6885
47247SOL     OW48598  10.694   0.500  10.273  0.2286  0.4174 -0.4720
47247SOL    HW148599  10.625   0.458  10.222  0.9646 -1.0879 -0.3137
47247SOL    HW248600  10.680   0.468  10.362  1.2751 -0.1587 -0.4921
47248SOL     OW48601   8.006   3.535   5.191 -0.6290 -0.0667 -0.9946
47248SOL    HW148602   7.959   3.617   5.209 -0.0560  0.1657 -0.5215
47248SOL    HW248603   8.042   3.547   5.103 -0.2691  0.3301 -0.7975
47249SOL     OW48604   9.362   1.013   0.891 -0.2096  0.0862 -0.0245
47249SOL    HW148605   9.370   0.949   0.961 -1.1079  0.1507  0.1397
47249SOL    HW248606   9.306   0.971   0.826 -0.0633  0.3551 -0.3288
47250SOL     OW48607   5.596   6.131   1.648  0.0034  0.1152  0.6476
47250SOL    HW148608   5.559   6.180   1.722  0.6112  0.3206  0.8246
47250SOL    HW248609   5.674   6.181   1.624 -0.4059  0.2727 -0.4023
47251SOL     OW48610  11.816   5.875   3.848 -0.2918  0.2137 -0.4782
47251SOL    HW148611  11.773   5.805   3.897 -1.9455  0.8648 -0.9194
47251SOL    HW248612  11.909   5.865   3.868 -0.5096 -1.8881 -0.2690
47252SOL     OW48613   5.292  11.342   6.440 -0.0782 -0.2655 -0.4907
47252SOL    HW148614   5.196  11.334   6.441 -0.0370 -0.7751  0.3978
47252SOL    HW248615   5.323  11.260   6.477  0.6916  0.1662 -0.1713
47253SOL     OW48616  10.657   0.977   0.147 -1.0608  0.6750 -0.9981
47253SOL    HW148617  10.729   0.914   0.151 -0.2905  1.6029  0.5446
47253SOL    HW248618  10.671   1.025   0.065  1.3721  2.2532  0.2331
47254SOL     OW48619   3.889   5.837   7.891  0.3180  0.0874 -0.6076
47254SOL    HW148620   3.949   5.896   7.936  0.3495 -0.9033  0.7007
47254SOL    HW248621   3.915   5.842   7.799  2.3082 -0.1726 -0.1009
47255SOL     OW48622   2.129   8.513   3.786 -0.3595  0.4501 -0.3499
47255SOL    HW148623   2.146   8.420   3.806  1.3699  0.8466  0.2010
47255SOL    HW248624   2.096   8.549   3.868 -0.8862  0.3701 -0.5215
47256SOL     OW48625   3.212  12.195   6.797 -0.0658  0.0356 -0.0729
47256SOL    HW148626   3.282  12.154   6.847 -0.5296  0.5024  0.9713
47256SOL    HW248627   3.252  12.274   6.760  0.5222 -0.7572 -1.2006
47257SOL     OW48628   9.058   8.853   6.661 -0.7286 -0.0068 -0.0259
47257SOL    HW148629   9.137   8.898   6.631  0.4622 -1.6745  0.5049
47257SOL    HW248630   8.987   8.900   6.618  0.6027  0.8011 -1.4588
47258SOL     OW48631   3.008  10.852   7.754 -0.7078  0.3453  0.6044
47258SOL    HW148632   2.973  10.859   7.665 -1.5153  0.7604  0.9473
47258SOL    HW248633   3.091  10.901   7.752 -1.1188  1.0370  0.2863
47259SOL     OW48634  11.488   8.232   6.224 -0.1479  0.0533 -0.4659
47259SOL    HW148635  11.515   8.170   6.292 -1.4536  0.2248  0.2448
47259SOL    HW248636  11.509   8.188   6.142  2.3103  0.2197 -0.0003
47260SOL     OW48637   1.429   3.076  12.172  0.5822 -0.2885  0.0299
47260SOL    HW148638   1.416   3.052  12.080 -1.1069 -2.2168  0.6978
47260SOL    HW248639   1.478   3.003  12.210  0.2447 -0.0869  0.8901
47261SOL     OW48640   7.186   7.826   0.261  0.5917 -0.1118  0.6369
47261SOL    HW148641   7.098   7.834   0.225  0.5164  1.1972  1.0492
47261SOL    HW248642   7.227   7.911   0.242  1.5252 -0.4496  1.0822
47262SOL     OW48643   3.033   3.343   0.073  0.1419 -0.1431 -0.7648
47262SOL    HW148644   3.076   3.424   0.104  2.8224 -1.8703  0.4181
47262SOL    HW248645   3.092   3.309   0.006 -0.7285 -1.3484 -0.9376
47263SOL     OW48646  12.490   7.711   1.792  0.0132  0.0922  0.5481
47263SOL    HW148647  12.403   7.673   1.784  0.2123 -0.0378 -1.5729
47263SOL    HW248648  12.475   7.806   1.790 -0.1646  0.1140  1.8095
47264SOL     OW48649  12.260   7.978   7.216 -0.0142  0.1820  0.1703
47264SOL    HW148650  12.217   7.923   7.151  1.4629 -2.0134  0.9669
47264SOL    HW248651  12.318   8.034   7.165 -1.3912  0.9479 -0.6318
47265SOL     OW48652   3.509   6.233  10.805  0.3523  0.3455  0.3220
47265SOL    HW148653   3.587   6.259  10.756  0.6633  0.5987  0.9472
47265SOL    HW248654   3.438   6.283  10.763  0.3423 -0.6101 -0.8752
47266SOL     OW48655  12.169   4.540   1.770  0.1275  0.3921  0.2201
47266SOL    HW148656  12.173   4.484   1.848  0.0674  0.5054  0.3055
47266SOL    HW248657  12.113   4.613   1.797 -0.2146  0.2352 -0.0525
47267SOL     OW48658  10.930   7.985  11.386  0.0959 -0.3113  0.0388
47267SOL    HW148659  10.987   7.949  11.454 -0.5309 -2.3624 -0.4482
47267SOL    HW248660  10.896   8.066  11.424  1.3935 -0.3116  1.3062
47268SOL     OW48661   9.008   4.512   7.446 -0.2926  0.2276  0.1316
47268SOL    HW148662   9.084   4.457   7.428 -0.6140 -0.0270 -0.4663
47268SOL    HW248663   9.029   4.554   7.529 -0.6011 -1.8056  1.3142
47269SOL     OW48664  10.403  11.246  10.776 -0.0988  0.6928  0.3426
47269SOL    HW148665  10.309  11.233  10.770  0.0163  0.3161 -0.9845
47269SOL    HW248666  10.424  11.231  10.868 -0.9356 -2.1328  0.1712
47270SOL     OW48667   5.384   7.114   7.422 -0.5519  0.2117  0.3920
47270SOL    HW148668   5.298   7.087   7.453 -0.7537  0.1497 -0.2103
47270SOL    HW248669   5.366   7.178   7.353 -0.1465 -0.6313 -0.5123
47271SOL     OW48670  11.527   5.453   1.012  0.0970 -0.5304  0.1527
47271SOL    HW148671  11.508   5.406   1.094 -0.9055  1.2879  1.0276
47271SOL    HW248672  11.452   5.511   1.000  0.1327 -0.8872 -2.1956
47272SOL     OW48673   6.118  10.211  11.905  0.3160 -0.6675  0.5583
47272SOL    HW148674   6.163  10.129  11.884  1.6032  0.3896 -1.1182
47272SOL    HW248675   6.026  10.187  11.914  0.7522 -2.3825  0.6914
47273SOL     OW48676   0.700   9.455   0.986 -0.5363  0.1465  0.1505
47273SOL    HW148677   0.644   9.391   0.940  0.1519 -0.2888 -0.0885
47273SOL    HW248678   0.649   9.480   1.063 -0.6744 -0.9602  0.4318
47274SOL     OW48679   7.748   5.179   2.544 -0.1625  0.1243  0.4604
47274SOL    HW148680   7.684   5.188   2.474  0.2651 -0.1027  0.0288
47274SOL    HW248681   7.713   5.110   2.600 -1.3242  1.4473  1.4009
47275SOL     OW48682   3.860  10.947  10.533  0.3124 -0.2056  0.5116
47275SOL    HW148683   3.851  10.889  10.458 -1.3059 -1.0758  1.3215
47275SOL    HW248684   3.792  11.013  10.521 -0.5598 -0.8579  1.6005
47276SOL     OW48685  10.026   5.502  11.217 -0.1421  0.2377  0.4705
47276SOL    HW148686  10.111   5.547  11.216 -0.6092  1.1419  0.3177
47276SOL    HW248687  10.014   5.473  11.126 -1.1843  2.4713 -0.1791
47277SOL     OW48688   0.961   1.359   5.041  0.4935  0.4577 -0.2676
47277SOL    HW148689   1.044   1.341   5.086 -0.7879  1.4984  2.8150
47277SOL    HW248690   0.894   1.333   5.104 -1.5132  1.3428 -1.9371
47278SOL     OW48691  10.774   7.400   0.466  0.8498  0.4407  0.3395
47278SOL    HW148692  10.758   7.316   0.509 -0.1994  1.3007  1.7266
47278SOL    HW248693  10.795   7.460   0.537  0.0148  1.7070 -0.4367
47279SOL     OW48694   2.353   7.833   3.536 -0.0315  0.6454 -0.4621
47279SOL    HW148695   2.418   7.765   3.552  0.2966  1.0645  0.0109
47279SOL    HW248696   2.371   7.900   3.602 -0.0653  1.3929 -1.1880
47280SOL     OW48697   9.334   7.226  12.003 -0.5997  0.1914  0.5462
47280SOL    HW148698   9.401   7.247  11.938 -0.2018 -0.3062  0.7854
47280SOL    HW248699   9.254   7.213  11.952 -0.3193 -0.0807  0.1702
47281SOL     OW48700  10.628   1.942   3.101 -0.1275  0.2475  0.0887
47281SOL    HW148701  10.607   2.033   3.121  1.6890  0.6353  0.3287
47281SOL    HW248702  10.676   1.910   3.177  0.1549 -0.6004 -0.4248
47282SOL     OW48703   7.777   1.294   1.234 -0.3575  0.4104 -0.0977
47282SOL    HW148704   7.785   1.203   1.207 -1.9740  0.0703  0.4348
47282SOL    HW248705   7.744   1.340   1.157 -3.3654 -0.2514  0.6440
47283SOL     OW48706   6.480   2.758   6.306 -0.4503  0.2201  0.5753
47283SOL    HW148707   6.538   2.814   6.358  1.0183 -1.5520  0.9657
47283SOL    HW248708   6.412   2.729   6.368 -0.5365  0.6271  0.6709
47284SOL     OW48709  11.201   8.633   8.979  0.0344  0.3624  0.5167
47284SOL    HW148710  11.194   8.595   8.891 -1.1742 -0.7511  1.0509
47284SOL    HW248711  11.116   8.615   9.019  0.7647  0.3369  2.1235
47285SOL     OW48712  11.378   6.327   3.979  0.6077 -0.0167  0.3037
47285SOL    HW148713  11.315   6.292   3.916  0.4503  0.9071 -0.0718
47285SOL    HW248714  11.365   6.422   3.976  0.7206  0.0628  1.6053
47286SOL     OW48715   5.599   6.969   3.988 -0.1791  0.4563  0.2325
47286SOL    HW148716   5.509   6.959   4.018  0.1971 -1.9002  0.7147
47286SOL    HW248717   5.652   6.928   4.056  1.1447  0.4349 -0.7700
47287SOL     OW48718   4.378   1.367   0.022 -0.6422 -0.4635 -0.1704
47287SOL    HW148719   4.373   1.332   0.111  0.7107 -0.9431 -0.2589
47287SOL    HW248720   4.359   1.460   0.032 -2.1859 -0.8074  0.3688
47288SOL     OW48721   2.118  12.267  11.597 -0.2660 -0.0167 -0.4739
47288SOL    HW148722   2.153  12.296  11.681 -1.0594  1.2297 -0.5430
47288SOL    HW248723   2.107  12.172  11.606  2.4793 -0.3848 -0.2492
47289SOL     OW48724   9.963   0.056   4.463 -0.3748  0.0914  0.2719
47289SOL    HW148725  10.017   0.098   4.396  0.6442 -2.9924 -1.0477
47289SOL    HW248726   9.950   0.124   4.530  2.2362  2.0174 -0.9797
47290SOL     OW48727   6.183   5.342   0.736 -0.4512 -0.0510  0.0338
47290SOL    HW148728   6.222   5.372   0.818 -0.4473  1.3427 -0.4414
47290SOL    HW248729   6.236   5.384   0.668 -2.2209  1.1919 -0.6331
47291SOL     OW48730   5.060  11.329  11.498  0.3020  0.1968 -0.0121
47291SOL    HW148731   5.135  11.292  11.545 -0.4436 -0.2721  0.8562
47291SOL    HW248732   5.015  11.382  11.564 -0.4615 -0.0187 -0.3508
47292SOL     OW48733  11.659   2.902  12.053  0.6518 -0.0998  0.7218
47292SOL    HW148734  11.661   2.908  11.957  0.8910 -1.3953  0.6315
47292SOL    HW248735  11.575   2.942  12.077  0.6828  0.4379 -0.0029
47293SOL     OW48736   3.567   0.060   9.759 -0.8400  0.7407  0.0684
47293SOL    HW148737   3.592  -0.025   9.796 -0.2416  1.0879  0.4559
47293SOL    HW248738   3.478   0.045   9.726  0.6423 -1.2424 -3.5787
47294SOL     OW48739  10.449   4.111   2.193 -0.1458  0.1993  0.1493
47294SOL    HW148740  10.528   4.160   2.172  0.6780 -1.2933 -0.3214
47294SOL    HW248741  10.384   4.179   2.213  0.4145  1.5814 -2.3077
47295SOL     OW48742   0.955   5.020   3.387  0.9804  0.1618  0.3046
47295SOL    HW148743   0.911   4.941   3.356  0.1227  1.7969 -3.0146
47295SOL    HW248744   1.047   4.995   3.393  0.5242 -1.5068  0.9692
47296SOL     OW48745   2.854   8.181   4.664  0.0405  0.1210  0.1869
47296SOL    HW148746   2.873   8.270   4.636  2.3333 -0.2939  0.2089
47296SOL    HW248747   2.907   8.126   4.607 -0.5752 -1.1716  0.8141
47297SOL     OW48748   5.607  10.586  10.474  0.5917 -0.1236 -0.0959
47297SOL    HW148749   5.611  10.592  10.379  0.2275 -1.1627 -0.1884
47297SOL    HW248750   5.514  10.583  10.494  0.6599  0.2935  0.3222
47298SOL     OW48751   6.917   3.878  10.569 -0.0842  0.1908  0.0580
47298SOL    HW148752   6.861   3.905  10.497 -1.9157 -1.5570  0.7415
47298SOL    HW248753   6.918   3.782  10.565  2.7389  0.1094  0.2314
47299SOL     OW48754   8.059   0.718  12.118 -0.4872  0.1518  0.2302
47299SOL    HW148755   8.007   0.746  12.043 -0.7160  0.5600  0.5377
47299SOL    HW248756   8.002   0.657  12.165  0.4375 -1.8341 -1.0793
47300SOL     OW48757   2.537   3.444   9.991 -0.4820  0.4386  0.1180
47300SOL    HW148758   2.606   3.404   9.938 -0.7872  1.3673 -1.0050
47300SOL    HW248759   2.469   3.377   9.996 -0.4453  0.3326 -0.6615
47301SOL     OW48760   9.627   2.797   1.230  0.2546  0.6140 -0.1711
47301SOL    HW148761   9.561   2.800   1.162  0.3462 -0.1562 -0.3037
47301SOL    HW248762   9.635   2.704   1.252  1.2608  0.6891 -0.1406
47302SOL     OW48763   3.494   4.892   9.268 -0.7854  0.2844 -0.3849
47302SOL    HW148764   3.567   4.888   9.206 -0.7535  0.9064 -0.4027
47302SOL    HW248765   3.451   4.976   9.247 -0.7959  0.4786  0.4056
47303SOL     OW48766   4.167   8.409   9.480 -1.0190  0.6690  0.3014
47303SOL    HW148767   4.124   8.392   9.396 -1.4571 -0.3684  0.7183
47303SOL    HW248768   4.116   8.358   9.544  1.2100 -1.1743  0.7298
47304SOL     OW48769  11.792   9.264   2.689  0.3640  0.3985 -0.3539
47304SOL    HW148770  11.800   9.186   2.634  1.0390 -0.4149  0.8444
47304SOL    HW248771  11.861   9.323   2.658  0.7335 -0.0510 -0.3930
47305SOL     OW48772  10.465   9.084   0.778  0.2360  0.6704 -0.4605
47305SOL    HW148773  10.558   9.063   0.768  0.1420  0.5179 -1.0966
47305SOL    HW248774  10.452   9.163   0.725  0.2186  1.3105  0.4849
47306SOL     OW48775   8.894   4.460  10.875  0.0705 -0.3035  0.3421
47306SOL    HW148776   8.937   4.545  10.861  0.6353 -0.6937 -0.3873
47306SOL    HW248777   8.938   4.401  10.814 -0.5100 -1.0624  0.6414
47307SOL     OW48778   3.963   3.758   1.796 -0.3577  0.3482  0.0835
47307SOL    HW148779   3.885   3.799   1.833 -1.0663 -0.1435 -0.8285
47307SOL    HW248780   4.002   3.710   1.869 -0.5898  1.0600  0.6804
47308SOL     OW48781   5.903   7.275  10.155 -0.0217 -0.0638 -0.2689
47308SOL    HW148782   5.992   7.248  10.131  1.1800  1.4550  2.1133
47308SOL    HW248783   5.882   7.346  10.094 -0.1564 -1.2095 -1.6236
47309SOL     OW48784  11.925   7.536   9.432  0.1365  0.2450 -0.0278
47309SOL    HW148785  12.019   7.551   9.448  0.3648 -0.8019 -0.3374
47309SOL    HW248786  11.913   7.560   9.340  0.8275 -2.7257 -0.9929
47310SOL     OW48787   6.568   8.293  12.138  0.2248 -0.3348 -0.6782
47310SOL    HW148788   6.540   8.358  12.074 -0.8387 -0.3725 -0.2742
47310SOL    HW248789   6.658   8.317  12.159 -0.7016  2.2051  0.8590
47311SOL     OW48790   8.245   4.916   7.410 -0.4189 -0.9359 -0.0780
47311SOL    HW148791   8.295   4.891   7.488 -1.2644  0.0645  0.8158
47311SOL    HW248792   8.270   5.006   7.393 -1.9121 -0.3870  0.4281
47312SOL     OW48793   7.753   9.412  11.581  0.2970  0.4242  0.1104
47312SOL    HW148794   7.741   9.478  11.649  0.6858 -0.3777  0.9684
47312SOL    HW248795   7.665   9.377  11.566 -0.0146  1.5319 -0.7816
47313SOL     OW48796  11.955   2.860   4.564  0.2668  0.3945  0.5053
47313SOL    HW148797  11.878   2.916   4.556 -0.7845 -1.2146 -2.1739
47313SOL    HW248798  11.931   2.780   4.517  3.4536 -0.3354 -0.1342
47314SOL     OW48799   8.109  11.929   3.281  0.6493 -0.1842 -0.1830
47314SOL    HW148800   8.139  11.962   3.365 -0.6014 -0.6726  0.4955
47314SOL    HW248801   8.059  12.002   3.243 -0.1526 -0.4877  0.2580
47315SOL     OW48802   4.010   3.932   4.309  0.5314  0.1229 -0.1952
47315SOL    HW148803   4.034   4.010   4.359  0.8488  1.4458 -2.2714
47315SOL    HW248804   4.039   3.952   4.220  0.3091 -2.2573 -0.8533
47316SOL     OW48805   8.008   9.987   7.706  0.6327  0.1804  0.7927
47316SOL    HW148806   7.952   9.945   7.771  2.0015 -0.0990  1.8666
47316SOL    HW248807   8.053  10.056   7.755  0.6152  0.9408 -0.2338
47317SOL     OW48808   7.445   0.995   1.451 -1.0264 -0.3113 -0.2091
47317SOL    HW148809   7.451   1.074   1.397 -2.7184  0.4583  0.6236
47317SOL    HW248810   7.351   0.978   1.456 -0.7401 -1.8354  0.4288
47318SOL     OW48811   6.049   2.565   0.489  0.2240 -0.2630 -0.4356
47318SOL    HW148812   6.082   2.514   0.416  1.0186 -0.3054 -0.0622
47318SOL    HW248813   6.069   2.511   0.566 -1.8804 -0.8841 -0.2732
47319SOL     OW48814   2.550   3.740   8.559  0.0806 -0.2925 -0.1103
47319SOL    HW148815   2.522   3.696   8.640 -1.6051 -1.4129 -1.2303
47319SOL    HW248816   2.479   3.801   8.540  1.1301  1.0081 -0.0531
47320SOL     OW48817   1.094   9.010   4.015  0.0542 -0.7766  0.0173
47320SOL    HW148818   1.002   9.025   4.039  0.1547  0.3161 -0.2524
47320SOL    HW248819   1.090   8.945   3.944 -0.4401 -1.4601  0.6480
47321SOL     OW48820   8.466   1.833   1.378 -0.2976 -0.5269 -0.6137
47321SOL    HW148821   8.374   1.807   1.386 -0.3165 -1.0016 -2.0389
47321SOL    HW248822   8.475   1.907   1.438 -1.5597 -0.6139 -0.2861
47322SOL     OW48823   5.401   3.581   2.773 -0.1352  0.2429  0.3789
47322SOL    HW148824   5.313   3.568   2.738 -0.6889  0.8506  1.5142
47322SOL    HW248825   5.457   3.525   2.718 -1.1364  0.2534 -0.6907
47323SOL     OW48826   5.732   3.555   5.085 -0.0970  0.1085  0.3469
47323SOL    HW148827   5.792   3.557   5.160 -0.1104 -0.4433  0.3783
47323SOL    HW248828   5.734   3.463   5.056 -0.3898  0.2388 -0.0849
47324SOL     OW48829   5.374   4.859   9.933  0.0738 -0.5330 -0.1705
47324SOL    HW148830   5.465   4.887   9.948 -0.1501 -0.1505  0.4832
47324SOL    HW248831   5.324   4.902  10.002 -0.7215 -0.1521 -0.9699
47325SOL     OW48832  11.662   1.576  10.298 -0.2735 -0.3433  0.3723
47325SOL    HW148833  11.614   1.607  10.375 -0.2524  1.6299 -0.3611
47325SOL    HW248834  11.609   1.505  10.263 -0.7931 -0.5919  1.6197
47326SOL     OW48835   3.469   1.314  10.037  0.2933 -0.2385 -0.3960
47326SOL    HW148836   3.547   1.365  10.061 -0.1345  1.1215 -1.7029
47326SOL    HW248837   3.399   1.353  10.089  0.4619 -1.5256  0.8524
47327SOL     OW48838   8.537  12.453   3.812  0.8373 -0.1366  0.1106
47327SOL    HW148839   8.506  12.367   3.840  0.4719  0.4037  1.3971
47327SOL    HW248840   8.505  12.461   3.722  1.3566 -1.5660 -0.2353
47328SOL     OW48841  10.284   4.272   8.053 -0.2037 -0.6694 -0.5840
47328SOL    HW148842  10.195   4.248   8.079 -1.0060  1.3342 -1.3085
47328SOL    HW248843  10.338   4.251   8.130 -1.5501 -0.5155  0.4393
47329SOL     OW48844   6.480  11.058   2.939  0.3386  0.1246  0.2359
47329SOL    HW148845   6.570  11.091   2.942  0.2411  0.6970 -1.5336
47329SOL    HW248846   6.480  10.997   2.865 -0.5215 -0.5489  0.7828
47330SOL     OW48847  11.249   8.045  10.275  0.2723  0.3502 -0.2898
47330SOL    HW148848  11.217   8.120  10.224 -1.7402  1.5825  2.4927
47330SOL    HW248849  11.317   8.082  10.331  0.7283 -0.3914 -0.3425
47331SOL     OW48850  10.237   5.231   1.116 -0.1017 -0.1934 -1.1355
47331SOL    HW148851  10.330   5.211   1.121 -0.2308 -0.5741 -0.1312
47331SOL    HW248852  10.231   5.324   1.138 -0.0096 -0.2791 -0.7558
47332SOL     OW48853   8.779   5.131   5.746 -0.0772  0.5002  0.0357
47332SOL    HW148854   8.801   5.103   5.835  1.5775  0.7458 -0.2764
47332SOL    HW248855   8.704   5.190   5.758  0.5406  1.0557  1.3434
47333SOL     OW48856  12.190   3.553   1.327  0.1690  0.6884 -0.6699
47333SOL    HW148857  12.183   3.477   1.384 -2.6179  0.7437 -0.7955
47333SOL    HW248858  12.212   3.517   1.241 -0.0146  0.1450 -0.4912
47334SOL     OW48859   9.145  12.458   8.325 -0.3905 -0.2941 -0.1075
47334SOL    HW148860   9.091  12.393   8.281 -0.7408  1.1445 -1.9313
47334SOL    HW248861   9.202  12.493   8.257  0.0569  1.0306  0.8913
47335SOL     OW48862   1.528  10.976   4.518 -0.0135  0.3370 -0.0239
47335SOL    HW148863   1.448  10.973   4.464  0.3707  0.6625 -0.6242
47335SOL    HW248864   1.565  11.062   4.500  0.4793  0.1802  0.2427
47336SOL     OW48865  10.199   5.572   1.458 -0.1521  0.1548  0.3998
47336SOL    HW148866  10.187   5.489   1.505 -0.3293  0.3987  0.7861
47336SOL    HW248867  10.292   5.590   1.464  0.0054 -0.3755 -0.2966
47337SOL     OW48868   1.202   6.786   6.924  0.2946 -0.1704 -0.1672
47337SOL    HW148869   1.110   6.815   6.924  0.3351  0.1123  1.9293
47337SOL    HW248870   1.196   6.690   6.925  0.0619 -0.1764 -1.0525
47338SOL     OW48871  12.077   4.273   8.593 -0.5040  0.2275 -0.1654
47338SOL    HW148872  12.128   4.334   8.646  3.2112 -2.6767  0.0329
47338SOL    HW248873  12.093   4.300   8.502  0.9726 -0.2863 -0.0761
47339SOL     OW48874   8.617  10.362   8.129  0.1227  0.1021  0.2189
47339SOL    HW148875   8.594  10.404   8.045  0.6761 -0.0793 -0.0253
47339SOL    HW248876   8.560  10.286   8.133  1.1976 -0.7863 -0.7573
47340SOL     OW48877   7.915   5.832  10.622  0.1250 -0.1441 -0.1964
47340SOL    HW148878   7.978   5.790  10.680  0.9711  0.3463 -0.7486
47340SOL    HW248879   7.831   5.793  10.647  0.5049 -0.1739  1.1397
47341SOL     OW48880   7.147   3.475   5.201 -0.3317 -0.1184  0.0045
47341SOL    HW148881   7.149   3.483   5.296  1.0523  0.0876 -0.0319
47341SOL    HW248882   7.114   3.560   5.171 -1.4991 -0.4386  0.3015
47342SOL     OW48883  12.271  11.294   8.661 -0.0867 -0.0406 -0.1111
47342SOL    HW148884  12.241  11.219   8.609  0.3588 -0.0003 -0.4325
47342SOL    HW248885  12.214  11.366   8.636 -0.2355 -0.1633 -0.1251
47343SOL     OW48886  11.047   2.258   7.190 -0.1607  0.5635  0.1362
47343SOL    HW148887  10.957   2.275   7.162 -0.4678 -0.0464  0.7013
47343SOL    HW248888  11.047   2.165   7.215  1.0336  0.1221 -1.3672
47344SOL     OW48889   9.953   9.031  12.453  0.4822  0.5554  0.1111
47344SOL    HW148890   9.917   8.971  12.519  1.2451  1.1272  1.0754
47344SOL    HW248891  10.032   8.988  12.421  0.1003  0.2671 -0.4644
47345SOL     OW48892   6.904   5.588  10.749 -0.1685 -0.3630  0.2961
47345SOL    HW148893   6.811   5.567  10.738 -0.3053  1.0975 -1.7329
47345SOL    HW248894   6.906   5.650  10.822 -0.7652 -0.4031  0.3501
47346SOL     OW48895   9.002   5.733  12.258  0.5567  0.4009 -0.2167
47346SOL    HW148896   8.970   5.791  12.189 -2.0493  1.0278  1.4010
47346SOL    HW248897   8.997   5.645  12.219 -0.0437  0.8159 -1.1086
47347SOL     OW48898   4.576   6.502   1.609 -0.2757  0.2291 -0.6369
47347SOL    HW148899   4.542   6.542   1.689  1.4001 -0.6072  0.5528
47347SOL    HW248900   4.548   6.411   1.614  0.8968 -0.1374 -0.3224
47348SOL     OW48901   6.774   8.667  10.076  0.4721 -0.5292  0.5990
47348SOL    HW148902   6.850   8.696  10.126 -0.0446  0.3882  0.8865
47348SOL    HW248903   6.764   8.575  10.098  0.3323 -0.1804  2.1239
47349SOL     OW48904   0.809   6.537   7.961 -0.0072  0.2692 -0.2591
47349SOL    HW148905   0.754   6.549   8.038  0.2264 -0.4055  0.0259
47349SOL    HW248906   0.814   6.624   7.921 -1.7418  0.2321 -0.6255
47350SOL     OW48907   2.640   4.636   8.162  0.1125  0.5611 -0.2296
47350SOL    HW148908   2.583   4.706   8.132  1.6575  1.5028 -1.1246
47350SOL    HW248909   2.676   4.667   8.245 -0.4872  0.0621  0.2298
47351SOL     OW48910  10.423   9.692   3.426  0.3652  0.1216  0.8688
47351SOL    HW148911  10.373   9.662   3.502  0.5603 -0.3284  0.8230
47351SOL    HW248912  10.443   9.612   3.377  0.4576  0.3813  0.4756
47352SOL     OW48913   8.575   3.538   6.167  0.2239  0.0847 -0.0476
47352SOL    HW148914   8.582   3.462   6.109  0.6061  0.9730 -1.1909
47352SOL    HW248915   8.541   3.502   6.249  0.9543 -1.4232 -0.3623
47353SOL     OW48916   8.821   5.783   1.003  0.3486  0.0308  0.2794
47353SOL    HW148917   8.834   5.873   0.972  3.5127 -0.8369 -1.2878
47353SOL    HW248918   8.837   5.788   1.097 -0.8426  1.2951  0.4434
47354SOL     OW48919   4.108  11.030  12.427  0.3020 -0.4604  0.2222
47354SOL    HW148920   4.017  11.039  12.401 -0.2717  1.0308  2.5438
47354SOL    HW248921   4.120  10.935  12.437 -0.1386 -0.9278 -2.6460
47355SOL     OW48922   8.413   3.710   0.567 -0.1467 -0.2306 -0.0903
47355SOL    HW148923   8.496   3.757   0.564 -1.0614  1.4969  0.1625
47355SOL    HW248924   8.437   3.619   0.582  1.6823  0.2362  0.0425
47356SOL     OW48925  11.884   2.172   3.525 -0.1936  0.0969  0.3153
47356SOL    HW148926  11.907   2.095   3.472  1.5319 -0.1312  1.3026
47356SOL    HW248927  11.799   2.199   3.493  0.7043 -0.0953 -2.4917
47357SOL     OW48928   0.599   0.669   4.445  0.4711  0.1920 -0.3460
47357SOL    HW148929   0.649   0.750   4.440  1.5810 -0.4736 -0.2319
47357SOL    HW248930   0.507   0.697   4.442  0.8185  1.5216  0.7018
47358SOL     OW48931   9.813  10.437   6.892 -0.0785  0.1322  0.2573
47358SOL    HW148932   9.870  10.361   6.885  1.3864  1.1975  0.2188
47358SOL    HW248933   9.824  10.467   6.983 -0.1966  0.6372  0.1089
47359SOL     OW48934   8.803  12.236   3.911 -0.1086  0.3350 -0.3451
47359SOL    HW148935   8.824  12.201   3.997 -0.1958  1.1533  0.0152
47359SOL    HW248936   8.753  12.166   3.868  0.3262 -0.2537  0.0879
47360SOL     OW48937  10.444   3.365  10.061  0.6442  0.4833 -0.5854
47360SOL    HW148938  10.439   3.277  10.025  0.1269 -0.2804  1.2379
47360SOL    HW248939  10.353   3.394  10.067  0.8531  1.6317 -2.2006
47361SOL     OW48940   1.834   8.565  11.668  0.1296 -0.5325  0.2199
47361SOL    HW148941   1.817   8.656  11.642 -1.2929 -1.0806 -0.8439
47361SOL    HW248942   1.799   8.559  11.757 -0.7898 -0.3256 -0.1208
47362SOL     OW48943   1.029   4.373   1.317 -0.7791 -0.6596  0.4480
47362SOL    HW148944   0.979   4.426   1.379 -0.8695 -0.4212  0.1756
47362SOL    HW248945   1.095   4.329   1.370 -1.2620 -0.9553  0.8087
47363SOL     OW48946   8.550   4.823   6.494  0.5058  0.1234 -0.6657
47363SOL    HW148947   8.461   4.838   6.462  0.8005  0.1109 -1.5230
47363SOL    HW248948   8.597   4.903   6.473  0.3017  0.8193  1.3228
47364SOL     OW48949   0.651   6.313   2.637  0.0861 -0.1538  0.2002
47364SOL    HW148950   0.604   6.253   2.694  1.0227 -0.4553  0.6799
47364SOL    HW248951   0.597   6.319   2.559 -0.9795 -0.1117  0.9158
47365SOL     OW48952  10.389   5.665   9.411 -0.3793  0.2630  0.3445
47365SOL    HW148953  10.445   5.734   9.375 -1.1825  0.5221 -0.4766
47365SOL    HW248954  10.394   5.595   9.346 -1.7872  0.7029 -0.2839
47366SOL     OW48955   0.261  12.107   0.486 -0.2466 -0.4638 -0.3380
47366SOL    HW148956   0.347  12.143   0.464  0.2832 -2.1568 -1.1833
47366SOL    HW248957   0.218  12.093   0.401 -0.6728 -1.2370 -0.0047
47367SOL     OW48958   9.430   2.701   0.501 -0.3828 -0.0972 -0.3053
47367SOL    HW148959   9.355   2.730   0.552 -0.2139 -0.1522 -0.0198
47367SOL    HW248960   9.492   2.774   0.505 -0.6356  0.1530 -0.9812
47368SOL     OW48961   9.609   9.054   8.739 -0.0886  0.4218  0.5488
47368SOL    HW148962   9.569   9.022   8.658 -1.7581 -0.7181  1.7643
47368SOL    HW248963   9.593   9.148   8.738 -1.0016  0.2719  0.0074
47369SOL     OW48964   9.622   6.615   9.716 -0.3776  0.3697 -0.7071
47369SOL    HW148965   9.648   6.530   9.751  0.3893  0.2693 -1.4738
47369SOL    HW248966   9.705   6.657   9.692 -0.7939  1.0365 -1.0018
47370SOL     OW48967   1.647   8.434   2.015 -0.0485 -0.7654 -0.1462
47370SOL    HW148968   1.692   8.350   2.030  1.1617 -0.1596 -0.2925
47370SOL    HW248969   1.717   8.498   2.011 -1.0274  0.4441  1.0922
47371SOL     OW48970   9.518   9.362   4.305  0.6373  0.4682 -0.1314
47371SOL    HW148971   9.594   9.331   4.354  0.1470  0.8496  0.8874
47371SOL    HW248972   9.521   9.457   4.315  0.4415  0.5441 -0.7297
47372SOL     OW48973   5.263  10.513  11.903  0.4688  0.9987 -0.0425
47372SOL    HW148974   5.340  10.501  11.957 -1.2987 -1.2804  2.2109
47372SOL    HW248975   5.291  10.573  11.834  4.4888 -0.5271  0.0127
47373SOL     OW48976  10.590   3.614   4.339 -0.2423 -0.1423  0.2485
47373SOL    HW148977  10.517   3.662   4.380 -0.7633 -0.4071 -0.3431
47373SOL    HW248978  10.558   3.524   4.331 -0.5730  0.0908 -1.6402
47374SOL     OW48979   6.521   0.585   9.668 -0.3518 -0.7083  0.4080
47374SOL    HW148980   6.507   0.678   9.686  1.2872  0.0722 -1.8195
47374SOL    HW248981   6.440   0.557   9.625 -0.6614 -0.1640  0.6284
47375SOL     OW48982   4.024   4.366   1.647 -0.1406 -1.1901  0.1690
47375SOL    HW148983   3.949   4.344   1.592 -0.5771  0.2100  0.1641
47375SOL    HW248984   4.099   4.365   1.586 -0.4013 -1.0595 -0.1600
47376SOL     OW48985   3.283  11.729   8.059  0.7473  0.0570  0.0924
47376SOL    HW148986   3.254  11.696   8.144  1.7880 -2.1092 -0.3222
47376SOL    HW248987   3.217  11.793   8.034  1.2696  2.0313  3.2431
47377SOL     OW48988   7.608   2.684   1.591  0.0312 -0.1395  0.1247
47377SOL    HW148989   7.644   2.766   1.558 -0.5047 -0.2238 -0.6923
47377SOL    HW248990   7.514   2.694   1.583 -0.0065 -1.3552 -1.2912
47378SOL     OW48991  10.262  10.584  11.186  0.0008  0.9135  0.6524
47378SOL    HW148992  10.203  10.659  11.183 -0.1120  0.8006 -0.1008
47378SOL    HW248993  10.243  10.535  11.106  0.6385  0.5100  0.7377
47379SOL     OW48994   8.141   2.076   0.492 -0.0482  0.1956 -0.5615
47379SOL    HW148995   8.160   1.986   0.519  1.3612  0.9399  1.1053
47379SOL    HW248996   8.223   2.123   0.505 -0.6962  1.7119 -1.6029
47380SOL     OW48997   3.468   0.062   4.145 -0.0468  0.6361  0.1589
47380SOL    HW148998   3.514   0.107   4.074 -0.0485 -1.0962 -0.9995
47380SOL    HW248999   3.405   0.126   4.177  1.4816  2.2264  0.1273
47381SOL     OW49000  10.996  11.650  12.550  0.0251 -0.0765 -0.5530
47381SOL    HW149001  10.955  11.728  12.512  0.3777  0.5131  0.2595
47381SOL    HW249002  10.947  11.632  12.630  1.0594  0.3812  0.1999
47382SOL     OW49003   3.398   1.254   2.741 -0.4535 -0.6610  0.1384
47382SOL    HW149004   3.320   1.221   2.697 -0.7438  0.1347  0.0320
47382SOL    HW249005   3.423   1.332   2.690  0.4889 -0.9833  0.0896
47383SOL     OW49006   7.245   8.065   2.242 -0.1779  0.3519 -0.5655
47383SOL    HW149007   7.165   8.021   2.271 -0.4068  0.4569 -1.0215
47383SOL    HW249008   7.245   8.053   2.147  1.1528 -1.0239 -0.4373
47384SOL     OW49009   8.808   4.961  11.732 -0.3329 -0.7681 -0.4371
47384SOL    HW149010   8.846   5.033  11.782  0.2967 -2.0644  1.0172
47384SOL    HW249011   8.828   4.882  11.783 -0.6676 -2.0342 -2.1531
47385SOL     OW49012   0.942   5.228   8.559 -0.8543  0.9916  0.1156
47385SOL    HW149013   1.034   5.204   8.551 -0.9832 -0.6517  2.3405
47385SOL    HW249014   0.908   5.226   8.470  1.0333  0.6108 -0.6346
47386SOL     OW49015   3.349  10.529   9.288  0.1513 -0.1171 -0.5387
47386SOL    HW149016   3.344  10.502   9.196 -0.3294 -2.6535  0.1455
47386SOL    HW249017   3.258  10.541   9.315  0.1543 -1.2056  0.0346
47387SOL     OW49018   0.578   8.382  11.952  0.7676  0.2237 -0.0719
47387SOL    HW149019   0.644   8.351  11.890  1.7439  0.2369  0.9134
47387SOL    HW249020   0.617   8.461  11.990  0.9231 -0.6127  1.6484
47388SOL     OW49021   9.663   0.095   0.043  0.7306 -0.0302 -0.4050
47388SOL    HW149022   9.749   0.130   0.067  0.5759 -1.2711  2.3741
47388SOL    HW249023   9.611   0.172   0.019  2.7714  0.6652 -3.0433
47389SOL     OW49024   5.894   0.281   9.631 -0.8114  0.4195  0.2369
47389SOL    HW149025   5.929   0.272   9.720  1.7447 -1.0473 -0.7876
47389SOL    HW249026   5.935   0.361   9.598 -0.5463  0.1568 -0.0824
47390SOL     OW49027  12.393   2.975   7.597 -1.0131  0.0567 -0.5814
47390SOL    HW149028  12.378   2.925   7.677 -1.8046 -1.9125 -1.8756
47390SOL    HW249029  12.485   2.958   7.575 -1.1140 -0.3833 -0.6869
47391SOL     OW49030   0.539   3.910   2.328  0.2169  0.4219  0.4612
47391SOL    HW149031   0.606   3.963   2.285  0.1853  0.7701  0.8367
47391SOL    HW249032   0.584   3.870   2.402  0.2482 -0.1039  0.1591
47392SOL     OW49033   8.200   7.438   3.491 -0.6998 -0.1776  0.5217
47392SOL    HW149034   8.187   7.344   3.507  1.0359 -0.7245 -0.8464
47392SOL    HW249035   8.194   7.478   3.577  2.7351 -2.1473  1.8799
47393SOL     OW49036   6.550   5.068  11.274  0.5498  0.5968  0.3780
47393SOL    HW149037   6.589   5.063  11.187  0.8557  2.4564  0.3677
47393SOL    HW249038   6.623   5.050  11.334  0.3234 -0.7589  0.2868
47394SOL     OW49039   8.875   5.104   8.058 -0.0807  0.0564  0.0685
47394SOL    HW149040   8.859   5.015   8.090  0.6001  0.5956  2.0093
47394SOL    HW249041   8.919   5.091   7.973 -0.5779 -1.4421  0.0161
47395SOL     OW49042   6.328  10.499   2.762 -0.5313  0.2652  0.6714
47395SOL    HW149043   6.267  10.483   2.690  1.7173 -4.0744 -0.6300
47395SOL    HW249044   6.286  10.463   2.839 -0.7374 -0.2072  0.3422
47396SOL     OW49045  10.051   8.464   1.007 -0.2437 -0.6404 -0.1007
47396SOL    HW149046  10.011   8.551   1.018 -1.0638 -1.1113  0.8086
47396SOL    HW249047  10.004   8.408   1.069  0.4584 -1.6816 -0.4805
47397SOL     OW49048  12.514   0.636  12.358 -0.1121 -0.0991  0.0825
47397SOL    HW149049  12.471   0.710  12.401 -0.7863 -0.6523  0.3879
47397SOL    HW249050  12.536   0.576  12.429  1.1360  0.1479 -0.0806
47398SOL     OW49051   1.787   0.462   1.941 -0.0830  0.1887 -0.0524
47398SOL    HW149052   1.691   0.465   1.943 -0.2886 -2.7959  1.4379
47398SOL    HW249053   1.812   0.439   2.031  1.8537 -1.1491 -0.8562
47399SOL     OW49054   7.717  10.533   5.720  0.2211  0.1489 -0.1318
47399SOL    HW149055   7.648  10.597   5.742 -0.3603 -0.0200 -1.3996
47399SOL    HW249056   7.799  10.580   5.735 -0.1771  0.6449  0.5480
47400SOL     OW49057   4.765   7.197   0.066 -0.1062  0.3432 -0.0984
47400SOL    HW149058   4.860   7.212   0.064 -0.2183  0.9791 -1.1977
47400SOL    HW249059   4.727   7.282   0.045 -0.8986 -0.1533 -0.7198
47401SOL     OW49060   5.084  10.318   3.386  0.0391  0.3349 -0.0289
47401SOL    HW149061   5.084  10.276   3.472  0.9534  0.0038 -0.1793
47401SOL    HW249062   5.059  10.408   3.404  0.4096  0.3196  0.6155
47402SOL     OW49063   2.727   5.802   4.017 -0.4269  0.0549 -0.5903
47402SOL    HW149064   2.696   5.714   4.040 -0.0242 -0.1545 -0.8549
47402SOL    HW249065   2.649   5.857   4.028 -0.3603 -0.0934  0.9152
47403SOL     OW49066   5.358   7.514   8.412  0.1893  0.1139  0.1193
47403SOL    HW149067   5.427   7.580   8.406  1.4915 -1.2538 -0.5181
47403SOL    HW249068   5.281   7.557   8.375  1.0439  1.2108 -0.4687
47404SOL     OW49069   1.410   7.814   1.527  0.0065  0.1238  0.3737
47404SOL    HW149070   1.461   7.894   1.515  0.0393  0.0715  0.1620
47404SOL    HW249071   1.320   7.843   1.536  0.0978  0.2348  0.9743
47405SOL     OW49072   6.528   1.744  10.293 -1.0267 -0.8179 -0.1814
47405SOL    HW149073   6.442   1.784  10.309 -0.9330 -0.6903  0.0057
47405SOL    HW249074   6.532   1.733  10.198 -0.3352  1.2526 -0.4409
47406SOL     OW49075   6.605  11.945   8.301  0.2483  0.5279  0.2832
47406SOL    HW149076   6.649  11.868   8.336 -0.6293 -0.3212 -0.4133
47406SOL    HW249077   6.513  11.934   8.327 -0.8199 -0.9780 -3.4144
47407SOL     OW49078   8.736   4.243   9.650 -0.3589 -0.3602 -0.5956
47407SOL    HW149079   8.786   4.164   9.673 -0.7688  0.0026  1.7674
47407SOL    HW249080   8.803   4.307   9.626  0.0909 -0.8945 -0.7961
47408SOL     OW49081   0.987   1.423   4.270 -0.2830  0.0454  0.3845
47408SOL    HW149082   0.927   1.369   4.323  0.2296 -1.2035 -0.2586
47408SOL    HW249083   0.932   1.455   4.198 -0.4420 -0.1597  0.4114
47409SOL     OW49084   4.413   2.970   4.323  0.3583  0.3820  0.3236
47409SOL    HW149085   4.326   2.936   4.303 -1.0423  1.8816  3.1957
47409SOL    HW249086   4.452   2.906   4.383  0.5691  0.4657  0.2787
47410SOL     OW49087   7.180   2.273  12.117  0.0005 -0.1737 -0.4711
47410SOL    HW149088   7.199   2.335  12.187 -1.2102 -0.4857  0.1553
47410SOL    HW249089   7.164   2.329  12.040 -0.4735  0.2781 -0.0584
47411SOL     OW49090   6.177   9.819   7.607 -0.3383 -0.6286 -0.4368
47411SOL    HW149091   6.121   9.854   7.676  0.6601 -0.6407  0.4056
47411SOL    HW249092   6.212   9.738   7.643  0.5769 -0.3850 -0.7526
47412SOL     OW49093  12.126   3.205  10.936  0.3631 -0.3725 -0.1304
47412SOL    HW149094  12.150   3.266  11.005  1.7781 -0.1201 -0.8176
47412SOL    HW249095  12.133   3.256  10.855 -1.2079 -0.6748 -0.4912
47413SOL     OW49096   6.028  12.022   6.778 -0.0207  0.8766 -0.0431
47413SOL    HW149097   5.985  12.072   6.709 -1.3450  0.9320  0.7906
47413SOL    HW249098   6.059  12.088   6.840  1.4742  0.8496 -0.7108
47414SOL     OW49099   7.668  10.455   4.461 -0.0294 -0.2855 -1.0062
47414SOL    HW149100   7.718  10.386   4.505 -0.1036  0.1603 -0.2109
47414SOL    HW249101   7.578  10.441   4.490 -0.3954 -1.0763 -2.4173
47415SOL     OW49102   5.329  11.547   3.067  0.0647  0.7524 -0.4087
47415SOL    HW149103   5.370  11.460   3.066  0.6829  1.0452 -0.9061
47415SOL    HW249104   5.402  11.607   3.082 -0.1935  1.2798 -1.2484
47416SOL     OW49105  10.725  11.790   2.661 -0.2965  0.6420  0.4203
47416SOL    HW149106  10.770  11.748   2.735 -0.3460  1.9294  1.2219
47416SOL    HW249107  10.633  11.790   2.687 -0.5822 -0.5680 -0.5059
47417SOL     OW49108   1.281   5.314   6.257  0.5563 -0.5580 -0.2853
47417SOL    HW149109   1.370   5.347   6.275 -0.4236  3.0175 -1.2142
47417SOL    HW249110   1.247   5.290   6.343  1.8656 -0.4619  0.2899
47418SOL     OW49111   5.581   7.513   6.963 -0.4175  0.0298  0.2565
47418SOL    HW149112   5.565   7.607   6.960 -0.1391  0.0541 -0.7685
47418SOL    HW249113   5.667   7.502   6.922 -0.7556 -0.7351 -0.2712
47419SOL     OW49114   7.135   0.916   6.787 -0.3111 -0.3123 -0.0927
47419SOL    HW149115   7.047   0.953   6.791 -1.0260 -1.5584 -2.4559
47419SOL    HW249116   7.122   0.825   6.762  1.6028 -1.0166  1.2155
47420SOL     OW49117   6.743  10.513   2.446  0.5690  0.0376 -0.0478
47420SOL    HW149118   6.773  10.426   2.420  0.7491 -0.1277  0.6651
47420SOL    HW249119   6.668  10.496   2.503 -0.8756  0.4544 -1.7767
47421SOL     OW49120   5.540  12.195   4.582 -1.0578 -0.7767 -0.1478
47421SOL    HW149121   5.497  12.193   4.496  0.6286 -0.8019 -1.0418
47421SOL    HW249122   5.482  12.248   4.637 -0.3830  2.5547 -2.3546
47422SOL     OW49123   1.825   3.669   0.883  0.6369  0.2576 -0.0658
47422SOL    HW149124   1.863   3.610   0.948  0.8259  0.4721  0.0189
47422SOL    HW249125   1.872   3.649   0.802 -0.6171 -1.0589 -0.5033
47423SOL     OW49126   0.265   4.884   9.726 -0.3167  0.1886  0.5483
47423SOL    HW149127   0.252   4.891   9.631 -0.1169  0.3546  0.5307
47423SOL    HW249128   0.347   4.835   9.735 -0.2133  0.3768  0.6312
47424SOL     OW49129   0.598   0.835  11.385  0.3991 -0.2676 -0.0587
47424SOL    HW149130   0.513   0.795  11.365  1.0087 -0.8335 -1.6008
47424SOL    HW249131   0.588   0.926  11.357 -0.4161  0.2911  1.8673
47425SOL     OW49132  11.044   2.818   7.181 -0.2272  0.3065  0.1602
47425SOL    HW149133  11.072   2.765   7.107 -0.9437  0.1467 -0.0014
47425SOL    HW249134  11.103   2.894   7.180 -0.9848  0.9069 -1.2984
47426SOL     OW49135   6.233   6.211   6.205 -0.8383 -0.3478  0.4750
47426SOL    HW149136   6.243   6.246   6.116  0.4659  0.3681  0.8736
47426SOL    HW249137   6.317   6.228   6.247 -0.6847 -2.5883  1.2131
47427SOL     OW49138   5.215   7.329   2.404  0.7042 -0.0713 -0.4882
47427SOL    HW149139   5.136   7.362   2.446  0.2498 -1.0317 -0.5671
47427SOL    HW249140   5.216   7.371   2.318  0.0142 -0.4280 -0.6759
47428SOL     OW49141  10.193   8.440   9.593  0.6517 -0.3337  0.1755
47428SOL    HW149142  10.124   8.380   9.622 -1.1626  0.7681 -1.6028
47428SOL    HW249143  10.216   8.490   9.671 -2.6709  1.2539  0.2895
47429SOL     OW49144   1.479   4.084   6.248  0.2294 -0.4262 -0.5607
47429SOL    HW149145   1.413   4.139   6.289  0.3136  0.0342 -1.0239
47429SOL    HW249146   1.544   4.146   6.214  1.6445 -0.9325  1.1254
47430SOL     OW49147  12.027   1.600   2.857 -0.1304 -0.3956  0.0289
47430SOL    HW149148  12.017   1.508   2.832  3.0455 -0.9067  0.2639
47430SOL    HW249149  11.962   1.646   2.804 -0.6041 -2.5527 -1.4161
47431SOL     OW49150   0.851   7.818   2.580  0.3677 -0.3437  0.0111
47431SOL    HW149151   0.864   7.779   2.667  0.2191  0.9115  0.6283
47431SOL    HW249152   0.823   7.908   2.599 -1.8554 -0.6825 -1.3159
47432SOL     OW49153   3.012   2.080   3.106  0.4366 -0.2409  0.2879
47432SOL    HW149154   3.002   2.041   3.192 -1.5151  0.1925  0.3148
47432SOL    HW249155   3.004   2.006   3.045 -1.6820 -0.1754  0.3986
47433SOL     OW49156   0.040   1.737   4.727  0.0100 -0.4682 -0.2056
47433SOL    HW149157   0.070   1.649   4.706  1.6213  0.1331 -0.5917
47433SOL    HW249158   0.051   1.786   4.646  0.1472  0.3457  0.2947
47434SOL     OW49159   1.179   3.856   1.020  0.0199 -0.0953 -0.1682
47434SOL    HW149160   1.112   3.898   0.966  0.8506  0.7195 -0.5845
47434SOL    HW249161   1.249   3.921   1.028  0.7791 -0.9285  0.2526
47435SOL     OW49162   7.255   3.817   0.516  0.6215  0.1369 -0.1714
47435SOL    HW149163   7.221   3.886   0.572  0.9783 -0.3901  0.7018
47435SOL    HW249164   7.345   3.804   0.543  0.1166 -1.7534  0.7883
47436SOL     OW49165   2.826   9.527   2.333  0.0360  0.5510 -0.2392
47436SOL    HW149166   2.856   9.448   2.379  0.3534  0.8161  0.0151
47436SOL    HW249167   2.741   9.547   2.372  1.0229  1.7075  1.3965
47437SOL     OW49168  11.374   6.870  11.049  0.0034 -0.4664 -0.2328
47437SOL    HW149169  11.415   6.888  10.965 -0.9894 -1.6443 -1.0101
47437SOL    HW249170  11.344   6.955  11.080  1.6447  0.1824 -0.3766
47438SOL     OW49171   3.348   3.571   1.096 -0.5621 -0.4633  0.2781
47438SOL    HW149172   3.441   3.582   1.116 -0.7418 -1.3057  1.7156
47438SOL    HW249173   3.336   3.477   1.087 -1.2523 -0.3549 -0.0410
47439SOL     OW49174   1.438   4.395   8.787  0.0230 -0.0486  0.3121
47439SOL    HW149175   1.350   4.376   8.755  0.1980  0.3389 -0.4233
47439SOL    HW249176   1.483   4.310   8.787 -0.3697 -0.2589  0.7631
47440SOL     OW49177   3.171   8.306   6.941  0.4441 -0.0237  0.2904
47440SOL    HW149178   3.147   8.397   6.926 -0.7908 -0.2872  0.5724
47440SOL    HW249179   3.088   8.261   6.958  1.1486 -0.9254  1.5661
47441SOL     OW49180   7.996   2.857   4.625 -0.7221 -0.1233 -0.4710
47441SOL    HW149181   8.076   2.804   4.629  0.3335  1.3066 -1.3765
47441SOL    HW249182   8.004   2.918   4.698 -1.0855 -0.1105 -0.4425
47442SOL     OW49183  12.074   1.369  12.435 -0.1722  0.0950  0.6536
47442SOL    HW149184  12.085   1.418  12.516 -0.6985 -0.8938  1.3547
47442SOL    HW249185  12.117   1.422  12.368 -0.8876  1.5904  1.3293
47443SOL     OW49186   3.814   9.845   9.689  0.2827  0.5248  0.9958
47443SOL    HW149187   3.893   9.803   9.723  0.4902  0.8392  0.9085
47443SOL    HW249188   3.789   9.908   9.756 -0.6932 -0.5361  1.6610
47444SOL     OW49189   2.316   9.069   8.163 -0.1944 -0.3152  0.0423
47444SOL    HW149190   2.222   9.072   8.178  0.0068  0.0793  1.3055
47444SOL    HW249191   2.353   9.124   8.232  0.8835  0.5223 -1.1605
47445SOL     OW49192   7.728   9.728   6.678 -0.0763 -0.2916 -0.3749
47445SOL    HW149193   7.648   9.722   6.730 -0.0283  1.2423 -0.0917
47445SOL    HW249194   7.798   9.703   6.739  0.0391  2.0110  0.5165
47446SOL     OW49195  10.677   4.675   1.744 -0.6438 -0.2398  0.2791
47446SOL    HW149196  10.597   4.626   1.721 -1.1346  0.3924  0.5969
47446SOL    HW249197  10.644   4.756   1.783  0.1657 -0.3716  1.2629
47447SOL     OW49198   2.995   5.151   4.469  0.1200 -0.3897  0.2220
47447SOL    HW149199   3.007   5.201   4.550  0.6746  1.6297 -1.0232
47447SOL    HW249200   2.916   5.188   4.430  1.5854  0.9222 -1.6439
47448SOL     OW49201  10.587   2.568   5.708  0.5569 -0.0180  0.1952
47448SOL    HW149202  10.548   2.496   5.659 -0.0487  0.9918 -0.8795
47448SOL    HW249203  10.520   2.637   5.707  2.2922  1.7980 -1.7729
47449SOL     OW49204   5.377   7.775  11.428 -0.0138 -0.0963 -0.1193
47449SOL    HW149205   5.409   7.859  11.394 -1.8564  1.1676  1.0853
47449SOL    HW249206   5.290   7.765  11.389 -0.1596 -1.0430  0.4157
47450SOL     OW49207  11.653   3.331   6.786 -0.0086 -1.0771 -0.4063
47450SOL    HW149208  11.716   3.263   6.812  0.1221 -1.1618 -0.9282
47450SOL    HW249209  11.572   3.307   6.830  0.1775 -1.2736 -0.1652
47451SOL     OW49210   1.115   8.079   5.550 -0.3014 -0.3813  0.0194
47451SOL    HW149211   1.057   8.116   5.483  0.1039  0.8776  0.3518
47451SOL    HW249212   1.199   8.068   5.505  0.2910  1.5364  0.6007
47452SOL     OW49213   4.565   1.281   4.694  0.6417  0.1171  0.5780
47452SOL    HW149214   4.562   1.348   4.626  0.4449  0.6350  1.0866
47452SOL    HW249215   4.473   1.264   4.715  0.7184  0.4400  1.1798
47453SOL     OW49216   8.318   6.446   4.048  0.1341 -0.0210  0.4237
47453SOL    HW149217   8.377   6.511   4.010  1.3722 -1.9131 -1.0731
47453SOL    HW249218   8.374   6.371   4.068 -1.6243 -1.7097 -0.5907
47454SOL     OW49219  11.784   6.224  10.828  0.1654 -0.4341 -0.4847
47454SOL    HW149220  11.808   6.298  10.884 -0.2920 -1.2117  0.7847
47454SOL    HW249221  11.727   6.262  10.762  0.1073  0.3860  0.0176
47455SOL     OW49222   3.625   6.789   2.036 -0.2129  0.6492 -0.2281
47455SOL    HW149223   3.675   6.857   1.990  0.4063  0.7420  0.5380
47455SOL    HW249224   3.541   6.830   2.056 -1.3474 -0.0846 -3.0774
47456SOL     OW49225  10.056   9.491   7.671  0.1176 -0.6628 -0.0950
47456SOL    HW149226  10.098   9.417   7.715  1.7365 -0.0995 -0.5832
47456SOL    HW249227   9.997   9.529   7.736  0.8258 -1.1427  0.8486
47457SOL     OW49228  11.259   7.052   4.649 -0.0550  0.0056 -0.1973
47457SOL    HW149229  11.287   7.043   4.741  2.2358 -0.1483 -0.8424
47457SOL    HW249230  11.275   6.965   4.612 -0.5026  0.2070 -0.8611
47458SOL     OW49231   5.360   1.602   4.835 -0.4232 -0.2186  0.2489
47458SOL    HW149232   5.452   1.614   4.855  0.3831 -0.6989 -2.7168
47458SOL    HW249233   5.340   1.670   4.770 -1.3165 -1.8561 -1.3103
47459SOL     OW49234   3.460   0.997   7.014 -0.1349 -0.0218  0.1381
47459SOL    HW149235   3.412   1.058   6.959 -0.9087 -0.6792  0.0575
47459SOL    HW249236   3.448   1.030   7.103 -2.2392 -1.0976  0.3202
47460SOL     OW49237  11.376   7.559   1.893  0.3907  0.4622  0.4730
47460SOL    HW149238  11.328   7.522   1.967  0.8880 -0.3217  0.4246
47460SOL    HW249239  11.310   7.574   1.826  0.1937 -0.5347  0.4333
47461SOL     OW49240   0.443   4.062   7.121  0.5237  0.0502 -0.7390
47461SOL    HW149241   0.382   4.134   7.139 -1.9642 -1.7539 -1.3872
47461SOL    HW249242   0.470   4.031   7.207  0.2523  0.6436 -0.4343
47462SOL     OW49243  11.145   6.824   3.958 -0.0864 -0.2341  0.4389
47462SOL    HW149244  11.070   6.764   3.966  0.8007 -1.1590  2.6280
47462SOL    HW249245  11.109   6.910   3.975 -1.1722 -0.2255 -1.5908
47463SOL     OW49246   9.412   7.482  10.130 -0.2177  0.4922 -0.6078
47463SOL    HW149247   9.331   7.525  10.103 -0.1091  1.0487 -0.0462
47463SOL    HW249248   9.411   7.399  10.082 -1.5472  0.1018  0.0430
47464SOL     OW49249   6.684   4.442   9.063  0.0114  0.0472  0.2211
47464SOL    HW149250   6.695   4.534   9.039  1.5020 -0.4258 -1.0977
47464SOL    HW249251   6.772   4.413   9.087 -0.3433 -1.1537  0.1484
47465SOL     OW49252   4.750   1.548   9.910 -0.2584 -0.1111  0.4273
47465SOL    HW149253   4.746   1.454   9.922  2.3896 -0.4943 -0.9704
47465SOL    HW249254   4.837   1.573   9.942 -0.5386  1.7093 -0.0970
47466SOL     OW49255   1.169  12.493   4.329  0.1245 -0.1511  0.2842
47466SOL    HW149256   1.255  12.531   4.347  0.9046 -1.5877 -0.2224
47466SOL    HW249257   1.129  12.482   4.415  0.3884  0.6502  0.5154
47467SOL     OW49258   1.042  10.910   5.143 -0.0620  0.0258  0.2740
47467SOL    HW149259   1.019  10.834   5.196 -0.5993 -1.0109 -1.3750
47467SOL    HW249260   0.965  10.967   5.148 -0.5474 -0.5704 -0.2313
47468SOL     OW49261   9.263  10.730  11.958  0.2733  0.2443  0.3384
47468SOL    HW149262   9.257  10.685  12.042 -0.7516 -0.6559 -0.1951
47468SOL    HW249263   9.250  10.662  11.892  0.7832  0.9750 -0.5548
47469SOL     OW49264   8.900  10.694  11.675  0.0475 -0.0930 -0.8535
47469SOL    HW149265   8.918  10.674  11.767 -0.0291 -1.2358 -1.0678
47469SOL    HW249266   8.838  10.767  11.678 -0.7061 -0.7345  0.0456
47470SOL     OW49267   8.096   8.301   9.987 -0.0911 -0.1589 -0.3496
47470SOL    HW149268   8.005   8.326  10.005 -0.0842 -1.2827  1.4087
47470SOL    HW249269   8.133   8.281  10.073  1.8006  0.1536 -1.0494
47471SOL     OW49270   6.239   2.877   0.141 -0.2512  0.0847 -0.3261
47471SOL    HW149271   6.287   2.794   0.143  0.4546  0.4826 -0.4911
47471SOL    HW249272   6.286   2.933   0.203 -0.1656  0.6598 -0.9026
47472SOL     OW49273   0.088   3.091   0.932 -0.3443 -0.1345  0.5252
47472SOL    HW149274   0.084   3.114   0.839 -0.7084 -1.9345  0.0615
47472SOL    HW249275   0.128   3.167   0.973 -1.0802  1.1223 -0.9468
47473SOL     OW49276  11.730   4.013  10.323  0.5963  0.2690  0.1173
47473SOL    HW149277  11.702   4.059  10.244 -1.5841  1.6719  1.5744
47473SOL    HW249278  11.676   3.933  10.325 -0.2194  0.8119  0.7187
47474SOL     OW49279   3.116  12.073   9.462  0.1281  0.1500 -0.5155
47474SOL    HW149280   3.164  12.014   9.403  1.5609  0.7587 -0.0031
47474SOL    HW249281   3.181  12.099   9.527 -1.3085 -0.2088  1.1398
47475SOL     OW49282   6.261   1.680   6.021 -0.0444  0.3338  0.7517
47475SOL    HW149283   6.190   1.619   6.040  1.5962 -1.4985  1.2121
47475SOL    HW249284   6.249   1.751   6.084 -0.8171 -0.4804  1.5435
47476SOL     OW49285   6.888   3.257   9.469 -0.4966  0.5723 -0.6485
47476SOL    HW149286   6.914   3.336   9.422 -1.5518  0.4784 -1.4265
47476SOL    HW249287   6.795   3.272   9.490 -0.2737  0.2491  0.6781
47477SOL     OW49288   3.287  10.671   7.221  0.0584  0.1995 -0.4696
47477SOL    HW149289   3.288  10.763   7.250  0.8014  0.2932 -0.7858
47477SOL    HW249290   3.245  10.624   7.294  3.9193  0.0634  1.9558
47478SOL     OW49291   9.907   0.570  11.959  0.1093  0.2885 -0.1097
47478SOL    HW149292   9.907   0.556  12.053 -1.3946 -0.5352 -0.2028
47478SOL    HW249293   9.886   0.484  11.922  1.8486  0.3134 -1.2747
47479SOL     OW49294   0.113   0.003   1.855 -0.4526  0.3583  0.2475
47479SOL    HW149295   0.163  -0.077   1.838 -1.0353  0.2756 -1.2819
47479SOL    HW249296   0.135   0.061   1.783 -0.7073  1.2496  0.8736
47480SOL     OW49297   9.339   4.088   8.726  0.6658  0.0080  0.1951
47480SOL    HW149298   9.308   4.002   8.699  0.3227 -0.2430  1.3305
47480SOL    HW249299   9.398   4.116   8.656 -0.1492 -0.6205 -0.7561
47481SOL     OW49300   0.981   7.836   3.153  0.0604  0.5139 -0.2744
47481SOL    HW149301   1.071   7.856   3.129  0.8604 -1.1387  1.0420
47481SOL    HW249302   0.969   7.878   3.238  0.6472 -1.6125  0.9392
47482SOL     OW49303   7.426   0.364   2.777  0.2064 -0.3250 -0.2641
47482SOL    HW149304   7.443   0.388   2.686  1.2073  1.0740  0.2557
47482SOL    HW249305   7.383   0.440   2.815 -0.1220 -0.8560  0.4536
47483SOL     OW49306   3.745   8.857   2.284  0.1383 -0.0113 -0.0601
47483SOL    HW149307   3.679   8.893   2.225  0.2873  1.8097  0.8191
47483SOL    HW249308   3.698   8.790   2.335 -0.8366  0.7029  0.0093
47484SOL     OW49309   8.843   1.715   9.101 -0.0740  0.5385  0.0479
47484SOL    HW149310   8.855   1.809   9.107  0.2981  0.5901 -1.2191
47484SOL    HW249311   8.925   1.682   9.066 -0.7564 -0.0603 -1.0498
47485SOL     OW49312   9.585   5.838   5.808  0.8065 -0.2169 -0.2080
47485SOL    HW149313   9.671   5.796   5.814  0.0355 -2.4973 -3.0057
47485SOL    HW249314   9.539   5.809   5.887  1.6805 -1.3058 -0.0706
47486SOL     OW49315   3.394  10.479   1.522 -0.0860  0.3724  0.2799
47486SOL    HW149316   3.323  10.481   1.585 -0.9951 -0.5416 -0.6813
47486SOL    HW249317   3.370  10.545   1.456  0.5961  0.9497  0.5867
47487SOL     OW49318  10.582   7.806   3.397  0.2485 -0.1168 -0.0825
47487SOL    HW149319  10.627   7.725   3.374 -0.3974 -0.7446  0.8061
47487SOL    HW249320  10.531   7.828   3.318  1.6887  0.3417 -0.9197
47488SOL     OW49321  10.463   0.172   0.083  0.3992 -0.3700  0.1395
47488SOL    HW149322  10.449   0.209  -0.004  0.5715 -0.6189  0.0038
47488SOL    HW249323  10.458   0.247   0.142 -0.1423 -0.2604 -0.0407
47489SOL     OW49324   4.964   2.734   8.605  0.3220  0.1047  0.6603
47489SOL    HW149325   5.025   2.751   8.533 -0.6834  0.2577 -0.1837
47489SOL    HW249326   4.995   2.790   8.676  0.8979  0.5128  0.1019
47490SOL     OW49327  12.021   5.222  12.324 -0.0922 -0.3449  0.1394
47490SOL    HW149328  11.946   5.281  12.323  0.0557 -0.1683 -0.6596
47490SOL    HW249329  12.009   5.165  12.248 -0.7643 -2.0445  1.4443
47491SOL     OW49330   9.151   6.833   3.049 -0.1850 -0.1391  0.0070
47491SOL    HW149331   9.093   6.798   2.982  1.2651 -1.1590 -0.7480
47491SOL    HW249332   9.206   6.897   3.003  0.5521 -0.5536  0.3010
47492SOL     OW49333   3.849   8.820   5.918  0.1515  0.0244  0.1495
47492SOL    HW149334   3.760   8.820   5.954 -0.3061  2.6028 -0.7573
47492SOL    HW249335   3.838   8.849   5.828  1.8303 -0.8417 -0.3693
47493SOL     OW49336   8.824  11.464   3.889  0.4732 -0.0677 -0.1338
47493SOL    HW149337   8.850  11.503   3.805 -0.1008  1.3237  0.3090
47493SOL    HW249338   8.728  11.469   3.889  0.2807 -2.5329 -0.5209
47494SOL     OW49339   8.341   3.358  11.971  0.5107  0.0135 -0.0844
47494SOL    HW149340   8.329   3.448  11.942 -1.2976 -0.7003 -1.8388
47494SOL    HW249341   8.331   3.306  11.892 -0.6927 -1.8567  1.2079
47495SOL     OW49342   2.813  11.294   3.336 -0.3290 -0.2892 -0.5138
47495SOL    HW149343   2.849  11.240   3.266  0.3147 -0.2562 -0.2195
47495SOL    HW249344   2.859  11.378   3.328 -1.0859  0.1155 -0.7647
47496SOL     OW49345   8.656   0.541   7.700 -0.3871  0.2118  0.3769
47496SOL    HW149346   8.715   0.597   7.750 -0.1052 -1.3279  1.8585
47496SOL    HW249347   8.619   0.481   7.765 -2.9868  0.5943 -0.6382
47497SOL     OW49348   4.272   1.185  10.500 -0.5752  0.0239  0.2026
47497SOL    HW149349   4.301   1.256  10.557  1.3096 -2.5148  2.6349
47497SOL    HW249350   4.349   1.163  10.447 -1.3459  0.1601 -1.0321
47498SOL     OW49351   1.075   8.307   8.632 -0.4874 -0.2151 -0.5948
47498SOL    HW149352   1.104   8.222   8.598 -1.5831 -0.3322 -1.2753
47498SOL    HW249353   0.983   8.294   8.656  0.0452  0.0592  1.8410
47499SOL     OW49354  10.641  10.227   9.986  0.0355 -0.1085 -0.9618
47499SOL    HW149355  10.728  10.247  10.018 -0.6957 -1.3747  2.2197
47499SOL    HW249356  10.652  10.147   9.935  0.5472 -1.5166  1.2217
47500SOL     OW49357   6.869   4.512   7.343 -0.3086 -0.1025  0.1111
47500SOL    HW149358   6.887   4.568   7.419 -1.0636 -1.4505  1.3418
47500SOL    HW249359   6.854   4.573   7.271 -0.3190  1.2525  1.2119
47501SOL     OW49360   9.061  11.904  10.817 -0.2389  0.1095 -0.0082
47501SOL    HW149361   8.980  11.876  10.775 -0.6417  0.2595  0.6440
47501SOL    HW249362   9.033  11.969  10.882  0.5984  1.5958 -1.0596
47502SOL     OW49363   5.917   7.405   6.685 -0.2367 -0.1211 -0.4807
47502SOL    HW149364   5.927   7.472   6.618  0.2669  2.2257  1.7648
47502SOL    HW249365   5.984   7.426   6.750 -1.3843 -1.5715  1.2811
47503SOL     OW49366   2.690   8.518   7.989 -0.5815  0.4021 -0.7910
47503SOL    HW149367   2.689   8.428   8.021 -2.6584  0.6720  0.0777
47503SOL    HW249368   2.775   8.527   7.946 -0.9788 -2.5033 -2.4785
47504SOL     OW49369   7.923  11.329   0.250 -0.1273  0.1304  0.2884
47504SOL    HW149370   7.865  11.256   0.229 -0.9099  0.7393  0.3147
47504SOL    HW249371   7.893  11.360   0.335 -0.6179  1.2892 -0.2918
47505SOL     OW49372  10.184   2.517   4.299 -0.4462  0.2410 -0.2596
47505SOL    HW149373  10.128   2.516   4.221 -1.3561  1.6253  0.3425
47505SOL    HW249374  10.128   2.550   4.368  0.5530 -0.3221  0.8467
47506SOL     OW49375   3.981   1.118   9.160 -0.4490  0.1118 -0.4376
47506SOL    HW149376   4.029   1.186   9.114  1.5089 -1.4154 -0.7459
47506SOL    HW249377   3.899   1.109   9.111 -0.3155  1.5115 -0.9702
47507SOL     OW49378   6.447   1.007   7.896 -0.1442  0.3431 -0.4205
47507SOL    HW149379   6.474   0.915   7.893  1.5784  0.8035 -0.2410
47507SOL    HW249380   6.503   1.050   7.831 -1.4456  1.1571 -1.0375
47508SOL     OW49381   2.803   5.530   7.659 -0.0086  0.1121  0.5477
47508SOL    HW149382   2.824   5.450   7.612 -0.3258 -0.0527  0.6819
47508SOL    HW249383   2.831   5.601   7.600  1.6317 -0.0841  1.0482
47509SOL     OW49384  11.358   9.198  10.028 -0.5055  0.4301  0.0245
47509SOL    HW149385  11.345   9.233   9.940 -2.6211  0.4241  0.2793
47509SOL    HW249386  11.396   9.112  10.014 -0.3399  0.6382 -0.8669
47510SOL     OW49387   2.637   2.093   0.389  0.7674 -0.5685  0.1591
47510SOL    HW149388   2.694   2.078   0.314  1.4292 -0.7578  0.6921
47510SOL    HW249389   2.560   2.040   0.372  0.5400  0.0500 -0.7930
47511SOL     OW49390   9.795   9.401   0.757  0.0885 -0.2678 -0.0482
47511SOL    HW149391   9.829   9.370   0.841  1.5893  0.4540 -0.3624
47511SOL    HW249392   9.848   9.356   0.692  0.3508  0.7533 -0.5560
47512SOL     OW49393  12.105   4.365   2.205 -0.3103 -0.4540 -0.1124
47512SOL    HW149394  12.162   4.339   2.278 -2.5464 -1.4981  1.3862
47512SOL    HW249395  12.085   4.457   2.222  0.6827 -0.1542 -0.5053
47513SOL     OW49396   7.454   7.074   8.104 -0.1915 -0.0403  0.3790
47513SOL    HW149397   7.449   7.100   8.196 -0.7405 -1.7249  0.8584
47513SOL    HW249398   7.548   7.079   8.082 -0.2023  1.6789  0.5922
47514SOL     OW49399   2.717   9.230   0.027 -0.4181 -0.2890  0.5012
47514SOL    HW149400   2.656   9.172  -0.018 -1.2736  0.1471  1.0781
47514SOL    HW249401   2.674   9.315   0.026  0.9509  0.4249 -0.5959
47515SOL     OW49402   7.060   4.398   4.390  0.2669  0.2402 -0.2066
47515SOL    HW149403   7.019   4.425   4.472  0.5370  2.4998 -0.7464
47515SOL    HW249404   7.122   4.330   4.415 -2.3356 -1.9090  0.8810
47516SOL     OW49405   7.757   3.793  12.492  0.2734  0.1192 -0.3222
47516SOL    HW149406   7.845   3.794  12.531 -0.5140  1.8479  1.5840
47516SOL    HW249407   7.698   3.800  12.567 -1.5376 -1.1302 -1.5655
47517SOL     OW49408   2.438   7.631   6.525  0.4697 -0.2204 -0.5648
47517SOL    HW149409   2.388   7.666   6.452  0.6033  0.2536 -0.4281
47517SOL    HW249410   2.374   7.584   6.578  0.2075  0.2078 -0.5036
47518SOL     OW49411   1.264   1.637   2.423 -0.0112 -0.1498 -0.1039
47518SOL    HW149412   1.311   1.708   2.466 -3.7471  1.2433  2.1632
47518SOL    HW249413   1.280   1.561   2.479  0.3568  0.0445  0.0598
47519SOL     OW49414  11.035   9.214  10.380  0.2821  0.0765  0.2747
47519SOL    HW149415  11.096   9.192  10.309 -0.2294  1.8906 -0.7952
47519SOL    HW249416  11.006   9.129  10.414 -0.3150 -0.9087 -2.4631
47520SOL     OW49417   1.520   4.600  11.552  0.2526  0.4986  0.0061
47520SOL    HW149418   1.464   4.533  11.512 -0.8920  2.1451 -1.2779
47520SOL    HW249419   1.512   4.584  11.647 -0.6120 -0.6810 -0.2364
47521SOL     OW49420   0.853   8.460   9.041  0.0189  0.2852 -0.6146
47521SOL    HW149421   0.848   8.509   8.959  1.2906  1.4440 -0.0361
47521SOL    HW249422   0.837   8.369   9.016  1.5258  0.4493 -2.3167
47522SOL     OW49423   4.137   4.468   0.316 -0.3751  0.0553 -0.4427
47522SOL    HW149424   4.170   4.391   0.363 -1.0102 -0.1780 -0.3777
47522SOL    HW249425   4.097   4.433   0.237 -0.6602  0.3230 -0.4177
47523SOL     OW49426   2.186  11.994   6.324  0.2123 -0.0143 -0.2722
47523SOL    HW149427   2.260  11.978   6.382  0.0807  0.9674  0.1986
47523SOL    HW249428   2.225  12.020   6.241  0.4261  1.5183  0.2746
47524SOL     OW49429   1.726   4.796   6.468 -0.1982 -0.4467 -0.0245
47524SOL    HW149430   1.808   4.843   6.479 -1.3882  2.1200 -1.2860
47524SOL    HW249431   1.701   4.770   6.557  0.4860  1.4359  0.7721
47525SOL     OW49432   5.011   1.163   9.495 -0.7317  0.1722 -0.1250
47525SOL    HW149433   5.097   1.159   9.537 -0.4885 -0.3632 -0.6576
47525SOL    HW249434   4.955   1.110   9.552 -0.3125 -0.8699 -0.6597
47526SOL     OW49435   4.430   2.659   0.673  0.1106 -0.5466  0.6457
47526SOL    HW149436   4.385   2.606   0.739  0.8296 -1.0464  0.7395
47526SOL    HW249437   4.376   2.648   0.594 -1.4307  1.0131  1.4191
47527SOL     OW49438  11.176   2.648   1.914 -0.5639 -0.2554 -0.1211
47527SOL    HW149439  11.169   2.559   1.947  0.7770 -0.2450  0.2405
47527SOL    HW249440  11.247   2.644   1.850 -0.6568  0.5057 -0.2803
47528SOL     OW49441  10.634   2.855  10.265 -0.6376 -0.1064 -0.4183
47528SOL    HW149442  10.600   2.769  10.290 -0.6750  0.0250 -0.0113
47528SOL    HW249443  10.702   2.873  10.330 -0.4039  0.0290 -0.6972
47529SOL     OW49444   2.994   4.465   9.493  0.2933 -0.0069 -0.0171
47529SOL    HW149445   2.992   4.370   9.500  0.9315 -0.0840 -0.7689
47529SOL    HW249446   2.971   4.496   9.581  1.3512 -0.8456  0.5735
47530SOL     OW49447   0.873  11.524  10.086 -0.0143 -0.1429 -0.0728
47530SOL    HW149448   0.852  11.476  10.166  1.3701 -0.2492  0.2527
47530SOL    HW249449   0.836  11.611  10.099  1.9488  0.5214  1.6114
47531SOL     OW49450   3.493   4.929   8.076 -0.6528  0.5775 -0.1457
47531SOL    HW149451   3.546   4.872   8.132 -0.4999 -0.9060 -1.6986
47531SOL    HW249452   3.482   5.009   8.127  1.0159  0.0102  1.2249
47532SOL     OW49453   9.829   3.000  12.463  0.1535 -0.6750  0.1178
47532SOL    HW149454   9.834   3.065  12.533 -1.0750 -0.0527 -0.3429
47532SOL    HW249455   9.853   2.918  12.505  0.4073 -0.1497  1.0331
47533SOL     OW49456  12.070   7.905   6.216  0.4821  0.3070  0.0087
47533SOL    HW149457  12.090   7.823   6.171 -0.1700  0.2169 -0.1269
47533SOL    HW249458  12.109   7.895   6.303  0.8395  0.0557 -0.1788
47534SOL     OW49459   2.134   8.318   5.836 -0.6729  0.2682  0.3383
47534SOL    HW149460   2.199   8.330   5.768 -1.7814 -0.3167 -0.8668
47534SOL    HW249461   2.185   8.309   5.917  0.6550  1.1120 -0.3752
47535SOL     OW49462   3.025  11.565   9.250  0.7580  0.4087  0.5014
47535SOL    HW149463   3.108  11.542   9.291  0.9977  2.0316  0.9977
47535SOL    HW249464   3.043  11.564   9.156  0.5956 -1.8771  0.4411
47536SOL     OW49465   2.990   1.799   9.764 -0.0387 -0.0435  0.3508
47536SOL    HW149466   2.973   1.787   9.858 -2.6973 -0.3478 -0.0747
47536SOL    HW249467   2.973   1.713   9.726 -2.0417  0.7370 -0.7041
47537SOL     OW49468   9.535   5.826  10.993 -0.6081 -0.1926  0.1465
47537SOL    HW149469   9.617   5.778  10.992 -0.1437  0.5859 -0.6229
47537SOL    HW249470   9.524   5.857  10.902 -1.2903  0.4504  0.4343
47538SOL     OW49471  11.833   6.324   5.103  0.3023  0.0853 -0.0198
47538SOL    HW149472  11.859   6.406   5.144 -0.5163 -0.0834  0.8705
47538SOL    HW249473  11.758   6.347   5.047  1.8501  0.4476 -2.0539
47539SOL     OW49474  10.431   7.346   3.523 -0.3264  0.4882  0.4002
47539SOL    HW149475  10.345   7.309   3.502 -0.3102 -0.0245  1.2145
47539SOL    HW249476  10.415   7.407   3.595 -0.1358  1.0555 -0.0274
47540SOL     OW49477   0.325   7.473   8.109 -0.1505 -0.3881  0.5998
47540SOL    HW149478   0.296   7.522   8.186  1.0392  2.2009 -0.4797
47540SOL    HW249479   0.282   7.516   8.035  1.5269 -0.4209 -0.4665
47541SOL     OW49480   5.867  11.537  10.845  0.0353  0.2474 -0.5672
47541SOL    HW149481   5.893  11.493  10.765  0.6575  0.9975 -0.7831
47541SOL    HW249482   5.948  11.573  10.881 -0.1558 -0.4449  0.6357
47542SOL     OW49483   0.644   8.126   9.946 -0.6977  0.2216 -0.1084
47542SOL    HW149484   0.701   8.143  10.021 -0.0302  1.1413 -0.7913
47542SOL    HW249485   0.556   8.137   9.980 -0.4047  0.5460  0.5701
47543SOL     OW49486   2.542   6.474   2.523  0.2079  0.2214 -0.0473
47543SOL    HW149487   2.488   6.521   2.460 -0.0362 -0.0068 -0.0096
47543SOL    HW249488   2.533   6.382   2.498  1.2957  0.2546 -0.6025
47544SOL     OW49489  11.458  12.395   3.823 -0.2413 -0.2671 -0.9347
47544SOL    HW149490  11.518  12.448   3.771  1.3966 -0.6094  0.5379
47544SOL    HW249491  11.491  12.306   3.815 -0.4192 -0.4312  0.0764
47545SOL     OW49492   8.230   1.784   0.536  0.1783  0.7224 -0.0075
47545SOL    HW149493   8.233   1.790   0.440  0.1052 -0.1996 -0.0755
47545SOL    HW249494   8.322   1.782   0.563  0.2021  1.3991 -0.0244
47546SOL     OW49495   9.564   5.800   1.765 -0.0384 -0.0820 -0.4176
47546SOL    HW149496   9.619   5.723   1.774 -0.1203  0.0210  1.5697
47546SOL    HW249497   9.537   5.801   1.673  1.4428 -1.3684 -0.9054
47547SOL     OW49498   3.977   3.343   3.150 -0.2506  0.2192 -0.7351
47547SOL    HW149499   3.937   3.395   3.080  0.6653  0.5886 -1.0082
47547SOL    HW249500   3.939   3.378   3.231 -1.7746 -0.6165 -1.0546
47548SOL     OW49501   9.457   1.186  11.466 -0.1745  0.1265  0.5101
47548SOL    HW149502   9.543   1.211  11.498 -0.3880 -1.3601  2.4589
47548SOL    HW249503   9.395   1.237  11.519 -0.5099 -0.5799  0.8178
47549SOL     OW49504   9.701   4.491   4.383  0.5072  0.2038 -0.0910
47549SOL    HW149505   9.694   4.568   4.440  0.4572 -0.4216  0.7598
47549SOL    HW249506   9.613   4.481   4.346  0.6159  0.7915 -0.5325
47550SOL     OW49507   1.989   3.638   0.233 -0.3576 -0.3348  0.1699
47550SOL    HW149508   2.048   3.703   0.195 -0.2646 -0.5184 -0.0036
47550SOL    HW249509   1.943   3.685   0.302  0.4919 -0.3643  0.7846
47551SOL     OW49510   0.420   7.718   7.570  0.0719  0.8113  0.0163
47551SOL    HW149511   0.515   7.728   7.570  0.2838 -0.7958 -0.7692
47551SOL    HW249512   0.405   7.630   7.534 -1.7681  1.6195 -1.3802
47552SOL     OW49513   3.305  11.444   7.197 -0.1166  0.4142 -0.3865
47552SOL    HW149514   3.240  11.375   7.182  0.7044 -0.1512 -1.5666
47552SOL    HW249515   3.371  11.402   7.252 -0.3152  0.7146  0.0844
47553SOL     OW49516   2.871  11.933   7.760 -0.5259  0.2693 -0.3390
47553SOL    HW149517   2.920  12.011   7.786 -1.5905  1.1364 -0.8412
47553SOL    HW249518   2.890  11.868   7.828 -0.3240  1.2581  0.5593
47554SOL     OW49519   8.165   8.862   4.378  0.1259 -0.2009 -0.0301
47554SOL    HW149520   8.100   8.848   4.310 -0.4262 -0.9242  0.6213
47554SOL    HW249521   8.114   8.887   4.455  0.4475 -2.1105  0.8628
47555SOL     OW49522   5.548   8.577  11.049 -0.4321  0.1856 -0.0622
47555SOL    HW149523   5.621   8.626  11.010 -0.1059 -0.6459 -0.5061
47555SOL    HW249524   5.574   8.563  11.140 -0.6227  1.0148  0.1274
47556SOL     OW49525   5.423   2.772   4.001  0.6613  0.1551 -0.1999
47556SOL    HW149526   5.354   2.838   4.004  1.0987  0.6243 -0.2909
47556SOL    HW249527   5.432   2.743   4.092 -0.4813 -0.7944 -0.3621
47557SOL     OW49528  11.269   3.015   7.773  0.5694 -0.5137  0.2579
47557SOL    HW149529  11.230   2.949   7.830  0.8618  0.9152  2.1992
47557SOL    HW249530  11.359   2.987   7.761  0.5023 -0.8286  0.4891
47558SOL     OW49531   9.405  10.178   6.450  0.0316  0.3529  0.5010
47558SOL    HW149532   9.309  10.179   6.446  0.0460 -0.2110 -0.4261
47558SOL    HW249533   9.431  10.264   6.419 -0.1504 -0.3139 -1.6791
47559SOL     OW49534  11.140   6.671  10.984  1.0306  0.1891 -0.4430
47559SOL    HW149535  11.180   6.696  10.901  1.7541  1.3436  0.2221
47559SOL    HW249536  11.113   6.754  11.024  1.2116 -0.2870  0.7223
47560SOL     OW49537   8.935   2.765   5.876  0.1477  0.3304  0.2216
47560SOL    HW149538   8.981   2.721   5.948 -1.7477 -2.2801 -0.0007
47560SOL    HW249539   8.986   2.743   5.798  0.9097  1.1875  0.4617
47561SOL     OW49540   1.940  10.086   5.235  0.2257  0.2749  0.1769
47561SOL    HW149541   1.983  10.172   5.242 -1.2842  0.9619  2.3671
47561SOL    HW249542   2.004  10.024   5.271  0.1143  1.0277  1.7763
47562SOL     OW49543   7.583   7.531   9.546 -0.0562 -0.0793 -0.0160
47562SOL    HW149544   7.508   7.519   9.488  0.6385 -0.9282 -0.7637
47562SOL    HW249545   7.551   7.503   9.632 -1.2379  1.6552  0.1607
47563SOL     OW49546   2.941   0.875  11.952  1.0260 -0.4226  0.0184
47563SOL    HW149547   2.989   0.958  11.957  0.1719  0.1093 -0.1979
47563SOL    HW249548   2.893   0.880  11.870  0.3117 -0.7568  0.4019
47564SOL     OW49549   7.261   9.333   0.590 -0.3489  0.3745 -0.5105
47564SOL    HW149550   7.204   9.277   0.642  0.2596 -0.3512 -0.6016
47564SOL    HW249551   7.343   9.284   0.583 -0.8103 -0.2199 -3.2518
47565SOL     OW49552  12.267  11.486   9.903 -1.0626  0.7120 -0.1950
47565SOL    HW149553  12.274  11.568   9.952 -1.8289  0.4279  0.4286
47565SOL    HW249554  12.358  11.458   9.890 -0.8075  1.4861 -0.1155
47566SOL     OW49555  10.513   2.449  10.096 -0.3173  0.5634  0.4822
47566SOL    HW149556  10.522   2.375  10.155 -0.2764  1.4872  1.6757
47566SOL    HW249557  10.524   2.412  10.009 -0.7053 -0.8902  1.0276
47567SOL     OW49558   2.012   9.726   5.678 -0.2187 -0.1605 -0.3050
47567SOL    HW149559   1.985   9.810   5.642 -0.2717  0.1463  0.4450
47567SOL    HW249560   1.931   9.684   5.707 -0.2237 -0.5883 -0.9007
47568SOL     OW49561  12.358  10.833  11.045 -0.4581  0.3131 -0.2884
47568SOL    HW149562  12.394  10.744  11.050  0.6936  0.8518  1.9343
47568SOL    HW249563  12.337  10.856  11.136 -2.6272  1.6038 -1.0280
47569SOL     OW49564  10.488   2.250   1.641 -0.0540  0.1841 -0.1470
47569SOL    HW149565  10.397   2.223   1.635 -0.3969  0.9981  1.0307
47569SOL    HW249566  10.489   2.315   1.712  0.6917  3.2759 -2.7448
47570SOL     OW49567   3.303   9.091  12.548 -0.3010 -0.0924 -0.1058
47570SOL    HW149568   3.342   9.027  12.607  1.6906 -1.4635 -2.6940
47570SOL    HW249569   3.251   9.039  12.487 -0.1665  0.9371 -1.1386
47571SOL     OW49570   1.543   7.225   2.458  0.2435  0.3857 -0.2765
47571SOL    HW149571   1.584   7.147   2.419  0.0467  0.7761 -1.2875
47571SOL    HW249572   1.499   7.268   2.385 -1.4258  0.3397  0.6696
47572SOL     OW49573  11.622   9.409   8.925  0.5156 -0.5637 -0.1422
47572SOL    HW149574  11.528   9.410   8.941  0.3408  0.3574 -1.1411
47572SOL    HW249575  11.644   9.501   8.909  1.3791 -0.9244 -1.0756
47573SOL     OW49576   6.070  12.169  12.011  0.2384 -0.4841  0.8212
47573SOL    HW149577   6.145  12.119  11.981 -0.5538 -2.5597  2.0475
47573SOL    HW249578   6.108  12.243  12.059  1.4498  0.7035 -1.7994
47574SOL     OW49579  10.740  12.115  10.759  0.0769  0.0641  0.1831
47574SOL    HW149580  10.747  12.210  10.770 -0.8340  0.0485  1.0073
47574SOL    HW249581  10.658  12.091  10.803  0.0400 -1.0415 -0.4438
47575SOL     OW49582   0.078   5.945   5.988  0.3647  0.0327  0.1557
47575SOL    HW149583   0.055   5.929   6.079 -0.7640  0.6154 -0.0097
47575SOL    HW249584   0.143   5.878   5.968  0.9627  0.1779  1.5052
47576SOL     OW49585   4.439   4.404  11.472  0.5013  0.2196  0.0341
47576SOL    HW149586   4.349   4.436  11.459  0.5565  0.1456 -0.5978
47576SOL    HW249587   4.495   4.475  11.442  0.6965  0.8927  1.9276
47577SOL     OW49588   5.463  12.344   6.159 -0.5960 -0.2071  0.8534
47577SOL    HW149589   5.470  12.260   6.204  1.8826 -1.6598 -1.8902
47577SOL    HW249590   5.553  12.376   6.152 -1.0402  0.7494 -1.4564
47578SOL     OW49591   3.334   4.497   0.022 -0.4825  0.3206  0.2590
47578SOL    HW149592   3.351   4.403   0.030 -0.1060  0.2426 -1.2695
47578SOL    HW249593   3.385   4.536   0.093 -1.5098 -0.6881  1.6160
47579SOL     OW49594   9.482  11.690   3.950  0.4294 -0.6075  0.6820
47579SOL    HW149595   9.430  11.742   4.011 -1.3010 -0.6450 -0.7199
47579SOL    HW249596   9.441  11.603   3.951 -0.3788 -0.2956 -1.3720
47580SOL     OW49597   8.506   5.627   4.882 -0.2051  0.1359 -0.0801
47580SOL    HW149598   8.583   5.663   4.838 -0.2751 -0.5912 -0.8399
47580SOL    HW249599   8.541   5.558   4.939 -0.3293 -0.6612 -0.9350
47581SOL     OW49600  10.885   0.214  11.109 -0.3521 -0.1666 -0.6536
47581SOL    HW149601  10.879   0.308  11.095  0.9213 -0.0925 -0.8487
47581SOL    HW249602  10.851   0.175  11.029  2.3533  0.1988 -2.0702
47582SOL     OW49603  11.866   0.556   2.157 -0.0243 -0.2058  0.4103
47582SOL    HW149604  11.799   0.496   2.123  0.8600 -0.4695 -0.8972
47582SOL    HW249605  11.941   0.545   2.099 -0.1248  2.8236 -0.4426
47583SOL     OW49606   6.436  10.544   7.837 -0.0697 -0.2221 -0.3489
47583SOL    HW149607   6.413  10.595   7.760 -0.1180  0.2640 -0.0137
47583SOL    HW249608   6.381  10.578   7.906 -1.1884 -1.7218 -0.4441
47584SOL     OW49609   9.137  11.223   1.298 -0.1243 -0.3497  0.6704
47584SOL    HW149610   9.118  11.266   1.382  2.7503  0.4535  1.0348
47584SOL    HW249611   9.169  11.136   1.322 -0.5689 -0.6143  0.3113
47585SOL     OW49612   0.736   5.051   8.681  0.0106 -0.3452  0.3464
47585SOL    HW149613   0.685   5.047   8.600  0.0638 -1.8536  0.3614
47585SOL    HW249614   0.823   5.080   8.654  0.3214 -1.8097 -0.3126
47586SOL     OW49615  12.322   6.365   9.633 -0.2118  0.5162  0.3517
47586SOL    HW149616  12.402   6.334   9.589 -2.4718 -1.1315 -3.0454
47586SOL    HW249617  12.299   6.445   9.586 -1.7548 -0.3153 -0.3651
47587SOL     OW49618   3.046  11.060   6.798  0.4018 -0.0332 -0.2071
47587SOL    HW149619   3.110  11.019   6.739  1.8196 -0.3372  1.4686
47587SOL    HW249620   3.023  10.991   6.860 -0.6338  0.4513 -0.0380
47588SOL     OW49621   2.526   0.517   7.284  0.0393  0.0815 -0.5666
47588SOL    HW149622   2.573   0.523   7.367 -0.3192  0.4402 -0.3896
47588SOL    HW249623   2.564   0.586   7.229  0.2529 -0.1336 -0.6933
47589SOL     OW49624   6.536   0.069   7.749 -0.2286  0.1294  0.0259
47589SOL    HW149625   6.584   0.067   7.666 -0.1033 -0.3755  0.1085
47589SOL    HW249626   6.601   0.097   7.813 -0.2751  0.3254 -0.0120
47590SOL     OW49627  10.071   1.996   0.094  0.0381 -0.4232 -0.0163
47590SOL    HW149628   9.985   1.963   0.120  0.6801 -1.9913  0.1886
47590SOL    HW249629  10.052   2.057   0.023 -1.2463 -0.6410  0.1027
47591SOL     OW49630   1.827   1.904   9.102  0.5886  0.1404 -0.2862
47591SOL    HW149631   1.849   1.959   9.177  0.9065 -0.5896  0.1549
47591SOL    HW249632   1.761   1.843   9.134  0.6755 -0.1340 -0.6223
47592SOL     OW49633   0.254   5.798   2.959 -0.1156  0.1890  0.7740
47592SOL    HW149634   0.192   5.871   2.960  1.3393  1.4814  2.1442
47592SOL    HW249635   0.263   5.774   3.051  1.9937  0.6033  0.7240
47593SOL     OW49636   2.153   2.104  10.605 -0.8066  0.6127 -0.1864
47593SOL    HW149637   2.098   2.136  10.676  0.6043  1.3218  0.6495
47593SOL    HW249638   2.243   2.117  10.637 -0.0940 -2.4737 -0.5644
47594SOL     OW49639   1.735   5.725   8.330  0.0793  0.3708 -0.0073
47594SOL    HW149640   1.711   5.766   8.414 -0.9853  0.1872 -0.2096
47594SOL    HW249641   1.652   5.693   8.295  0.4375  0.9033 -1.3897
47595SOL     OW49642  12.179   8.948  10.242 -0.0120 -0.5503 -0.0555
47595SOL    HW149643  12.100   9.001  10.256 -0.6889 -1.6650  0.5124
47595SOL    HW249644  12.219   8.985  10.164 -0.4516  0.8070  0.3420
47596SOL     OW49645   1.421   2.665  12.386  0.2166 -0.3119  0.0995
47596SOL    HW149646   1.465   2.636  12.466  1.4940  0.2685 -0.3559
47596SOL    HW249647   1.422   2.589  12.329 -1.9027 -1.1388  1.0840
47597SOL     OW49648   7.000   0.634   9.731 -0.0051 -0.0267 -0.3871
47597SOL    HW149649   6.953   0.704   9.776 -1.0525 -0.4514 -0.7899
47597SOL    HW249650   6.963   0.554   9.767  1.9092 -0.4239  0.8330
47598SOL     OW49651   3.609   3.196   7.851  0.0264 -0.1154 -0.6551
47598SOL    HW149652   3.597   3.277   7.801  1.8583  0.0890 -0.8154
47598SOL    HW249653   3.676   3.217   7.916  0.9063 -1.6175 -1.0223
47599SOL     OW49654   1.379   0.733   0.236 -0.3000 -0.3901 -0.1904
47599SOL    HW149655   1.419   0.672   0.298 -0.1634 -1.3876 -1.2181
47599SOL    HW249656   1.401   0.697   0.150 -1.5356  0.2637 -0.8049
47600SOL     OW49657   4.817  12.551  10.196 -0.9822  0.1884 -0.1526
47600SOL    HW149658   4.823  12.590  10.283 -0.3948  0.8772 -0.4894
47600SOL    HW249659   4.887  12.485  10.194 -1.0331  0.1319 -0.0874
47601SOL     OW49660  11.257   3.257   5.901 -0.6740 -0.0331  0.2741
47601SOL    HW149661  11.255   3.162   5.891 -1.4108  0.0901 -1.0032
47601SOL    HW249662  11.180   3.278   5.955 -0.3536 -0.1771  0.7916
47602SOL     OW49663   7.039   7.522   3.715  0.6470  0.4170 -0.4679
47602SOL    HW149664   7.104   7.548   3.780  0.1158 -0.0140  0.2523
47602SOL    HW249665   7.071   7.438   3.681 -0.3793 -0.7043  1.1653
47603SOL     OW49666   0.027  10.678   0.038 -0.4377  0.6872  0.0700
47603SOL    HW149667  -0.031  10.679  -0.038 -0.0462  3.9318 -0.3240
47603SOL    HW249668   0.114  10.666   0.001 -0.5179 -1.1571  0.3906
47604SOL     OW49669   7.533   1.479   1.991 -0.2030 -0.1577 -0.3713
47604SOL    HW149670   7.574   1.404   2.034  1.1022  1.5132  1.5044
47604SOL    HW249671   7.588   1.497   1.915 -0.2882 -0.8382 -0.5944
47605SOL     OW49672   4.090  12.476   5.509 -0.3865 -0.0208  0.2856
47605SOL    HW149673   4.108  12.423   5.431 -2.1099  1.3863 -1.1201
47605SOL    HW249674   4.146  12.553   5.500 -1.1149  0.4927  0.0379
47606SOL     OW49675   8.529   1.762   5.655 -0.1408  0.2661 -0.2844
47606SOL    HW149676   8.494   1.845   5.688  0.7536  0.6003 -0.1572
47606SOL    HW249677   8.504   1.697   5.720 -2.5786  0.0386 -1.3182
47607SOL     OW49678   4.380   6.691   6.483  0.4883  0.3608 -0.5863
47607SOL    HW149679   4.439   6.727   6.549  0.6132 -1.9402  0.6658
47607SOL    HW249680   4.438   6.663   6.411  0.4215  2.2049 -1.4013
47608SOL     OW49681   9.366   4.198   9.278  0.4546 -0.2071  0.3723
47608SOL    HW149682   9.315   4.122   9.307 -0.0693 -0.2619 -0.6511
47608SOL    HW249683   9.345   4.266   9.342 -2.3474  0.3242 -0.9513
47609SOL     OW49684  10.275   7.838   8.680 -0.5917 -0.2381  0.1992
47609SOL    HW149685  10.341   7.905   8.663 -1.8763  0.7669 -1.0157
47609SOL    HW249686  10.303   7.798   8.763  1.7289 -0.1205 -0.4535
47610SOL     OW49687   6.333  12.516   7.884 -0.4262  0.4081 -0.4455
47610SOL    HW149688   6.394  12.552   7.820 -0.1432  0.7615  0.0210
47610SOL    HW249689   6.246  12.540   7.850 -0.3285 -0.2557 -1.2012
47611SOL     OW49690   0.545   7.876   5.128 -0.2521 -0.0370 -0.9681
47611SOL    HW149691   0.531   7.808   5.062  0.7586 -1.2316  0.0137
47611SOL    HW249692   0.625   7.921   5.100 -0.8400  0.6812 -1.5377
47612SOL     OW49693   0.329   8.038  12.008 -0.1791 -0.0987  0.8167
47612SOL    HW149694   0.374   8.032  12.092  0.3327  0.5362  0.5958
47612SOL    HW249695   0.237   8.050  12.031 -0.0810 -0.1915  1.2780
47613SOL     OW49696   3.993   6.786   5.748 -0.2471  0.5033 -0.0773
47613SOL    HW149697   4.083   6.758   5.759 -0.4991  0.2272  1.5760
47613SOL    HW249698   3.941   6.707   5.766 -0.8280  0.8030 -0.4110
47614SOL     OW49699   9.789   9.779   9.018  0.1352 -0.0999 -0.0733
47614SOL    HW149700   9.871   9.796   8.972  1.9003  0.3630  2.9809
47614SOL    HW249701   9.758   9.865   9.044 -0.9360 -0.3418 -0.4780
47615SOL     OW49702   7.722   4.952   0.129 -0.2252  0.2852  0.0760
47615SOL    HW149703   7.768   4.905   0.059 -1.7031 -0.5085 -0.4107
47615SOL    HW249704   7.771   4.930   0.208  1.6925  1.4773 -0.7016
47616SOL     OW49705  10.929   7.300   9.134  0.1782 -0.4122 -0.6715
47616SOL    HW149706  10.911   7.210   9.108 -0.8345 -0.5366  0.4180
47616SOL    HW249707  10.941   7.296   9.229  0.0439  0.6084 -0.6034
47617SOL     OW49708   7.543  11.137   0.593 -0.0024  0.0940 -0.0629
47617SOL    HW149709   7.462  11.186   0.583  1.0666  1.5436 -2.4125
47617SOL    HW249710   7.515  11.047   0.609 -2.1395  0.3310 -1.9673
47618SOL     OW49711  10.502   4.231   1.093 -0.8384 -0.8673  0.9859
47618SOL    HW149712  10.407   4.218   1.086 -1.0305  0.2440  1.3246
47618SOL    HW249713  10.532   4.235   1.002 -1.6989  2.4817  0.7182
47619SOL     OW49714   1.232   8.065   4.084  0.0633  0.2289 -0.0123
47619SOL    HW149715   1.318   8.098   4.059 -0.2052 -0.1032 -1.4541
47619SOL    HW249716   1.246   7.971   4.098 -0.2567 -0.0197 -1.2779
47620SOL     OW49717   1.335   1.682  10.551 -0.4078  0.2463 -0.0846
47620SOL    HW149718   1.394   1.707  10.623  1.3544  1.3634 -1.8318
47620SOL    HW249719   1.318   1.589  10.566 -1.5741  0.7963  2.7539
47621SOL     OW49720   6.845  11.204   7.586  0.0263 -0.0232  0.5193
47621SOL    HW149721   6.816  11.152   7.661  1.6880  0.3939  1.5155
47621SOL    HW249722   6.881  11.140   7.525 -2.4200 -0.4942 -0.5377
47622SOL     OW49723   7.298   2.014   0.345  0.2518 -0.5384 -0.0286
47622SOL    HW149724   7.319   1.954   0.273 -0.6654 -1.8210  0.7367
47622SOL    HW249725   7.376   2.012   0.401  0.3074 -0.8524 -0.1130
47623SOL     OW49726   1.650  10.253   1.193 -0.4332  0.0295  0.1843
47623SOL    HW149727   1.704  10.262   1.115  0.0884  1.0078  0.6410
47623SOL    HW249728   1.683  10.174   1.236 -0.8254 -0.5994 -0.6449
47624SOL     OW49729   7.694  11.466   2.831 -0.7695 -0.1859  0.1858
47624SOL    HW149730   7.658  11.435   2.914 -0.3849 -0.4183  0.2658
47624SOL    HW249731   7.649  11.415   2.764 -1.2081  0.1232  0.2378
47625SOL     OW49732   0.626  10.306   4.284 -0.2702 -0.3774 -0.3767
47625SOL    HW149733   0.560  10.243   4.255  0.1985 -1.1189  0.1421
47625SOL    HW249734   0.590  10.343   4.364  0.6677 -2.0319  0.8656
47626SOL     OW49735   7.293   1.983   4.537 -0.1942 -0.6581 -0.4718
47626SOL    HW149736   7.257   1.966   4.624 -1.4330  0.9537 -0.6158
47626SOL    HW249737   7.272   2.075   4.520  0.5325 -0.7777 -2.2431
47627SOL     OW49738   4.895   5.291  12.181 -0.6597 -0.1641 -0.3672
47627SOL    HW149739   4.865   5.236  12.254 -0.6771  1.0724  0.6011
47627SOL    HW249740   4.832   5.275  12.111  0.0743 -2.3597 -0.6156
47628SOL     OW49741  10.438   2.042   9.167 -0.0788  0.1971 -0.3257
47628SOL    HW149742  10.451   1.949   9.145 -0.4226 -0.1674  0.9450
47628SOL    HW249743  10.505   2.061   9.232  1.0191  1.2974 -1.7355
47629SOL     OW49744   5.768   1.415   7.158  0.1113 -0.1552  0.3180
47629SOL    HW149745   5.815   1.495   7.135 -0.9339  0.1471 -0.8372
47629SOL    HW249746   5.712   1.441   7.231  0.4835 -0.0918  0.5856
47630SOL     OW49747   4.446   7.179   2.343 -0.2409  0.1423 -0.2879
47630SOL    HW149748   4.455   7.252   2.403  0.6585 -0.5693  0.4837
47630SOL    HW249749   4.366   7.197   2.294 -0.4454  1.2404  0.4193
47631SOL     OW49750   0.133   1.993   9.363 -0.3113 -0.5185 -0.6752
47631SOL    HW149751   0.113   2.075   9.409  0.3744 -0.1728 -0.9767
47631SOL    HW249752   0.050   1.946   9.361  0.0619 -1.7392  3.2094
47632SOL     OW49753   0.974   2.668   1.360  0.9597  0.1966 -0.5754
47632SOL    HW149754   0.983   2.604   1.289  0.0039  0.1530 -0.6754
47632SOL    HW249755   0.966   2.752   1.314 -1.6687 -0.0251 -0.6696
47633SOL     OW49756   4.219   8.930   8.153 -0.1849 -0.0057 -0.2996
47633SOL    HW149757   4.139   8.978   8.177 -0.0105  0.0972  0.0828
47633SOL    HW249758   4.216   8.851   8.207  0.3547  0.3622  0.2819
47634SOL     OW49759   8.360   0.429   4.467 -0.5824  0.1729  0.5577
47634SOL    HW149760   8.309   0.356   4.431 -0.4867 -0.6150  1.9353
47634SOL    HW249761   8.422   0.451   4.397 -1.8668  0.2361 -0.6113
47635SOL     OW49762   3.653   6.540   3.406  0.1129  0.2860 -0.2117
47635SOL    HW149763   3.680   6.612   3.349  0.4643 -0.7868 -1.4185
47635SOL    HW249764   3.732   6.488   3.418 -0.2615 -0.1869  0.2441
47636SOL     OW49765   8.386   1.221   5.077 -0.5736 -0.1591 -0.1349
47636SOL    HW149766   8.345   1.170   5.007 -0.6240 -0.3523  0.0322
47636SOL    HW249767   8.344   1.307   5.072 -0.1364  0.0219 -0.7310
47637SOL     OW49768   5.921  12.033   4.423 -0.0753 -0.1365 -0.6236
47637SOL    HW149769   5.900  11.959   4.366 -1.7334 -0.0294 -0.1912
47637SOL    HW249770   5.925  11.996   4.511 -0.8624  0.2726 -0.4127
47638SOL     OW49771   2.088   0.980   4.177  0.1650 -0.0232  0.1362
47638SOL    HW149772   2.152   1.051   4.178 -0.5809  0.6782  1.3170
47638SOL    HW249773   2.005   1.024   4.155  0.0187 -0.8714 -1.1259
47639SOL     OW49774   9.730  11.201   9.770  0.5209 -0.2087  0.6840
47639SOL    HW149775   9.731  11.294   9.748  0.4499 -0.5117 -0.6825
47639SOL    HW249776   9.660  11.192   9.834 -0.6173  0.4214 -0.4399
47640SOL     OW49777   6.854   0.781   2.419  0.0219 -0.1827 -0.3460
47640SOL    HW149778   6.903   0.806   2.497  0.5941  0.8300 -0.9968
47640SOL    HW249779   6.895   0.701   2.388 -1.2579 -1.5361  1.2797
47641SOL     OW49780   1.735   9.061  12.371  0.2027 -0.0419  0.0315
47641SOL    HW149781   1.683   9.135  12.402  2.3705  1.7279 -0.3287
47641SOL    HW249782   1.678   9.017  12.307 -1.3183  0.9701  0.6214
47642SOL     OW49783   9.868   2.027   5.926 -0.0890 -0.2144  0.5467
47642SOL    HW149784   9.834   1.948   5.969  0.9994 -0.9487  0.1234
47642SOL    HW249785   9.900   1.995   5.841 -0.1117  0.7863  0.1571
47643SOL     OW49786   8.591   3.003   9.386 -0.0938  0.2646 -0.3735
47643SOL    HW149787   8.561   2.940   9.451  2.4334 -0.5549  0.1009
47643SOL    HW249788   8.521   3.068   9.381 -1.8644 -1.4735  0.6285
47644SOL     OW49789   5.620   6.285   2.605 -0.3687  0.0170  0.4174
47644SOL    HW149790   5.563   6.307   2.678 -0.0914  0.4533  0.5112
47644SOL    HW249791   5.701   6.255   2.646 -0.3212 -0.0252  0.2915
47645SOL     OW49792   7.974   8.111  10.791  0.1861  0.4266 -0.1355
47645SOL    HW149793   7.969   8.036  10.851 -0.3445 -0.1472 -0.8712
47645SOL    HW249794   8.067   8.135  10.790  0.2427  0.2596  0.6830
47646SOL     OW49795   9.234   2.261   1.810 -0.3155 -0.2702 -0.5344
47646SOL    HW149796   9.293   2.323   1.853  0.1265 -1.0120 -0.0565
47646SOL    HW249797   9.255   2.176   1.849  1.1205 -1.2414 -3.2070
47647SOL     OW49798  11.894   1.595   8.442 -0.2084 -0.2314  0.4019
47647SOL    HW149799  11.853   1.558   8.520  1.0274 -3.0286 -0.1616
47647SOL    HW249800  11.933   1.520   8.398  3.3210  1.8869 -0.4187
47648SOL     OW49801   6.721   4.399  11.027 -0.0913  0.2245  0.0085
47648SOL    HW149802   6.635   4.428  10.997  0.5514  0.5068 -1.6704
47648SOL    HW249803   6.725   4.306  11.003 -0.1766  0.0416  0.6919
47649SOL     OW49804   1.749  10.294   9.262 -0.3291 -0.1100 -1.2724
47649SOL    HW149805   1.821  10.291   9.199  1.3761 -2.6309  0.5734
47649SOL    HW249806   1.790  10.274   9.346 -3.1514 -1.7534 -0.1260
47650SOL     OW49807   8.097   7.129   2.874 -0.1253  0.0803 -0.1880
47650SOL    HW149808   8.181   7.088   2.893 -1.2145 -2.0848  0.2002
47650SOL    HW249809   8.046   7.120   2.954 -1.0933  0.4203 -0.7376
47651SOL     OW49810   3.524   5.143   0.081 -0.2494 -0.0095  0.1376
47651SOL    HW149811   3.449   5.169   0.135 -1.1319 -1.6850 -0.2009
47651SOL    HW249812   3.592   5.121   0.144  0.3467  2.4564  0.4370
47652SOL     OW49813   5.909   3.230   2.301  0.3536  0.1665  0.1091
47652SOL    HW149814   5.929   3.164   2.367  0.9268  0.0746 -0.1526
47652SOL    HW249815   5.981   3.293   2.309  0.7336 -0.1435 -0.8151
47653SOL     OW49816   3.828   7.822   5.015  0.3240  0.3905 -0.2498
47653SOL    HW149817   3.816   7.793   4.924  1.6834  0.9338 -0.6217
47653SOL    HW249818   3.912   7.784   5.041 -0.3689 -0.3087  1.0185
47654SOL     OW49819   4.310   3.401  12.018  0.1776 -0.0091 -0.5682
47654SOL    HW149820   4.306   3.429  11.927  0.3661 -0.1538 -0.6224
47654SOL    HW249821   4.305   3.306  12.015 -2.1961  0.0584 -0.2722
47655SOL     OW49822   8.288  10.837   9.356  0.4265 -0.2273  0.1780
47655SOL    HW149823   8.273  10.801   9.443  0.5693  3.0772  1.7270
47655SOL    HW249824   8.307  10.929   9.371  1.8115  0.2132 -3.2951
47656SOL     OW49825   2.289   5.654   2.035  0.1459  0.3662 -0.2308
47656SOL    HW149826   2.358   5.677   1.972  1.5684 -0.0715  1.1101
47656SOL    HW249827   2.316   5.570   2.070 -0.9497  0.3157  0.5362
47657SOL     OW49828   6.852   0.836   8.700 -0.3448 -0.0646  0.0282
47657SOL    HW149829   6.892   0.883   8.626 -1.0842 -1.0734 -1.0581
47657SOL    HW249830   6.759   0.858   8.694 -0.3144  0.3881  1.0974
47658SOL     OW49831   7.591   9.832   3.918 -0.3731  0.2490 -0.3956
47658SOL    HW149832   7.665   9.849   3.861 -0.3209 -0.4570 -0.5386
47658SOL    HW249833   7.521   9.803   3.860 -0.5402  0.2069 -0.1777
47659SOL     OW49834   7.816   8.318   7.755  0.6095  0.1971  0.0540
47659SOL    HW149835   7.892   8.294   7.701 -0.7137 -0.0735 -1.7922
47659SOL    HW249836   7.747   8.336   7.691 -1.0839 -0.2535  1.6931
47660SOL     OW49837   4.642   9.075  11.814 -0.0219  0.3537 -0.0233
47660SOL    HW149838   4.676   8.999  11.767  0.2676 -1.2609  2.5704
47660SOL    HW249839   4.549   9.057  11.825  0.2552 -0.2691  1.5942
47661SOL     OW49840   0.692   6.167   1.577  0.1006  0.1876  0.3376
47661SOL    HW149841   0.704   6.169   1.672  0.1780  1.7245  0.3227
47661SOL    HW249842   0.597   6.172   1.565  0.1196  0.6832  0.3466
47662SOL     OW49843   2.882   2.967  10.452 -0.4260 -0.1556  0.0629
47662SOL    HW149844   2.971   2.975  10.418 -0.4002 -2.2171 -0.4626
47662SOL    HW249845   2.864   3.053  10.491  2.2159 -0.0810  1.3077
47663SOL     OW49846  10.534   6.343  11.040 -0.3465  0.1768 -0.6011
47663SOL    HW149847  10.610   6.400  11.027 -0.1190 -0.4224 -2.2691
47663SOL    HW249848  10.458   6.399  11.025 -0.1963  0.4866 -0.2104
47664SOL     OW49849   1.918   3.952  12.575 -0.6861 -0.1804 -0.4339
47664SOL    HW149850   1.941   3.918  12.489 -2.7517 -0.6392 -0.8456
47664SOL    HW249851   1.843   4.009  12.560  0.3686  1.6321  0.7691
47665SOL     OW49852   3.740  11.236   6.014 -0.2435 -0.0158 -0.2910
47665SOL    HW149853   3.786  11.291   6.077 -1.1597  0.8642 -0.3769
47665SOL    HW249854   3.648  11.260   6.022 -0.3941  0.0807 -1.9104
47666SOL     OW49855   7.380   9.849   6.707 -0.2631  0.2410 -0.5490
47666SOL    HW149856   7.387   9.789   6.781 -2.3276  0.5157 -0.0669
47666SOL    HW249857   7.402   9.796   6.630 -0.9981 -0.8657 -0.0275
47667SOL     OW49858   2.256   9.679   1.313 -0.2115  0.7756 -0.4322
47667SOL    HW149859   2.281   9.665   1.222  0.1386  1.5731 -0.4660
47667SOL    HW249860   2.234   9.772   1.318  0.6462  0.9415  0.5030
47668SOL     OW49861   6.929   6.833   3.432  0.1266  0.3260 -0.2678
47668SOL    HW149862   6.927   6.926   3.408 -0.0497  0.4019  0.0446
47668SOL    HW249863   7.010   6.800   3.392 -0.5335  0.2732 -1.6271
47669SOL     OW49864   4.099   7.676  11.757  0.0660  0.1128 -0.3898
47669SOL    HW149865   4.077   7.761  11.794  0.9065 -0.0665  0.5525
47669SOL    HW249866   4.015   7.636  11.736 -0.3334  1.3687 -1.3239
47670SOL     OW49867   7.898   4.255   4.388  0.1425  0.6261  0.0127
47670SOL    HW149868   7.830   4.300   4.338 -0.9001  0.1103  0.9365
47670SOL    HW249869   7.917   4.313   4.462  0.4754  0.6073 -0.0542
47671SOL     OW49870   8.660   0.472   2.766  0.3333  0.0727  0.5286
47671SOL    HW149871   8.754   0.490   2.773  0.1113  1.6106 -0.0214
47671SOL    HW249872   8.630   0.465   2.856  0.9781 -0.4854  0.7084
47672SOL     OW49873   7.100   5.830  10.411  0.5468  0.1972  0.4349
47672SOL    HW149874   7.043   5.906  10.396 -1.9563 -1.6620 -0.1551
47672SOL    HW249875   7.179   5.867  10.450 -0.6457  3.0663  0.4108
47673SOL     OW49876   0.042   0.831   3.405 -0.2907  0.1710 -0.0601
47673SOL    HW149877  -0.041   0.799   3.440 -0.4393 -0.2395 -0.7606
47673SOL    HW249878   0.023   0.849   3.312  0.4624 -0.1793 -0.2881
47674SOL     OW49879   0.177   1.357   4.061  0.4591 -0.3961  0.5369
47674SOL    HW149880   0.165   1.448   4.090 -0.9063 -0.8627  1.5052
47674SOL    HW249881   0.245   1.363   3.993  1.4362  1.1580  1.5675
47675SOL     OW49882  12.425   5.522   1.952  0.0578 -0.0160  0.2349
47675SOL    HW149883  12.436   5.604   1.903  0.2931 -1.3587 -2.0928
47675SOL    HW249884  12.369   5.545   2.026  0.3970  2.3041 -0.1667
47676SOL     OW49885   1.314   7.587   0.490  0.3982  0.1606  0.4091
47676SOL    HW149886   1.407   7.578   0.510  0.3728  1.5035  1.2458
47676SOL    HW249887   1.307   7.559   0.398  1.4430 -0.8974  0.6283
47677SOL     OW49888   0.662   0.089   0.133 -0.3712 -0.4274 -0.0604
47677SOL    HW149889   0.745   0.107   0.178 -0.0916  1.1749 -1.1267
47677SOL    HW249890   0.684   0.024   0.066 -0.5176 -1.8262  1.2034
47678SOL     OW49891   6.892   5.414   2.865  0.1766 -0.0204  0.3214
47678SOL    HW149892   6.891   5.418   2.770 -4.7224 -0.4187  0.0976
47678SOL    HW249893   6.847   5.332   2.886 -0.8552  1.0932  2.9078
47679SOL     OW49894   1.003  10.670   3.637  0.2159 -0.3227 -0.0454
47679SOL    HW149895   1.031  10.602   3.698  0.4790  0.2885  0.5237
47679SOL    HW249896   1.079  10.727   3.627  0.3806 -0.7513 -1.4299
47680SOL     OW49897   5.832   7.505  10.046  0.1204  0.1852 -0.0897
47680SOL    HW149898   5.835   7.595  10.081  0.6623  0.0212  0.2949
47680SOL    HW249899   5.738   7.488  10.035 -0.0725  0.2779  1.2186
47681SOL     OW49900   0.013   4.411   1.752  0.4216 -0.0803  0.1716
47681SOL    HW149901  -0.055   4.394   1.688  0.1501 -0.1346  0.4701
47681SOL    HW249902  -0.029   4.466   1.818  1.1656  1.3946 -0.5535
47682SOL     OW49903   5.365   9.991   1.831  0.9729 -0.1189  0.5527
47682SOL    HW149904   5.303  10.011   1.902  0.4541  0.9658 -0.1663
47682SOL    HW249905   5.310   9.952   1.763  1.5646 -1.6950  0.9322
47683SOL     OW49906  10.726   5.431  10.664  0.6972 -0.3822  0.3160
47683SOL    HW149907  10.760   5.507  10.711 -1.7256  1.6358 -0.9917
47683SOL    HW249908  10.783   5.423  10.588  1.6423 -0.6280  1.0236
47684SOL     OW49909   6.987   5.895   4.194 -0.2504 -0.4054  0.9528
47684SOL    HW149910   7.073   5.935   4.203 -0.2678 -0.4587  1.3708
47684SOL    HW249911   6.958   5.880   4.283 -0.8727 -0.0138  0.8233
47685SOL     OW49912   6.143   9.054   2.631 -0.3842 -0.0311 -0.2681
47685SOL    HW149913   6.074   9.121   2.639  1.0002  1.5425 -0.9110
47685SOL    HW249914   6.121   9.008   2.550 -0.2583  0.9977 -0.9051
47686SOL     OW49915   9.972   9.556   0.173  0.0632  0.6059 -0.4104
47686SOL    HW149916   9.911   9.500   0.222  0.3697 -0.2955 -1.0217
47686SOL    HW249917   9.919   9.592   0.103 -0.0413  0.7557 -0.2550
47687SOL     OW49918  11.828   2.941   8.014  0.2152  0.8603  0.0625
47687SOL    HW149919  11.894   2.963   8.079  1.0036 -1.1946  0.0312
47687SOL    HW249920  11.878   2.909   7.938 -0.7373 -1.6584  0.3813
47688SOL     OW49921  12.410   7.325  11.552 -0.5945 -0.5628  0.2523
47688SOL    HW149922  12.448   7.295  11.469  0.1538 -0.6706  0.6300
47688SOL    HW249923  12.322   7.355  11.528  0.0783  0.6647 -0.8134
47689SOL     OW49924   8.391   1.436   4.656  0.1364 -0.2338 -0.1368
47689SOL    HW149925   8.474   1.410   4.616  0.6344  0.2645  0.5711
47689SOL    HW249926   8.401   1.529   4.676 -1.2306  0.2907 -1.6304
47690SOL     OW49927   5.769   4.693   7.785 -0.4723 -0.2017  0.2618
47690SOL    HW149928   5.846   4.744   7.762  0.4426 -0.4775  2.4902
47690SOL    HW249929   5.795   4.602   7.768 -0.3753 -0.2759  0.7917
47691SOL     OW49930  10.022   7.122   0.615 -0.0425 -0.0998  0.3121
47691SOL    HW149931  10.096   7.083   0.661 -1.7391 -2.6550  1.1034
47691SOL    HW249932   9.963   7.152   0.685 -0.0552  1.3485 -0.2941
47692SOL     OW49933   8.216   6.109  11.517 -0.4480  0.2841  0.0073
47692SOL    HW149934   8.131   6.152  11.513 -0.2537  0.6875  0.1500
47692SOL    HW249935   8.233   6.099  11.611  0.0582  1.0043 -0.0006
47693SOL     OW49936   7.505  11.821   9.363  0.5022 -0.4447  0.0923
47693SOL    HW149937   7.427  11.783   9.404 -0.6456 -0.9016 -2.3021
47693SOL    HW249938   7.479  11.912   9.343  0.2941 -0.7732 -1.2618
47694SOL     OW49939  12.396  11.931   7.009 -0.3968 -0.1554  0.1579
47694SOL    HW149940  12.489  11.938   7.032 -0.5498  0.7519  0.5385
47694SOL    HW249941  12.380  11.837   7.002  0.4823 -0.3276  0.3797
47695SOL     OW49942   6.589  11.962  10.762  0.2048  0.8398  0.5206
47695SOL    HW149943   6.629  12.022  10.699 -0.1947 -1.4316 -2.0779
47695SOL    HW249944   6.651  11.891  10.771 -0.4629  0.3545  1.4977
47696SOL     OW49945  10.181   4.542   7.972 -0.1907  0.3906 -0.3537
47696SOL    HW149946  10.217   4.612   8.027  0.6902  0.3494 -0.8651
47696SOL    HW249947  10.238   4.467   7.988 -1.7501 -0.5974  1.0293
47697SOL     OW49948   2.229   8.708   9.690 -0.4135  0.2287  0.6405
47697SOL    HW149949   2.222   8.803   9.703 -0.5738  0.1905  0.8386
47697SOL    HW249950   2.159   8.686   9.629 -0.1841  0.2842  0.3565
47698SOL     OW49951  12.304   7.095   1.044  0.0520  0.5548  0.4268
47698SOL    HW149952  12.309   7.142   1.127 -0.7948 -0.0931  0.8557
47698SOL    HW249953  12.214   7.109   1.014 -0.4317 -1.3597  0.9075
47699SOL     OW49954  10.523   4.477   5.156 -0.8596  0.0237  0.0394
47699SOL    HW149955  10.479   4.555   5.123 -1.1455 -0.2792 -0.3110
47699SOL    HW249956  10.464   4.443   5.224 -0.5096  0.3714  0.5233
47700SOL     OW49957   3.484  10.109   2.240  0.2408 -0.2103 -0.0851
47700SOL    HW149958   3.547  10.072   2.302  0.1687  1.2966  0.9304
47700SOL    HW249959   3.405  10.057   2.253  0.5963 -0.6919  0.1971
47701SOL     OW49960   4.261   7.707   8.566 -0.1300  0.4263 -0.0558
47701SOL    HW149961   4.206   7.662   8.631 -0.8277 -0.3253 -1.1344
47701SOL    HW249962   4.350   7.697   8.599 -0.1966 -2.0878 -0.3779
47702SOL     OW49963  12.411  10.199  11.736 -0.4344  1.0701 -0.2009
47702SOL    HW149964  12.325  10.173  11.704 -0.3960 -1.9178  1.6978
47702SOL    HW249965  12.472  10.167  11.669 -0.6308 -0.5471  0.3480
47703SOL     OW49966   7.078   2.067   3.392 -0.0992  0.5591 -0.3712
47703SOL    HW149967   7.076   1.989   3.448 -1.2535  1.0837  0.3494
47703SOL    HW249968   7.130   2.131   3.442 -0.6942  0.8518 -0.1106
47704SOL     OW49969   7.423  11.254   1.333  0.3520  0.1856 -0.1692
47704SOL    HW149970   7.399  11.319   1.399 -0.6805 -0.7073  0.3583
47704SOL    HW249971   7.441  11.175   1.383 -1.7987 -0.9136 -1.0186
47705SOL     OW49972   0.439   0.621  11.898 -0.2611 -0.1729  0.0948
47705SOL    HW149973   0.437   0.534  11.936  0.7851 -1.0695 -1.7548
47705SOL    HW249974   0.444   0.680  11.973  0.9584 -1.7973  1.3671
47706SOL     OW49975   7.387   0.550   7.878 -0.1814 -0.9683  0.9884
47706SOL    HW149976   7.351   0.596   7.953 -0.2361 -0.9644  0.9599
47706SOL    HW249977   7.465   0.505   7.912 -0.6114 -1.5595  1.2207
47707SOL     OW49978   6.611   8.046   0.285 -0.3821 -0.2058  0.2120
47707SOL    HW149979   6.551   8.089   0.224 -0.9089  0.2380  1.0177
47707SOL    HW249980   6.653   8.119   0.331  0.5935 -0.5195 -0.1577
47708SOL     OW49981   9.617   8.804   1.418  0.0112 -0.7662 -0.1769
47708SOL    HW149982   9.679   8.841   1.481 -1.2769  0.7220  0.2814
47708SOL    HW249983   9.583   8.880   1.371 -0.4265 -1.6848 -1.3961
47709SOL     OW49984   7.453   0.684   5.137  0.2222 -0.1748  0.1125
47709SOL    HW149985   7.534   0.709   5.180 -0.0019 -0.4650  0.7115
47709SOL    HW249986   7.400   0.645   5.206 -1.7106  2.8190  0.5312
47710SOL     OW49987   8.017   0.127  10.239  0.0975 -0.1801 -0.0918
47710SOL    HW149988   7.933   0.107  10.280 -0.2991  1.0158 -0.2955
47710SOL    HW249989   8.067   0.045  10.245 -1.3123 -1.1005 -0.5617
47711SOL     OW49990   8.984  11.309   5.178 -0.4700  0.2106  0.7756
47711SOL    HW149991   9.068  11.350   5.158 -0.3395 -0.1841  0.5110
47711SOL    HW249992   9.004  11.217   5.191 -0.8223  0.1593  0.9843
47712SOL     OW49993  11.805   3.344   0.294 -0.0773  0.0355  0.0002
47712SOL    HW149994  11.821   3.296   0.213 -2.6069 -0.3883 -0.3421
47712SOL    HW249995  11.740   3.411   0.270 -0.3082  0.3931  1.5069
47713SOL     OW49996   4.467  11.126   7.065  0.3222 -0.0457 -0.2810
47713SOL    HW149997   4.534  11.062   7.090 -0.7510 -1.1381 -0.1451
47713SOL    HW249998   4.388  11.075   7.051 -0.5251  1.2328 -0.3730
47714SOL     OW49999  11.016   1.683   0.480 -0.5007 -0.0754  0.2810
47714SOL    HW150000  10.987   1.594   0.462 -0.2363 -0.1263  0.1162
47714SOL    HW250001  11.063   1.710   0.401  0.0667 -0.0555  0.6215
47715SOL     OW50002   0.437   2.766   3.912  0.0507 -0.0688 -0.1697
47715SOL    HW150003   0.432   2.749   3.818 -2.1349  1.9447 -0.5204
47715SOL    HW250004   0.364   2.718   3.950  0.0348  0.2983  0.2769
47716SOL     OW50005   7.880   3.665  11.307  0.1652 -0.2847  0.0618
47716SOL    HW150006   7.812   3.732  11.311  0.3904 -0.0293 -0.3933
47716SOL    HW250007   7.842   3.594  11.256  1.2015  1.0146 -2.7507
47717SOL     OW50008   8.900  10.011   9.527 -0.1233  0.6517  0.1781
47717SOL    HW150009   8.959  10.066   9.476  1.2978 -0.0092  1.0279
47717SOL    HW250010   8.914   9.923   9.492 -1.6370  0.6422 -0.5059
47718SOL     OW50011   8.057   3.763   8.935  0.2020  0.3670  0.5188
47718SOL    HW150012   8.014   3.842   8.903  1.2929  0.9361  0.3928
47718SOL    HW250013   7.990   3.695   8.930 -1.0111  1.4416  1.3776
47719SOL     OW50014   3.891   9.594   7.631  0.1946 -0.5862  0.4855
47719SOL    HW150015   3.810   9.555   7.599  0.8886 -1.3183 -0.4653
47719SOL    HW250016   3.952   9.586   7.557  1.5943 -1.5057  1.6681
47720SOL     OW50017   0.348   4.045   3.854  0.8645 -0.7634  0.4590
47720SOL    HW150018   0.288   4.048   3.928  1.6746 -0.7997  1.1330
47720SOL    HW250019   0.374   4.137   3.841 -0.0387 -0.6149 -0.4366
47721SOL     OW50020  10.834   8.787   8.904 -0.0452 -0.1172  0.0788
47721SOL    HW150021  10.847   8.880   8.924 -0.1913 -0.7271  3.9116
47721SOL    HW250022  10.892   8.769   8.831  1.9843  2.4656  0.9062
47722SOL     OW50023   0.680   3.283   8.186 -0.3108  0.0048 -0.1280
47722SOL    HW150024   0.749   3.295   8.121  0.9139 -1.3172  0.8827
47722SOL    HW250025   0.604   3.255   8.135  0.2648  0.1599 -1.1052
47723SOL     OW50026   5.747  12.413   6.242 -0.0196 -0.4930 -0.0227
47723SOL    HW150027   5.784  12.460   6.317  1.8135 -1.4850 -0.2252
47723SOL    HW250028   5.786  12.455   6.165 -2.3592  0.9128 -0.5255
47724SOL     OW50029   4.356   6.256   8.833 -0.1113 -0.1620 -0.8531
47724SOL    HW150030   4.388   6.171   8.866  1.0747 -0.2723 -2.2234
47724SOL    HW250031   4.262   6.253   8.849  0.3076 -0.2682  2.3299
47725SOL     OW50032   0.964   9.712  11.279 -0.8216 -0.1711 -0.4904
47725SOL    HW150033   0.938   9.633  11.231  1.6336 -0.4368 -1.5179
47725SOL    HW250034   0.978   9.682  11.369 -0.8552 -0.6892 -0.6568
47726SOL     OW50035   8.223   4.227   8.488  0.0710 -0.1637  0.0365
47726SOL    HW150036   8.286   4.277   8.539  0.1761 -0.5487  0.2849
47726SOL    HW250037   8.189   4.161   8.548 -0.8136  0.2414  0.0022
47727SOL     OW50038   0.654   5.656  10.792 -0.9501  0.3756  0.3096
47727SOL    HW150039   0.629   5.726  10.731 -0.2373  0.5093  0.1634
47727SOL    HW250040   0.586   5.657  10.859 -1.2062  0.8881  0.0475
47728SOL     OW50041   7.932   3.433   5.879  0.4481 -0.1243 -0.4471
47728SOL    HW150042   7.902   3.478   5.958  1.8631 -2.0626  1.3178
47728SOL    HW250043   8.026   3.447   5.877  0.5713 -0.9733 -1.2019
47729SOL     OW50044   6.918   8.001   8.834  0.2464 -0.3964 -0.4296
47729SOL    HW150045   7.006   7.968   8.816  0.4451  1.1524 -2.6085
47729SOL    HW250046   6.931   8.067   8.902  0.3728 -1.8811  1.0518
47730SOL     OW50047   8.563   1.402   3.041 -0.1653  0.3368  0.0205
47730SOL    HW150048   8.603   1.489   3.040 -0.9963  0.7848  1.6820
47730SOL    HW250049   8.499   1.403   2.970 -0.0359  1.0125 -0.0893
47731SOL     OW50050   4.817   8.330   4.739 -1.1724  0.3181  0.6227
47731SOL    HW150051   4.775   8.276   4.806  0.6723 -1.1283  0.6753
47731SOL    HW250052   4.753   8.333   4.667 -1.8196 -0.8917  1.1146
47732SOL     OW50053   9.466   8.353   3.818  0.5756  0.0629  0.6614
47732SOL    HW150054   9.528   8.281   3.828 -0.0513 -0.6961 -0.6804
47732SOL    HW250055   9.480   8.385   3.729 -1.8257 -1.0324 -0.2098
47733SOL     OW50056   1.311   8.246  12.205 -0.4193 -0.8373  0.4349
47733SOL    HW150057   1.394   8.289  12.228  0.3186 -0.7197 -2.1126
47733SOL    HW250058   1.271   8.305  12.141 -2.0328 -1.3640  0.9192
47734SOL     OW50059   3.551   9.052   7.897  0.2378 -0.3339  0.4379
47734SOL    HW150060   3.613   9.090   7.836  0.7549 -1.5526  0.1648
47734SOL    HW250061   3.604   9.028   7.973 -0.6132  2.4862  2.0806
47735SOL     OW50062   0.666  12.367   9.193 -0.4626  0.6810  0.7958
47735SOL    HW150063   0.628  12.445   9.234  0.7216  1.3152  0.7369
47735SOL    HW250064   0.758  12.390   9.178 -0.8922  0.7151 -2.6765
47736SOL     OW50065   7.307   1.497   5.237  0.0257  0.2529  0.0379
47736SOL    HW150066   7.350   1.547   5.307 -0.1302  2.3235 -1.2396
47736SOL    HW250067   7.325   1.547   5.157 -2.1993 -0.4380 -0.9905
47737SOL     OW50068   3.492   9.812   3.598  0.1364 -0.8650  0.2354
47737SOL    HW150069   3.439   9.884   3.563 -1.8101 -2.6961 -0.9011
47737SOL    HW250070   3.450   9.789   3.681 -0.2289 -1.6162 -0.1378
47738SOL     OW50071   8.704   8.898   4.756  0.5503 -0.3150 -0.1704
47738SOL    HW150072   8.669   8.824   4.706 -0.0014 -2.2374  2.8382
47738SOL    HW250073   8.731   8.960   4.689 -0.5887 -2.4581 -2.8362
47739SOL     OW50074   2.966   1.959   1.626 -0.4737  0.3929  0.0254
47739SOL    HW150075   2.982   1.967   1.532  0.2865 -0.6408  0.0514
47739SOL    HW250076   2.871   1.971   1.635 -0.6464 -0.1130 -0.9450
47740SOL     OW50077  12.084  11.332   1.321  0.3321  0.3382  0.0309
47740SOL    HW150078  12.177  11.340   1.301  0.3889  1.1935  0.6044
47740SOL    HW250079  12.079  11.259   1.383  0.2863 -1.5380 -2.0267
47741SOL     OW50080   1.135   3.739   8.916  0.0742  0.0182 -0.1844
47741SOL    HW150081   1.094   3.809   8.966  1.3493  0.5785  0.1256
47741SOL    HW250082   1.177   3.783   8.842  1.4487 -0.3131  0.3685
47742SOL     OW50083   8.158   4.021   7.779  0.2560  0.1814  0.1153
47742SOL    HW150084   8.206   3.938   7.785 -1.3899 -0.7075  2.2935
47742SOL    HW250085   8.203   4.070   7.710  1.0796 -2.6378 -1.5236
47743SOL     OW50086   8.788   4.569   6.414  0.4706  0.2223 -0.4570
47743SOL    HW150087   8.747   4.513   6.348  1.6553  0.5402 -1.5078
47743SOL    HW250088   8.736   4.556   6.493 -1.6894  0.6601 -1.7371
47744SOL     OW50089   1.202   8.933   3.561 -0.6142 -0.0316 -0.7571
47744SOL    HW150090   1.138   8.999   3.586  0.1066  0.4145 -0.0382
47744SOL    HW250091   1.267   8.981   3.509  1.9706  0.7771  2.8720
47745SOL     OW50092   5.889   6.068   3.114  0.3942 -0.2601  0.0007
47745SOL    HW150093   5.979   6.077   3.084  0.8266 -1.4533  0.8645
47745SOL    HW250094   5.878   6.138   3.179  0.6591 -0.0601 -0.1680
47746SOL     OW50095  10.008   3.167   3.326 -0.5175 -0.1889  0.1269
47746SOL    HW150096  10.079   3.103   3.332  0.9116  1.3596  0.5098
47746SOL    HW250097   9.984   3.168   3.233  0.3406 -0.3601 -0.1036
47747SOL     OW50098  12.163  10.370   0.283  0.2472  0.2696  0.1280
47747SOL    HW150099  12.113  10.353   0.203 -0.9965 -0.4683  1.0379
47747SOL    HW250100  12.248  10.401   0.251 -0.6976  1.3931 -1.4673
47748SOL     OW50101   1.844   6.941   1.596 -0.3250  0.0675  0.3532
47748SOL    HW150102   1.772   6.902   1.646 -0.6071  1.2351  0.9085
47748SOL    HW250103   1.904   6.975   1.662 -0.1223  0.6251 -0.1061
47749SOL     OW50104   0.647  11.725  10.838  0.1078 -0.0004 -0.2658
47749SOL    HW150105   0.586  11.706  10.910  0.9204 -1.6669  0.0479
47749SOL    HW250106   0.602  11.789  10.784 -0.9116  0.6170  1.2455
47750SOL     OW50107   5.639   9.710   4.653 -0.2078  0.4469 -0.1996
47750SOL    HW150108   5.581   9.646   4.610 -0.8455  0.6957  0.2706
47750SOL    HW250109   5.725   9.669   4.651 -0.1299  0.6054 -2.0331
47751SOL     OW50110   4.753  10.712   9.995  0.3725  0.4640 -0.4075
47751SOL    HW150111   4.734  10.635   9.942  0.8465  0.0997 -0.0591
47751SOL    HW250112   4.668  10.743  10.024  0.2020 -0.1751 -0.2070
47752SOL     OW50113   9.367  12.074   8.663  0.0540 -0.6014 -0.0854
47752SOL    HW150114   9.341  12.084   8.572  1.4081 -1.3285 -0.5826
47752SOL    HW250115   9.459  12.099   8.664 -0.2763  0.6707  1.3534
47753SOL     OW50116   6.770   4.890   6.867  0.1518 -0.0324  0.8785
47753SOL    HW150117   6.677   4.871   6.858  0.2586 -0.4738  0.7010
47753SOL    HW250118   6.813   4.827   6.810  0.5225  0.6355  0.4061
47754SOL     OW50119  10.058   8.321   8.850  0.4480 -0.4246 -0.1393
47754SOL    HW150120  10.121   8.281   8.790  0.9148  0.0906  0.0000
47754SOL    HW250121  10.109   8.386   8.898  0.0880 -0.8609  0.8518
47755SOL     OW50122   0.993   0.741   3.923  0.1630 -0.7938  0.2761
47755SOL    HW150123   1.023   0.670   3.866 -0.2488 -0.7893  0.0446
47755SOL    HW250124   1.073   0.784   3.953  0.3766 -0.1819 -1.0919
47756SOL     OW50125   7.584  12.176   5.576 -0.2791 -0.0316  0.0304
47756SOL    HW150126   7.501  12.214   5.549 -1.9187 -2.6185  1.0885
47756SOL    HW250127   7.592  12.095   5.526  0.7449 -0.6988  1.2055
47757SOL     OW50128   9.564   3.914   8.480 -0.1712  0.1958  0.0778
47757SOL    HW150129   9.556   3.826   8.443  0.4916  0.2851 -0.2936
47757SOL    HW250130   9.493   3.964   8.439  0.1138  0.1074 -0.5256
47758SOL     OW50131   4.728   8.324   5.961  0.1403  0.8462 -0.1079
47758SOL    HW150132   4.704   8.407   6.001 -0.8488  0.8115 -0.6127
47758SOL    HW250133   4.788   8.348   5.890 -1.6220  1.3503 -1.5047
47759SOL     OW50134   5.543   4.059   1.051  0.2791  0.1530  0.9836
47759SOL    HW150135   5.487   3.990   1.016  1.9973 -0.8332  0.0261
47759SOL    HW250136   5.546   4.125   0.982  1.1435 -0.3191  0.5496
47760SOL     OW50137   1.288  10.793  10.633 -0.4904  0.0784  0.4495
47760SOL    HW150138   1.274  10.804  10.539  4.7579  0.1967 -0.5818
47760SOL    HW250139   1.281  10.881  10.669  0.9670  0.6397 -0.5491
47761SOL     OW50140   6.943   2.612   9.632  0.6036 -0.3570 -0.1654
47761SOL    HW150141   6.989   2.631   9.551 -0.3757 -0.1981 -0.6910
47761SOL    HW250142   6.881   2.684   9.643  0.1881 -0.7753  0.3086
47762SOL     OW50143   5.632   6.945   7.863  0.6615 -0.0569 -0.5799
47762SOL    HW150144   5.617   7.005   7.790 -0.4822 -0.4746 -0.7148
47762SOL    HW250145   5.681   6.872   7.826  0.8747  0.1577 -0.7200
47763SOL     OW50146  10.487  11.935  10.383 -0.3439 -0.3083  0.0228
47763SOL    HW150147  10.554  11.953  10.450 -1.6075 -0.8157  1.4729
47763SOL    HW250148  10.526  11.867  10.328  0.8069  0.2760  0.0845
47764SOL     OW50149   1.412  11.875   6.240 -0.1719 -0.5213 -0.5231
47764SOL    HW150150   1.400  11.927   6.160 -1.1712 -0.3050 -0.2434
47764SOL    HW250151   1.325  11.841   6.260 -0.1602  0.2724  1.0319
47765SOL     OW50152   5.385   5.963   4.318 -0.3450  0.1122  0.5028
47765SOL    HW150153   5.477   5.940   4.330 -0.3086  1.2899  2.9786
47765SOL    HW250154   5.336   5.895   4.365 -0.6536  0.3768  0.5695
47766SOL     OW50155   9.817  10.678   7.483 -0.9128 -0.0259 -0.2954
47766SOL    HW150156   9.761  10.675   7.406  0.9411  0.0020 -1.7247
47766SOL    HW250157   9.906  10.664   7.449  0.1641  1.5316  1.6274
47767SOL     OW50158  11.981   4.170   2.605  0.5501  0.0120  0.2206
47767SOL    HW150159  11.965   4.131   2.519  2.4618  0.0095 -0.1978
47767SOL    HW250160  12.064   4.131   2.634 -0.0771 -0.0166  2.1019
47768SOL     OW50161   0.907   7.891   0.926  0.9877  0.4551 -0.1048
47768SOL    HW150162   0.923   7.811   0.876 -2.0010 -0.0107 -0.4518
47768SOL    HW250163   0.890   7.958   0.860 -0.9288  0.3111  0.2009
47769SOL     OW50164  10.056   3.650   4.710 -0.0692 -0.2288 -0.0316
47769SOL    HW150165  10.087   3.632   4.798  0.7106 -0.0372 -0.2595
47769SOL    HW250166   9.990   3.582   4.693  0.4898 -0.8713  0.3288
47770SOL     OW50167   1.551   0.584   5.395  0.1393  0.1136 -0.2954
47770SOL    HW150168   1.600   0.505   5.372  1.3530  1.0800 -1.1259
47770SOL    HW250169   1.469   0.551   5.432  1.0112 -1.5404  0.2637
47771SOL     OW50170  11.634   7.544   9.006 -0.3646  0.2583 -0.0345
47771SOL    HW150171  11.623   7.454   8.975  0.2491 -0.7743  2.4716
47771SOL    HW250172  11.614   7.599   8.930 -1.7564 -1.9546 -1.3652
47772SOL     OW50173   0.348   7.880   9.827 -0.6938  0.4467  0.2952
47772SOL    HW150174   0.330   7.794   9.865 -1.7442  0.8290  0.6903
47772SOL    HW250175   0.296   7.941   9.879 -0.0206  1.3205 -0.0329
47773SOL     OW50176   0.467   4.455   4.798 -0.5750 -0.2563  0.0544
47773SOL    HW150177   0.441   4.507   4.722 -0.3202 -0.2813 -0.0500
47773SOL    HW250178   0.518   4.383   4.761 -0.6425 -0.3950  0.2299
47774SOL     OW50179   0.496   5.863   5.995  0.4571  0.0584  0.5220
47774SOL    HW150180   0.572   5.816   5.961 -0.7167 -0.2165 -1.9966
47774SOL    HW250181   0.495   5.945   5.946  0.8452  1.5237  2.8055
47775SOL     OW50182  11.175   4.419   4.377  0.0031  0.0413  0.2505
47775SOL    HW150183  11.156   4.408   4.284 -2.8016 -1.3388  0.8847
47775SOL    HW250184  11.090   4.438   4.417  1.0551  0.1623  2.6038
47776SOL     OW50185   3.119   0.136   2.154  0.0172 -0.5629 -0.9046
47776SOL    HW150186   3.059   0.208   2.132  1.2624  0.1326 -2.2124
47776SOL    HW250187   3.095   0.066   2.093 -0.5929 -0.9294 -0.2511
47777SOL     OW50188  10.244   9.533   9.473  0.6852  0.5571  0.0786
47777SOL    HW150189  10.185   9.510   9.544  1.5433 -0.6364  0.4288
47777SOL    HW250190  10.202   9.608   9.430  0.9817  2.4774  2.8790
47778SOL     OW50191   2.063   1.673   9.834 -0.1928  0.7428 -0.0155
47778SOL    HW150192   2.063   1.674   9.929 -0.8379  2.0416 -0.0157
47778SOL    HW250193   2.154   1.656   9.810  0.0408  0.7901  0.8251
47779SOL     OW50194   0.962  11.950   3.462  0.0352  0.6142  0.1624
47779SOL    HW150195   0.947  11.937   3.555 -0.5965  1.9076  0.2519
47779SOL    HW250196   0.901  11.889   3.419  0.6422 -0.3080  0.5694
47780SOL     OW50197   2.065   1.567   9.302  0.3656 -0.1269 -0.6429
47780SOL    HW150198   1.979   1.544   9.338  0.0815  1.0692 -0.5166
47780SOL    HW250199   2.045   1.615   9.221  0.9012  0.2468 -0.5621
47781SOL     OW50200   7.463  11.812   5.288  0.5655 -0.1219 -0.3530
47781SOL    HW150201   7.384  11.829   5.340  0.9119  0.6115 -0.0509
47781SOL    HW250202   7.462  11.880   5.221  2.0629  1.3168  0.9803
47782SOL     OW50203  11.703   0.935  10.058 -0.1840  1.1027  0.3382
47782SOL    HW150204  11.784   0.940  10.008  0.3567  2.2992  1.2705
47782SOL    HW250205  11.633   0.942   9.993  0.4797  0.9647 -0.3931
47783SOL     OW50206   7.019   2.775   9.415 -0.4835 -0.7569  0.0926
47783SOL    HW150207   6.982   2.855   9.378 -2.2504 -1.4092  0.3535
47783SOL    HW250208   7.105   2.767   9.373 -1.1791  0.1003 -1.6079
47784SOL     OW50209   1.972   1.607   1.863 -0.2573 -0.7650 -0.0064
47784SOL    HW150210   1.917   1.671   1.907  0.1875 -0.7537  0.5364
47784SOL    HW250211   2.040   1.585   1.926  0.3568 -0.7909 -0.6582
47785SOL     OW50212  10.722   2.046   1.680  0.3303  0.2141  0.0740
47785SOL    HW150213  10.717   1.950   1.676  1.1457  0.1387  0.5736
47785SOL    HW250214  10.643   2.076   1.635  0.4961 -0.6806 -0.8605
47786SOL     OW50215   2.164   2.733   7.521 -0.2403  0.5680  0.1753
47786SOL    HW150216   2.223   2.714   7.448 -0.3486  2.4543 -0.4531
47786SOL    HW250217   2.078   2.703   7.490 -0.3519  1.6759 -0.6475
47787SOL     OW50218   0.843   3.679   4.203  0.0296  0.1595 -0.4269
47787SOL    HW150219   0.830   3.709   4.293 -3.0761  0.9994 -1.0250
47787SOL    HW250220   0.936   3.691   4.187  1.4174 -3.1050  3.6272
47788SOL     OW50221  11.324   2.245   2.405 -0.3688 -0.2920  0.2158
47788SOL    HW150222  11.308   2.152   2.422 -0.0376 -1.0124 -2.8570
47788SOL    HW250223  11.417   2.257   2.420 -0.5185 -0.2658  1.2132
47789SOL     OW50224   4.197   3.464   5.305  0.3549  0.6596  0.4375
47789SOL    HW150225   4.288   3.472   5.279  0.4086 -0.5207  0.2105
47789SOL    HW250226   4.193   3.384   5.356 -0.1899  1.7331  2.1647
47790SOL     OW50227  11.468   2.962  10.073 -0.1102  0.4810 -0.8024
47790SOL    HW150228  11.533   2.892  10.076 -0.6465 -0.0219 -0.5881
47790SOL    HW250229  11.516   3.039  10.042  0.8213  0.3942  0.3796
47791SOL     OW50230   7.346   7.201  10.665  0.4312  0.0443 -0.1064
47791SOL    HW150231   7.439   7.182  10.675  0.9272  2.3157  0.1427
47791SOL    HW250232   7.344   7.287  10.624 -1.5136  0.9487  1.6866
47792SOL     OW50233   4.822   9.640   3.114  0.2890 -0.3413 -0.7001
47792SOL    HW150234   4.908   9.616   3.146  0.2549  2.2628  1.7593
47792SOL    HW250235   4.837   9.671   3.024  1.8870 -0.0453 -0.3547
47793SOL     OW50236   9.135   8.821   8.284  0.6314  0.3480  0.2269
47793SOL    HW150237   9.104   8.802   8.195 -1.6366  0.8342  0.8563
47793SOL    HW250238   9.157   8.914   8.282  1.6764  0.1125 -0.0857
47794SOL     OW50239   4.068   1.335   2.548 -0.2275  0.5075 -0.2529
47794SOL    HW150240   4.135   1.379   2.600 -0.2259  0.3440 -0.1170
47794SOL    HW250241   4.112   1.313   2.466  1.4687 -4.0300  1.5639
47795SOL     OW50242  12.137   9.041   8.797  0.1212  0.4040  0.0556
47795SOL    HW150243  12.156   8.948   8.807  1.7476  0.6119 -0.6373
47795SOL    HW250244  12.161   9.079   8.881 -0.5448  0.2034  0.3398
47796SOL     OW50245  11.338   0.489   0.018  0.0933  0.4111  0.2273
47796SOL    HW150246  11.274   0.440   0.071  1.6678 -0.0440  1.8013
47796SOL    HW250247  11.405   0.424  -0.004  1.2875  1.4270  0.7744
47797SOL     OW50248   2.660   6.260   0.613  0.6957 -0.3213  0.0227
47797SOL    HW150249   2.705   6.340   0.588  1.1940 -0.5249  0.2496
47797SOL    HW250250   2.660   6.261   0.709  1.7316 -1.1352  0.0567
47798SOL     OW50251   5.429   9.448  10.218  0.0309  0.2745 -0.1170
47798SOL    HW150252   5.408   9.417  10.306  0.9194  2.1655  0.8170
47798SOL    HW250253   5.375   9.526  10.206 -1.1050 -0.7125 -1.8308
47799SOL     OW50254   0.470   9.496   4.123  0.3365 -0.0029  1.0394
47799SOL    HW150255   0.469   9.520   4.030  0.8336 -0.0581  1.0144
47799SOL    HW250256   0.450   9.578   4.169 -1.1272 -0.2271  0.8524
47800SOL     OW50257   8.853   1.840   5.312  0.1359  0.6185  0.1416
47800SOL    HW150258   8.807   1.766   5.351 -1.4688  1.3728 -0.2510
47800SOL    HW250259   8.806   1.858   5.231  0.4833  2.0686  0.2384
47801SOL     OW50260   0.799   5.138  11.475 -0.1219  0.0019 -0.0593
47801SOL    HW150261   0.704   5.134  11.485 -0.4882  2.0587 -1.9930
47801SOL    HW250262   0.817   5.229  11.453  2.4843 -0.0338  1.6013
47802SOL     OW50263   3.134   4.604  12.461 -0.3827  0.1438  0.1924
47802SOL    HW150264   3.048   4.568  12.480 -0.6410  0.7106  0.1192
47802SOL    HW250265   3.194   4.552  12.515 -0.5964 -1.1603 -0.7625
47803SOL     OW50266   8.272   6.898  10.439 -0.2239  0.0287 -0.1243
47803SOL    HW150267   8.255   6.913  10.346 -0.0759  0.0328 -0.1520
47803SOL    HW250268   8.352   6.948  10.457 -1.7538  2.3299  0.6848
47804SOL     OW50269   1.021   8.774   3.054  0.0331  0.4682 -0.2527
47804SOL    HW150270   1.115   8.761   3.042  0.2089  2.6706 -1.8670
47804SOL    HW250271   1.015   8.827   3.134  0.2254  0.9286 -0.5411
47805SOL     OW50272   8.196   5.466   4.223 -0.2411  0.2949 -0.3959
47805SOL    HW150273   8.238   5.516   4.294 -0.7791 -1.7180  1.4288
47805SOL    HW250274   8.131   5.526   4.187  1.3554  2.0492 -0.5531
47806SOL     OW50275   0.870   7.151   7.619 -0.2605  0.5204  0.0053
47806SOL    HW150276   0.787   7.192   7.645  0.5141  2.0640  0.1773
47806SOL    HW250277   0.895   7.198   7.539  0.9853  0.8444  0.5649
47807SOL     OW50278   0.205   3.938   9.781  0.3200  0.0102 -0.1205
47807SOL    HW150279   0.268   3.877   9.818  0.8140  0.2446 -0.5568
47807SOL    HW250280   0.243   4.025   9.795 -0.6956  0.2843  1.1014
47808SOL     OW50281   3.536   8.550   5.917  0.3553 -0.6170 -0.1042
47808SOL    HW150282   3.544   8.640   5.888 -1.5008 -0.3995 -0.0976
47808SOL    HW250283   3.562   8.497   5.842 -0.4048 -0.0516 -0.7840
47809SOL     OW50284   4.338   9.423   0.221 -0.7908  0.4998  0.0947
47809SOL    HW150285   4.246   9.407   0.242 -0.9922  0.8797 -0.4746
47809SOL    HW250286   4.365   9.492   0.282 -1.2971  1.4082 -0.6812
47810SOL     OW50287   9.011   4.350   2.447  0.0955  0.0494  0.1063
47810SOL    HW150288   9.096   4.379   2.412 -0.3736 -0.4582 -1.5718
47810SOL    HW250289   8.952   4.422   2.429 -0.1666 -0.2401 -0.2030
47811SOL     OW50290   6.966   7.769   5.656  0.9506 -0.3495 -0.0433
47811SOL    HW150291   6.873   7.746   5.653  0.7489  0.4743 -0.3184
47811SOL    HW250292   7.009   7.701   5.604  0.4954 -0.6594 -0.0274
47812SOL     OW50293   5.032  11.434   1.958 -0.4800  0.0472 -0.3641
47812SOL    HW150294   5.035  11.528   1.940 -1.0385  0.1905  0.2459
47812SOL    HW250295   5.062  11.426   2.049 -1.1212 -0.2871 -0.1790
47813SOL     OW50296   5.926  10.994   6.426  0.2141 -0.3062  0.1179
47813SOL    HW150297   5.980  10.998   6.347 -1.8086 -1.2238 -1.4035
47813SOL    HW250298   5.918  10.901   6.445  0.1268 -0.1183  1.0075
47814SOL     OW50299  10.278  11.764   9.458 -0.4313  0.4780  0.0304
47814SOL    HW150300  10.341  11.833   9.480  1.5775 -0.7848 -1.4865
47814SOL    HW250301  10.325  11.682   9.473 -0.8381 -0.5222 -3.3063
47815SOL     OW50302   5.219   3.050   2.385  0.0562 -0.0314 -0.6140
47815SOL    HW150303   5.196   2.957   2.389 -0.9591  0.1004 -2.3128
47815SOL    HW250304   5.288   3.055   2.319  0.7805  0.3156  0.1614
47816SOL     OW50305   6.239   8.060   0.186  0.0297 -0.0272  0.1609
47816SOL    HW150306   6.231   7.990   0.121  1.4639 -0.0753  0.0012
47816SOL    HW250307   6.310   8.115   0.153 -0.8564  1.3369  0.4566
47817SOL     OW50308   7.852  11.544   4.758  0.0095  0.8130  0.4526
47817SOL    HW150309   7.909  11.500   4.821  0.6562  1.4380  0.3286
47817SOL    HW250310   7.897  11.533   4.674 -0.4057  0.7330  0.2370
47818SOL     OW50311   0.132   4.960   9.467 -0.2079  0.2607  0.0434
47818SOL    HW150312   0.104   4.943   9.377 -1.2499  0.7681  0.2618
47818SOL    HW250313   0.052   4.956   9.519  0.4016 -0.2067  0.9914
47819SOL     OW50314  10.051   6.653   2.161 -0.5266 -0.2896 -0.1855
47819SOL    HW150315   9.968   6.693   2.187 -0.6160 -0.8788  0.4558
47819SOL    HW250316  10.045   6.646   2.065 -1.3708 -0.6388 -0.1176
47820SOL     OW50317   0.691   6.898   1.019  0.2596  0.0928 -0.0537
47820SOL    HW150318   0.742   6.898   1.100 -0.3603 -1.8586  0.3930
47820SOL    HW250319   0.613   6.848   1.040 -0.7793  1.0966 -1.3737
47821SOL     OW50320  10.366   2.437   9.553 -0.3899  0.6234 -0.3537
47821SOL    HW150321  10.317   2.367   9.596  0.3670  1.0619  1.2843
47821SOL    HW250322  10.343   2.517   9.601  0.0021  1.2435 -1.1578
47822SOL     OW50323   7.836   9.104   1.545 -0.4485 -0.6921  0.3296
47822SOL    HW150324   7.786   9.149   1.613  0.6460  0.5161  0.3611
47822SOL    HW250325   7.787   9.121   1.465  0.4007  1.3717  0.1911
47823SOL     OW50326   5.436   3.051   0.722  0.3726  0.3051  0.2459
47823SOL    HW150327   5.480   3.127   0.759 -0.8939  1.2815 -0.1816
47823SOL    HW250328   5.410   2.999   0.798 -1.0870  1.6526  0.7217
47824SOL     OW50329   9.104  12.086   5.354 -0.4572  0.1396  0.0915
47824SOL    HW150330   9.038  12.150   5.324 -1.2622 -0.5375  0.3798
47824SOL    HW250331   9.080  12.005   5.309 -0.2161 -0.2808  0.7120
47825SOL     OW50332   5.851   9.984   0.805 -0.0196 -0.3157 -0.4036
47825SOL    HW150333   5.817   9.895   0.820 -0.2293 -0.2139 -0.2756
47825SOL    HW250334   5.934   9.970   0.760  0.8236 -0.6588  1.1695
47826SOL     OW50335   7.941   2.860  11.327  0.0370 -0.1008  0.6150
47826SOL    HW150336   7.892   2.930  11.285  0.0730 -0.6437 -0.3376
47826SOL    HW250337   8.023   2.902  11.354 -0.3641  0.4685  0.9844
47827SOL     OW50338   6.216   3.118   4.795  0.0361 -0.7230 -0.3400
47827SOL    HW150339   6.282   3.135   4.728  0.9590 -0.1494  0.6796
47827SOL    HW250340   6.148   3.183   4.779  0.6213 -0.0787 -0.2664
47828SOL     OW50341   9.698   3.366   7.617 -0.0285  0.1723  0.3033
47828SOL    HW150342   9.775   3.365   7.560 -0.1829 -0.3616  0.0997
47828SOL    HW250343   9.626   3.394   7.561 -0.3378 -1.1203  0.0076
47829SOL     OW50344  11.770   7.524   4.603 -0.0773  0.0323  0.2110
47829SOL    HW150345  11.725   7.442   4.584  0.2781  0.2133 -1.5711
47829SOL    HW250346  11.838   7.500   4.666  0.4444 -1.2049 -0.7761
47830SOL     OW50347  11.707  11.942  11.109  0.7013 -0.4634  0.1741
47830SOL    HW150348  11.667  11.937  11.196  0.0315  0.1678 -0.0872
47830SOL    HW250349  11.671  11.867  11.062 -0.1789  0.0867 -0.0515
47831SOL     OW50350   3.367   0.443   7.952  0.3617  0.0190 -0.3352
47831SOL    HW150351   3.446   0.390   7.947  0.6045  0.4855 -1.9031
47831SOL    HW250352   3.316   0.418   7.875 -1.1604 -0.4625  0.7782
47832SOL     OW50353  11.399   7.591   9.432  0.2154 -0.2504 -0.1333
47832SOL    HW150354  11.331   7.608   9.366 -0.5238  0.7946  0.8627
47832SOL    HW250355  11.353   7.596   9.515  1.3031 -0.7038  0.5129
47833SOL     OW50356   2.616  10.595   4.391  0.2885 -0.5025  0.5894
47833SOL    HW150357   2.601  10.566   4.481  1.5706  0.1970  1.0567
47833SOL    HW250358   2.529  10.619   4.358 -0.0992 -0.0376  1.8959
47834SOL     OW50359   6.868   3.810   8.804  0.0100  0.0001 -0.6159
47834SOL    HW150360   6.891   3.901   8.825 -0.6101 -0.2155  1.1388
47834SOL    HW250361   6.921   3.758   8.864  0.4590 -0.8431 -1.6952
47835SOL     OW50362   2.877  11.787   5.094 -0.3895 -0.0489  0.2911
47835SOL    HW150363   2.819  11.766   5.021  0.6337  1.8707 -1.2065
47835SOL    HW250364   2.887  11.882   5.089  1.9042 -0.1743  1.1979
47836SOL     OW50365   8.641   3.930   7.238 -0.8732 -0.0179 -0.0468
47836SOL    HW150366   8.673   4.019   7.248  0.0313 -0.3535  0.1370
47836SOL    HW250367   8.582   3.934   7.163 -1.6085  0.9242  0.5670
47837SOL     OW50368   1.270  12.525  12.477  0.1652  0.1030 -0.4437
47837SOL    HW150369   1.335  12.469  12.519  0.8043  1.4261  0.3965
47837SOL    HW250370   1.227  12.570  12.549  1.4676  2.6255 -1.1468
47838SOL     OW50371   9.005   4.319  10.395 -0.4213 -0.5276 -0.4767
47838SOL    HW150372   9.035   4.382  10.329  0.9654 -2.1174 -1.4507
47838SOL    HW250373   9.007   4.234  10.350 -0.3561 -1.5429  1.3253
47839SOL     OW50374  11.112   7.427   9.449 -0.0688  0.1022 -0.6561
47839SOL    HW150375  11.159   7.346   9.469  0.0717  0.9317  3.0809
47839SOL    HW250376  11.019   7.405   9.461  0.0005  0.5302  1.0047
47840SOL     OW50377   1.578   4.651   9.542 -0.1783 -0.1347  0.2246
47840SOL    HW150378   1.603   4.561   9.565 -2.0186 -0.8783 -0.5347
47840SOL    HW250379   1.555   4.691   9.626 -1.4657 -1.0919  0.3601
47841SOL     OW50380   6.917  10.116   6.278  0.6814 -0.0769  0.0597
47841SOL    HW150381   6.947  10.145   6.364  0.2570 -1.3205  0.6559
47841SOL    HW250382   6.873  10.033   6.295 -2.0670  1.0423 -0.9132
47842SOL     OW50383   7.242  11.572   2.311  0.1865 -0.0744  0.1446
47842SOL    HW150384   7.269  11.556   2.221 -1.5404  0.5346 -0.5189
47842SOL    HW250385   7.152  11.540   2.315  0.5823 -1.1356  1.9916
47843SOL     OW50386   0.703  10.239  10.441 -0.3436 -0.2315  0.0122
47843SOL    HW150387   0.744  10.167  10.489  0.1368  0.3979  0.5669
47843SOL    HW250388   0.774  10.279  10.392 -0.2229  0.9830  1.1292
47844SOL     OW50389   8.976   7.673  11.748 -0.3430  0.5747 -0.6945
47844SOL    HW150390   9.030   7.604  11.785 -0.3875  2.0470  2.4752
47844SOL    HW250391   8.900   7.627  11.711  0.7937 -1.1851 -0.9638
47845SOL     OW50392   3.825   4.258   4.313  0.1396 -0.1795 -0.2366
47845SOL    HW150393   3.765   4.185   4.325  0.2298 -0.1387  0.4896
47845SOL    HW250394   3.892   4.245   4.380  0.5209  0.2015 -0.5398
47846SOL     OW50395   7.713   4.512   5.411  0.7582  0.9719 -0.9597
47846SOL    HW150396   7.651   4.462   5.464  2.0079  0.6900  0.3168
47846SOL    HW250397   7.746   4.580   5.471  1.2981  1.4234 -1.7484
47847SOL     OW50398   4.353   2.724   8.825  0.2815  0.3573 -0.4751
47847SOL    HW150399   4.352   2.819   8.809 -0.8370  0.1054 -2.1727
47847SOL    HW250400   4.280   2.691   8.773 -0.5952 -1.2286  1.6341
47848SOL     OW50401   0.014   3.939   1.030 -0.1556 -0.1467  0.4444
47848SOL    HW150402   0.100   3.970   1.058  0.3994 -1.1689 -0.0495
47848SOL    HW250403  -0.004   3.988   0.950  0.4505 -0.6526 -0.0163
47849SOL     OW50404   7.418   1.504   1.502  0.1485 -0.1804  0.4126
47849SOL    HW150405   7.373   1.525   1.584  0.9534  2.7931  0.2024
47849SOL    HW250406   7.507   1.484   1.529 -0.3967 -2.9576  0.5136
47850SOL     OW50407   8.917   2.986   6.262  0.9688 -0.4108 -0.7404
47850SOL    HW150408   8.913   2.909   6.319  0.1452 -0.6097 -1.0538
47850SOL    HW250409   8.984   2.963   6.197  0.8560 -0.7895 -0.7262
47851SOL     OW50410   8.783   4.270   8.953 -0.4188  0.2045  0.0337
47851SOL    HW150411   8.826   4.346   8.915 -0.5348 -0.6428 -1.8739
47851SOL    HW250412   8.726   4.307   9.021  0.6275  1.6496  0.1750
47852SOL     OW50413   2.720   7.553   0.434  0.1643  0.6866 -0.2252
47852SOL    HW150414   2.635   7.549   0.390  0.4792  0.3981 -0.8125
47852SOL    HW250415   2.724   7.641   0.471 -0.7534  0.4305  0.5371
47853SOL     OW50416   3.258   0.512  11.143  0.3518 -0.2809  0.4233
47853SOL    HW150417   3.331   0.450  11.151 -0.1332 -0.8472  0.5249
47853SOL    HW250418   3.180   0.459  11.160 -0.4696 -0.5741 -3.4355
47854SOL     OW50419  10.745   3.227   5.258  0.2913  0.6353 -0.1657
47854SOL    HW150420  10.669   3.285   5.251  0.3199  0.8231  0.8412
47854SOL    HW250421  10.721   3.164   5.325  1.2819  1.1435  0.7123
47855SOL     OW50422   9.492   7.047   5.402  0.1328  0.2748  0.2318
47855SOL    HW150423   9.451   7.021   5.319 -1.2041  3.7674 -0.3854
47855SOL    HW250424   9.422   7.039   5.466 -0.3756  2.3124 -0.0156
47856SOL     OW50425   2.456   0.263   2.196  0.1853  0.3542 -0.1860
47856SOL    HW150426   2.425   0.304   2.116  2.7960 -0.0838 -1.5429
47856SOL    HW250427   2.492   0.179   2.168 -1.7327 -1.3164  1.9791
47857SOL     OW50428   7.887   2.694   1.223  0.1173 -0.0001 -0.1901
47857SOL    HW150429   7.919   2.652   1.303 -0.4167 -0.1932 -0.0699
47857SOL    HW250430   7.956   2.754   1.197  0.5393 -0.3596  0.1003
47858SOL     OW50431   9.030   7.592   3.116  0.1093 -0.0063 -0.4596
47858SOL    HW150432   9.109   7.641   3.091 -0.1540  0.0627 -1.1767
47858SOL    HW250433   8.958   7.642   3.077 -0.4042  0.5890  1.1698
47859SOL     OW50434   9.566   2.792   8.378  0.0105 -0.1411 -0.0011
47859SOL    HW150435   9.575   2.887   8.380 -1.8185  0.1081 -1.5162
47859SOL    HW250436   9.479   2.776   8.413  0.7140 -1.3951  1.3075
47860SOL     OW50437   0.831  10.003   8.398 -0.0357  0.2012 -0.5982
47860SOL    HW150438   0.874  10.082   8.430 -0.1924 -0.3680  1.1448
47860SOL    HW250439   0.898   9.935   8.403  0.1596  0.2313 -2.2833
47861SOL     OW50440   1.966   8.881   5.374  0.1882 -0.2680 -0.1702
47861SOL    HW150441   2.043   8.859   5.427  0.2024  0.1508 -0.0153
47861SOL    HW250442   1.988   8.965   5.334 -0.5994  0.3693  0.6929
47862SOL     OW50443   9.389   9.788  12.539  0.3222  0.2625 -0.1886
47862SOL    HW150444   9.451   9.766  12.470  0.8258  0.4631  0.2002
47862SOL    HW250445   9.351   9.704  12.565 -0.2621  0.2356 -1.0634
47863SOL     OW50446   9.327  10.247  11.510  0.5230  0.2283  0.7364
47863SOL    HW150447   9.244  10.295  11.512  0.8406  0.8602 -0.4137
47863SOL    HW250448   9.394  10.316  11.500  1.1110 -0.3381  0.7154
47864SOL     OW50449  12.413   2.130   2.364  0.4137 -0.3745  0.0001
47864SOL    HW150450  12.407   2.219   2.330  0.3251 -0.1185  0.6774
47864SOL    HW250451  12.455   2.139   2.450 -2.3848 -0.6114  1.4892
47865SOL     OW50452  10.148   9.942   2.321 -0.7984 -0.4109  0.0471
47865SOL    HW150453  10.085   9.919   2.253 -0.4225 -0.3404 -0.3315
47865SOL    HW250454  10.150  10.037   2.320 -0.0158 -0.4235 -0.5786
47866SOL     OW50455  11.593   0.306  11.861 -0.2751 -0.2708  0.2585
47866SOL    HW150456  11.624   0.380  11.809  1.1598 -1.4944 -0.6796
47866SOL    HW250457  11.505   0.332  11.889 -0.2208  1.3327 -0.9421
47867SOL     OW50458   8.186   3.876   9.132 -0.4087  0.6206  0.6252
47867SOL    HW150459   8.152   3.830   9.055 -1.0163  0.9436  0.6917
47867SOL    HW250460   8.108   3.894   9.184 -0.0435  0.7453  1.1311
47868SOL     OW50461   6.024  11.775   5.605  0.0756  0.3279 -0.4470
47868SOL    HW150462   5.958  11.821   5.657  1.2372  0.4922  0.9400
47868SOL    HW250463   6.017  11.815   5.518 -2.0302 -0.0683 -0.5316
47869SOL     OW50464   6.625   5.003   0.780  0.2503 -0.3939  0.2294
47869SOL    HW150465   6.709   4.965   0.807 -0.4704 -2.1688  0.1170
47869SOL    HW250466   6.589   5.041   0.860  0.3447 -1.2440  0.6866
47870SOL     OW50467  10.419   1.875   8.613  0.1979 -0.1846 -0.5282
47870SOL    HW150468  10.401   1.929   8.536 -1.8697  2.0855  1.3670
47870SOL    HW250469  10.347   1.813   8.618 -0.5773  0.7588  0.4081
47871SOL     OW50470   9.119  10.667   4.449 -0.3453  0.1449  0.1259
47871SOL    HW150471   9.040  10.614   4.444 -1.6240  2.0303 -1.7760
47871SOL    HW250472   9.106  10.723   4.526 -1.3567  1.0528 -0.6601
47872SOL     OW50473   6.846  12.191   4.802  0.7554 -0.0936 -0.2708
47872SOL    HW150474   6.854  12.244   4.882 -0.3891 -1.1628  0.6091
47872SOL    HW250475   6.752  12.191   4.784  1.0101  0.1427 -1.6496
47873SOL     OW50476   6.126  11.918   6.076  0.4920 -0.5023  0.1941
47873SOL    HW150477   6.138  11.851   6.009  2.5745  0.5302 -0.5567
47873SOL    HW250478   6.107  11.998   6.028 -0.7010 -0.2587  1.0190
47874SOL     OW50479   7.410   1.233   9.883  0.0910 -0.7184  0.2075
47874SOL    HW150480   7.354   1.235   9.961 -1.1721  1.5254 -0.6601
47874SOL    HW250481   7.362   1.178   9.821 -0.4643  0.0518 -0.0509
47875SOL     OW50482   0.493  11.274   9.942 -0.0355  0.0951 -0.2227
47875SOL    HW150483   0.397  11.276   9.947 -0.2281 -1.5153 -2.0967
47875SOL    HW250484   0.522  11.278  10.033 -2.0088 -2.5585  0.6483
47876SOL     OW50485   9.079  11.185  10.278  0.0399  0.1215  0.7354
47876SOL    HW150486   9.011  11.194  10.211  0.2620 -2.1260  0.1433
47876SOL    HW250487   9.131  11.265  10.270 -1.0258  0.7274 -0.5143
47877SOL     OW50488   7.269   8.239  10.203 -0.0862 -0.2640 -0.0207
47877SOL    HW150489   7.294   8.193  10.124  0.3851  0.3192 -0.2260
47877SOL    HW250490   7.352   8.253  10.250 -0.3829 -0.8026  0.6873
47878SOL     OW50491  10.131   3.472   0.990  0.2176 -0.0994 -0.1269
47878SOL    HW150492  10.110   3.380   1.006 -0.3698 -0.1758 -1.2449
47878SOL    HW250493  10.057   3.505   0.939  1.8406  0.1749 -2.4665
47879SOL     OW50494   7.717   6.454  10.755  0.7722  0.0929 -0.2730
47879SOL    HW150495   7.719   6.387  10.823  0.1844  0.4601  0.1099
47879SOL    HW250496   7.753   6.410  10.678  3.3280  0.2334  0.7363
47880SOL     OW50497  12.043  10.741   8.112 -0.1355  0.2958 -0.2237
47880SOL    HW150498  12.102  10.732   8.037  2.2034 -2.1616  1.7263
47880SOL    HW250499  11.955  10.741   8.073  0.9863  2.4625 -3.1307
47881SOL     OW50500   1.644   7.256   7.694  0.1646  0.3074  0.3710
47881SOL    HW150501   1.552   7.282   7.688  0.2739  0.6631  0.2011
47881SOL    HW250502   1.691   7.325   7.647  0.4752 -0.1248  0.0390
47882SOL     OW50503  10.521   9.241   6.524 -0.5306 -0.4407  0.3369
47882SOL    HW150504  10.610   9.205   6.534 -0.0883  0.6370  0.4412
47882SOL    HW250505  10.488   9.201   6.444  0.7109  0.4050 -0.6449
47883SOL     OW50506   0.174   6.401   7.453 -0.1600 -0.0873  0.2753
47883SOL    HW150507   0.231   6.328   7.476 -0.6358 -0.5045  0.1379
47883SOL    HW250508   0.141   6.380   7.366 -0.1852  0.3656  0.1712
47884SOL     OW50509   2.609  10.154  11.110 -0.1594  0.2825 -0.2249
47884SOL    HW150510   2.518  10.179  11.094  0.2897  0.9585 -2.0190
47884SOL    HW250511   2.650  10.158  11.024  1.3148 -1.1308  0.3709
47885SOL     OW50512   4.621   7.436   4.094  0.2164  0.4666  0.2017
47885SOL    HW150513   4.594   7.518   4.055 -0.5720  1.0049  1.7792
47885SOL    HW250514   4.559   7.371   4.061 -0.4999  0.9287  0.6353
47886SOL     OW50515  10.443  11.117   3.351  0.3565 -0.5196  0.2651
47886SOL    HW150516  10.444  11.207   3.319  0.6334 -0.5783  0.1044
47886SOL    HW250517  10.385  11.119   3.427  1.9143  0.2335  1.4973
47887SOL     OW50518   2.067  11.598   0.390 -0.1526  0.4758  0.0855
47887SOL    HW150519   2.089  11.686   0.419 -0.7216  0.3266  1.0120
47887SOL    HW250520   2.037  11.609   0.299  0.6140  1.1010 -0.0966
47888SOL     OW50521   2.708   7.949   8.108  0.2054  0.1433  0.1968
47888SOL    HW150522   2.619   7.937   8.141  0.1386  0.3991  0.1088
47888SOL    HW250523   2.746   8.016   8.164  0.6395 -0.5979  0.8015
47889SOL     OW50524   6.856   0.547   4.906  0.0460 -0.1601 -0.2231
47889SOL    HW150525   6.924   0.550   4.838  0.3121 -1.0269 -0.0059
47889SOL    HW250526   6.878   0.621   4.963  1.5643 -1.1435  0.5301
47890SOL     OW50527   0.187   7.467  12.147 -0.0698 -0.4542  0.3097
47890SOL    HW150528   0.228   7.450  12.062 -2.6853 -1.4139 -0.8514
47890SOL    HW250529   0.249   7.431  12.211  2.0415  0.4372 -1.1186
47891SOL     OW50530   0.330  10.915  10.200 -0.1459 -0.2793  0.3018
47891SOL    HW150531   0.291  10.949  10.120  1.6532  0.6853 -0.2356
47891SOL    HW250532   0.298  10.825  10.207 -2.9891  0.6200  0.3456
47892SOL     OW50533   8.849   5.615   9.012 -0.3890 -0.7547 -0.2530
47892SOL    HW150534   8.904   5.668   9.069 -1.0580 -0.8342  0.4952
47892SOL    HW250535   8.871   5.643   8.923 -2.1919  2.3004  0.1236
47893SOL     OW50536  11.656   1.845   2.617 -0.1364 -0.4819 -0.7526
47893SOL    HW150537  11.575   1.815   2.659 -0.9649 -0.3845 -2.1994
47893SOL    HW250538  11.650   1.812   2.528  1.0750  0.1659 -1.0964
47894SOL     OW50539   1.967  10.250   7.509 -0.0840 -0.0970  0.2645
47894SOL    HW150540   1.929  10.193   7.576 -2.6559  0.0485 -0.9384
47894SOL    HW250541   1.997  10.327   7.557 -0.8029 -0.5084  1.4086
47895SOL     OW50542   8.309   8.676   9.628 -0.7394 -0.2100  0.3308
47895SOL    HW150543   8.298   8.741   9.696  0.0013 -0.4503  0.6893
47895SOL    HW250544   8.227   8.627   9.627 -1.5462  1.1167 -0.3731
47896SOL     OW50545  12.018   5.495   1.879 -0.1088 -0.2784  0.3921
47896SOL    HW150546  12.075   5.516   1.804  0.0608  0.6070  0.7541
47896SOL    HW250547  11.987   5.407   1.861  0.0832 -0.1521 -0.6303
47897SOL     OW50548   5.724  10.231   0.786 -0.4192 -0.6325  0.0481
47897SOL    HW150549   5.799  10.174   0.769  0.4543  0.3242  0.5726
47897SOL    HW250550   5.708  10.275   0.702 -0.8417 -1.3329 -0.2482
47898SOL     OW50551   3.990   8.404   0.348 -0.0834 -0.3754 -0.0852
47898SOL    HW150552   3.982   8.498   0.329  1.0716 -0.0896  0.6531
47898SOL    HW250553   3.900   8.372   0.349 -0.4940  0.6938 -0.5048
47899SOL     OW50554   6.993   8.310   5.598 -0.6037  0.0888 -0.2778
47899SOL    HW150555   6.968   8.376   5.662 -0.5088 -0.2587  0.1197
47899SOL    HW250556   6.971   8.226   5.639 -0.5604 -0.1352 -0.7033
47900SOL     OW50557   8.472   6.138   3.825 -0.0397 -0.3898 -0.0254
47900SOL    HW150558   8.489   6.098   3.740  0.8282 -0.8554  0.3525
47900SOL    HW250559   8.380   6.120   3.842 -0.0292 -0.9565 -0.5257
47901SOL     OW50560  11.576  12.259   0.114  0.0622  0.0151 -0.1233
47901SOL    HW150561  11.640  12.328   0.133 -0.4220 -0.0386  2.0165
47901SOL    HW250562  11.552  12.225   0.200 -2.8351  0.0174 -0.8304
47902SOL     OW50563   9.558   0.981   9.404  0.1442 -0.1395 -0.3453
47902SOL    HW150564   9.470   0.994   9.367  0.7818  1.5589 -1.4030
47902SOL    HW250565   9.617   0.991   9.329  1.2444 -1.8849  0.2283
47903SOL     OW50566   2.301  12.360   3.986 -0.1486 -0.8016 -0.2533
47903SOL    HW150567   2.206  12.345   3.988 -0.5498  1.2007 -1.4835
47903SOL    HW250568   2.320  12.378   3.894  1.2504 -0.1728  0.1322
47904SOL     OW50569   8.280   0.179   8.824  0.5867  0.0684 -0.1536
47904SOL    HW150570   8.330   0.224   8.892 -0.6294 -1.4554  1.8858
47904SOL    HW250571   8.228   0.248   8.783  3.4581  1.4974 -1.6135
47905SOL     OW50572   2.994  10.371  10.478 -0.6071  0.0685  0.1481
47905SOL    HW150573   2.936  10.312  10.527  0.2023  0.0882  1.1712
47905SOL    HW250574   3.063  10.315  10.444  0.7221  0.4876  1.9665
47906SOL     OW50575   8.510   9.519  12.003 -0.4017  0.6092 -0.1065
47906SOL    HW150576   8.459   9.583  11.954  0.7820  0.7532 -1.1926
47906SOL    HW250577   8.458   9.503  12.082 -2.4295  0.2374 -1.4428
47907SOL     OW50578   6.675   2.614  11.084 -0.6405 -0.1988 -0.1847
47907SOL    HW150579   6.709   2.569  11.161  0.0935 -0.3530 -0.5914
47907SOL    HW250580   6.682   2.550  11.013 -0.2887  0.3062 -0.6117
47908SOL     OW50581   6.595   4.597  10.101 -0.1342 -0.1897 -0.0917
47908SOL    HW150582   6.524   4.603  10.036  0.0983 -0.2797 -0.3545
47908SOL    HW250583   6.647   4.676  10.086  0.1327 -0.3994 -0.2642
47909SOL     OW50584   6.397   2.609   8.633 -0.2190  0.3692 -1.0307
47909SOL    HW150585   6.365   2.675   8.571 -1.7262  0.6777  0.0231
47909SOL    HW250586   6.395   2.653   8.718 -0.7107 -0.8580 -0.3906
47910SOL     OW50587   3.030   8.992   1.705  0.0954  0.0918 -0.0375
47910SOL    HW150588   3.120   9.022   1.711 -0.3236  1.5668 -0.5886
47910SOL    HW250589   3.033   8.916   1.647  0.7951  1.0280 -1.2729
47911SOL     OW50590   0.819   6.556   2.023 -0.6059  0.3043 -0.0959
47911SOL    HW150591   0.772   6.550   2.107 -0.1342 -0.2690  0.1364
47911SOL    HW250592   0.753   6.533   1.958 -0.8050  0.0842  0.1801
47912SOL     OW50593   4.200  11.816   9.847  0.2974  0.3234 -0.2995
47912SOL    HW150594   4.133  11.820   9.780 -0.0986 -0.8164  0.0093
47912SOL    HW250595   4.282  11.833   9.800 -0.0884  0.7100 -0.8504
47913SOL     OW50596   9.680   8.194   1.177  0.2860 -0.4551  0.3576
47913SOL    HW150597   9.734   8.169   1.252  0.2292  0.2344  0.6253
47913SOL    HW250598   9.590   8.187   1.208  0.1995 -1.5501 -0.0739
47914SOL     OW50599  10.576   9.122   9.697 -0.0421 -0.2297 -0.0934
47914SOL    HW150600  10.482   9.127   9.680 -0.0153 -0.6723 -0.3672
47914SOL    HW250601  10.584   9.067   9.774  0.0232 -0.5884 -0.3556
47915SOL     OW50602   5.203  11.998   1.049 -0.4594 -0.4170  0.7311
47915SOL    HW150603   5.121  11.966   1.011 -1.5021  2.3315  0.4833
47915SOL    HW250604   5.245  12.047   0.979 -0.1194  0.7996  1.7517
47916SOL     OW50605   0.376   2.981   6.099 -0.2556  0.4303  0.6290
47916SOL    HW150606   0.324   2.933   6.163 -0.6357 -1.0866 -0.7336
47916SOL    HW250607   0.467   2.959   6.120 -0.2594  1.3076  1.6514
47917SOL     OW50608   6.350   0.420   7.209 -0.0284 -0.3616 -0.1217
47917SOL    HW150609   6.428   0.475   7.195  0.7943 -1.3305  0.5297
47917SOL    HW250610   6.329   0.387   7.121  0.2401 -0.0264 -0.3165
47918SOL     OW50611  11.684   4.745   7.858 -0.1460  0.0380 -0.0518
47918SOL    HW150612  11.768   4.778   7.828  1.2153 -1.8383  1.3919
47918SOL    HW250613  11.673   4.783   7.945 -0.0464 -0.8483  0.3614
47919SOL     OW50614   4.462   0.465   6.436  0.1070  0.0886 -0.0969
47919SOL    HW150615   4.418   0.468   6.521  1.5735 -2.1370  0.8366
47919SOL    HW250616   4.525   0.537   6.438  0.1855  0.0065  0.7598
47920SOL     OW50617  11.320   7.452   8.787  0.0791  0.2846 -0.5820
47920SOL    HW150618  11.310   7.413   8.700 -0.1456  0.0724 -0.4647
47920SOL    HW250619  11.414   7.466   8.797  0.0218  1.1808 -1.2278
47921SOL     OW50620   8.240   1.937   9.430 -0.8430 -0.1346  0.0230
47921SOL    HW150621   8.305   1.867   9.433 -0.5711 -0.1898 -3.3084
47921SOL    HW250622   8.158   1.894   9.453 -0.3283 -0.9961  0.3016
47922SOL     OW50623   9.329   1.798   2.315  0.1655  0.8020 -0.4525
47922SOL    HW150624   9.320   1.739   2.390 -0.1059  2.9417  1.3153
47922SOL    HW250625   9.423   1.813   2.307  0.1164  1.8013  0.5494
47923SOL     OW50626   3.549  10.855   8.274  0.0456 -0.1558  0.3491
47923SOL    HW150627   3.624  10.882   8.221  0.2787 -1.4053 -0.0055
47923SOL    HW250628   3.560  10.901   8.357  0.9330  0.0605  0.1203
47924SOL     OW50629  10.483   7.124   6.077 -0.1067  0.2946  0.6298
47924SOL    HW150630  10.451   7.070   6.005 -1.1334 -1.3694  2.2464
47924SOL    HW250631  10.405   7.140   6.131  0.8199  0.6433  1.9115
47925SOL     OW50632   9.599  11.667  10.216  0.7632 -0.1130 -0.4310
47925SOL    HW150633   9.664  11.597  10.214 -0.5109 -1.5524  2.5248
47925SOL    HW250634   9.539  11.646  10.145  1.5567 -0.8113 -0.9162
47926SOL     OW50635   5.450  10.431   3.126 -0.0024 -0.0864  0.3519
47926SOL    HW150636   5.416  10.364   3.185 -0.1343  1.4958  2.1994
47926SOL    HW250637   5.372  10.475   3.092  0.0985 -0.3414 -0.2216
47927SOL     OW50638  10.404   5.154   8.169 -0.7028 -0.2246  0.1465
47927SOL    HW150639  10.452   5.236   8.161  1.9330 -1.4982  1.7175
47927SOL    HW250640  10.374   5.135   8.080  2.7949  0.1030 -1.2559
47928SOL     OW50641   6.277   1.453   2.646  0.1007 -0.0201 -0.3784
47928SOL    HW150642   6.202   1.400   2.619  0.7553 -0.9547 -0.3943
47928SOL    HW250643   6.325   1.470   2.565  0.1325  0.2290 -0.3082
47929SOL     OW50644   1.967   7.229   9.415  0.0513 -0.0453  0.4249
47929SOL    HW150645   2.057   7.196   9.416  0.0252 -0.4870 -2.8760
47929SOL    HW250646   1.924   7.183   9.488  2.4009  0.0928  1.9931
47930SOL     OW50647   8.673   7.623   5.548 -0.1915 -0.1490 -0.7665
47930SOL    HW150648   8.618   7.589   5.618  0.2125  1.7217  0.5518
47930SOL    HW250649   8.614   7.674   5.493 -0.3138 -0.7059 -1.1551
47931SOL     OW50650  10.309   5.473   8.918 -0.3583  0.2721 -0.4847
47931SOL    HW150651  10.249   5.505   8.985 -0.3905 -0.2568 -0.2617
47931SOL    HW250652  10.318   5.547   8.858  1.1452  1.4458  1.0814
47932SOL     OW50653  11.223   7.154  10.714 -0.4805 -0.6148  0.0723
47932SOL    HW150654  11.317   7.138  10.721 -0.1721  0.7661 -0.5344
47932SOL    HW250655  11.199   7.116  10.629 -0.1385  0.3603 -0.4828
47933SOL     OW50656   4.652   6.338  10.138 -0.0612 -0.3223 -0.4887
47933SOL    HW150657   4.728   6.367  10.086 -0.8354  0.7275 -1.0821
47933SOL    HW250658   4.674   6.365  10.227  0.2529  0.0074 -0.6590
47934SOL     OW50659   9.003  12.393   2.884  0.0920  0.2604  0.0679
47934SOL    HW150660   8.968  12.422   2.800 -0.7772 -0.5612  0.1288
47934SOL    HW250661   9.068  12.326   2.861  1.7998  1.8720 -0.0517
47935SOL     OW50662   0.059   3.703   7.981 -0.1751 -0.0802  0.1807
47935SOL    HW150663   0.124   3.746   8.037  0.2316 -1.4716  0.8150
47935SOL    HW250664   0.006   3.650   8.041 -0.9945 -0.0652 -0.5129
47936SOL     OW50665   8.141  10.532   3.103 -0.2098  0.1879  0.1118
47936SOL    HW150666   8.074  10.553   3.168 -0.1212  2.1998 -0.3866
47936SOL    HW250667   8.212  10.594   3.121  1.4990 -1.7963  0.5320
47937SOL     OW50668  11.936   5.347   9.868 -0.0545 -0.2386 -0.0677
47937SOL    HW150669  11.977   5.422   9.912  1.3450  0.0590 -1.7720
47937SOL    HW250670  11.847   5.376   9.849  0.2375  0.7195 -0.0201
47938SOL     OW50671   4.452   2.104   1.257 -0.8709 -0.6502  0.3223
47938SOL    HW150672   4.405   2.173   1.304 -0.2379 -0.2553  0.3952
47938SOL    HW250673   4.456   2.135   1.167  1.1561  0.4242  0.7081
47939SOL     OW50674  12.575   2.888   5.865 -0.1320 -0.2933  0.4202
47939SOL    HW150675  12.637   2.958   5.843  0.7791 -0.9925  0.6871
47939SOL    HW250676  12.568   2.890   5.960 -1.7078  0.7434  0.3253
47940SOL     OW50677   1.593   4.366   5.464  0.2683 -0.3978 -0.6970
47940SOL    HW150678   1.611   4.274   5.480  0.7138 -0.0157  1.1341
47940SOL    HW250679   1.678   4.403   5.440  0.1436 -0.3920 -1.1444
47941SOL     OW50680   8.221   1.741   2.463 -0.6383  0.2302 -0.3739
47941SOL    HW150681   8.181   1.677   2.405  1.8011 -0.7170 -1.1702
47941SOL    HW250682   8.148   1.793   2.497 -2.2567  0.6119 -3.9782
47942SOL     OW50683   9.692   7.675   6.789 -1.0886  0.1817  0.6415
47942SOL    HW150684   9.784   7.685   6.814 -0.2699 -2.8831 -0.6301
47942SOL    HW250685   9.687   7.710   6.700 -1.0448  0.0469  0.5848
47943SOL     OW50686   7.637   3.811   5.346  0.4137  0.0079  0.3476
47943SOL    HW150687   7.638   3.754   5.270  1.6828 -0.1095  0.4271
47943SOL    HW250688   7.544   3.832   5.360 -0.0790 -2.0065  0.3131
47944SOL     OW50689  12.129   3.459   3.142 -0.5053 -0.1476  0.2671
47944SOL    HW150690  12.106   3.509   3.221  0.2132 -1.3500  1.2767
47944SOL    HW250691  12.163   3.377   3.176  1.5242  0.0055 -1.2784
47945SOL     OW50692  11.772  12.323  10.558 -0.0699  0.0006 -0.1240
47945SOL    HW150693  11.821  12.313  10.640 -1.1559  1.8057  0.8151
47945SOL    HW250694  11.786  12.241  10.512 -0.2611 -1.5161  2.3404
47946SOL     OW50695   7.033   0.104   1.906 -0.1582  0.4799 -0.2781
47946SOL    HW150696   7.101   0.105   1.840  0.8977  1.0031  0.7758
47946SOL    HW250697   7.059   0.034   1.967 -0.4429  0.8261  0.2511
47947SOL     OW50698   7.584   7.496   7.621  0.4453 -0.2228 -0.7258
47947SOL    HW150699   7.604   7.432   7.690  0.3459  1.7607  1.2298
47947SOL    HW250700   7.661   7.553   7.618 -0.0863  0.4808 -1.3657
47948SOL     OW50701   8.060   5.276   9.060  0.0305 -0.0140 -0.4727
47948SOL    HW150702   8.008   5.356   9.053  0.4816  0.1711 -2.1050
47948SOL    HW250703   8.014   5.212   9.007  0.4695 -0.3891 -0.4068
47949SOL     OW50704   0.649  11.531   0.759  0.2881  0.3333  0.2439
47949SOL    HW150705   0.731  11.576   0.737 -0.3108  1.2681 -0.1354
47949SOL    HW250706   0.581  11.596   0.743 -0.6405 -0.8085 -0.5990
47950SOL     OW50707   9.712   3.820  10.243  0.3946 -0.1791  0.7335
47950SOL    HW150708   9.752   3.831  10.329 -0.9664 -0.3095  1.4095
47950SOL    HW250709   9.622   3.851  10.254  0.4323  0.6167 -0.8722
47951SOL     OW50710   7.772   4.082   2.953  0.4473 -0.2277 -0.4473
47951SOL    HW150711   7.730   4.113   3.033 -0.4035 -2.3764  0.0060
47951SOL    HW250712   7.799   4.162   2.908 -1.0958  1.1232  0.8845
47952SOL     OW50713   4.627  11.433   1.737 -0.1905  0.2392  0.6228
47952SOL    HW150714   4.659  11.501   1.677 -1.5967  0.1579 -0.2604
47952SOL    HW250715   4.679  11.356   1.715 -1.1394  0.0158 -1.0167
47953SOL     OW50716   9.348  12.328   1.795  0.0210 -0.1136  0.1410
47953SOL    HW150717   9.295  12.248   1.801  0.9501 -0.6500  3.0934
47953SOL    HW250718   9.421  12.305   1.738 -0.3318 -0.9935  0.0277
47954SOL     OW50719   7.104  10.897   5.818  0.6090 -0.0475  0.4253
47954SOL    HW150720   7.012  10.888   5.843  1.0498  0.4989  2.3980
47954SOL    HW250721   7.153  10.872   5.896  2.1597 -0.4204 -0.6196
47955SOL     OW50722   5.704   5.929   8.614 -0.2830  0.2905  0.1723
47955SOL    HW150723   5.651   5.936   8.693 -0.4413 -0.3297  0.1232
47955SOL    HW250724   5.764   5.856   8.632 -0.4820 -0.0091 -0.3731
47956SOL     OW50725  12.073  10.020   0.404  0.2597 -0.7105  0.0671
47956SOL    HW150726  12.117  10.101   0.428 -1.7244 -0.2221  2.4623
47956SOL    HW250727  12.143   9.955   0.401  1.4819  0.4956  1.1854
47957SOL     OW50728   6.943   5.390   6.711 -0.4067 -0.5157  0.1219
47957SOL    HW150729   6.871   5.449   6.734 -2.0695 -2.5674  0.5335
47957SOL    HW250730   6.981   5.428   6.632 -1.0327  1.3617  0.6653
47958SOL     OW50731   9.386   8.364   6.661  0.0552 -0.1519 -0.4349
47958SOL    HW150732   9.311   8.423   6.653 -0.3352 -0.6840 -0.7212
47958SOL    HW250733   9.422   8.383   6.748  2.3046  3.2716 -1.8974
47959SOL     OW50734   8.350  10.494  11.658  0.0947  0.4177  0.2784
47959SOL    HW150735   8.278  10.449  11.702 -0.0681  1.3299  0.9843
47959SOL    HW250736   8.429  10.448  11.686 -0.2497 -1.5351 -1.6460
47960SOL     OW50737   9.514   2.038  11.894 -0.2381  0.0747  0.0916
47960SOL    HW150738   9.506   1.980  11.818 -0.4895  1.4881 -0.9988
47960SOL    HW250739   9.457   1.999  11.960 -0.2295 -1.0346 -0.5251
47961SOL     OW50740   3.949   3.702   5.718  0.0630  0.2524 -0.1711
47961SOL    HW150741   3.941   3.639   5.647  0.8023 -1.1674  0.9606
47961SOL    HW250742   3.859   3.732   5.733 -0.5237 -1.5464  0.1424
47962SOL     OW50743  10.276   2.042   7.388 -0.1327  0.2105 -0.1920
47962SOL    HW150744  10.202   2.092   7.423  0.0299 -0.1813  0.7439
47962SOL    HW250745  10.335   2.032   7.462 -0.5208 -2.0576 -0.1232
47963SOL     OW50746   6.946   1.271   9.522 -0.7103 -0.4410  0.0840
47963SOL    HW150747   7.012   1.203   9.533  0.5607  0.3314 -2.2266
47963SOL    HW250748   6.995   1.350   9.501 -2.2644  0.7754  0.7786
47964SOL     OW50749   4.414  11.975   5.971 -0.0163 -0.4028 -0.2421
47964SOL    HW150750   4.361  12.046   5.936 -0.1479 -0.4165 -0.0745
47964SOL    HW250751   4.467  11.946   5.897 -0.9977 -1.0930 -0.6840
47965SOL     OW50752  10.850   7.073  12.181 -0.5768 -0.4356 -0.1824
47965SOL    HW150753  10.856   7.118  12.266  0.0448 -0.2857 -0.3006
47965SOL    HW250754  10.759   7.045  12.176 -0.9493  0.6874 -0.0392
47966SOL     OW50755   8.350   1.025   4.852 -0.6277  0.0684 -0.5773
47966SOL    HW150756   8.401   0.947   4.829 -0.3958  0.1505 -0.3338
47966SOL    HW250757   8.283   1.030   4.783  0.0733  0.3136 -1.2540
47967SOL     OW50758   5.616  10.561   1.700 -0.1677  0.3240 -0.2753
47967SOL    HW150759   5.547  10.503   1.669 -1.1939  1.8322 -0.9635
47967SOL    HW250760   5.697  10.521   1.667 -0.6241 -1.7029  0.9166
47968SOL     OW50761   0.437   8.374   6.384 -0.0938 -0.3263  0.2893
47968SOL    HW150762   0.370   8.442   6.373  0.0768 -0.2915 -0.5550
47968SOL    HW250763   0.411   8.329   6.465  0.0362  1.0072  1.1143
47969SOL     OW50764   9.962   6.095  10.823 -0.1471 -0.5456 -0.7599
47969SOL    HW150765  10.006   6.013  10.845 -1.4570 -1.0973 -0.0935
47969SOL    HW250766   9.988   6.112  10.733  1.5022 -0.7819 -0.3592
47970SOL     OW50767   3.900   1.987   4.741  0.4698  0.0754  0.1265
47970SOL    HW150768   3.883   2.065   4.793  0.6659 -0.3102  0.7858
47970SOL    HW250769   3.912   2.019   4.652  0.4517  0.7821  0.3749
47971SOL     OW50770  10.717   1.863   4.885  0.3824  0.1314 -0.5321
47971SOL    HW150771  10.652   1.848   4.954 -0.7348  1.5901 -1.2097
47971SOL    HW250772  10.674   1.833   4.804  0.9235  0.2232 -0.8617
47972SOL     OW50773  10.221  10.708  12.222  0.4561 -0.4577  0.0645
47972SOL    HW150774  10.127  10.718  12.205  0.3663 -2.3546 -0.7670
47972SOL    HW250775  10.233  10.614  12.237  2.3408 -0.3634 -0.5924
47973SOL     OW50776   3.954  11.353   2.336  0.2722 -0.4511  0.1790
47973SOL    HW150777   3.928  11.277   2.388 -0.0472 -0.7721 -0.4475
47973SOL    HW250778   4.040  11.330   2.302  0.4887 -0.2345  0.5785
47974SOL     OW50779   8.591   7.329  10.825 -0.1826 -0.0303  0.1193
47974SOL    HW150780   8.558   7.322  10.735  1.0504 -1.7964 -0.2348
47974SOL    HW250781   8.625   7.419  10.831  1.1766 -0.3687 -1.7201
47975SOL     OW50782   9.952   6.207   9.385 -0.3423  0.0633 -0.2813
47975SOL    HW150783   9.910   6.240   9.464 -1.9908 -0.4299 -0.9240
47975SOL    HW250784  10.037   6.252   9.383 -0.0038 -0.3472  2.0501
47976SOL     OW50785   0.407   4.219  11.124  0.1452 -0.0071  0.2790
47976SOL    HW150786   0.478   4.227  11.060 -0.5162 -0.0228 -0.4673
47976SOL    HW250787   0.413   4.298  11.177  0.3966  0.2437 -0.1206
47977SOL     OW50788   4.401   7.265   2.674 -0.2684 -0.3945 -0.6095
47977SOL    HW150789   4.402   7.361   2.671  0.3797 -0.3867 -0.3038
47977SOL    HW250790   4.310   7.243   2.694  0.0824  0.2551  2.0407
47978SOL     OW50791   9.148  12.225   2.721  0.2528  0.0572 -0.1433
47978SOL    HW150792   9.175  12.134   2.714 -1.4333 -0.5134  0.3543
47978SOL    HW250793   9.112  12.246   2.634 -0.7640 -0.2578  0.1833
47979SOL     OW50794  10.180   4.183  10.787  0.3734  0.0736  0.5467
47979SOL    HW150795  10.246   4.192  10.718  0.4060 -0.8612  0.4531
47979SOL    HW250796  10.149   4.093  10.780 -1.6592  0.7624 -0.0762
47980SOL     OW50797   7.522   5.223   1.355 -0.3661 -0.5281 -0.3285
47980SOL    HW150798   7.481   5.144   1.390  0.0918 -0.4653  0.3650
47980SOL    HW250799   7.450   5.286   1.349 -0.3493 -0.3070  1.2163
47981SOL     OW50800   7.822   0.258   8.904 -0.9648  0.6397 -0.1569
47981SOL    HW150801   7.808   0.334   8.847 -3.8040 -1.0882 -1.9962
47981SOL    HW250802   7.835   0.185   8.843  0.5499 -0.6158  1.5431
47982SOL     OW50803   3.279   5.537   4.401 -0.1512 -0.0725  0.0367
47982SOL    HW150804   3.289   5.483   4.479 -0.4753 -0.2522 -0.0426
47982SOL    HW250805   3.195   5.582   4.414 -0.6630 -0.7949 -0.6160
47983SOL     OW50806   7.536   0.014   2.158  0.2664  0.3409  0.0731
47983SOL    HW150807   7.533   0.078   2.229  0.2564  1.0511 -0.5514
47983SOL    HW250808   7.626   0.017   2.126  0.1633  0.3402 -0.2226
47984SOL     OW50809   8.422   0.522   7.563 -0.4323 -0.4926  0.0605
47984SOL    HW150810   8.413   0.617   7.554 -1.0166 -0.6020 -0.5810
47984SOL    HW250811   8.510   0.510   7.600  0.2939  0.2366 -1.3267
47985SOL     OW50812   0.860   5.752   8.001 -0.5775  0.4719  0.0882
47985SOL    HW150813   0.832   5.688   7.935 -0.1421  0.8843 -0.5076
47985SOL    HW250814   0.797   5.824   7.994  0.8753  1.6582 -1.6446
47986SOL     OW50815   7.727   0.434  10.944  0.1589  0.4554 -0.2058
47986SOL    HW150816   7.770   0.382  10.876  0.9338 -0.6199  1.0502
47986SOL    HW250817   7.634   0.415  10.933  0.1643  1.0975 -1.5779
47987SOL     OW50818   5.875   9.345   6.451 -0.4448 -0.0267 -0.5557
47987SOL    HW150819   5.955   9.314   6.494 -0.3338  0.5016 -0.3750
47987SOL    HW250820   5.864   9.435   6.483 -0.9342  0.0111 -0.8285
47988SOL     OW50821   4.023   2.310   1.539  0.0600  0.0533  0.1376
47988SOL    HW150822   4.113   2.308   1.507  0.5726 -2.0734  1.5068
47988SOL    HW250823   3.970   2.286   1.463  0.9027 -1.1487 -0.1049
47989SOL     OW50824   4.416   1.554   9.627 -0.2025  0.2307 -0.1055
47989SOL    HW150825   4.470   1.532   9.551  1.2528  0.0288  0.9379
47989SOL    HW250826   4.355   1.620   9.595  0.5771  0.3725 -1.3707
47990SOL     OW50827   2.020   3.578   9.419  0.3804 -0.1318  0.1740
47990SOL    HW150828   2.040   3.575   9.512  1.2525  0.7601  0.0464
47990SOL    HW250829   2.059   3.661   9.389  0.8145 -0.7623 -1.1221
47991SOL     OW50830   6.486   9.590   4.918 -0.0031  0.1499  0.0832
47991SOL    HW150831   6.429   9.543   4.979  0.6516 -0.2977  0.3547
47991SOL    HW250832   6.478   9.543   4.835 -1.0371  0.8672 -0.2411
47992SOL     OW50833   2.547   3.089   7.646 -0.0770  0.1567  0.2829
47992SOL    HW150834   2.616   3.077   7.582 -0.3161 -0.9406  0.2099
47992SOL    HW250835   2.475   3.035   7.614 -0.5107  0.2795  1.0230
47993SOL     OW50836   7.770   7.748   8.525 -0.0342  0.3303 -0.3331
47993SOL    HW150837   7.805   7.802   8.596 -0.6807  1.6875 -1.0168
47993SOL    HW250838   7.765   7.660   8.563 -2.0463  1.3053  1.9556
47994SOL     OW50839   8.163  10.865   0.678 -0.1141 -0.2223  0.3445
47994SOL    HW150840   8.157  10.805   0.753 -0.3486 -0.4627  0.1336
47994SOL    HW250841   8.207  10.815   0.610 -0.6508 -0.2854  0.0399
47995SOL     OW50842  12.368   1.589   3.036  0.0175  0.0718 -0.5058
47995SOL    HW150843  12.452   1.545   3.040 -0.4213 -0.7332  0.2690
47995SOL    HW250844  12.349   1.614   3.126 -0.1471  1.0777 -0.8092
47996SOL     OW50845  10.406   4.195   7.815  0.2155 -0.2097  0.1383
47996SOL    HW150846  10.428   4.102   7.810 -0.2495 -0.2720 -0.7998
47996SOL    HW250847  10.377   4.208   7.905  1.7254 -0.6386  0.7260
47997SOL     OW50848   0.972   9.870   2.441  0.2654 -0.4017 -0.5290
47997SOL    HW150849   0.880   9.894   2.455 -0.0811 -0.9944 -1.6594
47997SOL    HW250850   0.986   9.794   2.497 -0.2163 -0.8800 -1.0362
47998SOL     OW50851  10.908   9.266   8.300  0.1767 -0.4154  0.0434
47998SOL    HW150852  10.847   9.321   8.249 -1.7211 -1.1560  1.3929
47998SOL    HW250853  10.976   9.326   8.329 -0.3485  0.6365 -0.8077
47999SOL     OW50854   5.615   2.064   2.903 -0.3970 -0.0254 -0.3893
47999SOL    HW150855   5.679   2.024   2.962  0.1407  0.3031 -0.7319
47999SOL    HW250856   5.643   2.037   2.815  0.5898  1.8778 -0.7090
48000SOL     OW50857   2.161  12.325   1.373  0.3009 -0.2298 -0.3766
48000SOL    HW150858   2.109  12.379   1.312 -0.2024 -0.9625 -0.6133
48000SOL    HW250859   2.132  12.353   1.460  2.1900  1.9853 -0.3735
48001SOL     OW50860   3.516   9.982   0.102 -0.0952 -0.6356 -0.6369
48001SOL    HW150861   3.598  10.013   0.062 -0.2995  0.0124 -0.5606
48001SOL    HW250862   3.449  10.041   0.068 -0.2050  0.2565  1.0718
48002SOL     OW50863   3.356   9.876   8.276  0.4221  0.1776 -0.0927
48002SOL    HW150864   3.414   9.904   8.205  1.9195  1.0015  1.3944
48002SOL    HW250865   3.369   9.940   8.345 -0.2274 -1.1497  1.3273
48003SOL     OW50866   2.225   5.954   7.815  0.6657  0.7084 -0.0157
48003SOL    HW150867   2.300   5.896   7.830  1.3245  1.3527 -0.7135
48003SOL    HW250868   2.181   5.917   7.739  1.4364  1.4396 -0.8394
48004SOL     OW50869   4.537   3.607  10.248  0.2742  0.1633  0.6713
48004SOL    HW150870   4.463   3.566  10.293  0.4570 -0.3532  0.5111
48004SOL    HW250871   4.497   3.659  10.179  0.0889 -0.6081  0.1944
48005SOL     OW50872  11.238  11.666  11.123 -0.0769  0.5270 -0.5029
48005SOL    HW150873  11.165  11.666  11.061 -0.2557 -0.0520 -0.2922
48005SOL    HW250874  11.198  11.655  11.208  0.1925  1.0636 -0.3002
48006SOL     OW50875  12.410   2.380   8.777 -0.4405 -0.1077 -0.1906
48006SOL    HW150876  12.346   2.313   8.801 -1.5018  0.8288 -0.3397
48006SOL    HW250877  12.363   2.463   8.787  0.5525  0.5641 -0.9189
48007SOL     OW50878   1.501   9.097   3.932 -0.0190 -0.1155 -0.3842
48007SOL    HW150879   1.487   9.050   4.014 -0.2016  0.6906  0.0518
48007SOL    HW250880   1.579   9.150   3.947 -0.3341  0.4047 -0.5631
48008SOL     OW50881   9.558   1.255   4.479 -0.3813  0.7761 -0.5083
48008SOL    HW150882   9.598   1.294   4.557 -0.0811 -0.2378 -0.1394
48008SOL    HW250883   9.628   1.255   4.414  0.2031 -0.7973  0.0695
48009SOL     OW50884   5.404   5.610   6.135  0.1177  0.6587  0.0067
48009SOL    HW150885   5.494   5.639   6.116  0.5561 -1.2578 -1.0946
48009SOL    HW250886   5.381   5.655   6.216  1.8484  1.6591 -0.0108
48010SOL     OW50887  11.785   9.905  10.702 -0.1745  0.0019 -0.5215
48010SOL    HW150888  11.746   9.819  10.712  0.7914 -0.3519  0.4488
48010SOL    HW250889  11.716   9.959  10.663 -1.7735 -0.4925  1.4715
48011SOL     OW50890   0.160   5.119   2.280 -0.1813 -0.3669 -0.3207
48011SOL    HW150891   0.154   5.214   2.285  0.7395 -0.2700 -0.7889
48011SOL    HW250892   0.075   5.091   2.246 -0.3480  0.3195 -0.4822
48012SOL     OW50893   0.866  10.679   5.245 -0.5572 -0.0219 -0.2221
48012SOL    HW150894   0.774  10.678   5.218  0.2586  0.1790 -3.3609
48012SOL    HW250895   0.875  10.759   5.296 -1.9730  0.3208 -0.4619
48013SOL     OW50896   5.240   6.166   9.101  0.6451 -0.1500  1.1160
48013SOL    HW150897   5.294   6.230   9.147  1.8879 -1.8660  2.1980
48013SOL    HW250898   5.159   6.162   9.151 -0.1624  1.7545  0.0416
48014SOL     OW50899   0.946   7.713   7.038 -0.1146  0.3648  0.1721
48014SOL    HW150900   0.989   7.656   7.101 -0.1920  0.7869  0.6185
48014SOL    HW250901   0.926   7.657   6.964 -1.7341 -0.6210  1.2735
48015SOL     OW50902   2.950  11.101   5.119  0.4634 -0.0638  0.2796
48015SOL    HW150903   2.863  11.110   5.081 -0.4505  0.3470  2.3396
48015SOL    HW250904   2.996  11.180   5.092 -0.6946  0.9934  1.2672
48016SOL     OW50905   2.949   0.923   5.818 -0.2361  0.0650 -0.2542
48016SOL    HW150906   2.893   0.846   5.829 -0.9104  0.6055  0.1278
48016SOL    HW250907   3.014   0.896   5.753  0.1944 -1.1868  0.6561
48017SOL     OW50908   1.602   5.115   3.235  0.2896  0.2771 -0.2123
48017SOL    HW150909   1.622   5.027   3.204  1.2181 -0.1399  1.4511
48017SOL    HW250910   1.507   5.115   3.249 -0.1171  0.3762 -2.5694
48018SOL     OW50911  11.771   9.432  10.252 -0.2891  0.4145 -0.6607
48018SOL    HW150912  11.817   9.507  10.290 -0.4383  0.3565 -0.3603
48018SOL    HW250913  11.746   9.378  10.328 -2.4522  1.3588 -0.6268
48019SOL     OW50914   9.812   5.412  11.385  0.9265 -0.5896 -0.0055
48019SOL    HW150915   9.896   5.423  11.339  1.9090 -2.1990  1.2849
48019SOL    HW250916   9.833   5.433  11.476 -0.8069  1.8309 -0.0651
48020SOL     OW50917   1.130   9.836   8.553 -0.2564 -0.6143  0.1669
48020SOL    HW150918   1.211   9.874   8.518  0.6765 -0.3726  2.4590
48020SOL    HW250919   1.082   9.911   8.589 -1.5571 -0.7564 -1.1477
48021SOL     OW50920   4.755  12.020  12.363  0.5042 -0.1919 -0.0235
48021SOL    HW150921   4.804  12.102  12.369 -0.1027  0.4519 -2.4784
48021SOL    HW250922   4.819  11.951  12.380  0.6728  0.7183  3.8483
48022SOL     OW50923   8.269   8.769   5.446 -0.0121 -0.4984  0.0248
48022SOL    HW150924   8.336   8.783   5.512 -0.4263  0.5160  0.2431
48022SOL    HW250925   8.228   8.686   5.471 -1.4940  0.8012  2.2403
48023SOL     OW50926   0.378   9.091  11.071 -0.1932 -0.8148  0.1291
48023SOL    HW150927   0.436   9.016  11.070 -1.8017 -2.1122 -0.0526
48023SOL    HW250928   0.407   9.146  10.999  2.6099  0.0836  1.7895
48024SOL     OW50929   1.614   2.855  12.286  0.5598 -0.6002  0.4451
48024SOL    HW150930   1.662   2.839  12.367 -0.6843  2.9522  2.0974
48024SOL    HW250931   1.528   2.815  12.300  0.1655  0.4582  1.1635
48025SOL     OW50932  10.651  11.777   1.827 -0.3104 -0.4762 -0.1702
48025SOL    HW150933  10.746  11.783   1.840 -0.1525 -0.0293 -1.3514
48025SOL    HW250934  10.615  11.772   1.915  0.8799 -1.7796  0.2748
48026SOL     OW50935   7.603  12.085   4.063  0.0304 -0.0172  1.0151
48026SOL    HW150936   7.592  12.000   4.019 -1.1655  0.9016 -0.5851
48026SOL    HW250937   7.672  12.129   4.013  0.6965 -0.0563  1.8819
48027SOL     OW50938   0.360   6.240   6.438 -0.0955 -0.4245 -0.3235
48027SOL    HW150939   0.390   6.150   6.455 -0.8391 -0.1497  3.0609
48027SOL    HW250940   0.265   6.232   6.427 -0.0235 -0.1718 -1.1634
48028SOL     OW50941   8.515  12.079   6.178 -0.3519 -0.7608 -0.1378
48028SOL    HW150942   8.448  12.022   6.139  0.0110 -1.1207 -0.2348
48028SOL    HW250943   8.467  12.159   6.201 -0.5931 -0.5414 -1.2953
48029SOL     OW50944   6.237  11.476   1.683  0.0585  0.5348  0.0054
48029SOL    HW150945   6.248  11.558   1.635 -1.2507  0.6287 -0.1528
48029SOL    HW250946   6.320  11.466   1.731  1.0599  0.8671 -1.5859
48030SOL     OW50947   1.763   6.240   3.999  0.0445  0.0875 -0.1478
48030SOL    HW150948   1.801   6.322   3.969 -0.5583  0.2398 -0.5180
48030SOL    HW250949   1.817   6.172   3.958  0.7733  0.2904  0.4556
48031SOL     OW50950   1.377   2.261   6.329 -0.0560 -0.2320 -0.0386
48031SOL    HW150951   1.367   2.223   6.242 -0.0982  0.5262 -0.3765
48031SOL    HW250952   1.370   2.356   6.315  0.9696 -0.0350  0.6362
48032SOL     OW50953   3.675   5.938   2.508  0.1358  0.4306 -0.4726
48032SOL    HW150954   3.604   6.002   2.505 -0.3498 -0.0627  0.2068
48032SOL    HW250955   3.693   5.919   2.416 -0.2197  0.9896 -0.6622
48033SOL     OW50956   3.413   3.430   8.353 -0.6686  0.0019 -0.0675
48033SOL    HW150957   3.346   3.444   8.285 -2.2339  0.1044  1.4364
48033SOL    HW250958   3.405   3.507   8.410  0.2721 -0.3380  0.5381
48034SOL     OW50959   4.958   1.490   2.783  0.5897  0.2168 -0.0575
48034SOL    HW150960   4.869   1.503   2.749  0.7733 -1.1516 -1.1067
48034SOL    HW250961   4.944   1.463   2.874 -0.1463 -1.2917 -0.5893
48035SOL     OW50962   5.426   0.873  12.274 -0.1765 -0.4829  0.1974
48035SOL    HW150963   5.518   0.850  12.260  0.1220 -0.4559  1.8626
48035SOL    HW250964   5.430   0.960  12.315 -1.0006 -0.1233 -0.4509
48036SOL     OW50965   8.974   9.587   5.182 -0.1192  0.1187 -0.5173
48036SOL    HW150966   8.906   9.526   5.211 -3.2077  2.8847 -1.3370
48036SOL    HW250967   8.992   9.563   5.091 -3.4558  1.9474 -1.8108
48037SOL     OW50968   0.053   6.184   1.700  0.0739  0.2023 -0.2394
48037SOL    HW150969   0.100   6.262   1.671 -0.9893  0.4814 -1.3016
48037SOL    HW250970   0.073   6.119   1.632 -0.1931 -0.0111 -0.1144
48038SOL     OW50971   8.330   4.804   5.460 -0.7152 -0.6555 -0.6540
48038SOL    HW150972   8.287   4.816   5.375  0.2032 -1.5911 -1.2717
48038SOL    HW250973   8.319   4.888   5.504 -2.0348 -0.4621 -1.3105
48039SOL     OW50974   4.540   7.640   4.928 -0.2990 -0.2834  0.6222
48039SOL    HW150975   4.533   7.571   4.994  0.9392 -1.2122 -0.1717
48039SOL    HW250976   4.498   7.603   4.851  3.2107 -1.6197 -0.8621
48040SOL     OW50977   0.675   8.512   6.337  0.3585  0.5174 -0.4813
48040SOL    HW150978   0.677   8.597   6.380  1.3770  0.5442 -0.5692
48040SOL    HW250979   0.584   8.484   6.344  0.5218  0.4231  1.8650
48041SOL     OW50980   6.773   3.134   3.937  0.3349  0.0399  0.2571
48041SOL    HW150981   6.839   3.194   3.904 -0.6915  1.1601  0.1996
48041SOL    HW250982   6.819   3.081   4.003  2.2149 -1.7229 -2.2806
48042SOL     OW50983   6.762  11.748  11.088 -0.1395 -0.2599 -0.1886
48042SOL    HW150984   6.810  11.727  11.008 -1.4649 -1.0091 -0.8234
48042SOL    HW250985   6.671  11.730  11.066 -0.6275  0.3695  1.2262
48043SOL     OW50986  12.419   1.309   6.942  0.7616  0.1911  0.3103
48043SOL    HW150987  12.472   1.357   6.878  0.8343 -0.6546 -0.2739
48043SOL    HW250988  12.479   1.291   7.014  0.7430  0.9288  0.5288
48044SOL     OW50989   5.482   2.580   5.078 -0.4035 -0.4811 -0.1929
48044SOL    HW150990   5.572   2.588   5.047 -0.7376 -2.1761 -1.7816
48044SOL    HW250991   5.469   2.486   5.091 -1.2050 -0.0961  2.5007
48045SOL     OW50992   9.075   5.011  11.198  0.9710 -0.0342  0.1652
48045SOL    HW150993   9.160   4.968  11.191  1.3348  0.5424  0.8879
48045SOL    HW250994   9.089   5.098  11.159  0.5169 -0.1917 -0.3631
48046SOL     OW50995  12.310   7.687   8.530 -0.1436 -0.1776  0.0723
48046SOL    HW150996  12.312   7.618   8.597 -1.3219 -0.3022  0.0005
48046SOL    HW250997  12.274   7.763   8.576 -0.1891 -0.0247 -0.2144
48047SOL     OW50998   3.467   8.888  12.227 -0.1098 -0.2051  0.6195
48047SOL    HW150999   3.514   8.971  12.241 -0.8423  0.1564  0.9654
48047SOL    HW251000   3.519   8.842  12.161 -0.7280  1.3599 -1.0386
48048SOL     OW51001   3.190   3.857   2.544  0.5523  0.5400  0.0988
48048SOL    HW151002   3.109   3.811   2.521  1.3264  0.0527 -1.9063
48048SOL    HW251003   3.191   3.934   2.487  1.5135  0.5034  0.0496
48049SOL     OW51004  10.615  11.399   3.503 -0.2020  0.5886 -0.0353
48049SOL    HW151005  10.662  11.317   3.517 -1.2351 -0.0004  0.0225
48049SOL    HW251006  10.591  11.398   3.410  1.1006  1.5558 -0.4281
48050SOL     OW51007  10.166   5.113  10.075  0.0134  0.1165  0.1074
48050SOL    HW151008  10.110   5.187  10.098  0.1937 -0.6467  3.4821
48050SOL    HW251009  10.222   5.147  10.005 -0.4080  2.9182  1.0043
48051SOL     OW51010   0.726   2.239   0.993 -0.3318 -0.2209 -0.6468
48051SOL    HW151011   0.794   2.185   1.032  0.3580  0.3698 -1.0176
48051SOL    HW251012   0.696   2.190   0.917 -0.5956 -0.6547 -0.2721
48052SOL     OW51013   6.402  10.760   6.184 -0.1897 -0.1182  0.3774
48052SOL    HW151014   6.411  10.804   6.269  0.9431  0.7657 -0.1794
48052SOL    HW251015   6.445  10.818   6.122 -0.6381 -0.9555 -0.7560
48053SOL     OW51016   9.534   4.074   7.874 -0.1363  0.5934  0.3342
48053SOL    HW151017   9.613   4.127   7.884  0.5629 -0.4182  0.3010
48053SOL    HW251018   9.539   4.009   7.944 -1.4044  1.0588  0.8911
48054SOL     OW51019   7.035   4.252   2.352 -0.4398  0.3267  0.2427
48054SOL    HW151020   6.945   4.281   2.369 -0.2106  1.7149 -0.7719
48054SOL    HW251021   7.070   4.317   2.291  0.2219 -1.9126 -1.9105
48055SOL     OW51022   4.125   9.250   5.244  0.1439 -0.4629  0.5206
48055SOL    HW151023   4.181   9.226   5.318  0.5203  0.4724  0.5484
48055SOL    HW251024   4.180   9.308   5.190 -0.6389  0.0914  0.3094
48056SOL     OW51025   9.751   7.962   0.685  0.4422  0.5093  0.2465
48056SOL    HW151026   9.675   8.020   0.690  0.5671  0.6902  0.0837
48056SOL    HW251027   9.816   8.013   0.636  0.4222  0.0893 -0.2226
48057SOL     OW51028   2.488   1.291  10.833 -0.2261 -0.0243  0.4262
48057SOL    HW151029   2.551   1.295  10.761 -0.2531  4.0519  0.3809
48057SOL    HW251030   2.427   1.222  10.809  1.7741 -1.1947 -1.6368
48058SOL     OW51031   2.805   9.074   2.967  0.6678 -0.0948 -0.0871
48058SOL    HW151032   2.730   9.096   3.022  0.8510 -1.1562  0.6224
48058SOL    HW251033   2.777   8.995   2.919  0.6458  0.5993 -1.2668
48059SOL     OW51034  10.538   1.646  10.403  0.2681 -0.2950 -0.3761
48059SOL    HW151035  10.546   1.617  10.494  1.6485 -0.5306 -0.5560
48059SOL    HW251036  10.628   1.650  10.371 -0.2559 -1.7869 -2.2348
48060SOL     OW51037   9.602   3.967   1.530  0.6277  0.0389 -0.8750
48060SOL    HW151038   9.637   4.051   1.561 -1.0769  1.2394 -2.0317
48060SOL    HW251039   9.519   3.990   1.488  0.4151 -2.1665 -1.7729
48061SOL     OW51040   1.731   3.216   4.655 -0.2675  0.5357 -0.3008
48061SOL    HW151041   1.807   3.273   4.644  1.6463 -1.9383 -0.6668
48061SOL    HW251042   1.768   3.129   4.669 -3.0053 -0.3380  2.4856
48062SOL     OW51043   2.406  11.488   3.443 -0.5500  1.2062 -0.5064
48062SOL    HW151044   2.458  11.422   3.489 -1.7867  0.9641  0.6011
48062SOL    HW251045   2.449  11.498   3.358  0.2016 -0.3294 -0.3349
48063SOL     OW51046  10.356   7.310   2.197  0.7545 -0.4008 -0.1252
48063SOL    HW151047  10.394   7.223   2.209  2.7818  0.5249  0.6163
48063SOL    HW251048  10.376   7.356   2.279 -0.3597  0.7340 -0.4656
48064SOL     OW51049   3.955  12.295   7.857  0.2720 -0.1272 -0.1306
48064SOL    HW151050   3.918  12.214   7.894  0.5408  0.3408  1.2199
48064SOL    HW251051   4.050  12.284   7.866  0.3729 -0.2447 -1.2380
48065SOL     OW51052  10.275  12.426   6.268 -1.1658  0.7441  0.4163
48065SOL    HW151053  10.287  12.401   6.359  0.2564  0.9867  0.3141
48065SOL    HW251054  10.303  12.518   6.264 -2.0060  0.9878 -0.1022
48066SOL     OW51055  11.547   8.568   0.745 -0.1533 -0.0981 -0.5641
48066SOL    HW151056  11.499   8.532   0.820 -0.1289  1.7026  0.3760
48066SOL    HW251057  11.496   8.645   0.719  0.2299 -0.2947 -1.9584
48067SOL     OW51058  10.033  12.328   0.957 -0.1435  0.0838  0.0662
48067SOL    HW151059  10.109  12.273   0.980  0.3874  0.2676 -1.1995
48067SOL    HW251060   9.958  12.280   0.992  0.1622 -2.1973 -2.1102
48068SOL     OW51061   5.161   4.715   9.863  0.2677  0.5647  0.3385
48068SOL    HW151062   5.186   4.697   9.772 -0.6375  0.9939 -0.0156
48068SOL    HW251063   5.241   4.746   9.905  1.0883 -1.1724  0.1263
48069SOL     OW51064   8.307   5.235  11.824 -0.0126  0.2839 -0.3170
48069SOL    HW151065   8.221   5.238  11.866  0.9906 -1.1806  2.0087
48069SOL    HW251066   8.328   5.327  11.807 -2.2799  0.6562 -1.6275
48070SOL     OW51067   4.285   0.279   2.478  0.1661  0.1950  0.4212
48070SOL    HW151068   4.371   0.263   2.518 -0.1726 -1.9448  0.3966
48070SOL    HW251069   4.294   0.247   2.388 -0.5068  0.4144  0.2722
48071SOL     OW51070   8.111   5.327   2.873 -0.0651 -0.1539 -0.1133
48071SOL    HW151071   8.066   5.283   2.945 -1.9154 -1.5465 -1.9781
48071SOL    HW251072   8.098   5.268   2.798  1.9130  1.1348 -1.5562
48072SOL     OW51073   9.889   7.332  12.513 -0.1753  0.3071  0.3657
48072SOL    HW151074   9.815   7.322  12.453 -0.9690  3.0800  0.7096
48072SOL    HW251075   9.887   7.255  12.568 -3.9829  1.0525  1.5086
48073SOL     OW51076  12.214   7.725   4.335  0.1568  0.6787  0.2026
48073SOL    HW151077  12.281   7.732   4.267  2.3750  1.3484  2.2994
48073SOL    HW251078  12.197   7.816   4.362 -1.0557  0.4629  0.2408
48074SOL     OW51079   6.729  11.565   2.582  0.4846  0.4766  0.1140
48074SOL    HW151080   6.684  11.481   2.580  1.3310  0.0281 -0.7727
48074SOL    HW251081   6.734  11.587   2.675  1.1772 -0.9724  0.4529
48075SOL     OW51082   6.743  10.883   0.415 -0.5519 -0.6467 -0.0523
48075SOL    HW151083   6.771  10.793   0.431 -0.0344 -0.3932  0.4834
48075SOL    HW251084   6.815  10.922   0.366 -1.2226 -0.8122 -1.2178
48076SOL     OW51085   0.978  11.025   3.478  0.1619 -0.4581  0.5789
48076SOL    HW151086   1.020  11.039   3.393  0.6237 -1.1413  0.6901
48076SOL    HW251087   1.021  10.948   3.514  0.8805  0.5526  1.9995
48077SOL     OW51088   4.793   1.581   6.751 -0.0654  0.8380  0.2374
48077SOL    HW151089   4.880   1.578   6.711 -0.1039  2.7826 -0.1094
48077SOL    HW251090   4.754   1.497   6.729  2.1614 -0.6403  1.5074
48078SOL     OW51091   9.993   3.448   3.621 -0.1731 -0.3018 -0.2398
48078SOL    HW151092  10.083   3.470   3.645  0.1788  0.1400 -1.8769
48078SOL    HW251093   9.940   3.517   3.661  0.2581 -0.2767  0.2994
48079SOL     OW51094   8.858   4.810  12.227  0.3148  0.8247 -0.1276
48079SOL    HW151095   8.847   4.716  12.209  1.0339  0.7771 -0.3748
48079SOL    HW251096   8.790   4.853  12.176 -0.2014  0.4246  0.2069
48080SOL     OW51097   6.272   5.219   4.184  0.5689  0.6041 -0.2869
48080SOL    HW151098   6.202   5.284   4.193  1.6987  1.8015  0.1069
48080SOL    HW251099   6.307   5.235   4.096 -0.4189 -0.8200 -0.9776
48081SOL     OW51100   9.282   0.248   1.243  0.3173  0.0144  1.5184
48081SOL    HW151101   9.219   0.306   1.200 -2.0184 -2.1152  1.8188
48081SOL    HW251102   9.289   0.172   1.185  1.9291 -0.1915  1.9427
48082SOL     OW51103   8.499   2.107   5.290 -0.2729  0.4540 -0.3218
48082SOL    HW151104   8.550   2.047   5.235 -0.6750  1.6268 -2.0755
48082SOL    HW251105   8.431   2.052   5.328  0.6744 -0.6172 -0.1043
48083SOL     OW51106   9.562   3.198   3.840 -0.2389  0.1102  0.2834
48083SOL    HW151107   9.512   3.228   3.764 -0.9374 -1.3250  0.1405
48083SOL    HW251108   9.499   3.197   3.912  0.3181  1.0632  0.8107
48084SOL     OW51109   8.201   9.274   7.212  0.5232 -0.1413  0.3120
48084SOL    HW151110   8.165   9.195   7.252  0.7851  0.3456  1.5420
48084SOL    HW251111   8.202   9.338   7.283 -0.4829  1.2407 -0.8627
48085SOL     OW51112   1.912   0.653   7.477 -0.5296  0.6777 -0.1550
48085SOL    HW151113   1.989   0.693   7.436  0.9041 -1.0493  0.6851
48085SOL    HW251114   1.903   0.568   7.434 -1.1411  0.3069  0.6798
48086SOL     OW51115  10.027   0.823  11.889 -0.3925 -0.2130  0.2526
48086SOL    HW151116   9.979   0.741  11.886 -0.2786 -0.2662 -0.3074
48086SOL    HW251117  10.009   0.859  11.975 -1.8505  0.0137 -0.1208
48087SOL     OW51118   4.807   6.191   5.582 -0.5447 -0.0309  0.3956
48087SOL    HW151119   4.890   6.235   5.602  0.3979 -1.3781 -0.3184
48087SOL    HW251120   4.748   6.261   5.556  0.7950  0.8632 -0.3871
48088SOL     OW51121   5.484  12.140   5.533 -0.4949  0.6100 -0.1725
48088SOL    HW151122   5.539  12.077   5.579  1.0864  0.1977 -2.4837
48088SOL    HW251123   5.427  12.176   5.602  0.1502 -1.5864  1.6419
48089SOL     OW51124  10.533   1.513   4.892 -0.5261  0.4526  0.5546
48089SOL    HW151125  10.606   1.485   4.947  0.2630 -0.0541 -0.6820
48089SOL    HW251126  10.539   1.457   4.814 -1.6882  1.0280  0.0233
48090SOL     OW51127   9.031   6.459  12.500  0.1877 -0.1810 -0.1973
48090SOL    HW151128   9.116   6.437  12.538  0.2766  1.1544  0.4396
48090SOL    HW251129   9.051   6.515  12.425 -0.1279  1.3477  0.8027
48091SOL     OW51130  10.075   2.186   0.570 -0.2745 -1.0641  0.4959
48091SOL    HW151131  10.162   2.198   0.532 -0.7055 -0.6452 -0.3980
48091SOL    HW251132  10.083   2.218   0.660  0.8019 -2.1918  0.8376
48092SOL     OW51133   5.655   1.033   8.738  0.5445 -0.3805  0.0262
48092SOL    HW151134   5.587   1.097   8.716  0.0081 -0.5188  1.1773
48092SOL    HW251135   5.682   0.996   8.654 -0.1244  0.3737 -0.5310
48093SOL     OW51136   4.585   0.964   0.109  0.1420  0.1030  0.2268
48093SOL    HW151137   4.636   0.916   0.175  3.2234  0.9531 -1.3467
48093SOL    HW251138   4.606   1.056   0.124  2.5176  0.2530 -2.9382
48094SOL     OW51139   5.382   4.161   9.477  0.1370 -0.2116  0.2222
48094SOL    HW151140   5.445   4.159   9.404 -0.8627  0.6256 -0.6960
48094SOL    HW251141   5.411   4.091   9.536  0.0435 -2.0405 -1.7796
48095SOL     OW51142  10.069  12.219   2.268 -0.4249 -0.1010 -0.2979
48095SOL    HW151143  10.074  12.177   2.353 -0.0209  2.1871  0.8959
48095SOL    HW251144  10.141  12.180   2.217  0.2295 -0.4954  0.8974
48096SOL     OW51145   1.812   8.535   0.543  0.0268 -0.0536  0.8993
48096SOL    HW151146   1.871   8.554   0.470  0.1033  2.7048  1.5756
48096SOL    HW251147   1.727   8.519   0.502  0.1149  1.2729  0.1699
48097SOL     OW51148   6.921  10.724   4.574  0.3589  0.4250  0.0777
48097SOL    HW151149   6.891  10.799   4.625 -0.6658 -0.4117  0.7425
48097SOL    HW251150   6.964  10.667   4.639 -0.1106 -0.2110 -0.1639
48098SOL     OW51151   8.339   3.240  11.008  0.3817 -0.1578 -0.1670
48098SOL    HW151152   8.286   3.163  11.030  0.4631 -0.4706 -1.0206
48098SOL    HW251153   8.311   3.307  11.070 -1.2203 -0.2334 -0.7541
48099SOL     OW51154  10.934   4.743   7.744 -0.3616 -0.4475  0.1864
48099SOL    HW151155  10.991   4.718   7.671  0.2093  1.6923 -0.1686
48099SOL    HW251156  10.951   4.677   7.811  1.4681 -0.6987 -0.4689
48100SOL     OW51157   4.842   7.441   7.245  0.7395  0.8870  0.0706
48100SOL    HW151158   4.922   7.458   7.195  0.4884  2.3503  0.1330
48100SOL    HW251159   4.836   7.346   7.248 -0.2260  0.5975 -4.2906
48101SOL     OW51160   3.557   5.478   9.017 -0.5438  0.1569  0.3088
48101SOL    HW151161   3.588   5.479   8.926  0.2507 -0.8282  0.5560
48101SOL    HW251162   3.464   5.501   9.011 -0.2985  0.9585 -0.6627
48102SOL     OW51163   4.122  11.123  10.230  0.6731  0.4710 -0.6947
48102SOL    HW151164   4.045  11.067  10.219  0.7731  0.4355 -1.2590
48102SOL    HW251165   4.159  11.098  10.314  0.0785  0.4707 -0.4308
48103SOL     OW51166   1.001   2.823  11.519 -0.3710 -0.1091 -0.9213
48103SOL    HW151167   0.915   2.781  11.521 -0.2999 -0.2706  1.2905
48103SOL    HW251168   1.062   2.754  11.545 -0.0380  0.8050  0.9222
48104SOL     OW51169   5.543   5.138   6.627 -0.4602  0.1025 -0.4263
48104SOL    HW151170   5.511   5.049   6.644  0.5589 -0.1691  0.2121
48104SOL    HW251171   5.634   5.135   6.656 -0.6323  1.5802  0.3252
48105SOL     OW51172   7.258   5.473   3.058  0.0313 -0.1185 -0.0255
48105SOL    HW151173   7.331   5.479   2.997  1.5022 -0.7838  1.5966
48105SOL    HW251174   7.235   5.379   3.058  0.0905 -0.1328  0.4986
48106SOL     OW51175   9.820   6.273   8.905  0.2460 -0.0131  0.7457
48106SOL    HW151176   9.736   6.246   8.867 -0.0355  0.8040  0.7779
48106SOL    HW251177   9.860   6.191   8.935 -0.4387 -0.4339  0.5236
48107SOL     OW51178   4.028   3.847   9.291  0.2932 -0.1264  0.1927
48107SOL    HW151179   4.095   3.899   9.338  0.0882 -0.4557  0.8556
48107SOL    HW251180   4.042   3.869   9.199  1.5823 -0.4830  0.2757
48108SOL     OW51181   6.985  11.047   0.269 -0.1927 -0.1216  0.8348
48108SOL    HW151182   6.984  10.971   0.210 -1.7031 -0.3150  1.0704
48108SOL    HW251183   6.960  11.121   0.214  2.6093  0.5239  0.2826
48109SOL     OW51184   0.142   6.421   5.837  0.1538 -0.8544 -0.2835
48109SOL    HW151185   0.148   6.413   5.932 -1.4052 -1.5410 -0.2152
48109SOL    HW251186   0.136   6.330   5.806 -3.0078 -0.5988 -0.7117
48110SOL     OW51187   7.301   1.986   6.175  0.0456 -0.0314  0.4598
48110SOL    HW151188   7.245   1.926   6.225 -0.4351  0.9460  1.1316
48110SOL    HW251189   7.240   2.031   6.116  0.5944 -1.1015 -0.9572
48111SOL     OW51190   6.962   8.858  11.120  0.6412  0.4611 -0.1708
48111SOL    HW151191   7.006   8.885  11.201 -0.6033  2.2180 -0.0189
48111SOL    HW251192   7.026   8.876  11.051  1.1850  0.2986  0.2863
48112SOL     OW51193   7.292   0.114   1.766 -0.2014  0.1978 -0.4687
48112SOL    HW151194   7.346   0.186   1.798 -2.1069  0.7598  1.7557
48112SOL    HW251195   7.323   0.098   1.678  0.9393  3.1154 -0.7061
48113SOL     OW51196   4.891   3.292   4.555  0.0211 -0.1140  0.1799
48113SOL    HW151197   4.896   3.203   4.590  0.0023 -0.0868  0.2519
48113SOL    HW251198   4.892   3.280   4.460 -0.5942 -0.2290  0.1831
48114SOL     OW51199  10.042   8.541   2.749 -0.1991 -0.2907 -0.4332
48114SOL    HW151200  10.125   8.514   2.789 -1.4042 -0.9109  1.8590
48114SOL    HW251201   9.982   8.468   2.768 -2.1077  1.5402  1.0388
48115SOL     OW51202   4.745   0.876   0.354 -0.3880  0.0432  0.4681
48115SOL    HW151203   4.839   0.867   0.371 -0.3697  1.0215  0.9674
48115SOL    HW251204   4.704   0.805   0.403  0.0607 -0.1580  0.5522
48116SOL     OW51205   8.705   3.087   0.452  0.2539  0.0792  0.1260
48116SOL    HW151206   8.661   3.171   0.440  0.1332  0.1294  0.8600
48116SOL    HW251207   8.784   3.094   0.399 -0.7597 -0.1371 -1.4855
48117SOL     OW51208   9.698   0.068   1.316  0.0061 -0.8279  0.1226
48117SOL    HW151209   9.759   0.069   1.390  0.9531 -1.2895 -0.6249
48117SOL    HW251210   9.708  -0.020   1.278 -0.1136 -0.4388 -0.8337
48118SOL     OW51211   1.520   6.890   0.236  0.5118  0.4137 -0.2073
48118SOL    HW151212   1.469   6.810   0.223  1.0613 -0.1890  1.1187
48118SOL    HW251213   1.494   6.947   0.165  1.8574 -1.8148 -2.6533
48119SOL     OW51214   2.545  10.516  11.171  0.2067 -0.5083 -0.7883
48119SOL    HW151215   2.576  10.428  11.193  1.2510 -0.2495 -1.1631
48119SOL    HW251216   2.463  10.525  11.220  1.4049 -0.7114  1.3993
48120SOL     OW51217   3.372   2.050   6.516 -0.2249 -0.2532 -0.3613
48120SOL    HW151218   3.463   2.025   6.526  0.1702  1.5560  1.0330
48120SOL    HW251219   3.369   2.098   6.433 -0.1735 -1.2959 -0.9835
48121SOL     OW51220  11.228   1.073  12.120  0.0159 -0.1980 -0.2126
48121SOL    HW151221  11.232   1.079  12.216  2.0096 -0.4340 -0.2461
48121SOL    HW251222  11.280   1.146  12.089 -0.3012 -0.3488 -1.1218
48122SOL     OW51223   1.331   2.480   4.069  0.1694 -1.0614  0.2865
48122SOL    HW151224   1.366   2.448   4.152  0.3260 -0.6828  0.3657
48122SOL    HW251225   1.272   2.410   4.040 -1.0103 -0.5699  1.4126
48123SOL     OW51226   0.643   2.859   8.314 -0.5027 -0.2795  0.6206
48123SOL    HW151227   0.563   2.893   8.355 -0.4154  0.2103  0.3796
48123SOL    HW251228   0.612   2.788   8.257 -0.7880  0.0638  0.3486
48124SOL     OW51229   4.282   4.334   8.273  0.4666 -0.4027  0.3072
48124SOL    HW151230   4.236   4.407   8.314 -2.4501 -1.7141 -0.3435
48124SOL    HW251231   4.307   4.277   8.345 -0.4386 -0.4424  0.6043
48125SOL     OW51232   0.548   1.240   2.707 -0.3160  0.4251  0.3728
48125SOL    HW151233   0.520   1.294   2.632 -1.1415 -0.2899  0.1455
48125SOL    HW251234   0.553   1.152   2.671 -2.2822 -0.2118  1.4932
48126SOL     OW51235   0.611   0.866   0.971 -0.0212 -0.7324  0.0019
48126SOL    HW151236   0.649   0.896   0.888 -0.6637 -2.5244 -0.9908
48126SOL    HW251237   0.517   0.882   0.962 -0.1346 -1.2548  0.2619
48127SOL     OW51238   2.666   5.954  11.731 -0.0402 -0.5448  0.3230
48127SOL    HW151239   2.601   5.886  11.715 -0.4365 -0.4289  1.4338
48127SOL    HW251240   2.626   6.012  11.795  0.6473  0.2520  0.0462
48128SOL     OW51241   0.826   4.857   3.110  0.0277  0.0368 -0.4916
48128SOL    HW151242   0.813   4.774   3.064 -0.8456  0.6700 -1.4407
48128SOL    HW251243   0.898   4.900   3.062 -0.1568  0.2295 -0.5986
48129SOL     OW51244   8.676   6.414   6.309 -0.0418  0.9547 -0.0090
48129SOL    HW151245   8.595   6.449   6.272 -0.7876 -1.2496 -0.6487
48129SOL    HW251246   8.674   6.321   6.286  3.2229  1.0023 -1.0685
48130SOL     OW51247   3.631   7.792   1.336 -0.5380 -0.4302 -0.0789
48130SOL    HW151248   3.544   7.805   1.299 -0.3155  2.3859  0.2090
48130SOL    HW251249   3.686   7.854   1.290  0.9304 -0.8089  1.0927
48131SOL     OW51250   8.586   1.698  10.934  0.8552  0.0123 -0.0067
48131SOL    HW151251   8.658   1.726  10.878  0.8838 -1.3840 -0.6913
48131SOL    HW251252   8.624   1.633  10.993  0.4670  0.3165  0.5991
48132SOL     OW51253   9.779   2.456   0.706 -0.5940 -0.1275 -0.1191
48132SOL    HW151254   9.695   2.502   0.704  0.3231  1.5988 -1.6323
48132SOL    HW251255   9.799   2.438   0.614  1.6081  1.3802 -0.0253
48133SOL     OW51256   8.262   5.240   5.786  0.2276  0.2259 -0.5537
48133SOL    HW151257   8.342   5.217   5.834 -0.6560  0.0969  0.9236
48133SOL    HW251258   8.214   5.157   5.779 -0.5671  0.6114  0.1451
48134SOL     OW51259   7.233   2.115   9.992 -0.0891  0.2351  0.2057
48134SOL    HW151260   7.181   2.048   9.949 -0.0179  0.7892 -0.7831
48134SOL    HW251261   7.262   2.075  10.074  0.7754 -1.3135 -0.7957
48135SOL     OW51262   8.007  10.151   9.384 -0.0401 -0.8010 -0.0291
48135SOL    HW151263   8.088  10.161   9.434  0.5671 -0.7343 -0.9991
48135SOL    HW251264   8.022  10.201   9.304 -0.6375 -1.6551 -0.6923
48136SOL     OW51265   2.476   1.982   6.086 -0.4289  0.1809 -0.1720
48136SOL    HW151266   2.512   2.039   6.155 -0.8567  0.9521 -0.5738
48136SOL    HW251267   2.394   1.948   6.123 -0.0781 -0.3397  0.1422
48137SOL     OW51268   5.711  10.573   7.524 -0.8531  0.5131 -0.3419
48137SOL    HW151269   5.785  10.543   7.471 -1.2109  0.8712 -1.0441
48137SOL    HW251270   5.648  10.501   7.522  0.0634 -0.4388  1.4936
48138SOL     OW51271   8.173  10.662  10.225 -0.0131 -0.1760  0.3596
48138SOL    HW151272   8.240  10.708  10.276  2.3031 -0.9912 -1.7320
48138SOL    HW251273   8.099  10.723  10.222  1.2777  1.5226  1.3647
48139SOL     OW51274   4.676   3.161   9.910  0.1785  0.4894  0.3997
48139SOL    HW151275   4.725   3.237   9.877  1.2817  1.3581  3.6513
48139SOL    HW251276   4.622   3.196   9.980 -2.6347 -1.0955 -0.8106
48140SOL     OW51277  11.643   0.386  11.309 -1.0850  0.3437 -0.1266
48140SOL    HW151278  11.623   0.461  11.252 -0.3898 -0.0426 -0.8973
48140SOL    HW251279  11.626   0.310  11.254 -0.0645 -0.0313  0.0620
48141SOL     OW51280   7.178   1.980  10.684  0.5196  0.5351  0.5001
48141SOL    HW151281   7.199   2.058  10.634 -0.0069 -0.7779 -1.9195
48141SOL    HW251282   7.092   1.999  10.722  0.1846  0.9774 -0.4476
48142SOL     OW51283   8.312  10.097  12.551 -0.2007 -0.0697 -0.4890
48142SOL    HW151284   8.337  10.095  12.459 -2.0198  0.6250 -1.0414
48142SOL    HW251285   8.345  10.180  12.583  2.7605 -1.4053  0.2682
48143SOL     OW51286   3.876  10.416   8.573  0.7515  0.0482  0.2842
48143SOL    HW151287   3.798  10.386   8.526  2.2966 -0.5516 -2.0752
48143SOL    HW251288   3.855  10.506   8.598 -1.5674 -0.8321  1.9009
48144SOL     OW51289   7.404   1.142   9.600  0.5327  0.1685  0.5561
48144SOL    HW151290   7.398   1.061   9.650 -0.8317 -0.4850 -0.6115
48144SOL    HW251291   7.345   1.130   9.526  1.3052  1.7250 -0.3697
48145SOL     OW51292   8.705   3.390   2.084 -0.1603 -0.2989  0.0018
48145SOL    HW151293   8.645   3.431   2.022 -0.1592 -0.2585  0.0267
48145SOL    HW251294   8.789   3.389   2.039 -0.5415 -1.9623 -0.7353
48146SOL     OW51295   5.406   9.305   0.271  0.0840  0.3909  0.1167
48146SOL    HW151296   5.411   9.214   0.244  0.7364 -0.1900  2.0560
48146SOL    HW251297   5.316   9.331   0.254 -0.0167 -0.4945 -0.7597
48147SOL     OW51298  10.452  10.608   2.309  0.0435 -0.6765  0.2353
48147SOL    HW151299  10.369  10.560   2.316 -0.1143 -0.8792 -2.1957
48147SOL    HW251300  10.489  10.605   2.397 -0.4965 -4.3218  0.5084
48148SOL     OW51301  10.072  12.529   9.091 -0.5515 -0.1500 -0.1378
48148SOL    HW151302  10.068  12.456   9.152 -0.9919  0.6446  0.8045
48148SOL    HW251303   9.986  12.529   9.049 -0.5694 -0.1459 -0.1012
48149SOL     OW51304   8.625  12.379   3.363 -0.1680  0.1508  1.0047
48149SOL    HW151305   8.704  12.331   3.337 -0.5673 -1.3133  2.3588
48149SOL    HW251306   8.626  12.379   3.458 -1.8166  0.0387  1.0613
48150SOL     OW51307   4.711   2.194   4.150  0.1328 -0.0391  0.0431
48150SOL    HW151308   4.640   2.131   4.162 -0.8391  0.8803 -0.7203
48150SOL    HW251309   4.791   2.141   4.155 -0.6638 -1.4086 -1.0123
48151SOL     OW51310   2.386   7.914   4.685  0.3364  0.1805  0.8773
48151SOL    HW151311   2.347   7.852   4.623  1.5974 -1.9205  2.0655
48151SOL    HW251312   2.313   7.942   4.740 -0.1273 -1.1279  0.9788
48152SOL     OW51313   2.067  11.834   5.671  0.2315 -0.7177 -0.0983
48152SOL    HW151314   2.081  11.895   5.600 -0.3089  1.1692  1.3287
48152SOL    HW251315   2.127  11.762   5.653  1.8589  0.8197 -1.1792
48153SOL     OW51316   1.154   5.517   5.666  0.2126  0.2347 -0.7366
48153SOL    HW151317   1.192   5.461   5.735 -1.7131 -1.0045 -0.6019
48153SOL    HW251318   1.227   5.533   5.606  1.2096 -1.1461  0.0278
48154SOL     OW51319   0.178   4.756   4.498 -0.3226  0.1869  0.2596
48154SOL    HW151320   0.174   4.845   4.533  0.0870  1.3780 -2.4346
48154SOL    HW251321   0.096   4.746   4.450  0.2648 -0.3021 -0.6652
48155SOL     OW51322  11.361   1.369   0.571 -0.5565 -0.2457 -0.1706
48155SOL    HW151323  11.281   1.390   0.523 -0.8560 -0.8967  0.0360
48155SOL    HW251324  11.330   1.341   0.657  0.0004  1.5758  0.6757
48156SOL     OW51325   4.573   5.436   1.568  0.4771  0.3212 -0.4381
48156SOL    HW151326   4.511   5.507   1.555 -0.3043 -0.5364 -1.5948
48156SOL    HW251327   4.565   5.382   1.489  2.2021 -0.1891 -0.3078
48157SOL     OW51328   4.903   3.034   0.194  0.3772  0.2596 -0.3063
48157SOL    HW151329   4.950   3.095   0.251  1.0402  0.0809 -0.6430
48157SOL    HW251330   4.958   2.956   0.192 -1.2357 -0.9948  1.4031
48158SOL     OW51331  11.194  10.688   9.174  0.2245 -0.2949 -0.9380
48158SOL    HW151332  11.159  10.729   9.253  0.6450  0.4065 -1.1116
48158SOL    HW251333  11.226  10.603   9.205 -2.0440 -1.1995 -0.8667
48159SOL     OW51334   4.717   3.758   6.655 -0.1424  0.6179  0.5030
48159SOL    HW151335   4.704   3.833   6.713  2.7688  3.1965 -1.8012
48159SOL    HW251336   4.780   3.789   6.590 -0.0931 -3.3532 -1.6556
48160SOL     OW51337   5.523   4.238   0.856  0.2202  0.2698 -0.3267
48160SOL    HW151338   5.450   4.270   0.804 -0.4955 -0.9665 -0.1245
48160SOL    HW251339   5.586   4.311   0.857 -0.6121  1.0281 -1.2344
48161SOL     OW51340   1.024   2.102   8.988 -0.1769 -0.5791 -0.3229
48161SOL    HW151341   1.042   2.081   9.080  1.4704  0.1105 -0.4563
48161SOL    HW251342   0.982   2.188   8.991  2.8651  1.0398 -0.3122
48162SOL     OW51343   1.740   3.076   6.193  0.0409  0.5135 -0.3814
48162SOL    HW151344   1.763   3.049   6.104  0.8703 -0.1624  0.0302
48162SOL    HW251345   1.791   3.157   6.206  1.6457 -0.5415  0.2324
48163SOL     OW51346   8.683   7.350   1.376 -0.3970  0.5994 -0.1640
48163SOL    HW151347   8.611   7.411   1.358 -1.0615 -0.0492  0.2699
48163SOL    HW251348   8.718   7.379   1.460  0.3390  1.3617 -0.7092
48164SOL     OW51349   5.505   9.517   4.993  0.6363  0.0346  0.1074
48164SOL    HW151350   5.562   9.518   5.070  1.1099 -0.6693 -0.2240
48164SOL    HW251351   5.505   9.607   4.961 -0.2466  0.5296  1.4138
48165SOL     OW51352   8.384   3.524   2.741  0.1404  0.6551  0.0127
48165SOL    HW151353   8.375   3.430   2.753  0.4245  0.8633  2.1675
48165SOL    HW251354   8.296   3.554   2.721 -0.2780  0.1317  1.0121
48166SOL     OW51355   2.085   5.238   8.450 -0.3814 -0.6080 -0.4245
48166SOL    HW151356   2.046   5.241   8.362 -0.2215  1.5260 -0.4550
48166SOL    HW251357   2.113   5.327   8.468  0.2710 -1.1482  1.5229
48167SOL     OW51358   5.992  10.467   8.312 -0.0287  0.1034 -0.2342
48167SOL    HW151359   5.928  10.490   8.245 -0.4399  1.7164  0.6618
48167SOL    HW251360   6.008  10.548   8.359 -0.7888 -1.1711  2.4811
48168SOL     OW51361   6.810   1.100   9.814  0.0298 -0.1710  0.1435
48168SOL    HW151362   6.863   1.164   9.766  0.1369  0.5347  1.1875
48168SOL    HW251363   6.721   1.136   9.812  0.3439  0.8524  2.0571
48169SOL     OW51364   5.570   5.752   0.008 -0.5433 -0.3267 -0.4246
48169SOL    HW151365   5.564   5.691  -0.066  0.0627 -0.3695 -0.4451
48169SOL    HW251366   5.517   5.827  -0.019 -1.8590 -1.1144 -0.1106
48170SOL     OW51367   0.653   3.315   2.387  0.7850 -0.4758 -0.3519
48170SOL    HW151368   0.701   3.292   2.308 -0.3854 -0.6244 -1.0545
48170SOL    HW251369   0.663   3.240   2.445  0.8565 -0.7806 -0.7572
48171SOL     OW51370   3.291   7.675   9.948 -0.0826 -0.4481 -0.2167
48171SOL    HW151371   3.342   7.634   9.877  0.8097 -2.1979  1.3399
48171SOL    HW251372   3.317   7.627  10.027 -0.6986  1.7141  1.4021
48172SOL     OW51373   2.266  11.202   1.990 -0.3077  0.4785 -0.8403
48172SOL    HW151374   2.318  11.184   2.069  1.4272 -0.1040 -2.0483
48172SOL    HW251375   2.195  11.138   1.993  0.1103  0.0309 -0.0686
48173SOL     OW51376   5.464   8.119   8.382  0.1059 -0.3569 -0.3088
48173SOL    HW151377   5.369   8.110   8.371 -0.4074  0.5254  2.4439
48173SOL    HW251378   5.502   8.052   8.325 -2.1227 -0.2965 -1.9794
48174SOL     OW51379  10.512   3.799  11.821 -0.7614 -0.3847  0.0390
48174SOL    HW151380  10.494   3.875  11.875  0.6375  0.1176 -0.1482
48174SOL    HW251381  10.494   3.827  11.731  1.3559  0.3430 -0.2277
48175SOL     OW51382   8.004  12.257  10.411 -0.0676  0.5828  0.0784
48175SOL    HW151383   8.023  12.180  10.358  1.2542  0.0444  1.2846
48175SOL    HW251384   7.915  12.243  10.444 -0.0594 -0.1172 -0.1925
48176SOL     OW51385   0.079   0.964   9.622  0.5439 -0.1370 -0.1838
48176SOL    HW151386   0.102   1.056   9.623  0.0248 -0.0005 -0.3398
48176SOL    HW251387   0.135   0.924   9.688  0.2020  0.4287  0.4567
48177SOL     OW51388   2.672   0.577   6.082  0.1320  0.3470 -0.8633
48177SOL    HW151389   2.721   0.559   6.162  1.0229  2.2897 -0.9292
48177SOL    HW251390   2.584   0.599   6.112  0.6830  1.9015 -0.3171
48178SOL     OW51391   1.315   5.783   6.924  0.3021  0.2347 -0.0472
48178SOL    HW151392   1.406   5.808   6.938 -0.2656  1.0804  2.9714
48178SOL    HW251393   1.278   5.855   6.872  0.8874  0.9157  0.4654
48179SOL     OW51394  12.220  10.095   4.225  0.3365  0.0356  0.1377
48179SOL    HW151395  12.224  10.167   4.163  2.0519 -0.4702 -0.3807
48179SOL    HW251396  12.128  10.093   4.253 -0.3675  0.6050 -1.9646
48180SOL     OW51397   6.982   9.542   0.419  0.1334  0.0363 -0.5769
48180SOL    HW151398   7.055   9.517   0.364 -1.4019 -0.4729 -2.4929
48180SOL    HW251399   6.946   9.459   0.451  0.4858  0.2913  0.5529
48181SOL     OW51400   2.218   0.894   6.939 -0.3221  0.1220 -0.2974
48181SOL    HW151401   2.308   0.875   6.913 -0.5736 -2.7697  0.6557
48181SOL    HW251402   2.165   0.853   6.870 -0.9165  0.2455  0.0841
48182SOL     OW51403   7.362  11.256  11.716 -0.4403 -0.0380 -0.2827
48182SOL    HW151404   7.416  11.180  11.736  0.2692  0.1847 -1.2878
48182SOL    HW251405   7.375  11.272  11.622 -1.2712  0.7830 -0.2828
48183SOL     OW51406  10.997   1.705   5.228  0.3682 -0.0904  0.2344
48183SOL    HW151407  10.973   1.780   5.283 -1.3478  0.4353 -1.1581
48183SOL    HW251408  11.067   1.662   5.277  1.8669  2.7383  0.8262
48184SOL     OW51409   6.039   7.296   3.733  0.0801  0.5079  0.0644
48184SOL    HW151410   6.015   7.389   3.737 -3.0899  0.0295 -3.3833
48184SOL    HW251411   5.982   7.253   3.796  0.2545  0.6682  0.3338
48185SOL     OW51412  10.467   4.832   7.532  0.0183  1.1723  0.3821
48185SOL    HW151413  10.430   4.827   7.444 -0.8342 -0.3291  0.7850
48185SOL    HW251414  10.538   4.767   7.533 -0.8358  0.1991  1.1442
48186SOL     OW51415   4.061   9.642  10.025 -0.3778  0.1929 -0.2685
48186SOL    HW151416   4.031   9.718  10.076  1.4440  1.3500 -0.8310
48186SOL    HW251417   4.113   9.591  10.086  0.1921  0.5577 -0.4398
48187SOL     OW51418  12.430   9.869  10.704 -0.6003 -0.4915  0.0241
48187SOL    HW151419  12.417   9.779  10.674  1.8880  0.1018 -3.5103
48187SOL    HW251420  12.350   9.915  10.677 -0.7047 -1.1237 -0.7756
48188SOL     OW51421  12.346   0.681   1.357 -0.0053 -0.1652 -0.5598
48188SOL    HW151422  12.407   0.655   1.288 -1.2832  0.7264 -2.1022
48188SOL    HW251423  12.401   0.725   1.422  1.2699 -1.2643 -0.8382
48189SOL     OW51424   9.835   9.174  11.603  0.2789 -0.4445 -0.2699
48189SOL    HW151425   9.915   9.122  11.606 -0.7087 -2.0150  1.2403
48189SOL    HW251426   9.802   9.162  11.514  0.9691 -1.0056 -0.4617
48190SOL     OW51427   7.998  12.032  10.285  0.1598  0.0510 -0.3309
48190SOL    HW151428   7.963  11.949  10.318  1.7004 -0.3356  0.3974
48190SOL    HW251429   8.014  12.015  10.192 -1.2181  0.1376 -0.6097
48191SOL     OW51430   7.369   1.688  11.052  0.2726 -0.0062 -0.1755
48191SOL    HW151431   7.401   1.601  11.027  0.5793 -0.3623  1.3689
48191SOL    HW251432   7.281   1.693  11.013 -0.1857 -1.4521  0.5937
48192SOL     OW51433  11.281   4.338   3.913  0.1589 -0.1825 -0.0177
48192SOL    HW151434  11.373   4.352   3.892  0.2764 -0.6877  0.1506
48192SOL    HW251435  11.237   4.417   3.881  0.7294  0.3510  0.4772
48193SOL     OW51436   2.197   6.870   7.812 -0.1946 -0.4919 -0.0457
48193SOL    HW151437   2.237   6.954   7.789 -1.1881  0.2389  0.7827
48193SOL    HW251438   2.271   6.815   7.840  0.2942  0.7875  1.3380
48194SOL     OW51439  10.007   0.940  10.687  0.0764 -0.2752  0.5898
48194SOL    HW151440  10.033   0.882  10.616 -0.7914  0.9909 -0.8231
48194SOL    HW251441  10.011   0.885  10.765  2.5522 -1.3028 -0.1679
48195SOL     OW51442   2.682   5.189  10.784 -0.1629  0.0191  0.0556
48195SOL    HW151443   2.604   5.156  10.740 -0.5440  1.7059 -0.6224
48195SOL    HW251444   2.655   5.199  10.876 -1.3434  2.1593 -0.4582
48196SOL     OW51445   2.708   3.403   3.723 -0.9795 -0.2062  0.0318
48196SOL    HW151446   2.756   3.363   3.651 -0.7525 -0.3713  0.2691
48196SOL    HW251447   2.637   3.451   3.682  0.6975  1.9735 -0.5163
48197SOL     OW51448  12.141   5.546   1.639 -0.3626 -0.0559 -0.0225
48197SOL    HW151449  12.098   5.559   1.555  1.0823 -1.7326 -1.1123
48197SOL    HW251450  12.215   5.607   1.638  0.5923 -1.1757 -0.7312
48198SOL     OW51451   3.979  10.095   5.901 -0.7516  0.4137 -0.3214
48198SOL    HW151452   3.957  10.049   5.820 -0.1748  2.1490 -1.5342
48198SOL    HW251453   3.932  10.178   5.894  1.0008  1.4926  0.0765
48199SOL     OW51454   6.217  10.160   6.959 -0.1644 -0.3854 -0.0373
48199SOL    HW151455   6.170  10.182   6.879  1.3425 -0.0357 -0.8682
48199SOL    HW251456   6.246  10.244   6.994  0.0591 -0.6105  0.3326
48200SOL     OW51457  12.175  11.284   8.966 -0.4305  0.6770  0.3333
48200SOL    HW151458  12.114  11.354   8.989 -2.3200  0.0961 -2.4127
48200SOL    HW251459  12.191  11.296   8.872 -0.5813 -2.3493 -0.1783
48201SOL     OW51460  10.627   5.544  10.936 -0.0879  0.1304  0.2652
48201SOL    HW151461  10.574   5.545  11.015  0.9404 -1.7884  1.0570
48201SOL    HW251462  10.634   5.452  10.913 -0.3440  0.6470 -2.0907
48202SOL     OW51463   9.496   5.079   1.953  0.8251  0.4613 -0.0163
48202SOL    HW151464   9.496   5.061   1.859  1.5275 -1.1166  0.2583
48202SOL    HW251465   9.579   5.124   1.969 -0.5227  3.3850 -0.5497
48203SOL     OW51466   9.305   2.504  11.240  0.0602 -0.0914  0.0035
48203SOL    HW151467   9.315   2.588  11.286  2.3210 -1.1950  1.7176
48203SOL    HW251468   9.232   2.461  11.286  0.6221 -0.1267  0.8872
48204SOL     OW51469   7.870   3.742   5.173  0.3692  0.1917 -0.3726
48204SOL    HW151470   7.776   3.722   5.164 -0.2118  1.8858  1.2446
48204SOL    HW251471   7.886   3.809   5.107  0.3603  0.1322 -0.4354
48205SOL     OW51472   6.827   7.970   7.609  0.2420  0.0631  0.2862
48205SOL    HW151473   6.875   7.904   7.558  0.2238 -0.0682  0.4382
48205SOL    HW251474   6.818   8.044   7.549 -1.1018 -0.6431 -0.4639
48206SOL     OW51475   0.714   7.247   2.188 -0.1225  0.0514  0.0488
48206SOL    HW151476   0.649   7.318   2.183 -2.6643 -2.0218  1.2567
48206SOL    HW251477   0.709   7.217   2.278  2.0350 -0.7114 -0.0401
48207SOL     OW51478   3.249  10.777  10.670  0.2398 -0.5174  0.3483
48207SOL    HW151479   3.305  10.842  10.626 -1.5360 -0.8179 -2.6843
48207SOL    HW251480   3.197  10.828  10.732 -0.1267  0.7808 -0.9634
48208SOL     OW51481   4.154   1.057  12.574  0.3289  0.0454 -0.2194
48208SOL    HW151482   4.076   1.026  12.527  1.0291 -2.9357  0.3618
48208SOL    HW251483   4.214   1.084  12.505 -0.8544  1.6504 -0.6997
48209SOL     OW51484   2.483  11.964   8.476 -0.1772  0.4253  0.7131
48209SOL    HW151485   2.458  12.023   8.405 -2.1660 -3.4927 -2.2759
48209SOL    HW251486   2.572  11.936   8.454 -0.4219 -0.0177  0.2360
48210SOL     OW51487   7.985   7.866   3.652  0.5839 -0.0738  0.2170
48210SOL    HW151488   7.937   7.921   3.590  0.3025  1.2128  1.5176
48210SOL    HW251489   8.009   7.926   3.723  0.2262 -1.6535  1.7290
48211SOL     OW51490  12.080   3.249   8.892  0.6092 -0.6692 -0.3029
48211SOL    HW151491  12.109   3.314   8.956  0.7363 -0.6980 -0.3300
48211SOL    HW251492  12.107   3.285   8.807 -0.3929 -0.1837 -0.4267
48212SOL     OW51493   6.101   2.366   3.285 -0.6155 -0.2964  0.4302
48212SOL    HW151494   6.049   2.289   3.308 -1.6518 -0.2998 -1.6909
48212SOL    HW251495   6.105   2.365   3.189 -0.3000  2.0468  0.3549
48213SOL     OW51496   3.735   1.924   5.494  0.5881  0.3573  0.4475
48213SOL    HW151497   3.784   1.927   5.576  0.0801 -2.2795  0.9406
48213SOL    HW251498   3.720   2.016   5.471  0.9465  1.1754  3.1812
48214SOL     OW51499   5.780   3.149  10.588  0.3783  0.1931 -0.2922
48214SOL    HW151500   5.808   3.067  10.546  0.1183  0.9710 -2.0839
48214SOL    HW251501   5.727   3.193  10.521 -1.8796  0.5537  1.6031
48215SOL     OW51502   7.390   8.880   1.851  0.1420 -0.3275 -0.0201
48215SOL    HW151503   7.430   8.938   1.916 -1.0722  1.7667 -1.0288
48215SOL    HW251504   7.463   8.851   1.797  0.6582  1.5592 -0.4223
48216SOL     OW51505   0.041   2.202   4.606  0.3644 -0.1347 -0.5396
48216SOL    HW151506  -0.008   2.129   4.569 -0.7670 -0.1621  0.9147
48216SOL    HW251507   0.123   2.203   4.557 -0.6256 -0.7724 -2.3091
48217SOL     OW51508   4.574   6.997   4.720  0.3138 -0.5448  0.0481
48217SOL    HW151509   4.635   6.995   4.647  0.3960  0.2625  0.0945
48217SOL    HW251510   4.624   7.033   4.793 -0.1060 -0.2477  0.1907
48218SOL     OW51511   3.586   1.093   9.578  0.6077  0.2103  0.0592
48218SOL    HW151512   3.501   1.110   9.537  1.5081  2.7491 -0.9737
48218SOL    HW251513   3.630   1.033   9.518 -0.3784 -1.0335  0.5443
48219SOL     OW51514   9.951   1.585  11.967 -0.2439 -0.0285 -0.2870
48219SOL    HW151515   9.958   1.680  11.969 -1.8941  0.2183 -2.4834
48219SOL    HW251516  10.025   1.557  11.912 -1.0108  0.1941 -1.4454
48220SOL     OW51517   9.913   9.625   4.734 -0.5001 -0.3004  0.2392
48220SOL    HW151518  10.007   9.633   4.749 -0.2886 -0.3425 -0.9393
48220SOL    HW251519   9.906   9.594   4.643 -1.6994  1.5758 -0.3588
48221SOL     OW51520  12.135   8.472   2.358 -0.7947  0.3487  0.2266
48221SOL    HW151521  12.045   8.496   2.341 -0.7306 -0.6664 -1.8184
48221SOL    HW251522  12.180   8.481   2.274  0.4658 -1.3803  0.6328
48222SOL     OW51523  11.557   5.359   1.926 -0.5684  0.5469  0.4132
48222SOL    HW151524  11.622   5.429   1.929 -0.6972  0.6546  1.1198
48222SOL    HW251525  11.477   5.401   1.958 -0.6432  0.0761  0.8533
48223SOL     OW51526   8.087  11.493   4.571 -0.0824 -0.4524 -0.1586
48223SOL    HW151527   8.170  11.540   4.562 -0.2781  0.2900  1.4830
48223SOL    HW251528   8.027  11.539   4.512  0.4195 -0.3638 -0.6043
48224SOL     OW51529   6.718  10.471   6.233 -0.9149 -0.7345  0.3822
48224SOL    HW151530   6.694  10.546   6.287 -2.4708  0.0802 -1.3447
48224SOL    HW251531   6.810  10.454   6.256 -0.3594  1.9656  0.5541
48225SOL     OW51532   5.091   8.424  11.566  0.3981 -0.1086 -0.1498
48225SOL    HW151533   5.093   8.359  11.636 -0.8416 -1.6658 -1.4840
48225SOL    HW251534   5.117   8.376  11.488  0.1903  1.2019 -1.0581
48226SOL     OW51535  10.201   9.897   7.510 -0.2330  0.2409 -0.4152
48226SOL    HW151536  10.150   9.828   7.468  1.0997  0.2039 -2.0561
48226SOL    HW251537  10.262   9.850   7.566  0.3297  0.1016 -1.1383
48227SOL     OW51538  11.443   5.783   6.052 -0.2639 -0.0095 -0.4236
48227SOL    HW151539  11.482   5.869   6.042 -0.7146  0.5626  1.9072
48227SOL    HW251540  11.388   5.791   6.131  1.3078 -2.9496  1.1550
48228SOL     OW51541   7.906   1.924   1.629  0.6400 -0.0616 -0.3809
48228SOL    HW151542   7.948   1.968   1.555 -1.0173  0.5858 -0.9948
48228SOL    HW251543   7.853   1.992   1.671 -0.3179 -0.9653 -0.0620
48229SOL     OW51544   5.836   9.671   0.406 -0.6279 -0.0127  0.6705
48229SOL    HW151545   5.820   9.753   0.453  1.7920  0.1387  1.3958
48229SOL    HW251546   5.835   9.695   0.314 -1.0213  0.6131  0.8374
48230SOL     OW51547   6.790   2.310   3.325 -0.0980  0.1390  0.6542
48230SOL    HW151548   6.737   2.292   3.247  1.2751 -0.2315 -0.2330
48230SOL    HW251549   6.746   2.383   3.368 -1.6548 -0.5469  0.2911
48231SOL     OW51550   9.012   0.174   1.980  0.0288  0.7608  0.3169
48231SOL    HW151551   9.001   0.187   1.886  0.7125 -0.0614  0.1105
48231SOL    HW251552   9.095   0.214   2.001 -0.0873  0.8757  0.5584
48232SOL     OW51553   5.467   0.207  10.574 -0.1053 -0.1054 -0.0058
48232SOL    HW151554   5.477   0.116  10.600 -1.5884 -0.0497  0.8477
48232SOL    HW251555   5.499   0.210  10.483 -0.4438 -1.5538 -0.1868
48233SOL     OW51556   9.775   4.064  10.055  0.3750  0.4943  0.3172
48233SOL    HW151557   9.726   3.987  10.080  1.7461 -0.2303  0.8768
48233SOL    HW251558   9.831   4.083  10.130  1.7427  0.6162 -0.6831
48234SOL     OW51559   0.180   8.897   8.172  0.1358 -0.1054  0.4193
48234SOL    HW151560   0.210   8.988   8.166 -0.7166  0.3910  2.6250
48234SOL    HW251561   0.238   8.849   8.114  0.8839  1.7814 -0.4975
48235SOL     OW51562   8.841   2.569   3.314  0.0899  0.1089  0.3785
48235SOL    HW151563   8.892   2.609   3.385 -0.4324  0.0225  0.8080
48235SOL    HW251564   8.751   2.595   3.332 -0.0482  0.0695 -0.2470
48236SOL     OW51565  10.347   1.011   3.094 -0.1953 -0.2028 -0.6594
48236SOL    HW151566  10.433   0.976   3.073  0.0582  1.5932 -3.1163
48236SOL    HW251567  10.361   1.062   3.174  1.0139 -0.0389 -0.9522
48237SOL     OW51568   6.823   6.436  10.292 -0.2338  0.2135 -0.5113
48237SOL    HW151569   6.729   6.416  10.299 -0.3170  0.0977 -1.6474
48237SOL    HW251570   6.855   6.432  10.381 -1.3850  0.5844 -0.0558
48238SOL     OW51571   2.328   0.178  10.138 -0.0161 -0.4826  0.1296
48238SOL    HW151572   2.233   0.185  10.133  0.0783  1.2736 -0.0079
48238SOL    HW251573   2.359   0.203  10.051  0.6150  1.7019  0.8935
48239SOL     OW51574   2.219   7.070   8.402 -0.3209  0.3596 -0.3313
48239SOL    HW151575   2.209   7.073   8.497 -2.4453 -1.3605 -0.4145
48239SOL    HW251576   2.139   7.111   8.368  0.3163  0.7693 -1.3901
48240SOL     OW51577   9.626   7.894   5.090 -0.1822  0.5568  0.2247
48240SOL    HW151578   9.541   7.877   5.048 -0.6139  3.1317 -0.1426
48240SOL    HW251579   9.690   7.888   5.019 -0.1873 -0.2834  0.2820
48241SOL     OW51580   6.480   6.649   5.451  0.5447 -0.4763  0.2696
48241SOL    HW151581   6.431   6.653   5.533  3.9392  1.8603  2.4539
48241SOL    HW251582   6.530   6.568   5.457  0.7635 -0.3247  0.5183
48242SOL     OW51583   0.439   0.283   9.420  0.1058  0.1952 -0.0633
48242SOL    HW151584   0.351   0.262   9.391 -0.2285  0.3482  0.8018
48242SOL    HW251585   0.479   0.330   9.347  0.2742 -1.8690 -1.3604
48243SOL     OW51586   2.133   0.524   2.174  0.3232  0.1796 -0.1003
48243SOL    HW151587   2.211   0.564   2.214 -0.0740  1.0092 -0.1378
48243SOL    HW251588   2.138   0.551   2.082  0.6742 -0.8497 -0.3949
48244SOL     OW51589   0.515   9.258   7.027  0.1960  0.2269 -0.3071
48244SOL    HW151590   0.498   9.344   6.989 -0.4672  0.6493  0.8848
48244SOL    HW251591   0.605   9.264   7.061  0.2828  0.3195 -0.5509
48245SOL     OW51592   6.434   8.426   4.111 -1.1876  0.4952  0.1867
48245SOL    HW151593   6.473   8.408   4.197 -1.8730  2.1309  0.8817
48245SOL    HW251594   6.395   8.513   4.120 -1.7460  0.4740 -1.6317
48246SOL     OW51595   3.800   3.966   0.845  0.4390  0.4738  0.5655
48246SOL    HW151596   3.863   4.016   0.896  1.3906 -0.4716  0.3653
48246SOL    HW251597   3.714   3.992   0.879  1.0453 -0.8092  3.3142
48247SOL     OW51598   6.010   1.032   4.078  0.2261  0.1707  0.0137
48247SOL    HW151599   6.097   1.025   4.116 -0.1423  1.3382  1.1604
48247SOL    HW251600   5.976   0.943   4.078  1.3596 -0.2801 -0.3570
48248SOL     OW51601   5.847   9.563   4.197 -0.0481  0.0878 -0.1709
48248SOL    HW151602   5.817   9.502   4.129 -0.4410  3.3237 -3.1373
48248SOL    HW251603   5.918   9.612   4.156  0.4090  1.5217  2.1568
48249SOL     OW51604  10.592  11.154  10.416 -0.1840 -0.3159  0.0728
48249SOL    HW151605  10.572  11.248  10.420 -0.4702 -0.3662 -0.1026
48249SOL    HW251606  10.514  11.115  10.377  1.4376 -0.0962 -3.9704
48250SOL     OW51607   7.134   8.675   1.806  0.4342  0.2965  0.1422
48250SOL    HW151608   7.134   8.762   1.768 -2.1538  0.6267  0.6915
48250SOL    HW251609   7.210   8.673   1.864  0.6620  2.1108 -0.0595
48251SOL     OW51610   5.249   1.481   2.815 -0.6387  0.3886  0.2193
48251SOL    HW151611   5.269   1.438   2.898 -1.9023 -0.4049  0.1377
48251SOL    HW251612   5.157   1.461   2.799  0.0346 -1.1209 -2.3082
48252SOL     OW51613   2.765   3.098   0.862 -0.2686 -0.7266  0.1420
48252SOL    HW151614   2.748   3.107   0.956 -0.5712 -0.5418  0.0712
48252SOL    HW251615   2.813   3.178   0.840  0.7862 -1.2858  0.3587
48253SOL     OW51616   3.008   5.473   5.749 -0.0476  0.7056  0.2771
48253SOL    HW151617   3.017   5.464   5.844 -2.7340  1.1860  0.6699
48253SOL    HW251618   3.024   5.566   5.733  1.8113  0.3852 -0.0155
48254SOL     OW51619   7.831   6.779   5.918 -0.7985  0.0068 -0.0577
48254SOL    HW151620   7.816   6.698   5.869  0.5924  1.0879 -2.4444
48254SOL    HW251621   7.925   6.783   5.931 -0.6469  1.8808 -1.2996
48255SOL     OW51622   0.412   4.290   3.765 -0.1551 -0.2152 -0.0586
48255SOL    HW151623   0.330   4.305   3.719  0.2504 -2.7862 -1.8283
48255SOL    HW251624   0.473   4.355   3.729 -1.4558  2.2565  1.8379
48256SOL     OW51625  10.259   9.295   9.099  0.7811 -0.2461  0.5708
48256SOL    HW151626  10.191   9.305   9.032  2.2362  0.3086 -0.8980
48256SOL    HW251627  10.325   9.360   9.075  1.0443  0.4378  2.9855
48257SOL     OW51628   2.026   7.431   6.399 -0.1805  0.3484 -0.3436
48257SOL    HW151629   1.981   7.440   6.315  2.2901  0.1905 -1.7705
48257SOL    HW251630   2.083   7.355   6.387  1.2509  1.1670  0.9784
48258SOL     OW51631   3.387   4.892   8.798 -0.1444  0.1937  0.2283
48258SOL    HW151632   3.469   4.894   8.749 -0.3507  0.0953 -0.1213
48258SOL    HW251633   3.351   4.805   8.782 -0.2123  0.1608  0.5533
48259SOL     OW51634   1.053   2.019   6.510  0.4598  0.3210 -0.4870
48259SOL    HW151635   0.985   2.085   6.493  1.3842  1.1605 -1.0539
48259SOL    HW251636   1.135   2.068   6.505  1.0622 -0.3257  1.8449
48260SOL     OW51637  11.399   6.376  12.049  0.1178  1.1138 -0.0825
48260SOL    HW151638  11.321   6.386  12.104  0.7955 -0.1552  1.1919
48260SOL    HW251639  11.472   6.379  12.112  1.0504  1.4935 -1.1535
48261SOL     OW51640  12.197  10.388   3.158 -0.1459  0.3382 -0.0532
48261SOL    HW151641  12.185  10.437   3.239  1.0201 -0.6118  0.7186
48261SOL    HW251642  12.291  10.393   3.141 -0.1306 -0.9530 -0.3962
48262SOL     OW51643  10.992   2.709   3.832  0.4992 -0.0532 -0.2723
48262SOL    HW151644  11.075   2.680   3.795  1.4009  2.9922 -0.8542
48262SOL    HW251645  10.927   2.687   3.765  1.2302 -0.0748 -0.9876
48263SOL     OW51646   4.548   0.586   4.140  0.0393  0.0608 -0.2453
48263SOL    HW151647   4.514   0.509   4.187  1.5252 -0.0947  0.6394
48263SOL    HW251648   4.521   0.572   4.049 -1.6172 -0.3827  0.2627
48264SOL     OW51649   6.610  11.448  10.065 -0.2753 -0.0176  0.1149
48264SOL    HW151650   6.527  11.493  10.054 -0.7689 -1.1885 -1.2547
48264SOL    HW251651   6.642  11.435   9.975  2.1788  1.7677  0.6222
48265SOL     OW51652   9.773   2.293   1.089  0.0477  0.0613  0.2046
48265SOL    HW151653   9.751   2.258   1.176 -1.0710  1.9232  0.7309
48265SOL    HW251654   9.696   2.273   1.036 -0.0330  0.5244  0.1452
48266SOL     OW51655  12.332   8.454   7.507  0.2004 -0.0027  0.2842
48266SOL    HW151656  12.409   8.400   7.524  1.8214  2.0556 -0.1617
48266SOL    HW251657  12.362   8.544   7.522 -2.1205  0.8721  0.0557
48267SOL     OW51658   3.443   2.074  10.708  0.0257  0.2791  0.1218
48267SOL    HW151659   3.429   2.100  10.617  0.9113  0.7906  0.1172
48267SOL    HW251660   3.527   2.028  10.707 -0.8344 -1.3851  0.3717
48268SOL     OW51661   5.828   7.367   9.743 -0.3319  0.2344  0.0209
48268SOL    HW151662   5.831   7.306   9.816  0.0473 -0.7408 -0.7850
48268SOL    HW251663   5.894   7.335   9.681 -1.1276  0.6129 -1.0631
48269SOL     OW51664   9.613   5.080  12.191  0.1391 -0.4060 -0.3484
48269SOL    HW151665   9.616   5.075  12.095  0.2203 -1.3631 -0.3029
48269SOL    HW251666   9.588   5.171  12.209 -0.8934 -0.4744 -1.2962
48270SOL     OW51667   7.479   7.370   2.041  0.2030  0.5075  0.2855
48270SOL    HW151668   7.453   7.439   1.980  1.0814  1.1392  0.5877
48270SOL    HW251669   7.397   7.332   2.071 -0.2727  0.8993 -0.4871
48271SOL     OW51670   3.660   9.932   4.449 -0.0508 -0.1438 -0.1803
48271SOL    HW151671   3.752   9.911   4.432 -0.1188 -0.9887  0.4149
48271SOL    HW251672   3.619   9.847   4.467 -0.7624  0.3096  0.3954
48272SOL     OW51673   2.812   8.463   4.709 -0.6367 -0.0808  0.0671
48272SOL    HW151674   2.786   8.480   4.800  0.9916 -0.9504  0.7250
48272SOL    HW251675   2.907   8.475   4.709 -0.6271 -0.0213 -1.5513
48273SOL     OW51676   8.624  11.136   0.863 -0.2792  0.1850 -0.2429
48273SOL    HW151677   8.583  11.221   0.876  1.4272  1.2161 -1.3320
48273SOL    HW251678   8.636  11.129   0.769  0.0443 -1.0613 -0.1214
48274SOL     OW51679   8.895   0.662   6.950 -0.1426 -0.1597 -0.7543
48274SOL    HW151680   8.968   0.635   7.006 -0.8856 -0.8510 -0.0796
48274SOL    HW251681   8.862   0.742   6.992 -1.0778 -1.0092  0.1778
48275SOL     OW51682   0.057   5.287   8.819 -0.1823  0.0869 -0.3449
48275SOL    HW151683   0.093   5.366   8.859  0.6532 -1.2260  1.6906
48275SOL    HW251684   0.105   5.215   8.862 -1.0423 -1.5284 -1.9656
48276SOL     OW51685   0.216  12.395   1.466 -0.1315  0.3775 -0.1155
48276SOL    HW151686   0.154  12.323   1.458 -0.5094  0.7943 -1.1070
48276SOL    HW251687   0.293  12.366   1.417 -0.7625  1.1401 -1.6037
48277SOL     OW51688   3.963   1.953   6.106  0.2181  0.3231  0.1606
48277SOL    HW151689   3.889   1.909   6.065 -1.0121  0.0234  2.5557
48277SOL    HW251690   4.026   1.883   6.123  0.5473  0.3827 -0.7265
48278SOL     OW51691   2.583   5.741   8.123  0.3566 -0.8962 -0.2176
48278SOL    HW151692   2.541   5.657   8.139 -0.4163 -0.9363 -2.1356
48278SOL    HW251693   2.540   5.802   8.183 -0.5831 -1.4566 -0.3032
48279SOL     OW51694   9.088   9.103  12.197 -0.0648  0.2992 -0.3348
48279SOL    HW151695   9.147   9.179  12.202  1.5847 -0.9838  1.9295
48279SOL    HW251696   9.147   9.029  12.180 -1.3193 -0.7561 -0.2045
48280SOL     OW51697  12.479   2.048  10.355  0.2949 -0.3973  0.0553
48280SOL    HW151698  12.485   1.960  10.317  1.1459 -0.9516  1.4005
48280SOL    HW251699  12.457   2.033  10.447  1.6031  0.7194  0.5865
48281SOL     OW51700  10.031   8.227   9.603  0.1289 -0.1380 -0.2507
48281SOL    HW151701  10.002   8.138   9.583 -0.1642 -0.0622 -0.1727
48281SOL    HW251702  10.073   8.220   9.689  0.3293 -0.2446 -0.3565
48282SOL     OW51703   8.688   2.238   1.725 -0.1755  0.2168 -0.0270
48282SOL    HW151704   8.640   2.320   1.711 -0.3520  0.2520  0.7548
48282SOL    HW251705   8.775   2.265   1.751  0.4544  0.1571 -1.8900
48283SOL     OW51706   4.467   9.946   5.301 -0.4612  0.3571  0.1004
48283SOL    HW151707   4.527   9.871   5.299 -0.1581  0.5915 -1.4004
48283SOL    HW251708   4.482   9.987   5.385  0.3869 -0.4692  0.3679
48284SOL     OW51709   7.846  10.273  11.267  0.5814  0.3344  0.1377
48284SOL    HW151710   7.797  10.283  11.185  1.1243 -2.1711 -0.5722
48284SOL    HW251711   7.796  10.322  11.331 -0.3730  1.5985 -1.4805
48285SOL     OW51712   4.530   6.606   3.156 -0.4465  0.6263 -0.5440
48285SOL    HW151713   4.622   6.594   3.130 -0.3421 -0.5675  0.2781
48285SOL    HW251714   4.533   6.613   3.252 -0.9329  3.7420 -0.6602
48286SOL     OW51715   4.919   6.303  10.500  0.2928  0.0639 -0.4515
48286SOL    HW151716   4.868   6.228  10.531 -2.6374 -0.0350 -4.6478
48286SOL    HW251717   5.002   6.266  10.472  0.3686 -0.8773  0.8969
48287SOL     OW51718   3.999   2.080  11.658 -0.3581  0.1345  0.0660
48287SOL    HW151719   3.939   2.071  11.584 -0.4835  2.4400 -0.1876
48287SOL    HW251720   4.080   2.037  11.629 -1.6570 -2.6991  0.2771
48288SOL     OW51721   6.574   2.524   7.035 -0.5756  0.0409  0.0684
48288SOL    HW151722   6.534   2.523   7.122  2.5767 -0.6142  1.6150
48288SOL    HW251723   6.607   2.613   7.025 -0.3178 -0.0782 -0.1544
48289SOL     OW51724   0.921   4.070   8.133  0.3987 -0.6221  0.7676
48289SOL    HW151725   0.903   3.995   8.190  0.0395  0.0521  1.5662
48289SOL    HW251726   0.925   4.033   8.045 -1.3384 -1.3790  0.9544
48290SOL     OW51727   7.347   5.375   9.585  0.0704  0.5077 -0.4453
48290SOL    HW151728   7.330   5.414   9.671 -0.7121 -0.5741 -0.0935
48290SOL    HW251729   7.442   5.365   9.583  0.2218  1.6765 -0.2261
48291SOL     OW51730   4.169  11.774   1.206  0.0632  0.3149 -0.7311
48291SOL    HW151731   4.094  11.772   1.147  0.5504 -1.0071 -1.3437
48291SOL    HW251732   4.197  11.683   1.213  1.7994  0.8124 -0.7637
48292SOL     OW51733   6.620   2.376   7.717  0.9953  0.2349 -0.3277
48292SOL    HW151734   6.599   2.393   7.809  3.2358 -1.2217  0.5487
48292SOL    HW251735   6.687   2.442   7.696  0.3609  0.6772 -1.0062
48293SOL     OW51736   8.072   8.967   5.515  0.5787  0.4750  0.0244
48293SOL    HW151737   8.133   8.916   5.463  0.7123 -0.9661  1.5063
48293SOL    HW251738   7.989   8.920   5.507  0.1731  1.2176 -0.2536
48294SOL     OW51739  12.260   7.329   8.215  0.6137 -0.1112  0.0740
48294SOL    HW151740  12.350   7.329   8.246  0.2046 -1.7891  1.4269
48294SOL    HW251741  12.264   7.288   8.128  1.4028  2.0176 -0.9676
48295SOL     OW51742   7.949   7.249  10.723 -0.3105  0.3715 -0.1162
48295SOL    HW151743   7.959   7.187  10.651  0.5714  0.5674 -0.1756
48295SOL    HW251744   7.863   7.231  10.759  0.2064 -1.3799  0.3307
48296SOL     OW51745   7.671  12.134  11.258  0.2975 -0.4193 -0.7742
48296SOL    HW151746   7.702  12.053  11.219 -0.5543 -1.0780 -0.1106
48296SOL    HW251747   7.658  12.114  11.351  1.6008  0.9170 -0.2597
48297SOL     OW51748  10.786  11.076  11.892 -0.1769 -0.0728  0.1716
48297SOL    HW151749  10.801  11.010  11.960  1.7554  0.1757  0.0465
48297SOL    HW251750  10.817  11.035  11.811  1.5841  1.1151  0.1847
48298SOL     OW51751   0.837   1.526   8.434  0.5910  0.1448 -0.0178
48298SOL    HW151752   0.931   1.524   8.416  0.5590  1.3384 -0.3900
48298SOL    HW251753   0.830   1.523   8.529  0.9651 -0.6772 -0.0075
48299SOL     OW51754  10.504   0.875   1.071  0.0811  0.4177  0.0630
48299SOL    HW151755  10.594   0.891   1.100  0.5486  0.3261 -1.2549
48299SOL    HW251756  10.492   0.933   0.996 -1.4348  1.3981  1.0011
48300SOL     OW51757   4.751   0.613   8.121 -0.4682  0.1556  0.4384
48300SOL    HW151758   4.833   0.645   8.158  0.5907 -0.8024 -0.9891
48300SOL    HW251759   4.703   0.693   8.098 -0.1642  0.7276  1.7122
48301SOL     OW51760   8.504   6.841   1.332  0.0156 -0.2349  0.1415
48301SOL    HW151761   8.536   6.812   1.417  0.6331  0.6003  0.2011
48301SOL    HW251762   8.483   6.759   1.286 -1.3477 -0.6776  1.4587
48302SOL     OW51763   2.265   0.954   9.487 -0.3682 -0.2090  0.1364
48302SOL    HW151764   2.304   0.929   9.404 -0.8867 -1.0915  0.1449
48302SOL    HW251765   2.172   0.965   9.468 -0.2252  1.3927  0.2180
48303SOL     OW51766   4.638   9.142  11.468  0.7150  0.5249  0.2277
48303SOL    HW151767   4.643   9.047  11.474  0.3457  0.3598 -1.6301
48303SOL    HW251768   4.699   9.166  11.398  0.0750  1.5445 -0.0046
48304SOL     OW51769   2.253   4.388   6.634  0.7965 -0.0722 -0.0712
48304SOL    HW151770   2.312   4.313   6.635 -0.5415 -1.1761 -0.9654
48304SOL    HW251771   2.192   4.370   6.563 -1.0606  0.6698  1.2495
48305SOL     OW51772   9.932   2.509  11.736  0.2510 -0.1406  0.0135
48305SOL    HW151773  10.025   2.491  11.751  0.3556 -0.2528 -0.7375
48305SOL    HW251774   9.931   2.578  11.669 -0.2045  0.0677  0.2313
48306SOL     OW51775   3.907   6.809   4.807  0.3948  0.2363  0.8294
48306SOL    HW151776   3.980   6.830   4.750  0.3810  2.5028  1.5604
48306SOL    HW251777   3.845   6.881   4.795 -1.4782 -1.3120  0.6787
48307SOL     OW51778   6.732   5.467   9.543 -0.2445  0.0304 -0.4734
48307SOL    HW151779   6.705   5.557   9.524 -0.0889  0.5692  1.6300
48307SOL    HW251780   6.823   5.463   9.514 -0.7905 -0.0703 -2.3236
48308SOL     OW51781   4.717   3.714   4.144  0.2454 -0.3539  0.1209
48308SOL    HW151782   4.760   3.800   4.145  0.7386 -0.5631 -1.1426
48308SOL    HW251783   4.776   3.657   4.193 -0.4788  0.1851  1.6650
48309SOL     OW51784   3.649  11.763  10.033 -0.1007 -0.5438  0.3957
48309SOL    HW151785   3.643  11.818  10.111 -0.8578 -1.4953  1.0377
48309SOL    HW251786   3.703  11.689  10.061 -1.0180 -1.2770  0.2632
48310SOL     OW51787   2.798   3.100   1.546 -0.7293 -0.3211  0.0701
48310SOL    HW151788   2.842   3.182   1.526 -0.1137  0.5126  4.0282
48310SOL    HW251789   2.708   3.113   1.516  0.2661  0.1403 -2.9897
48311SOL     OW51790   6.314   2.391   0.519  0.5542  0.4402  0.5704
48311SOL    HW151791   6.249   2.402   0.589 -0.7956 -1.2168 -0.3334
48311SOL    HW251792   6.375   2.325   0.554  0.3584  0.2274  0.5156
48312SOL     OW51793   7.144   2.394  10.346 -0.0535  0.3900  0.0778
48312SOL    HW151794   7.232   2.433  10.352  0.5426 -1.1083  2.2558
48312SOL    HW251795   7.156   2.316  10.293 -0.2927  0.7272 -0.4762
48313SOL     OW51796   0.478   9.977   0.286  0.0168 -0.8609  0.8223
48313SOL    HW151797   0.537   9.981   0.361  0.4384 -0.3728  0.4691
48313SOL    HW251798   0.502  10.053   0.232 -0.8672 -0.7044  0.6295
48314SOL     OW51799   1.357   5.495   8.676  0.2648  0.1066  0.8072
48314SOL    HW151800   1.452   5.493   8.684  0.2274 -1.2124  1.2148
48314SOL    HW251801   1.328   5.413   8.717 -0.8911 -0.5536 -1.1848
48315SOL     OW51802   4.949   5.091   5.722  0.4756 -0.2455 -0.3339
48315SOL    HW151803   4.876   5.136   5.765 -0.2799 -1.4874 -0.2855
48315SOL    HW251804   4.925   4.999   5.723  1.1889 -0.4903 -1.9860
48316SOL     OW51805  12.135   9.769   9.348  0.0970 -0.3081 -0.3937
48316SOL    HW151806  12.138   9.796   9.440  0.4673 -2.9056  0.4362
48316SOL    HW251807  12.042   9.771   9.326 -0.0668 -0.2990  0.2613
48317SOL     OW51808   6.425   3.356   4.648 -0.2630 -0.3887  0.3910
48317SOL    HW151809   6.339   3.385   4.618  0.0594 -0.0493 -0.2258
48317SOL    HW251810   6.487   3.402   4.591  0.2881 -1.5840 -0.0075
48318SOL     OW51811   9.216   0.738   2.627 -0.2316  0.5857  0.1783
48318SOL    HW151812   9.276   0.708   2.559  0.3751 -0.7925  1.2765
48318SOL    HW251813   9.216   0.834   2.618 -0.7182  0.4384 -2.1835
48319SOL     OW51814   8.522   1.335   9.958  0.1977  0.7339 -0.1616
48319SOL    HW151815   8.572   1.411   9.929 -1.2248  1.6585 -0.2545
48319SOL    HW251816   8.513   1.346  10.052 -1.8275  1.8550 -0.4346
48320SOL     OW51817   9.135   6.277   6.443  0.0175 -0.1635 -0.3190
48320SOL    HW151818   9.211   6.270   6.501 -0.1944  1.7340  0.2469
48320SOL    HW251819   9.092   6.192   6.449  0.3708 -0.2312  1.8018
48321SOL     OW51820   5.951   1.712   0.271  0.3646 -0.3250  0.1703
48321SOL    HW151821   6.045   1.698   0.273  0.4803  0.3869 -0.0970
48321SOL    HW251822   5.927   1.705   0.179 -0.0330 -1.6337  0.3500
48322SOL     OW51823   0.919  12.339   0.945  0.5353 -0.7740 -0.6651
48322SOL    HW151824   1.003  12.383   0.935 -0.9316  2.1771 -1.3623
48322SOL    HW251825   0.897  12.309   0.857  0.0681  0.1584 -0.8834
48323SOL     OW51826   9.134   4.764  12.407  0.1157 -0.4038 -0.0104
48323SOL    HW151827   9.052   4.759  12.358 -0.0837 -1.8840  0.4248
48323SOL    HW251828   9.113   4.726  12.492  1.2387 -0.7076  0.1378
48324SOL     OW51829   3.032   5.882   6.366 -0.4969 -0.4818  0.5033
48324SOL    HW151830   3.003   5.893   6.275 -0.0411 -0.4811  0.3580
48324SOL    HW251831   2.971   5.935   6.417  0.2628  0.8832  0.0425
48325SOL     OW51832   8.758   4.608  10.136  0.0854 -0.0193  0.2069
48325SOL    HW151833   8.776   4.580  10.225  0.2387 -0.0016  0.1798
48325SOL    HW251834   8.801   4.693  10.128  1.5078 -0.7690 -0.4238
48326SOL     OW51835   2.128   4.395   0.207  0.5187  0.4478  0.2367
48326SOL    HW151836   2.084   4.312   0.187  1.6378  0.2222 -1.5852
48326SOL    HW251837   2.217   4.384   0.171  0.7333  2.3770  0.0547
48327SOL     OW51838   7.850   2.167   4.082 -0.1960  0.1633  0.2203
48327SOL    HW151839   7.815   2.111   4.013 -0.6274  0.7381 -0.0293
48327SOL    HW251840   7.925   2.118   4.116  0.4962  0.2200 -1.1704
48328SOL     OW51841  11.767   7.947   8.888  0.3409 -0.0185  0.4493
48328SOL    HW151842  11.744   7.887   8.959  1.7294  1.1205  1.9458
48328SOL    HW251843  11.839   7.999   8.923 -0.0469  1.7542 -1.2025
48329SOL     OW51844   8.162   6.751   3.507 -0.1300 -0.1120  0.4922
48329SOL    HW151845   8.162   6.702   3.590  0.9454  0.4955  0.8672
48329SOL    HW251846   8.226   6.821   3.521 -0.5384  0.4807 -0.5764
48330SOL     OW51847   1.108   1.206   2.846 -0.1073  0.1770 -0.0623
48330SOL    HW151848   1.054   1.180   2.920 -0.6101  1.9077  0.2253
48330SOL    HW251849   1.049   1.204   2.771  0.4896 -1.9442 -0.5597
48331SOL     OW51850   2.932   3.082   4.063 -0.6086  0.3472  0.1338
48331SOL    HW151851   2.855   3.131   4.035  1.1715  2.3781 -1.6133
48331SOL    HW251852   2.971   3.136   4.132  0.2268  0.2966 -0.2912
48332SOL     OW51853   1.069   3.436   0.011  0.1269 -0.1854 -0.3783
48332SOL    HW151854   1.084   3.352   0.055  2.2016  0.4112  0.1572
48332SOL    HW251855   0.991   3.421  -0.043 -0.8714 -1.7595  1.3903
48333SOL     OW51856   6.484   7.916   9.560 -0.0958 -0.7073  0.2198
48333SOL    HW151857   6.514   7.922   9.469  1.3381 -1.9564  0.5604
48333SOL    HW251858   6.464   7.823   9.572 -0.6665 -0.4860  1.0769
48334SOL     OW51859   1.824   7.837  10.809  0.0493  0.6805  0.3190
48334SOL    HW151860   1.894   7.828  10.874  0.8644 -0.6202 -0.7016
48334SOL    HW251861   1.775   7.914  10.838  0.2252  0.0252  2.6270
48335SOL     OW51862  10.765  11.360  11.926 -0.2181  0.1269  0.4474
48335SOL    HW151863  10.710  11.426  11.884  0.9737  0.7713 -0.1522
48335SOL    HW251864  10.758  11.284  11.869  0.4099  0.5939 -0.2790
48336SOL     OW51865   0.767   8.082   9.665 -0.5091  0.5057  0.1766
48336SOL    HW151866   0.742   8.138   9.738  0.2333 -1.1211  1.7336
48336SOL    HW251867   0.769   7.993   9.701  2.3368 -0.0802 -1.1182
48337SOL     OW51868   8.248   5.297  10.199 -0.5412 -1.0539 -0.5375
48337SOL    HW151869   8.168   5.341  10.226 -0.5567 -1.5886  0.3480
48337SOL    HW251870   8.287   5.266  10.281 -0.7550 -3.0628 -1.1444
48338SOL     OW51871   1.926   8.917   6.007 -0.1518  0.3075 -0.1193
48338SOL    HW151872   1.848   8.972   6.014  0.2461  0.9264 -0.4267
48338SOL    HW251873   1.995   8.977   5.978  0.3497 -0.3074 -0.2230
48339SOL     OW51874   1.486   4.430  10.014  0.3763 -0.0060 -0.7697
48339SOL    HW151875   1.571   4.386  10.010  0.9191  0.5916  2.0803
48339SOL    HW251876   1.438   4.384  10.083 -1.7019 -0.3695 -2.3553
48340SOL     OW51877   4.879   7.828   1.572 -0.1247  0.2344  0.2282
48340SOL    HW151878   4.835   7.757   1.527 -0.4455  0.7672 -0.3065
48340SOL    HW251879   4.970   7.824   1.541 -0.1479  0.0776  0.1793
48341SOL     OW51880   3.625   1.798   1.600  0.9059 -0.2397 -0.5941
48341SOL    HW151881   3.572   1.862   1.648  0.6939 -0.3389 -0.6961
48341SOL    HW251882   3.561   1.739   1.560  1.0889 -0.2644 -0.8515
48342SOL     OW51883   2.728   7.839   1.451  0.3476  0.2810 -0.8027
48342SOL    HW151884   2.724   7.787   1.371  0.1296 -0.8562 -0.0740
48342SOL    HW251885   2.822   7.840   1.473  0.3713  0.3401 -0.9041
48343SOL     OW51886   9.213   4.918   6.766 -0.0378  0.2139 -0.5068
48343SOL    HW151887   9.250   5.006   6.778  0.4605 -0.0815  0.2246
48343SOL    HW251888   9.258   4.864   6.832 -0.4196 -0.5649 -0.8685
48344SOL     OW51889  11.598   7.889   6.574 -0.3021  0.0466 -0.0649
48344SOL    HW151890  11.584   7.923   6.662 -0.2452  0.4736 -0.2178
48344SOL    HW251891  11.672   7.828   6.583 -1.0341 -0.7892  0.3924
48345SOL     OW51892   0.941  10.020  10.515  0.5553 -0.1132 -0.1501
48345SOL    HW151893   0.905  10.053  10.598 -0.9265  1.6162 -1.4064
48345SOL    HW251894   0.938   9.925  10.525  2.4608 -0.0019  2.5731
48346SOL     OW51895   4.170  11.666   7.586  0.0801  0.0556 -0.0055
48346SOL    HW151896   4.187  11.717   7.506  0.4067  1.0109  0.6526
48346SOL    HW251897   4.096  11.610   7.563  2.4991 -2.5493 -2.2149
48347SOL     OW51898   6.535   2.404   8.498 -0.0142  0.1304  0.2016
48347SOL    HW151899   6.478   2.467   8.542 -0.4469 -0.3357  0.3072
48347SOL    HW251900   6.561   2.343   8.566  0.2863  0.1002  0.0641
48348SOL     OW51901   9.268   7.946   2.744  0.5493 -0.4488  0.6724
48348SOL    HW151902   9.179   7.976   2.725  1.2179  0.8478 -0.6379
48348SOL    HW251903   9.261   7.850   2.745 -0.8807 -0.3680  0.7023
48349SOL     OW51904  10.107   5.259   2.326 -0.3549  0.5457 -0.1324
48349SOL    HW151905  10.171   5.330   2.329  1.7379 -1.2501  1.9186
48349SOL    HW251906  10.117   5.221   2.239  0.7249  0.8798 -0.1702
48350SOL     OW51907   6.638   5.391   9.096  0.1849  0.0145 -0.5907
48350SOL    HW151908   6.710   5.331   9.080  2.0888  2.3819 -1.6484
48350SOL    HW251909   6.680   5.475   9.116 -2.2802  1.3358 -0.4469
48351SOL     OW51910  12.393  10.438   8.316  0.4363 -0.4840  0.1490
48351SOL    HW151911  12.446  10.506   8.274 -2.2609  2.1124  0.6489
48351SOL    HW251912  12.363  10.383   8.244  2.2789 -0.9146 -0.3301
48352SOL     OW51913   0.428   2.953  12.336  0.7654  0.4446 -0.1957
48352SOL    HW151914   0.473   2.910  12.409 -1.1362 -0.5069  0.4837
48352SOL    HW251915   0.377   2.884  12.295 -0.8444  1.6392 -0.3041
48353SOL     OW51916   6.034   9.877   3.966 -0.0495 -0.1262  0.0962
48353SOL    HW151917   6.075   9.844   3.886 -1.3660 -1.8349  0.0582
48353SOL    HW251918   6.043   9.806   4.029 -1.0715  0.2814  0.7284
48354SOL     OW51919   4.736   3.697   9.960 -0.0595 -0.1126 -0.3257
48354SOL    HW151920   4.658   3.647   9.937 -0.5539 -0.0356  1.0714
48354SOL    HW251921   4.787   3.702   9.879 -1.8990  0.5756 -1.4949
48355SOL     OW51922   7.505   8.283   8.321 -0.4179 -0.2122  0.1041
48355SOL    HW151923   7.581   8.305   8.267 -0.6365  0.2283 -0.0316
48355SOL    HW251924   7.455   8.221   8.268 -1.1579  0.9883 -0.6579
48356SOL     OW51925   8.209   6.278   7.844 -0.0321  0.0433 -0.1917
48356SOL    HW151926   8.298   6.248   7.829  0.2030  0.5899  0.0970
48356SOL    HW251927   8.201   6.283   7.940  0.1915  1.6527 -0.2380
48357SOL     OW51928   8.848   2.721   4.399 -0.0416 -0.0712  0.1612
48357SOL    HW151929   8.770   2.684   4.442  0.4196 -0.7074  0.4568
48357SOL    HW251930   8.922   2.679   4.442  0.4804  0.6023 -0.0556
48358SOL     OW51931   4.903   6.744   2.539  0.0258 -0.1318 -0.2970
48358SOL    HW151932   4.861   6.829   2.525 -1.6227 -0.9635 -0.6530
48358SOL    HW251933   4.894   6.729   2.633  3.0110  1.3687  0.3606
48359SOL     OW51934   7.022  11.247  10.577  0.6320  0.2419 -0.1829
48359SOL    HW151935   6.991  11.241  10.487 -0.0999  0.1311  0.0748
48359SOL    HW251936   7.064  11.333  10.581 -0.6567  0.8921 -0.2276
48360SOL     OW51937   6.654   1.705   9.084 -0.2956  0.4258  0.0160
48360SOL    HW151938   6.684   1.617   9.060 -0.6366  0.3115  0.0126
48360SOL    HW251939   6.562   1.694   9.108 -0.2568  0.7308  0.3101
48361SOL     OW51940  10.865   7.146   2.483  0.1266 -0.0468  0.6016
48361SOL    HW151941  10.849   7.223   2.538 -1.3698  0.8124 -0.9336
48361SOL    HW251942  10.894   7.078   2.544 -1.0141  0.9877  2.3674
48362SOL     OW51943   6.793   7.097   3.717  0.0582 -0.2034 -0.2709
48362SOL    HW151944   6.758   7.182   3.689  4.5953  2.5113  1.2450
48362SOL    HW251945   6.873   7.086   3.666 -0.8678 -4.2325 -1.1314
48363SOL     OW51946  10.920   0.045  10.337  0.0678 -0.0770  0.0300
48363SOL    HW151947  10.838  -0.004  10.335  0.1333 -0.1811 -0.0966
48363SOL    HW251948  10.969   0.006  10.410  1.3947 -2.2816 -1.8887
48364SOL     OW51949   4.890  12.158   4.735  0.2968 -0.6717  0.1410
48364SOL    HW151950   4.817  12.216   4.714  0.3362 -0.7826 -0.3217
48364SOL    HW251951   4.863  12.073   4.700  0.8520 -0.6066 -0.4635
48365SOL     OW51952  12.498   5.706   9.575  0.1285 -0.5784  0.2541
48365SOL    HW151953  12.406   5.713   9.550 -0.1771 -0.9302  1.2315
48365SOL    HW251954  12.514   5.780   9.633  1.2767  1.1896 -2.1559
48366SOL     OW51955   6.115   9.313   8.874 -0.0250 -0.0935 -0.4638
48366SOL    HW151956   6.159   9.228   8.875 -2.0993 -1.3173 -2.9674
48366SOL    HW251957   6.024   9.293   8.898 -0.3770  1.5606 -0.3018
48367SOL     OW51958  11.689   9.507   7.686 -0.0631 -0.2809 -0.1249
48367SOL    HW151959  11.653   9.499   7.598  1.1330  0.5306 -0.7174
48367SOL    HW251960  11.711   9.417   7.712 -1.1341 -0.6093 -0.3258
48368SOL     OW51961   0.344   3.936  10.248 -0.1757 -0.1362  0.0038
48368SOL    HW151962   0.397   3.925  10.169 -0.5994  0.7704 -0.4299
48368SOL    HW251963   0.345   3.850  10.290  1.7377 -0.1218  0.0915
48369SOL     OW51964   1.441   3.629   2.898 -0.1423  0.1588 -0.2806
48369SOL    HW151965   1.490   3.592   2.971  0.1874  1.6788  0.3162
48369SOL    HW251966   1.404   3.553   2.852 -0.3365 -0.8350  1.4469
48370SOL     OW51967   7.659   8.182  12.304  0.1074 -0.0718 -0.0047
48370SOL    HW151968   7.692   8.232  12.379 -0.4612 -0.8207  0.7635
48370SOL    HW251969   7.577   8.226  12.281  1.1653  1.2896 -1.3970
48371SOL     OW51970  11.113   1.393  12.112  0.0881 -0.9087  0.1798
48371SOL    HW151971  11.108   1.478  12.155 -0.8613 -2.1460  2.7362
48371SOL    HW251972  11.184   1.347  12.158  0.3810 -1.6166 -0.9494
48372SOL     OW51973   4.271  10.203  11.180 -0.3848  0.0476 -0.4201
48372SOL    HW151974   4.230  10.289  11.184 -0.0157  0.2474 -0.9027
48372SOL    HW251975   4.297  10.185  11.270  0.2810  0.8110 -0.4469
48373SOL     OW51976   4.416   6.266   5.777  0.2388 -0.1014 -0.4064
48373SOL    HW151977   4.418   6.277   5.872 -4.6446 -1.2606  0.0964
48373SOL    HW251978   4.440   6.174   5.763 -2.4706 -0.9949  0.2351
48374SOL     OW51979  11.572   8.840   3.960 -0.0109  0.3753 -0.3370
48374SOL    HW151980  11.530   8.788   4.028 -0.8345 -0.0304 -1.1258
48374SOL    HW251981  11.624   8.776   3.910 -0.1282  0.5069 -0.6305
48375SOL     OW51982   0.479   7.224   5.411 -0.1967  0.4462  0.0684
48375SOL    HW151983   0.538   7.225   5.336 -1.1827 -0.4596 -0.7432
48375SOL    HW251984   0.527   7.177   5.479  0.3218  0.4027 -0.3239
48376SOL     OW51985  11.484  10.336   3.765  0.1589  0.4302  0.1600
48376SOL    HW151986  11.490  10.331   3.861  0.0313 -0.5887  0.1280
48376SOL    HW251987  11.569  10.368   3.737  0.2296  0.6483  0.6147
48377SOL     OW51988   8.642   5.473   0.234  0.2671 -0.0890 -0.6460
48377SOL    HW151989   8.634   5.378   0.226 -1.6728 -0.1270  0.7893
48377SOL    HW251990   8.728   5.494   0.198  1.2700 -2.5295  0.1516
48378SOL     OW51991   1.593   3.961   0.979 -0.7770 -0.2514  0.4545
48378SOL    HW151992   1.632   3.885   1.024 -1.4399 -1.1030 -0.3588
48378SOL    HW251993   1.551   3.923   0.902 -0.0004  1.1357 -0.6813
48379SOL     OW51994   7.587   7.421   5.687  0.2981 -0.3381  0.4582
48379SOL    HW151995   7.501   7.462   5.688 -0.1247 -0.9687 -2.0221
48379SOL    HW251996   7.644   7.485   5.645  0.5588 -0.6914  0.2605
48380SOL     OW51997   6.548   4.759   4.372 -0.0457  0.1664 -0.1964
48380SOL    HW151998   6.502   4.791   4.294 -0.7846 -1.0282 -0.2802
48380SOL    HW251999   6.512   4.810   4.444  0.1552  0.8065 -0.5338
48381SOL     OW52000   4.870   6.790   4.707  0.3386  0.1444 -0.1056
48381SOL    HW152001   4.862   6.884   4.695  0.4399  0.1819  0.1211
48381SOL    HW252002   4.886   6.756   4.619  2.4334  0.5553  0.0700
48382SOL     OW52003   4.297  11.547  12.123 -1.0628 -0.3274  0.7088
48382SOL    HW152004   4.221  11.509  12.080 -0.4067 -1.7007  0.7170
48382SOL    HW252005   4.345  11.591  12.053 -2.1487  1.1285  0.8064
48383SOL     OW52006  12.391   4.626   8.317 -0.0861 -0.1217 -0.4948
48383SOL    HW152007  12.382   4.683   8.393  0.7127 -1.4903  0.6636
48383SOL    HW252008  12.399   4.686   8.243  0.1375  1.2575  0.6054
48384SOL     OW52009   8.733   2.840  11.662  0.6090  0.1830 -0.1556
48384SOL    HW152010   8.684   2.864  11.584  0.0002  0.6120  0.3460
48384SOL    HW252011   8.800   2.780  11.631  0.3595  0.3303 -1.0013
48385SOL     OW52012   7.317   0.187   9.816  0.1926  0.3748 -0.0108
48385SOL    HW152013   7.332   0.278   9.791 -1.5011  0.6559 -0.1518
48385SOL    HW252014   7.348   0.136   9.742  0.3148  0.8901 -0.3201
48386SOL     OW52015   4.035   0.764  12.178  0.7684 -0.5684  0.7652
48386SOL    HW152016   3.984   0.845  12.183  2.3149  0.5309 -0.2628
48386SOL    HW252017   4.116   0.789  12.133  1.1621 -2.7575  0.1097
48387SOL     OW52018   5.135   2.599   5.940 -0.1394 -0.2667 -0.1533
48387SOL    HW152019   5.098   2.598   6.028 -0.2959  2.0517 -0.1424
48387SOL    HW252020   5.062   2.626   5.884  0.4775  0.2979 -0.7010
48388SOL     OW52021   8.102   4.978  10.210  0.4565  0.4632  0.2910
48388SOL    HW152022   8.072   4.890  10.189 -2.0810  1.3747 -0.1542
48388SOL    HW252023   8.197   4.968  10.222  0.4820 -2.0108 -1.2556
48389SOL     OW52024   6.588   0.170  10.914  0.2505 -0.3121 -0.4708
48389SOL    HW152025   6.500   0.204  10.899  0.8591  1.3520 -0.5038
48389SOL    HW252026   6.591   0.151  11.008 -0.0412 -0.0827 -0.4140
48390SOL     OW52027  11.729   7.342  11.083 -0.0562 -0.5471  0.1112
48390SOL    HW152028  11.791   7.273  11.060  0.2547  0.0022 -0.7393
48390SOL    HW252029  11.742   7.409  11.016 -2.8863 -1.2264 -1.2644
48391SOL     OW52030   8.699  10.177   9.472  0.1347 -0.1125 -0.2512
48391SOL    HW152031   8.762  10.113   9.502  0.8164  0.4335 -0.4996
48391SOL    HW252032   8.707  10.250   9.534 -0.8879 -0.3998  0.2455
48392SOL     OW52033   1.786   5.533   9.192  0.2875  0.2935 -0.8703
48392SOL    HW152034   1.733   5.527   9.272  0.2320  1.6016 -0.7843
48392SOL    HW252035   1.780   5.625   9.167  0.8482  0.0302 -2.0199
48393SOL     OW52036  11.379   3.275   1.661  0.4741  0.7839  0.3454
48393SOL    HW152037  11.366   3.329   1.583  1.0194  0.4306  0.0049
48393SOL    HW252038  11.337   3.192   1.639 -1.0536  1.3016  1.1629
48394SOL     OW52039   5.606   0.213  10.192 -0.9054 -0.5549 -0.1199
48394SOL    HW152040   5.688   0.169  10.172 -0.7386  0.3308 -1.4950
48394SOL    HW252041   5.632   0.295  10.235 -1.1105 -0.6244  0.1431
48395SOL     OW52042  11.540   6.892  12.068 -0.0426 -0.1388 -0.3181
48395SOL    HW152043  11.559   6.917  11.978  0.9957 -1.3057 -0.4368
48395SOL    HW252044  11.445   6.879  12.069 -0.1996  0.8499 -0.9815
48396SOL     OW52045   2.953   3.904   4.528  0.1017 -0.3006 -0.4403
48396SOL    HW152046   3.010   3.923   4.453  2.0130  1.0244  1.2201
48396SOL    HW252047   2.925   3.990   4.559 -0.6099 -0.8185  0.3927
48397SOL     OW52048   7.964   8.937  11.532 -0.0167 -0.4293 -0.4276
48397SOL    HW152049   8.036   8.943  11.470 -0.1701  0.3767 -0.5322
48397SOL    HW252050   7.951   9.026  11.563 -1.6399 -0.3813 -1.1688
48398SOL     OW52051   2.924   3.749  10.533 -0.3054  0.0900 -0.2361
48398SOL    HW152052   2.956   3.737  10.623 -0.9939  1.0089  0.1541
48398SOL    HW252053   2.906   3.843  10.527 -1.5928 -0.1716 -0.8677
48399SOL     OW52054   2.861   1.538   9.969 -0.0922 -0.6280  0.2970
48399SOL    HW152055   2.878   1.532  10.063 -0.1006  0.2592  0.3696
48399SOL    HW252056   2.909   1.465   9.931  0.0272 -0.9117  0.9746
48400SOL     OW52057   6.047   5.698   8.904 -0.2335 -0.0656  0.1713
48400SOL    HW152058   6.101   5.761   8.856  1.4072  1.8091  4.0112
48400SOL    HW252059   6.110   5.637   8.942 -1.7307 -3.8529 -2.7490
48401SOL     OW52060   8.389  11.141  12.415 -0.2171  0.1989 -0.0594
48401SOL    HW152061   8.438  11.218  12.386 -0.2514  0.3939  0.4002
48401SOL    HW252062   8.457  11.080  12.447 -0.2566  0.3920  0.3960
48402SOL     OW52063   9.145   3.028  11.896  0.2207 -0.3876 -0.4333
48402SOL    HW152064   9.197   2.993  11.968 -0.4986  0.4699  0.5343
48402SOL    HW252065   9.180   2.985  11.818  0.6301 -1.7697  0.4830
48403SOL     OW52066   2.544   2.600  10.520  0.2323  0.2565 -0.0936
48403SOL    HW152067   2.611   2.653  10.478  0.2695  0.3163  0.0409
48403SOL    HW252068   2.469   2.605  10.461  0.0250  0.9705  0.2219
48404SOL     OW52069   3.941   5.095   8.057  0.1223  0.1039  0.0001
48404SOL    HW152070   3.884   5.053   8.122 -0.5857  1.3261  0.1970
48404SOL    HW252071   3.880   5.132   7.993  0.6845  1.4821  0.2337
48405SOL     OW52072   8.283  12.236   1.603  0.1346  0.3965 -0.1200
48405SOL    HW152073   8.316  12.324   1.621 -2.4897  1.4324  0.0721
48405SOL    HW252074   8.245  12.207   1.686  1.3410 -1.1679 -0.0534
48406SOL     OW52075   7.763  10.018   1.769 -0.5722 -0.1926 -0.2522
48406SOL    HW152076   7.751   9.990   1.679  1.9487 -2.4331 -0.0009
48406SOL    HW252077   7.849  10.059   1.771 -0.0322 -1.3138  1.3490
48407SOL     OW52078   8.043  12.092   2.009 -0.3176 -0.3952 -0.6636
48407SOL    HW152079   8.080  12.169   2.051 -3.0998 -0.7900  3.0598
48407SOL    HW252080   7.949  12.110   2.006 -0.7706 -2.6383 -2.0400
48408SOL     OW52081   2.374   3.491   4.204  0.0555 -0.2565 -0.3295
48408SOL    HW152082   2.363   3.398   4.187  0.7830 -0.0865 -1.9704
48408SOL    HW252083   2.321   3.508   4.281 -0.2282 -1.9875 -0.1044
48409SOL     OW52084   6.794   3.481   8.025  1.0232 -0.1196 -0.6387
48409SOL    HW152085   6.809   3.558   8.079  0.1063 -1.0566  1.0491
48409SOL    HW252086   6.837   3.410   8.072  0.7715 -0.8681 -1.4973
48410SOL     OW52087   5.888   3.904   4.120 -0.2733 -0.6360  0.6561
48410SOL    HW152088   5.803   3.893   4.078 -0.5463  0.2932  0.9331
48410SOL    HW252089   5.871   3.891   4.213  0.0123 -1.0828  0.6476
48411SOL     OW52090   0.761   4.390   0.367  0.2970 -0.1176 -0.6093
48411SOL    HW152091   0.811   4.341   0.432  1.3501  1.2027 -0.3819
48411SOL    HW252092   0.752   4.477   0.404 -1.2239 -0.0051 -1.1721
48412SOL     OW52093   6.926   5.991   8.262 -0.5118  0.1971 -0.1874
48412SOL    HW152094   6.907   5.976   8.169 -1.0400 -0.6325  0.0450
48412SOL    HW252095   6.905   5.908   8.305 -1.3741  0.9178  0.8450
48413SOL     OW52096  11.733   4.821   1.028  0.0213 -0.5243 -0.1309
48413SOL    HW152097  11.640   4.817   1.004  0.3206  0.1840 -1.4577
48413SOL    HW252098  11.780   4.822   0.945  1.2903 -1.8611  0.5212
48414SOL     OW52099  12.253  12.051  12.400  0.2910  0.2807  0.2188
48414SOL    HW152100  12.159  12.034  12.395  0.7978 -2.6373 -2.8587
48414SOL    HW252101  12.278  12.019  12.486 -1.0843 -2.3484 -0.2537
48415SOL     OW52102   4.487   9.677   8.744  0.4504  0.0123 -0.0093
48415SOL    HW152103   4.493   9.632   8.659 -2.0235 -0.2725 -0.1042
48415SOL    HW252104   4.483   9.606   8.808  0.7242  0.1931  0.2083
48416SOL     OW52105   0.458   4.903   6.513 -0.0955 -1.0898  0.3662
48416SOL    HW152106   0.535   4.866   6.469  0.2542 -0.4469  0.4253
48416SOL    HW252107   0.411   4.828   6.547  1.2787 -1.4131  1.6203
48417SOL     OW52108   7.097   1.308   2.621  0.0437  0.0158 -0.2107
48417SOL    HW152109   7.034   1.277   2.685  1.2314  0.4087  1.2037
48417SOL    HW252110   7.119   1.396   2.649 -0.3940  0.7363 -1.9543
48418SOL     OW52111   6.725   7.785   8.935  0.2638  0.0391  0.8883
48418SOL    HW152112   6.797   7.742   8.981  0.7696  1.5048  1.5426
48418SOL    HW252113   6.769   7.841   8.871 -0.3786 -0.5032 -0.0481
48419SOL     OW52114   5.166   5.174   1.178  0.2614 -0.6382 -0.0808
48419SOL    HW152115   5.072   5.174   1.160  0.1125 -0.6868  0.6725
48419SOL    HW252116   5.174   5.136   1.265  1.0390 -1.2524 -0.4077
48420SOL     OW52117   6.462   1.287   9.347 -0.1538  0.2765 -0.7348
48420SOL    HW152118   6.526   1.339   9.396 -0.6696  2.0626 -1.8642
48420SOL    HW252119   6.480   1.307   9.255 -1.0824 -0.7401 -1.1627
48421SOL     OW52120   1.888   1.837   3.689 -0.3574  0.0107 -0.5639
48421SOL    HW152121   1.806   1.828   3.641 -0.1050  0.1380 -1.0294
48421SOL    HW252122   1.862   1.864   3.777 -0.7385  1.7338 -1.1692
48422SOL     OW52123   7.030  10.608  10.922  0.2194 -0.6248  0.0172
48422SOL    HW152124   7.072  10.666  10.987 -0.2632 -0.0753 -0.1478
48422SOL    HW252125   7.020  10.663  10.844  0.8002 -1.2839 -0.5314
48423SOL     OW52126   4.621   2.658  10.430  0.0103  0.6504  0.3289
48423SOL    HW152127   4.527   2.654  10.447 -0.1514  0.4628 -0.5479
48423SOL    HW252128   4.631   2.621  10.342  1.1477 -1.5586  1.2870
48424SOL     OW52129   7.449  12.268  11.586 -0.1257 -0.4060  0.1743
48424SOL    HW152130   7.492  12.184  11.596  2.3113  0.7495  0.2183
48424SOL    HW252131   7.499  12.328  11.642 -0.2980  1.5529 -1.6211
48425SOL     OW52132   7.851   5.268   3.828 -0.2796  0.3883  0.1564
48425SOL    HW152133   7.757   5.249   3.822 -0.1967 -0.6148  1.5850
48425SOL    HW252134   7.891   5.184   3.853  0.9295  0.9494  0.1650
48426SOL     OW52135   3.243   2.571   5.381 -0.5312 -0.3549 -0.2448
48426SOL    HW152136   3.220   2.479   5.371 -2.0717  0.0196 -0.3766
48426SOL    HW252137   3.194   2.616   5.312 -1.2894  0.7772  0.9919
48427SOL     OW52138   9.947   6.049  10.362 -0.3683  0.3103 -0.4204
48427SOL    HW152139  10.017   5.988  10.339 -0.3584  0.4248 -0.7057
48427SOL    HW252140   9.933   6.100  10.282 -1.4833 -0.3912 -0.7002
48428SOL     OW52141   2.211  11.941   9.458 -0.0068  0.4698 -0.8711
48428SOL    HW152142   2.152  12.002   9.415  1.0323  2.0724 -0.1345
48428SOL    HW252143   2.178  11.935   9.548  0.6665  1.0348 -0.5751
48429SOL     OW52144   6.856   4.755   5.720  0.4297 -0.1166  0.1175
48429SOL    HW152145   6.869   4.823   5.654  3.2344 -0.3498  0.2970
48429SOL    HW252146   6.888   4.675   5.678 -2.0491 -1.2376  0.2068
48430SOL     OW52147   0.063   9.602  12.431 -0.7668  0.0039 -0.2028
48430SOL    HW152148   0.145   9.612  12.383 -0.7025 -1.3574 -0.4123
48430SOL    HW252149   0.089   9.608  12.523 -0.4054 -0.5631 -0.2618
48431SOL     OW52150  10.292  10.560  10.709 -0.0966 -0.3603 -0.3871
48431SOL    HW152151  10.282  10.471  10.675  2.0212 -0.7950  0.0072
48431SOL    HW252152  10.217  10.572  10.768 -0.8043 -1.5996 -0.9914
48432SOL     OW52153   2.892   5.337   0.716  0.1375  0.2211  0.1136
48432SOL    HW152154   2.914   5.339   0.623  0.4440  1.3261  0.1986
48432SOL    HW252155   2.846   5.419   0.731 -1.1012 -0.5497  0.6659
48433SOL     OW52156   8.415   0.045   3.989  0.7277  0.4372  0.4511
48433SOL    HW152157   8.478   0.097   4.038  1.2025 -0.2177  0.5473
48433SOL    HW252158   8.467  -0.001   3.923  0.1737  0.8892 -0.3227
48434SOL     OW52159   2.957  11.256   0.685  0.4490  0.2586 -0.2299
48434SOL    HW152160   2.990  11.302   0.608 -1.6409  0.8990 -0.8260
48434SOL    HW252161   2.924  11.325   0.743  0.3637 -0.3116  0.4220
48435SOL     OW52162   3.189   7.767   0.987  0.3604  0.0274 -0.6215
48435SOL    HW152163   3.206   7.848   0.938  0.2034 -0.2690 -1.1683
48435SOL    HW252164   3.152   7.707   0.923  0.3686 -0.4465 -0.1897
48436SOL     OW52165   7.273   2.370   3.747 -0.6605  0.3395 -0.0816
48436SOL    HW152166   7.267   2.319   3.666 -0.8423  1.7818 -1.0233
48436SOL    HW252167   7.183   2.375   3.778 -0.6361  0.0553  0.0385
48437SOL     OW52168   7.358  11.389  11.024 -0.4155 -0.0109 -0.4008
48437SOL    HW152169   7.303  11.434  10.959 -0.4590  0.4228 -0.0678
48437SOL    HW252170   7.297  11.355  11.089 -0.2416  1.4243  0.5634
48438SOL     OW52171   2.671   2.082   6.257  0.1702 -0.1338 -0.9723
48438SOL    HW152172   2.665   1.986   6.261  0.1549 -0.1316 -0.9399
48438SOL    HW252173   2.649   2.111   6.345  0.5893 -0.1175 -0.8717
48439SOL     OW52174   6.296   7.469   9.213 -0.4079 -0.2379 -0.0147
48439SOL    HW152175   6.303   7.382   9.252 -1.8456 -0.6223 -0.5268
48439SOL    HW252176   6.369   7.474   9.151  0.2210 -0.7087  0.6753
48440SOL     OW52177   8.391   6.904  11.539 -0.5971  0.0457  0.7114
48440SOL    HW152178   8.355   6.947  11.616 -0.8593  0.4381  0.3705
48440SOL    HW252179   8.447   6.969  11.498 -0.0509 -0.3293  0.8461
48441SOL     OW52180   1.376   6.578   1.306 -0.4315 -0.0780  0.1491
48441SOL    HW152181   1.361   6.487   1.280 -2.4807  0.5307 -0.9661
48441SOL    HW252182   1.460   6.601   1.266 -1.0899 -0.7437 -1.6734
48442SOL     OW52183   9.266   9.345   5.200 -0.1146 -0.2843 -0.2829
48442SOL    HW152184   9.178   9.346   5.238 -0.3093  0.8270 -0.7491
48442SOL    HW252185   9.266   9.269   5.141 -0.5350 -0.6750  0.2044
48443SOL     OW52186   0.358   0.334   0.137 -0.4412  0.2366  0.4517
48443SOL    HW152187   0.450   0.339   0.111 -0.5678 -2.3381 -0.8117
48443SOL    HW252188   0.310   0.363   0.059 -0.7033  0.1163  0.5681
48444SOL     OW52189   8.841   9.045   6.776 -0.8679  0.3324 -0.1764
48444SOL    HW152190   8.907   9.004   6.832 -0.4829  1.2201  0.0374
48444SOL    HW252191   8.883   9.125   6.743 -1.2386  0.0420 -1.4027
48445SOL     OW52192  11.583   9.392   2.556  0.0737 -0.1878 -0.1706
48445SOL    HW152193  11.658   9.360   2.606 -0.6525 -0.9039  0.4861
48445SOL    HW252194  11.586   9.342   2.474  1.2608  0.9865 -0.8754
48446SOL     OW52195   4.048   2.565   0.335  0.0117  0.6655  0.6045
48446SOL    HW152196   4.121   2.504   0.338 -1.3987 -1.2759 -1.2915
48446SOL    HW252197   4.059   2.613   0.253 -1.0675 -0.0460  0.0088
48447SOL     OW52198  11.325   5.221   7.822  0.5336  0.0113 -0.5390
48447SOL    HW152199  11.365   5.137   7.798  1.7438  0.7427 -1.1896
48447SOL    HW252200  11.323   5.220   7.917  0.3856 -0.8131 -0.5386
48448SOL     OW52201   0.471   3.852  10.754 -0.2500  0.7122  0.3550
48448SOL    HW152202   0.531   3.907  10.805 -1.2896  0.1608  2.2848
48448SOL    HW252203   0.395   3.908  10.739 -0.0556  0.7835 -0.3899
48449SOL     OW52204   4.757   0.473  12.310 -0.1686 -0.0350 -0.9842
48449SOL    HW152205   4.662   0.476  12.319 -0.0526  2.1479  0.2700
48449SOL    HW252206   4.787   0.426  12.387 -0.1521  1.4851 -0.0244
48450SOL     OW52207   2.150   4.409   3.007 -0.2460  0.0587 -0.0454
48450SOL    HW152208   2.233   4.417   2.960 -0.2342 -0.5058 -0.1237
48450SOL    HW252209   2.156   4.475   3.076 -0.3346  1.0210 -0.9318
48451SOL     OW52210   1.143   5.673   8.856 -0.1756 -0.3353 -0.0703
48451SOL    HW152211   1.146   5.594   8.802 -1.9334  0.3208 -1.2019
48451SOL    HW252212   1.144   5.745   8.793  0.3318  0.5337  0.8971
48452SOL     OW52213  10.291   5.631  10.845 -0.1522  0.0051  0.1397
48452SOL    HW152214  10.334   5.580  10.776 -1.3157 -0.2139 -0.4599
48452SOL    HW252215  10.361   5.651  10.907  0.8679 -0.0846 -0.9291
48453SOL     OW52216   1.660  12.124   9.148  0.0828 -0.1154 -0.9506
48453SOL    HW152217   1.592  12.189   9.133  0.1682  0.2265  0.0453
48453SOL    HW252218   1.731  12.149   9.089  0.0677  0.6266 -0.6566
48454SOL     OW52219   3.052  12.411   3.290 -0.1014 -0.0603  0.3493
48454SOL    HW152220   3.123  12.390   3.350 -0.0567  0.8846  0.6399
48454SOL    HW252221   3.019  12.326   3.261  1.3215 -0.5105 -0.0138
48455SOL     OW52222   5.106  11.100   9.065  0.3212  0.1483 -0.2267
48455SOL    HW152223   5.139  11.022   9.109 -1.0148 -0.3114  0.0282
48455SOL    HW252224   5.019  11.115   9.104  0.0762  1.0915 -1.0705
48456SOL     OW52225  12.459   6.007   1.924 -0.1181  0.2040  0.0250
48456SOL    HW152226  12.465   6.048   1.838 -1.6527 -1.0087 -0.7057
48456SOL    HW252227  12.544   6.023   1.964  0.7662  0.4866 -1.8656
48457SOL     OW52228   9.348  10.381   7.636  0.1067 -0.5633 -0.3127
48457SOL    HW152229   9.329  10.328   7.559 -1.4337  0.3792 -0.6415
48457SOL    HW252230   9.306  10.465   7.618  0.7141  0.0718  1.0648
48458SOL     OW52231  12.375   5.207   4.813  0.4612  0.6896  0.2852
48458SOL    HW152232  12.458   5.242   4.846  1.6715 -0.7251 -1.0607
48458SOL    HW252233  12.308   5.245   4.870  2.1449  0.7169  2.3672
48459SOL     OW52234   9.016   5.554   8.267 -0.1394 -0.1125 -0.0225
48459SOL    HW152235   8.963   5.614   8.214 -0.5776 -0.3921  0.0880
48459SOL    HW252236   9.006   5.469   8.223  0.1373 -0.1885  0.0592
48460SOL     OW52237   1.344   9.540   2.124 -0.1338 -0.1550 -0.2287
48460SOL    HW152238   1.358   9.449   2.150 -0.4460  0.2773  1.5732
48460SOL    HW252239   1.416   9.559   2.064 -0.4240 -1.7617 -1.1359
48461SOL     OW52240   7.972   4.655   4.256  0.2936  0.1241 -0.1637
48461SOL    HW152241   8.051   4.602   4.242 -0.7087 -0.9421 -2.3128
48461SOL    HW252242   7.992   4.739   4.215  0.9209  0.5179  0.8985
48462SOL     OW52243   3.605   8.897   1.999  0.3490 -0.7136 -0.2744
48462SOL    HW152244   3.528   8.845   1.976 -0.6378  0.4835  0.2337
48462SOL    HW252245   3.570   8.982   2.025  1.6982 -0.7689  1.9129
48463SOL     OW52246   4.379   8.555   6.144  0.3446 -0.5576 -0.2632
48463SOL    HW152247   4.329   8.474   6.134 -0.8098  0.2330 -1.1771
48463SOL    HW252248   4.343   8.595   6.223 -0.8414  0.2340 -1.1730
48464SOL     OW52249   6.002   1.227  11.839  0.0841 -0.4011  0.1070
48464SOL    HW152250   5.922   1.248  11.790  0.0249 -2.6843 -0.9157
48464SOL    HW252251   5.973   1.222  11.930 -0.8478 -0.6922 -0.1885
48465SOL     OW52252  12.205   4.274  12.421 -0.2175  0.7161 -0.4039
48465SOL    HW152253  12.213   4.368  12.439 -1.9930  1.5574 -3.2834
48465SOL    HW252254  12.118   4.251  12.454  0.0208  0.1957 -0.1364
48466SOL     OW52255   4.498  10.960   6.399  0.5852  0.6580 -0.2346
48466SOL    HW152256   4.416  11.011   6.400  0.3677  0.3964 -1.6362
48466SOL    HW252257   4.472  10.874   6.366  1.4462  0.6163 -0.8346
48467SOL     OW52258   5.370  10.258  10.339  0.0921 -0.4492  0.5986
48467SOL    HW152259   5.448  10.217  10.301 -0.3512 -0.0817 -0.7706
48467SOL    HW252260   5.296  10.213  10.297 -0.4136  0.5465  0.3879
48468SOL     OW52261   5.437   0.055  11.488 -0.2029  0.1273  0.7136
48468SOL    HW152262   5.356   0.003  11.487 -0.4705  0.4927 -0.9804
48468SOL    HW252263   5.466   0.055  11.396  2.1558 -0.6371  1.3744
48469SOL     OW52264   2.668   6.355   0.863  0.4742  0.2516 -0.4009
48469SOL    HW152265   2.724   6.397   0.929  0.6471  2.5471 -1.9099
48469SOL    HW252266   2.582   6.395   0.876  0.8427  1.8609 -2.4201
48470SOL     OW52267   6.291   3.012   6.034  0.7901  0.1933  0.3558
48470SOL    HW152268   6.383   3.039   6.045  0.1137  2.0491  1.9619
48470SOL    HW252269   6.258   3.001   6.123 -1.0007  1.2701 -0.1289
48471SOL     OW52270   0.538   6.673  11.396  0.2561  0.2819 -0.2174
48471SOL    HW152271   0.630   6.661  11.374  0.7933  0.0662  1.9136
48471SOL    HW252272   0.521   6.611  11.468 -0.5906  2.5921  1.7336
48472SOL     OW52273   0.762   5.273   7.608  0.3747 -0.2591  0.4824
48472SOL    HW152274   0.828   5.214   7.645  1.1725 -1.0562 -2.0225
48472SOL    HW252275   0.806   5.314   7.533 -1.3760  0.6429 -0.1073
48473SOL     OW52276   4.542   7.940   4.455 -0.5738  0.5334 -0.1812
48473SOL    HW152277   4.606   7.876   4.423 -0.7856 -1.3011  2.6636
48473SOL    HW252278   4.460   7.891   4.461 -1.0294  1.3908  0.9768
48474SOL     OW52279   7.393   7.310  11.202  0.7728  0.1742 -0.4162
48474SOL    HW152280   7.370   7.276  11.116 -0.3346  0.4953 -0.2572
48474SOL    HW252281   7.398   7.232  11.257 -0.7964  0.1345 -0.2764
48475SOL     OW52282   9.031   7.861   8.171  0.1086  0.1122  0.1542
48475SOL    HW152283   8.999   7.928   8.231  0.4250  1.0047 -0.6422
48475SOL    HW252284   9.116   7.834   8.208  0.0633  0.2807  0.3846
48476SOL     OW52285   0.585   0.303   3.368  0.5750  0.1817  0.6131
48476SOL    HW152286   0.653   0.244   3.336 -0.0395 -0.2522  0.0701
48476SOL    HW252287   0.607   0.389   3.332  0.0798 -0.2301 -0.7374
48477SOL     OW52288   9.409   8.016   8.083  0.0458 -0.2969  0.0414
48477SOL    HW152289   9.429   7.941   8.028 -0.3225 -0.2101 -0.2173
48477SOL    HW252290   9.322   8.044   8.054  1.9605  3.2445 -3.3184
48478SOL     OW52291   8.942  10.195   0.695  0.0820 -0.0854  0.6369
48478SOL    HW152292   8.852  10.171   0.669  0.1528 -1.4298  1.5420
48478SOL    HW252293   8.977  10.240   0.618 -1.0953 -0.2691 -0.0446
48479SOL     OW52294   8.866   3.919  10.948  0.6807 -0.4816 -0.4303
48479SOL    HW152295   8.922   3.975  11.002  0.1478 -1.2472  0.9485
48479SOL    HW252296   8.822   3.861  11.010 -2.2257  0.5510 -1.3451
48480SOL     OW52297   6.770   4.875   2.775  0.6195 -0.1128 -0.0827
48480SOL    HW152298   6.725   4.837   2.700 -1.2339  1.0167  0.4053
48480SOL    HW252299   6.790   4.965   2.749  1.0154 -0.0656  0.3558
48481SOL     OW52300   0.116   3.439   8.497  0.0357 -0.3058  0.3711
48481SOL    HW152301   0.095   3.347   8.481 -2.3931 -0.0323  1.5153
48481SOL    HW252302   0.069   3.487   8.428 -0.2339  0.1507  0.8585
48482SOL     OW52303   2.939  12.509   3.557  0.1064  0.6394 -0.0900
48482SOL    HW152304   2.909  12.453   3.486 -2.2288  1.3566  0.2429
48482SOL    HW252305   2.931  12.455   3.636 -1.4103  1.1148  0.1276
48483SOL     OW52306   1.880  10.665  11.353 -0.1062  0.5197  0.1000
48483SOL    HW152307   1.915  10.585  11.313 -1.5570 -0.0310 -0.1357
48483SOL    HW252308   1.830  10.707  11.283 -1.3680  0.3651  0.8821
48484SOL     OW52309   2.124   9.394   4.439 -0.6095 -0.4735  0.4099
48484SOL    HW152310   2.160   9.354   4.519 -1.6138  1.6474  2.0214
48484SOL    HW252311   2.031   9.409   4.460 -1.4396 -1.7706 -1.9908
48485SOL     OW52312   0.551  10.083  10.898  0.0855 -0.4393 -0.2569
48485SOL    HW152313   0.619  10.143  10.929 -0.8360 -0.1461  1.2624
48485SOL    HW252314   0.494  10.137  10.844 -1.3262  0.3753  1.9355
48486SOL     OW52315   8.146   1.984   1.809 -0.0511  0.0280 -0.1634
48486SOL    HW152316   8.209   2.012   1.875 -0.6316  0.3289  0.2700
48486SOL    HW252317   8.107   1.904   1.846 -0.8160  0.5363  0.1455
48487SOL     OW52318   0.814   1.876  12.258  0.4153 -0.2892 -0.2245
48487SOL    HW152319   0.909   1.881  12.270  0.3727  0.0324 -0.0262
48487SOL    HW252320   0.797   1.782  12.245  0.5141 -0.6414  1.8233
48488SOL     OW52321   0.893  10.304   0.270 -0.7164 -0.0246 -0.3786
48488SOL    HW152322   0.947  10.270   0.342 -0.0919  4.2578  1.5528
48488SOL    HW252323   0.956  10.341   0.208 -1.2900  0.9513 -0.4152
48489SOL     OW52324   0.802   1.414   5.266  0.4965  0.0200  0.5933
48489SOL    HW152325   0.708   1.410   5.282  0.6574 -1.7574  1.2803
48489SOL    HW252326   0.817   1.503   5.232 -1.2515  0.7086  1.5069
48490SOL     OW52327  10.769   9.374   8.677 -0.2367  0.1123 -0.3244
48490SOL    HW152328  10.842   9.436   8.674  0.2206 -0.4713 -2.4322
48490SOL    HW252329  10.700   9.416   8.624 -1.1037  0.1957  0.8141
48491SOL     OW52330  12.574   3.447   1.264 -0.0307 -0.2375  0.0883
48491SOL    HW152331  12.653   3.393   1.254 -1.9376 -3.1549 -0.5088
48491SOL    HW252332  12.532   3.414   1.343 -1.5210  0.0477 -0.5494
48492SOL     OW52333  10.557  10.350   0.317 -0.2052  0.1875 -0.3215
48492SOL    HW152334  10.571  10.426   0.374  0.6474  0.1060 -0.4124
48492SOL    HW252335  10.565  10.275   0.376  1.3179  0.0714 -0.6288
48493SOL     OW52336   5.984  12.092   6.330  0.0832 -0.3323 -0.3103
48493SOL    HW152337   5.978  12.163   6.266 -4.1195 -0.1486  0.0110
48493SOL    HW252338   6.024  12.019   6.281 -0.9624  0.4745 -2.5189
48494SOL     OW52339   0.378   0.048   2.225 -0.0894  0.3670  0.6161
48494SOL    HW152340   0.330   0.010   2.298 -0.5085  1.7347  1.0615
48494SOL    HW252341   0.316   0.107   2.183  0.6211  0.7380  0.0601
48495SOL     OW52342   2.541   7.223   6.208  0.6326 -0.1996  0.0146
48495SOL    HW152343   2.515   7.249   6.297 -0.2484 -2.4281  0.4983
48495SOL    HW252344   2.599   7.148   6.222  2.1557  0.6975 -1.2768
48496SOL     OW52345   4.189   6.826   4.002 -0.8741  0.0203  0.0526
48496SOL    HW152346   4.168   6.903   4.056 -0.1624  0.2733 -0.0182
48496SOL    HW252347   4.276   6.800   4.031 -1.0020 -0.6072 -0.1117
48497SOL     OW52348   9.489   9.503  10.889  0.1079 -0.9867 -0.4217
48497SOL    HW152349   9.487   9.532  10.797 -0.3463 -0.3404 -0.2080
48497SOL    HW252350   9.516   9.580  10.938  0.2554 -1.3079  0.0082
48498SOL     OW52351   4.992  10.752   6.119  0.5229 -0.5554  0.3033
48498SOL    HW152352   4.919  10.814   6.112 -0.2411 -1.5423 -0.7754
48498SOL    HW252353   5.042  10.764   6.038  1.0942 -0.4794  0.6603
48499SOL     OW52354   8.944   6.622   1.886 -0.0249  0.1264 -0.0249
48499SOL    HW152355   9.027   6.669   1.880  0.0358  0.5399  2.6627
48499SOL    HW252356   8.950   6.554   1.819  1.4701  1.5863 -1.4555
48500SOL     OW52357   5.834   5.460   6.335 -0.2659 -0.8411  0.0947
48500SOL    HW152358   5.801   5.406   6.407  0.6748 -0.0229  1.1888
48500SOL    HW252359   5.869   5.538   6.379 -0.8090  0.2587 -1.3689
48501SOL     OW52360  12.351   1.697   3.284 -0.0608  0.2100  0.2881
48501SOL    HW152361  12.306   1.613   3.297 -0.5820  0.3683 -0.3682
48501SOL    HW252362  12.311   1.756   3.348  0.8564 -0.2296  1.2838
48502SOL     OW52363   7.110  11.990   0.992 -0.3815  0.3720  0.6512
48502SOL    HW152364   7.097  11.895   0.989 -1.8758  0.4664  2.3977
48502SOL    HW252365   7.082  12.016   1.080 -1.4689  2.6172 -0.2670
48503SOL     OW52366   4.353   7.211   3.491  0.0105  0.1828  0.2173
48503SOL    HW152367   4.327   7.120   3.477 -0.4400  0.2689  0.4743
48503SOL    HW252368   4.437   7.206   3.536 -0.8162 -0.1263  1.7935
48504SOL     OW52369   8.427   8.229  11.100 -0.5272  0.0036  0.0026
48504SOL    HW152370   8.432   8.165  11.171  0.0564 -0.9310 -0.8572
48504SOL    HW252371   8.496   8.293  11.121 -0.1093 -0.4677  0.0930
48505SOL     OW52372   1.080   1.558   9.991 -0.3355  0.3302 -0.3499
48505SOL    HW152373   1.008   1.496   9.980 -1.8707  1.4414  2.3979
48505SOL    HW252374   1.159   1.505   9.982 -1.5608 -1.7929  0.6394
48506SOL     OW52375   7.698   8.913  11.549 -0.4041 -0.1957 -0.5708
48506SOL    HW152376   7.671   8.937  11.460  1.0212  0.3624 -0.8898
48506SOL    HW252377   7.792   8.932  11.551 -0.4967  0.2766  1.2108
48507SOL     OW52378  12.392   9.494  12.465 -0.5066 -0.3118 -0.1358
48507SOL    HW152379  12.472   9.539  12.439 -0.6523 -0.3251 -0.6161
48507SOL    HW252380  12.321   9.553  12.438 -0.7179 -0.9888 -1.1215
48508SOL     OW52381   0.141   3.709   0.945  0.4166 -0.1470 -0.1887
48508SOL    HW152382   0.083   3.784   0.935  0.9611  0.2179 -0.7011
48508SOL    HW252383   0.103   3.641   0.889  0.1710 -0.1054 -0.0725
48509SOL     OW52384   4.578   4.660   6.243 -0.3219 -0.1972 -0.0632
48509SOL    HW152385   4.539   4.697   6.164  0.3446 -0.9514 -0.7681
48509SOL    HW252386   4.656   4.713   6.258  1.4214 -2.0385 -1.8814
48510SOL     OW52387   8.853  11.334   5.409 -0.0481 -0.1760  0.0114
48510SOL    HW152388   8.894  11.311   5.325 -1.2268 -1.6583 -0.2117
48510SOL    HW252389   8.824  11.424   5.398  0.4515 -0.1168 -0.9087
48511SOL     OW52390   3.084   7.331   2.873  0.3837 -0.0353  0.2659
48511SOL    HW152391   3.144   7.320   2.947  2.2814 -1.0766 -1.3242
48511SOL    HW252392   3.041   7.246   2.864  0.3430  0.0079  0.0419
48512SOL     OW52393   7.943   3.902  10.181 -0.2593  0.2715 -0.8819
48512SOL    HW152394   7.956   3.838  10.251  1.0428 -0.4022 -1.7009
48512SOL    HW252395   8.021   3.957  10.184 -0.8157  1.0987 -0.9600
48513SOL     OW52396   7.585  12.234   9.968 -0.1374  0.2158 -0.2357
48513SOL    HW152397   7.645  12.281  10.026  1.4828 -0.7882 -1.0202
48513SOL    HW252398   7.617  12.144   9.968 -0.9116 -0.0867 -1.6188
48514SOL     OW52399   9.373   9.986   3.221  0.6872  0.1277  0.6428
48514SOL    HW152400   9.354   9.902   3.261  2.5365 -0.2962  0.7032
48514SOL    HW252401   9.405   9.965   3.133 -0.9139  0.9090 -0.1750
48515SOL     OW52402   3.233   8.855   8.789  0.4038 -0.3591 -0.0057
48515SOL    HW152403   3.251   8.762   8.794 -1.0910 -0.5993  1.5836
48515SOL    HW252404   3.195   8.867   8.701 -1.0059 -1.5763  0.4012
48516SOL     OW52405   5.690   9.541   5.199 -0.2520 -0.3264 -0.3193
48516SOL    HW152406   5.682   9.579   5.287 -0.8424  0.3137 -0.6372
48516SOL    HW252407   5.767   9.584   5.161  0.8622 -1.6282  0.3655
48517SOL     OW52408   7.768  10.302  12.117  0.1205  0.3627  0.5662
48517SOL    HW152409   7.730  10.335  12.035  1.5251  0.0736 -0.2402
48517SOL    HW252410   7.694  10.264  12.164 -0.6142 -0.1708 -0.9412
48518SOL     OW52411   2.673   1.879   7.188 -0.0411 -0.0078  0.0208
48518SOL    HW152412   2.735   1.818   7.229  0.7185  0.3114 -0.6328
48518SOL    HW252413   2.684   1.961   7.236  1.0256  0.4387 -0.9285
48519SOL     OW52414   7.264   8.366  11.053 -0.3034  0.2566 -0.0876
48519SOL    HW152415   7.218   8.443  11.086  0.9246  1.5188 -1.2284
48519SOL    HW252416   7.263   8.376  10.958  2.0615  0.2060 -0.1752
48520SOL     OW52417  12.231   7.741   3.373 -0.3602  0.4608  0.6486
48520SOL    HW152418  12.178   7.693   3.310  0.0741 -0.2288  0.7900
48520SOL    HW252419  12.190   7.723   3.458  1.0629 -1.5097  0.9761
48521SOL     OW52420   9.017  12.157   1.834 -0.2304 -0.2070 -0.7063
48521SOL    HW152421   9.046  12.248   1.828 -0.6223 -0.1385 -1.6685
48521SOL    HW252422   9.096  12.108   1.856 -0.0869  0.4015  0.1736
48522SOL     OW52423   0.026   4.223  12.565 -0.0576 -0.0203 -0.2097
48522SOL    HW152424   0.023   4.201  12.658 -2.7189  0.7947 -0.0090
48522SOL    HW252425   0.001   4.143  12.520  1.1139 -0.3812 -0.2532
48523SOL     OW52426   5.134  10.644   7.766  0.0472  0.6406  0.1076
48523SOL    HW152427   5.094  10.703   7.830  0.4560 -1.3582  2.3445
48523SOL    HW252428   5.197  10.699   7.720  0.2990  2.0214  1.9526
48524SOL     OW52429  10.622   0.835   2.207 -0.2413 -0.6199 -0.1540
48524SOL    HW152430  10.556   0.864   2.271  0.2569  0.0765  0.0596
48524SOL    HW252431  10.702   0.826   2.259  0.6806  1.8805 -0.9763
48525SOL     OW52432   8.903   6.895   1.804  0.0952 -0.7677 -0.4808
48525SOL    HW152433   8.963   6.881   1.731  2.5957 -0.2541  1.3366
48525SOL    HW252434   8.892   6.809   1.843  1.5457 -0.5534  0.4935
48526SOL     OW52435  11.090   4.507   0.941  0.1648  0.4379  0.3721
48526SOL    HW152436  11.070   4.498   0.848  3.5112  0.4867 -0.4671
48526SOL    HW252437  11.083   4.418   0.976  1.0677  0.0426 -0.4369
48527SOL     OW52438   4.952   8.771  11.335  0.2502 -0.1724 -0.2634
48527SOL    HW152439   5.007   8.790  11.259 -1.3866 -1.6182 -1.8937
48527SOL    HW252440   4.987   8.827  11.404  2.2231  0.7105 -1.8756
48528SOL     OW52441   2.199   0.253   4.557 -0.2202  0.7762  0.0957
48528SOL    HW152442   2.128   0.283   4.613 -0.8898  1.4731 -1.0771
48528SOL    HW252443   2.269   0.317   4.569  0.0659  0.3256  0.9261
48529SOL     OW52444   4.015   0.222   0.465 -0.2611 -0.5560  0.1277
48529SOL    HW152445   4.032   0.256   0.377 -4.0189  2.1746  0.2015
48529SOL    HW252446   4.060   0.284   0.523 -1.0067 -0.0150  0.1429
48530SOL     OW52447   5.439   7.029   5.855  0.3224  0.0567  0.4060
48530SOL    HW152448   5.528   7.057   5.878 -0.5054  1.2523  2.3700
48530SOL    HW252449   5.445   6.933   5.851  1.6144  0.0965  0.8381
48531SOL     OW52450  11.621  11.441  11.182 -0.9730 -0.1470 -0.0590
48531SOL    HW152451  11.626  11.517  11.239  0.5189 -0.9559  0.9490
48531SOL    HW252452  11.681  11.460  11.110 -0.3791 -0.4701  0.3428
48532SOL     OW52453   2.775   2.720   0.084 -0.0355 -0.1909 -0.0985
48532SOL    HW152454   2.723   2.645   0.113 -0.1421 -0.0017  0.2090
48532SOL    HW252455   2.846   2.682   0.033 -1.3311 -0.3695 -1.8546
48533SOL     OW52456   7.040   7.145   5.514  0.2029 -0.0362 -0.5659
48533SOL    HW152457   7.104   7.120   5.580 -0.3400 -2.1490 -0.7852
48533SOL    HW252458   7.069   7.231   5.484  0.8173  0.7173  1.9485
48534SOL     OW52459   6.178   2.385  11.924  0.1357  0.1662 -0.1105
48534SOL    HW152460   6.180   2.475  11.890 -1.0353  0.6692  1.0771
48534SOL    HW252461   6.120   2.338  11.864  1.7210 -0.1639 -1.4709
48535SOL     OW52462   8.793  12.232   9.247 -0.3387  0.5084 -0.5503
48535SOL    HW152463   8.741  12.175   9.305  1.1801 -1.2029 -0.7633
48535SOL    HW252464   8.733  12.255   9.176 -0.8677 -1.3959 -0.7951
48536SOL     OW52465   4.902  10.366   2.299 -0.1348 -0.1251 -0.5836
48536SOL    HW152466   4.882  10.456   2.271  0.0891  0.0928 -0.0555
48536SOL    HW252467   4.991  10.350   2.269  0.0540  0.0579 -0.1291
48537SOL     OW52468  10.509   6.602   1.662 -0.5552  0.7185  0.1707
48537SOL    HW152469  10.598   6.585   1.692 -0.8450 -1.4184 -0.0874
48537SOL    HW252470  10.452   6.569   1.732 -1.1804  1.5788  0.0953
48538SOL     OW52471  10.251   1.450  11.571 -0.3132 -0.2347 -0.1577
48538SOL    HW152472  10.163   1.446  11.533 -0.6894  1.3498  0.4330
48538SOL    HW252473  10.310   1.426  11.500 -1.0473  1.6776 -1.5084
48539SOL     OW52474   7.641   0.415   0.785 -0.1660 -0.6215 -0.0933
48539SOL    HW152475   7.737   0.412   0.777  0.1064  0.3130  2.0548
48539SOL    HW252476   7.623   0.362   0.863 -1.5708 -1.8436 -1.1867
48540SOL     OW52477   1.784   8.491  10.346 -0.1767 -0.1644  0.3972
48540SOL    HW152478   1.833   8.489  10.428  0.6062  0.7079 -0.0277
48540SOL    HW252479   1.826   8.426  10.290  0.4197  0.4748  0.0872
48541SOL     OW52480  11.044   6.278  10.043 -0.2890 -0.2383 -0.1126
48541SOL    HW152481  11.122   6.267   9.987 -1.1957  0.1038 -1.5053
48541SOL    HW252482  11.033   6.193  10.086  1.9243  0.2601  1.6213
48542SOL     OW52483   8.813   5.954   6.712 -0.1850 -0.0549  0.3474
48542SOL    HW152484   8.787   5.911   6.630  2.3414  0.5808 -0.9133
48542SOL    HW252485   8.902   5.923   6.727 -0.7480 -0.5375  3.2103
48543SOL     OW52486   2.881   3.253  12.338  0.4011 -0.6205  0.2636
48543SOL    HW152487   2.869   3.300  12.421 -1.5417 -0.4450 -0.0727
48543SOL    HW252488   2.886   3.161  12.364 -0.9765 -0.6375  0.5525
48544SOL     OW52489   3.148   6.976   9.576  0.2037  0.1865  0.0380
48544SOL    HW152490   3.088   6.996   9.647  0.0081  0.2883 -0.1543
48544SOL    HW252491   3.095   6.929   9.512  0.3704  0.1243 -0.0538
48545SOL     OW52492   9.795  10.103   0.600 -0.3721 -0.2770 -0.3765
48545SOL    HW152493   9.855  10.035   0.569  0.8330  0.3151  0.5427
48545SOL    HW252494   9.757  10.068   0.680  0.4313  0.1825  0.2299
48546SOL     OW52495   1.765   9.967   9.213  0.1567  0.0447  0.0152
48546SOL    HW152496   1.685   9.948   9.263 -0.6368  2.1677 -0.3418
48546SOL    HW252497   1.737  10.029   9.146  1.8919 -0.1096 -0.9073
48547SOL     OW52498   6.506   9.894   5.633  0.0946 -0.0959 -0.4721
48547SOL    HW152499   6.431   9.953   5.639  0.1811 -0.0605  0.4383
48547SOL    HW252500   6.554   9.908   5.715  0.2328 -1.2674 -0.3411
48548SOL     OW52501   2.467   8.851   6.166  0.0460  0.2855  0.5821
48548SOL    HW152502   2.443   8.834   6.075 -1.8529 -1.8995  1.3869
48548SOL    HW252503   2.554   8.813   6.175 -0.2543 -0.5911 -0.0530
48549SOL     OW52504   7.468   4.310   1.043 -0.3833 -0.6480  0.3671
48549SOL    HW152505   7.392   4.252   1.043 -0.9271  0.0448  0.7833
48549SOL    HW252506   7.431   4.397   1.058  0.4476 -0.2361  0.0630
48550SOL     OW52507   4.073  10.186   8.938 -0.0579 -0.4455  0.0136
48550SOL    HW152508   4.060  10.214   9.029  0.9241 -2.3911  0.8340
48550SOL    HW252509   4.056  10.091   8.940  0.6377 -0.6420 -1.6945
48551SOL     OW52510   6.130   1.179   2.952  0.0224 -0.4871 -0.0753
48551SOL    HW152511   6.138   1.265   2.909 -1.6289 -0.3737 -0.2200
48551SOL    HW252512   6.193   1.183   3.024  0.7706  0.4211 -0.7526
48552SOL     OW52513  12.552   4.341   0.716 -0.6157 -0.2198 -0.1527
48552SOL    HW152514  12.504   4.378   0.790 -1.0515 -0.0086 -0.5295
48552SOL    HW252515  12.485   4.329   0.648 -0.0300  0.6807 -0.9219
48553SOL     OW52516   0.767   8.338   7.790 -0.1932 -0.0473 -0.2409
48553SOL    HW152517   0.788   8.369   7.878  0.9264  0.4581 -0.6716
48553SOL    HW252518   0.826   8.264   7.776 -0.2656 -0.0320 -0.6292
48554SOL     OW52519   9.339  12.419   4.378  0.6507  0.1276 -0.2343
48554SOL    HW152520   9.380  12.465   4.305  0.7990 -0.7281 -0.7063
48554SOL    HW252521   9.393  12.341   4.391  0.0715 -0.2153  0.1575
48555SOL     OW52522   5.742  12.284   0.749  0.4403 -0.6886  0.0505
48555SOL    HW152523   5.729  12.194   0.717  3.2050 -1.6991  1.3763
48555SOL    HW252524   5.803  12.323   0.687  1.0191 -0.5325  0.7094
48556SOL     OW52525   7.433  11.502   7.478 -0.0359  0.0770 -0.1334
48556SOL    HW152526   7.448  11.488   7.384  1.0228  1.7992 -0.2817
48556SOL    HW252527   7.410  11.595   7.484  0.1572  0.0492  1.3347
48557SOL     OW52528   7.598   7.079   3.204  0.2197 -0.0274 -0.6472
48557SOL    HW152529   7.603   7.041   3.116 -1.0566  0.6848 -1.0568
48557SOL    HW252530   7.650   7.019   3.258 -0.2147 -1.3422 -1.6057
48558SOL     OW52531   9.707   2.210   6.557 -0.3360  0.0323  0.0252
48558SOL    HW152532   9.745   2.291   6.523  1.2323 -0.6565  0.0410
48558SOL    HW252533   9.619   2.235   6.586  0.0520  1.6768 -0.1099
48559SOL     OW52534  10.250   7.619   3.146 -0.2974  0.2059 -0.1371
48559SOL    HW152535  10.188   7.563   3.101  0.1259  0.0435 -0.5305
48559SOL    HW252536  10.219   7.623   3.237  0.9867 -2.7027  0.5533
48560SOL     OW52537   5.377   7.958   5.189 -0.5417  0.1863  0.0712
48560SOL    HW152538   5.423   7.894   5.243 -0.3743  0.4374  0.2265
48560SOL    HW252539   5.403   8.043   5.224  0.8766  0.4247 -1.4584
48561SOL     OW52540  10.470   5.419   2.814 -0.2213 -0.3535 -0.4270
48561SOL    HW152541  10.543   5.366   2.786  0.9118  1.1755 -0.5140
48561SOL    HW252542  10.403   5.405   2.747  0.2455 -1.2296 -0.7250
48562SOL     OW52543   5.114  10.528   8.183 -0.0210 -0.8792  0.8446
48562SOL    HW152544   5.050  10.529   8.111  2.0900  0.3290 -1.1454
48562SOL    HW252545   5.122  10.436   8.207 -0.6976 -1.3412 -0.5744
48563SOL     OW52546   6.404   4.503  12.337 -0.2662 -0.6310 -0.0771
48563SOL    HW152547   6.315   4.484  12.307 -0.8836  0.5070  0.9623
48563SOL    HW252548   6.413   4.452  12.418 -1.7254  2.7101  2.4148
48564SOL     OW52549   5.012   0.258  10.057  0.1585 -0.3810  0.4648
48564SOL    HW152550   5.038   0.196   9.989  2.0290  1.8212 -0.9960
48564SOL    HW252551   4.921   0.279  10.037  0.2328 -0.9041 -0.4666
48565SOL     OW52552   4.830  10.850   4.200 -0.1496 -0.7206  0.0696
48565SOL    HW152553   4.868  10.930   4.237  2.5747 -1.0720 -1.6503
48565SOL    HW252554   4.754  10.881   4.151  0.4579  0.7581 -0.0051
48566SOL     OW52555   0.577   2.302  10.891  0.1500 -0.5295  0.2440
48566SOL    HW152556   0.654   2.249  10.912  1.3705  1.7371  1.9945
48566SOL    HW252557   0.612   2.374  10.839 -0.8305  0.3979  0.8516
48567SOL     OW52558   5.426   3.948   3.708 -0.1156  0.0790 -0.0741
48567SOL    HW152559   5.356   4.012   3.696 -1.5395 -1.3544  0.1744
48567SOL    HW252560   5.419   3.920   3.799  3.1377  2.4514  1.0859
48568SOL     OW52561   6.037   0.149   4.793 -0.0195  0.4221  0.3163
48568SOL    HW152562   5.978   0.077   4.772  0.3146  0.2792 -0.1445
48568SOL    HW252563   6.122   0.107   4.807  0.5876  0.8684 -1.6670
48569SOL     OW52564   7.310   5.908   5.262 -0.1457  0.1344 -0.2949
48569SOL    HW152565   7.382   5.856   5.224 -1.1708 -1.6083  0.0382
48569SOL    HW252566   7.282   5.966   5.191  0.8011 -0.0132 -0.8065
48570SOL     OW52567   3.832   6.318  10.094 -0.3245 -0.3643 -0.0547
48570SOL    HW152568   3.787   6.238  10.124  0.5190 -0.0322  2.2912
48570SOL    HW252569   3.924   6.302  10.114 -0.1710  1.2708  0.7102
48571SOL     OW52570  10.134  11.675  11.433 -0.1850 -0.1440  0.5919
48571SOL    HW152571  10.226  11.648  11.437  0.6593  2.5308  1.6214
48571SOL    HW252572  10.124  11.712  11.345 -0.0699  0.2066  0.7251
48572SOL     OW52573   8.671   1.459   0.653 -0.1233  0.2524  0.2260
48572SOL    HW152574   8.753   1.447   0.702  0.4719 -0.7746 -0.9556
48572SOL    HW252575   8.671   1.388   0.589 -0.8263  1.5733 -1.3178
48573SOL     OW52576   3.811   7.341   2.533 -1.2311  0.8757 -0.3946
48573SOL    HW152577   3.724   7.318   2.564 -1.8974  1.1029 -1.9752
48573SOL    HW252578   3.852   7.385   2.607 -2.2342  0.2291  0.5750
48574SOL     OW52579   1.527   4.003  10.433  0.1741  0.1960 -0.5627
48574SOL    HW152580   1.563   3.928  10.480  1.4439  0.3568 -1.2470
48574SOL    HW252581   1.503   3.968  10.347  0.3314  0.4727 -0.7196
48575SOL     OW52582   5.673   8.151   4.060 -0.0985 -0.0121  0.2163
48575SOL    HW152583   5.680   8.061   4.092  1.3754  0.0286  0.0681
48575SOL    HW252584   5.727   8.202   4.120 -0.6034  0.7124  0.0587
48576SOL     OW52585   5.383   7.951  11.059  0.1470 -0.0874  1.2083
48576SOL    HW152586   5.343   8.017  11.002  0.7763  0.4900  1.4250
48576SOL    HW252587   5.334   7.871  11.041 -0.5055  0.3966  0.8067
48577SOL     OW52588   9.941  11.383   3.434  0.0314 -0.0268  0.4165
48577SOL    HW152589   9.853  11.348   3.424 -0.3223  0.7257  0.8352
48577SOL    HW252590   9.998  11.306   3.431 -0.5986 -0.4690 -0.2894
48578SOL     OW52591   0.246  10.326  11.381 -0.1433  0.0359  0.6136
48578SOL    HW152592   0.250  10.413  11.421  0.2163 -0.0034  0.6630
48578SOL    HW252593   0.316  10.277  11.423 -0.0598 -0.1453  0.2627
48579SOL     OW52594   3.060   9.451   9.101  0.0265  0.3877  0.1048
48579SOL    HW152595   3.058   9.463   9.196  0.5296 -2.2446  0.5188
48579SOL    HW252596   3.138   9.398   9.085  0.8607  2.0971 -2.0151
48580SOL     OW52597   9.979   0.849  12.155  0.1513 -0.2304 -0.0542
48580SOL    HW152598   9.973   0.762  12.195 -0.0462 -0.0911  0.2205
48580SOL    HW252599   9.905   0.897  12.191  0.4523  0.1582  0.0478
48581SOL     OW52600   1.442  10.272  11.709 -0.1065  0.1237 -0.7548
48581SOL    HW152601   1.361  10.280  11.760 -0.2960 -0.8207 -0.8857
48581SOL    HW252602   1.499  10.218  11.764  0.0724 -0.0289 -1.0911
48582SOL     OW52603   2.652   4.999  12.129  0.2742  0.0856 -0.0871
48582SOL    HW152604   2.728   5.004  12.188 -1.1007 -1.1679  1.8893
48582SOL    HW252605   2.589   5.060  12.167 -0.1892  0.1894 -0.9989
48583SOL     OW52606   1.720   6.567   9.933  0.3696  0.4097  0.2612
48583SOL    HW152607   1.641   6.621   9.942 -0.4171 -1.0627  4.0699
48583SOL    HW252608   1.791   6.624   9.962  0.1778  0.6594  0.2479
48584SOL     OW52609   1.606   5.748   6.230  0.3086  0.2908  0.7396
48584SOL    HW152610   1.642   5.688   6.295 -1.2799 -0.8308  0.6500
48584SOL    HW252611   1.548   5.694   6.176  0.6147  1.4527 -0.8275
48585SOL     OW52612   1.672   3.172   3.935  0.2357 -0.2849 -0.1666
48585SOL    HW152613   1.672   3.079   3.957  2.8458 -0.2594  0.2333
48585SOL    HW252614   1.739   3.211   3.991 -0.8379  1.8920 -0.2604
48586SOL     OW52615   8.864   9.594   3.220  0.5686  0.3045 -0.0244
48586SOL    HW152616   8.816   9.602   3.303  0.2300 -0.4490 -0.1386
48586SOL    HW252617   8.835   9.511   3.184 -0.5175  1.3690 -1.7010
48587SOL     OW52618   1.964   7.865   4.923  0.2982  0.0093 -0.0678
48587SOL    HW152619   1.970   7.850   5.018 -2.1490 -1.0000 -0.0043
48587SOL    HW252620   2.048   7.904   4.900  0.1883  2.4797  2.9171
48588SOL     OW52621   3.437  10.612  11.009  0.0418  0.0210 -0.1663
48588SOL    HW152622   3.345  10.634  11.022  0.5819  1.0928  2.3621
48588SOL    HW252623   3.442  10.585  10.917 -2.6729  0.3919 -0.5123
48589SOL     OW52624   3.969   9.981   1.073 -0.5787  0.1824  0.5065
48589SOL    HW152625   4.064   9.970   1.065 -0.4969  1.7753 -1.1799
48589SOL    HW252626   3.958  10.020   1.160  0.5392  1.9275 -0.0761
48590SOL     OW52627   8.663   9.631   3.422  0.4229 -0.0925 -0.1492
48590SOL    HW152628   8.696   9.592   3.503 -2.6042  0.3275  1.4052
48590SOL    HW252629   8.605   9.565   3.385 -0.7843  0.9281 -0.1697
48591SOL     OW52630  11.346   3.008   6.888  0.2364  0.1293 -0.0068
48591SOL    HW152631  11.331   2.960   6.970  1.8244 -0.5218 -0.0581
48591SOL    HW252632  11.287   2.967   6.825 -1.3577  0.9554  0.8982
48592SOL     OW52633   1.806  11.988   4.708  0.3459 -0.7072 -0.3644
48592SOL    HW152634   1.821  12.020   4.619  0.0151 -0.5514 -0.3634
48592SOL    HW252635   1.741  11.918   4.698  0.1820 -0.5757 -0.2261
48593SOL     OW52636   6.080   7.981   0.575  0.0832 -0.6646  0.6596
48593SOL    HW152637   6.081   7.916   0.645  0.7892 -0.6908  0.6323
48593SOL    HW252638   5.987   7.995   0.556 -0.0722 -2.1100  0.2610
48594SOL     OW52639   7.603   7.359  10.474  0.2158 -0.2987 -0.0827
48594SOL    HW152640   7.670   7.428  10.476  0.4793 -0.5185 -0.9297
48594SOL    HW252641   7.521   7.405  10.458  0.3858 -0.1731 -0.6042
48595SOL     OW52642   8.039   5.201   7.566 -0.3263  0.0216  0.2893
48595SOL    HW152643   8.012   5.165   7.482 -0.0395  1.2104 -0.3341
48595SOL    HW252644   7.957   5.224   7.610 -0.4524  0.4252 -0.1450
48596SOL     OW52645   0.232   6.651   1.252  0.0407 -0.1282  0.7063
48596SOL    HW152646   0.175   6.581   1.282 -2.3786  0.5842 -1.8128
48596SOL    HW252647   0.176   6.708   1.200  1.7440  3.9608  2.8324
48597SOL     OW52648   8.320   0.489   7.324 -0.3419  0.0699 -0.0831
48597SOL    HW152649   8.249   0.443   7.369 -0.2199  1.3902  1.6017
48597SOL    HW252650   8.379   0.515   7.395  1.8310 -0.9392 -1.4312
48598SOL     OW52651   0.224   1.579   4.516 -0.4100  0.3514  0.2602
48598SOL    HW152652   0.255   1.634   4.444  0.7074 -0.6236 -0.0336
48598SOL    HW252653   0.131   1.566   4.497 -0.0061 -0.4065 -1.3914
48599SOL     OW52654  11.040   9.560  11.349 -0.8377 -0.7792 -0.2762
48599SOL    HW152655  10.951   9.535  11.375 -0.1598 -0.6201  2.4582
48599SOL    HW252656  11.097   9.503  11.401  0.6563  1.2229  0.3910
48600SOL     OW52657   1.807   7.234  11.325 -0.0539  0.9726  0.1792
48600SOL    HW152658   1.859   7.294  11.379  0.2802 -0.0512  1.0237
48600SOL    HW252659   1.780   7.287  11.250  1.5928  1.7403  0.0811
48601SOL     OW52660   6.622   2.543   3.936 -0.3341  0.3186 -0.3393
48601SOL    HW152661   6.680   2.589   3.996  0.3032 -0.7962 -0.0802
48601SOL    HW252662   6.535   2.579   3.955 -0.3423 -0.7646  2.0584
48602SOL     OW52663   1.199   5.746   1.076  0.6617 -0.3643  0.4581
48602SOL    HW152664   1.252   5.725   1.153 -0.9050 -0.6607  1.4944
48602SOL    HW252665   1.113   5.770   1.111  0.1395  0.2947 -1.1595
48603SOL     OW52666   3.496   5.774   5.773  0.0553  0.1984 -0.2880
48603SOL    HW152667   3.528   5.776   5.683 -1.6484 -0.6981 -0.9687
48603SOL    HW252668   3.543   5.845   5.817  0.7253  0.8387 -1.9488
48604SOL     OW52669   6.367  11.753   9.704 -0.1808  0.0713 -0.5843
48604SOL    HW152670   6.307  11.813   9.747 -1.7723 -2.3583  0.8317
48604SOL    HW252671   6.454  11.789   9.722 -1.0551  1.9724  0.0688
48605SOL     OW52672   1.479   9.481   0.453  0.5884 -0.1379  0.2155
48605SOL    HW152673   1.525   9.415   0.505  1.8014  0.8812  0.4730
48605SOL    HW252674   1.421   9.524   0.515 -0.3278 -1.0412  0.0129
48606SOL     OW52675  11.686   4.013  10.841 -0.8047  0.3467 -0.1404
48606SOL    HW152676  11.640   3.936  10.810  1.0128 -0.5773 -0.6872
48606SOL    HW252677  11.648   4.086  10.792 -1.0926 -0.4952 -1.1932
48607SOL     OW52678   4.737   1.980   3.321  0.4652 -0.4698 -0.0297
48607SOL    HW152679   4.670   1.943   3.264 -0.3545 -0.4132  0.8772
48607SOL    HW252680   4.706   1.963   3.410  1.0854  0.5589  0.4070
48608SOL     OW52681  12.498  10.068  12.134 -0.1929  0.0695 -0.4407
48608SOL    HW152682  12.480   9.975  12.118 -1.0379  0.2956 -0.8181
48608SOL    HW252683  12.421  10.114  12.100  0.5012  0.9588 -0.8593
48609SOL     OW52684   2.114   2.135  11.376 -0.5986 -0.2217 -0.1062
48609SOL    HW152685   2.159   2.132  11.292 -1.0155 -0.2739 -0.3303
48609SOL    HW252686   2.170   2.086  11.436  0.0966  0.4806 -0.1647
48610SOL     OW52687   9.478   9.929   6.939  0.1338 -0.1006 -0.2639
48610SOL    HW152688   9.422   9.898   7.011  0.5322 -1.0748 -0.3579
48610SOL    HW252689   9.459   9.868   6.867  0.7085  0.0726 -0.5619
48611SOL     OW52690   2.497   4.448   0.960  0.1002 -0.3631  0.4874
48611SOL    HW152691   2.415   4.411   0.993  0.6193 -1.2849  0.7762
48611SOL    HW252692   2.493   4.540   0.984 -2.1749  0.3442 -2.0840
48612SOL     OW52693   1.516   1.142  11.739  0.1385 -0.0679 -0.0791
48612SOL    HW152694   1.480   1.062  11.702 -0.7727  0.1388  0.3324
48612SOL    HW252695   1.561   1.185  11.666 -1.3526  0.1757 -0.8863
48613SOL     OW52696   8.642   1.272  10.491 -0.2800 -0.0596  0.2203
48613SOL    HW152697   8.574   1.210  10.465  0.7620 -0.6672 -1.1764
48613SOL    HW252698   8.676   1.305  10.408  2.8035 -1.6087  0.7475
48614SOL     OW52699  10.680   3.688   6.539 -0.0303 -0.1023 -0.5197
48614SOL    HW152700  10.632   3.768   6.520  2.1190  1.2472 -0.5150
48614SOL    HW252701  10.756   3.690   6.481  1.6599 -0.6202  1.5304
48615SOL     OW52702  12.203  10.859   0.867 -0.3048  0.1732 -0.5935
48615SOL    HW152703  12.194  10.771   0.904  0.6859  0.3360  0.0503
48615SOL    HW252704  12.277  10.853   0.808 -0.8129  0.3537 -1.2644
48616SOL     OW52705   1.579  10.207   2.740 -0.1674 -1.0007 -0.3775
48616SOL    HW152706   1.526  10.269   2.689  0.2975 -0.4237 -0.1718
48616SOL    HW252707   1.598  10.136   2.679  0.3323 -0.3463 -1.0038
48617SOL     OW52708  11.370   3.459   5.723 -0.2154  0.1009  0.4042
48617SOL    HW152709  11.338   3.401   5.792 -0.7991 -0.1813 -0.0893
48617SOL    HW252710  11.432   3.517   5.767 -0.2606 -0.3492  1.0757
48618SOL     OW52711  10.216   6.678   3.183  0.3292 -0.3787  0.0208
48618SOL    HW152712  10.303   6.654   3.150  0.7823  1.7393 -0.4370
48618SOL    HW252713  10.233   6.747   3.248 -1.0290  0.2968 -0.3157
48619SOL     OW52714   2.394   9.177  11.604 -0.3396  0.3385 -0.3008
48619SOL    HW152715   2.477   9.191  11.650  0.3558 -1.9801 -0.7427
48619SOL    HW252716   2.331   9.230  11.652  0.9975  0.5431  1.3214
48620SOL     OW52717   9.467   2.328   5.305 -0.1496 -0.1664 -0.7424
48620SOL    HW152718   9.396   2.373   5.261 -0.5184  1.7339  1.5548
48620SOL    HW252719   9.424   2.261   5.359 -0.3040  1.1694  0.8636
48621SOL     OW52720   9.414   2.141   9.920 -0.4207 -0.0376 -0.8466
48621SOL    HW152721   9.385   2.189   9.842  0.0947 -0.6322 -1.4159
48621SOL    HW252722   9.388   2.050   9.903 -0.5125 -0.1317 -0.2142
48622SOL     OW52723   5.797   9.263  10.037  0.1801 -0.4972  0.2158
48622SOL    HW152724   5.884   9.245  10.071  0.4838 -0.5524 -0.5691
48622SOL    HW252725   5.774   9.348  10.073  0.7565 -0.2700  0.0580
48623SOL     OW52726   7.324  11.996   2.954 -0.3836 -0.2988 -0.2758
48623SOL    HW152727   7.418  12.006   2.964 -0.3761  0.0823 -0.7035
48623SOL    HW252728   7.287  12.061   3.015 -0.3583  0.1470 -0.7279
48624SOL     OW52729   7.289   3.598   0.716  0.1035  0.1463 -0.1629
48624SOL    HW152730   7.380   3.599   0.747 -0.2920 -2.3750  1.4286
48624SOL    HW252731   7.267   3.689   0.700  2.5569  0.9216  0.5484
48625SOL     OW52732   9.964   9.773   1.280 -0.6934 -0.0638  0.0780
48625SOL    HW152733   9.980   9.831   1.355  0.4948  1.2002 -1.1029
48625SOL    HW252734  10.015   9.694   1.299 -1.0670 -0.1030  0.9678
48626SOL     OW52735   4.952  12.224   8.684  0.1669  0.0870 -0.4175
48626SOL    HW152736   5.019  12.265   8.739 -1.0376  0.4146  0.8888
48626SOL    HW252737   4.874  12.222   8.740 -0.4253 -1.9525 -1.2350
48627SOL     OW52738  12.577  11.801   2.280  0.2939  0.1784 -0.0332
48627SOL    HW152739  12.639  11.823   2.350 -0.6958 -1.8904  1.6237
48627SOL    HW252740  12.631  11.764   2.211  1.2107  1.4905 -0.0685
48628SOL     OW52741   1.134   0.919   0.751 -0.2533  0.3341  0.0749
48628SOL    HW152742   1.184   0.855   0.701 -1.1826  0.0002 -0.4519
48628SOL    HW252743   1.051   0.928   0.703 -0.2335  1.7618  0.2609
48629SOL     OW52744   9.878  11.873   3.849 -0.3412  0.5861 -0.2116
48629SOL    HW152745   9.789  11.871   3.812 -0.7836  0.3366  0.8219
48629SOL    HW252746   9.883  11.957   3.895 -0.0888  0.5458 -0.1648
48630SOL     OW52747  10.573   7.433   2.056 -0.1584  0.2366 -0.7136
48630SOL    HW152748  10.636   7.385   2.002 -0.0609 -0.4581 -0.0114
48630SOL    HW252749  10.487   7.400   2.027 -0.2453  1.3809 -1.8590
48631SOL     OW52750   9.833  11.507  12.064 -0.3675 -0.0236  0.0232
48631SOL    HW152751   9.905  11.489  12.124 -0.0618 -0.5758 -0.4994
48631SOL    HW252752   9.835  11.602  12.052  0.7244 -0.0980 -0.5341
48632SOL     OW52753   8.317   7.201   5.253 -0.0155  0.2170  0.0543
48632SOL    HW152754   8.340   7.114   5.221 -0.1245  0.2740 -0.1816
48632SOL    HW252755   8.340   7.199   5.346 -1.0030 -0.4214  0.3001
48633SOL     OW52756   2.603   3.816   0.167  0.0460  0.1130  0.2970
48633SOL    HW152757   2.524   3.795   0.116 -0.5990  1.7949  0.5318
48633SOL    HW252758   2.670   3.758   0.131 -0.7892  0.0938 -1.3608
48634SOL     OW52759   6.506   4.968   7.581  0.2275 -0.8468  0.2537
48634SOL    HW152760   6.422   4.960   7.537  0.6829  2.3256 -1.4623
48634SOL    HW252761   6.484   4.987   7.672 -0.8747 -1.1331  0.0630
48635SOL     OW52762   2.194   2.567   6.190 -0.1710  0.3500  0.1944
48635SOL    HW152763   2.147   2.643   6.224  0.3334  0.5053  0.5571
48635SOL    HW252764   2.127   2.499   6.182 -0.2838  0.2382  1.6984
48636SOL     OW52765   4.626  10.725   2.287  0.1131 -0.0971 -0.1996
48636SOL    HW152766   4.628  10.802   2.230 -3.5158 -1.0002 -1.9016
48636SOL    HW252767   4.635  10.760   2.375  0.4381  2.0661 -1.0222
48637SOL     OW52768   7.149   1.030   7.164  0.1481  0.0314  0.1788
48637SOL    HW152769   7.117   1.044   7.253  0.4331 -0.4244  0.3553
48637SOL    HW252770   7.143   1.116   7.122  0.7945  0.4342  0.8907
48638SOL     OW52771   8.107   7.183   1.736  0.2563  0.5751  0.7684
48638SOL    HW152772   8.173   7.252   1.735  0.5226  0.3215  0.3989
48638SOL    HW252773   8.095   7.163   1.829 -0.1913  1.4588  0.9088
48639SOL     OW52774   6.354   6.231   0.672 -0.3733 -0.0379 -0.0057
48639SOL    HW152775   6.285   6.252   0.609 -1.7919 -0.1321  1.4737
48639SOL    HW252776   6.401   6.313   0.685 -1.2973  0.4557  0.2564
48640SOL     OW52777   3.505   4.407   4.450  0.0375  0.1077 -0.3292
48640SOL    HW152778   3.541   4.325   4.417 -0.4188 -0.4233  0.4632
48640SOL    HW252779   3.574   4.442   4.506  0.2269  0.2676 -0.6560
48641SOL     OW52780   8.296   2.908  10.008  0.9061  0.1224  0.2326
48641SOL    HW152781   8.242   2.970   9.960  0.5772  0.8127  1.4410
48641SOL    HW252782   8.238   2.835  10.027  0.0445  1.2565  2.3211
48642SOL     OW52783   2.996   4.259   1.164 -0.6119  0.1750 -0.0336
48642SOL    HW152784   3.024   4.340   1.121  0.0843 -0.3436 -0.5805
48642SOL    HW252785   2.901   4.260   1.157 -0.5786  0.7023 -0.4981
48643SOL     OW52786   7.055   5.271   2.441 -0.2210 -0.0780  0.5651
48643SOL    HW152787   6.985   5.326   2.475  0.1936 -0.3744  1.9907
48643SOL    HW252788   7.119   5.333   2.404 -0.9964  0.2142 -0.3219
48644SOL     OW52789   1.177   8.579   5.386 -0.3924  0.3459 -0.3083
48644SOL    HW152790   1.252   8.611   5.335 -1.6658  2.2693 -1.1045
48644SOL    HW252791   1.150   8.499   5.341 -0.8014  1.4100 -2.0642
48645SOL     OW52792  10.077   6.982   9.136  0.7205  0.3834 -1.0159
48645SOL    HW152793  10.139   6.978   9.209 -0.7866 -1.7115  0.2854
48645SOL    HW252794  10.121   6.939   9.063  1.1917 -0.1197 -0.4388
48646SOL     OW52795  11.506   4.144  11.469  0.4138 -0.0100 -0.0930
48646SOL    HW152796  11.564   4.185  11.405  0.3126 -0.1084 -0.2449
48646SOL    HW252797  11.551   4.063  11.493  1.7600  1.2232  1.8894
48647SOL     OW52798   7.066   0.160   9.128 -0.1435  0.8056  0.5140
48647SOL    HW152799   7.082   0.070   9.155  1.4433  0.2278 -1.9871
48647SOL    HW252800   6.971   0.164   9.113  0.0727 -1.4764 -2.3149
48648SOL     OW52801   2.525   7.494   1.554  0.2844  0.3946 -0.3472
48648SOL    HW152802   2.491   7.423   1.609  0.5930 -0.0722 -0.7541
48648SOL    HW252803   2.618   7.474   1.545  0.4503  1.0681 -0.1446
48649SOL     OW52804   5.322   8.973   0.643  0.0416 -0.4909 -0.1514
48649SOL    HW152805   5.277   8.911   0.585 -0.0151 -0.2831 -0.3327
48649SOL    HW252806   5.311   9.058   0.600 -0.2066 -0.2962  0.2877
48650SOL     OW52807   5.479   2.882   1.574  0.0155 -0.0621  0.1081
48650SOL    HW152808   5.458   2.789   1.583  0.1003  0.1065  2.8864
48650SOL    HW252809   5.557   2.894   1.628  1.1469  1.2973 -1.7315
48651SOL     OW52810   1.137   0.319   0.437  0.0117 -0.3072  0.6263
48651SOL    HW152811   1.101   0.320   0.526  1.9201 -2.3988  1.5093
48651SOL    HW252812   1.229   0.295   0.449  0.2590 -0.8932 -1.9436
48652SOL     OW52813   8.585  11.301   7.612  0.0252 -0.7680  0.0958
48652SOL    HW152814   8.637  11.372   7.649 -1.4097 -0.1307  0.9457
48652SOL    HW252815   8.624  11.221   7.648  1.5858 -0.4499 -0.7866
48653SOL     OW52816   2.665   6.629   5.037  0.3500  0.3637  0.0184
48653SOL    HW152817   2.608   6.680   4.980 -1.1979 -0.3795  0.8114
48653SOL    HW252818   2.754   6.656   5.014 -0.2133  0.3636 -2.4524
48654SOL     OW52819   0.940   8.935   7.912  0.4843 -0.0293  0.2839
48654SOL    HW152820   0.901   8.979   7.837  2.7152  0.5046 -0.6302
48654SOL    HW252821   0.961   9.006   7.973  3.0804  0.1665 -0.7221
48655SOL     OW52822   8.216   4.468   0.714 -0.5792 -0.2233 -0.5798
48655SOL    HW152823   8.217   4.386   0.664 -2.4601 -0.5182 -0.2104
48655SOL    HW252824   8.164   4.447   0.792  0.7358  0.7341  0.6068
48656SOL     OW52825  11.795   8.411   6.902  0.2902  0.2052 -0.0236
48656SOL    HW152826  11.855   8.485   6.909  1.5173 -0.5706 -1.7119
48656SOL    HW252827  11.731   8.438   6.836 -0.2819  0.3960  0.5956
48657SOL     OW52828   6.371  10.691   2.540  0.2478  0.0985  0.1415
48657SOL    HW152829   6.309  10.673   2.611 -0.2030  0.1730 -0.2290
48657SOL    HW252830   6.359  10.620   2.478  3.6446 -2.4601  2.0429
48658SOL     OW52831  11.491   1.085   3.227 -0.4773  0.7901  0.1557
48658SOL    HW152832  11.473   1.131   3.309 -1.4978  0.4145  0.1617
48658SOL    HW252833  11.524   1.153   3.168  2.2958  0.7244  1.4458
48659SOL     OW52834   4.915   6.688  10.277  0.1041  0.2303  0.3552
48659SOL    HW152835   4.990   6.724  10.230  1.3019  0.8414  2.6002
48659SOL    HW252836   4.921   6.593  10.263 -0.4776  0.4868 -1.9196
48660SOL     OW52837   4.868  11.665   4.779 -0.3585 -0.5394 -0.2406
48660SOL    HW152838   4.846  11.585   4.732 -0.2912 -1.1215  0.6811
48660SOL    HW252839   4.879  11.637   4.870 -0.4684  0.5409  0.1238
48661SOL     OW52840   7.726   3.974   2.174  0.3535  0.6804 -0.6676
48661SOL    HW152841   7.759   4.059   2.145 -0.0465  2.4796  3.4562
48661SOL    HW252842   7.638   3.969   2.137  0.5651  1.8139 -1.3787
48662SOL     OW52843   4.348   4.989   4.733 -0.1957  0.0478 -0.2006
48662SOL    HW152844   4.404   5.065   4.746  0.3944 -0.3888 -0.1539
48662SOL    HW252845   4.368   4.959   4.645 -0.0794 -0.3305 -0.0483
48663SOL     OW52846   2.886   5.784   7.533  0.5072 -0.0590 -0.0207
48663SOL    HW152847   2.977   5.781   7.503  0.2563 -0.3933 -0.7732
48663SOL    HW252848   2.836   5.810   7.456 -0.0642 -0.1033  0.3278
48664SOL     OW52849  11.850   8.700   1.986  0.3299  0.4419 -0.2254
48664SOL    HW152850  11.825   8.784   2.024 -0.5602  0.1363 -0.0995
48664SOL    HW252851  11.806   8.699   1.901  1.4231  0.6600 -0.8088
48665SOL     OW52852   4.034   4.404  12.257  0.4621 -0.5049  0.5598
48665SOL    HW152853   4.080   4.322  12.272  1.2953  0.0387  1.0950
48665SOL    HW252854   3.943   4.385  12.278  0.6554 -1.2758  0.7299
48666SOL     OW52855  10.186   5.356   8.134 -0.2383 -0.0493 -0.5099
48666SOL    HW152856  10.181   5.449   8.154  0.0023  0.0826 -1.0387
48666SOL    HW252857  10.161   5.312   8.215  0.7107  0.4531  0.0613
48667SOL     OW52858   4.224   2.076   4.520  0.0989  0.5616  0.1129
48667SOL    HW152859   4.235   2.073   4.615 -2.3478  0.9013  0.4726
48667SOL    HW252860   4.261   2.161   4.494  1.9339 -0.0529  0.5072
48668SOL     OW52861   7.538   7.509   7.194  0.1903  0.1777 -0.3257
48668SOL    HW152862   7.482   7.453   7.247  0.9877  1.2547  1.8254
48668SOL    HW252863   7.520   7.598   7.227  2.7817  0.5916  0.1989
48669SOL     OW52864   8.671   6.438   3.995  0.2660  0.3426 -0.4393
48669SOL    HW152865   8.763   6.455   3.978 -0.0290  0.5514 -1.9218
48669SOL    HW252866   8.657   6.348   3.966  0.0350  0.2430 -0.0360
48670SOL     OW52867   7.700  11.769  10.830 -0.0616  0.6753  0.7567
48670SOL    HW152868   7.656  11.707  10.888  0.6491  0.3197  0.9377
48670SOL    HW252869   7.632  11.802  10.773 -0.3680 -0.6807  0.3035
48671SOL     OW52870   2.996   6.335   3.288 -0.0358 -0.1682 -0.3280
48671SOL    HW152871   3.015   6.268   3.353 -0.2566 -0.2655 -0.3657
48671SOL    HW252872   2.926   6.388   3.328 -0.4450 -0.4624 -0.6495
48672SOL     OW52873   9.789   9.759   6.513 -0.0480  0.2403 -0.2353
48672SOL    HW152874   9.836   9.676   6.526 -1.1920 -0.4592 -0.4874
48672SOL    HW252875   9.697   9.735   6.511 -0.3290  1.2189 -2.5104
48673SOL     OW52876  10.426   3.102   9.205 -0.0737 -0.1207  0.0839
48673SOL    HW152877  10.477   3.097   9.285  0.0391 -0.8486 -0.0301
48673SOL    HW252878  10.358   3.166   9.224  0.1467 -0.0499  0.6483
48674SOL     OW52879   5.953   7.343   0.646  0.4140 -0.4179 -0.0538
48674SOL    HW152880   5.894   7.277   0.610  0.5493 -0.8852  0.5771
48674SOL    HW252881   6.001   7.298   0.716 -0.4903  0.7102  1.3463
48675SOL     OW52882   2.687   8.500  10.800 -0.2185 -0.2117 -0.0130
48675SOL    HW152883   2.643   8.481  10.882  1.2028  1.1846  1.1436
48675SOL    HW252884   2.709   8.414  10.764 -1.0179 -0.8441  0.9644
48676SOL     OW52885   4.570   6.823  12.465  0.1769  0.2539  0.2992
48676SOL    HW152886   4.650   6.770  12.458 -0.3549 -0.4531 -0.8332
48676SOL    HW252887   4.601   6.910  12.491  1.3158 -0.0289 -0.0472
48677SOL     OW52888   2.469   4.386  12.110 -0.3448  0.5489  0.6414
48677SOL    HW152889   2.438   4.447  12.044 -1.0332  1.1384  1.4891
48677SOL    HW252890   2.444   4.299  12.077 -1.0943  0.8726  0.3457
48678SOL     OW52891   1.342   3.375   5.370 -0.5181 -0.2859 -0.1652
48678SOL    HW152892   1.357   3.406   5.459 -1.2474 -0.9933  0.2177
48678SOL    HW252893   1.287   3.441   5.329 -1.4758 -0.7030  0.4170
48679SOL     OW52894   4.829   5.487  10.647 -0.1930  0.0471  0.7058
48679SOL    HW152895   4.773   5.465  10.572 -0.4053  1.0000  0.5636
48679SOL    HW252896   4.813   5.581  10.661  1.3165  0.3225  0.7021
48680SOL     OW52897   6.700  10.897   4.259 -0.2079  0.0304  0.2340
48680SOL    HW152898   6.682  10.971   4.202  0.5924 -1.6867 -2.4079
48680SOL    HW252899   6.643  10.826   4.227 -0.4881 -0.7588  2.2572
48681SOL     OW52900  12.251   7.708   7.252  0.5690 -0.1829 -0.4013
48681SOL    HW152901  12.156   7.706   7.239  0.5787  0.2486 -0.5723
48681SOL    HW252902  12.265   7.786   7.307  0.6634 -1.1617  1.0300
48682SOL     OW52903   9.261  11.374   2.242  0.6002  0.1311  0.2346
48682SOL    HW152904   9.347  11.388   2.202  0.6555  2.6111  1.0221
48682SOL    HW252905   9.200  11.418   2.182  0.0796 -0.3256  0.4258
48683SOL     OW52906   8.151   0.314   9.920  0.2771 -0.2225 -0.4834
48683SOL    HW152907   8.082   0.282   9.860  0.8623 -1.4975 -0.5127
48683SOL    HW252908   8.152   0.409   9.906 -1.9322 -0.0638  0.0014
48684SOL     OW52909   9.512   1.322   0.477  0.2664 -0.0483 -0.1674
48684SOL    HW152910   9.567   1.358   0.408 -0.5317  0.8581 -0.3438
48684SOL    HW252911   9.523   1.227   0.469  2.1544  0.1056  0.1065
48685SOL     OW52912   7.602  11.335  10.935  0.1859  0.0464 -0.0240
48685SOL    HW152913   7.607  11.359  10.843 -0.4161 -0.4319 -0.1869
48685SOL    HW252914   7.520  11.375  10.966 -0.7702 -1.6543 -0.2718
48686SOL     OW52915   8.024   5.256  11.705  0.4596 -0.3302  0.5409
48686SOL    HW152916   8.043   5.346  11.730  0.7850 -0.5246  0.9947
48686SOL    HW252917   7.928   5.249  11.712  0.5847 -0.6534  2.7403
48687SOL     OW52918   4.448   4.036   4.949  0.5969  0.2364  0.1532
48687SOL    HW152919   4.423   4.046   5.040  0.7594 -0.5107  0.2868
48687SOL    HW252920   4.366   4.017   4.903  0.1430  2.7229 -0.2370
48688SOL     OW52921   9.629   3.831   5.690  0.7073  0.0624  0.4083
48688SOL    HW152922   9.691   3.806   5.621 -0.0004 -1.7532  0.3531
48688SOL    HW252923   9.543   3.828   5.647  0.3055 -0.5710  1.2176
48689SOL     OW52924   9.619   4.208   7.004  0.3073 -0.2615  0.4137
48689SOL    HW152925   9.691   4.271   7.005 -0.6869  0.9289 -0.2428
48689SOL    HW252926   9.589   4.205   7.095 -0.3159  1.0683  0.2819
48690SOL     OW52927   1.679   7.052   8.903 -0.0698 -0.1403  0.1044
48690SOL    HW152928   1.646   6.992   8.836 -0.4771 -1.1039  1.1354
48690SOL    HW252929   1.601   7.080   8.951  0.1109  1.2636 -0.3714
48691SOL     OW52930  11.074  10.143   7.487  0.2626 -0.3530 -0.0749
48691SOL    HW152931  11.066  10.199   7.410 -0.7466 -0.9131 -0.3995
48691SOL    HW252932  11.114  10.062   7.453 -0.2885 -0.6433 -0.0371
48692SOL     OW52933   0.449   2.110   9.272  0.0824  0.4305 -0.4133
48692SOL    HW152934   0.377   2.149   9.222  0.0198  1.2918  0.3118
48692SOL    HW252935   0.465   2.172   9.343 -0.1383 -0.9652  0.9033
48693SOL     OW52936  10.430   4.483   1.774 -0.0732  0.3571 -0.1488
48693SOL    HW152937  10.494   4.443   1.716  0.5798  1.5092 -0.2597
48693SOL    HW252938  10.457   4.455   1.862  0.4481  0.6359 -0.2148
48694SOL     OW52939  10.721   4.383   2.638  0.0836 -0.0827  0.0636
48694SOL    HW152940  10.774   4.462   2.652 -0.3984  0.8834 -2.9142
48694SOL    HW252941  10.720   4.340   2.724  0.7213  2.8936  1.7135
48695SOL     OW52942   5.835   5.457   4.678  0.0356 -0.5391 -0.5839
48695SOL    HW152943   5.851   5.507   4.758  1.0241 -0.0099 -1.1015
48695SOL    HW252944   5.853   5.366   4.703  2.4001 -0.1537 -0.7149
48696SOL     OW52945  10.400   7.464   8.004 -0.1610  0.2435 -0.6012
48696SOL    HW152946  10.367   7.410   7.932 -0.8176 -2.2054  1.3751
48696SOL    HW252947  10.331   7.529   8.019  0.1120  0.9696 -2.2888
48697SOL     OW52948   7.624   4.360  12.339 -0.0070 -0.3550 -0.2086
48697SOL    HW152949   7.590   4.346  12.251 -0.9151  0.4009  0.0140
48697SOL    HW252950   7.660   4.449  12.338 -1.7810  0.4145  0.7034
48698SOL     OW52951   5.883  12.346   2.703 -0.0197 -0.5123  0.0869
48698SOL    HW152952   5.816  12.364   2.769  0.3471 -0.4825  0.4522
48698SOL    HW252953   5.864  12.407   2.632 -0.2405 -0.3472  0.2880
48699SOL     OW52954  10.585   6.906  10.043  0.2093 -0.3465 -0.2287
48699SOL    HW152955  10.494   6.913  10.072  0.5508  0.0949  0.7519
48699SOL    HW252956  10.633   6.969  10.096  1.8386 -3.4272  2.3352
48700SOL     OW52957   3.257  11.637   9.748 -0.6249 -0.1906 -0.2045
48700SOL    HW152958   3.288  11.571   9.809 -0.4154 -0.8621 -1.0261
48700SOL    HW252959   3.163  11.645   9.766 -0.4005  0.3061  0.8320
48701SOL     OW52960   7.517   1.343   0.191  0.1782 -0.0959  0.9430
48701SOL    HW152961   7.547   1.348   0.282 -0.7618  1.1593  1.2065
48701SOL    HW252962   7.530   1.251   0.166 -2.0046 -1.1048  3.1870
48702SOL     OW52963   8.791   1.114   7.250  0.3247 -0.9118 -0.0236
48702SOL    HW152964   8.760   1.204   7.261  2.2537 -0.0315 -1.1248
48702SOL    HW252965   8.871   1.109   7.302  0.2942 -1.9624 -0.0490
48703SOL     OW52966  11.969   3.387   3.905 -0.3784  0.6159 -0.7927
48703SOL    HW152967  11.997   3.431   3.986  0.6111  2.0762 -1.8616
48703SOL    HW252968  11.879   3.415   3.892 -0.8574 -0.3745  0.2653
48704SOL     OW52969   8.458   9.091   8.562  0.0557  0.0241  0.3430
48704SOL    HW152970   8.544   9.133   8.557 -0.7203  1.6946  0.2686
48704SOL    HW252971   8.450   9.064   8.654  0.0240  1.3176  0.7363
48705SOL     OW52972   0.539   1.616  10.878 -1.2141  0.2779 -0.1015
48705SOL    HW152973   0.458   1.658  10.906 -0.6442  1.2355  0.1828
48705SOL    HW252974   0.555   1.650  10.790 -1.2459 -0.0854 -0.2463
48706SOL     OW52975   1.915   1.242   8.728  0.2967  0.1018 -0.3066
48706SOL    HW152976   1.952   1.245   8.816 -0.3134  0.4898 -0.0496
48706SOL    HW252977   1.874   1.328   8.717 -1.2122 -0.5717 -0.2569
48707SOL     OW52978   2.200   4.914   4.741 -0.4259  0.2040  0.8117
48707SOL    HW152979   2.177   4.996   4.697 -0.6078  0.6373  1.6807
48707SOL    HW252980   2.276   4.881   4.694 -0.3677  0.8587  0.4378
48708SOL     OW52981  11.570   1.602   3.386 -0.3008  0.5844  0.4599
48708SOL    HW152982  11.624   1.525   3.399 -1.7304 -0.6165 -0.3621
48708SOL    HW252983  11.505   1.598   3.456 -2.4216 -0.8765 -1.4463
48709SOL     OW52984   2.885  12.015   2.720 -0.2991 -0.1873  0.5681
48709SOL    HW152985   2.978  11.995   2.732  0.1260  1.2284 -0.0450
48709SOL    HW252986   2.882  12.061   2.636 -1.8381 -1.8294 -0.3221
48710SOL     OW52987  11.025   5.381   9.870  1.0936  0.0654  0.5270
48710SOL    HW152988  11.109   5.421   9.891  1.8598 -0.8087 -0.7996
48710SOL    HW252989  10.979   5.378   9.954  1.2589  3.0466  0.8303
48711SOL     OW52990   1.358   1.095   2.898 -0.2469 -0.5386  0.3100
48711SOL    HW152991   1.374   1.022   2.837  1.7263  1.1168 -1.2904
48711SOL    HW252992   1.273   1.130   2.872  0.3195 -0.2023 -1.1817
48712SOL     OW52993   5.637   7.680   6.662 -0.4189  0.0294  0.0047
48712SOL    HW152994   5.684   7.688   6.746 -2.8284 -1.7001  1.6471
48712SOL    HW252995   5.621   7.586   6.653 -0.3210  0.1845 -2.4052
48713SOL     OW52996   5.734  12.097   8.822  0.1633 -0.0415 -0.1278
48713SOL    HW152997   5.820  12.137   8.835 -0.0900  0.9747 -1.3691
48713SOL    HW252998   5.711  12.062   8.908  1.8148 -0.3576  0.2134
48714SOL     OW52999   4.371   1.090   1.912  0.1857 -0.7620 -0.0432
48714SOL    HW153000   4.350   1.000   1.939 -1.1707  0.2880  2.7762
48714SOL    HW253001   4.368   1.141   1.993  0.1595  1.9915 -1.6499
48715SOL     OW53002   5.136   1.294   8.106 -0.0529 -0.7211 -0.4121
48715SOL    HW153003   5.178   1.302   8.021 -2.8763  2.4089 -1.7222
48715SOL    HW253004   5.078   1.218   8.098  0.3307 -0.9566 -0.9571
48716SOL     OW53005  12.102   8.191  10.056  0.4647  0.1094 -0.7457
48716SOL    HW153006  12.122   8.284  10.064 -0.8072  0.3729 -0.3251
48716SOL    HW253007  12.176   8.147  10.098  0.5818  0.9692 -0.0114
48717SOL     OW53008   8.234   2.032   8.571 -0.3564  0.3092  0.0821
48717SOL    HW153009   8.217   1.938   8.581  0.8726 -0.1172 -1.4517
48717SOL    HW253010   8.147   2.072   8.563 -0.8494 -0.9752 -1.3493
48718SOL     OW53011   6.623   5.456   1.969 -0.1203  0.1884 -0.7924
48718SOL    HW153012   6.675   5.492   1.896  0.0091  0.3702 -0.6101
48718SOL    HW253013   6.666   5.373   1.990  0.6342  0.7592 -0.0520
48719SOL     OW53014   2.213   2.145  11.127  0.1127  0.3113  0.0250
48719SOL    HW153015   2.145   2.200  11.089 -0.6112 -0.3491  0.3296
48719SOL    HW253016   2.267   2.119  11.053  0.0454  0.8479 -0.2193
48720SOL     OW53017   3.436   7.928   5.273 -0.4242 -0.3749  0.6287
48720SOL    HW153018   3.455   7.836   5.259  0.9677  0.0634 -0.6685
48720SOL    HW253019   3.388   7.931   5.356 -2.0082 -2.4072 -0.1532
48721SOL     OW53020   1.123   4.792   6.505  0.1114 -0.4745  0.1730
48721SOL    HW153021   1.197   4.757   6.555 -0.0835 -1.3032 -0.1071
48721SOL    HW253022   1.146   4.775   6.413  0.2570  0.6241 -0.0044
48722SOL     OW53023   6.409   4.674   0.014 -0.0575 -0.2346  0.1676
48722SOL    HW153024   6.459   4.703   0.091  0.9522 -0.6784 -0.2985
48722SOL    HW253025   6.435   4.583   0.001 -0.4583 -0.2618 -0.5142
48723SOL     OW53026   2.767   9.376   1.372 -0.4861 -0.1141  0.5586
48723SOL    HW153027   2.851   9.406   1.336 -0.7045  0.0059  0.1455
48723SOL    HW253028   2.742   9.303   1.316 -1.3038  0.6865 -0.1472
48724SOL     OW53029  10.037   8.012   7.688  0.8541  0.3480  0.0895
48724SOL    HW153030   9.979   7.953   7.640 -1.6528  2.5789  0.0958
48724SOL    HW253031  10.122   7.969   7.686 -0.5851 -2.7686 -0.6378
48725SOL     OW53032   6.610  12.380  10.319 -0.1887 -0.2101 -0.1586
48725SOL    HW153033   6.566  12.315  10.263  2.1149 -0.9412 -1.2656
48725SOL    HW253034   6.599  12.463  10.272  1.1677 -0.7124 -1.4770
48726SOL     OW53035   4.434   2.842  12.166  0.1684 -0.4501 -0.1503
48726SOL    HW153036   4.477   2.926  12.177  0.1839 -0.4314 -0.3524
48726SOL    HW253037   4.390   2.848  12.081 -0.4722 -0.3584  0.1789
48727SOL     OW53038   6.933   1.896   0.499 -0.1353  0.4348 -0.4976
48727SOL    HW153039   6.872   1.966   0.524 -2.9462 -1.5265 -1.3588
48727SOL    HW253040   6.952   1.851   0.582  1.7050  2.1143  0.0641
48728SOL     OW53041   3.758   0.972   3.716 -0.3688 -0.6637 -0.5771
48728SOL    HW153042   3.752   1.067   3.724  0.5227 -0.5614 -1.0606
48728SOL    HW253043   3.804   0.944   3.795  0.5650 -0.5520 -1.0754
48729SOL     OW53044  11.021   2.620   8.284  0.4352  0.5922 -0.3386
48729SOL    HW153045  11.006   2.698   8.338  0.4425 -0.4300  1.1957
48729SOL    HW253046  11.115   2.622   8.265  0.4427  0.9261 -0.2762
48730SOL     OW53047   2.520   7.767   7.419  0.0899  0.0675  0.6435
48730SOL    HW153048   2.448   7.828   7.436  1.0682  0.8499  2.3274
48730SOL    HW253049   2.583   7.786   7.489  1.1017 -1.8603  0.3121
48731SOL     OW53050   2.147   4.837   1.801  0.5189  0.6147  0.0927
48731SOL    HW153051   2.173   4.888   1.724  0.7239 -0.5493 -0.6398
48731SOL    HW253052   2.057   4.812   1.783  0.7158 -0.0512 -0.0025
48732SOL     OW53053   3.800   1.433   4.909 -0.2577 -0.0528 -0.0580
48732SOL    HW153054   3.776   1.453   5.000 -0.7044  0.1807 -0.2229
48732SOL    HW253055   3.799   1.518   4.865  2.9482  0.3171  0.3685
48733SOL     OW53056   1.017   9.675   0.023  0.3091 -0.0740  0.3490
48733SOL    HW153057   1.064   9.610  -0.029 -1.0556  0.9824 -2.4513
48733SOL    HW253058   1.084   9.737   0.050  1.1072 -0.7655  0.0175
48734SOL     OW53059  10.758   8.208   1.608 -0.1921  0.0616  0.1489
48734SOL    HW153060  10.717   8.293   1.620 -0.2447  0.1504 -0.6128
48734SOL    HW253061  10.849   8.221   1.632  0.1681  0.7441 -1.4826
48735SOL     OW53062  12.295   6.523  10.169 -0.0667  0.0856  0.1974
48735SOL    HW153063  12.225   6.458  10.158 -0.5202  0.6564 -0.3145
48735SOL    HW253064  12.370   6.471  10.199 -1.2644 -0.2786  2.9348
48736SOL     OW53065   5.201   6.252  11.048 -0.0854 -0.3686 -0.4004
48736SOL    HW153066   5.259   6.314  11.092  0.4514 -1.2296  0.1375
48736SOL    HW253067   5.257   6.176  11.029 -1.2242 -1.6164  0.9651
48737SOL     OW53068  11.812   8.087   2.389 -0.0514 -0.4972  0.5554
48737SOL    HW153069  11.864   8.006   2.388  0.7106 -0.0098  0.0482
48737SOL    HW253070  11.733   8.063   2.438  0.1436 -1.5604  0.3933
48738SOL     OW53071  10.092   5.916   3.398  0.0315 -0.8259  0.3192
48738SOL    HW153072  10.090   5.826   3.367 -2.1575 -0.1586 -1.7930
48738SOL    HW253073  10.015   5.923   3.455  0.0638 -0.2381  0.2936
48739SOL     OW53074   6.548   9.261  11.709 -0.3039 -0.5833 -0.1713
48739SOL    HW153075   6.630   9.228  11.674 -0.4656  0.2433 -1.4087
48739SOL    HW253076   6.528   9.337  11.654 -1.5899 -0.4232  0.4859
48740SOL     OW53077   0.957   5.373   2.223  0.6032  0.2556  0.1435
48740SOL    HW153078   0.970   5.366   2.128  0.0711  0.5183  0.0486
48740SOL    HW253079   0.927   5.285   2.249 -2.4310  0.9824 -0.4636
48741SOL     OW53080  10.565   1.052   5.520  0.7112 -0.7005 -0.3044
48741SOL    HW153081  10.600   0.968   5.491  1.1157 -0.5682 -0.2212
48741SOL    HW253082  10.471   1.038   5.530  1.0095 -1.7166  1.5879
48742SOL     OW53083  10.391   2.959   8.506  0.3558  0.5468  0.1106
48742SOL    HW153084  10.299   2.980   8.517 -0.3372 -1.8706 -0.4045
48742SOL    HW253085  10.427   2.959   8.595 -0.3864  0.5389  0.4127
48743SOL     OW53086   6.373   7.869   3.428 -0.9948  0.2191 -0.2908
48743SOL    HW153087   6.392   7.963   3.434  0.9260 -0.2113  1.5175
48743SOL    HW253088   6.398   7.845   3.339 -0.1832  1.1811 -0.3471
48744SOL     OW53089   8.853   7.569   9.163  0.2597  0.0575  0.4529
48744SOL    HW153090   8.879   7.594   9.252  0.1443  0.0367  0.4939
48744SOL    HW253091   8.806   7.646   9.129 -0.0034 -0.0637  0.5389
48745SOL     OW53092   2.500   8.217   1.362  0.2940 -0.4265  0.1622
48745SOL    HW153093   2.460   8.286   1.309  0.7217  0.7470  1.3272
48745SOL    HW253094   2.428   8.158   1.382 -0.0745 -0.3490 -0.8778
48746SOL     OW53095   1.487  10.855   3.949 -0.1006  0.2000 -0.3791
48746SOL    HW153096   1.521  10.944   3.954 -0.7459  0.5163 -1.3566
48746SOL    HW253097   1.498  10.830   3.857 -4.8114  1.3017 -1.4847
48747SOL     OW53098   3.881   4.156   1.966 -0.4820 -0.2888  0.0534
48747SOL    HW153099   3.843   4.151   1.878 -0.8312  1.3317  0.0900
48747SOL    HW253100   3.974   4.174   1.950 -0.2855 -1.2546  0.0196
48748SOL     OW53101  10.073   2.658   7.974 -0.0717 -0.0545 -0.3460
48748SOL    HW153102   9.981   2.638   7.990  0.1765 -1.6956 -0.8428
48748SOL    HW253103  10.072   2.746   7.937 -1.5385 -0.4257 -1.2717
48749SOL     OW53104   6.459   5.725   0.303  0.8599 -0.4379  0.1368
48749SOL    HW153105   6.373   5.766   0.293  0.7195 -0.7538  0.0252
48749SOL    HW253106   6.473   5.724   0.398  0.3487 -1.1623  0.2185
48750SOL     OW53107   3.172   1.172   1.828  0.0046  0.2716  0.3904
48750SOL    HW153108   3.159   1.098   1.887 -0.2040 -0.4806 -0.5870
48750SOL    HW253109   3.173   1.134   1.741 -1.9663  1.6307 -0.2910
48751SOL     OW53110   4.828   1.705   1.765 -0.2829 -0.1340 -0.6183
48751SOL    HW153111   4.787   1.698   1.851  1.2481  0.1306  0.1683
48751SOL    HW253112   4.763   1.750   1.711 -1.1748 -0.0909  0.4491
48752SOL     OW53113   0.560  10.728   9.210 -0.1745 -0.1466 -0.4921
48752SOL    HW153114   0.585  10.681   9.290 -0.7168 -1.5251 -1.1068
48752SOL    HW253115   0.582  10.668   9.139 -4.5916 -1.3688 -1.1522
48753SOL     OW53116   0.091   5.090   1.374  0.1309  0.3742 -0.1607
48753SOL    HW153117   0.089   5.108   1.280  2.4832 -0.1404 -0.3576
48753SOL    HW253118   0.140   5.008   1.382  1.5541  1.3308  1.5949
48754SOL     OW53119   1.107   0.814  11.910  0.7183  0.0732 -0.1129
48754SOL    HW153120   1.033   0.858  11.953  0.6789 -0.0462 -0.0583
48754SOL    HW253121   1.131   0.873  11.838  0.6606  0.1805 -0.0449
48755SOL     OW53122   3.017  12.107   7.907 -0.8771  0.5974 -0.0062
48755SOL    HW153123   3.038  12.198   7.887  0.5636  0.0510 -1.1826
48755SOL    HW253124   3.043  12.095   7.998 -2.4138  1.7042  0.6206
48756SOL     OW53125   5.874   8.421   8.726 -0.1538 -0.3059 -0.0678
48756SOL    HW153126   5.855   8.395   8.636  0.1973 -1.0382  0.0616
48756SOL    HW253127   5.951   8.477   8.719 -0.4523  0.0773 -0.2784
48757SOL     OW53128  10.631   5.176  11.207  0.3975 -0.3004 -0.3086
48757SOL    HW153129  10.597   5.102  11.157  2.9034 -2.1199  0.4854
48757SOL    HW253130  10.697   5.215  11.151 -0.5164  1.0632 -0.4938
48758SOL     OW53131   4.892  12.527   0.428 -0.2542 -0.4423  0.2046
48758SOL    HW153132   4.813  12.541   0.374 -0.2427  3.8344  0.9603
48758SOL    HW253133   4.858  12.491   0.510 -1.3506  0.2983  0.1116
48759SOL     OW53134   6.868   0.017   6.167  0.0859 -0.2816 -0.4891
48759SOL    HW153135   6.850  -0.078   6.170 -0.2217 -0.1975  1.1628
48759SOL    HW253136   6.783   0.056   6.143 -0.4008 -0.2933  1.1326
48760SOL     OW53137   0.192   1.289  11.821  0.1379  0.1506  0.2884
48760SOL    HW153138   0.232   1.352  11.761 -0.0764 -0.8017 -0.8920
48760SOL    HW253139   0.237   1.207  11.802  2.3594  0.3980  3.6987
48761SOL     OW53140  11.902   3.865   9.107  0.1716  0.2788  0.3722
48761SOL    HW153141  11.876   3.954   9.130 -1.2360  0.1617 -0.6556
48761SOL    HW253142  11.836   3.835   9.045  1.5533 -0.8853 -0.6230
48762SOL     OW53143   6.489   3.436   8.171 -0.5004 -0.4670 -0.0901
48762SOL    HW153144   6.438   3.383   8.110 -1.1504 -1.0604  0.9451
48762SOL    HW253145   6.438   3.436   8.252  0.8912 -0.6619  0.8177
48763SOL     OW53146   5.266   4.298   7.079 -0.1470  0.5154 -0.0743
48763SOL    HW153147   5.291   4.304   7.171  1.5081 -1.4499 -0.3199
48763SOL    HW253148   5.219   4.215   7.073 -2.6473  1.8696 -0.5720
48764SOL     OW53149  12.502   9.556   7.066  0.0765 -0.7873 -0.5936
48764SOL    HW153150  12.536   9.468   7.078  0.6358 -0.6313 -0.9818
48764SOL    HW253151  12.555   9.611   7.124 -0.8578 -0.8259  0.3232
48765SOL     OW53152   1.625   4.009   7.285 -0.2385 -0.5409  0.4246
48765SOL    HW153153   1.719   4.026   7.278 -0.3191 -0.4345 -0.6293
48765SOL    HW253154   1.584   4.094   7.276 -0.4368 -0.5468  1.1977
48766SOL     OW53155   2.214   8.837   7.319 -0.4139  0.0056 -0.0462
48766SOL    HW153156   2.231   8.862   7.228  1.9007 -0.7937  0.1005
48766SOL    HW253157   2.200   8.742   7.316 -2.1029  0.2033  0.2664
48767SOL     OW53158   0.406   8.563  10.621  0.1039  0.0942 -0.1755
48767SOL    HW153159   0.392   8.632  10.686 -0.0634 -0.7487  0.6947
48767SOL    HW253160   0.498   8.571  10.597 -0.0970  1.1377 -0.7074
48768SOL     OW53161   3.051  12.548   1.918  0.1797 -0.2499  0.0285
48768SOL    HW153162   3.005  12.628   1.890 -0.5092 -0.7947 -0.4408
48768SOL    HW253163   3.099  12.520   1.840 -1.9907 -1.9478 -0.8132
48769SOL     OW53164   6.440   2.552   5.864 -0.5502 -0.3429 -0.1580
48769SOL    HW153165   6.381   2.578   5.935 -0.3947 -1.6462  0.4735
48769SOL    HW253166   6.491   2.479   5.900  0.7175  0.0654 -1.0518
48770SOL     OW53167   0.499   2.148   2.464  0.1964 -0.0080  0.2961
48770SOL    HW153168   0.566   2.190   2.519  0.9310  0.9983 -1.3066
48770SOL    HW253169   0.491   2.206   2.388 -0.5390 -1.5505 -0.8368
48771SOL     OW53170   4.415   3.536  11.329  0.1260 -0.2211  0.0882
48771SOL    HW153171   4.479   3.465  11.320 -0.1646 -0.3838 -0.8530
48771SOL    HW253172   4.458   3.612  11.289 -0.4338 -0.4525 -1.0022
48772SOL     OW53173   2.918  12.260   0.300  0.1660 -0.1402  0.3252
48772SOL    HW153174   2.944  12.324   0.233 -0.2036 -0.2000  0.1203
48772SOL    HW253175   2.948  12.299   0.382 -0.5185  0.5600  0.2571
48773SOL     OW53176   1.417   2.971   2.128 -0.2120  0.2182  0.5799
48773SOL    HW153177   1.404   3.065   2.122  2.0374  0.5306 -0.4701
48773SOL    HW253178   1.332   2.936   2.153 -2.0067  2.1829 -2.2352
48774SOL     OW53179   1.829   4.845   5.153 -0.3314  0.3509  0.2128
48774SOL    HW153180   1.863   4.839   5.242 -0.9597  0.6635  0.4810
48774SOL    HW253181   1.832   4.754   5.121  0.2236  0.2894  0.4188
48775SOL     OW53182   2.519   6.380   4.931 -0.1377 -0.3382  0.1615
48775SOL    HW153183   2.609   6.352   4.917  0.4764  1.5310 -0.0017
48775SOL    HW253184   2.527   6.472   4.956 -1.7869 -0.9131  3.3673
48776SOL     OW53185  10.863  12.068   9.189 -0.3352  0.0489  0.5681
48776SOL    HW153186  10.800  12.119   9.241 -0.2849  0.2560  0.4259
48776SOL    HW253187  10.943  12.069   9.241 -0.0994  0.7838  0.1924
48777SOL     OW53188   0.696   7.683   2.777  0.4096 -0.1815  0.0617
48777SOL    HW153189   0.618   7.643   2.740  0.5601 -1.0487  0.6592
48777SOL    HW253190   0.766   7.619   2.762  0.7192 -0.0145  0.7462
48778SOL     OW53191   7.679   9.279   8.865 -0.5253  0.8633 -0.1657
48778SOL    HW153192   7.621   9.255   8.792  0.3427  1.0745 -0.9462
48778SOL    HW253193   7.737   9.204   8.875 -0.4651  0.9500  0.1339
48779SOL     OW53194   3.270  11.759   2.995  0.2638 -0.3503 -0.0123
48779SOL    HW153195   3.221  11.830   3.036  1.4144  1.6663 -1.9109
48779SOL    HW253196   3.361  11.776   3.018  0.6051 -0.9491 -0.8594
48780SOL     OW53197   9.784   8.959   0.109  0.0849 -0.0722 -0.1362
48780SOL    HW153198   9.781   8.933   0.201  0.1188  0.5891  0.0510
48780SOL    HW253199   9.735   9.041   0.105 -0.8648 -0.6452 -0.8972
48781SOL     OW53200   6.175  12.298   2.212  0.3496  0.2762 -0.5789
48781SOL    HW153201   6.245  12.356   2.241 -0.0853 -0.6479  2.7498
48781SOL    HW253202   6.107  12.357   2.180  0.6301  1.5679  1.0468
48782SOL     OW53203   2.213   5.033  10.387  0.2332 -0.1890  1.1476
48782SOL    HW153204   2.295   4.995  10.415  0.7861 -0.3433 -0.5598
48782SOL    HW253205   2.220   5.039  10.292 -0.2547  3.1131  1.1730
48783SOL     OW53206  10.597   1.220   0.499  0.3803  0.6401  0.0745
48783SOL    HW153207  10.610   1.211   0.593  1.3173  2.4204  0.1577
48783SOL    HW253208  10.537   1.293   0.490  0.1618  0.3740 -0.7183
48784SOL     OW53209   3.076   4.347   4.714  0.3425 -0.6365 -0.6570
48784SOL    HW153210   3.125   4.334   4.795 -0.3949  0.2252 -0.0527
48784SOL    HW253211   3.132   4.308   4.646  1.7330  0.0790  0.0334
48785SOL     OW53212   5.033   6.977   5.939 -0.3466 -0.3940  0.5349
48785SOL    HW153213   4.944   6.960   5.970 -0.4604 -0.1689  0.3323
48785SOL    HW253214   5.041   7.072   5.940 -0.2735 -0.3938  0.0888
48786SOL     OW53215   7.096   7.763   9.285 -0.3703  0.0605  0.0943
48786SOL    HW153216   7.013   7.792   9.321 -1.2082 -1.4172 -0.5306
48786SOL    HW253217   7.150   7.744   9.361 -0.5466  1.1445  0.5060
48787SOL     OW53218  11.026   6.749   8.023  0.1057  0.4081  0.0876
48787SOL    HW153219  10.942   6.788   7.999  0.7657  1.7164 -0.1805
48787SOL    HW253220  11.020   6.658   7.993 -0.6985  0.8600 -1.1887
48788SOL     OW53221  10.784   1.380   9.521  0.0328 -0.2112 -0.5759
48788SOL    HW153222  10.688   1.375   9.524 -0.0906  1.0084 -1.5478
48788SOL    HW253223  10.809   1.324   9.448  0.1079 -0.8254 -0.0911
48789SOL     OW53224   6.774  10.480  11.512 -0.0890 -0.2588 -0.1181
48789SOL    HW153225   6.778  10.412  11.445 -0.7018 -2.8286  2.2676
48789SOL    HW253226   6.864  10.487  11.544 -0.0216  0.1097 -0.3785
48790SOL     OW53227  10.467   9.010   4.122  0.0611  0.4912 -0.0046
48790SOL    HW153228  10.389   8.970   4.083  0.0454 -0.8933  1.3443
48790SOL    HW253229  10.522   9.033   4.047 -0.5114 -0.8828 -0.8946
48791SOL     OW53230   6.838   7.030   3.983 -0.1810 -0.4602 -0.0823
48791SOL    HW153231   6.816   7.090   4.055  1.4774  1.0997 -0.7805
48791SOL    HW253232   6.798   7.070   3.905  0.1158 -0.7818 -0.4041
48792SOL     OW53233   2.106  11.407   9.846 -0.1819 -0.2508  0.0838
48792SOL    HW153234   2.083  11.428   9.755  0.5685 -0.7454 -0.2345
48792SOL    HW253235   2.116  11.492   9.888 -0.8711 -0.0182 -0.2016
48793SOL     OW53236   6.428   1.369   3.020 -0.3179  0.1544 -0.3451
48793SOL    HW153237   6.458   1.320   2.943  2.2939  0.9534  0.0553
48793SOL    HW253238   6.479   1.333   3.093  1.0124  2.6867  0.1079
48794SOL     OW53239   8.705   7.584  11.378 -0.5538 -0.2602 -0.4073
48794SOL    HW153240   8.714   7.672  11.415 -1.6546 -0.0976 -0.4937
48794SOL    HW253241   8.783   7.538  11.408 -0.4302  0.4612  0.4448
48795SOL     OW53242   8.762   6.826   9.818 -0.0776 -0.0550  0.1218
48795SOL    HW153243   8.817   6.840   9.742  2.4162 -0.2145  1.7892
48795SOL    HW253244   8.718   6.910   9.832 -0.2916  0.0749 -1.2304
48796SOL     OW53245   4.017  11.216   3.882 -0.1105  0.3525  0.5373
48796SOL    HW153246   4.106  11.183   3.893  0.6571  2.4844  1.3892
48796SOL    HW253247   3.961  11.140   3.896  1.5719 -1.1642 -0.5989
48797SOL     OW53248   5.912   4.674   5.557  0.1613 -0.4441  0.1612
48797SOL    HW153249   5.838   4.725   5.588  0.5531 -0.1263  0.5860
48797SOL    HW253250   5.987   4.733   5.563  0.5449 -0.9269  0.2514
48798SOL     OW53251   9.298   6.812   8.066  0.0290 -0.5017  0.3311
48798SOL    HW153252   9.344   6.817   8.150 -0.5788 -0.8814  0.6949
48798SOL    HW253253   9.324   6.892   8.020  1.8177 -1.1831  0.1098
48799SOL     OW53254  11.964   9.819   4.301  0.4418 -0.0016 -0.5414
48799SOL    HW153255  11.956   9.888   4.235  0.4202  0.0205 -0.5152
48799SOL    HW253256  12.055   9.790   4.294  0.0382 -1.1171 -1.6954
48800SOL     OW53257   8.166   1.365   7.186  0.0878  0.3162  0.2986
48800SOL    HW153258   8.220   1.408   7.120  0.4682 -0.5646  0.0283
48800SOL    HW253259   8.076   1.378   7.156  0.2692 -0.2229 -0.4823
48801SOL     OW53260  11.698   7.454   5.937 -0.5991 -0.0765 -0.5397
48801SOL    HW153261  11.608   7.420   5.943 -0.6123 -0.2161 -1.4379
48801SOL    HW253262  11.689   7.547   5.960 -0.6814 -0.4685  1.1509
48802SOL     OW53263   6.347  12.566   9.192  0.6537 -0.2617  0.1934
48802SOL    HW153264   6.373  12.524   9.274 -0.5202 -0.2265  0.6145
48802SOL    HW253265   6.302  12.497   9.143  0.0235  0.1033  0.2409
48803SOL     OW53266   0.209   1.863   5.718  0.5547  0.4498 -0.6035
48803SOL    HW153267   0.132   1.874   5.661 -0.4110 -0.4791  0.4899
48803SOL    HW253268   0.213   1.770   5.736 -0.0736  0.8417  2.0318
48804SOL     OW53269   7.309  12.369   1.105 -0.2815 -0.0120 -0.4227
48804SOL    HW153270   7.371  12.441   1.096 -0.2426 -0.0720 -0.6324
48804SOL    HW253271   7.325  12.314   1.029  1.2128 -1.4145  0.8340
48805SOL     OW53272   4.959   0.409  11.483 -0.0553 -0.1750  0.0971
48805SOL    HW153273   4.970   0.502  11.501  0.3572 -0.2255  0.0974
48805SOL    HW253274   5.005   0.396  11.400 -0.1588 -0.3677  0.0710
48806SOL     OW53275   9.848  10.262   2.376 -0.1690  0.2399 -0.9008
48806SOL    HW153276   9.769  10.222   2.340 -0.5519  0.2192 -0.0773
48806SOL    HW253277   9.903  10.188   2.402 -1.5736  0.0883  2.1544
48807SOL     OW53278   6.829   5.154  11.100 -0.2726  0.3448 -0.4765
48807SOL    HW153279   6.895   5.141  11.169 -1.7137 -2.1009  0.5994
48807SOL    HW253280   6.861   5.228  11.049  2.3907  0.3509  1.0314
48808SOL     OW53281  10.257  11.621   1.321 -0.0099 -0.3778 -0.6221
48808SOL    HW153282  10.275  11.539   1.275  1.3296  0.0233 -0.8452
48808SOL    HW253283  10.221  11.679   1.254  1.5623  0.0718 -1.1330
48809SOL     OW53284   0.226   7.307   4.358 -1.1214 -0.4805  0.1485
48809SOL    HW153285   0.180   7.364   4.420 -0.6945 -0.2596  0.2598
48809SOL    HW253286   0.242   7.361   4.281 -1.7307 -0.7804 -0.2001
48810SOL     OW53287   2.640   2.169  12.472 -0.0951  0.6697  0.3254
48810SOL    HW153288   2.561   2.192  12.522  0.3142  0.0055  1.2980
48810SOL    HW253289   2.637   2.228  12.396 -0.8533  1.5433  0.9959
48811SOL     OW53290   5.037   8.864  10.551 -0.5876  0.2898  0.1320
48811SOL    HW153291   4.950   8.874  10.588 -0.0432 -0.1456  1.6516
48811SOL    HW253292   5.090   8.930  10.596 -0.2318  0.9404 -1.1890
48812SOL     OW53293   1.423   6.435   3.545  0.0272 -0.4940 -0.4341
48812SOL    HW153294   1.413   6.518   3.591 -1.1665 -0.9682  0.1955
48812SOL    HW253295   1.490   6.388   3.594  1.0362  0.2576 -1.0558
48813SOL     OW53296   3.723   0.547   9.690 -0.2167 -0.5100 -0.1145
48813SOL    HW153297   3.708   0.452   9.697  1.8026 -0.8432  0.0875
48813SOL    HW253298   3.748   0.560   9.598  2.3218 -0.6642  0.4865
48814SOL     OW53299  10.034   1.665  10.373 -0.0375 -0.1395 -0.6652
48814SOL    HW153300  10.017   1.588  10.427 -0.4925 -0.6548 -1.5240
48814SOL    HW253301   9.969   1.660  10.303 -0.4884  1.3750 -0.3830
48815SOL     OW53302   8.252  10.357  12.150 -0.2788  0.3781 -0.2671
48815SOL    HW153303   8.195  10.424  12.114  0.1130  0.5338 -0.5983
48815SOL    HW253304   8.340  10.380  12.119 -0.2475 -0.7448 -1.0816
48816SOL     OW53305   6.345   6.353   1.995 -0.2843  0.3530 -0.6694
48816SOL    HW153306   6.324   6.299   1.919 -2.8806 -1.1121  0.9439
48816SOL    HW253307   6.293   6.433   1.983 -2.8313 -0.9783  0.6890
48817SOL     OW53308   4.712   5.735   5.726  0.5762  0.1711  0.4637
48817SOL    HW153309   4.660   5.752   5.648  2.2371  0.6637 -0.6035
48817SOL    HW253310   4.765   5.814   5.738  1.0762 -0.2951  1.5043
48818SOL     OW53311   1.698   1.671   0.611 -0.2106  0.1094 -0.2713
48818SOL    HW153312   1.761   1.729   0.653 -1.7252  0.2183  2.0609
48818SOL    HW253313   1.751   1.610   0.560  1.9479 -0.6948  2.6598
48819SOL     OW53314   3.504  11.626   7.429  0.1997  0.5607  0.1763
48819SOL    HW153315   3.498  11.583   7.514  0.3554  1.5631  0.7203
48819SOL    HW253316   3.413  11.639   7.402  0.1577 -0.7638 -0.3490
48820SOL     OW53317   4.117   0.234   2.935  0.1582  0.1440 -0.1482
48820SOL    HW153318   4.032   0.228   2.979 -0.4272 -1.0207 -1.3629
48820SOL    HW253319   4.170   0.289   2.993 -1.2223  0.3937  0.9393
48821SOL     OW53320  10.857  10.023   2.109  0.1173 -0.0497 -0.6404
48821SOL    HW153321  10.876   9.946   2.163 -0.5838  0.4792  0.3860
48821SOL    HW253322  10.778  10.060   2.147 -0.9221 -0.1367 -2.5851
48822SOL     OW53323   8.896   4.945  11.009  0.1579  0.0149  0.1911
48822SOL    HW153324   8.829   4.893  11.054  2.7050 -2.0962  1.7647
48822SOL    HW253325   8.962   4.964  11.075  1.1370  2.1912 -1.2562
48823SOL     OW53326   2.462   9.474  11.912  0.1833 -0.6740  0.2291
48823SOL    HW153327   2.413   9.523  11.845  0.5174  0.6612  0.9316
48823SOL    HW253328   2.525   9.423  11.862 -1.0238 -1.4039 -0.6076
48824SOL     OW53329  10.396   2.922   4.981 -0.2709  0.0931  0.7123
48824SOL    HW153330  10.402   2.947   4.889 -0.6058  0.0615  0.6784
48824SOL    HW253331  10.316   2.870   4.986 -0.8492  0.9903  1.2128
48825SOL     OW53332   0.151   3.016   3.264 -0.3254 -0.4797 -0.5298
48825SOL    HW153333   0.138   3.021   3.359  0.9097 -1.4954 -0.2769
48825SOL    HW253334   0.077   3.063   3.227 -0.7906  0.0013  0.9432
48826SOL     OW53335   7.670   8.353   5.761  0.5398  0.0675 -0.0951
48826SOL    HW153336   7.642   8.414   5.830  0.4046  0.6787 -0.6843
48826SOL    HW253337   7.740   8.302   5.802  2.3915  2.2717 -0.3265
48827SOL     OW53338   7.711  11.091   3.494  0.3277 -0.0780 -0.2581
48827SOL    HW153339   7.649  11.038   3.544  0.4331 -0.5668 -0.6428
48827SOL    HW253340   7.735  11.036   3.420  2.0338 -0.3355  0.4437
48828SOL     OW53341   5.395   0.523   6.722  0.2036  0.2323 -0.4095
48828SOL    HW153342   5.315   0.575   6.719  0.0182 -0.0906 -1.5029
48828SOL    HW253343   5.451   0.562   6.655  0.8453  0.2689  0.1401
48829SOL     OW53344   7.149   4.848   1.799 -0.0044 -0.5159  0.3155
48829SOL    HW153345   7.224   4.805   1.758 -0.8727 -0.1273 -1.8794
48829SOL    HW253346   7.111   4.781   1.855 -0.2497 -2.0861 -1.5900
48830SOL     OW53347  10.698   9.734   9.338 -0.6952 -0.1168 -0.1455
48830SOL    HW153348  10.716   9.779   9.421  1.3312  0.2458 -0.7229
48830SOL    HW253349  10.693   9.805   9.273  3.3767 -0.5765 -1.2148
48831SOL     OW53350   8.196  11.195   8.009 -0.1254 -0.3576 -0.1181
48831SOL    HW153351   8.257  11.123   7.993 -0.0514 -1.0469  2.7169
48831SOL    HW253352   8.110  11.153   8.017  0.2123 -0.7097  4.0011
48832SOL     OW53353  10.756   8.629   1.914  0.1211  0.0229 -0.3082
48832SOL    HW153354  10.756   8.721   1.888 -2.1542 -0.2698 -1.5846
48832SOL    HW253355  10.669   8.615   1.952  0.2295 -1.7260 -0.6423
48833SOL     OW53356   9.380  10.194   0.783  0.2931 -0.7852  0.2244
48833SOL    HW153357   9.363  10.104   0.814 -0.0656 -1.6353 -2.2247
48833SOL    HW253358   9.292  10.229   0.766  0.4001  0.3002  1.7642
48834SOL     OW53359   1.357   6.334   7.618 -0.0655  0.0280 -0.2640
48834SOL    HW153360   1.268   6.317   7.587 -0.6820  1.9566  0.3041
48834SOL    HW253361   1.347   6.404   7.683  1.8961  0.4208 -0.3159
48835SOL     OW53362  11.431  10.248   3.367  0.1334  0.3368  0.0708
48835SOL    HW153363  11.336  10.244   3.356  0.1306 -1.2409  0.4409
48835SOL    HW253364  11.457  10.157   3.383  1.5900  0.8639  0.8924
48836SOL     OW53365   9.484   5.978   8.248 -0.3273 -0.3910 -0.4403
48836SOL    HW153366   9.409   5.918   8.256 -0.6309 -0.0646 -0.8091
48836SOL    HW253367   9.512   5.993   8.338 -1.2861  0.2083 -0.2199
48837SOL     OW53368   7.549   9.406   8.306 -0.2170 -0.4749 -0.3195
48837SOL    HW153369   7.593   9.401   8.391  0.0609 -1.4684 -0.5078
48837SOL    HW253370   7.578   9.489   8.269 -0.3798 -0.0028  0.5691
48838SOL     OW53371   9.196  11.218   4.917 -0.2748  0.2720 -0.1356
48838SOL    HW153372   9.287  11.214   4.948  0.2043  0.2381 -1.4719
48838SOL    HW253373   9.204  11.226   4.822 -1.6658  2.1224 -0.1397
48839SOL     OW53374   0.770   1.206   4.588  0.5529  0.5577 -0.1681
48839SOL    HW153375   0.725   1.160   4.659  0.0699  1.1114 -0.1066
48839SOL    HW253376   0.841   1.254   4.632  0.9380  0.0368 -0.2087
48840SOL     OW53377   9.798   3.017   5.494 -0.3903 -0.0196  0.2175
48840SOL    HW153378   9.760   3.024   5.581 -1.3232 -1.3077 -0.0579
48840SOL    HW253379   9.723   3.011   5.435  0.2278  0.9260 -0.6979
48841SOL     OW53380  11.951  10.349  12.117  0.2500 -0.0970  0.4677
48841SOL    HW153381  11.878  10.289  12.128  0.8316 -0.6128  1.7178
48841SOL    HW253382  11.910  10.435  12.109 -0.5786 -0.6008 -1.0664
48842SOL     OW53383   6.882   7.997   5.139  0.1924  0.3240  0.0913
48842SOL    HW153384   6.827   8.070   5.113  0.0564  0.5356  0.9187
48842SOL    HW253385   6.912   8.020   5.228 -0.9822 -1.2295  0.9387
48843SOL     OW53386   2.810   1.116   0.623 -0.4272  0.1009 -0.1666
48843SOL    HW153387   2.744   1.175   0.661  0.1853  0.6030  0.1310
48843SOL    HW253388   2.870   1.174   0.577 -1.6239 -0.5440 -2.7093
48844SOL     OW53389   0.652   7.523   5.139 -0.2039 -0.1146  0.4974
48844SOL    HW153390   0.742   7.512   5.109 -0.0184 -0.0305  1.0157
48844SOL    HW253391   0.609   7.572   5.069 -0.1999 -1.3067 -0.3766
48845SOL     OW53392   2.318   4.652  10.703  0.0408  0.7079 -0.3789
48845SOL    HW153393   2.390   4.703  10.739 -1.2457  0.0220  3.6644
48845SOL    HW253394   2.239   4.696  10.733 -1.1338 -1.8615  0.6251
48846SOL     OW53395   7.577   5.785   8.370 -0.7495 -0.0192 -0.1048
48846SOL    HW153396   7.506   5.849   8.365 -2.3824 -1.7951 -0.5453
48846SOL    HW253397   7.549   5.723   8.438  1.4025  0.3937  1.2438
48847SOL     OW53398  11.845   7.245   2.321  0.3275  0.1951  0.3013
48847SOL    HW153399  11.918   7.185   2.333  0.4109  0.2441  0.0302
48847SOL    HW253400  11.783   7.198   2.265  1.1923  1.0282 -1.4415
48848SOL     OW53401   0.333   4.845   2.923  0.6423  0.0841 -0.1818
48848SOL    HW153402   0.383   4.770   2.893 -0.4155 -0.4598 -0.6225
48848SOL    HW253403   0.341   4.843   3.019 -0.2236 -1.2068 -0.1150
48849SOL     OW53404   1.058   0.168   2.742  0.7776 -0.1324 -0.7347
48849SOL    HW153405   1.133   0.118   2.709 -0.5385 -1.4408 -1.8675
48849SOL    HW253406   1.032   0.223   2.668  0.1675 -0.2348 -0.6019
48850SOL     OW53407  10.233  11.771  12.029 -0.0594  0.2872  0.0197
48850SOL    HW153408  10.147  11.730  12.031 -0.1830  0.4943 -0.8253
48850SOL    HW253409  10.266  11.756  11.941  0.6120  0.5378  0.2149
48851SOL     OW53410   7.290   3.510  11.488  0.5170  0.3861  0.5809
48851SOL    HW153411   7.319   3.425  11.520  0.1055  0.3639  0.9187
48851SOL    HW253412   7.360   3.540  11.430  0.3577 -0.4816 -0.0738
48852SOL     OW53413   6.812   6.058   2.345 -0.4832  0.0550 -0.0275
48852SOL    HW153414   6.737   6.106   2.380 -2.3258 -2.5339 -0.1161
48852SOL    HW253415   6.792   6.046   2.253  0.1081 -0.5951 -0.0798
48853SOL     OW53416   7.631   2.764  10.716  0.1648  0.2755 -0.5841
48853SOL    HW153417   7.689   2.697  10.752 -1.4532 -1.8561 -1.6912
48853SOL    HW253418   7.662   2.779  10.627  0.8502  1.4645 -0.1700
48854SOL     OW53419   7.452  10.535  12.230 -0.0944 -0.0254 -0.1919
48854SOL    HW153420   7.466  10.442  12.214 -0.4301 -0.5199  2.0717
48854SOL    HW253421   7.539  10.574  12.221 -0.1479 -0.2843 -2.4214
48855SOL     OW53422   2.163   8.456   7.468  0.5258  0.6128 -0.4114
48855SOL    HW153423   2.175   8.486   7.558 -0.4302  2.6109 -0.8979
48855SOL    HW253424   2.200   8.367   7.467  0.7536  0.6309  1.8698
48856SOL     OW53425  11.880   5.116   0.346  0.3681  0.6712  0.3706
48856SOL    HW153426  11.948   5.057   0.315  0.7887  1.0992  0.4620
48856SOL    HW253427  11.799   5.065   0.341  0.5951  0.3759 -0.3719
48857SOL     OW53428   9.175   0.200   9.759  0.8489 -0.1045 -0.7090
48857SOL    HW153429   9.224   0.144   9.699  1.0704 -0.5823 -0.0811
48857SOL    HW253430   9.236   0.270   9.783  0.6399  0.2986 -1.3222
48858SOL     OW53431  10.518   6.096   5.555  0.3070 -0.0303  0.2684
48858SOL    HW153432  10.561   6.055   5.480 -0.2394  0.2006 -0.1736
48858SOL    HW253433  10.578   6.166   5.582  0.0248  0.5512 -0.5976
48859SOL     OW53434   8.914   7.560  10.069  0.5840  0.7795  0.4007
48859SOL    HW153435   8.881   7.621  10.134 -0.0585  1.6078 -0.6711
48859SOL    HW253436   8.874   7.476  10.093 -1.2882  1.4812 -0.0717
48860SOL     OW53437   8.745   7.060   4.373 -0.1789  0.2137 -0.2034
48860SOL    HW153438   8.736   7.135   4.432  1.3454  1.2624 -1.2210
48860SOL    HW253439   8.756   7.100   4.287  1.9867 -1.1277 -0.6008
48861SOL     OW53440   9.801   1.140   9.980  0.4725 -0.3902  0.5004
48861SOL    HW153441   9.794   1.179   9.893 -1.3157  0.6273  1.0327
48861SOL    HW253442   9.887   1.167  10.012  1.5091 -1.4751 -1.2309
48862SOL     OW53443   2.713   8.259   8.963 -0.0463  0.6682 -0.1498
48862SOL    HW153444   2.808   8.262   8.955 -0.0562  0.6828 -0.2651
48862SOL    HW253445   2.683   8.217   8.882 -0.0678 -0.4439  0.4119
48863SOL     OW53446   2.448   3.573   4.688  0.4182 -0.0054 -0.0606
48863SOL    HW153447   2.385   3.524   4.634 -0.7906 -0.3753  1.6096
48863SOL    HW253448   2.477   3.645   4.631 -0.8207 -0.3569 -1.1925
48864SOL     OW53449   6.135   5.765   2.942 -0.0872  0.2034 -0.0346
48864SOL    HW153450   6.142   5.803   2.855  1.1675 -1.0768 -0.5463
48864SOL    HW253451   6.214   5.793   2.988  0.6979 -1.4141 -0.3139
48865SOL     OW53452   1.612   8.163  10.177 -0.2360 -0.2408 -0.1391
48865SOL    HW153453   1.692   8.126  10.141 -0.0203 -0.0213  0.1102
48865SOL    HW253454   1.587   8.104  10.248  0.2275  0.1972  0.4009
48866SOL     OW53455   0.711   1.622   1.430 -0.0983 -0.2408 -0.1442
48866SOL    HW153456   0.669   1.686   1.488  0.4236  0.3174 -0.3726
48866SOL    HW253457   0.796   1.660   1.410  0.0887 -0.8611 -0.5482
48867SOL     OW53458  11.249   9.502   2.591 -0.5303 -0.5816  0.0467
48867SOL    HW153459  11.313   9.446   2.548 -0.7322 -0.1549 -0.8251
48867SOL    HW253460  11.164   9.461   2.570 -0.5585 -1.2326  1.3192
48868SOL     OW53461   6.808  11.931   0.944 -0.5803 -0.5065 -0.7986
48868SOL    HW153462   6.846  11.874   0.876 -0.2213 -1.4713  0.1686
48868SOL    HW253463   6.798  11.873   1.020 -2.1737  0.2317 -0.4181
48869SOL     OW53464   5.062  12.511   8.959 -0.0367  0.1219  0.6577
48869SOL    HW153465   4.983  12.537   8.911  0.5905  0.5584 -0.1562
48869SOL    HW253466   5.065  12.570   9.034 -1.2327 -0.8105  1.4827
48870SOL     OW53467  11.549   1.144   2.462 -0.5305 -0.3712 -0.2274
48870SOL    HW153468  11.469   1.186   2.493 -0.5333  0.5348 -1.3672
48870SOL    HW253469  11.524   1.105   2.378  0.1883 -0.1103 -0.5765
48871SOL     OW53470   8.904   7.427   2.909  0.1100 -0.5171 -0.4022
48871SOL    HW153471   8.918   7.459   2.998 -2.2224  2.0313 -0.8386
48871SOL    HW253472   8.854   7.346   2.921  0.9082 -0.8992  0.5800
48872SOL     OW53473   0.102   4.314  10.870 -0.0542 -0.0583 -0.1540
48872SOL    HW153474   0.099   4.383  10.937  0.5229  0.8886 -1.0704
48872SOL    HW253475   0.155   4.352  10.800 -2.6802 -0.0228 -2.2722
48873SOL     OW53476   2.314  11.801   1.769 -0.3664  0.1527  0.0009
48873SOL    HW153477   2.251  11.869   1.749 -0.4894  0.2984  0.8783
48873SOL    HW253478   2.267  11.719   1.754 -1.1890  0.2455  1.8933
48874SOL     OW53479   1.268   8.564   7.377 -0.1539 -0.5299  0.0506
48874SOL    HW153480   1.192   8.570   7.435  1.6094 -0.6986  2.5154
48874SOL    HW253481   1.300   8.654   7.372 -0.3477 -0.5007 -0.7953
48875SOL     OW53482  11.461   5.863   8.372  0.1324  0.0902  0.2475
48875SOL    HW153483  11.481   5.879   8.464  0.5062 -0.9363  0.3555
48875SOL    HW253484  11.515   5.924   8.324  0.8819 -0.2319  0.6720
48876SOL     OW53485   3.182   9.411   7.312  0.3278  0.8826 -0.1585
48876SOL    HW153486   3.214   9.440   7.226  0.6055 -0.0745 -0.3862
48876SOL    HW253487   3.087   9.421   7.308  0.0226 -1.8237 -1.6341
48877SOL     OW53488   8.606   4.782   2.913  0.4716 -0.0679 -0.4597
48877SOL    HW153489   8.631   4.827   2.994 -0.4440 -0.5431  0.1002
48877SOL    HW253490   8.655   4.699   2.917  1.1087  0.2853 -0.8288
48878SOL     OW53491   5.522   3.612   9.817  0.1556  0.0675  0.5135
48878SOL    HW153492   5.483   3.556   9.885 -0.6652 -0.4965 -0.3930
48878SOL    HW253493   5.450   3.628   9.756  0.7621  0.9684  0.0279
48879SOL     OW53494   9.484  11.951   9.493  0.4939  0.5209 -0.1682
48879SOL    HW153495   9.420  11.886   9.467  0.1583 -0.1953  2.2196
48879SOL    HW253496   9.434  12.033   9.500 -0.3907 -0.1137  2.1084
48880SOL     OW53497   9.100  11.554   4.107  0.7985  0.0965 -0.3335
48880SOL    HW153498   9.057  11.562   4.193  1.1393 -0.6176 -0.0904
48880SOL    HW253499   9.062  11.625   4.055 -1.5628 -1.1748 -0.4869
48881SOL     OW53500   1.785   3.996  12.131 -0.0602  0.3589 -0.6576
48881SOL    HW153501   1.836   4.022  12.208 -0.7521 -0.4624  0.0966
48881SOL    HW253502   1.700   4.038  12.144 -0.3014 -0.0882 -0.7865
48882SOL     OW53503   9.737  11.122   4.458  0.2444 -0.1379  0.5285
48882SOL    HW153504   9.794  11.138   4.382 -1.0895  0.0668 -0.4800
48882SOL    HW253505   9.659  11.080   4.420 -0.9132  0.9218  1.6169
48883SOL     OW53506   5.307   9.269   8.943  0.3484  0.1545  0.0629
48883SOL    HW153507   5.221   9.283   8.981  0.5721 -0.0560  0.6608
48883SOL    HW253508   5.293   9.270   8.848 -0.6686 -2.1080  0.1406
48884SOL     OW53509   4.005   7.085   3.320 -0.4700 -0.1742  0.2371
48884SOL    HW153510   4.091   7.089   3.279  1.2378 -2.2221  3.2157
48884SOL    HW253511   3.999   7.166   3.370 -0.4139  0.0960 -0.1872
48885SOL     OW53512   7.166  11.937  12.239  0.0685 -0.1416  0.0463
48885SOL    HW153513   7.234  11.960  12.301  2.0269 -0.7386 -1.7645
48885SOL    HW253514   7.158  11.842  12.246 -0.3503 -0.1101  0.0216
48886SOL     OW53515   8.943   8.099   8.920  0.4341  0.3886 -0.5249
48886SOL    HW153516   8.946   8.044   8.998  1.5465  0.8335 -0.2317
48886SOL    HW253517   8.880   8.056   8.862 -0.8761  0.3889  0.8445
48887SOL     OW53518   8.513   2.607   9.223 -0.2033  0.1986  0.4555
48887SOL    HW153519   8.586   2.546   9.217  0.3616  0.8114  0.9893
48887SOL    HW253520   8.523   2.664   9.147  0.6116  1.0765  1.2119
48888SOL     OW53521  12.460  12.381   0.757  0.0041  0.0440  0.2861
48888SOL    HW153522  12.525  12.395   0.688 -0.5269 -0.9913 -0.4557
48888SOL    HW253523  12.380  12.422   0.722  0.0448  0.6060  0.8394
48889SOL     OW53524   8.964   6.915   0.978 -0.4289  0.3569 -0.6308
48889SOL    HW153525   8.985   6.827   0.949 -1.2042  0.1446 -0.5826
48889SOL    HW253526   8.908   6.950   0.908 -0.2916  0.7383 -0.5526
48890SOL     OW53527   4.278   4.848   2.725  0.4156  0.2846 -0.3284
48890SOL    HW153528   4.345   4.867   2.659  0.1026  1.4519 -0.3474
48890SOL    HW253529   4.307   4.767   2.767  0.7432 -0.3748 -1.7456
48891SOL     OW53530   4.314   5.575   4.540  0.3069 -0.0717  0.1249
48891SOL    HW153531   4.305   5.489   4.497  1.2742 -0.8804  1.4458
48891SOL    HW253532   4.237   5.582   4.596  0.8922 -0.7236  1.0408
48892SOL     OW53533  11.208   0.729   1.190 -0.0782 -0.1329 -0.0187
48892SOL    HW153534  11.184   0.818   1.217  2.0281  0.8131 -0.9658
48892SOL    HW253535  11.151   0.672   1.240 -1.4530  1.7588  0.6877
48893SOL     OW53536   6.727   3.950  10.383 -0.7892  0.3504  0.1913
48893SOL    HW153537   6.722   4.000  10.302 -0.3285 -0.3610 -0.2859
48893SOL    HW253538   6.649   3.977  10.432 -1.7428 -0.1061 -1.0149
48894SOL     OW53539   1.313   8.510   4.156 -0.0330  0.1804  0.2332
48894SOL    HW153540   1.353   8.591   4.122  1.3486 -0.5540  0.0414
48894SOL    HW253541   1.254   8.482   4.086 -0.0682  0.7044  0.0435
48895SOL     OW53542   9.984   4.258   7.461  0.5204 -0.2296 -0.1835
48895SOL    HW153543  10.076   4.254   7.486  0.2148 -0.8953  0.8727
48895SOL    HW253544   9.941   4.190   7.512 -0.6694  0.4368 -0.2361
48896SOL     OW53545   6.529   3.507   3.337  0.3817 -0.4001  0.7293
48896SOL    HW153546   6.501   3.590   3.298 -0.1830 -1.2782 -0.8113
48896SOL    HW253547   6.615   3.527   3.376 -1.0486  1.6603  3.1655
48897SOL     OW53548   9.488   7.404   1.820 -0.1142 -0.8640 -0.4712
48897SOL    HW153549   9.543   7.450   1.884 -0.9383 -0.5735  0.0471
48897SOL    HW253550   9.528   7.424   1.735 -0.0729  0.2826 -0.2004
48898SOL     OW53551  11.950   2.364   6.565 -0.1399 -0.1380  0.0352
48898SOL    HW153552  12.040   2.394   6.554  0.3890 -1.4413  0.5866
48898SOL    HW253553  11.942   2.289   6.505 -0.3018 -1.0759  1.1861
48899SOL     OW53554  10.328   3.751   4.369  0.1367 -0.1640 -0.2268
48899SOL    HW153555  10.285   3.824   4.412 -0.8567 -1.6586  1.4706
48899SOL    HW253556  10.296   3.753   4.279 -0.1263  1.2475 -0.1169
48900SOL     OW53557   9.510   0.746  12.286  0.3609  0.5745 -0.1294
48900SOL    HW153558   9.498   0.777  12.376  0.8130 -0.8902  0.4631
48900SOL    HW253559   9.556   0.662  12.295  1.2982  0.8558 -1.7790
48901SOL     OW53560  11.956   5.043   5.157 -0.3213  0.3924  0.1770
48901SOL    HW153561  12.014   5.054   5.232 -0.3289 -0.0452  0.2469
48901SOL    HW253562  11.900   5.120   5.159  0.8784  1.3245 -0.4408
48902SOL     OW53563   2.911   9.250   3.777 -0.6002  0.3138 -0.1050
48902SOL    HW153564   2.888   9.299   3.698 -0.4170 -0.1157 -0.4287
48902SOL    HW253565   2.934   9.163   3.745  1.0788  0.6094  0.2447
48903SOL     OW53566   3.881   2.462   0.882  0.0974  0.1095 -0.0408
48903SOL    HW153567   3.857   2.408   0.957 -0.4993 -1.2087 -1.1382
48903SOL    HW253568   3.926   2.402   0.823  3.0680  1.7142  0.3904
48904SOL     OW53569   7.844   4.191   9.590 -0.8491  0.5209  0.1081
48904SOL    HW153570   7.788   4.268   9.600 -2.2253 -0.5265  0.9424
48904SOL    HW253571   7.785   4.124   9.553 -0.1146 -0.5628  0.8335
48905SOL     OW53572   8.820   5.345  10.673  0.3859 -0.0887  0.6779
48905SOL    HW153573   8.879   5.290  10.621 -0.7916  0.1417 -0.9905
48905SOL    HW253574   8.878   5.407  10.717  1.5472 -1.1982  0.7809
48906SOL     OW53575  10.620   8.305   6.363 -0.0672 -0.0551  0.2796
48906SOL    HW153576  10.577   8.267   6.440 -0.5636  1.4562  0.7734
48906SOL    HW253577  10.574   8.387   6.348  1.7798  0.9745  0.0018
48907SOL     OW53578   6.577  12.291  11.914 -0.6492  0.1724 -0.2676
48907SOL    HW153579   6.556  12.263  11.825  0.6294  0.5198 -0.7040
48907SOL    HW253580   6.505  12.258  11.967 -1.1146 -0.5964 -1.3337
48908SOL     OW53581   5.743   9.671   9.814 -0.0796  0.2276  0.0868
48908SOL    HW153582   5.667   9.722   9.785 -1.0178 -0.1078  1.8434
48908SOL    HW253583   5.741   9.592   9.759 -1.3209 -0.0187  0.4541
48909SOL     OW53584   2.436   9.760   6.756  0.1588  0.0529  0.3554
48909SOL    HW153585   2.459   9.832   6.814  1.7707  0.6290 -0.9206
48909SOL    HW253586   2.362   9.716   6.799  1.4178  0.3000  2.9194
48910SOL     OW53587   8.007   7.451  10.356 -0.3932  0.2700 -0.4304
48910SOL    HW153588   7.994   7.473  10.448 -2.0175 -0.1549 -0.5327
48910SOL    HW253589   8.035   7.533  10.315  1.3725  0.2332  0.5880
48911SOL     OW53590   2.080   7.991  10.103  0.3694 -0.3628  0.0422
48911SOL    HW153591   2.100   8.062  10.042  2.0071 -1.7291 -1.0770
48911SOL    HW253592   2.149   7.996  10.169 -1.6316  1.3920  2.1897
48912SOL     OW53593   9.551  12.536   1.970 -0.1069 -0.0174 -0.4066
48912SOL    HW153594   9.626  12.577   1.927  0.0154  0.3038  0.1102
48912SOL    HW253595   9.498  12.503   1.897  0.6359 -0.4439 -0.7733
48913SOL     OW53596   2.203   9.436   3.957 -0.0920  0.5341  0.1263
48913SOL    HW153597   2.123   9.478   3.988 -1.3373 -1.8297  0.3969
48913SOL    HW253598   2.225   9.372   4.025  1.4912  0.4661 -0.3942
48914SOL     OW53599   3.415  12.374  11.559  0.6741 -0.0076 -0.1748
48914SOL    HW153600   3.384  12.289  11.527  0.5883 -0.3063  0.6546
48914SOL    HW253601   3.429  12.360  11.653  0.7870  0.8607 -0.0533
48915SOL     OW53602   8.727   1.743   0.618  0.0396 -0.0678 -0.1816
48915SOL    HW153603   8.757   1.821   0.665  1.5736 -0.7675  0.0400
48915SOL    HW253604   8.703   1.681   0.687  0.4734 -0.4053 -0.3289
48916SOL     OW53605   5.137   4.449   4.621  0.1017 -0.1607 -0.1562
48916SOL    HW153606   5.052   4.419   4.652 -0.0377  0.4537  0.0670
48916SOL    HW253607   5.135   4.433   4.526  0.3622 -1.6263  0.0659
48917SOL     OW53608  10.878   1.163  10.645 -0.5242 -0.2864 -0.2617
48917SOL    HW153609  10.845   1.097  10.705 -0.5334 -0.0123  0.0374
48917SOL    HW253610  10.865   1.125  10.558 -1.1773 -0.3828 -0.1273
48918SOL     OW53611   4.325   3.727  10.884  0.2872 -0.3626  0.2527
48918SOL    HW153612   4.236   3.758  10.900  0.2291 -0.2008 -0.3539
48918SOL    HW253613   4.331   3.720  10.789  1.1741  0.3969  0.2379
48919SOL     OW53614   9.497   7.825   7.723  0.0348 -0.3510 -0.4922
48919SOL    HW153615   9.468   7.791   7.808  0.9381  0.2399  0.0677
48919SOL    HW253616   9.540   7.750   7.682  1.6919 -0.0531  0.5862
48920SOL     OW53617   5.007   4.506   9.979 -0.2548 -0.5110  0.4105
48920SOL    HW153618   5.099   4.500  10.003 -0.5813 -1.5029  1.5248
48920SOL    HW253619   5.001   4.584   9.923  1.7953 -2.1579 -2.3329
48921SOL     OW53620   7.217   9.828   0.953 -0.5224  0.5920 -0.0300
48921SOL    HW153621   7.180   9.831   0.865  0.4324  0.7454 -0.4437
48921SOL    HW253622   7.158   9.770   1.002  0.2891 -1.5567 -1.4553
48922SOL     OW53623   2.079   8.045   3.702  0.1072 -0.3176 -0.3856
48922SOL    HW153624   2.062   7.955   3.675 -0.5843  0.1669 -1.5947
48922SOL    HW253625   2.051   8.099   3.628 -1.2858  1.0227  1.0509
48923SOL     OW53626   9.782   9.213   7.243  0.1254  0.2688 -0.7837
48923SOL    HW153627   9.696   9.243   7.274 -0.2105 -1.4479  0.0238
48923SOL    HW253628   9.769   9.121   7.220  1.7177  0.0162 -0.7829
48924SOL     OW53629   7.489   1.225   1.331 -0.5570  0.5113  0.2954
48924SOL    HW153630   7.457   1.280   1.402  0.7484  1.2396  0.3524
48924SOL    HW253631   7.576   1.260   1.311 -0.2060 -0.7550 -0.5108
48925SOL     OW53632   1.203   0.049   1.479 -0.2010  0.0948 -0.3487
48925SOL    HW153633   1.266   0.098   1.426  1.5749 -1.2156  0.4466
48925SOL    HW253634   1.119   0.093   1.464  1.0150  2.3841 -0.8665
48926SOL     OW53635  11.036   6.175   0.817  0.1020 -0.0826 -0.5373
48926SOL    HW153636  10.969   6.184   0.885  1.0588 -0.1065  0.4337
48926SOL    HW253637  11.019   6.247   0.757  0.2762  0.9749  0.6498
48927SOL     OW53638   8.147   0.639  10.302 -0.3596 -0.3789  0.1047
48927SOL    HW153639   8.060   0.605  10.281 -0.9334 -0.0457  1.7946
48927SOL    HW253640   8.167   0.604  10.389  0.0307  1.6737  0.8979
48928SOL     OW53641   4.575   6.891   6.811 -0.2025  0.4275 -0.1324
48928SOL    HW153642   4.532   6.811   6.843  1.2037  0.1404  1.1507
48928SOL    HW253643   4.588   6.875   6.718  2.1019 -1.9430  0.4424
48929SOL     OW53644   3.181   2.872   1.310 -0.1543 -0.1077  0.3336
48929SOL    HW153645   3.103   2.905   1.266  1.5596  1.0460 -1.9943
48929SOL    HW253646   3.207   2.796   1.259  0.3717 -0.3893  0.9969
48930SOL     OW53647   3.993   3.224   1.371 -0.3231  0.0084 -0.1518
48930SOL    HW153648   4.062   3.288   1.390 -0.4850  0.5809 -1.3727
48930SOL    HW253649   3.975   3.236   1.278 -0.6745 -1.5250 -0.3002
48931SOL     OW53650  10.945   3.541   8.969 -0.5104  0.0526 -0.4243
48931SOL    HW153651  10.898   3.458   8.956  1.2663 -1.0912  0.0495
48931SOL    HW253652  10.978   3.536   9.059 -0.3620  1.2792 -0.3997
48932SOL     OW53653   6.499   7.940   3.709  0.0716 -0.4187 -0.0763
48932SOL    HW153654   6.443   7.896   3.645  0.5920 -1.1145 -0.0666
48932SOL    HW253655   6.588   7.918   3.682  0.3049 -0.4054  0.6618
48933SOL     OW53656  11.629   4.563   0.283 -0.7100  0.1181 -0.2000
48933SOL    HW153657  11.663   4.475   0.272 -0.9648 -0.0526  0.3499
48933SOL    HW253658  11.653   4.588   0.372 -1.6856  0.1349  0.0700
48934SOL     OW53659   7.165  11.342   7.235  0.1433  0.0653 -0.7397
48934SOL    HW153660   7.189  11.411   7.172  0.4991  0.7149  0.0938
48934SOL    HW253661   7.148  11.389   7.316 -2.8399 -0.4643 -0.9472
48935SOL     OW53662   4.085  11.141   2.114  0.5606 -0.1647  0.0380
48935SOL    HW153663   4.072  11.146   2.020  2.2041 -0.6036 -0.2461
48935SOL    HW253664   4.039  11.062   2.141  0.5285 -0.3211 -0.4770
48936SOL     OW53665   9.079   6.316   1.366  0.4627 -1.0864  0.1262
48936SOL    HW153666   9.170   6.342   1.377  0.6824 -0.4289 -2.5542
48936SOL    HW253667   9.028   6.393   1.389  0.7685 -0.4621 -1.2182
48937SOL     OW53668   2.614   1.104   5.389  0.1677  0.3305 -0.2655
48937SOL    HW153669   2.537   1.148   5.427  0.8785  1.8904 -0.5706
48937SOL    HW253670   2.577   1.030   5.340 -0.9816 -0.0668  1.1118
48938SOL     OW53671   8.397   8.650   8.959  0.1137  0.1015 -0.2156
48938SOL    HW153672   8.469   8.689   8.909 -0.8210  1.4138 -0.6127
48938SOL    HW253673   8.319   8.697   8.928 -0.8164 -0.7889  0.7052
48939SOL     OW53674   8.170   3.390  11.186 -0.2193 -0.1716 -0.1626
48939SOL    HW153675   8.107   3.380  11.257  1.2783  0.5076  1.3362
48939SOL    HW253676   8.123   3.361  11.108 -2.0316 -0.6448  1.0363
48940SOL     OW53677  10.191  10.159   8.120  0.0800  0.4091  0.0472
48940SOL    HW153678  10.258  10.090   8.119 -1.9808 -1.6925 -0.3150
48940SOL    HW253679  10.206  10.205   8.203  2.6725  0.8220 -0.5572
48941SOL     OW53680  11.913   9.458   9.993  0.0739  0.2904 -0.7407
48941SOL    HW153681  12.000   9.435  10.027  0.6836  1.0642 -1.7291
48941SOL    HW253682  11.852   9.427  10.060  1.1511  0.3594  0.3003
48942SOL     OW53683  10.553   8.249   6.637 -0.0367 -0.9853 -0.4517
48942SOL    HW153684  10.532   8.260   6.730  0.2528 -0.0912 -0.4809
48942SOL    HW253685  10.547   8.154   6.622 -2.4093 -0.9441 -0.0972
48943SOL     OW53686   3.037   7.928   3.925 -0.5791 -0.3394  0.1134
48943SOL    HW153687   2.972   7.996   3.940  0.1750  0.2459  0.8501
48943SOL    HW253688   3.001   7.850   3.966 -1.3739 -0.3590 -0.5880
48944SOL     OW53689   3.702   7.817  11.885 -0.6487 -0.2862 -0.3091
48944SOL    HW153690   3.767   7.838  11.952 -0.7769 -0.2243 -0.2051
48944SOL    HW253691   3.754   7.785  11.811 -0.4491  0.4751 -0.4998
48945SOL     OW53692  11.950   7.384   9.725 -0.4894 -0.1464 -0.5869
48945SOL    HW153693  12.023   7.445   9.714  1.0296 -1.5487  1.1781
48945SOL    HW253694  11.900   7.419   9.798  0.6535 -1.1906  0.7425
48946SOL     OW53695   0.822   4.425   0.816  0.1154  0.0881  0.6432
48946SOL    HW153696   0.872   4.346   0.838  0.1113  0.1644  0.9310
48946SOL    HW253697   0.778   4.448   0.898  0.3792  0.5783  0.6493
48947SOL     OW53698   9.269   5.137   0.754 -0.1659  0.2111  0.2324
48947SOL    HW153699   9.228   5.157   0.670 -0.7506  1.9843  0.8922
48947SOL    HW253700   9.353   5.096   0.731 -0.7834 -0.2965 -1.1819
48948SOL     OW53701   6.655   9.352   9.918 -0.3821 -0.1725  0.1755
48948SOL    HW153702   6.657   9.429   9.975 -0.3973  0.7345 -1.0097
48948SOL    HW253703   6.730   9.364   9.859 -0.5114 -0.9564 -0.1591
48949SOL     OW53704   4.081   9.181   3.724  0.0125 -0.8376  0.1610
48949SOL    HW153705   4.062   9.270   3.754  0.7330 -0.7869  0.5037
48949SOL    HW253706   4.026   9.169   3.647 -1.2776 -0.6701  1.0142
48950SOL     OW53707   4.594   7.901   4.977 -0.5364  0.1213  0.2853
48950SOL    HW153708   4.570   7.808   4.978  1.5117 -0.4613  1.4507
48950SOL    HW253709   4.633   7.915   4.891 -0.7705 -0.1085  0.1400
48951SOL     OW53710   6.070  12.289   7.787 -0.0624 -0.3452 -0.4869
48951SOL    HW153711   6.093  12.220   7.724 -1.6072 -0.6463 -0.7735
48951SOL    HW253712   6.060  12.244   7.870 -1.9963 -0.6870 -0.8546
48952SOL     OW53713   2.657  10.413  11.703 -0.3214 -0.2843  0.2120
48952SOL    HW153714   2.649  10.498  11.661 -0.4866 -1.2975 -1.9486
48952SOL    HW253715   2.752  10.400  11.713 -0.3034  0.2353  0.7825
48953SOL     OW53716   0.531   4.904   1.852 -0.0689 -0.4233 -0.4391
48953SOL    HW153717   0.559   4.995   1.867  0.2978 -0.4352 -1.0150
48953SOL    HW253718   0.485   4.880   1.932  1.2257 -0.2601  0.3799
48954SOL     OW53719   4.517   6.851   8.655  0.2054  0.3922  0.1402
48954SOL    HW153720   4.512   6.801   8.737 -0.7547 -2.7388 -1.6674
48954SOL    HW253721   4.431   6.894   8.649  0.4010  0.9197  0.8811
48955SOL     OW53722  12.545   8.299   7.574  0.5999  0.1996 -0.0900
48955SOL    HW153723  12.610   8.231   7.554 -1.2593 -1.1179 -2.0685
48955SOL    HW253724  12.523   8.285   7.666  1.7595 -0.4895  0.1087
48956SOL     OW53725   2.133  12.238  11.047  0.8478 -0.5393 -0.8034
48956SOL    HW153726   2.226  12.246  11.026  0.6372 -0.2294 -1.6297
48956SOL    HW253727   2.107  12.155  11.009  0.9532 -0.9904  0.0828
48957SOL     OW53728   5.636   8.918   6.157 -0.3455 -0.4411 -0.5895
48957SOL    HW153729   5.649   8.913   6.062 -0.5358  1.4869 -0.7742
48957SOL    HW253730   5.713   8.966   6.189 -0.9099  0.0700  0.0342
48958SOL     OW53731   3.104   9.282  10.281  0.3569 -0.1597 -0.0468
48958SOL    HW153732   3.186   9.284  10.331  1.4885 -0.4082 -1.8085
48958SOL    HW253733   3.052   9.214  10.323  1.1097 -0.1210  0.9993
48959SOL     OW53734   4.881   2.784  10.917 -0.1252 -0.1047 -0.6008
48959SOL    HW153735   4.865   2.768  10.824  0.6979 -0.1915 -0.7335
48959SOL    HW253736   4.829   2.717  10.963 -0.5274 -0.0629 -0.9889
48960SOL     OW53737  10.314   5.979   9.416  0.2344 -0.5245  0.0407
48960SOL    HW153738  10.221   5.956   9.416  0.2430 -0.6477 -1.2374
48960SOL    HW253739  10.316   6.069   9.449 -0.6315  0.3672 -2.1409
48961SOL     OW53740   1.502   8.567   2.388  0.0736  0.1718 -0.1383
48961SOL    HW153741   1.543   8.531   2.467  0.1613  2.5815  0.9963
48961SOL    HW253742   1.544   8.652   2.377 -1.5679  0.8404 -1.4901
48962SOL     OW53743   7.914   4.912   9.523  0.5405 -0.4092 -0.5495
48962SOL    HW153744   7.933   4.874   9.608 -1.1316  0.3099  0.1890
48962SOL    HW253745   7.922   5.007   9.536  1.7558 -0.3342 -1.6052
48963SOL     OW53746   7.604   3.753   5.778 -0.4103 -0.2101  0.5329
48963SOL    HW153747   7.583   3.843   5.802 -0.5352  0.1068 -0.7207
48963SOL    HW253748   7.686   3.759   5.728 -0.6528 -0.7376  0.0529
48964SOL     OW53749   4.443  11.430   8.497 -0.3487 -0.2259 -0.0681
48964SOL    HW153750   4.482  11.343   8.495 -1.5472 -0.7748 -1.2817
48964SOL    HW253751   4.442  11.458   8.405  1.5639  1.8310  0.4356
48965SOL     OW53752   0.300   1.560   1.452  0.8846 -0.1702 -0.0020
48965SOL    HW153753   0.356   1.497   1.406  0.3367 -1.0330  0.4701
48965SOL    HW253754   0.278   1.516   1.534 -0.4819  0.1458 -0.1820
48966SOL     OW53755  11.893   8.708   8.763  0.1603 -0.5078 -0.0324
48966SOL    HW153756  11.958   8.654   8.717  1.1859  0.1883  0.5627
48966SOL    HW253757  11.908   8.689   8.856 -1.0346 -0.9293  0.0989
48967SOL     OW53758   3.479   9.636   7.595  0.3354 -0.2235  0.2956
48967SOL    HW153759   3.392   9.605   7.572  0.3153  0.2013 -0.2323
48967SOL    HW253760   3.490   9.716   7.544  0.5445  0.4130  1.3309
48968SOL     OW53761   2.148   1.257   9.542 -0.4233 -0.0110  0.1439
48968SOL    HW153762   2.231   1.287   9.578 -0.0785 -0.3507 -0.3590
48968SOL    HW253763   2.116   1.193   9.606 -0.4178  0.2999  0.4576
48969SOL     OW53764   4.726   6.559   2.098 -0.4904 -0.4098  0.7233
48969SOL    HW153765   4.679   6.493   2.148 -0.2807 -0.0666  1.3855
48969SOL    HW253766   4.705   6.642   2.141 -1.8071  0.1470 -0.8748
48970SOL     OW53767  12.082   0.423   0.213  0.3160 -0.4038 -0.1882
48970SOL    HW153768  12.058   0.514   0.196  1.3641  0.0036  0.3868
48970SOL    HW253769  12.167   0.412   0.172  0.4735 -0.9423  0.2637
48971SOL     OW53770   7.460   1.811   4.850  0.2722  0.2978  0.2453
48971SOL    HW153771   7.547   1.843   4.873  1.5504 -1.2996 -1.9829
48971SOL    HW253772   7.456   1.820   4.755 -0.8748 -2.2001 -0.0162
48972SOL     OW53773   5.044   7.325  11.217  0.0669 -0.1359  0.5207
48972SOL    HW153774   4.982   7.253  11.207 -0.2941  0.3178 -0.5936
48972SOL    HW253775   5.030   7.380  11.141  1.0100  0.6162  0.8694
48973SOL     OW53776  11.663   4.363  11.356 -0.5531 -0.1132  0.3100
48973SOL    HW153777  11.754   4.347  11.383 -0.4265  0.9903  0.5816
48973SOL    HW253778  11.641   4.447  11.396 -2.3725 -1.2908  1.9393
48974SOL     OW53779   8.770   3.375   8.006  0.0168 -0.0946  0.0601
48974SOL    HW153780   8.722   3.411   7.932  1.7532  1.7301 -0.2754
48974SOL    HW253781   8.771   3.446   8.071 -0.2554 -1.1455  1.2638
48975SOL     OW53782   5.779   9.433   8.323  0.1648 -0.3146  0.3157
48975SOL    HW153783   5.832   9.360   8.356  0.4570  0.7349  2.3339
48975SOL    HW253784   5.844   9.498   8.296 -0.1013 -0.2687 -0.2196
48976SOL     OW53785   1.824   5.553   9.661 -0.0468  0.4190 -0.0253
48976SOL    HW153786   1.807   5.461   9.683 -0.7486  0.6602  0.4770
48976SOL    HW253787   1.919   5.561   9.664  0.0123 -0.2596  0.0868
48977SOL     OW53788   8.564  11.944  12.294  0.3572 -0.3804  0.4018
48977SOL    HW153789   8.536  11.942  12.202 -0.6974  1.2893  0.6406
48977SOL    HW253790   8.482  11.943  12.344  0.8165  1.1565  1.2364
48978SOL     OW53791  10.906   5.737   8.477 -0.3228 -0.4195 -0.3289
48978SOL    HW153792  10.834   5.764   8.534 -1.7778 -0.7363 -1.9005
48978SOL    HW253793  10.918   5.644   8.495  0.2451 -0.1966  0.4855
48979SOL     OW53794  11.622   2.723   5.642  0.0611  0.5610 -0.0634
48979SOL    HW153795  11.708   2.740   5.679  0.2481 -0.1018 -0.1870
48979SOL    HW253796  11.577   2.671   5.708  0.0919  0.1091 -0.3933
48980SOL     OW53797   2.550  12.505   8.520  0.3715  0.3231 -0.1285
48980SOL    HW153798   2.545  12.539   8.431 -2.5487 -0.1195 -0.2237
48980SOL    HW253799   2.599  12.423   8.512 -0.2195  0.0826 -1.4083
48981SOL     OW53800   3.704   6.048   1.892 -0.0405  0.1004 -0.0670
48981SOL    HW153801   3.641   6.083   1.954  0.6080  0.2776  0.5082
48981SOL    HW253802   3.766   6.120   1.877  0.1215 -0.1201 -0.4962
48982SOL     OW53803  11.839   4.119   0.282  0.3581  0.1561 -0.2791
48982SOL    HW153804  11.915   4.070   0.249  1.4315  1.8152 -0.4386
48982SOL    HW253805  11.834   4.097   0.375  0.8308 -0.2299 -0.3404
48983SOL     OW53806  10.453   2.693   5.983  0.2248 -0.3854  0.7121
48983SOL    HW153807  10.541   2.698   6.021 -0.1851 -0.9213  1.7575
48983SOL    HW253808  10.466   2.717   5.891  0.9450  3.0056  1.5611
48984SOL     OW53809   2.810   3.642  10.878 -0.6654  0.4456  0.0908
48984SOL    HW153810   2.791   3.731  10.849 -0.8295  0.1985 -0.5586
48984SOL    HW253811   2.738   3.620  10.937  0.4820  1.5354  2.0250
48985SOL     OW53812   0.243  11.629  10.839  0.1860 -0.1846 -0.3917
48985SOL    HW153813   0.208  11.709  10.879  2.2529  0.8723 -0.6224
48985SOL    HW253814   0.318  11.606  10.893  0.0970 -1.5524 -0.8083
48986SOL     OW53815   8.593  10.201   2.141  0.7655 -0.3422 -0.2445
48986SOL    HW153816   8.540  10.254   2.082  1.3799  0.3610 -0.1807
48986SOL    HW253817   8.658  10.159   2.083  1.8093  0.8910 -0.0133
48987SOL     OW53818   1.213   5.891  12.189 -0.4028  0.0846  0.3894
48987SOL    HW153819   1.174   5.968  12.230 -0.1880 -0.3574  1.4487
48987SOL    HW253820   1.138   5.835  12.166 -0.5021  0.1492  0.5545
48988SOL     OW53821   4.640   9.258   0.835  0.2889  0.2209 -0.0909
48988SOL    HW153822   4.708   9.278   0.770  1.3503 -1.6565  0.3945
48988SOL    HW253823   4.575   9.207   0.786  0.3717  0.0382 -0.0091
48989SOL     OW53824   7.752   2.904   4.197  0.4400 -0.1032 -0.1026
48989SOL    HW153825   7.736   2.810   4.186  0.3234 -0.2585  1.2577
48989SOL    HW253826   7.725   2.923   4.287  1.7259  0.9704  0.0854
48990SOL     OW53827  12.499   5.571   2.370 -0.7669 -0.7712 -0.0834
48990SOL    HW153828  12.561   5.640   2.393  1.2657 -2.1312 -1.1954
48990SOL    HW253829  12.419   5.595   2.416  0.9196  0.4039  2.4438
48991SOL     OW53830   3.389  11.837   9.618  0.0028 -0.8616 -0.6025
48991SOL    HW153831   3.349  11.752   9.637  0.1921 -1.1673 -1.5100
48991SOL    HW253832   3.381  11.846   9.523  1.6621 -0.7152 -0.7495
48992SOL     OW53833  11.684   0.872   3.370  0.0241  0.5746  0.6842
48992SOL    HW153834  11.592   0.884   3.391 -0.2938  0.9571 -0.8053
48992SOL    HW253835  11.725   0.956   3.390 -0.1590  0.7484  0.3349
48993SOL     OW53836   6.136  12.101   5.054 -0.1701 -0.2133  0.0054
48993SOL    HW153837   6.185  12.124   5.134  1.5415  0.8025 -1.2748
48993SOL    HW253838   6.125  12.006   5.060 -0.8212 -0.0703  1.8326
48994SOL     OW53839   6.685   2.211   8.169  0.5020  0.0287  0.5060
48994SOL    HW153840   6.619   2.278   8.184  0.3122  0.1764 -0.8593
48994SOL    HW253841   6.768   2.255   8.186  0.5416  1.3582 -2.5009
48995SOL     OW53842  10.277   3.077   0.466  0.1339 -0.3590 -0.2334
48995SOL    HW153843  10.258   2.986   0.487 -0.3897 -0.2530 -0.2349
48995SOL    HW253844  10.253   3.087   0.374  1.2900 -0.5124 -0.5675
48996SOL     OW53845   0.986   0.472   9.837  0.1637  0.0510 -0.3784
48996SOL    HW153846   0.992   0.380   9.813 -1.7741 -0.1752 -0.1232
48996SOL    HW253847   0.969   0.517   9.754  1.4770  0.2439 -0.5588
48997SOL     OW53848   3.990   4.736   0.399  0.0919  1.1415 -0.0274
48997SOL    HW153849   3.943   4.725   0.481 -0.8828 -0.0636 -0.7106
48997SOL    HW253850   3.995   4.647   0.363  0.7332  1.6140 -1.1449
48998SOL     OW53851   4.047  12.125   4.185 -0.6476  0.5523  0.1622
48998SOL    HW153852   4.118  12.128   4.248 -0.1832 -2.3905 -0.1048
48998SOL    HW253853   3.968  12.138   4.237 -0.1837 -0.5979  1.1961
48999SOL     OW53854   2.787   7.954  10.442 -0.1794  0.0164 -0.2844
48999SOL    HW153855   2.810   8.047  10.445  0.8204 -0.1770  3.9104
48999SOL    HW253856   2.865   7.909  10.474 -0.7431 -2.3536 -1.9387
49000SOL     OW53857   9.492   4.302   3.203  0.0948  0.1217  0.5406
49000SOL    HW153858   9.584   4.320   3.225  0.3779 -1.6571  0.9411
49000SOL    HW253859   9.489   4.314   3.108  0.5440  0.9579  0.6173
49001SOL     OW53860  10.829   6.035   3.926  0.0131 -0.2769  0.1957
49001SOL    HW153861  10.739   6.067   3.925  0.3182  0.5906  0.0956
49001SOL    HW253862  10.825   5.953   3.877 -0.7122 -0.2296  0.1607
49002SOL     OW53863   7.551   9.227   1.390  0.2172 -0.0741  0.2026
49002SOL    HW153864   7.624   9.194   1.336  0.3877 -0.6437  0.7673
49002SOL    HW253865   7.474   9.182   1.356 -0.1117  1.5313 -1.2860
49003SOL     OW53866   6.555  12.272   3.693  0.2421 -0.3835 -0.5446
49003SOL    HW153867   6.649  12.263   3.678  0.1036 -2.9262 -0.2960
49003SOL    HW253868   6.514  12.216   3.627 -1.2170  1.6227 -1.4462
49004SOL     OW53869   9.997   4.721   6.099 -0.3918 -0.0844 -0.2163
49004SOL    HW153870  10.035   4.691   6.016  0.4251  2.9616 -1.0684
49004SOL    HW253871  10.038   4.667   6.166 -0.1166 -1.7640 -1.6740
49005SOL     OW53872   6.366   4.086   1.391  0.1346  0.3210 -0.1080
49005SOL    HW153873   6.291   4.088   1.450 -0.1086  2.6599 -0.3964
49005SOL    HW253874   6.429   4.028   1.434 -1.7012 -1.4874  0.2521
49006SOL     OW53875  11.489  12.176  12.453 -0.0465 -0.3261  0.5281
49006SOL    HW153876  11.541  12.185  12.533  1.9919  1.7550 -0.8866
49006SOL    HW253877  11.464  12.266  12.430 -4.7567 -1.2038  1.2807
49007SOL     OW53878   7.478   9.663   9.814  0.0490 -0.4825 -0.4715
49007SOL    HW153879   7.504   9.592   9.873  0.0465 -1.8766 -2.0705
49007SOL    HW253880   7.414   9.713   9.863  2.5621  0.5637  2.0245
49008SOL     OW53881   2.803  12.184   1.299  0.1236 -0.4187  0.3466
49008SOL    HW153882   2.888  12.195   1.343  0.5414 -2.4053  0.1345
49008SOL    HW253883   2.776  12.096   1.323 -1.5402 -0.0818 -0.2204
49009SOL     OW53884   5.188  12.400   1.702  0.4500  0.4831 -0.0480
49009SOL    HW153885   5.193  12.443   1.788  1.1637 -0.0153  0.1706
49009SOL    HW253886   5.099  12.418   1.671  1.1685  3.4812 -0.6927
49010SOL     OW53887   2.605   3.260   8.966  0.4116 -0.1974  0.2508
49010SOL    HW153888   2.510   3.264   8.977  0.1572 -1.3696 -1.1730
49010SOL    HW253889   2.640   3.306   9.042 -1.2858  0.0124  0.9519
49011SOL     OW53890  12.250   5.281   8.141 -0.1244  0.7516 -0.1981
49011SOL    HW153891  12.170   5.232   8.122  0.9982 -0.4502 -2.2877
49011SOL    HW253892  12.246   5.356   8.082  1.1035 -0.3357 -1.7447
49012SOL     OW53893  10.654   6.813   9.516 -0.1643  0.4950 -0.6285
49012SOL    HW153894  10.648   6.740   9.454  1.2556  0.0083 -0.2252
49012SOL    HW253895  10.710   6.780   9.587 -2.0818  0.8786  1.1781
49013SOL     OW53896   8.807   1.588   2.046 -0.2663  0.3963  0.6528
49013SOL    HW153897   8.888   1.540   2.029  0.1528  0.6241  1.9123
49013SOL    HW253898   8.737   1.526   2.024  0.2435 -0.0711  0.3109
49014SOL     OW53899   6.157   0.185   8.983  0.0139 -0.2413 -0.2095
49014SOL    HW153900   6.177   0.135   8.904 -0.7587  0.4546 -0.8499
49014SOL    HW253901   6.241   0.224   9.008  0.0130  0.5870 -1.4332
49015SOL     OW53902   4.772   8.777   6.482  0.1612  0.2289 -0.3273
49015SOL    HW153903   4.716   8.778   6.404  1.5355  0.2065 -1.3571
49015SOL    HW253904   4.734   8.842   6.540 -0.3796  0.8881 -1.3886
49016SOL     OW53905  10.842   8.125   9.760 -0.2005 -0.3249 -0.0839
49016SOL    HW153906  10.772   8.060   9.764  0.7562 -1.3227  1.8045
49016SOL    HW253907  10.910   8.085   9.708  0.0158 -0.4556  0.2965
49017SOL     OW53908   5.656  10.404   8.349 -0.3007  0.2178  0.7383
49017SOL    HW153909   5.661  10.315   8.316  0.0295  0.7487 -0.7290
49017SOL    HW253910   5.737  10.417   8.398 -0.5785 -0.4315  1.3916
49018SOL     OW53911   0.173   2.609   5.727 -0.5532 -0.0083 -0.2687
49018SOL    HW153912   0.216   2.629   5.644 -0.4382 -0.9672 -0.4481
49018SOL    HW253913   0.231   2.647   5.794  2.2226 -3.6729 -0.2873
49019SOL     OW53914  10.803   9.764  11.369 -0.2633 -0.5708 -0.0744
49019SOL    HW153915  10.850   9.848  11.367  0.9502 -1.2223  0.0040
49019SOL    HW253916  10.810   9.734  11.459  0.6258 -1.4459 -0.4068
49020SOL     OW53917   5.028   0.726   7.457 -0.2176  0.3251 -0.2289
49020SOL    HW153918   5.030   0.666   7.383  0.0972  0.1216 -0.0566
49020SOL    HW253919   5.064   0.808   7.423 -1.1296  0.5789 -0.6029
49021SOL     OW53920   8.084   2.005   9.154 -0.0919  0.8778  0.6058
49021SOL    HW153921   8.054   1.971   9.238  1.7814 -1.0541  0.5754
49021SOL    HW253922   8.054   1.941   9.090  0.8901  0.8501  0.1578
49022SOL     OW53923   6.830   8.226   3.305  0.5846 -0.1220  0.1363
49022SOL    HW153924   6.870   8.243   3.391 -1.2476 -1.6375  1.3706
49022SOL    HW253925   6.753   8.283   3.303  1.1257  0.6063 -0.9509
49023SOL     OW53926   9.591   6.075   8.975  0.0386  0.2421  0.5882
49023SOL    HW153927   9.607   5.981   8.988 -2.1355 -0.3308 -0.4687
49023SOL    HW253928   9.615   6.115   9.059 -2.0319 -1.6968  2.2405
49024SOL     OW53929  10.087   0.739  10.499  0.1174  0.2421  0.0049
49024SOL    HW153930  10.111   0.670  10.561  1.8640  1.1335  0.3783
49024SOL    HW253931  10.170   0.782  10.477 -0.7352  1.2754 -1.3678
49025SOL     OW53932   1.314   1.262  11.261 -0.1549  0.3265  0.1514
49025SOL    HW153933   1.405   1.292  11.265  0.1461 -0.6478  1.3617
49025SOL    HW253934   1.291   1.265  11.168  1.3078  0.0361 -0.2407
49026SOL     OW53935  11.615   7.982   2.579 -0.1402 -0.3676 -0.1641
49026SOL    HW153936  11.660   7.973   2.662  0.3062 -1.4890 -0.5002
49026SOL    HW253937  11.525   8.007   2.602  0.5880  1.8447  0.5081
49027SOL     OW53938   1.656   5.339   3.107  0.0379  0.0261 -0.8823
49027SOL    HW153939   1.660   5.255   3.153  1.2004 -0.9537 -2.6750
49027SOL    HW253940   1.729   5.390   3.144  1.3983 -1.0109 -2.0462
49028SOL     OW53941   6.627   1.446   4.847  0.4168  0.3911  0.7001
49028SOL    HW153942   6.697   1.465   4.784  1.3421 -1.0492  1.2382
49028SOL    HW253943   6.550   1.427   4.793  1.2494 -1.0292 -0.0470
49029SOL     OW53944   3.992  12.500   8.853 -0.0940  0.4466  0.1235
49029SOL    HW153945   3.932  12.539   8.790  0.2355 -0.3374 -0.7118
49029SOL    HW253946   4.079  12.523   8.821  0.1653 -1.8383 -1.0743
49030SOL     OW53947  10.829  11.412   9.033  0.0824  0.2991 -0.4293
49030SOL    HW153948  10.843  11.494   9.081  0.9737 -0.0886 -0.0052
49030SOL    HW253949  10.734  11.405   9.025 -0.0195  1.1430 -0.0652
49031SOL     OW53950   7.745   5.608   7.223 -0.4920 -0.3997 -0.0754
49031SOL    HW153951   7.801   5.617   7.146  0.7843 -2.7634  0.4806
49031SOL    HW253952   7.681   5.679   7.215  1.1099  0.9230 -1.9867
49032SOL     OW53953  10.258   3.512  10.228 -0.2367 -0.4238  0.1633
49032SOL    HW153954  10.200   3.496  10.302  0.1042 -0.5422  0.4063
49032SOL    HW253955  10.245   3.605  10.207 -0.9077 -0.5744 -0.1299
49033SOL     OW53956  12.333   3.529  11.748 -0.3160  0.0629  0.1720
49033SOL    HW153957  12.342   3.613  11.792 -0.7921  0.2891 -0.1554
49033SOL    HW253958  12.378   3.541  11.664  1.6737 -0.7457  1.0440
49034SOL     OW53959   2.494   3.713  10.082 -0.1242 -0.4705  0.3306
49034SOL    HW153960   2.561   3.725  10.150  0.2256 -0.4312 -0.0181
49034SOL    HW253961   2.516   3.629  10.042  1.1956  0.6279 -1.4111
49035SOL     OW53962   2.064   3.706   6.254 -0.0441  0.9697 -0.3749
49035SOL    HW153963   2.096   3.675   6.338  0.0878  3.6051  0.6598
49035SOL    HW253964   2.012   3.634   6.219 -0.0995 -0.2105  1.9594
49036SOL     OW53965   6.144   2.817   3.447 -0.1458 -0.0254  0.3012
49036SOL    HW153966   6.097   2.838   3.528 -0.5154 -0.5456  0.2248
49036SOL    HW253967   6.198   2.894   3.431  1.3990 -0.6676  2.0684
49037SOL     OW53968   6.035  11.007  10.572  0.1512  0.4162 -0.1348
49037SOL    HW153969   6.120  11.038  10.540  0.0491  1.0761  0.2274
49037SOL    HW253970   5.986  10.987  10.493  0.1955  1.2519 -0.3827
49038SOL     OW53971  11.522   3.836  12.172 -0.0236  0.2823  0.5917
49038SOL    HW153972  11.594   3.849  12.110 -0.0595  2.3905  0.9194
49038SOL    HW253973  11.524   3.742  12.191  0.5379 -0.2982 -1.8880
49039SOL     OW53974   6.191   4.551  10.158 -0.5769  0.2730  0.0503
49039SOL    HW153975   6.172   4.548  10.252 -1.4209 -0.6348 -0.1237
49039SOL    HW253976   6.170   4.463  10.127  1.4957 -0.0102 -0.6728
49040SOL     OW53977   3.275   8.006   9.146 -0.6692  0.2008  0.0410
49040SOL    HW153978   3.273   7.961   9.061 -0.5085  3.0433 -1.6231
49040SOL    HW253979   3.358   8.053   9.146 -0.9662  0.7664  1.4834
49041SOL     OW53980   9.732  11.581   3.974 -0.2840  0.5676  0.3240
49041SOL    HW153981   9.743  11.526   3.897  1.3288 -0.5729  1.3015
49041SOL    HW253982   9.640  11.609   3.971 -0.7788 -1.0435 -0.9602
49042SOL     OW53983   3.122   9.749   8.227 -0.4042 -0.4259 -0.0634
49042SOL    HW153984   3.198   9.807   8.241  0.1364 -0.9946 -0.5694
49042SOL    HW253985   3.073   9.755   8.308  1.3332 -1.7021  1.1676
49043SOL     OW53986   4.573   9.499   0.050 -0.3659 -0.2567  0.0395
49043SOL    HW153987   4.532   9.496  -0.037 -0.2959 -0.2047  0.0044
49043SOL    HW253988   4.500   9.498   0.111 -0.4052 -0.8766 -0.0082
49044SOL     OW53989   6.671   9.892   3.731 -0.1910  0.1139 -0.1562
49044SOL    HW153990   6.696   9.886   3.639  1.8221  0.4862  0.3389
49044SOL    HW253991   6.673   9.986   3.751 -2.7935  0.2668 -0.2547
49045SOL     OW53992   2.854   9.383   9.460  0.3282  0.1613  0.0422
49045SOL    HW153993   2.946   9.410   9.468  0.4730 -0.3418  0.1102
49045SOL    HW253994   2.852   9.329   9.381  0.4241 -1.1445  0.8867
49046SOL     OW53995   5.067  10.596   9.825  0.5127 -0.4614 -0.6068
49046SOL    HW153996   4.983  10.555   9.847 -0.2014 -0.4996 -3.1205
49046SOL    HW253997   5.045  10.658   9.755  1.8465  3.0181  1.7924
49047SOL     OW53998   0.826   1.167  10.452 -0.2640  0.1121 -0.2171
49047SOL    HW153999   0.764   1.113  10.501  1.6022 -2.2447 -0.2215
49047SOL    HW254000   0.798   1.159  10.361 -0.6527  0.0650 -0.0967
49048SOL     OW54001   9.354   3.160   9.396 -0.2503 -0.0298 -0.0399
49048SOL    HW154002   9.269   3.115   9.399 -0.0839 -0.5259 -1.8464
49048SOL    HW254003   9.418   3.089   9.404  0.0158  0.2713  0.5962
49049SOL     OW54004   1.689  11.492   0.228  0.3008 -0.0291  0.0969
49049SOL    HW154005   1.711  11.585   0.228 -0.2730  0.1304 -1.5083
49049SOL    HW254006   1.617  11.485   0.292  0.2731  0.6474  0.1474
49050SOL     OW54007   0.101   9.469   9.397  0.1886  0.4637  0.2135
49050SOL    HW154008   0.066   9.382   9.380 -0.5414  0.1538  2.8753
49050SOL    HW254009   0.191   9.453   9.426  0.0759  0.5913  0.6379
49051SOL     OW54010   2.988   2.220   7.372  0.0883  0.1211 -0.4403
49051SOL    HW154011   2.902   2.234   7.411  1.1034 -0.9365  2.4659
49051SOL    HW254012   3.040   2.294   7.402  1.0053 -0.9178  0.6285
49052SOL     OW54013   6.417   0.280   6.768  0.2020  0.1410 -0.3584
49052SOL    HW154014   6.506   0.281   6.732  0.5664  0.9607  0.5233
49052SOL    HW254015   6.379   0.363   6.740  0.3325  0.5826  0.6926
49053SOL     OW54016  11.904   4.690   3.767 -0.2363  0.2940  0.1096
49053SOL    HW154017  11.891   4.642   3.686 -0.7791  0.4403  0.1104
49053SOL    HW254018  11.855   4.772   3.755  0.1693  0.5757  0.3501
49054SOL     OW54019   9.483   4.086   0.403 -0.6495 -0.1141 -0.7735
49054SOL    HW154020   9.489   4.180   0.419  1.3864 -0.0001 -1.8129
49054SOL    HW254021   9.504   4.046   0.488 -0.1834  0.3746 -0.6537
49055SOL     OW54022   2.711   7.794   2.766  0.0606  0.5753  0.2828
49055SOL    HW154023   2.786   7.829   2.717 -0.2257  1.9737  0.7982
49055SOL    HW254024   2.637   7.846   2.735 -0.3857  0.4383  1.1140
49056SOL     OW54025  10.338   4.986   0.853 -0.3189 -0.0747  0.4466
49056SOL    HW154026  10.405   4.925   0.884 -0.5792 -0.4595  0.2629
49056SOL    HW254027  10.256   4.953   0.890 -0.3660  0.5945  0.9559
49057SOL     OW54028   1.203  11.912   3.312 -0.2449 -0.1359  0.5340
49057SOL    HW154029   1.117  11.918   3.353  0.4049 -1.4417  2.1583
49057SOL    HW254030   1.228  12.003   3.296 -1.2038  0.3359  1.5982
49058SOL     OW54031   4.238   0.889   0.533  0.0349 -0.0556 -0.5805
49058SOL    HW154032   4.187   0.970   0.541 -0.1403 -0.2584  0.5688
49058SOL    HW254033   4.184   0.822   0.575  0.5820 -0.5769 -0.6996
49059SOL     OW54034   6.515  11.520   6.719  0.4209  0.1180 -1.3714
49059SOL    HW154035   6.580  11.463   6.761 -1.6568 -1.7914 -0.5486
49059SOL    HW254036   6.490  11.583   6.787 -0.9101 -1.2287 -0.5417
49060SOL     OW54037   2.659   1.732   2.874 -0.3008 -0.2398  0.1427
49060SOL    HW154038   2.563   1.732   2.874 -0.3308 -0.9636 -1.3347
49060SOL    HW254039   2.683   1.671   2.804  1.2384  0.0314  0.4015
49061SOL     OW54040   4.669  10.781   0.996 -0.4480 -0.0780  0.4284
49061SOL    HW154041   4.713  10.712   0.946  0.3515  1.0190 -0.4241
49061SOL    HW254042   4.696  10.765   1.087  0.2695 -0.4978  0.1525
49062SOL     OW54043   8.618   2.594   8.930 -0.0226  0.0777 -0.3192
49062SOL    HW154044   8.698   2.617   8.977  0.2705 -1.2787 -0.0970
49062SOL    HW254045   8.648   2.536   8.860 -0.9641 -1.9201  0.8460
49063SOL     OW54046   6.745   5.114   7.290 -0.3519 -0.1298 -0.0255
49063SOL    HW154047   6.653   5.099   7.307 -0.2525 -1.1737 -0.3805
49063SOL    HW254048   6.772   5.177   7.358 -0.9717 -0.9059  0.9607
49064SOL     OW54049   8.576   1.734   8.255 -0.2107  0.5950 -0.5484
49064SOL    HW154050   8.633   1.749   8.330 -2.9723 -0.2928  1.8719
49064SOL    HW254051   8.599   1.646   8.224  0.6425  0.7967 -0.5095
49065SOL     OW54052   7.921   4.031   4.554 -0.0807 -0.1846 -0.5605
49065SOL    HW154053   7.893   4.114   4.515 -1.3543 -0.0641  0.5207
49065SOL    HW254054   7.999   4.052   4.604 -0.8216  0.5587  0.3267
49066SOL     OW54055   2.429   7.842  10.649  0.4652  0.4500  0.2332
49066SOL    HW154056   2.368   7.893  10.701  0.6520  1.0635 -0.1464
49066SOL    HW254057   2.448   7.765  10.704 -0.6487  0.2356  0.3452
49067SOL     OW54058   4.673  10.507   4.863  0.9947 -0.0817 -0.2760
49067SOL    HW154059   4.701  10.528   4.953 -0.7893 -0.7410  0.4822
49067SOL    HW254060   4.742  10.450   4.830  0.6993 -1.5249  1.4448
49068SOL     OW54061  11.684   3.803   1.966 -0.3327  0.1011  0.2901
49068SOL    HW154062  11.624   3.803   2.041 -0.8931  1.8236 -0.1181
49068SOL    HW254063  11.728   3.888   1.969 -0.9671  0.5715 -1.7767
49069SOL     OW54064   5.737   3.682   4.844  0.9576 -0.2291  0.4632
49069SOL    HW154065   5.652   3.726   4.845 -0.0319 -1.8309 -2.5075
49069SOL    HW254066   5.746   3.646   4.933  0.5636  3.3953  2.1355
49070SOL     OW54067   6.294   6.736   4.967 -0.4299  0.3337  0.0950
49070SOL    HW154068   6.275   6.711   4.877  0.6083  0.7812 -0.2691
49070SOL    HW254069   6.209   6.762   5.004 -0.8402  0.2656 -0.7931
49071SOL     OW54070   9.329   9.627   9.799  0.3159  0.3259 -0.8442
49071SOL    HW154071   9.414   9.670   9.800  1.0477 -0.9983 -1.7548
49071SOL    HW254072   9.274   9.682   9.743  0.7290  0.9034 -0.6880
49072SOL     OW54073   2.230   3.840  11.807 -0.0707  0.1730 -0.0925
49072SOL    HW154074   2.206   3.932  11.814  1.3880  0.5904 -0.2471
49072SOL    HW254075   2.205   3.815  11.718  0.0944  0.6038 -0.2622
49073SOL     OW54076   2.728   6.148   6.791  0.2664 -0.0452 -0.7455
49073SOL    HW154077   2.753   6.164   6.700 -1.7690  3.5320 -0.8633
49073SOL    HW254078   2.641   6.186   6.800  0.4341 -0.1069  2.7301
49074SOL     OW54079   1.445   4.314   4.826 -0.1727 -0.1269 -0.2103
49074SOL    HW154080   1.372   4.375   4.821  1.8974  2.8098  1.7997
49074SOL    HW254081   1.404   4.228   4.836 -3.3663  1.4097  1.5424
49075SOL     OW54082   1.908   7.769   5.836 -0.0378  0.0382  0.4921
49075SOL    HW154083   1.923   7.691   5.890 -0.6500 -1.3368 -1.2130
49075SOL    HW254084   1.988   7.820   5.844  1.2273 -1.7856  0.0774
49076SOL     OW54085   6.652  11.680   8.467  0.2186 -0.3125 -0.0301
49076SOL    HW154086   6.598  11.718   8.536 -1.8740 -0.4069 -1.5166
49076SOL    HW254087   6.657  11.587   8.490 -0.0327 -0.2561  0.2724
49077SOL     OW54088   3.359  11.831  10.345  0.2990  0.8963  0.0944
49077SOL    HW154089   3.286  11.773  10.369 -0.1240  2.3856  2.7550
49077SOL    HW254090   3.318  11.902  10.295  0.3410  0.5289 -0.4785
49078SOL     OW54091   2.395   8.251  11.808  0.1381 -0.5082 -0.1918
49078SOL    HW154092   2.459   8.233  11.878 -0.4915 -0.0008  0.5338
49078SOL    HW254093   2.411   8.342  11.783 -0.0512 -0.4975 -0.2740
49079SOL     OW54094  11.161   1.596  11.246  0.0896  0.3232 -0.0944
49079SOL    HW154095  11.160   1.677  11.297  0.1108 -0.1882  0.7281
49079SOL    HW254096  11.224   1.540  11.291  0.1229 -0.1347 -0.6969
49080SOL     OW54097  12.426   8.350   2.559  0.0039 -0.0958  0.2665
49080SOL    HW154098  12.514   8.324   2.531  0.7895  1.6339  0.9853
49080SOL    HW254099  12.431   8.356   2.654  0.5607  4.4102  0.1681
49081SOL     OW54100   4.321  12.007   8.747  0.0408 -0.2599  0.3735
49081SOL    HW154101   4.294  12.027   8.836 -0.1965 -1.5942  0.6196
49081SOL    HW254102   4.240  12.004   8.697  0.1434  0.1409  0.1765
49082SOL     OW54103  12.529   6.645   3.246 -0.0226  0.4175 -0.2649
49082SOL    HW154104  12.589   6.704   3.200  0.6172 -1.4736 -2.0105
49082SOL    HW254105  12.586   6.591   3.301 -0.0904 -1.0566 -1.5572
49083SOL     OW54106   7.680   0.249  11.215 -0.5736  0.3835 -0.1891
49083SOL    HW154107   7.670   0.268  11.308 -0.8191  0.1126 -0.1584
49083SOL    HW254108   7.638   0.322  11.170 -1.1898  0.1045 -0.0757
49084SOL     OW54109   1.479   2.720   1.448  0.7316  0.6266 -0.4188
49084SOL    HW154110   1.392   2.682   1.435  0.1587  1.7672  0.0047
49084SOL    HW254111   1.525   2.702   1.366  0.7290 -1.5783  0.0074
49085SOL     OW54112   5.808   5.152  11.242 -0.7013  0.3199 -0.3648
49085SOL    HW154113   5.831   5.143  11.334 -1.6097 -0.4286 -0.1964
49085SOL    HW254114   5.802   5.062  11.209 -1.6380  0.5270 -0.8189
49086SOL     OW54115   2.831   7.993   6.844  0.4819  1.0314  0.0927
49086SOL    HW154116   2.784   8.007   6.761  0.6459  0.8134 -0.0368
49086SOL    HW254117   2.892   7.922   6.826  0.0716  0.5439  0.5803
49087SOL     OW54118   4.930   1.427  12.027  0.0592 -0.3870 -0.4001
49087SOL    HW154119   5.004   1.378  12.063  0.2662 -0.2201 -0.5957
49087SOL    HW254120   4.876   1.449  12.103 -0.7857 -2.1521 -0.4473
49088SOL     OW54121   6.640   5.650   2.609  0.0182 -0.9185  0.2531
49088SOL    HW154122   6.692   5.714   2.658  0.8981 -0.5616 -1.0857
49088SOL    HW254123   6.602   5.700   2.537 -2.9655 -0.9829  1.6691
49089SOL     OW54124   2.078   8.529   1.279 -0.2633  0.1406  0.1856
49089SOL    HW154125   2.016   8.540   1.207  0.0137 -1.8935 -0.4192
49089SOL    HW254126   2.106   8.618   1.300 -1.9515  0.9515 -0.7752
49090SOL     OW54127   7.832   0.055   7.689 -0.0818  0.1138 -0.2817
49090SOL    HW154128   7.890   0.049   7.613 -0.4265 -0.0614 -0.5338
49090SOL    HW254129   7.750   0.089   7.654 -0.8553 -1.7138 -0.3299
49091SOL     OW54130   8.631   8.099  10.239 -0.1598  0.2811 -0.1940
49091SOL    HW154131   8.621   8.174  10.298 -2.5112  0.8272 -1.1339
49091SOL    HW254132   8.578   8.123  10.163 -2.4702 -2.9908  0.1632
49092SOL     OW54133   9.068   3.780   8.200  0.0229 -0.4466 -0.7314
49092SOL    HW154134   9.153   3.776   8.244 -0.1205 -0.4719 -0.4501
49092SOL    HW254135   9.062   3.870   8.167  0.2280 -0.4928 -0.8897
49093SOL     OW54136   8.862  10.710  11.049 -0.1062  0.2567 -0.2717
49093SOL    HW154137   8.797  10.775  11.021 -0.1440  0.3380  0.0108
49093SOL    HW254138   8.946  10.753  11.034 -0.1406  0.4944  0.2290
49094SOL     OW54139   3.614   5.523   9.271 -0.2432 -0.5868 -0.1420
49094SOL    HW154140   3.592   5.522   9.178 -0.7973 -0.8338 -0.0148
49094SOL    HW254141   3.677   5.452   9.281 -0.1433 -0.5273 -0.3374
49095SOL     OW54142   2.837   9.348   2.948 -0.9802  0.4707 -0.0530
49095SOL    HW154143   2.857   9.255   2.961 -1.2747  0.3739 -0.2769
49095SOL    HW254144   2.745   9.349   2.919 -0.4238  0.6771 -1.9442
49096SOL     OW54145   0.613   8.646   5.503  0.2341  0.0241 -0.2407
49096SOL    HW154146   0.613   8.640   5.407  0.3949  0.3078 -0.2612
49096SOL    HW254147   0.523   8.626   5.528 -0.0853  1.0535 -0.5261
49097SOL     OW54148   7.710   7.537  11.289  0.7857  0.2573  0.3427
49097SOL    HW154149   7.780   7.579  11.238  1.0967 -0.8215 -0.1410
49097SOL    HW254150   7.635   7.535  11.230  1.2778 -1.4031 -0.2699
49098SOL     OW54151   2.403  12.269   2.121  0.3031  0.5919 -0.1007
49098SOL    HW154152   2.332  12.204   2.119  1.4143 -0.6856  0.3777
49098SOL    HW254153   2.426  12.282   2.029  1.5774 -1.4841 -0.1515
49099SOL     OW54154   0.212   1.865   1.052 -0.2369 -0.1579 -0.4356
49099SOL    HW154155   0.210   1.881   1.146 -2.4162  0.6633 -0.5440
49099SOL    HW254156   0.247   1.946   1.014 -0.0945 -0.1808 -0.3492
49100SOL     OW54157   0.937  10.591   0.957 -0.3157 -0.4298  0.5316
49100SOL    HW154158   0.842  10.580   0.966 -0.5918  0.2542 -1.1450
49100SOL    HW254159   0.955  10.678   0.993 -0.4516 -0.2440  0.1550
49101SOL     OW54160   5.111   1.110  11.669  0.5816  0.8255 -0.5645
49101SOL    HW154161   5.063   1.059  11.604 -3.0747 -0.3099  2.6241
49101SOL    HW254162   5.187   1.056  11.691 -0.7068 -1.1108 -0.5981
49102SOL     OW54163   4.087  10.260   4.560 -0.0919  0.2060 -0.1699
49102SOL    HW154164   4.005  10.210   4.564  0.0789 -0.4823 -3.0925
49102SOL    HW254165   4.060  10.350   4.581 -1.1385 -0.3749  1.1580
49103SOL     OW54166   0.418   1.339   8.479  0.3062 -0.0806  0.4967
49103SOL    HW154167   0.508   1.323   8.450  0.6231  0.8479  0.9385
49103SOL    HW254168   0.373   1.369   8.400  0.5523  0.0900  0.4202
49104SOL     OW54169   0.228  10.404   9.542  0.3384  0.0077 -0.7415
49104SOL    HW154170   0.146  10.408   9.592  1.0703  0.1424  0.4773
49104SOL    HW254171   0.272  10.486   9.563  0.8561 -0.1261 -1.2913
49105SOL     OW54172  10.265   6.609   8.812  0.0694  0.3066 -0.3819
49105SOL    HW154173  10.269   6.556   8.891 -0.7052  1.7296  0.6488
49105SOL    HW254174  10.184   6.582   8.769  0.2631 -0.1436 -0.4746
49106SOL     OW54175   3.676   7.626   2.269 -0.6542 -0.1711 -0.1499
49106SOL    HW154176   3.712   7.542   2.240 -0.0078 -0.0832  0.3850
49106SOL    HW254177   3.640   7.665   2.189 -0.5943 -0.7773 -0.4782
49107SOL     OW54178   2.198   6.974  11.035 -0.0425  0.7623  0.4684
49107SOL    HW154179   2.241   6.924  10.966 -1.1205  1.2123 -0.5524
49107SOL    HW254180   2.184   6.910  11.105 -0.8161 -0.2252 -0.5502
49108SOL     OW54181   5.452  11.857   3.349 -0.2984  0.8693  0.1838
49108SOL    HW154182   5.492  11.838   3.265 -1.5781  1.1172 -0.5004
49108SOL    HW254183   5.474  11.949   3.366  1.3062  0.3940  0.9190
49109SOL     OW54184  11.645   2.886   3.290  0.0526  1.2869  0.5343
49109SOL    HW154185  11.627   2.980   3.295 -1.3859  1.1550 -1.0753
49109SOL    HW254186  11.565   2.848   3.254  0.9382 -0.4346  0.2472
49110SOL     OW54187   4.390   7.305   3.895 -0.0405 -0.0446  0.0921
49110SOL    HW154188   4.306   7.267   3.866 -0.7424  1.9565 -0.6788
49110SOL    HW254189   4.430   7.338   3.815  0.6727  0.5410  0.6766
49111SOL     OW54190   3.620   9.670   9.661  0.3295  0.8818  0.0697
49111SOL    HW154191   3.647   9.585   9.696 -0.1580 -0.6250 -2.9368
49111SOL    HW254192   3.700   9.723   9.663  0.9157 -0.0095  0.9235
49112SOL     OW54193   6.404   0.017   1.570 -0.4837 -0.7025 -0.1724
49112SOL    HW154194   6.365   0.077   1.507  2.0557  1.1021 -0.1698
49112SOL    HW254195   6.440  -0.054   1.517  0.0348 -0.1308 -0.6008
49113SOL     OW54196   4.497   4.564   1.872  0.7200  0.2300  0.3570
49113SOL    HW154197   4.578   4.614   1.884 -0.3945  1.8001  1.9638
49113SOL    HW254198   4.463   4.553   1.960 -0.9742 -0.1289 -0.3109
49114SOL     OW54199  12.539  10.171  11.074 -0.3210 -0.0856 -0.2835
49114SOL    HW154200  12.585  10.233  11.131  1.5470 -0.6366 -1.0844
49114SOL    HW254201  12.451  10.165  11.110 -0.4078  2.6216  0.1093
49115SOL     OW54202   1.849   6.905   5.998 -0.1431  0.0244 -0.1952
49115SOL    HW154203   1.853   6.979   5.937  0.5303  1.4550  1.5167
49115SOL    HW254204   1.756   6.880   5.998 -0.1285 -0.2039 -1.9639
49116SOL     OW54205   0.725   1.250   6.634  0.1267 -0.5471  0.1735
49116SOL    HW154206   0.792   1.237   6.568  0.7541  0.3499  0.6137
49116SOL    HW254207   0.770   1.236   6.718 -0.2693 -0.1389  0.4630
49117SOL     OW54208   4.840   7.357  11.026 -0.0256  0.3632 -0.1805
49117SOL    HW154209   4.778   7.341  10.954  0.5602  0.8952 -0.8245
49117SOL    HW254210   4.886   7.437  11.000  0.7483  0.1232  0.4048
49118SOL     OW54211  10.795   1.969  10.929 -0.2727 -0.4133 -0.3316
49118SOL    HW154212  10.712   1.924  10.945 -1.1881  0.9084 -1.1024
49118SOL    HW254213  10.783   2.056  10.968  1.1441 -0.5206  0.4230
49119SOL     OW54214   3.011   0.320   5.021 -0.9035 -0.0377 -0.3545
49119SOL    HW154215   2.958   0.243   5.043 -0.9951  0.3228  0.7324
49119SOL    HW254216   2.970   0.392   5.070  0.1891  0.3754 -0.0246
49120SOL     OW54217   6.119   9.121   1.498  0.1393 -0.6402  0.6365
49120SOL    HW154218   6.029   9.151   1.486 -0.2210 -0.8381  2.5315
49120SOL    HW254219   6.112   9.026   1.503  0.6371 -0.7462 -0.4262
49121SOL     OW54220   4.856   2.955  11.635 -0.0538 -0.1098  0.1208
49121SOL    HW154221   4.850   2.884  11.570  0.3560  0.7222 -0.8483
49121SOL    HW254222   4.925   2.926  11.695  2.0869  0.6432 -1.8240
49122SOL     OW54223   9.106  11.420   4.415 -0.3164  0.5290  0.4255
49122SOL    HW154224   9.065  11.480   4.477 -0.8060 -1.1892  1.8748
49122SOL    HW254225   9.034  11.387   4.362 -0.3273 -0.0341  0.7807
49123SOL     OW54226   8.195   0.865   6.194 -0.1086  0.1752 -0.0578
49123SOL    HW154227   8.149   0.788   6.160  2.5980 -2.3685  1.6043
49123SOL    HW254228   8.128   0.913   6.242 -1.9351 -1.0039 -1.2753
49124SOL     OW54229  10.771   3.752   4.501 -0.1847  0.0038 -0.4902
49124SOL    HW154230  10.731   3.691   4.439 -2.6537  1.8204 -0.8029
49124SOL    HW254231  10.849   3.785   4.455  0.8992 -2.3898 -0.5263
49125SOL     OW54232   4.288   3.845   8.427 -0.1444 -0.4160 -0.0454
49125SOL    HW154233   4.302   3.780   8.359  1.6636 -0.5663  0.4250
49125SOL    HW254234   4.194   3.843   8.443 -0.3232 -1.8213 -1.0887
49126SOL     OW54235   2.148   0.541   6.548 -0.0410  0.4203 -0.0189
49126SOL    HW154236   2.063   0.550   6.591 -0.5648  0.1603 -0.9743
49126SOL    HW254237   2.182   0.458   6.579 -0.8015 -0.1794 -0.7376
49127SOL     OW54238   1.509   2.110   2.852  0.2350  0.1907  0.4588
49127SOL    HW154239   1.528   2.039   2.790  0.2128  1.2935 -0.8595
49127SOL    HW254240   1.414   2.106   2.865  0.3710 -0.7041  1.2753
49128SOL     OW54241  11.057   1.124  11.425 -0.2778  0.0659  0.4845
49128SOL    HW154242  10.968   1.138  11.391 -0.1507 -2.2822 -0.9864
49128SOL    HW254243  11.046   1.126  11.520 -2.2797 -1.9468  0.3773
49129SOL     OW54244   6.623   8.619  12.140 -0.0957  0.5304  0.2131
49129SOL    HW154245   6.566   8.585  12.071  0.0950 -1.5317  0.9903
49129SOL    HW254246   6.695   8.556  12.144  0.2440  0.9806  1.8319
49130SOL     OW54247   0.385   3.319   3.904 -0.2694  0.2236  0.0946
49130SOL    HW154248   0.413   3.383   3.968 -0.7282 -0.1175  0.6441
49130SOL    HW254249   0.290   3.330   3.898 -0.3672 -0.4678  0.2684
49131SOL     OW54250   3.781  12.310   2.324 -0.5802  0.1461  0.0530
49131SOL    HW154251   3.828  12.245   2.272 -0.4632  1.1976 -1.1917
49131SOL    HW254252   3.849  12.356   2.373 -0.3834  0.9409 -0.9278
49132SOL     OW54253   5.745   8.877   9.224 -0.1030 -0.3628 -0.2422
49132SOL    HW154254   5.717   8.827   9.148  0.3613 -0.7388 -0.1799
49132SOL    HW254255   5.737   8.968   9.198 -1.9371 -0.4298 -0.0090
49133SOL     OW54256   0.739   7.774   9.266  0.2585 -0.1889  0.0424
49133SOL    HW154257   0.775   7.804   9.350 -1.3849 -0.5288  0.8969
49133SOL    HW254258   0.709   7.854   9.223 -1.0312 -0.2130  0.8364
49134SOL     OW54259   7.030   2.051   0.297  0.6701 -0.4737 -0.2233
49134SOL    HW154260   7.124   2.039   0.289  0.6647 -0.7158  0.0496
49134SOL    HW254261   7.004   1.991   0.368  0.8747  2.3364  2.4129
49135SOL     OW54262   6.416   7.823   2.541  0.1840 -0.1762  0.1971
49135SOL    HW154263   6.401   7.785   2.455  0.4178  0.9422 -0.3535
49135SOL    HW254264   6.472   7.899   2.525 -0.5865  0.6499  1.1984
49136SOL     OW54265  10.656   6.483   6.386 -0.0724 -0.6626 -0.2675
49136SOL    HW154266  10.674   6.389   6.393 -1.4429 -1.1512 -2.3430
49136SOL    HW254267  10.561   6.489   6.380 -0.1735  1.0854  1.9237
49137SOL     OW54268   3.592  11.318   9.551  0.0244  0.0767 -0.2203
49137SOL    HW154269   3.527  11.290   9.487  0.1197  2.8008 -1.6414
49137SOL    HW254270   3.562  11.280   9.633 -0.8786 -2.3812 -1.5800
49138SOL     OW54271   2.178   0.165   0.403 -0.6497 -0.0959  0.4175
49138SOL    HW154272   2.253   0.225   0.400 -0.2623 -0.5970 -0.5296
49138SOL    HW254273   2.201   0.102   0.472  0.2459 -0.7695 -0.4501
49139SOL     OW54274   9.157   7.514   7.372  0.3914  0.2761  0.3666
49139SOL    HW154275   9.094   7.579   7.405  1.2022  1.4041 -0.2292
49139SOL    HW254276   9.197   7.557   7.296 -0.0375 -1.4891 -0.9202
49140SOL     OW54277   1.287   4.347   9.338 -0.5194 -0.2656 -0.7030
49140SOL    HW154278   1.265   4.322   9.248 -0.2621 -1.9099 -0.3331
49140SOL    HW254279   1.326   4.434   9.329 -0.5638 -0.3624 -2.1713
49141SOL     OW54280   6.713  12.095   5.441  0.3850 -0.5149  0.2141
49141SOL    HW154281   6.742  12.097   5.532  1.2405  0.3548 -0.0684
49141SOL    HW254282   6.644  12.160   5.436  1.0537  0.1969  0.0195
49142SOL     OW54283   9.499   5.319   7.423 -0.0178 -0.2842  0.2339
49142SOL    HW154284   9.450   5.359   7.494  1.4348 -0.9557  1.6882
49142SOL    HW254285   9.583   5.295   7.463  1.1778  0.0804 -1.9378
49143SOL     OW54286   7.024   6.506   8.562 -0.5137  0.4606  0.1376
49143SOL    HW154287   7.052   6.574   8.501  0.4611 -1.7212 -2.0062
49143SOL    HW254288   7.094   6.500   8.627 -0.1672  0.8923 -0.1969
49144SOL     OW54289   9.217   1.890   4.074  0.0915 -0.0236  0.3544
49144SOL    HW154290   9.273   1.879   4.151 -0.6819  1.2920  1.1354
49144SOL    HW254291   9.129   1.902   4.109 -0.0827  2.0020 -0.6190
49145SOL     OW54292   7.306   4.544   3.882  0.1480 -0.7440 -0.6613
49145SOL    HW154293   7.376   4.522   3.821  0.6177  1.0864 -0.8408
49145SOL    HW254294   7.344   4.610   3.940 -1.1079 -0.4953 -0.0859
49146SOL     OW54295   1.457   3.837   2.325 -0.6434  0.5166 -0.3960
49146SOL    HW154296   1.411   3.892   2.261  0.2926 -0.3504 -1.8978
49146SOL    HW254297   1.387   3.791   2.372 -1.3617  0.9626 -1.0000
49147SOL     OW54298   2.154   8.310   0.296  0.1873  0.6452  0.4592
49147SOL    HW154299   2.250   8.314   0.299  0.1042  3.1359  1.3625
49147SOL    HW254300   2.127   8.304   0.388 -0.5535  1.9668  0.3450
49148SOL     OW54301   4.860   9.784   0.255  0.3706 -0.0187  0.1206
49148SOL    HW154302   4.932   9.721   0.252  0.6708  0.2805  0.7799
49148SOL    HW254303   4.903   9.869   0.245 -0.0222  0.0934 -0.6762
49149SOL     OW54304   6.253  11.888   7.888 -0.6473 -0.0999 -0.4605
49149SOL    HW154305   6.253  11.793   7.900 -0.9000 -0.0392  0.0436
49149SOL    HW254306   6.254  11.923   7.977 -3.3169  0.3751 -0.5503
49150SOL     OW54307   6.360   9.548   0.143  0.0793  0.1916 -0.0933
49150SOL    HW154308   6.441   9.589   0.173  0.5944  0.2260 -1.4805
49150SOL    HW254309   6.379   9.518   0.054 -1.4534  0.2411 -0.4673
49151SOL     OW54310   5.525  12.213   7.633 -0.5227  0.1129  0.0156
49151SOL    HW154311   5.471  12.147   7.677  1.7009 -0.2021  2.5456
49151SOL    HW254312   5.602  12.165   7.604 -0.8411  0.8251 -2.2069
49152SOL     OW54313  10.933   0.437  11.852  0.3823  0.7230 -0.3388
49152SOL    HW154314  11.014   0.488  11.848  1.2029 -0.4350  0.5461
49152SOL    HW254315  10.899   0.453  11.940  0.1341  0.5150 -0.3963
49153SOL     OW54316  11.094  11.696   1.534  0.1825  0.0318 -0.5508
49153SOL    HW154317  11.039  11.754   1.481  1.5849  0.1383 -1.9833
49153SOL    HW254318  11.083  11.610   1.495 -0.3904 -0.3182  0.3498
49154SOL     OW54319   9.153   4.171   3.578 -0.1773  0.0676  0.2993
49154SOL    HW154320   9.234   4.216   3.556  0.3969 -0.5294  1.1538
49154SOL    HW254321   9.120   4.216   3.656 -0.6040  0.2264  0.0308
49155SOL     OW54322   1.840   0.219   9.119  0.3401  0.6763 -0.1547
49155SOL    HW154323   1.929   0.248   9.098 -0.2253  1.9179 -0.9137
49155SOL    HW254324   1.800   0.200   9.034  0.1010 -0.5995  0.2245
49156SOL     OW54325   2.621  12.450   2.948  0.0232 -0.0647 -0.0179
49156SOL    HW154326   2.566  12.528   2.946 -1.2764 -0.8498  1.8713
49156SOL    HW254327   2.704  12.480   2.985 -0.5122  0.4221  0.8363
49157SOL     OW54328   9.749   4.098   3.022 -0.0828  0.2950  0.7835
49157SOL    HW154329   9.662   4.076   3.054 -0.0639 -0.3599  0.3952
49157SOL    HW254330   9.808   4.046   3.076  0.2378  2.3413  2.5229
49158SOL     OW54331   7.760   3.018   1.982  0.3854 -0.2236  0.1004
49158SOL    HW154332   7.784   2.957   2.051 -0.1250 -1.1919 -0.5654
49158SOL    HW254333   7.842   3.037   1.936  0.2854 -1.8138 -0.7978
49159SOL     OW54334   2.909   1.016   6.110  0.3426 -0.4967  0.4846
49159SOL    HW154335   2.997   0.980   6.103  0.4598 -0.0205 -0.6666
49159SOL    HW254336   2.855   0.957   6.056  0.2963  0.2524 -0.3062
49160SOL     OW54337   5.685   2.254   3.280  0.1186  0.3654  0.1553
49160SOL    HW154338   5.718   2.196   3.212  0.1403  0.0907  0.3967
49160SOL    HW254339   5.602   2.215   3.306 -1.0959  1.7911 -1.3964
49161SOL     OW54340   7.041  10.576   2.234  0.2456 -0.3179 -0.5826
49161SOL    HW154341   7.071  10.562   2.144 -0.5115 -1.2456 -0.7121
49161SOL    HW254342   6.949  10.600   2.225  0.7258  1.9124 -0.1561
49162SOL     OW54343   5.739  11.135   5.251 -0.1602 -0.2559  0.5561
49162SOL    HW154344   5.672  11.118   5.185 -0.3581  2.7054 -0.1807
49162SOL    HW254345   5.696  11.194   5.314  1.3027  0.4863  0.8961
49163SOL     OW54346  10.509   8.039   7.638 -0.7828  0.4161 -0.3683
49163SOL    HW154347  10.481   8.067   7.551 -0.7021 -0.7680 -0.8044
49163SOL    HW254348  10.563   7.961   7.621  0.9898  1.3578  0.5827
49164SOL     OW54349   0.842   9.043   7.674 -0.6543  0.0802 -1.0178
49164SOL    HW154350   0.888   9.112   7.627  0.8961 -0.4142 -0.3053
49164SOL    HW254351   0.859   8.964   7.623  1.3004 -0.5174  0.4435
49165SOL     OW54352   2.598   2.513   0.193 -0.2734 -0.2565  0.0184
49165SOL    HW154353   2.649   2.440   0.227  0.1418 -0.7261 -1.5580
49165SOL    HW254354   2.511   2.477   0.177 -0.0926 -0.3819 -0.6790
49166SOL     OW54355   7.237   5.551   4.701  0.4717 -0.2145  0.2603
49166SOL    HW154356   7.229   5.545   4.606 -0.5625 -2.6984  0.4174
49166SOL    HW254357   7.205   5.638   4.723 -0.5307 -0.0755 -1.5615
49167SOL     OW54358   6.818   7.101   6.321  0.1698  0.7342 -0.1599
49167SOL    HW154359   6.900   7.107   6.369  0.5538 -1.0059 -0.5220
49167SOL    HW254360   6.758   7.058   6.381  0.2644 -0.2363 -0.7461
49168SOL     OW54361   7.473   5.200   8.185 -0.0016  0.7717 -0.3992
49168SOL    HW154362   7.405   5.142   8.152  2.0374 -0.7188 -2.2512
49168SOL    HW254363   7.466   5.279   8.131 -1.8350  1.7872  1.1664
49169SOL     OW54364   4.695   1.674   7.822 -0.2849  0.1244 -0.2060
49169SOL    HW154365   4.718   1.730   7.747  1.2771 -0.4242 -0.1624
49169SOL    HW254366   4.656   1.597   7.782  0.7666 -0.2761 -0.5030
49170SOL     OW54367   3.695   1.119   1.582  0.2646 -0.8384 -0.4721
49170SOL    HW154368   3.757   1.186   1.612 -1.2317  0.1467  0.5816
49170SOL    HW254369   3.631   1.112   1.653 -0.7146 -1.9747 -1.4163
49171SOL     OW54370   6.445   0.971   6.980 -0.4523  0.2136 -0.6286
49171SOL    HW154371   6.411   1.059   6.967  0.2059  0.7265  0.9526
49171SOL    HW254372   6.506   0.958   6.907  0.0117  1.3530 -0.4559
49172SOL     OW54373  11.945  12.523   2.084 -0.3025  0.1910 -0.2417
49172SOL    HW154374  11.881  12.594   2.079 -0.9468 -0.3783 -0.2310
49172SOL    HW254375  11.997  12.544   2.161  0.3686  1.3406 -0.9791
49173SOL     OW54376   2.124   2.707   8.297 -0.0706 -0.4682 -0.0155
49173SOL    HW154377   2.047   2.688   8.244 -0.2078 -1.5353  0.5461
49173SOL    HW254378   2.112   2.798   8.326 -0.3453 -0.1220 -1.1837
49174SOL     OW54379   1.119   0.224   3.000  0.1332 -0.5426  0.2830
49174SOL    HW154380   1.087   0.189   2.917 -1.1728 -1.4683  1.1530
49174SOL    HW254381   1.055   0.196   3.065  1.0291  0.3254  1.5913
49175SOL     OW54382   7.641   9.932  10.067 -0.0888  0.5824  0.3736
49175SOL    HW154383   7.619  10.016  10.107 -1.6583  2.3142 -3.6508
49175SOL    HW254384   7.726   9.948  10.025 -0.7580  0.4574 -1.0613
49176SOL     OW54385   4.597   0.217   3.928  0.4691  0.3318 -0.2222
49176SOL    HW154386   4.633   0.228   4.016  1.1226  0.0867 -0.4532
49176SOL    HW254387   4.617   0.127   3.905 -2.5601 -0.6815  0.6224
49177SOL     OW54388   5.235  10.020  12.032 -0.0124  0.2347  0.0166
49177SOL    HW154389   5.220   9.940  12.083 -3.5109  0.3342 -0.5618
49177SOL    HW254390   5.273   9.990  11.950  0.8043 -0.5537  0.6680
49178SOL     OW54391   2.365   6.514   7.217 -0.0703  0.5884 -0.1494
49178SOL    HW154392   2.449   6.532   7.259  1.2803 -2.9140 -0.9845
49178SOL    HW254393   2.332   6.437   7.261 -0.5369 -0.8441 -2.7689
49179SOL     OW54394  10.810   4.332   8.851  0.2665 -0.3999  0.6659
49179SOL    HW154395  10.905   4.339   8.863  0.1001  0.1410  1.7606
49179SOL    HW254396  10.792   4.381   8.772  0.7295  0.7784  1.2695
49180SOL     OW54397   2.248  11.375   5.032  0.3206  0.1417  0.2305
49180SOL    HW154398   2.269  11.462   5.067 -0.4428  1.0143 -1.3502
49180SOL    HW254399   2.330  11.344   4.995  1.0355 -0.6188  2.3339
49181SOL     OW54400   2.643   7.393   8.617 -0.2296  0.3355  0.2193
49181SOL    HW154401   2.671   7.437   8.537 -0.1726 -0.5582 -0.2641
49181SOL    HW254402   2.568   7.339   8.591 -0.0003 -0.2235  0.6804
49182SOL     OW54403  12.312  10.817   8.756 -0.1882  0.1187 -0.2271
49182SOL    HW154404  12.381  10.851   8.698  0.4209  0.5142  0.7015
49182SOL    HW254405  12.280  10.894   8.803 -0.4620 -0.2422  0.1795
49183SOL     OW54406   7.834   6.660   5.199  0.3529 -0.1110  0.2614
49183SOL    HW154407   7.896   6.733   5.206  0.7729 -0.3139 -1.0237
49183SOL    HW254408   7.816   6.635   5.290  2.3996 -0.2390  0.6784
49184SOL     OW54409   8.265   4.740   0.823 -0.0813  0.1577 -0.6640
49184SOL    HW154410   8.266   4.670   0.758 -0.5893 -0.3258 -0.1556
49184SOL    HW254411   8.347   4.730   0.871  0.2061  0.3975 -1.1019
49185SOL     OW54412   0.685   8.955   1.223  0.0859 -0.3551  0.0366
49185SOL    HW154413   0.694   8.999   1.139  0.1956  0.3545  0.4109
49185SOL    HW254414   0.604   8.905   1.216 -0.6303  0.7983 -0.0058
49186SOL     OW54415   1.331  11.911   5.832 -0.1752  0.2188 -0.0424
49186SOL    HW154416   1.385  11.988   5.813  1.0134 -0.6306 -0.2206
49186SOL    HW254417   1.375  11.839   5.786 -1.5087 -0.4943 -0.2403
49187SOL     OW54418   8.774   6.120   5.089 -0.0716  0.2341  0.0067
49187SOL    HW154419   8.798   6.129   4.997  1.0538 -0.9926  0.1425
49187SOL    HW254420   8.698   6.061   5.088  0.4441 -0.4490 -0.1111
49188SOL     OW54421   9.347   2.735   7.004  0.1931  0.2705 -0.3232
49188SOL    HW154422   9.400   2.687   7.067  1.8163  0.3055 -1.5727
49188SOL    HW254423   9.281   2.672   6.975  1.8151 -1.0363 -1.3782
49189SOL     OW54424   4.096  10.702   4.542 -0.0827 -0.4721  0.5886
49189SOL    HW154425   4.177  10.652   4.552 -1.5217 -2.9313  0.7047
49189SOL    HW254426   4.076  10.696   4.449  1.0738  2.2761  0.0701
49190SOL     OW54427   4.442  11.602  12.572 -0.3760  0.0719 -0.0262
49190SOL    HW154428   4.417  11.668  12.637 -1.0506  0.1640 -0.3770
49190SOL    HW254429   4.414  11.639  12.488  1.6092  0.5381 -0.5395
49191SOL     OW54430   2.299   3.261   6.084  0.3592  0.0023  0.5187
49191SOL    HW154431   2.386   3.222   6.073 -0.0362 -0.9376  0.6180
49191SOL    HW254432   2.257   3.249   5.999  1.4442  3.4325 -0.6420
49192SOL     OW54433   0.651   7.398  12.179 -0.8906 -0.3916  0.2357
49192SOL    HW154434   0.622   7.428  12.265 -0.5910  3.3369 -0.7774
49192SOL    HW254435   0.741   7.368  12.193 -0.3345  1.5220  1.0638
49193SOL     OW54436   4.108   4.261   3.213  0.0302  0.2364  0.1941
49193SOL    HW154437   4.049   4.290   3.143 -1.3386 -4.0425 -0.7351
49193SOL    HW254438   4.187   4.233   3.167 -0.8954 -2.6397  0.1873
49194SOL     OW54439   5.155   9.851   1.718  0.0186  0.2347  0.0059
49194SOL    HW154440   5.104   9.867   1.798  2.8765 -0.4614  2.1440
49194SOL    HW254441   5.176   9.758   1.721  2.3954  0.6954 -0.0317
49195SOL     OW54442   1.915   5.947  12.327  0.0933 -0.2803  0.4824
49195SOL    HW154443   1.961   5.924  12.246 -1.4933  2.5449 -1.4161
49195SOL    HW254444   1.860   5.871  12.346 -0.0782 -0.7388 -1.6060
49196SOL     OW54445  12.180   4.522  12.528  0.0429  0.3916 -0.6790
49196SOL    HW154446  12.085   4.532  12.522  0.2251  1.8276 -1.7936
49196SOL    HW254447  12.212   4.609  12.550  1.1493  0.0710 -0.9448
49197SOL     OW54448   1.821   0.677   5.787 -0.2206  0.5263 -0.4420
49197SOL    HW154449   1.731   0.646   5.795 -0.0234 -0.1770 -0.8311
49197SOL    HW254450   1.813   0.772   5.775 -0.8342  0.6671  0.8967
49198SOL     OW54451   0.855   4.699   6.654 -0.0331  0.0631 -0.1250
49198SOL    HW154452   0.947   4.704   6.627 -0.2618  0.0671 -0.9304
49198SOL    HW254453   0.807   4.694   6.572 -0.6520 -1.7910  0.3066
49199SOL     OW54454  10.517   6.471   8.321  0.3590  0.4657  0.1425
49199SOL    HW154455  10.588   6.484   8.259 -0.4318 -1.6592 -1.3149
49199SOL    HW254456  10.444   6.522   8.284  0.0751 -0.2902 -0.3576
49200SOL     OW54457   9.139   2.608  10.773  0.2017  0.4928  0.9791
49200SOL    HW154458   9.109   2.537  10.830  0.6130  1.0449  1.9008
49200SOL    HW254459   9.234   2.610  10.785  0.8225 -1.6080 -2.3315
49201SOL     OW54460   8.423   3.883   2.158  0.6766  0.1791  0.5006
49201SOL    HW154461   8.332   3.865   2.179  0.5664  1.8609  1.6811
49201SOL    HW254462   8.429   3.979   2.157  2.0813  0.1389 -1.2274
49202SOL     OW54463   1.260   1.388   6.515  0.0123 -0.1698 -1.0903
49202SOL    HW154464   1.292   1.437   6.439 -0.8638  1.0433 -0.7160
49202SOL    HW254465   1.167   1.409   6.520  0.3170  0.9701  1.1362
49203SOL     OW54466   4.122   1.038   3.630 -0.1918 -0.3442  0.3334
49203SOL    HW154467   4.205   0.991   3.624 -0.2140 -0.3536  0.1093
49203SOL    HW254468   4.055   0.972   3.614 -0.2418 -0.3245  0.4552
49204SOL     OW54469   9.114   2.776   1.812 -0.2650 -0.2014 -0.4176
49204SOL    HW154470   9.161   2.852   1.847 -0.8593  0.3765 -0.8434
49204SOL    HW254471   9.064   2.743   1.887 -0.4849  0.2095 -0.3800
49205SOL     OW54472   2.322  11.124  11.008 -0.4497  0.6338  0.4864
49205SOL    HW154473   2.348  11.040  11.047  1.7973  0.0331 -1.9966
49205SOL    HW254474   2.258  11.101  10.941  0.7111  0.7619 -0.6973
49206SOL     OW54475   1.449   3.702   6.723 -0.0216 -0.6519 -0.4571
49206SOL    HW154476   1.394   3.665   6.654  1.6041 -0.4983 -1.8728
49206SOL    HW254477   1.498   3.772   6.681 -0.4538  0.8406  1.3535
49207SOL     OW54478   2.295  10.758  11.956  0.0923  0.2679  0.1542
49207SOL    HW154479   2.359  10.696  11.991  0.1643  0.1106 -0.2502
49207SOL    HW254480   2.210  10.721  11.981  0.1527  0.4974  0.7278
49208SOL     OW54481   0.280  10.940   4.299 -0.3108 -0.2966 -0.0368
49208SOL    HW154482   0.209  10.994   4.263 -0.0476 -0.9259 -1.5726
49208SOL    HW254483   0.324  10.998   4.361 -2.7679 -0.2155  1.7702
49209SOL     OW54484   9.159   1.359   2.648  0.2241  0.3832  0.2598
49209SOL    HW154485   9.230   1.344   2.709  0.6060  0.4770 -0.1518
49209SOL    HW254486   9.079   1.354   2.701  0.3302 -2.4530  0.2684
49210SOL     OW54487   1.009  12.316   2.634 -0.1215  0.0034  0.8196
49210SOL    HW154488   0.982  12.408   2.631  1.4046  0.4866  1.3107
49210SOL    HW254489   0.934  12.270   2.673 -2.4931  0.3682 -2.7835
49211SOL     OW54490   9.496   1.835   1.540 -1.1608 -0.4195  0.2850
49211SOL    HW154491   9.467   1.745   1.522  0.8513 -0.9276 -0.7499
49211SOL    HW254492   9.498   1.877   1.454 -0.4104  0.0671  0.5322
49212SOL     OW54493   8.005   9.907   3.191  0.0653  0.1676 -0.2230
49212SOL    HW154494   7.998   9.941   3.280  2.0608  1.4642 -0.4977
49212SOL    HW254495   7.935   9.842   3.184 -0.0868 -0.0177  2.2961
49213SOL     OW54496   1.777   3.271  11.041  0.4241 -0.0977 -0.4214
49213SOL    HW154497   1.769   3.345  10.982 -0.2663 -0.8372 -1.2787
49213SOL    HW254498   1.764   3.308  11.128 -0.7333  0.6615 -0.9020
49214SOL     OW54499  12.493   6.535  12.485  0.0078 -0.0713  0.2394
49214SOL    HW154500  12.487   6.517  12.392  0.2007 -0.7360  0.3459
49214SOL    HW254501  12.585   6.559  12.499  0.0518 -0.2778  0.3067
49215SOL     OW54502   8.838  10.011  11.773 -0.3891 -0.0261 -0.4104
49215SOL    HW154503   8.924   9.987  11.738 -0.7216 -0.3355 -1.0346
49215SOL    HW254504   8.779   9.943  11.739 -1.0582  0.7707 -0.8542
49216SOL     OW54505  11.740   4.745   8.768  0.3325  0.4175 -0.4508
49216SOL    HW154506  11.689   4.722   8.690  2.1376 -0.3429 -1.4543
49216SOL    HW254507  11.769   4.661   8.803  2.7859  0.8680 -1.2394
49217SOL     OW54508   1.415  11.343   3.780  0.3635  0.0025 -0.1786
49217SOL    HW154509   1.375  11.380   3.701 -0.7853 -2.6479 -0.9639
49217SOL    HW254510   1.354  11.367   3.850 -0.0338  0.1230 -0.5576
49218SOL     OW54511   7.950   7.010  10.211  0.5705 -0.1177  0.3279
49218SOL    HW154512   7.934   7.102  10.229 -0.5625 -0.3531  0.6014
49218SOL    HW254513   8.043   7.005  10.188  0.3923  1.2404 -0.7364
49219SOL     OW54514   3.492   1.143   2.138  0.0075  0.4915  0.3729
49219SOL    HW154515   3.489   1.238   2.126 -0.6113  0.3188 -1.1507
49219SOL    HW254516   3.509   1.130   2.231  2.8558  2.1186  0.2074
49220SOL     OW54517   6.233  11.908   0.583  0.1943 -0.6711  0.5032
49220SOL    HW154518   6.144  11.892   0.552 -1.4537  3.9653  2.0563
49220SOL    HW254519   6.238  11.862   0.667 -1.1079 -0.2229  0.8447
49221SOL     OW54520   5.418   3.131  11.006 -0.5301  0.2841  0.1904
49221SOL    HW154521   5.419   3.220  10.971 -1.9068 -0.1915 -1.1708
49221SOL    HW254522   5.433   3.075  10.930  0.6351 -0.6549  1.0746
49222SOL     OW54523   4.527   5.753   6.778  0.8134 -0.2690  0.1156
49222SOL    HW154524   4.586   5.794   6.715  0.1387 -1.4343 -1.3367
49222SOL    HW254525   4.439   5.773   6.746  0.4207  0.1598  1.3989
49223SOL     OW54526   4.847   3.788   9.295  0.4329 -0.6253  0.0389
49223SOL    HW154527   4.782   3.727   9.332  1.0246 -1.4944 -0.3194
49223SOL    HW254528   4.827   3.872   9.337  1.2404 -1.6046  2.5964
49224SOL     OW54529   2.457   4.212  11.833  0.2624 -0.9132  0.5124
49224SOL    HW154530   2.533   4.270  11.820  0.2585 -0.5538  1.9735
49224SOL    HW254531   2.482   4.131  11.789 -0.1649  0.4640 -2.5607
49225SOL     OW54532   7.838   7.225   5.623  0.1814  0.2423  0.0857
49225SOL    HW154533   7.874   7.147   5.666 -2.2507  0.1194  2.1704
49225SOL    HW254534   7.806   7.279   5.695 -1.1120  1.6388 -1.4576
49226SOL     OW54535   3.007   5.582   6.328 -0.7604  0.0987 -0.2831
49226SOL    HW154536   2.992   5.635   6.250  1.0219 -0.2511 -0.8965
49226SOL    HW254537   3.057   5.639   6.387  0.7214 -0.6889 -0.7377
49227SOL     OW54538   7.439   0.002   8.424 -0.1631  0.2562  0.0809
49227SOL    HW154539   7.411   0.074   8.480  2.0024  1.1966  0.0629
49227SOL    HW254540   7.530  -0.012   8.447  0.1312 -0.8870 -1.5946
49228SOL     OW54541   6.720  10.077   0.138 -0.4756  0.6983 -0.1807
49228SOL    HW154542   6.665  10.155   0.133  0.0127  0.9545 -2.4197
49228SOL    HW254543   6.676  10.012   0.084  0.4811  0.3094 -0.5119
49229SOL     OW54544   2.495   5.493   2.759  0.2374 -0.4676 -0.0749
49229SOL    HW154545   2.524   5.407   2.788 -1.2181 -0.7025  0.7200
49229SOL    HW254546   2.416   5.477   2.709  0.3805  0.3471 -0.5901
49230SOL     OW54547   6.736   3.553   4.474 -0.0113 -0.3849 -0.2054
49230SOL    HW154548   6.735   3.647   4.454  1.2186  0.4731  3.1760
49230SOL    HW254549   6.646   3.524   4.455 -0.3061  1.3037 -1.7223
49231SOL     OW54550   7.601   6.502  11.826 -0.4029 -0.5257  0.0207
49231SOL    HW154551   7.585   6.575  11.767 -1.0899 -0.3036  0.4557
49231SOL    HW254552   7.646   6.437  11.773 -0.7384 -0.2137 -0.6643
49232SOL     OW54553   9.693   6.215   1.028 -1.0554  0.2676  0.6278
49232SOL    HW154554   9.732   6.139   0.986 -0.8227  0.1089  1.1255
49232SOL    HW254555   9.613   6.232   0.978 -0.0018  1.0598 -0.9098
49233SOL     OW54556  11.920   2.296   0.556 -0.4263  0.0517  0.3208
49233SOL    HW154557  11.962   2.212   0.572 -0.9711 -0.2095  0.4065
49233SOL    HW254558  11.879   2.319   0.639  0.1426  0.6468  0.4406
49234SOL     OW54559   5.421   5.844   5.606  0.5631 -0.1639 -0.1062
49234SOL    HW154560   5.358   5.912   5.582 -0.5244 -1.3409 -0.7076
49234SOL    HW254561   5.482   5.840   5.533  0.5436  0.0585 -0.1339
49235SOL     OW54562   7.965   9.772   6.269  0.0258  0.0122  0.5658
49235SOL    HW154563   8.043   9.800   6.317  0.5804 -1.1411  0.3711
49235SOL    HW254564   7.997   9.751   6.181 -0.6866  0.5109  0.1827
49236SOL     OW54565   1.380   5.440   4.082 -0.1511 -0.0650  0.0720
49236SOL    HW154566   1.296   5.394   4.090  0.5839 -1.4966 -0.1208
49236SOL    HW254567   1.404   5.429   3.990  1.8001 -2.5566  0.7914
49237SOL     OW54568   6.783   5.935   1.061 -0.1687 -0.7028 -0.1880
49237SOL    HW154569   6.713   5.896   1.113 -0.7790  0.1911 -0.3198
49237SOL    HW254570   6.737   5.986   0.994  0.6075 -0.4861 -0.5607
49238SOL     OW54571   3.209   0.927   7.373 -0.1236  0.8540  0.2120
49238SOL    HW154572   3.142   0.958   7.433  0.1535 -1.5414  1.9085
49238SOL    HW254573   3.216   0.833   7.391  1.4114  0.4122 -2.1963
49239SOL     OW54574  10.631   2.987  12.572  0.3889  0.7361 -0.1393
49239SOL    HW154575  10.699   3.002  12.638 -1.0453  0.1315  1.5602
49239SOL    HW254576  10.679   2.979  12.489  2.4046  0.0267  1.0321
49240SOL     OW54577   4.473   5.285   0.823 -0.0798 -0.5372  0.1533
49240SOL    HW154578   4.475   5.283   0.728 -1.9509  2.8250 -0.1222
49240SOL    HW254579   4.389   5.245   0.846 -0.0141 -0.5718  0.3374
49241SOL     OW54580   0.289  10.750   9.299 -0.0564 -0.1085  0.8053
49241SOL    HW154581   0.238  10.777   9.222 -1.7841 -1.5860  1.3357
49241SOL    HW254582   0.378  10.738   9.266 -0.6987 -0.4434 -0.9228
49242SOL     OW54583   5.733   0.491   1.894  0.0122 -0.4530 -0.3347
49242SOL    HW154584   5.751   0.531   1.978 -1.0160 -1.0984  0.2150
49242SOL    HW254585   5.641   0.467   1.898 -0.1748 -0.0838 -1.8219
49243SOL     OW54586   7.568   6.223   6.286  0.2781 -0.5633  0.2100
49243SOL    HW154587   7.555   6.173   6.205  1.5048  0.0960 -0.4142
49243SOL    HW254588   7.662   6.243   6.287  0.3754 -0.9269  2.0220
49244SOL     OW54589  12.467   2.371   3.273 -0.2621  0.0723 -0.2951
49244SOL    HW154590  12.448   2.283   3.241  0.4919 -0.2948  0.2598
49244SOL    HW254591  12.434   2.373   3.362 -1.7942  0.9040 -0.8340
49245SOL     OW54592  11.699   8.765   1.022  0.3596  0.2650  0.0679
49245SOL    HW154593  11.631   8.795   1.082 -1.0183  1.4233 -1.9807
49245SOL    HW254594  11.780   8.801   1.059 -0.5430  1.6056  0.8502
49246SOL     OW54595   2.713   4.466   6.210  0.3036  0.2427 -0.2350
49246SOL    HW154596   2.661   4.388   6.195  0.5561 -0.7112  2.9732
49246SOL    HW254597   2.658   4.538   6.180 -1.6446 -0.9291  0.3342
49247SOL     OW54598   6.435   7.179   6.462  0.3555  0.0575  0.4668
49247SOL    HW154599   6.449   7.148   6.372  1.2996  1.2077  0.2014
49247SOL    HW254600   6.523   7.193   6.497 -0.0297  1.0754  1.0619
49248SOL     OW54601  11.015   5.223   4.075  0.4702 -0.0350 -0.3457
49248SOL    HW154602  10.988   5.131   4.074  0.8228 -0.1651  0.6245
49248SOL    HW254603  10.933   5.272   4.080  0.2649 -0.2763 -1.2368
49249SOL     OW54604   2.220  11.819   8.690 -0.0224 -0.4825 -0.3683
49249SOL    HW154605   2.240  11.912   8.703  1.3013 -0.6621 -0.9034
49249SOL    HW254606   2.290  11.774   8.738 -0.3928 -1.2000 -0.4983
49250SOL     OW54607   4.701  10.538   6.188  0.0188 -0.2298 -0.5519
49250SOL    HW154608   4.712  10.616   6.243  0.5964  0.4047 -1.5378
49250SOL    HW254609   4.720  10.465   6.247 -1.1150  0.3206  0.5538
49251SOL     OW54610  11.952   0.137   6.188  0.1736  0.3006  0.2847
49251SOL    HW154611  11.860   0.156   6.205 -0.0515 -0.6802  0.2510
49251SOL    HW254612  11.953   0.094   6.102  0.5797 -0.2771  0.5680
49252SOL     OW54613   1.215   1.874   7.543 -0.0661  0.1048  0.3275
49252SOL    HW154614   1.173   1.926   7.475  0.0059  0.2496  0.3925
49252SOL    HW254615   1.283   1.931   7.578  0.2856 -0.1885  0.1190
49253SOL     OW54616   9.159  11.298   3.944  0.2008  0.2776  0.5483
49253SOL    HW154617   9.148  11.368   4.008 -0.5411 -1.6516  2.6811
49253SOL    HW254618   9.070  11.265   3.929  0.3683  0.6011 -1.4664
49254SOL     OW54619   6.793   5.796   8.041 -0.8596 -0.0306  0.2232
49254SOL    HW154620   6.803   5.701   8.032 -0.9400 -0.0302  0.1383
49254SOL    HW254621   6.703   5.809   8.069 -1.5055  0.1552 -1.8141
49255SOL     OW54622   8.568  11.454   9.196  0.0582  0.4623  0.4356
49255SOL    HW154623   8.543  11.406   9.118  1.3065  0.6144 -0.0852
49255SOL    HW254624   8.655  11.419   9.219 -0.5849 -0.0992  2.1778
49256SOL     OW54625   0.732   2.306   4.839  0.0177 -0.0788 -0.2859
49256SOL    HW154626   0.658   2.305   4.900  1.0918  0.4315  1.0833
49256SOL    HW254627   0.727   2.223   4.793 -0.5464 -0.7119  0.8860
49257SOL     OW54628   8.782   8.480   1.806 -0.0233  0.2031 -0.2029
49257SOL    HW154629   8.855   8.427   1.838  0.3739  0.6551 -0.3341
49257SOL    HW254630   8.704   8.428   1.824  0.3872 -0.6155 -0.7484
49258SOL     OW54631   5.957   7.966   8.889  0.1813 -0.3689  0.3979
49258SOL    HW154632   5.886   7.979   8.951  0.0011 -0.0558  0.1269
49258SOL    HW254633   6.036   7.990   8.938  0.2392 -1.7347  1.0477
49259SOL     OW54634   7.841   7.243   0.294  0.0603  0.0672  0.8863
49259SOL    HW154635   7.933   7.267   0.277  0.1546 -1.1133 -0.4266
49259SOL    HW254636   7.791   7.299   0.234 -0.0646  0.4551  1.3470
49260SOL     OW54637   2.971   0.087  11.570 -0.1429 -0.1256 -0.1467
49260SOL    HW154638   2.966   0.002  11.613 -1.6723  0.1063  0.2029
49260SOL    HW254639   3.062   0.094  11.542  0.2147 -1.5083  0.5472
49261SOL     OW54640   0.499  12.092   2.555 -0.3903  0.6441 -0.7203
49261SOL    HW154641   0.575  12.075   2.499 -0.0458  1.1982 -0.4316
49261SOL    HW254642   0.519  12.047   2.638 -0.5006  0.5656 -0.7354
49262SOL     OW54643   5.219   2.514   1.558 -0.3688 -0.8065 -0.4178
49262SOL    HW154644   5.148   2.572   1.530 -0.2588 -0.3552  0.2046
49262SOL    HW254645   5.177   2.447   1.611 -0.2123  0.1824  1.0301
49263SOL     OW54646   3.739   8.611   0.033  0.0841  0.2768  0.0913
49263SOL    HW154647   3.672   8.657  -0.017 -1.1103  0.5967  1.9316
49263SOL    HW254648   3.815   8.670   0.031 -0.5446  1.1017  0.1685
49264SOL     OW54649  11.973   9.015  11.804 -0.4956  0.3630 -0.3906
49264SOL    HW154650  12.016   8.948  11.751 -2.6552 -0.5098 -1.1494
49264SOL    HW254651  12.010   9.005  11.892  1.1802  0.0289 -1.1156
49265SOL     OW54652   6.402   7.735   5.394  0.4500  0.1390  0.1326
49265SOL    HW154653   6.394   7.787   5.314 -2.6383 -0.8694 -0.3447
49265SOL    HW254654   6.459   7.663   5.370  3.2957  2.1542  0.2815
49266SOL     OW54655   4.017  12.497   6.961 -0.0139  0.2584  0.3061
49266SOL    HW154656   4.060  12.564   7.013 -0.9157  2.3419 -1.4928
49266SOL    HW254657   4.089  12.452   6.916  0.5125  1.1257  0.2600
49267SOL     OW54658  10.176   8.873   4.532  0.1363  0.2596 -0.3361
49267SOL    HW154659  10.247   8.830   4.579  1.8422  0.3752 -2.5931
49267SOL    HW254660  10.218   8.946   4.487 -1.0130 -0.6359 -3.0931
49268SOL     OW54661   4.845  10.321   8.291  0.1018  0.6252 -0.5554
49268SOL    HW154662   4.941  10.310   8.294 -0.0925 -1.5209 -0.1761
49268SOL    HW254663   4.819  10.330   8.382 -0.1382 -0.0720 -0.5451
49269SOL     OW54664   1.054   3.872   4.140  0.1976  0.1989 -0.1667
49269SOL    HW154665   1.034   3.908   4.054 -1.7097  0.6341  0.4014
49269SOL    HW254666   1.075   3.948   4.194  0.6571  0.0059 -0.0749
49270SOL     OW54667   6.469   7.079   3.658 -0.1597  0.9096  0.7383
49270SOL    HW154668   6.543   7.135   3.680 -0.9959  1.4662  2.3027
49270SOL    HW254669   6.395   7.140   3.652 -1.0898  0.0261  2.5123
49271SOL     OW54670   2.573   2.361   5.273 -0.6026  0.3842  0.1084
49271SOL    HW154671   2.545   2.346   5.363  0.9888  4.1784  1.4106
49271SOL    HW254672   2.664   2.331   5.271  0.0195  2.1608  0.4248
49272SOL     OW54673   3.721   3.417   3.553  0.0166  0.4279 -0.1025
49272SOL    HW154674   3.713   3.435   3.647  1.3606  0.9241 -0.0643
49272SOL    HW254675   3.646   3.462   3.514 -0.7499 -0.0694  0.7589
49273SOL     OW54676   4.766  11.098   7.670  0.4241 -0.1652  0.3227
49273SOL    HW154677   4.791  11.026   7.728  2.8506  1.2852  1.2104
49273SOL    HW254678   4.827  11.093   7.597 -1.0292 -0.4784 -0.9330
49274SOL     OW54679   6.735   3.275   2.880 -0.0695 -0.6518  0.3483
49274SOL    HW154680   6.651   3.236   2.855 -0.2115  0.3600 -0.8896
49274SOL    HW254681   6.781   3.206   2.927 -0.6588 -2.0122 -1.0002
49275SOL     OW54682   6.724   6.041   5.806 -0.7164 -0.0575 -0.3299
49275SOL    HW154683   6.652   5.986   5.772 -0.8720  0.6304 -1.1480
49275SOL    HW254684   6.723   6.025   5.900 -0.4068 -1.8809 -0.5871
49276SOL     OW54685   5.599   3.247   9.423 -0.2917 -0.3752  0.0709
49276SOL    HW154686   5.619   3.283   9.337  1.1009  0.4636  0.7023
49276SOL    HW254687   5.600   3.324   9.481 -1.3516 -0.9030  0.8223
49277SOL     OW54688   8.478   7.988   7.818 -0.2437 -0.1659  0.5933
49277SOL    HW154689   8.556   8.041   7.830  1.4666 -1.9685 -1.7747
49277SOL    HW254690   8.427   8.036   7.752  2.0248 -1.9347 -2.7289
49278SOL     OW54691   8.950  11.919   8.632  0.2616  0.1451 -0.4647
49278SOL    HW154692   8.915  11.948   8.716  2.0367  0.4393  0.2144
49278SOL    HW254693   8.880  11.936   8.570 -0.1835  2.2766  0.5442
49279SOL     OW54694   7.539   1.188   4.486  0.0727  0.0083 -0.6347
49279SOL    HW154695   7.620   1.143   4.463  0.8409  0.8111  0.3990
49279SOL    HW254696   7.567   1.276   4.511 -1.3462  0.9941 -2.2877
49280SOL     OW54697  12.520   3.250   9.988 -0.3011  0.0535 -0.1500
49280SOL    HW154698  12.439   3.287  10.022 -0.8972  0.2245 -1.7130
49280SOL    HW254699  12.523   3.162  10.026 -1.5221 -0.1760 -0.5337
49281SOL     OW54700   9.536  10.592   5.308 -0.3317  0.4335 -0.2404
49281SOL    HW154701   9.629  10.571   5.303  0.3605  2.7236  1.1863
49281SOL    HW254702   9.518  10.638   5.226  0.0908  0.8776 -0.0946
49282SOL     OW54703   6.853   1.699  10.569  0.3196  0.4389  0.4934
49282SOL    HW154704   6.827   1.701  10.477 -0.8602  1.4761  0.8191
49282SOL    HW254705   6.802   1.628  10.607 -0.6832  1.2782  0.7442
49283SOL     OW54706   2.628   7.639   6.897 -0.2927  0.1526 -0.6075
49283SOL    HW154707   2.661   7.700   6.962  0.8645 -0.0900 -0.9469
49283SOL    HW254708   2.638   7.553   6.938 -0.6633  0.0811 -0.6573
49284SOL     OW54709   8.083   1.673   4.354 -0.3455 -0.2149 -0.7950
49284SOL    HW154710   7.997   1.714   4.360 -0.8970 -1.3838 -0.3553
49284SOL    HW254711   8.144   1.746   4.347 -1.2848  0.6634 -0.1189
49285SOL     OW54712   2.613   7.008   7.957  0.1208  0.7687 -0.7535
49285SOL    HW154713   2.574   7.087   7.995 -0.3193  0.5670 -0.7764
49285SOL    HW254714   2.676   7.040   7.894  0.9713  1.1117  0.2520
49286SOL     OW54715   0.177   2.322   7.053 -0.0880  0.6018 -0.0917
49286SOL    HW154716   0.141   2.296   7.138  0.9134 -0.4604  0.0425
49286SOL    HW254717   0.246   2.258   7.036  0.3275  1.3324 -1.2987
49287SOL     OW54718   0.245   2.515   3.765 -0.1733 -0.0216  0.0599
49287SOL    HW154719   0.242   2.453   3.692 -1.3334  0.4825 -0.3391
49287SOL    HW254720   0.311   2.479   3.824 -0.3355 -1.2757 -0.4913
49288SOL     OW54721   8.405   7.686   9.953  0.0214 -0.1507  0.7456
49288SOL    HW154722   8.455   7.650   9.879 -1.9864 -1.3863 -0.0817
49288SOL    HW254723   8.464   7.751   9.992  2.5105 -1.9550  0.2285
49289SOL     OW54724   0.853   6.598  11.499  0.3586  0.2211 -0.4935
49289SOL    HW154725   0.854   6.645  11.582  0.2601 -0.1604 -0.2754
49289SOL    HW254726   0.808   6.516  11.518  0.9245 -0.1598 -0.7635
49290SOL     OW54727   6.682   4.186   4.232 -0.0911  0.8164  0.1753
49290SOL    HW154728   6.735   4.265   4.239  2.2158 -0.7024  0.8797
49290SOL    HW254729   6.682   4.165   4.138  1.5190  0.2599  0.2755
49291SOL     OW54730  10.697   1.453   0.963  0.0610 -0.1417  0.6175
49291SOL    HW154731  10.608   1.484   0.950 -0.2350 -1.5908 -1.4887
49291SOL    HW254732  10.718   1.474   1.054 -1.2002  3.1524  0.2882
49292SOL     OW54733   8.519   9.386   5.077 -0.4320 -0.0909 -1.4301
49292SOL    HW154734   8.501   9.451   5.145  0.4770 -1.5618  0.3015
49292SOL    HW254735   8.532   9.437   4.997  0.0283  1.8260 -0.1850
49293SOL     OW54736   0.795   7.540   0.484  0.3069 -0.6622  1.0150
49293SOL    HW154737   0.717   7.594   0.471 -0.0867 -1.3604  0.4120
49293SOL    HW254738   0.772   7.480   0.554 -0.0162 -1.4323  0.2667
49294SOL     OW54739  11.589   7.675   3.101 -0.0661 -0.0134  0.3159
49294SOL    HW154740  11.517   7.618   3.127 -0.6387  0.0654 -1.0250
49294SOL    HW254741  11.562   7.711   3.016  1.0249  0.9474  0.3485
49295SOL     OW54742   8.020   6.967  10.564  0.3975  0.1165 -0.3231
49295SOL    HW154743   7.983   6.893  10.612 -1.5220 -0.1836 -2.1214
49295SOL    HW254744   8.099   6.932  10.522  0.4522 -0.4094  0.2094
49296SOL     OW54745   4.590   9.334   3.242  0.2574  0.3351 -0.5580
49296SOL    HW154746   4.524   9.342   3.311  0.0530  1.4940 -0.8713
49296SOL    HW254747   4.672   9.360   3.284  0.3408 -0.1290 -0.4336
49297SOL     OW54748   1.303   3.657  11.499 -0.8311  0.0010  0.9986
49297SOL    HW154749   1.254   3.670  11.418  0.2586 -1.1263  0.1219
49297SOL    HW254750   1.377   3.601  11.474 -0.7879 -0.8673  2.8848
49298SOL     OW54751  12.356   1.681  11.311 -0.6927 -0.0440 -0.2111
49298SOL    HW154752  12.273   1.663  11.267 -1.4572 -1.2981  1.6320
49298SOL    HW254753  12.418   1.698  11.239 -2.2405 -0.3279 -1.6681
49299SOL     OW54754   2.627   9.284   4.681  0.1535 -0.2949  0.4196
49299SOL    HW154755   2.688   9.358   4.686 -0.2369  0.3752 -2.6438
49299SOL    HW254756   2.543   9.325   4.660 -0.1152 -1.5658 -1.1188
49300SOL     OW54757   9.397   1.579  11.591 -0.1445  0.5518  0.9909
49300SOL    HW154758   9.344   1.507  11.557 -1.5070  1.7891  0.4321
49300SOL    HW254759   9.484   1.563  11.554 -0.9754  0.4389 -1.0268
49301SOL     OW54760  11.712   4.063   1.281  0.0367 -0.2918  0.2775
49301SOL    HW154761  11.631   4.108   1.256 -0.1119  0.5036  2.0429
49301SOL    HW254762  11.730   4.004   1.208 -3.6367 -2.5490  0.9515
49302SOL     OW54763   4.056   0.002  10.280 -0.1106  0.4346  0.0761
49302SOL    HW154764   4.104   0.036  10.205 -0.3850  1.4626  0.3518
49302SOL    HW254765   4.004  -0.070  10.245 -1.4009  1.8602 -1.0693
49303SOL     OW54766  11.961   4.190   1.510 -0.1084 -0.0113  0.2725
49303SOL    HW154767  12.029   4.136   1.552 -1.3675 -0.7219  1.4852
49303SOL    HW254768  11.879   4.154   1.543 -1.0201  2.5484  0.9692
49304SOL     OW54769   9.917   9.452  12.164  0.1511 -0.3102 -0.3651
49304SOL    HW154770   9.878   9.406  12.089  1.8192  0.1398 -1.5599
49304SOL    HW254771   9.920   9.386  12.233 -1.3617 -0.7567 -0.6850
49305SOL     OW54772   1.111   2.040  11.121  0.1569 -0.0318 -0.4777
49305SOL    HW154773   1.183   1.981  11.143 -0.1968 -0.6321 -0.9027
49305SOL    HW254774   1.131   2.070  11.032  0.2270  0.3264 -0.3427
49306SOL     OW54775   9.181   7.751   5.382  0.0976  0.0129  0.3167
49306SOL    HW154776   9.274   7.770   5.371  0.4832 -0.6179  2.0818
49306SOL    HW254777   9.166   7.672   5.330  0.8912 -0.6598  1.0775
49307SOL     OW54778   1.097  12.138   3.670  0.4429  0.4431 -0.2112
49307SOL    HW154779   1.117  12.205   3.605 -1.5648  0.0688 -1.2897
49307SOL    HW254780   1.031  12.178   3.726  1.5067  0.4384  1.0913
49308SOL     OW54781   7.126   1.860  11.369 -0.0467  0.2773 -0.1493
49308SOL    HW154782   7.082   1.915  11.434 -1.9497 -1.1938 -0.1105
49308SOL    HW254783   7.195   1.816  11.418 -0.2582  0.6012  0.4472
49309SOL     OW54784   8.533   9.988   1.133 -0.0103 -0.1957 -0.0180
49309SOL    HW154785   8.455  10.029   1.171  0.5466 -0.1013  1.0550
49309SOL    HW254786   8.499   9.911   1.087 -0.6057 -0.9537  1.6290
49310SOL     OW54787  11.305   2.950   5.148 -0.4810 -0.2123  0.2448
49310SOL    HW154788  11.319   3.011   5.221  2.2604  2.5137 -2.2870
49310SOL    HW254789  11.214   2.963   5.124 -0.1511  2.6005  0.1679
49311SOL     OW54790   3.706   5.179   2.057 -0.3726 -0.0677  0.3344
49311SOL    HW154791   3.634   5.135   2.102 -0.2663 -0.3877  0.1963
49311SOL    HW254792   3.670   5.202   1.971 -0.6245  0.6868  0.6388
49312SOL     OW54793   6.084  11.383   4.926 -0.2657 -0.1053 -0.1257
49312SOL    HW154794   6.089  11.444   4.852  0.0119  0.3306  0.2452
49312SOL    HW254795   5.994  11.389   4.957  0.1068  1.1916  0.7917
49313SOL     OW54796   1.691   3.342   9.692 -0.1277 -0.2023 -0.3612
49313SOL    HW154797   1.692   3.292   9.610 -2.4626 -1.2530  0.1805
49313SOL    HW254798   1.690   3.434   9.663  2.1713 -0.4329 -1.3994
49314SOL     OW54799   4.877   6.525   4.449  0.7896  0.1315  0.2665
49314SOL    HW154800   4.963   6.491   4.424 -0.4247 -1.3309 -2.3438
49314SOL    HW254801   4.825   6.447   4.469 -0.1397  0.9345  1.1019
49315SOL     OW54802   6.789  10.999   6.207 -0.3836 -0.7218  0.1449
49315SOL    HW154803   6.716  10.992   6.146 -0.0807 -2.4133 -0.0835
49315SOL    HW254804   6.749  11.004   6.294 -0.8858  3.3099 -0.1302
49316SOL     OW54805  10.652   2.247  11.692  0.7289  0.0816 -0.4325
49316SOL    HW154806  10.617   2.195  11.763  3.8375 -0.0403  1.1580
49316SOL    HW254807  10.710   2.188  11.644  1.0210  0.9641 -1.2143
49317SOL     OW54808   7.056   2.964   5.764 -0.5545 -0.3303 -0.0095
49317SOL    HW154809   7.012   3.037   5.721  0.3926 -0.4542 -1.2426
49317SOL    HW254810   7.074   2.995   5.852 -1.4892  0.3719 -0.0548
49318SOL     OW54811  12.182   4.738   3.183  0.2445 -0.2339  0.2671
49318SOL    HW154812  12.178   4.648   3.217  1.1585 -0.7827 -0.9736
49318SOL    HW254813  12.201   4.727   3.090 -0.5700  1.2456 -0.1020
49319SOL     OW54814  10.448   3.655   2.813 -0.1404 -0.2898  0.5062
49319SOL    HW154815  10.373   3.650   2.874 -1.3505 -0.7517 -0.9514
49319SOL    HW254816  10.505   3.582   2.840  0.1707  0.4825  2.0715
49320SOL     OW54817   6.500   9.477   3.273 -0.1532  0.0696  0.8492
49320SOL    HW154818   6.528   9.493   3.182  1.4750  2.2315  1.6234
49320SOL    HW254819   6.409   9.507   3.276 -0.2680 -0.1481 -0.0899
49321SOL     OW54820   2.027   5.893   9.105 -0.4252 -0.4739 -0.5855
49321SOL    HW154821   2.001   5.985   9.101  2.8132  0.6871  1.3563
49321SOL    HW254822   1.983   5.860   9.183 -0.1744 -0.0019 -0.2347
49322SOL     OW54823   5.815   3.042   5.135 -0.1089 -0.8868  0.1702
49322SOL    HW154824   5.770   3.115   5.177 -0.9795 -0.4987 -1.3413
49322SOL    HW254825   5.845   2.987   5.207  0.8680  1.1168  1.3646
49323SOL     OW54826   8.598   3.845  11.053 -0.0774 -0.5703 -0.1817
49323SOL    HW154827   8.562   3.784  11.118 -1.9355 -0.9223 -1.4431
49323SOL    HW254828   8.557   3.929  11.075  0.9432 -0.2020  0.3576
49324SOL     OW54829   7.579   8.815   5.547 -0.0133  0.3860 -0.3988
49324SOL    HW154830   7.618   8.901   5.534 -1.2078  1.0353  0.1660
49324SOL    HW254831   7.569   8.779   5.459  0.6590  0.7457 -0.6289
49325SOL     OW54832   2.882  10.132   4.863 -0.2767 -0.0952  0.3359
49325SOL    HW154833   2.874  10.220   4.902  1.1198 -0.2334  0.9759
49325SOL    HW254834   2.861  10.145   4.771 -2.9808  0.3716  0.9108
49326SOL     OW54835  11.309   8.612   0.471  0.0224  0.0814 -0.2750
49326SOL    HW154836  11.274   8.657   0.395 -0.6838 -0.4090 -0.2486
49326SOL    HW254837  11.375   8.672   0.506  1.1977 -0.1806 -1.9350
49327SOL     OW54838  10.872  11.186   9.290 -0.0773  0.5783  0.0107
49327SOL    HW154839  10.828  11.102   9.303 -0.3796  0.6791 -0.3755
49327SOL    HW254840  10.870  11.200   9.196  0.3305  0.8279  0.0374
49328SOL     OW54841   7.526   7.434   9.837 -0.0393  0.0940  0.6724
49328SOL    HW154842   7.593   7.456   9.902  0.5395 -0.8160  0.4093
49328SOL    HW254843   7.506   7.342   9.855 -1.0367  0.2868  0.5759
49329SOL     OW54844   5.394   7.780   3.390  0.2056  0.1103 -0.5908
49329SOL    HW154845   5.470   7.726   3.367  0.6782  1.3035 -1.9672
49329SOL    HW254846   5.357   7.806   3.306 -1.1058  0.4241  0.0688
49330SOL     OW54847   8.234   5.893  11.196  0.4854 -0.2191 -0.1766
49330SOL    HW154848   8.150   5.883  11.241  0.3409  1.9083  0.0939
49330SOL    HW254849   8.245   5.987  11.184  1.8036 -0.5494 -2.2067
49331SOL     OW54850   0.949   1.399   2.182 -0.1507  0.4269 -0.2150
49331SOL    HW154851   1.001   1.471   2.146  2.0629 -1.1964 -0.4573
49331SOL    HW254852   1.000   1.365   2.255 -1.2064 -0.8169 -0.0033
49332SOL     OW54853   9.527   7.142   2.487 -0.6134  0.7305  0.3287
49332SOL    HW154854   9.555   7.093   2.411 -1.1538  1.1079 -0.1204
49332SOL    HW254855   9.560   7.231   2.472  0.2830  0.5383  1.0914
49333SOL     OW54856   7.948   4.856   6.854 -0.1353  0.4779  0.0976
49333SOL    HW154857   7.894   4.920   6.808  0.4727  2.2734  1.7733
49333SOL    HW254858   8.022   4.841   6.795  0.3502  2.3171  0.1832
49334SOL     OW54859   4.079   4.918   8.367  0.3317  0.0475  0.2108
49334SOL    HW154860   3.985   4.935   8.374  0.2715  0.4856 -1.2377
49334SOL    HW254861   4.119   4.981   8.428 -0.2722  0.4936  0.1574
49335SOL     OW54862   0.869   1.549   7.050 -0.7622  0.6368 -0.3371
49335SOL    HW154863   0.791   1.494   7.051 -1.5197  1.5371  3.0273
49335SOL    HW254864   0.837   1.637   7.031 -0.1402  0.6421 -1.4791
49336SOL     OW54865   6.834   7.900   7.197 -0.1621 -0.2714 -0.4644
49336SOL    HW154866   6.874   7.896   7.110  1.5694 -1.4679  0.3273
49336SOL    HW254867   6.905   7.930   7.254 -0.9336 -0.6509  0.7185
49337SOL     OW54868   3.799   2.977   8.626  0.1598 -0.3793 -0.0454
49337SOL    HW154869   3.717   2.928   8.619  0.6713 -1.6197  1.6946
49337SOL    HW254870   3.853   2.944   8.555 -0.9316  0.7279 -1.4511
49338SOL     OW54871   4.575   2.184   6.330 -0.2584 -0.0517  0.4456
49338SOL    HW154872   4.644   2.207   6.393  0.8789  0.8550 -1.0648
49338SOL    HW254873   4.615   2.119   6.273 -1.2221 -0.7361  0.5242
49339SOL     OW54874   5.252   6.064   4.896 -0.3662  0.1288  0.0574
49339SOL    HW154875   5.216   6.123   4.830  1.6849 -0.9980 -2.2917
49339SOL    HW254876   5.184   5.998   4.909 -2.0367  2.0606  1.5164
49340SOL     OW54877   6.128   8.622   9.047 -0.6413 -0.1427 -0.2602
49340SOL    HW154878   6.151   8.543   8.998 -1.2431  0.2693 -1.2402
49340SOL    HW254879   6.038   8.642   9.020 -0.4897  0.8989 -0.0547
49341SOL     OW54880  11.846   7.206   1.058  0.6233  0.3358  0.0045
49341SOL    HW154881  11.847   7.160   1.142 -0.5208  1.0681  0.4390
49341SOL    HW254882  11.936   7.200   1.027  0.8981 -0.6105  0.9113
49342SOL     OW54883   3.270   4.156   1.799 -0.1143  0.1155 -0.2004
49342SOL    HW154884   3.204   4.213   1.839 -0.5650  0.6698 -1.6708
49342SOL    HW254885   3.353   4.187   1.836 -0.3949  1.4511 -0.6028
49343SOL     OW54886   2.855  11.432   7.510 -0.0476 -0.5034 -0.2357
49343SOL    HW154887   2.846  11.367   7.440  0.7096 -0.7414 -0.1313
49343SOL    HW254888   2.806  11.508   7.479 -0.0804 -0.7610 -0.8302
49344SOL     OW54889  12.498   5.707   0.522 -0.1536 -0.0428 -0.6377
49344SOL    HW154890  12.589   5.681   0.535 -0.2805 -0.6864 -0.9386
49344SOL    HW254891  12.501   5.802   0.511  0.6483 -0.1906 -1.9465
49345SOL     OW54892   6.967   2.238   0.121  0.6367  0.3760 -0.4193
49345SOL    HW154893   7.057   2.271   0.128  1.2861 -0.6388 -2.9294
49345SOL    HW254894   6.963   2.166   0.184  2.5147 -1.3210 -2.0897
49346SOL     OW54895   9.427   2.848  11.340 -0.2016  0.2735 -0.4354
49346SOL    HW154896   9.433   2.943  11.347 -0.6263  0.1903  2.6683
49346SOL    HW254897   9.509   2.821  11.299 -0.2670  1.9515 -1.7836
49347SOL     OW54898   3.214   8.950  12.285  0.3464 -0.6211  0.0487
49347SOL    HW154899   3.308   8.933  12.284  0.4594 -0.1996 -2.3135
49347SOL    HW254900   3.198   9.000  12.205 -1.8697 -0.5287  0.4907
49348SOL     OW54901   9.359   5.888   3.586  0.0673 -0.6990  0.4978
49348SOL    HW154902   9.361   5.823   3.656 -0.8140  1.7450  3.0097
49348SOL    HW254903   9.267   5.915   3.581 -0.1434 -1.6052 -2.5504
49349SOL     OW54904   4.948  11.884   3.917 -0.0149  0.0865  0.4535
49349SOL    HW154905   4.881  11.910   3.980 -0.0016 -1.3793  1.1230
49349SOL    HW254906   4.902  11.879   3.833 -0.2965  0.9520  0.5520
49350SOL     OW54907  10.574   3.147   6.643  0.3099  0.2074  0.3530
49350SOL    HW154908  10.575   3.214   6.575 -1.3360 -0.8414 -0.7719
49350SOL    HW254909  10.488   3.106   6.635  0.9323 -1.4470  1.6052
49351SOL     OW54910   3.744   6.581   2.157 -0.6167 -0.3448  0.1353
49351SOL    HW154911   3.701   6.646   2.103  0.6045 -0.2420 -0.7450
49351SOL    HW254912   3.811   6.629   2.206  0.6351 -0.9747 -0.8908
49352SOL     OW54913   3.637   2.653   9.827 -0.2307 -0.7764 -0.3808
49352SOL    HW154914   3.594   2.580   9.783 -0.4829  0.1594 -1.7579
49352SOL    HW254915   3.581   2.672   9.902 -0.2505 -1.8705 -0.1050
49353SOL     OW54916   6.784  12.198   2.789  0.4088 -0.2012 -0.0837
49353SOL    HW154917   6.694  12.231   2.786  0.6094  0.4437  0.6474
49353SOL    HW254918   6.774  12.104   2.802 -0.1647 -0.2097 -0.5286
49354SOL     OW54919   1.974  12.128   2.593  0.5956  0.5009 -0.2149
49354SOL    HW154920   1.951  12.211   2.636  0.8854 -0.1609  1.2895
49354SOL    HW254921   1.895  12.102   2.546  0.8394  2.1574 -1.6422
49355SOL     OW54922   3.662   6.973   8.919  0.7215 -0.0918 -0.0726
49355SOL    HW154923   3.758   6.970   8.923  0.7471  1.1010  2.1212
49355SOL    HW254924   3.635   6.987   9.010 -1.4134  2.4585 -0.9771
49356SOL     OW54925   9.573   7.567   8.774 -0.8555  0.3172  0.7105
49356SOL    HW154926   9.520   7.506   8.826 -1.1221  0.3027  0.4303
49356SOL    HW254927   9.517   7.645   8.766 -1.0280  0.1321  0.0278
49357SOL     OW54928  10.088   6.793  10.181 -0.1675  0.0349 -0.6379
49357SOL    HW154929  10.052   6.774  10.094 -0.5878  2.4191 -1.0589
49357SOL    HW254930  10.011   6.809  10.236  0.1100 -1.0809  0.1092
49358SOL     OW54931  12.137  11.270  12.543  0.4592 -0.2569 -0.3373
49358SOL    HW154932  12.098  11.354  12.517  2.3759  0.8069  0.0337
49358SOL    HW254933  12.072  11.205  12.517 -1.4084  1.3679 -0.0082
49359SOL     OW54934   8.524   9.565   9.374  0.4085 -0.0601 -0.2004
49359SOL    HW154935   8.580   9.487   9.370 -0.6129 -0.7826 -1.2679
49359SOL    HW254936   8.449   9.543   9.318 -0.0917  1.5516 -0.2106
49360SOL     OW54937   0.536   3.752   5.135 -0.2671 -0.3397  0.3166
49360SOL    HW154938   0.597   3.768   5.063  0.5612  1.1134  1.2786
49360SOL    HW254939   0.462   3.810   5.117  0.7442  1.4496  1.4827
49361SOL     OW54940   9.263   1.013   7.565 -0.2082  0.1162  0.4134
49361SOL    HW154941   9.294   1.020   7.655 -1.1891  1.5198  0.6762
49361SOL    HW254942   9.319   1.073   7.516 -1.2647  1.2434  0.5563
49362SOL     OW54943  10.458   5.960   1.369 -0.0804 -0.0060  0.3053
49362SOL    HW154944  10.540   5.911   1.380  0.4345  0.9359  0.8002
49362SOL    HW254945  10.393   5.908   1.416 -0.3275 -2.0210 -2.0365
49363SOL     OW54946   7.789   1.857   4.314 -0.3934  0.1658 -0.1436
49363SOL    HW154947   7.717   1.919   4.307 -0.4308  0.0756 -0.5594
49363SOL    HW254948   7.865   1.904   4.279 -0.2693  0.2239  0.1959
49364SOL     OW54949   9.775   2.951   4.068  0.3960 -0.3908 -0.1020
49364SOL    HW154950   9.709   2.908   4.014 -1.8766  1.6599  0.8369
49364SOL    HW254951   9.832   2.880   4.099 -1.8563 -2.3956 -0.3020
49365SOL     OW54952   4.763   3.987   5.106  0.7364 -0.2142  0.5727
49365SOL    HW154953   4.735   3.973   5.015 -0.7734 -0.7866  1.0890
49365SOL    HW254954   4.699   3.939   5.158  0.4748  1.6253  2.0515
49366SOL     OW54955   8.925   0.624   7.535 -0.5891 -0.2140 -0.5128
49366SOL    HW154956   8.972   0.558   7.485  2.2086  2.3245 -1.5756
49366SOL    HW254957   8.844   0.638   7.486 -1.2350 -2.7482 -0.2623
49367SOL     OW54958  10.668   7.615   1.714  0.2887 -0.6828 -0.4104
49367SOL    HW154959  10.642   7.619   1.622  2.0024  0.0508 -0.9035
49367SOL    HW254960  10.703   7.526   1.725  0.7618 -0.5334 -0.6773
49368SOL     OW54961   6.582   0.024   9.726 -0.0175 -0.2049 -0.1802
49368SOL    HW154962   6.654  -0.014   9.776 -0.8536 -0.7178  0.6534
49368SOL    HW254963   6.595  -0.009   9.637 -0.4576 -2.1158  0.4237
49369SOL     OW54964   8.256   1.086   0.369 -0.1303 -0.2831  0.3964
49369SOL    HW154965   8.211   1.087   0.454  0.9521 -0.5106  0.9802
49369SOL    HW254966   8.349   1.082   0.391  0.2073  0.6197 -0.7923
49370SOL     OW54967   2.697   2.781  10.372 -0.5973  0.4682  0.7037
49370SOL    HW154968   2.657   2.822  10.295  1.0256 -0.5668 -0.7672
49370SOL    HW254969   2.753   2.849  10.409 -2.0816  1.2660  1.5628
49371SOL     OW54970  10.323   7.091   4.800  0.1183  0.2805 -0.9308
49371SOL    HW154971  10.408   7.134   4.807 -0.7611  1.8492  1.0564
49371SOL    HW254972  10.309   7.051   4.886 -2.1824  2.1938 -0.3145
49372SOL     OW54973  10.797   2.068  12.423 -0.1208  0.2587 -0.0977
49372SOL    HW154974  10.739   2.111  12.360  1.4448  1.3155 -0.8738
49372SOL    HW254975  10.854   2.013  12.369  0.4139  0.2044  0.5104
49373SOL     OW54976   3.450   4.879   5.075 -0.3075 -0.4794 -0.6829
49373SOL    HW154977   3.407   4.838   4.999  2.1958 -1.7714 -1.5026
49373SOL    HW254978   3.534   4.909   5.041 -0.1349  1.1984  1.0532
49374SOL     OW54979  11.855   2.882  11.015  0.0914  0.3523  0.2267
49374SOL    HW154980  11.942   2.897  11.052  0.6021 -0.2129 -0.7023
49374SOL    HW254981  11.862   2.912  10.924  1.0114 -4.4641 -1.6073
49375SOL     OW54982   4.737   9.877   9.394 -0.7492  0.4492  0.4754
49375SOL    HW154983   4.784   9.914   9.469 -1.7350  0.0414  1.3034
49375SOL    HW254984   4.806   9.839   9.339 -0.1598 -0.9584  2.1194
49376SOL     OW54985   3.109   2.743  12.287  0.0600  0.1767  0.2587
49376SOL    HW154986   3.185   2.699  12.248 -0.1731  0.5144 -0.6073
49376SOL    HW254987   3.082   2.807  12.221 -1.9480 -1.0069 -0.1494
49377SOL     OW54988   8.172   1.962   5.682  0.0236  0.2791 -0.0102
49377SOL    HW154989   8.126   2.015   5.747  0.7293  0.6101  0.2295
49377SOL    HW254990   8.122   1.881   5.677 -0.5757  0.6262  0.2553
49378SOL     OW54991   5.756   6.169  11.568 -0.0146  0.0119 -0.2713
49378SOL    HW154992   5.758   6.078  11.599  1.2061 -0.0957 -0.5906
49378SOL    HW254993   5.838   6.179  11.519  0.1466  1.4556  0.2447
49379SOL     OW54994   1.655   7.421   2.178  0.3467 -0.1291  0.2677
49379SOL    HW154995   1.652   7.494   2.116  1.4494 -0.6384 -0.4276
49379SOL    HW254996   1.564   7.397   2.192 -0.0076  1.1046  0.1802
49380SOL     OW54997   7.268   0.061  12.266 -0.3635 -0.1271 -0.3000
49380SOL    HW154998   7.332   0.132  12.260  1.0297 -1.3089  0.2626
49380SOL    HW254999   7.287   0.004  12.193 -0.4427 -0.7596  0.1655
49381SOL     OW55000   9.056  10.259   7.418  0.1983 -0.1979 -0.3528
49381SOL    HW155001   9.026  10.171   7.395  0.0641 -0.1450 -0.3822
49381SOL    HW255002   9.150  10.259   7.397  0.0783 -0.1514 -0.9120
49382SOL     OW55003   2.326   3.343   9.776  0.0749  0.4613  0.1669
49382SOL    HW155004   2.322   3.275   9.843  0.1740 -1.4887 -1.7313
49382SOL    HW255005   2.419   3.365   9.770  0.3425 -0.8200 -0.6957
49383SOL     OW55006   4.398   7.395   9.890 -0.5113  0.4265 -0.3612
49383SOL    HW155007   4.314   7.357   9.915  0.5637 -3.3283 -1.8213
49383SOL    HW255008   4.403   7.382   9.796  1.6101  0.7954 -0.3432
49384SOL     OW55009   2.904   9.625   8.760  0.3606  0.4583  0.0552
49384SOL    HW155010   2.854   9.702   8.736  1.5533  0.8765 -1.2702
49384SOL    HW255011   2.845   9.551   8.742 -1.1276  1.0302  2.2377
49385SOL     OW55012   5.084   6.948   0.123 -0.8866 -0.1373 -0.6738
49385SOL    HW155013   5.051   6.915   0.206 -1.1777  0.7671 -0.4146
49385SOL    HW255014   5.178   6.958   0.137 -0.5438 -2.1585 -1.2222
49386SOL     OW55015   3.812   1.504   4.491  0.0179  0.1863 -0.2318
49386SOL    HW155016   3.903   1.475   4.492  0.6569  1.9189  2.4776
49386SOL    HW255017   3.795   1.529   4.400  2.1618 -0.3481 -0.8279
49387SOL     OW55018  12.099  11.239   3.018  0.2925  0.3795  0.3138
49387SOL    HW155019  12.190  11.220   3.037  0.7499  1.3580 -0.7595
49387SOL    HW255020  12.070  11.166   2.963  1.1165  1.1441 -1.2040
49388SOL     OW55021   8.014  10.407   1.006 -0.3393 -0.6942 -0.0588
49388SOL    HW155022   7.962  10.415   0.926  1.1415 -1.2685 -1.1302
49388SOL    HW255023   7.951  10.388   1.075 -1.7528  0.6360 -0.9294
49389SOL     OW55024   0.685   5.588   2.564 -0.2523  0.6452 -0.0549
49389SOL    HW155025   0.606   5.588   2.617 -0.3664 -1.6661 -0.1015
49389SOL    HW255026   0.753   5.622   2.622 -0.4951 -1.2308  1.4312
49390SOL     OW55027   4.328   9.473   6.535  0.2052  0.0477 -0.1248
49390SOL    HW155028   4.258   9.507   6.592  0.0379  0.8646 -0.7965
49390SOL    HW255029   4.374   9.409   6.590  0.4738  1.2948  1.1593
49391SOL     OW55030   3.838   3.706  10.171 -0.0292 -0.2326  0.0968
49391SOL    HW155031   3.793   3.665  10.245 -0.0472  0.2943  0.3793
49391SOL    HW255032   3.918   3.654  10.161 -1.0222 -1.6395 -0.8836
49392SOL     OW55033   4.021   1.805   4.021 -0.3063  0.1118 -1.2154
49392SOL    HW155034   4.027   1.713   4.046  1.7499  0.1769 -1.2901
49392SOL    HW255035   4.054   1.853   4.097 -1.0847  0.7802 -1.2855
49393SOL     OW55036   1.904   6.275   5.533 -0.1761 -0.0075 -0.0799
49393SOL    HW155037   1.904   6.355   5.481  0.5583  0.1839  0.1962
49393SOL    HW255038   1.881   6.205   5.472 -1.3790  0.4854 -0.2038
49394SOL     OW55039   8.508   1.006  12.256 -0.2258  0.3350 -0.0268
49394SOL    HW155040   8.468   0.966  12.333  1.6624 -1.0362  0.3183
49394SOL    HW255041   8.517   1.099  12.279 -0.0478  0.0193  1.2739
49395SOL     OW55042  10.939   6.308  10.850  0.3008  0.4123 -0.0010
49395SOL    HW155043  10.975   6.240  10.907 -0.4503 -0.8917 -1.0081
49395SOL    HW255044  11.015   6.342  10.803  0.4503 -1.6155 -1.3908
49396SOL     OW55045   7.711   2.269  10.774 -0.0327 -0.8021 -0.3619
49396SOL    HW155046   7.694   2.294  10.683  2.3158 -1.8100 -1.1444
49396SOL    HW255047   7.741   2.350  10.816 -1.9243 -0.1319 -0.1885
49397SOL     OW55048   5.964   1.587  10.320 -0.1363  0.0622  0.0048
49397SOL    HW155049   6.057   1.587  10.342  0.3031 -0.1403 -1.6859
49397SOL    HW255050   5.919   1.601  10.404  1.4523  1.6656  0.6578
49398SOL     OW55051   7.482   2.060   6.521  0.2674  0.4360  0.1182
49398SOL    HW155052   7.461   2.150   6.544  0.2590  0.9481 -1.6778
49398SOL    HW255053   7.511   2.020   6.602 -2.5187  1.1836  1.5969
49399SOL     OW55054  11.121   8.685   1.568 -0.0871  0.4925 -0.3078
49399SOL    HW155055  11.061   8.760   1.575 -1.3900 -0.4612 -0.8562
49399SOL    HW255056  11.064   8.610   1.554  1.2776 -0.3902 -1.4364
49400SOL     OW55057   6.644  11.426  11.146  0.6798 -0.7772  0.1331
49400SOL    HW155058   6.694  11.432  11.064 -1.2773 -1.3361 -1.1985
49400SOL    HW255059   6.707  11.397  11.211  3.1084  2.7979 -0.3470
49401SOL     OW55060   4.488   6.462   2.730 -0.2693 -0.2125 -0.5520
49401SOL    HW155061   4.575   6.466   2.769  0.3250 -0.9854 -1.7341
49401SOL    HW255062   4.436   6.523   2.781  1.2278  1.0681 -0.4922
49402SOL     OW55063  10.901   3.213   6.247  0.5349  0.0857 -0.1334
49402SOL    HW155064  10.822   3.186   6.199  1.2765 -0.8839 -0.8602
49402SOL    HW255065  10.868   3.262   6.322 -0.8518 -1.6644  0.4651
49403SOL     OW55066  11.285   2.950   7.151 -0.0503  0.3875  0.1304
49403SOL    HW155067  11.334   3.012   7.206  1.1534  0.8926 -1.4310
49403SOL    HW255068  11.333   2.868   7.160  0.5101  0.6250 -0.6123
49404SOL     OW55069   8.709   8.496   4.282  0.1136  0.4192  0.3008
49404SOL    HW155070   8.669   8.474   4.197 -1.7043  1.1748  0.9036
49404SOL    HW255071   8.636   8.494   4.344  1.5564 -1.0001  2.0538
49405SOL     OW55072   5.499   0.058   2.597  0.2253  0.0147 -0.4076
49405SOL    HW155073   5.425   0.107   2.632 -0.2775 -1.9900  1.5273
49405SOL    HW255074   5.502  -0.023   2.648  1.4618 -1.6926 -2.9416
49406SOL     OW55075   6.361  11.781   1.136  0.3692  0.2598 -0.0361
49406SOL    HW155076   6.434  11.789   1.198  1.0517 -2.9374 -0.2883
49406SOL    HW255077   6.400  11.803   1.051  0.4266  0.8359  0.1348
49407SOL     OW55078   4.096  10.485   8.420 -0.0243  0.1288 -0.5236
49407SOL    HW155079   4.070  10.437   8.341  2.3724 -2.3533  0.0797
49407SOL    HW255080   4.020  10.478   8.478 -0.6618 -0.7232 -1.4228
49408SOL     OW55081   4.918   4.362   4.751 -0.2807  0.0985  0.4043
49408SOL    HW155082   4.830   4.401   4.757 -0.0316  1.0231 -1.4033
49408SOL    HW255083   4.926   4.310   4.831 -3.1761 -1.4818 -0.1953
49409SOL     OW55084   2.907   0.162   0.362  0.0714  0.1836 -0.0185
49409SOL    HW155085   2.911   0.235   0.424  0.5405 -0.1257  0.3231
49409SOL    HW255086   2.837   0.186   0.301  1.2224  1.6392 -0.8337
49410SOL     OW55087   6.706  11.135   3.107 -0.4195 -0.2404  0.8700
49410SOL    HW155088   6.690  11.057   3.160 -2.0146 -1.8940 -1.8054
49410SOL    HW255089   6.655  11.203   3.149 -1.0962 -1.3119  1.8400
49411SOL     OW55090   7.410   9.245  10.536  0.2462 -0.8013 -0.2709
49411SOL    HW155091   7.422   9.170  10.594  1.6581 -0.4522 -0.0664
49411SOL    HW255092   7.398   9.319  10.595  0.2900 -0.6549 -0.4453
49412SOL     OW55093  10.991   0.787  11.483 -0.4164 -0.6067 -0.4421
49412SOL    HW155094  10.923   0.827  11.428  0.5108  2.4871  0.4662
49412SOL    HW255095  11.073   0.814  11.442  0.2695 -0.5859  0.9042
49413SOL     OW55096   4.186   7.449   8.719  0.0834  0.7893  0.1959
49413SOL    HW155097   4.144   7.364   8.724  0.2678  0.7128  0.4514
49413SOL    HW255098   4.245   7.443   8.644  0.2753  0.6133  0.3624
49414SOL     OW55099   8.144   3.391   6.875  0.5683 -0.1857 -0.2715
49414SOL    HW155100   8.119   3.337   6.800 -1.4345  0.6306 -0.2802
49414SOL    HW255101   8.181   3.330   6.938 -0.8637 -1.4595 -0.6092
49415SOL     OW55102   7.163   8.426  10.799 -0.2702 -0.6727  0.2380
49415SOL    HW155103   7.123   8.412  10.713 -0.2906 -0.8014  0.2685
49415SOL    HW255104   7.233   8.489  10.783 -0.7752 -0.0881  0.2598
49416SOL     OW55105   5.017   2.102   6.214  0.0317  0.2245 -0.8486
49416SOL    HW155106   4.990   2.010   6.216  0.5861  0.0499 -1.3433
49416SOL    HW255107   5.012   2.130   6.306  3.7568 -1.4389  0.0532
49417SOL     OW55108   3.008   1.827   5.045  0.0106  0.0168 -0.0185
49417SOL    HW155109   3.085   1.849   5.098 -0.3324  0.0925  0.4643
49417SOL    HW255110   2.952   1.904   5.052 -0.5172 -0.4000  0.4034
49418SOL     OW55111   0.275   3.495   7.524 -0.3134  0.1469  0.0649
49418SOL    HW155112   0.307   3.409   7.499 -1.8095 -0.2639 -0.5858
49418SOL    HW255113   0.348   3.554   7.506  0.2496 -0.7940 -0.8569
49419SOL     OW55114   5.375   1.699   6.332 -0.0471 -0.2756  0.1044
49419SOL    HW155115   5.295   1.675   6.285  0.2282 -0.3956 -0.3060
49419SOL    HW255116   5.436   1.627   6.313  0.5247  0.3582 -0.4975
49420SOL     OW55117   2.233   0.057   8.006 -0.7035 -0.2145 -0.4416
49420SOL    HW155118   2.253   0.073   7.913 -2.0973  0.4033 -0.6609
49420SOL    HW255119   2.170  -0.014   8.005 -1.0519  0.0842  0.0042
49421SOL     OW55120   0.193  10.963  11.306  0.1077  0.0738  0.1536
49421SOL    HW155121   0.233  10.879  11.283 -0.6990 -0.6721  1.3436
49421SOL    HW255122   0.235  10.987  11.389 -0.0145  0.5940  0.0660
49422SOL     OW55123   2.420   0.675   9.867  0.5209  0.4299  0.4305
49422SOL    HW155124   2.472   0.756   9.870  0.7299  0.2633  2.2238
49422SOL    HW255125   2.415   0.646   9.958 -1.4575 -0.3717  0.1164
49423SOL     OW55126  12.493   2.125  11.972 -0.0574  0.6136  0.4094
49423SOL    HW155127  12.529   2.180  11.902 -1.1077 -0.1097 -0.7108
49423SOL    HW255128  12.402   2.152  11.980 -1.0755 -2.0024 -1.2712
49424SOL     OW55129   7.733   5.220   8.071  0.1955  0.1195  0.3303
49424SOL    HW155130   7.640   5.241   8.066 -0.1065 -1.3524 -1.8899
49424SOL    HW255131   7.753   5.220   8.164 -2.2824 -0.4941  0.9364
49425SOL     OW55132   5.107   3.065   7.022  0.4525  0.4054 -0.0587
49425SOL    HW155133   5.160   3.109   7.088 -0.2754  0.6288  0.3831
49425SOL    HW255134   5.171   3.025   6.963  1.1527  2.2047 -0.5917
49426SOL     OW55135   6.946   5.383  11.022  0.2022  0.2687  0.1970
49426SOL    HW155136   6.910   5.443  10.956  1.4713  0.4877 -0.3104
49426SOL    HW255137   6.918   5.420  11.106 -2.0498 -0.3920 -0.1797
49427SOL     OW55138   1.303   6.350   1.190 -0.0365 -0.4158  0.3309
49427SOL    HW155139   1.244   6.286   1.230 -0.0651  0.1172  1.1669
49427SOL    HW255140   1.313   6.320   1.099 -1.9957 -0.2596  0.0172
49428SOL     OW55141   0.595   8.799   9.331 -0.1510  0.2063  0.5341
49428SOL    HW155142   0.569   8.891   9.328 -0.1568  0.2041  0.4964
49428SOL    HW255143   0.513   8.751   9.320 -0.1299  0.1971  0.4095
49429SOL     OW55144   5.962   9.922   3.194 -0.4062 -0.1465  0.4478
49429SOL    HW155145   5.971   9.887   3.105 -3.7573 -0.8190  0.2445
49429SOL    HW255146   5.935  10.013   3.180 -1.6476 -0.4559  0.6953
49430SOL     OW55147   7.800   7.097  10.493  0.2559  0.2879  0.4591
49430SOL    HW155148   7.874   7.042  10.517 -0.4288 -3.0195 -3.7983
49430SOL    HW255149   7.722   7.044  10.511 -0.5285  0.3539 -2.2263
49431SOL     OW55150   4.875   9.897  10.343  0.2097 -0.4808  0.2872
49431SOL    HW155151   4.935   9.893  10.418  1.1975  0.3667 -0.4180
49431SOL    HW255152   4.788   9.891  10.381  0.7358 -2.0376  1.3226
49432SOL     OW55153   1.290   7.990   6.478  0.7737  0.2593  0.2226
49432SOL    HW155154   1.206   7.956   6.449  0.5448  0.5489  0.5356
49432SOL    HW255155   1.316   7.933   6.550  2.2385 -1.6332 -1.6854
49433SOL     OW55156   6.079   7.411   6.195  0.6352  0.4096  0.2161
49433SOL    HW155157   6.101   7.504   6.185  0.3142  0.6613  1.6667
49433SOL    HW255158   6.126   7.384   6.274  0.4964 -0.5944 -0.0373
49434SOL     OW55159   5.852   4.350  11.004 -0.2838 -0.5530 -0.0037
49434SOL    HW155160   5.838   4.301  10.922  0.5427  1.4904 -1.4531
49434SOL    HW255161   5.945   4.336  11.024  0.1926  1.0429 -0.9247
49435SOL     OW55162  11.142   7.934   4.951 -0.0071 -0.2613 -0.2208
49435SOL    HW155163  11.124   7.915   4.858 -0.4046 -0.9085 -0.0210
49435SOL    HW255164  11.125   8.028   4.960 -0.6717 -0.3327 -0.6541
49436SOL     OW55165   1.373   1.616  11.067  0.6179  0.0182 -0.1935
49436SOL    HW155166   1.440   1.557  11.103  1.8589  0.5061 -1.6162
49436SOL    HW255167   1.371   1.595  10.974 -1.3281 -0.0576 -0.1590
49437SOL     OW55168   0.031  11.711   6.253  0.8978  0.1477  0.1504
49437SOL    HW155169   0.037  11.737   6.345  1.6076  1.3491 -0.2090
49437SOL    HW255170   0.090  11.635   6.246  1.1577  0.3007  0.6077
49438SOL     OW55171   9.040   7.168   4.975 -0.4211  0.1123 -0.2144
49438SOL    HW155172   9.064   7.079   5.001 -0.1695 -0.1326 -1.2268
49438SOL    HW255173   9.029   7.216   5.058 -0.2773 -0.7823  0.3309
49439SOL     OW55174   3.785   4.778   1.889  0.0210  0.3166  0.0714
49439SOL    HW155175   3.839   4.855   1.908  0.0652  0.3553 -0.2012
49439SOL    HW255176   3.698   4.802   1.919 -0.0690  0.6596 -0.4497
49440SOL     OW55177   5.776   0.191  11.101 -0.6388  0.1093  0.4339
49440SOL    HW155178   5.732   0.271  11.070  0.8697  1.2562  1.0884
49440SOL    HW255179   5.718   0.157  11.169 -0.9716  1.0794  0.6596
49441SOL     OW55180   1.921   2.205   3.638 -0.1103  0.1000 -0.3038
49441SOL    HW155181   1.922   2.170   3.726 -0.0033  0.5585 -0.1200
49441SOL    HW255182   1.977   2.282   3.642  0.2142 -0.1011 -0.8656
49442SOL     OW55183   4.897   1.100  10.537  1.1993  0.0713 -0.3019
49442SOL    HW155184   4.876   1.160  10.465  0.4669 -0.6909 -0.7552
49442SOL    HW255185   4.816   1.096  10.589  1.4391 -0.0583  0.0636
49443SOL     OW55186   1.232   9.820  11.558 -0.1102 -0.0481 -0.3482
49443SOL    HW155187   1.177   9.747  11.589 -0.2209 -0.2138 -0.9341
49443SOL    HW255188   1.182   9.899  11.581 -0.4186 -0.1863 -0.5478
49444SOL     OW55189   9.572  10.876   1.037 -0.0044 -0.2965  0.6224
49444SOL    HW155190   9.487  10.874   1.082  1.1886 -1.9847  3.0444
49444SOL    HW255191   9.576  10.792   0.991 -0.6161  0.8253 -1.5564
49445SOL     OW55192   0.311  10.170   3.985  0.3564 -0.2307 -0.1757
49445SOL    HW155193   0.304  10.152   4.078  0.0431 -2.0124 -0.5052
49445SOL    HW255194   0.330  10.264   3.980 -0.2131  0.0209  1.6393
49446SOL     OW55195   3.147   7.156   0.356 -0.3077  0.2045 -0.5217
49446SOL    HW155196   3.227   7.134   0.309  0.2800  2.2804 -0.6151
49446SOL    HW255197   3.177   7.201   0.435 -1.3383  1.4965 -0.8131
49447SOL     OW55198  10.687   8.660   4.640 -0.2679 -0.2360 -0.2950
49447SOL    HW155199  10.671   8.620   4.554 -0.7096 -1.2783  0.2539
49447SOL    HW255200  10.668   8.590   4.702 -0.5177  0.6833  0.6818
49448SOL     OW55201   0.726   5.597   6.539 -0.1121 -0.1874 -0.4503
49448SOL    HW155202   0.790   5.621   6.472  0.6939 -0.9585  0.0188
49448SOL    HW255203   0.779   5.571   6.614 -1.0014  0.4735  0.4263
49449SOL     OW55204   2.519   1.902   7.727  0.0770 -0.3156  0.7545
49449SOL    HW155205   2.536   1.996   7.733  0.2731 -0.2516 -0.4673
49449SOL    HW255206   2.491   1.889   7.637  1.7868 -1.6743  0.3729
49450SOL     OW55207  12.120   1.639  11.187 -0.0919  0.7607  0.7348
49450SOL    HW155208  12.118   1.567  11.123  0.6175 -1.1444  2.7289
49450SOL    HW255209  12.055   1.701  11.154  0.0881 -0.2082 -1.6947
49451SOL     OW55210   8.346   3.857  11.854 -0.2945 -0.6043  0.4158
49451SOL    HW155211   8.425   3.847  11.801 -1.7451 -0.8347 -1.8761
49451SOL    HW255212   8.313   3.944  11.834  1.1022  0.9484  4.0523
49452SOL     OW55213  11.341  10.164   2.337  0.2551  0.1483  0.1602
49452SOL    HW155214  11.260  10.203   2.371 -0.6145 -1.9580  0.6066
49452SOL    HW255215  11.355  10.086   2.389  2.8404  0.6338  0.3373
49453SOL     OW55216   9.641   9.777   2.480 -0.4291  0.0565 -0.0939
49453SOL    HW155217   9.643   9.712   2.550 -0.8803 -0.8661 -0.8978
49453SOL    HW255218   9.559   9.824   2.493  0.0284  0.6550  0.6506
49454SOL     OW55219   7.207   0.553   4.937  0.1657  0.3231 -0.7060
49454SOL    HW155220   7.194   0.465   4.972 -0.4851  1.2654  1.6095
49454SOL    HW255221   7.232   0.539   4.846  0.5192 -2.2611 -0.2874
49455SOL     OW55222   4.020   9.424   5.841  0.0208  0.1670 -0.4705
49455SOL    HW155223   3.963   9.347   5.837  0.7936 -0.4257 -0.3362
49455SOL    HW255224   4.033   9.440   5.934 -0.4023  0.6647 -0.4946
49456SOL     OW55225   1.786  11.257   4.090 -0.2322 -0.1400  0.0297
49456SOL    HW155226   1.877  11.282   4.104 -0.4080  0.1077  0.7446
49456SOL    HW255227   1.757  11.312   4.017  1.0069 -2.1972 -2.1917
49457SOL     OW55228   6.645   7.787  10.355  0.5470 -0.3988 -0.2610
49457SOL    HW155229   6.627   7.694  10.373 -0.5585 -0.1367  0.0733
49457SOL    HW255230   6.676   7.788  10.264 -1.2092 -0.9284 -0.9175
49458SOL     OW55231   0.483   7.010   5.895 -0.1323 -0.0977  0.3297
49458SOL    HW155232   0.504   7.007   5.801 -2.7649  0.0215 -0.3548
49458SOL    HW255233   0.514   6.926   5.929 -4.1494 -2.8850 -1.9920
49459SOL     OW55234  12.152   1.052  10.041 -0.1147  0.1197  0.7807
49459SOL    HW155235  12.135   1.142  10.069 -0.2863  0.9555 -1.7589
49459SOL    HW255236  12.066   1.017  10.017  0.1843  0.0893 -0.3393
49460SOL     OW55237   7.292  10.914   3.811  0.3960  0.1656  0.3856
49460SOL    HW155238   7.225  10.940   3.873  0.7164  1.1174  0.3422
49460SOL    HW255239   7.244  10.888   3.733  0.0507  0.1982  0.5867
49461SOL     OW55240   3.261   9.756  12.453 -0.1184  0.3511  0.4025
49461SOL    HW155241   3.253   9.840  12.408  0.4605 -0.6910 -1.7828
49461SOL    HW255242   3.178   9.711  12.435 -1.0881  0.9709  2.8793
49462SOL     OW55243   8.483   0.228  10.483 -0.3563 -0.1450 -0.1694
49462SOL    HW155244   8.409   0.232  10.544 -1.3426  1.6266 -1.3903
49462SOL    HW255245   8.536   0.304  10.506  1.8568 -2.0175  1.4806
49463SOL     OW55246  10.639   5.547   8.266  0.3917  0.8141  0.4970
49463SOL    HW155247  10.591   5.488   8.208  1.4218 -0.0809  0.5378
49463SOL    HW255248  10.679   5.611   8.207  0.0013  0.9583  0.3817
49464SOL     OW55249   3.934   3.059   2.580 -0.3686  0.2827 -0.3074
49464SOL    HW155250   3.882   3.138   2.595 -0.8073 -0.3141  1.5077
49464SOL    HW255251   3.905   2.997   2.647 -0.0056 -1.4254 -1.6483
49465SOL     OW55252   1.289  12.227   1.274 -0.1422  0.1697 -0.5310
49465SOL    HW155253   1.209  12.271   1.302 -0.9429 -2.5503  2.0081
49465SOL    HW255254   1.309  12.265   1.188 -1.7947  3.8323  0.5082
49466SOL     OW55255   2.707   3.090   5.430 -0.4132 -0.2527  0.3351
49466SOL    HW155256   2.724   2.997   5.446 -0.7373 -0.7240 -1.8108
49466SOL    HW255257   2.618   3.103   5.462 -0.1586 -0.5233  1.1810
49467SOL     OW55258   4.123  10.650   7.063 -0.4329  0.3417  0.5476
49467SOL    HW155259   4.084  10.568   7.092 -0.5829  0.4972  0.7893
49467SOL    HW255260   4.214  10.628   7.041 -1.2247 -0.5544 -2.3121
49468SOL     OW55261   6.337  11.633   3.317  0.2278  0.2439  0.1316
49468SOL    HW155262   6.282  11.672   3.384  0.0467  0.2716 -0.0315
49468SOL    HW255263   6.288  11.556   3.287  1.6773 -1.5847  2.1829
49469SOL     OW55264  11.251  11.942   3.124  0.5340  0.5412  0.5876
49469SOL    HW155265  11.171  11.931   3.074  0.9561 -0.8345  0.1658
49469SOL    HW255266  11.224  11.933   3.216  0.0462  1.2206  0.5165
49470SOL     OW55267   1.451   4.719   5.805  0.3167 -0.3829  0.2627
49470SOL    HW155268   1.502   4.787   5.761 -2.2042  0.8196 -1.0397
49470SOL    HW255269   1.493   4.709   5.890  2.0917  1.2200 -0.3438
49471SOL     OW55270   1.704   3.211   1.118  0.4195  0.0305  0.2137
49471SOL    HW155271   1.641   3.208   1.046  1.0446  0.5365 -0.3750
49471SOL    HW255272   1.657   3.177   1.193  0.1869 -1.9258 -0.7637
49472SOL     OW55273  11.300   9.704   9.265 -0.4754  0.1414 -0.2943
49472SOL    HW155274  11.349   9.780   9.234  2.2172 -0.4545  2.0368
49472SOL    HW255275  11.361   9.630   9.252 -1.5083 -0.9746  0.9521
49473SOL     OW55276   4.158  11.678   0.220 -0.0081 -0.0199  0.1490
49473SOL    HW155277   4.163  11.604   0.282  3.4806  2.4527  3.2501
49473SOL    HW255278   4.248  11.691   0.191 -0.9753  1.3765 -2.5606
49474SOL     OW55279   6.800   4.050   6.641 -0.3528 -0.4942 -0.1677
49474SOL    HW155280   6.721   4.024   6.688 -1.0738  0.4735 -0.8157
49474SOL    HW255281   6.782   4.139   6.610  1.6723  0.4580  1.1795
49475SOL     OW55282   5.681   5.424   6.659 -0.0997  0.0752 -0.0914
49475SOL    HW155283   5.641   5.359   6.717 -2.9898  1.7168 -0.0538
49475SOL    HW255284   5.745   5.468   6.715 -1.6853  0.5405  1.4679
49476SOL     OW55285  11.068   4.548  11.454  0.6632 -0.0072  0.1241
49476SOL    HW155286  11.104   4.461  11.440 -1.2563 -0.8159 -0.0828
49476SOL    HW255287  11.051   4.552  11.549  0.5841  0.0621  0.1078
49477SOL     OW55288   5.264   4.840   1.055  0.6518 -0.3557 -0.4806
49477SOL    HW155289   5.169   4.836   1.049  0.6660  0.1907 -1.1234
49477SOL    HW255290   5.289   4.916   1.003  1.3445  0.3211  0.7969
49478SOL     OW55291   6.853   6.817   7.652 -0.1972  0.3844  0.1086
49478SOL    HW155292   6.797   6.822   7.575 -0.8379 -0.8437  0.4718
49478SOL    HW255293   6.937   6.784   7.619 -0.1032  0.9424 -0.2262
49479SOL     OW55294   6.685   2.799   1.148 -0.0655  0.0184  0.1523
49479SOL    HW155295   6.701   2.730   1.083  1.2523  1.7751 -1.5194
49479SOL    HW255296   6.727   2.767   1.228  0.4950 -1.1260 -0.5671
49480SOL     OW55297   8.953   8.410   1.543  0.3069 -0.5352  0.1599
49480SOL    HW155298   8.972   8.485   1.486 -0.4563 -1.2593 -1.1060
49480SOL    HW255299   8.981   8.438   1.630  1.6488  0.5619 -0.5940
49481SOL     OW55300   4.082   1.129  12.174  0.1944  0.1998 -0.6365
49481SOL    HW155301   4.157   1.101  12.226 -0.3380  1.8054  1.1242
49481SOL    HW255302   4.107   1.111  12.083  2.1316 -0.5305 -0.0059
49482SOL     OW55303   0.579   9.808  11.921  0.0340 -0.2985 -1.0819
49482SOL    HW155304   0.608   9.894  11.892 -1.0899  0.4876  0.0479
49482SOL    HW255305   0.565   9.759  11.840 -1.4457  1.2884 -1.8355
49483SOL     OW55306   3.595  10.239   8.737  0.8320 -0.2215  0.2924
49483SOL    HW155307   3.647  10.319   8.744 -2.3223  2.3011 -1.9775
49483SOL    HW255308   3.504  10.268   8.744 -0.4984 -3.6878 -0.2835
49484SOL     OW55309   2.662   2.215  11.454  0.2073 -0.2388  0.5841
49484SOL    HW155310   2.630   2.160  11.382 -2.1874  0.4490  1.0537
49484SOL    HW255311   2.584   2.257  11.488  1.7073  1.8486  1.6132
49485SOL     OW55312   4.408  11.827   0.126 -0.3754  0.1202 -0.6573
49485SOL    HW155313   4.481  11.877   0.088  0.6400  0.0494  1.0999
49485SOL    HW255314   4.369  11.886   0.190  1.0829 -1.3438  1.7235
49486SOL     OW55315   4.357   6.913   5.747 -0.3000  0.5440  0.4501
49486SOL    HW155316   4.297   6.973   5.702 -0.0029  1.8305  1.7084
49486SOL    HW255317   4.441   6.926   5.702 -0.7412 -0.7400 -0.8451
49487SOL     OW55318  10.069   9.646   7.407  0.0381  0.4854  0.4193
49487SOL    HW155319  10.052   9.602   7.490 -1.1917  1.3504  0.6499
49487SOL    HW255320  10.003   9.610   7.347  0.9401 -0.1624 -0.2214
49488SOL     OW55321   7.958  11.566   3.980 -0.6475 -0.9068  0.3128
49488SOL    HW155322   7.939  11.537   3.891 -1.1026  1.1143 -0.3013
49488SOL    HW255323   8.046  11.533   3.998 -0.1565 -0.5173 -1.2585
49489SOL     OW55324  12.158  11.042   8.169  0.6146  0.0405 -0.0202
49489SOL    HW155325  12.209  10.962   8.156  1.8048  0.7145  0.3445
49489SOL    HW255326  12.219  11.113   8.150 -0.4297  0.8707 -0.3607
49490SOL     OW55327   7.846   9.073   9.708 -0.5225 -0.1271  0.4939
49490SOL    HW155328   7.860   9.047   9.617  1.2036  0.4436  0.5471
49490SOL    HW255329   7.810   8.995   9.750  0.2463 -0.9568 -0.3252
49491SOL     OW55330   8.112   3.805   6.559 -0.0908 -0.8779 -0.8850
49491SOL    HW155331   8.168   3.779   6.487 -0.1643 -1.7582 -0.6309
49491SOL    HW255332   8.165   3.789   6.638  0.5432  1.4018 -0.7567
49492SOL     OW55333   9.064   2.279   8.420  0.0998 -0.1995 -0.5594
49492SOL    HW155334   9.046   2.356   8.365 -1.0745  0.2692  0.4253
49492SOL    HW255335   9.019   2.207   8.375 -1.7721  0.3825  0.2732
49493SOL     OW55336  12.431   5.488   7.814 -0.3221 -0.4498  0.3750
49493SOL    HW155337  12.510   5.509   7.863 -1.7427 -0.9053  3.0544
49493SOL    HW255338  12.446   5.524   7.727  2.3313  0.4769  1.1312
49494SOL     OW55339   0.789   3.994   0.334  0.8880  0.6024  0.0625
49494SOL    HW155340   0.706   3.962   0.299  1.1254  0.2991 -0.2249
49494SOL    HW255341   0.809   4.071   0.281  0.0234  1.6046  1.1326
49495SOL     OW55342   2.206  12.014  11.423  0.1645 -0.1811  0.5471
49495SOL    HW155343   2.233  12.099  11.388  0.4346 -0.8666 -0.9728
49495SOL    HW255344   2.163  11.970  11.349  0.4891 -1.5736  1.1533
49496SOL     OW55345   8.123   8.476   0.447 -0.2694  0.1699  0.0562
49496SOL    HW155346   8.175   8.397   0.430 -1.3153 -0.9173  1.5733
49496SOL    HW255347   8.185   8.548   0.437  1.0433 -0.9325 -0.1141
49497SOL     OW55348   0.033  11.784   7.704 -0.4720  0.0886 -0.3231
49497SOL    HW155349   0.083  11.732   7.767 -1.3218 -1.5956 -0.9802
49497SOL    HW255350  -0.000  11.857   7.756 -0.4234 -0.7821  1.0016
49498SOL     OW55351   4.928   2.399  10.399 -0.1856 -0.1760 -0.4074
49498SOL    HW155352   4.834   2.384  10.386 -0.3132 -0.6096  0.9184
49498SOL    HW255353   4.937   2.418  10.492  1.2639 -1.9968 -0.1070
49499SOL     OW55354   8.744   1.895   6.544 -0.0038  0.0893 -0.1671
49499SOL    HW155355   8.726   1.931   6.457 -0.8256  3.0172  1.0910
49499SOL    HW255356   8.839   1.892   6.549  0.0749  1.1060 -0.7420
49500SOL     OW55357   9.684   9.222   7.698  0.4542  0.5473  0.5180
49500SOL    HW155358   9.710   9.195   7.786 -0.0239  2.2944  1.2178
49500SOL    HW255359   9.766   9.242   7.654  0.7104 -0.5245  0.4651
49501SOL     OW55360  10.090   7.527  12.004  0.0727 -0.3986  0.3563
49501SOL    HW155361  10.073   7.513  12.097 -0.0071 -0.2600  0.3623
49501SOL    HW255362  10.116   7.441  11.971  2.8388  0.0529  1.0853
49502SOL     OW55363   2.519   3.608  10.715 -0.0450  0.7444 -0.6869
49502SOL    HW155364   2.604   3.566  10.714 -0.1525  0.4844  0.6121
49502SOL    HW255365   2.460   3.545  10.673 -0.4067 -0.8955  2.0875
49503SOL     OW55366   9.531  10.094   4.774 -0.1753 -0.1159 -0.3681
49503SOL    HW155367   9.577  10.029   4.827 -0.3294  0.6044  0.6722
49503SOL    HW255368   9.452  10.114   4.824 -0.4247  0.4389 -0.9660
49504SOL     OW55369   0.843   6.508   5.034 -0.4468  0.3174 -0.2314
49504SOL    HW155370   0.913   6.545   4.982  1.3306  0.4594  2.1137
49504SOL    HW255371   0.841   6.415   5.009  0.4500  0.3493 -0.4393
49505SOL     OW55372   8.597   3.457   2.898 -0.4524  0.2500  0.6144
49505SOL    HW155373   8.642   3.532   2.937  0.7152  1.4819 -2.7493
49505SOL    HW255374   8.516   3.493   2.862 -0.5715 -0.3978  0.2175
49506SOL     OW55375   4.875   2.584   6.675  0.4821 -0.1135 -0.3996
49506SOL    HW155376   4.847   2.676   6.673  0.5234 -0.1016 -0.4393
49506SOL    HW255377   4.844   2.547   6.593  0.7075 -0.0636 -0.5057
49507SOL     OW55378   3.574   0.657   9.900  0.0484  0.2109  0.2209
49507SOL    HW155379   3.596   0.579   9.951 -0.8042 -0.8377 -0.9662
49507SOL    HW255380   3.628   0.651   9.821  0.4651  1.1866  0.4078
49508SOL     OW55381   5.448   7.511   2.669 -0.1124  0.0623 -0.5220
49508SOL    HW155382   5.516   7.458   2.710 -0.7721  0.0018  0.5178
49508SOL    HW255383   5.378   7.515   2.734 -0.9838  0.3678 -1.4607
49509SOL     OW55384   8.730   7.702   3.907 -0.1217  0.1238 -0.1232
49509SOL    HW155385   8.768   7.721   3.821 -0.9290 -1.7488 -0.9372
49509SOL    HW255386   8.636   7.695   3.891 -0.2454 -0.6519  0.8335
49510SOL     OW55387   4.989  11.545  11.746 -0.4383 -0.0469  0.0160
49510SOL    HW155388   4.983  11.506  11.833 -0.5154  1.4186  0.6886
49510SOL    HW255389   5.067  11.599  11.749 -0.7897  0.5062 -0.6181
49511SOL     OW55390   9.554   1.147   2.561 -0.3641  0.4757  0.2490
49511SOL    HW155391   9.563   1.053   2.576  0.0057  0.6258  1.0333
49511SOL    HW255392   9.609   1.165   2.485  3.5249  0.7754  2.8104
49512SOL     OW55393   4.190   0.300  10.373  0.0332  0.4521 -0.0535
49512SOL    HW155394   4.106   0.275  10.334 -0.8535  1.6211  1.0262
49512SOL    HW255395   4.188   0.396  10.377  1.6873  0.5466 -0.5502
49513SOL     OW55396   3.419  10.231   8.491  0.2222  0.8107  0.2290
49513SOL    HW155397   3.453  10.214   8.403 -1.3197 -1.2066 -0.0453
49513SOL    HW255398   3.406  10.144   8.529  0.0251  1.6300  2.1414
49514SOL     OW55399  10.195   2.473   2.457 -0.4624 -0.1614  0.1297
49514SOL    HW155400  10.210   2.398   2.513 -0.1001 -0.1806  0.0077
49514SOL    HW255401  10.128   2.444   2.395 -2.9621  0.7128  2.2229
49515SOL     OW55402  10.820   9.146  11.220  0.3467  0.3208 -0.4778
49515SOL    HW155403  10.839   9.147  11.126 -1.0734 -1.3656 -0.8468
49515SOL    HW255404  10.774   9.229  11.236  0.8799  0.7646 -1.2021
49516SOL     OW55405   1.609  12.341   0.860  0.4743  0.0309 -0.3439
49516SOL    HW155406   1.696  12.301   0.855 -0.0704 -1.2378 -0.0857
49516SOL    HW255407   1.550  12.272   0.829 -0.3387  1.2877 -1.7253
49517SOL     OW55408   8.451  10.962   4.160 -0.2131  0.6829  0.5421
49517SOL    HW155409   8.465  10.981   4.067 -0.7596  0.4454  0.4109
49517SOL    HW255410   8.415  10.874   4.162  0.7859  0.2649  1.0567
49518SOL     OW55411  10.551   1.776   0.959  0.1147 -0.7760 -0.2012
49518SOL    HW155412  10.544   1.868   0.985 -1.2134 -0.5886 -1.1279
49518SOL    HW255413  10.629   1.744   1.004  0.0260  0.5298  0.9365
49519SOL     OW55414   6.106  11.070  11.327 -0.2522  0.0674 -0.4573
49519SOL    HW155415   6.041  11.139  11.313 -1.0587 -0.1015  1.9589
49519SOL    HW255416   6.087  11.037  11.415  4.1181  1.1475  1.1605
49520SOL     OW55417   8.029   8.249   9.232 -0.1746 -0.5407 -0.2772
49520SOL    HW155418   8.010   8.269   9.140 -1.8999 -0.4126  0.0836
49520SOL    HW255419   8.018   8.154   9.238 -1.2862 -0.4050  0.0429
49521SOL     OW55420   4.543   9.792  12.005 -0.6781  0.2847  0.1172
49521SOL    HW155421   4.483   9.729  11.967  0.0321  0.5603 -1.5099
49521SOL    HW255422   4.584   9.746  12.078 -2.9836  0.1608  1.4446
49522SOL     OW55423  11.824  12.027   3.900 -0.3029 -0.1891 -0.2051
49522SOL    HW155424  11.827  11.956   3.836 -1.9245 -0.2219 -0.2907
49522SOL    HW255425  11.897  12.085   3.876  1.7198 -2.3007  0.4950
49523SOL     OW55426   1.950   5.466   9.921  0.1806 -0.3487 -0.5924
49523SOL    HW155427   1.891   5.501   9.988  1.7725  2.9883 -0.7222
49523SOL    HW255428   1.900   5.471   9.840 -0.1441  0.2658 -0.3607
49524SOL     OW55429   9.052   4.488   6.376  0.2446  0.5432  0.4670
49524SOL    HW155430   9.098   4.545   6.315 -0.1430  1.4375  0.9907
49524SOL    HW255431   8.960   4.514   6.368 -0.1218 -0.8453 -0.1701
49525SOL     OW55432   5.670   8.096   6.108 -0.2146  0.1724  0.0104
49525SOL    HW155433   5.661   8.005   6.080  1.6977 -1.1447  3.2036
49525SOL    HW255434   5.686   8.144   6.027 -0.3248 -2.4578 -1.6945
49526SOL     OW55435   9.399   8.777   5.966 -0.0617 -0.4980 -0.1822
49526SOL    HW155436   9.326   8.813   5.916 -0.1286 -0.2097  0.1169
49526SOL    HW255437   9.372   8.689   5.989 -0.5650 -0.1927  0.4238
49527SOL     OW55438   7.918   0.964   6.140 -0.4322  0.5599  0.3190
49527SOL    HW155439   7.853   1.029   6.111  0.9322  0.9871 -2.1002
49527SOL    HW255440   7.891   0.883   6.097  0.8611  0.8695 -1.1591
49528SOL     OW55441  10.862   7.357   9.423  0.1150 -0.1442 -0.2231
49528SOL    HW155442  10.812   7.276   9.433 -0.3148  0.1114 -0.2685
49528SOL    HW255443  10.798   7.427   9.436  0.9644  0.2579  2.6320
49529SOL     OW55444   8.459   8.108   4.675 -0.8147 -0.5666  0.0242
49529SOL    HW155445   8.527   8.172   4.652 -2.2137  1.1258  0.3903
49529SOL    HW255446   8.437   8.066   4.592 -1.1321  0.7393 -0.5756
49530SOL     OW55447   4.357   6.503   0.334 -0.6114 -0.8210  0.1442
49530SOL    HW155448   4.364   6.561   0.258 -0.4017  1.0929  1.5490
49530SOL    HW255449   4.292   6.437   0.309 -2.0637  0.9522 -0.9583
49531SOL     OW55450  10.671  12.029   9.791  0.3951 -0.4660 -0.1754
49531SOL    HW155451  10.709  12.002   9.707 -1.1247 -0.5507 -0.8659
49531SOL    HW255452  10.695  12.121   9.799  0.5434 -0.4531 -0.7112
49532SOL     OW55453   6.001   7.310   2.191 -0.1905  0.2677  0.3445
49532SOL    HW155454   6.057   7.275   2.260 -0.0143 -1.1744 -0.4913
49532SOL    HW255455   6.047   7.388   2.159  0.0405  0.5717  1.4097
49533SOL     OW55456   3.629   5.833   7.208  0.2967  0.0094 -0.2852
49533SOL    HW155457   3.592   5.907   7.161  1.5581  1.8785  1.5062
49533SOL    HW255458   3.711   5.814   7.163  0.1496 -0.0527 -0.5251
49534SOL     OW55459   0.697   1.584   7.868 -0.2944 -0.3235 -0.8874
49534SOL    HW155460   0.760   1.590   7.796 -0.2670  1.1759 -0.7651
49534SOL    HW255461   0.745   1.539   7.937 -0.0267 -0.9781 -1.4806
49535SOL     OW55462   0.712   4.181   3.789  0.5154 -0.3112  0.2842
49535SOL    HW155463   0.703   4.162   3.882 -2.1696 -2.0639 -0.2263
49535SOL    HW255464   0.654   4.255   3.774  0.8544 -0.1044 -0.0236
49536SOL     OW55465   5.549   5.949  11.402 -0.4884 -0.5764  0.0236
49536SOL    HW155466   5.624   5.895  11.426  0.3241  0.1160 -0.8461
49536SOL    HW255467   5.519   5.987  11.485  0.5030 -0.3975  0.3205
49537SOL     OW55468   9.699   8.463   8.105  0.1051 -0.0887  0.1765
49537SOL    HW155469   9.639   8.454   8.180  1.4940 -1.3454  1.2034
49537SOL    HW255470   9.650   8.426   8.031 -0.5552 -0.7190  0.8974
49538SOL     OW55471   1.501   4.597   1.292 -0.8496  0.0610  0.3318
49538SOL    HW155472   1.533   4.663   1.354 -1.0782  0.0317  0.4816
49538SOL    HW255473   1.439   4.645   1.237 -0.0265  0.2922 -0.4221
49539SOL     OW55474   5.659   6.103   7.043  0.3988 -0.1766 -0.3047
49539SOL    HW155475   5.661   6.092   6.948 -0.2603 -0.9045 -0.2442
49539SOL    HW255476   5.603   6.032   7.074  0.5221  0.1201  0.6208
49540SOL     OW55477   8.074  10.718   3.621  0.0789 -0.2767 -0.0693
49540SOL    HW155478   7.991  10.758   3.645 -0.8888 -0.7932 -2.2421
49540SOL    HW255479   8.139  10.759   3.678 -1.4115  1.4981  0.4288
49541SOL     OW55480   6.683  10.413   2.105 -0.3336  0.6459  0.4474
49541SOL    HW155481   6.639  10.384   2.185  2.5831 -0.2905  1.8435
49541SOL    HW255482   6.722  10.497   2.127 -1.0838  1.2998 -0.6442
49542SOL     OW55483   3.931   7.443   9.042 -0.3539  0.7432 -0.2023
49542SOL    HW155484   3.898   7.521   8.997  0.7949  1.1475 -0.3688
49542SOL    HW255485   3.852   7.401   9.077 -1.0908  1.3801 -1.0562
49543SOL     OW55486  10.440   7.665   9.708 -0.9687 -0.0590 -0.0610
49543SOL    HW155487  10.366   7.710   9.667 -1.6970 -1.4683 -0.3712
49543SOL    HW255488  10.401   7.588   9.748 -0.0967  0.6366  2.2927
49544SOL     OW55489   4.290   5.444   9.929 -0.3711  0.3759  0.1247
49544SOL    HW155490   4.270   5.494  10.009 -1.1904 -0.6624  0.5951
49544SOL    HW255491   4.376   5.476   9.902  0.1043  0.4717  1.6485
49545SOL     OW55492   7.841   9.306  11.140  0.8114  0.3965 -0.2401
49545SOL    HW155493   7.810   9.390  11.174 -1.1169  0.0815 -1.0570
49545SOL    HW255494   7.761   9.261  11.112  2.0610 -0.0989 -3.4798
49546SOL     OW55495   5.986   3.350   6.173  0.3792 -0.5907 -0.3053
49546SOL    HW155496   5.993   3.426   6.116 -0.3781  0.8585  1.4318
49546SOL    HW255497   6.076   3.325   6.191  0.7263  1.2244  0.7302
49547SOL     OW55498   3.695   3.057   9.347  0.1933 -0.3311  0.3097
49547SOL    HW155499   3.771   3.109   9.320  0.8680 -1.5601 -0.2649
49547SOL    HW255500   3.733   2.985   9.398 -0.6343 -0.7466  0.3486
49548SOL     OW55501  10.771   3.684   1.193  0.6203 -0.0991  0.3450
49548SOL    HW155502  10.688   3.636   1.197  0.6004 -0.1356 -0.2960
49548SOL    HW255503  10.746   3.773   1.168  0.8470 -0.3872 -1.0032
49549SOL     OW55504   3.898   0.685   9.901 -0.1955  0.0977 -0.3139
49549SOL    HW155505   3.866   0.774   9.885 -0.9678 -0.1648 -0.2910
49549SOL    HW255506   3.889   0.640   9.817 -1.8801 -0.5617  0.1725
49550SOL     OW55507   3.185   8.214   1.813 -0.4505 -0.5452  0.6451
49550SOL    HW155508   3.120   8.220   1.884 -0.4448 -1.7507  0.7635
49550SOL    HW255509   3.270   8.217   1.858 -0.1542  4.4699  0.3274
49551SOL     OW55510   6.483   7.782   4.973 -0.3876  0.3013 -0.2729
49551SOL    HW155511   6.579   7.782   4.981 -0.4119 -2.3363  1.0537
49551SOL    HW255512   6.465   7.723   4.900 -1.0246  2.0107 -1.5572
49552SOL     OW55513   7.538   4.342   8.768 -0.5440 -0.1296 -0.5789
49552SOL    HW155514   7.561   4.428   8.733 -1.1294  0.3363  0.1361
49552SOL    HW255515   7.443   4.348   8.785 -0.5517 -0.8473 -0.3466
49553SOL     OW55516   5.392   1.917  12.228 -0.3888 -0.5082 -0.2153
49553SOL    HW155517   5.329   1.974  12.271  1.8735  0.3110  2.3237
49553SOL    HW255518   5.434   1.972  12.162 -1.6945 -0.8219 -1.3429
49554SOL     OW55519   9.750   2.377   3.758 -0.1679  0.0234 -0.7857
49554SOL    HW155520   9.696   2.316   3.807 -2.3293  0.7951 -2.0655
49554SOL    HW255521   9.837   2.368   3.796 -0.9045 -2.1594  0.5681
49555SOL     OW55522   1.143   6.040  10.732  0.3867  0.1295 -0.5025
49555SOL    HW155523   1.211   6.062  10.795 -0.1675 -1.5424  0.7630
49555SOL    HW255524   1.187   5.987  10.666  0.6270  0.4391 -0.5937
49556SOL     OW55525   1.365   2.360   9.401  0.0070 -0.0079  0.0183
49556SOL    HW155526   1.360   2.324   9.490 -0.7268 -0.5983 -0.2569
49556SOL    HW255527   1.350   2.284   9.344  1.0929  0.2454 -0.6323
49557SOL     OW55528   8.206  11.195   5.761  0.1231 -0.5834 -0.3533
49557SOL    HW155529   8.230  11.112   5.721  1.4222 -0.2751 -0.2627
49557SOL    HW255530   8.253  11.261   5.711 -1.0606  0.1432 -0.5636
49558SOL     OW55531  10.764  11.868  11.865 -0.7942 -0.3133  0.2720
49558SOL    HW155532  10.813  11.932  11.814 -1.4397  0.6955  0.8638
49558SOL    HW255533  10.830  11.822  11.916 -0.4963  2.3154  2.4973
49559SOL     OW55534   6.608   3.929   5.457  0.3264  0.3036 -0.1010
49559SOL    HW155535   6.590   3.860   5.522 -0.0578  0.7049  0.2294
49559SOL    HW255536   6.533   3.926   5.398  1.2068 -0.8076 -1.2054
49560SOL     OW55537   3.806   0.063   6.910 -0.2943 -0.3917  0.0306
49560SOL    HW155538   3.887   0.031   6.950 -0.1510  1.1067  1.0039
49560SOL    HW255539   3.797   0.010   6.830  1.5298 -0.7233 -0.0095
49561SOL     OW55540   6.407   8.702   5.057  0.2236 -0.0546  0.0268
49561SOL    HW155541   6.433   8.747   5.137  2.2923  1.1132 -1.2243
49561SOL    HW255542   6.349   8.764   5.012 -1.8827 -1.1545  1.0370
49562SOL     OW55543   9.808   5.664   2.026  0.8536  0.4883 -0.1580
49562SOL    HW155544   9.860   5.607   2.083  0.6711 -0.1300 -0.5864
49562SOL    HW255545   9.778   5.605   1.956 -0.2829  0.8658 -0.0053
49563SOL     OW55546  10.511  10.107   8.378  0.4870  0.2693  0.1474
49563SOL    HW155547  10.437  10.051   8.353 -0.0112  0.0079  2.0966
49563SOL    HW255548  10.565  10.110   8.299 -0.0101 -2.0825 -0.3736
49564SOL     OW55549   2.705   5.075   3.517  0.2923 -0.2388  0.4615
49564SOL    HW155550   2.758   5.133   3.461 -0.0537 -0.4507 -0.0983
49564SOL    HW255551   2.729   5.099   3.606  1.6522 -0.6209  0.2147
49565SOL     OW55552  10.772   9.848   7.684 -0.0570  0.0155  0.6673
49565SOL    HW155553  10.723   9.809   7.611  0.4765  1.0611 -0.2653
49565SOL    HW255554  10.859   9.810   7.677  0.6919  1.8664 -0.7029
49566SOL     OW55555   5.179  10.241   1.175  0.3129 -0.5309 -0.0561
49566SOL    HW155556   5.117  10.287   1.231  0.0311 -1.2494  0.2400
49566SOL    HW255557   5.259  10.294   1.178 -0.4683  0.7233 -0.9280
49567SOL     OW55558   2.695   1.349   2.969  0.5167 -0.4610 -0.9013
49567SOL    HW155559   2.690   1.435   2.927 -0.6410  0.1057  0.3018
49567SOL    HW255560   2.670   1.365   3.060 -0.6084 -2.1941 -0.8396
49568SOL     OW55561   0.080   3.432   7.083  0.2570 -0.5784 -0.3505
49568SOL    HW155562  -0.001   3.412   7.131 -0.3011  0.9443 -0.5773
49568SOL    HW255563   0.114   3.511   7.125  0.9936 -0.5300 -1.0083
49569SOL     OW55564   8.386   2.973   0.315 -0.0006 -0.5743  0.2350
49569SOL    HW155565   8.433   2.893   0.341 -0.7764 -1.1282 -0.0603
49569SOL    HW255566   8.339   2.999   0.394  1.1617  0.2711  0.6898
49570SOL     OW55567   5.404  10.627   0.858 -0.1405  0.6140  0.8347
49570SOL    HW155568   5.453  10.670   0.788 -1.2002  0.1157 -0.2370
49570SOL    HW255569   5.464  10.561   0.892 -0.4546 -0.9210 -1.3682
49571SOL     OW55570   3.015  10.240   7.606  0.9565  0.2144 -0.5964
49571SOL    HW155571   3.094  10.233   7.552  1.8471 -1.3935  0.8083
49571SOL    HW255572   2.987  10.149   7.618 -1.5403  0.7730 -1.5919
49572SOL     OW55573   8.104   2.884   8.434  0.4806  0.0870 -0.0935
49572SOL    HW155574   8.161   2.956   8.408 -0.4763  0.4059 -1.4467
49572SOL    HW255575   8.120   2.873   8.527  2.4612  0.3916 -0.3549
49573SOL     OW55576  10.613   2.868   2.332  0.0497 -0.2812  0.3714
49573SOL    HW155577  10.700   2.899   2.359 -0.1606  0.3300  0.3522
49573SOL    HW255578  10.631   2.807   2.260  0.3982  0.7535 -0.4360
49574SOL     OW55579   9.022   1.897   6.588  0.2210  0.2027 -0.3103
49574SOL    HW155580   9.101   1.939   6.555 -0.2141  0.9866 -0.3779
49574SOL    HW255581   9.033   1.898   6.683 -0.8168  2.6627 -0.1328
49575SOL     OW55582  11.651   1.301  11.291  0.4873  0.2395 -0.2430
49575SOL    HW155583  11.628   1.297  11.384  0.2891 -1.7026 -0.3214
49575SOL    HW255584  11.733   1.350  11.288  0.5605  0.2098  0.9718
49576SOL     OW55585   5.214   7.039   2.458 -0.3490 -0.4643  0.3284
49576SOL    HW155586   5.162   7.047   2.378  1.8875  1.2852 -1.0973
49576SOL    HW255587   5.250   7.127   2.472  1.6935 -1.4023  1.5364
49577SOL     OW55588   3.436   3.592  12.199  0.5824  0.8973 -0.2476
49577SOL    HW155589   3.471   3.626  12.117 -1.8485 -0.1584 -1.8605
49577SOL    HW255590   3.418   3.500  12.181  2.3599 -0.0769  2.3812
49578SOL     OW55591   6.646   0.963   2.463 -0.5704 -0.2392  0.0324
49578SOL    HW155592   6.626   0.980   2.371 -0.0208  1.0103  0.1268
49578SOL    HW255593   6.714   0.896   2.460  0.6569  0.9715 -0.5696
49579SOL     OW55594   2.068   7.517   5.859 -0.0229 -0.1372 -0.4721
49579SOL    HW155595   2.117   7.473   5.929  1.3141  1.0339 -0.6232
49579SOL    HW255596   2.075   7.458   5.784 -0.8793 -1.0816  0.1742
49580SOL     OW55597   3.683  11.682   6.407  0.0168  0.7982  0.7181
49580SOL    HW155598   3.750  11.621   6.377  0.5348  1.6908  0.0143
49580SOL    HW255599   3.714  11.710   6.493 -0.2504  0.0544  1.0701
49581SOL     OW55600   4.564   5.946  11.164 -0.3719 -0.1655 -0.3969
49581SOL    HW155601   4.557   6.039  11.188 -1.1854 -0.0479 -1.0345
49581SOL    HW255602   4.630   5.911  11.223 -1.6178  0.3039  1.3513
49582SOL     OW55603   0.096  11.035  10.482  0.0406  0.4676 -0.0291
49582SOL    HW155604   0.108  10.997  10.569  1.2399 -0.3942 -0.5538
49582SOL    HW255605   0.073  10.961  10.427  0.0256  0.8917 -0.5972
49583SOL     OW55606   4.051   3.721   2.881 -0.0451 -0.3670 -0.4772
49583SOL    HW155607   4.126   3.665   2.902  0.1500  0.1606  0.2453
49583SOL    HW255608   3.995   3.716   2.959 -1.4308 -1.8034 -1.4892
49584SOL     OW55609   8.949   2.367   3.139 -0.7836 -0.2873 -0.3617
49584SOL    HW155610   9.011   2.345   3.209  1.5520  1.1857 -1.8578
49584SOL    HW255611   8.909   2.449   3.169  0.8328  0.8000 -1.0476
49585SOL     OW55612   9.658   6.973   7.065  0.5842 -0.3379  1.1062
49585SOL    HW155613   9.697   7.058   7.082 -0.4706  0.8586 -1.8678
49585SOL    HW255614   9.726   6.923   7.019  0.0212  0.3132 -0.5035
49586SOL     OW55615   9.102   1.572   9.363 -0.2232  0.3298  0.2433
49586SOL    HW155616   9.176   1.512   9.369 -0.3546  0.1673  0.2501
49586SOL    HW255617   9.042   1.531   9.301 -0.6160  0.1209  0.7467
49587SOL     OW55618  10.167   3.462   8.066  0.0577  0.0639 -0.1701
49587SOL    HW155619  10.168   3.545   8.114 -1.6413  1.8306 -2.9025
49587SOL    HW255620  10.196   3.485   7.978 -2.6607 -1.6925 -1.6681
49588SOL     OW55621   9.929  11.883   1.275 -0.3461  0.1683 -0.4340
49588SOL    HW155622   9.991  11.920   1.337 -0.0281 -2.3891  0.9261
49588SOL    HW255623   9.843  11.897   1.316 -0.2177 -0.5885  0.1312
49589SOL     OW55624   7.999   5.672   0.432  0.3013  0.3871  0.6595
49589SOL    HW155625   8.074   5.656   0.375 -0.1218 -0.0091  0.2095
49589SOL    HW255626   8.020   5.624   0.513  2.0840  2.9803  1.8868
49590SOL     OW55627   4.820   4.846   2.468 -0.5083 -0.1162  0.2646
49590SOL    HW155628   4.877   4.904   2.518 -1.0912 -0.2655  1.1202
49590SOL    HW255629   4.824   4.762   2.513 -0.5456 -0.4411 -0.3170
49591SOL     OW55630   4.305   4.962   6.886 -0.1361  0.5668  0.4960
49591SOL    HW155631   4.302   4.898   6.816  2.5872  2.1973 -1.2976
49591SOL    HW255632   4.214   4.989   6.899 -0.8997 -1.0356 -1.1787
49592SOL     OW55633   1.296   7.699  10.426 -0.0866  0.2829 -0.2003
49592SOL    HW155634   1.265   7.613  10.455 -1.3577  0.9398  0.4580
49592SOL    HW255635   1.250   7.762  10.482  1.6638  1.3788  0.1124
49593SOL     OW55636   8.343  12.186   4.317  0.6721  0.2294  0.3865
49593SOL    HW155637   8.363  12.276   4.294  1.1969 -0.0391 -0.2441
49593SOL    HW255638   8.392  12.133   4.254  1.2124 -0.5251  1.3988
49594SOL     OW55639   8.755   7.821   7.823 -0.0987  0.0908 -0.2647
49594SOL    HW155640   8.833   7.775   7.790  0.0776 -0.4754  0.8938
49594SOL    HW255641   8.789   7.904   7.855  0.1044 -0.2943  0.5524
49595SOL     OW55642   9.704  11.323   0.420 -0.1982 -0.2634 -0.3112
49595SOL    HW155643   9.685  11.352   0.332  1.0626 -1.5475 -1.0542
49595SOL    HW255644   9.626  11.346   0.471 -0.5077  1.4606 -1.4937
49596SOL     OW55645   9.180   3.956  10.886  0.0567  0.0287 -0.2831
49596SOL    HW155646   9.209   4.031  10.834  1.0531 -0.4220 -0.3832
49596SOL    HW255647   9.244   3.888  10.870  1.4146  0.3887  2.7910
49597SOL     OW55648   7.634   6.306   4.185  0.7193  0.0146  0.1359
49597SOL    HW155649   7.634   6.378   4.249  0.8546 -0.0730  0.2372
49597SOL    HW255650   7.674   6.343   4.107  2.2014 -0.3563  0.6694
49598SOL     OW55651  11.904   8.532   2.203 -0.0255  0.1470 -0.5254
49598SOL    HW155652  11.893   8.588   2.126  0.9947  0.5487 -0.3972
49598SOL    HW255653  11.830   8.472   2.200 -1.3215  1.6931 -0.5062
49599SOL     OW55654   2.544   9.207   6.813 -0.7124  0.0340 -0.1012
49599SOL    HW155655   2.548   9.120   6.852 -0.5997  0.0487 -0.0775
49599SOL    HW255656   2.514   9.264   6.884 -1.2061 -0.0554 -0.2369
49600SOL     OW55657   6.564  11.110  10.663  0.0287  0.4066  0.1804
49600SOL    HW155658   6.617  11.031  10.669  1.1273  1.2374  2.8936
49600SOL    HW255659   6.612  11.166  10.602  1.0788  0.2551  0.8407
49601SOL     OW55660   9.466  11.695   3.661  0.3315 -0.0885 -0.9089
49601SOL    HW155661   9.487  11.754   3.734  1.2186 -1.2939 -0.1715
49601SOL    HW255662   9.523  11.724   3.590  0.7515 -0.0551 -0.5576
49602SOL     OW55663   1.159  12.090   4.137 -0.0491  0.3173  0.5433
49602SOL    HW155664   1.177  12.010   4.088 -1.4519  0.0272  0.4488
49602SOL    HW255665   1.173  12.066   4.228 -0.9597 -0.2159  0.5615
49603SOL     OW55666  11.283   9.698   2.968 -0.4115  0.4185  0.4544
49603SOL    HW155667  11.293   9.760   2.895  0.9235  1.6609  1.6114
49603SOL    HW255668  11.358   9.640   2.960 -0.0493  0.7951  1.0262
49604SOL     OW55669   1.530  12.256   8.765 -0.1876 -0.0973  0.3728
49604SOL    HW155670   1.532  12.187   8.831  0.4175 -1.0635 -0.6257
49604SOL    HW255671   1.494  12.214   8.687 -0.7651  0.9886  0.0335
49605SOL     OW55672   4.338   1.683   3.640 -0.1781  0.4556  0.0930
49605SOL    HW155673   4.407   1.700   3.575  0.7362 -1.8653  0.3493
49605SOL    HW255674   4.371   1.723   3.720 -0.3238  1.5040 -0.3513
49606SOL     OW55675   7.374   3.847  12.391 -0.5414 -0.1317  0.1937
49606SOL    HW155676   7.377   3.785  12.318  1.1474 -0.7518  0.7370
49606SOL    HW255677   7.281   3.870  12.399 -1.2866 -2.7466  0.0783
49607SOL     OW55678   3.151   4.806  11.055  0.4380 -0.1465  0.5041
49607SOL    HW155679   3.177   4.894  11.081 -0.4773 -0.0760  1.2448
49607SOL    HW255680   3.210   4.748  11.104  0.7082  0.0403  0.4010
49608SOL     OW55681   8.230   1.331   1.115 -0.3839  0.3899  0.5799
49608SOL    HW155682   8.286   1.352   1.190  1.0969 -0.8665 -0.1125
49608SOL    HW255683   8.256   1.393   1.047  0.8497 -0.7222 -0.0194
49609SOL     OW55684  10.803   9.006   4.976 -0.0353  0.1275 -1.0319
49609SOL    HW155685  10.871   9.048   5.029  0.5371 -2.5906  0.5488
49609SOL    HW255686  10.807   9.051   4.891  2.6013  1.1373 -0.4573
49610SOL     OW55687   7.297   8.603   4.382 -0.1847  0.0541  0.2417
49610SOL    HW155688   7.226   8.609   4.446  0.8927  1.0700  1.4261
49610SOL    HW255689   7.312   8.510   4.371 -1.9920 -0.2041 -0.4136
49611SOL     OW55690   0.038   2.940   5.392 -0.3729  0.3369 -0.1202
49611SOL    HW155691  -0.002   3.017   5.353  2.1292  0.0545 -3.8404
49611SOL    HW255692   0.111   2.974   5.445 -0.3686  0.5819 -0.2856
49612SOL     OW55693   0.575   8.044  12.218  0.2762  0.2191 -0.1120
49612SOL    HW155694   0.532   7.972  12.265  1.0150  0.1567  0.5041
49612SOL    HW255695   0.649   8.002  12.174  0.3139  0.4935 -0.3098
49613SOL     OW55696   4.056   4.684  10.749  0.5017  0.1153  0.3882
49613SOL    HW155697   4.119   4.757  10.751 -0.1255  0.6617  0.7241
49613SOL    HW255698   3.970   4.727  10.750  0.0917 -0.5805 -1.3847
49614SOL     OW55699   7.113   8.426   6.576 -0.2464  0.2698  0.0935
49614SOL    HW155700   7.042   8.485   6.602 -0.5016 -0.7892  1.9799
49614SOL    HW255701   7.091   8.342   6.616  1.0789 -0.6092 -0.9352
49615SOL     OW55702  10.627  11.066   2.048  0.4546 -0.0928  0.0128
49615SOL    HW155703  10.701  11.021   2.009 -0.6591 -0.6711 -1.5491
49615SOL    HW255704  10.642  11.060   2.143  1.6350 -1.4713 -0.2325
49616SOL     OW55705   5.742   3.797   0.128  0.3023  0.0318 -0.0940
49616SOL    HW155706   5.825   3.789   0.081  0.3595 -0.2259  0.0510
49616SOL    HW255707   5.756   3.750   0.210 -0.4607 -1.2455 -0.6791
49617SOL     OW55708   5.884  10.720   6.451  0.5566 -0.1709 -0.5396
49617SOL    HW155709   5.883  10.661   6.526  0.8273 -0.3856 -0.7028
49617SOL    HW255710   5.795  10.716   6.416  0.9361 -1.6231 -1.4296
49618SOL     OW55711  12.061   8.485   6.706 -0.1222 -0.0657  0.3300
49618SOL    HW155712  11.996   8.435   6.656  0.7710  0.0734 -0.9979
49618SOL    HW255713  12.101   8.419   6.763  1.7702 -1.1977 -2.1278
49619SOL     OW55714   4.118   1.966  11.176 -0.8216 -0.3279  0.0340
49619SOL    HW155715   4.139   2.048  11.221 -0.2479 -0.8632  0.7656
49619SOL    HW255716   4.032   1.982  11.137 -0.9826  0.4188  0.6594
49620SOL     OW55717   0.071   1.809   6.976  0.2031  0.3932  0.0488
49620SOL    HW155718   0.154   1.849   7.004 -0.1878  0.5872  0.9506
49620SOL    HW255719   0.008   1.881   6.980 -0.0184  0.2526 -0.6677
49621SOL     OW55720   7.911   4.706   7.202  0.1800 -0.4872 -0.1063
49621SOL    HW155721   7.847   4.737   7.139  0.3423 -1.2044 -0.6307
49621SOL    HW255722   7.912   4.773   7.271 -1.4354 -0.6789  0.1267
49622SOL     OW55723   1.653   6.207  10.758  0.3716 -0.3435 -0.9167
49622SOL    HW155724   1.619   6.167  10.839  0.4353  0.9615 -0.2176
49622SOL    HW255725   1.678   6.295  10.784  1.7323 -0.3587 -2.0490
49623SOL     OW55726  10.473   3.702   0.130 -0.4295 -0.2990 -0.5802
49623SOL    HW155727  10.487   3.618   0.087  0.7677 -0.0319 -0.7395
49623SOL    HW255728  10.511   3.692   0.217  3.7153  1.3034 -1.9358
49624SOL     OW55729  11.804   3.640   5.300  0.1895 -0.4898  0.0420
49624SOL    HW155730  11.801   3.734   5.284  0.2223 -0.6419 -0.8903
49624SOL    HW255731  11.898   3.619   5.296  0.1345 -0.6632 -0.3908
49625SOL     OW55732   2.783  11.104   1.097 -0.1735  0.2225  0.0776
49625SOL    HW155733   2.841  11.159   1.151  0.4669  1.5774 -1.8964
49625SOL    HW255734   2.695  11.140   1.112 -0.4771 -1.2508  2.3576
49626SOL     OW55735  11.903   3.625   1.421  0.1774  0.3267  0.0876
49626SOL    HW155736  11.960   3.684   1.470  1.3423  0.6366 -1.5593
49626SOL    HW255737  11.960   3.552   1.397 -0.1500  0.5297 -1.3941
49627SOL     OW55738   3.858   1.552  10.604  0.0544  0.3052 -0.7149
49627SOL    HW155739   3.921   1.486  10.632 -1.3388 -0.4877  0.7345
49627SOL    HW255740   3.794   1.503  10.552 -0.1149  0.8361 -1.0168
49628SOL     OW55741   4.097  11.720   5.655  0.4430  0.3651 -0.5435
49628SOL    HW155742   4.074  11.631   5.683  1.5585  0.5113  0.9987
49628SOL    HW255743   4.016  11.770   5.665  0.0764 -0.2479 -0.3847
49629SOL     OW55744   6.362   2.404   7.629 -0.3855  0.5108  0.6307
49629SOL    HW155745   6.450   2.383   7.661 -0.8500 -3.8893 -0.3240
49629SOL    HW255746   6.374   2.428   7.538 -0.1799 -1.1274  0.1978
49630SOL     OW55747   5.846   6.592   8.823  0.1700  0.1241  0.4124
49630SOL    HW155748   5.838   6.687   8.834 -0.1136  0.5856 -2.8295
49630SOL    HW255749   5.761   6.565   8.788  0.3717 -1.2955  0.9636
49631SOL     OW55750   3.793   4.101   3.869 -0.8959 -0.0055 -0.7161
49631SOL    HW155751   3.794   4.181   3.920 -0.8614 -0.4278 -0.0500
49631SOL    HW255752   3.822   4.128   3.782  0.9687  0.3620 -0.0122
49632SOL     OW55753  12.005   7.058   8.741  0.7372  0.0117  0.2389
49632SOL    HW155754  12.059   7.003   8.798 -0.4064  0.1432  1.4934
49632SOL    HW255755  12.032   7.148   8.763 -0.7891  0.1464  1.7898
49633SOL     OW55756   4.776   2.392   5.436 -0.5357 -0.5066  0.3958
49633SOL    HW155757   4.855   2.447   5.442 -0.2412 -0.8424 -0.3048
49633SOL    HW255758   4.710   2.440   5.486 -0.4364  0.7617 -0.6143
49634SOL     OW55759   9.511   9.040   4.893  0.1705  0.2014 -0.2765
49634SOL    HW155760   9.516   8.979   4.967  1.6995 -1.4263 -1.6337
49634SOL    HW255761   9.574   9.109   4.914  0.3699 -0.0926  0.1019
49635SOL     OW55762  11.098   1.937  10.088 -0.2296 -0.2956  0.4971
49635SOL    HW155763  11.059   1.964  10.005 -1.0599  0.6508  1.1717
49635SOL    HW255764  11.115   1.843  10.077  2.0342  0.2631 -1.6426
49636SOL     OW55765  10.348  10.672   3.443 -0.1014  0.4135  0.6119
49636SOL    HW155766  10.433  10.658   3.484  0.0103  0.7319  0.4985
49636SOL    HW255767  10.285  10.666   3.514 -0.0358 -0.3484  0.6096
49637SOL     OW55768   3.046   0.270   1.800  0.6467 -0.8080  0.1088
49637SOL    HW155769   3.136   0.287   1.772  0.5442 -0.5697 -0.0815
49637SOL    HW255770   2.996   0.266   1.718  0.5533 -1.3440  0.1897
49638SOL     OW55771   8.483   3.398   7.854 -0.0443 -0.6949 -0.4619
49638SOL    HW155772   8.473   3.453   7.776  3.2630  0.6343 -0.1018
49638SOL    HW255773   8.447   3.450   7.925  1.9014  0.5862 -0.3321
49639SOL     OW55774  12.459   2.161   4.016 -0.3166 -0.1658 -0.4397
49639SOL    HW155775  12.508   2.241   4.037 -0.4881 -0.3639  0.7732
49639SOL    HW255776  12.368   2.184   4.032 -0.3216 -0.7441  0.4243
49640SOL     OW55777   8.586   6.916   2.647  0.1980 -0.0837  0.5645
49640SOL    HW155778   8.587   6.854   2.575 -0.4275  0.4948  0.0415
49640SOL    HW255779   8.678   6.923   2.675  0.4040 -0.5016 -0.0033
49641SOL     OW55780   0.224   9.472   3.407  0.0081  0.1651 -0.0751
49641SOL    HW155781   0.150   9.420   3.438 -0.6172  1.3913  0.5845
49641SOL    HW255782   0.263   9.420   3.337  0.3730 -1.8868  1.5658
49642SOL     OW55783   9.647   9.434   0.006 -0.5694 -0.0728 -0.1926
49642SOL    HW155784   9.700   9.431  -0.073  0.0307  0.3192  0.1937
49642SOL    HW255785   9.679   9.510   0.055 -0.5018 -0.6689  0.7246
49643SOL     OW55786  11.676  12.286   3.486 -0.2850  0.0082  0.0554
49643SOL    HW155787  11.715  12.319   3.568 -0.8017 -0.4648  0.5005
49643SOL    HW255788  11.751  12.253   3.436  0.0814  0.6541  0.1651
49644SOL     OW55789  11.370   7.049   7.546  0.0473 -0.0863  0.3914
49644SOL    HW155790  11.466   7.053   7.548  0.0662 -0.4885  0.2734
49644SOL    HW255791  11.342   7.141   7.551  0.4863  0.2267 -1.8305
49645SOL     OW55792   3.303   1.956   6.194 -0.4983  0.3711 -0.1143
49645SOL    HW155793   3.333   1.871   6.162  0.0601  1.1734 -1.8882
49645SOL    HW255794   3.209   1.957   6.176 -0.2898  0.5849 -1.3111
49646SOL     OW55795   9.192   7.073  10.205  0.1525 -0.4905  0.2019
49646SOL    HW155796   9.148   7.095  10.123  1.0517 -0.0761 -0.1774
49646SOL    HW255797   9.164   6.983  10.223  1.2092 -1.2121 -1.4409
49647SOL     OW55798   4.736   1.536   5.658  0.9709  0.4665  0.0384
49647SOL    HW155799   4.828   1.531   5.630  0.9199  3.0776 -0.9327
49647SOL    HW255800   4.690   1.575   5.584 -0.9783 -0.8644  0.4737
49648SOL     OW55801   3.136  10.639   2.647  0.1536  0.1104 -0.4069
49648SOL    HW155802   3.214  10.599   2.609  0.3657  1.3588 -1.3232
49648SOL    HW255803   3.101  10.571   2.706  1.3651 -0.8231 -0.7214
49649SOL     OW55804   4.518  10.219  12.567 -0.3553  0.3113  0.5523
49649SOL    HW155805   4.493  10.295  12.620  0.6869  1.4559 -0.5297
49649SOL    HW255806   4.538  10.255  12.481  2.7005 -0.8023  0.6742
49650SOL     OW55807   0.534   6.967  11.070 -0.2612  0.0969  0.3671
49650SOL    HW155808   0.625   6.938  11.079 -0.3949 -0.1469  0.9435
49650SOL    HW255809   0.528   6.998  10.979  0.8579  1.7559  0.8235
49651SOL     OW55810   9.915   2.757  11.247 -0.4611 -0.7945  0.8039
49651SOL    HW155811   9.950   2.718  11.167 -1.2733 -1.6232  0.8358
49651SOL    HW255812   9.959   2.841  11.254  1.3286 -1.6770  0.7014
49652SOL     OW55813   0.517   5.166   7.546 -0.2014 -0.1199 -0.3202
49652SOL    HW155814   0.498   5.120   7.628  1.2811 -2.2095 -1.0648
49652SOL    HW255815   0.602   5.207   7.561 -1.0657  1.6481 -0.0084
49653SOL     OW55816   1.384  11.264  11.746 -0.1535  1.0597  0.3866
49653SOL    HW155817   1.315  11.242  11.809  2.1279  1.0358  3.0361
49653SOL    HW255818   1.415  11.179  11.714  1.4591  0.7937  2.4849
49654SOL     OW55819   4.662   9.423   3.696 -0.2217 -0.2799 -0.4143
49654SOL    HW155820   4.709   9.475   3.630 -0.5556 -0.4560 -0.7943
49654SOL    HW255821   4.594   9.482   3.729 -0.7274 -0.5298 -0.9872
49655SOL     OW55822   0.881   1.606  12.143 -0.0853 -0.1684 -0.3093
49655SOL    HW155823   0.913   1.664  12.073  0.2059 -1.1230 -0.9792
49655SOL    HW255824   0.940   1.622  12.216 -1.8341  2.6842  0.6518
49656SOL     OW55825   1.772  11.884  10.090 -0.0783  0.1658 -0.4353
49656SOL    HW155826   1.719  11.832  10.030 -2.2021  1.0268  0.5931
49656SOL    HW255827   1.777  11.831  10.169 -0.5733  0.6546 -0.0681
49657SOL     OW55828   6.016   7.340  10.713  0.1464 -0.3256 -0.0741
49657SOL    HW155829   6.045   7.250  10.699 -0.4581 -0.1650 -3.0775
49657SOL    HW255830   5.921   7.333  10.721  0.2967 -0.2109  3.3506
49658SOL     OW55831   2.395   6.412   3.494  0.3594  0.0678 -0.2816
49658SOL    HW155832   2.362   6.497   3.521  1.5805  0.5763 -0.3105
49658SOL    HW255833   2.486   6.412   3.523  1.2175 -0.0892 -2.7194
49659SOL     OW55834  12.346   7.149  10.914  0.5461 -0.2539 -0.3461
49659SOL    HW155835  12.341   7.062  10.874  1.4903 -0.3778 -0.2164
49659SOL    HW255836  12.331   7.209  10.841 -2.3123 -0.5157 -0.0624
49660SOL     OW55837  11.406   1.777   9.819  0.2066  0.1152  0.0444
49660SOL    HW155838  11.494   1.752   9.792  0.4294  0.0563  0.8144
49660SOL    HW255839  11.412   1.791   9.914 -0.5174  0.5005  0.0453
49661SOL     OW55840   5.277   0.202   2.215 -0.2943 -0.0423 -0.3738
49661SOL    HW155841   5.192   0.165   2.192  0.2082 -1.5287  0.0660
49661SOL    HW255842   5.322   0.133   2.263  1.9712 -0.0635 -2.3560
49662SOL     OW55843   1.226   0.708  11.277  0.2404  0.0014  0.4653
49662SOL    HW155844   1.272   0.755  11.208 -1.1623  2.2165  0.9250
49662SOL    HW255845   1.134   0.731  11.264 -0.0686  0.4942  3.0005
49663SOL     OW55846   7.916   3.875   5.993 -0.3604  0.0322  0.0029
49663SOL    HW155847   7.978   3.841   6.057  1.2518  0.9212 -1.0254
49663SOL    HW255848   7.862   3.936   6.043 -0.9107 -1.2745  1.0658
49664SOL     OW55849   9.349   8.264  11.520  0.2676 -0.1613  0.1348
49664SOL    HW155850   9.428   8.213  11.534  0.0321 -0.4777  0.3245
49664SOL    HW255851   9.379   8.345  11.479  0.6533 -0.4069 -0.0652
49665SOL     OW55852   2.191   9.889   6.085 -0.9045  0.3803 -0.1228
49665SOL    HW155853   2.156   9.801   6.068  0.5132 -0.3945  0.7630
49665SOL    HW255854   2.212   9.888   6.179 -1.0512  1.7458 -0.0611
49666SOL     OW55855   2.023   9.352  10.478 -0.0639  0.7858 -0.3583
49666SOL    HW155856   2.043   9.258  10.479 -1.9973  0.2776  2.3745
49666SOL    HW255857   2.103   9.394  10.509  0.2956 -0.1407  0.0002
49667SOL     OW55858   8.349   2.906   0.908  0.1856 -0.6074 -0.0747
49667SOL    HW155859   8.346   2.824   0.956  0.1927 -1.8847 -2.1422
49667SOL    HW255860   8.348   2.881   0.815  0.0269  1.7218 -0.7920
49668SOL     OW55861   5.306   4.970   7.843 -0.7065  0.1079  0.3655
49668SOL    HW155862   5.352   4.901   7.795 -1.5072 -2.3720  2.8823
49668SOL    HW255863   5.375   5.032   7.869  0.3260 -0.6880 -0.4362
49669SOL     OW55864   0.144   5.608   0.013 -0.0799  0.3897 -0.7150
49669SOL    HW155865   0.227   5.656   0.011 -0.4118  0.9897 -2.3417
49669SOL    HW255866   0.135   5.574  -0.076 -0.6545 -1.3310 -0.0333
49670SOL     OW55867   3.204   4.664   9.796  0.1564  0.1913 -0.4154
49670SOL    HW155868   3.286   4.656   9.843  0.3940 -0.0826 -0.8755
49670SOL    HW255869   3.164   4.577   9.799  0.1320  0.1931 -0.6432
49671SOL     OW55870  11.292   7.598   2.930  0.0191  0.5365  0.2424
49671SOL    HW155871  11.367   7.581   2.873 -0.3398  0.6560 -0.2719
49671SOL    HW255872  11.232   7.525   2.914 -0.2450  0.7623  0.1858
49672SOL     OW55873   6.842  12.247   8.486 -0.2495  0.2244  0.0665
49672SOL    HW155874   6.923  12.298   8.483 -1.4396  2.1865 -0.8189
49672SOL    HW255875   6.824  12.227   8.394 -0.9667  0.1708  0.2154
49673SOL     OW55876   5.298  11.844  10.900  0.3694  0.6410 -0.0997
49673SOL    HW155877   5.207  11.862  10.875  0.2653 -2.4302 -2.5338
49673SOL    HW255878   5.293  11.818  10.992 -1.8340 -2.5666 -0.9776
49674SOL     OW55879   9.194   9.939   4.210 -0.1800  0.1456 -0.0443
49674SOL    HW155880   9.248   9.898   4.142 -1.4384  1.5115 -1.9697
49674SOL    HW255881   9.254   9.949   4.284  2.4719  2.1032 -2.2419
49675SOL     OW55882   2.604   1.334   1.267  0.3852 -0.2143 -0.0646
49675SOL    HW155883   2.686   1.382   1.275  0.5750 -0.7715  1.6098
49675SOL    HW255884   2.549   1.367   1.338  0.5169 -2.3809  1.1575
49676SOL     OW55885  10.957   0.749   1.347 -0.0486  0.3475 -0.1444
49676SOL    HW155886  10.915   0.682   1.401 -0.3231 -0.1992 -1.0092
49676SOL    HW255887  10.942   0.831   1.394 -0.0120 -0.1497  0.7579
49677SOL     OW55888   1.456   5.260   9.604  0.4008  0.3244 -0.2334
49677SOL    HW155889   1.405   5.340   9.596  0.3103  0.3256  0.2778
49677SOL    HW255890   1.511   5.275   9.681 -1.1402 -0.9119  1.1917
49678SOL     OW55891   2.762   2.633   9.116 -0.0226  0.0150 -0.0680
49678SOL    HW155892   2.779   2.631   9.021 -0.1542 -0.0624 -0.0904
49678SOL    HW255893   2.808   2.711   9.147 -0.1397  0.1479 -0.2266
49679SOL     OW55894   7.356   6.275   9.459  0.2998 -0.3027  0.0401
49679SOL    HW155895   7.399   6.190   9.456 -0.7818 -0.8279 -1.9912
49679SOL    HW255896   7.263   6.255   9.462  0.0375  0.8091 -0.3295
49680SOL     OW55897   1.898   2.681   3.414  0.2242 -0.4529  0.2822
49680SOL    HW155898   1.940   2.764   3.394 -0.3822 -0.3553 -0.6718
49680SOL    HW255899   1.957   2.637   3.474 -0.1000  1.2541  1.9175
49681SOL     OW55900   4.582   2.786  11.766  0.5141  0.1241 -0.0438
49681SOL    HW155901   4.644   2.821  11.830  1.9067 -0.0500 -1.2521
49681SOL    HW255902   4.563   2.697  11.797  2.2235 -0.4611 -0.5205
49682SOL     OW55903   0.110   1.594   1.064  0.5153  0.1856  0.6376
49682SOL    HW155904   0.119   1.689   1.052 -0.3875  0.5529  2.4837
49682SOL    HW255905   0.198   1.560   1.054  0.5804  0.8922 -2.1953
49683SOL     OW55906   9.980   8.278   6.498 -0.4068  0.0365 -0.2476
49683SOL    HW155907  10.038   8.243   6.565 -0.1667 -0.9879 -0.9625
49683SOL    HW255908  10.034   8.340   6.449  0.0537 -0.8198 -0.8308
49684SOL     OW55909   6.980   6.987   1.698  0.6219  0.0372  0.2589
49684SOL    HW155910   6.930   7.002   1.618 -0.0766  1.6382  0.9506
49684SOL    HW255911   6.916   6.956   1.761  1.2550 -1.6922  0.1185
49685SOL     OW55912   1.264  11.066   1.471 -0.0711 -0.4938 -0.2753
49685SOL    HW155913   1.223  11.149   1.498 -0.2647 -0.2999 -1.1326
49685SOL    HW255914   1.194  11.020   1.424  0.1274 -1.0182 -0.0607
49686SOL     OW55915   7.689  10.427  11.087 -0.1965  0.6797 -0.1793
49686SOL    HW155916   7.677  10.389  11.000  0.3513  0.5572 -0.2035
49686SOL    HW255917   7.600  10.435  11.122 -0.3338 -0.6078 -0.1853
49687SOL     OW55918   3.941   6.143   3.663 -0.2266 -0.5012 -0.1862
49687SOL    HW155919   4.011   6.198   3.625  0.5200  0.5934  2.5657
49687SOL    HW255920   3.958   6.056   3.628  1.2483  0.1627 -1.2300
49688SOL     OW55921   6.551   7.436   9.126 -0.1595 -0.6702  0.5119
49688SOL    HW155922   6.615   7.406   9.190 -0.5716 -0.7450  0.8966
49688SOL    HW255923   6.558   7.374   9.053 -0.5445 -1.3254  1.0190
49689SOL     OW55924   1.756   3.472   0.439  0.0737  0.0969  0.7531
49689SOL    HW155925   1.836   3.425   0.416 -0.0440  0.2370  0.0006
49689SOL    HW255926   1.699   3.458   0.363 -0.8892 -0.6094  1.5950
49690SOL     OW55927   8.827  11.006   4.479 -0.2091  0.2018  0.3887
49690SOL    HW155928   8.847  10.927   4.428 -0.2376 -0.3714  1.2349
49690SOL    HW255929   8.735  10.994   4.506 -0.2965  0.6551  0.2997
49691SOL     OW55930   8.367   6.955   2.309  0.5472 -0.2529 -0.2103
49691SOL    HW155931   8.308   6.924   2.241  0.1602  1.1639 -0.5672
49691SOL    HW255932   8.391   6.877   2.358 -1.2819 -0.9241 -0.3137
49692SOL     OW55933   9.607   3.500   3.255 -0.6283 -0.2480  0.0601
49692SOL    HW155934   9.699   3.509   3.228 -1.1435  0.1232 -1.6804
49692SOL    HW255935   9.572   3.589   3.253 -0.8323 -0.2548  1.6143
49693SOL     OW55936   3.706   1.863   7.866 -0.3040 -0.2801  0.0941
49693SOL    HW155937   3.783   1.914   7.890 -1.1720  1.2366 -0.1916
49693SOL    HW255938   3.637   1.928   7.855 -2.3382 -1.7162  2.8926
49694SOL     OW55939   8.345   6.157   6.883 -0.0180  0.1798  0.2214
49694SOL    HW155940   8.427   6.135   6.928  0.0118  0.9573  0.5776
49694SOL    HW255941   8.346   6.103   6.804  2.0691  1.9138 -1.0765
49695SOL     OW55942   6.126  12.393   4.712 -0.5998  0.3555 -0.2310
49695SOL    HW155943   6.030  12.386   4.708 -0.5982  0.4701 -0.5484
49695SOL    HW255944   6.143  12.451   4.786 -0.7974  0.6533 -0.4111
49696SOL     OW55945   9.136   8.544   4.635  0.2613  0.1295 -0.2500
49696SOL    HW155946   9.192   8.491   4.579  0.8454  0.2988  0.1617
49696SOL    HW255947   9.157   8.516   4.724 -1.7551 -1.2190 -0.1435
49697SOL     OW55948   2.061   3.141   8.161  0.0193  0.6285  0.9642
49697SOL    HW155949   2.131   3.197   8.128  0.6938 -0.8593 -0.2906
49697SOL    HW255950   1.981   3.192   8.149  0.6232  1.4111  0.0834
49698SOL     OW55951  11.987   2.222  11.617 -0.2467  0.1534  0.2333
49698SOL    HW155952  12.046   2.289  11.583  1.1130 -1.1519 -0.0854
49698SOL    HW255953  11.940   2.265  11.689  0.8970  1.3140  0.3176
49699SOL     OW55954   9.869   3.292  11.278  0.3073  0.6769  0.0526
49699SOL    HW155955   9.864   3.272  11.185 -0.7080  0.9898  0.0311
49699SOL    HW255956   9.797   3.354  11.294 -1.0043 -1.1126  1.4761
49700SOL     OW55957   5.359   1.363   8.360  0.3193  0.1727 -0.5884
49700SOL    HW155958   5.430   1.303   8.381 -0.1598 -0.3772 -0.5194
49700SOL    HW255959   5.280   1.312   8.371 -0.2116  1.3034  1.1815
49701SOL     OW55960  10.282   4.296   8.726 -0.4607 -0.4586  0.0957
49701SOL    HW155961  10.358   4.287   8.784 -0.1166  0.6944 -0.1422
49701SOL    HW255962  10.302   4.373   8.673 -2.8739  1.4651  1.7234
49702SOL     OW55963   7.190   4.825   9.045  0.0347  0.6547 -0.5547
49702SOL    HW155964   7.218   4.766   8.975  0.9037 -0.6089  0.7891
49702SOL    HW255965   7.261   4.889   9.052  1.0019 -0.4622  0.4993
49703SOL     OW55966   5.664   3.245   9.158  0.2330 -0.4236 -0.0017
49703SOL    HW155967   5.642   3.152   9.148 -1.6112  0.0043 -0.2616
49703SOL    HW255968   5.673   3.277   9.069  1.2106 -0.3999  0.0922
49704SOL     OW55969   8.151   3.206   0.575 -0.0006 -0.3538  0.6046
49704SOL    HW155970   8.136   3.123   0.529  0.4883  0.9029 -1.9928
49704SOL    HW255971   8.226   3.189   0.632  0.3395 -1.5999 -0.1714
49705SOL     OW55972   5.013  12.211   7.106  0.2357  0.2883  0.1064
49705SOL    HW155973   5.039  12.119   7.098 -0.0121 -0.2280  3.7371
49705SOL    HW255974   5.069  12.257   7.044 -0.0039 -2.3092 -2.2305
49706SOL     OW55975   8.441  12.215  10.501  0.1078 -0.7283  0.1930
49706SOL    HW155976   8.462  12.293  10.448 -3.7117  0.2439 -0.1836
49706SOL    HW255977   8.388  12.160  10.442 -0.0142 -2.0641  1.4974
49707SOL     OW55978   7.533   2.702   6.215 -0.0563  0.2701 -0.0145
49707SOL    HW155979   7.440   2.688   6.231 -0.0437 -0.8531 -0.8475
49707SOL    HW255980   7.536   2.770   6.147 -0.2809 -0.0291 -0.3244
49708SOL     OW55981  10.867   3.483  12.096  0.5446 -0.3589 -0.2908
49708SOL    HW155982  10.811   3.406  12.107  0.8551 -0.3637  1.7033
49708SOL    HW255983  10.820   3.539  12.034 -1.4194 -0.6143  0.8855
49709SOL     OW55984   5.197   7.627   4.670  0.3910  0.0587  0.5179
49709SOL    HW155985   5.227   7.616   4.760  0.8717  1.5493  0.5676
49709SOL    HW255986   5.162   7.541   4.646  1.2225 -0.6581  1.7517
49710SOL     OW55987   8.267   0.287   3.087  0.2635 -0.5983  0.2061
49710SOL    HW155988   8.323   0.286   3.010  1.6942  0.2776  1.1750
49710SOL    HW255989   8.252   0.195   3.108  0.0509 -0.8442 -0.9549
49711SOL     OW55990  11.941   2.169   5.748 -0.0100  0.4653  0.3032
49711SOL    HW155991  11.978   2.094   5.795 -0.0224  0.2398 -0.0506
49711SOL    HW255992  11.864   2.135   5.705  1.3359  0.0540 -1.9266
49712SOL     OW55993   3.809   5.282   4.296 -0.4115 -0.5090  0.2448
49712SOL    HW155994   3.763   5.363   4.274  0.0446 -0.0399  0.9636
49712SOL    HW255995   3.890   5.312   4.339  0.5025 -1.3182 -0.8598
49713SOL     OW55996  10.413   6.455  11.577 -0.2628  0.6463  0.2122
49713SOL    HW155997  10.478   6.455  11.507  0.6767 -1.4862  1.0001
49713SOL    HW255998  10.330   6.474  11.533  0.1539 -1.4820 -1.6801
49714SOL     OW55999   4.793   7.288  10.743  0.4481 -0.0725 -0.5505
49714SOL    HW156000   4.870   7.233  10.760  0.2844 -0.5512 -1.3263
49714SOL    HW256001   4.753   7.250  10.665  1.5512  2.4468 -2.4571
49715SOL     OW56002   5.993   7.892   0.302  0.5573 -0.1362  0.3860
49715SOL    HW156003   5.971   7.801   0.323  1.0928 -0.2496  0.4533
49715SOL    HW256004   5.941   7.912   0.224 -0.0547 -0.2928  0.7481
49716SOL     OW56005   5.601   1.590   0.949  0.1475 -0.1218 -0.3840
49716SOL    HW156006   5.618   1.501   0.978  1.2888 -0.4628 -1.9307
49716SOL    HW256007   5.684   1.636   0.963  0.5644 -0.1474 -2.3585
49717SOL     OW56008   8.110  10.811   7.564  0.3754 -0.1084  0.4390
49717SOL    HW156009   8.134  10.814   7.472 -0.6620 -0.8018  0.1227
49717SOL    HW256010   8.159  10.883   7.604  0.8819  0.1669 -0.6375
49718SOL     OW56011   4.526   1.918  11.868 -0.4964 -0.2469 -0.2737
49718SOL    HW156012   4.589   1.946  11.934 -0.7465 -0.4922  0.0744
49718SOL    HW256013   4.521   1.991  11.807  0.7031 -0.5324 -0.7369
49719SOL     OW56014   2.334   2.386  10.566  0.7340 -0.5713  0.6048
49719SOL    HW156015   2.277   2.409  10.493  1.3082  0.7301  0.5345
49719SOL    HW256016   2.275   2.378  10.641  0.2346 -1.1610  0.1578
49720SOL     OW56017   0.911   3.763   3.708 -0.2138  0.3568 -0.3969
49720SOL    HW156018   0.832   3.818   3.713  0.4821  1.2998  0.7001
49720SOL    HW256019   0.943   3.776   3.618 -2.0019 -1.0986 -1.3214
49721SOL     OW56020   2.635   6.538  11.458 -0.0882 -0.7675  0.9723
49721SOL    HW156021   2.708   6.598  11.470 -0.5862 -0.3675  2.0582
49721SOL    HW256022   2.581   6.578  11.390  0.8810 -1.2601 -0.1219
49722SOL     OW56023   6.274   9.146   6.844 -0.3018  0.5737 -0.2435
49722SOL    HW156024   6.237   9.086   6.909 -0.4443  1.2803  0.3338
49722SOL    HW256025   6.234   9.119   6.762 -1.4359  0.7658  0.2370
49723SOL     OW56026   1.014   8.170   2.595 -0.1445 -0.3801 -0.0343
49723SOL    HW156027   1.086   8.173   2.659 -0.8409 -2.1727  0.9236
49723SOL    HW256028   1.047   8.219   2.519  1.4817  0.1333  0.9493
49724SOL     OW56029   5.830   7.426   4.056 -0.0796  0.0610  0.6774
49724SOL    HW156030   5.743   7.389   4.038  0.4398 -2.3835  2.7223
49724SOL    HW256031   5.873   7.361   4.111  2.2669  2.2220  1.5692
49725SOL     OW56032   3.352   5.661   9.667 -0.3034  0.3887  0.4767
49725SOL    HW156033   3.309   5.745   9.649 -0.6895  0.2229  0.6136
49725SOL    HW256034   3.360   5.620   9.581  0.7792  0.9858  0.2790
49726SOL     OW56035   0.927   5.385   5.065 -0.4446 -0.2464 -0.3714
49726SOL    HW156036   1.005   5.362   5.014 -0.3003 -1.0317  0.1834
49726SOL    HW256037   0.923   5.480   5.061 -0.0354 -0.2523 -1.2581
49727SOL     OW56038   8.623   1.025   0.968  0.1975 -0.0495 -0.0878
49727SOL    HW156039   8.567   1.075   0.909  0.8238  0.3937 -0.3182
49727SOL    HW256040   8.709   1.026   0.926  0.5267 -0.1865  0.5684
49728SOL     OW56041  10.179   9.992   2.599  0.2147 -0.0517  0.6696
49728SOL    HW156042  10.150  10.083   2.606  0.3680  0.2406 -1.7579
49728SOL    HW256043  10.267   9.993   2.637  0.7297  1.1206 -0.4693
49729SOL     OW56044   4.707   8.030   6.852 -0.7120 -0.1467 -0.4050
49729SOL    HW156045   4.714   8.119   6.820 -1.1400  0.8757  2.1139
49729SOL    HW256046   4.614   8.016   6.867 -0.5086 -0.3777  0.7798
49730SOL     OW56047   4.692   6.326  11.825  0.9820 -0.1106 -0.2053
49730SOL    HW156048   4.612   6.318  11.877 -2.0144  0.9198 -4.1643
49730SOL    HW256049   4.740   6.398  11.865 -0.5963 -0.0332  1.6891
49731SOL     OW56050   8.243  10.686  12.181 -0.1686  0.0864  0.3523
49731SOL    HW156051   8.217  10.684  12.089 -0.1833 -0.0743  0.3593
49731SOL    HW256052   8.291  10.768  12.191 -1.7420  1.0057  0.6218
49732SOL     OW56053   3.755   1.657   8.636  0.0990 -0.3541 -0.3565
49732SOL    HW156054   3.704   1.721   8.685  0.3516 -0.5292  0.1457
49732SOL    HW256055   3.841   1.697   8.625 -0.6667  0.7854 -2.9214
49733SOL     OW56056   2.791   3.744  11.935 -1.0440 -0.4143  0.2658
49733SOL    HW156057   2.739   3.731  11.856  0.5051 -1.2993 -0.6475
49733SOL    HW256058   2.880   3.756  11.904 -0.7970  2.2908  1.7130
49734SOL     OW56059   7.479   9.869   1.070  0.2075  0.3607 -0.2534
49734SOL    HW156060   7.508   9.780   1.087  0.7261  0.5333 -0.2235
49734SOL    HW256061   7.391   9.859   1.033  0.0672 -0.1337  0.2117
49735SOL     OW56062   3.824   9.277  11.376  0.0320  0.2624  0.1519
49735SOL    HW156063   3.908   9.280  11.331 -1.4190  1.5396 -2.7120
49735SOL    HW256064   3.842   9.229  11.457  3.1108 -1.1186 -1.1832
49736SOL     OW56065  10.313   9.358   1.572  0.3744  0.4726 -0.1356
49736SOL    HW156066  10.315   9.451   1.592  0.3216  0.5282 -0.3892
49736SOL    HW256067  10.243   9.349   1.507  1.6365  0.5298 -1.5317
49737SOL     OW56068   8.234   8.419   7.419 -0.7226  0.8376 -0.1846
49737SOL    HW156069   8.329   8.412   7.405 -0.9750  0.6466 -1.8933
49737SOL    HW256070   8.195   8.394   7.336 -2.3155  0.2846  0.6995
49738SOL     OW56071   1.408   5.264   5.707  0.2353 -0.0220  0.8025
49738SOL    HW156072   1.382   5.214   5.630  1.3963 -2.2291  1.7447
49738SOL    HW256073   1.422   5.353   5.675 -2.0955 -0.1961 -0.9196
49739SOL     OW56074   6.245   9.036   8.855 -0.0008  0.4032 -0.0630
49739SOL    HW156075   6.337   9.010   8.851 -0.0664  0.2710 -0.8416
49739SOL    HW256076   6.230   9.055   8.948  0.1852 -1.8419  0.4848
49740SOL     OW56077   6.055   8.569  12.098  0.0147 -0.9798 -0.5896
49740SOL    HW156078   6.078   8.656  12.129 -0.6819 -0.2082 -2.1742
49740SOL    HW256079   5.960   8.569  12.092 -0.0534 -2.1021  0.0497
49741SOL     OW56080  10.482   4.443  11.477  0.4602  0.0957 -0.0516
49741SOL    HW156081  10.496   4.533  11.506  0.4071 -0.0172  0.3338
49741SOL    HW256082  10.472   4.449  11.382 -1.2032  0.7107  0.1188
49742SOL     OW56083   7.058   2.216   8.512 -0.2122 -0.0644  0.5655
49742SOL    HW156084   7.105   2.252   8.437 -1.4343  0.1376 -0.1371
49742SOL    HW256085   7.026   2.131   8.481 -2.5892  0.9379  0.0355
49743SOL     OW56086   7.744   8.054   8.272  0.4422  0.0890 -0.1548
49743SOL    HW156087   7.789   8.051   8.357 -0.0253  0.6018  0.1176
49743SOL    HW256088   7.727   8.147   8.258 -1.1803 -0.1531  0.1014
49744SOL     OW56089   2.762   3.590  11.651  0.6979 -0.3587 -0.1246
49744SOL    HW156090   2.701   3.518  11.665  0.0913  0.0783 -0.4609
49744SOL    HW256091   2.718   3.647  11.588  1.4811 -0.0592 -0.4131
49745SOL     OW56092  11.177   6.657   6.316 -0.3706 -0.1005  0.4372
49745SOL    HW156093  11.222   6.727   6.364 -0.9859 -1.0188  2.4679
49745SOL    HW256094  11.234   6.638   6.241  1.1717  0.7035  1.3644
49746SOL     OW56095   3.570   6.079   2.133 -0.2528 -0.2718 -0.7507
49746SOL    HW156096   3.585   6.132   2.211  0.4550 -0.1825 -0.9392
49746SOL    HW256097   3.478   6.053   2.138 -0.2111 -0.2635  0.1083
49747SOL     OW56098   1.249  10.378  12.458 -0.0964 -0.0201 -0.1885
49747SOL    HW156099   1.313  10.446  12.481 -0.1316 -0.0799  0.0888
49747SOL    HW256100   1.297  10.296  12.469 -0.8881 -0.2298  2.4107
49748SOL     OW56101   2.174   8.101   9.074  0.9693  0.0106  0.1470
49748SOL    HW156102   2.112   8.105   9.001  1.7463  0.8627 -0.4851
49748SOL    HW256103   2.260   8.095   9.033  1.4072  0.2946  0.9923
49749SOL     OW56104   0.423   0.212   9.870  0.1990 -0.3529 -0.0761
49749SOL    HW156105   0.356   0.206   9.939  0.9641 -1.2520  0.6192
49749SOL    HW256106   0.453   0.302   9.873 -0.2599 -0.2062  0.3049
49750SOL     OW56107   8.159  11.252   6.956 -0.2238 -0.4403  0.0226
49750SOL    HW156108   8.153  11.254   7.052  1.6018  1.4109  0.1679
49750SOL    HW256109   8.240  11.205   6.938 -0.1896 -0.1591 -0.5840
49751SOL     OW56110   6.718   0.413   2.591  0.4045 -0.3948  0.4642
49751SOL    HW156111   6.648   0.347   2.595 -0.4719  0.4722  0.0193
49751SOL    HW256112   6.770   0.389   2.514  0.2860 -0.7606  0.4979
49752SOL     OW56113   0.595   6.086   4.946  0.2519  0.2196 -0.1838
49752SOL    HW156114   0.631   5.998   4.954  0.2470  0.2863  0.6439
49752SOL    HW256115   0.568   6.093   4.854 -0.0655 -0.7660 -0.1705
49753SOL     OW56116   0.383   1.375   6.024 -0.0483 -0.0460  0.1041
49753SOL    HW156117   0.437   1.298   6.005 -1.0205 -0.3236 -1.7409
49753SOL    HW256118   0.436   1.428   6.083  1.4903 -1.1546 -0.2332
49754SOL     OW56119   3.442  12.031   1.245  0.2952  0.2391  0.7320
49754SOL    HW156120   3.519  12.034   1.188  0.1837 -0.4983  0.5348
49754SOL    HW256121   3.395  11.952   1.217  0.4056 -0.3144  2.0748
49755SOL     OW56122   9.100   8.043   5.615 -0.0510 -0.4964  0.0709
49755SOL    HW156123   9.137   8.051   5.527  1.3284 -1.4968  0.5280
49755SOL    HW256124   9.017   7.997   5.602  0.5549 -1.4144 -0.6230
49756SOL     OW56125   9.225   3.528   0.703 -0.1829  0.0186  0.3312
49756SOL    HW156126   9.130   3.533   0.689  0.0515  0.5443 -1.3744
49756SOL    HW256127   9.244   3.596   0.767 -0.7376  1.2545 -0.7759
49757SOL     OW56128  11.715   4.474   9.586  0.1804 -0.4054 -0.4060
49757SOL    HW156129  11.800   4.517   9.603  0.2441 -0.3963 -0.7526
49757SOL    HW256130  11.661   4.543   9.548 -0.3020 -0.1381  0.7123
49758SOL     OW56131   4.537   6.616   6.260  0.6314 -0.3890  0.1224
49758SOL    HW156132   4.629   6.642   6.260 -0.0881  2.6334  1.3820
49758SOL    HW256133   4.518   6.590   6.170  2.7801 -1.5126 -0.0499
49759SOL     OW56134   1.202   5.142   9.902  0.4820  0.6344  0.2000
49759SOL    HW156135   1.249   5.224   9.887  0.2656  0.7905  0.3731
49759SOL    HW256136   1.262   5.090   9.955  0.5018  0.7923  0.3327
49760SOL     OW56137   4.734  12.471   4.416  0.2608  0.1859 -0.2304
49760SOL    HW156138   4.641  12.462   4.394 -0.4661  3.6149  0.7476
49760SOL    HW256139   4.779  12.471   4.331 -0.9032  0.5194 -0.8769
49761SOL     OW56140   7.835   0.075  12.201  0.2278  0.0023 -0.1821
49761SOL    HW156141   7.765   0.058  12.264  1.8486 -0.7452  1.5130
49761SOL    HW256142   7.791   0.117  12.127 -1.8589  0.3552  1.1690
49762SOL     OW56143   3.167  11.135  12.508 -0.7322 -0.0659 -0.8055
49762SOL    HW156144   3.165  11.051  12.462 -0.9323 -0.2437 -0.4686
49762SOL    HW256145   3.198  11.114  12.596  1.4046  0.5116 -1.3641
49763SOL     OW56146  12.081   0.375   3.404 -0.6871 -0.0437  0.3649
49763SOL    HW156147  12.006   0.425   3.374 -1.7001 -1.9003 -0.3523
49763SOL    HW256148  12.094   0.307   3.338  1.4913  0.0644  0.5890
49764SOL     OW56149   7.338   9.856   4.564  0.0806  0.2302  0.0328
49764SOL    HW156150   7.323   9.783   4.503 -0.6758 -1.2439  1.8700
49764SOL    HW256151   7.251   9.893   4.577  0.2672  0.6521  0.0761
49765SOL     OW56152   5.059  10.006   2.990  0.8766 -0.1509 -0.4698
49765SOL    HW156153   5.151   9.986   3.010  1.0291  0.8895 -0.0684
49765SOL    HW256154   5.064  10.081   2.931  0.2734  0.0939 -0.2148
49766SOL     OW56155   8.440   6.408   2.101  0.2702 -0.2566 -0.6663
49766SOL    HW156156   8.386   6.480   2.135 -0.4268  0.3593 -2.8681
49766SOL    HW256157   8.379   6.335   2.092  0.5446 -0.5456 -0.2089
49767SOL     OW56158   2.549   4.520   4.709  0.0948 -0.0046 -0.8898
49767SOL    HW156159   2.480   4.461   4.678 -1.4418  1.5571 -0.6350
49767SOL    HW256160   2.506   4.573   4.776  1.9044  0.2302  0.1321
49768SOL     OW56161  10.491   7.117   1.836 -0.1355 -0.2660  0.3793
49768SOL    HW156162  10.488   7.161   1.751 -0.6550  0.4222  0.7464
49768SOL    HW256163  10.567   7.154   1.880  0.2306 -0.7415  0.1632
49769SOL     OW56164  10.711   0.126   2.663  0.5427  0.8726 -0.9422
49769SOL    HW156165  10.759   0.171   2.732 -0.7533  0.8132  0.0479
49769SOL    HW256166  10.721   0.033   2.683 -0.0943  0.8642 -0.6236
49770SOL     OW56167  10.125   5.071   9.624 -0.3627  0.2252  0.5349
49770SOL    HW156168  10.216   5.079   9.597 -0.4366 -1.5989 -0.3629
49770SOL    HW256169  10.106   5.154   9.667  1.4266  1.0161 -0.1046
49771SOL     OW56170   3.120   4.949  11.860 -0.1539 -0.0599  0.7814
49771SOL    HW156171   3.073   4.987  11.935 -0.8357 -0.5113  0.5975
49771SOL    HW256172   3.103   5.011  11.788  0.4692  0.3539  0.9872
49772SOL     OW56173  12.113  10.487   1.821 -0.5304  0.0684  0.0762
49772SOL    HW156174  12.143  10.406   1.861 -0.3673  0.7068  1.3041
49772SOL    HW256175  12.047  10.459   1.756  1.3985 -1.2115 -1.4447
49773SOL     OW56176   4.117   7.569   6.647  0.3852 -0.1067  0.2865
49773SOL    HW156177   4.166   7.504   6.597  0.8300  1.1531 -1.0106
49773SOL    HW256178   4.038   7.523   6.676  1.0953 -1.4431  0.1606
49774SOL     OW56179   7.693   3.113  11.691  0.3634  0.1124  0.4513
49774SOL    HW156180   7.735   3.049  11.749 -2.5644 -2.4459 -0.0046
49774SOL    HW256181   7.618   3.145  11.741 -0.2756  0.4210 -0.6846
49775SOL     OW56182   2.327   8.097   0.602  0.1687  0.2032 -0.1623
49775SOL    HW156183   2.245   8.132   0.569 -0.8844 -0.5094  1.5997
49775SOL    HW256184   2.394   8.150   0.560 -1.0813 -0.1370 -2.7793
49776SOL     OW56185   6.215   7.848   0.016 -0.0598 -0.1714  0.2335
49776SOL    HW156186   6.291   7.792   0.030 -0.1551 -0.6143 -0.9473
49776SOL    HW256187   6.229   7.886  -0.071 -0.8469  0.3046  0.3055
49777SOL     OW56188   5.617   0.225   3.338 -0.1640 -0.1846  0.5074
49777SOL    HW156189   5.535   0.227   3.288 -0.5443  0.8488  1.1262
49777SOL    HW256190   5.605   0.292   3.406  0.6185 -1.0481  1.5374
49778SOL     OW56191   2.962   1.753   2.039  0.3198 -0.0542  0.4296
49778SOL    HW156192   2.951   1.847   2.053  1.8854  0.2997 -0.4998
49778SOL    HW256193   2.968   1.744   1.944 -2.6328 -1.4793  0.2633
49779SOL     OW56194   5.632   4.862  11.667 -0.3174 -0.1098 -0.1144
49779SOL    HW156195   5.620   4.905  11.582 -0.3043  0.8228  0.3396
49779SOL    HW256196   5.726   4.846  11.674 -0.4210 -0.9924 -0.6469
49780SOL     OW56197   2.993   6.159   9.363 -0.1086  0.2730  0.1873
49780SOL    HW156198   2.979   6.195   9.275  1.3623 -0.5878 -0.4545
49780SOL    HW256199   3.083   6.126   9.360 -0.3558 -0.6126  1.7339
49781SOL     OW56200   0.876   6.215   5.651  0.3954  0.1489  0.2331
49781SOL    HW156201   0.852   6.190   5.740  0.7763 -1.2630 -0.0298
49781SOL    HW256202   0.808   6.175   5.596 -0.3017  1.7023 -0.0726
49782SOL     OW56203   5.652   8.737   7.491  0.0381 -0.4177  0.3873
49782SOL    HW156204   5.688   8.649   7.496  0.9040 -0.1035 -0.1446
49782SOL    HW256205   5.566   8.726   7.449  1.0971 -0.7801 -1.8251
49783SOL     OW56206   6.921   8.879   4.217  0.2182 -0.3659 -0.0463
49783SOL    HW156207   7.011   8.909   4.228  0.4721 -1.1829  0.1307
49783SOL    HW256208   6.885   8.935   4.148  0.9867 -0.3266 -0.4178
49784SOL     OW56209   4.837   2.636   9.705  0.2570 -0.2306  0.7351
49784SOL    HW156210   4.759   2.589   9.675 -0.9807  0.5593  2.5435
49784SOL    HW256211   4.823   2.726   9.679  1.4476 -0.3633 -0.4930
49785SOL     OW56212   7.155   1.357  12.278 -1.2404  0.1139 -0.1317
49785SOL    HW156213   7.102   1.425  12.236  1.6113  1.3775 -2.0097
49785SOL    HW256214   7.146   1.374  12.372 -3.1995  0.9553 -0.4336
49786SOL     OW56215   8.261   1.173  11.076  0.3171  0.4110 -0.4893
49786SOL    HW156216   8.168   1.154  11.068  0.6485 -1.6929 -0.0174
49786SOL    HW256217   8.285   1.135  11.161  1.5782  1.0469 -0.5427
49787SOL     OW56218  11.927  12.256  10.816 -0.9164  0.3935 -0.5375
49787SOL    HW156219  11.880  12.245  10.900  0.2407 -0.5915  0.0188
49787SOL    HW256220  11.916  12.171  10.772  3.0040 -1.2067  1.0738
49788SOL     OW56221   0.090   3.635   8.783 -0.8829 -0.2014 -0.6344
49788SOL    HW156222   0.150   3.639   8.709  0.2687  0.4742  0.3017
49788SOL    HW256223   0.003   3.641   8.743 -0.2936  0.1208 -1.9293
49789SOL     OW56224   2.100  10.227  11.606 -0.2026  0.6435 -0.3634
49789SOL    HW156225   2.049  10.171  11.548 -0.5072  1.2102 -0.6507
49789SOL    HW256226   2.051  10.228  11.688 -1.0391  1.7290 -0.8506
49790SOL     OW56227  12.308   9.947   1.879 -0.5423  0.2610  0.5384
49790SOL    HW156228  12.389   9.981   1.842 -0.2509 -0.5370  0.4401
49790SOL    HW256229  12.324   9.943   1.973  0.4116 -2.1404  0.3279
49791SOL     OW56230   3.666   1.038   8.177 -0.1934 -0.0592 -0.3094
49791SOL    HW156231   3.755   1.072   8.166  0.0249 -0.1532  0.9680
49791SOL    HW256232   3.659   1.021   8.271 -1.5243 -0.1697 -0.4139
49792SOL     OW56233   0.337   9.417  10.701 -0.6332  0.3609  0.2580
49792SOL    HW156234   0.358   9.429  10.608  1.2951  0.9167  0.7098
49792SOL    HW256235   0.306   9.327  10.707 -1.0566  0.4081 -0.9591
49793SOL     OW56236   2.457   9.554   8.198 -0.6179  0.1591 -0.4841
49793SOL    HW156237   2.377   9.594   8.163 -1.7838 -0.2510  1.5456
49793SOL    HW256238   2.453   9.463   8.168 -0.6978  0.2319 -0.7020
49794SOL     OW56239   0.317   0.858   0.697  0.0198  0.1783  0.4720
49794SOL    HW156240   0.335   0.769   0.727 -2.2100  0.1166  1.8362
49794SOL    HW256241   0.271   0.847   0.614  1.8451  0.2006 -0.6040
49795SOL     OW56242   8.329  11.211  10.521  0.9112  0.9114 -0.4956
49795SOL    HW156243   8.286  11.242  10.441 -3.4896 -3.2315 -0.2369
49795SOL    HW256244   8.386  11.140  10.491  0.1652  0.1420 -0.1365
49796SOL     OW56245   4.480  10.434   9.459  0.3075 -0.1158  0.0304
49796SOL    HW156246   4.506  10.359   9.513 -1.6061 -1.4305 -0.7587
49796SOL    HW256247   4.470  10.398   9.371 -0.0268  1.2258 -0.5071
49797SOL     OW56248   1.869   4.192  11.042  0.0153 -0.4783 -0.4830
49797SOL    HW156249   1.899   4.276  11.007  0.8682 -1.0729 -1.1963
49797SOL    HW256250   1.807   4.217  11.112  0.6895  0.7471 -0.2892
49798SOL     OW56251   5.931  11.589   5.168 -0.4012  0.1351 -0.1616
49798SOL    HW156252   5.907  11.518   5.228  1.7688 -0.8183 -0.3138
49798SOL    HW256253   5.874  11.577   5.092 -0.9281 -0.6696  0.3473
49799SOL     OW56254   7.658   1.057   6.330 -0.0937  0.3451 -0.2081
49799SOL    HW156255   7.638   1.083   6.240  0.1456  0.7325 -0.1491
49799SOL    HW256256   7.729   0.993   6.321 -1.7068 -1.5282 -0.4689
49800SOL     OW56257   7.062   4.496   8.299 -0.3640 -0.3700 -0.1187
49800SOL    HW156258   7.019   4.427   8.348 -0.6296  0.5355  0.9667
49800SOL    HW256259   7.108   4.451   8.229  0.6261 -1.7982  1.3838
49801SOL     OW56260   2.177   7.402   5.355  0.5680  0.1759  0.2437
49801SOL    HW156261   2.156   7.424   5.265  1.2293  1.2460  0.3282
49801SOL    HW256262   2.273   7.406   5.359  0.5453  0.1316  0.9899
49802SOL     OW56263   6.654   6.972   0.977 -0.8556 -0.2737 -0.0566
49802SOL    HW156264   6.613   7.055   1.002  1.3953  0.5776  1.0528
49802SOL    HW256265   6.659   6.922   1.059  0.0546 -0.4643 -0.2227
49803SOL     OW56266   7.337   9.348   4.110  0.4300  0.6760 -0.2224
49803SOL    HW156267   7.363   9.440   4.100  1.0112  0.4203 -1.2230
49803SOL    HW256268   7.333   9.334   4.204 -2.1552  2.4007  0.0046
49804SOL     OW56269  12.345   7.186   4.218 -0.2089  0.3139  0.4450
49804SOL    HW156270  12.404   7.250   4.259 -1.7943  3.4862 -1.7956
49804SOL    HW256271  12.288   7.157   4.290  1.9419 -0.3848  1.9791
49805SOL     OW56272   9.828  10.000   7.533 -0.6111  0.1559  0.0371
49805SOL    HW156273   9.744  10.043   7.552 -0.3381  0.5918  0.2712
49805SOL    HW256274   9.803   9.921   7.485 -1.1080  0.7432 -0.7132
49806SOL     OW56275   0.485  12.355   0.472 -0.2142 -0.7203  0.0788
49806SOL    HW156276   0.510  12.353   0.380  1.6939  0.2586  0.5300
49806SOL    HW256277   0.400  12.399   0.472  0.8231  1.4888 -1.0743
49807SOL     OW56278   3.794   9.762  12.435  0.1014  0.5581 -0.2448
49807SOL    HW156279   3.824   9.823  12.368 -1.0608  0.6096 -0.7280
49807SOL    HW256280   3.800   9.811  12.517 -0.2763  1.1211 -0.5554
49808SOL     OW56281   9.594   7.181   6.618 -0.4385  0.5345  0.1995
49808SOL    HW156282   9.667   7.209   6.673 -0.5695 -1.9254  1.7554
49808SOL    HW256283   9.537   7.132   6.676  0.1139 -3.4450 -2.2690
49809SOL     OW56284   8.069   3.498   6.347  0.7102 -0.0323  0.1090
49809SOL    HW156285   8.146   3.509   6.403  1.3870  0.3609 -0.8810
49809SOL    HW256286   8.093   3.427   6.287 -0.0419 -0.5129  0.3627
49810SOL     OW56287   7.504   2.214   7.616  0.7623 -0.5096 -0.0402
49810SOL    HW156288   7.536   2.125   7.603 -3.7657 -2.2194 -1.5121
49810SOL    HW256289   7.526   2.259   7.534  0.0603 -1.4085 -0.7422
49811SOL     OW56290  12.376   5.014   5.499  0.4825 -0.0419  0.3090
49811SOL    HW156291  12.433   4.971   5.435 -1.8395 -1.6854 -0.8492
49811SOL    HW256292  12.435   5.049   5.566  2.8825 -0.0822 -1.6709
49812SOL     OW56293   3.094   2.608   7.698 -0.2745  0.5164 -0.2631
49812SOL    HW156294   3.036   2.665   7.750  0.0191 -0.4467  1.1869
49812SOL    HW256295   3.174   2.659   7.686 -0.0364  0.4562  0.9704
49813SOL     OW56296  10.915   0.332   9.741  0.4875 -0.5322  0.3507
49813SOL    HW156297  10.867   0.304   9.819  0.3012 -0.6365  0.1977
49813SOL    HW256298  10.849   0.341   9.673  0.6777 -0.6486  0.1460
49814SOL     OW56299   5.910  10.718   2.120 -0.1074  0.2076 -0.6976
49814SOL    HW156300   5.847  10.713   2.047  1.5332  1.6622 -2.3178
49814SOL    HW256301   5.896  10.805   2.157 -0.2773 -0.1656  0.1432
49815SOL     OW56302   8.575   5.691   8.711 -0.0093  0.0286  0.7495
49815SOL    HW156303   8.524   5.617   8.677  0.4694  0.1388 -0.2426
49815SOL    HW256304   8.595   5.667   8.801 -1.7753 -0.0378  1.1694
49816SOL     OW56305   4.229   2.915   8.206  0.0914 -0.8095 -0.2820
49816SOL    HW156306   4.221   3.008   8.185  0.0982 -0.6977  0.1982
49816SOL    HW256307   4.321   2.904   8.230  0.4083 -1.2096 -1.5873
49817SOL     OW56308   6.395   6.541   8.017 -0.0212 -0.1818 -0.2304
49817SOL    HW156309   6.464   6.482   7.985 -0.2203 -0.3424 -0.3699
49817SOL    HW256310   6.442   6.615   8.054  0.2260 -0.2491 -0.4060
49818SOL     OW56311   2.595   5.963   4.950 -0.0158  0.0046 -0.4992
49818SOL    HW156312   2.636   5.947   4.865  2.0855  0.4336  0.3799
49818SOL    HW256313   2.661   6.010   5.000 -1.8064  1.1868  0.8576
49819SOL     OW56314  11.231   4.269   7.210  0.3641  0.3872 -0.3231
49819SOL    HW156315  11.235   4.180   7.174  2.8252 -0.1914  1.1615
49819SOL    HW256316  11.154   4.269   7.267 -0.0892 -0.5488 -0.9141
49820SOL     OW56317   9.251   9.082   5.099 -0.4239  0.4278 -0.0485
49820SOL    HW156318   9.247   8.989   5.121  0.2587  0.1781 -0.9086
49820SOL    HW256319   9.216   9.087   5.010  0.1988  0.9001 -0.2726
49821SOL     OW56320  10.772   4.344   5.776 -0.1192 -0.0940  0.6566
49821SOL    HW156321  10.823   4.364   5.697 -1.8709  1.7944 -0.0887
49821SOL    HW256322  10.786   4.251   5.791  1.9943 -0.0396 -0.6043
49822SOL     OW56323   0.079   2.885   7.620 -0.3776  0.3056 -0.2953
49822SOL    HW156324   0.134   2.807   7.609  1.2208  1.0332  1.7144
49822SOL    HW256325   0.117   2.930   7.696 -2.4523  2.0349 -0.1786
49823SOL     OW56326   3.203   5.863  10.246  1.0396  0.3177 -0.1192
49823SOL    HW156327   3.296   5.844  10.254  0.9990  0.5130  0.8815
49823SOL    HW256328   3.196   5.958  10.259  1.1355  1.0721 -4.1264
49824SOL     OW56329   4.308   2.707   1.453 -0.1060 -0.3087  0.0796
49824SOL    HW156330   4.294   2.768   1.380 -0.4985 -1.4309 -0.8098
49824SOL    HW256331   4.353   2.760   1.519  1.3389  0.4637 -1.4360
49825SOL     OW56332   7.782   6.697  11.533  0.2252  0.4943  0.1327
49825SOL    HW156333   7.774   6.731  11.444  1.1308 -0.5735 -0.3836
49825SOL    HW256334   7.694   6.666  11.554  0.0526  0.5304 -0.4945
49826SOL     OW56335   2.785   7.261  11.588 -0.1532 -0.2005  0.6341
49826SOL    HW156336   2.765   7.354  11.572  1.8449  0.1331 -0.2364
49826SOL    HW256337   2.843   7.236  11.516 -2.6477 -2.9006 -0.6411
49827SOL     OW56338   5.750   2.062   9.552  0.3018  0.6478 -0.8080
49827SOL    HW156339   5.723   1.979   9.593 -1.8714  0.9163 -1.5393
49827SOL    HW256340   5.823   2.038   9.496  2.5514  0.0379  2.1458
49828SOL     OW56341   5.910  11.204   7.249  0.4811 -0.1863  0.2211
49828SOL    HW156342   5.985  11.154   7.282  1.4648 -0.3856 -2.1467
49828SOL    HW256343   5.939  11.295   7.251  0.8098 -0.2590 -0.6468
49829SOL     OW56344   8.662   0.590   7.271  0.0025  0.1890 -0.2174
49829SOL    HW156345   8.628   0.525   7.210 -1.8324 -0.3525  1.3113
49829SOL    HW256346   8.703   0.539   7.341 -1.6964  0.6033  1.1333
49830SOL     OW56347  11.403   5.731   4.876  0.3500 -0.3660 -0.0354
49830SOL    HW156348  11.312   5.762   4.870  0.9260  1.9940  1.6455
49830SOL    HW256349  11.452   5.792   4.821  1.0821 -0.7223  0.2117
49831SOL     OW56350   6.167   8.481  10.242  0.2538  0.2033 -0.1219
49831SOL    HW156351   6.237   8.443  10.188 -0.4200  0.9603 -1.5852
49831SOL    HW256352   6.208   8.496  10.327  1.2131 -1.4934 -0.2373
49832SOL     OW56353   2.841   6.256   4.268 -0.6893 -0.2260 -0.7836
49832SOL    HW156354   2.792   6.265   4.350  0.6948  0.4724  0.0010
49832SOL    HW256355   2.806   6.325   4.212  0.9446  1.8951  0.6258
49833SOL     OW56356   1.503   3.584   7.550  0.5305 -0.2123  0.5430
49833SOL    HW156357   1.491   3.653   7.616  1.6185 -0.1815  0.7211
49833SOL    HW256358   1.555   3.624   7.481 -1.9057  0.2478 -1.1757
49834SOL     OW56359   7.327   0.932   5.160  0.1365 -0.1413  0.8182
49834SOL    HW156360   7.384   1.008   5.149 -1.1688  0.6195 -1.2434
49834SOL    HW256361   7.386   0.857   5.154  1.2342  0.6630  1.2900
49835SOL     OW56362   4.997  11.041  11.942 -0.3324  0.4097 -0.0141
49835SOL    HW156363   4.935  11.052  11.870  1.4716 -0.9400 -1.8847
49835SOL    HW256364   4.950  10.985  12.004 -1.9689  1.6837 -0.0122
49836SOL     OW56365   3.155  10.411   6.346  0.0323  0.1624  0.7122
49836SOL    HW156366   3.168  10.431   6.439 -1.6587  1.7216  0.6905
49836SOL    HW256367   3.140  10.316   6.344 -0.0180  0.1130  2.0515
49837SOL     OW56368  10.000   4.839   7.450 -0.1470 -0.2006 -0.5720
49837SOL    HW156369   9.945   4.762   7.465 -0.6237 -0.3692 -2.8771
49837SOL    HW256370   9.941   4.902   7.408  0.0516  1.7474  1.7889
49838SOL     OW56371  10.642  12.138  11.066 -0.2772  0.5257 -0.7905
49838SOL    HW156372  10.628  12.226  11.102 -0.3047  1.2813 -2.5883
49838SOL    HW256373  10.560  12.117  11.021  0.1991  0.1257 -1.4823
49839SOL     OW56374   5.487   2.715   9.846 -0.2179 -0.4215 -0.6614
49839SOL    HW156375   5.521   2.678   9.928  0.0104 -0.0427 -0.5843
49839SOL    HW256376   5.560   2.767   9.811 -0.8194  0.6628 -0.3312
49840SOL     OW56377   8.280  10.251   2.015 -0.6660  0.1733 -0.2555
49840SOL    HW156378   8.353  10.269   1.956 -0.0262 -2.9322 -0.5595
49840SOL    HW256379   8.315  10.269   2.102  0.0635 -0.1226 -0.4831
49841SOL     OW56380  10.953   6.505   2.516 -0.7064  0.8962  0.1111
49841SOL    HW156381  10.939   6.592   2.480  2.6000  1.3593 -0.4025
49841SOL    HW256382  11.026   6.470   2.464 -1.5245 -1.9519  0.7231
49842SOL     OW56383   5.022   6.451   7.851  0.3890  0.2547  0.1803
49842SOL    HW156384   4.937   6.475   7.888 -0.3024  0.1068 -1.2484
49842SOL    HW256385   5.007   6.447   7.756  2.3520  1.7193 -0.2543
49843SOL     OW56386   7.730   7.242  11.220 -0.4562  0.1291 -0.2188
49843SOL    HW156387   7.814   7.279  11.196 -1.1215  1.6052 -0.3621
49843SOL    HW256388   7.665   7.303  11.185 -1.5669 -0.4533  0.7257
49844SOL     OW56389   9.750   2.362  10.282 -0.0779  0.1152  0.0664
49844SOL    HW156390   9.659   2.344  10.302 -0.2038  0.5773 -0.0751
49844SOL    HW256391   9.750   2.453  10.251  0.7689  1.0525  2.5240
49845SOL     OW56392  12.252  11.161  10.236 -0.1981 -0.6586  0.5121
49845SOL    HW156393  12.322  11.176  10.172 -0.7908  1.1064  0.2155
49845SOL    HW256394  12.209  11.246  10.244 -2.5792 -1.7703  0.3610
49846SOL     OW56395   5.418   8.366  12.057  0.4514 -0.0495  0.1793
49846SOL    HW156396   5.340   8.318  12.082  1.1457 -0.4828  1.6396
49846SOL    HW256397   5.400   8.456  12.082 -0.4276  0.3066 -1.5695
49847SOL     OW56398   1.003  11.638   0.100  0.3729 -0.2739 -0.1045
49847SOL    HW156399   0.969  11.721   0.065 -0.4019 -0.6008 -0.1553
49847SOL    HW256400   0.979  11.573   0.034  0.4413 -0.6257  0.2169
49848SOL     OW56401   9.692   4.005  10.754 -0.0585 -0.1972  0.0549
49848SOL    HW156402   9.760   4.059  10.713 -0.7059 -0.5404 -1.5498
49848SOL    HW256403   9.633   4.068  10.796  0.9333  0.1303  0.9943
49849SOL     OW56404   3.678   3.377   8.337  0.1930  0.1885  0.1740
49849SOL    HW156405   3.719   3.314   8.397  2.0759  0.7067 -0.4879
49849SOL    HW256406   3.584   3.371   8.355  0.3782 -2.3283  0.5633
49850SOL     OW56407   8.628   7.748   1.719  0.0445 -0.4291 -0.2241
49850SOL    HW156408   8.678   7.742   1.800 -1.4276 -1.8784  0.6449
49850SOL    HW256409   8.601   7.840   1.714 -0.1744 -0.4063  1.1397
49851SOL     OW56410   1.192   9.481   6.974 -0.6830 -0.3191  0.5309
49851SOL    HW156411   1.208   9.426   6.897 -0.9320  0.2935  0.0285
49851SOL    HW256412   1.251   9.447   7.041 -0.3064 -0.7255 -0.0012
49852SOL     OW56413   4.406   5.293  10.641 -0.1754  0.0419 -0.1232
49852SOL    HW156414   4.366   5.222  10.590  0.7270 -0.8821  0.4312
49852SOL    HW256415   4.389   5.372  10.589 -0.1778 -0.7377 -1.3455
49853SOL     OW56416   9.999  11.671  10.448 -0.1200 -0.2188  0.0033
49853SOL    HW156417  10.066  11.731  10.480 -1.8951  1.6573  0.4580
49853SOL    HW256418   9.965  11.713  10.369 -0.1638 -1.5862 -0.7214
49854SOL     OW56419   0.349   3.723  10.398  0.8456 -0.0803  0.1196
49854SOL    HW156420   0.304   3.736  10.482  1.1383 -1.0211  0.4396
49854SOL    HW256421   0.327   3.633  10.373  0.0305  0.4862 -1.2770
49855SOL     OW56422  11.774  11.468   1.545 -0.1111 -0.4630 -0.5738
49855SOL    HW156423  11.805  11.475   1.455 -0.5641 -2.4471 -0.9327
49855SOL    HW256424  11.681  11.444   1.537 -0.7627  1.4612  0.4550
49856SOL     OW56425   7.986  10.173  12.268 -0.0671  0.0438 -0.4630
49856SOL    HW156426   7.893  10.194  12.256 -1.2031 -1.6141  3.6341
49856SOL    HW256427   8.031  10.256  12.254 -2.4036  1.3753 -0.6893
49857SOL     OW56428   3.245   3.609   6.837  0.0549 -0.0615  0.6818
49857SOL    HW156429   3.186   3.682   6.818  0.4738  0.0076 -0.4763
49857SOL    HW256430   3.327   3.651   6.864  0.2994 -0.0779  0.0058
49858SOL     OW56431   7.735  11.347   2.444 -0.7123  0.3245  0.0072
49858SOL    HW156432   7.714  11.281   2.379 -2.0077  1.0999 -0.4014
49858SOL    HW256433   7.828  11.333   2.464 -0.7378 -1.0255 -0.7102
49859SOL     OW56434   8.774  12.125   0.374  0.1683 -0.2853 -0.0709
49859SOL    HW156435   8.766  12.029   0.376  0.7929 -0.3419  1.3279
49859SOL    HW256436   8.782  12.147   0.282 -0.4231 -1.5418 -0.4446
49860SOL     OW56437   9.779   9.331   2.067 -0.2569  0.0798  0.1222
49860SOL    HW156438   9.840   9.365   2.002  0.0639 -1.5088 -0.4564
49860SOL    HW256439   9.740   9.254   2.025 -0.8490 -0.3427  1.3972
49861SOL     OW56440   5.531   9.449  12.480 -0.0384  0.0990 -0.0694
49861SOL    HW156441   5.487   9.367  12.457 -0.2336  0.3126 -0.4547
49861SOL    HW256442   5.550   9.440  12.574 -0.0496 -0.3904 -0.1129
49862SOL     OW56443   1.448   6.798   2.672  0.2180  0.0304  0.2527
49862SOL    HW156444   1.448   6.860   2.746 -0.5742 -0.0572  0.3424
49862SOL    HW256445   1.385   6.730   2.699 -1.8861  1.1891 -1.4593
49863SOL     OW56446   5.897   4.077  12.401  0.5175  0.0323  0.1212
49863SOL    HW156447   5.816   4.100  12.446 -0.3683  0.6635 -1.7252
49863SOL    HW256448   5.965   4.089  12.468 -0.8688 -0.5865  1.7348
49864SOL     OW56449   0.394   5.842   1.850 -0.0039 -0.0587  0.2513
49864SOL    HW156450   0.398   5.756   1.892  1.0530  0.3482  1.0327
49864SOL    HW256451   0.343   5.896   1.910  1.6350  0.5636  1.1522
49865SOL     OW56452   9.339   4.761   1.165  0.1990 -0.3448 -0.2934
49865SOL    HW156453   9.262   4.804   1.128  0.2818  0.5717  0.5429
49865SOL    HW256454   9.304   4.693   1.222 -0.0405  0.6415  0.7711
49866SOL     OW56455   8.458   4.391   8.907 -0.1980  0.2621 -0.2591
49866SOL    HW156456   8.519   4.373   8.835  1.9829 -2.8944  2.0974
49866SOL    HW256457   8.514   4.409   8.982 -2.3028  0.5511  1.3257
49867SOL     OW56458   7.860   2.964   8.341 -0.0238 -0.1477 -0.0844
49867SOL    HW156459   7.885   2.992   8.253 -1.1781 -0.5636 -0.5697
49867SOL    HW256460   7.937   2.919   8.375  0.3286 -0.2802 -1.0210
49868SOL     OW56461   2.052  12.352   5.774 -0.4333  0.0323  0.0441
49868SOL    HW156462   2.015  12.350   5.862  1.3531 -2.4730  0.8382
49868SOL    HW256463   2.108  12.430   5.773 -0.0966 -0.1865  1.2896
49869SOL     OW56464   9.570   3.329   3.446 -0.3911 -1.0166 -0.0104
49869SOL    HW156465   9.586   3.389   3.373  0.3013  0.5310  1.3417
49869SOL    HW256466   9.657   3.293   3.466 -0.2990 -0.2965  0.9597
49870SOL     OW56467   8.670   3.756   8.804 -0.4792 -0.0742 -0.5848
49870SOL    HW156468   8.677   3.849   8.823 -0.3380 -0.2561  0.3401
49870SOL    HW256469   8.629   3.751   8.718 -1.9669  0.8274  0.0312
49871SOL     OW56470   0.490   3.288   1.071  0.1402 -0.2597 -0.2523
49871SOL    HW156471   0.508   3.268   1.163 -1.3420  1.1306  0.3956
49871SOL    HW256472   0.544   3.226   1.022  0.9654 -1.0430  1.5417
49872SOL     OW56473  12.015  10.581  11.937  0.2042  0.9590 -0.0350
49872SOL    HW156474  12.029  10.652  11.874  0.0351  1.1223  0.1123
49872SOL    HW256475  11.922  10.560  11.930  0.1497  1.0885  0.2774
49873SOL     OW56476   1.681   6.066   4.236 -0.1927  0.1588  0.0159
49873SOL    HW156477   1.681   6.135   4.169 -0.5280 -1.2116 -1.4418
49873SOL    HW256478   1.771   6.062   4.267 -0.0547  0.8510 -0.2853
49874SOL     OW56479   1.257   3.985  10.464  0.5997 -0.3274 -0.4750
49874SOL    HW156480   1.331   4.005  10.520 -1.2295  0.5722  1.7878
49874SOL    HW256481   1.245   4.063  10.410 -0.1162  0.5167  0.8611
49875SOL     OW56482   7.940   3.258   2.834 -0.2028 -0.3683  0.9905
49875SOL    HW156483   7.995   3.249   2.757 -1.2773  0.3774  0.1097
49875SOL    HW256484   7.984   3.323   2.889 -0.3755  0.4946  0.1283
49876SOL     OW56485   3.607   6.694   9.016 -0.1122 -0.8503 -0.1770
49876SOL    HW156486   3.685   6.725   9.062 -0.3852  0.0207 -0.2801
49876SOL    HW256487   3.579   6.617   9.066  0.1494 -0.4883  0.5479
49877SOL     OW56488   7.449  11.225   6.734 -0.5222 -0.1575 -0.2924
49877SOL    HW156489   7.438  11.317   6.712 -2.5405 -0.0397  0.9818
49877SOL    HW256490   7.542  11.208   6.719 -0.4844  1.5435 -2.4373
49878SOL     OW56491   8.940  11.317  10.098 -0.0247  0.2305  0.0805
49878SOL    HW156492   8.951  11.398  10.149 -0.8774  0.8781 -0.7363
49878SOL    HW256493   8.846  11.312  10.080 -0.1842 -1.5906  1.1302
49879SOL     OW56494   8.481  11.607   8.314  0.5210  0.1533  0.1777
49879SOL    HW156495   8.398  11.597   8.361 -0.4862 -0.2408 -1.6154
49879SOL    HW256496   8.540  11.646   8.379 -0.9003 -0.0164  1.6468
49880SOL     OW56497   6.153   6.095   5.361 -0.4360  0.3629 -0.0058
49880SOL    HW156498   6.080   6.151   5.386  0.8771  2.3091 -0.2296
49880SOL    HW256499   6.198   6.144   5.292  1.8592 -0.0577  1.0779
49881SOL     OW56500  10.859   7.192   2.210  0.1824 -0.2764  0.1671
49881SOL    HW156501  10.870   7.183   2.304  2.2946  0.9591  0.0938
49881SOL    HW256502  10.943   7.167   2.172  0.7438  2.9146 -1.0511
49882SOL     OW56503  10.154   3.856  11.359  0.5646  0.6218 -0.2388
49882SOL    HW156504  10.245   3.885  11.370  0.0146  1.6717  2.1638
49882SOL    HW256505  10.135   3.805  11.438 -0.7455 -0.1977 -1.0461
49883SOL     OW56506  10.410  10.763   4.985  0.3489  0.3293 -0.3875
49883SOL    HW156507  10.397  10.690   4.925 -1.2509 -1.2932  1.7795
49883SOL    HW256508  10.505  10.766   4.999  0.3274 -3.2513  1.5623
49884SOL     OW56509   5.293   6.728   0.725  0.3621  0.2002 -0.1303
49884SOL    HW156510   5.220   6.759   0.672  0.5360  2.2784  0.7502
49884SOL    HW256511   5.257   6.717   0.812  0.9126  0.5195  0.1471
49885SOL     OW56512   6.149   7.711   6.136  0.3109 -0.2910 -0.2931
49885SOL    HW156513   6.187   7.735   6.220  3.2717  1.4942 -1.9753
49885SOL    HW256514   6.107   7.791   6.105 -0.9179 -0.9824 -0.4700
49886SOL     OW56515   6.170   9.003   3.312  0.2866  0.2317  0.4357
49886SOL    HW156516   6.137   8.939   3.375  0.6281 -1.7342 -1.2719
49886SOL    HW256517   6.091   9.038   3.271  0.1354 -0.7837 -0.1737
49887SOL     OW56518  11.127   8.236  11.581  0.2370  0.1048 -0.5820
49887SOL    HW156519  11.166   8.208  11.498 -0.9238 -5.4218  0.3074
49887SOL    HW256520  11.033   8.240  11.564  0.1237  0.6340  0.1017
49888SOL     OW56521  11.413   0.230   1.455  0.3533  1.0298  0.0911
49888SOL    HW156522  11.327   0.187   1.447  1.0818 -0.4440 -0.1720
49888SOL    HW256523  11.422   0.246   1.549  0.3188 -0.0014  0.2909
49889SOL     OW56524  12.072  10.842   9.657 -0.0703 -0.5832  0.9922
49889SOL    HW156525  12.151  10.834   9.603 -0.2876 -0.0342  0.5928
49889SOL    HW256526  12.098  10.900   9.728 -1.1114  2.8102 -1.1369
49890SOL     OW56527   5.983   2.857  11.974 -0.0067 -0.3303 -0.8915
49890SOL    HW156528   5.921   2.924  12.003  0.8541  0.1658 -0.1541
49890SOL    HW256529   6.058   2.907  11.941 -0.2058 -0.9154 -2.2878
49891SOL     OW56530   2.070   2.253   8.138 -0.0055 -0.3522  0.3171
49891SOL    HW156531   2.113   2.323   8.186 -2.2707  1.3487  0.0711
49891SOL    HW256532   2.114   2.251   8.053  0.3671  0.5394  0.4772
49892SOL     OW56533   2.326   3.514   5.887  0.4580 -0.4956 -0.2314
49892SOL    HW156534   2.330   3.506   5.982 -0.1090  0.5974 -0.0982
49892SOL    HW256535   2.297   3.428   5.857 -0.2628 -0.5749  0.6483
49893SOL     OW56536   3.406   2.998  12.293  0.2682  0.5216  0.0564
49893SOL    HW156537   3.350   3.001  12.370  0.0761 -1.9502  0.1105
49893SOL    HW256538   3.493   2.975  12.327  0.0353 -1.2885 -0.4429
49894SOL     OW56539   4.184   5.169   8.150 -0.6542 -0.2748 -0.4731
49894SOL    HW156540   4.108   5.131   8.107 -0.2832 -1.1113 -0.4168
49894SOL    HW256541   4.148   5.221   8.221 -1.2121  0.1257 -1.0336
49895SOL     OW56542   1.542   0.789   3.136  0.2774 -0.9452  0.0200
49895SOL    HW156543   1.501   0.708   3.108 -0.0031 -0.8440  0.1285
49895SOL    HW256544   1.633   0.766   3.156  0.1118 -1.2997  0.3702
49896SOL     OW56545  11.472   2.473   2.088  0.1571  0.1874 -0.6766
49896SOL    HW156546  11.384   2.456   2.119  0.4410 -2.0680 -0.9346
49896SOL    HW256547  11.515   2.518   2.160 -1.2430  1.5598 -0.6505
49897SOL     OW56548   1.838  10.775   1.769  0.1802  0.0212 -0.0611
49897SOL    HW156549   1.860  10.833   1.696  2.1278 -0.8433 -0.1999
49897SOL    HW256550   1.758  10.730   1.740  0.1926  0.6414 -1.1030
49898SOL     OW56551   8.274   9.081   3.479  0.2633 -0.1841 -0.2984
49898SOL    HW156552   8.331   9.003   3.478  0.9557  0.3211 -0.7357
49898SOL    HW256553   8.256   9.099   3.387 -1.3705 -0.8674 -0.1517
49899SOL     OW56554   3.050   2.846   8.985 -0.6133 -0.0146 -0.3382
49899SOL    HW156555   2.991   2.872   8.913 -1.0006 -2.7071 -1.1116
49899SOL    HW256556   3.109   2.782   8.945 -0.6049 -1.3192  1.6425
49900SOL     OW56557   8.482   9.673   7.450 -0.3177 -0.3670 -0.1610
49900SOL    HW156558   8.448   9.763   7.448  1.5755  0.4060 -0.8768
49900SOL    HW256559   8.577   9.684   7.445  0.0443 -2.3931  1.0941
49901SOL     OW56560   0.286   8.973   3.557  0.2029  0.3150 -0.1624
49901SOL    HW156561   0.204   8.933   3.586 -0.5796  0.7946 -1.6160
49901SOL    HW256562   0.341   8.899   3.532 -0.3789  0.0398 -0.6525
49902SOL     OW56563  10.071  10.722   2.351 -0.2381  0.4438  0.1774
49902SOL    HW156564  10.121  10.704   2.431  2.1984  1.1981 -1.0877
49902SOL    HW256565  10.026  10.639   2.333  0.0598 -0.0874  1.6899
49903SOL     OW56566   7.253   1.234  12.002  0.8978 -0.4362 -0.2768
49903SOL    HW156567   7.228   1.147  11.972  0.6470  0.1487 -1.8294
49903SOL    HW256568   7.210   1.243  12.087 -0.8167 -1.0336 -1.0335
49904SOL     OW56569  10.364   4.420   6.043 -0.1786  0.3830 -0.2964
49904SOL    HW156570  10.390   4.475   6.117  1.2193 -0.6363 -0.0037
49904SOL    HW256571  10.386   4.331   6.069 -0.5029 -0.1059 -1.5830
49905SOL     OW56572   1.499   9.354   1.615  0.3844 -0.6697  0.1568
49905SOL    HW156573   1.488   9.282   1.552 -1.0423 -1.3870  1.1449
49905SOL    HW256574   1.571   9.326   1.671 -0.1392 -1.3524  0.5142
49906SOL     OW56575   7.770   6.485   2.790 -0.8373  0.6384 -0.1158
49906SOL    HW156576   7.800   6.431   2.863 -0.8112 -0.3150 -0.8084
49906SOL    HW256577   7.703   6.542   2.828 -1.3657 -0.3610  0.5015
49907SOL     OW56578   3.997   9.185   8.778 -0.0082  0.3265  0.4412
49907SOL    HW156579   4.064   9.120   8.799 -0.7263 -0.2861  0.8817
49907SOL    HW256580   4.041   9.269   8.788  0.5813 -0.0572  1.1245
49908SOL     OW56581   6.096   6.181   5.722  0.3374  0.0449 -0.3592
49908SOL    HW156582   6.047   6.228   5.790 -2.3231 -1.1700 -1.2829
49908SOL    HW256583   6.106   6.245   5.651  1.1916  0.6611  0.2989
49909SOL     OW56584   0.620   5.668   8.938 -0.0241 -0.2367  0.0735
49909SOL    HW156585   0.599   5.658   9.031  0.0515 -0.6223  0.0511
49909SOL    HW256586   0.686   5.738   8.936 -0.9376  0.6400  0.1877
49910SOL     OW56587  11.658  10.709   3.914  0.1768 -0.0577  0.4439
49910SOL    HW156588  11.573  10.740   3.881 -0.0532  1.8544  2.5669
49910SOL    HW256589  11.636  10.641   3.978  0.4511 -1.4874 -0.9236
49911SOL     OW56590   3.075   7.300   1.806  0.8539  0.9241 -0.2957
49911SOL    HW156591   3.070   7.396   1.801  1.8810  0.9399 -2.0509
49911SOL    HW256592   3.053   7.271   1.717 -1.0074 -0.5929  0.5893
49912SOL     OW56593   5.544   1.140   1.031  0.8016 -0.0150  0.2466
49912SOL    HW156594   5.466   1.083   1.029 -0.6046  1.8149  0.6735
49912SOL    HW256595   5.533   1.198   0.956  1.4650  0.6579  0.6642
49913SOL     OW56596  11.139  10.205  11.557  0.4194 -0.0841  0.2811
49913SOL    HW156597  11.124  10.137  11.622  0.2007  0.1820  0.5106
49913SOL    HW256598  11.209  10.258  11.594 -1.9137  2.0744  1.9274
49914SOL     OW56599   8.904   2.071   8.035  0.0765  0.0894  0.5064
49914SOL    HW156600   8.990   2.075   7.994  0.2869  0.5854  0.9860
49914SOL    HW256601   8.893   1.978   8.057  0.0563 -0.1435 -0.4417
49915SOL     OW56602   5.533   5.237  10.693  0.5103  0.4481  0.1993
49915SOL    HW156603   5.574   5.170  10.748  0.3177  1.5477  1.7596
49915SOL    HW256604   5.605   5.292  10.664  0.2767  2.7010  3.3807
49916SOL     OW56605   0.210  11.745   1.777 -0.6059  0.3316  0.2233
49916SOL    HW156606   0.246  11.660   1.804 -0.9272  0.1881  0.1924
49916SOL    HW256607   0.202  11.739   1.682 -1.1706  0.1896  0.2810
49917SOL     OW56608   8.575  12.270   9.095 -0.7248 -0.5212  0.1005
49917SOL    HW156609   8.518  12.308   9.028 -0.4219  0.9973  0.6755
49917SOL    HW256610   8.557  12.176   9.090 -0.7027 -0.4721 -2.1025
49918SOL     OW56611   0.550   7.746   6.679  0.2405  0.3856  0.1694
49918SOL    HW156612   0.592   7.832   6.681  0.7318  0.1989 -1.0217
49918SOL    HW256613   0.463   7.763   6.642 -0.4188  0.6303  1.7458
49919SOL     OW56614   5.054   9.427   2.094  0.1425 -0.1070 -1.0817
49919SOL    HW156615   4.981   9.374   2.127  1.7567 -2.6479 -1.3062
49919SOL    HW256616   5.047   9.509   2.142 -1.1776 -1.3592  1.0477
49920SOL     OW56617   6.255   4.373   6.088 -0.3493  0.0700 -0.2975
49920SOL    HW156618   6.252   4.373   6.183 -2.9057  1.1326 -0.3059
49920SOL    HW256619   6.348   4.365   6.067  0.1963 -1.4289  2.2371
49921SOL     OW56620   8.001   6.983   1.186  0.5952  0.1689  0.2271
49921SOL    HW156621   7.987   7.071   1.151  1.8264  0.6294  0.8298
49921SOL    HW256622   7.962   6.986   1.273 -0.1926 -0.1879 -0.1013
49922SOL     OW56623   7.267   1.499   8.652 -0.4734 -0.3127  0.0191
49922SOL    HW156624   7.310   1.497   8.737 -0.5771 -1.1913  0.0653
49922SOL    HW256625   7.321   1.442   8.597  1.2777  2.4879 -1.3689
49923SOL     OW56626   5.197   5.173   6.006 -0.0757  0.3554 -0.3094
49923SOL    HW156627   5.195   5.236   6.078 -0.1603 -0.5703  0.5092
49923SOL    HW256628   5.228   5.092   6.045  0.7709  0.0707 -1.5189
49924SOL     OW56629   3.652  12.309   1.977 -0.2286 -0.4003 -0.0882
49924SOL    HW156630   3.639  12.350   1.892 -1.2763 -2.6141 -1.0717
49924SOL    HW256631   3.593  12.356   2.036 -0.2905  0.4525 -0.8190
49925SOL     OW56632   2.253   1.979   4.725 -0.0360 -0.2499  0.5093
49925SOL    HW156633   2.331   2.005   4.775 -0.7905  1.3612  0.9188
49925SOL    HW256634   2.186   2.043   4.750 -1.2055 -0.9913 -0.5976
49926SOL     OW56635  12.260   4.772   4.994  0.0095 -0.0041 -0.6217
49926SOL    HW156636  12.227   4.707   5.056  0.6698 -0.6679 -0.9639
49926SOL    HW256637  12.277   4.723   4.914  1.9872  0.2707 -0.4098
49927SOL     OW56638   2.333  12.249   8.580  0.1538  0.1314  0.1639
49927SOL    HW156639   2.366  12.207   8.501 -2.7040 -0.3575 -0.9044
49927SOL    HW256640   2.409  12.253   8.639  1.6724 -2.2911 -1.4309
49928SOL     OW56641   0.340   4.141   9.969 -0.1610  0.0090  0.2637
49928SOL    HW156642   0.271   4.143  10.035  0.8474 -1.9086  1.4827
49928SOL    HW256643   0.419   4.170  10.015 -0.0753  2.2761 -1.1277
49929SOL     OW56644   0.724   3.617   4.745 -0.7929 -0.3254 -0.1170
49929SOL    HW156645   0.768   3.533   4.729  0.6905  0.1948  1.0372
49929SOL    HW256646   0.649   3.616   4.684  0.1548 -1.7359 -1.3492
49930SOL     OW56647   1.633   5.184   6.792  0.0434 -0.1245  0.4051
49930SOL    HW156648   1.725   5.188   6.821  0.1754 -1.8802  0.3203
49930SOL    HW256649   1.638   5.185   6.697  0.0673 -1.4554  0.3824
49931SOL     OW56650   4.061   1.308   1.902  0.2124 -0.9678  0.2369
49931SOL    HW156651   4.085   1.393   1.865 -0.0300 -1.0862 -0.1950
49931SOL    HW256652   4.016   1.329   1.984 -0.8121 -0.6264 -0.3905
49932SOL     OW56653   8.780  11.604   7.321 -0.0871 -0.1863  0.7388
49932SOL    HW156654   8.775  11.694   7.288 -0.5300 -0.7231 -0.7014
49932SOL    HW256655   8.744  11.609   7.409  0.0739  1.0793  0.7547
49933SOL     OW56656   4.921   7.116   1.509  0.2972  0.5112 -0.1128
49933SOL    HW156657   5.013   7.112   1.483  0.7249  1.9254  1.0090
49933SOL    HW256658   4.887   7.194   1.464 -0.1603  0.3982  0.0301
49934SOL     OW56659   9.065   9.438  10.382 -0.1609 -0.8422  0.2403
49934SOL    HW156660   9.130   9.422  10.450  0.6095 -2.9827 -0.9053
49934SOL    HW256661   9.051   9.353  10.341 -1.3105  0.1815 -1.6578
49935SOL     OW56662   1.797   6.413   9.337 -0.3034  0.3587  0.8643
49935SOL    HW156663   1.780   6.396   9.244 -1.0560 -0.6700  1.1673
49935SOL    HW256664   1.888   6.442   9.340 -0.2047  0.1894 -0.1731
49936SOL     OW56665  12.527   7.877   3.636 -0.3913 -0.3437 -0.7977
49936SOL    HW156666  12.593   7.879   3.567 -0.3176 -2.3329 -0.8608
49936SOL    HW256667  12.568   7.827   3.707 -1.6601 -1.2757 -0.6753
49937SOL     OW56668   5.272   6.948   8.939 -0.0644 -0.4338  0.0629
49937SOL    HW156669   5.188   6.994   8.940  0.1284 -0.0835  0.6243
49937SOL    HW256670   5.271   6.898   8.857 -0.6849 -0.1881 -0.0861
49938SOL     OW56671   7.921   5.677   3.782  0.1877  0.0780 -0.4234
49938SOL    HW156672   7.912   5.676   3.686  0.9674  1.0911 -0.5347
49938SOL    HW256673   7.987   5.610   3.801  0.0542 -0.1032 -0.5955
49939SOL     OW56674   4.502   8.723   4.647 -0.6066 -0.1155  0.2144
49939SOL    HW156675   4.430   8.661   4.640 -0.6569 -0.2244  1.4890
49939SOL    HW256676   4.465   8.798   4.694 -1.0632  1.7410 -2.8786
49940SOL     OW56677   0.330  10.076   8.559  0.4165  0.1349 -0.1387
49940SOL    HW156678   0.413  10.102   8.518 -0.4524  1.4290 -1.1460
49940SOL    HW256679   0.327   9.981   8.546  1.6529  0.0937 -0.2585
49941SOL     OW56680   5.480   9.351   6.456 -0.4369 -0.3528 -0.3103
49941SOL    HW156681   5.430   9.407   6.397 -1.1798 -1.6577 -0.9710
49941SOL    HW256682   5.475   9.264   6.417 -1.2262 -1.3391  1.8034
49942SOL     OW56683   9.430   7.540   5.489  0.1548  0.6746 -0.1075
49942SOL    HW156684   9.491   7.556   5.561  0.2282  0.8991 -0.2196
49942SOL    HW256685   9.455   7.603   5.421  0.6357 -0.1071 -0.6722
49943SOL     OW56686   8.363   5.099  11.328 -0.3067  0.5442  0.0401
49943SOL    HW156687   8.366   5.152  11.248 -0.9765 -0.8144 -0.9175
49943SOL    HW256688   8.322   5.156  11.393 -0.7434  1.3005 -0.8770
49944SOL     OW56689   9.466   1.212   5.257  0.0963 -0.3680 -0.4298
49944SOL    HW156690   9.553   1.239   5.285 -0.3158 -1.1689  1.8181
49944SOL    HW256691   9.424   1.293   5.228  0.8169  0.4247  0.6510
49945SOL     OW56692  11.988  10.016   3.553 -0.0468 -0.3056 -0.0282
49945SOL    HW156693  12.070  10.048   3.592  0.7061  0.1831 -1.8973
49945SOL    HW256694  12.009  10.002   3.461 -2.4700  1.3381 -0.9408
49946SOL     OW56695  11.767   5.710   8.580 -0.3331  0.9424  0.1139
49946SOL    HW156696  11.779   5.795   8.538  1.3384  0.7705  0.1792
49946SOL    HW256697  11.729   5.654   8.512  1.8140  0.8161 -1.0336
49947SOL     OW56698   6.685  10.265   0.439 -0.4067  0.4640  0.2876
49947SOL    HW156699   6.620  10.195   0.435  0.3440 -0.4115  2.0220
49947SOL    HW256700   6.633  10.346   0.434 -1.5203 -0.2113  0.4477
49948SOL     OW56701   6.919  11.275   1.537 -0.2481 -0.1559 -0.2667
49948SOL    HW156702   6.890  11.263   1.627  0.0587 -0.6405 -0.2253
49948SOL    HW256703   6.852  11.330   1.496  0.0713  0.8220  0.4953
49949SOL     OW56704   3.785  11.552   8.553  0.1945 -0.4581  0.0965
49949SOL    HW156705   3.793  11.517   8.642  0.4145 -0.4639  0.0760
49949SOL    HW256706   3.831  11.489   8.498  0.1551 -0.3973 -0.0060
49950SOL     OW56707   4.828   6.060   8.659  0.3989 -0.1643 -0.1540
49950SOL    HW156708   4.844   5.968   8.638  1.1513  0.3708 -2.1086
49950SOL    HW256709   4.914   6.102   8.652  0.1580  0.6339  1.2057
49951SOL     OW56710   3.234  11.308   5.046 -0.4599 -0.7225 -0.9178
49951SOL    HW156711   3.291  11.356   4.986 -1.2168  0.3639 -0.7882
49951SOL    HW256712   3.154  11.360   5.051  0.1369  0.1050  2.2632
49952SOL     OW56713   7.906   7.243   8.561 -0.1362 -0.1276  0.2355
49952SOL    HW156714   7.850   7.241   8.638 -1.6975 -0.6835 -0.8484
49952SOL    HW256715   7.989   7.279   8.592 -1.0282  0.5719  1.9484
49953SOL     OW56716   8.243   4.948   0.329 -0.0264 -0.5866 -0.0441
49953SOL    HW156717   8.299   4.871   0.326 -0.2051 -0.7131 -0.1940
49953SOL    HW256718   8.213   4.954   0.420  0.8198 -0.0879  0.2127
49954SOL     OW56719   1.108  12.520   4.067 -0.4901 -0.3865  0.0784
49954SOL    HW156720   1.125  12.510   4.160 -0.9970 -1.9901  0.0331
49954SOL    HW256721   1.051  12.446   4.045 -2.3185  1.2500 -1.0395
49955SOL     OW56722   0.489   9.193   1.077 -0.4840  0.6216  0.1057
49955SOL    HW156723   0.521   9.279   1.105  0.9120  0.7215 -1.5837
49955SOL    HW256724   0.569   9.146   1.053 -1.1705 -1.4059  1.5600
49956SOL     OW56725   7.604  12.369   4.517 -0.2979  0.3666 -0.1374
49956SOL    HW156726   7.646  12.344   4.435  0.4840  0.4936  0.2148
49956SOL    HW256727   7.666  12.341   4.585 -0.8367  0.4575  0.3991
49957SOL     OW56728   4.309   9.103  10.533  0.1173  0.4004  0.0278
49957SOL    HW156729   4.397   9.089  10.498  1.0905 -1.6353  2.9421
49957SOL    HW256730   4.311   9.191  10.569  0.7494  0.5822 -0.4378
49958SOL     OW56731   7.892   6.990   8.428  0.1771 -0.6332  0.0586
49958SOL    HW156732   7.808   6.987   8.474 -0.4485  1.4043 -0.8293
49958SOL    HW256733   7.943   7.056   8.476  1.1949 -1.6561  0.4250
49959SOL     OW56734   0.029   9.719   4.679 -0.5827  0.1606 -0.4236
49959SOL    HW156735   0.085   9.723   4.601 -0.6193  0.5632 -0.4294
49959SOL    HW256736  -0.011   9.806   4.684 -0.7195  0.0758 -0.0576
49960SOL     OW56737   6.442  12.365   9.378  0.4510 -0.2215 -0.3702
49960SOL    HW156738   6.470  12.311   9.304 -0.9656 -0.3423 -0.8457
49960SOL    HW256739   6.416  12.303   9.445  0.7335 -0.1073 -0.1500
49961SOL     OW56740   9.732   2.958   7.874  0.2142  0.1764 -0.3760
49961SOL    HW156741   9.701   2.868   7.859  0.4005 -0.1549  1.0528
49961SOL    HW256742   9.748   2.993   7.787 -0.6291 -0.9119 -0.9878
49962SOL     OW56743   7.218   6.108   5.076  0.3399 -0.0050  0.3332
49962SOL    HW156744   7.305   6.127   5.039 -0.6524  0.7342 -1.7586
49962SOL    HW256745   7.160   6.105   5.000 -1.4582 -0.6372  1.6804
49963SOL     OW56746   0.289   4.738   7.176  0.1071 -0.4961  0.5172
49963SOL    HW156747   0.215   4.679   7.181  0.6683 -1.2789 -0.1253
49963SOL    HW256748   0.250   4.825   7.171 -0.9158 -0.9918 -2.4901
49964SOL     OW56749   6.482  12.370   7.187 -0.2205 -0.0934 -0.0905
49964SOL    HW156750   6.457  12.457   7.218  0.3098  0.2465 -0.5919
49964SOL    HW256751   6.499  12.382   7.094  0.4518 -0.5997 -0.0412
49965SOL     OW56752   9.677   6.265  10.567 -0.4197  0.6588 -0.2783
49965SOL    HW156753   9.687   6.244  10.660 -0.3260 -0.2855 -0.4917
49965SOL    HW256754   9.733   6.342  10.554  0.1703  0.3360  0.2820
49966SOL     OW56755   2.807   2.887   4.311  0.0424  0.0027 -0.4110
49966SOL    HW156756   2.823   2.858   4.401  0.3632 -0.1633 -0.5199
49966SOL    HW256757   2.792   2.981   4.318 -1.2088 -0.2033 -0.0237
49967SOL     OW56758   3.295   3.840   5.987  0.3558  0.6223 -0.3093
49967SOL    HW156759   3.260   3.893   6.059  0.3930 -0.5722  0.6340
49967SOL    HW256760   3.298   3.899   5.912  0.4208  1.9448  0.6996
49968SOL     OW56761  10.307   5.686   3.081  0.1275 -0.1533  0.1454
49968SOL    HW156762  10.240   5.745   3.116 -0.3974 -1.1099  0.7697
49968SOL    HW256763  10.338   5.637   3.157 -0.7377 -1.9688 -0.6249
49969SOL     OW56764   4.930   3.370   3.965 -0.3742  0.1954  0.9617
49969SOL    HW156765   4.890   3.424   3.898  1.2254  1.0566  0.6498
49969SOL    HW256766   4.877   3.291   3.967  1.9562 -2.0679 -4.6445
49970SOL     OW56767   6.893  10.501   3.963  0.8641  0.1412 -0.2424
49970SOL    HW156768   6.882  10.451   3.883  1.3663  1.4643 -1.1759
49970SOL    HW256769   6.951  10.448   4.017 -1.4856 -2.0008  0.4101
49971SOL     OW56770   6.159   1.363   4.090 -0.3353 -0.1066  0.3836
49971SOL    HW156771   6.227   1.363   4.024 -0.4363  3.6250  0.0916
49971SOL    HW256772   6.079   1.342   4.042  0.1566 -1.5819  0.1762
49972SOL     OW56773   5.552   1.052   3.782  0.0739 -0.2177  0.0505
49972SOL    HW156774   5.467   1.095   3.769  0.4655  0.5148 -0.1294
49972SOL    HW256775   5.530   0.960   3.796 -0.7724  0.0135  0.3072
49973SOL     OW56776  11.084   2.532   0.677 -0.3441  0.2268  0.4900
49973SOL    HW156777  11.146   2.589   0.632  1.2059 -0.8596  1.1893
49973SOL    HW256778  11.114   2.443   0.658 -1.2509 -0.3143  1.4447
49974SOL     OW56779   9.889   3.419   2.153  0.5758  0.5193  0.7975
49974SOL    HW156780   9.796   3.440   2.142  0.8497  1.0995 -0.6673
49974SOL    HW256781   9.921   3.485   2.215  0.4850  1.8070 -0.4796
49975SOL     OW56782   0.611  11.452   1.199  0.2983  0.5863  0.4085
49975SOL    HW156783   0.536  11.452   1.140  0.3128 -1.1372  0.3667
49975SOL    HW256784   0.593  11.382   1.261  2.4156 -0.6699 -0.3113
49976SOL     OW56785   8.121   0.963   8.094  0.5970  0.0978  0.0699
49976SOL    HW156786   8.190   0.963   8.027  0.0422  0.9641 -0.5169
49976SOL    HW256787   8.072   0.882   8.077 -0.4875  1.0420 -1.6092
49977SOL     OW56788  12.437   9.174   2.697 -0.3952 -0.1552 -0.4304
49977SOL    HW156789  12.514   9.129   2.731 -0.2413  0.0197 -0.5507
49977SOL    HW256790  12.383   9.190   2.775  0.6240  1.5604 -0.0126
49978SOL     OW56791   6.216   0.680   0.426  0.1180  0.0928  0.5966
49978SOL    HW156792   6.147   0.615   0.413  1.1718 -0.9780  0.1164
49978SOL    HW256793   6.286   0.653   0.366  0.5911  1.6852  0.3892
49979SOL     OW56794   4.022   8.226   9.641  0.0653  0.4855 -0.6549
49979SOL    HW156795   4.009   8.136   9.610  1.0477  0.3787 -0.7800
49979SOL    HW256796   4.030   8.218   9.736  1.9732  0.1940 -0.8083
49980SOL     OW56797   7.403  10.491  11.071 -0.2695 -0.0377  0.3561
49980SOL    HW156798   7.384  10.577  11.036 -1.0381 -0.5862 -0.6270
49980SOL    HW256799   7.319  10.459  11.105 -0.3490 -0.9990 -0.6838
49981SOL     OW56800   6.380   7.543   6.791  0.0858 -0.1551 -0.2310
49981SOL    HW156801   6.400   7.617   6.734 -0.3698  0.7040  0.6884
49981SOL    HW256802   6.452   7.482   6.779 -0.1893 -0.1614 -1.9959
49982SOL     OW56803   2.857   5.125  11.119 -0.2374  0.3329 -0.4123
49982SOL    HW156804   2.852   5.031  11.102  0.1237  0.3365 -0.5648
49982SOL    HW256805   2.788   5.142  11.182  0.0362 -0.1284  0.0219
49983SOL     OW56806   9.271   3.660   9.273 -0.0601  0.3187 -0.4752
49983SOL    HW156807   9.200   3.692   9.218 -0.2107 -0.4280 -0.7197
49983SOL    HW256808   9.228   3.623   9.349 -0.0372 -1.3507 -1.2324
49984SOL     OW56809  11.364   7.572   3.258 -0.2192  0.2896 -0.3120
49984SOL    HW156810  11.325   7.659   3.258 -1.4819 -0.2078  2.0668
49984SOL    HW256811  11.389   7.556   3.349  3.3209 -0.4692 -1.2615
49985SOL     OW56812   9.943  12.331  11.844 -0.2998  0.0463 -0.0167
49985SOL    HW156813   9.913  12.242  11.830 -2.1246  0.6121  0.0928
49985SOL    HW256814   9.876  12.372  11.898 -0.5022  2.0395 -1.6424
49986SOL     OW56815  11.486   9.028   8.003 -0.3178  0.0352 -0.5752
49986SOL    HW156816  11.542   8.995   7.933 -2.2993 -1.8156 -1.4214
49986SOL    HW256817  11.413   8.965   8.007 -1.0093  0.8675  2.2063
49987SOL     OW56818   3.667   2.670   2.148  0.0814 -0.3706  0.2170
49987SOL    HW156819   3.633   2.580   2.150 -0.0042 -0.4054 -1.5622
49987SOL    HW256820   3.726   2.671   2.073 -0.6758  1.3188 -0.3966
49988SOL     OW56821   2.713   9.111   4.012 -0.3268  0.3460  0.1325
49988SOL    HW156822   2.620   9.107   4.036 -1.3481 -2.3193 -3.4075
49988SOL    HW256823   2.714   9.151   3.925  1.7024 -0.6588 -0.3727
49989SOL     OW56824   9.481  11.563   7.800 -0.0642  0.1013  0.1153
49989SOL    HW156825   9.411  11.529   7.855 -0.1120 -2.0722 -1.1700
49989SOL    HW256826   9.445  11.644   7.763 -2.4562 -1.5346 -1.4342
49990SOL     OW56827   3.926   8.861   3.123 -0.0164 -0.0908 -0.7654
49990SOL    HW156828   4.004   8.817   3.156  0.6693 -0.6325 -2.9041
49990SOL    HW256829   3.953   8.952   3.111  0.3303 -0.2757 -1.4939
49991SOL     OW56830   9.735   1.789   3.125  0.2895 -0.6476 -0.1190
49991SOL    HW156831   9.679   1.768   3.200  0.2708  0.7898  0.2935
49991SOL    HW256832   9.821   1.755   3.150  0.5633  0.8118  1.1012
49992SOL     OW56833   8.981   5.869  10.917  0.5220  0.4219 -0.2817
49992SOL    HW156834   9.072   5.888  10.938  0.7414 -1.4678  0.6585
49992SOL    HW256835   8.932   5.938  10.962  1.4216  0.7941  0.1635
49993SOL     OW56836   0.657   0.936   4.498 -0.1237 -0.5242 -0.6533
49993SOL    HW156837   0.574   0.964   4.460 -1.7385 -1.2674  2.0541
49993SOL    HW256838   0.667   0.989   4.577  0.8913 -1.8931  0.1914
49994SOL     OW56839   1.065   8.998   2.111  0.5189 -0.6403 -0.3953
49994SOL    HW156840   1.140   8.978   2.055  2.4292 -3.1894  2.7202
49994SOL    HW256841   1.030   8.912   2.137 -0.3476  0.3545  2.1087
49995SOL     OW56842   6.284   5.929  11.827  0.1711 -0.0707  0.0810
49995SOL    HW156843   6.344   6.003  11.834 -1.7197  1.5610  0.0058
49995SOL    HW256844   6.253   5.931  11.736  1.8183 -2.4742 -0.6477
49996SOL     OW56845   0.820   2.618  10.510 -0.0301 -0.7611 -0.4161
49996SOL    HW156846   0.904   2.662  10.526 -0.1019 -0.3833 -1.0175
49996SOL    HW256847   0.792   2.586  10.595 -1.0451  2.2566  0.5223
49997SOL     OW56848   8.394   7.219   7.890  0.0736  0.5162 -0.5445
49997SOL    HW156849   8.431   7.253   7.808  2.8652 -0.4655  0.1862
49997SOL    HW256850   8.427   7.278   7.957 -0.3760  0.0461  0.0972
49998SOL     OW56851   0.567   4.215  12.258  0.0139 -0.1051 -0.0495
49998SOL    HW156852   0.564   4.142  12.320  0.8817  0.9937  1.3215
49998SOL    HW256853   0.643   4.197  12.203  1.7084  0.9124  1.8322
49999SOL     OW56854   8.267   1.874   4.350 -0.2615  0.1857  0.2369
49999SOL    HW156855   8.341   1.833   4.394 -1.5060 -2.0509  0.3927
49999SOL    HW256856   8.300   1.959   4.321  1.4796  0.5197  2.8527
50000SOL     OW56857   7.166   8.366  12.200  0.4138  0.1345 -0.7410
50000SOL    HW156858   7.080   8.330  12.178  0.0755  0.4050  0.0780
50000SOL    HW256859   7.171   8.447  12.150 -0.0711  0.4232 -0.3357
50001SOL     OW56860   1.058   2.644  10.168  0.1456  0.0214  0.0945
50001SOL    HW156861   1.114   2.661  10.092 -0.6694 -0.4971 -0.6517
50001SOL    HW256862   1.113   2.662  10.244  0.8419  1.0009 -0.6228
50002SOL     OW56863  10.600   7.305   3.039  0.3860 -0.0234  0.0767
50002SOL    HW156864  10.665   7.373   3.025 -0.8946  1.2661  0.1997
50002SOL    HW256865  10.536   7.344   3.098 -1.3491 -0.6505 -1.3027
50003SOL     OW56866   3.688   8.934   6.189  0.2156 -0.3052  0.1602
50003SOL    HW156867   3.704   8.847   6.226  1.6926 -0.2721 -0.3327
50003SOL    HW256868   3.756   8.989   6.229 -0.0635  0.3998 -0.3220
50004SOL     OW56869   3.932  11.833   0.631 -0.0151 -0.0126  0.2731
50004SOL    HW156870   3.996  11.800   0.568 -1.3213  0.2904 -1.2602
50004SOL    HW256871   3.969  11.811   0.717  2.8145  1.3829 -0.4798
50005SOL     OW56872   8.444   1.119   8.195  0.0830  0.8099  0.1818
50005SOL    HW156873   8.357   1.115   8.157 -0.0499 -1.1419  0.5912
50005SOL    HW256874   8.445   1.201   8.245 -1.7108  0.6106  0.6021
50006SOL     OW56875   7.577  11.525   7.911 -0.0322 -0.0188 -0.0599
50006SOL    HW156876   7.636  11.460   7.872 -0.0980 -0.3927  0.4660
50006SOL    HW256877   7.491  11.483   7.910  0.1607 -0.5012  1.5595
50007SOL     OW56878   4.118  10.488   9.532 -0.5410 -0.5703 -0.0815
50007SOL    HW156879   4.160  10.574   9.528  1.3760 -1.4145  0.7471
50007SOL    HW256880   4.046  10.494   9.469  0.1138  1.3304 -0.7243
50008SOL     OW56881   9.417   7.947   8.509 -0.4524  0.1698 -0.6351
50008SOL    HW156882   9.481   7.973   8.575  0.7335 -1.3706 -1.1157
50008SOL    HW256883   9.392   8.029   8.466  1.4866  0.7870 -0.6672
50009SOL     OW56884   6.729   6.651   1.604 -0.1010  0.1189  0.4349
50009SOL    HW156885   6.701   6.742   1.612  0.6859  0.2748  1.6786
50009SOL    HW256886   6.777   6.633   1.685 -1.5406 -1.8943  0.9219
50010SOL     OW56887   6.515   0.697  10.053  0.0243  0.0001 -0.7669
50010SOL    HW156888   6.558   0.620  10.015  0.5563  0.0523 -0.2776
50010SOL    HW256889   6.559   0.711  10.136  0.1166  1.0048 -0.9741
50011SOL     OW56890   6.383   1.612   8.293 -0.6087 -0.0203 -0.3315
50011SOL    HW156891   6.455   1.549   8.289 -1.7898 -1.3903 -0.9879
50011SOL    HW256892   6.307   1.559   8.315 -1.0163  1.7648  3.1773
50012SOL     OW56893   2.143   9.663   5.400 -0.2799 -0.4753  0.0826
50012SOL    HW156894   2.085   9.631   5.469 -0.9627 -1.0839 -0.7641
50012SOL    HW256895   2.215   9.600   5.398 -0.2638 -0.4625  0.2186
50013SOL     OW56896  10.522   6.025  10.756 -0.0378 -0.7022 -0.2334
50013SOL    HW156897  10.559   6.112  10.737  1.9507 -0.8886  2.3364
50013SOL    HW256898  10.547   5.972  10.680  1.3844  0.2535 -0.4836
50014SOL     OW56899   2.637   7.150   2.324  0.0965 -0.2970 -0.0811
50014SOL    HW156900   2.570   7.219   2.324  0.6868  0.3108  0.9774
50014SOL    HW256901   2.694   7.172   2.250 -0.3412 -0.2791 -0.4162
50015SOL     OW56902   8.290   0.819   3.066 -0.4885 -0.8824 -0.3159
50015SOL    HW156903   8.368   0.865   3.098 -1.7467  0.4230  1.0573
50015SOL    HW256904   8.288   0.837   2.972  0.8388 -0.9210 -0.3701
50016SOL     OW56905   7.923  11.241  10.070  0.0239  0.2054  0.0385
50016SOL    HW156906   7.912  11.192  10.151  1.9883  0.0304  0.2345
50016SOL    HW256907   7.991  11.194  10.022 -1.3050  0.1063 -1.9005
50017SOL     OW56908   3.733  10.791  10.992 -0.4190 -0.5147  0.3508
50017SOL    HW156909   3.775  10.707  11.010 -0.8156 -0.7167  0.3313
50017SOL    HW256910   3.654  10.791  11.046 -2.2412 -1.5929 -2.1257
50018SOL     OW56911   1.390  12.123   1.643  0.0108 -0.0717 -0.1563
50018SOL    HW156912   1.356  12.209   1.618 -0.6980 -0.0998  0.6843
50018SOL    HW256913   1.313  12.066   1.646  0.0707 -0.1177  1.8720
50019SOL     OW56914   3.059   8.696   7.491  0.9604 -0.2004 -0.0259
50019SOL    HW156915   2.986   8.634   7.498  1.2534 -0.6437 -0.6892
50019SOL    HW256916   3.056   8.726   7.400  0.6167  1.0400  0.3771
50020SOL     OW56917   2.827   1.034   2.924  0.2832 -0.5846 -0.1307
50020SOL    HW156918   2.781   0.950   2.928 -0.2625 -0.2682  0.4159
50020SOL    HW256919   2.793   1.076   2.846 -0.6658 -0.1903  0.4754
50021SOL     OW56920   0.305   2.378   4.465 -0.4021 -0.3197  0.3953
50021SOL    HW156921   0.337   2.351   4.551 -0.1661  1.3394  0.8606
50021SOL    HW256922   0.350   2.461   4.447 -2.2518  0.6109 -0.2159
50022SOL     OW56923   3.018   9.696   5.112  0.0800 -0.0288 -0.1360
50022SOL    HW156924   3.019   9.777   5.061 -0.8437 -0.2129 -0.4541
50022SOL    HW256925   3.028   9.626   5.048  3.2112 -0.1475  0.3096
50023SOL     OW56926   4.853   4.725  12.147 -0.7175 -0.5147 -0.4476
50023SOL    HW156927   4.780   4.730  12.208 -1.0459 -1.2172 -0.7778
50023SOL    HW256928   4.866   4.632  12.131 -0.3286 -0.3607 -1.0783
50024SOL     OW56929   2.169   2.900   3.376 -0.2374  0.3655 -0.1415
50024SOL    HW156930   2.246   2.868   3.424 -1.0470  0.5622  1.3397
50024SOL    HW256931   2.169   2.994   3.391 -0.2430  0.5042 -0.9615
50025SOL     OW56932   8.346  11.555   7.637  0.0615 -0.4470 -0.4734
50025SOL    HW156933   8.416  11.504   7.597 -1.9793 -1.4621 -3.1221
50025SOL    HW256934   8.277  11.555   7.571 -2.0769  1.2950  1.5938
50026SOL     OW56935   7.089  12.429   2.170  0.3375 -0.3215 -0.0542
50026SOL    HW156936   7.163  12.453   2.115  1.5413 -3.4357 -0.0330
50026SOL    HW256937   7.078  12.335   2.155 -1.5625 -0.5857  2.3394
50027SOL     OW56938  11.957   9.227   1.557 -0.0187  0.7667 -0.1510
50027SOL    HW156939  11.879   9.270   1.592 -0.8664 -1.3986  0.7715
50027SOL    HW256940  11.989   9.173   1.629  0.7930 -0.4208 -1.3643
50028SOL     OW56941   7.977   1.323  12.148 -0.3957 -0.5379 -0.3340
50028SOL    HW156942   7.924   1.390  12.190 -0.7787  0.0138 -1.6543
50028SOL    HW256943   7.920   1.246  12.144 -0.9899 -0.0645 -1.3931
50029SOL     OW56944  10.483   2.069   4.302 -0.3685  0.1798  0.1491
50029SOL    HW156945  10.417   2.002   4.318 -1.0913  0.8954  0.2175
50029SOL    HW256946  10.440   2.151   4.326  0.3953  0.7016 -0.2417
50030SOL     OW56947  10.672  11.816   0.440 -0.0035 -0.3311 -0.1452
50030SOL    HW156948  10.589  11.851   0.408 -0.0245 -0.7448 -0.5401
50030SOL    HW256949  10.708  11.766   0.367  0.0475 -1.1128  0.3981
50031SOL     OW56950  10.513   8.983   7.698  0.9956  0.5139 -0.3082
50031SOL    HW156951  10.597   8.974   7.653  1.8902  0.2647  1.3328
50031SOL    HW256952  10.514   8.915   7.765 -0.3506  0.7639 -0.0027
50032SOL     OW56953   1.267   6.248   4.314  0.2661 -0.0484 -0.0910
50032SOL    HW156954   1.248   6.166   4.361  2.0957 -0.4611  0.0035
50032SOL    HW256955   1.328   6.222   4.245 -0.3929  0.9934 -1.0963
50033SOL     OW56956   2.744  10.960   2.579  0.1469 -0.0284 -0.1915
50033SOL    HW156957   2.811  10.896   2.553  1.3503  1.2228 -0.2738
50033SOL    HW256958   2.721  11.005   2.498 -1.4980 -1.0232 -0.3354
50034SOL     OW56959  11.082   3.291   1.041  0.4235  0.2195  0.1469
50034SOL    HW156960  11.074   3.220   1.104  1.6870  1.4047  1.7275
50034SOL    HW256961  11.025   3.360   1.075  0.4663  0.5718 -0.4740
50035SOL     OW56962   1.975  11.574   0.138 -0.4214  0.0625 -0.0041
50035SOL    HW156963   1.926  11.636   0.083 -0.9396  0.2749  0.6910
50035SOL    HW256964   1.912  11.504   0.158 -0.3382  0.1563  0.6015
50036SOL     OW56965   6.720   8.628   0.566  0.3537 -0.7934  0.3491
50036SOL    HW156966   6.667   8.593   0.495  0.6584 -1.9332  0.6692
50036SOL    HW256967   6.685   8.716   0.580  1.8334  0.4537 -2.7860
50037SOL     OW56968   9.146  10.438   5.865 -0.3356 -0.0832 -0.4438
50037SOL    HW156969   9.051  10.432   5.872 -0.2964  1.0972  2.2686
50037SOL    HW256970   9.164  10.532   5.869  0.9940 -0.3360 -0.0321
50038SOL     OW56971   3.429  12.005   5.997  0.5797  0.1129 -0.6747
50038SOL    HW156972   3.359  12.009   6.062  0.9168 -0.6067 -0.2525
50038SOL    HW256973   3.508  11.990   6.048  1.1760  1.6407 -1.0817
50039SOL     OW56974   4.257   0.238   4.126 -0.0940  0.2042  0.0722
50039SOL    HW156975   4.186   0.195   4.078 -0.9960  1.7084 -0.0172
50039SOL    HW256976   4.285   0.309   4.068  1.5043 -0.3591  0.1198
50040SOL     OW56977  11.210   6.240  12.395 -0.0938 -0.4669 -0.3035
50040SOL    HW156978  11.265   6.163  12.408  0.4187 -0.4903 -2.2158
50040SOL    HW256979  11.121   6.208  12.405  0.1104 -1.3770 -1.2277
50041SOL     OW56980   0.670   0.757  12.053 -0.4543  0.1418  0.3061
50041SOL    HW156981   0.581   0.792  12.043 -0.0500  0.8949 -1.0121
50041SOL    HW256982   0.689   0.718  11.967 -0.0508 -1.3559  1.0487
50042SOL     OW56983   2.485   7.186  11.787 -0.0924 -0.1482  0.0634
50042SOL    HW156984   2.450   7.161  11.873 -0.9480  2.1927  0.4710
50042SOL    HW256985   2.564   7.133  11.777  1.2319  0.9501  3.2782
50043SOL     OW56986   5.693   5.519  11.647  0.2316  0.2822  0.3652
50043SOL    HW156987   5.613   5.468  11.662 -0.7809  1.4145 -0.8669
50043SOL    HW256988   5.759   5.477  11.701 -0.2505 -2.9958 -1.3455
50044SOL     OW56989   6.759   1.019   5.151  0.2669  0.1647  0.2516
50044SOL    HW156990   6.798   1.104   5.170 -1.0158  0.5520  1.2987
50044SOL    HW256991   6.668   1.027   5.179 -0.3088 -1.0504 -1.1007
50045SOL     OW56992   4.479  12.514   7.712  0.3053  0.2122  0.6701
50045SOL    HW156993   4.464  12.594   7.662 -2.0608 -0.5605  0.0233
50045SOL    HW256994   4.405  12.510   7.773 -0.9288 -2.5722 -0.8634
50046SOL     OW56995   8.894  10.319   5.931 -0.3022 -0.2791  0.0001
50046SOL    HW156996   8.903  10.295   5.839  2.1872  0.5426 -0.0672
50046SOL    HW256997   8.864  10.239   5.974 -0.7467 -0.8981 -1.4009
50047SOL     OW56998  10.701   6.606   8.539 -0.2700 -0.0910 -0.2515
50047SOL    HW156999  10.631   6.568   8.487  0.8199  0.7651 -2.4922
50047SOL    HW257000  10.779   6.598   8.484  1.0235  0.7186  1.3508
50048SOL     OW57001  11.984   7.920   3.599 -0.0002 -0.1498 -0.4398
50048SOL    HW157002  12.000   7.826   3.608  1.5643  0.1817  0.5948
50048SOL    HW257003  12.001   7.939   3.507 -1.7348 -1.0825 -1.0134
50049SOL     OW57004   9.588   2.168   3.833  0.2597 -0.0523 -0.3024
50049SOL    HW157005   9.601   2.159   3.927  0.8119  0.5750 -0.3172
50049SOL    HW257006   9.502   2.128   3.817 -0.3815  0.8941  0.6466
50050SOL     OW57007   1.787   4.426   4.301 -0.0059  0.1284  0.2161
50050SOL    HW157008   1.702   4.387   4.285 -0.0252  0.8151 -1.6124
50050SOL    HW257009   1.773   4.520   4.294  1.3871  0.2366 -3.5522
50051SOL     OW57010   0.532   5.287   8.241 -0.3339 -0.5000  0.1791
50051SOL    HW157011   0.520   5.325   8.328  0.1026 -0.5250  0.2525
50051SOL    HW257012   0.470   5.215   8.237  0.0804 -0.8917  0.7047
50052SOL     OW57013   4.776  10.608   8.304 -0.7411  0.2396  0.7288
50052SOL    HW157014   4.680  10.608   8.303 -0.8143 -0.0617 -2.5699
50052SOL    HW257015   4.799  10.522   8.268  0.7842  0.2806  1.5694
50053SOL     OW57016   1.953   6.727  10.907  0.5184 -0.1841  0.3917
50053SOL    HW157017   1.932   6.758  10.994  1.2673  0.6793  0.2811
50053SOL    HW257018   2.033   6.675  10.919  0.8588  0.2764  0.1758
50054SOL     OW57019   9.565   9.030   1.282  0.1463  0.3209  0.5175
50054SOL    HW157020   9.656   9.000   1.276 -0.7692 -2.5820 -0.6694
50054SOL    HW257021   9.551   9.080   1.201  0.0573 -1.3697 -0.5623
50055SOL     OW57022   4.661   3.017  10.714 -0.1467 -0.4605  0.2995
50055SOL    HW157023   4.686   2.924  10.713 -0.4042 -0.5274 -0.3397
50055SOL    HW257024   4.731   3.061  10.667 -1.6673 -0.7868 -2.4916
50056SOL     OW57025   3.765  11.342   6.762 -0.1239 -0.3832 -0.3347
50056SOL    HW157026   3.824  11.417   6.771 -0.8942  0.1203  0.8810
50056SOL    HW257027   3.770  11.297   6.846  0.2726 -1.6693 -1.0350
50057SOL     OW57028  10.639  12.167   2.633  0.2430 -0.4679 -0.3191
50057SOL    HW157029  10.669  12.113   2.560  0.9347 -1.3901  0.6205
50057SOL    HW257030  10.653  12.113   2.711 -1.0534  0.2555  0.4512
50058SOL     OW57031   2.386   8.596   7.383  0.0184  0.9255 -0.3763
50058SOL    HW157032   2.308   8.546   7.410  0.9530  0.6828  2.1861
50058SOL    HW257033   2.429   8.618   7.465  3.1546  0.2694 -1.7105
50059SOL     OW57034   3.725  11.446  10.434 -0.1604 -0.4242 -0.6567
50059SOL    HW157035   3.685  11.449  10.520 -0.6850  1.8007 -0.9096
50059SOL    HW257036   3.670  11.386  10.384 -0.7876 -0.5134  0.1246
50060SOL     OW57037   5.415   1.567   4.436 -0.2899 -0.3371  0.5347
50060SOL    HW157038   5.381   1.514   4.509 -0.8780 -1.2961 -0.4076
50060SOL    HW257039   5.475   1.508   4.390 -2.9325 -1.2454 -2.1095
50061SOL     OW57040   2.030   0.936   5.346  0.2276  0.1198  0.2906
50061SOL    HW157041   1.943   0.898   5.358  0.5306 -0.7198 -0.1193
50061SOL    HW257042   2.088   0.881   5.397  0.8238 -0.6229 -1.1215
50062SOL     OW57043   3.921   7.683   3.817 -0.3113 -0.4492 -0.4720
50062SOL    HW157044   3.927   7.590   3.796  0.1787 -0.6855  0.6718
50062SOL    HW257045   3.951   7.727   3.738 -0.6405 -1.2491 -1.0628
50063SOL     OW57046  12.315   3.448  12.137 -1.0817  0.0539  0.0681
50063SOL    HW157047  12.243   3.388  12.152 -0.0288 -0.9394  1.4021
50063SOL    HW257048  12.353   3.420  12.054 -0.6332 -1.1312  0.6524
50064SOL     OW57049   2.826   9.635   9.152  0.1585 -0.0095  0.4493
50064SOL    HW157050   2.847   9.725   9.127 -0.5585  0.7094  2.3111
50064SOL    HW257051   2.887   9.581   9.100  1.1350  1.5751 -0.1201
50065SOL     OW57052   3.810  10.284   9.952 -0.0155  0.0757  0.2890
50065SOL    HW157053   3.740  10.334   9.995  1.6302  1.0325  2.0444
50065SOL    HW257054   3.889  10.333   9.972  1.3438 -1.7256 -0.4220
50066SOL     OW57055   1.065   6.244   1.733 -0.2649 -0.3687  0.1757
50066SOL    HW157056   1.112   6.297   1.796 -2.5916  1.4623  0.5310
50066SOL    HW257057   0.987   6.213   1.780 -0.6872 -1.2378 -1.0252
50067SOL     OW57058   2.741   7.545  11.569  0.8141 -0.2614 -0.3850
50067SOL    HW157059   2.781   7.557  11.655 -1.5957 -1.1862  0.9422
50067SOL    HW257060   2.697   7.628  11.551 -1.7089 -1.1772  1.0387
50068SOL     OW57061   9.389  10.657   6.185  0.2542  0.4097  0.2004
50068SOL    HW157062   9.416  10.591   6.122 -2.7181 -0.6435 -0.1448
50068SOL    HW257063   9.438  10.736   6.160  2.1988 -1.0254 -0.7835
50069SOL     OW57064   0.644   3.121   5.364 -0.7186 -0.1447  0.1099
50069SOL    HW157065   0.728   3.150   5.402  0.2178 -0.3384 -1.6998
50069SOL    HW257066   0.582   3.127   5.437  0.7719  0.3947  1.4084
50070SOL     OW57067   7.533   7.573   4.451  0.6967 -0.2131  0.6095
50070SOL    HW157068   7.545   7.485   4.488  0.1184 -0.0428  1.2212
50070SOL    HW257069   7.492   7.557   4.366  0.6049 -0.5394  0.7136
50071SOL     OW57070  11.084   7.422   1.629 -0.2965  0.0305  0.2526
50071SOL    HW157071  11.023   7.406   1.558  1.8056  1.6000 -2.0763
50071SOL    HW257072  11.161   7.369   1.608  0.7012  1.1861  0.8401
50072SOL     OW57073   8.033  10.742   7.969  0.1860 -0.0931 -0.0819
50072SOL    HW157074   7.980  10.821   7.956  2.2155  1.1536 -1.5010
50072SOL    HW257075   8.036  10.702   7.883  1.2527 -0.3136  0.0526
50073SOL     OW57076  11.835   3.171   4.279 -0.5805  0.0382  0.0295
50073SOL    HW157077  11.772   3.195   4.347 -0.7311 -0.6715  0.1571
50073SOL    HW257078  11.912   3.225   4.297 -0.6784 -0.0200  0.6749
50074SOL     OW57079   1.348  12.191  11.440 -0.1556  0.0770 -0.1018
50074SOL    HW157080   1.342  12.136  11.362 -1.8476  0.4472 -0.2760
50074SOL    HW257081   1.264  12.180  11.484 -0.0380  1.4876  0.5472
50075SOL     OW57082   4.866   8.926   7.238  0.3002 -0.3099  0.0563
50075SOL    HW157083   4.942   8.976   7.269 -0.7612 -0.4499  3.3171
50075SOL    HW257084   4.846   8.866   7.310 -0.4057 -3.3021 -2.4277
50076SOL     OW57085   2.607   4.737   1.513  0.0940 -0.0177 -0.0799
50076SOL    HW157086   2.674   4.679   1.476  0.4161  0.5534 -0.4143
50076SOL    HW257087   2.633   4.747   1.605 -0.2427 -0.7875  0.1033
50077SOL     OW57088   8.701   4.496   5.430 -0.1340  0.7131  0.0497
50077SOL    HW157089   8.739   4.583   5.420 -0.0601  0.5966 -0.7711
50077SOL    HW257090   8.759   4.439   5.379 -0.1692  0.1785  0.5973
50078SOL     OW57091   0.373  10.855  10.880  0.5776 -0.2669  0.1362
50078SOL    HW157092   0.412  10.939  10.858  1.9595 -0.5798  1.2638
50078SOL    HW257093   0.425  10.791  10.832 -0.8083 -0.4758 -1.1510
50079SOL     OW57094   2.317   8.334   0.898 -0.1507  0.1466 -0.0723
50079SOL    HW157095   2.297   8.346   0.991  0.8686  0.6159  0.0927
50079SOL    HW257096   2.384   8.266   0.897  0.8058  1.0699 -0.3569
50080SOL     OW57097   9.653   9.065   1.957  0.1964 -0.7100  0.3760
50080SOL    HW157098   9.743   9.069   1.923  0.1264  0.3035  0.2811
50080SOL    HW257099   9.600   9.040   1.881 -0.0048  1.8815 -0.4353
50081SOL     OW57100   9.480   2.542   3.369  0.5053 -0.7169 -0.1545
50081SOL    HW157101   9.518   2.477   3.310 -1.1661 -1.3622 -0.5833
50081SOL    HW257102   9.451   2.493   3.445 -0.4208 -0.4332 -0.3096
50082SOL     OW57103   5.330   2.217  10.739  0.3261 -0.2688 -0.4748
50082SOL    HW157104   5.344   2.271  10.661 -0.4496  0.1733 -0.3170
50082SOL    HW257105   5.258   2.260  10.785  1.0651 -0.2601  0.7158
50083SOL     OW57106   4.036   4.914   0.209  0.1862 -0.1002 -0.1205
50083SOL    HW157107   3.992   4.857   0.271 -2.8936  0.1810 -1.8292
50083SOL    HW257108   4.104   4.859   0.169 -1.4548 -2.0130 -0.4043
50084SOL     OW57109  11.338   3.363  12.481  0.2782 -0.2642 -0.1446
50084SOL    HW157110  11.393   3.434  12.450  2.1906 -1.5815  0.0553
50084SOL    HW257111  11.399   3.291  12.499 -1.6015 -2.1727 -0.9097
50085SOL     OW57112   4.292   2.936   2.770 -0.6484 -0.4155 -0.3849
50085SOL    HW157113   4.386   2.953   2.766 -0.2061 -2.7140 -0.7868
50085SOL    HW257114   4.278   2.860   2.714 -2.5292 -0.9978  0.7579
50086SOL     OW57115   9.684   7.846   3.646 -0.2236 -0.0424  0.8942
50086SOL    HW157116   9.684   7.863   3.552 -0.7305 -1.1776  0.6711
50086SOL    HW257117   9.733   7.764   3.656 -0.7335 -0.2856  1.5312
50087SOL     OW57118   5.524   4.033   1.345  0.4917 -0.0998  0.3343
50087SOL    HW157119   5.528   4.032   1.249 -2.9435  1.5603  0.0426
50087SOL    HW257120   5.515   4.126   1.367  0.7942 -0.5018  2.2499
50088SOL     OW57121   9.519  10.012   2.989  0.2075 -0.6382  0.2983
50088SOL    HW157122   9.505  10.083   2.926 -0.9087 -0.8557  0.2836
50088SOL    HW257123   9.610   9.987   2.976  0.2222 -0.1438 -0.6733
50089SOL     OW57124  11.142   0.022   3.785 -0.2244  0.2189  0.3611
50089SOL    HW157125  11.068  -0.023   3.826 -0.2212 -1.7210 -1.5903
50089SOL    HW257126  11.114   0.113   3.778 -1.0010  0.2242  2.7613
50090SOL     OW57127  11.689   1.280   3.649  0.1379 -0.5350 -0.2360
50090SOL    HW157128  11.739   1.316   3.723  1.3413 -0.4654 -1.0544
50090SOL    HW257129  11.598   1.299   3.670  0.3264 -1.6340  1.8600
50091SOL     OW57130   3.019  12.193   6.049  0.0476 -0.2590  0.4113
50091SOL    HW157131   3.080  12.198   5.976  0.5984  0.8525  0.9309
50091SOL    HW257132   2.945  12.143   6.015  0.2359  0.3550 -0.9520
50092SOL     OW57133   2.025   8.295   9.584  0.1499  0.2083  0.6496
50092SOL    HW157134   1.932   8.279   9.602  0.3413 -1.6181  0.2689
50092SOL    HW257135   2.025   8.344   9.502 -0.5068  2.7970  2.0655
50093SOL     OW57136   4.422   3.702   9.401 -0.4212 -0.2986 -0.3621
50093SOL    HW157137   4.332   3.732   9.416 -0.3943 -0.5908  0.4288
50093SOL    HW257138   4.413   3.631   9.337 -0.7540 -0.3251 -0.2874
50094SOL     OW57139  10.719   9.701   3.268 -0.7964  0.0673  0.0583
50094SOL    HW157140  10.702   9.749   3.349  0.2438 -1.7694  1.4432
50094SOL    HW257141  10.790   9.749   3.226 -0.9871  0.7456  0.5045
50095SOL     OW57142  10.046   9.652   2.375  0.4352  0.2564  0.1851
50095SOL    HW157143  10.131   9.636   2.334 -0.0744  0.2246 -0.8876
50095SOL    HW257144   9.986   9.591   2.331 -0.2638  0.6948  0.5057
50096SOL     OW57145   5.660   9.922  10.086 -0.8310  0.3189 -0.2229
50096SOL    HW157146   5.748   9.951  10.108 -0.6977  0.8373 -1.3331
50096SOL    HW257147   5.634   9.865  10.158  0.0032  0.9809  0.6312
50097SOL     OW57148  11.226   2.563   4.305  0.0397  0.3075  0.0207
50097SOL    HW157149  11.316   2.596   4.298  0.1027  0.0918 -0.1904
50097SOL    HW257150  11.172   2.631   4.265 -0.1603  1.5993  2.3051
50098SOL     OW57151   4.726   8.697   0.118 -0.2745  0.1502 -0.0193
50098SOL    HW157152   4.686   8.610   0.119  1.8241 -0.8697  0.6283
50098SOL    HW257153   4.816   8.683   0.149  1.2854  1.9576 -3.2158
50099SOL     OW57154   9.236   0.466   1.722 -0.4341 -0.4446 -0.4976
50099SOL    HW157155   9.251   0.418   1.640 -1.2455  0.0437 -0.9477
50099SOL    HW257156   9.286   0.418   1.788  0.0650 -0.9628 -1.2462
50100SOL     OW57157   9.814  10.242   7.866 -0.3186 -0.0479  0.3769
50100SOL    HW157158   9.745  10.291   7.822 -2.7668 -2.6157  1.0189
50100SOL    HW257159   9.819  10.160   7.817  5.3254  1.3869 -2.2031
50101SOL     OW57160   5.216   9.774   0.820 -0.1044  0.0461  0.0024
50101SOL    HW157161   5.139   9.776   0.762 -0.8736 -1.5437  0.9056
50101SOL    HW257162   5.196   9.839   0.888 -0.5600 -0.1925  0.1034
50102SOL     OW57163   8.391   4.144   8.297  0.2267  0.2148  0.0043
50102SOL    HW157164   8.349   4.127   8.212  0.7851  1.3006 -0.5161
50102SOL    HW257165   8.319   4.172   8.354 -0.8152 -3.9384  1.0326
50103SOL     OW57166  11.143   3.844   5.389 -0.1576  0.4726 -0.0218
50103SOL    HW157167  11.153   3.840   5.484 -1.3842  0.8880  0.1451
50103SOL    HW257168  11.180   3.762   5.357 -0.9642 -0.2916  0.9399
50104SOL     OW57169  12.537   4.833   5.340 -0.3597  0.2439 -0.1996
50104SOL    HW157170  12.514   4.747   5.304 -0.4075  1.3559 -3.0394
50104SOL    HW257171  12.614   4.860   5.289 -0.2264  1.8256  0.7883
50105SOL     OW57172   5.375  11.564   3.752 -0.0501  0.3827  0.1272
50105SOL    HW157173   5.351  11.636   3.810 -0.6928  1.1502 -1.0615
50105SOL    HW257174   5.415  11.606   3.676 -0.0361 -0.5344 -0.3884
50106SOL     OW57175  10.025   2.576   7.009 -0.3225  0.1625  0.6402
50106SOL    HW157176  10.023   2.536   6.922  0.2324 -0.3406  0.8505
50106SOL    HW257177   9.944   2.627   7.014 -0.3110  0.2674 -0.2023
50107SOL     OW57178   6.589   6.233   4.691 -0.1606  0.4927  0.2388
50107SOL    HW157179   6.517   6.213   4.631  0.2342  1.3619 -0.5594
50107SOL    HW257180   6.664   6.183   4.656  0.1600  1.2754 -0.2216
50108SOL     OW57181   3.951   8.483   4.718  0.3321  0.0469 -0.6789
50108SOL    HW157182   3.978   8.565   4.676 -0.5428 -0.1198 -1.6049
50108SOL    HW257183   3.950   8.503   4.811  1.3547  0.7204 -0.7976
50109SOL     OW57184   3.601   6.297  11.133  0.3813  0.0565  0.1654
50109SOL    HW157185   3.671   6.259  11.081 -0.4190 -1.5446  0.1934
50109SOL    HW257186   3.568   6.369  11.079  0.4650 -0.7055 -0.9479
50110SOL     OW57187  11.848   7.392   7.836 -0.1326  0.7967  0.4449
50110SOL    HW157188  11.918   7.437   7.788 -0.9132  0.9578 -0.5999
50110SOL    HW257189  11.880   7.385   7.925  1.9396 -0.6525 -0.3334
50111SOL     OW57190  10.351   9.794   6.845 -0.1905  0.3393  0.0998
50111SOL    HW157191  10.307   9.843   6.776 -0.6602 -1.1374 -0.6846
50111SOL    HW257192  10.279   9.758   6.898  0.0695 -0.7898 -0.2761
50112SOL     OW57193   6.447   7.731  10.941 -0.4459 -0.2122 -0.2799
50112SOL    HW157194   6.367   7.720  10.889 -1.7538  1.8466  1.1326
50112SOL    HW257195   6.474   7.642  10.962 -2.0133 -0.9880 -1.3299
50113SOL     OW57196   3.111   1.618   5.951  0.4077 -0.0270  0.2168
50113SOL    HW157197   3.037   1.571   5.912 -1.0029  0.4632  2.1622
50113SOL    HW257198   3.121   1.579   6.038  2.1403  0.2715  0.1962
50114SOL     OW57199   5.197  10.481  10.042 -0.0606 -0.0120 -0.3859
50114SOL    HW157200   5.161  10.537   9.973 -0.3753 -1.0718 -1.1015
50114SOL    HW257201   5.122  10.433  10.075  0.2965 -0.4193 -0.1638
50115SOL     OW57202   1.720   0.398   1.368 -0.6885 -0.1102  0.3841
50115SOL    HW157203   1.795   0.446   1.405 -1.3072  0.8307  0.4461
50115SOL    HW257204   1.673   0.365   1.444 -0.4637 -0.5110  0.3510
50116SOL     OW57205   0.331   6.607   9.340  0.2116 -0.4722 -0.3697
50116SOL    HW157206   0.254   6.579   9.390  0.2502  0.7924  0.4623
50116SOL    HW257207   0.361   6.528   9.296 -0.5208 -1.3923  0.6989
50117SOL     OW57208   4.581  11.407  10.789 -0.3162 -0.0787  0.4106
50117SOL    HW157209   4.584  11.383  10.697  2.2385 -0.5745  0.5422
50117SOL    HW257210   4.560  11.325  10.834  0.7511 -0.3964  0.3703
50118SOL     OW57211   7.149   0.548   0.058  0.1067 -0.1737  0.0810
50118SOL    HW157212   7.140   0.614   0.127  0.3527  0.2835 -0.3236
50118SOL    HW257213   7.071   0.493   0.068 -0.6089  0.7603 -0.1948
50119SOL     OW57214   2.327   0.120   4.013  0.3325 -0.5486  0.6475
50119SOL    HW157215   2.247   0.167   3.990  1.1176  0.6052  0.1820
50119SOL    HW257216   2.307   0.028   3.993 -0.9722 -0.3291  0.8525
50120SOL     OW57217   5.891   7.252   4.289  0.2624  0.4354  0.0074
50120SOL    HW157218   5.832   7.217   4.357  1.5519 -0.7008  0.6040
50120SOL    HW257219   5.969   7.196   4.295  0.7504  0.8563 -1.8574
50121SOL     OW57220   4.650   1.366   4.943 -0.0335  0.0375 -0.2418
50121SOL    HW157221   4.577   1.312   4.974 -0.2144 -0.5001 -1.5652
50121SOL    HW257222   4.665   1.338   4.853  0.8441  1.1771 -0.4767
50122SOL     OW57223   5.270   8.048   5.931 -0.1141 -0.0182  0.4412
50122SOL    HW157224   5.227   8.096   5.861 -0.3030 -1.9855 -0.8756
50122SOL    HW257225   5.233   8.084   6.012 -0.6987  1.5523 -0.4929
50123SOL     OW57226   5.445   7.158   9.111 -0.5026 -0.6160  0.0961
50123SOL    HW157227   5.492   7.196   9.037 -0.3389  0.4418  0.7193
50123SOL    HW257228   5.395   7.086   9.074 -1.6211  0.8209 -1.3362
50124SOL     OW57229   8.951   7.667   0.909  0.6107 -0.2276 -0.0386
50124SOL    HW157230   8.899   7.598   0.949  1.2421 -1.0501 -0.6027
50124SOL    HW257231   8.923   7.747   0.953 -0.9033 -0.6853 -0.1295
50125SOL     OW57232  10.160   6.843  11.509  0.2567  0.0673  0.1738
50125SOL    HW157233  10.186   6.766  11.560 -0.3666  0.9570  1.9031
50125SOL    HW257234  10.140   6.808  11.422  0.4820 -1.6495  0.7746
50126SOL     OW57235   9.335   1.435  12.075  0.1507  0.2585  0.0082
50126SOL    HW157236   9.390   1.357  12.085 -0.4661 -0.1361  0.4660
50126SOL    HW257237   9.294   1.424  11.988  1.9300  1.3236 -1.0120
50127SOL     OW57238   4.414   0.262   6.258  0.5730 -0.1291  0.0896
50127SOL    HW157239   4.384   0.300   6.175  2.8377  1.1911 -0.2207
50127SOL    HW257240   4.429   0.338   6.315  2.9399 -0.6538  0.2765
50128SOL     OW57241   8.660   9.884   9.861 -0.1358  0.1448 -0.1493
50128SOL    HW157242   8.631   9.945   9.792 -0.0876 -0.1546 -0.4361
50128SOL    HW257243   8.728   9.831   9.819 -0.5178 -0.4349 -0.0526
50129SOL     OW57244   2.113   4.954   5.507  0.1227  0.0356  0.2739
50129SOL    HW157245   2.038   4.914   5.463  1.0610 -1.8824  0.3271
50129SOL    HW257246   2.131   5.033   5.456 -1.3981  0.0856 -0.2379
50130SOL     OW57247  12.413   8.862  12.444 -0.6366 -0.4085 -0.1184
50130SOL    HW157248  12.412   8.795  12.376  0.8088 -0.2927 -0.2880
50130SOL    HW257249  12.355   8.829  12.512  1.6516 -2.9132  0.7917
50131SOL     OW57250   8.690   9.866   3.290  0.1963 -0.2559 -0.3318
50131SOL    HW157251   8.727   9.919   3.360  0.0453 -1.5991  0.8097
50131SOL    HW257252   8.693   9.776   3.324  2.1771 -1.3013 -2.8931
50132SOL     OW57253   7.849   4.072   0.554  0.7491  0.4131 -0.0059
50132SOL    HW157254   7.903   4.052   0.478 -0.6602 -0.3835 -0.8365
50132SOL    HW257255   7.790   4.141   0.525  1.6691  1.7253  1.0823
50133SOL     OW57256   0.133  11.774   1.525  0.7468 -0.2990 -0.0912
50133SOL    HW157257   0.053  11.825   1.517  1.2008  0.7444  1.4678
50133SOL    HW257258   0.104  11.683   1.523 -0.5526  0.0615  0.8386
50134SOL     OW57259  10.396   8.371   7.563  0.4767 -0.0093 -0.9530
50134SOL    HW157260  10.370   8.297   7.508  0.5608  1.0450 -2.4703
50134SOL    HW257261  10.329   8.437   7.547  0.5639  0.3589  0.1496
50135SOL     OW57262   5.212   6.136   2.592 -0.4353 -0.2614 -0.3413
50135SOL    HW157263   5.280   6.098   2.535 -0.0002 -0.0530  0.0363
50135SOL    HW257264   5.164   6.195   2.535  0.8408  0.9712 -0.1896
50136SOL     OW57265   3.788   0.911  12.260 -0.3583 -0.1649 -0.3493
50136SOL    HW157266   3.697   0.886  12.274 -0.3651 -0.2097 -0.4731
50136SOL    HW257267   3.824   0.921  12.348  0.3203 -3.0039 -0.2327
50137SOL     OW57268   3.080   7.845   9.696  0.2167 -0.4937  0.2666
50137SOL    HW157269   3.002   7.896   9.714  0.1672 -0.2757 -0.5358
50137SOL    HW257270   3.144   7.876   9.761  0.2084  0.6256 -0.2363
50138SOL     OW57271   2.946  11.663   3.681 -0.6065  0.3632 -0.2557
50138SOL    HW157272   2.993  11.715   3.616  2.0157  0.0027  1.2379
50138SOL    HW257273   2.991  11.680   3.763 -2.4417 -0.9049  1.1086
50139SOL     OW57274   2.812  11.042   0.277 -0.5650  0.0120 -0.2459
50139SOL    HW157275   2.818  10.993   0.196  0.5485  1.1337 -0.8776
50139SOL    HW257276   2.898  11.033   0.318 -1.4966 -1.6420  1.5218
50140SOL     OW57277   2.665   4.425   1.168 -0.7710 -0.6722 -0.1334
50140SOL    HW157278   2.736   4.437   1.106 -0.6456  0.0956  0.1415
50140SOL    HW257279   2.585   4.425   1.114 -0.7219  0.7242 -0.2534
50141SOL     OW57280   1.144   2.278   3.105 -0.3693  0.2263  0.6712
50141SOL    HW157281   1.128   2.371   3.086 -1.4427  0.3221  1.9294
50141SOL    HW257282   1.093   2.231   3.039 -0.0489  0.5288  0.2062
50142SOL     OW57283  12.251   7.174   1.736  0.3991 -0.4019 -0.6392
50142SOL    HW157284  12.205   7.234   1.795  0.6045 -2.2160  1.5034
50142SOL    HW257285  12.238   7.211   1.649 -0.9501  1.7688  0.4052
50143SOL     OW57286   6.449   5.547  12.014 -0.7365 -0.2977  0.0322
50143SOL    HW157287   6.419   5.605  12.083  0.6264 -1.4520  1.7121
50143SOL    HW257288   6.437   5.459  12.050 -0.1460 -0.9513 -1.2812
50144SOL     OW57289   8.963   5.238   8.580  0.1296 -0.0238  0.7854
50144SOL    HW157290   8.977   5.201   8.493 -0.5052 -1.1292  1.1351
50144SOL    HW257291   8.989   5.330   8.572  0.4266 -0.2085 -0.4685
50145SOL     OW57292   3.007  11.173   3.933  0.0484 -0.0284  0.1032
50145SOL    HW157293   2.928  11.209   3.894  0.6635 -0.2602 -1.4698
50145SOL    HW257294   2.976  11.118   4.005 -1.4035 -1.6705 -1.6757
50146SOL     OW57295   4.532   3.018   4.070  0.2013  0.4875 -0.3857
50146SOL    HW157296   4.543   2.974   4.155  3.7210 -0.1822 -1.0508
50146SOL    HW257297   4.519   2.947   4.008  0.3496  0.8021 -0.7771
50147SOL     OW57298   7.504   6.437   5.403 -0.9721  0.2581  0.2021
50147SOL    HW157299   7.521   6.348   5.435 -0.1480 -0.2670 -1.5826
50147SOL    HW257300   7.415   6.433   5.367 -0.4061 -0.2748 -1.1925
50148SOL     OW57301   3.112   1.636   5.628 -0.4940  0.3088  0.0135
50148SOL    HW157302   3.117   1.651   5.722  2.5700  0.8390 -0.1045
50148SOL    HW257303   3.137   1.720   5.589  1.2064 -0.6649 -1.1364
50149SOL     OW57304   7.527   5.718   5.202  0.5488 -0.4095  0.4751
50149SOL    HW157305   7.584   5.719   5.279  2.1728 -3.8149 -0.4597
50149SOL    HW257306   7.501   5.626   5.192 -3.2760  0.6071 -0.5845
50150SOL     OW57307   7.268  11.794   9.541 -0.7537  0.4383  0.8623
50150SOL    HW157308   7.328  11.771   9.612 -1.2879 -1.3579  0.7805
50150SOL    HW257309   7.225  11.874   9.570  1.2311  1.4286  1.1813
50151SOL     OW57310   7.936   8.098   5.127  0.2209 -0.1021 -0.0889
50151SOL    HW157311   8.019   8.121   5.169  1.1274  0.9236 -2.2582
50151SOL    HW257312   7.905   8.180   5.089 -1.1175 -0.7508 -0.4592
50152SOL     OW57313   9.160   0.359   4.943 -0.5494  0.1981 -0.3312
50152SOL    HW157314   9.201   0.292   4.889 -0.2791  0.7952 -0.8757
50152SOL    HW257315   9.217   0.366   5.019 -0.1913  0.3199 -0.6119
50153SOL     OW57316   4.310   1.647   1.031  0.7619  0.3197  0.1281
50153SOL    HW157317   4.358   1.720   0.992  2.0513 -0.4894  0.1517
50153SOL    HW257318   4.329   1.652   1.125 -0.9766  1.2627  0.4678
50154SOL     OW57319   8.990   0.475   3.978 -0.0182  0.4811  0.0220
50154SOL    HW157320   9.023   0.517   4.057  0.1640 -1.7133  1.1904
50154SOL    HW257321   8.921   0.533   3.946  1.7965  2.8236  0.1628
50155SOL     OW57322   5.910   9.802   5.872  0.0254  0.1545  0.5695
50155SOL    HW157323   5.887   9.871   5.810 -0.3885 -0.3491  0.1487
50155SOL    HW257324   5.941   9.848   5.950 -1.2148  0.8345  0.6769
50156SOL     OW57325  11.377  11.006   3.642 -0.3699 -0.3367  0.0862
50156SOL    HW157326  11.284  11.010   3.623 -0.0358 -0.2931 -1.6652
50156SOL    HW257327  11.420  11.023   3.559  1.2194  0.1744  0.9566
50157SOL     OW57328   7.620   2.089   4.254 -0.3817  0.3441 -0.0508
50157SOL    HW157329   7.678   2.090   4.178 -0.5056  0.1581 -0.1473
50157SOL    HW257330   7.536   2.058   4.221 -0.7981  1.4647 -0.0994
50158SOL     OW57331   0.749   2.593  10.773 -0.6899  0.1589  0.0692
50158SOL    HW157332   0.834   2.629  10.797  0.0309 -1.0886 -0.5311
50158SOL    HW257333   0.697   2.600  10.853  0.5156 -0.6162  0.9435
50159SOL     OW57334   3.620   9.227   1.239 -0.4940 -0.3425  0.1348
50159SOL    HW157335   3.561   9.295   1.273  0.2278  0.6113 -0.4877
50159SOL    HW257336   3.690   9.221   1.303 -0.0827  0.1561 -0.2639
50160SOL     OW57337   8.678   2.715  10.638 -0.1587  0.0244 -0.7510
50160SOL    HW157338   8.737   2.752  10.704  0.2863 -2.7362  0.5630
50160SOL    HW257339   8.590   2.740  10.668  0.0679 -0.8016  0.7012
50161SOL     OW57340   2.832   1.473   1.386 -0.4129  0.0741 -0.0677
50161SOL    HW157341   2.865   1.560   1.408 -2.1008  0.7427 -0.0652
50161SOL    HW257342   2.881   1.414   1.444 -0.8051  1.2499  1.5465
50162SOL     OW57343   2.432   9.590   4.504  0.1178  0.1575 -0.3189
50162SOL    HW157344   2.513   9.539   4.500 -0.2331 -0.3035 -2.3431
50162SOL    HW257345   2.392   9.579   4.418 -1.8523  0.8051  0.4602
50163SOL     OW57346   4.548   6.017   6.554 -0.2215 -0.2493  1.0211
50163SOL    HW157347   4.461   5.988   6.526 -0.2465  0.1684  0.6741
50163SOL    HW257348   4.542   6.018   6.650 -1.1621  1.4706  0.9762
50164SOL     OW57349   1.516   3.142   4.402 -0.2715 -0.4243 -0.5281
50164SOL    HW157350   1.495   3.217   4.346  0.2319 -0.0343 -0.2021
50164SOL    HW257351   1.552   3.181   4.482  2.0603 -1.0578 -1.2039
50165SOL     OW57352   9.213   8.400   2.410  0.4290 -0.5353  0.6367
50165SOL    HW157353   9.164   8.452   2.347  1.3625  0.0255  0.3573
50165SOL    HW257354   9.170   8.418   2.494 -1.8586 -2.5568 -0.0019
50166SOL     OW57355   7.984   4.946  12.202 -0.8447  0.3126  0.3745
50166SOL    HW157356   8.050   4.985  12.259  0.8159  2.0966 -2.5475
50166SOL    HW257357   7.929   5.019  12.175 -1.4197 -0.4312 -0.5241
50167SOL     OW57358  12.144   7.800  12.509 -0.1779 -0.6627 -0.3179
50167SOL    HW157359  12.229   7.829  12.542 -0.4021  1.2983 -1.3275
50167SOL    HW257360  12.164   7.759  12.425 -0.1973 -0.4767 -0.4131
50168SOL     OW57361   8.212   5.383   6.207  0.6631  0.8186 -0.0750
50168SOL    HW157362   8.144   5.399   6.141  1.7807 -0.5492 -1.6301
50168SOL    HW257363   8.224   5.288   6.207  2.4715  1.0158  0.2484
50169SOL     OW57364   5.294   4.930   6.467  0.2896  0.8648 -0.0895
50169SOL    HW157365   5.252   4.996   6.522  0.0360  0.7992 -0.2041
50169SOL    HW257366   5.267   4.846   6.504  0.4459  0.8237 -0.0679
50170SOL     OW57367   2.026   7.017  11.718 -0.0739 -0.2377 -0.5155
50170SOL    HW157368   1.990   6.940  11.761 -1.0456  0.9370  0.9025
50170SOL    HW257369   1.951   7.057  11.674  0.6652 -0.7346 -2.2980
50171SOL     OW57370   5.634   7.705   2.584 -0.3605 -0.3692 -0.8786
50171SOL    HW157371   5.567   7.637   2.574 -0.1064 -0.7955  0.1945
50171SOL    HW257372   5.637   7.722   2.678 -1.0173  1.7585 -1.1832
50172SOL     OW57373   5.640   3.795   3.066  0.4527 -0.2303 -0.5854
50172SOL    HW157374   5.573   3.847   3.110 -2.0374 -2.2590 -1.6982
50172SOL    HW257375   5.687   3.752   3.137  0.6900  1.3026  0.2261
50173SOL     OW57376   7.866   4.051   5.620 -0.7642  0.3265 -0.0289
50173SOL    HW157377   7.875   4.122   5.556 -0.1416  0.0042 -0.3006
50173SOL    HW257378   7.866   3.971   5.567 -0.2941  0.0604  0.3708
50174SOL     OW57379   4.443  10.644   5.736  0.3487  0.2256  0.4573
50174SOL    HW157380   4.390  10.611   5.663  2.5133  2.7907 -2.5466
50174SOL    HW257381   4.384  10.703   5.783 -1.3648 -2.1560  1.5147
50175SOL     OW57382   4.602   0.429   7.961  0.4178  0.1224 -0.1085
50175SOL    HW157383   4.635   0.505   8.011  1.9278 -0.3691 -0.3095
50175SOL    HW257384   4.536   0.466   7.902  0.1577  1.0572  0.7363
50176SOL     OW57385  10.118   0.206   4.238 -0.3817 -0.2899 -0.2614
50176SOL    HW157386  10.108   0.275   4.304 -2.6251 -0.0023 -0.8460
50176SOL    HW257387  10.096   0.248   4.155 -1.0577 -1.5305 -0.7290
50177SOL     OW57388   8.924  10.454   9.395 -0.6676  0.3766 -0.3316
50177SOL    HW157389   8.873  10.478   9.472 -2.0148  1.2807 -1.4364
50177SOL    HW257390   8.983  10.528   9.381 -1.5550  0.9765 -1.0555
50178SOL     OW57391   0.316  11.201   1.643  0.4515  0.2615 -0.0394
50178SOL    HW157392   0.281  11.243   1.565  0.8083 -0.9162 -0.8432
50178SOL    HW257393   0.245  11.148   1.677  1.2392 -1.8263 -1.4568
50179SOL     OW57394   6.162  10.014   1.763 -0.5786 -0.0827 -0.0503
50179SOL    HW157395   6.125  10.102   1.751  1.0477  0.7832  0.9266
50179SOL    HW257396   6.201   9.993   1.678  0.3766  0.8468  0.1262
50180SOL     OW57397   1.306   5.879  10.030 -0.1278  0.3813 -0.0359
50180SOL    HW157398   1.366   5.954  10.025 -0.5867  0.9420  1.9654
50180SOL    HW257399   1.331   5.834  10.110 -0.6598 -0.9436 -0.5868
50181SOL     OW57400   8.727   5.612  11.286 -0.3234  0.3168  0.3186
50181SOL    HW157401   8.668   5.652  11.349 -0.4177 -0.0901  0.4912
50181SOL    HW257402   8.673   5.598  11.208  0.0566  1.7767 -0.2300
50182SOL     OW57403   8.486   1.206   7.804 -0.3932 -0.0592 -0.6002
50182SOL    HW157404   8.550   1.147   7.764 -0.1049 -0.1269 -0.0448
50182SOL    HW257405   8.431   1.149   7.858 -0.4277  0.1095 -0.4567
50183SOL     OW57406   6.236   9.668  10.700 -0.7186 -0.1045  0.0119
50183SOL    HW157407   6.210   9.759  10.709 -0.0276  0.4786 -2.9357
50183SOL    HW257408   6.317   9.670  10.649  1.9798 -2.1841  3.7266
50184SOL     OW57409   0.453  11.497   0.964  0.4888 -0.2712  0.1745
50184SOL    HW157410   0.374  11.494   0.910  0.5237 -1.2144  0.1661
50184SOL    HW257411   0.525  11.485   0.901  0.6488  0.5319  0.1882
50185SOL     OW57412   7.469  10.754  11.261 -0.1579  0.3536 -0.5685
50185SOL    HW157413   7.472  10.794  11.174 -2.4833 -1.0628 -1.3958
50185SOL    HW257414   7.553  10.710  11.270  0.7323  1.7985 -1.4245
50186SOL     OW57415   0.142   5.255   9.418  0.2129  0.3388  0.0553
50186SOL    HW157416   0.171   5.164   9.425 -1.1196 -0.2102 -1.1220
50186SOL    HW257417   0.222   5.304   9.400  0.7214 -0.8750 -1.2427
50187SOL     OW57418   0.171  10.546  11.116 -0.6624  0.4569  0.3353
50187SOL    HW157419   0.173  10.454  11.140  0.1584  0.5809  0.7503
50187SOL    HW257420   0.093  10.554  11.061  0.5286 -0.9662 -1.6855
50188SOL     OW57421   3.366  12.117  11.379  0.2573  0.3594 -0.1625
50188SOL    HW157422   3.361  12.044  11.317  0.5753  2.0415 -2.3358
50188SOL    HW257423   3.454  12.110  11.417 -0.5697 -1.7203  1.5412
50189SOL     OW57424   2.613   7.920   1.767  0.4399  0.8698  0.0229
50189SOL    HW157425   2.705   7.916   1.745  0.4178 -1.4762  0.0859
50189SOL    HW257426   2.569   7.869   1.699 -0.8235  1.9850 -0.0391
50190SOL     OW57427   8.343   2.459   7.665 -0.0893  0.2564 -0.8327
50190SOL    HW157428   8.270   2.480   7.606 -1.4403  0.0257  0.6792
50190SOL    HW257429   8.333   2.365   7.683  0.0495  0.4043  0.0613
50191SOL     OW57430   9.369   9.268  12.207  0.7094 -0.3909 -0.5757
50191SOL    HW157431   9.382   9.360  12.183 -1.1259 -0.3141 -1.4348
50191SOL    HW257432   9.350   9.271  12.301 -0.8172  0.2904 -0.8852
50192SOL     OW57433  11.890  12.174   3.367  0.4582  0.2056  0.1120
50192SOL    HW157434  11.981  12.148   3.381  0.3174 -1.2163 -1.3493
50192SOL    HW257435  11.893  12.232   3.290  0.0956 -0.0813 -0.1188
50193SOL     OW57436   6.596   1.149   8.949 -0.4136 -0.4501  0.5884
50193SOL    HW157437   6.667   1.096   8.985 -2.0422 -2.9248  0.4400
50193SOL    HW257438   6.640   1.214   8.894  1.7552 -1.4630  1.0180
50194SOL     OW57439   7.382   4.541   1.260  0.3525  0.0191 -0.1324
50194SOL    HW157440   7.399   4.463   1.314  0.3332 -2.0671 -2.9174
50194SOL    HW257441   7.287   4.553   1.264  0.1010 -1.3629 -1.1881
50195SOL     OW57442   3.795   3.870   4.475  0.1692 -0.5885 -0.0444
50195SOL    HW157443   3.880   3.886   4.434 -0.9921 -0.2390 -2.5381
50195SOL    HW257444   3.742   3.947   4.452 -1.2428 -1.4611  0.1465
50196SOL     OW57445   2.760   9.919   7.321 -0.0908  0.0365  0.1240
50196SOL    HW157446   2.670   9.916   7.288  0.7753  1.3101 -2.6367
50196SOL    HW257447   2.797   9.999   7.284  2.6912 -1.3009 -0.2347
50197SOL     OW57448   0.009   6.427  11.064 -0.2127  0.3505  0.5620
50197SOL    HW157449  -0.028   6.466  10.985  1.1786 -0.2307 -0.4253
50197SOL    HW257450   0.050   6.500  11.111  2.3888  0.2126 -1.2780
50198SOL     OW57451   3.695  10.465   8.940  0.2773  0.0932  0.4559
50198SOL    HW157452   3.675  10.402   9.010  0.3915  0.1022  0.4966
50198SOL    HW257453   3.789  10.480   8.947  0.0699  1.1730  1.2123
50199SOL     OW57454   4.451   3.626   6.269  0.0146  0.3715 -0.0607
50199SOL    HW157455   4.517   3.561   6.291  1.6813  2.1228  0.3353
50199SOL    HW257456   4.491   3.678   6.199 -1.4117  0.7982 -0.6025
50200SOL     OW57457   0.897   1.403  11.291 -0.1393 -0.5025  0.2883
50200SOL    HW157458   0.934   1.322  11.326  1.6256  0.3207  0.4333
50200SOL    HW257459   0.972   1.449  11.253 -0.9398  1.4581  0.9679
50201SOL     OW57460   4.495   6.894   5.394  0.1022  0.5643  0.0727
50201SOL    HW157461   4.555   6.849   5.335  1.3870  1.2299  0.8058
50201SOL    HW257462   4.548   6.914   5.471 -1.3431  0.3050  1.1823
50202SOL     OW57463  10.177   0.448   4.085 -0.1499  0.3272  0.3171
50202SOL    HW157464  10.252   0.433   4.028 -0.9749 -0.9402 -0.4705
50202SOL    HW257465  10.100   0.435   4.029 -0.9863 -1.2341  1.7323
50203SOL     OW57466   1.545   0.888   9.770 -0.0417 -0.0729  0.4269
50203SOL    HW157467   1.551   0.806   9.818 -2.7799  0.7810  2.4951
50203SOL    HW257468   1.468   0.876   9.713 -0.4114  0.9921  0.6838
50204SOL     OW57469   9.559   7.305   8.590  0.2091  0.0079 -0.0985
50204SOL    HW157470   9.626   7.365   8.623  0.6339 -0.0116 -0.9088
50204SOL    HW257471   9.561   7.316   8.495 -1.1651  0.2373 -0.1173
50205SOL     OW57472   3.748   3.939   1.154 -0.2677 -0.4357  0.1666
50205SOL    HW157473   3.733   3.868   1.092 -1.3480 -0.6600  0.6591
50205SOL    HW257474   3.691   3.918   1.229  0.2597  0.3474  0.8042
50206SOL     OW57475   5.150   2.810   0.590  0.1881  0.4827 -0.6831
50206SOL    HW157476   5.114   2.884   0.640  1.2145  0.4872  0.0854
50206SOL    HW257477   5.237   2.840   0.562  0.3911 -0.2237 -0.8372
50207SOL     OW57478   9.868   8.479   6.297  0.2517  0.0822  0.3172
50207SOL    HW157479   9.963   8.485   6.296  0.2913 -0.3760 -1.3493
50207SOL    HW257480   9.840   8.524   6.217 -0.8589 -0.6688  0.2580
50208SOL     OW57481  12.561   7.449   3.022  0.0931 -0.2940  0.5411
50208SOL    HW157482  12.489   7.511   3.010  0.6663  0.3207  0.2370
50208SOL    HW257483  12.602   7.475   3.104  0.0474 -0.5692  0.6532
50209SOL     OW57484  11.729   9.727   9.210  0.0954  0.5785 -0.3639
50209SOL    HW157485  11.641   9.740   9.176 -0.4644  0.5145  1.0034
50209SOL    HW257486  11.717   9.711   9.303  1.6456  1.8478  0.1110
50210SOL     OW57487   3.433   8.435   0.447  0.2743  0.1060 -0.4026
50210SOL    HW157488   3.410   8.383   0.370  0.4254  1.0227 -1.0743
50210SOL    HW257489   3.397   8.385   0.521 -1.1444 -0.0677 -1.1742
50211SOL     OW57490  10.090  11.171   3.303  0.4641  0.7594  1.0405
50211SOL    HW157491  10.181  11.146   3.291  0.2109  0.3557 -0.2404
50211SOL    HW257492  10.040  11.100   3.264 -0.3552  1.7324  0.2445
50212SOL     OW57493  10.479   1.000   1.725  0.5442 -0.2938 -0.1345
50212SOL    HW157494  10.404   1.050   1.693 -0.7900 -1.7067  0.6490
50212SOL    HW257495  10.553   1.033   1.674 -0.8067  0.2762 -1.8511
50213SOL     OW57496   0.222  10.617  11.420  0.0876  0.4117 -0.3190
50213SOL    HW157497   0.197  10.622  11.328 -1.5014 -2.5409 -0.1664
50213SOL    HW257498   0.318  10.608  11.419  0.0013 -0.4925 -1.7438
50214SOL     OW57499   5.432   2.855  12.434  0.2378 -0.1208  0.5975
50214SOL    HW157500   5.506   2.890  12.483 -0.8315  3.3490  0.0831
50214SOL    HW257501   5.355   2.881  12.485 -0.7250 -0.8407 -0.4203
50215SOL     OW57502   0.627   2.764   5.133 -0.4660  0.1297  0.3753
50215SOL    HW157503   0.581   2.719   5.062 -0.5204 -0.2836  0.6686
50215SOL    HW257504   0.566   2.831   5.162 -1.1279 -0.7766  1.1377
50216SOL     OW57505   8.900   4.326   5.335 -0.5826  0.2339  0.2889
50216SOL    HW157506   8.986   4.295   5.363 -0.2096  0.3282 -0.6994
50216SOL    HW257507   8.847   4.247   5.327  0.0261 -0.0651 -1.0928
50217SOL     OW57508  12.422   7.506   3.701 -0.5936  0.2305  0.2369
50217SOL    HW157509  12.409   7.419   3.662 -0.6608  0.7138 -0.8405
50217SOL    HW257510  12.510   7.531   3.674 -0.9576  0.9309 -0.3293
50218SOL     OW57511  10.104   6.545   4.270 -0.3387  0.0283 -0.0115
50218SOL    HW157512  10.193   6.579   4.275 -0.4924  0.8774 -2.1401
50218SOL    HW257513  10.101   6.495   4.189 -2.3159  1.7610 -1.1177
50219SOL     OW57514   8.753   2.144   1.057  0.0989 -0.3248 -0.6606
50219SOL    HW157515   8.675   2.099   1.089 -1.0379 -0.8494 -3.9047
50219SOL    HW257516   8.725   2.235   1.046  0.0665 -0.4131 -1.3539
50220SOL     OW57517  11.211   8.993   1.327 -0.1642 -0.6466  0.5046
50220SOL    HW157518  11.175   9.063   1.381  0.8717 -0.7152  1.3091
50220SOL    HW257519  11.139   8.970   1.267 -0.8593  0.3867  0.9063
50221SOL     OW57520   4.471   8.548   1.103  0.4682 -0.0152  0.3379
50221SOL    HW157521   4.455   8.605   1.028 -1.1221 -1.4484 -0.4781
50221SOL    HW257522   4.556   8.507   1.084  1.0557  1.1607  0.3582
50222SOL     OW57523   6.309   7.904   8.688  0.0115 -0.1078 -0.6752
50222SOL    HW157524   6.375   7.839   8.712 -0.5238 -0.0257  1.2209
50222SOL    HW257525   6.323   7.976   8.749 -1.8484 -0.1355 -0.1263
50223SOL     OW57526  11.576   6.569   7.834 -0.6591 -0.2384 -0.0230
50223SOL    HW157527  11.490   6.590   7.873 -0.8648 -0.3795 -0.3992
50223SOL    HW257528  11.606   6.493   7.884 -0.4372  0.2242  0.5667
50224SOL     OW57529   8.688   2.837  12.182  0.6363  0.4292 -0.8603
50224SOL    HW157530   8.648   2.771  12.239  1.1908  1.2610  0.5447
50224SOL    HW257531   8.684   2.799  12.095  1.1866 -1.5896 -0.0610
50225SOL     OW57532   0.142   7.313   8.417  0.2087 -0.0848  0.0274
50225SOL    HW157533   0.190   7.309   8.500  0.6576 -1.4913 -0.2606
50225SOL    HW257534   0.208   7.296   8.350 -0.6885 -2.5880 -0.3394
50226SOL     OW57535   2.185  11.156   0.584  0.1096 -0.6726 -0.0802
50226SOL    HW157536   2.101  11.115   0.606 -0.5499  0.3697 -0.5806
50226SOL    HW257537   2.169  11.250   0.590  1.1469 -0.4454 -0.5252
50227SOL     OW57538  10.374   5.003   4.359 -0.5321 -0.5028  0.0677
50227SOL    HW157539  10.383   4.978   4.450  1.5639 -1.2185 -0.2797
50227SOL    HW257540  10.303   4.949   4.325 -0.8268 -0.7635  1.0944
50228SOL     OW57541  10.411   4.726   6.391 -0.0241 -0.0163  0.6055
50228SOL    HW157542  10.373   4.639   6.402 -1.5158  0.7228  1.5400
50228SOL    HW257543  10.337   4.783   6.374  1.0118  0.9830 -0.7935
50229SOL     OW57544   6.889   7.571   9.074  0.4465  0.0864 -0.4044
50229SOL    HW157545   6.977   7.537   9.092  1.0909  2.1108  0.5927
50229SOL    HW257546   6.835   7.538   9.146  0.8861  0.5368  0.1408
50230SOL     OW57547   9.858   1.358  10.545 -0.0097 -0.2669 -0.1670
50230SOL    HW157548   9.893   1.316  10.467 -2.0637 -1.9746 -0.2493
50230SOL    HW257549   9.763   1.356  10.534 -0.3237  0.6893  1.7603
50231SOL     OW57550   7.489   7.757   8.997 -0.4684  0.1013 -0.2414
50231SOL    HW157551   7.510   7.723   9.084  0.7685 -0.9818 -0.9275
50231SOL    HW257552   7.550   7.830   8.984 -0.6100  0.2232 -0.2169
50232SOL     OW57553   6.359   8.941   3.752  0.2388 -0.5966  0.3196
50232SOL    HW157554   6.326   8.995   3.824 -1.0828  0.1450 -0.7698
50232SOL    HW257555   6.346   8.851   3.780  0.9863 -0.3421  1.5299
50233SOL     OW57556   3.129   0.676   3.449 -0.5574 -0.2008  0.5656
50233SOL    HW157557   3.204   0.643   3.400 -0.8438 -0.8301  0.5359
50233SOL    HW257558   3.069   0.707   3.381 -0.0117  1.0317  0.6158
50234SOL     OW57559   7.015   1.198   4.916 -0.4584  0.6113  0.1764
50234SOL    HW157560   7.106   1.175   4.897 -0.1509 -1.1230  3.0293
50234SOL    HW257561   6.964   1.157   4.845  0.8883  0.5663 -0.7950
50235SOL     OW57562   2.618  11.851   9.287 -0.2058 -0.1622 -0.1444
50235SOL    HW157563   2.708  11.871   9.261 -1.0924  0.6211 -2.9676
50235SOL    HW257564   2.567  11.927   9.257 -1.6880  0.0453  2.5803
50236SOL     OW57565   5.487  12.258   0.483  0.4095 -0.0541  0.1960
50236SOL    HW157566   5.531  12.286   0.403  0.4578  0.4614  0.3987
50236SOL    HW257567   5.394  12.256   0.460  0.0897  2.6765  0.8061
50237SOL     OW57568   3.413   3.699   8.441 -0.1727 -0.2286 -0.2143
50237SOL    HW157569   3.444   3.779   8.485 -1.0262  0.4121 -0.7541
50237SOL    HW257570   3.463   3.696   8.359 -0.8167  0.2777 -0.6342
50238SOL     OW57571  10.840  12.194   9.532  0.3805  0.3122 -0.1080
50238SOL    HW157572  10.880  12.277   9.558  0.3029  0.5823 -0.8060
50238SOL    HW257573  10.775  12.219   9.466 -0.1397 -0.2363  0.1896
50239SOL     OW57574   4.770   4.187   7.000 -0.1300  0.4339  0.4414
50239SOL    HW157575   4.808   4.160   7.083 -1.8013 -0.8808  0.8295
50239SOL    HW257576   4.676   4.197   7.018 -0.6109 -0.3680 -1.3905
50240SOL     OW57577   7.614   0.464   5.770  0.1834 -0.4734 -0.1196
50240SOL    HW157578   7.619   0.558   5.784 -2.6608 -0.4569  1.4198
50240SOL    HW257579   7.535   0.451   5.717 -1.4971 -2.1420  2.5910
50241SOL     OW57580   3.448  10.303  12.346  0.4254  0.8723 -0.0409
50241SOL    HW157581   3.514  10.356  12.301  1.8624 -0.5723  0.2606
50241SOL    HW257582   3.498  10.230  12.383 -1.6264 -1.3850 -1.4705
50242SOL     OW57583  11.772   4.182   7.591 -0.7804  0.3848 -0.0994
50242SOL    HW157584  11.773   4.277   7.580  0.9223  0.2650 -1.2192
50242SOL    HW257585  11.858   4.153   7.562  0.2594 -1.1280  3.7898
50243SOL     OW57586   4.070  10.260   6.639  0.0002 -0.2551  0.3248
50243SOL    HW157587   4.014  10.243   6.564  0.5648 -0.5169 -0.0489
50243SOL    HW257588   4.149  10.207   6.622  0.4121  0.2063  0.7692
50244SOL     OW57589   0.995   7.598  12.539 -0.2309 -0.1353 -0.3441
50244SOL    HW157590   0.934   7.556  12.600  0.8749  0.1584  1.0258
50244SOL    HW257591   0.939   7.637  12.472 -1.6917  1.4262  1.6668
50245SOL     OW57592   6.581   1.035   9.531 -0.0930  0.0649  0.3615
50245SOL    HW157593   6.642   1.008   9.462 -2.1699 -0.0453 -1.5823
50245SOL    HW257594   6.588   1.130   9.534  1.2491 -0.0406  1.2801
50246SOL     OW57595   1.502   7.033  12.546 -0.1337 -0.4994 -0.0267
50246SOL    HW157596   1.472   7.050  12.456 -1.6205 -2.2863  0.0640
50246SOL    HW257597   1.569   6.966  12.537  1.5499  1.1008  0.0529
50247SOL     OW57598   7.420  10.055   7.428  0.5552 -0.0601  0.1289
50247SOL    HW157599   7.335  10.050   7.384  0.8660 -0.2195 -0.4699
50247SOL    HW257600   7.420   9.980   7.488  0.1382  0.1424  0.3859
50248SOL     OW57601   9.414   9.859   1.447 -0.1684 -0.6098  0.6765
50248SOL    HW157602   9.444   9.787   1.392 -1.8129 -1.0965  0.3801
50248SOL    HW257603   9.319   9.861   1.436 -0.2049  1.4838  0.8242
50249SOL     OW57604   3.274   4.538   1.928  0.1394  0.3376 -0.3828
50249SOL    HW157605   3.238   4.484   1.999  0.6212 -1.8211 -1.6685
50249SOL    HW257606   3.198   4.584   1.892 -0.5492 -0.5541 -0.1180
50250SOL     OW57607   2.438   0.139  10.914  0.2292 -0.4486 -0.4852
50250SOL    HW157608   2.347   0.148  10.888  0.3253  0.6414 -0.5082
50250SOL    HW257609   2.450   0.045  10.931 -0.8899 -0.5948 -0.4585
50251SOL     OW57610   3.834   5.139  10.918 -0.0824 -0.3873 -0.1291
50251SOL    HW157611   3.926   5.114  10.924  0.1955  0.2080 -1.5479
50251SOL    HW257612   3.835   5.220  10.867 -1.4566 -0.7607 -0.7762
50252SOL     OW57613  12.135   5.945  11.418 -0.2742 -0.1035 -0.0808
50252SOL    HW157614  12.181   5.972  11.338  0.1122 -1.1023 -0.2081
50252SOL    HW257615  12.155   6.014  11.482 -0.1972  0.4586 -0.7048
50253SOL     OW57616   7.357  10.398   6.741  0.3708  0.5155 -0.0502
50253SOL    HW157617   7.366  10.361   6.654  0.2413 -0.5766  0.3792
50253SOL    HW257618   7.263  10.396   6.759  0.5842 -1.8083  1.1361
50254SOL     OW57619   4.505  10.026   0.720 -0.2430  0.6363  0.0486
50254SOL    HW157620   4.589   9.992   0.750  0.3000  1.0366 -0.9455
50254SOL    HW257621   4.529  10.096   0.658 -1.2739 -0.0035 -1.1253
50255SOL     OW57622   3.122   8.330   0.810 -0.5722  0.9029  0.0007
50255SOL    HW157623   3.122   8.315   0.904 -0.0566 -0.2958 -0.1758
50255SOL    HW257624   3.038   8.295   0.780  0.5714 -1.7095 -0.3910
50256SOL     OW57625  10.257   7.436  10.790 -0.0118  0.0859 -0.5872
50256SOL    HW157626  10.343   7.478  10.781  0.5243 -0.8851 -0.1753
50256SOL    HW257627  10.199   7.506  10.819  1.1421  0.2881  1.3905
50257SOL     OW57628   7.066   8.174   9.037  0.2609 -0.0306  0.2178
50257SOL    HW157629   6.980   8.174   9.081  0.4844  2.6239  0.7872
50257SOL    HW257630   7.121   8.120   9.094 -0.7995 -1.1314  0.2563
50258SOL     OW57631   7.943   5.170   1.370 -0.4072  0.0920 -0.6092
50258SOL    HW157632   7.897   5.197   1.449 -0.5256 -1.6436 -0.0537
50258SOL    HW257633   7.878   5.176   1.300 -0.3384  1.5011 -0.5697
50259SOL     OW57634   4.511  11.891   1.024 -0.5134 -0.7947 -0.1303
50259SOL    HW157635   4.591  11.926   1.063 -0.8761  0.0469 -0.1212
50259SOL    HW257636   4.442  11.911   1.087 -0.8845 -0.6344 -0.5760
50260SOL     OW57637   3.986   4.396   7.954 -0.6548  0.3545  0.3021
50260SOL    HW157638   4.038   4.317   7.943 -1.4467 -0.2399  0.7253
50260SOL    HW257639   3.982   4.410   8.049 -0.3596  1.0124  0.2237
50261SOL     OW57640   8.191   2.938   5.499  0.7055 -0.1783  0.3521
50261SOL    HW157641   8.154   3.009   5.447  2.5355  1.1596  0.7905
50261SOL    HW257642   8.178   2.966   5.590  2.1337 -0.0088  0.5159
50262SOL     OW57643  11.378   6.478   4.696  0.0864 -0.0570  0.2042
50262SOL    HW157644  11.463   6.507   4.730  0.0245 -0.3473  0.6079
50262SOL    HW257645  11.399   6.436   4.612  0.0449  2.3339 -1.1011
50263SOL     OW57646   3.464   9.755   1.754 -0.2776  0.2970  0.7706
50263SOL    HW157647   3.433   9.828   1.808 -0.9661  0.3990  0.2540
50263SOL    HW257648   3.480   9.684   1.817 -0.1735  0.7050  1.2125
50264SOL     OW57649   5.826  10.740   9.111 -0.1255  0.0608  0.1654
50264SOL    HW157650   5.916  10.716   9.091 -0.4259 -1.9153  0.9844
50264SOL    HW257651   5.805  10.692   9.191 -1.6524  1.1332  0.4617
50265SOL     OW57652   8.065   9.887  11.205  0.0846  0.0099 -0.2530
50265SOL    HW157653   7.974   9.864  11.185 -0.1285  0.6031  0.0391
50265SOL    HW257654   8.079   9.971  11.161  0.7011 -0.3937 -0.8546
50266SOL     OW57655   4.078   1.091   6.790  0.7096  0.1808  0.0617
50266SOL    HW157656   4.042   1.101   6.878  1.9829  0.3994  0.5791
50266SOL    HW257657   4.171   1.075   6.804  0.9830  0.5047 -1.2586
50267SOL     OW57658   5.650   7.497   4.301  0.1835  0.0574  0.5940
50267SOL    HW157659   5.597   7.540   4.234  0.2258 -0.6406  0.1056
50267SOL    HW257660   5.670   7.411   4.265  2.2140  0.5288  0.4874
50268SOL     OW57661   8.717  11.273   4.743  0.2072 -0.0183 -0.4621
50268SOL    HW157662   8.718  11.290   4.837 -1.8814  0.9387 -0.5761
50268SOL    HW257663   8.794  11.217   4.729  0.3959 -0.4446  1.8355
50269SOL     OW57664  11.638   8.461   9.655 -0.2319  0.2994  0.2606
50269SOL    HW157665  11.644   8.509   9.572  1.9286 -0.5548 -0.1348
50269SOL    HW257666  11.728   8.457   9.687 -0.3738 -3.0435  0.5293
50270SOL     OW57667   9.210   8.348   7.887 -0.9412 -0.7666  0.2949
50270SOL    HW157668   9.142   8.414   7.872 -1.1727 -1.1821 -0.5263
50270SOL    HW257669   9.212   8.297   7.807  1.0126 -0.1750 -0.0922
50271SOL     OW57670   8.291  12.490   5.610  0.3010  0.2556 -0.4491
50271SOL    HW157671   8.238  12.411   5.598  0.6602  0.1370 -1.3328
50271SOL    HW257672   8.254  12.532   5.688 -0.5073 -0.2827 -0.5287
50272SOL     OW57673   8.017   2.664  10.717  0.1386 -0.0128  0.9606
50272SOL    HW157674   8.003   2.584  10.665  1.7287 -0.2513  0.8528
50272SOL    HW257675   7.956   2.655  10.791 -0.9251 -0.4930  0.0653
50273SOL     OW57676   4.157   1.605   3.068  0.1536 -0.2530 -0.5656
50273SOL    HW157677   4.197   1.640   2.988  0.9705  0.0481 -0.0433
50273SOL    HW257678   4.095   1.539   3.038  1.1985 -0.8760 -1.4063
50274SOL     OW57679   8.546   9.270   2.231 -0.2356 -0.2854  0.2048
50274SOL    HW157680   8.610   9.313   2.174  1.5466  1.4578  3.2642
50274SOL    HW257681   8.462   9.280   2.186  0.9317  1.7031 -1.6924
50275SOL     OW57682  10.243   3.362   5.703  0.6772 -0.1997 -0.1892
50275SOL    HW157683  10.189   3.401   5.772  0.5780  0.6076 -0.7176
50275SOL    HW257684  10.187   3.362   5.626  1.9229  2.1927 -1.2009
50276SOL     OW57685   8.808   8.904   5.907 -0.1600 -0.1604  0.3035
50276SOL    HW157686   8.760   8.898   5.825 -1.3711 -0.4859  1.0060
50276SOL    HW257687   8.863   8.826   5.908  0.3597  0.1884 -0.4896
50277SOL     OW57688   0.478  11.662   2.411  0.2844  0.1237  0.6742
50277SOL    HW157689   0.438  11.746   2.387 -0.7762 -0.6285 -0.3040
50277SOL    HW257690   0.404  11.601   2.419  1.0687 -0.8264  0.9445
50278SOL     OW57691   1.524   0.007   1.765  0.1995  0.4197  0.1356
50278SOL    HW157692   1.568   0.012   1.680  0.8166  0.4034  0.4494
50278SOL    HW257693   1.557   0.082   1.813 -1.5024  1.4623 -0.2515
50279SOL     OW57694   0.086   4.935   8.594 -0.1157 -0.1994 -0.6563
50279SOL    HW157695   0.150   4.879   8.550 -0.8351  0.6531 -2.8723
50279SOL    HW257696   0.126   5.022   8.594  0.5482 -0.3997  1.8648
50280SOL     OW57697  11.494   4.876  12.106  0.5365  0.1090  0.0096
50280SOL    HW157698  11.498   4.918  12.020  0.1878 -0.2048 -0.1624
50280SOL    HW257699  11.488   4.949  12.168 -1.3469  0.3125 -0.3521
50281SOL     OW57700   4.222   0.101   5.383 -0.0311  0.6535  0.1833
50281SOL    HW157701   4.154   0.162   5.354  1.6130  1.6657 -1.8714
50281SOL    HW257702   4.260   0.143   5.460 -0.7941  0.7680  0.5084
50282SOL     OW57703  12.017   7.307   2.606  0.0406 -0.3856  0.1998
50282SOL    HW157704  11.932   7.271   2.580 -0.3147  0.0145  0.7719
50282SOL    HW257705  12.055   7.239   2.663  0.5853 -1.0283 -0.9097
50283SOL     OW57706  10.768   7.039   9.162 -0.0474  0.0195 -0.3169
50283SOL    HW157707  10.720   7.020   9.081  2.1520 -0.7745 -1.5129
50283SOL    HW257708  10.802   6.954   9.190  0.8857  0.5781  0.2971
50284SOL     OW57709  12.361   3.080   7.314  0.1135  0.3622 -0.1627
50284SOL    HW157710  12.351   3.055   7.406 -0.7442 -0.4572 -0.4632
50284SOL    HW257711  12.315   3.012   7.265  0.8161  0.6234 -1.2256
50285SOL     OW57712   1.741   4.953   0.738 -0.1218  0.2742 -0.0855
50285SOL    HW157713   1.824   4.905   0.736 -0.5017 -0.4121  0.0973
50285SOL    HW257714   1.731   4.981   0.829 -0.2797  0.0085 -0.0198
50286SOL     OW57715   9.087  12.419  11.674  0.1654  0.0179  0.3354
50286SOL    HW157716   9.131  12.479  11.613  0.2647 -0.3264  0.0640
50286SOL    HW257717   9.080  12.468  11.756  0.2923  0.3798  0.1288
50287SOL     OW57718   6.683   8.836   1.766 -0.3027 -0.2870 -0.3064
50287SOL    HW157719   6.624   8.885   1.708 -0.3094  1.2134  0.9159
50287SOL    HW257720   6.712   8.762   1.712  0.7823  1.7624 -2.7850
50288SOL     OW57721   4.998   1.114   7.499 -0.4868  0.3831 -0.0631
50288SOL    HW157722   4.949   1.061   7.436  0.5255 -0.6052 -0.0459
50288SOL    HW257723   5.085   1.124   7.461 -0.3888  1.2940  0.3622
50289SOL     OW57724   4.774   1.070   8.538 -0.1950 -0.2212  0.1138
50289SOL    HW157725   4.746   0.982   8.565 -0.1263  0.2497  1.8899
50289SOL    HW257726   4.866   1.074   8.565 -0.8664  1.2293  2.5189
50290SOL     OW57727   7.883   9.336   6.188  0.0495 -0.1316 -0.3438
50290SOL    HW157728   7.963   9.289   6.167 -0.2998 -0.8270 -0.1614
50290SOL    HW257729   7.817   9.296   6.130 -0.5733 -0.9234  0.8681
50291SOL     OW57730   4.270  11.241   3.544 -0.8996  0.6631  0.2223
50291SOL    HW157731   4.333  11.293   3.494 -0.7360 -1.2353 -1.7116
50291SOL    HW257732   4.305  11.240   3.634  2.2069 -0.7450 -0.8762
50292SOL     OW57733   7.301   8.067  12.366  0.1152  1.2532  0.0482
50292SOL    HW157734   7.284   7.973  12.372 -1.5223  1.4801 -0.6264
50292SOL    HW257735   7.311   8.084  12.272 -1.4398  2.0264 -0.0064
50293SOL     OW57736  11.715   4.201   6.123  0.0232  0.3851  0.0304
50293SOL    HW157737  11.769   4.273   6.155  0.9577  0.0486 -0.7040
50293SOL    HW257738  11.683   4.158   6.202 -0.8706  1.8170  0.4781
50294SOL     OW57739   2.308  10.846  11.084  0.7086  0.7636 -0.0549
50294SOL    HW157740   2.366  10.840  11.008  1.9722 -1.6767  0.9887
50294SOL    HW257741   2.244  10.776  11.072  0.8247  0.4441  1.0443
50295SOL     OW57742  12.404   5.694   6.851  0.2120  0.4236 -0.2526
50295SOL    HW157743  12.316   5.731   6.836  0.8368  2.0007 -0.2124
50295SOL    HW257744  12.387   5.612   6.898 -1.3729 -0.6858 -2.5432
50296SOL     OW57745   7.330   2.236   8.672 -0.3903  0.5313  0.2869
50296SOL    HW157746   7.247   2.249   8.625 -0.1885  1.1434  0.0891
50296SOL    HW257747   7.383   2.311   8.647 -0.2756  0.8764  1.5069
50297SOL     OW57748   8.996   8.890   1.299 -0.2464 -0.0965 -0.2005
50297SOL    HW157749   8.913   8.844   1.309 -0.6285  0.5597 -0.3432
50297SOL    HW257750   9.005   8.902   1.205 -1.8877  3.2304 -0.0561
50298SOL     OW57751   4.588   8.789  10.219  0.0138  0.0915  0.3445
50298SOL    HW157752   4.569   8.730  10.291 -1.3361 -0.4798 -0.4382
50298SOL    HW257753   4.680   8.814  10.231  0.1941 -1.0536  1.4704
50299SOL     OW57754   3.057   3.342   7.933 -0.4311  0.1634  0.0955
50299SOL    HW157755   2.975   3.386   7.956 -1.2358 -1.0522 -0.2683
50299SOL    HW257756   3.035   3.294   7.852  1.0725  0.9676 -0.8261
50300SOL     OW57757   8.090   2.207   1.604 -0.1605 -0.2559 -0.2550
50300SOL    HW157758   8.109   2.136   1.665  0.6951  0.9301  0.9258
50300SOL    HW257759   7.998   2.228   1.619 -0.5036 -1.3083 -0.8443
50301SOL     OW57760   0.761   9.467   0.225  0.2603 -0.2674  0.0570
50301SOL    HW157761   0.760   9.472   0.130  1.3754 -1.2521 -0.0310
50301SOL    HW257762   0.697   9.532   0.253 -1.5985 -1.3671 -1.4028
50302SOL     OW57763   9.491   4.605   2.649 -0.1652 -0.0249 -0.3518
50302SOL    HW157764   9.426   4.673   2.669  0.9353  0.8274  0.4421
50302SOL    HW257765   9.457   4.561   2.571 -0.0988  2.5208 -1.9157
50303SOL     OW57766   1.637   6.485  10.553 -0.0966  0.1994  0.6256
50303SOL    HW157767   1.604   6.477  10.642  1.4189 -0.4782  1.1562
50303SOL    HW257768   1.572   6.539  10.508 -0.7720  0.7448  2.1939
50304SOL     OW57769   2.280   6.607   0.985  0.0533 -0.4114  0.4855
50304SOL    HW157770   2.205   6.597   0.927  0.7851 -3.8439 -0.0594
50304SOL    HW257771   2.340   6.665   0.937 -0.9129 -0.1452 -0.4442
50305SOL     OW57772   1.957   7.931  11.434 -0.1282  0.4874  0.3760
50305SOL    HW157773   1.895   8.004  11.444 -0.6061  0.2574 -0.7953
50305SOL    HW257774   1.935   7.871  11.506 -0.6934  0.8129  0.4816
50306SOL     OW57775   8.347   4.689   8.797 -0.8082 -0.6053 -0.5002
50306SOL    HW157776   8.299   4.660   8.875 -0.2794  0.2507  0.1557
50306SOL    HW257777   8.302   4.768   8.769 -0.2554 -0.2236 -0.3316
50307SOL     OW57778   8.886   8.095  10.941  0.4747 -0.3294  0.2342
50307SOL    HW157779   8.924   8.179  10.969  0.8486 -0.4469  0.0859
50307SOL    HW257780   8.792   8.113  10.934  0.2552 -0.4896  2.2639
50308SOL     OW57781   6.563   0.503   9.252  0.0179 -0.0342  0.2801
50308SOL    HW157782   6.562   0.474   9.161  1.3269 -1.2519  0.6088
50308SOL    HW257783   6.585   0.596   9.248  1.4056 -0.3696 -0.6239
50309SOL     OW57784   4.841  12.176   2.739 -0.2061 -0.2476  0.2440
50309SOL    HW157785   4.770  12.123   2.703 -2.0858  0.0915  3.0633
50309SOL    HW257786   4.837  12.160   2.834  0.9176  2.7948  0.9304
50310SOL     OW57787   4.797   4.487   3.614  0.3229 -0.3663  0.4178
50310SOL    HW157788   4.878   4.483   3.664  0.1766 -1.3168  0.5966
50310SOL    HW257789   4.762   4.398   3.617 -0.0103 -0.2987 -0.8477
50311SOL     OW57790   2.567  11.875   7.337  0.0393 -0.1220  0.8795
50311SOL    HW157791   2.529  11.962   7.352 -1.4836 -0.5892 -0.0577
50311SOL    HW257792   2.583  11.840   7.424  0.0478  0.8281  1.2731
50312SOL     OW57793   1.162   0.956   1.411 -0.5041  0.1946  0.2850
50312SOL    HW157794   1.210   0.981   1.332 -1.1380 -2.6381 -1.1136
50312SOL    HW257795   1.073   0.939   1.380 -0.9422 -0.2807  1.7546
50313SOL     OW57796   7.309   2.348  11.732  0.4352 -0.2802 -0.0165
50313SOL    HW157797   7.225   2.337  11.776 -0.3677  0.9776 -1.1691
50313SOL    HW257798   7.304   2.290  11.656 -0.7397  2.0667 -1.8577
50314SOL     OW57799   7.459   1.420   7.400 -0.5113 -0.0967  0.6085
50314SOL    HW157800   7.392   1.403   7.334  0.2451  0.7501 -0.4200
50314SOL    HW257801   7.470   1.337   7.446 -0.0763 -1.1338 -1.2756
50315SOL     OW57802   3.994   3.295   8.930 -0.0646  0.3272 -0.0895
50315SOL    HW157803   3.914   3.243   8.937  1.1890 -1.4532  2.3069
50315SOL    HW257804   4.033   3.291   9.017  1.1654  3.6660 -0.3471
50316SOL     OW57805  10.513   2.500  10.575  0.3227 -0.1628  0.3162
50316SOL    HW157806  10.439   2.454  10.615 -1.4718 -0.1178 -2.5995
50316SOL    HW257807  10.525   2.456  10.490  1.5025  1.8832 -0.6574
50317SOL     OW57808   8.735   3.207   6.331  0.3033 -0.0430  0.3888
50317SOL    HW157809   8.743   3.113   6.315  0.2246 -0.1117  0.7541
50317SOL    HW257810   8.704   3.242   6.248 -0.2981 -0.4275  0.4444
50318SOL     OW57811   7.947   1.528   4.579 -0.1648  0.2275 -0.4958
50318SOL    HW157812   7.947   1.433   4.568  0.2900  0.3190 -1.3189
50318SOL    HW257813   8.008   1.560   4.513  1.2975  0.9451  1.1339
50319SOL     OW57814  10.957   5.491   8.590 -0.2576 -0.4598 -0.8067
50319SOL    HW157815  10.954   5.444   8.674  0.7234  1.0657  0.1217
50319SOL    HW257816  11.050   5.501   8.571 -0.4508  0.5956 -1.2714
50320SOL     OW57817   2.253   3.481   0.853 -0.1363  0.0584 -0.4601
50320SOL    HW157818   2.226   3.557   0.905  1.0050  0.2945 -0.1876
50320SOL    HW257819   2.254   3.408   0.915 -0.5085 -0.0310 -0.5565
50321SOL     OW57820   5.890   3.848   4.393 -0.2655 -0.0646  0.1858
50321SOL    HW157821   5.947   3.924   4.401 -0.2059 -0.1070  0.1633
50321SOL    HW257822   5.913   3.793   4.468 -2.4618  1.3585  2.0437
50322SOL     OW57823   0.783   0.927   2.003  0.1135 -0.2211  0.2739
50322SOL    HW157824   0.790   0.978   2.083  2.1251 -1.1961  0.7912
50322SOL    HW257825   0.874   0.902   1.982 -0.3601 -0.1101 -2.2366
50323SOL     OW57826  10.552   7.968  11.936 -0.0850  0.2382 -0.2776
50323SOL    HW157827  10.642   7.939  11.950  0.8122  2.9736  0.0692
50323SOL    HW257828  10.502   7.921  12.003  0.8899 -1.8815 -0.9422
50324SOL     OW57829   4.368  10.883   1.377  0.4627  0.0192  0.5344
50324SOL    HW157830   4.404  10.864   1.290 -1.1232  0.4567 -0.2686
50324SOL    HW257831   4.313  10.808   1.397  1.3094 -0.3703  1.4651
50325SOL     OW57832  11.576   8.517   6.265 -0.2231 -0.2869 -0.1282
50325SOL    HW157833  11.528   8.437   6.287 -0.4677 -0.5384 -1.4556
50325SOL    HW257834  11.571   8.521   6.169 -0.6562  1.5882 -0.0570
50326SOL     OW57835   2.580  11.129   3.249 -0.2159 -0.2321  0.0876
50326SOL    HW157836   2.649  11.157   3.310  0.6064  0.5669 -1.1732
50326SOL    HW257837   2.598  11.037   3.232  0.5080 -0.0434 -0.1848
50327SOL     OW57838   4.842   2.983   8.256  0.3479  0.3636 -0.7880
50327SOL    HW157839   4.885   3.047   8.313 -0.2631 -1.6755  2.2270
50327SOL    HW257840   4.912   2.921   8.233 -0.1518 -1.0543  1.2605
50328SOL     OW57841   8.096   7.791   5.660  0.2029  0.5165 -0.2958
50328SOL    HW157842   8.046   7.714   5.633 -0.4693  1.2253 -1.1077
50328SOL    HW257843   8.066   7.809   5.749  1.3091 -0.9124  0.4178
50329SOL     OW57844  10.460   0.235   1.818  0.3494  0.1164 -0.2028
50329SOL    HW157845  10.501   0.185   1.889 -1.1010  1.1498  1.4353
50329SOL    HW257846  10.493   0.324   1.828  0.9195  0.0769 -1.5028
50330SOL     OW57847   7.828   8.580   0.290  0.2807 -0.2153 -0.6298
50330SOL    HW157848   7.851   8.606   0.379 -0.2556 -0.9432 -0.2689
50330SOL    HW257849   7.861   8.651   0.235  0.4752  0.3194  0.1614
50331SOL     OW57850   0.468  11.997   7.595 -0.0259  0.3588 -0.1638
50331SOL    HW157851   0.553  11.967   7.629 -0.3499  0.0616  0.4058
50331SOL    HW257852   0.432  11.921   7.550  0.0062  0.4852 -0.4047
50332SOL     OW57853  11.343   9.201   8.902  0.1074 -0.8058  0.9354
50332SOL    HW157854  11.318   9.115   8.870 -0.3085  0.3668 -2.2913
50332SOL    HW257855  11.434   9.212   8.874 -0.6813  0.7918 -1.2833
50333SOL     OW57856   6.686   2.373   4.839 -0.0057 -0.5046  0.3059
50333SOL    HW157857   6.606   2.384   4.890  0.0293  0.1622  0.2284
50333SOL    HW257858   6.744   2.443   4.870  0.5220 -0.9351  0.3093
50334SOL     OW57859  12.204   0.893   4.183 -0.5777  0.0722  0.6126
50334SOL    HW157860  12.203   0.850   4.268 -2.6049 -1.4232 -0.0749
50334SOL    HW257861  12.201   0.821   4.119  1.2892  1.1344 -0.7727
50335SOL     OW57862   5.615   6.577   8.674 -0.1446  0.1955 -0.1110
50335SOL    HW157863   5.564   6.641   8.624 -0.5136 -0.1569 -0.1921
50335SOL    HW257864   5.658   6.524   8.607 -0.2267  0.0527 -0.0506
50336SOL     OW57865   8.640   4.408   9.123 -0.0315 -0.7628 -0.1176
50336SOL    HW157866   8.578   4.363   9.181 -0.3634  0.4392  0.4986
50336SOL    HW257867   8.646   4.497   9.159 -0.6363  0.1864 -2.2238
50337SOL     OW57868   5.123   8.629   7.671 -0.0943  0.1962  0.6420
50337SOL    HW157869   5.148   8.663   7.757  0.0462  1.7163  0.0397
50337SOL    HW257870   5.201   8.641   7.618 -0.8664  1.4201 -0.2730
50338SOL     OW57871   8.740   5.780   3.295  0.3894 -0.2721  0.5656
50338SOL    HW157872   8.645   5.772   3.305  0.4323 -1.0188  0.4113
50338SOL    HW257873   8.761   5.862   3.339 -0.5392  0.7834 -0.8534
50339SOL     OW57874   5.731  10.647   9.363  0.6070  0.1575  0.1377
50339SOL    HW157875   5.721  10.552   9.365 -0.1177  0.2111 -0.8230
50339SOL    HW257876   5.645  10.681   9.385  0.5788  0.5966 -0.6366
50340SOL     OW57877   4.098   7.203   2.761 -0.3984 -0.3945 -0.5853
50340SOL    HW157878   4.012   7.165   2.778 -1.2940  1.5719 -0.4091
50340SOL    HW257879   4.109   7.270   2.829  2.2121 -1.9616  0.6797
50341SOL     OW57880   4.414   6.153  12.570  0.7040  0.2484 -0.3182
50341SOL    HW157881   4.363   6.081  12.534 -0.2661  0.8132 -0.0901
50341SOL    HW257882   4.490   6.110  12.610 -0.2987 -0.7400  0.6195
50342SOL     OW57883   1.093   9.749   5.225  0.0231  0.2922 -0.2998
50342SOL    HW157884   1.032   9.741   5.298  0.0894 -1.0662 -0.3688
50342SOL    HW257885   1.170   9.699   5.253  0.2441  0.1769 -1.1005
50343SOL     OW57886   6.728   7.771   1.377 -0.5017  0.2360 -0.0488
50343SOL    HW157887   6.771   7.825   1.311 -0.4794  0.1403 -0.1121
50343SOL    HW257888   6.708   7.689   1.332 -1.3124  0.5086 -0.1878
50344SOL     OW57889  10.166   3.989   4.434  0.5335  0.3624 -0.0830
50344SOL    HW157890  10.188   4.074   4.397  1.0904  0.6567  0.8765
50344SOL    HW257891  10.071   3.984   4.429  0.3196  1.8296  1.4629
50345SOL     OW57892  12.218   5.411   4.524 -0.1207  0.1823 -0.3491
50345SOL    HW157893  12.126   5.412   4.551  0.2012 -1.8428  1.0509
50345SOL    HW257894  12.217   5.445   4.434 -2.2329  0.1985 -0.3712
50346SOL     OW57895  12.403   6.531   6.012 -0.0325 -0.2410  0.1518
50346SOL    HW157896  12.352   6.558   5.936  0.3456  1.0960  0.3549
50346SOL    HW257897  12.418   6.437   5.998 -0.9282 -0.2589 -0.8457
50347SOL     OW57898   1.839   6.890   3.263  0.0427 -0.1591 -0.0421
50347SOL    HW157899   1.879   6.838   3.193  0.0825 -0.3376  0.1121
50347SOL    HW257900   1.745   6.889   3.242 -0.2157 -1.8843  0.9713
50348SOL     OW57901   3.795   8.766   1.887  0.1847  0.7330  0.5679
50348SOL    HW157902   3.740   8.827   1.936  0.5893  0.2840  1.6385
50348SOL    HW257903   3.824   8.815   1.811 -1.6172  0.9953  0.0093
50349SOL     OW57904   2.543   7.554   0.160  0.2770  0.0124  0.1081
50349SOL    HW157905   2.620   7.569   0.106  0.0279 -1.3738 -0.6867
50349SOL    HW257906   2.493   7.635   0.154  0.2580 -0.1024 -1.7431
50350SOL     OW57907   6.506  10.004  11.034  0.0338 -0.0712 -0.4362
50350SOL    HW157908   6.549   9.984  11.117 -0.2522  0.1516 -0.2314
50350SOL    HW257909   6.489  10.098  11.037  0.2814 -0.0103 -0.8733
50351SOL     OW57910   7.877   8.353  10.662 -0.0646  0.1049  0.5197
50351SOL    HW157911   7.833   8.400  10.734 -0.1130  0.3295  0.3447
50351SOL    HW257912   7.898   8.268  10.699 -0.6852 -0.0197  0.5997
50352SOL     OW57913   0.991   1.744   8.597  0.7576 -0.1546  0.1696
50352SOL    HW157914   1.072   1.713   8.555 -0.6264 -3.2341 -0.4699
50352SOL    HW257915   0.977   1.684   8.670 -0.7413  0.5888  0.5358
50353SOL     OW57916  11.008  11.995   0.044 -0.1128 -0.3249 -0.1069
50353SOL    HW157917  11.082  12.035  -0.001 -0.6175  1.0286  0.2271
50353SOL    HW257918  10.975  11.929  -0.017 -0.0551  0.6504 -1.2260
50354SOL     OW57919   5.411   2.904   0.498 -0.0246  0.1854 -0.5441
50354SOL    HW157920   5.430   2.968   0.566  0.8195  1.5019 -1.9549
50354SOL    HW257921   5.459   2.935   0.421 -0.1338 -1.7867 -1.4838
50355SOL     OW57922   0.662   1.293   8.398  0.6045 -0.3878 -0.1542
50355SOL    HW157923   0.728   1.235   8.435  1.3141  0.5739  0.1164
50355SOL    HW257924   0.705   1.379   8.394 -1.1370  0.6379  1.5252
50356SOL     OW57925   1.635   1.363   5.954  0.3300 -0.0692  0.6309
50356SOL    HW157926   1.617   1.453   5.926 -2.0277 -1.0524 -1.4682
50356SOL    HW257927   1.729   1.353   5.942  0.3077  1.4397 -1.4799
50357SOL     OW57928   9.378   6.277   1.196 -0.4071 -0.2640  0.0041
50357SOL    HW157929   9.408   6.274   1.105 -1.1772 -1.6506 -0.2160
50357SOL    HW257930   9.302   6.220   1.199  0.1553 -0.9805  1.7304
50358SOL     OW57931  10.385   2.994   4.075 -0.1429 -0.3963 -0.0434
50358SOL    HW157932  10.410   2.903   4.056 -0.9732 -1.3253  2.6996
50358SOL    HW257933  10.291   2.997   4.055 -0.0131  0.0210 -0.5976
50359SOL     OW57934  10.985   3.578  11.800 -0.5881  0.4370  0.1933
50359SOL    HW157935  10.952   3.654  11.752 -0.8466 -0.2568 -0.7724
50359SOL    HW257936  10.963   3.596  11.891 -4.0881 -0.1188 -0.3745
50360SOL     OW57937   5.342   7.048   4.868  0.0899  0.2121  0.5614
50360SOL    HW157938   5.304   7.132   4.843 -0.6031 -0.2520  0.0325
50360SOL    HW257939   5.385   7.066   4.952  0.4144  1.2193  0.1968
50361SOL     OW57940  11.382   6.636  10.069 -0.0740 -0.6283 -0.3396
50361SOL    HW157941  11.419   6.622   9.982  0.1555 -0.9027 -0.2003
50361SOL    HW257942  11.411   6.560  10.119 -2.2810 -1.7738 -0.6847
50362SOL     OW57943   4.985  11.228   6.956 -0.2792  0.3410  0.1743
50362SOL    HW157944   5.071  11.269   6.961 -0.5408  1.5739 -3.0145
50362SOL    HW257945   5.002  11.136   6.936  0.2917  0.3892  0.4356
50363SOL     OW57946   2.811   3.014   5.890 -0.3389 -0.3735 -0.4258
50363SOL    HW157947   2.752   3.071   5.841 -1.7354 -1.1230  0.3033
50363SOL    HW257948   2.817   2.935   5.837  0.2870 -0.1775 -0.6524
50364SOL     OW57949   7.441   0.017   3.971  1.1899  0.3955 -0.3617
50364SOL    HW157950   7.484  -0.046   3.914  1.7097  1.1694 -0.8389
50364SOL    HW257951   7.351  -0.015   3.978  1.0272  0.4571 -1.8749
50365SOL     OW57952   5.351   0.191   3.518 -0.1431 -0.0325  0.1216
50365SOL    HW157953   5.308   0.181   3.603 -2.4032  2.3275 -0.6098
50365SOL    HW257954   5.431   0.241   3.538 -1.4387  1.9213  0.7792
50366SOL     OW57955  12.167   5.289   7.375  0.5763 -0.1210  0.0598
50366SOL    HW157956  12.247   5.310   7.327  2.4338 -0.7005  2.6335
50366SOL    HW257957  12.162   5.355   7.444 -0.6007 -0.6809  0.5471
50367SOL     OW57958  10.126   0.572   9.188 -0.6351 -0.3560 -0.3679
50367SOL    HW157959  10.156   0.570   9.097  2.4529  1.2990  0.4403
50367SOL    HW257960  10.179   0.505   9.232  0.6682  1.3207  0.7816
50368SOL     OW57961   0.253   1.993   1.778  0.4829  0.5860  0.1946
50368SOL    HW157962   0.160   2.006   1.793  0.4549  0.0556  0.5107
50368SOL    HW257963   0.275   1.915   1.829  0.9529  0.3009 -0.4266
50369SOL     OW57964   7.780   7.443   9.367  0.0558 -0.0204  0.2731
50369SOL    HW157965   7.821   7.376   9.421 -0.0792 -0.1593  0.2086
50369SOL    HW257966   7.708   7.477   9.421 -0.0213 -0.0941  0.2175
50370SOL     OW57967   0.528   5.621   8.365  0.0310  0.0360 -0.4067
50370SOL    HW157968   0.594   5.685   8.339  1.5060 -0.3138  2.1070
50370SOL    HW257969   0.578   5.551   8.406 -1.7762 -1.2795 -0.3413
50371SOL     OW57970   4.729  12.110   5.611  0.3394 -0.0523 -0.4130
50371SOL    HW157971   4.672  12.033   5.606 -0.0397  0.1549  0.6506
50371SOL    HW257972   4.801  12.090   5.550  0.5765 -1.5345  0.3121
50372SOL     OW57973   2.379   3.712   4.056 -0.3787 -0.1591 -0.2971
50372SOL    HW157974   2.296   3.754   4.077  0.2036 -0.6350  3.8905
50372SOL    HW257975   2.372   3.624   4.095  1.9389 -0.2803  0.0080
50373SOL     OW57976  11.054  10.888   4.391 -0.3795 -0.0258 -0.4534
50373SOL    HW157977  11.086  10.924   4.474  0.3520 -1.8963  0.1292
50373SOL    HW257978  10.960  10.905   4.393 -0.2823  0.4932  0.4683
50374SOL     OW57979  11.995   0.819   9.363  0.4709 -0.0886  0.4890
50374SOL    HW157980  11.968   0.785   9.278 -0.2274  0.1448  0.6050
50374SOL    HW257981  11.958   0.756   9.426  1.6861 -0.7164  0.5946
50375SOL     OW57982   6.025   7.046   9.462  0.1498  0.0300  0.0466
50375SOL    HW157983   6.029   6.960   9.419  0.1603 -0.4395  0.9692
50375SOL    HW257984   5.938   7.050   9.500 -0.2260  0.8701 -0.8518
50376SOL     OW57985   4.318   7.831  10.746  0.1425 -0.0249 -0.0422
50376SOL    HW157986   4.391   7.770  10.734 -1.4944 -1.9254 -0.9475
50376SOL    HW257987   4.360   7.915  10.765  2.5271 -1.2771  0.6951
50377SOL     OW57988   9.780   0.091   1.857  0.1468 -0.0875  0.0748
50377SOL    HW157989   9.875   0.085   1.865  0.3019  0.0202 -1.3989
50377SOL    HW257990   9.758   0.174   1.899  0.7603  0.1304 -0.0231
50378SOL     OW57991  10.070   3.752   2.968 -0.1829  0.1194 -0.0033
50378SOL    HW157992   9.976   3.762   2.983 -0.1926 -0.3264  0.2497
50378SOL    HW257993  10.077   3.682   2.903  0.0142 -0.5626  0.7471
50379SOL     OW57994   0.465   8.314   4.917  0.0478  0.0601 -0.6496
50379SOL    HW157995   0.491   8.258   4.990 -1.1638  0.2918 -0.0114
50379SOL    HW257996   0.499   8.270   4.839  4.2799  1.4532  0.1798
50380SOL     OW57997   4.874   7.752   6.849 -0.2034 -0.3554 -0.0953
50380SOL    HW157998   4.814   7.826   6.850 -1.5294 -1.3805  1.3800
50380SOL    HW257999   4.830   7.686   6.795 -0.3048 -1.0178  0.7691
50381SOL     OW58000  11.103   4.993   7.907  0.1979 -0.2832  0.0116
50381SOL    HW158001  11.127   4.906   7.875  0.1876  0.0966 -1.0846
50381SOL    HW258002  11.115   5.050   7.831  1.0947  0.8364  0.9566
50382SOL     OW58003  11.848   8.747   7.991  0.0185  0.7334 -0.2327
50382SOL    HW158004  11.931   8.717   8.027  0.4629  0.6978 -1.2411
50382SOL    HW258005  11.803   8.789   8.064  0.5734  0.0376  0.5223
50383SOL     OW58006  12.243  12.288  10.366  0.0962  0.0673  0.6418
50383SOL    HW158007  12.179  12.356  10.386  1.0111  0.9532  0.6364
50383SOL    HW258008  12.307  12.294  10.437  0.9829  0.2210 -0.1616
50384SOL     OW58009   8.239   5.666   6.661  0.2405 -0.0320 -0.3818
50384SOL    HW158010   8.223   5.640   6.571  0.4640  0.9375 -0.7154
50384SOL    HW258011   8.195   5.751   6.670  1.0951  0.3790  0.0997
50385SOL     OW58012   9.731   2.182  12.238 -0.0375 -0.2086  0.1363
50385SOL    HW158013   9.750   2.135  12.157 -1.2952 -0.4420 -0.0420
50385SOL    HW258014   9.816   2.191  12.282  0.1078 -3.9576  0.9110
50386SOL     OW58015   0.422  11.090   3.583  0.1981  0.0209 -0.8661
50386SOL    HW158016   0.359  11.021   3.605  0.1485 -0.1952 -1.6348
50386SOL    HW258017   0.501  11.043   3.555 -0.0819  0.2460 -2.1050
50387SOL     OW58018   6.689  10.683   6.399  0.2054 -0.0400 -0.4301
50387SOL    HW158019   6.738  10.688   6.480  0.9955 -0.2534 -0.8849
50387SOL    HW258020   6.614  10.742   6.412  1.1449  1.1136 -0.1150
50388SOL     OW58021   6.412  10.583   4.327 -0.9560  0.0342 -0.2267
50388SOL    HW158022   6.472  10.509   4.339 -1.3472 -0.0226  1.7789
50388SOL    HW258023   6.426  10.638   4.405 -1.6742  1.3546 -0.9863
50389SOL     OW58024   4.598   8.964   3.562  0.1417  0.0096 -0.8974
50389SOL    HW158025   4.615   9.057   3.578 -0.0899  0.0829 -1.0656
50389SOL    HW258026   4.523   8.943   3.618  2.2430 -0.9310  1.7555
50390SOL     OW58027   0.712   2.947   2.224  0.3699  0.2213 -0.3371
50390SOL    HW158028   0.763   2.882   2.175 -0.2382 -0.6017  0.0966
50390SOL    HW258029   0.743   3.031   2.192 -1.1340 -0.2517 -3.3712
50391SOL     OW58030   3.717  11.581   7.096  0.4471 -0.2940 -0.4707
50391SOL    HW158031   3.750  11.511   7.153  1.3602 -0.3068 -0.9915
50391SOL    HW258032   3.630  11.551   7.069 -0.6620  0.4129  2.1015
50392SOL     OW58033   2.407   7.528   7.749 -0.8662  0.2758 -0.2578
50392SOL    HW158034   2.488   7.550   7.796 -1.3294  0.0307  0.6809
50392SOL    HW258035   2.432   7.457   7.690 -0.2593  0.6242 -0.4295
50393SOL     OW58036   6.738   0.168   1.471 -0.6703  0.4683 -0.6138
50393SOL    HW158037   6.670   0.187   1.536  1.3665  3.5380  0.9197
50393SOL    HW258038   6.813   0.140   1.523  0.1631  0.1233 -1.9527
50394SOL     OW58039  12.465   3.174   1.898 -0.3421 -0.4782 -0.3305
50394SOL    HW158040  12.465   3.261   1.938 -2.4934 -0.0975 -1.0159
50394SOL    HW258041  12.553   3.165   1.860  0.5808  0.5500  1.4285
50395SOL     OW58042   0.027   9.953   7.769 -0.4448  0.1064 -0.2897
50395SOL    HW158043   0.055   9.871   7.730  2.3972 -0.1193  1.8576
50395SOL    HW258044  -0.028   9.927   7.843 -0.6256  0.2068 -0.3882
50396SOL     OW58045   0.341  10.780   5.066  0.1353  0.0227  0.1030
50396SOL    HW158046   0.258  10.741   5.040  0.3280  1.1009 -2.4074
50396SOL    HW258047   0.317  10.858   5.116 -0.2942 -0.6988  1.0613
50397SOL     OW58048   2.494   0.025   4.354 -0.4962 -0.4955  0.2606
50397SOL    HW158049   2.535   0.098   4.401 -0.0843 -0.8800  0.5117
50397SOL    HW258050   2.400   0.043   4.359 -0.7540 -2.0348  3.9014
50398SOL     OW58051   5.220   7.877   8.431 -0.2522 -0.0448 -0.6329
50398SOL    HW158052   5.286   7.875   8.501 -0.9758 -0.5403  0.0557
50398SOL    HW258053   5.262   7.832   8.358  0.9906  1.6169 -0.9753
50399SOL     OW58054   1.553   6.202   0.666 -0.0932  0.3662  0.1547
50399SOL    HW158055   1.583   6.287   0.633  1.6091  0.2541  1.3107
50399SOL    HW258056   1.632   6.150   0.675 -1.1318 -1.4283 -0.6757
50400SOL     OW58057   2.069   5.399   3.857 -0.2312  0.0963 -0.3181
50400SOL    HW158058   1.974   5.401   3.848 -0.2804 -1.3303 -0.2779
50400SOL    HW258059   2.101   5.427   3.771 -0.6665  0.8875 -0.2374
50401SOL     OW58060   7.072   1.869   3.571 -0.1714 -0.7275 -0.3899
50401SOL    HW158061   7.127   1.829   3.505 -1.1646 -1.0701 -1.0391
50401SOL    HW258062   7.064   1.802   3.640  0.1570 -0.7061 -0.3327
50402SOL     OW58063   0.598  11.135   1.637 -0.4382  0.5362 -0.3322
50402SOL    HW158064   0.565  11.160   1.723 -0.3603  0.0797 -0.1624
50402SOL    HW258065   0.593  11.039   1.637 -2.6191  0.5659 -1.6954
50403SOL     OW58066   8.357   7.621   5.517 -0.1879 -0.1041  0.2403
50403SOL    HW158067   8.326   7.611   5.426 -0.0934  0.5796  0.1276
50403SOL    HW258068   8.324   7.706   5.544 -0.3016 -0.3493  0.8921
50404SOL     OW58069   4.809   9.118  12.073 -0.3555  0.8518 -0.3424
50404SOL    HW158070   4.733   9.126  12.131 -0.5549  2.8139 -0.8052
50404SOL    HW258071   4.773   9.085  11.991 -0.5579  0.9482 -0.2934
50405SOL     OW58072   5.063  10.229   4.577 -0.2130 -0.0961  0.2848
50405SOL    HW158073   5.048  10.136   4.564  1.1338 -0.2867 -0.0373
50405SOL    HW258074   5.049  10.268   4.490  0.5045 -0.1919  0.1197
50406SOL     OW58075   1.467  11.019  12.349 -0.5498  0.3729  0.6940
50406SOL    HW158076   1.494  10.968  12.273 -1.4634  1.7001 -0.5773
50406SOL    HW258077   1.455  11.108  12.316 -1.0912  0.9715  2.3630
50407SOL     OW58078   0.484  11.822  12.120  0.0728 -0.2174 -0.7040
50407SOL    HW158079   0.388  11.828  12.122  0.0038 -1.2075  0.4631
50407SOL    HW258080   0.501  11.738  12.076  0.3420 -0.7198  0.3254
50408SOL     OW58081   8.883   8.735  12.368  0.3025 -0.2261 -0.2381
50408SOL    HW158082   8.810   8.763  12.312  0.4499  1.0661  0.1882
50408SOL    HW258083   8.961   8.766  12.322  0.5028 -0.3974 -0.0107
50409SOL     OW58084   9.993  10.917  12.082  0.5044 -0.3997 -0.0377
50409SOL    HW158085   9.969  11.008  12.061  0.0017 -0.7031 -0.8289
50409SOL    HW258086   9.979  10.870  12.000  1.1042 -1.1305  0.2748
50410SOL     OW58087   2.282   3.586   2.440 -0.3191 -0.0878 -0.1877
50410SOL    HW158088   2.332   3.666   2.426 -0.9702  0.2494 -0.6723
50410SOL    HW258089   2.309   3.528   2.369  0.6493 -0.5620  0.5513
50411SOL     OW58090  11.120   8.923  11.607 -0.1320  0.0461 -0.0216
50411SOL    HW158091  11.215   8.930  11.595 -0.0321 -0.8833  0.1390
50411SOL    HW258092  11.083   8.967  11.530  0.3753  2.2612  0.9394
50412SOL     OW58093  11.004   5.269   0.619 -0.2688 -0.0643 -0.4444
50412SOL    HW158094  11.002   5.214   0.541 -0.2205  1.6835 -1.7435
50412SOL    HW258095  11.059   5.222   0.681 -0.9606 -1.8761 -1.1523
50413SOL     OW58096  11.640   1.920  10.508  0.8983 -0.2550  0.0258
50413SOL    HW158097  11.697   1.891  10.437 -0.3817 -1.4504 -0.5644
50413SOL    HW258098  11.619   1.839  10.556  1.8320  0.5293  1.8749
50414SOL     OW58099   7.455   0.289  10.556 -0.5621  0.1926  0.3148
50414SOL    HW158100   7.404   0.211  10.533 -3.3490  1.7373  0.7293
50414SOL    HW258101   7.413   0.360  10.508  1.5006  1.5576  0.4204
50415SOL     OW58102   3.486   6.151   2.451 -0.3588 -0.0090  0.0706
50415SOL    HW158103   3.532   6.219   2.500 -0.8186 -0.9293  1.8343
50415SOL    HW258104   3.403   6.192   2.425 -3.1467 -1.1724  5.6465
50416SOL     OW58105   5.078  10.474   0.344  0.0833 -0.4801  0.1080
50416SOL    HW158106   5.021  10.550   0.331  0.2993 -0.3082  0.1492
50416SOL    HW258107   5.155  10.493   0.291  0.0949 -0.7201  0.0357
50417SOL     OW58108   6.070   7.913  11.325 -0.6778 -0.1970  0.4339
50417SOL    HW158109   6.018   7.833  11.319 -1.0638  0.0861 -0.1768
50417SOL    HW258110   6.155   7.885  11.357 -1.0455 -0.7458  0.9337
50418SOL     OW58111   5.051   3.100   4.080  0.2082  0.0336 -0.2059
50418SOL    HW158112   5.065   3.052   4.162 -0.5186 -1.5830 -0.9857
50418SOL    HW258113   4.964   3.073   4.052  0.1096  1.2317 -1.0861
50419SOL     OW58114   3.566   4.021  10.254 -0.0512 -0.0891 -0.4325
50419SOL    HW158115   3.570   3.949  10.317  0.8513  0.6939  0.4418
50419SOL    HW258116   3.493   3.998  10.196 -1.5293 -0.3927  1.4381
50420SOL     OW58117   3.824   2.871   3.391 -0.5072 -0.0667  0.3723
50420SOL    HW158118   3.895   2.876   3.455  1.5787 -1.0099 -1.7001
50420SOL    HW258119   3.808   2.962   3.365  2.2361  0.0524 -1.3443
50421SOL     OW58120  10.022   5.171   0.948  0.3242 -0.1296 -0.1784
50421SOL    HW158121  10.040   5.236   0.880 -0.7965  0.4438  0.0568
50421SOL    HW258122  10.091   5.185   1.014  2.5171 -1.8473 -1.9263
50422SOL     OW58123  11.491  12.519  10.195 -0.3150  0.4121  0.1229
50422SOL    HW158124  11.527  12.599  10.233 -0.2227  0.4979 -0.1430
50422SOL    HW258125  11.567  12.461  10.185 -0.5245 -0.0761  1.2084
50423SOL     OW58126   9.688   5.886   9.775  0.0708  0.0444  0.3276
50423SOL    HW158127   9.771   5.868   9.818  0.3416 -0.3253 -0.3429
50423SOL    HW258128   9.636   5.806   9.789  0.6262 -0.6062 -1.1081
50424SOL     OW58129  11.440   6.085   2.557 -0.2330  0.6876  0.7708
50424SOL    HW158130  11.403   6.020   2.617  0.8673 -0.8101 -0.0918
50424SOL    HW258131  11.364   6.121   2.511 -0.9297  0.6046  1.8259
50425SOL     OW58132   3.326   9.954  11.916 -0.2659 -0.4170 -0.2669
50425SOL    HW158133   3.308   9.870  11.875  0.2296 -0.1765 -0.9890
50425SOL    HW258134   3.262   9.960  11.987  0.3407 -1.8332  0.4387
50426SOL     OW58135   4.649   8.596  10.493  0.0770  0.5687  0.5303
50426SOL    HW158136   4.692   8.606  10.578  1.4581  1.3139 -0.2149
50426SOL    HW258137   4.560   8.629  10.507  0.3283  0.8248  1.6420
50427SOL     OW58138   3.226   1.660   4.731  0.0286  0.0917  0.3828
50427SOL    HW158139   3.138   1.685   4.757  0.4438  1.5629  0.4434
50427SOL    HW258140   3.283   1.720   4.778  1.0230 -0.2964 -0.2882
50428SOL     OW58141  12.185   1.390   4.758 -0.7235 -0.3687  0.5970
50428SOL    HW158142  12.116   1.328   4.735 -0.0993 -0.1760 -2.0960
50428SOL    HW258143  12.148   1.476   4.739 -0.0303 -0.2218 -0.1666
50429SOL     OW58144   8.674   3.270   5.604 -0.0949 -0.2531  0.2435
50429SOL    HW158145   8.586   3.236   5.623  0.7328 -1.6287  1.8367
50429SOL    HW258146   8.705   3.217   5.532 -0.7129  0.5332 -0.6245
50430SOL     OW58147   7.491   6.643   6.891 -0.4936  0.3482 -0.0692
50430SOL    HW158148   7.583   6.660   6.911 -0.5035 -0.3040  0.5658
50430SOL    HW258149   7.483   6.663   6.798  0.0754  1.3023  0.0770
50431SOL     OW58150   8.856  12.432   6.979 -0.1983 -0.3931 -0.1200
50431SOL    HW158151   8.876  12.511   7.030 -1.0809 -0.4606  0.3465
50431SOL    HW258152   8.927  12.371   7.000  0.9749  0.5511 -1.1429
50432SOL     OW58153   8.767   7.259   1.116  0.8925  0.6382 -0.3356
50432SOL    HW158154   8.742   7.278   1.207 -1.4123  0.6388 -0.9166
50432SOL    HW258155   8.846   7.206   1.124 -0.0489 -0.5830  1.7390
50433SOL     OW58156   9.399   5.656  10.074  0.0305  0.4120 -0.4317
50433SOL    HW158157   9.317   5.691  10.109 -0.7327 -1.5159 -0.1500
50433SOL    HW258158   9.455   5.646  10.151 -0.1225  0.0748 -0.3629
50434SOL     OW58159   8.270   1.973  10.207 -0.2227 -0.3341  0.6230
50434SOL    HW158160   8.362   1.983  10.231 -0.4810 -0.8447  1.8664
50434SOL    HW258161   8.255   2.043  10.143  1.0851 -0.4124  0.1961
50435SOL     OW58162   4.603   0.085   3.646  0.1652  0.0813 -0.2150
50435SOL    HW158163   4.538   0.154   3.657  0.4221  0.0872  1.5101
50435SOL    HW258164   4.581   0.020   3.712  2.0908  0.2408  0.6608
50436SOL     OW58165   5.036  11.547  12.427 -0.0963 -0.2222 -0.1605
50436SOL    HW158166   5.018  11.619  12.367 -0.8395 -1.6204 -1.7064
50436SOL    HW258167   4.955  11.496  12.428  0.7143 -1.5657  0.0829
50437SOL     OW58168   4.165  12.417  12.083  0.2921  0.3224  0.3712
50437SOL    HW158169   4.153  12.492  12.025 -0.2897  0.8024  1.0809
50437SOL    HW258170   4.079  12.375  12.085  0.7751 -0.7675 -0.5306
50438SOL     OW58171   2.491   9.588   0.765 -0.4583  0.2455  0.0053
50438SOL    HW158172   2.498   9.506   0.814 -0.4541  0.5297  0.4861
50438SOL    HW258173   2.477   9.655   0.832  0.7223  0.7994 -0.2711
50439SOL     OW58174   6.021   3.494   8.187 -0.4002 -0.0998  0.3855
50439SOL    HW158175   5.944   3.551   8.194 -0.9725 -0.7915 -0.1223
50439SOL    HW258176   6.084   3.546   8.137  0.1002  1.1064  2.1756
50440SOL     OW58177   5.444   1.587   5.891 -0.2317 -0.3696 -0.1684
50440SOL    HW158178   5.439   1.582   5.795 -1.2685  0.6375 -0.1903
50440SOL    HW258179   5.494   1.667   5.908 -1.2154  0.2014  0.1177
50441SOL     OW58180  12.270   3.702   2.708 -0.0578 -0.1449 -0.0759
50441SOL    HW158181  12.218   3.685   2.630 -1.0346  1.0202  0.2861
50441SOL    HW258182  12.231   3.780   2.746  0.7730 -0.3448  1.2589
50442SOL     OW58183   7.409   7.118   3.428  0.6579 -0.2154 -0.2027
50442SOL    HW158184   7.484   7.118   3.368 -0.6374 -0.5602 -1.8936
50442SOL    HW258185   7.385   7.026   3.436  0.3645 -0.0976  0.2787
50443SOL     OW58186   7.684   9.931   3.521 -0.4156 -0.2298  0.5117
50443SOL    HW158187   7.689   9.841   3.489  0.2931 -0.1113  0.2693
50443SOL    HW258188   7.599   9.963   3.491  0.0756 -0.2365 -0.9607
50444SOL     OW58189   9.065   1.380   7.854  0.3143 -0.6590 -0.3138
50444SOL    HW158190   9.032   1.374   7.943 -2.0677  0.1390 -1.0696
50444SOL    HW258191   9.098   1.470   7.847 -1.6368  0.0676 -0.8464
50445SOL     OW58192   1.655   6.019   0.319  0.3108 -0.5430  0.0790
50445SOL    HW158193   1.575   6.018   0.267 -0.9056 -0.0202  1.8293
50445SOL    HW258194   1.675   6.112   0.333  0.8849 -0.6696  0.1469
50446SOL     OW58195   8.799   2.963   8.351 -0.4292 -0.1360  0.2277
50446SOL    HW158196   8.866   2.956   8.419 -1.5274  0.2841  1.3891
50446SOL    HW258197   8.830   3.034   8.295  0.2656 -0.1699  0.5602
50447SOL     OW58198   4.280  11.157  10.732  0.0755  0.0203 -0.2332
50447SOL    HW158199   4.186  11.174  10.745  0.3049  1.3014 -0.1365
50447SOL    HW258200   4.292  11.067  10.762 -1.2721 -0.4540 -1.0020
50448SOL     OW58201  11.740  11.659   8.462 -0.4159 -0.5903  0.5216
50448SOL    HW158202  11.775  11.570   8.465  1.0074 -0.0291  1.6271
50448SOL    HW258203  11.650  11.650   8.493 -0.0334 -1.5401  1.4130
50449SOL     OW58204   0.419   4.031  10.497  0.2312  0.3741  1.0158
50449SOL    HW158205   0.341   4.031  10.552  1.5811 -1.7164  3.1343
50449SOL    HW258206   0.386   4.017  10.409 -1.7702 -2.2949  2.0455
50450SOL     OW58207   4.522   9.253   9.202  0.4626 -0.0120  0.0487
50450SOL    HW158208   4.590   9.289   9.144 -0.2370 -0.3928 -1.0411
50450SOL    HW258209   4.553   9.166   9.225  0.9145  0.2750  0.5572
50451SOL     OW58210  10.581   0.321   4.340  0.1491  0.0207  0.1841
50451SOL    HW158211  10.544   0.402   4.304 -0.7550 -0.4862 -0.0825
50451SOL    HW258212  10.653   0.349   4.395 -0.4976  1.0524  0.5337
50452SOL     OW58213   5.984   8.224   3.962  0.0820 -0.1894 -0.4374
50452SOL    HW158214   6.026   8.143   3.990 -0.8779 -1.4905 -2.4786
50452SOL    HW258215   5.916   8.240   4.028  0.0589 -1.2319 -0.2017
50453SOL     OW58216   3.025   6.140   3.487  0.1404  0.5777  0.0337
50453SOL    HW158217   2.980   6.067   3.529  1.5032 -1.0670 -1.2463
50453SOL    HW258218   3.094   6.166   3.548  2.4331 -2.1237 -1.1929
50454SOL     OW58219   7.489   0.906   7.495  0.0069 -0.3730  0.4349
50454SOL    HW158220   7.418   0.875   7.550 -2.1507  1.6782 -1.0196
50454SOL    HW258221   7.471   0.870   7.408  1.5479 -0.9228  0.3015
50455SOL     OW58222   9.544   3.083   1.896  0.6287 -0.3660  0.2269
50455SOL    HW158223   9.548   3.144   1.823  2.1259 -0.1744  0.4246
50455SOL    HW258224   9.542   3.139   1.974 -0.0494 -0.5680  0.3583
50456SOL     OW58225   7.468   5.476  10.263  0.3143  0.4659 -0.3719
50456SOL    HW158226   7.410   5.400  10.261  1.7907 -0.7563  0.5478
50456SOL    HW258227   7.443   5.528  10.187  0.7364 -2.0903 -2.3821
50457SOL     OW58228  10.897  12.513   1.611 -0.0697  0.2961  0.1133
50457SOL    HW158229  10.804  12.493   1.616 -0.0745  0.5429  1.2359
50457SOL    HW258230  10.922  12.488   1.522 -1.1625  0.0640 -0.1424
50458SOL     OW58231   5.418   2.455   1.180  0.4925  0.0050 -0.3097
50458SOL    HW158232   5.428   2.394   1.107 -2.0212  0.9618 -1.5782
50458SOL    HW258233   5.336   2.427   1.223  1.6817 -0.2594  1.9235
50459SOL     OW58234   1.534  10.119   0.491  0.0520  0.7078  0.6788
50459SOL    HW158235   1.445  10.152   0.480  0.7190  2.1864 -0.4262
50459SOL    HW258236   1.531  10.031   0.453 -0.7636  1.0203 -0.0231
50460SOL     OW58237   4.829   7.125   6.611  0.6800  0.4318 -0.1820
50460SOL    HW158238   4.878   7.175   6.676  0.1595 -1.1213  1.5010
50460SOL    HW258239   4.843   7.033   6.637 -3.2669 -0.1130  0.6052
50461SOL     OW58240   9.189   1.000   2.285 -0.7677  0.5283  0.2032
50461SOL    HW158241   9.161   1.005   2.377  0.7376  0.2661  0.7160
50461SOL    HW258242   9.170   1.086   2.249  0.2987  1.2507  1.2987
50462SOL     OW58243   2.773   2.767   9.525  0.3357 -0.1056  0.4640
50462SOL    HW158244   2.781   2.672   9.536 -1.3428 -0.1701  1.4740
50462SOL    HW258245   2.854   2.802   9.560  1.5747 -1.2010 -1.1362
50463SOL     OW58246  11.893   0.698   9.682 -0.2635  0.2048  0.4056
50463SOL    HW158247  11.895   0.636   9.755 -1.3392 -0.9272 -0.4722
50463SOL    HW258248  11.933   0.650   9.609  0.9019  1.3543  0.2507
50464SOL     OW58249   2.237   0.042   4.410  0.1987  0.1997  0.1152
50464SOL    HW158250   2.168   0.053   4.345 -0.0289 -0.2037  0.2857
50464SOL    HW258251   2.222   0.111   4.474  0.5780  0.7586 -0.3945
50465SOL     OW58252   0.238   7.299   2.579  0.3014  0.1443 -0.1578
50465SOL    HW158253   0.333   7.306   2.588  0.1408  1.3414  1.1195
50465SOL    HW258254   0.204   7.345   2.656 -1.3265  1.9145 -1.8132
50466SOL     OW58255   3.334   0.248   1.781  0.2781 -0.4095  0.3204
50466SOL    HW158256   3.416   0.204   1.805  0.1569 -0.0740  1.3985
50466SOL    HW258257   3.329   0.323   1.841 -0.1181  0.3915 -0.6820
50467SOL     OW58258   6.842   6.669   2.306  0.5631 -0.2466  0.6363
50467SOL    HW158259   6.802   6.707   2.228 -0.6466 -0.6871  1.0213
50467SOL    HW258260   6.877   6.585   2.276  0.1979 -0.3645  0.5271
50468SOL     OW58261  10.758   7.994  11.728 -0.4266 -0.1327  0.2302
50468SOL    HW158262  10.721   8.082  11.720  0.9468  0.3789 -0.8651
50468SOL    HW258263  10.697   7.938  11.680 -1.4628  0.1427  1.1712
50469SOL     OW58264   1.608   0.176   1.037 -0.2045  0.2441 -1.0954
50469SOL    HW158265   1.568   0.260   1.060  0.0111  0.0644 -0.0104
50469SOL    HW258266   1.697   0.198   1.009  0.8146  0.2020  1.7738
50470SOL     OW58267   6.199   0.544   5.921  0.3907  0.4882  0.1725
50470SOL    HW158268   6.247   0.465   5.898 -0.0869 -0.0628  1.0129
50470SOL    HW258269   6.249   0.615   5.880  0.6173 -0.2647 -0.9083
50471SOL     OW58270   6.485   3.298  11.024 -0.3890  0.1792 -0.1975
50471SOL    HW158271   6.470   3.217  10.976 -2.2212  0.7806 -0.7170
50471SOL    HW258272   6.427   3.292  11.100  0.4782  0.4193  0.5049
50472SOL     OW58273   8.428  12.513  12.126  0.7365 -0.8318  0.2123
50472SOL    HW158274   8.497  12.448  12.118  1.0614 -0.5433  0.6332
50472SOL    HW258275   8.386  12.493  12.210 -0.5867 -1.8583 -0.6396
50473SOL     OW58276  11.885   8.866   7.636  0.4088  0.1612  0.3793
50473SOL    HW158277  11.953   8.907   7.690  1.0383  0.0203 -0.2952
50473SOL    HW258278  11.854   8.936   7.578  0.6460 -0.0114  0.0423
50474SOL     OW58279   4.978  10.672   5.305  0.6671 -0.2992  0.1905
50474SOL    HW158280   4.996  10.655   5.397 -2.0225 -0.9695  0.6682
50474SOL    HW258281   4.945  10.761   5.303 -0.3887 -0.6810  0.0751
50475SOL     OW58282   9.765   3.489   9.171  0.2031  0.3438 -0.3210
50475SOL    HW158283   9.727   3.429   9.106 -1.2577 -1.0626  1.7000
50475SOL    HW258284   9.689   3.527   9.215  0.9653 -1.7110  3.1261
50476SOL     OW58285   6.790   6.355   8.519  0.1521  0.0094 -0.4766
50476SOL    HW158286   6.859   6.421   8.530  0.5016 -0.1798 -1.4553
50476SOL    HW258287   6.835   6.279   8.483 -0.3413 -0.5976  0.1635
50477SOL     OW58288  12.088   0.201  10.423 -0.8712  0.1734  0.1573
50477SOL    HW158289  12.183   0.194  10.433 -0.9163  1.1780  1.4795
50477SOL    HW258290  12.061   0.264  10.489 -2.1560  1.9651 -1.9280
50478SOL     OW58291  10.664   1.303   2.914  0.1467 -0.1383 -0.1588
50478SOL    HW158292  10.602   1.285   2.843 -1.1212  1.2286  0.5346
50478SOL    HW258293  10.693   1.393   2.898  1.1743 -0.4086  0.1086
50479SOL     OW58294   5.905   1.059  11.085  0.2251  0.3676  0.3936
50479SOL    HW158295   5.851   1.138  11.094 -0.1883  0.2006 -0.5421
50479SOL    HW258296   5.887   1.008  11.164 -0.7844  0.4442  0.2235
50480SOL     OW58297   4.607  12.111   7.386  0.5466 -0.2844  0.0162
50480SOL    HW158298   4.538  12.112   7.320  1.9643  0.2622 -1.5433
50480SOL    HW258299   4.602  12.198   7.427 -1.2043 -1.0915  1.6557
50481SOL     OW58300   7.690   4.812   7.084  0.4135  0.0174 -0.2835
50481SOL    HW158301   7.652   4.861   7.010 -2.5623 -0.4514  0.7734
50481SOL    HW258302   7.653   4.724   7.076  1.7028 -0.6362  0.6324
50482SOL     OW58303   6.903   0.261   9.545 -0.9856 -0.3331  0.8264
50482SOL    HW158304   6.848   0.183   9.541 -0.2766 -0.7966 -0.5474
50482SOL    HW258305   6.847   0.332   9.513 -1.5370 -0.3287  1.7922
50483SOL     OW58306   5.216   8.759   4.917  0.0662 -0.0928  0.5689
50483SOL    HW158307   5.273   8.724   4.985 -0.1577  1.5488  1.6429
50483SOL    HW258308   5.131   8.719   4.934  0.5750 -1.6773 -0.3611
50484SOL     OW58309  12.059   7.034  10.424 -0.4925  0.1520  0.5423
50484SOL    HW158310  12.025   7.105  10.370 -0.6255  0.4018  0.9436
50484SOL    HW258311  12.061   6.958  10.367  0.0646  0.5825 -0.0217
50485SOL     OW58312   0.919  11.081   1.767  0.2552  0.1629  0.1738
50485SOL    HW158313   0.927  11.072   1.672  2.0743 -0.5256  0.3490
50485SOL    HW258314   0.870  11.004   1.795 -0.1590  0.2944 -0.1721
50486SOL     OW58315   9.441   6.247   9.461  0.4602 -0.0726 -0.2128
50486SOL    HW158316   9.448   6.237   9.556 -1.4655  1.4132  0.1294
50486SOL    HW258317   9.438   6.157   9.428  0.2679 -0.6100  1.2077
50487SOL     OW58318  11.206   2.139   7.536  0.1674 -0.2124  0.1532
50487SOL    HW158319  11.249   2.125   7.451 -0.9939  1.8443 -0.8602
50487SOL    HW258320  11.244   2.220   7.569 -1.2946  0.4478  0.2903
50488SOL     OW58321   4.474   0.110   1.362  0.4091  0.0112 -0.0714
50488SOL    HW158322   4.456   0.099   1.269  0.0009 -3.2077  0.2784
50488SOL    HW258323   4.388   0.104   1.404  0.7075  0.2177  0.5835
50489SOL     OW58324   6.857   6.153  12.550  0.2764 -0.3840  0.0754
50489SOL    HW158325   6.764   6.147  12.574  0.5378  0.8002  1.5614
50489SOL    HW258326   6.894   6.070  12.579  0.0323 -0.0902  1.2784
50490SOL     OW58327   7.407   6.533   0.964  0.2102  0.9190  0.2478
50490SOL    HW158328   7.493   6.510   0.998 -0.1450 -0.2352  0.4017
50490SOL    HW258329   7.411   6.511   0.871 -0.1216  0.2506  0.3881
50491SOL     OW58330   0.838  11.266   3.885  0.1422  0.0122  0.0998
50491SOL    HW158331   0.858  11.175   3.905  0.4164 -0.0759 -0.5546
50491SOL    HW258332   0.919  11.313   3.905  0.3023 -0.0257 -0.4446
50492SOL     OW58333   7.813   9.662   5.600 -0.3893  0.0758  0.0552
50492SOL    HW158334   7.891   9.697   5.643 -1.1896  0.9792  0.8390
50492SOL    HW258335   7.819   9.693   5.510  0.0980  0.2220  0.1346
50493SOL     OW58336   7.454   5.128   7.229  0.4788 -0.0441 -0.5710
50493SOL    HW158337   7.495   5.177   7.159 -0.4249  0.8194 -0.5260
50493SOL    HW258338   7.362   5.155   7.227  0.3546 -0.2754  0.6977
50494SOL     OW58339  12.072   6.740  10.248  0.6863  0.4849  0.1632
50494SOL    HW158340  12.148   6.685  10.231 -0.7057 -2.2179  1.9896
50494SOL    HW258341  12.020   6.735  10.167 -0.4380 -2.8643  0.9116
50495SOL     OW58342   9.554   8.944  11.005  0.4738  0.2560  0.7209
50495SOL    HW158343   9.537   8.940  11.100 -1.3318 -0.6728  0.3931
50495SOL    HW258344   9.512   8.866  10.970  1.6622  0.2667 -0.7996
50496SOL     OW58345   7.568   8.837   0.340  0.2583 -0.4425  0.0609
50496SOL    HW158346   7.574   8.757   0.391  0.1148  0.2541  1.1919
50496SOL    HW258347   7.632   8.896   0.379  3.1869 -1.1936 -3.1179
50497SOL     OW58348   7.564  10.837  11.850  0.3128 -0.4026 -0.0483
50497SOL    HW158349   7.493  10.798  11.902  1.2925 -0.0511  1.6206
50497SOL    HW258350   7.603  10.763  11.804  0.1703 -0.9151  0.6350
50498SOL     OW58351   6.793  10.009   7.006 -0.8319 -0.4432 -0.3650
50498SOL    HW158352   6.800   9.969   7.093 -0.4040 -0.1132 -0.2446
50498SOL    HW258353   6.867   9.974   6.957 -1.5689 -1.3277 -0.8942
50499SOL     OW58354  11.853  12.409   7.728  0.0735  0.3766 -0.1674
50499SOL    HW158355  11.896  12.454   7.656  0.0752  0.0294 -0.3886
50499SOL    HW258356  11.901  12.436   7.806  1.9539 -1.4382 -0.5857
50500SOL     OW58357   0.072   1.442   2.474 -0.0104  0.3483 -0.2508
50500SOL    HW158358   0.040   1.386   2.403  1.2626 -0.1311 -0.4714
50500SOL    HW258359   0.083   1.528   2.433  0.5960  0.1035 -0.6235
50501SOL     OW58360   2.931   0.876   8.480 -0.3122  0.3582 -0.0031
50501SOL    HW158361   2.877   0.951   8.454 -0.5981  0.3001  0.4107
50501SOL    HW258362   3.000   0.914   8.535  0.3669  0.4980 -0.9235
50502SOL     OW58363   4.451  10.059   8.654  0.0689  0.2786  0.3629
50502SOL    HW158364   4.523   9.995   8.648 -1.2028 -1.1592 -0.1586
50502SOL    HW258365   4.451  10.086   8.746  0.0627 -1.1788  0.8183
50503SOL     OW58366   8.427   0.781   0.232 -0.0030 -0.1630 -0.1587
50503SOL    HW158367   8.336   0.772   0.261 -0.8398  0.8394 -2.2966
50503SOL    HW258368   8.424   0.761   0.138  2.1435 -0.8664 -0.1234
50504SOL     OW58369   2.213  10.369   4.779  0.1335 -0.0666  0.4759
50504SOL    HW158370   2.284  10.412   4.826  0.8376 -0.1659 -0.4708
50504SOL    HW258371   2.145  10.436   4.771 -0.6924 -0.4914  2.9902
50505SOL     OW58372   8.591   3.987   4.490  0.3683  0.3037  0.0581
50505SOL    HW158373   8.648   4.047   4.538  1.0834  1.0074 -1.5892
50505SOL    HW258374   8.525   4.043   4.449 -0.0571 -0.2473 -0.0347
50506SOL     OW58375   8.012  10.929  12.156 -0.0628 -0.2034 -0.1240
50506SOL    HW158376   8.033  10.924  12.062  1.6866 -3.2467  0.3045
50506SOL    HW258377   8.097  10.929  12.200 -0.8485  1.2370  1.5381
50507SOL     OW58378   5.208   2.146   4.834 -0.1659 -0.0378  0.0589
50507SOL    HW158379   5.220   2.096   4.914 -0.1940  4.0500  2.9242
50507SOL    HW258380   5.293   2.186   4.816 -0.6244  0.6019 -0.8383
50508SOL     OW58381   4.914  11.139   0.939 -0.3161  0.6953  0.1064
50508SOL    HW158382   4.917  11.094   1.023  0.3327  2.5902  1.1487
50508SOL    HW258383   4.996  11.116   0.896 -0.2737  0.3948  0.3465
50509SOL     OW58384  10.655   4.626   9.391 -0.3401  0.3684  0.4756
50509SOL    HW158385  10.569   4.584   9.398  0.4104 -1.7648 -1.5899
50509SOL    HW258386  10.659   4.659   9.302  1.0944  0.0819  0.4005
50510SOL     OW58387  10.586  11.261  11.456  0.4372  0.0699  0.1182
50510SOL    HW158388  10.544  11.335  11.412  0.5262 -0.6116 -1.1791
50510SOL    HW258389  10.628  11.299  11.533  1.3103  1.5649 -1.0417
50511SOL     OW58390   6.508   2.440   2.773 -0.2701 -0.0132  0.2414
50511SOL    HW158391   6.561   2.445   2.852  0.8891  0.5743 -0.5463
50511SOL    HW258392   6.469   2.527   2.765 -0.3282 -0.0494  0.1322
50512SOL     OW58393   5.700   8.581   4.541 -0.2981 -0.0446 -0.2489
50512SOL    HW158394   5.632   8.520   4.512 -0.2496  0.1576 -0.8094
50512SOL    HW258395   5.779   8.529   4.545  0.3034  0.4329 -3.1390
50513SOL     OW58396   6.838   5.327   0.917 -0.3302  0.4987 -0.5568
50513SOL    HW158397   6.776   5.328   0.843 -0.5154 -1.0249 -0.4490
50513SOL    HW258398   6.924   5.338   0.876 -0.6272  3.0790 -0.6742
50514SOL     OW58399   8.098   9.910   2.757  0.2197  0.5226  0.0698
50514SOL    HW158400   8.103   9.889   2.664 -0.4304  0.0144  0.1453
50514SOL    HW258401   8.089   9.825   2.800 -1.3050  0.8574  0.4637
50515SOL     OW58402   8.313   8.304   0.327  0.2707  0.0242 -0.1194
50515SOL    HW158403   8.304   8.339   0.238  1.7714  0.6581 -0.0540
50515SOL    HW258404   8.402   8.269   0.330 -0.5151 -2.0934  0.4494
50516SOL     OW58405  10.244  10.251   0.924  0.0203 -0.1300  0.8584
50516SOL    HW158406  10.189  10.267   0.847  2.4727 -1.5403 -1.3848
50516SOL    HW258407  10.197  10.183   0.973 -1.3668  0.4330  0.3527
50517SOL     OW58408  10.390   9.968   8.158 -0.0837  0.7090  0.1688
50517SOL    HW158409  10.450   9.956   8.085 -1.3405 -1.5163 -0.6162
50517SOL    HW258410  10.406   9.893   8.215 -2.1978 -0.0914 -0.1938
50518SOL     OW58411   7.575   4.422   3.993 -0.0266  0.4791 -0.4886
50518SOL    HW158412   7.557   4.409   3.900 -1.0136  2.0534 -0.5653
50518SOL    HW258413   7.581   4.517   4.003  1.0530  0.3091  0.9055
50519SOL     OW58414   8.255   7.595   6.323  0.4067 -0.1588  0.2023
50519SOL    HW158415   8.278   7.639   6.242  1.0932  0.8756  0.9402
50519SOL    HW258416   8.334   7.545   6.346 -0.3174 -1.7283 -0.5608
50520SOL     OW58417   9.992   7.863   0.816 -0.3478 -0.2343 -0.5879
50520SOL    HW158418   9.924   7.895   0.756  1.8006  1.3680 -2.3650
50520SOL    HW258419   9.949   7.859   0.901 -2.2149  2.5231 -1.2502
50521SOL     OW58420   2.812   7.359   3.821  0.0217 -0.4615  0.6784
50521SOL    HW158421   2.906   7.360   3.834  0.3417  0.6222 -1.4054
50521SOL    HW258422   2.790   7.266   3.813  1.0002 -0.6825  0.5156
50522SOL     OW58423   8.924   4.732   7.707 -0.3766  0.1291 -0.3214
50522SOL    HW158424   8.998   4.756   7.763 -0.4041  1.4405 -0.8223
50522SOL    HW258425   8.877   4.664   7.757  0.7684 -0.2335  0.2963
50523SOL     OW58426   2.820   3.271  10.520  0.2425 -0.0183  0.0384
50523SOL    HW158427   2.838   3.296  10.611  1.9784  3.0540 -0.9905
50523SOL    HW258428   2.725   3.261  10.516  0.0482  0.5347  2.0035
50524SOL     OW58429   6.130   8.571  10.626  0.0657 -0.4469 -0.1503
50524SOL    HW158430   6.049   8.521  10.633 -0.5290  0.5675  0.6512
50524SOL    HW258431   6.194   8.510  10.591 -0.7569 -1.5991  0.3118
50525SOL     OW58432  11.454   6.850   6.312 -0.1219  0.2367  0.2009
50525SOL    HW158433  11.401   6.874   6.235  1.3774 -0.2413 -1.0381
50525SOL    HW258434  11.390   6.834   6.381 -1.6171 -0.5303 -1.2807
50526SOL     OW58435   5.150   5.552   6.068 -0.4209  0.0527 -0.3267
50526SOL    HW158436   5.132   5.607   5.992 -1.0262 -0.9452 -0.9256
50526SOL    HW258437   5.245   5.559   6.080 -0.1076 -0.7854 -1.9993
50527SOL     OW58438   4.330   4.368   2.231 -0.6325 -0.2238 -0.2319
50527SOL    HW158439   4.251   4.372   2.178  0.3517 -1.1525 -1.8300
50527SOL    HW258440   4.387   4.435   2.194 -0.7221  0.6164  1.0719
50528SOL     OW58441   5.005   6.822   8.226  0.0618  0.7116 -0.6878
50528SOL    HW158442   4.912   6.823   8.202  0.1069  0.9168 -0.8500
50528SOL    HW258443   5.033   6.913   8.220 -0.0397  0.8457  0.6125
50529SOL     OW58444   7.296  12.321   4.539 -0.0195 -0.2627 -0.0057
50529SOL    HW158445   7.314  12.228   4.547 -0.4018 -0.4218 -0.8521
50529SOL    HW258446   7.207  12.332   4.573 -0.0687 -0.2479 -0.1391
50530SOL     OW58447   4.299   5.858  10.362 -0.4980  0.5512 -0.4504
50530SOL    HW158448   4.386   5.820  10.371 -1.7274 -2.1968  0.9749
50530SOL    HW258449   4.315   5.949  10.337  2.7346  0.0650 -0.5416
50531SOL     OW58450   0.414   4.653   4.553  0.5757  0.7383 -0.1882
50531SOL    HW158451   0.326   4.674   4.523  1.2170  1.9025 -1.4013
50531SOL    HW258452   0.443   4.582   4.494 -0.0769 -0.7715  1.2246
50532SOL     OW58453   7.467   7.545  11.895 -0.3053  0.5130 -0.6197
50532SOL    HW158454   7.559   7.564  11.876  0.2436 -0.8001  0.6158
50532SOL    HW258455   7.419   7.595  11.829  1.2155  2.4264 -0.3639
50533SOL     OW58456  11.746  12.447   1.628  0.3588 -0.4234 -0.0376
50533SOL    HW158457  11.793  12.441   1.711  0.2971  1.7962  0.2255
50533SOL    HW258458  11.759  12.362   1.586  3.2594 -0.4369  0.7149
50534SOL     OW58459  12.081   9.507   8.855 -0.1202 -0.2683  0.0642
50534SOL    HW158460  12.104   9.525   8.764 -0.5026 -1.6086 -0.3164
50534SOL    HW258461  12.116   9.582   8.903  1.9671 -0.5243 -0.9086
50535SOL     OW58462   7.496   0.798   2.813  0.3991 -0.0234  0.0771
50535SOL    HW158463   7.560   0.772   2.879 -0.5142 -1.7464  0.3364
50535SOL    HW258464   7.545   0.799   2.731  1.2699  0.9769  0.5848
50536SOL     OW58465   7.183   4.925   4.496  0.9011 -0.2662  0.0535
50536SOL    HW158466   7.148   4.997   4.548  2.0594 -0.6811  1.4451
50536SOL    HW258467   7.205   4.857   4.559  0.1591 -1.7399 -1.2008
50537SOL     OW58468  10.121   8.772  11.591  0.1723 -0.4253 -0.9374
50537SOL    HW158469  10.067   8.744  11.517  0.4018 -2.7900 -0.3005
50537SOL    HW258470  10.060   8.783  11.664  0.2002 -0.0824 -0.9617
50538SOL     OW58471  12.182  12.118   4.501 -0.6287 -0.2531  0.3258
50538SOL    HW158472  12.250  12.151   4.560 -1.3062 -1.3307  1.7632
50538SOL    HW258473  12.115  12.186   4.501 -0.2834  0.0884  0.2027
50539SOL     OW58474   5.623   5.381  11.165  0.1761  0.0607  0.6814
50539SOL    HW158475   5.703   5.333  11.186 -0.1622 -0.7831  0.0990
50539SOL    HW258476   5.553   5.330  11.204 -0.1058  0.6442  0.9453
50540SOL     OW58477   5.643   7.328   8.418  0.1892 -0.1637 -0.1818
50540SOL    HW158478   5.587   7.316   8.494  1.0704 -1.1386  0.3449
50540SOL    HW258479   5.584   7.321   8.343 -0.4946 -0.5104  0.3762
50541SOL     OW58480   1.268   8.006  10.360 -0.0780 -0.0851  0.2715
50541SOL    HW158481   1.363   8.012  10.345 -0.1423  1.5674  0.2433
50541SOL    HW258482   1.230   8.050  10.284 -0.9118 -1.3795 -0.0726
50542SOL     OW58483   3.626   9.887   7.227  0.6605  0.0458 -0.6201
50542SOL    HW158484   3.579   9.868   7.309 -1.1550 -0.3466 -1.6932
50542SOL    HW258485   3.583   9.832   7.162  0.8809  1.6460 -2.1799
50543SOL     OW58486   3.339   3.869  10.775 -0.2915  0.1601 -0.5505
50543SOL    HW158487   3.317   3.887  10.684  0.0727  0.9381 -0.4883
50543SOL    HW258488   3.434   3.873  10.779 -0.3060  0.1766 -0.1322
50544SOL     OW58489   6.820   3.442   6.963 -0.3596 -0.3438  0.3350
50544SOL    HW158490   6.739   3.488   6.940  0.5328  0.8779 -0.5057
50544SOL    HW258491   6.825   3.370   6.901 -0.2141  0.2992 -0.4199
50545SOL     OW58492  12.115   7.383   1.837 -0.0497  0.0772  0.0478
50545SOL    HW158493  12.050   7.445   1.804 -0.2777 -1.3189 -2.3589
50545SOL    HW258494  12.070   7.336   1.907 -0.1573  1.9616  1.3146
50546SOL     OW58495  12.199   1.127   2.025 -0.1098 -0.2224 -0.1321
50546SOL    HW158496  12.242   1.162   1.947  2.0226  0.4766  1.2654
50546SOL    HW258497  12.244   1.044   2.042  0.6846  0.4730  1.3119
50547SOL     OW58498   5.895   7.400   9.226 -0.1618 -0.6447 -0.5250
50547SOL    HW158499   5.895   7.472   9.163 -1.3083 -0.0005  0.1728
50547SOL    HW258500   5.802   7.379   9.239  0.0516 -0.8413  0.8480
50548SOL     OW58501   5.589   4.615   3.542  0.2351 -0.0482 -0.0147
50548SOL    HW158502   5.545   4.531   3.560 -1.8968  1.0560  0.2952
50548SOL    HW258503   5.608   4.611   3.448  0.2372 -0.9093  0.0079
50549SOL     OW58504   5.779   1.409   0.739 -0.1679  0.1487  0.2459
50549SOL    HW158505   5.769   1.477   0.672  0.1213  0.2969  0.3480
50549SOL    HW258506   5.697   1.410   0.787  0.2810  1.3046  1.0403
50550SOL     OW58507   9.402   5.527   3.589  0.4319 -0.2713  0.0267
50550SOL    HW158508   9.357   5.555   3.509 -1.0435  0.2108  0.9764
50550SOL    HW258509   9.360   5.578   3.659  1.2281 -1.1676  1.1936
50551SOL     OW58510   6.989   7.183   9.173 -0.2585  0.3453  0.6340
50551SOL    HW158511   7.057   7.226   9.122 -1.7588  2.0670 -0.0531
50551SOL    HW258512   6.979   7.097   9.134  0.4642  0.6553 -0.2588
50552SOL     OW58513   8.790   8.826   4.992 -0.6151 -0.2186 -0.1843
50552SOL    HW158514   8.717   8.872   5.034 -0.5541 -0.0343 -0.2847
50552SOL    HW258515   8.770   8.829   4.899 -0.2549  0.2126 -0.2497
50553SOL     OW58516   4.377   3.512   7.929  1.2018 -0.2219  0.3425
50553SOL    HW158517   4.414   3.487   8.014  2.5218  1.2516  0.2241
50553SOL    HW258518   4.442   3.569   7.889 -0.5266  1.2467 -0.5420
50554SOL     OW58519   1.224   2.534   9.652  0.4190 -0.2443 -0.3322
50554SOL    HW158520   1.133   2.524   9.682  0.3321  1.4705  0.0547
50554SOL    HW258521   1.218   2.528   9.557 -0.0059 -0.8105 -0.2741
50555SOL     OW58522   4.753   6.066   4.007 -0.2660  0.6351  0.0330
50555SOL    HW158523   4.759   6.063   4.103 -1.2319  1.0999  0.1278
50555SOL    HW258524   4.739   5.975   3.981 -2.7777  0.7878  0.5956
50556SOL     OW58525   6.466  10.107   2.852  0.2334  0.3465 -0.0485
50556SOL    HW158526   6.378  10.137   2.832  0.6846  1.7529 -0.0991
50556SOL    HW258527   6.517  10.128   2.773  0.7499  0.2432  0.2497
50557SOL     OW58528   1.596   8.430   4.153 -0.2315 -0.1060  0.0434
50557SOL    HW158529   1.502   8.431   4.173 -0.0647 -0.0280  0.8509
50557SOL    HW258530   1.623   8.522   4.158 -0.3251  0.0138 -1.2909
50558SOL     OW58531   5.240   3.312   9.461 -0.0113  0.3759 -1.0257
50558SOL    HW158532   5.242   3.404   9.435  1.9930  0.6798 -0.0577
50558SOL    HW258533   5.228   3.315   9.556 -1.8300 -0.4685 -1.2006
50559SOL     OW58534   7.444   7.071  10.322 -0.2946  0.3474 -0.4722
50559SOL    HW158535   7.485   7.058  10.408  0.0765 -2.4710 -0.9881
50559SOL    HW258536   7.512   7.047  10.260 -0.8655  1.4645 -1.5672
50560SOL     OW58537   9.301   3.420   8.572 -0.2614 -0.3523 -0.2936
50560SOL    HW158538   9.303   3.336   8.527 -0.3626 -1.1576  1.1286
50560SOL    HW258539   9.229   3.411   8.636  0.9314  0.0874  1.1737
50561SOL     OW58540   7.878  10.017   3.974  0.0522 -0.4286  0.4504
50561SOL    HW158541   7.972  10.005   3.988  0.1979  0.8712  0.7766
50561SOL    HW258542   7.861   9.978   3.888  1.4313  1.6191 -0.8347
50562SOL     OW58543   4.145  12.571  11.102 -0.1985 -0.8026 -0.2023
50562SOL    HW158544   4.090  12.504  11.142 -0.0783  0.5964  2.5436
50562SOL    HW258545   4.083  12.628  11.056 -0.3438 -2.4348 -2.1631
50563SOL     OW58546   2.323   4.644   5.656  0.1430  0.0430 -0.1845
50563SOL    HW158547   2.416   4.664   5.668  0.3813 -0.7493 -0.6369
50563SOL    HW258548   2.283   4.661   5.742  0.7027  0.3931  0.0103
50564SOL     OW58549   2.563   0.694   8.413  0.0080  0.2393  0.2670
50564SOL    HW158550   2.592   0.707   8.504 -0.5153  0.1890  0.4434
50564SOL    HW258551   2.535   0.603   8.410 -0.3008  0.3387  0.1438
50565SOL     OW58552   8.762  10.321   2.334  0.0036  0.3010  0.7239
50565SOL    HW158553   8.840  10.273   2.363 -0.4290  0.0270  1.4302
50565SOL    HW258554   8.727  10.268   2.262  0.1366  0.1247  0.7894
50566SOL     OW58555   1.986   2.768  11.051  0.0113 -0.1970  0.1239
50566SOL    HW158556   2.081   2.764  11.045  0.1782  0.0576  2.1127
50566SOL    HW258557   1.958   2.797  10.964  1.8765  1.7912  0.0995
50567SOL     OW58558   5.198  12.245   8.009 -0.5177 -0.2056 -0.7243
50567SOL    HW158559   5.111  12.204   8.002 -0.1101 -1.4900  0.9516
50567SOL    HW258560   5.206  12.297   7.930 -2.3776 -0.9233 -1.4567
50568SOL     OW58561  12.575   2.645   3.077 -0.2992  0.4460 -0.7408
50568SOL    HW158562  12.627   2.650   3.158  1.5655 -0.1124 -1.8416
50568SOL    HW258563  12.490   2.682   3.101 -0.2661 -0.9006  1.8196
50569SOL     OW58564   8.654  11.063   3.276  0.0806 -0.4784  0.2051
50569SOL    HW158565   8.730  11.103   3.318  1.3033 -2.1323 -0.3210
50569SOL    HW258566   8.607  11.020   3.348 -0.4559  0.6436  0.5492
50570SOL     OW58567   5.065   8.350   4.061  0.2351  0.1686  0.5189
50570SOL    HW158568   4.978   8.326   4.093 -0.3494 -0.1156 -1.1596
50570SOL    HW258569   5.066   8.445   4.063 -0.6266  0.2294 -0.6243
50571SOL     OW58570   6.069   5.684   8.217 -1.0144 -0.2950 -0.4900
50571SOL    HW158571   6.016   5.665   8.295 -0.8449  0.4294 -0.1857
50571SOL    HW258572   6.133   5.749   8.248  0.2338 -1.3498 -0.7760
50572SOL     OW58573   8.968   1.146   7.692  0.0063 -0.0800 -0.2515
50572SOL    HW158574   9.043   1.202   7.711  0.1065 -0.5386  0.7597
50572SOL    HW258575   8.959   1.090   7.769 -0.1040 -1.4546 -1.2305
50573SOL     OW58576   8.337   9.683  12.181 -0.0586 -0.0875 -0.4792
50573SOL    HW158577   8.252   9.640  12.176 -0.0264 -0.3474  0.8746
50573SOL    HW258578   8.343   9.734  12.100 -2.2172  1.2587  0.1311
50574SOL     OW58579   9.933   2.651  12.465  0.2668  0.1591  0.8439
50574SOL    HW158580   9.954   2.577  12.522  0.4216 -0.6555 -0.2592
50574SOL    HW258581   9.926   2.614  12.378 -2.0978  1.0203  0.5961
50575SOL     OW58582   4.151   0.191   8.793 -0.3458  0.1576 -0.1176
50575SOL    HW158583   4.198   0.158   8.869  0.3603  0.0106 -0.6075
50575SOL    HW258584   4.204   0.265   8.763 -0.5378  0.1218 -0.5496
50576SOL     OW58585   9.621   9.978   3.863  0.0519 -1.2701  0.0803
50576SOL    HW158586   9.707   9.956   3.828  0.3098 -0.4278  0.1614
50576SOL    HW258587   9.640  10.031   3.941 -0.5146 -2.7481  1.2702
50577SOL     OW58588  10.159   3.649   8.719  0.6371  0.1385  0.0886
50577SOL    HW158589  10.088   3.657   8.656  0.9945  1.0671 -0.2123
50577SOL    HW258590  10.131   3.700   8.794  0.6858 -0.0694  0.2507
50578SOL     OW58591   3.043   1.375   9.791  0.1649  0.2201 -0.3916
50578SOL    HW158592   3.070   1.324   9.714  1.3213 -0.2571  0.2926
50578SOL    HW258593   3.018   1.461   9.755 -0.1694 -0.2728 -1.3836
50579SOL     OW58594   0.301   9.356   9.536  0.3352 -0.0500 -0.7029
50579SOL    HW158595   0.282   9.376   9.628  0.3673 -0.1319 -0.6791
50579SOL    HW258596   0.397   9.362   9.530  0.6786 -3.1694  0.0113
50580SOL     OW58597   7.748   6.680   6.880  0.3431  0.1861 -0.0243
50580SOL    HW158598   7.764   6.773   6.863  0.8551  0.1386  0.1733
50580SOL    HW258599   7.809   6.634   6.822 -0.7220 -0.0624 -0.9845
50581SOL     OW58600  12.559  12.136  11.374  0.2772  0.7577  0.3128
50581SOL    HW158601  12.500  12.172  11.308 -0.1690 -1.2367 -0.4665
50581SOL    HW258602  12.631  12.098  11.324 -0.5173 -1.5907  0.8110
50582SOL     OW58603   7.498   9.131   4.966 -0.2461 -0.1432 -0.9217
50582SOL    HW158604   7.436   9.202   4.981  0.9990  0.5448  1.5312
50582SOL    HW258605   7.443   9.052   4.962 -1.3827  0.5551  0.1342
50583SOL     OW58606   3.834   6.800   0.725 -0.1364 -0.0074  0.1068
50583SOL    HW158607   3.826   6.810   0.820  1.6872  3.7525  0.0713
50583SOL    HW258608   3.744   6.788   0.695 -0.9956  0.6724  2.1952
50584SOL     OW58609   7.711  10.683   6.742  0.2776 -0.0863 -0.2133
50584SOL    HW158610   7.674  10.605   6.784 -0.1446  0.2157 -0.0213
50584SOL    HW258611   7.800  10.657   6.718 -0.4326 -1.2522 -1.7827
50585SOL     OW58612   1.918   2.075   2.073  0.2998 -0.3863 -0.2392
50585SOL    HW158613   1.863   1.999   2.052 -0.5971  0.1509  0.1043
50585SOL    HW258614   1.867   2.150   2.044  2.6371  0.0530 -3.9062
50586SOL     OW58615   3.002   4.664   8.786 -0.0571 -0.2085  0.3508
50586SOL    HW158616   3.076   4.627   8.738 -1.1017  0.7928 -2.2754
50586SOL    HW258617   3.041   4.724   8.849  1.4060  0.5819 -1.2307
50587SOL     OW58618   9.881   3.236   5.816 -0.6432  0.6248 -0.0172
50587SOL    HW158619   9.807   3.176   5.816 -0.9723  1.0223 -0.9292
50587SOL    HW258620   9.899   3.253   5.724 -0.0344  1.2954  0.2157
50588SOL     OW58621   7.406   3.652   7.079  0.0968  0.1630  0.0912
50588SOL    HW158622   7.381   3.560   7.069  0.5365 -0.0520  0.9183
50588SOL    HW258623   7.491   3.658   7.036 -0.0640  0.2568 -0.2203
50589SOL     OW58624   0.458  11.144   9.360 -0.0193  0.3602  0.3182
50589SOL    HW158625   0.533  11.103   9.403  1.0601  1.2586 -0.6581
50589SOL    HW258626   0.451  11.099   9.276 -0.6680  0.1843  0.4625
50590SOL     OW58627   5.357   7.362   9.486  0.0655 -0.1916 -0.3944
50590SOL    HW158628   5.379   7.433   9.546  0.9913  0.2912 -1.2665
50590SOL    HW258629   5.275   7.326   9.519  1.1820 -0.7996  1.9113
50591SOL     OW58630   8.017  12.052  11.341 -0.1512  0.2920  0.1938
50591SOL    HW158631   8.102  12.028  11.378 -0.2507  0.0692  0.2844
50591SOL    HW258632   7.955  12.033  11.411 -0.1835  1.2859  0.4371
50592SOL     OW58633  11.388   3.334  11.440 -0.2992 -0.0340  0.5165
50592SOL    HW158634  11.435   3.252  11.429 -1.2668 -0.7334  1.3455
50592SOL    HW258635  11.449   3.402  11.410  0.3140 -1.0854 -0.6681
50593SOL     OW58636   2.984   3.975   0.999 -0.4398 -0.7443  0.0302
50593SOL    HW158637   2.990   3.880   1.004 -0.9965 -0.7570  0.5125
50593SOL    HW258638   3.062   4.007   1.044 -1.2482 -0.9586  1.6381
50594SOL     OW58639   1.764   8.232   9.509  0.7396  0.1316 -0.2132
50594SOL    HW158640   1.798   8.176   9.439 -1.5894 -0.3172 -1.0715
50594SOL    HW258641   1.755   8.318   9.468  2.2424  0.6601  0.4788
50595SOL     OW58642  10.238  12.018   8.761  0.1020  0.0713 -0.0424
50595SOL    HW158643  10.189  11.989   8.683 -1.2267  0.5813  0.5661
50595SOL    HW258644  10.228  12.113   8.761 -0.3788  0.0334  1.0476
50596SOL     OW58645   7.877   8.175   0.478  0.5980 -0.5887 -0.2361
50596SOL    HW158646   7.825   8.114   0.530  0.4424 -1.6396 -1.5868
50596SOL    HW258647   7.962   8.131   0.470 -0.0096 -1.4558 -2.5879
50597SOL     OW58648  10.037  10.647  11.600 -0.0696 -0.2850  0.0863
50597SOL    HW158649   9.964  10.586  11.595  0.4677 -0.9713  0.3610
50597SOL    HW258650  10.096  10.619  11.529 -0.0482  0.2271 -0.1015
50598SOL     OW58651   9.471   7.563   9.232  0.1619 -0.0369 -0.2022
50598SOL    HW158652   9.566   7.556   9.218 -0.0947 -0.7665 -1.6885
50598SOL    HW258653   9.463   7.626   9.304  1.7310  1.3179 -1.1302
50599SOL     OW58654   4.670   0.643   5.839  1.1199 -0.5634  0.1747
50599SOL    HW158655   4.623   0.632   5.922  1.5472  0.8549  0.6302
50599SOL    HW258656   4.619   0.709   5.792  2.2781  0.5198  0.4080
50600SOL     OW58657   0.359  10.472   4.902 -0.4324  0.1922 -0.1529
50600SOL    HW158658   0.293  10.441   4.840 -0.0264 -0.7487 -0.1283
50600SOL    HW258659   0.354  10.568   4.896 -2.8528  0.2052  0.9715
50601SOL     OW58660   8.862   7.383   0.038 -0.1452  0.3516 -0.2877
50601SOL    HW158661   8.862   7.309  -0.023  2.4301 -0.4565  0.5481
50601SOL    HW258662   8.933   7.439   0.008 -0.2357  1.0467  0.7278
50602SOL     OW58663   9.753   7.226   8.880  0.2512 -0.2216  0.4562
50602SOL    HW158664   9.824   7.288   8.865  0.7044 -0.5440  1.1950
50602SOL    HW258665   9.673   7.278   8.874  0.3642 -0.2338 -2.6437
50603SOL     OW58666   1.827  12.132   2.864  0.4580 -0.3837  0.1614
50603SOL    HW158667   1.873  12.071   2.922 -0.6319 -1.3135  0.0864
50603SOL    HW258668   1.801  12.078   2.790 -0.3579  0.2249 -0.0022
50604SOL     OW58669   4.850   7.057   5.264  0.3957 -0.7928  0.1217
50604SOL    HW158670   4.878   6.984   5.209  3.4762 -0.8212  1.5440
50604SOL    HW258671   4.855   7.024   5.354  1.2397  0.9501  0.7641
50605SOL     OW58672  11.305   7.068   2.280  0.1595 -0.4060 -0.0592
50605SOL    HW158673  11.391   7.101   2.252 -0.4202 -0.1781 -1.7217
50605SOL    HW258674  11.304   6.977   2.252 -0.3268 -0.2649 -0.5141
50606SOL     OW58675  12.438   1.243   1.116 -0.0220 -0.0823 -0.3128
50606SOL    HW158676  12.487   1.318   1.150 -0.2365  0.1952 -0.6137
50606SOL    HW258677  12.458   1.172   1.178 -2.0616  0.9323  1.6577
50607SOL     OW58678  10.190  11.355  11.060 -0.9622 -0.0927 -0.1443
50607SOL    HW158679  10.207  11.261  11.048  1.4290  0.0512  1.5645
50607SOL    HW258680  10.258  11.398  11.008 -0.6648  0.6628  0.8574
50608SOL     OW58681  11.809   9.321  11.798 -0.1327 -0.2457  0.0762
50608SOL    HW158682  11.777   9.230  11.803 -0.3777 -0.1115  1.2190
50608SOL    HW258683  11.899   9.316  11.829 -0.6543  0.1297  1.7361
50609SOL     OW58684   4.634   5.997   7.282  0.3857  0.4922  0.1620
50609SOL    HW158685   4.640   5.904   7.259  1.2066  0.4533  0.4876
50609SOL    HW258686   4.640   5.998   7.378  0.9368  0.9199  0.1266
50610SOL     OW58687   6.981   9.502   8.637 -0.0411 -0.1374  0.2904
50610SOL    HW158688   7.071   9.523   8.660  0.2676 -1.1984  0.0744
50610SOL    HW258689   6.962   9.557   8.561  0.7358 -0.5736 -0.2273
50611SOL     OW58690   2.037   8.936  12.152  0.5245  0.0387 -0.3384
50611SOL    HW158691   1.999   8.871  12.092  1.9954 -1.0255 -0.1806
50611SOL    HW258692   2.088   8.993  12.095 -0.2984  0.7288 -0.4051
50612SOL     OW58693   4.414   2.825   2.333 -0.0696  0.3410  0.3531
50612SOL    HW158694   4.395   2.754   2.394 -0.5647 -0.5559 -0.7963
50612SOL    HW258695   4.329   2.854   2.302  0.1010  1.8304  1.2067
50613SOL     OW58696   5.272   0.497   0.237  0.0922 -0.4243 -0.1181
50613SOL    HW158697   5.346   0.558   0.237 -0.9549  0.9202 -1.1065
50613SOL    HW258698   5.222   0.521   0.315 -0.2988 -0.0338 -0.4859
50614SOL     OW58699  11.524   9.876   9.520  0.7063  0.3162  0.4724
50614SOL    HW158700  11.540   9.785   9.493 -1.1413  0.6571 -2.1275
50614SOL    HW258701  11.451   9.870   9.582 -1.2511  0.1260 -1.7197
50615SOL     OW58702   8.873   5.393   9.839 -0.3105 -0.4865  0.1192
50615SOL    HW158703   8.824   5.367   9.761  2.8472 -1.4767 -1.6885
50615SOL    HW258704   8.881   5.312   9.889 -2.1847  0.1121  1.5230
50616SOL     OW58705  10.814   1.938  11.613 -0.1449  0.1502  0.1833
50616SOL    HW158706  10.844   1.941  11.522 -0.6392 -0.5038 -0.0131
50616SOL    HW258707  10.719   1.953  11.607 -0.0821  0.7264  0.6497
50617SOL     OW58708   1.199   6.860   6.585  0.3333  0.0571 -0.1998
50617SOL    HW158709   1.110   6.889   6.606  0.0265 -0.1297 -1.1794
50617SOL    HW258710   1.205   6.868   6.490  0.8459 -1.3596 -0.3120
50618SOL     OW58711   5.063  11.760   2.676  0.3824 -0.3771  0.3248
50618SOL    HW158712   5.090  11.759   2.768  0.6051 -0.6862  0.2583
50618SOL    HW258713   5.084  11.673   2.644 -1.1423 -0.8106  0.3935
50619SOL     OW58714   1.499   2.969   0.630  0.3131  0.1468 -0.1618
50619SOL    HW158715   1.561   2.977   0.557  0.0505 -0.8412 -0.5008
50619SOL    HW258716   1.536   2.901   0.686 -0.0594  0.1150  0.0502
50620SOL     OW58717   7.296   7.028   0.742  0.4378 -0.2614  0.7622
50620SOL    HW158718   7.280   7.112   0.784  0.6664  0.9329 -1.3902
50620SOL    HW258719   7.283   6.963   0.811  1.4283  1.5866  2.8113
50621SOL     OW58720   2.267  10.267   9.839  0.6486 -0.0809 -0.1312
50621SOL    HW158721   2.307  10.274   9.926  0.9060  1.4614 -0.3471
50621SOL    HW258722   2.275  10.355   9.802 -0.3700 -0.4684 -1.3219
50622SOL     OW58723   1.792   4.153   9.588  0.0094 -0.2581 -0.1371
50622SOL    HW158724   1.727   4.178   9.653  1.7325  1.7764  0.9630
50622SOL    HW258725   1.758   4.073   9.549 -2.0281 -0.5071  1.9215
50623SOL     OW58726   8.483   8.365   2.337 -0.0193 -0.4311  0.0034
50623SOL    HW158727   8.398   8.355   2.293 -0.2573  0.6543  0.1853
50623SOL    HW258728   8.504   8.278   2.368 -0.6344 -0.9003 -0.8388
50624SOL     OW58729   1.149  11.365  11.086 -0.3259  0.2674  0.6518
50624SOL    HW158730   1.206  11.372  11.162  1.1341  0.9869 -0.4711
50624SOL    HW258731   1.207  11.373  11.011 -2.0353  2.3684 -0.5533
50625SOL     OW58732   5.068   4.759   1.693  0.1785  0.1605  0.1250
50625SOL    HW158733   4.994   4.701   1.707  0.7947 -0.9614 -1.0021
50625SOL    HW258734   5.139   4.720   1.744  0.9218 -0.8284 -1.5755
50626SOL     OW58735   9.864   6.638   0.285 -0.3352 -0.6863  0.3569
50626SOL    HW158736   9.858   6.733   0.289  0.1113 -0.6219 -0.2245
50626SOL    HW258737   9.886   6.619   0.193  0.9617 -1.2561  0.7520
50627SOL     OW58738   7.963   7.383   1.401  0.3719 -0.2845  0.0863
50627SOL    HW158739   7.878   7.339   1.399 -0.0776  0.4823  1.2877
50627SOL    HW258740   8.001   7.366   1.314 -1.4773  0.2762 -0.8894
50628SOL     OW58741  12.035   3.142   6.257  0.0412 -0.1108 -0.3987
50628SOL    HW158742  12.121   3.181   6.274  0.5444 -1.4193  0.2482
50628SOL    HW258743  11.989   3.147   6.341  0.2933 -1.2631 -0.1659
50629SOL     OW58744   5.586   8.174   1.338 -0.3066  0.1245  0.6028
50629SOL    HW158745   5.630   8.216   1.412  1.1172 -1.2354  0.5699
50629SOL    HW258746   5.526   8.111   1.377  1.6388 -1.7861  0.6603
50630SOL     OW58747   6.564   9.388   9.165 -0.2649  0.2309  0.5269
50630SOL    HW158748   6.469   9.389   9.154 -0.1613 -2.0218 -1.3137
50630SOL    HW258749   6.599   9.397   9.076  1.2473  0.4195  1.1068
50631SOL     OW58750   4.627   1.768   8.588 -0.2760 -0.2818 -0.5477
50631SOL    HW158751   4.597   1.715   8.661  0.3430 -0.1414 -0.1858
50631SOL    HW258752   4.723   1.769   8.596 -0.2876  1.5211 -0.0856
50632SOL     OW58753  12.331   7.885  11.140 -0.3278 -0.2911  0.1642
50632SOL    HW158754  12.380   7.840  11.071 -0.8124 -1.3283  0.4794
50632SOL    HW258755  12.293   7.815  11.192 -1.4817  0.4952  0.4194
50633SOL     OW58756   5.245   4.165   7.344 -0.4488 -0.7788  0.6554
50633SOL    HW158757   5.324   4.126   7.382  0.9513  0.5914 -0.7142
50633SOL    HW258758   5.177   4.149   7.410  0.9301 -2.0687  1.8495
50634SOL     OW58759   3.213  12.196   6.272 -0.6930 -0.5021  0.7579
50634SOL    HW158760   3.250  12.273   6.315  0.8493 -0.1873 -1.0023
50634SOL    HW258761   3.139  12.230   6.222 -0.9595 -0.4504  1.1793
50635SOL     OW58762   2.592   8.698  10.973 -0.3683 -0.6293 -0.2140
50635SOL    HW158763   2.589   8.614  11.019  1.3729 -1.8127 -2.1138
50635SOL    HW258764   2.667   8.691  10.914 -0.3754  2.1505 -0.7095
50636SOL     OW58765  10.007   9.255   5.108 -0.6879 -0.9882 -0.4590
50636SOL    HW158766  10.097   9.229   5.093 -0.2003  0.3460 -0.0445
50636SOL    HW258767   9.970   9.270   5.021  0.1232  0.3856 -0.5966
50637SOL     OW58768  10.706   5.505   4.631  0.2315 -0.0428  0.1169
50637SOL    HW158769  10.648   5.520   4.556 -1.7209 -1.0442  1.3400
50637SOL    HW258770  10.723   5.410   4.629  0.5836  0.0041  0.6559
50638SOL     OW58771   3.827   7.434   0.463 -0.0858 -0.3954 -0.1565
50638SOL    HW158772   3.884   7.473   0.396 -2.0142  3.3649  0.1126
50638SOL    HW258773   3.745   7.417   0.417 -0.3057 -1.1605  0.5088
50639SOL     OW58774   1.608  10.282   5.214 -0.8453  0.0399  0.1228
50639SOL    HW158775   1.620  10.377   5.222 -0.1908 -0.1474  1.6567
50639SOL    HW258776   1.565  10.257   5.295  1.2144 -1.3124  0.8640
50640SOL     OW58777   1.553   0.550  11.120 -0.3467  0.0488 -0.1374
50640SOL    HW158778   1.509   0.496  11.186 -2.2950 -0.0682 -1.4293
50640SOL    HW258779   1.572   0.490  11.048  1.1257  0.3108  0.0019
50641SOL     OW58780   5.874   0.182   6.223 -0.2960  0.3827 -0.1166
50641SOL    HW158781   5.864   0.223   6.136 -1.0946  0.7071  0.1148
50641SOL    HW258782   5.784   0.173   6.255 -0.0740 -0.7866  0.2038
50642SOL     OW58783   9.976   2.341   5.693 -0.0952  0.1694 -0.1382
50642SOL    HW158784  10.051   2.398   5.674  0.7005 -0.4585  1.0419
50642SOL    HW258785   9.981   2.272   5.626  0.2759  0.2180 -0.1618
50643SOL     OW58786   3.190   8.969  10.891 -0.1289 -0.4666  0.8194
50643SOL    HW158787   3.187   8.886  10.843 -0.4124 -0.9786  1.7009
50643SOL    HW258788   3.281   8.998  10.883  0.1556 -1.2524  1.1530
50644SOL     OW58789  10.236   3.951   3.783 -0.2735 -0.9604 -0.1697
50644SOL    HW158790  10.169   3.935   3.717 -0.7885  0.4352 -0.0193
50644SOL    HW258791  10.239   3.870   3.835 -3.1553 -0.4655  0.9512
50645SOL     OW58792   1.056   5.647   8.179  0.1729 -0.2638 -0.7020
50645SOL    HW158793   1.007   5.676   8.101 -1.2237  0.1629  0.2896
50645SOL    HW258794   1.103   5.726   8.208  0.1041 -0.2224 -0.7005
50646SOL     OW58795   8.929   0.080  12.448 -0.3538 -0.3577 -0.1836
50646SOL    HW158796   9.008   0.043  12.408 -0.3672  0.4446 -0.9956
50646SOL    HW258797   8.941   0.066  12.542  0.6127 -0.5371 -0.3181
50647SOL     OW58798  11.203   3.775   0.728 -0.3397 -0.5336  0.6567
50647SOL    HW158799  11.184   3.768   0.822 -0.0847 -0.8456  0.6859
50647SOL    HW258800  11.247   3.693   0.706  0.5719 -0.0062  0.4931
50648SOL     OW58801   5.098   3.032   7.579  0.0173 -0.6266  0.5222
50648SOL    HW158802   5.092   2.938   7.560  2.2650 -0.6809 -0.2482
50648SOL    HW258803   5.177   3.060   7.532  0.6947  1.1711  2.6040
50649SOL     OW58804   8.396   0.785  10.299  0.3934  0.3991 -0.4082
50649SOL    HW158805   8.411   0.704  10.250 -1.9219 -0.9375  0.8760
50649SOL    HW258806   8.326   0.829  10.251 -1.7240 -0.8044  1.3477
50650SOL     OW58807  12.109   3.724   8.393  0.5099 -0.3248 -0.1294
50650SOL    HW158808  12.182   3.664   8.408  0.1527 -0.4771  1.0445
50650SOL    HW258809  12.093   3.765   8.478  0.7374  1.4451 -0.8961
50651SOL     OW58810   0.367   0.363  10.507  0.5442 -0.7294 -0.8545
50651SOL    HW158811   0.293   0.304  10.521 -0.6507  0.6524 -1.1217
50651SOL    HW258812   0.396   0.344  10.417  0.2245 -0.9577 -0.9132
50652SOL     OW58813   6.424   7.837   8.108  0.7131  0.2104 -0.1568
50652SOL    HW158814   6.455   7.923   8.137  1.5568  0.0920 -0.6652
50652SOL    HW258815   6.452   7.777   8.177  0.2047  0.3309  0.1545
50653SOL     OW58816   9.388   7.161  10.783 -0.2374 -0.4147 -0.1303
50653SOL    HW158817   9.358   7.237  10.833  0.5298  0.1249 -0.4553
50653SOL    HW258818   9.332   7.160  10.706 -1.6070 -1.4167  0.8490
50654SOL     OW58819   4.082   7.057   8.919 -0.0611 -0.1270 -0.2198
50654SOL    HW158820   4.167   7.074   8.879 -0.3942  1.9292 -0.1809
50654SOL    HW258821   4.094   7.084   9.010 -0.9901  1.0376 -0.4319
50655SOL     OW58822  10.863   1.702   3.499  0.5124 -0.0725  0.3963
50655SOL    HW158823  10.854   1.611   3.527  0.9176 -0.4761 -0.7329
50655SOL    HW258824  10.954   1.725   3.519  0.2295  0.3144  1.2935
50656SOL     OW58825   9.646   4.657   4.806  0.1688  0.2136  0.2680
50656SOL    HW158826   9.670   4.738   4.849  2.2877  0.4985 -1.2884
50656SOL    HW258827   9.696   4.589   4.851 -0.3922 -0.0263  0.5474
50657SOL     OW58828   3.247   7.948   5.998 -0.0739  0.1239 -0.2131
50657SOL    HW158829   3.337   7.956   5.965  0.5415 -1.2324  1.0370
50657SOL    HW258830   3.255   7.898   6.079 -1.9183  0.4255  0.2088
50658SOL     OW58831   5.609  10.715   6.590  0.3255 -0.5383  0.2111
50658SOL    HW158832   5.612  10.634   6.639 -1.0179 -0.4756  0.4324
50658SOL    HW258833   5.586  10.688   6.501 -1.8739 -0.3111  0.6511
50659SOL     OW58834  12.307   3.728   3.480  0.0796  0.1290  0.3618
50659SOL    HW158835  12.365   3.784   3.429 -0.8546  0.0072 -0.8926
50659SOL    HW258836  12.245   3.789   3.521 -0.5168  0.0780 -0.4483
50660SOL     OW58837   5.510   4.248  11.217 -0.0945  0.1494 -0.7866
50660SOL    HW158838   5.489   4.237  11.125 -1.8062 -1.0513 -0.3083
50660SOL    HW258839   5.605   4.242  11.221  0.0718  1.1119 -2.5630
50661SOL     OW58840  12.051   2.629   0.097  0.3060  0.2335  0.3698
50661SOL    HW158841  12.110   2.682   0.044  0.8126 -0.1244  0.5696
50661SOL    HW258842  12.019   2.561   0.037 -1.7539  1.7658 -0.4029
50662SOL     OW58843   5.014   5.256   0.593  0.3199 -0.6867 -0.3990
50662SOL    HW158844   4.965   5.338   0.598  1.8178  0.2257  0.0941
50662SOL    HW258845   5.085   5.266   0.657 -0.1488 -2.8816  0.5729
50663SOL     OW58846   9.362   5.690   5.380  0.6499  0.0751 -0.2197
50663SOL    HW158847   9.425   5.750   5.340 -0.1702  0.7577 -0.4930
50663SOL    HW258848   9.382   5.695   5.474  0.4167  0.9818 -0.2095
50664SOL     OW58849   8.550   9.907   5.102  0.3220 -0.6284  0.1574
50664SOL    HW158850   8.469   9.868   5.133  1.0227 -1.5867  0.8517
50664SOL    HW258851   8.604   9.917   5.181  1.0434 -0.4279 -0.3454
50665SOL     OW58852   2.677   2.012   1.282 -0.4944  0.3515  0.0272
50665SOL    HW158853   2.657   2.064   1.360 -1.2221 -0.1868  0.2135
50665SOL    HW258854   2.712   2.075   1.220  3.5804  0.2679  1.9511
50666SOL     OW58855  10.661   6.377   0.876 -1.2532 -0.0360  0.0032
50666SOL    HW158856  10.712   6.436   0.821 -0.1097 -0.3150  0.7204
50666SOL    HW258857  10.573   6.379   0.839 -0.8739  0.9494 -0.8895
50667SOL     OW58858   1.417   3.514   9.912 -0.5430 -0.1446 -0.4428
50667SOL    HW158859   1.453   3.516  10.000  0.7539  1.4451 -0.9496
50667SOL    HW258860   1.324   3.494   9.924 -0.8505  1.9748  1.4781
50668SOL     OW58861   2.628   2.739   7.937  0.1549  0.3208  0.3369
50668SOL    HW158862   2.610   2.709   7.848 -0.0687  1.0319  0.1386
50668SOL    HW258863   2.541   2.753   7.975  0.2478 -0.1343  0.7184
50669SOL     OW58864  12.520   2.982   9.274 -0.2531  0.0774 -0.7844
50669SOL    HW158865  12.506   2.971   9.368  0.3383  0.5371 -0.6356
50669SOL    HW258866  12.614   2.995   9.265 -0.3879  0.7458 -1.3577
50670SOL     OW58867   9.473   3.874   6.955 -0.1699 -0.0977  0.0325
50670SOL    HW158868   9.403   3.819   6.919  0.2303  0.2940 -1.3717
50670SOL    HW258869   9.427   3.947   6.996 -0.6026 -0.2247 -0.2204
50671SOL     OW58870   5.155  11.960  10.555 -0.0370 -0.3466 -0.1340
50671SOL    HW158871   5.247  11.937  10.543 -0.0758 -0.9330  0.6176
50671SOL    HW258872   5.154  12.011  10.636 -0.4973 -1.2145  0.4236
50672SOL     OW58873   9.006   4.045  11.945 -0.2172 -0.5959  0.3564
50672SOL    HW158874   8.995   3.954  11.972 -2.1051 -0.0309  1.6501
50672SOL    HW258875   9.011   4.041  11.849 -1.2786 -1.9970  0.3273
50673SOL     OW58876   5.612   0.205   3.797  0.5371 -0.1092 -0.7563
50673SOL    HW158877   5.615   0.156   3.880 -0.4440  1.2457  0.1140
50673SOL    HW258878   5.701   0.237   3.786  0.7537 -0.5616 -0.4000
50674SOL     OW58879  11.630   5.134   7.844  0.5923 -0.4792 -0.0324
50674SOL    HW158880  11.574   5.061   7.817  1.2146 -0.7412 -0.6217
50674SOL    HW258881  11.568   5.201   7.873  0.0103 -1.8274  2.1788
50675SOL     OW58882   8.787   1.168   6.505 -0.3349 -0.2448 -0.4856
50675SOL    HW158883   8.844   1.096   6.530  0.9816  0.9956  0.2874
50675SOL    HW258884   8.802   1.178   6.411  0.0045 -0.5470 -0.4689
50676SOL     OW58885   0.503   4.708   1.634  0.5024 -0.3800 -0.2808
50676SOL    HW158886   0.421   4.665   1.612  1.1730 -1.4066 -0.8408
50676SOL    HW258887   0.490   4.740   1.724  0.1904 -2.3270  0.4125
50677SOL     OW58888   8.388   1.875  10.720 -0.4031 -0.0392 -0.7890
50677SOL    HW158889   8.442   1.828  10.783 -1.7902 -0.8800 -0.1908
50677SOL    HW258890   8.444   1.884  10.642  0.7767 -0.3676 -0.0106
50678SOL     OW58891  10.682   1.228   0.759  0.5118  0.9162  0.6071
50678SOL    HW158892  10.677   1.143   0.803 -0.2293  1.0050  0.6973
50678SOL    HW258893  10.692   1.291   0.830 -1.3594  1.1257  0.7344
50679SOL     OW58894   5.552   4.230   3.722  0.2781  0.3771  0.6606
50679SOL    HW158895   5.586   4.140   3.727  1.0898  0.6692  0.5665
50679SOL    HW258896   5.539   4.245   3.628  3.0314  1.3746  0.3638
50680SOL     OW58897   9.852   4.132  11.026 -0.3422 -0.2293 -0.1934
50680SOL    HW158898   9.866   4.200  11.092  0.0892 -1.2172  0.7693
50680SOL    HW258899   9.914   4.063  11.050 -2.3818 -2.0080  0.3457
50681SOL     OW58900   4.022   8.650   0.592 -0.5932 -0.2787 -0.4483
50681SOL    HW158901   4.013   8.667   0.498 -0.8014 -0.1821 -0.4119
50681SOL    HW258902   3.968   8.572   0.607 -1.2060  0.1696 -0.2689
50682SOL     OW58903   9.941   6.034   8.927 -0.0084 -0.3139 -0.0204
50682SOL    HW158904   9.887   5.981   8.986 -1.3650  0.0819 -0.8634
50682SOL    HW258905   9.939   5.988   8.843  0.1622  0.2132 -0.3199
50683SOL     OW58906   3.238   0.544   3.799 -0.5592  0.1630  0.5009
50683SOL    HW158907   3.171   0.495   3.751 -0.7498  0.4475  0.4760
50683SOL    HW258908   3.259   0.489   3.874 -0.8231  0.0751  0.5102
50684SOL     OW58909   9.381  10.108   3.730  0.0538  0.3457  0.3676
50684SOL    HW158910   9.378  10.114   3.826  0.7605 -0.6560  0.4633
50684SOL    HW258911   9.474  10.105   3.709 -0.0735  1.4780 -0.4297
50685SOL     OW58912   1.132  12.026   1.687  0.2398 -0.0447  0.6070
50685SOL    HW158913   1.094  12.033   1.775 -0.0530 -1.3702  0.6059
50685SOL    HW258914   1.118  11.935   1.662 -1.6193  0.8034 -1.7162
50686SOL     OW58915   6.330   6.496   4.157  0.1243 -0.0854 -0.2761
50686SOL    HW158916   6.410   6.509   4.207 -0.8932  0.9082  1.1487
50686SOL    HW258917   6.262   6.544   4.205 -1.2041 -0.3230 -1.8055
50687SOL     OW58918  12.520  10.495   1.682 -0.0990 -0.4217  0.0577
50687SOL    HW158919  12.552  10.410   1.711 -2.7215 -1.1508  1.0013
50687SOL    HW258920  12.579  10.558   1.724  1.3647 -1.6914  0.0011
50688SOL     OW58921  11.817  11.519   0.462  0.2085  0.3659  0.8297
50688SOL    HW158922  11.902  11.509   0.418  0.2554 -0.0534  1.0088
50688SOL    HW258923  11.753  11.485   0.400  0.0168  1.9069  0.1495
50689SOL     OW58924   7.673  10.459   6.280 -0.4601  0.3068 -0.0754
50689SOL    HW158925   7.637  10.493   6.362 -1.0680 -1.2601  0.3399
50689SOL    HW258926   7.599  10.415   6.238  0.3504 -0.7473 -0.4459
50690SOL     OW58927   9.261   3.227   2.969  0.4497  0.4753 -0.1454
50690SOL    HW158928   9.196   3.160   2.991  0.6281  0.3575  0.0297
50690SOL    HW258929   9.344   3.192   3.002  0.2606  1.5941  1.6616
50691SOL     OW58930   5.609   7.580   3.610  0.2539 -0.3608 -0.5188
50691SOL    HW158931   5.637   7.664   3.646 -0.8384 -0.3420  0.3404
50691SOL    HW258932   5.660   7.569   3.530  0.9723  0.7477 -0.2215
50692SOL     OW58933   7.300   4.929   9.798 -0.0024  0.3306 -0.0651
50692SOL    HW158934   7.322   4.862   9.863  0.3609  0.7446  0.2449
50692SOL    HW258935   7.220   4.896   9.756  1.0255 -1.0632 -1.0177
50693SOL     OW58936   0.676   9.794   4.187 -0.4401 -0.1752 -0.2949
50693SOL    HW158937   0.655   9.833   4.102 -0.7506  0.7586  0.1965
50693SOL    HW258938   0.761   9.753   4.174 -1.1633 -1.4144 -1.4909
50694SOL     OW58939   8.385   4.380   6.846  0.4335 -0.4061 -0.1275
50694SOL    HW158940   8.466   4.430   6.856  0.2671 -0.5022  2.1953
50694SOL    HW258941   8.315   4.445   6.857  0.0690  0.0026 -3.8134
50695SOL     OW58942   6.933   1.514  11.304  0.4914 -1.1126  0.7555
50695SOL    HW158943   6.841   1.532  11.287  0.9529 -1.2216 -2.4719
50695SOL    HW258944   6.979   1.591  11.272  1.6412 -1.8601  0.5425
50696SOL     OW58945   6.035   3.128   7.422  0.0036  0.6384  0.2899
50696SOL    HW158946   6.003   3.075   7.350  1.6738 -1.0576  0.6982
50696SOL    HW258947   6.038   3.217   7.387 -1.2347  0.2111 -0.9986
50697SOL     OW58948   5.825  10.161   2.674 -0.1020  0.0978 -0.0991
50697SOL    HW158949   5.791  10.171   2.763  3.5422 -1.0785  1.6176
50697SOL    HW258950   5.851  10.249   2.647 -1.7624  0.5560 -0.3443
50698SOL     OW58951   5.512   8.177   5.249 -0.3647  0.1429  0.1145
50698SOL    HW158952   5.544   8.201   5.336  1.0906  0.7667 -0.5611
50698SOL    HW258953   5.575   8.217   5.188 -0.3579 -1.7151 -1.1841
50699SOL     OW58954   7.117   3.154   0.570  0.4556 -0.2964  0.1205
50699SOL    HW158955   7.186   3.221   0.574 -0.5637  0.7609  1.3072
50699SOL    HW258956   7.142   3.090   0.637  1.1973 -0.8956 -0.7042
50700SOL     OW58957   0.861   2.665   5.137  0.7601  0.2877  0.0730
50700SOL    HW158958   0.900   2.739   5.184  0.7225  1.5009 -1.6929
50700SOL    HW258959   0.767   2.685   5.135  0.8105  0.5198 -0.8761
50701SOL     OW58960   5.211   4.560   7.021 -0.5760 -0.2082  0.0818
50701SOL    HW158961   5.232   4.467   7.031 -0.2402  0.1029  3.2978
50701SOL    HW258962   5.115   4.563   7.022 -0.5913 -0.5240 -0.2900
50702SOL     OW58963   5.298  11.820  12.463  0.5054  0.4823 -0.2457
50702SOL    HW158964   5.336  11.815  12.375  0.5985 -1.9730 -0.1350
50702SOL    HW258965   5.205  11.837  12.448 -0.0539 -2.7334 -1.0646
50703SOL     OW58966   4.577   7.235   8.738 -0.3057 -0.7123 -0.5631
50703SOL    HW158967   4.512   7.250   8.670 -0.9444  1.4926  0.4505
50703SOL    HW258968   4.595   7.322   8.774  1.5550 -1.5494  0.6923
50704SOL     OW58969   2.520   7.272   1.131  0.4336 -0.4709  0.5911
50704SOL    HW158970   2.537   7.273   1.037  0.4864  1.2765  0.6012
50704SOL    HW258971   2.605   7.253   1.171  1.2601  2.3937  0.3956
50705SOL     OW58972   9.881   4.451   5.417  0.1037 -0.2217 -0.1215
50705SOL    HW158973   9.793   4.483   5.438 -0.5350 -1.8738 -0.0916
50705SOL    HW258974   9.917   4.424   5.502 -0.0786 -1.1934 -0.3395
50706SOL     OW58975   5.154   7.963   9.628  0.8102 -0.1424  0.6871
50706SOL    HW158976   5.110   7.880   9.650  0.8399 -0.9543 -1.9862
50706SOL    HW258977   5.089   8.030   9.646 -0.0314 -0.9583  0.7648
50707SOL     OW58978   9.502  10.983   5.668 -0.1294 -0.0400  0.6642
50707SOL    HW158979   9.546  10.997   5.584  0.9045 -0.2922  1.1512
50707SOL    HW258980   9.448  11.062   5.680  0.3982  0.4048  0.1812
50708SOL     OW58981   2.407   0.945   2.719  0.7867 -0.1725 -0.4443
50708SOL    HW158982   2.419   1.015   2.783 -2.5918  2.7304 -2.6132
50708SOL    HW258983   2.485   0.950   2.663  0.3253  2.4318 -0.9475
50709SOL     OW58984   0.409   1.786   2.778 -0.0003  0.5699 -0.1300
50709SOL    HW158985   0.382   1.861   2.725  2.3337  2.7342  1.5170
50709SOL    HW258986   0.499   1.805   2.803  0.4327 -2.4309  1.0790
50710SOL     OW58987   3.494   5.702   2.171  0.2350 -0.0884 -0.2653
50710SOL    HW158988   3.442   5.775   2.138  0.3424  0.2428  0.2740
50710SOL    HW258989   3.545   5.740   2.243 -0.1281 -0.8229  0.3999
50711SOL     OW58990   3.716   5.550   0.671  0.5487 -0.2420 -0.3593
50711SOL    HW158991   3.636   5.501   0.650 -2.0158  2.7681  1.6025
50711SOL    HW258992   3.734   5.529   0.762  1.0362  0.3855 -0.3070
50712SOL     OW58993   9.779   1.658   6.627  0.1236  0.4257  0.1886
50712SOL    HW158994   9.724   1.588   6.661  0.8575  0.6308  1.8775
50712SOL    HW258995   9.738   1.682   6.544 -1.9358  0.1363  1.0582
50713SOL     OW58996  11.704  10.161   3.205  0.3404  0.1624  0.2092
50713SOL    HW158997  11.737  10.182   3.118  1.1841  0.6419  0.6312
50713SOL    HW258998  11.661  10.076   3.195  1.0122 -0.1021 -0.5233
50714SOL     OW58999  12.357   5.163   2.795  0.2260 -0.3166  0.2191
50714SOL    HW159000  12.263   5.147   2.804  0.2655 -2.0788 -1.8666
50714SOL    HW259001  12.398   5.080   2.816  0.8748 -1.3982 -4.3013
50715SOL     OW59002   9.146   6.064   8.689 -0.3104 -0.0978  0.5910
50715SOL    HW159003   9.154   6.110   8.773 -0.7034 -0.5362  0.8775
50715SOL    HW259004   9.173   6.128   8.624  1.5315 -0.2311  1.1541
50716SOL     OW59005  12.488   2.963   9.547  0.1805 -0.7435  0.2409
50716SOL    HW159006  12.540   3.043   9.540  0.6396 -0.7336  2.6499
50716SOL    HW259007  12.423   2.983   9.615 -0.9575 -1.8104 -0.4805
50717SOL     OW59008   0.991   4.618   4.306  0.0394 -0.3892 -0.3810
50717SOL    HW159009   0.951   4.628   4.392  1.2047 -1.5148  0.3300
50717SOL    HW259010   0.953   4.688   4.253  0.2903  1.1866  1.4191
50718SOL     OW59011  12.289   8.275   8.372 -0.0553  0.3757  0.0551
50718SOL    HW159012  12.316   8.190   8.407  0.0932  0.9572  1.4120
50718SOL    HW259013  12.260   8.256   8.283 -1.1397 -1.2950  0.7210
50719SOL     OW59014   2.500   8.872   2.880 -0.2030 -0.6269 -0.2564
50719SOL    HW159015   2.463   8.840   2.798 -0.2370 -0.9000 -0.1363
50719SOL    HW259016   2.425   8.906   2.929 -0.3207 -1.3208  0.0506
50720SOL     OW59017   3.693   0.816  10.762  0.0102 -0.5865  0.0662
50720SOL    HW159018   3.690   0.872  10.685  0.5278 -0.3390  0.2206
50720SOL    HW259019   3.733   0.871  10.830  1.0242 -1.3010  0.0783
50721SOL     OW59020   4.354   1.676   0.636  0.2853  0.3273 -0.5736
50721SOL    HW159021   4.298   1.695   0.711  1.8159  0.1869  0.6653
50721SOL    HW259022   4.294   1.642   0.569 -0.9046 -1.4208  1.2497
50722SOL     OW59023   8.920   2.624   4.125  0.5553 -0.5997  0.3612
50722SOL    HW159024   8.915   2.653   4.216  0.4355 -0.9107  0.4555
50722SOL    HW259025   8.839   2.655   4.085  0.5796 -0.5162  0.3767
50723SOL     OW59026   4.915   2.431  10.708  0.3239 -1.0074  0.1103
50723SOL    HW159027   4.832   2.451  10.750  0.6082  0.0495  0.2232
50723SOL    HW259028   4.944   2.516  10.672  1.2985 -1.3710 -0.0021
50724SOL     OW59029   7.358   5.292   8.603  0.1452  0.2822  0.4428
50724SOL    HW159030   7.330   5.384   8.598 -0.6491 -0.0063 -1.1357
50724SOL    HW259031   7.315   5.258   8.680 -2.4622  0.3533 -0.8866
50725SOL     OW59032   3.799  11.314   4.826  0.0894 -0.5184 -0.2674
50725SOL    HW159033   3.722  11.277   4.870  0.9072 -0.9079  0.8797
50725SOL    HW259034   3.762  11.380   4.767 -1.0385  0.7903  1.7620
50726SOL     OW59035   7.228  12.324  10.121 -0.6043  0.4212  0.2841
50726SOL    HW159036   7.281  12.336  10.042  0.8984 -2.1028  0.7925
50726SOL    HW259037   7.219  12.412  10.157 -0.6893  1.5500 -2.2537
50727SOL     OW59038  11.439  10.576   1.307 -0.2447 -0.2257 -0.5509
50727SOL    HW159039  11.418  10.519   1.381  0.3049 -0.1205 -0.3058
50727SOL    HW259040  11.373  10.644   1.309  0.8629  0.8656  1.0257
50728SOL     OW59041   9.941  10.187   2.895 -0.1447 -0.4345 -0.1925
50728SOL    HW159042   9.895  10.136   2.827  0.6051 -0.5775 -0.6000
50728SOL    HW259043   9.874  10.246   2.929 -1.3654 -2.4666  1.1060
50729SOL     OW59044   7.704   3.242   2.615  0.1392 -0.2573 -1.1044
50729SOL    HW159045   7.643   3.275   2.681  0.0908 -2.3552 -0.0002
50729SOL    HW259046   7.791   3.259   2.652  0.1092 -1.6570 -0.3226
50730SOL     OW59047   6.281   7.478   5.997  0.6446 -0.5362 -0.4211
50730SOL    HW159048   6.286   7.420   6.073  2.4204 -0.7294 -0.6269
50730SOL    HW259049   6.275   7.566   6.034  1.3856 -0.6370 -0.0431
50731SOL     OW59050   5.200   0.678  10.334  0.3935  0.1664 -0.2842
50731SOL    HW159051   5.178   0.586  10.347 -1.9953  0.9764  2.3080
50731SOL    HW259052   5.237   0.706  10.417  0.4908  1.6968 -0.8105
50732SOL     OW59053   0.707   8.287   8.235 -0.3726  0.4265  0.6083
50732SOL    HW159054   0.617   8.316   8.254 -0.4860 -1.0893  2.8607
50732SOL    HW259055   0.762   8.348   8.283 -0.1515  1.4272 -0.8695
50733SOL     OW59056   1.640   1.114   4.812  0.6028  0.8235 -0.1373
50733SOL    HW159057   1.677   1.179   4.871 -0.4072  0.5510  0.8174
50733SOL    HW259058   1.666   1.030   4.849 -0.5200  0.6414  0.2649
50734SOL     OW59059  11.500   3.954   7.170  0.5468  0.2399  0.6105
50734SOL    HW159060  11.405   3.956   7.183  0.7170  0.6716  1.9249
50734SOL    HW259061  11.525   4.046   7.164  0.9899  0.1637  1.1835
50735SOL     OW59062   1.587   2.467   6.487 -0.1876  0.3544 -0.5179
50735SOL    HW159063   1.497   2.436   6.495  0.0127 -0.0563  0.1846
50735SOL    HW259064   1.638   2.409   6.543  0.3056  1.4665  0.2174
50736SOL     OW59065   8.094   9.767  10.461 -0.0992  0.4236 -0.3949
50736SOL    HW159066   8.029   9.744  10.528  1.8941 -0.3094  1.4136
50736SOL    HW259067   8.147   9.836  10.501  2.4024 -1.4195 -0.2757
50737SOL     OW59068  11.109   2.398   2.454  1.0301  0.7677 -0.5759
50737SOL    HW159069  11.031   2.343   2.449  1.5126  0.1991 -3.0691
50737SOL    HW259070  11.182   2.335   2.455  1.5210  1.3067 -1.4360
50738SOL     OW59071   2.157  11.314   5.924  0.2191  0.2679 -0.0625
50738SOL    HW159072   2.230  11.257   5.901 -0.1652  0.0416 -0.7458
50738SOL    HW259073   2.109  11.327   5.842  0.0614  1.2343  0.1679
50739SOL     OW59074   2.463   4.262   7.812  0.1661  0.3559  0.1304
50739SOL    HW159075   2.396   4.217   7.865  0.2198  0.2614  0.1176
50739SOL    HW259076   2.416   4.335   7.772 -0.2810 -0.5373 -1.0331
50740SOL     OW59077   6.480   8.041   4.847 -0.7827  0.1220  0.3317
50740SOL    HW159078   6.438   8.057   4.762 -1.0452  1.7062  0.7206
50740SOL    HW259079   6.423   7.978   4.891 -2.2685  1.4942  0.4532
50741SOL     OW59080  11.931   1.988   1.600  0.0573 -0.0494  0.2154
50741SOL    HW159081  11.997   1.919   1.591  0.3876  0.1208  1.2792
50741SOL    HW259082  11.968   2.063   1.555  0.6810  0.0999  0.9662
50742SOL     OW59083   3.690   5.426   9.749 -0.4163 -0.0322  0.1428
50742SOL    HW159084   3.759   5.439   9.813  0.2960 -1.6043 -0.2484
50742SOL    HW259085   3.632   5.361   9.789 -1.2946  0.7510  0.1723
50743SOL     OW59086   4.910   8.289  12.182 -0.1255 -0.0885 -0.2290
50743SOL    HW159087   4.849   8.218  12.161  0.7251 -1.4671  1.6991
50743SOL    HW259088   4.902   8.301  12.276 -0.7989  2.9825 -0.5620
50744SOL     OW59089   1.784  11.075   9.219 -0.6371 -0.0794  0.4545
50744SOL    HW159090   1.800  11.153   9.272 -1.1045 -0.4426  1.1318
50744SOL    HW259091   1.850  11.080   9.149 -0.6154  0.8793  0.5301
50745SOL     OW59092   8.840  10.804   7.704  0.1431  0.6795  0.1224
50745SOL    HW159093   8.790  10.877   7.740  0.2660  0.7081  0.2315
50745SOL    HW259094   8.884  10.841   7.627 -0.7297  0.4323 -0.5202
50746SOL     OW59095  11.109   4.466   3.036 -0.1241 -0.8289  0.1871
50746SOL    HW159096  11.141   4.537   2.980  0.0125 -1.5783 -0.7081
50746SOL    HW259097  11.116   4.501   3.125 -1.0667  0.6777 -0.2903
50747SOL     OW59098   1.827   1.053   3.117 -0.1421  0.3877 -0.7221
50747SOL    HW159099   1.910   1.099   3.105 -1.1522  2.4804 -0.1648
50747SOL    HW259100   1.780   1.066   3.034  1.0513 -3.1547 -2.1393
50748SOL     OW59101   1.641   0.107  10.610 -0.0375 -0.3040  0.6448
50748SOL    HW159102   1.671   0.046  10.543 -1.8614 -2.1552  1.4261
50748SOL    HW259103   1.699   0.092  10.684  0.2565 -0.2197  0.4355
50749SOL     OW59104   9.255   5.296   9.651  0.7660  0.0423  0.2735
50749SOL    HW159105   9.346   5.319   9.672  2.1698 -2.6756 -2.1565
50749SOL    HW259106   9.262   5.217   9.597 -2.8942  1.2500 -2.3490
50750SOL     OW59107   4.176   4.447   0.829  0.3472  0.1178 -0.1496
50750SOL    HW159108   4.096   4.424   0.781 -0.4500 -1.3680  1.7439
50750SOL    HW259109   4.225   4.365   0.835  1.4040  0.7290 -0.1649
50751SOL     OW59110   2.123   3.179   1.787 -0.1952 -0.0587 -0.5922
50751SOL    HW159111   2.096   3.271   1.787  0.6527  0.3728  3.4012
50751SOL    HW259112   2.215   3.180   1.811  0.2336 -1.9466 -1.9207
50752SOL     OW59113   8.787  11.165   2.921  0.3389  0.6876  0.3632
50752SOL    HW159114   8.863  11.108   2.917 -0.7724 -0.8984  0.7148
50752SOL    HW259115   8.749  11.162   2.833 -0.2384  0.1052  0.6198
50753SOL     OW59116  10.168   5.485   9.164  0.5854 -0.0432  0.2095
50753SOL    HW159117  10.224   5.425   9.212 -0.0402 -0.0230  0.9749
50753SOL    HW259118  10.131   5.542   9.231 -1.4831 -0.9688 -0.1019
50754SOL     OW59119   1.203   2.982   4.977  0.2012 -0.3480 -0.6340
50754SOL    HW159120   1.178   2.948   4.892 -0.1138 -0.2438 -0.5835
50754SOL    HW259121   1.174   3.073   4.977 -0.6807 -0.6147 -0.0559
50755SOL     OW59122   3.133  11.064   2.824  0.4142  0.2976 -0.1093
50755SOL    HW159123   3.154  11.123   2.896  1.9653 -0.0306 -0.2480
50755SOL    HW259124   3.155  10.977   2.857  1.3140  0.1626 -1.0215
50756SOL     OW59125  12.064   1.231   1.224  0.1611 -0.5064  0.8107
50756SOL    HW159126  11.980   1.212   1.266  0.0032  0.7874  1.1119
50756SOL    HW259127  12.129   1.218   1.293  0.1138 -0.5150  0.8538
50757SOL     OW59128   6.608   7.347   6.792 -0.0462  0.5582  0.1797
50757SOL    HW159129   6.563   7.270   6.758 -0.1217  0.1114  1.2476
50757SOL    HW259130   6.694   7.345   6.750  0.7974 -1.3824  1.8284
50758SOL     OW59131   6.739   6.467   7.739  0.4210 -0.3596 -0.2961
50758SOL    HW159132   6.824   6.466   7.694  0.6795  1.0271  0.1014
50758SOL    HW259133   6.674   6.458   7.669  0.8866 -1.0179 -0.6476
50759SOL     OW59134   8.598   7.974   9.698  0.0334 -0.0198  0.7275
50759SOL    HW159135   8.512   7.992   9.735 -0.3538 -0.5985  0.1307
50759SOL    HW259136   8.613   8.045   9.636 -1.0079 -1.0778 -0.8073
50760SOL     OW59137   4.586   5.245   6.714 -0.2251 -0.1496  0.3067
50760SOL    HW159138   4.519   5.248   6.781 -0.4103 -1.9814  0.2528
50760SOL    HW259139   4.607   5.152   6.704  0.5605  0.1592 -1.4133
50761SOL     OW59140   9.592   9.961   8.207  0.0846  0.5360  0.2537
50761SOL    HW159141   9.543   9.997   8.134  0.6838 -0.1228 -0.4889
50761SOL    HW259142   9.589   9.866   8.194  0.1115  0.4059  1.1381
50762SOL     OW59143   3.101   0.838   5.411 -0.4455 -0.3158 -0.1899
50762SOL    HW159144   3.021   0.890   5.414 -0.4965 -0.3801 -0.4132
50762SOL    HW259145   3.156   0.874   5.480 -0.4809  0.0356 -0.3451
50763SOL     OW59146   6.576   3.925  12.125  0.3580  0.3856  0.0271
50763SOL    HW159147   6.503   3.895  12.071  0.5850 -0.4561  0.1784
50763SOL    HW259148   6.653   3.913  12.069  0.4084  1.0793 -0.0577
50764SOL     OW59149   2.103   0.816   6.686  0.0189  0.8351 -0.1253
50764SOL    HW159150   2.184   0.811   6.636 -0.3086 -0.2533 -0.5955
50764SOL    HW259151   2.050   0.881   6.639  0.1359  0.6232 -0.5557
50765SOL     OW59152   4.127   8.353  11.427 -0.2257  0.4283  0.4660
50765SOL    HW159153   4.061   8.415  11.459 -0.0817  0.7055  0.2351
50765SOL    HW259154   4.210   8.392  11.454 -0.0923  0.7365 -0.3474
50766SOL     OW59155   8.683   1.436   3.706 -0.1439 -0.4054  0.1852
50766SOL    HW159156   8.774   1.420   3.730 -0.0286 -0.9335 -0.5931
50766SOL    HW259157   8.672   1.393   3.621 -0.8982  0.3534 -0.1084
50767SOL     OW59158   1.402   9.240   2.056  0.1604  0.2260  0.4194
50767SOL    HW159159   1.452   9.193   1.990 -0.9818 -0.3794 -0.0463
50767SOL    HW259160   1.383   9.175   2.123 -1.3798 -0.0057 -0.1983
50768SOL     OW59161   1.028  11.893  10.138  0.6259  0.0773 -0.4719
50768SOL    HW159162   1.070  11.979  10.127  3.0896 -0.4734  3.1154
50768SOL    HW259163   1.001  11.891  10.229  1.7753 -3.3856 -0.0842
50769SOL     OW59164  10.829   8.850   6.756 -0.4148 -0.0005 -0.3607
50769SOL    HW159165  10.842   8.854   6.851  1.8591 -0.2935 -0.5986
50769SOL    HW259166  10.743   8.809   6.746  0.2969 -2.2029  1.5905
50770SOL     OW59167   6.001   8.763  10.478  0.4930  0.2264 -0.1516
50770SOL    HW159168   6.059   8.702  10.524  0.8419 -0.7476 -1.7939
50770SOL    HW259169   5.929   8.708  10.445 -1.0129  1.2843  1.1948
50771SOL     OW59170  11.656   8.400   0.065  0.7156 -0.4552  0.4043
50771SOL    HW159171  11.716   8.430  -0.003  1.4217 -0.8561  0.8494
50771SOL    HW259172  11.640   8.477   0.119  0.4188 -0.2206 -0.0145
50772SOL     OW59173  11.036  11.958   3.886 -0.3808  0.3625  0.2946
50772SOL    HW159174  11.118  11.973   3.840 -0.8969  0.7353 -0.5327
50772SOL    HW259175  11.060  11.902   3.960  0.8377  1.6400  0.9015
50773SOL     OW59176   4.174   4.382   7.678  0.4394  0.0774  0.0601
50773SOL    HW159177   4.237   4.385   7.606  2.4346  0.1383  1.7187
50773SOL    HW259178   4.217   4.330   7.745 -0.4446  1.7384  2.0187
50774SOL     OW59179   9.969   4.095   9.857  0.3977 -0.3871  0.0767
50774SOL    HW159180   9.898   4.088   9.921  1.2910 -2.2249  0.9554
50774SOL    HW259181  10.001   4.185   9.866 -0.0544 -0.3495  1.6397
50775SOL     OW59182  11.992   8.611   3.932 -0.3274 -0.6417  0.5884
50775SOL    HW159183  11.965   8.696   3.896  0.9680  0.3684  1.8987
50775SOL    HW259184  11.974   8.549   3.861 -0.0210  0.9189 -0.9368
50776SOL     OW59185   6.872   1.702   7.585  0.1756  0.1171  0.1954
50776SOL    HW159186   6.924   1.724   7.662  0.7254 -1.6266  0.3641
50776SOL    HW259187   6.785   1.736   7.604  1.2516  3.4816 -0.2705
50777SOL     OW59188   4.800   2.764   4.529  0.1205  0.6508 -0.2888
50777SOL    HW159189   4.809   2.807   4.614  1.2373 -1.4887  0.7561
50777SOL    HW259190   4.706   2.751   4.518 -0.2258  2.9230 -0.4850
50778SOL     OW59191   9.314   7.080   7.935 -1.2780  0.0420  0.1474
50778SOL    HW159192   9.314   7.054   7.842 -1.7214 -0.6740  0.3429
50778SOL    HW259193   9.299   7.174   7.933 -2.0400 -0.0779 -0.4869
50779SOL     OW59194   0.281  10.405   2.312 -0.4099 -0.5487  0.6225
50779SOL    HW159195   0.338  10.455   2.370 -0.8104  1.5806 -0.6960
50779SOL    HW259196   0.198  10.399   2.358 -0.3524  0.0371  0.8112
50780SOL     OW59197  10.361   3.075   4.759 -0.3493 -0.5391 -0.0684
50780SOL    HW159198  10.364   3.160   4.715 -1.8706 -0.1699  0.4736
50780SOL    HW259199  10.282   3.033   4.725 -0.9985 -0.6669  1.4813
50781SOL     OW59200   7.661  12.528   7.068  0.3985 -0.3995 -0.3883
50781SOL    HW159201   7.569  12.529   7.042  0.1690  0.1381  0.4135
50781SOL    HW259202   7.663  12.575   7.152  1.3086 -0.9467 -0.0874
50782SOL     OW59203   1.346   6.431  11.729 -0.5235  0.0484  0.1932
50782SOL    HW159204   1.270   6.397  11.775  1.5561  0.5512  4.4749
50782SOL    HW259205   1.412   6.362  11.738  0.4136  0.7642 -0.8711
50783SOL     OW59206   4.906  12.472   6.061  0.1583  0.0825 -0.4416
50783SOL    HW159207   4.820  12.478   6.019  0.0301  1.8495  0.0097
50783SOL    HW259208   4.899  12.396   6.119 -0.5158 -0.8181 -1.6561
50784SOL     OW59209   8.630   6.856   3.875 -0.2162 -0.1244 -0.4702
50784SOL    HW159210   8.694   6.798   3.834  1.3760  1.4094 -0.2987
50784SOL    HW259211   8.625   6.931   3.816  0.1321  0.9275  0.7780
50785SOL     OW59212   0.726   6.474   3.575 -0.4227 -0.4190 -0.5248
50785SOL    HW159213   0.736   6.569   3.572  0.2448 -0.4330  0.4221
50785SOL    HW259214   0.790   6.441   3.511  0.5552 -0.2640  0.3391
50786SOL     OW59215   6.327   5.276  10.253  0.5941 -0.2524 -0.3109
50786SOL    HW159216   6.312   5.301  10.162 -0.5750  1.7796  0.3824
50786SOL    HW259217   6.422   5.269  10.260  0.6778 -1.8518 -1.9785
50787SOL     OW59218   5.008   9.993   9.325  0.2135  0.0875 -0.2555
50787SOL    HW159219   5.066   9.933   9.279  2.4631  1.1472  1.0221
50787SOL    HW259220   4.983  10.057   9.259  0.7415 -0.2469 -0.7915
50788SOL     OW59221   9.685   0.095  10.597  0.1282  0.0733  0.3918
50788SOL    HW159222   9.609   0.044  10.568  1.0538 -0.8889 -0.4130
50788SOL    HW259223   9.657   0.186  10.587 -0.8280 -0.2567 -0.1376
50789SOL     OW59224  11.582   9.972   7.756  0.2093 -0.1845 -0.4227
50789SOL    HW159225  11.564   9.878   7.754  1.5221 -0.5149  1.1325
50789SOL    HW259226  11.675   9.979   7.736 -0.2254  0.9683 -2.2464
50790SOL     OW59227   5.249   9.058   7.165 -0.1460 -0.0217  0.5679
50790SOL    HW159228   5.257   9.015   7.251  0.7090  1.5472  1.3110
50790SOL    HW259229   5.339   9.072   7.136 -0.4277 -0.1911 -0.4211
50791SOL     OW59230   8.044  10.155  12.559 -0.1830 -0.0347  0.0166
50791SOL    HW159231   8.025  10.181  12.469 -0.4502  0.1667  0.1304
50791SOL    HW259232   8.133  10.120  12.555 -0.0793  0.2549 -0.2717
50792SOL     OW59233   9.309   8.117   5.803  0.0042 -0.1882  0.4419
50792SOL    HW159234   9.267   8.077   5.726  1.5201 -1.9457  0.4528
50792SOL    HW259235   9.384   8.164   5.767 -2.3137  3.8860  0.2900
50793SOL     OW59236   7.319   1.921   5.869  0.0353  0.0998 -0.1395
50793SOL    HW159237   7.231   1.951   5.847  0.1085 -0.8047 -1.8145
50793SOL    HW259238   7.308   1.829   5.892  0.4301  0.2168  0.5475
50794SOL     OW59239   4.121   1.690  12.442  0.0780 -0.3038  0.3017
50794SOL    HW159240   4.075   1.708  12.360 -1.7540  0.3432  1.4005
50794SOL    HW259241   4.211   1.670  12.416 -0.2899  0.5413 -1.7886
50795SOL     OW59242   5.175   4.068   9.177  0.1084  0.1899 -0.3727
50795SOL    HW159243   5.087   4.033   9.188  0.6223 -0.4280  3.1147
50795SOL    HW259244   5.165   4.162   9.189 -0.1924  0.2263 -0.9052
50796SOL     OW59245   1.127   2.963   4.046  0.7757  0.2341 -0.6267
50796SOL    HW159246   1.065   3.031   4.020  3.3012  2.0408 -2.3206
50796SOL    HW259247   1.115   2.955   4.141 -2.0000  0.4483 -0.8692
50797SOL     OW59248  10.556  11.743  12.414  0.3406  0.1832 -0.4598
50797SOL    HW159249  10.550  11.697  12.330 -1.1756  0.0667 -0.3050
50797SOL    HW259250  10.605  11.683  12.471 -1.1910 -1.0560 -0.4019
50798SOL     OW59251   4.792   4.069   8.184  0.2718  0.1531 -0.6558
50798SOL    HW159252   4.764   4.075   8.275  2.1527 -0.8790  0.0370
50798SOL    HW259253   4.741   3.996   8.148 -2.5385  2.2830 -1.3144
50799SOL     OW59254   1.921   8.831  11.346 -0.0826  0.4319 -0.1742
50799SOL    HW159255   1.987   8.887  11.307  1.6536 -0.9728  0.6140
50799SOL    HW259256   1.961   8.744  11.349 -1.5071 -0.2433  1.4199
50800SOL     OW59257   2.196   0.798   3.290 -0.3302 -0.5298 -0.0968
50800SOL    HW159258   2.261   0.733   3.316  1.8174  1.9101  1.0219
50800SOL    HW259259   2.225   0.830   3.205 -1.2271 -0.7876 -0.5176
50801SOL     OW59260   3.376   1.059  10.097 -0.0434 -0.0369 -0.1168
50801SOL    HW159261   3.414   1.145  10.080  2.3109 -1.1356 -1.0122
50801SOL    HW259262   3.334   1.035  10.014  1.5422 -0.7239 -0.7809
50802SOL     OW59263   0.265   2.682  12.553  0.4266  0.3294  0.1601
50802SOL    HW159264   0.266   2.609  12.615  0.3643  0.5900  0.4709
50802SOL    HW259265   0.310   2.648  12.476  0.5785  0.0270  0.3790
50803SOL     OW59266   0.656   4.910   6.302 -0.0503  0.4340  0.1249
50803SOL    HW159267   0.605   4.990   6.316 -0.6721 -0.2941  2.4122
50803SOL    HW259268   0.605   4.861   6.237 -1.2860  0.5748  0.9475
50804SOL     OW59269   0.120   0.728  11.002 -0.3675  0.7253  0.1210
50804SOL    HW159270   0.036   0.753  10.963  1.3391  3.0681 -2.4265
50804SOL    HW259271   0.153   0.809  11.041  0.3932 -0.3572  1.8197
50805SOL     OW59272   6.207   4.459   7.740  0.9701 -0.0773 -0.0930
50805SOL    HW159273   6.237   4.371   7.715  0.5807  0.3725 -2.4019
50805SOL    HW259274   6.112   4.457   7.726  0.8857  0.5642  0.3454
50806SOL     OW59275   3.910   3.395   4.128  0.5517  0.5073 -0.2607
50806SOL    HW159276   3.844   3.374   4.194  1.3346 -0.1642  0.3196
50806SOL    HW259277   3.895   3.488   4.109  0.0052  0.5901  0.5053
50807SOL     OW59278   4.405   2.018  12.195  0.0544 -0.3399  0.4585
50807SOL    HW159279   4.485   2.061  12.162 -0.5089  1.3328  1.1860
50807SOL    HW259280   4.437   1.938  12.237  1.4078  0.5000  1.1010
50808SOL     OW59281  12.072   7.267   9.017 -0.2404 -0.2153 -0.4055
50808SOL    HW159282  12.022   7.320   8.954  0.3049  2.0441  0.9625
50808SOL    HW259283  12.154   7.314   9.028 -1.0282  0.5447  3.3547
50809SOL     OW59284   1.089   7.351   6.445  0.9959 -0.0020  0.2558
50809SOL    HW159285   1.100   7.434   6.491  2.2591 -0.2094  0.3671
50809SOL    HW259286   1.037   7.373   6.367  1.2504  0.8770  0.3233
50810SOL     OW59287   9.591   6.556  11.717 -0.1217 -0.2424  0.5180
50810SOL    HW159288   9.529   6.582  11.785 -0.0187 -2.0336  1.3784
50810SOL    HW259289   9.541   6.496  11.661  0.1186  0.3179 -0.3083
50811SOL     OW59290   6.116   8.794   2.257  0.0076  0.4871  0.0095
50811SOL    HW159291   6.023   8.790   2.283  0.3546  0.8872  1.4181
50811SOL    HW259292   6.124   8.877   2.210 -0.6594 -0.2795 -1.5097
50812SOL     OW59293   2.148  11.312  11.219  0.7575  0.2632 -0.0919
50812SOL    HW159294   2.087  11.246  11.188 -1.6545  2.4690 -0.4551
50812SOL    HW259295   2.161  11.292  11.311 -0.1975 -0.5142 -0.1163
50813SOL     OW59296   7.654   2.968   1.466  0.1892 -0.5306 -0.6711
50813SOL    HW159297   7.695   3.045   1.506 -1.7434  0.0504  0.3380
50813SOL    HW259298   7.561   2.979   1.485 -0.0130 -4.0383  1.1130
50814SOL     OW59299   0.180   5.962   8.794  0.1419  0.0313  0.3771
50814SOL    HW159300   0.097   5.936   8.756 -0.4794  0.8484  1.1461
50814SOL    HW259301   0.217   5.880   8.829 -0.0205 -0.4405 -0.5059
50815SOL     OW59302   5.020   8.899  11.578 -0.1547 -0.0124 -0.6515
50815SOL    HW159303   4.936   8.907  11.623 -0.4557 -0.0771 -1.1856
50815SOL    HW259304   5.067   8.832  11.627  0.1243  0.9495  0.4499
50816SOL     OW59305   3.690   3.632   5.468  0.5882  0.2724 -0.4120
50816SOL    HW159306   3.718   3.575   5.396  2.6489  0.4421  0.1967
50816SOL    HW259307   3.703   3.721   5.436  0.8063  0.3599 -0.0855
50817SOL     OW59308   3.312   6.812   8.000 -0.1874  0.1611 -0.1925
50817SOL    HW159309   3.398   6.846   8.027 -0.1789  2.2391 -2.4868
50817SOL    HW259310   3.249   6.871   8.040 -0.5441 -0.7209  0.5989
50818SOL     OW59311   2.122   5.328  10.151  0.4917  0.1996  0.6393
50818SOL    HW159312   2.065   5.260  10.115 -0.7629  1.2461  0.6062
50818SOL    HW259313   2.113   5.402  10.092  2.3594  0.2163  0.3008
50819SOL     OW59314   2.110   8.760   4.993 -0.2443 -0.2564  0.2180
50819SOL    HW159315   2.064   8.720   4.920  0.6212 -0.2919 -0.3255
50819SOL    HW259316   2.043   8.810   5.039 -0.7930 -0.1692 -0.6471
50820SOL     OW59317   4.596   0.894   8.609  0.1075 -0.4027  0.1185
50820SOL    HW159318   4.568   0.870   8.698  0.2200 -0.9828 -0.0015
50820SOL    HW259319   4.599   0.811   8.562  0.1711 -0.1075 -0.3960
50821SOL     OW59320   6.750   6.407   3.336 -0.0395  0.1262  0.3474
50821SOL    HW159321   6.793   6.430   3.254 -1.3846  0.4080 -0.3098
50821SOL    HW259322   6.776   6.476   3.397  1.5253 -0.4601  0.3807
50822SOL     OW59323   3.524   7.716  10.998  0.0533  0.2606  0.5092
50822SOL    HW159324   3.469   7.639  11.009  1.0235 -0.4315  0.6512
50822SOL    HW259325   3.569   7.701  10.915  0.3365  0.6277  0.5927
50823SOL     OW59326  10.052   1.491   9.678 -0.9367 -0.2712  0.3272
50823SOL    HW159327  10.056   1.518   9.586 -0.6443 -0.2714  0.3384
50823SOL    HW259328  10.138   1.515   9.713 -0.4972 -1.6342  0.2288
50824SOL     OW59329   4.634   9.648  12.212  0.0997 -0.1728 -0.0526
50824SOL    HW159330   4.592   9.669  12.296  1.0560 -1.5187  0.8101
50824SOL    HW259331   4.719   9.693  12.216  1.1361 -2.0655  0.7682
50825SOL     OW59332   6.152   5.294  10.882  0.7577 -0.0117  0.2079
50825SOL    HW159333   6.099   5.329  10.953 -0.1936  0.4891 -0.7171
50825SOL    HW259334   6.179   5.207  10.912 -1.3441 -0.6704  0.3595
50826SOL     OW59335   5.744  11.887  10.662 -0.4815  0.0756 -0.3455
50826SOL    HW159336   5.767  11.889  10.569 -0.1327 -1.0761 -0.2974
50826SOL    HW259337   5.715  11.976  10.681 -0.1297  0.4455 -1.4464
50827SOL     OW59338   7.656   1.103   3.148  0.5946 -0.5538  0.3011
50827SOL    HW159339   7.589   1.090   3.216  0.3610  0.4728  0.2896
50827SOL    HW259340   7.612   1.080   3.066 -0.2391  1.4098  0.1261
50828SOL     OW59341   3.128  11.453   5.456  0.3478  0.2114  0.5320
50828SOL    HW159342   3.139  11.546   5.476  0.4927  0.6982 -1.5844
50828SOL    HW259343   3.033  11.441   5.453  0.3131  0.0124  1.8675
50829SOL     OW59344   3.055  10.846  12.421  0.2622  0.1548 -0.0424
50829SOL    HW159345   3.071  10.799  12.503 -0.2440  0.2739  0.1249
50829SOL    HW259346   3.087  10.786  12.353  0.7891  0.1036  0.2430
50830SOL     OW59347   3.195   4.957   2.775  0.1839 -0.4465  0.1102
50830SOL    HW159348   3.253   4.995   2.709  0.0755 -1.5204 -0.6320
50830SOL    HW259349   3.108   4.990   2.753  0.1702 -0.6880 -0.2107
50831SOL     OW59350   3.992   2.339   8.582 -0.1314  0.7695 -0.1545
50831SOL    HW159351   3.975   2.248   8.561 -0.7646 -0.0380  3.2531
50831SOL    HW259352   4.088   2.346   8.585 -0.0836  0.2274 -0.4323
50832SOL     OW59353   3.899   8.285   4.375 -0.3482 -0.5122  0.1591
50832SOL    HW159354   3.898   8.199   4.334  0.0514 -1.2607  1.6586
50832SOL    HW259355   3.810   8.318   4.366 -0.0843 -0.2818 -1.9990
50833SOL     OW59356   6.652   7.521   1.255  0.2395 -1.3990  0.2942
50833SOL    HW159357   6.681   7.430   1.257  2.3369 -0.7758  1.4923
50833SOL    HW259358   6.699   7.560   1.181  1.2714 -0.7492  1.2641
50834SOL     OW59359   9.391   3.772   6.613  0.7270  0.1404 -0.7007
50834SOL    HW159360   9.381   3.701   6.676 -0.1676  0.7762 -0.0884
50834SOL    HW259361   9.449   3.835   6.656  0.7839  0.1924 -0.8532
50835SOL     OW59362   9.881   0.515   9.849  0.3804 -0.1795 -0.1272
50835SOL    HW159363   9.927   0.437   9.878  0.3144 -0.4207 -0.6557
50835SOL    HW259364   9.795   0.509   9.890  0.5521 -0.1226  0.2415
50836SOL     OW59365   2.734   1.084  11.572 -0.2793 -0.5059  0.0368
50836SOL    HW159366   2.821   1.116  11.549  0.4338 -1.5929  1.1140
50836SOL    HW259367   2.709   1.027  11.499 -0.5278  0.5688 -0.7357
50837SOL     OW59368  11.986   3.128  10.626  0.0500  0.6572 -0.1584
50837SOL    HW159369  11.990   3.038  10.658 -1.2194  1.2562  1.8178
50837SOL    HW259370  11.972   3.181  10.704  4.6099  3.0700 -0.6522
50838SOL     OW59371   0.384   1.942   7.834  0.1103 -0.0447  0.3798
50838SOL    HW159372   0.370   1.928   7.740 -1.0795  0.7395  0.4307
50838SOL    HW259373   0.438   2.020   7.839 -0.5897  0.4466  0.3665
50839SOL     OW59374   1.828  12.558   2.921  0.1679 -0.2154 -0.1121
50839SOL    HW159375   1.848  12.639   2.969 -0.2493 -0.3828  0.3559
50839SOL    HW259376   1.748  12.579   2.872  0.8850  0.1259 -1.1671
50840SOL     OW59377   2.404   9.926   5.856  0.0341  0.2441 -0.1955
50840SOL    HW159378   2.316   9.909   5.888 -0.3993  2.4983 -0.0664
50840SOL    HW259379   2.397  10.007   5.806  2.3545  1.5083  1.3338
50841SOL     OW59380   1.311   2.217  11.984 -0.1550  0.6391 -0.3502
50841SOL    HW159381   1.394   2.261  11.966  0.0460  0.2762 -0.3156
50841SOL    HW259382   1.325   2.171  12.067  0.5940 -1.8049 -1.7347
50842SOL     OW59383   1.772   7.382   7.207  0.3576 -0.6773  0.3000
50842SOL    HW159384   1.721   7.309   7.240  0.5989 -1.4678 -0.9857
50842SOL    HW259385   1.852   7.382   7.260  0.1924 -1.1126  0.5539
50843SOL     OW59386   7.255  10.816   2.182 -0.1780 -0.3787 -0.5874
50843SOL    HW159387   7.211  10.857   2.257 -0.2537  2.1587 -1.9288
50843SOL    HW259388   7.208  10.850   2.106  1.2302 -1.2316 -1.8750
50844SOL     OW59389   9.568   3.328  12.090  0.2263 -0.2213 -0.1808
50844SOL    HW159390   9.480   3.354  12.064  0.6541  1.6523  0.0563
50844SOL    HW259391   9.619   3.331  12.008  0.2289 -0.5537 -0.1913
50845SOL     OW59392  12.159   6.562   5.859 -0.7290 -0.3647 -0.3228
50845SOL    HW159393  12.094   6.630   5.878 -0.8941 -0.1991 -1.3901
50845SOL    HW259394  12.144   6.495   5.926  0.3097  1.2068  1.5760
50846SOL     OW59395   8.316   6.131   0.632 -0.2401 -0.6113  0.2745
50846SOL    HW159396   8.368   6.122   0.712 -0.0537  0.4921  0.2892
50846SOL    HW259397   8.265   6.050   0.628  2.1769 -2.2340 -0.2748
50847SOL     OW59398   6.172  10.168  12.220  0.3331  0.2240 -0.6487
50847SOL    HW159399   6.247  10.186  12.163  0.9055 -1.8674 -0.6367
50847SOL    HW259400   6.209  10.118  12.293 -1.0275 -0.6238 -0.5090
50848SOL     OW59401   4.114   3.512   7.161 -0.2897  0.0600  0.2162
50848SOL    HW159402   4.064   3.506   7.242 -0.0524 -0.5388  0.3214
50848SOL    HW259403   4.152   3.425   7.149  0.4694  0.4111 -0.0286
50849SOL     OW59404   3.539   0.987   4.727 -0.3269 -0.0890 -0.1147
50849SOL    HW159405   3.507   0.988   4.818  0.3520  0.4635  0.1215
50849SOL    HW259406   3.634   0.985   4.735 -0.2527  0.4531 -0.8140
50850SOL     OW59407   5.635   6.717   2.120 -0.1386  0.1367  0.6934
50850SOL    HW159408   5.640   6.621   2.119 -3.2259 -0.1565  2.2137
50850SOL    HW259409   5.711   6.744   2.171  2.4803 -1.1949 -2.2036
50851SOL     OW59410   0.262   7.733   0.402  0.6688 -0.3380  0.4327
50851SOL    HW159411   0.323   7.807   0.396  1.1161 -0.5985  1.6001
50851SOL    HW259412   0.275   7.685   0.320  0.1925  0.9928 -0.4640
50852SOL     OW59413   4.573   3.651   3.641 -0.4412 -0.0034 -0.0001
50852SOL    HW159414   4.586   3.587   3.711  1.6263  0.6522  0.3018
50852SOL    HW259415   4.559   3.599   3.562  1.9983 -0.9406  0.0804
50853SOL     OW59416   6.099   8.400   7.411  0.3102 -0.6759  0.1050
50853SOL    HW159417   6.153   8.327   7.381  2.6316  0.9326  0.2093
50853SOL    HW259418   6.042   8.361   7.478  1.3654 -2.4297  0.0407
50854SOL     OW59419   4.427   6.490   5.615  0.1739  0.0955 -0.1377
50854SOL    HW159420   4.337   6.500   5.585  0.1054  1.0536  0.3447
50854SOL    HW259421   4.420   6.429   5.689  0.1685 -1.1991 -1.1809
50855SOL     OW59422  12.277   5.290  12.271 -0.2156 -0.1219 -0.1251
50855SOL    HW159423  12.247   5.333  12.191 -0.0472 -1.4343 -0.9202
50855SOL    HW259424  12.198   5.256  12.311 -0.1941 -0.3049 -0.2391
50856SOL     OW59425   6.083   1.826   6.503 -0.0191  0.6068 -0.4876
50856SOL    HW159426   6.096   1.806   6.596 -3.3418  1.5494  0.3259
50856SOL    HW259427   6.132   1.907   6.489  1.3453 -0.0776  0.1382
50857SOL     OW59428  10.361   2.502   7.496 -0.4584  0.1431 -0.0634
50857SOL    HW159429  10.402   2.440   7.556 -0.6126  0.6525  0.5874
50857SOL    HW259430  10.433   2.539   7.446 -0.3529 -0.4653 -0.3768
50858SOL     OW59431   5.430   1.103  10.687  0.4911 -0.3902 -0.3202
50858SOL    HW159432   5.479   1.178  10.720  1.3418 -0.8788 -0.4536
50858SOL    HW259433   5.340   1.118  10.717  0.8876  0.0857  0.6654
50859SOL     OW59434   3.895   6.996   1.114 -0.1994 -0.5892 -0.1261
50859SOL    HW159435   3.980   6.962   1.088  1.0231  0.1328  2.6294
50859SOL    HW259436   3.900   7.007   1.209 -1.5026  4.3383 -0.3334
50860SOL     OW59437  11.473   2.225   3.091 -0.3149  0.0029 -0.2272
50860SOL    HW159438  11.379   2.220   3.073  0.1604 -1.4189 -2.8280
50860SOL    HW259439  11.500   2.309   3.053 -0.1151 -0.8388 -2.0093
50861SOL     OW59440   0.947   8.318   6.885  0.2208 -0.8809 -0.4742
50861SOL    HW159441   0.923   8.311   6.793 -1.6000  0.6018 -0.1662
50861SOL    HW259442   0.985   8.232   6.906  0.8136 -1.2016 -2.6034
50862SOL     OW59443   5.218  12.394   6.996 -0.3510 -0.8455 -0.2349
50862SOL    HW159444   5.275  12.324   7.026 -1.1983 -0.9198  1.2793
50862SOL    HW259445   5.277  12.463   6.967  0.4937 -1.4347  0.0566
50863SOL     OW59446  10.186   2.540   4.676  0.3261 -0.2321  0.2054
50863SOL    HW159447  10.121   2.547   4.746  0.6903  0.1672  0.5161
50863SOL    HW259448  10.157   2.467   4.622 -1.1222  0.8073 -0.4652
50864SOL     OW59449   0.112   5.378  11.626  0.1337 -0.4777  0.3069
50864SOL    HW159450   0.042   5.417  11.678  0.2128 -0.0012  0.0643
50864SOL    HW259451   0.156   5.453  11.585 -1.1735 -0.8996 -2.0531
50865SOL     OW59452   7.443   0.571   0.322 -0.1708 -0.2000 -0.0320
50865SOL    HW159453   7.370   0.633   0.312  0.2522  0.2875 -0.1179
50865SOL    HW259454   7.461   0.570   0.416  1.2715  1.5043 -0.2552
50866SOL     OW59455   3.533  11.502   5.109 -0.6333  0.4338 -0.0614
50866SOL    HW159456   3.538  11.597   5.120 -0.8583  0.3189  1.0516
50866SOL    HW259457   3.473  11.472   5.176  0.3277 -0.6265  0.3650
50867SOL     OW59458   6.939   7.996   1.719 -0.7170 -0.1370  0.2522
50867SOL    HW159459   7.027   7.985   1.682 -0.0058  0.2818  1.7285
50867SOL    HW259460   6.926   8.090   1.722 -0.6817 -0.1490  1.1810
50868SOL     OW59461   1.308   7.827   0.986 -0.2290 -0.6591 -0.2075
50868SOL    HW159462   1.303   7.873   0.902 -2.2649  1.1981  0.7989
50868SOL    HW259463   1.217   7.819   1.014  0.3963 -0.9360  1.9538
50869SOL     OW59464   1.416   9.692  10.916 -0.3954 -0.4537 -0.2504
50869SOL    HW159465   1.428   9.600  10.892  0.5283 -0.9341  1.7726
50869SOL    HW259466   1.336   9.692  10.969 -0.6243 -0.0065 -0.5903
50870SOL     OW59467   6.577   1.898   5.030 -0.0925 -0.1893 -0.3517
50870SOL    HW159468   6.574   1.931   5.120  0.3653 -1.1124  0.0135
50870SOL    HW259469   6.609   1.808   5.038  1.8516  0.3235 -1.6019
50871SOL     OW59470   0.985   8.442   6.399  0.2353  0.6935 -0.1836
50871SOL    HW159471   0.902   8.466   6.358 -0.7719 -3.2871 -0.8609
50871SOL    HW259472   0.962   8.423   6.490  1.1499  2.6768  0.5345
50872SOL     OW59473   0.404   2.248   4.796  0.4592  0.3070  0.4716
50872SOL    HW159474   0.378   2.172   4.847 -1.6457 -0.8194 -2.0568
50872SOL    HW259475   0.433   2.212   4.712 -0.7316  2.2454 -0.8597
50873SOL     OW59476   4.395   4.555   4.207 -0.6883 -0.6916 -0.0079
50873SOL    HW159477   4.432   4.522   4.125 -1.0557 -1.6507  0.1967
50873SOL    HW259478   4.301   4.561   4.190 -0.4617  2.3502 -0.7397
50874SOL     OW59479   9.032   6.887   3.311 -0.5223  0.3915  0.0679
50874SOL    HW159480   8.983   6.969   3.302  0.8094  1.0173 -2.6635
50874SOL    HW259481   9.064   6.869   3.223 -0.6986 -3.0953  0.5905
50875SOL     OW59482   6.376   5.331  12.240  0.0018 -0.4238 -0.4380
50875SOL    HW159483   6.406   5.242  12.223  1.8612  0.0121  0.3229
50875SOL    HW259484   6.303   5.344  12.179  1.9369 -1.2552 -3.1050
50876SOL     OW59485   6.803   2.993   7.759 -0.2307  0.1844 -0.3094
50876SOL    HW159486   6.783   2.910   7.716  0.8251  0.1346 -0.7435
50876SOL    HW259487   6.888   2.978   7.801 -1.4323  0.0555  2.2950
50877SOL     OW59488  10.758   5.339   6.561  0.9253  0.2477 -0.4348
50877SOL    HW159489  10.815   5.376   6.629  0.2876 -0.2764  0.4011
50877SOL    HW259490  10.769   5.245   6.568 -0.3951  0.1151  0.0596
50878SOL     OW59491   4.713  10.881   1.370 -0.6801  0.1980 -0.2063
50878SOL    HW159492   4.638  10.824   1.355 -0.8491  0.7381 -1.5129
50878SOL    HW259493   4.676  10.961   1.408 -0.6791  0.1751 -0.1580
50879SOL     OW59494   4.360   2.751  12.414 -0.7820  0.5511  0.1963
50879SOL    HW159495   4.402   2.773  12.331  0.9209 -0.9972  0.5637
50879SOL    HW259496   4.355   2.834  12.461  1.6371  0.9025 -0.0240
50880SOL     OW59497   2.673   4.069   1.176  0.6627  0.1627  0.3889
50880SOL    HW159498   2.607   4.004   1.198  0.7143  0.3619  1.1763
50880SOL    HW259499   2.726   4.029   1.107  2.3638 -1.7385  2.6444
50881SOL     OW59500   6.605  12.280  11.122 -0.3724 -0.6855  0.4631
50881SOL    HW159501   6.559  12.244  11.046  1.2583 -0.4562 -0.6671
50881SOL    HW259502   6.682  12.324  11.086  0.0601  0.0723  2.1907
50882SOL     OW59503   1.053  11.532   2.521 -0.0410  0.2888  0.3941
50882SOL    HW159504   1.102  11.478   2.459 -0.7939  1.6245 -1.4659
50882SOL    HW259505   1.015  11.470   2.583  2.4802 -0.9316  0.8488
50883SOL     OW59506   4.016   9.915   2.099  0.3884 -0.2657 -0.0349
50883SOL    HW159507   4.044   9.976   2.167 -1.1756 -0.6402  1.0039
50883SOL    HW259508   4.043   9.829   2.132 -2.0791 -0.6685  1.1398
50884SOL     OW59509   8.583   6.199   6.550  0.0254 -0.1751 -0.2173
50884SOL    HW159510   8.526   6.275   6.535 -0.7003 -0.9922 -1.7390
50884SOL    HW259511   8.631   6.222   6.630  0.1913  2.1078 -0.8807
50885SOL     OW59512   1.886  11.266  11.345 -0.8677  0.4262 -0.0878
50885SOL    HW159513   1.809  11.284  11.398 -0.4558  1.3590  0.2316
50885SOL    HW259514   1.949  11.333  11.372 -0.3191  0.3326 -1.0822
50886SOL     OW59515   2.708   0.407   1.106 -0.2087 -0.0572  0.0496
50886SOL    HW159516   2.626   0.454   1.095 -0.6869 -0.7286  0.6911
50886SOL    HW259517   2.738   0.391   1.016  0.5075  2.3410 -0.2055
50887SOL     OW59518  12.417   7.644   5.369  0.2214 -0.4291 -0.2814
50887SOL    HW159519  12.334   7.690   5.362 -0.3639 -1.4542 -0.2828
50887SOL    HW259520  12.396   7.553   5.346  0.6423 -1.4397  2.8602
50888SOL     OW59521   7.307   2.969   3.014 -0.3821 -0.8287 -0.0981
50888SOL    HW159522   7.237   2.978   2.950 -1.1305  0.6151  0.8727
50888SOL    HW259523   7.353   3.053   3.013  0.5030 -1.2900  0.2337
50889SOL     OW59524   3.325   3.048   1.015 -0.0874 -0.0048  0.3060
50889SOL    HW159525   3.309   3.036   0.922 -1.6295  0.1209  0.5261
50889SOL    HW259526   3.295   2.967   1.056  0.3463  0.0362  0.7199
50890SOL     OW59527   1.060   0.920   5.732  0.3837  0.3803  0.0175
50890SOL    HW159528   1.041   0.909   5.638 -3.1980 -1.9910  0.8076
50890SOL    HW259529   1.026   1.007   5.753 -0.0040  0.3972 -0.6367
50891SOL     OW59530  12.365   4.667   4.747  0.3247 -0.4928 -0.3802
50891SOL    HW159531  12.457   4.641   4.756 -0.1179 -2.0115  0.0133
50891SOL    HW259532  12.358   4.700   4.658  1.3949  0.3246 -0.1911
50892SOL     OW59533   6.180   0.325   4.444 -0.5016  0.8021  0.2828
50892SOL    HW159534   6.269   0.302   4.467 -0.5227  0.8915  0.4491
50892SOL    HW259535   6.178   0.421   4.444 -1.1207  0.8442  2.3353
50893SOL     OW59536   0.381   7.984   3.179  0.0100  0.1734  0.4132
50893SOL    HW159537   0.352   8.045   3.111 -1.3301  0.3595  1.1419
50893SOL    HW259538   0.309   7.922   3.189  1.7234 -2.2538 -1.0496
50894SOL     OW59539   2.464   7.730   3.970 -0.4736 -0.3171  0.4907
50894SOL    HW159540   2.519   7.718   3.892  0.4877 -2.5209  1.4235
50894SOL    HW259541   2.409   7.806   3.949  1.0026  0.2745 -1.5907
50895SOL     OW59542  11.678   1.489   5.169  0.0765 -0.1583 -0.0680
50895SOL    HW159543  11.598   1.457   5.210 -0.5151 -0.5168 -1.4348
50895SOL    HW259544  11.744   1.483   5.237 -0.8947 -0.5805  0.8668
50896SOL     OW59545  10.135   7.228  10.353 -0.1707 -0.4622  0.6612
50896SOL    HW159546  10.083   7.200  10.429 -0.3416 -2.8132 -0.2222
50896SOL    HW259547  10.218   7.182  10.363  0.5764  0.8006  0.4282
50897SOL     OW59548   3.514   9.883   7.463  0.1404  0.3029 -0.5008
50897SOL    HW159549   3.519   9.962   7.516 -1.1672 -0.1306  0.2977
50897SOL    HW259550   3.436   9.894   7.410 -0.1134 -0.4988 -0.3089
50898SOL     OW59551   8.672  12.072  10.601  0.3489  0.0625 -0.2542
50898SOL    HW159552   8.734  12.144  10.586  0.2006  1.0880  3.2518
50898SOL    HW259553   8.591  12.101  10.559  0.3005  2.0260  1.0787
50899SOL     OW59554   0.584   4.374   6.018  0.0007 -0.0894 -0.3126
50899SOL    HW159555   0.664   4.425   6.021 -0.5186  0.9020 -2.0315
50899SOL    HW259556   0.514   4.439   6.017 -1.0427 -0.9077  3.1227
50900SOL     OW59557   5.876   6.495   3.753  0.0561  0.4240  0.3550
50900SOL    HW159558   5.847   6.543   3.830 -1.4541 -2.2394  1.5793
50900SOL    HW259559   5.944   6.436   3.786  1.6314  1.3783 -1.0354
50901SOL     OW59560   2.202   8.075   8.642 -0.4313 -0.0676 -0.3637
50901SOL    HW159561   2.112   8.058   8.670 -0.3136 -0.6546 -0.3095
50901SOL    HW259562   2.194   8.121   8.559 -0.7850 -0.5792 -0.6184
50902SOL     OW59563   5.524   2.527   6.911 -0.3921 -0.5903  0.5189
50902SOL    HW159564   5.562   2.514   6.824 -3.3702 -1.5258 -0.7504
50902SOL    HW259565   5.550   2.449   6.961 -0.6384 -1.2133 -0.3119
50903SOL     OW59566  11.614   0.745  10.490 -0.4112  0.5030 -0.1200
50903SOL    HW159567  11.666   0.739  10.410 -0.7992 -0.6680 -0.3140
50903SOL    HW259568  11.529   0.780  10.462 -0.2776  0.8644 -0.0781
50904SOL     OW59569   5.311   1.651  10.131  0.5985 -0.0324  0.4171
50904SOL    HW159570   5.402   1.680  10.138  0.8224 -0.2516 -1.1615
50904SOL    HW259571   5.318   1.560  10.100 -0.1413  0.5021 -1.4418
50905SOL     OW59572  10.473   0.636   3.985 -0.0707  0.3243 -0.3723
50905SOL    HW159573  10.486   0.591   4.069 -0.1456 -0.1620 -0.6158
50905SOL    HW259574  10.412   0.707   4.005 -0.1179  0.1880 -0.0216
50906SOL     OW59575  10.298   6.009   6.321  0.0650 -0.2220  0.0134
50906SOL    HW159576  10.261   5.990   6.235  1.3541 -0.2341 -0.5577
50906SOL    HW259577  10.367   5.945   6.333  0.3126  0.1737  0.7942
50907SOL     OW59578   6.146   9.775   3.733  0.0568 -0.2014 -0.0854
50907SOL    HW159579   6.105   9.720   3.667 -0.8915 -1.6859  1.6326
50907SOL    HW259580   6.221   9.723   3.764 -0.2330 -0.0992  0.8276
50908SOL     OW59581  10.564  10.245   8.633 -0.7703 -0.0820  0.0996
50908SOL    HW159582  10.578  10.187   8.558 -2.9495  1.8745 -1.9930
50908SOL    HW259583  10.653  10.269   8.661  0.1221 -1.3562 -1.4420
50909SOL     OW59584   4.731  10.516   0.865 -0.2341  0.5651 -0.1404
50909SOL    HW159585   4.817  10.475   0.865 -0.3708  0.2389  0.9014
50909SOL    HW259586   4.733  10.576   0.791  0.8789  0.5508 -0.1400
50910SOL     OW59587   9.198  11.686  11.131  0.2221 -0.1046 -0.2773
50910SOL    HW159588   9.213  11.764  11.078  0.6428  0.2718  0.3807
50910SOL    HW259589   9.240  11.615  11.082 -1.9290 -0.3180 -1.9068
50911SOL     OW59590   2.187   0.755   8.877 -0.2653  0.0515  0.2281
50911SOL    HW159591   2.269   0.722   8.840 -0.2661 -0.1052  0.3669
50911SOL    HW259592   2.214   0.821   8.941 -0.1958 -0.7672  1.0686
50912SOL     OW59593   4.088   6.508   4.213  0.0213 -0.5123  0.0892
50912SOL    HW159594   4.101   6.511   4.308 -0.4269 -0.9013  0.1646
50912SOL    HW259595   4.039   6.588   4.193 -0.2623 -0.6457  0.2462
50913SOL     OW59596   0.381   5.310   5.559  0.1317 -0.9871  0.1398
50913SOL    HW159597   0.436   5.388   5.560 -0.7864 -0.3166  0.5687
50913SOL    HW259598   0.436   5.240   5.593  0.1021  0.1082  2.6318
50914SOL     OW59599   9.814   5.361   5.396 -0.3755  0.0987 -0.9025
50914SOL    HW159600   9.882   5.350   5.330 -0.9487  0.8484 -1.6387
50914SOL    HW259601   9.823   5.285   5.454  0.2655 -0.4588 -1.7236
50915SOL     OW59602  10.145  10.065  10.430  0.2353 -0.2672  0.0261
50915SOL    HW159603  10.182   9.980  10.407 -0.3617 -0.6477  0.4423
50915SOL    HW259604  10.071  10.076  10.370  1.0759  0.5463 -0.8902
50916SOL     OW59605   1.621   2.778  11.192  0.1075 -0.3475 -0.3670
50916SOL    HW159606   1.642   2.758  11.283 -1.3967 -1.3544 -0.2074
50916SOL    HW259607   1.543   2.726  11.173 -1.3317  2.0048 -1.3490
50917SOL     OW59608  11.947  11.235   9.942  0.3872  0.0212  0.5430
50917SOL    HW159609  11.981  11.171  10.004  2.2535 -0.6047 -1.0539
50917SOL    HW259610  11.880  11.188   9.893  0.6691 -0.2294  0.4011
50918SOL     OW59611   6.817   9.406   3.134  0.1116  0.1797  0.1052
50918SOL    HW159612   6.781   9.478   3.186  0.6083  2.3031 -2.3023
50918SOL    HW259613   6.740   9.352   3.111 -0.4757  0.7072  0.7977
50919SOL     OW59614   1.970  11.633   3.159 -0.2552 -0.3416 -0.0716
50919SOL    HW159615   2.045  11.590   3.119  0.6275  0.7988  0.3222
50919SOL    HW259616   1.961  11.590   3.245  2.2033  1.8584  1.4098
50920SOL     OW59617   3.385   1.594   8.499  0.2683  0.3313 -0.2180
50920SOL    HW159618   3.356   1.612   8.410  1.0545  0.7413 -0.4034
50920SOL    HW259619   3.459   1.534   8.488 -0.3187 -0.4927  0.2237
50921SOL     OW59620   7.462   3.526   3.652 -1.1146  0.0107 -0.0341
50921SOL    HW159621   7.556   3.543   3.645 -1.1523 -0.5149 -2.8309
50921SOL    HW259622   7.435   3.575   3.730  1.4662  0.0618  0.9422
50922SOL     OW59623  10.431   4.762  10.757 -0.1766  0.0089  0.3314
50922SOL    HW159624  10.496   4.833  10.751  1.1850 -1.1496  0.8281
50922SOL    HW259625  10.426   4.742  10.850 -1.0929 -0.0710  0.2671
50923SOL     OW59626   2.324   7.824   0.626  0.2386  0.1189 -0.1273
50923SOL    HW159627   2.316   7.805   0.719  1.8042  1.1362  0.2681
50923SOL    HW259628   2.326   7.920   0.622  2.1656  0.0948 -0.9504
50924SOL     OW59629   3.345  10.465   8.012  0.0522  0.4146 -0.4982
50924SOL    HW159630   3.276  10.478   7.947 -1.4641  0.3108  1.0081
50924SOL    HW259631   3.316  10.516   8.088  2.9730  2.5648 -0.6450
50925SOL     OW59632  10.194  10.435   5.742 -0.4657  0.0888  0.1989
50925SOL    HW159633  10.131  10.391   5.685 -0.2860 -0.0139  0.0772
50925SOL    HW259634  10.251  10.483   5.682 -0.0100 -0.3633  0.2622
50926SOL     OW59635   7.523   3.760   3.071 -0.3611 -0.1323 -0.1594
50926SOL    HW159636   7.593   3.695   3.077 -0.4631 -0.3494 -1.2534
50926SOL    HW259637   7.550   3.829   3.133  0.7492 -0.2770 -0.4646
50927SOL     OW59638   9.560   3.046   0.121  0.0214  0.2760  0.1487
50927SOL    HW159639   9.560   2.954   0.097 -3.1064 -0.0049  0.8026
50927SOL    HW259640   9.597   3.091   0.044 -1.3712 -1.2813 -1.5157
50928SOL     OW59641   8.109   0.677   1.379  0.2354 -0.2210  0.1709
50928SOL    HW159642   8.109   0.680   1.474 -0.1923 -0.2631  0.1759
50928SOL    HW259643   8.089   0.586   1.358  0.2626 -0.1975  0.0435
50929SOL     OW59644   2.769   0.311   8.187 -0.1596 -0.0343 -0.0492
50929SOL    HW159645   2.767   0.224   8.148  0.9854 -0.4988  0.8486
50929SOL    HW259646   2.846   0.353   8.149  0.9352 -0.4715  1.5599
50930SOL     OW59647   3.356   9.176  10.433  0.1852 -0.0239  0.2695
50930SOL    HW159648   3.309   9.135  10.506 -0.0911 -0.5003 -0.1662
50930SOL    HW259649   3.445   9.190  10.466 -0.1159  0.3841  0.9186
50931SOL     OW59650   9.724   1.564   1.727  0.5666 -0.3421  0.3171
50931SOL    HW159651   9.654   1.585   1.789  1.4531 -2.8432  2.3600
50931SOL    HW259652   9.693   1.487   1.681  1.1052 -0.2060 -0.2824
50932SOL     OW59653   4.532   2.615   8.635 -0.2654 -0.1292 -0.2545
50932SOL    HW159654   4.517   2.530   8.592  1.9248 -1.7440  1.8752
50932SOL    HW259655   4.484   2.608   8.718  1.6845 -0.2543  0.9163
50933SOL     OW59656   1.902   4.212   4.757 -0.1271  0.0076 -0.4581
50933SOL    HW159657   1.959   4.288   4.746 -0.7676  0.4284 -0.9501
50933SOL    HW259658   1.927   4.152   4.687  0.2080 -0.1275 -0.2239
50934SOL     OW59659   8.120  11.130  11.336  0.1690  0.3006 -0.1783
50934SOL    HW159660   8.121  11.133  11.241  1.0717 -0.5696 -0.2031
50934SOL    HW259661   8.047  11.187  11.361  1.6529  2.8373 -1.2803
50935SOL     OW59662   3.200   1.366   5.558 -0.1504  0.4758  0.1210
50935SOL    HW159663   3.260   1.358   5.484 -1.4983  0.1702 -0.9797
50935SOL    HW259664   3.145   1.442   5.537 -2.1022 -1.0004 -0.4010
50936SOL     OW59665  12.426   3.989   4.849  0.0973  0.5130  0.4046
50936SOL    HW159666  12.373   3.913   4.826 -0.7372  1.2185 -0.1198
50936SOL    HW259667  12.396   4.014   4.936 -2.2707  2.3349 -0.7930
50937SOL     OW59668   5.158  11.938   0.189 -0.1942 -0.1859  0.2638
50937SOL    HW159669   5.123  11.850   0.178 -0.5717  0.0205 -0.2255
50937SOL    HW259670   5.126  11.987   0.113 -0.1798  0.4339  0.6481
50938SOL     OW59671   6.383  12.077   3.584  0.1529 -0.2646  0.1589
50938SOL    HW159672   6.305  12.132   3.574 -0.1460 -0.8620 -0.9525
50938SOL    HW259673   6.352  11.999   3.629 -0.3869 -1.4181 -2.0549
50939SOL     OW59674   2.371   2.323   1.404  0.2475 -0.6983 -0.0660
50939SOL    HW159675   2.394   2.231   1.403 -2.0379 -1.3603 -1.9705
50939SOL    HW259676   2.428   2.363   1.338  1.0878 -0.7589  0.6075
50940SOL     OW59677  11.185   4.983   4.726  0.4908  0.9518 -0.4033
50940SOL    HW159678  11.152   5.070   4.701  0.0906  0.5823 -1.1928
50940SOL    HW259679  11.150   4.968   4.814  0.6511  1.6288 -0.2170
50941SOL     OW59680  11.408   7.840  10.458  0.2782 -0.0709 -0.1375
50941SOL    HW159681  11.323   7.835  10.414 -2.2425  1.3495  3.9522
50941SOL    HW259682  11.444   7.924  10.430 -0.8431  0.4224 -0.1846
50942SOL     OW59683   7.824   6.385   0.204  0.7860  0.0771  0.0813
50942SOL    HW159684   7.880   6.377   0.281  0.9090  1.4473  0.1541
50942SOL    HW259685   7.819   6.296   0.169  2.3947 -0.2146  0.4967
50943SOL     OW59686   9.154   2.775   9.665  0.6781  0.0135  0.4339
50943SOL    HW159687   9.088   2.713   9.632  0.7565 -0.4638  1.1499
50943SOL    HW259688   9.105   2.830   9.727  1.1337 -0.9615  1.7036
50944SOL     OW59689   3.954   1.474   0.624 -0.1680  0.3766 -0.2252
50944SOL    HW159690   4.038   1.440   0.654 -0.2885  1.0735  0.9564
50944SOL    HW259691   3.891   1.405   0.647  0.1526 -0.4786 -1.7942
50945SOL     OW59692   8.266   8.844   2.844 -0.1457 -0.5672 -0.0493
50945SOL    HW159693   8.349   8.796   2.847  0.7795  0.9969  2.1193
50945SOL    HW259694   8.200   8.779   2.869  0.3580 -1.8316 -1.8124
50946SOL     OW59695   3.640   0.218  11.107  0.0131  0.1337  0.5460
50946SOL    HW159696   3.605   0.215  11.018  1.4722  0.9954 -0.0883
50946SOL    HW259697   3.652   0.312  11.125 -3.3679  0.3256  2.9737
50947SOL     OW59698   8.775   3.126   1.676  0.3545 -0.2329  0.5033
50947SOL    HW159699   8.682   3.122   1.698 -0.5275  0.5883 -2.5809
50947SOL    HW259700   8.784   3.205   1.623  2.6065 -0.8790 -0.1879
50948SOL     OW59701   8.257   3.794   1.636  0.0987  0.4538  0.1905
50948SOL    HW159702   8.194   3.864   1.651 -1.3923 -0.6674 -0.5875
50948SOL    HW259703   8.273   3.758   1.724 -0.2284  0.8384  0.4137
50949SOL     OW59704   3.692   1.718  11.288 -0.0975 -0.2335 -0.0670
50949SOL    HW159705   3.761   1.660  11.321 -0.5466 -0.2628  0.8614
50949SOL    HW259706   3.615   1.695  11.340 -0.9463 -0.5425 -1.4326
50950SOL     OW59707   8.451   6.785  10.727  0.1718  0.7371  0.1944
50950SOL    HW159708   8.458   6.775  10.822 -2.5462 -1.2561  0.3300
50950SOL    HW259709   8.539   6.807  10.698  1.6661 -1.0966  2.9085
50951SOL     OW59710   5.488   3.729  11.347  0.3140  0.9922 -0.2192
50951SOL    HW159711   5.508   3.786  11.421 -0.9016  0.9865  0.1395
50951SOL    HW259712   5.443   3.787  11.285 -1.3698  0.3530  0.3535
50952SOL     OW59713   5.469   1.398   6.874 -0.4440 -0.5844 -0.2141
50952SOL    HW159714   5.473   1.314   6.919  0.2741 -0.7281 -0.5361
50952SOL    HW259715   5.512   1.382   6.790 -0.9424 -0.0781 -0.5710
50953SOL     OW59716   0.358   4.336  10.336 -0.4510  0.6575  0.0110
50953SOL    HW159717   0.297   4.311  10.407 -1.1579  0.0313 -0.7965
50953SOL    HW259718   0.399   4.416  10.368  1.3759 -1.0748  2.4007
50954SOL     OW59719   4.982  10.933  10.267 -0.2573 -0.1103 -0.6544
50954SOL    HW159720   5.019  10.849  10.295 -1.2610 -0.3940 -0.1178
50954SOL    HW259721   4.900  10.940  10.315 -0.1108  1.2754 -0.5624
50955SOL     OW59722   3.408   8.369  11.108  0.6712  0.1789  0.4033
50955SOL    HW159723   3.426   8.399  11.197 -0.9835 -1.6881  1.4596
50955SOL    HW259724   3.318   8.335  11.113  0.5116  0.1134 -2.0206
50956SOL     OW59725   1.621  11.998   9.780  0.0508 -0.2504  0.0442
50956SOL    HW159726   1.626  12.065   9.848 -0.6700  0.5903 -0.7247
50956SOL    HW259727   1.689  12.022   9.717 -1.2041  0.6502 -1.0050
50957SOL     OW59728   3.724   6.569   4.778  0.1287  0.4864  0.2716
50957SOL    HW159729   3.809   6.607   4.799 -0.0056  0.4716  0.8529
50957SOL    HW259730   3.668   6.594   4.851 -0.4421  0.7313 -0.2427
50958SOL     OW59731   0.733   7.763   5.336  0.1988  0.5368  0.1150
50958SOL    HW159732   0.768   7.824   5.271  1.0798 -0.9640 -0.8735
50958SOL    HW259733   0.669   7.710   5.287 -0.0959  0.2438  0.8028
50959SOL     OW59734   0.761   5.827   5.364 -0.2040 -0.0134 -0.7799
50959SOL    HW159735   0.777   5.830   5.458  2.7729 -0.0807 -1.2032
50959SOL    HW259736   0.683   5.881   5.352 -1.4236 -1.0333  1.8178
50960SOL     OW59737   6.426   7.343   0.804  0.4244 -0.3356 -0.4801
50960SOL    HW159738   6.357   7.326   0.739 -0.6024  1.0850  0.1796
50960SOL    HW259739   6.422   7.438   0.817  1.2787 -0.4814  0.9395
50961SOL     OW59740   0.611  10.719  10.293 -0.3203  0.0228  0.1425
50961SOL    HW159741   0.678  10.747  10.356 -0.6385  1.0210  0.0482
50961SOL    HW259742   0.529  10.752  10.328 -0.5879  0.0211 -0.4712
50962SOL     OW59743   3.224   9.572   7.522  0.1538 -0.1542 -0.2415
50962SOL    HW159744   3.182   9.509   7.463 -2.1776 -1.0355  2.1691
50962SOL    HW259745   3.178   9.561   7.606  3.3324  0.9532  1.8187
50963SOL     OW59746   8.765   5.987   7.429  0.3482 -0.4516 -0.3084
50963SOL    HW159747   8.675   5.964   7.406 -0.1641  0.7511  0.4544
50963SOL    HW259748   8.757   6.054   7.496  1.8222 -0.5343 -0.0150
50964SOL     OW59749   0.550   4.735   8.162  0.2371 -0.0786  0.3411
50964SOL    HW159750   0.607   4.658   8.174 -0.0748 -0.5632 -1.0784
50964SOL    HW259751   0.473   4.716   8.217  0.0576 -0.9059 -0.1747
50965SOL     OW59752   6.996  11.735   0.926  0.0874  0.2263 -0.3776
50965SOL    HW159753   6.956  11.699   0.847 -1.2365 -0.0899  0.3963
50965SOL    HW259754   6.999  11.661   0.987  0.3801  0.6500  0.1272
50966SOL     OW59755   0.638   1.490   4.185 -0.8396  0.1855  0.0067
50966SOL    HW159756   0.575   1.512   4.116  0.0172 -0.5277 -1.0382
50966SOL    HW259757   0.723   1.495   4.142 -0.3410 -1.2414  0.7587
50967SOL     OW59758   3.538  11.772  10.535 -0.3440 -0.7785  0.0765
50967SOL    HW159759   3.469  11.784  10.470 -0.9695  2.1342  1.1324
50967SOL    HW259760   3.616  11.752  10.483 -0.9879  0.6623 -1.5354
50968SOL     OW59761   7.018   9.602   4.707  0.1717 -0.7654 -0.6259
50968SOL    HW159762   6.931   9.577   4.739 -0.0128 -0.4427 -0.8739
50968SOL    HW259763   7.046   9.528   4.653  1.3758 -2.2968  1.9047
50969SOL     OW59764  12.183   5.030   3.017 -0.2294  0.5395  0.6463
50969SOL    HW159765  12.167   4.957   3.077 -1.7962 -0.4977 -0.9325
50969SOL    HW259766  12.274   5.017   2.988 -0.4358 -0.7415  0.4814
50970SOL     OW59767   1.414   6.148  11.700  0.4999 -0.0229 -0.2645
50970SOL    HW159768   1.416   6.166  11.794  2.6250 -0.5953 -0.1544
50970SOL    HW259769   1.322   6.127  11.682 -0.0404  0.5607  1.5714
50971SOL     OW59770   4.567   7.467  11.739 -0.2083 -0.0666 -0.0016
50971SOL    HW159771   4.588   7.377  11.761  1.2294 -0.3469 -2.1830
50971SOL    HW259772   4.553   7.466  11.644  0.1414  2.0358 -0.1256
50972SOL     OW59773   5.762  10.355  10.278 -0.2599 -0.0103  0.3008
50972SOL    HW159774   5.714  10.437  10.265  0.2185  0.1400 -0.6523
50972SOL    HW259775   5.719  10.293  10.219 -0.4539 -0.3846  0.8278
50973SOL     OW59776   7.118  12.141   7.538  0.1829 -0.2167 -0.3304
50973SOL    HW159777   7.162  12.078   7.482  1.7680  0.6387 -0.0997
50973SOL    HW259778   7.125  12.104   7.626  1.5235  0.4488 -0.1280
50974SOL     OW59779  11.141   4.414  11.722 -0.6291  0.2091 -0.4436
50974SOL    HW159780  11.212   4.391  11.663 -0.1717  2.2157 -0.7394
50974SOL    HW259781  11.161   4.367  11.803 -0.3592 -1.2372 -1.3128
50975SOL     OW59782   0.517   6.956   2.238  0.2997 -0.2778  0.3033
50975SOL    HW159783   0.448   6.981   2.177 -0.6009 -2.1090  0.5015
50975SOL    HW259784   0.492   6.993   2.322  0.5388  0.6231 -0.0186
50976SOL     OW59785   1.090   2.077   4.423 -0.2536 -0.4340  0.4583
50976SOL    HW159786   1.122   1.999   4.469  0.2876  0.0988  1.0043
50976SOL    HW259787   1.041   2.042   4.349  1.1697 -1.2903 -0.1155
50977SOL     OW59788   9.973   2.357   8.126  0.6033 -0.1259  0.2958
50977SOL    HW159789   9.886   2.318   8.134  0.6842 -0.4431 -0.3592
50977SOL    HW259790   9.960   2.448   8.152 -0.1536  0.1056 -0.8257
50978SOL     OW59791   1.581   5.131   8.479 -0.6449 -0.4842 -0.2095
50978SOL    HW159792   1.522   5.063   8.511 -0.1976 -1.1396 -0.7609
50978SOL    HW259793   1.637   5.151   8.554 -0.9095 -0.5705  0.0146
50979SOL     OW59794   4.050   4.286   6.285 -0.5189 -0.4836  0.0170
50979SOL    HW159795   3.985   4.219   6.264 -0.2288 -1.8998  3.0684
50979SOL    HW259796   4.125   4.237   6.320  1.2531  1.2538 -1.1455
50980SOL     OW59797   9.736   2.127   5.498  0.1335  0.4744  0.1307
50980SOL    HW159798   9.822   2.112   5.536 -0.3821 -0.7581  0.8871
50980SOL    HW259799   9.745   2.208   5.448  1.7058  0.3949  0.2412
50981SOL     OW59800   4.870   7.819   2.408  0.0776  0.5793 -0.1194
50981SOL    HW159801   4.873   7.736   2.361 -0.6896 -1.0236  2.4624
50981SOL    HW259802   4.944   7.869   2.374 -1.0909  0.1203 -3.8133
50982SOL     OW59803   5.549   4.948   9.575  0.5998 -0.1775  0.2498
50982SOL    HW159804   5.555   4.884   9.645 -1.2575  0.2776  0.8585
50982SOL    HW259805   5.504   4.903   9.504 -1.3227  0.6011  0.9250
50983SOL     OW59806   7.322   3.997   1.819 -0.0012  0.4461 -0.5487
50983SOL    HW159807   7.349   3.932   1.754  0.4871  0.5958 -0.4932
50983SOL    HW259808   7.250   4.044   1.776 -0.5394 -0.2926 -0.4926
50984SOL     OW59809   1.066   6.151   3.315  0.2144 -0.1177  0.2562
50984SOL    HW159810   1.121   6.128   3.390  0.0058  1.3981  0.9220
50984SOL    HW259811   1.093   6.240   3.293 -0.3283 -0.2355 -0.9299
50985SOL     OW59812   6.730   1.261   7.574 -0.0450  0.1988 -0.2503
50985SOL    HW159813   6.773   1.175   7.568  0.3802  0.4582 -0.9220
50985SOL    HW259814   6.696   1.277   7.486  0.7465  1.1720 -0.3865
50986SOL     OW59815   3.669   3.634   6.306 -0.7779  0.2292 -0.0419
50986SOL    HW159816   3.696   3.717   6.268 -1.2566  0.5428  0.2902
50986SOL    HW259817   3.725   3.569   6.263 -0.3987  0.7172 -0.3013
50987SOL     OW59818   8.743   2.177  10.680  0.1495 -0.1674 -0.2878
50987SOL    HW159819   8.725   2.111  10.612  0.5361  0.3299 -0.8835
50987SOL    HW259820   8.732   2.261  10.636 -1.4469  0.2111  0.7544
50988SOL     OW59821   9.597  12.129   3.477  0.1698 -0.1434  0.4107
50988SOL    HW159822   9.543  12.084   3.412  0.5835  1.3307 -1.0104
50988SOL    HW259823   9.536  12.187   3.523 -0.2790 -1.7437  1.9487
50989SOL     OW59824   7.332  11.404   7.883 -0.1735 -0.3436  0.2971
50989SOL    HW159825   7.356  11.353   7.805  0.2800  0.6963 -0.2626
50989SOL    HW259826   7.239  11.388   7.893 -0.3850  0.0043 -0.8627
50990SOL     OW59827   7.463   1.970  10.730  0.3114 -0.1445  0.3093
50990SOL    HW159828   7.369   1.971  10.713  0.4605 -1.4953 -0.8432
50990SOL    HW259829   7.500   1.925  10.654  1.8191 -0.3050  1.1011
50991SOL     OW59830   2.421   7.176   9.973  0.9079 -0.3446 -0.7045
50991SOL    HW159831   2.425   7.114   9.900  0.8442 -0.2316 -0.8053
50991SOL    HW259832   2.339   7.154  10.017  1.0212 -0.5122 -0.5761
50992SOL     OW59833   1.386   0.779  10.245 -0.1481  0.1889  0.2043
50992SOL    HW159834   1.356   0.800  10.157  0.5558  3.4279  0.6071
50992SOL    HW259835   1.309   0.740  10.288 -0.0935 -2.8782 -2.1215
50993SOL     OW59836   1.084   4.226  11.665  0.4935  0.3411 -0.0497
50993SOL    HW159837   1.130   4.150  11.629  0.6305 -0.1066  1.0195
50993SOL    HW259838   1.005   4.189  11.707  0.6941  0.7429  0.7099
50994SOL     OW59839   9.156   4.577   0.074 -0.1494  0.0544  0.2522
50994SOL    HW159840   9.068   4.616   0.069  0.2149  1.0019  1.0819
50994SOL    HW259841   9.163   4.545   0.163 -0.6177 -2.4330 -0.5235
50995SOL     OW59842  11.283   9.918  12.357  0.0505 -0.3118 -0.7702
50995SOL    HW159843  11.234   9.869  12.424 -1.2900  1.3156 -0.4736
50995SOL    HW259844  11.341   9.975  12.407 -0.5004  0.4528 -0.9722
50996SOL     OW59845   8.740  12.203   0.980  0.0597 -0.1885 -0.0645
50996SOL    HW159846   8.708  12.258   0.909  1.2187  1.1598  0.4157
50996SOL    HW259847   8.811  12.152   0.941  0.7280  0.5866  0.1041
50997SOL     OW59848   5.746   2.518  12.362  0.3281 -0.1607 -0.5032
50997SOL    HW159849   5.807   2.566  12.305  1.1237 -2.0450 -1.3022
50997SOL    HW259850   5.799   2.449  12.401 -0.5232  0.2806  1.5571
50998SOL     OW59851   0.414  11.344   9.031  0.2728 -0.0790 -0.4685
50998SOL    HW159852   0.426  11.353   9.125  0.8136  0.9288 -0.6190
50998SOL    HW259853   0.463  11.417   8.993  4.0776 -2.9796 -1.8209
50999SOL     OW59854   5.073  11.229   4.143  0.4347  0.8674  0.0961
50999SOL    HW159855   5.021  11.275   4.077  1.1179  0.1036 -1.0035
50999SOL    HW259856   5.157  11.212   4.100  0.6015 -0.3891  0.8697
51000SOL     OW59857   3.329   3.529  10.858  0.5965  0.3085 -0.2726
51000SOL    HW159858   3.247   3.479  10.855  1.2008 -0.7610  0.3100
51000SOL    HW259859   3.327   3.583  10.779 -0.5099  0.0362 -0.4464
51001SOL     OW59860   4.126   0.800   3.277 -0.1023  0.5012  0.0698
51001SOL    HW159861   4.065   0.739   3.318  0.0722  1.2237  1.4826
51001SOL    HW259862   4.072   0.877   3.255  0.1075  0.7672  0.4673
51002SOL     OW59863   6.832   6.614   6.844 -0.3137  0.5405  0.4279
51002SOL    HW159864   6.768   6.590   6.911 -0.1698 -2.2726 -0.3226
51002SOL    HW259865   6.793   6.582   6.762  1.0123  0.9035 -0.3677
51003SOL     OW59866   6.440  10.559   9.509  0.2200 -0.0364 -0.2316
51003SOL    HW159867   6.392  10.629   9.465  0.4232 -0.8177 -1.7859
51003SOL    HW259868   6.458  10.593   9.596  2.1014  2.6834 -1.5625
51004SOL     OW59869   1.539   1.518   9.424 -0.3140 -0.0596  0.3611
51004SOL    HW159870   1.500   1.567   9.352  1.7152  0.7350 -0.2805
51004SOL    HW259871   1.531   1.427   9.399 -1.7617  0.0657  0.2973
51005SOL     OW59872  10.742   8.393   9.915 -0.4695 -0.4337 -0.6187
51005SOL    HW159873  10.785   8.450   9.979 -1.5942 -0.3865  0.1220
51005SOL    HW259874  10.762   8.304   9.945 -0.1343 -0.4176 -0.7952
51006SOL     OW59875   5.892   9.239  11.046  0.5227 -0.8362 -0.7916
51006SOL    HW159876   5.814   9.286  11.017  0.5323  0.4947  1.1830
51006SOL    HW259877   5.965   9.291  11.014  0.6776 -2.1708 -2.7840
51007SOL     OW59878   3.260   5.475   5.353  0.3565 -0.3421  0.1922
51007SOL    HW159879   3.241   5.426   5.433 -0.8437 -2.1475 -1.1192
51007SOL    HW259880   3.350   5.449   5.331  0.2461 -0.8203  0.2881
51008SOL     OW59881   9.366   5.743   3.359  0.2341  0.2512 -0.3115
51008SOL    HW159882   9.370   5.811   3.427  1.1306 -0.7987  0.7340
51008SOL    HW259883   9.441   5.761   3.302  0.6767 -0.0417  0.1658
51009SOL     OW59884  10.234   6.840   8.979  0.6566  0.4450 -0.7510
51009SOL    HW159885  10.206   6.817   8.890 -0.7992 -2.9333  0.4159
51009SOL    HW259886  10.316   6.793   8.991  1.0302  1.1760 -0.3719
51010SOL     OW59887   9.304  12.434   0.376  0.3181 -0.0020 -0.5112
51010SOL    HW159888   9.374  12.462   0.316  0.1054 -0.8552 -1.1925
51010SOL    HW259889   9.331  12.346   0.402  0.1298  0.1611  0.2323
51011SOL     OW59890  10.245   7.168  12.069 -0.0718  0.6821 -0.2253
51011SOL    HW159891  10.264   7.147  11.978 -1.0416 -1.8699  0.0663
51011SOL    HW259892  10.318   7.222  12.098  1.1544  0.0611 -2.0294
51012SOL     OW59893  10.043  10.431   3.238  0.2098  0.2492  0.8501
51012SOL    HW159894   9.951  10.444   3.260  0.3709  1.8931  0.6550
51012SOL    HW259895  10.086  10.513   3.262  1.5848 -0.3823  0.6702
51013SOL     OW59896   9.092   8.920   4.104 -0.4717 -0.2549 -0.1141
51013SOL    HW159897   9.152   8.846   4.111 -1.0182 -0.6322  0.7997
51013SOL    HW259898   9.008   8.881   4.080 -0.9977 -0.0698  1.3130
51014SOL     OW59899   5.969   0.253   9.221  0.2548 -0.7003 -0.0946
51014SOL    HW159900   5.976   0.188   9.292  0.4640 -1.7794 -1.0617
51014SOL    HW259901   6.032   0.223   9.156  0.4755  0.6020 -0.4895
51015SOL     OW59902  10.167   9.711   9.723 -0.2583 -0.6522 -0.2847
51015SOL    HW159903  10.256   9.708   9.759 -1.6860  0.1062  3.8570
51015SOL    HW259904  10.154   9.803   9.699 -0.0467 -0.6947 -0.5644
51016SOL     OW59905   5.293   6.487   8.593 -0.6774 -0.5168 -0.5561
51016SOL    HW159906   5.331   6.562   8.548 -1.8011 -0.2776 -1.1469
51016SOL    HW259907   5.211   6.520   8.630 -0.8674 -1.2850 -0.2789
51017SOL     OW59908   8.837  12.189   9.998 -0.3550  0.4270 -0.0834
51017SOL    HW159909   8.920  12.167   9.957 -0.5546 -1.1217  0.2847
51017SOL    HW259910   8.771  12.164   9.934 -0.5719  1.0625 -0.1168
51018SOL     OW59911   2.176   6.318   6.552  0.2989 -0.5657 -0.7285
51018SOL    HW159912   2.171   6.409   6.581  0.0359 -0.8326  0.0748
51018SOL    HW259913   2.146   6.267   6.627  1.3110 -1.3725 -0.8528
51019SOL     OW59914   6.528   8.868   2.954  0.1001  0.1178 -0.2304
51019SOL    HW159915   6.515   8.834   2.865  1.0125 -1.0148  0.0424
51019SOL    HW259916   6.447   8.846   3.000  0.3937 -1.1062 -0.2572
51020SOL     OW59917  11.644   1.941   0.413  0.4548  0.2054 -0.1889
51020SOL    HW159918  11.678   1.950   0.324 -0.3995 -0.5095 -0.6053
51020SOL    HW259919  11.608   2.027   0.434  0.6633  0.3771 -0.5360
51021SOL     OW59920   5.839   0.693   2.046  0.2852 -0.4476 -0.1518
51021SOL    HW159921   5.833   0.748   1.968 -0.5003 -1.2588 -0.6732
51021SOL    HW259922   5.789   0.741   2.113  0.3332 -0.1163 -0.3488
51022SOL     OW59923   6.245   1.111   6.736 -0.0475  0.0327 -0.5377
51022SOL    HW159924   6.152   1.091   6.726  0.1250 -0.3303 -1.5568
51022SOL    HW259925   6.276   1.124   6.647  0.5738  1.6119 -0.1199
51023SOL     OW59926   2.497  12.083  11.753 -0.1855 -0.1607 -0.0116
51023SOL    HW159927   2.566  12.040  11.704 -0.4528 -1.7915  0.9563
51023SOL    HW259928   2.433  12.014  11.770 -0.9563  0.7693  1.0478
51024SOL     OW59929  12.487   6.396   0.752  0.3006 -0.2338  0.0102
51024SOL    HW159930  12.403   6.386   0.796 -1.2345  1.2705 -2.4214
51024SOL    HW259931  12.522   6.307   0.747 -0.4192 -0.7191  2.2437
51025SOL     OW59932   4.941   2.539   4.352 -0.7226 -0.1425 -0.6090
51025SOL    HW159933   4.869   2.585   4.395 -0.3740 -0.0848 -0.0706
51025SOL    HW259934   4.904   2.508   4.269 -1.1000  0.7009 -0.7695
51026SOL     OW59935   0.695   9.964   0.469 -0.2099 -0.0768 -0.0590
51026SOL    HW159936   0.702   9.989   0.561 -1.2385  0.5866 -0.1532
51026SOL    HW259937   0.763   9.897   0.457  1.8357  1.8008  0.4893
51027SOL     OW59938  10.191  10.020  11.355 -0.2039 -0.4950  0.2035
51027SOL    HW159939  10.199  10.014  11.450  0.0521  0.4289  0.2441
51027SOL    HW259940  10.098  10.039  11.340  0.1348  1.5587  0.4073
51028SOL     OW59941   7.710   5.204   1.185  0.3007  0.3130  0.3342
51028SOL    HW159942   7.635   5.220   1.242  0.2895 -0.9680  0.7278
51028SOL    HW259943   7.685   5.126   1.135  1.5367 -0.4235  0.8092
51029SOL     OW59944  10.083   5.828  10.223  0.5263  0.0162 -0.0395
51029SOL    HW159945  10.132   5.824  10.140 -0.0132 -2.1020 -0.3177
51029SOL    HW259946  10.150   5.814  10.290  0.8475  0.8983 -0.1710
51030SOL     OW59947   8.433   6.893   9.624 -0.8021  0.4222  0.0912
51030SOL    HW159948   8.371   6.849   9.564 -0.7716 -1.3593  1.2855
51030SOL    HW259949   8.379   6.921   9.697 -0.2887 -0.9335  1.0320
51031SOL     OW59950   1.865   6.281   0.606  0.1384 -0.3344 -0.3815
51031SOL    HW159951   1.793   6.337   0.636  0.2671 -0.7373  0.7472
51031SOL    HW259952   1.892   6.319   0.523  0.3897  1.4684  0.4603
51032SOL     OW59953   3.751   8.186  11.913  0.4720 -0.6050 -0.0928
51032SOL    HW159954   3.745   8.109  11.970 -1.0558 -0.2001  0.3466
51032SOL    HW259955   3.706   8.160  11.833  1.0136 -0.5601 -0.4160
51033SOL     OW59956   3.373   4.008   3.726 -0.5945  1.2216 -0.0257
51033SOL    HW159957   3.365   3.959   3.644 -3.8287  0.0479  0.8735
51033SOL    HW259958   3.303   4.073   3.722  0.0873  2.0657  1.2371
51034SOL     OW59959   8.707   8.892  10.484  0.4910 -0.4426 -0.2251
51034SOL    HW159960   8.639   8.838  10.524 -1.2322  2.0279  0.3830
51034SOL    HW259961   8.743   8.944  10.556  1.7577 -0.4038 -0.8574
51035SOL     OW59962   1.112   9.387   2.522  0.3572  0.4578  0.1381
51035SOL    HW159963   1.075   9.454   2.579 -1.5005  0.1590 -0.6345
51035SOL    HW259964   1.202   9.376   2.552  0.0650  1.8099  1.6055
51036SOL     OW59965   1.551   6.823  10.540 -0.2155  0.0255  0.0224
51036SOL    HW159966   1.509   6.752  10.491 -0.9045  0.2819  0.2223
51036SOL    HW259967   1.621   6.780  10.589 -0.5739 -0.5124  0.0781
51037SOL     OW59968   1.225  10.972   8.697  0.3490 -0.9504  0.1710
51037SOL    HW159969   1.163  10.990   8.768 -1.1444 -0.0055 -1.2793
51037SOL    HW259970   1.266  11.057   8.679 -2.1417 -0.1299 -2.5629
51038SOL     OW59971   1.779   1.669   5.817 -0.4245  0.0711  0.2144
51038SOL    HW159972   1.707   1.628   5.769 -0.1039 -1.5924  1.1073
51038SOL    HW259973   1.831   1.712   5.749 -1.4937  0.1200 -0.5955
51039SOL     OW59974   7.746   2.764   7.827  0.4254 -0.3195  0.3261
51039SOL    HW159975   7.726   2.683   7.780  1.2258 -1.2365  1.4865
51039SOL    HW259976   7.791   2.734   7.907 -1.8126  1.0444  2.2256
51040SOL     OW59977  10.715   6.063   2.546  0.2736  0.1968 -0.3760
51040SOL    HW159978  10.703   6.097   2.635 -0.4337 -0.1401 -0.3320
51040SOL    HW259979  10.696   5.969   2.554 -0.4157  0.2722 -0.9921
51041SOL     OW59980   7.121   9.817   9.102  0.3884 -0.3271 -0.3526
51041SOL    HW159981   7.130   9.879   9.174  2.7142  0.5802 -1.3503
51041SOL    HW259982   7.158   9.735   9.136 -0.2118 -0.4232  0.0761
51042SOL     OW59983  12.543   2.735  12.287 -0.0108 -0.0856  0.4740
51042SOL    HW159984  12.498   2.739  12.202 -0.7298 -3.0938  0.5864
51042SOL    HW259985  12.474   2.713  12.350  0.8148  0.2811  1.5428
51043SOL     OW59986   0.466   9.064  12.556  0.0905 -0.6646  0.5004
51043SOL    HW159987   0.381   9.059  12.599 -0.6281 -1.1834 -0.9114
51043SOL    HW259988   0.448   9.102  12.470  1.6953  1.8208  1.1433
51044SOL     OW59989  12.398   8.803   7.273 -0.3186 -0.0101  0.9782
51044SOL    HW159990  12.455   8.872   7.306 -0.1519  0.4546 -0.2326
51044SOL    HW259991  12.411   8.730   7.333  2.5600 -0.4002  0.0102
51045SOL     OW59992   9.091   5.464   2.531 -0.0036 -0.1575 -0.1878
51045SOL    HW159993   9.026   5.410   2.487  0.9786 -1.4076 -0.1615
51045SOL    HW259994   9.109   5.418   2.613  0.0702  0.7790  0.3349
51046SOL     OW59995   6.582   4.139   7.590  0.3893 -0.1929 -0.4429
51046SOL    HW159996   6.487   4.138   7.581  0.4179  2.0089 -1.6862
51046SOL    HW259997   6.598   4.152   7.684 -0.5270 -0.6421 -0.2238
51047SOL     OW59998   4.400   5.938   8.544  0.0412 -0.0063 -0.3188
51047SOL    HW159999   4.441   6.016   8.581  0.0024  0.8836 -2.0322
51047SOL    HW260000   4.439   5.929   8.456 -1.8000 -0.4095 -1.1475
51048SOL     OW60001   3.397   1.836  10.538  0.5897 -0.1827 -0.9062
51048SOL    HW160002   3.486   1.830  10.503  0.8383  0.0451 -0.3322
51048SOL    HW260003   3.396   1.775  10.612  0.4240  0.1879 -0.5961
51049SOL     OW60004  10.118   1.921   0.814  0.3910  0.0778  0.0390
51049SOL    HW160005  10.127   2.015   0.832 -0.7202  0.4707 -1.2842
51049SOL    HW260006  10.024   1.909   0.798  0.3559 -1.4648  1.1412
51050SOL     OW60007   3.224   6.654  10.230 -0.1189  0.4359 -0.5941
51050SOL    HW160008   3.248   6.562  10.244 -1.6682  0.0486 -0.2570
51050SOL    HW260009   3.155   6.670  10.295 -0.0296  1.7683 -0.8109
51051SOL     OW60010  12.553  11.394   8.244 -0.3974  0.3429 -0.3352
51051SOL    HW160011  12.611  11.461   8.206  0.4524  0.0967  0.4816
51051SOL    HW260012  12.500  11.442   8.308  2.4243 -0.1474  2.6776
51052SOL     OW60013  11.267   1.787  11.444  0.5603  0.6111  0.2210
51052SOL    HW160014  11.297   1.787  11.534  0.5821  2.3941  0.2427
51052SOL    HW260015  11.346   1.796  11.391  0.5965 -0.8756 -0.0409
51053SOL     OW60016  10.203  12.416   9.581 -0.3536  0.2653 -0.3145
51053SOL    HW160017  10.214  12.346   9.518  4.1734 -2.0187  2.4972
51053SOL    HW260018  10.272  12.478   9.561  1.1293 -0.4618  2.0946
51054SOL     OW60019   8.074   2.310  10.841  0.4623 -0.1303 -0.0981
51054SOL    HW160020   8.129   2.371  10.792  0.8694  0.0805  0.6166
51054SOL    HW260021   8.071   2.232  10.786 -0.2761  0.6137 -1.1454
51055SOL     OW60022   8.990   8.521   7.895 -1.0693  0.0712 -0.0752
51055SOL    HW160023   8.919   8.477   7.940 -1.0630 -1.6411 -1.6191
51055SOL    HW260024   8.950   8.557   7.815 -0.3183 -0.5667 -0.7637
51056SOL     OW60025   3.646  12.161   0.887  0.0503  0.3097  0.2074
51056SOL    HW160026   3.722  12.212   0.916  0.1118  1.7836 -2.2857
51056SOL    HW260027   3.669  12.132   0.799 -1.6252 -0.7013  0.0689
51057SOL     OW60028  11.081   4.595  10.947  0.5664 -0.3114  0.7563
51057SOL    HW160029  11.032   4.628  10.873 -0.1069 -0.6956  1.0192
51057SOL    HW260030  11.166   4.640  10.943 -0.2932  1.4146  1.1000
51058SOL     OW60031   6.392   5.958   1.998 -0.0014  0.4109  0.5285
51058SOL    HW160032   6.393   6.012   1.919  2.2542  0.3197  0.4225
51058SOL    HW260033   6.399   6.020   2.070 -3.5938  0.6193  0.8741
51059SOL     OW60034   2.236   6.238   7.361 -0.1179  0.1160  0.1340
51059SOL    HW160035   2.331   6.250   7.371 -0.1814 -0.4058  1.6287
51059SOL    HW260036   2.201   6.252   7.449 -1.1514 -2.1137  0.1399
51060SOL     OW60037  11.247   5.575   8.002 -0.4767 -0.5341 -0.1915
51060SOL    HW160038  11.255   5.624   8.084 -0.1362  1.2536 -1.2359
51060SOL    HW260039  11.177   5.512   8.019 -1.8647  1.1680  0.8515
51061SOL     OW60040   9.178   1.952   1.170  0.3203  0.1147 -0.2654
51061SOL    HW160041   9.121   1.883   1.202  2.1864 -0.7601  1.4440
51061SOL    HW260042   9.188   1.934   1.077  0.7465 -1.9863  0.1251
51062SOL     OW60043   1.456  11.142  10.005 -0.0767 -0.2458  0.4449
51062SOL    HW160044   1.420  11.230  10.007  3.1318  1.1868  1.3241
51062SOL    HW260045   1.534  11.148   9.949 -0.4366 -2.8617 -0.5151
51063SOL     OW60046   9.879   5.285   0.344  0.1918 -0.0217 -0.3689
51063SOL    HW160047   9.914   5.358   0.395 -1.5331 -0.5048  1.6618
51063SOL    HW260048   9.789   5.309   0.326 -0.4379 -1.6194  0.3967
51064SOL     OW60049   3.042   5.179   3.075 -0.2760 -0.2391 -0.3701
51064SOL    HW160050   3.105   5.108   3.064 -0.2433 -0.0491 -1.5469
51064SOL    HW260051   3.062   5.216   3.160  0.8093 -0.5679 -0.4680
51065SOL     OW60052  11.329   4.512   8.745 -0.1446  0.3192 -0.0174
51065SOL    HW160053  11.336   4.455   8.669 -2.7876 -1.0898  0.6369
51065SOL    HW260054  11.401   4.486   8.802  1.9724  1.5166 -2.0310
51066SOL     OW60055   6.532   1.912   2.741  0.1654 -0.3057 -0.4115
51066SOL    HW160056   6.516   1.998   2.701  1.6014  0.5196  0.6929
51066SOL    HW260057   6.460   1.857   2.709 -0.6354  1.2228 -1.3657
51067SOL     OW60058   2.890   6.191   9.872  0.3943  0.4660  0.1884
51067SOL    HW160059   2.920   6.142   9.948 -0.2608 -0.2967 -0.0259
51067SOL    HW260060   2.819   6.246   9.904  0.3478  0.4024  0.1925
51068SOL     OW60061  10.697   0.504   0.665  0.0062  0.2491  0.6057
51068SOL    HW160062  10.735   0.480   0.580  0.6880 -0.7276  1.1757
51068SOL    HW260063  10.719   0.597   0.676 -3.1713  1.5172 -1.8949
51069SOL     OW60064   9.155   0.254   3.365 -0.2045 -0.3273 -0.7354
51069SOL    HW160065   9.223   0.251   3.298  0.6002 -1.0331  0.0784
51069SOL    HW260066   9.166   0.173   3.414  0.4183  0.9398  1.3578
51070SOL     OW60067   0.048   7.156  12.102  0.0081  0.1348 -0.3515
51070SOL    HW160068   0.029   7.247  12.124 -0.9402  0.1246 -1.0465
51070SOL    HW260069   0.025   7.107  12.181  1.0147  0.5382  0.2040
51071SOL     OW60070   6.324   6.263   8.959  0.2871 -0.4273 -0.7443
51071SOL    HW160071   6.245   6.216   8.933 -1.1987 -0.1442  2.6593
51071SOL    HW260072   6.301   6.355   8.948  0.3580 -0.3620 -0.3637
51072SOL     OW60073  10.465   5.741  11.904 -0.3149  0.2666  0.4422
51072SOL    HW160074  10.503   5.759  11.818  2.9703 -3.3911  0.8241
51072SOL    HW260075  10.388   5.687  11.885 -1.4815  2.0796 -0.1916
51073SOL     OW60076   3.170   5.137   6.162  0.4135  0.3311  0.4711
51073SOL    HW160077   3.149   5.188   6.083 -0.6725  0.4107  0.7915
51073SOL    HW260078   3.217   5.061   6.129 -0.0376  0.3569 -0.2717
51074SOL     OW60079   7.062   7.740   2.950 -0.2483 -0.1299 -0.1165
51074SOL    HW160080   7.010   7.663   2.928 -1.5080 -0.0342  2.2635
51074SOL    HW260081   6.999   7.803   2.985  1.0573  1.2111 -0.0577
51075SOL     OW60082   5.640   4.636   7.479  0.2262 -0.0248  0.5250
51075SOL    HW160083   5.583   4.585   7.536  0.5596 -0.8546  0.1316
51075SOL    HW260084   5.661   4.715   7.530  1.0079 -1.0209  1.8111
51076SOL     OW60085   9.708   6.232   8.620  0.2766 -0.2072 -0.6238
51076SOL    HW160086   9.716   6.309   8.563 -1.9109  0.2262 -0.4320
51076SOL    HW260087   9.791   6.231   8.669  0.7425  1.4973 -1.2769
51077SOL     OW60088  10.830   6.212   0.980 -1.1077 -0.4055  0.1837
51077SOL    HW160089  10.757   6.257   0.938 -0.5472  1.0016  0.6536
51077SOL    HW260090  10.803   6.204   1.072 -1.2569 -1.1486  0.0763
51078SOL     OW60091   5.752  11.199   9.879  0.5544 -0.3443  0.3931
51078SOL    HW160092   5.812  11.272   9.860  0.4570 -0.7085 -1.5716
51078SOL    HW260093   5.690  11.201   9.806 -2.5686  0.6816  2.8946
51079SOL     OW60094   3.927   0.936   4.302 -0.1287 -0.0404  0.2756
51079SOL    HW160095   3.899   0.897   4.385 -1.0971 -1.9730 -0.8869
51079SOL    HW260096   3.905   1.029   4.311 -0.8799 -0.3358  1.9119
51080SOL     OW60097   1.675  11.087   2.292  0.3929 -0.3228  0.2066
51080SOL    HW160098   1.671  10.996   2.264 -2.2494 -1.6446  4.0423
51080SOL    HW260099   1.726  11.085   2.374 -1.2780  1.2388  1.3624
51081SOL     OW60100  11.166   1.000   9.601 -0.0322  0.0771 -0.3164
51081SOL    HW160101  11.235   0.990   9.536  1.7973  0.4440  1.4873
51081SOL    HW260102  11.190   0.940   9.671 -0.8296  1.1625  0.9256
51082SOL     OW60103  11.812   8.208  10.794  0.1096  0.1076 -0.1741
51082SOL    HW160104  11.883   8.146  10.806 -0.0998 -0.0480  0.2859
51082SOL    HW260105  11.825   8.274  10.863  0.2085  0.4621 -0.5239
51083SOL     OW60106  10.045   0.305   9.952 -0.1908 -0.0083 -0.3620
51083SOL    HW160107  10.097   0.230   9.982 -0.9364 -0.7222 -0.8250
51083SOL    HW260108  10.092   0.381   9.986  0.6051 -0.6770  0.0821
51084SOL     OW60109  10.013   7.136   2.787  0.4076 -0.0005 -0.1404
51084SOL    HW160110   9.987   7.209   2.732  0.6800 -0.3829 -0.7851
51084SOL    HW260111   9.932   7.107   2.828 -0.2247 -1.1421 -2.0865
51085SOL     OW60112   2.919   5.469   4.600  0.5273  0.4443  0.0674
51085SOL    HW160113   2.831   5.440   4.623  0.2135  0.5470 -0.9601
51085SOL    HW260114   2.977   5.420   4.659 -0.2318  0.6843  1.0338
51086SOL     OW60115   0.288   2.047  10.104 -0.1278 -0.1336  0.2010
51086SOL    HW160116   0.248   2.083  10.184  3.0503 -0.1202  1.9492
51086SOL    HW260117   0.380   2.038  10.126  0.9697  0.1627 -3.6508
51087SOL     OW60118   3.692  12.486  12.498  0.1272  0.4410  0.3321
51087SOL    HW160119   3.705  12.573  12.537 -0.2936  0.6252  0.0799
51087SOL    HW260120   3.705  12.425  12.570  3.7724  0.4629 -0.1638
51088SOL     OW60121   8.145   9.354   8.207  1.2501 -0.2627 -0.0934
51088SOL    HW160122   8.154   9.259   8.215 -0.5554 -0.4920 -0.3144
51088SOL    HW260123   8.078   9.378   8.270  0.0470  0.5101 -1.5843
51089SOL     OW60124   3.878   7.664   7.808 -0.3659  0.0156  0.0342
51089SOL    HW160125   3.832   7.717   7.743 -1.2501  0.6782  1.1505
51089SOL    HW260126   3.891   7.723   7.882  1.0966 -0.5673  0.2713
51090SOL     OW60127  10.007   0.801   2.762 -0.5659 -0.0392 -0.0567
51090SOL    HW160128  10.032   0.841   2.846 -2.6534 -1.8336  1.5440
51090SOL    HW260129  10.081   0.743   2.741  0.5848  1.4230 -0.2237
51091SOL     OW60130   0.125   3.909   8.750 -0.2743  0.4250 -0.8507
51091SOL    HW160131   0.107   3.818   8.774  1.8515  0.4414  1.0989
51091SOL    HW260132   0.214   3.907   8.714  1.1060  2.0946  2.1670
51092SOL     OW60133   1.813   1.619  12.063 -0.1125  0.5828 -0.5832
51092SOL    HW160134   1.736   1.659  12.102 -0.2886 -0.4984  0.2253
51092SOL    HW260135   1.869   1.596  12.137 -0.9523 -2.5461 -0.7582
51093SOL     OW60136   6.493  12.116  10.949 -0.1249  0.2517 -0.3223
51093SOL    HW160137   6.422  12.153  10.897 -1.5524 -1.0033  0.6827
51093SOL    HW260138   6.527  12.043  10.897 -0.6217 -0.1277 -0.1167
51094SOL     OW60139   9.153   4.501   0.828 -0.0197  0.2338  0.2454
51094SOL    HW160140   9.211   4.573   0.805 -1.3074  1.0444 -0.6118
51094SOL    HW260141   9.076   4.512   0.772 -0.1940 -1.9296 -0.0499
51095SOL     OW60142   6.707   6.680  12.088  0.2972  0.3349  0.1039
51095SOL    HW160143   6.745   6.723  12.165  1.8868 -0.5605 -0.1430
51095SOL    HW260144   6.618   6.657  12.116  1.0175 -0.4761  1.9076
51096SOL     OW60145   1.759   4.974   2.275 -0.0681 -0.4821 -0.4327
51096SOL    HW160146   1.792   5.046   2.222 -0.2616 -0.0342  0.0420
51096SOL    HW260147   1.771   4.897   2.221  0.4283 -0.1351 -0.8279
51097SOL     OW60148   2.688   4.583   4.055  0.2530  0.1818 -0.1162
51097SOL    HW160149   2.641   4.566   3.973  1.0158 -1.2557 -0.2726
51097SOL    HW260150   2.747   4.656   4.033  0.6478 -0.3693 -0.9310
51098SOL     OW60151  12.214   2.001   6.926 -0.1081 -0.1986 -0.0513
51098SOL    HW160152  12.307   2.021   6.937  0.4784 -1.9486 -1.3867
51098SOL    HW260153  12.203   1.914   6.965 -1.7833  0.9566  2.3424
51099SOL     OW60154   5.345  10.000   6.450 -0.0527  0.9997  0.3705
51099SOL    HW160155   5.260  10.042   6.459 -0.0686  0.9120  0.6302
51099SOL    HW260156   5.327   9.907   6.462  0.3634  1.1304  2.4297
51100SOL     OW60157   6.622   7.803   1.634  0.4640 -0.3745  0.2856
51100SOL    HW160158   6.662   7.782   1.719  1.6025  0.2148 -0.0875
51100SOL    HW260159   6.694   7.795   1.572  0.1549  1.2952 -0.3310
51101SOL     OW60160   3.813   0.965   4.790 -0.0992 -0.0988 -0.0443
51101SOL    HW160161   3.856   0.880   4.790  2.3546  1.0386  1.7197
51101SOL    HW260162   3.859   1.017   4.725 -0.8198  0.2489 -0.2965
51102SOL     OW60163   5.047   4.631  10.872  0.1796  0.6445  0.4059
51102SOL    HW160164   5.090   4.583  10.943  0.7380  1.0304  0.3347
51102SOL    HW260165   4.973   4.576  10.847  0.7341 -0.1283  0.4176
51103SOL     OW60166   5.498   0.087  11.937  0.2944 -0.3338 -0.6943
51103SOL    HW160167   5.457   0.002  11.952 -1.9653  0.8745  0.4861
51103SOL    HW260168   5.573   0.088  11.997  0.7476 -1.7021 -1.2035
51104SOL     OW60169   2.767   2.716   6.038  0.2290 -0.2430 -0.5865
51104SOL    HW160170   2.824   2.792   6.049 -0.1731  0.0308 -0.3940
51104SOL    HW260171   2.739   2.694   6.127  2.3012 -2.1479 -0.3132
51105SOL     OW60172   4.065   6.632   1.069 -0.3515 -0.6565 -0.6470
51105SOL    HW160173   4.155   6.661   1.055 -0.6575  1.1915  0.8855
51105SOL    HW260174   4.070   6.571   1.142 -0.1477 -2.0051 -1.7435
51106SOL     OW60175  10.756   5.576   6.987  0.5755  0.3253 -0.2306
51106SOL    HW160176  10.793   5.508   7.043 -0.9658 -0.2809  0.1023
51106SOL    HW260177  10.725   5.643   7.049 -1.1613 -0.3611 -0.2879
51107SOL     OW60178   4.141   4.416  11.405 -0.4202 -0.7112  0.5433
51107SOL    HW160179   4.125   4.354  11.334 -0.7670  1.5044 -1.4347
51107SOL    HW260180   4.060   4.414  11.456 -0.8473 -1.0752 -0.1277
51108SOL     OW60181   5.317  10.281   5.874  0.2264  0.2058 -0.7954
51108SOL    HW160182   5.237  10.234   5.900  1.3451 -1.3866 -0.0255
51108SOL    HW260183   5.337  10.337   5.949  0.2919 -0.0533 -0.6143
51109SOL     OW60184   9.800   4.691   7.274 -0.1443 -0.0322  0.6848
51109SOL    HW160185   9.867   4.648   7.222 -0.9126 -1.1760  0.5971
51109SOL    HW260186   9.809   4.784   7.254 -0.1221 -0.4022 -1.1638
51110SOL     OW60187   5.009   8.153   4.262  0.0589 -0.1040 -0.6875
51110SOL    HW160188   4.953   8.181   4.189  0.6155  0.7748 -0.7940
51110SOL    HW260189   4.965   8.075   4.297 -0.0331 -0.7854 -2.1976
51111SOL     OW60190   9.012   3.603  10.566 -0.4035  0.8915 -0.1361
51111SOL    HW160191   9.046   3.531  10.619  0.9941  1.2537 -0.4997
51111SOL    HW260192   8.977   3.665  10.629 -0.6981  0.3629  0.2311
51112SOL     OW60193   2.031  11.442   4.506 -0.4863  0.4244  0.0178
51112SOL    HW160194   1.992  11.530   4.509  1.5676  1.4257 -0.5066
51112SOL    HW260195   2.090  11.439   4.581  0.5773  0.0768 -0.8079
51113SOL     OW60196   8.503   7.924   0.488  0.1214  0.0297  0.2606
51113SOL    HW160197   8.543   7.906   0.573  0.1884  0.3367  0.2980
51113SOL    HW260198   8.578   7.932   0.428  0.1171  0.5348  0.3164
51114SOL     OW60199   6.876   0.317   2.380  0.0918  0.6322  0.5908
51114SOL    HW160200   6.966   0.345   2.362  0.5879 -1.6013 -0.7780
51114SOL    HW260201   6.861   0.243   2.321 -1.8819 -0.4926  2.3436
51115SOL     OW60202   7.667   6.415   0.943 -0.1410 -0.2567  0.1809
51115SOL    HW160203   7.666   6.473   0.866  1.4320  2.1794  1.8611
51115SOL    HW260204   7.741   6.446   0.995 -1.2627 -1.7138  2.7957
51116SOL     OW60205   4.473   6.201   4.242 -0.5801 -0.0457 -0.6655
51116SOL    HW160206   4.478   6.111   4.274 -0.4801  0.4112  0.6878
51116SOL    HW260207   4.454   6.193   4.149 -2.2416 -1.4553 -0.2504
51117SOL     OW60208   1.163   7.529   9.635 -0.2216  0.0563  0.2876
51117SOL    HW160209   1.246   7.503   9.596  0.5605  0.8021  1.3769
51117SOL    HW260210   1.113   7.448   9.642  1.1703 -0.7594  1.3396
51118SOL     OW60211   7.000   5.694   3.993 -0.0643 -0.2668  0.0837
51118SOL    HW160212   6.931   5.735   3.942 -1.7411 -2.7549  0.1653
51118SOL    HW260213   7.004   5.744   4.074 -0.4906  1.0116 -0.6607
51119SOL     OW60214   2.045  11.844   9.698  0.0861  0.1892 -0.3367
51119SOL    HW160215   2.005  11.782   9.636  0.1411  0.1432 -0.3266
51119SOL    HW260216   1.987  11.920   9.696  0.0183  0.1377 -0.3498
51120SOL     OW60217   5.741  10.787  10.591  0.0532  0.2971 -0.1487
51120SOL    HW160218   5.790  10.789  10.509 -1.5824  0.3012 -1.1500
51120SOL    HW260219   5.665  10.732  10.573 -1.3124  1.7879  0.8088
51121SOL     OW60220   6.385   2.872   1.717  0.1294  0.3652  0.7526
51121SOL    HW160221   6.302   2.912   1.742  0.0006  0.1564  0.6603
51121SOL    HW260222   6.411   2.820   1.793 -1.6253 -2.5124 -0.4380
51122SOL     OW60223   9.504   8.248   8.519 -0.0531 -0.0352 -0.3776
51122SOL    HW160224   9.435   8.220   8.459 -1.0441 -0.4146  0.8877
51122SOL    HW260225   9.465   8.241   8.606  1.3303  0.5075  0.3299
51123SOL     OW60226   9.698   7.249  10.191 -0.0744 -0.0313 -0.6597
51123SOL    HW160227   9.684   7.327  10.245  2.3772  0.8426 -1.1619
51123SOL    HW260228   9.626   7.251  10.128  1.8425  4.1804 -3.1955
51124SOL     OW60229   1.287   6.548   6.629  0.3594 -0.0744 -0.3854
51124SOL    HW160230   1.231   6.529   6.553 -0.7344  0.8810  0.1421
51124SOL    HW260231   1.291   6.644   6.631 -1.1811  0.0175  1.8068
51125SOL     OW60232   6.312   0.138   6.440 -0.4584 -0.3653 -0.1290
51125SOL    HW160233   6.246   0.119   6.373 -1.2370 -1.8463  0.9928
51125SOL    HW260234   6.305   0.065   6.501  1.0333  0.3591  0.9527
51126SOL     OW60235   3.959   4.407   8.214  0.2826 -0.0067  0.2456
51126SOL    HW160236   3.992   4.432   8.300  0.9101  0.7361 -0.1987
51126SOL    HW260237   3.875   4.365   8.231  0.7618 -0.5802  1.2833
51127SOL     OW60238   3.101   1.732   6.292  0.0292  0.0696 -0.3320
51127SOL    HW160239   3.178   1.758   6.343  0.5317 -0.0840 -0.9968
51127SOL    HW260240   3.125   1.647   6.254 -0.7689 -0.3490  0.0785
51128SOL     OW60241  12.040   9.882  12.161  0.4686 -0.3092 -0.2374
51128SOL    HW160242  12.011   9.907  12.073 -0.6194  1.9378  0.6856
51128SOL    HW260243  11.959   9.866  12.209  0.9937  0.0014  0.7663
51129SOL     OW60244   7.173   2.033   1.533 -0.1288  0.1837  0.2402
51129SOL    HW160245   7.150   1.941   1.544  1.2444 -0.2322 -0.1571
51129SOL    HW260246   7.162   2.050   1.439 -0.6529  0.5081  0.3575
51130SOL     OW60247  12.008   6.182   9.259 -0.0345  0.0187 -0.2160
51130SOL    HW160248  11.988   6.262   9.210 -0.2035  1.2631  1.7910
51130SOL    HW260249  11.956   6.188   9.339  0.7205 -1.6231  0.4602
51131SOL     OW60250   5.500   9.586   7.805 -0.3032  0.0891 -0.2836
51131SOL    HW160251   5.481   9.513   7.745  0.3428 -0.7906  0.5647
51131SOL    HW260252   5.553   9.547   7.874 -1.2884  1.0181  1.0387
51132SOL     OW60253  11.957   1.133  12.367  0.4858  0.1926  0.4981
51132SOL    HW160254  11.894   1.115  12.437 -0.2927  0.1276 -0.1992
51132SOL    HW260255  11.994   1.218  12.389  0.5626 -0.0206  1.2120
51133SOL     OW60256   5.633  10.612  10.193  0.1257 -0.3435 -0.4233
51133SOL    HW160257   5.616  10.707  10.195 -0.4105 -0.4291 -0.7662
51133SOL    HW260258   5.610  10.586  10.104  0.6583 -0.7311 -0.4508
51134SOL     OW60259   8.625   4.491   3.662  0.1408 -1.0575  0.0191
51134SOL    HW160260   8.664   4.407   3.635  1.8970 -0.6949  1.2789
51134SOL    HW260261   8.545   4.467   3.709  1.8747 -2.2636  2.5708
51135SOL     OW60262   6.767   2.629   4.156  0.1772  0.5501 -0.1535
51135SOL    HW160263   6.814   2.551   4.183  0.1615  0.3307 -0.7421
51135SOL    HW260264   6.807   2.700   4.206  0.5282  0.2404  0.0100
51136SOL     OW60265   7.431   3.179  11.785 -0.3311  0.2151  0.3429
51136SOL    HW160266   7.389   3.154  11.867  0.9695  2.4922  1.8017
51136SOL    HW260267   7.426   3.274  11.783 -0.7846  0.2361 -2.5320
51137SOL     OW60268   2.955   6.030   4.346 -0.2846 -0.4362 -0.3082
51137SOL    HW160269   2.925   6.118   4.323 -0.4478 -0.2851  0.4394
51137SOL    HW260270   3.009   6.002   4.272  0.1119  0.4558 -0.3646
51138SOL     OW60271   4.359   4.613  10.449  0.2513 -0.2961 -0.4002
51138SOL    HW160272   4.382   4.593  10.359  1.1190 -0.3892 -0.1770
51138SOL    HW260273   4.332   4.529  10.486 -0.7454 -0.1333 -0.7454
51139SOL     OW60274  11.582   9.285  12.012 -0.0785 -0.2088  0.5078
51139SOL    HW160275  11.604   9.204  11.965  0.4050 -1.0142  2.0647
51139SOL    HW260276  11.541   9.340  11.945  0.7356 -1.2276 -0.9057
51140SOL     OW60277   2.917   5.081   7.375 -0.1595  0.0625 -0.2094
51140SOL    HW160278   2.989   5.069   7.437  0.0956  0.4843 -0.4219
51140SOL    HW260279   2.847   5.024   7.408 -0.6653  1.5581  1.4605
51141SOL     OW60280   8.234   4.616   4.527  0.0413 -0.1632  0.4299
51141SOL    HW160281   8.323   4.593   4.551 -0.3881 -0.2081  2.0548
51141SOL    HW260282   8.243   4.694   4.473  1.0612 -0.2324  0.4810
51142SOL     OW60283   6.064  10.988   1.673 -0.2598  0.3050 -0.5759
51142SOL    HW160284   5.992  11.039   1.634 -0.7475 -1.2012 -1.7127
51142SOL    HW260285   6.055  11.003   1.767 -1.6043  0.7272 -0.7487
51143SOL     OW60286  11.019   6.484  10.222 -0.2483  0.2826  0.5312
51143SOL    HW160287  10.987   6.550  10.160  1.7748  1.8029  1.0364
51143SOL    HW260288  11.047   6.411  10.166 -0.3181  0.8086 -0.2090
51144SOL     OW60289  11.101   7.859  12.553 -0.0525 -0.0558 -0.3069
51144SOL    HW160290  11.131   7.850  12.463 -1.6923 -0.5070 -0.8443
51144SOL    HW260291  11.010   7.827  12.551  0.3621 -1.5677  1.8065
51145SOL     OW60292   7.300   5.009  10.440  0.1236 -0.1124  0.2241
51145SOL    HW160293   7.284   4.937  10.379  0.0768 -0.9674  1.2304
51145SOL    HW260294   7.377   4.982  10.490 -0.8105 -0.1725  1.6636
51146SOL     OW60295  10.571   7.771  11.696 -0.1784 -0.3090  0.4514
51146SOL    HW160296  10.619   7.762  11.778 -0.4310 -1.9344  0.4352
51146SOL    HW260297  10.616   7.714  11.635 -0.8345 -0.1838 -0.1660
51147SOL     OW60298   1.219   2.248   7.966  0.4437 -0.1962  0.6218
51147SOL    HW160299   1.312   2.231   7.957  0.6688  1.4891 -0.6209
51147SOL    HW260300   1.208   2.339   7.941 -1.9048 -1.0759 -2.1606
51148SOL     OW60301   4.935   7.799   6.357 -0.2935 -0.1435 -0.3766
51148SOL    HW160302   4.887   7.717   6.375  0.9988 -1.1078 -1.1781
51148SOL    HW260303   4.910   7.822   6.268 -0.8336  0.4964 -0.0735
51149SOL     OW60304  10.722   6.001   5.350 -0.4696  0.0749 -0.1447
51149SOL    HW160305  10.754   5.949   5.423 -0.3399  0.2910 -0.0436
51149SOL    HW260306  10.792   6.066   5.335 -0.6197  0.2076 -0.2767
51150SOL     OW60307  10.802   3.401   3.100 -0.0065 -0.1471 -0.1653
51150SOL    HW160308  10.780   3.474   3.158 -1.4981 -1.5982  1.1979
51150SOL    HW260309  10.831   3.443   3.019 -0.3739  1.9508  0.7224
51151SOL     OW60310  11.850   0.522  10.903  0.2358 -0.1480  0.1120
51151SOL    HW160311  11.826   0.547  10.813 -0.0533  0.7054  0.4132
51151SOL    HW260312  11.936   0.561  10.917  0.2673 -0.2538  0.2135
51152SOL     OW60313   6.020  11.652   9.610 -0.7538 -0.9609  0.2747
51152SOL    HW160314   6.042  11.710   9.538 -1.2415 -1.6828 -0.4817
51152SOL    HW260315   6.088  11.584   9.609 -1.8508 -2.0992 -0.8221
51153SOL     OW60316  10.898  11.148   8.994  0.1321  0.5144  0.0098
51153SOL    HW160317  10.992  11.128   8.990  0.2058  0.9077 -0.3095
51153SOL    HW260318  10.895  11.243   9.003 -0.2264  0.4402  0.7094
51154SOL     OW60319   1.338  10.998   4.788  0.3051  0.1268 -0.4972
51154SOL    HW160320   1.388  10.966   4.863  0.4509  0.5904 -0.3936
51154SOL    HW260321   1.337  10.925   4.727  0.4927 -0.1319 -0.1932
51155SOL     OW60322  10.128   3.919  10.766 -0.2314 -0.1715 -0.3540
51155SOL    HW160323  10.064   3.867  10.817  0.9787 -0.4946  0.9015
51155SOL    HW260324  10.187   3.854  10.729  1.3636  0.2613  1.3192
51156SOL     OW60325   6.395   5.657   6.790 -0.0570 -0.5304  0.7119
51156SOL    HW160326   6.378   5.688   6.701 -2.4081 -1.0919  0.9133
51156SOL    HW260327   6.308   5.646   6.829  0.8993  0.2671  3.2997
51157SOL     OW60328  11.714  10.279  11.142 -0.2879 -0.1423  0.2582
51157SOL    HW160329  11.716  10.331  11.062  0.5518  0.0454  0.3871
51157SOL    HW260330  11.665  10.200  11.119  1.0078 -0.6729 -0.8202
51158SOL     OW60331   7.158   1.021   5.765  0.3430  0.0176  0.0692
51158SOL    HW160332   7.171   1.100   5.712  1.1527  0.2379  0.5769
51158SOL    HW260333   7.165   0.949   5.703  0.3917  0.3105 -0.2685
51159SOL     OW60334   0.417   0.437   3.830 -0.0427 -0.0904 -0.5520
51159SOL    HW160335   0.434   0.368   3.766 -0.2224 -0.8690  0.2262
51159SOL    HW260336   0.486   0.427   3.895 -1.0157 -0.5902  0.4262
51160SOL     OW60337   6.663  12.439   8.172 -0.5250 -0.1106  0.6409
51160SOL    HW160338   6.689  12.351   8.203 -0.6046 -0.0693  0.8290
51160SOL    HW260339   6.730  12.462   8.107 -0.7376 -0.4841  0.2876
51161SOL     OW60340   9.570  10.966   1.572 -0.3945 -0.3072 -0.1769
51161SOL    HW160341   9.566  10.910   1.495 -0.1741  0.7087 -0.9463
51161SOL    HW260342   9.624  11.041   1.545 -0.4364  0.1422  0.9130
51162SOL     OW60343   0.917   7.078  12.235  0.4911 -0.4088  0.4511
51162SOL    HW160344   0.857   7.024  12.185 -0.8489 -0.3207  1.8928
51162SOL    HW260345   0.995   7.023  12.246  0.6905 -0.5551 -1.3584
51163SOL     OW60346   5.864   7.830   3.941  0.1494  0.1356 -0.2811
51163SOL    HW160347   5.824   7.889   4.004  0.2097  0.2094 -0.3118
51163SOL    HW260348   5.925   7.776   3.992 -1.7740 -1.7019  0.2385
51164SOL     OW60349   6.869   0.258   1.232  0.1349  0.1895 -0.0562
51164SOL    HW160350   6.782   0.282   1.198  0.8311  2.0594 -0.5983
51164SOL    HW260351   6.851   0.226   1.320 -0.9866  2.0686  0.4600
51165SOL     OW60352   3.109   3.322  10.477 -0.3965  0.4501 -0.1606
51165SOL    HW160353   3.157   3.257  10.528  0.2581 -0.3662 -1.7274
51165SOL    HW260354   3.017   3.300  10.492 -0.2758 -3.1775 -3.2111
51166SOL     OW60355   9.791   3.229   8.512  0.0507 -0.2778 -0.2053
51166SOL    HW160356   9.822   3.241   8.601 -0.4212  2.0673 -0.2995
51166SOL    HW260357   9.866   3.254   8.457 -0.5719  1.1546 -0.4331
51167SOL     OW60358   9.754   9.786   7.338  0.3741  0.1116  0.2310
51167SOL    HW160359   9.812   9.746   7.273  1.7162  2.8950 -0.4479
51167SOL    HW260360   9.707   9.853   7.290  0.2343  1.2069  1.8155
51168SOL     OW60361   6.838   3.290   4.829 -0.4774  0.0626 -0.2779
51168SOL    HW160362   6.802   3.263   4.744  2.0305 -2.3763 -0.7356
51168SOL    HW260363   6.765   3.284   4.890 -1.7415 -0.7328 -1.8000
51169SOL     OW60364   0.369   3.657   6.355  0.4594  0.7381  0.0374
51169SOL    HW160365   0.395   3.643   6.264  1.0823  1.2775  0.1315
51169SOL    HW260366   0.409   3.584   6.403 -0.3602  0.1104 -0.1892
51170SOL     OW60367   3.086  10.509   3.448  0.4373 -0.5846 -0.0153
51170SOL    HW160368   3.059  10.494   3.539 -1.6146  1.0696 -0.2886
51170SOL    HW260369   3.004  10.505   3.398  1.4141 -0.5250 -1.6873
51171SOL     OW60370   7.736   2.274   2.911 -0.1502 -0.9335 -0.0761
51171SOL    HW160371   7.704   2.351   2.865  0.0807 -0.6677  0.2036
51171SOL    HW260372   7.830   2.271   2.890  0.3959  0.3284  1.9404
51172SOL     OW60373   7.214   4.940   6.022 -0.2427 -0.1355  0.2926
51172SOL    HW160374   7.279   4.875   6.049  0.1546  0.1587  0.0541
51172SOL    HW260375   7.265   5.010   5.982 -0.8714 -0.8578 -1.8779
51173SOL     OW60376   2.855   8.491  12.155  0.2497  0.6943 -0.0407
51173SOL    HW160377   2.880   8.412  12.202 -3.5666 -0.4599  0.4008
51173SOL    HW260378   2.866   8.561  12.220  1.5069  0.1845  0.3160
51174SOL     OW60379   4.154   2.831   7.885  0.2089  0.0466 -0.6284
51174SOL    HW160380   4.075   2.802   7.931  0.0816  0.5929 -0.5002
51174SOL    HW260381   4.124   2.849   7.796  0.0008  1.0866 -0.3613
51175SOL     OW60382   7.842   2.035  10.832  0.2938 -0.4761  0.1194
51175SOL    HW160383   7.817   1.969  10.767  1.9264  0.5202 -1.6381
51175SOL    HW260384   7.818   2.118  10.791  0.1553  0.1283  1.3979
51176SOL     OW60385   6.885   2.812   0.685 -0.2189  0.4160  0.2304
51176SOL    HW160386   6.916   2.901   0.668 -1.3891  0.6276 -0.9708
51176SOL    HW260387   6.795   2.811   0.652 -0.0480 -1.3692 -0.2923
51177SOL     OW60388   8.675   0.495   2.007  0.0962 -0.5796 -0.7245
51177SOL    HW160389   8.731   0.432   2.053  0.3588  0.4743  0.4504
51177SOL    HW260390   8.731   0.531   1.939  0.3256 -0.7424 -0.6231
51178SOL     OW60391   7.182  10.113   2.940 -0.3405 -0.7249  0.2948
51178SOL    HW160392   7.184  10.178   2.870  2.1060  0.3898  1.3003
51178SOL    HW260393   7.152  10.033   2.896  1.3451 -0.1483 -2.1260
51179SOL     OW60394  12.543   8.148   3.600 -0.2141  0.0583  0.1756
51179SOL    HW160395  12.533   8.061   3.638 -1.4317  0.3253  0.5045
51179SOL    HW260396  12.489   8.146   3.521  1.0690  0.0045 -0.7361
51180SOL     OW60397   8.353   1.404   6.975  0.1012  0.5513  0.1240
51180SOL    HW160398   8.447   1.417   6.961 -0.1838  1.6913 -0.9126
51180SOL    HW260399   8.312   1.431   6.893 -1.1332 -0.1077  0.4943
51181SOL     OW60400   9.021  12.535  10.241  0.0614 -0.5576 -0.6795
51181SOL    HW160401   9.077  12.539  10.163  0.1013 -0.2873 -0.6374
51181SOL    HW260402   8.952  12.473  10.218  1.7057 -2.8625  0.1076
51182SOL     OW60403  11.050   8.047   4.209  0.5656 -0.5097  0.1521
51182SOL    HW160404  11.083   7.967   4.168 -0.2882  0.3127 -2.3217
51182SOL    HW260405  11.124   8.108   4.203  0.9568 -0.8502  1.3210
51183SOL     OW60406   9.475   4.803   7.267 -0.6667 -0.0676  0.5483
51183SOL    HW160407   9.490   4.898   7.265 -2.1732  0.2227  1.1769
51183SOL    HW260408   9.384   4.795   7.297 -0.3537 -1.7426  1.1058
51184SOL     OW60409   0.756   2.585   4.302  0.2918 -0.1804 -0.1247
51184SOL    HW160410   0.817   2.552   4.236  2.5148  0.5217  1.4686
51184SOL    HW260411   0.796   2.665   4.335 -1.5866  0.4063  0.9087
51185SOL     OW60412  10.914   5.690   9.702 -0.1670  0.8040  0.0504
51185SOL    HW160413  10.899   5.630   9.629 -1.8654  1.2345  0.0008
51185SOL    HW260414  10.986   5.746   9.673  0.2499 -0.0685 -0.6200
51186SOL     OW60415   2.620  11.343   3.536  0.1811  0.2094 -0.2517
51186SOL    HW160416   2.640  11.418   3.592  2.2181 -1.4351  1.3954
51186SOL    HW260417   2.698  11.332   3.481 -1.2693  0.9968 -2.6099
51187SOL     OW60418   8.312   6.328   3.678  0.2030 -0.3389 -0.1742
51187SOL    HW160419   8.268   6.402   3.719  1.3614  0.6058 -0.6040
51187SOL    HW260420   8.326   6.266   3.750  0.3319  0.3919  0.4379
51188SOL     OW60421   2.723  12.225   8.486 -0.5010 -0.1603 -0.4019
51188SOL    HW160422   2.666  12.237   8.409 -0.0326 -1.1746 -0.9269
51188SOL    HW260423   2.801  12.182   8.451  0.2973  0.5635  0.4351
51189SOL     OW60424   4.520   5.857   0.849 -0.0346  0.0784  0.2452
51189SOL    HW160425   4.450   5.918   0.870 -1.5515 -1.6113  0.2678
51189SOL    HW260426   4.545   5.818   0.933  0.8541  0.5430  0.2167
51190SOL     OW60427   7.652   9.248  12.490 -0.2617 -0.2032 -0.4486
51190SOL    HW160428   7.562   9.214  12.493  0.0099 -0.8320  2.1311
51190SOL    HW260429   7.705   9.174  12.461 -0.4952  0.1070 -1.7577
51191SOL     OW60430   3.816   5.401   5.939 -0.3473  0.5421 -0.2254
51191SOL    HW160431   3.802   5.401   5.844 -1.0134  0.6650 -0.1385
51191SOL    HW260432   3.759   5.471   5.970 -0.8148 -0.0886  0.3593
51192SOL     OW60433   8.292   6.385  12.347 -0.3339 -0.0850  0.1877
51192SOL    HW160434   8.299   6.470  12.390 -0.2835  0.8033 -1.4805
51192SOL    HW260435   8.376   6.374  12.302  0.0091 -1.4532  1.0925
51193SOL     OW60436   9.297   8.252  11.917 -0.0772 -0.1082 -0.1496
51193SOL    HW160437   9.266   8.187  11.980 -0.2383  1.2647  1.2390
51193SOL    HW260438   9.223   8.264  11.857 -0.2911 -0.6964 -0.0137
51194SOL     OW60439  12.277   5.933  12.067  0.4132  0.1020 -0.1991
51194SOL    HW160440  12.244   6.002  12.123 -0.0422  0.0454 -0.3928
51194SOL    HW260441  12.362   5.910  12.104 -0.2734 -0.5654  1.0129
51195SOL     OW60442   9.375   1.709   0.842  0.1169  0.3575  0.6471
51195SOL    HW160443   9.436   1.687   0.912 -0.8412 -1.5732  0.9383
51195SOL    HW260444   9.388   1.642   0.776 -0.0032  1.3314 -0.3942
51196SOL     OW60445   5.589   0.345   0.353  0.1553 -0.0200 -0.3074
51196SOL    HW160446   5.510   0.398   0.342 -0.6980 -1.0287  0.6805
51196SOL    HW260447   5.634   0.385   0.428  0.1826  0.1055 -0.3915
51197SOL     OW60448   9.826  10.029   8.742  0.0571 -0.3043 -0.0918
51197SOL    HW160449   9.736  10.015   8.712  0.3018  1.7535 -1.9713
51197SOL    HW260450   9.816  10.054   8.834 -1.2854 -0.0536 -0.2821
51198SOL     OW60451   2.628  11.435   5.978  0.5550 -0.3978  0.5977
51198SOL    HW160452   2.603  11.386   6.056  0.9609 -1.3120  0.1658
51198SOL    HW260453   2.654  11.522   6.011  0.5152 -0.7027  1.4461
51199SOL     OW60454   8.966   1.634   0.498 -0.2506 -0.0539 -0.5517
51199SOL    HW160455   8.894   1.682   0.538 -0.1174 -0.8111  0.6728
51199SOL    HW260456   9.044   1.663   0.545  0.2425  0.6136 -1.7327
51200SOL     OW60457   3.559   6.807   0.962 -0.5527 -0.2001 -0.2550
51200SOL    HW160458   3.565   6.771   0.873 -0.1157 -0.1885 -0.2315
51200SOL    HW260459   3.645   6.788   1.001 -1.3143 -1.7741  0.7696
51201SOL     OW60460  10.144   7.921   3.022  0.2220 -0.3889  0.0758
51201SOL    HW160461  10.167   7.956   3.109 -1.0009 -0.3847  0.4185
51201SOL    HW260462  10.085   7.848   3.041 -0.5803  0.0228 -0.7552
51202SOL     OW60463  10.511   4.953   5.011 -0.5484 -0.1766  0.0588
51202SOL    HW160464  10.606   4.964   5.014 -0.3246 -1.7471 -0.2344
51202SOL    HW260465  10.479   5.031   4.967  0.5352  0.6825  0.7209
51203SOL     OW60466   0.501   9.714   7.779 -0.0650 -0.0349  0.1821
51203SOL    HW160467   0.501   9.618   7.785 -0.0436 -0.0397  0.1141
51203SOL    HW260468   0.593   9.738   7.771 -0.0622 -0.0005  0.3101
51204SOL     OW60469   8.703   8.760   2.186  0.3618 -0.0496 -0.5746
51204SOL    HW160470   8.667   8.849   2.182 -0.2390 -0.2522  0.0297
51204SOL    HW260471   8.626   8.703   2.190  0.7437 -0.5466 -0.1457
51205SOL     OW60472   4.058  10.108   0.288  0.3056 -0.2153  0.1996
51205SOL    HW160473   4.060  10.127   0.194 -0.8988  0.2757  0.2564
51205SOL    HW260474   4.132  10.155   0.324  0.5935 -0.1530 -0.4562
51206SOL     OW60475   5.634  11.431  12.090  0.4167 -0.5530 -0.2973
51206SOL    HW160476   5.686  11.487  12.147  1.8881  0.1514 -2.2128
51206SOL    HW260477   5.593  11.368  12.149  0.1340  1.4067  1.7485
51207SOL     OW60478   5.024  10.117   4.217  0.7080  0.1221  0.3313
51207SOL    HW160479   4.976  10.058   4.158  1.4817 -0.6144  0.4060
51207SOL    HW260480   5.096  10.063   4.250  0.7408  0.7553  1.3523
51208SOL     OW60481  11.599  11.329   8.410  0.2450  0.2511 -0.1890
51208SOL    HW160482  11.686  11.291   8.398  0.0606 -0.1290 -0.3156
51208SOL    HW260483  11.538  11.259   8.387 -0.1111  0.1406  1.0452
51209SOL     OW60484   4.520   5.409   2.536  0.2617  0.2512 -0.0386
51209SOL    HW160485   4.597   5.355   2.520  1.3690  1.4838  0.8610
51209SOL    HW260486   4.555   5.493   2.567 -1.4339  0.9510  0.1287
51210SOL     OW60487  10.090   5.253   3.267 -0.3885  0.3143 -0.3799
51210SOL    HW160488  10.118   5.201   3.191  0.0329  0.4447 -0.3166
51210SOL    HW260489  10.154   5.232   3.335  0.4036  1.6730 -0.6565
51211SOL     OW60490   7.443   7.707   8.115 -0.6493 -0.2573  0.3118
51211SOL    HW160491   7.474   7.774   8.176  0.2551 -1.7310  1.5636
51211SOL    HW260492   7.467   7.740   8.028  0.6130  0.6173  0.9639
51212SOL     OW60493   3.362   6.838   9.697 -0.0800  0.4656  0.2441
51212SOL    HW160494   3.289   6.870   9.645  1.5764  0.9329 -1.9370
51212SOL    HW260495   3.388   6.913   9.751  0.0565  0.9388 -0.4730
51213SOL     OW60496   5.425   9.063  11.797  0.3416  0.2647  0.5265
51213SOL    HW160497   5.423   9.138  11.857  1.1799 -1.0952  2.3560
51213SOL    HW260498   5.334   9.034  11.792 -0.1736  1.9827 -1.0441
51214SOL     OW60499   8.835   6.042  11.047 -0.0884 -0.4877 -0.2097
51214SOL    HW160500   8.903   6.109  11.060  0.2583 -0.7840 -0.4630
51214SOL    HW260501   8.830   5.996  11.131 -2.6582  1.9340  1.1017
51215SOL     OW60502   9.421   1.619   6.046  0.2735  0.3495  0.6230
51215SOL    HW160503   9.360   1.553   6.080  1.2485 -0.4093  0.9654
51215SOL    HW260504   9.435   1.593   5.954  0.4280  0.2352  0.6762
51216SOL     OW60505   3.317   8.190   7.163  0.1460  0.6763 -0.6373
51216SOL    HW160506   3.301   8.268   7.110  2.2752  1.4102 -0.3143
51216SOL    HW260507   3.389   8.215   7.221 -0.4343 -0.9123  0.8600
51217SOL     OW60508   3.370  11.232   8.911 -0.0707 -0.1639  0.0496
51217SOL    HW160509   3.451  11.283   8.924 -0.4907  1.0310 -1.6762
51217SOL    HW260510   3.302  11.286   8.952 -0.3124 -0.0292 -0.5239
51218SOL     OW60511  12.144   8.081   9.638 -0.2567  0.3979  0.6124
51218SOL    HW160512  12.187   8.139   9.575  0.6201 -1.3374 -0.4589
51218SOL    HW260513  12.195   8.092   9.719  0.2174  0.7380  0.2739
51219SOL     OW60514   5.038  11.104   7.323 -0.1353 -0.4721 -0.7053
51219SOL    HW160515   5.117  11.140   7.282  0.7548 -0.6799  0.7531
51219SOL    HW260516   5.047  11.009   7.311  0.9357 -0.6602  1.2776
51220SOL     OW60517  10.045   5.169   7.165  0.0505  0.2528  0.0103
51220SOL    HW160518  10.001   5.218   7.095 -0.4229 -1.8672 -1.2854
51220SOL    HW260519  10.135   5.161   7.135 -0.2704 -1.1077 -0.6849
51221SOL     OW60520   3.322   6.328   1.189 -0.9405  0.0785 -0.0725
51221SOL    HW160521   3.358   6.348   1.275 -1.5540 -0.6698  0.3743
51221SOL    HW260522   3.301   6.234   1.193 -0.7745 -0.0215 -1.1121
51222SOL     OW60523   6.372   1.405   7.538  0.5381  0.6245 -0.2097
51222SOL    HW160524   6.339   1.317   7.555  1.7303  0.2212  0.1290
51222SOL    HW260525   6.387   1.442   7.625  0.3813  1.0270 -0.3530
51223SOL     OW60526   1.137   1.814  11.436  0.0284  0.3945  0.2575
51223SOL    HW160527   1.055   1.857  11.411  0.2392  0.6123 -0.0441
51223SOL    HW260528   1.194   1.823  11.360  0.1091 -0.3274  0.2274
51224SOL     OW60529  11.793   3.533  11.891  0.2402 -0.0697  0.3986
51224SOL    HW160530  11.780   3.452  11.941  1.6017 -0.4252  0.2411
51224SOL    HW260531  11.713   3.543  11.839  0.9421 -2.6561 -1.4073
51225SOL     OW60532   5.192   9.845   1.402 -0.3467 -0.1843  0.6193
51225SOL    HW160533   5.142   9.855   1.483 -0.5041  1.2865  0.3678
51225SOL    HW260534   5.168   9.758   1.370  0.9692 -1.4869  2.9553
51226SOL     OW60535   1.629   9.927   3.336  0.1679 -0.1916 -0.6908
51226SOL    HW160536   1.629   9.892   3.247 -1.0609  1.5685 -1.4336
51226SOL    HW260537   1.578  10.008   3.331  1.1879  0.6712  1.3426
51227SOL     OW60538   4.737   7.557   4.564 -0.1001  0.1515 -0.4348
51227SOL    HW160539   4.749   7.496   4.636 -1.0565 -0.0580 -0.4325
51227SOL    HW260540   4.798   7.628   4.582  1.2072 -0.8948 -0.5573
51228SOL     OW60541  12.031   8.763  11.619  0.0309 -0.0141 -1.2475
51228SOL    HW160542  12.009   8.703  11.547  1.0343 -0.1380 -1.4671
51228SOL    HW260543  12.086   8.711  11.677 -0.0088  0.3681 -0.8677
51229SOL     OW60544   7.244   6.248   8.524 -0.1058  0.0797  0.6634
51229SOL    HW160545   7.304   6.276   8.594  0.8065  1.5717 -0.6539
51229SOL    HW260546   7.261   6.309   8.452 -1.4801 -1.0089 -0.6449
51230SOL     OW60547   9.820  12.247   1.988  0.5116 -0.5492 -0.0681
51230SOL    HW160548   9.879  12.300   1.936  0.6296 -0.6400 -0.0277
51230SOL    HW260549   9.842  12.157   1.965  0.3472 -0.5813 -0.0992
51231SOL     OW60550   2.015   7.261   4.468 -0.1732 -0.1584  0.2048
51231SOL    HW160551   2.087   7.241   4.408 -0.2824  0.8809 -0.2927
51231SOL    HW260552   2.009   7.183   4.524 -0.9709 -1.7823 -1.9945
51232SOL     OW60553   1.165   4.970   5.861 -0.0757  0.2575  0.2877
51232SOL    HW160554   1.114   5.032   5.808  1.1829 -0.0177 -1.3005
51232SOL    HW260555   1.167   5.010   5.948 -0.9890  1.4492 -0.2100
51233SOL     OW60556   3.807   2.489  11.754  0.7518 -0.3755 -0.3521
51233SOL    HW160557   3.822   2.395  11.763 -0.7684 -0.5114  1.3360
51233SOL    HW260558   3.862   2.529  11.822 -0.2668 -0.2501  0.4243
51234SOL     OW60559   2.964   2.335   8.284  0.0765 -0.2302  0.5585
51234SOL    HW160560   2.886   2.371   8.326 -1.1077 -1.3414 -0.5945
51234SOL    HW260561   3.035   2.392   8.313 -1.2226  1.1046  1.2644
51235SOL     OW60562   4.284   4.770  11.677  0.5514 -0.1104 -0.3955
51235SOL    HW160563   4.257   4.785  11.768  0.2809 -0.2049 -0.4580
51235SOL    HW260564   4.337   4.691  11.681  0.1838 -0.3617 -0.3800
51236SOL     OW60565   7.002   1.539   9.439  0.2018 -0.1728  0.2396
51236SOL    HW160566   7.067   1.573   9.377  1.1572  0.0918  1.3504
51236SOL    HW260567   6.956   1.618   9.470 -0.2941 -0.3078 -0.1266
51237SOL     OW60568   7.252   6.820   0.929 -0.0919  0.2510  0.2803
51237SOL    HW160569   7.291   6.789   1.011  1.1078 -1.2424 -0.7967
51237SOL    HW260570   7.173   6.767   0.919 -0.5526  0.8364  0.7293
51238SOL     OW60571  10.833   4.064   3.856  0.0388 -0.4024  0.1043
51238SOL    HW160572  10.810   4.030   3.769 -1.2728 -1.3818  0.8086
51238SOL    HW260573  10.764   4.128   3.876  0.0872 -0.5066  0.6090
51239SOL     OW60574   5.116   9.639   0.243 -0.3744 -0.5740 -0.2766
51239SOL    HW160575   5.169   9.667   0.168  2.5636  1.0263  2.1478
51239SOL    HW260576   5.129   9.544   0.246  2.6921 -0.2730  0.2223
51240SOL     OW60577   8.308   0.928   5.378  0.0073 -0.0635  0.0209
51240SOL    HW160578   8.379   0.864   5.366 -0.0764 -0.3037  0.7370
51240SOL    HW260579   8.351   1.005   5.414  0.7151  1.6547 -3.9963
51241SOL     OW60580   6.221   1.166   5.291 -0.4734 -0.0365  0.0672
51241SOL    HW160581   6.165   1.236   5.258  1.3227  2.2623  1.5896
51241SOL    HW260582   6.226   1.181   5.386 -0.1940 -2.3970  0.4912
51242SOL     OW60583   3.847  11.831   5.688  0.3187  1.0544  0.1856
51242SOL    HW160584   3.790  11.897   5.649 -0.7863 -0.7242 -1.3940
51242SOL    HW260585   3.830  11.837   5.782 -0.3754  2.4186 -0.0049
51243SOL     OW60586   9.740   2.306   8.835  0.6691 -0.2305  0.3114
51243SOL    HW160587   9.712   2.259   8.913  0.6746  0.3831  0.6897
51243SOL    HW260588   9.834   2.318   8.847  0.3283  1.8050  1.2963
51244SOL     OW60589   2.659   9.909   1.718 -0.0845 -0.1838  0.6201
51244SOL    HW160590   2.571   9.932   1.747 -0.5727 -2.4593  1.1373
51244SOL    HW260591   2.661   9.932   1.625 -0.9415  0.6069  0.7851
51245SOL     OW60592  11.815   4.693  11.687 -0.1554  0.2784  0.2739
51245SOL    HW160593  11.841   4.783  11.665 -1.8267  0.9855  0.9895
51245SOL    HW260594  11.895   4.642  11.677  0.5626  1.6152 -1.3456
51246SOL     OW60595   8.121   0.145   0.205  0.1193 -0.3817 -0.4966
51246SOL    HW160596   8.085   0.116   0.288 -2.3920 -1.2309 -1.7740
51246SOL    HW260597   8.165   0.227   0.225 -0.2137 -0.6903  1.7002
51247SOL     OW60598   2.343   0.658   4.155  0.0969  0.5271 -0.1057
51247SOL    HW160599   2.385   0.670   4.069  0.8216  0.5315  0.2434
51247SOL    HW260600   2.364   0.568   4.179  0.6091  0.7877  0.4433
51248SOL     OW60601   4.444   0.031   5.078 -0.3023  0.2045 -0.5754
51248SOL    HW160602   4.367   0.086   5.097 -0.0371  0.7515 -1.0324
51248SOL    HW260603   4.467  -0.008   5.162 -0.5004  0.7975 -0.2364
51249SOL     OW60604   2.636   7.396  11.869 -0.5198 -1.1252  0.1477
51249SOL    HW160605   2.727   7.398  11.841 -0.7037  2.0481 -0.6488
51249SOL    HW260606   2.588   7.360  11.795 -0.2203  0.3037 -0.7715
51250SOL     OW60607  11.995   7.621   4.171  0.4718  0.4666  0.7392
51250SOL    HW160608  12.027   7.565   4.101 -0.9254 -1.2821  1.4012
51250SOL    HW260609  12.071   7.671   4.200  1.3132  0.3774 -1.2201
51251SOL     OW60610   5.380   3.179   0.352  0.3381  0.1615 -0.6588
51251SOL    HW160611   5.367   3.214   0.263 -0.2030 -0.4405 -0.8217
51251SOL    HW260612   5.434   3.101   0.339 -1.6320 -1.2439 -0.7304
51252SOL     OW60613   6.642   8.075  10.378 -0.5913  0.3486 -0.3027
51252SOL    HW160614   6.664   7.985  10.353 -0.7708  0.5672 -1.2692
51252SOL    HW260615   6.690   8.090  10.459  0.2403 -0.2786 -0.6730
51253SOL     OW60616   4.607  11.670   7.585 -0.3184  0.4705  0.1335
51253SOL    HW160617   4.676  11.610   7.557 -0.5345  0.1415  0.2950
51253SOL    HW260618   4.594  11.650   7.678 -1.0955  0.0502 -0.0518
51254SOL     OW60619   6.484  11.543  11.363 -0.0317 -0.1479  0.3884
51254SOL    HW160620   6.522  11.530  11.276 -0.2294 -0.3000  0.3242
51254SOL    HW260621   6.533  11.616  11.400  1.0403 -1.0049  0.7180
51255SOL     OW60622   8.236   3.582   8.504 -0.0216  0.3191  0.4603
51255SOL    HW160623   8.152   3.615   8.537  0.2067  0.8692  0.5026
51255SOL    HW260624   8.293   3.659   8.503  0.2705  0.0951 -0.2685
51256SOL     OW60625  10.692   6.092   7.276  0.9237  0.0653  0.2115
51256SOL    HW160626  10.700   6.129   7.188 -2.6660 -1.9409 -1.1665
51256SOL    HW260627  10.647   6.161   7.326  0.7158  0.2697 -0.2482
51257SOL     OW60628  11.440   5.000   5.037 -0.5175  0.6603 -0.1553
51257SOL    HW160629  11.527   4.975   5.068 -1.3422  0.3691  2.2041
51257SOL    HW260630  11.449   5.009   4.943  2.0747  0.7371  0.0253
51258SOL     OW60631   1.827   0.805   7.905  0.2713  0.1406 -0.5814
51258SOL    HW160632   1.884   0.881   7.917  0.5526 -0.3167  1.2688
51258SOL    HW260633   1.753   0.821   7.964  0.4635 -1.1143  0.0210
51259SOL     OW60634   0.305   3.036   6.723  0.9581 -0.3313 -0.1908
51259SOL    HW160635   0.236   3.085   6.679 -0.2736  0.0345  1.9936
51259SOL    HW260636   0.320   3.083   6.805  2.1435 -1.7440  0.4554
51260SOL     OW60637   1.125   9.299   9.371 -0.6623  1.1199  0.5897
51260SOL    HW160638   1.210   9.309   9.328  0.3641 -1.2816  1.8299
51260SOL    HW260639   1.063   9.340   9.311  0.9437 -0.1847 -2.1716
51261SOL     OW60640   4.567   8.397   3.473  0.5619  0.1377  0.5360
51261SOL    HW160641   4.544   8.489   3.459 -1.5311 -0.4589 -0.3619
51261SOL    HW260642   4.587   8.364   3.386  1.1065 -0.3210  0.8265
51262SOL     OW60643   4.685   5.876   0.632  0.4170 -0.0250  0.0323
51262SOL    HW160644   4.628   5.858   0.707  0.9343 -1.0730  0.1898
51262SOL    HW260645   4.628   5.921   0.569 -0.4686 -0.6562  0.3645
51263SOL     OW60646   2.688   9.507   0.034 -0.3374  0.0659 -0.1904
51263SOL    HW160647   2.642   9.580   0.074 -0.4489 -0.1736  0.1194
51263SOL    HW260648   2.720   9.542  -0.050  1.5105  1.1526  0.8905
51264SOL     OW60649  12.237   4.367   0.705 -0.2613  0.0792 -0.0288
51264SOL    HW160650  12.207   4.423   0.777 -0.0271 -0.8345  0.8117
51264SOL    HW260651  12.218   4.417   0.626  1.0445  1.8695  0.7208
51265SOL     OW60652   3.347   5.650  11.108 -0.4906  0.0288 -0.0515
51265SOL    HW160653   3.301   5.729  11.080  1.6316  1.7988  1.2299
51265SOL    HW260654   3.427   5.648  11.056  0.3763 -0.2149  1.2477
51266SOL     OW60655   6.468  12.514   8.731  0.3058  0.2370  0.1011
51266SOL    HW160656   6.481  12.602   8.766 -2.7706  1.2771 -0.9989
51266SOL    HW260657   6.515  12.513   8.648 -0.7412  1.3938 -0.5397
51267SOL     OW60658   8.323   6.558   5.422  0.3236 -0.3830  0.0430
51267SOL    HW160659   8.338   6.511   5.341  3.3791  1.6877 -0.7727
51267SOL    HW260660   8.411   6.574   5.457 -0.7901  0.7674  2.5778
51268SOL     OW60661  10.288  11.089   3.106 -0.6199  0.3165 -0.0612
51268SOL    HW160662  10.292  11.033   3.028 -0.0079  0.3456 -0.0562
51268SOL    HW260663  10.361  11.058   3.161 -0.6494  0.7253  0.2091
51269SOL     OW60664   5.545  10.478   4.610  0.9395  0.2519  0.1699
51269SOL    HW160665   5.451  10.473   4.593  0.8431  0.8459  0.4739
51269SOL    HW260666   5.564  10.402   4.664  0.8803 -0.5739 -0.9478
51270SOL     OW60667   2.197   4.713   3.571 -0.0570 -0.2195 -0.1212
51270SOL    HW160668   2.130   4.757   3.518  0.7465  0.5689 -0.5004
51270SOL    HW260669   2.271   4.700   3.512  0.0714 -1.2715  0.2382
51271SOL     OW60670   3.609  11.594   9.580  0.0530  0.4092 -0.0682
51271SOL    HW160671   3.667  11.593   9.657 -0.8245  0.8895  0.6171
51271SOL    HW260672   3.587  11.502   9.567  2.4566 -0.0475 -1.5286
51272SOL     OW60673   3.257   3.803   7.554 -0.0285  0.2039 -0.5047
51272SOL    HW160674   3.174   3.825   7.511  0.3531  1.0472 -0.8300
51272SOL    HW260675   3.238   3.723   7.602 -0.7968 -0.0897 -1.2728
51273SOL     OW60676   9.284   5.647   3.800  0.5266 -0.2804  0.0901
51273SOL    HW160677   9.268   5.652   3.894 -0.1931 -0.9861  0.0109
51273SOL    HW260678   9.201   5.618   3.762 -1.3155  5.6874 -1.4668
51274SOL     OW60679   9.053   7.456   2.611  0.1021  0.2093  0.2304
51274SOL    HW160680   9.062   7.397   2.685 -1.0256 -1.0087 -0.5638
51274SOL    HW260681   9.110   7.419   2.544 -0.5772  0.0427 -0.2594
51275SOL     OW60682   7.518  10.057  12.086 -0.3488 -0.0770 -0.2431
51275SOL    HW160683   7.557   9.982  12.131 -1.8652 -0.5266  0.4038
51275SOL    HW260684   7.548  10.050  11.996 -0.2873 -1.3573 -0.1429
51276SOL     OW60685   9.810   8.619   8.921 -0.0362  0.4873  0.4523
51276SOL    HW160686   9.715   8.628   8.912  0.1846  1.3115 -1.4285
51276SOL    HW260687   9.830   8.665   9.003 -0.7110  5.3604 -1.7527
51277SOL     OW60688   9.227  12.031   0.490 -0.0676 -0.2820  0.2639
51277SOL    HW160689   9.265  11.955   0.535 -0.9075 -1.4240 -0.8923
51277SOL    HW260690   9.302  12.074   0.449  0.2429 -1.4131 -0.3940
51278SOL     OW60691   2.881  10.082   6.119  0.1570 -0.3385 -0.6108
51278SOL    HW160692   2.901   9.996   6.083  0.3201 -0.6061  0.0968
51278SOL    HW260693   2.932  10.143   6.066 -0.1713 -0.6439 -1.2932
51279SOL     OW60694   6.711   2.087   4.435 -0.7104 -0.5380 -0.3728
51279SOL    HW160695   6.664   2.151   4.381  0.2533  1.3212  0.9072
51279SOL    HW260696   6.771   2.044   4.373 -0.1819  0.9866 -0.9735
51280SOL     OW60697   8.538   7.681   4.299  0.2364 -0.8280  0.0726
51280SOL    HW160698   8.510   7.664   4.389  2.5351 -1.7238  0.6858
51280SOL    HW260699   8.633   7.689   4.304  0.3035  0.8383 -2.0486
51281SOL     OW60700   7.783   9.111   1.853  0.2486 -0.2880 -0.0864
51281SOL    HW160701   7.732   9.102   1.934  0.9429 -0.5763  0.3258
51281SOL    HW260702   7.862   9.156   1.880 -0.0037  0.6081 -0.8237
51282SOL     OW60703   0.775   5.153   6.091  0.1392  0.1871  0.6070
51282SOL    HW160704   0.786   5.230   6.147  1.3115  1.0256 -0.7054
51282SOL    HW260705   0.806   5.181   6.005 -2.8781 -0.5842 -0.9103
51283SOL     OW60706   4.392   3.035  11.102 -0.2315 -0.9171 -0.6090
51283SOL    HW160707   4.420   3.049  11.012  1.0408 -0.8958 -0.2367
51283SOL    HW260708   4.473   3.017  11.150 -0.7947 -0.2408  0.6634
51284SOL     OW60709  12.215   8.888   1.108 -0.2030 -0.6971 -0.4853
51284SOL    HW160710  12.299   8.934   1.112  0.0407 -1.0060 -1.5613
51284SOL    HW260711  12.171   8.909   1.190 -0.3950  2.0275 -1.2120
51285SOL     OW60712   6.724   9.287   4.454 -0.2680 -0.6746 -0.2337
51285SOL    HW160713   6.711   9.382   4.462  0.5746 -0.5808  0.0363
51285SOL    HW260714   6.650   9.249   4.502  0.4834 -0.1457  1.3858
51286SOL     OW60715   5.608   2.371   7.541  0.9475 -0.3926 -0.3202
51286SOL    HW160716   5.657   2.392   7.461  0.6065  0.3407 -0.3416
51286SOL    HW260717   5.583   2.456   7.577 -0.2244 -0.7515 -0.2554
51287SOL     OW60718   9.239   2.891  11.116 -0.4483  0.3969  0.4232
51287SOL    HW160719   9.272   2.881  11.205 -0.8201 -1.2227  0.4066
51287SOL    HW260720   9.315   2.870  11.061 -0.5947  0.0217  0.3655
51288SOL     OW60721   1.677   2.930   2.077  0.0320  0.1188 -0.4197
51288SOL    HW160722   1.589   2.931   2.114  0.0428  0.5350 -0.3934
51288SOL    HW260723   1.666   2.958   1.986 -0.0016 -0.9560 -0.7596
51289SOL     OW60724   5.476   7.681   6.289 -0.0716  0.1489  0.7201
51289SOL    HW160725   5.389   7.690   6.328 -0.8947  1.6897 -1.2796
51289SOL    HW260726   5.463   7.703   6.197  1.8035 -2.9662 -0.4545
51290SOL     OW60727  10.006   8.809   3.238 -0.2098  0.2491  0.3587
51290SOL    HW160728  10.095   8.842   3.252  0.3639 -1.4747  1.1529
51290SOL    HW260729  10.009   8.766   3.153 -0.6803  1.3684 -0.2348
51291SOL     OW60730   4.770   5.555   3.131 -0.2405  0.2789 -0.2358
51291SOL    HW160731   4.845   5.587   3.081 -1.2314  1.9790 -0.6994
51291SOL    HW260732   4.695   5.600   3.093 -1.3019 -0.1178  1.3092
51292SOL     OW60733  12.105   1.607   4.170 -0.0323  0.2851 -0.4355
51292SOL    HW160734  12.097   1.594   4.076  1.3136 -0.7015 -0.4477
51292SOL    HW260735  12.055   1.686   4.188  0.2817  0.8909 -2.0790
51293SOL     OW60736   0.243  11.497   2.446  0.2698 -0.2493 -0.0732
51293SOL    HW160737   0.275  11.432   2.383 -0.0115 -1.3461  0.8894
51293SOL    HW260738   0.148  11.484   2.447  0.3278 -0.6571  1.0077
51294SOL     OW60739   8.600   3.957   9.410 -0.1801 -0.0279  0.6698
51294SOL    HW160740   8.605   3.898   9.335 -0.1340 -0.8629  1.3141
51294SOL    HW260741   8.671   4.021   9.395 -2.0314  1.6972 -1.5091
51295SOL     OW60742   3.892  10.048   1.337  0.6583  0.3873  0.0675
51295SOL    HW160743   3.813  10.100   1.349  0.4526  0.2444 -0.6533
51295SOL    HW260744   3.892   9.987   1.411  0.9312  1.4245  0.9584
51296SOL     OW60745   8.476   8.139  11.351 -0.1723  0.2778 -0.3718
51296SOL    HW160746   8.434   8.064  11.393 -0.1126 -0.2011 -1.1411
51296SOL    HW260747   8.446   8.215  11.400 -0.9999 -0.1679 -0.1786
51297SOL     OW60748   3.191  11.098  12.127 -0.2882  0.0557 -0.7013
51297SOL    HW160749   3.147  11.022  12.088 -0.7209  0.6154 -1.3461
51297SOL    HW260750   3.226  11.066  12.210  1.1539 -1.3436 -1.7788
51298SOL     OW60751   6.428   6.121   6.980 -0.1062  0.1889  0.7459
51298SOL    HW160752   6.353   6.139   6.922  0.6069  1.2858  0.1314
51298SOL    HW260753   6.396   6.143   7.067 -0.6499  0.1807  0.5551
51299SOL     OW60754   1.955   4.246   1.216 -0.2114 -0.2963  0.5961
51299SOL    HW160755   1.978   4.332   1.251  0.6433 -0.3389  0.1807
51299SOL    HW260756   1.871   4.225   1.256 -0.1851  0.5054  1.0972
51300SOL     OW60757  11.815  10.870   8.223 -0.2008  0.1391 -0.4065
51300SOL    HW160758  11.798  10.868   8.129  1.9777 -0.4870 -0.8330
51300SOL    HW260759  11.768  10.793   8.257  0.2233 -0.5005 -1.2293
51301SOL     OW60760   9.730   4.203   2.770  0.6680 -0.5931  0.4849
51301SOL    HW160761   9.762   4.152   2.696 -1.3152 -1.5481  0.2030
51301SOL    HW260762   9.759   4.154   2.847  0.3152 -1.1955  0.2494
51302SOL     OW60763   3.325   3.842   3.944  0.0761  0.0322  0.1475
51302SOL    HW160764   3.366   3.910   3.891 -0.0150 -0.1854 -0.2042
51302SOL    HW260765   3.231   3.850   3.925  0.1557 -0.8464 -0.6782
51303SOL     OW60766   4.257   6.730   0.463  0.3220 -0.1095  0.0137
51303SOL    HW160767   4.270   6.648   0.414 -0.8480 -0.3538  0.0843
51303SOL    HW260768   4.231   6.701   0.551  1.9984  0.3320  0.6833
51304SOL     OW60769  11.862  10.084  10.893 -0.4460 -0.0425 -0.3204
51304SOL    HW160770  11.863  10.025  10.817 -0.7313  0.5417 -0.7899
51304SOL    HW260771  11.796  10.150  10.871  1.2592  1.6036 -0.6965
51305SOL     OW60772  11.603   2.979   6.715 -0.0772  0.1115 -0.3251
51305SOL    HW160773  11.528   2.955   6.769 -0.0660 -0.8048 -0.6948
51305SOL    HW260774  11.679   2.963   6.772 -0.1396  0.8486 -0.0197
51306SOL     OW60775  11.649   6.126  12.254 -0.1547 -0.4659 -0.0245
51306SOL    HW160776  11.601   6.204  12.280  0.0106 -0.5445  0.5328
51306SOL    HW260777  11.681   6.146  12.166  0.9720  0.6186  0.5976
51307SOL     OW60778   6.174   5.401   6.464  0.5589  0.5583  0.3374
51307SOL    HW160779   6.176   5.480   6.409  1.8917  0.4597  0.2093
51307SOL    HW260780   6.211   5.333   6.408 -0.6412 -0.2005  0.4278
51308SOL     OW60781   5.801   8.619   5.772  0.3364 -0.0065 -0.9202
51308SOL    HW160782   5.718   8.586   5.805 -0.1425  1.0966 -0.9576
51308SOL    HW260783   5.868   8.569   5.818 -0.3497 -0.4286 -0.3767
51309SOL     OW60784   7.533  11.450   9.444  0.1355  0.7905  1.1844
51309SOL    HW160785   7.481  11.448   9.524  1.5664  1.9865  2.1959
51309SOL    HW260786   7.619  11.481   9.472  1.0705 -0.0343 -0.6104
51310SOL     OW60787   5.122   8.614   2.817 -0.1980  0.4833 -0.0760
51310SOL    HW160788   5.111   8.609   2.912 -0.5493  0.7405 -0.0986
51310SOL    HW260789   5.034   8.633   2.783  0.1494  1.8166 -0.3296
51311SOL     OW60790   3.220   0.258  11.660 -0.0216 -0.5990 -0.4589
51311SOL    HW160791   3.295   0.256  11.720 -0.2225  0.4609 -0.1605
51311SOL    HW260792   3.239   0.188  11.597  0.6622 -1.0986  0.2673
51312SOL     OW60793   7.467   5.187   2.930  0.0486 -0.3777 -0.0682
51312SOL    HW160794   7.562   5.178   2.938 -0.0528 -2.7457 -0.6998
51312SOL    HW260795   7.454   5.261   2.871  1.5154 -0.2691 -0.2746
51313SOL     OW60796   8.764   0.125   4.347  0.0394 -0.2114  0.2997
51313SOL    HW160797   8.751   0.070   4.424 -0.8698 -0.7332 -0.2173
51313SOL    HW260798   8.803   0.206   4.382  2.6347 -1.6151  0.9323
51314SOL     OW60799   5.288   1.769   7.774  0.4653 -0.0939 -0.5661
51314SOL    HW160800   5.288   1.819   7.856 -1.2229  0.8100 -1.0683
51314SOL    HW260801   5.317   1.681   7.799 -1.0918 -0.1530  1.2139
51315SOL     OW60802  11.764   2.206  10.771 -0.1343 -0.7492 -0.8719
51315SOL    HW160803  11.793   2.129  10.723  1.8600 -0.2935 -0.4976
51315SOL    HW260804  11.765   2.277  10.707 -1.9128 -0.9616 -1.2018
51316SOL     OW60805   2.302  12.204   5.165 -0.0947 -0.2209 -0.9244
51316SOL    HW160806   2.260  12.289   5.170 -1.7319 -1.0181 -0.2507
51316SOL    HW260807   2.233  12.144   5.138  0.3760 -1.7022  0.8850
51317SOL     OW60808   9.427   3.099   6.015 -0.1652  0.7599  0.0515
51317SOL    HW160809   9.351   3.092   6.072 -0.8694  0.7841 -0.8676
51317SOL    HW260810   9.431   3.014   5.971  0.6380  0.5827  0.4404
51318SOL     OW60811  11.545   4.183   0.548  0.4552 -0.8457  0.4075
51318SOL    HW160812  11.634   4.151   0.539  0.4722 -0.2827 -2.8655
51318SOL    HW260813  11.552   4.278   0.535 -0.6200 -0.8551 -0.4036
51319SOL     OW60814   7.665   3.643   2.706 -0.9507 -0.6687  0.4123
51319SOL    HW160815   7.699   3.568   2.755  1.1810  0.0669  0.1360
51319SOL    HW260816   7.730   3.711   2.718 -2.5352  0.9608  0.1101
51320SOL     OW60817   6.671  11.975   9.972 -0.0627  0.6745 -0.2917
51320SOL    HW160818   6.746  11.978  10.032  0.5197 -1.9093 -0.7892
51320SOL    HW260819   6.596  11.957  10.029  0.1084  0.5852 -0.0912
51321SOL     OW60820   8.230   1.459   3.045 -0.0205  0.0824 -0.0812
51321SOL    HW160821   8.139   1.432   3.062 -0.0415 -0.0642 -0.4159
51321SOL    HW260822   8.260   1.495   3.128 -0.4583  0.3347 -0.0244
51322SOL     OW60823   7.460   8.061   1.110  0.6105 -0.0889  0.1495
51322SOL    HW160824   7.446   7.974   1.149 -1.6296 -0.4861 -1.3630
51322SOL    HW260825   7.464   8.120   1.185  1.3001 -1.3842  1.1710
51323SOL     OW60826  11.388   5.787   5.236 -0.2750  0.6923  0.7318
51323SOL    HW160827  11.434   5.746   5.162 -0.3224  0.8750  0.5987
51323SOL    HW260828  11.298   5.754   5.229 -0.6203  1.7298 -0.0887
51324SOL     OW60829   0.698   1.411   3.557 -0.3597  0.3183 -0.4723
51324SOL    HW160830   0.717   1.335   3.501 -0.9986  0.8685 -1.4667
51324SOL    HW260831   0.623   1.453   3.515 -0.4024  1.1508  0.4197
51325SOL     OW60832   1.077   7.756   9.063 -0.6720  0.4662  0.1484
51325SOL    HW160833   1.101   7.699   8.990 -1.0217  1.6782 -0.9463
51325SOL    HW260834   1.147   7.743   9.127 -0.0081 -0.1379 -0.6680
51326SOL     OW60835   7.511   9.894   9.671 -0.8633 -0.6987  0.3510
51326SOL    HW160836   7.427   9.937   9.658 -1.1113 -0.5365  2.2278
51326SOL    HW260837   7.490   9.806   9.702 -0.3785 -0.2639  2.0047
51327SOL     OW60838  10.170  10.453   2.859  0.3715 -0.3352  0.1866
51327SOL    HW160839  10.085  10.488   2.831  0.8690 -0.1966 -1.1798
51327SOL    HW260840  10.184  10.491   2.946  0.0495  1.4008 -0.4935
51328SOL     OW60841   7.531  10.448   2.149  0.3541  0.1087 -0.4470
51328SOL    HW160842   7.493  10.428   2.063  0.9034  0.6009 -0.8129
51328SOL    HW260843   7.459  10.485   2.199  0.2424  0.6937 -1.0154
51329SOL     OW60844   6.887   4.442  10.614 -0.0990 -0.0648  0.1654
51329SOL    HW160845   6.937   4.491  10.679  1.3944 -0.1416 -0.8887
51329SOL    HW260846   6.797   4.445  10.647  0.4910  0.4968  1.8570
51330SOL     OW60847   6.284   2.962   5.746  0.0591  0.1422 -0.1651
51330SOL    HW160848   6.267   2.993   5.835 -2.3291  1.5783 -1.0433
51330SOL    HW260849   6.206   2.912   5.722  0.2242  0.6229 -1.8083
51331SOL     OW60850   3.013   1.177   5.617  0.4280  0.1095 -0.2393
51331SOL    HW160851   3.003   1.147   5.707 -1.4711  1.5755  0.0944
51331SOL    HW260852   3.095   1.227   5.617  0.6329 -0.2147  0.5832
51332SOL     OW60853   0.650   2.840  10.455 -0.3042 -0.2845 -0.0087
51332SOL    HW160854   0.690   2.881  10.378 -1.6060 -0.7840 -1.0100
51332SOL    HW260855   0.694   2.754  10.461  0.3916  0.0875  0.3334
51333SOL     OW60856   8.410   6.185   0.278 -0.4272 -0.5217 -0.4735
51333SOL    HW160857   8.468   6.153   0.347  0.1667 -0.1484 -0.7933
51333SOL    HW260858   8.350   6.244   0.322  0.8486  0.8551 -0.4741
51334SOL     OW60859   7.172   3.295  12.128  0.0992  0.4272 -0.3513
51334SOL    HW160860   7.253   3.244  12.130 -0.3903 -0.3355  1.3840
51334SOL    HW260861   7.106   3.233  12.098 -0.3178  0.2812  0.8239
51335SOL     OW60862   8.845   3.793   7.157 -0.1948 -0.2252 -0.4215
51335SOL    HW160863   8.799   3.864   7.202  0.9991  0.0236  0.4565
51335SOL    HW260864   8.880   3.738   7.227  0.7298 -0.4712 -1.0518
51336SOL     OW60865  12.390   5.629   8.096 -0.3078 -0.1566 -0.0199
51336SOL    HW160866  12.416   5.550   8.142 -0.7480 -0.5901 -0.5052
51336SOL    HW260867  12.355   5.598   8.012  1.1648  0.6518 -0.9704
51337SOL     OW60868   1.036   9.189   8.953 -0.8792 -0.1108  0.6880
51337SOL    HW160869   1.007   9.216   8.865 -3.5411 -2.2210  0.7972
51337SOL    HW260870   0.974   9.232   9.012 -1.3755 -1.5243  1.2386
51338SOL     OW60871  11.767   1.654   0.655 -0.0904  0.1037  0.6394
51338SOL    HW160872  11.808   1.567   0.651  0.3132  0.3422 -1.4208
51338SOL    HW260873  11.673   1.636   0.658 -0.1811 -0.4799 -2.5091
51339SOL     OW60874   4.863  12.400   9.541  0.0712 -0.0044  0.0937
51339SOL    HW160875   4.820  12.476   9.579  0.3542  0.6311 -0.8217
51339SOL    HW260876   4.800  12.364   9.479  0.2400 -0.0352 -0.0632
51340SOL     OW60877   0.904  11.668   3.137  0.0667 -0.1744  0.2137
51340SOL    HW160878   0.922  11.594   3.195 -0.5464  0.8063  1.7398
51340SOL    HW260879   0.987  11.684   3.092  0.2942 -1.5723  0.1031
51341SOL     OW60880   0.953   4.214   2.393 -0.0736 -0.0200 -0.5278
51341SOL    HW160881   1.037   4.176   2.419  0.6990  1.5510 -0.5629
51341SOL    HW260882   0.941   4.288   2.453 -2.0584 -0.9263  0.2707
51342SOL     OW60883   6.523   8.797   5.263  0.0416 -0.7407 -0.5752
51342SOL    HW160884   6.476   8.758   5.336 -0.2972 -0.2679 -0.5397
51342SOL    HW260885   6.598   8.841   5.303 -2.6703  3.7134  0.1441
51343SOL     OW60886  10.424  12.201   3.327  0.0550 -0.4450 -0.1890
51343SOL    HW160887  10.506  12.167   3.363  0.3257  0.3899  0.0190
51343SOL    HW260888  10.355  12.158   3.378  0.3788 -0.7881 -0.0393
51344SOL     OW60889   5.004   1.057   5.440  0.2911 -1.2235  0.0984
51344SOL    HW160890   5.037   1.137   5.481  0.3218 -1.7559  1.1559
51344SOL    HW260891   5.066   1.039   5.369  0.2369 -0.2810 -0.2002
51345SOL     OW60892   1.478   4.941   6.424  0.1891 -0.3068  0.1538
51345SOL    HW160893   1.568   4.915   6.441  0.1318 -0.3964  0.3223
51345SOL    HW260894   1.486   5.021   6.372  0.3621 -1.3439 -1.4888
51346SOL     OW60895   3.113   5.141   0.622  0.6523  0.3368 -0.3423
51346SOL    HW160896   3.198   5.179   0.644  1.6712 -1.3607 -1.1651
51346SOL    HW260897   3.077   5.113   0.705 -0.5215  3.6479  0.4482
51347SOL     OW60898  11.477  10.311  10.641  0.3282 -0.0506  0.3311
51347SOL    HW160899  11.436  10.333  10.557  0.4606  0.8208  0.4842
51347SOL    HW260900  11.481  10.215  10.641  1.8101 -0.0543 -1.3623
51348SOL     OW60901   8.153   5.540   7.096  0.5962 -0.1689 -0.1341
51348SOL    HW160902   8.075   5.569   7.049  0.5126  0.2573  0.2624
51348SOL    HW260903   8.120   5.506   7.179  0.6103 -2.1743 -0.8970
51349SOL     OW60904   0.768   0.619  10.040 -0.1545 -0.5434  0.1084
51349SOL    HW160905   0.777   0.527  10.064  2.3937 -0.4808 -0.3182
51349SOL    HW260906   0.824   0.665  10.102 -0.3725  0.5700 -0.5031
51350SOL     OW60907   7.099   5.887   0.431  0.0605 -0.7171 -0.0715
51350SOL    HW160908   7.084   5.831   0.354  1.3387  0.5242 -1.2818
51350SOL    HW260909   7.128   5.970   0.394 -0.2518  0.2403  1.7477
51351SOL     OW60910   1.897   8.859   3.252  0.1982 -0.3857 -0.5562
51351SOL    HW160911   1.946   8.778   3.268  2.0487  0.5862 -1.0519
51351SOL    HW260912   1.817   8.830   3.208  1.0541 -1.9110 -1.2009
51352SOL     OW60913   1.953   3.494  10.349 -0.1644  0.4902  0.0718
51352SOL    HW160914   1.886   3.427  10.364  1.4934 -1.4186 -0.6308
51352SOL    HW260915   2.034   3.445  10.340  1.4255  2.7540  1.2205
51353SOL     OW60916   0.275   4.275   3.142 -0.6051 -0.0531  0.3046
51353SOL    HW160917   0.291   4.351   3.198  1.0653  1.7284 -2.3538
51353SOL    HW260918   0.336   4.208   3.175  1.7583  1.5981 -0.3908
51354SOL     OW60919  10.711  10.068   0.480 -0.2754  0.4509  0.4517
51354SOL    HW160920  10.760  10.111   0.549 -0.7011  1.9823 -0.1418
51354SOL    HW260921  10.642  10.019   0.526 -0.2967  1.1012  1.1370
51355SOL     OW60922   5.332   6.804   2.740 -0.5281 -0.1427 -0.0237
51355SOL    HW160923   5.272   6.878   2.751 -2.9797 -2.1891  1.1338
51355SOL    HW260924   5.315   6.773   2.651  1.3912  1.3186 -0.9761
51356SOL     OW60925   9.414   3.694   0.534  0.3271 -0.1889  0.8951
51356SOL    HW160926   9.376   3.652   0.456 -1.0936 -0.5634  1.7582
51356SOL    HW260927   9.381   3.642   0.607  0.6596  0.8831  1.8250
51357SOL     OW60928  10.349   2.912   1.711  0.0379 -0.0586 -0.2999
51357SOL    HW160929  10.439   2.886   1.688  0.0424 -0.2875 -0.0274
51357SOL    HW260930  10.294   2.849   1.664  0.0173  0.1138 -0.5082
51358SOL     OW60931  12.073   8.095  10.618  0.7907 -0.0828  0.1168
51358SOL    HW160932  12.143   8.160  10.611  0.0755  0.5916 -1.0450
51358SOL    HW260933  12.031   8.095  10.532 -1.5841  0.5842  1.2031
51359SOL     OW60934   1.886   0.251   9.800  0.3940 -0.5904 -0.1301
51359SOL    HW160935   1.857   0.185   9.863 -0.2235  0.6650  0.9592
51359SOL    HW260936   1.809   0.267   9.745  0.0263  0.3141  0.6113
51360SOL     OW60937  12.187  12.238   1.667 -0.8347  0.3122 -0.3319
51360SOL    HW160938  12.135  12.206   1.741 -1.7710 -1.8021 -1.8040
51360SOL    HW260939  12.153  12.327   1.652  0.6094  1.5222  2.7796
51361SOL     OW60940   9.986   6.173   4.165  0.0933 -0.3330 -0.4660
51361SOL    HW160941  10.016   6.145   4.252  0.3025 -0.2514 -0.5103
51361SOL    HW260942   9.978   6.092   4.115  0.5378 -0.3330 -0.5448
51362SOL     OW60943   7.858   0.188   3.014  0.2190  0.2508  0.3632
51362SOL    HW160944   7.865   0.237   2.932 -0.5387 -1.6028 -0.8729
51362SOL    HW260945   7.776   0.217   3.053  0.3785  0.8421  0.2585
51363SOL     OW60946   1.449   5.748   0.669  1.0216 -0.3618  0.3182
51363SOL    HW160947   1.421   5.792   0.589 -0.5352  0.1978  1.1197
51363SOL    HW260948   1.374   5.756   0.728  1.7900 -1.5604  1.5170
51364SOL     OW60949  11.798   1.720   2.047 -0.0636  0.2537 -0.9547
51364SOL    HW160950  11.868   1.785   2.054 -0.7327  0.9931 -0.9658
51364SOL    HW260951  11.718   1.771   2.037 -0.6065 -0.5771 -1.0182
51365SOL     OW60952   5.752  10.214   8.007  0.5346 -0.4771  0.1570
51365SOL    HW160953   5.834  10.168   7.986  0.0773 -1.2480  0.0318
51365SOL    HW260954   5.706  10.154   8.065 -0.5095 -0.6249 -0.7927
51366SOL     OW60955  11.191   2.984  12.087  0.1568  0.1896 -0.0284
51366SOL    HW160956  11.128   3.004  12.157  1.6710  0.9853  1.1723
51366SOL    HW260957  11.152   3.022  12.008 -0.9695  0.4489  0.6210
51367SOL     OW60958   5.127   6.577   8.246  0.5192  0.8474  0.1657
51367SOL    HW160959   5.187   6.565   8.172 -0.1968  0.9669 -0.4499
51367SOL    HW260960   5.102   6.669   8.242 -1.6978  0.2496 -1.1738
51368SOL     OW60961   5.813   4.095   2.391  0.1906 -0.6439 -0.3543
51368SOL    HW160962   5.783   4.155   2.323  0.5847 -1.5341 -1.3397
51368SOL    HW260963   5.733   4.068   2.436  0.1617  2.2486  1.5661
51369SOL     OW60964  10.169   8.906   7.491 -0.1375  0.1768  0.2918
51369SOL    HW160965  10.136   8.946   7.410  0.9431 -0.3011 -0.4110
51369SOL    HW260966  10.261   8.932   7.494  0.9699 -3.0721 -0.8061
51370SOL     OW60967   8.700   4.219   5.879 -0.4677  0.1363 -0.0990
51370SOL    HW160968   8.691   4.314   5.887 -0.7599  0.2655 -1.6330
51370SOL    HW260969   8.766   4.207   5.810 -0.4725 -0.7842  0.0375
51371SOL     OW60970   3.034  10.241   9.315  0.1038 -0.1479  0.5996
51371SOL    HW160971   3.054  10.290   9.395  0.0714 -0.7023  0.9455
51371SOL    HW260972   2.997  10.159   9.345  0.7815 -0.6772  0.0390
51372SOL     OW60973  10.852   1.235   9.300  0.3080  0.1560 -0.1460
51372SOL    HW160974  10.770   1.197   9.269 -0.2785 -1.3858  2.8957
51372SOL    HW260975  10.919   1.202   9.240 -0.5622 -3.5723  0.7113
51373SOL     OW60976   2.424   8.517   2.481 -0.0914  0.3500 -0.0286
51373SOL    HW160977   2.366   8.498   2.407  1.3884 -0.6551 -1.0018
51373SOL    HW260978   2.447   8.431   2.515  0.7367  0.7280  0.3911
51374SOL     OW60979   3.504   5.197   9.437  0.1569 -0.2144  0.7160
51374SOL    HW160980   3.483   5.291   9.435 -0.9647 -0.4623  0.0726
51374SOL    HW260981   3.421   5.153   9.418  0.3684 -1.3979  2.3304
51375SOL     OW60982   0.069   7.828   9.133  0.1965  0.0725  0.1084
51375SOL    HW160983   0.165   7.830   9.128  0.2577  0.5826  1.2264
51375SOL    HW260984   0.046   7.907   9.182 -0.7247 -0.5985  0.7932
51376SOL     OW60985   1.664   5.553   9.413 -0.3501  0.2157  0.3014
51376SOL    HW160986   1.699   5.557   9.502  1.3794 -1.1237 -0.2607
51376SOL    HW260987   1.608   5.631   9.406  0.7147  1.2118  2.0232
51377SOL     OW60988   2.350   0.194   7.580 -0.1321 -0.2508  0.0799
51377SOL    HW160989   2.416   0.133   7.611 -0.5728 -1.0318 -0.4744
51377SOL    HW260990   2.335   0.168   7.489 -1.7890 -0.6276  0.4351
51378SOL     OW60991   6.112   2.433   0.707  0.4322  0.5561 -0.0383
51378SOL    HW160992   6.172   2.501   0.738  1.3717 -0.5206  0.5446
51378SOL    HW260993   6.091   2.382   0.785 -0.0474  0.0001 -0.5228
51379SOL     OW60994   2.471   6.979   4.040 -0.3222 -0.2988  0.2900
51379SOL    HW160995   2.514   6.978   4.125  0.4017  0.2812 -0.0586
51379SOL    HW260996   2.416   6.900   4.039 -0.6176 -0.1246  1.4300
51380SOL     OW60997   1.859   3.289   6.543 -0.4914  0.7279  0.1862
51380SOL    HW160998   1.868   3.294   6.448  0.3375  0.8952  0.2618
51380SOL    HW260999   1.949   3.291   6.576 -0.7836  1.6205  1.0134
51381SOL     OW61000  10.589   5.767  11.605 -0.3582  0.2010  0.1478
51381SOL    HW161001  10.531   5.695  11.581  0.0802  0.1623 -0.8557
51381SOL    HW261002  10.651   5.774  11.532  0.5357  0.6215  0.9170
51382SOL     OW61003   2.073   7.341  11.213  0.2610 -0.0351  0.3668
51382SOL    HW161004   2.042   7.287  11.140 -1.4908  1.2297  0.1212
51382SOL    HW261005   2.061   7.431  11.183  0.5685  0.5032  1.7960
51383SOL     OW61006   4.034   2.344   9.269 -0.1031 -0.3193  0.0364
51383SOL    HW161007   4.047   2.324   9.362 -2.2305 -0.1332  0.4311
51383SOL    HW261008   4.115   2.316   9.227  0.9918 -0.2461  1.9618
51384SOL     OW61009   3.054  12.272   9.169 -0.1046  0.4509 -0.2744
51384SOL    HW161010   3.087  12.186   9.144  0.7642  0.7911 -0.3383
51384SOL    HW261011   2.960  12.260   9.182  0.2096 -0.8277  1.0963
51385SOL     OW61012  12.245   2.682  11.273  0.1594 -0.2143  0.1998
51385SOL    HW161013  12.226   2.614  11.209  1.2536  0.5749 -1.0340
51385SOL    HW261014  12.341   2.692  11.270  0.1102  0.7380  1.0162
51386SOL     OW61015   2.774   6.837   3.215  0.4379  0.0480  0.1458
51386SOL    HW161016   2.835   6.907   3.239  0.0075  0.7084 -0.6283
51386SOL    HW261017   2.696   6.853   3.269 -0.4334  1.3866 -1.3882
51387SOL     OW61018   5.527   1.647  10.995  0.0986 -0.1978 -0.3176
51387SOL    HW161019   5.482   1.707  10.935 -0.8170  0.0385  0.5859
51387SOL    HW261020   5.457   1.592  11.031  0.6679 -0.4980  0.3550
51388SOL     OW61021  11.500  10.741   8.040  0.4695 -0.1957  0.1303
51388SOL    HW161022  11.416  10.704   8.064  0.6287 -0.5913  0.0816
51388SOL    HW261023  11.555  10.730   8.117  0.6407 -0.4388 -0.0244
51389SOL     OW61024   1.071   3.111   3.434  0.2915 -0.5534 -0.5911
51389SOL    HW161025   1.120   3.045   3.483  0.4333 -0.0118  0.0079
51389SOL    HW261026   0.980   3.080   3.435  0.1383 -0.1168  0.7797
51390SOL     OW61027   2.826  12.378   6.242 -0.0408  0.0850  0.4684
51390SOL    HW161028   2.910  12.340   6.216 -0.5446  0.3446 -1.7221
51390SOL    HW261029   2.839  12.406   6.333  1.7235 -1.3041  0.6917
51391SOL     OW61030   4.120  12.036  12.057 -0.3119  1.1563 -0.4458
51391SOL    HW161031   4.041  12.000  12.018 -0.1879 -3.1769  2.6391
51391SOL    HW261032   4.089  12.088  12.131 -0.3229  0.4962  0.0169
51392SOL     OW61033   8.249   4.516   3.416  0.3204  0.1324  0.4413
51392SOL    HW161034   8.192   4.567   3.474 -0.8046  1.1218 -1.4653
51392SOL    HW261035   8.283   4.446   3.473 -0.7838  0.9877  2.2667
51393SOL     OW61036   8.475   5.492   0.556 -0.5249 -0.1379  0.3052
51393SOL    HW161037   8.510   5.576   0.527 -2.5042  1.1012  1.2966
51393SOL    HW261038   8.549   5.432   0.551  0.7058  1.4294 -1.3383
51394SOL     OW61039   9.225  10.476  10.635 -0.0530  0.1891 -0.2065
51394SOL    HW161040   9.178  10.489  10.552 -0.4048 -1.1088 -0.2276
51394SOL    HW261041   9.170  10.416  10.685  1.0158 -0.4314  0.2545
51395SOL     OW61042   5.759  12.035   1.613 -0.3210  0.6388  0.3455
51395SOL    HW161043   5.784  12.039   1.520 -0.0903 -2.1381  0.1872
51395SOL    HW261044   5.740  12.125   1.637  2.3150  1.8818 -1.6570
51396SOL     OW61045   4.928   3.042   4.632  0.4672  0.6154 -0.4262
51396SOL    HW161046   4.933   2.960   4.681 -0.8135 -0.1427 -1.4930
51396SOL    HW261047   5.012   3.047   4.586  0.1615 -0.6778 -1.1883
51397SOL     OW61048   9.803   4.072   2.496  0.1426  0.2924  1.0273
51397SOL    HW161049   9.789   4.159   2.459  1.2248  1.1921  2.5896
51397SOL    HW261050   9.735   4.017   2.457  0.0885  1.5745 -0.7967
51398SOL     OW61051   7.532   1.998   5.323 -0.7707 -0.7066  0.1107
51398SOL    HW161052   7.501   2.019   5.411 -1.1432  0.9492 -0.3742
51398SOL    HW261053   7.467   1.938   5.288  0.5467 -3.2353  1.7223
51399SOL     OW61054   3.426  11.768   0.645  0.4502  0.0556 -0.3520
51399SOL    HW161055   3.490  11.825   0.686  0.9689 -1.1623  0.5933
51399SOL    HW261056   3.464  11.680   0.652 -0.6298 -0.4993 -1.1429
51400SOL     OW61057  10.465   0.570   1.412  1.1550  0.2127  0.3332
51400SOL    HW161058  10.495   0.489   1.453  0.5145 -0.0052  0.3926
51400SOL    HW261059  10.377   0.549   1.381  1.2602  0.6684 -0.2963
51401SOL     OW61060  12.067   2.117   3.841  0.1300  0.2411 -0.2483
51401SOL    HW161061  12.128   2.172   3.791 -0.6240  1.2320 -0.1029
51401SOL    HW261062  12.036   2.174   3.911 -1.7661  0.1052 -0.9342
51402SOL     OW61063   4.402   1.930   0.525 -0.4826  0.5789  0.4470
51402SOL    HW161064   4.418   1.979   0.606 -1.9332  0.9615  0.5408
51402SOL    HW261065   4.408   1.838   0.552  1.1564  0.6831  0.5084
51403SOL     OW61066   3.554   0.250   9.004  0.1934  0.7523  0.2036
51403SOL    HW161067   3.564   0.320   9.069  1.1981  0.2673  0.5889
51403SOL    HW261068   3.580   0.171   9.050  0.9177  0.4020 -0.7851
51404SOL     OW61069   1.309   8.232   7.114  0.1598  0.1833  0.1502
51404SOL    HW161070   1.232   8.216   7.168  0.2623 -0.8790  0.0054
51404SOL    HW261071   1.369   8.162   7.136  1.3456  1.3141  0.6711
51405SOL     OW61072   7.037  11.104   5.659 -0.3553  0.1387  0.1521
51405SOL    HW161073   6.983  11.072   5.587 -0.4679 -0.3546  0.4468
51405SOL    HW261074   7.074  11.025   5.699  1.2624  0.5113 -0.5429
51406SOL     OW61075   1.013   0.744   0.125  0.1107 -0.1495  0.1345
51406SOL    HW161076   1.088   0.799   0.147 -0.1342  0.2610 -0.0411
51406SOL    HW261077   0.987   0.772   0.037  0.9066 -1.5747 -0.5895
51407SOL     OW61078  11.581   7.332   4.516 -0.2658 -0.1969 -0.1670
51407SOL    HW161079  11.617   7.275   4.447 -1.0122 -0.5229 -0.2931
51407SOL    HW261080  11.546   7.271   4.581 -4.8532 -0.1134 -2.1604
51408SOL     OW61081   1.573   3.584   3.187  0.2070 -0.1356 -0.0855
51408SOL    HW161082   1.498   3.642   3.194 -1.0683 -1.8215  0.8768
51408SOL    HW261083   1.542   3.500   3.220  1.9947 -1.3680 -1.3419
51409SOL     OW61084   6.767   8.221   5.057  0.7306  0.2725 -0.2753
51409SOL    HW161085   6.782   8.282   5.129 -0.3968  0.3072 -0.0571
51409SOL    HW261086   6.714   8.270   4.994  0.3241 -0.2813 -0.3744
51410SOL     OW61087  11.732   1.246   1.769 -0.2849  0.3993 -0.4580
51410SOL    HW161088  11.794   1.276   1.836 -1.5381  0.7532  0.5846
51410SOL    HW261089  11.756   1.295   1.691  0.3841  0.9657  0.0860
51411SOL     OW61090  11.044  12.287  10.591  0.2869 -0.4660  0.0891
51411SOL    HW161091  11.033  12.205  10.543 -0.7111 -1.0651  1.2591
51411SOL    HW261092  11.085  12.347  10.529 -0.1155 -1.4790 -1.1935
51412SOL     OW61093   5.693   4.401   9.008  0.3407  0.1529  0.5140
51412SOL    HW161094   5.660   4.437   8.926 -0.0914 -0.8701  0.2176
51412SOL    HW261095   5.715   4.478   9.061  0.3456  0.8277 -0.4386
51413SOL     OW61096   4.385   0.535   8.997  0.4248 -0.1259  0.4483
51413SOL    HW161097   4.421   0.583   9.071 -1.4038  0.0761  1.2779
51413SOL    HW261098   4.328   0.469   9.037  1.1795 -1.5475 -0.7269
51414SOL     OW61099   3.990   8.903  11.698  0.4184  0.2071 -0.1913
51414SOL    HW161100   4.028   8.982  11.660 -0.5666  0.7193 -0.1335
51414SOL    HW261101   4.062   8.840  11.698  1.2093  1.0909 -0.2585
51415SOL     OW61102   2.091  11.653   9.008  0.4731  0.1518 -0.6748
51415SOL    HW161103   2.185  11.660   9.020  0.1592  1.4785  1.4811
51415SOL    HW261104   2.079  11.568   8.965  2.6631  0.3566 -1.8766
51416SOL     OW61105   7.837   9.743   2.398  0.1180  0.3347 -0.3719
51416SOL    HW161106   7.877   9.702   2.322 -0.9587  0.2218 -0.8976
51416SOL    HW261107   7.911   9.767   2.454  0.8262 -1.3905 -0.5053
51417SOL     OW61108   9.663   3.575  10.665  0.2292  0.0599  0.1024
51417SOL    HW161109   9.713   3.506  10.620  1.3811  0.2455  1.0452
51417SOL    HW261110   9.703   3.657  10.634 -0.2430  0.2568  0.0117
51418SOL     OW61111   4.741   7.398   2.376 -0.0922 -0.3913 -0.0318
51418SOL    HW161112   4.768   7.439   2.294  1.5526  0.2772  0.8131
51418SOL    HW261113   4.752   7.304   2.360  2.3736 -0.1893  0.0786
51419SOL     OW61114   2.389   8.317   7.306 -0.2687  0.0261  0.0491
51419SOL    HW161115   2.413   8.409   7.296  0.2136 -0.2162 -1.1216
51419SOL    HW261116   2.382   8.283   7.217  1.7082 -1.6018  0.4226
51420SOL     OW61117  12.209   4.599   3.684 -0.4591  0.6981  0.3060
51420SOL    HW161118  12.147   4.575   3.753  0.1879  1.7686  1.2930
51420SOL    HW261119  12.294   4.571   3.718 -0.1749  0.9049 -0.2246
51421SOL     OW61120   1.651   1.722   3.606  0.0962 -0.2041  0.1837
51421SOL    HW161121   1.605   1.720   3.690 -0.4204  0.4923 -0.0698
51421SOL    HW261122   1.588   1.762   3.546  1.1955  1.2434 -0.0696
51422SOL     OW61123   5.143  11.917   6.660  0.2574  0.1405  0.7276
51422SOL    HW161124   5.102  11.901   6.575  1.0015  0.3922  0.3140
51422SOL    HW261125   5.182  11.833   6.684  1.5521  0.5035 -0.0161
51423SOL     OW61126   4.293   8.621   0.422 -0.1180  0.4690  0.0599
51423SOL    HW161127   4.325   8.665   0.342 -0.4838  0.4609 -0.0924
51423SOL    HW261128   4.271   8.533   0.393  0.7606  0.1286  0.4002
51424SOL     OW61129   4.371  10.236   2.653 -0.2340 -0.0109  0.5135
51424SOL    HW161130   4.295  10.295   2.650 -0.1689  0.0502 -1.4439
51424SOL    HW261131   4.343  10.164   2.709 -1.1835  0.7242  1.0267
51425SOL     OW61132   7.427  10.964   9.060  0.1704 -0.7033 -0.3471
51425SOL    HW161133   7.450  10.872   9.047 -0.2458 -0.7450 -0.8316
51425SOL    HW261134   7.352  10.962   9.120  0.8804 -0.6134  0.5570
51426SOL     OW61135   8.845   0.675   3.899  0.0520 -0.2941 -0.3227
51426SOL    HW161136   8.918   0.719   3.855  1.1475 -1.2899  0.4311
51426SOL    HW261137   8.767   0.709   3.856  0.9784  0.4338 -1.4907
51427SOL     OW61138   0.058   5.863   4.697 -0.0785 -0.5097  0.5734
51427SOL    HW161139   0.044   5.908   4.613 -2.9622 -0.5700  0.9071
51427SOL    HW261140   0.139   5.900   4.731  1.4476 -0.8038 -2.4217
51428SOL     OW61141   2.198   3.337  12.430  0.4460  0.0674 -0.2635
51428SOL    HW161142   2.225   3.337  12.522 -0.0876  0.2719 -0.1009
51428SOL    HW261143   2.138   3.262  12.423 -0.0609  0.4737 -0.2774
51429SOL     OW61144   9.388   7.825   4.625  0.2076 -0.0933 -0.5978
51429SOL    HW161145   9.412   7.737   4.656  2.4402  0.7219  0.2117
51429SOL    HW261146   9.337   7.863   4.696 -0.1070 -0.4376 -0.6333
51430SOL     OW61147  10.098   1.741   8.063 -0.4028 -0.0556  0.5062
51430SOL    HW161148  10.004   1.753   8.077 -0.5117  0.5415 -0.5875
51430SOL    HW261149  10.135   1.729   8.151 -1.4451  0.1139  0.9792
51431SOL     OW61150   2.373   1.979   8.067  0.2614  0.1778  0.1056
51431SOL    HW161151   2.391   1.920   7.994 -2.2062 -1.1361  0.4673
51431SOL    HW261152   2.304   2.037   8.036  2.0629  2.4456  0.0523
51432SOL     OW61153  12.005  12.050  11.843  0.4674 -0.1853  0.4735
51432SOL    HW161154  12.017  12.085  11.755 -1.9497 -2.2657 -0.7923
51432SOL    HW261155  11.967  12.123  11.893  0.7342  0.6493 -0.4982
51433SOL     OW61156   9.103   3.726  11.314 -0.6160  0.4497 -0.1555
51433SOL    HW161157   9.008   3.738  11.311 -0.5099  1.9330  1.1331
51433SOL    HW261158   9.135   3.798  11.368  1.4293  1.0155 -1.9547
51434SOL     OW61159  11.110   1.321   0.929  0.1316  0.8411 -0.2118
51434SOL    HW161160  11.109   1.244   0.873 -1.9634  0.8759 -0.2702
51434SOL    HW261161  11.070   1.293   1.010  0.0566  1.6745  0.0525
51435SOL     OW61162   4.815   6.943  10.115 -0.2917  0.1615 -0.0670
51435SOL    HW161163   4.910   6.935  10.101 -0.7199 -1.4078 -2.9066
51435SOL    HW261164   4.791   6.863  10.161 -0.2537  0.7042  0.9362
51436SOL     OW61165  12.040   7.838   7.089  0.0547  0.0619  0.5705
51436SOL    HW161166  11.989   7.854   7.009  0.1261  0.6070  0.6243
51436SOL    HW261167  11.998   7.894   7.155  0.8144  0.6453  0.5757
51437SOL     OW61168   5.109   1.778  11.075  0.4873  0.2105 -0.2580
51437SOL    HW161169   5.083   1.785  10.983  1.2242  0.7504 -0.4405
51437SOL    HW261170   5.204   1.787  11.073  0.4037  1.8319  0.6854
51438SOL     OW61171   7.086   6.054   9.867  0.4686 -0.2706 -0.7877
51438SOL    HW161172   7.012   6.058   9.928  0.5666 -1.4488 -0.5622
51438SOL    HW261173   7.089   6.140   9.827 -0.2502  0.1939  0.1239
51439SOL     OW61174   0.382   1.836  12.448 -0.1676 -0.1292 -0.5549
51439SOL    HW161175   0.467   1.881  12.453  0.0760 -0.4275 -1.6208
51439SOL    HW261176   0.350   1.857  12.360 -0.3415 -1.4973 -0.8398
51440SOL     OW61177   5.802   9.189   9.788  0.1612  0.3267  0.6422
51440SOL    HW161178   5.834   9.278   9.768  0.7440  0.2112  1.0254
51440SOL    HW261179   5.786   9.190   9.882  0.6507 -0.1226  0.7334
51441SOL     OW61180   8.507   4.549   4.615 -0.3772  0.3897  0.4813
51441SOL    HW161181   8.564   4.489   4.664 -0.9895  0.3075  1.1156
51441SOL    HW261182   8.566   4.593   4.553 -0.0718 -1.5192 -0.6543
51442SOL     OW61183   5.648  10.619   6.316 -0.5630 -0.1749 -0.1495
51442SOL    HW161184   5.694  10.537   6.337  0.9840  0.6753 -0.0920
51442SOL    HW261185   5.681  10.643   6.230  0.9637  1.6664  0.8702
51443SOL     OW61186   8.883  10.290   8.171  0.2393  0.3248 -0.0476
51443SOL    HW161187   8.792  10.304   8.143 -0.1941 -1.7575  0.1573
51443SOL    HW261188   8.932  10.362   8.130 -1.5992  2.0477  0.5962
51444SOL     OW61189   2.838   5.905   7.101 -0.2432  0.0657  0.1004
51444SOL    HW161190   2.843   5.896   7.196  1.5017 -1.6739 -0.0939
51444SOL    HW261191   2.922   5.944   7.076  0.6265 -2.2923 -0.9330
51445SOL     OW61192   3.260   8.581   9.621 -0.3466  0.2168  0.4255
51445SOL    HW161193   3.172   8.557   9.592  0.5011 -2.0869 -0.4782
51445SOL    HW261194   3.305   8.609   9.541 -0.0640  0.8605  0.7943
51446SOL     OW61195  12.189   8.441  10.111  0.2592 -0.3212  0.1438
51446SOL    HW161196  12.251   8.389  10.162  0.1235 -3.6371 -2.7329
51446SOL    HW261197  12.240   8.477  10.040 -0.1159  1.7900  0.8741
51447SOL     OW61198   6.970   0.707   8.144 -0.0082 -0.2074  0.4883
51447SOL    HW161199   6.914   0.674   8.074 -0.8105 -2.3745  2.0307
51447SOL    HW261200   6.929   0.674   8.224  1.8717  0.6304  1.8547
51448SOL     OW61201   0.877   7.565  11.468 -0.0029 -0.1002 -0.3325
51448SOL    HW161202   0.866   7.616  11.388 -1.2953  1.3091  0.6810
51448SOL    HW261203   0.805   7.502  11.467  0.9769 -1.2496 -1.0693
51449SOL     OW61204   0.608   2.809   3.159  0.3371 -0.6269 -0.2662
51449SOL    HW161205   0.654   2.761   3.228  0.5950 -0.6704 -0.4663
51449SOL    HW261206   0.627   2.901   3.176 -0.6984 -0.5351  0.5101
51450SOL     OW61207   2.391  10.567  11.724  0.0516 -0.0038  0.4532
51450SOL    HW161208   2.447  10.506  11.773  0.7275 -0.1236 -0.4370
51450SOL    HW261209   2.302  10.534  11.738  0.4140 -1.2630 -0.0873
51451SOL     OW61210   4.128  10.386   1.968  0.3515 -0.3093 -0.1608
51451SOL    HW161211   4.211  10.346   1.993  0.5104  0.8990  1.3310
51451SOL    HW261212   4.083  10.402   2.051 -0.7145  0.4407 -0.8625
51452SOL     OW61213   8.139  10.868  11.378  0.7290  0.0911  0.6102
51452SOL    HW161214   8.062  10.869  11.321  0.1128 -0.6949  1.4011
51452SOL    HW261215   8.158  10.960  11.394 -0.1491  0.3014  0.5254
51453SOL     OW61216   6.554   2.831   2.652 -0.3653 -0.1248 -0.1004
51453SOL    HW161217   6.641   2.837   2.692 -0.4451  2.4409 -0.1198
51453SOL    HW261218   6.498   2.796   2.720  0.2013  0.7569  0.8464
51454SOL     OW61219   2.584   6.049   0.832  0.3517  0.0566 -0.0524
51454SOL    HW161220   2.533   5.970   0.810  0.0246  0.2827 -0.1177
51454SOL    HW261221   2.548   6.117   0.775  0.9825  0.1362 -0.3643
51455SOL     OW61222   0.638   3.594  11.723 -0.4267 -0.3995 -0.1558
51455SOL    HW161223   0.637   3.668  11.783 -0.5203  0.8589 -1.6575
51455SOL    HW261224   0.706   3.536  11.758  0.0120  0.6359  0.7506
51456SOL     OW61225   0.417   7.517  11.645 -0.2420 -0.3712 -0.0724
51456SOL    HW161226   0.417   7.468  11.727  0.8116 -0.5663 -0.1698
51456SOL    HW261227   0.403   7.608  11.671 -2.3287 -0.6946  0.1007
51457SOL     OW61228   6.741   1.131   5.889  0.2896  0.0310 -0.2659
51457SOL    HW161229   6.704   1.115   5.976 -0.0024 -0.3122 -0.4497
51457SOL    HW261230   6.686   1.199   5.851 -1.5080 -1.9140 -1.3496
51458SOL     OW61231  12.488   7.102  10.039 -0.4565 -0.2183  0.4018
51458SOL    HW161232  12.455   7.086   9.951  0.2945 -1.9227  0.4063
51458SOL    HW261233  12.583   7.098  10.031 -0.3638  0.1296  1.2126
51459SOL     OW61234   7.529   9.027   3.545  0.4958  0.1288 -0.2766
51459SOL    HW161235   7.513   9.104   3.491  0.1053 -0.2791 -0.7552
51459SOL    HW261236   7.623   9.027   3.560  0.5466  0.4981 -0.5806
51460SOL     OW61237   8.932   8.840   8.997 -0.0984 -0.2690 -0.4286
51460SOL    HW161238   8.978   8.762   8.965  1.5336 -0.8018  2.7428
51460SOL    HW261239   8.990   8.913   8.976 -0.4460 -0.2123 -1.2182
51461SOL     OW61240   1.742   9.916   7.163  0.7223  0.0607  0.3824
51461SOL    HW161241   1.713   9.913   7.254 -1.8022 -2.5573 -0.3731
51461SOL    HW261242   1.801   9.841   7.154  0.4239 -0.0949 -0.3028
51462SOL     OW61243  12.317   0.218  12.085  0.5706 -0.1944  0.2667
51462SOL    HW161244  12.314   0.284  12.154  2.0562  0.2001 -0.0090
51462SOL    HW261245  12.313   0.268  12.004  1.6981 -0.4147  0.0557
51463SOL     OW61246   1.083   4.133   4.253 -0.0268 -0.2256  0.3483
51463SOL    HW161247   1.164   4.085   4.239  0.5335  0.0619  2.2420
51463SOL    HW261248   1.107   4.225   4.242 -0.0451 -0.1291  1.0571
51464SOL     OW61249   2.253   7.312   5.093 -0.4792 -0.8040  0.0422
51464SOL    HW161250   2.331   7.364   5.110 -0.2094 -0.5917 -1.6693
51464SOL    HW261251   2.185   7.376   5.073  0.1257 -1.0110 -3.1895
51465SOL     OW61252  10.706   9.239  10.059 -0.1675  0.2493  0.4925
51465SOL    HW161253  10.634   9.284  10.104  0.1403  2.0510 -0.7077
51465SOL    HW261254  10.782   9.253  10.116 -0.5362 -0.8136  1.2766
51466SOL     OW61255   6.647   8.503   8.830  0.8225 -0.1712  0.1252
51466SOL    HW161256   6.590   8.491   8.907  2.3497 -0.6294  1.2346
51466SOL    HW261257   6.689   8.588   8.845  1.7572 -0.6405  0.2576
51467SOL     OW61258   3.272   5.327  10.959 -0.4195 -0.0088 -0.0332
51467SOL    HW161259   3.293   5.354  11.048 -0.7243  0.3990 -0.0820
51467SOL    HW261260   3.311   5.395  10.903  1.1072 -1.0586 -0.2957
51468SOL     OW61261   5.652   0.494   5.933  0.2559  0.5227  0.2571
51468SOL    HW161262   5.607   0.530   5.857  1.1068 -0.7579 -0.9166
51468SOL    HW261263   5.611   0.409   5.948 -0.8068  1.3055  2.1158
51469SOL     OW61264   6.148   1.478   8.361 -0.4443 -0.1763 -0.1701
51469SOL    HW161265   6.142   1.436   8.447 -1.2981 -0.9340 -0.5783
51469SOL    HW261266   6.057   1.487   8.332 -0.1394 -1.6893 -1.8011
51470SOL     OW61267   7.384   9.916  11.522 -0.0875 -0.6606  0.3675
51470SOL    HW161268   7.400   9.870  11.605  2.7631  2.2527  1.6449
51470SOL    HW261269   7.363  10.005  11.548 -2.5010 -0.3857 -2.0798
51471SOL     OW61270   5.839  10.959   8.417 -0.2115  0.2370 -0.7562
51471SOL    HW161271   5.775  10.935   8.484  0.0439 -1.7930 -1.1893
51471SOL    HW261272   5.790  10.957   8.335  0.1550 -0.2057 -0.9642
51472SOL     OW61273   1.908   0.950  11.749 -0.4335  0.0812  0.2799
51472SOL    HW161274   1.880   0.860  11.762  1.0834 -0.3319  0.8828
51472SOL    HW261275   1.838   1.003  11.788 -1.1711 -0.8236  0.2227
51473SOL     OW61276  11.116   7.463   1.939  0.2264  0.4199 -0.0959
51473SOL    HW161277  11.075   7.453   1.853 -1.4828 -0.8784  0.7947
51473SOL    HW261278  11.049   7.509   1.991 -0.1427 -1.6595  1.3792
51474SOL     OW61279   4.273   1.422   6.341  0.2499  0.2649  0.1042
51474SOL    HW161280   4.291   1.333   6.371 -2.3091 -0.1064  0.7583
51474SOL    HW261281   4.290   1.478   6.417  0.6178  0.1816  0.0825
51475SOL     OW61282   8.740   9.106   2.653 -0.0334  0.3478 -0.1239
51475SOL    HW161283   8.733   9.058   2.736 -1.4585  3.3064  1.5970
51475SOL    HW261284   8.656   9.090   2.609  0.4832 -0.7167 -0.7680
51476SOL     OW61285   0.444   8.787   2.845  0.5515 -0.7866  0.0937
51476SOL    HW161286   0.451   8.762   2.937  0.8767 -0.2367  0.2296
51476SOL    HW261287   0.350   8.796   2.829  0.5386  0.4271  0.7499
51477SOL     OW61288   0.353   6.653  11.716  0.1429 -0.1402 -0.0060
51477SOL    HW161289   0.334   6.742  11.688 -1.8291  0.3087  2.3446
51477SOL    HW261290   0.372   6.661  11.810  2.0793 -1.9700 -0.1713
51478SOL     OW61291   5.843   4.694  12.374  0.1250  0.5571 -0.1565
51478SOL    HW161292   5.846   4.782  12.337  0.4647  0.2420 -0.9022
51478SOL    HW261293   5.750   4.672  12.379  0.1061  0.1253 -2.0134
51479SOL     OW61294   7.693   7.660   5.568 -0.4058 -0.4275 -0.2993
51479SOL    HW161295   7.696   7.661   5.472 -0.2087 -1.1276 -0.3057
51479SOL    HW261296   7.632   7.731   5.591  0.2690  0.3724 -0.9014
51480SOL     OW61297   2.096   6.958   9.739 -0.7868 -0.3781  0.3609
51480SOL    HW161298   2.036   6.958   9.813 -0.3301 -0.0838  0.7324
51480SOL    HW261299   2.149   6.880   9.751 -0.2859  0.0082  0.6974
51481SOL     OW61300   2.608   1.785   4.381  0.3499 -0.1253 -0.4006
51481SOL    HW161301   2.597   1.854   4.315 -0.5503 -0.7331 -0.9159
51481SOL    HW261302   2.524   1.783   4.428  0.2593 -1.0459 -0.5770
51482SOL     OW61303   3.769  12.134   4.251 -0.4431 -0.2606  0.4217
51482SOL    HW161304   3.756  12.075   4.176  0.5758 -1.0112  0.8064
51482SOL    HW261305   3.739  12.083   4.326  0.8304 -0.4600  0.8101
51483SOL     OW61306   4.059   1.441   4.366  0.3235 -0.2210  0.2260
51483SOL    HW161307   4.140   1.393   4.353  0.2915 -0.2308  0.0637
51483SOL    HW261308   4.076   1.528   4.331  0.4943 -0.0032  0.8305
51484SOL     OW61309  11.611   8.726   7.454  0.2114  0.1828  1.0668
51484SOL    HW161310  11.638   8.651   7.402 -3.1282 -1.6090  1.6695
51484SOL    HW261311  11.601   8.797   7.391  0.6363 -0.6697  0.0183
51485SOL     OW61312   9.263   6.157   3.298 -0.0058 -0.4349  0.9706
51485SOL    HW161313   9.179   6.129   3.262  0.4350  1.3789 -1.6938
51485SOL    HW261314   9.241   6.226   3.361 -0.4932  0.5071 -0.2181
51486SOL     OW61315   0.119   5.110   4.375  0.6670 -0.1274  0.5988
51486SOL    HW161316   0.193   5.169   4.388  0.2101  0.1649  2.0854
51486SOL    HW261317   0.102   5.074   4.462 -1.1710  0.1126  0.3774
51487SOL     OW61318   3.980   1.966   7.705  0.5676 -0.3127 -0.2863
51487SOL    HW161319   4.037   2.042   7.717 -1.2058  1.2200 -0.9912
51487SOL    HW261320   3.958   1.938   7.794 -1.0753  1.9140  0.1077
51488SOL     OW61321   3.883  10.008   6.524  0.1680  0.4449 -0.0135
51488SOL    HW161322   3.897  10.013   6.619 -0.9106 -1.3129  0.2834
51488SOL    HW261323   3.830  10.085   6.504  0.4363  0.8542  0.7940
51489SOL     OW61324   4.137   1.203   9.713  0.1007  0.7367 -0.3759
51489SOL    HW161325   4.127   1.157   9.630  0.5178 -0.6458  0.3077
51489SOL    HW261326   4.124   1.295   9.691  2.4838  0.6849 -2.3793
51490SOL     OW61327   1.033   8.941   3.263  0.1171  0.7946 -0.1245
51490SOL    HW161328   1.058   9.032   3.245 -0.6045  1.2565  1.0907
51490SOL    HW261329   0.983   8.946   3.344 -0.1746 -0.6634 -0.1969
51491SOL     OW61330  12.028  11.602   1.948 -0.4406 -0.0386  0.4733
51491SOL    HW161331  11.940  11.587   1.984 -1.1971  1.3875 -0.6281
51491SOL    HW261332  12.085  11.606   2.024 -1.3877 -0.6745  1.2415
51492SOL     OW61333   8.354   7.061   4.400 -0.4093 -0.3606 -0.6932
51492SOL    HW161334   8.298   7.000   4.448  0.8706 -2.4945 -1.7556
51492SOL    HW261335   8.310   7.071   4.315 -0.6225  0.2340 -0.5163
51493SOL     OW61336   8.884   4.380   2.132  0.1879  0.5134 -0.6337
51493SOL    HW161337   8.883   4.399   2.038 -1.7151  0.4177 -0.6777
51493SOL    HW261338   8.796   4.404   2.161  0.4379 -0.3856  0.9391
51494SOL     OW61339  10.942   2.283  11.107 -0.0519 -0.0463 -0.3600
51494SOL    HW161340  11.018   2.248  11.062  0.5924  1.7728 -0.7795
51494SOL    HW261341  10.972   2.299  11.196 -0.3643 -0.5877 -0.1497
51495SOL     OW61342   7.887   4.963   2.840 -0.9295  0.2723  0.1118
51495SOL    HW161343   7.841   4.939   2.760 -1.5126  1.2017  0.1626
51495SOL    HW261344   7.864   4.893   2.902 -0.0513 -0.7374 -0.6615
51496SOL     OW61345   8.952   6.272  10.169  0.3328 -0.5311  0.7361
51496SOL    HW161346   8.932   6.364  10.156  1.9330 -0.3909 -1.1766
51496SOL    HW261347   9.022   6.272  10.235  2.4799 -0.0661 -1.4155
51497SOL     OW61348   0.052   5.997   4.230 -0.4878  0.0293 -0.5349
51497SOL    HW161349   0.084   6.079   4.192 -0.1441 -0.4786 -1.3616
51497SOL    HW261350   0.111   5.930   4.195 -0.7506 -0.5722  0.1515
51498SOL     OW61351   7.362   9.410   6.467 -0.0757 -0.5740  0.5557
51498SOL    HW161352   7.384   9.316   6.469 -1.4483 -0.9454 -0.3700
51498SOL    HW261353   7.294   9.417   6.400  1.1917  1.3574 -0.6447
51499SOL     OW61354   1.250   5.489   0.764 -0.3486 -0.4088  0.0956
51499SOL    HW161355   1.181   5.427   0.740 -1.0764  0.4167  0.0018
51499SOL    HW261356   1.315   5.482   0.694 -0.5939 -0.7925 -0.0991
51500SOL     OW61357   1.339   0.029  11.630 -0.7222 -0.1487 -0.5219
51500SOL    HW161358   1.389   0.055  11.708 -0.2173 -1.4282 -0.3831
51500SOL    HW261359   1.380  -0.054  11.602 -0.3517  0.6825 -2.6375
51501SOL     OW61360   3.075   4.775   5.244  0.4026 -0.5126  0.1501
51501SOL    HW161361   3.108   4.712   5.309  2.1387  0.4074  0.1973
51501SOL    HW261362   3.074   4.726   5.162  1.5694 -0.6754  0.2206
51502SOL     OW61363   0.830   1.385   1.355 -0.0930  0.1965 -0.0317
51502SOL    HW161364   0.772   1.460   1.363  1.9288  1.6779  1.5039
51502SOL    HW261365   0.914   1.422   1.329  0.3104 -1.8692 -2.0145
51503SOL     OW61366   2.963   7.193   9.283 -0.3369  0.1745  0.3892
51503SOL    HW161367   2.950   7.283   9.313 -1.1088  0.7267 -1.5120
51503SOL    HW261368   3.038   7.198   9.223  1.1838 -0.9122  2.0823
51504SOL     OW61369   1.993  10.692   4.318  0.0133  0.1697 -0.5812
51504SOL    HW161370   1.992  10.788   4.316  2.0254  0.2727  0.8058
51504SOL    HW261371   2.073  10.668   4.271 -0.5307 -0.8516 -1.0147
51505SOL     OW61372  11.547   4.633   7.435 -0.3286 -0.4714 -0.2296
51505SOL    HW161373  11.491   4.559   7.412 -2.2040  0.0850  2.0218
51505SOL    HW261374  11.605   4.599   7.503  2.0206 -0.9565 -2.3291
51506SOL     OW61375  10.814   9.942   0.784 -0.4499 -0.2445  0.0531
51506SOL    HW161376  10.886   9.882   0.799 -1.0258 -0.7066  1.0858
51506SOL    HW261377  10.853  10.015   0.736  0.2569 -1.4127 -1.2243
51507SOL     OW61378   3.451  12.256   8.025  0.1372 -0.7849 -0.0621
51507SOL    HW161379   3.515  12.202   7.977  1.8794 -1.8288  3.1087
51507SOL    HW261380   3.492  12.342   8.030  0.6642 -1.0756  0.7674
51508SOL     OW61381   5.672   0.588   9.915 -0.8067  0.1492 -1.0818
51508SOL    HW161382   5.675   0.657   9.981  1.0882 -1.5435  0.7734
51508SOL    HW261383   5.580   0.563   9.910 -1.1765  1.1887 -0.0053
51509SOL     OW61384   4.741   5.284   8.236  0.5709  0.0003  0.2256
51509SOL    HW161385   4.678   5.338   8.189 -1.3592 -2.7004 -0.5205
51509SOL    HW261386   4.804   5.257   8.169  0.7815  0.2575  0.3184
51510SOL     OW61387   1.256   3.728  11.757  0.1742 -0.0631  0.3852
51510SOL    HW161388   1.278   3.682  11.676 -2.9187 -0.4610 -0.3703
51510SOL    HW261389   1.268   3.663  11.826 -0.9242 -0.9818 -0.2648
51511SOL     OW61390   2.546  10.436   9.407  0.4786  0.4574  0.0776
51511SOL    HW161391   2.561  10.342   9.397 -0.5641  0.3903 -0.9579
51511SOL    HW261392   2.488  10.459   9.335 -1.8829  1.2810  2.0818
51512SOL     OW61393   0.137   4.534  10.251 -0.2589  0.4260 -0.2159
51512SOL    HW161394   0.209   4.479  10.281  0.4455  1.8527  0.8310
51512SOL    HW261395   0.160   4.558  10.162  1.5092  2.2827  0.6654
51513SOL     OW61396   2.060   8.395   6.679  0.0515  0.2222 -0.7270
51513SOL    HW161397   2.044   8.431   6.767 -0.8848 -0.1612 -0.7345
51513SOL    HW261398   2.149   8.360   6.684  0.0567  0.3201  0.0272
51514SOL     OW61399   7.579   4.586  10.626  0.3543  0.1237 -0.1409
51514SOL    HW161400   7.570   4.650  10.556  0.6196 -0.3867 -0.6444
51514SOL    HW261401   7.489   4.573  10.657  0.0672 -0.5468 -1.2018
51515SOL     OW61402   4.612   5.115  10.371  0.1587  0.4648 -0.1176
51515SOL    HW161403   4.628   5.054  10.299  0.7062 -0.2322  0.5752
51515SOL    HW261404   4.519   5.102  10.392  0.3300 -0.3384  0.1912
51516SOL     OW61405   5.637   3.099   6.248 -0.4514 -0.0539  0.1529
51516SOL    HW161406   5.649   3.193   6.259 -2.0195  0.0780  1.1251
51516SOL    HW261407   5.715   3.069   6.202 -0.6607  1.9833 -1.6877
51517SOL     OW61408  10.591   3.267   2.627  0.2211  0.2561  0.3559
51517SOL    HW161409  10.548   3.184   2.607  0.9464 -1.0244  3.5655
51517SOL    HW261410  10.676   3.261   2.582  0.4641 -0.9875  0.9376
51518SOL     OW61411   4.994   9.735   6.081 -0.4934  0.1310  0.1804
51518SOL    HW161412   4.945   9.799   6.029 -1.1612 -0.2501  0.3404
51518SOL    HW261413   5.077   9.725   6.034 -0.0247  1.7504  0.6056
51519SOL     OW61414   9.323   1.091   8.046 -0.0209 -0.1742 -0.1117
51519SOL    HW161415   9.361   1.149   7.980  0.2893 -0.6996 -0.4083
51519SOL    HW261416   9.393   1.078   8.110  0.8099 -2.1786 -1.3253
51520SOL     OW61417   5.688   7.876   4.142  0.1406 -0.1813 -0.3655
51520SOL    HW161418   5.621   7.821   4.102 -1.1945  2.1246 -1.5257
51520SOL    HW261419   5.668   7.875   4.236 -0.2925 -1.0622 -0.4560
51521SOL     OW61420  11.834   9.065   2.454 -0.0672 -0.1452  0.1316
51521SOL    HW161421  11.853   9.110   2.372  0.1025  0.9555  0.7615
51521SOL    HW261422  11.807   8.977   2.427 -1.2561  0.5784 -1.1773
51522SOL     OW61423   3.259   2.621   7.298  0.1728 -0.1033 -0.3320
51522SOL    HW161424   3.245   2.566   7.221  2.2070 -0.9253 -0.1773
51522SOL    HW261425   3.204   2.698   7.282  1.7499  0.5778 -3.4953
51523SOL     OW61426   7.671   3.596  12.311 -0.5909 -0.0095 -0.2776
51523SOL    HW161427   7.693   3.656  12.383  0.1449 -0.5899 -0.0030
51523SOL    HW261428   7.681   3.509  12.349  0.2335 -0.3294 -1.2055
51524SOL     OW61429   0.089   3.018   4.689  0.2004 -0.3275 -0.2559
51524SOL    HW161430   0.014   2.961   4.674  1.1166 -1.5327 -0.5123
51524SOL    HW261431   0.116   3.047   4.602 -0.2272  0.4584 -0.1291
51525SOL     OW61432   4.974   8.655   4.968 -0.1219  0.1688 -0.4265
51525SOL    HW161433   4.916   8.721   4.930 -1.2280 -0.8962 -0.6478
51525SOL    HW261434   4.948   8.573   4.926  0.4217 -0.6099  0.6974
51526SOL     OW61435   2.108  11.448  12.132 -0.0484  0.4439  0.0558
51526SOL    HW161436   2.088  11.524  12.186 -2.9763  0.7548 -1.2752
51526SOL    HW261437   2.109  11.482  12.043 -0.0519 -0.8330 -0.4453
51527SOL     OW61438   6.378   2.430  10.747  0.2010 -0.0916 -0.1369
51527SOL    HW161439   6.442   2.360  10.754  0.5334  0.3251  1.3472
51527SOL    HW261440   6.423   2.499  10.698  2.7978  2.0997  4.6420
51528SOL     OW61441   6.304   3.492   3.562 -0.1994  0.1563 -0.0953
51528SOL    HW161442   6.372   3.460   3.502  0.3611  3.3654 -1.3937
51528SOL    HW261443   6.353   3.524   3.638 -0.4655  0.3441 -0.0009
51529SOL     OW61444   5.275   5.243   6.424  0.2185  0.5974 -0.9646
51529SOL    HW161445   5.325   5.271   6.348  0.1693  0.9313 -0.8760
51529SOL    HW261446   5.314   5.290   6.498  0.9627 -0.5374 -0.6172
51530SOL     OW61447   3.851  12.475   4.930  0.3755 -1.0156 -0.2281
51530SOL    HW161448   3.838  12.444   5.019  0.7813 -0.0823  0.1696
51530SOL    HW261449   3.792  12.549   4.921 -0.2714 -1.6060 -1.0207
51531SOL     OW61450   5.930   5.888  10.679 -0.2661  0.1578 -0.4677
51531SOL    HW161451   5.987   5.915  10.751  3.6793 -1.2511 -2.7050
51531SOL    HW261452   5.901   5.800  10.703 -0.3484  0.3500  0.1397
51532SOL     OW61453   2.686  10.202   1.102 -0.3282  0.1397 -0.4933
51532SOL    HW161454   2.649  10.286   1.129 -0.5828 -0.5309  1.3941
51532SOL    HW261455   2.768  10.195   1.151 -1.5585 -1.8074  1.4949
51533SOL     OW61456   4.390  10.739   7.781 -0.0642 -0.8300 -0.0662
51533SOL    HW161457   4.392  10.663   7.723  0.1305 -0.3182 -0.7459
51533SOL    HW261458   4.412  10.813   7.724 -2.5778  0.0945  0.0398
51534SOL     OW61459   9.951   2.394   5.078  0.1421 -0.3949  0.3921
51534SOL    HW161460   9.882   2.332   5.099  0.8646 -1.2167  0.3904
51534SOL    HW261461   9.938   2.467   5.139  1.3307 -2.0690  2.7925
51535SOL     OW61462   7.965   3.058   7.135 -0.0455  0.0887 -0.1895
51535SOL    HW161463   7.991   3.060   7.227  0.3455 -0.2469 -0.2928
51535SOL    HW261464   7.914   3.139   7.123  0.3156  0.3771  0.1956
51536SOL     OW61465   0.280   9.767   0.268 -0.2531 -0.2867  0.4702
51536SOL    HW161466   0.317   9.852   0.247 -0.3006  0.0222  1.5901
51536SOL    HW261467   0.337   9.732   0.337 -0.9467 -0.6148  0.8935
51537SOL     OW61468   8.713   2.658   3.942 -0.2000  0.2971 -0.0035
51537SOL    HW161469   8.771   2.629   3.872  0.6329  0.8712  0.4400
51537SOL    HW261470   8.718   2.754   3.939 -0.5169  0.3356  0.5431
51538SOL     OW61471   8.512   0.241   0.808  0.2421  0.2171 -0.5730
51538SOL    HW161472   8.511   0.265   0.715 -0.2408  1.3045 -0.3000
51538SOL    HW261473   8.602   0.261   0.837 -0.1247  1.6856 -0.3719
51539SOL     OW61474   5.338  12.424  11.920  0.1401 -0.8050 -0.2190
51539SOL    HW161475   5.363  12.360  11.986  1.7069 -0.0868 -0.0627
51539SOL    HW261476   5.376  12.390  11.839 -0.3961 -0.8759 -0.4408
51540SOL     OW61477   7.165   3.859   2.986 -0.0993  0.6766 -0.1060
51540SOL    HW161478   7.153   3.897   3.073  0.8151  2.6881 -0.8028
51540SOL    HW261479   7.165   3.934   2.927 -0.1473 -0.6003 -1.7913
51541SOL     OW61480   2.622   4.666   0.245 -0.1372 -0.7919  0.0789
51541SOL    HW161481   2.598   4.758   0.251  0.4537 -0.6917  1.2576
51541SOL    HW261482   2.565   4.622   0.308 -0.1926 -1.1869 -0.2418
51542SOL     OW61483   3.801  12.223  11.255  0.1747 -0.0860  0.6215
51542SOL    HW161484   3.804  12.187  11.343  1.1794 -1.6201  0.0050
51542SOL    HW261485   3.785  12.147  11.198 -2.9249  1.1614 -0.3991
51543SOL     OW61486   0.061   8.109   7.045  0.2450  0.3938  0.2614
51543SOL    HW161487   0.111   8.140   7.120  1.0687 -1.1534  0.3873
51543SOL    HW261488   0.082   8.015   7.039 -0.8354  0.2084 -1.0943
51544SOL     OW61489   3.975   2.294  11.033  0.0848  0.1651  0.4916
51544SOL    HW161490   4.044   2.355  11.009  1.5443 -0.6202  2.4390
51544SOL    HW261491   3.896   2.330  10.992  1.5603  1.2159 -1.5852
51545SOL     OW61492   9.029  12.039   4.844  0.1362  0.4294  0.2833
51545SOL    HW161493   9.039  12.004   4.933 -0.4392  0.4250  0.3487
51545SOL    HW261494   8.935  12.039   4.829  0.2520  0.0081 -0.4977
51546SOL     OW61495  10.108   2.573   8.688 -0.3496 -0.1224  0.1764
51546SOL    HW161496  10.204   2.579   8.694 -0.5011  1.6306  1.4410
51546SOL    HW261497  10.091   2.565   8.595  0.9966  0.3055 -0.1347
51547SOL     OW61498  11.339   7.933   7.097  0.1050 -0.3168  0.3034
51547SOL    HW161499  11.311   7.957   7.008  0.6822  1.2468  0.5108
51547SOL    HW261500  11.260   7.898   7.138 -0.5330  0.2857 -0.3713
51548SOL     OW61501   1.321   0.978   4.258  0.1156 -0.3913  0.7604
51548SOL    HW161502   1.255   1.041   4.288  0.2797 -1.3940  3.5779
51548SOL    HW261503   1.271   0.897   4.244  0.1202 -0.0631 -1.5040
51549SOL     OW61504   2.956  10.630   8.379 -0.0299  0.3117  0.2145
51549SOL    HW161505   3.000  10.609   8.297 -1.6270  0.4834 -0.7093
51549SOL    HW261506   2.880  10.572   8.382 -0.2238  0.5984  1.3791
51550SOL     OW61507  11.735   3.873   6.682 -0.4419  0.2023 -0.1434
51550SOL    HW161508  11.775   3.788   6.662  1.6993  1.3171 -0.8862
51550SOL    HW261509  11.719   3.870   6.777  2.2231 -0.0490  0.3835
51551SOL     OW61510  10.917   6.579  12.156  0.5639 -0.0033 -0.4621
51551SOL    HW161511  10.927   6.670  12.185  1.1818 -0.4587  0.8257
51551SOL    HW261512  10.907   6.585  12.061  1.0699  1.3726 -0.4467
51552SOL     OW61513   6.611   9.895   9.615 -0.5078  0.4590  0.7821
51552SOL    HW161514   6.580   9.805   9.620 -0.9954  0.5616 -0.1842
51552SOL    HW261515   6.563   9.941   9.684 -1.0498  0.1999  0.5840
51553SOL     OW61516   4.280  10.621   1.424  0.1194 -0.4998 -0.3542
51553SOL    HW161517   4.323  10.548   1.379 -2.0319 -2.5237  0.6311
51553SOL    HW261518   4.200  10.635   1.375  0.2976  0.9725 -0.2664
51554SOL     OW61519   1.870   8.434   5.852 -0.0017 -0.0710 -0.1425
51554SOL    HW161520   1.958   8.397   5.847 -0.3634 -0.8076 -1.8972
51554SOL    HW261521   1.853   8.445   5.945  0.4841 -3.5417  0.4951
51555SOL     OW61522   6.005  11.815   0.405  0.0696 -0.0421  1.0227
51555SOL    HW161523   5.993  11.745   0.470 -0.2958 -0.1319  0.8583
51555SOL    HW261524   6.037  11.770   0.327  0.5955  0.0779  1.1643
51556SOL     OW61525   1.865   6.989   1.964 -0.0332  0.3247 -0.4469
51556SOL    HW161526   1.809   7.048   2.015  0.5819 -1.0675  2.0016
51556SOL    HW261527   1.846   6.902   1.999  0.5891 -0.7194 -2.5391
51557SOL     OW61528  10.484   2.337   0.328 -0.2515  0.4548  0.0283
51557SOL    HW161529  10.489   2.316   0.235  1.2386  1.3784 -0.1252
51557SOL    HW261530  10.529   2.265   0.371 -2.4388 -0.8735  0.2234
51558SOL     OW61531   8.397   4.444   8.605  0.4207 -0.8987 -0.1344
51558SOL    HW161532   8.375   4.474   8.693  1.2878 -1.3563  0.2415
51558SOL    HW261533   8.378   4.520   8.549 -0.5362 -0.7440  0.3712
51559SOL     OW61534   0.284   5.385  10.945  0.1520 -0.0265 -0.0182
51559SOL    HW161535   0.237   5.320  10.997  1.1125 -0.0005  0.9237
51559SOL    HW261536   0.271   5.357  10.854  1.4201 -2.1844  0.3885
51560SOL     OW61537  12.565   6.153   0.740  0.5913  0.3365  0.5551
51560SOL    HW161538  12.595   6.074   0.695  2.1370  1.2376 -0.0742
51560SOL    HW261539  12.635   6.174   0.802  0.7187  1.7736 -0.0176
51561SOL     OW61540   0.312   8.806   9.327  0.5353 -0.4175  0.1638
51561SOL    HW161541   0.279   8.870   9.390  0.1991  0.3148 -0.7165
51561SOL    HW261542   0.322   8.857   9.246  0.8185 -1.3622 -0.4041
51562SOL     OW61543   0.341   0.876   3.775 -0.3242  0.2806  0.2475
51562SOL    HW161544   0.381   0.957   3.743 -1.3924  1.2224  1.1899
51562SOL    HW261545   0.343   0.885   3.870 -0.5805 -0.7583  0.3631
51563SOL     OW61546   3.243   9.423  10.712 -0.1114 -0.0560  0.3970
51563SOL    HW161547   3.240   9.330  10.688  1.5113  0.4055 -1.9532
51563SOL    HW261548   3.155   9.455  10.695 -0.5447 -1.0297  0.7303
51564SOL     OW61549   2.566   6.725   1.907 -0.0654  0.3046 -0.7912
51564SOL    HW161550   2.529   6.642   1.877 -0.3568  1.0587 -2.6715
51564SOL    HW261551   2.495   6.765   1.958  0.8028 -1.4691  2.0126
51565SOL     OW61552   9.280   9.002   2.486 -0.2408 -0.5974 -0.4133
51565SOL    HW161553   9.366   8.967   2.504 -0.4949 -1.1817 -0.3366
51565SOL    HW261554   9.286   9.095   2.510  0.8032 -0.2624 -1.8269
51566SOL     OW61555   6.589   4.556  10.375 -0.2548  0.4597 -0.1272
51566SOL    HW161556   6.599   4.562  10.280 -2.6298 -0.4803 -0.5141
51566SOL    HW261557   6.495   4.562  10.390 -0.1226 -1.2046  1.9952
51567SOL     OW61558   8.578   4.664   9.148 -0.3357  0.1638 -0.7990
51567SOL    HW161559   8.591   4.738   9.207 -3.8248  0.3913 -0.1237
51567SOL    HW261560   8.615   4.694   9.064  0.3432  1.7347  0.0171
51568SOL     OW61561   5.696   8.700   2.533  0.2914 -0.3985 -0.3214
51568SOL    HW161562   5.644   8.780   2.529  1.3531  0.3161 -0.2199
51568SOL    HW261563   5.632   8.629   2.520 -0.7488  0.4230  0.1623
51569SOL     OW61564  10.938   7.039   2.930 -0.1963  0.2031 -0.0561
51569SOL    HW161565  10.938   6.976   3.002 -0.8066 -1.8361 -1.7550
51569SOL    HW261566  10.849   7.035   2.894 -0.3357  2.2660 -0.0573
51570SOL     OW61567   9.050   6.226   2.699 -0.0691  0.2055 -0.6655
51570SOL    HW161568   9.144   6.209   2.696 -0.4233 -1.9363 -1.1587
51570SOL    HW261569   9.040   6.295   2.764  1.7932  0.0967 -0.2134
51571SOL     OW61570  10.435  10.372   3.692  0.3681 -0.7043 -0.2528
51571SOL    HW161571  10.394  10.411   3.769  1.4283 -0.7099  0.3398
51571SOL    HW261572  10.439  10.279   3.712  1.2884 -0.6176  0.0110
51572SOL     OW61573   4.749   8.264   8.871 -0.2783 -0.0109 -0.1960
51572SOL    HW161574   4.804   8.291   8.945  2.3641 -0.5719 -1.8582
51572SOL    HW261575   4.716   8.178   8.896  0.1450  0.0296  0.5404
51573SOL     OW61576   7.962  11.510  10.100 -0.2531  0.1058  0.7743
51573SOL    HW161577   8.048  11.515  10.142 -0.4932 -0.8504  1.4082
51573SOL    HW261578   7.946  11.416  10.090 -0.8641  0.2902 -0.1105
51574SOL     OW61579   9.766   0.880   2.686 -0.5258  0.0296  0.0542
51574SOL    HW161580   9.764   0.871   2.591  0.8488 -0.8655  0.0875
51574SOL    HW261581   9.852   0.848   2.712 -0.3762  1.4637  1.4937
51575SOL     OW61582   8.398   6.097   1.809 -0.3586 -0.4804  0.1671
51575SOL    HW161583   8.380   6.088   1.903 -0.0097  2.2305  0.5686
51575SOL    HW261584   8.321   6.141   1.774 -0.2951 -1.0837 -0.7756
51576SOL     OW61585  11.364  10.692   2.404 -0.1517  0.7307  0.6975
51576SOL    HW161586  11.349  10.755   2.333 -0.4294  1.4997  1.4200
51576SOL    HW261587  11.281  10.689   2.451 -0.2454 -0.4371  0.4806
51577SOL     OW61588  11.957   7.715   8.239 -0.0076 -0.4315 -0.3065
51577SOL    HW161589  12.047   7.700   8.212  0.8441  0.5634  1.7664
51577SOL    HW261590  11.959   7.800   8.284 -1.9073 -0.5520  0.0969
51578SOL     OW61591   8.410   2.718   6.962 -0.0365 -0.4231 -0.2392
51578SOL    HW161592   8.349   2.654   6.927  2.5105 -3.0306 -0.3439
51578SOL    HW261593   8.474   2.732   6.892  0.5408  0.7613  0.4806
51579SOL     OW61594   3.173   8.894  11.568  0.0965 -0.1639 -0.2484
51579SOL    HW161595   3.188   8.959  11.637  1.7633 -0.4282 -0.3131
51579SOL    HW261596   3.220   8.816  11.598 -2.8785 -1.8537  0.4408
51580SOL     OW61597   4.308   5.918  12.491  0.0306 -0.3078  0.3555
51580SOL    HW161598   4.327   5.897  12.400 -0.6383  0.9722 -0.1124
51580SOL    HW261599   4.250   5.848  12.521  1.3005 -1.4438  0.2194
51581SOL     OW61600   4.900  12.459   9.196 -0.2747 -0.0707  0.2933
51581SOL    HW161601   4.805  12.454   9.187 -0.8937  0.5586  4.4931
51581SOL    HW261602   4.916  12.538   9.247  2.5209 -0.3592  0.0431
51582SOL     OW61603   1.369   5.993   5.778  0.6075  0.4886  0.6231
51582SOL    HW161604   1.370   5.957   5.867  3.2063 -0.9819  0.1115
51582SOL    HW261605   1.306   6.065   5.782 -2.0714 -1.7276  2.6999
51583SOL     OW61606   7.529   8.736   8.857 -0.2009  0.2053 -0.2098
51583SOL    HW161607   7.583   8.729   8.779  1.3600  0.0453  0.8376
51583SOL    HW261608   7.439   8.742   8.824  0.5677  3.9939 -2.2115
51584SOL     OW61609   8.157   5.590   3.570  0.4590  0.4740 -0.0546
51584SOL    HW161610   8.240   5.554   3.538  1.0444  0.5208  1.3379
51584SOL    HW261611   8.119   5.519   3.622  1.1589  1.4649  1.9087
51585SOL     OW61612   8.584   5.769  11.456  0.0603 -0.0821 -0.3263
51585SOL    HW161613   8.639   5.830  11.407  0.6605 -0.7236 -0.4743
51585SOL    HW261614   8.588   5.800  11.546 -0.4608  0.6810 -0.5526
51586SOL     OW61615  11.428   5.370   5.080 -0.2599  0.4434  0.2608
51586SOL    HW161616  11.407   5.349   4.989 -1.4599 -0.9285  0.8211
51586SOL    HW261617  11.447   5.464   5.078 -2.6507  0.9989 -1.0375
51587SOL     OW61618   9.903   0.546   8.202 -0.3610  0.2664  0.0803
51587SOL    HW161619   9.944   0.460   8.208  0.4837  0.6079 -0.6196
51587SOL    HW261620   9.835   0.536   8.136 -0.5059  0.0443  0.2633
51588SOL     OW61621   7.237   3.327   2.255 -0.3559 -0.6152  0.0059
51588SOL    HW161622   7.191   3.270   2.317  1.8368 -0.8335  1.5654
51588SOL    HW261623   7.325   3.335   2.292  1.0481 -0.6908 -3.0777
51589SOL     OW61624   8.657  12.286   7.093  0.1477  0.9240  0.0090
51589SOL    HW161625   8.663  12.196   7.059 -2.0615  0.5599  0.4178
51589SOL    HW261626   8.730  12.332   7.052  0.9004 -0.8783 -0.7808
51590SOL     OW61627   5.345  10.066   4.856  0.3967  0.3954 -0.2484
51590SOL    HW161628   5.272  10.084   4.915 -0.2131  0.0471 -0.8712
51590SOL    HW261629   5.322   9.982   4.816  1.1222  0.3050 -0.4862
51591SOL     OW61630   7.935   9.165   7.376 -0.0303 -0.0964 -0.2716
51591SOL    HW161631   7.918   9.139   7.467 -0.4234 -2.3195 -0.9142
51591SOL    HW261632   7.925   9.260   7.376 -0.6177 -0.1004  1.8812
51592SOL     OW61633   9.635  10.453   6.669 -0.0607 -0.5900 -0.0528
51592SOL    HW161634   9.683  10.444   6.587  1.0563 -1.3877  0.6590
51592SOL    HW261635   9.702  10.475   6.734 -0.8680 -0.3197  0.7222
51593SOL     OW61636   0.944   3.271   0.941 -0.6087  0.5084  0.3620
51593SOL    HW161637   0.986   3.353   0.968  0.3173 -0.3638  1.7730
51593SOL    HW261638   0.893   3.244   1.018 -1.7088  0.2577 -0.4402
51594SOL     OW61639   1.187   1.455   0.411 -0.2774 -0.1508  0.7779
51594SOL    HW161640   1.268   1.465   0.361 -0.7322 -0.0830  0.0400
51594SOL    HW261641   1.213   1.405   0.489 -0.2085 -4.0253 -1.4673
51595SOL     OW61642   2.277   7.192   7.780  0.3428 -0.0312 -0.6398
51595SOL    HW161643   2.322   7.198   7.696  2.5509 -0.1456  0.4633
51595SOL    HW261644   2.344   7.214   7.845 -0.3893 -2.9627  1.3060
51596SOL     OW61645   0.382   2.134   6.991 -0.6464  0.2092 -0.4758
51596SOL    HW161646   0.398   2.164   6.902 -2.2566 -1.1299 -1.2555
51596SOL    HW261647   0.386   2.039   6.986  0.8717  0.1117  1.2433
51597SOL     OW61648  10.450   7.867   7.391 -0.0796  0.5860  0.2740
51597SOL    HW161649  10.512   7.799   7.418  0.6304  0.6639 -1.0476
51597SOL    HW261650  10.367   7.821   7.379  0.1271  0.1616  0.4440
51598SOL     OW61651   3.272   4.702   9.105 -0.2458 -0.0178  0.5097
51598SOL    HW161652   3.257   4.678   9.197 -0.9812 -0.8867  0.1850
51598SOL    HW261653   3.364   4.683   9.090 -0.5017 -1.4830  0.6376
51599SOL     OW61654   3.218   7.392  10.081 -0.1669  0.5536 -0.0833
51599SOL    HW161655   3.154   7.454  10.117  0.7180  0.3799  1.9425
51599SOL    HW261656   3.300   7.415  10.124  0.8773 -0.0334 -1.6819
51600SOL     OW61657   9.227   9.651   5.867 -0.2285  0.1113  0.0471
51600SOL    HW161658   9.161   9.687   5.807 -0.3607  0.2092  0.2487
51600SOL    HW261659   9.177   9.630   5.946  0.2084  1.4283  0.6919
51601SOL     OW61660  10.251   5.448   2.964  0.3347 -0.1340 -0.1908
51601SOL    HW161661  10.291   5.524   3.007  0.9603 -1.5039  1.7389
51601SOL    HW261662  10.324   5.388   2.949 -0.4902 -1.3284  0.4498
51602SOL     OW61663   1.401   0.368  10.211  0.2548 -0.0440  0.1343
51602SOL    HW161664   1.402   0.409  10.124 -0.4301  0.3549  0.3094
51602SOL    HW261665   1.463   0.295  10.204 -0.1791 -0.3269 -0.8370
51603SOL     OW61666   4.028   9.535   6.092  0.0923 -0.2094  0.1748
51603SOL    HW161667   4.029   9.573   6.004 -0.2939 -0.8888 -0.1337
51603SOL    HW261668   4.112   9.561   6.130  0.6448 -0.6268 -0.7144
51604SOL     OW61669  10.273  11.134   3.587 -0.4650 -0.1997 -0.2484
51604SOL    HW161670  10.252  11.227   3.599  1.3627  0.1968  0.2019
51604SOL    HW261671  10.352  11.120   3.640 -1.0754 -2.1860  0.2202
51605SOL     OW61672   9.050   5.742   4.215 -0.1098 -0.1328 -0.1729
51605SOL    HW161673   9.005   5.770   4.136 -1.8113  0.0449  0.8012
51605SOL    HW261674   9.089   5.821   4.251  1.5705 -0.3901 -1.3425
51606SOL     OW61675   1.060   9.429   6.596  0.0074  0.3229 -0.6613
51606SOL    HW161676   1.092   9.359   6.653 -1.8951 -0.2666 -0.2404
51606SOL    HW261677   1.125   9.498   6.604  0.1504  0.0092  1.7483
51607SOL     OW61678   2.447  11.572   2.882  0.5967 -0.0748  0.0176
51607SOL    HW161679   2.497  11.653   2.887 -0.9945  0.9972 -0.5761
51607SOL    HW261680   2.448  11.549   2.789  1.0296 -0.7538  0.1805
51608SOL     OW61681   5.938   8.304   9.707  0.1473 -0.4560  0.2494
51608SOL    HW161682   5.939   8.399   9.697 -0.5058 -0.1273  2.5851
51608SOL    HW261683   5.963   8.270   9.622  0.9901  1.8225 -0.4784
51609SOL     OW61684  12.430   0.229  11.506 -0.0705  0.6445  0.4801
51609SOL    HW161685  12.466   0.252  11.421  1.0427 -1.6335  0.2497
51609SOL    HW261686  12.451   0.303  11.563  2.4225  0.6635 -0.3654
51610SOL     OW61687   4.418   4.511   9.559 -0.1325 -0.2763  0.7238
51610SOL    HW161688   4.412   4.597   9.517  0.1813 -0.3789  0.4642
51610SOL    HW261689   4.426   4.450   9.486 -0.6773 -0.5539  0.9001
51611SOL     OW61690   3.619   6.221   9.584  0.3280  0.0695  0.3034
51611SOL    HW161691   3.663   6.137   9.593  1.3123  0.5239 -0.1005
51611SOL    HW261692   3.632   6.264   9.669 -0.1084 -0.1467  0.4832
51612SOL     OW61693   0.396   1.801   3.170  0.3240 -0.7895 -0.0875
51612SOL    HW161694   0.391   1.887   3.128  3.3317  1.0559  2.8557
51612SOL    HW261695   0.325   1.801   3.235  1.4450  0.3520  1.1926
51613SOL     OW61696   5.341   2.720   6.460  0.1058 -0.0213  0.4109
51613SOL    HW161697   5.248   2.741   6.454  0.0790 -0.4408 -0.9214
51613SOL    HW261698   5.386   2.803   6.442  0.0017  0.2255  1.2502
51614SOL     OW61699  11.749   9.378   4.571  0.1905  0.2501  0.3815
51614SOL    HW161700  11.720   9.425   4.649 -0.0792  0.5394  0.1086
51614SOL    HW261701  11.795   9.443   4.519  1.2781 -0.1864  0.7674
51615SOL     OW61702  10.661   1.331   2.496  0.5190 -0.3619  0.3014
51615SOL    HW161703  10.711   1.409   2.521  1.4338 -1.2176  1.2536
51615SOL    HW261704  10.590   1.325   2.560  0.2109 -0.0906 -0.0142
51616SOL     OW61705   0.717   6.254   8.074  0.0128  0.3273  0.4643
51616SOL    HW161706   0.806   6.287   8.064  0.1752 -0.5373 -1.4864
51616SOL    HW261707   0.661   6.326   8.044  0.0867  0.5706  0.9011
51617SOL     OW61708   9.811   8.602   6.042 -0.4937  0.4008 -0.2571
51617SOL    HW161709   9.905   8.606   6.022 -0.7318 -0.6724 -1.6858
51617SOL    HW261710   9.773   8.674   5.992 -0.3834  1.2475  0.8280
51618SOL     OW61711   9.928  11.275   9.405  0.0746  0.5213 -0.3306
51618SOL    HW161712   9.834  11.288   9.422 -0.2697  0.2799 -1.9438
51618SOL    HW261713   9.970  11.351   9.445 -0.9715  1.4949 -1.0282
51619SOL     OW61714  11.041   6.052   2.474  0.5185  0.6345  0.1922
51619SOL    HW161715  11.078   5.988   2.413  1.9599  0.8040  0.8352
51619SOL    HW261716  10.947   6.052   2.455  0.9449  0.9382 -2.2565
51620SOL     OW61717   5.073  10.109   1.685 -0.2291  0.3443  0.5726
51620SOL    HW161718   5.050  10.016   1.678 -0.5714  0.4842 -0.3365
51620SOL    HW261719   4.989  10.153   1.701 -0.2925  0.6284 -0.4516
51621SOL     OW61720  11.501   5.426  11.699  0.0572 -0.1010 -0.1022
51621SOL    HW161721  11.574   5.400  11.644 -1.6055 -1.7555 -1.6875
51621SOL    HW261722  11.491   5.520  11.685 -1.8625 -0.7477 -4.8668
51622SOL     OW61723   1.473   0.743  12.389  0.4724  0.5438 -0.2987
51622SOL    HW161724   1.398   0.779  12.436  0.4321 -1.2489  1.1280
51622SOL    HW261725   1.434   0.702  12.311  0.0286  0.1801  0.1054
51623SOL     OW61726   5.714   5.443   8.408  0.4162  0.2882  0.4845
51623SOL    HW161727   5.689   5.504   8.339  0.3714 -0.7727 -0.4645
51623SOL    HW261728   5.804   5.467   8.430  0.1704  1.1193  0.6046
51624SOL     OW61729   8.910   4.310  10.009 -0.1906 -0.3628  0.2387
51624SOL    HW161730   8.987   4.319   9.952 -1.4585 -0.2023 -1.5301
51624SOL    HW261731   8.839   4.288   9.949 -1.6036 -0.1580  1.7857
51625SOL     OW61732   8.451  11.510   0.707 -0.0189 -0.1778 -0.2436
51625SOL    HW161733   8.439  11.430   0.657 -0.1492  0.0845 -0.6358
51625SOL    HW261734   8.409  11.578   0.655 -0.4815  0.0377  0.3979
51626SOL     OW61735   8.837   3.400   2.326  0.2269 -0.5913 -0.4038
51626SOL    HW161736   8.794   3.384   2.241  0.7896 -0.4406 -0.7183
51626SOL    HW261737   8.821   3.319   2.375 -1.3980 -0.1201 -0.0857
51627SOL     OW61738   7.795  11.441   9.863 -0.2859  0.2361 -0.0555
51627SOL    HW161739   7.819  11.519   9.814 -0.8063 -0.1011 -0.8728
51627SOL    HW261740   7.846  11.446   9.943 -1.5367  2.3006  0.6997
51628SOL     OW61741   1.845   9.585  10.131 -0.3554  0.2304  0.3351
51628SOL    HW161742   1.827   9.583  10.037 -0.7555  1.3805  0.3688
51628SOL    HW261743   1.819   9.673  10.158 -1.8269 -0.6060  1.8346
51629SOL     OW61744   0.532   4.004   7.366 -0.0950 -0.4379  0.0741
51629SOL    HW161745   0.527   4.039   7.455 -0.5779 -2.6160  0.9771
51629SOL    HW261746   0.605   4.050   7.326 -0.3137  1.1170  1.3393
51630SOL     OW61747  10.946   8.375   8.862  0.4054 -0.2928  0.5446
51630SOL    HW161748  10.918   8.419   8.943  1.5936  0.5329  0.5357
51630SOL    HW261749  10.988   8.294   8.893  0.5317 -0.1565  0.7322
51631SOL     OW61750  10.639   4.127   1.782 -0.3652 -0.2971  0.3502
51631SOL    HW161751  10.544   4.116   1.787 -0.6199  0.7284 -1.4037
51631SOL    HW261752  10.651   4.209   1.735  1.3932 -1.0588 -0.6114
51632SOL     OW61753   5.449   6.639   3.290 -0.2436  0.0203 -0.5301
51632SOL    HW161754   5.536   6.659   3.256  0.1753 -0.9278 -0.0532
51632SOL    HW261755   5.436   6.546   3.270  0.2297 -0.7202  2.2652
51633SOL     OW61756   7.017   9.849   0.732  0.4594 -0.2973 -0.3607
51633SOL    HW161757   6.982   9.761   0.720  0.7807 -0.3918 -0.6361
51633SOL    HW261758   6.962   9.905   0.678  0.6778 -0.4294 -0.7197
51634SOL     OW61759   6.047   5.811   5.409  0.1104 -0.5548 -0.5759
51634SOL    HW161760   6.105   5.859   5.468  0.0362  0.4422 -1.2881
51634SOL    HW261761   5.982   5.770   5.466  0.1803  0.2025  0.0597
51635SOL     OW61762  10.966   9.046   2.797  0.1107  0.3914 -0.3656
51635SOL    HW161763  10.927   9.103   2.863  0.7072  0.6228 -0.2093
51635SOL    HW261764  10.926   8.960   2.814 -0.2416  0.5972 -0.1341
51636SOL     OW61765   9.879   7.054   2.135 -0.3185  0.6142  0.4128
51636SOL    HW161766   9.974   7.058   2.148 -0.2764  0.2172  0.2489
51636SOL    HW261767   9.867   6.990   2.065 -0.7708 -0.1334  1.1468
51637SOL     OW61768   4.846   8.422   1.646  0.3446  0.1490 -0.0230
51637SOL    HW161769   4.859   8.489   1.580 -1.8571 -0.2849 -0.9518
51637SOL    HW261770   4.845   8.340   1.597  2.1605 -0.5467  1.0016
51638SOL     OW61771   0.278   6.065  10.968 -0.0699 -0.2503  0.0654
51638SOL    HW161772   0.239   6.138  10.919 -1.1993 -1.4155 -0.8277
51638SOL    HW261773   0.352   6.036  10.914 -0.2996 -0.4765 -0.1270
51639SOL     OW61774   0.433   4.810  10.246  0.2708  0.3131  0.3856
51639SOL    HW161775   0.380   4.888  10.257  0.1209  0.5298 -1.5455
51639SOL    HW261776   0.522   4.839  10.269  0.2627  1.1406 -0.5499
51640SOL     OW61777   9.502   7.589   7.340 -0.4398 -0.4520  0.1493
51640SOL    HW161778   9.516   7.658   7.274 -0.7922 -0.9874 -0.4973
51640SOL    HW261779   9.420   7.547   7.314  0.5430 -2.1346 -0.4050
51641SOL     OW61780   1.218   1.223   6.865  0.2848  0.0606  0.3067
51641SOL    HW161781   1.136   1.261   6.896  0.0833 -0.9123  0.9873
51641SOL    HW261782   1.261   1.190   6.944  0.9823 -0.1110 -0.1338
51642SOL     OW61783   3.226  11.033   0.269  0.3598  0.0328 -0.2948
51642SOL    HW161784   3.321  11.033   0.267  0.3780  0.2958 -2.6449
51642SOL    HW261785   3.202  11.125   0.279  0.2805 -0.1520  1.7136
51643SOL     OW61786   9.328   2.525   5.153  0.2428  0.1846  0.2218
51643SOL    HW161787   9.251   2.524   5.095  1.7779 -0.6616 -1.9308
51643SOL    HW261788   9.323   2.610   5.197 -2.1145 -0.0048  0.4466
51644SOL     OW61789  10.238   3.691   1.310 -0.0128  0.3250 -0.2162
51644SOL    HW161790  10.151   3.718   1.283 -0.9857 -0.8494  1.5289
51644SOL    HW261791  10.255   3.740   1.390  0.5616 -0.0749 -0.0813
51645SOL     OW61792  11.442   2.005   0.128 -0.0370  0.2562  0.3643
51645SOL    HW161793  11.390   1.984   0.206 -0.6149 -0.9004 -0.2960
51645SOL    HW261794  11.528   1.968   0.146 -0.8489 -2.2761 -0.4939
51646SOL     OW61795   6.955   8.421   7.518  0.4746  0.5354 -0.1304
51646SOL    HW161796   6.966   8.378   7.603 -1.7594 -0.0970 -0.1118
51646SOL    HW261797   6.875   8.472   7.527 -0.4213 -0.4186 -2.1677
51647SOL     OW61798   6.366   4.224   0.445  0.2646  0.1726  0.0296
51647SOL    HW161799   6.305   4.155   0.470  1.7865 -1.2167  0.1065
51647SOL    HW261800   6.361   4.229   0.350  0.1469 -0.0424  0.0259
51648SOL     OW61801  10.180   8.275   6.984  0.0361 -0.1787  0.1478
51648SOL    HW161802  10.270   8.255   7.012  0.1640  0.3076  0.1034
51648SOL    HW261803  10.171   8.369   7.001 -0.6963 -0.3594  0.7791
51649SOL     OW61804   7.165   5.550   9.835 -0.1367  0.0744  0.2065
51649SOL    HW161805   7.072   5.532   9.819  0.1254  0.4639 -1.9494
51649SOL    HW261806   7.201   5.466   9.862 -0.4345 -0.9635 -2.4140
51650SOL     OW61807  11.742   1.577  11.256 -0.0191  0.0684 -0.5613
51650SOL    HW161808  11.721   1.578  11.162  0.3375  0.0333 -0.6432
51650SOL    HW261809  11.786   1.660  11.272  0.6637 -0.2757 -0.6049
51651SOL     OW61810   1.300  11.333   9.929 -0.5631 -0.9033 -0.4849
51651SOL    HW161811   1.228  11.377   9.974  0.1726  0.1194 -0.2658
51651SOL    HW261812   1.327  11.395   9.862  0.8371 -0.7828  0.1643
51652SOL     OW61813   8.128   2.224   5.103  0.2966 -0.4265 -0.0124
51652SOL    HW161814   8.047   2.257   5.064  0.6132 -0.6821 -0.8980
51652SOL    HW261815   8.103   2.141   5.145  0.1792 -0.7021 -0.6269
51653SOL     OW61816   8.545   3.323   3.316 -0.2861  0.6439  0.5554
51653SOL    HW161817   8.570   3.380   3.389  0.0611 -1.0351  1.8122
51653SOL    HW261818   8.576   3.236   3.341  0.9671  0.1934 -2.1730
51654SOL     OW61819   5.735   4.610  10.961  0.0591  0.6038 -0.2271
51654SOL    HW161820   5.772   4.528  10.993 -1.3144 -0.1277 -0.4160
51654SOL    HW261821   5.797   4.678  10.989 -0.0151 -0.2170  2.0816
51655SOL     OW61822   8.020   5.154   2.671  0.2320  0.4989  0.2551
51655SOL    HW161823   7.996   5.082   2.730  1.9875  0.8818  1.4980
51655SOL    HW261824   7.937   5.182   2.632 -0.6317 -1.4686  0.5692
51656SOL     OW61825   3.562   5.547   7.837 -0.4924  0.9340  1.0609
51656SOL    HW161826   3.615   5.562   7.758  0.0295 -0.3268  1.1417
51656SOL    HW261827   3.477   5.585   7.817 -0.6743 -0.2319 -0.5056
51657SOL     OW61828  10.220   7.038   0.107  0.6061 -0.0554 -0.7877
51657SOL    HW161829  10.149   7.029   0.044  0.4036  1.1876 -0.7688
51657SOL    HW261830  10.175   7.037   0.192  0.9797 -2.9573 -0.5100
51658SOL     OW61831   5.188   9.767   8.457  0.0789 -0.0422  0.0301
51658SOL    HW161832   5.129   9.834   8.423 -0.0337 -1.2642 -2.4097
51658SOL    HW261833   5.273   9.812   8.465 -0.6402  1.1694  1.5793
51659SOL     OW61834   2.979  11.066   2.148  0.5534  0.5930 -0.3450
51659SOL    HW161835   2.992  11.006   2.222  0.1891  1.6389  0.6016
51659SOL    HW261836   3.038  11.034   2.080  0.3616 -0.8397  0.1214
51660SOL     OW61837   6.244   1.953  10.559  0.9135  0.1472 -0.1455
51660SOL    HW161838   6.202   1.868  10.577  0.4988  0.3129 -0.3116
51660SOL    HW261839   6.173   2.016  10.567  1.7248  0.8380  2.6833
51661SOL     OW61840  10.174   7.430   3.649  0.3831 -0.2556 -0.0326
51661SOL    HW161841  10.096   7.419   3.703  0.4668  0.8492  0.3406
51661SOL    HW261842  10.167   7.361   3.583 -0.7631 -0.3518  0.1594
51662SOL     OW61843   2.635  12.111   7.877 -0.6927  0.1105  0.0389
51662SOL    HW161844   2.662  12.078   7.791  0.1403  0.7694  0.0346
51662SOL    HW261845   2.541  12.095   7.880 -0.5803 -0.7988 -0.6027
51663SOL     OW61846   8.227   2.199   4.715  0.0569 -0.2096  0.3523
51663SOL    HW161847   8.317   2.204   4.747  0.6937 -0.4101 -1.3097
51663SOL    HW261848   8.195   2.115   4.747  0.5756 -0.2953  0.6606
51664SOL     OW61849   2.126   9.910   5.312 -0.2931 -0.2128 -0.4001
51664SOL    HW161850   2.168   9.926   5.228 -0.5705 -0.9332 -0.6823
51664SOL    HW261851   2.143   9.817   5.330 -0.2058 -0.0579  0.3555
51665SOL     OW61852   0.698   7.747   7.488 -0.5047 -0.1431 -0.8388
51665SOL    HW161853   0.730   7.689   7.557  2.2494 -1.0569 -2.7113
51665SOL    HW261854   0.775   7.797   7.462 -1.8075  1.1795 -2.3141
51666SOL     OW61855   6.708   3.318  10.864  0.5453 -0.8364 -0.1229
51666SOL    HW161856   6.635   3.272  10.904  0.7008  0.0666  1.2460
51666SOL    HW261857   6.676   3.407  10.850  1.7719 -0.0631  1.7206
51667SOL     OW61858   1.625   6.193   4.881 -0.2407  0.1340 -0.5990
51667SOL    HW161859   1.559   6.154   4.824  0.1554 -1.2860 -0.1084
51667SOL    HW261860   1.706   6.191   4.830 -0.1504  0.0312 -0.4514
51668SOL     OW61861   2.572   6.853   5.959 -0.2918  0.6580 -0.5017
51668SOL    HW161862   2.516   6.801   6.017 -0.1410  1.3966  0.3322
51668SOL    HW261863   2.621   6.788   5.909 -1.5341 -0.0016 -0.9115
51669SOL     OW61864   4.142   1.307   7.830  0.1702 -0.3655  0.4303
51669SOL    HW161865   4.065   1.364   7.823 -0.7885 -1.6243  0.2571
51669SOL    HW261866   4.106   1.222   7.856  1.6529 -0.6832  1.5567
51670SOL     OW61867   4.028  12.257   6.406 -0.2362 -0.1068 -0.1409
51670SOL    HW161868   4.017  12.350   6.388 -0.8476 -0.0300  0.5779
51670SOL    HW261869   3.974  12.213   6.339  0.6140  0.0209 -0.9199
51671SOL     OW61870   6.098   4.069  10.838  0.1507 -0.4847 -0.1459
51671SOL    HW161871   6.159   4.014  10.888 -1.1212 -2.9797 -1.1460
51671SOL    HW261872   6.130   4.064  10.748  0.8461  1.7115 -0.0663
51672SOL     OW61873   1.255  12.451   0.320  0.2265  0.0023  0.3728
51672SOL    HW161874   1.248  12.419   0.230  0.5195 -0.9671  0.6876
51672SOL    HW261875   1.329  12.513   0.317 -1.2091  1.7718 -0.5325
51673SOL     OW61876   0.182   2.410   8.513 -0.3636 -0.2700  0.2157
51673SOL    HW161877   0.204   2.441   8.602 -1.0343  0.8060  0.0189
51673SOL    HW261878   0.247   2.452   8.457 -2.9962  3.4306 -0.4532
51674SOL     OW61879   8.903   2.333   3.970 -0.3764 -0.0154  0.4086
51674SOL    HW161880   8.988   2.358   3.933 -0.6986  1.3039  0.5417
51674SOL    HW261881   8.918   2.330   4.065 -0.9859  2.4382  0.6472
51675SOL     OW61882   2.559  10.114  10.163 -0.2918  0.2007  0.0296
51675SOL    HW161883   2.636  10.171  10.159 -0.0120 -0.1921 -0.2711
51675SOL    HW261884   2.553  10.075  10.076 -1.0913  0.5608 -0.0853
51676SOL     OW61885   4.871   4.082  12.523  0.9321  0.4359  0.4907
51676SOL    HW161886   4.964   4.081  12.544  1.2632  0.5534 -0.9090
51676SOL    HW261887   4.834   4.151  12.580  2.0039  1.5909 -0.1789
51677SOL     OW61888  12.346   8.537   8.386 -0.2795  0.1188  0.5923
51677SOL    HW161889  12.427   8.550   8.437 -0.0228  1.0221 -0.0193
51677SOL    HW261890  12.330   8.443   8.390  0.3805  0.0253  1.3609
51678SOL     OW61891   3.225   3.458  10.249 -0.3764 -0.2447 -0.2831
51678SOL    HW161892   3.199   3.413  10.330  0.7332  0.1260  0.3064
51678SOL    HW261893   3.165   3.532  10.243 -0.2280 -0.0513  0.4375
51679SOL     OW61894   2.555   3.608   5.735 -0.0447 -0.1490 -0.2485
51679SOL    HW161895   2.484   3.578   5.792  0.7815 -2.0368 -0.1399
51679SOL    HW261896   2.573   3.697   5.765  0.3482 -1.0404  2.4564
51680SOL     OW61897   4.699   6.449   5.617 -0.1756  0.0524  0.0980
51680SOL    HW161898   4.694   6.405   5.702 -2.0318  0.8493  0.4374
51680SOL    HW261899   4.611   6.484   5.602  0.5671  1.4459 -1.3452
51681SOL     OW61900   8.409   3.135   5.417 -0.0385  0.3120 -0.3329
51681SOL    HW161901   8.381   3.068   5.356 -0.1158  0.2306 -0.2096
51681SOL    HW261902   8.365   3.112   5.499 -0.8547  1.0697 -0.5434
51682SOL     OW61903   1.267   3.943   8.328 -0.2719 -0.1316 -0.3634
51682SOL    HW161904   1.304   3.924   8.242  0.2332 -1.0252  0.0341
51682SOL    HW261905   1.287   4.035   8.343  0.6721 -0.2720 -0.7031
51683SOL     OW61906   3.699   3.786   1.579 -0.1004 -0.1165  0.6428
51683SOL    HW161907   3.776   3.757   1.531  0.0440  0.9053  0.2303
51683SOL    HW261908   3.644   3.829   1.513  0.0331  1.1748  1.3451
51684SOL     OW61909   5.152   1.356  11.396 -0.0871  0.3003 -0.3668
51684SOL    HW161910   5.164   1.435  11.343 -0.2717  1.7266  1.5788
51684SOL    HW261911   5.062   1.361  11.427 -0.2333 -0.9183 -0.5574
51685SOL     OW61912   3.356   6.380  10.214 -0.1887  0.1362 -0.5045
51685SOL    HW161913   3.393   6.394  10.127 -0.3935  0.5718 -0.5271
51685SOL    HW261914   3.422   6.415  10.274 -0.9305  1.7973 -0.5842
51686SOL     OW61915   4.729  10.702   5.968 -0.0538  0.5309  0.6433
51686SOL    HW161916   4.745  10.647   6.044  0.8031 -0.6953 -0.3874
51686SOL    HW261917   4.765  10.787   5.993 -0.4026  0.3469  1.8492
51687SOL     OW61918   1.756   7.982   4.772  0.5357 -0.1141 -0.2127
51687SOL    HW161919   1.807   7.996   4.693  1.0989  1.4592  0.3982
51687SOL    HW261920   1.821   7.960   4.839  0.2331  0.1973  0.1868
51688SOL     OW61921   2.708  10.176  10.865  0.0766 -0.2811 -0.9024
51688SOL    HW161922   2.627  10.183  10.815 -0.2188 -0.7007 -0.5021
51688SOL    HW261923   2.750  10.261  10.856  0.2218 -0.4654 -2.1716
51689SOL     OW61924  11.521   5.981  11.312 -0.2682 -0.4084 -0.1026
51689SOL    HW161925  11.453   6.048  11.306  1.9283  2.0556  0.4456
51689SOL    HW261926  11.602   6.027  11.289  1.2988 -3.0911 -0.3813
51690SOL     OW61927  10.365   8.586   7.279 -0.5539 -0.7136 -0.4302
51690SOL    HW161928  10.418   8.664   7.263 -1.3233 -0.2064 -0.5741
51690SOL    HW261929  10.413   8.538   7.347 -1.2779  1.1173  1.4866
51691SOL     OW61930   9.865  11.980  11.019 -0.2285 -0.0519  0.1051
51691SOL    HW161931   9.804  12.032  10.966 -0.6758 -1.0565 -0.3961
51691SOL    HW261932   9.952  12.015  10.997 -0.3922 -0.4821 -1.3731
51692SOL     OW61933   4.266  10.529   4.142  0.0248 -0.0166  0.3893
51692SOL    HW161934   4.329  10.530   4.214  0.5187 -3.1651  0.1175
51692SOL    HW261935   4.184  10.559   4.182  0.1820 -2.0454  2.4512
51693SOL     OW61936   4.015   9.818   3.208  0.6737  0.0303 -0.1221
51693SOL    HW161937   4.050   9.786   3.125  1.9225 -0.8455  0.7003
51693SOL    HW261938   3.939   9.763   3.225  1.7424 -1.3606  0.3818
51694SOL     OW61939   4.315   8.099  10.817 -0.6193 -0.3217  0.4532
51694SOL    HW161940   4.237   8.104  10.872 -1.5099 -0.5045 -0.7537
51694SOL    HW261941   4.385   8.138  10.870 -1.3474 -0.8724  1.8628
51695SOL     OW61942   5.119   0.838   6.863 -0.1550 -0.5898  0.2472
51695SOL    HW161943   5.165   0.862   6.783  1.3680 -2.2918  0.5417
51695SOL    HW261944   5.037   0.799   6.832 -0.6393  0.8238 -0.3538
51696SOL     OW61945   3.985   7.239   8.742 -0.3893 -0.0130 -0.0125
51696SOL    HW161946   3.917   7.295   8.780  1.3041  1.3389  1.1811
51696SOL    HW261947   3.989   7.163   8.801 -0.7926 -0.0634 -0.0465
51697SOL     OW61948   6.628  11.484   1.040  0.1241 -0.0043  0.4482
51697SOL    HW161949   6.710  11.520   1.075  0.5524 -0.3547 -0.1990
51697SOL    HW261950   6.618  11.400   1.084 -1.6475  1.4227  3.1320
51698SOL     OW61951   1.695   8.959   5.323 -0.1682 -0.2779 -0.1182
51698SOL    HW161952   1.787   8.953   5.348  0.1217  2.0347 -0.3829
51698SOL    HW261953   1.647   8.948   5.405  0.3374 -1.3385  0.0488
51699SOL     OW61954   3.078  11.737   5.411  0.5271  0.2490  0.2503
51699SOL    HW161955   3.089  11.690   5.328 -1.8272  1.6204 -0.9186
51699SOL    HW261956   3.152  11.798   5.413  0.5410  0.2979 -0.9057
51700SOL     OW61957   3.062   5.020   7.893 -0.0733 -0.5413  0.0582
51700SOL    HW161958   3.003   5.087   7.860  0.0512  0.5347  1.8438
51700SOL    HW261959   3.101   4.980   7.815 -0.9336  0.7593 -1.0679
51701SOL     OW61960   2.169   9.705  11.660 -0.4333 -0.0608  0.6578
51701SOL    HW161961   2.104   9.637  11.676  0.2725 -0.1908  3.4279
51701SOL    HW261962   2.253   9.659  11.661 -0.1377  0.2483 -1.9625
51702SOL     OW61963   3.189   3.439   8.145  0.0783  0.2752 -0.5038
51702SOL    HW161964   3.125   3.426   8.215 -0.3123 -2.1243 -1.1995
51702SOL    HW261965   3.155   3.387   8.072  2.8016 -1.1565 -0.8780
51703SOL     OW61966   5.434   4.970   5.149  0.0539 -0.3978 -0.6406
51703SOL    HW161967   5.487   4.898   5.115  1.9263 -0.1236  1.4663
51703SOL    HW261968   5.497   5.035   5.179 -1.5101  0.7340  0.3746
51704SOL     OW61969  10.123   8.704   3.810  0.4585  0.7258  0.7763
51704SOL    HW161970  10.123   8.634   3.876 -0.0427  0.0755  0.0982
51704SOL    HW261971  10.137   8.659   3.727  1.3492  1.5673  0.4471
51705SOL     OW61972   2.186   8.230   2.391  0.1001 -0.3326  0.1887
51705SOL    HW161973   2.241   8.257   2.317  1.4563  0.2479  1.3682
51705SOL    HW261974   2.169   8.311   2.439 -2.2134 -0.4244 -0.3767
51706SOL     OW61975   7.752   8.035   1.106 -0.1476 -0.5410  0.0960
51706SOL    HW161976   7.682   8.004   1.163 -0.1778 -2.1813 -0.7897
51706SOL    HW261977   7.826   8.050   1.166 -0.9105  0.1864  0.8860
51707SOL     OW61978   2.471  11.917   9.521  0.1771 -0.0940 -0.6297
51707SOL    HW161979   2.514  11.893   9.438  0.4494  0.6937 -0.7281
51707SOL    HW261980   2.378  11.919   9.500  0.0533 -1.8526 -0.4073
51708SOL     OW61981   1.307   5.490   9.569 -0.1317  0.0343 -0.2238
51708SOL    HW161982   1.308   5.557   9.637  0.7024  1.1109 -1.2560
51708SOL    HW261983   1.217   5.457   9.569 -0.1668  0.0802  1.3172
51709SOL     OW61984   3.996   3.192   5.035 -0.3821 -0.1525 -0.6687
51709SOL    HW161985   4.091   3.198   5.041 -0.4488 -0.5082  1.3413
51709SOL    HW261986   3.965   3.281   5.050 -0.3997 -0.2744  0.0458
51710SOL     OW61987   5.287   0.991   8.710  0.2900 -0.2529 -0.6548
51710SOL    HW161988   5.241   0.995   8.793  0.1880 -0.7540 -0.6783
51710SOL    HW261989   5.346   1.066   8.710 -0.1649  0.1054 -0.4060
51711SOL     OW61990   6.215   1.535   9.346  0.1771 -0.4931 -0.3326
51711SOL    HW161991   6.217   1.463   9.409  1.1995  0.9129  1.3429
51711SOL    HW261992   6.152   1.597   9.382  2.1446  1.1977  0.4135
51712SOL     OW61993   3.008   4.331   8.692  0.3261 -0.2877 -0.0962
51712SOL    HW161994   3.086   4.275   8.690  0.3516 -0.2404 -0.7498
51712SOL    HW261995   2.964   4.308   8.774  1.2098 -0.0567  0.4541
51713SOL     OW61996  10.974   7.635  10.589  0.3832  0.3233  0.0667
51713SOL    HW161997  10.975   7.543  10.617 -1.9068  0.1212 -0.3153
51713SOL    HW261998  10.991   7.684  10.670  2.0352 -0.4136  0.1997
51714SOL     OW61999   8.147   9.980   3.979 -0.2422  0.1922 -0.7067
51714SOL    HW162000   8.218  10.041   4.000 -1.0989  0.9521  0.0206
51714SOL    HW262001   8.174   9.941   3.896  1.1959  0.2130 -0.2760
51715SOL     OW62002   9.947   9.352   2.549  0.2645 -0.0364 -0.0074
51715SOL    HW162003   9.964   9.323   2.459  0.5359  0.7762 -0.2274
51715SOL    HW262004  10.008   9.424   2.563 -0.1421  0.1893  0.6485
51716SOL     OW62005   7.896   6.269   8.189  0.0961  0.3409 -0.5548
51716SOL    HW162006   7.824   6.206   8.197  0.1487  0.3536  0.0180
51716SOL    HW262007   7.873   6.341   8.248  1.4211 -0.4539  1.0057
51717SOL     OW62008  12.226   7.949  11.742  0.0540  0.0421 -0.2080
51717SOL    HW162009  12.239   7.862  11.780  0.3218 -0.2714 -0.9872
51717SOL    HW262010  12.276   7.947  11.660 -0.3660  0.7506 -0.4908
51718SOL     OW62011   4.034  10.637  10.406  0.2152  0.0324  0.2551
51718SOL    HW162012   4.024  10.685  10.488  1.9146  1.3961 -0.2838
51718SOL    HW262013   3.990  10.553  10.422  0.0692  0.4559  2.3674
51719SOL     OW62014  11.361   1.949  11.925  0.1941  0.5171  0.0377
51719SOL    HW162015  11.290   1.947  11.989  2.2998  0.8980  2.5102
51719SOL    HW262016  11.393   2.039  11.927  1.3137  0.1448 -0.4062
51720SOL     OW62017   6.320   0.745   2.560  0.4456 -0.3967  0.1573
51720SOL    HW162018   6.388   0.678   2.559  0.7049 -0.1643 -1.7167
51720SOL    HW262019   6.253   0.712   2.501  0.0818  0.4902  0.0595
51721SOL     OW62020   9.380   8.953   7.094 -0.2720  0.1873  0.2715
51721SOL    HW162021   9.309   8.908   7.140 -0.3786 -0.0952 -0.1574
51721SOL    HW262022   9.427   8.883   7.049 -1.4934  0.6462 -1.8621
51722SOL     OW62023  10.147  11.048   2.785 -0.1169  0.2859  0.2267
51722SOL    HW162024  10.189  11.131   2.763 -0.7977  0.7434  0.6431
51722SOL    HW262025  10.054  11.069   2.792 -0.0416  0.0633  2.8722
51723SOL     OW62026   8.120   9.430   1.672  0.0353 -0.3456  0.1240
51723SOL    HW162027   8.183   9.501   1.659  0.4905 -0.8286 -0.3812
51723SOL    HW262028   8.043   9.457   1.623  0.1593 -0.1387  0.0431
51724SOL     OW62029   7.334   2.052  10.239 -0.3193  0.1089  0.1357
51724SOL    HW162030   7.417   2.007  10.250 -0.3224  0.4875  2.1664
51724SOL    HW262031   7.272   2.002  10.293 -0.6595  1.6082  1.2041
51725SOL     OW62032   0.636   6.595   7.054 -0.6273  0.0783  0.6192
51725SOL    HW162033   0.706   6.531   7.037 -0.3208  0.8378 -1.1950
51725SOL    HW262034   0.657   6.669   6.997 -1.7033  1.2658  1.7006
51726SOL     OW62035   1.265   8.809   8.994  0.2728 -0.7923  0.3013
51726SOL    HW162036   1.235   8.793   9.083  0.7042  1.4315  0.8979
51726SOL    HW262037   1.190   8.849   8.950  1.0468  1.0643  0.6215
51727SOL     OW62038   3.054   7.445   8.120  0.1358 -0.0928  0.2664
51727SOL    HW162039   2.973   7.407   8.153 -0.0674  0.5098  0.4890
51727SOL    HW262040   3.027   7.496   8.043  0.2399  0.4039  0.5528
51728SOL     OW62041   1.892  11.004   1.554  0.8338  0.3715 -0.4906
51728SOL    HW162042   1.907  11.066   1.483 -2.8026  2.0127 -0.0322
51728SOL    HW262043   1.899  10.918   1.512  2.1156  1.1502 -2.0029
51729SOL     OW62044   4.696   7.311  10.324 -0.4766 -0.4100  0.1400
51729SOL    HW162045   4.675   7.375  10.392 -0.0235  1.1852 -1.1837
51729SOL    HW262046   4.711   7.229  10.373  0.5028  0.8282  2.0311
51730SOL     OW62047   8.236   5.578   4.736  0.0570  0.6958  0.3698
51730SOL    HW162048   8.160   5.604   4.789 -0.6475 -1.5291  0.5852
51730SOL    HW262049   8.300   5.548   4.800  0.2857  0.6120  0.1022
51731SOL     OW62050  10.100   1.027   2.083  0.0124  0.3556  0.0794
51731SOL    HW162051  10.075   1.119   2.088  0.0655  0.3701  0.0823
51731SOL    HW262052  10.193   1.029   2.061  0.2493  0.3149  1.0403
51732SOL     OW62053  12.010   0.727  12.119  0.0576 -0.2001 -0.5448
51732SOL    HW162054  12.025   0.819  12.096  0.7541 -0.1887 -0.0878
51732SOL    HW262055  12.078   0.679  12.071 -0.7821 -0.5786 -1.4014
51733SOL     OW62056   6.724   5.583   6.783 -0.4067 -0.5845  0.1159
51733SOL    HW162057   6.663   5.611   6.715 -0.2169 -1.2554 -0.3411
51733SOL    HW262058   6.682   5.507   6.823 -0.9856  0.4038  1.4406
51734SOL     OW62059   5.837  12.248   3.041 -0.0523  0.4927  0.6928
51734SOL    HW162060   5.783  12.295   2.977  1.3060  1.5683  0.2944
51734SOL    HW262061   5.781  12.176   3.071 -0.7252 -0.0674 -1.7222
51735SOL     OW62062   4.923   2.485  11.778 -0.2882 -0.5321 -0.2793
51735SOL    HW162063   5.000   2.512  11.727 -0.3041 -0.5712 -0.3242
51735SOL    HW262064   4.861   2.455  11.712 -1.1651  1.4557 -0.4206
51736SOL     OW62065   6.321   1.111   9.893  0.3646 -0.3640 -0.0076
51736SOL    HW162066   6.250   1.134   9.833 -1.4705 -1.1258  1.7166
51736SOL    HW262067   6.345   1.021   9.869 -0.5307 -0.7543  0.4809
51737SOL     OW62068   7.457   4.677   4.090 -0.5874  0.0318 -0.6194
51737SOL    HW162069   7.541   4.720   4.105 -0.2133 -0.5590 -1.0141
51737SOL    HW262070   7.442   4.627   4.171 -0.3011 -0.2843 -0.7589
51738SOL     OW62071   8.738   9.675   9.653  0.1996  0.2752 -0.1808
51738SOL    HW162072   8.700   9.726   9.581  1.0201  0.4463 -0.5006
51738SOL    HW262073   8.671   9.610   9.674 -1.6865  2.5631  1.4682
51739SOL     OW62074   5.648  10.327   8.770  0.0925 -0.3302  0.1310
51739SOL    HW162075   5.586  10.258   8.791 -0.5095  0.1570 -0.0041
51739SOL    HW262076   5.703  10.336   8.847  0.7902 -1.6016 -0.2025
51740SOL     OW62077  12.445   6.216   5.736 -0.2953  0.2964  0.1327
51740SOL    HW162078  12.497   6.136   5.730 -0.2437  0.2848  0.7060
51740SOL    HW262079  12.510   6.287   5.736 -0.4067  0.5687 -3.5604
51741SOL     OW62080   3.369   2.020  10.974  0.6031 -0.4040  0.2216
51741SOL    HW162081   3.319   2.097  11.002 -1.2620 -0.8574 -1.5860
51741SOL    HW262082   3.391   2.038  10.882 -0.3225 -2.1842 -0.4009
51742SOL     OW62083   2.444   6.028   3.351  0.0717  0.1068 -0.7590
51742SOL    HW162084   2.513   6.095   3.359  0.1366 -0.0573  0.2012
51742SOL    HW262085   2.367   6.067   3.392  0.2411 -0.5731  0.2437
51743SOL     OW62086   9.601   2.310   8.596  0.1446 -0.5815 -0.0191
51743SOL    HW162087   9.676   2.268   8.553  1.5819  1.3036  0.5252
51743SOL    HW262088   9.626   2.315   8.688 -0.9829 -0.5419  0.3005
51744SOL     OW62089   2.512   5.217  12.244  0.1205  0.0800  0.0158
51744SOL    HW162090   2.504   5.181  12.332 -0.9059 -0.5948 -0.3327
51744SOL    HW262091   2.558   5.301  12.256  2.0483 -1.0307  0.9229
51745SOL     OW62092   3.880   5.985   5.989 -0.2947  0.0092 -0.2356
51745SOL    HW162093   3.974   5.995   6.005 -0.0431 -2.1006 -0.1353
51745SOL    HW262094   3.841   5.984   6.077 -0.1634 -0.9719 -0.1744
51746SOL     OW62095   2.885   0.886   1.440  0.1338 -0.1799  0.2511
51746SOL    HW162096   2.890   0.855   1.350  0.3707 -1.0724  0.5582
51746SOL    HW262097   2.854   0.977   1.433 -0.4098 -0.4272 -0.6815
51747SOL     OW62098   0.990   5.566  10.838  0.0122  0.2658 -0.1267
51747SOL    HW162099   1.015   5.600  10.752  0.7851  1.0903  0.4032
51747SOL    HW262100   0.951   5.641  10.883  0.4726  0.1008  0.5695
51748SOL     OW62101   5.580  11.206   5.984  0.5290 -0.3755 -0.0680
51748SOL    HW162102   5.570  11.199   6.078  0.5197 -0.4107 -0.0719
51748SOL    HW262103   5.664  11.164   5.965 -0.4458 -2.3147 -0.3296
51749SOL     OW62104   1.403   6.535   6.992 -0.0448 -0.3098  0.0538
51749SOL    HW162105   1.452   6.608   6.954 -0.8551  0.8396  1.1449
51749SOL    HW262106   1.456   6.508   7.068 -1.3356  1.3722  1.6351
51750SOL     OW62107   5.034   6.419  10.215  0.1937  0.0096 -0.1264
51750SOL    HW162108   5.119   6.440  10.175  1.8637 -1.7620  2.2208
51750SOL    HW262109   5.055   6.356  10.283 -2.7594  1.1583  2.0301
51751SOL     OW62110   8.329   1.857   7.614 -0.2302  0.0093 -0.3460
51751SOL    HW162111   8.399   1.858   7.680 -0.9766  0.2828  0.4570
51751SOL    HW262112   8.374   1.838   7.532  0.7985  0.2340  0.1510
51752SOL     OW62113   4.194   6.271   0.143 -0.0938  0.6683 -0.1418
51752SOL    HW162114   4.116   6.221   0.116 -0.9705  1.9638 -0.0977
51752SOL    HW262115   4.267   6.227   0.100 -0.7534 -0.9675  0.3139
51753SOL     OW62116   8.511   1.020   5.665  0.0129 -0.0901 -0.3580
51753SOL    HW162117   8.469   1.106   5.660 -0.8706 -0.5302 -0.7475
51753SOL    HW262118   8.493   0.990   5.755 -0.8300 -0.4217 -0.6252
51754SOL     OW62119   3.314   7.349   5.789 -0.0348  0.4374  0.0798
51754SOL    HW162120   3.365   7.268   5.782  0.7504  0.9030  0.2245
51754SOL    HW262121   3.263   7.337   5.870 -0.9319 -0.4425 -0.5850
51755SOL     OW62122   4.254   4.602   8.134  0.3180  0.4537 -0.2932
51755SOL    HW162123   4.245   4.614   8.040  2.1560 -1.0982 -0.7336
51755SOL    HW262124   4.212   4.518   8.152 -0.8547  1.1742  0.4609
51756SOL     OW62125  11.034   2.614  11.612  0.0829  0.0415 -0.2497
51756SOL    HW162126  11.068   2.546  11.671 -1.2859  0.4591  1.0743
51756SOL    HW262127  11.103   2.625  11.546  3.3253  1.9393  3.1141
51757SOL     OW62128   2.663   4.706  10.283  0.2186 -0.1351  0.5277
51757SOL    HW162129   2.715   4.690  10.362  0.4997  2.0102  0.8329
51757SOL    HW262130   2.728   4.712  10.213  0.0395 -1.0989  0.2562
51758SOL     OW62131   8.517  12.476   0.392 -0.4397  0.0100 -0.0129
51758SOL    HW162132   8.533  12.547   0.455  0.8977  0.0237 -0.3386
51758SOL    HW262133   8.575  12.495   0.319  0.9796 -2.1358  0.4716
51759SOL     OW62134   5.313  10.348   6.505 -0.2480  0.3385  0.7426
51759SOL    HW162135   5.400  10.328   6.471 -1.2852  0.5660 -2.3620
51759SOL    HW262136   5.296  10.438   6.478 -2.6324 -0.7001 -1.8276
51760SOL     OW62137   7.306   3.202   4.552 -0.4022 -0.8966  0.0223
51760SOL    HW162138   7.286   3.129   4.493 -1.5869  0.4988 -1.3960
51760SOL    HW262139   7.322   3.276   4.494 -0.1040  0.1847  1.4309
51761SOL     OW62140   9.858   8.030   7.412  0.4427 -0.6004 -0.4149
51761SOL    HW162141   9.868   7.945   7.368 -2.2830  0.3881 -3.3352
51761SOL    HW262142   9.782   8.019   7.469  0.7780 -0.4192  0.0716
51762SOL     OW62143   2.592   1.552   5.723 -0.4139  0.0489  0.2007
51762SOL    HW162144   2.582   1.626   5.782 -0.2111 -1.0296  1.6547
51762SOL    HW262145   2.553   1.478   5.770  1.1665 -1.1770 -0.3138
51763SOL     OW62146  11.712   5.736  12.182  0.1564 -0.2012 -0.5036
51763SOL    HW162147  11.634   5.759  12.233  0.3292 -1.8453  0.5388
51763SOL    HW262148  11.680   5.675  12.115  0.7054 -1.9150  0.7322
51764SOL     OW62149   7.580   4.314   5.572  0.6127 -0.3063  0.2482
51764SOL    HW162150   7.617   4.297   5.659  1.5312 -1.2556 -0.2923
51764SOL    HW262151   7.580   4.228   5.529 -1.8225 -0.2420  0.0298
51765SOL     OW62152   7.049   8.300  10.432 -0.4659  0.5726  0.3508
51765SOL    HW162153   7.072   8.375  10.377  0.1056  0.4968  0.4769
51765SOL    HW262154   7.084   8.224  10.385 -0.6718  0.4299  0.4291
51766SOL     OW62155  10.808   3.158   7.480 -0.5931 -0.1600 -0.1776
51766SOL    HW162156  10.810   3.151   7.576  1.3114 -1.0767 -0.2376
51766SOL    HW262157  10.826   3.250   7.462  3.3544 -0.6549  0.3760
51767SOL     OW62158  11.055   5.436  10.139  0.1702  0.0231 -0.1863
51767SOL    HW162159  11.106   5.358  10.162  0.6314  0.6741  1.1049
51767SOL    HW262160  11.000   5.451  10.215  2.1461  2.5898  0.8755
51768SOL     OW62161   8.844  10.924   0.258  0.0527  0.1411 -0.4053
51768SOL    HW162162   8.859  10.842   0.305  0.2423  0.9061  0.9295
51768SOL    HW262163   8.756  10.951   0.284  0.9778  1.6851  1.3334
51769SOL     OW62164  12.477   5.646   5.466 -0.4069  0.3395 -0.0768
51769SOL    HW162165  12.508   5.567   5.421  0.4969  0.4721  0.2999
51769SOL    HW262166  12.422   5.612   5.537 -0.1252  0.0401  0.0057
51770SOL     OW62167   7.506   7.828   6.607  0.1964  0.3941  0.3589
51770SOL    HW162168   7.553   7.912   6.608  0.3025  0.3338  1.4289
51770SOL    HW262169   7.574   7.762   6.598  0.3272  0.3118  1.8114
51771SOL     OW62170   8.304   4.821   7.954  0.3360 -0.2788  0.5984
51771SOL    HW162171   8.258   4.895   7.995  0.6214  0.0016  0.4196
51771SOL    HW262172   8.249   4.798   7.880  0.2000 -0.3059  0.7057
51772SOL     OW62173   2.151   3.587   6.500 -0.5435 -0.1751 -0.0277
51772SOL    HW162174   2.161   3.495   6.523  0.0159 -0.1251 -0.0524
51772SOL    HW262175   2.079   3.618   6.554 -0.2879 -0.4603  0.4823
51773SOL     OW62176   4.481   8.765   5.514 -0.2205  0.7915 -0.0151
51773SOL    HW162177   4.549   8.780   5.449 -0.0351 -0.1515 -0.0574
51773SOL    HW262178   4.400   8.793   5.472 -0.3977 -1.6230 -1.4284
51774SOL     OW62179   0.325  12.351  12.199 -0.0329 -0.2743 -0.0695
51774SOL    HW162180   0.420  12.346  12.199  0.0253  0.3452  1.2618
51774SOL    HW262181   0.304  12.425  12.143  0.3284  0.2535  0.4835
51775SOL     OW62182  12.368   0.155   7.514  0.0329  0.2334  0.0728
51775SOL    HW162183  12.343   0.165   7.422 -0.4403 -1.2884  0.0146
51775SOL    HW262184  12.356   0.242   7.552 -0.4329  0.7127 -1.1381
51776SOL     OW62185   6.775  11.039   9.160 -0.3087  0.0906  0.2538
51776SOL    HW162186   6.699  11.097   9.163 -0.2827  0.2684 -1.4927
51776SOL    HW262187   6.821  11.064   9.080  0.8099 -0.9850  0.5289
51777SOL     OW62188   3.576   1.023   8.746 -0.3135  0.5071  0.1763
51777SOL    HW162189   3.577   1.005   8.840 -0.2083  1.1229  0.2994
51777SOL    HW262190   3.627   0.951   8.707  0.3847  0.7180  0.6783
51778SOL     OW62191   6.142   7.048   6.327 -0.1041 -0.4892 -1.0702
51778SOL    HW162192   6.232   7.043   6.359  0.8255 -0.3584 -3.4329
51778SOL    HW262193   6.108   7.128   6.366  0.2215 -1.3589  1.1245
51779SOL     OW62194   1.218   3.170   6.511 -0.4394  0.6433 -0.1331
51779SOL    HW162195   1.295   3.119   6.536 -0.9979 -0.6389 -0.8695
51779SOL    HW262196   1.173   3.187   6.593 -1.7853 -2.7275  0.0065
51780SOL     OW62197  12.010   6.873   7.065 -1.0551 -0.5550 -0.0107
51780SOL    HW162198  12.017   6.836   6.976 -0.8603 -1.1948  0.2647
51780SOL    HW262199  12.026   6.799   7.123 -1.7225 -0.2565  0.5717
51781SOL     OW62200   2.031  10.015   0.727  0.4067 -0.2146  0.4598
51781SOL    HW162201   1.997  10.017   0.637 -0.2420  1.4760  0.7164
51781SOL    HW262202   2.087  10.092   0.733 -0.1818  0.1340  1.7470
51782SOL     OW62203   3.320   8.680   9.387 -0.7004 -0.4441  0.3682
51782SOL    HW162204   3.273   8.742   9.330 -1.1838 -1.0499  0.0876
51782SOL    HW262205   3.408   8.715   9.394 -0.9947  0.3320  0.2994
51783SOL     OW62206   3.713   3.268   4.704 -0.1737 -0.2099  0.0547
51783SOL    HW162207   3.620   3.248   4.693  0.0411 -1.3991  0.2241
51783SOL    HW262208   3.718   3.318   4.785 -0.6545 -0.2458  0.1067
51784SOL     OW62209   8.570   2.783   5.475 -0.1080 -0.1126  0.7136
51784SOL    HW162210   8.482   2.750   5.493  0.4071 -1.1248  1.4583
51784SOL    HW262211   8.613   2.712   5.427  0.7290 -0.1854  1.5382
51785SOL     OW62212   8.794  10.325  11.919  0.3058  0.2218 -0.2505
51785SOL    HW162213   8.846  10.386  11.972 -0.0521  1.4201 -1.2294
51785SOL    HW262214   8.779  10.250  11.976  1.5570  0.6390  0.6728
51786SOL     OW62215   0.380   7.980   5.754  0.1039  0.3163 -0.4194
51786SOL    HW162216   0.388   7.913   5.687 -1.5242  1.6897 -2.1081
51786SOL    HW262217   0.290   7.973   5.785  0.3066  0.8717  0.3445
51787SOL     OW62218   3.267   0.312   5.381 -0.7782 -0.0654  0.2994
51787SOL    HW162219   3.218   0.392   5.399 -1.0646  0.3482 -2.0921
51787SOL    HW262220   3.225   0.275   5.304  1.7976 -0.4149 -1.0270
51788SOL     OW62221   6.368  10.179  10.709 -0.5911  0.2204 -0.2246
51788SOL    HW162222   6.457  10.145  10.714 -0.4791  0.5460 -0.0034
51788SOL    HW262223   6.315  10.114  10.753 -0.2523  0.7705  1.0372
51789SOL     OW62224   5.816   5.487   9.592 -0.8182 -0.5664  0.0626
51789SOL    HW162225   5.775   5.573   9.596  0.1819 -0.0733  0.2848
51789SOL    HW262226   5.829   5.471   9.498 -1.5661 -0.7558 -0.0086
51790SOL     OW62227   8.010  12.194   3.214 -0.0544 -0.1585 -0.4248
51790SOL    HW162228   8.030  12.234   3.299  0.6326  0.0489 -0.6771
51790SOL    HW262229   7.952  12.257   3.172  0.9621  0.5807 -0.7897
51791SOL     OW62230   5.575   4.764   5.043  0.0993 -0.1857 -0.2721
51791SOL    HW162231   5.511   4.726   4.983 -2.7150  2.3247  0.9110
51791SOL    HW262232   5.593   4.694   5.106 -3.9600 -0.2287  1.1366
51792SOL     OW62233   3.131   0.777  12.530 -0.5977  0.2366 -0.9233
51792SOL    HW162234   3.123   0.741  12.618 -0.6634 -1.6551 -1.6555
51792SOL    HW262235   3.085   0.861  12.534  0.4086  0.7416  1.1149
51793SOL     OW62236   0.839   4.306   2.130  0.4901 -0.4185  0.6278
51793SOL    HW162237   0.859   4.399   2.119  0.5410 -0.5107 -0.1036
51793SOL    HW262238   0.910   4.273   2.186 -0.2496  0.2431  1.9968
51794SOL     OW62239   6.756   9.649   6.660  0.1694  0.0586 -0.1745
51794SOL    HW162240   6.691   9.606   6.715  0.5641 -1.2675 -0.7162
51794SOL    HW262241   6.820   9.685   6.721 -0.4688  0.3784  0.3110
51795SOL     OW62242   3.147  11.256   4.723 -0.0956  0.0760  0.2050
51795SOL    HW162243   3.201  11.178   4.738 -0.2106  0.3032  1.9696
51795SOL    HW262244   3.207  11.321   4.688  0.2934 -0.3576  0.0598
51796SOL     OW62245   1.265   3.748   0.071 -0.0356 -0.3273 -0.5449
51796SOL    HW162246   1.351   3.706   0.079  0.8587  1.0653 -2.2552
51796SOL    HW262247   1.258   3.772  -0.021 -2.1739 -0.1470 -0.3889
51797SOL     OW62248   7.680   6.502   1.723  0.0691 -0.1796  0.8137
51797SOL    HW162249   7.731   6.581   1.706 -1.4184  0.4485 -1.1787
51797SOL    HW262250   7.662   6.467   1.636 -3.1313 -0.1431  1.3321
51798SOL     OW62251  12.364   0.231   0.824 -0.1129 -0.7307  0.2445
51798SOL    HW162252  12.343   0.306   0.880 -0.5276 -1.2200  0.7560
51798SOL    HW262253  12.429   0.181   0.873  1.4616  0.1751 -0.8433
51799SOL     OW62254   9.524   8.880   0.791 -0.5064  0.6356 -0.0105
51799SOL    HW162255   9.609   8.888   0.747 -0.9206  0.0365 -0.9488
51799SOL    HW262256   9.483   8.965   0.779  0.0275  0.9984  0.6272
51800SOL     OW62257  10.174   6.270   7.891  0.3251 -0.2854 -0.5234
51800SOL    HW162258  10.184   6.189   7.940 -2.8865 -0.7493 -0.4650
51800SOL    HW262259  10.210   6.338   7.949 -0.1927 -1.2281  0.9496
51801SOL     OW62260   9.681   7.047   5.110 -0.4844 -0.3838  0.4896
51801SOL    HW162261   9.595   7.005   5.107  0.0967 -1.8277  2.2612
51801SOL    HW262262   9.670   7.120   5.171 -0.5551 -0.3162  0.3957
51802SOL     OW62263  11.342  11.489   9.308 -0.3771  0.8207  0.0001
51802SOL    HW162264  11.382  11.414   9.350  0.0365  0.8487 -0.3365
51802SOL    HW262265  11.376  11.487   9.218  0.1868  1.8063  0.1776
51803SOL     OW62266   5.149   8.854   0.437  0.2039  0.1301 -0.3480
51803SOL    HW162267   5.112   8.928   0.485 -2.2599 -1.8283  0.9988
51803SOL    HW262268   5.079   8.827   0.377  0.7139 -1.5803 -0.2208
51804SOL     OW62269   2.614  12.519   9.119  0.1377  0.1682  0.1033
51804SOL    HW162270   2.605  12.614   9.130  2.0818  0.6135 -1.5259
51804SOL    HW262271   2.694  12.508   9.068  0.2406 -2.4039  0.6599
51805SOL     OW62272   8.333   7.569   4.993  0.2927 -0.4353  0.6124
51805SOL    HW162273   8.317   7.657   4.958  2.4059  0.1660  0.9853
51805SOL    HW262274   8.271   7.513   4.948  2.0526  0.4665 -3.3124
51806SOL     OW62275  11.686   6.147   5.275 -0.7775 -0.2450 -0.5013
51806SOL    HW162276  11.750   6.200   5.227 -0.5508 -0.4684 -0.4543
51806SOL    HW262277  11.697   6.059   5.239 -2.7991  0.1466 -2.2768
51807SOL     OW62278  12.365   0.567   1.731 -0.5527 -0.1151  0.1902
51807SOL    HW162279  12.269   0.569   1.731 -0.6270 -1.6549  1.4420
51807SOL    HW262280  12.388   0.525   1.813  1.2243  0.3795 -0.0133
51808SOL     OW62281  10.539  10.587   1.478 -0.1288 -0.1903 -0.0331
51808SOL    HW162282  10.613  10.574   1.418 -0.5185 -0.8293 -0.3932
51808SOL    HW262283  10.468  10.536   1.439 -0.6108 -0.0002  0.5809
51809SOL     OW62284   1.895  12.037   1.655 -0.1457  0.1876  0.1520
51809SOL    HW162285   1.840  12.090   1.713 -1.1636 -1.1708  0.4967
51809SOL    HW262286   1.836  12.011   1.583  0.4577 -0.0747 -0.2604
51810SOL     OW62287  11.250   5.173  12.177 -0.4501 -0.5872 -0.2268
51810SOL    HW162288  11.256   5.093  12.229  0.8792  0.5071  1.4121
51810SOL    HW262289  11.325   5.168  12.117  0.6301  0.1554  1.0187
51811SOL     OW62290   9.003   1.854   4.893 -0.0134  0.1261 -0.0315
51811SOL    HW162291   9.072   1.915   4.919 -0.9515  0.5249  1.6829
51811SOL    HW262292   8.924   1.908   4.892 -0.5583 -0.6669 -0.3541
51812SOL     OW62293   5.305  12.141   3.700  0.3607 -0.0463  0.1539
51812SOL    HW162294   5.353  12.217   3.733  0.4690  0.5461 -1.2789
51812SOL    HW262295   5.217  12.149   3.736  0.2705  0.9702 -0.2660
51813SOL     OW62296   8.044  11.131   1.015 -1.0364 -0.1398  0.4561
51813SOL    HW162297   8.090  11.188   0.954  0.7514 -1.1535  0.7828
51813SOL    HW262298   8.067  11.165   1.102 -1.5234 -0.2121  0.6172
51814SOL     OW62299   6.980   4.990   9.972 -0.3863 -0.5705  0.1569
51814SOL    HW162300   6.934   5.029   9.898  0.5632  0.2342 -0.0249
51814SOL    HW262301   6.944   5.035  10.049 -0.6110 -0.6592  0.1050
51815SOL     OW62302   5.843   6.106   4.542 -0.3618 -0.0869  0.0793
51815SOL    HW162303   5.792   6.159   4.480  2.1994  1.8420 -0.5738
51815SOL    HW262304   5.809   6.130   4.628 -1.3216  0.2445 -0.3774
51816SOL     OW62305   1.244   2.904  12.480 -0.2926  0.0442 -0.1717
51816SOL    HW162306   1.174   2.954  12.438 -0.3388 -1.0515 -1.4325
51816SOL    HW262307   1.307   2.886  12.410  1.4981  1.3236  0.9958
51817SOL     OW62308   3.213  10.357  12.212 -0.2116 -1.2334  0.2624
51817SOL    HW162309   3.287  10.326  12.263 -0.3784  0.6256  1.7619
51817SOL    HW262310   3.238  10.343  12.121  1.7061 -1.2373  0.7601
51818SOL     OW62311   0.877   8.073   1.622 -0.7265  0.4569 -0.1353
51818SOL    HW162312   0.884   8.103   1.713 -0.6390  1.1408 -0.3677
51818SOL    HW262313   0.813   8.002   1.626 -0.5651  0.3343  0.4943
51819SOL     OW62314   6.409   7.605   4.764 -0.5124  0.2101 -0.6550
51819SOL    HW162315   6.410   7.604   4.668  1.3857 -2.0679 -0.6942
51819SOL    HW262316   6.413   7.513   4.789  1.7286  0.8019  1.5677
51820SOL     OW62317   3.087   0.086   7.617  0.3083  0.3827 -0.6068
51820SOL    HW162318   3.111   0.176   7.596  0.7593  0.2767 -0.5475
51820SOL    HW262319   3.097   0.039   7.535  0.6947  0.2558 -0.4868
51821SOL     OW62320   4.211   8.738   8.326  0.6443  0.3061 -0.0852
51821SOL    HW162321   4.133   8.712   8.376  0.4074  1.0397 -0.0600
51821SOL    HW262322   4.259   8.656   8.312  0.1441 -0.0733  0.3709
51822SOL     OW62323   7.000   0.697   0.800 -0.9056  0.0317  0.2978
51822SOL    HW162324   7.087   0.662   0.784 -1.8996 -2.8332  0.5070
51822SOL    HW262325   7.009   0.752   0.877  0.6238 -0.6884  0.6733
51823SOL     OW62326  10.406   7.512   2.419  0.1336  0.2154 -0.0466
51823SOL    HW162327  10.336   7.520   2.484 -1.0418  0.4822 -1.3136
51823SOL    HW262328  10.414   7.599   2.381  0.6961  0.0265 -0.3701
51824SOL     OW62329   2.670   6.085   7.237  0.1070 -0.1996 -0.2737
51824SOL    HW162330   2.700   6.029   7.166 -0.5638  1.2051 -1.7121
51824SOL    HW262331   2.598   6.135   7.200  0.8038  1.7764  0.8986
51825SOL     OW62332   2.966   8.314   8.427  0.1478  0.4554 -0.4046
51825SOL    HW162333   3.028   8.311   8.500  0.7336  1.3316 -0.8408
51825SOL    HW262334   3.020   8.337   8.351 -0.6462  0.7932 -0.8742
51826SOL     OW62335  12.063  10.633   2.977  0.3633  0.3667  0.0365
51826SOL    HW162336  12.158  10.629   2.990  0.2786  0.1096  0.6116
51826SOL    HW262337  12.043  10.555   2.925  0.3685 -0.0058  0.5822
51827SOL     OW62338  10.378   5.096   9.559  0.4384  0.0297 -0.5675
51827SOL    HW162339  10.418   5.059   9.638  0.9229  0.8297 -0.4372
51827SOL    HW262340  10.430   5.173   9.539 -0.2365  0.3394 -1.1586
51828SOL     OW62341   6.341   1.840  11.977  0.4838  0.3534  0.2464
51828SOL    HW162342   6.367   1.749  11.963 -0.0926  0.1915  0.2334
51828SOL    HW262343   6.407   1.874  12.038  0.8540  0.0072  0.0474
51829SOL     OW62344   1.276   1.408  10.199 -0.4092  0.2076 -0.4197
51829SOL    HW162345   1.212   1.338  10.200  0.1216 -0.2821  0.1009
51829SOL    HW262346   1.303   1.417  10.290  0.0648  0.5901 -0.5920
51830SOL     OW62347   1.179   4.968   9.395  0.0738 -0.7618  0.3168
51830SOL    HW162348   1.091   4.932   9.408  0.2917 -1.5882 -0.4477
51830SOL    HW262349   1.218   4.969   9.482 -1.0024  0.4825  0.8317
51831SOL     OW62350   3.441   1.106   7.602  0.4545 -0.1478 -0.5630
51831SOL    HW162351   3.437   1.138   7.693  0.6034 -0.7645 -0.3332
51831SOL    HW262352   3.349   1.089   7.579  0.2854  1.1720 -0.9673
51832SOL     OW62353   2.100   2.067   2.256  0.3584  0.1206  0.2478
51832SOL    HW162354   2.015   2.067   2.212  0.6538  1.6181 -0.3835
51832SOL    HW262355   2.152   2.004   2.206  0.4711  1.2875 -1.1607
51833SOL     OW62356   2.753   7.952  11.688  0.0931  0.6733 -0.6889
51833SOL    HW162357   2.836   7.915  11.659 -0.1482  0.1285 -0.6999
51833SOL    HW262358   2.691   7.931  11.618 -0.3518 -0.1174 -0.0799
51834SOL     OW62359   8.478   3.420   1.849 -0.0753 -0.5025 -0.3402
51834SOL    HW162360   8.499   3.378   1.765 -0.1047 -0.7207 -0.2392
51834SOL    HW262361   8.390   3.457   1.836  0.4999  0.7350 -0.8864
51835SOL     OW62362   5.801  11.604   8.673  0.2426  0.3890  0.2973
51835SOL    HW162363   5.782  11.669   8.606  0.7886  0.9149  0.6358
51835SOL    HW262364   5.723  11.549   8.676  1.0458 -1.0666 -2.3340
51836SOL     OW62365   1.130   3.671   8.516 -0.0401  0.0184 -0.2970
51836SOL    HW162366   1.059   3.635   8.569  0.4464 -1.3015 -0.4761
51836SOL    HW262367   1.170   3.594   8.476  1.1458  0.7775 -0.6266
51837SOL     OW62368   0.576  10.942   4.122 -0.0371  0.2076  0.0997
51837SOL    HW162369   0.529  10.990   4.190 -0.8266  1.5198 -1.3246
51837SOL    HW262370   0.537  10.971   4.040  0.9874 -1.2286 -0.9529
51838SOL     OW62371   2.680   6.191   3.966  0.4504 -0.0087 -0.2009
51838SOL    HW162372   2.752   6.211   3.906  0.4765  1.6783  0.3330
51838SOL    HW262373   2.604   6.235   3.930  0.4591  1.0090  0.9514
51839SOL     OW62374   0.311   2.465   3.435 -0.5947  0.1726  0.6378
51839SOL    HW162375   0.386   2.436   3.487 -0.3132 -0.5089 -0.1182
51839SOL    HW262376   0.261   2.385   3.418 -0.5213  0.3227 -0.3714
51840SOL     OW62377  10.763   0.997   4.107 -0.0004  0.5051  0.1800
51840SOL    HW162378  10.730   1.086   4.122 -0.0693  0.4671  0.2523
51840SOL    HW262379  10.851   0.998   4.144 -0.4712  0.1712  1.3518
51841SOL     OW62380   3.699   6.196   0.740 -0.4192  0.4743  0.3492
51841SOL    HW162381   3.719   6.241   0.658  2.2077  0.2172  0.7337
51841SOL    HW262382   3.716   6.104   0.722 -1.4370  0.2033  0.7422
51842SOL     OW62383   9.438   1.012   1.242 -0.7959 -0.2528  0.7087
51842SOL    HW162384   9.466   0.935   1.193 -0.2945 -0.1392  0.8137
51842SOL    HW262385   9.357   0.985   1.285 -0.9066 -0.5485  0.3161
51843SOL     OW62386   8.387   4.760  12.258  0.3154  0.5958  0.0145
51843SOL    HW162387   8.424   4.686  12.209  2.5150  1.0493  0.8810
51843SOL    HW262388   8.344   4.813  12.191  1.2569  0.0296 -1.0876
51844SOL     OW62389   2.936   7.936  12.375 -1.0477  0.1266 -0.0708
51844SOL    HW162390   3.007   7.921  12.312  0.8927  0.8233  1.8344
51844SOL    HW262391   2.958   8.019  12.417 -3.0800  0.4210  0.5163
51845SOL     OW62392   9.046   6.526   4.866  0.2610 -0.1891 -0.0827
51845SOL    HW162393   9.130   6.480   4.862  0.9201  0.9117  0.4893
51845SOL    HW262394   8.993   6.485   4.798  1.8506  0.1970 -1.6329
51846SOL     OW62395   5.525  10.093   0.361  0.3977 -0.4684 -0.7037
51846SOL    HW162396   5.527  10.030   0.289  0.9870 -1.2634 -0.0190
51846SOL    HW262397   5.459  10.058   0.421 -0.5328  0.5122 -1.1183
51847SOL     OW62398   9.829   3.816   1.468  0.0866  0.0018 -0.4583
51847SOL    HW162399   9.777   3.889   1.501  0.5386  0.6501 -1.1496
51847SOL    HW262400   9.770   3.741   1.470 -0.4117  0.4028  0.1668
51848SOL     OW62401  11.609  12.139  10.883  0.2567  0.2787  0.3550
51848SOL    HW162402  11.587  12.232  10.887 -1.7343 -0.1873  2.5001
51848SOL    HW262403  11.656  12.123  10.965  0.2567 -0.6611  0.1747
51849SOL     OW62404   8.309   7.239  10.435 -0.7777  0.1239 -0.3412
51849SOL    HW162405   8.215   7.249  10.419 -0.8517  0.0374  0.0534
51849SOL    HW262406   8.327   7.147  10.417 -0.6875  0.2265 -0.8155
51850SOL     OW62407  10.981   2.816   9.092 -0.0093 -0.3283 -0.5516
51850SOL    HW162408  10.895   2.847   9.063 -0.5046 -0.6470  0.5383
51850SOL    HW262409  11.003   2.746   9.031  0.4208  1.1096 -2.0993
51851SOL     OW62410   3.707   2.785   2.954  0.2646 -0.4272 -0.6513
51851SOL    HW162411   3.612   2.784   2.965  0.1687 -0.4152 -1.3907
51851SOL    HW262412   3.740   2.733   3.027 -0.1207  1.7366  1.1476
51852SOL     OW62413   9.777   7.852   9.750  0.5372  0.0563 -0.2279
51852SOL    HW162414   9.689   7.874   9.782  0.3532 -1.3654  0.3590
51852SOL    HW262415   9.834   7.867   9.825  0.5293 -0.6248 -0.0788
51853SOL     OW62416   3.116   1.908  11.007 -0.8622  0.2306 -0.0792
51853SOL    HW162417   3.181   1.888  10.939 -0.8060  0.8964 -0.2254
51853SOL    HW262418   3.126   2.002  11.022 -1.0036  0.1221  0.7208
51854SOL     OW62419   7.918   4.914  10.668  0.3118 -0.4850 -0.0444
51854SOL    HW162420   8.000   4.936  10.625  0.8037 -2.1318 -0.0262
51854SOL    HW262421   7.866   4.872  10.599  0.0632 -0.7403  0.2952
51855SOL     OW62422   1.933   7.688  10.629 -0.6479 -0.3051 -0.2131
51855SOL    HW162423   1.890   7.743  10.694 -2.4133 -1.5781 -0.2487
51855SOL    HW262424   1.908   7.726  10.545  1.1109  0.9519 -0.2349
51856SOL     OW62425   1.305   8.252   6.841  0.0018 -0.0647 -0.5997
51856SOL    HW162426   1.282   8.259   6.934  2.9551 -2.5681  0.4949
51856SOL    HW262427   1.299   8.158   6.821  2.8843 -0.1061 -1.8182
51857SOL     OW62428   8.083  11.721  10.666 -1.2138  0.2330  0.5184
51857SOL    HW162429   8.159  11.705  10.612 -0.6860 -1.2708  1.6267
51857SOL    HW262430   8.103  11.802  10.713  0.5727 -1.0268  2.1172
51858SOL     OW62431   9.934  10.878   3.448 -0.4335 -0.1074  0.0445
51858SOL    HW162432   9.988  10.932   3.506 -0.7275  2.2514 -1.7162
51858SOL    HW262433   9.844  10.893   3.477 -0.4792 -0.0947 -0.1027
51859SOL     OW62434  11.406   3.062   8.637 -0.4419  0.6123 -0.5061
51859SOL    HW162435  11.474   3.074   8.571  0.7251  1.3115  0.7676
51859SOL    HW262436  11.374   2.973   8.623  0.2068  0.5352 -1.6043
51860SOL     OW62437   6.224   0.912   3.288 -0.7831  0.3306  0.0235
51860SOL    HW162438   6.227   0.908   3.383 -0.3402  1.1430  0.0502
51860SOL    HW262439   6.311   0.884   3.260 -0.9297  0.0419 -0.1431
51861SOL     OW62440  10.773   1.510   5.669  0.6137  0.3094  0.5573
51861SOL    HW162441  10.758   1.419   5.692  1.0332  0.1137  0.0789
51861SOL    HW262442  10.803   1.507   5.578 -2.2580  1.1124 -0.5493
51862SOL     OW62443   8.374   7.605   1.995  0.0224 -0.0248  0.0267
51862SOL    HW162444   8.458   7.602   1.949  0.2075  0.8459  0.2809
51862SOL    HW262445   8.377   7.688   2.044 -0.8438 -0.1506  0.3083
51863SOL     OW62446   6.946   6.152  11.495  0.4111  0.2466 -0.2070
51863SOL    HW162447   6.907   6.104  11.422 -1.2897 -1.3609  1.6801
51863SOL    HW262448   6.912   6.110  11.573  1.9654  2.0878  1.5661
51864SOL     OW62449  10.056   1.926  10.433  0.3992 -0.4797  0.0234
51864SOL    HW162450  10.124   1.941  10.497  0.1023 -1.3272  0.5564
51864SOL    HW262451  10.063   1.833  10.412 -0.3162 -0.4847 -0.2276
51865SOL     OW62452   4.002   5.314   4.730  0.2904 -0.2922 -0.0090
51865SOL    HW162453   4.014   5.400   4.771  1.0121 -1.3468  2.1616
51865SOL    HW262454   3.919   5.321   4.684  0.4820  1.6622 -0.1530
51866SOL     OW62455   0.829   3.927   6.578  0.1070 -0.0084 -0.0049
51866SOL    HW162456   0.779   4.008   6.572  0.4797  0.1598 -1.0012
51866SOL    HW262457   0.845   3.901   6.487 -0.8352 -1.7150  0.2734
51867SOL     OW62458  12.375   6.379   3.852  0.3616  0.2566  0.4607
51867SOL    HW162459  12.424   6.316   3.905  0.9078 -0.1550 -0.5110
51867SOL    HW262460  12.283   6.355   3.865  0.5134 -0.1497  0.8152
51868SOL     OW62461  10.426  12.382   2.169  0.0559  0.2214 -0.4385
51868SOL    HW162462  10.465  12.356   2.085 -0.9108 -0.6403 -0.6471
51868SOL    HW262463  10.500  12.383   2.230  0.7176  0.5288 -1.2281
51869SOL     OW62464  10.874   2.340   0.451 -0.1972  0.5940  0.2381
51869SOL    HW162465  10.833   2.425   0.433  0.4869  1.1336  1.1432
51869SOL    HW262466  10.965   2.361   0.471  0.4984 -0.5729 -1.5336
51870SOL     OW62467  11.602   2.104   1.290 -0.1662 -0.7141 -0.2711
51870SOL    HW162468  11.573   2.148   1.209 -0.1023 -0.5470 -0.2038
51870SOL    HW262469  11.697   2.115   1.290 -0.1259 -1.0403 -0.3613
51871SOL     OW62470   2.914  12.054   5.097 -0.0207 -0.8487 -0.1082
51871SOL    HW162471   2.919  12.126   5.160  0.1724 -1.7886  0.9870
51871SOL    HW262472   2.998  12.057   5.051 -0.9479  1.1050 -1.7911
51872SOL     OW62473   3.456  11.480  12.337  0.6793 -0.2413  0.4463
51872SOL    HW162474   3.478  11.456  12.427  1.6180  0.6870  0.4797
51872SOL    HW262475   3.406  11.405  12.304 -2.1546  0.5658  2.5967
51873SOL     OW62476   1.828   8.811   1.730 -0.5462 -0.2173  0.6458
51873SOL    HW162477   1.736   8.800   1.705 -0.8519 -0.1623  1.6860
51873SOL    HW262478   1.843   8.905   1.729  0.7478 -0.2633 -3.6685
51874SOL     OW62479   3.099   2.585   2.428  0.3520  0.7535 -0.2152
51874SOL    HW162480   3.064   2.510   2.477  0.9030  0.9522  0.5020
51874SOL    HW262481   3.026   2.613   2.373 -0.3508  0.6361  0.6320
51875SOL     OW62482   8.846   1.114   5.677  0.3395 -0.2991  0.4020
51875SOL    HW162483   8.870   1.039   5.731  0.2270 -0.1271  0.6881
51875SOL    HW262484   8.908   1.111   5.604  0.5734 -0.4533  0.6070
51876SOL     OW62485   6.176  10.400   2.999 -0.2534  0.2479 -0.1904
51876SOL    HW162486   6.215  10.396   3.086  0.3221  2.0580 -0.3276
51876SOL    HW262487   6.144  10.311   2.983  0.8428 -0.4590  1.2971
51877SOL     OW62488   1.273  11.382   4.041 -0.2769 -0.4623 -0.7182
51877SOL    HW162489   1.324  11.414   4.116 -3.4844  2.9608  0.3071
51877SOL    HW262490   1.241  11.296   4.069 -1.4715  0.7479  2.0515
51878SOL     OW62491   7.302   9.892   0.134 -0.1262 -0.2372 -0.7002
51878SOL    HW162492   7.374   9.883   0.071 -2.5617  0.0834 -3.7596
51878SOL    HW262493   7.280   9.985   0.133 -1.7375 -0.5942 -1.2623
51879SOL     OW62494  11.341   4.681   0.872 -0.0103  0.5258 -0.1033
51879SOL    HW162495  11.341   4.730   0.955  0.6148  1.0235 -0.3963
51879SOL    HW262496  11.401   4.729   0.815  0.2891 -0.3453 -0.5394
51880SOL     OW62497   7.007   7.181   8.596 -0.7787  0.0305  0.1828
51880SOL    HW162498   6.934   7.206   8.539  0.6334  1.4884 -1.0799
51880SOL    HW262499   7.006   7.246   8.667  0.0300  0.8701 -0.5424
51881SOL     OW62500   5.606  12.144   2.279 -0.4260 -0.3242  0.7070
51881SOL    HW162501   5.669  12.194   2.331 -0.5749 -0.6915  1.2512
51881SOL    HW262502   5.627  12.052   2.296  0.1492 -0.4735 -0.6541
51882SOL     OW62503   7.512  12.480   7.614  0.2435  0.6921  0.1500
51882SOL    HW162504   7.602  12.452   7.632 -0.5659 -1.5338  1.0247
51882SOL    HW262505   7.464  12.400   7.596 -1.3811  1.9271 -1.4495
51883SOL     OW62506   1.999   7.245   4.848 -0.1758  0.3385 -0.2595
51883SOL    HW162507   2.080   7.197   4.835 -0.0913 -0.0548  1.4063
51883SOL    HW262508   1.975   7.226   4.939 -1.5835  1.2768 -0.4038
51884SOL     OW62509   8.071   4.395   9.531 -0.0657  0.2386 -0.2003
51884SOL    HW162510   7.993   4.377   9.479 -1.5854  0.8392  1.7774
51884SOL    HW262511   8.073   4.326   9.597  0.6688  0.6234  0.1945
51885SOL     OW62512  11.463   9.189   7.215  0.0826 -0.4454  0.1959
51885SOL    HW162513  11.375   9.151   7.214 -0.7808  1.3344  1.9558
51885SOL    HW262514  11.480   9.206   7.307  1.9747 -0.0218 -0.2041
51886SOL     OW62515   7.946  10.087   7.026 -0.7851  0.2011 -0.1150
51886SOL    HW162516   7.909  10.000   7.012 -0.2097  0.0213 -0.5511
51886SOL    HW262517   8.040  10.075   7.014 -0.8779  1.3113 -2.4978
51887SOL     OW62518  11.861  10.129   3.966 -0.7822 -0.4668  0.4166
51887SOL    HW162519  11.920  10.058   3.940 -0.1362  0.0662  0.3968
51887SOL    HW262520  11.805  10.142   3.889  2.5494  2.6096 -1.8424
51888SOL     OW62521  12.510  10.762   2.332  0.3646 -0.0894  0.3812
51888SOL    HW162522  12.495  10.808   2.415 -0.1664 -0.2012  0.3480
51888SOL    HW262523  12.605  10.746   2.331  0.1494 -1.7953  1.8744
51889SOL     OW62524   6.867   9.921   9.030  0.0484 -0.1286  0.0806
51889SOL    HW162525   6.832   9.923   8.941 -0.1128  0.1728  0.1520
51889SOL    HW262526   6.957   9.888   9.019 -0.4898 -1.6428 -0.0278
51890SOL     OW62527   3.087   2.280   0.347  0.3415  0.2091  0.1229
51890SOL    HW162528   3.021   2.274   0.416  0.4412  0.5589  0.2492
51890SOL    HW262529   3.126   2.367   0.358 -0.0232  0.4982 -0.7100
51891SOL     OW62530  11.582   8.761  10.581  0.0848  0.1093 -0.0771
51891SOL    HW162531  11.573   8.839  10.527 -0.5300  0.1631  0.0931
51891SOL    HW262532  11.492   8.735  10.602  0.2915 -0.3852  0.2386
51892SOL     OW62533   3.262   9.260   5.442 -0.4663 -0.6061 -0.3443
51892SOL    HW162534   3.264   9.319   5.517  0.2981 -4.1987  2.7482
51892SOL    HW262535   3.352   9.227   5.435 -0.5361 -0.4716 -2.8902
51893SOL     OW62536   5.693   6.278   9.003  0.2683  0.2990 -0.2587
51893SOL    HW162537   5.602   6.301   8.985  0.5682  3.1206  1.2629
51893SOL    HW262538   5.734   6.271   8.917 -1.2530 -0.5152 -0.9464
51894SOL     OW62539   0.720  12.372   3.381 -0.1176  0.1882 -0.3320
51894SOL    HW162540   0.789  12.307   3.394  0.8482  1.0091 -1.2196
51894SOL    HW262541   0.754  12.451   3.424 -1.0843  0.2472  0.3490
51895SOL     OW62542   2.119  10.723  12.282  0.2028  0.1322 -0.1066
51895SOL    HW162543   2.045  10.743  12.340  1.5407  1.8607  1.1336
51895SOL    HW262544   2.153  10.809  12.257  2.0516 -0.6117 -0.2931
51896SOL     OW62545   6.544  10.190  11.281 -0.0541 -0.0694 -0.2815
51896SOL    HW162546   6.456  10.154  11.289 -0.3036  0.5299 -0.2343
51896SOL    HW262547   6.570  10.210  11.371 -0.3491  0.8474 -0.3875
51897SOL     OW62548   9.659   7.416   8.064 -0.0945 -0.0824  0.1834
51897SOL    HW162549   9.727   7.484   8.069  1.0533 -1.2112  0.3611
51897SOL    HW262550   9.689   7.358   7.994 -0.4984 -0.9980  0.7504
51898SOL     OW62551   1.104  11.217   8.987  0.2412  0.3701  0.3486
51898SOL    HW162552   1.199  11.206   8.996  0.3453 -0.0188 -1.0392
51898SOL    HW262553   1.071  11.128   8.972 -0.7034  0.1026  3.3038
51899SOL     OW62554   3.035   7.529   2.692 -0.1519 -0.2910  0.0451
51899SOL    HW162555   3.095   7.599   2.717  0.0693  0.3239 -2.0289
51899SOL    HW262556   3.053   7.459   2.753  0.1380  1.1794  1.7358
51900SOL     OW62557   1.496  10.579   4.841 -0.1987 -0.4129 -0.1876
51900SOL    HW162558   1.456  10.600   4.925  1.6384 -1.0694  0.8988
51900SOL    HW262559   1.421  10.563   4.782 -1.5168 -0.0115  1.3138
51901SOL     OW62560   7.830   0.047   2.176  0.6014 -0.4111 -0.7341
51901SOL    HW162561   7.831  -0.047   2.154 -1.6712 -1.1776  1.9681
51901SOL    HW262562   7.913   0.061   2.222 -0.2271 -1.8286  1.2997
51902SOL     OW62563   7.833   3.433  12.511 -0.5416 -0.3934 -0.3512
51902SOL    HW162564   7.895   3.464  12.577 -1.9688 -0.0442  0.8718
51902SOL    HW262565   7.752   3.418  12.559 -1.2703 -1.3905 -1.8057
51903SOL     OW62566   9.309   6.272   2.029 -0.2992 -0.3394 -0.0357
51903SOL    HW162567   9.215   6.262   2.043 -0.5517  0.1257 -1.2346
51903SOL    HW262568   9.322   6.248   1.937  0.8133 -0.7561  0.2186
51904SOL     OW62569   5.921  12.365   3.328  0.3446  0.0267  0.1566
51904SOL    HW162570   5.913  12.270   3.340 -2.8510  0.0133 -0.8958
51904SOL    HW262571   5.904  12.378   3.235 -1.7645  1.7371  0.7034
51905SOL     OW62572   2.137   4.544  11.723  0.3809  0.3937  0.0104
51905SOL    HW162573   2.203   4.582  11.781 -0.7389  0.4887  1.2809
51905SOL    HW262574   2.060   4.599  11.736 -0.4668 -0.7175 -0.1464
51906SOL     OW62575   0.958   6.203   6.018  0.0355 -0.0490 -0.2906
51906SOL    HW162576   0.905   6.282   6.012 -0.6292 -0.6070 -4.2659
51906SOL    HW262577   0.899   6.132   5.992  0.9757 -1.7734  1.9040
51907SOL     OW62578   6.444  12.329   7.514 -0.7472 -0.0051 -0.0199
51907SOL    HW162579   6.499  12.333   7.592  0.2909  1.6817 -0.7896
51907SOL    HW262580   6.406  12.417   7.507 -2.0217 -0.5659 -0.6079
51908SOL     OW62581   6.994   5.408   4.763  0.2564 -0.1013  0.0005
51908SOL    HW162582   7.055   5.394   4.691  1.8134 -1.1818  1.4745
51908SOL    HW262583   6.953   5.322   4.777 -0.1354  0.1316  0.3058
51909SOL     OW62584   7.997  12.308   4.469  0.0198  0.7318 -0.2206
51909SOL    HW162585   8.019  12.353   4.550  3.1755  1.6072 -1.4105
51909SOL    HW262586   7.961  12.224   4.496  0.5451  1.1881  2.0545
51910SOL     OW62587   6.038  12.228   8.403  0.6235 -0.0736  0.7429
51910SOL    HW162588   5.989  12.175   8.466 -0.3330 -1.3784 -0.9775
51910SOL    HW262589   6.102  12.276   8.455  0.5386 -1.8216  2.5714
51911SOL     OW62590   4.219   7.384   8.329  0.2989 -0.0138 -0.2653
51911SOL    HW162591   4.238   7.398   8.236 -0.9739  0.5199 -0.4697
51911SOL    HW262592   4.149   7.446   8.348  1.0868  0.4562  1.2620
51912SOL     OW62593   8.640   7.524  12.568  0.0784 -0.0560  0.4454
51912SOL    HW162594   8.603   7.445  12.529 -1.1007  0.7603 -0.1696
51912SOL    HW262595   8.731   7.502  12.586  0.3103 -0.9078 -1.5612
51913SOL     OW62596   6.522   8.875  10.068  0.0823  0.1959 -0.5658
51913SOL    HW162597   6.464   8.799  10.078  0.2968 -0.1349 -1.6713
51913SOL    HW262598   6.610   8.837  10.064  0.3329  0.6455  0.4870
51914SOL     OW62599   0.065  11.822   1.244 -0.0099  0.2536 -0.0650
51914SOL    HW162600   0.137  11.823   1.306  0.8195  1.2496 -0.9926
51914SOL    HW262601  -0.013  11.843   1.296  0.6328  0.8720  0.6643
51915SOL     OW62602   7.156   8.186   9.338 -0.4257 -0.1127 -0.4512
51915SOL    HW162603   7.216   8.114   9.321 -1.2177 -0.8854 -0.0521
51915SOL    HW262604   7.207   8.265   9.320  1.3035 -0.6679  1.6701
51916SOL     OW62605   1.754  10.645   4.800 -0.1654  0.6910  1.4028
51916SOL    HW162606   1.738  10.714   4.735 -1.0843  0.1034  0.9889
51916SOL    HW262607   1.667  10.611   4.821  0.3581 -2.1178 -0.3787
51917SOL     OW62608   3.499  10.143   7.584 -0.3287  0.8100 -0.1678
51917SOL    HW162609   3.499  10.227   7.538 -0.6796  0.9099  0.0080
51917SOL    HW262610   3.422  10.147   7.641 -0.5935  0.1946 -0.4734
51918SOL     OW62611   4.143  12.149   9.242  0.3764  0.3148 -0.0686
51918SOL    HW162612   4.138  12.192   9.157 -2.7312 -0.6992 -0.5523
51918SOL    HW262613   4.058  12.168   9.283  1.5989  0.3640  2.6351
51919SOL     OW62614   8.694   2.575   5.350 -0.5103  0.3799 -0.3859
51919SOL    HW162615   8.774   2.577   5.297  0.6028 -0.5550  1.1826
51919SOL    HW262616   8.699   2.492   5.397 -0.8362  1.6384  2.0488
51920SOL     OW62617   4.379   8.522   8.513 -0.2642  0.3384  0.2778
51920SOL    HW162618   4.334   8.502   8.595 -0.1008 -0.0066  0.2836
51920SOL    HW262619   4.359   8.448   8.456  0.0641  0.3186  0.1880
51921SOL     OW62620   0.477   3.178   2.795  0.1463  0.2367 -0.3424
51921SOL    HW162621   0.505   3.248   2.854  2.7384 -1.2676  0.3520
51921SOL    HW262622   0.447   3.108   2.852  2.8035 -1.2857 -0.6480
51922SOL     OW62623   6.526   5.345  10.556  0.0774 -0.2877  0.1441
51922SOL    HW162624   6.549   5.267  10.504  1.6984  1.0732 -1.2951
51922SOL    HW262625   6.433   5.357  10.539  0.2488 -0.7227 -1.3465
51923SOL     OW62626   2.100   4.980   2.099 -0.6464  0.3835  0.3720
51923SOL    HW162627   2.016   4.951   2.066 -0.7165  0.5026  0.4419
51923SOL    HW262628   2.137   5.033   2.029 -0.2543 -0.3561  0.0106
51924SOL     OW62629   1.161   4.724   5.750 -0.8055 -0.0549  0.5598
51924SOL    HW162630   1.246   4.683   5.761 -0.1363  0.5003 -1.8938
51924SOL    HW262631   1.171   4.812   5.788 -0.0785  0.1988 -0.1877
51925SOL     OW62632   6.052   4.152   7.915 -0.4112 -0.5424  0.4592
51925SOL    HW162633   6.088   4.235   7.946 -1.1488 -0.4849  1.1865
51925SOL    HW262634   5.979   4.134   7.974 -1.3972 -0.8031 -0.7901
51926SOL     OW62635   3.960   8.667  10.030  0.0266 -0.5157  0.2487
51926SOL    HW162636   3.911   8.616   9.966 -1.6766  1.4820 -0.1513
51926SOL    HW262637   4.013   8.726   9.977 -1.4237  1.1841  0.5971
51927SOL     OW62638   2.611  10.535   6.602 -0.3829  0.2441  0.0018
51927SOL    HW162639   2.588  10.482   6.678 -1.8179 -1.2644 -1.4060
51927SOL    HW262640   2.663  10.608   6.638  0.3161 -1.2448  2.1904
51928SOL     OW62641   8.731  11.770   3.042 -0.2330 -0.3836 -0.0564
51928SOL    HW162642   8.780  11.734   3.116  0.7940  0.4285 -0.3048
51928SOL    HW262643   8.719  11.696   2.982  1.3996 -0.4599 -0.3422
51929SOL     OW62644   8.715   6.431   3.188  0.4147 -0.3890  0.4871
51929SOL    HW162645   8.806   6.402   3.181  0.3618 -0.5064  0.2620
51929SOL    HW262646   8.718   6.524   3.169  0.5755 -0.2606  1.1230
51930SOL     OW62647   5.433   3.718   8.654  0.2282  0.0935  0.0293
51930SOL    HW162648   5.523   3.733   8.683  0.8284 -1.9142 -0.5923
51930SOL    HW262649   5.409   3.635   8.696 -0.3225 -0.8049 -1.9590
51931SOL     OW62650   9.676  11.689  11.271  0.3090  0.0063 -0.5302
51931SOL    HW162651   9.677  11.753  11.342 -0.2206  1.8697 -2.1106
51931SOL    HW262652   9.754  11.710  11.218 -2.1315  2.4460 -3.5375
51932SOL     OW62653   7.273   0.221  10.839  0.2404 -0.3833  0.5157
51932SOL    HW162654   7.209   0.281  10.802  0.6855  0.7257  1.4694
51932SOL    HW262655   7.349   0.276  10.859  1.8344 -1.7914 -1.3069
51933SOL     OW62656   7.383   8.532   0.003  0.3737 -0.2352  0.1861
51933SOL    HW162657   7.389   8.458  -0.058  0.4966 -1.1482  1.2827
51933SOL    HW262658   7.470   8.537   0.043 -0.2115 -0.7650  1.5531
51934SOL     OW62659  11.186   7.303   6.639 -0.7669 -0.6545 -0.3879
51934SOL    HW162660  11.259   7.251   6.673  0.3141  0.3458 -1.1266
51934SOL    HW262661  11.183   7.281   6.545 -0.3101  0.5473 -0.7073
51935SOL     OW62662  10.242   7.411   8.581 -1.0597  0.2119 -0.0337
51935SOL    HW162663  10.283   7.496   8.594 -3.2151  1.3780 -0.4505
51935SOL    HW262664  10.216   7.410   8.490  0.0272 -1.4633 -0.3813
51936SOL     OW62665   5.971   2.985   7.189 -0.5624  0.0173  0.0724
51936SOL    HW162666   5.990   2.930   7.112  2.0419 -0.0909  0.7107
51936SOL    HW262667   5.977   3.075   7.157  2.7806  0.0546  0.4690
51937SOL     OW62668   1.203   5.199   8.504  0.5694  0.7166  0.0746
51937SOL    HW162669   1.240   5.135   8.442  0.0370  1.3421 -0.9220
51937SOL    HW262670   1.234   5.283   8.471  0.0650  1.0812  0.5281
51938SOL     OW62671   2.362   4.896   2.202  0.2544  0.3644 -0.2316
51938SOL    HW162672   2.267   4.905   2.205  0.0955 -1.0272 -0.5677
51938SOL    HW262673   2.383   4.895   2.108  0.4299 -0.7930 -0.1925
51939SOL     OW62674   5.265   4.567   6.557  0.7817 -0.0030  0.2756
51939SOL    HW162675   5.335   4.552   6.622  1.0344 -0.3521 -0.0740
51939SOL    HW262676   5.210   4.634   6.597  2.6897  2.1275 -0.5123
51940SOL     OW62677   2.775   8.025  12.140 -0.6365  0.1317 -0.3229
51940SOL    HW162678   2.736   7.951  12.095 -0.8659  0.9834 -1.5819
51940SOL    HW262679   2.861   7.994  12.168 -1.5636 -1.2834  1.1519
51941SOL     OW62680   4.001   6.421   5.536  0.2021  0.0572  0.2779
51941SOL    HW162681   3.963   6.355   5.478  0.0349  0.2066  0.2139
51941SOL    HW262682   3.947   6.499   5.522  0.4517  0.2338  0.2871
51942SOL     OW62683  12.261  12.137  10.007 -0.0882  0.2290  0.4235
51942SOL    HW162684  12.354  12.156  10.020 -0.4582  1.2331  1.7993
51942SOL    HW262685  12.226  12.217   9.969 -0.1555 -0.6338 -1.3974
51943SOL     OW62686   4.182   0.237  12.260  0.5572  0.2749 -0.5924
51943SOL    HW162687   4.207   0.275  12.344 -1.1755 -1.2834  0.7284
51943SOL    HW262688   4.131   0.306  12.216  0.5720  0.7399  0.1117
51944SOL     OW62689   5.474   6.490   5.790  0.1732 -0.2388  0.1124
51944SOL    HW162690   5.470   6.562   5.853 -0.0997 -1.7062  1.8471
51944SOL    HW262691   5.524   6.525   5.717  0.9247  1.3800  1.3383
51945SOL     OW62692   4.380   9.605  11.875  0.2512 -0.0547  0.3829
51945SOL    HW162693   4.413   9.615  11.786  1.1962 -2.1008  0.4288
51945SOL    HW262694   4.384   9.510  11.891 -1.4410  0.0960  2.0316
51946SOL     OW62695   0.904   4.640   8.405 -0.3557 -0.2858 -0.3401
51946SOL    HW162696   0.820   4.657   8.448  0.6460 -0.9398  2.0418
51946SOL    HW262697   0.882   4.576   8.337 -1.6135 -1.7343  1.2941
51947SOL     OW62698   3.941   6.483   9.556 -0.2672 -0.4688  0.2859
51947SOL    HW162699   3.922   6.465   9.464  1.0511  0.2430 -0.1575
51947SOL    HW262700   3.875   6.547   9.582 -0.4425 -0.4113 -0.2767
51948SOL     OW62701  10.939  10.994   0.769 -0.0289 -0.3638  0.1875
51948SOL    HW162702  10.974  11.083   0.777 -1.3234  0.0449  1.9412
51948SOL    HW262703  11.012  10.942   0.735  1.3084  1.0262  0.8270
51949SOL     OW62704   1.757   0.602   0.536 -0.6029  0.8834  0.0524
51949SOL    HW162705   1.816   0.666   0.496 -1.2858  1.7080  0.3491
51949SOL    HW262706   1.701   0.653   0.594 -0.5277 -0.1077  1.0446
51950SOL     OW62707  11.128  10.467   0.321  0.1419  0.1728 -0.0125
51950SOL    HW162708  11.110  10.396   0.259  2.6544  0.4184 -1.1672
51950SOL    HW262709  11.223  10.468   0.329  0.0966  2.4262  1.1616
51951SOL     OW62710   8.521  11.741   4.403  0.1764  0.2513  0.1865
51951SOL    HW162711   8.610  11.760   4.375 -0.0623  0.5547 -0.4081
51951SOL    HW262712   8.490  11.675   4.341  0.3641 -0.6994  1.0911
51952SOL     OW62713   9.374   7.038   7.079  0.2021 -0.2772 -0.1180
51952SOL    HW162714   9.334   7.032   7.166  0.8031  2.4111  0.4114
51952SOL    HW262715   9.457   6.990   7.088  2.1723  3.1497  2.0946
51953SOL     OW62716   5.722   5.797  12.180  0.2315 -0.3414 -0.4353
51953SOL    HW162717   5.735   5.877  12.129  2.4164 -0.6961 -0.5281
51953SOL    HW262718   5.772   5.811  12.261 -1.3504 -0.6817  0.6588
51954SOL     OW62719  11.808   2.944   0.125 -0.4367 -0.0583  0.2802
51954SOL    HW162720  11.848   2.896   0.198 -1.8894 -0.7659  0.6542
51954SOL    HW262721  11.722   2.904   0.115 -0.2604 -0.0203 -1.8816
51955SOL     OW62722   8.060   2.291  11.741 -0.2947  0.4555 -0.0532
51955SOL    HW162723   7.999   2.267  11.671 -1.3168  1.0555  0.6096
51955SOL    HW262724   8.007   2.343  11.802  0.6333  0.1443  1.0440
51956SOL     OW62725  11.392   7.980  10.946 -0.0319 -0.2869 -0.1909
51956SOL    HW162726  11.415   7.924  10.872  2.4381 -0.2771  0.4895
51956SOL    HW262727  11.433   8.064  10.926 -2.2980  0.8647 -0.4039
51957SOL     OW62728   1.043   0.705  10.973  0.2970 -0.2688  0.1323
51957SOL    HW162729   1.053   0.792  11.010  0.5651 -0.3453  0.2412
51957SOL    HW262730   1.018   0.721  10.882  2.1988 -0.0390 -0.4002
51958SOL     OW62731  10.117  11.449   8.972 -0.0462  0.2409 -0.2665
51958SOL    HW162732  10.116  11.537   8.935 -1.0803  0.5047  0.3668
51958SOL    HW262733  10.027  11.418   8.964 -0.0282 -0.1522  0.9519
51959SOL     OW62734   8.177  12.377  10.558  0.2127 -0.0422  0.2525
51959SOL    HW162735   8.115  12.330  10.503  0.4821 -0.7126  0.5164
51959SOL    HW262736   8.173  12.332  10.643  0.5206  0.3682  0.4905
51960SOL     OW62737   4.086   2.448   3.371  0.3313  0.0064  0.3782
51960SOL    HW162738   4.052   2.424   3.285  0.0220  0.6767  0.3086
51960SOL    HW262739   4.176   2.416   3.371  0.8939  1.5114 -0.8435
51961SOL     OW62740   7.995  10.503   5.110 -0.0241 -0.7786 -0.2559
51961SOL    HW162741   8.085  10.515   5.080 -0.2122  0.6894 -0.3065
51961SOL    HW262742   8.003  10.454   5.192  0.8410 -0.4202 -0.1143
51962SOL     OW62743   4.887   0.931   7.269  0.5416 -0.0345 -0.1858
51962SOL    HW162744   4.878   0.840   7.240 -0.1086  0.4964 -1.7224
51962SOL    HW262745   4.920   0.978   7.193 -0.9407  1.3642 -0.0258
51963SOL     OW62746   0.722   2.478   6.777  0.4672 -0.1743 -0.6733
51963SOL    HW162747   0.811   2.447   6.790  0.7407 -0.0983 -2.2549
51963SOL    HW262748   0.698   2.517   6.861  0.7983 -2.8822  0.8036
51964SOL     OW62749   5.100   3.620   3.432 -0.0510  0.4537 -0.1383
51964SOL    HW162750   5.008   3.637   3.453 -0.5515 -0.3096 -1.6208
51964SOL    HW262751   5.110   3.651   3.342  0.4433 -1.8505 -0.9430
51965SOL     OW62752  11.196   5.444   6.590  0.4250  0.0734 -0.0795
51965SOL    HW162753  11.106   5.473   6.605  0.5190 -0.1182  0.8769
51965SOL    HW262754  11.216   5.386   6.663  1.6923  0.9449  0.3005
51966SOL     OW62755  12.197   0.589  11.911  0.0812  0.4977  0.2478
51966SOL    HW162756  12.282   0.582  11.954 -0.1995  1.6575  1.0528
51966SOL    HW262757  12.216   0.578  11.818  0.8888 -0.7403  0.5239
51967SOL     OW62758   4.321   4.786   5.529  0.2790  0.0826  0.3581
51967SOL    HW162759   4.331   4.725   5.602  0.7193 -0.2635  0.0160
51967SOL    HW262760   4.227   4.792   5.516  0.2512 -1.1324 -0.1032
51968SOL     OW62761   7.060   3.630   7.412  0.6395 -0.2804  0.2149
51968SOL    HW162762   7.151   3.601   7.412  0.6670 -0.3276 -1.6837
51968SOL    HW262763   7.063   3.719   7.448  1.4318 -0.3122  0.2413
51969SOL     OW62764  11.657   7.183   3.722  0.5838  0.2962  0.0440
51969SOL    HW162765  11.650   7.124   3.797 -1.4185 -0.2731 -0.5190
51969SOL    HW262766  11.751   7.199   3.713  0.9069  0.0349  2.3728
51970SOL     OW62767   7.996  12.106   9.419  0.1308 -0.2748  0.0788
51970SOL    HW162768   8.012  12.065   9.333  1.4694 -0.0356  0.1901
51970SOL    HW262769   7.938  12.045   9.464 -0.9751 -0.1796 -1.1595
51971SOL     OW62770   8.659   4.921   4.070  0.0608 -0.0315 -0.1977
51971SOL    HW162771   8.609   4.933   4.150 -0.4827 -0.4506 -0.4636
51971SOL    HW262772   8.726   4.989   4.072  0.0881 -0.0823  0.6356
51972SOL     OW62773   6.606   4.044  11.581  0.1755 -0.9330 -0.3919
51972SOL    HW162774   6.699   4.059  11.595 -0.4083  2.2725  1.0113
51972SOL    HW262775   6.571   4.023  11.667 -0.8310  1.3439 -0.1701
51973SOL     OW62776   7.466   2.585   7.018  0.2974 -0.1517  0.3995
51973SOL    HW162777   7.413   2.583   6.939  0.6424 -0.1210  0.1626
51973SOL    HW262778   7.533   2.651   7.000 -1.5240  2.3015  1.9767
51974SOL     OW62779   7.976   8.053   6.969 -0.1439  0.4597  0.4700
51974SOL    HW162780   8.061   8.015   6.949 -0.0503  0.7422  0.3230
51974SOL    HW262781   7.914   7.981   6.959  0.0683  0.2699  0.5118
51975SOL     OW62782   6.760   2.673   1.400 -0.1469  0.1952 -0.1846
51975SOL    HW162783   6.714   2.663   1.483  0.3255 -0.4365  0.0072
51975SOL    HW262784   6.851   2.655   1.420 -0.2216 -1.4029 -1.1050
51976SOL     OW62785  10.374   6.973  10.415 -0.3772  0.0774  0.6950
51976SOL    HW162786  10.451   7.030  10.412 -0.5649  0.3415  0.9079
51976SOL    HW262787  10.410   6.886  10.433 -0.1934  0.3292  1.5484
51977SOL     OW62788   9.373   2.317  10.158 -0.2216 -0.0766  0.3268
51977SOL    HW162789   9.417   2.267  10.227  1.1246 -1.1868 -1.2615
51977SOL    HW262790   9.379   2.261  10.080 -0.6906  1.6028 -0.9740
51978SOL     OW62791   0.800   3.073   3.421  0.2356  0.1256 -0.0941
51978SOL    HW162792   0.767   2.983   3.415 -1.7317  0.6997  1.0961
51978SOL    HW262793   0.779   3.112   3.336  1.8744 -0.7162 -0.9438
51979SOL     OW62794   7.105   8.926   4.795 -0.1893  0.3111 -0.9451
51979SOL    HW162795   7.023   8.919   4.745  0.2517 -4.6874 -1.4921
51979SOL    HW262796   7.173   8.935   4.728 -0.0010 -0.9444 -0.9572
51980SOL     OW62797   5.027   1.623   3.436  0.4718  0.2863  0.5758
51980SOL    HW162798   5.005   1.711   3.407  2.2306  0.5792 -0.0457
51980SOL    HW262799   5.092   1.593   3.372 -1.1029 -2.0311 -0.0714
51981SOL     OW62800   1.304   3.143   8.625  0.0998  0.2535  0.3421
51981SOL    HW162801   1.264   3.116   8.542  0.7677  0.9741 -0.2341
51981SOL    HW262802   1.243   3.113   8.692  0.3261 -1.8005 -0.2976
51982SOL     OW62803  11.977   6.459   1.002 -0.3467 -0.1700 -0.2196
51982SOL    HW162804  11.972   6.435   1.094 -0.7677 -0.5937 -0.3464
51982SOL    HW262805  11.948   6.380   0.955  1.4500 -0.5468 -0.7826
51983SOL     OW62806   0.813   8.556   2.028 -0.3354  0.0697  0.9228
51983SOL    HW162807   0.842   8.477   2.073 -1.2198 -0.9576 -0.2516
51983SOL    HW262808   0.794   8.528   1.938  0.2599  1.8089  0.1915
51984SOL     OW62809   0.742   9.477   4.482  0.3837  0.0579 -0.3810
51984SOL    HW162810   0.703   9.410   4.426  1.7453 -1.8668  0.8493
51984SOL    HW262811   0.718   9.451   4.571  1.7659  0.6310  0.1885
51985SOL     OW62812   6.340   4.086   9.313  0.3787  0.4606  0.3923
51985SOL    HW162813   6.374   4.014   9.259  1.3752  2.0790 -1.2572
51985SOL    HW262814   6.246   4.087   9.295  0.4105 -0.1714  0.1454
51986SOL     OW62815   5.490   6.501   6.739 -0.0561  0.2513 -0.1072
51986SOL    HW162816   5.474   6.410   6.767 -0.5998 -0.1938 -1.7466
51986SOL    HW262817   5.541   6.539   6.810  0.5025 -1.4501  0.4600
51987SOL     OW62818   7.786   2.683  12.540 -0.5248  0.3653  0.2274
51987SOL    HW162819   7.704   2.730  12.530  0.6760  2.3280 -1.0444
51987SOL    HW262820   7.839   2.738  12.598  1.1586  1.0409 -1.8217
51988SOL     OW62821   0.676  12.391   1.100 -0.1632 -0.3557  0.2499
51988SOL    HW162822   0.620  12.440   1.039  0.9566 -0.4711 -0.9187
51988SOL    HW262823   0.754  12.369   1.048  0.5249 -1.0607  1.5404
51989SOL     OW62824   0.954  10.853   2.258 -0.4179 -0.1001 -0.0908
51989SOL    HW162825   0.937  10.947   2.252  0.3611  0.0507  0.0802
51989SOL    HW262826   1.018  10.835   2.190 -0.3981 -0.4709  0.0229
51990SOL     OW62827  11.091   2.433   4.976 -0.1075  0.4482 -0.4148
51990SOL    HW162828  11.129   2.456   4.892 -1.3385  3.5218 -0.2288
51990SOL    HW262829  10.998   2.418   4.958 -0.1525 -0.1468  0.2270
51991SOL     OW62830   9.934   3.821  11.648 -0.0453  0.0632  0.4194
51991SOL    HW162831   9.850   3.783  11.621 -1.0758  0.9995  2.1801
51991SOL    HW262832   9.955   3.883  11.579 -1.6122  0.9587  0.7012
51992SOL     OW62833  10.143  11.448   2.841 -0.0468 -0.2010  0.2435
51992SOL    HW162834  10.091  11.416   2.914 -1.1705  1.1921  0.1051
51992SOL    HW262835  10.185  11.370   2.805  0.1531 -0.9704  2.0650
51993SOL     OW62836   8.216  11.753   9.228 -0.0441  0.6107  0.5754
51993SOL    HW162837   8.208  11.665   9.191 -0.8555  0.1842  1.7098
51993SOL    HW262838   8.301  11.753   9.272  0.3158  0.6827 -0.0890
51994SOL     OW62839   7.416   1.454   3.744 -0.2054  0.5797  0.0925
51994SOL    HW162840   7.398   1.468   3.651  2.8385 -0.4518 -0.7807
51994SOL    HW262841   7.462   1.533   3.772 -1.0920  0.8787  0.7482
51995SOL     OW62842   7.789  10.397   9.995 -0.2177 -0.2900 -0.0617
51995SOL    HW162843   7.767  10.478   9.950  3.7752  0.7198 -0.5551
51995SOL    HW262844   7.796  10.332   9.925 -1.2745 -0.5908  0.0863
51996SOL     OW62845   6.634  10.105   8.374  0.4156  0.4775  0.3157
51996SOL    HW162846   6.556  10.120   8.320  1.0399 -1.0553 -1.0767
51996SOL    HW262847   6.599  10.087   8.461 -0.7966 -0.1927 -0.2888
51997SOL     OW62848   7.041   7.455   6.876 -0.6711  0.9890 -0.4603
51997SOL    HW162849   6.981   7.432   6.804 -1.7321  0.8311  0.4466
51997SOL    HW262850   7.003   7.412   6.953  1.7576 -0.9049 -0.1919
51998SOL     OW62851   8.323  10.160   4.042  0.2908 -0.6237  0.2270
51998SOL    HW162852   8.333  10.255   4.043  0.8107 -0.6671  1.4943
51998SOL    HW262853   8.389  10.129   3.981 -0.3356 -0.1465 -0.7230
51999SOL     OW62854   7.034   5.220   8.709 -0.0309  0.0342 -0.4080
51999SOL    HW162855   7.033   5.226   8.613 -2.2005  1.4434 -0.3664
51999SOL    HW262856   6.965   5.157   8.730 -0.4617  0.7073  0.2385
52000SOL     OW62857  11.233   6.924   3.367 -0.0845  0.1501  0.3391
52000SOL    HW162858  11.187   6.853   3.322  0.0577  0.6755 -0.6621
52000SOL    HW262859  11.197   6.923   3.456 -1.1749 -0.1959 -0.0910
52001SOL     OW62860   5.046   0.823  11.759  0.1227  0.6480 -0.4718
52001SOL    HW162861   5.114   0.846  11.822  0.1180  0.5206 -0.4199
52001SOL    HW262862   4.963   0.844  11.803  0.1332  0.9087 -0.5784
52002SOL     OW62863   2.811  11.452   9.384  0.4944 -0.6540  0.2644
52002SOL    HW162864   2.843  11.363   9.367  0.2991 -0.2825 -2.3838
52002SOL    HW262865   2.883  11.509   9.358  0.7873  0.0353  2.3678
52003SOL     OW62866   1.572  10.737   8.106 -0.0762 -0.6091 -0.1236
52003SOL    HW162867   1.515  10.806   8.073 -1.4618 -0.7147  1.8636
52003SOL    HW262868   1.635  10.784   8.161  1.5871 -0.5399 -1.9821
52004SOL     OW62869   5.109   5.993   3.053 -0.1766 -0.4626  0.5481
52004SOL    HW162870   5.134   6.054   2.984 -1.9705 -0.6152 -0.2892
52004SOL    HW262871   5.113   6.045   3.134  0.3662  0.1594  0.1275
52005SOL     OW62872   8.624   5.036  11.339 -0.2260  0.6912 -0.2263
52005SOL    HW162873   8.533   5.066  11.338  0.0482  1.6197  0.5634
52005SOL    HW262874   8.673   5.109  11.301  0.1357 -0.0647 -1.2650
52006SOL     OW62875  12.191   3.379   4.546 -0.5566  0.8166 -0.1926
52006SOL    HW162876  12.147   3.355   4.628 -0.3563 -0.9050 -0.5635
52006SOL    HW262877  12.283   3.360   4.562 -0.5683  0.1053 -0.9429
52007SOL     OW62878   8.795   2.315   7.858 -0.0388 -0.4793 -0.0355
52007SOL    HW162879   8.825   2.281   7.942 -2.5702  0.8545  1.5331
52007SOL    HW262880   8.750   2.241   7.817  0.5220 -0.9145  0.1132
52008SOL     OW62881   5.966   2.836   3.654 -0.2954 -0.4480 -0.1669
52008SOL    HW162882   5.982   2.912   3.709  2.0471 -1.9206  1.3752
52008SOL    HW262883   5.871   2.834   3.641 -0.8462  0.5221  3.0173
52009SOL     OW62884   6.442   9.849   1.144  0.6614  0.3033 -0.3176
52009SOL    HW162885   6.493   9.802   1.079  0.0595  1.8503 -1.9785
52009SOL    HW262886   6.459   9.942   1.126 -0.1507  0.7869  1.2238
52010SOL     OW62887   7.604   5.714   5.461 -0.2409  0.4813 -0.2588
52010SOL    HW162888   7.691   5.683   5.485 -0.5330 -1.3629 -1.3502
52010SOL    HW262889   7.573   5.762   5.538  1.6505  1.0169  0.2017
52011SOL     OW62890  11.787  10.117  11.410  0.1272 -0.2157  0.5252
52011SOL    HW162891  11.814  10.077  11.328  1.9585  1.4749  0.2268
52011SOL    HW262892  11.696  10.141  11.397  0.0415 -1.0779 -0.5388
52012SOL     OW62893  11.034   4.913   6.143 -0.2936  0.1367  0.1750
52012SOL    HW162894  10.974   4.860   6.196 -2.5991  2.4677  0.0906
52012SOL    HW262895  11.016   5.003   6.169  1.6045  1.0982 -1.5338
52013SOL     OW62896   6.736  10.544   4.818  0.4221  0.1336 -0.4483
52013SOL    HW162897   6.741  10.609   4.888  0.7660 -0.4580  0.0863
52013SOL    HW262898   6.827  10.523   4.798  0.3184 -1.0166  0.1824
52014SOL     OW62899   8.889   0.686   6.366  0.4908  0.7753  0.0732
52014SOL    HW162900   8.920   0.721   6.282 -2.0248  1.2637 -0.7276
52014SOL    HW262901   8.821   0.624   6.342 -1.2498  1.9243  1.7824
52015SOL     OW62902   7.210   7.301   9.043  0.2416  0.1481 -0.3603
52015SOL    HW162903   7.294   7.254   9.047  0.6783  0.8347 -1.1143
52015SOL    HW262904   7.234   7.393   9.058 -0.4226  0.3066 -0.2682
52016SOL     OW62905   2.741   8.217   9.823 -0.1556  0.2154 -0.0415
52016SOL    HW162906   2.747   8.233   9.917  0.3044 -2.1946  0.4150
52016SOL    HW262907   2.727   8.303   9.784 -0.4840  1.2500  2.2344
52017SOL     OW62908   0.476   9.071   9.378 -0.5869 -0.7090  0.2493
52017SOL    HW162909   0.503   9.152   9.420 -0.0892  0.7439 -2.6804
52017SOL    HW262910   0.389   9.053   9.415 -0.6983  1.1137  0.9602
52018SOL     OW62911   2.723   8.144   8.350 -0.1471 -0.6158 -0.5687
52018SOL    HW162912   2.644   8.197   8.360 -0.1891 -0.7517 -0.1907
52018SOL    HW262913   2.791   8.193   8.395  0.0502 -0.3581 -1.1383
52019SOL     OW62914  11.503  10.533   8.820  0.5192 -0.3117 -0.1542
52019SOL    HW162915  11.456  10.598   8.874 -1.1979  1.3987 -3.4026
52019SOL    HW262916  11.440  10.462   8.808  0.5156 -0.2150 -0.7132
52020SOL     OW62917   0.717   8.672   1.123 -0.3449 -0.4384 -0.4435
52020SOL    HW162918   0.731   8.712   1.209 -1.3705  0.0080 -0.4721
52020SOL    HW262919   0.649   8.607   1.137 -3.2149  2.1165 -1.5414
52021SOL     OW62920   9.438   4.125   6.268 -0.5862 -0.4363  0.5412
52021SOL    HW162921   9.447   4.200   6.209 -0.2102 -0.6335  0.3380
52021SOL    HW262922   9.361   4.078   6.235 -1.1815  0.1776  1.0373
52022SOL     OW62923   1.253  10.453   0.170  0.4200 -0.4780 -0.4970
52022SOL    HW162924   1.252  10.390   0.098 -0.7744 -0.3251 -0.6426
52022SOL    HW262925   1.343  10.452   0.202  0.5138 -2.0081 -0.7132
52023SOL     OW62926   7.925  11.981   5.036 -0.0817  0.4673  0.7042
52023SOL    HW162927   7.866  12.034   5.089  1.7698  2.3037  1.0383
52023SOL    HW262928   7.909  12.009   4.946 -1.1659 -0.5879  0.5286
52024SOL     OW62929  10.708   6.090   2.108  0.1167  0.3566  0.6413
52024SOL    HW162930  10.710   6.151   2.182  0.3626  0.2784  0.7022
52024SOL    HW262931  10.740   6.141   2.034 -1.0572  0.7157  0.3672
52025SOL     OW62932  11.356   3.992   0.409 -0.2992 -0.2500 -0.0536
52025SOL    HW162933  11.436   4.032   0.445  0.7508 -1.5301 -0.8586
52025SOL    HW262934  11.374   3.898   0.411 -1.2464 -0.4906 -1.5336
52026SOL     OW62935   9.085   1.523   3.191  0.2663  0.6807  0.1366
52026SOL    HW162936   9.055   1.457   3.254 -0.6389  1.3022  0.3814
52026SOL    HW262937   9.173   1.495   3.167  0.9014  0.7537  2.1633
52027SOL     OW62938   9.574   9.135   5.572 -0.0155  0.2664  0.3956
52027SOL    HW162939   9.507   9.154   5.506  1.7583  0.8380 -1.3463
52027SOL    HW262940   9.603   9.221   5.602  0.1622  0.0289  0.9144
52028SOL     OW62941   2.576  11.883   1.812  0.1966 -0.0617 -0.3562
52028SOL    HW162942   2.481  11.888   1.807  0.1675  1.5934  0.8282
52028SOL    HW262943   2.595  11.850   1.899  0.7097 -0.5830 -0.6574
52029SOL     OW62944   3.829   7.730   9.206  1.3527 -0.6205 -0.3483
52029SOL    HW162945   3.766   7.658   9.195  0.2306  0.3968 -0.7718
52029SOL    HW262946   3.828   7.775   9.121  0.9176  0.7712  0.3723
52030SOL     OW62947   2.911  11.474   9.732 -0.3865  0.1374 -0.4575
52030SOL    HW162948   2.929  11.568   9.725  0.1165  0.1162  0.4592
52030SOL    HW262949   2.897  11.446   9.641 -2.3067  1.4208 -0.6225
52031SOL     OW62950   2.129  12.379   2.276  0.1536 -0.4279  0.4253
52031SOL    HW162951   2.178  12.415   2.203  0.7634 -2.3208 -0.1455
52031SOL    HW262952   2.103  12.455   2.327  1.0441  0.8238 -0.9213
52032SOL     OW62953   9.237   2.937   4.668 -0.5144  0.2287  0.0950
52032SOL    HW162954   9.171   3.006   4.678 -0.9923 -0.3040  0.6890
52032SOL    HW262955   9.187   2.861   4.639  0.3292  0.7616 -3.2277
52033SOL     OW62956   1.848   0.429   3.640  0.2907 -0.6357 -0.1652
52033SOL    HW162957   1.807   0.501   3.593  0.0030 -0.0156  0.9948
52033SOL    HW262958   1.775   0.371   3.664  0.2091 -0.1249  0.8881
52034SOL     OW62959   9.637   1.616   9.460 -0.3694  0.3100  0.2755
52034SOL    HW162960   9.598   1.544   9.412 -1.1678  0.0345  1.2926
52034SOL    HW262961   9.609   1.602   9.551 -0.7620  2.0154  0.4564
52035SOL     OW62962   6.636  10.844   3.152  0.6619  0.4754  0.0097
52035SOL    HW162963   6.554  10.805   3.181  0.9659 -0.7771 -0.7355
52035SOL    HW262964   6.665  10.788   3.079  1.0148  2.2405 -1.2593
52036SOL     OW62965   7.089   7.115   6.442 -0.1455 -0.3955  0.5060
52036SOL    HW162966   7.147   7.190   6.454 -0.2258 -0.1424 -0.6377
52036SOL    HW262967   7.052   7.100   6.529  0.6373  0.2526  0.9653
52037SOL     OW62968   4.919   3.249   5.578  0.0077  0.3587  0.0588
52037SOL    HW162969   4.910   3.154   5.574 -0.5415  0.2593  2.1759
52037SOL    HW262970   4.986   3.264   5.645 -0.4043  1.4686  0.2484
52038SOL     OW62971   1.356  11.450  11.559 -0.0485 -0.6627 -0.0012
52038SOL    HW162972   1.403  11.526  11.593 -2.0487 -0.2988  2.1751
52038SOL    HW262973   1.370  11.382  11.624  0.4974 -1.7513 -1.2016
52039SOL     OW62974   3.944   6.247  12.104  0.4510 -0.3976 -0.0249
52039SOL    HW162975   3.877   6.224  12.168 -0.1542 -0.4028 -0.6561
52039SOL    HW262976   3.897   6.257  12.022  1.1686 -0.0229 -0.4007
52040SOL     OW62977   2.272   7.912   6.944 -0.2042  0.2279  0.2604
52040SOL    HW162978   2.242   7.981   6.886 -0.0493  0.5580  0.5737
52040SOL    HW262979   2.357   7.942   6.976 -0.2495  0.0118  0.5908
52041SOL     OW62980   9.959   7.717   2.933  0.4112  0.1516 -0.2816
52041SOL    HW162981   9.918   7.714   2.846 -1.5852 -1.1614  0.6149
52041SOL    HW262982   9.986   7.627   2.950  0.8364  0.4084  0.4378
52042SOL     OW62983   9.870  10.141   6.442 -0.3015 -0.0536  0.2509
52042SOL    HW162984   9.914  10.062   6.410 -0.3374 -0.6206  1.5275
52042SOL    HW262985   9.782  10.111   6.466 -0.9058  0.7589 -0.8884
52043SOL     OW62986  10.008  12.196   4.830 -0.6834  0.1816  0.6464
52043SOL    HW162987  10.075  12.179   4.764 -0.9889 -0.1981  0.4291
52043SOL    HW262988   9.959  12.271   4.796  0.6639  1.5298  1.6046
52044SOL     OW62989   8.271   7.106  11.302  0.1472  0.2515  0.8929
52044SOL    HW162990   8.356   7.061  11.301 -0.1993 -0.5898 -1.9660
52044SOL    HW262991   8.285   7.183  11.247 -1.2660 -0.7745 -1.0213
52045SOL     OW62992   5.305  12.471   5.971 -0.0156  0.1081  0.0134
52045SOL    HW162993   5.254  12.450   5.893  1.2004  0.6398 -0.9716
52045SOL    HW262994   5.327  12.385   6.009  1.6983 -0.3500 -1.8189
52046SOL     OW62995  11.921   2.743   7.010 -0.3742  0.3906  0.1127
52046SOL    HW162996  11.978   2.682   6.964 -0.0240  0.0726  0.9372
52046SOL    HW262997  11.832   2.714   6.990 -0.2930 -2.6017  3.1382
52047SOL     OW62998   4.266   9.054   8.567 -0.2063 -0.0008  0.3791
52047SOL    HW162999   4.280   9.010   8.651  0.3044  1.7919  1.2920
52047SOL    HW263000   4.338   9.023   8.512 -0.3377 -0.9167  0.6983
52048SOL     OW63001   8.421  10.436   2.885  0.1600 -0.2715 -0.5538
52048SOL    HW163002   8.492  10.379   2.857  0.3591  0.2631 -1.1740
52048SOL    HW263003   8.386  10.395   2.964  0.7223 -0.8926 -0.6229
52049SOL     OW63004  11.729   4.517  10.738  0.6249 -0.7616 -0.1058
52049SOL    HW163005  11.802   4.479  10.689  0.3420  0.7425 -1.7668
52049SOL    HW263006  11.765   4.529  10.826  3.0425  1.4798 -1.2541
52050SOL     OW63007   8.788   1.515   8.608 -0.7372 -0.2400  0.2634
52050SOL    HW163008   8.836   1.433   8.602 -2.3215 -1.1973  0.2014
52050SOL    HW263009   8.785   1.533   8.702  2.5454  1.6293  0.1748
52051SOL     OW63010   5.302   8.047   6.321 -0.4093  0.3289 -0.1110
52051SOL    HW163011   5.396   8.064   6.320 -0.2239 -0.6711 -1.0007
52051SOL    HW263012   5.267   8.106   6.254 -0.2478 -0.1995 -0.6621
52052SOL     OW63013   1.867   6.043   3.859 -0.1972 -0.3592 -0.6923
52052SOL    HW163014   1.783   5.998   3.866 -0.0414 -0.3820  2.0782
52052SOL    HW263015   1.931   5.979   3.888  0.4441  0.4567 -0.2433
52053SOL     OW63016   4.838   9.238  10.032  0.4566 -0.2178  0.3132
52053SOL    HW163017   4.899   9.247  10.105 -0.4357 -0.7352  1.1424
52053SOL    HW263018   4.872   9.164   9.981  1.1984  0.2751  0.0656
52054SOL     OW63019   7.020   9.684   4.226 -0.1575 -0.0892 -0.3520
52054SOL    HW163020   7.084   9.742   4.185  0.9062 -1.4465 -0.6730
52054SOL    HW263021   6.988   9.733   4.302 -0.3764  1.4873 -1.4256
52055SOL     OW63022   7.548   4.733   4.734 -0.1048 -0.1194  0.0760
52055SOL    HW163023   7.569   4.753   4.825 -0.4420 -0.5531  0.2466
52055SOL    HW263024   7.510   4.645   4.736 -2.0449  0.6655 -0.2155
52056SOL     OW63025   4.755   2.073   5.442 -0.5091  0.5779 -0.7362
52056SOL    HW163026   4.737   2.048   5.533 -0.0817  0.8451 -0.5789
52056SOL    HW263027   4.707   2.155   5.430  0.4206  1.1928 -0.3726
52057SOL     OW63028   5.602   4.469   6.549 -0.5047 -0.4955  0.4695
52057SOL    HW163029   5.535   4.458   6.617 -2.3735  3.1295 -0.5619
52057SOL    HW263030   5.672   4.518   6.592  0.3286 -1.9472  0.8295
52058SOL     OW63031   6.219   1.199   7.145 -0.4119 -0.7802 -0.4901
52058SOL    HW163032   6.256   1.273   7.193 -2.0958 -0.6656  0.7247
52058SOL    HW263033   6.235   1.123   7.202 -1.9593 -0.7278  0.0610
52059SOL     OW63034   5.730  12.460   8.960  0.7026 -0.0204 -0.4482
52059SOL    HW163035   5.655  12.462   8.900  0.4773  0.3972 -0.1561
52059SOL    HW263036   5.733  12.548   8.998 -0.0774 -0.6982  1.2874
52060SOL     OW63037  11.870   6.612   9.045  0.4764 -0.2504  0.4932
52060SOL    HW163038  11.808   6.685   9.046  0.7880  0.0422  2.3108
52060SOL    HW263039  11.866   6.579   8.956  1.3021  2.7935 -0.8111
52061SOL     OW63040   8.262   6.377   6.797  0.5093 -0.1783 -0.4937
52061SOL    HW163041   8.281   6.288   6.828 -2.5254 -1.2085 -1.2072
52061SOL    HW263042   8.294   6.377   6.706  2.3663  0.2330  0.1062
52062SOL     OW63043  11.120   0.245   9.565 -0.1707 -0.1961 -0.1742
52062SOL    HW163044  11.103   0.159   9.602 -1.9422  0.3289  0.3448
52062SOL    HW263045  11.044   0.298   9.591  1.0975  1.6638 -0.0586
52063SOL     OW63046   1.961   5.792   0.048  0.3435  0.0830  0.4992
52063SOL    HW163047   1.915   5.772  -0.034  1.3636 -0.7594  0.1170
52063SOL    HW263048   1.963   5.888   0.051  1.3980  0.1489 -1.1246
52064SOL     OW63049   7.554   1.161   7.516 -0.0491  0.2563 -0.0065
52064SOL    HW163050   7.640   1.181   7.479 -0.0991 -0.1065 -0.3300
52064SOL    HW263051   7.540   1.068   7.495  0.0679 -0.0492  1.2192
52065SOL     OW63052   9.136  10.574   2.644  0.3851 -0.2014  0.0542
52065SOL    HW163053   9.073  10.532   2.585  0.1513  0.2171  0.0014
52065SOL    HW263054   9.190  10.502   2.677 -0.9551 -0.7570  1.1295
52066SOL     OW63055   3.111   3.359   5.914  0.0079  0.4891 -0.4313
52066SOL    HW163056   3.192   3.338   5.961  0.2457  0.0173 -1.0311
52066SOL    HW263057   3.043   3.310   5.961 -0.1076  1.6324  0.6553
52067SOL     OW63058   8.320   2.798   5.292 -0.6618  0.2347 -0.1244
52067SOL    HW163059   8.297   2.870   5.233 -3.1678  0.2427  0.7531
52067SOL    HW263060   8.285   2.825   5.377  2.9724  0.3012  1.5401
52068SOL     OW63061   3.763   2.112   8.739  0.2973  0.2850  0.3124
52068SOL    HW163062   3.774   2.207   8.733 -0.7754  0.4573  0.6871
52068SOL    HW263063   3.782   2.092   8.831 -0.8901  0.3818  0.6083
52069SOL     OW63064   6.315  12.528   2.243 -0.0978  0.1116 -0.1543
52069SOL    HW163065   6.401  12.487   2.252  0.8688  1.1988 -3.4132
52069SOL    HW263066   6.309  12.588   2.318  3.1365  1.8976 -1.1626
52070SOL     OW63067   9.065  10.784   4.132 -0.3630 -0.0109 -0.7738
52070SOL    HW163068   9.067  10.739   4.217  3.3394  1.3050  0.0558
52070SOL    HW263069   9.022  10.722   4.073 -1.2193 -1.8626  1.6134
52071SOL     OW63070  10.758   1.875   0.048  0.0633  0.4569  0.1273
52071SOL    HW163071  10.843   1.901   0.084  1.0134 -1.2695 -0.6943
52071SOL    HW263072  10.743   1.935  -0.025  0.7083  0.6294  0.1321
52072SOL     OW63073   3.231   0.286   2.465  0.0796  0.3960  0.5084
52072SOL    HW163074   3.171   0.269   2.537 -0.1544  0.1309  0.2545
52072SOL    HW263075   3.224   0.381   2.450  1.1032  0.6726  1.6729
52073SOL     OW63076  12.493   5.086   0.259  0.1900  0.2984  0.4067
52073SOL    HW163077  12.444   5.091   0.341  1.7495 -0.0270  1.4105
52073SOL    HW263078  12.440   5.030   0.203 -0.4116 -0.3572  1.5796
52074SOL     OW63079   9.539   2.840   8.816 -0.0290 -1.0857 -0.5452
52074SOL    HW163080   9.532   2.904   8.887  0.4130 -0.6925 -0.8608
52074SOL    HW263081   9.631   2.814   8.815 -0.0175 -1.0322 -1.0306
52075SOL     OW63082   8.730   7.243   5.108  0.6871 -0.4279 -0.1781
52075SOL    HW163083   8.695   7.235   5.020  2.4128 -0.4775 -0.9072
52075SOL    HW263084   8.668   7.300   5.154 -0.1400 -0.2485 -1.4767
52076SOL     OW63085   1.477  11.298   5.239 -0.5321 -0.0945  0.0521
52076SOL    HW163086   1.422  11.307   5.317 -1.5954  2.4343 -0.8848
52076SOL    HW263087   1.566  11.314   5.270 -0.8378  0.0028  0.8959
52077SOL     OW63088   8.877  10.794   9.491  0.1094 -0.1382  0.2698
52077SOL    HW163089   8.887  10.837   9.405 -0.6624  0.5366  0.5065
52077SOL    HW263090   8.784  10.775   9.497  0.3201 -1.0896  0.5422
52078SOL     OW63091   8.012  11.573   1.092  0.4802 -0.2098  0.0312
52078SOL    HW163092   8.066  11.638   1.136  0.5846  0.3578 -0.9069
52078SOL    HW263093   7.990  11.509   1.160  2.4635 -0.5579  0.4105
52079SOL     OW63094   2.249  10.272   2.906  0.3588 -0.2297 -0.2557
52079SOL    HW163095   2.257  10.297   2.998  0.4191 -1.0573 -0.0271
52079SOL    HW263096   2.164  10.228   2.900 -1.1664  2.6089 -1.2708
52080SOL     OW63097   0.996  10.842  10.975  0.1949 -0.4457  0.5317
52080SOL    HW163098   0.908  10.869  11.002  0.6718 -0.1517  1.8849
52080SOL    HW263099   0.996  10.853  10.880 -1.4944 -1.2701  0.3963
52081SOL     OW63100  11.467  12.094   3.156  0.2075  0.2363 -0.2422
52081SOL    HW163101  11.385  12.046   3.155  0.4404 -0.1853 -1.4842
52081SOL    HW263102  11.463  12.149   3.234 -0.8087 -0.5265  0.2547
52082SOL     OW63103   5.997   1.362   1.189  0.2865  0.2303 -0.0075
52082SOL    HW163104   5.925   1.405   1.236  0.0812  0.4762 -0.5426
52082SOL    HW263105   5.966   1.354   1.099  0.3762 -0.9330  0.0512
52083SOL     OW63106   1.270   1.656   1.581 -0.0913  1.0200  0.4241
52083SOL    HW163107   1.255   1.566   1.553  0.6583  0.4469  1.7436
52083SOL    HW263108   1.303   1.700   1.503 -0.4539  0.1512 -0.2391
52084SOL     OW63109   3.283   9.394   4.585  0.1667 -0.7466 -0.6091
52084SOL    HW163110   3.373   9.410   4.557  0.0518  0.5516 -0.2920
52084SOL    HW263111   3.231   9.460   4.539 -0.3445 -0.1803  0.7226
52085SOL     OW63112   7.060   6.411  10.436 -0.7070 -0.1461 -0.0077
52085SOL    HW163113   7.115   6.371  10.503  0.3791  1.1335 -0.0835
52085SOL    HW263114   7.063   6.505  10.455 -0.1711  0.2937 -1.9464
52086SOL     OW63115   8.406   8.672   5.086  0.5553  0.7631 -0.8291
52086SOL    HW163116   8.436   8.743   5.142  0.3711  0.0096  0.2488
52086SOL    HW263117   8.313   8.690   5.072  0.6286  1.0163 -0.9948
52087SOL     OW63118   7.186   2.913   2.583 -0.3136 -0.7543 -0.4493
52087SOL    HW163119   7.126   2.839   2.575 -1.5997 -0.5662  4.3667
52087SOL    HW263120   7.273   2.873   2.584 -0.9254 -2.1422  0.9112
52088SOL     OW63121   2.317   0.785  10.676 -0.0884 -0.0096  0.1329
52088SOL    HW163122   2.293   0.721  10.743  0.3551 -0.9722 -0.6169
52088SOL    HW263123   2.281   0.750  10.595 -0.6496  1.1673 -0.1613
52089SOL     OW63124   2.659   7.800  11.479  0.0846  1.1006  0.1376
52089SOL    HW163125   2.568   7.813  11.451  0.5167  1.6984 -1.0378
52089SOL    HW263126   2.712   7.830  11.405  1.2918  3.1228  1.7046
52090SOL     OW63127   1.048  11.064   9.735  0.0886 -0.2568  0.1522
52090SOL    HW163128   1.079  11.011   9.662  0.7030  0.4112 -0.0803
52090SOL    HW263129   0.982  11.122   9.697  0.9115  0.5834 -0.0440
52091SOL     OW63130   8.226   7.461   8.725 -0.3924  0.4390 -0.1457
52091SOL    HW163131   8.169   7.531   8.758  0.2421  0.3862  1.1046
52091SOL    HW263132   8.211   7.388   8.785  0.3261  0.1242 -0.3446
52092SOL     OW63133   3.594  12.158   8.660 -0.3917  0.2141  0.5513
52092SOL    HW163134   3.552  12.235   8.699 -0.1462 -0.2728  1.8089
52092SOL    HW263135   3.542  12.084   8.690 -1.8385 -0.0283 -2.2599
52093SOL     OW63136  10.831   1.850   9.241  0.2558  0.2110  0.0036
52093SOL    HW163137  10.793   1.788   9.303  0.5306 -0.7422 -0.7479
52093SOL    HW263138  10.807   1.815   9.155  1.6825  0.3159 -0.4663
52094SOL     OW63139   5.396   4.261   5.781  0.2301  0.5825 -0.5712
52094SOL    HW163140   5.435   4.320   5.845 -1.7528 -0.2037  1.4722
52094SOL    HW263141   5.458   4.187   5.777  1.5097  1.6528 -1.3515
52095SOL     OW63142  10.232   6.955   4.592  0.0131  0.7678 -1.4351
52095SOL    HW163143  10.284   6.970   4.671 -0.9975  0.0486 -0.6061
52095SOL    HW263144  10.147   6.996   4.611 -1.2227 -1.8156 -0.9655
52096SOL     OW63145   1.654   8.871   3.784 -0.1225  0.0914  0.8831
52096SOL    HW163146   1.644   8.815   3.708  1.9659  1.6043 -0.6252
52096SOL    HW263147   1.607   8.951   3.762  0.3743  0.4877  1.2274
52097SOL     OW63148   1.350   3.492  12.547  0.2862  0.0262  0.4676
52097SOL    HW163149   1.389   3.409  12.520 -0.0751  0.1720 -0.5457
52097SOL    HW263150   1.268   3.467  12.589 -0.8328 -0.0750 -1.6468
52098SOL     OW63151   8.685   9.668   6.136  0.1996  0.1211 -0.5552
52098SOL    HW163152   8.770   9.707   6.114  0.1107  0.0518 -1.0288
52098SOL    HW263153   8.705   9.577   6.156  0.4129  0.4082  0.5867
52099SOL     OW63154   9.826   1.868   0.751  0.0552 -0.3464  0.1090
52099SOL    HW163155   9.751   1.825   0.712  0.0578 -0.7436  0.5324
52099SOL    HW263156   9.797   1.893   0.839  0.5062 -0.7681  0.3849
52100SOL     OW63157   5.342   7.534   5.177 -0.2811  0.0778 -0.1999
52100SOL    HW163158   5.308   7.487   5.253  2.6548 -1.7866  0.1092
52100SOL    HW263159   5.420   7.579   5.209  1.0552 -0.7827 -2.0480
52101SOL     OW63160   6.015   0.042  10.718  0.1067  0.7383  0.6718
52101SOL    HW163161   6.082   0.078  10.777 -0.6499 -0.9708  2.7466
52101SOL    HW263162   5.933   0.084  10.746 -0.0196  1.3082 -0.4837
52102SOL     OW63163   3.154   3.776   4.318 -0.4145 -0.3804  0.0030
52102SOL    HW163164   3.100   3.697   4.320 -0.2561 -0.4826  0.6223
52102SOL    HW263165   3.241   3.746   4.345 -0.3838  0.0248  0.3711
52103SOL     OW63166   1.789   6.643   3.683 -0.2027  0.1428  0.5551
52103SOL    HW163167   1.762   6.556   3.653  1.8798 -1.3552  2.6830
52103SOL    HW263168   1.716   6.673   3.737 -0.6042 -0.6978  0.5048
52104SOL     OW63169   5.096   2.946  11.383 -0.1838 -0.3073 -0.3308
52104SOL    HW163170   5.173   2.894  11.361  0.9445  1.4435 -0.7810
52104SOL    HW263171   5.033   2.883  11.417  1.0690 -1.9426 -0.9067
52105SOL     OW63172   7.119   2.955   9.018  0.1226 -0.6696 -0.1002
52105SOL    HW163173   7.079   2.868   9.017 -0.0660 -0.5890  0.3020
52105SOL    HW263174   7.112   2.983   9.109  0.2130 -0.2478 -0.2229
52106SOL     OW63175   4.800  11.010   8.179 -0.4183 -0.1283 -0.4693
52106SOL    HW163176   4.834  11.094   8.211  1.1180 -0.1524 -1.8722
52106SOL    HW263177   4.878  10.955   8.169 -1.5064 -2.1839  1.5260
52107SOL     OW63178  11.274   2.103   4.255 -0.5698  0.1951 -0.2725
52107SOL    HW163179  11.303   2.181   4.208  0.0884  0.1220 -0.0005
52107SOL    HW263180  11.345   2.085   4.317 -1.3946  0.2722  0.7285
52108SOL     OW63181   6.537   5.083   7.834  0.4092  0.4877  0.2293
52108SOL    HW163182   6.450   5.098   7.797  0.7345  0.6637 -0.4941
52108SOL    HW263183   6.521   5.060   7.925 -0.4346 -0.0615 -0.0419
52109SOL     OW63184   0.878  10.308  10.225  0.1987  0.1703 -0.4535
52109SOL    HW163185   0.815  10.242  10.195 -0.3132  0.7041 -0.5669
52109SOL    HW263186   0.853  10.388  10.179  0.0402  0.7524  0.5951
52110SOL     OW63187   2.490   8.567   5.817  0.3869 -0.4665 -0.2830
52110SOL    HW163188   2.435   8.507   5.767 -0.0008  0.3598 -0.8596
52110SOL    HW263189   2.446   8.575   5.901 -0.4778  0.3247 -0.8022
52111SOL     OW63190  11.363   6.682   6.720  0.1885  0.0763 -0.9476
52111SOL    HW163191  11.416   6.739   6.775  0.6104 -0.8772 -0.3342
52111SOL    HW263192  11.329   6.615   6.780 -1.2790  0.3597 -1.4231
52112SOL     OW63193  10.771   4.407  10.249 -0.2578  0.5060  0.1601
52112SOL    HW163194  10.758   4.498  10.225 -1.4227  0.3214  0.0181
52112SOL    HW263195  10.686   4.379  10.282 -0.6043 -1.1729 -1.9254
52113SOL     OW63196   3.709   0.711   0.941  0.9328  0.2027  0.1069
52113SOL    HW163197   3.803   0.708   0.956  0.6624 -0.1275  1.9275
52113SOL    HW263198   3.675   0.769   1.009 -0.1651  0.5011 -0.6571
52114SOL     OW63199   2.782   4.488   4.299  0.1879 -0.0674 -0.1938
52114SOL    HW163200   2.734   4.406   4.285 -1.7400  0.5303  2.3276
52114SOL    HW263201   2.765   4.539   4.220 -1.5263 -0.7417 -0.2997
52115SOL     OW63202   8.076   8.368   3.366 -0.0503 -0.3780  0.1991
52115SOL    HW163203   8.107   8.280   3.388  1.6804  0.1591  0.1000
52115SOL    HW263204   8.111   8.384   3.278 -0.1185  0.4896  0.3218
52116SOL     OW63205   1.928   2.282   1.142 -0.3471 -0.0953  0.6691
52116SOL    HW163206   1.985   2.271   1.066 -0.1793  2.5152  0.3230
52116SOL    HW263207   1.848   2.235   1.118  0.3873 -0.9027 -0.3122
52117SOL     OW63208   2.011  10.973   8.497 -0.1755  0.1056  0.3987
52117SOL    HW163209   2.009  11.018   8.413 -0.6795 -1.1817 -0.3064
52117SOL    HW263210   1.967  11.033   8.558  0.1142  1.0078 -0.2684
52118SOL     OW63211  10.974  11.302   1.510  0.2207 -0.1182  0.3258
52118SOL    HW163212  10.941  11.366   1.573  0.9607 -0.0186  0.6201
52118SOL    HW263213  10.896  11.254   1.482  0.0266 -1.1148  2.3840
52119SOL     OW63214   0.328   8.115   3.430 -0.4956 -0.0144  0.5526
52119SOL    HW163215   0.377   8.080   3.356 -1.5811 -0.1284 -0.1345
52119SOL    HW263216   0.312   8.207   3.407 -0.0997  0.1877  1.0504
52120SOL     OW63217  10.649  12.119  11.919  0.5165  0.4050  0.2199
52120SOL    HW163218  10.686  12.034  11.899  3.4368  2.1596 -3.0755
52120SOL    HW263219  10.567  12.100  11.965  1.3171 -4.0537  0.2228
52121SOL     OW63220   6.375   9.185   1.954 -0.4016 -0.1623  0.5159
52121SOL    HW163221   6.368   9.240   2.032  0.3773 -0.2650  0.6648
52121SOL    HW263222   6.464   9.199   1.922 -0.9978  0.5545 -0.8796
52122SOL     OW63223   7.020   4.374  11.540 -0.0199  0.2376  0.3167
52122SOL    HW163224   6.973   4.364  11.457  0.5446 -0.5803  0.0763
52122SOL    HW263225   7.027   4.284  11.573 -0.8561  0.6206  1.6124
52123SOL     OW63226   4.709   4.433   0.302 -0.4611  0.1572 -0.0177
52123SOL    HW163227   4.669   4.488   0.370  0.0021  0.5241 -0.0379
52123SOL    HW263228   4.731   4.351   0.346  1.5524  1.0568  0.7757
52124SOL     OW63229   1.887   4.672   9.495  0.1459 -0.1841 -0.0040
52124SOL    HW163230   1.814   4.698   9.551 -1.1347  0.2824 -1.8293
52124SOL    HW263231   1.861   4.586   9.461  0.3583  0.0561 -0.7908
52125SOL     OW63232   4.490   0.859   4.873 -0.2380 -0.0645  0.2109
52125SOL    HW163233   4.573   0.853   4.920 -0.2293 -0.1394  0.1869
52125SOL    HW263234   4.512   0.836   4.783  0.0623  1.6970 -0.2006
52126SOL     OW63235   6.891  10.009  12.339  0.1920  0.1275 -0.3071
52126SOL    HW163236   6.887   9.916  12.364  0.4210 -0.0547 -0.9355
52126SOL    HW263237   6.866  10.056  12.419 -1.5874 -0.5259 -0.4441
52127SOL     OW63238  11.662   4.222   4.274 -0.2585 -0.2122 -0.8727
52127SOL    HW163239  11.594   4.200   4.338  1.0525 -0.1839  0.6024
52127SOL    HW263240  11.640   4.170   4.197 -1.1066 -1.3526  0.0928
52128SOL     OW63241   1.278   7.481   5.531  0.8180 -0.1698 -0.3557
52128SOL    HW163242   1.254   7.515   5.445 -0.3486 -0.9442 -0.3655
52128SOL    HW263243   1.212   7.516   5.590  0.2288 -1.4829 -0.1873
52129SOL     OW63244   7.819  10.394   7.339 -0.0203  0.1716  0.4117
52129SOL    HW163245   7.846  10.364   7.252 -0.3676  1.4205 -0.1448
52129SOL    HW263246   7.812  10.314   7.391  3.3830 -0.3578  0.2381
52130SOL     OW63247   9.565   4.233  12.340 -0.3061  0.1974 -0.1675
52130SOL    HW163248   9.521   4.149  12.323 -0.8384  0.3337  0.5054
52130SOL    HW263249   9.506   4.298  12.303 -0.1196  0.3025 -0.2763
52131SOL     OW63250   4.184   5.284   4.509  0.5386  0.3723 -0.1177
52131SOL    HW163251   4.178   5.189   4.496  1.2290  0.0280  1.7575
52131SOL    HW263252   4.134   5.301   4.589 -0.4933  1.7855 -1.0137
52132SOL     OW63253   8.172  11.464   9.584  0.3327 -0.0954 -0.4327
52132SOL    HW163254   8.121  11.463   9.503  0.9631 -0.3714 -0.8320
52132SOL    HW263255   8.256  11.503   9.559  0.2720  0.4779  0.2469
52133SOL     OW63256   8.180   0.202   4.445 -0.1434 -0.3158 -0.8144
52133SOL    HW163257   8.166   0.190   4.539  2.4269  0.7134 -0.2151
52133SOL    HW263258   8.136   0.128   4.404  1.2595 -2.5630  1.4442
52134SOL     OW63259   1.717   1.119   1.690  0.1943 -0.5412 -0.8209
52134SOL    HW163260   1.770   1.179   1.638  1.4011 -0.5543  0.3329
52134SOL    HW263261   1.630   1.122   1.650  0.6958  0.6090 -1.8686
52135SOL     OW63262  11.167   2.472   1.240 -0.9802  0.2480  0.1117
52135SOL    HW163263  11.261   2.467   1.256 -0.8722  2.1852  0.2991
52135SOL    HW263264  11.157   2.450   1.147  0.0124  2.5253 -0.6132
52136SOL     OW63265   6.229   0.383   5.132  0.2798  0.4672 -0.6346
52136SOL    HW163266   6.210   0.380   5.225  0.4661  0.6761 -0.5899
52136SOL    HW263267   6.186   0.305   5.096 -0.8830  1.0628 -0.5891
52137SOL     OW63268   1.370  10.652   9.930 -0.5279 -0.2794  0.0395
52137SOL    HW163269   1.423  10.712   9.877  1.6265 -0.3734  1.9476
52137SOL    HW263270   1.285  10.649   9.885  0.5363  1.1712 -2.2361
52138SOL     OW63271   7.368   5.303   6.610  0.0605  0.3231 -0.2666
52138SOL    HW163272   7.332   5.356   6.681 -2.8914  0.1371 -1.4789
52138SOL    HW263273   7.409   5.366   6.551 -1.6555  1.1373 -0.6789
52139SOL     OW63274   5.875   8.485   3.418  0.1520  0.1386 -0.1791
52139SOL    HW163275   5.954   8.435   3.440  0.9419  0.3249 -2.3161
52139SOL    HW263276   5.812   8.419   3.391 -0.5957 -0.0363  1.8334
52140SOL     OW63277  12.012   1.008  12.115 -0.3768 -0.6788  0.6523
52140SOL    HW163278  12.002   1.064  12.192  0.8628  0.0143  0.3360
52140SOL    HW263279  12.036   1.068  12.045 -0.6390 -1.4174 -0.0882
52141SOL     OW63280   9.503   4.062   2.645  0.3245  0.2766  0.4593
52141SOL    HW163281   9.570   4.063   2.713  0.8167 -1.9064  0.0997
52141SOL    HW263282   9.528   3.989   2.588 -2.7103 -1.1201  0.7103
52142SOL     OW63283  12.414   4.394   4.972  0.1656 -0.1852  0.6490
52142SOL    HW163284  12.338   4.396   4.914 -1.5103 -2.0462  2.6111
52142SOL    HW263285  12.481   4.345   4.924 -0.8965 -0.9966 -0.0270
52143SOL     OW63286  11.580   7.081   2.232 -1.1326 -0.0055 -0.3382
52143SOL    HW163287  11.548   6.991   2.229  0.4379 -0.6866  1.6715
52143SOL    HW263288  11.632   7.091   2.152 -1.4829 -0.8005 -0.6714
52144SOL     OW63289   3.709   9.681   8.057 -0.1412  0.0429 -0.3590
52144SOL    HW163290   3.715   9.586   8.045  1.6765  0.0116  0.3981
52144SOL    HW263291   3.755   9.717   7.981  2.4029  0.1384  1.0940
52145SOL     OW63292   2.220   1.630   0.747 -0.0943 -0.0422  0.2219
52145SOL    HW163293   2.177   1.604   0.829  0.4407 -2.6768 -0.2575
52145SOL    HW263294   2.192   1.565   0.683 -1.6681  2.7508 -2.1904
52146SOL     OW63295   9.446   7.151   4.502 -0.3202 -0.4995  0.4798
52146SOL    HW163296   9.485   7.112   4.424 -1.2067 -1.3718  0.4533
52146SOL    HW263297   9.363   7.189   4.471 -0.0266  0.3748  0.7369
52147SOL     OW63298   8.813   7.645   4.348 -0.0005  0.0190 -0.0309
52147SOL    HW163299   8.865   7.720   4.318  1.9741 -1.2572  0.0116
52147SOL    HW263300   8.852   7.621   4.432 -0.4857 -1.1697 -0.1262
52148SOL     OW63301   9.451   1.919   6.681  0.2684 -0.0101 -0.0997
52148SOL    HW163302   9.537   1.915   6.640 -0.6763  0.4384 -2.2507
52148SOL    HW263303   9.417   1.830   6.675 -0.0194  0.1328 -0.6655
52149SOL     OW63304  10.578   2.711   3.081  0.2184 -0.3414  0.0216
52149SOL    HW163305  10.489   2.721   3.116  1.0034  2.2942  1.5310
52149SOL    HW263306  10.625   2.661   3.149  0.5775  0.7997  0.6436
52150SOL     OW63307   4.132   9.680   5.221 -0.0499  0.2918 -0.6555
52150SOL    HW163308   4.176   9.683   5.307  0.8665  1.0086 -1.1322
52150SOL    HW263309   4.162   9.598   5.182  0.7085  0.6771 -0.8917
52151SOL     OW63310   8.576   4.520   2.104 -0.5463  0.0029  0.8976
52151SOL    HW163311   8.625   4.600   2.125  0.3929  0.0915 -1.2968
52151SOL    HW263312   8.563   4.477   2.188 -0.2497  1.9923  2.0296
52152SOL     OW63313   5.672  10.947   1.501 -0.2640  0.1004 -0.0605
52152SOL    HW163314   5.747  11.003   1.520  0.5477 -0.3318 -1.8114
52152SOL    HW263315   5.596  11.005   1.514  0.5175  1.4507 -1.2076
52153SOL     OW63316   0.259   5.831   5.102  0.2410 -0.5328  0.1672
52153SOL    HW163317   0.296   5.920   5.104 -1.0378  0.0105  0.5394
52153SOL    HW263318   0.164   5.844   5.101  0.0011 -1.9026  1.5133
52154SOL     OW63319   2.947   6.474   2.039 -0.0565 -0.4047  0.9436
52154SOL    HW163320   2.874   6.465   1.979  0.2865 -0.3134  0.5088
52154SOL    HW263321   2.906   6.497   2.123 -0.6724 -2.2981  1.2017
52155SOL     OW63322   4.077   3.591   3.532 -0.6226 -0.0885 -0.7397
52155SOL    HW163323   4.039   3.552   3.453  1.3170 -1.2372 -1.1588
52155SOL    HW263324   4.128   3.665   3.500 -0.9890  0.3161 -0.3941
52156SOL     OW63325   9.972  12.373   1.821  0.4087 -0.3059 -0.6161
52156SOL    HW163326  10.011  12.461   1.827  1.4402 -0.4394 -3.5577
52156SOL    HW263327   9.922  12.375   1.740 -0.4472 -2.1329 -0.1771
52157SOL     OW63328  11.110   6.813   5.429 -0.2244 -0.3559 -0.1061
52157SOL    HW163329  11.022   6.783   5.405  0.5391 -1.9174 -1.0837
52157SOL    HW263330  11.169   6.758   5.378  1.3218  1.5295 -0.4760
52158SOL     OW63331   0.703   4.529  12.025  0.2118 -0.0297 -0.1272
52158SOL    HW163332   0.683   4.534  12.119  0.1902 -0.1343 -0.1267
52158SOL    HW263333   0.749   4.446  12.015 -0.7308 -0.5400 -0.3831
52159SOL     OW63334  10.245   8.464   9.007  0.4231  0.6005  0.5706
52159SOL    HW163335  10.287   8.455   8.922  0.3744  0.5059  0.5570
52159SOL    HW263336  10.317   8.455   9.071  0.3775  0.1293  0.5585
52160SOL     OW63337  11.655   4.397   6.642 -0.0222  0.0551 -0.3617
52160SOL    HW163338  11.714   4.470   6.630  0.5773 -0.0925  1.4030
52160SOL    HW263339  11.592   4.404   6.570  1.1179  1.1952 -1.2802
52161SOL     OW63340   0.014   2.288   9.648  0.1684  0.3104  0.2537
52161SOL    HW163341  -0.008   2.241   9.728 -2.1005 -0.8800 -0.9679
52161SOL    HW263342  -0.059   2.348   9.634  0.7869  0.8848 -0.6519
52162SOL     OW63343   8.655   7.941   3.644  0.1065  0.0691 -0.2237
52162SOL    HW163344   8.586   8.001   3.615  3.7559  3.8319 -2.1931
52162SOL    HW263345   8.651   7.868   3.583 -1.1923  0.9781 -1.2842
52163SOL     OW63346   3.545   6.909   6.579  0.1213  0.3084  0.0764
52163SOL    HW163347   3.544   6.865   6.664 -0.8308  1.3463  0.6254
52163SOL    HW263348   3.636   6.903   6.550  0.1439 -1.5081  0.3725
52164SOL     OW63349   2.436   0.400   0.219  0.2186  0.0548 -0.0229
52164SOL    HW163350   2.494   0.411   0.143  0.1681 -2.3380 -0.4908
52164SOL    HW263351   2.351   0.381   0.181  0.5327 -2.8483  0.5282
52165SOL     OW63352  11.595   0.498   2.102  0.0639  0.3939  0.1456
52165SOL    HW163353  11.587   0.412   2.059 -1.1995  0.4172  0.2866
52165SOL    HW263354  11.530   0.495   2.172  0.8211  1.0520  0.8828
52166SOL     OW63355   7.525   1.137   8.540  0.5948  0.1157 -0.5287
52166SOL    HW163356   7.543   1.197   8.467  2.0804  0.2324 -0.0836
52166SOL    HW263357   7.582   1.166   8.611 -1.3491  0.4572  0.9694
52167SOL     OW63358   5.209  10.654   8.976  0.7929  0.1312 -0.3711
52167SOL    HW163359   5.170  10.567   8.984  1.5861 -0.1006  1.5042
52167SOL    HW263360   5.158  10.697   8.908 -1.0769 -1.0298  0.2251
52168SOL     OW63361  12.249   9.693   7.135 -0.3947 -0.0659 -0.0104
52168SOL    HW163362  12.315   9.647   7.084  1.5641  1.0810  1.3794
52168SOL    HW263363  12.294   9.720   7.215 -2.3104  1.5404  0.6157
52169SOL     OW63364   1.983   8.227   4.844 -0.0782 -0.3221  0.3023
52169SOL    HW163365   1.891   8.222   4.869 -0.2631  0.4122 -0.2114
52169SOL    HW263366   1.996   8.317   4.816  0.3607 -0.8322 -1.2635
52170SOL     OW63367   1.977  10.124   9.868 -0.7648  0.2957  0.3404
52170SOL    HW163368   1.886  10.143   9.888 -0.6999 -0.3531  1.3187
52170SOL    HW263369   2.026  10.156   9.944 -0.4488 -1.6177  0.9946
52171SOL     OW63370  12.012   9.785   8.633 -0.1129 -0.2438  0.5716
52171SOL    HW163371  12.036   9.852   8.569 -1.8687  0.3892  0.5238
52171SOL    HW263372  12.059   9.706   8.605  0.4771  0.4655 -0.4879
52172SOL     OW63373   4.280   3.331   2.141  0.3691  0.1379 -0.3082
52172SOL    HW163374   4.309   3.339   2.232 -0.2316  0.3513 -0.1322
52172SOL    HW263375   4.329   3.256   2.107  0.0830 -0.3873  0.4023
52173SOL     OW63376   8.646   3.374  11.715 -0.2980 -0.1349  0.1048
52173SOL    HW163377   8.656   3.279  11.716  3.9541  0.0817 -1.3972
52173SOL    HW263378   8.613   3.393  11.627 -2.3713 -0.1716  0.8165
52174SOL     OW63379   8.482   8.589  12.169 -0.2527  0.7130 -0.5812
52174SOL    HW163380   8.390   8.577  12.149 -0.3624  0.3122  0.1603
52174SOL    HW263381   8.518   8.500  12.173  0.6722  0.8794 -3.1000
52175SOL     OW63382   8.776   8.173  11.419  0.2106  0.3450  0.1238
52175SOL    HW163383   8.848   8.128  11.374  0.1835 -0.2384  0.6529
52175SOL    HW263384   8.702   8.114  11.412  0.0365  0.5283  0.3981
52176SOL     OW63385  12.215   4.387   7.707  0.4698 -0.0457  0.5580
52176SOL    HW163386  12.279   4.399   7.778 -0.9510  0.4149  1.8169
52176SOL    HW263387  12.252   4.317   7.653  0.9343 -1.4794  2.5969
52177SOL     OW63388   0.311   8.501   4.669 -0.0703 -0.6031 -0.0669
52177SOL    HW163389   0.257   8.579   4.678 -0.5468 -0.6067 -2.3860
52177SOL    HW263390   0.374   8.507   4.742 -1.0541  1.1242  0.6969
52178SOL     OW63391   6.581   1.311  12.358  0.4537  0.5596  0.6584
52178SOL    HW163392   6.571   1.245  12.427 -0.6380  1.0383  0.9759
52178SOL    HW263393   6.675   1.323  12.350  0.6092  1.2865  2.8637
52179SOL     OW63394   7.085   9.718   3.090 -0.7724 -0.3780 -0.0154
52179SOL    HW163395   7.007   9.772   3.101 -0.9232 -0.7687  0.9623
52179SOL    HW263396   7.083   9.657   3.164  0.7740 -0.0062  0.3754
52180SOL     OW63397  12.542  10.810  10.371 -0.5806 -0.1133  0.1164
52180SOL    HW163398  12.529  10.748  10.299  2.5340 -0.3492 -0.3788
52180SOL    HW263399  12.548  10.756  10.449 -1.7134 -0.0394  0.2784
52181SOL     OW63400   7.747   6.281  10.151  0.1172  0.0975  0.5318
52181SOL    HW163401   7.689   6.270  10.076 -0.7285  0.6155  1.0991
52181SOL    HW263402   7.689   6.287  10.227  0.8759  0.9906  1.0726
52182SOL     OW63403   5.473  12.107   3.457 -0.1072 -0.3213  0.1133
52182SOL    HW163404   5.483  12.202   3.455  0.7566 -0.3926  0.3447
52182SOL    HW263405   5.402  12.091   3.519  0.8957  0.1259  1.4264
52183SOL     OW63406   7.360   5.993  10.456  0.3014 -0.1029 -0.6873
52183SOL    HW163407   7.417   5.951  10.391  1.7270  0.7859 -0.0801
52183SOL    HW263408   7.419   6.015  10.528 -0.1442  3.4357 -1.2082
52184SOL     OW63409  12.462   9.266  10.185 -0.1196  0.2464  0.2530
52184SOL    HW163410  12.535   9.311  10.142 -0.5573  0.4857 -0.2501
52184SOL    HW263411  12.397   9.254  10.116  0.3629 -2.0513  0.1137
52185SOL     OW63412   8.587   7.600   2.627  0.6153  0.1076 -0.0783
52185SOL    HW163413   8.584   7.515   2.584  1.9532  1.1246 -2.3394
52185SOL    HW263414   8.680   7.615   2.644  0.2169  0.1472  2.4924
52186SOL     OW63415  11.217   7.913   5.954 -0.1153 -0.1735  0.7216
52186SOL    HW163416  11.244   7.928   5.863 -1.7945 -0.9557  0.0471
52186SOL    HW263417  11.122   7.926   5.952 -0.4343 -2.0625  1.9563
52187SOL     OW63418   0.501   3.102   8.040 -0.2092 -0.0930 -0.6386
52187SOL    HW163419   0.562   3.031   8.018  1.3295  1.3446 -1.1880
52187SOL    HW263420   0.492   3.152   7.959 -1.5886  0.1632 -0.3636
52188SOL     OW63421   2.547   5.225   7.551  0.3357 -0.4226 -0.0531
52188SOL    HW163422   2.553   5.231   7.646  0.5434 -0.9171 -0.0302
52188SOL    HW263423   2.545   5.131   7.533 -0.9073 -0.3423 -0.4655
52189SOL     OW63424   5.938  12.194   1.115  0.8374 -0.0120  0.1235
52189SOL    HW163425   5.937  12.118   1.057 -0.8564  0.2334 -0.2250
52189SOL    HW263426   5.924  12.159   1.202 -0.7803 -0.0603 -0.1339
52190SOL     OW63427   4.732  12.244   0.367 -0.5624 -0.3391  0.4622
52190SOL    HW163428   4.714  12.153   0.344 -0.5110 -0.4244  0.7522
52190SOL    HW263429   4.733  12.291   0.284  1.4145 -0.9542  0.0853
52191SOL     OW63430  11.900   7.674   5.349  0.1694 -0.1016  0.5981
52191SOL    HW163431  11.838   7.656   5.420 -1.9596 -1.6231 -1.5134
52191SOL    HW263432  11.937   7.589   5.327  1.3065  0.4550  0.2467
52192SOL     OW63433  11.001   7.284   7.320 -0.4716  0.0159 -0.0284
52192SOL    HW163434  11.062   7.212   7.303 -0.6894 -0.1223 -0.2229
52192SOL    HW263435  11.058   7.359   7.336 -0.2173 -0.4074  1.1739
52193SOL     OW63436  11.302   6.182  10.317  0.0076  0.1044 -0.1719
52193SOL    HW163437  11.341   6.100  10.348  2.8193  1.4126  0.0230
52193SOL    HW263438  11.225   6.154  10.267 -0.8126 -2.4398  2.2503
52194SOL     OW63439   0.655   5.196   9.578  0.1520 -1.0486  0.1098
52194SOL    HW163440   0.722   5.202   9.509 -0.6436  2.6769 -0.5659
52194SOL    HW263441   0.687   5.254   9.647 -1.8606 -0.0117  0.2215
52195SOL     OW63442  11.231  11.408  10.366  0.2334  0.4851  0.3423
52195SOL    HW163443  11.140  11.433  10.384  0.0396 -0.4158  0.6847
52195SOL    HW263444  11.275  11.413  10.451  0.2197 -0.1837  0.3946
52196SOL     OW63445   7.860   6.150   0.027 -0.1781  0.2661 -0.3497
52196SOL    HW163446   7.927   6.120   0.088  0.2470 -0.6106 -1.2208
52196SOL    HW263447   7.907   6.201  -0.038 -0.7072  1.6624  0.3279
52197SOL     OW63448   7.687  11.010   4.297 -0.0823  0.2290  0.5450
52197SOL    HW163449   7.661  11.101   4.282 -0.1487  0.1866  0.3985
52197SOL    HW263450   7.623  10.958   4.247  0.9750  0.1617 -0.7960
52198SOL     OW63451   7.034   1.318   3.148  0.3187 -0.2407  0.1829
52198SOL    HW163452   6.996   1.304   3.062  1.8681  0.9813 -0.7493
52198SOL    HW263453   7.129   1.323   3.133  0.5481  1.3381  1.7341
52199SOL     OW63454   4.812   6.108   3.629 -0.4660 -0.0633  0.0438
52199SOL    HW163455   4.809   6.162   3.707 -0.7396  1.3790 -0.9297
52199SOL    HW263456   4.837   6.021   3.661  0.5795  0.7562  1.5812
52200SOL     OW63457  10.688   2.579   0.720  0.0508 -0.5874  1.2747
52200SOL    HW163458  10.717   2.573   0.629 -1.1785  2.5272  0.5548
52200SOL    HW263459  10.762   2.618   0.766 -0.9288  2.5995  0.4496
52201SOL     OW63460   7.569   4.012   2.429 -0.3219 -0.6571 -0.5681
52201SOL    HW163461   7.650   3.972   2.396 -1.1370 -1.9150 -1.1289
52201SOL    HW263462   7.499   3.963   2.385 -1.3892  0.4920 -0.1896
52202SOL     OW63463   0.379   6.602   3.746  0.5494 -0.1330 -0.3078
52202SOL    HW163464   0.428   6.537   3.796  0.9750  0.1764 -0.3133
52202SOL    HW263465   0.393   6.684   3.794  0.0907 -0.0252 -0.3465
52203SOL     OW63466  12.560   5.028   6.035 -0.1161  0.7730  0.1842
52203SOL    HW163467  12.579   5.047   6.127  1.9426 -1.9274  0.4200
52203SOL    HW263468  12.468   5.002   6.035  0.2770 -0.7602  1.8026
52204SOL     OW63469  12.364   9.927   7.975 -0.0008  0.0543 -0.3343
52204SOL    HW163470  12.295   9.954   8.036 -0.4812  2.4960 -1.8311
52204SOL    HW263471  12.333   9.844   7.939 -0.0776 -1.0431  2.0663
52205SOL     OW63472   4.424   2.818   8.396  0.7340  0.5707  0.4260
52205SOL    HW163473   4.347   2.838   8.448 -0.6187  0.5128 -1.4591
52205SOL    HW263474   4.425   2.722   8.391 -0.1414  0.6151 -1.0240
52206SOL     OW63475   9.266  12.416   7.777 -0.0090  0.1805 -0.1807
52206SOL    HW163476   9.226  12.501   7.794 -0.6815 -0.2090  0.2695
52206SOL    HW263477   9.263  12.406   7.682 -0.4097  0.4356 -0.1964
52207SOL     OW63478   6.484   7.701   8.338 -0.3825  0.2888  0.0891
52207SOL    HW163479   6.522   7.767   8.396  1.3993  0.5255 -1.2596
52207SOL    HW263480   6.476   7.623   8.393  1.9500  0.2889  0.5453
52208SOL     OW63481   9.122   8.318  11.695 -0.3196  0.1880 -0.3418
52208SOL    HW163482   9.206   8.284  11.664 -0.7957  0.3939 -1.9559
52208SOL    HW263483   9.122   8.410  11.668 -1.6745 -0.1806 -1.8060
52209SOL     OW63484  11.806   6.898   9.444 -0.4225 -0.2739  0.2842
52209SOL    HW163485  11.852   6.901   9.360 -2.2540 -1.1522 -0.8268
52209SOL    HW263486  11.817   6.807   9.473  2.6638  0.6523  2.5688
52210SOL     OW63487   5.406   5.934   6.238  0.9652  0.1950 -0.4270
52210SOL    HW163488   5.340   5.961   6.174  1.6241  0.7804 -0.8684
52210SOL    HW263489   5.370   5.854   6.277 -0.1888  0.7201 -0.3680
52211SOL     OW63490   5.688   0.736   1.138  0.5232 -0.4205  0.5081
52211SOL    HW163491   5.631   0.661   1.119  1.3047 -0.9133  0.0689
52211SOL    HW263492   5.775   0.708   1.109  0.6962  0.9361 -0.3731
52212SOL     OW63493   6.327   9.078  10.081 -0.0572 -0.8605 -0.0850
52212SOL    HW163494   6.326   9.088   9.986  1.9342  0.7461 -0.0140
52212SOL    HW263495   6.403   9.022  10.098 -0.5187 -1.2965  0.5570
52213SOL     OW63496   6.060   7.292  11.475 -0.1462 -0.1842  0.0307
52213SOL    HW163497   6.007   7.215  11.454 -1.4599  0.5279  0.5657
52213SOL    HW263498   6.080   7.283  11.568  0.4087 -0.2875 -0.0955
52214SOL     OW63499   9.031  10.426   1.801  0.7164  0.4476  0.1503
52214SOL    HW163500   9.005  10.515   1.779 -1.7038 -0.0273  0.7313
52214SOL    HW263501   9.053  10.429   1.895  2.3668  0.7329 -0.2144
52215SOL     OW63502  11.880  11.137   4.337 -0.2427  0.1299  0.4418
52215SOL    HW163503  11.797  11.183   4.343 -0.0843  0.5265 -0.2788
52215SOL    HW263504  11.944  11.205   4.316 -0.5227 -0.7105 -4.3601
52216SOL     OW63505  12.160   6.269   1.672 -0.1238  0.6431 -0.1089
52216SOL    HW163506  12.144   6.245   1.580 -2.3055  2.1221 -0.2150
52216SOL    HW263507  12.072   6.284   1.708  0.7563  1.6109  1.7817
52217SOL     OW63508   6.242   0.506   7.437 -0.9748 -0.4860  0.1890
52217SOL    HW163509   6.287   0.469   7.361 -1.3517 -1.8813  0.6262
52217SOL    HW263510   6.154   0.525   7.406 -0.2008  2.1576 -0.6401
52218SOL     OW63511   9.778  10.502   5.259 -0.5975 -0.2541 -0.0922
52218SOL    HW163512   9.820  10.419   5.238 -0.0230  0.6306 -2.7987
52218SOL    HW263513   9.825  10.567   5.206 -1.0377  1.8379  1.8972
52219SOL     OW63514   9.050   3.010  10.945  0.6150  0.2723 -0.1660
52219SOL    HW163515   9.105   2.973  11.013  0.7035  0.8077  0.0644
52219SOL    HW263516   8.990   3.069  10.992  0.7134  0.6879 -0.5495
52220SOL     OW63517   5.046   3.422   8.269  0.5370 -0.2706 -0.0655
52220SOL    HW163518   5.086   3.336   8.278  0.7707 -0.1720 -0.1568
52220SOL    HW263519   5.102   3.480   8.321 -1.2518 -0.6709  2.5376
52221SOL     OW63520  10.092  11.749   9.271 -0.4640  0.0939  0.3123
52221SOL    HW163521  10.119  11.666   9.232 -2.1005 -1.1430  1.6559
52221SOL    HW263522  10.147  11.759   9.348 -0.1694  0.3477  0.0721
52222SOL     OW63523   1.310  10.971   4.389 -0.0851 -0.6446 -0.6443
52222SOL    HW163524   1.300  10.934   4.301 -1.3843 -0.6328 -0.5163
52222SOL    HW263525   1.259  11.052   4.387  1.1639  0.1854 -0.3371
52223SOL     OW63526   8.157   2.710   0.153  0.2751 -0.1335  0.2442
52223SOL    HW163527   8.132   2.620   0.132 -1.8733  0.5068 -0.1985
52223SOL    HW263528   8.239   2.723   0.105 -1.2914 -0.6929 -2.8586
52224SOL     OW63529   8.463   6.542  10.120 -0.1574 -0.2258 -0.4584
52224SOL    HW163530   8.428   6.627  10.095  0.6025  0.1965 -0.1024
52224SOL    HW263531   8.496   6.555  10.209 -0.3725 -0.9924 -0.2553
52225SOL     OW63532   9.278   9.283   2.536  0.4997 -0.1596  0.0488
52225SOL    HW163533   9.323   9.318   2.613  1.4667  0.5317 -0.7837
52225SOL    HW263534   9.209   9.347   2.518 -0.2992 -0.7879  0.8506
52226SOL     OW63535  10.163   7.382   2.542 -0.7764 -0.1289 -0.4819
52226SOL    HW163536  10.188   7.296   2.577 -1.1742 -0.8782 -1.9351
52226SOL    HW263537  10.068   7.377   2.533 -0.8293  0.5669 -0.3338
52227SOL     OW63538   8.499   8.068   0.864  0.0488 -0.0363  0.2027
52227SOL    HW163539   8.563   8.138   0.879  2.5400 -1.3884 -2.7646
52227SOL    HW263540   8.461   8.089   0.778 -0.3645 -1.4309  0.0184
52228SOL     OW63541   3.409  11.498   0.338  0.0414  0.0987  0.4576
52228SOL    HW163542   3.353  11.567   0.374  1.0416  0.3460  1.5940
52228SOL    HW263543   3.495  11.539   0.329  0.2340 -0.4901 -0.5782
52229SOL     OW63544   7.499   1.503   8.801 -0.3396  0.3954 -0.1334
52229SOL    HW163545   7.493   1.564   8.875  1.1069 -0.6787  0.9390
52229SOL    HW263546   7.576   1.532   8.752 -1.6322  1.4631 -1.6265
52230SOL     OW63547   8.287   5.399   1.219  0.2914 -0.0380  0.0694
52230SOL    HW163548   8.216   5.397   1.155  0.1677 -1.2546  0.2090
52230SOL    HW263549   8.363   5.365   1.171  0.3783 -0.2650  0.3612
52231SOL     OW63550   2.144   9.356   7.050 -0.5888  0.5112 -0.0007
52231SOL    HW163551   2.188   9.379   7.132  0.8421 -0.4043 -0.4864
52231SOL    HW263552   2.188   9.409   6.984 -1.4009  0.8650 -0.2766
52232SOL     OW63553   2.900   6.624   3.370  0.7073 -0.5039 -0.0290
52232SOL    HW163554   2.823   6.681   3.376 -0.4675 -1.8051 -1.7044
52232SOL    HW263555   2.912   6.609   3.277  2.0422 -1.6234  0.2800
52233SOL     OW63556   0.327   8.190   9.616  0.0970  0.0817  0.1253
52233SOL    HW163557   0.234   8.169   9.609 -0.2106  0.6524  1.9023
52233SOL    HW263558   0.372   8.107   9.597 -0.8206 -0.4624  0.2774
52234SOL     OW63559   8.245   7.691  12.223  0.1551 -0.1232 -0.0841
52234SOL    HW163560   8.304   7.715  12.151 -0.6933 -0.9318 -1.0928
52234SOL    HW263561   8.284   7.614  12.262 -0.9700 -1.6764 -1.8077
52235SOL     OW63562   9.643   2.458  11.061  0.1761 -0.1507  0.8175
52235SOL    HW163563   9.560   2.423  11.030  2.0557 -3.1141 -1.4110
52235SOL    HW263564   9.681   2.387  11.114  1.7181  0.6856  0.8949
52236SOL     OW63565   1.581   6.217   6.342 -0.0353  0.1776 -0.1774
52236SOL    HW163566   1.671   6.218   6.376 -0.4778 -0.6812  1.1070
52236SOL    HW263567   1.577   6.137   6.290  0.8161  1.7875 -2.9026
52237SOL     OW63568   4.906   8.227   5.504 -0.4261 -0.2577 -0.2452
52237SOL    HW163569   4.856   8.192   5.430 -1.1802  0.8245 -0.2608
52237SOL    HW263570   4.976   8.278   5.463 -0.2464 -0.4698 -0.2074
52238SOL     OW63571   5.690  11.581   4.649 -0.2168 -1.1000 -0.3256
52238SOL    HW163572   5.642  11.587   4.566 -1.2901  1.6510  0.3967
52238SOL    HW263573   5.631  11.621   4.714  2.4750  1.3427  0.8301
52239SOL     OW63574   4.672   2.061  12.042 -0.0401  0.0878  0.1111
52239SOL    HW163575   4.740   2.042  11.978  0.1483  0.6663  0.1302
52239SOL    HW263576   4.719   2.067  12.126 -0.1366  0.3279  0.1482
52240SOL     OW63577   8.862   2.465  10.328 -0.1504  0.4558  0.1151
52240SOL    HW163578   8.870   2.484  10.422  0.7431  0.9175 -0.0506
52240SOL    HW263579   8.945   2.494  10.290 -1.4968  2.7860 -1.2543
52241SOL     OW63580   3.367   1.500   6.036 -0.6481  0.3813 -0.6903
52241SOL    HW163581   3.353   1.454   5.953  0.7262  0.9817 -1.2875
52241SOL    HW263582   3.294   1.472   6.092 -1.2531 -0.5137 -1.8866
52242SOL     OW63583   7.701   5.124   3.520  0.2971  0.3105  0.1113
52242SOL    HW163584   7.642   5.164   3.456 -0.5593 -3.0370 -1.4486
52242SOL    HW263585   7.652   5.125   3.602 -1.5345 -1.2812 -0.8759
52243SOL     OW63586   8.804  10.214   5.442  0.0201 -0.2036  0.1958
52243SOL    HW163587   8.821  10.290   5.387  0.2980 -1.8979 -2.2304
52243SOL    HW263588   8.727  10.172   5.402 -1.2305 -0.3194  2.5150
52244SOL     OW63589   1.920   7.533   2.560 -0.1733 -0.1723  0.2574
52244SOL    HW163590   1.834   7.521   2.601 -0.3146 -1.0648 -0.2614
52244SOL    HW263591   1.917   7.477   2.482  0.9995 -0.4900  0.4177
52245SOL     OW63592   5.486   8.730   1.995  0.1207 -0.3340 -0.4270
52245SOL    HW163593   5.415   8.702   1.937  0.6829  0.5157 -1.5724
52245SOL    HW263594   5.557   8.756   1.936  0.4398  1.3173  0.5989
52246SOL     OW63595  12.120   2.005  10.511 -0.1899 -0.3623  0.0191
52246SOL    HW163596  12.148   1.919  10.479 -0.3538 -0.7385  0.8605
52246SOL    HW263597  12.193   2.036  10.565  0.0796  0.2629 -0.6732
52247SOL     OW63598   8.230   0.277  10.662  0.2938 -0.2315  0.3906
52247SOL    HW163599   8.191   0.200  10.620  2.1358 -1.0456  0.0754
52247SOL    HW263600   8.274   0.242  10.740  2.1693  0.2675 -0.3879
52248SOL     OW63601  10.973   3.516   5.875  0.2357  0.3421 -0.4217
52248SOL    HW163602  11.049   3.542   5.927 -1.6997  0.8031  2.4323
52248SOL    HW263603  10.928   3.599   5.856 -0.6180 -0.0677 -0.2350
52249SOL     OW63604   6.604  12.191   6.134 -0.1443  0.5091 -0.0536
52249SOL    HW163605   6.575  12.106   6.167  0.0838  0.8206  0.9857
52249SOL    HW263606   6.557  12.202   6.051 -2.3962  0.6320  1.1492
52250SOL     OW63607  10.961   0.169   2.945  0.2854  0.1674  0.0099
52250SOL    HW163608  10.922   0.092   2.987  1.4752 -1.0605 -1.0332
52250SOL    HW263609  10.887   0.226   2.925 -0.8338 -1.4594 -0.6888
52251SOL     OW63610  11.002   1.549   9.487  0.2651  0.1405 -0.3413
52251SOL    HW163611  10.925   1.493   9.475  1.8905 -2.3417  0.1981
52251SOL    HW263612  10.976   1.611   9.555 -1.4346 -0.2647 -0.5658
52252SOL     OW63613   2.109   8.088   4.334 -0.0143 -0.1739 -0.3839
52252SOL    HW163614   2.204   8.087   4.343 -0.0237 -0.1414 -0.2748
52252SOL    HW263615   2.092   8.052   4.247  0.1200  0.3634 -0.6319
52253SOL     OW63616   7.258   2.231   8.075  0.3801  0.3470 -0.2521
52253SOL    HW163617   7.343   2.201   8.108 -0.9588 -2.6912  0.7969
52253SOL    HW263618   7.272   2.241   7.981  1.8722 -0.2329 -0.1277
52254SOL     OW63619   4.782   6.938   0.089 -0.3149  0.2811  0.2828
52254SOL    HW163620   4.846   6.896   0.031 -0.3945 -0.9779  1.0869
52254SOL    HW263621   4.794   7.032   0.072  1.1340  0.0392 -0.2362
52255SOL     OW63622  11.110   1.997   0.556  0.7081  0.0776 -0.4639
52255SOL    HW163623  11.070   1.913   0.580 -0.8265 -0.0885 -3.2412
52255SOL    HW263624  11.077   2.058   0.621  0.7950 -1.1855  0.8281
52256SOL     OW63625  12.436   5.168   4.547 -0.4449  0.4828 -0.2028
52256SOL    HW163626  12.459   5.248   4.499  0.5707 -0.8106 -2.0050
52256SOL    HW263627  12.399   5.199   4.629  1.0878  2.8060 -0.2995
52257SOL     OW63628   2.998   7.814   2.029  0.3822  0.2743  0.0441
52257SOL    HW163629   3.047   7.741   1.992 -1.2050 -1.1924  0.6757
52257SOL    HW263630   2.924   7.773   2.074  0.0229  2.2227  1.3675
52258SOL     OW63631   2.576   3.449   8.633 -0.2029 -0.2316 -0.1361
52258SOL    HW163632   2.636   3.378   8.658  0.2914 -0.2083 -1.2343
52258SOL    HW263633   2.575   3.507   8.709 -0.0171 -1.0062  0.4797
52259SOL     OW63634   7.619   1.842   3.091 -0.2264  0.3127 -0.3139
52259SOL    HW163635   7.629   1.913   3.028  0.9289  1.4845  1.1090
52259SOL    HW263636   7.525   1.840   3.110 -0.4840  0.4230 -1.4880
52260SOL     OW63637  12.021   4.446   6.469 -0.3002  0.7326 -0.3098
52260SOL    HW163638  12.007   4.425   6.377  0.0265  1.3950 -0.5154
52260SOL    HW263639  12.105   4.492   6.471  0.2348 -0.2528  0.4678
52261SOL     OW63640   1.564   0.413   3.372  0.0540  0.6643 -0.6099
52261SOL    HW163641   1.567   0.406   3.276  0.1962  1.7471 -0.6980
52261SOL    HW263642   1.618   0.340   3.403 -0.0871  0.2316 -1.3466
52262SOL     OW63643   7.800   8.011   4.189  0.3680 -0.2626  0.0333
52262SOL    HW163644   7.722   8.065   4.193  0.7675  0.3059  0.3581
52262SOL    HW263645   7.768   7.921   4.182 -0.3047 -0.0464  0.3462
52263SOL     OW63646  12.383   1.884  12.256 -0.3575  0.3431  0.0642
52263SOL    HW163647  12.341   1.813  12.208  0.4889 -0.7242  0.8371
52263SOL    HW263648  12.448   1.919  12.195 -0.4792  0.1612 -0.1731
52264SOL     OW63649  11.727  11.263  12.052  0.7774  0.2221 -0.3215
52264SOL    HW163650  11.666  11.331  12.023 -0.1766 -0.0834  0.9177
52264SOL    HW263651  11.717  11.193  11.987  0.9402  0.7886 -0.9703
52265SOL     OW63652   6.716  11.975   9.304  0.5698 -0.2531  0.5092
52265SOL    HW163653   6.700  12.051   9.248 -0.6042 -2.3901 -2.3257
52265SOL    HW263654   6.637  11.969   9.359  0.5559  0.4102  0.5673
52266SOL     OW63655   9.012   2.650   7.407 -0.0869 -1.0603  1.2002
52266SOL    HW163656   9.029   2.577   7.468  0.4663 -1.2256  0.8545
52266SOL    HW263657   9.099   2.679   7.380 -0.2838  0.0186  1.6584
52267SOL     OW63658   2.270   4.531   8.723  0.3079  0.1564  0.3256
52267SOL    HW163659   2.346   4.504   8.774 -0.0297  0.8257  1.2049
52267SOL    HW263660   2.212   4.574   8.786 -1.4357 -1.5098 -0.0173
52268SOL     OW63661   1.844   3.451   7.355  0.0745  0.0695 -0.2335
52268SOL    HW163662   1.938   3.467   7.357  0.0089  0.4314  1.2517
52268SOL    HW263663   1.822   3.427   7.445 -1.3076  0.3442 -0.4755
52269SOL     OW63664   8.610   8.850   8.360  0.1227  0.1611  0.1462
52269SOL    HW163665   8.689   8.813   8.321 -0.4511  0.2854 -1.1845
52269SOL    HW263666   8.626   8.945   8.360 -0.3924  0.2723 -1.0485
52270SOL     OW63667   4.124  12.105   6.895 -0.3417 -0.0121  0.1947
52270SOL    HW163668   4.076  12.115   6.977  1.0127  1.2420  0.8932
52270SOL    HW263669   4.149  12.012   6.893 -0.8918 -0.1881  0.9083
52271SOL     OW63670   3.195  10.659   7.574 -0.4306 -0.0148 -0.6991
52271SOL    HW163671   3.130  10.725   7.552 -0.6212 -0.0012 -0.1136
52271SOL    HW263672   3.273  10.709   7.599 -1.2145  0.0883  1.7980
52272SOL     OW63673  11.609   8.553   4.789  0.5004  0.3265 -0.1209
52272SOL    HW163674  11.584   8.601   4.868  1.8027  0.0525  0.4828
52272SOL    HW263675  11.699   8.526   4.805 -1.0595 -5.5210  1.2282
52273SOL     OW63676   7.943   8.365   0.699  0.3939 -0.6340 -0.0599
52273SOL    HW163677   8.004   8.416   0.645  0.7171 -2.4813 -1.5606
52273SOL    HW263678   7.889   8.318   0.635 -1.8547  0.0333  1.2387
52274SOL     OW63679   1.002   5.991   1.115 -0.4449 -0.4031  0.0801
52274SOL    HW163680   0.931   5.927   1.104 -1.0554  0.2459  0.1846
52274SOL    HW263681   1.074   5.954   1.064 -0.7544 -1.2217  0.2124
52275SOL     OW63682   6.046   2.025   3.950  0.2429 -0.0013  0.5902
52275SOL    HW163683   6.141   2.013   3.953  0.4568  1.1709 -0.4194
52275SOL    HW263684   6.026   2.036   3.857 -0.2237  3.9508  0.9712
52276SOL     OW63685   1.531   5.943  11.586 -0.3103 -0.4585 -0.6482
52276SOL    HW163686   1.579   5.999  11.525  0.2527  0.8561  0.9250
52276SOL    HW263687   1.479   6.004  11.638 -0.8409 -1.5545  0.1448
52277SOL     OW63688   4.799   0.803   4.362 -0.2395 -0.3569 -0.4994
52277SOL    HW163689   4.842   0.721   4.384 -1.3670 -0.5740  1.0615
52277SOL    HW263690   4.862   0.871   4.388 -0.2239 -0.6999  0.4090
52278SOL     OW63691   0.543   8.425   6.655 -0.4629  0.3146  0.4965
52278SOL    HW163692   0.556   8.396   6.745 -1.2597  0.7200  0.7532
52278SOL    HW263693   0.471   8.370   6.623  0.3943 -0.4385 -0.1884
52279SOL     OW63694   0.461   2.917  11.197 -0.5036  0.4665 -0.0269
52279SOL    HW163695   0.376   2.952  11.223 -1.8133 -2.1765 -0.4112
52279SOL    HW263696   0.476   2.952  11.109 -1.7954  0.0437 -0.4348
52280SOL     OW63697   6.755   7.299   2.591 -0.8733  0.0885 -0.1309
52280SOL    HW163698   6.844   7.268   2.607  0.3876  2.9843 -0.9197
52280SOL    HW263699   6.711   7.291   2.676  0.4419 -0.4371  0.5243
52281SOL     OW63700  11.228   5.075  11.105  0.3521  0.3136  0.7478
52281SOL    HW163701  11.260   5.164  11.094 -0.4894  0.5154 -0.2140
52281SOL    HW263702  11.308   5.023  11.118  1.1075  0.8627 -1.2163
52282SOL     OW63703   5.327   9.513   6.288 -0.3050 -0.3214  0.2951
52282SOL    HW163704   5.262   9.486   6.223 -0.7137  0.9853  0.1234
52282SOL    HW263705   5.282   9.582   6.338  0.4557 -0.4161  1.1158
52283SOL     OW63706   9.037   8.097   3.115 -0.1901  0.4673 -0.6330
52283SOL    HW163707   9.098   8.101   3.188  0.1510 -1.4134 -0.7679
52283SOL    HW263708   9.093   8.088   3.038 -0.5998  0.2653 -0.9099
52284SOL     OW63709   2.410   8.620   5.375 -0.2737 -0.3254  0.4316
52284SOL    HW163710   2.395   8.594   5.284  0.2911 -1.3946  0.6313
52284SOL    HW263711   2.503   8.603   5.391  0.1126  1.7645  0.6205
52285SOL     OW63712   3.875   8.319  11.179  0.0836 -0.6034  0.4008
52285SOL    HW163713   3.938   8.270  11.232  0.2913 -1.9556 -1.0456
52285SOL    HW263714   3.796   8.265  11.178 -0.2375 -0.1403  0.0966
52286SOL     OW63715   1.173   7.307   1.685 -0.1202 -0.3082 -0.3802
52286SOL    HW163716   1.135   7.233   1.732 -0.3931  0.3268  0.4219
52286SOL    HW263717   1.198   7.369   1.754  0.2636  0.2745 -1.0288
52287SOL     OW63718   0.065   3.635   9.884  0.3494  0.5148 -0.0525
52287SOL    HW163719   0.127   3.611   9.952 -0.5184  0.5470  0.7636
52287SOL    HW263720   0.117   3.635   9.803  1.2786  0.0177  0.5316
52288SOL     OW63721   6.814   8.631   5.642  0.8376  0.5478 -0.7307
52288SOL    HW163722   6.734   8.664   5.684  0.9870  0.5208 -0.4257
52288SOL    HW263723   6.874   8.614   5.714  0.4904 -1.1751 -0.7999
52289SOL     OW63724  10.542   7.128   2.386 -0.6145  0.0201  0.5790
52289SOL    HW163725  10.622   7.112   2.435 -0.5029  0.4678  0.5491
52289SOL    HW263726  10.561   7.100   2.297 -0.0717  1.2628  0.2837
52290SOL     OW63727   9.328  10.853   5.171 -0.9511  0.5296 -0.7594
52290SOL    HW163728   9.385  10.817   5.104 -1.9450  0.3380 -1.5171
52290SOL    HW263729   9.364  10.940   5.189  0.3699 -0.0961 -0.2353
52291SOL     OW63730   8.223   3.123   4.345  0.0889 -0.1430  0.3092
52291SOL    HW163731   8.220   3.198   4.285  0.7140 -0.8068 -0.5909
52291SOL    HW263732   8.266   3.054   4.294 -0.3309 -1.0644  1.1773
52292SOL     OW63733   8.639   7.337   2.537 -0.0036 -0.2273  0.0153
52292SOL    HW163734   8.651   7.325   2.631  1.8087  0.7202 -0.0463
52292SOL    HW263735   8.712   7.289   2.497 -1.2961 -1.4510 -0.9967
52293SOL     OW63736   0.934   0.414   0.017  0.0032  0.5696 -0.0868
52293SOL    HW163737   1.004   0.453   0.068  1.1889 -0.8122 -0.5816
52293SOL    HW263738   0.956   0.433  -0.074 -0.4450  0.4247 -0.2319
52294SOL     OW63739   7.728   4.653   7.700 -0.0306 -0.0187 -0.1463
52294SOL    HW163740   7.755   4.661   7.791  0.0078 -1.7075  0.0068
52294SOL    HW263741   7.761   4.733   7.659  0.5500  0.4428  1.1635
52295SOL     OW63742  10.860   4.969   8.689 -0.0027 -0.1295  0.2899
52295SOL    HW163743  10.798   4.896   8.688  1.3103 -1.3347 -1.8006
52295SOL    HW263744  10.827   5.029   8.622 -0.9293  1.1327  1.8144
52296SOL     OW63745   3.224  12.459   2.357 -0.0087  0.3866  0.7126
52296SOL    HW163746   3.310  12.454   2.401  0.4168  1.5743  0.0431
52296SOL    HW263747   3.174  12.386   2.395  1.3362 -0.4189  1.0112
52297SOL     OW63748   3.668   2.855   5.975 -0.2902  0.0192 -0.6116
52297SOL    HW163749   3.724   2.793   5.929  0.4297  1.2815 -1.4866
52297SOL    HW263750   3.701   2.856   6.065  0.3034 -0.1537 -0.8248
52298SOL     OW63751  10.268   6.223   0.800  0.0887  0.4152  0.0899
52298SOL    HW163752  10.242   6.210   0.709  2.7529 -0.5750 -0.6067
52298SOL    HW263753  10.271   6.135   0.837 -0.5245  0.7758  1.0566
52299SOL     OW63754   8.090   9.109   1.423  0.0886  0.2418 -0.0969
52299SOL    HW163755   8.066   9.071   1.339  0.4141  0.3561 -0.2434
52299SOL    HW263756   8.007   9.123   1.468 -0.0688 -0.0973 -0.2783
52300SOL     OW63757   1.999   6.441   9.949 -0.1001 -0.0375 -0.1925
52300SOL    HW163758   2.005   6.436   9.854  3.5671 -0.7444 -0.0811
52300SOL    HW263759   1.994   6.535   9.967  0.0106  0.1519 -1.0878
52301SOL     OW63760   7.358  11.648   1.839 -0.4481 -0.6297 -0.2885
52301SOL    HW163761   7.291  11.714   1.859 -1.1057 -0.7397 -1.9569
52301SOL    HW263762   7.398  11.680   1.758  0.2725 -1.5089 -0.2840
52302SOL     OW63763   3.501   1.601   1.267  0.1808 -0.1055  0.0231
52302SOL    HW163764   3.584   1.645   1.247 -1.2366  2.2516 -1.2224
52302SOL    HW263765   3.482   1.549   1.189  0.1621 -0.0558 -0.0061
52303SOL     OW63766   8.382  12.487   2.090  0.2485  0.1597 -0.0111
52303SOL    HW163767   8.444  12.421   2.122 -0.4531 -0.3361  0.3614
52303SOL    HW263768   8.435  12.548   2.039  1.0147 -0.3368  0.1835
52304SOL     OW63769   6.547   0.991  11.075  0.1953  0.1114  0.3726
52304SOL    HW163770   6.579   1.051  11.143  0.6799 -1.0012  1.1482
52304SOL    HW263771   6.452   1.000  11.078  0.2485  0.5900  0.7104
52305SOL     OW63772   2.297  12.224   2.408 -0.2492  0.4718  0.3849
52305SOL    HW163773   2.251  12.143   2.429  0.0371  0.3832  0.6947
52305SOL    HW263774   2.238  12.272   2.350  0.7660 -1.2463 -2.2681
52306SOL     OW63775   3.148  12.243   5.307  0.3435  0.2253 -0.7440
52306SOL    HW163776   3.233  12.200   5.296 -0.0624 -1.0049  0.7344
52306SOL    HW263777   3.090  12.174   5.338 -0.6967  1.5115  0.2613
52307SOL     OW63778   8.877   7.968   9.507  0.2248  0.0959 -0.9204
52307SOL    HW163779   8.890   8.057   9.539 -2.2876 -0.3941  1.8432
52307SOL    HW263780   8.850   7.918   9.584 -0.2255 -2.6575 -2.7289
52308SOL     OW63781   4.031   7.908   0.158 -0.1375  0.1408  0.4118
52308SOL    HW163782   4.050   7.961   0.235 -1.8000  0.1656  0.8412
52308SOL    HW263783   4.084   7.829   0.170 -1.2068 -0.3663  2.1762
52309SOL     OW63784   3.313   8.697   2.819  0.2864 -0.0524  0.0950
52309SOL    HW163785   3.318   8.708   2.724  0.5861 -1.2209 -0.0397
52309SOL    HW263786   3.367   8.620   2.837  0.2590  0.1725  1.2223
52310SOL     OW63787   3.650   3.111   6.327  0.6301  0.1769  0.1230
52310SOL    HW163788   3.585   3.147   6.387 -1.2654 -1.6973 -0.6680
52310SOL    HW263789   3.598   3.073   6.256  2.7151  0.9144 -1.9372
52311SOL     OW63790   1.591   7.254  10.403  0.2187 -0.5213 -0.7424
52311SOL    HW163791   1.570   7.293  10.319 -0.1678 -0.1025 -0.4597
52311SOL    HW263792   1.606   7.329  10.461  1.4310 -0.7992 -0.6580
52312SOL     OW63793  10.720   6.080   8.419 -0.2788 -0.1016  0.3983
52312SOL    HW163794  10.682   6.164   8.444 -0.2052 -0.2096  0.8773
52312SOL    HW263795  10.658   6.043   8.356  0.3139  0.8785 -0.8000
52313SOL     OW63796   1.028   1.244   8.332  0.3456  0.0405 -0.5873
52313SOL    HW163797   1.109   1.196   8.318 -1.0251 -2.7096  0.2829
52313SOL    HW263798   1.056   1.329   8.368  2.9210  0.4937 -3.3180
52314SOL     OW63799   5.934  10.830   6.867 -0.3591  0.2460  0.1356
52314SOL    HW163800   6.010  10.829   6.808 -0.8476 -1.2796 -0.5106
52314SOL    HW263801   5.970  10.856   6.952  0.6053  1.1031 -0.5060
52315SOL     OW63802  10.719  12.288   9.885 -0.4437 -0.0033  0.3500
52315SOL    HW163803  10.766  12.336   9.953 -1.2843  0.4792  0.6086
52315SOL    HW263804  10.632  12.274   9.922 -0.2713 -1.6027  0.2142
52316SOL     OW63805  12.577   0.067  11.063 -0.1327  0.0954  0.4079
52316SOL    HW163806  12.585   0.136  11.129 -2.5993  0.4810  0.4165
52316SOL    HW263807  12.492   0.027  11.082 -0.9839  0.2928 -2.5634
52317SOL     OW63808   2.877   9.777   2.507 -0.0476  0.1708 -0.2382
52317SOL    HW163809   2.831   9.730   2.436  0.7925  0.5830 -1.0739
52317SOL    HW263810   2.944   9.715   2.537  0.6319  0.5738 -0.8953
52318SOL     OW63811   6.358   3.546   5.342  0.2354  0.8848 -0.0500
52318SOL    HW163812   6.452   3.562   5.351  0.1558  1.6998 -0.4644
52318SOL    HW263813   6.348   3.451   5.342  0.8547  0.7861  1.8796
52319SOL     OW63814   3.696   5.961   9.837 -0.1270 -0.0133  0.1980
52319SOL    HW163815   3.711   5.997   9.924  2.2029 -0.4370  0.0256
52319SOL    HW263816   3.659   5.875   9.852  0.0732 -0.0011  0.7625
52320SOL     OW63817  10.260   2.807   4.778 -0.1030 -0.3593  0.0094
52320SOL    HW163818  10.228   2.758   4.702  0.0282 -1.0535  0.3922
52320SOL    HW263819  10.333   2.858   4.745 -0.4499 -0.1671 -0.4685
52321SOL     OW63820   9.112   7.834  11.560 -0.3742  0.4383 -0.1353
52321SOL    HW163821   9.202   7.851  11.590 -0.1424 -0.8748 -0.0430
52321SOL    HW263822   9.078   7.769  11.621 -0.5341 -0.9036 -1.5734
52322SOL     OW63823  11.508   4.330   9.309  0.4032  0.5467 -0.5944
52322SOL    HW163824  11.467   4.380   9.379  0.2656  0.7474 -0.8160
52322SOL    HW263825  11.447   4.338   9.235  0.1266 -0.3896 -0.4682
52323SOL     OW63826   4.544   0.111   9.256  0.1874  0.3182 -0.1962
52323SOL    HW163827   4.547   0.181   9.191  2.3068  1.3727  0.9154
52323SOL    HW263828   4.597   0.040   9.219  2.5446  1.4389  0.8223
52324SOL     OW63829   2.164  11.981   2.455  0.2823 -0.4590 -0.1486
52324SOL    HW163830   2.115  12.035   2.518  0.4176  0.9134 -1.1808
52324SOL    HW263831   2.210  11.917   2.510 -0.0099  0.3673  1.1163
52325SOL     OW63832  10.849   1.685  11.983 -0.2582 -0.6309 -0.5906
52325SOL    HW163833  10.812   1.768  11.955  0.9105  0.8605  1.9643
52325SOL    HW263834  10.797   1.660  12.060  0.6142 -1.2668 -0.1884
52326SOL     OW63835   6.039  11.631   2.642 -0.2551  0.0333 -0.0465
52326SOL    HW163836   6.029  11.723   2.668 -0.5669  0.2558 -0.9161
52326SOL    HW263837   5.951  11.603   2.617 -0.5583 -1.1286  2.1235
52327SOL     OW63838   4.954  10.249   4.865  0.0436 -0.6654 -0.0194
52327SOL    HW163839   4.982  10.263   4.774 -0.8618 -0.7596 -0.3209
52327SOL    HW263840   4.895  10.174   4.861 -0.7881 -0.0591  0.4895
52328SOL     OW63841   6.705   4.140  10.932 -0.1060 -0.1793 -0.4097
52328SOL    HW163842   6.632   4.104  10.882  0.3585  0.4066 -1.5398
52328SOL    HW263843   6.783   4.107  10.888  0.3164  0.7633 -0.3878
52329SOL     OW63844   2.016   1.970   1.007  0.2383  0.1438 -0.2915
52329SOL    HW163845   1.961   1.903   1.047  0.5401  0.3364  0.4622
52329SOL    HW263846   2.105   1.935   1.013  0.2806  0.1273 -0.9047
52330SOL     OW63847  12.480   2.022   7.022 -0.3810 -0.6428 -0.0918
52330SOL    HW163848  12.464   2.072   7.102 -1.9639  0.5281 -1.0736
52330SOL    HW263849  12.519   2.085   6.962  2.4138 -1.9295  0.2086
52331SOL     OW63850   5.033  10.154   8.745 -0.2142  0.2530  0.1459
52331SOL    HW163851   5.087  10.194   8.676 -1.3723  1.2820 -0.1901
52331SOL    HW263852   4.998  10.074   8.705  0.5822 -0.1246  0.1798
52332SOL     OW63853   7.886   2.832   9.240  0.2021 -0.2654 -0.1879
52332SOL    HW163854   7.934   2.754   9.213 -0.4154 -0.8437  0.3340
52332SOL    HW263855   7.953   2.899   9.253  0.5927 -0.0285 -2.7540
52333SOL     OW63856   3.024   8.976   0.655 -0.0507  0.3504 -0.5354
52333SOL    HW163857   2.945   8.927   0.676 -1.7831  2.8238 -0.7747
52333SOL    HW263858   3.045   8.952   0.565 -0.2281 -0.6969 -0.3004
52334SOL     OW63859  12.180   2.526   8.833 -0.4693 -0.1073  0.3745
52334SOL    HW163860  12.127   2.537   8.754  1.2578 -1.3884 -1.0497
52334SOL    HW263861  12.218   2.612   8.849 -0.1009 -0.0444 -0.7711
52335SOL     OW63862  12.187   7.062  10.673 -0.6526 -0.2692 -0.2521
52335SOL    HW163863  12.149   7.055  10.585  0.2310  0.6988 -0.7343
52335SOL    HW263864  12.228   6.977  10.689 -1.8116 -0.8568 -0.2780
52336SOL     OW63865   1.341   7.553  10.158  0.3141  0.5483 -0.1722
52336SOL    HW163866   1.257   7.511  10.176  1.4123 -1.2343  1.0948
52336SOL    HW263867   1.354   7.613  10.231  0.6523 -0.0315  0.2512
52337SOL     OW63868   5.285   6.520   4.618 -0.6329  0.0294  0.3147
52337SOL    HW163869   5.301   6.519   4.712 -0.5698  0.2644  0.3070
52337SOL    HW263870   5.365   6.556   4.580  0.4952 -2.6492 -0.0730
52338SOL     OW63871   2.038  12.576   3.371 -0.0008  0.2566  0.5023
52338SOL    HW163872   1.991  12.645   3.323  1.5424  1.0991  0.1490
52338SOL    HW263873   2.130  12.601   3.365  0.4852 -1.2097  1.4144
52339SOL     OW63874  11.949  10.000   0.949 -0.0332 -0.0439  0.0385
52339SOL    HW163875  11.946  10.031   0.859  1.1836  2.0754  0.6644
52339SOL    HW263876  11.992  10.070   0.998 -2.1249 -0.3723  2.6037
52340SOL     OW63877  11.749  10.433   8.414  0.2978 -0.0169 -0.4387
52340SOL    HW163878  11.816  10.500   8.429  0.7968 -0.5204 -0.3776
52340SOL    HW263879  11.684  10.448   8.483 -0.5828  1.5994 -1.5576
52341SOL     OW63880   5.035  12.313   8.453  0.0437  0.0323 -0.3807
52341SOL    HW163881   5.011  12.400   8.483 -0.1405 -0.2267  0.2364
52341SOL    HW263882   5.023  12.257   8.530 -0.9675 -0.7413 -1.0691
52342SOL     OW63883  11.586   4.768   3.533  0.0514 -0.5260  0.0051
52342SOL    HW163884  11.619   4.695   3.585 -1.0188  1.2414  3.5093
52342SOL    HW263885  11.491   4.760   3.539 -0.1246 -0.4564 -2.1191
52343SOL     OW63886   5.814   0.824   0.515 -0.1376 -0.2073  0.3340
52343SOL    HW163887   5.737   0.870   0.549 -1.2729 -1.9482  0.2462
52343SOL    HW263888   5.814   0.844   0.422 -0.4887 -0.2179  0.3307
52344SOL     OW63889  11.069   1.412   8.177 -0.5994  0.5470  0.0649
52344SOL    HW163890  11.132   1.354   8.220 -1.2803  0.7613  1.4239
52344SOL    HW263891  11.121   1.482   8.140  0.1839 -0.5919 -1.0820
52345SOL     OW63892   8.897   0.596  10.311  0.0448 -0.0647  0.0397
52345SOL    HW163893   8.884   0.554  10.397 -0.8768  0.1278  0.0040
52345SOL    HW263894   8.899   0.523  10.249 -1.6181 -0.0964 -0.0298
52346SOL     OW63895   6.019  10.399  10.063 -0.4432  0.1175  0.0130
52346SOL    HW163896   5.933  10.360  10.046 -0.4032 -1.1202  2.3303
52346SOL    HW263897   6.000  10.473  10.121 -0.0213  0.3510 -0.1474
52347SOL     OW63898   9.041   3.139   6.876  0.0369 -0.3766 -0.6123
52347SOL    HW163899   9.108   3.136   6.944 -0.5232 -0.3938 -0.0527
52347SOL    HW263900   8.965   3.095   6.915 -0.4916  0.1535 -1.0277
52348SOL     OW63901   8.338   8.515   5.807  0.6611 -0.6795 -0.4142
52348SOL    HW163902   8.284   8.590   5.781  0.0216 -0.5279  1.2278
52348SOL    HW263903   8.278   8.441   5.809  0.5611 -0.5797  1.0931
52349SOL     OW63904   8.641  10.285   7.062  0.7421 -0.4153 -0.1514
52349SOL    HW163905   8.633  10.380   7.072 -0.8394 -0.6116  0.9491
52349SOL    HW263906   8.645  10.252   7.152 -0.9065 -1.5036 -0.4254
52350SOL     OW63907   7.720   3.888  11.358 -0.1212  0.1486  0.0967
52350SOL    HW163908   7.683   3.922  11.277 -1.0432  1.6643  1.0828
52350SOL    HW263909   7.645   3.854  11.406  0.2248  0.3058  0.7693
52351SOL     OW63910   1.300   0.991  12.131 -0.3771  0.5639 -0.1385
52351SOL    HW163911   1.238   0.918  12.132  0.0077  0.2276 -0.5700
52351SOL    HW263912   1.261   1.054  12.071 -1.7733  1.6796  1.7946
52352SOL     OW63913   4.964   3.273   3.001 -0.3884  0.4011  0.7196
52352SOL    HW163914   5.002   3.208   2.943 -0.9197  0.9494 -0.2744
52352SOL    HW263915   4.945   3.225   3.082 -1.3378 -0.8540 -0.1958
52353SOL     OW63916   5.150   1.813   7.258 -0.2803 -0.0425 -0.1016
52353SOL    HW163917   5.210   1.861   7.201  0.0990 -0.6898 -0.2633
52353SOL    HW263918   5.161   1.853   7.344 -0.6006  0.7125 -0.4054
52354SOL     OW63919   2.250   0.439   7.144 -0.1241  0.1631  0.8576
52354SOL    HW163920   2.164   0.471   7.173  0.7554  1.2154  2.4023
52354SOL    HW263921   2.313   0.499   7.183  1.3249 -0.4355 -0.4752
52355SOL     OW63922  10.338   9.694   0.791 -0.7462 -0.0731 -0.0305
52355SOL    HW163923  10.268   9.756   0.810  0.1645  1.1688 -0.6196
52355SOL    HW263924  10.411   9.722   0.846  0.3586  0.6768 -1.8201
52356SOL     OW63925   2.110   2.933   4.516  0.5838  0.3819 -0.8700
52356SOL    HW163926   2.147   2.993   4.581 -1.7207  0.1386  0.7971
52356SOL    HW263927   2.146   2.962   4.432  0.0613  3.6925 -0.0635
52357SOL     OW63928   1.140   2.576   6.554 -0.0706 -0.2991 -0.3360
52357SOL    HW163929   1.187   2.550   6.633 -1.0650 -0.3947  0.2528
52357SOL    HW263930   1.068   2.513   6.547 -0.9590  0.6807 -0.3841
52358SOL     OW63931  10.089  11.776   4.937 -0.0788 -0.0617 -0.4252
52358SOL    HW163932  10.014  11.717   4.931 -1.3071  1.4158 -0.1864
52358SOL    HW263933  10.161  11.720   4.966 -1.3422 -1.3255  0.3995
52359SOL     OW63934   4.993   4.833   0.918  0.7113  0.1650 -0.1374
52359SOL    HW163935   4.954   4.866   0.999  0.6205  0.4433 -0.2893
52359SOL    HW263936   4.924   4.846   0.852 -1.3971 -4.8724  0.6099
52360SOL     OW63937   9.315   9.015   3.918 -0.8458 -0.3415  0.3848
52360SOL    HW163938   9.378   8.959   3.873 -0.5731  1.1293 -1.2018
52360SOL    HW263939   9.356   9.035   4.002  0.4996 -0.0223 -0.3156
52361SOL     OW63940   3.854   5.512   9.960  0.1448  0.0396  0.2710
52361SOL    HW163941   3.862   5.476  10.048  2.7130  0.5946  0.3461
52361SOL    HW263942   3.941   5.548   9.941 -0.8105  1.4316 -1.8428
52362SOL     OW63943   2.555   7.619  10.153 -0.0895 -0.6319  0.3318
52362SOL    HW163944   2.521   7.658  10.072  0.2024  0.5904  0.7791
52362SOL    HW263945   2.615   7.685  10.188  0.9348 -1.7628  0.7870
52363SOL     OW63946   5.434   2.321   4.098 -0.3745  0.4256 -0.1800
52363SOL    HW163947   5.403   2.390   4.040  0.4116  0.9006 -0.0517
52363SOL    HW263948   5.399   2.240   4.060 -1.4608  0.9019 -0.2258
52364SOL     OW63949   1.219   8.921   4.286  0.7445 -0.1653  0.4502
52364SOL    HW163950   1.285   8.976   4.328 -0.8822  2.2414  0.0674
52364SOL    HW263951   1.209   8.959   4.198 -2.2775  0.6655  1.0565
52365SOL     OW63952  11.641   8.004   5.734  0.2123  0.2492  0.4468
52365SOL    HW163953  11.728   7.977   5.706 -0.0329 -0.2653  0.1478
52365SOL    HW263954  11.619   8.077   5.676  1.2091  1.6732  1.7933
52366SOL     OW63955   5.583   4.994   5.763 -0.2193  0.1280  0.0428
52366SOL    HW163956   5.571   5.048   5.842 -1.9310  0.3907 -0.3626
52366SOL    HW263957   5.568   5.054   5.690  0.1642 -0.3801 -0.4640
52367SOL     OW63958   2.097   5.812   4.500 -0.0943 -0.0761  0.2786
52367SOL    HW163959   2.029   5.808   4.567 -1.5377  2.0568 -0.9389
52367SOL    HW263960   2.142   5.895   4.517  0.0420  0.1096 -0.9038
52368SOL     OW63961  10.281   8.671   0.449  0.3967 -0.1944 -0.1369
52368SOL    HW163962  10.362   8.666   0.398  0.7991 -0.2755  0.4978
52368SOL    HW263963  10.305   8.721   0.527 -0.6287  1.4347 -0.8125
52369SOL     OW63964   4.901   8.089   8.541  0.1438 -0.4776 -0.2351
52369SOL    HW163965   4.854   8.097   8.458  0.5934  1.8992 -0.3124
52369SOL    HW263966   4.845   8.132   8.605  2.3822  3.2066 -0.4740
52370SOL     OW63967   2.825   4.300   9.859  0.4728 -0.4849  0.0386
52370SOL    HW163968   2.730   4.296   9.872  0.5317  1.6919  1.7439
52370SOL    HW263969   2.836   4.323   9.767 -0.6794 -0.1403 -0.0293
52371SOL     OW63970   7.607   7.746   7.793  0.3551 -0.1249  0.2226
52371SOL    HW163971   7.625   7.779   7.705  1.9576 -2.6825 -0.5334
52371SOL    HW263972   7.517   7.714   7.789  0.3097  0.0651 -0.4072
52372SOL     OW63973   1.261   5.457   0.096  0.3054  0.2783  0.1714
52372SOL    HW163974   1.298   5.545   0.091  0.0675  0.3482 -0.5622
52372SOL    HW263975   1.283   5.417   0.012 -1.1827  0.2998 -0.2744
52373SOL     OW63976   7.645  11.634   6.580  0.3219  0.2489 -0.0556
52373SOL    HW163977   7.626  11.554   6.530  0.0335 -1.0525  2.0157
52373SOL    HW263978   7.740  11.638   6.584  0.3676  0.7348 -1.2200
52374SOL     OW63979   3.801  10.803   6.456  0.6816  0.1278  0.0986
52374SOL    HW163980   3.737  10.868   6.429  0.4156 -0.1847 -0.0242
52374SOL    HW263981   3.787  10.794   6.551 -0.1323 -0.6605 -0.0795
52375SOL     OW63982   9.439   7.079   6.029  0.1796  0.6200  0.1674
52375SOL    HW163983   9.527   7.045   6.044  0.0364  0.0361 -0.3067
52375SOL    HW263984   9.452   7.172   6.010  0.5902  0.7943  1.2211
52376SOL     OW63985   9.509   5.627  12.198 -0.3135  0.0979 -0.0974
52376SOL    HW163986   9.513   5.662  12.287 -0.6843 -1.3948  0.5370
52376SOL    HW263987   9.432   5.670  12.159  0.4725  1.5755 -0.0946
52377SOL     OW63988   5.105   7.394  11.963  0.3289  0.2197  0.0749
52377SOL    HW163989   5.187   7.381  12.010  1.5928  0.4635 -1.9625
52377SOL    HW263990   5.089   7.311  11.919 -1.5501 -0.4631  1.8537
52378SOL     OW63991  10.416  11.309  12.276 -0.0831 -0.1905 -0.9806
52378SOL    HW163992  10.367  11.248  12.332 -0.2330  0.1737 -0.7103
52378SOL    HW263993  10.485  11.256  12.237  1.8604  0.0880  1.7612
52379SOL     OW63994   2.339   5.325   1.618 -0.3521 -0.2176 -0.2715
52379SOL    HW163995   2.267   5.361   1.566  0.1863  2.4042  0.6037
52379SOL    HW263996   2.297   5.269   1.683 -1.7354  1.5979  0.4995
52380SOL     OW63997   6.589  11.550   4.946 -0.5626  0.1574 -0.4352
52380SOL    HW163998   6.562  11.549   5.037 -0.3686  1.0503 -0.3543
52380SOL    HW263999   6.591  11.458   4.920 -1.9000 -0.0354  0.0707
52381SOL     OW64000   1.554   5.912   6.893  0.0516  0.1854 -0.2309
52381SOL    HW164001   1.532   6.004   6.907  1.1117  0.6678 -1.5255
52381SOL    HW264002   1.649   5.911   6.882  0.0022 -1.0000 -0.7636
52382SOL     OW64003   5.197   8.729  11.198  0.1059  0.0532  0.2598
52382SOL    HW164004   5.237   8.699  11.279 -0.9368 -0.8897  0.4584
52382SOL    HW264005   5.161   8.649  11.158 -0.0865  0.6140 -0.7253
52383SOL     OW64006   6.059  12.419   8.201 -0.0022 -0.1669  0.1352
52383SOL    HW164007   6.028  12.366   8.128 -1.1996 -0.3690  0.7483
52383SOL    HW264008   6.066  12.358   8.274  1.2714  0.0126  0.1734
52384SOL     OW64009   8.830   5.182   6.728 -0.1697 -0.7477  0.2004
52384SOL    HW164010   8.852   5.123   6.800 -0.0283  1.1170  1.7567
52384SOL    HW264011   8.742   5.157   6.702 -0.9385 -0.3280  2.2401
52385SOL     OW64012   4.928   4.613  10.298  0.1079 -0.3193  0.5242
52385SOL    HW164013   4.866   4.658  10.239 -0.9378 -1.3535  0.7892
52385SOL    HW264014   4.996   4.678  10.315  0.5690 -0.0466 -1.9967
52386SOL     OW64015   1.075   5.750  12.519  0.1376 -0.4544 -0.4917
52386SOL    HW164016   1.088   5.755  12.424 -0.7803  0.5914 -0.5753
52386SOL    HW264017   0.998   5.695  12.529  0.7673 -1.3269 -0.2899
52387SOL     OW64018  11.619   6.568   5.312 -0.5740  0.0040  0.0073
52387SOL    HW164019  11.710   6.560   5.282 -1.6117 -1.0156 -3.1855
52387SOL    HW264020  11.604   6.491   5.366 -0.2236 -1.1897 -1.5403
52388SOL     OW64021   7.509   2.652   3.198  0.1573  0.1158  0.1336
52388SOL    HW164022   7.450   2.668   3.124 -1.6243  2.4753  1.8608
52388SOL    HW264023   7.520   2.739   3.238  1.7433 -0.9231  2.1343
52389SOL     OW64024   3.925   8.393   3.554 -0.3086  0.1846  0.5210
52389SOL    HW164025   3.938   8.450   3.630 -1.4949  0.3604  0.6161
52389SOL    HW264026   3.837   8.415   3.522 -1.7208 -2.9579  1.7856
52390SOL     OW64027  10.633   5.190  10.266 -0.1166 -0.1300 -0.3948
52390SOL    HW164028  10.621   5.103  10.304  1.1447 -0.3227 -0.3938
52390SOL    HW264029  10.703   5.229  10.318 -0.0729  0.5488 -0.9548
52391SOL     OW64030   7.719   5.469   2.106  0.1122  0.4817  0.4095
52391SOL    HW164031   7.803   5.489   2.065  0.0439  0.5337  0.2945
52391SOL    HW264032   7.661   5.540   2.078 -0.2903 -0.1716 -0.4715
52392SOL     OW64033   7.793  11.742  11.746  0.3058  0.1796 -0.6235
52392SOL    HW164034   7.774  11.685  11.820 -1.3629  1.2262 -0.1957
52392SOL    HW264035   7.884  11.768  11.758  0.6671 -1.2641 -0.0713
52393SOL     OW64036   6.648   2.951   9.966  0.3359  0.2674 -0.2651
52393SOL    HW164037   6.607   2.873   9.928  2.1136 -0.6285 -0.4647
52393SOL    HW264038   6.578   2.994  10.015 -1.2705 -0.1729 -2.0618
52394SOL     OW64039   6.683   4.087  12.442 -0.6254  0.4941  0.4755
52394SOL    HW164040   6.659   4.156  12.380  0.2701  0.4243  0.0393
52394SOL    HW264041   6.686   4.008  12.389  1.0538  0.5866  0.4070
52395SOL     OW64042   1.383   9.216   5.746  0.0542  0.5726  0.8118
52395SOL    HW164043   1.423   9.220   5.833  0.1562  0.5156  0.7679
52395SOL    HW264044   1.316   9.148   5.753 -0.2303  0.8670  0.9651
52396SOL     OW64045   3.007   5.311  11.411 -0.4426  0.1360  0.1754
52396SOL    HW164046   3.093   5.343  11.386 -0.2754 -0.4186  0.0264
52396SOL    HW264047   2.989   5.355  11.495  0.9024 -1.3031  1.2877
52397SOL     OW64048   5.677  12.214  10.270  0.2249 -0.3979  0.0044
52397SOL    HW164049   5.646  12.298  10.303 -0.3135 -0.9131  0.8161
52397SOL    HW264050   5.772  12.217  10.282  0.0153 -0.7454  2.0357
52398SOL     OW64051   5.687   2.038   0.776  0.3427 -0.7112  0.1030
52398SOL    HW164052   5.760   1.977   0.789  0.1625 -0.5816  2.0132
52398SOL    HW264053   5.721   2.122   0.808 -0.0727 -0.2413 -0.6665
52399SOL     OW64054   2.498   3.729  11.465  0.5027 -0.1000 -0.1847
52399SOL    HW164055   2.544   3.809  11.440 -0.0221 -0.4853 -2.6029
52399SOL    HW264056   2.406   3.756  11.470  0.6703  0.2904  3.0044
52400SOL     OW64057  10.145  12.557   9.851  0.0495 -1.1544  0.0413
52400SOL    HW164058  10.068  12.508   9.878  0.5866 -0.4846  3.2835
52400SOL    HW264059  10.188  12.582   9.934  0.5880  3.4672 -1.3282
52401SOL     OW64060   6.010   3.283  10.415 -0.0197 -0.0918  0.0407
52401SOL    HW164061   6.028   3.273  10.508 -0.3762  3.5996  0.6325
52401SOL    HW264062   5.914   3.277  10.408 -0.0481  0.3828  0.0255
52402SOL     OW64063   4.754  10.746   3.842  0.1632  0.1002  0.3200
52402SOL    HW164064   4.801  10.721   3.921  1.5759  1.0550 -0.1710
52402SOL    HW264065   4.766  10.672   3.782 -1.0548 -0.6969  1.0233
52403SOL     OW64066   4.089   4.399   4.962 -0.3132 -0.2730  0.3394
52403SOL    HW164067   4.107   4.315   4.920 -0.5045 -0.0657 -0.1708
52403SOL    HW264068   4.012   4.382   5.017 -0.4058 -0.4069  0.1691
52404SOL     OW64069   9.569   3.880   9.240 -0.1798 -0.5764  0.1640
52404SOL    HW164070   9.549   3.893   9.147 -1.2279 -0.5897  0.3722
52404SOL    HW264071   9.620   3.957   9.266  0.1377 -0.5845 -0.4204
52405SOL     OW64072   3.572   2.070   1.126 -0.0105  0.1902 -0.1140
52405SOL    HW164073   3.578   2.124   1.204 -1.0060  0.6319 -0.3378
52405SOL    HW264074   3.649   2.095   1.074  0.5394  0.0482  0.6054
52406SOL     OW64075   5.462   3.178   3.768  0.3946  0.3709  0.1104
52406SOL    HW164076   5.537   3.120   3.763  0.2814  0.1458  1.0200
52406SOL    HW264077   5.403   3.147   3.700  1.2587  0.7680 -0.8571
52407SOL     OW64078   4.570   3.711  11.866 -0.4518 -0.2909 -0.6632
52407SOL    HW164079   4.563   3.635  11.809 -0.0889 -1.1569  0.4013
52407SOL    HW264080   4.659   3.743  11.854  0.4675 -1.9356  1.1199
52408SOL     OW64081   2.961  10.714   6.472 -0.3521 -0.2101 -0.4894
52408SOL    HW164082   3.010  10.716   6.554 -1.8551  0.6163  0.4365
52408SOL    HW264083   3.028  10.722   6.404  1.1171 -2.7983  0.5250
52409SOL     OW64084   5.472  11.147   4.393  0.8326  0.8182  0.1876
52409SOL    HW164085   5.472  11.224   4.336 -0.1629  0.7229  0.0405
52409SOL    HW264086   5.558  11.107   4.379  0.7338  0.9692 -1.0192
52410SOL     OW64087   4.761   2.751   7.582 -0.3167 -0.5544  0.1529
52410SOL    HW164088   4.735   2.784   7.496 -3.2563  0.5103  1.3157
52410SOL    HW264089   4.686   2.699   7.611  0.7433 -1.1673  1.9505
52411SOL     OW64090   7.426   5.907  11.635  0.5066  0.2414  0.0334
52411SOL    HW164091   7.518   5.918  11.660  0.4504 -0.3898  0.5180
52411SOL    HW264092   7.388   5.994  11.649  0.8338  0.2949  0.6479
52412SOL     OW64093   0.099   6.505   8.472 -0.0229 -0.0230  0.1269
52412SOL    HW164094   0.063   6.532   8.557 -0.2126  4.1111 -1.0706
52412SOL    HW264095   0.189   6.535   8.474  0.2788 -0.8316 -0.7892
52413SOL     OW64096   4.111   4.248  10.528 -0.6493 -0.0386 -0.4957
52413SOL    HW164097   4.022   4.213  10.528 -1.3797  1.4798  2.9370
52413SOL    HW264098   4.102   4.337  10.496 -0.3726  0.1232 -0.1273
52414SOL     OW64099   1.871  10.052   6.964 -0.1997 -0.2429  0.3847
52414SOL    HW164100   1.872  10.128   7.022 -2.5854 -0.3334  0.6644
52414SOL    HW264101   1.821   9.986   7.012 -1.1853 -0.7496 -1.2281
52415SOL     OW64102   9.241   7.294   5.794 -0.4889 -0.1063  0.0158
52415SOL    HW164103   9.305   7.256   5.734 -0.2599  1.7715 -1.0008
52415SOL    HW264104   9.210   7.373   5.750 -1.3162  0.6230  1.7980
52416SOL     OW64105   5.029   4.172  11.025  0.1468 -0.4920  0.9181
52416SOL    HW164106   4.967   4.211  11.086 -0.0713  0.3176  0.2118
52416SOL    HW264107   5.110   4.163  11.076  0.6481  2.2762  0.7685
52417SOL     OW64108   8.551   7.912   8.206 -0.1647  0.3499 -0.0658
52417SOL    HW164109   8.464   7.881   8.181 -0.3083  1.3511 -0.9028
52417SOL    HW264110   8.603   7.832   8.218 -1.0947 -0.2463  0.0572
52418SOL     OW64111   5.087  11.286   8.156 -0.3703  0.1911  0.0136
52418SOL    HW164112   5.011  11.269   8.213  0.5231  0.6304  1.3973
52418SOL    HW264113   5.063  11.247   8.072 -2.9177  1.9582 -0.2007
52419SOL     OW64114  10.079   0.369   0.219  0.7141 -0.6922 -0.1891
52419SOL    HW164115  10.083   0.432   0.148  1.7209 -1.5419 -0.9101
52419SOL    HW264116  10.122   0.413   0.293 -0.6855  0.3410  0.0437
52420SOL     OW64117   6.146   5.915  12.071 -0.3875 -0.1376  0.4752
52420SOL    HW164118   6.198   5.899  11.993  0.2348 -1.1179  1.0721
52420SOL    HW264119   6.126   5.828  12.105  1.1760  0.2483  2.5998
52421SOL     OW64120   4.951   6.452   8.583  0.0493  0.4393  0.4575
52421SOL    HW164121   4.862   6.467   8.550 -0.4997  0.6079  1.9398
52421SOL    HW264122   4.942   6.452   8.678  1.7023  0.8152  0.6526
52422SOL     OW64123   0.979  11.624   4.282  0.2417 -0.3915  0.0004
52422SOL    HW164124   0.960  11.586   4.196  1.3746  0.7220 -0.7768
52422SOL    HW264125   0.899  11.673   4.305  0.3090  0.1655 -0.9130
52423SOL     OW64126  10.925   4.926   9.636 -0.2713  0.2203 -0.0407
52423SOL    HW164127  10.953   4.873   9.711 -0.0438  0.5743  0.1281
52423SOL    HW264128  10.968   5.010   9.649 -1.1505  0.6664  0.0381
52424SOL     OW64129   2.305  11.019   4.581 -0.3518 -0.0441  0.3802
52424SOL    HW164130   2.287  11.071   4.503  2.6813  1.7620  0.7030
52424SOL    HW264131   2.277  11.075   4.654  2.6321  1.1968  0.7185
52425SOL     OW64132   6.961   9.442   3.895  0.1701 -0.3246 -0.3251
52425SOL    HW164133   6.884   9.492   3.868 -2.3178 -2.4872  2.1290
52425SOL    HW264134   6.939   9.352   3.873  1.6371 -1.0791  1.1152
52426SOL     OW64135   6.891   0.322  11.775  0.2493  0.4232 -0.1958
52426SOL    HW164136   6.818   0.325  11.838 -0.2614  0.9950 -0.7910
52426SOL    HW264137   6.930   0.236  11.787 -0.4761  0.1413  0.1988
52427SOL     OW64138  10.622  12.136   1.508 -0.1434  0.3139 -0.2415
52427SOL    HW164139  10.658  12.067   1.452 -0.2676 -1.2033  1.4699
52427SOL    HW264140  10.539  12.159   1.468 -0.2770 -0.8161 -0.6264
52428SOL     OW64141   9.635  10.635   0.900  0.6090  0.6579  0.1515
52428SOL    HW164142   9.544  10.606   0.902  1.0475 -0.7664  1.7128
52428SOL    HW264143   9.649  10.662   0.809 -1.2131  0.4281 -0.2384
52429SOL     OW64144   1.621   6.848  11.354 -0.0375  0.3092 -0.2062
52429SOL    HW164145   1.587   6.829  11.267  0.2022  2.9259 -0.9558
52429SOL    HW264146   1.711   6.877  11.340  0.0717  0.5996  0.9351
52430SOL     OW64147   6.860   0.132   2.755 -0.2255  0.0534 -0.4603
52430SOL    HW164148   6.874   0.086   2.838  0.4701  0.3454 -0.4058
52430SOL    HW264149   6.845   0.223   2.781  0.3399  0.2112 -0.6679
52431SOL     OW64150  10.463  10.607   5.235 -0.7766 -1.0326 -0.2396
52431SOL    HW164151  10.477  10.701   5.247 -0.1592 -1.2675  1.1314
52431SOL    HW264152  10.532  10.579   5.176 -1.7985 -0.4113 -1.7976
52432SOL     OW64153   7.361   2.374   4.014  0.0152 -0.4278 -0.4158
52432SOL    HW164154   7.322   2.455   4.049  0.1163 -1.1646  1.4951
52432SOL    HW264155   7.307   2.353   3.938  0.6612  2.0147 -1.6657
52433SOL     OW64156   1.159   4.787   0.706 -0.2410  0.4140  0.0055
52433SOL    HW164157   1.170   4.748   0.792  0.2939 -1.0110 -0.6904
52433SOL    HW264158   1.150   4.881   0.723 -5.2327 -0.1086  2.1070
52434SOL     OW64159   2.401   1.598  10.526 -0.1499 -0.1112  0.0474
52434SOL    HW164160   2.481   1.628  10.569 -0.2034 -1.1209  0.8907
52434SOL    HW264161   2.423   1.509  10.496 -0.4756  0.1661 -1.0533
52435SOL     OW64162  10.942   1.424   1.783  0.5109  0.3196 -0.1672
52435SOL    HW164163  10.930   1.510   1.744 -0.2349 -0.0424 -0.7724
52435SOL    HW264164  11.009   1.382   1.729  1.8408  0.9802  0.9258
52436SOL     OW64165   9.429   2.845   1.950  0.2385  0.6291  0.0773
52436SOL    HW164166   9.487   2.918   1.926 -0.6731  1.5118  0.4776
52436SOL    HW264167   9.349   2.888   1.982 -0.9313 -0.5572 -1.1519
52437SOL     OW64168   6.420   1.574  11.976 -0.1769 -0.0936  0.7286
52437SOL    HW164169   6.391   1.485  11.955  2.0968 -0.9255  0.8617
52437SOL    HW264170   6.511   1.576  11.947 -0.8525  3.0351 -1.6818
52438SOL     OW64171   9.517   3.053   9.014 -0.1352 -0.2328  0.1376
52438SOL    HW164172   9.492   2.983   9.074  2.2320  0.8940  2.6718
52438SOL    HW264173   9.500   3.134   9.063  0.8355  0.7847 -1.1324
52439SOL     OW64174   8.248  11.921   2.799 -0.7728  0.6967 -0.1539
52439SOL    HW164175   8.273  11.952   2.886  0.1821  0.7612 -0.4389
52439SOL    HW264176   8.330  11.922   2.749 -1.0949 -0.4149 -0.7256
52440SOL     OW64177   9.567  10.985   8.407 -0.1209  0.9335 -0.3085
52440SOL    HW164178   9.595  10.933   8.483 -1.5281  1.6154  0.7326
52440SOL    HW264179   9.514  10.924   8.355  1.1833  0.3460 -0.9997
52441SOL     OW64180  12.232  10.446  11.200 -0.1600 -0.1860  0.4594
52441SOL    HW164181  12.202  10.471  11.112  0.0261  1.3236  0.8016
52441SOL    HW264182  12.162  10.390  11.234 -0.5961 -0.1523 -0.3635
52442SOL     OW64183  11.065   7.987  11.696  0.4362  0.1353  0.1262
52442SOL    HW164184  11.093   8.074  11.669 -0.0360 -0.2350 -1.6585
52442SOL    HW264185  11.146   7.944  11.724  0.4982  1.5611  2.4763
52443SOL     OW64186   4.268   4.788   0.422  0.1084  0.7220 -0.3175
52443SOL    HW164187   4.282   4.775   0.328  0.8033  0.0887 -0.1318
52443SOL    HW264188   4.173   4.781   0.433  0.1549 -0.8393 -0.7438
52444SOL     OW64189   4.900   3.720  11.261 -0.3989 -0.2177  0.0089
52444SOL    HW164190   4.914   3.813  11.243 -0.8287 -0.2632 -0.5675
52444SOL    HW264191   4.958   3.702  11.336 -0.4817  0.5620  0.2763
52445SOL     OW64192   6.038   9.423   1.643  0.3015  0.0620  0.4269
52445SOL    HW164193   5.973   9.417   1.713  0.1425 -0.6535  0.2200
52445SOL    HW264194   5.999   9.484   1.580 -0.7767 -1.3756 -0.3329
52446SOL     OW64195   2.762   0.370   7.549  0.2153  0.0181 -0.8181
52446SOL    HW164196   2.761   0.390   7.642  0.1066  0.0510 -0.8269
52446SOL    HW264197   2.842   0.412   7.516  0.5650 -0.4824 -0.6270
52447SOL     OW64198   8.086  10.784   5.518  0.4950 -0.4133 -0.1965
52447SOL    HW164199   8.029  10.844   5.565  1.5226 -0.3271  0.9886
52447SOL    HW264200   8.073  10.806   5.426 -1.2604 -0.3145  0.0517
52448SOL     OW64201   3.348   4.297  11.664 -0.6078 -0.4342 -0.1305
52448SOL    HW164202   3.433   4.333  11.687 -0.2636 -1.7740  0.7924
52448SOL    HW264203   3.287   4.370  11.673  0.1632  0.0880  1.0596
52449SOL     OW64204   2.413   5.595   9.078 -0.9981 -0.0276  0.4490
52449SOL    HW164205   2.494   5.645   9.070 -1.4179  0.4991 -0.8203
52449SOL    HW264206   2.441   5.503   9.067 -0.5115  0.1121  0.4798
52450SOL     OW64207  11.284   8.729   4.726  0.1206 -0.3840 -0.0742
52450SOL    HW164208  11.281   8.767   4.639  0.4622  0.5260  0.3005
52450SOL    HW264209  11.199   8.687   4.737  0.7111 -2.1245 -1.5310
52451SOL     OW64210  11.251   6.264   8.550 -0.6433 -0.0551  0.1066
52451SOL    HW164211  11.190   6.208   8.502 -0.4415  0.8266 -1.2147
52451SOL    HW264212  11.303   6.307   8.482  1.5104 -0.8139  1.1982
52452SOL     OW64213   9.522   1.675   9.733  0.9026  0.5924 -0.1350
52452SOL    HW164214   9.519   1.742   9.665 -0.2097  0.9397  0.2430
52452SOL    HW264215   9.599   1.698   9.786  0.4267  1.6822  0.0992
52453SOL     OW64216  12.121  11.126   1.509 -0.1531 -0.4501  0.1468
52453SOL    HW164217  12.059  11.055   1.498 -0.6767  0.2668 -2.0891
52453SOL    HW264218  12.183  11.094   1.575 -0.6928 -2.7178 -0.3621
52454SOL     OW64219   1.876  10.051   0.502  0.7605  0.2266  0.4250
52454SOL    HW164220   1.783  10.061   0.521  0.6289 -0.0587 -0.0339
52454SOL    HW264221   1.902  10.135   0.464  0.4802  0.0290 -0.2354
52455SOL     OW64222   3.903   8.336   2.498  0.6523 -0.3625 -0.2575
52455SOL    HW164223   3.972   8.320   2.433  0.4678 -0.1248 -0.5179
52455SOL    HW264224   3.922   8.424   2.531  0.4357 -0.2690 -0.3805
52456SOL     OW64225   1.615  10.018   2.562  0.9626  0.1448 -0.0172
52456SOL    HW164226   1.593  10.050   2.475  0.2523  0.1750  0.1659
52456SOL    HW264227   1.668   9.940   2.546  1.1446  0.3585 -0.4749
52457SOL     OW64228   8.301   0.517  11.330 -0.3852  0.2329  0.1435
52457SOL    HW164229   8.389   0.553  11.336 -1.0905  2.1896 -0.3263
52457SOL    HW264230   8.307   0.431  11.372  1.2921  1.1497  1.9598
52458SOL     OW64231  10.218  12.286   4.048 -1.0516 -0.0853  0.4813
52458SOL    HW164232  10.311  12.270   4.060 -1.1312 -1.4633 -0.4832
52458SOL    HW264233  10.201  12.367   4.095  0.9692  1.1385 -0.7671
52459SOL     OW64234   8.415   9.893   2.826  0.0066  0.6003 -0.4098
52459SOL    HW164235   8.363   9.973   2.828 -0.9235  0.0085 -0.6333
52459SOL    HW264236   8.461   9.895   2.742 -1.3492  0.0771 -1.1924
52460SOL     OW64237   3.493   3.475   1.966  1.3276 -0.3261  0.0593
52460SOL    HW164238   3.536   3.537   1.908  2.3081 -1.2466 -0.2244
52460SOL    HW264239   3.452   3.529   2.033  0.9308  0.7006 -0.9824
52461SOL     OW64240   8.980   4.840   5.106  0.2472 -0.0099  0.1465
52461SOL    HW164241   9.013   4.755   5.135 -1.3458 -0.3963  0.9777
52461SOL    HW264242   8.981   4.836   5.011 -2.3353 -2.0711  0.1124
52462SOL     OW64243   6.800   8.913   5.379  0.1344 -0.1619 -0.0783
52462SOL    HW164244   6.840   8.996   5.406  0.5250 -0.3407 -0.0983
52462SOL    HW264245   6.866   8.847   5.400  0.3995 -0.3268 -1.3456
52463SOL     OW64246   5.964   1.697   8.082 -0.1907  0.0109 -1.0812
52463SOL    HW164247   5.955   1.792   8.085  1.9219  0.2572 -1.4115
52463SOL    HW264248   5.944   1.674   7.991  0.5163  0.2969 -1.3123
52464SOL     OW64249   6.964   2.068   6.090  0.4748  0.2335  0.5294
52464SOL    HW164250   6.916   2.005   6.144 -1.0689 -0.8096 -1.8418
52464SOL    HW264251   6.896   2.125   6.055  1.5807  1.7061  0.7079
52465SOL     OW64252   3.676  11.800   8.541 -0.2123 -0.2554  0.2966
52465SOL    HW164253   3.717  11.718   8.566 -2.2066 -1.7565 -1.0778
52465SOL    HW264254   3.645  11.837   8.624  0.6473 -0.9070  0.9268
52466SOL     OW64255   9.217   2.255   4.180 -0.4807  0.2771 -0.3331
52466SOL    HW164256   9.135   2.275   4.226  0.6655  2.6182  0.8761
52466SOL    HW264257   9.271   2.210   4.245  0.1005  1.0017 -0.3055
52467SOL     OW64258   7.219   9.537  10.944 -0.4496  0.5270  0.5314
52467SOL    HW164259   7.269   9.489  10.878 -2.4601  1.0174 -1.4770
52467SOL    HW264260   7.284   9.560  11.011  1.6094 -0.3944 -1.0284
52468SOL     OW64261   7.811   0.130   9.449  0.1083 -0.1539  0.3352
52468SOL    HW164262   7.725   0.134   9.490 -1.7550 -0.5259 -3.1768
52468SOL    HW264263   7.808   0.051   9.395  2.8626 -0.4192  0.4314
52469SOL     OW64264   4.505   6.309   6.441 -0.5501  0.7479  0.3699
52469SOL    HW164265   4.501   6.336   6.532  0.5141  0.0619  0.6358
52469SOL    HW264266   4.506   6.213   6.444 -3.4631  0.6183 -0.5177
52470SOL     OW64267   3.036  11.524   1.559 -0.0807 -0.6156  0.3276
52470SOL    HW164268   3.129  11.519   1.536 -0.4466  0.4879 -1.6989
52470SOL    HW264269   3.010  11.433   1.577  0.9825 -1.1984 -0.9268
52471SOL     OW64270   2.481   2.387   8.062  1.0482 -0.7102  0.7048
52471SOL    HW164271   2.390   2.382   8.091 -0.3760  3.4230 -2.1017
52471SOL    HW264272   2.530   2.404   8.143 -1.4273  1.6250  1.8858
52472SOL     OW64273   4.445   3.213   0.563 -0.3829 -0.0450  0.2900
52472SOL    HW164274   4.530   3.171   0.553 -0.1230  0.2190  1.3089
52472SOL    HW264275   4.427   3.250   0.476  1.0484  0.8194  0.3165
52473SOL     OW64276  10.305   7.622   5.281  0.0591 -0.2224 -0.1118
52473SOL    HW164277  10.297   7.685   5.353  1.0334 -0.0230 -0.1646
52473SOL    HW264278  10.316   7.677   5.202  2.2577 -0.4020 -0.0049
52474SOL     OW64279   3.858  10.427  11.669  0.5102  0.5967 -0.0969
52474SOL    HW164280   3.880  10.466  11.754 -2.1443  2.8641 -0.2902
52474SOL    HW264281   3.846  10.502  11.611 -1.3837 -0.6885 -1.4855
52475SOL     OW64282   5.359  10.642   4.460  1.0342  0.3632 -0.2211
52475SOL    HW164283   5.391  10.693   4.534 -0.3990  1.9617 -0.6258
52475SOL    HW264284   5.267  10.670   4.450  0.2628 -2.1082 -0.6577
52476SOL     OW64285  10.416   9.872   4.970  0.0193  0.5278 -0.2513
52476SOL    HW164286  10.422   9.817   4.892 -0.9237  2.3750 -1.6886
52476SOL    HW264287  10.324   9.871   4.994 -0.2066  2.2760 -0.9322
52477SOL     OW64288  12.325   5.792   8.307  0.1594  0.4766 -0.0127
52477SOL    HW164289  12.382   5.760   8.376 -0.1139 -1.5384 -0.6565
52477SOL    HW264290  12.355   5.746   8.228  0.2068  2.4044 -1.1803
52478SOL     OW64291  11.206   8.261   9.047 -0.7070 -0.1899  0.2204
52478SOL    HW164292  11.261   8.224   8.978 -0.6802 -1.4969  0.8887
52478SOL    HW264293  11.134   8.198   9.056 -0.4126 -0.3602  1.7329
52479SOL     OW64294   5.850   7.090   8.272 -0.0423  0.2824  0.3624
52479SOL    HW164295   5.929   7.143   8.283  0.0504 -0.2098  2.7537
52479SOL    HW264296   5.792   7.121   8.342 -0.3599 -2.0222  1.1938
52480SOL     OW64297   5.192   5.488   1.943  0.4658 -0.2622  0.2509
52480SOL    HW164298   5.265   5.459   1.996  0.3827 -1.4392 -0.2370
52480SOL    HW264299   5.181   5.419   1.877 -1.1189 -0.1617  0.3610
52481SOL     OW64300   3.724   6.936  10.893  0.0869 -0.0450 -0.2823
52481SOL    HW164301   3.718   6.883  10.972 -0.1244 -0.6500 -0.6929
52481SOL    HW264302   3.756   6.876  10.826  0.8690  0.6168 -0.5175
52482SOL     OW64303   0.351   6.490   3.041 -0.3655 -0.0960 -0.0693
52482SOL    HW164304   0.290   6.556   3.007  0.9785 -0.0767 -2.7005
52482SOL    HW264305   0.403   6.464   2.965  2.0343 -1.0761  1.7771
52483SOL     OW64306   7.801   7.899   0.081  0.5876 -0.3214 -0.2766
52483SOL    HW164307   7.723   7.955   0.086  0.7513 -0.1872  1.1274
52483SOL    HW264308   7.849   7.918   0.162  0.7533 -2.3260  0.1468
52484SOL     OW64309   2.132   7.709   1.840  0.0468 -0.1024 -0.0962
52484SOL    HW164310   2.100   7.648   1.774 -0.7898  0.7947 -0.5424
52484SOL    HW264311   2.216   7.674   1.867 -0.8951 -2.0745  0.4732
52485SOL     OW64312  11.569  11.152  10.113  0.0754  0.2990 -0.0816
52485SOL    HW164313  11.542  11.146  10.205 -0.6563  0.6693 -0.2750
52485SOL    HW264314  11.488  11.167  10.065  0.3288 -0.8289 -0.8894
52486SOL     OW64315   6.250   1.381   8.075 -0.1846  0.4990 -0.0399
52486SOL    HW164316   6.265   1.290   8.101 -0.3246  0.0290 -1.5317
52486SOL    HW264317   6.217   1.423   8.155  0.8652 -0.4905  0.9586
52487SOL     OW64318   8.719   3.723   0.225  0.5161  0.1392 -0.5671
52487SOL    HW164319   8.781   3.779   0.178 -0.8533  1.1105 -1.3136
52487SOL    HW264320   8.636   3.736   0.178 -0.0217 -1.9670 -0.3020
52488SOL     OW64321  11.921   2.484   3.763 -0.0244 -0.1390  0.6614
52488SOL    HW164322  11.956   2.559   3.810 -1.3681 -0.3049  2.0017
52488SOL    HW264323  11.847   2.519   3.713  0.0276 -0.3679  0.4211
52489SOL     OW64324   8.447   9.052   2.976  0.0743 -0.2763  0.3479
52489SOL    HW164325   8.401   9.012   2.903 -1.4819  1.3418  0.3724
52489SOL    HW264326   8.537   9.061   2.946 -0.5835  0.5672 -1.4842
52490SOL     OW64327   9.713   6.188   4.083  0.0681  0.2344 -0.1851
52490SOL    HW164328   9.670   6.204   4.167 -0.0362 -0.2385 -0.1424
52490SOL    HW264329   9.795   6.144   4.105  0.1534  0.3277 -0.3148
52491SOL     OW64330  12.357   4.919   3.294  0.3204  0.6388  0.2416
52491SOL    HW164331  12.326   4.926   3.384  2.2100 -1.0065  1.0853
52491SOL    HW264332  12.310   4.843   3.259  0.1253  0.8402  0.0626
52492SOL     OW64333   2.825   2.518   8.448 -0.7801  0.2695  0.1928
52492SOL    HW164334   2.773   2.526   8.528 -0.5394  1.8944  0.2210
52492SOL    HW264335   2.910   2.555   8.471 -1.1155  2.0450 -1.1351
52493SOL     OW64336   1.376   3.864  11.156 -0.4079  0.4320 -0.5798
52493SOL    HW164337   1.433   3.941  11.153  0.0637  0.2018  1.3369
52493SOL    HW264338   1.422   3.798  11.105  1.7124 -0.1330  1.9109
52494SOL     OW64339   2.549   4.921   0.211 -0.4564 -0.1842 -0.0314
52494SOL    HW164340   2.606   4.993   0.237  0.7238 -1.6795  1.8146
52494SOL    HW264341   2.475   4.925   0.271 -0.3730 -0.5011  0.0986
52495SOL     OW64342   4.515   1.037  11.200  0.3998 -0.0922  0.4226
52495SOL    HW164343   4.574   0.962  11.188 -0.8913 -0.9110 -1.2885
52495SOL    HW264344   4.568   1.113  11.177  0.7910 -0.8326 -1.3233
52496SOL     OW64345   2.323   2.853   9.536 -0.0356 -0.0930  0.2286
52496SOL    HW164346   2.281   2.878   9.453  0.2807  5.1134  1.3074
52496SOL    HW264347   2.260   2.878   9.603  1.6841  0.5655  1.6608
52497SOL     OW64348   6.934   8.172   9.484  0.4438  0.4093 -0.4206
52497SOL    HW164349   6.918   8.262   9.511  1.5272  0.8945 -1.3139
52497SOL    HW264350   7.025   8.171   9.454  0.4212 -0.9562 -0.5314
52498SOL     OW64351  11.592   0.187   0.932  0.3400 -0.4911  0.3350
52498SOL    HW164352  11.561   0.138   0.856 -0.5913 -0.4862  0.6954
52498SOL    HW264353  11.665   0.136   0.965  0.2783 -0.8881 -0.1261
52499SOL     OW64354  11.710   5.180   8.871 -0.5951  0.3833 -0.0535
52499SOL    HW164355  11.731   5.267   8.837 -1.7451  0.1132 -1.5718
52499SOL    HW264356  11.614   5.181   8.879 -0.6180 -0.7511 -0.1179
52500SOL     OW64357   8.898   5.978  10.159  0.0006 -0.6840 -0.3777
52500SOL    HW164358   8.807   5.958  10.139 -0.0531 -0.8126 -0.0012
52500SOL    HW264359   8.911   6.066  10.123 -0.3655 -0.5292 -0.1327
52501SOL     OW64360   8.888   5.815   8.133 -0.2546 -0.4099  0.2444
52501SOL    HW164361   8.946   5.831   8.059 -1.0592 -0.9839 -0.5204
52501SOL    HW264362   8.828   5.890   8.133 -0.4468 -0.5641  0.1332
52502SOL     OW64363   3.744   2.709  11.585  0.2945  0.1195 -0.1823
52502SOL    HW164364   3.720   2.655  11.509  0.3510 -0.0776 -0.0619
52502SOL    HW264365   3.772   2.646  11.651  1.4236  0.3591 -0.4187
52503SOL     OW64366   3.365   2.955   2.619 -0.0267  0.1875 -0.2593
52503SOL    HW164367   3.430   3.022   2.597 -0.4609  0.4365 -0.8191
52503SOL    HW264368   3.417   2.880   2.647  0.4707  0.6793  0.1529
52504SOL     OW64369   4.707   2.730  12.134  0.2618  0.0285  0.4225
52504SOL    HW164370   4.667   2.648  12.161 -0.7524  0.8122  1.3755
52504SOL    HW264371   4.637   2.794  12.137  0.9983  0.9262 -0.4518
52505SOL     OW64372   1.693   9.570  11.440 -0.4309 -0.4390  0.0088
52505SOL    HW164373   1.643   9.641  11.399 -1.2747 -0.5327  0.8320
52505SOL    HW264374   1.705   9.506  11.370 -2.4104 -0.8885  0.0027
52506SOL     OW64375   8.931   4.079   6.632  0.2604 -0.7716  0.1509
52506SOL    HW164376   8.888   4.052   6.551  2.6169  0.4008 -1.6061
52506SOL    HW264377   9.024   4.062   6.617  0.8732  0.3190  2.2695
52507SOL     OW64378   2.794  12.251   7.447  0.1296  0.2311  0.0218
52507SOL    HW164379   2.878  12.206   7.457  1.2785  1.8527 -1.6670
52507SOL    HW264380   2.750  12.204   7.376  0.4679  0.5373 -0.3974
52508SOL     OW64381   3.246   8.708   6.110  0.7031  0.2690 -0.3945
52508SOL    HW164382   3.301   8.634   6.085 -1.4308 -1.2976 -0.8404
52508SOL    HW264383   3.232   8.756   6.028  1.2735  0.5783 -0.3112
52509SOL     OW64384  10.164   8.796   9.163  0.4958 -0.4369  0.2901
52509SOL    HW164385  10.168   8.731   9.233  0.7431 -0.1820  0.5134
52509SOL    HW264386  10.076   8.787   9.127  0.9861 -1.9149 -0.6537
52510SOL     OW64387   0.920   7.610   1.406 -0.4734 -0.0708 -0.1345
52510SOL    HW164388   0.990   7.607   1.340  1.0435 -1.5661  1.4479
52510SOL    HW264389   0.875   7.526   1.396  0.8212 -1.0662  1.7190
52511SOL     OW64390   3.185   7.503   7.243 -0.4179  0.1383  0.6700
52511SOL    HW164391   3.202   7.537   7.156 -0.0760 -1.6595 -0.0185
52511SOL    HW264392   3.094   7.473   7.240 -0.2806 -0.2991  0.7840
52512SOL     OW64393   4.215   5.787   8.825 -0.6679  0.4879 -0.2854
52512SOL    HW164394   4.140   5.804   8.768  0.0714  2.0681 -0.8503
52512SOL    HW264395   4.283   5.755   8.767 -0.8235 -0.8076  0.2054
52513SOL     OW64396   4.317   5.744   3.816 -0.4020 -0.3269 -0.0717
52513SOL    HW164397   4.359   5.797   3.884 -0.6323  1.9314 -1.5622
52513SOL    HW264398   4.353   5.656   3.828 -0.3493 -0.0033  2.8421
52514SOL     OW64399   1.097  11.714  10.771 -0.5906  0.2545  0.1133
52514SOL    HW164400   1.106  11.621  10.751 -2.1387 -0.4342  2.2416
52514SOL    HW264401   1.092  11.756  10.685 -0.4878 -1.6684 -0.9082
52515SOL     OW64402   3.794   1.322  11.287  0.0586  0.0191 -0.1092
52515SOL    HW164403   3.746   1.262  11.231 -0.3344 -0.5409  0.8110
52515SOL    HW264404   3.880   1.329  11.246 -0.2089 -0.4044 -0.7602
52516SOL     OW64405   4.512   6.969  10.341  1.0694 -0.3044 -0.0817
52516SOL    HW164406   4.517   6.874  10.342  1.0316 -0.3259 -0.9403
52516SOL    HW264407   4.577   6.998  10.406  0.6970 -0.9153  0.5719
52517SOL     OW64408   1.182  10.420   4.577  0.8280  0.0367  0.2164
52517SOL    HW164409   1.255  10.404   4.637 -0.4969 -1.7174  1.4725
52517SOL    HW264410   1.121  10.472   4.628  1.0911  1.3812 -0.7874
52518SOL     OW64411  10.003   1.664   5.849  0.5562 -0.2941  0.0989
52518SOL    HW164412  10.016   1.680   5.943 -1.2568  2.6997 -0.0359
52518SOL    HW264413   9.915   1.627   5.843 -0.2614  1.6263 -0.4913
52519SOL     OW64414  10.476   8.251   2.949  0.1961  0.3057  0.1894
52519SOL    HW164415  10.409   8.184   2.936 -0.9070  1.4953 -0.5627
52519SOL    HW264416  10.545   8.229   2.886 -0.4863  0.2616 -0.5667
52520SOL     OW64417   7.197  10.794   6.889 -0.7064  0.0276 -0.0953
52520SOL    HW164418   7.288  10.780   6.915 -0.1123  0.5285 -1.7412
52520SOL    HW264419   7.187  10.742   6.809 -2.5839 -1.8758  1.2995
52521SOL     OW64420  10.341   8.024   6.089 -0.3320  0.4464 -0.1910
52521SOL    HW164421  10.311   7.957   6.028 -1.1157  0.5530  0.0657
52521SOL    HW264422  10.310   7.995   6.174  0.5610  0.4144  0.1365
52522SOL     OW64423  12.158   5.222   1.603  0.2497  0.3101  0.3967
52522SOL    HW164424  12.180   5.288   1.668  0.2581 -0.7046  1.4665
52522SOL    HW264425  12.240   5.173   1.590  0.6017  1.2809 -1.3585
52523SOL     OW64426  11.828   8.121   2.110  0.7753 -0.2400  0.5615
52523SOL    HW164427  11.918   8.093   2.127  0.2065 -2.5716  0.0722
52523SOL    HW264428  11.779   8.091   2.186 -0.2486 -2.7989 -0.9865
52524SOL     OW64429   2.816   3.436   7.705 -0.0488 -0.2744 -0.3617
52524SOL    HW164430   2.794   3.495   7.633  1.2287  1.3685  0.5254
52524SOL    HW264431   2.752   3.456   7.773  0.2563 -0.0175 -0.1414
52525SOL     OW64432   1.089   2.270   2.637  0.2099 -0.5788 -0.4556
52525SOL    HW164433   1.161   2.281   2.699  0.7503 -2.4325 -0.7017
52525SOL    HW264434   1.087   2.176   2.619 -2.0716 -0.5380 -0.7050
52526SOL     OW64435   9.527   3.140   9.727  0.0901 -0.5006  0.1366
52526SOL    HW164436   9.609   3.119   9.683  0.0089 -0.1569 -0.1853
52526SOL    HW264437   9.469   3.066   9.706 -0.3741  0.2779 -1.4605
52527SOL     OW64438   7.225   1.215   6.302  0.0157  0.7870 -0.7619
52527SOL    HW164439   7.140   1.258   6.292 -0.6058 -0.3682 -0.6638
52527SOL    HW264440   7.241   1.172   6.218  0.8431  1.5622 -1.0162
52528SOL     OW64441   2.623   4.802   0.501 -0.2906 -0.3380  0.3527
52528SOL    HW164442   2.606   4.891   0.471  0.4530 -0.6785 -1.1975
52528SOL    HW264443   2.537   4.767   0.524 -0.4290  1.3395  2.8271
52529SOL     OW64444  12.283   4.558   6.527 -0.1107  0.5370  0.0739
52529SOL    HW164445  12.335   4.527   6.453 -0.7124  1.0319 -0.5685
52529SOL    HW264446  12.331   4.528   6.604  1.8736  2.1338 -0.4603
52530SOL     OW64447   9.043   0.690   2.100 -0.0254 -0.1734  0.2885
52530SOL    HW164448   9.064   0.646   2.018  0.4651 -0.3698  0.5170
52530SOL    HW264449   9.112   0.755   2.112 -0.3633  0.1888  0.3032
52531SOL     OW64450  10.483   4.112   0.359  0.2522 -0.2929 -0.2894
52531SOL    HW164451  10.437   4.039   0.316  2.1432 -0.7598 -1.6599
52531SOL    HW264452  10.454   4.190   0.312 -0.7721 -0.3157  0.2950
52532SOL     OW64453   7.338   7.320   6.549  0.2993  0.0928  0.1446
52532SOL    HW164454   7.414   7.311   6.492 -1.8196  1.4080 -3.1185
52532SOL    HW264455   7.335   7.413   6.572 -0.5669  0.1598 -0.1875
52533SOL     OW64456   7.211  10.390   5.095 -0.3459 -0.0494  0.3835
52533SOL    HW164457   7.248  10.361   5.178 -0.0891 -1.2501 -0.1204
52533SOL    HW264458   7.266  10.349   5.028 -1.0572  0.1877 -0.3742
52534SOL     OW64459   9.998   9.263   4.034 -0.0127 -0.4983 -0.1061
52534SOL    HW164460  10.071   9.266   4.096 -1.2390  1.5663  1.3915
52534SOL    HW264461  10.039   9.266   3.948  1.7061  1.1598  0.6948
52535SOL     OW64462   5.000   2.915   3.680  0.4144  0.1808  0.3527
52535SOL    HW164463   4.944   2.911   3.758  1.7195  1.4128  1.4301
52535SOL    HW264464   5.073   2.856   3.700  1.1187  1.0454  0.4201
52536SOL     OW64465  11.158   4.448   4.713  0.3776  0.2997 -0.0624
52536SOL    HW164466  11.187   4.381   4.651 -0.0779  1.1989 -1.2814
52536SOL    HW264467  11.211   4.524   4.692 -0.0460  0.7304  0.4031
52537SOL     OW64468   8.945   3.166   2.841  0.2415 -0.4479  0.1120
52537SOL    HW164469   8.928   3.251   2.799 -2.2829 -0.7199  0.3981
52537SOL    HW264470   8.937   3.184   2.935  0.2329 -0.8860  0.1982
52538SOL     OW64471   3.861   6.522   9.304  0.0333 -0.1620  0.1191
52538SOL    HW164472   3.839   6.608   9.268  1.9282 -0.1463 -1.1329
52538SOL    HW264473   3.780   6.472   9.296 -0.1127  0.3743 -2.6936
52539SOL     OW64474   1.908   8.927  10.242  0.4037 -0.1257 -0.6044
52539SOL    HW164475   1.844   8.858  10.221  0.8526 -0.7882  0.1200
52539SOL    HW264476   1.993   8.885  10.228  0.6847  0.2179  0.0219
52540SOL     OW64477   0.964  12.283   4.103 -0.1885 -0.4502  0.4608
52540SOL    HW164478   0.898  12.231   4.058 -0.5066 -0.6682  1.1650
52540SOL    HW264479   1.032  12.220   4.126  0.6752 -0.0798 -0.9976
52541SOL     OW64480   1.256   5.643   1.341 -0.1433 -0.2822 -0.0126
52541SOL    HW164481   1.294   5.718   1.387  1.5948 -1.6458  0.8940
52541SOL    HW264482   1.253   5.573   1.406 -2.4217 -0.8415 -0.6339
52542SOL     OW64483   2.427   1.864   5.637  0.3194 -0.2462  0.3571
52542SOL    HW164484   2.410   1.951   5.600  0.8241 -0.6022 -0.7740
52542SOL    HW264485   2.466   1.815   5.564 -1.0834 -1.7976  0.5953
52543SOL     OW64486   4.624   5.124  11.194 -0.1754 -0.2968 -0.5903
52543SOL    HW164487   4.692   5.098  11.132  0.7552 -0.8611  0.6154
52543SOL    HW264488   4.600   5.213  11.168 -0.3028 -0.7573 -2.1458
52544SOL     OW64489   0.983   7.986  12.428 -0.7159  0.3075  0.4855
52544SOL    HW164490   1.070   7.998  12.465 -0.4523  0.3566 -0.1484
52544SOL    HW264491   0.927   7.967  12.504 -0.3644  1.3504  1.0121
52545SOL     OW64492   6.549   8.924  10.587  0.0114 -0.8908 -0.3529
52545SOL    HW164493   6.614   8.855  10.572  0.9591  0.3019 -2.0081
52545SOL    HW264494   6.471   8.876  10.614  1.0390 -2.5089 -0.0641
52546SOL     OW64495   2.490   1.462  11.794 -0.0785  0.4004  0.0424
52546SOL    HW164496   2.402   1.442  11.764 -1.4861  0.1414  3.8690
52546SOL    HW264497   2.541   1.383  11.776 -1.3422 -0.4683  0.1731
52547SOL     OW64498  11.010   1.261   5.686  0.0492  0.3255  0.0766
52547SOL    HW164499  11.058   1.320   5.628 -0.3427  2.9640  2.2398
52547SOL    HW264500  10.927   1.244   5.641  0.5188  0.7125 -0.9563
52548SOL     OW64501   3.451  12.051  12.526 -0.0005 -0.2284 -0.1073
52548SOL    HW164502   3.463  12.084  12.615  0.0414 -1.5652  0.4080
52548SOL    HW264503   3.443  11.956  12.537 -0.2621 -0.3834 -1.5067
52549SOL     OW64504   4.426  11.363   6.981  0.1286  0.0905  0.0927
52549SOL    HW164505   4.339  11.351   6.943 -0.7859  1.9224  1.4278
52549SOL    HW264506   4.450  11.276   7.013 -1.3186 -0.4140 -0.0914
52550SOL     OW64507   5.507   8.262   0.333  0.3827  0.1280 -0.3231
52550SOL    HW164508   5.591   8.230   0.302  0.4456  1.1006 -1.2113
52550SOL    HW264509   5.520   8.277   0.427  0.8992 -0.6157 -0.2692
52551SOL     OW64510   8.780   1.478   7.695 -0.1079 -0.3166  0.3269
52551SOL    HW164511   8.856   1.421   7.712  0.7193  0.6151 -0.1278
52551SOL    HW264512   8.720   1.459   7.767  0.8779 -0.5619  1.1170
52552SOL     OW64513  10.864   4.898   1.686 -0.6127  1.4997 -0.7829
52552SOL    HW164514  10.816   4.979   1.707 -0.7062  1.4041 -0.6180
52552SOL    HW264515  10.799   4.829   1.698 -0.0309  1.2114  1.0409
52553SOL     OW64516   5.797  11.937  10.386 -0.1472  0.1866  0.0477
52553SOL    HW164517   5.836  12.017  10.419  0.5913 -1.1033  2.5398
52553SOL    HW264518   5.832  11.928  10.297 -0.0202  2.4214 -0.1789
52554SOL     OW64519   0.014   0.168  12.222 -0.0877 -0.8352 -0.5462
52554SOL    HW164520  -0.058   0.137  12.166 -0.1092 -1.2328 -0.3045
52554SOL    HW264521  -0.008   0.134  12.309  0.0728 -0.4281 -0.3473
52555SOL     OW64522   9.915   0.563   4.670  0.4171 -0.0458  0.2885
52555SOL    HW164523   9.887   0.601   4.587 -2.7820 -0.0593  1.2103
52555SOL    HW264524   9.853   0.598   4.734  1.8363 -1.2066  2.4318
52556SOL     OW64525   9.923   9.137   4.402 -0.2841 -0.3031 -0.2779
52556SOL    HW164526   9.986   9.093   4.345 -0.9713 -3.4175  1.1451
52556SOL    HW264527   9.933   9.094   4.487 -2.4647  0.9690  0.7046
52557SOL     OW64528   3.438   3.192   6.854 -0.0899  0.2825  0.1172
52557SOL    HW164529   3.459   3.277   6.816 -0.2055  0.0434 -0.4974
52557SOL    HW264530   3.523   3.155   6.879 -0.0613  0.6860  0.6335
52558SOL     OW64531   4.455   3.681   8.562  0.1035  0.1243 -0.9079
52558SOL    HW164532   4.411   3.755   8.520 -0.3468 -0.6698 -1.8646
52558SOL    HW264533   4.418   3.679   8.650 -0.3770  0.6291 -1.0898
52559SOL     OW64534   4.318  10.153   6.583  0.1911  0.2924  0.1089
52559SOL    HW164535   4.283  10.084   6.527  0.7078  1.0848 -1.2292
52559SOL    HW264536   4.389  10.192   6.532  1.3756  0.3702  1.7418
52560SOL     OW64537   2.181   7.956   5.827  0.0769  0.0549  0.8092
52560SOL    HW164538   2.264   7.914   5.849 -0.5489 -1.1599  0.9521
52560SOL    HW264539   2.204   8.047   5.809  1.4974 -0.3449  0.4510
52561SOL     OW64540   7.126   7.036   3.827  0.4482 -0.1044  0.0966
52561SOL    HW164541   7.191   7.031   3.898  0.6841 -1.9769 -0.1901
52561SOL    HW264542   7.045   7.004   3.867  0.0710  0.7278  0.0231
52562SOL     OW64543   0.518   5.867   2.571  0.5723  0.1650 -0.0898
52562SOL    HW164544   0.580   5.928   2.531 -0.1081  0.5021 -0.6574
52562SOL    HW264545   0.463   5.838   2.498  0.9246 -1.1958  0.1552
52563SOL     OW64546   6.833  10.893  11.525 -0.4387 -0.2507 -0.0236
52563SOL    HW164547   6.754  10.839  11.533  1.4181 -3.9871 -3.4282
52563SOL    HW264548   6.897  10.850  11.581 -0.0174  1.1114  0.5833
52564SOL     OW64549   0.024   9.163  10.898  0.1725  0.1141  0.5662
52564SOL    HW164550   0.112   9.198  10.909 -0.2102  1.0879  0.5918
52564SOL    HW264551   0.014   9.101  10.971  0.2971  1.1345  1.4825
52565SOL     OW64552   8.710   8.744  12.166  0.1653 -0.7537  0.1199
52565SOL    HW164553   8.630   8.693  12.158  0.0796 -0.8187  1.2467
52565SOL    HW264554   8.688   8.830  12.131 -0.4817 -0.6896  0.6738
52566SOL     OW64555  12.349  12.206   3.661 -0.1199 -0.2524 -0.0981
52566SOL    HW164556  12.333  12.168   3.747  1.3886  0.9752  0.7544
52566SOL    HW264557  12.382  12.133   3.608  0.2804 -0.7015  0.7631
52567SOL     OW64558   3.168   4.121   1.552  0.1712 -0.0076  1.0002
52567SOL    HW164559   3.198   4.127   1.643  0.7663  0.4592  0.7798
52567SOL    HW264560   3.081   4.162   1.553  0.0404 -0.2885  1.4181
52568SOL     OW64561   1.113   2.132   1.309  0.1034 -0.5094 -0.6055
52568SOL    HW164562   1.123   2.203   1.373  0.0462 -1.7717  0.8705
52568SOL    HW264563   1.200   2.095   1.300  0.1123 -0.3395 -1.2856
52569SOL     OW64564   1.522   5.928   0.889 -0.0401 -0.4311 -0.1493
52569SOL    HW164565   1.523   5.921   0.794 -0.3186 -1.4088 -0.0890
52569SOL    HW264566   1.595   5.872   0.918 -1.3326 -1.9703  0.2893
52570SOL     OW64567   7.517   4.727  10.387  0.0079  0.2877  0.3943
52570SOL    HW164568   7.430   4.730  10.348  0.0521 -0.1925  0.2561
52570SOL    HW264569   7.523   4.807  10.439 -0.7770 -0.0241  0.9672
52571SOL     OW64570   2.166   5.993   7.251 -0.0536 -0.1380 -0.2727
52571SOL    HW164571   2.161   5.900   7.272  1.7800 -0.2984 -0.3746
52571SOL    HW264572   2.194   6.035   7.333  0.4089  0.1344 -0.5646
52572SOL     OW64573   2.842   8.649   4.204  0.0910 -0.1740 -0.2580
52572SOL    HW164574   2.875   8.725   4.252  2.1089 -1.6081  0.7884
52572SOL    HW264575   2.765   8.621   4.253  0.7098 -0.1668  0.7517
52573SOL     OW64576   0.116  10.344  10.258  0.1210 -0.0845 -0.1883
52573SOL    HW164577   0.052  10.329  10.188  0.2325  1.4924 -0.6720
52573SOL    HW264578   0.201  10.323  10.218  0.0913 -0.1875 -0.1983
52574SOL     OW64579   6.406  12.393   6.338  0.0404  0.1296  0.1100
52574SOL    HW164580   6.379  12.449   6.411  0.4196  1.2826 -0.5987
52574SOL    HW264581   6.468  12.331   6.377  1.2962  1.5984  0.5423
52575SOL     OW64582   2.240   6.756   8.602  0.7894 -0.1900 -0.2867
52575SOL    HW164583   2.295   6.707   8.664 -0.1659 -0.4133  0.4046
52575SOL    HW264584   2.217   6.836   8.649 -2.1438 -1.5304  0.7562
52576SOL     OW64585   0.255   2.392   0.581 -0.6785 -0.1489  0.3932
52576SOL    HW164586   0.186   2.364   0.641 -1.1414 -0.2465 -0.1743
52576SOL    HW264587   0.242   2.486   0.572 -0.2397 -0.0328  0.8970
52577SOL     OW64588   8.793   0.580   1.261 -0.0915  0.2393  0.1680
52577SOL    HW164589   8.774   0.618   1.175 -2.1021  2.0091  1.2796
52577SOL    HW264590   8.772   0.487   1.252 -1.4920  0.6287 -0.9552
52578SOL     OW64591   0.898   5.748   1.511 -0.1083 -0.2203 -0.0902
52578SOL    HW164592   0.845   5.726   1.588  0.3690 -0.2188  0.2475
52578SOL    HW264593   0.846   5.813   1.463  0.4485  1.3351  1.3021
52579SOL     OW64594   7.050   6.800   6.630  0.5225  0.7209 -0.1200
52579SOL    HW164595   7.023   6.745   6.703  0.5269  0.0102 -0.6460
52579SOL    HW264596   7.023   6.889   6.656  0.8690  0.5365  0.9016
52580SOL     OW64597   6.021   5.506   2.922  0.0561 -0.4823 -0.5344
52580SOL    HW164598   6.035   5.601   2.922 -0.2172 -0.4257  0.6350
52580SOL    HW264599   6.080   5.473   2.990 -0.4206 -1.0558 -0.3913
52581SOL     OW64600   2.630   4.031  10.277  0.4156  0.4178  0.4786
52581SOL    HW164601   2.616   3.989  10.362  0.1241 -0.6751 -0.0943
52581SOL    HW264602   2.663   3.961  10.221 -0.7409  0.7766 -0.6960
52582SOL     OW64603   9.477  10.128  10.691  0.0412 -0.1472 -0.3735
52582SOL    HW164604   9.489  10.054  10.633 -1.6322 -1.2343  0.5622
52582SOL    HW264605   9.393  10.111  10.735  0.4502  1.4187  1.1566
52583SOL     OW64606  12.517   8.528   4.591  0.0791 -0.0721 -0.1813
52583SOL    HW164607  12.565   8.597   4.637 -1.1707  0.7899 -0.1393
52583SOL    HW264608  12.449   8.501   4.652 -0.1993 -0.4862 -0.6698
52584SOL     OW64609  10.125   7.377   6.310  0.1534  1.1300 -0.7736
52584SOL    HW164610  10.219   7.390   6.320  0.3554  1.4141 -2.7366
52584SOL    HW264611  10.086   7.457   6.344  0.4951  0.5147  1.2205
52585SOL     OW64612   4.099   5.171   3.453 -0.1966 -0.2560  0.6594
52585SOL    HW164613   4.005   5.154   3.454 -0.1266 -0.7703 -0.1951
52585SOL    HW264614   4.107   5.263   3.430 -0.4751 -0.7914 -1.9003
52586SOL     OW64615   6.351   3.609  12.164 -0.1949 -0.1773 -0.8290
52586SOL    HW164616   6.419   3.577  12.223  1.2901  0.1773 -2.2895
52586SOL    HW264617   6.271   3.610  12.217  0.2190 -3.6254  0.1151
52587SOL     OW64618   2.985   7.521  10.840  0.7644 -0.0638  0.4931
52587SOL    HW164619   2.949   7.432  10.845  3.2613 -1.0926  1.4322
52587SOL    HW264620   2.971   7.558  10.927 -1.8190  1.2155 -0.3498
52588SOL     OW64621   6.008   9.570   6.199 -0.2090  0.9236 -0.1453
52588SOL    HW164622   6.005   9.498   6.137  1.6758  0.4625  0.2193
52588SOL    HW264623   6.081   9.625   6.169  1.5150  0.0960  2.1658
52589SOL     OW64624   4.890   7.643  10.135  0.3090 -0.5121  0.0594
52589SOL    HW164625   4.971   7.622  10.088  0.5020 -1.2536  0.6891
52589SOL    HW264626   4.888   7.580  10.207  0.1086  0.6655  1.1349
52590SOL     OW64627   8.922   2.634   7.054  0.6038 -0.2890 -0.0129
52590SOL    HW164628   8.831   2.660   7.068  0.6363  0.0139 -0.3622
52590SOL    HW264629   8.917   2.559   6.995  0.2911 -3.2162  3.3559
52591SOL     OW64630   0.294   7.774   6.592  0.3702 -0.0934 -0.0507
52591SOL    HW164631   0.308   7.739   6.504  1.6976  0.3690 -0.0406
52591SOL    HW264632   0.221   7.723   6.627 -0.5267  0.0692 -1.6057
52592SOL     OW64633  11.539   0.441   3.854 -0.3117  0.4525 -1.3116
52592SOL    HW164634  11.549   0.416   3.762  0.5949 -1.8174 -0.6498
52592SOL    HW264635  11.625   0.426   3.892 -1.1295 -0.4064  0.2980
52593SOL     OW64636   2.585   3.817  11.066 -0.3302 -0.2779  0.3347
52593SOL    HW164637   2.598   3.864  10.984  1.1917 -1.1881  0.0053
52593SOL    HW264638   2.652   3.851  11.125  0.6865 -1.8653  0.1432
52594SOL     OW64639   3.840   3.414   7.203 -0.5637 -0.0258  0.0906
52594SOL    HW164640   3.854   3.322   7.182  2.4987 -0.4676  3.2228
52594SOL    HW264641   3.879   3.462   7.129  4.3924 -1.4218  1.4233
52595SOL     OW64642   7.417   3.777   2.590 -0.1106 -0.2525 -0.0517
52595SOL    HW164643   7.383   3.782   2.680  1.2087 -2.0170  0.6188
52595SOL    HW264644   7.512   3.766   2.602 -0.0601 -1.9498 -1.5728
52596SOL     OW64645   4.317   7.483   5.049  0.0840 -0.2933  0.5463
52596SOL    HW164646   4.291   7.530   5.128  2.1390 -1.8025  2.2002
52596SOL    HW264647   4.273   7.398   5.055  0.0009 -0.3100 -0.1291
52597SOL     OW64648   9.425   9.181   6.278  0.1695 -0.4670 -0.0338
52597SOL    HW164649   9.456   9.110   6.223  0.1404 -0.9260  0.5318
52597SOL    HW264650   9.339   9.203   6.242  0.6112 -0.0223 -0.8373
52598SOL     OW64651   7.756   9.035   3.210 -0.4278  0.3048  0.8327
52598SOL    HW164652   7.738   9.082   3.291  0.5363  1.2568  0.5194
52598SOL    HW264653   7.697   9.075   3.146  1.5499  2.3410  0.1695
52599SOL     OW64654   1.168   4.810   0.180  0.1392 -0.1326  1.0347
52599SOL    HW164655   1.106   4.738   0.174  1.4012 -1.1233 -1.5029
52599SOL    HW264656   1.114   4.887   0.200 -1.9831 -0.9002 -1.3014
52600SOL     OW64657   3.893   7.685   3.045 -0.1234  0.0621 -0.1793
52600SOL    HW164658   3.891   7.704   2.951 -0.8597  1.1084  0.0232
52600SOL    HW264659   3.817   7.629   3.059 -0.5376  0.6434 -0.0724
52601SOL     OW64660   1.031   0.900   4.865  0.1882 -0.2844  0.3138
52601SOL    HW164661   1.000   0.982   4.903  1.4776  0.1185  0.5307
52601SOL    HW264662   1.011   0.908   4.772  0.6444  0.4344  0.2735
52602SOL     OW64663   2.572   9.471   4.083  0.3824 -0.6579  0.0196
52602SOL    HW164664   2.654   9.478   4.131  1.8570  2.6807 -2.6175
52602SOL    HW264665   2.505   9.488   4.149  1.8571 -1.7306  1.8959
52603SOL     OW64666   1.377   4.311   5.617 -0.0036 -0.1274  0.3340
52603SOL    HW164667   1.442   4.333   5.550  0.0838 -0.5520  0.2802
52603SOL    HW264668   1.314   4.383   5.613 -0.0752 -0.2196 -0.3015
52604SOL     OW64669   5.947   0.870   2.389  0.1959  0.1911 -0.2047
52604SOL    HW164670   5.942   0.894   2.481 -1.0398  0.3462 -0.2960
52604SOL    HW264671   5.864   0.901   2.351  0.2037 -0.8496 -1.1363
52605SOL     OW64672   2.396   7.051  12.033 -0.7878  0.1476 -0.2565
52605SOL    HW164673   2.305   7.027  12.018 -1.5955  2.4765  0.5169
52605SOL    HW264674   2.403   7.061  12.128 -0.0838  1.2714 -0.4110
52606SOL     OW64675  10.257   7.035  11.094  0.1905 -0.3725  0.2653
52606SOL    HW164676  10.235   6.984  11.016 -1.6583  1.9551 -0.8861
52606SOL    HW264677  10.350   7.056  11.085 -0.0374  0.0374 -1.4928
52607SOL     OW64678   6.624   9.940  11.943 -0.3131  0.3526 -0.0763
52607SOL    HW164679   6.702   9.896  11.911  0.4700 -0.7629  2.9636
52607SOL    HW264680   6.562   9.937  11.870  1.5776 -1.0674 -1.7128
52608SOL     OW64681   0.496   9.209  10.843 -0.3794 -0.2276 -0.4069
52608SOL    HW164682   0.464   9.232  10.756 -1.5036 -0.4774 -0.0634
52608SOL    HW264683   0.563   9.143  10.827 -1.4526 -1.1920 -1.0112
52609SOL     OW64684  11.562   8.242   4.139 -0.1731  0.0712 -0.4270
52609SOL    HW164685  11.589   8.310   4.078  0.7944 -0.4329 -0.5752
52609SOL    HW264686  11.631   8.240   4.205 -1.9978  1.7676  1.6866
52610SOL     OW64687   0.232   9.265  11.802  0.1602  0.5004  0.3657
52610SOL    HW164688   0.203   9.206  11.872  0.7746 -0.5711 -0.2390
52610SOL    HW264689   0.194   9.228  11.722  0.1446  1.2211  0.0352
52611SOL     OW64690  12.247   9.163   3.405  0.0773 -0.3003  0.2123
52611SOL    HW164691  12.252   9.163   3.500 -1.2071  0.2911  0.2923
52611SOL    HW264692  12.156   9.143   3.385  0.5721 -1.6053 -0.9340
52612SOL     OW64693   1.424   2.331   4.623  0.0684  0.1193  0.8740
52612SOL    HW164694   1.414   2.248   4.576  1.8794  0.9667 -1.2175
52612SOL    HW264695   1.462   2.307   4.708 -0.6399 -1.2608  0.8172
52613SOL     OW64696   8.318   3.585   6.448 -0.1070  0.6278  0.0921
52613SOL    HW164697   8.344   3.676   6.439 -0.7873  0.9273  0.9681
52613SOL    HW264698   8.401   3.537   6.451  0.2732  1.2681  0.1175
52614SOL     OW64699   5.680   0.916   2.299  0.0716  0.6396 -0.0248
52614SOL    HW164700   5.588   0.940   2.292  0.1088  0.9077  0.3476
52614SOL    HW264701   5.680   0.828   2.336 -0.0249  0.9187  0.6547
52615SOL     OW64702   3.867  12.116   8.750  0.3496 -0.1775  0.7596
52615SOL    HW164703   3.784  12.132   8.706  1.8469  3.3022 -1.2483
52615SOL    HW264704   3.874  12.021   8.754 -2.6783 -0.6030 -1.0226
52616SOL     OW64705   6.287   5.185  11.689  0.8798 -0.8832 -0.3604
52616SOL    HW164706   6.271   5.278  11.704  0.8804 -0.8030 -0.8456
52616SOL    HW264707   6.300   5.149  11.777 -2.3600 -1.0521  0.1728
52617SOL     OW64708   8.041   3.092   0.858  0.1963  1.2729 -0.1359
52617SOL    HW164709   8.008   3.015   0.811 -0.2610  1.1538  0.3648
52617SOL    HW264710   8.080   3.147   0.790  1.7028  0.0065 -0.3265
52618SOL     OW64711   6.414   5.825   5.935  0.5175  0.1722 -0.4691
52618SOL    HW164712   6.338   5.767   5.939  0.6708 -0.2003 -2.2225
52618SOL    HW264713   6.474   5.791   6.001  1.6717 -3.3166 -3.0483
52619SOL     OW64714   6.308   7.309   3.608  0.3336 -0.1588  0.9722
52619SOL    HW164715   6.220   7.313   3.645 -0.7309 -2.6921 -0.9918
52619SOL    HW264716   6.320   7.393   3.564 -2.0606 -0.5550 -0.6049
52620SOL     OW64717   6.340  12.114   0.209 -0.4046  0.0661  0.1142
52620SOL    HW164718   6.362  12.149   0.295  0.7597 -0.5076  0.0703
52620SOL    HW264719   6.420  12.126   0.157  0.1900 -2.8922  0.1912
52621SOL     OW64720   0.553   1.016   1.441 -0.2800  0.4661  0.1122
52621SOL    HW164721   0.498   1.084   1.482  1.3735  1.9709 -0.0205
52621SOL    HW264722   0.543   1.031   1.347 -0.2520  0.2392  0.0744
52622SOL     OW64723   8.158   6.677   4.490 -0.3978  0.8321  0.8199
52622SOL    HW164724   8.253   6.689   4.493 -0.5076  1.8209  0.4050
52622SOL    HW264725   8.145   6.611   4.421 -0.0098  0.5225  1.0342
52623SOL     OW64726   2.788   1.899   9.555  0.3984  0.0174 -0.4736
52623SOL    HW164727   2.781   1.995   9.552  0.7136  0.0125 -1.7410
52623SOL    HW264728   2.837   1.882   9.635 -0.0079  0.8874 -0.0145
52624SOL     OW64729  12.478   0.444  10.146  0.1701 -0.2343 -0.1103
52624SOL    HW164730  12.550   0.440  10.208  0.5749 -0.8153 -0.6119
52624SOL    HW264731  12.517   0.421  10.062 -0.4715  0.0691 -0.4981
52625SOL     OW64732   2.868  11.231   4.492  0.0195 -0.7150 -0.1407
52625SOL    HW164733   2.871  11.231   4.588  0.3733 -4.4592 -0.0012
52625SOL    HW264734   2.812  11.306   4.470 -0.5480 -0.0700  2.9754
52626SOL     OW64735   2.298   1.764   7.435 -0.3070 -0.2220 -0.2153
52626SOL    HW164736   2.351   1.839   7.463 -0.7985 -0.5883  1.8903
52626SOL    HW264737   2.360   1.692   7.431  0.3726  0.3814 -3.2135
52627SOL     OW64738   7.418   7.160   9.122  0.5464 -0.5824  0.3589
52627SOL    HW164739   7.416   7.068   9.151  1.0275 -0.5868  0.3937
52627SOL    HW264740   7.510   7.176   9.102  0.1983 -0.6343 -1.3768
52628SOL     OW64741   0.293  10.143   2.226 -0.4069  0.6760  0.3342
52628SOL    HW164742   0.266  10.165   2.137 -2.6128 -2.0851  0.1794
52628SOL    HW264743   0.302  10.228   2.270  1.7918  2.1926 -2.6806
52629SOL     OW64744   5.189   9.696   8.732 -0.2747  0.2323  0.2315
52629SOL    HW164745   5.262   9.636   8.743 -0.0257  0.5641  0.3991
52629SOL    HW264746   5.202   9.734   8.645  0.7367  1.5954  0.9462
52630SOL     OW64747  10.080   5.448  10.953  0.3969  0.0422 -0.1280
52630SOL    HW164748  10.144   5.505  10.911  2.6168 -2.6469 -0.6526
52630SOL    HW264749  10.021   5.422  10.882 -1.8648  2.9740  0.4589
52631SOL     OW64750   1.690  10.618   8.514 -0.6967 -0.0487 -0.0277
52631SOL    HW164751   1.699  10.587   8.604 -0.2161 -0.7372 -0.3001
52631SOL    HW264752   1.695  10.538   8.461  2.8957  0.5802 -0.9144
52632SOL     OW64753   8.411  10.002   7.782  0.1330  0.3430  0.0831
52632SOL    HW164754   8.360   9.926   7.751 -2.2850  1.4610  1.0332
52632SOL    HW264755   8.434   9.979   7.872  1.9367 -0.4138 -0.5338
52633SOL     OW64756   4.224   1.461   5.435 -0.7166 -0.3357  0.0989
52633SOL    HW164757   4.275   1.515   5.374 -0.6219  0.8123  1.1661
52633SOL    HW264758   4.237   1.501   5.520 -1.1029 -1.7327  0.8547
52634SOL     OW64759   2.621   4.428  12.335  0.0413 -0.0235  0.0193
52634SOL    HW164760   2.700   4.389  12.299 -0.5241 -0.4035 -0.8367
52634SOL    HW264761   2.561   4.434  12.261 -0.0968  1.9616  0.2298
52635SOL     OW64762  10.641   2.882  10.688 -0.0541  0.0348 -0.2326
52635SOL    HW164763  10.579   2.860  10.619  0.2579  1.8310 -1.1571
52635SOL    HW264764  10.590   2.932  10.751  0.0970  0.1491 -0.2002
52636SOL     OW64765   7.796   9.569   2.071 -0.0524  0.1677 -0.1258
52636SOL    HW164766   7.862   9.622   2.117  1.6227 -0.3762 -1.7648
52636SOL    HW264767   7.803   9.482   2.111  0.1038  0.1516 -0.1870
52637SOL     OW64768   8.145   3.006   6.919  0.4977 -0.2619 -0.3945
52637SOL    HW164769   8.076   3.005   6.986  0.9721  2.4338  0.2524
52637SOL    HW264770   8.100   2.983   6.838 -0.6415 -0.9746  0.4138
52638SOL     OW64771   6.756   8.764  11.762 -0.0083 -0.0113  0.0417
52638SOL    HW164772   6.794   8.728  11.842 -1.6894 -1.4987  0.2550
52638SOL    HW264773   6.824   8.819  11.725  1.4842 -0.7691  1.5261
52639SOL     OW64774   6.934   7.785   8.165  0.8496  0.6151  0.4565
52639SOL    HW164775   6.974   7.790   8.078  2.3889  1.7908  1.1912
52639SOL    HW264776   6.873   7.859   8.167  0.6762  0.4783  0.3301
52640SOL     OW64777  11.891   1.052  11.710  0.1593  0.2022  0.1914
52640SOL    HW164778  11.827   1.051  11.639 -0.6048  0.5048  0.8662
52640SOL    HW264779  11.953   0.984  11.686 -0.6951 -0.4547 -0.2134
52641SOL     OW64780   5.762   1.626   2.178  0.0145 -0.3313 -0.1899
52641SOL    HW164781   5.675   1.619   2.217  1.1260  0.3994  2.7511
52641SOL    HW264782   5.773   1.545   2.129 -1.9011 -0.9475  0.2973
52642SOL     OW64783   4.836   5.717  10.781  0.1591  0.1296  0.0326
52642SOL    HW164784   4.926   5.733  10.752  0.2504 -1.0773 -0.4165
52642SOL    HW264785   4.816   5.790  10.839  1.7295 -0.0378  0.8277
52643SOL     OW64786   0.545   8.007   8.605 -0.1121  0.1121  0.0782
52643SOL    HW164787   0.569   8.014   8.513  1.8592 -0.5772  0.4943
52643SOL    HW264788   0.623   8.037   8.652 -0.7500 -0.4237  1.5349
52644SOL     OW64789   7.968   5.037   6.324  0.1572 -0.4650 -0.3833
52644SOL    HW164790   8.047   5.057   6.375 -0.0617  0.7160 -0.4652
52644SOL    HW264791   7.954   5.115   6.270 -0.5614 -1.0206 -1.0337
52645SOL     OW64792   2.244   5.618   6.613  0.3062  0.8063 -0.5484
52645SOL    HW164793   2.332   5.603   6.647  0.4650  1.5845 -0.5934
52645SOL    HW264794   2.186   5.597   6.686  0.5058 -0.0172 -0.6185
52646SOL     OW64795   3.518   7.519   5.295  0.3177  0.7136 -0.2962
52646SOL    HW164796   3.608   7.529   5.265 -0.1303 -1.6841 -2.8275
52646SOL    HW264797   3.526   7.472   5.378  1.4108 -0.1588 -0.8654
52647SOL     OW64798   5.160  10.064   0.327  0.1137 -0.1943  0.8862
52647SOL    HW164799   5.217  10.057   0.404  0.4038 -1.2378  0.5850
52647SOL    HW264800   5.079  10.102   0.361  0.7840  0.8097  1.4177
52648SOL     OW64801  10.140   0.889   2.969  0.1374  0.0278 -0.2815
52648SOL    HW164802  10.220   0.917   3.012  0.2756  0.7321 -0.9571
52648SOL    HW264803  10.070   0.917   3.028  0.3370  0.6469 -0.3283
52649SOL     OW64804   6.903   7.355   9.852 -0.1710  0.2446  0.1099
52649SOL    HW164805   6.891   7.272   9.806 -2.0937  0.4198  0.2412
52649SOL    HW264806   6.956   7.409   9.793  1.8449 -1.3108  0.3733
52650SOL     OW64807   3.488   8.643   0.198 -0.0124  0.3316  0.1573
52650SOL    HW164808   3.478   8.550   0.218  0.3910 -0.1877 -1.8383
52650SOL    HW264809   3.568   8.649   0.147  0.1029  1.8236  0.4522
52651SOL     OW64810   3.474   2.564   0.799  0.1366 -0.2798  0.2273
52651SOL    HW164811   3.554   2.600   0.761  1.1384  1.3120  3.4457
52651SOL    HW264812   3.504   2.516   0.876 -1.8052 -2.4456 -0.2756
52652SOL     OW64813  10.070  10.228   6.230 -0.0517 -0.3378 -0.2218
52652SOL    HW164814  10.004  10.205   6.164 -0.4540 -0.6332  0.2776
52652SOL    HW264815  10.031  10.202   6.313  1.7920 -3.0540 -0.0937
52653SOL     OW64816   3.632   7.210   4.965  0.4265 -0.3148 -0.1267
52653SOL    HW164817   3.566   7.278   4.980  2.8024  2.1197 -0.0711
52653SOL    HW264818   3.634   7.160   5.046 -2.1164 -1.2811 -0.5512
52654SOL     OW64819   0.180   9.735   9.422  0.4970  0.2128  0.1854
52654SOL    HW164820   0.093   9.776   9.415  1.0139  1.4068  0.5272
52654SOL    HW264821   0.189   9.685   9.341 -0.7877 -0.5194  0.4527
52655SOL     OW64822  11.708  11.921  11.599  0.0902  0.2396 -0.2196
52655SOL    HW164823  11.802  11.903  11.594  0.0795  0.0738  0.1646
52655SOL    HW264824  11.702  12.012  11.627  0.1481 -0.4727  2.3132
52656SOL     OW64825  10.274   6.044   3.732 -0.3212 -0.0253 -0.1376
52656SOL    HW164826  10.286   6.094   3.812 -0.0883 -0.0405 -0.1627
52656SOL    HW264827  10.215   6.098   3.678 -0.0145  0.2539 -0.1930
52657SOL     OW64828  12.372   3.117   4.899 -0.0320  0.2432 -0.3145
52657SOL    HW164829  12.307   3.093   4.832  0.2398 -0.1246 -0.4512
52657SOL    HW264830  12.419   3.191   4.861  0.6000 -0.4118 -0.8572
52658SOL     OW64831   8.974   9.643   0.090  0.2722 -0.3247  0.2358
52658SOL    HW164832   8.961   9.681   0.003  1.4126 -0.1201  0.1359
52658SOL    HW264833   9.069   9.642   0.101  0.1421  1.3182  2.2002
52659SOL     OW64834   3.566  10.402  11.710  0.1826 -0.2493  0.2830
52659SOL    HW164835   3.567  10.351  11.791 -0.5013  0.2341  0.5988
52659SOL    HW264836   3.658  10.407  11.684  0.3668 -0.7227  0.8272
52660SOL     OW64837   5.069   6.483   6.783 -0.3156 -0.4542  0.0061
52660SOL    HW164838   5.093   6.422   6.853  1.5961  0.1033 -0.1122
52660SOL    HW264839   4.999   6.438   6.736 -0.0480 -1.8569  0.8739
52661SOL     OW64840   1.513   9.807   7.005 -0.1036  0.3703  0.2447
52661SOL    HW164841   1.546   9.839   6.921 -1.5102  1.8689  0.1913
52661SOL    HW264842   1.578   9.834   7.069  0.2947  0.4697 -0.1980
52662SOL     OW64843  10.253  10.887  11.959 -0.6672  0.1437  0.1798
52662SOL    HW164844  10.181  10.896  12.022  0.3950  1.5476  1.2590
52662SOL    HW264845  10.220  10.928  11.879 -0.8790  1.3391  0.8508
52663SOL     OW64846   6.875   6.470  11.340 -0.4529  0.1583 -0.6832
52663SOL    HW164847   6.829   6.505  11.416  0.5162  0.6751 -0.3315
52663SOL    HW264848   6.960   6.442  11.373 -0.6165 -1.0974 -1.2678
52664SOL     OW64849   4.917   5.011   6.015  0.3641 -0.3599 -1.0437
52664SOL    HW164850   4.948   5.097   5.985  1.5837 -0.4759 -0.1930
52664SOL    HW264851   4.987   4.950   5.989  0.8721 -0.6497  0.8427
52665SOL     OW64852  11.006   3.584   5.112 -0.2258 -0.4502 -0.0512
52665SOL    HW164853  11.099   3.604   5.114 -0.4187  0.4689  1.0100
52665SOL    HW264854  10.988   3.546   5.198 -1.1473  1.0449  0.4655
52666SOL     OW64855   2.389  11.755   6.135  0.2679 -0.4326 -0.4358
52666SOL    HW164856   2.471  11.776   6.180  0.3420 -2.3827  0.4334
52666SOL    HW264857   2.344  11.694   6.194 -1.7286  0.4206 -0.9891
52667SOL     OW64858   4.184   5.535   6.366 -0.4164 -0.3746 -0.0980
52667SOL    HW164859   4.269   5.509   6.401 -0.9831  0.5218  2.1299
52667SOL    HW264860   4.122   5.511   6.435 -1.8526 -0.0498 -1.2351
52668SOL     OW64861   4.270  11.953  12.263  0.7442 -0.5854  0.2021
52668SOL    HW164862   4.230  11.963  12.177  1.3489 -0.6246 -0.0854
52668SOL    HW264863   4.353  12.001  12.257  0.2637  0.4330  1.1246
52669SOL     OW64864   6.676   5.575   4.314  0.3662  0.1455  0.2077
52669SOL    HW164865   6.636   5.538   4.393 -1.1667 -1.8827 -1.3837
52669SOL    HW264866   6.769   5.556   4.323  0.1428 -0.5367  1.2805
52670SOL     OW64867   2.920   9.981   5.285  0.1261  0.0627 -0.0147
52670SOL    HW164868   2.952   9.895   5.313 -0.9271 -0.5010 -0.5139
52670SOL    HW264869   2.825   9.973   5.282  0.0191  1.1787 -0.3094
52671SOL     OW64870   1.106   9.843   8.231  0.1895 -0.0154  0.2480
52671SOL    HW164871   1.181   9.901   8.239 -0.2712  0.4959  1.0800
52671SOL    HW264872   1.129   9.766   8.283  1.2044 -1.0671 -1.6409
52672SOL     OW64873   8.868   1.344   2.734 -0.2887  0.3048  0.0819
52672SOL    HW164874   8.886   1.336   2.828  0.5696  1.2531  0.0170
52672SOL    HW264875   8.781   1.385   2.730  0.2955  1.6588  0.5016
52673SOL     OW64876  11.771   3.129   6.900 -0.1459 -0.0300 -0.9385
52673SOL    HW164877  11.708   3.085   6.957  1.3181 -2.8904 -1.3357
52673SOL    HW264878  11.839   3.160   6.959  0.1080 -0.6949 -0.8738
52674SOL     OW64879   3.200  10.947   0.703  0.0128 -0.2667 -0.1267
52674SOL    HW164880   3.183  10.856   0.727  1.6848 -1.0085 -1.5490
52674SOL    HW264881   3.168  10.998   0.777 -3.2247 -1.7898 -0.2907
52675SOL     OW64882   6.324   0.583   9.445  0.0104 -0.9036  0.3739
52675SOL    HW164883   6.262   0.597   9.516  0.5924  1.2261  0.5334
52675SOL    HW264884   6.273   0.542   9.376 -1.6146  0.7448  0.5077
52676SOL     OW64885   9.101   9.955   3.321 -0.2608  0.0587 -0.5272
52676SOL    HW164886   9.051   9.929   3.244 -1.5389  0.6149  0.0908
52676SOL    HW264887   9.186   9.982   3.286 -1.0078  0.8439 -1.8217
52677SOL     OW64888   5.364   4.640   4.880 -0.3349  0.0095  0.1999
52677SOL    HW164889   5.411   4.619   4.799 -1.1579 -1.6087  0.1004
52677SOL    HW264890   5.274   4.657   4.852  0.0871  3.0040  0.4003
52678SOL     OW64891   2.914   3.351   9.515  0.4658  0.9202  0.1227
52678SOL    HW164892   2.836   3.405   9.500  0.1826  0.8619  1.3124
52678SOL    HW264893   2.946   3.377   9.601 -0.7791 -2.0425  1.6428
52679SOL     OW64894   4.433  10.993  12.156  0.4128  0.1052 -0.2083
52679SOL    HW164895   4.509  11.051  12.146  0.7770 -0.4885 -0.9738
52679SOL    HW264896   4.468  10.913  12.194 -0.0935  0.3778  0.8484
52680SOL     OW64897   9.095   3.011   2.277 -0.2510  0.2054 -0.5892
52680SOL    HW164898   9.144   2.970   2.348 -3.9688 -1.0668  1.4802
52680SOL    HW264899   9.095   3.104   2.298  1.1972  0.2400 -0.6474
52681SOL     OW64900   6.919  11.700  10.535  0.1488  0.0379  0.4124
52681SOL    HW164901   6.965  11.783  10.521 -0.4713  0.7671  2.2946
52681SOL    HW264902   6.986  11.633  10.521  0.2050  0.6532 -3.1355
52682SOL     OW64903   5.167   7.303  10.844  0.0011  0.3900  0.1327
52682SOL    HW164904   5.114   7.349  10.909 -0.7235 -0.1067 -0.1013
52682SOL    HW264905   5.114   7.228  10.817  1.3713 -0.9092  0.8986
52683SOL     OW64906  11.323   7.545   6.618  0.0030 -0.0699 -0.2943
52683SOL    HW164907  11.322   7.449   6.623 -0.8748 -0.0458  0.4587
52683SOL    HW264908  11.307   7.565   6.526  0.5590 -0.6449 -0.5190
52684SOL     OW64909   1.048  10.540   2.853 -0.2913  0.7316 -0.0069
52684SOL    HW164910   1.130  10.520   2.808 -0.3324  0.3881  0.0613
52684SOL    HW264911   0.997  10.459   2.847 -0.3814  0.7452  0.4673
52685SOL     OW64912   4.274  10.049   7.252  0.6241  0.2008 -0.5033
52685SOL    HW164913   4.347   9.989   7.239  0.3543 -0.3576  0.4161
52685SOL    HW264914   4.302  10.104   7.325  0.0601 -0.1529 -0.0087
52686SOL     OW64915   6.684   3.178   9.653  0.0107  0.7012  0.0053
52686SOL    HW164916   6.657   3.267   9.629 -0.8004  0.2608 -0.7482
52686SOL    HW264917   6.724   3.188   9.740 -1.0219  1.6378  0.3871
52687SOL     OW64918   5.030   5.467   7.360  0.1654 -0.1356 -0.0798
52687SOL    HW164919   5.074   5.395   7.406 -0.5807 -0.5620 -0.0242
52687SOL    HW264920   4.953   5.427   7.320 -0.1959  0.6131 -0.1570
52688SOL     OW64921   2.825   6.499  11.682 -0.4719 -0.0560 -0.5499
52688SOL    HW164922   2.802   6.406  11.673  1.4077 -0.6513  0.3909
52688SOL    HW264923   2.743   6.545  11.665 -1.2074 -1.8184 -2.1974
52689SOL     OW64924   4.385   1.104   7.424 -0.3614  0.2390  0.3899
52689SOL    HW164925   4.375   1.130   7.516 -2.2313 -1.5667  0.7808
52689SOL    HW264926   4.446   1.168   7.387 -0.2193  1.5192  2.6652
52690SOL     OW64927   5.456   3.792   7.749  0.2114  0.5379  0.0584
52690SOL    HW164928   5.397   3.717   7.737  1.1533 -0.0629 -1.0156
52690SOL    HW264929   5.399   3.863   7.778 -0.9688 -0.1398 -0.5321
52691SOL     OW64930   5.350   2.130   8.487 -0.2356 -0.0499  0.2350
52691SOL    HW164931   5.426   2.164   8.534 -0.0520  0.9007 -0.7029
52691SOL    HW264932   5.360   2.035   8.491  0.6656  0.0497  0.6575
52692SOL     OW64933  10.595   9.823   8.636  0.4414  0.1756 -0.7650
52692SOL    HW164934  10.505   9.854   8.644  1.1059  1.9109  0.7288
52692SOL    HW264935  10.595   9.738   8.680 -0.7142 -0.4731 -1.9518
52693SOL     OW64936  12.165   5.356   9.171 -0.1874 -0.1112 -0.1919
52693SOL    HW164937  12.254   5.363   9.138 -0.1373 -1.1244 -0.2842
52693SOL    HW264938  12.174   5.317   9.258 -0.6847 -2.7505 -1.2357
52694SOL     OW64939   9.861  12.141  11.265 -0.0818  0.9188  0.0634
52694SOL    HW164940   9.859  12.080  11.191 -0.4410 -0.3041  1.0433
52694SOL    HW264941   9.872  12.227  11.225  0.0563  0.2562 -1.3895
52695SOL     OW64942   9.302   9.341   3.148 -0.6510  0.1725  0.7178
52695SOL    HW164943   9.363   9.268   3.140 -0.8213  0.1895 -1.0440
52695SOL    HW264944   9.308   9.387   3.065 -1.3983  1.5146  1.3676
52696SOL     OW64945   7.828   9.042   8.883 -0.0694  0.2267 -0.0906
52696SOL    HW164946   7.916   9.079   8.882 -0.4626  1.1918 -0.9524
52696SOL    HW264947   7.823   8.995   8.966  0.3879  2.2979  1.1993
52697SOL     OW64948  11.310   5.012   1.299 -0.1980 -0.9176  0.4743
52697SOL    HW164949  11.389   5.008   1.353 -0.4733 -2.8659  0.7796
52697SOL    HW264950  11.239   4.986   1.358 -0.8074 -0.9515 -0.2641
52698SOL     OW64951   2.099   4.371   9.308 -0.2345 -0.1432  0.1408
52698SOL    HW164952   2.138   4.303   9.363  2.0225  0.0871 -1.0499
52698SOL    HW264953   2.152   4.371   9.228  0.0814  3.2057  0.1987
52699SOL     OW64954   4.113   2.829   5.736 -0.2106  0.3606 -0.2077
52699SOL    HW164955   4.142   2.919   5.746 -0.8229  0.5400 -0.0352
52699SOL    HW264956   4.193   2.777   5.747  0.1469  0.8770 -0.3238
52700SOL     OW64957   6.925   1.380   1.843  0.0594  0.3830 -0.2246
52700SOL    HW164958   6.919   1.457   1.899 -0.4116  1.9418 -2.2586
52700SOL    HW264959   6.853   1.391   1.780  0.0483 -1.6843 -0.6317
52701SOL     OW64960   2.050   8.691   1.771  0.0893 -0.0280  0.1702
52701SOL    HW164961   2.122   8.752   1.757 -0.3337  0.2799 -0.7360
52701SOL    HW264962   1.971   8.746   1.765 -0.2394 -0.3897  0.9733
52702SOL     OW64963   4.876   6.872   3.827 -0.1134 -0.1044  0.4105
52702SOL    HW164964   4.907   6.914   3.908  1.4719  1.9946 -1.1643
52702SOL    HW264965   4.790   6.910   3.811  1.4486  3.1569 -1.1918
52703SOL     OW64966  10.916   1.480  11.320  0.1268 -0.0754 -0.1433
52703SOL    HW164967  11.003   1.519  11.329 -0.1664  0.8383 -1.0327
52703SOL    HW264968  10.927   1.413  11.252 -0.1420  1.0018 -1.2796
52704SOL     OW64969  11.948   4.281  12.530  0.8767 -0.3969  0.0634
52704SOL    HW164970  11.957   4.187  12.516  0.2135 -0.2727 -1.3232
52704SOL    HW264971  11.863   4.290  12.573  0.9735 -0.4222  0.2642
52705SOL     OW64972  11.249   7.292   7.596 -0.0632 -0.6430  0.1718
52705SOL    HW164973  11.153   7.287   7.605  0.0832 -2.5905  1.1154
52705SOL    HW264974  11.266   7.386   7.586 -1.9711 -0.0840  1.4339
52706SOL     OW64975   3.353   8.633   6.575 -0.4207  0.1206  0.8729
52706SOL    HW164976   3.430   8.635   6.632 -0.1660  0.1913  0.5347
52706SOL    HW264977   3.291   8.692   6.616 -0.1984  0.2544  1.0200
52707SOL     OW64978   9.451   8.450   4.287  0.2187 -0.5542 -0.1668
52707SOL    HW164979   9.391   8.384   4.253  0.4591 -1.0160  0.2944
52707SOL    HW264980   9.397   8.528   4.300 -0.9086 -1.6770  2.6706
52708SOL     OW64981   4.895   1.260   4.590 -0.3773  0.1095 -0.3478
52708SOL    HW164982   4.888   1.248   4.495  1.1402 -0.3914 -0.4251
52708SOL    HW264983   4.809   1.291   4.617 -0.4946  1.4308 -2.0637
52709SOL     OW64984  12.174   4.931   2.445  0.3309  0.3385  0.2323
52709SOL    HW164985  12.255   4.955   2.399  0.1110 -0.8284 -0.8359
52709SOL    HW264986  12.192   4.843   2.480 -1.1477 -0.9128 -1.9117
52710SOL     OW64987   4.613   0.654   8.468 -0.0159  0.3562 -0.1422
52710SOL    HW164988   4.680   0.608   8.519  0.4567  1.3621  0.1832
52710SOL    HW264989   4.600   0.600   8.391  0.8252 -0.1108  0.0269
52711SOL     OW64990   5.166   0.553   5.999  0.2023  0.0687  0.3352
52711SOL    HW164991   5.120   0.506   6.068  2.0031 -1.6251  0.4638
52711SOL    HW264992   5.134   0.513   5.918 -0.8485  1.0825  0.2175
52712SOL     OW64993   1.886   9.434  12.308 -0.3222 -0.2475  0.3452
52712SOL    HW164994   1.966   9.456  12.357 -1.4117  1.0548  1.6307
52712SOL    HW264995   1.816   9.444  12.372 -1.5503 -1.2468 -0.7939
52713SOL     OW64996  10.560   7.589  10.890  0.2516  0.1781 -0.3471
52713SOL    HW164997  10.598   7.598  10.802 -1.7576  0.8486 -1.2023
52713SOL    HW264998  10.487   7.652  10.891  0.1878  0.1349  1.7937
52714SOL     OW64999   5.962   7.920   7.248  0.0875  1.0827  0.6484
52714SOL    HW165000   5.962   7.897   7.155  1.6731  1.0811  0.6300
52714SOL    HW265001   5.903   7.856   7.288 -0.0098  0.5998 -0.2390
52715SOL     OW65002   7.426   2.484   0.452 -0.0519  0.3423  0.3167
52715SOL    HW165003   7.369   2.408   0.464  0.3342 -0.0294 -0.1338
52715SOL    HW265004   7.383   2.535   0.383  0.0772  0.1420  0.0863
52716SOL     OW65005   7.865  12.209   6.864  0.8208 -0.6863  0.0677
52716SOL    HW165006   7.787  12.172   6.824  1.0495  1.6480 -2.9511
52716SOL    HW265007   7.931  12.207   6.794  2.1794  1.0701  1.1964
52717SOL     OW65008   7.699   5.854   3.653 -0.4011 -0.0750  0.6471
52717SOL    HW165009   7.704   5.793   3.579  1.1136  0.1058  0.5678
52717SOL    HW265010   7.737   5.935   3.620 -0.9461  0.4346  1.2344
52718SOL     OW65011   8.383   7.184   0.922 -0.7221 -0.0397 -0.0678
52718SOL    HW165012   8.300   7.140   0.936 -2.2598  2.4539 -0.7351
52718SOL    HW265013   8.379   7.263   0.976  1.7930 -0.4344  0.8686
52719SOL     OW65014   8.824   9.641  10.831 -0.2824  0.0441 -0.1104
52719SOL    HW165015   8.889   9.696  10.874  0.9185  1.5159 -3.4589
52719SOL    HW265016   8.841   9.653  10.738 -2.5344 -3.0408 -1.0672
52720SOL     OW65017   5.332  10.268   3.296 -0.2106 -0.1002  0.4609
52720SOL    HW165018   5.371  10.294   3.379  1.8917  0.8615 -0.7436
52720SOL    HW265019   5.238  10.266   3.313  0.0179  1.8440  2.3791
52721SOL     OW65020   7.179  10.523  11.836 -0.6098  0.0886  0.5521
52721SOL    HW165021   7.220  10.575  11.905  1.1239  1.2673 -1.2380
52721SOL    HW265022   7.190  10.577  11.757 -2.5137 -1.1880 -0.6588
52722SOL     OW65023   6.857   7.314   6.694  0.3770 -0.3462  0.0457
52722SOL    HW165024   6.927   7.355   6.644  0.4600 -0.5141  0.0219
52722SOL    HW265025   6.864   7.221   6.672 -0.7994 -0.1926 -1.1272
52723SOL     OW65026   3.417   5.550   9.977 -0.0525 -0.0647  0.0908
52723SOL    HW165027   3.390   5.627   9.927 -3.2075 -1.8510 -1.2856
52723SOL    HW265028   3.447   5.487   9.912 -0.4210 -1.0570  0.8447
52724SOL     OW65029   6.635   8.339   0.841 -0.5674 -0.0404 -0.1253
52724SOL    HW165030   6.586   8.420   0.828  0.1570  0.3315 -0.6270
52724SOL    HW265031   6.727   8.367   0.839 -0.3048 -0.9112 -0.5721
52725SOL     OW65032   6.299   2.114   5.092 -0.2816  0.1943  0.3616
52725SOL    HW165033   6.298   2.096   4.998 -1.1226 -0.0960  0.4228
52725SOL    HW265034   6.392   2.128   5.112  0.4166 -3.2330  0.1632
52726SOL     OW65035   9.001   9.115   0.949 -0.2109 -0.4563 -0.4714
52726SOL    HW165036   9.077   9.061   0.927  1.9704  1.8971  0.6337
52726SOL    HW265037   9.031   9.205   0.933 -2.5693  0.6143  0.6564
52727SOL     OW65038  12.196   5.997   4.729  0.3444  0.1348  0.6202
52727SOL    HW165039  12.199   6.054   4.806 -0.8639 -1.2978  1.7668
52727SOL    HW265040  12.265   5.933   4.744  0.6038  0.2887  0.1255
52728SOL     OW65041   8.755  11.736  11.021 -0.0702  0.0264  0.0107
52728SOL    HW165042   8.660  11.724  11.030  0.0958 -0.6229  1.1853
52728SOL    HW265043   8.778  11.686  10.943 -0.5253 -0.8862  0.4425
52729SOL     OW65044   8.459   6.111   8.055  0.3728  0.2356 -0.2845
52729SOL    HW165045   8.437   6.187   8.110 -0.7853  0.1697 -0.6416
52729SOL    HW265046   8.463   6.146   7.966 -0.3672 -0.1430 -0.4781
52730SOL     OW65047   7.600   0.029   1.835  0.2886 -0.0508 -0.2869
52730SOL    HW165048   7.576   0.047   1.745  0.7150 -2.0173 -0.8461
52730SOL    HW265049   7.553  -0.052   1.857 -0.4162  0.7869  1.5300
52731SOL     OW65050   1.895   2.839   0.461  0.4542 -0.4523 -0.0571
52731SOL    HW165051   1.825   2.857   0.398 -0.7268 -1.3550  0.9363
52731SOL    HW265052   1.970   2.814   0.408 -0.6868 -1.7898 -1.1179
52732SOL     OW65053   9.915   9.318   9.311  0.1714  0.0179  0.1582
52732SOL    HW165054   9.966   9.382   9.262 -0.6010  0.1375 -0.4944
52732SOL    HW265055   9.855   9.370   9.365 -1.0557 -0.1460 -1.0122
52733SOL     OW65056  10.523   3.003  10.914  0.0768  0.2161 -0.3548
52733SOL    HW165057  10.467   3.074  10.882  3.0078  1.4952 -3.2911
52733SOL    HW265058  10.486   2.924  10.877 -0.7278  0.8096 -0.8489
52734SOL     OW65059   3.460   6.832   5.758  0.5197  0.2063 -0.4558
52734SOL    HW165060   3.548   6.862   5.733  1.3341 -0.6124  1.2532
52734SOL    HW265061   3.474   6.781   5.837 -1.4965 -0.1605 -0.2872
52735SOL     OW65062   1.986   9.139   7.068  0.1265 -0.3485 -0.2002
52735SOL    HW165063   2.045   9.214   7.077  0.2772 -0.4752 -0.1099
52735SOL    HW265064   1.959   9.119   7.157  0.1022 -0.4130 -0.2217
52736SOL     OW65065  12.225  11.181   9.223  0.0718 -0.0855 -0.0128
52736SOL    HW165066  12.292  11.127   9.181  0.2277  0.6228 -0.7022
52736SOL    HW265067  12.215  11.256   9.164  1.7840  2.0254  2.1739
52737SOL     OW65068   5.526   3.979   9.653 -0.2482  0.3372 -1.0659
52737SOL    HW165069   5.512   3.901   9.600  1.3514  0.2522 -1.3931
52737SOL    HW265070   5.587   3.951   9.721 -0.8608  0.9190 -0.2558
52738SOL     OW65071   1.919  10.808   9.663 -0.0545 -0.1238 -0.4389
52738SOL    HW165072   1.831  10.829   9.634  0.4437  3.3445  0.1592
52738SOL    HW265073   1.907  10.759   9.744 -1.4181 -0.1654 -0.6521
52739SOL     OW65074   9.699  10.824   3.881 -0.1813  0.1245  0.0547
52739SOL    HW165075   9.721  10.731   3.892  0.7281  0.3613  0.2748
52739SOL    HW265076   9.741  10.868   3.955 -0.7292  0.7013  0.0369
52740SOL     OW65077   9.785   9.193   0.949  0.0284  0.6109  0.3764
52740SOL    HW165078   9.699   9.233   0.963  0.2698  1.6274 -0.8577
52740SOL    HW265079   9.786   9.119   1.009 -0.9401  1.7052  1.8365
52741SOL     OW65080  12.383   5.360   7.231  0.4469 -0.1096 -0.6714
52741SOL    HW165081  12.376   5.455   7.223  0.0915 -0.1832 -1.3045
52741SOL    HW265082  12.468   5.345   7.272  0.4937  0.4806 -0.5520
52742SOL     OW65083   6.636   1.893  12.568  0.5932 -0.3625  0.0755
52742SOL    HW165084   6.697   1.870  12.638 -0.3640  0.6276  1.2707
52742SOL    HW265085   6.586   1.967  12.602 -0.8038 -0.6957 -1.1338
52743SOL     OW65086   1.625   3.314  11.656  0.4747  0.1703  0.4606
52743SOL    HW165087   1.717   3.296  11.674  0.1448 -2.1655  0.0296
52743SOL    HW265088   1.583   3.228  11.652 -1.2743  1.0200 -1.7640
52744SOL     OW65089   4.865   3.910   7.506 -0.5190  0.4192 -0.1228
52744SOL    HW165090   4.954   3.895   7.473 -1.1273 -1.3344 -1.0916
52744SOL    HW265091   4.818   3.946   7.431 -0.4564  2.2297  0.6456
52745SOL     OW65092   3.806   7.765   9.881 -0.0168  0.2395  0.0098
52745SOL    HW165093   3.795   7.803   9.794 -0.8616 -0.3498 -0.1509
52745SOL    HW265094   3.843   7.679   9.866 -1.4816 -0.4444  0.1093
52746SOL     OW65095  10.012  10.619   5.081 -0.2315  0.2273 -0.3741
52746SOL    HW165096   9.979  10.620   4.991 -0.1453  0.3939 -0.4042
52746SOL    HW265097  10.092  10.566   5.076 -0.3866 -0.0128 -0.3386
52747SOL     OW65098   7.240   0.046   7.405 -0.6341  0.5009 -0.6320
52747SOL    HW165099   7.274   0.065   7.318 -2.7875 -0.1274 -1.6811
52747SOL    HW265100   7.207  -0.043   7.399  0.8261 -0.2601  1.4252
52748SOL     OW65101   7.445   3.355   3.039 -0.4125  0.1113 -0.0352
52748SOL    HW165102   7.417   3.416   3.108  0.0094  0.5017 -0.2040
52748SOL    HW265103   7.363   3.319   3.005 -0.6246 -0.0741  0.6586
52749SOL     OW65104   1.132   5.444   3.895 -0.5767  0.2626 -0.3749
52749SOL    HW165105   1.137   5.350   3.914  0.8051  0.3707 -0.0909
52749SOL    HW265106   1.044   5.456   3.859 -0.3025 -1.3708 -1.7067
52750SOL     OW65107  10.969   4.479   6.821  0.6630 -0.1024 -0.3347
52750SOL    HW165108  11.055   4.476   6.778  1.5452  0.4662  1.3087
52750SOL    HW265109  10.907   4.473   6.749  2.0728  0.0094 -1.6267
52751SOL     OW65110  10.831   1.218   2.137 -0.1025 -0.3597 -0.1977
52751SOL    HW165111  10.801   1.155   2.072 -1.0290  1.0508 -1.2053
52751SOL    HW265112  10.776   1.295   2.123 -0.4470 -0.0394  2.3859
52752SOL     OW65113   7.477   9.229   4.467  0.3842  0.3521  0.0057
52752SOL    HW165114   7.510   9.273   4.389  0.1064  1.5600  0.5397
52752SOL    HW265115   7.382   9.222   4.452  0.4942 -0.5612 -0.3052
52753SOL     OW65116   5.299   6.460   4.174 -0.0650  0.1600 -0.2846
52753SOL    HW165117   5.274   6.524   4.241  3.3211 -0.2917  1.6146
52753SOL    HW265118   5.384   6.489   4.143  0.4344 -2.0645 -1.2064
52754SOL     OW65119  11.443   0.285  10.795 -0.0127 -0.1266 -0.0524
52754SOL    HW165120  11.509   0.265  10.730 -0.8796  0.3206 -1.1105
52754SOL    HW265121  11.405   0.368  10.765 -1.7231 -0.8581 -0.0573
52755SOL     OW65122   7.553  10.452  11.842 -0.1086 -0.2947 -0.5129
52755SOL    HW165123   7.536  10.427  11.751 -1.4644 -0.8311 -0.1220
52755SOL    HW265124   7.476  10.422  11.891 -0.0078  1.1677  0.6032
52756SOL     OW65125  11.479  12.250   6.836  0.1235 -0.2294  0.1099
52756SOL    HW165126  11.468  12.171   6.783  0.2758 -0.5294  0.5191
52756SOL    HW265127  11.534  12.307   6.783  0.9077 -0.8309  0.2556
52757SOL     OW65128   2.162   0.334  11.184  0.0723  0.6768 -0.2774
52757SOL    HW165129   2.152   0.425  11.156 -0.6025  0.3263 -1.2567
52757SOL    HW265130   2.105   0.285  11.124  0.1804 -0.3516  0.4428
52758SOL     OW65131   3.602   2.903   4.122  0.6157  0.5719 -1.0946
52758SOL    HW165132   3.559   2.886   4.205 -0.1298  1.7330 -1.2162
52758SOL    HW265133   3.668   2.835   4.114  1.2185  0.8825  0.8136
52759SOL     OW65134  10.018   1.279   0.418 -0.0886  0.5232 -0.4169
52759SOL    HW165135  10.091   1.219   0.402  0.8885  1.4308  0.4854
52759SOL    HW265136  10.032   1.351   0.357  0.1302  0.9895  0.1713
52760SOL     OW65137   8.940   3.380   4.422  0.4553  0.2396 -0.5299
52760SOL    HW165138   9.015   3.419   4.468  0.5048 -1.2983  0.7815
52760SOL    HW265139   8.867   3.392   4.483  0.5692 -2.0278  0.1216
52761SOL     OW65140   8.477  12.293   8.427 -0.1596  0.4237  0.4417
52761SOL    HW165141   8.443  12.370   8.381 -2.4009 -0.9391 -0.3283
52761SOL    HW265142   8.526  12.245   8.359 -0.4025  0.2139  0.4140
52762SOL     OW65143   7.627   1.274  11.134 -0.0593 -0.2263 -0.4042
52762SOL    HW165144   7.626   1.362  11.097  1.9461 -0.1931 -0.4814
52762SOL    HW265145   7.659   1.286  11.224  1.7077 -0.9701 -0.8812
52763SOL     OW65146   9.546   1.878   5.766  0.5994 -0.4823  0.6519
52763SOL    HW165147   9.546   1.972   5.784 -0.5028 -0.4692  0.6105
52763SOL    HW265148   9.591   1.869   5.682  1.7968 -0.1212  1.2283
52764SOL     OW65149   6.308   8.778   0.683  0.5267  0.1778 -0.0951
52764SOL    HW165150   6.245   8.850   0.680  0.3126 -0.0200 -2.3380
52764SOL    HW265151   6.393   8.820   0.669  0.3840  0.0521 -1.5940
52765SOL     OW65152   9.445  11.514   5.406  0.3947  0.1188  0.0458
52765SOL    HW165153   9.480  11.583   5.463 -0.0425 -0.0612  0.5378
52765SOL    HW265154   9.455  11.550   5.318  1.2604  0.3179  0.2145
52766SOL     OW65155   9.775   6.111  11.148  0.2570 -0.1395 -0.3494
52766SOL    HW165156   9.748   6.137  11.236 -0.8596 -0.2207 -0.6527
52766SOL    HW265157   9.869   6.093  11.156  0.3599  0.7237  0.6107
52767SOL     OW65158  12.039   6.513   4.437  0.2097  0.3802  0.1819
52767SOL    HW165159  12.063   6.597   4.398  1.7134 -0.4852 -0.8487
52767SOL    HW265160  12.056   6.448   4.369  0.2866 -0.9017  1.3674
52768SOL     OW65161   8.965   2.239   9.981 -0.1931 -0.1524  0.4421
52768SOL    HW165162   9.008   2.255  10.066  0.1721  0.7147  0.1114
52768SOL    HW265163   8.979   2.146   9.964  1.2001  0.0028  0.5588
52769SOL     OW65164  11.793   7.757   4.033  0.2199  0.4903  0.2142
52769SOL    HW165165  11.803   7.834   4.088  0.7093 -1.2475  2.7452
52769SOL    HW265166  11.860   7.696   4.065  0.3424 -0.7316 -2.1720
52770SOL     OW65167   5.596   6.468  10.414  0.1732  0.3396 -0.2200
52770SOL    HW165168   5.506   6.500  10.418 -0.0757 -0.3339 -0.2644
52770SOL    HW265169   5.649   6.547  10.407 -0.3879  0.7705  0.2106
52771SOL     OW65170   0.070   8.214   1.790 -0.2551  0.4013 -0.7889
52771SOL    HW165171   0.054   8.276   1.718  0.9478  2.4669  0.6279
52771SOL    HW265172   0.071   8.268   1.869 -1.9181 -1.8467  0.8973
52772SOL     OW65173   3.682  10.239   1.355 -0.2484  0.3358  0.0689
52772SOL    HW165174   3.649  10.286   1.431 -0.3208 -1.5367  1.2664
52772SOL    HW265175   3.616  10.172   1.337  0.9363 -0.8619 -0.0263
52773SOL     OW65176   1.742  12.427   8.828 -0.0671  0.1966  0.5230
52773SOL    HW165177   1.699  12.342   8.818  2.0266 -1.0419  1.3400
52773SOL    HW265178   1.790  12.440   8.746 -0.3017  0.5503  0.4396
52774SOL     OW65179   5.743  11.699   2.624  0.5568  0.1753 -0.4903
52774SOL    HW165180   5.756  11.753   2.702 -0.3755 -1.1337  0.6238
52774SOL    HW265181   5.676  11.635   2.650 -1.8673  1.3873 -3.2053
52775SOL     OW65182   7.121   3.350   8.320 -0.5456 -0.4884 -0.0460
52775SOL    HW165183   7.192   3.313   8.372  0.5939 -1.4715 -2.1693
52775SOL    HW265184   7.162   3.422   8.271 -1.2740 -0.3684 -0.4931
52776SOL     OW65185   9.966   7.739   4.044  0.1815 -0.5745  0.0708
52776SOL    HW165186   9.988   7.779   4.127 -2.4010  2.7864 -0.6228
52776SOL    HW265187  10.022   7.783   3.980 -2.1390  1.7042 -0.5977
52777SOL     OW65188   2.799   9.988   7.700  0.2735  0.2458  0.3961
52777SOL    HW165189   2.745  10.013   7.626  1.2063 -0.1185 -0.4235
52777SOL    HW265190   2.740   9.994   7.776 -0.3590  1.8137 -0.1840
52778SOL     OW65191   2.377   4.226   1.204 -0.3846  0.1640 -0.1389
52778SOL    HW165192   2.471   4.222   1.189 -0.3991 -0.5704 -0.0482
52778SOL    HW265193   2.366   4.294   1.271  0.0025  0.8154 -0.7211
52779SOL     OW65194   7.510   2.712   4.716 -0.4249 -0.3440  0.0551
52779SOL    HW165195   7.525   2.618   4.725  0.6152 -0.1412  0.5830
52779SOL    HW265196   7.588   2.752   4.754  1.0633  0.6961 -3.6363
52780SOL     OW65197  11.022   3.493   1.812  0.1586  0.0541 -0.2626
52780SOL    HW165198  11.024   3.588   1.816  1.3475  0.2246 -3.0731
52780SOL    HW265199  10.930   3.470   1.826 -0.1917  1.6130  0.1677
52781SOL     OW65200   1.181  10.489   9.412 -0.1424 -0.4224 -0.4030
52781SOL    HW165201   1.104  10.546   9.405  0.5081  1.0228  2.4829
52781SOL    HW265202   1.254  10.544   9.382  0.0629 -0.9770 -0.9310
52782SOL     OW65203   5.912   7.008   7.985 -0.5317  0.8728 -0.3830
52782SOL    HW165204   5.819   7.018   7.968 -0.8488 -0.1486  0.6851
52782SOL    HW265205   5.922   7.032   8.077  0.0678 -0.1233 -0.1762
52783SOL     OW65206   7.226   1.557   2.346  0.3655  0.2509  0.2767
52783SOL    HW165207   7.170   1.497   2.297  0.7977  0.5984 -0.6516
52783SOL    HW265208   7.196   1.548   2.437  0.2079 -1.1370  0.1187
52784SOL     OW65209   2.523   9.115   9.518  0.4694  0.5593  0.0539
52784SOL    HW165210   2.428   9.112   9.528  0.5781  1.1290  1.5920
52784SOL    HW265211   2.547   9.201   9.552  1.5411  0.4049 -0.2942
52785SOL     OW65212   7.301   7.980   7.682 -0.4095  0.3388 -0.0531
52785SOL    HW165213   7.333   7.981   7.592  0.1864  0.7360  0.1524
52785SOL    HW265214   7.351   8.049   7.726 -1.8871  1.2982  0.1843
52786SOL     OW65215   7.490   3.395   3.905 -0.0140 -0.4274  0.3568
52786SOL    HW165216   7.503   3.457   3.977 -0.0062  0.2798 -0.2307
52786SOL    HW265217   7.396   3.399   3.886  0.3179  1.3104 -1.2892
52787SOL     OW65218   4.295  11.335   5.698  0.1238  0.0641 -0.3108
52787SOL    HW165219   4.206  11.363   5.721 -0.8561  0.1881 -3.7172
52787SOL    HW265220   4.336  11.413   5.661  1.4741 -0.1730  0.5948
52788SOL     OW65221   9.393   2.208  12.164 -0.4770 -0.0402 -0.1264
52788SOL    HW165222   9.353   2.273  12.106  0.8362  0.1430 -0.8609
52788SOL    HW265223   9.470   2.252  12.200 -0.6212 -0.5559  0.8446
52789SOL     OW65224   9.727   4.550   9.136 -0.0542 -0.3723  0.0754
52789SOL    HW165225   9.805   4.496   9.138 -0.1453 -0.6262 -1.5787
52789SOL    HW265226   9.754   4.633   9.175  0.9476 -0.5700 -0.1728
52790SOL     OW65227   9.856   8.828   8.153 -0.1030 -0.7508 -0.1961
52790SOL    HW165228   9.813   8.746   8.176 -1.7113  0.0643 -0.1427
52790SOL    HW265229   9.949   8.806   8.150 -0.3090 -2.1559  1.6760
52791SOL     OW65230   6.125   0.172   0.237 -0.3708  0.7942 -0.2915
52791SOL    HW165231   6.124   0.114   0.162  1.4313 -1.5270  1.3313
52791SOL    HW265232   6.181   0.245   0.211  2.6622 -1.3774 -0.3984
52792SOL     OW65233   9.180   7.490   5.628 -0.0267  0.2122  0.6543
52792SOL    HW165234   9.106   7.550   5.633  0.0388  0.4369 -0.7492
52792SOL    HW265235   9.249   7.541   5.585  0.6798 -0.2461  1.2224
52793SOL     OW65236   8.070   2.758   1.804 -0.2820  0.2061  0.0355
52793SOL    HW165237   8.118   2.683   1.839 -0.2316  0.2042 -0.0389
52793SOL    HW265238   8.007   2.720   1.743 -0.1226  0.2425 -0.1494
52794SOL     OW65239   2.976   5.280   6.361 -0.3828 -0.4076  0.0872
52794SOL    HW165240   2.951   5.372   6.367  0.9481 -0.0537  0.6119
52794SOL    HW265241   3.011   5.270   6.273  2.0589  0.3343  0.8822
52795SOL     OW65242  10.295   9.130   2.951  0.2178  0.7020  1.1526
52795SOL    HW165243  10.302   9.216   2.994  0.7929  0.6776  1.1161
52795SOL    HW265244  10.205   9.102   2.969  0.2437  0.9873  1.7849
52796SOL     OW65245   2.729   0.205  12.399 -0.3427 -0.1913  0.0180
52796SOL    HW165246   2.661   0.164  12.451 -0.1482  1.6460  1.8516
52796SOL    HW265247   2.681   0.260  12.336 -0.5662 -0.3225  0.0736
52797SOL     OW65248   8.751   4.460   7.540 -0.0206  0.4459 -0.4733
52797SOL    HW165249   8.683   4.489   7.479 -0.3484  3.2692  1.0671
52797SOL    HW265250   8.833   4.496   7.504  0.4044 -1.1594 -1.2046
52798SOL     OW65251   4.560   5.067   8.796  0.0304 -0.6735 -0.4112
52798SOL    HW165252   4.635   5.127   8.791 -1.9945  1.9998 -0.6941
52798SOL    HW265253   4.589   4.999   8.856  2.7191  0.1978 -0.5730
52799SOL     OW65254   4.622   9.612   0.958 -0.1410 -0.1775  0.0431
52799SOL    HW165255   4.716   9.626   0.943 -0.0791  0.2760  0.8214
52799SOL    HW265256   4.618   9.571   1.044 -0.4634 -3.0628 -1.2221
52800SOL     OW65257  10.549   9.795   5.386 -0.6095  0.4597 -0.0314
52800SOL    HW165258  10.580   9.864   5.327 -0.5496  1.0874  0.7248
52800SOL    HW265259  10.465   9.827   5.419 -1.0965 -0.3145 -0.4938
52801SOL     OW65260  12.369   2.903   8.063  0.3847 -0.0566 -0.0792
52801SOL    HW165261  12.459   2.919   8.093  0.1393  1.6052 -0.1294
52801SOL    HW265262  12.315   2.916   8.141 -0.0649  2.0874 -0.6938
52802SOL     OW65263   1.833   9.956   2.956 -0.3994 -0.1931 -0.0285
52802SOL    HW165264   1.836   9.975   3.050  1.7283  3.1824 -0.6168
52802SOL    HW265265   1.924   9.960   2.928 -0.9907 -1.0872 -2.2714
52803SOL     OW65266   2.869   2.334   7.875 -0.1920 -0.4632 -0.0848
52803SOL    HW165267   2.819   2.404   7.917 -1.1881  0.1897 -2.2282
52803SOL    HW265268   2.888   2.367   7.787  1.3704 -1.9628 -0.3760
52804SOL     OW65269   4.221  12.406   3.737 -0.3517 -0.5948  0.5530
52804SOL    HW165270   4.140  12.424   3.784 -0.8724  0.5439 -0.6960
52804SOL    HW265271   4.205  12.323   3.691 -0.8027 -0.4022  0.3562
52805SOL     OW65272   6.863   2.625   3.832 -0.1234 -0.2080  0.1915
52805SOL    HW165273   6.777   2.600   3.865 -0.3938 -1.1639 -1.1666
52805SOL    HW265274   6.854   2.716   3.806 -0.5473 -0.1203  0.6467
52806SOL     OW65275   1.972   5.295   1.741 -0.2951  0.0092  0.5957
52806SOL    HW165276   2.018   5.368   1.781  0.2020  0.0978 -0.1274
52806SOL    HW265277   1.887   5.331   1.716 -0.5524 -0.0101  1.4211
52807SOL     OW65278   6.648   7.335   2.045  0.7412 -0.7830  0.0290
52807SOL    HW165279   6.554   7.317   2.044  0.4679  0.5706  0.0932
52807SOL    HW265280   6.675   7.314   2.135  0.6280 -1.7354 -0.1509
52808SOL     OW65281   3.525   6.993   3.748 -0.3079 -0.5579 -0.2366
52808SOL    HW165282   3.483   6.913   3.779  0.3887 -0.4826  0.9295
52808SOL    HW265283   3.618   6.974   3.751  0.0661  1.1481  2.6984
52809SOL     OW65284   9.204  10.040  10.261 -0.8482 -0.1052 -0.4992
52809SOL    HW165285   9.135  10.102  10.284 -0.4869 -0.1894  0.9323
52809SOL    HW265286   9.283  10.094  10.255 -0.3994 -0.4740  1.4548
52810SOL     OW65287   1.233   2.184   9.886  0.5250  0.1364  0.3244
52810SOL    HW165288   1.218   2.097   9.923  1.3336 -0.4645 -0.7015
52810SOL    HW265289   1.301   2.223   9.941  1.5592 -0.6611 -0.3577
52811SOL     OW65290   7.090   6.579   0.257 -0.0132  0.0149  0.2838
52811SOL    HW165291   7.165   6.527   0.286 -0.8872 -0.5047  1.7304
52811SOL    HW265292   7.128   6.649   0.205  1.1430 -2.9168 -3.2375
52812SOL     OW65293   9.385   9.341   8.627 -0.1745 -0.1892 -0.6320
52812SOL    HW165294   9.357   9.298   8.708 -0.2830 -0.8594 -1.0133
52812SOL    HW265295   9.478   9.359   8.641 -0.4836  0.9120  0.1535
52813SOL     OW65296   2.321   9.550   1.052  0.0564  0.4334 -0.5246
52813SOL    HW165297   2.256   9.530   0.984 -0.8549  0.8957  0.1837
52813SOL    HW265298   2.327   9.471   1.105  0.0482  0.3993 -0.5758
52814SOL     OW65299   0.677   3.539   5.500  0.1642  0.5288 -0.5601
52814SOL    HW165300   0.669   3.550   5.405  1.6060  0.9390 -0.6609
52814SOL    HW265301   0.742   3.605   5.526 -0.0306  0.2582  0.6820
52815SOL     OW65302   9.518   1.401   4.000 -0.0130 -0.1229 -0.2890
52815SOL    HW165303   9.426   1.426   4.003  0.1303  0.4684 -0.6261
52815SOL    HW265304   9.560   1.469   3.947  0.5062 -0.7352 -0.6805
52816SOL     OW65305   7.398   6.027  12.279  0.2125  0.0564  0.1306
52816SOL    HW165306   7.414   6.051  12.188 -0.9836  0.1154 -0.0784
52816SOL    HW265307   7.411   5.932  12.282 -0.2853 -0.0282 -0.2329
52817SOL     OW65308   5.119  11.539   8.906 -0.4736  0.1869  0.1172
52817SOL    HW165309   5.094  11.572   8.992  1.9019  1.0791  0.5411
52817SOL    HW265310   5.044  11.558   8.850 -1.6451  0.5425  1.7463
52818SOL     OW65311   1.650   9.843   3.608 -0.0248 -0.1760  0.3001
52818SOL    HW165312   1.643   9.875   3.518 -0.7421  0.5110  0.5842
52818SOL    HW265313   1.678   9.752   3.599 -2.3774 -0.8911 -0.7476
52819SOL     OW65314   5.548   1.667   6.768 -0.1042  0.5623 -0.1274
52819SOL    HW165315   5.586   1.594   6.816  0.7504  0.8752 -0.3033
52819SOL    HW265316   5.478   1.628   6.716 -0.2934  0.0351  0.5131
52820SOL     OW65317  11.615   7.152   2.497 -0.0072 -0.6605 -0.4312
52820SOL    HW165318  11.625   7.243   2.470  1.2644 -0.6648 -0.0585
52820SOL    HW265319  11.615   7.102   2.415 -0.9731 -0.3146 -0.6477
52821SOL     OW65320   0.806   6.288  11.183  0.2525 -0.0389  0.1698
52821SOL    HW165321   0.802   6.220  11.116  2.7563 -0.2737  0.1390
52821SOL    HW265322   0.716   6.318  11.193 -0.5124 -1.4944 -1.7325
52822SOL     OW65323   8.480  11.961   0.397 -0.1092 -0.0420 -0.0813
52822SOL    HW165324   8.502  12.031   0.459  1.0968 -0.0903 -0.4195
52822SOL    HW265325   8.520  11.882   0.435 -1.8209 -0.6547  0.5143
52823SOL     OW65326  12.137   6.738   0.869 -0.6312 -1.1593 -0.2200
52823SOL    HW165327  12.192   6.704   0.799  0.5264  1.7105 -0.8349
52823SOL    HW265328  12.197   6.753   0.942 -0.9905 -0.1507 -0.1139
52824SOL     OW65329   4.146   9.416   0.814 -0.3763  0.2532 -0.1422
52824SOL    HW165330   4.073   9.427   0.875  0.0604 -0.4056  0.5288
52824SOL    HW265331   4.191   9.500   0.815 -3.3241  2.1344 -3.6534
52825SOL     OW65332  10.934   3.284   5.059  0.6578 -0.0826  0.6872
52825SOL    HW165333  10.884   3.257   5.136 -2.2524 -0.5370 -1.2304
52825SOL    HW265334  10.879   3.349   5.015  2.0553 -0.0767 -1.1852
52826SOL     OW65335   7.438   7.617   3.676 -0.4792 -0.1658 -0.2917
52826SOL    HW165336   7.363   7.647   3.625 -0.0930 -0.7227 -1.2009
52826SOL    HW265337   7.467   7.538   3.632  0.3183 -0.2517  0.3689
52827SOL     OW65338  10.229  11.947  12.253 -0.2073 -0.3371  0.5800
52827SOL    HW165339  10.242  11.905  12.168  0.8293  0.5657  0.2751
52827SOL    HW265340  10.235  11.875  12.316 -0.3093 -0.9098 -0.0536
52828SOL     OW65341   5.475   4.246   9.009 -0.1710 -0.1113 -0.6115
52828SOL    HW165342   5.558   4.293   9.015 -1.3971  2.1929 -0.6977
52828SOL    HW265343   5.429   4.269   9.090 -0.1336 -2.7559  0.2806
52829SOL     OW65344   3.215   4.323   2.107 -0.4852 -0.2202  0.1548
52829SOL    HW165345   3.262   4.266   2.168  0.2555 -0.8331 -0.9577
52829SOL    HW265346   3.159   4.377   2.163  0.5980 -0.3556  1.4173
52830SOL     OW65347  11.989   7.473  12.568  0.0960 -0.4498  0.1782
52830SOL    HW165348  12.040   7.518  12.501 -0.6515 -1.0159 -0.8110
52830SOL    HW265349  12.006   7.521  12.649  0.8498  0.3836 -0.4628
52831SOL     OW65350   6.636   2.187   6.366 -0.6110 -0.0616 -0.0203
52831SOL    HW165351   6.711   2.247   6.367 -0.6298  0.0060  1.8938
52831SOL    HW265352   6.572   2.227   6.424 -1.0330 -1.4195  0.4999
52832SOL     OW65353   2.521   9.342   9.808 -0.0203 -0.2683 -0.1083
52832SOL    HW165354   2.501   9.404   9.878  4.4502  0.2158  1.0857
52832SOL    HW265355   2.561   9.395   9.739 -1.4371 -1.1704 -1.6970
52833SOL     OW65356   7.153  11.261   6.185 -0.0504 -0.2650  0.0827
52833SOL    HW165357   7.143  11.259   6.280 -0.2264 -0.1200  0.0676
52833SOL    HW265358   7.088  11.198   6.152  0.6417 -1.0094  0.1060
52834SOL     OW65359   3.176   3.596   7.350  0.2108  0.0570 -0.2925
52834SOL    HW165360   3.167   3.581   7.444 -1.8449 -1.2486 -0.6240
52834SOL    HW265361   3.129   3.677   7.333  0.5710  0.2859 -0.1964
52835SOL     OW65362   1.837   4.808   5.921  0.0487 -0.3957  0.1626
52835SOL    HW165363   1.799   4.722   5.904  1.4392 -1.4089  1.8315
52835SOL    HW265364   1.768   4.857   5.966 -0.8194 -0.5390 -0.9740
52836SOL     OW65365  10.065   1.996   7.014  0.4510  0.3156 -0.4449
52836SOL    HW165366  10.135   2.042   6.967  0.0326  1.8957  0.4149
52836SOL    HW265367   9.985   2.021   6.969  0.2191  0.3466 -0.0154
52837SOL     OW65368  10.115   2.371   9.301  0.9546  0.4513 -0.1526
52837SOL    HW165369  10.092   2.370   9.394 -0.2964 -0.7599 -0.4357
52837SOL    HW265370  10.113   2.279   9.275  0.7349  0.8182 -1.5160
52838SOL     OW65371   8.711   2.023   2.219  0.4290  0.1213 -0.0308
52838SOL    HW165372   8.755   2.081   2.157 -2.2844  0.7356 -1.5222
52838SOL    HW265373   8.733   1.935   2.189 -0.9478  0.4015 -2.0929
52839SOL     OW65374   2.219   6.660   2.648 -0.3688  1.0033 -0.4989
52839SOL    HW165375   2.214   6.726   2.716 -1.1174  1.3121 -0.8494
52839SOL    HW265376   2.241   6.709   2.569 -0.4683  0.7760 -0.6682
52840SOL     OW65377   7.803   3.578   3.159  0.4372  0.7382 -0.0521
52840SOL    HW165378   7.805   3.521   3.083 -0.7046  1.9407 -1.0176
52840SOL    HW265379   7.894   3.609   3.169  0.5569  0.7109 -1.0345
52841SOL     OW65380   3.159   6.232   4.299 -0.6263 -0.5537  0.0555
52841SOL    HW165381   3.150   6.153   4.246 -1.0755 -0.3399 -0.1908
52841SOL    HW265382   3.070   6.267   4.306 -0.1270  1.4158 -2.1547
52842SOL     OW65383   7.032   4.097  11.533  0.4981 -0.4623 -0.1348
52842SOL    HW165384   7.089   4.020  11.537 -0.2923 -1.0623  3.3359
52842SOL    HW265385   6.951   4.066  11.493 -0.2311 -1.8975  2.2406
52843SOL     OW65386   5.859   8.333  11.802 -0.5906 -0.3211 -0.0397
52843SOL    HW165387   5.863   8.260  11.740  0.7848 -0.8345  0.6061
52843SOL    HW265388   5.773   8.326  11.843 -0.8660 -0.9625 -0.7279
52844SOL     OW65389   8.976   3.920   0.389  0.4949  0.3552  0.1977
52844SOL    HW165390   8.996   3.828   0.372 -0.7469  0.3769 -1.6972
52844SOL    HW265391   9.060   3.965   0.378  0.5751 -0.2008 -2.0073
52845SOL     OW65392   4.090   4.024   2.900  0.1363  0.8170 -0.2356
52845SOL    HW165393   4.167   3.998   2.849 -0.2522  0.6874 -0.7701
52845SOL    HW265394   4.018   3.974   2.861 -0.3415  1.4918 -0.2253
52846SOL     OW65395   4.179  11.663   1.734 -0.2722 -0.5196 -0.3057
52846SOL    HW165396   4.089  11.656   1.703  0.4301 -1.0793 -2.3750
52846SOL    HW265397   4.232  11.629   1.662  1.6473  0.5279  0.5313
52847SOL     OW65398   5.885   3.707   6.196 -0.2429  0.4592  0.4251
52847SOL    HW165399   5.960   3.676   6.247 -0.0470  0.4252  0.1152
52847SOL    HW265400   5.860   3.632   6.142  0.5682  1.0017 -0.7191
52848SOL     OW65401   4.082  10.645   6.095  0.0689  0.3782 -0.2423
52848SOL    HW165402   4.079  10.620   6.003 -1.3150  1.0507 -0.4077
52848SOL    HW265403   4.171  10.623   6.123 -0.1300 -1.7899 -1.1528
52849SOL     OW65404   2.965   6.290   1.144 -0.5956  0.5913  0.3140
52849SOL    HW165405   2.883   6.252   1.113  0.2511 -0.4130 -0.8150
52849SOL    HW265406   2.963   6.279   1.239 -1.7364  0.5658  0.3023
52850SOL     OW65407   4.854  11.906   3.663 -0.1633  0.1772  0.0827
52850SOL    HW165408   4.837  11.928   3.571 -0.6519  1.3605  0.4356
52850SOL    HW265409   4.910  11.828   3.659 -0.9989 -0.3986 -1.1978
52851SOL     OW65410   5.113   2.390   2.337 -0.6774  0.5285 -0.1797
52851SOL    HW165411   5.085   2.299   2.331 -0.5742  0.5103 -0.3926
52851SOL    HW265412   5.139   2.413   2.248  0.5271  0.3719  0.1123
52852SOL     OW65413   9.323   5.403   5.499  0.1144  0.2234 -0.1919
52852SOL    HW165414   9.240   5.449   5.504 -0.4742 -0.8796  0.5139
52852SOL    HW265415   9.365   5.419   5.583  0.0134 -0.3220 -0.0340
52853SOL     OW65416   6.662   1.551   7.972 -0.3627 -0.2933  0.3063
52853SOL    HW165417   6.608   1.522   8.046 -0.7575 -0.0896  0.1033
52853SOL    HW265418   6.726   1.481   7.960 -1.9970 -1.6794 -0.8985
52854SOL     OW65419   7.526   8.802   4.798 -0.0669 -0.7682  0.3883
52854SOL    HW165420   7.613   8.835   4.822 -0.2864 -0.4457  0.7555
52854SOL    HW265421   7.524   8.805   4.703  1.2669 -3.1671  0.1971
52855SOL     OW65422   1.557   0.507   9.621 -0.0825  0.1966  0.0926
52855SOL    HW165423   1.610   0.427   9.615  1.1814  0.9805  0.3267
52855SOL    HW265424   1.468   0.476   9.632 -0.0243 -1.2362 -2.5915
52856SOL     OW65425   8.310   6.944   9.332 -0.4685  0.2084 -0.4232
52856SOL    HW165426   8.361   6.878   9.285  1.0314 -0.2674  1.7131
52856SOL    HW265427   8.219   6.917   9.322  0.1222 -2.5075  0.7715
52857SOL     OW65428   7.409   9.146   5.304 -0.7188  0.2599 -0.5870
52857SOL    HW165429   7.323   9.124   5.341  0.6295 -2.4401  1.3166
52857SOL    HW265430   7.396   9.140   5.210 -2.6315  0.0159 -0.3551
52858SOL     OW65431   3.933  11.548   7.495  0.3638  0.3048  0.9419
52858SOL    HW165432   3.883  11.629   7.485  0.9586  0.6863  0.9721
52858SOL    HW265433   3.980  11.538   7.412 -0.2087 -0.3709  0.6850
52859SOL     OW65434   7.051  12.129   5.266  0.6629  0.0050 -0.0122
52859SOL    HW165435   6.961  12.105   5.291  0.4718  0.2778 -0.4160
52859SOL    HW265436   7.085  12.050   5.223  0.5301 -0.0214 -0.0716
52860SOL     OW65437   9.845   3.523   8.037  0.1165  0.6259 -0.2440
52860SOL    HW165438   9.911   3.456   8.055 -0.1689  0.5601  0.5717
52860SOL    HW265439   9.771   3.500   8.093 -0.1283  1.4113 -0.2362
52861SOL     OW65440   2.470  12.126   5.741 -0.2455  0.4029  0.2205
52861SOL    HW165441   2.405  12.160   5.680 -1.5259 -0.6457  0.9412
52861SOL    HW265442   2.471  12.031   5.725  0.6804  0.3298  0.6224
52862SOL     OW65443   7.199   6.274   0.928 -0.1342  0.2985 -0.1533
52862SOL    HW165444   7.274   6.334   0.925  1.3996 -1.4944  0.4912
52862SOL    HW265445   7.180   6.256   0.836 -0.0790  1.1242 -0.3324
52863SOL     OW65446   7.801   8.943   9.144  0.0346 -0.5442 -0.1169
52863SOL    HW165447   7.753   9.025   9.160  0.0245 -0.7422  0.9063
52863SOL    HW265448   7.733   8.878   9.127 -0.0832 -0.7702  1.0886
52864SOL     OW65449  11.069   7.073   1.584  0.3391 -0.5444 -0.1275
52864SOL    HW165450  10.991   7.124   1.603  0.1579  0.3780 -2.8277
52864SOL    HW265451  11.140   7.121   1.626 -0.3882 -0.8627  1.5385
52865SOL     OW65452   0.954   3.933   9.018 -0.2152 -0.5991 -0.8811
52865SOL    HW165453   0.975   4.024   9.034  0.7113 -0.8923 -0.3813
52865SOL    HW265454   0.886   3.912   9.082 -1.2052  0.0053 -1.6868
52866SOL     OW65455  10.184   5.663   8.137  0.2191 -0.9801  0.0883
52866SOL    HW165456  10.227   5.749   8.133 -2.8892  0.7192 -0.0008
52866SOL    HW265457  10.198   5.626   8.050  2.8051 -1.3055  0.5528
52867SOL     OW65458  10.513   4.356  10.065  0.5892  0.1110 -0.3589
52867SOL    HW165459  10.554   4.442  10.060 -0.6803  0.8525  1.1306
52867SOL    HW265460  10.422   4.372  10.041  0.0787 -0.5766  1.0197
52868SOL     OW65461   1.289   1.509   1.153 -0.7076 -0.4740 -0.1153
52868SOL    HW165462   1.362   1.518   1.214  0.0912  1.0251 -1.2322
52868SOL    HW265463   1.326   1.462   1.078 -0.4080  1.5678 -1.3282
52869SOL     OW65464   1.120  10.020   7.637  0.1051  0.0122 -0.3350
52869SOL    HW165465   1.027  10.011   7.660  0.1971  1.8152  0.8894
52869SOL    HW265466   1.121  10.015   7.541 -1.0797 -1.2401 -0.3203
52870SOL     OW65467   5.233  10.437   7.524  0.6905  0.1184 -0.4230
52870SOL    HW165468   5.270  10.522   7.548  0.4047  0.0423  0.3371
52870SOL    HW265469   5.310  10.382   7.506  0.8510  0.8643 -2.1694
52871SOL     OW65470   1.296   6.823   1.854  0.0606 -0.4290 -0.0104
52871SOL    HW165471   1.341   6.790   1.932  0.1126  1.6038  0.8870
52871SOL    HW265472   1.297   6.918   1.864 -1.4638 -0.1791 -1.6504
52872SOL     OW65473   0.980   4.330   1.776  0.6665 -0.5916  0.4270
52872SOL    HW165474   0.979   4.315   1.871 -0.2886  0.6212  0.6328
52872SOL    HW265475   0.923   4.261   1.741 -0.0336 -0.2612  0.8876
52873SOL     OW65476   4.781  11.900   5.840 -0.1465  1.0126 -1.0272
52873SOL    HW165477   4.858  11.917   5.785  0.0610 -1.2785 -1.5539
52873SOL    HW265478   4.707  11.913   5.781  0.0976 -2.6199 -2.4465
52874SOL     OW65479   5.740  10.952   8.704 -0.4349  0.0572 -0.0324
52874SOL    HW165480   5.764  10.910   8.786  0.0419  0.5827  0.1012
52874SOL    HW265481   5.789  11.035   8.704 -1.4302  0.6599 -0.2409
52875SOL     OW65482   5.584   9.991   8.615  0.4135 -0.0318 -0.0108
52875SOL    HW165483   5.680   9.990   8.612  0.4691 -0.8164  1.2208
52875SOL    HW265484   5.564  10.008   8.707 -0.6581  1.7265 -0.5061
52876SOL     OW65485   4.868   5.056   0.686 -0.1852  0.6987  0.4107
52876SOL    HW165486   4.934   5.121   0.663 -0.6788  0.7919 -0.8215
52876SOL    HW265487   4.878   4.988   0.620  0.3205 -0.4988  1.6812
52877SOL     OW65488   7.559   8.822   8.401  0.2745  0.8180  0.2821
52877SOL    HW165489   7.473   8.842   8.438  0.0000 -1.3428  0.9352
52877SOL    HW265490   7.614   8.803   8.477  0.8965  0.6211 -0.2028
52878SOL     OW65491  11.915   4.153   3.866 -0.0014  0.1014 -0.0924
52878SOL    HW165492  11.839   4.115   3.820 -0.9054  1.8438 -0.1267
52878SOL    HW265493  11.894   4.247   3.872  0.2510  0.0471  3.5210
52879SOL     OW65494   6.302   8.165   0.437 -0.5876  0.4819  0.1357
52879SOL    HW165495   6.291   8.247   0.389  0.0766  0.5822  0.1350
52879SOL    HW265496   6.374   8.183   0.498 -0.4604 -0.0852  0.1605
52880SOL     OW65497   3.777   2.293   3.000  0.9353 -0.6633  0.0687
52880SOL    HW165498   3.830   2.334   2.932 -0.0207  3.0195  1.3065
52880SOL    HW265499   3.838   2.277   3.072  1.1123 -0.1665  0.0321
52881SOL     OW65500   5.521   5.253   0.702  0.3890  0.5075  0.1819
52881SOL    HW165501   5.509   5.306   0.781  2.6912 -1.0138  1.6886
52881SOL    HW265502   5.603   5.206   0.718 -1.7140 -3.9903 -0.6746
52882SOL     OW65503   3.837   7.038   3.888  0.0116  0.1493 -0.4162
52882SOL    HW165504   3.774   7.027   3.959  0.8368  0.8627  0.4470
52882SOL    HW265505   3.862   6.949   3.864 -0.9323 -0.1244 -0.4221
52883SOL     OW65506   1.908  10.773   0.845 -1.3514 -0.1937 -0.1812
52883SOL    HW165507   1.951  10.703   0.893 -1.4584  0.6441  1.1971
52883SOL    HW265508   1.914  10.747   0.753  0.9745 -0.7267  0.0584
52884SOL     OW65509   2.616   2.148   8.533 -0.0075 -0.9459 -0.1326
52884SOL    HW165510   2.607   2.133   8.438  0.7495  0.6381 -0.4821
52884SOL    HW265511   2.710   2.150   8.548 -0.1144 -0.3534  0.5003
52885SOL     OW65512   1.660   6.996   0.609 -0.3685 -0.8274  0.2545
52885SOL    HW165513   1.612   6.962   0.685 -2.2590  0.2122 -0.4044
52885SOL    HW265514   1.593   7.036   0.554  1.4651  2.9633  0.4345
52886SOL     OW65515   3.437   4.179   9.911  0.4960  0.3918 -0.6471
52886SOL    HW165516   3.401   4.196   9.824  0.5884  1.4160 -0.4898
52886SOL    HW265517   3.406   4.252   9.965 -0.0064 -0.4993  0.3180
52887SOL     OW65518   7.890   6.563   7.616 -0.6201 -0.4974 -0.7823
52887SOL    HW165519   7.856   6.651   7.629  0.9285  0.0023  0.0809
52887SOL    HW265520   7.888   6.523   7.703  1.0987 -0.3778 -0.6492
52888SOL     OW65521   4.098   3.081   8.444 -0.4111  0.1114  0.5392
52888SOL    HW165522   4.078   3.125   8.526 -2.9875  2.2488 -1.0925
52888SOL    HW265523   4.189   3.105   8.425  0.0864 -0.0870  2.5072
52889SOL     OW65524   7.357   2.042   9.272 -0.1063 -0.0928 -0.6390
52889SOL    HW165525   7.304   2.027   9.193 -1.3377  3.1298 -0.5741
52889SOL    HW265526   7.297   2.083   9.334  1.6787  0.6372  0.6950
52890SOL     OW65527   9.790   5.426   4.112  0.0707 -0.1239 -0.5399
52890SOL    HW165528   9.799   5.331   4.100  3.1858 -0.0230  0.2885
52890SOL    HW265529   9.879   5.458   4.119 -0.9272  2.4750  2.3590
52891SOL     OW65530   0.520   1.380   5.209 -0.3799  0.1006  0.3944
52891SOL    HW165531   0.451   1.398   5.144  0.3775  2.4214  0.1109
52891SOL    HW265532   0.564   1.302   5.177  0.4399  1.5698 -2.4365
52892SOL     OW65533   4.881   8.202   2.341  0.2000  0.3950  0.2229
52892SOL    HW165534   4.798   8.157   2.350  0.2290  0.2396 -0.2254
52892SOL    HW265535   4.868   8.262   2.267 -0.6426  2.9819  2.2916
52893SOL     OW65536  12.362  11.625   1.051  0.1829 -0.2896 -0.4856
52893SOL    HW165537  12.348  11.530   1.048 -0.9871 -0.1974  0.8766
52893SOL    HW265538  12.298  11.660   0.989  0.7131 -0.3797 -1.0970
52894SOL     OW65539   7.135   8.596   9.761 -0.1314  0.0947 -0.9179
52894SOL    HW165540   7.202   8.583   9.694 -0.6078 -0.5348 -1.2855
52894SOL    HW265541   7.090   8.677   9.736  1.0870  1.0431 -0.1456
52895SOL     OW65542   6.110   9.043   5.133 -0.1546  0.3168  0.1367
52895SOL    HW165543   6.082   9.073   5.220  0.9981 -1.0249  1.0165
52895SOL    HW265544   6.198   9.079   5.123  0.6931 -1.5206  0.6126
52896SOL     OW65545   8.071  10.526  11.353  0.0692 -0.3309  0.4646
52896SOL    HW165546   8.125  10.596  11.318 -0.4883  0.3791  1.0100
52896SOL    HW265547   8.094  10.449  11.300  1.0614  0.1294  0.2114
52897SOL     OW65548   0.860   6.322   0.280  0.3597  0.3366  0.6248
52897SOL    HW165549   0.911   6.388   0.233 -0.2069  0.3148 -0.0461
52897SOL    HW265550   0.814   6.372   0.348  1.1341  0.3802  1.1235
52898SOL     OW65551   9.871   6.117  11.735 -0.5283 -0.4376 -0.2608
52898SOL    HW165552   9.923   6.196  11.748 -1.2174  0.1635 -1.1063
52898SOL    HW265553   9.907   6.055  11.798 -0.1000  0.6019  0.5510
52899SOL     OW65554  11.004   1.810   2.682  0.0546  0.2326 -0.1905
52899SOL    HW165555  10.990   1.793   2.775  1.7990  1.6297  0.4016
52899SOL    HW265556  11.061   1.739   2.653  1.4212  1.0231  0.4439
52900SOL     OW65557   4.455   2.025   5.197  0.4796 -0.0371  0.0535
52900SOL    HW165558   4.475   2.085   5.269  0.3196  0.3526 -0.2205
52900SOL    HW265559   4.490   1.941   5.226  1.4995  0.3751  0.0630
52901SOL     OW65560   3.835   3.368   9.272 -0.5016  0.3211  0.2827
52901SOL    HW165561   3.866   3.378   9.362  1.7916  1.4780 -0.5480
52901SOL    HW265562   3.885   3.295   9.237 -1.0250  0.1857 -0.1917
52902SOL     OW65563   4.219   5.179  10.034  0.0585  0.3922  0.2680
52902SOL    HW165564   4.261   5.249   9.985 -0.0397  0.7597  0.7105
52902SOL    HW265565   4.187   5.119   9.967  2.9044 -0.8844 -0.1137
52903SOL     OW65566   6.750   4.643   2.351 -0.0482  0.1947 -0.1573
52903SOL    HW165567   6.771   4.564   2.401  0.0632  0.4996  0.2838
52903SOL    HW265568   6.655   4.651   2.358 -0.1312 -0.2200 -0.6964
52904SOL     OW65569  10.505   5.624   3.661 -0.0038  1.0204  0.2749
52904SOL    HW165570  10.450   5.702   3.655 -2.3873 -0.5823 -0.2682
52904SOL    HW265571  10.501   5.599   3.753 -1.0119  0.4126  0.0881
52905SOL     OW65572   0.793   0.279   1.660  0.4669 -0.2587  0.6634
52905SOL    HW165573   0.779   0.373   1.656  2.3155  0.0125 -1.0556
52905SOL    HW265574   0.714   0.241   1.622  0.5462  0.7249 -0.5569
52906SOL     OW65575   3.406  12.007   6.950 -0.1066  0.5496  0.1291
52906SOL    HW165576   3.444  11.978   7.033  2.9837 -0.0947 -1.3637
52906SOL    HW265577   3.368  11.928   6.912  1.4914  0.0333 -0.4980
52907SOL     OW65578   6.716  10.678   0.930 -0.1199  0.1417  0.1444
52907SOL    HW165579   6.770  10.716   1.000 -1.6619  0.1805  1.3544
52907SOL    HW265580   6.774  10.613   0.889  0.7243 -0.1469  1.6949
52908SOL     OW65581   9.095  11.524   2.105 -0.5423  0.6251  0.2415
52908SOL    HW165582   9.057  11.506   2.019 -2.9519 -1.1432  1.5516
52908SOL    HW265583   9.064  11.612   2.128 -1.8025  0.2168  0.1946
52909SOL     OW65584   4.869   1.849  11.225 -0.1908 -0.3730 -0.0475
52909SOL    HW165585   4.949   1.829  11.178  1.7674  0.4667  2.6468
52909SOL    HW265586   4.834   1.764  11.252  2.1815 -0.7505  2.2482
52910SOL     OW65587   0.652   9.457   3.863 -0.1812 -0.2271  0.9659
52910SOL    HW165588   0.586   9.418   3.806 -1.7720  3.0249  0.3732
52910SOL    HW265589   0.725   9.479   3.804 -1.7241  2.9061  0.0055
52911SOL     OW65590   6.346   9.815   2.329 -0.4014  0.1707 -0.3089
52911SOL    HW165591   6.357   9.850   2.417  1.5577 -0.6563 -0.1675
52911SOL    HW265592   6.251   9.811   2.316 -0.7063  1.6435  1.1936
52912SOL     OW65593   4.471  12.479  11.492 -0.5710  0.0917  0.2824
52912SOL    HW165594   4.437  12.468  11.403  0.1815  0.9497 -0.1186
52912SOL    HW265595   4.433  12.561  11.522 -0.0967  0.2596  0.4194
52913SOL     OW65596   8.919   7.169  12.419  0.0244 -0.1355 -0.2473
52913SOL    HW165597   8.990   7.126  12.467  1.7898  0.3841 -2.2632
52913SOL    HW265598   8.890   7.104  12.355 -0.3436  0.1687 -0.3955
52914SOL     OW65599  11.786  11.469  11.666 -0.1087  0.1521 -0.4219
52914SOL    HW165600  11.847  11.498  11.734  0.5016  0.7954 -1.2383
52914SOL    HW265601  11.734  11.547  11.646  2.0290  1.0236 -3.1534
52915SOL     OW65602   7.504   7.453   2.314 -0.2362  0.2656  0.1816
52915SOL    HW165603   7.455   7.445   2.232 -2.4105 -0.6127  1.4737
52915SOL    HW265604   7.596   7.452   2.288 -0.8478 -0.8908 -2.1547
52916SOL     OW65605  10.603   8.942   2.546  0.1710 -0.6138  0.7201
52916SOL    HW165606  10.600   8.846   2.537 -0.0941 -0.4898 -0.6652
52916SOL    HW265607  10.527   8.963   2.600  0.3909 -1.1945  1.2819
52917SOL     OW65608   1.816  12.469   2.463  0.5779  0.1887 -0.2559
52917SOL    HW165609   1.861  12.554   2.460  0.7457  0.2203  1.6527
52917SOL    HW265610   1.835  12.435   2.550  0.1629 -1.6423 -0.8359
52918SOL     OW65611   9.928  10.647   4.270 -0.0127 -0.4428  0.2520
52918SOL    HW165612   9.927  10.727   4.323 -0.5893 -0.7849  0.7722
52918SOL    HW265613  10.002  10.658   4.210  0.1344  0.3168  0.5701
52919SOL     OW65614  10.182   6.930   4.343 -0.6565  0.6821  0.7326
52919SOL    HW165615  10.215   7.010   4.301 -0.7371  0.2008 -0.2905
52919SOL    HW265616  10.219   6.932   4.431  1.3479  0.6445 -0.0466
52920SOL     OW65617   6.777   7.183   4.246  0.7687  0.4203  0.1863
52920SOL    HW165618   6.835   7.160   4.319  1.5794 -1.4757 -0.9829
52920SOL    HW265619   6.801   7.273   4.224  1.0369  0.7712  1.7354
52921SOL     OW65620   9.029   1.983   9.921 -0.6812  0.1962 -0.4441
52921SOL    HW165621   9.069   1.982   9.834  1.7932 -0.9389  0.5957
52921SOL    HW265622   9.006   1.891   9.937 -0.3013  0.2433  0.4188
52922SOL     OW65623  11.658   3.572   9.229  0.1489  0.6137  0.0785
52922SOL    HW165624  11.664   3.566   9.324 -2.2774  4.0749  0.6362
52922SOL    HW265625  11.565   3.560   9.210  0.4161  1.1086 -1.6968
52923SOL     OW65626   6.558   7.603   3.899 -0.1675  0.4025 -0.4778
52923SOL    HW165627   6.581   7.596   3.807 -0.6777 -0.6510 -0.5402
52923SOL    HW265628   6.545   7.513   3.928  1.5582  0.5765  1.0470
52924SOL     OW65629  11.910   8.423  10.089  0.2954  0.0148 -0.9390
52924SOL    HW165630  12.003   8.446  10.094  0.0570  0.9661 -0.6692
52924SOL    HW265631  11.875   8.442  10.176 -0.3950  0.8271 -1.3730
52925SOL     OW65632   0.067   0.429   4.289 -0.4948 -0.0691 -0.1022
52925SOL    HW165633   0.137   0.393   4.235 -0.7813 -1.2022  0.2486
52925SOL    HW265634   0.024   0.352   4.326 -0.2740  0.6552  1.7702
52926SOL     OW65635   6.171   8.700   5.700  0.0052 -0.2966 -0.3711
52926SOL    HW165636   6.159   8.649   5.620 -1.4898  0.7832 -0.9004
52926SOL    HW265637   6.218   8.779   5.671 -1.8544  0.8111 -0.5452
52927SOL     OW65638   1.847  10.299   4.483  0.3324 -0.5828 -0.3832
52927SOL    HW165639   1.832  10.310   4.577  0.4791  1.0975 -0.5242
52927SOL    HW265640   1.816  10.381   4.444  3.0248  0.0156 -1.4619
52928SOL     OW65641   3.792  11.370  10.951 -0.2500  0.1296 -0.4539
52928SOL    HW165642   3.840  11.299  10.994 -0.6273 -0.0501 -0.3246
52928SOL    HW265643   3.849  11.397  10.879  0.5164  0.6112  0.3122
52929SOL     OW65644   0.353   4.653   9.287  0.0925  0.2909 -0.1934
52929SOL    HW165645   0.262   4.677   9.269 -0.4085 -2.5384 -2.1939
52929SOL    HW265646   0.347   4.578   9.347  1.1518  0.6802  0.4165
52930SOL     OW65647   9.021   1.061  12.391  0.0199  0.0829  0.5195
52930SOL    HW165648   9.005   1.040  12.483  2.8615 -0.8726  0.8866
52930SOL    HW265649   9.032   1.156  12.389  0.5501  0.0411  1.2861
52931SOL     OW65650   2.067  11.012   0.833 -0.1833 -0.3450 -0.1957
52931SOL    HW165651   2.008  10.953   0.880 -3.0041  2.4059  0.0690
52931SOL    HW265652   2.028  11.023   0.747 -0.4849  1.9799  0.1646
52932SOL     OW65653  10.588   1.369   1.745 -0.1270  0.0973  0.0874
52932SOL    HW165654  10.665   1.318   1.720 -0.5225  0.5730 -2.2914
52932SOL    HW265655  10.514   1.319   1.710 -0.7454  0.7094  0.4963
52933SOL     OW65656   4.008   3.986   4.034 -0.4285 -0.0552  0.0164
52933SOL    HW165657   4.037   3.927   3.964 -0.5936 -0.0547 -0.0541
52933SOL    HW265658   3.926   4.022   4.002 -0.7537 -0.4258  0.4146
52934SOL     OW65659   3.068   7.271   3.801 -0.1388 -0.7879  0.0965
52934SOL    HW165660   3.124   7.331   3.849 -2.4546  0.9427  0.8282
52934SOL    HW265661   3.076   7.298   3.709 -0.0589 -0.3108  0.2454
52935SOL     OW65662   0.061   9.508   8.369 -0.0538  0.6030  0.1925
52935SOL    HW165663   0.097   9.522   8.456 -2.3400  1.6188  1.0565
52935SOL    HW265664   0.091   9.583   8.318  2.5276 -0.7240 -0.4344
52936SOL     OW65665   8.494   1.577   8.820 -0.1059 -0.4232  0.0065
52936SOL    HW165666   8.457   1.650   8.870  0.4933  0.2433 -0.4912
52936SOL    HW265667   8.461   1.591   8.731  1.0931  0.0243 -0.3854
52937SOL     OW65668   3.736   5.210   5.353 -0.2911 -0.4217 -0.5397
52937SOL    HW165669   3.775   5.189   5.268  1.7834 -1.8206  0.6773
52937SOL    HW265670   3.793   5.168   5.417  0.1337  3.1972  1.7939
52938SOL     OW65671  11.219   1.353  10.639 -0.1255 -0.0953 -0.3144
52938SOL    HW165672  11.269   1.376  10.718  0.7765 -0.2837 -0.8081
52938SOL    HW265673  11.175   1.271  10.661  0.0110 -0.0793  0.0338
52939SOL     OW65674  11.912   1.679  10.294  0.5062  0.5347 -0.5118
52939SOL    HW165675  11.823   1.645  10.298  0.5106  0.0779 -2.9483
52939SOL    HW265676  11.968   1.605  10.318  0.2836  0.6119  0.2710
52940SOL     OW65677  11.938   7.305   5.961 -0.2084  0.2266  0.1831
52940SOL    HW165678  11.886   7.354   5.898  0.1573 -0.3972 -0.6364
52940SOL    HW265679  11.896   7.219   5.964 -0.8436  0.5673  1.5949
52941SOL     OW65680   7.035   8.778   8.676 -0.0858 -0.1607 -0.0132
52941SOL    HW165681   7.004   8.689   8.693  1.2814 -0.8584 -1.0156
52941SOL    HW265682   7.096   8.796   8.747 -2.0335  0.9189  1.5150
52942SOL     OW65683   2.120   2.933   0.938 -1.0861 -0.1610 -0.1993
52942SOL    HW165684   2.172   2.879   0.997  0.1526  1.3650  0.1643
52942SOL    HW265685   2.182   2.964   0.872 -1.4994  1.6017  0.1727
52943SOL     OW65686   1.617   0.696   5.128  0.1693  0.3875  0.4401
52943SOL    HW165687   1.536   0.679   5.080  0.2753  0.3261  0.2813
52943SOL    HW265688   1.590   0.704   5.219  0.0255  0.0322  0.4325
52944SOL     OW65689   4.268   7.008   3.157 -0.2162  0.5955  0.0950
52944SOL    HW165690   4.305   7.008   3.245  1.8478 -0.8419 -0.6898
52944SOL    HW265691   4.207   6.934   3.156  1.3102 -0.7158 -0.2109
52945SOL     OW65692   2.045   2.459   5.347  0.0120  0.0540  0.1671
52945SOL    HW165693   2.077   2.424   5.264 -0.3139  0.5639 -0.1808
52945SOL    HW265694   2.074   2.550   5.347 -0.2364  0.1352  0.4766
52946SOL     OW65695   4.720  10.392   4.035 -0.4100  0.0070 -0.9642
52946SOL    HW165696   4.805  10.435   4.027  0.5996 -1.6727  0.0599
52946SOL    HW265697   4.658  10.463   4.046  1.2123  1.2171  0.9980
52947SOL     OW65698   3.099   5.847  11.812 -0.1121  0.4710 -0.3095
52947SOL    HW165699   3.050   5.923  11.780  0.1122  0.1372 -1.4572
52947SOL    HW265700   3.054   5.772  11.775 -0.9020 -0.0413  1.5835
52948SOL     OW65701  11.111   9.966   4.685  0.0519  0.2009  0.3119
52948SOL    HW165702  11.082  10.056   4.700 -0.0788  0.1477  0.3827
52948SOL    HW265703  11.035   9.912   4.707 -0.2763  0.1428 -0.8975
52949SOL     OW65704   8.330   0.586   2.337 -0.2698 -0.2472 -0.6083
52949SOL    HW165705   8.424   0.598   2.352  0.3804 -2.0238 -2.7593
52949SOL    HW265706   8.297   0.550   2.420  0.7356  1.1796  0.4580
52950SOL     OW65707   0.183   5.478   7.396 -0.0136  0.0447 -0.0497
52950SOL    HW165708   0.130   5.553   7.423  2.0105  1.8457 -0.7258
52950SOL    HW265709   0.207   5.434   7.477 -3.4205 -1.5972  0.2292
52951SOL     OW65710  11.400   8.045   1.087 -0.0335 -0.4713 -0.1147
52951SOL    HW165711  11.424   7.992   1.012 -2.1644 -1.1959 -0.3278
52951SOL    HW265712  11.324   8.001   1.126 -1.2275  1.8040  0.3353
52952SOL     OW65713  10.510   6.415   8.789  0.2262  0.7467  0.2639
52952SOL    HW165714  10.457   6.494   8.805  0.3271  1.6850 -3.1304
52952SOL    HW265715  10.596   6.436   8.826 -0.7708  0.5750  2.8442
52953SOL     OW65716   1.148   1.787   5.079 -0.7371 -0.0436  0.2346
52953SOL    HW165717   1.071   1.842   5.059 -1.0256 -0.2321  0.7849
52953SOL    HW265718   1.162   1.801   5.173  1.3003  1.7648 -0.2710
52954SOL     OW65719   9.522   5.297   3.600 -0.9347 -0.2396 -0.1013
52954SOL    HW165720   9.475   5.380   3.607 -2.4219 -1.0528  0.1277
52954SOL    HW265721   9.543   5.289   3.507  0.3693  0.9585  0.0591
52955SOL     OW65722   8.642   6.775  11.496  0.1219  0.7824  0.1595
52955SOL    HW165723   8.567   6.829  11.520 -0.9132 -0.7343  0.4884
52955SOL    HW265724   8.718   6.829  11.517 -0.8621  2.0142  0.6711
52956SOL     OW65725   8.267   0.535  10.940 -0.4615 -0.7660 -0.4535
52956SOL    HW165726   8.237   0.456  10.985 -0.0180  0.5244  2.2866
52956SOL    HW265727   8.355   0.513  10.910  0.4071 -0.8009  1.9180
52957SOL     OW65728   0.718   5.931   8.888 -0.6424  0.2361  0.1134
52957SOL    HW165729   0.638   5.955   8.936 -1.2537 -0.2084 -0.6489
52957SOL    HW265730   0.789   5.944   8.951 -1.4933 -1.0581  1.4119
52958SOL     OW65731   9.995   6.405  10.885  0.3750  0.2121  0.6719
52958SOL    HW165732  10.055   6.341  10.848  1.0785  0.3757  1.4832
52958SOL    HW265733   9.908   6.366  10.875  0.4294  0.5415 -1.7296
52959SOL     OW65734  10.765   1.746   9.000 -0.0206  0.6426  0.0367
52959SOL    HW165735  10.786   1.808   8.931 -1.1733 -1.9328 -2.8472
52959SOL    HW265736  10.833   1.679   8.995 -1.7101 -1.1265 -0.7645
52960SOL     OW65737  10.350   8.333   3.626  0.3592 -0.3631 -0.3443
52960SOL    HW165738  10.375   8.395   3.557 -2.1832 -0.4703 -1.4823
52960SOL    HW265739  10.315   8.387   3.696 -2.2277 -0.3743 -1.4961
52961SOL     OW65740   5.442   0.549   9.706  0.4032 -0.0066 -0.1444
52961SOL    HW165741   5.368   0.517   9.757  1.3767  0.8226  1.9173
52961SOL    HW265742   5.468   0.475   9.651 -1.6192 -0.4538 -0.5748
52962SOL     OW65743  11.001   4.505   2.065  0.4945  0.3012 -0.2220
52962SOL    HW165744  10.989   4.585   2.115  1.0283 -0.0810  0.5450
52962SOL    HW265745  10.958   4.437   2.118 -1.4915  0.3336 -1.6972
52963SOL     OW65746   3.533   9.415   5.749 -0.0357 -0.4193 -0.0509
52963SOL    HW165747   3.569   9.502   5.732 -1.3750  0.1668 -0.0593
52963SOL    HW265748   3.535   9.406   5.844  3.3543 -1.8824 -0.1190
52964SOL     OW65749   3.189  11.788   3.477 -0.4154  0.2952  0.1978
52964SOL    HW165750   3.213  11.745   3.559  2.4216 -3.0099 -2.1123
52964SOL    HW265751   3.256  11.856   3.466  0.5367 -0.7083 -0.3554
52965SOL     OW65752   0.342   9.656   3.893 -0.1197 -0.2676  0.4694
52965SOL    HW165753   0.259   9.650   3.940 -0.5198  0.2011 -0.1538
52965SOL    HW265754   0.367   9.748   3.901  0.4355 -0.4443  0.8093
52966SOL     OW65755  10.598   6.446   9.568  0.0258  0.2100 -0.6436
52966SOL    HW165756  10.583   6.532   9.609 -0.5476  1.0552 -2.5051
52966SOL    HW265757  10.566   6.383   9.632 -1.7794  1.5104 -0.1831
52967SOL     OW65758   0.107   2.752   3.744  0.1837 -0.3500 -0.3622
52967SOL    HW165759   0.159   2.672   3.737 -0.6705 -0.8562 -1.1526
52967SOL    HW265760   0.025   2.723   3.783  0.5091  0.4562  0.9678
52968SOL     OW65761   1.212  10.649   4.763 -0.2718 -0.2230 -0.5744
52968SOL    HW165762   1.150  10.720   4.780 -1.4370 -0.7042 -2.5054
52968SOL    HW265763   1.175  10.574   4.809 -0.6628 -0.2936 -0.9977
52969SOL     OW65764   2.520   2.965   9.385  0.3457  0.5493  0.0563
52969SOL    HW165765   2.476   2.903   9.443  0.3234  1.2964  0.8617
52969SOL    HW265766   2.497   2.936   9.296 -1.2581  0.5513  0.4421
52970SOL     OW65767  12.073   0.906   1.488 -0.1990  0.4298  0.0346
52970SOL    HW165768  12.124   0.870   1.416  2.2940  1.7538  1.0127
52970SOL    HW265769  12.061   0.998   1.465 -1.1806  0.4026  0.3838
52971SOL     OW65770  11.775   5.386   4.132  0.2029 -0.7058  0.1724
52971SOL    HW165771  11.729   5.310   4.095  0.5938 -0.3614 -1.0573
52971SOL    HW265772  11.855   5.349   4.169  0.2486 -0.9391 -0.1517
52972SOL     OW65773   1.909   3.842   3.267  0.1640  0.1302  0.5419
52972SOL    HW165774   1.978   3.904   3.292 -0.6707  1.6195 -0.6747
52972SOL    HW265775   1.835   3.897   3.243 -0.7044 -1.3624 -0.3596
52973SOL     OW65776   9.591   4.731   0.654 -0.5597 -0.5122  0.3799
52973SOL    HW165777   9.616   4.639   0.650  0.4711 -0.2316 -0.3478
52973SOL    HW265778   9.666   4.777   0.616 -1.4509  0.5495 -0.1516
52974SOL     OW65779   9.227   9.725   8.032 -0.0280  0.4909  0.1864
52974SOL    HW165780   9.169   9.658   7.995  0.0479  1.2081 -1.2983
52974SOL    HW265781   9.189   9.746   8.117 -0.8278 -0.4496  0.0738
52975SOL     OW65782   6.647   8.556   1.439  0.5030 -0.4005  0.3182
52975SOL    HW165783   6.649   8.651   1.439 -0.6444 -0.3480 -0.4384
52975SOL    HW265784   6.555   8.534   1.452  0.7104 -1.4012  0.2023
52976SOL     OW65785   4.122   7.025  10.293  0.4886 -0.0576  0.0803
52976SOL    HW165786   4.165   6.958  10.346  1.3258 -0.4581 -1.0794
52976SOL    HW265787   4.037   7.039  10.337  0.2974 -1.8483  0.3496
52977SOL     OW65788   8.373   3.299  10.713 -0.2961  0.1700 -0.3208
52977SOL    HW165789   8.460   3.337  10.701 -0.8526  1.7827  0.5265
52977SOL    HW265790   8.367   3.282  10.807 -1.7151  2.2633  0.0273
52978SOL     OW65791   9.339   9.336   4.679  0.0788 -0.1956 -0.0488
52978SOL    HW165792   9.384   9.251   4.688  1.6068  0.4161 -1.3913
52978SOL    HW265793   9.334   9.350   4.584  1.7873  2.1403  0.1094
52979SOL     OW65794   3.409  12.368   6.787 -0.3494 -0.4619 -0.3817
52979SOL    HW165795   3.474  12.312   6.831 -1.1178 -1.6749 -0.7700
52979SOL    HW265796   3.427  12.358   6.694  0.3785  1.0296 -0.4360
52980SOL     OW65797  10.697  11.355   1.326 -0.3180 -0.3084 -0.3039
52980SOL    HW165798  10.689  11.285   1.390  0.0844  0.0655  0.1582
52980SOL    HW265799  10.705  11.310   1.242  2.2769 -0.9102  0.1832
52981SOL     OW65800  12.031   8.004  10.888  0.1656  0.2292  0.0475
52981SOL    HW165801  12.087   8.080  10.906 -1.4434  1.3419  0.5491
52981SOL    HW265802  12.039   7.991  10.794  0.1448  1.2932 -0.1171
52982SOL     OW65803   3.419  11.876   3.280  0.0625  0.0048  0.4637
52982SOL    HW165804   3.461  11.822   3.346  0.2003 -0.1360  0.2639
52982SOL    HW265805   3.460  11.849   3.197 -2.1124 -1.9100 -0.0997
52983SOL     OW65806   0.607   5.948   9.338 -0.0360  0.3423  0.2787
52983SOL    HW165807   0.536   5.905   9.387 -0.6041  0.8414 -0.0936
52983SOL    HW265808   0.664   5.984   9.406 -1.6976  2.4993  0.6392
52984SOL     OW65809   4.341   7.141  10.495 -0.3914 -0.1312  0.1799
52984SOL    HW165810   4.317   7.090  10.572  0.0779  0.9291  1.0587
52984SOL    HW265811   4.389   7.080  10.440 -1.9627 -1.3044  0.0307
52985SOL     OW65812  11.110   3.492   5.624  0.9081 -0.2007  0.2006
52985SOL    HW165813  11.049   3.469   5.695  0.5698  0.5954  0.1789
52985SOL    HW265814  11.196   3.471   5.660  0.7185 -0.0804  0.7382
52986SOL     OW65815   8.877   0.076   0.151 -0.3691  0.7496 -0.4763
52986SOL    HW165816   8.952   0.086   0.209 -0.7115 -2.6540  0.7821
52986SOL    HW265817   8.830   0.160   0.156 -0.1801  0.8060  3.9085
52987SOL     OW65818   6.470   1.758  10.657  0.5679 -0.6024 -0.0503
52987SOL    HW165819   6.400   1.815  10.624  0.3455  0.0757  1.4895
52987SOL    HW265820   6.547   1.815  10.662  0.5140 -0.5867  0.8586
52988SOL     OW65821   2.974   4.871   3.034  0.5368 -0.7427 -0.0196
52988SOL    HW165822   2.886   4.886   3.000  1.0454 -1.4572 -1.7742
52988SOL    HW265823   2.971   4.900   3.125 -1.3896 -0.3766 -0.1777
52989SOL     OW65824   8.485   1.602   5.880 -0.5339 -0.0396  0.6552
52989SOL    HW165825   8.544   1.540   5.923 -0.8920 -0.9548 -0.1612
52989SOL    HW265826   8.501   1.685   5.926  0.0598 -0.6859  1.6536
52990SOL     OW65827   5.676   9.757   6.655  0.2515 -0.6713 -0.4890
52990SOL    HW165828   5.726   9.777   6.734  0.3372 -0.9642 -0.4693
52990SOL    HW265829   5.626   9.837   6.638 -0.3955 -0.8849  0.3252
52991SOL     OW65830   3.043   4.448  10.351  0.0913  0.1739  0.4938
52991SOL    HW165831   3.044   4.491  10.436  0.3661  0.9892  0.0974
52991SOL    HW265832   3.073   4.516  10.290  0.1684 -0.4770 -0.2111
52992SOL     OW65833  12.396   3.738  10.252 -0.4286  0.0847 -0.3909
52992SOL    HW165834  12.303   3.719  10.242 -0.4563  0.7972 -1.7640
52992SOL    HW265835  12.440   3.662  10.215 -0.3248 -1.7768  3.0945
52993SOL     OW65836   3.693  12.320  12.278 -0.5469 -0.0652  0.4890
52993SOL    HW165837   3.638  12.349  12.205  1.7017  1.9782 -0.5402
52993SOL    HW265838   3.674  12.382  12.348  1.5898  1.7689 -0.4616
52994SOL     OW65839   2.185   2.660   8.569  0.2751  0.0455 -0.0201
52994SOL    HW165840   2.150   2.648   8.480 -1.6658  0.6927  0.6154
52994SOL    HW265841   2.120   2.620   8.626 -0.7553  3.3456  1.3771
52995SOL     OW65842   3.205   3.171   7.386  0.2768  0.3684 -0.1402
52995SOL    HW165843   3.267   3.147   7.454  1.3528  0.8196 -0.9259
52995SOL    HW265844   3.246   3.141   7.304 -0.0836  1.5108 -0.7648
52996SOL     OW65845   1.969   8.864   1.430  0.6553  0.3616  0.0229
52996SOL    HW165846   2.047   8.816   1.401 -0.3573 -0.8217 -0.8848
52996SOL    HW265847   1.898   8.800   1.420 -0.5771  1.7263 -0.1483
52997SOL     OW65848   0.225   0.696  12.197 -0.6209  0.3577 -0.3340
52997SOL    HW165849   0.210   0.601  12.202  1.3209 -0.0460 -1.1919
52997SOL    HW265850   0.151   0.734  12.244 -0.7364 -1.6351  1.2560
52998SOL     OW65851   2.960   9.755   1.008  0.1858  0.5223  0.4170
52998SOL    HW165852   2.969   9.810   0.931 -0.3296 -0.7897 -0.6049
52998SOL    HW265853   3.039   9.773   1.060  0.6854  1.1773 -0.5443
52999SOL     OW65854   2.063  12.078   9.047  0.1236  0.0622 -0.3181
52999SOL    HW165855   1.983  12.027   9.034  0.2671  0.0017 -0.9502
52999SOL    HW265856   2.038  12.168   9.026  0.0148  0.1760  0.2683
53000SOL     OW65857  10.849   3.580   0.105  0.3308 -0.0957 -0.8702
53000SOL    HW165858  10.852   3.636   0.027  1.5996 -0.0102 -0.7777
53000SOL    HW265859  10.859   3.491   0.070  2.5988  0.0364 -0.7425
53001SOL     OW65860  11.387   9.613   3.380  0.5440 -0.3772 -0.0756
53001SOL    HW165861  11.423   9.676   3.443  1.8219 -0.5444 -0.6033
53001SOL    HW265862  11.336   9.666   3.319 -2.0656 -0.3696  1.9281
53002SOL     OW65863   3.436   3.949   1.684 -0.4322 -0.7795 -0.3537
53002SOL    HW165864   3.414   4.042   1.690  2.8497  0.0339  1.4108
53002SOL    HW265865   3.409   3.912   1.768  1.3017 -0.5947  0.3181
53003SOL     OW65866   9.878   5.150  10.505  0.1732 -0.3010  0.0001
53003SOL    HW165867   9.823   5.224  10.480 -1.2921 -0.3733  2.7117
53003SOL    HW265868   9.966   5.188  10.514  0.0202  0.4555 -1.4433
53004SOL     OW65869   2.378  12.099   7.404 -0.1110 -0.1989 -0.0529
53004SOL    HW165870   2.326  12.021   7.422 -1.6875  0.5601 -1.0171
53004SOL    HW265871   2.370  12.112   7.309  2.5068 -0.4451 -0.3862
53005SOL     OW65872   3.588   6.125   4.962  0.3231  0.1303 -0.0246
53005SOL    HW165873   3.521   6.187   4.933  0.1789 -0.6423 -1.3890
53005SOL    HW265874   3.547   6.081   5.037 -1.2192 -1.1660 -1.5481
53006SOL     OW65875   5.815   1.052  11.586  0.1694 -0.0635  0.1737
53006SOL    HW165876   5.722   1.034  11.597  0.2591 -0.9511 -0.3752
53006SOL    HW265877   5.841   1.099  11.665 -0.9536  1.0663 -0.1121
53007SOL     OW65878   5.206  11.024  10.110 -0.1563 -0.3518 -0.4052
53007SOL    HW165879   5.125  10.996  10.153  0.5155 -1.3007  0.2915
53007SOL    HW265880   5.212  11.118  10.129 -1.6738  0.0040 -1.4702
53008SOL     OW65881  11.196   4.311   5.275 -0.9411  0.2043 -0.1892
53008SOL    HW165882  11.181   4.217   5.273 -1.6856  0.2852  0.9718
53008SOL    HW265883  11.191   4.337   5.183  0.6025 -1.0579 -0.6779
53009SOL     OW65884   6.382   4.427  10.650 -0.6476 -0.3166  0.4780
53009SOL    HW165885   6.391   4.502  10.592  2.0281  0.5998  1.8983
53009SOL    HW265886   6.344   4.463  10.730  1.8538 -0.0308  1.6638
53010SOL     OW65887   3.357   4.960   8.457 -0.0200 -0.3211  0.1672
53010SOL    HW165888   3.295   4.926   8.393 -0.3372  0.7607 -0.1298
53010SOL    HW265889   3.339   4.912   8.537 -1.1079 -0.1755  0.0270
53011SOL     OW65890   3.257   0.544   6.460 -0.5835 -0.0281 -0.0088
53011SOL    HW165891   3.216   0.603   6.524  1.0999  0.3338  0.7963
53011SOL    HW265892   3.244   0.588   6.376  1.9067  2.3747  0.7002
53012SOL     OW65893   9.706   9.176   0.366  0.0652  0.4652  0.1120
53012SOL    HW165894   9.736   9.097   0.412  0.0940  0.0211 -0.6541
53012SOL    HW265895   9.615   9.187   0.394 -0.2004 -0.3290 -0.4137
53013SOL     OW65896   6.156   4.056   2.608  0.0741  0.4415 -0.4121
53013SOL    HW165897   6.085   4.103   2.652 -2.3364 -1.1837 -2.3053
53013SOL    HW265898   6.206   4.016   2.680 -1.7025  0.5780  0.9598
53014SOL     OW65899   9.077   4.136   8.794 -1.0252 -0.2921  0.2241
53014SOL    HW165900   9.083   4.153   8.888 -1.4605  1.4577 -0.0277
53014SOL    HW265901   9.166   4.112   8.768 -0.5947  0.5826  0.8524
53015SOL     OW65902   9.675   9.606   1.788  0.4024  0.2911 -0.4735
53015SOL    HW165903   9.699   9.637   1.701 -0.1562  0.7225 -0.4766
53015SOL    HW265904   9.661   9.512   1.777  2.2199 -0.0201 -0.4432
53016SOL     OW65905  11.555   5.677   2.136  0.9574  0.0383 -0.3696
53016SOL    HW165906  11.554   5.614   2.208  1.6988 -1.2713 -1.4517
53016SOL    HW265907  11.625   5.646   2.078  1.7143  2.1801 -0.6861
53017SOL     OW65908   7.074   5.244  10.500  0.2069 -0.1379  0.9762
53017SOL    HW165909   7.115   5.282  10.578  0.2360 -0.4799  1.1321
53017SOL    HW265910   7.086   5.149  10.511 -0.3207 -0.2249  0.8567
53018SOL     OW65911   8.939   2.804   6.446 -0.0605  0.0427  0.5130
53018SOL    HW165912   9.018   2.792   6.500 -0.1645  1.7299  1.1017
53018SOL    HW265913   8.867   2.784   6.506 -0.1155 -0.3241  0.3250
53019SOL     OW65914   0.793   6.460   1.316 -0.3804 -0.0736 -0.2810
53019SOL    HW165915   0.860   6.409   1.363 -0.5182 -0.5819 -0.6247
53019SOL    HW265916   0.729   6.482   1.383 -0.0972  0.0257 -0.0391
53020SOL     OW65917   7.219   5.143   1.400 -0.1935  0.1082 -0.3717
53020SOL    HW165918   7.147   5.080   1.400 -0.4003  0.2961  1.4960
53020SOL    HW265919   7.176   5.229   1.403  0.1081  0.2554 -0.2070
53021SOL     OW65920   3.777   5.030   6.147 -0.4721  0.4452  0.7419
53021SOL    HW165921   3.738   4.957   6.196 -0.3695  0.5356  0.9606
53021SOL    HW265922   3.779   5.102   6.210  2.1037 -0.1692  1.4573
53022SOL     OW65923  10.235   0.936   7.488  1.0847  0.4762  0.5180
53022SOL    HW165924  10.328   0.930   7.505  1.2374 -1.3682 -0.6781
53022SOL    HW265925  10.226   1.009   7.427  1.8011  0.3303  0.2360
53023SOL     OW65926   7.779   7.929   3.234 -0.2547  0.0497  0.5045
53023SOL    HW165927   7.826   7.850   3.208 -0.1653  0.3938 -0.4285
53023SOL    HW265928   7.695   7.923   3.189  0.8028  1.8013 -1.9074
53024SOL     OW65929   1.105   3.021  11.374 -0.7150 -0.3530 -0.0222
53024SOL    HW165930   1.085   2.954  11.439 -1.7904  1.6303  1.7987
53024SOL    HW265931   1.031   3.017  11.313 -1.5318  0.1119  0.9085
53025SOL     OW65932   2.609   6.823   9.092  0.3102  0.2463 -0.1233
53025SOL    HW165933   2.523   6.817   9.049 -0.3317 -1.1537  1.2429
53025SOL    HW265934   2.637   6.913   9.076 -2.5605  1.5726  1.4150
53026SOL     OW65935   2.034   1.718   9.078 -0.4587  0.4136 -0.0032
53026SOL    HW165936   1.977   1.794   9.089 -1.4750 -0.0046 -1.9926
53026SOL    HW265937   2.120   1.755   9.060 -0.6302  1.0799  0.5090
53027SOL     OW65938   4.842   0.027   0.996  0.3415 -0.3385  0.2298
53027SOL    HW165939   4.900  -0.040   1.032  4.2860  1.9621 -1.1498
53027SOL    HW265940   4.795   0.061   1.072 -0.2700 -3.1951  1.2503
53028SOL     OW65941   3.703  10.408   8.118  0.2745 -0.1251 -0.2931
53028SOL    HW165942   3.731  10.467   8.048 -0.0770 -0.2832 -0.5680
53028SOL    HW265943   3.657  10.465   8.180  1.1723  0.1325  0.1485
53029SOL     OW65944  10.982   1.919   4.408  0.4653  0.7437  0.2585
53029SOL    HW165945  10.990   1.990   4.345  0.8756 -0.2021 -0.7817
53029SOL    HW265946  10.960   1.963   4.490 -0.5357  1.9746 -0.6136
53030SOL     OW65947   4.352   2.996   4.717 -0.5546  0.0302 -0.1293
53030SOL    HW165948   4.447   3.003   4.712 -0.6144  0.4740 -0.8109
53030SOL    HW265949   4.320   3.077   4.678 -1.2120 -0.2526 -0.1953
53031SOL     OW65950   7.806   9.045   2.891 -0.0710 -0.3976 -0.7575
53031SOL    HW165951   7.854   9.118   2.852  0.3160  0.8968  1.9133
53031SOL    HW265952   7.741   9.087   2.947  1.3466 -1.9986  2.2874
53032SOL     OW65953   3.411   8.417  11.956  0.5072 -0.4303 -0.1316
53032SOL    HW165954   3.411   8.321  11.958 -2.8110 -0.5839 -0.7988
53032SOL    HW265955   3.478   8.440  11.892  2.1162 -2.2028  0.8148
53033SOL     OW65956   6.039   4.238   3.447 -0.3253  0.0857 -0.0072
53033SOL    HW165957   6.132   4.244   3.424 -0.1476 -0.0952  0.6387
53033SOL    HW265958   5.995   4.298   3.386  0.6160  2.9932  1.9833
53034SOL     OW65959   2.636   2.556   8.650 -0.3256 -0.1243  0.4060
53034SOL    HW165960   2.573   2.489   8.622  0.8058 -1.0508  0.0193
53034SOL    HW265961   2.609   2.634   8.602  0.2270 -1.1202 -1.6380
53035SOL     OW65962   6.588  10.190   3.317  1.0713  0.6814  0.6977
53035SOL    HW165963   6.613  10.160   3.404 -0.7746 -2.9454  0.1655
53035SOL    HW265964   6.498  10.221   3.328  1.3938  1.7848  0.3396
53036SOL     OW65965   1.565   8.627  11.801 -0.2390  0.2428 -0.4106
53036SOL    HW165966   1.557   8.552  11.742 -0.4157  0.6570 -0.9238
53036SOL    HW265967   1.505   8.692  11.765  0.6272  0.9866 -0.5328
53037SOL     OW65968  10.096   4.842   3.646  0.0400 -0.1228 -0.0098
53037SOL    HW165969  10.090   4.803   3.559  1.0392 -0.5109  0.0807
53037SOL    HW265970  10.125   4.770   3.703 -2.4242 -0.3933  1.0504
53038SOL     OW65971   8.448   2.274   5.088  0.2553 -0.0884  0.6234
53038SOL    HW165972   8.466   2.231   5.172 -0.6460  0.1372  0.9465
53038SOL    HW265973   8.525   2.328   5.071  0.8126 -0.7848  0.8819
53039SOL     OW65974   2.929   8.660   6.538  0.1318  0.2816  0.2829
53039SOL    HW165975   2.886   8.577   6.560 -0.1071  1.0695  3.1648
53039SOL    HW265976   2.984   8.639   6.462  0.6906 -2.7045  1.3780
53040SOL     OW65977   2.327   5.471   7.488  0.2361 -0.0161 -0.0180
53040SOL    HW165978   2.279   5.458   7.569 -0.7496  0.7066 -0.4576
53040SOL    HW265979   2.302   5.397   7.433 -1.7723  1.2125 -0.8627
53041SOL     OW65980   4.524   4.831  10.066  0.3798 -0.2601  0.3235
53041SOL    HW165981   4.450   4.795  10.115  0.2873 -0.5927 -0.0543
53041SOL    HW265982   4.494   4.831   9.975 -0.3212  2.4476  0.4594
53042SOL     OW65983   6.016   0.095   5.628  0.3166  0.1887  0.3139
53042SOL    HW165984   6.053   0.101   5.540  0.8515  0.4280  0.5540
53042SOL    HW265985   6.015   0.001   5.647 -1.8471 -0.0816 -0.8007
53043SOL     OW65986   4.939   8.357   6.861  0.4339  0.5517  0.2245
53043SOL    HW165987   4.907   8.447   6.869 -1.5904  0.0126 -0.8971
53043SOL    HW265988   4.962   8.347   6.769  0.3601 -0.1398  0.2712
53044SOL     OW65989   0.401   8.376   9.428 -0.2753  0.4494  0.4375
53044SOL    HW165990   0.383   8.302   9.486 -0.1113 -1.2287 -1.5403
53044SOL    HW265991   0.457   8.433   9.481 -0.3728 -0.8279  2.0359
53045SOL     OW65992   0.933   9.283   3.846  0.1112 -0.1440 -0.2401
53045SOL    HW165993   0.971   9.356   3.798  2.3785 -0.7781  0.4491
53045SOL    HW265994   0.947   9.305   3.938  0.0973 -1.0675 -0.0075
53046SOL     OW65995   2.283   9.890   4.491 -0.1052  0.0961 -0.0289
53046SOL    HW165996   2.226   9.828   4.445 -0.8705 -0.5418  1.6751
53046SOL    HW265997   2.368   9.847   4.494 -0.8594 -1.4086  1.9834
53047SOL     OW65998  11.076   5.864   3.831 -0.1838  0.3190  0.3293
53047SOL    HW165999  11.039   5.945   3.867  0.5732  0.4348  0.8815
53047SOL    HW266000  11.062   5.871   3.737  0.9083  1.6615  0.2348
53048SOL     OW66001   5.272   0.627   1.569  0.4411  0.5396 -0.1495
53048SOL    HW166002   5.226   0.677   1.501 -0.1845  2.0200  1.3048
53048SOL    HW266003   5.360   0.613   1.533  0.7874  3.0916 -0.4791
53049SOL     OW66004  11.175   6.771   8.282  0.0338 -0.0098  0.5563
53049SOL    HW166005  11.141   6.775   8.193  1.7638 -1.2228 -0.2199
53049SOL    HW266006  11.176   6.862   8.311 -1.9120  0.2670 -0.0866
53050SOL     OW66007   7.713   9.144  10.352 -0.0990  0.4229  0.0807
53050SOL    HW166008   7.736   9.226  10.395 -0.1574  0.6044 -0.2275
53050SOL    HW266009   7.797   9.102  10.333 -0.0877  0.1295  0.7739
53051SOL     OW66010   0.917  11.977   0.088 -0.7623  0.7617  0.6627
53051SOL    HW166011   0.931  11.998  -0.004 -1.3082 -0.5102  0.2736
53051SOL    HW266012   0.941  12.057   0.135 -3.3359  2.4929 -0.7519
53052SOL     OW66013   3.645   3.903  11.333  0.0547  0.1181  0.2154
53052SOL    HW166014   3.620   3.902  11.425 -0.2152  1.8283  0.1877
53052SOL    HW266015   3.739   3.886  11.333 -0.1904 -1.4213  0.6709
53053SOL     OW66016   9.686   1.038  11.879  0.2761 -0.5670 -0.1352
53053SOL    HW166017   9.676   0.992  11.963  2.2049 -2.4804 -0.8362
53053SOL    HW266018   9.602   1.025  11.834 -0.5421 -0.0835  1.2075
53054SOL     OW66019   4.711   7.396   8.473  0.0120 -0.0925  0.0079
53054SOL    HW166020   4.756   7.407   8.389 -1.2695  0.4852 -0.6433
53054SOL    HW266021   4.756   7.455   8.533  1.8224 -1.5211  0.1196
53055SOL     OW66022   1.444  10.933   1.608 -0.2515 -0.0236  0.3000
53055SOL    HW166023   1.494  11.005   1.647 -0.1116 -0.4090  0.8363
53055SOL    HW266024   1.376  10.977   1.557  0.2154  0.4984  0.1098
53056SOL     OW66025   8.889  10.363   2.679  0.2058 -0.2124 -0.1801
53056SOL    HW166026   8.822  10.431   2.673 -2.9530 -3.1362 -1.3123
53056SOL    HW266027   8.929  10.362   2.592  0.3304  0.2182 -0.1319
53057SOL     OW66028   0.005   1.394   9.412  0.0418 -0.4212  0.7764
53057SOL    HW166029   0.094   1.379   9.380  0.4421 -1.1299  2.1328
53057SOL    HW266030  -0.006   1.331   9.483 -0.4359  1.6446  2.6625
53058SOL     OW66031   3.383   2.472   0.550  0.1072 -0.1935 -0.2024
53058SOL    HW166032   3.397   2.508   0.638 -0.3368 -0.4443 -0.0247
53058SOL    HW266033   3.405   2.379   0.559  2.2043  0.2001 -0.8909
53059SOL     OW66034   1.004   9.120   3.628  0.1655  0.5465 -0.0452
53059SOL    HW166035   0.980   9.028   3.642 -1.0987  0.6615 -1.2239
53059SOL    HW266036   1.003   9.159   3.715 -0.9190 -0.1966  0.2951
53060SOL     OW66037   5.173   9.201   1.727  0.0639  0.3522 -0.3220
53060SOL    HW166038   5.241   9.191   1.794  0.0559 -0.0541 -0.3713
53060SOL    HW266039   5.124   9.119   1.730 -0.1298  0.4558 -0.6104
53061SOL     OW66040   3.927  11.511   6.383 -0.2841  0.3247  0.2037
53061SOL    HW166041   4.004  11.517   6.439 -0.9319  1.5765  1.0176
53061SOL    HW266042   3.908  11.418   6.378  0.0826  0.1389  1.6803
53062SOL     OW66043  11.786   3.183   3.233  0.1721 -0.4434  0.2368
53062SOL    HW166044  11.698   3.153   3.209  0.4653 -0.4896 -0.8383
53062SOL    HW266045  11.785   3.187   3.329 -1.6287  1.4999  0.1996
53063SOL     OW66046   5.147  10.723   5.078 -0.5859 -0.5154  0.2915
53063SOL    HW166047   5.109  10.655   5.023  0.2494 -0.6112 -0.1764
53063SOL    HW266048   5.110  10.708   5.165 -2.0207 -0.2879 -0.2543
53064SOL     OW66049   2.108  11.674   9.917  0.0801  0.5145  0.2351
53064SOL    HW166050   2.185  11.710   9.960 -0.2558  2.1764 -0.4544
53064SOL    HW266051   2.091  11.735   9.845  0.6352 -2.1414 -2.2904
53065SOL     OW66052   6.025  10.391   9.155  0.2495 -0.2210 -0.1985
53065SOL    HW166053   5.987  10.396   9.242  1.8502  0.1960  0.5048
53065SOL    HW266054   6.091  10.322   9.161  2.0688  1.4350 -0.3650
53066SOL     OW66055   8.155   4.157   2.196 -0.0448 -0.6664 -0.1792
53066SOL    HW166056   8.096   4.226   2.225  0.8625  0.8717 -1.7955
53066SOL    HW266057   8.117   4.076   2.232 -1.6360  0.5481  1.0065
53067SOL     OW66058   3.409   8.479   9.845 -0.7915 -0.2440  0.0536
53067SOL    HW166059   3.376   8.514   9.762  1.8206  0.7039 -0.6927
53067SOL    HW266060   3.423   8.556   9.900  0.0633 -0.5914  0.3417
53068SOL     OW66061   3.066   9.204  10.951  0.3513  0.2207 -0.3584
53068SOL    HW166062   3.092   9.113  10.939 -2.4795 -0.5914 -1.2765
53068SOL    HW266063   2.977   9.199  10.985 -0.3952  2.6034 -1.6873
53069SOL     OW66064   4.343   9.845   7.888  0.0098  0.1886  0.0271
53069SOL    HW166065   4.396   9.826   7.965  0.6406 -0.6474 -0.5876
53069SOL    HW266066   4.256   9.809   7.909  0.3107 -0.4760  0.1691
53070SOL     OW66067   9.889   3.029  11.341  0.2553  0.3315 -0.2245
53070SOL    HW166068   9.901   2.998  11.431 -1.8561  0.8562  0.2872
53070SOL    HW266069   9.890   3.125  11.348 -0.8350  0.3798 -0.6045
53071SOL     OW66070   2.391   7.410   3.675 -0.1710 -0.1677 -0.1127
53071SOL    HW166071   2.369   7.405   3.583 -1.9648  1.0159  0.2060
53071SOL    HW266072   2.308   7.396   3.721  0.7177 -0.9602  1.3417
53072SOL     OW66073  11.709   4.886   4.813 -0.3971  0.1084 -0.7063
53072SOL    HW166074  11.741   4.887   4.903  2.3507 -0.8407 -1.5542
53072SOL    HW266075  11.716   4.794   4.786 -1.8192  0.2590 -1.7082
53073SOL     OW66076  10.267   1.597   9.828  0.2357  0.3381 -0.1988
53073SOL    HW166077  10.313   1.591   9.911 -0.4739  0.5095  0.2149
53073SOL    HW266078  10.274   1.689   9.803  0.5266  0.2687 -0.3768
53074SOL     OW66079   3.981   4.816   9.199  0.1689  0.0531  0.0402
53074SOL    HW166080   4.006   4.724   9.207 -1.2123 -0.4147 -0.6974
53074SOL    HW266081   4.043   4.863   9.255  1.8762 -1.1400 -0.7940
53075SOL     OW66082   2.915  11.322   2.136  0.0826  0.3939 -0.5926
53075SOL    HW166083   2.920  11.227   2.139 -0.1613  0.4031  1.2533
53075SOL    HW266084   2.952  11.351   2.219 -1.0718  1.8376 -0.5233
53076SOL     OW66085   1.970   0.994   7.159 -0.2132  0.0665 -0.5911
53076SOL    HW166086   1.924   1.062   7.110  0.8491  0.7880 -0.6150
53076SOL    HW266087   1.927   0.912   7.133 -0.3212  0.5404 -1.9415
53077SOL     OW66088   7.017  12.568   4.150  0.9000 -0.6947 -0.0496
53077SOL    HW166089   7.053  12.628   4.215  1.6508  0.2686 -1.3347
53077SOL    HW266090   6.925  12.593   4.143  0.5963 -1.3638  1.2333
53078SOL     OW66091   3.705   3.086   6.869 -0.0085  0.5625 -0.1278
53078SOL    HW166092   3.769   3.144   6.827  0.8834 -0.5788 -0.4009
53078SOL    HW266093   3.758   3.016   6.906 -1.1451 -0.7244 -0.8489
53079SOL     OW66094   6.075   4.442   6.678  0.1810  0.1682  0.2852
53079SOL    HW166095   6.034   4.448   6.592 -0.2257 -0.1412  0.4540
53079SOL    HW266096   6.028   4.506   6.732  2.6322  2.8704 -0.5541
53080SOL     OW66097  11.429   2.093   3.528  0.6436  0.0318 -0.2280
53080SOL    HW166098  11.493   2.156   3.496  1.0103 -1.5838 -3.1284
53080SOL    HW266099  11.472   2.049   3.601  1.1331  1.7705  0.5647
53081SOL     OW66100   4.503   1.769  12.264 -0.2089 -0.7037 -0.1269
53081SOL    HW166101   4.464   1.693  12.306 -1.0689 -0.3312 -0.2289
53081SOL    HW266102   4.597   1.752  12.266 -0.4369 -2.2914 -1.1604
53082SOL     OW66103   5.679   3.659  10.924 -0.6544  0.0214 -0.3181
53082SOL    HW166104   5.734   3.684  10.998  0.1138 -0.5115 -0.6915
53082SOL    HW266105   5.595   3.637  10.963 -0.0571 -0.9093  0.4871
53083SOL     OW66106   4.849   8.346  10.716  0.1449 -0.7677 -0.5798
53083SOL    HW166107   4.897   8.401  10.654 -3.0065  1.4434 -1.3278
53083SOL    HW266108   4.817   8.273  10.664  0.3442 -0.7304 -0.7538
53084SOL     OW66109   7.041   9.309   4.887  0.1168  0.1608  0.3728
53084SOL    HW166110   6.992   9.355   4.956 -0.7242  2.1017 -1.4164
53084SOL    HW266111   7.129   9.347   4.890  0.4353 -0.5961  1.0916
53085SOL     OW66112   0.380  11.132  11.481 -0.5860  0.6992  0.0433
53085SOL    HW166113   0.437  11.062  11.514 -2.5917 -1.6278 -1.1647
53085SOL    HW266114   0.338  11.167  11.560 -0.9142 -0.7182  0.5192
53086SOL     OW66115   3.175   2.863   2.816 -0.6239 -0.2584 -0.2392
53086SOL    HW166116   3.214   2.928   2.758  0.8927  0.3208  1.3539
53086SOL    HW266117   3.186   2.780   2.771 -0.5861  0.3156 -1.3115
53087SOL     OW66118  12.542  10.627  10.566 -0.2140  0.0922 -0.0336
53087SOL    HW166119  12.524  10.535  10.587 -1.1364  0.5417  1.2669
53087SOL    HW266120  12.634  10.627  10.540 -0.0796 -1.1387  0.3377
53088SOL     OW66121   6.073  11.330   3.948  0.4864  0.2822  0.1378
53088SOL    HW166122   6.021  11.323   3.868  0.4623 -1.9617  0.2787
53088SOL    HW266123   6.163  11.340   3.916  0.2423  2.0071 -0.1111
53089SOL     OW66124   1.871   1.045   2.313 -0.0656  0.4859  0.2022
53089SOL    HW166125   1.798   1.083   2.266 -0.7024 -0.7207  0.1694
53089SOL    HW266126   1.901   0.973   2.257  0.5166  0.3573  0.6648
53090SOL     OW66127  11.079   6.829   7.689 -0.0621  0.0826  0.1712
53090SOL    HW166128  11.158   6.867   7.726 -1.0118  1.0631  1.2755
53090SOL    HW266129  11.008   6.883   7.724 -1.2966 -1.4029  0.0427
53091SOL     OW66130  10.059   9.933   9.910  0.3890  0.0854  0.1336
53091SOL    HW166131   9.990   9.984   9.867 -0.1415 -0.9395 -0.2716
53091SOL    HW266132  10.090   9.989   9.981 -1.2895  0.3321  0.7107
53092SOL     OW66133   4.891   1.821   0.668 -0.2919 -0.1212 -0.8470
53092SOL    HW166134   4.965   1.810   0.727 -0.7277 -0.6263 -0.3745
53092SOL    HW266135   4.924   1.876   0.597  0.5584 -0.4258 -0.7003
53093SOL     OW66136  12.179   6.152   5.790 -0.0974  0.0495 -0.2788
53093SOL    HW166137  12.266   6.188   5.773  0.3085 -0.2306  1.0828
53093SOL    HW266138  12.193   6.057   5.796  0.0630  0.1504  2.6169
53094SOL     OW66139   4.039   3.973  10.568  0.5017  0.2076 -0.0247
53094SOL    HW166140   4.080   3.902  10.520  1.2266  0.1719  0.6290
53094SOL    HW266141   4.097   4.048  10.556  1.4273 -0.1418  1.8455
53095SOL     OW66142   6.157   1.640   8.680 -0.2077 -0.0401 -0.2806
53095SOL    HW166143   6.247   1.609   8.681  0.4090  1.6480 -0.9045
53095SOL    HW266144   6.104   1.560   8.674  1.2167 -1.0551  0.2199
53096SOL     OW66145   8.426   2.547   5.231 -0.1970 -0.2615 -0.2289
53096SOL    HW166146   8.504   2.531   5.284  0.6814 -0.7066 -1.6230
53096SOL    HW266147   8.398   2.635   5.256  1.0231  0.0852 -0.0564
53097SOL     OW66148   1.137   6.021   0.077  0.1527  0.4766  0.6609
53097SOL    HW166149   1.128   5.928   0.055  2.3291  0.3752 -0.0114
53097SOL    HW266150   1.072   6.035   0.147 -0.2351 -1.5326  0.7662
53098SOL     OW66151  10.638   5.090   4.321 -0.6675  0.2511  0.1156
53098SOL    HW166152  10.547   5.072   4.345 -0.4728 -1.5922 -0.4351
53098SOL    HW266153  10.646   5.058   4.232  0.3289  1.1218 -0.1236
53099SOL     OW66154  12.437   4.960   8.796  0.4090 -0.1772 -0.1855
53099SOL    HW166155  12.531   4.954   8.780 -0.0305 -2.2877 -2.6034
53099SOL    HW266156  12.407   5.030   8.737  0.8018  3.3876  3.3657
53100SOL     OW66157   8.133   9.465   2.204 -0.4239  0.3008 -0.5024
53100SOL    HW166158   8.159   9.540   2.152  1.1690  0.1867  0.0777
53100SOL    HW266159   8.181   9.391   2.167  0.5177  0.1683  0.9077
53101SOL     OW66160  11.608   3.772   3.404  0.0739 -0.3271 -0.3201
53101SOL    HW166161  11.527   3.782   3.453 -0.9641 -2.2002 -1.5509
53101SOL    HW266162  11.592   3.815   3.321  0.5816 -0.1584 -0.3358
53102SOL     OW66163   2.238  12.338   4.832  0.5352  0.0281 -0.3997
53102SOL    HW166164   2.150  12.323   4.795  0.8322  2.8074 -2.6047
53102SOL    HW266165   2.243  12.433   4.844  2.1585 -0.3307  2.8298
53103SOL     OW66166   5.507   3.108   7.055 -0.2769  0.3178  0.3322
53103SOL    HW166167   5.551   3.023   7.056 -1.9062 -0.5802  1.2861
53103SOL    HW266168   5.440   3.098   6.987  0.2162  1.2295 -0.2939
53104SOL     OW66169   6.074   9.985   2.655  0.3306 -0.3184 -0.8573
53104SOL    HW166170   6.027  10.069   2.652 -0.8067 -0.8811  0.2678
53104SOL    HW266171   6.046   9.945   2.737  0.5531 -1.9870 -1.5653
53105SOL     OW66172   8.182   9.239   7.928 -0.3100  0.2411 -0.2570
53105SOL    HW166173   8.149   9.301   7.992  0.0701  1.2448 -1.0193
53105SOL    HW266174   8.276   9.258   7.921 -0.0495 -0.8511 -0.0356
53106SOL     OW66175   8.543   0.593   3.289  0.0377 -0.5298 -0.2174
53106SOL    HW166176   8.530   0.498   3.294  0.4176 -0.6195 -0.8390
53106SOL    HW266177   8.455   0.627   3.272 -0.3355 -0.6451  1.3171
53107SOL     OW66178  12.370   4.126  12.258  0.8302  0.2541  0.6285
53107SOL    HW166179  12.343   4.202  12.310  1.7166  1.8728 -1.1465
53107SOL    HW266180  12.304   4.120  12.189  1.3901  0.1053  0.1029
53108SOL     OW66181   0.397   0.567   3.183  0.4603  0.1403 -0.0983
53108SOL    HW166182   0.420   0.646   3.232  0.5163 -0.0405  0.1721
53108SOL    HW266183   0.323   0.529   3.231  0.5814 -0.0928 -0.0915
53109SOL     OW66184  10.453   8.713  11.462 -0.2335 -0.2958  0.5589
53109SOL    HW166185  10.390   8.690  11.394 -0.6908  0.2740  0.7832
53109SOL    HW266186  10.493   8.629  11.486 -0.7468 -0.6363  0.2574
53110SOL     OW66187  10.549   5.659   4.992  0.2773 -0.0009  0.5592
53110SOL    HW166188  10.586   5.719   5.057  0.5665  1.0779 -0.5675
53110SOL    HW266189  10.460   5.691   4.978  0.2356 -0.1976  0.3716
53111SOL     OW66190   4.018  11.178   6.990 -0.0766  0.4425 -0.7241
53111SOL    HW166191   4.096  11.124   7.006 -0.9507 -0.3826  1.1041
53111SOL    HW266192   4.034  11.258   7.040  0.7185  1.4518 -2.5119
53112SOL     OW66193   0.463   2.419  10.614  0.4150  0.1836 -0.3768
53112SOL    HW166194   0.369   2.398  10.611  0.1288  0.9227  1.8393
53112SOL    HW266195   0.500   2.374  10.538 -1.8247  0.3929 -1.6915
53113SOL     OW66196  11.525   5.080   2.978  0.0494  0.4007 -0.4039
53113SOL    HW166197  11.547   5.092   3.071  0.7498  0.7953 -0.6111
53113SOL    HW266198  11.459   5.147   2.961 -0.1698  0.2506 -0.1624
53114SOL     OW66199   0.603   0.675   2.357  0.0509  0.1874  0.0878
53114SOL    HW166200   0.560   0.613   2.416 -0.6327 -0.9227 -1.5073
53114SOL    HW266201   0.546   0.679   2.280  1.1323  1.2391 -0.6988
53115SOL     OW66202   3.993   9.322   2.838  0.0667  0.5671 -0.3049
53115SOL    HW166203   4.002   9.298   2.746  1.8451 -0.3274  0.0625
53115SOL    HW266204   4.037   9.406   2.846 -0.1533  0.6813 -0.2736
53116SOL     OW66205   3.988  11.376  11.151  0.0464 -0.3200 -0.4500
53116SOL    HW166206   3.938  11.439  11.203  0.5544  0.5467 -0.9965
53116SOL    HW266207   4.016  11.424  11.074 -0.1401 -1.4181 -1.2283
53117SOL     OW66208   1.831   5.154   0.015  0.4868  0.3417 -0.6704
53117SOL    HW166209   1.759   5.153   0.079  0.0337  0.5086 -1.1717
53117SOL    HW266210   1.857   5.062   0.007 -0.7437  0.0550 -1.6742
53118SOL     OW66211   7.134  10.776   0.184  0.5127 -0.0193 -0.2098
53118SOL    HW166212   7.123  10.685   0.210 -0.8776 -0.0914 -0.9796
53118SOL    HW266213   7.057  10.796   0.131  0.7611  1.6194 -0.0177
53119SOL     OW66214  11.358   5.667   3.346  0.0109  0.0736 -0.0286
53119SOL    HW166215  11.438   5.633   3.385 -0.1684 -1.2042 -0.7331
53119SOL    HW266216  11.319   5.721   3.415  0.4966 -0.8543  1.0032
53120SOL     OW66217   4.148   6.341   0.947  0.6857 -0.1327  0.2085
53120SOL    HW166218   4.109   6.319   1.031 -1.7261 -1.7440 -1.2250
53120SOL    HW266219   4.107   6.424   0.923  1.0073  0.0783  0.3776
53121SOL     OW66220   1.870   3.613  11.682 -0.1927  0.2465  0.3644
53121SOL    HW166221   1.807   3.577  11.745 -2.2205 -1.1102 -2.2259
53121SOL    HW266222   1.943   3.552  11.682  0.1652  0.6291  1.8037
53122SOL     OW66223   7.357   0.053   0.319  0.2201  0.2633 -0.4102
53122SOL    HW166224   7.276   0.011   0.288  0.3421 -1.1430  1.0428
53122SOL    HW266225   7.329   0.139   0.351 -0.6463 -0.0677 -0.2495
53123SOL     OW66226  11.432   3.868   4.039  0.3042  0.1328  0.1892
53123SOL    HW166227  11.466   3.780   4.024  1.2341  0.4501  0.4109
53123SOL    HW266228  11.407   3.899   3.952 -0.5826 -0.5644  0.1834
53124SOL     OW66229   4.721   0.553  10.977 -0.5442 -0.3994 -0.3306
53124SOL    HW166230   4.793   0.556  11.039  0.2476 -0.9085 -1.1905
53124SOL    HW266231   4.642   0.554  11.031  0.0938  0.5223  0.6091
53125SOL     OW66232   6.695  10.464   9.531 -0.0692  0.5096  0.3347
53125SOL    HW166233   6.674  10.371   9.518  0.0640  0.5618 -0.2873
53125SOL    HW266234   6.611  10.505   9.552 -0.0107  0.1278  1.3735
53126SOL     OW66235   6.381  11.602  10.884  0.5505  0.0215  0.3519
53126SOL    HW166236   6.329  11.581  10.806  0.1313  0.3313  0.5462
53126SOL    HW266237   6.410  11.517  10.917 -1.7498 -0.3585  1.5639
53127SOL     OW66238   0.951  10.352   1.826 -0.1961  0.3192 -0.1985
53127SOL    HW166239   1.026  10.410   1.839 -1.0633  1.3844  0.1549
53127SOL    HW266240   0.989  10.264   1.827  1.5160  0.8843 -3.1010
53128SOL     OW66241   5.705   2.181   4.068  0.1766  0.3690  0.6209
53128SOL    HW166242   5.772   2.236   4.028  0.4348  0.5461  1.2697
53128SOL    HW266243   5.754   2.113   4.115 -0.1125  0.1737  0.6442
53129SOL     OW66244   9.736   6.314   2.344 -0.0204 -0.3130 -0.2402
53129SOL    HW166245   9.695   6.395   2.316 -0.3868  0.0576  1.2694
53129SOL    HW266246   9.673   6.245   2.321  0.0621 -0.1290 -1.0451
53130SOL     OW66247   6.691   2.283  11.341  0.3299  0.4441  0.3388
53130SOL    HW166248   6.707   2.377  11.342  1.1553  0.3178 -0.0467
53130SOL    HW266249   6.605   2.272  11.381  0.2660  1.3541  0.4531
53131SOL     OW66250   3.885   5.824  11.522  0.0800 -0.1460  0.2395
53131SOL    HW166251   3.940   5.876  11.463 -2.5355  1.6472 -0.8381
53131SOL    HW266252   3.897   5.734  11.493  0.5675  0.4654 -1.6052
53132SOL     OW66253   0.820  10.356  11.771 -0.3217 -0.0524  0.3682
53132SOL    HW166254   0.882  10.394  11.709 -0.8613  1.5048  0.7309
53132SOL    HW266255   0.854  10.380  11.857 -0.9880  0.1258  0.5890
53133SOL     OW66256   3.764   7.743  10.486  0.2000  0.2226 -0.3101
53133SOL    HW166257   3.691   7.788  10.528 -1.0214 -1.1671 -0.8743
53133SOL    HW266258   3.795   7.681  10.552 -1.0239 -1.2011 -1.0127
53134SOL     OW66259   4.909   8.873   9.508 -0.3420  0.2088 -0.4873
53134SOL    HW166260   4.957   8.794   9.533  0.1044  1.1267  1.9012
53134SOL    HW266261   4.933   8.889   9.417  1.4071 -1.1149 -0.3073
53135SOL     OW66262   7.673   3.380   2.857  0.4588  0.0807  0.0755
53135SOL    HW166263   7.745   3.320   2.880  0.4624  0.1152  0.1531
53135SOL    HW266264   7.608   3.368   2.926  1.2459  1.5004  1.1153
53136SOL     OW66265   1.687  11.626  10.222 -0.0281 -0.2236 -0.0889
53136SOL    HW166266   1.618  11.561  10.239 -0.6611  0.4371 -0.0606
53136SOL    HW266267   1.741  11.586  10.153 -1.6008  0.0506 -1.5705
53137SOL     OW66268   4.346   1.371   3.900 -0.6127  0.5580  0.3664
53137SOL    HW166269   4.419   1.398   3.845 -1.0704  1.3291  0.1129
53137SOL    HW266270   4.269   1.378   3.843 -1.0141  0.7795  0.9224
53138SOL     OW66271   1.238  11.682   9.560  0.1489  0.5158 -0.2837
53138SOL    HW166272   1.251  11.658   9.469  3.2747 -0.0610  0.2118
53138SOL    HW266273   1.146  11.711   9.565  0.2665  1.9275 -3.8568
53139SOL     OW66274   5.194   0.241   5.061  0.2610 -0.2900  0.1035
53139SOL    HW166275   5.213   0.334   5.061 -0.1744 -0.1952  0.7153
53139SOL    HW266276   5.230   0.209   5.144 -0.0040 -0.5740  0.1129
53140SOL     OW66277   3.109   6.004   7.055  0.2758  0.5917  0.2131
53140SOL    HW166278   3.144   5.924   7.095 -0.3908  1.1535  2.0282
53140SOL    HW266279   3.166   6.074   7.090 -0.2111  1.0826  0.0304
53141SOL     OW66280   5.670   7.711   8.796 -0.0319 -0.2584  0.5222
53141SOL    HW166281   5.689   7.618   8.806 -1.6298 -0.5062  1.8632
53141SOL    HW266282   5.663   7.744   8.886  0.1908  1.0860  0.0714
53142SOL     OW66283   5.782   6.491   5.382  0.0387  0.2797  0.5942
53142SOL    HW166284   5.839   6.568   5.383 -1.6014  1.5546  1.6351
53142SOL    HW266285   5.779   6.465   5.290 -0.4353  2.3248 -0.0266
53143SOL     OW66286   9.163   2.218  11.607 -0.1803  0.6758 -0.5422
53143SOL    HW166287   9.255   2.241  11.621  0.0704  0.0504 -1.1677
53143SOL    HW266288   9.135   2.180  11.690 -0.1615  1.7493 -0.0166
53144SOL     OW66289   2.738   7.828   7.566 -0.4868  0.5505  0.1372
53144SOL    HW166290   2.763   7.798   7.654 -2.6694  1.8649  1.3057
53144SOL    HW266291   2.807   7.890   7.542  0.2588  0.0129  0.8271
53145SOL     OW66292   3.655  11.397  11.964 -0.1296  0.2939 -0.7931
53145SOL    HW166293   3.652  11.313  11.918 -0.2514 -0.4633  0.5617
53145SOL    HW266294   3.688  11.458  11.898  1.8508 -1.1847 -1.2588
53146SOL     OW66295  12.156   0.174  11.634  0.7182  0.0860  0.2707
53146SOL    HW166296  12.205   0.119  11.573  0.6192  1.0748 -0.7177
53146SOL    HW266297  12.125   0.247  11.582 -3.1904 -1.2316  0.4336
53147SOL     OW66298  10.991   5.975   1.268 -0.3252 -0.4060 -0.0433
53147SOL    HW166299  11.030   6.018   1.192 -0.9232 -0.8266 -0.5968
53147SOL    HW266300  11.054   5.991   1.339  0.6521 -0.7271 -0.8115
53148SOL     OW66301   2.820   2.908   0.255 -0.1966  0.1134 -0.1141
53148SOL    HW166302   2.798   2.821   0.222  0.8853 -0.4469  0.6065
53148SOL    HW266303   2.758   2.923   0.326 -3.4068  1.8482 -2.9631
53149SOL     OW66304   8.666   8.532  11.490 -0.1162 -0.4331  0.6005
53149SOL    HW166305   8.723   8.523  11.566 -1.1635 -0.9488  1.3513
53149SOL    HW266306   8.615   8.451  11.489  0.8085 -1.0640 -1.4638
53150SOL     OW66307   4.189   0.151   0.752  0.1420  0.5124 -0.7091
53150SOL    HW166308   4.154   0.239   0.745  0.3423  0.5657 -1.0742
53150SOL    HW266309   4.138   0.110   0.822 -0.4171  0.6930 -1.0019
53151SOL     OW66310   0.894   9.627   9.997  0.0423  0.0025 -0.1897
53151SOL    HW166311   0.887   9.539   9.960  2.8480 -0.7374  0.7165
53151SOL    HW266312   0.952   9.616  10.072 -0.8110  2.4047  0.9200
53152SOL     OW66313  10.297   1.121  10.475  0.6671 -0.4013  0.6032
53152SOL    HW166314  10.261   1.148  10.560 -0.1034 -0.1115  0.2009
53152SOL    HW266315  10.366   1.185  10.458  0.0208  0.2850  0.4680
53153SOL     OW66316   9.918   6.972   6.279 -0.6185  0.3928  0.0152
53153SOL    HW166317   9.968   6.909   6.331  0.2744  1.3016  0.2864
53153SOL    HW266318   9.984   7.029   6.241 -1.1672 -0.5636 -2.6347
53154SOL     OW66319   7.665   7.191   9.897  0.1714  0.1058  0.0915
53154SOL    HW166320   7.687   7.109   9.941 -1.7171 -0.8616 -0.6364
53154SOL    HW266321   7.746   7.218   9.854  0.4753 -2.1765 -0.8832
53155SOL     OW66322   0.669  10.819   6.781  0.3165 -0.1690  0.3792
53155SOL    HW166323   0.691  10.790   6.870 -1.3087 -1.3020  0.4530
53155SOL    HW266324   0.607  10.891   6.795 -1.3874 -1.5481  0.2098
53156SOL     OW66325   3.538   9.119   8.484 -0.1266  0.2583  0.5135
53156SOL    HW166326   3.621   9.118   8.437  0.6923  1.7547  1.8687
53156SOL    HW266327   3.503   9.207   8.470 -2.2472 -0.7293 -1.2021
53157SOL     OW66328   9.187   8.655   1.430  0.0479  0.1908 -0.1644
53157SOL    HW166329   9.264   8.657   1.374  0.2479 -0.3648  0.0859
53157SOL    HW266330   9.153   8.745   1.428  1.3213  0.7131  0.5801
53158SOL     OW66331  12.182   8.429   5.138  0.9484 -0.2564 -0.0348
53158SOL    HW166332  12.218   8.458   5.222 -0.1367 -0.7631  0.6314
53158SOL    HW266333  12.087   8.434   5.150  0.7825 -0.5785 -1.1490
53159SOL     OW66334   9.109   6.722  12.010 -0.4063 -0.0360 -0.5081
53159SOL    HW166335   9.158   6.796  11.975  2.6388 -1.6141  0.1190
53159SOL    HW266336   9.140   6.713  12.100  2.3094 -4.1928 -1.5817
53160SOL     OW66337   9.728   7.869   1.353 -0.0226 -0.4229 -0.2015
53160SOL    HW166338   9.722   7.934   1.423 -0.6526  0.7512 -1.3010
53160SOL    HW266339   9.819   7.871   1.326 -0.0339 -0.0280 -0.2067
53161SOL     OW66340  10.647  11.097  11.083 -0.5840  0.0546 -0.7719
53161SOL    HW166341  10.663  11.007  11.056 -1.9870 -1.5557  3.0371
53161SOL    HW266342  10.681  11.102  11.172 -0.2184  3.4658 -0.9788
53162SOL     OW66343   2.529   3.946   8.837 -0.2477  0.3291  0.3083
53162SOL    HW166344   2.491   3.972   8.921  0.3282 -0.9501  0.9900
53162SOL    HW266345   2.620   3.974   8.842 -0.4179  0.9887 -0.2339
53163SOL     OW66346   2.916   8.846  12.129 -0.2044  0.1785  0.0970
53163SOL    HW166347   2.898   8.796  12.209 -2.3932  0.8104  0.0829
53163SOL    HW266348   2.829   8.867  12.095  0.5904 -1.2884 -3.2539
53164SOL     OW66349   7.619   4.581   1.725 -0.6314  0.3678  0.5266
53164SOL    HW166350   7.623   4.629   1.643 -0.5172  2.0011  1.4496
53164SOL    HW266351   7.704   4.536   1.730 -0.0311  1.4512  0.4357
53165SOL     OW66352   1.401   2.418   5.141  0.1019 -0.6147  0.2594
53165SOL    HW166353   1.465   2.488   5.155  0.3146 -0.3369 -1.7777
53165SOL    HW266354   1.318   2.457   5.166  0.4602 -0.2691  0.9390
53166SOL     OW66355   5.501   6.718   6.541 -0.0008 -0.0187  0.0179
53166SOL    HW166356   5.470   6.649   6.600  0.5666  0.9622  1.5068
53166SOL    HW266357   5.596   6.708   6.541  0.1870  1.4028  1.1304
53167SOL     OW66358   8.425  10.058  12.003  0.1789  0.1472  0.2524
53167SOL    HW166359   8.514  10.081  12.030 -0.2327  1.2140  0.7644
53167SOL    HW266360   8.375  10.138  12.018 -0.7232 -0.2285 -0.6982
53168SOL     OW66361   2.546  12.110   2.323  0.0064 -0.1648  0.2265
53168SOL    HW166362   2.501  12.170   2.263 -0.8888 -1.6573 -0.6603
53168SOL    HW266363   2.482  12.094   2.393 -1.4247 -3.0689 -1.5384
53169SOL     OW66364   5.283   0.897  11.927 -0.2158  0.2167  0.6821
53169SOL    HW166365   5.259   0.951  12.002 -0.2288 -0.7870  1.4135
53169SOL    HW266366   5.378   0.893  11.929 -0.2283 -0.0322  0.8078
53170SOL     OW66367  11.179   9.186   7.625  0.1084  0.1860  0.4039
53170SOL    HW166368  11.158   9.205   7.534  1.8078  2.9646  0.4490
53170SOL    HW266369  11.209   9.096   7.625  1.0174  0.4267 -2.0195
53171SOL     OW66370   7.034   4.636   6.993  0.8910 -0.3594  0.3015
53171SOL    HW166371   6.992   4.575   6.933  1.9867  0.3495 -1.2476
53171SOL    HW266372   6.962   4.675   7.042  0.1204 -2.4502  0.9601
53172SOL     OW66373  12.231   7.045   5.920  0.3182 -0.2104 -0.0228
53172SOL    HW166374  12.197   6.956   5.927 -0.8341  0.3458  2.9432
53172SOL    HW266375  12.244   7.059   5.826 -2.3641 -2.4497 -0.8584
53173SOL     OW66376   2.476   1.594   2.493 -0.2687  0.6888 -0.3185
53173SOL    HW166377   2.545   1.529   2.480  0.6701  1.6972 -0.4770
53173SOL    HW266378   2.395   1.544   2.487  0.4435 -0.7229  0.9394
53174SOL     OW66379   5.048   9.865   5.137  0.7250  0.3287 -0.0146
53174SOL    HW166380   5.130   9.865   5.187  1.2571  1.7220 -0.8297
53174SOL    HW266381   5.035   9.956   5.112 -0.1317 -0.1532 -1.4456
53175SOL     OW66382  11.404   0.278   2.449 -0.4093  0.4161 -0.4153
53175SOL    HW166383  11.458   0.223   2.506  0.0765  0.7412 -0.5527
53175SOL    HW266384  11.343   0.321   2.508 -0.7347 -0.2003 -0.2954
53176SOL     OW66385   8.192  12.024   9.585 -0.0100 -0.0499  0.2752
53176SOL    HW166386   8.271  12.075   9.567 -0.3394  0.8131  1.1679
53176SOL    HW266387   8.134  12.042   9.511 -0.0709  0.7770  0.5195
53177SOL     OW66388   1.232   8.540   5.945  0.5524  0.4367 -1.2518
53177SOL    HW166389   1.229   8.623   5.991  1.3087 -0.3244  0.2320
53177SOL    HW266390   1.157   8.491   5.979  1.3407 -0.2778 -0.5131
53178SOL     OW66391   5.977   2.977   3.285 -0.7864  0.1905 -0.1752
53178SOL    HW166392   6.032   2.935   3.351 -0.4035 -0.7824 -1.0846
53178SOL    HW266393   6.038   3.012   3.220 -1.1535 -2.6672 -2.2641
53179SOL     OW66394   5.148   1.672   6.823  0.3095 -0.0869  0.2493
53179SOL    HW166395   5.206   1.639   6.891 -1.1531  1.6149  2.4696
53179SOL    HW266396   5.130   1.763   6.848  0.7536  1.1076 -3.1926
53180SOL     OW66397   3.938   4.303   9.356 -0.2958  0.2445  0.3190
53180SOL    HW166398   4.028   4.319   9.326 -0.0319 -0.3556  0.7601
53180SOL    HW266399   3.886   4.304   9.276  0.2477 -0.3205 -0.0521
53181SOL     OW66400   1.569   7.073   9.784  0.0652 -0.3647 -0.7553
53181SOL    HW166401   1.523   6.990   9.771  0.8725 -1.3782  2.1052
53181SOL    HW266402   1.559   7.092   9.877  2.0755  1.4302 -0.8167
53182SOL     OW66403  10.996   6.411   1.442  0.4158  0.2056  0.3325
53182SOL    HW166404  10.917   6.455   1.474  0.9049  1.3533  0.0339
53182SOL    HW266405  11.052   6.402   1.518  0.3730  0.2356  0.3673
53183SOL     OW66406   5.523   2.289   7.131  0.1101  0.1398 -0.4662
53183SOL    HW166407   5.551   2.220   7.071 -0.9227 -0.7637  0.0527
53183SOL    HW266408   5.467   2.244   7.195 -0.5137  1.4360 -0.0601
53184SOL     OW66409   8.471   0.094   9.215 -0.1348 -0.2614 -0.8530
53184SOL    HW166410   8.487   0.102   9.121  0.1598 -0.2291 -0.7986
53184SOL    HW266411   8.483   0.182   9.249 -2.1661  0.1523 -1.0771
53185SOL     OW66412   5.497   9.024   8.900 -0.5776  0.2425  0.1590
53185SOL    HW166413   5.545   9.039   8.982 -1.4910 -0.6159  0.8728
53185SOL    HW266414   5.423   9.085   8.903 -0.6399  0.1775 -0.0081
53186SOL     OW66415   1.334   5.347   2.719 -0.8104  0.4367  0.9063
53186SOL    HW166416   1.238   5.354   2.721 -0.9173 -0.4785  0.0422
53186SOL    HW266417   1.353   5.267   2.769 -0.5524  0.2884  0.5767
53187SOL     OW66418   0.933   0.974   3.344  0.4666 -0.1293  0.2166
53187SOL    HW166419   1.024   0.958   3.370 -0.1361 -0.3862  2.2852
53187SOL    HW266420   0.881   0.920   3.403 -1.0620  0.1307 -0.8313
53188SOL     OW66421   4.664   3.810   8.366 -0.3264 -0.0174 -0.7470
53188SOL    HW166422   4.732   3.743   8.358  1.9609  1.9086  1.0756
53188SOL    HW266423   4.601   3.773   8.428  0.1836 -0.9838 -0.7846
53189SOL     OW66424   2.949   9.334   1.118 -0.2900 -0.2440  0.3637
53189SOL    HW166425   2.950   9.332   1.023 -2.6268  1.1391  0.2307
53189SOL    HW266426   2.919   9.247   1.145 -1.7439  0.0346 -0.2902
53190SOL     OW66427  11.774   5.175  11.699 -0.1258  0.0616  0.1657
53190SOL    HW166428  11.765   5.270  11.700  0.1608  0.1028 -0.3408
53190SOL    HW266429  11.695   5.142  11.741 -1.5929  0.4428 -2.0943
53191SOL     OW66430   8.873  11.635   7.006 -0.0338  0.1274 -0.3657
53191SOL    HW166431   8.894  11.598   7.092 -1.9129  0.8312  0.4590
53191SOL    HW266432   8.932  11.710   6.997  1.2076 -0.8212 -0.3861
53192SOL     OW66433   1.009   4.982   8.164  0.1092 -0.0705 -0.1753
53192SOL    HW166434   1.029   4.916   8.097 -2.1340 -0.3650 -0.6352
53192SOL    HW266435   0.971   5.055   8.115 -0.0872  0.3629  0.6188
53193SOL     OW66436   8.969   8.972   2.823  0.0170 -0.3235 -0.2091
53193SOL    HW166437   8.981   9.005   2.912  2.2503  0.8835 -0.8927
53193SOL    HW266438   9.001   9.042   2.767 -1.0500 -1.1911 -1.9690
53194SOL     OW66439   3.215   6.993  11.298  0.1983  0.8339  0.6130
53194SOL    HW166440   3.199   6.900  11.281  0.7050  0.5804  1.4234
53194SOL    HW266441   3.305   7.007  11.272 -0.3706  1.5263 -1.1042
53195SOL     OW66442   9.962   4.940  11.785  0.0357  0.2139  0.3796
53195SOL    HW166443  10.013   5.013  11.818 -0.1590  0.7629 -0.4989
53195SOL    HW266444  10.023   4.892  11.728 -0.0328  0.0809  0.4185
53196SOL     OW66445   2.775   1.018   8.769  0.1672  0.0424 -0.0159
53196SOL    HW166446   2.866   1.020   8.739  0.4695 -1.2155  0.7253
53196SOL    HW266447   2.744   1.107   8.758  1.6952  0.6522  0.3043
53197SOL     OW66448   7.537   0.259   8.874 -0.5325  0.1444 -0.2437
53197SOL    HW166449   7.506   0.319   8.942 -0.8168 -1.0080  0.6788
53197SOL    HW266450   7.627   0.238   8.899 -1.0886 -1.3991  0.6412
53198SOL     OW66451   9.394  12.201   1.489  0.3693  0.3013 -0.5788
53198SOL    HW166452   9.415  12.111   1.513  2.8042  1.1881  0.8852
53198SOL    HW266453   9.299  12.206   1.498  0.4343 -1.4135  1.9854
53199SOL     OW66454   6.173  11.697   4.344 -0.3438  0.0462  0.2635
53199SOL    HW166455   6.111  11.640   4.299  1.9114 -0.6685 -2.1771
53199SOL    HW266456   6.241  11.639   4.377  0.6051  1.0518  0.1446
53200SOL     OW66457   7.438  12.119   4.382  0.4921 -0.3913 -0.0345
53200SOL    HW166458   7.413  12.051   4.320 -0.8822  0.6824 -0.7196
53200SOL    HW266459   7.415  12.201   4.338 -0.4848  0.4079  1.8385
53201SOL     OW66460   9.417   5.134   1.269 -0.1846  0.2222  0.5774
53201SOL    HW166461   9.374   5.049   1.262  0.2791  0.0730 -0.6192
53201SOL    HW266462   9.351   5.191   1.310 -2.0792  0.3701 -2.4169
53202SOL     OW66463   0.696   0.500   0.267 -0.5601 -0.2075  0.0735
53202SOL    HW166464   0.681   0.439   0.195  2.0276  0.8294 -1.4705
53202SOL    HW266465   0.663   0.584   0.234 -2.4103 -0.3172  1.4719
53203SOL     OW66466   6.286   2.192   8.899 -0.5571  0.3255  0.3986
53203SOL    HW166467   6.311   2.120   8.840  1.5067  0.6685  0.7713
53203SOL    HW266468   6.247   2.148   8.974  0.4208 -0.4385  0.4946
53204SOL     OW66469   2.949  10.407   1.866 -1.1686  0.0446  0.0899
53204SOL    HW166470   2.874  10.399   1.807  0.3591 -0.9031 -1.8474
53204SOL    HW266471   3.016  10.450   1.814  1.1058 -3.0997  0.1504
53205SOL     OW66472   7.964   5.674   5.821  0.1268  0.4430 -0.0581
53205SOL    HW166473   7.967   5.755   5.872  0.9330  1.8999 -2.2675
53205SOL    HW266474   8.055   5.643   5.821 -0.2884 -0.8894  1.3302
53206SOL     OW66475   4.358   2.145   9.697  0.1961  0.2596  0.4789
53206SOL    HW166476   4.440   2.096   9.709 -0.2756 -0.9172 -0.8212
53206SOL    HW266477   4.308   2.128   9.777  0.8743  0.3244  0.9285
53207SOL     OW66478   5.691   2.503   4.602 -0.1906  0.0854 -0.4505
53207SOL    HW166479   5.776   2.467   4.629  0.2939  1.1860 -0.4643
53207SOL    HW266480   5.713   2.579   4.549 -1.1954  0.4272 -0.3963
53208SOL     OW66481  10.424   9.821   5.681 -0.2520 -0.4541  0.0078
53208SOL    HW166482  10.423   9.883   5.754 -0.7096  0.5369 -0.8155
53208SOL    HW266483  10.513   9.787   5.680  0.5350  1.5107 -0.5938
53209SOL     OW66484  10.576   8.769   7.297  0.8090 -0.4119 -0.0179
53209SOL    HW166485  10.633   8.794   7.369  0.1291  1.7173 -0.1559
53209SOL    HW266486  10.630   8.781   7.219  1.1494 -1.5161  0.0286
53210SOL     OW66487   5.030   6.798  11.124 -0.3268 -0.1119 -0.1912
53210SOL    HW166488   5.044   6.703  11.131 -1.1980 -0.4165 -1.9849
53210SOL    HW266489   5.109   6.837  11.161 -0.0172 -1.5390  0.7071
53211SOL     OW66490  11.454  11.393   9.046  0.7340 -0.1782 -0.4443
53211SOL    HW166491  11.479  11.303   9.024  0.4966 -0.4323  0.2879
53211SOL    HW266492  11.532  11.444   9.028  1.3414 -0.7541  0.4885
53212SOL     OW66493   4.477   4.843  12.096  0.2299  0.2091 -1.0511
53212SOL    HW166494   4.499   4.751  12.080 -0.0836  0.0799 -0.7507
53212SOL    HW266495   4.457   4.878  12.009 -1.5943 -0.5237 -0.9802
53213SOL     OW66496  10.464   4.803  12.397  0.3944 -0.1154  0.2492
53213SOL    HW166497  10.370   4.823  12.396 -0.1001 -2.0442  1.8091
53213SOL    HW266498  10.487   4.790  12.305  0.0246  3.8253 -0.5625
53214SOL     OW66499   6.497  10.639   4.711 -0.3517  0.3116  0.1200
53214SOL    HW166500   6.515  10.699   4.639  2.2157  0.4416  0.7683
53214SOL    HW266501   6.583  10.615   4.744 -1.3805 -1.8728  1.4310
53215SOL     OW66502   9.947   8.519   4.013 -0.2939  0.2600 -0.0483
53215SOL    HW166503   9.884   8.455   3.978  1.1509 -1.8520  1.0064
53215SOL    HW266504  10.024   8.467   4.036  0.9079  2.3856  1.0399
53216SOL     OW66505   2.609   5.194   5.617  0.0698 -0.2086 -0.1531
53216SOL    HW166506   2.656   5.111   5.625  0.1551 -0.1378  0.0924
53216SOL    HW266507   2.677   5.259   5.600 -0.0828 -0.3145 -1.2023
53217SOL     OW66508   1.341   0.452   8.901 -0.0616  0.1773 -0.0192
53217SOL    HW166509   1.331   0.530   8.956 -0.4213  0.4609 -0.4803
53217SOL    HW266510   1.421   0.411   8.933 -0.3737  0.2277  0.8529
53218SOL     OW66511   1.823  10.241   5.015  0.2545  0.4902 -0.3788
53218SOL    HW166512   1.874  10.180   5.068  0.1753  0.3545 -0.4568
53218SOL    HW266513   1.751  10.267   5.072 -0.9501 -1.1753 -1.0646
53219SOL     OW66514   0.598   8.693  10.314  0.3862  0.1620  0.0214
53219SOL    HW166515   0.509   8.702  10.281  0.1639  1.4969  0.9180
53219SOL    HW266516   0.651   8.678  10.236 -0.6443 -1.0237 -0.4904
53220SOL     OW66517  11.343   9.603   1.546  0.0248  0.0658  0.4539
53220SOL    HW166518  11.363   9.537   1.613  0.1321  0.0235  0.3802
53220SOL    HW266519  11.376   9.685   1.583  0.0357  0.0515  0.4751
53221SOL     OW66520   8.017   4.073   7.074  0.6275 -0.0227  0.1096
53221SOL    HW166521   7.933   4.076   7.028  1.1086  0.8485 -0.7473
53221SOL    HW266522   8.066   4.147   7.039  1.2252  0.3522  1.6513
53222SOL     OW66523   5.863   7.789  11.945 -0.2900  0.5167 -0.3389
53222SOL    HW166524   5.846   7.700  11.915  1.6352 -0.2982  0.7864
53222SOL    HW266525   5.873   7.781  12.040  0.3985  1.8363 -0.2799
53223SOL     OW66526   4.908   2.770  11.809  0.3866  0.2324 -0.0924
53223SOL    HW166527   4.974   2.756  11.876  1.3900  0.3680 -1.0228
53223SOL    HW266528   4.888   2.682  11.776 -0.1020  0.1664  0.3648
53224SOL     OW66529   3.726   5.528   5.387  0.2219 -0.3342 -0.0361
53224SOL    HW166530   3.817   5.519   5.360  0.0293 -1.0146 -0.5075
53224SOL    HW266531   3.687   5.585   5.321  0.4291  0.4155  0.4796
53225SOL     OW66532  11.142   7.148   8.718  0.0194  0.0659  0.2965
53225SOL    HW166533  11.179   7.171   8.803 -0.7182 -1.2956  1.0108
53225SOL    HW266534  11.180   7.213   8.658  1.1132  0.6128  1.5115
53226SOL     OW66535   9.546  10.659   4.149  0.1336  0.3756  0.0538
53226SOL    HW166536   9.588  10.616   4.075 -2.5856 -1.9541 -0.3135
53226SOL    HW266537   9.548  10.595   4.220 -2.0708  0.3778  0.2129
53227SOL     OW66538   0.257  10.867   1.548  0.5650 -0.1249 -0.3408
53227SOL    HW166539   0.192  10.868   1.619 -0.3540 -1.8972 -1.1098
53227SOL    HW266540   0.222  10.928   1.483  1.5397  1.7097  0.7703
53228SOL     OW66541  10.219   9.790   7.943 -0.1913  0.3913 -0.3596
53228SOL    HW166542  10.124   9.781   7.935  0.0408 -1.2389 -1.9503
53228SOL    HW266543  10.239   9.874   7.901 -0.9532  1.0641  0.5680
53229SOL     OW66544   0.206   6.968   4.275  0.5494  0.1551  0.1208
53229SOL    HW166545   0.158   6.889   4.249  0.7999 -0.2034  0.7227
53229SOL    HW266546   0.282   6.971   4.216  0.2980  0.1967 -0.2015
53230SOL     OW66547   8.844  11.007   9.728 -0.0147  0.1355 -0.1178
53230SOL    HW166548   8.877  10.994   9.640  0.6810 -0.2955  0.2003
53230SOL    HW266549   8.840  11.102   9.739 -1.7698  0.2377 -1.2119
53231SOL     OW66550  10.244   2.490  11.802 -0.1851  0.5936 -0.6538
53231SOL    HW166551  10.319   2.433  11.819 -0.8340 -0.2610 -0.5931
53231SOL    HW266552  10.283   2.568  11.762  0.7195  0.0791 -0.8335
53232SOL     OW66553   4.692   0.692  10.559  0.4359 -0.1408  0.0321
53232SOL    HW166554   4.770   0.711  10.506  0.2853 -1.4236 -0.6858
53232SOL    HW266555   4.713   0.727  10.646  1.4553  0.3208 -0.3836
53233SOL     OW66556   5.454   0.892   9.619 -0.3453  0.3030  0.4815
53233SOL    HW166557   5.411   0.834   9.556 -0.6376 -1.2308  2.0317
53233SOL    HW266558   5.411   0.873   9.702  1.2344  0.9864  1.4956
53234SOL     OW66559   1.332   6.584  11.355  0.4783  0.7697  0.0479
53234SOL    HW166560   1.302   6.507  11.308  0.4744  0.6233  0.2861
53234SOL    HW266561   1.421   6.599  11.323  0.8573  0.0637  0.7289
53235SOL     OW66562   0.916   1.609   1.118  0.0288  0.5235  0.2981
53235SOL    HW166563   0.987   1.636   1.175  0.4808  0.3918 -0.1948
53235SOL    HW266564   0.952   1.615   1.030 -0.0824 -0.9482  0.1164
53236SOL     OW66565  11.832   3.765  10.855  0.6420 -0.0109 -0.0588
53236SOL    HW166566  11.889   3.791  10.927  1.2045 -1.3731  0.0182
53236SOL    HW266567  11.812   3.846  10.809  1.5065  0.6726  0.7452
53237SOL     OW66568  10.132   6.923   7.114 -0.2261  0.1090 -0.4853
53237SOL    HW166569  10.117   6.992   7.050 -3.7399 -0.0563 -0.0187
53237SOL    HW266570  10.105   6.843   7.070  0.3701 -0.4721  0.1762
53238SOL     OW66571  12.148   3.086   8.582  0.0884 -0.5439  0.3157
53238SOL    HW166572  12.097   3.167   8.578  1.0911  0.0972  0.0387
53238SOL    HW266573  12.120   3.044   8.663  1.3134  1.3200  1.7968
53239SOL     OW66574   1.728   9.610  10.540  0.0317 -0.1276 -0.8519
53239SOL    HW166575   1.819   9.585  10.523  0.7859  0.8923  1.2755
53239SOL    HW266576   1.697   9.544  10.602 -0.4610 -0.0521 -1.0179
53240SOL     OW66577   1.963   2.010   4.116 -0.3624  0.1577  0.0923
53240SOL    HW166578   2.002   1.922   4.107  0.4635  0.3838  1.2196
53240SOL    HW266579   1.922   2.009   4.202 -0.5733  0.7971  0.0017
53241SOL     OW66580   0.823  10.628  12.395 -0.3221  0.5608 -0.0700
53241SOL    HW166581   0.863  10.545  12.419  3.9702  1.3914 -3.0062
53241SOL    HW266582   0.846  10.688  12.466 -1.8356 -0.2713  1.1716
53242SOL     OW66583  10.491   1.613   4.582 -0.3443 -0.4701 -0.2295
53242SOL    HW166584  10.472   1.707   4.587  1.4033 -0.1537  1.7361
53242SOL    HW266585  10.435   1.573   4.649 -0.2818 -0.6883 -0.3057
53243SOL     OW66586   1.842   8.633   1.968 -0.7701  0.3698  0.1116
53243SOL    HW166587   1.804   8.687   1.898  0.2816 -0.5185 -1.1848
53243SOL    HW266588   1.934   8.659   1.971 -0.2515 -1.2869 -0.5075
53244SOL     OW66589   2.342   9.910   8.573 -0.0041  0.2737 -0.0566
53244SOL    HW166590   2.343   9.832   8.628 -0.1668 -0.7159 -1.3883
53244SOL    HW266591   2.252   9.914   8.541 -0.4497  1.9970  1.3031
53245SOL     OW66592   0.405   7.660   6.374  0.3146 -0.2830 -0.2372
53245SOL    HW166593   0.494   7.684   6.347 -1.2476  3.9859 -2.6519
53245SOL    HW266594   0.373   7.603   6.304  0.2137  0.7741 -1.0783
53246SOL     OW66595   7.275   8.581   7.764 -0.2872 -0.2962 -0.3800
53246SOL    HW166596   7.321   8.600   7.845  0.0457 -0.3855 -0.5462
53246SOL    HW266597   7.211   8.652   7.755  0.0145 -0.0105 -0.2949
53247SOL     OW66598   3.821   9.802  10.484 -0.7740  0.5645  0.6035
53247SOL    HW166599   3.864   9.745  10.548  0.1696 -1.7137 -1.8591
53247SOL    HW266600   3.776   9.741  10.426  2.0291  2.0195 -3.4933
53248SOL     OW66601   6.269  11.703   1.540 -0.1120  0.1622 -0.1645
53248SOL    HW166602   6.347  11.759   1.537 -1.2878  1.8794 -0.4934
53248SOL    HW266603   6.196  11.765   1.551 -1.3760 -1.4292  0.8858
53249SOL     OW66604   5.235   2.192  11.831  0.1746  0.0134  0.2625
53249SOL    HW166605   5.286   2.174  11.752 -0.0602 -0.9131  0.3158
53249SOL    HW266606   5.229   2.288  11.834  1.5733  0.1310  0.0407
53250SOL     OW66607   6.941   7.053  11.352  0.2222 -0.1666 -0.3142
53250SOL    HW166608   6.993   7.086  11.279 -0.0294  0.3995 -0.2439
53250SOL    HW266609   6.857   7.099  11.344  0.2391  0.0018  0.4023
53251SOL     OW66610  11.438   4.407   0.960 -0.0052  0.0769 -0.2917
53251SOL    HW166611  11.410   4.479   0.904 -1.9348 -0.3621  0.0382
53251SOL    HW266612  11.361   4.385   1.012  1.2754 -0.5565  1.4412
53252SOL     OW66613   9.345   9.775   7.138 -0.3184 -0.2406 -0.1123
53252SOL    HW166614   9.381   9.698   7.095  1.6258  1.1758 -1.1511
53252SOL    HW266615   9.367   9.764   7.231 -0.2058 -0.9886 -0.2224
53253SOL     OW66616   7.564   2.999   3.974 -0.1698  0.2582 -0.6751
53253SOL    HW166617   7.598   2.939   4.040  1.2968  2.8347  1.1272
53253SOL    HW266618   7.501   2.948   3.924  0.9108 -2.6773  0.7614
53254SOL     OW66619   7.809  11.580   9.589  0.9673  0.6229  0.6446
53254SOL    HW166620   7.830  11.655   9.533  2.2576 -0.0119  0.2484
53254SOL    HW266621   7.844  11.504   9.542 -1.0298 -0.3569  0.6468
53255SOL     OW66622   0.725   4.443   4.252 -0.0549 -0.5149  0.3449
53255SOL    HW166623   0.757   4.408   4.169 -2.5377  1.4074 -1.6012
53255SOL    HW266624   0.777   4.522   4.266 -1.4500  0.7034 -0.9718
53256SOL     OW66625   5.092   7.861   3.780 -1.0154 -0.0097 -0.2199
53256SOL    HW166626   5.126   7.950   3.781 -1.0938  0.0449 -1.3142
53256SOL    HW266627   5.152   7.813   3.723  0.4479 -1.2650  2.2390
53257SOL     OW66628   2.711   0.906   2.259  0.0602  0.7027  0.5754
53257SOL    HW166629   2.745   0.820   2.282  1.2456  1.0647  0.2730
53257SOL    HW266630   2.736   0.918   2.167 -2.5759  0.2223 -0.2847
53258SOL     OW66631  10.939   2.194   0.683  0.5127 -0.0001  0.2557
53258SOL    HW166632  10.919   2.232   0.768 -0.0613  0.8115 -0.2318
53258SOL    HW266633  10.895   2.251   0.620  0.8810 -0.6217 -0.5828
53259SOL     OW66634  11.619   2.535   1.403  0.1820 -0.7118  0.0766
53259SOL    HW166635  11.660   2.568   1.323  0.7453 -1.3931  0.0733
53259SOL    HW266636  11.542   2.487   1.373 -0.7878  0.7838  0.0978
53260SOL     OW66637   8.685   1.683  11.984 -1.0444  0.1361 -0.2818
53260SOL    HW166638   8.615   1.671  12.048 -1.9639 -1.1753 -1.4833
53260SOL    HW266639   8.721   1.595  11.971  1.1673  0.8314  0.6373
53261SOL     OW66640   1.488   3.348  10.970 -0.1050  0.1991 -0.2979
53261SOL    HW166641   1.531   3.264  10.983 -1.8730 -0.7714 -0.3342
53261SOL    HW266642   1.559   3.413  10.972  1.1505 -1.1288  1.2002
53262SOL     OW66643   7.517   7.780  11.160  0.4814  0.1830  0.3059
53262SOL    HW166644   7.498   7.687  11.146  2.5407  0.0885 -2.5865
53262SOL    HW266645   7.589   7.799  11.102 -0.0847  3.7411  0.5563
53263SOL     OW66646   9.310   0.877  10.651  0.6282 -0.5722  0.2598
53263SOL    HW166647   9.329   0.874  10.744  1.3130 -0.6363  0.1234
53263SOL    HW266648   9.245   0.947  10.642 -0.4502 -1.4567  0.9381
53264SOL     OW66649  10.029   6.833   4.140  0.6524  0.4187 -0.3388
53264SOL    HW166650  10.054   6.876   4.059  0.3759  0.2570 -0.5124
53264SOL    HW266651  10.102   6.848   4.199  0.6156  1.0100 -0.4403
53265SOL     OW66652   6.916   2.596   0.321 -0.1517  0.4071 -0.2262
53265SOL    HW166653   6.963   2.631   0.244 -0.9897 -0.6468 -1.2557
53265SOL    HW266654   6.964   2.517   0.344  0.8021  1.3347  1.1189
53266SOL     OW66655   4.942   7.706   4.628  0.0383  0.0344 -0.7792
53266SOL    HW166656   5.019   7.650   4.630 -1.0389 -1.4932  0.9458
53266SOL    HW266657   4.934   7.738   4.718 -0.9435  0.7240 -1.1009
53267SOL     OW66658   3.308   7.217   4.629  0.2886  0.1399 -0.1366
53267SOL    HW166659   3.212   7.218   4.633  0.1902  1.7055 -1.4047
53267SOL    HW266660   3.335   7.274   4.700  0.6050 -3.7699  3.2094
53268SOL     OW66661   4.286   1.839   1.553 -0.5880 -0.3303  0.3082
53268SOL    HW166662   4.286   1.744   1.551 -1.1517 -0.3479  0.8902
53268SOL    HW266663   4.228   1.865   1.481 -0.6561 -0.4328  0.3260
53269SOL     OW66664   7.595   3.968   3.233 -0.1371  0.0307  0.2739
53269SOL    HW166665   7.578   4.054   3.193 -1.0860 -0.4854 -0.4843
53269SOL    HW266666   7.580   3.982   3.326 -0.1591  0.7157  0.1769
53270SOL     OW66667   9.449   7.989   3.706  0.0967  0.1735  0.2217
53270SOL    HW166668   9.520   7.941   3.663 -1.6261 -1.8840 -0.5076
53270SOL    HW266669   9.431   8.063   3.647  0.1810 -0.5363 -0.7216
53271SOL     OW66670   1.360   9.667   5.259  1.0887  0.0048 -0.1905
53271SOL    HW166671   1.433   9.678   5.320  1.2595  0.3488 -0.4508
53271SOL    HW266672   1.347   9.572   5.254  0.1379  0.0214  1.4547
53272SOL     OW66673   4.799   0.692   6.424 -0.3155 -0.1213  0.3035
53272SOL    HW166674   4.894   0.695   6.416 -0.2992  3.2574  0.4005
53272SOL    HW266675   4.771   0.633   6.353  1.7349  0.3722 -0.9980
53273SOL     OW66676   6.087   8.662   3.019  0.1888  0.2265 -0.0530
53273SOL    HW166677   6.106   8.661   2.926 -0.0738  0.1267 -0.1053
53273SOL    HW266678   6.131   8.584   3.054 -0.9346 -0.5663 -0.3366
53274SOL     OW66679  11.070   3.923   0.206 -0.4684  0.2369 -0.0299
53274SOL    HW166680  11.067   3.889   0.295 -1.5814 -2.7201 -1.1012
53274SOL    HW266681  10.979   3.930   0.179 -0.1395 -0.9550 -1.6098
53275SOL     OW66682  12.192   6.745   8.744  0.0491  0.4958  0.0390
53275SOL    HW166683  12.175   6.776   8.655 -4.3564 -0.5002  0.3097
53275SOL    HW266684  12.190   6.824   8.798  2.3748  1.0613 -0.6001
53276SOL     OW66685   7.482  11.712   0.494 -0.2413 -0.1585  0.4082
53276SOL    HW166686   7.429  11.673   0.425  1.9660  0.4035 -1.7615
53276SOL    HW266687   7.562  11.660   0.495  0.3232  0.6891  1.6210
53277SOL     OW66688   1.500   6.574   3.986  0.4378 -0.0611  0.3618
53277SOL    HW166689   1.576   6.610   3.940  0.8115  1.2148  1.9092
53277SOL    HW266690   1.481   6.492   3.939  1.6756  0.4457 -1.1317
53278SOL     OW66691  10.080   5.899   4.649 -0.0926  0.3167 -0.0198
53278SOL    HW166692  10.151   5.857   4.601 -0.0142  0.8713 -0.3944
53278SOL    HW266693  10.111   5.905   4.739  0.0099 -0.1636 -0.0195
53279SOL     OW66694   9.411  10.481   8.640  0.3501  0.1334  0.4976
53279SOL    HW166695   9.496  10.498   8.681  0.6843  1.5293 -0.6746
53279SOL    HW266696   9.430  10.414   8.574  0.2606 -0.4893  1.0897
53280SOL     OW66697   1.057   8.275  11.069 -0.0742 -0.1068  0.0028
53280SOL    HW166698   1.075   8.238  11.156 -1.2937 -0.0634  0.2899
53280SOL    HW266699   1.011   8.206  11.023 -0.7198  0.3871 -0.1007
53281SOL     OW66700   6.892  10.253   0.628 -0.3388 -0.1597  0.2905
53281SOL    HW166701   6.815  10.297   0.591 -1.2959  1.5943  3.9079
53281SOL    HW266702   6.857  10.200   0.699  1.5165 -2.0189 -0.0976
53282SOL     OW66703   7.053   6.629  10.223  0.6632  0.0311  0.5072
53282SOL    HW166704   6.985   6.692  10.249 -0.4469 -1.4289  1.2503
53282SOL    HW266705   7.009   6.569  10.163  1.6105 -0.2604  0.0910
53283SOL     OW66706   1.501  12.417  11.481 -0.1213  0.3931  0.4626
53283SOL    HW166707   1.444  12.341  11.470  0.4935 -0.2235  1.3527
53283SOL    HW266708   1.584  12.391  11.442 -0.0027  0.7317  0.4835
53284SOL     OW66709   4.300   3.937   3.210  0.0631  1.1222  0.0161
53284SOL    HW166710   4.277   3.930   3.118  2.2300  1.7009 -0.6164
53284SOL    HW266711   4.310   4.031   3.225  0.3102  0.9925  0.7000
53285SOL     OW66712   0.269   1.763   5.340  0.1552 -0.4579 -0.6059
53285SOL    HW166713   0.358   1.757   5.376 -0.5169  1.2044  1.5687
53285SOL    HW266714   0.218   1.700   5.390 -0.3216  0.1718 -0.2842
53286SOL     OW66715   5.073   9.878   4.031 -0.2348  0.0321 -0.2287
53286SOL    HW166716   5.102   9.843   4.115  0.2250 -1.6862 -1.0628
53286SOL    HW266717   5.152   9.920   3.995  0.0399 -0.7376 -0.5413
53287SOL     OW66718   5.582   2.896   6.024 -0.7683 -0.0961 -0.2195
53287SOL    HW166719   5.623   2.980   6.001  0.6903  0.1384  2.7613
53287SOL    HW266720   5.645   2.830   5.997  1.5937  0.2353  3.7517
53288SOL     OW66721   8.421  11.472   7.123  0.2610 -0.0222 -0.0914
53288SOL    HW166722   8.459  11.518   7.197 -0.3272  0.8039 -0.2844
53288SOL    HW266723   8.327  11.480   7.135  0.0985 -2.2344  0.5037
53289SOL     OW66724  12.316   7.204   0.694 -0.1358  0.1564 -0.0662
53289SOL    HW166725  12.405   7.205   0.728 -0.0997 -1.1124 -0.0550
53289SOL    HW266726  12.319   7.138   0.624 -0.5160  1.7596 -1.6492
53290SOL     OW66727   2.408   8.572   7.975 -0.3735  0.1149 -0.0665
53290SOL    HW166728   2.396   8.664   7.996 -1.0704 -0.5343  2.7090
53290SOL    HW266729   2.503   8.561   7.966 -0.3539  1.2943 -1.6814
53291SOL     OW66730   8.997   8.186   8.268  0.3315 -0.5901  0.2074
53291SOL    HW166731   9.045   8.121   8.321  1.3868 -0.0713 -0.0797
53291SOL    HW266732   8.934   8.134   8.218  0.5196 -1.2864  0.6710
53292SOL     OW66733   9.139  10.704  10.388  0.3991  0.1113  0.3893
53292SOL    HW166734   9.180  10.762  10.451  1.7623  0.1239 -0.4649
53292SOL    HW266735   9.150  10.748  10.304 -1.0477 -0.0756  0.0862
53293SOL     OW66736   7.224   8.632  12.111 -0.4143 -0.2052 -0.1676
53293SOL    HW166737   7.190   8.632  12.022  0.0234 -1.1365 -0.3498
53293SOL    HW266738   7.265   8.718  12.121 -0.2619 -0.1770 -0.9549
53294SOL     OW66739   3.785   8.898   1.658 -0.0787  0.0186 -0.0547
53294SOL    HW166740   3.834   8.980   1.663  1.3862 -0.8302 -0.1373
53294SOL    HW266741   3.793   8.870   1.567 -0.2669 -0.3948  0.0530
53295SOL     OW66742   8.205  11.563   6.637  0.6665 -0.2422 -0.5903
53295SOL    HW166743   8.215  11.565   6.732  1.1784  1.4140 -0.6577
53295SOL    HW266744   8.246  11.643   6.606 -2.9781  1.3605 -1.8624
53296SOL     OW66745   0.216   6.169   0.901  0.2221  0.2545 -0.1020
53296SOL    HW166746   0.218   6.215   0.818  1.6877 -1.0466 -0.8300
53296SOL    HW266747   0.258   6.229   0.963  1.4551  0.2277 -0.8738
53297SOL     OW66748   7.772   7.170   7.512 -0.0162  0.4775 -0.3897
53297SOL    HW166749   7.693   7.175   7.459  0.5115  2.0125 -1.0959
53297SOL    HW266750   7.783   7.259   7.547  0.8243  0.0276  0.5333
53298SOL     OW66751   8.824  10.514   3.390 -0.5474  0.4004 -0.3194
53298SOL    HW166752   8.758  10.503   3.322 -1.3071  1.5155  0.1995
53298SOL    HW266753   8.843  10.608   3.390  0.2710  0.2510  0.2551
53299SOL     OW66754   7.316   6.691   1.680 -0.0964  0.7486 -0.1694
53299SOL    HW166755   7.262   6.670   1.756 -0.4623 -1.2317 -0.9157
53299SOL    HW266756   7.342   6.783   1.693  2.3275 -0.2448  3.8560
53300SOL     OW66757   9.969   9.057  10.619 -0.3642  0.4659 -0.1053
53300SOL    HW166758   9.993   9.079  10.529  0.5714 -1.3551 -0.3520
53300SOL    HW266759  10.045   9.083  10.671 -1.1684  2.1341  0.2880
53301SOL     OW66760  10.120   8.224   5.390 -0.3093  0.5440 -0.2526
53301SOL    HW166761  10.071   8.260   5.464  0.0433  1.0306 -0.2575
53301SOL    HW266762  10.196   8.181   5.430 -1.6330 -1.8130 -0.0738
53302SOL     OW66763   3.478  11.621  10.769  0.0344  0.3103 -0.0505
53302SOL    HW166764   3.384  11.620  10.784  0.1072  1.7799  0.6306
53302SOL    HW266765   3.488  11.662  10.683  0.0835  1.2182  0.3731
53303SOL     OW66766  10.086   4.645   7.705 -0.4402 -0.1461  0.4327
53303SOL    HW166767  10.146   4.716   7.727 -1.9549  0.3410  3.6492
53303SOL    HW266768  10.130   4.566   7.737  0.2979 -0.4071 -1.1610
53304SOL     OW66769  10.212   2.798  11.928  0.1826 -0.1261 -0.1892
53304SOL    HW166770  10.170   2.882  11.941  1.3803  0.5688 -0.6273
53304SOL    HW266771  10.223   2.790  11.833 -0.0215 -0.8245 -0.1609
53305SOL     OW66772   1.827  10.830   3.679 -0.1919 -0.1422  0.1165
53305SOL    HW166773   1.739  10.795   3.695  0.4217 -0.9013  2.0763
53305SOL    HW266774   1.829  10.912   3.729 -0.3776  0.8594 -1.4557
53306SOL     OW66775   4.027  11.338   5.491  0.2011 -0.6633 -0.1815
53306SOL    HW166776   3.939  11.302   5.478 -0.7985  1.7981 -0.6893
53306SOL    HW266777   4.072  11.322   5.408 -0.2009 -0.7599 -0.3826
53307SOL     OW66778   9.699   9.216   5.001 -0.1229 -0.3653  0.0788
53307SOL    HW166779   9.720   9.305   4.972 -3.5616  0.6908  0.4066
53307SOL    HW266780   9.703   9.220   5.096 -0.0830 -0.6219  0.0887
53308SOL     OW66781   5.493   8.747   3.702  1.0396 -0.3709  0.0038
53308SOL    HW166782   5.556   8.683   3.671  1.0462  0.7945 -2.6691
53308SOL    HW266783   5.417   8.736   3.645  0.4559  0.9832  0.4767
53309SOL     OW66784   0.064   5.736   7.246 -0.0277 -0.0052 -0.0899
53309SOL    HW166785   0.140   5.788   7.218  0.2347 -0.5721 -0.4750
53309SOL    HW266786   0.075   5.726   7.340  1.0711 -1.1123 -0.3008
53310SOL     OW66787   4.845   9.496  11.364  0.8151 -0.7698  0.1920
53310SOL    HW166788   4.891   9.412  11.366  0.9887 -0.6555  2.2053
53310SOL    HW266789   4.850   9.530  11.453  0.4798  1.2573 -0.4875
53311SOL     OW66790   1.868   4.924   1.984 -0.6271 -0.3663  0.1360
53311SOL    HW166791   1.894   4.843   1.941 -0.7848 -0.5233  0.3360
53311SOL    HW266792   1.773   4.916   1.993 -0.5086 -0.6544  1.1861
53312SOL     OW66793   4.551  10.175   6.138 -0.0375  0.1415  0.3894
53312SOL    HW166794   4.507  10.090   6.146  0.6232 -0.0758  2.1016
53312SOL    HW266795   4.573  10.182   6.045  0.1779 -1.7170  0.2645
53313SOL     OW66796  12.159   8.556  11.766 -0.5251  0.5874 -0.1720
53313SOL    HW166797  12.244   8.529  11.801 -0.6677  1.4404  0.8831
53313SOL    HW266798  12.096   8.497  11.808 -0.5750  0.8052  0.0618
53314SOL     OW66799   7.391   2.838   6.007 -0.5466  0.2765  0.1194
53314SOL    HW166800   7.328   2.781   5.961 -1.0497  1.9324 -1.3461
53314SOL    HW266801   7.468   2.840   5.950 -0.5763  1.1331  0.0978
53315SOL     OW66802   6.417  10.051   0.778 -0.5145 -0.2109 -0.3270
53315SOL    HW166803   6.489   9.998   0.742 -1.1573 -1.8142  0.6376
53315SOL    HW266804   6.455  10.093   0.855 -0.6407 -1.2279  0.3087
53316SOL     OW66805   5.387   2.051   6.432  0.4124 -0.0807 -0.4738
53316SOL    HW166806   5.307   2.021   6.477 -0.2510  1.6906 -0.3868
53316SOL    HW266807   5.457   1.996   6.468 -0.4607 -0.2564  1.0304
53317SOL     OW66808  11.537   4.437   8.919 -0.2559  0.3398 -0.1435
53317SOL    HW166809  11.631   4.415   8.918 -0.1338  0.4639  2.4220
53317SOL    HW266810  11.534   4.528   8.948 -1.1736  0.5687 -0.9074
53318SOL     OW66811   0.795   2.919   9.944  0.7094 -0.3598 -0.6504
53318SOL    HW166812   0.745   2.838   9.930 -0.1458  0.2476 -1.1917
53318SOL    HW266813   0.777   2.942  10.035  0.0918 -0.2136 -0.8042
53319SOL     OW66814   2.262   1.886   8.302  0.0620  0.6268  0.3789
53319SOL    HW166815   2.188   1.839   8.263  1.1238  0.1613 -1.1238
53319SOL    HW266816   2.322   1.901   8.230  1.8155  0.2840  1.7135
53320SOL     OW66817   2.917   7.656   5.002  0.5808 -0.3317 -0.6029
53320SOL    HW166818   2.881   7.568   5.008 -0.0347  0.0264  1.9306
53320SOL    HW266819   3.012   7.644   5.012  0.3570 -0.6151  1.4652
53321SOL     OW66820   1.730   4.255  11.270  0.0818  0.4668 -0.1288
53321SOL    HW166821   1.640   4.285  11.284 -0.5707 -1.0633 -0.8284
53321SOL    HW266822   1.768   4.250  11.358  0.1737  3.0142  0.0457
53322SOL     OW66823  11.818   4.840   0.476  0.5354  0.0494  0.3750
53322SOL    HW166824  11.912   4.852   0.461  0.7797 -1.9852 -0.0203
53322SOL    HW266825  11.781   4.831   0.388 -0.2567  2.0993  0.4685
53323SOL     OW66826   3.257   1.994   8.423 -0.1309  0.0188 -0.1280
53323SOL    HW166827   3.188   2.018   8.485  0.0142  0.0058  0.0383
53323SOL    HW266828   3.334   1.979   8.478  0.5697  2.1037 -0.4605
53324SOL     OW66829  10.417   3.211   7.324 -0.3155  0.4879  0.2573
53324SOL    HW166830  10.419   3.195   7.418 -0.4804  2.3515  0.6246
53324SOL    HW266831  10.479   3.149   7.287 -1.5620 -1.5273  1.3535
53325SOL     OW66832   6.552   4.740   5.123 -0.2003 -0.0394  0.1957
53325SOL    HW166833   6.598   4.658   5.140  0.0010 -0.2849 -1.4053
53325SOL    HW266834   6.461   4.716   5.113  0.0130 -0.2578 -1.4092
53326SOL     OW66835   7.461   0.692   6.312 -0.1302  0.2047 -0.1646
53326SOL    HW166836   7.490   0.779   6.284  0.4828 -0.5460 -2.0204
53326SOL    HW266837   7.520   0.631   6.268 -1.2336 -1.1889  0.1962
53327SOL     OW66838   3.514  11.326   2.518 -0.1206 -0.3179  0.1696
53327SOL    HW166839   3.428  11.332   2.561 -0.6956 -0.8772 -0.8573
53327SOL    HW266840   3.531  11.232   2.512  0.4797 -0.2116  0.1872
53328SOL     OW66841   5.767   5.244   5.629  0.2186  0.9934 -0.2820
53328SOL    HW166842   5.718   5.283   5.702  0.0206  1.0432 -0.4388
53328SOL    HW266843   5.851   5.219   5.667 -1.0455 -2.1039  0.8490
53329SOL     OW66844  12.227   6.917  11.292 -0.4702  0.3482 -0.0386
53329SOL    HW166845  12.200   6.944  11.380  1.3188 -1.8492  1.3248
53329SOL    HW266846  12.191   6.829  11.282  1.0309 -0.2386 -0.6222
53330SOL     OW66847   3.372   6.454  11.098 -0.0809  0.1302  0.1249
53330SOL    HW166848   3.362   6.360  11.113 -0.9180  0.1869 -0.0331
53330SOL    HW266849   3.296   6.478  11.045  0.3148  0.8343 -0.1429
53331SOL     OW66850   9.820   1.843   5.055 -0.2955 -0.1111  0.4445
53331SOL    HW166851   9.840   1.819   4.964  0.8271 -2.3899  1.2141
53331SOL    HW266852   9.901   1.880   5.088 -0.7756  0.9339  0.4797
53332SOL     OW66853   8.300   7.212   9.134  0.0808  0.7066 -0.1325
53332SOL    HW166854   8.342   7.154   9.197 -0.3129  0.0024 -0.5068
53332SOL    HW266855   8.303   7.298   9.175 -0.1060  0.2770  0.8180
53333SOL     OW66856   8.842   3.093   1.175  0.1235 -0.0959 -0.3460
53333SOL    HW166857   8.831   3.003   1.205  0.7393 -0.7335 -1.9418
53333SOL    HW266858   8.768   3.108   1.116  1.3741 -0.4786 -2.0984
53334SOL     OW66859   6.210   5.017   6.661 -0.2841 -0.6316 -0.1827
53334SOL    HW166860   6.268   5.040   6.588 -0.5579 -2.1579 -0.9261
53334SOL    HW266861   6.266   5.023   6.738  0.4666 -0.6032 -0.7113
53335SOL     OW66862   4.365   9.163  10.879 -0.2772  0.4959 -0.3895
53335SOL    HW166863   4.321   9.218  10.815  0.2364  0.5783 -0.6780
53335SOL    HW266864   4.383   9.221  10.953 -1.5021  0.2353  0.1450
53336SOL     OW66865   6.522  12.197   9.175  0.0899 -0.0201 -0.4104
53336SOL    HW166866   6.569  12.249   9.110 -1.4727  1.6648 -0.2645
53336SOL    HW266867   6.465  12.141   9.123 -2.1515  2.2735 -0.5873
53337SOL     OW66868  11.231   5.317   5.968  0.3572 -0.1701 -0.6481
53337SOL    HW166869  11.174   5.259   5.917 -0.4530 -0.6084  0.7072
53337SOL    HW266870  11.276   5.370   5.902  0.0726 -1.3672 -1.8623
53338SOL     OW66871   3.659   4.665   2.220  0.2761 -0.0082  0.1470
53338SOL    HW166872   3.741   4.632   2.183 -0.5718 -1.1617 -0.7402
53338SOL    HW266873   3.663   4.642   2.313  0.0789 -1.9077 -0.2851
53339SOL     OW66874  10.336  11.539   3.061  0.4418 -0.4463  0.4224
53339SOL    HW166875  10.305  11.531   2.971  2.4036 -0.8419 -0.2681
53339SOL    HW266876  10.335  11.633   3.078  0.9786 -0.2869 -0.3714
53340SOL     OW66877  10.428   5.102   4.060 -0.1561 -0.1890 -0.0615
53340SOL    HW166878  10.505   5.051   4.034  0.7476  1.1434 -0.1096
53340SOL    HW266879  10.424   5.093   4.155  1.6427  1.7633  0.2855
53341SOL     OW66880   2.617   0.408   2.354  0.6348 -0.1389  0.5658
53341SOL    HW166881   2.551   0.418   2.422  0.3373 -0.9550  0.4150
53341SOL    HW266882   2.571   0.360   2.284  1.0047  0.4570 -0.0965
53342SOL     OW66883   8.985   7.073   7.937  0.0382  0.1060 -0.3379
53342SOL    HW166884   9.029   7.152   7.905 -0.9123  0.9812  0.4556
53342SOL    HW266885   8.892   7.091   7.925 -0.2746 -0.1706  1.4732
53343SOL     OW66886   4.958   4.594  10.572  0.1060 -1.0205 -0.6819
53343SOL    HW166887   5.043   4.637  10.574 -0.8062  0.9259 -0.8209
53343SOL    HW266888   4.926   4.606  10.483 -0.4641 -1.3765 -0.5342
53344SOL     OW66889   5.762   7.588   8.226  0.1675 -0.3012  0.4479
53344SOL    HW166890   5.837   7.596   8.167  1.2129 -0.7500  1.6578
53344SOL    HW266891   5.791   7.525   8.293 -1.5794 -1.0961  0.5166
53345SOL     OW66892   1.469   4.431   2.662  0.3339  0.3850 -0.0221
53345SOL    HW166893   1.448   4.370   2.732  1.2011 -0.8253 -0.7655
53345SOL    HW266894   1.384   4.453   2.623 -0.0079 -0.2136  0.3749
53346SOL     OW66895   4.599   1.883   3.544  0.0973  0.5339 -0.4292
53346SOL    HW166896   4.608   1.788   3.548 -1.3918  0.3903  0.2738
53346SOL    HW266897   4.649   1.915   3.619  0.8772  0.3447 -0.8578
53347SOL     OW66898   9.440   0.783   7.913  0.0056  0.2310 -0.6862
53347SOL    HW166899   9.458   0.794   8.006 -0.0088 -0.3420 -0.6081
53347SOL    HW266900   9.348   0.755   7.910  0.0123  0.2236 -0.8704
53348SOL     OW66901   2.622   4.373   6.858  0.5356 -0.0868  0.0705
53348SOL    HW166902   2.571   4.301   6.894  0.2696  0.2565  0.4006
53348SOL    HW266903   2.662   4.415   6.934 -0.2066  0.7808  0.0110
53349SOL     OW66904   4.195   8.394   3.487 -0.4543 -0.4554 -0.1497
53349SOL    HW166905   4.111   8.414   3.530 -0.7409 -1.7963 -0.0575
53349SOL    HW266906   4.188   8.436   3.402 -0.4347  1.0634  0.5548
53350SOL     OW66907  12.344   1.735   1.218  0.2107  0.2024  0.2760
53350SOL    HW166908  12.300   1.711   1.300 -0.6342  0.4876 -0.0742
53350SOL    HW266909  12.437   1.737   1.239 -0.0586  1.1618  1.4624
53351SOL     OW66910   6.040   9.384   3.618 -0.0810 -0.0888 -0.4501
53351SOL    HW166911   5.952   9.347   3.617  0.4590 -1.3901 -0.8909
53351SOL    HW266912   6.088   9.330   3.680  0.8045 -0.3412 -1.3444
53352SOL     OW66913   9.345  11.576   6.592 -0.1403 -0.5014 -0.8603
53352SOL    HW166914   9.397  11.642   6.638 -0.0116 -0.7694 -0.6227
53352SOL    HW266915   9.393  11.562   6.510 -0.0866 -0.4119 -0.8452
53353SOL     OW66916   2.362   4.874   9.859 -0.5675  0.1401 -0.0628
53353SOL    HW166917   2.333   4.784   9.880 -1.1569  0.4528  0.5138
53353SOL    HW266918   2.394   4.869   9.769 -0.0896 -0.7703  0.1443
53354SOL     OW66919   2.744   6.508   9.453  0.1106 -0.3273 -0.8216
53354SOL    HW166920   2.824   6.560   9.455  0.0238 -0.1328  1.7252
53354SOL    HW266921   2.774   6.417   9.460  0.2101 -0.1688  2.6494
53355SOL     OW66922   6.462   9.620  11.509 -0.3954  0.5218  0.3600
53355SOL    HW166923   6.375   9.582  11.523 -0.4479 -0.1026 -1.4161
53355SOL    HW266924   6.454   9.667  11.426  1.0096  0.2849  0.0696
53356SOL     OW66925   8.541  11.534   6.432 -0.1672 -0.5211  0.2795
53356SOL    HW166926   8.633  11.546   6.406 -0.4699 -0.9364 -1.0664
53356SOL    HW266927   8.491  11.561   6.355 -1.1994  0.0446  1.1214
53357SOL     OW66928  11.943   7.593  11.715  0.5573  0.0896 -0.3984
53357SOL    HW166929  12.005   7.553  11.653  1.4593  1.0764 -0.1606
53357SOL    HW266930  11.857   7.563  11.685  1.1729 -2.1962 -0.1142
53358SOL     OW66931   7.973   6.659   1.267 -0.0403 -1.0685  0.6365
53358SOL    HW166932   7.982   6.635   1.359 -0.0537 -1.9227  0.4232
53358SOL    HW266933   7.970   6.755   1.267 -0.3052 -1.0679  1.5481
53359SOL     OW66934   9.412   1.331   8.661 -0.5697 -0.0492  0.2686
53359SOL    HW166935   9.481   1.396   8.666  1.3360 -1.9318  0.1554
53359SOL    HW266936   9.410   1.304   8.569 -2.1125  0.6014  0.0830
53360SOL     OW66937   4.959   6.806   6.302 -0.2000 -0.1952 -0.4066
53360SOL    HW166938   4.963   6.805   6.398 -0.8183  1.4228 -0.3359
53360SOL    HW266939   5.049   6.789   6.275  0.2673  0.7407  0.4905
53361SOL     OW66940   4.156   0.555   5.814 -0.4894  0.0792 -0.0678
53361SOL    HW166941   4.153   0.461   5.832 -1.3507 -0.0259 -0.6804
53361SOL    HW266942   4.176   0.561   5.720 -1.1134  0.4896 -0.1811
53362SOL     OW66943   3.692  12.459   3.947  0.0401 -0.6337 -0.1907
53362SOL    HW166944   3.688  12.554   3.949  1.2635 -0.5723  0.1810
53362SOL    HW266945   3.708  12.433   4.038  1.8327 -1.0476 -0.5809
53363SOL     OW66946   7.955   7.674   5.291  0.1557 -0.1681  0.1318
53363SOL    HW166947   7.873   7.679   5.243 -0.4587 -1.1909  1.0246
53363SOL    HW266948   7.971   7.764   5.321 -0.5829  0.0505 -0.1232
53364SOL     OW66949   0.390  12.407   4.242  0.2708  0.1930 -0.2288
53364SOL    HW166950   0.392  12.472   4.313  0.3618  0.3443 -0.3689
53364SOL    HW266951   0.298  12.381   4.236  0.3244 -0.1022  0.2003
53365SOL     OW66952  10.245   7.229   2.911 -0.5522 -0.0323  0.0382
53365SOL    HW166953  10.169   7.199   2.861 -0.6410 -0.0662  0.1926
53365SOL    HW266954  10.298   7.150   2.924 -0.9885 -0.2024  0.7995
53366SOL     OW66955   1.750   6.271   8.527  0.1443  0.3361 -0.2991
53366SOL    HW166956   1.754   6.198   8.589  2.6873  0.0667 -0.6436
53366SOL    HW266957   1.801   6.341   8.569  0.0974  0.9007 -1.1561
53367SOL     OW66958   7.765   5.446   4.957 -0.4069  0.1076  0.1169
53367SOL    HW166959   7.793   5.489   5.038 -1.4385  0.7917  0.1257
53367SOL    HW266960   7.717   5.513   4.909  0.1711 -0.2961 -1.0709
53368SOL     OW66961   8.499   5.050   5.936 -0.0051  0.0733 -0.0235
53368SOL    HW166962   8.555   5.124   5.911 -0.1381  0.0654 -0.3503
53368SOL    HW266963   8.493   5.056   6.031 -0.6111  0.9240 -0.0986
53369SOL     OW66964   0.256   3.229  10.511  0.4493  0.0441 -0.3368
53369SOL    HW166965   0.166   3.261  10.514  0.0715 -0.7205 -2.3138
53369SOL    HW266966   0.283   3.225  10.603 -1.7275 -0.2689  0.3447
53370SOL     OW66967   0.119   7.992   1.579  0.3737  0.0672  0.2927
53370SOL    HW166968   0.111   8.027   1.491  0.1622 -1.4670 -0.3413
53370SOL    HW266969   0.065   8.049   1.634 -1.2717 -0.2198 -0.9640
53371SOL     OW66970   4.421   5.537   8.246  0.0084  0.6498 -0.0314
53371SOL    HW166971   4.349   5.596   8.271 -0.2467  0.4023 -0.1781
53371SOL    HW266972   4.399   5.454   8.288  1.0884  1.0236  1.3506
53372SOL     OW66973   4.490   8.304  10.890 -0.6948 -0.2493 -0.1601
53372SOL    HW166974   4.428   8.359  10.843 -0.8928 -1.3541 -1.2554
53372SOL    HW266975   4.554   8.364  10.926 -0.6321  0.6709 -1.7195
53373SOL     OW66976   9.025  11.125   9.145 -0.0284 -0.0872 -0.1835
53373SOL    HW166977   9.092  11.193   9.147  2.0607 -2.0410  1.3490
53373SOL    HW266978   9.027  11.093   9.055 -1.0363  1.7826 -0.9274
53374SOL     OW66979   5.917   1.169   6.596 -0.4280 -0.2450  0.6838
53374SOL    HW166980   5.905   1.215   6.679  3.2283 -0.8753  1.7324
53374SOL    HW266981   5.938   1.238   6.533  0.4130 -0.0307  1.1761
53375SOL     OW66982   9.153   8.234   0.873  0.2953 -0.0726  0.4929
53375SOL    HW166983   9.233   8.282   0.852 -0.5904  1.1732 -0.1839
53375SOL    HW266984   9.163   8.210   0.965  1.4036  0.1468  0.4425
53376SOL     OW66985   0.812   2.840  10.219  0.3202  0.4062 -0.0822
53376SOL    HW166986   0.733   2.790  10.197  0.2826  0.6252 -0.4461
53376SOL    HW266987   0.871   2.775  10.257  0.1531  0.1426 -0.2688
53377SOL     OW66988  10.587   3.062   1.401  0.0379  0.2524  0.1738
53377SOL    HW166989  10.613   2.978   1.363 -1.0932  0.3998 -0.9910
53377SOL    HW266990  10.492   3.065   1.391 -0.0834  1.1445  1.3288
53378SOL     OW66991   1.858   1.195   6.772 -0.0290  0.0093 -0.0728
53378SOL    HW166992   1.931   1.187   6.834 -0.2162  2.6575  0.6064
53378SOL    HW266993   1.888   1.262   6.710 -0.7973 -0.9152 -1.4953
53379SOL     OW66994   2.160   4.192   5.853  0.2062  0.0441 -0.2191
53379SOL    HW166995   2.187   4.103   5.827  1.4601 -0.0267  1.1981
53379SOL    HW266996   2.094   4.178   5.921  0.3786  0.2074 -0.0196
53380SOL     OW66997   1.450   5.555   2.589  0.1584  0.3329  0.1386
53380SOL    HW166998   1.405   5.639   2.603 -1.2456 -0.2538 -0.6680
53380SOL    HW266999   1.394   5.490   2.631  0.3726 -0.3917 -0.6775
53381SOL     OW67000   1.168   8.494   4.770 -0.3364  0.3776 -0.1028
53381SOL    HW167001   1.141   8.403   4.761 -0.7462  0.4994 -0.0920
53381SOL    HW267002   1.110   8.543   4.711 -1.7077  0.9354  1.6382
53382SOL     OW67003   5.164  11.952   6.256  0.6853  0.3987  0.0035
53382SOL    HW167004   5.248  11.940   6.301  0.1541  0.1390  0.9522
53382SOL    HW267005   5.100  11.908   6.312  0.1138 -0.6726 -1.4456
53383SOL     OW67006   0.339   8.722   3.182 -0.1770 -0.1168 -0.3472
53383SOL    HW167007   0.306   8.791   3.124  1.1242  1.0582  0.2413
53383SOL    HW267008   0.353   8.767   3.266  2.7665 -0.5123 -0.5362
53384SOL     OW67009   2.144   5.120   2.327  0.0633 -0.2102 -0.3202
53384SOL    HW167010   2.104   5.059   2.265 -0.6390 -1.1352  0.9964
53384SOL    HW267011   2.087   5.197   2.325 -1.8589 -1.4707  1.4500
53385SOL     OW67012   9.172   3.025   0.655  0.2751  0.3718  0.1478
53385SOL    HW167013   9.161   3.084   0.730  3.3434  1.2611  0.0473
53385SOL    HW267014   9.190   3.083   0.581 -1.6792 -0.5467 -1.1192
53386SOL     OW67015   9.943   6.391   0.303 -0.0913 -0.1579  0.1451
53386SOL    HW167016   9.980   6.405   0.216 -0.4962 -1.6038 -0.2785
53386SOL    HW267017   9.908   6.476   0.328 -0.9742  0.0204 -1.5889
53387SOL     OW67018   5.735   0.710   4.476 -0.4916 -0.0605  0.2731
53387SOL    HW167019   5.784   0.628   4.472  0.6883  0.6431 -0.2905
53387SOL    HW267020   5.682   0.703   4.556  0.0301 -1.1116  0.5435
53388SOL     OW67021  11.157   0.999   1.227  0.7715 -0.4528  0.2421
53388SOL    HW167022  11.215   1.073   1.210  2.1807 -1.1366  1.8083
53388SOL    HW267023  11.090   1.034   1.285 -0.6323  0.3996 -1.7533
53389SOL     OW67024   7.360   9.434   6.727  0.1288  0.4626 -0.2949
53389SOL    HW167025   7.385   9.344   6.745  2.1304  1.1598  0.7018
53389SOL    HW267026   7.393   9.451   6.638 -1.1434 -0.0426 -0.8943
53390SOL     OW67027  10.716   2.461   4.650 -0.8998 -0.2618 -0.2965
53390SOL    HW167028  10.730   2.470   4.555 -0.7600 -0.5316 -0.3028
53390SOL    HW267029  10.621   2.470   4.661 -1.4024 -3.4673 -0.8738
53391SOL     OW67030   0.973   4.343  10.152 -0.4342 -0.2150 -0.7208
53391SOL    HW167031   1.029   4.350  10.074  1.2765  0.2072  0.4714
53391SOL    HW267032   0.893   4.389  10.128  1.2205  2.6510 -1.2603
53392SOL     OW67033   5.760   9.422   1.699 -0.4489  0.2998  0.4041
53392SOL    HW167034   5.761   9.456   1.610 -0.3860 -0.3963  0.1270
53392SOL    HW267035   5.772   9.327   1.689  1.7709  0.4224  1.2717
53393SOL     OW67036   7.748  12.282   7.559  0.4548 -0.8003 -0.5049
53393SOL    HW167037   7.831  12.329   7.559 -0.4557  0.8600 -0.6690
53393SOL    HW267038   7.739  12.248   7.470  1.0121 -1.1067 -0.4461
53394SOL     OW67039   9.517   7.909   9.846  0.0287 -0.1795  0.0415
53394SOL    HW167040   9.466   7.835   9.813  0.9433 -0.9266  0.2723
53394SOL    HW267041   9.505   7.907   9.941  1.1702 -0.8883  0.1820
53395SOL     OW67042   9.715   0.894   5.005 -0.3714 -0.8760 -0.2962
53395SOL    HW167043   9.685   0.981   4.979  0.1960 -0.8421 -0.8886
53395SOL    HW267044   9.710   0.893   5.100  0.1203 -0.0024 -0.2520
53396SOL     OW67045   4.487   0.450  12.396 -0.4864  0.0591 -0.3432
53396SOL    HW167046   4.443   0.376  12.437 -0.6388  0.0868 -0.4558
53396SOL    HW267047   4.417   0.513  12.378 -0.4208  0.0424 -0.6595
53397SOL     OW67048   0.702   3.700  11.455  0.2937 -0.5462  0.6931
53397SOL    HW167049   0.710   3.651  11.538 -1.7444  0.4234  1.5258
53397SOL    HW267050   0.665   3.636  11.394 -0.5013 -0.6065  1.2254
53398SOL     OW67051   4.960   5.642   5.577  0.4584 -0.4134 -0.0107
53398SOL    HW167052   4.878   5.691   5.567  1.6350  1.5511 -0.6429
53398SOL    HW267053   4.943   5.558   5.535 -0.7212  0.5824 -1.6831
53399SOL     OW67054  10.139  10.810   3.925 -0.6768 -0.3770  0.1978
53399SOL    HW167055  10.141  10.893   3.973  0.9632 -0.1615 -0.1882
53399SOL    HW267056  10.109  10.834   3.838 -0.1979 -0.1831  0.0840
53400SOL     OW67057   5.975   1.386  10.107  0.0048 -0.0978 -0.6735
53400SOL    HW167058   6.066   1.357  10.113 -0.1321 -1.3150 -3.2418
53400SOL    HW267059   5.969   1.458  10.170  2.0085 -1.6557  1.4691
53401SOL     OW67060  11.522  11.228   4.128 -0.3495 -0.1397 -0.4563
53401SOL    HW167061  11.527  11.174   4.050  1.1245  0.2230 -0.6386
53401SOL    HW267062  11.487  11.169   4.195  0.6104 -1.1543 -0.8086
53402SOL     OW67063   2.263   1.864   2.166 -0.3910 -0.0112  0.0243
53402SOL    HW167064   2.345   1.904   2.138  0.1855 -0.1711  1.4129
53402SOL    HW267065   2.270   1.773   2.138  0.3890 -0.2867  1.0354
53403SOL     OW67066   3.993   4.165   7.662 -0.2196  0.5220 -0.0360
53403SOL    HW167067   3.910   4.183   7.617  1.2231  0.6238 -2.9356
53403SOL    HW267068   4.040   4.249   7.658  0.8052 -0.0538 -0.2984
53404SOL     OW67069  11.151   2.426  11.774 -0.0863  0.2246 -0.0759
53404SOL    HW167070  11.232   2.424  11.826 -0.0465 -1.2065 -0.1542
53404SOL    HW267071  11.166   2.362  11.705 -0.8056  0.8871 -0.8539
53405SOL     OW67072   4.506   5.699   1.485 -0.0256  0.0549 -0.0198
53405SOL    HW167073   4.580   5.677   1.429 -0.8795 -0.2353 -1.0848
53405SOL    HW267074   4.444   5.742   1.426 -0.6846  0.3262  0.8555
53406SOL     OW67075   9.979   9.121   3.689  0.2150  0.4640 -0.7617
53406SOL    HW167076  10.023   9.206   3.690  0.9105  0.1116  0.0881
53406SOL    HW267077  10.028   9.069   3.625  0.1683  0.5056 -0.8314
53407SOL     OW67078   4.507   5.757   6.276  0.2065 -0.0857  0.2191
53407SOL    HW167079   4.451   5.710   6.214  0.1389 -1.1806  1.0935
53407SOL    HW267080   4.485   5.720   6.361  0.4419  1.2693  0.8890
53408SOL     OW67081   5.762   0.336   5.569 -0.5131  0.0854  0.2334
53408SOL    HW167082   5.696   0.404   5.581 -0.9433  0.4689 -3.2254
53408SOL    HW267083   5.834   0.362   5.626 -0.2452  4.1479 -1.5744
53409SOL     OW67084   7.214   9.291   2.057  0.2296 -0.2606  0.4932
53409SOL    HW167085   7.221   9.312   1.964  0.2961 -1.5120  0.1989
53409SOL    HW267086   7.134   9.238   2.064  1.2769 -1.8809  0.7923
53410SOL     OW67087   4.869   9.006   0.024  0.2474 -0.0443 -0.6973
53410SOL    HW167088   4.901   9.061  -0.048 -2.5213  0.8285 -1.3975
53410SOL    HW267089   4.810   9.063   0.074  0.3167 -1.3024  0.9003
53411SOL     OW67090   8.384   9.478  10.678 -0.2114 -0.4611 -0.5022
53411SOL    HW167091   8.405   9.388  10.702 -2.5011 -0.6219  1.2572
53411SOL    HW267092   8.304   9.470  10.625  0.3909  0.4726 -1.5922
53412SOL     OW67093  10.858   6.054   6.300 -0.2063 -0.1507  0.4592
53412SOL    HW167094  10.918   6.087   6.367 -0.8926  2.7484 -0.2496
53412SOL    HW267095  10.899   6.077   6.217 -0.5147 -1.5793 -0.1188
53413SOL     OW67096   3.071   1.575   6.580  0.5791  0.0127  0.5933
53413SOL    HW167097   3.073   1.648   6.518 -2.2618 -0.9302 -0.7751
53413SOL    HW267098   3.123   1.507   6.537 -1.0415 -0.4940 -0.6926
53414SOL     OW67099   9.948   2.348  10.861 -0.0867 -0.2289  0.7226
53414SOL    HW167100  10.038   2.381  10.856  0.0891 -0.8998 -2.0409
53414SOL    HW267101   9.946   2.273  10.801 -2.8666  0.8532 -0.7421
53415SOL     OW67102   3.082   4.338   2.922  0.0320  1.0307 -0.4114
53415SOL    HW167103   3.140   4.354   2.996  0.1996 -0.1827 -0.2659
53415SOL    HW267104   3.127   4.378   2.847  1.7171 -0.9681 -0.5486
53416SOL     OW67105   2.946   4.282   1.543 -0.4840 -0.3436  0.2380
53416SOL    HW167106   2.863   4.260   1.500 -0.4683  2.0321 -1.2031
53416SOL    HW267107   2.945   4.377   1.550  2.6620 -0.0947 -1.0014
53417SOL     OW67108   8.505  10.634   1.667  0.0774 -0.1679 -0.2670
53417SOL    HW167109   8.536  10.682   1.744  1.7135 -1.2850 -0.1716
53417SOL    HW267110   8.443  10.570   1.702 -0.2268  0.2248 -0.0746
53418SOL     OW67111  12.371   4.243   3.432 -0.1529  0.0634  0.5738
53418SOL    HW167112  12.307   4.179   3.464  0.3967  0.8323  3.3877
53418SOL    HW267113  12.452   4.193   3.421  0.0509  0.0544  1.9445
53419SOL     OW67114  11.112   4.949  10.801 -0.2543  0.4441 -0.1437
53419SOL    HW167115  11.193   4.899  10.814  0.5321  1.8714  0.7220
53419SOL    HW267116  11.094   4.942  10.708  1.1080  0.4290 -0.4288
53420SOL     OW67117   7.897   4.828   9.027 -0.6056 -0.0390 -0.2779
53420SOL    HW167118   7.880   4.738   8.999 -1.6841 -0.3435  1.2309
53420SOL    HW267119   7.973   4.822   9.084 -1.4926 -0.2243  0.9082
53421SOL     OW67120   5.082   3.638   1.120  0.0521  0.0046 -0.0602
53421SOL    HW167121   5.135   3.706   1.162  0.7252 -1.2659  1.2259
53421SOL    HW267122   5.075   3.666   1.029  0.7765  1.5054  0.3108
53422SOL     OW67123   2.388   5.180   7.307  0.4501 -0.2516  0.1545
53422SOL    HW167124   2.446   5.192   7.382  0.5595 -0.9406  0.1845
53422SOL    HW267125   2.421   5.103   7.262  0.0507 -0.1716 -0.2967
53423SOL     OW67126   2.287   9.548  12.383  0.3697  0.1042  0.5866
53423SOL    HW167127   2.197   9.547  12.415  0.9336 -0.5027  2.2532
53423SOL    HW267128   2.303   9.639  12.357 -1.3328 -0.1514 -1.6827
53424SOL     OW67129   0.787   7.542   7.667  0.3432  0.1775 -0.0948
53424SOL    HW167130   0.741   7.462   7.692 -0.3146  0.3171 -0.8261
53424SOL    HW267131   0.877   7.528   7.695  0.2337 -0.8228 -0.2164
53425SOL     OW67132   8.487   0.270   7.361 -0.1833  0.2706 -0.2547
53425SOL    HW167133   8.446   0.329   7.299 -0.9194  0.9230  0.8289
53425SOL    HW267134   8.551   0.324   7.407 -0.1360 -0.0296  0.0346
53426SOL     OW67135   3.760   5.343  10.453  0.3879 -0.1159 -0.4964
53426SOL    HW167136   3.706   5.353  10.375  0.4806 -0.9373 -0.6760
53426SOL    HW267137   3.745   5.253  10.481  0.2991  0.1899  0.4803
53427SOL     OW67138   7.639  11.646   1.594  0.1428  0.6185 -0.9378
53427SOL    HW167139   7.731  11.667   1.612  0.0843  0.8043 -0.8548
53427SOL    HW267140   7.591  11.723   1.625 -0.0834  0.3179 -0.5375
53428SOL     OW67141   4.666   6.302  12.253 -0.4988  0.2416  0.5807
53428SOL    HW167142   4.595   6.338  12.200 -1.1538 -1.0853  0.5195
53428SOL    HW267143   4.624   6.272  12.333 -0.2969 -1.9643 -0.0911
53429SOL     OW67144   3.890   1.322  12.302 -0.1274  0.0467  0.1954
53429SOL    HW167145   3.930   1.251  12.253 -0.2146  0.5176 -0.5712
53429SOL    HW267146   3.907   1.401  12.250 -0.8516  0.4486  0.5455
53430SOL     OW67147   3.836  12.357  10.572  0.4438  0.6770 -0.3750
53430SOL    HW167148   3.833  12.317  10.658 -0.6093 -2.8490 -1.8592
53430SOL    HW267149   3.745  12.378  10.552  0.6150  1.0290 -0.8049
53431SOL     OW67150   7.216  11.819   5.460  0.1141  0.2547 -0.0766
53431SOL    HW167151   7.121  11.822   5.452 -0.0990 -0.5109  1.6344
53431SOL    HW267152   7.239  11.728   5.442  0.1858 -0.1916  1.9977
53432SOL     OW67153   8.151   3.686   1.422 -0.3883 -0.0767 -0.1949
53432SOL    HW167154   8.100   3.619   1.468  0.9456 -1.8381 -1.1166
53432SOL    HW267155   8.188   3.740   1.492 -0.0779 -1.4113  0.7317
53433SOL     OW67156   3.772   5.370   3.980 -0.4342 -0.0757 -0.4825
53433SOL    HW167157   3.738   5.432   4.045  0.8415 -1.2773  1.4135
53433SOL    HW267158   3.863   5.397   3.967  0.3027 -1.7675  0.7582
53434SOL     OW67159   3.286  11.630   4.927 -0.0882  0.1892  0.1325
53434SOL    HW167160   3.283  11.564   4.857 -0.2649  0.2545  0.0786
53434SOL    HW267161   3.377  11.629   4.957 -0.1225 -0.1849  0.2301
53435SOL     OW67162   5.203  10.974   8.213 -0.4632  0.3501  0.5409
53435SOL    HW167163   5.125  10.919   8.223 -0.2794  0.0166  0.1909
53435SOL    HW267164   5.223  11.004   8.301  0.6849 -1.9090  1.1409
53436SOL     OW67165  11.898  10.455   1.610 -0.1499  0.0089  0.0472
53436SOL    HW167166  11.814  10.498   1.593 -0.5667 -0.1814  1.4655
53436SOL    HW267167  11.876  10.383   1.668  0.6262 -1.7918 -1.7798
53437SOL     OW67168  11.080   7.398   4.570 -0.0209 -0.5693 -0.2316
53437SOL    HW167169  11.143   7.337   4.531  1.0060 -0.3510  1.0300
53437SOL    HW267170  11.069   7.466   4.504  1.8486 -0.0926 -0.1267
53438SOL     OW67171   7.178  10.856   3.557  0.8511  0.5878  0.4702
53438SOL    HW167172   7.144  10.944   3.542  2.1150  1.3439  1.8012
53438SOL    HW267173   7.257  10.851   3.503 -0.8016 -0.9091 -2.0526
53439SOL     OW67174   5.500   6.355   0.877  0.4902 -0.4288  0.1583
53439SOL    HW167175   5.577   6.377   0.929  0.2095  0.3439  0.2684
53439SOL    HW267176   5.435   6.421   0.902 -0.0955 -0.8675 -0.1775
53440SOL     OW67177   3.973   7.616   8.788  0.0177 -0.0171  0.1276
53440SOL    HW167178   3.918   7.617   8.710 -1.5282  0.6432  1.1744
53440SOL    HW267179   4.010   7.528   8.791 -1.3203 -0.6214 -0.3944
53441SOL     OW67180   1.207  11.548  10.464 -0.2646 -0.0821  0.5733
53441SOL    HW167181   1.134  11.544  10.526  0.1967 -1.5229  1.0738
53441SOL    HW267182   1.167  11.529  10.379 -0.7454  0.9468  0.5561
53442SOL     OW67183   5.116  11.350   2.941 -0.3318  0.2521  0.1204
53442SOL    HW167184   5.195  11.328   2.891 -0.6437  1.2840 -0.8376
53442SOL    HW267185   5.133  11.312   3.028  0.8413 -0.2909 -0.3152
53443SOL     OW67186   7.801  12.199   2.873 -0.5613 -0.4795 -0.2843
53443SOL    HW167187   7.790  12.258   2.948 -0.8880 -1.2373  0.2768
53443SOL    HW267188   7.892  12.211   2.847 -0.2442 -0.7035  0.6721
53444SOL     OW67189   0.443   2.046  10.994  0.2721  0.1350  0.4028
53444SOL    HW167190   0.490   2.106  10.936  0.9438  2.3315  3.0165
53444SOL    HW267191   0.353   2.081  10.997 -0.2441 -1.0404 -0.6478
53445SOL     OW67192   0.721  12.242   1.511  0.3711 -0.5796  0.0296
53445SOL    HW167193   0.772  12.299   1.454  0.2361 -1.8334 -1.4195
53445SOL    HW267194   0.664  12.194   1.451 -0.5166 -1.2329  1.3437
53446SOL     OW67195   1.836   6.363   2.924  0.5332  0.0303  0.2640
53446SOL    HW167196   1.852   6.290   2.864 -0.1186  0.8873 -1.0079
53446SOL    HW267197   1.875   6.438   2.880  1.5241  0.4164  1.7341
53447SOL     OW67198   7.008   5.961   2.624  0.5885  0.0913 -0.2982
53447SOL    HW167199   7.028   6.053   2.606 -1.2767  0.3675 -1.1743
53447SOL    HW267200   6.948   5.935   2.555 -1.2965 -0.8903  1.5914
53448SOL     OW67201   5.871   1.270   8.095  0.0328 -0.0554  0.3557
53448SOL    HW167202   5.885   1.217   8.016  0.2691 -1.1951  1.1473
53448SOL    HW267203   5.778   1.260   8.115  0.5512 -2.3518  1.9788
53449SOL     OW67204   3.119   5.498   5.996 -0.4788 -0.1432 -0.5145
53449SOL    HW167205   3.191   5.494   5.932 -0.4788 -0.9111 -0.4693
53449SOL    HW267206   3.136   5.578   6.046  1.0471 -0.9408  0.3130
53450SOL     OW67207   5.080   7.203   0.723 -0.1547 -0.1418  0.6890
53450SOL    HW167208   5.152   7.177   0.781  0.1807  0.5860  0.6099
53450SOL    HW267209   5.114   7.190   0.635 -0.2565 -0.1646  0.6529
53451SOL     OW67210   6.143   2.404  11.463 -0.5627 -0.4151  0.3474
53451SOL    HW167211   6.151   2.481  11.406 -2.4260  0.2886  0.9451
53451SOL    HW267212   6.075   2.351  11.422  0.1845 -1.3902  0.3460
53452SOL     OW67213   6.218   6.312   5.204 -0.1994 -0.3442  0.0327
53452SOL    HW167214   6.297   6.317   5.151 -2.5288  0.6352 -3.7108
53452SOL    HW267215   6.205   6.401   5.237 -0.4333 -0.1464 -0.5690
53453SOL     OW67216   8.436   0.894   7.528 -0.0009 -0.2597 -1.0857
53453SOL    HW167217   8.446   0.937   7.443  0.4196  2.0986  0.0780
53453SOL    HW267218   8.359   0.936   7.567 -0.5282 -1.7070 -0.4974
53454SOL     OW67219  11.809  10.113   1.820 -0.2932  0.1111  0.1180
53454SOL    HW167220  11.860  10.043   1.780 -0.1736  1.6435 -2.6080
53454SOL    HW267221  11.720  10.079   1.823  0.2778 -1.3885  2.0230
53455SOL     OW67222  10.170   1.225  11.968  0.1516 -0.3753 -0.4543
53455SOL    HW167223  10.076   1.209  11.970 -0.0297  0.6914  1.1501
53455SOL    HW267224  10.196   1.227  12.060  1.6302 -0.0312 -0.8533
53456SOL     OW67225   4.185   7.331   3.689  0.3355 -0.0696 -0.1559
53456SOL    HW167226   4.244   7.400   3.719  0.4847  0.3920 -1.4708
53456SOL    HW267227   4.228   7.294   3.612  0.2257 -1.5995  0.4828
53457SOL     OW67228   6.825   7.386  10.397 -0.2245  0.3155 -0.4652
53457SOL    HW167229   6.859   7.352  10.313 -0.6931  0.3243 -0.6608
53457SOL    HW267230   6.903   7.418  10.442  0.0648  0.1158 -0.8086
53458SOL     OW67231   4.854   3.714   9.713  0.1513 -0.1409  0.5419
53458SOL    HW167232   4.905   3.782   9.669 -0.5480 -0.1978 -0.4077
53458SOL    HW267233   4.889   3.632   9.678  0.2116 -0.2229  0.7939
53459SOL     OW67234   7.668   5.326   6.467  0.5605  0.0890  0.1842
53459SOL    HW167235   7.668   5.236   6.435 -0.7890 -0.4545  1.5846
53459SOL    HW267236   7.607   5.372   6.409 -0.9006 -0.5922  1.1089
53460SOL     OW67237   7.976  10.492  10.666 -0.1105  0.2777 -0.3879
53460SOL    HW167238   7.931  10.562  10.618 -0.9291  0.9201  1.2680
53460SOL    HW267239   8.069  10.513  10.655 -0.3456  1.7680  0.2552
53461SOL     OW67240  12.033   2.555   1.312 -0.1887  0.0370  0.1685
53461SOL    HW167241  11.981   2.633   1.330 -0.7092 -0.2453 -0.0856
53461SOL    HW267242  11.986   2.484   1.357 -1.6217 -0.7296 -2.3492
53462SOL     OW67243  11.431   5.185   7.004 -0.2387  0.3704 -0.1970
53462SOL    HW167244  11.518   5.194   6.963  0.5980  1.1377  1.6175
53462SOL    HW267245  11.415   5.091   7.005  0.6626  0.1990 -0.4072
53463SOL     OW67246   8.685   3.927  12.359  0.6234 -0.1896  0.2253
53463SOL    HW167247   8.644   3.844  12.335 -0.4260  0.5039 -0.4650
53463SOL    HW267248   8.779   3.913  12.346  0.2765 -0.4598 -2.5438
53464SOL     OW67249   4.158   7.047  11.759 -0.4905 -0.8155  0.4340
53464SOL    HW167250   4.111   7.110  11.704 -2.4472 -3.5812 -1.3584
53464SOL    HW267251   4.117   7.055  11.845  0.2978  1.2918  0.6497
53465SOL     OW67252   0.718   5.350   1.485  0.1391  0.5409  0.3576
53465SOL    HW167253   0.807   5.324   1.463  0.5594  0.5626  1.9188
53465SOL    HW267254   0.681   5.273   1.529 -1.4283 -0.3272 -2.2611
53466SOL     OW67255   8.843   5.542   9.440 -0.2566  0.0584  0.0767
53466SOL    HW167256   8.902   5.514   9.509 -0.5758 -1.2052 -0.1362
53466SOL    HW267257   8.759   5.556   9.484 -0.0722  0.8286  0.2010
53467SOL     OW67258   2.453   9.913   8.266  0.0071  0.5658 -0.3709
53467SOL    HW167259   2.451   9.970   8.343  0.4009  0.1755 -0.0660
53467SOL    HW267260   2.370   9.930   8.222 -0.4460  0.4346  0.4071
53468SOL     OW67261  10.094   2.844   6.436  0.2814  0.0174  0.4909
53468SOL    HW167262  10.063   2.911   6.375  0.8718  0.6955  0.9177
53468SOL    HW267263  10.039   2.856   6.514 -2.4420 -2.6651 -0.7872
53469SOL     OW67264   2.983   4.033  12.549  0.0809  0.0143 -0.0208
53469SOL    HW167265   3.005   3.940  12.540 -0.1022 -0.3669  2.5118
53469SOL    HW267266   2.891   4.038  12.526  0.4112 -0.1479 -1.4727
53470SOL     OW67267  11.736   8.097   3.607  0.0440  0.1652 -0.2694
53470SOL    HW167268  11.830   8.102   3.585  0.0977  1.2889  0.1579
53470SOL    HW267269  11.706   8.018   3.562  1.4714 -0.9688  0.6545
53471SOL     OW67270   5.319   5.726   7.545 -0.4712  0.7666  0.6633
53471SOL    HW167271   5.236   5.726   7.496 -0.5796 -0.6166  0.8142
53471SOL    HW267272   5.293   5.748   7.635 -0.9130 -1.1627  1.0396
53472SOL     OW67273   0.624   7.252   5.181 -0.0510 -0.0376 -0.0518
53472SOL    HW167274   0.654   7.343   5.178 -1.3579  0.4887  1.3849
53472SOL    HW267275   0.573   7.241   5.101  0.7908  0.2247 -0.6391
53473SOL     OW67276  11.256   3.573  11.753 -0.3089 -0.2980 -0.4016
53473SOL    HW167277  11.161   3.568  11.759 -0.3680 -1.5070 -1.6956
53473SOL    HW267278  11.277   3.663  11.775 -1.9745  0.6104 -2.2068
53474SOL     OW67279   0.448  10.840   2.530 -0.0457 -0.4947  0.5732
53474SOL    HW167280   0.516  10.841   2.462  2.3038  1.3213  2.7335
53474SOL    HW267281   0.467  10.760   2.580 -0.8038 -1.0266  0.0305
53475SOL     OW67282   2.609   1.494   0.907  0.5321 -0.2787 -0.7300
53475SOL    HW167283   2.700   1.510   0.882  0.6936  0.1520  0.1173
53475SOL    HW267284   2.558   1.539   0.840  0.9511  0.2386 -0.7058
53476SOL     OW67285   3.233   3.664   6.449  0.4813 -0.2047 -0.1121
53476SOL    HW167286   3.318   3.708   6.438  1.6322 -2.5377 -1.1017
53476SOL    HW267287   3.215   3.624   6.364 -1.0349 -0.7645  0.4413
53477SOL     OW67288   4.251   0.931   8.068  0.4696 -0.2394  0.2298
53477SOL    HW167289   4.306   0.910   7.992 -0.5689  0.9730 -0.9182
53477SOL    HW267290   4.306   0.986   8.123 -0.4523  3.9545 -2.5728
53478SOL     OW67291  11.739   1.425   2.061  0.4112 -0.3280  0.1561
53478SOL    HW167292  11.821   1.376   2.064  0.2935 -0.7147 -1.9462
53478SOL    HW267293  11.766   1.516   2.075  1.4627 -0.2364 -2.0210
53479SOL     OW67294   2.393  12.171  12.213 -0.2147 -0.2701  0.7412
53479SOL    HW167295   2.424  12.195  12.125 -0.4418 -1.1025  0.4287
53479SOL    HW267296   2.340  12.247  12.240 -1.2856 -0.5611 -0.4207
53480SOL     OW67297   5.157  11.325   1.421  0.0531 -0.1537 -0.2747
53480SOL    HW167298   5.247  11.343   1.393 -0.1355  1.3112 -0.0025
53480SOL    HW267299   5.157  11.231   1.441  2.0228  0.1353  1.4778
53481SOL     OW67300   7.287   8.671   6.589  0.2918  0.0229  0.3208
53481SOL    HW167301   7.298   8.591   6.538 -1.5001 -0.1223  0.0863
53481SOL    HW267302   7.218   8.720   6.544  0.8583  1.3822  0.8529
53482SOL     OW67303   0.687   5.543   9.706  0.4651 -0.4535 -0.0581
53482SOL    HW167304   0.659   5.496   9.628  0.5619 -0.4056 -0.1219
53482SOL    HW267305   0.775   5.509   9.724  1.2793  0.9697 -1.1298
53483SOL     OW67306   2.230   9.956   5.066 -0.4074 -0.2944 -0.0095
53483SOL    HW167307   2.156   9.964   5.006  0.4905  0.3141 -1.0768
53483SOL    HW267308   2.279  10.037   5.056 -1.2595  0.7538  3.0614
53484SOL     OW67309   5.283   2.884   5.151 -0.0662 -0.2960  0.1942
53484SOL    HW167310   5.258   2.898   5.059 -0.0916  0.0217  0.2474
53484SOL    HW267311   5.358   2.942   5.165 -1.6196  1.6287  1.0629
53485SOL     OW67312   2.857  11.699   0.653  0.6337  0.3309  0.1947
53485SOL    HW167313   2.949  11.684   0.674  1.4545  2.0953 -1.7472
53485SOL    HW267314   2.859  11.744   0.569 -2.0196  0.5240  0.1570
53486SOL     OW67315   3.659   7.051  12.261 -0.2234 -0.7576 -0.1992
53486SOL    HW167316   3.640   7.004  12.180  1.7682 -0.4299 -0.9074
53486SOL    HW267317   3.752   7.036  12.277  0.0881  1.4849  0.4988
53487SOL     OW67318   2.974  12.340   7.727 -0.2039 -0.4558 -0.3503
53487SOL    HW167319   3.005  12.277   7.662  0.2665  1.1801 -1.7749
53487SOL    HW267320   3.050  12.394   7.747 -0.7541  0.0846  0.3278
53488SOL     OW67321  10.819  11.079   3.920 -0.1511 -0.3062 -0.2140
53488SOL    HW167322  10.737  11.095   3.873 -0.2444 -0.1573  0.0018
53488SOL    HW267323  10.868  11.161   3.912 -0.7492  0.2125  1.1327
53489SOL     OW67324  11.299  12.000  12.318  0.4728 -0.9324  0.8421
53489SOL    HW167325  11.229  12.063  12.299  0.9588 -0.8991 -1.0018
53489SOL    HW267326  11.370  12.053  12.355  1.2581 -0.1398 -1.5955
53490SOL     OW67327   3.236   3.557   0.142  0.1466 -0.5192 -0.0771
53490SOL    HW167328   3.269   3.559   0.052  1.0481  0.8047  0.2586
53490SOL    HW267329   3.314   3.542   0.195 -0.2366 -0.3084  0.5508
53491SOL     OW67330  10.579  10.888  10.189 -0.1005 -0.1249 -0.0685
53491SOL    HW167331  10.527  10.966  10.211  0.6125  0.1801  0.5732
53491SOL    HW267332  10.529  10.815  10.225 -1.6649 -0.1820 -2.1639
53492SOL     OW67333   8.526   7.388   5.209  0.2009 -0.3295  0.0740
53492SOL    HW167334   8.458   7.322   5.206 -0.7741  0.5104  1.8954
53492SOL    HW267335   8.480   7.471   5.198  1.0082  0.2206  0.6836
53493SOL     OW67336   7.502  12.554   9.278 -0.0990  0.0868 -0.7168
53493SOL    HW167337   7.503  12.461   9.255 -0.4768 -0.2058  0.3726
53493SOL    HW267338   7.519  12.599   9.195  1.6659 -0.9839 -0.9834
53494SOL     OW67339   6.712   4.299   4.917  0.5248  0.0717 -0.2343
53494SOL    HW167340   6.625   4.259   4.929  2.1114 -2.9247  2.9605
53494SOL    HW267341   6.725   4.299   4.822 -2.8282  0.5260 -0.8477
53495SOL     OW67342   1.065  10.446   4.871 -0.1041 -0.0730 -0.3129
53495SOL    HW167343   0.972  10.465   4.887 -0.4179 -1.7806  0.1052
53495SOL    HW267344   1.091  10.389   4.944  1.4813  0.9372 -0.0448
53496SOL     OW67345  12.332   2.057   5.853  0.0453 -0.4538 -0.2284
53496SOL    HW167346  12.393   2.003   5.903 -1.2155  0.0978  2.0374
53496SOL    HW267347  12.341   2.145   5.890 -0.9133 -0.0027 -1.0142
53497SOL     OW67348  12.310   7.386   9.050  0.1411  0.2614  0.1712
53497SOL    HW167349  12.388   7.379   8.995  0.3716 -1.1725  0.6496
53497SOL    HW267350  12.342   7.381   9.140 -0.4576  0.1398  0.3865
53498SOL     OW67351   9.862   3.898   1.046  0.5691  0.0286 -0.1569
53498SOL    HW167352   9.896   3.988   1.045 -0.8132  0.6505  1.9521
53498SOL    HW267353   9.904   3.857   1.121 -0.9355 -0.1254  0.6530
53499SOL     OW67354   8.388   2.758   0.671 -0.5182  0.1879 -0.6374
53499SOL    HW167355   8.409   2.775   0.579 -0.5280  1.4406 -0.4256
53499SOL    HW267356   8.360   2.666   0.673  2.0389 -0.6979 -1.4238
53500SOL     OW67357   1.006   7.643   0.799 -0.1142 -0.0512 -0.0435
53500SOL    HW167358   1.076   7.593   0.757  1.4835  0.3840  1.9398
53500SOL    HW267359   0.959   7.578   0.852 -0.9108 -0.2418 -0.9581
53501SOL     OW67360   8.966   8.663   6.452  0.3268 -0.1169  0.8252
53501SOL    HW167361   8.977   8.640   6.360  0.0920 -0.8637  0.9822
53501SOL    HW267362   8.874   8.647   6.470  0.3084  0.3012  1.1229
53502SOL     OW67363  12.318   4.857   4.294  0.3065 -0.9654 -0.5636
53502SOL    HW167364  12.305   4.812   4.377  0.2659 -0.5321 -0.3330
53502SOL    HW267365  12.244   4.918   4.288  1.0044 -0.0671 -0.2964
53503SOL     OW67366   8.384   8.229   3.077  0.2690  0.2926 -0.2531
53503SOL    HW167367   8.429   8.212   2.994 -0.1392 -0.4357 -0.3300
53503SOL    HW267368   8.452   8.220   3.144  0.0158 -2.1888 -0.2393
53504SOL     OW67369   5.604   1.649  12.078 -0.6170  0.3509 -0.1895
53504SOL    HW167370   5.666   1.717  12.050  1.7897 -1.0960  1.2249
53504SOL    HW267371   5.565   1.683  12.158 -1.1894  0.9967 -0.7294
53505SOL     OW67372  11.272   7.228   3.619 -0.2606  0.6358 -0.0115
53505SOL    HW167373  11.318   7.283   3.682 -0.0878  0.2063  0.2478
53505SOL    HW267374  11.211   7.176   3.672 -1.5902  1.7208 -0.4317
53506SOL     OW67375  11.386   8.368   5.213  0.3090 -0.1493 -0.1763
53506SOL    HW167376  11.415   8.277   5.217 -0.0922 -0.2871 -0.3596
53506SOL    HW267377  11.409   8.396   5.124  0.3663 -0.0965 -0.1440
53507SOL     OW67378   7.410  11.038   8.335  0.2381 -0.8388 -0.9026
53507SOL    HW167379   7.492  11.051   8.383  0.4290  0.6709 -1.5757
53507SOL    HW267380   7.343  11.032   8.403  0.4716  1.4685 -0.3791
53508SOL     OW67381   3.942   8.770  12.532 -0.1446  0.0953 -0.4765
53508SOL    HW167382   4.027   8.726  12.536  0.5269  1.3752 -0.4004
53508SOL    HW267383   3.951   8.845  12.590 -1.6097 -0.2065  0.1799
53509SOL     OW67384   9.787   0.700  11.043  0.4536  0.7999  0.3553
53509SOL    HW167385   9.778   0.614  11.083 -0.2178 -0.5185 -2.4448
53509SOL    HW267386   9.762   0.688  10.952  2.0789  3.5843 -0.5993
53510SOL     OW67387   0.217   2.201   9.153  0.1483  0.1418  0.2091
53510SOL    HW167388   0.162   2.241   9.220  0.8056  0.8603  0.3212
53510SOL    HW267389   0.177   2.115   9.139  0.4274 -0.3322  2.0526
53511SOL     OW67390   7.502  10.133   4.242  0.0633  0.6606 -0.1214
53511SOL    HW167391   7.546  10.104   4.322  1.5723  2.4497 -0.2353
53511SOL    HW267392   7.490  10.052   4.191 -1.2290 -0.5729  1.9741
53512SOL     OW67393   4.341   5.134   5.002 -0.1779 -0.1495 -0.9210
53512SOL    HW167394   4.255   5.175   4.995 -0.7611 -1.3293 -0.9048
53512SOL    HW267395   4.323   5.042   5.020  1.0914 -0.4201 -0.8910
53513SOL     OW67396   1.803  11.491   9.986 -0.2338  0.1939 -0.0900
53513SOL    HW167397   1.750  11.536   9.920  0.5836  1.4175  0.0613
53513SOL    HW267398   1.892  11.495   9.952 -0.3194 -3.2734 -1.1339
53514SOL     OW67399   2.154   0.479   8.852  0.0520  0.8065 -0.0212
53514SOL    HW167400   2.135   0.572   8.862  1.0946  1.0215  0.0164
53514SOL    HW267401   2.236   0.476   8.804  0.2847 -0.0823  0.4138
53515SOL     OW67402   1.025   5.982   4.765 -0.2578 -0.6583 -0.2387
53515SOL    HW167403   1.087   5.969   4.838  0.6018  0.4547 -0.7255
53515SOL    HW267404   0.939   5.968   4.804  0.2549 -1.4251  0.6680
53516SOL     OW67405   5.782   6.614   6.482  0.2001 -0.1191 -0.0910
53516SOL    HW167406   5.875   6.618   6.463  0.1733  0.8628 -0.0548
53516SOL    HW267407   5.739   6.628   6.397  0.0633 -1.9205 -0.3611
53517SOL     OW67408   6.171   2.871   5.086  0.0083  0.3291  0.2215
53517SOL    HW167409   6.263   2.859   5.061 -0.1971 -0.7244 -0.0557
53517SOL    HW267410   6.167   2.845   5.178 -0.4385 -1.9160 -0.3818
53518SOL     OW67411   3.657   2.349   3.678 -0.2070  0.1912  0.7530
53518SOL    HW167412   3.727   2.349   3.612  0.0724 -1.3617  1.0241
53518SOL    HW267413   3.582   2.385   3.631  0.2953  0.2040 -0.0801
53519SOL     OW67414   5.744   4.607   9.166 -0.1095 -0.3175 -0.3670
53519SOL    HW167415   5.804   4.616   9.239  0.7723 -1.2444 -0.9601
53519SOL    HW267416   5.777   4.669   9.100  0.9643 -1.6944 -1.1714
53520SOL     OW67417   2.293  10.130   7.064 -0.2941 -0.0403 -0.1291
53520SOL    HW167418   2.234  10.184   7.012 -0.1498 -0.5664 -0.8553
53520SOL    HW267419   2.246  10.048   7.076  0.0027 -0.2096 -0.1163
53521SOL     OW67420   9.365  12.321   2.565 -0.6534 -0.2639 -0.2711
53521SOL    HW167421   9.327  12.395   2.517  0.8853  0.2476 -0.7531
53521SOL    HW267422   9.350  12.246   2.507  2.4289  0.5598 -2.3944
53522SOL     OW67423   5.976   8.436   9.975  0.4575  0.0328  0.6370
53522SOL    HW167424   5.933   8.399  10.051 -2.5695  1.8460 -0.0315
53522SOL    HW267425   5.982   8.364   9.913 -0.1459 -0.6612  1.3721
53523SOL     OW67426   5.039   5.126   4.294 -0.6274 -0.0123 -0.2315
53523SOL    HW167427   5.008   5.059   4.234 -1.0785  0.5986 -0.6938
53523SOL    HW267428   4.971   5.131   4.361 -0.6544  0.0697 -0.2653
53524SOL     OW67429   6.212   1.092   7.716  0.0169  0.3935 -0.2749
53524SOL    HW167430   6.225   1.053   7.802 -0.0314 -0.7611 -0.7685
53524SOL    HW267431   6.273   1.045   7.659  0.1091  1.1999 -0.8630
53525SOL     OW67432  12.193   7.090  11.529  0.3069 -0.6389  0.3539
53525SOL    HW167433  12.149   7.035  11.593 -0.5500 -1.5435 -0.9672
53525SOL    HW267434  12.200   7.176  11.572 -0.6221 -1.0972  1.4819
53526SOL     OW67435   8.401   5.707   4.116 -0.1702  0.0396 -0.1774
53526SOL    HW167436   8.368   5.695   4.205 -1.2231  2.4341 -0.1781
53526SOL    HW267437   8.484   5.660   4.115 -0.4311 -0.5740  1.8687
53527SOL     OW67438   0.493   0.734  10.000 -0.0811 -0.0632  0.7039
53527SOL    HW167439   0.565   0.685   9.960 -1.7230 -0.8796 -1.4350
53527SOL    HW267440   0.432   0.666  10.029 -0.3067  0.6409  1.9699
53528SOL     OW67441   3.474   1.758   2.005  0.1398  0.1487  0.2112
53528SOL    HW167442   3.436   1.751   2.093 -1.2467 -1.7356 -0.4598
53528SOL    HW267443   3.483   1.667   1.976  0.0293  0.7367 -1.8014
53529SOL     OW67444   1.713   6.616   2.273 -0.2624  0.2028  0.1901
53529SOL    HW167445   1.667   6.533   2.261  0.6763 -0.5101  1.3124
53529SOL    HW267446   1.762   6.605   2.354 -0.5489  2.0730  0.6683
53530SOL     OW67447   1.358   9.592   8.108  0.2514 -0.3693  0.3934
53530SOL    HW167448   1.342   9.636   8.025  1.6187  0.3297  0.4762
53530SOL    HW267449   1.442   9.547   8.097 -0.0646 -1.1565  1.0462
53531SOL     OW67450   5.080   0.030   9.950 -0.0807  0.4016 -0.1302
53531SOL    HW167451   5.096   0.012  10.043 -0.7993  1.0469  0.1261
53531SOL    HW267452   5.125  -0.041   9.904  0.5486  0.2472  0.6973
53532SOL     OW67453   9.071   4.614   8.207 -0.0871 -0.2946 -0.4113
53532SOL    HW167454   9.128   4.606   8.284 -0.7100 -1.7924 -0.0875
53532SOL    HW267455   9.095   4.541   8.150  0.4280  0.8426 -1.7182
53533SOL     OW67456   0.075   7.093   9.277  0.1651 -0.1475 -0.2848
53533SOL    HW167457   0.085   7.003   9.310  0.8296  0.0225  0.0095
53533SOL    HW267458   0.001   7.128   9.327  1.3442  0.2043  1.3189
53534SOL     OW67459   4.369  11.080   5.652  0.2967  0.5346  0.0673
53534SOL    HW167460   4.310  11.048   5.720  0.3241  0.7028  0.1711
53534SOL    HW267461   4.348  11.173   5.644 -1.4936  0.0441 -1.9323
53535SOL     OW67462   9.394  11.088  11.537 -0.0785 -0.4339  0.1137
53535SOL    HW167463   9.430  11.176  11.550 -0.1366 -0.4641  0.4966
53535SOL    HW267464   9.463  11.029  11.567  0.0722 -0.5299 -0.4112
53536SOL     OW67465   2.155   6.676  12.019  0.3114  0.2349  0.0719
53536SOL    HW167466   2.231   6.699  12.072  0.4277 -0.4195  0.1947
53536SOL    HW267467   2.160   6.581  12.009 -0.3117  0.2228 -0.1877
53537SOL     OW67468  12.346   1.084  10.245 -0.5478  0.0608 -0.0569
53537SOL    HW167469  12.411   1.141  10.205  1.5741 -0.6376  2.1118
53537SOL    HW267470  12.284   1.064  10.175  1.5036  0.8827 -2.2288
53538SOL     OW67471  10.527   5.383   8.074  0.0010  0.0488  0.3015
53538SOL    HW167472  10.594   5.348   8.016  0.4209  1.2331  0.0496
53538SOL    HW267473  10.470   5.434   8.017  0.2653  1.0099  0.8600
53539SOL     OW67474  10.588   4.768  11.181 -0.2789 -0.0041  0.4011
53539SOL    HW167475  10.639   4.819  11.119  0.1760  0.2292  0.9573
53539SOL    HW267476  10.506   4.816  11.191 -0.1790  0.1828  0.3071
53540SOL     OW67477   8.923  12.291   2.496 -0.5583 -0.3669 -0.9069
53540SOL    HW167478   8.867  12.272   2.571  0.1547 -0.0633 -0.2833
53540SOL    HW267479   8.909  12.384   2.477 -0.1452 -0.2444 -0.6346
53541SOL     OW67480   0.046   7.038   5.229  0.0609  0.1456 -0.3592
53541SOL    HW167481   0.033   7.082   5.145 -0.6588  2.5326  0.9022
53541SOL    HW267482   0.140   7.044   5.245  0.2096 -0.3576 -0.9831
53542SOL     OW67483   1.946   9.404   3.523 -0.3497  0.0011 -0.2600
53542SOL    HW167484   1.972   9.383   3.613 -1.7592 -0.5580  0.0451
53542SOL    HW267485   1.858   9.366   3.514 -1.6671  2.9065 -0.7689
53543SOL     OW67486   7.157  11.034   1.257 -0.2431  0.1310 -0.0276
53543SOL    HW167487   7.235  11.034   1.202 -0.4542 -1.3997 -0.3567
53543SOL    HW267488   7.190  11.057   1.344  0.2510  1.4694 -0.5315
53544SOL     OW67489   2.604  11.141   9.401  0.0730  0.5885 -0.6340
53544SOL    HW167490   2.670  11.075   9.422 -1.5388 -0.5032  1.3792
53544SOL    HW267491   2.616  11.209   9.466 -2.2199 -0.7683  1.3672
53545SOL     OW67492   9.300  11.728   0.185  0.9030  0.3223 -0.0459
53545SOL    HW167493   9.300  11.721   0.280 -1.5925 -0.2326 -0.0081
53545SOL    HW267494   9.303  11.638   0.154  0.8654  0.4637 -0.4645
53546SOL     OW67495   2.309   4.426   6.162  0.0947  0.2425 -0.5383
53546SOL    HW167496   2.316   4.469   6.247 -0.6707 -0.7666  0.0552
53546SOL    HW267497   2.389   4.374   6.154  0.2161  0.4218 -0.4808
53547SOL     OW67498   9.007   3.022   2.631  0.0930 -0.3808  0.0713
53547SOL    HW167499   9.094   3.038   2.595 -0.1997  2.2363  0.3263
53547SOL    HW267500   9.001   3.082   2.706 -2.2699  0.3094 -0.5790
53548SOL     OW67501   5.662   1.045   3.318  0.2700  0.2234 -0.0496
53548SOL    HW167502   5.631   1.123   3.273 -0.2626  0.7370  1.1527
53548SOL    HW267503   5.710   1.079   3.394  0.2423 -0.6154  0.3539
53549SOL     OW67504   3.209   2.221   4.142  0.6344  0.4078  0.0120
53549SOL    HW167505   3.186   2.306   4.103  0.4931 -0.2570 -1.4129
53549SOL    HW267506   3.296   2.202   4.107 -0.0688 -0.8460 -1.1102
53550SOL     OW67507   8.749   0.250   9.423 -0.0964 -0.5642  0.4089
53550SOL    HW167508   8.774   0.190   9.352  1.3608 -1.5270  1.6786
53550SOL    HW267509   8.817   0.317   9.424 -0.9000  0.2710 -0.0188
53551SOL     OW67510  10.156   1.237   9.770 -0.4994  0.7381 -0.3587
53551SOL    HW167511  10.108   1.173   9.718 -2.0035 -0.7624  2.6063
53551SOL    HW267512  10.120   1.322   9.744 -0.9348  0.1052 -1.9300
53552SOL     OW67513  11.507   0.791  10.791 -0.1988  0.1400  0.0754
53552SOL    HW167514  11.521   0.852  10.863 -0.6762  1.4760 -0.9160
53552SOL    HW267515  11.594   0.780  10.751 -0.1432  0.2929  0.1570
53553SOL     OW67516   2.835   9.041   2.124  0.4510 -0.4715  0.2381
53553SOL    HW167517   2.772   9.110   2.104  0.2716 -0.6229  0.2781
53553SOL    HW267518   2.792   8.960   2.096  1.3423 -0.4117 -1.3814
53554SOL     OW67519   9.733  10.556   3.918  0.1447 -0.0499 -0.0890
53554SOL    HW167520   9.828  10.551   3.919  0.2878  1.6815  1.9429
53554SOL    HW267521   9.704  10.466   3.902  2.0968 -0.7304 -0.0072
53555SOL     OW67522   8.870   3.337  10.525 -0.2373 -0.2158 -0.6469
53555SOL    HW167523   8.946   3.342  10.583 -0.5194  1.4340 -0.3656
53555SOL    HW267524   8.907   3.320  10.439  0.6079  1.7111 -0.7264
53556SOL     OW67525  10.350   5.523  11.727 -0.2841 -0.0200 -0.2617
53556SOL    HW167526  10.355   5.552  11.636 -0.0627 -0.7507 -0.4877
53556SOL    HW267527  10.420   5.458  11.735 -0.9384 -0.6870  0.1505
53557SOL     OW67528  10.737   7.896   2.977  0.3665 -0.6976 -0.1936
53557SOL    HW167529  10.738   7.801   2.965 -0.9653 -0.8357  0.5567
53557SOL    HW267530  10.668   7.911   3.042  0.4816  0.7890 -0.3833
53558SOL     OW67531   6.761   7.105   8.730 -0.1619 -0.0874 -0.1252
53558SOL    HW167532   6.846   7.113   8.687  0.1501 -1.0453  0.3002
53558SOL    HW267533   6.699   7.092   8.658  0.3488 -1.6101 -0.3231
53559SOL     OW67534   9.248   6.972   1.916 -0.2390 -0.1990  0.4882
53559SOL    HW167535   9.280   7.038   1.854 -1.5591 -0.5922 -0.6640
53559SOL    HW267536   9.192   7.021   1.976 -1.0186 -0.2082 -0.2155
53560SOL     OW67537   0.344   4.913  11.686 -0.1833  0.5211  0.5008
53560SOL    HW167538   0.367   4.877  11.772  1.7146  1.0529  0.2595
53560SOL    HW267539   0.303   4.997  11.706  0.2405  0.6419  0.8866
53561SOL     OW67540  11.420   5.116   5.772  0.0940  0.1126  0.3060
53561SOL    HW167541  11.482   5.087   5.705 -0.3444 -1.3579  0.4882
53561SOL    HW267542  11.348   5.154   5.723  0.1018 -0.2959 -0.0285
53562SOL     OW67543   1.324   4.095   1.823 -0.1671  0.2279 -0.3651
53562SOL    HW167544   1.305   4.185   1.848  1.4872  0.5048  0.0053
53562SOL    HW267545   1.415   4.082   1.847 -0.8297 -2.1230  1.2342
53563SOL     OW67546   3.917   8.065   5.094 -0.1149  0.5429 -0.5895
53563SOL    HW167547   3.990   8.041   5.151  1.5373  1.8694 -2.0585
53563SOL    HW267548   3.890   7.982   5.053  0.1913 -0.0322  0.3371
53564SOL     OW67549   8.040   5.704   6.168  0.1167  0.3047  0.0870
53564SOL    HW167550   8.028   5.643   6.241 -1.0753 -1.2290 -1.2985
53564SOL    HW267551   8.130   5.735   6.178 -0.0997  0.4139  2.3575
53565SOL     OW67552   3.604   1.280   6.838  0.2711  0.8154  0.7203
53565SOL    HW167553   3.523   1.263   6.885  0.2549 -0.9902  0.1024
53565SOL    HW267554   3.623   1.199   6.790  1.8621  1.5574 -0.0184
53566SOL     OW67555   5.399   0.470  10.143  0.9250  0.4369  0.2162
53566SOL    HW167556   5.371   0.461  10.234  0.0421 -1.6829 -0.2245
53566SOL    HW267557   5.494   0.457  10.146  0.8162 -0.2853  0.7701
53567SOL     OW67558   2.872   3.519   2.610  0.2207 -0.3178  0.3417
53567SOL    HW167559   2.837   3.529   2.698  0.2699  1.1391  0.2162
53567SOL    HW267560   2.794   3.511   2.554  0.1952 -1.5997  0.5389
53568SOL     OW67561   7.001   9.559   3.286  0.1557  0.5088 -0.4865
53568SOL    HW167562   6.928   9.619   3.303 -0.4168 -0.2892 -0.0692
53568SOL    HW267563   6.961   9.483   3.244  0.6817 -0.0941  0.0781
53569SOL     OW67564   0.463   6.469  11.565  0.8185 -0.2895 -0.4269
53569SOL    HW167565   0.402   6.514  11.624  1.7605 -1.7769  1.8067
53569SOL    HW267566   0.406   6.418  11.506 -0.1186  0.1665  0.0618
53570SOL     OW67567   1.481   0.557   0.734  0.2061 -0.1977 -0.3632
53570SOL    HW167568   1.420   0.578   0.806  0.4597 -0.1116 -0.1733
53570SOL    HW267569   1.494   0.462   0.742  1.2838 -0.0008  0.5495
53571SOL     OW67570  11.994   8.800  10.499  0.0308 -0.6114 -0.2569
53571SOL    HW167571  12.067   8.825  10.443 -0.1122 -0.6255 -0.4501
53571SOL    HW267572  12.030   8.733  10.558 -0.3377 -2.1663 -1.7104
53572SOL     OW67573  11.123   7.565   2.557  0.1849  0.3861  0.5931
53572SOL    HW167574  11.055   7.592   2.619 -1.5074 -1.4392 -0.3730
53572SOL    HW267575  11.079   7.503   2.499  2.6265 -0.6556 -0.2508
53573SOL     OW67576  12.193   3.941   5.994 -0.0447  0.1163 -0.4591
53573SOL    HW167577  12.148   3.882   6.055  1.7582 -1.6882 -0.7689
53573SOL    HW267578  12.203   3.890   5.914 -1.1091  1.9631 -1.8565
53574SOL     OW67579  10.433   0.669  10.910 -0.0784  0.3611 -0.5362
53574SOL    HW167580  10.344   0.635  10.915  0.0957  0.0765  2.5403
53574SOL    HW267581  10.489   0.592  10.903  0.0248  0.3507  0.2861
53575SOL     OW67582   0.216  10.611   8.214  0.2686 -0.1116 -0.2174
53575SOL    HW167583   0.265  10.692   8.198  0.4262 -0.0947  0.3510
53575SOL    HW267584   0.278  10.554   8.258 -0.0895 -0.2527  0.1029
53576SOL     OW67585   6.290   0.828   1.981  0.1467 -1.0243 -0.1165
53576SOL    HW167586   6.244   0.855   2.060 -0.3477  1.0822 -1.0640
53576SOL    HW267587   6.328   0.909   1.946 -1.4912 -1.4528 -3.1976
53577SOL     OW67588   2.081   4.988   7.395 -0.3005  0.0867 -0.3890
53577SOL    HW167589   2.157   4.934   7.372 -1.3036 -1.3856 -0.3960
53577SOL    HW267590   2.044   4.947   7.473 -0.6235  1.2873  0.1211
53578SOL     OW67591   7.188   2.231   6.079 -0.8337 -0.2523  0.0810
53578SOL    HW167592   7.099   2.197   6.091 -1.2790  0.4408 -1.0013
53578SOL    HW267593   7.176   2.309   6.023  0.4546 -0.1727 -0.1161
53579SOL     OW67594  11.388   3.673  10.442 -0.2040 -0.7122 -0.1604
53579SOL    HW167595  11.326   3.636  10.505  0.0398  0.3335  0.7247
53579SOL    HW267596  11.334   3.698  10.368 -0.7066 -0.6590  0.2160
53580SOL     OW67597  10.990   9.875  10.746  0.3901 -0.3326  0.3903
53580SOL    HW167598  11.066   9.905  10.695 -1.1583 -1.6074 -2.9992
53580SOL    HW267599  10.988   9.933  10.822  3.7177  0.8554 -0.2440
53581SOL     OW67600   4.904  10.665   7.218  0.0896 -0.1053 -0.3674
53581SOL    HW167601   4.990  10.692   7.249  0.5585 -0.4658 -1.3377
53581SOL    HW267602   4.912  10.661   7.123 -0.4523 -1.9271 -0.3908
53582SOL     OW67603   6.896   3.388   5.379  0.9124 -0.4165  0.1836
53582SOL    HW167604   6.819   3.444   5.389  0.2789 -1.2495  0.1463
53582SOL    HW267605   6.971   3.447   5.382  0.2254  0.5419 -0.7650
53583SOL     OW67606   8.193   2.884  10.733 -0.4377 -0.1667  0.1086
53583SOL    HW167607   8.122   2.821  10.718 -0.9964  0.5544 -0.3667
53583SOL    HW267608   8.191   2.901  10.827 -0.9196 -0.1365  0.0957
53584SOL     OW67609   4.690   7.403   5.923  0.1656 -0.0165  0.7691
53584SOL    HW167610   4.679   7.487   5.878  1.3149 -0.2525  0.0289
53584SOL    HW267611   4.736   7.347   5.860 -0.8579 -1.3194  1.1287
53585SOL     OW67612  11.800  11.943   8.525  0.3142 -0.2018  0.0049
53585SOL    HW167613  11.776  11.851   8.514 -0.3387  0.0246 -0.5464
53585SOL    HW267614  11.852  11.963   8.448 -0.7843  0.2721 -0.6461
53586SOL     OW67615   5.503   3.504  12.182  0.1504  0.2580 -0.0050
53586SOL    HW167616   5.440   3.433  12.179 -1.4601  1.6484 -2.4533
53586SOL    HW267617   5.562   3.487  12.108  0.4088  0.8527  0.0569
53587SOL     OW67618  12.441  11.760   3.546  0.5780  0.4165 -0.0684
53587SOL    HW167619  12.354  11.757   3.506 -0.0521  1.2513  1.1451
53587SOL    HW267620  12.481  11.677   3.523 -0.9650 -0.4434  0.2085
53588SOL     OW67621   1.036   2.307  10.831  0.8504 -0.2616  0.0586
53588SOL    HW167622   1.026   2.377  10.895  0.1613 -1.1810  1.0069
53588SOL    HW267623   1.028   2.350  10.746  0.1190  0.7561  0.6228
53589SOL     OW67624   7.615  11.835   3.766 -0.3023  0.1320 -0.1065
53589SOL    HW167625   7.687  11.876   3.718  1.5986 -1.0334  1.6087
53589SOL    HW267626   7.615  11.744   3.736  0.1135 -0.3037  1.1497
53590SOL     OW67627   1.202   9.898   9.554 -0.1901 -0.0386  0.5099
53590SOL    HW167628   1.142   9.910   9.628 -1.4285 -0.5336 -0.3863
53590SOL    HW267629   1.176   9.815   9.515  1.1221 -0.2871  0.1087
53591SOL     OW67630   2.393   1.131   2.940  0.3276  0.0669 -0.2655
53591SOL    HW167631   2.478   1.173   2.928  0.6088 -0.2503  0.5380
53591SOL    HW267632   2.387   1.116   3.034  0.5123 -2.2834 -0.5923
53592SOL     OW67633   1.002   4.841   3.649  0.3086  0.1720  0.1307
53592SOL    HW167634   0.983   4.855   3.557 -0.0733 -0.4941  0.1023
53592SOL    HW267635   1.040   4.753   3.653 -2.5872 -1.1535  0.9577
53593SOL     OW67636   0.013   7.753   4.540  0.4192  0.0518  0.0045
53593SOL    HW167637  -0.057   7.805   4.580 -0.5455 -0.2707 -1.1985
53593SOL    HW267638   0.092   7.804   4.555 -0.2653  1.0666  0.2803
53594SOL     OW67639   6.177   2.648   9.810  0.0216  0.1542  0.3147
53594SOL    HW167640   6.208   2.652   9.720  0.1040  0.0198  0.3370
53594SOL    HW267641   6.234   2.707   9.859  0.4478 -0.3377  0.4148
53595SOL     OW67642   3.121   1.315  10.049  0.2141  0.3739  0.2652
53595SOL    HW167643   3.119   1.334   9.955  1.1977 -0.9539 -0.0587
53595SOL    HW267644   3.032   1.289  10.070 -0.2719  1.7120 -0.0588
53596SOL     OW67645   1.501   6.221   2.540  0.1541 -0.3932 -0.3756
53596SOL    HW167646   1.539   6.258   2.619  0.5693  2.3320 -1.7318
53596SOL    HW267647   1.567   6.160   2.507  0.2598 -1.0402  0.9642
53597SOL     OW67648  10.572  12.054  11.470 -0.6145  0.1702 -0.4345
53597SOL    HW167649  10.653  12.049  11.418 -2.3064  0.9006 -3.3389
53597SOL    HW267650  10.582  12.132  11.523  0.3440  0.6149 -1.2371
53598SOL     OW67651   9.863   9.955  11.314 -0.3240  0.2383 -0.5924
53598SOL    HW167652   9.917   9.880  11.338 -0.0287  0.2415 -1.2284
53598SOL    HW267653   9.817   9.978  11.394 -0.3153 -0.5345 -0.3558
53599SOL     OW67654   1.883  12.262   3.604  0.0194  0.0021  0.4247
53599SOL    HW167655   1.952  12.268   3.671 -0.2761  1.4824  0.6229
53599SOL    HW267656   1.802  12.262   3.654 -0.1746 -0.0295  0.1086
53600SOL     OW67657   3.391   9.979   0.373  0.3413 -0.7239  0.1431
53600SOL    HW167658   3.368   9.967   0.281  2.0541 -0.2118 -0.3875
53600SOL    HW267659   3.347   9.907   0.419  0.0431 -1.3984 -1.1587
53601SOL     OW67660  12.149   5.084   1.141  0.1308 -0.1702 -0.1821
53601SOL    HW167661  12.179   5.103   1.053 -1.2853  0.2045 -0.6057
53601SOL    HW267662  12.229   5.076   1.193  1.1064 -2.6585 -1.9120
53602SOL     OW67663   1.433   0.658   1.076 -0.0857  0.1839 -0.1195
53602SOL    HW167664   1.428   0.722   1.147 -0.7447 -1.5653  1.4828
53602SOL    HW267665   1.370   0.689   1.011 -1.1789  0.6023  1.1074
53603SOL     OW67666   4.999   7.528   2.844 -0.1154 -0.2457 -0.1271
53603SOL    HW167667   4.946   7.496   2.771 -1.0932 -0.7471  0.7600
53603SOL    HW267668   5.089   7.506   2.821 -0.4285 -0.5176 -1.1074
53604SOL     OW67669   2.889   1.398  11.690 -0.2345  0.0214 -0.0899
53604SOL    HW167670   2.814   1.431  11.740  0.1244  1.6099 -0.5435
53604SOL    HW267671   2.920   1.474  11.641  2.7517 -0.1412  1.3546
53605SOL     OW67672   8.943  11.296  11.343 -0.2896  0.0043  0.2764
53605SOL    HW167673   8.991  11.222  11.379  0.3326  1.0909  1.7797
53605SOL    HW267674   8.850  11.273  11.354 -0.1411  0.4007  2.9543
53606SOL     OW67675  10.265   1.020   5.571 -0.2160  0.0412 -0.9920
53606SOL    HW167676  10.184   1.052   5.532 -0.2295  1.3346  0.0159
53606SOL    HW267677  10.246   0.931   5.597 -1.6749  0.6543  0.1520
53607SOL     OW67678  10.830   0.667   1.801 -0.1780  0.0392  0.3460
53607SOL    HW167679  10.858   0.758   1.795  1.2914 -0.4614 -3.5973
53607SOL    HW267680  10.738   0.668   1.772  0.7477  0.0919 -3.0005
53608SOL     OW67681   3.970  10.593  12.431  0.3709  0.0465 -0.3850
53608SOL    HW167682   3.895  10.646  12.456  0.5756  0.4112 -0.5372
53608SOL    HW267683   3.976  10.601  12.336  0.7049  0.1651 -0.3569
53609SOL     OW67684   9.972   8.928   6.096  0.2667  0.1856 -0.7001
53609SOL    HW167685   9.930   8.942   6.011 -0.4511  0.0126 -0.3863
53609SOL    HW267686   9.902   8.943   6.160  0.8335  0.4470 -0.1344
53610SOL     OW67687   7.632  11.839  12.405 -0.0848  0.1174 -0.1984
53610SOL    HW167688   7.567  11.779  12.440  1.4221 -1.1993  0.5026
53610SOL    HW267689   7.676  11.789  12.335  3.8529 -1.3508  2.9168
53611SOL     OW67690   1.069  10.788   4.405  0.2589 -0.5088  0.3662
53611SOL    HW167691   1.098  10.864   4.355  0.6997 -0.1686  1.1236
53611SOL    HW267692   0.988  10.818   4.449  0.2797 -0.5650  0.4437
53612SOL     OW67693   8.734   5.326   0.561  0.4345  0.4029 -0.3261
53612SOL    HW167694   8.794   5.252   0.577  0.6863  0.7611  0.4725
53612SOL    HW267695   8.764   5.393   0.622 -1.5397  0.1669  0.9734
53613SOL     OW67696   9.800   7.199   7.128  0.0754  0.0850  0.3891
53613SOL    HW167697   9.856   7.275   7.146  0.7471 -0.1744 -0.5276
53613SOL    HW267698   9.714   7.237   7.108 -0.3038  0.4475  2.5236
53614SOL     OW67699   6.549   9.548   8.042 -0.0996 -0.4923  0.5143
53614SOL    HW167700   6.481   9.615   8.053  0.2490 -0.3172  1.7752
53614SOL    HW267701   6.501   9.465   8.042 -0.4083 -0.3171  0.2931
53615SOL     OW67702   9.811   8.840  10.684  0.7056  0.5438  0.1585
53615SOL    HW167703   9.875   8.902  10.649  0.2109  0.8802 -0.1728
53615SOL    HW267704   9.735   8.850  10.627 -0.3371  1.4985  1.6459
53616SOL     OW67705   1.936   0.691   9.733  0.3823 -0.0019  0.4692
53616SOL    HW167706   1.879   0.672   9.659  0.6053  0.2461  0.2277
53616SOL    HW267707   1.990   0.764   9.703 -0.0931  0.6514  1.1795
53617SOL     OW67708   8.678  10.731  12.430  0.2975 -0.4776 -0.5474
53617SOL    HW167709   8.681  10.816  12.386 -1.2437 -0.8721 -1.4834
53617SOL    HW267710   8.686  10.753  12.523  1.0186  0.5790 -0.8299
53618SOL     OW67711   1.597  11.246   0.193 -0.1068 -0.2597 -0.4704
53618SOL    HW167712   1.634  11.332   0.171  1.2527 -0.7605 -0.1843
53618SOL    HW267713   1.541  11.263   0.268  2.4606 -0.0511  1.5345
53619SOL     OW67714  11.950   2.910   6.042  0.4140 -0.2902 -0.0404
53619SOL    HW167715  12.015   2.901   6.111 -1.9325  2.4596  2.7948
53619SOL    HW267716  11.866   2.889   6.084 -1.0314  0.4769 -2.3320
53620SOL     OW67717   6.706  10.165   1.991 -0.5663 -0.6394  0.1584
53620SOL    HW167718   6.703  10.256   2.021  0.1814 -0.1023 -1.3252
53620SOL    HW267719   6.643  10.120   2.048 -2.3406  1.1517 -0.2631
53621SOL     OW67720   4.296   0.736   3.043 -0.1451 -0.2839 -0.0249
53621SOL    HW167721   4.317   0.683   3.120 -1.5068  0.4546  0.8911
53621SOL    HW267722   4.207   0.711   3.020 -1.3876  2.5409  1.2958
53622SOL     OW67723  11.546   8.368   2.456  0.5679  0.3386 -0.1288
53622SOL    HW167724  11.572   8.315   2.381  0.0404  1.2611 -1.0053
53622SOL    HW267725  11.482   8.315   2.502 -1.2261  0.8109 -1.9258
53623SOL     OW67726   1.575   6.064  11.263  0.0773 -0.2781 -0.2524
53623SOL    HW167727   1.491   6.041  11.223  0.2266 -0.5580 -0.4079
53623SOL    HW267728   1.557   6.143  11.314 -0.6640 -1.2006  0.9902
53624SOL     OW67729   1.397   4.984  10.028 -0.2835 -0.2800 -0.0923
53624SOL    HW167730   1.366   4.901   9.992  0.8117 -0.8298  0.1864
53624SOL    HW267731   1.374   4.981  10.121 -0.4858 -0.1553 -0.1383
53625SOL     OW67732  11.219  11.174  10.199 -0.3715 -0.1475  0.5635
53625SOL    HW167733  11.268  11.123  10.264  3.0050  1.5334 -0.4338
53625SOL    HW267734  11.245  11.265  10.215 -1.9112  0.6620 -1.1621
53626SOL     OW67735   4.686   3.213   9.314 -0.4864 -0.7300  0.4968
53626SOL    HW167736   4.736   3.150   9.262 -1.7058 -0.6867 -0.7743
53626SOL    HW267737   4.676   3.171   9.400  0.3925 -1.3944  0.2858
53627SOL     OW67738   6.534   4.225   0.171  0.6172  0.7745  0.0694
53627SOL    HW167739   6.451   4.181   0.150  0.6357  1.3989 -1.3979
53627SOL    HW267740   6.594   4.153   0.190 -0.0510  0.2845  0.4173
53628SOL     OW67741   7.175  12.406  11.242  0.0016 -0.0560 -0.3750
53628SOL    HW167742   7.203  12.366  11.159  0.5779  0.9366 -0.6689
53628SOL    HW267743   7.256  12.422  11.290 -0.2630  0.2947 -0.0390
53629SOL     OW67744   3.168   7.141   7.392  0.3539  0.2742 -0.3897
53629SOL    HW167745   3.238   7.205   7.405  1.4504 -0.9356 -0.2637
53629SOL    HW267746   3.195   7.092   7.314 -0.0635 -0.5861  0.0043
53630SOL     OW67747   1.937  11.815   2.788 -0.3315 -0.5673 -0.4445
53630SOL    HW167748   1.959  11.773   2.705 -2.4281  0.4235 -1.5847
53630SOL    HW267749   1.891  11.747   2.838  0.2769 -0.9466 -0.3959
53631SOL     OW67750   5.187   5.690   7.947 -0.0495 -0.4374 -0.2756
53631SOL    HW167751   5.249   5.737   8.002 -1.7437 -0.1245  1.4736
53631SOL    HW267752   5.194   5.598   7.975 -0.4680 -0.3752  0.0480
53632SOL     OW67753   5.685   5.760   2.908  0.4855 -0.5278 -0.1555
53632SOL    HW167754   5.605   5.715   2.936 -0.0936  0.7366  0.2988
53632SOL    HW267755   5.715   5.805   2.987  2.3890 -1.9872  0.0375
53633SOL     OW67756  10.487   6.961   7.945  0.1984 -0.2918 -0.1568
53633SOL    HW167757  10.502   7.045   7.903 -1.3266 -0.1271 -0.4149
53633SOL    HW267758  10.401   6.969   7.986 -0.1608 -1.8631 -0.5364
53634SOL     OW67759   0.989   4.003   8.725  0.4205  0.2232 -0.3603
53634SOL    HW167760   0.941   3.965   8.799  1.4312 -1.0397 -0.3150
53634SOL    HW267761   0.928   3.997   8.651  0.1325 -0.4237 -0.0805
53635SOL     OW67762   2.646   9.104   9.914  0.2468 -0.4053  0.4639
53635SOL    HW167763   2.604   9.024   9.882  0.0233  0.0602 -0.4457
53635SOL    HW267764   2.599   9.175   9.869  1.3720  0.1748  0.1748
53636SOL     OW67765   7.965   8.809  11.871 -0.3687  0.2470  0.2578
53636SOL    HW167766   7.978   8.858  11.790 -0.0799  0.6724  0.5585
53636SOL    HW267767   7.938   8.874  11.935 -3.8358 -0.5011 -0.2339
53637SOL     OW67768   4.566   9.953  11.287 -0.0961  0.2671  0.1022
53637SOL    HW167769   4.507  10.029  11.283 -0.4359  0.0501  0.8331
53637SOL    HW267770   4.541   9.907  11.367 -0.0012 -0.7147 -0.4154
53638SOL     OW67771  10.135   1.406  12.453 -0.0607  0.5187  0.7089
53638SOL    HW167772  10.093   1.476  12.503 -0.3402  1.1625 -0.3993
53638SOL    HW267773  10.090   1.407  12.369  0.9788  0.0222  0.1399
53639SOL     OW67774  12.316   5.298   2.315 -0.2710  0.7226  0.4583
53639SOL    HW167775  12.287   5.333   2.231 -0.4412 -1.0535 -0.2708
53639SOL    HW267776  12.357   5.372   2.360 -0.2166  1.7060 -1.1664
53640SOL     OW67777   5.950  11.574   3.024  0.2872 -0.0812  0.0907
53640SOL    HW167778   5.976  11.664   3.045  2.2937 -0.2062 -1.5315
53640SOL    HW267779   6.023  11.540   2.972 -1.6413 -1.7729 -1.6376
53641SOL     OW67780   9.842   9.326   1.270 -0.4347  0.2285  0.2057
53641SOL    HW167781   9.876   9.244   1.233  1.3833  1.1600 -0.3204
53641SOL    HW267782   9.828   9.383   1.195 -0.8034  0.7205  0.6373
53642SOL     OW67783   8.141   7.782   9.779 -0.2994  0.4401 -0.5662
53642SOL    HW167784   8.066   7.813   9.831  0.0490  0.7308 -0.2307
53642SOL    HW267785   8.215   7.786   9.840 -0.4206 -2.1482 -0.1405
53643SOL     OW67786   2.069   8.110   7.258 -0.2131 -0.3689  0.3028
53643SOL    HW167787   2.053   8.124   7.351  2.9727  0.7577  0.8208
53643SOL    HW267788   2.062   8.197   7.219  0.0281 -0.5764 -0.2168
53644SOL     OW67789   8.462  10.778   3.217 -0.0357  0.2958 -0.6474
53644SOL    HW167790   8.406  10.746   3.146 -0.3087 -1.2003  0.1959
53644SOL    HW267791   8.409  10.841   3.264 -1.6581 -2.1359  1.0127
53645SOL     OW67792   6.044   5.452  10.144 -0.2391  0.3781 -0.4634
53645SOL    HW167793   6.140   5.450  10.138 -0.2530 -0.4277 -0.6076
53645SOL    HW267794   6.015   5.469  10.054 -0.2308  1.1398 -0.3305
53646SOL     OW67795   4.153   9.224  10.309  0.0786 -0.3992  1.0479
53646SOL    HW167796   4.195   9.228  10.395  1.0532 -0.6850  0.6006
53646SOL    HW267797   4.140   9.130  10.293 -3.4251 -0.3061  2.4102
53647SOL     OW67798  11.860   4.238   2.225  0.3934  0.0859  0.3449
53647SOL    HW167799  11.945   4.278   2.242  0.7069 -0.1415 -0.6172
53647SOL    HW267800  11.796   4.308   2.241  0.8183  0.4826  0.3255
53648SOL     OW67801   5.613  11.126   6.258  0.2474 -0.6009 -0.0203
53648SOL    HW167802   5.673  11.092   6.191 -1.8889 -0.3197 -2.2133
53648SOL    HW267803   5.571  11.048   6.295 -1.1271 -0.6835 -1.6143
53649SOL     OW67804   9.918   4.847   8.164 -0.2444  0.8271 -0.4865
53649SOL    HW167805   9.973   4.916   8.125  0.0388  1.3164  0.7158
53649SOL    HW267806   9.960   4.828   8.248 -0.9329 -0.0580 -0.3282
53650SOL     OW67807   9.633   0.283   1.130 -0.0585 -0.3475 -0.0449
53650SOL    HW167808   9.646   0.214   1.194 -0.6794 -1.1671 -0.7809
53650SOL    HW267809   9.590   0.240   1.056 -2.0581  1.1357  0.1633
53651SOL     OW67810   1.938  11.835   1.969  0.2499  0.2942  0.5205
53651SOL    HW167811   2.013  11.892   1.984  1.3326 -0.8143 -0.3918
53651SOL    HW267812   1.956  11.758   2.024  0.0845 -0.2291 -0.1523
53652SOL     OW67813   8.936   2.612  12.081  0.7196  0.2320 -0.0218
53652SOL    HW167814   8.897   2.698  12.097  1.1009  0.9556 -2.4762
53652SOL    HW267815   8.984   2.623  11.998 -0.7410 -2.8193 -1.4229
53653SOL     OW67816  11.798   8.575   3.326 -0.2286  0.4421  0.7402
53653SOL    HW167817  11.808   8.650   3.385  2.2179  1.4617 -0.7988
53653SOL    HW267818  11.725   8.599   3.269 -0.3254  1.0626  1.1135
53654SOL     OW67819   5.693   5.864  10.393 -0.2133 -0.6023 -0.1998
53654SOL    HW167820   5.654   5.951  10.392 -1.9643 -1.3509 -0.9497
53654SOL    HW267821   5.696   5.840  10.486 -0.4791 -0.0770 -0.0529
53655SOL     OW67822   2.645   2.746   7.398 -0.2334  0.1506 -0.5023
53655SOL    HW167823   2.701   2.810   7.442  0.3343 -0.6581 -0.0156
53655SOL    HW267824   2.698   2.713   7.326  0.7036 -1.9514  1.0266
53656SOL     OW67825   4.178   1.828   6.395  0.0916  0.0431 -0.1328
53656SOL    HW167826   4.083   1.817   6.402  0.0821  0.1364 -0.1129
53656SOL    HW267827   4.190   1.922   6.381  0.2908  0.3348  1.8440
53657SOL     OW67828   5.477   3.274   4.412  0.1568  0.9274 -0.0502
53657SOL    HW167829   5.418   3.345   4.437 -1.2977  0.1929 -1.1928
53657SOL    HW267830   5.488   3.223   4.492 -0.2424  1.4318  0.3392
53658SOL     OW67831   7.323  11.181   2.382  0.2473  0.1546  0.2555
53658SOL    HW167832   7.337  11.091   2.353  1.7229 -0.4192  2.5173
53658SOL    HW267833   7.247  11.176   2.441 -0.9497  0.8147 -1.1460
53659SOL     OW67834   1.332   4.712  10.758 -0.5051 -0.0302  0.3512
53659SOL    HW167835   1.364   4.621  10.757 -1.4661 -0.3835 -1.0715
53659SOL    HW267836   1.378   4.754  10.685 -0.8720  0.3336  0.3274
53660SOL     OW67837  11.567   7.382  10.038  0.5510 -0.2557  0.1199
53660SOL    HW167838  11.604   7.367  10.125 -0.6693 -2.1059  0.3751
53660SOL    HW267839  11.528   7.470  10.043  2.7274  0.7512  0.5717
53661SOL     OW67840  11.441   2.255   4.949  0.5585 -0.3358 -0.3097
53661SOL    HW167841  11.433   2.331   4.892 -0.6665  1.4480  2.0469
53661SOL    HW267842  11.533   2.253   4.974  1.0489 -0.9790 -2.0562
53662SOL     OW67843   0.785   0.249   0.520 -0.1078  0.9048 -0.0579
53662SOL    HW167844   0.793   0.161   0.481 -0.3874  0.7503  0.2280
53662SOL    HW267845   0.691   0.266   0.521 -0.0151  1.5166 -0.7860
53663SOL     OW67846   3.998   0.531   1.846  0.2118  0.2908  0.1622
53663SOL    HW167847   3.993   0.600   1.780 -1.8605  1.4962  1.4619
53663SOL    HW267848   3.981   0.576   1.929 -1.8005 -1.8201  1.0058
53664SOL     OW67849   3.498   2.358  12.250 -0.3767 -0.6746  0.4015
53664SOL    HW167850   3.472   2.289  12.189 -1.7492 -0.0064  0.1652
53664SOL    HW267851   3.437   2.349  12.323  1.8692 -2.0792  2.2176
53665SOL     OW67852   6.581   4.343   4.644  0.3290  0.3442  1.2627
53665SOL    HW167853   6.588   4.405   4.572 -0.0175  1.0821  1.8559
53665SOL    HW267854   6.603   4.258   4.605 -2.0355  0.3334 -0.2419
53666SOL     OW67855   7.250   7.849   6.437  0.2480  0.0270 -0.7264
53666SOL    HW167856   7.335   7.818   6.470  0.3372 -0.3306 -1.2831
53666SOL    HW267857   7.268   7.938   6.405  0.6688 -0.4519 -1.8504
53667SOL     OW67858   4.642   0.574   3.627 -0.3456 -0.0597 -0.3070
53667SOL    HW167859   4.674   0.485   3.614  0.8520  0.3603 -0.3116
53667SOL    HW267860   4.711   0.630   3.591 -1.9130  0.8407 -2.0690
53668SOL     OW67861   4.440  12.161   4.169 -0.3795  0.1508  0.2071
53668SOL    HW167862   4.398  12.231   4.119 -0.3933  0.1531  0.2217
53668SOL    HW267863   4.489  12.206   4.238  1.7409  0.3358 -1.3096
53669SOL     OW67864   4.615  11.523   6.837 -0.6581  0.0205  0.2354
53669SOL    HW167865   4.695  11.500   6.884  0.0006  1.5594 -0.0642
53669SOL    HW267866   4.547  11.470   6.878 -0.0008  0.8258  2.5134
53670SOL     OW67867   2.920   5.826   5.226  0.0885 -0.5133  0.1872
53670SOL    HW167868   2.993   5.784   5.271  1.0095 -0.2873 -1.0314
53670SOL    HW267869   2.961   5.897   5.176 -1.1162  0.2812  0.2961
53671SOL     OW67870   8.022   6.140   0.828  0.0774  0.3962  0.2671
53671SOL    HW167871   8.083   6.204   0.864 -1.1626  0.9577  1.4316
53671SOL    HW267872   8.078   6.076   0.783  1.6638  0.0949  2.5077
53672SOL     OW67873   6.945   7.487   0.174 -0.3186  0.4058 -0.3599
53672SOL    HW167874   7.017   7.510   0.116  1.0548  1.5900  1.7129
53672SOL    HW267875   6.883   7.559   0.165  0.0695  0.7738 -0.0439
53673SOL     OW67876   9.348   6.577   4.724 -0.2408 -0.3712 -0.2779
53673SOL    HW167877   9.359   6.641   4.654  0.0976 -0.5381 -0.3787
53673SOL    HW267878   9.428   6.524   4.721  0.7851  0.8995  1.5432
53674SOL     OW67879   9.302   5.132   4.135  0.0025  0.2800 -0.3710
53674SOL    HW167880   9.293   5.047   4.092 -1.3755  0.5332 -0.6305
53674SOL    HW267881   9.291   5.196   4.065 -0.2121  0.6749  0.0160
53675SOL     OW67882   3.607   6.806   3.142 -0.4577  0.5309 -0.1098
53675SOL    HW167883   3.549   6.729   3.142  1.4018 -0.9402 -1.2356
53675SOL    HW267884   3.550   6.878   3.117 -2.3248 -0.3762  1.2192
53676SOL     OW67885   9.929  11.865   9.557 -0.2094 -0.1464 -0.4537
53676SOL    HW167886   9.947  11.953   9.526 -0.9006  0.1494 -0.0498
53676SOL    HW267887   9.881  11.824   9.485 -0.4272  0.0099 -0.3970
53677SOL     OW67888   8.805   1.045  10.324  0.2232 -0.3849 -0.0007
53677SOL    HW167889   8.876   0.998  10.281  1.8516  1.4215  0.5502
53677SOL    HW267890   8.833   1.051  10.416  0.8119  2.7008 -0.2601
53678SOL     OW67891   5.565   5.000  11.452  0.0432  0.2296 -0.8454
53678SOL    HW167892   5.515   4.932  11.407 -1.7125  1.4439 -0.8321
53678SOL    HW267893   5.531   5.082  11.417 -1.8089  1.2841  2.9232
53679SOL     OW67894   5.477  11.047   8.692  0.9307 -0.1113  0.3293
53679SOL    HW167895   5.496  11.116   8.629  1.2413 -0.0922  0.4423
53679SOL    HW267896   5.558  10.998   8.699  0.5350 -0.8587 -0.2010
53680SOL     OW67897   5.509  12.478   5.037 -0.0854  0.1102  0.0240
53680SOL    HW167898   5.500  12.573   5.028 -1.5810  0.0433  0.5878
53680SOL    HW267899   5.518  12.464   5.131  1.7742 -0.2151 -0.1607
53681SOL     OW67900  10.728   4.371   2.936 -0.0979 -0.3854  0.2352
53681SOL    HW167901  10.772   4.456   2.944  0.7756 -0.7542 -0.4014
53681SOL    HW267902  10.757   4.322   3.013  0.1457 -0.4170  0.1264
53682SOL     OW67903   3.818   5.700  10.414 -0.2101  0.6734 -0.0441
53682SOL    HW167904   3.842   5.741  10.497 -1.9356  1.6792  0.0064
53682SOL    HW267905   3.840   5.765  10.348 -1.5881  1.1471 -0.0834
53683SOL     OW67906   3.628   6.007   8.379 -0.3372 -0.4664 -0.1236
53683SOL    HW167907   3.542   6.036   8.348 -0.0348  2.2085  1.2233
53683SOL    HW267908   3.691   6.049   8.320  0.0850 -0.1738  0.5201
53684SOL     OW67909   9.018   9.236  11.926 -0.7330 -0.2932  0.1600
53684SOL    HW167910   9.041   9.172  11.993 -0.8719  0.1638  0.6534
53684SOL    HW267911   9.096   9.244  11.872 -0.6279 -0.6836  0.2513
53685SOL     OW67912   4.456  10.164   3.433  0.1043  0.0919  0.0696
53685SOL    HW167913   4.454  10.068   3.431 -0.8835  0.0243  2.0458
53685SOL    HW267914   4.509  10.188   3.357 -0.3961 -1.9731 -1.0248
53686SOL     OW67915   7.058  12.145   3.639  0.4485 -0.5272  0.1915
53686SOL    HW167916   7.083  12.074   3.697 -0.4442 -0.4455  0.6906
53686SOL    HW267917   7.019  12.211   3.696 -0.5054 -0.4736 -0.4907
53687SOL     OW67918   3.049   6.600   1.580  0.2404 -0.3329  0.3597
53687SOL    HW167919   3.135   6.642   1.580 -0.1405  0.5346 -0.8094
53687SOL    HW267920   2.998   6.651   1.643  0.4022 -0.4550  0.5921
53688SOL     OW67921  11.967   3.917   5.755 -0.5413  0.3750  0.2932
53688SOL    HW167922  12.028   3.845   5.775 -0.2654  0.6438  0.4404
53688SOL    HW267923  11.934   3.944   5.841 -1.4031 -0.2261  0.1554
53689SOL     OW67924   1.031  12.202  12.551  0.7130  0.1520 -0.2907
53689SOL    HW167925   1.073  12.211  12.465 -0.1496  0.0926 -0.7355
53689SOL    HW267926   0.945  12.243  12.539  0.4297 -0.2262  0.4319
53690SOL     OW67927   5.137   5.644   7.005 -0.3039  0.6302 -0.2071
53690SOL    HW167928   5.043   5.630   6.995 -0.0513 -0.7348 -0.9015
53690SOL    HW267929   5.163   5.579   7.071 -0.0956  2.1317  1.2716
53691SOL     OW67930   9.369  10.999  11.962  0.6596  0.0330 -0.0759
53691SOL    HW167931   9.364  10.903  11.968  0.8654 -0.0378 -0.9450
53691SOL    HW267932   9.457  11.017  11.929 -0.1932  0.3742 -2.3622
53692SOL     OW67933   3.511   7.486  10.145  0.2009  0.3102  0.0665
53692SOL    HW167934   3.566   7.553  10.105  1.9849 -0.7237  0.6865
53692SOL    HW267935   3.531   7.489  10.238 -0.6789 -0.2137  0.2931
53693SOL     OW67936   6.466   5.235   2.473 -0.5134 -0.0974 -0.1288
53693SOL    HW167937   6.407   5.161   2.472  1.5594 -1.8780 -2.0297
53693SOL    HW267938   6.453   5.278   2.388  0.1652  0.1028 -0.1425
53694SOL     OW67939   1.698   1.099   9.065  0.0560  0.1037 -0.0452
53694SOL    HW167940   1.776   1.135   9.023  1.2168 -1.7415  0.4208
53694SOL    HW267941   1.705   1.127   9.157  0.7900 -0.9552  0.2446
53695SOL     OW67942   2.340   5.746   9.560  0.3300  0.4252  0.2004
53695SOL    HW167943   2.392   5.754   9.639 -2.1990  1.4812  1.9029
53695SOL    HW267944   2.287   5.827   9.558  0.5466  0.6010 -2.7769
53696SOL     OW67945  11.917   3.640   0.207  0.1986 -0.1698 -0.0372
53696SOL    HW167946  11.947   3.646   0.116  1.8604  0.8318  0.5201
53696SOL    HW267947  11.823   3.655   0.202  0.0018 -1.6404 -1.7325
53697SOL     OW67948   2.416  11.192   6.516  0.2430  0.2928 -0.2631
53697SOL    HW167949   2.402  11.273   6.466  0.1307 -0.0967 -0.8646
53697SOL    HW267950   2.510  11.178   6.513  0.3364  0.7169  0.3521
53698SOL     OW67951  12.359   6.445   7.868  0.8275  0.7290 -0.8540
53698SOL    HW167952  12.369   6.398   7.785  0.1449 -0.1218 -0.4604
53698SOL    HW267953  12.448   6.471   7.891  1.0004  1.1729 -1.9631
53699SOL     OW67954   2.251  12.223   3.475 -0.3605 -0.0636  0.2626
53699SOL    HW167955   2.179  12.274   3.513 -1.3818 -0.6591 -0.8002
53699SOL    HW267956   2.209  12.142   3.445  0.5590 -0.0136 -1.2690
53700SOL     OW67957   1.275   6.890   1.515 -0.3250 -0.1755 -0.0818
53700SOL    HW167958   1.317   6.829   1.576 -0.6741  0.2673  0.6266
53700SOL    HW267959   1.323   6.972   1.527 -1.8985  0.5935  1.4033
53701SOL     OW67960  11.220   6.388   2.478 -0.0261 -0.4975  0.2961
53701SOL    HW167961  11.205   6.338   2.558 -2.5955 -0.8714 -0.3290
53701SOL    HW267962  11.222   6.322   2.408  0.0977 -0.0130 -0.1665
53702SOL     OW67963   9.053   9.256   7.653  0.2964 -0.2853 -0.1267
53702SOL    HW167964   9.032   9.292   7.567 -0.1994 -3.1683 -1.3255
53702SOL    HW267965   9.140   9.290   7.673  0.0857  1.0764 -1.3893
53703SOL     OW67966   8.604   3.291   5.292 -0.2065 -0.3216 -0.2860
53703SOL    HW167967   8.526   3.264   5.340 -0.6348  0.3965 -0.5701
53703SOL    HW267968   8.671   3.228   5.318 -0.3234  0.2372  1.5165
53704SOL     OW67969   9.341  12.210  11.658 -0.0591 -0.3603 -0.0738
53704SOL    HW167970   9.432  12.186  11.676  0.1316  0.7379  0.5081
53704SOL    HW267971   9.346  12.301  11.630 -0.7725 -0.8683 -2.0867
53705SOL     OW67972   3.952  12.386   3.822 -0.4393  0.1914  0.3647
53705SOL    HW167973   3.911  12.339   3.749  0.0709  2.1919 -1.2859
53705SOL    HW267974   3.880  12.432   3.864 -0.2702  2.0501 -1.2618
53706SOL     OW67975   9.412   3.644   5.882 -0.5524  0.5879  0.0697
53706SOL    HW167976   9.367   3.676   5.960 -0.6364  1.9831 -0.5257
53706SOL    HW267977   9.399   3.712   5.817 -0.4199 -0.5236 -1.1560
53707SOL     OW67978   9.154  11.320  12.458 -0.5559  0.2398 -0.2720
53707SOL    HW167979   9.207  11.316  12.378 -0.0058  0.3690  0.0741
53707SOL    HW267980   9.148  11.229  12.487 -1.0334  0.1540 -0.6333
53708SOL     OW67981   2.259   9.957   2.276 -0.6716  0.7159 -0.3217
53708SOL    HW167982   2.278  10.050   2.278 -0.2054  0.6207  1.3663
53708SOL    HW267983   2.263   9.930   2.368  0.5163 -1.2200 -0.8913
53709SOL     OW67984   2.149  10.970  12.165  0.4558  0.4667  0.2954
53709SOL    HW167985   2.098  11.036  12.212 -2.4789  1.3975 -3.6084
53709SOL    HW267986   2.221  11.019  12.125 -0.2129  0.8754 -0.4619
53710SOL     OW67987   9.653   9.241   2.531 -0.0913 -0.5715 -0.1258
53710SOL    HW167988   9.608   9.259   2.449  0.8740  1.6311 -0.2280
53710SOL    HW267989   9.746   9.239   2.509  0.1603 -0.2759  0.8317
53711SOL     OW67990   2.124   8.086  10.808 -0.7022  0.5870 -0.2577
53711SOL    HW167991   2.193   8.145  10.838  1.0847 -1.4418 -0.1383
53711SOL    HW267992   2.116   8.021  10.878 -1.5418 -0.1861 -1.0465
53712SOL     OW67993   2.771   6.247   8.185 -0.7848  0.2345  0.2810
53712SOL    HW167994   2.688   6.229   8.229  0.2753 -1.9022  1.5997
53712SOL    HW267995   2.771   6.189   8.108 -0.8479  0.8407 -0.1836
53713SOL     OW67996   4.413   5.506   3.915  1.0413 -0.2763 -0.4964
53713SOL    HW167997   4.505   5.499   3.893  1.7096  1.1513  1.5234
53713SOL    HW267998   4.406   5.468   4.002 -0.6714 -2.0541 -1.3388
53714SOL     OW67999   7.094   9.940  11.029 -0.5578 -0.4608 -0.3752
53714SOL    HW168000   7.031   9.876  11.062  1.2815 -1.6086  1.0761
53714SOL    HW268001   7.126   9.901  10.948 -0.8258 -0.4387 -0.4948
53715SOL     OW68002   0.077   8.542   3.619 -0.5105  0.3397  0.7908
53715SOL    HW168003   0.105   8.451   3.628 -2.0637 -0.0728  1.6795
53715SOL    HW268004   0.061   8.553   3.525 -1.0447 -0.5328  0.7722
53716SOL     OW68005   5.179   3.652   8.058 -0.6862 -0.3412 -0.0810
53716SOL    HW168006   5.233   3.636   8.135 -0.4950 -1.9756 -0.5183
53716SOL    HW268007   5.093   3.676   8.093 -0.1711  0.5460  0.6181
53717SOL     OW68008  11.108   7.665   2.241 -0.4092  0.3828 -0.4325
53717SOL    HW168009  11.188   7.616   2.257 -0.7970 -0.0167  0.3173
53717SOL    HW268010  11.037   7.603   2.261 -0.9015  1.0941  0.0745
53718SOL     OW68011  11.871   2.644   5.061 -0.7727  0.2727  0.2416
53718SOL    HW168012  11.833   2.583   5.124  0.9761 -1.7069 -0.5067
53718SOL    HW268013  11.797   2.672   5.007 -1.4775 -2.2906 -0.2543
53719SOL     OW68014   9.078  10.412  11.483  0.1300 -0.2234  0.0683
53719SOL    HW168015   9.008  10.393  11.545 -1.0062  1.3802 -0.6611
53719SOL    HW268016   9.046  10.487  11.432  0.7603 -1.7706 -2.8396
53720SOL     OW68017   1.426   6.931   7.686 -0.1161 -0.3543  0.1952
53720SOL    HW168018   1.496   6.902   7.746  0.0470 -0.6213 -0.1199
53720SOL    HW268019   1.470   6.992   7.627 -0.7091  1.5091  1.5929
53721SOL     OW68020   5.769   1.159   9.403 -0.0963 -0.0526  0.0899
53721SOL    HW168021   5.773   1.104   9.482 -0.2698  0.2260  0.2935
53721SOL    HW268022   5.730   1.102   9.337  0.6975 -0.5129  0.0107
53722SOL     OW68023   8.353   0.944   6.748  0.7797  0.3481  0.2496
53722SOL    HW168024   8.355   0.989   6.664  1.2954  2.0846  1.1425
53722SOL    HW268025   8.263   0.913   6.757  1.0503 -1.1503 -1.5436
53723SOL     OW68026   4.869  10.452  11.936 -0.2167  0.2193 -0.3201
53723SOL    HW168027   4.921  10.452  12.016 -1.7759 -1.0471  0.7522
53723SOL    HW268028   4.877  10.363  11.902 -2.9053 -0.5386  0.7848
53724SOL     OW68029   4.327   1.125   9.401  0.2171 -0.6319 -0.3214
53724SOL    HW168030   4.398   1.124   9.466 -0.5803 -1.9425  0.5825
53724SOL    HW268031   4.300   1.216   9.397  1.8594 -0.1173 -0.6004
53725SOL     OW68032   1.187   6.044   6.038  0.2073  0.1384  0.1431
53725SOL    HW168033   1.164   6.033   6.130 -0.3659  0.8883  0.0990
53725SOL    HW268034   1.103   6.039   5.992  0.4423  0.1963 -0.3003
53726SOL     OW68035   0.828   1.812  10.132 -0.3107  0.2444  0.7512
53726SOL    HW168036   0.826   1.729  10.179  0.7527 -1.2325 -1.6550
53726SOL    HW268037   0.804   1.790  10.042  0.7875  2.4111 -0.1455
53727SOL     OW68038   2.755  10.750   7.410  0.2360 -0.6774 -0.1230
53727SOL    HW168039   2.692  10.787   7.473 -0.3153 -1.0339 -0.4556
53727SOL    HW268040   2.729  10.658   7.402  1.5034 -1.1300  0.5958
53728SOL     OW68041   2.182   3.285   9.231 -0.0978 -0.3346 -0.7118
53728SOL    HW168042   2.102   3.280   9.284  0.7051  0.2324  0.6059
53728SOL    HW268043   2.160   3.345   9.160  0.0922  2.5902  1.4953
53729SOL     OW68044   6.461   6.320   4.916 -0.1781 -0.0722 -0.2578
53729SOL    HW168045   6.523   6.293   4.847 -0.5728  0.1596 -0.7137
53729SOL    HW268046   6.382   6.345   4.868 -0.3839  0.3035  0.2707
53730SOL     OW68047   0.872   1.629   5.100 -0.2028 -0.1786  0.1790
53730SOL    HW168048   0.833   1.607   5.015  1.2318  1.9592 -1.1579
53730SOL    HW268049   0.880   1.725   5.098 -2.1353  0.2279  3.7040
53731SOL     OW68050   1.781   9.690  11.063  0.2809  0.4757 -0.0504
53731SOL    HW168051   1.874   9.706  11.077 -0.0242  1.5267  0.9986
53731SOL    HW268052   1.777   9.626  10.992  1.9161 -2.4586  2.2625
53732SOL     OW68053   1.115   2.407  11.262 -0.2310 -0.0720 -0.0787
53732SOL    HW168054   1.164   2.336  11.304 -0.0599  1.4861  2.5976
53732SOL    HW268055   1.181   2.471  11.237 -0.5918  0.4672  0.3150
53733SOL     OW68056   1.663   0.260   8.633  0.1729  0.1380 -0.2467
53733SOL    HW168057   1.730   0.321   8.664 -2.1307  1.7068  2.0659
53733SOL    HW268058   1.700   0.223   8.554  2.6126  2.9959 -0.6502
53734SOL     OW68059  10.138   9.157  11.471 -0.2108  0.5153  0.2880
53734SOL    HW168060  10.185   9.230  11.431 -0.6598  2.1568  2.5962
53734SOL    HW268061  10.202   9.117  11.530  0.9355 -2.8278 -2.8009
53735SOL     OW68062   3.238   8.165   1.542 -0.1222  0.4754 -0.2055
53735SOL    HW168063   3.228   8.152   1.636  0.8659 -1.2854 -0.3108
53735SOL    HW268064   3.324   8.206   1.533 -0.4409  1.1385 -0.3332
53736SOL     OW68065   0.415   2.735   0.993 -0.1809 -0.4086  0.1547
53736SOL    HW168066   0.355   2.798   0.953  1.3466 -0.5950 -2.6475
53736SOL    HW268067   0.377   2.649   0.971  1.0217 -0.5277 -1.6670
53737SOL     OW68068  12.207  10.013  10.630 -0.2648  0.2570  0.0409
53737SOL    HW168069  12.248  10.063  10.559  0.0077 -0.6637 -0.4649
53737SOL    HW268070  12.194  10.077  10.700  2.3130  0.5816  0.3448
53738SOL     OW68071   0.909   5.909   6.871 -0.0692  0.7116 -0.6704
53738SOL    HW168072   0.918   5.965   6.948  1.1272  0.1822 -0.4048
53738SOL    HW268073   0.988   5.856   6.870 -0.7156 -0.2888 -1.4758
53739SOL     OW68074   2.813   5.583   5.329 -0.0218 -0.4406  0.0642
53739SOL    HW168075   2.836   5.669   5.363 -0.7655 -0.8220  1.6349
53739SOL    HW268076   2.718   5.586   5.317  0.1848 -0.3488 -2.0274
53740SOL     OW68077   5.826  11.277   9.248  0.8006 -0.4947 -0.3072
53740SOL    HW168078   5.846  11.283   9.341  0.1279  0.5619 -0.2115
53740SOL    HW268079   5.900  11.321   9.205  0.3134  0.4936 -0.1583
53741SOL     OW68080   9.654   5.940   8.036 -0.3988 -0.0756  0.0130
53741SOL    HW168081   9.650   5.845   8.021 -1.5148  0.1008 -0.9961
53741SOL    HW268082   9.593   5.956   8.108 -0.0490 -0.1433  0.3267
53742SOL     OW68083   7.643   1.950   6.343 -0.4348 -0.2207  0.7709
53742SOL    HW168084   7.705   1.890   6.385 -1.0480 -1.3066  0.1726
53742SOL    HW268085   7.592   1.986   6.416  1.5293  1.5114  1.3892
53743SOL     OW68086   6.611   3.006   4.259 -0.1214  0.0396 -0.0616
53743SOL    HW168087   6.529   3.011   4.210  1.1546 -0.1632 -2.4128
53743SOL    HW268088   6.597   2.939   4.325 -2.2352  0.9544  0.4777
53744SOL     OW68089   0.655  10.701   8.440 -0.3201  0.7899  0.0991
53744SOL    HW168090   0.702  10.654   8.371  2.1461  2.9749  0.1135
53744SOL    HW268091   0.724  10.733   8.498 -2.0689  1.9062  1.6833
53745SOL     OW68092   9.743  10.368  11.414 -0.3961  0.4020 -0.0633
53745SOL    HW168093   9.818  10.336  11.463 -0.4008  1.6680  0.8212
53745SOL    HW268094   9.736  10.308  11.339  2.1841  0.8676 -0.8011
53746SOL     OW68095   5.890   1.351   3.508 -0.2355 -0.3861 -0.1502
53746SOL    HW168096   5.842   1.273   3.479  0.6095 -0.7574 -0.5735
53746SOL    HW268097   5.944   1.320   3.581 -0.0279 -0.1578 -0.2067
53747SOL     OW68098   1.776   4.715   3.654 -0.3776 -1.1263  0.2313
53747SOL    HW168099   1.818   4.637   3.689 -1.4626 -2.4183 -1.1941
53747SOL    HW268100   1.799   4.716   3.561 -0.9165 -0.1139  0.0844
53748SOL     OW68101   0.542   3.943   4.673 -0.8311 -0.6467 -0.0233
53748SOL    HW168102   0.537   3.989   4.589 -1.4810 -0.7740 -0.0544
53748SOL    HW268103   0.517   4.008   4.738 -1.2623 -0.8185 -0.0190
53749SOL     OW68104  12.451  12.045   3.454 -0.2982 -0.3374 -0.8893
53749SOL    HW168105  12.491  12.034   3.368 -2.9777 -0.4592 -2.2078
53749SOL    HW268106  12.460  11.959   3.496  2.3947  0.1330 -0.3201
53750SOL     OW68107   5.907   6.444   7.678 -0.0536  0.0710 -0.0200
53750SOL    HW168108   5.828   6.390   7.670  0.7343 -0.9579 -1.1645
53750SOL    HW268109   5.909   6.495   7.597 -0.5704  1.5754  0.8717
53751SOL     OW68110   6.999   5.203   8.154  0.1289  0.0127 -0.3979
53751SOL    HW168111   7.002   5.113   8.122 -0.5620 -0.1392 -0.0498
53751SOL    HW268112   6.905   5.223   8.161  0.2177 -0.2036  2.2042
53752SOL     OW68113   9.055   9.315   9.518 -0.0538  0.1657  0.2046
53752SOL    HW168114   8.989   9.381   9.495 -0.1010  0.1975  0.4323
53752SOL    HW268115   9.048   9.306   9.613 -1.8224 -1.9981 -0.0372
53753SOL     OW68116  10.630   6.333   4.053 -0.4198  0.3590 -0.1810
53753SOL    HW168117  10.557   6.299   4.106 -2.7273  0.8649 -2.7792
53753SOL    HW268118  10.636   6.272   3.979  1.4581  0.6733 -0.3340
53754SOL     OW68119   7.575  10.106   8.283  0.1055  0.5877 -0.6557
53754SOL    HW168120   7.625  10.187   8.279  2.2512 -0.7026 -3.6767
53754SOL    HW268121   7.542  10.093   8.194 -1.7339 -0.9752  0.1831
53755SOL     OW68122   2.857   3.150  10.132 -0.0933  0.2810 -0.3334
53755SOL    HW168123   2.949   3.158  10.106  0.1976 -0.4607  0.4060
53755SOL    HW268124   2.828   3.240  10.143  0.2322  0.5583 -1.5924
53756SOL     OW68125   5.986  10.742   5.469 -0.1453 -0.0991  0.2762
53756SOL    HW168126   6.023  10.762   5.555  0.7672 -0.1948 -0.0833
53756SOL    HW268127   5.972  10.828   5.429 -0.9719 -0.0412  0.6802
53757SOL     OW68128   3.728   2.563  11.105 -0.5201 -0.2081 -0.0692
53757SOL    HW168129   3.749   2.654  11.122  0.9992 -0.4441 -0.5546
53757SOL    HW268130   3.768   2.544  11.020 -2.1878 -0.9083 -0.7635
53758SOL     OW68131  11.879  11.201   0.601 -0.0356  0.3908  0.8568
53758SOL    HW168132  11.907  11.152   0.678  0.0497  0.2035  0.7075
53758SOL    HW268133  11.935  11.168   0.530 -0.6138  0.0345  0.5632
53759SOL     OW68134   1.602   1.935   7.319 -0.4260 -0.0767  0.4792
53759SOL    HW168135   1.514   1.899   7.307 -0.2458 -0.6273  0.7810
53759SOL    HW268136   1.660   1.859   7.315  0.0249  0.2675  0.4273
53760SOL     OW68137   2.944   4.362   5.093 -0.0787  0.2419  0.1604
53760SOL    HW168138   2.927   4.395   5.181 -0.6142  1.7702 -0.4640
53760SOL    HW268139   2.938   4.267   5.100  0.9498  0.2722  1.9702
53761SOL     OW68140   3.375   2.067   3.894  0.5053  0.5466 -0.1501
53761SOL    HW168141   3.383   1.978   3.928  0.2440  1.0772  1.4157
53761SOL    HW268142   3.461   2.106   3.907  0.4077  0.7483 -0.0974
53762SOL     OW68143  12.412   9.854  10.412 -0.0889 -0.3271 -0.0773
53762SOL    HW168144  12.472   9.918  10.452 -0.8837 -0.3611  1.2315
53762SOL    HW268145  12.467   9.778  10.393  0.3201 -0.3226  1.0246
53763SOL     OW68146   3.119   8.640   3.576 -0.0241 -0.2780 -0.2012
53763SOL    HW168147   3.214   8.644   3.590  0.1072  0.2874 -1.1593
53763SOL    HW268148   3.107   8.673   3.487 -1.1215 -0.3700 -0.0953
53764SOL     OW68149   3.539   4.752   2.793 -0.7197 -0.1219  0.1170
53764SOL    HW168150   3.551   4.812   2.720  1.5930 -1.7137 -0.9150
53764SOL    HW268151   3.626   4.718   2.812 -1.7395 -2.2606  1.4320
53765SOL     OW68152   9.331   1.602   2.074 -0.4957  0.1736 -0.3712
53765SOL    HW168153   9.236   1.609   2.062 -0.4094  0.4339 -0.9326
53765SOL    HW268154   9.347   1.634   2.163 -1.2180 -2.3029  0.7490
53766SOL     OW68155  10.645   8.898   5.540 -0.0058 -0.9431  0.8880
53766SOL    HW168156  10.675   8.986   5.517 -1.2615 -1.0662 -1.5187
53766SOL    HW268157  10.720   8.842   5.521  0.0613 -0.6442  0.2581
53767SOL     OW68158   8.783   9.533   5.638  0.2294  0.1016 -0.0279
53767SOL    HW168159   8.841   9.470   5.680  1.2181 -0.3377 -1.9760
53767SOL    HW268160   8.831   9.616   5.641 -0.3937  0.4401  1.1127
53768SOL     OW68161   1.453   0.904   1.499  0.3660 -0.0223 -0.1476
53768SOL    HW168162   1.478   0.887   1.408  0.3063  2.1688 -0.6332
53768SOL    HW268163   1.361   0.931   1.493 -0.1608 -1.4983  0.8085
53769SOL     OW68164   0.931   6.267   6.737  0.4438  0.1749 -0.3666
53769SOL    HW168165   0.862   6.206   6.760  0.1079  0.4719 -0.5744
53769SOL    HW268166   0.896   6.316   6.663  0.9099  0.2689 -0.5279
53770SOL     OW68167   7.748   6.461   6.602 -0.2294 -0.3124  0.0016
53770SOL    HW168168   7.733   6.466   6.508 -0.0406 -0.8014 -0.0592
53770SOL    HW268169   7.742   6.368   6.623 -1.2795 -0.1182  0.6519
53771SOL     OW68170   9.952   3.309   5.562 -0.0505 -0.3236 -0.2987
53771SOL    HW168171   9.972   3.241   5.497 -1.1181  0.1017 -1.1052
53771SOL    HW268172   9.930   3.386   5.510 -2.2058 -0.3279  0.5088
53772SOL     OW68173  10.728   1.790   8.560  0.3815  0.2608 -0.1499
53772SOL    HW168174  10.822   1.797   8.576  0.2111  1.9802  0.3356
53772SOL    HW268175  10.720   1.778   8.465  1.1172 -1.8680 -0.0042
53773SOL     OW68176   6.205   2.623  10.315  0.2897 -0.3732  0.4294
53773SOL    HW168177   6.288   2.657  10.282  0.1895  0.7482  1.2757
53773SOL    HW268178   6.167   2.577  10.241  1.0576  0.2288 -0.3569
53774SOL     OW68179   1.824   9.476   9.675  0.2518 -0.2367  0.4281
53774SOL    HW168180   1.895   9.462   9.613  1.6064  1.2810  1.5887
53774SOL    HW268181   1.840   9.413   9.745  0.3857  0.0482  0.6513
53775SOL     OW68182   5.520   2.539   5.379  0.0318  0.3040  0.3932
53775SOL    HW168183   5.613   2.535   5.355  0.0144  0.3870  0.3100
53775SOL    HW268184   5.476   2.565   5.298 -0.0565  0.3242  0.4478
53776SOL     OW68185  11.995  10.904   4.355  0.6250 -0.1438 -0.0905
53776SOL    HW168186  11.934  10.978   4.356  0.9115  0.1522  2.6456
53776SOL    HW268187  12.081  10.944   4.366  1.0994 -0.7322 -1.4679
53777SOL     OW68188   9.086   3.157   7.881 -0.4139  0.4442  0.3171
53777SOL    HW168189   9.034   3.114   7.948 -2.6924  1.1501 -0.8760
53777SOL    HW268190   9.080   3.250   7.903  0.9644  0.4888  0.5463
53778SOL     OW68191   7.598   8.783   9.127 -0.9968 -0.4899 -0.3319
53778SOL    HW168192   7.593   8.696   9.167  0.5826  0.1325  1.2874
53778SOL    HW268193   7.604   8.765   9.033  0.5617 -2.2079  0.0374
53779SOL     OW68194   3.638   4.647   9.845  0.2733  0.3448  0.4274
53779SOL    HW168195   3.725   4.608   9.840  0.7653  1.1978  1.8544
53779SOL    HW268196   3.637   4.714   9.777 -0.1700 -1.2537 -1.2519
53780SOL     OW68197   7.491   4.168   2.617 -0.2217  0.5819  0.8404
53780SOL    HW168198   7.508   4.127   2.701 -0.3682  0.2872  0.7296
53780SOL    HW268199   7.523   4.104   2.553 -2.9547 -0.6634  0.5609
53781SOL     OW68200  11.142   8.420   1.092 -0.1643 -0.1395  0.4986
53781SOL    HW168201  11.224   8.459   1.124 -0.2880  0.5184  0.0323
53781SOL    HW268202  11.098   8.390   1.171  0.3073 -0.0573  0.7999
53782SOL     OW68203   0.322  10.433   3.760  0.2747  0.2676 -0.1717
53782SOL    HW168204   0.390  10.368   3.779 -0.9950 -0.4736  2.3082
53782SOL    HW268205   0.346  10.508   3.814  0.1838  0.8037 -0.8591
53783SOL     OW68206   1.194   8.741   9.252 -0.2994  0.0875  0.0004
53783SOL    HW168207   1.144   8.743   9.333  0.6529  0.1582  0.5967
53783SOL    HW268208   1.170   8.657   9.211 -1.4846  0.4591 -0.1228
53784SOL     OW68209   7.795  10.840   5.170  0.4671 -0.0813 -0.3419
53784SOL    HW168210   7.878  10.800   5.198  0.4813  0.3772  0.3131
53784SOL    HW268211   7.806  10.855   5.076  0.9560 -0.4335 -0.3468
53785SOL     OW68212   3.207  10.298   2.887  0.2155 -0.3698 -0.1024
53785SOL    HW168213   3.266  10.316   2.961 -0.7854 -0.4950  0.7519
53785SOL    HW268214   3.265  10.289   2.812  1.3641 -1.1361  0.8293
53786SOL     OW68215  11.559   8.323   8.103  0.3534 -0.7093 -0.1510
53786SOL    HW168216  11.617   8.398   8.096 -2.5519  1.6708 -1.1340
53786SOL    HW268217  11.474   8.361   8.126 -0.8030 -3.9877  1.7164
53787SOL     OW68218   9.795   2.681   8.083  0.0803 -0.1630  0.6072
53787SOL    HW168219   9.741   2.693   8.004  0.5498 -0.1261  0.2888
53787SOL    HW268220   9.735   2.641   8.146  0.2088 -2.0476 -0.3937
53788SOL     OW68221   9.796   1.914  10.138 -0.1497  0.1374  0.1063
53788SOL    HW168222   9.884   1.949  10.125  0.2034  0.3859  2.6701
53788SOL    HW268223   9.738   1.988  10.120  0.4112  1.0782  1.9020
53789SOL     OW68224  11.137  12.043  10.480 -0.1961 -0.6542  0.2544
53789SOL    HW168225  11.110  11.960  10.442 -1.5852  0.2478 -0.8351
53789SOL    HW268226  11.202  12.019  10.546 -1.0203 -2.6461  0.4202
53790SOL     OW68227   5.056   2.123  12.045 -0.7120  0.1008 -0.1323
53790SOL    HW168228   5.130   2.136  11.986 -0.9155  1.6107 -0.0756
53790SOL    HW268229   5.023   2.211  12.064  0.5083 -0.0874  3.7878
53791SOL     OW68230  10.414  11.502  11.637  0.0264  0.3863 -0.1217
53791SOL    HW168231  10.390  11.494  11.544 -0.5336 -0.2557  0.0641
53791SOL    HW268232  10.507  11.523  11.636  0.0390  0.3292 -0.8312
53792SOL     OW68233   7.570   4.895   6.849  0.3648  0.4573  0.0838
53792SOL    HW168234   7.613   4.925   6.768  0.5081  0.0822  0.0205
53792SOL    HW268235   7.477   4.914   6.835  0.4010  0.4849 -0.1277
53793SOL     OW68236   9.173   9.181   0.466  0.2269 -0.5983 -0.2919
53793SOL    HW168237   9.164   9.108   0.528 -0.2491  1.8117  2.6782
53793SOL    HW268238   9.084   9.211   0.451  0.4748 -0.1070 -0.8076
53794SOL     OW68239   4.960   7.180   4.367 -0.2697 -0.2411  0.4207
53794SOL    HW168240   4.925   7.206   4.452 -1.5972  0.6921 -0.3661
53794SOL    HW268241   4.971   7.262   4.319 -1.3601 -0.8307 -0.9469
53795SOL     OW68242   7.125   6.266  11.013 -0.3610 -0.0645 -0.1475
53795SOL    HW168243   7.127   6.355  11.047  0.7436 -0.1162 -0.0110
53795SOL    HW268244   7.107   6.276  10.920 -1.3102  0.2218  0.0613
53796SOL     OW68245   1.454   0.977   5.618  0.2250 -0.1113  0.0920
53796SOL    HW168246   1.448   1.065   5.582  0.6440 -0.8112 -1.8263
53796SOL    HW268247   1.508   0.986   5.697 -1.1342  1.5692  0.8821
53797SOL     OW68248   6.013   4.846   5.030  0.6107  0.1905 -0.0306
53797SOL    HW168249   6.067   4.921   5.005 -0.0489  0.6234 -0.1864
53797SOL    HW268250   5.952   4.835   4.957  1.0489 -0.8412 -0.2591
53798SOL     OW68251   2.987   4.286   6.623  0.1604 -0.4054  0.2734
53798SOL    HW168252   2.966   4.203   6.666 -2.1854  0.6080  1.2537
53798SOL    HW268253   2.923   4.293   6.552  0.4241  0.4776  0.1134
53799SOL     OW68254   6.155   2.176   1.432 -0.2323 -0.3588 -0.1794
53799SOL    HW168255   6.215   2.104   1.413  1.9303  1.6249 -1.4204
53799SOL    HW268256   6.135   2.166   1.525  1.3282 -1.6228  0.0668
53800SOL     OW68257   2.227   2.457   8.202 -0.0772  0.2254 -0.3907
53800SOL    HW168258   2.179   2.538   8.184 -1.1535  0.0169  1.3632
53800SOL    HW268259   2.252   2.464   8.294 -0.9478 -1.7984  0.0579
53801SOL     OW68260   3.379   0.668   5.288  0.5763 -1.2085  0.3423
53801SOL    HW168261   3.417   0.626   5.365  0.5935 -2.2902 -0.2368
53801SOL    HW268262   3.300   0.711   5.321  1.4134 -0.3061  1.2477
53802SOL     OW68263   7.598   4.752   5.029  0.4337 -0.7138  0.4417
53802SOL    HW168264   7.510   4.789   5.030  0.2714 -0.9239 -1.6763
53802SOL    HW268265   7.656   4.827   5.044 -0.0401 -0.2923  0.1846
53803SOL     OW68266  10.339   0.991   2.776  0.2129 -0.2527 -0.3637
53803SOL    HW168267  10.251   1.020   2.751  0.1840 -0.4504 -0.4971
53803SOL    HW268268  10.328   0.898   2.797  0.2885 -0.1537  0.1350
53804SOL     OW68269   2.911   5.244   9.229 -0.1951 -0.4406 -0.2933
53804SOL    HW168270   2.868   5.172   9.276 -1.6241 -0.0079 -0.8864
53804SOL    HW268271   2.953   5.202   9.155 -2.3290 -0.5521 -1.5221
53805SOL     OW68272   9.456   4.375   6.457  0.3905  0.2084 -0.0667
53805SOL    HW168273   9.525   4.310   6.472  0.3280 -0.5550 -2.6271
53805SOL    HW268274   9.504   4.454   6.432  0.4040  0.6486  1.2882
53806SOL     OW68275   4.979   7.305   5.393  0.1374 -0.5721 -0.1588
53806SOL    HW168276   5.048   7.251   5.431  0.2855  0.1554  0.6419
53806SOL    HW268277   4.936   7.248   5.329  3.2062 -0.2646 -2.7615
53807SOL     OW68278   3.691  10.749   9.686  0.3792 -0.0638 -0.4981
53807SOL    HW168279   3.776  10.793   9.686  0.1425  0.4427  0.7605
53807SOL    HW268280   3.710  10.660   9.718  0.4654 -0.0031 -0.3802
53808SOL     OW68281   9.210   6.267  10.300 -0.0544  0.3167 -0.7057
53808SOL    HW168282   9.240   6.223  10.220 -0.2994 -0.8411 -0.1765
53808SOL    HW268283   9.283   6.261  10.360 -0.4703 -0.3260 -0.2601
53809SOL     OW68284   8.336   6.629   0.836 -0.0569  0.0542 -0.3754
53809SOL    HW168285   8.256   6.622   0.888 -0.0625 -0.1723 -0.4137
53809SOL    HW268286   8.385   6.700   0.877  0.1892 -0.4860  0.2714
53810SOL     OW68287  11.953   9.741   1.479 -0.1705  0.3118  0.5120
53810SOL    HW168288  11.904   9.756   1.398 -0.7030  1.2390  0.9904
53810SOL    HW268289  11.981   9.650   1.474 -1.6435 -0.1381  0.0492
53811SOL     OW68290   6.091   4.597   1.452 -0.1324 -0.1068 -0.2602
53811SOL    HW168291   6.019   4.557   1.501  0.1139 -0.0139  0.1814
53811SOL    HW268292   6.131   4.659   1.514 -0.3926  0.6952 -0.8715
53812SOL     OW68293   1.288   8.987   1.443  0.7168 -0.1071 -0.1762
53812SOL    HW168294   1.294   8.958   1.534 -0.7937  1.7959  0.5757
53812SOL    HW268295   1.360   9.050   1.434  1.2286 -0.7300 -0.4843
53813SOL     OW68296   5.532   6.928   0.855 -0.0549 -0.3426  0.1629
53813SOL    HW168297   5.476   6.985   0.802 -0.5514 -1.2040 -0.2749
53813SOL    HW268298   5.501   6.840   0.834  2.1295 -0.9278 -0.8604
53814SOL     OW68299   2.993   9.937   2.332  0.6060  0.6428  0.1878
53814SOL    HW168300   2.939   9.929   2.410  1.2976  0.8848  0.6975
53814SOL    HW268301   3.041   9.855   2.327  1.1687  0.9530  0.4778
53815SOL     OW68302   4.613   2.036   3.792  0.0292  0.4124 -0.1380
53815SOL    HW168303   4.560   1.968   3.833  1.8362 -1.5073 -0.8407
53815SOL    HW268304   4.614   2.107   3.857 -1.8981 -0.1649  0.6199
53816SOL     OW68305   9.063   9.384  12.394 -0.2036  0.2912  0.1397
53816SOL    HW168306   9.108   9.308  12.432 -1.9700 -0.2743  1.1851
53816SOL    HW268307   8.985   9.396  12.448 -1.7029  0.8200 -2.0036
53817SOL     OW68308   0.054   7.884   6.213 -0.3920  0.6815 -1.0277
53817SOL    HW168309   0.069   7.967   6.168 -0.6235  0.5069 -1.4291
53817SOL    HW268310   0.088   7.898   6.301  0.1075  1.0113 -1.2704
53818SOL     OW68311   6.220   4.165   5.287  0.3519  0.0984  0.0971
53818SOL    HW168312   6.148   4.212   5.327  0.3016  0.1228 -0.0210
53818SOL    HW268313   6.180   4.117   5.214  0.4129 -0.0763  0.1779
53819SOL     OW68314   2.463   6.424   9.864 -0.3802 -0.0600  0.1700
53819SOL    HW168315   2.523   6.458   9.797 -0.6900 -1.6943 -0.9966
53819SOL    HW268316   2.411   6.500   9.891  1.3183  1.1195  0.2709
53820SOL     OW68317   9.758   3.422   5.326 -0.0980 -0.5321  0.0983
53820SOL    HW168318   9.777   3.486   5.257 -2.6231 -0.1438 -0.3397
53820SOL    HW268319   9.810   3.346   5.303  0.4956  0.2348 -1.2318
53821SOL     OW68320   6.642   5.953   6.950  0.2800 -0.5197  0.4544
53821SOL    HW168321   6.599   5.878   6.991 -0.5580  0.2152  0.9594
53821SOL    HW268322   6.577   6.023   6.954  1.8179  0.9043  2.0580
53822SOL     OW68323   3.961   1.912   7.976  0.1958  0.0236  0.4198
53822SOL    HW168324   3.954   1.992   8.027 -0.2976  0.2572 -0.0026
53822SOL    HW268325   4.008   1.851   8.032  1.5653  0.9564  0.3439
53823SOL     OW68326   2.484  10.794   2.510  0.1451 -0.0213 -0.0938
53823SOL    HW168327   2.510  10.852   2.582 -0.8493 -0.2548  0.4766
53823SOL    HW268328   2.565  10.753   2.481  0.7340  0.9999  0.0780
53824SOL     OW68329   4.558   0.039   0.882 -0.0901  0.0090 -0.2348
53824SOL    HW168330   4.594  -0.048   0.862  0.1890 -0.0454  0.4717
53824SOL    HW268331   4.634   0.090   0.911  0.0807  1.0160 -2.2348
53825SOL     OW68332   9.026   3.715  10.825 -0.2597  0.1414 -0.6667
53825SOL    HW168333   9.114   3.744  10.803 -0.1526  0.4119  0.0873
53825SOL    HW268334   8.982   3.793  10.857 -1.2070  0.3100 -2.2532
53826SOL     OW68335   1.094   5.821   6.514 -0.3202  0.1789  0.4792
53826SOL    HW168336   1.042   5.754   6.558  0.8810 -0.3915  1.0530
53826SOL    HW268337   1.137   5.869   6.584  0.5521  0.1327 -0.0116
53827SOL     OW68338   1.594   0.409   5.736 -0.2707  0.1363 -0.4064
53827SOL    HW168339   1.600   0.504   5.741 -0.4845  0.1126  0.3730
53827SOL    HW268340   1.501   0.391   5.721  0.1889  0.1760 -4.5308
53828SOL     OW68341  12.486  10.627   4.352 -0.0083 -0.0324  0.0597
53828SOL    HW168342  12.569  10.648   4.309 -0.2202  1.8744  0.4732
53828SOL    HW268343  12.491  10.533   4.369  2.2108  0.0796  0.3635
53829SOL     OW68344   4.347   5.022  10.226  0.2595  0.0567 -0.5046
53829SOL    HW168345   4.317   5.087  10.162  0.1753  0.4657 -0.0515
53829SOL    HW268346   4.374   4.947  10.172 -0.1758  0.2450 -1.0008
53830SOL     OW68347   7.271   4.950  10.887 -0.4724  0.3768 -0.4970
53830SOL    HW168348   7.223   4.988  10.960  1.1767  2.2350 -0.2861
53830SOL    HW268349   7.297   4.863  10.918 -0.9411  0.6088  0.5971
53831SOL     OW68350   3.248   6.284   0.153 -0.2859 -0.2220  0.7274
53831SOL    HW168351   3.219   6.371   0.180 -0.8152 -0.3216  0.4960
53831SOL    HW268352   3.318   6.301   0.089 -0.0645  0.0236  1.0294
53832SOL     OW68353   8.111   7.804   8.524 -0.1342  0.0252  0.5141
53832SOL    HW168354   8.056   7.828   8.599 -0.5255  0.8017 -0.0063
53832SOL    HW268355   8.194   7.850   8.539 -0.5024  0.8551  0.0680
53833SOL     OW68356  11.837   7.460   9.981 -0.1364  0.0448  0.3493
53833SOL    HW168357  11.845   7.496  10.069  0.3759  1.4586 -0.2460
53833SOL    HW268358  11.747   7.429   9.976 -0.1091 -0.2472  1.4370
53834SOL     OW68359   2.157   3.204   2.521  0.4328  0.4493  0.2413
53834SOL    HW168360   2.234   3.164   2.562 -0.3556 -1.6230 -0.1896
53834SOL    HW268361   2.193   3.258   2.451  1.5088 -0.5408 -0.0017
53835SOL     OW68362   2.538   1.823  12.508 -0.3323  0.9597 -0.6087
53835SOL    HW168363   2.623   1.866  12.514 -0.4957  1.1733  0.2623
53835SOL    HW268364   2.500   1.857  12.427  0.4139  0.8467 -1.0115
53836SOL     OW68365   7.727   2.931  11.877  0.0941  0.2969 -0.1406
53836SOL    HW168366   7.650   2.927  11.932 -0.0837 -2.5106 -0.4554
53836SOL    HW268367   7.800   2.937  11.938 -0.2895  3.2739  0.1502
53837SOL     OW68368   5.438   3.212   7.631  0.4238 -0.5248 -0.0472
53837SOL    HW168369   5.419   3.230   7.723 -1.7204 -0.8227 -0.3818
53837SOL    HW268370   5.528   3.182   7.631  0.2775 -1.1153  2.0434
53838SOL     OW68371   6.326   1.513  10.732  0.7193  0.5933 -0.2054
53838SOL    HW168372   6.374   1.595  10.741 -0.0987  0.8611  2.4126
53838SOL    HW268373   6.389   1.445  10.757  0.3154  0.7875  1.4172
53839SOL     OW68374  10.925   2.368   5.833  0.0526  0.4175 -0.0218
53839SOL    HW168375  10.980   2.401   5.762  0.9204 -0.5169  0.1830
53839SOL    HW268376  10.941   2.273   5.832 -2.6939 -0.1105 -0.9080
53840SOL     OW68377   6.052   4.153   4.546  0.0845 -0.0404 -0.4269
53840SOL    HW168378   6.120   4.185   4.486 -0.7693  1.0145 -0.8517
53840SOL    HW268379   6.068   4.058   4.551  0.1908 -0.1581 -2.3153
53841SOL     OW68380   4.989   0.048   1.348  0.0018 -0.4465 -0.4224
53841SOL    HW168381   4.987   0.142   1.364  0.3468 -0.4056 -0.6093
53841SOL    HW268382   5.052   0.037   1.276  0.7069 -0.9098  0.2529
53842SOL     OW68383   0.160   7.511   4.555  0.0367 -0.7641 -0.2860
53842SOL    HW168384   0.138   7.504   4.648  2.3513  1.0336  0.5016
53842SOL    HW268385   0.112   7.588   4.525 -0.1982 -0.9589 -0.4121
53843SOL     OW68386  10.659   0.722   3.338 -0.0975 -0.0694 -0.0044
53843SOL    HW168387  10.680   0.771   3.417  0.3414 -0.3305  0.0427
53843SOL    HW268388  10.573   0.684   3.356  0.0615 -0.2456  0.4066
53844SOL     OW68389   7.831  11.151  10.764 -0.0391  0.2771 -0.2086
53844SOL    HW168390   7.779  11.101  10.827 -1.1848  0.6542 -0.8321
53844SOL    HW268391   7.778  11.228  10.745  2.2588  2.4977  1.7437
53845SOL     OW68392   4.580   4.488   6.772 -0.2774 -0.1763 -0.1509
53845SOL    HW168393   4.666   4.473   6.733 -0.0265  0.5182  0.1226
53845SOL    HW268394   4.548   4.401   6.794  0.6830 -0.3935  0.4310
53846SOL     OW68395   8.284   6.061   4.246  0.1214  0.5308 -0.2673
53846SOL    HW168396   8.363   6.012   4.269 -1.7153 -1.3515  2.7745
53846SOL    HW268397   8.278   6.129   4.312  0.1884  1.9833 -1.7026
53847SOL     OW68398   9.044  12.037   8.140 -0.4266 -0.2753 -0.1049
53847SOL    HW168399   8.999  11.992   8.212 -0.0386 -0.5446 -0.0302
53847SOL    HW268400   9.135  12.010   8.147  0.0150  1.2727  0.5177
53848SOL     OW68401   3.256   0.064  11.458  0.3070 -0.4318  0.2149
53848SOL    HW168402   3.203   0.045  11.380 -1.3357  1.0485  0.9066
53848SOL    HW268403   3.306  -0.016  11.472 -0.6336 -1.3651 -1.3668
53849SOL     OW68404   1.912  10.464   1.227  0.1953 -0.0711 -0.0694
53849SOL    HW168405   1.901  10.402   1.299 -0.2140 -0.1327 -0.1825
53849SOL    HW268406   2.007  10.472   1.217  0.2978  0.9612  1.3536
53850SOL     OW68407   9.368   7.448   3.341  0.6827  0.1527 -0.0931
53850SOL    HW168408   9.314   7.444   3.420  1.2230 -2.0175  0.2163
53850SOL    HW268409   9.342   7.372   3.289 -0.3164  2.0142 -2.5168
53851SOL     OW68410   9.644   7.236  11.378 -0.0991 -0.0569 -0.1280
53851SOL    HW168411   9.699   7.159  11.360  0.4498  0.5671 -1.2125
53851SOL    HW268412   9.576   7.203  11.436  0.7752 -1.1110  0.3534
53852SOL     OW68413   5.291   2.485   7.245 -0.0097 -1.1226 -0.0959
53852SOL    HW168414   5.295   2.442   7.160  0.3765 -0.5748 -0.3620
53852SOL    HW268415   5.318   2.418   7.308 -0.4712 -1.5785 -0.3817
53853SOL     OW68416   8.302   9.599   8.508  0.2627 -0.2025 -0.1673
53853SOL    HW168417   8.297   9.669   8.443 -1.3906  1.4597  1.6320
53853SOL    HW268418   8.385   9.614   8.553  1.2707 -1.1807 -1.5897
53854SOL     OW68419   0.223   7.372  11.865 -0.1285  0.0781  0.1560
53854SOL    HW168420   0.307   7.326  11.866 -0.1486 -0.0001 -1.0066
53854SOL    HW268421   0.165   7.316  11.814 -0.5878  0.6560  0.0307
53855SOL     OW68422  12.005   7.032   0.709 -0.1877 -0.2503  0.2114
53855SOL    HW168423  12.003   7.075   0.624  0.9316 -0.3242  0.1278
53855SOL    HW268424  11.963   6.947   0.694 -1.3060  0.3122  0.0928
53856SOL     OW68425  11.029   8.658   4.710 -0.1251  0.0020  0.1890
53856SOL    HW168426  10.953   8.654   4.768 -0.3368  2.0782  0.1359
53856SOL    HW268427  10.992   8.656   4.621  0.0286 -0.7303  0.1331
53857SOL     OW68428  11.391   2.057   2.599  0.9758  0.2036  0.6782
53857SOL    HW168429  11.353   1.991   2.541  0.4586 -0.1147  1.3659
53857SOL    HW268430  11.469   2.015   2.635  0.7013 -0.0016  1.0393
53858SOL     OW68431  11.169  11.981   1.458 -0.2928 -0.4850 -0.0633
53858SOL    HW168432  11.216  11.922   1.518  0.7157  1.2732  0.9482
53858SOL    HW268433  11.227  11.988   1.382  0.2195  0.1940  0.3762
53859SOL     OW68434   7.652   0.124  10.473 -0.1235  0.0540  0.1451
53859SOL    HW168435   7.585   0.180  10.513  0.3552  0.6148  0.1703
53859SOL    HW268436   7.624   0.116  10.382 -1.1083 -1.0614  0.5210
53860SOL     OW68437   7.231   5.809   0.663  0.2111 -0.2129 -0.1784
53860SOL    HW168438   7.185   5.822   0.581  1.0240 -0.3873 -0.6768
53860SOL    HW268439   7.292   5.883   0.670  0.5797 -0.5181 -0.0459
53861SOL     OW68440   1.015  12.119   4.409 -0.7388  0.0767 -0.1134
53861SOL    HW168441   1.088  12.130   4.469 -0.3710 -0.9998 -0.3447
53861SOL    HW268442   0.944  12.171   4.448 -0.6361 -0.9016  1.4884
53862SOL     OW68443   4.108  12.198   0.215 -0.4292  0.4451 -0.7662
53862SOL    HW168444   4.117  12.293   0.227  1.3821  0.2722 -0.4339
53862SOL    HW268445   4.104  12.186   0.121  0.6419  0.7783 -0.8672
53863SOL     OW68446   3.811   6.240   0.458 -0.3100  0.1953 -0.6628
53863SOL    HW168447   3.767   6.323   0.437  0.9332  0.2676 -3.3294
53863SOL    HW268448   3.883   6.265   0.515 -1.2716  0.6014  0.4218
53864SOL     OW68449   2.557   3.176   3.017  0.0000  0.6329 -0.1654
53864SOL    HW168450   2.519   3.170   3.105  1.7941  0.2708  0.6516
53864SOL    HW268451   2.595   3.263   3.013  0.7082  0.3309 -0.2140
53865SOL     OW68452   3.882   9.078   4.187 -0.3088  0.4104 -0.5731
53865SOL    HW168453   3.880   9.172   4.168 -0.9052  0.8554  1.4651
53865SOL    HW268454   3.838   9.069   4.272 -0.0655 -1.6908 -0.6090
53866SOL     OW68455   3.814   6.136   0.218  0.0987  0.9241  0.2909
53866SOL    HW168456   3.824   6.166   0.308 -2.3111 -0.4554  1.1226
53866SOL    HW268457   3.725   6.100   0.215  0.0670  0.9943 -2.6725
53867SOL     OW68458   9.322   6.162   2.685 -0.7319  1.1136 -0.2983
53867SOL    HW168459   9.341   6.131   2.597  0.7976  0.3772  0.2404
53867SOL    HW268460   9.394   6.127   2.738 -2.3666  0.2837  1.5193
53868SOL     OW68461   7.400   5.732   6.223  0.2315 -0.6171 -0.1322
53868SOL    HW168462   7.325   5.788   6.244  0.4003 -0.6410  0.5730
53868SOL    HW268463   7.369   5.643   6.237  0.8898 -0.5699  1.9600
53869SOL     OW68464   5.020   1.042   7.033 -0.3584 -0.2637 -0.8023
53869SOL    HW168465   5.060   0.977   6.975  2.7690  1.3648 -0.6925
53869SOL    HW268466   5.012   1.121   6.980 -0.2095  0.4220  0.1587
53870SOL     OW68467   0.625   4.955   7.270 -0.4430  0.0687 -0.3129
53870SOL    HW168468   0.624   4.866   7.304  0.2550 -0.6453 -2.0827
53870SOL    HW268469   0.533   4.982   7.270 -0.8560 -1.2505 -1.2293
53871SOL     OW68470  10.985   7.304   7.989 -0.4183 -0.0894  0.1955
53871SOL    HW168471  10.950   7.225   8.030  1.8246 -1.2444 -0.0005
53871SOL    HW268472  10.958   7.375   8.048 -0.3925 -1.2843  1.7193
53872SOL     OW68473   1.454   8.608   3.824 -0.3214 -0.9752  0.0207
53872SOL    HW168474   1.459   8.636   3.916 -0.9433 -0.4517 -0.0963
53872SOL    HW268475   1.367   8.635   3.796 -0.2032 -1.3023 -0.6772
53873SOL     OW68476   8.579  12.379   6.056  0.4705 -0.5346 -0.1134
53873SOL    HW168477   8.526  12.390   6.135  2.2578  1.0807  0.9211
53873SOL    HW268478   8.525  12.324   6.000 -1.7688 -0.0023  1.3690
53874SOL     OW68479   8.404   0.015  11.761  0.3735 -0.2832  0.0076
53874SOL    HW168480   8.349  -0.010  11.688  1.0998  0.3360 -0.7694
53874SOL    HW268481   8.483  -0.038  11.751  0.2385 -0.6317  0.6933
53875SOL     OW68482   8.501   7.431  10.474 -0.2013 -0.2409  0.4482
53875SOL    HW168483   8.454   7.514  10.466  0.3268 -0.0133 -0.5692
53875SOL    HW268484   8.434   7.364  10.469 -0.6322  0.1313  1.2446
53876SOL     OW68485  12.457   6.167   7.830 -0.0303 -0.3286 -0.1024
53876SOL    HW168486  12.521   6.140   7.895 -1.3549 -0.5689  1.1518
53876SOL    HW268487  12.504   6.230   7.775  1.8075 -1.8747 -0.4068
53877SOL     OW68488   4.146   2.093   2.547  0.4481  0.0294 -0.0780
53877SOL    HW168489   4.209   2.092   2.620 -0.5432 -0.7945  0.8065
53877SOL    HW268490   4.199   2.080   2.469  1.6846  2.0355  0.3469
53878SOL     OW68491   3.136  11.513   6.017  0.4546 -0.1222  0.5386
53878SOL    HW168492   3.077  11.452   5.973 -0.4117  2.8475 -2.9413
53878SOL    HW268493   3.224  11.486   5.988  0.1545 -0.2736 -0.2604
53879SOL     OW68494   5.113   2.341   1.743 -0.3994  0.3574  0.4891
53879SOL    HW168495   5.036   2.285   1.737 -0.3693  0.4501 -1.2623
53879SOL    HW268496   5.186   2.280   1.758 -0.5602  0.0835  0.1529
53880SOL     OW68497  12.218   2.815   0.260 -0.1081 -0.6350  0.5112
53880SOL    HW168498  12.180   2.890   0.307  0.5639 -1.7156  2.9000
53880SOL    HW268499  12.155   2.744   0.273  0.1754 -1.0190 -0.1379
53881SOL     OW68500   3.715   3.328   3.843 -0.3323 -0.0282  0.1600
53881SOL    HW168501   3.646   3.372   3.894 -0.7395  0.6686 -0.9579
53881SOL    HW268502   3.796   3.372   3.869 -0.7583  1.6072 -1.0985
53882SOL     OW68503   4.853   4.465   6.715  0.4256  0.0759 -0.0660
53882SOL    HW168504   4.903   4.429   6.788  0.6328  0.7234  0.1186
53882SOL    HW268505   4.878   4.410   6.640 -0.9789 -1.6171  0.6283
53883SOL     OW68506   0.877   6.264   4.952 -0.5394  0.1040  0.5518
53883SOL    HW168507   0.963   6.226   4.971 -0.0972  0.3062 -0.9233
53883SOL    HW268508   0.816   6.191   4.967  0.2571 -1.1742 -1.8268
53884SOL     OW68509   6.199  10.758  11.772  0.1585 -0.4543 -0.0390
53884SOL    HW168510   6.266  10.701  11.736 -0.0034 -0.9110  0.3676
53884SOL    HW268511   6.138  10.773  11.699  0.2865 -0.6711 -0.1907
53885SOL     OW68512   5.307   7.589   2.449 -0.2520 -0.4340 -0.3580
53885SOL    HW168513   5.263   7.519   2.401 -0.3381 -1.6767  1.4027
53885SOL    HW268514   5.345   7.544   2.525  0.9235  1.2221  0.0701
53886SOL     OW68515   5.809   6.817   0.451  0.1324  0.1495 -0.1808
53886SOL    HW168516   5.860   6.746   0.490 -0.5746 -0.1250  0.2628
53886SOL    HW268517   5.726   6.777   0.425 -0.5430  0.9357  0.6719
53887SOL     OW68518   2.501   0.402   6.408  0.6171 -0.2253 -0.0977
53887SOL    HW168519   2.466   0.428   6.322  0.3222 -0.3742 -0.0227
53887SOL    HW268520   2.548   0.480   6.438  1.4968 -0.4723 -0.7994
53888SOL     OW68521   3.854   5.295   3.515  0.1511  0.4603 -0.0799
53888SOL    HW168522   3.839   5.375   3.464  2.5229  0.2551 -1.2391
53888SOL    HW268523   3.826   5.224   3.457  1.4329  0.3046 -0.5397
53889SOL     OW68524   0.648   7.629   5.702 -0.8576  0.0087  0.3273
53889SOL    HW168525   0.681   7.553   5.655 -0.5497  0.1515  0.3057
53889SOL    HW268526   0.603   7.681   5.635  0.4670  0.7260 -0.0569
53890SOL     OW68527  11.876   5.375   0.298  0.8488 -0.1802 -0.0967
53890SOL    HW168528  11.867   5.280   0.298  0.9834 -0.2301  1.4161
53890SOL    HW268529  11.940   5.393   0.230 -0.4219 -1.0049 -1.5575
53891SOL     OW68530   4.293   7.087   4.386  0.1683  0.0022 -0.0569
53891SOL    HW168531   4.203   7.113   4.405 -0.0529  1.1205 -2.2813
53891SOL    HW268532   4.285   6.997   4.353 -0.1464  0.1274 -0.3267
53892SOL     OW68533   5.950   5.780   6.163 -0.2361 -0.3875  0.1888
53892SOL    HW168534   6.022   5.842   6.166 -0.9712  0.5348 -0.6207
53892SOL    HW268535   5.911   5.793   6.077 -2.6171  0.5832  1.3254
53893SOL     OW68536   4.842   0.744  12.392 -0.4569 -0.0497  0.2390
53893SOL    HW168537   4.754   0.778  12.373 -0.7189 -0.8247  0.0287
53893SOL    HW268538   4.833   0.649  12.385  0.4523 -0.1291 -0.0015
53894SOL     OW68539   1.178   5.103   6.108  0.5096 -0.0273 -0.0544
53894SOL    HW168540   1.095   5.078   6.150 -0.2788  1.4499 -0.6545
53894SOL    HW268541   1.207   5.180   6.156  0.3677  0.7899 -1.2416
53895SOL     OW68542  10.866   5.138  11.870  0.1658 -0.0281 -0.1577
53895SOL    HW168543  10.823   5.215  11.832  0.2732  0.3015  0.3803
53895SOL    HW268544  10.947   5.171  11.908  0.0514 -0.3385  0.3837
53896SOL     OW68545   1.781   7.952   6.345 -0.8149 -0.5787  0.2729
53896SOL    HW168546   1.794   7.921   6.435  0.3882 -1.0862 -0.0631
53896SOL    HW268547   1.786   8.047   6.352  0.6809 -0.6539  0.5609
53897SOL     OW68548  10.972  12.317   2.836 -0.1017 -0.1668  0.5700
53897SOL    HW168549  11.006  12.279   2.755 -0.9956  0.3242 -0.0602
53897SOL    HW268550  10.951  12.242   2.891 -0.6289 -0.5631 -0.1456
53898SOL     OW68551  10.551   6.813   2.123  0.4266 -0.2956 -0.2735
53898SOL    HW168552  10.637   6.780   2.096  1.5425  0.0033  2.6285
53898SOL    HW268553  10.551   6.806   2.218 -2.2621  1.0065 -0.0847
53899SOL     OW68554  12.479   3.050  10.183 -0.3278 -0.0582 -0.5267
53899SOL    HW168555  12.399   3.000  10.198 -0.5400 -0.5571 -2.9760
53899SOL    HW268556  12.549   2.990  10.206 -0.5896  0.2997  1.4027
53900SOL     OW68557   1.460   8.470   9.443 -0.5747  0.2816 -0.0410
53900SOL    HW168558   1.464   8.505   9.354 -1.1084  0.9912  0.2016
53900SOL    HW268559   1.386   8.409   9.442 -0.8209  0.5707 -0.0039
53901SOL     OW68560   5.292   3.301   2.105 -0.2025 -0.6500  0.2064
53901SOL    HW168561   5.198   3.298   2.122 -0.4551 -0.4431 -1.0554
53901SOL    HW268562   5.325   3.218   2.138 -0.8816 -0.8897  0.3072
53902SOL     OW68563   8.705   1.200   3.199  0.0823  0.1774  0.3514
53902SOL    HW168564   8.645   1.270   3.172 -1.4794 -0.5969  1.6406
53902SOL    HW268565   8.704   1.138   3.126  1.3979  1.3996 -0.7587
53903SOL     OW68566  10.974   9.455   2.034  0.0267 -0.2872 -0.1416
53903SOL    HW168567  10.935   9.439   2.120  1.3316 -0.5911  0.4312
53903SOL    HW268568  10.966   9.371   1.988  2.2172 -1.1627  0.9292
53904SOL     OW68569   9.831   8.608   0.844  0.0912  0.5846 -0.0399
53904SOL    HW168570   9.805   8.684   0.896  0.1770  0.1217  0.6974
53904SOL    HW268571   9.822   8.534   0.904  1.2720  0.1738 -0.3432
53905SOL     OW68572   4.236   6.312   5.266 -0.0299 -0.3223 -0.0788
53905SOL    HW168573   4.263   6.253   5.336 -1.1524 -1.2644 -0.4093
53905SOL    HW268574   4.243   6.260   5.186 -0.0437  0.3150 -0.5009
53906SOL     OW68575   6.753   7.743  11.541 -0.0566  0.0517 -0.3484
53906SOL    HW168576   6.675   7.688  11.535  0.0170 -0.0269 -0.5763
53906SOL    HW268577   6.757   7.789  11.458  0.3163 -0.1813 -0.4622
53907SOL     OW68578   3.501   0.101   7.730  0.1975  0.3466  0.0484
53907SOL    HW168579   3.547   0.018   7.739  2.8623  1.8291  1.6609
53907SOL    HW268580   3.415   0.086   7.770  0.5742 -1.6256  0.2179
53908SOL     OW68581   8.924   8.656   5.870  0.5215  0.0083 -0.0892
53908SOL    HW168582   8.967   8.580   5.910 -0.9903 -0.1636  1.2945
53908SOL    HW268583   8.888   8.622   5.788  0.9896 -0.4266 -0.1204
53909SOL     OW68584   0.091   5.151  11.989 -0.0190  0.0379  0.3137
53909SOL    HW168585   0.042   5.233  11.990 -0.3547 -0.1513 -0.0438
53909SOL    HW268586   0.023   5.083  11.993  0.3019 -0.2277  1.8730
53910SOL     OW68587  10.237   7.462   8.319  0.3360 -0.0203  0.1837
53910SOL    HW168588  10.210   7.518   8.246  1.3064  0.1386 -0.0617
53910SOL    HW268589  10.317   7.419   8.289  2.7028  2.5379  2.2885
53911SOL     OW68590  10.071  12.332  10.954 -0.0995  0.7115  0.4546
53911SOL    HW168591  10.067  12.326  10.859  1.7542  0.0910  0.3920
53911SOL    HW268592   9.979  12.326  10.982 -0.6266  0.3999 -1.2432
53912SOL     OW68593   2.959   8.941   7.279  0.0228  0.4545 -0.0040
53912SOL    HW168594   2.975   9.005   7.348  0.3859  1.6284 -1.1214
53912SOL    HW268595   3.014   8.971   7.206 -0.0065 -0.9939 -0.6550
53913SOL     OW68596   1.092   4.064   3.017  0.1278  0.2186  0.1986
53913SOL    HW168597   1.107   4.134   2.954 -1.8824 -0.5378 -1.2272
53913SOL    HW268598   1.099   3.983   2.966 -1.3298 -0.4284  0.9520
53914SOL     OW68599  10.982   3.000   9.307  0.3817 -0.0148  0.3932
53914SOL    HW168600  10.976   2.941   9.232 -1.0517  0.6761 -0.0770
53914SOL    HW268601  10.924   2.962   9.373  0.5848  0.0997  0.6419
53915SOL     OW68602  10.930   5.029   0.436  0.6185 -0.5599  0.2074
53915SOL    HW168603  10.948   4.982   0.517  0.5730 -0.4810  0.2625
53915SOL    HW268604  10.838   5.011   0.417  0.3422  0.2617  0.7193
53916SOL     OW68605   8.856   0.957   2.302 -0.0191 -0.2735  0.2772
53916SOL    HW168606   8.842   0.864   2.319 -1.7988 -0.7409 -2.8539
53916SOL    HW268607   8.948   0.964   2.277  0.1829 -1.1498  0.7378
53917SOL     OW68608   0.242   4.389   0.616 -0.2550  0.5090 -0.5114
53917SOL    HW168609   0.171   4.418   0.673 -0.0611 -1.0921  0.6164
53917SOL    HW268610   0.304   4.346   0.675 -0.4527 -1.9861 -1.9937
53918SOL     OW68611  12.398   0.981   0.769  0.6414  0.9956 -0.3215
53918SOL    HW168612  12.349   1.051   0.726 -0.3508 -0.1848 -1.1670
53918SOL    HW268613  12.338   0.947   0.836  1.0719  0.8584  0.0051
53919SOL     OW68614   5.507   6.698   6.025  0.2132 -0.1017 -0.2369
53919SOL    HW168615   5.555   6.730   5.948  1.0957 -1.2019 -0.1685
53919SOL    HW268616   5.422   6.744   6.021  0.4962  0.3590 -1.4890
53920SOL     OW68617   8.353   2.634   0.971 -0.9734  0.0565 -0.2159
53920SOL    HW168618   8.448   2.633   0.955 -0.3965 -2.3108  2.5456
53920SOL    HW268619   8.315   2.611   0.886  0.9027  0.7834 -1.3228
53921SOL     OW68620   9.311  11.887  11.502  0.1218 -0.1379 -0.1080
53921SOL    HW168621   9.215  11.887  11.498  0.0346 -0.1906  1.4342
53921SOL    HW268622   9.331  11.860  11.591  1.5693  0.5634 -0.1932
53922SOL     OW68623   6.004   7.981  10.084  0.4876 -0.3805 -0.1342
53922SOL    HW168624   5.963   8.017  10.005 -0.2477  1.0516  0.8604
53922SOL    HW268625   6.052   8.055  10.121  3.1120 -1.7055 -0.6393
53923SOL     OW68626   9.582   1.449   4.963 -0.0902 -0.0851 -0.4798
53923SOL    HW168627   9.516   1.481   4.900  0.4702 -0.0684 -1.0704
53923SOL    HW268628   9.598   1.523   5.020 -1.8107 -0.5876  0.7451
53924SOL     OW68629   0.470  11.209   4.253 -0.5910  0.0905 -0.1688
53924SOL    HW168630   0.529  11.199   4.179 -0.2820  0.2431  0.0547
53924SOL    HW268631   0.396  11.258   4.218  0.1367  1.2946 -0.0706
53925SOL     OW68632   2.315   5.066   1.357  0.6179 -0.9415 -0.4240
53925SOL    HW168633   2.315   5.161   1.352 -0.5260 -0.7968  1.4612
53925SOL    HW268634   2.235   5.039   1.313  0.8062 -1.0150 -0.7217
53926SOL     OW68635   3.272  11.752   0.383  0.4678  0.7245 -0.2724
53926SOL    HW168636   3.224  11.828   0.349  1.3384  2.1096  1.4445
53926SOL    HW268637   3.318  11.785   0.460  0.5534 -1.6722  0.7852
53927SOL     OW68638   9.193   3.935  11.725  0.1481  0.2723  0.0998
53927SOL    HW168639   9.253   3.875  11.769  0.6258  0.7071  0.0512
53927SOL    HW268640   9.218   4.022  11.756 -0.2184  0.4891 -0.1970
53928SOL     OW68641   8.974   5.806   2.593  0.3559  0.5819  0.6360
53928SOL    HW168642   8.992   5.823   2.686 -1.6380 -0.1503  1.2160
53928SOL    HW268643   9.058   5.781   2.556  1.1974  0.8881  2.2559
53929SOL     OW68644   3.351   8.156  10.648 -0.8622  0.5950 -0.4050
53929SOL    HW168645   3.384   8.096  10.580 -0.7526  2.1805 -1.8062
53929SOL    HW268646   3.409   8.140  10.723 -0.1008 -0.2268 -1.1343
53930SOL     OW68647   8.774   4.079   3.988  0.5891 -0.0049  0.0458
53930SOL    HW168648   8.811   3.994   3.967  0.7983  0.1701 -0.2991
53930SOL    HW268649   8.827   4.110   4.062  0.3229 -0.2978  0.3658
53931SOL     OW68650   6.467   0.462   0.934 -0.2268  0.0683  0.0470
53931SOL    HW168651   6.416   0.482   0.855  0.6133  0.3313 -0.4340
53931SOL    HW268652   6.550   0.506   0.921  0.1393 -0.3771  0.8228
53932SOL     OW68653   6.643   2.148   0.391  0.0906  0.0727 -0.1905
53932SOL    HW168654   6.666   2.156   0.484  0.7778  1.4091 -0.4447
53932SOL    HW268655   6.656   2.055   0.372 -0.1023 -0.2358  1.0543
53933SOL     OW68656   8.989   3.404   3.677  0.0509  0.4654 -0.0121
53933SOL    HW168657   8.979   3.318   3.717  1.5519  0.2938  0.0565
53933SOL    HW268658   9.061   3.394   3.614  0.5658  1.7568  0.3196
53934SOL     OW68659   2.447   6.820   3.679  0.0772  0.0551  0.1310
53934SOL    HW168660   2.409   6.776   3.604  1.5126 -0.9533 -0.0428
53934SOL    HW268661   2.401   6.783   3.755  0.6402 -1.0889 -0.0752
53935SOL     OW68662   1.640   7.856   5.849  0.0849  0.2839  0.3854
53935SOL    HW168663   1.731   7.829   5.851  0.7615  1.1784 -4.5651
53935SOL    HW268664   1.643   7.949   5.827 -2.0031  0.3618  0.2019
53936SOL     OW68665   9.464   4.876   4.070  0.4375 -0.7560  0.4651
53936SOL    HW168666   9.428   4.907   3.987 -0.6087 -1.0785  0.7774
53936SOL    HW268667   9.451   4.781   4.068  0.5448 -0.7845  0.9277
53937SOL     OW68668  11.939   7.574   1.735 -0.7643  0.5262  0.1694
53937SOL    HW168669  11.961   7.569   1.642  2.8681 -0.4838  0.8918
53937SOL    HW268670  11.896   7.659   1.745 -1.0619  0.7471 -2.3872
53938SOL     OW68671   2.197   1.257   7.763 -0.1956 -0.0981 -0.4961
53938SOL    HW168672   2.215   1.213   7.846 -0.0734  1.4107  0.3173
53938SOL    HW268673   2.229   1.347   7.776 -2.2152  0.8117 -1.3513
53939SOL     OW68674   6.632   0.918   6.293 -0.3308  0.2377  0.4708
53939SOL    HW168675   6.717   0.875   6.285  0.1213  1.2100 -0.1364
53939SOL    HW268676   6.592   0.878   6.371  1.0542  0.3804  1.2789
53940SOL     OW68677   0.184   1.111   0.922  0.1308 -0.4235  0.0826
53940SOL    HW168678   0.151   1.188   0.875  0.6011 -1.2826 -1.7479
53940SOL    HW268679   0.134   1.038   0.886 -0.7823 -0.9392  2.2760
53941SOL     OW68680   3.588  12.381   6.309 -0.4132  0.1013 -0.3638
53941SOL    HW168681   3.573  12.364   6.216 -0.2400  1.3081 -0.6391
53941SOL    HW268682   3.678  12.414   6.313  0.0266 -1.1382  0.4169
53942SOL     OW68683   9.006   6.867   5.092  0.1558 -0.1462 -0.6799
53942SOL    HW168684   8.957   6.786   5.106  0.2607 -0.2297 -0.7907
53942SOL    HW268685   9.073   6.843   5.027  1.5856 -0.5646  0.8598
53943SOL     OW68686   1.561   9.419   4.525  0.7579 -0.0563 -0.0106
53943SOL    HW168687   1.627   9.459   4.581  1.8423 -1.7959  0.0161
53943SOL    HW268688   1.478   9.446   4.564  1.3492  2.7084 -0.4171
53944SOL     OW68689  12.091   6.923   6.201  0.0832 -0.2713 -0.4453
53944SOL    HW168690  12.134   6.950   6.282 -0.3795  0.1230 -0.3266
53944SOL    HW268691  12.140   6.846   6.173  0.0791 -0.5819  0.3618
53945SOL     OW68692   1.437   6.483   5.883 -0.2247 -0.4635 -0.4275
53945SOL    HW168693   1.509   6.422   5.867 -0.2992 -0.6896  0.0762
53945SOL    HW268694   1.358   6.430   5.870 -0.2926 -0.3759 -0.3724
53946SOL     OW68695  11.246   6.148  10.786  0.5016 -0.0264  0.5241
53946SOL    HW168696  11.186   6.077  10.763  0.4237  0.4451 -0.8798
53946SOL    HW268697  11.316   6.141  10.721 -0.0830  1.8371 -0.3724
53947SOL     OW68698   9.231   1.162   5.449 -0.4419 -0.1294 -0.3905
53947SOL    HW168699   9.165   1.224   5.480  0.4581 -0.1539  1.7697
53947SOL    HW268700   9.252   1.191   5.361  0.2030  2.9254  0.6389
53948SOL     OW68701   9.595   5.131   8.233  0.2548  0.1679 -0.0718
53948SOL    HW168702   9.591   5.187   8.155 -2.2592  0.1369 -0.0413
53948SOL    HW268703   9.566   5.045   8.202  2.2354 -0.6875  0.2945
53949SOL     OW68704  12.521  11.289   2.796  0.1119  0.5624 -0.4003
53949SOL    HW168705  12.456  11.230   2.758 -1.1116  1.5813  0.0551
53949SOL    HW268706  12.477  11.374   2.800  0.8534  0.9028  1.5601
53950SOL     OW68707   3.930  11.717   3.716  0.6698  0.4763 -0.2659
53950SOL    HW168708   3.923  11.639   3.661 -1.0284  0.8271 -0.5906
53950SOL    HW268709   3.917  11.790   3.656  1.8129  1.0123  0.1144
53951SOL     OW68710   2.961  11.469   3.923 -0.0236 -0.1490 -0.3261
53951SOL    HW168711   2.872  11.448   3.893 -0.6817 -1.5361  2.3066
53951SOL    HW268712   3.018  11.417   3.867 -0.8669  0.4755 -1.8162
53952SOL     OW68713   3.781  10.312   7.206 -0.8274  0.5492 -0.4063
53952SOL    HW168714   3.846  10.370   7.166 -2.0535  2.3293  0.0357
53952SOL    HW268715   3.739  10.269   7.132  1.3576 -1.2956 -0.6696
53953SOL     OW68716   9.987   9.152  11.091 -0.0895 -0.6509  0.5292
53953SOL    HW168717   9.924   9.207  11.138  0.1327 -0.3356  0.4644
53953SOL    HW268718   9.933   9.100  11.031 -0.4197 -1.3894  1.4482
53954SOL     OW68719   1.055  12.263  11.448 -0.9812 -0.5049 -0.1740
53954SOL    HW168720   1.035  12.170  11.434  1.8149 -1.2643  0.1808
53954SOL    HW268721   1.041  12.304  11.363  0.6678 -1.9312 -1.2200
53955SOL     OW68722   9.952   3.711   9.195  0.3201  0.3122 -0.0279
53955SOL    HW168723  10.044   3.688   9.195  0.1381 -0.4526  0.5103
53955SOL    HW268724   9.907   3.632   9.167 -0.2791  0.1594  1.2744
53956SOL     OW68725   6.707   0.670   0.847  0.6373  0.2965  0.0430
53956SOL    HW168726   6.703   0.621   0.765  1.5768  1.7079 -0.8855
53956SOL    HW268727   6.800   0.685   0.862  0.3664  2.6996 -0.2985
53957SOL     OW68728  12.360   1.828   4.550 -0.1015  0.1297 -0.5065
53957SOL    HW168729  12.337   1.752   4.496  3.6237 -2.0852  0.6232
53957SOL    HW268730  12.447   1.853   4.520  0.9216  0.5883  2.5065
53958SOL     OW68731   0.099   7.598   2.133 -0.3266 -0.2559  0.1381
53958SOL    HW168732   0.131   7.571   2.047  2.1554  1.6982  0.3495
53958SOL    HW268733   0.175   7.637   2.176 -2.5636  3.1932  1.3769
53959SOL     OW68734   5.169   0.092   1.120 -0.1250  0.1987 -0.5288
53959SOL    HW168735   5.218   0.053   1.048  0.9691  1.4223 -0.4910
53959SOL    HW268736   5.140   0.177   1.087  2.7364  2.0439  1.2143
53960SOL     OW68737   4.102   0.145   7.748  0.2677 -0.1469  0.4576
53960SOL    HW168738   4.054   0.092   7.683  1.3551  1.9989 -2.2827
53960SOL    HW268739   4.171   0.087   7.779  0.1128 -1.0659 -0.8009
53961SOL     OW68740  10.543   2.343   7.902 -0.0122 -0.0364 -0.1344
53961SOL    HW168741  10.591   2.378   7.978 -2.7467 -1.0917  2.2564
53961SOL    HW268742  10.476   2.408   7.884 -0.1234 -0.3553 -0.9012
53962SOL     OW68743   0.753   9.783   7.764 -0.4615 -0.8136  0.3215
53962SOL    HW168744   0.826   9.765   7.823 -0.1438  1.2245  0.6124
53962SOL    HW268745   0.790   9.775   7.676  0.0672 -0.0336  0.4669
53963SOL     OW68746   5.001   3.021   9.783 -0.0362  0.2033  0.4513
53963SOL    HW168747   5.059   2.963   9.732 -0.7512 -0.5260  0.4509
53963SOL    HW268748   4.924   2.967   9.802 -0.9331  1.3055  0.0445
53964SOL     OW68749  12.378  11.084   2.655  0.3172  0.6023 -0.4460
53964SOL    HW168750  12.431  11.005   2.661 -0.2045  0.3465  1.3051
53964SOL    HW268751  12.302  11.058   2.604 -0.6372 -0.5357  1.4496
53965SOL     OW68752   8.947   2.474   8.296 -0.0613 -0.4425  0.0334
53965SOL    HW168753   8.888   2.409   8.258 -0.8404  1.3273 -1.9995
53965SOL    HW268754   8.892   2.551   8.310  1.6072  1.1652 -1.6274
53966SOL     OW68755  10.688  10.987   9.246  0.0770  0.3040 -0.0216
53966SOL    HW168756  10.751  10.940   9.191  1.6508  2.1260  0.1275
53966SOL    HW268757  10.618  11.014   9.186 -1.7712 -3.4415  0.1349
53967SOL     OW68758   6.449   3.487   8.891  0.1935  0.1816 -0.0941
53967SOL    HW168759   6.487   3.559   8.941 -1.4839 -0.2204  1.9186
53967SOL    HW268760   6.507   3.413   8.909 -0.0882  0.1771  0.8526
53968SOL     OW68761   6.630   2.242   1.449 -0.1632 -0.0044 -0.0874
53968SOL    HW168762   6.633   2.269   1.541 -0.2769 -1.5573  0.4014
53968SOL    HW268763   6.551   2.285   1.414 -0.2472  0.4151  0.6038
53969SOL     OW68764   7.435   3.474   8.167 -0.0432  0.0294 -0.3439
53969SOL    HW168765   7.482   3.509   8.091 -1.3081 -0.0606 -1.1956
53969SOL    HW268766   7.380   3.546   8.197 -1.2987 -0.6496 -0.9764
53970SOL     OW68767   2.657   2.444   2.047 -0.1356 -0.5806 -0.0871
53970SOL    HW168768   2.629   2.464   2.136 -0.8521  1.9929 -0.7863
53970SOL    HW268769   2.577   2.450   1.994  0.4191 -1.1775 -1.0341
53971SOL     OW68770   4.555   4.531   7.874  0.1117  0.5255  0.3129
53971SOL    HW168771   4.490   4.601   7.880  0.5816  0.9590  0.3599
53971SOL    HW268772   4.528   4.468   7.941 -2.4266 -1.1533 -1.9981
53972SOL     OW68773   3.676   7.520   0.098  0.7223 -0.2498  0.2951
53972SOL    HW168774   3.635   7.601   0.128  0.3999  0.2341 -1.3499
53972SOL    HW268775   3.764   7.547   0.070  0.4349 -0.3596 -0.7327
53973SOL     OW68776  11.400   3.133   7.331  0.0404  0.0121  0.3635
53973SOL    HW168777  11.481   3.095   7.365 -0.7765 -1.4614  0.7461
53973SOL    HW268778  11.429   3.201   7.270  1.5481  0.5859  1.6419
53974SOL     OW68779   0.829  12.080   3.983  0.0608 -0.1324  0.0597
53974SOL    HW168780   0.876  12.003   4.014  1.2098  1.0592  1.4402
53974SOL    HW268781   0.737  12.061   4.002  0.4394 -0.7253  1.4223
53975SOL     OW68782  12.087   2.075   9.540 -0.3803 -0.0252 -0.1548
53975SOL    HW168783  12.179   2.058   9.561 -0.5481 -0.7321  0.0605
53975SOL    HW268784  12.080   2.056   9.447  0.0507  1.6873 -0.5584
53976SOL     OW68785   4.643   4.437   7.292  0.0274 -0.2996 -0.5351
53976SOL    HW168786   4.610   4.384   7.219  1.0808 -0.4073 -0.9541
53976SOL    HW268787   4.606   4.396   7.370 -1.3347 -0.0190 -1.0140
53977SOL     OW68788   3.327   3.906   4.716 -0.4872  0.5092  0.1556
53977SOL    HW168789   3.304   3.821   4.679 -0.1436  0.3492  0.2981
53977SOL    HW268790   3.275   3.912   4.796  0.0037  0.1172  0.5155
53978SOL     OW68791   9.094  10.646   9.516  0.6936 -0.2239  0.5526
53978SOL    HW168792   9.157  10.690   9.574  0.6917  0.5988 -0.0473
53978SOL    HW268793   9.020  10.706   9.512  0.0347 -1.0008  0.9252
53979SOL     OW68794   9.351   6.949   4.819  0.3772  0.0937  0.3253
53979SOL    HW168795   9.393   6.917   4.739  0.1984 -0.3374  0.4009
53979SOL    HW268796   9.274   6.893   4.829  0.0056  0.6134  0.4113
53980SOL     OW68797   3.140   5.143   7.563 -0.2811 -0.0099 -0.5905
53980SOL    HW168798   3.161   5.212   7.626 -0.2871 -1.1769  0.7590
53980SOL    HW268799   3.175   5.063   7.603 -2.8233 -1.2654 -0.6288
53981SOL     OW68800  12.318  12.469   4.507 -0.3372 -0.0316  0.7242
53981SOL    HW168801  12.325  12.382   4.547  0.6031  0.0204  0.7048
53981SOL    HW268802  12.344  12.455   4.416  2.2049  0.6410  1.2578
53982SOL     OW68803   9.115  11.491   2.454  0.3004 -1.2587 -0.5886
53982SOL    HW168804   9.136  11.584   2.443 -1.6677 -0.5573  1.0430
53982SOL    HW268805   9.178  11.446   2.398  2.2282  0.9615 -0.3700
53983SOL     OW68806   1.150   5.709   7.885 -0.2659 -0.2597  0.5212
53983SOL    HW168807   1.214   5.779   7.877  1.2774 -1.5011  1.4461
53983SOL    HW268808   1.067   5.754   7.900  0.6179  1.3660  0.7219
53984SOL     OW68809   2.993   1.944   9.055  0.1636  0.5896  0.3211
53984SOL    HW168810   2.956   1.941   9.143  1.1363 -0.4471  0.7239
53984SOL    HW268811   2.924   1.909   8.998  0.0344 -0.0998  0.8799
53985SOL     OW68812   8.844  11.903   5.331  0.0617 -0.6304 -0.0736
53985SOL    HW168813   8.876  11.866   5.413  0.8652  0.5245  0.1588
53985SOL    HW268814   8.790  11.977   5.358 -0.6713 -0.9707 -0.5638
53986SOL     OW68815   9.981   7.053   4.664  0.4615  0.1557  0.7184
53986SOL    HW168816   9.983   7.147   4.679  1.7329  0.0515  1.2639
53986SOL    HW268817   9.934   7.017   4.740  0.2533  0.3149  0.6652
53987SOL     OW68818   3.750   5.131  11.572  0.6953  0.1769 -0.5878
53987SOL    HW168819   3.701   5.212  11.584 -0.4023 -0.7927  2.3168
53987SOL    HW268820   3.689   5.072  11.530  0.4037 -0.0690  0.1631
53988SOL     OW68821   2.908   4.181   7.847 -0.1794  0.5576  0.6436
53988SOL    HW168822   2.985   4.125   7.853 -0.8661 -0.4186  0.5074
53988SOL    HW268823   2.940   4.268   7.872  1.1319  0.3372 -0.1762
53989SOL     OW68824   8.886   1.478  11.635 -0.3333 -0.1274 -0.3664
53989SOL    HW168825   8.932   1.439  11.561  1.0957  0.4568  0.1709
53989SOL    HW268826   8.868   1.568  11.608 -0.5362 -0.1520 -0.3126
53990SOL     OW68827   3.986   5.551   7.786 -0.2280 -0.1888 -0.0958
53990SOL    HW168828   3.922   5.619   7.808 -1.4070 -0.9381 -1.1057
53990SOL    HW268829   4.005   5.509   7.870  0.2187  1.0928  0.4786
53991SOL     OW68830   9.721   8.022  12.571  0.1400 -0.4318  0.1619
53991SOL    HW168831   9.770   8.089  12.524 -0.4597 -1.3109 -1.8184
53991SOL    HW268832   9.786   7.979  12.626  0.5057  1.8257  1.6296
53992SOL     OW68833  10.218  11.052   1.038 -0.1593  0.0375 -0.1889
53992SOL    HW168834  10.164  11.125   1.068 -1.7559 -1.0222 -0.3300
53992SOL    HW268835  10.252  11.080   0.953 -1.7062  0.2055 -0.7855
53993SOL     OW68836   7.989  11.860   9.209  0.3730  0.3293  0.0128
53993SOL    HW168837   8.075  11.830   9.237  2.2056  3.5991 -1.5469
53993SOL    HW268838   7.975  11.817   9.125  1.6777  1.5945 -0.8928
53994SOL     OW68839   3.518   9.768   9.430 -0.1248  0.3370  0.0924
53994SOL    HW168840   3.560   9.721   9.502 -0.2332 -1.4019 -0.9138
53994SOL    HW268841   3.538   9.716   9.352 -1.8608  0.9321 -0.8115
53995SOL     OW68842   7.529   7.442   0.708 -0.5594 -0.0453  0.0713
53995SOL    HW168843   7.610   7.493   0.714 -0.4613 -0.3621  4.9156
53995SOL    HW268844   7.472   7.494   0.651  1.3271  2.7770  0.5684
53996SOL     OW68845   1.187   4.743   1.753  0.1788 -0.1896  0.1660
53996SOL    HW168846   1.231   4.703   1.678 -2.2516 -2.7226 -0.0453
53996SOL    HW268847   1.143   4.820   1.718 -0.3715 -0.9672 -0.8864
53997SOL     OW68848   0.862  12.564  10.622 -0.4642 -0.1370  0.0697
53997SOL    HW168849   0.817  12.513  10.554  1.7073 -0.4038 -1.2771
53997SOL    HW268850   0.862  12.654  10.589  0.5934 -0.2659 -0.3126
53998SOL     OW68851   3.058   4.319   8.224 -0.2053 -0.4396 -0.2095
53998SOL    HW168852   3.151   4.334   8.208 -0.5501 -0.5238 -2.7452
53998SOL    HW268853   3.031   4.393   8.278  1.5153 -1.0306  1.5940
53999SOL     OW68854   7.894   3.840   0.310  0.3060 -0.0730 -0.1918
53999SOL    HW168855   7.921   3.836   0.219 -0.1553 -2.5515 -0.3037
53999SOL    HW268856   7.820   3.901   0.311  0.1009 -0.2781 -1.5291
54000SOL     OW68857   4.676   0.150  11.916 -0.0699  0.3538 -0.4661
54000SOL    HW168858   4.726   0.219  11.960  0.1268 -1.1233  1.7801
54000SOL    HW268859   4.733   0.123  11.843  1.6595 -0.0817  0.9777
54001SOL     OW68860   1.552  11.179   1.719 -0.1589 -0.2876 -0.4385
54001SOL    HW168861   1.573  11.188   1.626 -0.9283 -1.3822 -0.7433
54001SOL    HW268862   1.530  11.268   1.748  1.5871  0.3319 -0.8923
54002SOL     OW68863  10.466  10.551   1.747  0.5818 -0.0548 -0.3585
54002SOL    HW168864  10.427  10.463   1.744  0.9009 -0.1962 -0.3599
54002SOL    HW268865  10.485  10.572   1.656  3.1864 -1.1883 -0.1711
54003SOL     OW68866  11.728   9.078  10.195 -0.2405  0.3084 -0.0604
54003SOL    HW168867  11.659   9.019  10.226 -0.5158  1.1446  0.9676
54003SOL    HW268868  11.714   9.083  10.101 -0.4181 -0.9969 -0.1237
54004SOL     OW68869   0.274  10.999   2.654  0.0137 -0.4678 -0.1783
54004SOL    HW168870   0.340  10.957   2.598 -1.2146 -2.0440 -0.5281
54004SOL    HW268871   0.278  10.949   2.736 -0.1566 -0.0181  0.1046
54005SOL     OW68872   7.572   5.365   0.845  0.3811 -0.1972  0.6435
54005SOL    HW168873   7.526   5.449   0.834  0.0032 -0.6567 -2.0669
54005SOL    HW268874   7.626   5.377   0.922  0.4057  2.6016  0.2888
54006SOL     OW68875  11.351   2.180   8.011 -0.0267 -0.0589 -0.0162
54006SOL    HW168876  11.359   2.218   8.098 -0.9477 -0.0465  0.0749
54006SOL    HW268877  11.257   2.169   7.998  0.1062 -0.2068 -0.9495
54007SOL     OW68878   6.935   0.897   5.902 -0.1618 -0.0516 -0.4220
54007SOL    HW168879   7.028   0.917   5.889  0.1462 -1.0393  0.1163
54007SOL    HW268880   6.898   0.976   5.941 -0.0143  1.1138 -2.5188
54008SOL     OW68881   8.233  12.566   3.149  0.0979  0.2912 -0.1366
54008SOL    HW168882   8.235  12.630   3.220  0.5477  0.8160 -0.6165
54008SOL    HW268883   8.299  12.501   3.173  2.8213  2.2905 -1.7367
54009SOL     OW68884  10.532   2.881   6.811  0.1086 -0.0319 -0.1395
54009SOL    HW168885  10.555   2.818   6.879  1.9160  0.7316  0.0223
54009SOL    HW268886  10.451   2.921   6.841  0.1120 -0.7207  0.8375
54010SOL     OW68887   7.379   0.906   9.730  0.4600 -0.1378  0.0325
54010SOL    HW168888   7.356   0.922   9.822  3.2354  2.1114  0.4815
54010SOL    HW268889   7.392   0.811   9.725 -3.1386 -0.8232  0.9685
54011SOL     OW68890  10.298  10.430  11.405 -0.3941 -0.4068 -0.5634
54011SOL    HW168891  10.272  10.481  11.329 -1.1280 -1.8498 -1.3158
54011SOL    HW268892  10.365  10.370  11.373 -0.2490 -0.6025  0.0742
54012SOL     OW68893  11.227   8.200   5.023  0.1625 -0.4557 -0.0620
54012SOL    HW168894  11.184   8.285   5.015  0.8299  0.0034  0.9561
54012SOL    HW268895  11.313   8.214   4.984  0.4582 -0.5090  0.5592
54013SOL     OW68896   5.252   9.630   7.881  0.3683  0.5472 -0.0826
54013SOL    HW168897   5.342   9.606   7.857  0.0244 -0.1406 -0.7238
54013SOL    HW268898   5.249   9.725   7.870  1.4390  0.7905  1.4163
54014SOL     OW68899   6.559  10.221   9.773  0.2761  0.1102  0.2764
54014SOL    HW168900   6.542  10.315   9.781  0.0399  0.4090 -2.7505
54014SOL    HW268901   6.643  10.209   9.816  0.4805  1.7650  0.4235
54015SOL     OW68902   7.226   2.796   0.556  0.8919  0.2497  0.0108
54015SOL    HW168903   7.228   2.861   0.486  0.2446  1.2342  0.8939
54015SOL    HW268904   7.236   2.846   0.636  0.4159 -0.7404  0.7079
54016SOL     OW68905   3.382   4.648  10.017 -0.1676 -0.2915 -0.5819
54016SOL    HW168906   3.475   4.640   9.996 -0.2409  0.3583 -1.1904
54016SOL    HW268907   3.372   4.739  10.044 -0.8426 -0.0315 -1.6646
54017SOL     OW68908   6.637   7.918   6.889 -0.2708  0.1521 -0.1575
54017SOL    HW168909   6.630   7.981   6.960  0.8539  1.6557 -1.3192
54017SOL    HW268910   6.700   7.956   6.828  0.2764 -1.9895 -1.0417
54018SOL     OW68911   9.710   3.088  10.617 -0.6454  0.0798 -0.7477
54018SOL    HW168912   9.638   3.129  10.665  0.4237  0.5714  0.4867
54018SOL    HW268913   9.711   2.997  10.648 -0.2971  0.2580 -0.2198
54019SOL     OW68914   9.245   3.248   5.326  0.0505 -0.0354  0.6548
54019SOL    HW168915   9.315   3.202   5.280  0.1569 -1.2601  1.9676
54019SOL    HW268916   9.280   3.336   5.340  1.0871 -0.4432  0.7307
54020SOL     OW68917   4.616   5.104  11.452  0.0033  0.1394  0.2627
54020SOL    HW168918   4.627   5.101  11.357 -2.8085 -1.1132 -0.1201
54020SOL    HW268919   4.562   5.182  11.467  2.5295  1.8344  1.2031
54021SOL     OW68920   7.033   6.226   0.687 -0.0838  0.2474 -0.2931
54021SOL    HW168921   6.984   6.234   0.769  0.2828  0.3622 -0.0832
54021SOL    HW268922   6.992   6.289   0.628  1.0009  1.7286  0.4695
54022SOL     OW68923   2.018   6.861   2.813  0.4039 -0.3124 -0.5119
54022SOL    HW168924   2.112   6.868   2.828  0.5992 -0.0006 -1.7615
54022SOL    HW268925   1.991   6.948   2.786 -0.1829 -0.4868 -0.5059
54023SOL     OW68926  11.281   6.177   2.313 -0.2538 -0.4596 -0.1036
54023SOL    HW168927  11.256   6.089   2.286  2.5742 -1.5779  0.5479
54023SOL    HW268928  11.303   6.222   2.231 -0.9503 -0.5805 -0.3678
54024SOL     OW68929   0.165  12.366   2.884  0.3926  0.4821 -0.3678
54024SOL    HW168930   0.251  12.372   2.926  0.6890  1.1269 -1.0408
54024SOL    HW268931   0.110  12.320   2.948  1.8775 -2.3184 -0.9633
54025SOL     OW68932  10.811   7.841   2.185  0.7925 -0.2241  0.1190
54025SOL    HW168933  10.841   7.931   2.172  2.6864 -0.7092  0.7339
54025SOL    HW268934  10.746   7.847   2.255  1.8223  0.5536  1.0543
54026SOL     OW68935   1.940   7.039   9.151 -0.4938  0.7853  0.3058
54026SOL    HW168936   1.895   7.088   9.220 -0.1319  0.1476  1.0177
54026SOL    HW268937   1.951   7.101   9.080  0.8803  2.0493  1.5670
54027SOL     OW68938   7.137   5.592   3.701 -0.2304 -0.1900  0.1005
54027SOL    HW168939   7.224   5.568   3.733  0.3945  2.7546  0.8876
54027SOL    HW268940   7.087   5.611   3.780 -0.5862  1.1951 -0.4322
54028SOL     OW68941   8.787   6.332   0.562  0.5899  0.0245 -0.1739
54028SOL    HW168942   8.726   6.295   0.499  0.1132 -0.8588  0.7917
54028SOL    HW268943   8.857   6.369   0.508 -1.0029  1.5171 -1.3350
54029SOL     OW68944   8.366   9.597  12.433 -0.2705  0.3261  0.2229
54029SOL    HW168945   8.292   9.643  12.473 -0.3155  0.4204  0.0323
54029SOL    HW268946   8.364   9.624  12.341  0.3392  0.7666  0.3323
54030SOL     OW68947   5.383   1.699   1.857 -0.2666  0.2706  0.0320
54030SOL    HW168948   5.291   1.723   1.867 -0.0564  1.5420 -0.8520
54030SOL    HW268949   5.418   1.701   1.946 -0.9402  0.4682  0.3009
54031SOL     OW68950   6.371   2.880  12.227 -0.0434 -0.2906  0.5159
54031SOL    HW168951   6.422   2.887  12.308  1.2111 -2.3693 -0.0365
54031SOL    HW268952   6.337   2.790  12.228 -3.0908  0.7464  0.4636
54032SOL     OW68953   8.657   1.161   1.848 -0.1124  0.0190 -0.0070
54032SOL    HW168954   8.616   1.225   1.906  0.6079 -0.2223  0.7965
54032SOL    HW268955   8.688   1.092   1.907  0.1837 -0.4856 -0.7368
54033SOL     OW68956   3.724   9.659   3.779 -0.5853  0.1179 -0.5371
54033SOL    HW168957   3.765   9.627   3.699 -0.8461 -0.5091 -0.4275
54033SOL    HW268958   3.796   9.690   3.833 -0.3026 -0.5070 -0.5545
54034SOL     OW68959   5.293  10.026   3.129 -0.0767  0.1893 -0.6600
54034SOL    HW168960   5.383  10.016   3.161 -0.1241 -0.8098 -0.8119
54034SOL    HW268961   5.240  10.033   3.208 -0.0103 -0.5761 -0.5429
54035SOL     OW68962   7.830  11.426   7.245  0.2532  0.5931  0.3425
54035SOL    HW168963   7.818  11.383   7.160 -0.2606  1.4814 -0.0386
54035SOL    HW268964   7.897  11.492   7.230 -1.1868  2.0818  0.1069
54036SOL     OW68965   3.769   3.854  10.575  0.1852 -0.2668 -0.5928
54036SOL    HW168966   3.709   3.865  10.501 -0.5534  0.9381  0.1479
54036SOL    HW268967   3.845   3.907  10.552 -0.0943  0.2026 -0.4339
54037SOL     OW68968   4.242   6.547  10.770 -0.0286 -0.1434  0.6034
54037SOL    HW168969   4.274   6.637  10.766  0.0565 -0.1289  1.4149
54037SOL    HW268970   4.275   6.505  10.691 -0.9995  0.8371 -0.3555
54038SOL     OW68971  11.888  12.293   0.380 -0.6258 -0.6251  0.1717
54038SOL    HW168972  11.947  12.350   0.331  0.8957 -0.9831  1.4967
54038SOL    HW268973  11.917  12.205   0.358  0.2996 -0.7920  1.8712
54039SOL     OW68974   9.129  12.443   1.725  0.6783 -0.4825  0.6430
54039SOL    HW168975   9.143  12.536   1.706  1.0938 -0.3607  1.4918
54039SOL    HW268976   9.214  12.412   1.756  0.8282 -1.4103 -0.6117
54040SOL     OW68977   3.366   8.286   5.978  0.1827  0.2735 -0.0838
54040SOL    HW168978   3.411   8.340   5.914  2.7542 -2.1729 -0.5206
54040SOL    HW268979   3.295   8.244   5.929  0.3313  0.5913 -0.5726
54041SOL     OW68980   1.729   0.045   0.037 -0.4846 -0.2312  0.4840
54041SOL    HW168981   1.707   0.063   0.128 -2.3810 -0.2971  0.0796
54041SOL    HW268982   1.653   0.075  -0.013 -0.9289 -3.1303 -0.7938
54042SOL     OW68983   7.505   9.118   8.612 -0.7436  0.4429 -0.1946
54042SOL    HW168984   7.577   9.100   8.552 -1.0821  2.0710 -1.1545
54042SOL    HW268985   7.454   9.037   8.613  0.6749 -0.4874 -0.0544
54043SOL     OW68986   9.566   1.904   2.330  0.1020 -0.0416 -0.4836
54043SOL    HW168987   9.642   1.911   2.388 -0.4531  0.5819  0.1811
54043SOL    HW268988   9.503   1.965   2.366 -1.7238 -2.3528  0.5397
54044SOL     OW68989   7.135   3.881   5.875 -0.6459  0.0439 -1.3590
54044SOL    HW168990   7.164   3.972   5.870 -1.9895  0.5294 -0.9324
54044SOL    HW268991   7.152   3.856   5.966  1.6271 -0.8475 -1.9689
54045SOL     OW68992   6.232  10.960   8.005  0.1647  0.1767 -0.2457
54045SOL    HW168993   6.209  10.929   7.917  1.0717 -2.2292  0.3043
54045SOL    HW268994   6.152  11.002   8.037 -0.0118  1.6953 -2.4010
54046SOL     OW68995   9.848   8.798   2.975 -0.0901 -0.1868 -0.2549
54046SOL    HW168996   9.833   8.881   3.020  0.2981  0.1206 -0.6862
54046SOL    HW268997   9.926   8.813   2.922  0.0743 -0.8778 -0.2111
54047SOL     OW68998   4.569   1.806  10.968 -0.1606 -0.3932  0.4686
54047SOL    HW168999   4.539   1.715  10.969  2.1858 -1.2090  0.4958
54047SOL    HW269000   4.508   1.850  10.908 -2.8389 -1.3657  2.3008
54048SOL     OW69001   2.819  10.520   2.862 -0.1732  0.0530  0.1069
54048SOL    HW169002   2.741  10.540   2.809 -2.5503 -5.4620  0.8238
54048SOL    HW269003   2.878  10.475   2.802  0.2138 -0.2088  0.6802
54049SOL     OW69004   7.112   4.720   2.217 -0.9530 -0.3346 -0.5650
54049SOL    HW169005   7.131   4.696   2.308 -1.0163  0.0823 -0.4408
54049SOL    HW269006   7.187   4.773   2.190 -0.6984 -0.8671 -0.9177
54050SOL     OW69007   3.301   0.953   4.981  0.0607  0.1717  0.0421
54050SOL    HW169008   3.264   0.965   5.068  0.0540  0.8288 -0.0492
54050SOL    HW269009   3.237   0.992   4.922  0.5386  0.6399 -0.1751
54051SOL     OW69010   5.341   6.818   1.579 -0.3246  0.2670 -0.4797
54051SOL    HW169011   5.305   6.760   1.646  1.3708  0.9366  1.0985
54051SOL    HW269012   5.401   6.762   1.529 -2.0935 -0.4086 -1.9931
54052SOL     OW69013   1.254   5.938   2.400  0.3184 -0.2306 -0.0688
54052SOL    HW169014   1.167   5.944   2.440  0.3989 -0.0479  0.0829
54052SOL    HW269015   1.248   5.863   2.340  0.3801 -0.8860  0.7333
54053SOL     OW69016   3.371   0.571  10.857 -0.0353 -0.3464 -0.3362
54053SOL    HW169017   3.285   0.545  10.823 -1.3022  2.8144  0.0412
54053SOL    HW269018   3.357   0.577  10.952  0.8478 -0.5707 -0.1887
54054SOL     OW69019   2.221   8.179   1.374 -0.8268  0.1687 -0.4417
54054SOL    HW169020   2.236   8.094   1.415 -2.2343 -0.5301 -1.2879
54054SOL    HW269021   2.132   8.203   1.401 -0.4962  1.3059 -0.3264
54055SOL     OW69022  10.710   1.585   1.525 -0.3895 -0.0448 -0.1831
54055SOL    HW169023  10.761   1.504   1.534  3.5922  2.1966  0.0273
54055SOL    HW269024  10.712   1.624   1.612 -0.0308  1.3878 -0.8051
54056SOL     OW69025   4.239   8.993   2.819 -0.2147  0.1551  0.1285
54056SOL    HW169026   4.145   9.010   2.825 -0.3622 -0.1412 -1.1947
54056SOL    HW269027   4.278   9.080   2.813 -0.4530  0.2516 -0.0249
54057SOL     OW69028   5.785   9.085   6.349  0.0576 -0.3986 -0.0041
54057SOL    HW169029   5.811   9.168   6.389 -0.1387  0.4200 -1.5061
54057SOL    HW269030   5.840   9.019   6.392  1.0194  0.6579  0.4188
54058SOL     OW69031   0.966   2.902   0.552 -0.3890  0.3487  0.1793
54058SOL    HW169032   1.002   2.932   0.635  1.3488 -0.5922 -0.1821
54058SOL    HW269033   0.937   2.981   0.507  1.9405  1.2701  0.1983
54059SOL     OW69034   2.306   1.854   9.924 -0.3303 -0.5449  0.5397
54059SOL    HW169035   2.223   1.860   9.972  0.3177 -1.5840  1.8687
54059SOL    HW269036   2.372   1.843   9.993  0.6911 -1.6738 -0.5809
54060SOL     OW69037   1.159   8.783   8.020  0.5679 -0.0498  0.6673
54060SOL    HW169038   1.188   8.694   8.000 -0.5642  0.0631 -1.8568
54060SOL    HW269039   1.064   8.780   8.009  0.5401  1.5242  0.2350
54061SOL     OW69040  11.009   8.410   5.749 -0.1494  0.0724  0.0991
54061SOL    HW169041  10.997   8.436   5.841 -1.9818 -0.5786  0.0723
54061SOL    HW269042  11.042   8.489   5.707  4.5968 -0.5756  1.9599
54062SOL     OW69043   9.840   8.112   6.309 -0.0577  0.4446 -0.4398
54062SOL    HW169044   9.764   8.162   6.282 -0.7181 -0.5246 -0.4188
54062SOL    HW269045   9.890   8.172   6.365 -1.9765  0.4145  1.4557
54063SOL     OW69046   2.995   9.015   3.675 -0.3453 -0.2559  0.8466
54063SOL    HW169047   3.037   9.002   3.590  0.2406  1.0428  0.9072
54063SOL    HW269048   2.993   8.928   3.714  1.0537 -0.5879  0.2540
54064SOL     OW69049   3.991   7.221   6.619 -0.6479  0.0111  0.3467
54064SOL    HW169050   4.009   7.160   6.548  2.4195  1.4841 -0.3139
54064SOL    HW269051   3.897   7.235   6.615 -1.0397 -2.4353 -1.2856
54065SOL     OW69052   5.334   5.471   9.108  0.1431  0.1151 -0.1669
54065SOL    HW169053   5.323   5.413   9.032  0.8706 -0.2245 -0.0152
54065SOL    HW269054   5.420   5.512   9.096  0.5377 -0.4078  0.7874
54066SOL     OW69055  11.365   9.401   1.734 -0.2166  0.2309 -0.3551
54066SOL    HW169056  11.409   9.426   1.815 -0.4719 -0.0341 -0.1308
54066SOL    HW269057  11.277   9.376   1.762 -0.3670  0.3261 -0.7405
54067SOL     OW69058  10.032   3.807   3.635  0.3282  0.5573  0.0368
54067SOL    HW169059  10.083   3.811   3.554 -0.4787  0.0529 -0.5161
54067SOL    HW269060   9.941   3.798   3.606  0.2542 -3.1854  0.8942
54068SOL     OW69061   1.770   0.297  11.614  0.4091 -0.1848 -0.3558
54068SOL    HW169062   1.714   0.220  11.607 -0.0532  0.1574 -0.5110
54068SOL    HW269063   1.859   0.263  11.609  0.2471 -0.8217  0.6594
54069SOL     OW69064   1.786  11.508   1.163  0.0885 -0.1429  0.1064
54069SOL    HW169065   1.799  11.549   1.078 -1.6223  3.1734  1.2763
54069SOL    HW269066   1.705  11.458   1.153 -0.4193  0.6966 -0.1229
54070SOL     OW69067   7.617   6.199   8.067  0.0504 -0.2148  0.0208
54070SOL    HW169068   7.525   6.210   8.045  0.0873 -0.1428 -0.1045
54070SOL    HW269069   7.661   6.196   7.982  0.1123 -0.7090  0.0675
54071SOL     OW69070   9.542   9.291  10.250  0.1236 -0.1115  0.8212
54071SOL    HW169071   9.563   9.198  10.262  0.1121 -0.7826 -3.0642
54071SOL    HW269072   9.627   9.334  10.243  0.1320 -0.0833  1.0823
54072SOL     OW69073   8.351   7.305   6.560  0.1366 -0.5953  0.2453
54072SOL    HW169074   8.396   7.390   6.556  0.9034 -0.9988  0.3027
54072SOL    HW269075   8.419   7.242   6.580 -0.5646 -1.1281  1.0351
54073SOL     OW69076  11.992   7.759   1.982  0.1658  0.0401  0.0954
54073SOL    HW169077  11.935   7.777   1.907 -0.8206  0.3419  0.8983
54073SOL    HW269078  12.060   7.825   1.977  1.1765 -1.0583 -1.5710
54074SOL     OW69079   1.749   7.432   9.405 -0.1436 -0.0829 -0.2421
54074SOL    HW169080   1.813   7.362   9.415  0.0191  0.0039 -0.6532
54074SOL    HW269081   1.717   7.448   9.494  1.8335  1.2267  0.3051
54075SOL     OW69082   8.291  10.613   8.045 -0.2048  0.4418 -0.7136
54075SOL    HW169083   8.212  10.668   8.050  0.1193  0.9790 -1.3427
54075SOL    HW269084   8.298  10.573   8.132 -0.5692  1.2319 -0.3090
54076SOL     OW69085   9.736  10.510  12.558 -0.4728 -0.4221  0.4946
54076SOL    HW169086   9.734  10.561  12.638  0.4912 -1.2252  1.0560
54076SOL    HW269087   9.769  10.571  12.492 -2.7653  0.7052  0.3058
54077SOL     OW69088   0.150   8.558   0.781  0.6398 -0.1740  0.0850
54077SOL    HW169089   0.206   8.635   0.792  1.1722 -0.3496 -1.2649
54077SOL    HW269090   0.078   8.588   0.725  0.9371 -0.6827 -0.5853
54078SOL     OW69091   7.025   6.535   2.084  0.1865 -0.2249 -0.1787
54078SOL    HW169092   7.095   6.516   2.148 -0.7274 -1.1825  0.5614
54078SOL    HW269093   6.964   6.462   2.093 -0.6717  0.3573 -1.1640
54079SOL     OW69094  10.733  10.109   9.396  0.7687  0.1166 -0.3089
54079SOL    HW169095  10.735  10.165   9.318  0.3123  0.4350 -0.0993
54079SOL    HW269096  10.641  10.109   9.422  1.0739  0.8091  0.8030
54080SOL     OW69097   5.299   0.035   8.459 -0.1861 -0.3675 -0.1995
54080SOL    HW169098   5.338   0.115   8.423 -0.0828 -0.8911 -1.3185
54080SOL    HW269099   5.206   0.055   8.464 -0.0851  0.0370  0.1132
54081SOL     OW69100   2.034   5.114   6.580 -0.6172 -0.4882  0.2946
54081SOL    HW169101   1.991   5.148   6.502  1.0897 -1.2504 -1.0584
54081SOL    HW269102   2.045   5.021   6.563  1.4312 -0.3605  0.5804
54082SOL     OW69103   9.254  12.134   3.411  0.1899  0.8712  0.1595
54082SOL    HW169104   9.160  12.133   3.430  0.1234 -1.5676 -0.0467
54082SOL    HW269105   9.261  12.100   3.322  1.2746  1.0714  0.1547
54083SOL     OW69106   8.330   8.362  10.520 -0.1653  0.3077  0.4545
54083SOL    HW169107   8.317   8.387  10.611  1.2906 -0.3976  0.8896
54083SOL    HW269108   8.353   8.445  10.476  0.1603  0.4768  0.9402
54084SOL     OW69109   7.050  12.297   7.119  0.0895 -0.4314  0.4834
54084SOL    HW169110   7.077  12.301   7.210 -0.6402  0.0416  0.6843
54084SOL    HW269111   7.127  12.265   7.072  1.6063  2.4623  0.7966
54085SOL     OW69112   4.724  12.409   2.394  0.0551  0.4173 -0.2700
54085SOL    HW169113   4.683  12.467   2.330 -0.1926 -2.2559 -2.7701
54085SOL    HW269114   4.651  12.362   2.434  0.3403  0.3922  0.2301
54086SOL     OW69115   1.892   7.826   8.017  0.3458 -0.0472 -0.5335
54086SOL    HW169116   1.817   7.885   8.004  1.0098  0.6890 -1.0856
54086SOL    HW269117   1.953   7.850   7.948 -0.0098 -2.4555 -1.7899
54087SOL     OW69118  11.248  11.540   6.253 -0.4049  0.0424 -0.2433
54087SOL    HW169119  11.340  11.536   6.280 -0.2719 -1.5994 -0.8356
54087SOL    HW269120  11.207  11.601   6.315  0.6743 -0.7136  1.2638
54088SOL     OW69121   7.188   5.023   0.924 -0.4495 -0.6056  0.2152
54088SOL    HW169122   7.280   5.046   0.913 -0.8543  0.4469 -1.2906
54088SOL    HW269123   7.182   4.933   0.891  0.1783 -0.9637  1.0674
54089SOL     OW69124   5.856   3.578   3.547  0.1810 -0.1527  0.7283
54089SOL    HW169125   5.826   3.563   3.637 -0.9380 -0.2072  0.3601
54089SOL    HW269126   5.777   3.572   3.494  1.0104 -1.4562 -0.4309
54090SOL     OW69127   7.056   5.492   9.460  0.4491  0.3621 -0.0477
54090SOL    HW169128   7.150   5.481   9.445  0.5248 -0.3710  0.8371
54090SOL    HW269129   7.042   5.457   9.548 -0.5568  1.0311  0.0791
54091SOL     OW69130   6.279   7.937  11.604 -0.1526 -0.3657  0.3128
54091SOL    HW169131   6.317   8.024  11.596 -2.8747  0.8762 -0.3789
54091SOL    HW269132   6.319   7.887  11.533  2.2221 -0.0669  1.3577
54092SOL     OW69133   4.578   2.498  12.190 -0.1025  0.2985 -0.6754
54092SOL    HW169134   4.483   2.495  12.200 -0.2547  1.0390 -1.7170
54092SOL    HW269135   4.609   2.413  12.220 -0.8784  0.7637  1.6358
54093SOL     OW69136   6.502   6.790   8.692 -0.2045 -0.2250 -0.0393
54093SOL    HW169137   6.437   6.860   8.703 -1.1088 -1.2531  1.7159
54093SOL    HW269138   6.549   6.788   8.775  0.9392 -0.6156 -0.6841
54094SOL     OW69139   4.629   6.051   2.411  0.2183  0.1183 -0.0733
54094SOL    HW169140   4.583   6.128   2.445 -0.9053 -0.6626  0.2600
54094SOL    HW269141   4.559   5.987   2.394  1.2700 -1.6372  1.7225
54095SOL     OW69142   2.255   4.341   8.161  0.9014  0.3297 -0.0826
54095SOL    HW169143   2.327   4.347   8.225  0.8694 -0.4329  0.0408
54095SOL    HW269144   2.195   4.411   8.186  0.2337 -0.7451  1.5904
54096SOL     OW69145   0.948  10.368   4.100 -0.0617  0.0435 -0.2919
54096SOL    HW169146   1.030  10.340   4.058 -0.0762 -0.8274  0.2383
54096SOL    HW269147   0.954  10.333   4.189 -0.9167  0.1701 -0.1799
54097SOL     OW69148  11.073  11.533   9.726  0.2753  0.4327  0.0760
54097SOL    HW169149  11.104  11.605   9.671  1.9273  0.3594  0.8356
54097SOL    HW269150  10.994  11.567   9.767  1.1936  1.9745  0.6678
54098SOL     OW69151   4.271   7.418   0.632  0.5139  0.0151 -0.3193
54098SOL    HW169152   4.347   7.438   0.577  0.4249  1.7034  0.1291
54098SOL    HW269153   4.221   7.354   0.580  1.0012  0.7074 -1.6976
54099SOL     OW69154   7.763   9.778   3.252 -0.0724  0.4358 -0.5094
54099SOL    HW169155   7.670   9.772   3.276 -0.2486 -0.0467 -1.2812
54099SOL    HW269156   7.809   9.734   3.323 -0.4162  0.7799 -0.0623
54100SOL     OW69157   3.285   8.658  12.042 -0.2715  0.1552 -0.5397
54100SOL    HW169158   3.208   8.666  11.986 -3.0243 -1.0858  2.6962
54100SOL    HW269159   3.316   8.569  12.028 -1.4470 -0.4260  0.4010
54101SOL     OW69160  10.708   0.796  10.232  0.0749  0.2327  0.0267
54101SOL    HW169161  10.709   0.790  10.136  0.1461 -0.2529  0.0535
54101SOL    HW269162  10.740   0.711  10.261  0.3924  0.5002  0.4793
54102SOL     OW69163   4.832  11.673  11.347 -0.2857 -0.1049  0.0327
54102SOL    HW169164   4.739  11.676  11.366 -0.6962  0.7592 -1.8349
54102SOL    HW269165   4.856  11.581  11.353 -1.4405 -0.4294 -0.2316
54103SOL     OW69166   9.709   5.648   7.415 -0.2290  0.5910 -0.2934
54103SOL    HW169167   9.626   5.640   7.368  0.2932  0.1044 -1.1627
54103SOL    HW269168   9.686   5.640   7.508 -1.1813  0.7556 -0.5111
54104SOL     OW69169  12.249   5.440   5.661  0.1113 -0.9755 -0.5662
54104SOL    HW169170  12.338   5.456   5.692 -0.0938  1.2911 -1.0391
54104SOL    HW269171  12.209   5.386   5.730  1.0386  0.2034  0.9527
54105SOL     OW69172   8.321   8.006   8.570  0.3139  0.6882  0.4466
54105SOL    HW169173   8.301   8.027   8.661  0.3418 -0.5235  0.7477
54105SOL    HW269174   8.389   8.069   8.546 -0.1714  1.4634  1.0400
54106SOL     OW69175  12.409   9.116   0.845 -0.3458 -0.2189  0.2366
54106SOL    HW169176  12.455   9.062   0.909  0.7473  0.3097 -0.0673
54106SOL    HW269177  12.390   9.058   0.772 -1.3007 -0.7446  0.8825
54107SOL     OW69178   9.322   1.027   3.760  0.0096 -0.3302 -0.1040
54107SOL    HW169179   9.303   0.952   3.817 -1.0093  1.2612  1.7717
54107SOL    HW269180   9.393   1.073   3.804 -0.9243  1.0466  0.0191
54108SOL     OW69181  12.445   1.227   3.170 -0.2881 -0.4146 -0.7949
54108SOL    HW169182  12.468   1.209   3.079 -1.0168 -0.3871 -0.9897
54108SOL    HW269183  12.402   1.147   3.200 -1.2146  0.0376 -0.8742
54109SOL     OW69184   9.091   2.657  11.874 -0.2956 -0.0643 -0.0642
54109SOL    HW169185   9.059   2.721  11.809  0.1664  0.2871  0.0520
54109SOL    HW269186   9.109   2.579  11.823 -0.2430  0.1069 -0.3122
54110SOL     OW69187   3.272   0.670   1.603 -0.5607 -0.2631  0.4445
54110SOL    HW169188   3.229   0.606   1.546  0.7110 -0.8026  0.0777
54110SOL    HW269189   3.210   0.681   1.676 -0.4464 -2.5543  0.9499
54111SOL     OW69190   7.925   8.667   0.535 -0.2288 -0.4121  0.2054
54111SOL    HW169191   8.013   8.632   0.550 -0.3302 -0.2754  1.1584
54111SOL    HW269192   7.938   8.762   0.527 -0.3532 -0.3265  0.9474
54112SOL     OW69193   9.899   8.480   8.696 -0.1686 -0.1202  0.3249
54112SOL    HW169194   9.959   8.416   8.735 -1.6327 -1.0756  1.1395
54112SOL    HW269195   9.852   8.518   8.771 -0.4845  0.6931 -0.2693
54113SOL     OW69196   7.371   3.238   2.505  0.5325 -0.2174 -0.1630
54113SOL    HW169197   7.386   3.330   2.527  1.8026 -0.7577  1.4719
54113SOL    HW269198   7.403   3.190   2.581 -1.3585 -1.9851 -0.3991
54114SOL     OW69199   9.015   4.410   9.002 -0.6131  0.0916  0.3349
54114SOL    HW169200   9.013   4.489   9.056 -0.1358  0.3474 -0.0272
54114SOL    HW269201   9.063   4.346   9.055  0.9887  0.7281 -0.3019
54115SOL     OW69202   6.429   5.629   7.594 -0.0254 -0.3569  0.6328
54115SOL    HW169203   6.343   5.608   7.630  0.3713  0.6603  2.2426
54115SOL    HW269204   6.488   5.566   7.635  0.4188  0.7616  1.7534
54116SOL     OW69205   9.958   2.617   6.331  0.2147  0.1818 -0.3220
54116SOL    HW169206  10.023   2.687   6.325  0.1256  0.1570 -2.7027
54116SOL    HW269207   9.979   2.559   6.257  0.2643 -2.3126  1.5080
54117SOL     OW69208   6.229  10.791  12.041  0.3040  0.2084 -0.4937
54117SOL    HW169209   6.187  10.808  11.957 -1.9105 -1.4524  0.1682
54117SOL    HW269210   6.239  10.695  12.045  3.9830  0.4504 -0.4253
54118SOL     OW69211  11.821   9.660  11.246 -0.2404  0.7136  1.0725
54118SOL    HW169212  11.820   9.621  11.158  0.5788 -0.2187  1.4502
54118SOL    HW269213  11.730   9.682  11.263 -0.5742 -0.0492  0.3868
54119SOL     OW69214   9.217   6.048   7.531  0.3638 -0.7527  0.1669
54119SOL    HW169215   9.299   6.002   7.548  0.1381 -0.8099  1.1640
54119SOL    HW269216   9.240   6.114   7.466  2.2141  1.9397  3.2348
54120SOL     OW69217   7.166   8.939   1.695 -0.2340  0.0218  0.1888
54120SOL    HW169218   7.242   8.938   1.753  0.5368 -0.8003 -0.8130
54120SOL    HW269219   7.199   8.971   1.611 -0.7832 -1.1638 -0.5062
54121SOL     OW69220   3.552   9.971   4.705  0.1932 -0.2999 -0.3465
54121SOL    HW169221   3.636   9.978   4.751  0.3871  0.9874 -0.8709
54121SOL    HW269222   3.569  10.006   4.618 -0.3607 -2.0458 -1.2103
54122SOL     OW69223   3.931   9.414   9.937 -0.2117  0.1431 -0.2741
54122SOL    HW169224   3.987   9.369   9.874 -2.7614  0.2174 -2.7664
54122SOL    HW269225   3.966   9.503   9.942 -0.2532  0.2772 -2.0002
54123SOL     OW69226   2.244   9.282   2.150 -0.4970  0.0399  0.2750
54123SOL    HW169227   2.189   9.361   2.149 -0.2361  0.2233 -0.3434
54123SOL    HW269228   2.316   9.304   2.209 -0.0443  0.5434 -0.4469
54124SOL     OW69229   6.336   1.750   0.668 -0.4091  0.3532 -0.2632
54124SOL    HW169230   6.288   1.675   0.702 -1.1191  0.8023 -0.2385
54124SOL    HW269231   6.291   1.826   0.706 -0.0074  0.8051 -0.6740
54125SOL     OW69232  11.807   7.531   8.615  0.8093 -0.5463  0.1506
54125SOL    HW169233  11.828   7.501   8.526 -1.1990  1.0406 -0.9423
54125SOL    HW269234  11.871   7.600   8.633  0.0262  0.4860 -0.9002
54126SOL     OW69235   9.850   0.091   9.761 -0.5486 -0.0007  0.0993
54126SOL    HW169236   9.936   0.049   9.764 -0.6750 -0.4899 -1.7927
54126SOL    HW269237   9.869   0.185   9.765 -0.1391 -0.1338  2.3607
54127SOL     OW69238   4.814  11.554   5.481 -0.6362  0.3242 -0.4513
54127SOL    HW169239   4.904  11.557   5.516 -0.9801  1.8292  0.3860
54127SOL    HW269240   4.826  11.548   5.386  0.3593  0.7489 -0.3720
54128SOL     OW69241   5.115   7.538  12.559 -0.4616 -0.2668 -0.2134
54128SOL    HW169242   5.149   7.453  12.531 -1.2663 -1.3767  1.9764
54128SOL    HW269243   5.021   7.535  12.538 -0.9087 -0.7885  1.6985
54129SOL     OW69244   1.541   3.854   3.751  0.5616 -0.8076 -0.6211
54129SOL    HW169245   1.634   3.860   3.733  0.8627 -0.3786  0.9677
54129SOL    HW269246   1.499   3.903   3.680  1.4980 -1.2663 -1.5144
54130SOL     OW69247   1.755  12.550   4.641  0.2697  0.3546 -0.7369
54130SOL    HW169248   1.714  12.512   4.564  0.4647 -0.5194 -0.4295
54130SOL    HW269249   1.682  12.575   4.697  0.1037 -1.2824 -0.1499
54131SOL     OW69250   9.048   1.208  11.941 -0.5042 -0.1031  0.3286
54131SOL    HW169251   8.976   1.206  11.878  0.4681 -0.6308 -0.8138
54131SOL    HW269252   9.117   1.258  11.897 -0.1268  0.2803  1.3428
54132SOL     OW69253   8.583   3.598   2.538  0.4119 -0.2556 -0.0488
54132SOL    HW169254   8.673   3.604   2.569  0.6675 -2.3390 -0.1972
54132SOL    HW269255   8.534   3.563   2.613  0.4161 -2.2439 -0.9004
54133SOL     OW69256   5.902  11.474   6.965 -0.4916  0.4252  1.0197
54133SOL    HW169257   5.834  11.407   6.953 -0.1283  0.1669  0.3468
54133SOL    HW269258   5.983  11.431   6.939 -0.0064  0.6172  2.1837
54134SOL     OW69259   7.592   9.550  11.762  0.5788 -0.2351  0.1830
54134SOL    HW169260   7.537   9.628  11.762  0.5751 -0.1674 -2.1548
54134SOL    HW269261   7.532   9.479  11.785 -0.0524  0.1166 -0.3217
54135SOL     OW69262  10.976   9.510   1.739 -0.0767  0.0542 -0.2117
54135SOL    HW169263  11.036   9.487   1.810  1.1038  1.0109 -0.8566
54135SOL    HW269264  10.929   9.587   1.771  1.0745  1.0190 -0.7564
54136SOL     OW69265  10.478   4.501   1.112  0.4378 -0.2274 -0.0699
54136SOL    HW169266  10.485   4.408   1.092 -1.4578 -0.5328  0.4198
54136SOL    HW269267  10.557   4.521   1.162  1.2688 -1.3637 -0.8828
54137SOL     OW69268   3.986   9.134   3.139  0.3682 -0.4120  0.2675
54137SOL    HW169269   3.906   9.183   3.120  1.0053  0.8826  0.7671
54137SOL    HW269270   4.039   9.142   3.060  0.0567 -1.2182 -0.0407
54138SOL     OW69271   3.363   5.354   4.596 -0.3218 -0.3245  0.2374
54138SOL    HW169272   3.434   5.408   4.633 -0.5986 -0.1077  0.4571
54138SOL    HW269273   3.293   5.358   4.662 -2.0550  2.5933 -1.5530
54139SOL     OW69274   7.103   6.343  11.404 -0.3775  0.2812 -0.0526
54139SOL    HW169275   7.159   6.286  11.352  1.2044  1.6646  0.0722
54139SOL    HW269276   7.033   6.285  11.436 -0.1639 -1.0471 -1.8748
54140SOL     OW69277  10.573   3.697   1.712  0.0315 -0.3431  0.3305
54140SOL    HW169278  10.566   3.748   1.792  0.4678  1.7029 -0.8626
54140SOL    HW269279  10.482   3.684   1.684 -0.1268 -1.2335  1.2392
54141SOL     OW69280   0.575   3.120   3.209 -0.3499 -0.2326  0.4400
54141SOL    HW169281   0.545   3.134   3.299 -0.9524  1.6389 -0.0138
54141SOL    HW269282   0.599   3.207   3.177  0.3899 -0.9358 -1.0438
54142SOL     OW69283   5.461   3.811   8.167 -0.1536 -0.6183  0.2151
54142SOL    HW169284   5.443   3.737   8.225 -3.6920 -1.7057 -1.9985
54142SOL    HW269285   5.508   3.773   8.093 -1.4521 -0.6124 -0.6461
54143SOL     OW69286   6.786   1.178   3.524 -0.2971  0.1685  0.4855
54143SOL    HW169287   6.873   1.219   3.528 -0.2137  0.1235 -0.5407
54143SOL    HW269288   6.769   1.168   3.430 -1.2016 -0.2795  0.6889
54144SOL     OW69289   4.918   0.227   0.504  0.0740  0.4067 -0.5049
54144SOL    HW169290   4.946   0.217   0.595 -0.5844  1.7090 -0.1272
54144SOL    HW269291   4.933   0.141   0.464  2.0697  0.3026  0.3475
54145SOL     OW69292   1.270   7.363   3.603 -0.1097 -0.3937  0.5890
54145SOL    HW169293   1.216   7.394   3.530 -0.7650 -0.4853  1.0258
54145SOL    HW269294   1.212   7.304   3.652  0.7208 -1.3432  0.4739
54146SOL     OW69295   7.263   8.674   8.837  0.0593  0.1173 -0.0674
54146SOL    HW169296   7.304   8.615   8.774 -0.6550 -0.8124  0.3186
54146SOL    HW269297   7.268   8.628   8.921  0.7719  1.2302  0.5292
54147SOL     OW69298   0.193   9.302   1.092 -0.5000 -0.3197  0.2883
54147SOL    HW169299   0.267   9.278   1.036 -1.0738  0.8291 -1.0086
54147SOL    HW269300   0.169   9.221   1.136  1.5407 -0.7173  0.7700
54148SOL     OW69301   8.722   0.091  12.275  0.6571 -0.4369 -0.0191
54148SOL    HW169302   8.804   0.107  12.322  0.6541  0.1384 -0.2017
54148SOL    HW269303   8.658   0.147  12.318  0.7790  0.5264 -1.0386
54149SOL     OW69304   2.150   0.709   7.123 -0.2268  0.0422  0.4976
54149SOL    HW169305   2.202   0.779   7.083 -0.2405 -0.9335 -1.3204
54149SOL    HW269306   2.061   0.745   7.124  0.1452  0.9961  1.9059
54150SOL     OW69307   3.249   2.473   8.555 -0.2285  0.3932 -0.4333
54150SOL    HW169308   3.199   2.424   8.621  1.2888  1.1963  1.4096
54150SOL    HW269309   3.183   2.505   8.494 -1.6439 -0.8797  0.3602
54151SOL     OW69310   9.788   6.660  10.714 -0.4924 -0.4389 -0.2461
54151SOL    HW169311   9.821   6.746  10.742  0.1840 -0.8314  0.1876
54151SOL    HW269312   9.743   6.625  10.790  0.4616 -1.0697  0.0486
54152SOL     OW69313  12.447   5.011  12.437  0.4744  0.4297  0.0691
54152SOL    HW169314  12.505   4.969  12.500 -1.6322 -2.2108  0.4564
54152SOL    HW269315  12.388   5.064  12.491  0.8253  0.9397 -0.0449
54153SOL     OW69316   5.089  12.247   0.604  0.1856  0.1534  0.3918
54153SOL    HW169317   5.137  12.183   0.551 -0.7399  0.5467 -0.9590
54153SOL    HW269318   4.997  12.230   0.585 -0.1298  0.9355  1.1516
54154SOL     OW69319   2.006   3.751  10.504  0.1902  0.7614  0.1944
54154SOL    HW169320   2.077   3.793  10.454 -1.4137  1.6731 -1.4226
54154SOL    HW269321   2.005   3.661  10.473  0.6425  0.7494  0.2102
54155SOL     OW69322  12.456  10.767   2.060 -0.1074 -0.5256  0.2454
54155SOL    HW169323  12.479  10.739   2.148 -1.5235  1.2102  1.2468
54155SOL    HW269324  12.524  10.830   2.036 -1.3852  1.4379  1.4886
54156SOL     OW69325  10.212  11.559  10.773 -0.1923 -0.1087  0.1501
54156SOL    HW169326  10.252  11.580  10.688  0.3028 -3.4082 -0.5797
54156SOL    HW269327  10.284  11.563  10.835 -0.1331  0.4083  0.0491
54157SOL     OW69328   3.696   5.810   9.357 -0.4861  0.1704 -0.3112
54157SOL    HW169329   3.736   5.810   9.270  0.4760 -2.3307  0.0548
54157SOL    HW269330   3.635   5.736   9.355  0.9704 -1.1781  1.6917
54158SOL     OW69331   5.146   6.269   4.781  0.2502  0.0638 -0.1841
54158SOL    HW169332   5.202   6.311   4.846  0.7426  0.4742 -0.8611
54158SOL    HW269333   5.062   6.258   4.826  0.5425  0.4566  0.4812
54159SOL     OW69334   4.866   4.110   1.981  0.0766 -0.1929  0.3450
54159SOL    HW169335   4.840   4.078   2.067 -1.8584 -1.0154 -0.4866
54159SOL    HW269336   4.945   4.060   1.960 -0.0399 -0.7528  1.1917
54160SOL     OW69337   3.330   3.398   2.695 -0.1534  0.2485  0.1878
54160SOL    HW169338   3.377   3.481   2.705  0.8794 -0.2772 -0.1106
54160SOL    HW269339   3.371   3.357   2.619  1.1625 -1.6831  1.8437
54161SOL     OW69340   8.566   5.447   5.084  0.1367 -0.4852  0.0558
54161SOL    HW169341   8.587   5.372   5.029  0.8634 -1.2802  1.3700
54161SOL    HW269342   8.639   5.452   5.146 -0.0427  1.1445  0.1663
54162SOL     OW69343   6.218   9.074   9.130  0.1058  0.4702  0.4107
54162SOL    HW169344   6.283   9.012   9.164  0.7611  1.2865  0.6852
54162SOL    HW269345   6.143   9.064   9.189  0.0166 -0.3971  0.1638
54163SOL     OW69346   8.846   6.508  11.320 -0.4428  0.1279  0.0212
54163SOL    HW169347   8.913   6.534  11.383  1.6730 -2.2245 -1.0666
54163SOL    HW269348   8.893   6.500  11.237 -2.7228  1.1198 -1.4635
54164SOL     OW69349   8.307  11.092  10.043 -0.8041  1.2147  0.0036
54164SOL    HW169350   8.310  11.150   9.967  1.0469  1.7815  0.4561
54164SOL    HW269351   8.380  11.031  10.030 -1.4551  0.2916  0.5513
54165SOL     OW69352   7.357   6.862  11.610  0.2579 -0.1305 -0.2696
54165SOL    HW169353   7.347   6.935  11.672  2.1302  0.3234 -0.4377
54165SOL    HW269354   7.302   6.885  11.536  0.3367  0.8235 -0.0434
54166SOL     OW69355  12.554   3.480   0.918  0.3685 -0.2646  0.1306
54166SOL    HW169356  12.638   3.435   0.923  0.7125  0.5093  2.2328
54166SOL    HW269357  12.521   3.480   1.008 -1.6987 -0.1529 -0.5628
54167SOL     OW69358  11.449   7.651   6.299 -0.1580 -0.4041 -0.1237
54167SOL    HW169359  11.541   7.630   6.290  0.7261  1.3666  3.0585
54167SOL    HW269360  11.408   7.569   6.327  1.1480 -0.4670  1.7601
54168SOL     OW69361   9.002   4.614   5.268  0.1203  0.2334  0.1289
54168SOL    HW169362   8.955   4.533   5.248 -0.1666  0.5834 -0.6548
54168SOL    HW269363   8.982   4.632   5.359  1.0518 -1.1458  0.6383
54169SOL     OW69364   4.201   9.681   4.579  0.6419 -0.0625 -0.0127
54169SOL    HW169365   4.144   9.655   4.651 -0.4806  0.2462 -0.7625
54169SOL    HW269366   4.248   9.601   4.555  0.5685 -0.3089  0.6413
54170SOL     OW69367   3.939   7.376   7.948 -0.4001 -0.5534  0.2062
54170SOL    HW169368   3.853   7.342   7.973  0.6903 -2.6061  1.4507
54170SOL    HW269369   3.960   7.440   8.017 -1.5277  1.1440 -0.9502
54171SOL     OW69370  11.781   0.822   0.273 -0.0665  0.0230 -0.0508
54171SOL    HW169371  11.744   0.891   0.327  1.2136  0.5784  0.1585
54171SOL    HW269372  11.739   0.833   0.187 -1.9006 -0.6925  0.7136
54172SOL     OW69373   9.180   1.006   6.433  0.1844  0.1415  0.2301
54172SOL    HW169374   9.125   1.016   6.356  0.1001 -0.5082  0.2032
54172SOL    HW269375   9.169   0.915   6.460  1.3728 -0.0490  0.1247
54173SOL     OW69376   2.459   0.759   0.295 -0.6645 -0.2519 -0.2696
54173SOL    HW169377   2.472   0.723   0.383 -0.6581 -0.4877 -0.3677
54173SOL    HW269378   2.541   0.804   0.275 -0.8933  0.3354  0.0985
54174SOL     OW69379   9.429  10.577   2.880 -0.1884  0.1393 -0.6977
54174SOL    HW169380   9.389  10.492   2.896  0.4101 -0.0721 -0.3004
54174SOL    HW269381   9.390  10.635   2.945  1.2793 -0.4236  0.7597
54175SOL     OW69382   6.029  10.485  11.793  0.0564 -0.1769  0.5315
54175SOL    HW169383   6.090  10.421  11.828  1.0232 -0.1955 -1.0805
54175SOL    HW269384   6.084  10.549  11.748 -1.0740 -0.2135 -1.0218
54176SOL     OW69385   6.006   7.062   3.570  0.0000 -0.1206 -0.2026
54176SOL    HW169386   6.080   7.005   3.590  0.2033 -0.1520 -1.0130
54176SOL    HW269387   6.024   7.143   3.618 -0.3493 -0.7528  1.0569
54177SOL     OW69388   5.271   5.635  12.557 -0.0217 -0.2949 -0.3283
54177SOL    HW169389   5.260   5.558  12.501 -1.4722  0.2719 -0.8724
54177SOL    HW269390   5.300   5.704  12.497  0.0377 -0.1015 -0.0768
54178SOL     OW69391   1.972   4.413   3.313  0.0147  0.2719  0.1607
54178SOL    HW169392   2.030   4.337   3.321  0.6836  0.5102 -1.8586
54178SOL    HW269393   2.032   4.488   3.305 -0.3966  0.4161 -3.0676
54179SOL     OW69394   2.813   4.471   8.822  0.0922  0.2697  0.2618
54179SOL    HW169395   2.773   4.466   8.736  1.8956  0.0254 -0.6204
54179SOL    HW269396   2.859   4.555   8.823 -1.7598  1.3551  1.9074
54180SOL     OW69397   5.806  10.011   7.269 -0.0134  0.2806 -0.0881
54180SOL    HW169398   5.832  10.103   7.280  1.2523  0.1057 -1.2858
54180SOL    HW269399   5.736   9.998   7.333  0.5530  1.7692  0.9062
54181SOL     OW69400   5.171   8.626   6.256  0.1312 -0.3036  0.1529
54181SOL    HW169401   5.176   8.559   6.324  2.2333 -2.6240 -2.0454
54181SOL    HW269402   5.082   8.619   6.222  0.0195 -1.3306  0.6256
54182SOL     OW69403  11.738  10.406   2.788  0.1306 -0.1895 -0.6869
54182SOL    HW169404  11.665  10.364   2.832  0.8108  0.1832  0.8461
54182SOL    HW269405  11.716  10.500   2.789  1.2173  0.0970  1.0471
54183SOL     OW69406   6.222   2.089   2.645 -0.1383 -0.0419 -0.4128
54183SOL    HW169407   6.298   2.139   2.673 -0.9441  0.3768  1.1419
54183SOL    HW269408   6.175   2.148   2.586  0.1363  0.1355 -0.4563
54184SOL     OW69409  11.369   9.878   4.285  0.2741  0.0803 -0.1427
54184SOL    HW169410  11.294   9.860   4.341  0.4995 -0.6399 -0.0662
54184SOL    HW269411  11.338   9.860   4.196  0.4795 -0.6430 -0.0722
54185SOL     OW69412   2.297   3.723  10.431  0.7906 -0.3154  0.1052
54185SOL    HW169413   2.391   3.727  10.451  1.4392  0.2370 -2.5457
54185SOL    HW269414   2.274   3.814  10.410 -0.9832 -0.0097  2.9404
54186SOL     OW69415   5.794   2.618   2.202  0.5730  0.1728  0.2522
54186SOL    HW169416   5.839   2.538   2.229 -0.6779 -0.9686 -0.9018
54186SOL    HW269417   5.864   2.683   2.195  2.0477 -1.4469 -1.1537
54187SOL     OW69418   4.213   2.377  11.586  0.1811  0.0863  0.7612
54187SOL    HW169419   4.300   2.407  11.614  0.1553 -0.4014  1.3908
54187SOL    HW269420   4.179   2.329  11.662 -1.3360  1.7065  1.1765
54188SOL     OW69421   6.854   4.045   2.249 -0.3677 -0.0301 -0.0436
54188SOL    HW169422   6.928   4.090   2.290 -0.3592 -1.3371  1.4518
54188SOL    HW269423   6.888   3.959   2.224 -1.2477 -0.4691  0.2377
54189SOL     OW69424   5.352   6.617   0.324  0.2769  0.2427  0.4417
54189SOL    HW169425   5.282   6.558   0.351 -0.0773  0.6889  0.5179
54189SOL    HW269426   5.311   6.674   0.259  0.8829 -0.2453 -0.3918
54190SOL     OW69427  10.971   4.330   3.750 -0.1037 -0.1489  0.0810
54190SOL    HW169428  11.035   4.265   3.721 -1.0488 -0.3341 -1.7228
54190SOL    HW269429  11.024   4.399   3.790  1.3544  0.1828 -2.2590
54191SOL     OW69430   2.542   0.431  10.489 -0.1359  0.9621  0.0211
54191SOL    HW169431   2.627   0.449  10.449 -0.5671  0.3545 -1.2345
54191SOL    HW269432   2.559   0.359  10.550  0.5066  1.8011  0.8453
54192SOL     OW69433   0.194  11.391  11.484 -0.1435  0.4981  0.4651
54192SOL    HW169434   0.264  11.386  11.550 -0.4011  0.9282  0.7797
54192SOL    HW269435   0.239  11.419  11.405  0.6475 -2.5751 -0.3182
54193SOL     OW69436   3.792   4.027   5.825 -0.0140 -0.1959  0.5020
54193SOL    HW169437   3.754   3.939   5.827  2.6267 -1.5651 -2.1514
54193SOL    HW269438   3.878   4.016   5.866  0.0408  1.3598  0.8380
54194SOL     OW69439   6.688   5.284   0.308  0.4573 -0.0886  0.2691
54194SOL    HW169440   6.717   5.282   0.399  3.2813 -1.7196 -0.5279
54194SOL    HW269441   6.679   5.192   0.284  0.9437  0.2636 -1.3843
54195SOL     OW69442   5.611   5.122   4.848 -0.3391  0.3450  0.0781
54195SOL    HW169443   5.678   5.121   4.916 -0.8512  0.5149  0.5843
54195SOL    HW269444   5.660   5.103   4.767  0.1156 -0.8358  0.6054
54196SOL     OW69445   2.140  10.687   8.151  0.6401  0.0857 -0.2506
54196SOL    HW169446   2.111  10.685   8.242  0.0285  0.9383 -0.4183
54196SOL    HW269447   2.211  10.623   8.147  0.4516 -0.1966  0.7468
54197SOL     OW69448  11.468   5.079   3.253 -0.0163  0.3450  0.2113
54197SOL    HW169449  11.477   5.107   3.344 -1.1416  0.6989  0.2299
54197SOL    HW269450  11.392   5.127   3.220 -2.2487 -2.8007  0.3074
54198SOL     OW69451   2.452   6.461   2.059  0.2510  1.0064 -0.2842
54198SOL    HW169452   2.479   6.393   1.997 -1.6867 -1.0810  1.0007
54198SOL    HW269453   2.436   6.413   2.141 -0.6220  3.1361  0.8536
54199SOL     OW69454  11.823   1.014   1.030  0.3731 -0.5676 -0.1861
54199SOL    HW169455  11.917   1.019   1.046  0.8209  2.1185 -2.7321
54199SOL    HW269456  11.813   0.945   0.964  0.4008 -1.4814  0.7463
54200SOL     OW69457  11.172   4.210  11.156 -0.3990  0.4361 -0.1688
54200SOL    HW169458  11.156   4.277  11.090  0.7258  0.0908 -0.8201
54200SOL    HW269459  11.103   4.145  11.142 -0.9511  1.0028 -0.1257
54201SOL     OW69460   9.959   3.691   9.463  0.2874  0.1224  0.7506
54201SOL    HW169461   9.937   3.775   9.504 -1.1192 -0.6294  1.6086
54201SOL    HW269462   9.948   3.707   9.369  2.4862  1.5556  0.6444
54202SOL     OW69463   2.952   0.355   9.649  1.0005 -0.6187  0.6653
54202SOL    HW169464   2.882   0.331   9.589  0.8886  0.5591  0.3004
54202SOL    HW269465   2.921   0.327   9.735  0.8942 -1.7607  0.2669
54203SOL     OW69466   2.724   6.362   1.859 -0.1038  0.2334  0.3857
54203SOL    HW169467   2.709   6.382   1.766 -0.1324  0.5740  0.4636
54203SOL    HW269468   2.643   6.318   1.887  0.4808 -1.2284 -0.1309
54204SOL     OW69469  11.822   8.129   1.485  0.4656 -0.4343  0.1744
54204SOL    HW169470  11.874   8.054   1.515  1.6216  0.2377 -0.0678
54204SOL    HW269471  11.752   8.091   1.433  1.0495 -1.3483  0.0352
54205SOL     OW69472   5.944  10.949   0.562  0.6904 -0.7483 -0.1730
54205SOL    HW169473   5.929  10.943   0.467 -1.6931 -0.4336  0.1038
54205SOL    HW269474   5.863  10.988   0.596  2.3573  1.2783  1.7722
54206SOL     OW69475   6.334  11.944   6.246  0.1151  0.1139 -0.3640
54206SOL    HW169476   6.287  11.916   6.324 -0.0387  0.7031 -0.2415
54206SOL    HW269477   6.273  11.926   6.174 -1.8010  4.0140  0.0638
54207SOL     OW69478   3.762   4.305   7.571 -0.6180  0.5014  0.8680
54207SOL    HW169479   3.747   4.313   7.665 -0.5101 -0.3569  0.9600
54207SOL    HW269480   3.803   4.388   7.546  0.2980  0.3275  1.7588
54208SOL     OW69481   2.984  10.033   5.774  0.2929 -0.1448  0.3021
54208SOL    HW169482   2.934   9.960   5.810  1.3826 -0.6348  0.8890
54208SOL    HW269483   3.002  10.089   5.850  1.2565 -0.3677  0.2513
54209SOL     OW69484   0.618   3.146   8.780  0.1895 -0.4525  0.4941
54209SOL    HW169485   0.623   3.131   8.686  0.5319 -1.7705  0.7051
54209SOL    HW269486   0.657   3.233   8.792 -2.5183  1.1134 -0.8676
54210SOL     OW69487   3.400   8.317   9.490  0.1994  0.3764 -0.4019
54210SOL    HW169488   3.396   8.396   9.543 -2.1621  0.4713 -0.5927
54210SOL    HW269489   3.332   8.260   9.526 -0.6615 -0.0497 -2.5149
54211SOL     OW69490   6.327  10.906   9.897 -0.7474 -0.5466  0.0533
54211SOL    HW169491   6.390  10.963   9.943 -0.9203 -0.8949  0.7300
54211SOL    HW269492   6.303  10.840   9.961 -2.6506  0.1966  0.1785
54212SOL     OW69493   2.297   8.830   1.762 -0.3653 -0.3810 -0.3713
54212SOL    HW169494   2.341   8.862   1.683  1.3357 -1.6003  0.0335
54212SOL    HW269495   2.335   8.882   1.833  0.2106 -1.2312 -0.0492
54213SOL     OW69496   0.268   5.183   8.432 -0.4779  0.0159 -0.0447
54213SOL    HW169497   0.174   5.196   8.424 -0.3088  1.0324 -0.5895
54213SOL    HW269498   0.293   5.233   8.510 -0.4872 -0.8402  0.5175
54214SOL     OW69499  10.772   4.138  12.076  0.8098  0.1294  0.0562
54214SOL    HW169500  10.688   4.138  12.030 -0.2352  1.3563  1.8553
54214SOL    HW269501  10.823   4.207  12.033  1.5309 -1.5810 -1.9996
54215SOL     OW69502   2.689   7.675   6.625  0.4923  0.3684  0.2535
54215SOL    HW169503   2.602   7.668   6.585 -0.5462  1.6936  2.1251
54215SOL    HW269504   2.673   7.665   6.719  2.5602 -0.5980  0.5655
54216SOL     OW69505   1.024   2.312   2.273 -0.4851  0.1905 -0.3545
54216SOL    HW169506   1.012   2.373   2.201 -2.5801  0.8122  0.4523
54216SOL    HW269507   1.038   2.368   2.350  1.0528 -0.4437 -0.1324
54217SOL     OW69508   7.251   4.839   6.375 -0.1140  0.3157 -0.0540
54217SOL    HW169509   7.302   4.911   6.412  0.5776  0.3486 -1.0156
54217SOL    HW269510   7.302   4.810   6.300  1.0716 -3.0290  1.8433
54218SOL     OW69511   9.138   9.931   4.962  0.0796  0.1478  0.9420
54218SOL    HW169512   9.051   9.954   4.929 -0.3517 -1.0916  1.1616
54218SOL    HW269513   9.185   9.900   4.885  0.1980  0.4474  0.8936
54219SOL     OW69514   8.719   6.135   0.929 -0.1295 -0.3039 -0.6309
54219SOL    HW169515   8.688   6.099   1.012 -0.6119 -0.0676 -0.7050
54219SOL    HW269516   8.658   6.206   0.909 -0.1284 -0.4787 -1.2800
54220SOL     OW69517  12.101   6.865   9.575  0.0451 -0.1316  0.2817
54220SOL    HW169518  12.015   6.828   9.594  0.5800 -2.1345 -0.9372
54220SOL    HW269519  12.154   6.843   9.651  0.0407 -0.8613  0.0804
54221SOL     OW69520   9.715  10.714   6.923 -0.6858 -0.2065  0.3272
54221SOL    HW169521   9.784  10.761   6.877  1.3140 -1.4073  1.9262
54221SOL    HW269522   9.729  10.622   6.900 -2.1497 -0.4187  0.2088
54222SOL     OW69523   7.665  10.887  12.466  0.2080 -0.0671  0.2886
54222SOL    HW169524   7.734  10.909  12.528  0.7721 -1.6386  0.2702
54222SOL    HW269525   7.586  10.882  12.520  0.6777 -1.3448  0.9113
54223SOL     OW69526   2.854  11.725   1.518 -0.0733  0.3152  0.1585
54223SOL    HW169527   2.904  11.646   1.539  2.6658  1.9253  0.1634
54223SOL    HW269528   2.823  11.758   1.602  0.9799  0.5768  0.4600
54224SOL     OW69529   0.014   7.778   2.611  0.2351  0.4515 -0.2474
54224SOL    HW169530  -0.039   7.855   2.632  0.1315  0.1402  0.6631
54224SOL    HW269531  -0.039   7.728   2.550 -0.3276  0.3731  0.2989
54225SOL     OW69532   5.956   7.485   9.490  0.4664 -0.0935  0.3184
54225SOL    HW169533   5.931   7.474   9.398  0.8671  1.2670  0.0262
54225SOL    HW269534   5.991   7.400   9.516 -0.6210 -0.8007 -0.4729
54226SOL     OW69535   8.864   2.214   2.058  0.4165  0.5151  0.2211
54226SOL    HW169536   8.934   2.224   2.123  1.6363  0.3595 -1.0286
54226SOL    HW269537   8.904   2.238   1.975 -0.5110 -1.2291 -0.7997
54227SOL     OW69538   8.844   0.052   7.181  0.2858 -0.0656  0.1510
54227SOL    HW169539   8.852   0.146   7.164  0.2099  0.3100  2.0365
54227SOL    HW269540   8.750   0.038   7.191  0.3658 -0.1554  0.8069
54228SOL     OW69541   6.245   3.428  10.853  0.5261  0.4795  0.6855
54228SOL    HW169542   6.215   3.377  10.928 -0.5280 -1.4673 -0.9555
54228SOL    HW269543   6.326   3.385  10.826  0.0555  0.1347 -0.2218
54229SOL     OW69544  11.438   3.342   8.716 -0.4364 -0.3225  0.4209
54229SOL    HW169545  11.437   3.352   8.621 -0.4416  0.3587  0.4916
54229SOL    HW269546  11.447   3.248   8.730 -1.3759 -0.5239 -0.2567
54230SOL     OW69547   5.877  10.652  10.830 -0.2539  0.3996  0.5824
54230SOL    HW169548   5.839  10.706  10.761  0.5526  1.8613  1.2249
54230SOL    HW269549   5.809  10.648  10.898 -0.2483  0.8103  0.6179
54231SOL     OW69550   6.199   0.940   6.014 -0.0098  0.2001 -0.1358
54231SOL    HW169551   6.290   0.964   5.999  0.3644 -0.5432  0.8145
54231SOL    HW269552   6.149   1.016   5.986  0.9763  1.1309  0.5629
54232SOL     OW69553  11.792   3.310  10.915 -0.1413  0.4739 -0.4457
54232SOL    HW169554  11.719   3.269  10.962 -0.0561  0.6786 -0.1344
54232SOL    HW269555  11.870   3.284  10.965 -0.0757  0.9079 -0.3191
54233SOL     OW69556   2.361   6.377  11.626 -0.3630  0.1834  0.2748
54233SOL    HW169557   2.453   6.378  11.599 -0.0322 -0.9484  1.2406
54233SOL    HW269558   2.318   6.439  11.568  0.8526  0.0965 -0.7701
54234SOL     OW69559   5.002  10.371   9.274 -0.4878  0.3651 -0.1051
54234SOL    HW169560   5.065  10.333   9.336  0.1184  0.3297 -0.7276
54234SOL    HW269561   4.946  10.427   9.327 -1.4111 -1.3640  0.8668
54235SOL     OW69562   2.149   7.635   8.874 -1.0591  0.0856 -0.1102
54235SOL    HW169563   2.059   7.605   8.886 -2.1423  3.2630  0.8765
54235SOL    HW269564   2.142   7.731   8.875  2.5662  0.5240  2.3749
54236SOL     OW69565  12.270   6.195   2.051 -0.7102 -0.5887  0.2964
54236SOL    HW169566  12.333   6.126   2.032 -0.0780 -0.4836  1.8809
54236SOL    HW269567  12.283   6.259   1.981  0.1553 -1.1025 -0.0210
54237SOL     OW69568   1.114   3.896   3.543  0.0535  0.8187  0.2520
54237SOL    HW169569   1.107   3.989   3.522 -1.4466  0.5611 -0.5488
54237SOL    HW269570   1.191   3.866   3.495  0.9310  1.7431  1.0160
54238SOL     OW69571  11.509   2.680   7.871  0.5313  0.7357  0.2830
54238SOL    HW169572  11.422   2.645   7.890  0.9085  0.5882  1.8858
54238SOL    HW269573  11.569   2.609   7.895  1.1424  1.2496  0.3112
54239SOL     OW69574   5.219   6.560   3.885  0.2777 -0.0483 -0.5053
54239SOL    HW169575   5.185   6.635   3.837  2.0118  1.5696  0.6551
54239SOL    HW269576   5.312   6.556   3.860  0.4199 -1.2403  0.1524
54240SOL     OW69577   9.627   8.753   3.340 -0.1506 -0.8415 -0.0813
54240SOL    HW169578   9.697   8.766   3.276  1.4911  0.5406  1.8508
54240SOL    HW269579   9.584   8.838   3.345  0.0873 -0.7707  0.9879
54241SOL     OW69580   4.356   4.611   5.769 -0.4129  0.1216  0.0198
54241SOL    HW169581   4.415   4.564   5.709  0.5004  1.1091  0.1161
54241SOL    HW269582   4.409   4.625   5.847 -1.3950 -0.5930  0.8332
54242SOL     OW69583   6.516   7.166   4.225  0.2836  0.5661 -0.4998
54242SOL    HW169584   6.502   7.258   4.246  1.1653  0.3018  1.4706
54242SOL    HW269585   6.610   7.153   4.235  0.1451 -0.5764 -0.5508
54243SOL     OW69586  10.073   8.571  10.605  0.6280  0.0883  0.1681
54243SOL    HW169587  10.000   8.633  10.608  0.9733  0.4712  2.1673
54243SOL    HW269588  10.122   8.596  10.526 -0.6567  0.6695 -0.4806
54244SOL     OW69589  11.304   5.305   7.205  0.6429  0.1794 -0.3885
54244SOL    HW169590  11.283   5.391   7.168 -2.1157 -1.0277 -2.0024
54244SOL    HW269591  11.346   5.258   7.133 -0.6650 -0.7484 -0.5868
54245SOL     OW69592   4.995   8.896   2.670 -0.7265  0.0510 -0.3171
54245SOL    HW169593   5.033   8.975   2.707  0.1855 -0.3773 -0.3145
54245SOL    HW269594   4.953   8.925   2.589  1.3207  0.2443 -1.3837
54246SOL     OW69595   3.769   3.396  12.349 -0.0182 -0.2641 -0.3617
54246SOL    HW169596   3.740   3.310  12.378  0.9117  0.4062  2.9870
54246SOL    HW269597   3.862   3.385  12.329  0.6734  0.3146  2.2328
54247SOL     OW69598   9.621   7.342   7.445  0.5445  0.1514 -0.1240
54247SOL    HW169599   9.527   7.361   7.450  0.3506 -0.3016 -1.6873
54247SOL    HW269600   9.625   7.247   7.431  1.3200 -0.1257  1.7022
54248SOL     OW69601  12.380  11.723  11.941 -0.6792  0.2392  0.1229
54248SOL    HW169602  12.443  11.794  11.931 -1.6635  1.1924  0.4606
54248SOL    HW269603  12.392  11.693  12.031  0.3352 -0.6358 -0.2836
54249SOL     OW69604   7.051   9.086   0.131  0.0400 -0.0274  0.1013
54249SOL    HW169605   7.006   9.040   0.061 -0.4480 -0.9474  0.9983
54249SOL    HW269606   7.135   9.112   0.093 -0.6076  0.3430 -1.1077
54250SOL     OW69607   8.216   1.168   3.913 -0.2167 -0.1641  0.3755
54250SOL    HW169608   8.308   1.179   3.938 -0.0669 -0.9577  0.1968
54250SOL    HW269609   8.208   1.215   3.830 -0.3192  1.0949  1.0768
54251SOL     OW69610   3.782   0.062  11.723 -0.0894 -0.3049  0.7015
54251SOL    HW169611   3.751   0.116  11.651 -0.8359 -1.9517 -0.2678
54251SOL    HW269612   3.740   0.099  11.801 -1.1154  0.1225 -0.0280
54252SOL     OW69613   3.399   3.615   2.230  0.3628 -0.2094  0.4694
54252SOL    HW169614   3.378   3.524   2.253  2.3222 -0.4985  1.3489
54252SOL    HW269615   3.408   3.660   2.314 -4.0609  1.8363  0.1229
54253SOL     OW69616   0.319   1.504   5.654  0.0117  0.1324 -0.3243
54253SOL    HW169617   0.377   1.456   5.594 -0.6090  0.5213 -1.2681
54253SOL    HW269618   0.249   1.537   5.597  0.2602  1.8939  0.3281
54254SOL     OW69619   5.783   1.609   4.343  0.5888  0.2053  1.0745
54254SOL    HW169620   5.858   1.650   4.299 -0.1100  1.4619  1.0031
54254SOL    HW269621   5.731   1.683   4.376 -0.0445 -0.6629  2.0996
54255SOL     OW69622   9.884   7.490  10.376  0.3408 -0.2826  0.2448
54255SOL    HW169623   9.865   7.403  10.410 -1.2795 -0.5360 -1.1739
54255SOL    HW269624   9.800   7.523  10.345  0.8548  1.9371  1.0013
54256SOL     OW69625  10.783   8.659  11.542 -0.2277  0.0755  0.1835
54256SOL    HW169626  10.750   8.722  11.479  1.0651 -0.6686 -1.2961
54256SOL    HW269627  10.716   8.590  11.545 -0.3940  0.2169 -0.2330
54257SOL     OW69628   2.359   5.851   1.036  0.5672 -0.3651  0.2053
54257SOL    HW169629   2.411   5.840   0.956  1.2463 -0.0135  0.5950
54257SOL    HW269630   2.423   5.865   1.105 -0.0783  1.2348  0.5192
54258SOL     OW69631   7.618   2.518   0.077  0.2753 -0.0581 -0.6480
54258SOL    HW169632   7.675   2.576   0.026  1.4243 -1.3966 -0.9487
54258SOL    HW269633   7.677   2.451   0.111 -1.1637 -1.7326 -1.3041
54259SOL     OW69634  12.354  11.328   1.145 -0.1247 -0.3725 -0.1483
54259SOL    HW169635  12.432  11.321   1.201 -1.0660 -1.2617  1.1224
54259SOL    HW269636  12.355  11.248   1.092 -1.0995 -1.3349  1.1953
54260SOL     OW69637   4.758   0.474   6.261 -0.2163  0.2766  0.1127
54260SOL    HW169638   4.826   0.429   6.211  0.2110  0.3249  0.6344
54260SOL    HW269639   4.676   0.433   6.234 -0.0127  0.4146 -0.7395
54261SOL     OW69640   9.330  11.652   7.344  0.0469  0.6033 -0.0079
54261SOL    HW169641   9.307  11.624   7.256  3.5067 -0.3963 -0.7395
54261SOL    HW269642   9.309  11.745   7.346 -0.7457  0.4929 -1.6269
54262SOL     OW69643   3.041   3.836   2.901  0.0154 -0.2978 -0.3655
54262SOL    HW169644   3.019   3.805   2.989  0.3784 -1.0169 -0.5195
54262SOL    HW269645   2.959   3.870   2.866  0.0044  0.5727  0.4782
54263SOL     OW69646   2.108   3.567   3.897 -0.3121 -0.1976  0.3762
54263SOL    HW169647   2.015   3.567   3.873 -0.3032 -0.8857  0.3238
54263SOL    HW269648   2.130   3.659   3.905 -0.8710 -0.0097 -0.1230
54264SOL     OW69649   8.375   9.597   1.678 -0.3879 -0.1635 -0.2438
54264SOL    HW169650   8.352   9.641   1.597 -0.5079  1.4207  0.6058
54264SOL    HW269651   8.469   9.612   1.688 -0.1572 -1.2959 -0.6211
54265SOL     OW69652   8.555   5.080   4.266 -0.8417 -0.1235 -0.2958
54265SOL    HW169653   8.479   5.139   4.264 -1.9082 -1.2987  1.8037
54265SOL    HW269654   8.597   5.098   4.349 -0.6512 -1.6293 -0.0319
54266SOL     OW69655   7.791   6.046   8.670  0.5114 -0.4215 -0.0564
54266SOL    HW169656   7.858   6.107   8.639  0.8724 -1.1049 -0.6584
54266SOL    HW269657   7.737   6.098   8.730  0.1587  0.7636 -1.3622
54267SOL     OW69658  12.383   3.796   8.090 -0.1726 -0.4747  0.2653
54267SOL    HW169659  12.365   3.737   8.017  0.3190 -0.7201  0.3431
54267SOL    HW269660  12.387   3.740   8.167 -1.1928 -0.1565  0.5680
54268SOL     OW69661   8.193   6.620  11.385 -0.4471  0.1657 -0.2966
54268SOL    HW169662   8.116   6.588  11.431 -0.0251 -0.1973  0.1766
54268SOL    HW269663   8.222   6.696  11.437 -1.5811  1.5056 -1.5422
54269SOL     OW69664  12.079   4.947  10.214 -0.3343 -0.1367 -0.2549
54269SOL    HW169665  12.105   4.857  10.236  2.5305  0.3454 -1.2640
54269SOL    HW269666  12.160   4.989  10.185 -1.8981  2.3191 -1.3769
54270SOL     OW69667   5.178   4.806   2.580  0.5855 -0.4654  0.6066
54270SOL    HW169668   5.166   4.759   2.663  1.5395  0.0178  1.0397
54270SOL    HW269669   5.139   4.892   2.595 -0.9923 -1.0155 -0.1233
54271SOL     OW69670   7.963   8.771  10.879 -0.2231 -0.1212  0.5652
54271SOL    HW169671   7.912   8.767  10.798  0.6037 -1.9621  0.0855
54271SOL    HW269672   7.913   8.830  10.936  0.1130  2.7588 -1.8771
54272SOL     OW69673  10.488  11.121  11.790  0.5715 -0.3335  0.2897
54272SOL    HW169674  10.568  11.077  11.817  0.1153 -0.8590  0.8289
54272SOL    HW269675  10.489  11.204  11.836  2.3665  1.1326 -2.1741
54273SOL     OW69676   5.559   6.544  10.914  0.5303  0.5322 -0.4655
54273SOL    HW169677   5.597   6.500  10.990 -0.1283 -0.2020 -0.5466
54273SOL    HW269678   5.487   6.597  10.950  0.2230  0.1900 -0.5767
54274SOL     OW69679   3.667   8.711   9.311 -0.2990 -0.4361 -0.5158
54274SOL    HW169680   3.652   8.679   9.222 -2.2474 -0.4838 -0.2187
54274SOL    HW269681   3.660   8.633   9.366  2.3777 -0.6604 -0.4004
54275SOL     OW69682   0.273   2.987   5.515 -0.5045 -1.1638  0.1965
54275SOL    HW169683   0.306   2.984   5.605  0.3628 -0.5661 -0.0795
54275SOL    HW269684   0.294   3.075   5.486 -0.2614 -1.5319 -0.7724
54276SOL     OW69685   3.926  11.150   6.642 -0.3622  0.6508  0.4420
54276SOL    HW169686   3.873  11.217   6.686 -1.3619  1.2910 -1.6108
54276SOL    HW269687   3.880  11.068   6.659 -0.6392  0.8645  0.7437
54277SOL     OW69688   4.283   7.024   5.993  0.0356 -0.1416 -0.5235
54277SOL    HW169689   4.283   7.012   5.898  0.1217  1.4361 -0.7510
54277SOL    HW269690   4.195   7.001   6.021 -0.0403 -0.4417 -1.0044
54278SOL     OW69691   5.834   2.890   8.330  0.0366  0.3659 -0.1571
54278SOL    HW169692   5.785   2.862   8.253  0.7507  0.5305 -0.6791
54278SOL    HW269693   5.816   2.984   8.336 -1.4452  0.0556  0.9336
54279SOL     OW69694  11.417   6.405   5.503 -0.0319 -0.0796 -0.5984
54279SOL    HW169695  11.431   6.496   5.531 -0.6242 -0.1713  0.0379
54279SOL    HW269696  11.496   6.359   5.532 -0.2308  0.0156  0.1241
54280SOL     OW69697   6.021   7.220   5.763 -0.4653 -0.2323  0.0850
54280SOL    HW169698   6.107   7.260   5.751  0.7447 -2.3903  1.0441
54280SOL    HW269699   6.016   7.200   5.856 -1.8213 -0.5899 -0.0310
54281SOL     OW69700   5.552   1.394   5.226  0.2031 -0.0974 -0.2797
54281SOL    HW169701   5.492   1.321   5.215 -0.2661  0.0119  1.3081
54281SOL    HW269702   5.640   1.355   5.219 -0.0424 -0.5741 -0.7464
54282SOL     OW69703   8.564   2.363   5.461  0.1532 -0.2845 -0.1302
54282SOL    HW169704   8.616   2.305   5.406  0.7741 -1.9988  2.1527
54282SOL    HW269705   8.474   2.352   5.430  0.4898 -1.1860 -0.8066
54283SOL     OW69706   8.668   2.407   0.994  0.4552  0.0616 -0.0426
54283SOL    HW169707   8.735   2.470   1.019 -0.9113  1.7987 -0.5805
54283SOL    HW269708   8.655   2.421   0.900 -0.4930 -0.4237  0.0009
54284SOL     OW69709   5.338   3.601  11.623  0.5799 -0.6409 -0.4603
54284SOL    HW169710   5.413   3.599  11.563  0.6173 -1.3930 -0.4060
54284SOL    HW269711   5.346   3.685  11.669  0.6194 -0.1150 -1.4092
54285SOL     OW69712   8.389   3.826   7.852 -0.4517  0.4209  0.3415
54285SOL    HW169713   8.434   3.880   7.787 -1.2824  0.3139 -0.3306
54285SOL    HW269714   8.439   3.744   7.853  1.3601  1.4424  2.0044
54286SOL     OW69715   9.030   7.511   4.577 -0.0086  0.7038 -0.0951
54286SOL    HW169716   8.944   7.542   4.607 -1.2815 -2.1425 -0.4400
54286SOL    HW269717   9.093   7.559   4.630 -1.8903  1.6499  1.3941
54287SOL     OW69718   0.955   5.960   3.146  0.1117  0.1151 -0.0338
54287SOL    HW169719   0.979   6.021   3.215  2.2251 -0.8331  0.1276
54287SOL    HW269720   0.882   5.910   3.182 -1.4474  2.2319 -0.0483
54288SOL     OW69721   9.067   1.676  12.550 -0.2771  0.3527 -0.1022
54288SOL    HW169722   9.056   1.706  12.640 -2.6987  1.6154 -0.7299
54288SOL    HW269723   9.049   1.753  12.496  1.0331 -0.3951 -1.6934
54289SOL     OW69724   3.107   9.180   4.290  0.3681  0.1231  0.0058
54289SOL    HW169725   3.020   9.222   4.288  0.2475  0.0355  1.7855
54289SOL    HW269726   3.165   9.244   4.250 -0.5433  0.0369 -1.5645
54290SOL     OW69727  12.244   2.792   5.710  0.2851 -0.3587  0.4169
54290SOL    HW169728  12.174   2.745   5.755  0.6061 -1.7393 -0.4544
54290SOL    HW269729  12.203   2.827   5.631 -0.1543  1.6224  1.4593
54291SOL     OW69730   0.012   1.586   9.728 -0.0264 -0.2561  0.5601
54291SOL    HW169731  -0.043   1.547   9.795 -1.9682  0.7280 -0.3729
54291SOL    HW269732  -0.037   1.662   9.698  1.0961 -0.2604 -1.4738
54292SOL     OW69733   8.458   9.120   6.135  0.1641  0.2064  0.1683
54292SOL    HW169734   8.529   9.181   6.115  1.6816 -1.0856  1.3584
54292SOL    HW269735   8.462   9.108   6.230 -2.2515  0.7713  0.3984
54293SOL     OW69736   4.883   2.347  11.196  0.1125  0.4037 -0.0008
54293SOL    HW169737   4.853   2.351  11.287 -1.0555 -1.3482 -0.2648
54293SOL    HW269738   4.805   2.323  11.146  0.7335  1.3355 -1.4935
54294SOL     OW69739   4.843   5.579   8.148 -0.2767  0.4180 -0.3713
54294SOL    HW169740   4.859   5.485   8.146 -0.0180  0.4771 -1.9599
54294SOL    HW269741   4.910   5.614   8.206 -2.6181 -0.7162  3.4143
54295SOL     OW69742   9.906   0.198   0.105 -0.4721  0.4927  0.2971
54295SOL    HW169743   9.955   0.173   0.027  0.0895 -0.1292  0.8346
54295SOL    HW269744   9.972   0.236   0.163 -0.7749  0.4162  0.6947
54296SOL     OW69745   9.690   1.374   4.671  0.0778  0.3580  0.2978
54296SOL    HW169746   9.771   1.324   4.667 -0.3710 -0.3943  0.3193
54296SOL    HW269747   9.716   1.464   4.653  0.8441  0.0525 -0.1771
54297SOL     OW69748   8.213   0.467   6.082 -0.1936  0.0509 -0.1166
54297SOL    HW169749   8.123   0.492   6.101 -0.7181 -1.1484 -0.9111
54297SOL    HW269750   8.210   0.427   5.995  1.2241  0.5612 -0.4377
54298SOL     OW69751   3.783   2.217  11.795  0.1124  0.5833 -0.2497
54298SOL    HW169752   3.735   2.223  11.712 -0.2969  0.0120 -0.0661
54298SOL    HW269753   3.864   2.172  11.772 -1.3082 -2.4609  0.1218
54299SOL     OW69754  12.187  11.990  10.406 -0.4357 -0.3540 -0.2736
54299SOL    HW169755  12.267  12.018  10.362  0.3942 -1.8408  0.2290
54299SOL    HW269756  12.117  12.031  10.354  0.6042  0.8044 -0.8499
54300SOL     OW69757   4.190   4.777   1.987 -0.1409  0.4906  0.0617
54300SOL    HW169758   4.205   4.684   2.002  0.7197  0.5437 -0.3672
54300SOL    HW269759   4.095   4.787   1.985 -0.3062  0.0570  2.6821
54301SOL     OW69760   3.197   5.062   6.427 -0.3894 -0.0854  0.0994
54301SOL    HW169761   3.174   5.101   6.343 -0.4920 -0.8090 -0.2215
54301SOL    HW269762   3.286   5.030   6.415 -0.0973  0.5558  0.5446
54302SOL     OW69763   0.601   9.644   9.071  0.6611 -0.0551  0.4481
54302SOL    HW169764   0.643   9.605   9.148  0.8301 -0.6573  0.0579
54302SOL    HW269765   0.667   9.706   9.037  1.4159 -1.2571 -0.3689
54303SOL     OW69766   7.257   8.974   1.440 -0.0272 -0.0739 -0.1397
54303SOL    HW169767   7.285   8.882   1.441  1.0763  0.2042 -1.9432
54303SOL    HW269768   7.304   9.013   1.367 -1.5849  1.6018 -0.3147
54304SOL     OW69769   9.993   3.021   6.878  0.1045 -0.6130 -0.4581
54304SOL    HW169770   9.980   2.970   6.798 -0.6368 -0.0853 -0.6784
54304SOL    HW269771   9.905   3.044   6.907  0.3580 -0.9166  0.5911
54305SOL     OW69772   8.512   4.130   4.054 -0.3049  0.3922 -0.4393
54305SOL    HW169773   8.493   4.162   4.142 -0.2210  0.1585 -0.3341
54305SOL    HW269774   8.608   4.134   4.047 -0.1241 -1.5618  0.2618
54306SOL     OW69775   1.117   7.183   8.463 -0.0535  0.0556  0.0934
54306SOL    HW169776   1.122   7.127   8.540  0.4127  0.5643  0.4396
54306SOL    HW269777   1.186   7.249   8.476  0.0580  0.1225 -0.7724
54307SOL     OW69778   7.319   2.987   5.662  0.2901 -0.3732  0.0085
54307SOL    HW169779   7.345   3.073   5.696 -0.2280 -0.6950  1.2513
54307SOL    HW269780   7.224   2.986   5.668  0.3663 -1.6081  1.4624
54308SOL     OW69781   4.768   2.581  11.064 -0.0506 -0.3422 -0.7249
54308SOL    HW169782   4.817   2.501  11.081  1.6859  0.4684 -1.7324
54308SOL    HW269783   4.723   2.599  11.146  2.0345 -0.6558  0.5589
54309SOL     OW69784   2.348  12.085   7.917 -0.3259  0.3445 -0.0364
54309SOL    HW169785   2.332  12.179   7.920 -1.2182  0.1832  0.4050
54309SOL    HW269786   2.317  12.052   8.002 -2.7490 -0.7528 -1.2479
54310SOL     OW69787   3.118   0.849  10.197 -0.3942 -0.1434  0.1718
54310SOL    HW169788   3.068   0.917  10.241  0.0127 -0.1990  0.7349
54310SOL    HW269789   3.209   0.880  10.199 -0.2423 -0.5748  0.1992
54311SOL     OW69790   4.904   7.300   5.770 -0.1034 -0.1356 -0.4218
54311SOL    HW169791   4.904   7.362   5.696  0.6986 -1.2226 -1.3722
54311SOL    HW269792   4.948   7.347   5.841 -0.0605  0.6025 -0.9259
54312SOL     OW69793  11.532   0.332   3.181  0.1313  0.2828  0.6559
54312SOL    HW169794  11.446   0.316   3.222 -0.0213  0.6822  0.4973
54312SOL    HW269795  11.537   0.427   3.173  0.0406  0.1968 -0.5159
54313SOL     OW69796   6.102  12.447   6.872 -0.3708 -0.2056 -0.2876
54313SOL    HW169797   6.168  12.512   6.897  0.1692 -1.1332  0.7557
54313SOL    HW269798   6.054  12.489   6.800 -0.7735  1.7963  1.0663
54314SOL     OW69799   7.813   5.096   2.137 -0.0850 -0.5807 -0.1155
54314SOL    HW169800   7.794   5.002   2.140 -1.2296 -0.3430  0.7041
54314SOL    HW269801   7.733   5.138   2.170  1.1094  0.5844  1.4556
54315SOL     OW69802   6.520   0.473  11.523 -0.2334 -0.2992 -0.1800
54315SOL    HW169803   6.500   0.424  11.604  2.2564 -1.9723 -0.4570
54315SOL    HW269804   6.540   0.561  11.553 -0.9453 -0.4486  0.8114
54316SOL     OW69805   1.891   6.099   2.778 -0.1272  0.6675  0.3968
54316SOL    HW169806   1.962   6.047   2.817 -0.3940  1.0234  1.3700
54316SOL    HW269807   1.885   6.066   2.689  1.2929  0.6484  0.2731
54317SOL     OW69808  10.725   7.648  11.490  0.1905  0.1285 -0.2632
54317SOL    HW169809  10.704   7.646  11.396 -2.7986  2.5003  0.2092
54317SOL    HW269810  10.817   7.674  11.493  0.6900 -1.0334 -2.4871
54318SOL     OW69811   0.878   8.712  11.954  0.3869  0.7007 -0.0333
54318SOL    HW169812   0.838   8.642  11.903 -1.3525  0.1502  1.9417
54318SOL    HW269813   0.904   8.777  11.889 -2.1408  0.2777 -1.6222
54319SOL     OW69814   0.527   2.551   2.415 -0.4643  0.2668 -0.1920
54319SOL    HW169815   0.588   2.565   2.342  0.4926 -4.4105 -0.5486
54319SOL    HW269816   0.442   2.541   2.373 -0.3306  0.0471 -0.4128
54320SOL     OW69817   3.469   6.035  12.405  0.0537 -1.5990 -0.2617
54320SOL    HW169818   3.412   6.098  12.360 -0.6554 -2.3025 -0.3856
54320SOL    HW269819   3.550   6.083  12.421 -1.6290  0.5210  2.8312
54321SOL     OW69820   7.695   0.162   9.756 -0.1281 -0.2107 -0.2765
54321SOL    HW169821   7.688   0.242   9.808  1.0438 -0.0097 -0.4002
54321SOL    HW269822   7.604   0.132   9.746 -0.4690  0.3241  0.9600
54322SOL     OW69823   7.540   4.191   1.677  0.2736 -0.2828 -0.3848
54322SOL    HW169824   7.527   4.263   1.616  2.7374 -0.4669 -1.1987
54322SOL    HW269825   7.455   4.145   1.678 -0.5357  1.1039 -1.8029
54323SOL     OW69826   1.632   5.985   5.905 -0.2407  0.1530 -0.4733
54323SOL    HW169827   1.565   5.993   5.837 -0.1257 -1.3336 -0.7831
54323SOL    HW269828   1.708   5.948   5.861 -0.2896 -1.2126  0.5047
54324SOL     OW69829   1.523   7.753   5.047  0.0869  0.0618  0.3057
54324SOL    HW169830   1.585   7.694   5.091  0.0841  0.4037  0.7742
54324SOL    HW269831   1.546   7.746   4.954  0.5058 -0.1927  0.4226
54325SOL     OW69832   0.592   4.792  12.330 -0.5440  0.4695 -0.3762
54325SOL    HW169833   0.683   4.803  12.359 -0.6674 -1.5645  0.9655
54325SOL    HW269834   0.586   4.700  12.306 -2.0701  0.7666 -1.2119
54326SOL     OW69835   9.704   3.731   6.386  0.0980 -0.6381  0.3177
54326SOL    HW169836   9.639   3.721   6.456  1.1047 -0.9873  1.2281
54326SOL    HW269837   9.663   3.690   6.310 -1.4285  0.6131  0.4116
54327SOL     OW69838   7.888   2.042   8.905 -0.2493 -0.4047  0.3680
54327SOL    HW169839   7.858   2.060   8.995 -0.4268 -0.2421  0.2771
54327SOL    HW269840   7.944   1.965   8.913  0.0275 -0.1778  0.6765
54328SOL     OW69841   1.589   6.285   0.052 -0.6930 -0.2445  0.2191
54328SOL    HW169842   1.508   6.334   0.066 -0.2373 -0.1076  2.8656
54328SOL    HW269843   1.560   6.196   0.032 -1.5087 -0.1196  0.7902
54329SOL     OW69844   9.805   7.556   1.150  0.2709  0.0446  0.2145
54329SOL    HW169845   9.863   7.501   1.099 -0.8301 -1.8894  0.9502
54329SOL    HW269846   9.828   7.538   1.241 -1.5026 -0.8873  0.5351
54330SOL     OW69847   6.245   3.836  11.454 -0.3486 -0.3802  0.5441
54330SOL    HW169848   6.174   3.862  11.513 -0.3192  0.7075  0.1053
54330SOL    HW269849   6.201   3.814  11.372 -0.1804  0.4281  0.2284
54331SOL     OW69850   4.472   0.562   6.009 -0.0170  0.2397  0.0602
54331SOL    HW169851   4.391   0.563   5.957  0.9372  1.9579 -1.5312
54331SOL    HW269852   4.500   0.471   6.009 -2.3401 -0.5572  1.3614
54332SOL     OW69853   7.184   0.262   3.949 -0.1136 -0.0149 -0.8186
54332SOL    HW169854   7.179   0.168   3.935 -0.7310 -0.1262  0.0384
54332SOL    HW269855   7.276   0.278   3.971 -0.0719 -0.4633 -0.6594
54333SOL     OW69856  11.936   6.216   4.782 -0.4752 -0.3677  0.1418
54333SOL    HW169857  12.015   6.200   4.834 -1.9256 -3.4519  1.7027
54333SOL    HW269858  11.867   6.229   4.846 -1.2405  3.2220 -1.1816
54334SOL     OW69859   4.146   7.626  10.449 -0.4500  0.4263  0.3546
54334SOL    HW169860   4.064   7.592  10.486 -0.9844 -0.3977 -1.4638
54334SOL    HW269861   4.145   7.719  10.471 -0.6515 -0.0383  2.4728
54335SOL     OW69862   6.513   3.545   1.522  0.1624  0.2918  0.3917
54335SOL    HW169863   6.591   3.554   1.467  2.2663  2.3996  3.4169
54335SOL    HW269864   6.442   3.584   1.471  1.2093 -0.8090 -2.0609
54336SOL     OW69865   3.123   9.643   6.174 -0.0956  0.9269 -0.2953
54336SOL    HW169866   3.063   9.612   6.242 -0.7732  1.3216 -0.6949
54336SOL    HW269867   3.180   9.569   6.156  0.0751  0.8120  0.6844
54337SOL     OW69868  10.942   3.876   4.008 -0.3946 -0.4610  0.0549
54337SOL    HW169869  10.854   3.875   4.044 -0.2548 -2.4260  0.4600
54337SOL    HW269870  10.947   3.957   3.957 -2.1800  0.0181  0.5917
54338SOL     OW69871   6.489   4.798   6.296  0.3525 -0.2823  0.0593
54338SOL    HW169872   6.564   4.750   6.260  0.7098  1.0844 -1.1307
54338SOL    HW269873   6.515   4.890   6.291 -1.1734  0.1847  0.1838
54339SOL     OW69874   2.051   3.968   7.566  0.1142  0.3382 -0.1953
54339SOL    HW169875   2.046   4.059   7.596  2.2772  0.3624  0.2728
54339SOL    HW269876   2.103   3.973   7.485  1.4472 -0.5842  0.5701
54340SOL     OW69877  12.399   0.755  12.120  0.1773 -0.3168  0.3643
54340SOL    HW169878  12.425   0.669  12.088 -2.6242 -1.4447  0.7620
54340SOL    HW269879  12.391   0.744  12.215 -2.7242 -0.5268  0.2051
54341SOL     OW69880   6.169   9.260   6.063 -0.0156  0.2524  0.1278
54341SOL    HW169881   6.210   9.287   6.145 -2.2785  2.2277  0.7019
54341SOL    HW269882   6.083   9.228   6.089 -0.7649  0.9039 -1.4693
54342SOL     OW69883   5.292   2.375  12.148 -0.4355 -0.2632 -0.3021
54342SOL    HW169884   5.262   2.433  12.219 -0.0617  0.1153 -0.4447
54342SOL    HW269885   5.253   2.411  12.069 -1.5910 -1.2218 -0.1884
54343SOL     OW69886   4.482   0.607   3.871  0.0277 -0.0198  0.4892
54343SOL    HW169887   4.533   0.580   3.794  1.1439  0.8661  0.8841
54343SOL    HW269888   4.468   0.701   3.857 -1.0524 -0.1500  0.6547
54344SOL     OW69889  11.100   1.234  10.350 -0.2877 -0.6996  0.6210
54344SOL    HW169890  11.170   1.253  10.412  1.4870  1.3939 -1.8493
54344SOL    HW269891  11.027   1.289  10.379  0.5870  0.4172  0.7317
54345SOL     OW69892   0.494   2.774  10.900  0.0749  0.1625 -0.4390
54345SOL    HW169893   0.503   2.829  10.823 -0.0946 -2.1170 -2.1892
54345SOL    HW269894   0.531   2.689  10.874 -1.9890 -1.3623  1.1771
54346SOL     OW69895   4.159   1.688  10.650 -0.1367  0.0893  0.4107
54346SOL    HW169896   4.206   1.770  10.637  0.9007 -0.2179  1.9501
54346SOL    HW269897   4.136   1.687  10.743  1.9115 -2.3293  1.0248
54347SOL     OW69898   0.122   7.069   3.621  0.5857  0.0709  0.5816
54347SOL    HW169899   0.163   7.081   3.707 -0.6519  0.5317  1.1360
54347SOL    HW269900   0.083   6.982   3.625 -0.3909  0.5061  0.9104
54348SOL     OW69901   2.954  11.859   8.770  0.2421 -0.3493 -0.8691
54348SOL    HW169902   3.033  11.905   8.800  0.5014 -0.9941 -0.5388
54348SOL    HW269903   2.882  11.919   8.788  0.4933 -0.3685  0.2606
54349SOL     OW69904   7.691   2.229   2.564  0.0727 -0.3897  0.0451
54349SOL    HW169905   7.634   2.152   2.558  0.1895 -0.6792  1.8600
54349SOL    HW269906   7.776   2.194   2.590 -0.0331  0.3589  1.5219
54350SOL     OW69907   9.626   0.237  12.189 -0.5137 -0.2365 -0.2113
54350SOL    HW169908   9.664   0.313  12.232 -1.0329  0.9815 -1.8320
54350SOL    HW269909   9.583   0.272  12.111 -2.7549 -1.8679  0.1817
54351SOL     OW69910   2.926  10.581  11.051  0.4876  0.8890 -0.2553
54351SOL    HW169911   2.913  10.500  11.101 -0.2359 -0.1466 -2.0271
54351SOL    HW269912   2.871  10.646  11.095  0.4748  0.2176  0.7378
54352SOL     OW69913   8.448   9.525   0.900  0.2447 -0.6729 -0.2482
54352SOL    HW169914   8.373   9.474   0.928 -2.2937  2.7486 -0.1624
54352SOL    HW269915   8.421   9.566   0.818  1.9695  0.7195 -0.1981
54353SOL     OW69916   1.054   0.306   3.363 -0.6368 -0.0660  0.2883
54353SOL    HW169917   1.136   0.283   3.406 -1.0234  0.5409  1.3780
54353SOL    HW269918   1.081   0.342   3.278  0.1346 -1.1958  0.0245
54354SOL     OW69919   1.632   9.449   8.129  0.4320 -0.4091 -0.4632
54354SOL    HW169920   1.700   9.407   8.181 -0.5215 -0.7311  0.5429
54354SOL    HW269921   1.677   9.476   8.049  1.7766 -0.4829  0.2366
54355SOL     OW69922   3.489  12.322  11.826  0.3777 -0.4644 -0.5117
54355SOL    HW169923   3.547  12.389  11.862  0.7691 -0.1855 -1.6185
54355SOL    HW269924   3.457  12.274  11.903  1.5817 -0.2312  0.1702
54356SOL     OW69925  10.914   6.530   3.339 -0.3760 -0.6696 -0.2292
54356SOL    HW169926  10.829   6.539   3.382  0.3568 -0.5142  1.2590
54356SOL    HW269927  10.928   6.614   3.295 -0.4871 -0.2586  0.5039
54357SOL     OW69928   2.955   3.445   3.254 -0.5857  0.0065  0.7357
54357SOL    HW169929   3.016   3.389   3.207  0.3123  2.2340 -0.9544
54357SOL    HW269930   3.000   3.467   3.335 -1.1385 -1.9610  1.6378
54358SOL     OW69931  12.425   5.034   7.017  0.3280 -0.7566 -0.0772
54358SOL    HW169932  12.422   5.055   7.111 -0.1845  0.8970 -0.4258
54358SOL    HW269933  12.491   5.093   6.981 -1.0963  0.3105 -1.0973
54359SOL     OW69934  10.849  10.814   8.451 -0.0772 -0.3344 -0.5351
54359SOL    HW169935  10.835  10.795   8.358 -0.4265  1.5540 -0.9302
54359SOL    HW269936  10.935  10.856   8.454  0.3183 -1.1754  0.1433
54360SOL     OW69937   0.814   1.202   3.730  0.0040 -0.4369  0.5259
54360SOL    HW169938   0.750   1.267   3.702  0.4483 -0.7720 -1.3660
54360SOL    HW269939   0.767   1.148   3.793 -1.3715 -0.2508 -0.3077
54361SOL     OW69940   5.223   2.559  10.990 -0.2406  0.0163 -0.4016
54361SOL    HW169941   5.215   2.471  10.952  1.2443 -1.1618  1.7643
54361SOL    HW269942   5.179   2.552  11.075  1.2002  0.8975  0.4502
54362SOL     OW69943   2.277   6.488   2.847  0.7311  0.4848  0.3206
54362SOL    HW169944   2.197   6.472   2.897  1.2783  0.4810  1.2201
54362SOL    HW269945   2.248   6.537   2.770 -0.2037 -0.0058  0.3570
54363SOL     OW69946   3.840  11.528   3.062  0.4756  0.2078 -0.4589
54363SOL    HW169947   3.852  11.613   3.020 -2.1016  0.8445 -0.0979
54363SOL    HW269948   3.909  11.524   3.129  1.2606  1.5505 -1.1545
54364SOL     OW69949   0.288   0.440  11.716 -0.0485 -0.0851 -0.5681
54364SOL    HW169950   0.320   0.519  11.761 -0.3205 -0.1415 -0.2747
54364SOL    HW269951   0.224   0.403  11.776  1.0054 -1.2474 -0.1274
54365SOL     OW69952   8.520   4.992   6.791  0.0236 -0.3943  0.1074
54365SOL    HW169953   8.488   4.903   6.772 -2.1311  0.3658 -0.0337
54365SOL    HW269954   8.515   5.037   6.707  0.0792  0.1637  0.4015
54366SOL     OW69955   8.333  10.342   7.933  0.3333 -0.1804 -0.4574
54366SOL    HW169956   8.397  10.368   7.867  1.3645 -0.3267  0.4462
54366SOL    HW269957   8.295  10.424   7.964  0.4555 -0.0529 -0.6483
54367SOL     OW69958   8.123   3.688   5.585 -0.0847 -0.2134  0.7280
54367SOL    HW169959   8.107   3.594   5.594 -1.2297 -0.2683 -1.2589
54367SOL    HW269960   8.045   3.722   5.540  0.5709  1.5813  0.8500
54368SOL     OW69961   0.908   2.769   4.552 -0.1767  1.0566 -1.0746
54368SOL    HW169962   0.927   2.705   4.483 -3.6647 -0.4716 -0.8300
54368SOL    HW269963   0.991   2.781   4.597  0.8664 -2.8173 -1.6084
54369SOL     OW69964   1.570   6.396   7.208  0.2496  0.3248  0.0975
54369SOL    HW169965   1.608   6.377   7.294  0.5393  0.1798 -0.0602
54369SOL    HW269966   1.591   6.319   7.155 -2.1163 -0.7374  0.5842
54370SOL     OW69967   6.897   4.524   9.638  0.2486 -0.1597 -0.0975
54370SOL    HW169968   6.831   4.592   9.623  0.7441  0.4583  0.4709
54370SOL    HW269969   6.885   4.463   9.565  0.9307  1.4259 -1.6003
54371SOL     OW69970   7.067   2.500   7.858  0.1293  0.4269  0.0553
54371SOL    HW169971   7.032   2.436   7.920  0.1260  0.5472  0.1790
54371SOL    HW269972   7.160   2.481   7.853  0.1003  0.3045 -0.0387
54372SOL     OW69973  10.079   1.617   7.110 -0.9804 -0.5116  0.5099
54372SOL    HW169974  10.128   1.695   7.137 -0.6952 -1.2916  2.3905
54372SOL    HW269975  10.111   1.598   7.022  1.3466 -0.3567  1.2421
54373SOL     OW69976   1.299   2.219  12.526  0.1601  0.2271  0.3812
54373SOL    HW169977   1.210   2.253  12.529  0.7596  2.5301 -2.5250
54373SOL    HW269978   1.350   2.279  12.579  0.2056 -0.3522  1.0102
54374SOL     OW69979  12.273   4.078  10.130  0.1280  0.5942  0.1338
54374SOL    HW169980  12.258   4.135  10.054  1.4706  0.3435 -0.3397
54374SOL    HW269981  12.229   3.996  10.106 -1.4971  1.2655  0.6642
54375SOL     OW69982   6.991  11.007   4.387  0.4856  0.4943  0.8139
54375SOL    HW169983   7.000  11.087   4.334  0.9310 -0.1227 -0.0609
54375SOL    HW269984   6.898  10.984   4.379  0.4928  0.5580  0.5155
54376SOL     OW69985   1.924   4.659  11.135 -0.0213 -0.1602  0.1350
54376SOL    HW169986   1.921   4.740  11.186  0.0783  0.3988 -0.7304
54376SOL    HW269987   1.832   4.634  11.125 -0.3229  1.5745 -2.2503
54377SOL     OW69988   4.776   2.920  10.104 -0.1053  0.3770  0.4110
54377SOL    HW169989   4.758   2.927  10.198 -0.1125 -0.8721  0.5212
54377SOL    HW269990   4.725   2.990  10.064  0.4348  1.3483  1.4020
54378SOL     OW69991   7.752   0.513  12.559 -0.1029 -0.4406 -0.2572
54378SOL    HW169992   7.765   0.425  12.525  1.6287  0.4613 -2.1888
54378SOL    HW269993   7.668   0.540  12.523 -0.0058 -0.8288 -0.7912
54379SOL     OW69994   5.070   0.745   1.403 -0.3840 -0.2019 -0.0526
54379SOL    HW169995   5.055   0.819   1.462  0.9729  1.2288 -1.4229
54379SOL    HW269996   5.018   0.766   1.325  1.0801  0.0142 -0.9956
54380SOL     OW69997   7.498  11.927   9.983  0.2067  0.5674 -0.2816
54380SOL    HW169998   7.429  11.887  10.036  0.9478 -0.5398 -0.1273
54380SOL    HW269999   7.568  11.947  10.045  1.1767 -0.9634 -0.8435
54381SOL     OW70000   4.231  11.647   4.564 -0.5590  0.3083 -0.3279
54381SOL    HW170001   4.288  11.571   4.555  1.2992  1.5673  0.3253
54381SOL    HW270002   4.258  11.707   4.495 -1.7651  0.5683 -0.6109
54382SOL     OW70003   4.804   8.687  10.998  0.2001 -0.1486 -0.1723
54382SOL    HW170004   4.892   8.713  10.971 -0.9263  0.6099 -3.7165
54382SOL    HW270005   4.795   8.597  10.966 -0.9477  0.5219 -1.9021
54383SOL     OW70006  10.280   3.418   1.234 -0.1312  0.1440 -0.1297
54383SOL    HW170007  10.307   3.498   1.280  2.6506 -0.7049 -0.0751
54383SOL    HW270008  10.229   3.449   1.159 -0.8203  1.8097  0.9722
54384SOL     OW70009   8.897   2.037   3.364 -0.6098  0.1705 -0.4217
54384SOL    HW170010   8.861   2.101   3.303 -1.7685 -1.0452 -1.0627
54384SOL    HW270011   8.872   1.952   3.328  0.8282 -0.6652  0.4363
54385SOL     OW70012   8.629   9.947   4.604  0.4510 -0.0090 -0.7745
54385SOL    HW170013   8.599   9.880   4.665 -5.2176  1.6156 -1.1819
54385SOL    HW270014   8.598   9.917   4.518 -0.0321  1.8815 -1.3126
54386SOL     OW70015   6.642   3.117   7.396 -0.6082  0.5014  0.2416
54386SOL    HW170016   6.655   3.212   7.407  0.1248  0.5484 -0.8849
54386SOL    HW270017   6.595   3.109   7.313 -0.5828 -0.1273  0.2851
54387SOL     OW70018   4.230   7.835   1.040  0.1039 -0.1166 -0.0595
54387SOL    HW170019   4.139   7.865   1.051  0.1737 -0.1463  0.6161
54387SOL    HW270020   4.256   7.868   0.954 -0.4832  0.0601 -0.1726
54388SOL     OW70021   5.908   2.994   6.232 -0.5772  0.4663 -0.4010
54388SOL    HW170022   5.884   2.902   6.247  2.7606 -0.3981  0.3672
54388SOL    HW270023   5.924   2.999   6.138  2.5655 -0.7598 -0.0279
54389SOL     OW70024   9.361   8.812  10.645 -0.2492  0.0419  0.1567
54389SOL    HW170025   9.316   8.895  10.628 -0.6961 -0.2202  0.0547
54389SOL    HW270026   9.351   8.798  10.739  0.4472  0.4570  0.3029
54390SOL     OW70027   4.075   0.746   0.674 -0.3275 -0.7172  0.2754
54390SOL    HW170028   4.013   0.804   0.718 -2.3283 -2.6839  0.2309
54390SOL    HW270029   4.106   0.687   0.743  2.7881  1.1256  0.6335
54391SOL     OW70030   7.610   8.244   2.202  0.0322 -0.0625 -0.1434
54391SOL    HW170031   7.520   8.278   2.207  0.0014  0.0609 -1.2482
54391SOL    HW270032   7.655   8.284   2.276 -0.1657  1.9532 -1.0352
54392SOL     OW70033   6.603   6.895   1.649  0.0776  0.3493  0.5789
54392SOL    HW170034   6.526   6.876   1.595 -0.2022  1.6144  0.4915
54392SOL    HW270035   6.567   6.907   1.737  0.1015  1.2401  0.4850
54393SOL     OW70036   2.508   9.627  10.650  0.3067 -0.0488  0.2609
54393SOL    HW170037   2.538   9.537  10.660 -1.6934 -0.7952 -0.0301
54393SOL    HW270038   2.442   9.639  10.718  1.6185  1.7425  1.3112
54394SOL     OW70039   8.743   7.769   0.203  0.4676 -0.0954  0.8825
54394SOL    HW170040   8.761   7.751   0.111  0.1320  2.1832  0.2968
54394SOL    HW270041   8.657   7.732   0.219  0.7834 -1.0333  0.4619
54395SOL     OW70042   9.414   4.410  12.205  1.2205  0.3569 -0.2267
54395SOL    HW170043   9.401   4.500  12.177  1.8096  0.0679 -1.5179
54395SOL    HW270044   9.326   4.373  12.209  0.9283  1.1350  0.8892
54396SOL     OW70045   1.075   1.678   6.790  0.2756 -0.0530  0.1124
54396SOL    HW170046   0.996   1.687   6.843  0.4303 -0.2843  0.3830
54396SOL    HW270047   1.060   1.736   6.715 -0.9061 -1.3884 -0.7379
54397SOL     OW70048   8.736   8.983   9.089 -0.5888 -0.4433  0.1897
54397SOL    HW170049   8.806   8.919   9.072 -0.7643 -0.7917  0.7437
54397SOL    HW270050   8.737   8.995   9.184  0.3444  1.4201 -0.0077
54398SOL     OW70051  11.949  11.663  10.516  0.7303 -0.6197  0.2254
54398SOL    HW170052  11.973  11.679  10.425 -1.7161  0.9296 -0.2384
54398SOL    HW270053  11.998  11.728  10.566 -0.8196  1.2043 -0.4902
54399SOL     OW70054   1.183  11.784   0.825  0.1467 -0.1307  0.0799
54399SOL    HW170055   1.201  11.779   0.731 -1.6829  0.8257 -0.3721
54399SOL    HW270056   1.139  11.869   0.836  2.7982  1.1369  2.2727
54400SOL     OW70057   2.134   1.096   0.457  0.2680  0.0353  0.3015
54400SOL    HW170058   2.226   1.121   0.451  0.5451 -0.8935  0.4314
54400SOL    HW270059   2.135   1.000   0.461 -0.7543 -0.0445 -0.6388
54401SOL     OW70060  10.386  11.758  11.024  0.6037 -0.0093 -0.2135
54401SOL    HW170061  10.296  11.792  11.030  0.7339  0.2403  0.3801
54401SOL    HW270062  10.428  11.815  10.960  0.8774  1.1240  0.9167
54402SOL     OW70063   3.411  12.231   0.163  0.1887  0.0535  0.5963
54402SOL    HW170064   3.343  12.286   0.201 -0.4710  0.9066 -1.6419
54402SOL    HW270065   3.492  12.261   0.204 -0.6172 -0.2988  2.5742
54403SOL     OW70066   8.346   2.738   2.420 -0.4603 -0.1927  0.1845
54403SOL    HW170067   8.350   2.746   2.324 -0.5910 -1.4734  0.0548
54403SOL    HW270068   8.437   2.735   2.447 -0.4132  1.1155  0.1977
54404SOL     OW70069   5.596   9.976  10.661 -0.0098  0.2999  0.0883
54404SOL    HW170070   5.643  10.046  10.615  0.6315 -0.3155 -0.1975
54404SOL    HW270071   5.525  10.022  10.706 -0.1451  1.0239 -0.8226
54405SOL     OW70072   1.667   3.756  10.481  0.6497 -0.2040 -0.5164
54405SOL    HW170073   1.745   3.769  10.428  0.3446  0.9608 -0.7057
54405SOL    HW270074   1.697   3.762  10.572  0.5569  1.8561 -0.5874
54406SOL     OW70075  10.458   8.822   1.980  0.4289 -0.3024  0.2802
54406SOL    HW170076  10.530   8.850   2.037 -0.2071  3.5979 -0.5546
54406SOL    HW270077  10.381   8.866   2.016 -0.8353 -1.3074 -1.0746
54407SOL     OW70078   8.768   2.503   9.233 -0.2174 -0.5394 -0.3502
54407SOL    HW170079   8.773   2.444   9.157  1.1216  0.3224 -0.9657
54407SOL    HW270080   8.855   2.500   9.271 -0.2541  0.7260 -0.1464
54408SOL     OW70081  10.601   7.401   5.053  0.3475  0.0474  0.1634
54408SOL    HW170082  10.602   7.475   5.114  1.9120 -0.5261  0.8865
54408SOL    HW270083  10.654   7.430   4.979 -0.2619  0.1737 -0.2289
54409SOL     OW70084   0.910   8.025   0.668  0.2698  0.0310 -0.8932
54409SOL    HW170085   1.002   8.049   0.661  0.1109  0.3773 -2.1972
54409SOL    HW270086   0.863   8.106   0.648 -0.3981  0.5588  2.2949
54410SOL     OW70087   6.210   6.687   9.461 -0.0649 -0.0239  0.0293
54410SOL    HW170088   6.223   6.594   9.441 -0.8245 -0.1114 -0.0863
54410SOL    HW270089   6.164   6.722   9.385 -0.1052  0.3676  0.2303
54411SOL     OW70090   4.023   9.451   4.673  0.0186 -0.0609 -0.3066
54411SOL    HW170091   4.113   9.440   4.641 -0.0015  0.0007 -0.3842
54411SOL    HW270092   4.002   9.366   4.713  1.1912  0.8396  2.4949
54412SOL     OW70093   0.918   2.683   8.101 -0.5374 -0.4197  0.0047
54412SOL    HW170094   0.877   2.609   8.057 -1.6413 -0.0888  0.4432
54412SOL    HW270095   0.983   2.644   8.159  0.6428 -0.8833 -1.5699
54413SOL     OW70096   3.257   3.567   4.921  0.2628  0.0799 -0.4263
54413SOL    HW170097   3.239   3.661   4.917 -1.2753 -0.1870 -0.4858
54413SOL    HW270098   3.340   3.556   4.875 -0.6099  1.1574 -2.3767
54414SOL     OW70099   7.951   9.905   0.088  0.1948  0.0041 -0.3034
54414SOL    HW170100   7.906   9.941   0.165  0.3757 -0.3238 -0.0378
54414SOL    HW270101   7.987   9.981   0.043 -0.4684  0.2554 -0.4182
54415SOL     OW70102  10.575   1.539   9.258 -0.4169 -0.3369 -0.0154
54415SOL    HW170103  10.625   1.583   9.327  0.4460  1.2920 -1.5851
54415SOL    HW270104  10.521   1.475   9.304 -0.4519  1.2154  2.2320
54416SOL     OW70105   2.147   3.241   5.873 -0.0404  0.7053 -0.3435
54416SOL    HW170106   2.057   3.263   5.849  0.3285  0.4872 -2.0617
54416SOL    HW270107   2.163   3.156   5.833  1.4036  1.4213 -1.4113
54417SOL     OW70108  11.766   8.957   5.675 -0.2509 -0.3465  0.3936
54417SOL    HW170109  11.723   9.032   5.716 -2.7046 -0.7931 -1.1183
54417SOL    HW270110  11.813   8.995   5.600  1.0573  0.0037  1.3651
54418SOL     OW70111   1.794   1.121  12.153  0.2553  0.1314  0.0324
54418SOL    HW170112   1.760   1.202  12.116  0.7766  0.7751  0.9299
54418SOL    HW270113   1.722   1.089  12.209  0.9071  1.2933  1.6275
54419SOL     OW70114   3.279  12.467   0.758 -0.2005  0.2732  0.5624
54419SOL    HW170115   3.195  12.501   0.790 -0.0718  1.2570 -0.1075
54419SOL    HW270116   3.295  12.388   0.811 -2.2734 -0.8000 -0.2912
54420SOL     OW70117   9.995   8.282   5.613  0.0286 -0.5636  0.3192
54420SOL    HW170118  10.047   8.241   5.682  1.1948  1.2554  0.6075
54420SOL    HW270119   9.996   8.375   5.635  2.6019  0.5442 -3.3467
54421SOL     OW70120   0.579   6.582   1.894  0.4198 -0.1140 -0.6883
54421SOL    HW170121   0.615   6.665   1.862 -1.4645  0.9326 -0.2641
54421SOL    HW270122   0.492   6.605   1.926  0.2525 -2.0830  0.4241
54422SOL     OW70123   9.645   3.974   5.367  0.7207 -0.5295  0.2965
54422SOL    HW170124   9.593   4.034   5.420  0.9174  0.8652 -0.9993
54422SOL    HW270125   9.721   3.953   5.421 -0.0638 -0.7916  1.3321
54423SOL     OW70126   6.181  11.286   5.329 -0.4784  0.1214 -0.9912
54423SOL    HW170127   6.245  11.251   5.268 -0.8016 -2.3199 -0.0742
54423SOL    HW270128   6.100  11.292   5.279 -0.0101  1.3117 -1.6299
54424SOL     OW70129   8.375   9.477   6.786 -0.3007 -0.0142  0.4715
54424SOL    HW170130   8.449   9.417   6.790  2.3765  2.9169 -0.4485
54424SOL    HW270131   8.376   9.523   6.870  2.4106  3.5383 -1.2308
54425SOL     OW70132   4.433   6.382   0.664  0.3238  0.4162  0.5493
54425SOL    HW170133   4.492   6.390   0.589 -0.4223  0.0472 -0.0908
54425SOL    HW270134   4.393   6.468   0.672  0.2536  0.4006  0.3843
54426SOL     OW70135   1.427   6.787   3.416 -0.5680  0.2968  0.0394
54426SOL    HW170136   1.521   6.769   3.411 -0.8793 -1.1512 -1.7740
54426SOL    HW270137   1.403   6.763   3.506  0.7182  0.3457  0.4163
54427SOL     OW70138   7.701   9.227   6.023 -0.8623 -0.5358  0.1760
54427SOL    HW170139   7.646   9.162   6.067 -3.2464  1.9735  1.1340
54427SOL    HW270140   7.708   9.196   5.933 -4.3579 -0.7283 -0.1396
54428SOL     OW70141   9.418   8.575   4.715 -0.6465 -0.6204  0.0187
54428SOL    HW170142   9.483   8.563   4.646 -0.6522 -2.2904  0.2790
54428SOL    HW270143   9.462   8.545   4.795 -0.5711  1.4638  0.8294
54429SOL     OW70144   7.876  10.381   2.928 -0.2298  1.0530  0.8141
54429SOL    HW170145   7.789  10.359   2.962  0.0821  0.0477  1.0083
54429SOL    HW270146   7.936  10.353   2.997  0.4604 -1.6659 -0.7441
54430SOL     OW70147   5.077   0.407   5.748 -0.4910 -0.1288 -0.4150
54430SOL    HW170148   5.003   0.359   5.785 -0.9970 -0.8525 -2.2482
54430SOL    HW270149   5.045   0.441   5.664  1.3626 -0.8951 -1.5092
54431SOL     OW70150   8.532   7.366   7.384 -0.3333 -0.1087 -0.0099
54431SOL    HW170151   8.499   7.454   7.404 -0.3989 -0.2377  0.4821
54431SOL    HW270152   8.459   7.322   7.340 -1.0603 -0.5788  1.5786
54432SOL     OW70153   8.835   7.818   9.734  0.0542 -0.1181 -0.3676
54432SOL    HW170154   8.868   7.728   9.737  0.0956 -0.1180 -0.7660
54432SOL    HW270155   8.739   7.808   9.736  0.0502 -0.1931 -0.9087
54433SOL     OW70156  11.125   6.183   0.322  0.1917 -0.3451  0.6367
54433SOL    HW170157  11.029   6.185   0.323  0.0960 -0.8426 -1.4083
54433SOL    HW270158  11.150   6.264   0.277  0.7037 -0.4836  0.6603
54434SOL     OW70159   0.510   4.727   1.259 -0.6100  0.3800 -0.6535
54434SOL    HW170160   0.497   4.727   1.164  0.8070  1.1202 -0.8672
54434SOL    HW270161   0.599   4.693   1.271 -1.4798 -1.6787  0.5646
54435SOL     OW70162   0.181   2.649   0.599 -0.3222 -0.3293 -0.3997
54435SOL    HW170163   0.095   2.632   0.560 -0.0408 -1.2587 -0.6265
54435SOL    HW270164   0.190   2.744   0.596 -0.3097 -0.3480 -2.6074
54436SOL     OW70165   7.776   4.358   2.494 -0.0116 -0.0357 -0.3254
54436SOL    HW170166   7.681   4.362   2.504  0.0465  0.3682  0.0867
54436SOL    HW270167   7.810   4.369   2.583  0.4065 -0.7322 -0.3896
54437SOL     OW70168   3.085   8.790   1.544 -0.2057  0.8486 -0.2989
54437SOL    HW170169   3.166   8.840   1.534 -0.8041  1.6044 -1.6163
54437SOL    HW270170   3.112   8.699   1.540  0.5688  1.0977 -1.0266
54438SOL     OW70171   9.804  11.739  12.502  0.3841 -0.1000 -0.1802
54438SOL    HW170172   9.887  11.706  12.538  0.8514  0.9715 -0.2419
54438SOL    HW270173   9.828  11.820  12.457 -0.9394  1.1447  1.2464
54439SOL     OW70174   7.711  10.780   0.452 -0.1500  0.5388  0.4168
54439SOL    HW170175   7.741  10.712   0.513  1.0660  1.2279  0.6279
54439SOL    HW270176   7.768  10.771   0.376 -1.7896 -0.4485 -0.7738
54440SOL     OW70177  11.536   5.613   5.063  0.1279  0.1932  0.1444
54440SOL    HW170178  11.612   5.587   5.012  0.6085  2.1732 -0.2398
54440SOL    HW270179  11.481   5.661   5.002 -1.2470 -0.8295  0.5360
54441SOL     OW70180  11.048   3.156   8.108 -0.0580 -0.1612 -0.3731
54441SOL    HW170181  11.120   3.210   8.140  0.9143 -1.1832 -0.7834
54441SOL    HW270182  11.034   3.091   8.178 -1.5069  0.8224  0.3150
54442SOL     OW70183  10.611   2.134   4.080  0.1638  0.3470  0.1182
54442SOL    HW170184  10.583   2.101   4.165 -0.8489  1.3548  0.1850
54442SOL    HW270185  10.645   2.056   4.035 -1.9188 -0.7600  0.3567
54443SOL     OW70186   4.637  10.594  11.126  0.5275 -0.2924 -0.5276
54443SOL    HW170187   4.714  10.569  11.075  0.6738  0.2857 -0.5917
54443SOL    HW270188   4.652  10.554  11.212  1.4390  0.7376 -0.1871
54444SOL     OW70189  10.535   6.732   0.193 -0.7599 -0.6097  0.2441
54444SOL    HW170190  10.481   6.800   0.235 -0.0247 -0.6249  1.2617
54444SOL    HW270191  10.493   6.717   0.108 -1.1708  0.8293  0.1669
54445SOL     OW70192   8.582   0.062   1.981  0.4975  0.2101  0.2514
54445SOL    HW170193   8.641   0.043   1.908  0.9880  1.2296  0.3563
54445SOL    HW270194   8.617   0.142   2.019 -1.5436  1.4623 -0.3313
54446SOL     OW70195  11.913   6.421   2.098 -0.1008 -0.3200  0.1696
54446SOL    HW170196  11.993   6.440   2.049 -0.3101  1.2688  0.3676
54446SOL    HW270197  11.850   6.394   2.032 -0.5517  2.3460 -0.6217
54447SOL     OW70198   9.160   7.203   6.253  0.3323  0.2093  0.0480
54447SOL    HW170199   9.134   7.270   6.189 -0.6888  0.3426  0.5780
54447SOL    HW270200   9.093   7.209   6.321 -0.7114 -2.4190 -0.6180
54448SOL     OW70201   8.082   5.429   9.546  0.1472 -0.2497  0.0318
54448SOL    HW170202   8.098   5.390   9.632  2.1706  0.8529  0.2034
54448SOL    HW270203   8.097   5.357   9.484 -0.2067 -0.7600  0.5272
54449SOL     OW70204   3.834  12.250   9.280 -0.3465 -0.1538  0.0573
54449SOL    HW170205   3.865  12.331   9.321 -1.5004  0.3612 -0.0498
54449SOL    HW270206   3.829  12.187   9.351  1.4565 -0.4206 -0.0223
54450SOL     OW70207   9.054   5.089  11.475  0.3556  0.4986 -0.0688
54450SOL    HW170208   8.962   5.100  11.499  0.6757  0.1608  1.4281
54450SOL    HW270209   9.052   5.031  11.399 -0.6070 -1.2922  1.2296
54451SOL     OW70210   6.575   1.126  11.652  0.0350 -0.1959  0.7234
54451SOL    HW170211   6.509   1.173  11.703 -1.4775 -2.2094  0.7746
54451SOL    HW270212   6.531   1.104  11.570  2.0296  1.9069 -1.0558
54452SOL     OW70213   3.683   2.829  12.004 -0.6761  0.3468  0.0132
54452SOL    HW170214   3.597   2.833  11.964  0.1906  2.3822 -1.8722
54452SOL    HW270215   3.740   2.793  11.937 -0.0352 -1.2290  1.3233
54453SOL     OW70216   6.765  10.700   8.352  0.2867  0.2783  0.3229
54453SOL    HW170217   6.860  10.689   8.345  0.4536 -0.3419  2.6614
54453SOL    HW270218   6.737  10.722   8.263  2.2172 -2.5064 -1.1585
54454SOL     OW70219   4.922  11.610   7.233  0.0726 -0.2606 -0.2986
54454SOL    HW170220   4.882  11.546   7.173  0.2106 -0.1326 -0.5289
54454SOL    HW270221   4.849  11.665   7.262  0.3363  1.2157 -2.2353
54455SOL     OW70222  12.486  11.347  11.145  0.2315  0.1812  0.4530
54455SOL    HW170223  12.442  11.265  11.123  0.6061  0.3308 -0.9270
54455SOL    HW270224  12.455  11.409  11.079  1.0995  0.7647  0.5868
54456SOL     OW70225   6.845   8.149  10.561  0.1499 -0.1595  0.5045
54456SOL    HW170226   6.922   8.193  10.525  0.6425 -0.6822  0.9047
54456SOL    HW270227   6.830   8.192  10.645 -1.2924  1.3968 -0.4758
54457SOL     OW70228  10.737   3.997   7.754 -0.0821  0.2937 -0.1554
54457SOL    HW170229  10.698   4.052   7.687  0.7986  0.4616 -0.5377
54457SOL    HW270230  10.797   3.940   7.707  0.4475  0.3210  0.4733
54458SOL     OW70231  11.178   1.192   2.799 -0.1480  0.0967 -0.2168
54458SOL    HW170232  11.088   1.178   2.829 -0.5625  0.2787 -1.3307
54458SOL    HW270233  11.182   1.148   2.714  0.7444  0.3190 -0.3037
54459SOL     OW70234  10.684  10.664   2.157 -0.5671 -0.0772 -0.6734
54459SOL    HW170235  10.662  10.753   2.130 -0.8303 -0.1603 -0.7357
54459SOL    HW270236  10.607  10.633   2.204 -0.2461 -0.0650 -0.1362
54460SOL     OW70237   2.203   7.591   1.202 -0.2259  0.0417 -0.0252
54460SOL    HW170238   2.205   7.561   1.293 -0.7342  1.0110  0.3241
54460SOL    HW270239   2.137   7.536   1.160 -1.5131  0.9593  0.7268
54461SOL     OW70240   4.138   8.729   3.240 -0.0056 -0.7638 -0.0686
54461SOL    HW170241   4.167   8.639   3.252 -0.8252 -0.8688  1.3057
54461SOL    HW270242   4.219   8.779   3.227  0.5289 -1.5441  0.2416
54462SOL     OW70243  10.452   6.834   1.538 -0.5287 -0.6083 -0.2910
54462SOL    HW170244  10.357   6.848   1.534 -0.3238  0.9330 -0.6562
54462SOL    HW270245  10.462   6.741   1.558 -2.1087 -0.8807 -0.6087
54463SOL     OW70246   3.196   6.878   2.690 -0.1239  0.1224 -0.3899
54463SOL    HW170247   3.164   6.851   2.776  0.4878 -0.7352 -0.4194
54463SOL    HW270248   3.220   6.796   2.647 -1.4639  0.4245 -1.8130
54464SOL     OW70249  11.218   7.509  10.480  0.1115  0.4974 -0.2760
54464SOL    HW170250  11.258   7.509  10.567  1.0040  1.2386 -0.6797
54464SOL    HW270251  11.139   7.562  10.491  1.2847  2.3514 -0.3664
54465SOL     OW70252   7.791   5.373  10.531  0.4716 -0.3375 -0.4678
54465SOL    HW170253   7.830   5.336  10.452 -1.2021 -2.5084 -0.3524
54465SOL    HW270254   7.829   5.321  10.603  2.5855  2.1151  0.3499
54466SOL     OW70255   3.055   3.834   1.552 -0.1770  0.1232 -0.0026
54466SOL    HW170256   3.082   3.777   1.624 -0.2478  1.1152  0.8223
54466SOL    HW270257   3.086   3.921   1.577 -1.2615  0.7039 -0.5971
54467SOL     OW70258   5.339   6.105  11.333 -0.4731  0.0024  0.0433
54467SOL    HW170259   5.418   6.055  11.354 -0.8828 -0.6333  0.0899
54467SOL    HW270260   5.328   6.095  11.238 -0.1362  0.6406 -0.0725
54468SOL     OW70261   0.366   2.318   8.921  0.3333  0.0306 -0.4595
54468SOL    HW170262   0.306   2.321   8.847 -0.8701 -0.0917  0.4775
54468SOL    HW270263   0.327   2.254   8.981  0.6793  0.9338  0.7711
54469SOL     OW70264   7.698   6.562   8.757 -0.2813  0.3249 -0.4701
54469SOL    HW170265   7.718   6.481   8.804 -1.4061 -0.6289 -1.5819
54469SOL    HW270266   7.737   6.550   8.671  0.5823  1.4923 -0.2684
54470SOL     OW70267   3.365   8.283  10.420 -1.0037 -0.0088 -0.5142
54470SOL    HW170268   3.296   8.347  10.403 -2.0653 -0.6349  1.2268
54470SOL    HW270269   3.351   8.255  10.510  1.7557  0.0916  0.0548
54471SOL     OW70270   6.458   7.825   6.001 -0.1351 -0.0780 -0.2232
54471SOL    HW170271   6.510   7.797   5.926 -1.8547 -2.9893 -0.4480
54471SOL    HW270272   6.388   7.879   5.963 -0.5079 -0.8354 -0.6240
54472SOL     OW70273  10.905  10.257   4.305  0.5243 -0.5969 -0.4237
54472SOL    HW170274  10.896  10.352   4.294  3.5431 -0.0565  0.8316
54472SOL    HW270275  10.831  10.232   4.361 -0.0150  1.1093 -0.3199
54473SOL     OW70276  10.143  12.061   0.886  0.1246 -0.3624 -0.2075
54473SOL    HW170277  10.096  12.010   0.820  1.0879 -0.9773 -0.4413
54473SOL    HW270278  10.213  12.104   0.836  0.7375 -0.6692  0.3740
54474SOL     OW70279   4.809   6.212   7.190 -0.3776  0.8007  0.2560
54474SOL    HW170280   4.890   6.196   7.238 -0.2681 -1.2214 -0.5084
54474SOL    HW270281   4.748   6.145   7.221 -0.7546  0.3288 -1.3570
54475SOL     OW70282   0.865   1.224   2.726 -0.7324  0.3736 -0.7185
54475SOL    HW170283   0.867   1.154   2.661  3.0734 -2.0402  1.6105
54475SOL    HW270284   0.813   1.189   2.798 -0.2477  0.6410 -0.2257
54476SOL     OW70285   6.371  12.416  11.425  0.2206  0.1533 -0.1134
54476SOL    HW170286   6.373  12.329  11.467  0.5633  0.7720  1.2246
54476SOL    HW270287   6.371  12.397  11.332 -1.0003 -1.3087  0.1393
54477SOL     OW70288   6.521   0.101   3.676  0.7467  0.1931 -0.0223
54477SOL    HW170289   6.447   0.068   3.626  1.4463 -1.5589  0.0473
54477SOL    HW270290   6.499   0.082   3.767  1.5068 -0.8608 -0.0428
54478SOL     OW70291   2.772   7.279   0.349 -0.0933  0.3515  1.1069
54478SOL    HW170292   2.709   7.263   0.279  0.2841  0.1171  0.8120
54478SOL    HW270293   2.771   7.374   0.361  0.1121  0.4385  0.5112
54479SOL     OW70294   9.805   6.147   4.549 -0.4365  0.4730 -0.1065
54479SOL    HW170295   9.794   6.065   4.597  0.7762  0.0928 -0.4284
54479SOL    HW270296   9.858   6.201   4.607 -1.0940  0.9649  0.0340
54480SOL     OW70297   2.925  10.710   5.863 -0.0006  0.4616  0.3135
54480SOL    HW170298   2.886  10.660   5.934 -0.8346 -0.7395 -0.9349
54480SOL    HW270299   2.854  10.766   5.832  0.1780  0.5399  0.0461
54481SOL     OW70300   4.017  10.087  11.385  0.3390  0.1050  0.4766
54481SOL    HW170301   3.937  10.048  11.421  0.7713 -1.0724  0.2160
54481SOL    HW270302   4.005  10.181  11.396 -1.6792  0.0571 -0.7980
54482SOL     OW70303   4.678  11.386  10.472  0.1355 -0.0669 -0.0422
54482SOL    HW170304   4.610  11.444  10.439 -0.1361 -0.5144 -0.2848
54482SOL    HW270305   4.758  11.437  10.469 -0.4626  1.0960  1.9214
54483SOL     OW70306   7.056   6.268   3.561  0.6799 -0.0050  0.1196
54483SOL    HW170307   7.071   6.174   3.554 -0.9230 -0.3630  1.0987
54483SOL    HW270308   7.140   6.304   3.588  1.4343 -1.0902 -0.7175
54484SOL     OW70309  10.352   5.878  11.420 -0.1703  0.1452  0.4489
54484SOL    HW170310  10.343   5.785  11.442  0.7940  0.2544  1.3900
54484SOL    HW270311  10.355   5.879  11.324 -1.1492 -0.6868  0.3836
54485SOL     OW70312   8.688   1.735  10.105  0.2036  0.5916  0.1138
54485SOL    HW170313   8.768   1.702  10.064 -0.2779 -0.3789 -0.0587
54485SOL    HW270314   8.632   1.762  10.032 -0.5335 -0.8615  0.1166
54486SOL     OW70315   2.560   2.095   8.929  0.0386 -0.3637 -0.0109
54486SOL    HW170316   2.573   2.189   8.945 -2.1031 -0.0134 -0.0987
54486SOL    HW270317   2.558   2.055   9.016 -0.0541 -0.1847  0.0692
54487SOL     OW70318  10.707   2.551   8.039  0.2356  0.4283  0.2997
54487SOL    HW170319  10.788   2.596   8.064  1.2590 -1.5437  0.7722
54487SOL    HW270320  10.645   2.621   8.022  1.4418  1.9970  1.9151
54488SOL     OW70321   3.685   7.299   8.061  0.1534  0.7423  0.2217
54488SOL    HW170322   3.712   7.302   8.152  0.4194 -0.3833  0.2028
54488SOL    HW270323   3.599   7.257   8.062  1.1854 -1.5907 -0.1804
54489SOL     OW70324   5.545   1.850   0.647 -0.0851 -0.1034 -0.3555
54489SOL    HW170325   5.594   1.920   0.689  1.2556  1.1565 -3.7014
54489SOL    HW270326   5.612   1.789   0.616 -1.0542 -1.2415 -0.3111
54490SOL     OW70327  10.306   5.757   0.590 -0.1809 -0.0861  0.9277
54490SOL    HW170328  10.388   5.708   0.596 -0.5930 -0.6569  2.6874
54490SOL    HW270329  10.238   5.689   0.593 -0.8028  0.1606 -2.8518
54491SOL     OW70330  11.312   8.128   8.820 -0.3039  0.1287 -0.1206
54491SOL    HW170331  11.305   8.151   8.727 -0.7493 -0.2960 -0.1913
54491SOL    HW270332  11.406   8.138   8.839 -0.1406 -0.1946 -0.7201
54492SOL     OW70333   7.882  12.483   3.828 -0.5303 -0.0720  0.3505
54492SOL    HW170334   7.971  12.505   3.855  0.0185  1.0470 -2.0618
54492SOL    HW270335   7.826  12.521   3.896  0.7759  0.9457  0.8957
54493SOL     OW70336  11.982   4.365  11.765 -0.3463  0.5251 -0.0226
54493SOL    HW170337  11.999   4.408  11.849  0.2124  2.6269 -1.1447
54493SOL    HW270338  12.069   4.352  11.727 -0.6644  1.3639 -1.0830
54494SOL     OW70339   4.305   1.156   4.060  0.0420 -0.3357 -0.0200
54494SOL    HW170340   4.212   1.165   4.080  0.7969  2.7906  3.0097
54494SOL    HW270341   4.323   1.226   3.997  0.3781 -0.7472 -0.3824
54495SOL     OW70342  12.199  12.524   0.703  0.1390  0.6850  0.0184
54495SOL    HW170343  12.205  12.512   0.798 -0.5121  2.4500  0.3219
54495SOL    HW270344  12.107  12.511   0.683  0.3186  0.0670 -0.4148
54496SOL     OW70345   3.680   8.758   8.807  0.1000  0.1223  0.5158
54496SOL    HW170346   3.668   8.844   8.768  0.4901  0.7530  1.7550
54496SOL    HW270347   3.773   8.740   8.798  0.0374 -0.1321  0.3554
54497SOL     OW70348   4.638   3.379   5.795 -0.2972 -0.3111 -0.4312
54497SOL    HW170349   4.681   3.420   5.720 -1.2006 -0.1444 -0.8771
54497SOL    HW270350   4.593   3.452   5.839 -1.8086 -0.7582 -1.1585
54498SOL     OW70351   0.642   6.664   4.917  0.1129 -0.3613  0.3549
54498SOL    HW170352   0.716   6.618   4.956 -0.4492  0.0839  2.0287
54498SOL    HW270353   0.671   6.686   4.828  2.1497  0.1527  1.0998
54499SOL     OW70354   5.684   8.471   7.486  0.4529  0.2807  0.1226
54499SOL    HW170355   5.759   8.441   7.434 -1.2420 -3.3463 -0.5038
54499SOL    HW270356   5.688   8.419   7.566 -0.3744  1.4563  0.9585
54500SOL     OW70357   6.123  10.076   3.631  0.1120  0.0450  0.5259
54500SOL    HW170358   6.118  10.139   3.703 -0.5030 -0.1285  0.6449
54500SOL    HW270359   6.133   9.991   3.673 -2.2483 -0.2960  0.5292
54501SOL     OW70360   0.384   7.433   7.565  0.2690  0.1426 -0.2451
54501SOL    HW170361   0.319   7.381   7.612  0.7767 -0.6037 -0.3691
54501SOL    HW270362   0.413   7.377   7.494  1.2618  0.3592 -0.0200
54502SOL     OW70363   6.033   6.477   4.569  0.2410  0.0948 -0.3767
54502SOL    HW170364   5.938   6.468   4.563  0.1294  1.5555 -1.2274
54502SOL    HW270365   6.060   6.496   4.480  1.5607 -1.8974 -0.4705
54503SOL     OW70366   1.323   7.987   7.380 -0.0603 -0.4068 -0.1596
54503SOL    HW170367   1.368   7.995   7.296 -1.3350 -0.5223 -0.8774
54503SOL    HW270368   1.238   8.029   7.365 -0.7160 -1.3811  0.7519
54504SOL     OW70369   8.015   1.310   9.124 -0.2571  0.6722 -0.2979
54504SOL    HW170370   8.078   1.360   9.175 -0.9947 -0.4039  1.8014
54504SOL    HW270371   7.978   1.248   9.186  0.4043 -2.3427 -2.6758
54505SOL     OW70372  10.154   9.247   6.892  0.3123 -0.2562 -0.2465
54505SOL    HW170373  10.232   9.260   6.838 -0.0228  0.2264 -0.6164
54505SOL    HW270374  10.111   9.170   6.854  1.9924 -2.2608  1.5982
54506SOL     OW70375  10.014   7.888   6.819  0.4379 -0.2702  0.0367
54506SOL    HW170376   9.989   7.931   6.737  2.5023  0.0349 -0.5058
54506SOL    HW270377  10.010   7.957   6.885  1.0570  0.1027 -0.3006
54507SOL     OW70378  11.715   4.892   3.803 -0.9052 -0.3060  0.0776
54507SOL    HW170379  11.666   4.903   3.885  0.6116  1.4697  0.8261
54507SOL    HW270380  11.706   4.976   3.758  1.1206 -0.0150  0.1048
54508SOL     OW70381   8.341   6.607   0.045 -0.0435 -0.5908  0.1119
54508SOL    HW170382   8.250   6.579   0.042 -0.1589 -0.2341  0.2518
54508SOL    HW270383   8.386   6.539   0.096 -0.2545 -0.7023  0.1484
54509SOL     OW70384   3.693  11.816   5.267  0.1244 -1.1414 -0.7305
54509SOL    HW170385   3.712  11.893   5.213  1.4154 -1.0748 -0.2408
54509SOL    HW270386   3.760  11.752   5.241  0.2833 -1.3821  0.2329
54510SOL     OW70387   9.909   0.226   8.188 -0.2184  0.1864 -0.4176
54510SOL    HW170388   9.902   0.172   8.109 -1.4532 -1.8107  0.9861
54510SOL    HW270389  10.003   0.224   8.209 -0.2200 -1.4082 -0.4366
54511SOL     OW70390   6.182   0.971  11.519 -0.0950  0.2075  0.4455
54511SOL    HW170391   6.196   0.886  11.561  0.7110  0.6631  1.1373
54511SOL    HW270392   6.205   1.035  11.586  0.7475  0.9620 -0.5286
54512SOL     OW70393  10.939   2.154   8.845  1.0983  0.1647 -0.0874
54512SOL    HW170394  10.934   2.243   8.810  1.3491  0.0639 -0.3832
54512SOL    HW270395  10.943   2.166   8.940  0.0684  0.4259 -0.0651
54513SOL     OW70396   5.701   3.260  10.319 -0.1279 -0.3086 -0.7688
54513SOL    HW170397   5.686   3.196  10.249 -0.5697  1.6209 -2.5412
54513SOL    HW270398   5.690   3.345  10.276  0.6092  0.9789  1.4462
54514SOL     OW70399   6.761   8.298   6.799 -0.1513  0.6554 -0.0628
54514SOL    HW170400   6.805   8.361   6.741 -2.2172  1.0754 -1.2884
54514SOL    HW270401   6.717   8.353   6.864 -1.0120  0.4611 -0.4541
54515SOL     OW70402   4.462   7.335   7.030  0.6627  0.1664 -0.0885
54515SOL    HW170403   4.443   7.417   6.985  0.2058 -0.8233 -1.8226
54515SOL    HW270404   4.377   7.292   7.040  0.9595 -0.3758  0.2024
54516SOL     OW70405  10.896   4.066   0.555 -0.0194  0.3621 -0.2321
54516SOL    HW170406  10.971   4.014   0.526  1.1681  1.2420  1.1224
54516SOL    HW270407  10.847   4.006   0.611 -1.2014 -0.6834 -2.2688
54517SOL     OW70408   0.221  11.393   0.523 -0.0518  0.1624 -0.7119
54517SOL    HW170409   0.257  11.327   0.464 -0.6275 -2.6792  1.8695
54517SOL    HW270410   0.145  11.351   0.563  0.6611  1.6133  2.5015
54518SOL     OW70411   8.703  10.278   4.400  0.3735 -0.1232 -0.0178
54518SOL    HW170412   8.716  10.194   4.357  0.9443  0.1876 -0.4665
54518SOL    HW270413   8.709  10.258   4.494  0.0863 -0.6438 -0.1072
54519SOL     OW70414   7.322   7.977  10.378 -0.7122 -0.1942 -0.3093
54519SOL    HW170415   7.404   7.957  10.332 -1.0065  0.0262 -0.9342
54519SOL    HW270416   7.351   8.010  10.464 -0.1345  0.1835 -0.6380
54520SOL     OW70417   5.590  11.253   2.493 -0.2082  0.6242 -0.2889
54520SOL    HW170418   5.619  11.325   2.548  0.5448 -0.8840  1.3847
54520SOL    HW270419   5.625  11.273   2.406  1.3105  1.4887  0.4908
54521SOL     OW70420   5.459  10.864  11.530  0.0174 -0.1423 -0.0827
54521SOL    HW170421   5.379  10.902  11.566  0.0420 -0.2752  0.1164
54521SOL    HW270422   5.466  10.901  11.442  1.0992  1.8790  0.7976
54522SOL     OW70423   8.389   0.770   9.270 -0.0977 -0.0337  0.0406
54522SOL    HW170424   8.323   0.791   9.336  0.2149  1.3727 -0.0650
54522SOL    HW270425   8.473   0.786   9.313  0.1263  0.2693 -0.4966
54523SOL     OW70426   1.225   5.355   6.524 -0.5575 -0.4196  0.0759
54523SOL    HW170427   1.262   5.442   6.507 -1.0261 -0.5201 -1.5989
54523SOL    HW270428   1.268   5.327   6.605 -1.0808  1.7399  1.1727
54524SOL     OW70429   3.353  10.030   3.472 -0.0386  0.0747 -0.2723
54524SOL    HW170430   3.279  10.086   3.447 -0.2213  0.8838  1.8171
54524SOL    HW270431   3.430  10.074   3.435 -0.3816  0.5747 -0.4054
54525SOL     OW70432   7.124  11.925   0.597  0.4565  0.6118  0.5222
54525SOL    HW170433   7.072  11.925   0.517  1.9629  0.7701 -0.4872
54525SOL    HW270434   7.083  11.992   0.652  1.3160  2.8645 -1.4206
54526SOL     OW70435  10.698   2.918   7.412 -0.2637  0.4513  0.2498
54526SOL    HW170436  10.742   2.994   7.449  1.7987  0.1125 -1.3442
54526SOL    HW270437  10.657   2.951   7.332 -0.1844  0.0873  0.0575
54527SOL     OW70438  10.856   5.574   9.463  0.6944 -0.2154  0.3060
54527SOL    HW170439  10.932   5.592   9.407  0.0802 -1.9137 -1.1549
54527SOL    HW270440  10.800   5.517   9.411 -1.3722  0.5619  1.5524
54528SOL     OW70441   3.474   5.471   4.244  0.0984  0.2313  0.0813
54528SOL    HW170442   3.458   5.377   4.234 -0.1120  0.4323 -1.9136
54528SOL    HW270443   3.407   5.500   4.306 -0.7571 -0.6999 -0.3717
54529SOL     OW70444   7.553   2.476   6.687 -0.7328 -0.2449  0.1366
54529SOL    HW170445   7.468   2.519   6.697  0.4391  2.4013 -0.4747
54529SOL    HW270446   7.598   2.491   6.770 -0.5003 -0.8286  0.1251
54530SOL     OW70447   6.765  12.373   5.054  0.2557 -0.2254  0.4022
54530SOL    HW170448   6.802  12.438   5.113 -0.9852  0.2705  0.6723
54530SOL    HW270449   6.729  12.305   5.112  0.3410 -0.4685  0.1722
54531SOL     OW70450   8.192   0.491   8.424 -0.3540  0.2606  0.1495
54531SOL    HW170451   8.104   0.466   8.453 -0.1422  1.4223  1.9006
54531SOL    HW270452   8.241   0.409   8.423 -0.3698  0.1235  3.2338
54532SOL     OW70453  10.446   2.305   5.696 -0.2554  0.5058  0.3139
54532SOL    HW170454  10.360   2.264   5.706  0.0986 -0.9223 -1.9514
54532SOL    HW270455  10.508   2.233   5.703  0.6052  1.1645 -0.3211
54533SOL     OW70456   3.119   9.061   8.912 -0.3437 -0.5414 -0.5581
54533SOL    HW170457   3.030   9.025   8.907 -0.2267 -0.6985 -2.1452
54533SOL    HW270458   3.175   8.992   8.876  0.2987 -0.0460 -0.5322
54534SOL     OW70459   9.920   9.115   1.890  0.7455 -0.3467  0.1353
54534SOL    HW170460   9.935   9.123   1.795 -0.8291  0.8018 -0.0553
54534SOL    HW270461   9.983   9.176   1.929  1.0516 -0.4389 -0.2098
54535SOL     OW70462   8.974   8.387  10.897 -0.5437 -0.5063 -0.1855
54535SOL    HW170463   8.967   8.387  10.801 -1.2138  0.4599 -0.1473
54535SOL    HW270464   8.895   8.432  10.927  0.8115  1.3873  0.7136
54536SOL     OW70465  12.421  11.653   3.159 -0.0300  0.4508  0.0184
54536SOL    HW170466  12.510  11.640   3.126 -0.2595 -1.2252 -0.0308
54536SOL    HW270467  12.372  11.689   3.085  0.2517 -0.1138 -0.4453
54537SOL     OW70468   8.691   4.758   7.068  0.4584  0.0301 -0.0087
54537SOL    HW170469   8.647   4.811   7.134  1.2469  0.2181  0.3782
54537SOL    HW270470   8.704   4.817   6.994 -0.3205 -0.1481 -0.2940
54538SOL     OW70471  10.848   4.813  10.404  0.8892  0.2194 -0.3491
54538SOL    HW170472  10.786   4.753  10.447  0.0209  0.0962 -1.7030
54538SOL    HW270473  10.796   4.855  10.335  2.1240  0.7393 -0.9871
54539SOL     OW70474   3.859   3.322   1.580  0.3554 -0.0429  0.7074
54539SOL    HW170475   3.890   3.302   1.491  1.1491 -0.5529  1.0839
54539SOL    HW270476   3.764   3.322   1.572  0.3800  2.6342 -0.7159
54540SOL     OW70477   5.537   1.931   4.721 -0.2789  0.4216 -0.0835
54540SOL    HW170478   5.521   2.010   4.773 -1.5588 -0.3569  0.7478
54540SOL    HW270479   5.526   1.859   4.782 -1.2573 -0.5051 -1.2978
54541SOL     OW70480   7.395   1.196   6.709  0.6009  0.3536  0.4498
54541SOL    HW170481   7.394   1.140   6.787 -0.3987  0.6797  0.6807
54541SOL    HW270482   7.386   1.135   6.636  0.1642  0.1541  0.6643
54542SOL     OW70483   0.597   3.872   0.151 -0.4001 -0.2388 -0.5493
54542SOL    HW170484   0.523   3.929   0.130  1.5224  3.0242  0.6950
54542SOL    HW270485   0.636   3.851   0.067 -0.2246  1.7800 -1.0283
54543SOL     OW70486   0.729   7.044   0.174 -0.0008  0.4330 -0.6370
54543SOL    HW170487   0.647   7.092   0.191 -0.3607 -0.4167  0.1104
54543SOL    HW270488   0.785   7.064   0.249  0.3399  0.7223 -0.9675
54544SOL     OW70489   5.947   2.330   7.537  0.1568 -0.6857  0.6027
54544SOL    HW170490   5.904   2.392   7.477  0.3336 -0.0869  1.0902
54544SOL    HW270491   5.943   2.373   7.622  2.8783 -0.0154  0.4599
54545SOL     OW70492   2.878   9.469   6.877  0.2519  0.4158  0.2436
54545SOL    HW170493   2.797   9.511   6.850 -0.5951 -1.1424  0.2320
54545SOL    HW270494   2.857   9.376   6.880  1.4327  0.1485  2.3818
54546SOL     OW70495   7.081   0.578   6.750 -0.1820 -0.4845 -0.2526
54546SOL    HW170496   7.170   0.549   6.773  0.1001  0.1822 -0.4733
54546SOL    HW270497   7.094   0.645   6.684 -0.8043  0.2676  0.3635
54547SOL     OW70498   7.205   6.329   7.536  0.3584  0.0270  0.3587
54547SOL    HW170499   7.293   6.304   7.509  0.0749  0.1594 -0.7158
54547SOL    HW270500   7.148   6.265   7.495 -0.2648  1.5963 -1.3256
54548SOL     OW70501  10.855  11.707  10.550 -0.0271  0.2933  0.3250
54548SOL    HW170502  10.944  11.739  10.538 -0.1406  0.6361  0.3936
54548SOL    HW270503  10.799  11.780  10.526 -0.3458 -0.5798 -1.7448
54549SOL     OW70504   9.107   4.069   0.944  0.6524 -0.1610 -0.2245
54549SOL    HW170505   9.058   4.112   1.014  1.3685  2.3829 -1.1606
54549SOL    HW270506   9.045   4.007   0.906 -0.6867  0.4557  0.8567
54550SOL     OW70507  10.876   8.666   8.000 -0.0176  0.2155 -0.6526
54550SOL    HW170508  10.837   8.601   8.059  2.0399  1.9056  2.9419
54550SOL    HW270509  10.956   8.624   7.967  0.1517  0.1266 -0.1331
54551SOL     OW70510   7.369   5.366   7.042 -0.1190  0.0796  0.3563
54551SOL    HW170511   7.323   5.361   7.126 -0.7642 -0.4624 -0.0203
54551SOL    HW270512   7.332   5.443   6.999 -0.7413 -0.3942  0.0252
54552SOL     OW70513   4.447   4.361   4.930  0.0404  0.2229  0.6111
54552SOL    HW170514   4.485   4.305   4.998  0.2075 -0.7756 -0.2672
54552SOL    HW270515   4.357   4.376   4.959 -0.0793 -0.7005  0.7726
54553SOL     OW70516   1.259   6.503   4.333  0.7688  0.0941  0.5087
54553SOL    HW170517   1.286   6.413   4.320  0.3839  0.0268  0.1573
54553SOL    HW270518   1.164   6.503   4.317  0.9934  0.8410 -0.9536
54554SOL     OW70519  11.124   8.664   8.359 -0.1509 -0.4142  0.0988
54554SOL    HW170520  11.182   8.711   8.299 -0.4940  0.3169  0.3239
54554SOL    HW270521  11.062   8.731   8.388 -1.4812 -1.2905 -0.6125
54555SOL     OW70522   2.068   7.246  12.306 -0.1687 -0.2330 -0.0046
54555SOL    HW170523   2.064   7.159  12.266  0.2599 -0.3079  0.1067
54555SOL    HW270524   2.041   7.306  12.236  2.6768 -0.1439 -1.1724
54556SOL     OW70525   2.009   5.433   2.087 -0.9506  0.6227 -0.1805
54556SOL    HW170526   1.924   5.444   2.044 -0.4389 -3.0795 -2.5526
54556SOL    HW270527   2.073   5.461   2.021 -0.2512 -1.2940 -0.3675
54557SOL     OW70528  12.013   8.451  12.145  0.2333  1.0177  0.2866
54557SOL    HW170529  11.971   8.375  12.185  1.2859  0.5027  0.4486
54557SOL    HW270530  12.024   8.425  12.053  0.5041  1.0156  0.3210
54558SOL     OW70531  10.064  10.887  10.503  0.1293  0.0745  0.1499
54558SOL    HW170532  10.083  10.844  10.420  0.2907  2.7247 -1.2918
54558SOL    HW270533  10.137  10.947  10.516 -0.2434  0.2128  1.8892
54559SOL     OW70534   2.165   0.302   0.146  0.0072 -0.1523 -0.6296
54559SOL    HW170535   2.118   0.240   0.091 -0.7423 -0.0050 -0.1785
54559SOL    HW270536   2.160   0.264   0.234  0.0955  0.2289 -0.4572
54560SOL     OW70537   2.545   0.902   3.318 -0.2139 -0.1150 -0.8200
54560SOL    HW170538   2.532   0.823   3.265 -1.8945 -0.5958  0.2505
54560SOL    HW270539   2.613   0.877   3.381 -2.2048 -1.5045  0.9073
54561SOL     OW70540  10.040   8.958   0.976  0.6374 -0.3222 -0.2683
54561SOL    HW170541  10.001   8.915   1.052  1.7779  0.1810  0.6467
54561SOL    HW270542  10.120   8.998   1.010  1.3864 -0.4100 -1.8331
54562SOL     OW70543   8.471  10.116   8.728 -0.3520 -0.3894  0.4952
54562SOL    HW170544   8.421  10.188   8.690  0.4832  0.3615  0.7858
54562SOL    HW270545   8.495  10.147   8.815  1.5367 -0.2628 -0.0257
54563SOL     OW70546   0.983   9.664   2.648 -0.2393  0.0192 -0.0518
54563SOL    HW170547   0.952   9.699   2.731  0.9639 -0.1243  0.4857
54563SOL    HW270548   0.904   9.640   2.600 -0.9962  1.3843  0.4786
54564SOL     OW70549   8.025   5.614   2.894 -0.7395 -0.0983  0.0058
54564SOL    HW170550   8.062   5.526   2.897  0.7844  0.4612 -0.9164
54564SOL    HW270551   8.024   5.643   2.985  1.3524 -0.0960  0.0890
54565SOL     OW70552  10.399   9.362   8.459 -0.2117 -0.3049  0.2138
54565SOL    HW170553  10.372   9.315   8.538  1.1620 -0.7806  0.4244
54565SOL    HW270554  10.325   9.355   8.400 -1.8175  1.1703  1.9084
54566SOL     OW70555   1.409   7.764   7.171  0.0409 -0.4148  0.0103
54566SOL    HW170556   1.325   7.739   7.210  0.3102  1.0910  1.6633
54566SOL    HW270557   1.443   7.683   7.134 -2.0751 -1.0886 -0.6061
54567SOL     OW70558   8.411   8.634   2.155  0.1241  0.5376 -0.4818
54567SOL    HW170559   8.399   8.561   2.095  0.4657  0.1604 -0.0990
54567SOL    HW270560   8.365   8.707   2.114 -2.1432 -0.4377  0.1669
54568SOL     OW70561   6.615  12.108  12.541  0.2349 -0.0661  0.0710
54568SOL    HW170562   6.578  12.020  12.550  1.2779 -0.3920  1.8019
54568SOL    HW270563   6.660  12.107  12.457 -3.5124  0.3681 -2.1496
54569SOL     OW70564  11.411   7.479   3.526  0.1712  0.1822 -0.0443
54569SOL    HW170565  11.387   7.414   3.592  0.1855  0.2194 -0.0022
54569SOL    HW270566  11.360   7.557   3.549 -1.0013 -0.2774 -0.9769
54570SOL     OW70567   5.497   6.960   3.575  0.2702 -0.1594 -0.2445
54570SOL    HW170568   5.548   6.910   3.512  1.1788 -0.3080  0.5886
54570SOL    HW270569   5.505   6.911   3.657 -2.0977 -0.7641 -0.3057
54571SOL     OW70570   8.208  12.377   8.523 -0.0920 -0.3180 -0.3553
54571SOL    HW170571   8.201  12.472   8.517  1.6583 -0.1914 -0.8686
54571SOL    HW270572   8.194  12.347   8.434  0.3359 -0.4703 -0.3687
54572SOL     OW70573   3.311   9.450   6.142 -0.6801 -0.2680  0.0646
54572SOL    HW170574   3.343   9.427   6.229 -0.1584 -0.8931 -0.2791
54572SOL    HW270575   3.386   9.437   6.084 -0.8514  0.7153 -0.4005
54573SOL     OW70576   8.878   5.087   4.145  0.0815  0.3901  0.0186
54573SOL    HW170577   8.868   5.092   4.240  0.0631 -2.6351  0.2816
54573SOL    HW270578   8.939   5.157   4.123 -0.6859  1.7973  2.1013
54574SOL     OW70579  12.126   4.686   2.277  0.1706 -0.1317  0.4646
54574SOL    HW170580  12.218   4.692   2.252 -0.0247 -0.9127 -0.4660
54574SOL    HW270581  12.126   4.636   2.359  0.3529 -3.1721 -1.2607
54575SOL     OW70582   2.745   6.624   4.279 -0.2448 -0.4350  0.0480
54575SOL    HW170583   2.784   6.555   4.334 -1.9356 -1.3199  0.1962
54575SOL    HW270584   2.716   6.578   4.200 -1.7098  0.0068  0.2927
54576SOL     OW70585   8.816   3.623  12.155 -0.4557  0.4789  0.0975
54576SOL    HW170586   8.742   3.649  12.210 -0.9214 -0.4842 -0.0523
54576SOL    HW270587   8.782   3.552  12.101  0.6381 -0.1354  0.1857
54577SOL     OW70588   4.479  10.284   1.688  0.4582 -0.3336  0.2811
54577SOL    HW170589   4.514  10.238   1.611 -0.5609 -0.3015 -0.2169
54577SOL    HW270590   4.395  10.242   1.704  0.1233  0.4727  0.6478
54578SOL     OW70591   2.284   5.960   8.998 -0.5424  0.6550 -0.5899
54578SOL    HW170592   2.201   5.917   9.015  0.3063 -1.1495 -0.7255
54578SOL    HW270593   2.315   5.989   9.084 -0.3346 -0.6047 -0.2172
54579SOL     OW70594   7.367   9.473   3.288  0.3127  0.2998  0.0940
54579SOL    HW170595   7.397   9.499   3.200 -1.0962 -0.0259 -0.5038
54579SOL    HW270596   7.353   9.556   3.334  1.7421  0.4688  0.2792
54580SOL     OW70597  10.452   6.975   6.668 -0.0136 -0.3615  0.1718
54580SOL    HW170598  10.379   6.956   6.727  1.4978 -1.2719  1.8485
54580SOL    HW270599  10.491   6.890   6.650 -0.2248 -0.0536 -1.9278
54581SOL     OW70600   8.268  12.447   7.770 -0.3759  0.0512 -0.2492
54581SOL    HW170601   8.254  12.403   7.686 -0.6745  0.1069 -0.2275
54581SOL    HW270602   8.358  12.480   7.765 -0.3303 -0.1025 -0.4734
54582SOL     OW70603   1.678   3.755   1.126  0.0740 -0.2468  1.0571
54582SOL    HW170604   1.744   3.736   1.059  1.0523  2.5639  1.1112
54582SOL    HW270605   1.652   3.669   1.159  3.1716 -1.5216  0.5051
54583SOL     OW70606   0.186   7.349   2.859  0.6554  0.2974 -0.1866
54583SOL    HW170607   0.171   7.436   2.895  2.1327  1.8696 -3.0033
54583SOL    HW270608   0.257   7.312   2.912  1.6495  1.8403 -0.3781
54584SOL     OW70609   3.525   8.746   3.355  0.3489  0.3644 -0.0144
54584SOL    HW170610   3.591   8.810   3.330  1.0823  0.3281  1.6858
54584SOL    HW270611   3.473   8.790   3.422 -1.4125  0.4067 -1.3568
54585SOL     OW70612   7.195   3.630   8.170 -0.2294 -0.4851 -0.2376
54585SOL    HW170613   7.153   3.691   8.231 -0.1194 -3.0265  2.5995
54585SOL    HW270614   7.142   3.635   8.091 -0.9642  2.2712  0.3020
54586SOL     OW70615   8.632  10.664   0.413  0.2319 -0.0391  0.3273
54586SOL    HW170616   8.592  10.596   0.467 -2.8697 -1.3550 -3.1975
54586SOL    HW270617   8.696  10.617   0.360 -0.9130 -0.0072 -1.1326
54587SOL     OW70618   4.442   1.871   8.368  0.2997  0.0111  0.1672
54587SOL    HW170619   4.531   1.873   8.404  0.0520  0.5213  0.7652
54587SOL    HW270620   4.414   1.780   8.378  1.8284 -0.9375 -2.7606
54588SOL     OW70621   7.665   3.382   4.680  0.2254 -0.3923 -0.4557
54588SOL    HW170622   7.748   3.336   4.691  0.3797  0.4466  2.7681
54588SOL    HW270623   7.598   3.317   4.702  0.1474 -0.4363 -0.8147
54589SOL     OW70624   1.038   0.531   3.765  0.1832  0.3757  0.2876
54589SOL    HW170625   0.994   0.493   3.689 -0.5327  0.5760  0.6001
54589SOL    HW270626   1.085   0.458   3.805  0.5077  0.2558 -0.3070
54590SOL     OW70627   5.114   2.318  10.878  0.4252  0.4582 -0.7799
54590SOL    HW170628   5.030   2.339  10.839  0.3974  1.5324 -0.1658
54590SOL    HW270629   5.093   2.265  10.955  0.3185  0.5744 -0.7285
54591SOL     OW70630   2.480   2.570   5.089 -0.2614  0.4240 -0.1751
54591SOL    HW170631   2.545   2.637   5.065  0.1475  0.5145  1.1191
54591SOL    HW270632   2.521   2.521   5.160 -1.8317  0.8236  1.0488
54592SOL     OW70633   4.681   0.590  11.865  0.0477  0.3205  0.1668
54592SOL    HW170634   4.741   0.533  11.818 -1.8902 -2.0890  0.4205
54592SOL    HW270635   4.657   0.658  11.802  1.3735  0.0857 -0.6082
54593SOL     OW70636   6.606  10.951   8.422  0.3729 -0.1445  0.1648
54593SOL    HW170637   6.559  10.972   8.341 -0.7174 -0.0676  0.7960
54593SOL    HW270638   6.683  10.902   8.393  0.9397  1.3843 -1.0527
54594SOL     OW70639   6.468   0.195   4.167  0.6108 -0.4588  0.2400
54594SOL    HW170640   6.444   0.201   4.260  0.4374  0.0670  0.1689
54594SOL    HW270641   6.408   0.131   4.130 -0.8945  0.9965  0.0146
54595SOL     OW70642   0.293   4.279  12.490  0.5664  0.2583  0.0308
54595SOL    HW170643   0.219   4.290  12.549  1.5375  0.3506  1.2783
54595SOL    HW270644   0.284   4.350  12.426  0.7117  1.5812  1.4243
54596SOL     OW70645   1.870  11.796  10.826  0.1731  0.0734  0.3839
54596SOL    HW170646   1.910  11.855  10.762 -0.1792 -1.5173 -1.3911
54596SOL    HW270647   1.785  11.836  10.846 -0.2388  0.0396 -1.1112
54597SOL     OW70648  11.525   4.691   8.961  0.2086  0.7264  0.2088
54597SOL    HW170649  11.520   4.757   9.030  1.8967  1.6865 -0.5370
54597SOL    HW270650  11.550   4.740   8.883 -0.3219 -0.5441 -0.7975
54598SOL     OW70651   9.252   8.484  10.901 -0.0657 -0.0977 -0.0972
54598SOL    HW170652   9.159   8.460  10.902 -0.5028  1.4763  1.2972
54598SOL    HW270653   9.281   8.471  10.991  0.8547  0.2532 -0.3316
54599SOL     OW70654   4.612   9.342  11.007  0.0204 -0.6729  0.6883
54599SOL    HW170655   4.643   9.315  11.093  0.9118  0.2037  0.6652
54599SOL    HW270656   4.646   9.277  10.947 -0.0375 -0.9182  0.9173
54600SOL     OW70657   0.009   8.306   5.681 -0.1185  0.3525  0.3259
54600SOL    HW170658   0.097   8.298   5.717 -0.3413 -4.3485  0.4257
54600SOL    HW270659  -0.048   8.311   5.758 -0.0926  0.7026  0.3247
54601SOL     OW70660  10.626   4.930   9.650 -0.2487  0.7584  0.0613
54601SOL    HW170661  10.628   4.984   9.729  0.1041  0.2275  0.4306
54601SOL    HW270662  10.716   4.932   9.618 -0.2101  0.3233  0.1328
54602SOL     OW70663  10.481   4.587   5.463 -0.5627  0.2769 -0.0474
54602SOL    HW170664  10.558   4.635   5.432 -1.5094  2.0542  0.2096
54602SOL    HW270665  10.509   4.547   5.545 -0.3263  2.2983  0.9285
54603SOL     OW70666   2.495   2.992   9.918  0.0431  1.0434 -0.0426
54603SOL    HW170667   2.423   2.935   9.944 -0.6628  2.4967  1.4002
54603SOL    HW270668   2.552   2.936   9.865 -0.8567 -0.8276  0.8620
54604SOL     OW70669   5.797   9.719  11.394  0.3872  0.4166  0.6097
54604SOL    HW170670   5.728   9.673  11.345  1.7124  0.2278 -1.1773
54604SOL    HW270671   5.767   9.810  11.399  0.5128  0.5972 -1.2234
54605SOL     OW70672   3.212  12.206   4.570  0.1170  0.1635 -0.1389
54605SOL    HW170673   3.183  12.117   4.554  1.0265 -0.3035  0.7290
54605SOL    HW270674   3.306  12.199   4.584 -0.1330  0.8626  2.5179
54606SOL     OW70675   1.656   3.097   6.669 -0.4538 -0.1640 -0.0210
54606SOL    HW170676   1.699   3.123   6.588 -1.0120  0.5746 -0.0879
54606SOL    HW270677   1.609   3.175   6.697 -0.0128 -0.3127  1.1822
54607SOL     OW70678   0.547   2.673   8.104 -0.4103  0.3580  0.2688
54607SOL    HW170679   0.515   2.677   8.014  0.9330  3.6100 -0.2131
54607SOL    HW270680   0.612   2.603   8.103  0.4840  1.1439 -1.6908
54608SOL     OW70681   6.465  11.519   1.379 -0.6777 -0.3056  0.9461
54608SOL    HW170682   6.396  11.562   1.430 -0.8805  0.7050 -0.1431
54608SOL    HW270683   6.464  11.563   1.294 -0.8271 -2.4088 -0.2101
54609SOL     OW70684   6.754   3.136   2.485  0.5487  0.0765 -0.0505
54609SOL    HW170685   6.824   3.197   2.508  1.0365 -0.3626 -0.3377
54609SOL    HW270686   6.725   3.166   2.399  0.3201  0.3146  0.1091
54610SOL     OW70687   6.412   2.719   2.869 -0.0094  0.1271 -0.0912
54610SOL    HW170688   6.468   2.700   2.944 -0.2715 -0.9459 -0.1573
54610SOL    HW270689   6.323   2.720   2.904 -0.2200 -1.2796 -0.5235
54611SOL     OW70690  10.959   5.452   6.751  0.0861  0.4426 -0.1863
54611SOL    HW170691  10.897   5.515   6.789  0.4953  0.6123  0.2021
54611SOL    HW270692  10.974   5.388   6.821 -0.9638 -0.5626 -0.8527
54612SOL     OW70693   5.129  12.502   6.668  0.2388 -0.2723  0.2725
54612SOL    HW170694   5.209  12.540   6.703  0.9556 -2.1817  0.8410
54612SOL    HW270695   5.061  12.529   6.730  0.3411  1.6592 -0.4109
54613SOL     OW70696  10.664  10.176   7.393 -0.0596  0.5030 -0.0666
54613SOL    HW170697  10.683  10.157   7.301  1.2967 -0.3619  0.3579
54613SOL    HW270698  10.607  10.105   7.421 -1.6324  1.5148 -0.5703
54614SOL     OW70699   0.857   7.537   6.595  0.4868 -0.2196 -0.2082
54614SOL    HW170700   0.832   7.534   6.502  0.4549 -3.0133 -0.1897
54614SOL    HW270701   0.777   7.515   6.642  0.9942 -1.0047  0.3204
54615SOL     OW70702   4.751  10.113   1.282  0.0440 -0.2104 -0.1448
54615SOL    HW170703   4.694  10.108   1.205  1.5702  0.8974 -1.4055
54615SOL    HW270704   4.827  10.060   1.259  1.0963  1.1561  0.0279
54616SOL     OW70705   3.368   2.173   6.956  0.1203 -0.3162 -0.2058
54616SOL    HW170706   3.356   2.195   6.864 -0.4022 -0.2910 -0.1389
54616SOL    HW270707   3.462   2.164   6.967  0.4624  2.4852 -0.0985
54617SOL     OW70708  12.072   2.569   6.875  0.0243  0.6146  0.1258
54617SOL    HW170709  12.146   2.552   6.816  0.3087  1.4106  0.2419
54617SOL    HW270710  11.996   2.538   6.826  0.4480 -0.4506  0.1046
54618SOL     OW70711   9.332   7.537   8.383 -0.0275 -0.2636 -0.1420
54618SOL    HW170712   9.377   7.456   8.359  2.2006  1.0487 -0.7269
54618SOL    HW270713   9.356   7.552   8.475  0.5994  0.3499 -0.3992
54619SOL     OW70714  11.997   5.882   9.821 -0.1587  0.1492  0.2071
54619SOL    HW170715  11.994   5.889   9.726  2.2082  0.9094  0.1229
54619SOL    HW270716  12.080   5.922   9.846 -0.3430 -0.7205  2.5422
54620SOL     OW70717   2.633  10.267   6.389 -0.2392  0.2204 -0.2931
54620SOL    HW170718   2.622  10.300   6.299 -0.1319 -0.3559 -0.5216
54620SOL    HW270719   2.568  10.316   6.440  0.8519  1.7871 -0.3516
54621SOL     OW70720   8.355   3.886  12.320 -0.1031 -0.0255  0.1981
54621SOL    HW170721   8.385   3.916  12.407 -0.0423  2.3571 -0.5537
54621SOL    HW270722   8.287   3.949  12.296 -1.0739 -1.4626 -0.9346
54622SOL     OW70723  12.486   6.480   5.391  0.8212  0.5365 -0.3916
54622SOL    HW170724  12.431   6.403   5.400  1.3190  0.3361  1.4142
54622SOL    HW270725  12.575   6.446   5.389  1.0178  1.0249 -0.2340
54623SOL     OW70726   0.886   3.816   7.153 -0.7643 -0.3405 -0.2196
54623SOL    HW170727   0.857   3.744   7.096  1.0393  0.8386 -2.8639
54623SOL    HW270728   0.953   3.778   7.209 -1.0186 -1.0677 -0.4005
54624SOL     OW70729   0.032   6.600   8.877 -0.3607  0.3852 -0.3861
54624SOL    HW170730   0.010   6.523   8.928 -0.5287  0.9662  0.4455
54624SOL    HW270731  -0.035   6.604   8.808 -0.1661 -0.3696 -0.6308
54625SOL     OW70732   5.433   9.451   0.569 -0.5377 -0.5940  0.0913
54625SOL    HW170733   5.527   9.468   0.560 -0.3469 -0.1661  2.1846
54625SOL    HW270734   5.394   9.538   0.584 -1.3099 -0.7457 -0.9383
54626SOL     OW70735   5.068   5.052   1.434 -0.6975  0.4244 -0.2879
54626SOL    HW170736   5.030   5.070   1.520 -0.7202 -2.9989  0.5450
54626SOL    HW270737   5.162   5.061   1.447 -0.7393  0.6481 -0.1250
54627SOL     OW70738  11.441   5.020   4.759 -0.4133 -0.2805 -0.1063
54627SOL    HW170739  11.356   4.985   4.734 -0.5150 -1.0279  1.1907
54627SOL    HW270740  11.426   5.114   4.768 -0.8322 -0.2651 -0.9088
54628SOL     OW70741   7.372  10.588   9.468 -0.3865 -0.1281 -0.6629
54628SOL    HW170742   7.284  10.622   9.450 -0.6993  0.9212  2.2286
54628SOL    HW270743   7.363  10.493   9.459 -2.2148 -0.1594  0.8108
54629SOL     OW70744   4.962   6.892   5.087 -0.1139  0.3888 -0.5053
54629SOL    HW170745   4.917   6.821   5.040 -1.6907  3.4982 -4.3241
54629SOL    HW270746   5.049   6.895   5.048  0.1090  0.2675 -0.0175
54630SOL     OW70747   5.890  12.056  12.198  0.2872  0.3114  0.5616
54630SOL    HW170748   5.826  12.000  12.155  0.8592 -1.1434  1.5313
54630SOL    HW270749   5.949  12.084  12.128 -0.4242  0.2999 -0.0520
54631SOL     OW70750  11.143   8.060  12.225 -0.2777  0.3648 -0.1336
54631SOL    HW170751  11.175   8.130  12.282 -2.2378  0.3201  1.1575
54631SOL    HW270752  11.090   8.105  12.159 -1.2173  0.1719  0.4644
54632SOL     OW70753  12.550   2.899   6.871 -0.3418  0.2395  0.0642
54632SOL    HW170754  12.637   2.880   6.836 -0.7464 -1.1065 -0.2673
54632SOL    HW270755  12.550   2.860   6.958  0.0390  1.9801  0.8814
54633SOL     OW70756   2.742  11.349   8.555  0.0007  0.8485 -0.1447
54633SOL    HW170757   2.687  11.285   8.601 -1.4341  0.9520 -1.6236
54633SOL    HW270758   2.783  11.299   8.485  1.2858  0.9355  0.5150
54634SOL     OW70759   1.558   2.863   4.573 -0.1149  0.4341  0.6090
54634SOL    HW170760   1.576   2.769   4.570 -0.7979  0.3104 -0.6181
54634SOL    HW270761   1.547   2.883   4.666 -0.1126 -0.7309  0.8727
54635SOL     OW70762   6.125  11.977  10.979  0.3688 -0.4618  0.1736
54635SOL    HW170763   6.218  11.972  11.000  0.1426 -0.2285  1.3029
54635SOL    HW270764   6.083  12.003  11.061 -0.5320  1.0274 -0.7095
54636SOL     OW70765   0.824   0.156   3.347  0.3853 -0.0011  0.3550
54636SOL    HW170766   0.829   0.123   3.257 -1.8516 -0.5248  0.3557
54636SOL    HW270767   0.904   0.208   3.358  0.0784  1.2776 -2.4337
54637SOL     OW70768   9.042   5.832   6.820  0.3532 -0.6509  0.1842
54637SOL    HW170769   9.051   5.773   6.895 -0.2624  1.0703  1.6726
54637SOL    HW270770   9.124   5.882   6.819  0.8168 -1.3699 -0.9927
54638SOL     OW70771   3.825  12.487   5.608  0.4282 -1.1507 -0.0714
54638SOL    HW170772   3.911  12.499   5.567  1.2538 -0.9643  1.6638
54638SOL    HW270773   3.806  12.571   5.649 -0.7397 -1.0969 -0.6759
54639SOL     OW70774   6.620   2.221   7.089  0.1292  0.5979 -0.2194
54639SOL    HW170775   6.561   2.241   7.161  1.1499  1.5899  0.3781
54639SOL    HW270776   6.586   2.272   7.015 -2.4836 -2.4206 -1.3047
54640SOL     OW70777  12.293   6.773   7.689 -0.1029  0.0513  0.4475
54640SOL    HW170778  12.258   6.850   7.644  0.9605 -0.1672 -0.8027
54640SOL    HW270779  12.317   6.806   7.776 -0.4788  0.9174  0.2355
54641SOL     OW70780   1.273   0.414   3.191  0.6759 -0.2676  0.2097
54641SOL    HW170781   1.285   0.354   3.117  0.8871  1.2691 -1.0831
54641SOL    HW270782   1.329   0.379   3.260  0.6213 -1.6590 -0.4257
54642SOL     OW70783   8.058  10.832   2.728  0.3061 -0.4569  0.0657
54642SOL    HW170784   8.113  10.754   2.732 -0.3138 -0.8375  2.4441
54642SOL    HW270785   7.969  10.797   2.718  0.1727  0.0222 -0.4533
54643SOL     OW70786   4.439   4.548  11.798  0.2011 -0.1797 -0.3821
54643SOL    HW170787   4.458   4.557  11.892  0.9413 -0.3383 -0.5104
54643SOL    HW270788   4.410   4.458  11.788  0.8367 -0.3840 -0.4189
54644SOL     OW70789  10.847  11.585  10.190  0.0867 -0.5340  0.3234
54644SOL    HW170790  10.895  11.575  10.272 -0.6923 -0.6732  0.7773
54644SOL    HW270791  10.861  11.502  10.145 -0.4621 -0.9349  0.8649
54645SOL     OW70792   6.821   4.623   1.943 -0.3640 -0.3977  0.8132
54645SOL    HW170793   6.916   4.628   1.942 -0.3866  0.1554 -0.8717
54645SOL    HW270794   6.802   4.530   1.957  0.4299 -0.6907 -0.0026
54646SOL     OW70795  12.141  11.662   3.779 -0.0834  0.0696  0.0397
54646SOL    HW170796  12.151  11.634   3.688  0.1311 -1.3518  0.4719
54646SOL    HW270797  12.060  11.620   3.808 -0.9356  1.6878  0.1101
54647SOL     OW70798   3.868   9.313   4.421  0.3255  0.7814 -0.6462
54647SOL    HW170799   3.796   9.255   4.445  0.1046  0.8150 -1.2059
54647SOL    HW270800   3.854   9.392   4.473  0.5958  0.3597  0.0744
54648SOL     OW70801   5.148   9.023   8.353 -0.1909  0.2457  0.5575
54648SOL    HW170802   5.159   9.091   8.419 -1.4682 -0.2428  1.3028
54648SOL    HW270803   5.140   9.071   8.270  1.4044  0.8631  0.7327
54649SOL     OW70804   4.595   5.596   2.199  0.2644  0.1284  0.2768
54649SOL    HW170805   4.634   5.548   2.126 -0.5240  1.3364 -0.9979
54649SOL    HW270806   4.542   5.532   2.245 -0.8440 -0.2400 -1.4284
54650SOL     OW70807   0.072   7.093   4.969 -0.3888 -0.2795 -0.2016
54650SOL    HW170808   0.030   7.010   4.945  0.0035 -0.9543  1.3245
54650SOL    HW270809   0.166   7.073   4.965 -0.3007 -0.2291  1.1294
54651SOL     OW70810  11.999  12.371  10.175 -0.2589 -0.4853 -0.3424
54651SOL    HW170811  12.027  12.425  10.101  0.7957  0.4779  0.7273
54651SOL    HW270812  12.034  12.415  10.252 -1.5223 -1.3414  0.7720
54652SOL     OW70813   0.304   2.585   8.279 -0.0672  0.4045  0.1720
54652SOL    HW170814   0.247   2.635   8.220  0.0197 -0.4193 -0.6317
54652SOL    HW270815   0.328   2.647   8.348 -2.4121  0.6493  0.8767
54653SOL     OW70816   8.406  11.813   3.725  0.2139  0.3045 -0.2128
54653SOL    HW170817   8.428  11.815   3.818  2.0746  0.3817 -0.6074
54653SOL    HW270818   8.336  11.748   3.718  0.0696  0.2757  1.2268
54654SOL     OW70819   9.321   1.582   8.240  0.2471  0.3209 -0.4979
54654SOL    HW170820   9.343   1.667   8.279  0.5156 -0.0039  0.0600
54654SOL    HW270821   9.404   1.547   8.209  0.7988 -1.3882  2.5619
54655SOL     OW70822   8.461   1.602  12.148 -0.3543 -0.5521  0.7943
54655SOL    HW170823   8.387   1.545  12.129 -0.8590  0.6118 -0.9804
54655SOL    HW270824   8.422   1.683  12.182 -0.0496  0.4598 -1.1043
54656SOL     OW70825   3.733  11.222   3.067  0.3796  0.4143 -0.6728
54656SOL    HW170826   3.738  11.151   3.131  2.3366 -2.0465 -3.2652
54656SOL    HW270827   3.812  11.274   3.083  1.9165 -1.3178 -2.0888
54657SOL     OW70828   6.760   0.771   5.070  0.0843  0.7795 -0.3562
54657SOL    HW170829   6.801   0.711   5.133  0.3520 -0.4542 -1.6565
54657SOL    HW270830   6.772   0.858   5.108  0.0252  0.0639  1.4056
54658SOL     OW70831   8.295   4.068   9.315 -0.2686 -0.4807  0.0656
54658SOL    HW170832   8.241   4.045   9.390 -1.8386 -1.3818 -1.2588
54658SOL    HW270833   8.288   3.993   9.256  0.8051  0.2372 -1.0421
54659SOL     OW70834   3.646  11.972   1.069  0.0934 -0.1254  0.1759
54659SOL    HW170835   3.608  11.897   1.023 -1.3056  0.6481  0.0326
54659SOL    HW270836   3.647  12.041   1.003 -2.1548  1.0744  1.3058
54660SOL     OW70837   4.776  11.342   8.829  0.4096 -0.2552 -0.1125
54660SOL    HW170838   4.684  11.345   8.804  0.5197  0.0229 -0.4994
54660SOL    HW270839   4.782  11.398   8.906  0.2471 -0.3027 -0.0652
54661SOL     OW70840   3.080   6.003   1.507 -0.1406  0.1082  0.2953
54661SOL    HW170841   3.161   5.990   1.556  0.1097  0.9801  0.1324
54661SOL    HW270842   3.085   5.940   1.435  1.2996  1.4017 -0.8104
54662SOL     OW70843   2.062   4.764   6.208  0.4748 -0.3878  0.5235
54662SOL    HW170844   2.101   4.787   6.124  0.5662 -1.7405  0.1605
54662SOL    HW270845   1.995   4.830   6.224 -1.0103 -1.2777 -1.6575
54663SOL     OW70846   8.397   2.482   0.203 -0.0373  0.0352 -0.5101
54663SOL    HW170847   8.371   2.509   0.115 -1.8167 -0.3347 -0.1370
54663SOL    HW270848   8.316   2.449   0.243  0.5765  0.7881  1.4855
54664SOL     OW70849   6.380   6.615  11.323  0.8705 -0.8433  0.0383
54664SOL    HW170850   6.423   6.603  11.238 -0.1323 -1.1189 -0.4423
54664SOL    HW270851   6.452   6.631  11.384  1.7378 -2.1811 -0.5763
54665SOL     OW70852   5.747   2.689   0.008  0.0431  0.0215 -0.3033
54665SOL    HW170853   5.741   2.641  -0.075 -0.4097  1.7503 -1.3308
54665SOL    HW270854   5.840   2.707   0.018  0.2080 -0.9640  0.0525
54666SOL     OW70855   7.030   8.047  11.209  0.1039  0.0178 -0.5137
54666SOL    HW170856   7.009   8.003  11.127  0.2977 -1.0375 -0.0050
54666SOL    HW270857   7.126   8.054  11.209  0.0850  0.3130 -0.5175
54667SOL     OW70858  11.272   3.413   9.998  0.6363  0.4274 -0.1423
54667SOL    HW170859  11.283   3.373  10.084  2.7345  1.2351  0.0233
54667SOL    HW270860  11.361   3.432   9.969 -0.1468  2.8058 -1.2176
54668SOL     OW70861   7.162   4.161   9.725  0.3991  0.0701  0.2039
54668SOL    HW170862   7.204   4.205   9.799 -0.2742  2.4346 -0.7320
54668SOL    HW270863   7.077   4.205   9.716  0.3744 -0.3111 -1.8238
54669SOL     OW70864   7.003   2.683  12.165 -0.0015 -0.7831 -0.0387
54669SOL    HW170865   6.917   2.670  12.126 -0.1517  0.6656 -0.2278
54669SOL    HW270866   7.006   2.621  12.238 -1.8700  0.2883  1.0149
54670SOL     OW70867   0.465  10.426  11.553 -0.1524  0.1587  0.0929
54670SOL    HW170868   0.426  10.447  11.638  0.4038  0.8258  0.1967
54670SOL    HW270869   0.507  10.341  11.567 -1.5140 -0.5625 -0.0212
54671SOL     OW70870  11.614   2.881   0.494 -0.1808  0.0833  0.5903
54671SOL    HW170871  11.676   2.949   0.469 -0.3246 -0.9430 -3.1902
54671SOL    HW270872  11.667   2.811   0.530  0.0761  1.5589  3.3825
54672SOL     OW70873   1.280   9.424   5.279 -0.6359  0.0684  0.2979
54672SOL    HW170874   1.321   9.350   5.323  0.8747  1.1189  0.7523
54672SOL    HW270875   1.191   9.428   5.315 -0.8026 -1.6010  0.1301
54673SOL     OW70876  11.500   7.518  12.027 -0.6369  0.1558  0.4557
54673SOL    HW170877  11.428   7.461  12.053 -1.1542  0.5619 -0.0493
54673SOL    HW270878  11.563   7.460  11.984  0.2419 -0.5267  2.5489
54674SOL     OW70879   7.613   2.985   1.750  0.5865  0.6172 -0.1953
54674SOL    HW170880   7.673   2.997   1.824  0.2560  2.3632 -0.1579
54674SOL    HW270881   7.532   2.953   1.790  0.8586  0.1837  0.0139
54675SOL     OW70882  11.863   0.748  11.207 -0.4103  0.1093  0.5386
54675SOL    HW170883  11.904   0.811  11.266 -3.8394  1.4671  1.7058
54675SOL    HW270884  11.883   0.782  11.119  0.1997  1.1677  1.0637
54676SOL     OW70885   3.845   7.604   0.693 -0.0328 -0.0869 -0.2491
54676SOL    HW170886   3.828   7.553   0.613 -2.4105  0.8191 -0.4017
54676SOL    HW270887   3.940   7.602   0.702  0.3828  0.0858 -3.3272
54677SOL     OW70888   5.782   3.042  12.010  0.1439  0.4813  0.4727
54677SOL    HW170889   5.719   3.014  11.943  0.2605 -1.8496  1.2513
54677SOL    HW270890   5.801   3.133  11.988 -1.8211  0.5902 -1.0847
54678SOL     OW70891   8.833   3.976   7.627  0.1952  0.0413  0.0631
54678SOL    HW170892   8.895   3.925   7.680 -0.1798 -1.4993 -0.9442
54678SOL    HW270893   8.766   4.003   7.689  1.3593  0.9407  0.9850
54679SOL     OW70894   3.295  12.126   1.472  0.1648  0.2405 -0.4228
54679SOL    HW170895   3.347  12.082   1.405  0.8504  0.8233 -0.2909
54679SOL    HW270896   3.297  12.067   1.547 -1.5279 -0.9373 -1.2447
54680SOL     OW70897   6.061  10.106   5.813  0.1367 -0.2821  0.2611
54680SOL    HW170898   5.977  10.074   5.780  0.5432  0.2111 -1.3012
54680SOL    HW270899   6.045  10.199   5.831  0.3044 -0.2275  0.1280
54681SOL     OW70900  12.192   9.142   3.720 -0.3348 -0.1991  1.0062
54681SOL    HW170901  12.192   9.063   3.667 -0.7302 -0.8242  1.9281
54681SOL    HW270902  12.135   9.122   3.794 -0.2868  0.8758  1.3518
54682SOL     OW70903   7.651  11.264   1.193 -0.3650  0.1255 -0.3016
54682SOL    HW170904   7.565  11.287   1.227 -0.8537 -1.7452 -0.1558
54682SOL    HW270905   7.634  11.230   1.105  0.4862  1.6400 -1.0885
54683SOL     OW70906   3.367   7.348   7.017 -0.2188 -0.4475 -0.1102
54683SOL    HW170907   3.332   7.337   7.106 -0.0391  2.1918  0.3760
54683SOL    HW270908   3.291   7.339   6.960 -0.5945 -0.7307  0.4282
54684SOL     OW70909   7.591  12.021   6.131 -0.0056 -0.1075 -0.2971
54684SOL    HW170910   7.504  12.021   6.091 -0.6172  1.2205  0.9147
54684SOL    HW270911   7.579  11.979   6.216  0.6994 -0.5477 -0.4051
54685SOL     OW70912   2.597  10.168   9.434  0.3307  0.4187  0.9747
54685SOL    HW170913   2.664  10.172   9.502  0.2067  0.7149  1.0845
54685SOL    HW270914   2.530  10.109   9.469  0.9459 -0.5954  0.4840
54686SOL     OW70915   4.256   2.427   0.743  0.2447  0.1164  0.2422
54686SOL    HW170916   4.250   2.353   0.684  1.0491 -0.4829  0.8775
54686SOL    HW270917   4.216   2.396   0.825 -0.1215  0.6516  0.2694
54687SOL     OW70918   7.318   7.669   1.540  0.4514  0.0697 -0.7955
54687SOL    HW170919   7.298   7.613   1.465 -2.0219  0.0889 -0.2204
54687SOL    HW270920   7.259   7.639   1.609  0.9699  1.6247  0.3806
54688SOL     OW70921   0.004  10.388   9.692  0.5106 -0.2386  0.2152
54688SOL    HW170922  -0.002  10.392   9.787  1.6054 -1.9000  0.4030
54688SOL    HW270923  -0.071  10.336   9.665 -0.1467  0.7509  0.0887
54689SOL     OW70924  10.860   3.068   4.886  0.4819  0.3772 -0.4689
54689SOL    HW170925  10.915   3.125   4.939  0.6250 -0.3585  0.1869
54689SOL    HW270926  10.800   3.128   4.840  0.4339  1.0279  0.4253
54690SOL     OW70927   5.400   5.402   5.933  0.3241 -1.1392 -0.0291
54690SOL    HW170928   5.391   5.427   6.025 -0.4335 -1.7539  0.0846
54690SOL    HW270929   5.381   5.482   5.884  1.2291 -0.6836  0.3487
54691SOL     OW70930   6.291  10.884   5.534  0.5217 -1.1519 -0.6346
54691SOL    HW170931   6.198  10.892   5.555  0.9654  1.7023  0.6326
54691SOL    HW270932   6.333  10.864   5.617  1.3175  0.5051 -0.6157
54692SOL     OW70933  12.484   1.206  10.744  0.1152  0.4474 -0.6931
54692SOL    HW170934  12.436   1.256  10.810 -1.5339 -0.3480 -1.2562
54692SOL    HW270935  12.546   1.269  10.707  0.8567  1.0156  1.3268
54693SOL     OW70936   0.767   7.581   6.346  0.6426 -0.1878  0.3971
54693SOL    HW170937   0.720   7.658   6.314  0.6010 -0.4191 -0.1090
54693SOL    HW270938   0.714   7.506   6.318  0.9274 -0.4190  0.4666
54694SOL     OW70939   3.921   7.442   2.765  0.6120 -0.3342  0.3323
54694SOL    HW170940   3.991   7.491   2.808 -0.1402  0.8145  0.2995
54694SOL    HW270941   3.877   7.396   2.836  1.0515 -0.6181  0.4246
54695SOL     OW70942   0.992  12.348  11.200 -0.2413 -0.2965 -0.1651
54695SOL    HW170943   0.915  12.296  11.223 -0.9208  1.2452  1.2485
54695SOL    HW270944   0.980  12.369  11.107 -1.3590 -0.3630 -0.0448
54696SOL     OW70945   3.229  10.045   2.166  0.5487 -0.8302 -0.6206
54696SOL    HW170946   3.138  10.037   2.195  0.9056 -0.0199  0.8440
54696SOL    HW270947   3.227  10.112   2.097  0.3253  1.0439  1.1136
54697SOL     OW70948   6.957  11.715   7.041  0.3338 -0.1077 -0.4034
54697SOL    HW170949   6.937  11.756   6.957  0.9126 -0.5082 -0.7399
54697SOL    HW270950   6.959  11.789   7.103  1.9767  0.4868 -1.1106
54698SOL     OW70951   4.253  10.936   5.379 -0.4640 -0.1334  0.3553
54698SOL    HW170952   4.290  10.990   5.449  0.3755  2.0198 -1.5850
54698SOL    HW270953   4.183  10.887   5.420  2.1711 -1.6820  3.4418
54699SOL     OW70954   8.972   3.969  12.315  0.5670 -0.5561 -1.2010
54699SOL    HW170955   9.044   4.008  12.365 -2.0424 -0.2805  2.8378
54699SOL    HW270956   8.942   4.039  12.258  1.6742  0.2622 -0.8189
54700SOL     OW70957   8.353   3.667  10.811 -0.0949 -0.2125  0.4830
54700SOL    HW170958   8.296   3.624  10.874 -0.0956 -0.4447  0.3234
54700SOL    HW270959   8.338   3.621  10.728  0.3327 -0.2887  0.4420
54701SOL     OW70960   4.639  10.974   0.746 -0.2654  0.3232 -0.4977
54701SOL    HW170961   4.653  10.899   0.688 -0.1629 -0.0965  0.0597
54701SOL    HW270962   4.634  10.936   0.834 -0.2534  0.9671 -0.2101
54702SOL     OW70963   1.588  10.170  11.941 -0.2819 -0.2617  0.1052
54702SOL    HW170964   1.660  10.158  11.880  0.0470  0.0678  0.4197
54702SOL    HW270965   1.628  10.212  12.018 -0.5190 -1.4640  0.9102
54703SOL     OW70966   3.256   9.372   4.874  0.3303 -0.4166 -0.2446
54703SOL    HW170967   3.273   9.383   4.781 -0.3129  0.8044 -0.2409
54703SOL    HW270968   3.342   9.378   4.915  0.5241 -0.0943 -0.6921
54704SOL     OW70969   2.781  11.299  11.539  0.1714 -0.4878 -0.1129
54704SOL    HW170970   2.735  11.223  11.503  0.3449 -0.3884 -0.5563
54704SOL    HW270971   2.721  11.372  11.527  0.1155 -0.5059  0.0601
54705SOL     OW70972   7.184   9.015   5.435 -0.2996  0.2715 -0.3919
54705SOL    HW170973   7.222   9.007   5.522 -1.8578  0.1465  0.3160
54705SOL    HW270974   7.122   8.943   5.428 -2.9078  2.3091 -0.1064
54706SOL     OW70975   5.775   2.648   8.824  0.3024 -0.4214  0.2917
54706SOL    HW170976   5.720   2.572   8.841 -0.1259  0.0626  1.1527
54706SOL    HW270977   5.860   2.626   8.861 -0.1697 -0.0116  1.6651
54707SOL     OW70978   6.981   6.306   4.671 -0.3605  0.0186 -0.0394
54707SOL    HW170979   6.961   6.375   4.734  2.8801  1.3878 -0.3534
54707SOL    HW270980   6.982   6.226   4.724 -0.8514  0.6586  0.9912
54708SOL     OW70981   4.466   3.896  12.113  0.6425  0.2093 -0.0025
54708SOL    HW170982   4.422   3.888  12.029 -0.1355  0.0311  0.4162
54708SOL    HW270983   4.525   3.820  12.116 -1.7531 -1.7522  1.0134
54709SOL     OW70984   1.073   1.577   4.907  0.0481 -0.1883  0.6492
54709SOL    HW170985   1.118   1.633   4.970  1.6032 -1.5833  0.8465
54709SOL    HW270986   1.028   1.512   4.960 -0.2744 -0.1947  0.3714
54710SOL     OW70987  10.749   1.455   7.864  0.3710 -0.3073  0.8359
54710SOL    HW170988  10.680   1.522   7.870  0.3455 -0.1539 -0.7010
54710SOL    HW270989  10.722   1.401   7.790  1.1105 -1.1952  1.2086
54711SOL     OW70990   6.458   4.367   6.413 -0.0872  0.3256 -0.0064
54711SOL    HW170991   6.519   4.379   6.341  0.9288 -0.1715  0.7487
54711SOL    HW270992   6.513   4.343   6.488 -0.9671  1.9325  1.2395
54712SOL     OW70993  11.213   7.179   9.413  0.1654  0.2671 -0.0342
54712SOL    HW170994  11.144   7.113   9.407  0.5100 -0.3004  1.6381
54712SOL    HW270995  11.262   7.170   9.331 -1.3950  0.3173 -1.0079
54713SOL     OW70996   4.635  11.223   2.619  0.0088 -0.5709 -0.4134
54713SOL    HW170997   4.641  11.268   2.704 -1.0486  0.0348 -0.6494
54713SOL    HW270998   4.571  11.273   2.569  1.6538 -0.0538 -2.1300
54714SOL     OW70999   1.928   4.439   8.610  0.1448 -0.9976  0.0545
54714SOL    HW171000   1.883   4.370   8.659  0.2285 -1.3316 -0.3338
54714SOL    HW271001   1.947   4.506   8.675 -1.9959 -0.2747  0.0168
54715SOL     OW71002   2.408   8.649   1.441  0.0160  0.1152  0.1605
54715SOL    HW171003   2.351   8.607   1.505  0.9868 -1.3845  0.0929
54715SOL    HW271004   2.460   8.711   1.493  0.4663 -0.7465  0.7752
54716SOL     OW71005   9.838   1.626   5.538 -0.2842 -0.6607 -0.0220
54716SOL    HW171006   9.748   1.617   5.570 -0.3627  0.5713  0.1593
54716SOL    HW271007   9.830   1.620   5.443 -0.4463 -1.3555  0.0299
54717SOL     OW71008   7.111   3.809  12.552  0.9156  0.0952 -0.1545
54717SOL    HW171009   7.079   3.880  12.496  2.1432 -0.0028 -1.0249
54717SOL    HW271010   7.055   3.734  12.530  0.8452  0.2866 -0.6379
54718SOL     OW71011  11.526  10.173  11.411  0.0290  0.2497  0.1216
54718SOL    HW171012  11.522  10.150  11.504  0.5539 -0.5598 -0.0451
54718SOL    HW271013  11.560  10.263  11.409 -0.6493  0.5233  0.7354
54719SOL     OW71014  12.181   6.511   7.367 -0.5426 -0.2718 -0.2984
54719SOL    HW171015  12.152   6.525   7.457  0.1656  0.5803 -0.1860
54719SOL    HW271016  12.123   6.568   7.315 -0.1106  0.2282 -0.2387
54720SOL     OW71017   2.210   7.551   7.929 -0.0222  0.0593  0.3329
54720SOL    HW171018   2.274   7.554   7.858  0.6735  0.5957  0.9734
54720SOL    HW271019   2.146   7.619   7.908  0.9039  1.1159  0.8899
54721SOL     OW71020   0.886   9.063   1.420 -0.1079  0.0071 -0.0146
54721SOL    HW171021   0.903   9.001   1.490  0.9414 -0.2139 -0.4478
54721SOL    HW271022   0.842   9.012   1.352 -1.8055  0.3799  0.7372
54722SOL     OW71023  10.464   7.685   7.001 -0.8035  0.8989  0.0869
54722SOL    HW171024  10.404   7.613   7.020  0.1305 -0.0144 -0.3091
54722SOL    HW271025  10.532   7.646   6.946 -0.5360  2.2019 -0.5705
54723SOL     OW71026  10.740   3.466   3.866 -0.1876  0.1338  0.0931
54723SOL    HW171027  10.649   3.480   3.841  0.2150 -0.6377 -2.0106
54723SOL    HW271028  10.790   3.524   3.809  0.6677  0.8262  1.4682
54724SOL     OW71029  12.565  11.826   2.827 -0.3504  0.1172 -0.0364
54724SOL    HW171030  12.606  11.885   2.764  0.0977 -1.3812 -1.2047
54724SOL    HW271031  12.503  11.775   2.776 -0.3289 -0.8016  0.8139
54725SOL     OW71032  11.837  11.044   7.889 -0.4250  0.2086  0.4518
54725SOL    HW171033  11.875  10.958   7.907 -0.5822  0.1557  0.5283
54725SOL    HW271034  11.784  11.031   7.810  1.0411  0.6548 -0.6635
54726SOL     OW71035   6.516   0.350  12.099 -0.1914 -0.4059 -0.3651
54726SOL    HW171036   6.446   0.286  12.087 -1.0208  0.5719 -0.8657
54726SOL    HW271037   6.511   0.374  12.191  0.1493 -1.0736 -0.1639
54727SOL     OW71038   8.730   8.827   5.632  0.0528 -0.4491 -0.2951
54727SOL    HW171039   8.748   8.733   5.628 -0.1387 -0.4570 -3.7634
54727SOL    HW271040   8.720   8.853   5.541 -2.4283  2.4945  0.6744
54728SOL     OW71041   9.886   8.099   8.535 -0.1007  0.0145  0.3929
54728SOL    HW171042   9.861   8.069   8.447  0.0697 -1.6479  0.8691
54728SOL    HW271043   9.905   8.192   8.525 -0.4175 -0.0783 -1.2651
54729SOL     OW71044   2.176   5.300   9.163 -0.1788  0.1071  0.4270
54729SOL    HW171045   2.216   5.225   9.119 -0.6283  1.1123 -1.8547
54729SOL    HW271046   2.238   5.372   9.152 -1.0349  0.8032 -0.1014
54730SOL     OW71047   2.073   8.282   0.824  0.4002  0.2562  0.4854
54730SOL    HW171048   2.161   8.291   0.860  1.1187 -1.1844 -0.7631
54730SOL    HW271049   2.048   8.192   0.846 -0.9200  0.7701  1.1439
54731SOL     OW71050  12.504   2.371  10.593 -0.1291 -0.1851 -0.6650
54731SOL    HW171051  12.519   2.399  10.684 -1.6325 -0.7340 -0.2154
54731SOL    HW271052  12.495   2.452  10.544 -1.9005  0.1694  0.1722
54732SOL     OW71053   2.757   0.390   3.653 -0.3579  0.2180  0.6665
54732SOL    HW171054   2.701   0.365   3.579  1.1368  0.5583 -0.6601
54732SOL    HW271055   2.711   0.358   3.730 -2.3677  0.5231 -0.3295
54733SOL     OW71056   2.346   0.691  11.349 -0.6041 -0.1382 -0.4555
54733SOL    HW171057   2.308   0.616  11.393 -2.9536 -0.1263 -2.2294
54733SOL    HW271058   2.302   0.693  11.263  2.5591  0.6984 -2.2108
54734SOL     OW71059   6.157   3.051  11.600  0.4283 -0.4796 -0.7364
54734SOL    HW171060   6.170   3.124  11.540 -0.2872 -0.0320 -0.3667
54734SOL    HW271061   6.074   3.011  11.572  0.2788 -0.4937 -0.2887
54735SOL     OW71062   4.918  12.256  12.370  0.6736 -0.1415  0.5571
54735SOL    HW171063   4.837  12.291  12.332 -0.4944 -0.8007  2.3249
54735SOL    HW271064   4.984  12.322  12.350 -0.4651  0.8179 -0.2087
54736SOL     OW71065  10.037   3.687   6.635  0.5602 -0.3983  0.6368
54736SOL    HW171066  10.059   3.601   6.671  0.6177 -0.1173  1.2793
54736SOL    HW271067  10.000   3.667   6.549 -1.7954 -1.2710  1.7685
54737SOL     OW71068   3.036   2.792   8.526 -0.0505  0.2509 -0.0646
54737SOL    HW171069   2.963   2.850   8.503 -0.7045  0.7920  2.9232
54737SOL    HW271070   3.100   2.850   8.568  1.4651 -0.4683 -1.2983
54738SOL     OW71071   8.602   7.342   2.840  0.5399  0.5645 -0.2404
54738SOL    HW171072   8.517   7.304   2.859  0.9741 -0.2440  0.1331
54738SOL    HW271073   8.662   7.267   2.835  0.7699  0.7981 -3.2872
54739SOL     OW71074  11.953   4.838   4.978 -0.1389  0.1693 -0.3055
54739SOL    HW171075  12.013   4.778   5.023 -0.9619  0.0140  0.6194
54739SOL    HW271076  11.956   4.919   5.029 -2.1927 -0.4872  0.9933
54740SOL     OW71077   2.134  10.095   5.888 -0.2984 -0.0232 -0.4233
54740SOL    HW171078   2.123  10.172   5.945 -0.6193  0.1309 -0.6904
54740SOL    HW271079   2.125  10.020   5.947  0.7949  0.1417 -0.0212
54741SOL     OW71080   2.124  10.949   7.982  0.4067  0.5727 -0.7101
54741SOL    HW171081   2.069  10.983   7.912 -0.6930  0.9374  0.2859
54741SOL    HW271082   2.084  10.866   8.006  2.1346 -0.7202 -2.0313
54742SOL     OW71083   5.475   6.035   9.536 -0.4583 -0.1525 -0.2720
54742SOL    HW171084   5.468   5.945   9.503 -0.7674 -1.3907  2.7691
54742SOL    HW271085   5.538   6.077   9.478 -0.7578 -2.1351 -2.1700
54743SOL     OW71086  10.141   9.111   9.446  0.1651 -0.0151 -0.0469
54743SOL    HW171087  10.228   9.121   9.407  0.9895 -1.0042  1.4597
54743SOL    HW271088  10.084   9.089   9.372  1.5204 -1.0758 -0.8167
54744SOL     OW71089   6.223   3.095   1.457  0.5468  0.0074  0.7112
54744SOL    HW171090   6.252   3.009   1.429  0.6831 -0.1460  1.3126
54744SOL    HW271091   6.294   3.128   1.512  0.4043  0.4115  0.6557
54745SOL     OW71092   6.377   5.661   4.570  0.4422  0.5351  0.2851
54745SOL    HW171093   6.462   5.702   4.587  0.3839  1.2953 -1.0823
54745SOL    HW271094   6.333   5.660   4.655  0.5188  3.2141  0.4492
54746SOL     OW71095   6.760   6.254  11.732 -0.2288 -0.7966  0.1899
54746SOL    HW171096   6.795   6.179  11.780 -1.2522 -1.2908  0.2065
54746SOL    HW271097   6.687   6.285  11.785  0.4772  0.5320  0.4192
54747SOL     OW71098   1.526   5.731   2.356  0.3851  0.0289 -0.1649
54747SOL    HW171099   1.532   5.696   2.267 -1.9036  0.5363 -0.5825
54747SOL    HW271100   1.500   5.657   2.410 -0.9563  0.2745 -0.4360
54748SOL     OW71101   7.276   8.068   3.067  0.0200 -0.0900  0.5133
54748SOL    HW171102   7.219   8.078   3.142 -1.1713 -2.1971 -0.0358
54748SOL    HW271103   7.265   8.149   3.017 -0.4381  0.6280  1.7497
54749SOL     OW71104   5.985   2.345  12.347  0.2049 -0.9179  0.3942
54749SOL    HW171105   5.973   2.270  12.406  0.5727 -1.1715  0.1545
54749SOL    HW271106   6.077   2.340  12.322 -0.3472 -1.8619 -1.6004
54750SOL     OW71107   7.897   2.817   3.849  0.3864 -0.0262 -0.3247
54750SOL    HW171108   7.888   2.898   3.799  0.5853  0.2277  0.0429
54750SOL    HW271109   7.817   2.768   3.830  0.9237 -0.4252 -1.7504
54751SOL     OW71110   2.906  11.866   9.270  0.2622  0.3347  0.6136
54751SOL    HW171111   2.924  11.882   9.363  1.2266 -0.6778  0.6171
54751SOL    HW271112   2.949  11.783   9.251 -1.4781 -0.3979 -0.3022
54752SOL     OW71113  12.565   2.338   5.623  0.3955  0.6749 -0.2038
54752SOL    HW171114  12.649   2.297   5.644  0.7303  0.3143 -2.0292
54752SOL    HW271115  12.588   2.415   5.572 -0.3487 -0.2404 -2.0446
54753SOL     OW71116   7.470   8.133   6.253  0.4002  0.1145  0.1866
54753SOL    HW171117   7.494   8.180   6.173  0.6243  2.3470  1.4821
54753SOL    HW271118   7.551   8.129   6.304  0.3312 -1.5443  0.2187
54754SOL     OW71119   5.328   2.888  11.274 -0.4789 -0.0393  0.0727
54754SOL    HW171120   5.304   2.876  11.182  0.9868  1.7566 -0.6094
54754SOL    HW271121   5.420   2.914  11.272 -0.7301  1.2322  1.9541
54755SOL     OW71122   0.185   6.428  11.706  0.6114  0.3593 -0.0195
54755SOL    HW171123   0.156   6.438  11.616  1.9327  0.6866 -0.4316
54755SOL    HW271124   0.227   6.511  11.727  0.8622  0.0625  0.6848
54756SOL     OW71125   2.110   9.408   3.047 -0.3327 -0.1517 -0.4310
54756SOL    HW171126   2.072   9.357   3.119 -2.3782  0.9928 -0.6290
54756SOL    HW271127   2.144   9.487   3.090  0.3315 -0.4200 -0.4631
54757SOL     OW71128   3.635   5.197   9.058 -0.5011 -0.0827 -0.0371
54757SOL    HW171129   3.576   5.141   9.006  0.1909 -1.7484  0.8842
54757SOL    HW271130   3.584   5.276   9.075 -1.7625 -0.6704 -0.8780
54758SOL     OW71131   7.946   0.779   4.748 -0.5033  0.1638  0.2825
54758SOL    HW171132   7.967   0.789   4.841  0.4207  2.5624 -0.0970
54758SOL    HW271133   8.028   0.750   4.708 -1.0691 -1.5074  0.2476
54759SOL     OW71134   8.911   8.023   7.915  0.7202 -0.2023  0.0105
54759SOL    HW171135   8.846   8.092   7.898  0.6482  0.1307  1.4742
54759SOL    HW271136   8.918   8.021   8.011  1.4345 -1.5855 -0.0597
54760SOL     OW71137   9.001  10.288   4.858 -0.0149 -0.2171  0.4789
54760SOL    HW171138   9.069  10.258   4.798 -0.9660  1.2899 -1.4743
54760SOL    HW271139   9.040  10.363   4.903  0.2193 -0.4592  0.6801
54761SOL     OW71140   4.984   3.805   1.448  0.2062 -0.1541  0.0073
54761SOL    HW171141   5.053   3.739   1.454 -0.2699 -0.5776  1.0567
54761SOL    HW271142   4.940   3.802   1.533 -0.5903  0.6780 -0.3567
54762SOL     OW71143   3.677   7.615   3.749  0.0561 -0.3714  0.0434
54762SOL    HW171144   3.765   7.651   3.752 -1.0631  2.7922 -0.8929
54762SOL    HW271145   3.652   7.603   3.841  0.1994  2.2868  0.4875
54763SOL     OW71146   1.197   0.573  12.486 -0.0372 -0.1219 -0.1331
54763SOL    HW171147   1.200   0.668  12.492  0.4818 -0.1807  0.8034
54763SOL    HW271148   1.230   0.543  12.571 -0.4132 -1.1335 -0.3297
54764SOL     OW71149   2.751   9.784   8.519 -0.1716 -0.1066 -0.5600
54764SOL    HW171150   2.695   9.720   8.476 -2.1961  1.8480 -1.0282
54764SOL    HW271151   2.840   9.758   8.496 -1.0444 -0.4196 -4.2398
54765SOL     OW71152   5.100   4.683   4.327 -0.6085  0.7066 -0.1658
54765SOL    HW171153   5.052   4.757   4.365 -1.9360 -0.2429  0.0747
54765SOL    HW271154   5.190   4.695   4.358 -1.4129  0.5366  2.5071
54766SOL     OW71155   7.350   3.837  12.022  0.2428  0.1287  0.2900
54766SOL    HW171156   7.262   3.811  11.996  0.4355 -1.0153  0.7616
54766SOL    HW271157   7.386   3.761  12.068  1.6674  0.3821 -0.3497
54767SOL     OW71158   5.616   1.955   7.823 -0.0534 -0.9199  1.0258
54767SOL    HW171159   5.707   1.978   7.844 -0.3139 -1.6982  3.2005
54767SOL    HW271160   5.579   1.925   7.905 -2.0698 -1.4104 -0.0009
54768SOL     OW71161   2.014   0.580   2.729  0.3065 -0.0974 -0.0055
54768SOL    HW171162   2.001   0.485   2.728  0.1935 -0.0813 -0.0623
54768SOL    HW271163   2.073   0.596   2.655 -1.2125  0.0954 -1.2395
54769SOL     OW71164   6.716   7.262   5.712 -0.9399 -0.4131 -0.0939
54769SOL    HW171165   6.747   7.205   5.641  0.4122  0.4480 -0.2355
54769SOL    HW271166   6.780   7.250   5.782 -1.3252  0.0120  0.3354
54770SOL     OW71167  11.683   6.162  11.164 -0.2729 -0.3232  0.1586
54770SOL    HW171168  11.680   6.256  11.145  1.5062  0.1191  1.7338
54770SOL    HW271169  11.655   6.120  11.083  1.8207  1.5058 -1.6521
54771SOL     OW71170   5.725   8.414   7.798 -0.1283  0.2443 -0.4960
54771SOL    HW171171   5.728   8.508   7.782  2.9470  0.4196  0.4255
54771SOL    HW271172   5.740   8.405   7.892 -1.0572 -1.1807 -0.4495
54772SOL     OW71173   2.038   2.461   5.633  0.0405  0.3973  0.1602
54772SOL    HW171174   2.017   2.436   5.543 -1.3394  0.7600  0.3602
54772SOL    HW271175   2.091   2.540   5.624 -0.0191  0.3809 -0.3326
54773SOL     OW71176   8.320   0.798  10.986 -0.6929  0.1703  0.4732
54773SOL    HW171177   8.280   0.712  10.973 -0.9688  0.4395 -0.5637
54773SOL    HW271178   8.327   0.807  11.081 -3.2857  0.2132  0.7234
54774SOL     OW71179  10.418   0.617   3.397 -0.1335 -0.6717 -0.0733
54774SOL    HW171180  10.425   0.594   3.490  1.6358 -1.5550 -0.3847
54774SOL    HW271181  10.328   0.647   3.387 -0.4220 -0.7381  1.8869
54775SOL     OW71182   9.693   6.334   3.225  0.0256  0.0431  0.2602
54775SOL    HW171183   9.786   6.358   3.233 -0.4899  2.5580 -0.4146
54775SOL    HW271184   9.681   6.264   3.289  2.3754 -0.3351  0.3775
54776SOL     OW71185   6.726   7.898  11.310 -0.2854  0.7146 -0.3835
54776SOL    HW171186   6.738   7.968  11.375 -0.9678 -0.2720  0.8466
54776SOL    HW271187   6.634   7.905  11.284 -0.0569  0.9954 -1.1404
54777SOL     OW71188   8.419  12.122   9.987  0.4013 -0.1355 -0.3682
54777SOL    HW171189   8.382  12.210   9.996  0.6898  0.1527 -1.7487
54777SOL    HW271190   8.487  12.131   9.921  2.1808 -0.9045  1.2760
54778SOL     OW71191   3.011   6.768   2.221 -0.1179  0.1184 -0.1816
54778SOL    HW171192   2.926   6.739   2.252  0.1952  0.0839  0.6746
54778SOL    HW271193   2.997   6.790   2.129 -1.4292  1.6285  0.3339
54779SOL     OW71194   7.966  11.394   1.621  0.3224  0.0064 -0.1906
54779SOL    HW171195   8.000  11.309   1.596 -0.5685 -0.4987  0.2598
54779SOL    HW271196   7.875  11.394   1.592  0.3998  0.9416 -0.4909
54780SOL     OW71197   6.882   4.113   2.796 -0.4992 -0.0327  0.2214
54780SOL    HW171198   6.818   4.043   2.810 -1.6785  1.1565  1.0380
54780SOL    HW271199   6.923   4.125   2.881  0.3495 -0.3075 -0.1330
54781SOL     OW71200   1.431  11.593   2.330  0.1164  0.5578 -0.0560
54781SOL    HW171201   1.398  11.558   2.248  3.1306 -1.4713 -0.5467
54781SOL    HW271202   1.465  11.680   2.307 -0.4793  0.6621 -0.5673
54782SOL     OW71203   7.122  11.207   4.928 -0.0261  0.2483  0.0822
54782SOL    HW171204   7.113  11.252   4.844  1.1099 -0.1450 -0.2643
54782SOL    HW271205   7.101  11.116   4.909 -0.1436  0.2323  0.2985
54783SOL     OW71206   8.579   9.272  12.364  0.1247 -0.1327  0.2094
54783SOL    HW171207   8.623   9.210  12.422 -0.0546  1.4609  2.1802
54783SOL    HW271208   8.487   9.268  12.391 -0.2527 -0.4058 -1.0226
54784SOL     OW71209   2.205   9.083   6.058  0.5497 -0.0278 -0.0094
54784SOL    HW171210   2.221   8.998   6.016 -0.5758  0.5113 -1.6587
54784SOL    HW271211   2.245   9.147   5.999 -0.8248  0.7387 -0.1685
54785SOL     OW71212   2.733   1.563   1.729  0.1961 -0.1874  0.2444
54785SOL    HW171213   2.828   1.570   1.738  0.1083  0.6318  0.6047
54785SOL    HW271214   2.698   1.640   1.775 -0.6152 -0.2070 -0.3076
54786SOL     OW71215   5.260   7.607   4.322 -0.1196  0.3273 -0.4100
54786SOL    HW171216   5.344   7.612   4.276 -0.2113  0.2223 -0.5908
54786SOL    HW271217   5.280   7.635   4.412  0.2944 -0.5389 -0.2204
54787SOL     OW71218  11.665  12.238   9.162 -0.1858  0.2284  0.6679
54787SOL    HW171219  11.690  12.307   9.223 -1.2016  0.0687  1.2880
54787SOL    HW271220  11.580  12.266   9.128  0.7774  0.8162 -1.4631
54788SOL     OW71221   7.761  11.570  10.408 -0.5365  0.1429 -0.3349
54788SOL    HW171222   7.669  11.592  10.423 -1.1629 -1.7704 -1.0875
54788SOL    HW271223   7.780  11.607  10.322 -0.8018 -0.0674 -0.4844
54789SOL     OW71224   2.756   2.584   2.955 -0.0732 -0.0123  0.5855
54789SOL    HW171225   2.842   2.599   2.915 -0.7182  2.0047 -0.1742
54789SOL    HW271226   2.732   2.668   2.993 -0.4332 -1.3271  3.4889
54790SOL     OW71227  11.278  10.954   3.110  0.2408 -0.0351  0.2801
54790SOL    HW171228  11.348  10.891   3.092 -1.8470 -3.1377  2.0914
54790SOL    HW271229  11.248  10.932   3.198 -1.3297  2.9188  0.6005
54791SOL     OW71230   9.109   5.741  11.878  0.4007 -0.1332 -0.7696
54791SOL    HW171231   9.159   5.699  11.808  0.9853  1.7603 -1.5748
54791SOL    HW271232   9.051   5.803  11.832  2.9931  3.4904  0.3694
54792SOL     OW71233  10.750  12.085  12.295  0.3795  0.6871  0.2289
54792SOL    HW171234  10.722  12.172  12.267  0.5323  0.5042 -0.5031
54792SOL    HW271235  10.676  12.050  12.345  0.2910  1.2033  0.4669
54793SOL     OW71236   5.212  11.152   3.767  0.2907  0.1889  0.1024
54793SOL    HW171237   5.117  11.161   3.757  0.4464  1.4765 -0.3805
54793SOL    HW271238   5.234  11.076   3.713 -0.5610 -0.6633  0.9072
54794SOL     OW71239  12.477   8.175   1.136 -0.3458  0.1657 -0.4278
54794SOL    HW171240  12.504   8.120   1.063 -0.7794 -0.6785  0.0324
54794SOL    HW271241  12.440   8.253   1.094  1.1280  0.5498 -1.0761
54795SOL     OW71242   3.203   7.518  12.383  0.2725  0.1129 -0.3985
54795SOL    HW171243   3.245   7.433  12.390  0.2907  0.1675  0.2499
54795SOL    HW271244   3.205   7.539  12.290  2.2504  0.4116 -0.3224
54796SOL     OW71245   6.484  11.878  12.514 -0.4224 -0.2855  0.1658
54796SOL    HW171246   6.448  11.807  12.567  0.1640 -0.8967 -0.2430
54796SOL    HW271247   6.455  11.859  12.424  0.7606 -0.6890 -0.1389
54797SOL     OW71248   5.186  10.302   9.450 -0.3611 -0.3339  0.1291
54797SOL    HW171249   5.254  10.245   9.486 -0.8064 -1.1524 -0.2748
54797SOL    HW271250   5.206  10.389   9.484  1.7016 -0.2772 -1.0941
54798SOL     OW71251   6.760   7.288   4.755 -0.8839  0.6125  0.0396
54798SOL    HW171252   6.715   7.214   4.796 -0.2640 -0.1898 -0.7004
54798SOL    HW271253   6.831   7.310   4.816 -0.3453 -0.1757 -0.2978
54799SOL     OW71254   1.129   0.501   0.182 -0.2871  0.0038 -0.9417
54799SOL    HW171255   1.089   0.587   0.193 -4.1168 -1.7164  0.2623
54799SOL    HW271256   1.138   0.468   0.272  0.6775 -1.0489 -1.4066
54800SOL     OW71257   8.445  11.498   8.786  0.2333 -0.0936  0.0160
54800SOL    HW171258   8.456  11.417   8.835  0.8679 -0.8008 -1.2520
54800SOL    HW271259   8.394  11.555   8.845 -0.7404 -1.6075  0.6927
54801SOL     OW71260   9.917   2.546  12.196  0.3810 -0.2001 -0.4538
54801SOL    HW171261  10.003   2.569  12.160  0.3295  0.5417 -0.1213
54801SOL    HW271262   9.874   2.498  12.125  0.6833  0.3216 -1.0076
54802SOL     OW71263   9.918   5.628   8.084  0.3304 -0.1302 -0.3540
54802SOL    HW171264  10.009   5.654   8.099  1.2223 -2.8338 -0.5296
54802SOL    HW271265   9.895   5.670   8.000  1.5000  0.3432 -0.4620
54803SOL     OW71266   5.359   1.188   5.190 -0.1315 -0.4293  0.1353
54803SOL    HW171267   5.350   1.260   5.128  0.5759 -0.0353  0.4817
54803SOL    HW271268   5.291   1.126   5.164 -1.2046  0.6663  0.2675
54804SOL     OW71269   0.552   4.702   6.145 -0.1315 -0.4381  0.9041
54804SOL    HW171270   0.620   4.638   6.124  0.0258 -0.5208  1.6350
54804SOL    HW271271   0.519   4.732   6.060  1.7110  0.5504  0.4863
54805SOL     OW71272  10.550   5.429   4.093 -0.3739  0.0117  0.0527
54805SOL    HW171273  10.487   5.381   4.147 -1.5840  2.5886  1.1044
54805SOL    HW271274  10.510   5.430   4.006  0.1790 -1.6923 -0.2561
54806SOL     OW71275   4.989   9.904   1.009  0.0353  0.6228 -0.5653
54806SOL    HW171276   5.044   9.956   0.951  0.4189  2.1457  1.0866
54806SOL    HW271277   5.009   9.936   1.097 -0.8058 -1.3317  0.4048
54807SOL     OW71278   3.122   1.125   1.055  0.0570 -0.3917  0.5411
54807SOL    HW171279   3.076   1.116   1.138 -1.4790 -0.2038 -0.2609
54807SOL    HW271280   3.148   1.036   1.032 -1.0937 -0.6932  0.3668
54808SOL     OW71281   8.401   6.122   6.177 -0.1524 -0.0100  0.1681
54808SOL    HW171282   8.406   6.036   6.218 -2.1958 -1.1496 -1.7834
54808SOL    HW271283   8.407   6.105   6.083 -3.7151  1.5406 -0.5245
54809SOL     OW71284   7.452   0.415   2.258  0.2127  0.1688 -0.4902
54809SOL    HW171285   7.501   0.337   2.235  0.2805 -0.1986  0.8102
54809SOL    HW271286   7.360   0.390   2.246  0.0351 -1.1499  2.6272
54810SOL     OW71287   9.379   2.826   5.313 -0.3475  0.5750 -0.9092
54810SOL    HW171288   9.302   2.818   5.257 -0.6707  2.5778 -0.8444
54810SOL    HW271289   9.452   2.793   5.260 -1.1680 -1.0036 -1.0997
54811SOL     OW71290  11.169   5.994   0.124  0.5067 -0.0321 -0.1956
54811SOL    HW171291  11.179   5.956   0.212 -0.2295  0.2170  0.0038
54811SOL    HW271292  11.172   6.089   0.139  1.8284  0.0045 -0.6257
54812SOL     OW71293  11.167   1.916   4.768  0.1697 -0.2083 -0.6335
54812SOL    HW171294  11.158   1.977   4.841  1.3242 -0.3888 -0.3155
54812SOL    HW271295  11.179   1.971   4.691 -2.6085  0.0280 -0.9851
54813SOL     OW71296   4.684   1.992   7.847  0.1869  0.1246  0.2220
54813SOL    HW171297   4.695   1.933   7.922 -0.2946  0.2875  0.4246
54813SOL    HW271298   4.657   2.076   7.886  1.3124  0.6182 -0.0253
54814SOL     OW71299   1.995  10.477  10.545 -0.6963 -0.6136 -0.0345
54814SOL    HW171300   2.034  10.392  10.565  0.8835  0.0628 -0.0984
54814SOL    HW271301   1.942  10.461  10.467 -1.8957 -1.9127  0.9910
54815SOL     OW71302  11.770   3.161   2.427 -0.6636  0.1691 -0.6302
54815SOL    HW171303  11.749   3.223   2.357  1.9238  1.6036 -0.2671
54815SOL    HW271304  11.865   3.151   2.422 -0.3420  0.5600  2.8430
54816SOL     OW71305   1.693   1.897   9.458 -0.0977  0.1562  0.5175
54816SOL    HW171306   1.712   1.813   9.415 -0.6151  0.2962  0.0109
54816SOL    HW271307   1.725   1.963   9.396  0.3344  0.3380  0.9295
54817SOL     OW71308   1.282   5.774   7.372 -0.0052  0.1346 -0.3572
54817SOL    HW171309   1.363   5.776   7.321  0.3867  0.3977  0.2612
54817SOL    HW271310   1.312   5.763   7.463 -0.6522  0.4855 -0.0988
54818SOL     OW71311   9.057  11.843   0.360 -0.2007 -0.4116 -0.2033
54818SOL    HW171312   9.114  11.774   0.326  1.0916 -0.9800  2.8242
54818SOL    HW271313   9.116  11.915   0.382 -0.9963  0.0511  0.4727
54819SOL     OW71314   0.061   2.495  12.032 -0.3213  0.1530  0.0903
54819SOL    HW171315  -0.018   2.442  12.026  0.9027 -1.7616  0.2739
54819SOL    HW271316   0.118   2.462  11.963  0.2982  1.5932 -0.1228
54820SOL     OW71317   7.197  12.044   3.353 -0.9176 -0.3047 -0.6285
54820SOL    HW171318   7.173  12.058   3.445 -1.0139  3.1173 -1.0313
54820SOL    HW271319   7.114  12.020   3.311 -0.5720 -3.6927  0.3248
54821SOL     OW71320   0.989   6.462   8.751  0.0699 -0.1079 -0.0814
54821SOL    HW171321   1.021   6.395   8.690 -1.0177 -0.8968  0.1695
54821SOL    HW271322   0.942   6.412   8.818  0.6699  0.7970  1.0500
54822SOL     OW71323   3.288   1.676   9.149  0.1405  0.4546  0.1498
54822SOL    HW171324   3.209   1.671   9.096  0.1134 -1.2317  0.2900
54822SOL    HW271325   3.258   1.704   9.235 -0.0334  1.6430 -0.2837
54823SOL     OW71326   9.377   2.267   7.953  0.0045 -0.4247 -0.2649
54823SOL    HW171327   9.353   2.284   8.044 -0.0108  0.3127 -0.4000
54823SOL    HW271328   9.463   2.308   7.943  0.4031 -1.2724 -0.3435
54824SOL     OW71329   0.323  12.018  10.968 -0.3246  0.1577 -0.0314
54824SOL    HW171330   0.300  12.111  10.959  0.6438  0.3557 -0.6789
54824SOL    HW271331   0.377  12.000  10.891 -0.1412 -0.8342  0.3214
54825SOL     OW71332   2.909   8.162   7.027 -0.5202 -0.4540  0.6433
54825SOL    HW171333   2.882   8.115   6.948  0.3680  0.9590 -0.5477
54825SOL    HW271334   2.834   8.219   7.047 -1.1162 -1.4682  1.3922
54826SOL     OW71335   4.593  11.724   0.824  0.0784 -0.4099  0.0191
54826SOL    HW171336   4.589  11.773   0.907  1.5974  1.4781 -0.9298
54826SOL    HW271337   4.569  11.635   0.847 -2.6608  0.6807  1.9169
54827SOL     OW71338   6.998  10.864   8.580  0.0688  0.4496 -0.3727
54827SOL    HW171339   6.903  10.849   8.579  0.1302 -0.0996  0.4995
54827SOL    HW271340   7.035  10.775   8.582  0.6288  0.6414 -1.5046
54828SOL     OW71341   0.759   6.075   8.318 -0.9370 -0.3248  0.4809
54828SOL    HW171342   0.735   6.118   8.400 -0.8914  0.0441  0.3039
54828SOL    HW271343   0.738   6.139   8.250  1.3269  0.3729  0.3582
54829SOL     OW71344  11.061   7.842   2.018  0.4756 -0.4329 -0.2624
54829SOL    HW171345  11.128   7.776   2.034 -0.1747 -1.4763 -1.6683
54829SOL    HW271346  10.997   7.829   2.088  0.6806 -0.8320 -0.1466
54830SOL     OW71347   9.076   9.362  11.622  0.4399  1.2681  0.0927
54830SOL    HW171348   9.039   9.423  11.685 -1.3887  0.1260  0.2000
54830SOL    HW271349   9.003   9.339  11.565  1.3839  0.1681 -0.7287
54831SOL     OW71350   4.376   8.132   7.199 -0.6912  0.0108 -0.0481
54831SOL    HW171351   4.382   8.179   7.283 -1.7143  0.3105 -0.1253
54831SOL    HW271352   4.321   8.188   7.145  2.2241  1.2544 -1.9552
54832SOL     OW71353   4.406   7.410   4.779  0.0478  0.3775  0.0613
54832SOL    HW171354   4.388   7.345   4.712  0.4451  0.8854 -0.5501
54832SOL    HW271355   4.330   7.407   4.837 -0.1739 -0.2537 -0.2537
54833SOL     OW71356   6.867   5.992   5.459  0.0901  0.2110 -0.0362
54833SOL    HW171357   6.794   6.036   5.503  0.1799 -1.0754  1.4801
54833SOL    HW271358   6.871   6.034   5.373 -0.7894  2.0807  0.7645
54834SOL     OW71359   8.601   5.504   7.325  0.3474  0.4675 -0.3080
54834SOL    HW171360   8.534   5.491   7.258  0.6834 -1.0918 -0.3909
54834SOL    HW271361   8.683   5.479   7.281  0.4953 -1.3078  0.8390
54835SOL     OW71362   8.329  11.183  11.573 -0.0407  0.1644 -0.0478
54835SOL    HW171363   8.275  11.175  11.494 -0.9417  0.9173  0.4769
54835SOL    HW271364   8.396  11.116  11.562 -0.2436  0.1431 -1.3799
54836SOL     OW71365   7.898  10.703  10.526  0.2951 -0.0084  0.3143
54836SOL    HW171366   7.887  10.797  10.544  1.3176 -0.0308  1.1800
54836SOL    HW271367   7.893  10.696  10.431 -0.1121  0.8756  0.2576
54837SOL     OW71368   4.559  12.310   6.879  0.3209  0.7258 -0.5087
54837SOL    HW171369   4.491  12.244   6.870  1.9028 -1.1841  0.8266
54837SOL    HW271370   4.635  12.263   6.912  2.1859  2.8604 -1.4756
54838SOL     OW71371   6.686   5.351   1.665  0.5847  0.6351  0.7732
54838SOL    HW171372   6.624   5.282   1.690  2.3047 -1.0797  0.5213
54838SOL    HW271373   6.632   5.430   1.659 -1.6099 -0.7957  0.3793
54839SOL     OW71374   4.605   2.716   4.925 -0.6604 -0.3213 -0.1341
54839SOL    HW171375   4.674   2.665   4.967  0.5765 -1.1514 -2.9145
54839SOL    HW271376   4.567   2.656   4.860 -0.8396  1.5050 -1.8234
54840SOL     OW71377   1.258   9.832  10.438 -0.4385 -0.5803 -0.4726
54840SOL    HW171378   1.222   9.851  10.352  1.4891 -0.0371 -1.1984
54840SOL    HW271379   1.308   9.752  10.426  0.1962 -0.2652  0.0273
54841SOL     OW71380   3.749   5.706   1.156  0.2067 -0.4461 -0.0348
54841SOL    HW171381   3.739   5.622   1.112  1.1858  0.3415 -1.9324
54841SOL    HW271382   3.766   5.684   1.247  0.1728 -2.2913 -0.4346
54842SOL     OW71383   2.268   5.032   8.045  0.5083  0.3888  0.4092
54842SOL    HW171384   2.237   4.996   8.128  0.3812  1.9971  1.0873
54842SOL    HW271385   2.204   5.001   7.981  0.5424 -0.7731  0.9042
54843SOL     OW71386   6.775  10.083   1.126  0.2734 -0.1089 -0.4276
54843SOL    HW171387   6.785   9.996   1.164 -0.7684 -0.2967 -0.5596
54843SOL    HW271388   6.706  10.125   1.178 -0.8203 -0.1910 -1.7447
54844SOL     OW71389   8.686  10.562   2.717 -0.0908 -0.2211 -0.0109
54844SOL    HW171390   8.607  10.577   2.664  2.3797  2.3055 -3.4623
54844SOL    HW271391   8.686  10.632   2.781 -0.4735 -0.0240 -0.2221
54845SOL     OW71392   9.946  12.150   4.499 -0.1539  0.9708 -0.2499
54845SOL    HW171393   9.980  12.199   4.424 -0.7653  0.8153 -0.6385
54845SOL    HW271394   9.869  12.103   4.464  0.4106 -0.2645  0.1079
54846SOL     OW71395  10.445  11.569   3.662  0.6518  0.5206 -0.2906
54846SOL    HW171396  10.511  11.542   3.599  0.1621 -0.2062 -0.5084
54846SOL    HW271397  10.470  11.657   3.688  0.9028  0.7875 -1.4308
54847SOL     OW71398   9.586   9.728   9.828 -0.3910 -0.0197 -0.4198
54847SOL    HW171399   9.597   9.634   9.840 -0.4963 -0.3361 -2.5472
54847SOL    HW271400   9.640   9.767   9.897 -0.4700 -1.6047  0.6056
54848SOL     OW71401  11.342   3.975   5.736 -0.4303 -0.5601 -0.4781
54848SOL    HW171402  11.285   3.901   5.757 -1.8957  0.8482  0.7884
54848SOL    HW271403  11.304   4.013   5.657 -2.4405  1.3834  1.2744
54849SOL     OW71404   8.210   7.503   3.929 -0.3636 -0.2223 -0.0339
54849SOL    HW171405   8.267   7.478   4.002 -0.9480 -2.9588 -0.4164
54849SOL    HW271406   8.128   7.529   3.970  0.3281  1.4670  0.3857
54850SOL     OW71407   8.283   1.157  11.702 -0.2200  0.1301  0.4160
54850SOL    HW171408   8.301   1.066  11.677 -1.5097 -0.1310  0.3677
54850SOL    HW271409   8.245   1.151  11.789 -0.4659  0.6109  0.3443
54851SOL     OW71410   2.207   5.420  11.386  0.1541  0.3603  0.0842
54851SOL    HW171411   2.277   5.408  11.449  0.9792 -1.4550 -1.0938
54851SOL    HW271412   2.227   5.504  11.344  0.8446  0.5016  0.6708
54852SOL     OW71413  10.085   4.160   6.929  0.5623  0.0742  0.0061
54852SOL    HW171414  10.087   4.064   6.926  0.3667  0.0724 -0.1031
54852SOL    HW271415  10.061   4.186   6.840  1.7624  0.2614 -0.2760
54853SOL     OW71416   4.767   3.310   0.493 -0.3197  0.7448  0.2568
54853SOL    HW171417   4.743   3.222   0.465 -0.8122 -0.1128  3.0613
54853SOL    HW271418   4.799   3.352   0.413  0.1801 -2.0232 -1.1397
54854SOL     OW71419  10.322   0.487  11.266  0.0317 -0.4714  1.0652
54854SOL    HW171420  10.234   0.522  11.248  1.0932  0.8578 -2.2347
54854SOL    HW271421  10.376   0.565  11.282  1.5278 -0.7341 -1.9838
54855SOL     OW71422   4.057  11.565   3.527 -0.4150 -0.3696 -0.1096
54855SOL    HW171423   4.122  11.636   3.530 -0.5676 -0.0460 -2.6003
54855SOL    HW271424   4.101  11.491   3.569  0.8217  0.3877 -0.0035
54856SOL     OW71425   3.225   7.371   6.299 -0.5444 -0.0593 -0.0295
54856SOL    HW171426   3.206   7.330   6.215 -0.1458 -0.4829  0.0824
54856SOL    HW271427   3.154   7.434   6.311  0.4746  1.4962 -1.6374
54857SOL     OW71428   3.792   0.673   8.851  0.9588 -0.4045 -0.7990
54857SOL    HW171429   3.810   0.586   8.815  0.5186 -0.3774 -1.0846
54857SOL    HW271430   3.730   0.657   8.922 -0.5100 -0.1570 -1.9753
54858SOL     OW71431   0.983  11.187  10.140  0.1291  0.4782  0.3865
54858SOL    HW171432   1.048  11.122  10.113  0.0456  0.8080 -0.6503
54858SOL    HW271433   0.941  11.214  10.058 -2.0289 -0.4642  1.1120
54859SOL     OW71434   5.559   7.564   7.395  0.1755 -0.4337  0.4649
54859SOL    HW171435   5.465   7.550   7.409  0.2051 -1.0933  0.0388
54859SOL    HW271436   5.585   7.492   7.338  0.9973 -0.3927  0.7847
54860SOL     OW71437  12.380  12.318  11.734  0.5737  0.0125 -0.1020
54860SOL    HW171438  12.439  12.368  11.791 -0.3897 -0.7330  1.6454
54860SOL    HW271439  12.295  12.361  11.744  0.7480  1.1194 -2.6478
54861SOL     OW71440   1.099   4.453   5.655  0.2534  0.8624  0.2361
54861SOL    HW171441   1.052   4.536   5.658 -1.0218  0.1528  0.5076
54861SOL    HW271442   1.088   4.416   5.743 -0.8511 -0.4607 -0.4172
54862SOL     OW71443   8.645   7.031   9.519 -0.0411 -0.1861  0.5144
54862SOL    HW171444   8.576   6.996   9.575 -0.9386 -0.5567 -0.7823
54862SOL    HW271445   8.662   6.962   9.456  1.8106 -0.2545  1.0260
54863SOL     OW71446   0.482   9.001   3.916  0.0816  0.0240 -0.6766
54863SOL    HW171447   0.553   9.063   3.898 -0.0567 -0.1772 -1.9723
54863SOL    HW271448   0.405   9.038   3.873 -0.6203  0.2119  0.6749
54864SOL     OW71449   7.626   1.517   3.921  0.3727 -0.3242  0.4242
54864SOL    HW171450   7.697   1.570   3.957 -0.7466  2.4912 -1.2135
54864SOL    HW271451   7.563   1.509   3.992  0.7298  0.2541  0.8148
54865SOL     OW71452   7.538   6.738   1.502 -0.4248 -0.1477  0.4188
54865SOL    HW171453   7.462   6.714   1.556  1.3542  0.6339  3.5157
54865SOL    HW271454   7.554   6.661   1.448 -2.2425 -1.0797  1.1151
54866SOL     OW71455   4.001   9.016   8.556 -0.2592  0.2828  0.4007
54866SOL    HW171456   4.096   9.012   8.549 -0.0882 -0.6777  2.4498
54866SOL    HW271457   3.985   9.046   8.645 -1.8674 -0.5884  0.4373
54867SOL     OW71458   2.722   1.865   3.993 -0.3340  0.6847 -0.2566
54867SOL    HW171459   2.661   1.894   4.060 -1.1876 -1.2119 -0.1298
54867SOL    HW271460   2.740   1.943   3.940 -2.4991  1.4036 -0.0115
54868SOL     OW71461   2.637   5.762   6.626  0.2185 -0.1572  0.1476
54868SOL    HW171462   2.642   5.832   6.561  2.6831 -0.9002 -0.5506
54868SOL    HW271463   2.678   5.686   6.583  0.6921 -1.0470  2.0749
54869SOL     OW71464   6.148   9.690   5.176  0.2614 -0.2058 -0.0587
54869SOL    HW171465   6.163   9.721   5.266 -1.8416  0.1762  0.2110
54869SOL    HW271466   6.236   9.677   5.141  1.1580 -0.8591  2.2149
54870SOL     OW71467   1.183   6.785  10.923  0.1556  0.3452  0.2637
54870SOL    HW171468   1.210   6.874  10.898  1.5415  0.0388  0.5567
54870SOL    HW271469   1.153   6.746  10.841  0.5428  0.7428 -0.0763
54871SOL     OW71470   1.076   5.092   0.195 -0.1254 -0.3185  0.2700
54871SOL    HW171471   1.028   5.169   0.224 -0.5145 -1.1788  2.0452
54871SOL    HW271472   1.168   5.119   0.194 -0.0147 -0.3580  2.9500
54872SOL     OW71473   9.171   1.338   6.597  0.1054 -0.2534 -0.0520
54872SOL    HW171474   9.086   1.364   6.633 -0.2902 -1.1239 -0.3231
54872SOL    HW271475   9.156   1.330   6.503  0.4771 -0.4562 -0.0974
54873SOL     OW71476   4.746   4.725   3.828  0.1057 -0.4765  0.1632
54873SOL    HW171477   4.777   4.801   3.779  0.9119 -1.1032 -0.3312
54873SOL    HW271478   4.802   4.721   3.905 -0.5518 -0.0369  0.6779
54874SOL     OW71479   7.335   2.546   4.527 -0.2485 -0.2380  0.6843
54874SOL    HW171480   7.341   2.624   4.472  0.0958 -0.3318  0.5870
54874SOL    HW271481   7.244   2.517   4.518  0.0402 -0.8032 -0.5892
54875SOL     OW71482  10.634   9.591   7.082 -0.2164 -0.2231  0.2234
54875SOL    HW171483  10.540   9.604   7.074 -0.1662 -0.2096 -0.3824
54875SOL    HW271484  10.652   9.511   7.032  0.0048 -0.5925  0.8742
54876SOL     OW71485   5.490   1.737   7.226  0.0019 -1.0974 -0.2338
54876SOL    HW171486   5.516   1.829   7.214 -0.9377 -1.0026 -1.7595
54876SOL    HW271487   5.422   1.740   7.293  0.8376 -0.8548  0.6380
54877SOL     OW71488   9.852   6.839  12.091 -0.0964 -0.0934 -0.5722
54877SOL    HW171489   9.946   6.857  12.091  0.6614 -3.2672 -3.3587
54877SOL    HW271490   9.821   6.872  12.007 -1.5165  0.7986  0.2593
54878SOL     OW71491   3.164  11.455   8.986  0.1111 -0.0159 -0.1520
54878SOL    HW171492   3.195  11.541   9.014  2.0766  0.3546 -3.0684
54878SOL    HW271493   3.111  11.472   8.908 -0.0012 -1.4218 -0.4223
54879SOL     OW71494   3.655  10.854  11.320  0.0645 -0.6234  0.4638
54879SOL    HW171495   3.628  10.767  11.292  1.3494 -0.5915 -0.9943
54879SOL    HW271496   3.687  10.841  11.409  0.7653 -1.7748  0.0750
54880SOL     OW71497   5.607   3.570   4.120  0.5103 -0.5037  0.1531
54880SOL    HW171498   5.533   3.536   4.070  1.0527 -0.0412 -1.0166
54880SOL    HW271499   5.603   3.665   4.106  0.7481 -0.3793  0.8970
54881SOL     OW71500   4.201   9.081   9.453 -0.0567 -0.5124 -0.1382
54881SOL    HW171501   4.281   9.111   9.409 -0.4874  2.3367  0.8171
54881SOL    HW271502   4.136   9.148   9.432 -1.8712 -2.1091  0.1651
54882SOL     OW71503   6.047   3.882   7.527  0.0734  0.1362  0.0808
54882SOL    HW171504   6.008   3.865   7.442 -1.6936 -1.5315  1.1281
54882SOL    HW271505   6.018   3.971   7.549  0.9524  0.7711 -1.2133
54883SOL     OW71506   0.820   1.774   4.489 -0.6604 -0.4900 -0.2296
54883SOL    HW171507   0.909   1.751   4.462  0.1053  0.7558  1.1351
54883SOL    HW271508   0.773   1.690   4.489  0.3632 -1.1028 -1.3958
54884SOL     OW71509   3.705   3.816   9.958 -0.6981  0.1510  0.0352
54884SOL    HW171510   3.741   3.758  10.025 -2.9452 -1.0533  0.2949
54884SOL    HW271511   3.709   3.903   9.997 -1.2226 -0.4166  1.4267
54885SOL     OW71512   4.162   2.148  12.333  0.9970  0.0567 -0.5932
54885SOL    HW171513   4.246   2.120  12.295  1.3504  0.5623 -0.2018
54885SOL    HW271514   4.097   2.093  12.290  1.5102 -0.2089 -1.0484
54886SOL     OW71515   4.079   3.907  12.519 -0.1232  0.1643  0.3026
54886SOL    HW171516   4.122   3.887  12.436 -0.4640  1.7371 -0.2815
54886SOL    HW271517   4.151   3.931  12.578 -0.0609  1.8071 -0.3813
54887SOL     OW71518  10.386  11.150  11.042  0.7104 -0.0091 -0.0762
54887SOL    HW171519  10.475  11.135  11.073  0.9106 -1.9633 -1.3990
54887SOL    HW271520  10.338  11.071  11.067 -0.5568  0.8302  0.2407
54888SOL     OW71521   0.908  10.321   2.381  0.4868 -0.4077 -0.0755
54888SOL    HW171522   0.832  10.379   2.387  1.0063  0.2227  0.5258
54888SOL    HW271523   0.885  10.246   2.435  0.2656 -0.2599  0.0374
54889SOL     OW71524   8.311   1.484   1.867  0.4488  0.0619 -0.2480
54889SOL    HW171525   8.266   1.549   1.813  0.2531  1.4955  1.5611
54889SOL    HW271526   8.241   1.435   1.909  0.6004 -0.9291 -1.1218
54890SOL     OW71527  10.401   9.338  12.535  0.4704  0.0259  0.3971
54890SOL    HW171528  10.454   9.283  12.592  0.7726 -0.7615 -0.5946
54890SOL    HW271529  10.431   9.427  12.550 -0.4356  0.0206  2.4888
54891SOL     OW71530  11.249   5.915  11.548  0.2180 -0.1850 -0.6091
54891SOL    HW171531  11.220   5.948  11.633  1.6013 -0.3326 -0.0547
54891SOL    HW271532  11.325   5.969  11.525 -1.1825  1.0623 -2.6337
54892SOL     OW71533   8.686   4.352   4.772 -0.1803 -0.0610 -0.5581
54892SOL    HW171534   8.717   4.425   4.825 -0.9635 -0.0904 -0.0514
54892SOL    HW271535   8.629   4.302   4.830 -0.3893 -0.5632 -1.1788
54893SOL     OW71536   3.035   2.280   6.600  0.4939  0.3402  0.5763
54893SOL    HW171537   2.963   2.331   6.563 -0.9465  0.3955  3.1473
54893SOL    HW271538   3.025   2.193   6.561  0.3800  0.9129 -0.7137
54894SOL     OW71539   0.531   1.429   2.489 -0.6562  0.5424 -0.3615
54894SOL    HW171540   0.459   1.380   2.450 -0.1251 -1.9646  1.5263
54894SOL    HW271541   0.489   1.490   2.550 -1.2186 -0.1344 -0.0713
54895SOL     OW71542  11.102   3.501   6.566  0.2798 -0.1053  1.0244
54895SOL    HW171543  11.167   3.474   6.501 -2.4324 -1.3865 -1.4208
54895SOL    HW271544  11.112   3.438   6.637 -0.1504 -2.2443 -0.6710
54896SOL     OW71545   4.693   6.412  10.414 -0.0022 -0.2290 -0.1433
54896SOL    HW171546   4.664   6.481  10.473 -0.7320  1.6990 -2.6120
54896SOL    HW271547   4.774   6.380  10.453  0.1262  1.6939  1.3204
54897SOL     OW71548   7.995   7.544  10.608  0.3547  0.1831  0.0601
54897SOL    HW171549   8.048   7.603  10.661  0.4114 -0.5554  0.8303
54897SOL    HW271550   7.983   7.467  10.662 -2.3790  0.6975  0.3370
54898SOL     OW71551   2.565  11.094   6.114 -0.4453  0.8204  0.3081
54898SOL    HW171552   2.584  11.187   6.131 -0.9062  0.9327  0.2373
54898SOL    HW271553   2.565  11.087   6.018 -1.4170  0.9732  0.2874
54899SOL     OW71554  10.276   4.472   5.275 -0.2111  0.6672 -0.2373
54899SOL    HW171555  10.196   4.517   5.300  0.2262  2.2594 -1.4971
54899SOL    HW271556  10.342   4.506   5.335 -0.3988 -0.3789  0.5732
54900SOL     OW71557   2.791  11.637   4.600 -0.5487 -0.3439 -0.6027
54900SOL    HW171558   2.865  11.622   4.542 -1.2704  0.5398 -1.8103
54900SOL    HW271559   2.830  11.667   4.683  0.4324  1.7139 -1.7266
54901SOL     OW71560   2.944   3.197   6.042 -0.1232  0.2315 -0.2530
54901SOL    HW171561   2.890   3.119   6.031  1.6276 -1.0765 -0.0264
54901SOL    HW271562   3.017   3.169   6.097  0.7382  1.9478 -0.4303
54902SOL     OW71563   5.678  11.376   5.519  0.2581  0.1433  0.1966
54902SOL    HW171564   5.638  11.307   5.573  0.7628  0.5632  1.1284
54902SOL    HW271565   5.638  11.457   5.551  0.3902  0.3755 -0.2241
54903SOL     OW71566   9.213   9.500   9.128  0.4755  0.5049  0.2770
54903SOL    HW171567   9.254   9.428   9.176  0.3020  0.8489  0.9560
54903SOL    HW271568   9.271   9.514   9.053  0.5621 -0.2729  0.1866
54904SOL     OW71569   3.070   0.969   3.476  0.3953 -0.1640 -0.7851
54904SOL    HW171570   3.090   0.978   3.569 -0.8218 -2.9666 -0.1403
54904SOL    HW271571   3.096   0.879   3.455  1.4858  0.6717 -3.4327
54905SOL     OW71572  10.152   4.693   8.436  0.8373  0.6420 -0.8053
54905SOL    HW171573  10.102   4.664   8.512 -1.0057  1.0604 -1.7785
54905SOL    HW271574  10.139   4.788   8.433  2.9430  0.9857 -0.2833
54906SOL     OW71575   5.754   0.336  10.536  0.4247  0.0345 -0.7131
54906SOL    HW171576   5.748   0.404  10.603 -0.3324  0.3093 -1.0542
54906SOL    HW271577   5.736   0.255  10.582 -0.9904  0.3148 -0.7426
54907SOL     OW71578   7.630  12.319   3.686  0.4131 -0.5892  0.3959
54907SOL    HW171579   7.565  12.336   3.754  2.4294 -1.5640  2.6814
54907SOL    HW271580   7.578  12.284   3.613 -2.2583  3.4610 -0.0043
54908SOL     OW71581   8.596   8.221  11.861  0.3395 -0.3795 -0.1910
54908SOL    HW171582   8.516   8.174  11.837  0.9706 -1.1300 -0.8626
54908SOL    HW271583   8.576   8.261  11.946 -1.8126  2.0197 -1.6779
54909SOL     OW71584   7.216   5.374   5.437 -0.1323  0.1838 -0.2448
54909SOL    HW171585   7.309   5.395   5.447 -0.2120  0.6191 -0.4162
54909SOL    HW271586   7.213   5.305   5.371 -0.0796  1.4764 -1.6211
54910SOL     OW71587   4.959   4.964  12.482  0.3754  0.2015 -0.3709
54910SOL    HW171588   4.884   4.920  12.522  0.5775  1.0479  1.0187
54910SOL    HW271589   4.995   5.018  12.553  2.7878 -0.7867 -0.7416
54911SOL     OW71590   5.621   7.552   9.698  0.2473 -0.2643  0.8548
54911SOL    HW171591   5.645   7.461   9.712 -0.2117 -0.3025  1.4218
54911SOL    HW271592   5.700   7.601   9.718 -0.1631 -0.3718  2.9111
54912SOL     OW71593   8.746   5.813   6.494 -0.3168 -0.3542 -0.0773
54912SOL    HW171594   8.669   5.764   6.524 -0.6784  0.9664  1.2393
54912SOL    HW271595   8.820   5.755   6.513 -0.8427 -0.9044  0.3278
54913SOL     OW71596   8.030   2.672   0.828  0.3754 -0.4342  0.1235
54913SOL    HW171597   7.935   2.669   0.838  0.4130  0.4464  0.7525
54913SOL    HW271598   8.055   2.580   0.815 -0.6099 -0.6151 -0.6234
54914SOL     OW71599   5.267   6.043   6.042  0.0393  0.5365  0.1863
54914SOL    HW171600   5.177   6.074   6.050  0.3867  1.1827  1.9268
54914SOL    HW271601   5.306   6.098   5.974 -0.6258  0.8662  0.0673
54915SOL     OW71602   6.167  11.348   9.381 -0.1531  0.5043 -0.2719
54915SOL    HW171603   6.193  11.414   9.445  0.5331  0.2550 -0.2883
54915SOL    HW271604   6.121  11.398   9.313 -0.8659  0.7675  0.3978
54916SOL     OW71605   3.741   9.437   9.458 -0.4048  0.3661 -0.5682
54916SOL    HW171606   3.717   9.404   9.371  0.7448 -3.0734  0.2712
54916SOL    HW271607   3.836   9.452   9.452 -0.4028  0.5905 -0.0429
54917SOL     OW71608   5.009   7.109  10.705  0.3973 -0.1141 -0.3673
54917SOL    HW171609   5.002   7.048  10.778  2.5783 -2.0299 -1.6299
54917SOL    HW271610   4.943   7.080  10.642 -0.3831  0.5355  0.1350
54918SOL     OW71611   8.890   7.446   3.956 -0.3071 -0.1029  0.0082
54918SOL    HW171612   8.942   7.505   3.901 -1.3948 -0.2220 -1.2037
54918SOL    HW271613   8.810   7.496   3.976 -0.9232 -0.8876 -0.4434
54919SOL     OW71614   0.487   3.475   9.006  0.2768 -0.2283  0.0278
54919SOL    HW171615   0.476   3.411   8.936 -1.1688  1.4532 -1.3954
54919SOL    HW271616   0.517   3.424   9.081  2.3185 -2.0356 -1.8955
54920SOL     OW71617   4.733   2.018  11.040 -0.8695 -0.2489 -0.0908
54920SOL    HW171618   4.793   1.984  11.107 -1.1411  1.1126  0.8771
54920SOL    HW271619   4.684   1.941  11.012  0.3347 -1.1318  0.1363
54921SOL     OW71620   9.955   8.651   2.275  0.1051  0.1539 -0.2650
54921SOL    HW171621   9.937   8.594   2.201  0.1421  0.0346 -0.1823
54921SOL    HW271622   9.869   8.684   2.302  0.0364 -0.1944 -0.0477
54922SOL     OW71623   4.794   1.239   7.809 -0.2098 -0.2850 -0.0485
54922SOL    HW171624   4.774   1.231   7.716 -0.1902  0.4616 -0.1269
54922SOL    HW271625   4.882   1.277   7.811 -0.4846  0.3565  0.2642
54923SOL     OW71626   7.614   5.803   2.579 -0.5443 -0.0153  0.2446
54923SOL    HW171627   7.698   5.804   2.625 -1.8838 -2.3996  3.0754
54923SOL    HW271628   7.625   5.740   2.509 -0.0939 -0.7082  0.9316
54924SOL     OW71629   1.710   5.374   1.400 -0.3193 -0.0493  0.2143
54924SOL    HW171630   1.641   5.410   1.346  0.2551  0.4813 -0.1865
54924SOL    HW271631   1.665   5.333   1.474 -0.9951  1.6770  0.7902
54925SOL     OW71632   0.408   1.946   5.520  0.4163  0.0964  0.5232
54925SOL    HW171633   0.338   1.923   5.581  1.5071  0.0409  1.8214
54925SOL    HW271634   0.463   1.868   5.516 -0.0426 -0.1720 -1.1699
54926SOL     OW71635  12.211   8.965  12.246  0.1450  0.4177 -0.3761
54926SOL    HW171636  12.248   8.975  12.333 -0.5891  0.7179 -0.0899
54926SOL    HW271637  12.212   8.871  12.229  1.2991  0.4413 -0.5003
54927SOL     OW71638   5.904  10.986   9.562  0.4459 -0.5042  0.3344
54927SOL    HW171639   5.867  11.002   9.475  1.7556  2.1809  0.1467
54927SOL    HW271640   5.860  10.907   9.593 -2.4213  0.2113 -1.4549
54928SOL     OW71641   3.044   1.195   5.915  0.0698  0.4973 -0.0485
54928SOL    HW171642   3.052   1.259   5.985  2.0625  1.4957 -1.0923
54928SOL    HW271643   2.981   1.131   5.948 -2.7845  3.4013  0.6918
54929SOL     OW71644   1.016   3.622   0.221  0.5863  0.0461 -0.1349
54929SOL    HW171645   0.992   3.693   0.162 -2.1995 -0.2520  0.4943
54929SOL    HW271646   1.067   3.562   0.166  0.1563  0.9375 -1.5735
54930SOL     OW71647   4.998   8.563   3.723 -0.3707  0.0901 -0.1730
54930SOL    HW171648   4.974   8.642   3.674  0.1202  0.9228  0.8945
54930SOL    HW271649   5.093   8.558   3.715 -0.3877 -0.3394 -0.1349
54931SOL     OW71650  11.392  12.276  10.444 -0.2266  0.2857 -0.2955
54931SOL    HW171651  11.477  12.301  10.480 -0.1216  1.9986 -1.6150
54931SOL    HW271652  11.337  12.353  10.456 -1.3235 -0.4635 -0.3376
54932SOL     OW71653   1.210   8.815   4.944 -0.5009  1.1771  0.5319
54932SOL    HW171654   1.174   8.775   4.865 -0.0751 -0.3332  1.0805
54932SOL    HW271655   1.230   8.905   4.918 -0.3219  0.6995 -1.0908
54933SOL     OW71656  11.632   5.513  10.793 -0.3937 -0.2266  0.3330
54933SOL    HW171657  11.607   5.457  10.867 -1.4908  0.7168  0.7080
54933SOL    HW271658  11.677   5.587  10.835 -0.9923  0.2964  0.0643
54934SOL     OW71659   9.217   3.916   2.220  0.2988 -0.5275 -0.1353
54934SOL    HW171660   9.170   3.972   2.281  0.2197 -0.4814 -0.2387
54934SOL    HW271661   9.279   3.867   2.275  0.3374 -0.3724 -0.0406
54935SOL     OW71662   7.936   2.871   1.472 -0.0339 -0.3012 -0.4203
54935SOL    HW171663   7.849   2.878   1.433 -0.2665 -1.3453 -0.1144
54935SOL    HW271664   7.925   2.904   1.562 -0.2841 -1.0839 -0.1568
54936SOL     OW71665  11.149   8.104  10.995 -0.0194  0.9617 -0.4270
54936SOL    HW171666  11.128   8.170  10.929  1.5217  1.3229 -0.6035
54936SOL    HW271667  11.236   8.072  10.969 -0.4370 -0.6408  0.0510
54937SOL     OW71668   6.351  11.254   2.346 -0.1587 -0.8536 -0.3441
54937SOL    HW171669   6.266  11.252   2.302 -0.8202 -1.0413  0.9076
54937SOL    HW271670   6.371  11.163   2.365 -0.3082 -0.7061  0.5425
54938SOL     OW71671   2.754   8.820   3.617  0.5455  0.1875 -0.0097
54938SOL    HW171672   2.826   8.805   3.678 -0.1962  0.7617  1.0439
54938SOL    HW271673   2.760   8.913   3.594  0.7674 -0.0055 -0.7566
54939SOL     OW71674   9.905   1.719   9.470 -0.5114 -0.9270 -0.0807
54939SOL    HW171675   9.830   1.659   9.464 -1.0000 -0.4205  0.7886
54939SOL    HW271676   9.903   1.768   9.388 -2.0122  0.0782  0.5002
54940SOL     OW71677   9.694   7.994   7.623  0.4203 -0.0493  0.0519
54940SOL    HW171678   9.737   8.046   7.691  2.7530 -0.1716 -1.2089
54940SOL    HW271679   9.635   7.937   7.671  3.2991 -1.4594  2.2605
54941SOL     OW71680   9.855   8.783   8.555 -0.2463 -0.5642 -0.2248
54941SOL    HW171681   9.923   8.775   8.622  0.5470 -0.8370 -1.0529
54941SOL    HW271682   9.776   8.804   8.605  0.7557  1.5044  0.6314
54942SOL     OW71683   2.605  10.401   4.597  0.4153 -0.3108  0.1094
54942SOL    HW171684   2.557  10.334   4.548 -0.5094  1.3719 -1.4482
54942SOL    HW271685   2.567  10.400   4.684 -1.6339  0.1070 -0.7246
54943SOL     OW71686   5.613   6.994   4.314  0.6315 -0.4540  0.1515
54943SOL    HW171687   5.627   6.997   4.409 -1.4467 -0.1886  0.4924
54943SOL    HW271688   5.524   6.961   4.304  0.1397  1.2632 -1.6666
54944SOL     OW71689   2.927  10.889  11.315  1.0185  0.5057 -0.6575
54944SOL    HW171690   2.863  10.827  11.281  0.0194  2.7717 -3.3866
54944SOL    HW271691   2.986  10.906  11.242  2.8204  0.8948  0.8008
54945SOL     OW71692   8.712  10.201  11.587 -0.5670 -0.0804 -0.4421
54945SOL    HW171693   8.689  10.124  11.639  0.9016  0.9471  1.9284
54945SOL    HW271694   8.803  10.219  11.610 -1.0170  2.6789 -0.3817
54946SOL     OW71695   2.746  10.693  11.253  0.1793 -0.2300  0.6418
54946SOL    HW171696   2.692  10.768  11.278  0.2767 -0.8300  2.8753
54946SOL    HW271697   2.683  10.625  11.230  0.0914  0.5184 -1.5337
54947SOL     OW71698   8.852   7.165   2.469  0.2843 -0.0032 -0.0732
54947SOL    HW171699   8.922   7.230   2.467  1.3434 -1.1096 -0.3795
54947SOL    HW271700   8.892   7.086   2.434 -1.6442 -0.2150 -1.9614
54948SOL     OW71701   0.346   8.974   9.112  0.2701 -0.1756 -0.7097
54948SOL    HW171702   0.363   8.933   9.027 -0.0925  1.2403 -1.4927
54948SOL    HW271703   0.291   9.049   9.092  2.9073  2.2249  0.3064
54949SOL     OW71704   6.309  11.162  11.157 -0.1573 -0.2279  0.0182
54949SOL    HW171705   6.246  11.121  11.215  1.3670 -1.7733  0.6570
54949SOL    HW271706   6.394  11.135  11.190  1.0072  3.1966  0.2826
54950SOL     OW71707   0.322   4.596   2.407 -0.3901  0.0820  0.7635
54950SOL    HW171708   0.405   4.631   2.374 -0.1689 -0.0514  1.1733
54950SOL    HW271709   0.285   4.667   2.458  0.6046 -0.6290  2.5583
54951SOL     OW71710   6.169  10.412   6.399  0.2531  0.3480 -0.0512
54951SOL    HW171711   6.196  10.501   6.376 -1.0577  0.7850 -0.0131
54951SOL    HW271712   6.207  10.396   6.485  2.2453  0.0513 -0.9389
54952SOL     OW71713   4.779   7.928   1.203  0.2089 -0.4500 -0.2937
54952SOL    HW171714   4.851   7.946   1.143 -0.0774  1.7081 -0.0772
54952SOL    HW271715   4.702   7.967   1.162 -0.1860  0.1464  0.9342
54953SOL     OW71716   3.003   4.807  12.312 -0.1534 -0.1009  0.2949
54953SOL    HW171717   3.043   4.754  12.381  1.5496  0.3920 -0.2585
54953SOL    HW271718   3.072   4.815  12.246 -1.4987  0.0199 -1.1495
54954SOL     OW71719   6.458   4.233   2.407 -0.0196  0.1492  0.0301
54954SOL    HW171720   6.475   4.149   2.366 -1.0229  0.6642 -1.5090
54954SOL    HW271721   6.464   4.215   2.501 -0.5368 -1.7051 -0.2514
54955SOL     OW71722   8.944  10.934   6.451 -0.4789  0.5750  0.0140
54955SOL    HW171723   8.891  10.868   6.495 -3.0581  1.7464 -1.1024
54955SOL    HW271724   9.026  10.890   6.430 -0.3850 -0.9154  3.0838
54956SOL     OW71725   7.897  12.282   3.624 -0.0406 -0.8212  0.3994
54956SOL    HW171726   7.955  12.346   3.666  1.8475 -2.5465  0.5741
54956SOL    HW271727   7.809  12.305   3.654  0.3593  2.4408 -0.5735
54957SOL     OW71728   3.279   6.226  10.995  0.1733  0.1171 -0.2599
54957SOL    HW171729   3.207   6.249  10.937  0.3948 -2.1304 -1.5234
54957SOL    HW271730   3.358   6.243  10.944  0.5976  2.0076  0.9108
54958SOL     OW71731   4.599   8.256   6.724 -0.1802 -0.4857  0.2407
54958SOL    HW171732   4.506   8.235   6.723 -0.2812 -0.0353 -0.2145
54958SOL    HW271733   4.606   8.338   6.675  0.5971 -1.1123 -0.7596
54959SOL     OW71734   1.453   1.314   8.616 -0.1100 -0.1058  0.1319
54959SOL    HW171735   1.453   1.407   8.592  1.3504 -0.2476 -0.5619
54959SOL    HW271736   1.474   1.314   8.709  1.2094  0.2533 -0.1372
54960SOL     OW71737  10.456   2.917   1.061 -0.3370  0.6396 -0.1202
54960SOL    HW171738  10.468   2.841   1.118  1.1362  0.8819 -0.0798
54960SOL    HW271739  10.410   2.981   1.117 -1.0140  0.0362  0.0393
54961SOL     OW71740  10.518   3.793   9.080  0.2131 -0.1043  0.6263
54961SOL    HW171741  10.562   3.793   9.165  0.2643 -0.2756  0.5995
54961SOL    HW271742  10.522   3.884   9.051 -1.5052  0.3806  1.6919
54962SOL     OW71743   2.800   0.354   6.553  0.3945  0.3962 -0.2540
54962SOL    HW171744   2.715   0.357   6.596 -0.2722 -0.2336 -1.4743
54962SOL    HW271745   2.863   0.346   6.624 -0.5650  0.8951  0.6677
54963SOL     OW71746   7.105  10.404   3.407 -0.2103 -0.8887 -0.2703
54963SOL    HW171747   7.159  10.445   3.475 -1.5672  0.3747  0.0995
54963SOL    HW271748   7.167  10.385   3.336  1.4859 -3.3423  1.6772
54964SOL     OW71749  11.389  10.435  12.269  0.3520  0.0550 -0.4665
54964SOL    HW171750  11.405  10.363  12.208  1.5097  0.4345 -0.6290
54964SOL    HW271751  11.295  10.452  12.261  0.3950 -0.2067 -1.8138
54965SOL     OW71752   1.770   7.979  11.834 -0.2259  0.6498 -0.3345
54965SOL    HW171753   1.676   7.989  11.844 -0.2945  0.8795 -1.1904
54965SOL    HW271754   1.798   8.056  11.785  0.3213  0.3082 -0.5730
54966SOL     OW71755   7.705  10.380  10.713 -0.4307 -0.2158 -0.3286
54966SOL    HW171756   7.680  10.471  10.729  0.6568 -0.2134  1.6189
54966SOL    HW271757   7.800  10.380  10.716 -0.2897 -1.0935 -2.5145
54967SOL     OW71758   6.919   1.443   5.658  0.1855  0.5530 -0.1696
54967SOL    HW171759   6.881   1.379   5.598  0.0641  0.8323 -0.3954
54967SOL    HW271760   7.009   1.412   5.673 -0.1827 -0.2017  0.5043
54968SOL     OW71761  12.349   7.477   8.709 -0.2785 -0.3679  0.5834
54968SOL    HW171762  12.427   7.435   8.745 -0.0271 -1.1715 -0.8415
54968SOL    HW271763  12.288   7.406   8.694 -0.2236 -0.1270 -0.9190
54969SOL     OW71764  10.429  12.004  12.018 -0.0711 -0.2382  0.1630
54969SOL    HW171765  10.385  12.049  12.090 -0.5249 -0.8991  0.3060
54969SOL    HW271766  10.364  12.000  11.948  0.4972  0.7559 -0.4454
54970SOL     OW71767   0.422  10.934   1.959 -0.4661 -0.3665  0.3788
54970SOL    HW171768   0.461  10.858   1.916  1.0079 -0.2731  1.4615
54970SOL    HW271769   0.411  10.999   1.890  0.2659 -0.8089 -0.1592
54971SOL     OW71770   2.329  10.794   3.699 -0.1092  0.7854 -0.4555
54971SOL    HW171771   2.347  10.824   3.609  2.6760  0.9435  0.0736
54971SOL    HW271772   2.395  10.727   3.716 -1.7221 -0.5583  0.9075
54972SOL     OW71773   3.696   8.645   2.913 -0.7286 -0.1515 -0.0581
54972SOL    HW171774   3.651   8.626   2.995 -0.1251 -0.8184  0.1229
54972SOL    HW271775   3.788   8.621   2.929 -0.1560  1.7626 -0.2135
54973SOL     OW71776   5.769   8.654  10.344  0.1816  0.0155  0.3584
54973SOL    HW171777   5.704   8.591  10.314  0.0825  0.3542 -0.1405
54973SOL    HW271778   5.827   8.667  10.269  1.7336 -1.4116  1.2370
54974SOL     OW71779   7.407   1.001   1.044  0.5479 -0.0207 -0.9902
54974SOL    HW171780   7.444   0.944   1.110 -0.6324 -0.3581 -0.5923
54974SOL    HW271781   7.446   0.972   0.962 -1.6165 -2.9407 -1.1589
54975SOL     OW71782   7.435  11.525   4.448  0.0553  0.1960 -0.0604
54975SOL    HW171783   7.444  11.589   4.519 -1.3358  1.6114 -1.0837
54975SOL    HW271784   7.521  11.524   4.406  0.6926 -0.1573  1.1796
54976SOL     OW71785   5.426   6.725   9.589  0.3437 -0.0841  0.4194
54976SOL    HW171786   5.513   6.756   9.563 -0.2518  0.9327 -0.4420
54976SOL    HW271787   5.428   6.631   9.572  1.1832 -0.0226  0.1444
54977SOL     OW71788  10.564   2.117   1.392  0.1926  0.2500 -0.2541
54977SOL    HW171789  10.556   2.177   1.467  0.1889 -0.7977  0.6110
54977SOL    HW271790  10.655   2.086   1.397  0.5380  1.0077 -1.3655
54978SOL     OW71791   0.552   9.302  11.525 -0.1419 -0.2238  0.3752
54978SOL    HW171792   0.496   9.322  11.450 -1.0500  2.2346  1.5954
54978SOL    HW271793   0.523   9.215  11.554 -0.0469 -1.0394 -1.7992
54979SOL     OW71794   3.104   1.883   5.921  0.2528  0.1841 -0.0946
54979SOL    HW171795   3.147   1.798   5.913  1.3298  0.6943  0.1437
54979SOL    HW271796   3.155   1.942   5.866  0.6905  1.0980  1.2346
54980SOL     OW71797   5.845   5.906  12.425  0.0351 -0.2910 -0.0720
54980SOL    HW171798   5.781   5.976  12.438  0.2036 -0.2733  0.7390
54980SOL    HW271799   5.833   5.849  12.502 -0.4167 -1.4078 -0.9283
54981SOL     OW71800   8.284  10.889   6.834  0.3757  0.0779  0.0313
54981SOL    HW171801   8.313  10.980   6.838  0.9335 -0.1319  0.9999
54981SOL    HW271802   8.217  10.882   6.902 -0.2547 -0.0520 -0.5769
54982SOL     OW71803  11.498   9.603   4.697  0.3242  0.2277  0.0493
54982SOL    HW171804  11.505   9.687   4.652  0.3285  1.0374  1.4694
54982SOL    HW271805  11.442   9.549   4.641 -0.1913  1.3997 -0.5984
54983SOL     OW71806   9.597   1.801   0.626  0.6842 -0.0243 -0.1718
54983SOL    HW171807   9.613   1.793   0.532  1.7584 -1.5707  0.1012
54983SOL    HW271808   9.505   1.828   0.633  1.0575  1.9104 -1.6751
54984SOL     OW71809  10.197   5.517   0.607 -0.5854 -0.1542 -0.2343
54984SOL    HW171810  10.238   5.431   0.619  0.8675  0.4213 -0.8147
54984SOL    HW271811  10.141   5.506   0.530 -1.6654 -0.9951  0.6539
54985SOL     OW71812  12.067   7.391  11.563  0.2757  0.0102 -0.1080
54985SOL    HW171813  12.148   7.442  11.559  0.0062  0.4061 -0.6620
54985SOL    HW271814  12.054   7.359  11.473 -1.1722  1.5319 -0.4813
54986SOL     OW71815   3.864   2.668   3.190 -0.1240 -0.1902 -0.2204
54986SOL    HW171816   3.830   2.731   3.254 -2.4338  0.2525 -1.7458
54986SOL    HW271817   3.829   2.584   3.218  1.1409 -0.4736  0.5830
54987SOL     OW71818   6.948   5.495   1.910  0.4465  0.3005  0.2610
54987SOL    HW171819   6.951   5.476   2.004 -0.4154  0.7869  0.3965
54987SOL    HW271820   6.899   5.577   1.903  1.2649  0.7443 -0.5534
54988SOL     OW71821   5.722   2.084  12.286 -0.4206 -0.5685 -0.1227
54988SOL    HW171822   5.679   2.168  12.305  0.5382 -0.3714  1.2759
54988SOL    HW271823   5.705   2.070  12.192 -2.0526  0.3318 -0.0139
54989SOL     OW71824   8.427   1.015   6.171 -0.1523  0.2622  0.3191
54989SOL    HW171825   8.339   0.981   6.185 -1.4144  3.0406 -0.1631
54989SOL    HW271826   8.485   0.943   6.197 -2.5144 -2.1266 -0.5284
54990SOL     OW71827   2.294  11.289  10.009 -0.1044  0.1630  0.0395
54990SOL    HW171828   2.360  11.358  10.014 -1.9063  2.0237 -0.1036
54990SOL    HW271829   2.217  11.333   9.972 -1.1703 -2.0938 -0.5933
54991SOL     OW71830   9.684   7.752  10.448 -0.1831 -0.1320  0.4670
54991SOL    HW171831   9.770   7.725  10.477  0.8145  0.6353 -1.5504
54991SOL    HW271832   9.623   7.701  10.501  1.5162 -2.2019  0.5503
54992SOL     OW71833   0.566   6.834   3.050  0.7201 -0.3614 -0.1397
54992SOL    HW171834   0.607   6.754   3.083  0.8305 -0.9983 -1.7460
54992SOL    HW271835   0.616   6.856   2.972 -0.3673  0.3258 -0.6591
54993SOL     OW71836  11.258   1.840   4.021  0.3182  0.0205 -0.5473
54993SOL    HW171837  11.341   1.793   4.008 -0.4793 -1.3457 -0.8502
54993SOL    HW271838  11.250   1.849   4.116  1.1402  0.7811 -0.5390
54994SOL     OW71839   3.313   8.088   9.819 -0.1826 -0.3787 -0.3126
54994SOL    HW171840   3.401   8.051   9.826 -0.4754 -0.9495  0.6456
54994SOL    HW271841   3.278   8.081   9.908 -1.3074 -0.4570 -0.7482
54995SOL     OW71842   6.979  10.678  11.356 -0.1663  0.2530 -0.6202
54995SOL    HW171843   6.945  10.733  11.427  0.3340  1.7663 -1.5083
54995SOL    HW271844   6.905  10.665  11.297 -0.8799 -1.8686  0.5872
54996SOL     OW71845   5.326   3.682   7.434  0.4706 -0.0387 -0.3063
54996SOL    HW171846   5.308   3.594   7.401  1.4907  0.4018 -2.2231
54996SOL    HW271847   5.414   3.702   7.402  0.0497  1.8840 -0.3871
54997SOL     OW71848   5.532   5.350   2.899  0.9447 -0.3242 -0.2819
54997SOL    HW171849   5.610   5.403   2.912  1.1926 -0.6247 -0.5562
54997SOL    HW271850   5.466   5.412   2.867  0.8771  0.0574  0.5705
54998SOL     OW71851   0.309   1.977   2.610 -0.2391  0.1022  0.0286
54998SOL    HW171852   0.248   1.934   2.550  1.5231 -2.7891  0.1210
54998SOL    HW271853   0.357   2.040   2.555 -0.9711 -0.0477 -0.8011
54999SOL     OW71854   1.305   5.964  10.465  0.4245 -0.2668  0.1439
54999SOL    HW171855   1.357   6.044  10.474 -1.8757  1.1435  1.9455
54999SOL    HW271856   1.226   5.992  10.419 -1.0742 -1.1376  2.0743
55000SOL     OW71857   9.949   3.813   6.887 -0.0936 -0.8492  0.2500
55000SOL    HW171858   9.954   3.803   6.792  1.3258  0.8154  0.0983
55000SOL    HW271859   9.873   3.870   6.901 -1.0837 -2.1182  0.2521
55001SOL     OW71860  11.503   5.994   4.996 -0.3063 -0.2055 -0.1836
55001SOL    HW171861  11.515   6.060   4.928  0.2246  0.0758  0.1678
55001SOL    HW271862  11.414   6.007   5.028 -0.6968 -0.6068 -1.0962
55002SOL     OW71863   8.397   4.281   6.015  0.1767  0.0109  0.0842
55002SOL    HW171864   8.474   4.288   5.959  1.8675 -1.5555  2.0518
55002SOL    HW271865   8.362   4.194   5.996 -1.4413  0.8811 -1.1229
55003SOL     OW71866  11.211   9.090   2.171  0.2833 -0.5635  0.2525
55003SOL    HW171867  11.247   9.079   2.259 -3.0870 -2.3426  1.6302
55003SOL    HW271868  11.133   9.144   2.184 -2.3135 -3.7051 -0.8435
55004SOL     OW71869   3.954   8.049   1.949 -0.6296  0.8372  0.5036
55004SOL    HW171870   3.975   8.126   2.002 -0.7422  0.9944  0.3232
55004SOL    HW271871   3.908   8.085   1.873 -1.0285  0.5569  0.6108
55005SOL     OW71872   5.482   1.101   4.696  0.2163  0.2060  0.4070
55005SOL    HW171873   5.453   1.084   4.786 -1.2728 -0.1602 -0.1077
55005SOL    HW271874   5.459   1.193   4.681 -0.2357  0.0623  0.1754
55006SOL     OW71875   8.437   4.943   5.030  0.2005  0.2362 -0.6778
55006SOL    HW171876   8.457   4.993   5.109  2.2252  2.3976 -2.4146
55006SOL    HW271877   8.354   4.981   4.999  0.8712  1.4449 -1.0780
55007SOL     OW71878   7.548   6.165   5.520 -0.2558 -0.0089  0.6239
55007SOL    HW171879   7.499   6.083   5.523  0.6269 -0.5425  0.7780
55007SOL    HW271880   7.514   6.216   5.594 -0.8910 -0.1811  0.4504
55008SOL     OW71881  11.115   8.865  12.294  0.0477  0.2779  0.1590
55008SOL    HW171882  11.144   8.885  12.383 -0.7674 -1.5102  0.8762
55008SOL    HW271883  11.141   8.774  12.281 -1.1993  0.0522 -0.8588
55009SOL     OW71884   3.166   1.420   1.919 -0.4714 -0.4886 -0.1982
55009SOL    HW171885   3.249   1.438   1.876 -0.5807 -0.0133 -0.2117
55009SOL    HW271886   3.167   1.325   1.935  0.6021 -0.3174  0.9133
55010SOL     OW71887   9.199   9.129  11.042 -0.4965  1.0375 -0.6747
55010SOL    HW171888   9.280   9.148  10.994 -0.7648  1.2058 -1.0713
55010SOL    HW271889   9.145   9.081  10.979 -1.7153  3.1112 -1.3079
55011SOL     OW71890   8.045   1.021   4.360 -0.0203  0.2975 -0.1502
55011SOL    HW171891   8.059   0.940   4.311 -1.6165 -0.8387  1.1380
55011SOL    HW271892   8.027   1.087   4.294  1.7969 -0.2563 -1.2576
55012SOL     OW71893   9.154  10.277   3.756  0.5005  0.1407  0.2519
55012SOL    HW171894   9.080  10.230   3.718  0.9564  0.3034 -0.8740
55012SOL    HW271895   9.231  10.239   3.714  0.9063  1.6212 -0.4230
55013SOL     OW71896   7.802  10.563   5.455 -0.5545 -0.1142  0.4596
55013SOL    HW171897   7.817  10.657   5.444  1.4923 -0.4626 -0.1060
55013SOL    HW271898   7.787  10.552   5.549  0.2534  0.6432  0.6857
55014SOL     OW71899   2.624   1.050   6.265  0.1633  0.0870 -0.3047
55014SOL    HW171900   2.593   0.960   6.260 -0.2300  0.2904 -2.3371
55014SOL    HW271901   2.702   1.052   6.209  0.8353  0.7699  0.6261
55015SOL     OW71902  10.322   3.771   3.081  0.5065 -0.3231  0.2046
55015SOL    HW171903  10.337   3.705   3.148 -0.5137  0.5509  1.3237
55015SOL    HW271904  10.231   3.759   3.055 -0.2022  1.6280  1.5810
55016SOL     OW71905   9.319   7.603   2.882 -0.8040 -0.2667 -0.5666
55016SOL    HW171906   9.413   7.616   2.871 -0.5353 -2.2858 -0.9711
55016SOL    HW271907   9.299   7.639   2.969  0.4191 -0.2383 -0.2893
55017SOL     OW71908  11.249   5.670  11.180  0.3622  0.2493  0.1601
55017SOL    HW171909  11.344   5.672  11.192  0.8103  1.6252 -2.7285
55017SOL    HW271910  11.232   5.733  11.110 -2.3914 -1.6392 -1.0764
55018SOL     OW71911   1.807   1.293   1.917 -0.4829 -0.2760 -0.1443
55018SOL    HW171912   1.884   1.245   1.946 -2.0443 -2.5337  0.5672
55018SOL    HW271913   1.778   1.247   1.838 -0.2437  1.5248 -1.3350
55019SOL     OW71914   6.411   3.318   2.966 -0.0471 -0.3066  0.3779
55019SOL    HW171915   6.447   3.243   2.919  0.6926 -0.2849  0.8857
55019SOL    HW271916   6.428   3.299   3.058  1.9528  1.3394  0.4285
55020SOL     OW71917  11.129   5.257   4.384  0.2077 -0.1136  0.5389
55020SOL    HW171918  11.075   5.179   4.373  1.9989 -1.4552  0.9002
55020SOL    HW271919  11.101   5.316   4.314  0.1878 -1.8827 -0.9979
55021SOL     OW71920   5.069   3.515   5.480 -0.2076  0.0825  0.1104
55021SOL    HW171921   5.114   3.433   5.500  0.7412  0.2353 -1.1949
55021SOL    HW271922   5.025   3.540   5.561  1.1912 -0.6487  1.1307
55022SOL     OW71923   8.090   5.553   7.363 -0.6641  0.5941  0.0633
55022SOL    HW171924   8.136   5.635   7.347 -1.3869  0.8003 -1.0785
55022SOL    HW271925   8.125   5.522   7.447  0.0525  1.7552  0.2214
55023SOL     OW71926   0.608   9.277   2.177 -0.6797  0.4365 -0.2166
55023SOL    HW171927   0.633   9.269   2.269  1.1646  0.2876 -0.6903
55023SOL    HW271928   0.663   9.213   2.131  0.7957  2.6723 -1.7735
55024SOL     OW71929   6.031   5.065   0.513  0.2536  0.1594  0.0247
55024SOL    HW171930   6.006   5.088   0.424 -0.6446  0.0350  0.2354
55024SOL    HW271931   5.961   5.007   0.544  0.6548  0.0361  0.7398
55025SOL     OW71932  11.870   2.153   1.281  0.2168 -0.4882  0.3471
55025SOL    HW171933  11.913   2.204   1.349  0.2846 -1.5049  1.0999
55025SOL    HW271934  11.892   2.197   1.199  0.0334  0.8378  0.9806
55026SOL     OW71935  11.587   3.870   9.940 -0.1582 -0.1195 -0.8866
55026SOL    HW171936  11.506   3.837   9.901 -0.5348  0.3001 -0.4702
55026SOL    HW271937  11.636   3.907   9.867 -0.3798 -0.2973 -1.1270
55027SOL     OW71938   2.444   8.925   5.623 -0.5514  0.2617  0.0735
55027SOL    HW171939   2.411   8.922   5.533 -0.5454  1.2141  0.0242
55027SOL    HW271940   2.534   8.956   5.614  0.0958 -1.4716  0.2751
55028SOL     OW71941   0.986  11.308   1.461  0.2964 -0.1702 -0.2316
55028SOL    HW171942   1.081  11.307   1.470  0.2013 -1.0074  0.8532
55028SOL    HW271943   0.964  11.219   1.433 -0.0467  0.4646 -2.1031
55029SOL     OW71944   1.622   0.779   0.729  0.3294  0.0091  0.0494
55029SOL    HW171945   1.700   0.746   0.773  0.3445 -0.6587 -0.4695
55029SOL    HW271946   1.557   0.709   0.739 -0.1545  0.4873  0.3281
55030SOL     OW71947   0.657   3.484   0.056 -0.3066 -0.2232  0.1181
55030SOL    HW171948   0.620   3.416   0.113 -0.2016  0.4255  0.9880
55030SOL    HW271949   0.582   3.536   0.028 -0.3792 -0.6477 -0.4931
55031SOL     OW71950   5.079   1.025   6.006  0.4149 -0.4385  0.1568
55031SOL    HW171951   5.131   0.993   6.079 -0.9498 -0.6751  1.0477
55031SOL    HW271952   5.078   1.120   6.018  2.0469 -0.2482 -0.8565
55032SOL     OW71953   2.543  12.324   6.319  0.4758  0.1008 -0.2979
55032SOL    HW171954   2.628  12.281   6.317  0.5247  0.1871 -0.1029
55032SOL    HW271955   2.483  12.262   6.278  0.6629  0.1056 -0.5792
55033SOL     OW71956   1.508  10.844   3.178  1.0841  0.0817  0.2901
55033SOL    HW171957   1.471  10.908   3.117  0.3973 -0.8287 -0.2784
55033SOL    HW271958   1.487  10.759   3.139  1.5606 -0.5001  1.2661
55034SOL     OW71959  12.518   8.428   5.044  0.0042  0.0174 -0.0512
55034SOL    HW171960  12.540   8.348   4.998  1.3552 -0.0261  0.6150
55034SOL    HW271961  12.493   8.399   5.132  1.7703  0.3701  0.6115
55035SOL     OW71962   5.677   8.678   7.174 -0.0203 -0.0324 -0.1418
55035SOL    HW171963   5.642   8.690   7.263 -0.0239 -1.0443  0.0077
55035SOL    HW271964   5.605   8.703   7.116 -0.2658 -0.0676  0.1453
55036SOL     OW71965  11.288   8.131   3.691 -0.0521  0.3389 -0.1477
55036SOL    HW171966  11.352   8.066   3.660 -0.8199  0.5691 -2.3604
55036SOL    HW271967  11.341   8.195   3.738  0.7417 -1.8097  2.1433
55037SOL     OW71968   8.560  12.517   4.474 -0.8846 -0.2204  0.1709
55037SOL    HW171969   8.472  12.497   4.504 -0.3688 -2.1557  0.4810
55037SOL    HW271970   8.565  12.479   4.386 -0.4834  0.2684 -0.0298
55038SOL     OW71971  12.447   7.449   1.120 -0.3239 -0.1572  0.3211
55038SOL    HW171972  12.390   7.504   1.066 -0.0884 -2.3830 -2.3878
55038SOL    HW271973  12.535   7.462   1.085 -0.0471 -1.1622  0.6034
55039SOL     OW71974   8.767  11.749   4.713  0.2693 -0.9066 -0.2426
55039SOL    HW171975   8.698  11.695   4.752 -0.4239 -0.0992 -0.3476
55039SOL    HW271976   8.797  11.805   4.785  1.6089 -2.0152  0.1066
55040SOL     OW71977   5.294   8.021   6.869  0.6915 -0.2153  0.3075
55040SOL    HW171978   5.199   8.024   6.879  0.7317 -1.7631  1.4764
55040SOL    HW271979   5.308   8.013   6.775 -0.2789  0.9182  0.0374
55041SOL     OW71980   2.605   7.254   0.856  0.7976  0.4102 -0.8809
55041SOL    HW171981   2.551   7.221   0.784  0.7360 -0.6073 -0.3833
55041SOL    HW271982   2.658   7.179   0.883  1.3993  0.9991 -0.3866
55042SOL     OW71983   6.790  10.530   6.970 -0.3878  0.0244  0.5035
55042SOL    HW171984   6.793  10.618   6.933  1.9593  0.3436  1.3283
55042SOL    HW271985   6.752  10.542   7.057 -1.4939 -0.0458  0.0543
55043SOL     OW71986  12.047   1.505  11.457 -0.3056 -0.0378  0.1203
55043SOL    HW171987  12.080   1.543  11.376  0.1398 -1.0670 -0.1964
55043SOL    HW271988  12.083   1.560  11.526 -0.2077  0.4964 -0.3516
55044SOL     OW71989   0.210   8.963  10.009  0.1142 -0.1256  0.2429
55044SOL    HW171990   0.215   9.039  10.066  2.3075  0.4377 -0.5828
55044SOL    HW271991   0.228   8.889  10.067  1.0172  0.3075  0.5304
55045SOL     OW71992  10.840  10.522  11.565  0.3034  0.5992 -0.4937
55045SOL    HW171993  10.805  10.507  11.477 -2.3292 -1.2410  0.7144
55045SOL    HW271994  10.781  10.586  11.604 -0.1309 -0.4746  0.6951
55046SOL     OW71995   1.841  10.614   9.101  0.3013  0.4504  0.2703
55046SOL    HW171996   1.919  10.589   9.050  1.5701  3.8854  0.2431
55046SOL    HW271997   1.869  10.610   9.192 -0.3616 -0.8055  0.4350
55047SOL     OW71998   3.270   2.799   0.812 -0.0751  0.1672 -0.2197
55047SOL    HW171999   3.336   2.730   0.819  1.3307  1.5349  0.8622
55047SOL    HW272000   3.283   2.837   0.725 -1.9797 -1.9056 -1.5282
55048SOL     OW72001   2.728   7.156   4.396 -0.1970 -0.7563  0.3750
55048SOL    HW172002   2.783   7.187   4.324 -0.9967 -1.9169 -0.7889
55048SOL    HW272003   2.726   7.061   4.385 -2.4507 -0.7708  0.3162
55049SOL     OW72004   0.221   2.158   8.212  0.2218  0.2818  0.3115
55049SOL    HW172005   0.294   2.219   8.220  0.0126  0.5857 -0.0622
55049SOL    HW272006   0.187   2.150   8.301  0.1312  0.8617  0.3347
55050SOL     OW72007   0.778   8.064  11.221 -0.3420 -0.3471 -0.5813
55050SOL    HW172008   0.848   8.030  11.165 -0.4830 -1.1659 -0.2657
55050SOL    HW272009   0.725   8.118  11.162  0.7025  0.5089 -0.7634
55051SOL     OW72010   3.765  11.416   5.765  0.5899 -0.4290 -0.1348
55051SOL    HW172011   3.740  11.428   5.856  1.6142 -1.6869  0.3313
55051SOL    HW272012   3.730  11.493   5.720 -1.3843 -0.6017  1.0067
55052SOL     OW72013   4.099  12.446   4.348  0.7267  0.1649  0.3688
55052SOL    HW172014   4.101  12.354   4.373  1.1604  0.3443  1.0210
55052SOL    HW272015   4.108  12.445   4.253 -0.1051 -0.4969  0.2879
55053SOL     OW72016  10.591  12.549  11.329  0.5087 -0.0979 -0.1972
55053SOL    HW172017  10.552  12.506  11.405  3.4318 -0.3930  1.2483
55053SOL    HW272018  10.646  12.483  11.289  0.0967  0.4849 -1.8020
55054SOL     OW72019   9.855   8.279  11.548  0.3785  0.0456 -0.1491
55054SOL    HW172020   9.891   8.360  11.511 -0.0269 -0.0472 -0.7597
55054SOL    HW272021   9.867   8.289  11.642 -1.3170  1.6158 -0.0532
55055SOL     OW72022   7.686   5.304   8.828 -0.3129  0.3786  0.4809
55055SOL    HW172023   7.711   5.395   8.841  2.2837 -0.0514 -0.8196
55055SOL    HW272024   7.617   5.308   8.762  0.3946  1.3804 -0.2298
55056SOL     OW72025   6.226  10.140   0.332 -0.3637  0.0845 -0.1851
55056SOL    HW172026   6.256  10.063   0.285 -0.7936 -0.0876 -0.1839
55056SOL    HW272027   6.148  10.111   0.379 -0.7103  0.5938 -0.4277
55057SOL     OW72028   9.137   9.767   2.409 -0.5055 -0.0038  0.6529
55057SOL    HW172029   9.084   9.810   2.343 -1.0115  0.4860  1.3606
55057SOL    HW272030   9.215   9.737   2.362 -1.1225 -0.1975 -0.2721
55058SOL     OW72031  12.390  10.927   1.116  0.3052  0.3895  0.0356
55058SOL    HW172032  12.318  10.878   1.076  0.4669 -1.5024  1.8490
55058SOL    HW272033  12.365  10.933   1.209  2.8122 -1.0860  0.8935
55059SOL     OW72034   5.953  12.441   1.447  0.1006 -0.7175 -0.3208
55059SOL    HW172035   5.865  12.475   1.461  0.4545 -0.2100  0.8179
55059SOL    HW272036   5.996  12.506   1.392  0.1511 -0.3167  0.1848
55060SOL     OW72037  10.682  10.575   9.257 -0.1045 -0.0899  0.3107
55060SOL    HW172038  10.640  10.608   9.178  0.9278 -0.4985 -0.4414
55060SOL    HW272039  10.775  10.595   9.245 -0.0115  0.5197  1.7801
55061SOL     OW72040   5.115  11.079   9.529 -0.1850 -0.3522 -0.2142
55061SOL    HW172041   5.128  11.031   9.611 -1.8458 -2.9924 -1.3851
55061SOL    HW272042   5.042  11.035   9.486  0.2145  1.3339 -2.8540
55062SOL     OW72043   9.631  11.072  10.089 -0.1509 -0.2822 -0.0395
55062SOL    HW172044   9.703  11.072  10.152  0.4313 -0.2209 -0.7035
55062SOL    HW272045   9.587  11.156  10.105 -0.0983 -0.3308  0.3853
55063SOL     OW72046   4.504  10.850   6.028 -0.6192 -0.5243 -0.4472
55063SOL    HW172047   4.502  10.945   6.016  0.6501 -0.5361 -1.0360
55063SOL    HW272048   4.581  10.822   5.977 -0.9870 -1.8660 -0.3015
55064SOL     OW72049  10.579   3.395   1.345  0.0275  0.0477 -0.1951
55064SOL    HW172050  10.510   3.346   1.300  0.6800 -1.3632  0.2827
55064SOL    HW272051  10.583   3.354   1.432  1.3501  0.2207 -0.1645
55065SOL     OW72052   8.752   2.896   1.461 -0.4787 -0.2238 -0.1701
55065SOL    HW172053   8.760   2.989   1.482 -0.7863  0.4687 -2.7637
55065SOL    HW272054   8.830   2.855   1.499  0.0842  1.2312  0.2902
55066SOL     OW72055   3.346   5.170   7.830  0.5646  0.5956 -0.0804
55066SOL    HW172056   3.318   5.184   7.921  2.7586  3.6404  0.3113
55066SOL    HW272057   3.410   5.099   7.835 -0.9779 -0.8092  0.3300
55067SOL     OW72058   6.877   1.323   0.189  0.1694  0.0705  0.1275
55067SOL    HW172059   6.880   1.376   0.109 -0.2516 -0.1130 -0.0143
55067SOL    HW272060   6.908   1.382   0.258 -0.2148  0.4752 -0.0402
55068SOL     OW72061   8.860  10.089   6.054 -0.0429  0.0189 -0.3454
55068SOL    HW172062   8.928  10.025   6.034  0.8434  0.1893  1.8366
55068SOL    HW272063   8.797  10.040   6.107 -0.0313  0.6034  0.2221
55069SOL     OW72064   7.910  10.825  10.213  0.1635 -0.3057 -0.2905
55069SOL    HW172065   7.887  10.827  10.121 -1.7173  0.7169  0.1432
55069SOL    HW272066   7.916  10.917  10.239  0.4784 -0.5697  0.6506
55070SOL     OW72067   0.501   7.012   5.620 -0.3760 -0.3220  0.0756
55070SOL    HW172068   0.526   6.935   5.568 -1.8232 -1.2498  0.6753
55070SOL    HW272069   0.418   6.986   5.661 -0.3672  1.1997  1.1024
55071SOL     OW72070  12.366   4.001  11.638 -0.0796  0.3122  0.1580
55071SOL    HW172071  12.441   4.006  11.579  0.6969 -0.2779  1.0780
55071SOL    HW272072  12.294   4.042  11.589  0.4399 -0.5091 -1.3367
55072SOL     OW72073   4.091   2.787  10.360  0.2920 -0.2601 -0.2676
55072SOL    HW172074   4.079   2.808  10.452  0.1921  0.0615 -0.3539
55072SOL    HW272075   4.046   2.857  10.313  0.1470 -0.5434 -0.5594
55073SOL     OW72076   0.927  10.417  12.031  0.4458 -0.4483  0.1520
55073SOL    HW172077   0.887  10.485  12.086 -0.6429 -1.5594  0.7775
55073SOL    HW272078   1.020  10.421  12.053  0.0728 -0.6962  1.9106
55074SOL     OW72079   8.962   7.648   5.606 -0.4377 -0.1565 -0.0585
55074SOL    HW172080   9.005   7.678   5.526  2.1449 -0.0521  1.2560
55074SOL    HW272081   8.875   7.620   5.578  0.9188 -1.7268 -3.2084
55075SOL     OW72082   0.908   4.237   0.195  0.3234 -0.4049 -1.0274
55075SOL    HW172083   0.971   4.200   0.258  0.0510 -0.3371 -0.7096
55075SOL    HW272084   0.877   4.317   0.237 -0.6789 -0.9210 -0.7413
55076SOL     OW72085   2.176   9.942   1.332 -0.6486 -0.3863 -0.7161
55076SOL    HW172086   2.124   9.980   1.261 -2.1939  0.7803  0.9616
55076SOL    HW272087   2.223  10.016   1.369 -0.1489 -0.9241 -0.2694
55077SOL     OW72088   7.324   0.650   9.316 -0.1516 -0.0943 -0.2848
55077SOL    HW172089   7.231   0.630   9.303 -0.0124 -1.3360  0.5300
55077SOL    HW272090   7.351   0.692   9.234 -1.3535  0.0077 -0.6489
55078SOL     OW72091   5.993   6.696   2.686  0.1744 -0.0720 -0.6434
55078SOL    HW172092   5.959   6.717   2.599  0.3611  1.2487 -0.4263
55078SOL    HW272093   6.065   6.636   2.671 -0.5239 -0.7553 -1.3130
55079SOL     OW72094   6.798   8.681   9.801 -0.2902 -0.0191  0.4217
55079SOL    HW172095   6.777   8.657   9.891  0.4206 -0.9521  0.3613
55079SOL    HW272096   6.814   8.775   9.804 -0.2774 -0.0420  1.2703
55080SOL     OW72097   8.722  12.506   3.003 -0.4922 -0.1615  0.5929
55080SOL    HW172098   8.686  12.519   2.916  1.2272 -0.2954 -0.1799
55080SOL    HW272099   8.742  12.413   3.008  1.7840  0.2448  0.1062
55081SOL     OW72100   1.887   6.193   2.222  0.3916 -0.5175 -0.4228
55081SOL    HW172101   1.873   6.219   2.313  0.8524 -1.1147 -0.1829
55081SOL    HW272102   1.799   6.191   2.184  0.3446  2.3184 -0.7251
55082SOL     OW72103   0.252   2.481  11.386 -0.2780  0.7701 -0.0926
55082SOL    HW172104   0.323   2.545  11.391 -0.0322  0.7477 -2.2402
55082SOL    HW272105   0.293   2.402  11.349 -1.0505  0.1290  0.3767
55083SOL     OW72106   9.836  10.215   6.080  0.0023  0.5456  0.6153
55083SOL    HW172107   9.875  10.234   5.994  0.8683  0.4424  0.9775
55083SOL    HW272108   9.742  10.211   6.063  0.2658 -2.0288 -0.8772
55084SOL     OW72109   5.971  11.003  12.169 -0.2676 -0.1689  0.0581
55084SOL    HW172110   5.877  11.020  12.183  0.1221  2.7593 -0.1925
55084SOL    HW272111   5.976  10.961  12.084 -1.3212  0.3752 -0.2879
55085SOL     OW72112   1.000   5.139  12.412 -1.0245 -0.0606 -0.0097
55085SOL    HW172113   0.908   5.113  12.417 -1.1562  0.4427  0.3426
55085SOL    HW272114   1.006   5.217  12.468 -0.5037  0.2504 -0.4785
55086SOL     OW72115   6.403   4.341   5.591 -0.0263 -1.1130 -0.3795
55086SOL    HW172116   6.486   4.308   5.625  0.1108 -1.0079 -0.6076
55086SOL    HW272117   6.338   4.276   5.618  0.0344 -0.9023  0.3088
55087SOL     OW72118   9.594   1.553   3.780 -0.0514  0.1985  0.1317
55087SOL    HW172119   9.574   1.647   3.775 -1.4661 -0.0480  0.6953
55087SOL    HW272120   9.532   1.512   3.719 -0.0725 -0.4554  0.5888
55088SOL     OW72121   3.125  10.565   1.139 -0.1698 -0.3127  0.5408
55088SOL    HW172122   3.113  10.642   1.195 -0.4869 -0.2321  0.3622
55088SOL    HW272123   3.046  10.512   1.153 -0.6960  0.1604 -0.5460
55089SOL     OW72124   4.721   2.393   1.869  0.5934 -0.6277 -0.0517
55089SOL    HW172125   4.698   2.469   1.817 -0.3155 -0.6382  0.3218
55089SOL    HW272126   4.817   2.393   1.871  0.6661 -0.7182 -1.8396
55090SOL     OW72127   9.886   0.788   9.535 -0.3221  0.1985 -0.4048
55090SOL    HW172128   9.839   0.870   9.553 -0.4927 -0.3030  1.6913
55090SOL    HW272129   9.876   0.737   9.615  1.3266 -1.1338 -0.9987
55091SOL     OW72130   3.192   6.583   4.092 -0.0705  0.7061 -0.0970
55091SOL    HW172131   3.281   6.600   4.122  1.0224 -1.2019 -1.9634
55091SOL    HW272132   3.151   6.536   4.164 -0.0241  2.6137  1.2493
55092SOL     OW72133   5.860  10.815  10.001  0.0962 -0.1378  0.0650
55092SOL    HW172134   5.789  10.863   9.958  0.6013  0.8710  0.3172
55092SOL    HW272135   5.929  10.881  10.013  0.9693 -1.0291  0.0674
55093SOL     OW72136   1.949   3.322   9.361 -0.1258 -0.2353  0.3579
55093SOL    HW172137   1.899   3.336   9.280  0.1678  0.1047  0.2334
55093SOL    HW272138   1.963   3.410   9.396 -1.3284 -0.4453  1.4466
55094SOL     OW72139   1.886   8.441   2.755 -0.0679 -0.5051  0.4385
55094SOL    HW172140   1.951   8.509   2.738 -3.0249  2.8236  1.2231
55094SOL    HW272141   1.896   8.420   2.847 -0.3070  0.3368  0.6717
55095SOL     OW72142  12.218   2.589   4.122 -0.0152 -0.3099  0.0966
55095SOL    HW172143  12.258   2.525   4.182  0.4568  1.8644  2.2792
55095SOL    HW272144  12.164   2.644   4.179 -0.3500  1.2677 -1.6552
55096SOL     OW72145   6.818   2.063   7.866  0.0343  0.7357 -0.2488
55096SOL    HW172146   6.752   2.021   7.811  0.6562  1.5267 -1.6465
55096SOL    HW272147   6.812   2.017   7.950 -1.2017 -0.2487 -0.8453
55097SOL     OW72148  11.819   2.092   4.632  0.0800 -0.4014  0.3957
55097SOL    HW172149  11.871   2.157   4.679  0.1507 -0.4214  0.3453
55097SOL    HW272150  11.759   2.144   4.578 -0.3027 -0.3752  0.8339
55098SOL     OW72151   7.159   7.048   1.913 -0.0214  0.2854 -0.3559
55098SOL    HW172152   7.105   7.026   1.837 -0.4645  0.1454 -0.0067
55098SOL    HW272153   7.142   6.977   1.975 -0.3565  0.8593  0.2237
55099SOL     OW72154  12.491   2.673   8.327  0.1257 -0.2313  0.3554
55099SOL    HW172155  12.467   2.721   8.406 -0.7830 -0.3494  0.1659
55099SOL    HW272156  12.412   2.624   8.304 -0.7559  2.1943 -2.4070
55100SOL     OW72157   3.222   9.668   9.247  0.0756  0.2434  0.6890
55100SOL    HW172158   3.296   9.607   9.240  1.3136  1.6172  1.3061
55100SOL    HW272159   3.252   9.747   9.203  0.0174  1.7362  3.1540
55101SOL     OW72160   8.255   8.899   5.184 -0.4742  0.2484 -0.3870
55101SOL    HW172161   8.309   8.969   5.220  0.7532 -0.6222 -0.5009
55101SOL    HW272162   8.253   8.832   5.252 -0.5806 -0.1574 -0.7823
55102SOL     OW72163   5.972  10.053   7.895  0.0106  0.2023  0.1097
55102SOL    HW172164   6.062  10.022   7.892  0.1233  0.5316  0.0134
55102SOL    HW272165   5.931  10.014   7.818  0.1477  0.2831 -0.0042
55103SOL     OW72166   9.322   0.975   9.264 -0.1490 -0.5083 -0.6247
55103SOL    HW172167   9.366   0.963   9.180 -0.1454 -2.3605 -0.3916
55103SOL    HW272168   9.278   0.892   9.281 -0.3597 -0.0957  1.0778
55104SOL     OW72169   1.829   1.778   5.380 -0.0522 -0.4238 -0.5727
55104SOL    HW172170   1.890   1.819   5.319 -1.6657 -1.6927 -3.1851
55104SOL    HW272171   1.762   1.845   5.395 -0.0552 -0.3807 -0.7812
55105SOL     OW72172  11.209   2.999   9.448  0.2921  0.3174  0.6123
55105SOL    HW172173  11.143   3.005   9.378 -1.1911 -0.8223  1.8640
55105SOL    HW272174  11.271   2.933   9.416 -1.1079 -1.1932  0.9057
55106SOL     OW72175   6.146   9.472   3.908  0.2621 -0.4984  0.6113
55106SOL    HW172176   6.097   9.403   3.951 -0.4347 -0.0176  0.6025
55106SOL    HW272177   6.218   9.426   3.864 -0.0881 -1.1959  0.7458
55107SOL     OW72178  12.168   2.333   7.964  0.8040 -0.3189 -0.3811
55107SOL    HW172179  12.228   2.380   8.021 -0.8573 -0.5584  1.7169
55107SOL    HW272180  12.169   2.381   7.882  3.7172 -0.2741 -0.3983
55108SOL     OW72181   4.266   7.750   9.394 -0.4791  0.3173  0.6675
55108SOL    HW172182   4.189   7.693   9.391  0.4544 -1.0709  1.6580
55108SOL    HW272183   4.315   7.720   9.472  1.7579  0.1803 -0.7019
55109SOL     OW72184   0.471  11.992  11.277  0.3354 -0.1792 -0.6051
55109SOL    HW172185   0.528  11.943  11.218  0.2790 -1.3074  0.2274
55109SOL    HW272186   0.514  11.986  11.362  0.1415  0.9439 -0.4121
55110SOL     OW72187  11.613   2.238   8.794  0.0482  0.0352  0.1761
55110SOL    HW172188  11.647   2.247   8.883 -0.4566  1.4165  0.2521
55110SOL    HW272189  11.644   2.152   8.765  2.1243  0.4994  0.8624
55111SOL     OW72190   7.104   2.684  10.049 -0.2019  0.2306 -0.3256
55111SOL    HW172191   7.024   2.730  10.025 -0.2682 -0.1826 -0.9021
55111SOL    HW272192   7.175   2.746  10.028 -0.3111  0.2119 -0.7482
55112SOL     OW72193   0.977   0.057   0.650  0.0861 -0.0391  0.0788
55112SOL    HW172194   0.885   0.055   0.677 -0.3258 -0.5253 -1.2557
55112SOL    HW272195   0.991   0.147   0.620  0.1005  0.0886  0.4711
55113SOL     OW72196   9.548   1.141   3.855 -0.2094  0.2544  0.2964
55113SOL    HW172197   9.549   1.227   3.898  0.0343 -0.5471  1.9648
55113SOL    HW272198   9.586   1.081   3.919 -1.0132 -1.2356 -0.5545
55114SOL     OW72199  10.310   6.784   7.407 -0.1862  0.1478 -0.1874
55114SOL    HW172200  10.351   6.813   7.489 -0.5148 -1.3087  0.5224
55114SOL    HW272201  10.218   6.771   7.430 -0.2020 -0.6550 -0.6721
55115SOL     OW72202   4.477  11.969   9.256 -0.2726 -0.1307  0.1599
55115SOL    HW172203   4.411  12.004   9.316  0.7217  1.3947  0.3947
55115SOL    HW272204   4.534  11.916   9.312 -0.9148 -0.9409  0.0640
55116SOL     OW72205   7.645  11.989   0.068 -0.5187 -0.0403  0.4515
55116SOL    HW172206   7.658  11.942   0.150 -1.0209  0.1827  0.6573
55116SOL    HW272207   7.644  11.920   0.001 -0.5816 -0.2622  0.6796
55117SOL     OW72208   6.143  10.482   3.699 -0.0080 -0.3602  0.1476
55117SOL    HW172209   6.219  10.492   3.641  0.2505  0.6201  0.6189
55117SOL    HW272210   6.084  10.553   3.673  1.0470  1.4962  2.4261
55118SOL     OW72211   4.170   1.554   1.265  0.0992  0.1447  0.1620
55118SOL    HW172212   4.095   1.568   1.207 -1.1647 -1.3433  1.3369
55118SOL    HW272213   4.191   1.461   1.256  2.4657  0.7029 -0.8217
55119SOL     OW72214   7.848   8.444   7.421  0.4679 -0.2065 -0.3473
55119SOL    HW172215   7.852   8.404   7.335 -1.3733  1.9804 -1.5732
55119SOL    HW272216   7.761   8.421   7.454  0.8921 -0.4437  0.6253
55120SOL     OW72217  10.982   4.525   7.521 -0.0926 -0.7948  0.6573
55120SOL    HW172218  10.945   4.437   7.528 -1.5806 -0.1939  0.5882
55120SOL    HW272219  10.940   4.563   7.445  0.9345 -0.1848  0.3703
55121SOL     OW72220   2.509  11.537   7.715 -0.1766 -0.1931 -0.2001
55121SOL    HW172221   2.593  11.573   7.743  1.0766  0.0230 -3.7249
55121SOL    HW272222   2.507  11.448   7.751  0.6418  0.4516  1.4987
55122SOL     OW72223   7.219   8.561   6.919  0.0179  0.2047 -0.3783
55122SOL    HW172224   7.268   8.639   6.943  0.2012 -0.6143  2.2860
55122SOL    HW272225   7.282   8.489   6.927 -0.6815 -0.4575 -0.5798
55123SOL     OW72226   7.709   3.143  10.686 -0.7325 -0.6858 -0.4265
55123SOL    HW172227   7.787   3.172  10.638  0.4722 -0.3818  1.5822
55123SOL    HW272228   7.659   3.223  10.701 -0.2380 -0.4931  0.2648
55124SOL     OW72229   4.316  11.352   3.842 -0.6634  0.4139  0.3602
55124SOL    HW172230   4.306  11.296   3.919  0.7471 -0.3427  0.0098
55124SOL    HW272231   4.280  11.436   3.869 -1.8218 -0.3263  1.2500
55125SOL     OW72232   6.069   5.341   4.880 -0.5295  0.1840  0.3859
55125SOL    HW172233   6.104   5.253   4.893  0.7045  0.7409  0.9842
55125SOL    HW272234   6.007   5.353   4.952  0.5571  0.4084  1.3105
55126SOL     OW72235   7.204  11.594   6.788 -0.0617  0.3633  0.1558
55126SOL    HW172236   7.206  11.567   6.880 -0.8480  0.0244  0.0825
55126SOL    HW272237   7.110  11.604   6.769  0.0261 -0.8661 -0.9840
55127SOL     OW72238   5.592   0.219  11.293 -0.0931  0.3402 -0.0987
55127SOL    HW172239   5.634   0.291  11.339 -2.0568 -0.2549  2.9656
55127SOL    HW272240   5.504   0.251  11.274 -0.0540 -0.2734 -1.3877
55128SOL     OW72241   4.616   5.785   1.098  0.0796 -0.3425 -0.2541
55128SOL    HW172242   4.580   5.825   1.176  1.5178  1.7475 -0.5814
55128SOL    HW272243   4.660   5.706   1.129  1.9935  1.2558  1.3758
55129SOL     OW72244   9.672   7.641   7.558 -0.3368 -0.3434 -0.6567
55129SOL    HW172245   9.652   7.568   7.615 -0.0341 -0.1256 -0.2655
55129SOL    HW272246   9.620   7.626   7.479 -2.9537  0.7818  0.7285
55130SOL     OW72247   2.365  11.440   6.370  0.3222  0.4263  0.2441
55130SOL    HW172248   2.298  11.442   6.302 -0.9244 -1.6297  1.3175
55130SOL    HW272249   2.336  11.505   6.434 -0.3490 -0.0519  0.4288
55131SOL     OW72250   1.157   6.435   3.669  0.1574  0.0749 -0.1901
55131SOL    HW172251   1.170   6.530   3.668  2.2058 -0.0700  2.4519
55131SOL    HW272252   1.164   6.410   3.577  0.0832  2.3899 -0.9125
55132SOL     OW72253   4.261  12.126  11.841  0.6879  0.8920 -0.1594
55132SOL    HW172254   4.233  12.110  11.931  0.5054 -1.6194 -0.5844
55132SOL    HW272255   4.275  12.220  11.836  0.3489  1.1376  2.3861
55133SOL     OW72256   8.391   6.425   6.579 -0.8955  0.6495  0.3422
55133SOL    HW172257   8.362   6.409   6.489  0.0957  1.9378 -0.2324
55133SOL    HW272258   8.380   6.519   6.592 -0.1442  0.6319  1.2524
55134SOL     OW72259   9.158   8.199  11.133  0.0090  0.1440 -0.0272
55134SOL    HW172260   9.246   8.160  11.141  0.2736  0.4475 -1.2349
55134SOL    HW272261   9.099   8.124  11.133  0.1027 -0.0129  2.2817
55135SOL     OW72262   0.751   8.120   7.495  0.2266 -0.6126  0.3048
55135SOL    HW172263   0.669   8.122   7.544 -1.3349 -0.3184 -2.1373
55135SOL    HW272264   0.810   8.178   7.543 -2.7691  3.6277 -0.6432
55136SOL     OW72265   2.983   2.087  11.968  0.5783  0.2973  0.5588
55136SOL    HW172266   2.970   2.173  12.008  0.2085  0.0803  0.9179
55136SOL    HW272267   3.062   2.097  11.915  0.1707  1.0473  0.0688
55137SOL     OW72268  11.400   4.834   6.943 -0.2138 -0.4827  0.8596
55137SOL    HW172269  11.390   4.779   7.021  0.8103  0.7447  1.9121
55137SOL    HW272270  11.490   4.819   6.915 -0.8685 -1.6734 -0.7324
55138SOL     OW72271   7.436   8.604   7.296 -0.1585  0.2716  0.7929
55138SOL    HW172272   7.368   8.651   7.343 -2.5673  0.2186 -2.3082
55138SOL    HW272273   7.425   8.513   7.323 -0.8457  0.3647  0.8402
55139SOL     OW72274   6.401   2.430   5.521 -0.0860 -0.8751 -0.0066
55139SOL    HW172275   6.444   2.361   5.572 -1.4181 -0.7459  1.3528
55139SOL    HW272276   6.440   2.511   5.553 -0.8175 -0.8034  0.7168
55140SOL     OW72277   1.430  11.841   1.745 -0.4889 -0.3904  0.0905
55140SOL    HW172278   1.443  11.931   1.715 -0.3175 -0.5716 -0.3848
55140SOL    HW272279   1.409  11.791   1.666  0.3816 -0.9526  0.2032
55141SOL     OW72280   6.503   1.557  12.384  0.0141 -0.2461 -0.7298
55141SOL    HW172281   6.436   1.586  12.322 -0.7805  1.1926  0.7354
55141SOL    HW272282   6.514   1.464  12.366 -0.8785 -0.0646 -2.3836
55142SOL     OW72283  11.499   3.487   2.502  0.0576 -0.4177  0.4130
55142SOL    HW172284  11.515   3.574   2.538  0.2875  0.8951 -2.5763
55142SOL    HW272285  11.576   3.436   2.527  1.0792  0.9490  0.1918
55143SOL     OW72286   9.588   5.961   3.770 -0.5635  0.1193 -0.3185
55143SOL    HW172287   9.503   5.955   3.725 -1.1414  1.9856  0.4319
55143SOL    HW272288   9.599   6.055   3.788  0.5542 -0.3400  1.6968
55144SOL     OW72289   8.855  11.399  12.404 -0.4184  0.4487  0.1475
55144SOL    HW172290   8.857  11.485  12.361  0.7788  0.2312 -0.2703
55144SOL    HW272291   8.942  11.363  12.390 -0.7721 -0.6686  0.6815
55145SOL     OW72292   3.350   5.128   4.041 -0.0153 -0.1498  0.6649
55145SOL    HW172293   3.388   5.100   3.958  0.6783  0.9980  0.5840
55145SOL    HW272294   3.405   5.087   4.107 -0.9305 -1.5696  0.6008
55146SOL     OW72295   4.737  11.989   5.258  0.4771  0.2659  0.3849
55146SOL    HW172296   4.642  11.989   5.271  0.3500  1.3461 -0.4070
55146SOL    HW272297   4.768  12.064   5.310  1.2641 -1.5531  2.7555
55147SOL     OW72298   9.816   5.921   9.130  0.1523 -0.7442 -0.1336
55147SOL    HW172299   9.791   5.837   9.169 -0.0824 -0.5928  0.0456
55147SOL    HW272300   9.815   5.983   9.203 -0.4489 -0.4269 -0.4037
55148SOL     OW72301  12.195   4.087   8.819 -0.3576  0.2541 -0.0549
55148SOL    HW172302  12.223   4.026   8.887 -2.1727  0.5148  1.0086
55148SOL    HW272303  12.228   4.172   8.848 -1.9118  0.5216  1.0620
55149SOL     OW72304   1.935   2.326   2.326 -0.2424 -0.0078  0.6005
55149SOL    HW172305   1.994   2.360   2.258 -0.5719  0.2486  0.4402
55149SOL    HW272306   1.850   2.318   2.282 -0.5929  0.7057  1.1363
55150SOL     OW72307   5.126   0.354   9.580 -0.4252 -0.2520  0.4881
55150SOL    HW172308   5.215   0.343   9.612  1.1845  0.4532 -3.1372
55150SOL    HW272309   5.102   0.442   9.607  0.5263  0.0325  0.4633
55151SOL     OW72310   9.220  10.994   9.883 -0.3861  0.2688 -0.0968
55151SOL    HW172311   9.310  11.021   9.865  0.0145 -0.5086  0.6504
55151SOL    HW272312   9.168  11.073   9.867  0.3377  0.5627 -1.1568
55152SOL     OW72313   6.928   9.650   8.419 -0.2613 -0.1322 -0.0593
55152SOL    HW172314   6.956   9.741   8.412  1.0113 -0.5783 -1.4480
55152SOL    HW272315   6.868   9.638   8.345 -0.9145 -0.2527  0.4906
55153SOL     OW72316   8.698   7.917   4.635 -0.3551  0.6384  0.1378
55153SOL    HW172317   8.702   7.935   4.541 -0.2311  2.4597  0.4616
55153SOL    HW272318   8.618   7.961   4.664  0.3053  1.2414  1.1034
55154SOL     OW72319   3.015   6.800   6.881  0.2741  0.3423  0.1150
55154SOL    HW172320   3.054   6.843   6.804  0.9107 -0.4767 -0.0358
55154SOL    HW272321   3.070   6.826   6.954 -0.1563  0.8814  0.2544
55155SOL     OW72322   8.413   1.329   3.460 -0.0086  0.3006  0.3380
55155SOL    HW172323   8.508   1.324   3.474 -0.1888 -1.1249  1.2061
55155SOL    HW272324   8.391   1.248   3.413 -0.4189  1.9325 -2.5690
55156SOL     OW72325   8.517   5.946   4.259 -0.6430  0.0532 -0.0590
55156SOL    HW172326   8.542   5.921   4.348 -0.8525 -0.3150 -0.1006
55156SOL    HW272327   8.571   5.890   4.202  0.8797  1.5944 -0.2081
55157SOL     OW72328   3.240  11.879   4.837 -0.3664  0.5549 -0.2179
55157SOL    HW172329   3.247  11.789   4.868  0.7223  0.2529 -1.2883
55157SOL    HW272330   3.177  11.876   4.765  1.2399  0.2544 -1.6376
55158SOL     OW72331   2.560   9.150   9.245  0.3209 -0.3427 -0.1942
55158SOL    HW172332   2.585   9.136   9.336 -1.8006 -1.3147  0.3039
55158SOL    HW272333   2.518   9.237   9.245 -3.2309 -1.8775  0.7054
55159SOL     OW72334  10.799   3.269   3.617 -0.1381  0.0675  0.5763
55159SOL    HW172335  10.710   3.257   3.585 -1.1695  2.5837  2.1727
55159SOL    HW272336  10.825   3.355   3.584  1.4462 -0.3457  0.6797
55160SOL     OW72337  11.622   5.396   6.704 -0.2921  0.3167  0.4433
55160SOL    HW172338  11.663   5.345   6.634 -0.6143 -0.4054  0.7691
55160SOL    HW272339  11.549   5.440   6.661 -0.9242 -0.6839  0.4533
55161SOL     OW72340  11.959   9.076   9.995 -0.2669 -0.0770  0.1885
55161SOL    HW172341  11.893   9.125   9.947 -0.5616 -1.2384 -0.6425
55161SOL    HW272342  11.958   8.989   9.956  2.6230  0.1719 -0.7147
55162SOL     OW72343   5.340   0.726   2.217 -0.5115 -0.7134  1.0113
55162SOL    HW172344   5.366   0.818   2.212 -1.0520 -0.6099 -2.4693
55162SOL    HW272345   5.244   0.728   2.217 -0.5926 -1.2013 -1.6331
55163SOL     OW72346  10.480   4.440   2.880 -0.0076  0.1562  0.0238
55163SOL    HW172347  10.458   4.484   2.963  1.8823 -0.7792  1.0934
55163SOL    HW272348  10.570   4.410   2.892  1.1342  1.8767 -3.2420
55164SOL     OW72349   5.607   2.149   8.586  0.2694 -0.2937 -0.0628
55164SOL    HW172350   5.603   2.206   8.662  0.8093  1.2219 -1.1160
55164SOL    HW272351   5.701   2.142   8.567  0.3688 -2.8762  0.9654
55165SOL     OW72352   8.253   4.469  11.803 -0.3865 -0.1600  0.4423
55165SOL    HW172353   8.292   4.406  11.864  0.0834 -0.8595 -0.5634
55165SOL    HW272354   8.314   4.542  11.800 -0.4860 -0.0552  0.9210
55166SOL     OW72355   3.249   5.032   4.462  0.0974  0.2755 -0.0161
55166SOL    HW172356   3.239   4.937   4.473 -0.4034  0.2525 -0.6461
55166SOL    HW272357   3.160   5.065   4.453  0.2162  0.9068  0.8957
55167SOL     OW72358   9.012   8.530   6.176  0.3587  0.5311 -0.1396
55167SOL    HW172359   9.080   8.569   6.122  0.1457 -0.3445 -1.0712
55167SOL    HW272360   8.935   8.528   6.119 -0.9640  2.9541  1.3632
55168SOL     OW72361   5.088   6.162   2.256  0.2630  0.1152  0.2025
55168SOL    HW172362   5.139   6.242   2.245  0.6368 -0.2309 -0.6662
55168SOL    HW272363   4.997   6.190   2.246  0.4468  0.2578 -1.3037
55169SOL     OW72364   6.335   6.683   9.860  0.2783 -0.2193  0.4806
55169SOL    HW172365   6.284   6.735   9.798  2.0187  0.2278 -0.6456
55169SOL    HW272366   6.311   6.592   9.840 -0.3655 -0.0070  0.2557
55170SOL     OW72367   2.445  11.098   6.806 -0.4250  0.6826  0.3211
55170SOL    HW172368   2.447  11.097   6.710 -0.5495 -0.6658  0.3085
55170SOL    HW272369   2.529  11.136   6.831  0.2776 -0.3600 -0.3424
55171SOL     OW72370   5.050  11.990  11.169 -0.1267 -0.6743 -0.3048
55171SOL    HW172371   5.119  11.923  11.172 -1.6420 -2.2878  0.5114
55171SOL    HW272372   5.021  11.990  11.078  0.2030 -0.7679 -0.4117
55172SOL     OW72373   2.938   6.591  12.236 -0.1178  0.2956  0.5176
55172SOL    HW172374   2.947   6.510  12.185  0.7193  1.1702 -0.7759
55172SOL    HW272375   2.897   6.653  12.177 -1.2598  0.6880  1.6818
55173SOL     OW72376   0.313   0.263   3.366 -0.4821  0.5012 -0.3804
55173SOL    HW172377   0.278   0.347   3.397 -1.7499 -0.1488  0.0124
55173SOL    HW272378   0.408   0.277   3.360 -0.5290  1.5640  0.9366
55174SOL     OW72379  10.630   6.812  10.670 -0.1605  0.2368 -0.4066
55174SOL    HW172380  10.672   6.785  10.752 -3.3331  0.1860  1.3728
55174SOL    HW272381  10.682   6.770  10.602  2.2573 -0.2394  1.5664
55175SOL     OW72382   0.216   6.977   5.631  0.4685  0.7214  0.7920
55175SOL    HW172383   0.135   6.982   5.580  0.4448  1.0835  0.8652
55175SOL    HW272384   0.234   7.067   5.657  1.8311  0.9184 -0.6784
55176SOL     OW72385  11.136   4.068   8.222 -0.1379 -0.1448  0.2952
55176SOL    HW172386  11.046   4.073   8.190 -0.1614 -3.3999 -0.4301
55176SOL    HW272387  11.174   4.153   8.199 -2.9662  1.3430  0.6715
55177SOL     OW72388  12.022   3.289   3.600  0.1822 -0.7991  0.4187
55177SOL    HW172389  12.073   3.246   3.669  0.6987  1.2620  1.3980
55177SOL    HW272390  12.003   3.376   3.635  1.1243  0.6142 -2.3140
55178SOL     OW72391   3.119  11.646   5.162  0.5794 -0.3357 -0.3586
55178SOL    HW172392   3.177  11.649   5.086  0.1704 -1.3277 -0.7312
55178SOL    HW272393   3.045  11.703   5.138  1.1546  0.5608 -0.0687
55179SOL     OW72394  10.418  10.562   4.807  0.0007 -0.2724  0.3211
55179SOL    HW172395  10.472  10.512   4.745  1.0433  0.3500  0.6874
55179SOL    HW272396  10.329  10.531   4.793  0.1243  0.1755 -1.8169
55180SOL     OW72397   5.303   6.043   1.807 -0.1275  0.9502  0.4110
55180SOL    HW172398   5.280   6.031   1.715  0.2013  1.9461  0.1844
55180SOL    HW272399   5.312   5.954   1.841  0.6481  0.5535 -0.7479
55181SOL     OW72400   4.871   0.398  12.565  0.7672  0.8340 -0.1527
55181SOL    HW172401   4.949   0.376  12.514  0.4237 -0.7969 -0.0060
55181SOL    HW272402   4.825   0.315  12.576 -0.0464  1.4479  1.3476
55182SOL     OW72403   4.230   8.299   3.787  0.2536 -0.3047 -0.1166
55182SOL    HW172404   4.149   8.350   3.793  1.0769  1.3977 -2.3335
55182SOL    HW272405   4.214   8.222   3.842 -2.6685  0.2084 -0.1134
55183SOL     OW72406   3.461   4.660  10.817  0.0610  0.3546 -0.5708
55183SOL    HW172407   3.404   4.584  10.820  0.1828  0.2799 -0.0895
55183SOL    HW272408   3.549   4.625  10.833  0.1368  0.5752 -0.5019
55184SOL     OW72409   7.947   3.006   1.697  0.3404 -0.1184 -0.3244
55184SOL    HW172410   8.031   3.051   1.682  2.2465 -2.8509  1.2697
55184SOL    HW272411   7.966   2.943   1.766 -3.3856 -0.1519  0.8577
55185SOL     OW72412   6.233   5.355  10.489  0.3036  0.3180 -0.1332
55185SOL    HW172413   6.192   5.281  10.533  0.2218  1.5264  1.9040
55185SOL    HW272414   6.267   5.318  10.407  0.6358 -2.0575  1.0112
55186SOL     OW72415   2.636   7.354  10.091 -0.1897 -0.1050 -0.2387
55186SOL    HW172416   2.566   7.418  10.101  0.4186  0.4449  0.5848
55186SOL    HW272417   2.599   7.288  10.032 -2.1973 -0.9551  1.8339
55187SOL     OW72418   3.298   7.649   7.019 -0.1141  0.5783 -0.5310
55187SOL    HW172419   3.357   7.657   6.945 -0.2196  2.1253 -0.4920
55187SOL    HW272420   3.293   7.738   7.056 -1.2273  0.1643  0.4113
55188SOL     OW72421   3.255   7.650   5.854 -0.2769 -0.1738 -0.3011
55188SOL    HW172422   3.306   7.676   5.930  0.4838 -1.9740 -0.1223
55188SOL    HW272423   3.178   7.606   5.890 -0.1545 -0.6057 -0.5503
55189SOL     OW72424   7.048   9.764   2.608 -0.2511 -0.0012  0.0547
55189SOL    HW172425   6.966   9.777   2.560 -0.2652 -0.3871 -0.0320
55189SOL    HW272426   7.023   9.715   2.686 -0.2624  0.8307  0.5818
55190SOL     OW72427   1.912  11.530   5.828 -0.1009  0.3745  1.0781
55190SOL    HW172428   1.965  11.507   5.751  0.1421 -0.4621  1.4792
55190SOL    HW272429   1.889  11.622   5.815  1.7108  0.8719  1.0385
55191SOL     OW72430  12.021  10.668   4.488 -0.3534  0.1697 -0.1463
55191SOL    HW172431  12.008  10.755   4.450  0.3294  0.0318 -0.6938
55191SOL    HW272432  12.110  10.670   4.523  0.2804 -0.8657 -1.6486
55192SOL     OW72433   0.353  11.160  10.334  0.0352 -0.2261  0.5541
55192SOL    HW172434   0.337  11.069  10.307  1.2314  0.4082 -2.7583
55192SOL    HW272435   0.270  11.205  10.315  0.9482  0.2785 -2.8956
55193SOL     OW72436   9.740  11.451  10.143  0.2965 -0.0168 -0.2051
55193SOL    HW172437   9.736  11.479  10.052 -0.6967 -0.7076 -0.3859
55193SOL    HW272438   9.833  11.455  10.165  0.2567  5.0298  0.3178
55194SOL     OW72439   5.952   8.240   9.115 -0.3394  0.2391 -0.1001
55194SOL    HW172440   5.924   8.155   9.149  0.1662 -0.0889 -0.4919
55194SOL    HW272441   5.952   8.297   9.192  1.3971 -0.6444  0.5950
55195SOL     OW72442   3.115   6.318   4.870 -0.0351  0.4357  0.3963
55195SOL    HW172443   3.131   6.411   4.854  2.1827 -0.2633 -2.0585
55195SOL    HW272444   3.116   6.278   4.784  1.9266 -2.2564  1.5438
55196SOL     OW72445   7.781   5.899   6.182 -0.2352  0.4002 -0.1498
55196SOL    HW172446   7.872   5.894   6.152 -0.5813 -1.5218 -1.0735
55196SOL    HW272447   7.737   5.955   6.118  0.7547  3.6975  1.8174
55197SOL     OW72448   8.180   8.701  12.002  0.4670  0.4048 -0.4481
55197SOL    HW172449   8.222   8.766  12.059  1.6634 -0.1853 -0.6326
55197SOL    HW272450   8.103   8.746  11.967 -0.4424  0.7273  1.7876
55198SOL     OW72451   7.366   9.081   8.909  0.4339 -0.2396 -0.3159
55198SOL    HW172452   7.308   9.154   8.892 -0.1269 -0.2051  1.4910
55198SOL    HW272453   7.407   9.061   8.825 -0.4353  1.2473 -1.1124
55199SOL     OW72454   7.661  12.510  10.103  0.1815  0.6598  0.0211
55199SOL    HW172455   7.574  12.519  10.143 -0.2662  2.0028 -1.1585
55199SOL    HW272456   7.722  12.519  10.177 -0.6596  0.6207  0.7437
55200SOL     OW72457   2.700   9.184   0.312 -0.1140  0.3589  0.0774
55200SOL    HW172458   2.727   9.095   0.336  3.5247  1.1291 -0.5864
55200SOL    HW272459   2.682   9.179   0.218 -0.5075  0.1963  0.1621
55201SOL     OW72460   6.575   7.484   8.672  0.0746 -0.0298 -0.5848
55201SOL    HW172461   6.565   7.504   8.579  1.2318  0.2111 -0.6642
55201SOL    HW272462   6.668   7.494   8.690  0.3199 -2.7629 -0.0020
55202SOL     OW72463   3.337   1.952  12.392  0.0466 -0.8547  0.3295
55202SOL    HW172464   3.320   2.046  12.404  1.4913 -0.7737  2.3323
55202SOL    HW272465   3.352   1.942  12.298 -0.7150  0.7961 -0.0053
55203SOL     OW72466  10.595   5.410   4.879 -0.0957 -0.4068  0.5810
55203SOL    HW172467  10.646   5.442   4.804 -2.6395 -0.2333 -1.2101
55203SOL    HW272468  10.559   5.489   4.919 -0.6192 -0.6166  0.5384
55204SOL     OW72469  11.000   7.163   9.900  0.3051  0.5142 -0.0150
55204SOL    HW172470  11.053   7.208   9.834  0.0470  0.0893 -0.5140
55204SOL    HW272471  10.977   7.080   9.860  1.7975 -0.6154  1.3472
55205SOL     OW72472  11.770   1.815  12.373 -0.2188  0.5541  0.1784
55205SOL    HW172473  11.749   1.755  12.445 -2.6871  0.2401 -0.7135
55205SOL    HW272474  11.748   1.901  12.407 -0.7910  0.4721  0.0260
55206SOL     OW72475  11.403   2.073  10.459 -0.4309  1.0607 -0.2342
55206SOL    HW172476  11.484   2.024  10.469 -2.1208 -2.3307 -1.5183
55206SOL    HW272477  11.398   2.128  10.537  0.9401 -2.0487  2.2756
55207SOL     OW72478   3.607   0.005   9.126 -0.1472 -0.7788 -0.4175
55207SOL    HW172479   3.624  -0.004   9.219  1.6196 -0.3689 -0.6636
55207SOL    HW272480   3.672  -0.051   9.084 -0.7048 -0.7015 -1.4158
55208SOL     OW72481   7.724  10.659  12.311 -0.0799 -0.2640  0.2628
55208SOL    HW172482   7.774  10.686  12.234  2.8282 -0.2134  1.9843
55208SOL    HW272483   7.704  10.741  12.356  0.6234 -0.4222  0.8820
55209SOL     OW72484   0.858   8.509   8.294  0.0270 -0.4722 -0.4834
55209SOL    HW172485   0.934   8.516   8.351 -0.7869 -0.7163  0.6918
55209SOL    HW272486   0.878   8.565   8.219  1.0568  0.0246  0.1435
55210SOL     OW72487   2.611   6.232   0.294 -0.0859  0.0643 -0.2164
55210SOL    HW172488   2.674   6.189   0.352  0.4116 -0.6140 -1.2221
55210SOL    HW272489   2.611   6.323   0.322  0.3816 -0.1817  0.6359
55211SOL     OW72490   6.487   0.094   5.118  0.2334 -0.1851 -0.5706
55211SOL    HW172491   6.527   0.046   5.046  0.0993 -0.1779 -0.6504
55211SOL    HW272492   6.485   0.185   5.087  0.5409 -0.1177 -0.3956
55212SOL     OW72493   6.965   1.404   4.022 -0.0165 -0.1484 -0.0130
55212SOL    HW172494   7.005   1.362   4.098 -1.2903 -1.2142  0.1039
55212SOL    HW272495   6.885   1.353   4.006  0.4964 -0.2853 -2.4017
55213SOL     OW72496   3.079   9.939   3.309 -0.3516 -0.9621  0.2474
55213SOL    HW172497   3.088  10.034   3.304  2.0940 -0.9378  2.4110
55213SOL    HW272498   3.143   9.905   3.247 -0.6868 -1.2011  0.0275
55214SOL     OW72499   0.697  10.076   3.658 -0.1455 -0.1988  0.1837
55214SOL    HW172500   0.676  10.010   3.725 -0.0919 -0.6997 -0.2824
55214SOL    HW272501   0.619  10.131   3.653  0.4777  0.8848  1.8494
55215SOL     OW72502   8.743   6.735   7.765 -0.0947 -0.6627 -0.8145
55215SOL    HW172503   8.826   6.698   7.733 -1.2476 -2.2158 -2.2414
55215SOL    HW272504   8.720   6.801   7.700  0.0015 -0.2680 -0.4461
55216SOL     OW72505  10.850   7.645   6.081  0.4017 -0.0545 -0.3109
55216SOL    HW172506  10.936   7.647   6.122 -0.4688  1.2748  1.5994
55216SOL    HW272507  10.860   7.695   6.000  0.7802  2.9449  1.4337
55217SOL     OW72508  10.075   3.304   8.921 -0.3727  0.7020  0.3867
55217SOL    HW172509  10.148   3.306   8.858 -1.2859 -1.3556 -0.8463
55217SOL    HW272510  10.004   3.352   8.878 -0.3020  1.2506  0.8630
55218SOL     OW72511  12.308   2.519   7.060  0.5186  0.0995 -0.2911
55218SOL    HW172512  12.246   2.545   6.993  0.4266 -2.4018 -1.2652
55218SOL    HW272513  12.256   2.471   7.124  1.0991 -0.1578  0.0008
55219SOL     OW72514   2.979  12.185   3.177  0.3867 -0.0288 -0.1406
55219SOL    HW172515   2.962  12.206   3.085 -2.8312  2.7912  0.9097
55219SOL    HW272516   2.933  12.103   3.191  0.0258  0.0458 -0.8187
55220SOL     OW72517  11.293   2.273   2.736  0.1214  0.4708  0.6618
55220SOL    HW172518  11.321   2.197   2.685  0.6399  0.9088  0.2839
55220SOL    HW272519  11.344   2.346   2.701 -2.3242  1.5691 -0.8851
55221SOL     OW72520   5.399   5.689   2.966 -0.5958  0.0618  0.7778
55221SOL    HW172521   5.321   5.669   3.017 -2.1021  0.1861 -1.3362
55221SOL    HW272522   5.400   5.623   2.897 -0.3479  1.5635 -0.7488
55222SOL     OW72523   8.973   5.629   3.100  0.1520 -0.3847  0.4404
55222SOL    HW172524   8.920   5.615   3.179  1.9298 -1.6622  1.4766
55222SOL    HW272525   8.945   5.560   3.040  0.1010 -0.5727  0.6772
55223SOL     OW72526   6.733   5.547   4.971  0.7272 -0.5362 -0.4255
55223SOL    HW172527   6.704   5.557   5.062 -0.8850 -0.3061 -0.9379
55223SOL    HW272528   6.731   5.635   4.934  1.4877 -0.6103 -0.6649
55224SOL     OW72529   4.503  12.470   4.837  0.2527 -0.4346  0.5157
55224SOL    HW172530   4.503  12.384   4.878  0.4591 -0.6573  0.0590
55224SOL    HW272531   4.497  12.532   4.910  1.8626 -0.7768  0.9770
55225SOL     OW72532   3.662   1.950  11.542  0.1289  0.0980  0.9212
55225SOL    HW172533   3.567   1.942  11.547  0.0844 -0.4668 -0.3961
55225SOL    HW272534   3.695   1.893  11.611 -0.4758 -0.5137  0.7149
55226SOL     OW72535   0.532   0.347   4.065  0.2731 -0.2151 -0.2975
55226SOL    HW172536   0.607   0.290   4.052 -0.4796 -1.2447 -0.1922
55226SOL    HW272537   0.545   0.384   4.153 -1.2143 -3.3472  1.3891
55227SOL     OW72538   7.394   6.380  11.929  0.1264 -0.1139 -0.4054
55227SOL    HW172539   7.345   6.345  11.854  0.7534 -1.6206 -0.1320
55227SOL    HW272540   7.456   6.441  11.890  0.1237 -0.5253 -1.0779
55228SOL     OW72541   2.240   1.212   4.238  0.3067  0.2128  0.5559
55228SOL    HW172542   2.317   1.264   4.261  0.2937  0.3732  0.2467
55228SOL    HW272543   2.179   1.276   4.200  1.5133 -0.4627 -2.8739
55229SOL     OW72544   3.850  12.578   1.121  0.3166  0.3615 -0.0949
55229SOL    HW172545   3.782  12.538   1.066 -1.4812  1.3102  1.3687
55229SOL    HW272546   3.824  12.669   1.130  2.1360  0.9085  0.0160
55230SOL     OW72547  12.117   1.334   4.252 -0.1439  0.0605  0.5098
55230SOL    HW172548  12.136   1.418   4.209 -1.1077 -0.0935 -0.2584
55230SOL    HW272549  12.084   1.359   4.339 -0.0614  0.4694  0.4256
55231SOL     OW72550   6.545   6.499   9.507  0.0464 -0.5242  0.2671
55231SOL    HW172551   6.534   6.564   9.437  1.5606 -0.8072 -0.2646
55231SOL    HW272552   6.528   6.415   9.465 -1.1762 -0.5574  0.7803
55232SOL     OW72553   5.691  11.731   5.441  0.3989 -0.0900 -0.2354
55232SOL    HW172554   5.616  11.768   5.487  0.6990 -0.4161  0.5242
55232SOL    HW272555   5.747  11.696   5.510  1.3582  0.3403 -0.7761
55233SOL     OW72556  10.055   2.791   0.933 -0.3533  0.1664  0.0830
55233SOL    HW172557   9.977   2.735   0.937  0.0688 -0.5554 -1.2390
55233SOL    HW272558  10.106   2.767   1.010 -0.5050 -0.7790 -0.1025
55234SOL     OW72559   1.784  11.825   5.410  0.1945  0.3610 -0.0149
55234SOL    HW172560   1.718  11.762   5.383  1.4038 -0.6054 -0.8114
55234SOL    HW272561   1.862  11.772   5.430  0.7375  1.4598  0.9151
55235SOL     OW72562   5.769  12.303  11.775  0.6624 -0.4088  0.0375
55235SOL    HW172563   5.764  12.269  11.865  1.9794  0.0399  0.3088
55235SOL    HW272564   5.678  12.316  11.749  0.1936  3.3437  2.8003
55236SOL     OW72565   9.958   4.471   4.542 -0.2561 -0.0159 -0.0790
55236SOL    HW172566   9.990   4.541   4.485 -1.2723  0.4994 -0.0427
55236SOL    HW272567   9.865   4.463   4.519 -0.6149  0.0049  1.2998
55237SOL     OW72568   4.760   3.788   1.277 -0.8805  0.0446  0.4230
55237SOL    HW172569   4.727   3.878   1.275 -0.7876  0.0592 -1.3600
55237SOL    HW272570   4.845   3.794   1.321  0.4274  1.3220 -2.0841
55238SOL     OW72571   7.123   7.069  10.578  0.2214  0.5403 -0.2495
55238SOL    HW172572   7.166   7.031  10.502  1.0482  1.0934 -0.0637
55238SOL    HW272573   7.188   7.126  10.617 -0.7555  1.5800 -0.0881
55239SOL     OW72574   1.158   8.551   0.139  0.0260  0.1809  0.1888
55239SOL    HW172575   1.110   8.475   0.174  1.8162 -0.3832  1.5784
55239SOL    HW272576   1.136   8.622   0.199 -2.2631  1.0584 -1.5492
55240SOL     OW72577   2.180  11.235  10.693 -0.0133 -0.1670  0.2124
55240SOL    HW172578   2.131  11.154  10.676  1.4531 -1.1212  0.3457
55240SOL    HW272579   2.253  11.231  10.631  0.1708  0.9875  0.3457
55241SOL     OW72580   8.016   3.226   1.344 -0.7705 -0.5283 -0.0830
55241SOL    HW172581   8.094   3.175   1.367  0.5623  0.6735 -1.7004
55241SOL    HW272582   7.982   3.182   1.265 -0.0820  0.5396 -1.0083
55242SOL     OW72583   3.542  11.232   7.670  0.0366 -0.4364  0.0653
55242SOL    HW172584   3.516  11.211   7.759 -0.7643 -1.5414 -0.4094
55242SOL    HW272585   3.489  11.309   7.647 -0.1001 -0.4347  0.3822
55243SOL     OW72586   6.269   1.078   0.300  0.4543  0.8442 -0.1806
55243SOL    HW172587   6.359   1.073   0.267  0.7481  0.8704  0.6169
55243SOL    HW272588   6.278   1.098   0.393 -0.3119 -1.5173  0.4624
55244SOL     OW72589  10.563   9.060   3.232 -0.9653  0.4158 -0.0551
55244SOL    HW172590  10.654   9.052   3.202 -0.4956  1.8468  0.8751
55244SOL    HW272591  10.534   8.970   3.245  0.8501 -0.0463  1.1490
55245SOL     OW72592   0.413   9.941   9.780  0.1337  0.0707 -0.3116
55245SOL    HW172593   0.357   9.864   9.768  1.0378 -0.5202 -0.8841
55245SOL    HW272594   0.391   9.998   9.706 -1.0609  0.7184  0.5107
55246SOL     OW72595   8.573   0.469  10.580  0.1068  0.7022  0.3225
55246SOL    HW172596   8.666   0.474  10.559 -0.0838 -0.6003 -1.0476
55246SOL    HW272597   8.538   0.555  10.558  0.7339  0.7385 -0.5733
55247SOL     OW72598   7.915   0.824   7.961  0.3751 -0.4842 -0.2216
55247SOL    HW172599   7.844   0.815   8.024  0.0119 -1.0570 -0.7033
55247SOL    HW272600   7.899   0.908   7.919  1.3323  0.5105  1.3026
55248SOL     OW72601   1.814   2.091   9.293  0.0073  0.2592  0.1448
55248SOL    HW172602   1.738   2.137   9.328 -1.0100 -0.0649 -1.5412
55248SOL    HW272603   1.889   2.140   9.326 -0.9133  0.8182  1.5210
55249SOL     OW72604   9.460   6.015   7.149  0.1184 -0.4154 -0.3902
55249SOL    HW172605   9.524   5.948   7.171  0.9192 -0.1798 -1.9195
55249SOL    HW272606   9.505   6.074   7.089 -0.9868  0.7559 -0.1283
55250SOL     OW72607   9.903   8.114   3.581  0.2856  0.2741  0.6868
55250SOL    HW172608   9.909   8.031   3.534  0.1727  0.9593 -0.5715
55250SOL    HW272609   9.969   8.106   3.650  1.6610 -0.1429 -0.5999
55251SOL     OW72610   9.682   6.488   2.628  0.2001 -0.3685 -0.1160
55251SOL    HW172611   9.659   6.492   2.720  0.8009  1.6526 -0.0029
55251SOL    HW272612   9.602   6.457   2.584 -0.6046  0.1943  0.9121
55252SOL     OW72613   2.653   4.896   9.148  0.3113 -0.0238  0.4163
55252SOL    HW172614   2.648   4.898   9.053 -0.1329 -1.0567  0.4122
55252SOL    HW272615   2.563   4.885   9.177 -0.1941  4.1934  1.1366
55253SOL     OW72616   7.211   8.547  11.462 -0.5018  0.2954  0.3328
55253SOL    HW172617   7.172   8.460  11.470 -1.8213  0.9419  1.2855
55253SOL    HW272618   7.196   8.572  11.371  0.0089 -0.5005  0.0112
55254SOL     OW72619   8.260   6.251   7.179  0.1587  0.5895 -0.4134
55254SOL    HW172620   8.251   6.194   7.255  1.2549 -0.6526 -1.1812
55254SOL    HW272621   8.213   6.207   7.109  0.2384  1.0882 -0.7918
55255SOL     OW72622  11.185  11.087   9.011  1.0276  0.0833 -0.1582
55255SOL    HW172623  11.274  11.110   9.037  1.0527 -0.0172 -0.1520
55255SOL    HW272624  11.196  11.011   8.953  0.8238 -1.2700  1.4680
55256SOL     OW72625  11.419   9.852   0.877 -0.0607 -0.1377 -0.4283
55256SOL    HW172626  11.362   9.785   0.916 -0.1548  0.0950 -0.1562
55256SOL    HW272627  11.416   9.924   0.940 -1.1945  0.7444 -1.4468
55257SOL     OW72628   8.955  10.642   3.940 -0.6232 -0.4299  0.1685
55257SOL    HW172629   8.884  10.588   3.905 -0.7228  0.0624 -0.4089
55257SOL    HW272630   9.032  10.614   3.891 -0.5366 -0.5358  0.3640
55258SOL     OW72631   1.722   2.865   9.347  0.3654  0.7768  0.0719
55258SOL    HW172632   1.655   2.931   9.329 -2.0131 -1.2212  1.0786
55258SOL    HW272633   1.758   2.843   9.261 -2.9637 -0.7062 -1.1272
55259SOL     OW72634   8.163   0.288  11.048 -0.3352  0.4413  0.9569
55259SOL    HW172635   8.218   0.225  11.095 -1.9712 -1.4137  0.5330
55259SOL    HW272636   8.094   0.311  11.110 -0.9878  0.0715  0.3835
55260SOL     OW72637  12.573   1.483   3.438  0.4510 -0.1628 -0.2730
55260SOL    HW172638  12.621   1.522   3.364  2.0234 -0.3348  0.6158
55260SOL    HW272639  12.615   1.519   3.516 -0.3018 -1.0129  0.5472
55261SOL     OW72640   8.721   9.503   2.325  0.4445 -0.2064 -0.7069
55261SOL    HW172641   8.727   9.566   2.397  0.7479 -2.3630  1.2899
55261SOL    HW272642   8.631   9.472   2.327  0.4155 -0.1754 -1.3651
55262SOL     OW72643   0.808   1.887   9.002  0.6774  0.0489  0.3604
55262SOL    HW172644   0.825   1.909   8.911 -1.2512 -1.8105 -0.5435
55262SOL    HW272645   0.733   1.940   9.026  1.2481  0.6157  0.9367
55263SOL     OW72646   1.317  10.685   4.474 -0.3249  0.2543 -0.1851
55263SOL    HW172647   1.306  10.637   4.556 -1.4882 -0.6904 -0.8619
55263SOL    HW272648   1.230  10.720   4.455  0.5542  3.0488  0.4918
55264SOL     OW72649  12.118   7.376  11.863 -0.2698  0.7132 -0.4251
55264SOL    HW172650  12.027   7.365  11.894 -0.2976 -1.5726 -1.1384
55264SOL    HW272651  12.109   7.405  11.772 -0.2654  1.1067 -0.3019
55265SOL     OW72652   8.965   4.035  10.675  0.0898 -0.5909 -0.8104
55265SOL    HW172653   8.954   3.992  10.759  0.2135  0.7944 -0.0578
55265SOL    HW272654   9.028   3.980  10.628 -0.4310 -1.7023 -0.2513
55266SOL     OW72655   1.822   4.967  11.788  0.3516  0.0257 -0.2086
55266SOL    HW172656   1.780   5.015  11.717  0.3124 -1.0309 -0.9196
55266SOL    HW272657   1.893   5.024  11.817 -1.5746  1.9112  1.0899
55267SOL     OW72658   5.472   1.970  11.836 -0.0115 -0.2264 -0.0144
55267SOL    HW172659   5.455   2.036  11.904  1.5294  0.3970 -0.1938
55267SOL    HW272660   5.546   2.006  11.786  1.8691 -2.7130  0.7618
55268SOL     OW72661   8.852   4.321   6.621 -0.2851  0.5677  0.1888
55268SOL    HW172662   8.884   4.230   6.627  1.1872  1.1059  1.1099
55268SOL    HW272663   8.759   4.312   6.599 -0.2250 -1.1703  0.4514
55269SOL     OW72664  10.757   1.414   9.814  0.2497  0.8719 -0.0854
55269SOL    HW172665  10.821   1.406   9.884 -0.1800  1.8077  0.4337
55269SOL    HW272666  10.809   1.418   9.734  0.7417 -0.2703  0.1519
55270SOL     OW72667   6.484   6.062   6.029 -0.5327 -0.1485  0.0844
55270SOL    HW172668   6.445   6.140   5.989  2.0337  0.5206 -1.3715
55270SOL    HW272669   6.439   5.989   5.987 -0.5570  0.5656 -1.1790
55271SOL     OW72670  12.407   2.067  11.113 -0.5284  0.1119 -0.0135
55271SOL    HW172671  12.495   2.086  11.146  0.1722 -0.7311 -1.3075
55271SOL    HW272672  12.379   2.148  11.070  0.4308 -0.1753 -1.2560
55272SOL     OW72673   4.873   1.171   4.298 -0.7132  0.0833  0.2475
55272SOL    HW172674   4.927   1.095   4.275 -0.8749  0.9147 -3.6458
55272SOL    HW272675   4.796   1.133   4.339 -0.1602 -1.7661 -0.3010
55273SOL     OW72676   6.120   4.912   4.147 -0.2443 -0.0168  0.4091
55273SOL    HW172677   6.108   4.926   4.053  2.7232 -0.3393 -0.1235
55273SOL    HW272678   6.085   4.824   4.162 -0.8124  0.0591 -0.3734
55274SOL     OW72679   4.924   7.933   3.546  0.3453  0.4747 -0.1249
55274SOL    HW172680   4.948   7.877   3.620 -0.1022 -0.6664 -0.8231
55274SOL    HW272681   5.006   7.972   3.517  1.2520 -2.2793 -1.5985
55275SOL     OW72682   3.988  10.469   0.685  0.8547  0.6200 -0.2937
55275SOL    HW172683   4.081  10.493   0.680  1.1337  0.2920  2.1158
55275SOL    HW272684   3.947  10.543   0.730 -0.4412  1.5316 -2.7949
55276SOL     OW72685   6.502   3.439   4.376  0.1207  0.0836  0.1989
55276SOL    HW172686   6.561   3.390   4.319  1.6727 -0.4412  2.1295
55276SOL    HW272687   6.423   3.386   4.382  0.2996 -0.3016 -0.6925
55277SOL     OW72688   4.086   0.714  10.167 -0.0586  0.5052  0.2518
55277SOL    HW172689   4.037   0.782  10.119 -0.6700  0.5900  0.9748
55277SOL    HW272690   4.064   0.730  10.259 -0.6571 -1.0090  0.4018
55278SOL     OW72691   9.180   7.544   0.912  0.2284  0.1753  0.2455
55278SOL    HW172692   9.094   7.581   0.930 -0.5905 -0.1406 -2.5353
55278SOL    HW272693   9.233   7.619   0.885 -0.3886 -0.0644 -1.8510
55279SOL     OW72694  10.384   4.521   0.444 -0.1604 -0.2849  0.1362
55279SOL    HW172695  10.338   4.579   0.383 -1.0670 -0.9224  0.1946
55279SOL    HW272696  10.314   4.480   0.495  0.5523 -0.2292  1.1853
55280SOL     OW72697   4.846   0.650   5.370  0.1259 -0.1914 -0.5424
55280SOL    HW172698   4.869   0.688   5.455  1.0659  0.4621 -1.0737
55280SOL    HW272699   4.850   0.555   5.385 -2.6309 -0.1867  0.8935
55281SOL     OW72700   5.610   5.746   1.004 -0.3469  0.7629  0.3473
55281SOL    HW172701   5.584   5.659   0.975 -1.6405  1.3691 -0.3974
55281SOL    HW272702   5.644   5.732   1.093 -0.5674 -0.4803  0.2602
55282SOL     OW72703  12.187   1.686   4.757  0.2746  0.2302 -0.3199
55282SOL    HW172704  12.210   1.720   4.843 -1.1885  0.3802  0.0317
55282SOL    HW272705  12.238   1.738   4.695  1.7056 -0.2013  0.4615
55283SOL     OW72706  11.398   1.946  10.194 -0.2318  0.2178  0.6134
55283SOL    HW172707  11.334   1.923  10.261  0.1828 -0.3113  0.8393
55283SOL    HW272708  11.406   1.868  10.139  0.5957  0.0788  0.9059
55284SOL     OW72709  10.937   3.342   2.123 -0.0580  0.2810  0.0212
55284SOL    HW172710  10.896   3.410   2.177  2.0733  0.6595  1.3033
55284SOL    HW272711  10.880   3.266   2.133 -1.4689  1.2980  0.1197
55285SOL     OW72712  10.259  11.208   0.775  0.4089 -0.2750 -0.0468
55285SOL    HW172713  10.165  11.225   0.773  0.3469 -0.6115 -0.1006
55285SOL    HW272714  10.273  11.141   0.709  0.5203 -1.0343  0.7273
55286SOL     OW72715  11.825   5.220   2.969  0.0103  0.0079 -0.3028
55286SOL    HW172716  11.762   5.159   3.008 -2.9818  1.0293 -3.1712
55286SOL    HW272717  11.874   5.167   2.906  1.0504 -0.4244  0.8076
55287SOL     OW72718  10.543   0.751   7.436  0.0138  0.6257  0.4796
55287SOL    HW172719  10.505   0.834   7.464 -0.7857  0.7661 -0.8984
55287SOL    HW272720  10.584   0.771   7.351  0.0213 -0.3256  0.2442
55288SOL     OW72721   6.857  10.161   2.578  0.2227  0.1284  0.8369
55288SOL    HW172722   6.874  10.235   2.637  1.1447  1.5047 -1.0417
55288SOL    HW272723   6.906  10.182   2.498 -2.5100 -0.6054 -1.2209
55289SOL     OW72724   5.952   2.011   1.933  0.0397 -0.2112  0.1376
55289SOL    HW172725   5.904   1.941   1.889  0.5491  0.0147 -0.8117
55289SOL    HW272726   5.886   2.079   1.949 -0.2710 -0.5365  0.2673
55290SOL     OW72727   7.625   7.595   1.313 -0.0120 -0.5446 -0.7103
55290SOL    HW172728   7.648   7.613   1.404 -0.7487  0.1430 -0.6527
55290SOL    HW272729   7.709   7.583   1.269  0.3612 -0.5252 -0.0105
55291SOL     OW72730   3.883   5.248   6.809  0.1806  0.1145 -0.2364
55291SOL    HW172731   3.808   5.288   6.767 -2.0511 -2.2260  1.2304
55291SOL    HW272732   3.899   5.301   6.887 -1.4668 -0.6249  0.6440
55292SOL     OW72733   6.503   9.298   7.338 -0.3746  0.4951  0.2735
55292SOL    HW172734   6.469   9.208   7.334  0.4046  0.2152 -0.2001
55292SOL    HW272735   6.531   9.317   7.248  1.0919  0.5678  0.7327
55293SOL     OW72736   9.543   3.773   3.277 -0.6113  0.3567 -0.0992
55293SOL    HW172737   9.544   3.839   3.207 -1.5277  3.9691  2.9931
55293SOL    HW272738   9.467   3.719   3.256 -2.0132  2.5244 -0.9803
55294SOL     OW72739   6.512   8.334   6.593 -0.1665  0.1185  0.2606
55294SOL    HW172740   6.447   8.404   6.599  0.4427  0.7718 -0.5151
55294SOL    HW272741   6.551   8.330   6.680  0.9822  1.9407 -0.1219
55295SOL     OW72742   6.968   3.170   5.558 -0.3397 -0.2047 -0.4383
55295SOL    HW172743   7.041   3.226   5.532  1.3587 -1.9006  0.3678
55295SOL    HW272744   6.889   3.221   5.538  0.9511  0.7752 -3.5839
55296SOL     OW72745  11.813  10.406   4.038 -1.0207 -0.0431  0.1965
55296SOL    HW172746  11.870  10.474   4.002 -1.6324  0.2151 -0.2973
55296SOL    HW272747  11.866  10.326   4.032 -1.0707 -0.0056 -1.2484
55297SOL     OW72748   4.730  11.692  12.252 -0.0918  0.3390 -0.5587
55297SOL    HW172749   4.743  11.725  12.163  0.6029 -0.5204 -0.7903
55297SOL    HW272750   4.639  11.713  12.273 -0.8467 -1.1077 -2.1925
55298SOL     OW72751   2.379  12.357   3.279 -0.6735 -0.4228  0.0456
55298SOL    HW172752   2.470  12.370   3.303 -1.0144  1.5200  0.4743
55298SOL    HW272753   2.342  12.304   3.350  0.4967 -2.8550 -1.0554
55299SOL     OW72754  11.836   7.149  10.045  0.0893  0.2149  0.4416
55299SOL    HW172755  11.869   7.239  10.043  0.5978  0.0413  0.6998
55299SOL    HW272756  11.831   7.124   9.953 -0.7235  0.7381  0.3345
55300SOL     OW72757   7.911   7.222   8.201 -0.5491 -0.0297  0.2277
55300SOL    HW172758   7.866   7.157   8.254  0.7171  0.0954  1.5233
55300SOL    HW272759   7.986   7.175   8.163 -0.4330  0.3186  0.0166
55301SOL     OW72760   3.698   6.537   5.225 -0.5909  0.1289  0.3469
55301SOL    HW172761   3.651   6.453   5.223 -1.2991  0.4884  1.3074
55301SOL    HW272762   3.782   6.517   5.184 -0.8905 -0.9581  0.2065
55302SOL     OW72763   1.673  11.993   0.438  0.4575  0.4052  0.0563
55302SOL    HW172764   1.748  11.994   0.498  1.9792 -0.7531 -1.6971
55302SOL    HW272765   1.699  12.051   0.366 -0.7129  0.6441 -0.1945
55303SOL     OW72766  11.285   8.820   3.663 -0.8924 -0.2236  0.2991
55303SOL    HW172767  11.374   8.854   3.677 -0.4257 -1.3496  0.1435
55303SOL    HW272768  11.249   8.877   3.595 -0.3901  0.4120  0.5472
55304SOL     OW72769   4.652   4.088   8.969 -0.1307  0.6862  0.4978
55304SOL    HW172770   4.728   4.036   8.993 -1.5030 -1.2936  0.8159
55304SOL    HW272771   4.666   4.173   9.010  1.9993  0.4627  0.3071
55305SOL     OW72772   2.454   6.826   4.895  0.6729 -0.2966  0.1290
55305SOL    HW172773   2.400   6.805   4.971  0.1102 -0.9914 -0.4457
55305SOL    HW272774   2.419   6.909   4.862  1.0508  0.1122  0.7346
55306SOL     OW72775   2.614   8.203   9.206 -0.1542  0.1289 -0.5396
55306SOL    HW172776   2.643   8.244   9.124  0.1782 -1.6287 -1.3448
55306SOL    HW272777   2.693   8.160   9.240  0.1379  2.1863  1.6127
55307SOL     OW72778   1.011   1.867   3.318  0.3340 -0.2909 -0.1014
55307SOL    HW172779   0.953   1.794   3.294 -1.4438  0.3595  1.9428
55307SOL    HW272780   0.953   1.943   3.324  1.8054  0.8909 -0.1815
55308SOL     OW72781   3.218   1.100   4.370  0.2310  0.3256 -0.3508
55308SOL    HW172782   3.235   1.134   4.457 -0.6409  0.3192 -0.1694
55308SOL    HW272783   3.152   1.032   4.383  0.5142 -0.0826 -0.9511
55309SOL     OW72784   2.305   0.758   2.303 -0.1415  0.0907  0.4499
55309SOL    HW172785   2.306   0.853   2.311  2.2939  0.0758  1.2430
55309SOL    HW272786   2.296   0.726   2.393 -1.7060 -0.4740  0.1207
55310SOL     OW72787   5.071   3.475   4.683 -0.1792 -0.1191  0.2564
55310SOL    HW172788   5.100   3.548   4.628 -1.6125  0.5715  0.3880
55310SOL    HW272789   5.020   3.420   4.624  0.4434 -0.7498  0.2937
55311SOL     OW72790   6.741   3.789   0.075 -0.5215  0.2049  0.3978
55311SOL    HW172791   6.770   3.868   0.029  0.2764  0.7113  1.7060
55311SOL    HW272792   6.789   3.718   0.034 -0.1274  0.5924  0.1852
55312SOL     OW72793   5.460   9.593  12.153 -0.1768  0.4745  0.7249
55312SOL    HW172794   5.489   9.611  12.242 -2.3586  0.9364  1.4014
55312SOL    HW272795   5.372   9.629  12.148 -0.1396  0.4282 -1.6297
55313SOL     OW72796   3.912   9.290  11.903 -0.4930  0.2069  0.7512
55313SOL    HW172797   3.849   9.333  11.961 -0.9683 -1.8800  1.8558
55313SOL    HW272798   3.984   9.263  11.960 -1.0375 -2.0233  0.4519
55314SOL     OW72799   3.155   8.534  11.087  0.4828 -0.3289 -0.2390
55314SOL    HW172800   3.190   8.622  11.099  0.7769 -0.5301  0.4385
55314SOL    HW272801   3.161   8.518  10.993 -1.4312  1.1389 -0.6891
55315SOL     OW72802   5.538   8.218   6.322  0.2479  0.3524 -0.1380
55315SOL    HW172803   5.545   8.307   6.288  1.8441  0.5597  0.6097
55315SOL    HW272804   5.581   8.164   6.256  2.2213  0.5991  0.8560
55316SOL     OW72805   2.463   2.605   5.773  0.8797  0.5506 -0.2866
55316SOL    HW172806   2.441   2.612   5.866  3.6818  2.2936  0.3697
55316SOL    HW272807   2.467   2.511   5.756  0.1785  0.2028  1.2797
55317SOL     OW72808   7.640   8.713   3.271 -0.2686  0.5711  0.5248
55317SOL    HW172809   7.551   8.733   3.300 -1.2046 -1.0040 -1.0614
55317SOL    HW272810   7.634   8.714   3.175  1.0534 -1.0762  0.3898
55318SOL     OW72811  10.585   2.946   8.729 -0.2501  0.6821 -0.0356
55318SOL    HW172812  10.548   3.016   8.782 -3.1624 -0.9669  0.3734
55318SOL    HW272813  10.568   2.866   8.780  0.2070 -0.5993 -1.7919
55319SOL     OW72814  11.963   1.660  12.231  0.4140 -0.1093  0.2436
55319SOL    HW172815  12.055   1.674  12.255  0.5225 -1.8321  0.9198
55319SOL    HW272816  11.914   1.714  12.294  0.9217 -0.0704  0.6156
55320SOL     OW72817   8.527   1.941   7.401  0.3839 -0.3149 -0.9848
55320SOL    HW172818   8.616   1.966   7.426  0.1311  1.4246 -1.6632
55320SOL    HW272819   8.531   1.931   7.306 -0.0441 -0.7028 -0.9653
55321SOL     OW72820   4.252   3.436   0.705 -0.2032 -0.0206  0.0434
55321SOL    HW172821   4.323   3.374   0.692 -0.3135 -0.4592  1.4266
55321SOL    HW272822   4.193   3.422   0.630  0.6767 -0.3020 -0.6070
55322SOL     OW72823  11.922   7.640   2.217 -0.1819  0.2263 -0.5595
55322SOL    HW172824  11.943   7.695   2.141 -1.5335 -2.2262 -2.8464
55322SOL    HW272825  11.995   7.578   2.223  0.1986  0.7536  0.5627
55323SOL     OW72826   6.002  10.153   1.368 -0.4376 -0.2414 -0.5791
55323SOL    HW172827   5.935  10.187   1.427 -0.0374  1.2011 -0.9144
55323SOL    HW272828   6.019  10.225   1.307 -0.3268 -1.4347 -2.0217
55324SOL     OW72829   3.000   6.860   0.875 -0.2478 -0.3236  0.2219
55324SOL    HW172830   3.009   6.870   0.780  1.3222  0.2624  0.3968
55324SOL    HW272831   3.003   6.766   0.889 -0.5077 -0.4187 -0.3229
55325SOL     OW72832   0.483   9.417   7.768 -0.4611  0.5121 -0.4366
55325SOL    HW172833   0.436   9.339   7.796 -0.5195  0.2389 -1.2509
55325SOL    HW272834   0.464   9.423   7.674 -0.9415  1.8348 -0.2781
55326SOL     OW72835   6.090   6.119  10.031  0.4806 -0.2699  0.1437
55326SOL    HW172836   6.059   6.151   9.946 -2.2653 -0.3186  1.0163
55326SOL    HW272837   6.170   6.071  10.011  1.0309  1.4185 -2.1121
55327SOL     OW72838  11.147   1.085   0.818  0.0046  0.1672 -0.4310
55327SOL    HW172839  11.210   1.029   0.863 -0.5591 -0.9624 -1.0119
55327SOL    HW272840  11.152   1.058   0.726  0.4437  1.7740 -0.9276
55328SOL     OW72841   1.813  10.760   1.425  0.2758 -0.4429  0.3011
55328SOL    HW172842   1.762  10.759   1.344  0.0394  0.7665  0.4096
55328SOL    HW272843   1.811  10.669   1.456  0.5164 -0.9484 -1.1197
55329SOL     OW72844   9.351   4.696   0.817  0.3323  0.3336 -0.0179
55329SOL    HW172845   9.358   4.640   0.894  0.3400 -3.2823 -2.3875
55329SOL    HW272846   9.439   4.693   0.778 -0.2482  0.0422 -1.3729
55330SOL     OW72847   0.030   8.127  10.263 -0.2735 -0.2292 -0.0118
55330SOL    HW172848   0.097   8.174  10.312 -1.6475  0.1283  1.5896
55330SOL    HW272849   0.069   8.041  10.245  1.2666  0.5728 -0.7157
55331SOL     OW72850   0.257  10.053  11.169 -0.2179 -0.5119 -0.5402
55331SOL    HW172851   0.262  10.097  11.253  1.0924  2.3442 -1.9794
55331SOL    HW272852   0.329   9.990  11.170  0.1517 -0.0822  0.2327
55332SOL     OW72853   6.881  12.519   5.659  0.5183 -0.0828 -0.0867
55332SOL    HW172854   6.963  12.556   5.693  0.2554 -0.7364  1.3218
55332SOL    HW272855   6.857  12.452   5.722 -1.0587  0.0175 -0.5440
55333SOL     OW72856   8.204   7.319   6.322 -0.0057 -0.2298 -0.2061
55333SOL    HW172857   8.258   7.300   6.398  0.7894 -1.0077 -0.9456
55333SOL    HW272858   8.174   7.409   6.335 -0.3374 -0.5425  1.2867
55334SOL     OW72859   6.329  12.108   5.583  0.0516  0.3105 -0.2733
55334SOL    HW172860   6.265  12.074   5.645  1.4626 -0.1074  0.9930
55334SOL    HW272861   6.346  12.198   5.613  1.7725 -0.3414  0.8624
55335SOL     OW72862   3.051  12.354   0.092 -0.2890  0.2591 -0.1516
55335SOL    HW172863   3.081  12.408   0.019 -1.3723 -0.2372 -0.9935
55335SOL    HW272864   3.076  12.265   0.068  0.9878  0.2860  0.9712
55336SOL     OW72865  12.291   4.159   0.138  0.7359  0.2990  0.2334
55336SOL    HW172866  12.363   4.097   0.146  0.4688 -0.5310 -2.7117
55336SOL    HW272867  12.309   4.207   0.058 -1.6843  0.4178 -0.3209
55337SOL     OW72868   1.343   1.420   5.618 -0.4132  0.0150 -0.5572
55337SOL    HW172869   1.422   1.469   5.641 -0.5025  0.0462 -0.3201
55337SOL    HW272870   1.271   1.468   5.658 -0.3094 -1.5367  1.7108
55338SOL     OW72871   1.290   3.529   4.236  0.3315  0.3509 -0.1912
55338SOL    HW172872   1.292   3.594   4.167  1.2088  1.3375  0.7296
55338SOL    HW272873   1.197   3.510   4.248  0.0875  1.1686 -0.7077
55339SOL     OW72874   8.648   4.676  12.527 -0.1348  0.1154 -0.0646
55339SOL    HW172875   8.589   4.651  12.598 -0.2635  0.9818  0.1517
55339SOL    HW272876   8.614   4.760  12.496  0.0250 -0.1713 -1.0382
55340SOL     OW72877   5.609   6.580   5.574 -0.7064  0.0145 -0.3094
55340SOL    HW172878   5.587   6.665   5.537 -1.6856 -0.0805  0.0315
55340SOL    HW272879   5.673   6.543   5.512 -2.3418 -0.1674 -1.9965
55341SOL     OW72880  11.881   1.833  11.177  0.0928 -0.3242 -0.3505
55341SOL    HW172881  11.896   1.901  11.242 -1.6854 -0.5371  0.3498
55341SOL    HW272882  11.914   1.869  11.095  1.6367  0.2700  0.4896
55342SOL     OW72883   8.129   8.971   4.665 -0.7375  0.1652 -0.4615
55342SOL    HW172884   8.109   8.996   4.755 -0.4446  0.7692 -0.5639
55342SOL    HW272885   8.044   8.971   4.621 -1.2313 -2.3395  0.3287
55343SOL     OW72886   0.136   3.865   8.298 -0.1629 -0.4596 -0.3257
55343SOL    HW172887   0.079   3.890   8.371 -1.7294  1.6511 -2.1763
55343SOL    HW272888   0.098   3.784   8.265  1.0309 -1.8971  1.5870
55344SOL     OW72889   5.585   7.721   9.953  0.7785  0.0271  0.0660
55344SOL    HW172890   5.573   7.634   9.993 -0.7940  0.2400  0.1058
55344SOL    HW272891   5.499   7.744   9.919  0.8083  2.1473  1.2251
55345SOL     OW72892  10.219   2.626  12.333  0.2525 -0.2880 -0.0916
55345SOL    HW172893  10.202   2.612  12.240 -0.5794 -2.7775  0.3595
55345SOL    HW272894  10.196   2.718  12.349  0.4311  0.1848 -2.3182
55346SOL     OW72895   0.860   8.694   1.780  0.4967 -0.0406  0.5132
55346SOL    HW172896   0.826   8.615   1.738 -1.5672 -0.7443  3.2304
55346SOL    HW272897   0.786   8.756   1.778  0.8143  0.4088  1.7597
55347SOL     OW72898   9.804  12.012   4.866 -0.3422  0.2422  0.2543
55347SOL    HW172899   9.857  12.091   4.860  1.2944 -0.8046  0.2804
55347SOL    HW272900   9.828  11.961   4.789 -1.9129  0.0505 -0.1450
55348SOL     OW72901  11.226  11.053   4.541  0.0291  0.3181  0.1058
55348SOL    HW172902  11.318  11.029   4.531  0.0389  0.0178  0.8484
55348SOL    HW272903  11.229  11.136   4.590 -0.0088  1.8042 -2.2416
55349SOL     OW72904  11.297   1.323   2.169  0.4490  0.5474  0.3949
55349SOL    HW172905  11.281   1.327   2.263 -1.6418  0.8367  0.0917
55349SOL    HW272906  11.231   1.381   2.132  0.6684 -0.2300 -1.3034
55350SOL     OW72907   9.656   4.807   1.770 -0.3121  0.0057 -0.7712
55350SOL    HW172908   9.602   4.884   1.752 -0.7298 -0.5332 -1.9154
55350SOL    HW272909   9.647   4.753   1.692 -0.1031 -1.2543  0.0514
55351SOL     OW72910   2.153   1.370  10.785 -0.2182 -0.0293  0.6236
55351SOL    HW172911   2.184   1.456  10.757 -0.7688 -0.2406 -0.7391
55351SOL    HW272912   2.172   1.366  10.879 -2.4581  2.5984  1.3092
55352SOL     OW72913   2.416   2.349   8.643 -0.0063  0.2090 -0.2574
55352SOL    HW172914   2.464   2.272   8.614  3.2050  1.8778  0.2567
55352SOL    HW272915   2.397   2.333   8.735 -1.0420 -0.6953 -0.6010
55353SOL     OW72916   1.181   2.966   7.854 -0.0048  0.1933 -0.3058
55353SOL    HW172917   1.204   2.944   7.944  3.7151  0.0973 -1.1170
55353SOL    HW272918   1.189   3.061   7.849  0.8444  0.1105 -0.7347
55354SOL     OW72919  10.020   8.096   8.990 -0.4067 -0.1064  0.0857
55354SOL    HW172920  10.046   8.181   8.956  0.5445 -0.6512 -0.5874
55354SOL    HW272921  10.002   8.043   8.912 -0.6951 -0.6077  0.4882
55355SOL     OW72922  11.567   6.606   8.646 -0.7291 -0.0353  0.3462
55355SOL    HW172923  11.511   6.532   8.670 -0.3710 -0.0370  1.2189
55355SOL    HW272924  11.652   6.586   8.686 -0.2480  0.2266 -0.5067
55356SOL     OW72925   9.409  10.122   1.972 -0.2371  0.1604  0.4210
55356SOL    HW172926   9.340  10.164   1.921  0.3008  1.5433  0.7827
55356SOL    HW272927   9.381  10.128   2.063 -0.8008 -1.5568  0.3994
55357SOL     OW72928  10.470   4.395   6.736  0.4101  0.1389  0.3181
55357SOL    HW172929  10.532   4.322   6.731 -1.8769 -1.9854  0.8778
55357SOL    HW272930  10.510   4.464   6.684  1.4331 -2.4932 -2.7170
55358SOL     OW72931   9.901   1.325  10.935 -0.1997  0.1065 -0.1282
55358SOL    HW172932   9.883   1.272  10.858 -3.2631  1.1793 -0.2861
55358SOL    HW272933   9.902   1.262  11.008  0.1680 -0.5884 -0.7199
55359SOL     OW72934   7.743   6.255   7.825  0.2374 -0.0224 -0.4656
55359SOL    HW172935   7.794   6.198   7.769  2.8334  0.9095  0.7748
55359SOL    HW272936   7.695   6.312   7.765 -1.4036 -2.5538 -1.6980
55360SOL     OW72937  11.542  11.622  11.383 -0.3457 -0.6302  0.2051
55360SOL    HW172938  11.453  11.601  11.411 -0.4682  0.9915  1.1953
55360SOL    HW272939  11.594  11.614  11.463 -0.3348  2.1069  0.5711
55361SOL     OW72940   7.456   9.605   4.251  0.1329  0.0038  0.3074
55361SOL    HW172941   7.384   9.599   4.313  0.4777  3.5308  1.2668
55361SOL    HW272942   7.535   9.608   4.305  0.8676 -1.4322 -0.6079
55362SOL     OW72943   4.684   3.054  12.368  0.3386  0.1574  0.1194
55362SOL    HW172944   4.701   3.004  12.288  1.2742 -0.8182  0.9083
55362SOL    HW272945   4.694   3.146  12.341 -0.9700 -0.0541 -1.2389
55363SOL     OW72946   2.987   7.851  11.559 -0.5095 -0.2695 -0.1475
55363SOL    HW172947   3.014   7.793  11.487  0.6747  0.4346 -0.2898
55363SOL    HW272948   3.035   7.818  11.635 -1.5826 -0.8664  0.3127
55364SOL     OW72949   0.053   8.321   7.301  0.6016  0.0322  0.1323
55364SOL    HW172950   0.118   8.268   7.347  0.1377 -0.4360  0.2533
55364SOL    HW272951   0.075   8.411   7.325  0.0021 -0.2271  1.7713
55365SOL     OW72952  12.552   2.238   5.175 -0.2026  0.1719  0.1294
55365SOL    HW172953  12.500   2.226   5.254  0.2621  1.4817  0.6688
55365SOL    HW272954  12.487   2.237   5.104 -1.0624  2.0934  0.8171
55366SOL     OW72955  12.217   7.072   8.346  0.1260 -0.2299  0.4522
55366SOL    HW172956  12.155   7.144   8.356  0.9083  0.3661  1.0410
55366SOL    HW272957  12.302   7.114   8.331  0.5674 -1.0280  0.6471
55367SOL     OW72958   8.326   3.352   0.219  0.4787 -0.0699  0.0430
55367SOL    HW172959   8.312   3.259   0.239  0.9722  0.1521  1.5002
55367SOL    HW272960   8.246   3.395   0.251  0.6118  0.1089  0.1331
55368SOL     OW72961  11.382   8.454   8.530  0.2034 -0.2062 -0.4597
55368SOL    HW172962  11.440   8.379   8.541  0.5932  0.0012 -1.0796
55368SOL    HW272963  11.342   8.441   8.444  1.8011  1.3331 -1.4887
55369SOL     OW72964   6.493   5.670   9.980 -0.4605  0.1153  0.2711
55369SOL    HW172965   6.469   5.741   9.921 -1.4015 -0.9213 -0.6093
55369SOL    HW272966   6.575   5.636   9.945 -0.6829 -0.0808 -0.0523
55370SOL     OW72967  11.572   7.411  10.799 -0.5412  0.2778 -0.4495
55370SOL    HW172968  11.619   7.419  10.715  1.8737  1.3572  0.9029
55370SOL    HW272969  11.592   7.492  10.845  0.3462 -1.3119  2.1847
55371SOL     OW72970  10.185   3.792   5.163 -0.0828 -0.3827  0.2733
55371SOL    HW172971  10.263   3.803   5.218  1.8472  1.1057 -2.5239
55371SOL    HW272972  10.199   3.710   5.117 -0.0063  0.0058 -0.4180
55372SOL     OW72973   6.205   0.414  10.195 -0.0907  0.0042 -0.8770
55372SOL    HW172974   6.119   0.408  10.239 -0.3745 -1.6447 -1.5900
55372SOL    HW272975   6.208   0.503  10.161 -1.4877  0.1194 -0.7597
55373SOL     OW72976   4.546   3.204   1.522 -0.0064 -0.5626  0.4957
55373SOL    HW172977   4.577   3.270   1.460  1.4231 -1.5380  0.1324
55373SOL    HW272978   4.464   3.240   1.556  0.4586  1.1365 -0.0893
55374SOL     OW72979   3.983   9.650  10.700  0.3515 -0.4616  0.1568
55374SOL    HW172980   3.933   9.568  10.697 -1.1746  0.3953  1.0194
55374SOL    HW272981   4.042   9.639  10.775  0.7074 -1.0640 -0.2055
55375SOL     OW72982  12.196  11.811   3.010  0.3393  0.0428  0.1276
55375SOL    HW172983  12.230  11.790   2.924  0.6264 -0.6995  0.4128
55375SOL    HW272984  12.248  11.886   3.040  0.7603 -0.1891 -0.0243
55376SOL     OW72985  12.078   5.131  11.148 -0.3401  0.0722 -0.3362
55376SOL    HW172986  12.135   5.196  11.108  0.7298  0.1012  1.1274
55376SOL    HW272987  12.022   5.100  11.077  1.9220 -0.4147 -2.0132
55377SOL     OW72988   9.335   8.800   3.079 -0.0004 -0.0204 -0.7468
55377SOL    HW172989   9.272   8.763   3.016 -1.2994 -0.6978  0.8840
55377SOL    HW272990   9.397   8.729   3.094 -1.9004 -1.3459  1.5827
55378SOL     OW72991  11.619  10.876  11.241 -0.3921 -0.4357 -0.3958
55378SOL    HW172992  11.571  10.826  11.175 -1.6481  1.6145 -1.1129
55378SOL    HW272993  11.672  10.938  11.191 -0.7661  0.6251  0.4807
55379SOL     OW72994   0.034   6.505   1.034  0.2709 -0.1399  0.3046
55379SOL    HW172995  -0.011   6.532   0.953  1.0564 -1.0103 -0.4420
55379SOL    HW272996  -0.031   6.453   1.081  0.4311 -1.3568 -0.7483
55380SOL     OW72997   5.721   3.949  12.166 -0.4913 -0.8405 -0.0500
55380SOL    HW172998   5.732   4.025  12.224  2.2832 -1.3452  0.2212
55380SOL    HW272999   5.650   3.899  12.206 -0.9444  0.5431  0.9565
55381SOL     OW73000  11.794   6.458   3.017  0.6691  0.1739  0.4793
55381SOL    HW173001  11.825   6.528   3.074  1.2382  0.5219 -0.2441
55381SOL    HW273002  11.715   6.495   2.976  1.0256  0.4481  0.0210
55382SOL     OW73003   5.332   7.141   2.957  0.2208 -0.1042  0.3484
55382SOL    HW173004   5.346   7.110   2.867  0.9695 -0.2038  0.4953
55382SOL    HW273005   5.406   7.106   3.006  0.7497  1.4003  0.6546
55383SOL     OW73006   6.010   0.301   4.050  0.2916  0.4443  0.1522
55383SOL    HW173007   6.004   0.213   4.013  0.5158  0.6410 -0.3534
55383SOL    HW273008   6.014   0.286   4.145 -0.2649 -0.0556  0.1034
55384SOL     OW73009   7.179   4.049   9.210 -0.0846  0.5208 -0.4874
55384SOL    HW173010   7.161   4.010   9.124 -1.1573  0.7984 -0.4109
55384SOL    HW273011   7.270   4.027   9.228 -0.4908 -1.5006 -0.6703
55385SOL     OW73012  10.499   3.966   8.428  0.3896  0.2682 -0.0497
55385SOL    HW173013  10.494   3.902   8.499 -2.3483  0.0268 -0.3619
55385SOL    HW273014  10.582   3.946   8.383  0.7250 -1.5068  1.2683
55386SOL     OW73015   5.594  10.895  12.416 -0.1915  0.3667  0.0042
55386SOL    HW173016   5.555  10.862  12.335  3.2601 -0.0524 -1.6291
55386SOL    HW273017   5.555  10.982  12.427 -2.3705 -0.4207 -0.7931
55387SOL     OW73018   2.921   9.970   0.841  0.0335  0.1542  0.8109
55387SOL    HW173019   2.967  10.028   0.902  0.0172 -0.7412  1.7013
55387SOL    HW273020   2.829   9.996   0.849  0.3676  2.3319 -1.3932
55388SOL     OW73021  11.068   4.755   1.037  0.2508 -0.0892 -0.0121
55388SOL    HW173022  11.107   4.674   1.003 -0.7000 -1.6929  2.4467
55388SOL    HW273023  11.060   4.740   1.131 -0.8435  2.5312  0.3925
55389SOL     OW73024   1.307   8.968   0.421 -0.5751  0.3234  0.9679
55389SOL    HW173025   1.349   9.018   0.351 -1.5152  1.0831  0.9236
55389SOL    HW273026   1.262   9.034   0.474 -1.3506 -0.4062  1.2537
55390SOL     OW73027   8.128  11.529   1.373 -0.1718 -0.0663  0.0688
55390SOL    HW173028   8.163  11.440   1.371  2.4350  0.8818  0.4017
55390SOL    HW273029   8.033  11.517   1.383  0.1247 -2.7806  0.3238
55391SOL     OW73030   1.206   1.500   8.694 -0.6749 -0.0579  0.1804
55391SOL    HW173031   1.145   1.537   8.758 -1.1825  0.9035 -0.8260
55391SOL    HW273032   1.291   1.505   8.736 -0.9422  0.9614  0.6248
55392SOL     OW73033   3.840   6.175   6.329 -0.8415 -0.2627 -0.6199
55392SOL    HW173034   3.934   6.182   6.312 -0.3336 -2.6030  0.7985
55392SOL    HW273035   3.821   6.248   6.388 -0.0187  0.4373 -1.1831
55393SOL     OW73036   1.933   7.743   9.720  0.0733  0.1475  0.3144
55393SOL    HW173037   1.921   7.651   9.700 -0.3600  0.3126 -0.2198
55393SOL    HW273038   1.923   7.788   9.635  0.9611  0.6215  0.4478
55394SOL     OW73039   2.715   3.635   3.505 -0.5400 -0.8736  0.1423
55394SOL    HW173040   2.718   3.722   3.543  0.2857  0.2437 -2.2670
55394SOL    HW273041   2.621   3.615   3.497 -0.7250 -0.6833  1.6551
55395SOL     OW73042   5.132   0.280   8.898 -0.1344  0.3595 -0.5827
55395SOL    HW173043   5.138   0.373   8.916  1.5634  0.2008 -0.1264
55395SOL    HW273044   5.163   0.238   8.979 -0.1215 -0.5706 -1.0545
55396SOL     OW73045  11.952   2.337   5.079  0.3662 -0.2624 -0.0969
55396SOL    HW173046  11.948   2.283   5.158 -0.6542 -0.2045 -0.0971
55396SOL    HW273047  12.015   2.406   5.100  0.8327 -0.7996  0.3095
55397SOL     OW73048   9.332   9.756   3.329 -0.2289  0.2956 -1.0626
55397SOL    HW173049   9.321   9.782   3.421  2.8950 -1.8029  0.0906
55397SOL    HW273050   9.255   9.704   3.309 -0.1912 -0.6701  1.0023
55398SOL     OW73051  12.561   1.471   3.721  0.4916 -0.0880  0.1878
55398SOL    HW173052  12.533   1.437   3.806 -1.3638 -1.0068 -0.7243
55398SOL    HW273053  12.503   1.427   3.658 -0.6038  3.1679 -1.2720
55399SOL     OW73054   6.734   8.966   6.318 -0.3614 -0.1258 -0.6789
55399SOL    HW173055   6.762   9.055   6.297 -0.8763 -0.1646 -1.5919
55399SOL    HW273056   6.651   8.977   6.365  0.8494 -0.0332  1.5954
55400SOL     OW73057   3.055  11.356  11.601  0.4415 -0.2761 -0.0955
55400SOL    HW173058   2.961  11.344  11.586  0.2634  1.4843 -0.5751
55400SOL    HW273059   3.095  11.341  11.515  0.6312 -1.1903  0.1453
55401SOL     OW73060  10.514  10.554  12.103  0.2798  0.3749  0.1028
55401SOL    HW173061  10.499  10.622  12.169 -0.1993  0.1864  0.1916
55401SOL    HW273062  10.528  10.474  12.153  1.0386  0.4428  0.0040
55402SOL     OW73063  10.699   6.225  10.735 -0.2360  0.2846  0.3024
55402SOL    HW173064  10.788   6.218  10.771 -0.0657 -2.3986 -0.4613
55402SOL    HW273065  10.667   6.309  10.768  1.5081  0.0045  3.0477
55403SOL     OW73066   5.497  11.921   3.742  0.7818  0.4305 -0.5881
55403SOL    HW173067   5.423  11.975   3.717 -1.6202 -2.3174 -0.0266
55403SOL    HW273068   5.498  11.850   3.677  1.9289 -0.4154  0.3084
55404SOL     OW73069   6.475   5.620  11.526 -0.1978  0.5542  0.0189
55404SOL    HW173070   6.565   5.591  11.541 -0.3569  0.3898  0.7100
55404SOL    HW273071   6.443   5.641  11.614 -1.6818 -1.8490  0.1417
55405SOL     OW73072   2.132   9.914   4.731  0.2167 -0.1489  0.6130
55405SOL    HW173073   2.184   9.880   4.658  1.3497 -0.1289  1.3864
55405SOL    HW273074   2.122  10.007   4.712  0.1538 -0.2174  0.2880
55406SOL     OW73075   0.837   9.728   7.521  0.0982  0.6457  0.1000
55406SOL    HW173076   0.755   9.738   7.472  0.0668 -2.8870 -0.8071
55406SOL    HW273077   0.904   9.765   7.464 -0.4045 -0.0007 -0.9379
55407SOL     OW73078   3.077   2.993   3.686  0.4601  0.0990  0.0788
55407SOL    HW173079   3.122   2.987   3.770 -1.0794 -0.3976  0.9070
55407SOL    HW273080   3.122   2.929   3.631  0.0116 -1.3059  1.2735
55408SOL     OW73081   3.787   4.176   4.804  0.2693  0.6177  0.0744
55408SOL    HW173082   3.801   4.216   4.890  0.9877 -1.6904  1.0939
55408SOL    HW273083   3.716   4.113   4.818  0.1253  0.4957 -1.1275
55409SOL     OW73084   9.550   0.375  11.982  0.7000 -0.6146 -0.6227
55409SOL    HW173085   9.501   0.455  12.001 -0.3116 -1.5441  0.9078
55409SOL    HW273086   9.552   0.370  11.887  1.6600  1.7237 -0.8093
55410SOL     OW73087   2.844   2.560  10.242 -0.7019  0.3178 -0.1349
55410SOL    HW173088   2.782   2.533  10.175  0.0974  0.7309 -1.0615
55410SOL    HW273089   2.817   2.649  10.265  0.1512  0.9008 -1.2997
55411SOL     OW73090  10.237   2.457   1.602 -0.1664 -0.2303  0.3274
55411SOL    HW173091  10.185   2.394   1.652  1.4423 -2.3947 -0.5906
55411SOL    HW273092  10.284   2.507   1.668 -1.1320 -0.2801  1.0693
55412SOL     OW73093   4.458  12.570   4.289  0.2551 -0.1395  0.5240
55412SOL    HW173094   4.431  12.549   4.379  2.4341 -1.9071  0.8439
55412SOL    HW273095   4.442  12.664   4.281 -0.0893  0.0469  2.7202
55413SOL     OW73096   0.037   0.440   0.748  0.1296  0.4981 -0.4845
55413SOL    HW173097   0.009   0.359   0.790  0.5429  0.1021 -0.9545
55413SOL    HW273098  -0.024   0.507   0.780 -0.6662 -0.1330 -0.6542
55414SOL     OW73099   0.673   5.111   5.359 -0.1001  0.0697 -0.4452
55414SOL    HW173100   0.759   5.073   5.343 -0.1439 -0.0416 -0.4171
55414SOL    HW273101   0.679   5.201   5.326  0.3781  0.4247  0.5651
55415SOL     OW73102   5.409   2.285   6.807  0.3129  0.5847  0.2459
55415SOL    HW173103   5.455   2.307   6.727 -1.3642  1.5496 -0.5091
55415SOL    HW273104   5.452   2.205   6.839  2.0673  1.1115 -0.6983
55416SOL     OW73105   5.385  12.071   0.137 -0.7280 -0.1547  0.0368
55416SOL    HW173106   5.469  12.030   0.116 -0.4999  0.3480 -0.0518
55416SOL    HW273107   5.336  12.003   0.183  0.6353  0.2291  2.2417
55417SOL     OW73108   1.267   8.938   7.040 -0.6644 -0.1565  0.4370
55417SOL    HW173109   1.203   8.885   6.993 -0.1294  0.2396 -0.7906
55417SOL    HW273110   1.352   8.909   7.007 -0.3928  2.2566 -1.2523
55418SOL     OW73111   4.048   4.562   8.434 -0.4695  0.2798 -0.0332
55418SOL    HW173112   4.020   4.517   8.514  0.8517 -0.0151  0.2856
55418SOL    HW273113   4.080   4.647   8.464 -0.6422  0.4595 -0.3484
55419SOL     OW73114  10.137   5.514   6.290  0.2374  0.5446 -0.1052
55419SOL    HW173115  10.129   5.514   6.194 -0.0610 -0.7234 -0.1085
55419SOL    HW273116  10.227   5.543   6.306 -0.0943  1.9695 -0.7005
55420SOL     OW73117   1.983   4.019   2.891 -0.2322  0.4355  0.5407
55420SOL    HW173118   1.918   4.028   2.822 -1.8516  1.0037  2.0390
55420SOL    HW273119   2.021   3.932   2.878 -0.6223  0.4728 -0.9218
55421SOL     OW73120   7.683   4.499   4.985  0.3039  0.9701  0.3230
55421SOL    HW173121   7.650   4.587   5.004 -0.1880  0.5935  1.3147
55421SOL    HW273122   7.613   4.457   4.936  1.4900  1.8723 -2.2849
55422SOL     OW73123   8.694   2.636   1.856 -0.2824 -0.2379 -0.1026
55422SOL    HW173124   8.639   2.695   1.803  0.4671 -0.1167 -0.7827
55422SOL    HW273125   8.770   2.619   1.800  0.8914  0.4516  1.1979
55423SOL     OW73126   1.788   6.871   0.227  0.5053 -0.2560 -0.4397
55423SOL    HW173127   1.694   6.873   0.210  0.1431 -2.1893  1.0586
55423SOL    HW273128   1.802   6.793   0.280  2.4657  1.7184  2.2274
55424SOL     OW73129  11.632  12.362   0.545 -0.2334 -0.3328  0.0944
55424SOL    HW173130  11.695  12.306   0.499 -0.4333 -0.0517 -0.5217
55424SOL    HW273131  11.547  12.337   0.508 -0.1890  1.4724 -1.3405
55425SOL     OW73132   7.217   6.084   9.215  0.2758  0.3252 -0.1286
55425SOL    HW173133   7.202   5.996   9.179  0.1576  0.4502 -0.3931
55425SOL    HW273134   7.282   6.123   9.156  0.9529  0.1183  0.4729
55426SOL     OW73135  10.687   1.555   4.108  0.2022 -0.4619 -0.2452
55426SOL    HW173136  10.723   1.625   4.163  0.4486 -0.5705 -0.2681
55426SOL    HW273137  10.600   1.538   4.144 -1.3419  2.2569 -2.3021
55427SOL     OW73138   4.138   8.608   9.663 -0.1319  0.6072 -0.0879
55427SOL    HW173139   4.160   8.557   9.585  1.0987 -0.6730  1.0453
55427SOL    HW273140   4.073   8.671   9.633 -0.0601 -0.1857 -2.0295
55428SOL     OW73141   1.338   2.875  10.268 -0.0256 -0.3187  0.8518
55428SOL    HW173142   1.433   2.870  10.279  0.4464 -0.5841 -2.2594
55428SOL    HW273143   1.326   2.943  10.201 -1.9982 -0.5459  0.9145
55429SOL     OW73144   5.826   5.994   0.993  0.7311 -0.0226 -0.0343
55429SOL    HW173145   5.762   5.925   0.974  1.9497 -0.6800 -2.1078
55429SOL    HW273146   5.800   6.067   0.938  0.6133  0.4331  0.6250
55430SOL     OW73147   4.000   6.288   4.903 -0.2078 -0.2760 -0.2581
55430SOL    HW173148   3.965   6.207   4.939 -1.2269  0.8861  1.5272
55430SOL    HW273149   3.946   6.357   4.941 -0.4626  1.2001 -3.0155
55431SOL     OW73150   7.235   6.691   8.153 -0.1747 -0.2020 -0.2168
55431SOL    HW173151   7.273   6.721   8.236 -0.0662 -0.3470 -0.2129
55431SOL    HW273152   7.291   6.731   8.086 -1.3261  1.3901 -0.2801
55432SOL     OW73153  11.558   0.903   1.613  0.1598  0.5199  0.3887
55432SOL    HW173154  11.486   0.861   1.661 -0.3799 -0.6914 -1.3870
55432SOL    HW273155  11.637   0.869   1.654 -0.2592  0.6445  1.3391
55433SOL     OW73156   9.602   2.095   6.237  0.0688  0.4280  0.2272
55433SOL    HW173157   9.540   2.133   6.299 -0.2876  0.4772 -0.1543
55433SOL    HW273158   9.547   2.057   6.169  0.3589 -1.7875  1.1368
55434SOL     OW73159   2.377  10.330   0.861 -0.1587  0.2376 -0.5674
55434SOL    HW173160   2.354  10.302   0.950 -0.3955  0.9769 -0.3895
55434SOL    HW273161   2.450  10.390   0.872 -0.0776  0.2019 -0.8871
55435SOL     OW73162   1.501   1.564   8.503 -0.1119  0.3445  0.6733
55435SOL    HW173163   1.507   1.658   8.484  0.6414  0.0549 -0.5684
55435SOL    HW273164   1.476   1.524   8.420  0.5654 -0.6696  0.9485
55436SOL     OW73165   7.757   6.773   1.690 -0.0959 -0.2170 -0.5617
55436SOL    HW173166   7.791   6.851   1.647 -1.0669 -0.1542 -1.2660
55436SOL    HW273167   7.674   6.755   1.645  0.0300 -1.5665 -0.3145
55437SOL     OW73168   0.687   2.246   5.116  0.0975 -0.3118  0.5139
55437SOL    HW173169   0.642   2.161   5.114  0.4492 -0.4921 -0.3037
55437SOL    HW273170   0.776   2.226   5.089 -0.4925  0.6819 -2.5935
55438SOL     OW73171   6.124   8.731   9.863 -0.5100  1.0292 -0.1805
55438SOL    HW173172   6.154   8.809   9.815  0.3960  0.9888  0.3039
55438SOL    HW273173   6.189   8.719   9.932  0.8682 -1.6485 -1.7378
55439SOL     OW73174   2.250   1.076  10.302  0.4559 -0.1515  0.4777
55439SOL    HW173175   2.248   1.133  10.379 -4.1783  2.1031 -0.9792
55439SOL    HW273176   2.226   0.989  10.335  1.8247 -0.0244  1.9304
55440SOL     OW73177  10.356   6.299   6.218  0.7313 -0.1209  0.4411
55440SOL    HW173178  10.423   6.297   6.150 -0.5210 -1.4940 -0.8496
55440SOL    HW273179  10.299   6.224   6.198 -1.8042  1.5584  0.7757
55441SOL     OW73180   9.864   2.587   5.231 -0.4412  0.7843  0.2304
55441SOL    HW173181   9.926   2.628   5.291 -0.3846  1.5853 -0.3597
55441SOL    HW273182   9.836   2.658   5.173  0.1831 -0.1501 -1.2634
55442SOL     OW73183   4.426  11.382   2.500  0.3052 -0.4109  0.7759
55442SOL    HW173184   4.381  11.452   2.547  1.1065  0.0494  0.8861
55442SOL    HW273185   4.361  11.313   2.491 -0.7351  0.6060  0.0647
55443SOL     OW73186   7.782   6.442   4.506 -0.5075 -0.2891 -0.0496
55443SOL    HW173187   7.833   6.428   4.586  0.4429 -0.1446 -0.6136
55443SOL    HW273188   7.703   6.390   4.519 -1.4149  1.4203  1.9108
55444SOL     OW73189   2.730   1.326   6.459  0.3594  0.2654  0.4064
55444SOL    HW173190   2.761   1.389   6.394 -1.4911  0.5559 -0.2587
55444SOL    HW273191   2.742   1.240   6.417 -2.9227  0.5317 -1.4376
55445SOL     OW73192   6.482   4.850   9.340 -0.8916 -0.1403 -0.4645
55445SOL    HW173193   6.573   4.880   9.337 -1.6710  2.4479 -1.0118
55445SOL    HW273194   6.488   4.755   9.344  1.8612 -0.0075  1.3578
55446SOL     OW73195   8.439   9.170  10.697  0.5871 -0.0562  0.3287
55446SOL    HW173196   8.353   9.131  10.712  0.4569  0.8614  2.3994
55446SOL    HW273197   8.489   9.149  10.776  1.3973  1.5558  0.2888
55447SOL     OW73198   5.377  10.943   7.275  0.2066  0.2793 -0.2100
55447SOL    HW173199   5.388  10.998   7.353  0.3574 -1.1188  0.7873
55447SOL    HW273200   5.330  10.999   7.213  0.5166  1.5853  0.6914
55448SOL     OW73201   8.493   1.677   7.435  0.0775 -0.3203 -0.0307
55448SOL    HW173202   8.560   1.634   7.382  0.8624 -0.0520  0.7250
55448SOL    HW273203   8.498   1.769   7.410 -0.5218 -0.4084 -0.5020
55449SOL     OW73204   0.402   7.778   2.782  0.0366  0.3724 -0.4859
55449SOL    HW173205   0.321   7.769   2.832  0.5476  2.8496  0.9712
55449SOL    HW273206   0.415   7.872   2.775  2.3492  0.0446 -1.4476
55450SOL     OW73207   1.423   5.691   8.028  0.1441 -0.1994 -0.2180
55450SOL    HW173208   1.339   5.654   8.002 -0.0998 -1.1238  1.6903
55450SOL    HW273209   1.459   5.627   8.090  1.8135  0.6445 -0.2573
55451SOL     OW73210   1.736   6.507   3.186  0.3790 -0.1987  0.1956
55451SOL    HW173211   1.796   6.502   3.111  0.5598 -2.3174  0.4187
55451SOL    HW273212   1.723   6.416   3.212 -0.0896  0.4450  2.4334
55452SOL     OW73213   8.202  12.015   7.770 -0.2386  0.0758  0.4095
55452SOL    HW173214   8.264  11.999   7.841 -0.2759  1.8860  0.8998
55452SOL    HW273215   8.204  12.110   7.757  1.3572 -0.3249 -3.4644
55453SOL     OW73216   3.523   9.408  10.323  0.0956  0.5749  0.1174
55453SOL    HW173217   3.448   9.430  10.378 -0.3051  1.3589 -0.7170
55453SOL    HW273218   3.597   9.404  10.384 -0.9861 -3.0691  1.4839
55454SOL     OW73219   4.661  10.073   4.378 -0.3725  0.2389  0.7224
55454SOL    HW173220   4.652  10.060   4.472  0.2174  2.1282  1.0947
55454SOL    HW273221   4.683  10.166   4.369 -0.9146  0.2210 -1.3141
55455SOL     OW73222   1.171   0.264  10.782  0.1913 -0.1461 -0.3442
55455SOL    HW173223   1.220   0.206  10.722 -1.0117  0.3543 -1.8583
55455SOL    HW273224   1.203   0.352  10.762 -1.6162  0.2514 -1.7205
55456SOL     OW73225   9.496   4.578   9.596 -0.2486  0.5769  0.3259
55456SOL    HW173226   9.590   4.567   9.584 -0.0224  0.2610  2.1089
55456SOL    HW273227   9.456   4.509   9.543  0.5374  0.2994  0.0834
55457SOL     OW73228   8.721   6.126  12.026  0.5218 -0.4933  0.1576
55457SOL    HW173229   8.699   6.073  12.103  0.3468 -0.8321 -0.1195
55457SOL    HW273230   8.718   6.216  12.057 -1.2899 -0.5024  0.1463
55458SOL     OW73231   6.913  11.636   1.458 -0.0960 -0.0724  0.1443
55458SOL    HW173232   6.847  11.570   1.478 -0.9412  0.5709 -0.4933
55458SOL    HW273233   6.992  11.604   1.502 -0.6681 -1.1480  0.4227
55459SOL     OW73234   8.862   1.328   1.106  0.3881  0.5897  0.1075
55459SOL    HW173235   8.846   1.409   1.154 -1.1620  0.3584  0.0332
55459SOL    HW273236   8.941   1.346   1.054 -0.7160  2.5652 -0.9940
55460SOL     OW73237   1.372   0.079   4.354 -0.3059  0.4082  0.4281
55460SOL    HW173238   1.408   0.125   4.278 -0.6244  0.1138  0.0949
55460SOL    HW273239   1.324   0.147   4.402 -1.5225  0.2762 -0.5260
55461SOL     OW73240  12.141   1.992   5.590  0.0840  0.3171 -0.0814
55461SOL    HW173241  12.207   2.061   5.589 -0.9061  1.2972 -0.2474
55461SOL    HW273242  12.099   2.000   5.675 -2.2775  2.1862 -1.3045
55462SOL     OW73243  10.877   7.102  11.218 -0.5397  0.7884 -0.0296
55462SOL    HW173244  10.841   7.152  11.291 -3.2131 -1.1134  0.0871
55462SOL    HW273245  10.901   7.169  11.153  0.0353  2.3913  1.7361
55463SOL     OW73246  12.300   8.074   9.867 -0.1233 -0.3903 -0.0039
55463SOL    HW173247  12.372   8.135   9.850 -0.5778  0.0329 -0.4396
55463SOL    HW273248  12.229   8.129   9.900 -0.1295 -0.8564  0.7782
55464SOL     OW73249   7.929   3.730   4.284  0.0200  0.5539 -0.5432
55464SOL    HW173250   7.954   3.810   4.237  1.0622  0.6331  0.1172
55464SOL    HW273251   8.012   3.683   4.297 -0.4627 -0.1970 -0.1120
55465SOL     OW73252   4.170   0.851   6.002  0.1841  0.4479 -0.0802
55465SOL    HW173253   4.179   0.878   5.911  0.5987 -0.0955 -0.2042
55465SOL    HW273254   4.240   0.897   6.049 -0.2999  1.0687  0.0473
55466SOL     OW73255  10.276   1.275   7.679 -0.2380 -0.2901 -0.0723
55466SOL    HW173256  10.183   1.274   7.659 -0.0482 -3.6508 -1.5352
55466SOL    HW273257  10.318   1.309   7.600 -0.1634 -0.3194 -0.0464
55467SOL     OW73258   3.317   6.437   7.315 -0.0034  0.0859  0.7455
55467SOL    HW173259   3.299   6.531   7.321  0.4324  0.2161  0.1765
55467SOL    HW273260   3.343   6.411   7.403 -0.9099  0.3250  1.0968
55468SOL     OW73261   1.949   8.678   3.938 -0.2807 -0.0091  0.0452
55468SOL    HW173262   1.903   8.761   3.935 -1.1092 -0.4005 -3.5743
55468SOL    HW273263   1.897   8.623   3.997 -2.0059  0.8786 -0.5842
55469SOL     OW73264   8.288  12.156  10.240 -0.1047 -0.2366  0.1948
55469SOL    HW173265   8.250  12.070  10.257  2.8000 -1.7968 -0.6101
55469SOL    HW273266   8.327  12.149  10.152  0.8950  1.6371  0.4269
55470SOL     OW73267   6.999   8.272   6.105  0.0034 -0.2859  0.3875
55470SOL    HW173268   7.023   8.299   6.017 -0.4879 -0.3585  0.2235
55470SOL    HW273269   6.937   8.200   6.092  0.2046 -0.5372  0.7969
55471SOL     OW73270   7.004   5.787  11.470  0.3200 -0.4922  0.2437
55471SOL    HW173271   6.938   5.844  11.509  0.8981  0.9450 -0.7920
55471SOL    HW273272   7.052   5.751  11.544  0.6274  1.2317  0.9282
55472SOL     OW73273   0.461   1.646   8.033 -0.0396 -0.1548 -0.0531
55472SOL    HW173274   0.534   1.610   7.983  0.0934  0.5422 -0.3661
55472SOL    HW273275   0.462   1.739   8.014  0.5597  0.2954  1.9354
55473SOL     OW73276   9.984   5.809  12.510 -0.1885 -0.6727  0.5557
55473SOL    HW173277   9.913   5.821  12.573  1.2228 -0.8614  2.2614
55473SOL    HW273278   9.971   5.720  12.477 -1.6305 -0.1561 -0.3789
55474SOL     OW73279   2.441   4.019   1.784  0.3498  0.4550  0.4647
55474SOL    HW173280   2.384   4.050   1.855 -0.5396  0.3168 -0.1682
55474SOL    HW273281   2.455   4.097   1.729  0.6555  0.4540  0.5411
55475SOL     OW73282  11.607   9.776   3.832  0.3679  0.1798  0.5075
55475SOL    HW173283  11.693   9.765   3.871 -0.9650  0.6066  3.9741
55475SOL    HW273284  11.593   9.871   3.831  0.9189  0.3446 -2.7194
55476SOL     OW73285   1.509   8.342   8.616 -0.4210  0.5242 -0.1526
55476SOL    HW173286   1.587   8.299   8.649 -1.0551 -0.3739  0.2097
55476SOL    HW273287   1.537   8.380   8.532  0.4441  0.3797  0.0589
55477SOL     OW73288  11.559  11.364   1.928 -0.3020  0.4871 -0.2786
55477SOL    HW173289  11.476  11.390   1.888 -0.5231  1.1055  0.5499
55477SOL    HW273290  11.584  11.284   1.882 -2.0148 -0.4514  0.3403
55478SOL     OW73291  11.110   3.937   6.534  0.0354  0.1605 -0.0909
55478SOL    HW173292  11.127   4.028   6.560  0.4714 -0.0256  0.2631
55478SOL    HW273293  11.145   3.884   6.605 -0.3843 -0.2850 -0.2099
55479SOL     OW73294   2.236   3.320   8.063 -0.1828  0.6026  0.0975
55479SOL    HW173295   2.307   3.296   8.004 -0.1073  0.0526  0.4003
55479SOL    HW273296   2.280   3.353   8.142 -0.2781  1.1162 -0.0645
55480SOL     OW73297   7.006  11.227  10.887 -0.5000  0.3514 -0.6336
55480SOL    HW173298   6.973  11.145  10.924  1.3203  0.7638  2.1690
55480SOL    HW273299   6.942  11.250  10.820 -2.0480 -2.3942 -0.2538
55481SOL     OW73300  11.515   4.015  12.412  0.2893  0.3313 -1.0356
55481SOL    HW173301  11.583   3.977  12.468 -0.0823 -0.1471 -0.9051
55481SOL    HW273302  11.508   3.954  12.339 -1.8378 -1.0501  0.2379
55482SOL     OW73303   4.530   3.430  11.632  0.0102  0.2269  0.4045
55482SOL    HW173304   4.623   3.452  11.625 -0.0761  0.9372  1.3726
55482SOL    HW273305   4.528   3.353  11.689  0.2261 -1.8155 -2.1526
55483SOL     OW73306  11.044   4.902  10.559 -0.2387  0.2775  0.0462
55483SOL    HW173307  11.109   4.933  10.496  2.4270 -5.2852 -0.5278
55483SOL    HW273308  10.967   4.883  10.506  0.1220  0.5102 -0.5799
55484SOL     OW73309   2.409   4.630   2.541  0.5962 -0.3545 -0.5135
55484SOL    HW173310   2.473   4.685   2.586 -0.6615 -0.2500  1.2306
55484SOL    HW273311   2.328   4.644   2.589  0.2539 -3.9308  0.1785
55485SOL     OW73312   7.144  12.387   8.745 -0.4151 -0.2764  0.1288
55485SOL    HW173313   7.127  12.294   8.729  1.6484 -1.0320  1.8416
55485SOL    HW273314   7.176  12.420   8.661  1.9638 -1.9759  0.2715
55486SOL     OW73315   7.220   0.966  11.957  0.1195  0.4514  0.4074
55486SOL    HW173316   7.178   0.919  11.885  0.8688  1.0338 -0.4219
55486SOL    HW273317   7.187   0.923  12.036  0.0439 -0.8347 -0.3051
55487SOL     OW73318  12.542  11.516   3.433 -0.1444  0.0230 -0.2122
55487SOL    HW173319  12.635  11.494   3.425 -0.0916 -0.0241  0.4476
55487SOL    HW273320  12.517  11.549   3.347  0.4185 -0.2102 -0.4689
55488SOL     OW73321   9.373   8.441   0.338 -0.0181 -0.1300 -0.1750
55488SOL    HW173322   9.458   8.397   0.332 -0.1427 -0.3433 -0.4094
55488SOL    HW273323   9.378   8.511   0.274 -0.4876 -0.9504 -1.1476
55489SOL     OW73324   8.290  10.220   4.637 -0.1585  0.2663  0.0063
55489SOL    HW173325   8.204  10.195   4.668 -0.5444  0.3147 -0.9848
55489SOL    HW273326   8.299  10.312   4.662 -0.5890  0.3911 -0.2916
55490SOL     OW73327   9.225   5.112   8.196 -0.0115 -0.4036 -0.3466
55490SOL    HW173328   9.293   5.143   8.256 -0.6333  0.2026  0.0476
55490SOL    HW273329   9.264   5.123   8.109  0.4556 -0.2174 -0.1191
55491SOL     OW73330  10.187   2.929   0.727 -0.1486 -0.0515 -0.1829
55491SOL    HW173331  10.274   2.947   0.762 -0.4801 -0.3152  0.7874
55491SOL    HW273332  10.143   2.879   0.795 -2.1570  2.6686  0.6954
55492SOL     OW73333   6.645   4.468   5.801  0.0252 -0.0179 -0.1909
55492SOL    HW173334   6.735   4.484   5.773 -0.5876  0.4733 -2.0691
55492SOL    HW273335   6.600   4.550   5.783 -1.4827 -1.2306 -2.5087
55493SOL     OW73336   7.763   0.664   3.860  0.9296 -0.2357  0.3931
55493SOL    HW173337   7.782   0.579   3.820  2.4394 -0.2127  1.0215
55493SOL    HW273338   7.848   0.705   3.871  0.2329  1.2997  0.2856
55494SOL     OW73339   8.351   3.797   7.273 -0.2730  0.1832 -0.7431
55494SOL    HW173340   8.280   3.831   7.219 -1.8786  0.6238  1.4966
55494SOL    HW273341   8.383   3.721   7.225 -1.5097  0.6092 -2.3436
55495SOL     OW73342   3.397   5.913   0.482  0.3476 -0.3933 -0.2230
55495SOL    HW173343   3.454   5.839   0.504  0.0270 -0.1340  1.5809
55495SOL    HW273344   3.329   5.875   0.427  0.6448 -1.2674 -0.0066
55496SOL     OW73345   8.151  11.947   6.539  0.3665 -0.0333 -0.1036
55496SOL    HW173346   8.230  11.996   6.564 -0.0488  0.6455 -0.0911
55496SOL    HW273347   8.128  11.897   6.617  0.6189 -0.0183 -0.0164
55497SOL     OW73348   8.201   3.942   0.896  0.2056 -0.0657 -0.0115
55497SOL    HW173349   8.152   3.886   0.957  0.8891  0.5807  1.1604
55497SOL    HW273350   8.136   4.004   0.864 -0.5375 -1.3995 -1.2197
55498SOL     OW73351   2.627   8.522   8.537 -0.3260  0.1463 -0.0126
55498SOL    HW173352   2.600   8.533   8.628  0.2211 -0.2388  0.1933
55498SOL    HW273353   2.580   8.444   8.507  1.1891 -1.0333  0.6014
55499SOL     OW73354   8.956   1.586  10.175 -0.0421  0.3314  0.0830
55499SOL    HW173355   8.933   1.500  10.139  0.7288 -0.5193  1.5215
55499SOL    HW273356   8.975   1.640  10.098  0.0396 -0.9521 -0.8332
55500SOL     OW73357   0.365   8.302  10.681  0.1696 -0.0702 -0.4475
55500SOL    HW173358   0.271   8.308  10.701 -0.3003 -1.3444 -2.0246
55500SOL    HW273359   0.388   8.389  10.648 -0.4478  0.2634 -0.0139
55501SOL     OW73360   0.340  10.250   0.461  0.2699  0.0118 -0.0312
55501SOL    HW173361   0.309  10.274   0.374 -0.2402 -0.6491 -0.0397
55501SOL    HW273362   0.434  10.271   0.460  0.0308  1.1303 -0.3275
55502SOL     OW73363   6.234   6.059  12.309 -0.6166  0.5577  0.4290
55502SOL    HW173364   6.165   6.060  12.242 -0.2492  0.3273  0.0377
55502SOL    HW273365   6.305   6.112  12.271 -0.0440 -0.3192  0.2282
55503SOL     OW73366  11.174   9.570   9.889  0.0896  0.2687  0.1588
55503SOL    HW173367  11.253   9.542   9.936  0.2095 -2.0539 -1.2737
55503SOL    HW273368  11.105   9.570   9.956  0.6142 -1.1180  0.7354
55504SOL     OW73369   9.966   1.179   5.072  0.2315 -0.2440  0.1308
55504SOL    HW173370  10.055   1.212   5.085  0.3725 -0.4141 -0.3910
55504SOL    HW273371   9.974   1.084   5.082  0.3163 -0.3702 -1.0086
55505SOL     OW73372   4.990  12.382   3.069  0.1309 -0.2485 -0.6081
55505SOL    HW173373   4.959  12.413   3.154  0.8261  0.1640 -0.4890
55505SOL    HW273374   5.077  12.346   3.088 -0.0804 -0.9575 -0.9976
55506SOL     OW73375   5.841   6.712  11.062  0.3158  0.2543 -0.7454
55506SOL    HW173376   5.813   6.800  11.036  0.7722  0.5519 -0.2464
55506SOL    HW273377   5.824   6.708  11.157  0.5405 -0.1010 -0.7171
55507SOL     OW73378  10.015   8.155   3.822  0.3186  0.2699 -0.1632
55507SOL    HW173379  10.075   8.134   3.894 -1.8608 -1.2991  1.3314
55507SOL    HW273380   9.930   8.167   3.865 -0.7720  0.7397 -2.3454
55508SOL     OW73381   0.281   5.909   4.833  0.0403 -0.4053 -0.1548
55508SOL    HW173382   0.294   6.003   4.848 -0.7545 -0.4419  0.8215
55508SOL    HW273383   0.305   5.868   4.916  0.3301 -1.0747 -0.5582
55509SOL     OW73384   4.673  10.232  10.369  0.5437  0.1565 -0.0760
55509SOL    HW173385   4.658  10.306  10.429  2.5935  0.3662  0.2374
55509SOL    HW273386   4.767  10.215  10.375  0.4113 -1.3005 -1.5482
55510SOL     OW73387   4.374   2.400   5.769 -0.4429  0.0556 -0.3415
55510SOL    HW173388   4.364   2.401   5.864 -0.6393  0.5592 -0.3674
55510SOL    HW273389   4.370   2.307   5.746 -1.7837 -0.0036  0.0048
55511SOL     OW73390  10.039   0.341   3.873  0.1944  0.2028 -0.7562
55511SOL    HW173391   9.946   0.357   3.859  0.2528 -0.3137 -1.8097
55511SOL    HW273392  10.069   0.299   3.792  0.9150 -1.4099  0.2855
55512SOL     OW73393   3.518   8.531   8.832 -0.0506  0.3877 -0.1157
55512SOL    HW173394   3.579   8.457   8.832 -1.4907 -0.9463 -2.6656
55512SOL    HW273395   3.574   8.608   8.826  1.4616 -0.4782  1.7156
55513SOL     OW73396   1.231   8.501  10.547 -0.3517 -0.0770 -0.1244
55513SOL    HW173397   1.149   8.453  10.559  0.2624 -0.9040  0.9287
55513SOL    HW273398   1.250   8.493  10.453 -1.4222  0.0514 -0.3614
55514SOL     OW73399  12.089   4.235   7.974 -0.4089 -0.2282 -0.0509
55514SOL    HW173400  12.167   4.194   8.010  0.0393  0.5410 -0.1471
55514SOL    HW273401  12.119   4.318   7.938 -0.9033 -0.7718 -1.8498
55515SOL     OW73402  12.258   9.948   8.879 -0.4212 -0.5468 -0.1753
55515SOL    HW173403  12.290   9.882   8.817  1.4176  1.2176 -1.2383
55515SOL    HW273404  12.258  10.030   8.828 -1.3349  0.5253  1.4636
55516SOL     OW73405   8.518   8.165  10.022 -0.4338 -0.4672  1.0591
55516SOL    HW173406   8.545   8.242   9.973  1.6012 -0.7533  1.6744
55516SOL    HW273407   8.493   8.102   9.954  0.9325 -0.3453  0.4076
55517SOL     OW73408   3.057   9.163   7.791 -0.1012  0.1032 -0.4929
55517SOL    HW173409   3.149   9.154   7.816 -0.1440  0.2336 -0.2907
55517SOL    HW273410   3.047   9.104   7.717  0.2582  0.4143 -0.7981
55518SOL     OW73411  11.623   7.067   3.985 -0.0815  0.0126  0.2559
55518SOL    HW173412  11.557   6.998   3.987 -0.4818  0.3985  0.7294
55518SOL    HW273413  11.705   7.022   4.004 -0.4738 -0.1967  1.5533
55519SOL     OW73414   7.931   7.084   0.862 -0.0238 -0.1638  0.0739
55519SOL    HW173415   7.861   7.148   0.849 -0.4810 -0.7688 -0.4922
55519SOL    HW273416   7.934   7.034   0.781  0.2233 -0.9662  0.5654
55520SOL     OW73417   5.667  11.802  11.105 -0.7662 -0.3055  0.3025
55520SOL    HW173418   5.739  11.767  11.157 -0.7854 -1.4833 -0.4416
55520SOL    HW273419   5.703  11.812  11.017 -1.4429 -0.6654 -0.0195
55521SOL     OW73420   4.695   7.507   7.642 -0.1671 -0.3484  0.2638
55521SOL    HW173421   4.666   7.420   7.615 -0.2345 -0.0636 -0.6081
55521SOL    HW273422   4.614   7.557   7.655 -0.1369  0.3807 -1.9506
55522SOL     OW73423   0.230   9.212   6.954 -0.2545  0.0360  0.2438
55522SOL    HW173424   0.224   9.134   7.009  0.5087 -0.0969  0.1541
55522SOL    HW273425   0.324   9.233   6.954 -0.2784  0.1721 -0.8118
55523SOL     OW73426   2.498   3.612   8.278 -0.0812  0.2407  0.2381
55523SOL    HW173427   2.473   3.649   8.362 -1.9177 -0.3242 -0.0124
55523SOL    HW273428   2.548   3.681   8.235 -0.5107  1.1360  1.1386
55524SOL     OW73429   1.764   0.127   6.579 -0.0098  0.1539 -0.6677
55524SOL    HW173430   1.748   0.070   6.504  0.4344 -0.0612 -0.6023
55524SOL    HW273431   1.842   0.177   6.556  0.7393 -0.6319  0.0428
55525SOL     OW73432   6.776  12.559   3.644  0.2658  0.4542  0.2042
55525SOL    HW173433   6.757  12.490   3.581  0.7022 -1.0528  1.6218
55525SOL    HW273434   6.699  12.615   3.644 -0.0962 -0.0235 -1.0027
55526SOL     OW73435   0.123   8.702   9.656 -0.2032 -0.3605 -0.3231
55526SOL    HW173436   0.132   8.664   9.569  2.3509 -0.3902 -0.1206
55526SOL    HW273437   0.148   8.632   9.716  0.5293  0.3722  0.2651
55527SOL     OW73438   8.777  11.746   1.185 -0.4274 -0.1848  0.4151
55527SOL    HW173439   8.799  11.818   1.244 -1.3612 -0.1164  0.6918
55527SOL    HW273440   8.806  11.776   1.099 -1.8767  1.0508  0.3176
55528SOL     OW73441   7.181   1.879   2.690 -0.3304  0.0353  0.5878
55528SOL    HW173442   7.227   1.933   2.754 -1.9891  1.1143  0.9033
55528SOL    HW273443   7.089   1.902   2.699 -1.0665 -2.4867  0.3585
55529SOL     OW73444   2.385   1.934   6.684  0.1328 -0.6972  0.2181
55529SOL    HW173445   2.401   2.005   6.621  1.7947 -2.1614 -1.0881
55529SOL    HW273446   2.359   1.860   6.630  1.0937 -1.8530  1.2865
55530SOL     OW73447  11.199   4.551   0.379 -0.0358  0.3635 -0.0861
55530SOL    HW173448  11.250   4.527   0.457 -0.1119  1.5395  0.3506
55530SOL    HW273449  11.108   4.534   0.404 -0.0757  0.9139  0.1553
55531SOL     OW73450   8.007   7.102  12.576  0.0743 -0.0534  0.0513
55531SOL    HW173451   7.916   7.078  12.593  0.1478 -0.2540  0.1644
55531SOL    HW273452   8.059   7.040  12.628  0.3063 -0.6916 -0.9210
55532SOL     OW73453   1.738   9.734   8.821 -0.3370  0.0114  0.1698
55532SOL    HW173454   1.697   9.653   8.851  0.5216  0.3038  2.3401
55532SOL    HW273455   1.734   9.730   8.726 -0.4584 -2.5084  0.2222
55533SOL     OW73456   7.539   4.218   7.302  0.6561  0.4419 -0.2097
55533SOL    HW173457   7.451   4.229   7.267 -0.3280 -2.0230  1.2286
55533SOL    HW273458   7.536   4.258   7.388  1.3062  1.3237 -0.5839
55534SOL     OW73459   5.920   2.370  12.069 -0.0214 -0.4334 -0.2533
55534SOL    HW173460   5.943   2.408  12.153 -0.5029 -0.1388 -0.2513
55534SOL    HW273461   5.934   2.441  12.006 -0.9897 -0.2256 -0.2424
55535SOL     OW73462  12.020   1.867   4.141  0.5377 -0.7871  0.4711
55535SOL    HW173463  12.002   1.894   4.231  2.2734 -0.1731  0.6652
55535SOL    HW273464  12.087   1.928   4.110 -2.7703  1.7257 -2.6852
55536SOL     OW73465  10.171  12.009  10.136  0.9655 -0.2901 -0.4668
55536SOL    HW173466  10.149  12.067  10.063  1.9016  2.5090  1.2921
55536SOL    HW273467  10.249  11.962  10.107  0.8804  0.2261 -1.5632
55537SOL     OW73468   0.693   8.043   6.294  0.0635 -0.0070 -0.1177
55537SOL    HW173469   0.763   8.108   6.303  1.3857 -0.9424 -2.5645
55537SOL    HW273470   0.627   8.086   6.240  0.1194 -0.0946 -0.2574
55538SOL     OW73471   5.450   7.757   5.358 -0.2761 -1.0034 -0.3316
55538SOL    HW173472   5.443   7.814   5.435 -1.1361 -1.4690 -0.0480
55538SOL    HW273473   5.473   7.672   5.394 -1.1042 -1.3223 -0.5388
55539SOL     OW73474   6.616   7.682   6.246 -0.0674  0.0278  0.4426
55539SOL    HW173475   6.554   7.743   6.204  0.9065  1.0922  0.5119
55539SOL    HW273476   6.642   7.622   6.176  0.6140  1.0416 -0.2007
55540SOL     OW73477   8.839   4.566   2.424 -0.6631 -0.5951  0.1521
55540SOL    HW173478   8.766   4.569   2.362 -1.4916  1.7424  1.1732
55540SOL    HW273479   8.798   4.571   2.510  0.5754 -2.1949  0.8817
55541SOL     OW73480   2.269   1.244   3.391  0.5081 -0.2386 -0.0600
55541SOL    HW173481   2.187   1.292   3.392  1.2755  1.1150  0.2234
55541SOL    HW273482   2.279   1.211   3.480  0.4186 -0.1455 -0.0150
55542SOL     OW73483   2.868   2.255   0.014 -0.3976 -0.1340 -0.2483
55542SOL    HW173484   2.793   2.216  -0.031 -0.6899 -1.5314  1.3508
55542SOL    HW273485   2.836   2.275   0.102  0.4960  1.3907 -0.2323
55543SOL     OW73486  12.270   3.468   8.407  0.4903 -0.0725  0.1727
55543SOL    HW173487  12.307   3.395   8.456  2.1539  1.0425  0.6909
55543SOL    HW273488  12.337   3.490   8.342 -0.8541 -0.2838 -1.3389
55544SOL     OW73489   4.890   8.043   7.390 -0.0729  0.2495  0.0878
55544SOL    HW173490   4.812   7.988   7.379  1.3122 -1.7075 -0.5268
55544SOL    HW273491   4.904   8.082   7.303  0.0824 -0.0465 -0.0219
55545SOL     OW73492   3.178   5.816   0.297  0.0188  0.1352 -0.1684
55545SOL    HW173493   3.232   5.769   0.234  0.4036  0.3452  0.0007
55545SOL    HW273494   3.174   5.906   0.263 -2.0245 -0.3366 -1.3534
55546SOL     OW73495   4.716   6.313   0.178  0.2286  0.0301 -0.1055
55546SOL    HW173496   4.685   6.307   0.268  1.7498 -2.0563  0.3337
55546SOL    HW273497   4.726   6.223   0.149 -0.8625  0.6154 -2.6564
55547SOL     OW73498   1.699   6.301   9.099 -0.3341 -0.0170  0.1764
55547SOL    HW173499   1.661   6.290   9.012 -0.4636  1.1051  0.0763
55547SOL    HW273500   1.624   6.304   9.158 -0.2610 -0.4311  0.2978
55548SOL     OW73501   5.863  10.473  12.030 -0.5864 -0.3506  0.3810
55548SOL    HW173502   5.914  10.448  12.107 -1.3307 -1.4127  0.5545
55548SOL    HW273503   5.923  10.461  11.956 -0.3133 -0.7102  0.6615
55549SOL     OW73504  11.179  12.451   2.418 -0.2520  0.5176  0.4426
55549SOL    HW173505  11.265  12.437   2.457 -0.1615  1.9667  0.8236
55549SOL    HW273506  11.117  12.415   2.482  0.0042  0.6948  0.7934
55550SOL     OW73507   3.454   3.775   4.334 -0.0748  0.4525 -0.0462
55550SOL    HW173508   3.497   3.717   4.397  0.1579  0.1511 -0.4753
55550SOL    HW273509   3.458   3.727   4.251 -1.2036  0.4365 -0.1082
55551SOL     OW73510   0.185   5.952   2.020  0.4932 -0.8362 -0.3234
55551SOL    HW173511   0.136   5.872   2.039 -1.3554 -0.0418 -1.5051
55551SOL    HW273512   0.176   6.005   2.099  0.4507 -1.1715 -0.0994
55552SOL     OW73513   5.474   3.470   4.868 -0.1705  0.1756 -0.0142
55552SOL    HW173514   5.536   3.535   4.902  0.0635 -0.0749  0.0458
55552SOL    HW273515   5.449   3.504   4.782 -1.1901  1.0882  0.6191
55553SOL     OW73516   6.718  11.413   8.536  0.1449  0.1533  0.5355
55553SOL    HW173517   6.737  11.323   8.562  1.1207  0.4623  0.9298
55553SOL    HW273518   6.744  11.418   8.444 -1.5900 -0.4368 -0.0333
55554SOL     OW73519   5.613   5.637   8.771 -0.0239  0.0642 -0.6655
55554SOL    HW173520   5.586   5.595   8.690  0.8464  0.0934 -0.9844
55554SOL    HW273521   5.540   5.693   8.795 -1.3327 -1.7857 -0.1028
55555SOL     OW73522  11.536   8.621   2.345  0.3194 -0.1682 -0.2535
55555SOL    HW173523  11.535   8.545   2.402 -0.5420 -0.5686 -0.7789
55555SOL    HW273524  11.444   8.641   2.330  0.5348  0.9376 -0.1802
55556SOL     OW73525  10.808   6.712   6.933  0.3168  0.1801 -0.1480
55556SOL    HW173526  10.893   6.685   6.898 -0.8397 -2.2166 -1.3276
55556SOL    HW273527  10.777   6.780   6.873  0.8352  0.1903 -0.4078
55557SOL     OW73528  11.507   2.932   2.912  0.2781 -0.1073 -0.0364
55557SOL    HW173529  11.475   2.951   2.823 -2.3732 -0.9364  0.6603
55557SOL    HW273530  11.503   3.017   2.956  0.2755  0.0424 -0.3164
55558SOL     OW73531   0.911   9.192   4.315 -0.3669 -0.6032  0.0537
55558SOL    HW173532   0.844   9.256   4.338 -0.4509 -0.6293 -0.1158
55558SOL    HW273533   0.887   9.163   4.227  1.1216  1.0579 -0.9697
55559SOL     OW73534   2.460   3.782   1.999 -0.3124  0.4080 -0.2721
55559SOL    HW173535   2.525   3.783   1.928 -0.0982  0.2898 -0.0794
55559SOL    HW273536   2.500   3.834   2.069  0.0608 -0.5775  0.2691
55560SOL     OW73537   4.752   5.964   6.385  0.2775  0.6471 -0.7827
55560SOL    HW173538   4.670   5.992   6.425  0.8286  1.7564 -0.3818
55560SOL    HW273539   4.764   5.874   6.415 -2.1530 -0.5892 -3.0587
55561SOL     OW73540   1.384  11.313   9.537 -0.0673  0.3193 -0.1114
55561SOL    HW173541   1.385  11.259   9.616  0.8736  1.1809  0.4918
55561SOL    HW273542   1.294  11.344   9.530 -0.2963 -0.2444  0.2866
55562SOL     OW73543   1.368   1.311   4.818  0.3142  0.4113 -0.3392
55562SOL    HW173544   1.299   1.359   4.773 -1.1591  0.3856  1.7271
55562SOL    HW273545   1.365   1.223   4.781 -3.0965 -0.5645  1.8803
55563SOL     OW73546   9.744   9.721  10.440 -0.5132 -0.0963 -0.4766
55563SOL    HW173547   9.767   9.814  10.436 -1.4805  0.1577 -0.3843
55563SOL    HW273548   9.821   9.676  10.407  0.2192  0.7026  0.0852
55564SOL     OW73549   2.264   4.052   6.423  0.0994  0.4086 -0.3272
55564SOL    HW173550   2.275   3.963   6.457  0.2361  0.4184 -0.3446
55564SOL    HW273551   2.351   4.077   6.394  0.3134  0.9978  0.7655
55565SOL     OW73552   2.094  10.541   1.491 -0.1979 -0.1801  0.3670
55565SOL    HW173553   2.151  10.565   1.565  1.3163 -0.8432 -0.5356
55565SOL    HW273554   2.009  10.526   1.531  0.4157  0.1443  1.8887
55566SOL     OW73555   7.074   0.970   0.353 -0.5021 -0.0126 -0.2805
55566SOL    HW173556   7.118   1.051   0.328  0.0332  0.0001  0.6704
55566SOL    HW273557   7.074   0.971   0.449 -1.7532 -0.4605 -0.2629
55567SOL     OW73558   1.239  10.373   2.725  0.0486 -0.0452 -0.1980
55567SOL    HW173559   1.228  10.278   2.731 -0.1729 -0.0319 -0.3964
55567SOL    HW273560   1.298  10.385   2.650 -1.1572  0.0512 -1.1564
55568SOL     OW73561   9.877   3.836  10.923  0.3539  0.1008  0.5092
55568SOL    HW173562   9.807   3.857  10.861  0.5588  2.2217  0.9226
55568SOL    HW273563   9.831   3.823  11.007  0.3741  0.6480  0.6069
55569SOL     OW73564   9.323   5.707   7.486  0.0326  0.6935 -0.0521
55569SOL    HW173565   9.250   5.745   7.435  0.4751  0.2638 -1.0376
55569SOL    HW273566   9.374   5.783   7.513 -0.0969  0.9268 -0.4421
55570SOL     OW73567   5.942   0.751   5.592  0.4249 -0.3900  0.2521
55570SOL    HW173568   5.993   0.675   5.565 -1.0197 -0.8413 -1.4049
55570SOL    HW273569   6.006   0.821   5.604  1.5253 -1.1939 -0.7377
55571SOL     OW73570   1.192   4.188   2.772 -0.1564 -0.2098  0.1769
55571SOL    HW173571   1.243   4.142   2.705 -0.6411 -1.1199  0.4303
55571SOL    HW273572   1.259   4.231   2.826  0.2600  0.1066 -0.5615
55572SOL     OW73573  10.040   7.519   8.971  0.3159 -0.9260 -0.2374
55572SOL    HW173574  10.110   7.499   8.909 -0.1910 -2.4584 -0.3691
55572SOL    HW273575  10.014   7.433   9.006 -0.9980 -0.3235  0.3347
55573SOL     OW73576   0.459   1.157   0.952  0.5848 -0.1726 -0.7381
55573SOL    HW173577   0.366   1.142   0.967  0.4968  0.3386 -0.7522
55573SOL    HW273578   0.463   1.191   0.862  0.7556  0.0475 -0.6482
55574SOL     OW73579   0.026   4.815   5.644 -0.1002 -0.6115 -0.0199
55574SOL    HW173580  -0.008   4.822   5.554  1.4011 -1.1369 -0.6657
55574SOL    HW273581  -0.030   4.749   5.685 -0.2439 -1.0387 -0.8634
55575SOL     OW73582   5.025   7.957   0.016 -0.5307  0.9251  0.3448
55575SOL    HW173583   5.097   7.897  -0.001 -1.5907 -0.6013  0.9501
55575SOL    HW273584   4.950   7.918  -0.029 -1.2080  1.9253  0.5709
55576SOL     OW73585  11.399   9.469   7.944  0.5185 -0.4533 -0.5845
55576SOL    HW173586  11.349   9.443   8.022  1.3877 -0.7595 -0.1172
55576SOL    HW273587  11.482   9.423   7.953  0.8546 -0.0128 -1.3967
55577SOL     OW73588   5.454   7.671   4.137  0.4523 -0.6013 -0.3821
55577SOL    HW173589   5.405   7.726   4.075 -0.4812 -0.5303  0.3904
55577SOL    HW273590   5.475   7.592   4.087 -0.6138 -0.7080 -0.6890
55578SOL     OW73591   4.856  10.389  11.520 -1.1119 -0.5023  0.0741
55578SOL    HW173592   4.878  10.353  11.606  1.2876 -1.7604 -0.9620
55578SOL    HW273593   4.906  10.335  11.458 -0.8921  1.8544 -1.9389
55579SOL     OW73594   3.279   9.056   1.713  0.0881  0.0228  0.1165
55579SOL    HW173595   3.326   9.028   1.634  1.4837  1.5270  0.3700
55579SOL    HW273596   3.320   9.005   1.783  0.0894  0.0203  0.1140
55580SOL     OW73597  12.373  10.417  11.916  0.5042 -0.4756 -0.0967
55580SOL    HW173598  12.336  10.387  11.999  1.3851  0.3872  0.6480
55580SOL    HW273599  12.371  10.341  11.859 -1.0456 -0.8245  0.3746
55581SOL     OW73600  11.484   2.242   9.245  0.1600 -0.3122 -0.4008
55581SOL    HW173601  11.554   2.215   9.185 -0.2192 -3.2326  0.3061
55581SOL    HW273602  11.415   2.177   9.231 -1.1999  0.7640  1.0240
55582SOL     OW73603  10.755   7.501   4.869 -0.2966 -0.6984 -0.2172
55582SOL    HW173604  10.847   7.529   4.872 -0.9452  1.7252 -0.5765
55582SOL    HW273605  10.746   7.460   4.783  0.0187  1.0307 -1.1374
55583SOL     OW73606   0.565   6.208  10.850 -0.5961 -0.3017 -0.1464
55583SOL    HW173607   0.636   6.166  10.898 -0.8119 -0.2243  0.2447
55583SOL    HW273608   0.563   6.298  10.884 -0.6953 -0.2229 -0.3583
55584SOL     OW73609  10.740   0.383   9.540  0.1496  0.4683  0.3369
55584SOL    HW173610  10.733   0.398   9.446  0.3131  1.5768  0.4929
55584SOL    HW273611  10.655   0.409   9.575  0.4725  1.1608  0.6264
55585SOL     OW73612   7.384  10.821   4.213  0.1202 -0.2014  0.6194
55585SOL    HW173613   7.347  10.870   4.140  1.2829  1.3948  1.0434
55585SOL    HW273614   7.466  10.785   4.179  0.3804  0.0624  0.9524
55586SOL     OW73615   8.063  12.292   2.858 -0.1320  0.2064 -0.3457
55586SOL    HW173616   8.063  12.379   2.899  0.7217  0.7785 -1.5001
55586SOL    HW273617   8.127  12.242   2.909  0.4793  0.7259 -0.5862
55587SOL     OW73618   6.173   9.808   1.052  0.2514 -0.9985  0.0646
55587SOL    HW173619   6.146   9.896   1.024  1.2946 -1.2963 -2.1102
55587SOL    HW273620   6.235   9.824   1.124 -0.2506 -0.0187  0.3021
55588SOL     OW73621   9.529   2.869   2.547 -0.3048 -0.0049  0.2847
55588SOL    HW173622   9.520   2.865   2.452 -1.0627 -1.5139  0.3739
55588SOL    HW273623   9.458   2.814   2.579  0.7410 -0.6062  1.6746
55589SOL     OW73624   6.234   5.688   6.492  0.4508 -0.0179 -0.2595
55589SOL    HW173625   6.249   5.782   6.503  1.1822  0.2975 -3.0134
55589SOL    HW273626   6.205   5.680   6.401 -1.7351 -2.2733  0.5403
55590SOL     OW73627  12.245   7.893   1.973 -0.4642  0.4475  0.4192
55590SOL    HW173628  12.296   7.947   1.912 -0.3311 -0.3343 -0.1767
55590SOL    HW273629  12.308   7.862   2.037 -0.2229 -0.3620 -0.2064
55591SOL     OW73630   4.910   8.341   7.437  0.1075  0.2051  0.5665
55591SOL    HW173631   4.904   8.253   7.400  2.0394 -0.5329  1.8531
55591SOL    HW273632   4.963   8.390   7.375 -2.9988  1.3307 -1.4566
55592SOL     OW73633   7.326   3.271   8.005 -0.4331 -0.6535  0.2509
55592SOL    HW173634   7.335   3.362   8.036 -2.0325 -0.5046  0.3617
55592SOL    HW273635   7.414   3.247   7.978  0.0803  0.8545  0.4436
55593SOL     OW73636   4.549  11.156  11.854  0.3276 -0.0373 -0.0981
55593SOL    HW173637   4.479  11.138  11.791 -0.5122  1.1392  0.4509
55593SOL    HW273638   4.528  11.243  11.888  1.6674  0.0298  0.6201
55594SOL     OW73639   9.464   3.484   2.210  0.3636 -0.5620  0.4680
55594SOL    HW173640   9.376   3.448   2.220  0.2697 -0.9397 -1.3373
55594SOL    HW273641   9.497   3.442   2.130  1.4312  1.0360  0.0374
55595SOL     OW73642   6.681   4.938  11.049 -0.1618  0.6266 -0.0648
55595SOL    HW173643   6.728   5.022  11.053 -0.8615  1.0093  0.3121
55595SOL    HW273644   6.722   4.885  11.118 -0.5958  1.1320  0.5995
55596SOL     OW73645   3.634   7.972   1.778 -0.5947  0.0900  0.6375
55596SOL    HW173646   3.592   8.057   1.765 -1.1687 -0.3372 -0.4535
55596SOL    HW273647   3.698   7.966   1.707 -0.1471 -0.1476  1.0540
55597SOL     OW73648   3.903  10.836   9.014 -0.1884  0.1972 -0.2882
55597SOL    HW173649   3.864  10.787   9.086 -0.8945 -0.4980 -1.1186
55597SOL    HW273650   3.860  10.921   9.016 -1.1436 -0.2592 -0.6497
55598SOL     OW73651  11.492   7.981   6.060  0.0019 -0.3933 -0.0571
55598SOL    HW173652  11.540   7.910   6.017  0.8029  0.5968 -0.8582
55598SOL    HW273653  11.400   7.957   6.049  0.2578 -1.3269 -0.2822
55599SOL     OW73654  11.323   4.777  10.832  0.7019 -0.0748  0.4190
55599SOL    HW173655  11.310   4.735  10.917  0.0457 -0.7724 -0.0213
55599SOL    HW273656  11.359   4.708  10.776 -1.3860 -0.3902 -0.6047
55600SOL     OW73657   2.502  11.694   1.464  0.2888 -0.2349 -0.1795
55600SOL    HW173658   2.427  11.748   1.490  0.6110 -0.1115  0.5010
55600SOL    HW273659   2.463  11.616   1.424 -0.2035 -0.1201  0.0740
55601SOL     OW73660   3.277   8.349  10.066 -0.2323  0.2223  0.3136
55601SOL    HW173661   3.292   8.254  10.063  1.3078  0.2966  2.8700
55601SOL    HW273662   3.321   8.382   9.987 -1.2868 -1.1872 -0.9331
55602SOL     OW73663   8.656   5.395   6.506  0.6982  0.4948 -0.4506
55602SOL    HW173664   8.681   5.418   6.595 -0.3419  2.3475 -0.5850
55602SOL    HW273665   8.560   5.403   6.505  0.5309 -1.1814 -1.3141
55603SOL     OW73666  11.867   3.077   8.528  0.3842  0.2269 -0.0352
55603SOL    HW173667  11.960   3.093   8.512  0.4502 -0.3670 -0.2484
55603SOL    HW273668  11.846   3.135   8.602  1.2451 -0.6234  0.9066
55604SOL     OW73669   6.451  10.826   6.452 -0.1426  0.2820 -0.0768
55604SOL    HW173670   6.406  10.753   6.496  0.7156  0.7726  1.7304
55604SOL    HW273671   6.387  10.897   6.452 -0.7402 -0.2231 -1.2197
55605SOL     OW73672   5.366   8.857   1.723  0.0910  0.0474  0.0462
55605SOL    HW173673   5.458   8.882   1.714  0.1866 -0.0945  0.5531
55605SOL    HW273674   5.330   8.921   1.784  0.1485 -0.5704  0.7516
55606SOL     OW73675   1.362   1.717   3.170  0.2232 -0.0473  0.3474
55606SOL    HW173676   1.292   1.655   3.150  0.1702  0.6490 -1.8166
55606SOL    HW273677   1.422   1.710   3.095  1.2993  1.0106  1.0776
55607SOL     OW73678   7.409   9.437   9.973  0.2871 -0.2645  0.6225
55607SOL    HW173679   7.395   9.382  10.050  0.3013  1.1200  1.6666
55607SOL    HW273680   7.430   9.376   9.903 -0.4873 -1.6225  1.5329
55608SOL     OW73681   1.270  10.787  11.366  0.3696  0.3494  0.2009
55608SOL    HW173682   1.239  10.744  11.286  2.2893 -0.2521 -0.2760
55608SOL    HW273683   1.265  10.881  11.346  0.9743  0.2050 -0.7205
55609SOL     OW73684   8.820   6.468   1.175  1.1466  0.2421 -0.5701
55609SOL    HW173685   8.788   6.495   1.089 -0.2052  0.9005  0.1084
55609SOL    HW273686   8.847   6.549   1.218  1.3965 -0.0275 -0.2127
55610SOL     OW73687   6.316   2.653  11.029 -0.0507  0.2649  0.4629
55610SOL    HW173688   6.272   2.739  11.024  0.7665  0.7076  0.7106
55610SOL    HW273689   6.342   2.635  10.939 -2.1628 -0.7885 -0.0017
55611SOL     OW73690   0.064   9.398  10.489 -0.1948 -0.0398 -0.2885
55611SOL    HW173691   0.116   9.463  10.442 -1.3864  0.8539 -0.4274
55611SOL    HW273692   0.041   9.440  10.572  1.1078 -1.2537  0.7409
55612SOL     OW73693   9.306   7.589   6.052  0.4157  0.0446 -0.3705
55612SOL    HW173694   9.304   7.634   5.967  0.7292 -0.1156 -0.4665
55612SOL    HW273695   9.375   7.634   6.101  0.9378 -0.5194 -0.5771
55613SOL     OW73696   2.639   9.412   5.513 -0.5689  0.6533 -0.3071
55613SOL    HW173697   2.711   9.445   5.460 -1.5219  0.0957 -2.0457
55613SOL    HW273698   2.680   9.384   5.595  0.9811  1.4450 -0.7672
55614SOL     OW73699  11.301   4.682  11.332  0.3373 -0.4902  0.4800
55614SOL    HW173700  11.382   4.662  11.378 -0.6561  0.1976  2.7184
55614SOL    HW273701  11.234   4.633  11.380 -0.6156 -0.9262 -1.2142
55615SOL     OW73702  10.298   1.853   2.262  0.1634  1.0880 -0.8030
55615SOL    HW173703  10.337   1.903   2.190  1.8627  1.1077  0.0603
55615SOL    HW273704  10.351   1.877   2.338  1.7633 -2.6640 -0.4789
55616SOL     OW73705   0.280   4.516   3.263 -0.4998 -0.0911  0.4049
55616SOL    HW173706   0.203   4.536   3.315 -1.8200 -1.6976 -0.8131
55616SOL    HW273707   0.301   4.598   3.218 -2.4608  0.0143 -0.4056
55617SOL     OW73708   4.183  11.692   8.144 -0.6241  0.4004  0.0629
55617SOL    HW173709   4.205  11.711   8.053 -1.1484  0.8256  0.0155
55617SOL    HW273710   4.172  11.778   8.185 -0.2789  0.2114  0.5557
55618SOL     OW73711  10.330   4.220   6.453  0.2154  0.3207  0.5052
55618SOL    HW173712  10.385   4.289   6.418 -1.3446  0.4453 -1.9816
55618SOL    HW273713  10.258   4.213   6.390 -1.4762 -1.2481  2.4748
55619SOL     OW73714   3.153   9.295   6.920  0.2715  0.7617 -0.6659
55619SOL    HW173715   3.140   9.261   6.832  0.4891  1.5609 -1.0215
55619SOL    HW273716   3.092   9.369   6.927 -0.8919 -0.2632  0.4332
55620SOL     OW73717  10.449   3.556   2.270  0.3805 -0.0390  0.0391
55620SOL    HW173718  10.486   3.541   2.357 -2.0750 -2.6044  0.8012
55620SOL    HW273719  10.394   3.480   2.254 -0.3791  1.0244 -3.2064
55621SOL     OW73720   5.037  11.493   2.528 -0.0532 -0.4269  0.1733
55621SOL    HW173721   4.976  11.497   2.455 -0.9003  0.1367  0.8985
55621SOL    HW273722   4.997  11.434   2.591  0.3103 -0.3257  0.5083
55622SOL     OW73723   2.472   6.346   1.562 -0.5288 -0.2957  0.2537
55622SOL    HW173724   2.480   6.254   1.588 -1.5522 -0.5266 -0.1755
55622SOL    HW273725   2.386   6.351   1.520  0.5040  0.3170 -1.9302
55623SOL     OW73726   2.584  11.346   6.235 -0.4843  0.5609 -0.3871
55623SOL    HW173727   2.502  11.365   6.279 -0.1024 -1.0334  1.1365
55623SOL    HW273728   2.642  11.419   6.257 -1.0540  0.9834 -0.2927
55624SOL     OW73729   4.101   0.473   9.909  0.0041  0.5880 -0.3761
55624SOL    HW173730   4.188   0.507   9.888 -0.4565  1.3655 -1.1104
55624SOL    HW273731   4.044   0.550   9.909 -0.5005  0.2532  1.2148
55625SOL     OW73732   7.842   8.301   0.236  0.1384  0.5651  0.2078
55625SOL    HW173733   7.817   8.252   0.314 -1.7899  1.3723  0.1718
55625SOL    HW273734   7.852   8.391   0.266  1.3141  0.5593 -0.1398
55626SOL     OW73735   9.221   9.810   0.700  0.7816 -0.5475 -0.6605
55626SOL    HW173736   9.286   9.792   0.632  0.2512  0.4061 -1.4464
55626SOL    HW273737   9.138   9.817   0.653  0.4278  0.3013  0.0621
55627SOL     OW73738   1.509   7.168   5.798 -0.6894 -0.0676  0.3637
55627SOL    HW173739   1.571   7.241   5.804 -0.4717 -0.2378  0.2186
55627SOL    HW273740   1.562   7.091   5.819 -1.1922 -0.0590  1.7757
55628SOL     OW73741   1.743   5.932  10.787 -0.3012  0.1236 -0.2862
55628SOL    HW173742   1.656   5.904  10.758  0.0526  0.7449 -2.0773
55628SOL    HW273743   1.748   6.025  10.761  0.8862  0.0945 -0.2086
55629SOL     OW73744   0.109  11.041   3.660  0.2281  0.1745 -0.1407
55629SOL    HW173745   0.118  10.947   3.643 -2.2985 -0.4738  1.4716
55629SOL    HW273746   0.107  11.082   3.573  1.1912 -1.2644 -0.8734
55630SOL     OW73747   9.074   9.759   8.254  0.4525  0.0559 -0.3641
55630SOL    HW173748   8.979   9.747   8.249  0.4727 -0.0835 -0.4179
55630SOL    HW273749   9.094   9.754   8.347  0.3597  0.4403 -0.3219
55631SOL     OW73750   1.536  11.990   1.001 -0.2189  0.1079 -0.4065
55631SOL    HW173751   1.533  12.019   0.910 -0.8455 -0.1438 -0.4720
55631SOL    HW273752   1.619  12.024   1.034  0.7469 -1.0822 -1.4928
55632SOL     OW73753   0.854   8.869  11.059 -0.2526  0.5194 -0.3049
55632SOL    HW173754   0.934   8.906  11.096 -0.7283  0.2224  1.0896
55632SOL    HW273755   0.812   8.825  11.133 -1.7880  0.8047 -0.9699
55633SOL     OW73756   4.536   4.925  10.931 -0.2677 -0.3801 -0.0385
55633SOL    HW173757   4.558   4.952  10.842  0.6270  2.0243  0.8419
55633SOL    HW273758   4.452   4.967  10.949 -1.7332 -2.9080 -0.5469
55634SOL     OW73759  11.065   6.856   5.847  0.1610 -0.3028 -0.0602
55634SOL    HW173760  11.114   6.777   5.826 -3.0028 -2.2642 -0.7566
55634SOL    HW273761  11.063   6.858   5.943  0.6230 -0.8544 -0.0337
55635SOL     OW73762   7.002   6.589   8.865  0.5808  0.5257 -0.0838
55635SOL    HW173763   7.067   6.528   8.830 -0.4622 -0.6060 -0.1487
55635SOL    HW273764   7.051   6.668   8.887  1.5838  0.6284 -2.4103
55636SOL     OW73765   4.223   7.093   5.606 -0.1781  0.1782  0.0996
55636SOL    HW173766   4.140   7.121   5.644  1.6263  0.0525  4.6625
55636SOL    HW273767   4.246   7.165   5.546 -3.0008  0.6422 -0.6185
55637SOL     OW73768   8.649   4.562   2.638  0.8453 -0.3369 -0.0196
55637SOL    HW173769   8.595   4.639   2.653  2.1981  0.6347  0.1039
55637SOL    HW273770   8.588   4.494   2.608 -0.8092 -0.0702  2.4841
55638SOL     OW73771   0.692   8.576   7.956 -0.0346 -0.2281 -0.0564
55638SOL    HW173772   0.784   8.603   7.966 -0.2661  0.1142  1.3363
55638SOL    HW273773   0.649   8.652   7.917  0.3320 -0.5255 -1.0773
55639SOL     OW73774   4.085   7.445   7.595  0.1490 -0.4888 -0.1521
55639SOL    HW173775   3.994   7.419   7.606 -0.0271 -0.4387 -1.3338
55639SOL    HW273776   4.136   7.368   7.618 -0.2042 -0.6234  0.1788
55640SOL     OW73777   6.602   3.788   5.954 -0.2414  0.8179  0.2872
55640SOL    HW173778   6.642   3.872   5.931  0.1903  0.2998 -0.9611
55640SOL    HW273779   6.614   3.781   6.049  0.8871  1.5737  0.2247
55641SOL     OW73780  10.305   2.749   5.242 -0.5690 -0.2296  0.4431
55641SOL    HW173781  10.265   2.768   5.327 -1.7575  2.0941 -0.5537
55641SOL    HW273782  10.231   2.737   5.182  0.2471 -1.1299 -0.4357
55642SOL     OW73783   5.592   6.749  10.397 -0.3704 -0.2400 -0.2868
55642SOL    HW173784   5.527   6.808  10.359 -0.9923  0.2684  1.4305
55642SOL    HW273785   5.554   6.724  10.482  1.8272  0.3943  0.9794
55643SOL     OW73786   4.457   2.111   1.591  0.0776  0.4091  0.1055
55643SOL    HW173787   4.398   2.035   1.599 -4.1672  3.4506  1.1257
55643SOL    HW273788   4.476   2.136   1.681  0.4347  1.2716 -0.2065
55644SOL     OW73789   9.806  11.641   0.887 -0.4633  0.1193 -0.1365
55644SOL    HW173790   9.769  11.555   0.866 -1.1569  0.3033  0.3010
55644SOL    HW273791   9.742  11.681   0.945 -0.6455  1.3467 -1.1339
55645SOL     OW73792   0.954   2.140   7.906 -0.2702  0.6439  0.6661
55645SOL    HW173793   0.895   2.187   7.847 -1.2184 -3.1046 -1.7502
55645SOL    HW273794   1.039   2.181   7.891 -1.2150  2.3368 -0.3725
55646SOL     OW73795   9.696   2.509   6.974 -0.3602 -0.1817 -0.2220
55646SOL    HW173796   9.755   2.476   6.906  2.4841  2.4614  0.7708
55646SOL    HW273797   9.691   2.437   7.037  0.7992 -0.9419 -0.9416
55647SOL     OW73798   6.781   4.442   4.188  0.3149 -0.4977  0.0739
55647SOL    HW173799   6.773   4.431   4.094 -1.7282  0.2932  0.1032
55647SOL    HW273800   6.863   4.490   4.200  1.4249 -2.0143 -1.1372
55648SOL     OW73801  11.926   5.024  10.935 -0.5372  0.4642 -0.7405
55648SOL    HW173802  11.981   5.081  10.882 -0.2756 -0.4405 -1.4718
55648SOL    HW273803  11.836   5.047  10.909 -0.5083  1.5725  0.0728
55649SOL     OW73804   5.705   2.772   5.470  0.0057  0.2045  0.1591
55649SOL    HW173805   5.767   2.741   5.535 -0.4502 -0.8409  0.1147
55649SOL    HW273806   5.737   2.736   5.387 -0.1769  0.3894  0.0057
55650SOL     OW73807   7.346   8.840  11.124  0.2830 -0.6647  0.2041
55650SOL    HW173808   7.422   8.785  11.107 -0.4859 -2.1121  1.2529
55650SOL    HW273809   7.383   8.923  11.156  1.4156 -1.1784  0.2586
55651SOL     OW73810   5.754  11.077   4.353 -0.4020 -0.7070 -0.1045
55651SOL    HW173811   5.779  11.046   4.266  2.3195 -2.2909  1.1329
55651SOL    HW273812   5.734  10.997   4.402 -0.4592  0.0434  1.1422
55652SOL     OW73813   6.193   3.011  11.870 -0.1490  0.2726  1.2484
55652SOL    HW173814   6.192   3.099  11.909 -1.3261  0.2577  1.2785
55652SOL    HW273815   6.179   3.027  11.777 -0.3564  0.1194  1.2532
55653SOL     OW73816   4.147   8.694  10.739 -0.4709 -0.3219  0.1594
55653SOL    HW173817   4.148   8.732  10.651  1.4670 -0.0085  0.2684
55653SOL    HW273818   4.102   8.759  10.793  0.5209  0.6577 -0.1572
55654SOL     OW73819   6.461   0.618   3.675 -0.2135  0.2479 -0.4427
55654SOL    HW173820   6.402   0.543   3.669  0.5120 -0.5791  1.8909
55654SOL    HW273821   6.408   0.691   3.643 -1.3620 -1.0182 -1.5776
55655SOL     OW73822   5.600   6.155   8.449 -0.2610  0.0815 -0.3766
55655SOL    HW173823   5.646   6.097   8.509  1.3940  2.0146  0.3786
55655SOL    HW273824   5.520   6.179   8.495 -0.4334 -0.7584 -0.2364
55656SOL     OW73825   5.356   5.155  11.760 -0.8199 -0.0653 -0.1572
55656SOL    HW173826   5.416   5.187  11.827 -0.2753 -0.1096 -0.6220
55656SOL    HW273827   5.377   5.062  11.751  0.4980  0.3309 -1.7906
55657SOL     OW73828   8.633   3.165   2.874 -0.5437 -0.0707 -0.2944
55657SOL    HW173829   8.727   3.142   2.875 -0.8177 -1.2915 -0.5038
55657SOL    HW273830   8.632   3.260   2.880  0.7238 -0.0142 -0.5480
55658SOL     OW73831   3.441   4.574   0.284  0.3628  0.1476 -0.0891
55658SOL    HW173832   3.515   4.565   0.344  2.4488 -0.6181 -2.6113
55658SOL    HW273833   3.408   4.484   0.273  0.7990  0.0860 -0.9912
55659SOL     OW73834   5.188   8.410   6.396 -0.3757 -0.2181  0.2029
55659SOL    HW173835   5.135   8.343   6.438 -1.4625  0.9352  0.7335
55659SOL    HW273836   5.269   8.411   6.448 -0.5636 -0.7406  0.5200
55660SOL     OW73837   5.001  11.833   6.422 -0.1338  0.7258 -0.0612
55660SOL    HW173838   4.923  11.888   6.431 -0.0603  0.7461  0.5164
55660SOL    HW273839   4.971  11.758   6.371 -0.0053  1.7276 -1.6767
55661SOL     OW73840   6.382   7.798   7.833 -0.2871  0.4760  0.4706
55661SOL    HW173841   6.379   7.814   7.927  2.9181 -0.6617  0.9069
55661SOL    HW273842   6.462   7.842   7.804 -0.8996  0.3145 -1.6253
55662SOL     OW73843  10.243  10.795   9.230  0.1939 -0.2090 -0.0735
55662SOL    HW173844  10.202  10.714   9.263  0.0434 -0.6134 -1.1927
55662SOL    HW273845  10.331  10.768   9.204 -0.0464 -0.1765 -0.9901
55663SOL     OW73846   6.780   7.547   8.196  0.1750  0.3933  0.6191
55663SOL    HW173847   6.734   7.571   8.276  0.5895  0.6963  0.7709
55663SOL    HW273848   6.823   7.627   8.168  1.3152 -0.0875  0.9537
55664SOL     OW73849   6.531   4.307   9.322  0.2352 -0.0883  0.3436
55664SOL    HW173850   6.539   4.324   9.228 -1.1764  0.2894  0.2746
55664SOL    HW273851   6.447   4.263   9.331 -0.7244  1.8758  1.6620
55665SOL     OW73852   9.410   5.036   6.436  0.0468 -0.4043  0.1646
55665SOL    HW173853   9.493   4.989   6.423  0.1023 -0.1768 -0.2966
55665SOL    HW273854   9.356   4.975   6.487  0.1849 -0.8991 -0.2746
55666SOL     OW73855   4.639  12.472   9.108  0.2898 -0.1011 -0.2551
55666SOL    HW173856   4.559  12.433   9.143  0.0226  1.3301  0.8362
55666SOL    HW273857   4.627  12.470   9.013 -1.6863  1.2556 -0.0967
55667SOL     OW73858   1.607   1.020   7.522  1.0261 -0.6936  0.1025
55667SOL    HW173859   1.595   1.063   7.606 -2.7102 -1.5936  0.2014
55667SOL    HW273860   1.659   0.942   7.542  3.5833  1.0811  0.7635
55668SOL     OW73861  11.784   6.631   1.196  0.4729  0.1097  0.0511
55668SOL    HW173862  11.837   6.595   1.125 -0.0379 -1.2136  0.3044
55668SOL    HW273863  11.706   6.575   1.197  0.2824  0.3855  1.3654
55669SOL     OW73864   8.851   8.761   8.282 -0.4504 -0.2960  0.1861
55669SOL    HW173865   8.936   8.724   8.305 -0.4764  0.2637  1.2494
55669SOL    HW273866   8.831   8.723   8.197  1.6566  0.9353 -0.9180
55670SOL     OW73867   0.380   5.675   2.083  0.2005 -0.2961 -0.1047
55670SOL    HW173868   0.427   5.682   2.166 -1.6526 -2.5447  1.2549
55670SOL    HW273869   0.289   5.694   2.105 -0.2282 -0.3302 -1.7428
55671SOL     OW73870   1.306   2.985   1.440 -0.0480 -0.0983  0.5662
55671SOL    HW173871   1.254   2.944   1.508  1.1769 -1.8053  0.5226
55671SOL    HW273872   1.334   3.068   1.478 -0.2384 -0.5582  1.7477
55672SOL     OW73873   4.314  12.468   7.090  0.2431 -0.0568 -0.1124
55672SOL    HW173874   4.397  12.493   7.049  0.7514 -1.1546  0.2025
55672SOL    HW273875   4.277  12.402   7.031  0.5145 -0.9402  0.6779
55673SOL     OW73876   5.003   1.883   3.365 -0.6516 -0.7160  0.2354
55673SOL    HW173877   5.060   1.959   3.375  0.8330 -1.7853  0.2780
55673SOL    HW273878   4.914   1.919   3.362 -0.0724  0.9105  1.4256
55674SOL     OW73879  10.490   8.815   5.767 -0.5457  0.0280 -0.1103
55674SOL    HW173880  10.399   8.820   5.738 -0.1968 -1.0224 -1.5060
55674SOL    HW273881  10.542   8.828   5.687  0.5727  1.6111  0.8128
55675SOL     OW73882   1.276  10.057   4.738  0.0856 -0.4007 -0.0138
55675SOL    HW173883   1.342  10.018   4.794 -0.7112  0.3311  1.5053
55675SOL    HW273884   1.310  10.047   4.649  1.0648 -2.2178  0.5252
55676SOL     OW73885   6.962  12.574   4.604  0.2492 -0.2893 -0.2245
55676SOL    HW173886   6.994  12.489   4.634  0.5395 -0.0600  0.1235
55676SOL    HW273887   6.868  12.561   4.590 -0.4110  0.1884  3.0199
55677SOL     OW73888   9.281   2.923   4.040 -0.4095  0.0465  0.4194
55677SOL    HW173889   9.203   2.897   3.991 -0.3400 -0.3824  0.5338
55677SOL    HW273890   9.320   2.841   4.069  1.5773  0.0630 -1.9093
55678SOL     OW73891   0.914   4.956   4.804  0.3269  0.6172  0.2814
55678SOL    HW173892   0.825   4.958   4.839  0.2818  2.3508  0.1789
55678SOL    HW273893   0.970   4.944   4.881  0.0136 -1.1197  0.2779
55679SOL     OW73894   1.592   1.569   5.677  0.3169 -0.4958  0.3789
55679SOL    HW173895   1.507   1.607   5.697  0.0834 -1.0078  0.3718
55679SOL    HW273896   1.590   1.554   5.583  0.7926  0.3976  0.2174
55680SOL     OW73897   8.209   8.439   3.103 -0.0344  0.0971 -0.3841
55680SOL    HW173898   8.264   8.493   3.159 -2.6655  1.8871  0.6914
55680SOL    HW273899   8.250   8.352   3.104  1.9090  0.9647  1.4704
55681SOL     OW73900   4.966   2.123   8.884  0.0724  0.3180  0.5661
55681SOL    HW173901   4.887   2.116   8.937 -0.3870  0.2923 -0.1110
55681SOL    HW273902   4.939   2.173   8.807  0.2776 -1.1157 -0.4855
55682SOL     OW73903   7.623   0.280   1.023  0.2125 -0.4652  0.4482
55682SOL    HW173904   7.674   0.199   1.018  1.3915  0.1910  1.2316
55682SOL    HW273905   7.686   0.346   1.054 -0.3474  1.0717 -1.5156
55683SOL     OW73906   8.466   9.968   1.847  0.2867  0.1583 -0.1890
55683SOL    HW173907   8.530   9.906   1.812 -0.6809 -0.5708 -0.7156
55683SOL    HW273908   8.519  10.035   1.890  1.4128 -0.2856 -0.8296
55684SOL     OW73909   0.424   8.933   4.357 -0.6294  0.0950  0.3195
55684SOL    HW173910   0.435   8.956   4.450 -0.0828  2.6241 -0.3084
55684SOL    HW273911   0.329   8.921   4.347 -0.7409  0.2402  1.1030
55685SOL     OW73912   5.118   4.334   8.872  0.0490 -0.7705  0.3034
55685SOL    HW173913   5.142   4.262   8.813  0.9709 -0.3569  0.1579
55685SOL    HW273914   5.059   4.388   8.821  2.0837  0.4697 -0.8874
55686SOL     OW73915   3.984   4.529  10.197 -0.1497  0.3967 -0.7760
55686SOL    HW173916   3.959   4.449  10.150  0.2502 -0.4880  0.4708
55686SOL    HW273917   3.904   4.558  10.241  0.0815 -0.2663  0.1057
55687SOL     OW73918  10.018   8.370   3.144 -0.2592  0.2163 -0.0280
55687SOL    HW173919   9.991   8.287   3.104  0.4673  0.1367 -0.3751
55687SOL    HW273920   9.950   8.432   3.118 -1.4482 -0.5147  1.2303
55688SOL     OW73921   3.030  11.240   9.812  0.0986  0.0188 -0.0368
55688SOL    HW173922   3.002  11.331   9.823 -1.5792 -0.5934  1.2076
55688SOL    HW273923   3.084  11.223   9.889  2.7256  0.7039 -1.6163
55689SOL     OW73924   4.813   7.120   9.387 -0.2150  0.0078  0.5865
55689SOL    HW173925   4.787   7.181   9.456 -0.6526 -0.7731  1.1281
55689SOL    HW273926   4.818   7.035   9.431  0.9257 -0.2681 -0.0349
55690SOL     OW73927   4.608   8.936   6.051  0.2950  0.1982  0.5297
55690SOL    HW173928   4.562   9.011   6.012 -0.0862  0.1160  0.8143
55690SOL    HW273929   4.606   8.869   5.983  1.6801  0.8340 -0.1756
55691SOL     OW73930   5.017   0.682   8.214 -0.5170  0.3751  0.1222
55691SOL    HW173931   5.059   0.699   8.298 -0.1243 -2.5698  0.6270
55691SOL    HW273932   5.071   0.730   8.151 -0.2553  1.8597  1.4168
55692SOL     OW73933  10.593   4.935   1.798  0.2579  0.2452  0.2241
55692SOL    HW173934  10.546   4.966   1.721  1.9302  0.8818 -0.5853
55692SOL    HW273935  10.590   5.008   1.859  0.6259  0.4865 -0.0401
55693SOL     OW73936   4.464   8.128  10.463 -0.4820  0.2528  0.2639
55693SOL    HW173937   4.499   8.076  10.535 -0.0274 -0.2434 -0.3020
55693SOL    HW273938   4.517   8.209  10.465 -1.5775  0.9774  1.5076
55694SOL     OW73939   2.854   5.486   9.144 -0.6536 -0.0554  0.1980
55694SOL    HW173940   2.893   5.399   9.143 -0.4962 -0.0653  2.4901
55694SOL    HW273941   2.768   5.474   9.184 -0.5643  0.8688  0.6958
55695SOL     OW73942   0.194   6.224   7.759  0.2294 -0.0327  0.1787
55695SOL    HW173943   0.222   6.202   7.670 -0.9506  0.0074 -0.2158
55695SOL    HW273944   0.243   6.303   7.781 -3.1110  3.0377 -2.4152
55696SOL     OW73945   6.281  10.065   5.476 -0.1814  0.0287  0.3141
55696SOL    HW173946   6.228   9.995   5.515 -0.4156 -1.5837 -2.6404
55696SOL    HW273947   6.221  10.139   5.471 -1.0575 -0.6552  0.3058
55697SOL     OW73948   9.767   7.050   1.752 -0.1838 -0.0248  0.3938
55697SOL    HW173949   9.763   6.978   1.816 -1.0722 -0.3465 -0.0040
55697SOL    HW273950   9.742   7.128   1.802  0.2495 -0.0757  0.6992
55698SOL     OW73951   3.602   2.114   4.549  0.1978  0.0528 -0.6853
55698SOL    HW173952   3.552   2.081   4.474  1.3987 -1.1277 -1.0145
55698SOL    HW273953   3.580   2.055   4.621 -1.1469  1.3343  0.0041
55699SOL     OW73954   0.948  10.194   9.573  0.6393  0.2376 -0.1968
55699SOL    HW173955   0.907  10.265   9.622  0.3911  0.3234 -0.5250
55699SOL    HW273956   1.008  10.153   9.636  0.3094  0.3307  0.1825
55700SOL     OW73957   9.830   8.404   2.015 -0.2729 -0.0458  0.6981
55700SOL    HW173958   9.760   8.377   1.955 -1.3825  0.2936  1.8020
55700SOL    HW273959   9.795   8.387   2.102  0.7247  0.8558  1.2981
55701SOL     OW73960  11.655   9.262  11.164  0.6352  0.0879 -0.2398
55701SOL    HW173961  11.705   9.297  11.238 -2.3174 -0.7868  2.3614
55701SOL    HW273962  11.671   9.168  11.167 -0.1959 -0.0554 -0.1188
55702SOL     OW73963  12.323   4.019   5.097  0.4139  0.1895 -0.0357
55702SOL    HW173964  12.229   4.021   5.111  0.5948  1.8341  1.2039
55702SOL    HW273965  12.358   3.971   5.173  0.5218 -1.8531 -1.2796
55703SOL     OW73966   6.432   3.792   6.460 -0.4551 -0.8468 -0.2287
55703SOL    HW173967   6.417   3.886   6.454  1.2453 -0.2489  2.9343
55703SOL    HW273968   6.407   3.758   6.373 -1.8224  2.3483 -1.2260
55704SOL     OW73969  11.134   8.690  11.259 -0.0543 -0.1866  0.5236
55704SOL    HW173970  11.132   8.649  11.346  0.0115  1.4382  1.3213
55704SOL    HW273971  11.058   8.654  11.214  0.5903 -1.9928  0.7717
55705SOL     OW73972   1.882  12.038   5.306  0.1344 -0.5641 -0.8458
55705SOL    HW173973   1.977  12.042   5.313  0.1120 -0.7579 -0.3975
55705SOL    HW273974   1.856  11.972   5.370 -0.3865  0.2714 -0.1662
55706SOL     OW73975   8.836  10.383   7.457  0.6947  0.0192 -0.0098
55706SOL    HW173976   8.926  10.353   7.441  0.6062 -0.0859 -0.3110
55706SOL    HW273977   8.782  10.306   7.439  0.5662 -0.0211  0.5104
55707SOL     OW73978   4.452   4.628   2.135 -0.1271  0.1339 -0.1978
55707SOL    HW173979   4.402   4.701   2.172 -0.8147 -0.4550  0.0543
55707SOL    HW273980   4.544   4.653   2.147 -0.3583  1.0324 -0.2714
55708SOL     OW73981  10.017  12.457   8.109 -0.0593 -0.1389  0.0434
55708SOL    HW173982   9.961  12.515   8.056 -0.3364  0.2306  0.7301
55708SOL    HW273983  10.076  12.516   8.155  1.8971 -0.5918 -1.7282
55709SOL     OW73984   6.864   9.045   6.607 -0.4760  0.3323 -0.2739
55709SOL    HW173985   6.795   9.112   6.608 -0.5974  0.2118  1.0346
55709SOL    HW273986   6.943   9.093   6.582 -0.3637  1.2050  1.6183
55710SOL     OW73987   2.808   4.527   2.047 -0.1176 -0.0130  0.2200
55710SOL    HW173988   2.874   4.542   2.115  0.6922 -0.2803 -0.4840
55710SOL    HW273989   2.792   4.433   2.048  0.4503 -0.1312 -0.4313
55711SOL     OW73990   0.014   9.322   0.786  0.4668  0.2760 -0.2579
55711SOL    HW173991  -0.039   9.253   0.826  0.6229 -0.5939 -1.4726
55711SOL    HW273992  -0.028   9.404   0.812  0.8762 -0.1962  2.0911
55712SOL     OW73993   1.505  10.305   1.688 -0.6612 -0.4447  0.4488
55712SOL    HW173994   1.458  10.387   1.701  0.6674  0.6993 -1.3792
55712SOL    HW273995   1.592  10.321   1.726  0.8847  0.4587 -3.1029
55713SOL     OW73996   0.681   3.559  12.254 -0.6727 -0.3177 -0.8886
55713SOL    HW173997   0.682   3.483  12.195  1.4144 -0.6696 -0.4704
55713SOL    HW273998   0.636   3.627  12.204  0.3521 -0.8487 -2.6191
55714SOL     OW73999   9.981   3.259   2.661 -0.0365 -0.2792 -0.4321
55714SOL    HW174000   9.940   3.239   2.577 -1.2076  0.1429  0.0203
55714SOL    HW274001  10.052   3.319   2.640  0.6198 -1.3212 -1.2793
55715SOL     OW74002  10.347   4.474   4.705  0.1970  0.3037  0.1327
55715SOL    HW174003  10.292   4.552   4.717 -0.0809 -0.2497  3.1372
55715SOL    HW274004  10.431   4.509   4.677 -0.4016  1.5322 -0.2181
55716SOL     OW74005   4.192   8.118   3.445 -0.0985 -0.3457 -0.1906
55716SOL    HW174006   4.262   8.106   3.510  0.1874  0.2157 -0.3906
55716SOL    HW274007   4.224   8.187   3.387 -1.0149  0.2617 -0.0043
55717SOL     OW74008   5.528  11.319   7.902 -0.3308  0.3157  0.0583
55717SOL    HW174009   5.453  11.353   7.949 -0.2750  0.2241  0.2136
55717SOL    HW274010   5.603  11.367   7.937 -0.2418 -0.0255  0.3409
55718SOL     OW74011   1.204   6.295   6.742  0.4917 -0.4896 -0.1015
55718SOL    HW174012   1.209   6.372   6.685  1.2475 -0.4395  0.0249
55718SOL    HW274013   1.111   6.272   6.744  0.1169  0.9948  0.6205
55719SOL     OW74014   8.822   7.173   2.920 -0.0324  0.4079 -0.0875
55719SOL    HW174015   8.827   7.087   2.877 -0.7454  1.1636 -1.7776
55719SOL    HW274016   8.823   7.153   3.014 -2.4334 -1.6392 -0.3767
55720SOL     OW74017   0.996   0.331   2.543 -0.2610  0.4783  0.5932
55720SOL    HW174018   1.030   0.313   2.455 -1.8939  2.2620 -0.4893
55720SOL    HW274019   0.933   0.402   2.530 -2.3498 -0.8092  2.8502
55721SOL     OW74020   0.635   9.165   8.374 -1.1290  0.0971 -0.2855
55721SOL    HW174021   0.619   9.221   8.450  1.0238  2.1667 -1.2227
55721SOL    HW274022   0.709   9.110   8.399 -0.4224  0.7756 -0.8322
55722SOL     OW74023   8.298   9.952  10.538  0.3187  0.2421 -0.0577
55722SOL    HW174024   8.387   9.916  10.530 -0.0976 -1.0164  0.7300
55722SOL    HW274025   8.311  10.045  10.556  1.4491  0.3184 -1.1316
55723SOL     OW74026  12.209   1.620  12.543  0.2270  0.2646 -0.4209
55723SOL    HW174027  12.227   1.587  12.455 -0.3424  1.5503 -1.0447
55723SOL    HW274028  12.294   1.651  12.575  0.4148 -0.1069 -0.5533
55724SOL     OW74029   8.377   4.064  10.469 -0.0008  0.2535  0.0493
55724SOL    HW174030   8.376   3.986  10.413  0.5459  0.4032 -0.1807
55724SOL    HW274031   8.406   4.031  10.554  1.8327  0.4334 -0.4515
55725SOL     OW74032   7.787   5.405   1.016  0.1511  0.0305 -0.1668
55725SOL    HW174033   7.816   5.479   1.070  2.2770 -0.6600 -0.2625
55725SOL    HW274034   7.767   5.336   1.080 -1.5421  0.5360 -0.0947
55726SOL     OW74035   8.405   4.517   5.260 -0.1722  0.1468 -0.1395
55726SOL    HW174036   8.437   4.523   5.350 -0.4644 -0.3792 -0.0001
55726SOL    HW274037   8.313   4.495   5.268  0.5429 -3.6867 -0.5394
55727SOL     OW74038   5.587   9.779  10.344 -0.2697  0.2642 -0.2605
55727SOL    HW174039   5.620   9.701  10.388  0.0680  1.0943  1.0100
55727SOL    HW274040   5.573   9.842  10.414 -0.9835  1.2007 -1.2118
55728SOL     OW74041   2.366   6.281   0.808 -0.4460 -0.3867  0.8752
55728SOL    HW174042   2.303   6.261   0.739 -0.3322 -0.4589  0.7918
55728SOL    HW274043   2.412   6.359   0.777 -0.4264 -0.3913  0.8923
55729SOL     OW74044   6.280   1.337  10.097  0.5591 -0.5711  0.2462
55729SOL    HW174045   6.336   1.414  10.091 -0.7985  0.4484  0.1972
55729SOL    HW274046   6.322   1.272  10.040  0.7495  0.7645 -1.2024
55730SOL     OW74047   8.955   1.881   2.140 -0.6330 -0.6295  0.0961
55730SOL    HW174048   8.947   1.822   2.215 -0.2139 -3.1944 -1.7405
55730SOL    HW274049   9.045   1.911   2.142 -0.5892 -0.7847  0.5688
55731SOL     OW74050   2.408   0.277   0.469 -0.1753 -0.2464 -0.3941
55731SOL    HW174051   2.459   0.265   0.549 -1.2988  1.0976  0.5628
55731SOL    HW274052   2.461   0.336   0.415  0.2799 -0.6239 -0.3629
55732SOL     OW74053   0.121   4.519  11.099  0.1653  0.0228  0.2297
55732SOL    HW174054   0.161   4.564  11.174  0.6345 -0.4616  0.2740
55732SOL    HW274055   0.027   4.528  11.114  0.2531  0.7763  0.3648
55733SOL     OW74056   2.640   8.168   8.696 -0.2412 -0.0669  0.1750
55733SOL    HW174057   2.673   8.131   8.614  0.7883  2.2842 -0.5609
55733SOL    HW274058   2.547   8.185   8.679 -0.4719 -1.2327  0.1670
55734SOL     OW74059   9.132  10.469   5.471  0.1828  0.7409 -0.0541
55734SOL    HW174060   9.203  10.436   5.527  1.0597 -1.2922 -2.2046
55734SOL    HW274061   9.164  10.555   5.441  2.5573 -0.7320 -2.1336
55735SOL     OW74062   8.253   7.933   5.294  0.2064 -0.2849  0.0728
55735SOL    HW174063   8.167   7.899   5.315 -0.3976  0.3677 -1.1891
55735SOL    HW274064   8.297   7.943   5.378 -1.2300  0.0982  0.8015
55736SOL     OW74065   9.458   4.544   9.052 -0.0944  0.4395 -0.2411
55736SOL    HW174066   9.549   4.553   9.080  1.0741 -2.2228 -2.6816
55736SOL    HW274067   9.450   4.602   8.977 -0.3691  0.5110 -0.1582
55737SOL     OW74068   6.747  10.367   0.840 -0.1101 -0.2344 -0.9172
55737SOL    HW174069   6.720  10.283   0.878 -0.3392  0.8174  1.4249
55737SOL    HW274070   6.830  10.388   0.882 -0.4806  1.1119 -0.8078
55738SOL     OW74071   3.302  11.271  11.776 -0.3267 -0.5673 -0.3795
55738SOL    HW174072   3.207  11.267  11.761 -0.7217 -1.1238  1.9072
55738SOL    HW274073   3.333  11.336  11.712 -2.2418 -0.3081 -1.1248
55739SOL     OW74074   8.524   2.737   7.993 -0.1428 -0.0233  0.5785
55739SOL    HW174075   8.445   2.775   7.953  0.2899  0.3438  0.0590
55739SOL    HW274076   8.531   2.650   7.952 -0.4549 -0.1864  0.8659
55740SOL     OW74077   9.919   4.431   6.287  0.0565  0.2031  0.0677
55740SOL    HW174078   9.867   4.509   6.307 -1.4117 -0.6239 -0.3680
55740SOL    HW274079   9.874   4.360   6.333  0.2016 -0.6980 -1.1268
55741SOL     OW74080   3.092   5.297   4.753 -0.1133 -0.3548  0.4404
55741SOL    HW174081   3.119   5.219   4.801 -0.7323 -1.2661 -0.6412
55741SOL    HW274082   3.095   5.368   4.818  1.1431 -1.1281  1.2718
55742SOL     OW74083   9.732  10.101   3.262  0.1389  0.2390 -0.0894
55742SOL    HW174084   9.748  10.152   3.183 -0.3643  0.1242 -0.2721
55742SOL    HW274085   9.688  10.162   3.322 -2.6163 -0.5296 -1.1515
55743SOL     OW74086   3.267   6.069   9.298 -0.7502  0.2452  0.3674
55743SOL    HW174087   3.273   5.976   9.273  1.8696  0.8694 -1.6678
55743SOL    HW274088   3.291   6.117   9.219  0.0920  2.6080  1.9585
55744SOL     OW74089   5.622  10.426   3.940 -0.3847 -0.3984  0.7771
55744SOL    HW174090   5.599  10.404   3.850 -0.6148  2.0256  0.1721
55744SOL    HW274091   5.700  10.373   3.958 -1.5326 -2.4840 -0.0596
55745SOL     OW74092   9.713   9.995   9.369 -0.1166 -0.0797  0.4821
55745SOL    HW174093   9.774   9.950   9.427 -0.0590  0.1415  0.5955
55745SOL    HW274094   9.657   9.926   9.334  1.0860 -0.4966 -0.7201
55746SOL     OW74095   1.472   6.694   1.571 -0.2790  0.3086  0.4218
55746SOL    HW174096   1.464   6.611   1.617  2.4643 -0.9224 -1.0627
55746SOL    HW274097   1.419   6.684   1.493 -0.0999  0.0159  0.3377
55747SOL     OW74098   2.504   5.814   9.800  0.1645 -0.6367 -0.2831
55747SOL    HW174099   2.512   5.804   9.895 -0.5444  0.3057 -0.1208
55747SOL    HW274100   2.532   5.729   9.766  3.7623  0.0200  0.5665
55748SOL     OW74101  10.349  10.984  10.707  0.3123 -0.4228  0.2801
55748SOL    HW174102  10.313  11.008  10.621  0.2175 -0.0342  0.4256
55748SOL    HW274103  10.396  11.062  10.736 -0.6102 -0.1463  1.0859
55749SOL     OW74104   1.783   5.292   9.729  0.1312 -0.4489 -0.1456
55749SOL    HW174105   1.861   5.240   9.749 -0.1812 -0.4850  1.0570
55749SOL    HW274106   1.712   5.248   9.776 -0.5153 -0.1047 -0.7808
55750SOL     OW74107   0.233   2.960   3.888 -0.3326  0.0571  0.2464
55750SOL    HW174108   0.322   2.944   3.855 -0.7521 -0.6431 -0.5786
55750SOL    HW274109   0.181   2.888   3.853 -1.5409  1.2629 -0.5161
55751SOL     OW74110   6.709  12.053   8.646 -0.0953  0.1606 -0.6890
55751SOL    HW174111   6.753  12.073   8.728  0.6582 -0.6696 -0.8712
55751SOL    HW274112   6.739  12.121   8.585 -0.4194  0.5991 -0.3607
55752SOL     OW74113   1.100   8.138   8.053 -0.2620  0.4187 -0.1558
55752SOL    HW174114   1.025   8.196   8.043 -0.8558 -0.2749  0.1731
55752SOL    HW274115   1.063   8.054   8.081  0.6590  0.1355  0.2729
55753SOL     OW74116   2.333   7.991   7.494 -0.3384  0.3928 -0.4358
55753SOL    HW174117   2.378   8.064   7.537 -0.8306 -0.2799  1.2824
55753SOL    HW274118   2.277   8.033   7.428  0.9549  1.3917 -0.9511
55754SOL     OW74119  11.495  10.758   3.129 -0.4046 -0.6943  0.2683
55754SOL    HW174120  11.533  10.784   3.212  1.0564 -2.7492  0.3284
55754SOL    HW274121  11.570  10.737   3.074 -1.3815 -1.3004 -0.8893
55755SOL     OW74122   4.874   4.035  11.661 -0.5223  0.2603 -0.1317
55755SOL    HW174123   4.846   4.095  11.591  1.6499  1.2585 -0.2351
55755SOL    HW274124   4.912   4.092  11.727 -0.3048 -0.8718  0.7375
55756SOL     OW74125   8.625   0.733   6.067  0.1869 -0.0417  0.1799
55756SOL    HW174126   8.697   0.690   6.021  0.7748  1.3687 -0.2546
55756SOL    HW274127   8.586   0.791   6.002 -1.6635 -1.0833  0.2688
55757SOL     OW74128   3.492   0.182  10.881  0.5898 -0.8238 -0.0763
55757SOL    HW174129   3.523   0.110  10.827  0.1322 -1.4722  0.5078
55757SOL    HW274130   3.426   0.143  10.938  2.5247 -0.6412  2.4457
55758SOL     OW74131   3.638   8.777   5.238 -0.1658  0.1128  0.4423
55758SOL    HW174132   3.659   8.696   5.192 -0.7819  0.4611 -0.4641
55758SOL    HW274133   3.571   8.819   5.185 -0.1849  1.0062  1.1424
55759SOL     OW74134   8.567   6.793   1.612 -0.6006  0.6666 -0.1646
55759SOL    HW174135   8.616   6.872   1.633 -0.9951  0.9162 -0.1689
55759SOL    HW274136   8.475   6.820   1.616 -0.7238  0.3345 -0.6845
55760SOL     OW74137   8.521   7.004  10.443  0.3496  0.0020  0.0280
55760SOL    HW174138   8.598   7.036  10.491 -0.5409  0.2287  1.3566
55760SOL    HW274139   8.499   7.075  10.383  2.1623 -0.7404 -1.6166
55761SOL     OW74140   5.663   8.096  12.159  0.2343 -0.4828 -0.1354
55761SOL    HW174141   5.701   8.183  12.171  0.9069 -0.7634 -0.1849
55761SOL    HW274142   5.689   8.070  12.070  0.3694 -0.8895  0.0190
55762SOL     OW74143   4.520  12.215   4.429 -0.4925 -0.1176 -0.2739
55762SOL    HW174144   4.531  12.120   4.437 -2.4683 -0.2812  1.1572
55762SOL    HW274145   4.585  12.252   4.489  0.6166 -0.5133 -1.1978
55763SOL     OW74146   8.432   0.949   9.082 -0.2484  0.2797  0.2770
55763SOL    HW174147   8.364   1.009   9.050  1.3295  3.4040  2.3069
55763SOL    HW274148   8.387   0.894   9.146 -1.4960 -0.0718 -0.8356
55764SOL     OW74149   7.435   8.312   1.308  0.0071 -0.0072 -0.0243
55764SOL    HW174150   7.339   8.311   1.306 -0.0867  1.1290  2.0072
55764SOL    HW274151   7.458   8.405   1.310  1.1509 -0.2746 -0.1952
55765SOL     OW74152   8.434   6.995   8.740 -0.2677  0.1519  0.0032
55765SOL    HW174153   8.410   6.956   8.824  0.5489  1.1613  0.7231
55765SOL    HW274154   8.474   7.079   8.763  0.0984  0.3773 -1.3865
55766SOL     OW74155   4.421   5.328   2.798 -0.7348  0.2970  0.2515
55766SOL    HW174156   4.429   5.335   2.703 -3.6618  2.3422  0.0283
55766SOL    HW274157   4.455   5.410   2.831  1.1129 -0.7620  1.1302
55767SOL     OW74158   4.048  12.189   5.112  0.4895 -0.5958 -0.0240
55767SOL    HW174159   3.981  12.257   5.103 -1.8564 -2.8081 -0.1886
55767SOL    HW274160   4.098  12.194   5.031 -0.8985 -0.3339 -0.8929
55768SOL     OW74161   3.404   4.083   8.220  0.3916  0.0025 -0.6308
55768SOL    HW174162   3.420   4.043   8.135  1.0175 -1.0003 -0.0622
55768SOL    HW274163   3.378   4.173   8.200 -0.0209 -0.3806 -1.8961
55769SOL     OW74164   3.315   4.715   0.927  0.2486 -0.5077  0.4428
55769SOL    HW174165   3.332   4.668   0.845  0.1948 -0.6520  0.5141
55769SOL    HW274166   3.395   4.704   0.978 -0.7393 -2.9235  1.6227
55770SOL     OW74167   2.868   5.857  12.039  0.6475 -0.9120 -0.8099
55770SOL    HW174168   2.786   5.825  12.076  0.7915 -2.1199 -1.4860
55770SOL    HW274169   2.870   5.820  11.950  0.8793  0.9023 -1.6061
55771SOL     OW74170   8.591   0.617   4.632 -0.9048 -0.0971 -0.3487
55771SOL    HW174171   8.514   0.570   4.601 -2.1136  0.4484  1.6230
55771SOL    HW274172   8.659   0.551   4.638 -0.7294 -0.3512 -3.3938
55772SOL     OW74173   8.166   0.326   5.352 -0.2096  0.0839  0.0297
55772SOL    HW174174   8.211   0.409   5.338  1.8210 -1.0850 -0.8342
55772SOL    HW274175   8.122   0.308   5.270 -3.2597  1.6811  1.1640
55773SOL     OW74176   4.421   6.460   7.044 -0.4103  0.8070  0.5352
55773SOL    HW174177   4.456   6.445   7.132 -0.4160  0.0557  0.4134
55773SOL    HW274178   4.494   6.499   6.996 -0.6550  1.9927  1.0877
55774SOL     OW74179   3.974   8.818  10.985  0.0107 -0.6112 -0.2651
55774SOL    HW174180   3.940   8.881  11.048  3.3380  0.5655  0.5815
55774SOL    HW274181   3.978   8.735  11.034 -1.3078 -0.7172 -0.3163
55775SOL     OW74182   4.988   7.657  10.544  0.5555  0.1180  0.1905
55775SOL    HW174183   5.082   7.666  10.561  0.6171  0.3589 -0.2764
55775SOL    HW274184   4.983   7.599  10.468  0.3038 -0.3556  0.5630
55776SOL     OW74185   4.580   2.306   5.285  0.4621  0.2319 -0.0329
55776SOL    HW174186   4.613   2.270   5.202 -1.2032 -2.7962  0.4782
55776SOL    HW274187   4.658   2.311   5.341  1.0704 -0.9848 -0.7273
55777SOL     OW74188   4.850   0.266   5.800 -0.6630  0.3659 -0.6790
55777SOL    HW174189   4.756   0.275   5.815 -0.6050 -1.3831  1.2382
55777SOL    HW274190   4.860   0.182   5.757  0.0873  0.0279  0.1367
55778SOL     OW74191  11.674   7.959  10.857 -0.2963  0.4083  0.1191
55778SOL    HW174192  11.703   8.045  10.824  0.4776  0.9036  1.9463
55778SOL    HW274193  11.730   7.943  10.932 -1.9338 -0.6750  1.1634
55779SOL     OW74194   4.413   9.648   2.188  0.1050 -0.8196  0.1579
55779SOL    HW174195   4.387   9.724   2.241  3.5845  0.6599  0.0542
55779SOL    HW274196   4.482   9.606   2.239  0.2950 -2.1534 -1.1396
55780SOL     OW74197   0.360   2.829   1.248  0.2094  0.0915 -0.0365
55780SOL    HW174198   0.387   2.777   1.172  1.1099  0.7871 -0.2175
55780SOL    HW274199   0.336   2.764   1.314 -2.0977 -0.5228 -1.3941
55781SOL     OW74200   6.481   5.384   9.583  0.3258  0.3362  0.4763
55781SOL    HW174201   6.568   5.421   9.567  0.0556  0.1072 -1.8822
55781SOL    HW274202   6.449   5.358   9.496 -1.3569 -1.2834  1.4916
55782SOL     OW74203   0.768   7.205  10.511 -0.3239 -0.4703  0.5025
55782SOL    HW174204   0.680   7.242  10.516  0.6690  1.9149  2.6226
55782SOL    HW274205   0.798   7.203  10.602  1.6591 -1.6828 -0.1173
55783SOL     OW74206  11.077   8.704   6.641  0.0979  0.4550  1.0301
55783SOL    HW174207  10.982   8.694   6.646 -0.1175  2.5429  1.7295
55783SOL    HW274208  11.103   8.724   6.730  1.0361  1.2078  0.5927
55784SOL     OW74209   2.385   7.571   1.889  0.2071 -0.2205  0.3917
55784SOL    HW174210   2.423   7.532   1.810 -2.0440 -0.3088 -0.7307
55784SOL    HW274211   2.380   7.499   1.951  2.2256 -0.0989  0.7680
55785SOL     OW74212   0.522   5.797   2.847 -0.2670  0.4512 -0.1331
55785SOL    HW174213   0.519   5.786   2.752  1.4050  0.8797 -0.2635
55785SOL    HW274214   0.431   5.784   2.875 -0.7616  0.1258 -1.7541
55786SOL     OW74215   1.128   9.823  10.755  0.2287  0.2905 -0.1889
55786SOL    HW174216   1.222   9.831  10.772  0.2644 -1.8341  1.0070
55786SOL    HW274217   1.120   9.824  10.660  1.2641  1.9219 -0.2932
55787SOL     OW74218   3.791   6.995   5.375  0.0608 -0.2468  0.3769
55787SOL    HW174219   3.854   6.946   5.427  0.0132  0.5637  1.2431
55787SOL    HW274220   3.842   7.034   5.304  0.3456 -0.4087  0.4958
55788SOL     OW74221   7.830  12.188   3.947  0.2473 -0.0016  0.0298
55788SOL    HW174222   7.911  12.219   3.988 -0.7080  0.8941  1.2941
55788SOL    HW274223   7.793  12.266   3.906 -1.8790  0.5546  2.7325
55789SOL     OW74224   1.334   1.835  10.328 -0.0656  0.4535  0.2893
55789SOL    HW174225   1.240   1.816  10.317 -0.4857  1.4292  1.8282
55789SOL    HW274226   1.362   1.779  10.400  0.4909  0.3242 -0.0223
55790SOL     OW74227   3.030   5.536   8.757  0.3689 -0.1744  0.2754
55790SOL    HW174228   2.989   5.594   8.821  0.0024  0.1677 -0.2609
55790SOL    HW274229   2.966   5.529   8.687  0.5935 -0.8807  0.1355
55791SOL     OW74230   1.430   1.273   4.407 -0.1610  0.2145 -0.1087
55791SOL    HW174231   1.366   1.202   4.414 -0.2458 -0.0403 -2.5972
55791SOL    HW274232   1.510   1.236   4.444 -0.9803 -0.0254  1.5456
55792SOL     OW74233   7.377   0.126   7.876  0.0506  0.3700 -0.0888
55792SOL    HW174234   7.376   0.122   7.971  0.2605  0.9964 -0.0569
55792SOL    HW274235   7.460   0.170   7.854  0.4363 -0.5677 -0.5957
55793SOL     OW74236   4.043   2.961   8.725 -0.3041  0.1371  0.3035
55793SOL    HW174237   3.956   2.973   8.687 -0.2419 -1.4857 -0.4181
55793SOL    HW274238   4.047   2.868   8.748  1.1093  0.2641  0.6742
55794SOL     OW74239   0.320   4.856   2.034 -0.1982  0.0269 -0.0523
55794SOL    HW174240   0.240   4.909   2.027 -0.6860 -0.7498 -0.4908
55794SOL    HW274241   0.361   4.885   2.115 -0.6661  0.7875 -0.0779
55795SOL     OW74242   2.925   6.846  11.131 -0.2089  0.2588 -0.2996
55795SOL    HW174243   2.837   6.827  11.100  0.2300 -1.0954 -0.7850
55795SOL    HW274244   2.932   6.798  11.214  0.1674  0.1060 -0.4180
55796SOL     OW74245   9.207   2.413  10.509 -0.3694  0.5379  0.1174
55796SOL    HW174246   9.276   2.479  10.508 -0.3938  0.5660  0.3034
55796SOL    HW274247   9.224   2.361  10.587 -0.8806  0.8882  0.4721
55797SOL     OW74248  10.122   6.802   0.422  0.2885  0.0615  0.0888
55797SOL    HW174249  10.054   6.854   0.378  0.1127  1.0818  1.4778
55797SOL    HW274250  10.203   6.851   0.408  0.5943 -0.6583 -0.7581
55798SOL     OW74251   8.389   9.160   8.199  0.5418 -0.3906  0.1101
55798SOL    HW174252   8.385   9.237   8.256  0.4371  0.9048 -1.5832
55798SOL    HW274253   8.318   9.104   8.231 -0.7585  1.1548  0.1177
55799SOL     OW74254   8.425   1.917   0.922 -0.0505  0.0072 -0.3361
55799SOL    HW174255   8.471   1.846   0.878  2.4408  1.3760 -0.1436
55799SOL    HW274256   8.333   1.895   0.913  0.5187 -1.9241 -2.4922
55800SOL     OW74257   9.003   9.327   5.285 -0.3675  0.0369  0.3378
55800SOL    HW174258   8.954   9.327   5.203 -0.2881  0.6551  0.2829
55800SOL    HW274259   8.961   9.261   5.339  0.0399 -0.9045 -0.4657
55801SOL     OW74260   2.765  11.058   4.896 -0.1111  0.2809  0.0274
55801SOL    HW174261   2.835  10.994   4.908  0.8550  0.2859 -4.0771
55801SOL    HW274262   2.684  11.008   4.907  0.6211 -1.3039 -1.2803
55802SOL     OW74263   1.869   2.714   1.471  0.5518 -0.6595 -0.2848
55802SOL    HW174264   1.871   2.624   1.439  0.6386 -1.1012  0.9223
55802SOL    HW274265   1.794   2.717   1.530  1.2669 -0.2918  0.6392
55803SOL     OW74266  11.401   0.580  12.159 -0.1371  0.3133 -0.8997
55803SOL    HW174267  11.335   0.638  12.120  0.3205  1.3758 -0.1354
55803SOL    HW274268  11.457   0.638  12.211 -0.7885 -1.0362  1.4525
55804SOL     OW74269   9.186   9.581   7.768  0.4776 -0.0632 -0.6013
55804SOL    HW174270   9.114   9.571   7.706  0.4107 -3.4863 -0.1574
55804SOL    HW274271   9.147   9.562   7.853  1.8637 -2.2341 -0.3746
55805SOL     OW74272   0.562   0.846   0.398  0.0971 -0.6371  0.8109
55805SOL    HW174273   0.480   0.870   0.355  0.2439  0.5281  1.1486
55805SOL    HW274274   0.545   0.761   0.437  0.3033 -2.3329 -2.4800
55806SOL     OW74275   1.928   9.057   9.782 -0.8512  0.0448  0.0088
55806SOL    HW174276   1.895   8.996   9.848  1.1532 -0.8280  0.2670
55806SOL    HW274277   1.908   9.016   9.698 -0.3046 -0.5626  0.1672
55807SOL     OW74278   7.622   7.048   7.780 -0.2133  0.2414 -0.6825
55807SOL    HW174279   7.564   6.992   7.728 -1.4236 -1.8202  2.5863
55807SOL    HW274280   7.574   7.130   7.788 -2.1507 -0.9606  0.8083
55808SOL     OW74281   4.575   3.772   1.593  0.0290 -0.6165 -0.0779
55808SOL    HW174282   4.601   3.769   1.685 -0.7637 -2.6369  0.1322
55808SOL    HW274283   4.546   3.862   1.579 -1.2408 -0.6205  2.0762
55809SOL     OW74284   6.460  11.113   1.292  0.3230  0.1263  0.5899
55809SOL    HW174285   6.436  11.087   1.381  0.3586 -0.0297  0.5538
55809SOL    HW274286   6.381  11.156   1.258  0.3854  0.3916  0.7758
55810SOL     OW74287   0.918   2.917   1.204 -0.1153  0.1985 -0.2363
55810SOL    HW174288   1.002   2.956   1.227  0.8174 -1.7775 -0.0650
55810SOL    HW274289   0.869   2.988   1.163  0.3426  2.3287  2.6227
55811SOL     OW74290   6.496   6.829   0.330  0.4178  0.0843  0.3120
55811SOL    HW174291   6.538   6.912   0.305 -0.1767  0.0889 -0.7243
55811SOL    HW274292   6.405   6.839   0.301 -0.1888 -0.1324  2.0397
55812SOL     OW74293   4.250   9.982   4.092  0.0801 -0.5530 -0.3003
55812SOL    HW174294   4.223   9.945   4.176  0.4400 -1.0692 -0.4090
55812SOL    HW274295   4.346   9.974   4.092  0.2616  1.2478  0.0786
55813SOL     OW74296   8.626   2.580  10.065  0.1751  0.8972  0.2398
55813SOL    HW174297   8.719   2.593  10.047  0.0633  0.3126 -0.8258
55813SOL    HW274298   8.621   2.577  10.161  1.6551 -1.6479  0.3334
55814SOL     OW74299   0.180   5.811   2.670  0.4035 -0.2783  0.1598
55814SOL    HW174300   0.259   5.758   2.677 -0.0119 -0.8279  0.9907
55814SOL    HW274301   0.175   5.858   2.754 -0.3229 -0.5242  0.2646
55815SOL     OW74302   3.926   9.058   6.317  0.1449 -0.5976 -0.7524
55815SOL    HW174303   3.883   9.067   6.402 -1.0163  0.6473 -1.4283
55815SOL    HW274304   3.983   9.135   6.310  0.9582 -1.1854 -0.7180
55816SOL     OW74305  10.689  10.444  10.736 -0.0770  0.2924  0.2436
55816SOL    HW174306  10.685  10.349  10.724 -2.5351 -0.0984  2.9914
55816SOL    HW274307  10.751  10.474  10.670 -1.1094 -2.8967 -2.4390
55817SOL     OW74308   0.432   6.020   0.805  0.3736  0.3120 -0.0789
55817SOL    HW174309   0.432   6.116   0.811 -0.2835  0.7475 -4.0604
55817SOL    HW274310   0.484   5.991   0.880  1.2041  3.7960  0.8830
55818SOL     OW74311  10.128   6.397  12.253  0.1216  0.0818  0.7857
55818SOL    HW174312  10.180   6.411  12.174  1.2615 -0.0958  1.4827
55818SOL    HW274313  10.066   6.470  12.255 -0.5590 -0.4032 -0.7434
55819SOL     OW74314   9.690   4.877   3.084  0.5013 -0.1320  0.4133
55819SOL    HW174315   9.655   4.877   2.995  0.3585 -1.3433  0.4450
55819SOL    HW274316   9.708   4.784   3.102  2.3996  0.2992  0.9237
55820SOL     OW74317   9.336   9.119   5.930  0.3723 -0.1719 -0.1359
55820SOL    HW174318   9.316   9.055   5.861 -0.4723 -0.2685  0.1835
55820SOL    HW274319   9.353   9.200   5.883 -1.0756 -0.0122 -0.4527
55821SOL     OW74320   4.104   9.960   2.607 -0.0125 -0.3826 -0.2592
55821SOL    HW174321   4.046  10.007   2.547  0.2839  0.6244  0.2412
55821SOL    HW274322   4.046   9.902   2.656 -0.4220 -0.2721 -0.6059
55822SOL     OW74323   2.294   6.132  10.157  0.2928 -0.7843  0.1072
55822SOL    HW174324   2.384   6.101  10.148  0.6151 -0.1713  1.0909
55822SOL    HW274325   2.266   6.100  10.243 -0.9882 -2.3048 -0.7973
55823SOL     OW74326   1.183   7.077   7.074  0.1709  0.3325 -0.1171
55823SOL    HW174327   1.107   7.077   7.132 -1.9218  2.6841 -2.5778
55823SOL    HW274328   1.175   6.995   7.024 -0.8171  0.5377 -0.3333
55824SOL     OW74329  11.284   7.341   2.616 -0.1336  0.7944  0.1601
55824SOL    HW174330  11.246   7.425   2.589 -0.8216  0.5576  0.3681
55824SOL    HW274331  11.373   7.342   2.580 -0.8520  0.6682 -1.7617
55825SOL     OW74332   9.812   6.730   6.997 -0.2951  0.4106 -0.4415
55825SOL    HW174333   9.779   6.694   6.914  2.3131 -0.8703 -1.0274
55825SOL    HW274334   9.849   6.654   7.043 -0.6009  1.3065  1.3853
55826SOL     OW74335   1.447   1.398   0.902  0.1757  0.0715 -0.3110
55826SOL    HW174336   1.520   1.341   0.925 -0.0134  0.2598  0.8044
55826SOL    HW274337   1.486   1.484   0.890  0.0243  0.3846  1.2708
55827SOL     OW74338   8.243   5.820  11.495 -0.0390  0.1337 -0.3991
55827SOL    HW174339   8.338   5.816  11.509 -0.0712 -0.1420 -0.2537
55827SOL    HW274340   8.222   5.913  11.499  0.4873  0.3736 -2.1933
55828SOL     OW74341   5.020   2.686  10.636 -0.6952  0.9707 -0.3632
55828SOL    HW174342   5.032   2.749  10.707  1.3746  1.4386 -1.0427
55828SOL    HW274343   5.014   2.740  10.557  0.7574  0.3911 -0.9182
55829SOL     OW74344   4.871  10.030   2.185  0.1878 -0.5900 -0.7212
55829SOL    HW174345   4.833   9.952   2.145 -0.4897 -0.0606 -1.1435
55829SOL    HW274346   4.888  10.089   2.111 -1.1270  0.4247 -0.2596
55830SOL     OW74347   3.136   9.100   2.504 -0.5016 -0.4151  0.4687
55830SOL    HW174348   3.066   9.118   2.441 -1.0302 -2.6406  0.3260
55830SOL    HW274349   3.091   9.090   2.588  0.0225  0.9912  0.9466
55831SOL     OW74350   5.959   2.560   5.802 -0.3478 -0.5245  0.5504
55831SOL    HW174351   6.016   2.567   5.878 -0.7108 -1.4166  0.9205
55831SOL    HW274352   5.972   2.471   5.769  0.2815  0.0487 -0.8321
55832SOL     OW74353   2.993   8.198   6.071  0.7870  0.0465 -0.1296
55832SOL    HW174354   3.039   8.280   6.090  1.4597 -1.1332  4.6017
55832SOL    HW274355   2.900   8.219   6.077  0.8740  0.8004 -1.1717
55833SOL     OW74356   1.294   9.557   8.953  0.0322  0.3660  0.0565
55833SOL    HW174357   1.247   9.636   8.980  0.0686  0.6554 -0.7056
55833SOL    HW274358   1.265   9.541   8.864  1.2666  0.4847 -0.3910
55834SOL     OW74359   4.867   1.562   8.347 -0.2788  0.8505  0.0255
55834SOL    HW174360   4.774   1.542   8.343 -0.0464 -0.2352 -0.5792
55834SOL    HW274361   4.893   1.539   8.437 -0.3946  0.1469 -0.1159
55835SOL     OW74362   2.027   4.786   8.538  0.1925  0.1766 -0.1303
55835SOL    HW174363   2.048   4.877   8.517 -0.0786  0.6021  1.3055
55835SOL    HW274364   1.932   4.783   8.538  0.2001 -0.0715 -0.0447
55836SOL     OW74365   5.742   1.640  11.735 -0.6294  0.2578 -0.4640
55836SOL    HW174366   5.651   1.645  11.765 -0.3075  0.3078  0.5493
55836SOL    HW274367   5.737   1.594  11.651 -1.4794 -0.7389  0.1072
55837SOL     OW74368  12.347   3.118   5.512 -0.1078  0.0603 -0.2783
55837SOL    HW174369  12.374   3.131   5.603 -0.3203 -1.0399 -0.0533
55837SOL    HW274370  12.428   3.124   5.462  0.1359 -0.2354  0.0774
55838SOL     OW74371   5.801   1.349   8.978  0.8070  0.4869 -0.5125
55838SOL    HW174372   5.816   1.258   9.003 -0.7633  0.3629  0.1189
55838SOL    HW274373   5.853   1.401   9.040  0.1860  0.0612  0.3813
55839SOL     OW74374   9.868   4.045   7.606 -0.3716 -0.7169 -0.3312
55839SOL    HW174375   9.832   3.981   7.545  0.9940 -1.0224 -0.8456
55839SOL    HW274376   9.913   3.993   7.672  0.5053 -0.3111 -0.5982
55840SOL     OW74377   3.287   9.155  12.080  0.0152  0.3572  0.8753
55840SOL    HW174378   3.327   9.117  12.002  0.4742 -0.2066  1.3779
55840SOL    HW274379   3.328   9.241  12.090  1.3753 -0.3366  1.5678
55841SOL     OW74380   9.503   3.275  10.734 -0.6257  0.0259 -0.1638
55841SOL    HW174381   9.441   3.216  10.777  0.5430 -0.2231  1.2215
55841SOL    HW274382   9.454   3.309  10.659 -1.5378 -2.2239 -0.6699
55842SOL     OW74383   7.254   3.093   6.000 -0.4336  0.0186  0.0666
55842SOL    HW174384   7.202   3.016   6.021 -0.4036  0.1669  0.6875
55842SOL    HW274385   7.281   3.128   6.085 -1.3995  1.3760 -0.1729
55843SOL     OW74386   4.281   6.424   3.765 -0.0124 -0.0288 -0.2161
55843SOL    HW174387   4.260   6.402   3.856 -1.3434  2.2343  0.0972
55843SOL    HW274388   4.269   6.519   3.760  1.4732  0.1126 -2.4060
55844SOL     OW74389  10.090   0.997  10.328 -0.0765 -0.4921 -0.0965
55844SOL    HW174390  10.108   0.923  10.271 -0.6656 -1.9603  1.5392
55844SOL    HW274391  10.174   1.018  10.368  0.1715  0.0117 -0.8597
55845SOL     OW74392   9.451   7.279   5.103  0.5891  0.0248 -0.1009
55845SOL    HW174393   9.395   7.261   5.178  1.0900 -2.1411 -0.1801
55845SOL    HW274394   9.396   7.329   5.043 -0.9355 -1.1463  0.2674
55846SOL     OW74395   1.818   0.773   5.469 -0.4583 -0.5446  0.3862
55846SOL    HW174396   1.729   0.787   5.436 -0.5156 -1.2993  0.2037
55846SOL    HW274397   1.824   0.830   5.545 -2.1107 -2.5496  2.1773
55847SOL     OW74398   6.871   7.523   5.281 -0.3685 -0.4896 -0.0674
55847SOL    HW174399   6.940   7.457   5.269 -0.1526 -0.5261  1.2934
55847SOL    HW274400   6.906   7.583   5.347 -0.5061  1.0984 -1.3528
55848SOL     OW74401   9.621   0.876   7.508  0.2857  0.0562 -0.3925
55848SOL    HW174402   9.622   0.948   7.571 -0.6427  0.4327 -0.7829
55848SOL    HW274403   9.707   0.878   7.467  1.4120 -0.9969  1.7172
55849SOL     OW74404   8.301  10.573   7.510 -0.3603 -0.0836  0.2593
55849SOL    HW174405   8.224  10.517   7.500 -2.1344  2.4654 -1.7182
55849SOL    HW274406   8.342  10.575   7.424  1.4222 -0.6193  1.0419
55850SOL     OW74407  12.517   5.346  12.367 -0.3385  0.7534  0.0080
55850SOL    HW174408  12.593   5.292  12.348 -0.3116  0.5797  0.5841
55850SOL    HW274409  12.447   5.309  12.313 -0.4451 -0.1716  0.7567
55851SOL     OW74410   0.510   0.651   2.913  0.4840 -0.1892  0.0664
55851SOL    HW174411   0.580   0.587   2.903  2.0717  1.1611  1.6294
55851SOL    HW274412   0.524   0.687   3.001 -0.3053  2.2739 -0.7394
55852SOL     OW74413  11.660   4.555   7.670 -0.4610 -0.0994 -0.3233
55852SOL    HW174414  11.669   4.620   7.739 -0.4032 -0.4307 -0.0164
55852SOL    HW274415  11.743   4.508   7.670 -0.1787  0.3791 -1.1155
55853SOL     OW74416   9.336   1.496   1.116 -0.6705 -0.4794 -0.1681
55853SOL    HW174417   9.411   1.439   1.101  2.0873  2.4737  1.0799
55853SOL    HW274418   9.356   1.576   1.066 -3.1243  0.3630  0.0394
55854SOL     OW74419   7.591   5.595   4.318 -0.1979  0.1476  0.3532
55854SOL    HW174420   7.609   5.661   4.251  0.3462 -0.5398 -0.1995
55854SOL    HW274421   7.666   5.535   4.313 -0.6033 -0.4213  0.9472
55855SOL     OW74422   1.669   6.929   6.673 -0.1245  0.6181 -0.5758
55855SOL    HW174423   1.632   7.011   6.706  0.4735  1.0305 -0.9227
55855SOL    HW274424   1.607   6.861   6.703 -0.6050  1.1856 -0.2653
55856SOL     OW74425   8.304   6.621   9.580 -0.0098  0.2831  1.2228
55856SOL    HW174426   8.228   6.566   9.564  1.0051 -1.2028  1.3602
55856SOL    HW274427   8.325   6.610   9.672  0.2941  0.7942  1.2245
55857SOL     OW74428   8.856   9.084   7.539  0.0606  0.9041 -0.4905
55857SOL    HW174429   8.827   9.149   7.475 -0.1613  1.6307  0.3421
55857SOL    HW274430   8.871   9.133   7.619  0.1258 -0.0356  0.0888
55858SOL     OW74431   3.572  11.267   6.485 -0.3376 -0.7208 -0.2412
55858SOL    HW174432   3.665  11.249   6.472 -0.5372 -1.0695 -1.3247
55858SOL    HW274433   3.539  11.188   6.528  0.0777 -0.1100  1.2500
55859SOL     OW74434   4.670   2.443  10.849 -0.1395 -0.3276  0.2291
55859SOL    HW174435   4.700   2.520  10.897  1.2478 -0.9441  0.4017
55859SOL    HW274436   4.575   2.456  10.839  0.1584  1.7070 -0.3518
55860SOL     OW74437  10.701   7.768   4.510 -0.2825 -0.4905 -0.8297
55860SOL    HW174438  10.734   7.718   4.585 -1.3484 -0.0499 -0.0365
55860SOL    HW274439  10.779   7.797   4.464  0.3867 -2.1408 -0.8197
55861SOL     OW74440   7.758   7.647   8.225 -0.1267  0.3608 -1.1386
55861SOL    HW174441   7.767   7.685   8.312  2.9371 -0.2685 -1.0884
55861SOL    HW274442   7.726   7.719   8.170 -1.2017  1.0019  0.2776
55862SOL     OW74443   9.824   7.445   8.613 -0.0059 -0.3583  0.2479
55862SOL    HW174444   9.906   7.473   8.655  1.0407 -1.8966 -0.6663
55862SOL    HW274445   9.794   7.523   8.565  0.6755  0.3577  0.9432
55863SOL     OW74446  11.013   7.561   4.801 -0.2186 -0.8147  0.2831
55863SOL    HW174447  11.100   7.599   4.807  0.3937 -2.3299  1.6219
55863SOL    HW274448  11.024   7.480   4.751 -0.7020 -1.4134  1.1214
55864SOL     OW74449   6.884   3.225  12.217 -0.6428  0.1047  0.2882
55864SOL    HW174450   6.931   3.142  12.216  1.1831  1.1041 -0.4386
55864SOL    HW274451   6.821   3.218  12.145 -1.8674 -1.3284  1.4185
55865SOL     OW74452   4.915   6.576   5.484 -0.0795 -0.3636  0.4506
55865SOL    HW174453   4.963   6.508   5.532 -0.7777 -1.5700 -0.4781
55865SOL    HW274454   4.823   6.562   5.508 -0.3593 -0.5436 -0.6811
55866SOL     OW74455   2.700   8.726   5.918  0.3124  0.3456  0.2893
55866SOL    HW174456   2.701   8.780   5.997  0.7272  1.2828 -0.3488
55866SOL    HW274457   2.616   8.681   5.921 -0.0375  1.0257  0.8187
55867SOL     OW74458  10.574   0.976   4.514 -0.1022  0.2042 -0.1710
55867SOL    HW174459  10.511   0.990   4.444  0.5828 -0.4447 -0.9356
55867SOL    HW274460  10.634   1.050   4.507 -0.6043  0.6687  0.3736
55868SOL     OW74461   8.359   8.209   7.687  0.2765  0.4396 -0.3388
55868SOL    HW174462   8.405   8.284   7.726  2.2174 -0.8521 -0.0092
55868SOL    HW274463   8.277   8.246   7.654 -0.0046  2.2333  2.0606
55869SOL     OW74464   3.560  11.516   3.056 -0.0263  0.1776 -0.2672
55869SOL    HW174465   3.531  11.429   3.028 -0.3105  0.3705 -0.5868
55869SOL    HW274466   3.656  11.511   3.056 -0.0290  0.0448 -0.8837
55870SOL     OW74467   6.800   4.047   9.763 -0.4510 -0.0705 -0.5296
55870SOL    HW174468   6.826   4.132   9.798 -1.0621 -0.6516  1.4196
55870SOL    HW274469   6.838   3.983   9.823  1.6425 -1.3575 -2.9660
55871SOL     OW74470   4.328  12.034   8.160 -0.3691 -0.0300  0.0626
55871SOL    HW174471   4.284  11.998   8.083 -0.4640  2.0188 -0.9116
55871SOL    HW274472   4.411  12.069   8.126 -1.1547  2.4282  0.4987
55872SOL     OW74473   8.614   0.915   8.469  0.1390  0.6864  0.0075
55872SOL    HW174474   8.672   0.965   8.412  0.4309  0.7643  0.3674
55872SOL    HW274475   8.602   0.971   8.546 -1.1393  1.0791 -0.4400
55873SOL     OW74476  10.904  11.467   2.298 -0.0498 -0.3703 -0.6241
55873SOL    HW174477  10.988  11.512   2.290 -0.0512 -0.1305  0.5297
55873SOL    HW274478  10.839  11.532   2.272  0.1157 -0.5876 -1.6174
55874SOL     OW74479   8.710  12.007   3.755  0.1254 -0.5591  0.7566
55874SOL    HW174480   8.714  11.952   3.834 -1.0754 -1.8305 -0.0292
55874SOL    HW274481   8.759  11.957   3.690  0.5955  0.2014  0.5206
55875SOL     OW74482   7.961   3.330   4.699  0.1053 -0.4532 -0.4712
55875SOL    HW174483   8.019   3.401   4.669 -1.5250  1.1574  0.0209
55875SOL    HW274484   8.014   3.281   4.762  0.8615  1.1644  0.2043
55876SOL     OW74485  11.176   9.845   2.426 -0.5803 -0.9641  0.5449
55876SOL    HW174486  11.181   9.765   2.373 -1.5130 -0.4791 -0.3006
55876SOL    HW274487  11.267   9.872   2.436 -0.3932 -0.8288 -1.2074
55877SOL     OW74488   6.885   6.127   7.051 -0.0531  0.0027  0.4212
55877SOL    HW174489   6.877   6.037   7.085 -0.4019  0.3941  1.4290
55877SOL    HW274490   6.839   6.181   7.116 -0.8884  0.7858 -0.7785
55878SOL     OW74491   2.565   5.242   1.153  0.1941 -0.4309 -0.4285
55878SOL    HW174492   2.595   5.332   1.148 -1.3837  0.1570  0.0692
55878SOL    HW274493   2.577   5.217   1.244  0.1395 -0.5387 -0.4505
55879SOL     OW74494   4.706   5.039   8.443  0.4498 -0.6115 -0.4298
55879SOL    HW174495   4.785   5.018   8.394 -0.1139  0.9326 -2.0691
55879SOL    HW274496   4.730   5.114   8.497  0.0861 -0.0715 -1.0110
55880SOL     OW74497   9.153   4.314  12.077 -0.5635 -0.0395 -0.0197
55880SOL    HW174498   9.201   4.338  11.998 -0.6583  1.4382  0.3304
55880SOL    HW274499   9.148   4.219  12.075  1.3360 -0.1637 -0.6831
55881SOL     OW74500   8.884   7.046  10.221 -0.1145  0.7481  0.1804
55881SOL    HW174501   8.949   7.066  10.154  1.7952  0.2985  1.8348
55881SOL    HW274502   8.835   6.972  10.185  0.5829  0.7828 -0.8892
55882SOL     OW74503   3.272   3.839   5.436  0.4451  0.3890  0.7634
55882SOL    HW174504   3.241   3.773   5.374  0.3604  0.3331  0.8677
55882SOL    HW274505   3.242   3.922   5.399  0.9428  0.4125  0.3876
55883SOL     OW74506   3.323   6.658   9.409 -0.3751 -0.0041  0.1786
55883SOL    HW174507   3.286   6.573   9.386  1.9530 -0.9079 -0.5453
55883SOL    HW274508   3.278   6.721   9.353 -2.6635 -0.5976  1.2544
55884SOL     OW74509   6.675  12.048   6.649  0.2535  0.3107  0.3293
55884SOL    HW174510   6.748  11.997   6.613  0.1000 -0.1984  0.7258
55884SOL    HW274511   6.717  12.123   6.691  0.5212  0.2348  0.2021
55885SOL     OW74512   8.306   1.279   5.632  0.0174 -0.3491 -0.2958
55885SOL    HW174513   8.211   1.263   5.629  0.1810 -1.4639  0.1287
55885SOL    HW274514   8.314   1.361   5.681 -0.6483 -1.3668  1.6310
55886SOL     OW74515   3.189  11.582   6.288  0.2784 -0.5444  0.2003
55886SOL    HW174516   3.138  11.651   6.332  0.5562 -0.7682  0.8882
55886SOL    HW274517   3.165  11.590   6.196  0.6222  0.7519  0.1975
55887SOL     OW74518   1.202   6.455   4.860  0.3297 -0.2302  0.1328
55887SOL    HW174519   1.246   6.406   4.791 -0.9249 -2.1415  0.6170
55887SOL    HW274520   1.259   6.446   4.936  0.8724  0.4424 -0.1781
55888SOL     OW74521   1.164   2.655   7.678 -0.3098  0.0754 -0.8501
55888SOL    HW174522   1.081   2.648   7.630 -0.8881  1.3980 -0.0839
55888SOL    HW274523   1.192   2.746   7.667  0.0541  0.1532  0.4609
55889SOL     OW74524   0.381   5.543   8.118  0.5826  0.9668 -0.3190
55889SOL    HW174525   0.436   5.528   8.195  0.9147  1.0849 -0.5337
55889SOL    HW274526   0.316   5.607   8.147  0.4629  0.7145 -0.0227
55890SOL     OW74527   3.708   0.582   1.822 -0.3246 -0.6592 -0.0029
55890SOL    HW174528   3.783   0.524   1.808 -0.8569 -1.0993 -1.1384
55890SOL    HW274529   3.722   0.655   1.762  0.8785  0.9936  2.1436
55891SOL     OW74530   6.670   4.798  10.486  0.0164 -0.6258 -0.1525
55891SOL    HW174531   6.660   4.758  10.573 -1.1519 -0.0844 -0.0144
55891SOL    HW274532   6.641   4.731  10.425  0.7015 -0.9569 -0.1262
55892SOL     OW74533   1.996   7.615   3.268 -0.5839 -0.2582  0.3272
55892SOL    HW174534   2.086   7.614   3.301 -0.9675 -0.0424  1.4316
55892SOL    HW274535   2.000   7.571   3.184  0.7103  0.5159 -0.0337
55893SOL     OW74536   1.480   7.219   3.167 -0.0659 -0.0997  0.0045
55893SOL    HW174537   1.536   7.211   3.244  0.2897  0.1182 -0.2275
55893SOL    HW274538   1.520   7.289   3.115 -0.5271  0.0265 -0.1890
55894SOL     OW74539   9.854  11.884   4.635  0.1731  0.1161 -0.4168
55894SOL    HW174540   9.943  11.904   4.606  0.4405  0.4096  0.5443
55894SOL    HW274541   9.842  11.791   4.616  0.3774  0.2717 -1.3160
55895SOL     OW74542   8.635  10.074   0.151 -0.5929  0.1199  0.3337
55895SOL    HW174543   8.559  10.056   0.207 -2.1265  2.5384 -0.7866
55895SOL    HW274544   8.622  10.017   0.074 -0.7787 -0.1238  0.5426
55896SOL     OW74545  10.063   4.565  10.515  0.3235  0.4614 -0.7581
55896SOL    HW174546  10.121   4.540  10.587  0.9860  0.7806 -1.1711
55896SOL    HW274547  10.007   4.488  10.501 -1.1418  1.0456  1.3538
55897SOL     OW74548   6.635  11.501   3.463  0.3381 -0.2563 -0.1875
55897SOL    HW174549   6.653  11.477   3.554  0.4484  0.0178 -0.1353
55897SOL    HW274550   6.719  11.531   3.429  0.4142 -0.8743 -0.5436
55898SOL     OW74551   5.745   5.799   7.174  0.3651  0.6462 -0.1317
55898SOL    HW174552   5.655   5.777   7.195  1.0572 -1.2394  1.0620
55898SOL    HW274553   5.750   5.792   7.078 -0.5183 -0.1134 -0.1334
55899SOL     OW74554   8.219  12.344   8.248 -0.0488 -0.5722  0.2795
55899SOL    HW174555   8.208  12.439   8.247  0.7210 -0.4479  1.5631
55899SOL    HW274556   8.202  12.317   8.158 -2.3724  0.5186  0.3191
55900SOL     OW74557   5.716   7.961  10.042 -0.2599 -0.4923 -0.1995
55900SOL    HW174558   5.678   7.877  10.012 -0.1401 -0.0498 -1.6973
55900SOL    HW274559   5.778   7.984   9.973  0.3707  0.4017  0.6503
55901SOL     OW74560   7.405   2.021  11.844  0.1898  0.4317  0.2189
55901SOL    HW174561   7.456   2.098  11.818 -1.4512  0.9413 -1.7647
55901SOL    HW274562   7.470   1.958  11.874  1.6827  2.1333  0.6874
55902SOL     OW74563   2.960   8.287   4.142  0.0588  0.6937  0.7467
55902SOL    HW174564   3.008   8.353   4.193 -0.0987  2.6242 -1.4478
55902SOL    HW274565   2.869   8.299   4.168  0.3388 -1.1448  2.9186
55903SOL     OW74566   4.605  10.611   9.631 -0.4775  0.1447  0.4370
55903SOL    HW174567   4.604  10.575   9.720 -3.1644  2.4789  1.5168
55903SOL    HW274568   4.565  10.543   9.577 -2.6664  0.2420  1.8356
55904SOL     OW74569   4.518   0.271   8.999  0.2608  0.4610  0.4020
55904SOL    HW174570   4.556   0.249   8.914  0.5468 -0.1241  0.6763
55904SOL    HW274571   4.561   0.352   9.025  0.3150  0.5365  0.0832
55905SOL     OW74572   5.557   2.834  11.519 -0.5119 -0.2680  0.3573
55905SOL    HW174573   5.490   2.898  11.546  0.4521  0.1096  2.0029
55905SOL    HW274574   5.518   2.749  11.540 -1.7523 -0.2661 -1.7256
55906SOL     OW74575   9.735   6.297   6.670 -0.2112 -0.1958  0.2903
55906SOL    HW174576   9.647   6.333   6.679 -0.1278 -0.4588  2.8051
55906SOL    HW274577   9.735   6.256   6.583 -2.6158 -0.3367  0.2831
55907SOL     OW74578   3.805  10.178   9.520 -0.2601  0.0413 -0.7667
55907SOL    HW174579   3.879  10.175   9.580 -0.4451  0.3812 -0.5155
55907SOL    HW274580   3.784  10.086   9.503  0.2227 -0.0573 -0.8507
55908SOL     OW74581  10.376   4.191   9.747 -0.4609  0.1370 -0.3834
55908SOL    HW174582  10.429   4.120   9.783 -2.2100 -0.1138  1.8712
55908SOL    HW274583  10.426   4.270   9.767 -0.2729 -0.1897  0.4666
55909SOL     OW74584  12.272   2.690   9.739 -0.2696 -0.1370  0.2973
55909SOL    HW174585  12.291   2.779   9.769 -1.9881 -0.3909  2.3187
55909SOL    HW274586  12.181   2.693   9.710  0.1385 -0.9086 -1.1802
55910SOL     OW74587   8.355   6.944   1.739 -0.1561  0.2341  0.4809
55910SOL    HW174588   8.369   6.937   1.833  1.9524  0.5798  0.2410
55910SOL    HW274589   8.384   7.032   1.716  1.9809 -0.7529 -0.8596
55911SOL     OW74590   3.339   2.466   8.885 -0.3754  0.4791  0.1271
55911SOL    HW174591   3.408   2.407   8.855 -0.3412  0.5737  0.0226
55911SOL    HW274592   3.273   2.408   8.923  0.8624  0.5194  2.4938
55912SOL     OW74593  11.108  11.589  11.790  0.3331  0.3637 -0.1379
55912SOL    HW174594  11.046  11.517  11.783  0.5356  0.0287  1.2854
55912SOL    HW274595  11.125  11.615  11.699 -0.0376 -1.1101 -0.6538
55913SOL     OW74596   3.983  11.050  11.462  0.1799 -0.4027 -0.0085
55913SOL    HW174597   4.069  11.047  11.505 -0.0792  0.8347  0.6348
55913SOL    HW274598   4.002  11.061  11.369  0.7315 -1.9936 -0.1156
55914SOL     OW74599   7.727  10.496   1.526  0.2366  0.0604  0.2796
55914SOL    HW174600   7.798  10.434   1.512  0.5919  0.6852 -0.7577
55914SOL    HW274601   7.652  10.455   1.482  0.7323  0.8288 -1.3670
55915SOL     OW74602   4.960   5.927   8.402  0.0380  0.2952  0.2175
55915SOL    HW174603   4.985   5.994   8.467 -0.3178  0.0506  0.6147
55915SOL    HW274604   4.972   5.971   8.318 -1.2222  1.2437  0.4980
55916SOL     OW74605   8.076   9.846   2.501 -0.2311  0.3791 -0.0186
55916SOL    HW174606   8.157   9.799   2.482  0.7484  1.9223  0.1792
55916SOL    HW274607   8.086   9.930   2.456 -1.9010  0.4626 -0.3127
55917SOL     OW74608   5.301   5.322   2.549 -0.1232  0.0955  0.4245
55917SOL    HW174609   5.302   5.249   2.611  0.9070 -0.9520 -0.8009
55917SOL    HW274610   5.392   5.351   2.545 -0.4735  1.2898  0.6777
55918SOL     OW74611   7.980   0.118   4.143 -0.5135  0.4239  0.0243
55918SOL    HW174612   8.040   0.102   4.070  0.1380  0.6206  0.5038
55918SOL    HW274613   8.006   0.053   4.209 -1.2206  0.1198  0.0100
55919SOL     OW74614  12.562   5.086   2.638  0.2626  0.3569 -0.0692
55919SOL    HW174615  12.512   5.157   2.679 -0.0826 -0.3256  0.7113
55919SOL    HW274616  12.653   5.106   2.658  0.3566  1.7527 -1.7205
55920SOL     OW74617   5.509   1.730   3.678  1.0061 -0.7608  0.4526
55920SOL    HW174618   5.558   1.655   3.645  0.0089 -2.0811  1.8680
55920SOL    HW274619   5.443   1.747   3.611  1.1738 -1.2043  0.1674
55921SOL     OW74620   9.328   1.793   4.589 -0.1731  0.2069 -0.7648
55921SOL    HW174621   9.272   1.752   4.655  0.5327 -0.5025 -0.5957
55921SOL    HW274622   9.354   1.721   4.532  1.9601  0.1774  0.1568
55922SOL     OW74623   1.784   4.286   0.366  0.3172 -0.2014  0.1958
55922SOL    HW174624   1.758   4.364   0.317 -1.6635 -0.1925  1.1463
55922SOL    HW274625   1.710   4.225   0.354  1.0859 -1.2857  0.8280
55923SOL     OW74626   6.717   3.073  10.561  0.4249  0.1695  0.3752
55923SOL    HW174627   6.637   3.126  10.559  0.9467  1.0782  1.8170
55923SOL    HW274628   6.725   3.047  10.653  1.8203  0.1472  0.2645
55924SOL     OW74629   8.671   8.610   6.491  0.7271  0.0755  0.4827
55924SOL    HW174630   8.595   8.566   6.453  1.1393 -0.1298 -0.1289
55924SOL    HW274631   8.690   8.560   6.571 -0.2974  0.6599  1.1173
55925SOL     OW74632  10.619  12.528   0.041 -0.0825 -0.3337  0.6281
55925SOL    HW174633  10.581  12.612   0.068 -1.2818 -0.3791 -0.8026
55925SOL    HW274634  10.567  12.462   0.086 -0.3063 -0.3479  0.3489
55926SOL     OW74635   3.340  10.856   9.976  0.1830 -0.1337 -0.8222
55926SOL    HW174636   3.247  10.877   9.990 -0.3447 -2.3377 -0.7416
55926SOL    HW274637   3.355  10.777  10.027  1.7076 -0.7151 -2.1005
55927SOL     OW74638   5.636   5.074   5.295 -0.0907  0.3740 -0.2051
55927SOL    HW174639   5.601   5.134   5.361  1.0581 -0.7179  1.4458
55927SOL    HW274640   5.663   4.996   5.344  1.2057 -0.3081 -1.8976
55928SOL     OW74641   5.581  11.216   8.470 -0.0449 -0.3484  0.2259
55928SOL    HW174642   5.593  11.133   8.424  1.4416 -0.4894  0.8034
55928SOL    HW274643   5.553  11.278   8.403 -0.6293 -1.1744 -0.3159
55929SOL     OW74644   4.613   6.764   8.932  0.5754 -0.1858  0.0886
55929SOL    HW174645   4.576   6.690   8.980  0.2515  0.1115  0.3066
55929SOL    HW274646   4.656   6.816   9.000 -1.4712  1.2222  0.4033
55930SOL     OW74647  11.153   9.112   7.916  0.6975  0.0837  0.1170
55930SOL    HW174648  11.160   9.018   7.932 -0.5512 -0.2761 -1.2171
55930SOL    HW274649  11.200   9.126   7.833  1.8070  0.8508  0.8372
55931SOL     OW74650  10.467   9.341  12.237  0.2142  0.3340  0.0311
55931SOL    HW174651  10.496   9.254  12.212  1.6156  0.8803 -0.3651
55931SOL    HW274652  10.383   9.327  12.281 -0.2278 -1.0712 -1.1779
55932SOL     OW74653   5.651   9.255   5.499 -0.0760  0.0539 -0.1109
55932SOL    HW174654   5.593   9.179   5.502 -0.4463  0.3631  1.1191
55932SOL    HW274655   5.694   9.257   5.585 -0.1209  1.2584 -0.0915
55933SOL     OW74656   5.251   3.446   0.067 -0.2569 -0.3682  0.2280
55933SOL    HW174657   5.308   3.511   0.024 -0.0566 -0.6212  0.1092
55933SOL    HW274658   5.308   3.370   0.081  0.0382  0.1193  2.0218
55934SOL     OW74659   8.636   4.237  12.081  0.4036 -0.3177 -0.1163
55934SOL    HW174660   8.567   4.303  12.076  0.4265 -0.3520 -1.5665
55934SOL    HW274661   8.589   4.153  12.082  0.3873 -0.3149  1.2434
55935SOL     OW74662   9.320   9.021   4.703 -0.8310 -0.2511 -0.0390
55935SOL    HW174663   9.235   9.043   4.742  0.1030  0.6479  1.5872
55935SOL    HW274664   9.377   9.004   4.777  0.2021 -1.7965 -1.1373
55936SOL     OW74665   4.029   3.663   0.546 -0.1989 -0.1588  0.3508
55936SOL    HW174666   4.105   3.720   0.559 -0.4995  0.6411 -1.2832
55936SOL    HW274667   4.066   3.582   0.510 -0.1795  0.5417 -1.2581
55937SOL     OW74668  11.900   9.598  12.417 -0.1062 -0.0820  0.0165
55937SOL    HW174669  11.927   9.635  12.502  1.6089 -0.6328 -0.2423
55937SOL    HW274670  11.967   9.629  12.356  1.1249 -3.0576 -0.3250
55938SOL     OW74671  10.368   4.571  11.833 -0.3673 -0.1853  0.1022
55938SOL    HW174672  10.441   4.523  11.872  0.2693 -0.5777 -1.4974
55938SOL    HW274673  10.394   4.663  11.838  0.4403 -0.3498 -0.7988
55939SOL     OW74674   4.728  11.870  11.668 -0.3338 -0.1735 -0.5239
55939SOL    HW174675   4.794  11.936  11.692 -0.2573 -1.3709  3.1580
55939SOL    HW274676   4.694  11.900  11.584  1.8778  2.8365 -0.5135
55940SOL     OW74677  12.055   6.291  11.383 -0.4788 -0.4390  0.1980
55940SOL    HW174678  12.080   6.284  11.291 -0.1308  2.3373  0.0033
55940SOL    HW274679  12.133   6.266  11.432 -0.1290 -0.3205 -0.2937
55941SOL     OW74680   3.472   6.960   7.488  0.0655 -0.2535  0.0102
55941SOL    HW174681   3.524   6.887   7.455 -1.0187 -0.8865 -0.3624
55941SOL    HW274682   3.395   6.918   7.527  0.8983  0.5083  2.6609
55942SOL     OW74683   8.291  10.325   1.029  0.4880 -0.5908 -0.2444
55942SOL    HW174684   8.207  10.344   0.986 -0.0674  1.1828  1.4509
55942SOL    HW274685   8.266  10.282   1.111  1.2428 -0.2845  0.1552
55943SOL     OW74686  11.431   7.607  10.107 -0.0600  0.0348  0.1780
55943SOL    HW174687  11.395   7.639  10.024  1.5605  3.0019  0.4862
55943SOL    HW274688  11.364   7.627  10.172 -0.9226 -1.4198 -0.2051
55944SOL     OW74689   9.848   9.527  10.699 -0.5076  0.0381  0.4082
55944SOL    HW174690   9.827   9.434  10.710  0.9849 -0.2811  0.7175
55944SOL    HW274691   9.894   9.531  10.615 -3.3593  1.0222 -1.2428
55945SOL     OW74692   6.762  12.529   2.023  0.8779 -0.2441  0.1719
55945SOL    HW174693   6.721  12.446   2.047  1.7040 -1.2037 -1.5700
55945SOL    HW274694   6.763  12.528   1.927  1.1196  1.6823  0.1221
55946SOL     OW74695   6.465   9.736  10.580  0.7615 -0.3571 -0.3168
55946SOL    HW174696   6.466   9.811  10.640  1.8271 -2.8010  3.0053
55946SOL    HW274697   6.531   9.759  10.514  1.5253  1.3853  0.9494
55947SOL     OW74698   0.618   3.072   0.094 -0.2511 -0.3796  0.0090
55947SOL    HW174699   0.619   2.977   0.078 -2.3874 -0.3155 -0.9622
55947SOL    HW274700   0.528   3.090   0.119  0.5704  1.1658  2.0454
55948SOL     OW74701   7.131   3.995   5.108 -1.0848  0.3921  0.5463
55948SOL    HW174702   7.089   4.057   5.167 -0.7863  0.6083  0.5372
55948SOL    HW274703   7.211   4.040   5.079 -0.9427  0.0653  0.4206
55949SOL     OW74704   5.427  10.056   8.202 -0.3566 -0.1995  0.3623
55949SOL    HW174705   5.507  10.074   8.251 -0.2586  1.3997 -0.3302
55949SOL    HW274706   5.428  10.119   8.130 -1.5902 -1.0348 -0.4295
55950SOL     OW74707   0.569   6.394   0.589 -0.2306  0.0306 -0.2449
55950SOL    HW174708   0.511   6.342   0.533  0.2415 -1.9677  1.0019
55950SOL    HW274709   0.657   6.367   0.564  0.0365  0.4832  0.1890
55951SOL     OW74710   4.084  12.146  10.483  0.1899 -0.3982 -0.1645
55951SOL    HW174711   4.071  12.232  10.523  0.4149 -0.9048  1.0202
55951SOL    HW274712   4.055  12.083  10.549 -1.1238 -1.2188 -1.4725
55952SOL     OW74713   4.033  12.321  11.230 -0.4783 -0.2715  0.3058
55952SOL    HW174714   3.953  12.269  11.239 -0.8807  0.2612 -0.1848
55952SOL    HW274715   4.098  12.258  11.198 -1.2404 -0.2682 -1.3731
55953SOL     OW74716   2.967   3.020   2.022  0.2756 -0.7653 -0.3058
55953SOL    HW174717   2.948   3.112   2.002  0.3955 -0.9967 -1.5678
55953SOL    HW274718   2.977   2.979   1.937 -0.6962 -2.1604  0.2135
55954SOL     OW74719   7.052   5.147   6.735  0.1255 -0.0236 -0.4829
55954SOL    HW174720   7.010   5.127   6.818  0.5123  0.1662 -0.2350
55954SOL    HW274721   7.015   5.231   6.708 -0.2660 -0.2623 -0.6813
55955SOL     OW74722  11.437   4.272  11.108 -0.2245 -0.4321  0.3487
55955SOL    HW174723  11.509   4.277  11.171  0.0558  2.1388 -0.0541
55955SOL    HW274724  11.361   4.244  11.159 -0.4518  3.2971  2.3785
55956SOL     OW74725   9.370   9.831   5.237  0.0690 -0.3176 -0.1149
55956SOL    HW174726   9.313   9.759   5.264  1.2721 -1.8920 -1.5277
55956SOL    HW274727   9.327   9.910   5.269 -1.4273 -1.6380  1.2910
55957SOL     OW74728   5.221   6.758   2.470 -0.0187  1.0048  0.3362
55957SOL    HW174729   5.245   6.850   2.463 -0.1566  0.9810 -0.5319
55957SOL    HW274730   5.126   6.758   2.481 -0.1053  0.9526 -0.3429
55958SOL     OW74731  12.377   3.597   1.544  0.2629 -0.1175  0.5493
55958SOL    HW174732  12.345   3.598   1.453  1.1489  1.7594  0.2013
55958SOL    HW274733  12.431   3.519   1.549  0.6617  0.0408 -0.7343
55959SOL     OW74734  11.628   4.809   1.319  0.3182  0.2929  0.1070
55959SOL    HW174735  11.648   4.889   1.366 -1.5267  0.4280  0.7601
55959SOL    HW274736  11.657   4.739   1.377  1.6476  0.4500 -0.3299
55960SOL     OW74737   1.517   0.163  12.455  0.8729  0.7518  0.5151
55960SOL    HW174738   1.484   0.216  12.382 -0.0255 -1.3227 -0.7070
55960SOL    HW274739   1.444   0.157  12.516  0.1230 -0.8616 -0.4566
55961SOL     OW74740   8.655   7.116   3.396  0.0366 -0.2771  0.1801
55961SOL    HW174741   8.677   7.126   3.488  1.5819  2.5830 -0.3454
55961SOL    HW274742   8.568   7.154   3.387  0.6848  1.3200  0.2395
55962SOL     OW74743   4.666   9.471   9.681 -0.5955  0.6985  0.0347
55962SOL    HW174744   4.679   9.475   9.587 -1.5361 -0.1555 -0.1450
55962SOL    HW274745   4.578   9.434   9.692 -0.3811  0.4972  1.2480
55963SOL     OW74746   7.693   8.912   8.174 -0.4807  0.1857 -0.0134
55963SOL    HW174747   7.660   8.851   8.240  0.8922  0.5123  1.0159
55963SOL    HW274748   7.780   8.878   8.151 -0.1194  1.1804 -0.1728
55964SOL     OW74749   1.512   7.926   0.315 -0.3259 -0.4772  0.2777
55964SOL    HW174750   1.452   7.953   0.384 -1.2793 -1.3749 -0.1739
55964SOL    HW274751   1.471   7.848   0.277 -0.5348  0.7450 -2.2012
55965SOL     OW74752   2.540   5.220  12.554  0.7369 -0.0184  0.0483
55965SOL    HW174753   2.463   5.164  12.542  0.7449  0.0399 -0.2858
55965SOL    HW274754   2.541   5.241  12.648 -0.6389  1.3935 -0.2123
55966SOL     OW74755   9.389   3.288   1.316  0.0824  0.6565  0.3347
55966SOL    HW174756   9.405   3.205   1.272  1.1982  1.3426 -0.6205
55966SOL    HW274757   9.422   3.276   1.405  0.0535  0.0284  0.2618
55967SOL     OW74758  10.168   5.469   3.662 -0.1881  0.2734 -0.2558
55967SOL    HW174759  10.203   5.557   3.650 -1.4314  0.6502 -1.2586
55967SOL    HW274760  10.075   5.482   3.679 -0.6966 -0.9164 -1.9495
55968SOL     OW74761   0.571   2.497   1.598 -0.6037  0.4060  0.2684
55968SOL    HW174762   0.628   2.479   1.672 -1.1422  1.3160  0.9218
55968SOL    HW274763   0.533   2.412   1.575  0.6918 -0.1366  0.0703
55969SOL     OW74764   6.490  10.081   0.441 -0.1577  0.3971 -0.1057
55969SOL    HW174765   6.420  10.069   0.377  0.6199  0.5731 -1.0009
55969SOL    HW274766   6.463  10.027   0.515 -0.7754 -0.2999 -0.8162
55970SOL     OW74767   6.986   0.620   0.295  0.0838  0.0773 -0.0398
55970SOL    HW174768   6.987   0.623   0.391 -1.4651  1.1111 -0.0178
55970SOL    HW274769   7.002   0.528   0.274  0.7151 -0.1187  1.1997
55971SOL     OW74770   1.529   4.931  11.088  0.0504 -0.2464  0.0075
55971SOL    HW174771   1.604   4.935  11.147  0.4921 -0.5655 -0.5277
55971SOL    HW274772   1.504   5.022  11.074 -0.6389 -0.1861  1.4073
55972SOL     OW74773   9.634  11.251   3.912  0.0756 -0.0079 -0.7191
55972SOL    HW174774   9.634  11.300   3.830 -0.8062 -1.6142 -1.7426
55972SOL    HW274775   9.690  11.175   3.895 -0.1624 -0.3970  0.1516
55973SOL     OW74776  10.177   5.946   0.777  0.1464  0.0589  0.0226
55973SOL    HW174777  10.242   5.888   0.737  0.1966 -0.2035  0.4769
55973SOL    HW274778  10.097   5.932   0.726  0.2222 -0.2441 -0.0131
55974SOL     OW74779   4.814   8.035  11.392  0.6326 -0.6670  0.7079
55974SOL    HW174780   4.812   8.091  11.314 -0.5298 -0.2723  0.9921
55974SOL    HW274781   4.904   8.041  11.424  0.2984  2.0690  1.4056
55975SOL     OW74782   3.012  10.304   4.031 -0.2629  0.4066 -0.1894
55975SOL    HW174783   2.977  10.217   4.011  1.5021 -0.5756  0.7406
55975SOL    HW274784   2.939  10.364   4.013 -2.0363 -1.3961  0.6036
55976SOL     OW74785  11.704   2.109  12.455 -0.2200  0.3645  0.1444
55976SOL    HW174786  11.722   2.155  12.536  1.5505 -0.4885  0.2727
55976SOL    HW274787  11.721   2.174  12.386  0.5748  0.4098  0.3786
55977SOL     OW74788   6.719  11.066   4.730 -0.0906  0.0452  0.1652
55977SOL    HW174789   6.762  11.133   4.677 -1.8046  1.1422  0.1113
55977SOL    HW274790   6.792  11.012   4.763  1.1915  0.8928 -1.1607
55978SOL     OW74791   3.279   2.843   1.554  0.0575  0.0833 -0.7497
55978SOL    HW174792   3.233   2.857   1.471 -0.9512 -0.5160 -0.3254
55978SOL    HW274793   3.356   2.792   1.530  0.2927  0.7510 -1.4388
55979SOL     OW74794   5.872   8.323   0.372 -0.4257 -0.0372 -0.4201
55979SOL    HW174795   5.872   8.400   0.429  0.9767 -0.8311  0.7208
55979SOL    HW274796   5.946   8.336   0.313 -0.3684 -0.3861 -0.4270
55980SOL     OW74797   1.044  10.132   8.572  0.0052 -0.0370  0.3528
55980SOL    HW174798   1.117  10.193   8.570  0.4384 -0.5556  0.1773
55980SOL    HW274799   1.039  10.104   8.664  0.4759 -0.5330  0.2306
55981SOL     OW74800   6.533   4.332   0.617 -0.0621 -0.4327 -1.0396
55981SOL    HW174801   6.473   4.279   0.565 -0.7988 -0.0766 -0.5683
55981SOL    HW274802   6.510   4.314   0.708  1.0846 -0.8946 -0.8316
55982SOL     OW74803  10.334   7.394   3.880  0.3124  0.0457  0.4162
55982SOL    HW174804  10.261   7.437   3.835  0.3069 -0.4167 -0.0210
55982SOL    HW274805  10.356   7.453   3.952  1.1240  1.4217 -0.9030
55983SOL     OW74806   6.203   0.524   1.108 -0.0429  0.1436  0.2154
55983SOL    HW174807   6.258   0.598   1.082  1.1123 -1.1889 -1.3507
55983SOL    HW274808   6.239   0.497   1.193  0.4582  0.4988  0.1254
55984SOL     OW74809   9.449   1.066   9.901  0.1176  0.1258  0.1428
55984SOL    HW174810   9.386   1.134   9.924  0.1766  0.9080 -1.7762
55984SOL    HW274811   9.414   0.986   9.940 -1.5465  0.7202 -0.0579
55985SOL     OW74812   3.094   1.046   1.601 -0.1312 -0.1431  0.5269
55985SOL    HW174813   3.049   0.986   1.541  0.4093 -1.7232  1.6584
55985SOL    HW274814   3.187   1.033   1.582 -0.0015  0.2428  0.8881
55986SOL     OW74815   6.345  11.435  11.570 -0.5137  0.3584 -0.6221
55986SOL    HW174816   6.397  11.477  11.502 -2.0207  2.0481 -0.8105
55986SOL    HW274817   6.332  11.503  11.636 -0.4007 -0.7856  0.6121
55987SOL     OW74818   9.004   0.519   4.534 -0.7579 -0.1304  0.0411
55987SOL    HW174819   8.928   0.464   4.554  0.2110 -1.3734  0.4591
55987SOL    HW274820   9.001   0.530   4.439 -0.5062 -1.6968 -0.1889
55988SOL     OW74821   3.045   2.309   3.400  0.5935 -0.2580 -0.2585
55988SOL    HW174822   2.998   2.386   3.367 -1.2161 -1.2954 -0.2486
55988SOL    HW274823   3.089   2.339   3.479 -1.8300  0.3267  0.9647
55989SOL     OW74824  10.973   6.833   8.700 -1.2366  0.4338  0.3600
55989SOL    HW174825  11.034   6.771   8.661 -1.4042  1.2918 -1.3424
55989SOL    HW274826  10.973   6.812   8.794  1.4594  0.2383  0.3712
55990SOL     OW74827   9.406   4.662   9.832  0.5412  0.1472 -0.6134
55990SOL    HW174828   9.424   4.628   9.744  2.9560 -0.5486  0.0863
55990SOL    HW274829   9.405   4.584   9.888 -0.1488  0.6670  0.1142
55991SOL     OW74830   7.773   7.362   8.028 -0.1699  0.2657 -0.5856
55991SOL    HW174831   7.799   7.344   7.938  0.6479 -0.5087 -0.2160
55991SOL    HW274832   7.781   7.277   8.072  1.3330  0.9978  0.6549
55992SOL     OW74833   8.224   5.052   6.456 -0.4092 -0.4546  0.4121
55992SOL    HW174834   8.220   5.120   6.524 -1.1564 -0.8583  0.7869
55992SOL    HW274835   8.236   4.970   6.505 -0.1853 -0.6680  0.0061
55993SOL     OW74836   6.472  12.577  12.439  0.2117  0.4866  0.0891
55993SOL    HW174837   6.512  12.565  12.526  0.9840 -2.0165 -0.5267
55993SOL    HW274838   6.546  12.588  12.380 -0.1360 -0.8013 -0.6151
55994SOL     OW74839  11.060   9.795   0.728  0.1445 -0.3999 -0.4693
55994SOL    HW174840  11.036   9.751   0.647 -3.1344 -1.6518  0.9490
55994SOL    HW274841  11.117   9.733   0.773 -0.1244 -0.8548 -0.7454
55995SOL     OW74842  11.653  10.301   1.258 -0.0368  0.0995 -0.2392
55995SOL    HW174843  11.631  10.271   1.346  0.9972  2.1374  0.7984
55995SOL    HW274844  11.603  10.382   1.248  0.6869  0.4599 -1.0717
55996SOL     OW74845   6.154   4.257  10.609 -0.7585 -0.1137  0.4236
55996SOL    HW174846   6.158   4.170  10.569 -1.5645  0.0254  0.0263
55996SOL    HW274847   6.241   4.294  10.596 -0.9367 -0.1473 -1.0316
55997SOL     OW74848   1.119   3.521   8.050 -0.1054  0.3334 -0.0554
55997SOL    HW174849   1.075   3.600   8.082 -2.2304 -1.5169  2.0053
55997SOL    HW274850   1.166   3.487   8.125  0.2344 -0.7119 -0.7169
55998SOL     OW74851   2.146   3.156  11.981 -0.1333  0.0157  0.5216
55998SOL    HW174852   2.233   3.189  12.005  0.0858  0.0683 -0.3258
55998SOL    HW274853   2.087   3.230  11.996  0.2124  0.5013 -0.4231
55999SOL     OW74854   7.861   4.046  10.851 -0.6555 -0.6231  0.1669
55999SOL    HW174855   7.937   4.065  10.796  0.0273 -0.5279  1.1118
55999SOL    HW274856   7.892   4.061  10.940 -1.0529 -2.8879  0.7605
56000SOL     OW74857   8.074   8.307   1.355 -0.1757 -0.0559  0.6202
56000SOL    HW174858   8.142   8.344   1.298  1.3684 -2.0017  1.0703
56000SOL    HW274859   8.076   8.213   1.336 -0.0504 -0.7028  3.3595
56001SOL     OW74860   3.362  11.033  11.865 -0.8029 -0.1365  0.3129
56001SOL    HW174861   3.369  11.116  11.816  2.2771 -0.0126  0.7588
56001SOL    HW274862   3.293  11.049  11.929 -2.3538  1.0068 -1.5386
56002SOL     OW74863  12.180  11.393  10.766  0.1328  0.3739 -0.2034
56002SOL    HW174864  12.205  11.480  10.734  2.1141  0.8189  2.1684
56002SOL    HW274865  12.259  11.340  10.757 -0.0741 -0.2425  1.2473
56003SOL     OW74866   9.097   2.487  11.667  0.4602 -0.0236  0.5525
56003SOL    HW174867   9.053   2.533  11.596  0.2338  0.4537  0.9972
56003SOL    HW274868   9.112   2.399  11.633  1.8796  0.6668 -0.7201
56004SOL     OW74869   8.486   3.259   1.600 -0.2910 -0.4142  0.0785
56004SOL    HW174870   8.516   3.233   1.513 -0.3149  0.8654 -0.3240
56004SOL    HW274871   8.415   3.321   1.584  0.1472  0.3503  1.0018
56005SOL     OW74872   0.936   8.432   9.955  0.4483 -0.1165  0.3088
56005SOL    HW174873   0.986   8.486  10.016 -1.3694  0.5225  1.3054
56005SOL    HW274874   0.961   8.342   9.976  3.1009  0.2055 -1.0023
56006SOL     OW74875   8.551   9.084   1.349  0.0410 -0.6205  0.6649
56006SOL    HW174876   8.621   9.043   1.400 -0.3950 -1.1426  0.8501
56006SOL    HW274877   8.484   9.106   1.413  0.6601  1.3107  0.7318
56007SOL     OW74878   4.040   2.810  10.902  0.5222 -0.4968  0.0643
56007SOL    HW174879   4.037   2.780  10.993 -0.1071 -0.9185 -0.0849
56007SOL    HW274880   4.070   2.901  10.908  1.9130 -0.9617  0.5717
56008SOL     OW74881   0.708   6.585   3.047 -0.4680 -0.4534 -0.7171
56008SOL    HW174882   0.781   6.636   3.013  0.1695 -1.2096 -0.5118
56008SOL    HW274883   0.665   6.550   2.969 -1.1265  0.6566 -0.8780
56009SOL     OW74884   1.898   0.339   6.392 -0.2937  0.2208  0.0012
56009SOL    HW174885   1.802   0.334   6.388 -0.5024  1.5285  2.0752
56009SOL    HW274886   1.919   0.425   6.354 -0.0521  0.4724  0.7006
56010SOL     OW74887   1.723   2.398  12.131 -0.0548 -0.1713  0.3949
56010SOL    HW174888   1.800   2.456  12.128  0.7544 -1.1237 -3.4080
56010SOL    HW274889   1.757   2.315  12.162 -0.2620  0.1613  1.5719
56011SOL     OW74890   5.081   3.009   8.031  0.1134  0.9053 -0.8463
56011SOL    HW174891   5.024   3.039   7.960  0.2899  1.2968 -0.8260
56011SOL    HW274892   5.039   2.929   8.063  0.2435  0.5090 -1.6518
56012SOL     OW74893   1.108   8.359   5.234 -0.2293  0.7657 -0.0270
56012SOL    HW174894   1.172   8.389   5.170 -0.5031  1.5064  0.0402
56012SOL    HW274895   1.139   8.272   5.260 -0.3273  0.2866 -1.4461
56013SOL     OW74896   1.522   1.037   0.653 -0.1475 -0.1217  0.1532
56013SOL    HW174897   1.531   1.045   0.558 -0.4300 -1.2316  0.0184
56013SOL    HW274898   1.549   0.947   0.673 -1.9760 -0.5643  0.8547
56014SOL     OW74899   0.086   7.112  10.594  0.0012 -0.3731  0.9036
56014SOL    HW174900   0.068   7.160  10.513  0.5362 -0.4312  0.7399
56014SOL    HW274901   0.019   7.043  10.596  1.1337 -1.6160 -0.5420
56015SOL     OW74902   3.105  11.649   5.720 -0.1244 -0.1815 -0.6920
56015SOL    HW174903   3.194  11.614   5.713  0.3238  0.0080  2.4999
56015SOL    HW274904   3.052  11.575   5.751 -0.4728  0.3456  0.0244
56016SOL     OW74905   3.597   4.112   0.667 -0.1952 -0.1961  0.3269
56016SOL    HW174906   3.518   4.088   0.715 -0.4829  0.5674  0.2488
56016SOL    HW274907   3.590   4.065   0.584 -0.1575 -0.7785  0.6475
56017SOL     OW74908   1.206  10.500   1.622  0.1277 -0.0589  0.2832
56017SOL    HW174909   1.286  10.547   1.598 -0.1911  1.4163  1.8689
56017SOL    HW274910   1.213  10.490   1.717 -1.1403 -0.7491  0.3178
56018SOL     OW74911   3.114  11.480   2.821 -0.4281 -0.4323 -0.4646
56018SOL    HW174912   3.029  11.485   2.864 -0.7264 -2.3822 -0.7423
56018SOL    HW274913   3.162  11.414   2.870 -0.2814 -1.7239 -2.2497
56019SOL     OW74914   8.174   1.774   0.813  0.3501 -0.0851 -0.0980
56019SOL    HW174915   8.098   1.833   0.809 -1.2465 -2.0696 -1.1057
56019SOL    HW274916   8.201   1.763   0.722  2.3908  1.1598  0.2999
56020SOL     OW74917   4.208   2.412   2.180 -0.6350  0.2798 -0.0203
56020SOL    HW174918   4.162   2.476   2.126 -3.7869 -3.0993 -1.7498
56020SOL    HW274919   4.292   2.399   2.136 -0.4138  2.2840 -0.2695
56021SOL     OW74920   6.428   8.692   1.770 -0.0612 -0.0409 -0.1107
56021SOL    HW174921   6.348   8.640   1.767 -1.5929  2.2381 -0.8677
56021SOL    HW274922   6.440   8.712   1.863 -0.4436 -0.3051 -0.0020
56022SOL     OW74923   8.044   0.962   5.308  0.2187 -0.0245  0.0411
56022SOL    HW174924   8.128   0.930   5.341  1.4502  2.3613 -0.6203
56022SOL    HW274925   8.067   1.020   5.236 -2.0530  0.3560 -0.4408
56023SOL     OW74926   3.191  10.979   1.052 -0.5298  0.1646 -0.0632
56023SOL    HW174927   3.195  10.893   1.011 -0.1706 -0.8506  1.9312
56023SOL    HW274928   3.117  11.023   1.011 -0.2689 -0.8136 -1.6349
56024SOL     OW74929   1.697  11.081  12.161  0.0048  0.3338  0.0789
56024SOL    HW174930   1.714  11.095  12.068  1.0377  2.7451  0.5283
56024SOL    HW274931   1.640  11.154  12.186  0.3632  0.1705  1.4631
56025SOL     OW74932   7.961   1.647   7.122 -0.5175  0.0212  0.2608
56025SOL    HW174933   7.907   1.647   7.200 -1.3582 -0.0299 -0.3109
56025SOL    HW274934   7.912   1.594   7.059 -0.0591  0.4220 -0.4446
56026SOL     OW74935   8.582   2.028   8.851 -0.6776  0.1733 -0.0851
56026SOL    HW174936   8.588   1.993   8.939 -1.1218 -1.6090 -0.7148
56026SOL    HW274937   8.488   2.034   8.833 -0.6276  1.7632 -0.0159
56027SOL     OW74938   7.278   0.882   4.251 -0.1742 -0.2696  0.3791
56027SOL    HW174939   7.201   0.881   4.194  1.8221  0.7185 -2.5977
56027SOL    HW274940   7.347   0.920   4.197  3.0368 -3.1301  2.0348
56028SOL     OW74941   6.771  10.847   3.978 -0.2184  0.0530  0.0103
56028SOL    HW174942   6.844  10.827   3.919  0.2973  0.6884  0.4204
56028SOL    HW274943   6.709  10.776   3.964  0.0172  0.0526 -1.1015
56029SOL     OW74944   5.500  11.593   7.204  0.0289 -0.0565 -0.2635
56029SOL    HW174945   5.455  11.628   7.127  1.0929  0.8528 -0.4885
56029SOL    HW274946   5.561  11.662   7.230 -1.3104  0.2889  2.2769
56030SOL     OW74947  11.722   7.092   9.601 -0.7092 -0.4807  0.0077
56030SOL    HW174948  11.760   7.024   9.545 -1.0731 -1.1684  0.5642
56030SOL    HW274949  11.677   7.151   9.541  2.4597  1.2774 -0.8477
56031SOL     OW74950   8.424   5.328   2.796  0.0051 -0.3421 -0.5480
56031SOL    HW174951   8.339   5.342   2.839 -0.1697  0.2361 -1.0619
56031SOL    HW274952   8.488   5.332   2.867 -0.5433 -3.0261  0.1912
56032SOL     OW74953   3.253   4.265   5.453  0.4609  0.0947 -0.1771
56032SOL    HW174954   3.232   4.197   5.390  0.3858  0.2836 -0.3598
56032SOL    HW274955   3.338   4.240   5.489  1.2704  0.7804 -1.4901
56033SOL     OW74956   6.363   6.456   7.559 -0.2466 -0.4756 -0.3351
56033SOL    HW174957   6.443   6.405   7.573  1.5761  1.8766 -1.5743
56033SOL    HW274958   6.363   6.520   7.630 -0.9158 -0.2838 -0.5017
56034SOL     OW74959  10.251  11.447   2.409  0.2481 -0.1279 -0.4757
56034SOL    HW174960  10.310  11.375   2.432  3.5580  1.2064 -3.7372
56034SOL    HW274961  10.201  11.414   2.335  0.8378  0.4574 -1.1477
56035SOL     OW74962  10.819  10.477   2.714  0.0496 -0.2443  0.1717
56035SOL    HW174963  10.838  10.527   2.635 -0.7016  1.1393  0.8249
56035SOL    HW274964  10.859  10.528   2.785  1.4640 -1.9027  0.6162
56036SOL     OW74965   1.289  11.522  12.291 -0.0649  0.2158 -0.3497
56036SOL    HW174966   1.307  11.476  12.373 -0.9778 -1.1324 -0.8611
56036SOL    HW274967   1.215  11.475  12.253 -0.1949  1.3282 -1.5561
56037SOL     OW74968   7.357   9.440   9.424 -0.2260  0.1272  0.2231
56037SOL    HW174969   7.314   9.476   9.501  0.1806 -1.0140  0.9956
56037SOL    HW274970   7.306   9.362   9.402  0.1529 -0.0122 -0.1741
56038SOL     OW74971   7.012   7.399  11.221 -0.1774 -0.1419 -0.1684
56038SOL    HW174972   6.971   7.342  11.286 -0.2841  0.4770  0.3231
56038SOL    HW274973   7.017   7.484  11.264 -0.4185  0.3280 -1.0424
56039SOL     OW74974   6.202   9.661   0.349  0.0844  0.1105 -0.4568
56039SOL    HW174975   6.113   9.625   0.353  0.5760 -1.1990 -0.7597
56039SOL    HW274976   6.240   9.621   0.270  1.1574  0.1470  0.0260
56040SOL     OW74977   0.938   4.852   2.501 -1.0767  0.3906 -0.0803
56040SOL    HW174978   1.001   4.915   2.537 -0.6547 -0.5005  0.7791
56040SOL    HW274979   0.856   4.902   2.493 -0.9462  0.8607  1.3089
56041SOL     OW74980   0.940  10.105   3.765  0.2395 -0.3908 -0.0071
56041SOL    HW174981   0.847  10.126   3.752 -0.4029 -2.5901  0.5808
56041SOL    HW274982   0.983  10.139   3.687 -0.9281  1.3029  0.0278
56042SOL     OW74983   2.963   7.111  10.601  0.3758  0.4669  0.1744
56042SOL    HW174984   3.011   7.173  10.547 -1.2023  2.4755  0.9497
56042SOL    HW274985   2.879   7.101  10.557 -0.2029  0.6035  1.2204
56043SOL     OW74986   7.042   4.669   1.014 -0.2935 -0.1971 -0.2112
56043SOL    HW174987   7.038   4.670   1.109  0.0308 -0.7269 -0.1841
56043SOL    HW274988   7.113   4.608   0.994 -0.8952 -0.7212 -0.7950
56044SOL     OW74989   4.651   4.782  12.293  0.2165 -0.1551  0.1654
56044SOL    HW174990   4.681   4.839  12.364  1.0819 -2.2279  1.5703
56044SOL    HW274991   4.599   4.840  12.237  1.8786  2.2227  0.9058
56045SOL     OW74992   3.132   7.263   3.202 -0.2998  0.2500  0.4882
56045SOL    HW174993   3.140   7.356   3.220 -0.0759 -0.0789  2.2490
56045SOL    HW274994   3.221   7.229   3.206 -0.2611  0.0861 -1.0862
56046SOL     OW74995  11.410  10.469   0.278  0.0975 -0.1062 -0.7915
56046SOL    HW174996  11.480  10.528   0.305  0.3455 -0.6350 -0.2476
56046SOL    HW274997  11.393  10.492   0.186 -0.4755  1.4287 -0.3216
56047SOL     OW74998   5.392   8.343   3.094  0.4291 -0.2200 -0.0034
56047SOL    HW174999   5.350   8.263   3.126  2.6920 -2.0126 -1.1777
56047SOL    HW275000   5.340   8.369   3.018 -0.5678 -0.3323  0.6316
56048SOL     OW75001   3.544   9.730   3.203  0.4828 -0.2107  0.0701
56048SOL    HW175002   3.526   9.683   3.122 -1.1285  0.8097 -0.2025
56048SOL    HW275003   3.554   9.821   3.177  1.7387 -0.1163  0.8141
56049SOL     OW75004   8.037   1.843  10.356  0.0452 -0.2950  0.3293
56049SOL    HW175005   8.084   1.783  10.414 -0.5870 -0.9861  0.1462
56049SOL    HW275006   8.106   1.887  10.306  0.4955 -1.4413 -0.0809
56050SOL     OW75007  10.185   1.199   3.750  0.4175  0.2656 -0.5576
56050SOL    HW175008  10.095   1.169   3.738 -0.0410  2.0555 -1.9954
56050SOL    HW275009  10.212   1.230   3.664  1.8906  1.1582  0.1828
56051SOL     OW75010  10.465   3.340   5.878 -0.0605 -0.2326 -0.2309
56051SOL    HW175011  10.453   3.352   5.972  2.0228  0.4627  0.0017
56051SOL    HW275012  10.382   3.368   5.840 -0.3905  1.0580  1.3030
56052SOL     OW75013  10.065   8.090   3.299 -0.1302 -0.5096  0.1915
56052SOL    HW175014  10.016   8.172   3.295  1.6628  0.5903 -1.6664
56052SOL    HW275015  10.121   8.099   3.376 -0.8398 -0.5532  0.7174
56053SOL     OW75016   5.760   6.278  10.213 -0.3173 -0.5865 -0.0749
56053SOL    HW175017   5.734   6.366  10.239 -0.3576 -0.1980 -1.3676
56053SOL    HW275018   5.720   6.265  10.127 -1.3236 -2.3464  0.6203
56054SOL     OW75019   9.209   5.550   4.053 -0.0527 -0.4986  0.0337
56054SOL    HW175020   9.175   5.609   4.121  0.5153 -2.9802  2.6604
56054SOL    HW275021   9.298   5.529   4.081 -0.8014 -3.9102  0.2688
56055SOL     OW75022   8.395   2.047   7.908  0.0151 -0.8302  0.2652
56055SOL    HW175023   8.318   2.019   7.958 -0.6063 -0.2622 -0.3343
56055SOL    HW275024   8.459   1.978   7.921 -0.2289 -0.8458  1.5985
56056SOL     OW75025   2.182   3.028   0.238 -0.3725  0.2567  0.7669
56056SOL    HW175026   2.140   3.075   0.166 -0.0601 -1.0864 -0.3415
56056SOL    HW275027   2.216   3.097   0.295  0.9344  1.4294 -1.2734
56057SOL     OW75028  11.153   7.837   7.950  0.0297  0.3181  0.4918
56057SOL    HW175029  11.238   7.858   7.990  0.5543 -0.1557 -0.3586
56057SOL    HW275030  11.159   7.872   7.862  0.1453 -1.5291 -0.2793
56058SOL     OW75031   5.713   8.410   8.059 -0.6345  0.2405 -0.0243
56058SOL    HW175032   5.764   8.343   8.103  0.7086  1.3043  0.1125
56058SOL    HW275033   5.623   8.377   8.061 -0.0630 -1.3911  0.2915
56059SOL     OW75034   7.508   7.853   5.641 -0.1594  0.0621  0.2388
56059SOL    HW175035   7.544   7.941   5.645  0.8159 -0.2907 -0.5561
56059SOL    HW275036   7.450   7.848   5.718 -0.3274  1.4198  0.2255
56060SOL     OW75037   6.287   8.636   9.291  0.2330 -0.1814  0.1116
56060SOL    HW175038   6.240   8.622   9.209  0.2677 -0.6423  0.1679
56060SOL    HW275039   6.322   8.550   9.314  3.1320  0.5344 -1.1260
56061SOL     OW75040   0.131   3.176   7.053  0.2554  0.2388  0.7628
56061SOL    HW175041   0.117   3.269   7.072 -0.0905  0.2257  0.5813
56061SOL    HW275042   0.220   3.173   7.017 -0.0237  0.6235 -0.0016
56062SOL     OW75043  12.028   7.799  11.490  0.9000  0.2389  0.6077
56062SOL    HW175044  12.005   7.837  11.574  0.5625  2.7286 -0.5057
56062SOL    HW275045  11.944   7.779  11.449  1.0126  0.3104  0.3372
56063SOL     OW75046   9.670   3.179   0.397  0.5482  0.0441  0.3533
56063SOL    HW175047   9.593   3.202   0.346  0.7805  2.4779  0.9693
56063SOL    HW275048   9.730   3.253   0.385  2.9714 -1.8856 -0.3490
56064SOL     OW75049   9.534   2.836   3.029  0.0077 -0.2845 -0.1996
56064SOL    HW175050   9.516   2.869   3.117  2.5382 -0.9683  0.6588
56064SOL    HW275051   9.481   2.757   3.022  0.4486 -0.7057  1.0586
56065SOL     OW75052   2.369   1.150   0.735  0.0179 -0.1294  0.3965
56065SOL    HW175053   2.461   1.161   0.712 -0.3028 -1.2862 -1.6627
56065SOL    HW275054   2.348   1.061   0.707 -2.1781  0.7058 -0.8324
56066SOL     OW75055   5.169  12.018   7.328  0.2767 -0.1027  0.1024
56066SOL    HW175056   5.158  12.112   7.341 -0.8662 -0.3862  1.4521
56066SOL    HW275057   5.229  11.991   7.398  0.2764 -0.4589 -0.0308
56067SOL     OW75058   9.401   2.907   9.648  0.7311  0.0572  0.0457
56067SOL    HW175059   9.323   2.852   9.653 -0.1486  1.1507 -1.0155
56067SOL    HW275060   9.447   2.877   9.570  0.5616  0.4011 -0.1933
56068SOL     OW75061   3.673   0.194   9.355 -0.3982  0.0863  0.1229
56068SOL    HW175062   3.645   0.260   9.292 -0.9547  0.6706  0.9542
56068SOL    HW275063   3.593   0.171   9.403  0.4398  1.7006  2.4704
56069SOL     OW75064   9.676   5.579   8.360 -0.5846  0.5786 -0.0400
56069SOL    HW175065   9.634   5.493   8.363 -0.2567  0.4504  2.2241
56069SOL    HW275066   9.655   5.613   8.273 -2.2042 -1.0354 -0.3252
56070SOL     OW75067   0.058  12.292   1.010  0.1213 -0.4086  0.1725
56070SOL    HW175068   0.121  12.278   1.081 -0.4647  0.5353  0.9003
56070SOL    HW275069   0.090  12.238   0.938  0.4157 -1.8656  1.3431
56071SOL     OW75070   7.713   4.606  12.546 -0.5208 -0.0632  0.4790
56071SOL    HW175071   7.764   4.682  12.518  1.5744 -1.8055 -0.7553
56071SOL    HW275072   7.744   4.587  12.635  0.8923 -0.9544 -0.1667
56072SOL     OW75073   7.371  12.000  12.442  0.0900  0.1586  0.3669
56072SOL    HW175074   7.423  12.055  12.501  1.0923 -0.2211 -0.1398
56072SOL    HW275075   7.436  11.957  12.386 -0.8297  0.4005 -0.9174
56073SOL     OW75076   7.812   4.224   0.206  0.1232  0.0857 -0.2101
56073SOL    HW175077   7.738   4.271   0.167 -0.8977 -1.0460  0.2801
56073SOL    HW275078   7.873   4.293   0.232 -1.5936  1.2466  1.0371
56074SOL     OW75079   4.904   7.608   2.240 -0.2633 -0.2051  0.3916
56074SOL    HW175080   4.971   7.557   2.196 -0.8459 -0.9007  0.3035
56074SOL    HW275081   4.828   7.604   2.182 -0.8913 -0.7483  1.2314
56075SOL     OW75082   7.710   1.687   7.559  0.4968 -0.1907 -0.2684
56075SOL    HW175083   7.783   1.727   7.606  0.8200 -1.3356  0.2195
56075SOL    HW275084   7.708   1.597   7.589 -1.1830 -0.1651 -0.2110
56076SOL     OW75085   7.674   1.724   1.023  0.3602 -0.0482 -0.0787
56076SOL    HW175086   7.735   1.794   1.046  0.6678  0.5847 -2.5631
56076SOL    HW275087   7.723   1.644   1.042  1.5657  0.4549 -0.8861
56077SOL     OW75088   8.931   0.338  11.940 -0.1241  0.4950 -0.1115
56077SOL    HW175089   8.930   0.434  11.948 -1.8466  0.4109  1.3841
56077SOL    HW275090   8.890   0.321  11.855 -0.7101  1.0679  0.0480
56078SOL     OW75091   7.122  11.403   3.403  0.0575 -0.4292  0.1165
56078SOL    HW175092   7.193  11.453   3.360 -1.8098  0.3828 -2.2581
56078SOL    HW275093   7.105  11.330   3.344 -1.6439 -0.1169  0.1742
56079SOL     OW75094  10.607   2.281   8.812 -0.5308  0.5356  0.4835
56079SOL    HW175095  10.644   2.319   8.891  0.4294  0.8226 -0.0809
56079SOL    HW275096  10.593   2.356   8.753  1.3652  0.0675 -0.6354
56080SOL     OW75097   2.557   8.202   0.428  0.2797  0.1247 -0.4694
56080SOL    HW175098   2.541   8.168   0.340 -1.2460 -0.2135 -0.0852
56080SOL    HW275099   2.527   8.293   0.424 -1.1147 -0.2871  0.0463
56081SOL     OW75100   4.863   6.712   7.905  0.2281 -0.6023  0.5786
56081SOL    HW175101   4.865   6.661   7.986  0.3498 -1.2115  0.2004
56081SOL    HW275102   4.835   6.649   7.838  0.3769 -0.1703  0.1062
56082SOL     OW75103  11.236   2.519   9.310  0.1104  0.2684 -0.2843
56082SOL    HW175104  11.248   2.614   9.313 -2.4632  0.7115 -1.4014
56082SOL    HW275105  11.175   2.501   9.381  1.5209 -0.7913  0.7161
56083SOL     OW75106   3.237   4.228   8.773 -0.4038  0.3628  0.7141
56083SOL    HW175107   3.284   4.215   8.855  0.2894  0.0712  0.2844
56083SOL    HW275108   3.250   4.147   8.724 -0.8324  0.5208  0.3272
56084SOL     OW75109   9.058   8.595   9.364  0.7645 -0.0966 -0.2657
56084SOL    HW175110   9.093   8.590   9.453 -1.3913 -0.3153  0.6353
56084SOL    HW275111   9.001   8.519   9.357 -1.7159  1.6697 -0.5843
56085SOL     OW75112   9.396   5.482   0.297  0.2553 -0.0807  0.0149
56085SOL    HW175113   9.488   5.508   0.294  0.6148 -1.3203 -0.3909
56085SOL    HW275114   9.348   5.563   0.311  1.3763  0.6439 -0.2545
56086SOL     OW75115   8.142  10.106   8.288 -1.1384  0.4243 -0.3936
56086SOL    HW175116   8.058  10.061   8.293 -1.4170  0.9315 -0.3550
56086SOL    HW275117   8.145  10.159   8.368 -1.9083  2.2982 -1.5380
56087SOL     OW75118   6.568   0.418   6.161 -0.1486  0.4052  0.0955
56087SOL    HW175119   6.520   0.472   6.224 -0.2437  0.3131  0.1039
56087SOL    HW275120   6.557   0.328   6.193  1.6412  0.5286  1.1716
56088SOL     OW75121   0.872  10.382  10.979 -0.3002  0.3156 -0.1291
56088SOL    HW175122   0.957  10.377  11.022 -0.9370 -0.5839  1.0841
56088SOL    HW275123   0.881  10.453  10.915  1.0395  0.8948  0.6736
56089SOL     OW75124  10.998   3.549   9.240 -0.1683 -0.5059 -0.3295
56089SOL    HW175125  11.030   3.634   9.268  0.4270 -0.6352 -0.6079
56089SOL    HW275126  11.022   3.489   9.310 -1.1498 -0.3458  0.1652
56090SOL     OW75127  10.217   5.526   5.643  0.4138 -0.4331  0.2379
56090SOL    HW175128  10.220   5.473   5.723 -1.5906 -1.9832 -0.6379
56090SOL    HW275129  10.296   5.502   5.594  0.1636 -1.6844  0.4254
56091SOL     OW75130   9.897   7.219   7.410  0.7674 -1.0425  0.1996
56091SOL    HW175131   9.897   7.124   7.396  0.1030 -0.8795 -1.0471
56091SOL    HW275132   9.805   7.241   7.422  0.9325 -0.5673  0.6176
56092SOL     OW75133   0.976   3.896   0.794  0.3353 -0.8094  0.6189
56092SOL    HW175134   0.974   3.833   0.722 -0.1918  1.6332 -1.6820
56092SOL    HW275135   0.884   3.905   0.821 -0.0319  0.8028 -0.9231
56093SOL     OW75136   5.105   8.521  10.536 -0.4749  0.5390 -0.0123
56093SOL    HW175137   5.040   8.526  10.465  0.8697 -3.1800 -1.7765
56093SOL    HW275138   5.182   8.564  10.500 -0.1220 -0.4223 -0.4392
56094SOL     OW75139  10.005   5.087   0.174  0.2423 -0.0728  0.1147
56094SOL    HW175140   9.927   5.038   0.148  0.0037  0.5597 -0.3660
56094SOL    HW275141   9.972   5.155   0.232  0.3980  0.4235 -0.3825
56095SOL     OW75142  12.019   7.982  11.145 -0.3243 -0.8204 -0.1261
56095SOL    HW175143  12.005   7.962  11.052  0.0978 -0.3903 -0.2865
56095SOL    HW275144  12.114   7.989  11.154 -0.4280  0.6291  0.0241
56096SOL     OW75145  12.308   3.009   1.274 -0.3076  0.0084 -0.2841
56096SOL    HW175146  12.373   3.067   1.233  1.1015  0.1149  1.9055
56096SOL    HW275147  12.339   2.921   1.253 -0.1767  0.0706 -0.3562
56097SOL     OW75148   8.602  11.955   1.673  0.0500  0.3946 -0.0958
56097SOL    HW175149   8.526  11.950   1.617  1.4575 -3.0360 -1.9711
56097SOL    HW275150   8.664  12.009   1.625 -0.1608  0.7938  0.0771
56098SOL     OW75151   2.788   2.218  11.155  0.1354  0.1342 -0.6935
56098SOL    HW175152   2.700   2.214  11.116  0.1447  0.1057 -0.7111
56098SOL    HW275153   2.790   2.303  11.200 -0.8893 -0.9644  1.6309
56099SOL     OW75154   9.595   8.160   9.754 -0.0200  0.2001 -0.0546
56099SOL    HW175155   9.563   8.079   9.794 -0.6475  0.0613 -0.8365
56099SOL    HW275156   9.519   8.218   9.754 -0.7546 -0.6117 -3.2244
56100SOL     OW75157   2.416   2.341  11.495 -0.0972 -0.5366  0.5079
56100SOL    HW175158   2.349   2.378  11.552 -2.7048 -1.5321 -1.6801
56100SOL    HW275159   2.412   2.395  11.416 -1.3932 -3.0908 -1.2970
56101SOL     OW75160  11.369   6.053  11.054 -0.5363  0.0682 -0.2979
56101SOL    HW175161  11.286   6.063  11.102 -1.1271 -1.2935 -1.0016
56101SOL    HW275162  11.365   6.120  10.986 -0.6953  0.5210  0.1456
56102SOL     OW75163   5.980   6.369   5.905  0.0546 -0.2233 -0.0431
56102SOL    HW175164   6.014   6.399   5.989 -0.9714 -2.4438  1.2479
56102SOL    HW275165   5.890   6.399   5.903  0.1930  0.1627 -0.5309
56103SOL     OW75166   2.366  10.728   4.744 -0.0253  0.1277  0.6374
56103SOL    HW175167   2.282  10.751   4.705 -0.5299  1.2699  2.2778
56103SOL    HW275168   2.428  10.789   4.706 -0.9262  2.8806  3.1549
56104SOL     OW75169  10.323   6.097  10.983 -0.0280  0.1479 -0.1539
56104SOL    HW175170  10.301   6.188  10.965  0.5714  0.0123 -1.7100
56104SOL    HW275171  10.396   6.078  10.924  0.1367 -1.2250  0.4518
56105SOL     OW75172   4.499   4.909   0.178  0.6815  0.4569  0.5953
56105SOL    HW175173   4.498   4.994   0.134  1.2236  1.3968  2.3174
56105SOL    HW275174   4.535   4.927   0.265 -1.9739 -0.9826  2.1348
56106SOL     OW75175   5.397   3.968   5.017  0.7969 -0.0062  0.2953
56106SOL    HW175176   5.436   3.946   4.932  1.2208  1.0554  0.2039
56106SOL    HW275177   5.448   4.043   5.048 -1.7705  2.0926 -0.2801
56107SOL     OW75178   5.394   7.841   2.301  0.1859 -0.2362 -0.8261
56107SOL    HW175179   5.376   7.751   2.328 -0.2891  0.6517  2.2467
56107SOL    HW275180   5.490   7.844   2.294  0.1478 -1.2460 -2.2429
56108SOL     OW75181   6.848   5.045  10.207  0.1291  0.1239  0.2573
56108SOL    HW175182   6.891   4.967  10.242 -1.0492 -0.0361  1.4073
56108SOL    HW275183   6.874   5.115  10.267 -0.3942  0.2234  0.3686
56109SOL     OW75184   8.835   5.290  10.109  0.5961  0.2054  0.6985
56109SOL    HW175185   8.844   5.361  10.173 -0.5866  0.0436  1.0676
56109SOL    HW275186   8.746   5.300  10.075  0.4418 -1.0508  0.6875
56110SOL     OW75187   3.418   4.172   5.065 -0.3254 -0.0373  0.3285
56110SOL    HW175188   3.464   4.194   4.984 -1.4963  1.3428 -0.0119
56110SOL    HW275189   3.358   4.102   5.040 -2.3024  1.8625 -0.6580
56111SOL     OW75190   4.507   1.720   2.287  0.0467 -0.0333  0.7397
56111SOL    HW175191   4.474   1.653   2.348 -1.4249 -0.1052 -0.0911
56111SOL    HW275192   4.436   1.784   2.281  0.5911  0.5066 -0.1254
56112SOL     OW75193   5.220   6.053   1.540 -0.2788 -0.5490 -0.1434
56112SOL    HW175194   5.139   6.101   1.521 -0.8297 -0.9580  1.0719
56112SOL    HW275195   5.285   6.092   1.481 -0.5842  1.9941  1.0301
56113SOL     OW75196   7.526   5.249   3.239  0.0222  0.0326  0.2834
56113SOL    HW175197   7.594   5.284   3.181  1.6430 -0.7211  1.6327
56113SOL    HW275198   7.499   5.167   3.197 -0.7605  0.7735 -0.7246
56114SOL     OW75199   1.233   7.736   4.627  0.3355 -0.4369  0.2847
56114SOL    HW175200   1.272   7.783   4.701 -0.3321  0.4765  0.0694
56114SOL    HW275201   1.260   7.786   4.550  1.6427 -1.7866 -0.2049
56115SOL     OW75202  12.454  11.260   1.829 -0.5590 -0.0783  0.0226
56115SOL    HW175203  12.398  11.259   1.906 -0.0794 -0.0207  0.3769
56115SOL    HW275204  12.463  11.353   1.806  0.0353 -0.0205  0.4511
56116SOL     OW75205   1.573   5.294   4.260  0.0647  0.0765 -0.4802
56116SOL    HW175206   1.522   5.365   4.221  1.0031  0.0461 -1.8200
56116SOL    HW275207   1.663   5.310   4.232  0.6112 -0.5913  0.7756
56117SOL     OW75208  10.477   4.012  10.398  0.0572  0.0656 -0.1044
56117SOL    HW175209  10.545   3.946  10.409 -0.3396 -0.7129 -1.9405
56117SOL    HW275210  10.415   3.973  10.336 -1.9506  0.8516  1.3030
56118SOL     OW75211   6.802   0.998  12.507 -0.2773  0.1699  0.2502
56118SOL    HW175212   6.737   0.952  12.453  0.0183  1.7721 -1.5916
56118SOL    HW275213   6.817   0.940  12.582 -1.8580 -1.4503 -0.6129
56119SOL     OW75214   4.022   7.719   7.570 -0.3986 -0.4806 -0.2321
56119SOL    HW175215   4.013   7.630   7.604 -2.6114 -0.1957  0.1091
56119SOL    HW275216   3.968   7.720   7.491  2.6863 -0.4249 -2.5022
56120SOL     OW75217   3.694   4.767   7.165  0.0781  0.0899  0.4922
56120SOL    HW175218   3.696   4.782   7.260 -0.7461 -2.2118  0.9459
56120SOL    HW275219   3.602   4.750   7.145 -0.0715  2.3962 -1.1176
56121SOL     OW75220   9.675   8.774   4.982  0.5040 -0.5524  0.4257
56121SOL    HW175221   9.706   8.729   4.903  0.6001  0.0473  0.1219
56121SOL    HW275222   9.719   8.859   4.981  0.9093 -0.7342  1.4039
56122SOL     OW75223   1.730   4.446  10.371  0.2845 -0.0075  0.8552
56122SOL    HW175224   1.768   4.475  10.454  0.9235 -1.0685  0.9502
56122SOL    HW275225   1.658   4.389  10.396  0.4224 -0.2606  0.6748
56123SOL     OW75226   7.709   8.987  11.840 -0.0315 -0.5833 -0.2676
56123SOL    HW175227   7.753   8.999  11.756  2.2622 -0.4713  0.8668
56123SOL    HW275228   7.715   9.073  11.882 -0.8474 -0.7299  0.1823
56124SOL     OW75229   9.239  10.259   4.040 -0.4746 -0.1848  0.6125
56124SOL    HW175230   9.237  10.166   4.061  1.8675 -0.3473  0.3695
56124SOL    HW275231   9.184  10.267   3.961 -0.3233 -1.4280  0.3637
56125SOL     OW75232   0.266   8.804  10.547  0.1929  0.5608 -0.1312
56125SOL    HW175233   0.244   8.711  10.547  0.4752  0.4925  0.0342
56125SOL    HW275234   0.215   8.840  10.474  1.3958 -0.0443 -1.3274
56126SOL     OW75235   1.198   4.323   0.791 -0.6960 -0.0045  0.1623
56126SOL    HW175236   1.129   4.345   0.854 -0.8303  0.2012 -0.0552
56126SOL    HW275237   1.165   4.246   0.745 -1.4210  0.9041 -0.9084
56127SOL     OW75238  11.424   7.962   9.734 -0.2598  0.3399 -0.2576
56127SOL    HW175239  11.399   8.052   9.714  1.0516  0.8119  0.1416
56127SOL    HW275240  11.437   7.921   9.648  0.2819  0.8727 -0.4351
56128SOL     OW75241   3.248   0.642   4.635 -0.3601 -0.0573  0.4936
56128SOL    HW175242   3.170   0.587   4.639 -0.5673  0.1051 -0.8886
56128SOL    HW275243   3.249   0.676   4.545  1.5435 -0.4051  0.3439
56129SOL     OW75244   3.087   1.914   7.667  0.4625 -0.2075  0.5521
56129SOL    HW175245   2.993   1.924   7.682  0.1580 -0.4490 -1.0132
56129SOL    HW275246   3.120   2.003   7.658 -0.0350 -0.1554 -1.0640
56130SOL     OW75247   6.295   0.751   4.027 -0.4297  0.6767  0.3111
56130SOL    HW175248   6.276   0.841   3.999  0.7478  0.1476 -2.4976
56130SOL    HW275249   6.256   0.696   3.959 -0.5283 -0.9411  1.6102
56131SOL     OW75250   1.791   7.706   8.606 -0.2085  0.1459 -0.0206
56131SOL    HW175251   1.744   7.775   8.653 -1.3000 -0.8355  0.3968
56131SOL    HW275252   1.726   7.670   8.545  0.4167 -0.3226 -0.4206
56132SOL     OW75253   7.080   9.429   0.010  0.3125  0.4709  0.6520
56132SOL    HW175254   7.107   9.519  -0.006  0.4687  0.3710  0.3533
56132SOL    HW275255   7.000   9.418  -0.042  0.9842  0.0580 -0.3183
56133SOL     OW75256  10.515   8.141  12.204  0.2919  0.2125 -0.1173
56133SOL    HW175257  10.495   8.048  12.214 -1.2522  0.5708  0.4461
56133SOL    HW275258  10.607   8.149  12.229  1.1281 -1.4700 -2.2599
56134SOL     OW75259  10.361   1.738   8.000  0.0536 -0.2138  0.2207
56134SOL    HW175260  10.390   1.826   8.024 -0.2313 -0.5469  1.9151
56134SOL    HW275261  10.266   1.739   8.014  0.2324 -1.1871  1.6791
56135SOL     OW75262   9.394   6.229   9.757 -0.1416 -0.4633  0.3660
56135SOL    HW175263   9.410   6.138   9.731 -0.5561 -0.5051  0.2435
56135SOL    HW275264   9.461   6.248   9.822 -0.8660 -1.3025  1.4051
56136SOL     OW75265   2.862   6.450   0.150  0.4728  0.0817  0.1246
56136SOL    HW175266   2.776   6.472   0.113 -0.4601 -1.6994  1.0865
56136SOL    HW275267   2.917   6.525   0.129 -0.6149  0.1926 -2.7921
56137SOL     OW75268   9.315   6.887  11.891  0.4295  0.0017 -0.0279
56137SOL    HW175269   9.335   6.871  11.983  0.6971 -1.6974 -0.3578
56137SOL    HW275270   9.400   6.897  11.849  0.4167 -1.5736 -0.4713
56138SOL     OW75271   9.521   9.487   3.259 -0.3188  0.1312  0.6252
56138SOL    HW175272   9.570   9.406   3.257 -1.0975 -0.4878  2.9441
56138SOL    HW275273   9.445   9.471   3.203  1.0467  0.4269 -1.4222
56139SOL     OW75274  10.949   8.693   6.179 -0.5269  0.1266 -0.5721
56139SOL    HW175275  11.021   8.694   6.242  0.1441  2.9669 -1.2458
56139SOL    HW275276  10.874   8.726   6.228 -0.7334 -0.3809 -0.5415
56140SOL     OW75277   7.521  12.335   5.147  0.4135 -0.4499  0.4695
56140SOL    HW175278   7.484  12.360   5.063  0.1562 -0.9970  0.4136
56140SOL    HW275279   7.572  12.411   5.175  0.6498 -0.3302 -0.2643
56141SOL     OW75280   7.420   2.525   2.529  0.2648 -0.4076 -0.6064
56141SOL    HW175281   7.439   2.616   2.552  0.5692 -0.8481  0.9684
56141SOL    HW275282   7.505   2.490   2.501 -0.0795  0.0893 -2.4431
56142SOL     OW75283  11.040   9.308   8.989  0.1515 -0.0432 -0.0783
56142SOL    HW175284  11.013   9.260   8.910  0.3616 -1.9428  0.9494
56142SOL    HW275285  11.124   9.270   9.013  0.8686  1.6258  0.1943
56143SOL     OW75286  11.323   2.825   2.098 -0.0015 -0.0628 -1.2152
56143SOL    HW175287  11.406   2.783   2.076  0.6498  0.1144  0.7127
56143SOL    HW275288  11.256   2.767   2.061  0.8494 -2.8031  1.1636
56144SOL     OW75289   3.217   4.050   2.952 -0.2425  0.0280 -0.2106
56144SOL    HW175290   3.228   4.063   3.046  1.4122  0.9983 -0.4925
56144SOL    HW275291   3.134   4.003   2.944 -0.2916 -0.3220  1.7387
56145SOL     OW75292   2.324   9.876   2.520  0.3469 -0.0918 -0.8253
56145SOL    HW175293   2.388   9.815   2.558  0.4556 -1.3218 -2.8566
56145SOL    HW275294   2.251   9.874   2.581  0.8765 -1.2769 -0.1826
56146SOL     OW75295  12.297   2.287  10.961 -0.1793 -0.1204 -0.4476
56146SOL    HW175296  12.359   2.343  10.914  0.6662 -0.6703 -0.0151
56146SOL    HW275297  12.248   2.242  10.892 -2.1043  2.3846 -0.8561
56147SOL     OW75298   2.989   7.199   1.549 -0.2703  0.1680  0.8131
56147SOL    HW175299   3.008   7.241   1.465  0.8486  0.8287  1.3651
56147SOL    HW275300   3.005   7.106   1.534  0.6119  0.3635  0.4648
56148SOL     OW75301   3.670   6.355  11.693  0.4439  0.5936 -0.3918
56148SOL    HW175302   3.678   6.316  11.606  0.4281  0.0584 -0.1534
56148SOL    HW275303   3.593   6.412  11.688  1.1265  1.4834 -1.0765
56149SOL     OW75304   2.736  12.155   0.581  0.4137 -0.5140  0.0265
56149SOL    HW175305   2.705  12.066   0.562 -0.8239 -0.0431 -0.1940
56149SOL    HW275306   2.831  12.146   0.583  0.5342 -1.2286 -3.2759
56150SOL     OW75307   1.584   7.896   6.602  0.0022 -0.9240  0.2332
56150SOL    HW175308   1.581   7.806   6.635 -1.0256 -1.3017 -0.8059
56150SOL    HW275309   1.673   7.926   6.621  0.6525 -2.4693 -0.1827
56151SOL     OW75310   5.596   2.226   9.313 -0.3972 -0.3773 -0.2766
56151SOL    HW175311   5.624   2.145   9.272 -0.6558  0.0225 -1.2703
56151SOL    HW275312   5.674   2.282   9.312  0.3099 -1.1961  2.0378
56152SOL     OW75313  11.609   7.999   1.679 -0.3774 -0.1064 -0.3062
56152SOL    HW175314  11.626   8.051   1.757 -0.4138 -1.6390  0.7802
56152SOL    HW275315  11.518   7.970   1.688 -0.6200  0.2902 -1.2958
56153SOL     OW75316   3.435   2.302   2.639 -0.3691 -0.0020  0.1107
56153SOL    HW175317   3.421   2.349   2.721 -0.8007  0.2108 -0.0839
56153SOL    HW275318   3.350   2.261   2.620 -0.6219  0.9447 -0.8619
56154SOL     OW75319   6.721  12.472   4.581  0.5334  0.4613 -0.0054
56154SOL    HW175320   6.628  12.484   4.597  0.5458  1.0189 -0.3196
56154SOL    HW275321   6.729  12.385   4.544  0.1791  0.2776  0.3451
56155SOL     OW75322   4.254   4.540   5.145 -0.2452  0.1923  0.0544
56155SOL    HW175323   4.188   4.515   5.080  0.9933 -2.0920 -0.4233
56155SOL    HW275324   4.221   4.502   5.227 -0.1630  0.1696  0.0762
56156SOL     OW75325   7.879   5.092  10.064 -0.0974 -0.1103  0.6981
56156SOL    HW175326   7.900   5.008  10.105  1.6080  0.1340  0.4127
56156SOL    HW275327   7.795   5.078  10.022 -1.4660 -0.6727  3.4144
56157SOL     OW75328   0.601  11.874  11.530  0.4509 -0.0981 -0.4910
56157SOL    HW175329   0.538  11.928  11.579  0.6983  0.5786 -0.9000
56157SOL    HW275330   0.570  11.784  11.543 -0.2587  0.1761 -0.1972
56158SOL     OW75331   1.673   2.572   4.519  0.0561  0.1762 -0.1771
56158SOL    HW175332   1.599   2.512   4.529 -1.0498  1.4652 -0.2587
56158SOL    HW275333   1.748   2.524   4.553 -1.2457 -0.3573  2.1837
56159SOL     OW75334   0.692   3.170   6.485 -0.9513 -0.0242  0.3145
56159SOL    HW175335   0.683   3.125   6.400  0.7690  0.0430  0.0672
56159SOL    HW275336   0.642   3.116   6.546  0.4705 -1.9180 -0.1135
56160SOL     OW75337   0.866  10.594   3.359 -0.1653  0.1289  0.2825
56160SOL    HW175338   0.942  10.536   3.352  0.0386  0.5535 -1.4322
56160SOL    HW275339   0.904  10.682   3.357 -0.6347  0.3373  0.5246
56161SOL     OW75340   4.798   7.536   4.302 -0.5562 -0.3940 -0.0617
56161SOL    HW175341   4.772   7.525   4.394  1.5131  0.1611  0.6366
56161SOL    HW275342   4.724   7.501   4.253 -0.0875 -4.6666  1.8266
56162SOL     OW75343   7.002  12.175   6.312  0.4082  0.4547  0.9243
56162SOL    HW175344   6.948  12.096   6.310 -0.4894  0.9971  2.2809
56162SOL    HW275345   7.082  12.149   6.359 -0.0890  0.4484  1.7942
56163SOL     OW75346   0.129   6.150   9.007  0.3622  0.0450 -0.1772
56163SOL    HW175347   0.163   6.120   9.091 -2.6231 -0.9789  0.7901
56163SOL    HW275348   0.148   6.078   8.946  1.6779  0.3834 -0.1979
56164SOL     OW75349   9.161   7.687   4.005 -0.2812 -0.7002  0.0730
56164SOL    HW175350   9.209   7.736   3.939  1.3689 -0.9857  1.0037
56164SOL    HW275351   9.087   7.744   4.028  0.2787  0.2959 -0.5288
56165SOL     OW75352   6.442   0.307  10.142  0.3042 -0.0746  0.1852
56165SOL    HW175353   6.358   0.349  10.161  0.0314  0.1517 -1.3616
56165SOL    HW275354   6.434   0.279  10.050  1.0143 -2.2472  0.7215
56166SOL     OW75355   5.369   8.147   2.694  0.0103  0.7748 -0.3762
56166SOL    HW175356   5.385   8.184   2.781  1.0073  0.6624 -0.4990
56166SOL    HW275357   5.325   8.064   2.712  0.7038  0.4890  0.0617
56167SOL     OW75358   6.026   5.945   6.692  0.1396  0.0207 -0.1461
56167SOL    HW175359   6.027   5.851   6.709  0.0584  0.1074  0.3595
56167SOL    HW275360   5.993   5.984   6.774  1.3022  0.5782  0.0753
56168SOL     OW75361  12.128   2.104   4.848  0.0816  0.2269 -0.1448
56168SOL    HW175362  12.079   2.075   4.925  1.2977  0.2433  0.6674
56168SOL    HW275363  12.087   2.186   4.822  0.5024  0.9280  1.3232
56169SOL     OW75364   9.968   1.895   3.351 -0.2297 -0.1787  0.2114
56169SOL    HW175365   9.980   1.845   3.270 -0.8405 -0.8303  0.5128
56169SOL    HW275366   9.945   1.829   3.416 -1.0246  0.4935  0.6282
56170SOL     OW75367  11.401   9.580  11.094  0.0114  0.0477  0.4050
56170SOL    HW175368  11.417   9.485  11.091 -0.7723 -0.0761 -2.3323
56170SOL    HW275369  11.309   9.590  11.070  0.6100  1.5600 -1.4903
56171SOL     OW75370   3.206  11.693   3.794  0.0379  0.4746  0.1347
56171SOL    HW175371   3.287  11.648   3.770  0.6720  1.7065 -0.1696
56171SOL    HW275372   3.203  11.690   3.889  2.1068  3.0237  0.4088
56172SOL     OW75373   2.507   9.568   3.042 -0.3949  0.3110 -0.3004
56172SOL    HW175374   2.578   9.589   3.103  1.6074 -0.7820 -2.1170
56172SOL    HW275375   2.433   9.544   3.099  1.6417 -1.6066  1.7679
56173SOL     OW75376   2.185   7.044   8.707 -0.1405 -0.1656  0.0241
56173SOL    HW175377   2.180   7.095   8.787  0.4678 -0.7406  0.4442
56173SOL    HW275378   2.118   7.081   8.650  0.4566  1.2495  0.2180
56174SOL     OW75379   1.041   2.293   6.218 -0.5928 -0.1330 -0.8999
56174SOL    HW175380   0.996   2.209   6.232 -0.6970 -0.4828 -3.0891
56174SOL    HW275381   1.005   2.350   6.286 -1.3609 -1.5272 -0.0766
56175SOL     OW75382   4.603   7.813   0.747  0.2610 -0.9543 -0.4554
56175SOL    HW175383   4.545   7.848   0.680 -0.7749 -3.0241 -0.7378
56175SOL    HW275384   4.650   7.889   0.781 -2.1126  0.7376 -0.6874
56176SOL     OW75385   3.226  11.579  12.438 -0.3755  0.2453  0.0902
56176SOL    HW175386   3.218  11.610  12.528 -1.6108  1.5644 -0.4352
56176SOL    HW275387   3.309  11.532  12.436 -1.4790 -2.0394  2.5272
56177SOL     OW75388   5.087   1.300   6.937 -0.4066 -0.2646 -0.1475
56177SOL    HW175389   5.103   1.350   7.018 -2.4592 -0.9546  0.7550
56177SOL    HW275390   5.028   1.355   6.886 -0.4940 -0.5936 -0.4033
56178SOL     OW75391   7.840  11.084  11.797  0.3962 -0.6285 -0.6582
56178SOL    HW175392   7.862  11.122  11.882  1.7125  0.9657 -1.6487
56178SOL    HW275393   7.917  11.102  11.742 -1.4910  0.9633 -2.9783
56179SOL     OW75394   0.177  12.437   3.891  0.1266  0.0805 -0.0228
56179SOL    HW175395   0.185  12.344   3.911 -1.7084 -0.0325  0.3716
56179SOL    HW275396   0.142  12.440   3.801  1.4592  0.4383 -0.5537
56180SOL     OW75397   1.116   8.109   7.315  0.0765 -0.1555 -0.0169
56180SOL    HW175398   1.036   8.064   7.290 -0.2202  0.4054 -0.0882
56180SOL    HW275399   1.087   8.184   7.367  0.4606  0.7824 -1.0944
56181SOL     OW75400   9.420   1.319   2.730  0.4191 -0.0826 -0.1794
56181SOL    HW175401   9.501   1.370   2.733  1.9198 -2.2930 -0.3749
56181SOL    HW275402   9.422   1.276   2.645 -0.6999 -0.5632  0.0225
56182SOL     OW75403   6.589   1.250   7.830 -0.1947 -0.2288 -0.1554
56182SOL    HW175404   6.631   1.261   7.744 -0.7934 -1.0423 -0.5619
56182SOL    HW275405   6.509   1.302   7.824  0.3243  0.6499  0.3285
56183SOL     OW75406  10.858   1.006  10.401 -0.2929 -0.6027  0.1362
56183SOL    HW175407  10.872   1.061  10.324 -2.3388 -0.9163 -0.5071
56183SOL    HW275408  10.818   0.926  10.367  0.7021 -1.6279  1.3047
56184SOL     OW75409  11.719   6.354   0.564 -0.7207  0.2988 -0.1562
56184SOL    HW175410  11.674   6.436   0.544 -1.1624  0.1489  0.2014
56184SOL    HW275411  11.703   6.298   0.489 -1.7637 -0.0111  0.2788
56185SOL     OW75412   6.458   5.119   3.175 -0.3862  0.4289 -0.4681
56185SOL    HW175413   6.372   5.133   3.215 -0.6332 -0.3843 -0.6966
56185SOL    HW275414   6.444   5.136   3.082 -0.1958  0.7279 -0.4428
56186SOL     OW75415   8.938  11.286   1.626 -0.1021 -0.3376  0.6486
56186SOL    HW175416   8.912  11.207   1.577  1.2976 -0.6421  0.3364
56186SOL    HW275417   8.923  11.358   1.565  1.3943 -0.6924 -0.1999
56187SOL     OW75418   8.088   6.752  10.878 -0.0245 -0.1226 -0.3848
56187SOL    HW175419   8.018   6.749  10.943 -2.4915  2.4879 -2.6263
56187SOL    HW275420   8.065   6.683  10.815 -0.2370  0.3333 -0.8095
56188SOL     OW75421   2.065   0.157  10.086  0.0529  0.6381  0.9470
56188SOL    HW175422   2.062   0.078  10.032  1.0419  1.7528 -0.8337
56188SOL    HW275423   1.974   0.186  10.091 -0.1562  0.0612  0.5736
56189SOL     OW75424   5.614   9.011  12.234 -0.5285 -0.6208  0.2690
56189SOL    HW175425   5.534   8.982  12.191 -0.7918 -1.7529  1.4869
56189SOL    HW275426   5.679   8.945  12.210  0.3640  0.8209 -1.5563
56190SOL     OW75427  10.028   9.491   9.639  0.2454 -0.1788  0.5405
56190SOL    HW175428  10.098   9.539   9.683  2.1444 -1.0585 -1.3498
56190SOL    HW275429   9.982   9.557   9.588 -0.7709  0.5065  2.2435
56191SOL     OW75430   2.796   8.928   0.372  0.3842 -0.5632  0.2398
56191SOL    HW175431   2.772   8.862   0.306  0.3628 -0.9709  0.6462
56191SOL    HW275432   2.889   8.915   0.387 -0.0945 -2.3058  2.2299
56192SOL     OW75433  10.525   9.872   2.403  0.0928 -0.6705  0.4024
56192SOL    HW175434  10.567   9.957   2.413 -0.6802 -0.2485  0.1108
56192SOL    HW275435  10.560   9.820   2.475 -0.2114  0.2168  1.2136
56193SOL     OW75436   6.698   0.632   6.550  0.0702  0.1937  0.0380
56193SOL    HW175437   6.764   0.664   6.489 -1.8046  3.5807 -0.4330
56193SOL    HW275438   6.744   0.627   6.634  0.9593  2.7513 -0.1999
56194SOL     OW75439   5.586  11.340  10.843  0.3769  0.1192 -0.4896
56194SOL    HW175440   5.492  11.346  10.822  0.0416 -1.9776  0.1536
56194SOL    HW275441   5.599  11.248  10.865  2.6135  0.3801 -0.5484
56195SOL     OW75442   6.165   7.691   9.087 -0.4815  0.5929  0.1520
56195SOL    HW175443   6.154   7.689   8.992 -1.2931  0.0277  0.2522
56195SOL    HW275444   6.189   7.602   9.110  1.3400  1.0888  0.3095
56196SOL     OW75445   0.166   4.148   6.825 -0.1195  0.1206 -0.2521
56196SOL    HW175446   0.193   4.238   6.841  0.2178 -0.1989  1.1198
56196SOL    HW275447   0.071   4.152   6.816 -0.2357  0.4637  1.0300
56197SOL     OW75448   4.569   0.870   1.776  0.0971 -0.0776  0.2876
56197SOL    HW175449   4.491   0.816   1.793 -0.1781  0.2570  0.1001
56197SOL    HW275450   4.534   0.951   1.740  0.4047  0.7933  1.8663
56198SOL     OW75451   8.958  12.481   5.143  0.0381  0.1913  0.0610
56198SOL    HW175452   8.944  12.556   5.087  0.7751 -0.0784 -0.5000
56198SOL    HW275453   9.050  12.457   5.130 -0.2344 -0.9316  0.0641
56199SOL     OW75454   8.473   8.742   9.240 -0.1250 -0.4163  0.0235
56199SOL    HW175455   8.466   8.653   9.275 -0.1055 -0.6562 -0.5616
56199SOL    HW275456   8.466   8.730   9.145 -3.4343  0.5407  0.0486
56200SOL     OW75457  11.761   9.557   1.314  0.3629 -0.4110 -0.5582
56200SOL    HW175458  11.765   9.548   1.409 -1.1617  0.3597 -0.3922
56200SOL    HW275459  11.691   9.620   1.298  0.8536 -0.2177 -2.1871
56201SOL     OW75460   9.246   7.785   2.148 -0.1452 -0.0861  0.9029
56201SOL    HW175461   9.269   7.786   2.241  0.8806  0.9414  0.6566
56201SOL    HW275462   9.175   7.849   2.140 -0.1771 -0.1141  0.9540
56202SOL     OW75463   0.847   4.090   4.361 -0.9732  0.0790  0.4369
56202SOL    HW175464   0.864   3.997   4.353 -0.2153  0.2465  0.0058
56202SOL    HW275465   0.929   4.132   4.335 -0.5602  0.8247  2.7304
56203SOL     OW75466   4.034   9.467   1.861 -0.1140 -0.0368 -0.1936
56203SOL    HW175467   4.100   9.429   1.919 -0.7548  0.7331  1.0852
56203SOL    HW275468   4.083   9.532   1.810  0.3339 -0.2465 -0.0396
56204SOL     OW75469   7.279   5.391  12.300 -0.4314 -0.4259  0.4364
56204SOL    HW175470   7.255   5.468  12.248  0.0404 -0.4265  0.2077
56204SOL    HW275471   7.200   5.338  12.303 -0.0583 -1.1771 -1.5995
56205SOL     OW75472   0.121  11.832  10.984 -0.3688 -0.8196  0.0966
56205SOL    HW175473   0.034  11.850  11.020 -0.9230 -0.4186 -1.3420
56205SOL    HW275474   0.165  11.916  10.984  0.0678 -1.0425  0.9190
56206SOL     OW75475   7.076   8.747   7.770  0.5012  0.3197  0.2004
56206SOL    HW175476   7.073   8.827   7.824  0.3883  0.7170 -0.3891
56206SOL    HW275477   7.022   8.685   7.818  0.1204  0.7798  0.3824
56207SOL     OW75478   6.766  10.656   2.221 -0.1680 -0.4408 -0.0762
56207SOL    HW175479   6.683  10.700   2.241 -0.6373 -1.9518  1.5960
56207SOL    HW275480   6.790  10.612   2.303  2.0627 -0.4432 -0.6563
56208SOL     OW75481   2.933   9.451  11.485  0.0609  0.6549 -0.3090
56208SOL    HW175482   2.964   9.532  11.444  0.9475  0.2068 -0.5422
56208SOL    HW275483   2.843   9.441  11.454  0.1480  1.2352 -0.7584
56209SOL     OW75484   4.804   4.187  10.383  0.1650  0.2517 -0.1582
56209SOL    HW175485   4.771   4.251  10.320 -0.4934  0.5184  0.4376
56209SOL    HW275486   4.888   4.159  10.348 -0.0698  0.5947 -1.0116
56210SOL     OW75487   6.107   5.745   2.081 -0.2513  0.2320  0.2072
56210SOL    HW175488   6.073   5.657   2.064  0.2818  0.1349 -0.4081
56210SOL    HW275489   6.119   5.784   1.995  2.4246 -0.2406  0.2605
56211SOL     OW75490  10.955   7.414   8.412  0.1484  0.1336 -0.4545
56211SOL    HW175491  10.986   7.455   8.331 -0.1711  1.6971  0.1849
56211SOL    HW275492  10.920   7.486   8.464  1.5299 -0.6183  1.6447
56212SOL     OW75493   1.711   1.733   2.494  0.0798  0.8699 -0.3083
56212SOL    HW175494   1.705   1.822   2.527 -1.3941 -0.1412  2.5142
56212SOL    HW275495   1.712   1.678   2.573  2.4371 -1.6001 -1.8636
56213SOL     OW75496   4.615   0.628   1.205  0.6568  0.5299 -0.2084
56213SOL    HW175497   4.661   0.663   1.128  3.1566 -1.9512  0.0041
56213SOL    HW275498   4.678   0.634   1.276 -0.2466 -0.6652  0.7439
56214SOL     OW75499   2.962   1.936   6.882  0.3320 -0.5550 -0.0236
56214SOL    HW175500   2.990   1.856   6.925  0.3932 -0.4880  0.0627
56214SOL    HW275501   3.039   1.968   6.836  0.2974 -0.5666 -0.0900
56215SOL     OW75502   7.193  11.206   9.098  0.3128 -0.0231  0.5127
56215SOL    HW175503   7.246  11.235   9.172 -0.9222  1.3431  0.9016
56215SOL    HW275504   7.170  11.115   9.119  0.1931  0.2656  1.6911
56216SOL     OW75505  11.718   1.996   5.664  0.0643 -0.7553  0.1690
56216SOL    HW175506  11.678   2.070   5.619  1.3331  0.6769  1.3126
56216SOL    HW275507  11.749   1.939   5.594 -1.6794 -0.6569 -0.7304
56217SOL     OW75508   2.744   6.473   2.966 -0.1098 -0.4711  0.2495
56217SOL    HW175509   2.670   6.526   2.934 -1.3120 -2.0849  0.2474
56217SOL    HW275510   2.769   6.419   2.891  0.4175 -0.6681  0.5624
56218SOL     OW75511   0.627   7.569  10.365  0.0142 -0.5948  0.1073
56218SOL    HW175512   0.680   7.647  10.377 -0.1042 -0.7668  1.9722
56218SOL    HW275513   0.570   7.590  10.290  1.4913  0.2274 -0.8322
56219SOL     OW75514  11.122  11.083   3.525 -0.5927 -0.7557  0.3789
56219SOL    HW175515  11.098  11.144   3.595  0.4420 -1.7145  1.6143
56219SOL    HW275516  11.084  11.121   3.446  0.0308  1.5107  1.0971
56220SOL     OW75517   3.852   0.332  12.478 -0.2465  0.2578 -0.5519
56220SOL    HW175518   3.889   0.361  12.562 -0.5614 -0.1644 -0.2664
56220SOL    HW275519   3.867   0.406  12.419 -0.4850  0.7609  0.0101
56221SOL     OW75520   5.800   1.832   6.351 -0.1189 -0.0182  0.1629
56221SOL    HW175521   5.830   1.762   6.292  0.2932  0.6443 -0.4296
56221SOL    HW275522   5.790   1.908   6.294 -0.6353  0.3913  0.7936
56222SOL     OW75523   7.229   5.307  10.715 -0.0282 -0.7649 -0.0029
56222SOL    HW175524   7.319   5.310  10.682 -0.4624 -2.9233 -1.5618
56222SOL    HW275525   7.208   5.399  10.734  1.9088 -0.0021 -1.2508
56223SOL     OW75526   5.455  12.291   0.743 -0.4026 -0.3836  0.1719
56223SOL    HW175527   5.469  12.259   0.654 -0.7454 -0.3276  0.0946
56223SOL    HW275528   5.535  12.339   0.764 -0.2432 -0.5541 -0.0358
56224SOL     OW75529   4.510  11.745   9.032 -0.4827 -0.2286 -0.0920
56224SOL    HW175530   4.513  11.812   9.100 -0.7125 -0.8970  0.5927
56224SOL    HW275531   4.569  11.777   8.964 -1.1151  0.9863 -0.0856
56225SOL     OW75532   6.240   7.590   8.853 -0.6037 -0.0160  0.2981
56225SOL    HW175533   6.274   7.501   8.846 -1.2512 -0.2646  0.2401
56225SOL    HW275534   6.311   7.646   8.823 -0.4941 -0.5694 -0.4856
56226SOL     OW75535   0.740   1.560  10.291 -0.1603  0.1565  0.0718
56226SOL    HW175536   0.725   1.498  10.219  0.3873  0.2644 -0.1394
56226SOL    HW275537   0.818   1.526  10.335  0.2488  0.7944 -0.1521
56227SOL     OW75538  10.223   1.325   1.915 -0.2379 -0.1412 -0.0163
56227SOL    HW175539  10.296   1.291   1.967 -0.6368 -0.0127  0.6372
56227SOL    HW275540  10.146   1.279   1.949 -0.7929  1.3886  0.9059
56228SOL     OW75541   6.983  10.196   5.706 -0.3570 -0.1174  0.5526
56228SOL    HW175542   7.066  10.150   5.718 -0.8651 -1.7075 -1.3831
56228SOL    HW275543   6.924  10.155   5.770 -0.4148 -1.1553 -0.1453
56229SOL     OW75544   8.000   7.827   8.024  1.3338  0.6091 -0.2562
56229SOL    HW175545   7.928   7.882   8.053  1.3498  1.1953 -1.2966
56229SOL    HW275546   7.959   7.744   8.000  0.7245  1.4478 -2.3666
56230SOL     OW75547   2.065   4.170   0.689 -0.2095 -0.0958  0.1053
56230SOL    HW175548   2.066   4.170   0.785 -2.0904 -3.2638  0.2589
56230SOL    HW275549   2.155   4.152   0.664  0.7772  2.7964  1.0696
56231SOL     OW75550   7.792   3.492   1.666 -0.0288  0.4066  0.0834
56231SOL    HW175551   7.714   3.456   1.626  0.3190 -2.9074  2.0463
56231SOL    HW275552   7.761   3.568   1.716 -1.1879  1.7001 -2.4324
56232SOL     OW75553  10.049   7.113   6.907 -0.0152  0.6430 -0.0363
56232SOL    HW175554   9.966   7.129   6.952  0.8218 -0.3348  2.0334
56232SOL    HW275555  10.024   7.078   6.822 -1.7555 -0.0188  0.6953
56233SOL     OW75556   5.280   3.798   3.164  0.4431  0.7276 -0.8685
56233SOL    HW175557   5.328   3.829   3.240  1.2317  0.8137 -1.3946
56233SOL    HW275558   5.253   3.709   3.187 -0.6141  1.2697  0.0842
56234SOL     OW75559   2.339   5.204   5.944 -0.1613 -0.1112  0.2760
56234SOL    HW175560   2.364   5.189   6.035  3.1803 -1.4745 -0.7023
56234SOL    HW275561   2.395   5.276   5.916  0.2493 -0.9379 -1.1490
56235SOL     OW75562   2.787   1.988  12.133 -0.3331  0.8799 -0.7605
56235SOL    HW175563   2.830   1.971  12.217  0.6668  0.3459 -1.3603
56235SOL    HW275564   2.859   2.000  12.072 -1.0387  2.4311 -1.3331
56236SOL     OW75565   9.389   5.714   2.946  0.0645  0.1805  0.4196
56236SOL    HW175566   9.370   5.805   2.968 -0.0223  0.2787 -0.0332
56236SOL    HW275567   9.476   5.717   2.905 -1.0492  0.5063 -2.1672
56237SOL     OW75568   8.625   0.246  11.508  0.2411 -0.4749  0.6330
56237SOL    HW175569   8.579   0.235  11.591 -2.5803 -2.2706 -1.0066
56237SOL    HW275570   8.641   0.156  11.478 -0.6713  0.0653 -1.6634
56238SOL     OW75571   0.028   7.215   4.168 -0.0805 -0.3636 -0.9180
56238SOL    HW175572  -0.058   7.173   4.161  0.3178 -1.1396 -1.3251
56238SOL    HW275573   0.024   7.266   4.249 -1.4588  0.8869 -1.7208
56239SOL     OW75574   5.424  10.552   2.798 -0.4578 -0.1371  0.2096
56239SOL    HW175575   5.453  10.633   2.756 -1.3352 -0.7289 -1.6539
56239SOL    HW275576   5.360  10.581   2.864 -0.1534  0.7428  0.1266
56240SOL     OW75577   7.452   0.325   3.227  0.2170  0.3797  0.6898
56240SOL    HW175578   7.389   0.397   3.220 -0.3249 -0.1199  0.3868
56240SOL    HW275579   7.413   0.265   3.290  0.4919  0.1572  0.6511
56241SOL     OW75580   5.623   7.950   8.251  0.6045 -0.3620  0.1688
56241SOL    HW175581   5.589   7.941   8.162 -1.4441  0.1616  0.8608
56241SOL    HW275582   5.712   7.914   8.246 -0.7147 -3.8518 -1.2869
56242SOL     OW75583   7.227   2.016  12.058 -0.4789 -0.2065  0.1945
56242SOL    HW175584   7.285   2.028  11.983  1.0777 -0.3608  1.3346
56242SOL    HW275585   7.205   2.104  12.087  0.2051 -0.1397  0.5157
56243SOL     OW75586   7.575   6.410   9.463 -0.6392 -0.4638  0.2935
56243SOL    HW175587   7.484   6.382   9.453 -0.2641 -2.4194  1.7550
56243SOL    HW275588   7.604   6.368   9.544  1.8923 -0.7530 -0.6881
56244SOL     OW75589   4.456   4.989   7.416  0.3606 -0.4500  0.0797
56244SOL    HW175590   4.406   4.942   7.483 -0.4555 -0.0498 -0.2398
56244SOL    HW275591   4.431   4.946   7.334  1.8561 -1.3809  0.0609
56245SOL     OW75592   4.953   5.136   0.346 -0.2143  0.2683 -0.4899
56245SOL    HW175593   4.868   5.093   0.336 -0.1438 -0.4960  1.6541
56245SOL    HW275594   4.948   5.177   0.432  2.0345 -0.9328  0.2793
56246SOL     OW75595   5.164   2.391   2.053 -0.0589 -0.1436  0.1494
56246SOL    HW175596   5.154   2.297   2.042 -0.4403 -0.0658 -0.2019
56246SOL    HW275597   5.246   2.412   2.008 -0.8974 -0.0434 -1.3944
56247SOL     OW75598   3.877   8.898   5.661 -0.2833  0.1916 -0.1647
56247SOL    HW175599   3.898   8.822   5.607  1.5065 -0.3333  1.1837
56247SOL    HW275600   3.959   8.947   5.666  0.4397 -1.0930  4.0534
56248SOL     OW75601   2.917   3.576   0.492  0.0306  0.1109  0.5104
56248SOL    HW175602   2.929   3.492   0.447 -0.5611  0.6035 -0.5889
56248SOL    HW275603   2.828   3.602   0.472  0.4267  1.3357  0.2647
56249SOL     OW75604   6.379   5.259   1.812  0.0749 -0.0826  0.3465
56249SOL    HW175605   6.308   5.200   1.836  0.5503 -1.1988 -0.8441
56249SOL    HW275606   6.418   5.219   1.734 -0.6246  2.6644 -1.5704
56250SOL     OW75607   4.149   0.831  11.337  0.0113 -0.3587  0.5185
56250SOL    HW175608   4.149   0.772  11.261 -1.6292 -1.6952  1.4749
56250SOL    HW275609   4.165   0.918  11.300  1.1519 -1.2062 -1.1121
56251SOL     OW75610   4.215   6.607  12.413 -0.0068  0.1642 -0.5077
56251SOL    HW175611   4.144   6.635  12.471 -0.2222  2.7236 -1.8513
56251SOL    HW275612   4.184   6.525  12.375 -0.1678 -1.1945  2.3538
56252SOL     OW75613   1.557  10.512   2.324  0.1076  0.2545  0.5515
56252SOL    HW175614   1.561  10.540   2.233  0.9243  1.6249  0.9851
56252SOL    HW275615   1.648  10.493   2.348  0.2063  1.8921  1.6486
56253SOL     OW75616   7.102   0.456   7.833  0.3620  0.3290 -0.0633
56253SOL    HW175617   7.074   0.547   7.830  0.9826  0.5250 -0.1587
56253SOL    HW275618   7.194   0.460   7.861  1.1335 -0.0745 -2.2967
56254SOL     OW75619   3.196   0.915  11.670  0.0629  0.8502 -0.2170
56254SOL    HW175620   3.129   0.861  11.628 -0.4545  2.4502 -1.5671
56254SOL    HW275621   3.223   0.864  11.746 -2.6525  0.0859  0.3652
56255SOL     OW75622   1.756  11.439   3.057 -0.1443  0.3050 -0.1160
56255SOL    HW175623   1.813  11.494   3.111 -0.8001  0.4383  0.4500
56255SOL    HW275624   1.674  11.432   3.107 -0.7776  0.4630 -1.1017
56256SOL     OW75625   8.239  11.678   5.452  0.1451  0.3943 -0.4930
56256SOL    HW175626   8.241  11.587   5.482  1.3453  0.7167  0.4773
56256SOL    HW275627   8.177  11.678   5.379  0.0126 -1.1667 -0.4064
56257SOL     OW75628   3.118   9.507   0.386  0.2392 -0.7666  0.0235
56257SOL    HW175629   3.090   9.472   0.471 -1.3593  1.3090  0.4224
56257SOL    HW275630   3.061   9.465   0.322 -1.2583  0.5236  0.4388
56258SOL     OW75631   9.160   3.472   4.526  0.0887  0.3790  0.3649
56258SOL    HW175632   9.201   3.387   4.543  0.5326  0.7670  1.3029
56258SOL    HW275633   9.220   3.515   4.465  0.3909  0.4263  0.6966
56259SOL     OW75634   5.042   3.788   2.410  0.5304  0.0836  0.1911
56259SOL    HW175635   5.066   3.879   2.396  1.1321 -0.2052 -0.7443
56259SOL    HW275636   4.948   3.790   2.427  0.3796  0.7947 -0.6761
56260SOL     OW75637   7.450   5.676  10.082  0.3327 -0.1490  0.1025
56260SOL    HW175638   7.393   5.752  10.069  0.1751 -0.3396 -0.3578
56260SOL    HW275639   7.504   5.672  10.003 -0.6869 -1.3748 -0.5708
56261SOL     OW75640   2.504   8.791   0.859 -0.2560  0.1804  0.3927
56261SOL    HW175641   2.490   8.861   0.796 -0.2496 -1.5337 -1.6150
56261SOL    HW275642   2.558   8.727   0.813 -0.7954 -1.4461  1.8998
56262SOL     OW75643   0.024  12.282   0.264  0.2428 -0.0783  0.4106
56262SOL    HW175644   0.084  12.339   0.312  1.0763 -1.7781  1.4999
56262SOL    HW275645  -0.058  12.286   0.313  0.8517 -1.1790  1.5973
56263SOL     OW75646  11.154   4.234   9.601 -0.7650  0.7275  0.1269
56263SOL    HW175647  11.181   4.233   9.693 -1.2327  0.2035  0.2707
56263SOL    HW275648  11.059   4.244   9.604 -0.5820  3.1707 -0.3805
56264SOL     OW75649   7.734   9.122   4.323  0.2395  0.3522  0.0202
56264SOL    HW175650   7.765   9.084   4.241  0.0790 -0.9765  0.5552
56264SOL    HW275651   7.640   9.134   4.311  0.4303  1.5249 -0.4908
56265SOL     OW75652   2.882   4.993  10.615 -0.1987  0.2125 -0.5090
56265SOL    HW175653   2.909   5.065  10.672  1.2112 -0.2068 -0.6083
56265SOL    HW275654   2.933   5.006  10.535  0.5481 -1.2221 -0.2949
56266SOL     OW75655   8.175   9.063  10.743  0.4197 -0.2705  0.3834
56266SOL    HW175656   8.139   9.033  10.659  2.6061  2.4346 -1.7204
56266SOL    HW275657   8.098   9.077  10.798 -1.5683  1.6054 -2.5372
56267SOL     OW75658   4.293   5.611   7.816  0.3880 -0.1437  0.4829
56267SOL    HW175659   4.278   5.621   7.722 -1.5686  1.8279  0.9204
56267SOL    HW275660   4.296   5.516   7.829 -2.3546 -0.6117 -1.2120
56268SOL     OW75661   9.768   2.814   9.470 -0.0522 -0.2168 -0.1214
56268SOL    HW175662   9.802   2.747   9.411 -0.4182  0.6025 -1.3097
56268SOL    HW275663   9.764   2.772   9.555 -0.7512 -1.8705 -0.9391
56269SOL     OW75664  10.801   3.417  10.938 -0.1267 -0.1223 -0.0527
56269SOL    HW175665  10.818   3.485  10.873 -0.1059 -1.3435 -1.3861
56269SOL    HW275666  10.750   3.351  10.891  0.3691 -1.3161  1.0124
56270SOL     OW75667   2.574  11.569   8.372  0.0588  0.1512  0.6095
56270SOL    HW175668   2.619  11.591   8.454 -0.0021 -1.4799  1.1161
56270SOL    HW275669   2.601  11.478   8.354  1.1206  0.8716 -1.8875
56271SOL     OW75670   5.421   4.530   7.579  0.1828  0.4045 -0.3455
56271SOL    HW175671   5.426   4.439   7.608  1.2423  0.6215  0.1942
56271SOL    HW275672   5.375   4.526   7.495 -0.0518 -0.5910 -0.1803
56272SOL     OW75673   2.084   7.049  10.393  0.1312  0.3076 -0.0917
56272SOL    HW175674   2.128   7.089  10.467 -2.1662  1.0440  0.9754
56272SOL    HW275675   2.038   6.974  10.430  1.9418 -1.6325 -1.5196
56273SOL     OW75676   7.939   8.471   9.000 -0.3713  0.2041 -0.1502
56273SOL    HW175677   7.864   8.487   8.943  0.0404  0.6241 -0.5798
56273SOL    HW275678   7.996   8.546   8.987 -0.2303  0.2713  0.7586
56274SOL     OW75679   8.437   0.123   3.535 -0.0535  0.4958  0.8504
56274SOL    HW175680   8.412   0.184   3.605 -1.6945  1.1409 -0.2514
56274SOL    HW275681   8.517   0.160   3.499 -1.5671  2.6628 -0.4877
56275SOL     OW75682   4.806   3.448   9.295 -0.8790  0.0030 -0.1067
56275SOL    HW175683   4.746   3.379   9.323 -2.2182  0.6945 -1.1309
56275SOL    HW275684   4.763   3.529   9.323  0.7816  0.4461  1.2979
56276SOL     OW75685   3.161   8.143   9.363  0.2055 -0.3115 -0.0230
56276SOL    HW175686   3.111   8.209   9.314  0.3548  0.4962  0.8921
56276SOL    HW275687   3.210   8.096   9.296 -1.7858 -1.1586 -0.9691
56277SOL     OW75688   0.354  12.264  11.257 -0.0511  0.0479  0.6967
56277SOL    HW175689   0.309  12.222  11.184  0.5364  0.8082 -0.1131
56277SOL    HW275690   0.414  12.197  11.290  0.8389  0.1863 -0.5542
56278SOL     OW75691   1.524   3.693   0.830  0.3935 -0.4763 -0.1066
56278SOL    HW175692   1.616   3.716   0.817  0.6513 -0.4115  1.5744
56278SOL    HW275693   1.509   3.621   0.770  0.9355  0.8693 -1.9383
56279SOL     OW75694   7.254   9.344   7.045 -0.7930  0.1590  0.1217
56279SOL    HW175695   7.164   9.372   7.063 -1.1281 -0.5401 -0.4141
56279SOL    HW275696   7.246   9.285   6.970  0.0132 -0.6220  0.6317
56280SOL     OW75697   9.648   4.442   7.936 -0.0250  0.3347  0.3775
56280SOL    HW175698   9.703   4.493   7.995 -0.4274 -0.0604  1.1057
56280SOL    HW275699   9.608   4.507   7.878  2.1345  0.5405 -0.9988
56281SOL     OW75700   0.496   7.738   3.814 -0.0191 -0.0079 -0.3713
56281SOL    HW175701   0.444   7.818   3.821 -1.2220 -0.5344 -2.5382
56281SOL    HW275702   0.521   7.733   3.722  1.0795 -1.5079 -0.0345
56282SOL     OW75703   8.619  12.554  11.466 -0.3264  0.2499  0.0901
56282SOL    HW175704   8.641  12.462  11.450  1.7762  0.9942 -1.7198
56282SOL    HW275705   8.652  12.571  11.554  1.9447 -0.0329 -0.6417
56283SOL     OW75706   4.124  10.753   3.548 -0.5818  0.0947  0.2685
56283SOL    HW175707   4.123  10.744   3.452 -1.9136  0.2962  0.2481
56283SOL    HW275708   4.183  10.827   3.564 -0.6945  0.3458 -0.4341
56284SOL     OW75709   8.345   7.093   8.312 -0.4259  0.8894  0.3386
56284SOL    HW175710   8.270   7.120   8.365 -0.4847 -0.2494  0.8692
56284SOL    HW275711   8.405   7.167   8.317 -1.1062  1.4395  0.6845
56285SOL     OW75712  11.642   9.690  12.186  0.3395 -0.1859  0.0656
56285SOL    HW175713  11.654   9.622  12.120  1.2744 -0.1895  0.2137
56285SOL    HW275714  11.548   9.690  12.204  0.0307  0.0032 -1.4435
56286SOL     OW75715   6.253  10.655   1.126  0.7109 -0.2227  0.3123
56286SOL    HW175716   6.323  10.649   1.061 -0.0006 -2.2287 -0.3369
56286SOL    HW275717   6.284  10.602   1.199  0.6736  0.4675  0.8406
56287SOL     OW75718   0.312   7.362   3.510  0.2266 -0.1571 -0.0976
56287SOL    HW175719   0.340   7.452   3.492  0.3909  0.1205  1.3613
56287SOL    HW275720   0.340   7.347   3.601 -1.2005 -1.1357  0.2068
56288SOL     OW75721   5.273   5.311  10.111  0.1694 -0.3130 -0.6535
56288SOL    HW175722   5.200   5.267  10.068 -0.9806  0.9197 -0.0497
56288SOL    HW275723   5.232   5.381  10.162  1.7092 -0.1151  0.3839
56289SOL     OW75724   2.487   6.395  12.088 -0.0546  0.1243 -0.1001
56289SOL    HW175725   2.535   6.333  12.034  0.8295 -0.3286  1.1372
56289SOL    HW275726   2.440   6.341  12.151  0.3897  0.6690  0.7259
56290SOL     OW75727   6.415   3.309   1.479 -0.0622 -0.1216  0.2412
56290SOL    HW175728   6.442   3.401   1.477 -0.7621  0.0716 -0.5503
56290SOL    HW275729   6.379   3.297   1.567 -1.2135  0.7338 -0.0856
56291SOL     OW75730   1.483   4.465   3.131  0.0771 -0.2101  0.1958
56291SOL    HW175731   1.483   4.531   3.200 -0.0032  0.0257 -0.0262
56291SOL    HW275732   1.576   4.456   3.108 -0.0859  2.0501 -1.8489
56292SOL     OW75733  12.487   4.590  11.410 -0.1104  0.0634 -0.1794
56292SOL    HW175734  12.434   4.512  11.428 -0.0431  0.2507  0.9105
56292SOL    HW275735  12.462   4.616  11.322 -0.4557 -0.9380 -0.3903
56293SOL     OW75736   0.606   0.532   0.766  0.2705  0.4711  0.1871
56293SOL    HW175737   0.592   0.536   0.671 -0.3334  0.3979  0.2713
56293SOL    HW275738   0.521   0.552   0.804  0.1241 -0.9940  0.7033
56294SOL     OW75739   1.101   3.471   4.817 -0.3685  0.2216  0.1925
56294SOL    HW175740   1.127   3.419   4.740  0.1679  0.3512  0.2836
56294SOL    HW275741   1.083   3.406   4.885  0.1650  0.1456  0.2639
56295SOL     OW75742   3.859   7.810   8.934  0.1280 -0.0209 -0.3467
56295SOL    HW175743   3.882   7.745   8.867  0.4941  0.4210 -0.6544
56295SOL    HW275744   3.940   7.859   8.949  0.1685 -0.3799  0.7238
56296SOL     OW75745   3.526   8.005  10.494 -0.2871 -0.3987 -0.0745
56296SOL    HW175746   3.558   7.967  10.576 -2.0236 -1.4928  0.1561
56296SOL    HW275747   3.592   8.070  10.470  1.5842 -1.8854  0.8064
56297SOL     OW75748   7.297   3.714   7.620  0.4612 -0.3560 -0.1906
56297SOL    HW175749   7.258   3.627   7.607  2.6409 -1.3781 -0.3896
56297SOL    HW275750   7.332   3.738   7.535 -0.8376  1.1548 -0.3426
56298SOL     OW75751   3.066   3.309   3.732  1.0229 -0.0801 -0.4868
56298SOL    HW175752   3.138   3.329   3.791  0.7402 -0.9474  0.1655
56298SOL    HW275753   3.058   3.213   3.735 -0.9153  0.0621  0.3851
56299SOL     OW75754   0.817   3.423   6.495  0.2808  0.3720 -0.0753
56299SOL    HW175755   0.882   3.402   6.428  0.9949  0.6068  0.5354
56299SOL    HW275756   0.778   3.338   6.518  3.1187 -0.4665  2.3490
56300SOL     OW75757   2.953   9.627   2.113  0.2018 -0.4392 -0.0552
56300SOL    HW175758   2.904   9.568   2.171 -0.0171 -1.2354 -1.0231
56300SOL    HW275759   2.977   9.573   2.038 -0.3622  0.7828 -1.1710
56301SOL     OW75760   7.457   3.918   7.979  0.5428  0.0389  0.1069
56301SOL    HW175761   7.424   3.923   8.068  0.9196  1.0627  0.2060
56301SOL    HW275762   7.382   3.944   7.924  0.1364 -1.1417  0.0567
56302SOL     OW75763   2.090   1.842  10.500  0.0697  0.0148 -0.1000
56302SOL    HW175764   2.110   1.921  10.551  1.5237 -0.1986 -0.3033
56302SOL    HW275765   2.129   1.859  10.414 -1.1760 -0.1979 -0.7297
56303SOL     OW75766   6.542   8.722   2.250  0.2252  0.8240  1.1789
56303SOL    HW175767   6.608   8.709   2.318  1.3110  2.4260  0.5089
56303SOL    HW275768   6.588   8.772   2.182 -1.4091  1.1154  0.2407
56304SOL     OW75769   3.147   0.005  12.150 -0.1294 -0.4712  0.3505
56304SOL    HW175770   3.148   0.025  12.057 -1.4287 -1.2369  0.1614
56304SOL    HW275771   3.056   0.017  12.177  0.3621  0.5360  1.7205
56305SOL     OW75772   1.940   1.777   3.333  0.9708 -0.4000 -0.2490
56305SOL    HW175773   1.961   1.857   3.382  2.2803 -1.2602  0.6302
56305SOL    HW275774   1.879   1.730   3.389  2.3693 -1.3214  0.5689
56306SOL     OW75775   4.263  11.402   3.192  0.1356  0.0096  0.1728
56306SOL    HW175776   4.326  11.386   3.263  1.2116 -0.2603 -0.8260
56306SOL    HW275777   4.313  11.446   3.124 -1.3372  2.0779  0.3229
56307SOL     OW75778   3.371   0.885  10.772 -0.2678 -0.8868 -0.1708
56307SOL    HW175779   3.363   0.962  10.828  0.7177 -0.1309 -1.0165
56307SOL    HW275780   3.329   0.911  10.690 -0.3100 -1.4052 -0.3126
56308SOL     OW75781  12.122  12.080   7.729 -0.0059  0.6749  0.1205
56308SOL    HW175782  12.192  12.127   7.685  0.4168  0.8077  0.9252
56308SOL    HW275783  12.053  12.073   7.663 -0.4896  3.2957  0.2559
56309SOL     OW75784   0.232   5.906   8.290  0.1238 -1.1450  0.3489
56309SOL    HW175785   0.238   5.859   8.373 -0.7501  1.3580  1.9320
56309SOL    HW275786   0.155   5.961   8.299  2.3953  2.4322 -0.3111
56310SOL     OW75787   8.519   1.987   8.569  0.3080 -0.4563  0.2047
56310SOL    HW175788   8.428   2.017   8.582  0.9201  2.4245 -1.3276
56310SOL    HW275789   8.564   2.015   8.649  0.1900 -0.2549  0.2042
56311SOL     OW75790   2.913   3.058   9.471  0.3848  0.0951 -0.0276
56311SOL    HW175791   2.910   3.080   9.564  0.6027 -0.6966  0.1789
56311SOL    HW275792   2.990   3.002   9.463  0.8775  0.8709 -0.8495
56312SOL     OW75793  11.754   5.830   1.934  0.1392 -0.1906 -0.0633
56312SOL    HW175794  11.765   5.739   1.960 -0.8663 -0.5328 -0.7714
56312SOL    HW275795  11.754   5.879   2.016 -0.7207 -0.9873  0.4220
56313SOL     OW75796   7.034   4.270  10.311 -0.3014 -0.5569  0.0665
56313SOL    HW175797   6.941   4.261  10.293 -0.1812 -1.2424 -0.2631
56313SOL    HW275798   7.045   4.234  10.399 -0.4987  0.4589  0.5139
56314SOL     OW75799  10.140   1.760   3.527 -0.6001 -0.0926 -0.0032
56314SOL    HW175800  10.199   1.751   3.602 -1.9305  0.8810  1.2347
56314SOL    HW275801  10.144   1.853   3.505 -1.1535 -0.1416 -0.3315
56315SOL     OW75802   7.609   3.780   4.775  0.4522  0.1550 -0.2545
56315SOL    HW175803   7.552   3.780   4.852  4.9471  0.8210  3.5860
56315SOL    HW275804   7.612   3.872   4.748 -0.4062  0.0739 -0.6607
56316SOL     OW75805   1.354   2.170   9.201 -0.4831  0.2921 -0.0960
56316SOL    HW175806   1.423   2.109   9.227 -1.2357 -0.3515  0.4466
56316SOL    HW275807   1.377   2.195   9.112  1.6331  1.7926  0.7704
56317SOL     OW75808   6.569   3.828   1.073 -0.2800 -0.0425  0.3516
56317SOL    HW175809   6.495   3.843   1.132  0.7927 -0.9124  2.0173
56317SOL    HW275810   6.628   3.771   1.123 -0.0361 -2.1982 -2.1789
56318SOL     OW75811   8.995   1.078   1.358 -0.2529 -0.1927  0.0249
56318SOL    HW175812   9.017   1.048   1.447  0.7631  0.2387 -0.0704
56318SOL    HW275813   8.902   1.096   1.362 -0.5390 -1.6291  0.5920
56319SOL     OW75814   4.504   7.403   5.574  0.2014 -0.5111 -0.2902
56319SOL    HW175815   4.523   7.320   5.616 -0.6727 -0.1422  0.8879
56319SOL    HW275816   4.428   7.385   5.518  0.4216 -0.6528 -0.5442
56320SOL     OW75817  11.413   9.526   9.709 -0.2067 -0.3456  0.2020
56320SOL    HW175818  11.355   9.594   9.743 -0.2397 -0.5048  0.4753
56320SOL    HW275819  11.377   9.444   9.745  0.3561 -0.4176  0.6158
56321SOL     OW75820   3.499   4.385   5.840  0.1172  0.1197  0.0616
56321SOL    HW175821   3.593   4.387   5.825  0.1060  1.1593  0.0738
56321SOL    HW275822   3.484   4.301   5.884  1.0909  0.1189  0.4146
56322SOL     OW75823   4.272  12.468   8.607 -0.3411 -0.5879 -0.3611
56322SOL    HW175824   4.312  12.553   8.587 -0.5547 -0.5095 -0.4619
56322SOL    HW275825   4.266  12.423   8.523  2.9716 -2.1481  0.0930
56323SOL     OW75826   1.428  10.275   9.506 -0.2441 -0.8742  0.5291
56323SOL    HW175827   1.453  10.261   9.415 -2.3682 -0.3396 -0.1879
56323SOL    HW275828   1.348  10.326   9.502 -0.4976 -0.9737  2.7180
56324SOL     OW75829   9.099   4.233   3.014 -0.0693  0.9071  0.1585
56324SOL    HW175830   9.019   4.211   2.966  0.2746 -1.6782  0.5932
56324SOL    HW275831   9.068   4.269   3.097 -0.7872  0.1393  0.2357
56325SOL     OW75832  12.461   6.946  11.456 -0.7007 -0.5721 -0.1007
56325SOL    HW175833  12.504   7.009  11.399 -1.0860 -0.0346  0.1855
56325SOL    HW275834  12.395   6.998  11.503  0.2059 -0.8015  1.4856
56326SOL     OW75835   2.085  10.402   4.059  0.0683  0.2022  0.3442
56326SOL    HW175836   2.050  10.333   4.114  3.1117 -0.8973  1.0893
56326SOL    HW275837   2.111  10.471   4.120 -2.1570  1.7594 -0.3247
56327SOL     OW75838   0.839   9.813   8.662  0.0439 -0.3762 -0.1558
56327SOL    HW175839   0.917   9.782   8.616  0.2284 -0.2146  0.0463
56327SOL    HW275840   0.871   9.843   8.747  0.0659  1.4344 -0.7545
56328SOL     OW75841   5.573   0.726   8.858 -0.1090  0.1659  0.4288
56328SOL    HW175842   5.648   0.786   8.865  0.0957 -0.2486  2.2585
56328SOL    HW275843   5.525   0.737   8.940 -2.2567  0.6163 -0.8145
56329SOL     OW75844   8.247   6.586   2.186  0.2536  0.3516 -0.1665
56329SOL    HW175845   8.216   6.589   2.276 -1.5987 -1.4634 -0.6684
56329SOL    HW275846   8.168   6.592   2.133  1.2839  1.1454 -1.6823
56330SOL     OW75847  10.295   3.612   5.891 -0.0438 -0.0907 -0.0887
56330SOL    HW175848  10.222   3.551   5.887 -0.7171  0.7341 -0.8463
56330SOL    HW275849  10.300   3.649   5.803 -0.5396  1.9402  0.6787
56331SOL     OW75850   4.521  10.037   2.093 -0.0028  0.4874  0.4127
56331SOL    HW175851   4.462   9.980   2.143  2.2964 -1.6891  0.8821
56331SOL    HW275852   4.492  10.027   2.003 -1.4122  0.8635  0.8011
56332SOL     OW75853   9.180   2.894  11.642 -0.0579  0.0076 -0.0281
56332SOL    HW175854   9.215   2.978  11.610  1.5489 -0.3021  0.8142
56332SOL    HW275855   9.258   2.842  11.662 -1.0296 -1.1076  0.9779
56333SOL     OW75856   1.429   6.650   0.718  0.2767 -0.1389  0.4116
56333SOL    HW175857   1.415   6.591   0.644 -0.7058  0.0124  0.4681
56333SOL    HW275858   1.373   6.616   0.788 -1.5844  1.7496 -0.0624
56334SOL     OW75859   7.942   5.401   7.932 -0.4627 -0.1263 -0.1870
56334SOL    HW175860   7.891   5.360   8.002 -1.0761 -0.0435 -0.5781
56334SOL    HW275861   7.894   5.381   7.852  1.3182 -2.0013 -0.8704
56335SOL     OW75862   1.479   1.321   8.131 -0.3093 -0.0849  0.6169
56335SOL    HW175863   1.460   1.370   8.051 -1.4970 -0.5827  0.5628
56335SOL    HW275864   1.574   1.311   8.132 -0.0361  2.0277  0.5331
56336SOL     OW75865   2.982   9.060   9.660  0.0456  0.0626 -0.1040
56336SOL    HW175866   3.029   9.022   9.586 -0.7476 -0.2622 -0.4447
56336SOL    HW275867   2.962   8.985   9.716  1.0946  0.3642  0.7215
56337SOL     OW75868  10.390   3.396   6.132  0.0082  0.0644  0.5779
56337SOL    HW175869  10.325   3.332   6.161  0.1508 -0.6485 -0.5743
56337SOL    HW275870  10.353   3.480   6.155 -2.0375 -0.2310 -1.2390
56338SOL     OW75871   8.564   5.198  11.674  0.2387  0.6657 -0.5063
56338SOL    HW175872   8.591   5.289  11.675 -0.4309  0.8660 -0.1332
56338SOL    HW275873   8.481   5.197  11.722  1.3799 -0.4805  1.6050
56339SOL     OW75874   8.914   0.009   5.614 -0.4126  0.0454 -0.2575
56339SOL    HW175875   8.870   0.041   5.535 -0.1902  0.4385 -0.2257
56339SOL    HW275876   8.905   0.079   5.677 -0.6850 -0.3166  0.1086
56340SOL     OW75877   6.151   7.722   5.868 -0.4920  0.3362  0.3479
56340SOL    HW175878   6.102   7.641   5.852  0.1217  0.1978 -0.9621
56340SOL    HW275879   6.180   7.715   5.959 -1.3076 -0.4409  0.5623
56341SOL     OW75880  12.170  11.638   2.435 -0.1449  0.4800  0.3051
56341SOL    HW175881  12.218  11.559   2.459 -0.5658  0.5615  1.4982
56341SOL    HW275882  12.234  11.708   2.441  0.1001  0.3064 -0.2322
56342SOL     OW75883   5.591   0.981   5.071 -0.0386 -0.1942  0.3347
56342SOL    HW175884   5.613   1.025   5.153  0.4431 -0.4628  0.3487
56342SOL    HW275885   5.659   0.915   5.059 -1.0730 -1.3488  0.6131
56343SOL     OW75886   5.469   1.338   6.032 -0.4227  0.1893  0.4605
56343SOL    HW175887   5.438   1.416   5.986 -0.8025 -0.1804  0.0816
56343SOL    HW275888   5.486   1.274   5.963 -2.2052 -0.8086  0.8780
56344SOL     OW75889   5.564   9.576   8.317  0.0344  0.0062  0.4298
56344SOL    HW175890   5.645   9.525   8.310 -0.6636 -1.3807  1.7990
56344SOL    HW275891   5.579   9.653   8.262  1.6903 -0.9662 -0.5525
56345SOL     OW75892   7.120  10.142   8.557  0.1207 -0.0995  0.4052
56345SOL    HW175893   7.207  10.115   8.586 -0.1996  0.8675  2.4275
56345SOL    HW275894   7.137  10.216   8.498  0.6865 -0.3152  0.2870
56346SOL     OW75895   8.448   4.570   5.523  0.7224 -0.3896 -0.2316
56346SOL    HW175896   8.541   4.564   5.499  1.0996 -1.6223  1.3739
56346SOL    HW275897   8.421   4.656   5.490  2.3099 -0.1948 -1.1368
56347SOL     OW75898   8.822   3.647   2.670  0.0297  0.2885  0.0063
56347SOL    HW175899   8.769   3.723   2.694 -0.4017  0.1042 -0.3553
56347SOL    HW275900   8.896   3.685   2.622  0.0172  0.5125  0.1596
56348SOL     OW75901  10.522  10.197   0.973 -0.3411 -0.4913 -0.6676
56348SOL    HW175902  10.539  10.255   1.047  0.0039 -0.3360 -0.8634
56348SOL    HW275903  10.428  10.209   0.955 -0.3959 -0.4294 -0.3412
56349SOL     OW75904  12.479   1.656   7.146  0.0405 -0.4644  0.1483
56349SOL    HW175905  12.429   1.725   7.191  0.2960 -0.0282 -0.2270
56349SOL    HW275906  12.555   1.702   7.110  0.2930 -0.9776  0.0293
56350SOL     OW75907   1.075   4.873   1.068 -0.1283  0.6237  0.2664
56350SOL    HW175908   1.151   4.838   1.020 -1.4306 -0.7930 -0.8519
56350SOL    HW275909   1.082   4.832   1.155 -0.1842 -0.3681 -0.1800
56351SOL     OW75910   3.123  11.848   1.466  0.2657  0.0755 -0.1510
56351SOL    HW175911   3.039  11.804   1.483  0.7093 -1.2334 -1.1844
56351SOL    HW275912   3.125  11.860   1.371  1.2457  0.0903 -0.1335
56352SOL     OW75913  11.585   5.842   0.890 -0.6321  0.0822  0.1274
56352SOL    HW175914  11.637   5.898   0.832 -1.2403  0.7004  0.1586
56352SOL    HW275915  11.503   5.830   0.842 -0.5207 -0.7616  0.1411
56353SOL     OW75916   5.881   9.015   7.824 -0.4873  0.8789 -0.2041
56353SOL    HW175917   5.885   8.919   7.826 -2.2026  0.7776 -0.0714
56353SOL    HW275918   5.951   9.041   7.765  0.7872 -0.3883  0.6861
56354SOL     OW75919   4.817   6.575   7.628  0.4040  0.2478 -0.2440
56354SOL    HW175920   4.870   6.518   7.573  1.4891  0.9984  0.0009
56354SOL    HW275921   4.819   6.660   7.585  2.5054  1.2640  1.6096
56355SOL     OW75922   1.407  11.723   2.014  0.1878  0.7670 -0.3009
56355SOL    HW175923   1.404  11.769   1.930 -0.0094 -0.3951 -0.9566
56355SOL    HW275924   1.359  11.780   2.074 -0.6160  1.1205 -1.2404
56356SOL     OW75925   2.716   4.694   1.796  0.4416 -0.2789 -0.1679
56356SOL    HW175926   2.742   4.734   1.879 -0.7941 -1.0847  0.6459
56356SOL    HW275927   2.797   4.657   1.760  1.4401  2.0557 -0.4942
56357SOL     OW75928   7.772  10.870   6.470 -0.1965  0.1646 -0.2682
56357SOL    HW175929   7.780  10.826   6.555 -2.5594 -1.4763 -0.7914
56357SOL    HW275930   7.757  10.962   6.492 -1.0696 -0.2713  1.1375
56358SOL     OW75931   1.901   8.440   8.249  0.2752 -0.7045 -0.1000
56358SOL    HW175932   1.845   8.411   8.177  1.2526  1.2581 -1.7591
56358SOL    HW275933   1.900   8.535   8.244  1.0263 -0.5194  2.0173
56359SOL     OW75934   9.089   4.643  10.426 -0.0875 -0.7361 -0.2974
56359SOL    HW175935   9.071   4.595  10.345 -0.0655  0.3410 -0.9654
56359SOL    HW275936   9.161   4.594  10.467  1.6346  0.0515 -2.1912
56360SOL     OW75937  11.624   2.455   7.972  0.2663 -0.9309 -0.5191
56360SOL    HW175938  11.655   2.368   7.998  0.6861 -0.5537  0.2756
56360SOL    HW275939  11.657   2.513   8.040  0.0529 -0.1348 -1.0864
56361SOL     OW75940   1.624   7.124   3.369 -0.3344 -0.5634 -0.2434
56361SOL    HW175941   1.605   7.198   3.427  1.9546  2.4859 -3.0150
56361SOL    HW275942   1.701   7.083   3.409 -0.3149 -0.1177  0.1976
56362SOL     OW75943   9.046   5.876   3.086  0.6425 -0.2054  0.4906
56362SOL    HW175944   9.074   5.891   2.996 -1.9104 -0.7470 -0.4749
56362SOL    HW275945   9.029   5.782   3.091  0.7302 -0.1783  1.5496
56363SOL     OW75946  11.427   6.739   5.559 -0.4794 -0.2001 -0.8602
56363SOL    HW175947  11.498   6.800   5.541 -0.5311 -0.1561 -0.9167
56363SOL    HW275948  11.371   6.744   5.482 -1.4478  1.0249 -0.1318
56364SOL     OW75949   8.542   8.589   6.977 -0.0606  0.2377  0.0936
56364SOL    HW175950   8.479   8.526   7.011  1.2643 -1.7401 -0.9310
56364SOL    HW275951   8.496   8.632   6.905 -0.1618 -1.4760 -0.9160
56365SOL     OW75952   6.188   4.776   3.394  0.6381  0.7439  0.7890
56365SOL    HW175953   6.100   4.757   3.428  0.9500  0.3245  1.3831
56365SOL    HW275954   6.242   4.703   3.425  0.7207 -0.2947 -1.6151
56366SOL     OW75955   3.401   3.878  12.097  0.1211 -0.2753 -0.0028
56366SOL    HW175956   3.477   3.903  12.149 -0.8197 -0.8752  1.7649
56366SOL    HW275957   3.367   3.960  12.062  0.8187  0.1403  0.2684
56367SOL     OW75958   5.803   8.984  10.459 -0.7088  0.3435 -0.6034
56367SOL    HW175959   5.853   9.039  10.520 -1.2664 -0.2857  0.4621
56367SOL    HW275960   5.844   8.898  10.466  0.2556  0.6196 -2.3782
56368SOL     OW75961   0.201  10.926   1.205  0.2236  0.2840 -0.2622
56368SOL    HW175962   0.293  10.927   1.232 -0.3468  0.8654  1.7797
56368SOL    HW275963   0.188  11.012   1.164  0.0992  1.0221  1.2781
56369SOL     OW75964   2.357  10.620   0.555  0.5911 -0.4802 -0.6229
56369SOL    HW175965   2.320  10.550   0.501  1.8470 -2.5838  1.0990
56369SOL    HW275966   2.445  10.634   0.519  0.9608 -1.0027  0.0524
56370SOL     OW75967   8.790   0.131   8.667  0.4360 -0.0588  0.5596
56370SOL    HW175968   8.881   0.142   8.639  0.6973  0.1263  1.4282
56370SOL    HW275969   8.744   0.100   8.589  1.0908  0.5583 -0.0917
56371SOL     OW75970  11.547   8.775  11.072 -0.1771  0.0443 -0.2301
56371SOL    HW175971  11.468   8.825  11.091 -0.0210  0.6060 -1.0087
56371SOL    HW275972  11.528   8.687  11.105 -1.6324 -0.1757 -1.5188
56372SOL     OW75973   5.073  10.872   0.209  0.0602 -0.4914 -0.0809
56372SOL    HW175974   5.143  10.878   0.275 -0.6311 -0.9316  0.7170
56372SOL    HW275975   5.005  10.820   0.252 -1.1414  0.6757 -0.5191
56373SOL     OW75976   1.744   5.127   1.277  0.6045 -0.2119  0.2314
56373SOL    HW175977   1.791   5.203   1.311  0.9385 -1.1010  1.8391
56373SOL    HW275978   1.699   5.160   1.199 -0.2042  1.9274  1.5159
56374SOL     OW75979   8.116   5.381  12.042 -0.3234  0.2154 -0.3156
56374SOL    HW175980   8.176   5.445  12.003 -0.4152  0.4463 -0.0813
56374SOL    HW275981   8.157   5.358  12.125 -0.3303  0.0269 -0.3640
56375SOL     OW75982   9.918   2.495   9.131  0.7378  0.5513  0.2379
56375SOL    HW175983   9.981   2.520   9.063 -1.1087  0.7033 -1.5349
56375SOL    HW275984   9.968   2.440   9.191  2.4663  0.3909 -1.2607
56376SOL     OW75985  11.755   0.748   1.270  0.3084 -0.3684  0.0235
56376SOL    HW175986  11.754   0.843   1.283  1.0197 -0.2173 -0.9534
56376SOL    HW275987  11.665   0.727   1.243  0.1519  0.0252  0.2326
56377SOL     OW75988   3.327   6.689   6.909 -0.2423 -0.0632 -0.1416
56377SOL    HW175989   3.294   6.658   6.825  1.3998 -1.4197 -0.3290
56377SOL    HW275990   3.353   6.780   6.893  0.3919 -0.4185 -1.2310
56378SOL     OW75991   9.002   1.419   1.950 -0.1650 -0.5529  0.1511
56378SOL    HW175992   8.981   1.344   1.895  1.0574 -0.6942 -0.1626
56378SOL    HW275993   9.071   1.465   1.902 -1.3855  1.2065 -0.0272
56379SOL     OW75994  10.348   7.536  10.164  0.4309  0.1490 -0.0108
56379SOL    HW175995  10.356   7.441  10.159  0.3354  0.1629 -0.4636
56379SOL    HW275996  10.254   7.551  10.173  0.4284  0.2091 -0.1438
56380SOL     OW75997   3.293   4.785   8.260  0.9170 -0.1733 -0.0796
56380SOL    HW175998   3.334   4.836   8.191 -0.1234 -0.4057 -0.8925
56380SOL    HW275999   3.293   4.695   8.227 -1.0544 -0.0602 -0.5549
56381SOL     OW76000   8.700   4.908   0.142  0.0398 -0.1262  0.0875
56381SOL    HW176001   8.680   4.918   0.049 -0.6182  1.8768  0.3993
56381SOL    HW276002   8.780   4.960   0.155  1.5073 -2.2657  0.2543
56382SOL     OW76003   3.601   0.615  12.265  0.2903  0.2851 -0.4135
56382SOL    HW176004   3.692   0.591  12.281 -0.3626 -1.3110  1.2740
56382SOL    HW276005   3.582   0.683  12.330  0.0751  0.0502 -0.2261
56383SOL     OW76006   8.013   0.377   3.391 -0.4272 -0.0982  0.2477
56383SOL    HW176007   8.003   0.391   3.297 -0.4913  0.9466  0.3923
56383SOL    HW276008   8.066   0.297   3.399  0.9134  0.6529 -0.7150
56384SOL     OW76009   1.462   1.787  11.428  0.0947 -0.5950 -0.4938
56384SOL    HW176010   1.425   1.701  11.447 -1.8640  0.0441 -1.1966
56384SOL    HW276011   1.408   1.822  11.358  1.0776  1.0767 -0.4871
56385SOL     OW76012  10.121   7.289  11.820  0.4284  0.7338 -0.2143
56385SOL    HW176013  10.088   7.201  11.838 -0.4851  1.2054  0.4344
56385SOL    HW276014  10.201   7.274  11.768  1.6019 -0.5563  1.8341
56386SOL     OW76015  10.909   1.046   3.825 -0.8753 -0.0749  0.1181
56386SOL    HW176016  10.875   1.136   3.821  0.9010  0.5857 -1.5050
56386SOL    HW276017  10.926   1.031   3.918 -2.8089  0.5953  0.6306
56387SOL     OW76018   0.764   1.278   5.555 -0.0640 -0.1875  0.6295
56387SOL    HW176019   0.840   1.278   5.613  0.1836  0.0658  0.3067
56387SOL    HW276020   0.746   1.186   5.538  0.4466 -0.2379  0.3451
56388SOL     OW76021   1.406   0.801   3.664  0.1641 -0.1925  0.4481
56388SOL    HW176022   1.452   0.824   3.583 -0.1942  1.4969  0.7034
56388SOL    HW276023   1.349   0.727   3.638  1.2426 -0.7481 -0.4262
56389SOL     OW76024  12.552   7.811   1.061  0.0839  0.1959  0.0362
56389SOL    HW176025  12.612   7.885   1.056  0.1646  0.0656 -1.2796
56389SOL    HW276026  12.528   7.805   1.154 -0.1307  2.0138  0.1244
56390SOL     OW76027   9.469   2.145   5.539 -0.4172  0.0886 -0.0795
56390SOL    HW176028   9.455   2.235   5.567 -0.4907  0.2150 -0.5178
56390SOL    HW276029   9.561   2.140   5.514 -1.2875  1.2874 -4.3703
56391SOL     OW76030   7.748   7.822   9.228  0.0261  0.0548  0.1257
56391SOL    HW176031   7.812   7.879   9.269 -1.4272  1.1595  0.9629
56391SOL    HW276032   7.745   7.850   9.136 -0.8849  1.5888  0.5874
56392SOL     OW76033   3.664   9.374   8.053  0.3292 -0.6261  0.1753
56392SOL    HW176034   3.687   9.286   8.083 -2.7521 -1.4144  0.5228
56392SOL    HW276035   3.570   9.370   8.037  0.2448  2.4040 -0.6349
56393SOL     OW76036  11.433  12.366   9.387  0.3664 -0.0152  0.6173
56393SOL    HW176037  11.409  12.329   9.302 -0.1575  2.8267 -0.5811
56393SOL    HW276038  11.362  12.340   9.445 -0.0756 -0.6966 -0.1901
56394SOL     OW76039   0.599   5.885  10.622 -0.1906  0.1696 -0.3414
56394SOL    HW176040   0.553   5.965  10.596 -0.0104  0.0941 -0.8940
56394SOL    HW276041   0.689   5.914  10.640 -0.1219  0.0863 -0.5556
56395SOL     OW76042   5.528  11.960   0.394 -0.9536  0.8035 -0.2809
56395SOL    HW176043   5.619  11.935   0.379 -1.3625 -0.6314 -0.5753
56395SOL    HW276044   5.523  12.051   0.367  0.5904  1.1734  0.5919
56396SOL     OW76045   3.013   3.967  11.577  0.0147 -0.1178 -0.4473
56396SOL    HW176046   3.096   3.990  11.535 -0.1531 -0.5371 -1.0332
56396SOL    HW276047   3.031   3.886  11.624 -0.2659 -0.6835 -1.2871
56397SOL     OW76048   1.440   4.998  12.122  0.3945 -0.0966  0.0838
56397SOL    HW176049   1.530   4.977  12.095  0.8956 -0.0652  1.6159
56397SOL    HW276050   1.396   5.024  12.041  1.9084  0.3871 -0.6269
56398SOL     OW76051  11.778   8.496   1.515  0.0624  0.5672  0.2332
56398SOL    HW176052  11.833   8.558   1.564 -1.1001  1.7333  0.1403
56398SOL    HW276053  11.838   8.452   1.456  1.4925 -0.7127  2.4851
56399SOL     OW76054  10.295   0.027   0.969  0.6521 -0.4817 -0.1312
56399SOL    HW176055  10.383   0.052   0.998  0.9800 -0.1357 -1.3658
56399SOL    HW276056  10.261  -0.028   1.040  1.3809  0.3716  0.9172
56400SOL     OW76057  12.422   4.381  10.160 -0.3974  0.0778  0.1722
56400SOL    HW176058  12.436   4.392  10.254  0.4288 -1.9232  0.3307
56400SOL    HW276059  12.328   4.366  10.151 -0.4386 -0.0150  0.7148
56401SOL     OW76060   8.763   6.960   0.000 -0.1512  0.2182 -0.5187
56401SOL    HW176061   8.733   6.873  -0.025  2.1239 -0.6691 -0.3703
56401SOL    HW276062   8.817   6.990  -0.073  2.2201 -0.1669  0.9775
56402SOL     OW76063   4.237   7.077  10.969  0.1724 -0.1206  0.2161
56402SOL    HW176064   4.179   7.152  10.964 -0.3471 -0.5407 -0.0597
56402SOL    HW276065   4.238   7.040  10.881 -0.2635 -0.9495  0.5501
56403SOL     OW76066   4.601   4.740   8.647 -0.2687 -0.0028  0.7283
56403SOL    HW176067   4.530   4.688   8.685 -0.5979 -0.6698 -0.7221
56403SOL    HW276068   4.582   4.830   8.674 -1.5335 -0.2075  0.5808
56404SOL     OW76069   5.117  10.749  10.864  0.1050  0.2546 -0.3333
56404SOL    HW176070   5.100  10.832  10.909 -1.0469  0.0381 -0.3228
56404SOL    HW276071   5.131  10.773  10.773 -0.4805  0.4515 -0.3772
56405SOL     OW76072   8.611   8.016   3.905  0.1555 -0.4183  0.2696
56405SOL    HW176073   8.681   7.978   3.852 -0.2773  1.5357 -1.8686
56405SOL    HW276074   8.534   7.963   3.884  0.7242 -2.0611  2.0085
56406SOL     OW76075   4.836  11.925   1.100 -0.2034  0.2753  0.0573
56406SOL    HW176076   4.860  12.009   1.139 -3.2754  1.5485 -0.5351
56406SOL    HW276077   4.896  11.915   1.025  0.7265  1.5263  0.6065
56407SOL     OW76078   6.798   9.391   7.705 -0.2425 -0.6292  0.4065
56407SOL    HW176079   6.796   9.413   7.799 -2.5272 -1.4195  0.6065
56407SOL    HW276080   6.888   9.409   7.678  0.3266  0.1599  2.6214
56408SOL     OW76081   3.802   4.867   3.739  0.3918  0.0524 -0.3514
56408SOL    HW176082   3.888   4.847   3.703  1.2032  1.2860  0.8419
56408SOL    HW276083   3.793   4.962   3.729 -0.8595 -0.0629 -0.5052
56409SOL     OW76084   4.352   5.266  11.972  0.0351  0.0437 -0.1927
56409SOL    HW176085   4.276   5.292  12.025 -0.1007  2.2012 -1.3498
56409SOL    HW276086   4.427   5.299  12.022  0.1170 -0.6157  0.1285
56410SOL     OW76087   0.530   3.105   9.413  0.1639  0.2276  0.5121
56410SOL    HW176088   0.460   3.104   9.477 -0.0270 -0.8828  0.2927
56410SOL    HW276089   0.610   3.089   9.464 -0.0186 -0.9480  0.4515
56411SOL     OW76090   7.321   4.319  11.595 -0.4207  0.4323  0.1551
56411SOL    HW176091   7.235   4.351  11.571 -0.3162  0.1872 -0.5601
56411SOL    HW276092   7.352   4.272  11.518 -0.0165 -0.2376  0.7076
56412SOL     OW76093   3.065   3.026   7.972 -0.5243  0.5363 -0.6046
56412SOL    HW176094   3.104   2.944   7.943 -0.6143  0.9897 -2.0597
56412SOL    HW276095   3.140   3.083   7.992 -0.3951 -0.5977  2.7305
56413SOL     OW76096   7.679  12.038   8.578 -0.1171  0.0728 -0.3233
56413SOL    HW176097   7.722  12.063   8.496  0.2630 -0.1192 -0.1870
56413SOL    HW276098   7.735  12.076   8.646  1.4826 -2.5437 -0.0371
56414SOL     OW76099   2.621   1.432   2.169  0.0064  0.1182 -0.4273
56414SOL    HW176100   2.659   1.354   2.211  0.6201  1.1348  1.0057
56414SOL    HW276101   2.535   1.403   2.138  0.4151 -1.2532 -0.3417
56415SOL     OW76102   1.812   9.280   0.871  0.2519 -0.0424 -0.3389
56415SOL    HW176103   1.889   9.232   0.902  1.3148  0.7566 -1.6448
56415SOL    HW276104   1.840   9.322   0.790 -1.3621  0.8389 -0.4925
56416SOL     OW76105   4.425   6.826   2.464  0.2229 -0.1859 -0.8823
56416SOL    HW176106   4.332   6.835   2.481  0.7371  2.2508  1.1831
56416SOL    HW276107   4.464   6.907   2.497  2.9991 -0.7344 -2.4549
56417SOL     OW76108   8.179   0.129   7.884 -0.1236  0.4074  0.1720
56417SOL    HW176109   8.213   0.059   7.828  2.5101  1.2464  0.5795
56417SOL    HW276110   8.218   0.209   7.849 -1.5420  1.4656  0.8878
56418SOL     OW76111   3.626   9.705   4.773 -0.0298  0.0845 -0.3479
56418SOL    HW176112   3.688   9.661   4.716 -1.2441 -0.0148 -1.6637
56418SOL    HW276113   3.603   9.786   4.726  0.0071  0.7034  0.6713
56419SOL     OW76114   7.321   5.596  10.988 -0.1195 -0.9382 -0.2029
56419SOL    HW176115   7.257   5.604  10.918 -0.8252  1.2369  0.5960
56419SOL    HW276116   7.399   5.559  10.946 -1.3722 -2.2487 -1.5038
56420SOL     OW76117   5.621   9.793   3.406 -0.0180 -0.3813  0.0139
56420SOL    HW176118   5.561   9.748   3.466 -0.4567  0.8441  0.5365
56420SOL    HW276119   5.705   9.795   3.453  0.0530 -0.8183 -0.0934
56421SOL     OW76120   1.148   9.071   9.542 -0.2610 -0.1958  0.7839
56421SOL    HW176121   1.085   9.139   9.566  0.0126  0.6886 -0.8521
56421SOL    HW276122   1.171   9.091   9.451  1.2334 -1.4042  0.8636
56422SOL     OW76123  12.347   1.202   9.241 -0.3607  0.3274  0.1252
56422SOL    HW176124  12.291   1.135   9.201 -0.4015 -0.1961  1.0352
56422SOL    HW276125  12.327   1.197   9.334 -0.3661  1.6258  0.2067
56423SOL     OW76126   4.312   1.103  11.400 -0.2157  0.3093 -0.8185
56423SOL    HW176127   4.224   1.129  11.371 -0.8344  0.8735  1.3713
56423SOL    HW276128   4.367   1.114  11.323 -2.0739 -0.2194 -2.3192
56424SOL     OW76129   8.123   5.060  11.154  0.4214  0.1835 -0.5776
56424SOL    HW176130   8.198   5.120  11.149  0.6762 -0.1785 -1.2293
56424SOL    HW276131   8.093   5.052  11.063  1.4484 -1.9913 -0.7913
56425SOL     OW76132   9.707   0.157   7.769  0.1583 -0.0636  0.0730
56425SOL    HW176133   9.646   0.147   7.697  0.4641 -0.3764 -0.1448
56425SOL    HW276134   9.653   0.186   7.843 -0.5839 -2.1940  0.4319
56426SOL     OW76135  11.658   3.597   2.746  0.4663 -0.2634 -0.4956
56426SOL    HW176136  11.693   3.520   2.701  0.4714 -0.0833 -0.7997
56426SOL    HW276137  11.700   3.595   2.832 -0.5698 -1.3665  0.0152
56427SOL     OW76138   6.654   9.650   2.656 -0.3600  0.2586 -0.6521
56427SOL    HW176139   6.709   9.645   2.734  0.4111  0.0771 -1.2025
56427SOL    HW276140   6.713   9.632   2.583 -0.8439  1.4294 -1.3708
56428SOL     OW76141   6.211   2.975   9.677 -0.6808 -0.2583 -0.0797
56428SOL    HW176142   6.272   2.990   9.604  0.4316 -0.4826  0.7665
56428SOL    HW276143   6.125   2.970   9.636 -0.1527  0.2170 -1.3055
56429SOL     OW76144   2.727  10.451   8.380 -0.1689  0.8378  0.3211
56429SOL    HW176145   2.726  10.424   8.471  2.9681  0.9070  0.4779
56429SOL    HW276146   2.731  10.369   8.330  1.6268  0.8330  0.4396
56430SOL     OW76147   0.683   2.368  12.393  0.2847  0.6922 -0.1454
56430SOL    HW176148   0.679   2.364  12.298  1.3490  0.5154 -0.1874
56430SOL    HW276149   0.741   2.297  12.419  0.6056  1.2037  0.5838
56431SOL     OW76150   1.929   4.750   9.954  0.0100 -0.2018  0.6276
56431SOL    HW176151   1.855   4.753  10.015 -0.0787 -1.3459  0.6082
56431SOL    HW276152   1.991   4.690   9.996  0.0549 -0.8067 -0.2906
56432SOL     OW76153   4.054  12.434  12.361 -0.1534  0.0032 -0.1922
56432SOL    HW176154   4.015  12.503  12.415  1.1318 -0.7933  1.8654
56432SOL    HW276155   4.133  12.475  12.324  0.0701 -0.0471  0.2185
56433SOL     OW76156   3.748  12.412   4.210 -0.0912  0.4356 -0.4177
56433SOL    HW176157   3.834  12.442   4.239  0.0942  0.3053 -0.8100
56433SOL    HW276158   3.738  12.326   4.251 -0.3475  0.7587  0.1994
56434SOL     OW76159   1.749   1.615   8.877 -0.0958 -0.2767  0.1813
56434SOL    HW176160   1.845   1.619   8.885  0.0675 -1.8557 -0.6708
56434SOL    HW276161   1.730   1.667   8.799  0.0237  0.3034  0.5316
56435SOL     OW76162   0.777   2.469  11.396  0.0411 -0.3781  0.9170
56435SOL    HW176163   0.757   2.540  11.336  0.6734 -0.6369  0.3827
56435SOL    HW276164   0.819   2.513  11.471  1.4436 -0.2680  0.1090
56436SOL     OW76165   1.599   7.520   0.505 -0.4719  0.2470  0.4531
56436SOL    HW176166   1.645   7.444   0.469 -1.4433 -0.4965  0.7450
56436SOL    HW276167   1.603   7.585   0.435  0.2367 -0.1146  0.1409
56437SOL     OW76168  11.686   0.175  12.306  0.0888 -0.1122  0.3459
56437SOL    HW176169  11.750   0.159  12.375  0.1676 -2.1178 -0.1227
56437SOL    HW276170  11.738   0.209  12.233  0.4710 -0.7220  0.3239
56438SOL     OW76171   0.814  11.239   3.515  0.1331 -0.1563  0.1547
56438SOL    HW176172   0.858  11.304   3.571 -0.0961 -1.0191  1.3775
56438SOL    HW276173   0.874  11.165   3.512 -1.1631 -1.3645  1.8791
56439SOL     OW76174   7.493   0.267   6.339 -0.3922  0.0084 -0.2168
56439SOL    HW176175   7.432   0.193   6.345 -0.2649 -0.3005 -2.1096
56439SOL    HW276176   7.575   0.229   6.310 -0.3646  0.8977 -1.3838
56440SOL     OW76177   2.467  12.260   4.951 -0.1328 -0.6699 -0.2880
56440SOL    HW176178   2.408  12.278   4.877 -1.6154 -0.7125  0.8504
56440SOL    HW276179   2.411  12.261   5.028  1.6330  1.1496  1.0933
56441SOL     OW76180   4.600   7.166   3.623 -0.7810  0.2274  0.3011
56441SOL    HW176181   4.611   7.258   3.646 -1.1032  0.5603 -0.8410
56441SOL    HW276182   4.653   7.154   3.544 -1.7067 -0.2700 -0.2499
56442SOL     OW76183  10.502   1.211   2.300  0.0381  0.0494  0.4040
56442SOL    HW176184  10.516   1.116   2.300  0.2496  0.0772 -0.2416
56442SOL    HW276185  10.564   1.243   2.366  0.6380 -0.1712 -0.0449
56443SOL     OW76186  12.478   2.696   9.449  0.5815 -0.3243 -0.4767
56443SOL    HW176187  12.383   2.690   9.435  0.6585 -2.1636 -0.5193
56443SOL    HW276188  12.494   2.787   9.471 -1.2143  0.0013 -0.4077
56444SOL     OW76189   1.550   6.310   8.867 -0.4058 -0.8418  0.1932
56444SOL    HW176190   1.493   6.235   8.882  0.2910 -1.4275 -0.0279
56444SOL    HW276191   1.613   6.279   8.801  1.0389 -0.6917  1.4341
56445SOL     OW76192   5.228   9.122   6.101  0.5119 -0.0241  0.2136
56445SOL    HW176193   5.162   9.188   6.123 -1.2634 -0.9232 -2.0824
56445SOL    HW276194   5.303   9.173   6.070 -0.5155  0.9510 -0.7229
56446SOL     OW76195   3.440   3.134   4.305  0.5713  0.8929 -0.5261
56446SOL    HW176196   3.371   3.070   4.320  1.4078 -0.0986 -0.7849
56446SOL    HW276197   3.396   3.219   4.312 -0.4635  0.3189  0.3386
56447SOL     OW76198   1.104   6.098   5.149  0.0005 -0.2246 -0.6511
56447SOL    HW176199   1.190   6.140   5.142 -0.9743  1.5889 -2.6420
56447SOL    HW276200   1.069   6.130   5.232  0.2733  1.0255 -0.9927
56448SOL     OW76201   7.807   3.534   1.229  0.2903  0.0999 -0.0284
56448SOL    HW176202   7.898   3.520   1.254  0.5175  0.9993 -0.2989
56448SOL    HW276203   7.812   3.566   1.138 -0.2031  1.1683  0.2986
56449SOL     OW76204   9.888   5.408   0.064  0.8273  0.0289 -0.3245
56449SOL    HW176205   9.956   5.372   0.121  1.4389  2.5289  0.6514
56449SOL    HW276206   9.824   5.446   0.124  0.6688  1.2900 -1.2550
56450SOL     OW76207   2.198   0.837   0.424 -0.2396  0.3714  0.4651
56450SOL    HW176208   2.210   0.824   0.518  3.7579  1.3537  0.2784
56450SOL    HW276209   2.232   0.757   0.384 -1.2266  0.2649 -0.1893
56451SOL     OW76210   7.908   3.049   0.115 -0.2264  0.4444 -0.3970
56451SOL    HW176211   7.872   2.963   0.136 -0.8862  0.4929 -1.2455
56451SOL    HW276212   7.872   3.069   0.028  3.0735 -0.1895 -2.0660
56452SOL     OW76213  10.479  10.208  10.381  0.1856  0.2031  0.1261
56452SOL    HW176214  10.549  10.148  10.407  1.2899  0.7941 -1.3700
56452SOL    HW276215  10.436  10.165  10.308  0.8870  1.1289 -0.8594
56453SOL     OW76216   2.913   2.617   6.487  0.2178  0.3042 -0.0886
56453SOL    HW176217   2.997   2.636   6.447  1.4612 -1.3771  1.5370
56453SOL    HW276218   2.898   2.524   6.468  0.6476 -0.4493  2.7962
56454SOL     OW76219   4.423   6.420  12.472  0.0817  0.5484  0.3306
56454SOL    HW176220   4.353   6.485  12.477 -0.0789  0.3443  0.9003
56454SOL    HW276221   4.393   6.349  12.529  1.4254  1.1194  1.8185
56455SOL     OW76222   6.351   2.290   6.427 -0.2272 -0.3608 -0.2459
56455SOL    HW176223   6.356   2.346   6.349 -0.0538  0.7622  0.5474
56455SOL    HW276224   6.382   2.346   6.498 -0.3274 -1.3908  0.6250
56456SOL     OW76225   8.616   2.723   2.391  0.0005  0.4476  0.0009
56456SOL    HW176226   8.662   2.792   2.439 -0.5740  1.1005 -0.3713
56456SOL    HW276227   8.678   2.698   2.322  0.2739  0.4733  0.2319
56457SOL     OW76228   3.130   2.633  10.137 -0.6588  0.5329 -0.2425
56457SOL    HW176229   3.080   2.580  10.198 -1.9128  1.5202 -0.3650
56457SOL    HW276230   3.079   2.714  10.127 -0.1986  0.6508 -2.1260
56458SOL     OW76231   6.879   9.612   0.661  0.3093 -0.0241  0.1137
56458SOL    HW176232   6.905   9.584   0.573  0.8912 -1.8427  0.8097
56458SOL    HW276233   6.791   9.578   0.672 -0.5066  1.8103 -0.4046
56459SOL     OW76234   4.079  12.149   5.629 -0.1938 -0.5375  0.4746
56459SOL    HW176235   4.033  12.185   5.553 -0.2968  1.7508  1.5199
56459SOL    HW276236   4.120  12.225   5.671  2.8988 -2.1868  0.7526
56460SOL     OW76237  10.367   4.101   5.468  0.3748 -0.3107  0.0951
56460SOL    HW176238  10.406   4.103   5.380  1.2476  3.1514  0.4234
56460SOL    HW276239  10.435   4.138   5.525 -1.9656  2.4760  1.3011
56461SOL     OW76240   0.227   3.340   5.212 -0.4301 -0.0709 -0.0060
56461SOL    HW176241   0.258   3.275   5.149 -0.5032  0.6953 -0.8523
56461SOL    HW276242   0.265   3.312   5.296  1.2820 -0.0279 -0.7259
56462SOL     OW76243   2.790   9.470   0.332  0.4809 -1.0260 -0.2802
56462SOL    HW176244   2.771   9.384   0.294  0.1298 -0.6353 -1.0007
56462SOL    HW276245   2.785   9.531   0.258  3.5625 -0.7301 -0.3930
56463SOL     OW76246   0.515   2.414   8.591 -0.9715 -0.7364  0.9690
56463SOL    HW176247   0.582   2.462   8.641  0.2664  0.3198 -1.5534
56463SOL    HW276248   0.560   2.334   8.563  0.6628  1.4811 -3.6447
56464SOL     OW76249  11.775   8.723  10.347 -0.3374  0.4595  0.5190
56464SOL    HW176250  11.715   8.701  10.418  0.7444 -0.8361  1.0626
56464SOL    HW276251  11.855   8.751  10.392  0.1918  0.0959 -0.1860
56465SOL     OW76252  11.287   7.958   1.707  0.0136  0.3467  0.2759
56465SOL    HW176253  11.264   7.869   1.680  0.9493  0.4312 -0.8746
56465SOL    HW276254  11.273   7.958   1.802 -3.0903 -0.0413 -0.0964
56466SOL     OW76255  11.230   5.532   8.384 -0.6698  0.4080  0.1345
56466SOL    HW176256  11.267   5.592   8.319 -0.5206 -1.1484 -1.2701
56466SOL    HW276257  11.164   5.482   8.336  0.1973 -1.5362  0.8702
56467SOL     OW76258   5.347   1.194  10.386  0.0869  0.0920  0.4028
56467SOL    HW176259   5.421   1.165  10.439 -0.8605  0.0233  1.7403
56467SOL    HW276260   5.322   1.278  10.423 -0.0430  0.4814 -0.5301
56468SOL     OW76261   8.727   1.545   4.627 -0.0131  0.0086  0.3660
56468SOL    HW176262   8.816   1.512   4.616 -0.5657 -0.9795 -1.5606
56468SOL    HW276263   8.671   1.470   4.610 -1.2448  1.0471 -0.3452
56469SOL     OW76264   5.052   7.432   4.282  0.6129 -0.3181 -0.2208
56469SOL    HW176265   5.122   7.494   4.302 -0.0414  0.6331 -0.7689
56469SOL    HW276266   4.973   7.486   4.278  0.1864 -0.9943 -1.8413
56470SOL     OW76267  11.647   8.520  10.712  0.1487 -0.3793  0.0930
56470SOL    HW176268  11.714   8.550  10.774 -1.1389 -0.2639  1.4743
56470SOL    HW276269  11.625   8.597  10.661  1.3239 -0.5080 -0.6430
56471SOL     OW76270   8.199   6.762  12.394  0.6062  0.0781  0.2301
56471SOL    HW176271   8.127   6.790  12.451  1.7472  0.5676  1.4851
56471SOL    HW276272   8.272   6.747  12.454  1.2896 -1.3934 -0.9002
56472SOL     OW76273   9.549  10.499   2.633  0.3065 -0.3590  0.7604
56472SOL    HW176274   9.509  10.534   2.713 -2.2081 -0.2841 -0.4079
56472SOL    HW276275   9.550  10.404   2.647 -1.1776 -0.4437  0.5033
56473SOL     OW76276   7.867   2.648   9.940 -0.1146 -0.1323  0.2328
56473SOL    HW176277   7.859   2.711   9.869 -0.5093 -2.4810 -1.9389
56473SOL    HW276278   7.959   2.653   9.967 -0.2756  1.7439  0.5613
56474SOL     OW76279   4.414  11.747   6.400  0.0991 -0.5303 -0.2017
56474SOL    HW176280   4.481  11.704   6.348  0.0707  0.6078 -1.2270
56474SOL    HW276281   4.408  11.836   6.364 -0.6457 -0.0192  1.0797
56475SOL     OW76282   0.876   5.673   4.441  0.5345 -0.2912  0.1271
56475SOL    HW176283   0.813   5.606   4.467 -0.6988  0.2764 -1.2512
56475SOL    HW276284   0.941   5.673   4.510  0.0444 -2.2348  0.6422
56476SOL     OW76285   9.564   6.628  10.413  0.3592  0.2801 -0.1366
56476SOL    HW176286   9.498   6.647  10.346  0.0273  2.1824  0.6609
56476SOL    HW276287   9.540   6.542  10.448 -1.8307  0.9897  0.2302
56477SOL     OW76288  11.124   2.039   9.585  0.0594 -0.5818 -0.1146
56477SOL    HW176289  11.160   2.016   9.671  1.1837 -1.8088 -0.8748
56477SOL    HW276290  11.029   2.047   9.600  0.5258  3.4685  2.1058
56478SOL     OW76291  11.964   7.114   7.749  0.3286 -0.8426 -0.4695
56478SOL    HW176292  11.917   7.034   7.774 -0.6376 -0.0122  0.4384
56478SOL    HW276293  11.908   7.185   7.778  1.8583  0.1948  0.0631
56479SOL     OW76294   6.282   8.839   3.079  0.2780  0.4565 -0.0798
56479SOL    HW176295   6.219   8.772   3.053  0.5454 -0.0557  0.5666
56479SOL    HW276296   6.228   8.907   3.120  0.1255  0.0559  0.4005
56480SOL     OW76297   9.667  11.695   0.429  0.2116 -0.2751 -1.1870
56480SOL    HW176298   9.659  11.789   0.446 -1.0268 -0.4968 -0.4351
56480SOL    HW276299   9.679  11.689   0.334  0.2433  0.6327 -1.2526
56481SOL     OW76300   2.392   8.774   4.269 -0.1489  0.2577  0.3521
56481SOL    HW176301   2.329   8.728   4.324  2.5197 -1.1897  2.4002
56481SOL    HW276302   2.410   8.855   4.316  0.2201  0.2335  0.2541
56482SOL     OW76303   0.202   3.030   8.777 -0.4561 -0.2113 -0.1246
56482SOL    HW176304   0.275   2.992   8.728 -0.0322  1.5192 -0.9428
56482SOL    HW276305   0.188   2.971   8.851  2.1583 -0.3165  0.3733
56483SOL     OW76306   6.877   8.913   4.646 -0.3645 -0.4406  0.2280
56483SOL    HW176307   6.800   8.963   4.618  0.4442 -0.1041 -1.5137
56483SOL    HW276308   6.892   8.851   4.575  0.7596 -0.7331  0.7073
56484SOL     OW76309   1.055   6.165  12.213  0.1263  0.0783 -0.4454
56484SOL    HW176310   1.047   6.242  12.269  2.1907 -1.1382  1.7252
56484SOL    HW276311   0.976   6.114  12.229  0.2162  0.2489  0.6220
56485SOL     OW76312   9.703   8.845   7.506  0.3980  0.0391  0.2595
56485SOL    HW176313   9.660   8.761   7.523 -0.5583  0.5902  0.6224
56485SOL    HW276314   9.780   8.844   7.562  0.9786 -1.0329 -0.5125
56486SOL     OW76315   3.685   3.279   4.206  0.4032 -0.0643  0.2619
56486SOL    HW176316   3.615   3.223   4.240  0.6289  0.6618  1.9859
56486SOL    HW276317   3.746   3.217   4.166  0.2413 -1.0045  1.3989
56487SOL     OW76318   3.805   5.334   2.979  0.1574  0.0253  0.1034
56487SOL    HW176319   3.763   5.327   2.893  1.6380 -3.4443 -0.4962
56487SOL    HW276320   3.886   5.382   2.962 -0.4997  1.1342  0.0098
56488SOL     OW76321   9.679  11.468   5.547  0.2516 -0.0813  0.2233
56488SOL    HW176322   9.605  11.458   5.486 -0.1333 -0.1374  0.6915
56488SOL    HW276323   9.755  11.484   5.491  0.0786 -1.1172 -0.3185
56489SOL     OW76324   4.606  10.945   5.040  0.2679 -0.0024  0.1552
56489SOL    HW176325   4.521  10.974   5.072 -0.5468 -0.2798 -1.6234
56489SOL    HW276326   4.586  10.892   4.963  2.1528  1.8568 -1.7529
56490SOL     OW76327   6.507   7.295   7.882 -0.4428  0.0681  0.2693
56490SOL    HW176328   6.594   7.280   7.847 -0.2182  0.7892  0.5111
56490SOL    HW276329   6.476   7.375   7.840 -1.0789 -0.2993  0.0174
56491SOL     OW76330   1.381   2.790   7.117 -0.7361  0.5296  0.2070
56491SOL    HW176331   1.361   2.760   7.206 -0.4169  0.8021  0.3789
56491SOL    HW276332   1.461   2.743   7.094 -0.1134  1.3852  0.5632
56492SOL     OW76333   9.114   1.674   1.412 -0.0968 -0.5633  0.4489
56492SOL    HW176334   9.072   1.710   1.489 -0.9550 -0.4891 -0.0431
56492SOL    HW276335   9.046   1.620   1.370 -0.0404  0.3747 -0.9108
56493SOL     OW76336   2.832   9.392   5.153 -0.5278  0.5179  0.3004
56493SOL    HW176337   2.892   9.420   5.083  0.6115  0.5722  1.2667
56493SOL    HW276338   2.885   9.334   5.208 -2.2106 -1.8114 -0.4217
56494SOL     OW76339   9.219   2.574   3.325 -0.1958 -0.0325 -0.2605
56494SOL    HW176340   9.183   2.601   3.240  0.1033  0.9288 -0.0913
56494SOL    HW276341   9.313   2.583   3.315 -0.1396 -0.2498  0.0648
56495SOL     OW76342   6.257   1.920   5.545  0.1403 -0.1271  0.1868
56495SOL    HW176343   6.247   1.908   5.639 -0.6338  1.0804  0.2770
56495SOL    HW276344   6.182   1.974   5.519  2.0768  2.3814 -0.5496
56496SOL     OW76345   9.181  10.549   0.459  0.2772  0.0568 -0.4006
56496SOL    HW176346   9.176  10.584   0.371  0.5531  0.8913 -0.0942
56496SOL    HW276347   9.273  10.525   0.471  0.2924  0.1858 -0.2521
56497SOL     OW76348   7.569   2.114  11.360  0.3684  0.1440 -0.3047
56497SOL    HW176349   7.649   2.078  11.398 -1.7099 -3.8604  0.9063
56497SOL    HW276350   7.534   2.042  11.305 -1.4749  2.4102 -2.3422
56498SOL     OW76351   1.147   2.175   8.526  0.6803  0.2510 -0.0959
56498SOL    HW176352   1.242   2.160   8.532  0.3196 -1.8371  1.7562
56498SOL    HW276353   1.135   2.223   8.444  3.3256  0.5667 -0.3798
56499SOL     OW76354   7.082   1.619   3.700 -0.0669  0.0802  0.1271
56499SOL    HW176355   6.993   1.583   3.696 -0.6299  1.3518  0.6100
56499SOL    HW276356   7.131   1.568   3.636 -1.3257 -0.1596 -0.6857
56500SOL     OW76357   2.985   7.060   8.931 -0.6260  0.1186  0.2009
56500SOL    HW176358   2.999   7.104   8.846 -0.1092 -0.9865 -0.3027
56500SOL    HW276359   2.910   7.105   8.969 -0.6618  0.8477 -0.6993
56501SOL     OW76360   6.339   2.955   9.161 -0.1005 -0.2780 -0.2106
56501SOL    HW176361   6.412   3.003   9.200  0.5950  0.0772 -1.8634
56501SOL    HW276362   6.365   2.863   9.165 -0.7315 -0.4031  1.5306
56502SOL     OW76363   8.859   3.473   0.563 -0.6550  0.5713  0.5355
56502SOL    HW176364   8.818   3.444   0.482 -1.7459 -0.7517  1.5015
56502SOL    HW276365   8.822   3.559   0.579  0.0526  1.1220 -0.6739
56503SOL     OW76366   0.454   6.396   3.923  0.2385 -0.5359  0.4082
56503SOL    HW176367   0.511   6.412   3.998 -0.8561  0.1378  1.1423
56503SOL    HW276368   0.500   6.331   3.870  0.7790 -1.4517  1.9507
56504SOL     OW76369   4.744   7.281  11.878  0.2761  0.0371  0.8370
56504SOL    HW176370   4.751   7.206  11.818 -1.7224 -0.4567  1.1492
56504SOL    HW276371   4.797   7.350  11.837 -1.2589 -0.1748 -1.7012
56505SOL     OW76372   2.411   7.241   1.668  0.0471 -0.1603 -0.4827
56505SOL    HW176373   2.432   7.148   1.662 -1.5574 -0.5084 -1.2436
56505SOL    HW276374   2.383   7.253   1.759 -1.9027 -0.9585 -0.9266
56506SOL     OW76375   3.710  10.375   3.987  0.4904 -0.9097 -0.0535
56506SOL    HW176376   3.805  10.392   3.983  0.5553 -1.4495 -1.1707
56506SOL    HW276377   3.670  10.450   3.943  0.4447 -1.0417 -0.2375
56507SOL     OW76378  11.984  11.989  12.517  0.1357  0.0311 -0.1855
56507SOL    HW176379  11.945  12.063  12.470  0.0406 -0.3445 -0.7085
56507SOL    HW276380  11.917  11.921  12.514  0.7296 -0.5347 -0.8649
56508SOL     OW76381   4.381   7.415   7.404 -0.2602  0.2934  0.2072
56508SOL    HW176382   4.448   7.453   7.347  0.7613 -1.4022  0.2024
56508SOL    HW276383   4.306   7.399   7.347  0.7913 -1.4921 -0.7398
56509SOL     OW76384   3.929   7.450   4.313 -0.3142  0.0230  0.4520
56509SOL    HW176385   3.855   7.479   4.367  0.0489  0.6831  0.5990
56509SOL    HW276386   3.888   7.417   4.233 -1.0355 -3.0087  1.9096
56510SOL     OW76387   4.058  10.200   8.647  0.0253  0.5714 -0.6752
56510SOL    HW176388   4.061  10.222   8.740  0.4656  0.8630 -0.7529
56510SOL    HW276389   3.978  10.242   8.615 -0.7551 -0.5271 -0.1872
56511SOL     OW76390  10.956   8.237   6.662 -0.7117  0.1047 -0.6238
56511SOL    HW176391  10.913   8.274   6.585 -0.1245  0.7764 -0.6422
56511SOL    HW276392  11.035   8.195   6.627 -1.0400 -0.6023 -0.5234
56512SOL     OW76393   6.535   7.083   6.716  0.4790  0.3286  0.4885
56512SOL    HW176394   6.483   7.084   6.796  0.7943 -0.1162  0.7055
56512SOL    HW276395   6.568   6.993   6.710 -1.3877 -0.3197 -1.3458
56513SOL     OW76396   2.246   0.980  10.865 -0.8582  0.4632  0.2747
56513SOL    HW176397   2.153   0.995  10.879 -1.0932 -1.1544  0.6432
56513SOL    HW276398   2.250   0.918  10.792  0.0700  2.6623 -1.6863
56514SOL     OW76399   5.742   6.507   3.196 -0.2267 -0.0175  0.1095
56514SOL    HW176400   5.782   6.475   3.115  0.7719  0.3742  0.4394
56514SOL    HW276401   5.754   6.602   3.193  2.3575 -0.1925  1.9989
56515SOL     OW76402   6.765   5.663   6.101  0.3931 -0.1254 -0.3882
56515SOL    HW176403   6.770   5.730   6.033 -1.5289  2.2335  1.5811
56515SOL    HW276404   6.671   5.644   6.109  0.8684 -3.4242 -1.0643
56516SOL     OW76405   7.156   2.996   8.452  0.0431 -0.4743 -0.1580
56516SOL    HW176406   7.118   3.053   8.518 -0.0453 -1.4387  0.6575
56516SOL    HW276407   7.205   3.054   8.394 -0.4950  0.4733  0.3218
56517SOL     OW76408   6.933   5.006   5.966  0.2435 -0.0302 -0.1774
56517SOL    HW176409   7.021   5.004   6.003  0.6712  0.0075 -1.1582
56517SOL    HW276410   6.903   5.096   5.979  0.0313 -0.2310  0.8423
56518SOL     OW76411   2.288   8.160   2.626 -1.2050  0.2334 -0.0235
56518SOL    HW176412   2.214   8.170   2.565 -0.3255  2.4916 -0.8368
56518SOL    HW276413   2.365   8.178   2.572 -0.1756 -0.5021  1.1640
56519SOL     OW76414  12.449   3.662   6.978 -0.1375 -0.0802  0.2030
56519SOL    HW176415  12.354   3.671   6.980 -0.0806  0.4760  1.1145
56519SOL    HW276416  12.471   3.618   7.060  0.2918 -1.5026 -0.6281
56520SOL     OW76417   9.294   7.964  11.240 -0.5275  0.4251  0.1269
56520SOL    HW176418   9.359   8.012  11.189 -0.0488  1.7209  1.8262
56520SOL    HW276419   9.343   7.890  11.278 -0.8328 -0.4141 -1.0826
56521SOL     OW76420  12.303  10.097   2.836 -0.3614  0.2811  0.2518
56521SOL    HW176421  12.378  10.045   2.866 -0.8259 -0.7271 -0.2789
56521SOL    HW276422  12.338  10.149   2.764 -0.2218 -0.4094 -0.1942
56522SOL     OW76423   6.867   8.718  12.003 -0.1516  0.3172 -0.1081
56522SOL    HW176424   6.951   8.694  12.042  0.0517  0.6743 -0.3258
56522SOL    HW276425   6.805   8.656  12.041  0.2007  0.0794  0.0877
56523SOL     OW76426   4.469   1.864   7.191  0.1518  0.6260 -0.0848
56523SOL    HW176427   4.529   1.805   7.235  1.1074  0.9600 -0.9072
56523SOL    HW276428   4.518   1.946   7.182  0.4926  0.2226 -2.8354
56524SOL     OW76429   5.092  11.748   2.948  0.1563  0.1667  0.3901
56524SOL    HW176430   5.095  11.810   3.021  0.7294 -0.6031  1.0377
56524SOL    HW276431   5.131  11.668   2.983  1.2778  0.0550 -1.0458
56525SOL     OW76432  10.866  11.416   0.141 -0.1763 -0.0462 -0.2309
56525SOL    HW176433  10.936  11.358   0.169 -0.5714 -1.0979 -1.3494
56525SOL    HW276434  10.785  11.369   0.163 -0.5551  1.0412  0.8200
56526SOL     OW76435   2.574  11.825   9.751  0.0118  0.8264 -0.2644
56526SOL    HW176436   2.534  11.738   9.754 -0.5336  1.0485 -0.9672
56526SOL    HW276437   2.536  11.866   9.674  1.3766  1.1543 -0.7844
56527SOL     OW76438   4.540   7.614   3.505 -0.2966  0.2415 -0.3477
56527SOL    HW176439   4.607   7.610   3.437 -0.3708 -0.0389 -0.4080
56527SOL    HW276440   4.543   7.704   3.537  0.9283 -0.0756  0.4719
56528SOL     OW76441   2.199  10.476   1.254  0.2203 -0.1127  0.1450
56528SOL    HW176442   2.175  10.521   1.336 -1.6863 -1.4605  0.3976
56528SOL    HW276443   2.247  10.542   1.204 -2.3834  2.2333  0.5069
56529SOL     OW76444   7.865   3.751  12.156 -0.4153 -0.4967 -0.4349
56529SOL    HW176445   7.804   3.825  12.155  0.2460  0.0620  0.2664
56529SOL    HW276446   7.814   3.680  12.197 -0.6507 -0.0787  0.0101
56530SOL     OW76447   4.496   4.033  11.326 -0.1669 -0.5020  0.4784
56530SOL    HW176448   4.408   4.005  11.302  0.3874 -1.0739 -0.9934
56530SOL    HW276449   4.530   4.076  11.248  0.4690  0.7096  1.4013
56531SOL     OW76450   7.431  12.528   4.735 -0.1897 -0.0660  0.4875
56531SOL    HW176451   7.496  12.549   4.803  0.7153  1.0651 -0.6947
56531SOL    HW276452   7.409  12.436   4.752  0.9946 -0.1930  1.5059
56532SOL     OW76453   2.782  12.130   2.490 -0.6075  1.0337 -0.2408
56532SOL    HW176454   2.831  12.209   2.467  0.2951  0.1831 -1.4024
56532SOL    HW276455   2.709  12.128   2.429  0.6828 -0.1985 -1.8360
56533SOL     OW76456   6.337   8.396  12.432  0.3461 -0.1463  0.7457
56533SOL    HW176457   6.279   8.472  12.429 -0.7306 -0.8321  2.5058
56533SOL    HW276458   6.424   8.431  12.412 -0.1809  1.4639  1.0987
56534SOL     OW76459   8.119  12.540   4.316  0.0549  0.3937  0.1297
56534SOL    HW176460   8.056  12.494   4.372 -0.8738 -1.2316 -2.1383
56534SOL    HW276461   8.205  12.515   4.351 -0.5012 -0.0890  1.1865
56535SOL     OW76462   1.170  11.548   1.796  0.0906  0.1842  0.2795
56535SOL    HW176463   1.166  11.623   1.737 -0.0530 -0.6491 -0.7782
56535SOL    HW276464   1.257  11.554   1.837  1.0303 -0.3605 -1.5336
56536SOL     OW76465   1.191   2.225   3.894  0.5603 -0.1467  0.1617
56536SOL    HW176466   1.234   2.193   3.973  0.6375  0.2324  0.2792
56536SOL    HW276467   1.210   2.159   3.827  2.1846  0.4721 -0.0455
56537SOL     OW76468  11.834  12.394   9.403  0.8713  0.3777  0.1555
56537SOL    HW176469  11.769  12.368   9.469  0.9657 -0.8062 -0.2073
56537SOL    HW276470  11.893  12.453   9.450  1.3829 -1.0281  1.3526
56538SOL     OW76471   4.343   7.151   4.639 -0.0686 -0.0186 -0.3983
56538SOL    HW176472   4.412   7.097   4.676 -1.0327 -0.9036  0.1550
56538SOL    HW276473   4.356   7.144   4.544 -0.8024 -2.1107 -0.3924
56539SOL     OW76474   6.872   2.643   5.298  0.0641  0.1890 -0.1015
56539SOL    HW176475   6.813   2.593   5.355 -1.7319  1.0975 -1.0601
56539SOL    HW276476   6.910   2.578   5.240  0.1166 -0.4482  0.6391
56540SOL     OW76477   3.518   9.898   8.041 -0.0213  0.0998  0.3527
56540SOL    HW176478   3.566   9.816   8.050  1.9937  1.3947  2.7088
56540SOL    HW276479   3.498   9.904   7.948  0.4770 -2.6388 -0.0135
56541SOL     OW76480   9.442  10.985   9.465 -0.5206 -0.4651  0.9550
56541SOL    HW176481   9.436  10.915   9.530 -0.5568 -0.6158  0.7881
56541SOL    HW276482   9.454  11.065   9.517  1.8282 -0.8336  1.0784
56542SOL     OW76483   3.301   3.311   1.141 -0.0293 -0.4508  0.7031
56542SOL    HW176484   3.239   3.279   1.206 -0.4084 -0.9537  0.1092
56542SOL    HW276485   3.323   3.233   1.089  0.6176 -0.1534  0.5168
56543SOL     OW76486  11.283   8.496  12.135 -0.2400 -0.2689  0.1346
56543SOL    HW176487  11.272   8.540  12.220 -0.9844  2.0694 -1.0616
56543SOL    HW276488  11.358   8.541  12.095 -2.5157  1.8608 -2.1454
56544SOL     OW76489   0.018  11.283   3.219  0.0577 -0.2484 -0.1905
56544SOL    HW176490   0.097  11.229   3.217  0.2640 -0.0259  0.8908
56544SOL    HW276491   0.050  11.372   3.206  0.1862  0.0007  1.5375
56545SOL     OW76492   0.116   5.098   1.092 -0.1648  0.2926 -0.0147
56545SOL    HW176493   0.200   5.143   1.094 -1.1256  2.1241  1.1469
56545SOL    HW276494   0.073   5.131   1.013  0.8965 -2.1213 -1.7318
56546SOL     OW76495   4.418   4.700   6.834 -0.2373 -0.0751  0.5145
56546SOL    HW176496   4.452   4.611   6.828  1.8840  0.5583  1.9774
56546SOL    HW276497   4.395   4.711   6.926 -1.9243  0.4576  0.0792
56547SOL     OW76498   7.319   8.908   4.945  0.5835 -0.0807  0.1007
56547SOL    HW176499   7.235   8.898   4.900  0.7455 -0.0432 -0.2115
56547SOL    HW276500   7.382   8.865   4.887  0.7867 -0.0721  0.3145
56548SOL     OW76501   2.868   5.051  12.323 -0.0586  0.3246  0.7180
56548SOL    HW176502   2.891   5.091  12.406  4.6065  0.1932 -0.2250
56548SOL    HW276503   2.902   4.962  12.328  0.6872  0.4203 -1.3942
56549SOL     OW76504   9.395   2.436   1.931  0.5118 -0.2850 -0.3279
56549SOL    HW176505   9.458   2.493   1.974  2.0991 -1.9358 -0.3376
56549SOL    HW276506   9.376   2.479   1.848  1.0365  0.6167  0.0063
56550SOL     OW76507   8.938  11.143  11.660 -0.5398 -0.0708 -0.2177
56550SOL    HW176508   8.980  11.073  11.711  0.0927  1.5561  1.6618
56550SOL    HW276509   8.980  11.139  11.574  1.6113 -0.1945  0.7757
56551SOL     OW76510  10.021   5.598   0.401  0.7354 -0.0996 -0.2085
56551SOL    HW176511  10.063   5.609   0.316  1.0127 -0.2393 -0.0899
56551SOL    HW276512   9.927   5.603   0.383  0.7959 -0.0963 -0.5170
56552SOL     OW76513   9.886   3.273   9.765 -0.2173  0.0316  0.8335
56552SOL    HW176514   9.870   3.312   9.679  2.4142 -0.1938  0.1715
56552SOL    HW276515   9.852   3.184   9.758 -2.0748  0.6983  0.8318
56553SOL     OW76516   0.965   5.296  10.617 -0.1473 -0.8779 -0.6396
56553SOL    HW176517   0.978   5.218  10.670 -0.3325 -1.2159 -1.0858
56553SOL    HW276518   0.870   5.307  10.611 -0.1201  0.1843  0.5766
56554SOL     OW76519   2.054  11.407   0.576 -0.1380  0.0624  0.2994
56554SOL    HW176520   2.052  11.465   0.499 -0.0874 -2.0386 -1.3697
56554SOL    HW276521   1.963  11.381   0.589  0.1372 -1.4907 -0.6262
56555SOL     OW76522   8.267   5.437   2.024 -0.2310 -0.2020  0.0655
56555SOL    HW176523   8.294   5.369   1.962 -0.0701 -2.8602  2.8677
56555SOL    HW276524   8.347   5.485   2.043  0.1341 -0.6646 -0.2640
56556SOL     OW76525   1.480  10.382   7.923  0.2144 -0.6315  0.3376
56556SOL    HW176526   1.438  10.467   7.906  1.2260 -0.1789  0.0531
56556SOL    HW276527   1.529  10.396   8.004  2.2729 -0.2183 -0.9227
56557SOL     OW76528   7.667   6.832   7.128 -0.4387 -0.0171 -0.1708
56557SOL    HW176529   7.698   6.776   7.056  0.4850 -0.8673  0.8566
56557SOL    HW276530   7.735   6.899   7.137  0.1308 -0.7020  0.7709
56558SOL     OW76531   1.579   9.804   7.907  0.2011  0.5897  0.4982
56558SOL    HW176532   1.555   9.726   7.858 -1.0731  0.2304  1.6247
56558SOL    HW276533   1.586   9.873   7.841 -0.7880 -0.0223 -0.2789
56559SOL     OW76534   6.392  12.283   2.595 -0.0320  0.6962  0.0537
56559SOL    HW176535   6.304  12.321   2.605 -0.3033  0.4543 -1.1584
56559SOL    HW276536   6.431  12.290   2.682 -1.3801  0.4929  0.7095
56560SOL     OW76537   6.503  12.295   7.791  0.1537 -0.4323 -0.5060
56560SOL    HW176538   6.463  12.208   7.801 -1.6655  0.3064 -0.9492
56560SOL    HW276539   6.436  12.356   7.821  1.4837  0.8376 -0.0130
56561SOL     OW76540   1.789  10.573   2.966  0.1248 -0.1326  0.1498
56561SOL    HW176541   1.830  10.648   2.922 -0.3733  0.0992  0.0746
56561SOL    HW276542   1.859  10.538   3.022  0.9053 -0.7117 -1.1456
56562SOL     OW76543   3.272   6.839  12.364  0.0312  0.0877  0.2550
56562SOL    HW176544   3.258   6.922  12.409  0.9297  0.6716 -0.5188
56562SOL    HW276545   3.251   6.856  12.272  1.0987 -0.2737 -0.0778
56563SOL     OW76546  12.446   7.832   2.155 -0.5298 -0.0078 -0.1764
56563SOL    HW176547  12.418   7.750   2.195 -0.1159 -0.8758 -1.6004
56563SOL    HW276548  12.444   7.895   2.227  0.1524 -1.4749  1.2086
56564SOL     OW76549   3.684   9.014   0.242 -0.5941  0.4539 -0.2572
56564SOL    HW176550   3.597   9.046   0.218 -0.6484  0.0699 -0.5834
56564SOL    HW276551   3.685   9.015   0.338 -1.0429  0.2202 -0.2520
56565SOL     OW76552   7.898   0.796   5.898  0.7533  0.1076 -0.2212
56565SOL    HW176553   7.954   0.786   5.820 -0.7963  1.6378 -1.6152
56565SOL    HW276554   7.820   0.744   5.878  0.3869  0.4290  0.3527
56566SOL     OW76555   1.853  11.817   9.127 -0.1677 -0.4349 -0.6320
56566SOL    HW176556   1.758  11.823   9.135 -0.3302 -0.1439 -2.4996
56566SOL    HW276557   1.873  11.855   9.042  1.8088  1.1244  0.4437
56567SOL     OW76558  11.014   6.219   9.481  0.3687  0.2584  0.2261
56567SOL    HW176559  11.012   6.123   9.482 -2.5545  0.2295  0.7830
56567SOL    HW276560  11.107   6.241   9.478  1.1465 -2.5752  0.5223
56568SOL     OW76561   5.626   2.195   5.550 -0.1013  0.1365  0.4975
56568SOL    HW176562   5.707   2.247   5.559 -0.2709  0.3232  1.0240
56568SOL    HW276563   5.559   2.249   5.593 -0.6531  0.2993 -0.5497
56569SOL     OW76564   4.950   9.674   9.355  0.0310  0.5757  0.8741
56569SOL    HW176565   4.998   9.697   9.275 -0.2512  1.8623  1.0557
56569SOL    HW276566   5.007   9.613   9.401  0.2742 -0.0469 -0.2188
56570SOL     OW76567   9.332   8.794  12.539  0.1685  0.6506  0.1054
56570SOL    HW176568   9.311   8.738  12.613 -0.3484  0.5695 -0.0999
56570SOL    HW276569   9.368   8.874  12.578  1.5823 -0.0903  0.3755
56571SOL     OW76570  10.888   8.547   5.101 -0.5111 -0.2187 -0.3973
56571SOL    HW176571  10.879   8.496   5.021  0.2257 -2.5136  0.8973
56571SOL    HW276572  10.982   8.543   5.122 -0.9112 -1.0815  1.4263
56572SOL     OW76573   4.136   3.589   4.439 -0.5881 -0.4958 -0.2231
56572SOL    HW176574   4.133   3.493   4.439 -0.1226 -0.5430  1.3181
56572SOL    HW276575   4.049   3.616   4.411 -0.5569 -1.3613 -1.2055
56573SOL     OW76576   8.078   5.600  12.441  0.2388 -0.4596  0.2382
56573SOL    HW176577   8.081   5.507  12.465  1.9045 -0.5946 -0.3353
56573SOL    HW276578   8.024   5.640  12.508 -3.0438 -2.2489 -1.0876
56574SOL     OW76579   5.812  11.492   2.431 -0.0453  0.2921 -0.1262
56574SOL    HW176580   5.863  11.568   2.403  0.7642  0.1326  0.9004
56574SOL    HW276581   5.760  11.524   2.505  1.2067 -0.4435  1.1027
56575SOL     OW76582   7.435   6.157   3.966 -0.4662 -0.0367 -0.4594
56575SOL    HW176583   7.457   6.171   4.058  0.6088  0.7776 -0.8096
56575SOL    HW276584   7.509   6.196   3.918 -0.5744 -1.2291 -1.6482
56576SOL     OW76585   5.921   2.542   9.896 -0.1891  0.8117 -0.4453
56576SOL    HW176586   5.854   2.529   9.829  0.5677  0.4923 -1.1614
56576SOL    HW276587   5.995   2.582   9.850  0.5814  0.0139  0.0505
56577SOL     OW76588   0.208   5.549  12.030 -0.6520 -0.1172  0.3568
56577SOL    HW176589   0.293   5.506  12.038 -1.3401 -1.4255  0.9077
56577SOL    HW276590   0.229   5.642  12.020  0.8400 -0.4391  0.2779
56578SOL     OW76591   2.823  12.366   1.101  0.2411  0.2068 -0.3062
56578SOL    HW176592   2.903  12.333   1.061  0.5999 -0.2825  0.7660
56578SOL    HW276593   2.801  12.300   1.168 -1.1618  0.2291 -0.7006
56579SOL     OW76594  12.211   6.960   6.453  0.1278  0.0203  0.2035
56579SOL    HW176595  12.274   6.889   6.441  0.4601  0.2947  0.3130
56579SOL    HW276596  12.264   7.039   6.454 -0.3233  0.3477 -0.7853
56580SOL     OW76597  11.096   4.285  11.411  0.1196  0.1644  0.0027
56580SOL    HW176598  11.122   4.251  11.325  1.8545  0.8259  0.2311
56580SOL    HW276599  11.133   4.222  11.474  0.1691  0.4918  0.3034
56581SOL     OW76600   2.331   6.401  12.543 -0.2640 -0.6429  0.2750
56581SOL    HW176601   2.242   6.411  12.510 -1.0542  1.1401  2.6490
56581SOL    HW276602   2.386   6.443  12.477 -1.2887 -0.7011 -0.6483
56582SOL     OW76603   6.854  12.245   7.537 -0.1008  0.1621 -0.1223
56582SOL    HW176604   6.835  12.291   7.619 -1.4080 -0.6366  0.0464
56582SOL    HW276605   6.932  12.193   7.556 -0.0766  0.3956  0.4401
56583SOL     OW76606   0.273   6.041   5.358  0.1103  0.0650  0.0390
56583SOL    HW176607   0.275   6.072   5.267  0.9723 -1.0085 -0.3297
56583SOL    HW276608   0.180   6.028   5.376  0.0178 -1.9035 -1.4937
56584SOL     OW76609  10.542   7.252   6.775 -0.1741  0.0892 -0.3463
56584SOL    HW176610  10.596   7.218   6.703  1.6402 -0.1595  1.0759
56584SOL    HW276611  10.545   7.183   6.841  0.3601  1.3865  1.0248
56585SOL     OW76612  11.683   4.316   0.178 -0.3431 -0.3538 -0.6273
56585SOL    HW176613  11.635   4.291   0.099 -0.4504  0.5379 -0.8538
56585SOL    HW276614  11.729   4.236   0.204 -0.2976 -0.6579 -1.5936
56586SOL     OW76615   4.822  11.003   8.745  0.3261  0.0088 -0.6167
56586SOL    HW176616   4.754  10.935   8.753  2.2471 -1.8637  1.1024
56586SOL    HW276617   4.777  11.084   8.767 -1.5517 -1.0085 -0.4296
56587SOL     OW76618   7.036  12.138  10.150  0.4796 -0.6192 -0.0181
56587SOL    HW176619   7.121  12.181  10.145  2.1030 -3.6405 -1.5637
56587SOL    HW276620   7.000  12.144  10.061 -0.5117 -0.1405  0.4046
56588SOL     OW76621   0.921   3.359   7.967  0.3068  0.9845  0.0606
56588SOL    HW176622   0.958   3.295   8.029 -2.3713 -0.4400  0.3153
56588SOL    HW276623   0.970   3.440   7.985  2.6992 -0.5216  0.8646
56589SOL     OW76624  11.610  12.455  10.860 -0.5358 -0.2207 -0.1969
56589SOL    HW176625  11.545  12.491  10.921  0.2118  2.9371 -1.1329
56589SOL    HW276626  11.693  12.461  10.907 -0.4866 -1.7728 -0.0153
56590SOL     OW76627   0.560   2.489   7.034  0.3392  0.3060 -0.9042
56590SOL    HW176628   0.533   2.414   7.087  2.6512 -0.5829 -0.8399
56590SOL    HW276629   0.480   2.519   6.992 -1.1503 -0.4608  1.2182
56591SOL     OW76630   4.589   3.054   1.089 -0.2843  0.1163 -0.0706
56591SOL    HW176631   4.600   2.974   1.037 -1.7967  1.3093 -2.4116
56591SOL    HW276632   4.554   3.025   1.173  0.1492 -1.7303 -0.4988
56592SOL     OW76633   3.193   9.885   3.640 -0.3584 -0.4018 -0.2307
56592SOL    HW176634   3.243   9.944   3.584 -0.3483  1.1281  1.2755
56592SOL    HW276635   3.164   9.941   3.712  0.8218 -2.5024  2.0360
56593SOL     OW76636   2.408   2.496  11.253  0.1208  0.5953  0.4352
56593SOL    HW176637   2.323   2.492  11.207  0.7716 -0.9134 -0.7316
56593SOL    HW276638   2.469   2.455  11.192  1.0791 -1.3830  2.6057
56594SOL     OW76639   8.438  10.532   7.265  0.0931 -0.0328 -0.0487
56594SOL    HW176640   8.444  10.554   7.172 -1.4376  2.4467  0.3353
56594SOL    HW276641   8.529  10.533   7.295  0.4341  2.1824 -0.9485
56595SOL     OW76642  12.041   7.471   7.666  0.8224 -0.4915 -0.1352
56595SOL    HW176643  12.079   7.554   7.694 -0.2926  0.3268 -0.9236
56595SOL    HW276644  12.100   7.439   7.598  1.2431 -0.3217  0.1490
56596SOL     OW76645   8.529   5.471   7.610 -0.0928  0.3370 -0.0429
56596SOL    HW176646   8.549   5.483   7.517  1.2532 -0.4637  0.1122
56596SOL    HW276647   8.531   5.559   7.647 -0.8272  0.6804 -0.8049
56597SOL     OW76648   2.284   0.392   2.404 -0.0118 -0.1846 -0.2522
56597SOL    HW176649   2.198   0.398   2.362 -0.2773 -1.2327  0.1102
56597SOL    HW276650   2.318   0.307   2.378  0.1978 -0.4869  0.9189
56598SOL     OW76651   6.823   1.701   5.666  0.6037  0.0708 -0.6985
56598SOL    HW176652   6.830   1.607   5.650 -0.3128 -0.0877 -0.2577
56598SOL    HW276653   6.740   1.726   5.624 -1.0703 -0.0558  2.2254
56599SOL     OW76654   5.673   3.684   0.804  0.0619 -0.2843  0.6055
56599SOL    HW176655   5.679   3.780   0.805  0.6598 -0.3152  0.4939
56599SOL    HW276656   5.706   3.660   0.717 -1.4611 -0.5131  0.0679
56600SOL     OW76657   0.198   0.527   3.452 -0.6299  0.0204  0.4792
56600SOL    HW176658   0.268   0.576   3.496  0.1636 -1.5526  1.0351
56600SOL    HW276659   0.124   0.530   3.514 -0.0376 -0.8470  1.2525
56601SOL     OW76660   6.500   3.117   2.797  0.3593  0.0306  0.1521
56601SOL    HW176661   6.478   3.136   2.706 -1.2109 -0.8040  0.3273
56601SOL    HW276662   6.473   3.026   2.809  0.1757  0.2545  1.5559
56602SOL     OW76663  10.320   4.645  10.987  0.3289  0.5414 -0.0793
56602SOL    HW176664  10.247   4.704  10.967 -0.7625 -0.8568 -0.4497
56602SOL    HW276665  10.309   4.624  11.080  0.2456  0.3264 -0.1370
56603SOL     OW76666   2.575   5.942   9.342 -0.0397 -0.0849  0.2997
56603SOL    HW176667   2.662   5.903   9.347 -0.9680 -2.2402  1.5242
56603SOL    HW276668   2.523   5.891   9.405 -2.4052  0.4498 -1.0936
56604SOL     OW76669   1.743   7.159   4.102 -0.4092 -0.0198  0.0519
56604SOL    HW176670   1.820   7.187   4.150 -1.4403  1.6897  0.8006
56604SOL    HW276671   1.715   7.079   4.146  0.6000 -0.3451  0.1196
56605SOL     OW76672   6.124   8.206   5.160  0.3534  0.2218 -0.0519
56605SOL    HW176673   6.217   8.183   5.160  0.3311  0.0192 -1.6853
56605SOL    HW276674   6.082   8.137   5.109 -0.4830  1.0663 -0.5347
56606SOL     OW76675  11.775   1.015   0.463 -0.1213 -0.2427 -0.4449
56606SOL    HW176676  11.813   1.093   0.422  1.2327  0.1557  1.4355
56606SOL    HW276677  11.712   1.050   0.526  0.9789 -0.5857  0.8932
56607SOL     OW76678   9.078   2.364   7.444  0.5467 -0.0611  0.5953
56607SOL    HW176679   9.071   2.291   7.506 -0.0147  0.2906  0.9574
56607SOL    HW276680   9.143   2.335   7.381  0.6338 -0.7094  0.9673
56608SOL     OW76681  11.996   4.653   9.401  0.6212  0.7257 -0.5305
56608SOL    HW176682  12.059   4.589   9.433 -0.3860 -0.3834 -0.7071
56608SOL    HW276683  11.985   4.715   9.473  0.6050 -0.0588  0.1533
56609SOL     OW76684   4.628   9.210   2.163  0.2333  0.5108 -0.4304
56609SOL    HW176685   4.653   9.262   2.087  0.2807  1.4746  0.2249
56609SOL    HW276686   4.704   9.154   2.181 -0.3449 -0.8671 -2.0002
56610SOL     OW76687   6.169  12.243   1.413  0.4991  0.4409  0.1452
56610SOL    HW176688   6.209  12.279   1.334 -0.5468  0.4927 -0.3773
56610SOL    HW276689   6.094  12.300   1.430 -0.7248 -0.9837 -0.2433
56611SOL     OW76690  11.829   9.755   0.874 -0.3861 -0.0055 -0.0228
56611SOL    HW176691  11.892   9.813   0.917  0.5663  0.1388 -1.5459
56611SOL    HW276692  11.835   9.673   0.921  0.6575  0.1361  0.1140
56612SOL     OW76693   0.848   9.281   1.593  0.6081  0.2910  0.0899
56612SOL    HW176694   0.915   9.227   1.635 -0.7497 -1.6839 -0.1784
56612SOL    HW276695   0.825   9.234   1.513 -1.4187  0.6739  0.4063
56613SOL     OW76696  10.396   9.714   6.506  0.0995  0.5149 -0.4707
56613SOL    HW176697  10.440   9.680   6.428  0.6328  0.4190 -0.1349
56613SOL    HW276698  10.346   9.789   6.475  1.7673  1.6206 -0.6007
56614SOL     OW76699   8.756   6.577   1.516 -0.0237 -0.1345  0.1598
56614SOL    HW176700   8.795   6.640   1.455 -0.6524 -0.7090 -0.8584
56614SOL    HW276701   8.677   6.621   1.548  0.3981  0.2383  0.7274
56615SOL     OW76702   5.907   1.496   8.243 -0.2319  0.5999 -0.2515
56615SOL    HW176703   5.926   1.568   8.183  0.2914  0.5151 -0.1913
56615SOL    HW276704   5.918   1.417   8.190 -1.3568  0.5742 -0.4680
56616SOL     OW76705  10.245   0.139  11.963  0.1177 -0.4256 -0.0087
56616SOL    HW176706  10.184   0.066  11.968 -0.4058 -0.0712 -0.9833
56616SOL    HW276707  10.225   0.182  11.879 -0.9274  2.0202  1.3983
56617SOL     OW76708   4.632   8.514   2.673  0.4908  0.4686 -0.2006
56617SOL    HW176709   4.638   8.438   2.615  0.2632 -0.3789  0.8408
56617SOL    HW276710   4.723   8.541   2.686  0.4654  1.7516 -2.2731
56618SOL     OW76711   1.826  10.277   2.592 -0.1621  0.7047  0.2544
56618SOL    HW176712   1.788  10.259   2.506  1.1834 -3.3611  0.2829
56618SOL    HW276713   1.751  10.294   2.649 -1.1347  2.4947 -1.4538
56619SOL     OW76714   4.378   8.227   9.180  0.1363 -0.2745 -0.0909
56619SOL    HW176715   4.343   8.167   9.246  1.5539  0.6832  1.6152
56619SOL    HW276716   4.429   8.290   9.230 -0.2537  1.6189 -1.9420
56620SOL     OW76717   9.934  10.998   1.378 -0.3167  0.3253 -0.5585
56620SOL    HW176718  10.006  10.940   1.354 -1.9473 -2.0941 -0.1074
56620SOL    HW276719   9.933  10.997   1.473 -1.8597 -1.0712 -0.5270
56621SOL     OW76720   9.350   6.524   9.989 -0.3127 -0.0265 -0.1591
56621SOL    HW176721   9.327   6.432   9.973  0.7446 -0.2690 -0.3801
56621SOL    HW276722   9.314   6.571   9.914  1.5262 -0.6679 -1.5160
56622SOL     OW76723   0.274   5.720   5.536  0.2548 -0.2642  0.7618
56622SOL    HW176724   0.279   5.764   5.621 -0.7729 -0.2686  0.8278
56622SOL    HW276725   0.363   5.726   5.501  0.6525 -0.1441  1.7748
56623SOL     OW76726  10.326   4.479   4.015 -0.3956  0.0263 -0.1988
56623SOL    HW176727  10.237   4.511   4.000  0.2782  1.1130 -2.3354
56623SOL    HW276728  10.382   4.543   3.970  1.4460 -0.8501  0.7301
56624SOL     OW76729  11.887  10.771  11.359  0.0653 -0.0637  0.4254
56624SOL    HW176730  11.878  10.866  11.351  0.1972 -0.0061  0.9260
56624SOL    HW276731  11.954  10.759  11.426  1.0300 -0.5012 -0.5841
56625SOL     OW76732   8.797   1.681   7.026  0.6823 -0.6444 -0.0896
56625SOL    HW176733   8.867   1.651   6.968  2.2384  0.9569  0.8580
56625SOL    HW276734   8.746   1.741   6.972  2.1614  0.8884  0.1211
56626SOL     OW76735   1.319   3.280   6.948 -0.5275 -0.5110 -0.8928
56626SOL    HW176736   1.323   3.194   6.990 -1.2414 -0.0592  0.1326
56626SOL    HW276737   1.256   3.268   6.877 -1.8945 -0.4494  0.2645
56627SOL     OW76738  10.773   5.641   1.932  0.7434 -0.1688  0.7399
56627SOL    HW176739  10.777   5.684   2.017  0.7506  1.3597 -0.0128
56627SOL    HW276740  10.683   5.656   1.902  0.5587 -1.2237  0.7271
56628SOL     OW76741   0.649   9.962   1.123 -0.1754 -0.4588  0.7330
56628SOL    HW176742   0.609   9.884   1.085 -2.5459  1.1132 -0.2143
56628SOL    HW276743   0.595   9.982   1.200  1.2077 -0.4464  1.7481
56629SOL     OW76744   8.193   2.020   1.196 -0.6874 -0.2378 -0.8931
56629SOL    HW176745   8.217   2.024   1.103 -0.6145  1.1644 -0.8297
56629SOL    HW276746   8.131   2.092   1.208 -1.5982 -1.1283 -0.0924
56630SOL     OW76747   3.055   9.568   2.574 -0.3588 -0.4387  0.6032
56630SOL    HW176748   3.069   9.517   2.653 -0.6261 -1.1444  0.2016
56630SOL    HW276749   3.142   9.571   2.532  0.1148  1.1227  1.5946
56631SOL     OW76750   9.113  12.200   0.057  0.0610 -0.3397  0.3084
56631SOL    HW176751   9.173  12.267   0.090  0.5988 -0.9484  0.5652
56631SOL    HW276752   9.166  12.147  -0.002 -0.3269 -0.6469  0.2328
56632SOL     OW76753   4.406  12.434   2.777  0.2552  0.2064 -0.4622
56632SOL    HW176754   4.352  12.441   2.698  0.2806 -0.9328 -0.5947
56632SOL    HW276755   4.478  12.495   2.762 -0.5511  1.1311 -0.6450
56633SOL     OW76756   3.586   4.093   7.530 -0.0464  0.0521 -0.2900
56633SOL    HW176757   3.639   4.163   7.566  2.9856 -1.3687 -1.6293
56633SOL    HW276758   3.561   4.124   7.443 -1.5221  0.7329  0.3519
56634SOL     OW76759  12.006  11.977   9.564  0.0026 -0.0123  0.3292
56634SOL    HW176760  12.044  12.014   9.485  0.0274 -0.7931 -0.0255
56634SOL    HW276761  11.921  12.021   9.573 -1.9916 -2.8353 -2.4818
56635SOL     OW76762  12.048  11.034  11.991 -0.2090  0.0711 -0.0285
56635SOL    HW176763  12.045  11.123  11.955  0.1827  0.3870  0.7136
56635SOL    HW276764  11.995  11.038  12.071 -0.7643 -0.5391 -0.3540
56636SOL     OW76765   0.091   2.358   0.253  0.2847  0.4529 -0.8097
56636SOL    HW176766   0.055   2.410   0.325  0.4807 -0.3065 -0.1536
56636SOL    HW276767   0.039   2.278   0.253  1.7220 -0.5166 -0.0705
56637SOL     OW76768   1.669   6.735   8.253  0.3384 -0.1207 -0.4096
56637SOL    HW176769   1.732   6.713   8.321 -0.6476 -0.9972  0.2429
56637SOL    HW276770   1.639   6.651   8.220  0.8255  0.2845 -1.9817
56638SOL     OW76771  11.722   8.987   9.613 -0.0851  0.1638  0.6365
56638SOL    HW176772  11.737   9.000   9.519 -1.6269  0.1819  0.3685
56638SOL    HW276773  11.770   8.908   9.635 -0.4125 -0.3324 -0.3770
56639SOL     OW76774   3.508   6.065   7.162  0.4438  0.0456 -0.2219
56639SOL    HW176775   3.439   6.119   7.123  1.9161  1.2380 -1.3068
56639SOL    HW276776   3.530   6.111   7.243  0.4102  0.0189 -0.1971
56640SOL     OW76777  12.532  10.373   8.546 -0.2729 -0.6304  0.1651
56640SOL    HW176778  12.610  10.359   8.493 -0.0220 -2.0780  0.8529
56640SOL    HW276779  12.475  10.427   8.491  1.5180  1.1832 -0.0123
56641SOL     OW76780   3.217   9.992   6.930  0.2403  0.5635  0.7682
56641SOL    HW176781   3.312   9.987   6.918  0.2207  1.7569 -0.1061
56641SOL    HW276782   3.194   9.910   6.973  1.3153 -1.0284 -1.4581
56642SOL     OW76783   8.900   8.351   0.850 -0.4116  0.3695  0.1944
56642SOL    HW176784   8.945   8.429   0.818 -0.0739  0.3074  0.5039
56642SOL    HW276785   8.969   8.285   0.858 -0.2237  0.7370  2.2132
56643SOL     OW76786   6.962   1.379  10.092  0.1006  0.1889 -0.1472
56643SOL    HW176787   6.922   1.342  10.171 -0.1068 -0.6910 -0.6453
56643SOL    HW276788   6.894   1.371  10.025  0.3462  0.7268 -0.4649
56644SOL     OW76789   1.338   6.874   4.308 -0.0623 -0.3423 -0.0728
56644SOL    HW176790   1.266   6.829   4.352  0.5003  0.1414  1.4242
56644SOL    HW276791   1.412   6.867   4.370  0.8303  0.1814 -1.0467
56645SOL     OW76792   7.139   2.613   0.123  0.1327 -0.0017 -0.1270
56645SOL    HW176793   7.209   2.618   0.188  0.3325  1.4445 -0.4109
56645SOL    HW276794   7.182   2.634   0.040 -0.8451  2.5258 -0.0977
56646SOL     OW76795   6.862   6.441  12.471  0.1163  0.2723  0.1409
56646SOL    HW176796   6.935   6.491  12.507 -0.0093 -0.5409  1.5830
56646SOL    HW276797   6.867   6.356  12.514 -0.1973 -0.6765 -1.6250
56647SOL     OW76798  11.470   2.583  12.538  0.0852 -0.1250  0.0979
56647SOL    HW176799  11.561   2.604  12.517  0.3006 -1.4210 -0.3693
56647SOL    HW276800  11.429   2.570  12.453 -0.9704  2.0052  0.2250
56648SOL     OW76801   6.362  10.680   3.038 -0.7550 -0.2949  0.5641
56648SOL    HW176802   6.410  10.616   2.986 -0.8954  0.0648 -0.0251
56648SOL    HW276803   6.299  10.719   2.976  0.4505  1.5969  0.4490
56649SOL     OW76804   1.939   4.483   1.335 -0.1704 -0.1490 -0.1821
56649SOL    HW176805   1.991   4.473   1.415  2.3059  3.9558 -0.9867
56649SOL    HW276806   1.849   4.489   1.365  0.4611 -0.7923  2.0398
56650SOL     OW76807  11.630   7.767   4.576 -0.2775  0.4056 -0.6156
56650SOL    HW176808  11.704   7.825   4.560  0.6584 -0.1547  1.2938
56650SOL    HW276809  11.657   7.682   4.541 -0.0807  0.2584 -0.1263
56651SOL     OW76810  10.911  12.483   3.065  0.1029  0.3110  0.1858
56651SOL    HW176811  10.825  12.508   3.031 -0.0977 -0.1574  0.3317
56651SOL    HW276812  10.957  12.446   2.990 -0.7132 -1.6910  0.5747
56652SOL     OW76813   6.589  11.780   1.273  0.2770 -0.1296 -0.2894
56652SOL    HW176814   6.602  11.814   1.361 -2.1169 -0.5650  0.2852
56652SOL    HW276815   6.635  11.696   1.272  1.5550  0.5455  0.0333
56653SOL     OW76816   6.498   5.834   0.981 -0.1630  0.0809 -0.0016
56653SOL    HW176817   6.472   5.774   1.052  1.1409 -0.2959  0.1799
56653SOL    HW276818   6.453   5.800   0.904  1.7984 -2.1900 -0.2625
56654SOL     OW76819   1.842  12.054   9.641  0.0669 -0.1577  0.8895
56654SOL    HW176820   1.853  12.039   9.547  0.2501 -2.7690  1.2493
56654SOL    HW276821   1.910  12.118   9.663  0.7708 -0.3517 -0.5567
56655SOL     OW76822  11.851   8.375  10.390  0.1749 -0.5885 -0.0886
56655SOL    HW176823  11.912   8.305  10.363  0.4625 -1.6165  2.8552
56655SOL    HW276824  11.765   8.333  10.387  0.2964 -0.9827  1.2089
56656SOL     OW76825  10.021   5.962  12.301 -1.0454 -0.6775  0.2774
56656SOL    HW176826  10.081   5.903  12.256  1.2722  0.5569  1.5655
56656SOL    HW276827  10.000   5.919  12.383 -0.7897 -0.5146  0.4308
56657SOL     OW76828   5.359   1.481   8.717 -0.5268 -0.8169  0.0655
56657SOL    HW176829   5.416   1.525   8.780 -0.3883  1.2276 -1.3885
56657SOL    HW276830   5.270   1.497   8.751 -0.3973 -0.8599  0.4267
56658SOL     OW76831   2.625   6.506   6.996 -0.2773  0.9127  0.0475
56658SOL    HW176832   2.627   6.559   6.916 -0.0192  0.1429 -0.4659
56658SOL    HW276833   2.598   6.568   7.065 -1.8903  1.2723 -0.8568
56659SOL     OW76834   5.796  12.467   5.519 -0.4139  0.5416  0.0341
56659SOL    HW176835   5.853  12.449   5.593  1.8534  0.9839 -1.5130
56659SOL    HW276836   5.798  12.387   5.466 -0.8519  0.7306 -0.2846
56660SOL     OW76837   0.976   5.189   1.409 -0.1786 -0.1105  0.2966
56660SOL    HW176838   1.031   5.128   1.459  1.3454  1.1792  0.2746
56660SOL    HW276839   0.988   5.162   1.318 -0.5093 -0.5423  0.3758
56661SOL     OW76840   2.963   7.851   7.760  0.1145 -0.0291  0.9556
56661SOL    HW176841   3.013   7.899   7.694 -1.1950 -1.0837 -0.9147
56661SOL    HW276842   2.951   7.913   7.831 -0.0324  1.8546 -0.6234
56662SOL     OW76843   0.259   8.140   4.806 -0.6635 -0.7007  0.7123
56662SOL    HW176844   0.327   8.104   4.862 -0.8683 -0.1097  1.3591
56662SOL    HW276845   0.295   8.224   4.775 -1.2653 -0.1609  1.4359
56663SOL     OW76846   8.977   0.426   3.675 -0.1131  0.3236 -0.7184
56663SOL    HW176847   8.961   0.332   3.675 -2.1707  0.6078  0.3037
56663SOL    HW276848   8.982   0.449   3.768  3.0214  0.9100 -0.9096
56664SOL     OW76849   0.097   2.728   8.743  0.3642  0.2024 -0.4066
56664SOL    HW176850   0.089   2.793   8.813 -2.7983 -0.5065  0.0399
56664SOL    HW276851   0.103   2.644   8.788  1.7557 -0.0470 -1.0066
56665SOL     OW76852   0.813   5.359   5.633  0.1240  0.1857  0.0510
56665SOL    HW176853   0.849   5.386   5.548  0.7730 -0.2363  0.1894
56665SOL    HW276854   0.744   5.423   5.650  1.6092  1.7866  0.3684
56666SOL     OW76855   9.100  11.520   0.947  0.3782  0.2189  0.3828
56666SOL    HW176856   9.196  11.528   0.950  0.5479 -1.4959  0.5129
56666SOL    HW276857   9.083  11.467   0.869 -0.5215  1.0764 -0.0092
56667SOL     OW76858   4.576   5.208   3.358 -0.8199 -0.2121 -0.4263
56667SOL    HW176859   4.503   5.170   3.308 -0.9968 -2.2268  1.2137
56667SOL    HW276860   4.653   5.159   3.329 -0.7246 -0.5517  0.3874
56668SOL     OW76861  10.533   1.096  11.780 -0.0519 -0.2941  0.5233
56668SOL    HW176862  10.440   1.080  11.794 -0.1010 -0.2261  0.2885
56668SOL    HW276863  10.539   1.191  11.766 -0.0851 -0.4308 -0.4681
56669SOL     OW76864   2.750   4.759  11.730  0.3601  1.0199  0.1532
56669SOL    HW176865   2.837   4.738  11.762 -0.9588 -2.6071  1.9080
56669SOL    HW276866   2.716   4.822  11.794  1.3544  1.8405 -0.0977
56670SOL     OW76867   1.972  11.341   3.268  0.7310  0.0752 -0.0479
56670SOL    HW176868   1.890  11.294   3.283  0.6849  0.3066  0.4476
56670SOL    HW276869   2.037  11.272   3.256  0.6802 -0.1319  0.7726
56671SOL     OW76870   1.276   2.557  10.917  0.6290  0.0019  0.4638
56671SOL    HW176871   1.272   2.613  10.994  1.7819  0.9733 -0.1446
56671SOL    HW276872   1.196   2.506  10.919 -0.3308  1.4914  1.1947
56672SOL     OW76873   0.121   8.959   4.718  0.2532 -0.0249 -0.0612
56672SOL    HW176874   0.049   9.000   4.670  0.4085 -0.5744 -0.7948
56672SOL    HW276875   0.148   9.025   4.782 -1.5040 -0.1579  0.8799
56673SOL     OW76876   4.165   9.431   6.797 -0.0910  0.3093 -0.4502
56673SOL    HW176877   4.255   9.426   6.828  0.3899  0.8088 -1.6899
56673SOL    HW276878   4.119   9.482   6.863  1.5746  3.9813 -1.8506
56674SOL     OW76879   5.568   6.679   4.344 -0.4134 -0.4989  0.7343
56674SOL    HW176880   5.602   6.655   4.430 -0.3027 -0.2161  0.7725
56674SOL    HW276881   5.473   6.672   4.353 -0.3532 -2.3813  0.3013
56675SOL     OW76882   2.011   1.804   4.595  0.4245 -0.6468  0.2903
56675SOL    HW176883   2.055   1.815   4.679  2.7000 -0.7528 -0.8153
56675SOL    HW276884   2.013   1.710   4.578 -0.1115 -0.6380  0.1488
56676SOL     OW76885  10.236   8.308  11.276  0.0189  0.0352 -0.6112
56676SOL    HW176886  10.154   8.295  11.229 -0.3386 -0.3343  0.1015
56676SOL    HW276887  10.293   8.237  11.245  0.4843  0.9728 -1.9742
56677SOL     OW76888   3.546   3.485   2.992 -0.3194  0.1376  0.1235
56677SOL    HW176889   3.478   3.535   3.035  0.3360  1.0019  0.1862
56677SOL    HW276890   3.533   3.501   2.898 -0.6264 -0.2689  0.0934
56678SOL     OW76891   5.744   3.629   2.408  0.0320  0.0265  0.2392
56678SOL    HW176892   5.711   3.561   2.350 -0.6143  0.5769 -0.0618
56678SOL    HW276893   5.832   3.601   2.432  0.5192  0.0463 -1.4321
56679SOL     OW76894   2.138   4.475   4.219  0.8062 -0.0730 -0.0648
56679SOL    HW176895   2.125   4.442   4.130  1.8727 -2.3097  0.5329
56679SOL    HW276896   2.055   4.458   4.263 -0.2309  2.3069 -0.8918
56680SOL     OW76897   5.338  11.916   5.401  0.5259 -0.6838  0.5048
56680SOL    HW176898   5.372  11.857   5.468  0.0636 -0.8487  0.5975
56680SOL    HW276899   5.377  12.001   5.421  3.1374 -1.4109 -1.0396
56681SOL     OW76900   7.145  10.680   4.802  0.0260  0.2326  0.0354
56681SOL    HW176901   7.221  10.669   4.745 -0.5492  0.3237 -0.7562
56681SOL    HW276902   7.108  10.592   4.810 -0.5952  0.4164 -0.7251
56682SOL     OW76903   0.725   7.583   8.361 -0.8037 -0.6475  0.2268
56682SOL    HW176904   0.820   7.576   8.359 -0.3483  2.9904  1.8783
56682SOL    HW276905   0.696   7.558   8.273  1.3555 -3.9269  0.2876
56683SOL     OW76906   4.448   2.787   9.298  0.4328 -0.0321  0.2971
56683SOL    HW176907   4.444   2.696   9.266 -2.2862  0.2785 -0.5159
56683SOL    HW276908   4.449   2.839   9.218 -0.0441  0.6685  0.7416
56684SOL     OW76909   5.535  10.503  12.269 -0.6681 -0.1834  0.2964
56684SOL    HW176910   5.502  10.592  12.256 -1.9337 -0.7494 -0.5058
56684SOL    HW276911   5.615  10.515  12.320 -1.2807  1.3516  0.9601
56685SOL     OW76912   0.984   7.879   6.773  0.1574 -0.9267 -0.1897
56685SOL    HW176913   0.985   7.788   6.803 -0.5663 -0.7520  0.4060
56685SOL    HW276914   1.011   7.875   6.682 -0.6658 -1.8390 -0.4149
56686SOL     OW76915   9.933   1.537   6.254 -0.2634  0.0291 -0.3600
56686SOL    HW176916   9.838   1.548   6.246 -0.5518 -1.9783 -0.2402
56686SOL    HW276917   9.969   1.608   6.201 -1.7841  1.5599  0.5469
56687SOL     OW76918  11.178   2.706   3.292  0.3240 -0.5026  0.1674
56687SOL    HW176919  11.270   2.720   3.268  0.2547  1.2194  0.7901
56687SOL    HW276920  11.167   2.754   3.374 -1.2309 -0.3445 -0.1080
56688SOL     OW76921   4.856   8.176   6.169  0.2567 -0.4576 -0.0722
56688SOL    HW176922   4.851   8.247   6.232  2.3634 -0.1216 -0.2131
56688SOL    HW276923   4.819   8.212   6.089  1.6918  0.6877 -0.2660
56689SOL     OW76924  11.356   6.054   4.529 -0.8664 -0.2236  0.5889
56689SOL    HW176925  11.322   5.975   4.487 -0.4761 -0.3848  0.5779
56689SOL    HW276926  11.433   6.078   4.477 -2.0616  1.2674 -0.6077
56690SOL     OW76927   9.169   2.147   3.931  0.1057 -0.1229 -0.3258
56690SOL    HW176928   9.180   2.214   3.999  0.7177  0.4622 -0.9769
56690SOL    HW276929   9.188   2.065   3.975  2.4674  0.4125 -0.2085
56691SOL     OW76930   5.799   2.526   7.394 -0.4765  0.3743 -0.0942
56691SOL    HW176931   5.722   2.582   7.382 -0.1462  0.6579 -0.9928
56691SOL    HW276932   5.862   2.560   7.330  0.3574  0.0857  0.5672
56692SOL     OW76933   1.809  12.101   1.974  0.1539 -0.1804 -0.2558
56692SOL    HW176934   1.847  12.015   1.954  0.2660  0.3704 -2.8158
56692SOL    HW276935   1.885  12.155   1.996  0.3051 -0.2833 -0.5133
56693SOL     OW76936   5.276   7.706   3.631  0.3071 -0.4034 -1.2781
56693SOL    HW176937   5.337   7.667   3.693 -0.3500  1.2344  0.5167
56693SOL    HW276938   5.328   7.726   3.554  2.4001  1.9690  0.5853
56694SOL     OW76939  11.821   1.428   3.086 -0.1078 -0.3520  0.4366
56694SOL    HW176940  11.872   1.360   3.129 -0.8750 -0.5235  1.1087
56694SOL    HW276941  11.850   1.509   3.128 -1.0853 -0.5512  1.5505
56695SOL     OW76942   1.906   6.490  11.871 -0.6286 -0.1833 -0.1114
56695SOL    HW176943   1.986   6.459  11.828  0.3901  0.6221  1.1315
56695SOL    HW276944   1.845   6.418  11.862  0.7431 -1.4463  0.2392
56696SOL     OW76945  12.293   2.642   1.426  0.4224 -0.5122  0.1106
56696SOL    HW176946  12.271   2.681   1.511  2.5807  2.6382 -0.5917
56696SOL    HW276947  12.209   2.633   1.381 -0.4661  0.7298  1.4344
56697SOL     OW76948   4.404   5.356   3.691  0.5131  0.0301 -0.0533
56697SOL    HW176949   4.409   5.389   3.781 -2.1306 -0.3134  0.3140
56697SOL    HW276950   4.351   5.421   3.645 -0.9656 -1.4056 -0.4642
56698SOL     OW76951   3.243   8.769   4.037 -0.2290  0.4193  0.1410
56698SOL    HW176952   3.272   8.758   3.947 -0.6455 -0.7721  0.1362
56698SOL    HW276953   3.158   8.811   4.030  0.2525  1.3993  0.0395
56699SOL     OW76954  12.099   7.235   6.522  0.2479 -0.0205  0.2574
56699SOL    HW176955  12.116   7.141   6.515 -2.0847 -0.5837  1.0325
56699SOL    HW276956  12.116   7.256   6.614 -0.0854  0.1203  0.2880
56700SOL     OW76957   2.647  11.331   6.812  0.0815  0.0994 -0.1482
56700SOL    HW176958   2.609  11.410   6.849  1.3682  0.6331  0.0825
56700SOL    HW276959   2.628  11.337   6.718 -1.9832 -0.5812  0.1737
56701SOL     OW76960  11.095   4.405   8.813 -0.4495  0.1371  0.6521
56701SOL    HW176961  11.128   4.321   8.781  1.3648  0.1935  2.2331
56701SOL    HW276962  11.167   4.466   8.801 -2.0928  1.8418 -1.5150
56702SOL     OW76963  12.116   3.333   5.435  0.4566 -0.0991  0.7051
56702SOL    HW176964  12.066   3.318   5.515  0.9691 -0.9410  0.8811
56702SOL    HW276965  12.164   3.251   5.420 -0.3688 -0.3138 -1.0119
56703SOL     OW76966   2.774  10.653   8.055  0.2975 -0.0715  0.3122
56703SOL    HW176967   2.753  10.585   8.120  0.2604 -0.0837  0.2872
56703SOL    HW276968   2.712  10.637   7.984  0.6980 -0.4009  0.0321
56704SOL     OW76969   9.827   4.669   7.807 -0.2029  0.5822  0.0722
56704SOL    HW176970   9.912   4.668   7.764  0.4262 -0.7421  1.2687
56704SOL    HW276971   9.845   4.642   7.897 -2.0571 -1.0889  0.0105
56705SOL     OW76972   2.652   7.763   3.091 -0.4714 -0.4780  0.1392
56705SOL    HW176973   2.697   7.846   3.103  0.0211 -0.8618  1.1292
56705SOL    HW276974   2.694   7.704   3.154 -0.3382 -1.6675 -1.0127
56706SOL     OW76975   2.889   0.224  10.472  0.0422 -0.4085  0.2651
56706SOL    HW176976   2.887   0.196  10.380 -1.0936 -0.7276  0.3692
56706SOL    HW276977   2.888   0.319  10.468  0.7195 -0.4086 -0.0592
56707SOL     OW76978  12.482   7.578   0.261 -0.0997 -0.2809 -0.6433
56707SOL    HW176979  12.545   7.638   0.221 -0.0216 -1.0611 -1.7141
56707SOL    HW276980  12.526   7.493   0.261 -0.9528 -0.7329 -0.9328
56708SOL     OW76981  12.226   8.331  12.297  0.0245  0.3277 -0.0398
56708SOL    HW176982  12.144   8.374  12.270 -0.9240 -0.9741  0.6474
56708SOL    HW276983  12.198   8.248  12.335  1.8250 -1.2854 -1.9716
56709SOL     OW76984  11.507  10.258   2.031  0.5441 -0.1248 -0.2528
56709SOL    HW176985  11.436  10.313   2.064  1.1508  0.4332  0.1664
56709SOL    HW276986  11.585  10.314   2.038  1.4757 -1.5438  1.6743
56710SOL     OW76987   3.203   9.571   8.035  0.5335 -0.1132  1.0896
56710SOL    HW176988   3.216   9.647   8.091  2.7442  2.3937 -2.4561
56710SOL    HW276989   3.132   9.597   7.976  2.0207 -0.2438 -0.8484
56711SOL     OW76990   1.024   3.466   7.115  0.4499 -0.5707  0.3859
56711SOL    HW176991   1.030   3.514   7.198 -0.3140  0.2987 -0.0468
56711SOL    HW276992   1.104   3.413   7.114  0.2583 -0.9542  1.8783
56712SOL     OW76993   1.987   7.654   7.229 -0.1613 -0.2357 -0.2055
56712SOL    HW176994   1.944   7.687   7.308  0.4196 -0.1188  0.0682
56712SOL    HW276995   2.045   7.726   7.202 -0.2918 -0.3103 -0.6876
56713SOL     OW76996   0.957   2.425   4.124 -0.2092 -0.0886 -0.0721
56713SOL    HW176997   0.917   2.425   4.037 -1.3027 -0.9203  0.4059
56713SOL    HW276998   1.048   2.453   4.109 -0.6108  0.6092 -1.3549
56714SOL     OW76999   9.614   3.731   4.228 -0.3936  0.3090 -0.0599
56714SOL    HW177000   9.627   3.667   4.158  0.5125  1.4303 -0.9527
56714SOL    HW277001   9.613   3.679   4.309  0.9380 -0.7668 -0.7104
56715SOL     OW77002   5.604   5.369  12.538 -0.2355 -0.4999 -0.2620
56715SOL    HW177003   5.618   5.454  12.496 -0.6601 -0.8792 -1.2298
56715SOL    HW277004   5.561   5.389  12.621  0.5755  0.2809 -0.0218
56716SOL     OW77005   9.915   6.228   7.383 -0.4257  0.3264 -0.0813
56716SOL    HW177006   9.967   6.152   7.410 -0.7357 -0.4815 -1.5935
56716SOL    HW277007   9.970   6.304   7.402 -0.3935 -0.1868  2.1379
56717SOL     OW77008   4.763   6.901   2.012 -0.2251  0.0923  0.0667
56717SOL    HW177009   4.740   6.994   2.019  0.6005  0.3492 -0.5893
56717SOL    HW277010   4.723   6.861   2.090 -0.6786  0.9731  0.2983
56718SOL     OW77011   4.009   6.936   7.031 -0.0318 -0.2671  0.0365
56718SOL    HW177012   4.009   6.894   7.117 -0.5940 -1.8010 -0.6838
56718SOL    HW277013   3.930   6.990   7.030  0.5547  0.6360  0.8719
56719SOL     OW77014   4.017  10.637   1.326 -0.6214  0.4925  0.6827
56719SOL    HW177015   3.992  10.637   1.234  0.8410  1.4321  0.2445
56719SOL    HW277016   3.950  10.691   1.369 -0.2427  1.7245 -0.1945
56720SOL     OW77017   2.918   1.399   1.140  0.2565  0.1994  0.2320
56720SOL    HW177018   2.954   1.478   1.099 -0.3976  0.0496 -0.6592
56720SOL    HW277019   2.900   1.425   1.230 -1.7145  1.6581 -0.5316
56721SOL     OW77020   0.076   9.616  11.740  0.0079 -0.0837 -0.3185
56721SOL    HW177021   0.127   9.618  11.821  0.1936  1.4662 -0.4405
56721SOL    HW277022   0.137   9.584  11.673  0.6663  1.1722 -0.3420
56722SOL     OW77023  11.867   7.553  11.979  0.3610  0.0118  0.0873
56722SOL    HW177024  11.806   7.480  11.971  1.2356 -0.6362 -1.1001
56722SOL    HW277025  11.873   7.589  11.891  1.9336 -0.1670  0.0910
56723SOL     OW77026   0.059   4.208   0.446  0.2930  0.0989 -0.4838
56723SOL    HW177027   0.101   4.201   0.360 -0.1164  2.2435 -0.9340
56723SOL    HW277028   0.123   4.254   0.500 -0.1473  0.3904 -0.1968
56724SOL     OW77029   8.535  11.110  10.252  0.7147  0.2273 -0.7866
56724SOL    HW177030   8.492  11.194  10.239 -1.6080 -0.8919 -0.9458
56724SOL    HW277031   8.519  11.062  10.170 -1.1725 -1.5755  0.4989
56725SOL     OW77032   9.181   7.725  10.942 -0.4644 -0.2011  0.1725
56725SOL    HW177033   9.095   7.764  10.960 -0.1059  0.3173  0.8102
56725SOL    HW277034   9.192   7.660  11.012 -0.4520 -0.4566 -0.0669
56726SOL     OW77035   4.771   9.834   1.236  0.1838  0.5262 -0.3960
56726SOL    HW177036   4.856   9.858   1.199  0.3623  0.3072 -0.1349
56726SOL    HW277037   4.711   9.833   1.162  0.7581 -1.0040 -0.8706
56727SOL     OW77038   9.657   3.756   5.941 -0.0670  0.0824 -0.4831
56727SOL    HW177039   9.593   3.685   5.929  1.2131 -0.8919 -1.9417
56727SOL    HW277040   9.675   3.788   5.852  1.9474 -0.1322 -0.2067
56728SOL     OW77041   9.425  11.441   3.546  0.2484  1.0197  0.6639
56728SOL    HW177042   9.407  11.367   3.604 -0.7664  0.1347 -0.7281
56728SOL    HW277043   9.436  11.516   3.606 -2.3483  0.4750  1.9684
56729SOL     OW77044   1.493   7.999   9.201 -0.0021 -0.4844  0.1091
56729SOL    HW177045   1.494   7.999   9.297  0.6107 -0.7174  0.1079
56729SOL    HW277046   1.505   7.907   9.177 -1.2409 -0.5839 -0.1947
56730SOL     OW77047   9.504   8.981   6.101  0.2203 -0.0892 -0.1815
56730SOL    HW177048   9.486   8.892   6.071  0.5366  0.1990 -1.2707
56730SOL    HW277049   9.444   9.036   6.050  1.7699  0.5484 -1.4109
56731SOL     OW77050   4.421   6.402  10.931  0.1789 -0.7334 -0.6153
56731SOL    HW177051   4.438   6.341  10.859  0.2609 -0.1646 -1.0848
56731SOL    HW277052   4.352   6.459  10.898 -0.1295 -0.7744 -0.0533
56732SOL     OW77053   8.200   1.648  10.467 -0.4256 -0.3405 -0.6030
56732SOL    HW177054   8.258   1.605  10.529  0.7741  0.0986 -1.3698
56732SOL    HW277055   8.194   1.586  10.394  0.5543  0.3430 -1.3005
56733SOL     OW77056  10.275   5.892   9.005 -0.2017 -0.1176 -0.7860
56733SOL    HW177057  10.259   5.985   8.986  0.4800 -0.1298 -1.4575
56733SOL    HW277058  10.226   5.876   9.086 -1.9383  0.3273 -1.6913
56734SOL     OW77059  10.425   5.447   8.540  0.5005 -0.3533 -0.3891
56734SOL    HW177060  10.364   5.385   8.580 -1.0189  0.7084 -0.9565
56734SOL    HW277061  10.509   5.401   8.540 -0.0222 -1.4458  1.4435
56735SOL     OW77062  10.521   8.343   9.694  0.4951 -0.0039 -0.0327
56735SOL    HW177063  10.462   8.371   9.764 -0.8781  2.6748 -2.0716
56735SOL    HW277064  10.608   8.363   9.728 -0.1707  2.0502  0.6823
56736SOL     OW77065   6.721   8.992   7.409 -0.0131  0.4027  0.3292
56736SOL    HW177066   6.707   9.029   7.496 -1.6815  0.9504 -0.1302
56736SOL    HW277067   6.713   8.898   7.421 -2.2384  0.5562  0.5081
56737SOL     OW77068   9.217   9.245   6.917  0.1061 -0.4050  0.0910
56737SOL    HW177069   9.168   9.164   6.903  1.0439 -0.9629 -0.0456
56737SOL    HW277070   9.188   9.303   6.847  0.1769 -0.9916 -0.4403
56738SOL     OW77071   6.418  11.356  10.996 -0.5824  0.1472  0.0362
56738SOL    HW177072   6.504  11.352  11.039 -0.4550  0.9597 -0.1275
56738SOL    HW277073   6.363  11.296  11.046 -0.1200  0.1939  0.6097
56739SOL     OW77074   9.928   8.898   3.893  0.6175 -0.3385 -0.0096
56739SOL    HW177075   9.989   8.831   3.860 -0.1636 -0.2471 -1.7756
56739SOL    HW277076   9.943   8.974   3.836  0.1312  0.3186  0.7179
56740SOL     OW77077   4.243   0.490  12.051  0.0018 -0.1201 -0.1420
56740SOL    HW177078   4.260   0.567  12.105 -1.5455  3.1203 -3.8170
56740SOL    HW277079   4.329   0.461  12.022  0.5377  1.4877 -0.2195
56741SOL     OW77080   9.065   8.595   0.118 -0.2117  0.2977  0.5671
56741SOL    HW177081   9.090   8.511   0.157 -2.2889 -1.0325 -0.7979
56741SOL    HW277082   9.054   8.577   0.025 -1.7751  1.7865  0.4051
56742SOL     OW77083   7.650   9.248   4.025 -0.1237 -0.0417 -0.5241
56742SOL    HW177084   7.637   9.299   4.105 -2.6946  2.1074 -2.1682
56742SOL    HW277085   7.723   9.292   3.980  0.7170 -0.7037  0.1479
56743SOL     OW77086   4.685  11.513   0.326 -0.1589 -0.3171 -0.4688
56743SOL    HW177087   4.766  11.462   0.320 -0.9877 -1.5401 -1.9889
56743SOL    HW277088   4.673  11.551   0.239 -0.9518  0.2871 -0.1167
56744SOL     OW77089   1.230   9.239   8.664  0.4377 -0.6496  0.2472
56744SOL    HW177090   1.135   9.227   8.666  0.2842  0.5458  1.3418
56744SOL    HW277091   1.259   9.187   8.589 -1.1366 -0.6151 -0.4283
56745SOL     OW77092   1.047   1.463   5.375 -0.2748 -0.8092  0.8312
56745SOL    HW177093   1.070   1.385   5.426  0.0540 -0.5957  1.0127
56745SOL    HW277094   0.957   1.447   5.347  0.1708 -1.7753 -0.1147
56746SOL     OW77095   5.082   3.922   1.920  0.1766  0.2073 -0.5085
56746SOL    HW177096   5.120   3.898   1.835 -0.3204 -1.6392 -0.2557
56746SOL    HW277097   5.086   3.842   1.972 -0.3039  1.0777  0.9358
56747SOL     OW77098  10.276  11.536   0.419  0.1485  0.1201  0.2467
56747SOL    HW177099  10.337  11.465   0.438 -1.3517 -1.5357 -0.7754
56747SOL    HW277100  10.225  11.545   0.499  1.3870  1.2063  0.9486
56748SOL     OW77101   9.135  10.750   6.456 -0.3969 -0.1737 -0.4264
56748SOL    HW177102   9.211  10.804   6.437  1.0453 -2.1556 -0.6274
56748SOL    HW277103   9.137  10.737   6.550 -2.5295  2.5142  0.1204
56749SOL     OW77104   2.435  10.461   9.671 -0.5577 -0.5001 -0.0817
56749SOL    HW177105   2.510  10.417   9.711 -0.9955 -1.2395 -0.0477
56749SOL    HW277106   2.453  10.457   9.577 -0.4115 -0.4101 -0.0581
56750SOL     OW77107  11.778   5.977   2.159  0.0559 -0.8154 -0.2485
56750SOL    HW177108  11.749   6.002   2.247 -0.9920 -1.3301 -0.4280
56750SOL    HW277109  11.865   6.015   2.151 -1.2599  2.4506 -0.3998
56751SOL     OW77110   9.386   3.283   0.677  0.1267  0.0082  0.2988
56751SOL    HW177111   9.413   3.375   0.667 -0.2387 -0.0336 -1.2957
56751SOL    HW277112   9.336   3.264   0.597  0.8058 -1.7894  0.2657
56752SOL     OW77113   0.071   8.549  10.341 -0.3044  0.4979  0.8065
56752SOL    HW177114   0.134   8.477  10.347 -1.1230 -0.4572 -1.1226
56752SOL    HW277115   0.044   8.565  10.432  1.4489 -0.1668  1.4956
56753SOL     OW77116  11.576   9.026   9.811 -0.1254  0.3487  0.3345
56753SOL    HW177117  11.544   8.941   9.841 -1.0363  1.2194  1.9503
56753SOL    HW277118  11.609   9.009   9.722 -1.3734 -1.4307  0.1567
56754SOL     OW77119   5.956   2.094   6.400 -0.4927 -0.3900 -0.0362
56754SOL    HW177120   5.893   2.147   6.350 -1.0001 -2.1179 -1.3326
56754SOL    HW277121   5.908   2.016   6.425  1.0454 -1.6522 -0.8373
56755SOL     OW77122   4.480   7.023  10.060 -0.0031 -0.8813  0.1554
56755SOL    HW177123   4.494   7.002  10.152  1.5913  1.1665  0.4487
56755SOL    HW277124   4.425   7.101  10.062  1.0795 -0.0766 -0.5532
56756SOL     OW77125   7.836   6.754   9.419  0.1921 -0.0082 -0.4387
56756SOL    HW177126   7.896   6.826   9.402  1.1926 -1.1713 -2.2733
56756SOL    HW277127   7.749   6.793   9.413  0.7218  1.1721 -0.7141
56757SOL     OW77128   7.892   9.984   8.297 -0.0566  0.5081  0.5445
56757SOL    HW177129   7.869   9.957   8.386 -1.6788  2.9716  0.9943
56757SOL    HW277130   7.822  10.045   8.272  1.7366  1.9289 -1.4058
56758SOL     OW77131  10.679   8.655   4.080 -0.6338 -0.1799 -0.2827
56758SOL    HW177132  10.591   8.621   4.099 -0.1116 -1.0579  0.6242
56758SOL    HW277133  10.664   8.723   4.014 -2.0958  0.2803  0.4620
56759SOL     OW77134  12.112   2.932   6.915 -0.4163  0.4546  0.3324
56759SOL    HW177135  12.134   3.007   6.971  0.6613  0.1204  0.3738
56759SOL    HW277136  12.100   2.859   6.976  1.6901 -0.1340  0.1185
56760SOL     OW77137   8.045   4.505   3.899 -0.0043  0.3450  0.0758
56760SOL    HW177138   8.026   4.412   3.908  0.1480  0.0129 -2.2810
56760SOL    HW277139   8.025   4.543   3.985  1.3616 -2.0505  1.5626
56761SOL     OW77140   5.460   4.154  12.000  0.4010 -0.3702 -0.0580
56761SOL    HW177141   5.523   4.206  12.051 -0.2109 -0.2935  0.6506
56761SOL    HW277142   5.376   4.169  12.044 -0.0747 -0.6566 -0.8402
56762SOL     OW77143   9.028   4.850  10.579 -0.0644  0.2272 -0.1075
56762SOL    HW177144   9.042   4.777  10.518  0.9502  0.0391  0.3257
56762SOL    HW277145   8.983   4.916  10.527 -0.6269 -0.5331 -0.6276
56763SOL     OW77146   0.842   8.910  10.011  0.0313 -0.1913 -0.1478
56763SOL    HW177147   0.920   8.923   9.957 -0.2402  0.2348 -0.4460
56763SOL    HW277148   0.774   8.961   9.967 -0.5683 -1.0357 -0.2269
56764SOL     OW77149   1.772   2.520  10.660 -0.3016  0.1138 -0.2210
56764SOL    HW177150   1.782   2.486  10.749  1.0641 -1.6306 -0.9812
56764SOL    HW277151   1.727   2.450  10.612 -0.6808  0.8696 -0.9997
56765SOL     OW77152   8.577  10.884   8.787 -0.2057  0.3738 -0.6142
56765SOL    HW177153   8.524  10.809   8.812 -0.0505  0.6562  0.6252
56765SOL    HW277154   8.518  10.959   8.792  0.0666  0.5614 -0.1681
56766SOL     OW77155   2.020   8.444   4.606  0.5122  0.6397  0.4531
56766SOL    HW177156   2.104   8.440   4.561  0.6188  2.7298  0.3587
56766SOL    HW277157   1.959   8.401   4.547  1.3085  0.1149  0.0001
56767SOL     OW77158  10.818   4.648  11.370 -0.4324  0.3607  0.5098
56767SOL    HW177159  10.912   4.631  11.382 -0.2122  1.1745  0.0576
56767SOL    HW277160  10.807   4.649  11.275 -1.3156 -1.7675  0.5317
56768SOL     OW77161   6.739   4.956   5.145 -0.3399  0.2039 -0.3508
56768SOL    HW177162   6.684   4.879   5.159  0.9280 -0.2614  3.0147
56768SOL    HW277163   6.699   5.025   5.199 -1.2601  1.9376 -3.0271
56769SOL     OW77164   2.375   1.644   2.891 -0.0057 -0.4850 -0.4390
56769SOL    HW177165   2.326   1.709   2.840  0.5351  0.8062  0.6595
56769SOL    HW277166   2.340   1.560   2.860 -0.4025  0.2785 -2.2109
56770SOL     OW77167   0.137  11.007   0.509 -0.1973 -0.2789  0.4448
56770SOL    HW177168   0.183  11.065   0.449 -2.1923  1.0570  0.0940
56770SOL    HW277169   0.117  10.930   0.457 -0.7208  0.2881 -0.2179
56771SOL     OW77170   9.807   7.262   1.950 -0.8846 -0.2535  0.0283
56771SOL    HW177171   9.887   7.211   1.933 -1.1431 -1.1166  1.2464
56771SOL    HW277172   9.749   7.200   1.995 -1.8681  0.6497  0.0194
56772SOL     OW77173   9.142   6.010   9.033 -0.3547  0.7265  0.0301
56772SOL    HW177174   9.116   6.099   9.054 -0.4421  0.5381  0.7594
56772SOL    HW277175   9.209   6.019   8.965 -1.0948  1.2901 -0.6402
56773SOL     OW77176   0.723   6.787   0.403  0.1190  0.3259 -0.2201
56773SOL    HW177177   0.799   6.841   0.384  1.0441 -0.7861  0.2049
56773SOL    HW277178   0.721   6.780   0.498 -0.6784  0.5634 -0.2137
56774SOL     OW77179   0.953   0.624   0.387 -0.1328  0.0408  0.1947
56774SOL    HW177180   0.953   0.672   0.305 -0.5870  0.7966  0.6286
56774SOL    HW277181   0.898   0.548   0.371 -0.5525  0.4029 -0.0800
56775SOL     OW77182   8.069   2.856   8.709 -0.0867  0.6948 -0.2693
56775SOL    HW177183   7.985   2.895   8.734  0.1591 -0.1968  2.2463
56775SOL    HW277184   8.082   2.784   8.771  2.4019  0.6142 -0.7620
56776SOL     OW77185   5.749  11.066   0.009 -0.0264  0.0393 -0.5657
56776SOL    HW177186   5.841  11.089   0.022 -0.2742  2.1548 -1.9993
56776SOL    HW277187   5.752  10.988  -0.046  0.8580 -1.3011  1.2638
56777SOL     OW77188   6.699   7.204   2.919  0.2676 -0.5936  0.4381
56777SOL    HW177189   6.758   7.255   2.974  1.5598  0.4656 -1.8118
56777SOL    HW277190   6.727   7.113   2.933  0.1929 -0.4273  1.8829
56778SOL     OW77191  10.963   6.441   6.819 -0.2486 -0.8341 -0.3172
56778SOL    HW177192  10.932   6.425   6.909  0.9698 -1.1321  0.0615
56778SOL    HW277193  10.888   6.481   6.776 -0.1481  1.5359  1.4899
56779SOL     OW77194   2.776   1.643   0.266  0.1050 -0.5477  0.2084
56779SOL    HW177195   2.744   1.596   0.189 -0.2349 -1.3759  0.8413
56779SOL    HW277196   2.871   1.630   0.264  0.0972 -0.5534 -0.0844
56780SOL     OW77197   5.904  11.414   9.866 -0.6899  0.3797 -0.2184
56780SOL    HW177198   5.860  11.470   9.802 -2.3153 -2.4850 -1.8064
56780SOL    HW277199   5.997  11.423   9.846 -0.7706  3.2421  0.3348
56781SOL     OW77200  10.514   9.526   5.460  0.4023 -0.6299 -0.8675
56781SOL    HW177201  10.528   9.621   5.458 -0.9652 -0.4146 -2.2756
56781SOL    HW277202  10.576   9.491   5.396  1.5101 -0.8083  0.2699
56782SOL     OW77203   2.250   3.208  11.184  0.0853 -0.0576 -0.2949
56782SOL    HW177204   2.161   3.179  11.164  0.7366 -2.3253 -0.2474
56782SOL    HW277205   2.295   3.206  11.100  0.7010 -1.4632  0.0304
56783SOL     OW77206   7.712   4.962   8.042 -0.1646  0.0566 -0.1427
56783SOL    HW177207   7.754   4.974   7.957  0.4326  0.5351  0.2116
56783SOL    HW277208   7.705   5.050   8.078  0.0897 -0.1914  0.5353
56784SOL     OW77209  11.442   7.775   9.175 -0.3579 -0.4395  0.3805
56784SOL    HW177210  11.383   7.701   9.165 -2.0780  0.8781  0.3475
56784SOL    HW277211  11.384   7.850   9.191  1.3214  0.8693  0.5889
56785SOL     OW77212  11.163   7.846   8.963  0.0285 -0.1074 -0.3390
56785SOL    HW177213  11.130   7.926   8.921 -0.5543 -0.7902 -1.2235
56785SOL    HW277214  11.237   7.818   8.909 -0.7979 -1.0571 -1.0205
56786SOL     OW77215   6.504   2.008   2.237  0.4356 -0.1505 -0.1940
56786SOL    HW177216   6.507   1.947   2.162 -0.6812 -1.1353  0.5311
56786SOL    HW277217   6.591   2.001   2.276  0.7131 -0.3698 -0.8289
56787SOL     OW77218  10.746   5.620   4.331 -0.0441 -0.5213  0.1424
56787SOL    HW177219  10.803   5.574   4.269 -0.7779 -0.2747 -0.7367
56787SOL    HW277220  10.674   5.559   4.346  0.5972 -0.9810  1.5282
56788SOL     OW77221   0.788   4.315  11.217  0.5488 -0.3934  0.6632
56788SOL    HW177222   0.745   4.315  11.303  1.7465  2.0693  1.3472
56788SOL    HW277223   0.804   4.407  11.198  0.9486 -0.9204 -1.9275
56789SOL     OW77224   5.160   1.126   2.960 -0.0978 -0.1440  0.3137
56789SOL    HW177225   5.159   1.036   2.929 -1.2765  0.0087 -0.1411
56789SOL    HW277226   5.077   1.136   3.006  1.6216 -0.4455  3.8867
56790SOL     OW77227  11.926   3.317   9.681 -0.1422 -0.4588  0.1892
56790SOL    HW177228  11.966   3.345   9.599 -2.2881  0.7523 -0.5181
56790SOL    HW277229  11.832   3.318   9.664 -0.6082 -1.1167  2.3920
56791SOL     OW77230   6.715   8.136   7.059  0.4934  0.3821 -0.4511
56791SOL    HW177231   6.768   8.204   7.017  0.6047 -0.0658 -1.0387
56791SOL    HW277232   6.776   8.093   7.119  0.8011 -0.1129 -1.1045
56792SOL     OW77233   5.053  11.656   0.229  0.0918  1.3908  0.2069
56792SOL    HW177234   5.062  11.592   0.159  0.9222  2.5367 -0.7680
56792SOL    HW277235   5.054  11.604   0.309  0.4955  0.1658 -0.5711
56793SOL     OW77236  10.470   9.750  10.482  0.1689 -0.2763 -0.3821
56793SOL    HW177237  10.499   9.703  10.561 -0.6049 -1.9252 -1.0422
56793SOL    HW277238  10.540   9.737  10.419 -0.0313 -0.5405 -0.5547
56794SOL     OW77239   1.093   9.292   2.001  0.1062 -0.8451  0.3985
56794SOL    HW177240   1.100   9.249   2.086 -1.5427  0.8639  1.4744
56794SOL    HW277241   1.182   9.289   1.966  1.7971  1.5490  3.8313
56795SOL     OW77242   1.806  11.042  11.526 -0.1869  0.3290 -0.0313
56795SOL    HW177243   1.874  11.105  11.503  0.2616  0.1922  0.8945
56795SOL    HW277244   1.775  11.010  11.442  1.0010  0.2801 -0.4763
56796SOL     OW77245   2.630  11.533  11.488  0.2351 -0.0592 -0.5071
56796SOL    HW177246   2.666  11.620  11.469  0.0360 -0.0594 -0.8931
56796SOL    HW277247   2.549  11.551  11.534  1.8766 -0.0650  2.6181
56797SOL     OW77248   1.336   7.141   1.186  0.1124 -0.3751 -0.1515
56797SOL    HW177249   1.280   7.196   1.131  1.7310  1.2654 -0.2413
56797SOL    HW277250   1.301   7.152   1.275 -0.2569 -0.0738 -0.3328
56798SOL     OW77251  12.111   5.164   6.393 -0.4405  0.1758  0.0088
56798SOL    HW177252  12.178   5.097   6.380 -0.2264  0.6024 -1.2527
56798SOL    HW277253  12.065   5.169   6.309 -1.5141  0.4853  0.5929
56799SOL     OW77254   6.727   3.256   4.568  0.0648 -0.1278 -0.2639
56799SOL    HW177255   6.648   3.214   4.536 -2.3769  1.3033  3.2301
56799SOL    HW277256   6.735   3.336   4.516  0.7206 -1.4191 -2.2469
56800SOL     OW77257  11.041   2.705   1.065 -0.4938 -0.3736 -0.2977
56800SOL    HW177258  11.083   2.621   1.082 -0.2040 -0.2593 -0.4488
56800SOL    HW277259  11.035   2.747   1.150 -0.0540 -0.2738 -0.3158
56801SOL     OW77260   9.609   6.147  11.671 -0.7769  0.4771 -0.2669
56801SOL    HW177261   9.689   6.136  11.723 -1.1640  1.9724  0.6931
56801SOL    HW277262   9.619   6.085  11.598  0.8088 -0.0437  0.3571
56802SOL     OW77263   0.304   1.501   1.733  0.1685 -0.7700  0.1434
56802SOL    HW177264   0.245   1.433   1.766  0.3647 -0.2042  1.7827
56802SOL    HW277265   0.392   1.463   1.742  0.4623  0.3063  2.9591
56803SOL     OW77266  10.905   4.858   5.155 -0.0027 -0.0637  0.1618
56803SOL    HW177267  10.839   4.919   5.190 -0.2170  0.1952 -0.6818
56803SOL    HW277268  10.855   4.798   5.100  0.4278 -0.0191 -0.2818
56804SOL     OW77269   8.139   9.602   9.947 -0.0034 -0.2290 -0.1101
56804SOL    HW177270   8.127   9.513   9.914 -0.4022  0.1392 -0.9930
56804SOL    HW277271   8.176   9.591  10.034  1.6027 -1.2256 -0.8734
56805SOL     OW77272   1.886  10.550   0.612  0.1105 -0.6598  0.2004
56805SOL    HW177273   1.800  10.574   0.578 -0.0854 -0.2370  0.9719
56805SOL    HW277274   1.867  10.503   0.694  0.6249 -0.2917  0.5324
56806SOL     OW77275   3.890   5.012   9.530  0.1279 -0.5940 -0.3471
56806SOL    HW177276   3.851   5.037   9.446  0.3442  0.6372 -0.1023
56806SOL    HW277277   3.984   5.018   9.515  0.1604  0.1397  0.1293
56807SOL     OW77278   3.526   7.851   4.754 -0.4306  0.5019 -0.0349
56807SOL    HW177279   3.471   7.829   4.829  0.7134 -0.6847  0.4991
56807SOL    HW277280   3.555   7.940   4.771  0.2636  0.0600  1.2501
56808SOL     OW77281   8.712   1.530  11.324  0.1980 -0.6223  0.2386
56808SOL    HW177282   8.713   1.502  11.233  0.9835 -0.9549  0.3462
56808SOL    HW277283   8.682   1.621  11.320 -0.8502 -0.9712 -0.2447
56809SOL     OW77284  10.475   9.071   8.151  0.0530 -0.6396  0.1812
56809SOL    HW177285  10.557   9.051   8.196 -0.2426 -1.2179  0.4727
56809SOL    HW277286  10.458   8.994   8.098 -1.5308 -1.5892  1.9409
56810SOL     OW77287   1.146   3.493   3.044 -0.5729 -0.1397 -0.1166
56810SOL    HW177288   1.058   3.521   3.019 -1.6902 -1.9021  1.5640
56810SOL    HW277289   1.159   3.411   2.996 -0.3891 -0.5332  0.5889
56811SOL     OW77290   0.408   9.744   4.225 -0.4412 -0.0189 -0.2822
56811SOL    HW177291   0.372   9.804   4.160  0.4318  1.4381  0.5233
56811SOL    HW277292   0.501   9.766   4.229 -0.4064 -0.3084  1.1943
56812SOL     OW77293   1.288   7.078   4.630 -0.1979 -0.1983  0.3003
56812SOL    HW177294   1.317   7.169   4.622 -1.8061  0.4291  1.0983
56812SOL    HW277295   1.227   7.078   4.704  0.4397 -2.1273  0.8914
56813SOL     OW77296  11.770   6.779   2.481 -0.0153  0.5547  0.1983
56813SOL    HW177297  11.839   6.838   2.452  0.7786 -0.1435  0.6366
56813SOL    HW277298  11.816   6.701   2.512 -1.0276 -0.1621 -0.0622
56814SOL     OW77299   3.760   7.970   1.093  0.2122 -0.5315  0.2453
56814SOL    HW177300   3.675   7.949   1.055 -0.3265 -0.6596  1.4564
56814SOL    HW277301   3.754   8.062   1.118  1.0948 -0.0151 -1.2771
56815SOL     OW77302   9.503  12.155   4.183 -0.1503  0.4648 -0.1626
56815SOL    HW177303   9.528  12.065   4.165 -0.2099  0.4027  0.0684
56815SOL    HW277304   9.563  12.184   4.251 -1.3136  0.0024  1.0892
56816SOL     OW77305   6.100  10.767   3.987  0.7648 -0.1849 -1.0427
56816SOL    HW177306   6.121  10.686   4.035  2.2970  0.7967  0.0606
56816SOL    HW277307   6.166  10.771   3.918  0.5120 -0.0284 -1.2731
56817SOL     OW77308   8.286   7.685   2.243 -0.1231 -0.1155  0.2643
56817SOL    HW177309   8.275   7.601   2.288  0.4428 -0.6175 -0.5289
56817SOL    HW277310   8.225   7.744   2.289  0.3346 -0.6367  1.6105
56818SOL     OW77311   6.156   1.125   2.140  0.4400  0.4052  0.1596
56818SOL    HW177312   6.221   1.133   2.070 -1.3939  0.5635 -1.6041
56818SOL    HW277313   6.160   1.033   2.167 -1.7115 -0.8406 -3.2139
56819SOL     OW77314   6.056   6.750   9.239  0.0205  0.3335 -0.0936
56819SOL    HW177315   6.027   6.662   9.214  0.5191 -0.9076  3.1950
56819SOL    HW277316   5.980   6.805   9.220 -1.3692 -1.3188  0.3561
56820SOL     OW77317   6.537   0.359   3.003  0.1542 -0.2024 -0.0653
56820SOL    HW177318   6.490   0.296   2.948  0.3375 -0.9528  0.6201
56820SOL    HW277319   6.498   0.349   3.090 -0.0773  0.9086 -0.0206
56821SOL     OW77320  12.019   9.131   1.814  0.5192 -0.1889  0.0486
56821SOL    HW177321  12.019   9.172   1.900  1.3386 -0.7411  0.3251
56821SOL    HW277322  12.074   9.053   1.824  2.4294  0.8340 -1.4772
56822SOL     OW77323   5.963   3.437   8.548 -0.5275 -0.2677  0.5237
56822SOL    HW177324   6.052   3.452   8.579 -0.8389  2.6225  0.3206
56822SOL    HW277325   5.943   3.347   8.574  1.5118 -0.1509  2.8878
56823SOL     OW77326   7.343   2.452   6.369 -0.7879 -0.3450 -0.6051
56823SOL    HW177327   7.314   2.454   6.278 -0.9546  3.2082 -0.6290
56823SOL    HW277328   7.437   2.472   6.364 -0.4674 -1.6392 -0.0355
56824SOL     OW77329   2.204   5.015   4.402 -0.7856 -0.4412  0.3946
56824SOL    HW177330   2.161   4.956   4.463 -0.9566  0.6906  1.3938
56824SOL    HW277331   2.203   4.968   4.319 -2.8514 -0.9535  0.6634
56825SOL     OW77332  10.287   3.484  10.680 -0.2062 -0.0927  0.0684
56825SOL    HW177333  10.231   3.435  10.621 -0.0562 -1.2838  0.8758
56825SOL    HW277334  10.234   3.498  10.759 -0.2628  1.1058 -0.1652
56826SOL     OW77335  11.720   3.833  12.000  0.1375  0.1391  0.3333
56826SOL    HW177336  11.699   3.749  11.959 -0.5383  0.2366  0.4591
56826SOL    HW277337  11.730   3.894  11.927 -1.1402  0.3312  0.2938
56827SOL     OW77338   2.671   9.023   5.154  0.7737 -0.2260  0.1153
56827SOL    HW177339   2.759   9.038   5.189  0.3583 -0.2309  1.2187
56827SOL    HW277340   2.613   9.041   5.228 -0.2348  0.9337 -0.9246
56828SOL     OW77341   6.245   3.802   0.345 -0.5590 -0.0455 -0.0576
56828SOL    HW177342   6.335   3.834   0.351 -0.6857  0.1152  1.9041
56828SOL    HW277343   6.252   3.721   0.293  0.9805 -0.7811  1.1862
56829SOL     OW77344   1.153   2.703  12.212 -0.0561 -0.0083  0.2798
56829SOL    HW177345   1.198   2.697  12.128 -0.5744  0.5643 -0.0447
56829SOL    HW277346   1.214   2.749  12.269 -0.5472  1.5536 -0.4018
56830SOL     OW77347   5.699   7.941   2.413  0.6581 -0.1567 -0.2036
56830SOL    HW177348   5.643   8.018   2.416 -0.9995 -1.3143 -0.1467
56830SOL    HW277349   5.661   7.881   2.477  2.1717 -0.8630  0.0762
56831SOL     OW77350   4.755   5.692   1.349 -0.5417 -0.4835 -0.3676
56831SOL    HW177351   4.805   5.610   1.356 -1.0234 -0.7167  0.5225
56831SOL    HW277352   4.808   5.747   1.291  0.7958 -0.7072  0.5819
56832SOL     OW77353   9.479   0.077   3.533 -0.4100 -0.2120 -0.0321
56832SOL    HW177354   9.512   0.139   3.468  0.2835 -1.3980 -0.8413
56832SOL    HW277355   9.440   0.007   3.481 -1.4979 -0.3104  0.8752
56833SOL     OW77356   6.126   7.562   0.672 -0.0097  0.5101  0.1367
56833SOL    HW177357   6.207   7.537   0.628  0.2161 -0.4011  1.0263
56833SOL    HW277358   6.082   7.479   0.691 -0.5981  0.9313  0.6761
56834SOL     OW77359   3.960   0.411   0.124  0.1409  0.9920 -0.1540
56834SOL    HW177360   3.983   0.490   0.173  0.5159  1.3338 -0.8634
56834SOL    HW277361   4.022   0.345   0.154  1.7910  1.7587 -1.6504
56835SOL     OW77362  10.255   5.022  10.713 -0.5029  0.3190 -0.1758
56835SOL    HW177363  10.170   5.061  10.693 -0.7787 -0.3782 -0.3912
56835SOL    HW277364  10.279   4.976  10.633  0.1821  0.6829 -0.1867
56836SOL     OW77365  10.987  12.218   3.117  0.7499  0.2747  0.0369
56836SOL    HW177366  10.946  12.303   3.111  1.1617  0.4130 -1.0227
56836SOL    HW277367  11.081  12.237   3.117  0.8459 -0.0799  1.6141
56837SOL     OW77368   6.157   2.018   9.440  0.1075  0.5894 -0.3478
56837SOL    HW177369   6.152   2.103   9.397 -0.6408  1.0894  0.6861
56837SOL    HW277370   6.251   2.001   9.449  0.2755  0.8206 -1.4534
56838SOL     OW77371   2.251   7.133   4.016 -0.2375 -0.2652 -0.1392
56838SOL    HW177372   2.331   7.083   3.997 -0.6902 -0.4885 -1.5052
56838SOL    HW277373   2.191   7.111   3.945 -1.6987 -0.4569  1.0957
56839SOL     OW77374   4.992   4.268   0.719  0.3420  0.4596  0.3104
56839SOL    HW177375   5.052   4.194   0.711 -1.4359 -1.0743  0.4286
56839SOL    HW277376   5.010   4.322   0.641  1.8330  0.0698  0.3533
56840SOL     OW77377   9.379   6.218   3.607 -0.6089  0.4591  0.5106
56840SOL    HW177378   9.417   6.131   3.600 -2.4546 -0.3450 -0.3150
56840SOL    HW277379   9.415   6.267   3.533  1.7399  1.0049  1.9148
56841SOL     OW77380   3.251   3.337   4.541 -0.1560  0.1548 -0.0224
56841SOL    HW177381   3.173   3.352   4.596  0.3244  0.5438  0.5601
56841SOL    HW277382   3.221   3.273   4.476 -1.4380  1.4889 -0.8186
56842SOL     OW77383   5.107   9.077   1.398 -0.6068 -0.0745 -0.1839
56842SOL    HW177384   5.166   9.106   1.329  0.9982 -1.2891  0.6259
56842SOL    HW277385   5.080   9.158   1.442 -2.3449  0.8332 -2.6559
56843SOL     OW77386   6.831   9.289   3.723  0.4428  0.3320  0.3036
56843SOL    HW177387   6.820   9.282   3.628  0.7606 -0.3166  0.3148
56843SOL    HW277388   6.762   9.235   3.760 -0.0287  1.0271  0.4565
56844SOL     OW77389   1.391   2.520  10.691 -0.6396 -0.7806 -0.7489
56844SOL    HW177390   1.423   2.434  10.717  1.2017  0.0950  0.0973
56844SOL    HW277391   1.351   2.556  10.770 -0.4042 -0.4358 -0.7832
56845SOL     OW77392   0.143  12.340   9.391 -0.2275  0.0255  0.0302
56845SOL    HW177393   0.132  12.250   9.423  0.9058  0.3865  1.5737
56845SOL    HW277394   0.154  12.331   9.296 -1.7733 -1.2944 -0.0635
56846SOL     OW77395   5.473   3.840  10.529  0.0664 -0.0716 -0.4254
56846SOL    HW177396   5.552   3.803  10.568  1.7549  2.7189 -0.9512
56846SOL    HW277397   5.415   3.856  10.603  1.5198  1.2076  0.5012
56847SOL     OW77398   2.565  12.077  10.344 -0.6699  0.0251 -0.0658
56847SOL    HW177399   2.561  11.989  10.308 -2.7913 -1.0323  2.3874
56847SOL    HW277400   2.492  12.123  10.302  0.6538  0.8034 -1.6134
56848SOL     OW77401   9.645   0.280   0.796 -0.6456  0.5183 -0.3999
56848SOL    HW177402   9.707   0.209   0.810 -0.1934  1.2276  1.5546
56848SOL    HW277403   9.651   0.300   0.703  2.6964  1.0973 -0.1611
56849SOL     OW77404   5.044   8.999   3.447  0.1861 -0.1749 -0.1594
56849SOL    HW177405   5.056   9.011   3.353  3.2496 -2.0378 -0.1488
56849SOL    HW277406   4.983   8.926   3.455  0.3191 -0.3463 -0.7118
56850SOL     OW77407   9.032   9.607   6.082 -0.5767 -0.1666 -0.1799
56850SOL    HW177408   9.027   9.530   6.139 -1.6449  0.5527  0.7486
56850SOL    HW277409   9.063   9.677   6.140 -0.0995  0.2213 -0.8893
56851SOL     OW77410   0.051   8.634  10.065 -0.2495 -0.1343  0.2085
56851SOL    HW177411   0.119   8.591  10.012  1.4528  2.1211  0.4260
56851SOL    HW277412   0.072   8.607  10.155  1.9266  2.3577  0.5557
56852SOL     OW77413  12.043   8.704  11.327 -0.1129  0.1048 -0.1392
56852SOL    HW177414  12.090   8.787  11.313  1.0258 -0.0190  2.4104
56852SOL    HW277415  12.105   8.637  11.298  0.2507  0.0524  0.7246
56853SOL     OW77416   9.747   3.371  10.516 -0.4221 -0.0093 -0.2451
56853SOL    HW177417   9.770   3.292  10.564 -1.5176 -0.4632 -0.4446
56853SOL    HW277418   9.692   3.341  10.444 -2.8886  1.1254  1.0514
56854SOL     OW77419   5.540   4.565   5.672 -0.3394  0.4307 -0.4803
56854SOL    HW177420   5.483   4.523   5.737 -1.3826 -0.0726 -1.6746
56854SOL    HW277421   5.488   4.638   5.638  0.5358  1.2307 -0.1502
56855SOL     OW77422   6.333   9.088   5.418 -0.0464  0.3274  0.1569
56855SOL    HW177423   6.324   9.019   5.484  0.3718  0.6293  0.5290
56855SOL    HW277424   6.243   9.117   5.401 -0.1807  0.0314  0.3599
56856SOL     OW77425  10.256   7.506   2.778 -0.1481  0.0775  0.3023
56856SOL    HW177426  10.231   7.469   2.693  0.8471  0.2007 -0.0512
56856SOL    HW277427  10.298   7.433   2.824 -1.2966 -0.1827  0.9701
56857SOL     OW77428   5.783   2.308   6.418 -0.1351  0.4007  0.2816
56857SOL    HW177429   5.853   2.372   6.426  0.2476  0.3040 -1.6937
56857SOL    HW277430   5.718   2.349   6.360  0.3950 -1.1274 -1.5213
56858SOL     OW77431  10.851   7.071   5.253 -0.1184 -0.2601 -0.1736
56858SOL    HW177432  10.807   6.991   5.224 -0.2196  0.1363 -1.1290
56858SOL    HW277433  10.791   7.110   5.316 -0.3921 -0.5564 -0.2495
56859SOL     OW77434   4.476   0.182   7.567  0.6346  0.0136 -0.8328
56859SOL    HW177435   4.407   0.234   7.607 -0.8290 -3.4939  1.7336
56859SOL    HW277436   4.454   0.180   7.474 -2.5790 -0.5584 -0.1723
56860SOL     OW77437   2.447   9.501   3.842  0.2545  0.2367 -0.0852
56860SOL    HW177438   2.492   9.500   3.926  0.3838 -0.6689 -0.1564
56860SOL    HW277439   2.357   9.473   3.862  0.4285 -0.4981 -0.3221
56861SOL     OW77440   3.597   1.337  12.269 -0.5914  0.3149 -0.2013
56861SOL    HW177441   3.658   1.317  12.340  1.3121  0.1872 -1.7882
56861SOL    HW277442   3.512   1.306  12.301  0.4911 -1.2585  1.3473
56862SOL     OW77443   5.310   1.686   0.103 -0.1013  0.3052  0.2933
56862SOL    HW177444   5.238   1.697   0.166  0.3819  1.4643  0.6695
56862SOL    HW277445   5.387   1.722   0.147  0.2730  1.0590 -0.9123
56863SOL     OW77446   7.144   1.178   7.640  0.3151  0.2757 -0.2243
56863SOL    HW177447   7.159   1.272   7.634  0.9015  0.1174 -1.8776
56863SOL    HW277448   7.057   1.164   7.602  0.3676  0.1230 -0.2910
56864SOL     OW77449  11.730   9.224   1.700 -0.6715 -0.2900  0.5168
56864SOL    HW177450  11.736   9.307   1.749  1.3980  0.8620 -1.5012
56864SOL    HW277451  11.754   9.157   1.764  1.2185  1.0825  1.3503
56865SOL     OW77452  10.893  12.170   3.999 -0.2412 -0.2730 -1.0117
56865SOL    HW177453  10.942  12.094   3.966  1.1710  0.1715 -0.0057
56865SOL    HW277454  10.875  12.149   4.090  1.5609  1.2463 -0.2600
56866SOL     OW77455   2.781   5.037   9.334  0.5994  0.0324 -0.0342
56866SOL    HW177456   2.759   4.990   9.254  0.1988  0.1723 -0.0099
56866SOL    HW277457   2.706   5.094   9.349  0.0371 -0.9666  1.1677
56867SOL     OW77458   7.383   4.703  10.955  0.2204  0.8296  0.1982
56867SOL    HW177459   7.475   4.719  10.979 -0.2019  0.6518  2.0218
56867SOL    HW277460   7.380   4.611  10.932  0.2355  0.4820  1.5239
56868SOL     OW77461   1.541   2.673   3.707 -0.1377  0.1477 -0.2350
56868SOL    HW177462   1.621   2.627   3.683  0.1380  0.0094  0.8899
56868SOL    HW277463   1.536   2.665   3.802  0.1121  2.6905  0.0694
56869SOL     OW77464   2.087   2.675   9.200  0.3768  0.0084  0.4749
56869SOL    HW177465   2.029   2.720   9.140  0.3877 -1.0493 -0.3521
56869SOL    HW277466   2.070   2.582   9.185  3.2697 -0.4098 -0.8295
56870SOL     OW77467  12.160  10.942   8.950  0.2860  0.8091  0.1238
56870SOL    HW177468  12.193  11.021   8.992 -1.0889  0.6006  1.7362
56870SOL    HW277469  12.065  10.945   8.964  0.3094 -1.7920  1.5254
56871SOL     OW77470   8.346  12.118   8.598  0.2273 -0.2069  0.0260
56871SOL    HW177471   8.397  12.159   8.529 -1.6317  0.2359 -1.1552
56871SOL    HW277472   8.280  12.184   8.621 -1.9809 -1.9599 -0.9744
56872SOL     OW77473  11.889   9.075  12.383  0.0709 -0.3655  1.1624
56872SOL    HW177474  11.971   9.124  12.392 -0.7743  0.9131  2.6387
56872SOL    HW277475  11.830   9.136  12.338 -0.1342 -1.1951  0.2927
56873SOL     OW77476   3.403   0.097   8.799  0.0629 -0.0229  0.2186
56873SOL    HW177477   3.448   0.148   8.866 -0.7669  1.3663 -0.2473
56873SOL    HW277478   3.311   0.122   8.808 -0.1462 -0.2706 -1.0409
56874SOL     OW77479  10.255   7.773   4.642 -0.6542 -0.3303  0.3474
56874SOL    HW177480  10.320   7.742   4.578 -0.8123 -2.1596  1.0145
56874SOL    HW277481  10.280   7.864   4.659  1.0646 -0.6517 -0.2528
56875SOL     OW77482  12.143   2.050   2.595  0.7177  0.7514 -0.0669
56875SOL    HW177483  12.191   2.123   2.632  0.2009  1.1429 -0.1519
56875SOL    HW277484  12.051   2.069   2.614  0.6867 -2.7023  5.1910
56876SOL     OW77485   1.582   3.158   3.682 -0.1806 -0.3904 -0.0202
56876SOL    HW177486   1.606   3.147   3.774  0.0219  2.3085  0.3348
56876SOL    HW277487   1.520   3.087   3.665 -0.6077 -0.6892  2.3393
56877SOL     OW77488   0.679   2.275  12.134  0.3014 -0.1300  0.0553
56877SOL    HW177489   0.771   2.257  12.151  0.4628 -0.0149 -0.6968
56877SOL    HW277490   0.664   2.250  12.043 -0.5571 -0.6930  0.3328
56878SOL     OW77491   4.486  11.776   4.130  0.5382  0.5460 -0.2059
56878SOL    HW177492   4.504  11.806   4.042 -0.5667  2.3517  0.1347
56878SOL    HW277493   4.400  11.812   4.151 -1.0944 -3.0777  0.2143
56879SOL     OW77494   0.940   1.819   1.400 -0.2889 -0.6602  0.5468
56879SOL    HW177495   0.984   1.783   1.322 -0.8326 -0.0379 -0.0594
56879SOL    HW277496   0.989   1.899   1.420  0.0142 -0.9590  1.0129
56880SOL     OW77497  10.004   8.992   7.282 -0.2668 -0.2933 -0.6497
56880SOL    HW177498  10.037   9.081   7.268 -0.0744 -0.1089  0.8022
56880SOL    HW277499   9.920   8.990   7.236 -0.2853  0.6464 -0.6758
56881SOL     OW77500   9.407   2.456   9.149  0.3683  0.5560 -0.1535
56881SOL    HW177501   9.430   2.365   9.135  0.4746  0.5638 -0.0242
56881SOL    HW277502   9.407   2.495   9.061  3.6238  1.2377  0.0221
56882SOL     OW77503   3.934  10.403   1.535 -0.3206 -0.2956  0.0039
56882SOL    HW177504   3.930  10.367   1.447 -0.4081  0.4830 -0.3119
56882SOL    HW277505   3.850  10.448   1.547 -0.6502 -1.0776  0.7852
56883SOL     OW77506   4.453  11.388  10.022 -0.2238 -0.0842 -0.0461
56883SOL    HW177507   4.523  11.386  10.087 -1.0184 -0.5890  0.8154
56883SOL    HW277508   4.474  11.317   9.962  2.1702  2.2412 -2.1799
56884SOL     OW77509   1.761  10.478  10.391 -0.3068  0.0440  0.1731
56884SOL    HW177510   1.671  10.468  10.423 -0.5072  1.1837  0.0260
56884SOL    HW277511   1.761  10.438  10.304 -0.6480 -0.0312  0.2076
56885SOL     OW77512   8.174   6.322   0.937 -0.2775 -0.1333 -0.1566
56885SOL    HW177513   8.169   6.393   1.001 -0.0133 -0.8679  0.6875
56885SOL    HW277514   8.252   6.273   0.961 -0.4270 -0.6898 -0.7688
56886SOL     OW77515   7.229   9.741   8.358  0.2881 -0.5516  0.3912
56886SOL    HW177516   7.311   9.734   8.309 -0.1536  1.1820 -0.6619
56886SOL    HW277517   7.256   9.737   8.450  1.2559 -2.5517  0.0809
56887SOL     OW77518  10.989   6.015   2.846  0.1379 -0.0674  0.3794
56887SOL    HW177519  10.955   5.998   2.934 -1.0017  1.4076  0.2626
56887SOL    HW277520  10.930   5.968   2.787  0.0211  0.1365  0.3319
56888SOL     OW77521   2.925  11.672   3.176  0.3665  0.1291 -0.1930
56888SOL    HW177522   2.882  11.686   3.092 -0.1067  0.6706  0.1326
56888SOL    HW277523   3.014  11.643   3.153 -0.0467 -0.6343 -0.8676
56889SOL     OW77524   4.934  10.104   0.716 -0.0917 -0.6900  0.3909
56889SOL    HW177525   4.937  10.132   0.625 -2.9826 -1.2481  0.0302
56889SOL    HW277526   4.938  10.185   0.766  1.6334 -0.3877 -0.1959
56890SOL     OW77527   9.127   5.823   7.292  0.0291 -0.6505  0.6755
56890SOL    HW177528   9.136   5.805   7.198 -0.1657 -1.0843  0.7374
56890SOL    HW277529   9.045   5.872   7.299 -0.0844 -0.8351  0.6469
56891SOL     OW77530  12.392   8.217   6.196 -0.3942  0.6935  0.2078
56891SOL    HW177531  12.362   8.302   6.230  1.4280  2.3268 -1.9251
56891SOL    HW277532  12.453   8.185   6.261 -1.7445  0.5404  1.4504
56892SOL     OW77533   1.327   0.762   0.855 -0.0766  0.8778  0.0991
56892SOL    HW177534   1.243   0.806   0.846 -0.2168  1.2913  2.6027
56892SOL    HW277535   1.386   0.831   0.887  0.6365  0.1105  0.4909
56893SOL     OW77536   8.948   7.728   9.390 -0.0553 -0.2336 -0.0699
56893SOL    HW177537   8.911   7.813   9.416 -0.8710 -0.4497 -0.4834
56893SOL    HW277538   9.022   7.716   9.448 -0.8516  0.0588  1.0449
56894SOL     OW77539  10.078   3.412   0.585 -0.2201 -0.5370  0.5967
56894SOL    HW177540  10.036   3.331   0.556  0.1489 -0.2807 -0.7274
56894SOL    HW277541  10.010   3.479   0.579  0.0022 -0.3731 -0.2944
56895SOL     OW77542   1.857   7.496   7.859 -0.2451  0.0737  0.3447
56895SOL    HW177543   1.896   7.443   7.790  0.9405  0.5168  0.6446
56895SOL    HW277544   1.833   7.433   7.927  0.3634 -0.1683  0.3410
56896SOL     OW77545   4.429  10.320   6.361 -1.4359  0.3045 -0.0856
56896SOL    HW177546   4.358  10.381   6.343 -1.6141 -0.3882 -1.8455
56896SOL    HW277547   4.457  10.289   6.275 -1.1901 -1.9109  0.7458
56897SOL     OW77548   8.647   6.021  11.302  0.7247 -0.2875  0.1341
56897SOL    HW177549   8.697   6.054  11.377 -0.3269  2.8056 -0.3666
56897SOL    HW277550   8.569   6.077  11.299  1.2512  0.5454 -3.8618
56898SOL     OW77551   6.267  11.524  10.660 -0.5302 -0.4286  0.1812
56898SOL    HW177552   6.171  11.520  10.661 -0.5215 -1.3097  2.0351
56898SOL    HW277553   6.295  11.433  10.657  0.1850 -0.3144  1.8868
56899SOL     OW77554   1.962   4.792   0.741 -0.3188  0.0391  0.6060
56899SOL    HW177555   2.048   4.830   0.759 -1.0820  1.5459  1.2066
56899SOL    HW277556   1.976   4.735   0.666  1.1782  0.3441  0.6266
56900SOL     OW77557   4.288   3.621  10.049  0.1452  0.0172 -0.0445
56900SOL    HW177558   4.284   3.707  10.090 -0.2588 -0.2885  0.5724
56900SOL    HW277559   4.219   3.622   9.983 -1.9626 -0.8469  1.9917
56901SOL     OW77560   1.948   6.801   7.652 -0.7410  0.1815  0.0305
56901SOL    HW177561   1.940   6.842   7.566  1.2660  0.7952  0.1029
56901SOL    HW277562   2.015   6.851   7.697 -0.5031 -1.2151  1.3128
56902SOL     OW77563   4.472   2.088   7.697  0.1344  0.8169  0.6443
56902SOL    HW177564   4.525   2.033   7.755 -1.5858 -1.6310  0.0646
56902SOL    HW277565   4.535   2.128   7.638  1.5727  0.3792  1.8104
56903SOL     OW77566   9.791   8.960   8.363 -0.0455 -0.3918 -0.6485
56903SOL    HW177567   9.816   8.921   8.279 -0.1963 -0.5932 -0.5999
56903SOL    HW277568   9.798   8.888   8.426 -0.2047 -0.3083 -0.5359
56904SOL     OW77569   2.709   9.189  10.910 -0.4200  0.0492 -0.1785
56904SOL    HW177570   2.648   9.116  10.924 -0.5351  0.5227  2.1606
56904SOL    HW277571   2.709   9.236  10.993  1.4918  1.3376 -0.8514
56905SOL     OW77572   7.198   9.944   3.590  0.7025 -0.7982  0.0111
56905SOL    HW177573   7.128  10.008   3.580  2.2098  0.8986 -0.2973
56905SOL    HW277574   7.191   9.915   3.681 -0.1964 -0.4037  0.0737
56906SOL     OW77575   3.809   6.886   6.836 -0.2804  0.2028  0.2077
56906SOL    HW177576   3.898   6.856   6.820 -0.6198 -0.8330  0.2203
56906SOL    HW277577   3.780   6.834   6.911 -0.8668  0.5980  0.2564
56907SOL     OW77578   6.064  11.406   5.727 -0.0392 -0.0681  0.2679
56907SOL    HW177579   5.983  11.440   5.766 -1.0252 -0.6982 -1.1563
56907SOL    HW277580   6.037  11.328   5.679  1.1647  0.4519 -1.3638
56908SOL     OW77581   9.754   6.073   8.414 -0.1223  0.0002 -0.0676
56908SOL    HW177582   9.748   6.130   8.491  1.0132  2.8811 -1.9805
56908SOL    HW277583   9.727   5.987   8.447  0.1536  1.1025  3.4915
56909SOL     OW77584   5.742   8.123   0.167 -0.3050 -0.6349 -0.0087
56909SOL    HW177585   5.799   8.154   0.236  0.0315 -0.4191 -0.3802
56909SOL    HW277586   5.794   8.059   0.119 -0.8472 -1.4620  0.4887
56910SOL     OW77587   8.188   0.040  11.182  0.0639  0.0412 -0.4611
56910SOL    HW177588   8.121  -0.020  11.148  0.0109 -0.6995  0.8981
56910SOL    HW277589   8.145   0.087  11.253  0.2682  1.3555 -1.1714
56911SOL     OW77590   9.165   6.535   9.029  0.1466 -0.2801 -0.0585
56911SOL    HW177591   9.114   6.571   8.956  0.4142 -1.3291 -0.7959
56911SOL    HW277592   9.204   6.612   9.071 -1.6707  0.5162  0.2799
56912SOL     OW77593  12.195   2.223   0.808 -0.7079  0.0681  0.7346
56912SOL    HW177594  12.130   2.167   0.765 -1.5643  0.6681  1.2154
56912SOL    HW277595  12.268   2.165   0.827 -0.9432 -0.5415 -0.1550
56913SOL     OW77596   9.031   0.052   8.968  0.2687  0.3067 -0.1045
56913SOL    HW177597   9.116   0.016   8.941  0.3212  0.5901 -0.3250
56913SOL    HW277598   8.974  -0.024   8.975  0.9489 -0.0962  1.6208
56914SOL     OW77599   0.020   5.183  10.848 -0.6812 -0.3597 -0.2014
56914SOL    HW177600   0.006   5.226  10.763  0.6718 -1.5242 -1.0698
56914SOL    HW277601  -0.067   5.174  10.885 -1.1865  1.2924 -0.8927
56915SOL     OW77602   9.470   5.794   8.893  0.5313  0.2680  0.3411
56915SOL    HW177603   9.415   5.825   8.964 -1.6575 -2.1578 -0.1376
56915SOL    HW277604   9.510   5.714   8.927  1.5965  0.5081 -0.2763
56916SOL     OW77605  12.076  10.781  10.109  0.1833 -0.5827  0.4990
56916SOL    HW177606  12.094  10.740  10.025 -0.6338 -1.6685  0.8368
56916SOL    HW277607  12.107  10.719  10.174  0.0664 -0.1196  1.0100
56917SOL     OW77608  11.140   2.844   7.941  0.1918  0.0309 -0.1219
56917SOL    HW177609  11.165   2.864   8.031 -1.3947  1.6398  0.0140
56917SOL    HW277610  11.045   2.852   7.940  0.0592 -1.2011 -1.6732
56918SOL     OW77611  11.424   7.413   0.694  0.1711 -0.3988  0.0785
56918SOL    HW177612  11.436   7.500   0.656  1.1218  0.2656  1.7569
56918SOL    HW277613  11.470   7.353   0.634  0.1209  0.3481 -0.7178
56919SOL     OW77614   1.503   3.729   1.813 -0.0569 -0.0948  0.0864
56919SOL    HW177615   1.453   3.754   1.735 -0.8828 -0.0227  0.6238
56919SOL    HW277616   1.574   3.792   1.817 -1.3402  1.3913  0.6724
56920SOL     OW77617   5.737   0.688   5.389 -0.1282  0.4002 -0.2903
56920SOL    HW177618   5.791   0.692   5.468 -0.0882  0.1018 -0.3015
56920SOL    HW277619   5.763   0.766   5.339  0.3264  0.2409 -0.3133
56921SOL     OW77620   2.540  10.175   8.806  0.6177  0.0250  0.2106
56921SOL    HW177621   2.626  10.134   8.816  0.5985  0.1671  1.0429
56921SOL    HW277622   2.522  10.172   8.712  0.3951 -2.3419  0.2696
56922SOL     OW77623  11.824   9.056   2.883  0.0077  0.0527 -0.0762
56922SOL    HW177624  11.889   9.019   2.823  1.0081 -0.9000  1.5031
56922SOL    HW277625  11.741   9.019   2.855  0.2791  0.4516 -1.4878
56923SOL     OW77626   8.896  11.542   8.316 -0.5613  0.3557 -0.7612
56923SOL    HW177627   8.811  11.583   8.328 -0.6987 -0.1355 -0.0260
56923SOL    HW277628   8.926  11.521   8.405  0.7207  1.3014 -0.9196
56924SOL     OW77629   3.308   9.746   0.490 -0.0290 -0.5453 -0.4330
56924SOL    HW177630   3.298   9.662   0.445  0.9177 -0.5726 -0.6155
56924SOL    HW277631   3.334   9.723   0.579 -1.4018 -0.4759  0.0102
56925SOL     OW77632  11.294   8.866  11.117 -0.0583  0.4518  0.5203
56925SOL    HW177633  11.286   8.949  11.164  0.7563  0.3228  0.9032
56925SOL    HW277634  11.235   8.807  11.162  1.2709  0.1194  1.8909
56926SOL     OW77635   1.603   5.065   5.336 -0.4379  0.0329  0.1151
56926SOL    HW177636   1.627   4.999   5.401  0.5154 -0.3243 -0.5742
56926SOL    HW277637   1.534   5.024   5.285 -0.0707 -0.3170 -0.1082
56927SOL     OW77638   5.905   4.535   3.627 -0.1551  0.3763  0.1767
56927SOL    HW177639   5.968   4.592   3.672 -0.3386  1.6849 -1.1352
56927SOL    HW277640   5.874   4.475   3.695 -0.2640  2.1177  1.7581
56928SOL     OW77641   2.593   6.526  10.841  0.0276  0.1946 -0.1188
56928SOL    HW177642   2.527   6.536  10.773 -1.4537 -0.5318  1.1353
56928SOL    HW277643   2.676   6.531  10.795 -0.7973  3.2267 -1.4991
56929SOL     OW77644   9.632  11.811   3.468 -0.7353  0.0378  0.0886
56929SOL    HW177645   9.606  11.793   3.378 -0.1588 -0.3597 -0.0036
56929SOL    HW277646   9.724  11.786   3.472 -0.6988  0.2564  0.7310
56930SOL     OW77647   4.972   9.883   7.599 -0.2213 -0.0969  0.0478
56930SOL    HW177648   4.924   9.818   7.547 -0.1404  0.7688 -1.1663
56930SOL    HW277649   4.904   9.928   7.649 -0.6854  0.9650 -1.4835
56931SOL     OW77650   5.649   3.856   3.570 -0.0890 -0.1501 -0.2579
56931SOL    HW177651   5.570   3.896   3.605 -0.2062  0.2427 -0.9518
56931SOL    HW277652   5.681   3.800   3.641  1.0007  2.4278  1.4354
56932SOL     OW77653   3.556   0.195   8.179  1.1236 -0.1380 -0.1316
56932SOL    HW177654   3.618   0.265   8.158 -0.4035  0.9834 -1.1797
56932SOL    HW277655   3.507   0.227   8.255 -0.4445  0.5896 -1.3801
56933SOL     OW77656   0.327   8.774  12.243  0.2543 -0.2176 -0.7089
56933SOL    HW177657   0.411   8.791  12.287 -1.4289  0.8473  2.4380
56933SOL    HW277658   0.312   8.680  12.258  0.2953 -0.1284 -0.0422
56934SOL     OW77659   0.566   4.205  10.176 -0.4582 -0.5047 -0.4266
56934SOL    HW177660   0.492   4.227  10.232 -0.3531 -0.7310 -0.1984
56934SOL    HW277661   0.633   4.172  10.236 -0.3493 -0.7522 -0.6826
56935SOL     OW77662   3.396   2.380  10.283 -0.0834 -0.0648 -0.0128
56935SOL    HW177663   3.408   2.331  10.365 -1.3683  0.2665  0.3930
56935SOL    HW277664   3.432   2.322  10.215  0.8506 -0.4157  0.7489
56936SOL     OW77665   1.134   6.281   6.207  0.4362  0.4987 -0.1372
56936SOL    HW177666   1.077   6.236   6.145  1.1130 -2.1437  1.0335
56936SOL    HW277667   1.221   6.276   6.167  0.7532 -0.5784  0.6484
56937SOL     OW77668   2.925   9.295   7.133  0.3135 -0.5152 -0.3436
56937SOL    HW177669   2.902   9.232   7.066  0.6257 -2.1812  1.0413
56937SOL    HW277670   2.850   9.295   7.193  0.6362 -0.1384  0.0750
56938SOL     OW77671   6.522   8.654   4.539  0.0795  0.5347 -0.4054
56938SOL    HW177672   6.525   8.712   4.615 -1.7578  0.3886 -0.1596
56938SOL    HW277673   6.606   8.608   4.539  1.1851  2.4562 -0.0387
56939SOL     OW77674   4.958   2.083  10.398 -0.4082  0.1640 -0.1015
56939SOL    HW177675   5.041   2.068  10.443  0.5580  1.0119 -1.5365
56939SOL    HW277676   4.902   2.125  10.464  0.3051 -0.3568  0.8579
56940SOL     OW77677   1.494  12.101   5.741  0.3995  0.1108 -0.1698
56940SOL    HW177678   1.554  12.057   5.682 -0.2154 -0.8945 -0.0765
56940SOL    HW277679   1.531  12.188   5.753  1.3062 -0.1632 -0.8728
56941SOL     OW77680   0.398   4.972   8.831 -0.0372  0.9661  0.0510
56941SOL    HW177681   0.484   4.975   8.873 -0.2377 -0.7210  0.6570
56941SOL    HW277682   0.341   5.020   8.891  0.1487  0.6280  0.5047
56942SOL     OW77683   8.856   3.796   1.101 -0.5849 -0.6087  0.2583
56942SOL    HW177684   8.890   3.707   1.088 -0.8894 -1.3289  3.4490
56942SOL    HW277685   8.776   3.783   1.153 -0.0675  1.5613  1.6972
56943SOL     OW77686   9.826   5.797   0.164 -0.1068  0.2181  0.1703
56943SOL    HW177687   9.781   5.873   0.202 -0.4814 -0.4589  1.0913
56943SOL    HW277688   9.795   5.722   0.214  0.0901 -0.5872 -0.8835
56944SOL     OW77689   5.409   5.024  10.153 -0.2455  0.5337  0.1086
56944SOL    HW177690   5.503   5.043  10.154 -0.3387  1.0260  0.6917
56944SOL    HW277691   5.400   4.944  10.205 -0.0280 -0.2064 -0.9628
56945SOL     OW77692   7.958   7.439   5.805  0.0767 -0.0986  0.0650
56945SOL    HW177693   8.047   7.405   5.800  0.3589  0.6936 -0.4743
56945SOL    HW277694   7.944   7.481   5.721 -0.9690 -0.5913 -0.0184
56946SOL     OW77695  11.450   5.719  12.351 -0.2330  0.2702  0.1942
56946SOL    HW177696  11.380   5.727  12.416  0.3864  2.4220  0.6764
56946SOL    HW277697  11.520   5.774  12.384  0.7764  0.0623 -1.4671
56947SOL     OW77698  10.482   7.779   3.085  0.0542 -0.0971  0.3711
56947SOL    HW177699  10.406   7.722   3.098 -0.2770  0.4762  0.9949
56947SOL    HW277700  10.549   7.720   3.049 -0.4308 -0.7780  0.5457
56948SOL     OW77701  10.660   5.891  10.561  0.2013  0.2703  0.0445
56948SOL    HW177702  10.638   5.802  10.534 -1.0575  0.9611 -1.2879
56948SOL    HW277703  10.699   5.931  10.484  0.7120  0.9105  0.6154
56949SOL     OW77704   8.087  10.301   2.301 -0.1142  0.0149  0.4701
56949SOL    HW177705   8.073  10.337   2.213 -0.4238  1.1383  0.9599
56949SOL    HW277706   8.054  10.368   2.360  0.2756 -0.6369  1.4618
56950SOL     OW77707   5.619   5.862   3.531 -0.1380 -0.5689 -0.5264
56950SOL    HW177708   5.579   5.897   3.611  0.2905  0.3979 -0.7217
56950SOL    HW277709   5.550   5.869   3.465 -0.4560 -1.2621 -0.2745
56951SOL     OW77710  11.161   4.322   1.126 -0.1481 -0.1765 -0.0060
56951SOL    HW177711  11.149   4.405   1.173  2.0861 -0.2166  0.7380
56951SOL    HW277712  11.160   4.255   1.194  0.0309 -0.5574 -0.3727
56952SOL     OW77713   7.826   8.831   1.580  0.0122  0.1642 -0.3633
56952SOL    HW177714   7.890   8.790   1.521 -0.8597 -0.8703 -0.6267
56952SOL    HW277715   7.821   8.922   1.551  1.4039  0.2869 -0.2907
56953SOL     OW77716   4.013   1.077   4.639  0.6380 -0.7752  0.5264
56953SOL    HW177717   4.105   1.051   4.631  1.5092  2.0378  0.3699
56953SOL    HW277718   4.013   1.143   4.708 -1.1096 -0.0275 -0.1371
56954SOL     OW77719   9.488   3.637  10.476  0.3307  0.4557 -0.0538
56954SOL    HW177720   9.513   3.729  10.479  0.0875  0.6259 -1.8540
56954SOL    HW277721   9.551   3.593  10.533  1.0700  1.6086  0.0544
56955SOL     OW77722   5.139  10.888   7.959 -0.3894 -0.1084  0.7453
56955SOL    HW177723   5.054  10.849   7.978 -0.0682 -0.7885  0.8317
56955SOL    HW277724   5.178  10.904   8.045 -0.9218  1.3544  0.7422
56956SOL     OW77725   3.325   8.182  12.317  0.0374  0.2892  0.2866
56956SOL    HW177726   3.248   8.238  12.322  0.1702  0.5428 -0.3265
56956SOL    HW277727   3.295   8.096  12.346 -0.0767  0.7617  1.6022
56957SOL     OW77728   1.750   5.752  12.392 -0.1818 -0.3246 -0.1775
56957SOL    HW177729   1.659   5.769  12.418 -0.5073  1.5278 -2.1877
56957SOL    HW277730   1.744   5.681  12.328  0.0042 -1.3111  0.8787
56958SOL     OW77731   3.988  11.416  11.619 -0.1992 -0.4533  0.4965
56958SOL    HW177732   4.011  11.337  11.667 -0.0261 -0.1305  0.9491
56958SOL    HW277733   4.024  11.488  11.672 -0.1199 -0.0871 -0.0436
56959SOL     OW77734   9.676  12.518   8.684  0.5060  0.3889  0.0704
56959SOL    HW177735   9.743  12.500   8.749  1.3374 -1.2910 -1.1797
56959SOL    HW277736   9.714  12.489   8.601 -1.5977 -0.2501 -0.7378
56960SOL     OW77737   7.934   4.640   1.741 -0.1820 -0.1927  0.2651
56960SOL    HW177738   8.007   4.684   1.697  1.0838 -1.7460  0.7092
56960SOL    HW277739   7.922   4.690   1.822  1.7381 -1.0279  1.1342
56961SOL     OW77740  12.476   7.638   6.321  0.2971  0.3695 -0.2278
56961SOL    HW177741  12.445   7.637   6.411  1.4190 -0.6401  0.1710
56961SOL    HW277742  12.509   7.727   6.308 -0.7312  0.7957  0.0369
56962SOL     OW77743  11.448   0.222   2.915  0.3842  0.0766  0.0936
56962SOL    HW177744  11.481   0.266   2.994 -0.7139  1.4345 -0.1425
56962SOL    HW277745  11.357   0.253   2.908  0.7588  0.8011 -2.2609
56963SOL     OW77746   3.890   7.711   1.915  0.2270 -0.3232  0.2268
56963SOL    HW177747   3.875   7.626   1.873 -1.9076  0.8546 -1.5996
56963SOL    HW277748   3.972   7.742   1.877 -0.4392 -0.3552 -1.3153
56964SOL     OW77749   0.919   1.620   3.223 -0.2865 -0.0672  0.3541
56964SOL    HW177750   0.824   1.613   3.212 -0.4016  0.1783  1.1761
56964SOL    HW277751   0.939   1.557   3.292  0.1899 -0.2957  0.0124
56965SOL     OW77752   4.100   1.817  11.835  0.1697  0.0640  0.9317
56965SOL    HW177753   4.184   1.799  11.877  0.1679 -0.3669  0.7482
56965SOL    HW277754   4.124   1.857  11.751  0.1689  1.7848  1.7015
56966SOL     OW77755   8.667   0.702   2.648  0.0285 -0.0337 -0.0136
56966SOL    HW177756   8.706   0.769   2.704  0.8401 -0.1050 -0.4772
56966SOL    HW277757   8.655   0.626   2.705 -0.7254  0.4388  0.4704
56967SOL     OW77758   4.392   4.558   9.180  0.7779  0.3143 -0.2511
56967SOL    HW177759   4.417   4.650   9.179  1.1054  0.2650  1.1773
56967SOL    HW277760   4.473   4.511   9.200  0.2909 -0.1254  0.7957
56968SOL     OW77761   6.200   3.156   8.181  0.0611  0.1554 -0.2595
56968SOL    HW177762   6.279   3.187   8.136  1.2611  0.1776  1.7564
56968SOL    HW277763   6.232   3.097   8.249 -1.7109 -0.2476  0.2799
56969SOL     OW77764   1.466   6.003   6.183 -0.0960  0.5211  0.0486
56969SOL    HW177765   1.374   5.980   6.167  0.1953 -0.3193 -0.4600
56969SOL    HW277766   1.515   5.927   6.152  0.7591  0.8453  0.5969
56970SOL     OW77767   4.375   2.530   0.420  0.3290  0.2798 -0.7012
56970SOL    HW177768   4.444   2.537   0.355  1.6063  1.0829  0.6710
56970SOL    HW277769   4.393   2.447   0.464 -0.2600 -0.0464 -1.0725
56971SOL     OW77770   4.404   7.377   8.528  0.1606  0.2447  0.2448
56971SOL    HW177771   4.489   7.411   8.499 -0.2885  1.7573  0.6068
56971SOL    HW277772   4.353   7.369   8.447  0.5448 -0.3748  0.0617
56972SOL     OW77773   3.883   3.643   0.938  0.1240 -0.1725 -0.2333
56972SOL    HW177774   3.904   3.713   0.876 -0.9194 -0.6589 -1.1717
56972SOL    HW277775   3.839   3.577   0.885 -2.1061  0.0228  1.2574
56973SOL     OW77776   5.774   4.691   4.624  0.0048  0.2269  0.4195
56973SOL    HW177777   5.806   4.668   4.711  0.0796  0.5835  0.4884
56973SOL    HW277778   5.853   4.711   4.574  0.0526 -1.0590 -0.0625
56974SOL     OW77779  12.469   9.791   4.024  0.3907  0.2361 -0.3254
56974SOL    HW177780  12.558   9.822   4.009 -0.2047  2.2119 -0.0801
56974SOL    HW277781  12.429   9.791   3.938  1.2156 -2.8605 -0.8062
56975SOL     OW77782   7.263   9.160   2.472  0.4137 -0.3416  0.3953
56975SOL    HW177783   7.214   9.233   2.434 -0.9595 -0.5923  1.6064
56975SOL    HW277784   7.346   9.198   2.500  0.5668  0.2935 -0.8529
56976SOL     OW77785   8.638   4.020   1.107 -0.1288 -0.3450  0.1256
56976SOL    HW177786   8.641   4.111   1.135  1.4414  0.0599 -1.1423
56976SOL    HW277787   8.628   3.970   1.188 -0.6331  0.9222  0.8786
56977SOL     OW77788   2.381  10.475  12.069 -0.0926  0.9301  0.2940
56977SOL    HW177789   2.294  10.435  12.069  0.3468 -0.0637  0.7006
56977SOL    HW277790   2.391  10.510  12.158  0.1773  0.4327  0.4676
56978SOL     OW77791   4.563   0.806  12.076 -0.1765  0.3837  0.7963
56978SOL    HW177792   4.576   0.777  12.166  0.2809 -0.0809  0.5822
56978SOL    HW277793   4.607   0.740  12.022  0.2536  1.0860  0.2691
56979SOL     OW77794   2.396   2.659   6.033 -0.7855  0.1776 -0.2416
56979SOL    HW177795   2.423   2.742   6.072 -0.0900  0.1246 -0.5914
56979SOL    HW277796   2.327   2.626   6.091  0.8906 -0.4003  1.5638
56980SOL     OW77797   6.703   6.908   6.483 -0.2227 -0.5339  0.0422
56980SOL    HW177798   6.697   6.852   6.406 -0.3354 -0.3563 -0.0790
56980SOL    HW277799   6.680   6.850   6.556  1.4031 -1.1065  0.1356
56981SOL     OW77800   9.913  10.911  12.505  0.9913 -0.1166  0.0697
56981SOL    HW177801   9.982  10.972  12.480  0.2419  0.4593 -0.6161
56981SOL    HW277802   9.951  10.825  12.489  1.1519  0.2045 -1.4388
56982SOL     OW77803   9.274   0.200  11.237  0.2309 -0.2962 -0.1965
56982SOL    HW177804   9.185   0.207  11.204  0.4648  1.0462 -0.6015
56982SOL    HW277805   9.290   0.106  11.244 -1.2154 -0.5466 -0.0937
56983SOL     OW77806   6.776   6.250   1.157 -0.7646 -0.2989  0.2232
56983SOL    HW177807   6.847   6.309   1.181  0.4885 -1.5205 -0.3670
56983SOL    HW277808   6.757   6.201   1.236 -1.4998  0.5499  0.5908
56984SOL     OW77809   0.086   4.644   9.214 -0.1339 -0.2672 -0.1947
56984SOL    HW177810   0.074   4.651   9.119  2.3946  1.8481 -0.4788
56984SOL    HW277811   0.021   4.704   9.251  1.0262  1.4618 -0.8568
56985SOL     OW77812   0.545   2.037  10.194  0.0839  0.3923 -0.0952
56985SOL    HW177813   0.634   2.067  10.210  0.6686 -1.0342 -0.5172
56985SOL    HW277814   0.540   1.953  10.239 -1.1768  0.6036  0.2087
56986SOL     OW77815  10.240   2.759   0.149 -0.6652  0.2608 -0.3708
56986SOL    HW177816  10.201   2.690   0.204 -1.1479  0.8052 -0.0220
56986SOL    HW277817  10.330   2.729   0.133 -1.4354 -1.4391 -1.8920
56987SOL     OW77818  10.041   9.862   5.791 -0.1281  0.1768  0.0116
56987SOL    HW177819  10.108   9.904   5.844 -0.5988 -0.1719  0.9039
56987SOL    HW277820  10.082   9.782   5.760 -0.1797 -0.1375  0.7249
56988SOL     OW77821   0.928  10.875   1.030  0.5259 -0.7336 -1.1074
56988SOL    HW177822   0.987  10.932   0.982  0.4175 -1.4630 -2.1468
56988SOL    HW277823   0.842  10.914   1.019  0.6665 -0.2102 -0.4221
56989SOL     OW77824   6.811   9.867   9.998 -0.0391 -0.4429 -0.0830
56989SOL    HW177825   6.867   9.870   9.920  0.6599 -0.6570  0.4059
56989SOL    HW277826   6.860   9.915  10.065  0.4351 -2.1769  0.8898
56990SOL     OW77827   6.357   4.532   2.126 -0.4570 -0.2040 -0.3886
56990SOL    HW177828   6.353   4.606   2.066 -1.4862 -0.9331 -1.2542
56990SOL    HW277829   6.276   4.538   2.178 -1.1773 -1.4071 -1.3317
56991SOL     OW77830   9.504  11.776   5.501  0.3414 -0.0029  0.1943
56991SOL    HW177831   9.583  11.817   5.536  0.6672  1.6472 -2.1979
56991SOL    HW277832   9.445  11.849   5.482 -1.1994 -1.0910  0.5724
56992SOL     OW77833   4.160   4.608  12.347 -0.5652 -0.0579  0.6762
56992SOL    HW177834   4.117   4.527  12.320 -1.4273  0.9483 -1.2590
56992SOL    HW277835   4.090   4.674  12.343  0.4755  1.0774  0.4847
56993SOL     OW77836   5.839   1.842   4.804 -0.0738  1.2021 -0.1596
56993SOL    HW177837   5.761   1.812   4.851 -0.4330  0.3018 -1.2854
56993SOL    HW277838   5.816   1.833   4.711  0.6480  2.8259 -0.5301
56994SOL     OW77839   7.917   4.265   5.430 -0.0187  0.3256 -0.3302
56994SOL    HW177840   7.918   4.210   5.352  0.8234  0.0747 -0.1525
56994SOL    HW277841   7.859   4.338   5.407 -0.8331 -0.4144 -0.7088
56995SOL     OW77842   8.943   9.054   6.137 -0.0986  0.5206 -0.3062
56995SOL    HW177843   8.901   8.993   6.198 -0.5083  1.9762  0.9402
56995SOL    HW277844   8.875   9.072   6.071 -0.9903  1.7160  0.8726
56996SOL     OW77845   4.858   4.731  11.456 -0.5244 -0.2065 -0.2873
56996SOL    HW177846   4.859   4.735  11.551  3.5830  0.0837 -0.1954
56996SOL    HW277847   4.870   4.821  11.427 -1.6452 -0.3014 -1.1279
56997SOL     OW77848   2.169   4.096   0.193 -0.1309 -0.7755  0.3881
56997SOL    HW177849   2.124   4.044   0.261  0.1585  0.7638  1.8159
56997SOL    HW277850   2.261   4.071   0.202 -0.4299 -2.9435 -1.6529
56998SOL     OW77851   8.269  10.129   2.823 -0.5990  0.2937  0.6968
56998SOL    HW177852   8.177  10.102   2.826 -0.2661 -1.0495 -0.2324
56998SOL    HW277853   8.279  10.169   2.736 -0.3690  0.6944  0.9079
56999SOL     OW77854  11.389  10.691   2.887  0.2617 -0.0805  0.0628
56999SOL    HW177855  11.452  10.647   2.831  0.5268  0.9438 -0.4524
56999SOL    HW277856  11.416  10.667   2.976  1.1516  0.0511 -0.1635
57000SOL     OW77857   8.253   1.093   8.470 -0.2645 -0.1010 -0.3659
57000SOL    HW177858   8.265   1.003   8.441  1.7727  0.1483 -0.4706
57000SOL    HW277859   8.219   1.139   8.393  1.4016 -0.2420 -1.2299
57001SOL     OW77860   6.608   6.070   5.404  0.0346 -0.1430 -0.2107
57001SOL    HW177861   6.528   6.017   5.409  0.9999 -1.5659  0.7454
57001SOL    HW277862   6.650   6.042   5.323 -0.0096 -0.0227 -0.2753
57002SOL     OW77863  11.749   3.224   5.509  0.1354  0.4454 -0.2486
57002SOL    HW177864  11.716   3.313   5.504 -1.0693  0.1842  1.8482
57002SOL    HW277865  11.671   3.169   5.503  0.7269 -0.4206 -0.2588
57003SOL     OW77866   2.994   9.815   9.843 -0.6836  0.2875 -0.2710
57003SOL    HW177867   2.951   9.812   9.757 -1.8142 -0.4221  0.3075
57003SOL    HW277868   3.023   9.725   9.858  2.4238  0.9938 -1.3138
57004SOL     OW77869   9.697   9.181   6.370  0.2856  0.1515  0.5332
57004SOL    HW177870   9.602   9.186   6.358  0.2053  1.3843  1.4769
57004SOL    HW277871   9.733   9.233   6.298  0.1907  0.5310  0.7565
57005SOL     OW77872  11.707   1.925   0.133  0.4500  0.4566 -0.4782
57005SOL    HW177873  11.744   1.842   0.103  1.0099  0.0227  1.2831
57005SOL    HW277874  11.754   1.992   0.084  1.2969 -0.2002 -0.5777
57006SOL     OW77875   7.097  11.264   6.450 -0.1660 -0.1542  0.1315
57006SOL    HW177876   7.011  11.270   6.491 -0.5115  1.3256 -0.7221
57006SOL    HW277877   7.143  11.197   6.501 -1.0326  0.6048  2.0330
57007SOL     OW77878  12.392  12.106   0.080  0.2775  0.0866  0.0748
57007SOL    HW177879  12.431  12.173   0.136 -0.0715  1.4521 -1.2296
57007SOL    HW277880  12.457  12.036   0.077  0.5869  0.2706  1.6038
57008SOL     OW77881  10.633   4.369   1.593  0.3836 -0.5838 -0.4113
57008SOL    HW177882  10.728   4.352   1.591  0.2797 -1.1406 -1.4337
57008SOL    HW277883  10.598   4.317   1.520 -0.8265 -1.0403  0.4755
57009SOL     OW77884   8.484   1.222   8.526  0.0217  0.3103  0.1738
57009SOL    HW177885   8.394   1.192   8.514 -0.9984  2.5314  1.4942
57009SOL    HW277886   8.516   1.174   8.603 -0.2996  0.0562  0.1500
57010SOL     OW77887   2.865   3.086   6.896  0.3388  0.0325 -0.0693
57010SOL    HW177888   2.883   3.073   6.803 -0.1718 -3.1074  0.1605
57010SOL    HW277889   2.951   3.078   6.938  0.2530 -1.5421 -0.1011
57011SOL     OW77890   3.490  11.863   0.146  0.2800 -0.3378  0.3655
57011SOL    HW177891   3.581  11.886   0.126  0.4669 -1.3136  0.0376
57011SOL    HW277892   3.479  11.775   0.111 -0.6671 -0.4092  0.8024
57012SOL     OW77893  12.094   5.654   1.362 -0.5580  0.0661 -0.4448
57012SOL    HW177894  12.175   5.653   1.311 -1.1410 -1.1115 -1.4072
57012SOL    HW277895  12.097   5.737   1.410  0.9568  0.2915 -0.8602
57013SOL     OW77896   3.608  12.413   7.709 -0.5199 -0.1312  0.4370
57013SOL    HW177897   3.647  12.378   7.788 -0.0023  0.7426  0.5767
57013SOL    HW277898   3.662  12.379   7.638 -0.0036  0.3968  0.5734
57014SOL     OW77899   0.327   8.806   0.256 -0.0673 -0.2715 -0.2905
57014SOL    HW177900   0.325   8.813   0.352  0.8286  0.9252 -0.3397
57014SOL    HW277901   0.287   8.721   0.238  0.8907 -1.0962  1.2148
57015SOL     OW77902   2.646   6.515   4.680  0.2387 -0.4439 -0.0812
57015SOL    HW177903   2.628   6.609   4.678 -2.7223 -0.9092 -0.1614
57015SOL    HW277904   2.707   6.503   4.752 -1.3525  1.3274  1.6698
57016SOL     OW77905   9.800  11.329   4.894 -0.0112  0.3719  0.1887
57016SOL    HW177906   9.763  11.329   4.806 -1.5687 -1.3938  0.7607
57016SOL    HW277907   9.872  11.266   4.890  1.9846  2.5454 -0.4975
57017SOL     OW77908   8.035   5.195   8.547 -0.1743  0.5386 -0.5472
57017SOL    HW177909   8.054   5.282   8.581 -0.8858 -0.3570  2.4136
57017SOL    HW277910   8.121   5.158   8.526  0.6084  0.4363  2.3894
57018SOL     OW77911   8.162   1.203   8.239 -0.1141 -0.3771 -0.2007
57018SOL    HW177912   8.125   1.269   8.181 -0.5680 -0.7762 -0.3678
57018SOL    HW277913   8.131   1.119   8.204  1.7131 -0.8139 -0.9412
57019SOL     OW77914  11.747   8.151   7.406  0.6626  0.0360 -0.1073
57019SOL    HW177915  11.682   8.117   7.344  1.1734 -0.8419 -0.1816
57019SOL    HW277916  11.831   8.133   7.365  0.9971 -0.2383  0.6826
57020SOL     OW77917   6.581   4.858   6.599 -0.2824 -0.5873 -0.2836
57020SOL    HW177918   6.674   4.847   6.576  0.3264  0.7838  1.3018
57020SOL    HW277919   6.539   4.779   6.565  1.7150 -1.9674  0.2137
57021SOL     OW77920   1.241   7.406   9.215  0.5086  0.1669 -0.1243
57021SOL    HW177921   1.280   7.427   9.300 -0.8831  0.0984  0.5671
57021SOL    HW277922   1.147   7.413   9.230  0.2484  1.0519 -1.9090
57022SOL     OW77923   2.897   8.150  10.207 -0.1345  0.4503 -0.1169
57022SOL    HW177924   2.844   8.208  10.151 -1.2061 -0.7477 -0.3926
57022SOL    HW277925   2.921   8.077  10.150 -0.0729 -0.1162  0.6210
57023SOL     OW77926   3.293   8.794   1.011 -0.0220 -0.0211  0.4817
57023SOL    HW177927   3.355   8.840   1.067  0.3466  1.4028 -1.0162
57023SOL    HW277928   3.339   8.782   0.928 -0.8810 -1.2139  0.1477
57024SOL     OW77929   0.055  10.350   4.603  0.3822 -0.3260 -0.0000
57024SOL    HW177930   0.032  10.418   4.667 -1.9665 -2.4707  1.6140
57024SOL    HW277931  -0.025  10.334   4.554  0.2074 -3.2205  1.0213
57025SOL     OW77932   1.952   9.638  10.769  0.1875 -0.0506  0.0597
57025SOL    HW177933   1.997   9.624  10.685  1.5797  1.5452  0.4996
57025SOL    HW277934   1.901   9.718  10.755 -0.2638 -0.2630  0.4771
57026SOL     OW77935   4.034   5.586   8.304  0.0808 -0.6470  0.2229
57026SOL    HW177936   4.049   5.498   8.339 -0.3897 -0.2461  1.4993
57026SOL    HW277937   4.109   5.637   8.333  1.7331 -1.1493 -2.7121
57027SOL     OW77938   3.868   0.267   6.735 -0.4375 -0.0436 -0.0591
57027SOL    HW177939   3.832   0.206   6.799  0.5592 -0.0692  0.4963
57027SOL    HW277940   3.866   0.220   6.652 -0.4829 -0.5081  0.2037
57028SOL     OW77941  12.121   5.643   3.829  0.1548 -0.5023 -0.3429
57028SOL    HW177942  12.154   5.668   3.742 -1.6060  0.3443 -0.8120
57028SOL    HW277943  12.127   5.723   3.880 -2.1666  0.0198 -0.7883
57029SOL     OW77944  11.987   6.732   6.798 -0.5254  0.1338  0.5178
57029SOL    HW177945  12.071   6.699   6.767 -0.0575  0.0578  1.8066
57029SOL    HW277946  11.924   6.665   6.774 -0.1719  0.0479 -0.1832
57030SOL     OW77947  12.174   7.662   9.988  0.3072  0.6420  0.2792
57030SOL    HW177948  12.097   7.717   9.999  0.2779  0.4661  1.0117
57030SOL    HW277949  12.151   7.601   9.918  0.5701  1.9456 -0.9841
57031SOL     OW77950   9.793   2.866  12.194  0.3947 -0.7356 -0.0463
57031SOL    HW177951   9.777   2.883  12.287 -0.9100  0.3492 -0.4353
57031SOL    HW277952   9.717   2.817  12.165 -0.2192  0.6795 -0.9556
57032SOL     OW77953   2.899   2.698   1.360  0.0612  0.2353 -0.2960
57032SOL    HW177954   2.887   2.745   1.442  2.1772 -0.1309  0.2803
57032SOL    HW277955   2.929   2.765   1.298  2.4680 -0.1686  0.3606
57033SOL     OW77956  12.165   9.668  11.626  0.3257  0.1657 -0.4090
57033SOL    HW177957  12.244   9.614  11.639 -0.3144 -0.6278  0.3659
57033SOL    HW277958  12.127   9.675  11.714 -0.8915 -0.1303 -0.8939
57034SOL     OW77959   5.282   5.556   8.709 -0.1235 -0.0210 -0.1567
57034SOL    HW177960   5.336   5.499   8.764 -0.4624 -1.9861 -1.7496
57034SOL    HW277961   5.336   5.575   8.633 -1.3274 -1.3337 -1.3879
57035SOL     OW77962   4.456   8.659   6.512  0.6129  0.4556  0.3306
57035SOL    HW177963   4.501   8.730   6.466 -0.2751 -0.2487 -1.7157
57035SOL    HW277964   4.382   8.637   6.457 -0.5355 -0.4601  2.1335
57036SOL     OW77965   4.122   2.929   7.640 -0.3134  0.1397  0.0403
57036SOL    HW177966   4.094   2.891   7.557  0.1583 -0.3540  0.1064
57036SOL    HW277967   4.041   2.957   7.682 -0.5403  0.5887 -0.6757
57037SOL     OW77968   5.755   8.751  11.004 -0.1669 -0.7809 -0.7384
57037SOL    HW177969   5.819   8.745  11.075  0.9119  0.6979 -1.5370
57037SOL    HW277970   5.716   8.838  11.013 -0.7393 -0.9578 -1.3844
57038SOL     OW77971   2.834  10.187  11.611 -0.0487 -0.5596  0.4184
57038SOL    HW177972   2.778  10.238  11.553  0.4262 -0.0329  0.4034
57038SOL    HW277973   2.920  10.188  11.568 -0.2907 -2.4133 -0.1955
57039SOL     OW77974   1.394   9.757   1.462 -0.7577  0.2185  0.1846
57039SOL    HW177975   1.351   9.843   1.465  1.0229  1.3160 -2.1565
57039SOL    HW277976   1.440   9.751   1.546 -2.9201  0.3453  1.4529
57040SOL     OW77977   2.996   1.863   2.937 -0.0317  0.1409  0.2108
57040SOL    HW177978   2.944   1.854   2.857 -0.7266  3.1478  0.2243
57040SOL    HW277979   3.001   1.774   2.972 -2.8088 -0.7139 -1.2649
57041SOL     OW77980   7.321   4.944   2.914 -0.1412 -0.1217  0.1718
57041SOL    HW177981   7.358   4.913   2.997 -1.7883 -1.2148  0.5434
57041SOL    HW277982   7.365   5.028   2.898  1.0414 -0.4434  1.5525
57042SOL     OW77983  11.439  11.349   2.166  0.8634 -0.0452 -0.2219
57042SOL    HW177984  11.495  11.364   2.090  0.0237 -1.1615 -1.0733
57042SOL    HW277985  11.457  11.259   2.192  1.5346  0.4763  1.2596
57043SOL     OW77986   0.596  11.259   3.353 -0.1679 -0.5951 -0.0871
57043SOL    HW177987   0.616  11.168   3.332  0.8654 -0.2809 -0.5358
57043SOL    HW277988   0.669  11.288   3.408 -0.2236  0.1150 -0.3754
57044SOL     OW77989  12.127   6.433   9.101  0.3439  0.3309 -0.5114
57044SOL    HW177990  12.128   6.457   9.009  0.0603  0.2197 -0.5441
57044SOL    HW277991  12.079   6.504   9.144 -0.5121 -0.1756 -0.6117
57045SOL     OW77992  12.405   4.493   3.839  0.5283 -0.3178  0.5357
57045SOL    HW177993  12.470   4.425   3.820  0.8207 -0.8383  3.0591
57045SOL    HW277994  12.456   4.573   3.844  0.2221  0.1531 -2.1515
57046SOL     OW77995   2.928  11.402  10.279 -0.2279  0.3763 -0.5942
57046SOL    HW177996   2.911  11.448  10.361 -1.6063 -0.9118 -0.1087
57046SOL    HW277997   2.914  11.310  10.299  0.7993 -0.1060 -1.9477
57047SOL     OW77998  11.777   3.701   4.939  0.1888  0.1501 -0.0026
57047SOL    HW177999  11.844   3.639   4.965  1.6422  0.5333 -2.4715
57047SOL    HW278000  11.743   3.666   4.857 -0.0718  1.7753 -0.6371
57048SOL     OW78001   5.203   3.080   4.564 -0.3079 -0.0489 -0.1595
57048SOL    HW178002   5.281   3.028   4.547  0.7485  1.5863 -0.5351
57048SOL    HW278003   5.214   3.111   4.654 -0.6218  0.0195 -0.1427
57049SOL     OW78004  12.363   4.463   1.172  0.1118  0.2731 -0.2940
57049SOL    HW178005  12.310   4.392   1.136  0.8518 -0.1645 -0.5328
57049SOL    HW278006  12.299   4.524   1.210 -0.6001  0.0974 -1.1843
57050SOL     OW78007   1.472  10.405   0.770  0.1579 -0.1362  0.2457
57050SOL    HW178008   1.439  10.324   0.808  0.5551 -0.6349 -0.4571
57050SOL    HW278009   1.430  10.411   0.685 -0.6817  0.9476  0.7079
57051SOL     OW78010  12.335   2.411   4.294 -0.3912  0.5939  0.0479
57051SOL    HW178011  12.324   2.325   4.335  1.5453 -0.4537 -1.4833
57051SOL    HW278012  12.422   2.440   4.323 -1.1513  2.2521  0.8273
57052SOL     OW78013   5.506   9.884   3.833 -0.3311 -0.5191  0.5785
57052SOL    HW178014   5.490   9.807   3.779  0.2529 -1.2256  1.3896
57052SOL    HW278015   5.601   9.891   3.836 -0.3701  0.9760 -0.4955
57053SOL     OW78016   3.635   5.440   0.351  0.7426 -0.6259  0.3640
57053SOL    HW178017   3.723   5.478   0.350  0.7360 -0.5829 -1.1380
57053SOL    HW278018   3.598   5.462   0.266 -0.3563 -1.5106  0.5785
57054SOL     OW78019   7.337  12.078  11.866 -0.1134  0.7403  0.2792
57054SOL    HW178020   7.407  12.028  11.908  1.0218  0.6008 -1.6478
57054SOL    HW278021   7.262  12.019  11.866  0.6611 -0.2770 -0.2930
57055SOL     OW78022   8.965  11.502   1.866 -0.0336 -0.0663  0.0967
57055SOL    HW178023   8.887  11.530   1.913  0.1509 -1.5683  1.3613
57055SOL    HW278024   8.945  11.414   1.835  1.1993 -0.5225  0.5523
57056SOL     OW78025   2.604  10.258   6.091 -0.2656  0.3896  0.3056
57056SOL    HW178026   2.696  10.284   6.079  0.3428 -1.8210 -0.3352
57056SOL    HW278027   2.568  10.258   6.002 -0.0090 -1.5835  0.1636
57057SOL     OW78028   5.800   0.173   7.810 -0.1859 -0.1963 -0.1208
57057SOL    HW178029   5.784   0.113   7.883 -0.0974  0.7512  0.6959
57057SOL    HW278030   5.729   0.156   7.749  0.3145 -1.7298 -0.3053
57058SOL     OW78031   7.890  10.471   9.477 -0.5505  0.6798  0.2809
57058SOL    HW178032   7.905  10.457   9.571  1.3958  1.9064  0.1917
57058SOL    HW278033   7.936  10.552   9.457 -1.9823  1.1028 -1.5165
57059SOL     OW78034   5.393   1.984   2.007 -0.0561  0.2838 -0.1718
57059SOL    HW178035   5.445   1.983   2.087  0.6293  0.4131 -0.6051
57059SOL    HW278036   5.455   2.011   1.939 -0.5493 -0.1385 -0.7961
57060SOL     OW78037   2.665   4.759   9.517 -0.5853  0.2642  0.2554
57060SOL    HW178038   2.749   4.792   9.487 -0.1154  0.0259  1.2801
57060SOL    HW278039   2.626   4.719   9.439  1.2240 -1.6394  0.2356
57061SOL     OW78040   3.236   0.196   2.769 -0.1172 -0.6075 -0.2731
57061SOL    HW178041   3.216   0.225   2.858  0.3993  2.2192 -0.9857
57061SOL    HW278042   3.167   0.132   2.748 -0.1211 -1.5124  2.1717
57062SOL     OW78043  12.178   5.423  12.055  0.4343  0.1235  0.0615
57062SOL    HW178044  12.139   5.401  11.970 -0.3984 -0.9763  0.6994
57062SOL    HW278045  12.111   5.473  12.101  0.0728 -1.0469  0.8445
57063SOL     OW78046   4.742  10.297   4.617 -0.3389  0.1456  0.8798
57063SOL    HW178047   4.831  10.303   4.583  0.4184  0.9095  2.8473
57063SOL    HW278048   4.698  10.375   4.583 -0.1222  0.0127  0.2838
57064SOL     OW78049  10.558   8.503   7.775 -0.3966  0.1443 -0.4737
57064SOL    HW178050  10.491   8.468   7.717 -1.5818 -1.6462  1.8388
57064SOL    HW278051  10.517   8.504   7.861  1.2708  2.7421  0.4056
57065SOL     OW78052   1.017   7.876   8.119  0.0710 -0.3725 -0.3709
57065SOL    HW178053   1.026   7.798   8.065 -0.3189  0.1253 -1.1784
57065SOL    HW278054   0.923   7.889   8.128  0.1326 -0.3854  0.3374
57066SOL     OW78055   6.056   6.610   4.812  0.2708 -0.2138 -0.2106
57066SOL    HW178056   6.007   6.691   4.826  0.2459 -0.2392 -0.1564
57066SOL    HW278057   6.034   6.584   4.723 -1.1668 -1.1636  0.4004
57067SOL     OW78058   9.787   6.199  12.338 -0.0068  0.4979  0.7308
57067SOL    HW178059   9.861   6.168  12.390 -0.0493 -0.1030  0.4356
57067SOL    HW278060   9.769   6.128  12.277 -0.1156  1.0944  0.0585
57068SOL     OW78061   8.510   9.477   9.755  0.1203 -0.4179  0.1235
57068SOL    HW178062   8.508   9.464   9.850  1.3790 -0.2297  0.1961
57068SOL    HW278063   8.419   9.498   9.732  0.0018  0.7075  1.4588
57069SOL     OW78064  10.108  12.490   3.145  0.1278  0.7289  0.3827
57069SOL    HW178065  10.030  12.434   3.153 -0.1467  1.2327  1.4206
57069SOL    HW278066  10.073  12.577   3.127  0.4645  0.9075  0.5862
57070SOL     OW78067   4.717   3.913   0.720 -0.2881 -0.3833 -0.3506
57070SOL    HW178068   4.680   3.875   0.800  0.9746 -0.3480  0.2902
57070SOL    HW278069   4.763   3.840   0.679 -0.1062 -0.1716 -0.5225
57071SOL     OW78070   1.944   4.687   7.136 -0.2297  0.1806 -0.6118
57071SOL    HW178071   1.928   4.781   7.139  1.1148  0.4123  0.3314
57071SOL    HW278072   1.910   4.653   7.218 -0.2465 -0.0755 -0.7210
57072SOL     OW78073   9.070   1.251   9.002 -0.3982  0.3567 -0.1601
57072SOL    HW178074   9.085   1.168   8.958  1.5674  0.7161 -0.2818
57072SOL    HW278075   9.077   1.231   9.095 -0.2140  0.3192 -0.1808
57073SOL     OW78076   1.626   1.390   9.016 -0.3507  0.1168 -0.3060
57073SOL    HW178077   1.686   1.447   8.967 -0.2597 -0.6696 -1.1195
57073SOL    HW278078   1.683   1.322   9.053 -0.4934  0.4102  0.4772
57074SOL     OW78079   0.631   6.913   8.132 -0.2933 -0.5278  0.8496
57074SOL    HW178080   0.588   6.861   8.200 -2.5542  1.7546  1.3161
57074SOL    HW278081   0.589   6.885   8.051 -0.8826 -0.0800  0.9920
57075SOL     OW78082  10.078   1.194  11.499 -0.1954  0.0388  0.1742
57075SOL    HW178083  10.043   1.111  11.531 -2.9918  0.1731 -2.1182
57075SOL    HW278084  10.111   1.174  11.412 -0.8055  1.2737 -0.3624
57076SOL     OW78085  11.382   1.333  10.851 -0.4342  0.1862  0.1795
57076SOL    HW178086  11.385   1.426  10.871 -1.2219  0.2383  0.0771
57076SOL    HW278087  11.405   1.290  10.934 -2.1170  0.4392  0.8285
57077SOL     OW78088   5.340   9.062   5.285 -0.5316 -0.5759 -0.2528
57077SOL    HW178089   5.289   9.120   5.342  1.4509  0.3497  0.6815
57077SOL    HW278090   5.408   9.027   5.342  0.4882 -0.9906 -1.6787
57078SOL     OW78091   4.202   8.940   2.317 -0.1739  0.9781  0.4151
57078SOL    HW178092   4.260   8.886   2.263 -0.8830  0.5882  0.0364
57078SOL    HW278093   4.262   8.996   2.367  0.5001  1.8960 -1.3342
57079SOL     OW78094   9.120   6.902   7.065 -0.6832  0.1781  0.3080
57079SOL    HW178095   9.194   6.961   7.053 -0.1078  0.3354  3.6921
57079SOL    HW278096   9.148   6.820   7.024  0.6581  0.7279  0.0677
57080SOL     OW78097   2.591   2.288  12.247  0.6718  0.2141  0.2835
57080SOL    HW178098   2.585   2.373  12.290 -0.3403  1.1049 -1.5342
57080SOL    HW278099   2.598   2.308  12.154 -1.1294 -1.7085 -0.3242
57081SOL     OW78100   0.009   3.596   6.097 -0.6742 -0.0580 -0.1711
57081SOL    HW178101  -0.072   3.642   6.120  0.5276  1.2698  1.7603
57081SOL    HW278102   0.020   3.531   6.167  0.1563  0.1096 -0.1386
57082SOL     OW78103   8.752   2.618   6.284 -0.4344 -0.3165 -0.0679
57082SOL    HW178104   8.836   2.657   6.309 -0.5328  0.0567 -0.3163
57082SOL    HW278105   8.765   2.524   6.298  0.3125 -0.3518 -0.9306
57083SOL     OW78106   6.613  11.377   0.635 -0.3795  0.1644 -0.3189
57083SOL    HW178107   6.657  11.300   0.670  0.8945  0.5110 -1.0939
57083SOL    HW278108   6.571  11.346   0.555  0.3149  0.3067 -0.7463
57084SOL     OW78109   9.284   7.325   6.890 -0.0431 -0.3011  0.6485
57084SOL    HW178110   9.335   7.355   6.814 -0.3431 -0.2743  0.4556
57084SOL    HW278111   9.230   7.253   6.857 -1.0075  0.4399  0.5492
57085SOL     OW78112   7.824  10.651   4.641 -0.0200  0.1807 -0.2805
57085SOL    HW178113   7.762  10.686   4.706  0.4486  0.3834  0.0663
57085SOL    HW278114   7.769  10.609   4.576 -0.4989 -0.1286  0.3108
57086SOL     OW78115   1.136   9.879   0.256  0.4895  0.0190  0.0232
57086SOL    HW178116   1.213   9.843   0.213 -0.1408  0.0509 -1.1818
57086SOL    HW278117   1.141   9.973   0.241  0.0853 -0.0076 -0.2925
57087SOL     OW78118   3.196   8.719   9.853 -0.0627 -0.5658 -0.4542
57087SOL    HW178119   3.282   8.757   9.872 -0.7255  1.1908 -0.8455
57087SOL    HW278120   3.211   8.665   9.775  0.4367  0.7636 -1.3074
57088SOL     OW78121   3.861  10.603   2.651  0.0888 -0.0690  0.0645
57088SOL    HW178122   3.790  10.565   2.599  0.0330  0.7015 -0.4378
57088SOL    HW278123   3.920  10.643   2.587 -0.1768  1.2307  0.5914
57089SOL     OW78124   7.881  11.160   3.098 -0.1871 -0.0201 -0.4957
57089SOL    HW178125   7.956  11.182   3.044  0.8666 -1.9512  0.0811
57089SOL    HW278126   7.813  11.132   3.036 -0.1306  0.8802 -0.9686
57090SOL     OW78127   0.702   4.104   2.900 -0.0168  0.3835  0.1503
57090SOL    HW178128   0.666   4.169   2.840 -1.0951 -0.7329 -0.4443
57090SOL    HW278129   0.776   4.066   2.852  0.2719  0.7861  0.2764
57091SOL     OW78130  10.475  10.767   8.698  0.2684 -0.1861  0.0128
57091SOL    HW178131  10.380  10.771   8.713  0.4652  1.1054  1.1009
57091SOL    HW278132  10.484  10.715   8.618 -1.3248 -0.7127  0.1285
57092SOL     OW78133   6.242   2.709   5.509 -0.4145 -0.2168  0.0488
57092SOL    HW178134   6.328   2.744   5.530 -0.9126  0.3770  1.1986
57092SOL    HW278135   6.254   2.614   5.507  1.1307 -0.1192 -3.8700
57093SOL     OW78136   1.014  12.523   2.410 -0.5628 -0.1025 -0.4712
57093SOL    HW178137   1.081  12.494   2.473  0.4816 -0.4614 -1.7076
57093SOL    HW278138   0.945  12.561   2.465 -0.1008 -1.2170  0.9420
57094SOL     OW78139  12.038   6.316   5.587 -0.0267  0.1154  0.7083
57094SOL    HW178140  12.081   6.398   5.561  0.2769  0.2702  1.6742
57094SOL    HW278141  12.076   6.294   5.672  0.9206 -1.7832 -0.1638
57095SOL     OW78142   0.218   1.569   5.889  0.2351  0.0694  0.1519
57095SOL    HW178143   0.263   1.550   5.806 -0.3981  0.1654 -0.2175
57095SOL    HW278144   0.225   1.488   5.939  1.8682  0.4396  0.6094
57096SOL     OW78145   5.104  12.356   4.815  0.0828 -0.4461  0.1053
57096SOL    HW178146   5.094  12.451   4.812 -0.2081 -0.4483  0.8007
57096SOL    HW278147   5.023  12.322   4.777 -1.1269 -0.4235  2.4628
57097SOL     OW78148   2.237   4.983   2.569  0.3035  0.4217  0.5128
57097SOL    HW178149   2.295   5.038   2.622  2.1157  0.2325 -1.1759
57097SOL    HW278150   2.264   5.000   2.479 -0.5622 -1.6081 -0.1811
57098SOL     OW78151   2.369   4.685  12.207 -0.1655 -0.2311 -0.5285
57098SOL    HW178152   2.445   4.703  12.263  1.0661 -0.6676 -1.9946
57098SOL    HW278153   2.327   4.770  12.198  0.8725  0.2898 -0.6964
57099SOL     OW78154  11.550  10.961   1.252  0.2455 -0.3185  0.4723
57099SOL    HW178155  11.637  10.929   1.275  0.8542 -0.4634 -1.8001
57099SOL    HW278156  11.564  11.053   1.230  0.0899 -0.6244 -1.0226
57100SOL     OW78157  10.341   0.067   7.561 -0.2885  0.1628 -0.2439
57100SOL    HW178158  10.349   0.147   7.509 -3.0663  0.7149  0.0288
57100SOL    HW278159  10.313   0.000   7.497 -0.0592 -0.0859 -0.0871
57101SOL     OW78160   9.418   3.084   5.068  0.0399 -0.1085  0.3087
57101SOL    HW178161   9.329   3.101   5.038  0.6301  1.3079 -0.7641
57101SOL    HW278162   9.444   3.005   5.022 -0.7838 -0.7467  0.9179
57102SOL     OW78163   2.058   6.788   6.115  0.3446 -0.2519 -0.0899
57102SOL    HW178164   1.979   6.825   6.077  0.7500  0.4607 -0.2562
57102SOL    HW278165   2.027   6.714   6.167 -0.5689  0.7262  0.8020
57103SOL     OW78166   4.129   0.727  10.631  0.1032 -0.5640 -0.0608
57103SOL    HW178167   4.135   0.795  10.564 -0.1329 -1.4919 -1.0477
57103SOL    HW278168   4.211   0.679  10.624  0.9100  0.4813  1.6254
57104SOL     OW78169  11.251   8.441   2.030 -0.7546  0.1554 -0.3754
57104SOL    HW178170  11.242   8.387   1.951 -1.1425  0.8582 -0.8137
57104SOL    HW278171  11.342   8.469   2.029  0.7785 -3.8440  2.0615
57105SOL     OW78172   2.802   1.730   0.813  0.2129  0.0964 -0.0509
57105SOL    HW178173   2.751   1.800   0.772  1.2224  1.2135  0.5232
57105SOL    HW278174   2.791   1.655   0.755 -2.7342  0.0118  0.4759
57106SOL     OW78175   5.764  11.495   9.431 -0.0164 -0.0428 -0.1908
57106SOL    HW178176   5.749  11.548   9.509 -0.0942  0.4800 -0.5596
57106SOL    HW278177   5.831  11.432   9.457 -0.6394 -0.4113  0.5500
57107SOL     OW78178   3.072   2.303   5.729 -0.4672  0.4080  0.2412
57107SOL    HW178179   3.160   2.320   5.760 -0.2955  1.8521 -0.9584
57107SOL    HW278180   3.028   2.261   5.803  0.8213  0.8965  1.3103
57108SOL     OW78181   0.398   3.148   8.309  0.0585 -0.1225  0.1797
57108SOL    HW178182   0.442   3.137   8.225 -1.6590 -0.6200 -0.6951
57108SOL    HW278183   0.443   3.087   8.368  1.3452  0.3106 -0.3097
57109SOL     OW78184   0.967   4.997   6.568  0.4842 -0.1364  0.4664
57109SOL    HW178185   1.038   4.934   6.557 -0.2012 -1.0502  1.0878
57109SOL    HW278186   0.904   4.952   6.624 -0.2989  0.8909  0.4398
57110SOL     OW78187   8.968   1.439   4.356 -0.3686  0.1663  0.6480
57110SOL    HW178188   8.979   1.425   4.262 -0.8701 -0.6957  0.7145
57110SOL    HW278189   9.045   1.491   4.381  0.4293 -0.6665 -0.0032
57111SOL     OW78190  12.548   7.372   9.283  0.4058  0.2512  0.2738
57111SOL    HW178191  12.617   7.428   9.250 -0.0905  1.8181  1.7564
57111SOL    HW278192  12.500   7.427   9.345 -2.1217 -0.7826 -0.6307
57112SOL     OW78193   3.179   9.025   3.424 -0.0371  0.1321  0.9111
57112SOL    HW178194   3.274   9.016   3.438  0.0250 -0.3771  0.2260
57112SOL    HW278195   3.171   9.094   3.359 -0.1883  0.7093  1.5255
57113SOL     OW78196   5.295  11.254  11.629 -0.0411 -0.2936  0.9506
57113SOL    HW178197   5.294  11.217  11.717  2.2937 -0.6580  0.8896
57113SOL    HW278198   5.371  11.312  11.628 -0.5022  0.3473 -0.5894
57114SOL     OW78199   5.596   6.301   9.383 -0.1399  0.0509  0.0933
57114SOL    HW178200   5.663   6.236   9.403 -0.4103 -0.5632 -0.9071
57114SOL    HW278201   5.624   6.380   9.430  1.2028 -0.2243 -0.2033
57115SOL     OW78202   1.087   9.608   4.968  0.0798 -0.7679 -0.1923
57115SOL    HW178203   1.065   9.647   5.053 -2.5116 -2.8183  0.2380
57115SOL    HW278204   1.182   9.599   4.969  0.4818  2.3715  0.9886
57116SOL     OW78205  10.711   1.480   2.005 -0.3481 -0.3430  0.1488
57116SOL    HW178206  10.693   1.574   2.007  0.1517 -0.2242 -0.6646
57116SOL    HW278207  10.684   1.452   1.917  2.9775 -0.2378 -1.0142
57117SOL     OW78208   6.580   2.468   3.507 -0.0052 -0.6063  0.6072
57117SOL    HW178209   6.581   2.563   3.521  1.9502 -0.2880 -1.1664
57117SOL    HW278210   6.492   2.450   3.474 -0.0699  0.7967 -0.0914
57118SOL     OW78211   2.672   8.818   7.930  0.3725 -0.4817 -0.4633
57118SOL    HW178212   2.675   8.726   7.955  0.0321 -0.0422  1.3629
57118SOL    HW278213   2.667   8.865   8.014 -0.4412  1.1507 -1.3870
57119SOL     OW78214   8.212   4.903   8.690 -0.2431  0.0911  0.2547
57119SOL    HW178215   8.130   4.865   8.657 -0.4982  0.5819  0.3178
57119SOL    HW278216   8.185   4.979   8.741  0.1316 -0.7869  1.8337
57120SOL     OW78217   2.905   4.348   3.451  0.1351  0.7142  0.6839
57120SOL    HW178218   2.894   4.339   3.356 -0.7809 -0.5928  0.8894
57120SOL    HW278219   2.985   4.399   3.461  0.2133  0.9259 -0.7899
57121SOL     OW78220   8.030  10.738   5.255  0.2652 -0.5630  0.0051
57121SOL    HW178221   8.106  10.774   5.209  1.8993 -1.2479  1.9943
57121SOL    HW278222   8.021  10.649   5.221 -0.2122 -0.2178 -0.8206
57122SOL     OW78223   7.026   1.347   2.256  0.3448 -0.1590  0.4579
57122SOL    HW178224   7.026   1.288   2.180 -0.5399  0.2361  0.1367
57122SOL    HW278225   6.941   1.332   2.298 -0.8699  2.3247 -0.8179
57123SOL     OW78226   0.145   0.271   3.052  0.1553 -0.4149 -0.1174
57123SOL    HW178227   0.087   0.299   2.981 -0.7582  0.5242  0.9600
57123SOL    HW278228   0.118   0.324   3.127 -0.0828 -2.5607  1.4148
57124SOL     OW78229   4.659   1.806   1.593  0.3366  0.1081  0.1024
57124SOL    HW178230   4.565   1.795   1.580  0.7998 -1.7229 -2.3968
57124SOL    HW278231   4.684   1.873   1.530  1.1028 -1.6037 -1.5073
57125SOL     OW78232   4.341  10.403   4.900 -0.1280 -0.0325 -0.1508
57125SOL    HW178233   4.433  10.379   4.888  0.2562 -1.0066  3.5251
57125SOL    HW278234   4.297  10.319   4.916 -1.1711  0.6436  0.6196
57126SOL     OW78235   4.736   7.640   3.780 -0.3638 -0.1432 -0.1605
57126SOL    HW178236   4.774   7.664   3.865 -0.8018 -1.2120  0.3624
57126SOL    HW278237   4.655   7.692   3.775  0.5917  1.3499 -0.8101
57127SOL     OW78238   9.858   5.758  11.621  0.1589  0.2523 -0.5818
57127SOL    HW178239   9.877   5.780  11.530  0.9907 -0.7611 -0.6696
57127SOL    HW278240   9.918   5.686  11.641  0.9868  1.3668  1.1949
57128SOL     OW78241   5.602   6.537  10.065 -0.7956  0.0868  0.1298
57128SOL    HW178242   5.609   6.479   9.989  0.5457  1.2933 -0.7333
57128SOL    HW278243   5.517   6.516  10.104 -0.1383 -2.7951  0.2019
57129SOL     OW78244   9.126   2.342  11.344 -0.7981  0.1349 -0.6258
57129SOL    HW178245   9.064   2.307  11.280 -0.8956 -0.1816 -0.3581
57129SOL    HW278246   9.096   2.308  11.428 -1.5623  1.7598 -0.2126
57130SOL     OW78247   3.692   8.806   7.594  0.1618  0.0338  0.1303
57130SOL    HW178248   3.758   8.760   7.645 -1.6249 -0.1841  2.3942
57130SOL    HW278249   3.695   8.896   7.627 -1.0084 -0.1088  0.7029
57131SOL     OW78250   7.788  10.188   3.587 -0.0204  0.6641 -0.1787
57131SOL    HW178251   7.754  10.253   3.526  0.1114 -0.1299 -1.1155
57131SOL    HW278252   7.733  10.111   3.573  1.8735 -0.5350 -1.4701
57132SOL     OW78253   2.711   7.938   5.347 -0.4553  0.1294 -0.0269
57132SOL    HW178254   2.802   7.924   5.321 -0.5341  1.1421 -0.8991
57132SOL    HW278255   2.717   7.986   5.430 -0.1646  1.0826 -0.5779
57133SOL     OW78256   0.263  12.290   2.647 -0.0377  0.1798 -0.3854
57133SOL    HW178257   0.351  12.281   2.684  0.2988  1.2652 -0.8945
57133SOL    HW278258   0.207  12.307   2.723  0.2584 -0.0746 -0.1071
57134SOL     OW78259   8.476   4.586   7.433 -0.0632 -0.0658 -0.2782
57134SOL    HW178260   8.520   4.631   7.505  0.9730  0.5851 -1.2631
57134SOL    HW278261   8.415   4.526   7.475 -0.0873  0.8909  1.1148
57135SOL     OW78262   0.798   4.578   4.521 -0.1382  0.5373 -0.0786
57135SOL    HW178263   0.752   4.496   4.540 -0.5145  0.7307 -0.1389
57135SOL    HW278264   0.758   4.642   4.581  1.4000  0.2987  1.2663
57136SOL     OW78265   4.877   7.904  11.724 -0.9656  0.3758 -0.2105
57136SOL    HW178266   4.912   7.936  11.808  0.7814 -2.2245  0.1685
57136SOL    HW278267   4.785   7.885  11.742 -0.7616  0.4104  0.9592
57137SOL     OW78268  10.043   3.693  10.457 -0.0066  0.0924 -0.1967
57137SOL    HW178269  10.126   3.737  10.475 -0.3245  0.6787 -0.1189
57137SOL    HW278270  10.034   3.628  10.527 -0.2679  0.9781  0.6134
57138SOL     OW78271  11.513   7.588   2.775 -0.1275 -0.2337  0.3327
57138SOL    HW178272  11.558   7.624   2.698 -0.0313 -1.0950 -0.0220
57138SOL    HW278273  11.583   7.549   2.827 -0.3128 -0.4829  0.3923
57139SOL     OW78274   7.473  11.292   2.203 -0.3163 -0.1912 -0.1586
57139SOL    HW178275   7.418  11.369   2.184  0.8475  1.5259  2.7128
57139SOL    HW278276   7.416  11.235   2.254 -0.8520 -0.8085 -1.3881
57140SOL     OW78277  10.246   1.349   7.942 -0.2029 -0.3511  0.4310
57140SOL    HW178278  10.297   1.294   8.003  0.1358 -0.7648 -0.2138
57140SOL    HW278279  10.284   1.331   7.856  0.3649  1.4366  0.2879
57141SOL     OW78280   8.414   6.093  10.548  0.0977 -0.3860 -0.5246
57141SOL    HW178281   8.449   6.177  10.517  2.2513  0.2385  3.0920
57141SOL    HW278282   8.490   6.041  10.571 -1.2561 -1.6403  1.4081
57142SOL     OW78283  11.645   3.645   6.398  0.4847 -0.0214 -0.3860
57142SOL    HW178284  11.609   3.683   6.477  0.5415  0.8882 -0.7892
57142SOL    HW278285  11.589   3.569   6.380 -0.8559  1.0004 -0.6552
57143SOL     OW78286   0.206  12.445   0.364 -0.4236  0.2662 -0.0915
57143SOL    HW178287   0.280  12.490   0.324  1.0148  0.5177  2.5679
57143SOL    HW278288   0.178  12.503   0.435 -1.8015 -0.7652  0.2538
57144SOL     OW78289   4.532   3.564   9.867 -0.0744  0.0574  0.2276
57144SOL    HW178290   4.561   3.499   9.804  0.4817  0.5228  0.0041
57144SOL    HW278291   4.447   3.530   9.898  0.3417 -0.9229  0.3392
57145SOL     OW78292   8.471  10.507   0.589  0.2742  0.1876  0.8179
57145SOL    HW178293   8.433  10.527   0.674 -1.3733  2.1423 -0.2800
57145SOL    HW278294   8.417  10.435   0.555 -0.3488  0.7351  0.6299
57146SOL     OW78295   4.501  11.479   4.225  0.0956  0.3820  0.1079
57146SOL    HW178296   4.528  11.485   4.133  1.0318 -0.6340  0.2863
57146SOL    HW278297   4.426  11.536   4.232  0.6406  1.2858 -1.0642
57147SOL     OW78298   3.146   8.168   8.122  0.1086 -0.4240 -0.0874
57147SOL    HW178299   3.159   8.202   8.034 -0.4745  0.2945  0.0868
57147SOL    HW278300   3.195   8.228   8.178  0.1385 -0.6326  0.1099
57148SOL     OW78301   6.285   5.036   7.739 -0.2100  0.0449  0.7756
57148SOL    HW178302   6.233   5.018   7.817  0.0606  2.2320  1.5106
57148SOL    HW278303   6.221   5.039   7.668 -0.8043  0.5299  1.3236
57149SOL     OW78304   9.539   9.527   6.905 -0.3932  0.2264 -0.3460
57149SOL    HW178305   9.560   9.549   6.995  0.6818  1.4406 -0.8614
57149SOL    HW278306   9.448   9.555   6.893  0.0935  2.0085 -0.1955
57150SOL     OW78307   5.750   1.981  10.915  0.0040  0.5523  0.2110
57150SOL    HW178308   5.733   1.908  10.975  0.3234 -0.3299 -0.7387
57150SOL    HW278309   5.836   2.014  10.942  0.2292  0.0417  0.1256
57151SOL     OW78310   0.955   0.186   1.468 -0.8131 -0.1914  0.6281
57151SOL    HW178311   0.887   0.221   1.525 -2.0484  0.4829 -1.1715
57151SOL    HW278312   0.950   0.239   1.389 -0.5779 -2.3851 -0.9469
57152SOL     OW78313   3.203   6.555   8.059 -0.1042 -0.1633 -0.2517
57152SOL    HW178314   3.161   6.587   8.139 -0.6071 -0.0953 -0.5349
57152SOL    HW278315   3.233   6.634   8.015  2.0112 -0.3071  0.8363
57153SOL     OW78316   2.229   8.795   6.574 -0.1217 -0.0461 -0.3414
57153SOL    HW178317   2.261   8.838   6.494 -0.1015 -0.6802 -0.6824
57153SOL    HW278318   2.219   8.703   6.549  0.0057 -0.2742  0.4250
57154SOL     OW78319   9.869   9.665  12.499  0.0703 -0.4800  0.6907
57154SOL    HW178320   9.863   9.663  12.403  2.7021 -0.1239  0.4557
57154SOL    HW278321   9.778   9.662  12.528 -0.7836 -3.0337 -1.7619
57155SOL     OW78322  12.469   2.595   7.383  0.0917 -0.0348  0.0478
57155SOL    HW178323  12.473   2.573   7.476  0.8336 -0.0101  0.0312
57155SOL    HW278324  12.404   2.535   7.347  0.1392 -0.3671  0.4992
57156SOL     OW78325  12.412   2.477   9.587 -0.4614 -0.3787 -0.4044
57156SOL    HW178326  12.360   2.509   9.661  1.7659 -0.8762  1.5114
57156SOL    HW278327  12.449   2.556   9.548 -0.9095 -0.1623 -0.3942
57157SOL     OW78328   7.542   7.367   4.771 -1.1489  0.0504  0.4242
57157SOL    HW178329   7.576   7.309   4.704 -0.5826  1.2440 -0.3667
57157SOL    HW278330   7.618   7.420   4.797 -1.8903  1.2441  0.2339
57158SOL     OW78331  11.791   2.052   8.680  0.3868 -0.0028  0.1377
57158SOL    HW178332  11.761   1.976   8.730  1.1737  0.0239  0.6643
57158SOL    HW278333  11.853   2.016   8.617 -1.4897 -0.2190 -1.6957
57159SOL     OW78334   7.917  10.646   0.043 -0.1402 -0.4020  0.1500
57159SOL    HW178335   7.869  10.571   0.008  0.9294 -1.7728  1.5151
57159SOL    HW278336   7.994  10.653  -0.012 -0.4755  0.0179 -0.2755
57160SOL     OW78337   8.114  12.196  12.116  0.1418 -0.0703 -0.3263
57160SOL    HW178338   8.154  12.199  12.029  0.6613 -1.4235 -0.1596
57160SOL    HW278339   8.104  12.288  12.141  1.8842  0.3325 -0.9578
57161SOL     OW78340   9.206   4.852   1.472  0.0061  0.4939 -0.9557
57161SOL    HW178341   9.126   4.800   1.471 -1.1967  2.1264  1.3006
57161SOL    HW278342   9.182   4.934   1.428  0.3360  1.0690 -0.1007
57162SOL     OW78343   3.089   1.171  11.359  0.4091 -0.5255  0.0740
57162SOL    HW178344   3.019   1.150  11.421 -1.5355  0.9592 -1.4977
57162SOL    HW278345   3.159   1.109  11.381 -1.0056 -1.4816  2.3135
57163SOL     OW78346   2.075   0.639  11.992 -0.1723 -0.5166  0.4498
57163SOL    HW178347   2.156   0.629  12.042  0.0241  1.2677  0.5715
57163SOL    HW278348   2.070   0.733  11.974 -0.9926 -0.9198 -1.6533
57164SOL     OW78349   0.286   9.870   9.122  0.0703 -0.3891  0.6352
57164SOL    HW178350   0.240   9.913   9.050  2.4524  1.0564 -0.1497
57164SOL    HW278351   0.287   9.935   9.192 -2.7763 -2.0019  2.3880
57165SOL     OW78352   5.831   3.789  11.154 -0.0111  0.7002  0.0163
57165SOL    HW178353   5.900   3.817  11.214 -0.1309  0.4194  0.2807
57165SOL    HW278354   5.834   3.855  11.084 -0.0472  1.1777  0.4540
57166SOL     OW78355   2.444   2.694   1.325  0.1146  0.0600 -0.4683
57166SOL    HW178356   2.509   2.623   1.328 -1.1111 -1.0597  1.1397
57166SOL    HW278357   2.457   2.742   1.407 -1.1725 -0.3083 -0.0171
57167SOL     OW78358   8.974   8.196   4.654 -0.2121 -0.1108  0.2142
57167SOL    HW178359   8.953   8.180   4.746 -0.8446 -3.0936 -0.3368
57167SOL    HW278360   9.067   8.221   4.655 -0.2807  0.1861  1.6742
57168SOL     OW78361  12.268   6.114   9.360 -0.1221  0.7685  0.4260
57168SOL    HW178362  12.327   6.180   9.324 -0.2335  1.1066  0.8550
57168SOL    HW278363  12.180   6.148   9.342 -0.1831  0.4347  0.0945
57169SOL     OW78364  11.766  10.629   4.350 -0.5411 -1.0299 -0.7585
57169SOL    HW178365  11.825  10.644   4.423 -0.9677 -0.4037 -0.5293
57169SOL    HW278366  11.679  10.622   4.390 -0.6217 -1.9447 -1.0878
57170SOL     OW78367   5.608   8.952   9.930  0.2226  0.7869 -0.1249
57170SOL    HW178368   5.563   9.035   9.915  0.6947  0.9752 -0.4878
57170SOL    HW278369   5.543   8.898   9.975 -1.7860 -0.2718 -3.8299
57171SOL     OW78370   5.623   5.901  11.039 -0.6239  0.4292  0.1969
57171SOL    HW178371   5.611   5.873  10.948  0.8468 -2.6721  0.8211
57171SOL    HW278372   5.624   5.819  11.089  1.4895  1.8107  2.6320
57172SOL     OW78373   7.084   3.918   9.703 -0.3608 -0.2180 -0.0126
57172SOL    HW178374   7.128   4.002   9.716  2.3380 -1.6437  0.9600
57172SOL    HW278375   7.037   3.928   9.621  1.6312  1.5963 -1.0525
57173SOL     OW78376   3.113   0.962   0.729  0.3450 -0.3071 -0.3159
57173SOL    HW178377   3.044   0.980   0.793 -0.5344 -0.0042 -1.3195
57173SOL    HW278378   3.183   0.922   0.780  0.6467  2.0516  1.2591
57174SOL     OW78379  11.917   9.510   0.312 -0.6560  0.0580  0.0207
57174SOL    HW178380  11.980   9.439   0.321 -0.8972 -0.0297  1.2124
57174SOL    HW278381  11.954   9.568   0.246 -0.2074 -0.9059 -0.5913
57175SOL     OW78382   8.043  12.001  10.630  0.3320  0.2352 -1.2951
57175SOL    HW178383   8.000  11.954  10.558 -0.8381 -0.4730 -0.1914
57175SOL    HW278384   7.999  12.086  10.632  0.0070  0.0685 -1.1244
57176SOL     OW78385   2.809   3.641   0.076  0.2219  0.9220  0.3278
57176SOL    HW178386   2.813   3.625  -0.018  1.6097  3.0129 -0.0299
57176SOL    HW278387   2.900   3.650   0.103 -0.0762 -0.8449  2.1611
57177SOL     OW78388   7.474   1.436   2.808  0.4150 -0.3331  0.1447
57177SOL    HW178389   7.481   1.508   2.745  0.2769 -0.3564  0.1031
57177SOL    HW278390   7.525   1.466   2.883 -0.7878  0.4134  0.6850
57178SOL     OW78391   4.439   7.131   5.279  0.0100 -0.0335  0.2498
57178SOL    HW178392   4.375   7.095   5.217  1.2931 -0.8467 -0.6443
57178SOL    HW278393   4.457   7.059   5.339  1.7108 -0.5651 -0.8392
57179SOL     OW78394   0.207  12.070   4.579  0.0370  0.0081  0.0402
57179SOL    HW178395   0.160  12.125   4.516  0.6114 -1.1041 -1.4172
57179SOL    HW278396   0.296  12.065   4.544  1.1786  1.6563  2.4741
57180SOL     OW78397  11.798   8.965   2.048 -0.7761 -0.4220  0.1782
57180SOL    HW178398  11.836   9.039   2.096  0.0693  0.0345 -1.1354
57180SOL    HW278399  11.742   9.006   1.982 -1.1500 -1.0026  0.1326
57181SOL     OW78400   1.554   0.604   6.701  0.7577  0.3202  0.2496
57181SOL    HW178401   1.502   0.600   6.621  1.1149  1.9017 -0.0964
57181SOL    HW278402   1.539   0.519   6.744 -1.5148  0.4241 -0.1905
57182SOL     OW78403   3.781   9.242   0.510  0.1480  0.3303 -0.0471
57182SOL    HW178404   3.794   9.266   0.601  3.5066 -0.6968 -0.1178
57182SOL    HW278405   3.702   9.188   0.510  0.5081 -0.3240  2.4020
57183SOL     OW78406   7.160   7.718   6.843 -0.2800 -0.1460  0.3017
57183SOL    HW178407   7.176   7.631   6.806 -1.3662 -0.4423  0.4918
57183SOL    HW278408   7.220   7.723   6.917  0.8610 -0.1289 -0.6017
57184SOL     OW78409   2.303   0.831   8.321 -0.1447  0.4765  0.2125
57184SOL    HW178410   2.276   0.758   8.265  0.3198  0.0587  0.5281
57184SOL    HW278411   2.393   0.811   8.346 -1.1401 -0.7667  3.2886
57185SOL     OW78412   9.396   9.113   0.740  1.0233 -0.0816 -0.1621
57185SOL    HW178413   9.309   9.153   0.736  0.8006 -0.2044  2.2484
57185SOL    HW278414   9.455   9.185   0.759  1.0646 -0.3990  0.9440
57186SOL     OW78415  12.435   1.904   9.279 -0.0286  0.3668 -0.0990
57186SOL    HW178416  12.423   1.922   9.372  1.8129  0.8795  0.0812
57186SOL    HW278417  12.437   1.809   9.273  1.4888  0.3224  0.6657
57187SOL     OW78418   6.666   6.408   5.888 -0.2889 -0.2147  0.1622
57187SOL    HW178419   6.667   6.450   5.974 -1.5970 -1.3768  0.7955
57187SOL    HW278420   6.665   6.481   5.826  2.0655  0.6554  1.0435
57188SOL     OW78421   5.691   3.623   1.405 -0.4322  0.9467  0.0382
57188SOL    HW178422   5.740   3.676   1.342  0.6757 -1.4560 -1.2455
57188SOL    HW278423   5.620   3.583   1.353 -0.7759  0.5603  0.7920
57189SOL     OW78424   6.776  12.220   7.199  0.0215  0.7469 -0.6505
57189SOL    HW178425   6.870  12.227   7.187  0.2682 -1.9725 -0.9143
57189SOL    HW278426   6.756  12.278   7.272  2.2371 -0.1197  0.7344
57190SOL     OW78427   3.173   6.963   5.808 -0.0043  0.3300 -0.0323
57190SOL    HW178428   3.158   6.945   5.901 -0.0008 -0.3619 -0.1645
57190SOL    HW278429   3.262   6.933   5.791 -0.1978 -0.0505 -0.3859
57191SOL     OW78430   7.355   4.353   4.141  0.0402  0.3726 -0.0644
57191SOL    HW178431   7.429   4.383   4.088  0.4957 -1.2571 -0.4061
57191SOL    HW278432   7.393   4.343   4.229  0.4633 -1.1816 -0.3929
57192SOL     OW78433   8.625   9.852  11.644 -0.3992  0.1797  0.8052
57192SOL    HW178434   8.635   9.860  11.550 -0.8737 -0.9534  0.6408
57192SOL    HW278435   8.537   9.815  11.656 -0.3974  0.4343  1.6926
57193SOL     OW78436   2.766  11.614   3.384 -0.1725  0.0699 -0.0723
57193SOL    HW178437   2.764  11.692   3.440 -2.0809 -0.9059  1.3414
57193SOL    HW278438   2.821  11.639   3.310 -0.3256  2.5951  0.5637
57194SOL     OW78439   5.438   8.539   4.215  0.3864  0.1117  0.1283
57194SOL    HW178440   5.457   8.510   4.126 -1.3656 -0.4734 -0.0931
57194SOL    HW278441   5.426   8.634   4.207 -0.9720 -0.0890 -0.5253
57195SOL     OW78442   6.129  11.985   8.547 -0.6239  0.2379  0.2105
57195SOL    HW178443   6.113  11.906   8.599 -0.1743 -0.9491 -1.3801
57195SOL    HW278444   6.071  11.977   8.472  0.4833  0.6653 -0.7236
57196SOL     OW78445   3.838   5.754  10.670 -0.6126 -0.3797  0.4211
57196SOL    HW178446   3.845   5.849  10.669  3.0390 -0.5067 -1.0841
57196SOL    HW278447   3.907   5.726  10.730  0.0250 -2.0945 -1.0470
57197SOL     OW78448   9.131   6.820   3.547  0.4002  0.0442 -0.9231
57197SOL    HW178449   9.098   6.847   3.462  1.1307 -0.4766 -1.3895
57197SOL    HW278450   9.222   6.850   3.549  0.7070 -0.8425 -0.7626
57198SOL     OW78451   8.606  11.026   3.582 -0.2866 -0.2539 -0.4082
57198SOL    HW178452   8.635  11.113   3.555  0.6980  0.0666  1.4902
57198SOL    HW278453   8.567  11.040   3.669 -2.5609 -1.3345 -1.1626
57199SOL     OW78454   5.178   5.213   7.415 -0.0219 -0.0122  0.3090
57199SOL    HW178455   5.119   5.151   7.457 -1.6666  0.3485 -1.3527
57199SOL    HW278456   5.231   5.159   7.357 -1.4726  0.0780 -1.1590
57200SOL     OW78457   7.205   2.228  10.566 -0.3327  1.0008  0.2018
57200SOL    HW178458   7.261   2.304  10.579 -1.0882  1.4801  0.8011
57200SOL    HW278459   7.138   2.258  10.505  0.0145  0.4580 -0.4529
57201SOL     OW78460   5.626   6.930  11.523 -0.0784  0.4751  0.2721
57201SOL    HW178461   5.705   6.954  11.571 -0.2893  2.0240 -0.1157
57201SOL    HW278462   5.580   6.869  11.581 -0.4077  2.4144  2.1763
57202SOL     OW78463   6.303   5.418  12.516  0.2275  0.1999 -0.0649
57202SOL    HW178464   6.324   5.405  12.424  0.6028 -2.5285  0.3168
57202SOL    HW278465   6.207   5.415  12.519  0.2298 -0.2662 -0.3234
57203SOL     OW78466   6.578  12.188   6.441 -0.3514 -0.4392 -0.4255
57203SOL    HW178467   6.598  12.137   6.519 -2.4330 -0.7994 -0.0637
57203SOL    HW278468   6.624  12.143   6.370 -0.4670 -1.6005  0.2155
57204SOL     OW78469   8.291   1.007   1.022 -0.4499 -0.1941 -0.3606
57204SOL    HW178470   8.299   1.099   1.047  0.6686  0.1942 -2.0026
57204SOL    HW278471   8.229   1.006   0.950  0.5964 -0.5246 -1.2791
57205SOL     OW78472   3.268   5.559   1.301  0.9885  0.1351  0.0937
57205SOL    HW178473   3.252   5.616   1.226  0.6682  1.1008  0.8747
57205SOL    HW278474   3.300   5.617   1.369 -0.9745 -0.3069  1.4831
57206SOL     OW78475   4.942   7.308   6.368 -0.2042 -0.3574  0.4141
57206SOL    HW178476   4.905   7.340   6.286  0.4761 -0.5512  0.0241
57206SOL    HW278477   4.907   7.219   6.378 -1.1961  0.0791  0.9236
57207SOL     OW78478  10.178   3.635   7.505  0.2729  0.2132 -0.1318
57207SOL    HW178479  10.159   3.714   7.556  2.1588  0.7398 -0.1806
57207SOL    HW278480  10.269   3.614   7.526  0.1086 -1.4034 -0.8728
57208SOL     OW78481   9.280   5.431   9.398 -0.8324  0.1831  0.3397
57208SOL    HW178482   9.218   5.412   9.468 -1.9574 -1.5720 -1.0421
57208SOL    HW278483   9.345   5.361   9.403 -0.8166  0.1483 -0.2410
57209SOL     OW78484   9.064   0.812   8.237 -0.2626 -0.6757 -0.0515
57209SOL    HW178485   9.031   0.835   8.323 -1.8928 -1.5126 -0.4172
57209SOL    HW278486   9.114   0.732   8.251  0.3226 -0.2661  0.2537
57210SOL     OW78487  11.610   5.066   8.442  0.0438  0.1982  0.6954
57210SOL    HW178488  11.661   5.131   8.393 -1.2207  1.5671  1.1269
57210SOL    HW278489  11.673   5.029   8.504  1.2484 -0.3609 -0.7772
57211SOL     OW78490   6.457   7.312   4.893 -0.5601 -0.4700  0.3940
57211SOL    HW178491   6.539   7.343   4.931 -0.8181  1.4661 -0.5238
57211SOL    HW278492   6.483   7.267   4.813 -0.3824  0.4816 -0.1024
57212SOL     OW78493  10.265   5.096  11.525  0.3011  0.1115 -0.1409
57212SOL    HW178494  10.298   5.084  11.614 -2.3043  2.2034  1.2709
57212SOL    HW278495  10.340   5.126  11.475  1.4530  0.6235  1.7993
57213SOL     OW78496   1.992   3.406   4.155 -0.1200 -0.4007  0.1547
57213SOL    HW178497   2.063   3.470   4.147 -1.0533  0.6140 -0.3126
57213SOL    HW278498   1.984   3.368   4.067 -1.0286  0.4857 -0.1739
57214SOL     OW78499  10.765   0.279  12.378 -0.1471 -0.0907 -0.2955
57214SOL    HW178500  10.860   0.279  12.364 -0.0612  0.0750  0.2508
57214SOL    HW278501  10.733   0.207  12.324  0.3257 -0.3309 -0.2627
57215SOL     OW78502   7.269   4.366   0.475 -0.5181 -0.0688  0.1620
57215SOL    HW178503   7.280   4.361   0.570  0.6227 -0.2268  0.0383
57215SOL    HW278504   7.260   4.275   0.446 -0.8046 -0.0249  0.1042
57216SOL     OW78505   8.507   2.141  11.159 -0.0547 -0.2602  0.1718
57216SOL    HW178506   8.479   2.050  11.170 -0.8228 -0.1133 -0.5634
57216SOL    HW278507   8.577   2.137  11.094 -0.5187 -0.2501 -0.3273
57217SOL     OW78508   7.628  10.390   8.833  0.1932 -0.0128  0.3699
57217SOL    HW178509   7.655  10.317   8.888 -1.5380 -0.7078  0.3662
57217SOL    HW278510   7.534  10.378   8.822  0.0296  1.6968 -0.4221
57218SOL     OW78511   7.943   4.109   4.882  0.4550  0.2055 -0.2861
57218SOL    HW178512   7.924   4.200   4.907  0.1507  0.7238 -2.2835
57218SOL    HW278513   8.028   4.114   4.839  0.9563 -0.6610  0.5778
57219SOL     OW78514   8.315   5.281   2.238 -0.0334 -0.1551  0.0269
57219SOL    HW178515   8.249   5.221   2.272  1.4461 -1.6133  0.4834
57219SOL    HW278516   8.281   5.308   2.152 -0.3084 -2.4874 -0.6655
57220SOL     OW78517   2.879   3.902  10.149 -0.5445  0.5011  0.3277
57220SOL    HW178518   2.823   3.949  10.087 -1.6355 -1.4852 -0.3009
57220SOL    HW278519   2.909   3.825  10.101  0.3780  0.0320  1.5841
57221SOL     OW78520   3.791   5.025   8.281 -0.1801 -0.1946  0.2564
57221SOL    HW178521   3.751   4.952   8.235 -1.2445  1.6907 -2.0621
57221SOL    HW278522   3.717   5.076   8.314  0.4879  0.4193  0.8439
57222SOL     OW78523   0.784   0.439  11.967  0.3860 -0.2582  0.0021
57222SOL    HW178524   0.770   0.474  12.055  2.9516 -0.3784  0.5217
57222SOL    HW278525   0.795   0.516  11.912  1.2724 -0.1798  0.2731
57223SOL     OW78526   9.113   8.867   9.323  1.0269  0.0644  0.4366
57223SOL    HW178527   9.099   8.778   9.355  0.0745  0.6932  1.8590
57223SOL    HW278528   9.029   8.891   9.283  0.9189  0.7094  1.0479
57224SOL     OW78529   4.633   9.953   9.003 -0.4584  0.3308  0.1653
57224SOL    HW178530   4.667   9.877   9.049 -0.5862 -0.4563 -1.0088
57224SOL    HW278531   4.627  10.021   9.070 -0.5298 -0.7423  1.2712
57225SOL     OW78532   6.880   7.940   0.192 -0.0189  0.0650  0.3780
57225SOL    HW178533   6.930   8.002   0.246  1.0159  2.1206 -2.6732
57225SOL    HW278534   6.789   7.960   0.212  0.1698 -1.6648  3.7843
57226SOL     OW78535   7.838   8.380  12.534  0.1220 -0.2820 -0.4210
57226SOL    HW178536   7.793   8.451  12.488  0.2177 -0.6778 -1.1451
57226SOL    HW278537   7.788   8.369  12.615 -0.2970  0.1639 -0.6102
57227SOL     OW78538  12.062   0.712  10.043  0.0818 -0.0759  0.0730
57227SOL    HW178539  12.103   0.625  10.042  0.4226  0.0613  0.8413
57227SOL    HW278540  12.089   0.749  10.127 -2.4424 -0.3492  1.0638
57228SOL     OW78541   4.462  11.714  11.946  0.5412  0.1743  0.3235
57228SOL    HW178542   4.447  11.730  11.853  2.4186  0.1277 -0.0189
57228SOL    HW278543   4.459  11.801  11.986  1.2580  0.3701 -0.0335
57229SOL     OW78544   8.155   1.762   4.649  0.3206  0.3923 -0.0587
57229SOL    HW178545   8.110   1.820   4.588  1.3616  0.4738 -0.7699
57229SOL    HW278546   8.167   1.680   4.601 -1.3859 -0.5505  1.0313
57230SOL     OW78547   6.878   6.530   7.379 -0.5270 -0.0771 -0.4775
57230SOL    HW178548   6.911   6.540   7.290 -0.9014  1.5037 -0.4716
57230SOL    HW278549   6.841   6.442   7.381  0.0258 -0.3554 -1.7020
57231SOL     OW78550   5.087   4.708   4.818  0.3364  0.1933 -0.1843
57231SOL    HW178551   5.092   4.623   4.773  1.5595  0.2662 -0.2092
57231SOL    HW278552   4.997   4.711   4.852  0.0876 -0.8474 -0.6935
57232SOL     OW78553   1.528   6.017   2.352 -0.4049 -0.4581 -0.3749
57232SOL    HW178554   1.433   6.025   2.351 -0.5810 -2.1896 -1.1087
57232SOL    HW278555   1.544   5.930   2.391  0.8877 -0.0623  0.0339
57233SOL     OW78556   8.995   0.621   1.461 -0.3912  0.3751 -0.3286
57233SOL    HW178557   8.984   0.571   1.380  1.1350  3.1298 -2.4306
57233SOL    HW278558   8.907   0.651   1.483 -0.7261  0.3927 -1.5839
57234SOL     OW78559   6.453   6.067   1.326 -0.3278  0.2395  0.1512
57234SOL    HW178560   6.463   6.159   1.301  0.0550  0.5850  1.5139
57234SOL    HW278561   6.378   6.037   1.274  0.5157  0.8545 -1.4982
57235SOL     OW78562   8.173  12.054   1.769  0.4432 -0.2327 -0.4332
57235SOL    HW178563   8.114  12.009   1.708  0.2782 -0.2875 -0.2324
57235SOL    HW278564   8.122  12.063   1.849  2.1360 -4.3967  1.4028
57236SOL     OW78565   0.659   7.703   7.064  0.4852  0.2969  0.0051
57236SOL    HW178566   0.637   7.753   7.143 -0.1536 -0.8719  0.5976
57236SOL    HW278567   0.751   7.722   7.048  0.5331  0.8222  0.8371
57237SOL     OW78568   2.382  10.241   4.147 -0.4738  0.0137  0.4244
57237SOL    HW178569   2.420  10.328   4.158 -1.2986  0.2834  1.2798
57237SOL    HW278570   2.289  10.252   4.165 -1.0378 -0.5999 -1.8593
57238SOL     OW78571   1.146  12.473  10.244  0.2469 -0.1310  0.0099
57238SOL    HW178572   1.238  12.446  10.247 -0.2449 -2.0769 -0.7548
57238SOL    HW278573   1.145  12.550  10.187  1.4543  0.3096  0.5399
57239SOL     OW78574   4.932   1.111   3.127  0.0972 -0.0558  0.4542
57239SOL    HW178575   4.928   1.019   3.101 -1.7303 -0.4694  1.9661
57239SOL    HW278576   4.844   1.130   3.160  0.5193  2.1602  0.4323
57240SOL     OW78577   1.191   9.916   3.658  0.1836 -0.2923 -0.4955
57240SOL    HW178578   1.150   9.929   3.572 -0.5758 -0.0014 -0.1017
57240SOL    HW278579   1.284   9.930   3.643 -0.0855  1.1233 -1.0053
57241SOL     OW78580   0.810  12.401   4.276 -0.0452 -0.4312 -0.1566
57241SOL    HW178581   0.874  12.432   4.340 -0.5018 -2.8190  1.5931
57241SOL    HW278582   0.862  12.367   4.203  0.6305 -0.6701  0.4265
57242SOL     OW78583   8.438   8.138   3.649  0.0644  0.0999  0.3925
57242SOL    HW178584   8.365   8.156   3.590 -0.9699 -1.1063  1.2485
57242SOL    HW278585   8.493   8.217   3.644  0.2359 -0.0751 -2.4196
57243SOL     OW78586   2.766   9.626  10.029 -0.3589  0.4116 -0.1562
57243SOL    HW178587   2.802   9.537  10.040  0.0183  0.5344 -0.3762
57243SOL    HW278588   2.783   9.648   9.938 -0.5722  0.6618 -0.1365
57244SOL     OW78589   2.222   1.016   7.299  0.5579  0.2866  0.2281
57244SOL    HW178590   2.148   0.999   7.241 -0.5451  0.4555  1.5130
57244SOL    HW278591   2.247   1.106   7.281  0.5662  0.1771 -0.3316
57245SOL     OW78592  11.833   3.415   8.451 -0.0632 -0.1009 -0.6481
57245SOL    HW178593  11.852   3.497   8.405 -0.9808 -1.0030 -2.7847
57245SOL    HW278594  11.745   3.391   8.422  0.2959 -1.9887 -0.3244
57246SOL     OW78595  10.091  11.207  11.917  0.4807 -0.2470  0.1378
57246SOL    HW178596  10.154  11.168  11.856  0.7852 -2.4071  1.7425
57246SOL    HW278597  10.136  11.284  11.952  0.3538  0.9768 -2.1425
57247SOL     OW78598  12.272   4.472  12.097 -0.1450 -0.0836 -0.6931
57247SOL    HW178599  12.289   4.567  12.102 -0.1076  0.0091 -2.1557
57247SOL    HW278600  12.357   4.432  12.114 -0.4170  0.0813  1.2347
57248SOL     OW78601   7.914   2.641   6.478 -0.1389 -0.3287 -0.2720
57248SOL    HW178602   7.877   2.612   6.395  0.9730  0.2177 -0.9769
57248SOL    HW278603   8.009   2.633   6.466  0.0370 -0.1096  0.8968
57249SOL     OW78604   9.186   1.617   1.780 -0.1300 -0.5105 -0.0685
57249SOL    HW178605   9.148   1.663   1.705  0.4038 -0.0154 -0.0480
57249SOL    HW278606   9.280   1.639   1.776 -0.3722  1.1381  1.8384
57250SOL     OW78607   4.789   6.769  10.511 -0.1092 -0.6442  0.2912
57250SOL    HW178608   4.819   6.735  10.427 -1.3302  0.2045 -0.5282
57250SOL    HW278609   4.797   6.864  10.502  1.7107 -0.5798  1.9240
57251SOL     OW78610  10.902   0.658   2.188  0.8052  0.5035  0.0165
57251SOL    HW178611  10.904   0.706   2.272 -1.5416  0.4086  0.1722
57251SOL    HW278612  10.836   0.590   2.201 -0.4058  1.1688 -2.2490
57252SOL     OW78613  10.822   8.027   1.865 -0.2546 -0.3542  0.5361
57252SOL    HW178614  10.776   8.039   1.782  1.8450  1.2273 -0.5202
57252SOL    HW278615  10.888   7.960   1.847 -1.1596 -1.5880  1.6102
57253SOL     OW78616  11.984   0.606  10.369  0.1310 -0.1415 -0.3162
57253SOL    HW178617  12.032   0.686  10.345  0.5153 -0.8802 -2.1581
57253SOL    HW278618  11.893   0.626  10.349 -0.0354  0.4265  0.9146
57254SOL     OW78619  11.885   1.973  10.660  0.0372 -0.1532 -0.2237
57254SOL    HW178620  11.969   1.977  10.613  1.6529 -4.0179  1.8010
57254SOL    HW278621  11.831   1.916  10.606  0.3941 -1.2353  0.5233
57255SOL     OW78622   3.862   5.047   8.647  0.6366 -0.3950  0.0535
57255SOL    HW178623   3.836   5.102   8.573  2.7426  1.1687  0.3632
57255SOL    HW278624   3.957   5.059   8.654  0.7172 -1.6477  2.1037
57256SOL     OW78625   0.551   6.022   6.454  0.2514  0.1326 -0.7189
57256SOL    HW178626   0.588   5.942   6.491 -1.4413 -0.3890 -0.0334
57256SOL    HW278627   0.626   6.080   6.442  1.0350  0.2338  3.2542
57257SOL     OW78628   0.355   5.563   2.396  0.1167  0.0745  0.2589
57257SOL    HW178629   0.447   5.575   2.374  0.0016  1.6138  0.4558
57257SOL    HW278630   0.355   5.539   2.489  0.2933  1.6519  0.7038
57258SOL     OW78631   4.907   0.805  10.441  0.1377 -0.1099 -0.8689
57258SOL    HW178632   4.970   0.800  10.369 -0.6303  1.5559 -1.7095
57258SOL    HW278633   4.896   0.898  10.456 -0.8062 -0.4184  0.4686
57259SOL     OW78634   0.867  12.549   2.649  0.7884  0.8747 -0.1907
57259SOL    HW178635   0.890  12.622   2.706  0.7873  1.0310 -0.3898
57259SOL    HW278636   0.797  12.503   2.695  1.5744  0.3286  0.4850
57260SOL     OW78637   9.018  10.791   4.929  0.0574 -0.3681  0.5378
57260SOL    HW178638   8.925  10.772   4.917 -0.4600  0.8628  2.1576
57260SOL    HW278639   9.020  10.882   4.959  1.9491  0.3176 -1.4360
57261SOL     OW78640   5.659   3.817   8.798  0.5915 -0.1697 -0.1982
57261SOL    HW178641   5.751   3.795   8.789  0.7806  0.1296  0.9349
57261SOL    HW278642   5.650   3.904   8.758  0.2647 -1.2513 -2.6757
57262SOL     OW78643   2.136   4.323   2.667 -0.1924  0.0446 -0.1544
57262SOL    HW178644   2.225   4.287   2.666 -0.2334 -0.4883  3.1432
57262SOL    HW278645   2.141   4.397   2.728 -1.3021  2.4106 -2.7360
57263SOL     OW78646   8.828   4.729   8.155  0.4451 -0.2103 -0.0071
57263SOL    HW178647   8.913   4.688   8.169  0.7829  0.7098  0.6840
57263SOL    HW278648   8.780   4.666   8.101  0.3078 -2.3719  2.4324
57264SOL     OW78649   5.381   3.926   2.624  0.4362  0.3749  0.7730
57264SOL    HW178650   5.380   3.918   2.719  1.1279 -0.5965  0.7140
57264SOL    HW278651   5.427   3.848   2.594 -1.4582 -0.3247 -0.4690
57265SOL     OW78652   9.203   6.144  12.566  0.5995 -0.0587 -0.2764
57265SOL    HW178653   9.226   6.236  12.568 -1.5969  0.5871 -1.1773
57265SOL    HW278654   9.246   6.109  12.488  2.1418 -0.0697  0.5302
57266SOL     OW78655   5.112  10.935   6.296 -0.3920  0.3307  0.4347
57266SOL    HW178656   5.091  11.014   6.246  0.0744  0.3017  0.1911
57266SOL    HW278657   5.068  10.864   6.250  1.8699 -0.0560 -1.3029
57267SOL     OW78658   3.722   0.411  10.829  0.1262  0.3084 -0.0061
57267SOL    HW178659   3.673   0.425  10.910  1.0645 -1.5545  0.9511
57267SOL    HW278660   3.809   0.445  10.847  0.6634 -1.0961  0.2278
57268SOL     OW78661   9.832   8.058   1.746  0.4156 -0.3421 -0.0517
57268SOL    HW178662   9.856   8.013   1.827  0.5272 -0.0407  0.0863
57268SOL    HW278663   9.897   8.028   1.682  0.2275 -0.7073 -0.0757
57269SOL     OW78664  12.267  12.449   0.989 -0.4821 -0.0275  0.2832
57269SOL    HW178665  12.280  12.354   0.980 -0.9727 -0.0554 -0.2345
57269SOL    HW278666  12.263  12.463   1.083  2.0319 -0.1540  0.4695
57270SOL     OW78667   3.002  12.286  10.350  0.3064  0.3421  0.1443
57270SOL    HW178668   3.020  12.272  10.257  0.8219 -0.4479  0.3551
57270SOL    HW278669   3.029  12.205  10.393  2.4232  1.5296  1.2913
57271SOL     OW78670  11.293   1.838  12.362 -0.3100 -0.4847 -0.3276
57271SOL    HW178671  11.322   1.926  12.388 -0.6680  0.1414 -1.9390
57271SOL    HW278672  11.354   1.812  12.293  0.3216 -1.8911  0.7224
57272SOL     OW78673   2.787   9.022   7.751  0.1643 -0.3602  0.3403
57272SOL    HW178674   2.770   8.972   7.831  1.5456 -0.1044  0.8285
57272SOL    HW278675   2.881   9.010   7.736  0.4557  1.7261  0.2460
57273SOL     OW78676   0.058  11.089   2.466  0.2298 -0.1288 -0.0767
57273SOL    HW178677  -0.004  11.022   2.495  1.4859 -1.3156  0.0104
57273SOL    HW278678   0.129  11.085   2.530  1.2625 -0.1134 -1.1778
57274SOL     OW78679  11.319   2.343   4.117  0.0228  0.5865 -0.1288
57274SOL    HW178680  11.283   2.425   4.151 -2.3742 -0.0683 -0.8755
57274SOL    HW278681  11.314   2.352   4.022 -2.5374 -1.2084 -0.2869
57275SOL     OW78682   7.628   8.498   4.457  0.5311 -0.7887 -0.6906
57275SOL    HW178683   7.640   8.518   4.364 -2.6138  0.1911 -1.0160
57275SOL    HW278684   7.564   8.563   4.487  1.9362 -0.6395  2.3869
57276SOL     OW78685   0.366   7.047   4.513  0.1005 -0.0798  0.6155
57276SOL    HW178686   0.307   7.022   4.442  2.9403 -1.4063 -1.4836
57276SOL    HW278687   0.419   7.117   4.476  0.1469  0.8082  2.2850
57277SOL     OW78688   5.861   1.728   5.401 -0.2158  0.5083 -0.2741
57277SOL    HW178689   5.775   1.720   5.441 -0.0660  0.2872  0.0062
57277SOL    HW278690   5.919   1.755   5.472  0.5010 -2.0511  0.2402
57278SOL     OW78691   7.896  10.957   8.463  0.0087  0.6005 -0.3751
57278SOL    HW178692   7.990  10.966   8.444  0.1033  0.8697  0.1829
57278SOL    HW278693   7.891  10.956   8.559 -0.3262 -2.0289 -0.3525
57279SOL     OW78694   4.720   8.125  12.070  0.2436 -0.3009 -0.3360
57279SOL    HW178695   4.681   8.108  11.984 -0.8003  0.5817 -0.0590
57279SOL    HW278696   4.688   8.054  12.125 -2.6744  1.4030  0.3798
57280SOL     OW78697   7.039   0.345   6.128 -0.0353 -0.0979 -0.2600
57280SOL    HW178698   6.980   0.419   6.113  0.5828  0.7017  1.0097
57280SOL    HW278699   7.063   0.315   6.041 -1.9890 -0.2047 -0.8152
57281SOL     OW78700   1.785   9.043  10.641  0.0547 -0.3091  0.0763
57281SOL    HW178701   1.786   9.068  10.548 -0.0912  1.3563  0.4875
57281SOL    HW278702   1.720   8.973  10.646 -0.0533 -0.3060 -1.0564
57282SOL     OW78703   5.657   9.959   7.547  0.7351  0.1823  0.3074
57282SOL    HW178704   5.594   9.919   7.608 -1.4496  1.0567 -1.2218
57282SOL    HW278705   5.676  10.044   7.586  0.0044  0.3980  0.2212
57283SOL     OW78706   5.663   6.054  12.575  0.2358  0.4039  0.4359
57283SOL    HW178707   5.590   6.025  12.629 -1.0159  2.1307 -0.1956
57283SOL    HW278708   5.644   6.147  12.558  2.5135  0.8770  0.1064
57284SOL     OW78709   6.170  10.889   8.298  0.3410  0.6600  0.1364
57284SOL    HW178710   6.223  10.895   8.377  0.9454 -1.0975 -0.0964
57284SOL    HW278711   6.223  10.932   8.230 -0.5109  2.8656  0.7720
57285SOL     OW78712   9.977   0.968   3.169  0.0093  0.4999 -0.3203
57285SOL    HW178713   9.935   1.054   3.170 -0.3366  0.3649  2.4195
57285SOL    HW278714  10.024   0.962   3.252 -3.3502 -3.4984  1.6664
57286SOL     OW78715   0.995   6.472   5.688 -0.2548 -0.0421  0.2239
57286SOL    HW178716   1.078   6.483   5.735 -0.0224  1.2795 -0.4398
57286SOL    HW278717   0.970   6.382   5.705  0.0139  0.2743  2.5185
57287SOL     OW78718   2.102   7.356   6.091  0.2475  0.0423  0.5059
57287SOL    HW178719   2.191   7.388   6.104 -0.3221  1.2393  1.7505
57287SOL    HW278720   2.111   7.262   6.079  1.5894  0.0232  1.5032
57288SOL     OW78721   9.407   5.972   4.001 -0.1845  0.1528 -0.9811
57288SOL    HW178722   9.497   6.002   4.000 -0.3217  0.5770 -1.8038
57288SOL    HW278723   9.406   5.900   4.064  0.0856  2.0392  1.3229
57289SOL     OW78724  10.034   9.476   6.807 -0.0318  0.2159 -0.3205
57289SOL    HW178725   9.943   9.457   6.829 -0.4097  2.8846  0.6674
57289SOL    HW278726  10.084   9.407   6.850 -1.4681 -0.3910  0.4238
57290SOL     OW78727   7.281   9.073  10.376 -0.2351 -0.4633 -0.2818
57290SOL    HW178728   7.346   9.046  10.311  1.5652  1.0417  0.7985
57290SOL    HW278729   7.327   9.136  10.432 -2.5204  0.3950  0.7768
57291SOL     OW78730  12.517   8.546   2.394  0.4627 -0.1085 -0.3377
57291SOL    HW178731  12.475   8.516   2.313  0.2207  0.0544 -0.2716
57291SOL    HW278732  12.474   8.496   2.463 -0.5045  0.9402 -0.1423
57292SOL     OW78733   7.082   2.409  11.900 -0.0012 -0.3804 -0.1425
57292SOL    HW178734   7.005   2.369  11.859 -1.1985  1.1238  0.5420
57292SOL    HW278735   7.091   2.494  11.857  2.3484 -1.1761 -1.4047
57293SOL     OW78736   1.573   0.853   5.417 -0.8849 -0.5206  0.6985
57293SOL    HW178737   1.520   0.892   5.487  0.4398 -0.8807  1.9675
57293SOL    HW278738   1.545   0.761   5.415  0.6991 -1.1295  2.5056
57294SOL     OW78739   0.558   9.131   9.093 -0.3656 -0.6860  0.9585
57294SOL    HW178740   0.537   9.224   9.103 -0.5091 -0.7849  1.6337
57294SOL    HW278741   0.478   9.086   9.120 -0.5546 -1.0004 -0.0803
57295SOL     OW78742   6.677   3.465   5.052  0.1892 -0.2211 -0.0146
57295SOL    HW178743   6.583   3.452   5.046  0.1107 -0.2304  1.0200
57295SOL    HW278744   6.707   3.400   5.115  0.5577  1.1194  1.2680
57296SOL     OW78745   5.855   7.721  12.202  0.5359 -0.2669 -0.7293
57296SOL    HW178746   5.895   7.791  12.254  1.5150 -1.7609  0.6220
57296SOL    HW278747   5.774   7.700  12.248  0.7936 -0.7544 -0.4876
57297SOL     OW78748   9.816   7.820   4.786  0.3741 -0.4319 -0.1505
57297SOL    HW178749   9.844   7.796   4.698  1.9359 -0.2335  0.2618
57297SOL    HW278750   9.883   7.785   4.844  0.9232  1.8811  0.7341
57298SOL     OW78751  11.213   7.694   1.634  0.5243  0.4743 -0.0687
57298SOL    HW178752  11.137   7.637   1.626  0.2605  0.6461  1.0622
57298SOL    HW278753  11.280   7.652   1.580 -0.2164  0.0650 -0.6892
57299SOL     OW78754   5.613   5.636   4.230 -0.0300  0.3063  0.0826
57299SOL    HW178755   5.599   5.595   4.145  3.0438 -2.4298  0.6685
57299SOL    HW278756   5.552   5.592   4.289 -1.3944  1.4341 -0.4286
57300SOL     OW78757  10.535   1.319   3.161  0.0894  0.5744  0.1710
57300SOL    HW178758  10.595   1.304   3.088  0.4841  2.3999  0.0914
57300SOL    HW278759  10.481   1.393   3.133 -0.9875  0.1361  1.0012
57301SOL     OW78760  10.093  10.239   2.202 -0.3020 -0.0344  0.2102
57301SOL    HW178761  10.135  10.181   2.139  2.4804  1.7902  0.2335
57301SOL    HW278762  10.017  10.274   2.155 -2.2928 -3.6823  0.2857
57302SOL     OW78763   8.790   1.395  12.216 -0.0027 -0.1544  0.4880
57302SOL    HW178764   8.874   1.351  12.206 -0.3876 -0.9372  0.5844
57302SOL    HW278765   8.745   1.381  12.133 -1.0063 -1.8847  1.2704
57303SOL     OW78766   8.765  12.453   8.966 -0.0314 -0.1597 -0.0845
57303SOL    HW178767   8.744  12.412   8.881  0.6847  1.2039 -0.9415
57303SOL    HW278768   8.693  12.426   9.023 -0.2699 -1.5158 -0.9770
57304SOL     OW78769   1.603   6.554   8.589 -0.4009  0.0536 -0.3952
57304SOL    HW178770   1.645   6.476   8.551 -0.7842 -0.5799  0.4330
57304SOL    HW278771   1.674   6.601   8.633 -0.1541  0.2161 -0.9587
57305SOL     OW78772   8.653   9.441   1.619 -0.1462  0.2395 -0.0150
57305SOL    HW178773   8.725   9.504   1.620  1.6258 -1.6101  2.7089
57305SOL    HW278774   8.670   9.388   1.541  1.4293 -0.0542  0.4801
57306SOL     OW78775  10.439   8.817   5.312  0.1166 -0.3114  0.2935
57306SOL    HW178776  10.490   8.890   5.277 -2.0096  2.1125  1.8494
57306SOL    HW278777  10.368   8.805   5.249 -0.6744  0.3734  1.0395
57307SOL     OW78778   3.405   8.145  11.936 -0.2941 -0.6044  0.0453
57307SOL    HW178779   3.445   8.132  11.850 -0.4391 -0.1604 -0.0924
57307SOL    HW278780   3.400   8.058  11.974 -0.0418 -0.7772 -0.3149
57308SOL     OW78781   9.378   6.648  10.802  0.1074 -0.0381 -0.2343
57308SOL    HW178782   9.299   6.667  10.852  0.3148  0.5023 -0.1078
57308SOL    HW278783   9.413   6.568  10.841 -1.8533 -1.9333 -2.0406
57309SOL     OW78784   3.870   1.222   3.091  0.1033 -0.1812 -0.0400
57309SOL    HW178785   3.805   1.293   3.092 -0.3922 -0.6368  1.1077
57309SOL    HW278786   3.913   1.227   3.176  2.8656  1.2255 -1.3955
57310SOL     OW78787   5.941   0.655   1.045  0.3302 -0.6844 -0.3149
57310SOL    HW178788   6.024   0.621   1.077 -0.6301 -2.0399  0.9300
57310SOL    HW278789   5.893   0.577   1.015 -0.9595 -0.1334  0.2240
57311SOL     OW78790   1.416   6.443   8.408 -0.2895  0.9378  0.9263
57311SOL    HW178791   1.367   6.517   8.371  2.5235  1.4934 -2.1715
57311SOL    HW278792   1.483   6.484   8.463 -0.9365  0.4134  2.1379
57312SOL     OW78793   4.831   5.251   3.827 -0.0014  0.4025 -0.4611
57312SOL    HW178794   4.753   5.195   3.832  0.9547 -0.8735  0.9016
57312SOL    HW278795   4.904   5.193   3.850  1.2313  1.8487 -0.5526
57313SOL     OW78796   3.945   8.782   9.585  0.5016  0.2566 -0.0705
57313SOL    HW178797   3.930   8.783   9.680  0.6574  0.3120 -0.0456
57313SOL    HW278798   3.886   8.848   9.550  1.1238  0.9090  0.0906
57314SOL     OW78799   5.440   5.968   0.138  0.1775 -0.4319  0.7257
57314SOL    HW178800   5.474   5.908   0.204  0.1835 -0.1951  0.9388
57314SOL    HW278801   5.436   6.053   0.182  1.5438  0.0341  0.0211
57315SOL     OW78802   1.560   4.140   8.633 -0.0906  0.2006 -0.0798
57315SOL    HW178803   1.551   4.045   8.633 -0.8478  0.2484 -1.2636
57315SOL    HW278804   1.501   4.170   8.563 -0.3252  1.5857  0.6681
57316SOL     OW78805   7.022  11.692   7.723  0.0165  0.2147 -0.1863
57316SOL    HW178806   6.990  11.602   7.724  2.6596 -0.8300  1.7553
57316SOL    HW278807   7.015  11.719   7.631  1.0434 -2.7246 -1.2457
57317SOL     OW78808   9.008   7.019   2.042  0.4232 -0.1313  0.0059
57317SOL    HW178809   8.926   7.065   2.064 -0.3044 -0.6913 -1.4144
57317SOL    HW278810   8.981   6.952   1.980  2.0331 -0.1149 -0.7493
57318SOL     OW78811  10.644  11.222   2.765 -0.4860 -0.7028  0.3107
57318SOL    HW178812  10.640  11.312   2.732 -0.2576 -1.4129 -1.7718
57318SOL    HW278813  10.737  11.209   2.784 -0.5442 -0.4674  0.7913
57319SOL     OW78814  12.346   7.678   6.816 -0.0023  0.2064 -0.0390
57319SOL    HW178815  12.341   7.767   6.781  1.2531 -0.3469 -1.8151
57319SOL    HW278816  12.394   7.687   6.898  1.5726  1.0219 -1.0039
57320SOL     OW78817   0.246   9.708   9.748 -0.1270 -0.0118  0.1251
57320SOL    HW178818   0.231   9.681   9.839 -1.4132  1.4968  0.4184
57320SOL    HW278819   0.165   9.685   9.703 -0.2874  1.0379 -0.1596
57321SOL     OW78820  11.923   9.565  11.480  0.2398  0.1109 -0.3744
57321SOL    HW178821  11.917   9.626  11.407  0.6792 -0.6417 -1.0473
57321SOL    HW278822  12.003   9.591  11.526 -0.5333  1.1963  0.4349
57322SOL     OW78823   7.294   1.489   6.115 -0.1569  0.1290  0.1154
57322SOL    HW178824   7.208   1.460   6.143 -1.4544  1.7376 -1.9170
57322SOL    HW278825   7.291   1.486   6.019  2.8969 -2.0123 -0.0388
57323SOL     OW78826   4.820   9.794   7.377 -0.4541 -0.1389  0.2692
57323SOL    HW178827   4.810   9.761   7.288 -0.2506  0.0218  0.1864
57323SOL    HW278828   4.751   9.750   7.427 -1.5024  0.8493 -0.2622
57324SOL     OW78829   2.212   3.936   5.775  0.0589  0.1054 -0.9080
57324SOL    HW178830   2.159   3.874   5.724  0.1706 -0.5935 -0.1966
57324SOL    HW278831   2.284   3.883   5.809  0.2797  0.6789 -0.4708
57325SOL     OW78832   5.875   0.582  12.036  0.4487 -0.0509 -0.0791
57325SOL    HW178833   5.860   0.489  12.020  0.0412 -0.3772  1.9731
57325SOL    HW278834   5.958   0.586  12.083  0.8365  0.7077 -0.8000
57326SOL     OW78835   3.239   1.830   8.835  0.4214 -0.7995  0.1511
57326SOL    HW178836   3.183   1.800   8.907 -0.2290 -2.6311 -1.0420
57326SOL    HW278837   3.328   1.817   8.867  0.1492 -3.0782  0.1239
57327SOL     OW78838  12.499   7.323  11.808  0.4694 -0.2682  0.0478
57327SOL    HW178839  12.505   7.416  11.828  0.3529 -0.4149  0.7979
57327SOL    HW278840  12.447   7.319  11.728  0.3789  0.3042  0.0743
57328SOL     OW78841   1.170   8.216   9.025  0.6055  0.2383  0.0421
57328SOL    HW178842   1.238   8.262   9.076  0.5750  0.5437 -0.1907
57328SOL    HW278843   1.144   8.143   9.081 -0.5697  1.4669  1.1929
57329SOL     OW78844   3.011  11.976   0.887 -0.1350  0.0009 -0.0274
57329SOL    HW178845   2.987  11.883   0.886  0.1412 -0.0923  0.8232
57329SOL    HW278846   3.078  11.984   0.820  0.4370 -0.5970  0.4552
57330SOL     OW78847   4.038   6.615   9.867  0.0862  0.2025  0.4824
57330SOL    HW178848   3.970   6.671   9.828  0.6560  0.5831  0.0125
57330SOL    HW278849   4.101   6.602   9.796  0.0468 -0.9024  0.6419
57331SOL     OW78850  10.560   3.129   9.441 -0.3928  0.0040  0.1535
57331SOL    HW178851  10.506   3.073   9.496 -0.1598  0.3365  0.7351
57331SOL    HW278852  10.618   3.174   9.503  0.9416 -0.7532 -0.4941
57332SOL     OW78853  10.270   3.073   5.814 -0.4104  0.5156 -0.5673
57332SOL    HW178854  10.327   3.131   5.763 -0.1557 -0.5790 -1.5814
57332SOL    HW278855  10.260   3.117   5.898  2.4022  0.4832 -0.1256
57333SOL     OW78856   9.855   4.461  11.012  0.5384  0.5035 -0.7170
57333SOL    HW178857   9.930   4.447  11.070 -0.7909 -1.1655  0.7180
57333SOL    HW278858   9.874   4.408  10.934  2.2707  2.6445 -1.8438
57334SOL     OW78859   8.364   7.048   3.176 -0.4843 -0.1660  0.3036
57334SOL    HW178860   8.378   7.140   3.197 -1.2766  0.7953 -2.7683
57334SOL    HW278861   8.270   7.035   3.186 -0.4856 -0.3914  0.0294
57335SOL     OW78862   7.789  10.900   3.989  0.4111  0.3559  0.7662
57335SOL    HW178863   7.855  10.890   4.057  0.2699  1.7557  1.1366
57335SOL    HW278864   7.779  10.995   3.979  0.8050  0.2257 -1.5654
57336SOL     OW78865  10.362   0.903   0.570 -0.4755 -0.0105  0.4098
57336SOL    HW178866  10.384   0.954   0.492  2.9668  1.1104  1.9206
57336SOL    HW278867  10.425   0.830   0.569 -0.3561  0.0363  2.0960
57337SOL     OW78868  10.572   6.271  12.233  0.4522  0.3907 -0.3098
57337SOL    HW178869  10.479   6.251  12.245  0.6818  0.2017  1.4798
57337SOL    HW278870  10.617   6.202  12.282  1.4264  2.0557  1.2673
57338SOL     OW78871   4.599   9.382   2.983  0.1845  0.5982 -0.1082
57338SOL    HW178872   4.597   9.364   3.077 -0.0693 -0.1123 -0.2432
57338SOL    HW278873   4.570   9.473   2.975 -2.2145 -0.0490  0.3433
57339SOL     OW78874  11.424   7.799   7.659  0.1619 -0.0244  0.1208
57339SOL    HW178875  11.485   7.827   7.591 -1.3341  3.2925 -0.0248
57339SOL    HW278876  11.412   7.705   7.643 -0.7556  0.6785 -4.7909
57340SOL     OW78877   7.979   3.625   8.394 -0.3838 -0.8006 -0.3557
57340SOL    HW178878   7.939   3.645   8.479  0.6384  1.8747 -0.4012
57340SOL    HW278879   7.916   3.569   8.350 -3.2489  1.6897  0.3013
57341SOL     OW78880   7.171   3.828   0.231 -0.5772 -0.0889 -0.7857
57341SOL    HW178881   7.158   3.829   0.136  0.4125 -0.1750 -0.9304
57341SOL    HW278882   7.264   3.810   0.243 -0.5640  0.5386  0.1997
57342SOL     OW78883  10.331   6.199   8.132  0.8018 -0.0647 -0.4423
57342SOL    HW178884  10.319   6.176   8.224 -0.9812  0.9273 -0.3765
57342SOL    HW278885  10.422   6.227   8.125  0.3776  2.0832  1.5610
57343SOL     OW78886  11.002   8.958   5.936  0.1050 -0.1612  0.2362
57343SOL    HW178887  10.921   8.977   5.887 -0.4956 -0.6104  1.0283
57343SOL    HW278888  11.013   8.864   5.926  0.2351 -0.1811  0.5790
57344SOL     OW78889   2.569   2.924   8.242  0.1778 -0.4267 -0.0338
57344SOL    HW178890   2.504   2.881   8.187  0.5828 -0.0169 -0.8437
57344SOL    HW278891   2.651   2.917   8.193  0.6198 -0.3590  0.6726
57345SOL     OW78892   7.977  11.624  12.037  0.4559  0.0421  0.4392
57345SOL    HW178893   8.025  11.551  12.076 -0.5893  0.1423  2.0097
57345SOL    HW278894   7.927  11.585  11.966 -0.2118 -0.8182  1.3575
57346SOL     OW78895  10.815  10.205   1.047 -0.0640 -0.5857 -0.2756
57346SOL    HW178896  10.745  10.190   0.984  0.3311  0.4659 -0.9756
57346SOL    HW278897  10.778  10.268   1.110  0.1779 -0.1868 -0.5303
57347SOL     OW78898   7.318   3.436   1.942 -0.1231 -0.0395  0.2383
57347SOL    HW178899   7.409   3.411   1.927  0.1688  1.0647  0.1195
57347SOL    HW278900   7.310   3.443   2.037 -0.2565 -0.7115  0.2863
57348SOL     OW78901   2.825   0.468  10.854 -0.1339  0.5008 -0.2266
57348SOL    HW178902   2.753   0.494  10.796  1.3520  1.7284 -1.6238
57348SOL    HW278903   2.799   0.382  10.887 -2.1352  0.8161 -0.8207
57349SOL     OW78904   1.529   7.739   9.154  0.5233  0.0020  0.4439
57349SOL    HW178905   1.486   7.682   9.090  1.6617 -0.1889 -0.1725
57349SOL    HW278906   1.577   7.679   9.211 -1.7853  0.0110  2.5904
57350SOL     OW78907   0.456   8.851   5.176 -0.1979  0.4024  0.5053
57350SOL    HW178908   0.480   8.912   5.106 -0.8161 -0.4631 -0.5079
57350SOL    HW278909   0.368   8.820   5.152 -0.1392 -0.4335  1.2969
57351SOL     OW78910  10.928  10.155   1.501 -0.6874  0.1180  0.7139
57351SOL    HW178911  10.977  10.173   1.581  0.4541 -1.3165  0.3781
57351SOL    HW278912  10.983  10.189   1.431 -1.8324  1.6680  0.5095
57352SOL     OW78913   1.394   6.439   4.618  0.3462  0.1765  0.3693
57352SOL    HW178914   1.368   6.483   4.537  0.3106  3.2635  1.8936
57352SOL    HW278915   1.488   6.457   4.625  0.2436  0.4083  1.2491
57353SOL     OW78916   9.526   2.560   9.550  0.1921 -0.2051  0.0010
57353SOL    HW178917   9.469   2.504   9.604 -1.5711  2.7312  1.4437
57353SOL    HW278918   9.604   2.574   9.605  0.3334 -0.6546 -0.0785
57354SOL     OW78919   9.254   0.268   8.518  0.3784 -0.4672 -0.3937
57354SOL    HW178920   9.266   0.361   8.499  0.7381 -0.5923 -0.7972
57354SOL    HW278921   9.302   0.254   8.600  0.4570 -0.3263 -0.4145
57355SOL     OW78922   5.283   3.866  10.736 -0.1530  0.2560 -0.0760
57355SOL    HW178923   5.256   3.895  10.823 -0.0498 -0.5110  0.2113
57355SOL    HW278924   5.203   3.873  10.683 -0.5507 -0.5647  0.4080
57356SOL     OW78925   5.515  10.503   5.662  0.0222  0.4079 -0.5298
57356SOL    HW178926   5.523  10.410   5.683  0.3570  1.0358  2.7570
57356SOL    HW278927   5.592  10.523   5.609  0.9579 -0.8401  0.3082
57357SOL     OW78928   8.734   7.551  11.672  0.0976 -0.2651  0.1924
57357SOL    HW178929   8.674   7.491  11.718 -0.3762 -0.5229 -0.7470
57357SOL    HW278930   8.773   7.498  11.603  0.2608  0.3054 -0.1589
57358SOL     OW78931  10.933   1.754   7.721 -0.2156 -0.1513  0.4285
57358SOL    HW178932  10.998   1.810   7.764 -0.7791 -0.2423  1.4462
57358SOL    HW278933  10.953   1.666   7.753  1.1980 -0.7115 -1.8203
57359SOL     OW78934   6.083   9.816   2.437  0.3948 -0.6852  0.2357
57359SOL    HW178935   6.094   9.875   2.511  0.8348 -1.5248  0.8489
57359SOL    HW278936   6.134   9.738   2.460 -2.0820 -2.3168  0.5334
57360SOL     OW78937   4.676   0.919   0.834 -0.6076 -0.2369  0.2748
57360SOL    HW178938   4.604   0.923   0.770 -2.4344  0.4615  2.2539
57360SOL    HW278939   4.635   0.940   0.917  1.6704 -1.2179  1.7411
57361SOL     OW78940   0.531   3.218  10.738  0.3459 -0.2365  0.0253
57361SOL    HW178941   0.573   3.264  10.665 -1.0489 -0.1422 -0.7717
57361SOL    HW278942   0.546   3.125  10.718  1.4727 -0.1906  0.5813
57362SOL     OW78943   9.622   0.201   8.594  0.6377 -0.1779  0.1886
57362SOL    HW178944   9.649   0.115   8.627 -1.1003 -0.2872  1.4447
57362SOL    HW278945   9.540   0.220   8.639  1.0327  2.2263  0.0353
57363SOL     OW78946   6.239  10.628   9.947 -0.4322  0.1229 -0.2487
57363SOL    HW178947   6.253  10.619  10.041  0.7722  0.1395 -0.4043
57363SOL    HW278948   6.145  10.643   9.937 -0.1763  3.3930  1.2037
57364SOL     OW78949   2.929   3.807   6.979  0.4582 -0.0260 -0.0172
57364SOL    HW178950   2.920   3.784   6.887 -0.9840  0.4148 -0.0052
57364SOL    HW278951   2.860   3.758   7.023  0.8575  0.1023  0.7744
57365SOL     OW78952   7.669   1.157  11.417  0.3294 -0.7629 -0.3220
57365SOL    HW178953   7.705   1.121  11.498 -0.6947 -1.3879 -0.1370
57365SOL    HW278954   7.644   1.080  11.366 -0.7063 -0.3410 -0.4633
57366SOL     OW78955   9.314  12.443  11.023  0.1149 -0.0172  0.2247
57366SOL    HW178956   9.370  12.498  10.968 -1.7126  0.7879 -0.9000
57366SOL    HW278957   9.305  12.361  10.973  0.6628 -0.3503  0.6515
57367SOL     OW78958   9.210  10.909  11.238 -0.0794 -0.2084 -0.4413
57367SOL    HW178959   9.137  10.892  11.179  0.3331 -1.0783 -0.7077
57367SOL    HW278960   9.288  10.903  11.184  0.3766 -1.9191  0.3150
57368SOL     OW78961   7.662   1.486  10.074 -0.0160  0.2722  0.3371
57368SOL    HW178962   7.628   1.428  10.006  0.9454 -1.5661  1.3549
57368SOL    HW278963   7.756   1.491  10.058  0.3384 -0.7771  1.9168
57369SOL     OW78964   3.155   1.992   9.703 -0.3291 -0.5414 -0.2736
57369SOL    HW178965   3.199   2.013   9.785 -0.9501  1.3236 -0.3767
57369SOL    HW278966   3.081   1.936   9.729  0.1302 -0.8979  0.2921
57370SOL     OW78967   9.750  10.375   2.925 -0.0416 -0.1308  0.3761
57370SOL    HW178968   9.683  10.328   2.876  1.6576 -0.4791 -1.7795
57370SOL    HW278969   9.752  10.462   2.886  2.1350 -0.7720 -1.1286
57371SOL     OW78970  12.362   0.067   4.221  0.3857  0.1495 -0.1817
57371SOL    HW178971  12.301  -0.007   4.219  1.0349 -0.4511  1.1251
57371SOL    HW278972  12.337   0.118   4.298  1.0421  0.3176 -0.0715
57372SOL     OW78973  12.269  10.176  10.426 -0.4964 -0.0112  0.0006
57372SOL    HW178974  12.293  10.153  10.336 -1.7837 -1.6408  0.0323
57372SOL    HW278975  12.186  10.222  10.416 -0.7235 -0.3431  0.3584
57373SOL     OW78976   4.448  10.292   1.083 -0.2478 -0.3105 -0.0759
57373SOL    HW178977   4.362  10.274   1.044 -0.6195 -0.3631  0.7568
57373SOL    HW278978   4.481  10.205   1.108  0.1987 -0.3253 -0.6789
57374SOL     OW78979   3.990  12.446   0.206 -0.1590  0.1918  0.5758
57374SOL    HW178980   3.969  12.460   0.298 -0.2180 -0.8110  0.7250
57374SOL    HW278981   3.922  12.386   0.175 -1.3165  2.0460 -0.6536
57375SOL     OW78982   7.121  11.543   2.644 -0.7158  0.3157 -0.0179
57375SOL    HW178983   7.136  11.450   2.657  2.3382  0.6128 -0.7477
57375SOL    HW278984   7.064  11.548   2.567  0.4306 -0.9364 -0.9771
57376SOL     OW78985   6.941   9.005  12.488 -0.2654 -0.4765  0.6985
57376SOL    HW178986   6.980   9.015  12.400 -0.2523 -1.3034  0.5985
57376SOL    HW278987   6.869   9.067  12.490  0.3996  0.3277  0.4986
57377SOL     OW78988  11.406  12.491   2.994  0.2264  0.5814 -0.6869
57377SOL    HW178989  11.471  12.491   3.064  0.6378  0.4743 -1.0665
57377SOL    HW278990  11.424  12.570   2.944  1.6782 -0.6605 -2.2593
57378SOL     OW78991   0.989   7.564  11.178  0.3816  0.4798 -0.8396
57378SOL    HW178992   1.076   7.529  11.158  0.8600  0.8516  0.4757
57378SOL    HW278993   0.953   7.588  11.093  0.8663 -1.2572 -1.5784
57379SOL     OW78994   1.465   6.331   6.832 -0.4182  0.0223  0.1413
57379SOL    HW178995   1.431   6.410   6.874 -0.7541  0.1878 -0.4209
57379SOL    HW278996   1.397   6.308   6.768  0.1277 -0.1589 -0.3802
57380SOL     OW78997   4.061   2.594   9.738  0.0449 -0.4783  0.4276
57380SOL    HW178998   4.015   2.672   9.769  0.8023 -0.2162  0.9017
57380SOL    HW278999   3.993   2.526   9.734 -1.2466  0.8209 -2.5143
57381SOL     OW79000  11.302   1.966   1.819  0.2495 -0.0297  0.5745
57381SOL    HW179001  11.224   1.972   1.764  0.1872 -1.6237  0.4574
57381SOL    HW279002  11.356   2.040   1.791 -1.7276  1.8763  1.5362
57382SOL     OW79003   8.344   2.165   6.644  0.1070  0.5283 -0.0641
57382SOL    HW179004   8.306   2.118   6.718  0.2358  1.2928  0.4983
57382SOL    HW279005   8.437   2.143   6.647  0.0073  0.0467 -0.3931
57383SOL     OW79006   8.772   4.093   0.489  0.1791  0.4511  0.1796
57383SOL    HW179007   8.812   4.016   0.448 -1.4251  0.5533 -1.7155
57383SOL    HW279008   8.805   4.167   0.438 -1.0169  0.6821 -0.2885
57384SOL     OW79009   0.571  10.550  12.381  0.0085  0.3058  0.0988
57384SOL    HW179010   0.564  10.479  12.317 -0.9623  1.6400 -1.3313
57384SOL    HW279011   0.659  10.586  12.367 -0.8630  1.8379 -1.9370
57385SOL     OW79012  10.209   0.535  10.017 -0.3477 -0.4522 -0.0974
57385SOL    HW179013  10.252   0.573  10.094 -0.4920  0.8562 -0.6521
57385SOL    HW279014  10.280   0.521   9.954 -0.5150  0.4140 -0.4913
57386SOL     OW79015   8.701  12.316   0.541  0.1338 -0.0205 -0.2048
57386SOL    HW179016   8.627  12.347   0.488  0.4847  0.4261 -0.4413
57386SOL    HW279017   8.739  12.245   0.489  1.2309  1.2177 -1.1759
57387SOL     OW79018   5.881  11.404   5.355  0.6334 -0.7123  0.0632
57387SOL    HW179019   5.808  11.396   5.416  0.2555 -1.9569 -0.5266
57387SOL    HW279020   5.957  11.375   5.404  0.5080 -0.7260  0.2506
57388SOL     OW79021   3.021   5.722   8.963 -0.4168 -0.4389 -0.5495
57388SOL    HW179022   2.980   5.640   8.987 -0.1599 -0.5367 -0.4383
57388SOL    HW279023   2.972   5.789   9.011  0.8401 -0.7233  1.2621
57389SOL     OW79024   4.697   5.224   2.443  0.3920 -0.2713  0.2697
57389SOL    HW179025   4.656   5.138   2.433  0.9581 -0.5611  0.4178
57389SOL    HW279026   4.759   5.230   2.371  0.1486  0.1405  0.0884
57390SOL     OW79027   9.348   2.445   2.562 -0.3277  0.2792  0.6755
57390SOL    HW179028   9.401   2.512   2.519  0.7764 -1.0205 -0.0473
57390SOL    HW279029   9.269   2.438   2.508  0.4251 -0.3477 -0.3821
57391SOL     OW79030   6.224  12.239   6.204  0.1519 -0.7201 -0.0352
57391SOL    HW179031   6.259  12.318   6.245  0.7990 -1.5860  1.1292
57391SOL    HW279032   6.300  12.182   6.191 -0.2140 -0.9211 -1.4309
57392SOL     OW79033   9.361  11.158   0.833  0.5332  0.3341 -0.0124
57392SOL    HW179034   9.456  11.154   0.840  0.5477  1.8893  1.4859
57392SOL    HW279035   9.329  11.140   0.922 -0.4784  1.3579 -0.1370
57393SOL     OW79036   6.242   6.404   4.788 -0.3210 -0.2844 -0.2010
57393SOL    HW179037   6.207   6.347   4.856 -0.8966  0.2998  0.0034
57393SOL    HW279038   6.180   6.477   4.783  1.1251  1.0506  0.5447
57394SOL     OW79039   2.600  11.955   3.191  0.8562  0.1123 -0.2289
57394SOL    HW179040   2.582  12.034   3.140  0.0170  0.2852  0.3128
57394SOL    HW279041   2.514  11.918   3.210  0.9133  1.2292  2.8716
57395SOL     OW79042  11.012  10.083  12.455  0.4828  0.4871 -0.9790
57395SOL    HW179043  10.956  10.022  12.409  2.1258 -1.4964 -0.5111
57395SOL    HW279044  10.953  10.133  12.512 -0.8213 -1.4962 -0.5044
57396SOL     OW79045   7.642   6.989   8.533  0.0692 -0.5584 -0.1486
57396SOL    HW179046   7.631   6.894   8.544  0.4321 -0.5369  0.4530
57396SOL    HW279047   7.633   7.024   8.622  0.7435 -0.1109 -0.2537
57397SOL     OW79048  11.475   6.250   2.896  0.1990 -0.1520 -0.0801
57397SOL    HW179049  11.433   6.164   2.895 -2.7903  1.1750 -2.4424
57397SOL    HW279050  11.552   6.240   2.840  0.4431 -1.4824  0.4570
57398SOL     OW79051  12.522   4.327   5.829  0.0487 -0.8040  0.0198
57398SOL    HW179052  12.445   4.312   5.774 -1.1848 -1.4654  1.8105
57398SOL    HW279053  12.557   4.240   5.845  2.1405 -0.4223 -1.9683
57399SOL     OW79054  11.743   8.516  12.052 -0.2944 -0.1489  0.0203
57399SOL    HW179055  11.784   8.547  12.133 -0.1700 -0.2608  0.0013
57399SOL    HW279056  11.798   8.443  12.024 -0.3577 -0.1326 -0.1465
57400SOL     OW79057   5.292  11.531  11.930  0.0878 -0.7664 -0.0281
57400SOL    HW179058   5.274  11.602  11.868  1.2403  0.4324  0.9443
57400SOL    HW279059   5.228  11.544  12.000 -1.7188 -2.5689 -1.2151
57401SOL     OW79060  12.269   6.080   0.817  0.0720  0.3667 -0.2424
57401SOL    HW179061  12.357   6.065   0.783 -0.2241  0.4560 -1.0783
57401SOL    HW279062  12.269   6.173   0.842 -0.1650  0.7075 -1.4476
57402SOL     OW79063   2.110   1.368   9.851 -0.5407 -0.0967  0.0323
57402SOL    HW179064   2.034   1.390   9.797 -0.3783 -2.3454 -1.2325
57402SOL    HW279065   2.186   1.391   9.796 -0.3344 -0.1096  0.3115
57403SOL     OW79066   8.663   0.278   1.779 -0.2348 -0.3547  0.6599
57403SOL    HW179067   8.669   0.265   1.685  1.2015 -2.4471  0.9607
57403SOL    HW279068   8.709   0.360   1.796  1.1090 -0.8876 -0.3040
57404SOL     OW79069   1.578   5.574   5.229  0.0581 -0.1475 -0.7336
57404SOL    HW179070   1.661   5.593   5.185  1.1098  0.5973  1.3771
57404SOL    HW279071   1.605   5.547   5.317 -1.9248 -1.0696 -0.3678
57405SOL     OW79072   9.826   6.513   4.648  0.6895  0.0051 -0.3770
57405SOL    HW179073   9.854   6.550   4.564  0.8700  2.4860  0.7042
57405SOL    HW279074   9.824   6.587   4.708 -0.6839 -1.4662  1.5321
57406SOL     OW79075   5.172   2.544   3.519 -0.0325  0.2984 -0.5374
57406SOL    HW179076   5.185   2.633   3.484  0.8984  0.9599  1.3097
57406SOL    HW279077   5.252   2.527   3.569 -0.6168 -1.1978 -0.0722
57407SOL     OW79078   2.404   8.173   5.157 -0.0702 -0.0118 -0.4689
57407SOL    HW179079   2.457   8.252   5.143 -0.7250  0.9394  1.9360
57407SOL    HW279080   2.387   8.172   5.251 -2.6785 -1.3448 -0.8759
57408SOL     OW79081   3.380   4.436   1.673  0.2255 -0.5076  0.0188
57408SOL    HW179082   3.415   4.352   1.704 -1.4064 -1.1929  0.1203
57408SOL    HW279083   3.308   4.455   1.733  1.1386  1.4604  0.5628
57409SOL     OW79084   5.170  11.106  10.722 -0.1875  0.2102  0.3252
57409SOL    HW179085   5.225  11.152  10.785  1.5976  1.9422 -2.2986
57409SOL    HW279086   5.116  11.175  10.683  0.0079 -0.4790 -1.2385
57410SOL     OW79087   0.857   1.144  12.239  0.4868  0.3001 -0.0827
57410SOL    HW179088   0.880   1.154  12.331  2.0251 -2.3925 -0.0722
57410SOL    HW279089   0.786   1.207  12.225  2.1190  2.8343  2.1552
57411SOL     OW79090   4.760   9.204  11.214 -0.2131 -0.2663 -0.6468
57411SOL    HW179091   4.758   9.122  11.164  0.9314 -0.9148  0.3031
57411SOL    HW279092   4.849   9.208  11.249 -0.5206  0.9473  0.0480
57412SOL     OW79093  11.468   4.676  10.104 -0.6272 -0.0684  0.4603
57412SOL    HW179094  11.461   4.584  10.129 -0.6476 -0.8229 -2.0834
57412SOL    HW279095  11.378   4.702  10.085 -0.3173 -0.6229 -2.1774
57413SOL     OW79096   5.751   8.289  11.484 -0.3410  0.0533 -0.0748
57413SOL    HW179097   5.753   8.203  11.525  0.5117  0.5882  1.0504
57413SOL    HW279098   5.842   8.317  11.483 -0.3744  0.2295 -2.0221
57414SOL     OW79099   9.684   9.113   3.742 -0.5981 -0.2382  0.8066
57414SOL    HW179100   9.661   9.185   3.683 -1.5005 -0.8914  0.3468
57414SOL    HW279101   9.778   9.101   3.728 -0.5137  0.5786  0.5966
57415SOL     OW79102   5.266   7.308  11.360  0.1844  0.2574 -0.1408
57415SOL    HW179103   5.321   7.380  11.330  0.6480 -0.2359 -0.4925
57415SOL    HW279104   5.188   7.312  11.305  0.1490  0.5626 -0.0712
57416SOL     OW79105   8.507   4.377   7.222  0.2914  0.1008  0.3599
57416SOL    HW179106   8.510   4.463   7.263 -0.3294  0.0444  0.5231
57416SOL    HW279107   8.489   4.395   7.130 -1.5248  0.0742  0.6852
57417SOL     OW79108   1.053   7.210   5.634  1.0865 -0.1075  0.1376
57417SOL    HW179109   1.001   7.129   5.627  1.8183 -0.8160  2.0602
57417SOL    HW279110   1.134   7.182   5.676  2.0676  1.3749 -0.6920
57418SOL     OW79111   4.869   8.642   2.711  0.2366 -0.1665 -0.2379
57418SOL    HW179112   4.913   8.712   2.663  0.5611 -0.2551 -0.0714
57418SOL    HW279113   4.823   8.687   2.782 -0.1238 -0.0512 -0.5393
57419SOL     OW79114   6.114   8.660   8.261  0.4664  0.9377 -0.4142
57419SOL    HW179115   6.085   8.672   8.171  0.9507 -0.1323 -0.7287
57419SOL    HW279116   6.110   8.565   8.275  0.5744  1.0781  0.6285
57420SOL     OW79117  11.915   1.202   1.981 -0.0240 -0.4569  0.8298
57420SOL    HW179118  11.890   1.139   2.049  0.6607 -1.0134  0.5779
57420SOL    HW279119  12.003   1.175   1.955 -0.0739  0.0724  0.0919
57421SOL     OW79120   1.869   8.702   5.196 -0.1747  0.1309 -0.2037
57421SOL    HW179121   1.913   8.754   5.264 -0.3499 -0.2288  0.1903
57421SOL    HW279122   1.901   8.613   5.210  0.0317  0.1104 -0.7982
57422SOL     OW79123  10.158   5.539   8.632  0.2318  0.1954  0.2272
57422SOL    HW179124  10.079   5.539   8.578  0.2983  2.6915  0.0383
57422SOL    HW279125  10.153   5.619   8.683  1.2961 -0.9853  2.3196
57423SOL     OW79126   3.780   3.316  10.195  0.5573  0.3881 -0.3444
57423SOL    HW179127   3.787   3.349  10.105  0.0654  0.5936 -0.3125
57423SOL    HW279128   3.822   3.230  10.192 -1.3157 -0.5577 -1.2987
57424SOL     OW79129   3.953   5.512  11.218 -0.3847 -0.3606 -0.0334
57424SOL    HW179130   4.046   5.490  11.216 -0.0495  0.8650  0.8278
57424SOL    HW279131   3.928   5.521  11.126  0.3442 -0.6821 -0.2663
57425SOL     OW79132  12.094  11.471   8.387  0.3212 -0.4176 -0.3426
57425SOL    HW179133  12.074  11.475   8.480  1.0689 -0.5774 -0.1700
57425SOL    HW279134  12.045  11.545   8.349 -1.2799 -1.2867 -0.0878
57426SOL     OW79135  12.260   6.782   0.400 -0.8066 -0.2165  0.0778
57426SOL    HW179136  12.227   6.710   0.346 -1.0306  0.7502 -1.1150
57426SOL    HW279137  12.218   6.860   0.364  0.7291  0.7240  0.2307
57427SOL     OW79138  10.699   9.533  12.479  0.2637  0.1239 -0.2544
57427SOL    HW179139  10.618   9.573  12.448 -0.3675 -0.5886  0.4313
57427SOL    HW279140  10.695   9.545  12.574  0.1908 -1.3207 -0.0653
57428SOL     OW79141   9.700   8.102   9.525  0.5581  0.1879 -0.0415
57428SOL    HW179142   9.772   8.039   9.529  0.3085 -0.1907 -1.0669
57428SOL    HW279143   9.673   8.113   9.616  1.4408 -0.2110  0.2867
57429SOL     OW79144   2.723   9.761  12.324 -0.1477  0.3086  0.1815
57429SOL    HW179145   2.631   9.736  12.314 -0.1555 -0.1846  1.3398
57429SOL    HW279146   2.737   9.826  12.255 -1.6684  1.2172  0.6644
57430SOL     OW79147   6.770   7.334   9.543 -0.1758 -0.0208 -0.0720
57430SOL    HW179148   6.833   7.406   9.543  1.4141 -1.3427 -0.6551
57430SOL    HW279149   6.814   7.264   9.591 -0.2266 -1.7409 -2.3429
57431SOL     OW79150   6.373   9.220   0.467 -0.0858  0.0942 -0.3917
57431SOL    HW179151   6.443   9.280   0.439  0.1771 -0.5035 -1.0377
57431SOL    HW279152   6.373   9.226   0.562  0.0374  1.0083 -0.4347
57432SOL     OW79153   2.808  10.919  10.444 -0.1832  0.1927 -0.4421
57432SOL    HW179154   2.871  10.910  10.372 -0.0166  0.3892 -0.3248
57432SOL    HW279155   2.795  10.831  10.477  1.6648  0.3797  0.9150
57433SOL     OW79156   3.403   5.405   6.916 -0.1480 -0.2321  0.6467
57433SOL    HW179157   3.322   5.442   6.953 -0.7283 -0.7746 -0.0587
57433SOL    HW279158   3.416   5.324   6.966  0.5299  0.3599  1.4535
57434SOL     OW79159  11.732  11.429   3.992  0.0246  0.9528  0.1837
57434SOL    HW179160  11.675  11.353   3.984  1.2340  0.1918 -2.1330
57434SOL    HW279161  11.742  11.441   4.086 -2.0416 -0.3014  0.6370
57435SOL     OW79162   0.731   1.967   3.352  0.3973 -0.3442  0.4122
57435SOL    HW179163   0.685   1.911   3.415 -0.1448  2.4544  2.7413
57435SOL    HW279164   0.673   2.042   3.342  1.7896  0.5578 -1.3171
57436SOL     OW79165   1.784   7.137   4.711  0.0115 -0.2429 -0.2232
57436SOL    HW179166   1.758   7.077   4.781 -1.1059  3.8677  3.2932
57436SOL    HW279167   1.864   7.178   4.743 -0.1933  1.3739 -1.6206
57437SOL     OW79168   7.927   6.835  11.734 -0.2634  0.1457 -0.1944
57437SOL    HW179169   7.963   6.905  11.679 -2.0573  0.7126 -0.7004
57437SOL    HW279170   7.847   6.808  11.690 -0.4498 -1.1381  0.8494
57438SOL     OW79171   9.821   6.134   7.672  0.2731  0.1969 -0.5783
57438SOL    HW179172   9.910   6.158   7.649  0.4468  0.2021  0.0729
57438SOL    HW279173   9.821   6.129   7.768 -1.2076  3.3681 -0.2819
57439SOL     OW79174   4.577   5.143   3.849  0.1690 -0.1917 -0.4001
57439SOL    HW179175   4.492   5.141   3.892  0.6534  2.2976  0.8431
57439SOL    HW279176   4.558   5.125   3.757 -1.8293  1.0128 -0.2811
57440SOL     OW79177   0.466  10.995   9.821 -0.0658 -0.0281 -0.3696
57440SOL    HW179178   0.396  11.024   9.762 -1.5553 -0.9382  0.8797
57440SOL    HW279179   0.487  11.073   9.873 -2.4607 -0.4761  1.4257
57441SOL     OW79180  11.674   7.670   2.566  0.4660  0.7647 -0.1872
57441SOL    HW179181  11.767   7.647   2.565  0.6074  1.2433  0.8062
57441SOL    HW279182  11.673   7.765   2.571 -0.0842  0.7628 -0.2065
57442SOL     OW79183   1.121   2.848   6.587  0.0485  0.1531 -0.5522
57442SOL    HW179184   1.122   2.755   6.566 -0.2446 -0.4351  1.7767
57442SOL    HW279185   1.214   2.872   6.596  0.2191  0.5467 -2.7006
57443SOL     OW79186   0.611   1.943  11.619  0.5547 -0.3728  0.0750
57443SOL    HW179187   0.630   2.036  11.631 -1.1499  0.3434 -2.0603
57443SOL    HW279188   0.695   1.903  11.598  1.1830  0.8269  0.2185
57444SOL     OW79189   4.426   8.155   3.574  0.4926  0.3918  0.0234
57444SOL    HW179190   4.498   8.177   3.515  1.7782  2.3115  2.1492
57444SOL    HW279191   4.469   8.128   3.655 -1.0591  2.6881  1.7396
57445SOL     OW79192   2.544   7.342   4.542  0.0123  0.1675  0.1958
57445SOL    HW179193   2.583   7.282   4.479 -2.2717  0.0237 -1.1963
57445SOL    HW279194   2.479   7.290   4.589 -1.2198  1.2483 -0.2478
57446SOL     OW79195  10.856   7.752   9.398  0.4678 -0.2826 -0.0443
57446SOL    HW179196  10.785   7.703   9.439 -1.1478  1.7891 -0.1539
57446SOL    HW279197  10.836   7.749   9.304  0.9110 -0.2489 -0.1423
57447SOL     OW79198   9.707   8.328   6.501 -0.3525  0.1205  0.2773
57447SOL    HW179199   9.681   8.401   6.444  0.1372  0.0316 -0.0664
57447SOL    HW279200   9.803   8.331   6.501 -0.3326 -0.4536  0.3514
57448SOL     OW79201   7.915   2.313   2.146  0.0130  0.4642  0.2497
57448SOL    HW179202   7.974   2.384   2.171 -1.0611  1.6271 -0.4605
57448SOL    HW279203   7.936   2.243   2.208  2.4012  0.6713 -0.2178
57449SOL     OW79204   9.218  10.832   7.921  0.2202  0.1463 -0.7327
57449SOL    HW179205   9.205  10.764   7.987  0.4605  1.7590  1.0526
57449SOL    HW279206   9.137  10.883   7.922  1.7796  2.8709  1.6489
57450SOL     OW79207   8.004  10.248  10.546 -0.3290 -0.4194 -0.0609
57450SOL    HW179208   7.997  10.339  10.574 -2.4273 -0.4199 -0.4198
57450SOL    HW279209   8.069  10.249  10.476 -0.8572  0.9547 -0.5578
57451SOL     OW79210   8.262   9.799   8.309 -0.1142  0.1446 -0.0748
57451SOL    HW179211   8.241   9.891   8.327  0.1949  0.2338 -0.1625
57451SOL    HW279212   8.231   9.784   8.220 -0.0746  0.1916 -0.0962
57452SOL     OW79213   3.606   4.618   8.280  0.7844  1.0783 -0.2940
57452SOL    HW179214   3.580   4.598   8.370 -1.3254  0.9267 -0.8748
57452SOL    HW279215   3.619   4.532   8.239 -0.9796  1.0083 -0.8138
57453SOL     OW79216  10.388   1.393  10.380  0.1882  0.4867  0.0330
57453SOL    HW179217  10.408   1.486  10.366  1.8342  0.9547  4.0078
57453SOL    HW279218  10.473   1.349  10.371 -0.1836 -0.2890  0.2427
57454SOL     OW79219   6.741   5.709   0.496 -0.0201  0.0372 -0.2640
57454SOL    HW179220   6.825   5.702   0.542 -0.2903 -1.6977  0.0180
57454SOL    HW279221   6.759   5.681   0.407 -0.4667 -1.2240  0.0281
57455SOL     OW79222   6.630  10.529   5.631  0.1170  0.2754  0.8709
57455SOL    HW179223   6.589  10.598   5.577  0.4924  1.3476  1.9041
57455SOL    HW279224   6.688  10.483   5.571 -0.9425  0.1506 -0.1041
57456SOL     OW79225   5.254   9.875   9.604  0.1270 -0.4170 -0.4868
57456SOL    HW179226   5.166   9.853   9.634  0.0937  0.0662 -0.2161
57456SOL    HW279227   5.257   9.846   9.513  0.1334 -1.6573 -0.1139
57457SOL     OW79228   1.917   9.170   4.091 -0.0918 -0.5418  0.1991
57457SOL    HW179229   1.983   9.105   4.117  1.4535  1.0241  0.3413
57457SOL    HW279230   1.910   9.228   4.167 -1.8927 -0.8259  0.2946
57458SOL     OW79231   8.336   6.321   1.303  0.4543 -0.5260 -0.2729
57458SOL    HW179232   8.347   6.258   1.374  0.0132 -0.4946 -0.1751
57458SOL    HW279233   8.242   6.339   1.301  0.4926 -0.3596 -0.7186
57459SOL     OW79234   4.106   9.643   9.389  0.3507  0.1994 -0.3249
57459SOL    HW179235   4.097   9.548   9.382  0.3865  0.1107  0.7312
57459SOL    HW279236   4.167   9.657   9.462 -0.1194  1.0472 -0.0784
57460SOL     OW79237   6.665   0.073  11.988 -0.1138  0.2981 -0.1378
57460SOL    HW179238   6.591   0.101  11.934 -1.5509  0.3104  1.7429
57460SOL    HW279239   6.684   0.148  12.044  0.9928  0.1041 -0.2305
57461SOL     OW79240   2.947   5.269  10.710  0.3809 -0.2482  0.2501
57461SOL    HW179241   2.864   5.243  10.750 -0.5524  1.2002 -0.6864
57461SOL    HW279242   3.013   5.233  10.770 -0.9315  0.6847  2.4020
57462SOL     OW79243   7.013  11.043   6.062  0.2190 -0.3594  0.1723
57462SOL    HW179244   7.062  10.961   6.067 -0.3820 -0.6669  1.2473
57462SOL    HW279245   6.936  11.029   6.117  0.5778  1.2564  1.1662
57463SOL     OW79246   1.191   2.076   5.275  0.7571  0.3598  0.1201
57463SOL    HW179247   1.115   2.026   5.306  0.3637  0.9651  0.1384
57463SOL    HW279248   1.221   2.124   5.351  1.1955  0.0850  0.1238
57464SOL     OW79249   1.411   8.172   3.492 -1.0642 -0.4030  0.3555
57464SOL    HW179250   1.401   8.113   3.566  1.5827  0.9506  1.9435
57464SOL    HW279251   1.367   8.253   3.519  0.8954  0.4915  1.0512
57465SOL     OW79252   8.952   4.256   0.051 -0.3119  0.2184 -0.2712
57465SOL    HW179253   9.017   4.185   0.051  0.5128  0.9497 -0.2002
57465SOL    HW279254   8.998   4.330   0.010 -0.1751  1.5507  2.1108
57466SOL     OW79255   8.938   9.829  12.144 -0.3772 -0.1186  0.3893
57466SOL    HW179256   8.843   9.835  12.145 -0.3150  1.5218 -0.6271
57466SOL    HW279257   8.968   9.917  12.123  1.4636 -0.0892  2.7222
57467SOL     OW79258   1.708   0.453  10.417 -0.4590 -0.5160  0.0739
57467SOL    HW179259   1.778   0.425  10.358  1.4040  0.8757  1.5232
57467SOL    HW279260   1.671   0.530  10.374 -0.1712 -0.4387 -0.0413
57468SOL     OW79261   3.277   7.094   1.630 -0.0875  0.6088 -0.0210
57468SOL    HW179262   3.224   7.150   1.687 -1.4940 -1.0722  0.3885
57468SOL    HW279263   3.293   7.149   1.553 -0.1791  2.0739  0.9555
57469SOL     OW79264   2.330   2.631   7.332  0.3061  0.3385 -0.0040
57469SOL    HW179265   2.421   2.658   7.335 -0.4630  3.2561 -0.0599
57469SOL    HW279266   2.333   2.539   7.305  3.1388  0.6965 -1.2022
57470SOL     OW79267   8.668   0.747   1.037 -0.4106 -0.3653  0.2417
57470SOL    HW179268   8.645   0.837   1.015 -1.2034 -0.6216  0.0089
57470SOL    HW279269   8.682   0.704   0.953  1.8867 -0.0022  0.3546
57471SOL     OW79270   0.904   8.449   0.997  0.3647  0.0580  0.2203
57471SOL    HW179271   0.855   8.514   1.049 -1.3941 -1.2381  0.2766
57471SOL    HW279272   0.932   8.498   0.919 -0.0552  1.1367  0.7177
57472SOL     OW79273   7.484   8.809   9.644  0.2001 -0.6590 -0.1284
57472SOL    HW179274   7.563   8.815   9.697 -1.7794 -0.5405  3.1108
57472SOL    HW279275   7.477   8.895   9.602  0.6726  0.1576  1.3665
57473SOL     OW79276   7.144   0.165   1.228 -0.0265 -0.0004  0.6184
57473SOL    HW179277   7.193   0.245   1.247  0.6248 -0.4285  0.8025
57473SOL    HW279278   7.057   0.195   1.203  0.0320  0.7337  1.2668
57474SOL     OW79279   6.096  10.919   8.759 -0.1619  0.1235 -0.1214
57474SOL    HW179280   6.036  10.877   8.821 -0.9584 -1.0901 -1.6418
57474SOL    HW279281   6.045  10.991   8.721  0.9045  2.0443  1.8154
57475SOL     OW79282   5.107   5.353   7.803  0.5090 -0.4783  0.2017
57475SOL    HW179283   5.058   5.434   7.790  0.4905 -0.2139  1.7303
57475SOL    HW279284   5.191   5.369   7.760  0.8392  0.7172  1.2387
57476SOL     OW79285   2.403   9.936  11.403  0.3068  0.2723 -0.2503
57476SOL    HW179286   2.360  10.021  11.398  0.5814  0.4893  0.8825
57476SOL    HW279287   2.346   9.878  11.353 -0.1843  0.9962 -0.5505
57477SOL     OW79288   8.206   0.287   9.548  0.0571 -0.3592  0.4715
57477SOL    HW179289   8.182   0.195   9.540 -1.2196 -0.3566  3.0817
57477SOL    HW279290   8.264   0.289   9.624 -1.2359  1.1428  1.4851
57478SOL     OW79291   6.343  11.548  10.085  0.1992 -0.4658  0.8308
57478SOL    HW179292   6.285  11.527  10.012  1.4358 -0.7317 -0.0882
57478SOL    HW279293   6.305  11.628  10.123  0.3053  0.4695 -0.9565
57479SOL     OW79294   3.749   8.992   3.517  0.4465  0.5896  0.0281
57479SOL    HW179295   3.732   8.962   3.606  2.3788  0.3781  0.3679
57479SOL    HW279296   3.811   8.929   3.481 -0.5623  0.4788 -1.6105
57480SOL     OW79297  10.907  11.946   9.609  0.3608 -0.0520 -0.2681
57480SOL    HW179298  10.980  11.927   9.550  0.7676 -0.6757  0.4201
57480SOL    HW279299  10.877  12.033   9.583  2.5430  1.0510  0.6366
57481SOL     OW79300   9.230   7.352   2.420 -0.1637  0.0169 -0.0988
57481SOL    HW179301   9.231   7.388   2.331 -0.5402 -0.3708 -0.2583
57481SOL    HW279302   9.295   7.405   2.467  0.9230 -0.5514 -0.8982
57482SOL     OW79303   8.241   8.069   5.890  0.4581 -0.3933  0.2819
57482SOL    HW179304   8.184   8.037   5.960  1.3759  0.0839  1.2795
57482SOL    HW279305   8.326   8.027   5.907  1.0339  0.7035  0.2090
57483SOL     OW79306   5.335  11.794   9.740  0.1962 -0.1344 -1.0977
57483SOL    HW179307   5.296  11.872   9.701 -2.9332  0.4996  2.6729
57483SOL    HW279308   5.366  11.823   9.826  1.0292 -2.5829 -0.4829
57484SOL     OW79309  12.576   8.599   8.530 -0.1072  0.7484 -0.1251
57484SOL    HW179310  12.634   8.523   8.536  0.5183  1.0996 -1.3009
57484SOL    HW279311  12.627   8.671   8.566  0.5031  1.1913 -1.7462
57485SOL     OW79312   5.802   5.681   3.289 -0.6804  0.1968 -0.2261
57485SOL    HW179313   5.894   5.692   3.265 -0.3662 -0.4220  0.6187
57485SOL    HW279314   5.796   5.719   3.377 -1.4972  1.2479 -0.7086
57486SOL     OW79315   3.459  11.891   2.448 -0.6692  0.3702  0.1235
57486SOL    HW179316   3.424  11.851   2.528 -0.4843 -0.3514 -0.1421
57486SOL    HW279317   3.553  11.894   2.462 -0.4804 -1.0033 -0.5728
57487SOL     OW79318   8.322   1.339   7.989 -0.2135  0.0843  0.2161
57487SOL    HW179319   8.230   1.316   7.973 -0.0504  0.6675 -1.6925
57487SOL    HW279320   8.364   1.331   7.904  1.4065  0.3905  0.9566
57488SOL     OW79321   4.044   2.575   7.368  0.4136  0.0492 -0.0853
57488SOL    HW179322   4.102   2.597   7.295  1.2966  0.4377  0.7075
57488SOL    HW279323   3.991   2.502   7.336  1.8632 -0.8200 -0.6063
57489SOL     OW79324   8.739  10.879  11.737  0.4866 -0.3622  0.1035
57489SOL    HW179325   8.650  10.913  11.728  0.0680 -1.7414 -1.2938
57489SOL    HW279326   8.772  10.921  11.817 -1.4280  0.1120  0.7025
57490SOL     OW79327   7.462   1.700   7.409  0.0134  0.7045 -0.0784
57490SOL    HW179328   7.543   1.721   7.456  0.9262  0.2489 -1.3990
57490SOL    HW279329   7.469   1.607   7.390  0.9627  1.3112 -3.3550
57491SOL     OW79330  11.690   6.113   3.831 -0.2362  0.0725 -0.1129
57491SOL    HW179331  11.750   6.177   3.793 -1.7210  1.4854 -0.2105
57491SOL    HW279332  11.737   6.030   3.826  1.2200  0.9091 -1.2668
57492SOL     OW79333   8.183   0.009   2.692  0.8588 -0.4240  0.4550
57492SOL    HW179334   8.128   0.062   2.634 -0.7100 -1.5552  0.8362
57492SOL    HW279335   8.141   0.017   2.778  1.5829 -0.9480  0.8700
57493SOL     OW79336  10.001   6.247   1.756  0.6848 -0.5086  0.4610
57493SOL    HW179337  10.019   6.154   1.751 -1.5601 -0.9702 -0.5336
57493SOL    HW279338  10.080   6.290   1.724  1.2799 -2.1302 -0.3106
57494SOL     OW79339  11.468   3.460   6.355  0.0432  0.4480  0.4451
57494SOL    HW179340  11.500   3.390   6.412  1.0836  0.5990  0.0709
57494SOL    HW279341  11.403   3.418   6.299 -1.6528  0.4870  2.2985
57495SOL     OW79342  11.611   3.024   7.083  0.0479 -0.0619  0.1911
57495SOL    HW179343  11.524   2.992   7.106 -0.3488 -0.1866 -1.3645
57495SOL    HW279344  11.650   3.050   7.167 -0.9802 -1.2204  1.0685
57496SOL     OW79345   4.322  11.819  10.666 -0.0851 -0.8225  0.1387
57496SOL    HW179346   4.417  11.829  10.669 -0.0411 -0.6664 -1.2210
57496SOL    HW279347   4.295  11.864  10.586 -1.5747  1.0549  1.5739
57497SOL     OW79348   0.150   7.135  11.026  0.0204 -0.1179 -0.1511
57497SOL    HW179349   0.101   7.214  11.003 -0.6322 -0.9644 -1.9032
57497SOL    HW279350   0.239   7.165  11.044 -0.4237  1.1012  0.0541
57498SOL     OW79351   4.807   9.961   7.796 -0.4186  0.8623 -0.3095
57498SOL    HW179352   4.828   9.938   7.887 -0.9162  0.5191 -0.2752
57498SOL    HW279353   4.716   9.988   7.799 -0.2616  1.4338 -0.6119
57499SOL     OW79354  10.353   5.257   6.307 -0.4634  0.6843  0.4316
57499SOL    HW179355  10.424   5.232   6.248  0.5487 -2.5927  2.7783
57499SOL    HW279356  10.396   5.304   6.378 -0.4912 -1.4013  1.9197
57500SOL     OW79357   4.475   3.798   0.339  0.2054 -0.0276  0.5250
57500SOL    HW179358   4.473   3.704   0.318 -0.0454  0.1852 -0.4778
57500SOL    HW279359   4.562   3.826   0.313 -0.3253  0.3726 -0.8981
57501SOL     OW79360   2.452   5.227   0.909  0.2553  0.1852 -0.6228
57501SOL    HW179361   2.383   5.287   0.936  0.5163 -0.0655  0.6523
57501SOL    HW279362   2.510   5.221   0.985 -0.9545 -3.4657  0.1895
57502SOL     OW79363   0.495   5.966   9.049  0.6551 -0.3441 -0.5885
57502SOL    HW179364   0.532   5.946   9.135  1.1834  0.4254 -0.6350
57502SOL    HW279365   0.510   6.059   9.037  1.3808 -0.6062 -1.8990
57503SOL     OW79366   6.019   5.710  10.443 -0.5284  0.0099 -0.1927
57503SOL    HW179367   5.928   5.704  10.414 -0.9060 -2.2678  1.1667
57503SOL    HW279368   6.014   5.744  10.532  0.0659  0.9768 -0.5179
57504SOL     OW79369  11.060   7.927   2.699  0.1881  0.0191 -0.5838
57504SOL    HW179370  11.011   7.852   2.732 -1.0429  1.2915  0.6766
57504SOL    HW279371  11.037   7.931   2.606 -0.3430 -0.7195 -0.4966
57505SOL     OW79372   0.317   8.317   4.473  0.1003 -0.2910  0.4454
57505SOL    HW179373   0.405   8.280   4.466 -0.0206 -0.3340 -1.0712
57505SOL    HW279374   0.318   8.364   4.556  1.7736  0.2610  0.1488
57506SOL     OW79375   8.019   9.400   9.127 -0.3127 -0.0152 -0.4296
57506SOL    HW179376   8.045   9.454   9.202  0.4122 -1.6572  0.5636
57506SOL    HW279377   8.072   9.321   9.136 -0.2601 -0.2833 -2.6682
57507SOL     OW79378   3.578  10.778   2.988  0.2221  0.1920 -0.4819
57507SOL    HW179379   3.649  10.715   2.974  0.8341  0.4956  1.0113
57507SOL    HW279380   3.619  10.864   2.974 -0.0344  0.3453 -0.3050
57508SOL     OW79381   3.508  10.866   5.880 -0.3769  0.1233  0.0486
57508SOL    HW179382   3.596  10.862   5.844  0.0317  0.5765  0.9517
57508SOL    HW279383   3.450  10.849   5.806  0.4843 -0.9125 -0.4168
57509SOL     OW79384   3.332   3.445  11.659 -0.1607 -0.1390  0.1633
57509SOL    HW179385   3.422   3.473  11.673 -0.4189  0.1251  1.3880
57509SOL    HW279386   3.312   3.387  11.733 -0.6937 -0.9573 -0.6004
57510SOL     OW79387   0.415   3.579   0.580  0.6014 -0.7498  0.8540
57510SOL    HW179388   0.415   3.614   0.491  0.6368  0.6598  1.3715
57510SOL    HW279389   0.365   3.643   0.631  2.7871 -0.0735  2.3544
57511SOL     OW79390   3.527   0.970   0.730  0.8074 -0.6183  0.2656
57511SOL    HW179391   3.454   0.934   0.781 -0.7664 -1.6835 -2.5507
57511SOL    HW279392   3.592   0.900   0.730 -0.2053 -1.6087 -1.1235
57512SOL     OW79393   1.348   2.061   4.772 -0.0962  0.7427 -0.5229
57512SOL    HW179394   1.375   2.058   4.680  1.2514  0.9433 -0.1596
57512SOL    HW279395   1.325   1.971   4.793  1.3765  0.3170 -0.5837
57513SOL     OW79396   9.090   8.375   5.622 -0.2689 -0.0449  0.1668
57513SOL    HW179397   9.124   8.400   5.537 -1.8460  0.6215 -0.3101
57513SOL    HW279398   9.039   8.295   5.606 -0.8999  0.2998  0.3799
57514SOL     OW79399   3.951   8.745   8.815 -0.0899  1.3583  0.6145
57514SOL    HW179400   4.012   8.721   8.745 -1.9750  1.3222 -1.1114
57514SOL    HW279401   3.965   8.679   8.883  0.7608  0.4675 -0.3894
57515SOL     OW79402   8.719  12.269   2.696 -0.5991 -0.3190 -0.2957
57515SOL    HW179403   8.629  12.238   2.705 -1.0074  0.6259 -0.9687
57515SOL    HW279404   8.762  12.243   2.778 -1.6019 -0.3921  0.2141
57516SOL     OW79405  10.776   7.902   5.644  0.1949  0.2055 -0.2477
57516SOL    HW179406  10.799   7.858   5.563  0.3091  0.1247 -0.1720
57516SOL    HW279407  10.815   7.989   5.638 -0.7055  0.5907 -0.7466
57517SOL     OW79408   0.830   8.073   8.338 -0.0871  1.0742 -0.0923
57517SOL    HW179409   0.764   8.007   8.360 -0.2766  1.1352 -0.4789
57517SOL    HW279410   0.793   8.122   8.265  0.2916  1.2534 -0.1703
57518SOL     OW79411   1.820  11.758  11.441  0.7353  0.3798  0.1573
57518SOL    HW179412   1.812  11.845  11.482 -1.8488 -0.3202  1.3523
57518SOL    HW279413   1.753  11.705  11.484  0.4867 -1.5158 -2.3333
57519SOL     OW79414  10.740   3.901   0.736  0.1543 -0.1274  0.2631
57519SOL    HW179415  10.727   3.807   0.750  1.3909 -0.2954  0.4956
57519SOL    HW279416  10.664   3.930   0.686 -0.4129 -1.1825  0.4889
57520SOL     OW79417   1.570  11.761   9.914 -0.7301  0.1309 -0.1725
57520SOL    HW179418   1.596  11.703   9.843 -0.8438 -0.9158  0.6181
57520SOL    HW279419   1.595  11.849   9.884  1.3329 -0.5238 -0.5549
57521SOL     OW79420  10.299   3.139   3.123  0.2624  0.4066  0.0910
57521SOL    HW179421  10.289   3.216   3.179 -0.9139  1.4617 -1.4737
57521SOL    HW279422  10.266   3.066   3.175 -1.9675  1.5495  0.3763
57522SOL     OW79423   8.320   7.745  11.115 -0.4952 -0.5560  0.3378
57522SOL    HW179424   8.230   7.714  11.106 -0.6891 -0.2175  1.0461
57522SOL    HW279425   8.317   7.805  11.190 -0.4330  2.2823 -1.7632
57523SOL     OW79426   7.952   5.961   3.849 -0.5340 -0.2658 -0.2684
57523SOL    HW179427   7.933   5.867   3.848 -3.1617  0.1056  2.3642
57523SOL    HW279428   7.963   5.983   3.941  0.0010  2.0294 -0.8172
57524SOL     OW79429  11.971   3.913  11.028 -0.3167 -0.4232  0.6430
57524SOL    HW179430  11.961   3.917  11.123  1.0334 -1.1965  0.8404
57524SOL    HW279431  12.055   3.955  11.010 -0.3980 -0.5902 -0.1807
57525SOL     OW79432   1.920   5.340   5.481 -0.0185  0.2241  0.7529
57525SOL    HW179433   1.894   5.345   5.389  1.3006 -0.9748  0.2595
57525SOL    HW279434   1.865   5.404   5.526 -0.3126  1.2261 -0.9520
57526SOL     OW79435   2.316   2.069   5.449 -0.3028  0.2662 -0.3451
57526SOL    HW179436   2.309   2.013   5.372 -1.2627  0.3751 -0.3529
57526SOL    HW279437   2.364   2.146   5.418  0.1034 -0.0877 -0.6010
57527SOL     OW79438   1.822   6.040  11.393  0.4764  0.0397  0.5387
57527SOL    HW179439   1.741   6.016  11.348  1.4371  0.3058 -1.4686
57527SOL    HW279440   1.814   6.134  11.407 -0.1367 -0.1637  1.6315
57528SOL     OW79441   1.616  10.531  11.241 -0.1846  0.7144  0.2173
57528SOL    HW179442   1.586  10.477  11.314  0.1184  0.2597  0.0177
57528SOL    HW279443   1.537  10.551  11.192 -0.2036 -0.3161 -0.2041
57529SOL     OW79444  10.443  11.114   4.281 -0.2478 -0.0758 -0.2087
57529SOL    HW179445  10.435  11.163   4.199  0.6621 -1.4614 -1.1679
57529SOL    HW279446  10.526  11.066   4.273 -0.8185 -1.3251  0.9055
57530SOL     OW79447   8.823   7.645   7.483 -0.3275 -0.1627 -0.4292
57530SOL    HW179448   8.903   7.698   7.482 -0.5392  0.1890  0.3890
57530SOL    HW279449   8.833   7.589   7.559 -0.5309 -0.6455 -0.7562
57531SOL     OW79450   0.803  11.502   1.883  0.2436 -0.2677  0.1270
57531SOL    HW179451   0.732  11.565   1.877  2.3718  2.4088  0.9965
57531SOL    HW279452   0.816  11.470   1.794  0.0317  1.6680 -0.6345
57532SOL     OW79453  10.562  11.385  10.606 -0.5033  0.0102  0.1739
57532SOL    HW179454  10.510  11.311  10.635  0.8650 -0.5804  1.2483
57532SOL    HW279455  10.604  11.417  10.686  2.1468 -0.6469 -0.8686
57533SOL     OW79456   1.762   3.397   9.173 -0.2551  0.2959 -0.0029
57533SOL    HW179457   1.774   3.445   9.091 -0.4111 -0.1611 -0.2955
57533SOL    HW279458   1.667   3.393   9.185 -0.2170  1.3049  0.7670
57534SOL     OW79459   3.391   4.391   0.999 -0.4686  0.7169 -0.2197
57534SOL    HW179460   3.451   4.465   0.998 -0.5987  0.8487  0.6025
57534SOL    HW279461   3.406   4.349   1.084 -1.2603  0.5308 -0.1622
57535SOL     OW79462   6.194   4.143  11.420  0.0313  0.6096 -0.3358
57535SOL    HW179463   6.105   4.109  11.417  0.3493 -0.1777 -1.1432
57535SOL    HW279464   6.223   4.128  11.510 -1.1421  2.2189  0.3642
57536SOL     OW79465  12.257   4.219   2.422  0.3240 -0.2032  0.4138
57536SOL    HW179466  12.207   4.225   2.503 -0.2032  0.7057  0.0323
57536SOL    HW279467  12.325   4.285   2.431  1.7131 -1.6606  1.0726
57537SOL     OW79468   4.880   5.826  12.104 -0.2034 -0.2118 -0.1587
57537SOL    HW179469   4.837   5.912  12.098 -0.0280 -0.1790 -1.1687
57537SOL    HW279470   4.924   5.827  12.189 -1.6388  0.0083  0.6198
57538SOL     OW79471   2.054   4.315  12.456  0.4762  0.3144  0.4494
57538SOL    HW179472   2.109   4.238  12.443 -0.5452 -0.1998 -1.0784
57538SOL    HW279473   2.117   4.388  12.465  1.4474 -0.2384 -1.2836
57539SOL     OW79474  10.015   2.015   3.644  0.1312 -0.1524 -0.3243
57539SOL    HW179475  10.077   2.087   3.631 -0.5365  0.3471 -0.8004
57539SOL    HW279476   9.931   2.050   3.615 -0.1194 -1.2821 -1.0421
57540SOL     OW79477   6.505  11.311   1.605  0.1299 -0.1180  0.4682
57540SOL    HW179478   6.532  11.389   1.653  0.3783 -0.3843  0.7637
57540SOL    HW279479   6.496  11.341   1.515 -0.6503  0.4622  0.7226
57541SOL     OW79480  10.483   2.693   8.104 -0.2342  0.0602 -0.2522
57541SOL    HW179481  10.394   2.680   8.136  0.2088 -2.9592  0.0831
57541SOL    HW279482  10.522   2.754   8.167 -1.3797 -0.4836  1.0395
57542SOL     OW79483   4.747   4.796   7.421 -0.5538  0.2487 -0.1770
57542SOL    HW179484   4.741   4.832   7.510 -0.5762  0.3497 -0.2190
57542SOL    HW279485   4.838   4.768   7.414 -0.3379  0.9782 -0.3997
57543SOL     OW79486  12.305   5.782   8.850  0.3048  0.1679  0.0108
57543SOL    HW179487  12.216   5.796   8.881  0.8082  0.7186  1.2551
57543SOL    HW279488  12.361   5.813   8.921  1.5284 -3.4857  0.8451
57544SOL     OW79489   3.903   7.762   5.987 -0.0057 -0.3509 -0.5600
57544SOL    HW179490   3.940   7.783   5.901  1.9427  0.6486  0.4602
57544SOL    HW279491   3.858   7.678   5.974  0.0116 -0.0929 -2.5855
57545SOL     OW79492   2.704   9.884   2.707  0.3164 -0.4697  0.1399
57545SOL    HW179493   2.765   9.875   2.634 -0.9816 -0.9047 -0.9333
57545SOL    HW279494   2.755   9.858   2.784  1.7287  0.0391 -0.5905
57546SOL     OW79495  11.754   2.514   4.775 -0.0138  0.0624  0.3099
57546SOL    HW179496  11.811   2.542   4.847 -1.2512  0.6251  1.0912
57546SOL    HW279497  11.814   2.475   4.711  0.9718 -2.4795  2.5603
57547SOL     OW79498   4.526   9.029   7.168  0.0621  0.5074  0.1170
57547SOL    HW179499   4.512   9.113   7.213 -0.5378  0.0842  0.7462
57547SOL    HW279500   4.519   8.963   7.237 -2.4536 -0.2897 -0.7747
57548SOL     OW79501   9.689   8.639   2.308  0.9984  0.6450 -0.1026
57548SOL    HW179502   9.599   8.637   2.275  0.7310  0.2404  0.6293
57548SOL    HW279503   9.686   8.588   2.389  1.6312  1.6162  0.5633
57549SOL     OW79504   6.508   4.681   3.060  0.2680 -0.0580 -0.3140
57549SOL    HW179505   6.544   4.628   3.131 -1.6629 -1.4551 -0.2884
57549SOL    HW279506   6.547   4.767   3.072  3.7509 -1.4482 -0.5108
57550SOL     OW79507   7.539   3.403   5.005 -0.0443  0.2472 -0.8016
57550SOL    HW179508   7.496   3.371   4.925  0.7148  0.9542 -1.5038
57550SOL    HW279509   7.625   3.362   5.003 -1.3362 -3.0016  1.7607
57551SOL     OW79510   1.342  11.600  10.029  0.5331  0.2910 -0.4725
57551SOL    HW179511   1.385  11.556  10.102 -0.0650 -1.4101 -1.1144
57551SOL    HW279512   1.405  11.595   9.958  0.3659  0.2517 -0.6184
57552SOL     OW79513  11.920   5.610   3.523  0.2032  0.1198 -0.7430
57552SOL    HW179514  11.964   5.661   3.455  0.0777 -0.4970 -1.2905
57552SOL    HW279515  11.977   5.534   3.536 -0.0511 -0.0346 -0.5356
57553SOL     OW79516   8.535   5.805   9.112  0.0472  0.5118  0.0997
57553SOL    HW179517   8.499   5.894   9.112 -1.4660 -0.0710  0.0813
57553SOL    HW279518   8.617   5.813   9.062 -0.8496  1.6064 -1.2910
57554SOL     OW79519   0.567  11.463   2.885 -0.1064  0.1488  0.0436
57554SOL    HW179520   0.608  11.443   2.801  1.0400  0.2379  0.5694
57554SOL    HW279521   0.548  11.377   2.924 -0.6499  0.1083 -0.3061
57555SOL     OW79522   4.528   3.335   1.012 -0.1859 -0.6135 -0.5075
57555SOL    HW179523   4.617   3.370   1.016 -0.6611  0.6790 -0.6924
57555SOL    HW279524   4.536   3.246   1.045  0.6975  0.4424  2.4712
57556SOL     OW79525  10.508   4.010   1.442  1.0835 -0.5983 -0.0653
57556SOL    HW179526  10.493   3.927   1.397 -1.6014 -0.1837 -0.1017
57556SOL    HW279527  10.561   3.987   1.519 -1.2945 -2.7721  1.0759
57557SOL     OW79528   2.557  11.825   2.904  0.2885  0.6103 -0.1937
57557SOL    HW179529   2.582  11.831   2.996  0.2573  0.7072 -0.1906
57557SOL    HW279530   2.485  11.887   2.895 -0.0061  0.2704 -0.1823
57558SOL     OW79531   8.600   0.528   3.998  0.0992 -0.2637 -0.0881
57558SOL    HW179532   8.679   0.568   4.034  1.0302 -2.0844  0.0177
57558SOL    HW279533   8.594   0.562   3.908  1.6323 -0.9075 -0.4627
57559SOL     OW79534  11.363   7.725   1.115  0.2896 -0.1204  0.0480
57559SOL    HW179535  11.293   7.766   1.166  0.3961  0.5975 -0.3724
57559SOL    HW279536  11.318   7.662   1.059 -0.2927  1.6498 -1.5867
57560SOL     OW79537   3.425   7.445   4.804 -0.2822 -0.0649 -0.1016
57560SOL    HW179538   3.352   7.506   4.796 -0.1498 -0.0890 -1.6396
57560SOL    HW279539   3.449   7.449   4.897 -1.6082  0.6534  0.2354
57561SOL     OW79540   7.348   3.909  11.695  0.2735 -0.0596  0.1588
57561SOL    HW179541   7.327   3.954  11.776 -0.9824 -0.3663  0.0249
57561SOL    HW279542   7.264   3.895  11.652  0.9897  1.1967 -1.7998
57562SOL     OW79543   9.630   4.887   7.871  0.1361 -0.1529  0.4571
57562SOL    HW179544   9.693   4.817   7.853 -1.1326 -1.2402  0.0381
57562SOL    HW279545   9.681   4.967   7.867  1.2566 -0.8883 -1.2486
57563SOL     OW79546   9.236   2.114  11.033 -0.4964 -0.6020  0.0468
57563SOL    HW179547   9.143   2.089  11.037 -0.0145 -2.4966  0.2053
57563SOL    HW279548   9.283   2.035  11.061  1.1503  0.5228  0.5819
57564SOL     OW79549   7.343   5.807   2.357  0.5865 -0.4214 -0.0272
57564SOL    HW179550   7.387   5.723   2.353  1.3059 -0.0309 -0.4353
57564SOL    HW279551   7.390   5.863   2.295 -0.3725  0.0584 -0.3589
57565SOL     OW79552   9.462   5.395   1.141  0.3521  0.0581  0.0644
57565SOL    HW179553   9.442   5.383   1.048  1.3017 -0.3710 -0.1027
57565SOL    HW279554   9.452   5.308   1.179  0.5198  0.1170  0.2455
57566SOL     OW79555   1.824  12.081   3.390  0.2255 -0.1038 -0.3497
57566SOL    HW179556   1.901  12.087   3.334  1.2694 -4.3206  0.3163
57566SOL    HW279557   1.840  12.148   3.458  0.6791  2.5845 -2.8787
57567SOL     OW79558  12.418   5.653   3.036  0.0868 -0.2022  0.6362
57567SOL    HW179559  12.443   5.613   2.952  0.1327  0.3671  0.3749
57567SOL    HW279560  12.500   5.658   3.085  0.4213  1.1811 -0.0181
57568SOL     OW79561   5.267   4.114   1.698 -0.3962  0.0076 -0.2164
57568SOL    HW179562   5.180   4.147   1.674 -0.2735  1.5500  1.2251
57568SOL    HW279563   5.259   4.019   1.694 -2.0105  0.1333 -0.5649
57569SOL     OW79564   6.867   7.919   1.194 -0.0059 -0.3785 -0.5707
57569SOL    HW179565   6.827   7.972   1.125  0.0676  0.3583 -0.0604
57569SOL    HW279566   6.957   7.950   1.199 -0.3820  0.5763  0.8115
57570SOL     OW79567   6.196  12.009  12.293  0.3788 -0.0242 -0.2998
57570SOL    HW179568   6.228  11.965  12.214  0.0666  0.2094 -0.5586
57570SOL    HW279569   6.174  11.938  12.353  1.3522 -0.1934 -0.1223
57571SOL     OW79570   5.860   4.784   8.038  0.4373  0.3146  0.6575
57571SOL    HW179571   5.816   4.726   7.977  1.0202  0.7969 -0.2469
57571SOL    HW279572   5.952   4.759   8.033  0.7275  1.3936  0.1255
57572SOL     OW79573   3.907   4.187  11.778  0.5489  0.3785 -0.0799
57572SOL    HW179574   3.852   4.187  11.856  0.4472  0.4130 -0.1523
57572SOL    HW279575   3.986   4.139  11.805 -0.0208 -0.7298 -0.3415
57573SOL     OW79576   1.418   1.425   3.571 -0.6776  0.7390  0.0528
57573SOL    HW179577   1.475   1.381   3.508  0.3554  0.3142  1.2493
57573SOL    HW279578   1.350   1.465   3.517  0.4163  0.7749 -1.3770
57574SOL     OW79579   2.179   0.000   6.553  0.8801  0.5283 -0.5653
57574SOL    HW179580   2.196  -0.083   6.510 -2.3081  0.6131 -2.2880
57574SOL    HW279581   2.154  -0.024   6.642  2.1459 -0.1018 -0.3492
57575SOL     OW79582   8.929   6.085  12.478  0.1300  0.6599  0.3300
57575SOL    HW179583   9.019   6.061  12.499 -0.2151 -2.7338 -1.3766
57575SOL    HW279584   8.936   6.141  12.401  0.8056 -0.7698 -0.6916
57576SOL     OW79585   3.310   0.536   0.985  0.4204  0.4015 -0.2661
57576SOL    HW179586   3.366   0.505   0.914  1.4220  0.6982  0.3693
57576SOL    HW279587   3.303   0.630   0.972 -0.1437  0.3310 -0.4864
57577SOL     OW79588   7.676   6.092   1.322  0.5157 -0.2054  0.4160
57577SOL    HW179589   7.640   6.021   1.269 -1.1642  3.4184 -4.0048
57577SOL    HW279590   7.601   6.125   1.371  0.4562  0.4745 -0.1171
57578SOL     OW79591   6.467   2.378   9.084  0.7007  0.2751  0.1168
57578SOL    HW179592   6.399   2.349   9.024  1.8909  0.4617 -1.3952
57578SOL    HW279593   6.508   2.453   9.039  3.8229 -1.5976 -0.5126
57579SOL     OW79594  10.676   5.223   1.629 -0.0692  0.6986 -0.1513
57579SOL    HW179595  10.703   5.260   1.714 -0.7652 -0.1470  0.4553
57579SOL    HW279596  10.582   5.239   1.625  0.0115  1.0032 -0.9150
57580SOL     OW79597   6.670   2.833   3.932 -0.4091 -0.5024 -0.1675
57580SOL    HW179598   6.653   2.897   3.863 -2.1630 -0.6854  0.0705
57580SOL    HW279599   6.737   2.875   3.986 -1.0153  0.8386 -0.4141
57581SOL     OW79600   3.349   6.534   2.795 -0.1102  0.2349  0.2828
57581SOL    HW179601   3.264   6.554   2.834 -1.2928 -1.3104 -1.3507
57581SOL    HW279602   3.339   6.558   2.703 -0.0047 -3.0945 -0.7008
57582SOL     OW79603   4.934   9.327   0.713  0.9292 -0.1573 -0.4367
57582SOL    HW179604   4.926   9.312   0.807  1.1945  1.4849 -0.1168
57582SOL    HW279605   5.017   9.374   0.703  1.4461 -1.2636 -1.6296
57583SOL     OW79606  10.686   7.413   2.410 -0.8778 -0.0180 -0.0611
57583SOL    HW179607  10.681   7.339   2.350  1.2912  0.5046 -0.9488
57583SOL    HW279608  10.594   7.439   2.423 -1.5549 -1.6599 -1.1940
57584SOL     OW79609   7.671  10.819   8.339 -0.5787  0.2119  0.3455
57584SOL    HW179610   7.715  10.880   8.279  0.2531 -1.1704 -0.5132
57584SOL    HW279611   7.709  10.839   8.424  0.0136  0.6134 -0.0009
57585SOL     OW79612  10.433   7.943   8.374 -0.2239 -0.5768 -0.2610
57585SOL    HW179613  10.444   7.975   8.464  1.2630  1.4370 -1.0866
57585SOL    HW279614  10.340   7.923   8.367 -0.5612  0.1926  1.4288
57586SOL     OW79615   9.367   4.145  11.895  0.8314  0.4517  0.2591
57586SOL    HW179616   9.364   4.240  11.882  3.3436  0.5223 -0.2670
57586SOL    HW279617   9.460   4.124  11.900  0.3566 -2.0573 -0.0116
57587SOL     OW79618   8.680   2.503   6.696  0.1168  0.0469  0.0444
57587SOL    HW179619   8.663   2.595   6.718 -1.3750  0.0452 -0.9602
57587SOL    HW279620   8.605   2.456   6.733  0.0342 -0.5450 -0.8468
57588SOL     OW79621   3.464   1.218   4.922 -0.3433 -0.1557 -0.0037
57588SOL    HW179622   3.384   1.173   4.950 -0.6700  0.3765 -0.0621
57588SOL    HW279623   3.444   1.311   4.933  0.7208 -0.0421  1.2305
57589SOL     OW79624   7.166   8.746  12.532 -0.3019  0.7595  0.2833
57589SOL    HW179625   7.197   8.655  12.531 -1.9530  0.1653 -0.1968
57589SOL    HW279626   7.200   8.781  12.615 -0.6881 -0.6946  1.1007
57590SOL     OW79627   5.258   4.990   5.439 -0.0064 -0.3077 -0.0462
57590SOL    HW179628   5.178   4.938   5.451 -0.5604  0.4776 -0.2437
57590SOL    HW279629   5.286   4.971   5.349  0.2604 -0.8974  0.1608
57591SOL     OW79630  10.707   6.631   0.731  0.2045  0.0855 -0.6027
57591SOL    HW179631  10.668   6.617   0.645 -0.3180  1.0341 -0.5337
57591SOL    HW279632  10.633   6.658   0.786  1.0020  2.4704 -0.6011
57592SOL     OW79633   1.760   6.152  10.498  0.4304  0.6332  0.0668
57592SOL    HW179634   1.854   6.169  10.492  0.6908 -0.6229  0.3973
57592SOL    HW279635   1.738   6.172  10.589  0.4649  0.4706  0.1098
57593SOL     OW79636   9.504   9.792   5.745  0.1348 -0.3873  0.3983
57593SOL    HW179637   9.537   9.824   5.661 -0.4110  0.5999  0.5417
57593SOL    HW279638   9.490   9.872   5.797 -2.6977 -0.6883  0.2525
57594SOL     OW79639   4.130   0.757   3.783 -0.4753 -0.1730 -0.5709
57594SOL    HW179640   4.070   0.794   3.848 -0.5642 -0.2074 -0.6350
57594SOL    HW279641   4.179   0.832   3.750  1.7051 -0.4588  1.7235
57595SOL     OW79642   3.832   1.929   8.969 -0.4152 -0.0633 -0.0454
57595SOL    HW179643   3.800   1.989   9.037 -0.0581  0.2581 -0.1564
57595SOL    HW279644   3.880   1.862   9.017 -1.8073 -0.9435  0.1923
57596SOL     OW79645   1.977   9.751   0.116 -0.8029  0.7884 -0.3540
57596SOL    HW179646   1.994   9.841   0.142 -2.0300  0.6944  0.8731
57596SOL    HW279647   2.048   9.700   0.156 -0.2420  1.1560 -0.8569
57597SOL     OW79648   1.242   2.605   0.639  1.0110 -0.0908  0.6463
57597SOL    HW179649   1.219   2.662   0.565 -2.2549 -0.1896  1.4138
57597SOL    HW279650   1.285   2.663   0.701  1.3783  0.6027 -0.2279
57598SOL     OW79651   3.881   3.063   8.143 -0.2907  0.0110  0.0746
57598SOL    HW179652   3.961   3.115   8.131 -0.0707 -0.4736 -0.6044
57598SOL    HW279653   3.869   3.059   8.238  0.3720  0.2705  0.1747
57599SOL     OW79654   2.950  11.034   1.737 -0.8876 -0.0404  0.0482
57599SOL    HW179655   2.940  10.947   1.699 -0.9638 -0.6378  1.3705
57599SOL    HW279656   2.996  11.019   1.820  0.9332  1.4127 -0.6380
57600SOL     OW79657   5.284   1.761   0.582  0.0956 -0.3124  0.0142
57600SOL    HW179658   5.213   1.808   0.538  0.4390 -0.5301 -0.7964
57600SOL    HW279659   5.352   1.828   0.596 -0.3372 -0.0566  0.9785
57601SOL     OW79660   4.528   0.839   4.586 -0.1297  0.0003  0.1610
57601SOL    HW179661   4.614   0.839   4.544  0.4196  0.5057  1.2296
57601SOL    HW279662   4.491   0.754   4.565  0.0960  0.2581 -1.3726
57602SOL     OW79663   3.963   5.718   0.887  0.2973 -0.3615  0.0707
57602SOL    HW179664   4.056   5.709   0.908  0.1920 -0.3429  0.5566
57602SOL    HW279665   3.929   5.629   0.886  0.0487 -0.2871  1.1771
57603SOL     OW79666   3.338   7.257   0.555 -0.4567 -0.1021  0.8712
57603SOL    HW179667   3.253   7.238   0.594  0.2685 -1.2073  2.0284
57603SOL    HW279668   3.396   7.270   0.630  0.4921  0.1478  0.1163
57604SOL     OW79669   1.891   8.259   1.808 -0.6040  0.6658  0.2540
57604SOL    HW179670   1.892   8.182   1.752 -1.9375 -0.0737  1.1767
57604SOL    HW279671   1.847   8.230   1.888 -0.7476  2.2672  0.8016
57605SOL     OW79672  12.306   7.849   0.788 -0.2865 -0.2959 -0.1442
57605SOL    HW179673  12.386   7.798   0.782 -0.6060 -0.7755 -0.3662
57605SOL    HW279674  12.245   7.807   0.727 -1.1768 -0.8115  1.0462
57606SOL     OW79675   5.672   3.373   0.546  0.1459  0.4608  0.6939
57606SOL    HW179676   5.739   3.320   0.502  1.3958  1.3819  1.4196
57606SOL    HW279677   5.655   3.328   0.628 -1.0830 -0.4450 -0.0199
57607SOL     OW79678   7.212   8.049   5.783 -0.1441  0.3933  0.2491
57607SOL    HW179679   7.203   8.056   5.688 -1.0726  0.2663  0.3138
57607SOL    HW279680   7.121   8.047   5.815  0.1482  1.2716  1.1935
57608SOL     OW79681   3.695   7.172   0.943 -0.3014 -0.1126 -0.0786
57608SOL    HW179682   3.729   7.259   0.962  1.5936 -1.0309  1.0386
57608SOL    HW279683   3.726   7.118   1.015  0.7035 -2.2126 -1.9588
57609SOL     OW79684   7.263   3.564   1.026  0.3293 -0.4090 -0.3135
57609SOL    HW179685   7.352   3.537   1.003 -0.0848 -1.0517 -1.2397
57609SOL    HW279686   7.211   3.484   1.013 -0.4507  0.0787 -0.2033
57610SOL     OW79687   7.402   9.917   1.829  0.2525 -0.0626  0.1336
57610SOL    HW179688   7.444  10.002   1.814  0.1694 -0.3476 -2.0208
57610SOL    HW279689   7.406   9.873   1.744 -1.5463 -1.3988  0.6830
57611SOL     OW79690   4.860   5.265   4.774 -0.0164  0.0440 -0.0305
57611SOL    HW179691   4.895   5.186   4.732 -1.0136  0.2884 -1.4088
57611SOL    HW279692   4.785   5.234   4.825  0.6102 -0.1222  0.7970
57612SOL     OW79693   5.505   0.649   1.392 -0.0076 -0.9012  0.3441
57612SOL    HW179694   5.484   0.742   1.390  2.8437 -0.1793 -0.7455
57612SOL    HW279695   5.507   0.623   1.300 -0.9106 -2.0946  0.6445
57613SOL     OW79696   6.016   8.586   1.783  0.9928 -0.6532  0.2183
57613SOL    HW179697   5.992   8.562   1.694  1.2067 -0.3080  0.0633
57613SOL    HW279698   6.008   8.505   1.833 -2.0558 -0.2641  0.5407
57614SOL     OW79699  11.724   2.619   3.625  0.5261  0.0674  0.1946
57614SOL    HW179700  11.640   2.609   3.580  0.5743 -0.2239  0.1724
57614SOL    HW279701  11.788   2.631   3.555  0.5488 -0.0219  0.2002
57615SOL     OW79702   7.445  12.374   8.184  0.4928  0.1462  0.8478
57615SOL    HW179703   7.447  12.455   8.133 -1.1614 -1.2289 -1.5762
57615SOL    HW279704   7.412  12.401   8.270 -2.3405  1.8112 -0.5952
57616SOL     OW79705   1.190   5.837   3.896  0.5057 -0.4813 -0.0436
57616SOL    HW179706   1.102   5.857   3.929  0.5429 -0.0420 -0.2069
57616SOL    HW279707   1.246   5.840   3.974  0.4985 -0.0212 -0.0542
57617SOL     OW79708   4.550   8.948   9.811 -0.0176  0.0876  0.1618
57617SOL    HW179709   4.594   9.031   9.795 -0.6092  0.3344 -0.2440
57617SOL    HW279710   4.615   8.894   9.857  0.8980  0.2539 -0.8733
57618SOL     OW79711   3.685   1.842  11.787 -0.7324 -0.0242 -0.1816
57618SOL    HW179712   3.767   1.857  11.834 -1.3900 -0.5395  1.1859
57618SOL    HW279713   3.651   1.760  11.824 -1.1615 -0.5983 -1.7613
57619SOL     OW79714  12.307   4.787   0.517 -0.6250 -0.1364 -1.1201
57619SOL    HW179715  12.238   4.721   0.523 -0.0929 -0.6015  0.3503
57619SOL    HW279716  12.387   4.739   0.536 -0.2814  1.0251  0.5893
57620SOL     OW79717  11.025   4.195   0.118  0.4360  0.4848  0.2242
57620SOL    HW179718  10.955   4.252   0.151  1.1353  2.0643 -0.9113
57620SOL    HW279719  10.990   4.159   0.037  1.1793  1.8973 -0.7626
57621SOL     OW79720   8.453   2.017   5.721 -0.0425 -0.2582 -0.2328
57621SOL    HW179721   8.367   1.985   5.694 -0.1347 -0.7514  0.6138
57621SOL    HW279722   8.443   2.113   5.724 -0.2067 -0.2297 -1.2868
57622SOL     OW79723   9.395   6.472   3.141 -0.2605  0.2831 -0.0910
57622SOL    HW179724   9.371   6.560   3.171 -1.5125 -0.2052  0.4168
57622SOL    HW279725   9.367   6.414   3.212 -0.4799 -0.6242 -0.8956
57623SOL     OW79726   3.216  11.981   1.682 -0.0876  0.3171  0.0946
57623SOL    HW179727   3.254  11.937   1.758  0.0624  2.3749  1.2892
57623SOL    HW279728   3.192  11.910   1.623 -1.0865 -1.4817  2.4586
57624SOL     OW79729   8.570   4.176   3.262 -0.5191 -0.2764  0.3794
57624SOL    HW179730   8.514   4.103   3.289 -1.6649  0.4746  0.1096
57624SOL    HW279731   8.554   4.244   3.327 -1.6735  0.7671 -0.9318
57625SOL     OW79732   1.265   5.421   1.483 -0.6373 -0.8841  0.3316
57625SOL    HW179733   1.267   5.359   1.411  1.2572  0.2082 -0.6358
57625SOL    HW279734   1.174   5.421   1.513 -1.2415 -2.1102 -1.3669
57626SOL     OW79735   6.488  10.319   5.789  0.6933 -0.0963 -0.2593
57626SOL    HW179736   6.534  10.364   5.718  1.8139  0.1304  0.5840
57626SOL    HW279737   6.544  10.331   5.865  0.4629 -1.9575  0.2512
57627SOL     OW79738  10.421   5.509   1.818  0.8214  0.3149  0.1664
57627SOL    HW179739  10.421   5.451   1.742 -0.1224 -0.7110  0.9180
57627SOL    HW279740  10.366   5.464   1.883  0.6013  1.7470  1.0150
57628SOL     OW79741   5.117   5.834  10.995 -0.6281 -0.1501 -0.2839
57628SOL    HW179742   5.205   5.861  10.970  0.3118 -0.9051  1.9219
57628SOL    HW279743   5.069   5.916  11.008  0.7300  0.4140  1.5763
57629SOL     OW79744   9.271  12.110   4.739 -0.1084 -0.2774 -0.4278
57629SOL    HW179745   9.347  12.062   4.772  0.4335  1.1394  0.4557
57629SOL    HW279746   9.196  12.060   4.773  0.4190 -1.0348 -0.3291
57630SOL     OW79747   0.019   6.589   2.793  0.7437 -0.2455  0.0011
57630SOL    HW179748  -0.010   6.543   2.714  2.6656  0.6264 -1.2987
57630SOL    HW279749   0.096   6.639   2.764  0.1020  1.9876  1.8574
57631SOL     OW79750  10.278   4.762   6.771  0.4786  0.2084  0.1368
57631SOL    HW179751  10.295   4.857   6.766 -0.7823  0.4586  0.3081
57631SOL    HW279752  10.343   4.730   6.833  0.8814  0.9779  0.1340
57632SOL     OW79753   7.541   5.489  10.911 -0.2662  0.4438  0.1408
57632SOL    HW179754   7.575   5.460  10.996 -0.1819  0.3413  0.0718
57632SOL    HW279755   7.618   5.510  10.860 -0.1322 -2.1034 -0.8726
57633SOL     OW79756   8.510   2.679   6.152 -0.0816 -0.6556 -0.0673
57633SOL    HW179757   8.576   2.668   6.220 -0.0303 -0.8989 -0.1533
57633SOL    HW279758   8.475   2.767   6.165  1.0235 -0.0977 -0.6932
57634SOL     OW79759   6.336  11.463   0.647 -0.2096 -0.0438  0.2898
57634SOL    HW179760   6.413  11.415   0.678  1.0866  0.5528 -1.8097
57634SOL    HW279761   6.262  11.410   0.675  1.0208 -1.4929  0.9633
57635SOL     OW79762   8.141   8.465   8.433  0.1085  0.1499  0.6628
57635SOL    HW179763   8.147   8.379   8.475  0.0423 -0.3652 -0.3660
57635SOL    HW279764   8.160   8.527   8.504  0.0877 -0.6992  1.4344
57636SOL     OW79765  11.086   5.043   8.163  0.3698  0.0288 -0.1545
57636SOL    HW179766  11.095   5.020   8.070  1.8394 -1.1091  0.2250
57636SOL    HW279767  11.158   4.997   8.206  0.4174  1.4507  1.3998
57637SOL     OW79768   8.456   8.731  10.200  0.7394 -0.0313 -0.3845
57637SOL    HW179769   8.474   8.778  10.119  2.3491 -0.6487 -0.4215
57637SOL    HW279770   8.362   8.713  10.197  0.6101  0.7721 -1.6615
57638SOL     OW79771   1.931   0.729   0.317 -0.0849  0.3100  0.2781
57638SOL    HW179772   1.889   0.813   0.336  0.6359  0.7272  0.0972
57638SOL    HW279773   1.876   0.688   0.251 -0.1624  0.8854 -0.0189
57639SOL     OW79774  10.975   6.700   0.790  0.4646 -0.0171 -0.4892
57639SOL    HW179775  11.025   6.639   0.736  0.0173 -0.9063  0.0784
57639SOL    HW279776  10.884   6.679   0.771  0.3012  1.1939 -1.0762
57640SOL     OW79777   0.695   6.596  10.150 -0.0408  0.1202  0.4786
57640SOL    HW179778   0.703   6.512  10.104  0.3499 -0.5877  1.7817
57640SOL    HW279779   0.601   6.607  10.164 -0.1319  0.1588 -0.1433
57641SOL     OW79780   2.969   3.551   4.280  0.5974 -0.3718 -0.0434
57641SOL    HW179781   2.888   3.600   4.294  1.1045 -0.2096  2.8645
57641SOL    HW279782   2.945   3.460   4.295  0.9450 -0.3182  0.8794
57642SOL     OW79783  11.963  11.733   1.698  0.7427 -0.2394 -0.2133
57642SOL    HW179784  11.905  11.674   1.650 -1.9072  1.1080  1.1143
57642SOL    HW279785  11.983  11.686   1.778 -2.1745  0.8492  1.3025
57643SOL     OW79786   2.190   4.616   7.344 -0.3343  0.5640 -0.0193
57643SOL    HW179787   2.236   4.533   7.329 -1.1406 -0.0608  0.8617
57643SOL    HW279788   2.108   4.606   7.295 -0.3659  0.9032 -0.0325
57644SOL     OW79789   5.517   1.580   1.631 -0.2057  0.1302 -0.2089
57644SOL    HW179790   5.476   1.630   1.702 -1.1177 -1.1412  0.1890
57644SOL    HW279791   5.535   1.494   1.669 -0.7977 -0.6050 -1.5274
57645SOL     OW79792   2.950   5.303  11.707  0.1227 -0.4145  0.4284
57645SOL    HW179793   3.002   5.229  11.678  0.8226 -0.1233  0.9259
57645SOL    HW279794   2.962   5.307  11.801 -0.3870 -0.0307  0.4861
57646SOL     OW79795   8.390   3.287   5.051  0.2175 -0.0474  0.0025
57646SOL    HW179796   8.486   3.278   5.046  0.3525  0.7113  0.9661
57646SOL    HW279797   8.376   3.380   5.069 -0.7223 -0.1161 -0.3506
57647SOL     OW79798   2.843  10.541   9.438 -0.4144  0.5850 -0.0012
57647SOL    HW179799   2.919  10.482   9.438 -0.9368 -0.1029  0.1940
57647SOL    HW279800   2.845  10.584   9.524 -0.4951  0.2325  0.1783
57648SOL     OW79801   4.943   8.366  10.115 -0.3411 -0.5722 -0.3464
57648SOL    HW179802   4.871   8.329  10.064  1.2639 -0.8440 -2.6076
57648SOL    HW279803   5.004   8.399  10.049  2.0935 -1.2948  1.3952
57649SOL     OW79804   0.488   6.529   7.422  0.3852 -0.1720  0.7263
57649SOL    HW179805   0.412   6.580   7.450  0.2579 -0.7826  1.4984
57649SOL    HW279806   0.560   6.562   7.476  0.9648  1.2162 -0.7818
57650SOL     OW79807   3.953   1.862   0.044  0.2184  0.6280  0.1395
57650SOL    HW179808   4.008   1.819  -0.021  0.7620  0.9307  0.3920
57650SOL    HW279809   3.885   1.906  -0.008 -0.0893 -0.1730 -0.1400
57651SOL     OW79810  10.204   6.931   2.762 -0.6976  0.0813 -0.0661
57651SOL    HW179811  10.144   7.005   2.758 -1.3129 -0.1509  2.7370
57651SOL    HW279812  10.158   6.860   2.718 -1.4040  0.5684 -0.1268
57652SOL     OW79813   1.294  11.640   9.291  0.3911  0.1356 -0.1216
57652SOL    HW179814   1.254  11.555   9.273 -0.2825 -0.0696  1.9531
57652SOL    HW279815   1.381  11.635   9.254  0.2005 -1.2951 -0.4338
57653SOL     OW79816   7.354   0.514   5.395 -0.0644 -0.6836 -0.1449
57653SOL    HW179817   7.358   0.595   5.447 -0.6828 -1.2201  0.7665
57653SOL    HW279818   7.262   0.488   5.398  0.0248 -1.1221 -0.9183
57654SOL     OW79819  11.231   0.687   9.499 -0.0642  0.1613 -0.1381
57654SOL    HW179820  11.136   0.689   9.487 -0.0610 -0.4000 -0.2592
57654SOL    HW279821  11.267   0.705   9.412 -0.0563  0.0764 -0.1515
57655SOL     OW79822   4.278  11.553   1.062 -0.0256 -0.0508  0.5147
57655SOL    HW179823   4.277  11.642   1.027  0.5695  0.5104  1.8700
57655SOL    HW279824   4.367  11.541   1.095 -0.3874 -0.7693  1.2618
57656SOL     OW79825  11.728   5.059   4.251 -0.8336 -0.3574  0.1131
57656SOL    HW179826  11.670   5.113   4.305 -0.8650 -2.0476  1.8819
57656SOL    HW279827  11.802   5.039   4.307 -0.4464 -1.4908 -0.7643
57657SOL     OW79828   0.539   7.531   5.928 -0.0899 -0.3141  0.3637
57657SOL    HW179829   0.594   7.579   5.866  0.8420 -2.9055 -0.9309
57657SOL    HW279830   0.478   7.482   5.873 -1.1644 -0.4653  1.6481
57658SOL     OW79831   5.924   3.029  11.295 -0.3767  0.3666  0.2648
57658SOL    HW179832   5.893   3.020  11.205  0.8338 -2.8525  0.0480
57658SOL    HW279833   5.845   3.017  11.349 -1.0964  2.2559 -0.2793
57659SOL     OW79834   3.001   1.157  11.599 -0.2992  0.4125  0.5555
57659SOL    HW179835   3.023   1.102  11.674 -0.4802  1.1564  1.1690
57659SOL    HW279836   2.959   1.234  11.637  0.0590  1.0378 -0.2740
57660SOL     OW79837  10.146   4.601   8.783  0.1249 -0.2114 -0.4141
57660SOL    HW179838  10.191   4.552   8.714 -2.6649 -0.8381 -1.9332
57660SOL    HW279839  10.148   4.543   8.859 -2.2736 -2.4571 -1.9056
57661SOL     OW79840   4.341  10.173   0.330 -0.4862 -0.3468 -0.7419
57661SOL    HW179841   4.420  10.122   0.351  1.6150  3.0315  0.2932
57661SOL    HW279842   4.293  10.177   0.412 -0.9184 -0.9800 -0.9508
57662SOL     OW79843   3.004   8.688   9.440 -0.0213  0.3132 -0.5559
57662SOL    HW179844   2.911   8.667   9.432  0.1291  0.0765 -1.8348
57662SOL    HW279845   3.046   8.604   9.458  0.1512  0.0931 -1.9081
57663SOL     OW79846   6.136   9.887  11.045 -0.3800 -0.1858  0.7491
57663SOL    HW179847   6.178   9.929  11.121 -0.0837 -0.8532  0.9633
57663SOL    HW279848   6.051   9.930  11.038  0.2360  1.0249  0.4568
57664SOL     OW79849   4.268   1.599   5.661 -0.1202  0.3301  0.4445
57664SOL    HW179850   4.305   1.596   5.750 -0.0194  0.9640  0.4252
57664SOL    HW279851   4.274   1.691   5.635  3.2433 -0.3263 -1.6388
57665SOL     OW79852   8.869   4.382   6.110 -0.4836 -0.8257  0.0180
57665SOL    HW179853   8.896   4.462   6.065 -1.2699 -0.7960 -0.4100
57665SOL    HW279854   8.901   4.311   6.055 -0.8416 -0.7941 -0.2335
57666SOL     OW79855  10.681   5.463   3.215  0.2306  0.3231 -0.1314
57666SOL    HW179856  10.651   5.465   3.306  0.5393 -1.6691  0.0593
57666SOL    HW279857  10.631   5.392   3.175  0.5685  0.7452 -1.3678
57667SOL     OW79858   6.896  11.057  11.336  0.0276 -0.3449 -0.2096
57667SOL    HW179859   6.862  11.001  11.406 -3.0172  1.8418  0.2715
57667SOL    HW279860   6.868  11.013  11.255  0.0098 -0.8521  0.0658
57668SOL     OW79861   1.414   5.017   7.823  0.2588 -0.2751 -0.6473
57668SOL    HW179862   1.492   5.051   7.779 -0.0056 -1.0439 -1.7292
57668SOL    HW279863   1.343   5.073   7.792  0.2740  0.0229 -0.1530
57669SOL     OW79864   7.411   3.226   5.214 -0.6240 -0.2678  0.4565
57669SOL    HW179865   7.438   3.285   5.143 -0.1393 -0.8795  0.1146
57669SOL    HW279866   7.316   3.222   5.207 -0.4977 -1.4581 -1.1202
57670SOL     OW79867   2.615  10.290   9.795  0.2074  0.3126 -0.0629
57670SOL    HW179868   2.660  10.255   9.719 -0.1272 -0.8845  0.2692
57670SOL    HW279869   2.684  10.329   9.848  0.3671  1.7368 -1.2532
57671SOL     OW79870   5.457   6.193   8.895 -0.4041  0.1356 -0.0059
57671SOL    HW179871   5.524   6.133   8.863  0.4463  0.6302  0.7848
57671SOL    HW279872   5.391   6.136   8.934  0.2944 -0.3126  0.5489
57672SOL     OW79873   1.705   7.569   8.397  0.4012 -0.0843  0.2532
57672SOL    HW179874   1.646   7.580   8.323  0.4148  0.9993  0.3839
57672SOL    HW279875   1.759   7.493   8.374  2.3054  1.8209 -2.2063
57673SOL     OW79876  11.193  11.112  11.833  0.3714 -0.2467  0.4783
57673SOL    HW179877  11.254  11.053  11.789  0.1804  0.5473 -0.8828
57673SOL    HW279878  11.248  11.182  11.867  0.3293 -0.0135  0.0685
57674SOL     OW79879   3.685   4.798   9.594  0.2666 -0.1408 -0.0372
57674SOL    HW179880   3.719   4.883   9.621  0.3302 -0.3340  0.5203
57674SOL    HW279881   3.594   4.814   9.571  0.4218  0.1712 -0.4315
57675SOL     OW79882   4.929   3.437   6.201 -0.2468 -0.4327  0.1118
57675SOL    HW179883   5.014   3.398   6.223 -1.0159 -0.7072  2.9563
57675SOL    HW279884   4.882   3.440   6.284 -2.2465  1.7047 -0.9932
57676SOL     OW79885   5.902   4.219   8.674  0.2559 -0.6035 -0.4731
57676SOL    HW179886   5.823   4.248   8.719  0.2030 -1.4658  0.0078
57676SOL    HW279887   5.932   4.297   8.625 -0.1444  0.1052  0.3831
57677SOL     OW79888   4.884   4.566   5.898  0.2673 -0.4875  0.0956
57677SOL    HW179889   4.934   4.566   5.816 -1.4159 -0.2206 -0.9850
57677SOL    HW279890   4.899   4.479   5.935  1.6963 -0.3340 -0.0654
57678SOL     OW79891   0.811   9.034   6.329  0.0237  0.0194 -0.8284
57678SOL    HW179892   0.899   9.036   6.293  0.2772 -0.6833 -0.2424
57678SOL    HW279893   0.822   9.047   6.423 -0.4082 -1.0780 -0.6119
57679SOL     OW79894   5.229  10.674  12.455 -0.1082  0.1454  0.0229
57679SOL    HW179895   5.274  10.590  12.467  0.1840  0.3658  0.5091
57679SOL    HW279896   5.282  10.737  12.504 -1.7977  0.1487  1.9848
57680SOL     OW79897   6.996   9.465   7.136 -0.0215  0.0091 -0.2655
57680SOL    HW179898   6.940   9.387   7.133  1.8996 -1.4320 -2.5897
57680SOL    HW279899   6.968   9.517   7.061 -0.1891  0.7766  0.3150
57681SOL     OW79900   6.607   9.631   0.279  0.0313 -0.3258  0.2727
57681SOL    HW179901   6.621   9.720   0.311 -1.8178  0.5418 -1.0979
57681SOL    HW279902   6.689   9.607   0.235  0.8772  0.3076  1.4710
57682SOL     OW79903   9.389  11.226   5.697 -0.2070 -0.5974 -0.4597
57682SOL    HW179904   9.297  11.211   5.719 -0.2993 -0.3870 -0.6985
57682SOL    HW279905   9.388  11.304   5.641  0.1118 -0.6180 -0.4957
57683SOL     OW79906   0.559  11.596   3.194  0.6774  0.3290 -0.0770
57683SOL    HW179907   0.617  11.521   3.211  1.0200  1.0073  2.0136
57683SOL    HW279908   0.576  11.619   3.103  0.9620 -1.7784 -0.6154
57684SOL     OW79909   7.178   8.663  11.853  0.2474 -0.3822  0.9717
57684SOL    HW179910   7.236   8.704  11.789  1.2736 -2.4932  0.4437
57684SOL    HW279911   7.112   8.617  11.800 -0.2961 -0.2336  1.5048
57685SOL     OW79912  10.382   5.647   6.613  0.4057  0.5949  0.8807
57685SOL    HW179913  10.378   5.741   6.630  0.3572  0.6529  0.5695
57685SOL    HW279914  10.441   5.613   6.679  2.5483  1.2452 -0.5855
57686SOL     OW79915   1.399   5.299   8.332  0.4518  0.1848 -0.1206
57686SOL    HW179916   1.384   5.260   8.246 -1.2926 -1.9199  1.0627
57686SOL    HW279917   1.482   5.261   8.361 -0.1534 -1.0175  0.1008
57687SOL     OW79918   3.780   0.957   5.828 -0.6269  0.3470  0.5377
57687SOL    HW179919   3.713   0.968   5.760  1.2123  1.9483 -1.1348
57687SOL    HW279920   3.842   0.894   5.790  0.7605  1.7423  0.3560
57688SOL     OW79921   3.077   9.031   1.975  0.4138  0.4246 -0.1339
57688SOL    HW179922   3.016   9.061   2.042  0.8114 -0.3209  0.5781
57688SOL    HW279923   3.028   9.035   1.894 -1.0616 -1.5259  0.6033
57689SOL     OW79924  10.366   4.506   9.505  0.0348 -0.6524 -0.4574
57689SOL    HW179925  10.330   4.426   9.467 -0.4586 -1.0696  0.8304
57689SOL    HW279926  10.434   4.476   9.565 -1.1206 -0.2239  1.1129
57690SOL     OW79927   5.624   1.284  10.764  0.2216  0.1657 -0.3721
57690SOL    HW179928   5.648   1.374  10.787  1.5553 -0.3046  0.1795
57690SOL    HW279929   5.704   1.247  10.728 -0.2682 -0.8708 -0.4199
57691SOL     OW79930   8.698  12.397   0.802 -0.5746  0.3537  0.4820
57691SOL    HW179931   8.705  12.367   0.711 -0.5924  1.7950 -0.0194
57691SOL    HW279932   8.648  12.478   0.797 -0.6296  0.4226  1.7927
57692SOL     OW79933   0.959  10.634   9.352  0.8345  0.2663 -0.5937
57692SOL    HW179934   0.944  10.728   9.346 -0.9685 -0.0344 -1.3280
57692SOL    HW279935   0.918  10.608   9.434  2.1129  0.2241  0.0623
57693SOL     OW79936   2.714   5.079   8.688  0.2709  0.3509  0.1728
57693SOL    HW179937   2.774   5.145   8.722  1.0583 -1.4411  2.5580
57693SOL    HW279938   2.771   5.005   8.667 -0.8570 -0.5291  0.1728
57694SOL     OW79939   0.109   7.544   5.310  0.2490  0.5456  0.3680
57694SOL    HW179940   0.185   7.601   5.297  0.2338  0.4146 -0.3643
57694SOL    HW279941   0.034   7.603   5.305  0.1966  0.3995 -1.0270
57695SOL     OW79942   9.070   5.105   3.480  0.0608  0.0564  0.4814
57695SOL    HW179943   8.978   5.123   3.461 -0.0408  0.4545  1.3119
57695SOL    HW279944   9.101   5.059   3.402 -1.2503 -1.5235  0.8211
57696SOL     OW79945  10.870  12.351   2.485 -0.1108  0.1728 -0.5242
57696SOL    HW179946  10.932  12.300   2.536  1.6672  1.1334 -1.6312
57696SOL    HW279947  10.813  12.392   2.550 -0.5654 -1.8730  0.4440
57697SOL     OW79948   3.055  12.328   9.505 -0.0548 -0.5503  0.8269
57697SOL    HW179949   3.133  12.370   9.471 -1.7174  1.0795 -1.1924
57697SOL    HW279950   3.067  12.235   9.485  1.4703 -0.3715  0.8370
57698SOL     OW79951   0.632   7.015   9.652  0.2301 -0.0636  0.6450
57698SOL    HW179952   0.677   7.091   9.688 -0.7230  1.0459 -0.4054
57698SOL    HW279953   0.556   7.004   9.709 -0.0295  0.2416  0.3609
57699SOL     OW79954   3.895   7.060  10.457  0.3980  0.4751  0.4138
57699SOL    HW179955   3.823   7.009  10.421  2.1005 -0.0252 -2.5923
57699SOL    HW279956   3.878   7.150  10.428  1.2038  0.2645 -0.7684
57700SOL     OW79957   8.807  11.584   6.361  0.4699 -0.2449  0.4141
57700SOL    HW179958   8.893  11.542   6.359  0.1706 -0.8971  0.8291
57700SOL    HW279959   8.803  11.634   6.279  0.8445 -1.0029 -0.0752
57701SOL     OW79960   2.834   4.212   8.935 -0.5315 -0.8391 -0.3261
57701SOL    HW179961   2.895   4.214   9.009  0.3538 -1.8846 -1.0052
57701SOL    HW279962   2.827   4.303   8.907 -0.3382 -0.5253  0.5879
57702SOL     OW79963   0.722   8.667  11.249 -0.0287 -0.2304 -0.0795
57702SOL    HW179964   0.639   8.695  11.210  0.3153 -1.0656 -1.4637
57702SOL    HW279965   0.705   8.577  11.279  0.3666 -0.4017 -0.3633
57703SOL     OW79966   3.789   5.862   3.931 -0.0659  0.4178 -0.5564
57703SOL    HW179967   3.864   5.813   3.897 -0.6306  0.1392 -1.4569
57703SOL    HW279968   3.801   5.863   4.026  0.8011 -0.0629 -0.6501
57704SOL     OW79969   8.656   1.829   0.136  0.1634  0.8778 -0.2130
57704SOL    HW179970   8.721   1.844   0.067 -1.1473 -1.1190 -2.0077
57704SOL    HW279971   8.703   1.847   0.217  2.3184  1.5623 -1.5110
57705SOL     OW79972   0.946   7.210   5.214 -0.1371 -0.1817  0.7543
57705SOL    HW179973   0.893   7.280   5.175  0.1152 -0.6840 -0.5387
57705SOL    HW279974   1.013   7.256   5.264  0.0910  0.5282 -0.1627
57706SOL     OW79975   0.325   3.145   0.154  0.8048  0.2080 -0.4580
57706SOL    HW179976   0.263   3.082   0.118  0.1808  0.4786  0.1059
57706SOL    HW279977   0.274   3.226   0.163  1.0990  0.3066  0.4537
57707SOL     OW79978   8.261   6.305   8.334  0.3931  0.3602 -0.3858
57707SOL    HW179979   8.286   6.236   8.396  0.2554  0.7842  0.1373
57707SOL    HW279980   8.250   6.383   8.387  0.2363  0.7211 -0.9405
57708SOL     OW79981   0.158   3.213  12.450 -0.0541  0.7203  0.2271
57708SOL    HW179982   0.212   3.153  12.502 -0.4162  1.3598  1.3720
57708SOL    HW279983   0.135   3.163  12.372  0.6471 -0.2081  0.5963
57709SOL     OW79984   5.526  11.158   5.600  0.1617  0.7093  0.3700
57709SOL    HW179985   5.507  11.192   5.512 -0.1674  0.5367  0.3739
57709SOL    HW279986   5.587  11.085   5.585  0.8240  1.2523  0.3578
57710SOL     OW79987  10.458   8.319   1.121 -0.0109  0.4670  0.2922
57710SOL    HW179988  10.510   8.306   1.201 -0.5526 -0.5097  0.4929
57710SOL    HW279989  10.399   8.391   1.144  0.5143  0.8663  0.4235
57711SOL     OW79990   5.767   2.119   0.329  0.3399 -0.6547  0.3586
57711SOL    HW179991   5.769   2.210   0.300 -0.5546 -1.4011 -2.2569
57711SOL    HW279992   5.682   2.086   0.301  0.4803 -2.2172  1.6261
57712SOL     OW79993   8.807   8.714   7.321  0.1134  0.2037 -0.2925
57712SOL    HW179994   8.791   8.757   7.405  1.2953 -0.1683  0.1366
57712SOL    HW279995   8.803   8.621   7.341  0.1365  0.1148 -0.7042
57713SOL     OW79996   4.040   4.252   5.892  0.0768  0.1258 -0.3382
57713SOL    HW179997   4.096   4.312   5.941  1.7353 -0.9548 -0.8371
57713SOL    HW279998   4.048   4.168   5.938 -0.8703 -0.1486 -0.6385
57714SOL     OW79999   8.374   8.195   8.049 -0.5024  1.0332 -0.0892
57714SOL    HW180000   8.378   8.102   8.068 -1.6679  1.2398  1.3735
57714SOL    HW280001   8.310   8.203   7.978  1.4082  0.5418 -1.9423
57715SOL     OW80002   6.241   7.596  12.352  0.6498  0.2556 -0.0356
57715SOL    HW180003   6.233   7.691  12.367 -1.2852  0.0133  0.7321
57715SOL    HW280004   6.232   7.587  12.257 -1.5906  0.7235  0.0574
57716SOL     OW80005   1.256   5.259  11.725  0.4836 -0.0150 -0.0945
57716SOL    HW180006   1.209   5.341  11.739 -1.4410 -1.4623  2.6888
57716SOL    HW280007   1.204   5.212  11.660  0.9032  0.4034 -0.7504
57717SOL     OW80008   9.227   6.731   7.462 -0.4074 -0.1077  0.1363
57717SOL    HW180009   9.245   6.668   7.532 -0.7017 -0.0370  0.2747
57717SOL    HW280010   9.171   6.683   7.400  0.8717 -0.5938 -0.7017
57718SOL     OW80011   0.183   6.464  10.677  0.2999  0.1226  0.1569
57718SOL    HW180012   0.209   6.552  10.703  0.6705 -0.0611  0.4218
57718SOL    HW280013   0.246   6.439  10.611  0.0844  0.1249 -0.0503
57719SOL     OW80014   4.910   9.018   3.733  0.4607  0.2977 -0.2997
57719SOL    HW180015   4.873   9.044   3.648  1.7942  0.9791 -0.7037
57719SOL    HW280016   4.885   9.088   3.793 -0.2796 -0.0660 -0.1716
57720SOL     OW80017   9.337  11.888  10.038 -0.4459  0.5387 -0.0302
57720SOL    HW180018   9.375  11.880   9.950  0.4268  0.5964  0.3275
57720SOL    HW280019   9.262  11.946  10.027 -0.5644  0.2494 -0.8037
57721SOL     OW80020   8.005  10.194  10.814 -0.2116 -0.1785  0.2972
57721SOL    HW180021   7.922  10.187  10.862 -1.2708  1.4370 -1.1343
57721SOL    HW280022   7.979  10.192  10.722  1.5884 -1.7079 -0.2307
57722SOL     OW80023   8.654  10.771  11.307  0.5546 -0.6207 -0.2878
57722SOL    HW180024   8.684  10.861  11.300 -1.5327  0.0068 -2.1885
57722SOL    HW280025   8.561  10.775  11.286  0.2388 -3.1359  0.3013
57723SOL     OW80026   3.791  10.755   7.170 -0.3319 -0.4624  0.4689
57723SOL    HW180027   3.731  10.693   7.211  0.1985 -0.0302  1.9606
57723SOL    HW280028   3.859  10.770   7.236 -0.2523  1.4341  0.0076
57724SOL     OW80029   4.444   1.839   1.998 -0.3996  0.3522 -0.4889
57724SOL    HW180030   4.363   1.840   1.948 -0.9004 -0.5105  0.2621
57724SOL    HW280031   4.451   1.927   2.035 -0.7866  0.5492 -0.8820
57725SOL     OW80032   1.228   1.030   5.419  0.1976 -0.0346  0.3567
57725SOL    HW180033   1.310   1.008   5.464  0.5472  1.5370  0.5466
57725SOL    HW280034   1.203   1.114   5.456  0.0346  0.9137 -1.7834
57726SOL     OW80035   4.651   8.695   1.303  0.1580  0.5974 -0.3992
57726SOL    HW180036   4.685   8.768   1.251 -0.1816  0.5624 -0.6801
57726SOL    HW280037   4.569   8.728   1.339  0.6575  0.8020  0.5611
57727SOL     OW80038   9.474   0.803   8.175 -0.5948 -0.5293 -0.0409
57727SOL    HW180039   9.404   0.832   8.234 -0.9773 -1.9236  0.2092
57727SOL    HW280040   9.554   0.812   8.226 -0.9465 -1.9685  0.8024
57728SOL     OW80041  11.989   8.112   0.001  0.0362 -0.0703  0.1386
57728SOL    HW180042  11.956   8.072  -0.080 -1.2195 -0.1176  0.6561
57728SOL    HW280043  12.078   8.138  -0.020 -0.8031  1.4406 -1.7961
57729SOL     OW80044   3.081   6.385   6.142  0.9180  0.1797 -0.0804
57729SOL    HW180045   3.006   6.388   6.082  0.5129  0.1301  0.4227
57729SOL    HW280046   3.157   6.379   6.084  0.5490  0.4327 -0.6006
57730SOL     OW80047   9.779  11.333   4.602  0.2466  0.6817  0.0734
57730SOL    HW180048   9.860  11.363   4.561 -0.6245  1.4833 -1.1778
57730SOL    HW280049   9.770  11.242   4.574 -0.7606  1.4495 -2.3874
57731SOL     OW80050   9.015   6.941   4.637 -0.0154  0.0625 -0.2960
57731SOL    HW180051   9.077   6.945   4.711  0.5789  0.8031 -0.8139
57731SOL    HW280052   9.052   7.001   4.572 -0.4548 -0.6947 -1.2624
57732SOL     OW80053   6.059   7.268   6.455 -0.3871  0.2020 -0.3649
57732SOL    HW180054   6.085   7.244   6.544 -1.1279  0.5648 -0.0404
57732SOL    HW280055   6.037   7.361   6.462  0.3729  0.4472 -1.1206
57733SOL     OW80056   0.461  12.521   3.692 -0.7851 -0.0370 -0.8490
57733SOL    HW180057   0.449  12.609   3.728 -0.3963 -0.6562  0.8483
57733SOL    HW280058   0.457  12.462   3.767 -1.3648 -1.5313 -1.9837
57734SOL     OW80059   4.150   6.148   1.376  0.2418  0.1548  0.0864
57734SOL    HW180060   4.188   6.215   1.433 -0.7063  0.2210  0.6615
57734SOL    HW280061   4.219   6.129   1.313  1.0622  0.5974  0.8226
57735SOL     OW80062   8.845   0.621   5.933 -0.3607  0.9855 -0.3997
57735SOL    HW180063   8.769   0.566   5.918 -0.7873  0.7019  2.3287
57735SOL    HW280064   8.914   0.582   5.880 -1.5366 -0.0709 -1.2067
57736SOL     OW80065   7.300   3.932   0.771  0.5791  0.1915 -0.1749
57736SOL    HW180066   7.225   3.989   0.756  0.6908 -0.2219 -2.6478
57736SOL    HW280067   7.266   3.864   0.830  0.0830  1.9504  1.7042
57737SOL     OW80068   6.664   9.628   9.296  0.0330 -0.1984  0.3449
57737SOL    HW180069   6.650   9.710   9.248 -1.1714 -0.9963 -0.7356
57737SOL    HW280070   6.627   9.561   9.239  0.3074 -1.4113  1.5551
57738SOL     OW80071   7.988  11.572   2.120 -0.0721 -0.3433 -0.1293
57738SOL    HW180072   7.897  11.549   2.139  0.3506 -1.4186  0.6841
57738SOL    HW280073   8.006  11.532   2.035 -0.1437 -0.7472  0.0455
57739SOL     OW80074  11.783   7.813  12.149  0.0777  0.0153 -0.6729
57739SOL    HW180075  11.843   7.746  12.114  3.2347  0.7323  2.7311
57739SOL    HW280076  11.709   7.763  12.184  0.5272 -1.2955 -1.4903
57740SOL     OW80077   8.383   0.884  12.033  0.1412 -0.2938 -0.5186
57740SOL    HW180078   8.416   0.907  12.120 -2.4902 -3.2136  1.4650
57740SOL    HW280079   8.403   0.791  12.023 -1.9948 -0.6728 -1.8468
57741SOL     OW80080   1.699   9.168   2.342  0.3531 -0.0914 -0.0115
57741SOL    HW180081   1.613   9.131   2.361 -0.3580  1.4317 -0.0624
57741SOL    HW280082   1.760   9.111   2.388 -0.7889 -0.4580  1.1199
57742SOL     OW80083   4.847   2.548   0.948  0.1135  0.1898 -0.3891
57742SOL    HW180084   4.867   2.512   0.862 -0.6590 -1.0158 -0.0941
57742SOL    HW280085   4.886   2.635   0.948  2.7402 -0.8957 -0.8762
57743SOL     OW80086   6.990  11.937   3.227 -0.7536 -0.0411  0.3912
57743SOL    HW180087   6.920  11.987   3.185 -1.5614 -1.3292  0.1591
57743SOL    HW280088   6.947  11.887   3.296  0.1501  0.1087  1.0856
57744SOL     OW80089   6.265  12.135   5.295  0.0334  0.2178  0.2543
57744SOL    HW180090   6.191  12.194   5.311 -0.4210  0.1346 -1.3571
57744SOL    HW280091   6.302  12.119   5.381 -0.3055  2.2428  0.8247
57745SOL     OW80092   4.094   6.545   9.161 -0.3040  0.5035 -0.6584
57745SOL    HW180093   4.098   6.524   9.067 -1.5379 -2.3184 -0.1933
57745SOL    HW280094   4.001   6.550   9.180 -0.0520  1.6774  0.3356
57746SOL     OW80095   2.320   1.112   1.432  0.4649  0.4439  0.6275
57746SOL    HW180096   2.384   1.169   1.475  1.3791 -0.4752  0.5135
57746SOL    HW280097   2.272   1.171   1.373  0.8042  1.2559  1.1395
57747SOL     OW80098   8.943   2.272   4.252 -0.6267 -0.8603  0.7161
57747SOL    HW180099   8.967   2.351   4.301 -0.6573 -1.4958  1.7729
57747SOL    HW280100   8.865   2.239   4.296 -1.0544 -1.0750 -0.1833
57748SOL     OW80101   8.027   7.531   9.385 -0.3375 -0.0193  0.2301
57748SOL    HW180102   8.040   7.544   9.479 -1.0712  1.9407  0.1077
57748SOL    HW280103   7.932   7.527   9.374 -0.2599 -0.2002 -0.4476
57749SOL     OW80104  12.191   4.851   3.545  0.3959  0.5473  0.0884
57749SOL    HW180105  12.217   4.763   3.575  1.2514  1.1365  1.1461
57749SOL    HW280106  12.101   4.841   3.516  0.5763 -0.7525 -0.0760
57750SOL     OW80107   5.605   7.355   6.351  0.5193 -0.2787  0.2366
57750SOL    HW180108   5.558   7.287   6.399  1.3894 -0.2620  1.1411
57750SOL    HW280109   5.537   7.400   6.301 -1.1550  1.9424  4.0083
57751SOL     OW80110  11.399   6.111  11.901  0.0486  0.2438 -0.0284
57751SOL    HW180111  11.411   6.188  11.957 -0.6397 -0.5944  1.3144
57751SOL    HW280112  11.391   6.147  11.813  0.3099  1.6668  0.4967
57752SOL     OW80113  12.205   9.537   8.284  0.3849  0.1767 -0.2288
57752SOL    HW180114  12.168   9.589   8.213  1.6397  2.0290  0.3875
57752SOL    HW280115  12.285   9.499   8.247  1.0803  1.2052  0.1610
57753SOL     OW80116   0.977   2.335   1.632  0.5162  0.3015  0.3620
57753SOL    HW180117   0.999   2.384   1.554  2.4101 -0.2306  0.5133
57753SOL    HW280118   0.926   2.260   1.600  1.8829 -0.3042 -0.4707
57754SOL     OW80119   8.804   4.029   5.516 -0.0299 -0.0158  0.0372
57754SOL    HW180120   8.737   4.076   5.466 -1.4718  0.7137  2.5102
57754SOL    HW280121   8.755   3.962   5.565  1.4419 -1.2755 -0.1222
57755SOL     OW80122   3.480   5.012   2.227 -0.0984 -0.4202 -0.5513
57755SOL    HW180123   3.399   5.062   2.234  1.9026  3.4048 -2.0429
57755SOL    HW280124   3.494   4.976   2.315 -2.0398  1.1112  0.4461
57756SOL     OW80125  10.237   6.808   8.314  0.0538  0.3781  0.0737
57756SOL    HW180126  10.247   6.777   8.404 -0.2004  1.3308  0.4448
57756SOL    HW280127  10.180   6.885   8.322 -0.1716  0.3248 -0.9309
57757SOL     OW80128  12.238  11.096   8.482 -0.3436 -0.0673  0.0011
57757SOL    HW180129  12.204  11.091   8.392  0.4029 -3.5299 -0.2494
57757SOL    HW280130  12.183  11.036   8.532  2.1149 -1.9173  0.6955
57758SOL     OW80131   4.513   1.296  10.257  0.3009 -0.0229 -0.4414
57758SOL    HW180132   4.451   1.366  10.236  0.3239  0.1930  0.1952
57758SOL    HW280133   4.561   1.328  10.334 -1.7717 -1.9819  1.8394
57759SOL     OW80134   1.053   9.369   0.293  0.6483  0.4890 -0.1820
57759SOL    HW180135   0.967   9.391   0.257  0.3417  0.7540  0.6906
57759SOL    HW280136   1.102   9.451   0.290  0.0365  0.9780  1.5815
57760SOL     OW80137   0.669   1.169   5.129 -0.1979 -0.4632 -0.6238
57760SOL    HW180138   0.730   1.168   5.203 -1.7403 -1.2631  0.7058
57760SOL    HW280139   0.659   1.077   5.105 -1.3998 -0.4272 -0.3392
57761SOL     OW80140   2.525   5.529   1.681  0.0649 -0.1163  0.7712
57761SOL    HW180141   2.610   5.486   1.670  0.4118  0.0809  2.4573
57761SOL    HW280142   2.461   5.462   1.659  0.6370 -0.1068 -1.0458
57762SOL     OW80143   2.634   4.407   2.759  0.1540 -0.2493  0.0893
57762SOL    HW180144   2.692   4.482   2.746 -0.2889  0.0812  0.0288
57762SOL    HW280145   2.691   4.340   2.797  0.7060 -0.1134 -0.4844
57763SOL     OW80146   0.570   7.711   0.525 -0.0527 -0.1367 -0.2881
57763SOL    HW180147   0.507   7.664   0.578  0.2152 -1.2586 -0.9361
57763SOL    HW280148   0.523   7.732   0.444  0.4533 -1.2341 -0.8950
57764SOL     OW80149   9.583   6.213   3.833  0.0236  0.3093 -0.3329
57764SOL    HW180150   9.609   6.241   3.921 -0.2596 -0.0699 -0.1258
57764SOL    HW280151   9.572   6.295   3.785  0.4865  0.5114 -0.1057
57765SOL     OW80152   9.522   7.952   5.900  0.1404  0.0789  0.6932
57765SOL    HW180153   9.445   7.996   5.863  0.0561 -0.2394  0.4789
57765SOL    HW280154   9.596   8.000   5.864  0.0392  0.6258  1.2020
57766SOL     OW80155   2.644   6.478   3.613  0.7139 -1.0998 -0.0500
57766SOL    HW180156   2.686   6.562   3.595  0.9766 -1.1360  0.3685
57766SOL    HW280157   2.712   6.427   3.657 -0.1279 -0.7093  1.8386
57767SOL     OW80158   7.007  10.582   8.612  0.4934  0.0907 -0.0092
57767SOL    HW180159   6.921  10.546   8.593  0.7575 -0.0036 -1.0995
57767SOL    HW280160   7.033  10.541   8.694 -0.3657 -0.1043  0.1705
57768SOL     OW80161   4.444  11.349  12.239  0.2004  0.5632  0.1782
57768SOL    HW180162   4.396  11.431  12.231 -0.3544  0.3075  0.7529
57768SOL    HW280163   4.449  11.333  12.333  0.9663  0.3130  0.1066
57769SOL     OW80164   0.113   7.510   3.237 -0.3563  0.4071  0.5473
57769SOL    HW180165   0.178   7.445   3.209  0.5451  1.7718 -0.6441
57769SOL    HW280166   0.109   7.500   3.332  1.2169 -0.0771  0.5940
57770SOL     OW80167   3.188   6.017   2.489  0.5904  0.0387  1.0582
57770SOL    HW180168   3.210   6.109   2.471  1.4876 -0.3260  0.2035
57770SOL    HW280169   3.100   6.007   2.451  1.0360  0.2083 -0.0622
57771SOL     OW80170   4.628   6.557   4.724  0.3211  0.3679 -0.2884
57771SOL    HW180171   4.600   6.580   4.812 -0.3915  1.5251 -0.7950
57771SOL    HW280172   4.652   6.641   4.683  1.7238 -0.2566 -0.8418
57772SOL     OW80173   3.137  10.125   9.690  0.2142  0.1329  0.2684
57772SOL    HW180174   3.148  10.079   9.773 -1.1864  0.5069  0.6980
57772SOL    HW280175   3.212  10.100   9.638 -0.1269 -2.0631  0.7453
57773SOL     OW80176   2.260   7.727   4.502  0.1727 -0.3323  0.0025
57773SOL    HW180177   2.260   7.632   4.514  0.9823 -0.1102  2.1038
57773SOL    HW280178   2.169   7.753   4.512 -0.1598 -0.9207 -1.2448
57774SOL     OW80179  10.021   3.585   5.625  0.2200  0.5798 -0.5922
57774SOL    HW180180  10.011   3.537   5.707 -0.3053 -0.8684 -1.4614
57774SOL    HW280181  10.103   3.635   5.636  0.9880 -0.7982  0.2351
57775SOL     OW80182   2.282   6.907   2.822  0.1162 -0.1869  0.3154
57775SOL    HW180183   2.347   6.894   2.892 -0.5046  0.0100  0.9401
57775SOL    HW280184   2.325   6.966   2.761 -0.3890  2.0710  2.0174
57776SOL     OW80185  10.714   1.435   1.236 -0.0901  0.0568  0.1375
57776SOL    HW180186  10.758   1.484   1.305  1.2139 -0.1001 -0.5574
57776SOL    HW280187  10.659   1.372   1.282  1.5236 -0.7365  1.0391
57777SOL     OW80188   2.072   0.306   5.995 -0.0184  0.0853  0.6026
57777SOL    HW180189   2.029   0.222   5.979 -0.1447  0.2700 -0.0681
57777SOL    HW280190   2.041   0.363   5.925  1.1984  0.2600  0.1785
57778SOL     OW80191   7.682   0.795   9.408 -0.3523  0.2936 -0.1812
57778SOL    HW180192   7.587   0.802   9.412 -0.2025  2.8286  0.4543
57778SOL    HW280193   7.705   0.738   9.481 -1.3974 -1.6209 -1.2417
57779SOL     OW80194   9.554   5.894  10.723  0.3671  0.4114  0.0259
57779SOL    HW180195   9.628   5.863  10.672 -1.8979 -1.9432 -2.1276
57779SOL    HW280196   9.516   5.965  10.671 -0.7876 -0.6607 -0.6462
57780SOL     OW80197   6.579   0.869   0.644 -0.5991 -0.0963  0.0096
57780SOL    HW180198   6.533   0.890   0.726 -0.7347  0.2376 -0.1513
57780SOL    HW280199   6.642   0.801   0.669  0.6668  1.3012  0.8011
57781SOL     OW80200   9.767   6.214   1.548 -0.1626 -0.1444  0.0031
57781SOL    HW180201   9.723   6.139   1.507 -0.6011 -0.0183  0.2411
57781SOL    HW280202   9.828   6.175   1.610 -0.5160 -0.3015  0.2534
57782SOL     OW80203   2.463   2.127  10.058 -0.1739  0.0838  0.0194
57782SOL    HW180204   2.449   2.167  10.144  0.0372 -1.1761  0.6629
57782SOL    HW280205   2.381   2.144  10.011 -0.9691 -0.6825  1.0837
57783SOL     OW80206   9.463   1.711   7.827  0.1424 -0.5992 -0.8263
57783SOL    HW180207   9.533   1.655   7.793  1.6740  1.0216 -0.4731
57783SOL    HW280208   9.488   1.799   7.802 -0.7683  0.2380  1.0131
57784SOL     OW80209   5.231   5.907  11.713 -0.1479 -0.0581  0.1753
57784SOL    HW180210   5.187   5.926  11.796  1.8530  0.5377  1.1598
57784SOL    HW280211   5.205   5.817  11.692  0.8377 -0.9503  2.4959
57785SOL     OW80212   0.868  11.201   1.072  0.0907 -0.0097  0.1649
57785SOL    HW180213   0.806  11.165   1.135  0.7308  1.7514  1.9043
57785SOL    HW280214   0.889  11.128   1.015 -2.2733 -1.0859  0.5532
57786SOL     OW80215   6.735   1.039   1.201  0.5043 -0.1679 -0.2681
57786SOL    HW180216   6.792   0.984   1.255  0.4183 -0.5189 -0.5315
57786SOL    HW280217   6.680   0.977   1.154  1.3486  0.0733 -1.6344
57787SOL     OW80218  11.717   3.857  12.529 -0.1357  0.3341 -0.1593
57787SOL    HW180219  11.788   3.793  12.535 -0.6345 -0.2074  0.1295
57787SOL    HW280220  11.697   3.880  12.619 -0.6956  0.0524 -0.2040
57788SOL     OW80221   6.431   0.094   7.212 -0.6928 -0.2782  0.3475
57788SOL    HW180222   6.521   0.114   7.185 -1.0489  0.9621 -0.0097
57788SOL    HW280223   6.377   0.155   7.161 -1.6187  0.1104  1.7297
57789SOL     OW80224   5.261   9.021   1.957  0.3508 -0.1308 -0.0421
57789SOL    HW180225   5.227   8.935   1.982  1.2049  0.5295  4.1637
57789SOL    HW280226   5.190   9.082   1.978  1.3038  0.5381  1.3523
57790SOL     OW80227   1.644  11.543  12.181 -0.3094 -0.1213 -0.3427
57790SOL    HW180228   1.724  11.561  12.132  0.3570 -1.8625  0.0486
57790SOL    HW280229   1.594  11.625  12.176  0.5968  0.3617 -2.2404
57791SOL     OW80230   2.340  10.866   2.943 -0.1195 -0.0697 -0.2260
57791SOL    HW180231   2.422  10.901   2.909  0.0274  1.4369  1.5389
57791SOL    HW280232   2.273  10.928   2.915 -0.6852 -1.2282 -1.5545
57792SOL     OW80233   5.574   0.942   7.596  0.1749  0.0321  0.2973
57792SOL    HW180234   5.630   0.945   7.518 -0.0214  0.0054  0.1543
57792SOL    HW280235   5.498   0.891   7.568  0.2958 -0.3333  0.6314
57793SOL     OW80236   3.093   2.092   1.839  0.8535  0.1313  0.2832
57793SOL    HW180237   3.067   2.019   1.783 -1.2716  0.0646  1.2538
57793SOL    HW280238   3.094   2.168   1.781 -1.5204  0.1041  0.1144
57794SOL     OW80239   5.528  10.387   7.436 -0.3821  0.5190 -0.7007
57794SOL    HW180240   5.492  10.305   7.401 -0.9008  0.8783 -1.0158
57794SOL    HW280241   5.503  10.454   7.373  0.6126  0.8310 -0.7849
57795SOL     OW80242   7.716   9.377   4.565  0.1581 -0.9315 -0.3692
57795SOL    HW180243   7.644   9.324   4.532 -0.8633  1.3411 -2.0885
57795SOL    HW280244   7.794   9.337   4.528 -0.1123 -3.4753  1.5785
57796SOL     OW80245  10.342   3.115   1.235  0.7286 -0.2357  0.2805
57796SOL    HW180246  10.247   3.106   1.237  0.4134  2.3218  3.2130
57796SOL    HW280247  10.358   3.209   1.235  3.3282 -0.5730 -0.8640
57797SOL     OW80248   0.594   3.366  10.535  0.3441  0.0703  0.2636
57797SOL    HW180249   0.599   3.455  10.572 -1.3747  0.8475 -1.2049
57797SOL    HW280250   0.640   3.373  10.452 -0.0467 -0.3303  0.0122
57798SOL     OW80251   4.247   6.959   8.623  0.3147 -0.0651  0.2750
57798SOL    HW180252   4.221   6.901   8.695 -4.0872  0.4663 -0.6156
57798SOL    HW280253   4.249   7.046   8.663 -0.6952  0.0574  0.0690
57799SOL     OW80254   1.461   0.261   0.738  0.4279 -0.0336  0.2069
57799SOL    HW180255   1.394   0.223   0.795  0.4270 -0.7123 -0.2359
57799SOL    HW280256   1.525   0.190   0.726 -0.1459 -0.2965 -1.5662
57800SOL     OW80257   1.224   6.367   8.021  0.5936 -0.0535  0.2114
57800SOL    HW180258   1.259   6.347   7.934  0.5106 -0.8904  0.3660
57800SOL    HW280259   1.277   6.440   8.052  0.0528  0.8543 -0.9035
57801SOL     OW80260   9.366   4.299   3.447  0.2988  0.9663  0.2989
57801SOL    HW180261   9.384   4.206   3.434 -2.4121  0.3371  0.5189
57801SOL    HW280262   9.392   4.340   3.365  0.4933 -0.1435 -0.2207
57802SOL     OW80263  10.771   0.523   0.418  0.5128  0.0387  0.1248
57802SOL    HW180264  10.800   0.482   0.336 -2.0111  0.1893 -0.9306
57802SOL    HW280265  10.840   0.586   0.438  1.6801 -0.7125 -1.3288
57803SOL     OW80266   1.999  12.418   6.760 -0.2226 -0.0353  0.2866
57803SOL    HW180267   1.914  12.457   6.777 -0.3265 -0.6209  1.1958
57803SOL    HW280268   2.055  12.451   6.830  0.6134  1.2274 -0.9327
57804SOL     OW80269  11.820   1.880   9.184  0.6780  0.0573 -0.2685
57804SOL    HW180270  11.835   1.813   9.117  1.1959 -0.0960 -0.0086
57804SOL    HW280271  11.767   1.836   9.251  1.3024 -0.2009  0.0628
57805SOL     OW80272   5.930   6.315   0.779  0.6606 -0.4884 -0.2326
57805SOL    HW180273   5.863   6.370   0.740 -0.1617  0.0838  1.8702
57805SOL    HW280274   5.886   6.233   0.799  1.0491 -0.7343 -0.3517
57806SOL     OW80275   0.897   6.770   4.158 -0.2435  0.0531 -0.8484
57806SOL    HW180276   0.921   6.842   4.099 -0.4808 -0.0556 -1.0826
57806SOL    HW280277   0.889   6.810   4.244  0.2548  0.1874 -0.8636
57807SOL     OW80278   9.193   7.299   4.772 -0.1737 -0.2085 -0.2137
57807SOL    HW180279   9.203   7.378   4.825  0.9649 -0.2355 -0.3687
57807SOL    HW280280   9.143   7.239   4.827 -0.3309  0.3249  0.2278
57808SOL     OW80281   3.553   9.174   5.631  0.2965 -0.3958  0.0895
57808SOL    HW180282   3.561   9.253   5.685 -0.1132 -0.5147  0.3330
57808SOL    HW280283   3.525   9.206   5.545 -1.0701 -0.3645  0.5224
57809SOL     OW80284   4.943   9.734  12.545 -0.6011  0.4114  0.0965
57809SOL    HW180285   4.861   9.717  12.591 -0.0249 -1.3992  0.5704
57809SOL    HW280286   4.986   9.802  12.596 -2.3534  2.4039 -0.9269
57810SOL     OW80287   8.389   5.283   3.116  0.2579  0.5858 -0.7682
57810SOL    HW180288   8.370   5.192   3.138  1.1087  0.5860  0.0233
57810SOL    HW280289   8.479   5.283   3.085  0.4178  1.2106 -0.3380
57811SOL     OW80290   7.011   9.613  11.478 -0.6443 -0.2601 -0.3853
57811SOL    HW180291   7.068   9.583  11.549 -1.3048 -0.2284  0.1747
57811SOL    HW280292   7.070   9.649  11.413  0.0158 -0.8167 -0.1052
57812SOL     OW80293   4.189   5.593   9.403 -0.5982 -0.3614 -0.5750
57812SOL    HW180294   4.257   5.651   9.370 -0.6699 -1.6848 -3.3540
57812SOL    HW280295   4.110   5.646   9.404 -0.3739  0.0148 -1.6353
57813SOL     OW80296   5.284   7.304   3.314  0.1417  0.6337 -0.2666
57813SOL    HW180297   5.282   7.217   3.274  1.2297  1.2744 -1.7905
57813SOL    HW280298   5.304   7.287   3.407 -2.8045 -0.9105  0.2156
57814SOL     OW80299   5.730  11.980   4.800  0.2059 -0.9918  0.4261
57814SOL    HW180300   5.699  11.930   4.876 -0.3701  0.8492  1.4742
57814SOL    HW280301   5.706  12.070   4.820  1.7143 -0.1940 -1.1206
57815SOL     OW80302   0.621   6.583   3.313 -0.1813 -0.0055  0.4953
57815SOL    HW180303   0.601   6.515   3.377 -3.0185 -0.3877 -0.6576
57815SOL    HW280304   0.612   6.539   3.228  0.5267  1.2060 -0.2331
57816SOL     OW80305  10.998   6.912  11.060 -0.8945  0.3986  0.1917
57816SOL    HW180306  10.953   6.930  11.143 -0.3729  1.4171  0.2693
57816SOL    HW280307  11.041   6.994  11.038  0.2610 -0.3155 -0.2980
57817SOL     OW80308   3.834   2.943   5.072 -0.5609 -0.1385  0.1722
57817SOL    HW180309   3.869   2.854   5.063 -0.4694  0.0761 -2.0735
57817SOL    HW280310   3.911   2.999   5.070 -0.4086 -0.0098  3.7147
57818SOL     OW80311  11.141   0.734  11.079  0.7589 -0.1559  0.7398
57818SOL    HW180312  11.094   0.788  11.015 -0.3654 -0.0746  1.6140
57818SOL    HW280313  11.204   0.684  11.026  1.2712  1.3869 -0.1853
57819SOL     OW80314   0.529  11.930  10.234 -0.1809 -0.0112  0.1890
57819SOL    HW180315   0.509  11.837  10.228 -0.7252 -0.0260  1.6330
57819SOL    HW280316   0.569  11.952  10.150  1.7043 -1.9579  0.4859
57820SOL     OW80317  11.715   2.745  10.617  0.4317 -0.4325  0.6416
57820SOL    HW180318  11.628   2.708  10.604  0.4292 -0.5789  1.0573
57820SOL    HW280319  11.709   2.833  10.580  0.1645 -0.5106  0.4936
57821SOL     OW80320   6.706   5.162   2.937  0.0133 -0.5502  0.5120
57821SOL    HW180321   6.647   5.157   2.862 -0.0676  1.1493  0.4271
57821SOL    HW280322   6.664   5.226   2.996  0.1792 -1.6812  1.9152
57822SOL     OW80323   8.247   2.499   2.497 -0.4924 -0.1469  0.3645
57822SOL    HW180324   8.202   2.541   2.571 -1.8752  0.6374 -0.8812
57822SOL    HW280325   8.308   2.566   2.466 -1.9670  0.6453 -0.9725
57823SOL     OW80326   6.526   3.859   3.766 -0.3005  0.5233 -0.4700
57823SOL    HW180327   6.557   3.911   3.841 -1.4566  0.0788  0.3516
57823SOL    HW280328   6.470   3.920   3.718 -0.3268  0.5326 -0.4286
57824SOL     OW80329   8.368  10.971   8.274 -0.3762  0.3187  0.2911
57824SOL    HW180330   8.432  10.918   8.322 -1.2138  1.6329  3.0763
57824SOL    HW280331   8.405  11.059   8.274 -1.0992  0.6257 -0.1840
57825SOL     OW80332   4.575   5.809   9.823 -0.6038 -0.4612  0.3972
57825SOL    HW180333   4.555   5.901   9.843  1.5770  0.5870 -1.7072
57825SOL    HW280334   4.510   5.785   9.756 -0.5943 -0.1398  0.2714
57826SOL     OW80335   8.676  11.072   9.403 -0.0262  0.5687  0.2334
57826SOL    HW180336   8.680  11.059   9.308  2.3741 -1.0369  0.4610
57826SOL    HW280337   8.766  11.090   9.429 -0.6305  0.9940  2.2180
57827SOL     OW80338   2.138   2.113  12.398  0.0933 -0.1211  0.2435
57827SOL    HW180339   2.196   2.181  12.363  0.0266 -0.0988  0.1762
57827SOL    HW280340   2.152   2.038  12.342 -0.5635  0.1467 -0.2952
57828SOL     OW80341   1.503   2.263   9.765  0.2177 -0.1985 -0.0965
57828SOL    HW180342   1.424   2.230   9.722 -0.8502  1.3100  0.6402
57828SOL    HW280343   1.541   2.186   9.807  0.1769 -1.3134 -1.9864
57829SOL     OW80344   6.275   5.275   7.505 -0.6643 -0.0447  0.2579
57829SOL    HW180345   6.367   5.251   7.493 -0.7954 -0.1064 -0.7500
57829SOL    HW280346   6.228   5.192   7.496 -0.7215 -0.2760  2.3527
57830SOL     OW80347   3.635   8.811   9.739 -0.5919 -0.1113 -0.0703
57830SOL    HW180348   3.571   8.856   9.683 -0.4589  0.6465  0.3577
57830SOL    HW280349   3.690   8.882   9.773  0.4509 -0.7512 -0.3935
57831SOL     OW80350   9.710   0.288   2.058 -0.3960  0.5856  0.1739
57831SOL    HW180351   9.775   0.341   2.105 -1.8377  1.6138  1.1049
57831SOL    HW280352   9.630   0.298   2.110 -1.2317 -0.8628 -0.7877
57832SOL     OW80353   4.235   0.298   6.969 -0.1858 -0.0453  0.3766
57832SOL    HW180354   4.168   0.346   6.920 -1.4674 -1.2159  0.8937
57832SOL    HW280355   4.289   0.258   6.901  0.5116  1.5494 -0.0522
57833SOL     OW80356   0.947   2.794   9.108 -0.1184  0.3559 -0.7014
57833SOL    HW180357   0.881   2.737   9.068 -0.6276  0.9761 -0.7792
57833SOL    HW280358   1.026   2.779   9.057 -0.8029  1.2900 -2.1516
57834SOL     OW80359   1.949   2.251   1.727 -0.1516  0.1091 -0.0067
57834SOL    HW180360   2.029   2.251   1.780  1.2724  0.9692 -2.0106
57834SOL    HW280361   1.907   2.167   1.746 -0.3864  0.8520  3.3282
57835SOL     OW80362  12.055   6.390   6.030 -0.3477 -0.3573  0.2753
57835SOL    HW180363  12.020   6.301   6.019 -1.2553 -0.0276  0.4291
57835SOL    HW280364  12.010   6.424   6.108 -1.8276  1.0857 -1.1402
57836SOL     OW80365   2.076   1.190   6.976  0.3029  0.2412  0.7102
57836SOL    HW180366   2.117   1.110   7.009 -0.3016 -0.0535  0.7653
57836SOL    HW280367   2.145   1.233   6.925  0.9476  0.2088  1.5321
57837SOL     OW80368   8.687   5.534  11.668 -0.2979 -0.5300 -0.1625
57837SOL    HW180369   8.765   5.574  11.629 -0.6266  0.1995 -0.1060
57837SOL    HW280370   8.719   5.483  11.741  0.0426  0.6651  0.5469
57838SOL     OW80371   1.996   1.014   7.987 -0.3246 -0.2699  0.9151
57838SOL    HW180372   1.974   1.004   8.079 -0.2323 -2.3572  0.7771
57838SOL    HW280373   2.091   1.027   7.986 -0.4636  0.8240  1.1462
57839SOL     OW80374   8.083   2.811   1.051 -0.1021 -0.0106 -0.2111
57839SOL    HW180375   8.050   2.767   0.973 -0.6704 -0.0754  0.0629
57839SOL    HW280376   8.166   2.767   1.070 -0.1947 -0.3116 -0.4997
57840SOL     OW80377   7.735   0.473   8.756  0.1656  0.2571  0.1385
57840SOL    HW180378   7.782   0.543   8.711 -0.2514  1.5565  1.6351
57840SOL    HW280379   7.643   0.502   8.756  0.1753  0.3991  1.9280
57841SOL     OW80380   1.185   9.159  10.987  0.4542 -0.7175 -0.2111
57841SOL    HW180381   1.115   9.181  11.048 -1.7086 -0.8589 -2.4480
57841SOL    HW280382   1.148   9.089  10.933  1.9588 -0.1309 -2.1123
57842SOL     OW80383   0.728  10.673   9.980 -0.1814  0.1271 -0.6931
57842SOL    HW180384   0.797  10.695  10.042  0.3072  2.0871 -1.8492
57842SOL    HW280385   0.683  10.599  10.020  0.1854  1.2075  1.9123
57843SOL     OW80386   0.694   0.189  11.949  1.0464 -0.0980 -0.0662
57843SOL    HW180387   0.729   0.165  11.863 -1.2470 -0.8134 -0.8583
57843SOL    HW280388   0.730   0.276  11.966  2.3982 -0.3921 -1.2349
57844SOL     OW80389   4.427   1.357   1.590 -0.0673 -0.3598  0.3052
57844SOL    HW180390   4.507   1.308   1.573  0.0530 -0.1791  0.3462
57844SOL    HW280391   4.418   1.356   1.685 -1.4073 -2.4322  0.2097
57845SOL     OW80392   8.853   9.456  12.026  0.2302 -0.2136  0.0831
57845SOL    HW180393   8.767   9.450  11.983  0.5770  0.0319 -0.6519
57845SOL    HW280394   8.906   9.391  11.981  0.6697  0.2261 -0.0376
57846SOL     OW80395   6.888   1.303   0.799  0.5725  0.3411 -0.1073
57846SOL    HW180396   6.953   1.273   0.735  1.6020  2.9749 -0.4538
57846SOL    HW280397   6.930   1.291   0.884  1.4532  1.6756 -0.3091
57847SOL     OW80398   6.000  12.448   2.094  0.0299 -0.0783 -0.5921
57847SOL    HW180399   5.942  12.489   2.159  0.2150 -0.8849  0.1051
57847SOL    HW280400   5.951  12.451   2.012 -0.4202  0.4955 -0.3106
57848SOL     OW80401   3.201   8.065  10.057 -0.5204 -0.1735  0.2424
57848SOL    HW180402   3.206   8.027  10.144 -0.9642  1.0288  0.8149
57848SOL    HW280403   3.107   8.062  10.035 -0.3495 -0.9845 -0.4517
57849SOL     OW80404   5.430   3.191  10.578  0.2491 -0.1754  0.4974
57849SOL    HW180405   5.385   3.274  10.563 -1.9759 -1.2928  0.4997
57849SOL    HW280406   5.451   3.159  10.491 -1.2615 -0.7668  0.3086
57850SOL     OW80407   2.655   7.449  11.288  0.0092 -0.0956 -0.1468
57850SOL    HW180408   2.570   7.409  11.273  0.3740 -1.3011  0.9073
57850SOL    HW280409   2.665   7.451  11.383  1.5572 -0.8565 -0.2644
57851SOL     OW80410   7.217   0.593  11.611 -0.3505 -0.2764 -0.0739
57851SOL    HW180411   7.231   0.498  11.605  1.0380 -0.0470 -0.7472
57851SOL    HW280412   7.242   0.626  11.525 -2.8228  0.4940 -0.5739
57852SOL     OW80413   6.052   7.078   3.987  0.1779  0.3478 -0.5052
57852SOL    HW180414   5.964   7.101   3.957  0.7988  0.8555 -2.0082
57852SOL    HW280415   6.075   7.000   3.936  0.4941  0.0344  0.1040
57853SOL     OW80416   4.989   5.089   8.355 -0.0388  0.1527  1.0606
57853SOL    HW180417   5.016   5.098   8.446  1.2464  0.4630  0.6574
57853SOL    HW280418   5.026   5.165   8.310  0.8430 -0.9062 -0.0634
57854SOL     OW80419   5.484   5.948   7.130  0.0507  0.2081 -0.6592
57854SOL    HW180420   5.486   5.886   7.203  0.3674 -0.0603 -0.8910
57854SOL    HW280421   5.391   5.966   7.116 -0.0715 -0.5084 -0.8262
57855SOL     OW80422  11.220  12.480  10.192 -0.1186 -0.0782  0.5609
57855SOL    HW180423  11.312  12.508  10.195 -0.4401  0.9527  1.3349
57855SOL    HW280424  11.175  12.552  10.149 -0.5855 -0.5502  0.2535
57856SOL     OW80425  12.275   2.565   4.517  0.0743  0.0360  0.0975
57856SOL    HW180426  12.273   2.648   4.469  2.4162  0.9614  1.4247
57856SOL    HW280427  12.328   2.507   4.463  0.3663  0.1604  0.2501
57857SOL     OW80428   8.016   6.469   7.105  0.8648  0.3949 -0.4070
57857SOL    HW180429   8.111   6.464   7.091  1.1103  0.6489  1.0912
57857SOL    HW280430   8.000   6.410   7.178 -0.0936  0.6618 -0.4009
57858SOL     OW80431   0.996   9.660   7.251 -0.1381 -0.1077 -0.8022
57858SOL    HW180432   1.021   9.748   7.224 -2.0857  1.0938  0.9584
57858SOL    HW280433   0.959   9.620   7.173 -1.3371  1.5291 -1.1441
57859SOL     OW80434  11.061   9.798   1.769  0.1628  0.4004  0.5355
57859SOL    HW180435  11.138   9.763   1.813 -1.4845 -2.9391  1.1873
57859SOL    HW280436  10.991   9.790   1.834 -1.5314 -0.7887 -1.2861
57860SOL     OW80437  12.100  11.648   4.097  0.4257  0.1270 -0.2362
57860SOL    HW180438  12.044  11.723   4.119 -1.2618 -0.4794 -2.0678
57860SOL    HW280439  12.070  11.622   4.009  1.7151 -2.0008 -0.1046
57861SOL     OW80440   3.406   8.760   4.460  0.0243 -0.6609 -0.6198
57861SOL    HW180441   3.353   8.693   4.503  0.1396  0.3113  1.1674
57861SOL    HW280442   3.394   8.838   4.515  0.0816  0.7298 -2.4915
57862SOL     OW80443   3.416  11.953  12.200 -0.1340 -0.1625  0.1981
57862SOL    HW180444   3.325  11.935  12.224  0.0367 -1.1700  0.1074
57862SOL    HW280445   3.467  11.922  12.275  0.0559  2.1663  1.1349
57863SOL     OW80446   1.577  10.809  11.420 -0.1294  0.3122 -0.5176
57863SOL    HW180447   1.583  10.714  11.412  0.0929  0.4895 -3.0068
57863SOL    HW280448   1.483  10.828  11.418 -0.1888  0.1568  0.2998
57864SOL     OW80449   5.967   2.973  11.002 -0.4399  0.2190 -0.5490
57864SOL    HW180450   5.889   2.994  10.950  0.4077  1.6301 -1.3278
57864SOL    HW280451   5.943   2.895  11.052 -2.7489  1.2526  0.0863
57865SOL     OW80452   9.527   7.007   0.085 -0.4573  0.0018 -0.0308
57865SOL    HW180453   9.585   6.998   0.009  0.4665  0.3465  0.6256
57865SOL    HW280454   9.547   6.932   0.141 -0.5393  0.2062  0.2749
57866SOL     OW80455   1.766   0.010   9.945  0.1927  0.2953 -0.4418
57866SOL    HW180456   1.680  -0.032   9.946  0.4943 -0.3484  1.0205
57866SOL    HW280457   1.828  -0.063   9.936  0.6240  0.7048 -0.8799
57867SOL     OW80458   8.600   0.130   9.617 -0.2710  0.3016 -0.0733
57867SOL    HW180459   8.535   0.194   9.647  1.4998  1.7796  0.7748
57867SOL    HW280460   8.651   0.176   9.551  0.4895 -0.5145 -0.0769
57868SOL     OW80461   7.101   8.207   0.137 -0.7768 -0.6122  0.1195
57868SOL    HW180462   7.100   8.225   0.043  0.3468  0.9527  0.3558
57868SOL    HW280463   7.108   8.294   0.177  1.9248 -1.3568  1.5309
57869SOL     OW80464   9.192  10.327   0.941  0.7417 -0.3206  0.0670
57869SOL    HW180465   9.154  10.254   0.990 -2.3491 -0.2530 -1.9922
57869SOL    HW280466   9.155  10.405   0.982  1.1574 -0.0698 -0.0262
57870SOL     OW80467   0.307   4.613  11.591  0.1143 -0.2342 -0.2023
57870SOL    HW180468   0.371   4.669  11.635 -0.2085 -0.3130  0.3838
57870SOL    HW280469   0.252   4.674  11.541 -0.5970  0.0505  0.8923
57871SOL     OW80470   5.632   1.168   7.110  0.2443 -0.5312  0.4476
57871SOL    HW180471   5.688   1.246   7.108  1.0336 -1.1015 -0.5432
57871SOL    HW280472   5.604   1.161   7.201 -0.8722  1.6167  0.3479
57872SOL     OW80473   2.246   2.441   5.015 -0.0636  0.0677  0.2980
57872SOL    HW180474   2.332   2.470   5.047 -0.0137 -2.1435  2.5231
57872SOL    HW280475   2.220   2.508   4.952  3.8351  0.2043 -1.4910
57873SOL     OW80476   9.947   6.737   1.598 -0.6604  0.6042 -0.6116
57873SOL    HW180477   9.947   6.833   1.593 -0.6668  0.5759 -1.2346
57873SOL    HW280478   9.886   6.709   1.530  0.3964  0.1228 -1.3899
57874SOL     OW80479   9.044   3.610   5.520 -0.2214 -0.6352 -0.0502
57874SOL    HW180480   9.008   3.550   5.455  1.7471  0.3211 -2.1684
57874SOL    HW280481   9.131   3.576   5.540 -0.6175 -0.6613  1.8128
57875SOL     OW80482   1.789  11.817  12.261 -0.3919 -0.3613  0.2623
57875SOL    HW180483   1.783  11.728  12.297 -0.4010 -1.3901 -2.1137
57875SOL    HW280484   1.875  11.820  12.218 -0.0385  1.0882  1.0196
57876SOL     OW80485   0.357  11.601   5.097 -0.3884  0.3027 -0.7518
57876SOL    HW180486   0.402  11.644   5.169 -0.4237  0.8592 -1.0513
57876SOL    HW280487   0.393  11.642   5.018 -1.5614  0.9257 -0.9926
57877SOL     OW80488   8.931   7.931  12.298  0.1281 -0.1303  0.5004
57877SOL    HW180489   9.007   7.878  12.323  0.2794 -0.8672 -1.3712
57877SOL    HW280490   8.883   7.877  12.235 -0.5900  1.3224 -0.2502
57878SOL     OW80491   4.954   1.835   8.312  0.0483  0.0511  0.1650
57878SOL    HW180492   4.885   1.862   8.252 -0.2608  0.1256  0.5460
57878SOL    HW280493   4.938   1.741   8.326  1.1696 -0.3795 -1.2209
57879SOL     OW80494   7.975   1.147   1.547 -0.1364  0.0249  0.0672
57879SOL    HW180495   8.048   1.208   1.544  0.4190 -0.6311 -0.0921
57879SOL    HW280496   7.957   1.126   1.455 -1.1729  0.9230  0.0428
57880SOL     OW80497   0.139  11.503  11.154  0.0430  0.3880  0.3241
57880SOL    HW180498   0.095  11.565  11.096 -1.7881  0.6794  1.9235
57880SOL    HW280499   0.075  11.433  11.167  1.1995 -0.6953  0.4121
57881SOL     OW80500  11.844   7.157   5.315  0.1181 -0.3227  0.5115
57881SOL    HW180501  11.888   7.076   5.340  1.0370 -0.0798 -0.2780
57881SOL    HW280502  11.754   7.145   5.344  0.0730 -1.9080 -0.1724
57882SOL     OW80503   7.684   9.848   5.138  0.5414 -0.6099  0.0410
57882SOL    HW180504   7.679   9.755   5.119 -0.2503 -0.3266 -1.2311
57882SOL    HW280505   7.593   9.878   5.139  0.8047  0.2273  0.0504
57883SOL     OW80506  11.199   7.142   6.387 -0.1863  0.1776 -0.1650
57883SOL    HW180507  11.226   7.133   6.296 -0.8325  1.2072 -0.4692
57883SOL    HW280508  11.280   7.129   6.437 -0.1308 -2.1793 -0.7517
57884SOL     OW80509   3.611   4.474   2.956  0.4718  0.0820  0.1863
57884SOL    HW180510   3.643   4.445   2.871  0.2470 -1.1815  0.5180
57884SOL    HW280511   3.534   4.420   2.973  0.7094  0.0736  1.3445
57885SOL     OW80512   9.407   5.104   5.638 -0.2072 -0.8426  0.2040
57885SOL    HW180513   9.410   5.102   5.734 -1.3753 -0.8398  0.2528
57885SOL    HW280514   9.316   5.123   5.617  0.2218  0.1270 -0.9049
57886SOL     OW80515  11.517  11.164   3.868 -0.5281 -0.4644 -0.0746
57886SOL    HW180516  11.471  11.137   3.788 -0.6897 -1.6917  0.4138
57886SOL    HW280517  11.592  11.105   3.874 -0.8904 -0.8230  1.0285
57887SOL     OW80518   3.977   3.154  12.360 -0.2818 -0.2749  0.8495
57887SOL    HW180519   3.992   3.242  12.327  0.8591 -0.8153 -0.1483
57887SOL    HW280520   3.935   3.108  12.287  0.0000 -0.8127  1.0219
57888SOL     OW80521   4.424   1.941   6.628 -0.5895  0.0215  0.0722
57888SOL    HW180522   4.463   2.013   6.678 -0.1574  0.4251 -0.8209
57888SOL    HW280523   4.475   1.864   6.654  0.7809  0.5250 -1.0080
57889SOL     OW80524   1.991   6.469   0.444  0.2783 -0.0832 -0.3601
57889SOL    HW180525   2.012   6.558   0.472 -2.8400  0.2938  1.1523
57889SOL    HW280526   1.979   6.475   0.350 -0.4457  1.2195 -0.1977
57890SOL     OW80527  11.385  11.480   0.280  0.2686  0.5736 -0.6775
57890SOL    HW180528  11.314  11.545   0.272 -0.9045 -0.6671 -0.7031
57890SOL    HW280529  11.457  11.528   0.320 -1.0413  1.5541  0.6259
57891SOL     OW80530   4.241   2.575   7.125 -0.1141 -0.1758  0.0724
57891SOL    HW180531   4.332   2.546   7.131 -0.1565 -0.1924  0.7318
57891SOL    HW280532   4.197   2.506   7.074 -0.0844 -0.9790  1.1040
57892SOL     OW80533   9.381  11.496   2.585  0.2233  0.0867  0.2717
57892SOL    HW180534   9.294  11.485   2.548  0.4960 -2.6858  0.2560
57892SOL    HW280535   9.427  11.552   2.522 -0.8348 -0.3838 -0.9474
57893SOL     OW80536   2.725  10.746   3.040 -0.2604 -0.1552 -0.4966
57893SOL    HW180537   2.746  10.662   3.000  0.2307  0.0445 -0.6665
57893SOL    HW280538   2.789  10.807   3.003 -2.3173  0.9224 -2.6158
57894SOL     OW80539   1.396   8.125   5.733 -0.0423 -0.0746  0.1275
57894SOL    HW180540   1.307   8.119   5.767 -0.0347  0.1799  0.1963
57894SOL    HW280541   1.445   8.166   5.804  0.0658  0.0623 -0.0252
57895SOL     OW80542   3.472  11.074   2.803 -0.6746 -0.4299 -0.3560
57895SOL    HW180543   3.392  11.028   2.777 -0.3222 -0.6988 -0.9903
57895SOL    HW280544   3.532  11.060   2.730 -0.2511  0.2768 -0.1534
57896SOL     OW80545   8.549   9.746   9.066 -0.4554 -0.1889 -0.2362
57896SOL    HW180546   8.641   9.746   9.038  0.3097  3.2423  1.7071
57896SOL    HW280547   8.501   9.777   8.989  0.4519  0.9252 -0.3742
57897SOL     OW80548   0.224   1.508  10.225  0.1611  0.1676 -0.3897
57897SOL    HW180549   0.226   1.478  10.134  0.1866  0.6735 -0.5571
57897SOL    HW280550   0.217   1.603  10.219 -2.6441  0.0877  0.1275
57898SOL     OW80551   8.949  12.370   1.151  0.7519  0.3172 -0.1246
57898SOL    HW180552   8.866  12.336   1.118  1.3455 -1.5689  0.2372
57898SOL    HW280553   8.976  12.308   1.219  2.4265  0.9144 -0.1957
57899SOL     OW80554   9.439   8.988  12.309  0.1176 -0.1297  0.1065
57899SOL    HW180555   9.447   9.002  12.403 -1.1619  0.2869  0.1726
57899SOL    HW280556   9.504   9.047  12.270 -1.2280  1.8182  0.6432
57900SOL     OW80557   6.618   0.552   6.833  0.3650  0.5755  0.4605
57900SOL    HW180558   6.661   0.483   6.782 -1.6530  0.1827 -0.8221
57900SOL    HW280559   6.649   0.538   6.922  1.8683 -0.4599 -0.1799
57901SOL     OW80560   1.715   5.655   2.615  0.1915 -0.1778  0.0424
57901SOL    HW180561   1.727   5.622   2.704  2.7293  0.0035 -0.1657
57901SOL    HW280562   1.626   5.628   2.591  0.5494 -3.0013  1.4883
57902SOL     OW80563   9.203  12.202   9.142 -0.4985  0.2536  0.3446
57902SOL    HW180564   9.151  12.238   9.071 -0.9739  0.5012  0.8108
57902SOL    HW280565   9.288  12.183   9.103 -0.5684  0.9360 -0.1478
57903SOL     OW80566   7.908   7.774   5.884 -0.1820  0.1849 -0.2973
57903SOL    HW180567   7.884   7.694   5.929  0.3523 -0.6416 -1.4260
57903SOL    HW280568   7.825   7.811   5.853 -0.4833  0.4076  0.7361
57904SOL     OW80569   4.327   4.032   6.181  0.3336  0.6421  0.0540
57904SOL    HW180570   4.346   4.043   6.275 -0.8993  0.1814  0.3744
57904SOL    HW280571   4.233   4.020   6.177  0.5343 -0.7627 -1.1208
57905SOL     OW80572   9.445   5.342   9.918 -0.1970  0.0165 -0.9203
57905SOL    HW180573   9.352   5.350   9.940 -0.3805 -1.1426 -1.2047
57905SOL    HW280574   9.476   5.432   9.914 -1.4244  0.4499 -1.2949
57906SOL     OW80575   7.277  11.782  10.102 -0.2139  0.3188  0.8251
57906SOL    HW180576   7.219  11.823  10.166 -1.4382 -0.7228  0.4293
57906SOL    HW280577   7.338  11.730  10.154 -0.8004 -0.0277  1.1705
57907SOL     OW80578   6.279   2.779   0.974 -0.2067  0.0795  0.0684
57907SOL    HW180579   6.201   2.803   0.924 -0.1370 -0.0451 -0.0974
57907SOL    HW280580   6.254   2.794   1.065 -0.2334  0.5973 -0.0188
57908SOL     OW80581   2.419   9.155   1.120 -0.6470 -0.0958  0.2984
57908SOL    HW180582   2.382   9.067   1.111 -0.6744  0.0022 -0.6078
57908SOL    HW280583   2.512   9.141   1.135 -0.3657 -0.2698 -1.4059
57909SOL     OW80584   5.212   5.909   7.069 -0.4622 -0.5807  0.5423
57909SOL    HW180585   5.207   5.925   6.975 -3.2307  0.6526  0.7852
57909SOL    HW280586   5.194   5.815   7.078  0.2924 -0.7984 -0.1709
57910SOL     OW80587   2.306   8.925  12.391  0.1122 -0.2110 -0.1310
57910SOL    HW180588   2.230   8.881  12.351 -0.2573 -0.5653  0.9172
57910SOL    HW280589   2.332   8.867  12.462 -1.0332  1.7273  1.9822
57911SOL     OW80590   0.479   1.673   8.971 -0.0923 -0.7667 -0.0346
57911SOL    HW180591   0.436   1.589   8.984 -0.0049 -0.6963  0.7256
57911SOL    HW280592   0.516   1.695   9.056  4.6143 -2.5045 -1.3221
57912SOL     OW80593   8.432   9.879   8.859 -0.3326  0.2538  0.1450
57912SOL    HW180594   8.354   9.902   8.909  0.6406  2.1364  0.9317
57912SOL    HW280595   8.447   9.955   8.802  0.6363 -0.2864 -0.3462
57913SOL     OW80596   3.869   3.974  11.522 -1.3872  0.2607 -0.8623
57913SOL    HW180597   3.931   3.929  11.579 -1.0581  1.1879 -0.4700
57913SOL    HW280598   3.787   3.977  11.571 -1.4373 -0.0002 -0.9308
57914SOL     OW80599   9.714   1.749   0.057  0.0678  0.0602 -0.5020
57914SOL    HW180600   9.624   1.766   0.030 -0.1193  0.8918  0.6005
57914SOL    HW280601   9.741   1.828   0.105  0.2383 -1.4553  2.0857
57915SOL     OW80602   3.824   5.874   3.608 -0.0890  0.3683 -0.2383
57915SOL    HW180603   3.775   5.931   3.549  0.0527  1.6007  0.7740
57915SOL    HW280604   3.763   5.804   3.630 -0.8508  1.0028 -0.2761
57916SOL     OW80605   6.994   2.398   3.756  0.3084  0.1385 -0.2437
57916SOL    HW180606   6.953   2.484   3.769  0.8849  0.3177  0.4255
57916SOL    HW280607   6.930   2.349   3.705 -0.9380  0.2537  1.1584
57917SOL     OW80608   0.327   0.411   2.212  0.4353  0.0173  0.1843
57917SOL    HW180609   0.365   0.487   2.169  1.3887 -0.0830  0.8056
57917SOL    HW280610   0.328   0.342   2.145  1.2732  0.0504  0.1503
57918SOL     OW80611   2.548   1.367   4.242  0.4285  0.2483  0.0456
57918SOL    HW180612   2.609   1.356   4.169 -0.2042  0.3240 -0.5095
57918SOL    HW280613   2.593   1.426   4.302  0.3046  1.5087 -1.0582
57919SOL     OW80614   6.463   2.065  10.148 -0.1356  0.0252  0.0175
57919SOL    HW180615   6.430   2.154  10.158  0.9666  0.2338  2.2985
57919SOL    HW280616   6.399   2.010  10.192  0.1184 -0.0996  0.2359
57920SOL     OW80617   9.450   4.781   8.879  0.1011 -0.3865 -0.3548
57920SOL    HW180618   9.370   4.763   8.929 -0.0754  1.2054 -0.0055
57920SOL    HW280619   9.431   4.862   8.832  0.9863 -0.7893 -1.4683
57921SOL     OW80620   8.631   9.659  12.502  0.5010 -0.7074  0.2426
57921SOL    HW180621   8.676   9.624  12.425 -1.8981 -1.1597 -1.0192
57921SOL    HW280622   8.538   9.643  12.486 -0.4640  2.8883  1.3237
57922SOL     OW80623   7.034   8.163   4.970 -0.2449  0.2000  0.2919
57922SOL    HW180624   6.961   8.105   4.993  1.0023 -1.5667 -0.0373
57922SOL    HW280625   6.999   8.252   4.985 -1.5505 -0.6290  2.8456
57923SOL     OW80626   3.024  11.871   4.671 -0.0307  0.2322  0.0897
57923SOL    HW180627   2.930  11.860   4.690 -0.3628 -1.7417 -2.3035
57923SOL    HW280628   3.026  11.912   4.585  1.2375 -1.9731 -1.0057
57924SOL     OW80629  12.189   5.475   7.929  0.8802 -0.3891  0.0905
57924SOL    HW180630  12.253   5.472   7.857 -0.1413  0.3931 -0.8819
57924SOL    HW280631  12.122   5.412   7.905  1.9025 -2.2638  1.8042
57925SOL     OW80632   6.584   9.372   2.186  0.0964 -0.0987  0.5088
57925SOL    HW180633   6.677   9.390   2.169  0.0313 -0.2875 -0.0509
57925SOL    HW280634   6.551   9.453   2.225  0.0828  0.5977 -0.8970
57926SOL     OW80635   5.422   0.944   3.211 -0.6786  0.0960  0.2297
57926SOL    HW180636   5.497   0.965   3.266  1.8915 -1.9710 -2.1491
57926SOL    HW280637   5.375   1.027   3.202  2.5749  2.1204  0.1397
57927SOL     OW80638   8.695   6.500   9.873  0.5445 -0.5202 -0.1079
57927SOL    HW180639   8.600   6.511   9.862  0.3706 -0.8874  0.9512
57927SOL    HW280640   8.731   6.588   9.861  0.0378 -0.3175 -0.1674
57928SOL     OW80641   7.039   8.777   0.816  0.0093  0.0659 -0.1219
57928SOL    HW180642   7.048   8.830   0.736 -2.2633  1.6573  0.6088
57928SOL    HW280643   7.095   8.821   0.880 -0.9514  0.9212  0.1471
57929SOL     OW80644   8.581  11.888   7.003  0.3669 -0.1357  0.1573
57929SOL    HW180645   8.600  11.795   6.998  2.3196  0.0553  2.4476
57929SOL    HW280646   8.491  11.893   7.037  0.3406 -1.1730  0.2575
57930SOL     OW80647   8.220   9.881   9.778 -0.6253 -0.2055  0.1031
57930SOL    HW180648   8.195   9.974   9.780 -2.2365 -0.6293  0.9027
57930SOL    HW280649   8.142   9.836   9.746  0.3807 -1.2431 -1.0080
57931SOL     OW80650   1.644   7.280  12.514 -0.3145  0.1054  0.0169
57931SOL    HW180651   1.694   7.234  12.447 -1.6532 -0.5845 -0.5621
57931SOL    HW280652   1.605   7.211  12.567  1.0663  0.6360  1.8424
57932SOL     OW80653   4.098   5.408   2.841 -0.0760  0.2337  0.5212
57932SOL    HW180654   4.039   5.375   2.773 -1.5135  1.2778  1.1841
57932SOL    HW280655   4.078   5.502   2.846 -0.0233  0.1893  2.3633
57933SOL     OW80656   4.187   7.332   7.246  0.7252 -0.0532  0.0047
57933SOL    HW180657   4.198   7.259   7.185 -0.4934  0.0271 -0.3313
57933SOL    HW280658   4.132   7.394   7.199 -0.5605 -0.1600  1.3145
57934SOL     OW80659   1.733   4.694   4.029  0.3753  0.8105  0.0595
57934SOL    HW180660   1.737   4.612   3.980 -0.8924  1.0359 -0.4614
57934SOL    HW280661   1.678   4.751   3.976 -1.0664  1.0587  1.7082
57935SOL     OW80662   1.621   0.769   2.364 -0.2615  0.7687  0.3876
57935SOL    HW180663   1.592   0.806   2.281 -0.4127  1.3984  0.7115
57935SOL    HW280664   1.598   0.836   2.429 -1.2539 -0.2319  1.0955
57936SOL     OW80665   8.354  10.593   0.245 -0.4956  0.1823  0.4584
57936SOL    HW180666   8.323  10.641   0.169 -0.9277 -2.3457 -1.0695
57936SOL    HW280667   8.446  10.574   0.227 -0.4909 -0.0917  0.7415
57937SOL     OW80668   8.559   9.602   7.791  0.1448 -0.0389 -0.3505
57937SOL    HW180669   8.470   9.569   7.795 -0.7051  1.8656 -1.7922
57937SOL    HW280670   8.600   9.553   7.719  0.3822 -1.0986  0.4819
57938SOL     OW80671   1.800  10.253   8.752 -0.2182 -0.0502  0.0352
57938SOL    HW180672   1.812  10.323   8.687  1.7008 -0.2574  0.1268
57938SOL    HW280673   1.764  10.180   8.701  0.5892  0.0237 -0.6560
57939SOL     OW80674   7.069   1.509   8.441  0.2404  0.2146  0.1371
57939SOL    HW180675   7.013   1.586   8.444  1.8101  1.3715  1.8301
57939SOL    HW280676   7.124   1.516   8.519  0.3915 -2.6675  0.4088
57940SOL     OW80677   4.472  12.515   3.835  0.2347 -0.1796 -0.6315
57940SOL    HW180678   4.459  12.479   3.922  1.4307 -0.9552 -0.7512
57940SOL    HW280679   4.390  12.497   3.788 -0.4979  0.4418  0.3734
57941SOL     OW80680  12.087   7.702   2.768 -0.1263  0.0740  0.1317
57941SOL    HW180681  12.038   7.692   2.849 -0.7758 -0.9177 -0.3676
57941SOL    HW280682  12.046   7.642   2.706  0.9325  0.1277 -0.6720
57942SOL     OW80683   8.121   2.190  12.111 -0.3329  0.2581  0.0805
57942SOL    HW180684   8.041   2.169  12.063  0.2405 -0.3961 -0.6097
57942SOL    HW280685   8.132   2.284  12.100 -0.3254  0.1520 -0.8875
57943SOL     OW80686   8.415   8.755   7.200 -0.5844 -0.4111  0.7054
57943SOL    HW180687   8.498   8.714   7.178  0.1661  0.6909  1.3475
57943SOL    HW280688   8.414   8.836   7.148 -0.1037  0.7798  2.4252
57944SOL     OW80689  10.164   4.246   2.909  0.2081 -0.7535  0.2057
57944SOL    HW180690  10.164   4.336   2.940 -0.2957 -0.7856  0.3134
57944SOL    HW280691  10.246   4.236   2.861  0.2311 -0.2218  0.1396
57945SOL     OW80692   6.538   9.636   9.659 -0.0770 -0.6285 -0.2388
57945SOL    HW180693   6.444   9.623   9.671 -0.4666  2.7967  1.4872
57945SOL    HW280694   6.579   9.565   9.710 -1.6599 -1.9495 -0.7273
57946SOL     OW80695   3.803   7.774   2.786  0.1322 -0.1092 -0.1266
57946SOL    HW180696   3.837   7.862   2.769 -0.2370  0.0120 -0.2485
57946SOL    HW280697   3.827   7.724   2.708  0.3450 -0.1188 -0.0557
57947SOL     OW80698   6.188   9.333  11.249  0.2965 -0.1133  0.0056
57947SOL    HW180699   6.132   9.393  11.297 -0.7316  0.0155 -1.3064
57947SOL    HW280700   6.264   9.386  11.224  0.5978 -0.0503  0.9974
57948SOL     OW80701   0.780   1.320  11.066 -0.1791  0.0027 -0.1685
57948SOL    HW180702   0.692   1.356  11.053 -0.5892 -0.0551  2.0026
57948SOL    HW280703   0.815   1.369  11.141  1.8757  0.3927 -1.3032
57949SOL     OW80704   4.989   1.957   2.670  0.0793  0.1696 -0.1190
57949SOL    HW180705   4.955   2.046   2.680 -0.0947 -0.1347  2.5721
57949SOL    HW280706   4.914   1.900   2.685  0.5869 -0.4483  0.1345
57950SOL     OW80707   1.614   3.326  12.086  0.0218  0.1874 -0.3578
57950SOL    HW180708   1.558   3.270  12.140  0.8492 -1.1691 -0.8617
57950SOL    HW280709   1.565   3.337  12.004  0.2526 -0.5521 -0.5970
57951SOL     OW80710   1.023  10.301  11.301  0.4332 -0.9722 -0.3463
57951SOL    HW180711   0.949  10.241  11.297  0.0618 -0.6819  1.5282
57951SOL    HW280712   1.040  10.313  11.394  3.1242 -1.3596 -0.6962
57952SOL     OW80713   6.592   6.294   9.021 -0.0185 -0.0883 -0.7361
57952SOL    HW180714   6.498   6.278   9.009 -0.0108  0.2915 -1.3060
57952SOL    HW280715   6.622   6.219   9.072 -1.0840  0.9054  1.5123
57953SOL     OW80716   2.772   4.733  10.551 -0.8169 -0.0597 -0.1902
57953SOL    HW180717   2.747   4.697  10.636 -2.6688 -0.2586 -0.7882
57953SOL    HW280718   2.813   4.817  10.572 -0.2316 -0.6068  0.9541
57954SOL     OW80719  10.454   2.320  11.956  0.0092 -0.2198  0.0523
57954SOL    HW180720  10.455   2.355  12.045 -1.9497 -2.5788  1.1606
57954SOL    HW280721  10.504   2.238  11.962 -0.4459 -0.5826 -0.9055
57955SOL     OW80722   3.039  11.266  10.574 -0.0942 -0.4934 -1.0687
57955SOL    HW180723   2.966  11.219  10.534 -0.9351  1.2145 -1.6465
57955SOL    HW280724   3.081  11.312  10.501  1.3964 -1.1854 -0.6981
57956SOL     OW80725   2.544   3.787  10.504 -0.5989  0.2466 -0.1359
57956SOL    HW180726   2.549   3.738  10.587  1.2799  1.2580  0.4155
57956SOL    HW280727   2.578   3.873  10.526  0.5935  0.3284 -2.1146
57957SOL     OW80728   2.311   4.124  10.538 -0.1646  0.1764  0.2944
57957SOL    HW180729   2.347   4.115  10.626 -0.8999  0.4034  0.6287
57957SOL    HW280730   2.231   4.176  10.550  1.6333  3.5069 -0.9715
57958SOL     OW80731  10.713   6.575   1.883 -0.9105  0.3081  0.5605
57958SOL    HW180732  10.636   6.523   1.907  0.0908 -0.8224  1.4605
57958SOL    HW280733  10.787   6.518   1.903  0.1827  1.5543  0.1796
57959SOL     OW80734   4.108  12.155   9.970  0.1429 -0.2078 -0.4613
57959SOL    HW180735   4.069  12.132  10.054  1.2367 -0.3518  0.0256
57959SOL    HW280736   4.197  12.182   9.991  0.5229 -0.4971 -1.5984
57960SOL     OW80737  10.764   4.095   5.880  0.0644  0.3523  0.1947
57960SOL    HW180738  10.699   4.026   5.871 -1.0981  1.5641 -1.3852
57960SOL    HW280739  10.843   4.050   5.909 -0.9089 -1.4773  0.1519
57961SOL     OW80740   2.245  10.563   0.305 -0.0178 -0.4630 -0.4294
57961SOL    HW180741   2.316  10.498   0.300 -0.3140 -0.6937 -2.5562
57961SOL    HW280742   2.274  10.634   0.247  0.0662  1.1497  1.4637
57962SOL     OW80743  12.072   2.115   0.034  0.0781 -0.0166 -0.3452
57962SOL    HW180744  12.151   2.132  -0.016 -0.0440 -0.0970 -0.5694
57962SOL    HW280745  12.056   2.022   0.024  0.3731 -0.1458  0.3264
57963SOL     OW80746   0.365   1.402   4.681  0.5212 -0.0421 -0.1276
57963SOL    HW180747   0.347   1.308   4.682  2.2564 -0.4379 -1.3170
57963SOL    HW280748   0.284   1.442   4.650 -0.2632 -1.1249  0.4636
57964SOL     OW80749   8.575   6.922   7.355 -0.1496 -0.0512 -0.0718
57964SOL    HW180750   8.558   6.830   7.375 -0.0904 -0.1820 -0.6214
57964SOL    HW280751   8.528   6.939   7.273 -1.6382  0.8843  0.9077
57965SOL     OW80752   7.625   1.648  11.331  0.3494  0.0246 -0.1418
57965SOL    HW180753   7.608   1.555  11.347  0.1071  0.4774  2.7218
57965SOL    HW280754   7.675   1.677  11.408 -0.9647  2.6136 -0.1519
57966SOL     OW80755   6.870   3.733   1.012  0.7376  0.1421  0.7530
57966SOL    HW180756   6.825   3.649   1.012  0.9357  0.0092 -0.6999
57966SOL    HW280757   6.867   3.762   1.103 -0.3885 -0.8641  1.0597
57967SOL     OW80758   6.954  12.441   0.794  0.3736 -0.1149  0.0438
57967SOL    HW180759   6.988  12.464   0.880  0.9632  0.1786 -0.2642
57967SOL    HW280760   6.863  12.417   0.810  0.6886 -0.8368  0.8678
57968SOL     OW80761   5.237   1.734   5.245 -0.3448 -0.1047  0.2857
57968SOL    HW180762   5.277   1.733   5.332  2.7002  1.1540 -0.9717
57968SOL    HW280763   5.170   1.665   5.249 -1.7523  1.2363  4.1694
57969SOL     OW80764   1.697   2.954   1.796 -0.1969  0.2965 -0.5980
57969SOL    HW180765   1.700   2.861   1.775  2.4035  0.0643  0.4443
57969SOL    HW280766   1.658   2.995   1.719  0.8288 -1.4163 -2.1011
57970SOL     OW80767   8.088   6.212  12.454 -0.2598  0.0423 -0.1502
57970SOL    HW180768   8.167   6.259  12.425  0.4677 -1.6805 -1.1094
57970SOL    HW280769   8.120   6.127  12.485 -1.6170 -0.1611  0.7784
57971SOL     OW80770   1.568  11.397   9.367  0.0858  0.1080  0.1726
57971SOL    HW180771   1.564  11.340   9.290 -0.2546  0.9735 -0.4548
57971SOL    HW280772   1.496  11.365   9.423 -0.6351  0.4398 -0.5441
57972SOL     OW80773   5.468   5.256   7.500 -0.7770 -0.4299  0.3467
57972SOL    HW180774   5.500   5.178   7.546 -1.7370 -0.5629  0.8016
57972SOL    HW280775   5.474   5.232   7.407 -0.1981 -0.6928  0.4420
57973SOL     OW80776   5.536   0.049   0.673  0.2822 -0.5002 -0.0138
57973SOL    HW180777   5.458   0.049   0.729  1.5027 -0.6423  1.7661
57973SOL    HW280778   5.502   0.050   0.584 -1.7459  0.0251  0.7212
57974SOL     OW80779  10.359   2.124  11.775 -1.0654 -0.3052 -0.0843
57974SOL    HW180780  10.377   2.197  11.833 -1.5164 -0.5260  0.3382
57974SOL    HW280781  10.443   2.107  11.731 -1.0529  0.6817 -0.4503
57975SOL     OW80782   3.296   5.203   8.611 -0.4291 -0.2593  0.3728
57975SOL    HW180783   3.357   5.271   8.585 -0.1670  0.0690  1.7662
57975SOL    HW280784   3.333   5.122   8.575  1.8009 -0.3349  2.6110
57976SOL     OW80785   9.039  11.465   6.285 -0.2600  0.1632 -0.2017
57976SOL    HW180786   9.047  11.370   6.301 -1.7048 -0.3350 -2.0504
57976SOL    HW280787   9.099  11.481   6.212 -0.9752  0.3802 -0.7560
57977SOL     OW80788   1.393   9.337   2.366 -0.4367  0.3855  0.0901
57977SOL    HW180789   1.306   9.339   2.326 -0.4074  0.3474  0.0248
57977SOL    HW280790   1.418   9.245   2.364 -1.1822  0.1017  1.7924
57978SOL     OW80791   3.953  10.075   3.153  0.1785  0.0933  0.2063
57978SOL    HW180792   3.973   9.991   3.194  1.0342  0.5500  0.7696
57978SOL    HW280793   3.995  10.140   3.210 -2.0844  1.0788  0.8690
57979SOL     OW80794   9.209   0.771   0.236 -0.0407 -0.4428 -0.4715
57979SOL    HW180795   9.135   0.719   0.205 -2.4128  2.2116  0.3332
57979SOL    HW280796   9.182   0.861   0.223  0.4702  0.8846  5.1475
57980SOL     OW80797   2.492   5.054   1.748  0.5408  0.1218  0.0035
57980SOL    HW180798   2.555   5.035   1.817 -1.3524 -2.1568  1.2748
57980SOL    HW280799   2.430   5.115   1.788 -0.1142 -0.5804  0.0920
57981SOL     OW80800   0.573   8.180  10.575  0.3247  0.2070  0.0126
57981SOL    HW180801   0.496   8.219  10.615  0.1595  1.6346 -1.5782
57981SOL    HW280802   0.543   8.093  10.546 -0.6050  0.6171 -0.3003
57982SOL     OW80803   4.322   5.305   7.972 -0.3319 -0.1034 -0.1828
57982SOL    HW180804   4.287   5.257   7.897 -0.6622 -2.1246  1.1853
57982SOL    HW280805   4.268   5.276   8.046  1.3449  0.1819  1.2021
57983SOL     OW80806  10.302   8.730   2.612  0.2307  0.2560 -0.5310
57983SOL    HW180807  10.330   8.638   2.611 -0.6571 -0.0712  0.8157
57983SOL    HW280808  10.262   8.744   2.527  1.5360 -0.2068 -1.2451
57984SOL     OW80809  10.803   8.032   9.389  0.1972  0.4944 -0.0753
57984SOL    HW180810  10.726   8.032   9.332  1.9499  0.7348 -2.6185
57984SOL    HW280811  10.807   7.943   9.423 -0.1860 -0.0637 -1.4261
57985SOL     OW80812   0.758   9.474   3.574  0.7000  0.0063 -0.7867
57985SOL    HW180813   0.793   9.395   3.533 -0.1462 -0.0598 -1.4099
57985SOL    HW280814   0.663   9.468   3.562  0.4667  0.2533  0.7503
57986SOL     OW80815   3.983   5.865   1.193  0.2218 -0.1964 -0.4383
57986SOL    HW180816   3.899   5.820   1.188  0.0585  0.0253  0.2429
57986SOL    HW280817   3.993   5.908   1.108 -0.5678  0.1499 -0.3580
57987SOL     OW80818   3.218  11.979   3.843 -0.2582 -0.2733 -0.5223
57987SOL    HW180819   3.260  11.898   3.871  2.0180  1.4494  1.4974
57987SOL    HW280820   3.175  12.012   3.922  1.2997  1.8126 -0.4429
57988SOL     OW80821  11.666   5.999   6.310 -0.1595 -0.6982  0.2750
57988SOL    HW180822  11.696   5.943   6.382  2.5830  0.1710 -0.0663
57988SOL    HW280823  11.719   5.972   6.235  0.7660  1.8244 -0.0751
57989SOL     OW80824  10.616   8.531  12.554  0.5100 -0.2260  0.0582
57989SOL    HW180825  10.562   8.476  12.610  0.6925  1.1525  1.6799
57989SOL    HW280826  10.706   8.508  12.575  0.5747 -0.3807 -0.3811
57990SOL     OW80827   1.430   1.241   3.211 -0.1826  0.1306  0.2914
57990SOL    HW180828   1.356   1.196   3.252  0.3958 -0.2654  0.9347
57990SOL    HW280829   1.429   1.212   3.120  0.1481 -1.1604  0.6805
57991SOL     OW80830   2.370   7.719   5.619  0.4321  0.3164 -0.4458
57991SOL    HW180831   2.397   7.789   5.679 -1.7729  0.1029  0.9149
57991SOL    HW280832   2.439   7.716   5.553  1.3965  2.6917  0.3449
57992SOL     OW80833  12.048   8.252   8.032 -0.3644  0.4356 -0.3210
57992SOL    HW180834  11.996   8.319   7.988 -0.7080  0.5171  0.1998
57992SOL    HW280835  12.139   8.277   8.015 -0.4682 -0.2191 -2.0134
57993SOL     OW80836   8.679  12.531   2.723 -0.1612  0.0635  0.0108
57993SOL    HW180837   8.698  12.437   2.722 -0.9129 -0.0880 -1.0133
57993SOL    HW280838   8.746  12.569   2.666  0.2882  0.1840  0.6130
57994SOL     OW80839   7.900   3.290   5.207 -0.3098 -0.2052 -0.8121
57994SOL    HW180840   7.936   3.378   5.200 -4.5993  1.8912 -0.1418
57994SOL    HW280841   7.860   3.287   5.294 -0.5401 -2.7516 -0.9266
57995SOL     OW80842   2.895  12.066   8.342  0.1016 -0.6733 -0.1000
57995SOL    HW180843   2.847  12.074   8.260 -0.2340  0.3046  0.1768
57995SOL    HW280844   2.964  12.131   8.336 -1.2323  0.9740  1.2527
57996SOL     OW80845   8.736   4.532   9.622  0.5412 -0.3324 -0.6767
57996SOL    HW180846   8.746   4.560   9.713  1.5639  1.6087 -1.3329
57996SOL    HW280847   8.643   4.509   9.614 -0.3120  2.4585  0.1245
57997SOL     OW80848   5.845   8.399   3.756 -0.4947  0.0743  0.1763
57997SOL    HW180849   5.933   8.424   3.783 -1.0430  0.2643  1.9073
57997SOL    HW280850   5.850   8.304   3.742 -0.2597 -0.1005  1.3525
57998SOL     OW80851  10.122  10.087   8.880  0.0480 -0.5023 -0.2325
57998SOL    HW180852  10.066  10.157   8.913  0.5947  0.1262 -0.5923
57998SOL    HW280853  10.189  10.133   8.829  0.3091 -1.3068 -0.6289
57999SOL     OW80854   5.891   7.214   7.240 -0.2113 -0.5396 -0.3267
57999SOL    HW180855   5.981   7.246   7.247 -0.5736  0.5299 -0.2808
57999SOL    HW280856   5.889   7.136   7.296  0.5179 -0.1891  0.2107
58000SOL     OW80857   0.970   6.536   0.548  0.3760  0.1400 -0.0328
58000SOL    HW180858   0.903   6.468   0.552  1.0617 -0.7135 -1.9115
58000SOL    HW280859   0.965   6.580   0.633 -0.0153 -2.3305  1.3125
58001SOL     OW80860   6.852   4.883   0.826 -0.3296  0.0267  0.1455
58001SOL    HW180861   6.853   4.790   0.801  0.3026  0.1509 -0.3517
58001SOL    HW280862   6.922   4.922   0.772  0.5704  0.4627  1.5803
58002SOL     OW80863  12.021  11.598  11.159  0.0902 -0.1050  0.5747
58002SOL    HW180864  12.023  11.692  11.175 -3.7101  0.1811  0.0874
58002SOL    HW280865  11.980  11.562  11.238  0.3605 -1.2358  0.2113
58003SOL     OW80866   5.724   1.922   7.331 -0.4087  0.1767  0.2621
58003SOL    HW180867   5.660   1.901   7.400  0.4843 -1.3983  0.6550
58003SOL    HW280868   5.787   1.979   7.374 -0.5165  0.1998  0.3916
58004SOL     OW80869  11.247   3.697   1.699  0.2574 -0.4210 -1.0339
58004SOL    HW180870  11.336   3.705   1.731 -0.4445  0.2400  0.9069
58004SOL    HW280871  11.226   3.604   1.710  0.4582 -0.4362 -0.7684
58005SOL     OW80872   8.807   5.140   3.405 -0.1706 -0.2962  0.3645
58005SOL    HW180873   8.826   5.177   3.319 -1.5570  0.2915  0.2693
58005SOL    HW280874   8.711   5.146   3.412 -0.0294  0.2104  2.1842
58006SOL     OW80875   2.501   8.095  11.048 -0.3758 -0.8051  0.4684
58006SOL    HW180876   2.592   8.074  11.028 -0.8179 -0.7251 -1.8865
58006SOL    HW280877   2.452   8.016  11.023 -0.9917 -0.7708  1.5035
58007SOL     OW80878   1.009   7.040   3.464  0.3921 -0.0240 -0.4141
58007SOL    HW180879   0.998   6.945   3.454 -0.0514 -0.3862  2.5917
58007SOL    HW280880   1.104   7.053   3.462  0.4431 -0.3818 -1.4919
58008SOL     OW80881   8.030   2.228   1.213  0.3309 -0.2583  0.2526
58008SOL    HW180882   8.104   2.286   1.193 -0.3310  0.8452  0.8838
58008SOL    HW280883   7.963   2.253   1.149 -0.0014 -0.2420  0.6040
58009SOL     OW80884   9.332   8.185   8.327  0.1912 -0.3672 -0.5649
58009SOL    HW180885   9.364   8.128   8.257  0.5329 -0.2746 -0.4852
58009SOL    HW280886   9.292   8.259   8.281 -0.3962 -0.7453 -0.6709
58010SOL     OW80887   8.889   4.267   7.732 -0.1488 -0.8317 -0.4331
58010SOL    HW180888   8.881   4.248   7.638 -0.5037  1.7985 -1.0381
58010SOL    HW280889   8.981   4.251   7.751  0.2356 -0.1721 -1.5873
58011SOL     OW80890   2.566   1.764   1.878  0.3341  0.3261  0.0215
58011SOL    HW180891   2.612   1.738   1.957 -0.7386  0.1889  0.6158
58011SOL    HW280892   2.498   1.824   1.908 -0.8523 -0.6442 -0.6326
58012SOL     OW80893   5.134   3.277   2.510 -0.7796  0.4923 -0.0981
58012SOL    HW180894   5.157   3.193   2.470 -0.6021  0.5311 -0.0771
58012SOL    HW280895   5.038   3.276   2.514 -0.8089  0.5824 -0.7292
58013SOL     OW80896   8.993   8.148  12.067 -0.1257 -0.1955  0.0151
58013SOL    HW180897   9.070   8.120  12.118 -0.3387 -0.4012  0.2271
58013SOL    HW280898   8.923   8.156  12.132 -0.3581 -0.2944 -0.2188
58014SOL     OW80899   2.209  10.105   7.460  0.2022 -0.5148  0.2352
58014SOL    HW180900   2.275  10.056   7.410 -1.1685 -0.2288 -2.0174
58014SOL    HW280901   2.146  10.135   7.394 -0.3388  2.2129  1.8281
58015SOL     OW80902  11.767   4.489   1.775  0.0929 -0.0810 -0.4808
58015SOL    HW180903  11.840   4.459   1.829 -0.3417  0.2278  0.2789
58015SOL    HW280904  11.719   4.409   1.754 -0.5117 -0.0436  0.7348
58016SOL     OW80905   6.366   7.536  12.018  0.4152 -0.2929  0.2993
58016SOL    HW180906   6.309   7.599  11.973 -1.8306 -0.1780  3.0486
58016SOL    HW280907   6.454   7.574  12.010 -0.4261  1.5777 -0.7805
58017SOL     OW80908   9.047  10.969   1.863 -0.0805 -0.1714  0.5762
58017SOL    HW180909   9.138  10.960   1.836 -0.1486 -0.3636  0.4115
58017SOL    HW280910   9.039  11.060   1.890  0.0187 -0.0116  0.0676
58018SOL     OW80911   2.729   6.142   1.085 -0.1387 -0.0927  0.6228
58018SOL    HW180912   2.672   6.155   1.160 -0.5154 -2.0338  0.7235
58018SOL    HW280913   2.670   6.143   1.009  0.1097  0.8210  0.4192
58019SOL     OW80914   6.903   9.808   5.674 -0.9009  0.1175  0.1997
58019SOL    HW180915   6.949   9.732   5.711  0.8072  1.5643  1.2155
58019SOL    HW280916   6.839   9.832   5.741  0.2849  1.0550  1.0305
58020SOL     OW80917   6.176  11.067   4.568  0.2518 -0.2924  0.1533
58020SOL    HW180918   6.256  11.046   4.616  0.0751 -1.2854  0.0290
58020SOL    HW280919   6.189  11.028   4.481 -0.2589 -0.2484  0.0520
58021SOL     OW80920   9.520   6.887  11.703 -1.0603 -0.6550  0.4432
58021SOL    HW180921   9.491   6.963  11.653 -1.8567 -1.0128  0.3437
58021SOL    HW280922   9.483   6.811  11.657  0.4823 -1.1811  0.0139
58022SOL     OW80923   5.852  10.045   6.503 -0.1337 -0.3511  0.5332
58022SOL    HW180924   5.764  10.020   6.530 -0.8911  0.5073 -0.9944
58022SOL    HW280925   5.873   9.986   6.430  0.1997  0.0198  0.3208
58023SOL     OW80926   9.197   6.283   7.927  0.5582  0.1548 -0.2901
58023SOL    HW180927   9.226   6.221   7.994 -1.0587  0.5670  0.8437
58023SOL    HW280928   9.268   6.346   7.920  0.1816  0.9373  2.1229
58024SOL     OW80929  11.598   3.845   1.070 -0.4846 -0.8928 -0.6667
58024SOL    HW180930  11.566   3.759   1.041  0.6402 -1.4995 -0.1976
58024SOL    HW280931  11.547   3.864   1.148 -2.3717 -0.0184 -2.0371
58025SOL     OW80932  12.274  12.012   1.203 -0.4436 -0.1193  0.3894
58025SOL    HW180933  12.216  12.068   1.151  1.3895  0.8995 -0.6803
58025SOL    HW280934  12.287  12.060   1.284 -2.2086 -1.0545  1.2760
58026SOL     OW80935   1.132   3.847   2.642 -0.0044  0.1488 -0.1661
58026SOL    HW180936   1.101   3.756   2.636  1.0715 -0.2996  0.7296
58026SOL    HW280937   1.200   3.853   2.574  0.2908  0.1189  0.1240
58027SOL     OW80938   5.954   3.644   1.856  0.0133  0.1589 -0.5214
58027SOL    HW180939   5.934   3.688   1.773  0.1732  0.5939 -0.3300
58027SOL    HW280940   5.975   3.554   1.830  1.8309  0.7144 -1.1783
58028SOL     OW80941   2.249   6.929   0.317  0.5838  0.3489 -0.2698
58028SOL    HW180942   2.196   7.007   0.308 -1.0003 -0.5944  0.5356
58028SOL    HW280943   2.257   6.894   0.228 -0.8663  0.0635 -0.3015
58029SOL     OW80944   0.548   4.527   6.721  0.4860  0.1312 -0.0708
58029SOL    HW180945   0.476   4.588   6.702  0.6076  0.0974 -0.6893
58029SOL    HW280946   0.550   4.469   6.644  1.1451  0.1121 -0.0412
58030SOL     OW80947   7.074   4.783  11.842  0.1169 -0.3036 -0.5231
58030SOL    HW180948   7.151   4.746  11.886 -0.2936  0.9496  1.3836
58030SOL    HW280949   7.042   4.850  11.903 -1.2183  0.7107 -2.2458
58031SOL     OW80950   3.708   9.524  12.339 -0.3867  0.3327  0.0444
58031SOL    HW180951   3.621   9.524  12.379  0.8941  1.1196  3.1529
58031SOL    HW280952   3.749   9.603  12.374  2.0323 -0.7326 -0.2530
58032SOL     OW80953   9.813   9.506   2.287 -0.5464 -0.0430 -0.6429
58032SOL    HW180954   9.761   9.447   2.341  0.1058 -1.2820 -1.3091
58032SOL    HW280955   9.821   9.460   2.203 -0.4230  1.2251 -1.3416
58033SOL     OW80956   7.225  11.166  10.743 -0.2722  0.3433 -0.1626
58033SOL    HW180957   7.178  11.165  10.826  2.3683 -0.1748  1.4729
58033SOL    HW280958   7.162  11.198  10.679 -2.8703 -0.6697  1.7337
58034SOL     OW80959   3.972   4.929   1.542  0.4130 -0.3677  0.0250
58034SOL    HW180960   4.010   5.007   1.501  1.0078  0.0866  1.3758
58034SOL    HW280961   3.887   4.958   1.574  0.8061 -0.1173  0.8987
58035SOL     OW80962   7.378   4.620   0.638  0.2245 -0.0832  0.0205
58035SOL    HW180963   7.392   4.715   0.645  0.8397 -0.1644 -0.0582
58035SOL    HW280964   7.459   4.587   0.600 -0.1959 -0.5797 -0.4589
58036SOL     OW80965   6.671   5.400   8.332  0.1389  0.1664 -0.3309
58036SOL    HW180966   6.610   5.377   8.402  0.4223 -2.2779 -0.8089
58036SOL    HW280967   6.753   5.421   8.378 -0.2566  0.6802  0.1587
58037SOL     OW80968   3.581  10.830   8.553 -0.4516 -0.1188  0.1735
58037SOL    HW180969   3.666  10.793   8.577 -0.8061 -0.7287  0.5174
58037SOL    HW280970   3.520  10.757   8.561 -0.7818 -0.0858 -1.5385
58038SOL     OW80971   7.470   2.805   9.609  0.0812  0.2769 -0.4328
58038SOL    HW180972   7.542   2.813   9.546  0.7209 -0.6962  0.1374
58038SOL    HW280973   7.513   2.809   9.695 -0.6741  0.7423 -0.0632
58039SOL     OW80974   5.408   8.894   5.971  0.0937  0.2354 -0.1608
58039SOL    HW180975   5.374   8.827   5.911  1.2362 -0.1074 -0.4562
58039SOL    HW280976   5.467   8.946   5.917  2.2632 -0.9553  0.9494
58040SOL     OW80977  11.680   6.262   2.697 -0.1978  0.4629  0.5522
58040SOL    HW180978  11.617   6.225   2.636  0.4525  0.9406 -0.4343
58040SOL    HW280979  11.750   6.197   2.701 -0.5192  0.1448  1.2937
58041SOL     OW80980  12.278   3.890   9.884  0.1320  0.1503  0.3576
58041SOL    HW180981  12.365   3.926   9.903  0.2939 -0.5717  1.0684
58041SOL    HW280982  12.287   3.797   9.903 -0.7341  0.0291  0.1967
58042SOL     OW80983   4.840   4.214   6.190  0.3016  0.2274  0.1219
58042SOL    HW180984   4.850   4.309   6.187 -0.4614  0.3005 -0.4318
58042SOL    HW280985   4.804   4.196   6.277 -0.6620  0.5695 -0.1956
58043SOL     OW80986   9.848   0.449  10.574 -0.0198 -0.0644  0.2099
58043SOL    HW180987   9.768   0.419  10.530  1.0098 -3.6563  0.5138
58043SOL    HW280988   9.913   0.451  10.504  0.0662  1.0792  0.3097
58044SOL     OW80989   3.577   0.975   5.610  0.4636  0.4052  0.4660
58044SOL    HW180990   3.498   1.010   5.570  0.6751  0.8693  0.4474
58044SOL    HW280991   3.638   0.963   5.538 -0.3784 -2.2928  0.0714
58045SOL     OW80992  11.282   5.246   5.281 -0.0075 -0.2756 -0.2639
58045SOL    HW180993  11.339   5.279   5.212  0.2558  0.0300  0.0893
58045SOL    HW280994  11.195   5.245   5.242  0.1364 -0.1003 -0.5972
58046SOL     OW80995   4.546   3.429   3.814  0.4668 -0.3277 -0.0673
58046SOL    HW180996   4.520   3.378   3.891 -1.2740  0.2172 -0.2507
58046SOL    HW280997   4.586   3.365   3.755  2.7016 -0.5973  1.6223
58047SOL     OW80998  11.898  11.050   9.024 -0.2163 -0.2620  0.4849
58047SOL    HW180999  11.849  11.074   8.945 -0.4399  0.5681  0.8652
58047SOL    HW281000  11.914  11.133   9.068  0.2172 -0.6858  1.1371
58048SOL     OW81001   9.312   6.607  10.245 -0.3199 -0.0398 -0.2075
58048SOL    HW181002   9.276   6.528  10.286  0.3145 -0.4487 -0.4230
58048SOL    HW281003   9.326   6.582  10.154  0.4272  0.1287 -0.1479
58049SOL     OW81004   2.481   2.835   1.539 -0.3403 -0.3985  0.3935
58049SOL    HW181005   2.417   2.904   1.549 -2.5989 -2.3604  0.3431
58049SOL    HW281006   2.489   2.796   1.626 -1.0150 -1.6330 -0.0726
58050SOL     OW81007   5.018   4.246   2.761 -0.0466 -0.0970 -0.1255
58050SOL    HW181008   5.063   4.167   2.789 -0.4798 -0.5290 -0.6215
58050SOL    HW281009   5.064   4.273   2.682 -0.7080 -0.6041 -0.6977
58051SOL     OW81010  12.191   6.259  10.877  0.0647 -0.7483 -0.0843
58051SOL    HW181011  12.255   6.235  10.809  1.3646 -0.5551  1.0324
58051SOL    HW281012  12.123   6.306  10.829  0.0846 -2.0805 -1.5196
58052SOL     OW81013   9.897   8.255  12.514  0.3104 -0.0888  0.1771
58052SOL    HW181014   9.964   8.198  12.476  0.7919 -0.1459  1.0862
58052SOL    HW281015   9.943   8.336  12.534 -0.0340  0.0888  0.2556
58053SOL     OW81016   9.689  10.594   3.541  0.0175  0.0207 -0.2321
58053SOL    HW181017   9.757  10.534   3.569  0.1433 -0.0084 -0.5862
58053SOL    HW281018   9.613  10.572   3.594  0.5945  0.7968  0.9709
58054SOL     OW81019   0.517   5.369  10.032  0.1874  0.5555 -0.1541
58054SOL    HW181020   0.592   5.416  10.071  1.3441 -0.9124 -0.5231
58054SOL    HW281021   0.514   5.286  10.080 -0.0318 -0.1787 -1.4169
58055SOL     OW81022   5.116   6.248   0.003  0.0067 -0.0888  0.0385
58055SOL    HW181023   5.201   6.291   0.016  0.6388 -1.3972  0.4397
58055SOL    HW281024   5.052   6.318   0.013  0.9983  0.7864  0.5116
58056SOL     OW81025   2.677   2.202   0.710 -0.0328  0.2985 -0.5854
58056SOL    HW181026   2.601   2.147   0.725 -0.5317  0.5429 -2.0612
58056SOL    HW281027   2.750   2.153   0.749 -0.6329 -0.8847 -0.8951
58057SOL     OW81028   9.937   5.415   3.470 -0.2096 -0.3647 -1.0620
58057SOL    HW181029   9.866   5.356   3.496 -0.3060 -0.5160 -1.6694
58057SOL    HW281030   9.982   5.370   3.399 -1.0544  0.8131 -2.4079
58058SOL     OW81031   6.429   4.281  11.736 -0.0894 -0.1732  0.8065
58058SOL    HW181032   6.347   4.323  11.761 -0.1755 -0.7879  1.6139
58058SOL    HW281033   6.403   4.199  11.696  0.0913  0.3206 -0.3561
58059SOL     OW81034  12.049  12.250   4.111 -0.4694  0.0328  0.1719
58059SOL    HW181035  12.095  12.241   4.028 -0.1926  2.5801 -0.0353
58059SOL    HW281036  11.957  12.257   4.086 -0.3653  1.0436  0.0172
58060SOL     OW81037   5.631   7.804   2.855  0.2076 -0.6435 -0.3527
58060SOL    HW181038   5.537   7.783   2.849 -0.3979  1.3844  1.1701
58060SOL    HW281039   5.635   7.880   2.912  2.8389 -0.7812 -0.2599
58061SOL     OW81040   5.795   7.054   9.603 -0.0629  0.2381 -0.1307
58061SOL    HW181041   5.747   6.971   9.597 -0.5508  0.5710 -1.0722
58061SOL    HW281042   5.731   7.121   9.576 -0.2095  1.1551  2.2132
58062SOL     OW81043   9.164   7.388   0.223  0.2951 -0.6875 -0.4266
58062SOL    HW181044   9.153   7.482   0.235  0.9531 -0.8184  1.6129
58062SOL    HW281045   9.077   7.351   0.239  0.4673 -0.5671  0.8663
58063SOL     OW81046  10.220   1.389   2.776  0.5790 -0.1177  0.0016
58063SOL    HW181047  10.243   1.480   2.758 -0.5438  0.2514  0.3325
58063SOL    HW281048  10.147   1.371   2.716  1.4117 -1.1208 -0.7498
58064SOL     OW81049   0.401   0.686   4.171 -0.3098  0.5647  0.9493
58064SOL    HW181050   0.340   0.740   4.221 -0.0137  0.3580  1.5457
58064SOL    HW281051   0.346   0.635   4.112 -0.6318  1.1083  0.7753
58065SOL     OW81052  12.059   6.177   5.143 -0.2060  0.3032  0.3429
58065SOL    HW181053  12.047   6.146   5.233 -1.2534  1.1152  0.5024
58065SOL    HW281054  11.978   6.224   5.123  0.0267  0.1494 -1.0291
58066SOL     OW81055   9.207   3.277   0.023  0.1451 -0.3675 -0.0226
58066SOL    HW181056   9.123   3.311   0.053 -0.0265  0.2248 -1.1412
58066SOL    HW281057   9.206   3.185   0.050  0.3120  0.2606  2.3903
58067SOL     OW81058  11.654   0.566   1.536 -0.2502 -0.4505 -0.0727
58067SOL    HW181059  11.653   0.559   1.631  0.5105 -0.2421 -0.0511
58067SOL    HW281060  11.576   0.619   1.515  0.6010  1.1126  0.5641
58068SOL     OW81061   9.261   2.530   4.819  0.4046  0.8454 -0.3048
58068SOL    HW181062   9.226   2.440   4.821  0.1848  0.9180 -0.6464
58068SOL    HW281063   9.197   2.578   4.766  0.7976  1.0832 -0.5659
58069SOL     OW81064   3.128  11.000   3.745  0.3243  0.4279  0.7909
58069SOL    HW181065   3.098  11.045   3.823 -1.2693  1.2512 -0.2567
58069SOL    HW281066   3.069  11.029   3.675  1.7553 -0.1825 -0.7586
58070SOL     OW81067   9.846   5.780   2.355 -0.5567  0.0550 -0.7598
58070SOL    HW181068   9.806   5.840   2.293  1.0169  1.5859 -0.3630
58070SOL    HW281069   9.794   5.790   2.435 -1.4007 -0.4945 -1.2170
58071SOL     OW81070  12.512   7.391   4.360 -0.1776  0.2165 -0.3090
58071SOL    HW181071  12.570   7.467   4.352  0.2104 -0.1148 -0.7364
58071SOL    HW281072  12.442   7.420   4.418  0.7121  0.4507  0.6825
58072SOL     OW81073   2.016  10.932   9.928 -0.1856 -0.2106  0.1331
58072SOL    HW181074   2.108  10.951   9.913  0.1300 -1.0887  0.9129
58072SOL    HW281075   1.979  10.925   9.839  0.6172 -0.4761 -0.1892
58073SOL     OW81076   3.886   3.706   4.116  1.0361 -0.2571 -0.0073
58073SOL    HW181077   3.916   3.765   4.185  0.4150  1.4916 -1.1498
58073SOL    HW281078   3.941   3.728   4.040 -0.6603  0.5002 -1.0920
58074SOL     OW81079   2.866   6.892  11.851  0.4600  0.1021 -0.0053
58074SOL    HW181080   2.792   6.928  11.802  0.3006 -0.3090 -0.0708
58074SOL    HW281081   2.939   6.898  11.790  0.6276  1.0785  0.2722
58075SOL     OW81082   3.335   6.945   4.904  0.0070  0.3714  0.2806
58075SOL    HW181083   3.350   6.959   4.810  0.7725  1.6853  0.5820
58075SOL    HW281084   3.247   6.978   4.919 -0.0932  0.2175  0.0438
58076SOL     OW81085   4.080   1.641   2.149  0.1525  0.2836  0.0303
58076SOL    HW181086   4.056   1.696   2.074  3.1786  1.0820 -0.4898
58076SOL    HW281087   4.078   1.700   2.224  0.2873  0.3062  0.0167
58077SOL     OW81088   1.689  11.787   8.412 -0.0318 -0.2554  0.1616
58077SOL    HW181089   1.646  11.752   8.334 -0.6467  1.3681 -0.2584
58077SOL    HW281090   1.683  11.716   8.477 -0.9173 -1.0350 -0.7481
58078SOL     OW81091   5.459  10.578   5.356 -0.1698  0.2200 -0.2493
58078SOL    HW181092   5.426  10.537   5.276 -0.1930  1.0398 -0.6658
58078SOL    HW281093   5.384  10.577   5.415 -0.0763 -0.6397 -0.1217
58079SOL     OW81094   2.188   4.577   8.474 -0.0547 -0.0429  0.5679
58079SOL    HW181095   2.121   4.646   8.478  0.2756  0.2635  0.9810
58079SOL    HW281096   2.219   4.568   8.565 -1.1025 -1.7609  0.7977
58080SOL     OW81097   8.159   3.751   0.713  0.2384 -0.4251 -0.1883
58080SOL    HW181098   8.171   3.830   0.765  0.4687 -1.5082  1.4983
58080SOL    HW281099   8.248   3.724   0.689  0.4101 -1.5533  1.5016
58081SOL     OW81100   6.776   7.147   5.371  0.4583 -0.3660 -0.3974
58081SOL    HW181101   6.747   7.059   5.350 -0.6404  0.3634 -2.1913
58081SOL    HW281102   6.852   7.135   5.428 -0.3751 -2.4187  0.3259
58082SOL     OW81103   8.138   7.585  11.765  0.3987  0.0630 -0.1152
58082SOL    HW181104   8.156   7.673  11.732  1.4231 -0.3262 -0.6592
58082SOL    HW281105   8.222   7.556  11.801  0.0124 -0.6064  0.2597
58083SOL     OW81106   3.098   6.864   1.696 -0.0438  0.0022  0.2418
58083SOL    HW181107   3.173   6.870   1.636  0.2554  2.4950  0.7622
58083SOL    HW281108   3.022   6.883   1.641  0.1295  1.2725  0.4099
58084SOL     OW81109  10.484   9.734   4.719  0.0018 -0.6470 -0.0130
58084SOL    HW181110  10.567   9.738   4.766 -1.3579  1.1309  2.4694
58084SOL    HW281111  10.488   9.807   4.657  0.1729 -0.3661  0.3287
58085SOL     OW81112   1.495   3.901   4.392  0.0628 -0.5447 -0.4127
58085SOL    HW181113   1.489   3.806   4.386 -2.3995 -0.6326  1.6819
58085SOL    HW281114   1.465   3.921   4.481 -0.7771  2.2619 -1.2369
58086SOL     OW81115   9.546   1.525   6.484  0.0439  0.0281  0.4773
58086SOL    HW181116   9.551   1.519   6.579  2.8925 -1.0926  0.3522
58086SOL    HW281117   9.493   1.450   6.458  0.2580 -0.3519  1.1294
58087SOL     OW81118   5.298   8.177  10.916 -0.2987 -0.0002 -0.0488
58087SOL    HW181119   5.223   8.227  10.881 -0.1566  1.1082  1.1870
58087SOL    HW281120   5.344   8.238  10.973  1.6970 -0.6020 -0.9298
58088SOL     OW81121  11.669   9.464   3.606  0.1351 -0.4310  0.1647
58088SOL    HW181122  11.755   9.433   3.636 -0.4072 -1.3754  0.7702
58088SOL    HW281123  11.678   9.559   3.604  0.3648 -0.3198  2.9205
58089SOL     OW81124   4.636   4.920   4.829 -0.6460  0.4742 -0.0457
58089SOL    HW181125   4.562   4.876   4.788 -0.0791  1.4470 -2.2427
58089SOL    HW281126   4.710   4.901   4.772  0.3350  1.3541  0.8975
58090SOL     OW81127   4.479   9.738  10.035 -0.1692 -0.4704  0.0419
58090SOL    HW181128   4.464   9.648  10.005 -2.4733 -0.4816  0.9878
58090SOL    HW281129   4.430   9.744  10.117 -0.4158  1.7479 -0.2015
58091SOL     OW81130  12.120  10.111   9.580  0.0067 -0.3483 -0.2481
58091SOL    HW181131  12.136  10.088   9.489 -1.0982  0.2776 -0.6160
58091SOL    HW281132  12.082  10.032   9.619 -0.3921 -0.3156 -0.5705
58092SOL     OW81133   6.195   9.231   1.780  0.1061  0.4041 -0.2710
58092SOL    HW181134   6.269   9.225   1.840  0.3325  1.2672 -0.4532
58092SOL    HW281135   6.127   9.276   1.831  0.6184  2.0014 -0.9325
58093SOL     OW81136  12.353   4.823   0.195  0.0026  0.0857 -0.0727
58093SOL    HW181137  12.350   4.796   0.286 -2.8329 -1.5195 -0.5444
58093SOL    HW281138  12.439   4.795   0.164  0.0687 -1.5965  1.4939
58094SOL     OW81139   9.209   5.505   2.853 -0.1516 -0.2571 -0.4858
58094SOL    HW181140   9.250   5.510   2.767 -1.1763 -0.1543 -0.9870
58094SOL    HW281141   9.253   5.573   2.905  0.5512 -0.3980 -0.8917
58095SOL     OW81142  12.428   2.681   0.139 -0.5490 -0.7913 -0.0485
58095SOL    HW181143  12.363   2.747   0.161 -1.7117 -0.6580 -3.3393
58095SOL    HW281144  12.502   2.698   0.197 -2.0369  1.3939  1.2943
58096SOL     OW81145  10.883   3.957   7.994 -0.4501 -0.0622  0.3337
58096SOL    HW181146  10.829   3.976   7.918  0.9141  0.3763 -0.5618
58096SOL    HW281147  10.957   4.018   7.987  0.0675 -0.4952  1.6289
58097SOL     OW81148  11.222   3.741   4.323  0.4621  0.0447 -0.0951
58097SOL    HW181149  11.158   3.684   4.281 -0.9040  1.7454 -0.4132
58097SOL    HW281150  11.214   3.825   4.278  0.4778  1.3051  2.0840
58098SOL     OW81151  11.011   4.308   2.482  0.0386 -0.6771  0.5313
58098SOL    HW181152  10.929   4.260   2.490 -0.7732  0.6218  0.0654
58098SOL    HW281153  11.028   4.342   2.570 -0.0940 -0.6539  0.5469
58099SOL     OW81154   6.955  10.771   3.769  0.7096 -0.4083  0.1584
58099SOL    HW181155   7.011  10.716   3.825  0.6428 -2.0041 -1.2738
58099SOL    HW281156   7.008  10.787   3.691  0.6628  1.5190  0.4643
58100SOL     OW81157   1.793   1.233   1.299  0.1860  0.3088 -0.5188
58100SOL    HW181158   1.855   1.160   1.309  2.0517  1.6814 -1.4868
58100SOL    HW281159   1.818   1.294   1.368  0.0745  0.9942 -1.0838
58101SOL     OW81160   5.057   7.083   7.715 -0.6736  0.3661  0.2769
58101SOL    HW181161   5.070   7.063   7.808 -0.2939 -3.3724 -0.4176
58101SOL    HW281162   4.962   7.078   7.703 -0.6978  0.4901  0.4154
58102SOL     OW81163   3.500   8.549   3.132 -0.0906 -0.3293 -0.2993
58102SOL    HW181164   3.563   8.481   3.157 -1.3774 -1.9129 -1.1894
58102SOL    HW281165   3.512   8.618   3.197  0.9684 -1.5814  0.8949
58103SOL     OW81166   8.646  10.550   3.177 -0.1960 -0.3563  0.3483
58103SOL    HW181167   8.600  10.472   3.146 -0.1319 -0.3469  0.2284
58103SOL    HW281168   8.576  10.613   3.196 -0.2708 -0.5923  0.8559
58104SOL     OW81169  11.647   9.143   5.240  0.4246  0.3811  0.0273
58104SOL    HW181170  11.711   9.072   5.245  0.4934  0.3121 -1.4166
58104SOL    HW281171  11.650   9.184   5.326  1.3740 -0.5129  0.4422
58105SOL     OW81172   4.306  11.616   9.221  0.2180 -0.3015 -0.8093
58105SOL    HW181173   4.236  11.579   9.276  1.1014  3.0210  2.9604
58105SOL    HW281174   4.270  11.699   9.190  2.2309  1.2937  0.9001
58106SOL     OW81175  10.286   6.564   7.924  0.0636  0.4864 -0.2144
58106SOL    HW181176  10.242   6.563   8.009 -0.0318 -0.8288 -0.2623
58106SOL    HW281177  10.358   6.501   7.934  0.6784  1.0789 -0.7924
58107SOL     OW81178   6.273   6.109   9.531 -0.6729 -0.0456 -0.3078
58107SOL    HW181179   6.362   6.143   9.543 -1.2260  0.8176  1.6578
58107SOL    HW281180   6.252   6.129   9.440  0.7523  0.6543 -0.5171
58108SOL     OW81181   2.571  11.566   9.189  0.3946  0.0775 -0.6820
58108SOL    HW181182   2.597  11.651   9.224 -1.3447 -0.0858  1.1583
58108SOL    HW281183   2.647  11.510   9.203  1.0503  0.9689 -0.6052
58109SOL     OW81184   5.219   2.345   6.990 -0.1124 -0.6701 -0.9365
58109SOL    HW181185   5.285   2.354   6.921 -0.6228  1.9040 -1.1990
58109SOL    HW281186   5.147   2.401   6.961 -1.9410 -2.4582 -0.0702
58110SOL     OW81187   7.317   2.287   9.802  0.2746  0.3158  0.2859
58110SOL    HW181188   7.411   2.305   9.792  0.2114  1.8956  1.9267
58110SOL    HW281189   7.309   2.255   9.892 -0.7112 -0.4153 -0.0495
58111SOL     OW81190   9.684   9.517   4.857  0.0093 -0.2257  0.5735
58111SOL    HW181191   9.771   9.543   4.825 -0.8800  3.0959  0.5396
58111SOL    HW281192   9.671   9.569   4.935 -1.0879 -2.4417  1.9644
58112SOL     OW81193   8.701   2.364   3.735 -0.6102  0.4713 -0.2225
58112SOL    HW181194   8.754   2.384   3.812 -2.7382 -0.6534  1.6648
58112SOL    HW281195   8.730   2.427   3.669  3.0520 -0.1063  0.5907
58113SOL     OW81196   9.802   7.319   4.104 -1.0816 -0.2860  0.2378
58113SOL    HW181197   9.745   7.367   4.164 -0.1323  2.3120 -0.7879
58113SOL    HW281198   9.787   7.362   4.019  1.6650 -0.1198 -0.2318
58114SOL     OW81199  11.841   9.943   8.820  0.0516 -0.2727  0.4538
58114SOL    HW181200  11.900  10.018   8.808 -1.3545  0.7152 -0.6571
58114SOL    HW281201  11.878   9.874   8.766  0.2418  0.3199 -0.1962
58115SOL     OW81202  11.382   2.065  12.455  0.5738 -0.7626 -0.5019
58115SOL    HW181203  11.466   2.093  12.418  0.3254  1.4629  0.4082
58115SOL    HW281204  11.404   2.035  12.543  0.3549  0.8040  0.1246
58116SOL     OW81205   5.667  10.682   0.774 -0.3100 -0.2541 -0.2189
58116SOL    HW181206   5.752  10.650   0.803  0.4408  0.3459 -1.6314
58116SOL    HW281207   5.672  10.777   0.783 -0.3005 -0.0970 -1.5479
58117SOL     OW81208  10.034   9.588   8.907  0.0079 -0.3321 -0.0193
58117SOL    HW181209  10.090   9.543   8.844 -1.4166 -0.6491 -1.1118
58117SOL    HW281210  10.023   9.676   8.871  0.3557 -0.0588  0.5409
58118SOL     OW81211  10.145   0.323   9.025  0.2572  0.2669 -0.7411
58118SOL    HW181212  10.053   0.343   9.040  0.9269  1.6320  2.2803
58118SOL    HW281213  10.153   0.230   9.043 -0.5598  0.0604 -1.3839
58119SOL     OW81214   2.194   3.994   8.133  0.1888  0.7226  0.6964
58119SOL    HW181215   2.148   3.939   8.070 -0.2123  1.5621  0.2414
58119SOL    HW281216   2.134   4.000   8.207  0.8381 -0.6118  1.3608
58120SOL     OW81217  12.500   2.217   2.965 -0.2343 -0.0715 -0.1585
58120SOL    HW181218  12.511   2.136   2.916 -0.4824 -0.7390  0.8479
58120SOL    HW281219  12.481   2.283   2.899  0.2546 -0.7753 -1.0252
58121SOL     OW81220   8.264   9.808  10.795 -0.4773 -0.1495 -0.2176
58121SOL    HW181221   8.274   9.892  10.749  0.0579  0.8107  1.5388
58121SOL    HW281222   8.352   9.771  10.795 -0.3924  0.0398  0.3311
58122SOL     OW81223   4.449   6.930   1.773 -0.0109  0.2468 -0.1265
58122SOL    HW181224   4.464   6.902   1.683  0.5215 -1.4769  0.4485
58122SOL    HW281225   4.389   6.864   1.809 -0.7298  1.2665  0.6025
58123SOL     OW81226  11.748  12.106   8.748  0.2132 -0.2681  0.7384
58123SOL    HW181227  11.779  12.038   8.689  0.9421  1.4270 -0.9301
58123SOL    HW281228  11.663  12.132   8.713  1.0728  1.4091 -0.1925
58124SOL     OW81229   2.306   0.562   9.125 -0.7490  0.2414 -0.0706
58124SOL    HW181230   2.242   0.492   9.111  0.1235 -0.7798  0.8156
58124SOL    HW281231   2.382   0.535   9.073 -1.0026  1.4376 -1.1108
58125SOL     OW81232   7.469   8.769  11.423  0.2694 -0.1304 -0.1785
58125SOL    HW181233   7.410   8.831  11.381 -0.8799 -0.6915  0.5487
58125SOL    HW281234   7.445   8.771  11.516  1.4541 -0.3164  0.1446
58126SOL     OW81235   3.018   1.771  10.338 -0.2837  0.0930 -0.0081
58126SOL    HW181236   3.019   1.855  10.383  0.1807 -0.3506  0.8220
58126SOL    HW281237   2.988   1.792  10.249  2.4622  1.5592 -0.6767
58127SOL     OW81238   5.649   9.892   0.190 -0.0628 -0.0288  0.6642
58127SOL    HW181239   5.730   9.844   0.170 -0.1619  0.6205 -1.5788
58127SOL    HW281240   5.604   9.898   0.106 -1.9211  0.6280  1.6586
58128SOL     OW81241  11.477   7.181   6.124  0.3153  0.4908  0.4608
58128SOL    HW181242  11.469   7.124   6.201 -0.4320 -1.4811 -1.0112
58128SOL    HW281243  11.508   7.123   6.055 -1.3973  1.6349 -1.3596
58129SOL     OW81244   1.755   4.149   9.899 -0.1478  0.3022  0.1302
58129SOL    HW181245   1.701   4.072   9.917  0.2615 -0.0593 -0.1647
58129SOL    HW281246   1.751   4.200   9.980 -0.1172 -0.2133  0.4610
58130SOL     OW81247   4.382   0.000  10.838  0.2747  0.1952 -0.1784
58130SOL    HW181248   4.470   0.036  10.824  0.0231  0.6288 -0.6869
58130SOL    HW281249   4.373  -0.004  10.933  0.4931  1.0374 -0.1129
58131SOL     OW81250   9.949   0.685  10.088  0.3774 -0.2109 -0.2423
58131SOL    HW181251   9.876   0.743  10.111 -0.2759 -0.5633 -1.3380
58131SOL    HW281252   9.913   0.627  10.021  1.3569 -1.1208 -0.0122
58132SOL     OW81253  11.138  10.719   4.193 -0.3968  0.1446  0.0020
58132SOL    HW181254  11.120  10.780   4.121  0.2133  0.4298  0.0867
58132SOL    HW281255  11.117  10.768   4.272  0.9480  0.5606  0.1120
58133SOL     OW81256  10.760   2.537   4.397  0.1571  0.6085 -0.2662
58133SOL    HW181257  10.782   2.629   4.381  2.0746 -0.1450 -2.6313
58133SOL    HW281258  10.672   2.527   4.361 -0.3338  1.6116  0.5813
58134SOL     OW81259   6.661   6.515   7.038 -0.2527 -0.5747 -0.3217
58134SOL    HW181260   6.617   6.462   7.104  0.2579 -0.9942 -0.3112
58134SOL    HW281261   6.644   6.605   7.064  1.0850 -0.7212  1.1663
58135SOL     OW81262   3.432  11.129   8.382 -0.1552  0.2078 -0.4758
58135SOL    HW181263   3.347  11.124   8.338 -0.2566 -1.4133 -0.1698
58135SOL    HW281264   3.410  11.140   8.475  0.0290  1.5566 -0.5653
58136SOL     OW81265   5.763  12.505   8.163 -0.3541  0.2046  0.8123
58136SOL    HW181266   5.850  12.496   8.204  0.1303  3.2478  0.6712
58136SOL    HW281267   5.711  12.551   8.228 -0.5787  2.0856 -0.6132
58137SOL     OW81268   8.536   9.413   9.103  0.4401  0.2001  0.3350
58137SOL    HW181269   8.552   9.507   9.111  0.8110  0.2634 -0.8910
58137SOL    HW281270   8.599   9.372   9.163  0.3988  0.7264  0.7404
58138SOL     OW81271   2.675   3.835   4.607 -0.4632 -0.1627 -0.1275
58138SOL    HW181272   2.704   3.923   4.631  1.7991 -0.8474 -0.1310
58138SOL    HW281273   2.728   3.812   4.531 -1.3111 -1.3782 -0.3821
58139SOL     OW81274   6.950   6.447  11.726 -0.2366 -0.2127 -0.1822
58139SOL    HW181275   6.940   6.515  11.659  1.6620  0.0921 -0.1965
58139SOL    HW281276   6.896   6.375  11.693  0.7132 -0.1082 -2.1391
58140SOL     OW81277   3.232   2.236   1.287  0.2730 -0.3164 -0.2500
58140SOL    HW181278   3.298   2.176   1.324  1.5483  1.6329  0.7734
58140SOL    HW281279   3.269   2.323   1.299 -2.5706  0.9015  0.4808
58141SOL     OW81280   7.474  10.291   4.043 -0.1481  0.2834  0.5023
58141SOL    HW181281   7.491  10.237   4.120 -1.0027 -0.2094  0.3637
58141SOL    HW281282   7.561  10.313   4.010  0.2659  1.6889  2.3874
58142SOL     OW81283   5.342   3.051   9.780  0.4363 -0.2787 -0.2440
58142SOL    HW181284   5.428   3.083   9.805  0.1412  0.5265 -0.2140
58142SOL    HW281285   5.306   3.014   9.860  0.1716  0.7427  0.1234
58143SOL     OW81286   2.218   2.456   7.134 -0.1701 -0.8282  0.1387
58143SOL    HW181287   2.218   2.493   7.045  1.1946 -0.6113  0.1999
58143SOL    HW281288   2.244   2.364   7.121 -3.8332 -1.9762 -0.0432
58144SOL     OW81289   9.678  11.841   9.864  0.2549 -0.0689  1.0789
58144SOL    HW181290   9.739  11.841   9.790 -0.9463  0.6647  0.0448
58144SOL    HW281291   9.684  11.929   9.899  0.6161 -0.3365  1.7190
58145SOL     OW81292   4.932   4.324   5.969 -0.3780  0.5161 -0.0321
58145SOL    HW181293   4.847   4.313   5.926  0.7711 -1.0402 -2.0795
58145SOL    HW281294   4.936   4.252   6.032  0.3558 -0.9635 -1.6842
58146SOL     OW81295   5.685  12.272   9.283  0.1577 -0.0571 -0.1392
58146SOL    HW181296   5.604  12.224   9.301 -1.0749  1.8635 -0.2681
58146SOL    HW281297   5.737  12.211   9.230 -2.2874 -0.4698 -2.2973
58147SOL     OW81298   4.853  12.258   1.626  0.4611 -0.0121  0.6053
58147SOL    HW181299   4.924  12.235   1.566 -0.1932  1.3200 -0.7797
58147SOL    HW281300   4.860  12.353   1.636 -1.3549  0.2312  0.0415
58148SOL     OW81301   3.778   9.462   3.349  0.0538 -0.3711 -0.1081
58148SOL    HW181302   3.686   9.480   3.367 -0.2321 -2.1666  0.4809
58148SOL    HW281303   3.785   9.461   3.254 -0.3427  0.6343 -0.1475
58149SOL     OW81304  11.704   1.147   2.884 -0.4696  0.1543  0.5524
58149SOL    HW181305  11.729   1.114   2.970  1.6666 -2.2908 -0.8640
58149SOL    HW281306  11.614   1.117   2.872 -0.2112 -0.9600  1.2726
58150SOL     OW81307  10.201   4.839  11.355 -0.0221  0.2996  0.3823
58150SOL    HW181308  10.264   4.902  11.321  0.2920 -1.0337 -1.6594
58150SOL    HW281309  10.125   4.848  11.297 -0.3414 -0.5317  0.6559
58151SOL     OW81310  11.424   8.852   6.124 -0.0633  0.0473 -0.1774
58151SOL    HW181311  11.345   8.866   6.070 -0.3824 -1.1041 -0.0210
58151SOL    HW281312  11.462   8.940   6.132 -1.6659  0.7342  0.2770
58152SOL     OW81313   8.175   3.466  10.604 -0.3799 -0.0769 -0.8647
58152SOL    HW181314   8.267   3.484  10.584  0.2710 -0.9181  1.0852
58152SOL    HW281315   8.178   3.389  10.661 -2.2375  0.3891 -0.0679
58153SOL     OW81316   4.537  11.479   1.136  0.2553  0.0456  0.2311
58153SOL    HW181317   4.554  11.446   1.224  0.0625  1.6263  0.8987
58153SOL    HW281318   4.614  11.531   1.114 -0.1999  0.6248 -0.0403
58154SOL     OW81319   8.482   7.457   5.724 -0.3722  0.5888 -0.0788
58154SOL    HW181320   8.438   7.504   5.653 -1.7939 -1.1321 -0.4307
58154SOL    HW281321   8.475   7.516   5.799 -1.1974  1.3519 -0.7270
58155SOL     OW81322   5.510   3.761   6.183 -0.0142  0.5228  0.2669
58155SOL    HW181323   5.599   3.795   6.195  0.0903  1.0483 -1.7091
58155SOL    HW281324   5.471   3.766   6.270  0.6885  3.7059  0.5128
58156SOL     OW81325   3.433   4.090  11.261  0.3597  0.8147 -0.0883
58156SOL    HW181326   3.492   4.155  11.300  2.3900 -0.1068 -1.4390
58156SOL    HW281327   3.492   4.030  11.215 -1.4934 -1.5907  0.5213
58157SOL     OW81328   4.262   7.972   6.075  0.0642 -0.3819  0.0728
58157SOL    HW181329   4.296   7.941   5.991  1.2211 -0.9785  0.7361
58157SOL    HW281330   4.274   7.898   6.135  0.5933  0.5047  1.1005
58158SOL     OW81331  10.575   5.130   6.188  0.2246 -0.4068  0.0746
58158SOL    HW181332  10.644   5.097   6.246  0.1033 -0.1725  0.3560
58158SOL    HW281333  10.615   5.204   6.143  0.8103 -1.4812 -1.2653
58159SOL     OW81334   7.395  11.095  12.049 -0.1482  0.0020 -0.4916
58159SOL    HW181335   7.451  11.076  12.125 -0.4083 -2.7774 -0.8708
58159SOL    HW281336   7.456  11.125  11.982  0.5486 -0.5092 -0.1083
58160SOL     OW81337   2.894   4.118   1.860  0.0640 -0.0392 -0.2832
58160SOL    HW181338   2.909   4.205   1.824  0.2228 -0.3892 -1.1034
58160SOL    HW281339   2.798   4.112   1.868 -0.0871 -0.3985 -1.8911
58161SOL     OW81340   9.903   5.403   3.774 -0.8524  0.3646 -0.4908
58161SOL    HW181341   9.966   5.412   3.845  1.2360  2.3836 -2.4269
58161SOL    HW281342   9.917   5.315   3.740  1.8717  1.0880 -1.5544
58162SOL     OW81343   3.983   1.728   4.632 -0.3862  0.3251 -0.0204
58162SOL    HW181344   3.954   1.786   4.703  1.4251 -0.0132  1.0664
58162SOL    HW281345   4.037   1.662   4.676  1.8152  0.8026 -1.8219
58163SOL     OW81346   9.612   0.433   8.470  0.2026 -0.4004  0.0014
58163SOL    HW181347   9.615   0.515   8.519  0.5284 -0.7955  0.6628
58163SOL    HW281348   9.629   0.366   8.535  1.2529 -0.9016 -0.7582
58164SOL     OW81349   8.437   6.186  11.399  0.4844  0.0118  0.5297
58164SOL    HW181350   8.353   6.163  11.439  0.6249 -0.7876  0.3824
58164SOL    HW281351   8.414   6.244  11.327 -0.0435 -1.0263 -0.1656
58165SOL     OW81352   6.410  11.254   5.137 -0.5307  0.0487  0.0881
58165SOL    HW181353   6.399  11.164   5.167  2.2218  0.0708  1.4553
58165SOL    HW281354   6.476  11.248   5.068 -1.9266  0.8158 -1.3726
58166SOL     OW81355   6.455   3.574  10.498 -0.3571  0.0626 -0.3154
58166SOL    HW181356   6.370   3.614  10.479  0.5075  1.9768 -0.4539
58166SOL    HW281357   6.516   3.619  10.440  0.8506 -0.8613  0.1860
58167SOL     OW81358   9.327   5.623   4.522 -0.1678 -0.4138  0.2447
58167SOL    HW181359   9.354   5.705   4.482  1.0900  0.0727  1.9787
58167SOL    HW281360   9.365   5.625   4.610 -1.8295 -1.9280  1.0779
58168SOL     OW81361   7.518   2.480   8.648 -0.2032  0.2101 -0.8721
58168SOL    HW181362   7.434   2.512   8.683 -0.4484 -0.1850 -1.1043
58168SOL    HW281363   7.583   2.511   8.712 -0.5176  0.5437 -0.7066
58169SOL     OW81364   9.762   6.987  10.996  0.4003 -0.4104 -0.1018
58169SOL    HW181365   9.822   6.971  10.923  3.1628 -0.1084  1.9141
58169SOL    HW281366   9.772   7.080  11.016 -2.6211  0.2464 -1.1061
58170SOL     OW81367  10.839   9.591   5.539  0.3650 -0.0821  0.4208
58170SOL    HW181368  10.909   9.568   5.478 -0.7512 -1.1746 -0.5003
58170SOL    HW281369  10.807   9.507   5.571  0.0660  0.4355  1.5562
58171SOL     OW81370   9.521  10.637   5.042  0.0450 -0.7595 -0.4306
58171SOL    HW181371   9.580  10.688   4.986 -1.5119  1.2248 -0.3694
58171SOL    HW281372   9.494  10.563   4.987  0.7577 -0.4028 -1.2806
58172SOL     OW81373   3.566  11.716   0.996  0.1535  0.1594  0.0092
58172SOL    HW181374   3.471  11.708   0.987  0.0648 -0.1582  1.1547
58172SOL    HW281375   3.601  11.650   0.936 -0.3918 -0.9147  0.8405
58173SOL     OW81376   4.555   7.411   3.695 -0.2575  0.5630 -0.0044
58173SOL    HW181377   4.618   7.466   3.740 -1.9739  3.0062 -0.4287
58173SOL    HW281378   4.514   7.468   3.630 -0.2362 -1.9327 -2.4229
58174SOL     OW81379  10.285   6.126   0.503 -0.0205 -0.5701  0.0857
58174SOL    HW181380  10.280   6.031   0.513  2.2043 -0.6025  1.6538
58174SOL    HW281381  10.333   6.139   0.421 -0.4182 -0.7889 -0.1836
58175SOL     OW81382  12.345  12.068  12.129  0.5232  0.1537 -0.1646
58175SOL    HW181383  12.318  12.038  12.216  1.5429 -0.6217 -0.0898
58175SOL    HW281384  12.305  12.154  12.119 -0.9613 -0.4461  0.3991
58176SOL     OW81385  11.947   6.389  10.017  0.4164  0.5607 -0.3196
58176SOL    HW181386  12.014   6.431   9.962 -0.2109  0.9215 -0.8206
58176SOL    HW281387  11.990   6.376  10.102  1.0098  1.1092 -0.5314
58177SOL     OW81388  11.597   6.372   5.798 -0.0262  0.9528  0.0195
58177SOL    HW181389  11.538   6.298   5.814 -0.8519  1.7434  0.7510
58177SOL    HW281390  11.643   6.385   5.881  0.8749  0.6195 -0.4155
58178SOL     OW81391   9.441   2.044   8.507 -0.4988  0.6797 -0.0644
58178SOL    HW181392   9.368   2.087   8.552 -3.3338 -0.0728 -3.4160
58178SOL    HW281393   9.502   2.115   8.488 -1.0308  1.6379  1.6136
58179SOL     OW81394   6.813   3.130   6.397 -0.0759  0.0322 -0.0986
58179SOL    HW181395   6.810   3.095   6.308  1.8844  1.2789 -0.6981
58179SOL    HW281396   6.905   3.126   6.422  0.3069  4.3343 -0.1285
58180SOL     OW81397   2.081   9.743   3.746 -0.7072 -0.0958 -0.0285
58180SOL    HW181398   2.091   9.745   3.651  0.8466 -0.5705  0.1034
58180SOL    HW281399   1.986   9.736   3.760 -0.8888 -1.0690 -1.5547
58181SOL     OW81400   9.175  11.106   1.050 -0.8064  0.2621  0.1365
58181SOL    HW181401   9.176  11.152   1.134 -1.3068  0.2873  0.1351
58181SOL    HW281402   9.105  11.150   1.000 -3.0338 -2.0247  1.0300
58182SOL     OW81403   8.193   5.854   8.553 -0.4774 -0.4681 -0.1137
58182SOL    HW181404   8.230   5.809   8.629  1.1313  1.2971  0.2288
58182SOL    HW281405   8.178   5.784   8.489 -0.0443 -1.7434  1.1114
58183SOL     OW81406   7.454   7.959   0.629 -0.1153 -0.3718  0.7029
58183SOL    HW181407   7.403   8.039   0.617  1.4421  0.8566  1.8740
58183SOL    HW281408   7.414   7.896   0.569 -2.7593  0.6029  1.3010
58184SOL     OW81409   0.157   6.066   2.556 -0.2125 -0.4747  0.2363
58184SOL    HW181410   0.140   5.987   2.607  0.3340  0.8627  2.6758
58184SOL    HW281411   0.170   6.134   2.622 -0.1846  1.5672 -1.7568
58185SOL     OW81412   8.339   5.774   0.020 -0.1979  0.6589  0.0079
58185SOL    HW181413   8.395   5.713  -0.027 -0.3064  1.4017 -1.1254
58185SOL    HW281414   8.383   5.787   0.104  0.6050  0.1857 -0.3320
58186SOL     OW81415   3.962   1.607   2.445 -0.1062  0.6645 -0.5899
58186SOL    HW181416   4.002   1.677   2.497  0.5200  0.2991 -0.5636
58186SOL    HW281417   4.026   1.536   2.449 -1.1677 -0.2604  0.1802
58187SOL     OW81418  11.242  10.156  12.217 -0.1024 -0.1164 -0.1879
58187SOL    HW181419  11.186  10.217  12.266  2.2805  2.2148 -0.1038
58187SOL    HW281420  11.229  10.072  12.260 -1.5971  0.8537  1.4284
58188SOL     OW81421   7.267   8.668   6.065 -0.2321 -0.1905 -0.4079
58188SOL    HW181422   7.238   8.710   5.984 -0.6307 -1.6153 -1.0301
58188SOL    HW281423   7.281   8.741   6.126 -0.2253  0.8869 -1.6486
58189SOL     OW81424   6.547   2.404   9.721  0.4651 -0.1044 -0.4875
58189SOL    HW181425   6.628   2.366   9.756  0.5464 -1.2343 -1.8177
58189SOL    HW281426   6.487   2.404   9.795  1.1447 -0.8720  0.0878
58190SOL     OW81427   4.166   0.431   7.373  0.2790  0.3866 -0.4129
58190SOL    HW181428   4.215   0.420   7.291 -0.0567  0.0624 -0.5676
58190SOL    HW281429   4.216   0.381   7.438  0.1754  0.0878 -0.5629
58191SOL     OW81430   6.645   4.502   4.431 -0.2068 -0.1466  0.6013
58191SOL    HW181431   6.597   4.574   4.392 -0.8076 -0.7486  0.2183
58191SOL    HW281432   6.680   4.453   4.357 -0.7900 -0.9150  0.8293
58192SOL     OW81433   4.992   7.394   9.341  0.3068 -0.4713  0.4162
58192SOL    HW181434   4.915   7.351   9.305  0.1751  0.0790  0.0257
58192SOL    HW281435   5.061   7.376   9.277 -0.1271  1.2226 -0.6037
58193SOL     OW81436  10.837   7.721  11.782 -0.2246  0.0437 -0.5895
58193SOL    HW181437  10.867   7.700  11.693  0.4392 -0.5767 -0.2296
58193SOL    HW281438  10.882   7.658  11.838  0.2980  1.1913  0.3199
58194SOL     OW81439   6.547  11.664   6.983  0.5415 -0.6446 -0.4585
58194SOL    HW181440   6.615  11.618   7.032 -0.7690 -2.5362 -0.2791
58194SOL    HW281441   6.509  11.725   7.045  0.6943 -1.0934  0.0848
58195SOL     OW81442   1.915   5.903   6.629 -0.0544  0.4910 -0.4814
58195SOL    HW181443   1.857   5.875   6.560 -0.8140 -0.2946  0.4527
58195SOL    HW281444   1.865   5.891   6.710  1.1912  0.3218  0.2999
58196SOL     OW81445   2.716   7.960  10.993 -0.1493  0.1581  0.1670
58196SOL    HW181446   2.714   7.979  10.899  0.4841  0.2925  0.1760
58196SOL    HW281447   2.791   8.010  11.026 -2.2505  2.8001  1.3269
58197SOL     OW81448   3.495   9.522   4.472 -0.2913 -0.1237 -0.1287
58197SOL    HW181449   3.520   9.544   4.382 -2.2543 -0.9244 -0.9277
58197SOL    HW281450   3.507   9.603   4.521  0.2467  0.4896 -1.2357
58198SOL     OW81451  11.767   1.877  11.967 -0.3719 -0.2179  0.4493
58198SOL    HW181452  11.773   1.965  12.003 -1.8614  0.7368 -1.4980
58198SOL    HW281453  11.787   1.886  11.874 -0.8357 -1.8943  0.1432
58199SOL     OW81454   1.700   8.912   0.552  0.4193  0.3354  0.0069
58199SOL    HW181455   1.712   8.882   0.462  0.9207 -0.4584  0.3296
58199SOL    HW281456   1.750   8.850   0.605  0.3292  0.9401  0.8131
58200SOL     OW81457   7.180   8.880  10.623  0.0984  0.2528  0.5041
58200SOL    HW181458   7.145   8.941  10.558  0.5299 -0.3600 -0.3188
58200SOL    HW281459   7.207   8.804  10.573 -0.1387 -0.4990  1.4778
58201SOL     OW81460   9.912   0.078   7.950  0.3007  0.0253 -0.3269
58201SOL    HW181461   9.992   0.084   7.898 -1.0762  0.9653 -2.4372
58201SOL    HW281462   9.846   0.124   7.899 -2.3021 -2.9772  0.0177
58202SOL     OW81463   8.184   9.756  12.576  0.1413 -0.5535 -0.6247
58202SOL    HW181464   8.221   9.829  12.527  0.6180  0.6923  1.4393
58202SOL    HW281465   8.109   9.794  12.622  1.8229 -0.5909  2.4298
58203SOL     OW81466   1.826   7.275   3.781 -0.6296  0.1717 -0.3068
58203SOL    HW181467   1.890   7.237   3.840 -1.4536  0.7112  0.9772
58203SOL    HW281468   1.764   7.320   3.838 -2.8171 -1.2767 -1.3901
58204SOL     OW81469  11.938   0.905   9.921 -0.1024  0.1044  0.2690
58204SOL    HW181470  11.969   0.904   9.831  1.6786  3.4259  0.6995
58204SOL    HW281471  11.978   0.828   9.961 -0.4777 -1.1160 -1.5719
58205SOL     OW81472   6.442   0.722   7.905 -0.0174 -0.3265 -0.2807
58205SOL    HW181473   6.409   0.690   7.821  1.5875 -1.8084 -0.3927
58205SOL    HW281474   6.387   0.679   7.970 -0.0736 -0.6211 -0.5187
58206SOL     OW81475   1.375   9.111   2.806  0.3138  0.0002 -0.0553
58206SOL    HW181476   1.296   9.099   2.859  1.0290 -0.9200  0.8489
58206SOL    HW281477   1.364   9.197   2.764 -0.2382  0.8224  1.6868
58207SOL     OW81478   6.779   0.626   7.975  0.5053  0.2376  0.2273
58207SOL    HW181479   6.814   0.648   7.889  0.0291  0.0002 -0.0334
58207SOL    HW281480   6.722   0.551   7.959  2.2736 -1.3841  1.1405
58208SOL     OW81481   4.204   5.981   4.442 -0.0222  0.2910 -0.6845
58208SOL    HW181482   4.193   6.044   4.513 -0.6673 -0.3830 -0.1645
58208SOL    HW281483   4.188   5.896   4.483  0.0424 -0.1481 -1.5435
58209SOL     OW81484   2.762   9.085   4.877  0.3596  0.2321 -0.1151
58209SOL    HW181485   2.683   9.057   4.924  1.2412  0.3533  1.5142
58209SOL    HW281486   2.732   9.157   4.821 -0.7420  0.0692  0.2384
58210SOL     OW81487  12.242   9.794   3.776  0.5456  0.6408  0.9833
58210SOL    HW181488  12.332   9.799   3.745  1.0855 -0.0320  2.3716
58210SOL    HW281489  12.230   9.702   3.800 -0.5940  0.6732  0.6044
58211SOL     OW81490   9.888   6.860   7.931  0.2757 -0.5109  0.1970
58211SOL    HW181491   9.948   6.933   7.918 -0.0034  0.1379  2.2395
58211SOL    HW281492   9.837   6.883   8.008  0.1405 -2.8295  0.8904
58212SOL     OW81493   9.010   8.125   1.821 -0.2456 -0.1336 -0.0717
58212SOL    HW181494   8.991   8.210   1.862 -4.0364  0.2545 -2.1097
58212SOL    HW281495   9.045   8.148   1.735 -1.0277 -0.5896 -0.5227
58213SOL     OW81496  11.154   1.318   5.295 -0.2098  0.3824  0.7489
58213SOL    HW181497  11.103   1.386   5.339  0.4443  0.3796  1.5409
58213SOL    HW281498  11.245   1.346   5.306  0.0439 -0.4124  0.7329
58214SOL     OW81499   2.419   4.828  10.397 -0.0131  0.1300 -0.3986
58214SOL    HW181500   2.490   4.795  10.341 -0.2880 -1.2711  0.0521
58214SOL    HW281501   2.372   4.750  10.425  0.3002  0.7612  2.0821
58215SOL     OW81502   6.779   2.308   1.226 -0.4965 -0.2781 -0.3419
58215SOL    HW181503   6.866   2.270   1.240 -0.2664  0.8536  1.6328
58215SOL    HW281504   6.731   2.289   1.307 -0.9827  1.9372 -0.0573
58216SOL     OW81505  11.536  11.791   8.710 -0.1326 -0.7914  0.5474
58216SOL    HW181506  11.613  11.750   8.750  0.1708 -1.7480 -0.9557
58216SOL    HW281507  11.514  11.734   8.637 -1.7108 -0.0099  0.3751
58217SOL     OW81508   9.990   9.947   8.206  0.2349 -0.3936  0.4174
58217SOL    HW181509  10.033  10.032   8.209 -0.4810 -0.0335  0.8968
58217SOL    HW281510   9.918   9.955   8.268 -1.1302 -0.6496 -1.0838
58218SOL     OW81511   7.957   9.050  12.129  0.4399 -0.6462  0.0178
58218SOL    HW181512   7.975   9.131  12.177  1.7883 -1.5361  1.0853
58218SOL    HW281513   8.036   9.033  12.078 -0.3658 -0.5731 -1.3038
58219SOL     OW81514  12.507   1.602   5.211  0.3298  0.0361 -0.3202
58219SOL    HW181515  12.566   1.650   5.269 -1.3442  0.8904  0.7553
58219SOL    HW281516  12.515   1.646   5.126  2.2530 -0.7606 -0.5981
58220SOL     OW81517   7.591   5.108  11.397 -0.3418  0.2553  0.1449
58220SOL    HW181518   7.642   5.055  11.458  0.1518  1.4073  0.7693
58220SOL    HW281519   7.564   5.047  11.328  0.3150 -0.7591  0.7664
58221SOL     OW81520   7.425   6.127   2.191 -0.4385 -0.0133  0.1301
58221SOL    HW181521   7.484   6.102   2.263  0.6292  1.2941 -0.2500
58221SOL    HW281522   7.483   6.166   2.126 -1.4020 -1.0668 -1.4204
58222SOL     OW81523   2.058   1.530   4.531  0.4323  0.3025  0.0830
58222SOL    HW181524   2.027   1.496   4.448  0.2593  1.1870 -0.2192
58222SOL    HW281525   2.000   1.490   4.597  1.7080 -1.8743 -0.0029
58223SOL     OW81526   4.334   8.642   7.788 -0.0971  0.5532  0.4861
58223SOL    HW181527   4.405   8.577   7.787  0.1310  0.7417  1.7386
58223SOL    HW281528   4.264   8.600   7.838 -0.3789  0.8547  0.3448
58224SOL     OW81529   4.665   4.423   1.145 -0.5040  0.1893 -0.1408
58224SOL    HW181530   4.596   4.463   1.091 -0.5139  1.1637  0.5578
58224SOL    HW281531   4.664   4.474   1.226  0.3058 -0.4930  0.3166
58225SOL     OW81532   7.188  10.143   1.200  0.3658  0.3117  0.0712
58225SOL    HW181533   7.168  10.192   1.280 -0.4166  0.6792 -0.3389
58225SOL    HW281534   7.131  10.066   1.204  0.3772  0.2939 -0.0928
58226SOL     OW81535  10.087  10.942   9.032 -0.2988 -0.2295 -0.1873
58226SOL    HW181536  10.123  10.891   9.104  0.4674 -0.9112 -1.0298
58226SOL    HW281537  10.108  11.033   9.054  1.0981 -0.5388 -0.1753
58227SOL     OW81538   6.824   5.221  11.531 -0.0042 -0.5538  0.2406
58227SOL    HW181539   6.828   5.317  11.525 -0.2297 -0.5131  0.7316
58227SOL    HW281540   6.788   5.204  11.618  0.6106 -1.0910  0.3987
58228SOL     OW81541   2.858   4.825  10.087 -0.0795  0.3170  0.0072
58228SOL    HW181542   2.871   4.750  10.029  1.9099  1.0877 -0.6318
58228SOL    HW281543   2.799   4.882  10.039 -0.8706 -0.4124  0.0957
58229SOL     OW81544  11.231   5.483   2.593  0.2300 -0.0776 -0.3571
58229SOL    HW181545  11.305   5.442   2.637 -0.4092 -1.3052 -0.3997
58229SOL    HW281546  11.163   5.415   2.590 -0.7243  0.8597 -0.7629
58230SOL     OW81547   8.407   5.539   3.224  0.0517 -0.3133  0.1622
58230SOL    HW181548   8.396   5.494   3.308 -2.0712 -0.9808 -0.3942
58230SOL    HW281549   8.376   5.475   3.159  0.8292  0.5052 -1.0523
58231SOL     OW81550  11.825   8.687   2.628  0.3086  0.7626 -0.1236
58231SOL    HW181551  11.803   8.596   2.608  1.8593  0.3984 -0.2468
58231SOL    HW281552  11.832   8.690   2.723 -1.5958  1.2195  0.0427
58232SOL     OW81553   4.206   0.281  11.120  0.3085 -0.3813  0.1503
58232SOL    HW181554   4.150   0.204  11.121  0.2921 -0.3687  0.2640
58232SOL    HW281555   4.265   0.269  11.195  0.2381 -0.2344  0.2290
58233SOL     OW81556  10.111   5.105   4.170  0.2827 -0.4065  0.1027
58233SOL    HW181557  10.126   5.143   4.083 -0.9127  0.4552  0.2381
58233SOL    HW281558  10.087   5.014   4.153 -1.5663  0.1786 -0.6231
58234SOL     OW81559  11.217   1.277   9.422  1.0440  0.1116 -0.1006
58234SOL    HW181560  11.218   1.367   9.456  0.1409  0.1240 -0.0672
58234SOL    HW281561  11.180   1.285   9.334  1.1349 -0.2015 -0.1682
58235SOL     OW81562   3.784   3.835  12.433  0.2108 -0.3729 -0.2349
58235SOL    HW181563   3.860   3.807  12.484 -1.3300 -2.0480  1.2887
58235SOL    HW281564   3.723   3.762  12.438 -1.4211  0.7896 -1.6522
58236SOL     OW81565  11.225   2.417   2.961 -0.0853 -0.0609 -0.4468
58236SOL    HW181566  11.243   2.366   2.882 -1.2116  0.0758 -0.8110
58236SOL    HW281567  11.198   2.503   2.929  0.2820  0.2821  0.1239
58237SOL     OW81568   3.736   2.232  10.184  0.6632  0.0566 -0.0707
58237SOL    HW181569   3.730   2.136  10.180 -1.1226  0.1670 -2.0785
58237SOL    HW281570   3.707   2.261  10.097 -0.9654  2.4738  1.1767
58238SOL     OW81571   9.443   0.447   3.599  0.1859  0.1218 -0.0604
58238SOL    HW181572   9.355   0.459   3.562  0.1905 -0.6480 -0.3292
58238SOL    HW281573   9.465   0.533   3.635 -0.1025  0.7124 -1.2280
58239SOL     OW81574   7.866   1.698   1.773 -0.4518  0.3610  0.2530
58239SOL    HW181575   7.892   1.773   1.720 -0.3350  0.9588  1.1372
58239SOL    HW281576   7.920   1.626   1.741 -0.2634  0.7502 -0.3224
58240SOL     OW81577   2.840   2.445   3.244 -0.4305 -0.3873 -0.4383
58240SOL    HW181578   2.834   2.419   3.152 -1.7860  0.5211 -0.6436
58240SOL    HW281579   2.807   2.535   3.246  0.1932 -0.1587  0.8485
58241SOL     OW81580   4.279  11.091   7.690 -0.1375 -0.6908 -0.3232
58241SOL    HW181581   4.346  11.143   7.646  1.2904  0.8737  3.3202
58241SOL    HW281582   4.196  11.129   7.662  0.8199  2.5236  0.7788
58242SOL     OW81583   5.411   4.232   7.586  0.6439  0.3203 -0.8999
58242SOL    HW181584   5.317   4.225   7.567  0.5415 -1.7458  0.0763
58242SOL    HW281585   5.432   4.151   7.633  2.8066  1.0022 -0.5792
58243SOL     OW81586  10.534   5.341  12.397  0.0077 -0.7172  0.1533
58243SOL    HW181587  10.498   5.310  12.314  3.5161 -2.5836 -0.9009
58243SOL    HW281588  10.531   5.264  12.455  0.9499 -0.5138  0.4882
58244SOL     OW81589   1.939   1.885   6.394  0.2197 -0.4999  0.6345
58244SOL    HW181590   2.032   1.869   6.412  0.4407 -1.3352 -1.0492
58244SOL    HW281591   1.909   1.938   6.468  1.6420 -1.5310  2.0164
58245SOL     OW81592   2.375   5.203  10.679  0.0203 -0.2378  0.2645
58245SOL    HW181593   2.375   5.252  10.597 -1.4948  0.8434  0.8635
58245SOL    HW281594   2.328   5.259  10.740  0.2105 -1.4802  1.5978
58246SOL     OW81595   8.561  10.487  12.424 -0.3495  0.1606  0.0323
58246SOL    HW181596   8.608  10.567  12.399 -0.7192  0.3549 -0.0379
58246SOL    HW281597   8.469  10.506  12.408 -0.4040 -0.4376 -0.4059
58247SOL     OW81598  11.368  10.501   0.013 -0.4226  0.0231  0.1906
58247SOL    HW181599  11.350  10.525  -0.077  0.1381 -2.6886 -0.7323
58247SOL    HW281600  11.442  10.441   0.008 -0.5551 -0.4367  2.4433
58248SOL     OW81601  12.019   3.168   6.725  0.4236 -0.2906 -0.2309
58248SOL    HW181602  11.946   3.145   6.783 -0.0255  0.4225 -0.5102
58248SOL    HW281603  12.097   3.141   6.774  0.1670  1.7949  1.4754
58249SOL     OW81604  11.940   8.587   9.743  0.5700  0.3586  0.0089
58249SOL    HW181605  11.898   8.512   9.785  0.6588  1.3258  1.9857
58249SOL    HW281606  12.017   8.550   9.700  0.4528 -0.7367  0.6954
58250SOL     OW81607   4.797   4.491  11.912 -0.2811  0.4735 -0.0005
58250SOL    HW181608   4.844   4.475  11.993 -0.0365 -0.5426 -0.3277
58250SOL    HW281609   4.861   4.534  11.855  0.2614 -0.8899 -0.4404
58251SOL     OW81610   1.467   9.360   4.274  0.2554  0.1322 -0.2254
58251SOL    HW181611   1.491   9.398   4.359  0.7248  0.6482 -0.5788
58251SOL    HW281612   1.374   9.378   4.265  0.4743  1.2850 -0.4075
58252SOL     OW81613  12.262   9.788   3.092  0.3439  0.1191 -0.3270
58252SOL    HW181614  12.172   9.799   3.123 -0.0432 -0.6845 -1.1159
58252SOL    HW281615  12.311   9.761   3.170 -0.4237 -0.9609 -0.1989
58253SOL     OW81616   7.449   5.088   0.846 -0.0681  0.7761 -0.4593
58253SOL    HW181617   7.511   5.160   0.860  0.9081 -0.2621  0.7551
58253SOL    HW281618   7.390   5.120   0.777 -0.4385  3.2095  0.9019
58254SOL     OW81619  12.479   1.186   9.885 -0.2791 -0.5469 -0.1279
58254SOL    HW181620  12.553   1.140   9.847  2.4061  1.7751  1.8438
58254SOL    HW281621  12.420   1.117   9.916  1.1861 -2.4996 -1.4957
58255SOL     OW81622   1.342  11.469   2.090  0.5961  0.1835 -0.1825
58255SOL    HW181623   1.348  11.379   2.059  0.2083  0.6699 -1.8120
58255SOL    HW281624   1.406  11.517   2.037  1.0345  0.8160  0.8928
58256SOL     OW81625  11.502  10.056  11.663 -0.1871  0.7061  0.2596
58256SOL    HW181626  11.413  10.065  11.698  0.0407  0.0979  1.0182
58256SOL    HW281627  11.494   9.990  11.595 -0.0722 -0.4191  1.3015
58257SOL     OW81628   0.679   4.909   2.202  0.8021  0.2624  0.2422
58257SOL    HW181629   0.741   4.962   2.152 -0.4196  0.8991 -0.6642
58257SOL    HW281630   0.606   4.967   2.219 -0.0045 -0.7580  0.3700
58258SOL     OW81631   5.048   8.917   6.025 -0.5647 -0.3669  0.4750
58258SOL    HW181632   5.085   8.835   6.056 -1.4463 -1.1911 -0.5717
58258SOL    HW281633   5.104   8.985   6.063 -1.5343 -1.2525  3.8354
58259SOL     OW81634   7.147  11.139   7.959  0.2085 -0.4804  0.1420
58259SOL    HW181635   7.146  11.045   7.938 -0.3948 -0.3198 -0.6234
58259SOL    HW281636   7.233  11.154   7.997 -0.3732 -1.7135  2.0908
58260SOL     OW81637   7.554   2.989   6.314 -0.2880 -0.3664 -0.3993
58260SOL    HW181638   7.617   2.923   6.341  0.4062  0.1317 -0.7776
58260SOL    HW281639   7.578   3.010   6.224  0.0997  1.0924  0.0217
58261SOL     OW81640   8.466   3.477   4.453 -0.3566  0.3701  0.6283
58261SOL    HW181641   8.444   3.524   4.533  0.7127  1.4102  0.3406
58261SOL    HW281642   8.489   3.546   4.390 -0.2178 -0.4687 -0.2682
58262SOL     OW81643   7.502   4.448   3.729  0.9070  0.1874  0.0705
58262SOL    HW181644   7.484   4.392   3.653  1.5562 -0.1213  0.1354
58262SOL    HW281645   7.587   4.488   3.709  0.4800  1.1196  0.0479
58263SOL     OW81646  11.008   7.018   4.057  0.2253 -0.5462 -1.1015
58263SOL    HW181647  10.987   6.947   4.117  1.8143 -0.4568 -0.3833
58263SOL    HW281648  10.963   7.094   4.093  2.2307 -0.1786  0.8473
58264SOL     OW81649   0.826  11.388  10.324 -0.8029 -0.0893 -0.0374
58264SOL    HW181650   0.780  11.317  10.368 -1.4263  0.2634 -0.1086
58264SOL    HW281651   0.854  11.446  10.395  1.1149 -1.1875  0.1728
58265SOL     OW81652   3.332  11.390   0.935  0.1746 -0.0216  0.3469
58265SOL    HW181653   3.325  11.483   0.956 -0.2233  0.2342 -0.8346
58265SOL    HW281654   3.244  11.355   0.949  0.4044 -0.3185  1.1423
58266SOL     OW81655   6.722   6.684  10.951 -0.4412  0.0309 -0.0749
58266SOL    HW181656   6.649   6.631  10.986 -0.7096  1.2164  1.2342
58266SOL    HW281657   6.785   6.687  11.023  0.4573 -0.1144 -0.8414
58267SOL     OW81658   8.565   4.948  10.000 -0.5102 -0.2587  0.4743
58267SOL    HW181659   8.555   4.854   9.986 -0.0712 -0.1918 -0.3009
58267SOL    HW281660   8.522   4.964  10.085 -0.8822 -1.0941  0.4515
58268SOL     OW81661  12.489   9.891  10.979 -0.3796  0.0633  0.2128
58268SOL    HW181662  12.461   9.861  10.893 -2.4889 -1.5672  1.3643
58268SOL    HW281663  12.417   9.945  11.011 -1.1509 -1.9747  2.1780
58269SOL     OW81664  10.352   9.576   8.006  0.0855  0.0225  0.5937
58269SOL    HW181665  10.302   9.654   7.979 -2.0078 -1.4512 -0.0480
58269SOL    HW281666  10.384   9.539   7.924  0.7037 -0.0508  0.8626
58270SOL     OW81667   4.423   1.646  11.699  0.1247 -0.4835 -0.7328
58270SOL    HW181668   4.374   1.689  11.769  0.1113 -0.6473 -0.6426
58270SOL    HW281669   4.481   1.715  11.665  1.8011 -0.9910  0.9615
58271SOL     OW81670  10.347   2.129   5.105 -0.6408 -0.1329 -0.1577
58271SOL    HW181671  10.303   2.201   5.060 -1.4465 -0.3247  0.2897
58271SOL    HW281672  10.407   2.172   5.167 -2.6160  0.2534  1.6061
58272SOL     OW81673   6.378   7.051   3.396  0.2750  0.5315  0.0233
58272SOL    HW181674   6.309   6.985   3.402  0.4078  0.2812 -1.0499
58272SOL    HW281675   6.406   7.064   3.487 -0.4419 -0.1521  0.3549
58273SOL     OW81676   9.175   8.190   9.197 -0.1934 -0.1637  0.6005
58273SOL    HW181677   9.215   8.111   9.233  1.2246  0.6197  0.8267
58273SOL    HW281678   9.203   8.192   9.105  0.1258  0.2868  0.7049
58274SOL     OW81679   8.219  10.860   3.809  0.6322 -0.1309 -0.1736
58274SOL    HW181680   8.161  10.909   3.868 -0.0537 -0.1360 -0.8288
58274SOL    HW281681   8.304  10.904   3.816  0.3420  0.3832  0.1814
58275SOL     OW81682   8.553   2.325   7.449  0.2164  0.1748 -0.3761
58275SOL    HW181683   8.493   2.329   7.523  1.4832 -1.1201  0.7704
58275SOL    HW281684   8.626   2.382   7.473  0.4868  0.0068 -0.7745
58276SOL     OW81685  11.570   6.841   4.444 -0.0508 -0.4871  0.2312
58276SOL    HW181686  11.494   6.899   4.435  0.0834 -0.5219 -1.4749
58276SOL    HW281687  11.570   6.790   4.363  3.5152  1.6251 -1.3132
58277SOL     OW81688   9.781   2.545   3.021 -0.4713 -0.0222  0.4636
58277SOL    HW181689   9.846   2.520   2.955  0.1886 -0.1395  1.1375
58277SOL    HW281690   9.791   2.640   3.028 -0.7181  0.0231  0.2192
58278SOL     OW81691   2.270   4.516  12.425 -1.0391  0.2528  0.0294
58278SOL    HW181692   2.264   4.569  12.346 -3.0709 -2.2056 -1.6209
58278SOL    HW281693   2.354   4.470  12.417 -1.0110  0.3804 -0.4419
58279SOL     OW81694   5.123   4.724   2.831  0.6909  0.0259 -0.2958
58279SOL    HW181695   5.190   4.677   2.881  2.1049  2.7079  0.4849
58279SOL    HW281696   5.056   4.746   2.897  0.3757 -0.2738 -0.5141
58280SOL     OW81697   9.841   3.311   3.854 -0.4154 -0.1059  0.2712
58280SOL    HW181698   9.858   3.286   3.945  0.6605 -0.5412 -0.0425
58280SOL    HW281699   9.746   3.306   3.845 -0.3567 -3.1577  0.5019
58281SOL     OW81700   1.991   1.665   4.881 -0.3079  0.4621 -0.1927
58281SOL    HW181701   2.072   1.631   4.842  1.5604  1.1306  2.7324
58281SOL    HW281702   1.924   1.602   4.857  1.5298 -1.3282 -0.9330
58282SOL     OW81703   9.774   0.427   1.497  0.4100 -0.6405  0.1142
58282SOL    HW181704   9.803   0.504   1.547  1.2337 -1.1966  0.5127
58282SOL    HW281705   9.838   0.420   1.426  0.9297 -1.5201  0.6484
58283SOL     OW81706   2.659   8.281   5.366 -0.3974 -0.2330 -0.1480
58283SOL    HW181707   2.630   8.317   5.282 -0.6193  2.0879  0.8665
58283SOL    HW281708   2.754   8.290   5.364 -0.5248  1.6572  0.5831
58284SOL     OW81709   5.508   4.056   8.051  0.0174 -0.1289 -0.0662
58284SOL    HW181710   5.449   4.131   8.064 -0.0981 -0.1672 -0.3523
58284SOL    HW281711   5.473   3.988   8.109  1.3532  0.7025  1.7979
58285SOL     OW81712  11.366   3.059  12.456 -0.2778 -0.2911  0.0826
58285SOL    HW181713  11.435   2.993  12.466 -0.3863 -0.6704 -1.3222
58285SOL    HW281714  11.363   3.105  12.539  0.9562 -0.9642  0.5179
58286SOL     OW81715   2.751  10.807   7.147  0.5177  0.4422  0.1480
58286SOL    HW181716   2.751  10.819   7.242  1.5837  0.8972  0.1084
58286SOL    HW281717   2.734  10.714   7.134  1.4869  0.1490  0.8396
58287SOL     OW81718   4.977   7.385   6.675  0.0314  0.1749 -0.1705
58287SOL    HW181719   5.033   7.463   6.675  1.1539 -0.6124 -0.5569
58287SOL    HW281720   4.972   7.359   6.584  0.7179 -0.9306  0.0934
58288SOL     OW81721  11.291   2.991   4.725  0.0998 -0.7766 -0.4889
58288SOL    HW181722  11.278   2.921   4.788  1.0149 -0.2167  0.3600
58288SOL    HW281723  11.350   3.053   4.769 -0.8960  0.6729 -1.0913
58289SOL     OW81724   8.979   2.054   1.581  0.1867  0.2853  0.0981
58289SOL    HW181725   9.000   2.136   1.624  2.1108  0.7353 -1.5332
58289SOL    HW281726   8.912   2.077   1.517  1.2965  0.8058 -0.9140
58290SOL     OW81727   7.476   2.202  10.865 -0.0494  0.4068 -0.7125
58290SOL    HW181728   7.479   2.114  10.827 -0.8236  0.4340 -0.8492
58290SOL    HW281729   7.562   2.239  10.845  0.8230 -0.7919  0.5311
58291SOL     OW81730  12.043   8.029   7.843 -0.1295 -0.3171  0.2491
58291SOL    HW181731  12.115   8.061   7.790 -0.3252 -1.8260 -1.0004
58291SOL    HW281732  12.076   8.033   7.933  0.0339  2.7177  0.1342
58292SOL     OW81733   3.388   5.668  11.957  0.1243 -0.6301 -0.1691
58292SOL    HW181734   3.335   5.747  11.967  0.6893 -0.1696 -0.7437
58292SOL    HW281735   3.325   5.596  11.963 -0.7082 -0.0754 -1.6381
58293SOL     OW81736   8.976  10.445  10.182 -0.1168  0.4050 -0.7777
58293SOL    HW181737   8.898  10.446  10.127 -2.0921 -2.9089  1.5981
58293SOL    HW281738   8.953  10.495  10.260  0.7356  0.6635 -0.6719
58294SOL     OW81739   3.271   8.921  11.943 -0.0020  0.1172  1.1283
58294SOL    HW181740   3.186   8.963  11.954 -1.2387 -2.1622  0.7927
58294SOL    HW281741   3.269   8.847  12.003  1.3283 -0.6072  0.3239
58295SOL     OW81742  12.298   8.738  10.359 -0.3688  0.2706  0.6709
58295SOL    HW181743  12.229   8.785  10.311 -0.9942  0.9841  2.1992
58295SOL    HW281744  12.377   8.754  10.308 -1.1895  0.0230 -0.7451
58296SOL     OW81745   2.065   8.644   3.280  0.2160  0.7887  0.4393
58296SOL    HW181746   2.034   8.583   3.348  0.8759 -0.3735 -0.2622
58296SOL    HW281747   2.149   8.676   3.313  0.1965  0.7820  0.4956
58297SOL     OW81748  10.015  10.608   3.488 -0.3382  0.7943 -0.2960
58297SOL    HW181749   9.983  10.695   3.463 -1.3294  0.1542 -1.3512
58297SOL    HW281750  10.084  10.626   3.552 -0.9999  2.3350  0.0569
58298SOL     OW81751   3.090   3.567   7.617 -0.4204  0.1214 -0.1226
58298SOL    HW181752   3.060   3.477   7.629  0.8007 -0.4196 -0.9385
58298SOL    HW281753   3.058   3.613   7.695 -0.2578 -1.2322  0.7872
58299SOL     OW81754   1.693   5.246   4.965  0.1100 -0.3418 -0.0297
58299SOL    HW181755   1.717   5.338   4.959  0.9869 -0.6229 -1.1973
58299SOL    HW281756   1.737   5.215   5.045 -0.2048  0.2357  0.3767
58300SOL     OW81757  12.047   3.357   8.601 -0.3001  0.1041 -0.1353
58300SOL    HW181758  12.084   3.424   8.658 -0.2474 -0.8228  0.9531
58300SOL    HW281759  11.974   3.400   8.557 -0.6144  0.7211  0.9640
58301SOL     OW81760   5.747   4.267   7.673 -0.1497 -0.1279 -0.4401
58301SOL    HW181761   5.741   4.197   7.607 -0.6565  0.6449 -1.2432
58301SOL    HW281762   5.660   4.270   7.712  0.4921 -1.4378  1.2153
58302SOL     OW81763   2.065   2.383  11.496  0.8385  0.4338  0.1851
58302SOL    HW181764   2.083   2.299  11.454  0.5588  1.6898 -2.6755
58302SOL    HW281765   1.970   2.386  11.504  0.7754  0.8374 -0.6079
58303SOL     OW81766  10.728   3.439   6.132  0.5549 -0.1738  0.3458
58303SOL    HW181767  10.812   3.450   6.177 -0.0389  3.1863  0.8932
58303SOL    HW281768  10.747   3.456   6.040  0.3000  2.6551  0.7087
58304SOL     OW81769   3.371   5.923   0.086 -0.2669 -0.0795  0.1979
58304SOL    HW181770   3.278   5.939   0.097 -1.4726 -4.3482 -1.5738
58304SOL    HW281771   3.398   5.980   0.014 -2.3666 -0.8698 -1.3073
58305SOL     OW81772   0.414   0.666   1.777 -0.3575 -0.1518 -0.1216
58305SOL    HW181773   0.469   0.729   1.731 -0.0560  1.8446  2.7656
58305SOL    HW281774   0.476   0.602   1.813 -0.4700 -0.8464 -1.0961
58306SOL     OW81775   8.476   3.888   9.651 -0.3046  0.1274 -0.4944
58306SOL    HW181776   8.519   3.919   9.572 -1.4726 -0.5183 -1.4285
58306SOL    HW281777   8.425   3.963   9.682 -1.7158 -0.2638 -1.7364
58307SOL     OW81778   7.082   2.106   7.795 -0.6704  0.6245  0.0295
58307SOL    HW181779   6.993   2.077   7.818 -0.8540  0.0226 -1.2945
58307SOL    HW281780   7.068   2.181   7.737 -0.3282  0.4025 -0.3455
58308SOL     OW81781   3.304   5.818   2.652  0.0795 -0.1407 -0.0297
58308SOL    HW181782   3.301   5.882   2.581 -2.5729  0.1332  0.2607
58308SOL    HW281783   3.327   5.870   2.730 -1.3337  0.3644  0.0703
58309SOL     OW81784   8.030  10.949   5.883  0.7160  0.0395 -0.1396
58309SOL    HW181785   7.998  10.975   5.797  1.3922  1.0623 -0.0934
58309SOL    HW281786   8.030  11.030   5.935 -1.4993 -0.8572  1.4415
58310SOL     OW81787   1.463   7.424  11.821 -0.1042  0.0532 -0.1803
58310SOL    HW181788   1.548   7.443  11.783  0.3762 -1.2818  0.1782
58310SOL    HW281789   1.481   7.406  11.913 -0.8316  0.0893 -0.0202
58311SOL     OW81790   0.434   3.528   7.150 -0.2931 -0.0646  0.1217
58311SOL    HW181791   0.436   3.477   7.069 -1.2757  1.0100 -0.6117
58311SOL    HW281792   0.457   3.617   7.123  2.6492 -0.2690  1.5659
58312SOL     OW81793   5.075   0.421  12.105 -0.7344  0.1151  0.4550
58312SOL    HW181794   5.065   0.396  12.197 -0.9562  0.3402  0.4948
58312SOL    HW281795   5.109   0.510  12.108  0.1544 -0.2142  0.3142
58313SOL     OW81796   2.564  10.513   2.722 -0.2253 -0.4830  0.1182
58313SOL    HW181797   2.496  10.563   2.769  1.2099 -1.0827  3.1039
58313SOL    HW281798   2.532  10.423   2.721 -1.5847 -0.0626 -2.8605
58314SOL     OW81799   6.700   6.481   2.028  0.2669 -0.1748  0.1140
58314SOL    HW181800   6.752   6.416   1.981 -0.2777  0.8664 -2.0045
58314SOL    HW281801   6.649   6.429   2.091 -0.3899 -1.8628 -1.7118
58315SOL     OW81802  12.480   1.523   0.310 -0.3629 -0.2627  0.8547
58315SOL    HW181803  12.565   1.535   0.352  0.3885 -0.4855 -0.5437
58315SOL    HW281804  12.463   1.429   0.318  0.5264 -0.5836 -0.6528
58316SOL     OW81805   9.759   5.661   3.046  0.0851  0.0659 -0.4704
58316SOL    HW181806   9.843   5.632   3.083 -1.0571  0.5061  2.8504
58316SOL    HW281807   9.783   5.734   2.989  1.9607  1.0298  1.3729
58317SOL     OW81808   1.274   2.786   0.426  0.7681  0.1075  0.1781
58317SOL    HW181809   1.293   2.802   0.334  2.8036  1.5242  0.7559
58317SOL    HW281810   1.254   2.872   0.462  1.0094 -0.2672  1.2520
58318SOL     OW81811   5.423   7.363   7.974 -0.1382  0.6156  0.1123
58318SOL    HW181812   5.404   7.282   7.928  1.8953  0.4412 -0.5434
58318SOL    HW281813   5.341   7.412   7.973 -1.8546 -1.9905  1.7927
58319SOL     OW81814   3.007   4.119  11.914 -0.1551  0.3688 -0.6864
58319SOL    HW181815   2.998   4.214  11.921 -1.5930  0.4083 -2.4202
58319SOL    HW281816   2.981   4.099  11.825  0.1926 -1.6702 -0.3774
58320SOL     OW81817  11.121   2.401   4.540  0.9070  0.0310  0.0646
58320SOL    HW181818  11.039   2.360   4.513  0.1340  0.8413  1.0646
58320SOL    HW281819  11.148   2.453   4.465  0.7669 -0.6248 -0.4488
58321SOL     OW81820   4.589   8.614   8.318 -0.4391  0.3901  0.2866
58321SOL    HW181821   4.540   8.588   8.396 -0.5022 -2.4958 -0.6041
58321SOL    HW281822   4.522   8.648   8.259 -1.5843 -3.2869 -0.8279
58322SOL     OW81823  12.316   9.745   8.699 -0.2217  0.3280  0.1750
58322SOL    HW181824  12.288   9.654   8.683  0.5726  0.1861 -0.4688
58322SOL    HW281825  12.375   9.765   8.626  1.5579  0.5274  1.6136
58323SOL     OW81826   3.270   9.699  12.188 -0.2783  0.1401  0.5338
58323SOL    HW181827   3.195   9.647  12.216 -0.8348  0.9594  0.5979
58323SOL    HW281828   3.311   9.727  12.269  0.0965 -0.2955  0.4986
58324SOL     OW81829   9.051   9.726   7.009  0.1561  0.0014  0.0780
58324SOL    HW181830   8.960   9.720   6.978 -0.9040  2.3109  2.3927
58324SOL    HW281831   9.081   9.812   6.979  0.9159  0.0491  0.9523
58325SOL     OW81832   4.624   5.735   8.247 -0.2007 -0.0847  0.4988
58325SOL    HW181833   4.555   5.670   8.234 -0.9923  0.5062  1.6100
58325SOL    HW281834   4.698   5.701   8.197 -1.0875 -1.0546 -0.1983
58326SOL     OW81835   6.109   0.238   3.457  0.5989 -0.4474  0.0214
58326SOL    HW181836   6.045   0.303   3.428 -1.1313 -1.2663  1.7998
58326SOL    HW281837   6.081   0.215   3.546  3.5645 -0.6351  1.0036
58327SOL     OW81838   0.255   4.537   5.415 -0.4970 -1.0142 -0.1137
58327SOL    HW181839   0.280   4.612   5.468  0.7620 -2.2692  1.1541
58327SOL    HW281840   0.167   4.514   5.446 -1.6147  0.8421 -1.6439
58328SOL     OW81841  10.506   2.725   2.022  0.2281  0.5029 -0.4622
58328SOL    HW181842  10.592   2.738   2.062 -0.0350  2.2271 -0.3768
58328SOL    HW281843  10.457   2.674   2.087  1.2047 -0.6185 -0.5771
58329SOL     OW81844  12.175   4.522   0.487 -0.0568 -0.0954  0.1695
58329SOL    HW181845  12.210   4.504   0.400  0.2260  0.5541  0.1413
58329SOL    HW281846  12.092   4.475   0.490  1.0221 -2.0754  0.4165
58330SOL     OW81847   0.664   2.858   5.444 -0.3959  0.1779 -0.0575
58330SOL    HW181848   0.739   2.866   5.385  0.0474 -0.3260  0.4298
58330SOL    HW281849   0.641   2.765   5.443  0.0637  0.0356  1.0932
58331SOL     OW81850   5.784   5.571  12.034 -0.3598 -0.2109  0.6818
58331SOL    HW181851   5.750   5.649  12.078  1.7310  1.8148 -0.9808
58331SOL    HW281852   5.723   5.556  11.962 -0.5669  0.1595  0.7782
58332SOL     OW81853  10.696   2.519   7.174  0.0759 -0.4291  0.2716
58332SOL    HW181854  10.790   2.509   7.187 -0.1840 -1.2311  1.7355
58332SOL    HW281855  10.657   2.443   7.217 -1.3233  0.6470  0.9858
58333SOL     OW81856   2.172   1.748   3.176 -0.1820  0.0876 -0.1222
58333SOL    HW181857   2.100   1.765   3.237  1.8971  2.1547  1.9941
58333SOL    HW281858   2.194   1.833   3.140  2.0557 -0.1924  0.3990
58334SOL     OW81859   3.864  12.493   9.493  0.1972  0.7362  0.3321
58334SOL    HW181860   3.806  12.422   9.519  1.8022 -0.0701  1.9498
58334SOL    HW281861   3.816  12.541   9.426 -0.8422 -2.0284 -1.0175
58335SOL     OW81862   7.927   2.535   4.429 -0.3465  0.0340 -0.3182
58335SOL    HW181863   7.936   2.461   4.490 -2.4334  0.3778  0.5123
58335SOL    HW281864   7.880   2.498   4.354 -0.2416  0.2260 -0.4777
58336SOL     OW81865   5.394   3.290   1.273  0.0222 -0.1950  0.4146
58336SOL    HW181866   5.424   3.244   1.351  1.7540 -1.0002 -0.6493
58336SOL    HW281867   5.323   3.236   1.238 -1.1133  0.4426  1.6740
58337SOL     OW81868  11.382   5.821   8.846 -0.0825 -0.3543 -0.0607
58337SOL    HW181869  11.289   5.799   8.839  0.4257 -2.2036 -2.4725
58337SOL    HW281870  11.402   5.815   8.939 -2.7291  2.0158  0.7987
58338SOL     OW81871   1.567  12.083   0.750  0.5407 -0.3200  1.1572
58338SOL    HW181872   1.545  12.131   0.670  0.4503 -1.0367  0.7354
58338SOL    HW281873   1.626  12.014   0.720 -1.3709 -2.1000  1.2824
58339SOL     OW81874   8.882   3.057   4.457 -0.0368  0.1098  0.6825
58339SOL    HW181875   8.957   3.108   4.429 -1.0325  1.4267  0.3113
58339SOL    HW281876   8.831   3.043   4.377 -1.2989  1.1892  1.2454
58340SOL     OW81877   4.354   4.012  10.649  0.2193 -0.5420  0.3737
58340SOL    HW181878   4.413   4.086  10.639  1.1562 -0.9392  2.3734
58340SOL    HW281879   4.399   3.939  10.605 -0.4443 -0.0893 -1.1099
58341SOL     OW81880   6.957   2.761  11.177  0.3416  0.2872  0.4557
58341SOL    HW181881   6.894   2.695  11.149 -0.2324  1.0305 -0.0629
58341SOL    HW281882   7.038   2.713  11.191 -0.3286 -0.6765  1.0945
58342SOL     OW81883   7.143   8.736   5.191  0.4616 -0.1591 -0.5815
58342SOL    HW181884   7.120   8.706   5.103  1.0705 -0.6710 -0.5829
58342SOL    HW281885   7.231   8.700   5.206  1.9183  2.8486 -1.1354
58343SOL     OW81886  11.511   7.210   9.855 -0.2511 -0.0606 -0.1384
58343SOL    HW181887  11.492   7.242   9.767  1.9540  0.4593 -0.4924
58343SOL    HW281888  11.530   7.290   9.905 -1.5466 -0.3419  0.8658
58344SOL     OW81889   7.643  10.426   2.608 -0.1468 -0.5849 -0.4042
58344SOL    HW181890   7.658  10.381   2.525  0.6733 -0.7502 -0.1698
58344SOL    HW281891   7.589  10.364   2.659  0.5018 -1.0767 -0.2991
58345SOL     OW81892   3.158   7.070  12.486 -0.2279 -0.4162  0.3803
58345SOL    HW181893   3.101   7.147  12.485  0.9356  0.5860  2.4213
58345SOL    HW281894   3.100   6.997  12.505 -1.0458  0.3566  0.9716
58346SOL     OW81895   8.104   4.607   5.004  0.3047 -0.0988  0.1768
58346SOL    HW181896   8.152   4.551   5.066  0.3793 -1.5448 -1.1052
58346SOL    HW281897   8.172   4.640   4.945  0.1613  0.7750  0.4999
58347SOL     OW81898   8.629   1.679  11.699  0.0385  0.8805  0.4584
58347SOL    HW181899   8.624   1.685  11.795  0.3315 -0.4914  0.5713
58347SOL    HW281900   8.715   1.715  11.677  0.3604  0.3236  0.7973
58348SOL     OW81901   2.923  10.237   3.386  0.3987  0.2229 -0.1447
58348SOL    HW181902   2.843  10.188   3.366  0.1583 -0.1784  1.6315
58348SOL    HW281903   2.908  10.324   3.352 -0.2247 -0.2387 -1.0698
58349SOL     OW81904   8.831   5.034   7.207  0.2430 -0.3063  0.5158
58349SOL    HW181905   8.842   4.949   7.250 -0.2635 -1.3667 -1.3066
58349SOL    HW281906   8.737   5.038   7.186  0.5702 -0.2124 -1.1002
58350SOL     OW81907   8.116  11.992   5.383 -0.4011  0.7078  0.2802
58350SOL    HW181908   8.173  12.004   5.460 -0.4191 -0.5282  0.5045
58350SOL    HW281909   8.042  11.941   5.415 -0.6912  0.6629 -0.4404
58351SOL     OW81910   5.139  10.050   2.006  0.4130 -0.2075 -0.2491
58351SOL    HW181911   5.061  10.102   1.988 -0.5819 -1.4824  0.2678
58351SOL    HW281912   5.112   9.960   1.994  1.7558 -0.6975  0.1634
58352SOL     OW81913   8.083   6.922  11.368 -0.3943 -0.3193  0.2625
58352SOL    HW181914   8.151   6.988  11.358 -0.1543 -0.4967  0.7003
58352SOL    HW281915   8.022   6.959  11.432 -0.4851 -0.3404  0.1889
58353SOL     OW81916  11.909   6.504  11.008  0.3408 -0.1511 -0.0088
58353SOL    HW181917  11.813   6.501  11.004  0.2436 -0.8220  1.9326
58353SOL    HW281918  11.930   6.598  11.014 -0.0918  0.0765 -1.5487
58354SOL     OW81919   2.016   9.499   9.493 -0.0830  0.0090 -0.1510
58354SOL    HW181920   2.056   9.493   9.406  0.6744 -1.0130  0.2494
58354SOL    HW281921   2.056   9.578   9.532  1.3713 -0.8224  0.1239
58355SOL     OW81922  11.713   8.739   4.630 -0.9388 -0.1170  0.1822
58355SOL    HW181923  11.789   8.683   4.614 -0.7210  0.5480 -1.2541
58355SOL    HW281924  11.657   8.687   4.688  0.0123 -1.1375  0.2263
58356SOL     OW81925   8.448   2.433   2.801  0.1771  0.3639 -0.0405
58356SOL    HW181926   8.430   2.420   2.894 -0.0938 -0.7566 -0.2368
58356SOL    HW281927   8.408   2.517   2.780  1.2451  1.2017  1.1073
58357SOL     OW81928  11.005   9.495   8.620 -0.3554 -0.1016 -0.5002
58357SOL    HW181929  11.028   9.516   8.529 -0.2089  0.4302 -0.3410
58357SOL    HW281930  11.078   9.440   8.651  0.2408  0.7868 -0.3011
58358SOL     OW81931  11.075   4.904   8.928 -0.2623 -0.2339 -0.0686
58358SOL    HW181932  11.137   4.855   8.874 -1.6454 -2.9218  0.5770
58358SOL    HW281933  11.022   4.954   8.866  0.6092 -0.2610 -0.8547
58359SOL     OW81934   9.646   4.171   9.286  0.1759 -0.2516  0.4718
58359SOL    HW181935   9.668   4.161   9.193  2.0736 -0.6029  0.9223
58359SOL    HW281936   9.550   4.174   9.288  0.1167  1.9304 -1.7104
58360SOL     OW81937   8.046   3.285   9.802 -0.4162 -0.2050 -0.3278
58360SOL    HW181938   8.142   3.282   9.809 -0.4981  0.3710  3.8563
58360SOL    HW281939   8.029   3.357   9.741  1.8127 -0.0239 -0.8290
58361SOL     OW81940   3.911  11.538   0.315  0.4569 -0.1136  0.6280
58361SOL    HW181941   3.993  11.489   0.318 -0.4795 -1.7414  0.5769
58361SOL    HW281942   3.938  11.627   0.291  1.9843 -1.1472 -1.8681
58362SOL     OW81943   5.563   9.723   8.559 -0.0358  0.3019  0.1305
58362SOL    HW181944   5.566   9.818   8.557  2.3761  0.2863  0.7115
58362SOL    HW281945   5.554   9.697   8.467 -1.0564  1.0682  0.0015
58363SOL     OW81946   6.088   7.177   1.076 -0.3257  0.3647 -0.0286
58363SOL    HW181947   6.076   7.160   1.170  1.1623 -0.4304  0.0591
58363SOL    HW281948   6.128   7.263   1.072  0.3589  0.0651  0.1432
58364SOL     OW81949   3.203   6.041   5.645 -0.4878  0.2346  0.9114
58364SOL    HW181950   3.245   6.060   5.730  0.0341 -1.1203  0.9780
58364SOL    HW281951   3.137   5.975   5.665 -1.2520  0.8393  0.4472
58365SOL     OW81952   4.519   6.542   1.864  0.1447 -0.0100  0.3482
58365SOL    HW181953   4.603   6.526   1.909  0.2173  3.2787  1.6765
58365SOL    HW281954   4.454   6.536   1.934 -0.2934  0.7077  0.0111
58366SOL     OW81955   3.246   2.410   7.753 -0.2597  0.2613  0.2800
58366SOL    HW181956   3.263   2.409   7.848  0.4331  0.7822  0.1686
58366SOL    HW281957   3.197   2.491   7.739  1.0718  1.0370 -0.0300
58367SOL     OW81958  11.600   2.770   2.059 -0.1280  0.4706 -0.7852
58367SOL    HW181959  11.680   2.821   2.044  0.3417 -0.3222 -1.0485
58367SOL    HW281960  11.568   2.750   1.971 -2.0605  2.9109 -0.7656
58368SOL     OW81961   4.114  12.224  12.537 -0.3276 -0.3930  0.3782
58368SOL    HW181962   4.075  12.298  12.492 -0.7481  0.1691  1.6377
58368SOL    HW281963   4.209  12.236  12.527 -0.4161 -0.5331 -0.7286
58369SOL     OW81964   5.269   0.744  12.461  0.1911  0.3833  0.9206
58369SOL    HW181965   5.324   0.757  12.384 -2.5515  0.0448 -1.2285
58369SOL    HW281966   5.284   0.653  12.486 -0.3409 -0.0910 -0.4457
58370SOL     OW81967   6.317   6.588   1.315 -0.1930  0.5854 -0.2779
58370SOL    HW181968   6.355   6.503   1.293  0.5765  1.2745 -1.7833
58370SOL    HW281969   6.284   6.578   1.404 -0.1315 -1.2876 -0.4311
58371SOL     OW81970   5.166  12.117   8.284 -0.0388 -0.3343  0.8349
58371SOL    HW181971   5.157  12.178   8.358 -2.8353  0.4985 -0.0535
58371SOL    HW281972   5.076  12.103   8.254  1.0016  1.2303 -3.8571
58372SOL     OW81973  10.854   7.383  12.113 -0.1705  0.6075 -0.5205
58372SOL    HW181974  10.864   7.394  12.018 -0.7569 -2.2383 -0.9893
58372SOL    HW281975  10.936   7.344  12.142  0.3695  2.2948  0.3717
58373SOL     OW81976  10.664   0.375  11.991 -0.6206 -0.0207  0.0120
58373SOL    HW181977  10.573   0.390  11.964 -0.6462  0.6689  0.4435
58373SOL    HW281978  10.676   0.280  11.983 -1.0414  0.0035 -1.0680
58374SOL     OW81979   7.682   1.049   3.823  0.2540 -0.0296  0.2567
58374SOL    HW181980   7.611   1.007   3.774 -0.1230  0.8563  0.0313
58374SOL    HW281981   7.700   1.130   3.775  1.3111 -0.1583  0.4011
58375SOL     OW81982   3.643  11.603   0.352 -0.2059  0.3447 -0.4103
58375SOL    HW181983   3.732  11.569   0.345 -0.4191 -0.6709  1.1197
58375SOL    HW281984   3.650  11.696   0.331  0.9434 -0.0201 -1.7619
58376SOL     OW81985   5.433   0.524   0.756 -0.3396  0.2614  0.4764
58376SOL    HW181986   5.406   0.562   0.673 -0.4410  0.7452  0.7252
58376SOL    HW281987   5.520   0.488   0.739 -1.3248 -1.8286 -0.4921
58377SOL     OW81988   9.495   6.723   6.923  0.0949 -0.3043 -0.2172
58377SOL    HW181989   9.510   6.789   6.991 -0.8927 -1.0543  0.7525
58377SOL    HW281990   9.578   6.719   6.876  1.1507 -0.4503  1.5594
58378SOL     OW81991  12.456   1.449   8.904  0.1643 -0.0343  0.1063
58378SOL    HW181992  12.401   1.458   8.982 -1.6203  0.9473 -1.1945
58378SOL    HW281993  12.512   1.527   8.906 -1.6410  1.3551 -0.8586
58379SOL     OW81994   7.489   8.801   6.738  0.5073  0.3066 -0.1921
58379SOL    HW181995   7.438   8.818   6.818  0.4082 -2.4782  0.4438
58379SOL    HW281996   7.424   8.776   6.673  0.7595  0.6873 -0.5978
58380SOL     OW81997   9.302   6.083   8.060  0.3923 -0.3780  0.4049
58380SOL    HW181998   9.376   6.069   8.119  0.3816  0.3772  0.6036
58380SOL    HW281999   9.267   5.995   8.044  1.3385 -0.7453  0.2917
58381SOL     OW82000  10.231   0.254   2.065 -0.0781 -0.0939  0.3429
58381SOL    HW182001  10.314   0.223   2.028  0.7981  0.7061  1.5432
58381SOL    HW282002  10.203   0.183   2.123  0.0645 -0.1256  0.3734
58382SOL     OW82003   8.303  10.267   2.612 -0.0608 -0.2744 -0.3126
58382SOL    HW182004   8.279  10.326   2.540  1.4923  0.3953 -0.3157
58382SOL    HW282005   8.396  10.284   2.627 -0.4455  0.0464  2.2302
58383SOL     OW82006   1.687   2.089   4.736 -0.4238 -0.2436 -0.2963
58383SOL    HW182007   1.750   2.160   4.721  0.7191 -1.1988 -0.1277
58383SOL    HW282008   1.698   2.066   4.828 -1.6463  0.1280 -0.0256
58384SOL     OW82009  11.907   9.601   4.460 -0.1152 -0.2347  0.4740
58384SOL    HW182010  11.915   9.667   4.391  1.8443 -1.4043 -0.5299
58384SOL    HW282011  11.971   9.627   4.526  1.1279 -1.3741 -0.2180
58385SOL     OW82012   3.757   6.356   1.097 -0.0138 -0.2584  0.0813
58385SOL    HW182013   3.723   6.267   1.086  0.9118 -0.7066  0.6372
58385SOL    HW282014   3.847   6.343   1.128 -0.1690  0.8818  1.0733
58386SOL     OW82015   5.509   8.155   2.454  0.2933 -0.3613 -0.6096
58386SOL    HW182016   5.459   8.147   2.535  0.2864 -0.6958 -0.6490
58386SOL    HW282017   5.444   8.176   2.387  0.6191  3.4800  0.0294
58387SOL     OW82018   0.460   5.506   3.217  0.2000 -0.6004  0.0606
58387SOL    HW182019   0.466   5.596   3.250 -1.7253 -0.8837  1.2904
58387SOL    HW282020   0.385   5.508   3.157  1.2812 -1.0034 -1.3709
58388SOL     OW82021   9.069   1.834   6.857  0.3713  0.2918  0.2501
58388SOL    HW182022   9.015   1.755   6.857  0.9909 -0.2723  3.8583
58388SOL    HW282023   9.156   1.804   6.882  1.7003  1.6560 -2.2798
58389SOL     OW82024   2.796   2.176   1.109  1.0141  0.8972 -0.3841
58389SOL    HW182025   2.738   2.252   1.107 -1.5227 -0.7973  1.6318
58389SOL    HW282026   2.866   2.201   1.169  0.9214  2.0544 -0.7372
58390SOL     OW82027   7.994   1.858   9.666  0.5395  0.0050  0.5049
58390SOL    HW182028   7.935   1.905   9.607  0.9011 -0.4532 -0.2445
58390SOL    HW282029   8.060   1.922   9.691 -0.9577  0.9027  2.3989
58391SOL     OW82030  10.614  11.026  12.547 -0.3856  0.4144  0.5290
58391SOL    HW182031  10.694  11.069  12.516 -0.9883 -0.0822 -1.9592
58391SOL    HW282032  10.643  10.940  12.576  0.0570  0.3903  0.0363
58392SOL     OW82033   8.239  11.512   3.385 -0.0892  0.5816  0.2545
58392SOL    HW182034   8.246  11.578   3.316  0.0695  1.6359  1.2641
58392SOL    HW282035   8.150  11.521   3.419 -0.4232 -0.4531 -0.2977
58393SOL     OW82036   0.001   4.405   1.319 -0.5639  0.4682  0.2373
58393SOL    HW182037  -0.086   4.409   1.280 -1.1050  2.1698  1.5297
58393SOL    HW282038   0.039   4.491   1.303  0.4843  0.0942  0.6169
58394SOL     OW82039   6.016   8.315   7.091 -0.7167  0.4955 -0.5027
58394SOL    HW182040   6.021   8.284   7.181 -0.1504  0.9482 -0.3760
58394SOL    HW282041   5.936   8.366   7.087 -0.5643  0.7637 -0.1611
58395SOL     OW82042   9.123   2.835   7.835  0.0096  0.3506 -0.8783
58395SOL    HW182043   9.062   2.763   7.820  1.1327 -1.1210  1.2011
58395SOL    HW282044   9.067   2.913   7.835 -1.8743 -0.9010  0.7506
58396SOL     OW82045   8.715  12.208   3.572  0.8226 -0.1994 -0.0540
58396SOL    HW182046   8.727  12.291   3.618 -1.3784 -0.2844  0.7635
58396SOL    HW282047   8.718  12.142   3.641  1.1044 -0.6786 -0.5176
58397SOL     OW82048   1.008   7.863  10.838  0.2361 -0.6899  0.0182
58397SOL    HW182049   1.007   7.957  10.853  0.7307 -0.7565  0.4993
58397SOL    HW282050   1.059   7.853  10.757 -0.5721 -0.4883 -0.5266
58398SOL     OW82051   1.578   7.336   8.228  0.0209  0.0729 -0.0395
58398SOL    HW182052   1.537   7.260   8.188 -0.0151  0.2016 -0.2511
58398SOL    HW282053   1.543   7.411   8.178  1.4862  0.1103 -1.0900
58399SOL     OW82054   2.978   4.284   6.185  0.1380 -0.1911  0.8247
58399SOL    HW182055   2.958   4.303   6.277 -0.1171 -0.1666  0.7652
58399SOL    HW282056   3.060   4.329   6.169 -0.4516  0.8753  0.6929
58400SOL     OW82057   6.829  11.928   5.264  0.2343  0.0912  0.0066
58400SOL    HW182058   6.777  11.988   5.318 -2.3346  0.5551 -2.7219
58400SOL    HW282059   6.767  11.859   5.239  2.2016 -1.8846  0.2347
58401SOL     OW82060   2.567   9.345   8.990  0.3169 -0.1469  0.0392
58401SOL    HW182061   2.558   9.402   8.914 -0.6130 -0.0751  0.1976
58401SOL    HW282062   2.662   9.330   8.998  0.5610  1.2109 -0.1199
58402SOL     OW82063  10.026  11.630   3.668 -0.0219  0.1339  0.3504
58402SOL    HW182064  10.080  11.708   3.656 -0.0661  0.0073 -0.8061
58402SOL    HW282065   9.985  11.642   3.753  1.2503  0.5868  0.9166
58403SOL     OW82066   2.406   9.321   8.029 -0.2994  0.1180 -0.0681
58403SOL    HW182067   2.399   9.227   8.049 -2.5928  0.5030  1.2481
58403SOL    HW282068   2.369   9.329   7.941 -0.1047 -0.1940 -0.1821
58404SOL     OW82069   5.051   9.383   7.358 -0.0320 -0.6298  0.1129
58404SOL    HW182070   4.999   9.397   7.279  0.9353 -0.0993 -0.4494
58404SOL    HW282071   5.077   9.471   7.386  2.2114 -0.9346 -0.7795
58405SOL     OW82072  10.662   5.259  10.856 -0.5347  0.4923  0.3450
58405SOL    HW182073  10.669   5.303  10.771 -1.6671 -0.5180 -0.3148
58405SOL    HW282074  10.752   5.244  10.883 -0.1525  1.0077 -0.5852
58406SOL     OW82075   7.362   8.045   7.425  0.3943  0.0542  0.2004
58406SOL    HW182076   7.292   8.027   7.363  0.6087 -0.6559  0.1574
58406SOL    HW282077   7.442   8.017   7.380  0.4690 -1.2917  1.1068
58407SOL     OW82078   1.449  10.209   1.406  0.1393  0.1042  0.0470
58407SOL    HW182079   1.434  10.221   1.500 -0.6894  2.1220 -0.2813
58407SOL    HW282080   1.543  10.197   1.398  0.2656  0.2746  1.1024
58408SOL     OW82081   6.895  11.198   0.018 -0.2840  0.2111 -0.2002
58408SOL    HW182082   6.986  11.226   0.030 -0.2568 -0.2303  0.7358
58408SOL    HW282083   6.869  11.235  -0.066  0.9117 -0.0405 -0.6990
58409SOL     OW82084   1.936   5.127   0.397 -0.3169  0.1115  0.5033
58409SOL    HW182085   1.957   5.065   0.327  1.2855  2.4245 -1.2045
58409SOL    HW282086   1.853   5.094   0.434  0.1001 -2.5998 -0.7193
58410SOL     OW82087  10.595   9.417   4.017  0.3501  1.0052  0.1236
58410SOL    HW182088  10.668   9.356   4.027  0.7752  1.4452 -0.2214
58410SOL    HW282089  10.608   9.456   3.930 -0.3170  1.0662  0.0425
58411SOL     OW82090   1.743   8.989   8.807 -0.3012  0.0546  0.0419
58411SOL    HW182091   1.671   8.925   8.807 -0.0539 -0.2452 -1.3428
58411SOL    HW282092   1.735   9.033   8.892 -2.1508  0.0700 -0.1033
58412SOL     OW82093   2.527  10.311   3.467  0.0397 -0.4144  0.2502
58412SOL    HW182094   2.446  10.349   3.499  1.2390  3.1356 -0.4406
58412SOL    HW282095   2.577  10.290   3.546  0.6706  2.8547  0.8619
58413SOL     OW82096   6.115  10.075   0.977 -0.6322 -0.2843  0.0462
58413SOL    HW182097   6.043  10.109   0.923 -2.1345  0.7601  2.5600
58413SOL    HW282098   6.185  10.139   0.967  0.0940 -1.3117 -2.4264
58414SOL     OW82099   3.128   5.707   6.854 -0.3022 -0.1390  0.3971
58414SOL    HW182100   3.145   5.682   6.763 -0.1413  0.6494  0.2081
58414SOL    HW282101   3.050   5.762   6.850  0.2716  0.6992  0.6148
58415SOL     OW82102   8.758   8.738   6.782  0.1879  0.0425 -0.1842
58415SOL    HW182103   8.734   8.779   6.865 -0.6011  0.6260 -0.6865
58415SOL    HW282104   8.820   8.669   6.806 -0.6148 -0.3102  0.9803
58416SOL     OW82105   3.283   9.462   5.606  0.5417 -0.2842 -0.0731
58416SOL    HW182106   3.342   9.458   5.681  0.1084 -2.0832  0.2343
58416SOL    HW282107   3.306   9.542   5.561  1.1900  0.5669  1.6790
58417SOL     OW82108   8.967   5.235  10.474  0.2366  0.0561 -0.1698
58417SOL    HW182109   9.023   5.192  10.410 -0.5055 -0.6753 -0.3429
58417SOL    HW282110   8.904   5.284  10.422  2.7819  3.9084 -0.0803
58418SOL     OW82111   3.999   9.538  11.718 -0.0561  0.5042  0.2965
58418SOL    HW182112   3.960   9.454  11.693 -1.5293  1.2915 -0.1431
58418SOL    HW282113   4.030   9.576  11.636 -0.5163  0.9467  0.3285
58419SOL     OW82114   6.926   3.490   1.699 -0.4035 -0.1865 -0.0417
58419SOL    HW182115   6.991   3.444   1.752 -0.4403 -0.1009  0.0796
58419SOL    HW282116   6.895   3.561   1.756 -1.3401 -0.8301  0.2692
58420SOL     OW82117   0.843   9.308   9.126 -0.2679  0.5716 -0.1973
58420SOL    HW182118   0.808   9.221   9.143  2.6337 -0.7604 -0.3165
58420SOL    HW282119   0.806   9.363   9.195 -0.7711 -1.1856  0.9924
58421SOL     OW82120   8.085   6.216   5.820  0.2165 -0.2923  0.1862
58421SOL    HW182121   8.071   6.204   5.726 -0.1838 -2.8127  0.4919
58421SOL    HW282122   8.179   6.235   5.827 -0.2298  2.9160 -0.8586
58422SOL     OW82123   8.293   9.844  11.375 -0.1638 -0.1909  0.1897
58422SOL    HW182124   8.341   9.922  11.401  0.6983 -0.5418 -0.3235
58422SOL    HW282125   8.245   9.869  11.296 -0.5574  0.0563  0.5036
58423SOL     OW82126   8.196  10.017   7.039  0.1273  0.1454 -0.3208
58423SOL    HW182127   8.207  10.007   7.134  0.4419 -1.4009 -0.4986
58423SOL    HW282128   8.275  10.062   7.010 -0.0968  0.8762  0.1797
58424SOL     OW82129  12.553   2.866   6.119  0.0116 -0.0879 -0.3789
58424SOL    HW182130  12.512   2.918   6.189  2.1784  1.4805 -0.1898
58424SOL    HW282131  12.566   2.780   6.158 -0.6725  0.1678  0.4495
58425SOL     OW82132   6.543   2.245   2.387 -0.0484 -0.7762  0.2567
58425SOL    HW182133   6.595   2.257   2.307 -0.1596 -0.2260  0.2651
58425SOL    HW282134   6.499   2.161   2.374  1.0971 -1.4188  0.3868
58426SOL     OW82135  10.402   9.843  10.093  0.1643  0.1739  0.1319
58426SOL    HW182136  10.342   9.845  10.168  0.7553 -0.2315  0.6319
58426SOL    HW282137  10.476   9.789  10.123  0.5326  0.2235 -0.6542
58427SOL     OW82138   7.104   2.422   2.611 -0.4320 -0.1388 -0.4382
58427SOL    HW182139   7.161   2.433   2.535  0.6644  1.2881  0.5474
58427SOL    HW282140   7.135   2.343   2.654 -0.1114 -0.1403 -0.6693
58428SOL     OW82141  11.376   4.907   1.912  0.1513  0.3910  0.3843
58428SOL    HW182142  11.283   4.926   1.926  0.1080  0.8155 -0.3911
58428SOL    HW282143  11.404   4.974   1.850  1.3444  1.1970  1.7348
58429SOL     OW82144   5.236   9.757   4.239  0.2854  0.5877 -0.0146
58429SOL    HW182145   5.260   9.847   4.260  1.4310  0.5741 -1.1441
58429SOL    HW282146   5.314   9.721   4.196  0.1061 -1.1704  1.0319
58430SOL     OW82147   8.068   5.413   5.959  0.3126  0.2314  0.0778
58430SOL    HW182148   7.989   5.379   5.917 -0.8638  2.2629  0.5285
58430SOL    HW282149   8.138   5.355   5.928 -0.6538  0.8413 -3.7334
58431SOL     OW82150  12.074   5.562   9.956  0.4296  0.1592  0.3019
58431SOL    HW182151  12.075   5.654   9.983 -0.0650  0.7920 -1.6750
58431SOL    HW282152  12.166   5.541   9.941  0.5192  0.3972  0.5038
58432SOL     OW82153   6.383   0.552   0.699  0.0191 -0.1819 -0.1224
58432SOL    HW182154   6.291   0.574   0.684  0.6083  1.0923 -2.1977
58432SOL    HW282155   6.427   0.573   0.617  2.2439 -0.4391  0.9288
58433SOL     OW82156   5.270   8.718   7.917  0.2045  0.1425 -0.4778
58433SOL    HW182157   5.357   8.724   7.877 -0.4465  0.2369 -1.9417
58433SOL    HW282158   5.249   8.625   7.913  0.7797 -0.1056  1.1739
58434SOL     OW82159   2.798  12.016   5.986  0.2795  0.2335  0.3773
58434SOL    HW182160   2.732  11.957   5.949  1.7854 -0.4541 -1.3660
58434SOL    HW282161   2.881  11.969   5.975  1.3342  2.0290  0.3345
58435SOL     OW82162   4.846   9.803   2.901  1.1464 -0.6912  0.4625
58435SOL    HW182163   4.766   9.841   2.865  1.3280  0.4563  1.2445
58435SOL    HW282164   4.896   9.877   2.935  3.3175 -1.1543 -1.4244
58436SOL     OW82165  11.721   6.729   0.662  0.1895 -0.7303  0.1784
58436SOL    HW182166  11.743   6.763   0.749 -2.3702  1.4589  0.1043
58436SOL    HW282167  11.629   6.703   0.669 -0.8499  1.7779 -2.4235
58437SOL     OW82168   1.285   1.021   5.897  0.3477  0.2226  0.5603
58437SOL    HW182169   1.218   0.989   5.836  1.9040 -1.2358 -0.4882
58437SOL    HW282170   1.238   1.033   5.980 -1.1823 -0.8454 -0.0979
58438SOL     OW82171   9.317   5.167  11.509 -0.9355  0.2516 -0.0879
58438SOL    HW182172   9.225   5.145  11.494 -1.2381  0.5190  1.2745
58438SOL    HW282173   9.338   5.127  11.593 -0.5391  2.2820  0.8404
58439SOL     OW82174   5.280   4.867   8.341  0.0520  0.1540 -0.1881
58439SOL    HW182175   5.282   4.937   8.276  0.4410 -0.3337 -0.7036
58439SOL    HW282176   5.187   4.853   8.360 -0.0843 -0.0210 -0.9778
58440SOL     OW82177  12.438   9.092  11.329 -0.6956  0.4004  0.1182
58440SOL    HW182178  12.386   9.111  11.407  1.7296 -0.2288  1.9967
58440SOL    HW282179  12.477   9.176  11.305  0.4074  0.1810  1.0570
58441SOL     OW82180   9.970   2.844   6.667 -0.7789  0.0365 -0.0900
58441SOL    HW182181   9.960   2.764   6.718 -1.3270  1.4985  2.2245
58441SOL    HW282182   9.880   2.865   6.640 -0.5507 -0.4588 -1.2997
58442SOL     OW82183   7.149  11.337   5.185 -0.0896  0.2923 -0.2422
58442SOL    HW182184   7.215  11.406   5.188 -1.5230  1.7226 -0.2341
58442SOL    HW282185   7.130  11.326   5.092 -1.8318  1.9333 -0.1363
58443SOL     OW82186   7.570   3.911   9.089 -0.6991 -0.2109  0.3206
58443SOL    HW182187   7.656   3.877   9.115 -0.2572  0.6247 -0.0384
58443SOL    HW282188   7.541   3.962   9.164 -1.3878 -1.3782  0.8809
58444SOL     OW82189   6.002   5.214   8.291  0.5216  0.3481 -0.1189
58444SOL    HW182190   6.094   5.228   8.272  0.6097  0.2713  0.2473
58444SOL    HW282191   5.956   5.271   8.230  0.8683  2.2251  1.2974
58445SOL     OW82192  10.114   4.629   4.987  0.2495  0.4553  0.2960
58445SOL    HW182193  10.117   4.596   5.077  1.7830  2.2896  0.9868
58445SOL    HW282194  10.089   4.553   4.934 -0.2444 -0.7718  2.2036
58446SOL     OW82195   8.376   5.930   9.579 -0.0529 -0.1364 -0.0955
58446SOL    HW182196   8.301   5.872   9.570 -1.6150  1.9705 -1.3491
58446SOL    HW282197   8.441   5.895   9.518 -1.5015  0.1743 -1.8764
58447SOL     OW82198   8.168   9.617   6.454  0.2241 -0.3418  0.1541
58447SOL    HW182199   8.074   9.631   6.439  0.2979 -0.3540 -0.3255
58447SOL    HW282200   8.205   9.609   6.367  0.6239 -0.6832  0.3536
58448SOL     OW82201  10.153   9.533  12.263 -0.3464 -0.0838  0.1865
58448SOL    HW182202  10.076   9.518  12.208 -0.4212  1.4617 -0.1601
58448SOL    HW282203  10.133   9.487  12.344 -1.0245 -0.8625 -0.4031
58449SOL     OW82204  12.110   4.464  10.466  0.5461  0.2333 -0.7194
58449SOL    HW182205  12.115   4.456  10.561  1.4942  0.5320 -0.7391
58449SOL    HW282206  12.122   4.375  10.434 -0.7440 -0.0324 -0.5478
58450SOL     OW82207   6.551   9.575  10.956  0.0170  0.0405  0.1685
58450SOL    HW182208   6.488   9.592  11.025  0.9080 -0.9920  1.2719
58450SOL    HW282209   6.634   9.611  10.989  0.3797 -0.1243 -0.5306
58451SOL     OW82210   7.610   4.084   3.478  0.7202 -0.0324 -0.2894
58451SOL    HW182211   7.547   4.149   3.511  1.1938 -0.5569  1.8077
58451SOL    HW282212   7.689   4.134   3.460  0.6897  0.1627  0.1073
58452SOL     OW82213   2.617   6.794   8.610 -0.2783 -0.3954  0.3831
58452SOL    HW182214   2.633   6.881   8.645  0.1728 -0.3639  0.1123
58452SOL    HW282215   2.555   6.808   8.539 -0.9138 -0.4142  0.9306
58453SOL     OW82216  10.250   3.997   5.008 -0.2704 -0.2249 -0.0686
58453SOL    HW182217  10.301   3.953   4.940 -0.0668 -0.3733  0.1793
58453SOL    HW282218  10.213   3.926   5.060 -0.5139 -0.1130 -0.0876
58454SOL     OW82219   2.869   4.836  11.062 -0.5181 -0.0111  0.2282
58454SOL    HW182220   2.830   4.761  11.107 -0.7421 -0.4273 -0.6398
58454SOL    HW282221   2.963   4.823  11.070 -0.5532 -0.6229 -0.2909
58455SOL     OW82222  11.702   0.912   9.624  0.0431  0.0606 -0.1181
58455SOL    HW182223  11.627   0.888   9.679  0.2905  1.3899  0.8559
58455SOL    HW282224  11.772   0.854   9.652 -0.4335 -0.7344 -0.5579
58456SOL     OW82225   1.754   3.776  10.754 -0.3460  0.4251 -1.0526
58456SOL    HW182226   1.796   3.695  10.785 -1.9356 -0.2770 -0.6209
58456SOL    HW282227   1.769   3.839  10.825 -0.7968 -0.0990 -0.4730
58457SOL     OW82228   6.308   3.121   8.941  0.1290 -0.2952 -0.1718
58457SOL    HW182229   6.295   3.213   8.962 -1.0441 -0.3540 -0.5676
58457SOL    HW282230   6.333   3.081   9.025  0.2228  0.3076  0.0902
58458SOL     OW82231  11.178   3.411   0.115  0.1633 -0.1922 -0.3315
58458SOL    HW182232  11.217   3.387   0.031 -0.1963  0.2994 -0.6403
58458SOL    HW282233  11.138   3.496   0.100 -0.7629 -0.5414  0.0624
58459SOL     OW82234  10.968   9.927   9.398 -0.2495  0.0334 -0.2628
58459SOL    HW182235  10.958   9.875   9.478 -0.2099 -0.7510 -0.7533
58459SOL    HW282236  10.880   9.962   9.382 -1.5681 -3.6406 -2.3950
58460SOL     OW82237   2.153   0.577   0.344 -0.1227 -0.3212 -0.1163
58460SOL    HW182238   2.093   0.516   0.387  0.6093 -0.2918  1.0095
58460SOL    HW282239   2.100   0.655   0.327 -0.8800 -1.0074 -0.9222
58461SOL     OW82240  10.060   1.401   1.001 -0.1150  0.2313 -0.1814
58461SOL    HW182241  10.112   1.338   1.051 -0.7593  0.0617  0.2931
58461SOL    HW282242  10.035   1.355   0.921 -0.5447 -0.1163  0.1423
58462SOL     OW82243   2.053  10.750  10.984  0.6344  0.4782 -0.3780
58462SOL    HW182244   2.044  10.737  10.890 -0.3230  1.3303 -0.4228
58462SOL    HW282245   1.965  10.734  11.019  1.2196 -0.8951  0.5206
58463SOL     OW82246   5.255   3.072   3.129  0.0904  0.0304 -0.0785
58463SOL    HW182247   5.263   2.999   3.067  0.7350  1.0385 -1.2303
58463SOL    HW282248   5.205   3.036   3.202  0.9352 -1.7510 -0.3187
58464SOL     OW82249   9.227   4.504   0.325  0.7696 -0.2093 -0.2566
58464SOL    HW182250   9.222   4.444   0.399 -0.9696 -0.2345 -0.3545
58464SOL    HW282251   9.206   4.590   0.361 -0.0638 -0.2170 -0.6854
58465SOL     OW82252   2.819   6.818   8.355  0.4441 -0.4188 -0.0111
58465SOL    HW182253   2.736   6.770   8.346  0.6857 -0.7114 -0.7968
58465SOL    HW282254   2.792   6.908   8.371 -0.0270 -0.6003  0.2479
58466SOL     OW82255   1.668  10.357   8.406  0.3156 -0.0781  0.4336
58466SOL    HW182256   1.585  10.310   8.409 -0.2631  0.9108  0.4378
58466SOL    HW282257   1.734  10.289   8.401 -0.4631 -0.9016  1.0737
58467SOL     OW82258   7.741   8.819   9.790  0.0892  0.2779  0.4261
58467SOL    HW182259   7.812   8.788   9.733 -0.9645 -1.2716 -0.1209
58467SOL    HW282260   7.749   8.765   9.869  0.0157  0.6647  0.6955
58468SOL     OW82261   4.561   4.396   9.994 -0.1143  0.5537  0.4673
58468SOL    HW182262   4.538   4.306   9.970  0.0992  0.3787  0.9046
58468SOL    HW282263   4.574   4.441   9.911 -0.1297  0.1560  0.2484
58469SOL     OW82264   9.137   7.229   1.631 -0.2398  0.1756 -0.1715
58469SOL    HW182265   9.129   7.300   1.567  1.5523 -0.8701 -1.6387
58469SOL    HW282266   9.229   7.227   1.654  0.0698 -2.5917 -1.3096
58470SOL     OW82267   8.054   8.053   1.243 -0.1301  0.3871 -0.0304
58470SOL    HW182268   8.131   8.078   1.191 -0.4511  0.8196 -0.3059
58470SOL    HW282269   8.090   8.029   1.329  0.0991  3.8080  0.9862
58471SOL     OW82270   3.015   0.408   6.744  0.2337  0.2929 -0.2357
58471SOL    HW182271   3.065   0.371   6.671  0.3713 -1.6399  0.7878
58471SOL    HW282272   3.038   0.501   6.743  1.0686  0.1165 -1.9729
58472SOL     OW82273   9.588   8.440   6.224  0.0560  0.2390 -0.0666
58472SOL    HW182274   9.668   8.387   6.225 -0.6916 -0.8993  0.0118
58472SOL    HW282275   9.620   8.530   6.217  1.3853 -0.1164  1.1157
58473SOL     OW82276   0.774  12.274  12.512 -0.2611 -0.5762 -0.6304
58473SOL    HW182277   0.735  12.214  12.448 -0.8071 -0.9205  0.0235
58473SOL    HW282278   0.720  12.265  12.590  0.7831 -0.6224  0.0943
58474SOL     OW82279   8.942   5.506   6.867 -0.2491  0.1444  0.4347
58474SOL    HW182280   8.929   5.566   6.940  1.1242 -1.0699  1.7426
58474SOL    HW282281   9.036   5.510   6.850 -0.5373  0.3767 -1.2811
58475SOL     OW82282  10.073   9.497   9.172  0.1708  0.3127  0.0643
58475SOL    HW182283  10.052   9.520   9.081  0.3203 -3.0667 -0.9390
58475SOL    HW282284  10.162   9.531   9.185  0.0898  0.9742 -0.9864
58476SOL     OW82285  11.319   3.883   8.137 -0.1594  0.4313  0.1063
58476SOL    HW182286  11.251   3.930   8.186 -0.0874 -0.1617  0.7905
58476SOL    HW282287  11.401   3.916   8.172 -0.1079  0.1588  0.2507
58477SOL     OW82288   1.169   9.918   2.042  0.0868 -0.3348  0.6815
58477SOL    HW182289   1.082   9.880   2.026 -0.3741  1.0187 -0.1985
58477SOL    HW282290   1.204   9.866   2.114 -0.7694 -1.9684 -0.0142
58478SOL     OW82291   9.511   1.781   4.869 -0.2130 -0.0912 -0.6945
58478SOL    HW182292   9.599   1.752   4.844 -0.4270 -1.5611  0.1688
58478SOL    HW282293   9.454   1.710   4.842 -0.9222  0.0616  0.3487
58479SOL     OW82294   0.530  12.035  12.482 -0.3047 -0.6966 -0.6732
58479SOL    HW182295   0.574  11.952  12.500  0.4606 -0.2407 -0.4077
58479SOL    HW282296   0.524  12.078  12.567  1.1670  0.4143 -1.0869
58480SOL     OW82297  10.598  11.664   0.987 -0.1306  0.3387 -0.1172
58480SOL    HW182298  10.591  11.575   0.952 -0.2750  0.2561  0.1187
58480SOL    HW282299  10.605  11.652   1.081  2.3677  0.4576 -0.2226
58481SOL     OW82300  12.139   0.860  10.293 -0.5857  0.0278 -0.2122
58481SOL    HW182301  12.234   0.848  10.290 -0.5825 -0.0491  0.1302
58481SOL    HW282302  12.125   0.932  10.354 -0.6635  1.1725 -1.5488
58482SOL     OW82303   0.480   0.436   9.207 -0.2891 -0.4508 -0.0186
58482SOL    HW182304   0.476   0.398   9.120 -2.1603  0.7057 -0.4944
58482SOL    HW282305   0.389   0.449   9.232  0.2132  1.7977  0.9249
58483SOL     OW82306   4.074   1.099   0.509 -0.0795  0.2663  0.3233
58483SOL    HW182307   4.060   1.083   0.416  0.7477 -2.2136  0.5455
58483SOL    HW282308   4.059   1.193   0.520 -1.6495  0.3718 -2.0124
58484SOL     OW82309   2.128   8.854   0.913 -0.0430 -0.1483  0.0312
58484SOL    HW182310   2.170   8.790   0.855  2.0868  0.6854  0.5442
58484SOL    HW282311   2.092   8.920   0.853  0.8655 -0.0427 -0.4317
58485SOL     OW82312   2.185   4.045   1.162  0.2229 -0.0577 -0.8010
58485SOL    HW182313   2.169   4.056   1.068 -2.6364  0.4884 -0.3587
58485SOL    HW282314   2.249   4.113   1.183 -0.3471  0.9381 -2.0859
58486SOL     OW82315  10.150   2.561  12.061 -0.5752 -0.1237  0.0260
58486SOL    HW182316  10.179   2.644  12.023  1.7475 -0.4129  1.0270
58486SOL    HW282317  10.157   2.499  11.989  2.7484 -0.4436  0.4568
58487SOL     OW82318   2.686   1.617   7.567 -0.1646 -0.5471 -0.0031
58487SOL    HW182319   2.598   1.601   7.534 -0.2378 -0.0556 -0.0527
58487SOL    HW282320   2.678   1.698   7.618  0.0056 -1.1400  0.9883
58488SOL     OW82321   7.577   6.738   7.396  0.9508 -0.3533 -0.0370
58488SOL    HW182322   7.657   6.774   7.435 -0.1675  0.1165  2.0247
58488SOL    HW282323   7.590   6.746   7.302  2.8450  0.8015  0.2664
58489SOL     OW82324   4.798   9.437   2.264 -0.3091 -0.9163  0.5816
58489SOL    HW182325   4.743   9.367   2.299  0.2437 -1.4769  0.3507
58489SOL    HW282326   4.816   9.494   2.338 -0.9618 -0.8830  0.7203
58490SOL     OW82327   1.692   7.895   1.149 -0.3439  0.1008 -0.1960
58490SOL    HW182328   1.701   7.958   1.078 -0.3918  1.0253  0.5873
58490SOL    HW282329   1.745   7.820   1.123  0.8564  1.0418 -0.5087
58491SOL     OW82330   6.160   6.993  11.797 -0.2568 -0.5070 -0.4051
58491SOL    HW182331   6.088   6.963  11.853  0.8893 -2.6755 -0.0102
58491SOL    HW282332   6.138   6.960  11.710  0.4445 -1.5747 -0.1954
58492SOL     OW82333  10.915  12.437   9.609  0.3700  0.1311  0.1632
58492SOL    HW182334  10.893  12.492   9.684 -1.2367 -0.6926  0.3190
58492SOL    HW282335  10.954  12.498   9.546 -0.7196  1.3274  0.6075
58493SOL     OW82336   0.301  12.261  11.755 -0.3884  0.0281 -0.4414
58493SOL    HW182337   0.251  12.280  11.675  1.3185  2.9944 -0.9644
58493SOL    HW282338   0.357  12.338  11.767 -0.6547 -0.1991  3.7409
58494SOL     OW82339   0.224   3.482   9.694 -0.1247  0.7120 -0.2825
58494SOL    HW182340   0.156   3.415   9.691  0.4268  0.1534 -0.6464
58494SOL    HW282341   0.297   3.440   9.739  0.8825  0.4338 -2.0945
58495SOL     OW82342   1.650   2.208   5.957  0.5891  0.4055  0.2590
58495SOL    HW182343   1.685   2.128   5.916  1.4609  0.3978  0.9759
58495SOL    HW282344   1.563   2.218   5.919  0.3774 -1.0029  0.2928
58496SOL     OW82345  12.482  12.004   1.895  1.2825 -1.1093  0.4999
58496SOL    HW182346  12.549  12.034   1.956  1.0482 -3.1218  1.8145
58496SOL    HW282347  12.430  11.942   1.945 -0.6207 -0.7701 -0.9656
58497SOL     OW82348  10.464   4.240   6.998  0.0516 -0.4146 -0.3522
58497SOL    HW182349  10.468   4.150   6.966  1.2095  0.1355 -1.8770
58497SOL    HW282350  10.401   4.283   6.941  0.3394  0.0078 -0.3557
58498SOL     OW82351   3.123  11.340   6.751 -0.0343  0.4356 -0.3601
58498SOL    HW182352   3.109  11.251   6.782 -2.1675  0.0254 -2.2587
58498SOL    HW282353   3.121  11.394   6.830 -0.5412 -1.0002  0.6442
58499SOL     OW82354   2.332   4.368   5.750 -0.1135  0.6324  0.0138
58499SOL    HW182355   2.272   4.300   5.782 -1.9528  0.9816 -2.3823
58499SOL    HW282356   2.307   4.447   5.797 -0.7606  0.5066 -0.1118
58500SOL     OW82357   3.371   3.611   4.070  0.8557 -0.3633  0.5369
58500SOL    HW182358   3.464   3.587   4.073  0.6168 -1.5125 -0.5788
58500SOL    HW282359   3.369   3.693   4.021  1.0934 -1.5236 -1.4927
58501SOL     OW82360   2.653   9.017  11.275  0.1557 -0.4721  0.4247
58501SOL    HW182361   2.584   9.031  11.211  1.0048  0.5877 -0.3095
58501SOL    HW282362   2.615   8.959  11.340 -1.1678 -0.5021 -0.3480
58502SOL     OW82363  11.164   8.523   6.447 -0.1312 -0.3418  0.0787
58502SOL    HW182364  11.083   8.480   6.420  0.3616 -1.7297  0.6946
58502SOL    HW282365  11.136   8.592   6.506 -1.0415  1.1157 -1.9257
58503SOL     OW82366   5.227   4.808   5.070  0.9558 -0.0935 -0.3905
58503SOL    HW182367   5.204   4.774   4.983  0.8758 -0.2529 -0.3081
58503SOL    HW282368   5.306   4.859   5.056  0.3952  0.7087 -0.7323
58504SOL     OW82369   9.204   3.794   7.011  0.2788  0.0273  0.4405
58504SOL    HW182370   9.174   3.752   7.091 -1.1213  0.3559  0.1264
58504SOL    HW282371   9.161   3.745   6.941  1.9284 -0.6157 -0.1714
58505SOL     OW82372   3.205   1.610   2.111  0.1508  0.1640 -0.1086
58505SOL    HW182373   3.128   1.667   2.107  0.1557  0.2060  0.3304
58505SOL    HW282374   3.189   1.544   2.044 -0.0485  0.4415 -0.3399
58506SOL     OW82375   7.797   6.541  10.367  0.0795  0.6160 -1.5870
58506SOL    HW182376   7.835   6.609  10.312  0.0811  0.8819 -1.2575
58506SOL    HW282377   7.703   6.543  10.347  0.0380  0.9087 -1.3693
58507SOL     OW82378   3.271  12.326   8.563 -0.0070  0.5226  0.0539
58507SOL    HW182379   3.312  12.352   8.645  1.1957 -1.4526  0.1708
58507SOL    HW282380   3.336  12.349   8.496 -0.6653  1.4570 -0.2761
58508SOL     OW82381   0.164   5.484   5.662 -0.1526 -0.0392 -0.0976
58508SOL    HW182382   0.190   5.571   5.630  0.6088 -0.9482 -2.0849
58508SOL    HW282383   0.211   5.423   5.605 -1.1339 -1.7640  0.8921
58509SOL     OW82384   9.168   6.947   9.850 -0.0197  0.3430 -0.3363
58509SOL    HW182385   9.241   6.886   9.843  0.9145  1.0385  2.2475
58509SOL    HW282386   9.183   7.012   9.782  0.7858 -0.4812 -0.9616
58510SOL     OW82387  10.147   3.635  11.563  0.0306  0.0154 -0.0774
58510SOL    HW182388  10.122   3.677  11.645  0.4343 -0.3607  0.2408
58510SOL    HW282389  10.065   3.598  11.529 -0.0463 -0.2822  0.4218
58511SOL     OW82390  10.999   3.054   3.620 -0.4435  0.5266  0.0351
58511SOL    HW182391  10.924   3.114   3.617  0.1558  1.4174  1.4355
58511SOL    HW282392  11.071   3.104   3.581 -0.6669 -0.5144 -1.7787
58512SOL     OW82393   4.513   2.560   8.055  0.0466  0.1510  0.5728
58512SOL    HW182394   4.471   2.564   7.969  2.2721  1.7350 -0.5732
58512SOL    HW282395   4.444   2.535   8.116 -1.9268  0.3484 -1.4797
58513SOL     OW82396   5.791  11.003   9.303 -0.1089 -0.0592  0.7095
58513SOL    HW182397   5.735  10.951   9.245 -3.2696  1.9484  1.7184
58513SOL    HW282398   5.824  11.074   9.247  2.9649 -2.0526 -0.2794
58514SOL     OW82399  11.403  10.051   3.752 -0.4345 -0.0537  0.4061
58514SOL    HW182400  11.324  10.062   3.699 -0.5331 -1.0847  0.3210
58514SOL    HW282401  11.458  10.126   3.730 -2.1748  1.7831  1.8951
58515SOL     OW82402   9.744   6.485   2.910 -0.0122 -0.3404 -0.1804
58515SOL    HW182403   9.777   6.570   2.941 -2.4824  1.6805 -2.6431
58515SOL    HW282404   9.812   6.453   2.851  0.5831  0.3184  0.1361
58516SOL     OW82405  10.696   3.869   4.223 -0.6141  0.8390  0.2174
58516SOL    HW182406  10.638   3.817   4.278  0.2490 -0.0446  0.3201
58516SOL    HW282407  10.696   3.956   4.264 -3.0553  1.3375 -0.6814
58517SOL     OW82408   4.182   6.485   1.759  0.5105 -0.1770 -0.0207
58517SOL    HW182409   4.243   6.558   1.771  3.1383 -2.0646 -0.8817
58517SOL    HW282410   4.097   6.526   1.749  1.3702  2.5852  2.5249
58518SOL     OW82411   7.823   8.992   4.078 -0.6826  0.6380 -0.3072
58518SOL    HW182412   7.736   8.968   4.045 -0.6126  0.1574 -0.1487
58518SOL    HW282413   7.879   8.918   4.054 -0.2091  1.1628 -0.8391
58519SOL     OW82414  11.524   6.142   6.785  0.2985 -0.1927  0.0103
58519SOL    HW182415  11.562   6.063   6.748  0.2501 -0.0103 -0.4322
58519SOL    HW282416  11.466   6.175   6.717 -0.0169 -0.0143  0.3601
58520SOL     OW82417   8.329  11.432   1.876  0.3904  0.6219  0.5137
58520SOL    HW182418   8.303  11.362   1.936 -0.1428  0.8407  0.5441
58520SOL    HW282419   8.417  11.409   1.849  0.3978  0.1874  0.8948
58521SOL     OW82420  11.815  10.276   2.562 -0.2519  0.7611  0.1732
58521SOL    HW182421  11.747  10.268   2.495 -0.5524  2.4832  0.2195
58521SOL    HW282422  11.770  10.316   2.637  0.2190 -0.5658  1.2158
58522SOL     OW82423   4.411   4.905   1.810 -0.5555 -0.2934 -0.1506
58522SOL    HW182424   4.325   4.892   1.770 -0.9194  0.0810  0.4814
58522SOL    HW282425   4.393   4.906   1.905  0.0987  0.0830 -0.0241
58523SOL     OW82426   4.762   6.804   7.498 -0.1496  0.1347 -0.1778
58523SOL    HW182427   4.670   6.809   7.475 -0.0816 -1.2769 -0.8401
58523SOL    HW282428   4.776   6.877   7.559 -1.5219  0.7917 -0.6216
58524SOL     OW82429  12.402   7.195   9.761 -0.2571  0.0717 -0.1167
58524SOL    HW182430  12.406   7.143   9.680 -0.1237 -1.2167  0.6799
58524SOL    HW282431  12.318   7.172   9.800 -0.8205  1.5339 -0.4054
58525SOL     OW82432   4.740   3.412   2.585  0.2772 -0.2748  0.6491
58525SOL    HW182433   4.658   3.429   2.539  0.1675 -1.4835  0.3760
58525SOL    HW282434   4.735   3.320   2.611  0.9694 -0.0092  1.8161
58526SOL     OW82435  11.362  12.396   2.708  0.0407  0.0472  0.3457
58526SOL    HW182436  11.386  12.347   2.786  1.1862  0.2091  0.1091
58526SOL    HW282437  11.308  12.469   2.740 -0.8837 -0.8194  0.7926
58527SOL     OW82438   8.202   0.432   0.251 -0.6908 -0.3134  0.3750
58527SOL    HW182439   8.195   0.437   0.346 -1.0290 -1.4380  0.4285
58527SOL    HW282440   8.126   0.479   0.218 -2.2764 -2.4429  0.7480
58528SOL     OW82441   8.319  11.787  11.182 -0.0642  0.8144  0.6093
58528SOL    HW182442   8.397  11.801  11.128  0.2888  0.9540  1.1486
58528SOL    HW282443   8.252  11.842  11.141  0.1134  0.6843  0.1347
58529SOL     OW82444   5.614   8.454  11.285  0.2369 -0.1127 -0.1598
58529SOL    HW182445   5.700   8.413  11.276  0.4913  0.5276 -0.7073
58529SOL    HW282446   5.579   8.418  11.366  0.6281 -1.1004 -0.4067
58530SOL     OW82447   3.589   9.863   5.581  0.7018 -0.1747  0.1119
58530SOL    HW182448   3.512   9.918   5.564 -0.2416 -1.5297 -0.1918
58530SOL    HW282449   3.557   9.796   5.641  1.6925 -0.6900  0.0743
58531SOL     OW82450   0.607   4.775   2.642 -0.1152 -0.8518  0.2128
58531SOL    HW182451   0.636   4.717   2.572 -1.8261 -2.6537  0.9053
58531SOL    HW282452   0.636   4.731   2.723 -0.5990 -0.2376  0.7301
58532SOL     OW82453   7.613  10.304   4.796 -0.9310 -0.4109 -0.6739
58532SOL    HW182454   7.663  10.277   4.718 -1.1210 -0.1343 -0.8962
58532SOL    HW282455   7.679  10.319   4.863 -0.4557  2.1086 -1.5797
58533SOL     OW82456   2.470   0.703   3.146  0.0624 -0.3893 -0.2254
58533SOL    HW182457   2.385   0.745   3.136 -0.4626 -1.2503  0.4665
58533SOL    HW282458   2.454   0.631   3.207  1.7287  0.6988  1.6010
58534SOL     OW82459  10.090   2.943   2.634  0.4817 -0.1172 -0.4797
58534SOL    HW182460  10.113   3.009   2.568 -0.4622  0.8188  0.0847
58534SOL    HW282461   9.996   2.929   2.622  0.2488  0.2383  0.7917
58535SOL     OW82462   0.807   6.618   6.700 -0.2841 -1.0345  0.0491
58535SOL    HW182463   0.807   6.714   6.700  0.1667 -1.0347 -0.6954
58535SOL    HW282464   0.725   6.595   6.655  0.8056 -0.9831 -2.0529
58536SOL     OW82465   8.893   7.297   6.335 -0.3268  0.2607  0.0904
58536SOL    HW182466   8.811   7.333   6.303 -0.5542 -0.2534  0.0889
58536SOL    HW282467   8.941   7.372   6.369  0.1347  0.9224 -1.8975
58537SOL     OW82468   0.247   2.582   7.086 -0.4098  1.1272 -0.0268
58537SOL    HW182469   0.223   2.492   7.064  1.0634  0.5286  0.6550
58537SOL    HW282470   0.202   2.600   7.168 -0.0881  0.7212  0.2422
58538SOL     OW82471   1.846  11.885   3.101 -0.6154 -0.6305 -0.3678
58538SOL    HW182472   1.752  11.895   3.117 -0.4436 -1.6519  1.6441
58538SOL    HW282473   1.862  11.791   3.109  0.6713 -0.4085 -0.0911
58539SOL     OW82474   0.268   4.730  11.253  0.1064 -0.0377 -0.2503
58539SOL    HW182475   0.294   4.804  11.198 -1.3889  0.5506 -0.2142
58539SOL    HW282476   0.228   4.770  11.330  0.1701 -0.8774  0.2335
58540SOL     OW82477   1.580   8.963   5.581  0.2019  0.1748  0.9017
58540SOL    HW182478   1.485   8.950   5.580  0.1664  0.4558 -0.4181
58540SOL    HW282479   1.592   9.052   5.614  0.0909 -0.3008  2.3120
58541SOL     OW82480   6.575   7.668   3.556  0.8086  0.7449  0.2449
58541SOL    HW182481   6.579   7.739   3.491 -0.2433  1.4461  0.9043
58541SOL    HW282482   6.484   7.637   3.551  1.1358 -0.2386  0.3049
58542SOL     OW82483   9.000   0.765   4.351 -0.2444 -0.5083 -0.2445
58542SOL    HW182484   9.040   0.732   4.432  0.9935  1.6879  0.1141
58542SOL    HW282485   8.923   0.813   4.381  0.6299  0.9526 -0.2310
58543SOL     OW82486   9.221   9.554   6.475 -0.2293 -0.7476 -0.3195
58543SOL    HW182487   9.172   9.566   6.394  0.4026  0.7591 -0.4938
58543SOL    HW282488   9.311   9.578   6.453 -0.0807 -0.1709  0.8596
58544SOL     OW82489   9.604   8.418   5.915 -0.2669 -0.5251 -0.6847
58544SOL    HW182490   9.521   8.433   5.962 -0.3401 -0.4252 -0.8439
58544SOL    HW282491   9.656   8.496   5.935  0.0627 -0.9115 -0.0114
58545SOL     OW82492   6.743   8.196   3.046 -0.6105 -0.0197  0.1212
58545SOL    HW182493   6.804   8.213   3.118 -0.4296  2.5670 -0.5056
58545SOL    HW282494   6.800   8.178   2.971 -0.6924 -0.1441  0.0907
58546SOL     OW82495   6.616   3.526   9.241  0.1148  0.0479 -0.0859
58546SOL    HW182496   6.636   3.540   9.334 -0.2244  1.4644 -0.2086
58546SOL    HW282497   6.544   3.463   9.242  1.5635 -1.6785  0.5083
58547SOL     OW82498   3.786   2.313   4.516  0.2603  0.0071 -0.0304
58547SOL    HW182499   3.720   2.247   4.540 -0.2543 -0.1890 -1.8174
58547SOL    HW282500   3.809   2.355   4.599  0.5043 -2.3133  1.1688
58548SOL     OW82501   8.270   4.217  12.341 -0.4099 -0.4159  0.3652
58548SOL    HW182502   8.363   4.213  12.359 -0.7742 -2.4836  2.2576
58548SOL    HW282503   8.249   4.310  12.340  1.4350  0.0479  1.2504
58549SOL     OW82504   2.685   3.840   9.647  0.3257 -0.5833 -0.7505
58549SOL    HW182505   2.632   3.763   9.663 -1.3046  0.2207 -1.9429
58549SOL    HW282506   2.766   3.825   9.695 -0.7970 -2.0670  0.7718
58550SOL     OW82507   0.855   2.154  10.969  0.1825  0.7191 -0.0570
58550SOL    HW182508   0.922   2.196  10.916  1.5498 -0.1233  0.9337
58550SOL    HW282509   0.879   2.174  11.059 -1.6351  1.4446  0.3259
58551SOL     OW82510   7.901   8.216   9.582  0.1283  0.4914  0.5442
58551SOL    HW182511   7.974   8.251   9.532  0.6006  0.3110  1.0898
58551SOL    HW282512   7.852   8.293   9.610  1.5029  0.8072  2.2508
58552SOL     OW82513   7.121   4.904   0.648  0.3103 -0.1677 -0.2377
58552SOL    HW182514   7.203   4.933   0.607 -0.0681  0.6731 -0.4051
58552SOL    HW282515   7.057   4.907   0.578 -0.2827  1.0133  0.3376
58553SOL     OW82516   7.666  10.598   8.154  0.2014  0.4321  0.3411
58553SOL    HW182517   7.760  10.591   8.140  0.4755  1.9647  1.1826
58553SOL    HW282518   7.656  10.670   8.216 -1.4839 -0.2391  0.9297
58554SOL     OW82519   0.733   2.721   1.474  0.2111  0.8758  0.2780
58554SOL    HW182520   0.719   2.665   1.550  1.0764  0.5352  0.2042
58554SOL    HW282521   0.817   2.691   1.437  1.5191  3.1831  1.1273
58555SOL     OW82522   7.099   0.807   4.492  0.1281  0.4296 -0.4009
58555SOL    HW182523   7.152   0.883   4.470 -2.7230  2.7790  0.1965
58555SOL    HW282524   7.050   0.789   4.412 -0.0739 -0.0173 -0.1793
58556SOL     OW82525   5.955   4.188   3.909 -0.1909 -0.0069  0.5990
58556SOL    HW182526   5.921   4.274   3.935  2.5182  0.4956  3.0379
58556SOL    HW282527   5.878   4.141   3.876 -2.1452  2.6745  0.9352
58557SOL     OW82528   1.398  12.204  10.815 -0.8448  0.2473 -0.3767
58557SOL    HW182529   1.448  12.228  10.893  1.8927 -0.3648 -1.8613
58557SOL    HW282530   1.443  12.128  10.779 -1.6037  0.9344 -2.9475
58558SOL     OW82531  12.246   0.999   3.522  0.2923 -0.2753  0.0936
58558SOL    HW182532  12.243   1.077   3.578 -2.2384  0.6911 -1.2044
58558SOL    HW282533  12.296   1.027   3.445  0.2784 -0.2608  0.0896
58559SOL     OW82534   3.972   6.332   9.771  0.2124  0.5075 -0.8944
58559SOL    HW182535   3.986   6.411   9.822  0.0359  0.4113 -0.7000
58559SOL    HW282536   3.977   6.361   9.680 -2.3070  1.2003 -0.8830
58560SOL     OW82537   0.661   7.494   1.324  0.0467  0.4013  0.8704
58560SOL    HW182538   0.633   7.472   1.235 -0.6608  1.4865  0.8055
58560SOL    HW282539   0.604   7.566   1.350 -0.2026 -0.3365  2.4666
58561SOL     OW82540   2.088   5.167  11.256 -0.2264 -0.2020 -0.0467
58561SOL    HW182541   2.146   5.226  11.305  0.7135 -0.5978 -0.6382
58561SOL    HW282542   2.066   5.098  11.319  0.1022 -0.1426  0.1413
58562SOL     OW82543   1.766  11.263  10.161  0.7519  0.5354  0.0146
58562SOL    HW182544   1.781  11.355  10.140  0.6290  0.2012 -1.6686
58562SOL    HW282545   1.691  11.237  10.108 -0.7606  0.0336  2.2240
58563SOL     OW82546   9.906  10.823   4.855 -0.5895  0.2599  0.3167
58563SOL    HW182547   9.965  10.861   4.920 -1.4159  0.0935  1.1812
58563SOL    HW282548   9.964  10.791   4.786  0.2243  1.7178  0.2796
58564SOL     OW82549   5.904  12.298   8.824  0.5805  0.2202 -0.2134
58564SOL    HW182550   5.868  12.330   8.741 -0.8331  0.9738  0.6579
58564SOL    HW282551   5.865  12.355   8.890 -0.2363 -1.8980  1.2175
58565SOL     OW82552   4.555  10.032   1.068 -0.2488  0.1820 -0.1508
58565SOL    HW182553   4.473   9.983   1.056  0.3381 -0.8842  0.0072
58565SOL    HW282554   4.606  10.013   0.989  0.1491  0.2036  0.0990
58566SOL     OW82555   5.803   3.036   9.351 -0.2691 -0.2045  0.0980
58566SOL    HW182556   5.776   2.994   9.269 -2.0772 -1.4614  1.2611
58566SOL    HW282557   5.724   3.080   9.382  0.6340  0.9948  0.7457
58567SOL     OW82558   9.401  10.722   7.164 -0.0968  1.0488  0.3460
58567SOL    HW182559   9.371  10.648   7.112  0.4387 -0.2660  1.8104
58567SOL    HW282560   9.349  10.796   7.133 -2.1891 -0.3622  0.2318
58568SOL     OW82561  10.579   7.115   5.410 -0.0533  0.3954 -0.1127
58568SOL    HW182562  10.560   7.024   5.430  1.8973 -0.0699 -0.2271
58568SOL    HW282563  10.510   7.141   5.349 -0.4572 -1.0952 -0.3236
58569SOL     OW82564   2.524   3.809  12.481  0.4749  0.3152  0.4880
58569SOL    HW182565   2.441   3.770  12.456  0.4172  1.4263 -1.2225
58569SOL    HW282566   2.573   3.817  12.399  2.0911  0.1232  1.3867
58570SOL     OW82567  10.671   3.664   4.735 -0.3117 -0.4905 -0.4830
58570SOL    HW182568  10.748   3.678   4.791 -0.1394 -0.6158 -0.6902
58570SOL    HW282569  10.698   3.693   4.649 -0.3003 -1.0975 -0.6875
58571SOL     OW82570   1.178   6.733  10.039  0.5002  0.1164 -0.1952
58571SOL    HW182571   1.127   6.777   9.970 -0.0209  2.1505  1.3880
58571SOL    HW282572   1.269   6.747  10.014  0.3280  1.3906 -0.1632
58572SOL     OW82573   9.024   5.217   4.765  0.0488 -0.4302  0.3528
58572SOL    HW182574   9.082   5.290   4.744 -0.1463 -0.0100  1.2417
58572SOL    HW282575   9.028   5.161   4.687 -1.4776  1.5900 -1.3254
58573SOL     OW82576   3.311   1.139   5.863 -0.2700  0.5213 -0.0086
58573SOL    HW182577   3.223   1.154   5.898 -1.6158 -0.0339 -2.8657
58573SOL    HW282578   3.360   1.102   5.936 -2.2763  1.2041  1.7919
58574SOL     OW82579   5.644   3.764   6.663 -0.5012  0.3142  0.3329
58574SOL    HW182580   5.638   3.833   6.729 -0.2625 -0.1803  0.8809
58574SOL    HW282581   5.693   3.804   6.591 -3.1157  1.7732 -0.7708
58575SOL     OW82582   6.749  12.164   1.587  0.0783  0.8455  0.3914
58575SOL    HW182583   6.729  12.120   1.669 -1.1181 -1.5423 -1.0536
58575SOL    HW282584   6.673  12.145   1.531  1.0024  2.0653 -1.3752
58576SOL     OW82585   3.393   6.717   5.512 -0.2529 -0.7333  0.2758
58576SOL    HW182586   3.299   6.723   5.495 -0.3689 -0.7820  0.8754
58576SOL    HW282587   3.400   6.715   5.608  0.3876 -0.2138  0.2483
58577SOL     OW82588   0.220  10.414   0.686 -0.0045 -0.1050 -0.4963
58577SOL    HW182589   0.282  10.482   0.710 -0.9642  0.6412 -0.0985
58577SOL    HW282590   0.271  10.352   0.633  1.2856  0.0302  0.5545
58578SOL     OW82591   1.970   8.312  12.356 -0.1583  0.2053 -0.3032
58578SOL    HW182592   1.911   8.386  12.344 -3.2700 -2.1007 -0.6065
58578SOL    HW282593   2.003   8.321  12.445  1.1097  2.8734 -0.9484
58579SOL     OW82594   2.182   2.069  10.129  0.1210  0.0118  0.0565
58579SOL    HW182595   2.105   2.039  10.080  0.1490 -0.2831  0.1869
58579SOL    HW282596   2.145   2.114  10.205  0.0339 -1.7663  1.1338
58580SOL     OW82597   6.176   8.128  12.426  0.2017  0.0450 -0.2550
58580SOL    HW182598   6.241   8.197  12.430  0.9585 -0.6931  0.5355
58580SOL    HW282599   6.126   8.147  12.346  1.1606  0.8115 -0.6933
58581SOL     OW82600  11.209   8.764   9.430  0.1048  0.1285  1.0059
58581SOL    HW182601  11.298   8.737   9.406  0.1782  1.2618 -0.0523
58581SOL    HW282602  11.155   8.688   9.408  0.2220  0.9111 -2.5381
58582SOL     OW82603  10.443   5.283   3.155  0.6083 -0.0356  0.4016
58582SOL    HW182604  10.394   5.207   3.186 -3.0004  0.7191 -2.5834
58582SOL    HW282605  10.416   5.355   3.212 -1.0304  0.1120 -0.4711
58583SOL     OW82606   3.123  11.762   7.654 -0.1411  0.1870 -0.0604
58583SOL    HW182607   3.197  11.798   7.703  0.3777 -0.9354  0.0163
58583SOL    HW282608   3.163  11.702   7.591 -0.9333  0.1897 -0.5833
58584SOL     OW82609   5.822   2.408  11.646  0.2946 -0.0949  0.0491
58584SOL    HW182610   5.822   2.484  11.705  1.2910  0.4925 -0.6515
58584SOL    HW282611   5.889   2.350  11.682 -1.7818 -1.6169  1.6941
58585SOL     OW82612   0.799   0.078   9.962  0.5578 -0.5248 -0.1283
58585SOL    HW182613   0.736   0.037  10.021  1.5672 -0.3991  1.0651
58585SOL    HW282614   0.789   0.030   9.880 -0.5775 -0.9753  0.2551
58586SOL     OW82615   1.602   9.398   3.424  0.5857 -0.7948 -0.5526
58586SOL    HW182616   1.646   9.345   3.358  0.8345  0.4846 -1.4606
58586SOL    HW282617   1.541   9.453   3.374 -0.7756 -1.2756  0.5000
58587SOL     OW82618   9.926   9.562   7.924 -0.1471  0.4309  0.4813
58587SOL    HW182619   9.957   9.540   8.012 -2.8369 -0.6729  1.2711
58587SOL    HW282620   9.905   9.655   7.928  2.2589  1.0481  0.1086
58588SOL     OW82621   1.045  10.568   1.370 -0.0394 -0.8712  0.1229
58588SOL    HW182622   0.986  10.547   1.443  0.6682 -1.0697  0.6452
58588SOL    HW282623   1.132  10.549   1.404  0.4380  0.6589 -0.2084
58589SOL     OW82624   9.199   5.993   0.270 -0.0454  0.0513  0.6888
58589SOL    HW182625   9.253   6.040   0.334  0.3584  0.3807  0.1142
58589SOL    HW282626   9.188   6.054   0.198 -3.8384  1.2493  2.0523
58590SOL     OW82627   0.462   2.601   8.866 -0.2286 -0.1674 -0.0488
58590SOL    HW182628   0.390   2.542   8.887 -1.6334  0.6995 -2.1075
58590SOL    HW282629   0.483   2.644   8.949 -1.7648 -0.7817  0.6968
58591SOL     OW82630   0.031   2.793   0.287  0.2703  0.3491  0.3578
58591SOL    HW182631  -0.004   2.854   0.352  0.2905  1.1714 -0.3778
58591SOL    HW282632   0.073   2.850   0.221 -0.6434 -0.3836 -0.9096
58592SOL     OW82633  10.058   7.692  10.840 -0.1177  0.4020  0.0383
58592SOL    HW182634  10.076   7.742  10.920  0.0837  0.2956  0.0579
58592SOL    HW282635   9.970   7.656  10.855 -0.7145  1.6011 -0.4113
58593SOL     OW82636   7.827   9.884   3.762 -0.0029  0.4469  0.0564
58593SOL    HW182637   7.771   9.910   3.689  0.2126  2.8348  0.6745
58593SOL    HW282638   7.911   9.863   3.721  0.3649  2.5469 -0.3864
58594SOL     OW82639   1.905   5.466   5.230  0.1353  0.0728  0.5565
58594SOL    HW182640   1.892   5.498   5.140  2.9652 -2.2580 -0.8371
58594SOL    HW282641   1.869   5.377   5.229  1.7699 -0.6280  1.1620
58595SOL     OW82642   6.728  10.583   7.836 -1.0403 -0.0484 -0.0720
58595SOL    HW182643   6.762  10.599   7.748 -0.2539  1.0887  0.4190
58595SOL    HW282644   6.633  10.583   7.825 -0.9512  0.0904 -0.9188
58596SOL     OW82645   6.661   4.756   7.473 -0.1368 -0.2754 -0.1735
58596SOL    HW182646   6.629   4.827   7.529 -0.4140  1.3904 -2.2600
58596SOL    HW282647   6.635   4.676   7.518 -2.4495  0.9587  0.9136
58597SOL     OW82648  11.016   1.908   1.851  0.0217  0.1061  0.4353
58597SOL    HW182649  10.977   1.981   1.899  0.3728  2.2687 -2.3196
58597SOL    HW282650  11.042   1.945   1.767  0.8209 -3.0916 -0.8944
58598SOL     OW82651  11.694   8.327   7.760 -0.2413  0.1266 -0.1789
58598SOL    HW182652  11.746   8.385   7.816  0.6668 -1.4576  0.7017
58598SOL    HW282653  11.750   8.309   7.685  0.3206 -1.1608  0.5158
58599SOL     OW82654   5.090   6.300   4.227  0.3527 -0.2799  0.1051
58599SOL    HW182655   5.066   6.313   4.318 -2.3023 -0.9171 -0.4421
58599SOL    HW282656   5.173   6.347   4.218  0.6476 -0.1047  2.7800
58600SOL     OW82657   3.130   4.793   6.840 -0.2430 -0.0928  0.3790
58600SOL    HW182658   3.099   4.842   6.917  0.1001  0.3085  0.2646
58600SOL    HW282659   3.223   4.816   6.833 -0.5572  0.9237 -0.9280
58601SOL     OW82660   8.441  12.128   2.495  0.1140 -0.0032 -0.2446
58601SOL    HW182661   8.418  12.218   2.470  0.8078  0.6054  1.1913
58601SOL    HW282662   8.488  12.094   2.419 -0.2920  0.7913 -0.8686
58602SOL     OW82663   8.125   4.256   3.155 -0.1047 -0.0794 -0.0923
58602SOL    HW182664   8.156   4.300   3.075 -1.4825  0.1509 -0.5210
58602SOL    HW282665   8.110   4.327   3.217 -0.9405 -0.0710 -0.2995
58603SOL     OW82666   2.769   6.704   9.957  0.0391 -0.0355 -0.0157
58603SOL    HW182667   2.777   6.728   9.864  0.1701 -0.2533 -0.0602
58603SOL    HW282668   2.753   6.610   9.956 -1.0268  0.1306  0.1379
58604SOL     OW82669   9.113   5.090  11.743  0.2811  0.1308 -0.3268
58604SOL    HW182670   9.158   5.171  11.768  1.4316 -0.2474 -1.0889
58604SOL    HW282671   9.102   5.097  11.649  1.2695 -1.0087 -0.5485
58605SOL     OW82672   2.222   1.187   8.868 -0.9919 -0.0242 -0.6034
58605SOL    HW182673   2.289   1.148   8.812  0.6558  0.3290  1.0137
58605SOL    HW282674   2.249   1.278   8.877 -0.8904 -0.1846  1.1109
58606SOL     OW82675   1.481   0.949   2.521  0.1960  0.1953  0.0554
58606SOL    HW182676   1.562   0.995   2.542 -0.3136  0.6534  1.1029
58606SOL    HW282677   1.450   0.915   2.605  1.2212 -3.2711 -0.8026
58607SOL     OW82678   1.421   9.122   7.495  0.1777 -0.3377  0.4795
58607SOL    HW182679   1.356   9.178   7.453  0.2371 -0.8647 -0.3513
58607SOL    HW282680   1.377   9.090   7.574 -0.4411 -0.3903  0.1239
58608SOL     OW82681   7.184   6.902   5.138  0.5975  0.7422 -0.4223
58608SOL    HW182682   7.235   6.863   5.210  2.3113 -1.1596 -2.5427
58608SOL    HW282683   7.241   6.972   5.105  0.6669  0.3676 -1.1048
58609SOL     OW82684   8.770  10.282   8.830 -0.1806  0.2673 -0.8220
58609SOL    HW182685   8.860  10.271   8.798  1.2019  2.2506  1.9147
58609SOL    HW282686   8.759  10.211   8.893  0.5130  1.4178  0.6801
58610SOL     OW82687   9.161  11.355  11.096  0.3520  0.4070  0.4059
58610SOL    HW182688   9.076  11.371  11.054 -0.1967 -3.0016 -0.0925
58610SOL    HW282689   9.139  11.333  11.187  1.0281  2.3211  1.0668
58611SOL     OW82690   8.413   4.166   2.981  0.2752  0.0820 -0.5596
58611SOL    HW182691   8.467   4.231   2.937  0.2517  0.3128 -0.2485
58611SOL    HW282692   8.381   4.210   3.059  3.2432 -1.4269  1.6866
58612SOL     OW82693  11.205   1.640   1.644  0.1343  0.8478  0.0211
58612SOL    HW182694  11.252   1.588   1.709 -1.0407  1.4983  1.4571
58612SOL    HW282695  11.270   1.703   1.612  0.7754  0.4297  0.4656
58613SOL     OW82696   3.973   7.490   6.236  0.7219 -0.1616 -0.7217
58613SOL    HW182697   3.903   7.428   6.254  1.3375 -0.7418 -0.2390
58613SOL    HW282698   4.048   7.457   6.286  0.2369  2.7039  2.1968
58614SOL     OW82699   5.374   3.931  11.191  0.3016 -0.2101  0.5606
58614SOL    HW182700   5.305   3.973  11.244  0.7193  0.1423  0.8359
58614SOL    HW282701   5.340   3.933  11.102 -0.5517 -1.1011  0.8469
58615SOL     OW82702   9.916   3.029   8.750  0.0203  0.0897  0.3979
58615SOL    HW182703   9.843   3.085   8.775  0.7613  0.6300  1.4270
58615SOL    HW282704   9.975   3.032   8.825 -0.4085 -2.9504  0.9911
58616SOL     OW82705   0.301   5.820   5.806 -0.7180 -0.1463 -0.3369
58616SOL    HW182706   0.347   5.815   5.889  0.3765 -2.2503 -1.0082
58616SOL    HW282707   0.347   5.890   5.758  2.3306 -2.5096 -1.1872
58617SOL     OW82708  10.307   5.160   7.391  0.2794  0.3678  0.6054
58617SOL    HW182709  10.289   5.067   7.378 -0.5837  0.5453  0.4952
58617SOL    HW282710  10.399   5.171   7.364 -0.4874  0.1319 -2.4177
58618SOL     OW82711   2.023  11.566   7.361 -0.1309 -0.0325 -0.0077
58618SOL    HW182712   2.105  11.609   7.334 -1.1360  2.3752  0.5375
58618SOL    HW282713   2.050  11.477   7.384  2.1236  0.3126 -0.9817
58619SOL     OW82714   0.666  10.818   1.406  0.0382 -0.3007 -0.7201
58619SOL    HW182715   0.758  10.807   1.384  0.6366  2.1463  0.2713
58619SOL    HW282716   0.645  10.739   1.456  2.4809  0.3424  1.5792
58620SOL     OW82717   9.813   6.136   3.506  0.1823  0.2981 -0.5346
58620SOL    HW182718   9.743   6.096   3.455 -0.3166  0.1532  0.2517
58620SOL    HW282719   9.800   6.103   3.595  0.6507  1.0495 -0.1781
58621SOL     OW82720   0.774   1.730  10.962 -0.1131  0.2614 -0.3235
58621SOL    HW182721   0.714   1.660  10.933 -0.1457  0.5529 -0.9862
58621SOL    HW282722   0.861   1.695  10.943  0.0108 -0.6632  1.7595
58622SOL     OW82723   0.651   2.575   4.725 -0.0652  0.1040  0.5605
58622SOL    HW182724   0.670   2.485   4.752  0.1445  0.5703  2.0940
58622SOL    HW282725   0.585   2.604   4.788  1.9864  1.9563  2.0094
58623SOL     OW82726   5.164   8.767   8.286  0.3232  0.4282 -0.3053
58623SOL    HW182727   5.172   8.862   8.300 -1.5838  0.4460  1.0145
58623SOL    HW282728   5.220   8.728   8.354 -0.8051  0.6281  0.7808
58624SOL     OW82729   2.506   6.256   8.262 -0.3089 -0.0290  0.7341
58624SOL    HW182730   2.455   6.336   8.269  0.2043  0.3434  0.3000
58624SOL    HW282731   2.472   6.213   8.184 -0.6438 -0.2773  1.0160
58625SOL     OW82732   2.146   8.874  11.644  0.0093 -0.0039  0.2057
58625SOL    HW182733   2.219   8.907  11.697  1.2483 -0.0453 -1.3831
58625SOL    HW282734   2.152   8.779  11.651  1.0176 -0.0628 -1.0015
58626SOL     OW82735   5.421  10.203   8.866  1.2191  0.0802 -0.2376
58626SOL    HW182736   5.388  10.114   8.857  1.4107 -0.1433  1.1136
58626SOL    HW282737   5.346  10.254   8.895  1.4215  0.0945  0.2668
58627SOL     OW82738   1.838   9.898  10.791 -0.0092 -0.1794  0.3086
58627SOL    HW182739   1.802   9.951  10.720  1.7266  0.5573 -0.0732
58627SOL    HW282740   1.783   9.919  10.867 -0.4372  0.8167 -0.2593
58628SOL     OW82741   1.147   3.730   7.847  0.2165  0.2477 -0.0487
58628SOL    HW182742   1.058   3.708   7.819 -0.6421  0.8774  1.9668
58628SOL    HW282743   1.168   3.663   7.912  1.0935  0.2952 -0.2743
58629SOL     OW82744   6.807   4.684   9.054  0.4032 -0.6362  0.0783
58629SOL    HW182745   6.810   4.698   9.148 -0.4776 -2.6655  0.4609
58629SOL    HW282746   6.814   4.771   9.016  0.4874  0.2409  2.0239
58630SOL     OW82747  11.273   4.260   0.615  0.0373  0.4316 -0.0436
58630SOL    HW182748  11.254   4.203   0.689  0.4778 -1.6285 -1.4357
58630SOL    HW282749  11.356   4.226   0.580 -0.1305  1.3994 -1.4425
58631SOL     OW82750  10.964   1.678   1.729  0.0016 -0.1179  0.0487
58631SOL    HW182751  10.979   1.762   1.772 -2.0489  0.0706  0.4758
58631SOL    HW282752  11.049   1.656   1.690  1.0396  1.3036  1.3709
58632SOL     OW82753   9.035   1.337  12.476  0.3522 -0.4584  0.5110
58632SOL    HW182754   8.957   1.332  12.531 -0.8855  1.2153 -1.0060
58632SOL    HW282755   9.047   1.431  12.460  1.8645 -0.7818 -0.4330
58633SOL     OW82756  12.506   5.325   4.341 -0.0664  0.2938  0.2639
58633SOL    HW182757  12.528   5.233   4.325 -0.2358 -0.0461  1.8252
58633SOL    HW282758  12.584   5.373   4.317  0.1860 -0.3087 -0.1400
58634SOL     OW82759   9.344   8.325   9.691 -0.4713 -0.1311 -0.6486
58634SOL    HW182760   9.281   8.322   9.763 -1.1011  0.8709 -1.1382
58634SOL    HW282761   9.383   8.412   9.697  3.0304 -1.6237  1.4113
58635SOL     OW82762   3.121   0.556   5.449  0.1976  0.4483  0.1935
58635SOL    HW182763   3.089   0.637   5.409  0.5075 -0.1624 -1.3690
58635SOL    HW282764   3.044   0.501   5.459  0.3242 -0.0094 -1.1172
58636SOL     OW82765  11.742   2.609  12.550 -0.9065  0.4954 -0.1602
58636SOL    HW182766  11.821   2.557  12.565 -1.1640  0.4065  1.0167
58636SOL    HW282767  11.773   2.689  12.508 -0.0097  0.9394  1.2473
58637SOL     OW82768  10.735   5.612  12.575 -0.0944 -0.4438 -0.2620
58637SOL    HW182769  10.739   5.521  12.546  1.3070 -0.3262 -0.5226
58637SOL    HW282770  10.735   5.663  12.494  1.6367 -0.1710 -0.1246
58638SOL     OW82771   6.009   2.111   3.339 -1.0574 -0.3290  0.1630
58638SOL    HW182772   6.056   2.088   3.419 -0.3697 -2.7582 -0.8300
58638SOL    HW282773   5.935   2.050   3.336 -0.2500 -1.3261 -1.7072
58639SOL     OW82774   0.300   2.693   2.128  0.1112 -1.1645 -0.3562
58639SOL    HW182775   0.392   2.667   2.120  0.8026  0.1687  2.3027
58639SOL    HW282776   0.268   2.694   2.037  2.7926 -1.2851 -1.4026
58640SOL     OW82777   8.034   4.231  11.335  0.4456  0.1360 -0.1649
58640SOL    HW182778   8.031   4.243  11.430  1.1118  0.6332 -0.2032
58640SOL    HW282779   7.992   4.146  11.321  2.0613 -0.8710  0.7631
58641SOL     OW82780   9.296   7.684   7.917  0.1026  0.0885 -0.7009
58641SOL    HW182781   9.379   7.721   7.950  0.8225 -1.8506 -0.1995
58641SOL    HW282782   9.310   7.590   7.918 -1.5704 -0.2252 -2.1704
58642SOL     OW82783   9.340  11.226   8.133 -0.4025  0.6512 -0.2435
58642SOL    HW182784   9.333  11.321   8.129 -1.4511  0.5405 -1.4041
58642SOL    HW282785   9.428  11.210   8.168  0.0697  2.0351 -0.7399
58643SOL     OW82786   5.108   1.914   6.927  0.4855  0.3182 -0.7676
58643SOL    HW182787   5.042   1.947   6.865 -1.5225  1.2324  1.7052
58643SOL    HW282788   5.130   1.989   6.981  1.4609 -0.6673  0.2421
58644SOL     OW82789   2.848   4.894   6.823  0.1078  0.3437  0.5652
58644SOL    HW182790   2.770   4.895   6.769  1.3451  0.7839 -1.3293
58644SOL    HW282791   2.819   4.861   6.908 -1.9094 -0.4071 -0.3631
58645SOL     OW82792   9.315   2.193   3.253 -0.2259 -0.3123  0.4341
58645SOL    HW182793   9.398   2.227   3.220 -2.0494  4.2536 -0.2405
58645SOL    HW282794   9.268   2.165   3.175 -0.8493  1.2320  0.2139
58646SOL     OW82795   9.445   1.623   5.761 -0.1683  0.2294  0.0464
58646SOL    HW182796   9.385   1.649   5.691  1.7322 -0.8692 -2.1255
58646SOL    HW282797   9.471   1.706   5.802 -1.5196  0.8852 -0.3558
58647SOL     OW82798   4.756  10.969  11.072 -0.3334 -0.5771  0.3952
58647SOL    HW182799   4.683  10.953  11.132 -1.2880  0.4200 -0.4650
58647SOL    HW282800   4.728  10.929  10.989 -0.3515  0.6565 -0.2094
58648SOL     OW82801   7.715   2.287   6.591 -0.2075  0.4626 -0.4491
58648SOL    HW182802   7.642   2.349   6.601  0.3720  1.0784  0.0903
58648SOL    HW282803   7.731   2.284   6.497 -1.4513 -0.3130 -0.6585
58649SOL     OW82804   1.262   2.252   0.234  0.0809  0.1988 -0.1195
58649SOL    HW182805   1.331   2.192   0.262  0.9888  0.1382 -2.3097
58649SOL    HW282806   1.180   2.204   0.248  0.5049 -0.1182  1.5313
58650SOL     OW82807   1.315   7.365   0.028 -0.1440  0.8032  0.6418
58650SOL    HW182808   1.347   7.381  -0.060  1.6794 -1.1262  0.8666
58650SOL    HW282809   1.220   7.365   0.020 -0.0860  2.9495 -0.8378
58651SOL     OW82810   1.550  12.536   3.504  0.1432 -0.0130 -0.4476
58651SOL    HW182811   1.520  12.538   3.414 -1.8297 -1.0515  0.1247
58651SOL    HW282812   1.536  12.445   3.533 -0.2889  0.5306  1.1956
58652SOL     OW82813   5.691  11.036   7.624 -0.6146  0.0771  0.9677
58652SOL    HW182814   5.708  11.106   7.561  2.3357 -1.0752  0.2993
58652SOL    HW282815   5.664  10.961   7.570 -4.2923  0.6604  1.7100
58653SOL     OW82816   2.114   4.929  11.420  0.1688  0.0219  0.1550
58653SOL    HW182817   2.174   4.856  11.436 -0.7447 -0.9567 -0.7364
58653SOL    HW282818   2.029   4.888  11.407 -0.1980  1.1679 -1.3233
58654SOL     OW82819  12.487  11.890  11.134  0.3729  0.3569 -0.3505
58654SOL    HW182820  12.546  11.879  11.208  0.7705 -0.3445 -0.7602
58654SOL    HW282821  12.407  11.843  11.159  1.1903 -1.4906 -1.1152
58655SOL     OW82822  12.184   7.087  11.806  0.5807 -0.1951  0.0820
58655SOL    HW182823  12.160   7.175  11.837  1.1639 -0.1025  0.2924
58655SOL    HW282824  12.105   7.035  11.817 -0.6585  0.9270 -2.5915
58656SOL     OW82825   0.208   6.853   8.644  0.8698 -0.1785 -0.0407
58656SOL    HW182826   0.140   6.869   8.710  0.6682 -0.4036 -0.1957
58656SOL    HW282827   0.198   6.924   8.581  0.2476 -0.6742 -0.5030
58657SOL     OW82828   5.417  11.219   6.705 -0.8084 -0.1186  0.6377
58657SOL    HW182829   5.499  11.185   6.670 -1.3256  0.2018 -0.9465
58657SOL    HW282830   5.432  11.313   6.718 -1.9701  0.7802 -3.2481
58658SOL     OW82831   6.525   9.848   8.879 -0.5942 -0.1707 -0.1939
58658SOL    HW182832   6.518   9.824   8.787 -1.5747  0.3541 -0.2707
58658SOL    HW282833   6.555   9.939   8.879  1.1680 -0.7090  0.0615
58659SOL     OW82834   4.275   3.948  11.208 -0.2126 -0.1878 -0.2244
58659SOL    HW182835   4.275   3.946  11.112  0.7257  0.9546 -0.2686
58659SOL    HW282836   4.227   3.869  11.233  1.1326 -1.5106 -1.6061
58660SOL     OW82837   4.102   7.211   3.050  0.2170 -0.2657 -0.2430
58660SOL    HW182838   4.160   7.284   3.066  0.1586 -0.1467 -0.5561
58660SOL    HW282839   4.160   7.138   3.029  0.2523  0.2795 -2.3348
58661SOL     OW82840   4.516   2.212   0.307 -0.4549  0.4826 -0.9004
58661SOL    HW182841   4.502   2.252   0.393  0.7054 -0.5758 -0.1894
58661SOL    HW282842   4.500   2.283   0.245 -0.1122  1.5891  0.2466
58662SOL     OW82843  10.309  10.113   7.153  0.0440 -0.6078  0.2318
58662SOL    HW182844  10.356  10.033   7.175 -2.1361 -2.1645 -0.4060
58662SOL    HW282845  10.301  10.112   7.058  0.4923  0.7146  0.1503
58663SOL     OW82846   3.770   6.447   8.841  0.4397 -0.5187 -0.5700
58663SOL    HW182847   3.710   6.522   8.842 -0.0430 -0.8832 -1.6224
58663SOL    HW282848   3.802   6.442   8.751  1.1037 -1.0929 -0.3186
58664SOL     OW82849  10.626   2.191   2.636 -0.7381  0.0553  0.5189
58664SOL    HW182850  10.548   2.147   2.670 -0.4449 -0.3501  0.6730
58664SOL    HW282851  10.669   2.227   2.714  0.1016 -1.1467  0.6332
58665SOL     OW82852   7.156  10.995  11.747  0.2598  0.1304 -0.2553
58665SOL    HW182853   7.098  11.064  11.777  0.1979 -0.1537  0.2814
58665SOL    HW282854   7.243  11.034  11.749  0.0298  0.7746 -1.7069
58666SOL     OW82855   0.755   2.533   2.273 -0.4476  0.3127 -0.5093
58666SOL    HW182856   0.778   2.562   2.362  0.4553 -1.3945 -0.1296
58666SOL    HW282857   0.773   2.609   2.218  3.4413  0.1265  0.1863
58667SOL     OW82858   4.021   0.857   9.627 -0.4812  0.1613  0.4224
58667SOL    HW182859   4.053   0.924   9.567 -1.1259  0.5438  0.5034
58667SOL    HW282860   3.930   0.881   9.646 -1.3995 -1.7812 -1.0734
58668SOL     OW82861   6.470  11.592   2.850 -0.3055  0.3830  0.0742
58668SOL    HW182862   6.551  11.545   2.828 -1.7474 -3.0224  1.2950
58668SOL    HW282863   6.408  11.563   2.784 -0.8179  2.2066 -0.2821
58669SOL     OW82864   0.871   0.106   3.076 -0.3300 -0.4171 -0.2261
58669SOL    HW182865   0.886   0.037   3.011 -1.4831  0.4110 -1.4311
58669SOL    HW282866   0.775   0.112   3.082 -0.2485  0.7715  0.1621
58670SOL     OW82867   8.560   2.025   9.285  0.7309  0.5418 -0.2762
58670SOL    HW182868   8.487   2.030   9.224  0.8166 -0.3464 -0.4683
58670SOL    HW282869   8.534   2.079   9.359  0.1470  0.7237 -0.6086
58671SOL     OW82870   1.288   3.721   4.061  0.6205  0.1762 -0.2414
58671SOL    HW182871   1.321   3.751   3.976 -1.3299  1.1668 -0.7187
58671SOL    HW282872   1.222   3.786   4.084 -1.2752 -1.8904  0.4181
58672SOL     OW82873   1.317   8.980   6.376 -0.4328 -0.5472  0.7008
58672SOL    HW182874   1.355   9.054   6.327  0.5810 -2.7533 -2.1877
58672SOL    HW282875   1.374   8.970   6.452  1.9372 -0.7109 -0.9605
58673SOL     OW82876  11.501   3.747   5.164 -0.0883 -0.3007  0.1295
58673SOL    HW182877  11.471   3.731   5.253 -2.3819  1.2561 -0.2653
58673SOL    HW282878  11.565   3.817   5.171 -2.0849  1.6022  0.4300
58674SOL     OW82879   3.006   4.513   2.229  0.4004 -0.1302 -0.1973
58674SOL    HW182880   3.048   4.587   2.272 -0.0706  0.3364 -0.5209
58674SOL    HW282881   2.950   4.475   2.297  2.1342 -1.4434  0.5745
58675SOL     OW82882   4.687   3.671  12.394  0.3769  0.5759  0.3413
58675SOL    HW182883   4.693   3.684  12.300  0.9421 -0.9936  0.1387
58675SOL    HW282884   4.720   3.582  12.409 -0.6068  0.4344  1.9058
58676SOL     OW82885   7.729   7.122   4.807  0.0618  0.1246 -0.4124
58676SOL    HW182886   7.801   7.091   4.753  0.4727  0.4208 -0.0350
58676SOL    HW282887   7.763   7.124   4.896 -1.1781 -2.1540  0.1949
58677SOL     OW82888   0.651   1.430  10.062 -0.0964 -0.0960 -0.2364
58677SOL    HW182889   0.607   1.347  10.078 -1.7420  0.9285  0.8343
58677SOL    HW282890   0.595   1.476   9.999  0.2106  0.6411  0.0126
58678SOL     OW82891   4.293   5.594   2.330 -0.4566  0.1239 -0.1613
58678SOL    HW182892   4.316   5.613   2.239  0.6161 -1.6306 -0.2867
58678SOL    HW282893   4.255   5.506   2.328 -0.3066  0.0106  1.1068
58679SOL     OW82894   3.223   0.230   5.662 -0.1112 -0.3446 -0.0296
58679SOL    HW182895   3.285   0.160   5.684  1.1699  0.9995  0.8402
58679SOL    HW282896   3.232   0.242   5.568 -0.7666 -1.7093 -0.2898
58680SOL     OW82897  11.862  12.227   8.942  0.4662 -0.5093 -0.3769
58680SOL    HW182898  11.825  12.188   8.863  0.5972  3.3468 -2.6095
58680SOL    HW282899  11.795  12.215   9.009  0.1327 -3.4649 -1.1353
58681SOL     OW82900   1.783  12.094   1.133  0.0700 -0.0049 -0.0307
58681SOL    HW182901   1.852  12.028   1.122  0.4528  0.0919  1.5254
58681SOL    HW282902   1.809  12.166   1.076  1.4249  0.1351  0.7146
58682SOL     OW82903   5.189   2.991   6.180 -0.0321 -0.7197 -0.1152
58682SOL    HW182904   5.226   3.068   6.136  0.3082 -0.9888 -0.3111
58682SOL    HW282905   5.100   2.985   6.147 -0.5250  0.3893  0.9455
58683SOL     OW82906  10.520   8.081   5.139  0.0003 -0.0033 -0.1096
58683SOL    HW182907  10.455   8.022   5.102 -0.8010  1.0100 -0.3624
58683SOL    HW282908  10.468   8.151   5.180  0.9262  1.3417 -1.1735
58684SOL     OW82909   2.869  11.956   3.250  0.4378 -0.1103  0.4228
58684SOL    HW182910   2.774  11.945   3.245  0.3122 -0.8034  2.8558
58684SOL    HW282911   2.904  11.868   3.234  0.5171 -0.2872  1.4730
58685SOL     OW82912  11.139   2.426   0.386 -0.2066  0.0826  0.2539
58685SOL    HW182913  11.149   2.461   0.297 -0.4971 -0.0058  0.1859
58685SOL    HW282914  11.190   2.485   0.441  0.6061 -0.3008 -0.0715
58686SOL     OW82915   4.837   9.683   8.536 -0.0295  0.1922  0.0487
58686SOL    HW182916   4.749   9.653   8.511  0.0521  1.5831 -2.1740
58686SOL    HW282917   4.844   9.660   8.628 -2.3936 -0.7550  0.0789
58687SOL     OW82918   9.475   7.478   0.440  0.4480  0.0671  0.3252
58687SOL    HW182919   9.424   7.435   0.509  0.0256  0.4404  0.2485
58687SOL    HW282920   9.420   7.470   0.361  0.1245  1.1930  0.4201
58688SOL     OW82921   1.816   7.313  10.028  0.0924  0.2116  0.1838
58688SOL    HW182922   1.876   7.277   9.962 -0.1630 -0.2200  0.1823
58688SOL    HW282923   1.840   7.267  10.109 -0.9140 -0.7307 -0.0319
58689SOL     OW82924   3.292   6.869   0.638  0.3899 -0.2058  0.6220
58689SOL    HW182925   3.357   6.916   0.585  0.5036 -1.4768 -0.4333
58689SOL    HW282926   3.208   6.909   0.614  0.2075 -1.9003 -1.9764
58690SOL     OW82927   4.803   2.821   5.926  0.2032  0.7586  0.2248
58690SOL    HW182928   4.749   2.750   5.893  1.2188 -0.5158  1.2210
58690SOL    HW282929   4.892   2.798   5.901  0.6407  1.2580  1.2374
58691SOL     OW82930  11.272   3.235   9.733  0.1162  0.2762  0.1343
58691SOL    HW182931  11.204   3.206   9.794 -1.9566  1.5522 -1.4485
58691SOL    HW282932  11.244   3.322   9.705  1.2975 -0.0148 -2.1766
58692SOL     OW82933   0.317   8.629   3.726  0.1624  0.3154  0.4803
58692SOL    HW182934   0.328   8.549   3.777  2.2111 -0.8413 -1.5718
58692SOL    HW282935   0.222   8.634   3.709  0.0473 -2.1239  0.0411
58693SOL     OW82936   3.188   1.691  11.273  0.0956  0.3901 -0.1214
58693SOL    HW182937   3.197   1.784  11.253  0.2687  0.7847  1.5920
58693SOL    HW282938   3.093   1.676  11.277  0.0667  0.5989 -0.0272
58694SOL     OW82939   1.132   3.020   3.166 -0.2974 -0.1426  0.6053
58694SOL    HW182940   1.120   2.925   3.167 -1.7745  0.0171  0.1914
58694SOL    HW282941   1.111   3.047   3.256 -0.1716 -0.1719  0.6438
58695SOL     OW82942   1.259   7.372   2.604 -0.2561 -0.3160  0.1635
58695SOL    HW182943   1.261   7.373   2.700 -1.1740 -3.0881  0.3207
58695SOL    HW282944   1.339   7.325   2.579 -0.0183  0.3992 -0.4478
58696SOL     OW82945   6.252   2.084   6.187  0.0817  0.2925 -0.0226
58696SOL    HW182946   6.234   2.115   6.276 -0.1952  0.1312 -0.0186
58696SOL    HW282947   6.176   2.029   6.166  0.9484 -1.0805  0.3057
58697SOL     OW82948   8.751   6.955   5.146 -0.3059  0.5262  0.3320
58697SOL    HW182949   8.833   6.918   5.115 -0.0470  1.1275  0.2947
58697SOL    HW282950   8.758   7.049   5.127 -2.2287  0.2275 -2.5374
58698SOL     OW82951   9.842   5.985   6.620  0.2926  0.6359  0.1081
58698SOL    HW182952   9.850   6.005   6.527 -1.8187 -0.4582 -0.3669
58698SOL    HW282953   9.918   5.930   6.639  0.2128  0.0283 -1.2215
58699SOL     OW82954   7.783   1.214   6.900 -0.4410 -0.1382 -0.2439
58699SOL    HW182955   7.722   1.250   6.964 -1.2415 -1.9306  0.0373
58699SOL    HW282956   7.867   1.210   6.947  0.4839  3.8709 -1.1168
58700SOL     OW82957   1.213   3.748  10.317 -0.4511  0.0579 -0.3082
58700SOL    HW182958   1.224   3.827  10.368  0.0468  0.0462 -0.3894
58700SOL    HW282959   1.128   3.758  10.273 -1.9032 -0.8526  2.1065
58701SOL     OW82960   9.161  11.039   0.704  0.0170 -0.5396 -0.2665
58701SOL    HW182961   9.227  11.095   0.744 -0.0062 -0.1139 -0.8060
58701SOL    HW282962   9.175  10.953   0.743 -1.3046  0.2605  2.1311
58702SOL     OW82963   6.991   0.987   9.228 -0.1349 -0.3138 -0.8520
58702SOL    HW182964   6.908   0.973   9.273  0.5702  0.9382  0.9878
58702SOL    HW282965   6.968   0.995   9.136 -1.9556 -0.7140 -0.4653
58703SOL     OW82966   1.387  11.291   3.037 -0.2468  0.4123  0.4269
58703SOL    HW182967   1.389  11.360   2.971  1.0439 -0.0209 -0.0182
58703SOL    HW282968   1.357  11.335   3.117 -2.0169  0.9069 -0.4505
58704SOL     OW82969   2.893   1.001   3.954  0.2800  0.0915  0.1337
58704SOL    HW182970   2.873   1.012   4.047 -0.7412  1.0336 -0.1796
58704SOL    HW282971   2.965   1.062   3.937 -0.4073  0.8801  0.0274
58705SOL     OW82972   9.837  11.059   3.742 -0.4589 -0.3828  0.3136
58705SOL    HW182973   9.826  11.008   3.822  1.9683 -2.7621 -0.7232
58705SOL    HW282974   9.770  11.024   3.682  0.4438 -1.6234 -0.0120
58706SOL     OW82975   5.880   2.358   6.926  0.1254 -0.7983  0.4401
58706SOL    HW182976   5.885   2.350   6.831 -1.9249  0.2259  0.1913
58706SOL    HW282977   5.828   2.283   6.953  0.0810 -0.6862  0.6648
58707SOL     OW82978  11.525   6.607  11.605 -0.4107  0.5411 -0.4097
58707SOL    HW182979  11.436   6.640  11.597 -1.8132 -2.5679  0.7024
58707SOL    HW282980  11.523   6.550  11.682  3.0456  1.7372  0.7489
58708SOL     OW82981  12.089  10.376   3.800 -0.0012 -0.1510  0.1836
58708SOL    HW182982  12.122  10.461   3.771 -1.5367  0.5111  0.2715
58708SOL    HW282983  12.022  10.353   3.736  0.6246 -1.4738 -0.0260
58709SOL     OW82984   4.515   0.672   6.627 -0.3800  0.0071  0.2835
58709SOL    HW182985   4.566   0.741   6.584  0.1427 -0.5236  0.0512
58709SOL    HW282986   4.474   0.717   6.701 -1.5019  0.9994 -0.8854
58710SOL     OW82987  10.635   6.878   5.499 -0.4656 -0.6479  0.2363
58710SOL    HW182988  10.719   6.840   5.472 -0.3999  0.0915 -0.6507
58710SOL    HW282989  10.570   6.826   5.452 -0.3521  0.6154 -1.3968
58711SOL     OW82990   3.558   3.521   5.983  0.8488  0.2291  0.0231
58711SOL    HW182991   3.563   3.616   5.996 -1.4272  0.3310  0.6014
58711SOL    HW282992   3.561   3.510   5.888  0.9895  0.9029 -0.0550
58712SOL     OW82993   0.115   7.302   9.708  0.0029  0.3928 -0.2557
58712SOL    HW182994   0.103   7.246   9.784  0.6493 -0.3625 -0.6964
58712SOL    HW282995   0.026   7.332   9.687 -0.4677 -0.9855 -0.3844
58713SOL     OW82996   1.906   7.447   8.562  0.0286 -0.0556  0.2276
58713SOL    HW182997   1.981   7.483   8.515  0.4900 -0.2703  0.7927
58713SOL    HW282998   1.859   7.523   8.596 -0.1068  0.0856 -0.2606
58714SOL     OW82999   2.887   2.201   0.508 -0.0657 -0.0009  0.1625
58714SOL    HW183000   2.900   2.109   0.485 -1.7288 -0.6069  1.3899
58714SOL    HW283001   2.813   2.199   0.569 -0.9316  2.2946 -0.7337
58715SOL     OW83002   4.765   1.101  11.087 -0.6715  0.0904  0.2300
58715SOL    HW183003   4.837   1.146  11.042 -0.7698  2.2889  2.0727
58715SOL    HW283004   4.794   1.010  11.092  2.3065  0.9721  1.3939
58716SOL     OW83005  10.219   8.451  11.765 -0.1011  0.0031  0.0204
58716SOL    HW183006  10.244   8.450  11.673  0.0458 -0.0273  0.0603
58716SOL    HW283007  10.301   8.435  11.812 -0.6404 -3.3774  0.0603
58717SOL     OW83008   4.418   2.531  10.864  0.0389  0.2803 -0.1179
58717SOL    HW183009   4.401   2.607  10.920  1.0543  0.4923 -0.0909
58717SOL    HW283010   4.337   2.479  10.870 -1.1971  1.9731 -1.1610
58718SOL     OW83011   3.050   7.581   6.916  0.3521  0.3563  0.7231
58718SOL    HW183012   3.137   7.569   6.953  0.5859 -0.4648 -0.0616
58718SOL    HW283013   3.019   7.663   6.954  1.1508  0.2655  1.6052
58719SOL     OW83014   3.121   1.585   7.976 -0.3796 -0.0137  0.1157
58719SOL    HW183015   3.212   1.584   7.946  0.4518  1.2741  2.3451
58719SOL    HW283016   3.070   1.595   7.896  1.2576 -2.5687 -1.4126
58720SOL     OW83017   0.090   3.823  11.528 -0.1255 -0.3798  0.2642
58720SOL    HW183018   0.021   3.835  11.463 -1.1921 -0.9221  1.2667
58720SOL    HW283019   0.141   3.749  11.494  0.5776  0.6170 -0.9585
58721SOL     OW83020   6.595   2.864  11.777 -0.3769  0.1608  0.4831
58721SOL    HW183021   6.524   2.918  11.812 -1.6873  0.7917 -2.7552
58721SOL    HW283022   6.675   2.904  11.811 -1.4621  1.2695  1.8680
58722SOL     OW83023   7.592   6.760  10.174 -0.2013  0.2617 -0.3731
58722SOL    HW183024   7.685   6.745  10.187 -0.4682 -0.2022  1.2413
58722SOL    HW283025   7.554   6.672  10.166 -0.5733  0.4269 -0.4681
58723SOL     OW83026   5.797  11.614   1.716  0.0144  0.4733 -0.0986
58723SOL    HW183027   5.722  11.664   1.748 -0.5006 -0.5876  0.3976
58723SOL    HW283028   5.866  11.679   1.707  0.1953  0.9079  3.1169
58724SOL     OW83029  12.252   4.976   4.745  0.2676  0.6342 -0.4923
58724SOL    HW183030  12.254   4.924   4.826 -0.5401  1.3652  0.0107
58724SOL    HW283031  12.309   5.051   4.764  0.6962  0.4164 -0.8893
58725SOL     OW83032   8.550   9.074   3.685  0.1611  0.3608 -0.2518
58725SOL    HW183033   8.595   9.029   3.757  0.2962  0.5241 -0.2325
58725SOL    HW283034   8.472   9.112   3.726 -0.6505 -0.9359 -0.5227
58726SOL     OW83035   4.872   2.124   1.095 -0.6165  0.2306  0.2296
58726SOL    HW183036   4.801   2.084   1.044 -0.4396  1.1771 -0.8185
58726SOL    HW283037   4.911   2.052   1.144 -2.3823 -0.2842  0.9467
58727SOL     OW83038   2.786  11.477   2.678 -0.5213 -0.3264 -0.0928
58727SOL    HW183039   2.815  11.387   2.665 -2.6718 -1.0944  0.1578
58727SOL    HW283040   2.853  11.530   2.633  0.0646 -2.1055 -1.4313
58728SOL     OW83041   0.403   6.997   9.800 -0.2410 -0.2895  0.0743
58728SOL    HW183042   0.460   7.033   9.868 -2.0694  2.2032  0.4418
58728SOL    HW283043   0.398   6.904   9.820 -0.4842  0.2824  3.2723
58729SOL     OW83044   0.520  11.835   1.372  0.7323 -0.2121 -0.1596
58729SOL    HW183045   0.608  11.850   1.336  0.2085 -0.5454 -1.6396
58729SOL    HW283046   0.529  11.758   1.427  1.2622 -0.5894 -0.7598
58730SOL     OW83047   5.268   5.852   0.606 -0.3250  0.4376 -0.3138
58730SOL    HW183048   5.272   5.833   0.512 -1.8200  0.3331 -0.3816
58730SOL    HW283049   5.179   5.828   0.631  0.0616  0.4443  1.1465
58731SOL     OW83050   6.309   6.896   6.512 -0.4756 -0.2976  0.0419
58731SOL    HW183051   6.395   6.868   6.544 -0.6709 -1.5771 -0.5049
58731SOL    HW283052   6.280   6.961   6.577  0.8360  0.0749  0.2925
58732SOL     OW83053  11.374   7.486   2.208 -0.0512 -0.0775 -0.2710
58732SOL    HW183054  11.396   7.578   2.200 -2.1207  0.4124 -1.0155
58732SOL    HW283055  11.452   7.445   2.246  0.7018  2.0517  0.6007
58733SOL     OW83056   9.744  11.463  10.982  0.5962  0.4764  0.0264
58733SOL    HW183057   9.803  11.502  11.046  1.1449  1.0256 -0.7947
58733SOL    HW283058   9.759  11.513  10.902 -1.1207  0.7372 -0.1583
58734SOL     OW83059   5.571  11.368  10.045  0.2547 -0.2859 -0.2338
58734SOL    HW183060   5.637  11.343   9.979  0.8304  1.3745 -0.3494
58734SOL    HW283061   5.489  11.331  10.012  0.4731  0.7347 -2.0836
58735SOL     OW83062  10.734  11.968  10.523  0.2746  0.0719  0.4921
58735SOL    HW183063  10.734  12.011  10.609  0.9005  0.8037  0.1379
58735SOL    HW283064  10.780  12.030  10.466 -0.1013 -0.4284 -0.3612
58736SOL     OW83065   0.153  11.971   2.013 -0.0243 -0.4458  0.0734
58736SOL    HW183066   0.202  11.903   2.058  0.5936  0.5660  0.9820
58736SOL    HW283067   0.172  11.957   1.920  0.3673 -1.2857  0.2751
58737SOL     OW83068   4.354   0.696   6.219 -0.4029  0.1104 -0.3362
58737SOL    HW183069   4.377   0.670   6.130 -0.8758  0.7942 -0.6665
58737SOL    HW283070   4.411   0.771   6.237 -1.0567  0.6464 -0.4682
58738SOL     OW83071   3.719   9.780   6.499  0.0389 -0.2668 -0.0576
58738SOL    HW183072   3.771   9.859   6.516 -2.2269  1.5948 -1.1549
58738SOL    HW283073   3.776   9.726   6.445  0.9621  1.5715 -1.0323
58739SOL     OW83074   6.964   1.607   5.342 -0.4728 -0.2409 -0.4465
58739SOL    HW183075   6.875   1.603   5.307 -0.5875 -0.8913 -0.1002
58739SOL    HW283076   6.978   1.520   5.381  1.1737 -0.9889 -2.5538
58740SOL     OW83077   5.607   3.261   0.874  0.0223 -0.3170 -0.1669
58740SOL    HW183078   5.631   3.207   0.949 -0.7781 -0.4358  0.0207
58740SOL    HW283079   5.557   3.334   0.912 -1.9644 -1.3181 -0.6994
58741SOL     OW83080   9.578   3.022   5.350  0.5598  1.2039 -0.4610
58741SOL    HW183081   9.560   3.072   5.270  0.4370  0.3059 -1.0086
58741SOL    HW283082   9.526   2.942   5.341  0.2744  1.2410  0.6883
58742SOL     OW83083   1.271   5.675   3.219 -0.1121  0.2544 -0.2280
58742SOL    HW183084   1.207   5.674   3.291  1.5827 -0.7413  1.3469
58742SOL    HW283085   1.256   5.759   3.175 -2.2670  0.1943  0.2764
58743SOL     OW83086   7.466  11.427   8.979 -0.3607 -0.4070  0.0200
58743SOL    HW183087   7.446  11.333   8.976  1.8461 -0.9041 -1.4004
58743SOL    HW283088   7.526  11.441   8.906  0.7856  1.7529  1.2852
58744SOL     OW83089   0.478   4.393   2.966  0.4664  0.3458 -0.5065
58744SOL    HW183090   0.536   4.393   3.042  0.5754  1.6128 -0.5569
58744SOL    HW283091   0.415   4.323   2.984  0.7058  0.3885  0.5815
58745SOL     OW83092   8.310   6.937   7.454 -0.3368 -0.2089 -0.5864
58745SOL    HW183093   8.328   6.845   7.435  1.6398  0.4003 -2.1148
58745SOL    HW283094   8.397   6.978   7.456 -0.9798  1.3114  2.1644
58746SOL     OW83095   9.660   4.824   2.768 -0.6894  0.3267  0.1932
58746SOL    HW183096   9.740   4.780   2.796 -1.4347  0.0242  1.9613
58746SOL    HW283097   9.642   4.789   2.680  1.7524  1.3228 -0.7835
58747SOL     OW83098   4.849   3.116   1.477  0.2599 -0.0653 -0.3051
58747SOL    HW183099   4.819   3.178   1.411 -0.0682 -0.1770 -0.2633
58747SOL    HW283100   4.846   3.164   1.559  0.2136 -0.0701 -0.3039
58748SOL     OW83101   6.969   2.202   2.482  0.0332 -0.3886 -0.3670
58748SOL    HW183102   6.955   2.289   2.520  0.0735 -0.7067  0.3867
58748SOL    HW283103   6.990   2.219   2.390  1.7032  0.5043  0.1415
58749SOL     OW83104   4.331   1.020   6.144  0.0170  0.3296  0.2535
58749SOL    HW183105   4.324   1.061   6.230  0.4451  1.6650 -0.3109
58749SOL    HW283106   4.425   1.010   6.129  0.0142  1.1991 -0.5081
58750SOL     OW83107   2.014   0.229   1.853 -0.3915 -0.1784  0.0715
58750SOL    HW183108   2.014   0.202   1.761  0.1586 -0.2797  0.1025
58750SOL    HW283109   1.954   0.303   1.856 -1.5581 -1.0755 -0.1038
58751SOL     OW83110   8.116  10.248   7.762 -0.0855  0.1339  0.1905
58751SOL    HW183111   8.201  10.247   7.807 -0.1847  1.7430  0.4696
58751SOL    HW283112   8.138  10.273   7.672 -0.3334  1.3468  0.4601
58752SOL     OW83113   4.268  12.073   1.157 -0.1404 -0.6719 -0.4087
58752SOL    HW183114   4.271  12.024   1.238  3.2137 -0.8310 -0.4665
58752SOL    HW283115   4.185  12.120   1.159  0.5082  0.7370  3.9840
58753SOL     OW83116   2.660   4.929   6.157  0.6581  0.5617  0.1622
58753SOL    HW183117   2.683   4.988   6.228  1.7213  0.5406 -0.1513
58753SOL    HW283118   2.568   4.948   6.139  0.9715  2.1126  0.0683
58754SOL     OW83119   0.999   9.981   4.731  0.3299  0.9321  0.1135
58754SOL    HW183120   0.944  10.053   4.703  0.8416  0.9288 -0.9465
58754SOL    HW283121   1.085  10.021   4.747  0.1967  0.8346  1.1509
58755SOL     OW83122   0.425  11.066   4.534  0.3387 -0.1200 -0.0915
58755SOL    HW183123   0.372  11.043   4.611  2.1635 -1.2919  0.8953
58755SOL    HW283124   0.449  11.158   4.549  0.7340 -0.3546  0.7910
58756SOL     OW83125   4.332   2.862  11.889  0.0171  0.3207  0.1929
58756SOL    HW183126   4.270   2.805  11.844 -0.2655 -0.1708  1.1830
58756SOL    HW283127   4.418   2.834  11.857  0.3311 -3.5777  3.5606
58757SOL     OW83128   4.791  11.331  10.134  0.1500 -0.6441  0.6427
58757SOL    HW183129   4.885  11.348  10.141  0.3834  0.0268 -2.5819
58757SOL    HW283130   4.755  11.409  10.091 -1.1348 -2.4671 -1.8754
58758SOL     OW83131   0.516   7.004  10.413  0.1340 -0.1423  0.2460
58758SOL    HW183132   0.549   7.007  10.503  0.4604 -0.6216  0.1420
58758SOL    HW283133   0.432   6.959  10.421  1.2366 -2.3219  0.0011
58759SOL     OW83134   4.234   9.521   7.599 -0.2825  0.1141 -0.0558
58759SOL    HW183135   4.215   9.449   7.539 -0.7584 -1.0178  1.4143
58759SOL    HW283136   4.199   9.598   7.555 -0.5917 -0.6776 -1.2472
58760SOL     OW83137   3.029   7.318  10.388 -0.3753 -0.2845 -0.3930
58760SOL    HW183138   2.941   7.307  10.349 -0.1332 -0.1126 -1.0005
58760SOL    HW283139   3.019   7.392  10.448 -0.7624 -0.5661 -0.1008
58761SOL     OW83140   4.070   9.107   6.005  0.5820 -0.6120  0.0848
58761SOL    HW183141   4.085   9.015   5.987  1.9662 -0.1452 -1.3723
58761SOL    HW283142   4.138   9.130   6.069  1.1856 -0.3006 -0.6446
58762SOL     OW83143   7.387  10.760  10.557 -0.0103  0.2582 -0.4596
58762SOL    HW183144   7.359  10.715  10.637  1.0872  0.9074  0.3274
58762SOL    HW283145   7.385  10.692  10.489  2.1862 -1.2293  0.7992
58763SOL     OW83146   7.150  11.897   5.153  0.0960 -0.0560 -0.0065
58763SOL    HW183147   7.058  11.893   5.128  0.4142  0.9676 -1.5055
58763SOL    HW283148   7.192  11.829   5.101  0.1899 -0.5925  0.7532
58764SOL     OW83149   1.869  10.992   3.472  0.0228  0.3794  0.3769
58764SOL    HW183150   1.838  10.925   3.532  0.2284 -1.1113 -1.1088
58764SOL    HW283151   1.942  11.034   3.518  0.7992 -1.3680  0.8211
58765SOL     OW83152   4.079  12.102   7.362  0.2551  0.1740  0.0880
58765SOL    HW183153   4.048  12.069   7.447 -1.9137 -3.3196 -1.8179
58765SOL    HW283154   4.174  12.096   7.367  0.1276 -1.4482  1.7748
58766SOL     OW83155   5.496   9.543   1.859  0.2149 -0.6248 -0.0395
58766SOL    HW183156   5.484   9.563   1.766  1.2762  0.0907 -0.0290
58766SOL    HW283157   5.575   9.590   1.884  0.8822 -2.1504  0.8272
58767SOL     OW83158   3.511   7.886   0.976 -0.0467  0.3864 -1.0498
58767SOL    HW183159   3.439   7.916   0.921  1.3318  1.6839 -2.2322
58767SOL    HW283160   3.527   7.796   0.948 -0.8262  0.2842 -1.1708
58768SOL     OW83161   9.230   1.962   0.179 -0.3244  0.6665  0.4533
58768SOL    HW183162   9.160   1.901   0.203  0.3565 -1.0500 -1.6268
58768SOL    HW283163   9.238   2.019   0.255 -2.1226 -0.7851  1.8539
58769SOL     OW83164   0.263   1.881   9.828  0.3821  0.3646  0.2497
58769SOL    HW183165   0.302   1.799   9.858 -0.8940 -0.2750  0.2532
58769SOL    HW283166   0.330   1.947   9.842  0.3724 -0.1042  3.2500
58770SOL     OW83167   4.532   0.456   8.292  0.1012  0.3283 -0.1155
58770SOL    HW183168   4.578   0.373   8.307 -0.0441  0.0093 -1.3510
58770SOL    HW283169   4.534   0.468   8.197 -1.8979  0.5545 -0.1856
58771SOL     OW83170   3.869  12.242   5.475 -0.7210 -0.4739  0.2642
58771SOL    HW183171   3.907  12.272   5.392 -0.5169 -1.6704 -0.1048
58771SOL    HW283172   3.825  12.318   5.511  0.4290  0.4555 -0.2335
58772SOL     OW83173   6.975   4.943   8.130 -0.5871 -0.0983 -0.3957
58772SOL    HW183174   6.999   4.888   8.055 -1.1267 -1.4939  0.4183
58772SOL    HW283175   7.023   4.905   8.203 -2.2076 -0.5050  0.4963
58773SOL     OW83176   2.363   3.539   2.163 -0.4663 -0.2589 -0.0639
58773SOL    HW183177   2.320   3.612   2.119 -0.9535 -0.0604  0.7205
58773SOL    HW283178   2.456   3.551   2.144 -0.4109  1.1820  0.9079
58774SOL     OW83179   9.465  10.110   1.526  0.0740  0.3115 -0.2218
58774SOL    HW183180   9.380  10.153   1.533  0.4689  0.9344  0.9615
58774SOL    HW283181   9.446  10.026   1.484 -1.2018  0.2177  0.4963
58775SOL     OW83182   3.947   7.266  11.213  0.1452  0.3600  0.5157
58775SOL    HW183183   3.907   7.353  11.211 -0.0925  0.2420 -0.8851
58775SOL    HW283184   4.016   7.270  11.146 -0.4952 -0.8014 -0.2423
58776SOL     OW83185  12.360   8.831  10.617 -0.1247  0.4594  0.3884
58776SOL    HW183186  12.360   8.810  10.524 -0.6632  0.3645  0.4121
58776SOL    HW283187  12.290   8.778  10.655  1.4989 -1.2000  1.2363
58777SOL     OW83188   1.454   7.390   6.646  0.7879 -0.2803 -0.2447
58777SOL    HW183189   1.537   7.344   6.631  1.4382  1.2642 -1.5998
58777SOL    HW283190   1.478   7.483   6.648 -0.5114  0.1038  2.2412
58778SOL     OW83191   0.585   9.022  11.309 -0.3254  0.4902 -0.4467
58778SOL    HW183192   0.639   9.085  11.261 -0.0671  0.0903 -0.6877
58778SOL    HW283193   0.546   8.967  11.241  0.0111 -0.0566 -0.1998
58779SOL     OW83194  10.599   9.483   5.014  0.0877  0.5412  0.3642
58779SOL    HW183195  10.657   9.528   5.075  1.2339 -0.2617 -0.0962
58779SOL    HW283196  10.650   9.409   4.981 -1.4782 -0.6714  0.5243
58780SOL     OW83197   3.695   4.708   5.263  0.1139  0.2063 -0.3891
58780SOL    HW183198   3.633   4.746   5.324  1.0517  0.5774  0.3602
58780SOL    HW283199   3.652   4.628   5.232 -1.0676  0.8744 -0.5233
58781SOL     OW83200   7.065   7.501   4.474  0.0326 -0.2102  0.1948
58781SOL    HW183201   7.015   7.551   4.538  1.3048 -0.6143  1.5651
58781SOL    HW283202   7.030   7.413   4.478 -1.9685  0.3841 -1.9653
58782SOL     OW83203   8.235   7.602   7.944  0.3472 -0.1791 -0.5494
58782SOL    HW183204   8.216   7.636   7.857  1.0217 -0.7722 -0.9359
58782SOL    HW283205   8.318   7.643   7.968 -0.7230  1.4247  0.6052
58783SOL     OW83206  10.193   3.300  11.281  0.1170 -0.2307 -0.5658
58783SOL    HW183207  10.098   3.300  11.275  0.1681 -1.3292 -1.7304
58783SOL    HW283208  10.213   3.363  11.351 -1.4042  0.7274 -0.9493
58784SOL     OW83209   0.365   7.100   0.493 -0.2485 -0.9725 -1.0029
58784SOL    HW183210   0.387   7.159   0.565  0.7943 -1.1060 -1.1873
58784SOL    HW283211   0.358   7.014   0.534  0.3242 -1.0455 -1.0538
58785SOL     OW83212   0.349   6.076   5.058  0.4676  0.5485 -0.4218
58785SOL    HW183213   0.434   6.086   5.015  1.3724  0.7430  1.3196
58785SOL    HW283214   0.321   6.165   5.077 -0.1030  0.4796 -0.9019
58786SOL     OW83215   3.370   9.416   0.869  0.4506  0.2433  0.8127
58786SOL    HW183216   3.331   9.450   0.949 -0.8360 -1.2750  0.8863
58786SOL    HW283217   3.439   9.357   0.900  3.0600  3.0110  0.6831
58787SOL     OW83218   9.516   2.183   4.544 -0.5324  0.4001 -0.0330
58787SOL    HW183219   9.558   2.253   4.593 -0.2672  1.3072 -1.4928
58787SOL    HW283220   9.478   2.126   4.611  1.8534  0.2645  1.3021
58788SOL     OW83221  12.483   0.537   9.566 -0.0713 -0.1976  0.2508
58788SOL    HW183222  12.574   0.516   9.585  0.6777  0.8170 -1.9033
58788SOL    HW283223  12.446   0.455   9.533  0.5951 -0.1665 -0.5944
58789SOL     OW83224   3.861   3.239   1.081 -0.5548 -0.3456  0.5269
58789SOL    HW183225   3.768   3.219   1.096 -0.3172 -1.9470  0.0334
58789SOL    HW283226   3.883   3.189   1.002  0.3112  1.3664 -0.3819
58790SOL     OW83227   2.388   1.812  11.507  0.2502  0.0227 -0.1377
58790SOL    HW183228   2.437   1.773  11.580  0.8415  0.0477 -0.5183
58790SOL    HW283229   2.362   1.898  11.541 -1.0190 -0.6614  0.6835
58791SOL     OW83230   2.617   3.508   4.068 -0.4058 -0.4485  0.2376
58791SOL    HW183231   2.523   3.507   4.084 -0.4048 -0.3765  0.2492
58791SOL    HW283232   2.654   3.450   4.135 -0.1056  2.0254  2.3408
58792SOL     OW83233  10.376  10.118   3.757 -0.2380 -0.3974 -0.2618
58792SOL    HW183234  10.326  10.041   3.729 -0.5394 -0.3422  0.1102
58792SOL    HW283235  10.380  10.110   3.852  0.9169 -0.6725 -0.3209
58793SOL     OW83236   0.451   4.094   6.746  0.0695 -0.0964 -0.0326
58793SOL    HW183237   0.383   4.037   6.782 -1.6623  1.4783 -0.6339
58793SOL    HW283238   0.458   4.069   6.654  1.1652 -1.0281  0.2903
58794SOL     OW83239  12.266   0.234   3.089 -0.2770  0.3562 -0.5895
58794SOL    HW183240  12.288   0.257   2.998  0.3267  1.0211 -0.2862
58794SOL    HW283241  12.316   0.154   3.105  0.5937  0.9080 -0.4647
58795SOL     OW83242   5.281   3.897  11.710  0.0332 -0.7816 -0.0062
58795SOL    HW183243   5.241   3.883  11.796  1.0271 -1.5435  0.3509
58795SOL    HW283244   5.240   3.977  11.677 -2.2348 -1.8440  0.0564
58796SOL     OW83245   5.954   2.749   5.610 -0.2636  0.6868  0.1532
58796SOL    HW183246   5.939   2.668   5.660 -0.6684  1.7965  1.9345
58796SOL    HW283247   6.043   2.740   5.577 -0.1262 -0.2872  0.7275
58797SOL     OW83248   9.432   3.471  11.716  0.2331  0.0805 -0.0518
58797SOL    HW183249   9.475   3.399  11.761 -1.7364 -0.9042  0.3821
58797SOL    HW283250   9.391   3.431  11.639 -0.6939  0.7410  0.0727
58798SOL     OW83251   1.452   7.103   0.403 -0.2231  0.0164  0.0883
58798SOL    HW183252   1.444   7.173   0.337 -3.2472 -1.2858 -1.1248
58798SOL    HW283253   1.481   7.027   0.354 -0.4481 -0.4597  0.6854
58799SOL     OW83254   4.690   5.700   2.636  0.2518  0.0400 -0.0944
58799SOL    HW183255   4.659   5.786   2.665  0.3785 -0.5321  1.8786
58799SOL    HW283256   4.723   5.715   2.547  1.5200  2.3227  0.6843
58800SOL     OW83257   8.353   8.867  10.884  0.2652  0.2464 -0.1327
58800SOL    HW183258   8.277   8.909  10.843  1.3392  0.7972 -1.6088
58800SOL    HW283259   8.315   8.796  10.936 -1.3666  1.2919  0.2052
58801SOL     OW83260  11.697   3.881   6.971 -0.0306 -0.0180 -0.3032
58801SOL    HW183261  11.661   3.906   7.056  1.5337 -0.2805  0.4681
58801SOL    HW283262  11.790   3.902   6.976  0.1758 -0.4102 -1.8134
58802SOL     OW83263   5.285   9.386   5.364  0.4650 -0.5042 -0.1571
58802SOL    HW183264   5.371   9.405   5.327 -0.3653  0.0900 -1.8963
58802SOL    HW283265   5.236   9.467   5.354 -0.5856 -1.1038 -0.0853
58803SOL     OW83266   4.091   8.411  12.561 -0.2750 -0.6964 -0.2503
58803SOL    HW183267   4.006   8.453  12.564 -0.1999 -0.5103 -0.6950
58803SOL    HW283268   4.074   8.320  12.585 -0.4596 -0.4575  0.5506
58804SOL     OW83269   2.101  11.717  12.223 -0.4046  0.2833  0.4045
58804SOL    HW183270   2.142  11.775  12.159  1.7998 -1.1507  0.4407
58804SOL    HW283271   2.124  11.755  12.308 -0.8973  0.5934  0.4041
58805SOL     OW83272  11.833   3.855   3.060  0.5174  0.0693 -0.5336
58805SOL    HW183273  11.743   3.877   3.083  0.6747  0.3429 -0.1567
58805SOL    HW283274  11.826   3.775   3.009 -0.3010  2.2651 -4.2025
58806SOL     OW83275   6.352   0.897   7.594 -0.4276 -0.8436  0.1247
58806SOL    HW183276   6.296   0.819   7.600 -2.6452  0.3914 -2.2723
58806SOL    HW283277   6.441   0.863   7.603 -1.3576 -3.4313  0.5866
58807SOL     OW83278   3.049   6.679   8.317  0.2284  0.0170 -0.7700
58807SOL    HW183279   2.992   6.603   8.306  0.4996 -0.2025 -0.6792
58807SOL    HW283280   2.989   6.752   8.331 -0.0350 -0.4337  0.7450
58808SOL     OW83281  12.490   6.364   7.639 -0.6829 -0.1233  0.2848
58808SOL    HW183282  12.579   6.396   7.620 -0.4760  0.0999  1.5137
58808SOL    HW283283  12.470   6.304   7.568  0.3116  0.1145 -0.2117
58809SOL     OW83284   3.903   9.846   0.104 -0.1099 -0.2333  0.4480
58809SOL    HW183285   3.995   9.820   0.108 -0.1089 -0.4693 -0.8510
58809SOL    HW283286   3.865   9.811   0.185  0.8734 -0.3534  0.8784
58810SOL     OW83287  10.901   3.782   5.804 -0.4541  0.4492 -0.0187
58810SOL    HW183288  10.897   3.812   5.713  0.7590 -1.2051 -0.6522
58810SOL    HW283289  10.822   3.820   5.844 -0.2913  2.3797 -1.3542
58811SOL     OW83290  11.864   7.366  10.555  0.2614  0.2981 -0.1325
58811SOL    HW183291  11.912   7.424  10.497  0.6170  0.0606 -0.0825
58811SOL    HW283292  11.922   7.356  10.631 -0.1792  0.5745  0.2451
58812SOL     OW83293   2.424   4.264  12.405 -0.1613  0.1497  1.1443
58812SOL    HW183294   2.415   4.278  12.310 -0.9864  0.3057  1.2404
58812SOL    HW283295   2.513   4.294  12.425  0.3596 -0.7622  0.2678
58813SOL     OW83296   4.326   0.292   1.656 -0.3792  0.0997  0.6750
58813SOL    HW183297   4.281   0.301   1.739 -0.6340 -0.6330  0.6304
58813SOL    HW283298   4.268   0.237   1.603  0.2573 -0.3080  0.3832
58814SOL     OW83299   1.548  12.428   2.543  0.0192 -0.1622 -0.0780
58814SOL    HW183300   1.495  12.421   2.464  0.4498  0.1681 -0.4038
58814SOL    HW283301   1.638  12.422   2.511  0.1855 -0.3963  0.4304
58815SOL     OW83302   2.134   5.462   5.998  0.0182 -0.2796 -0.5268
58815SOL    HW183303   2.117   5.383   5.947  0.1411  1.1128 -2.8513
58815SOL    HW283304   2.228   5.460   6.014 -0.2094 -1.3728  0.8525
58816SOL     OW83305   0.066   1.962   0.512 -0.0694  0.0886  0.2739
58816SOL    HW183306   0.100   1.996   0.595  0.2571  1.0877 -0.2533
58816SOL    HW283307  -0.017   2.009   0.499  0.8411  1.4877 -0.9290
58817SOL     OW83308  11.866   7.785  12.536  0.2887 -0.1571  0.7057
58817SOL    HW183309  11.829   7.794  12.624  3.2393  1.3601  1.9459
58817SOL    HW283310  11.961   7.784  12.550  1.0434  2.9047 -2.5749
58818SOL     OW83311   3.302   3.964   0.713 -0.4664 -0.2776 -0.6046
58818SOL    HW183312   3.246   3.955   0.635  0.9114 -1.4633 -1.5337
58818SOL    HW283313   3.256   3.916   0.781 -1.0880 -0.3350 -1.0543
58819SOL     OW83314   1.592   5.724   3.206 -0.3077  0.3204 -0.2201
58819SOL    HW183315   1.557   5.813   3.202 -0.6510  0.2452  0.9057
58819SOL    HW283316   1.581   5.690   3.117 -1.3074  0.9794 -0.3621
58820SOL     OW83317   5.152  10.955   8.831  0.2237  0.4013  0.1266
58820SOL    HW183318   5.088  10.884   8.823 -0.1420  0.8372 -0.9832
58820SOL    HW283319   5.106  11.023   8.880  0.4246  0.0595  0.8041
58821SOL     OW83320   6.716   0.195   7.220 -0.2834  0.0445  1.0891
58821SOL    HW183321   6.738   0.288   7.225  2.0098 -0.4117  0.4928
58821SOL    HW283322   6.777   0.152   7.280  0.0750 -1.2517 -0.1288
58822SOL     OW83323   0.168   3.896   2.478 -0.0693  0.5365  0.3086
58822SOL    HW183324   0.132   3.957   2.413 -1.5635  0.9390  1.4586
58822SOL    HW283325   0.243   3.942   2.515  0.1732  0.7344 -0.4122
58823SOL     OW83326   2.662   0.677   8.139  0.1074  0.5679 -0.1668
58823SOL    HW183327   2.746   0.647   8.173  0.2236  1.6824  0.6047
58823SOL    HW283328   2.606   0.683   8.217 -1.4185 -2.2576 -0.9072
58824SOL     OW83329   5.044   4.036   6.573  0.1533  0.1973 -0.2198
58824SOL    HW183330   5.136   4.039   6.550  1.1666 -0.1565  3.2003
58824SOL    HW283331   5.014   3.950   6.542  1.9063 -1.0703  1.3608
58825SOL     OW83332   2.493   5.267   2.954  0.0951 -0.3520 -0.2509
58825SOL    HW183333   2.467   5.315   3.033 -2.7830 -1.8135 -0.1777
58825SOL    HW283334   2.540   5.190   2.988  0.2508 -0.1874 -0.0848
58826SOL     OW83335   6.133   9.727   5.437  0.3169  0.2073 -0.6112
58826SOL    HW183336   6.042   9.715   5.412 -0.1309 -0.1590  1.0875
58826SOL    HW283337   6.131   9.793   5.506  1.0126 -1.5041  1.1535
58827SOL     OW83338  10.468   7.428   4.552  0.7888  0.1707 -0.2777
58827SOL    HW183339  10.452   7.417   4.645 -0.5087  0.3965 -0.4583
58827SOL    HW283340  10.445   7.344   4.513 -1.3483  0.8821 -0.6912
58828SOL     OW83341   9.731   6.898   6.506 -0.2420 -0.1477 -0.6279
58828SOL    HW183342   9.652   6.952   6.500 -0.0452  0.1330 -0.7031
58828SOL    HW283343   9.754   6.879   6.415 -0.4539 -0.5726 -0.5969
58829SOL     OW83344   5.175   9.045   3.686 -0.1061  0.3638 -0.4766
58829SOL    HW183345   5.160   9.042   3.591  0.2648 -0.3211 -0.5189
58829SOL    HW283346   5.094   9.013   3.724  0.3211 -0.9281 -0.6217
58830SOL     OW83347  12.353   8.962  11.864 -0.0183  0.1720 -0.2930
58830SOL    HW183348  12.435   8.981  11.820  0.3317 -0.1128  0.2299
58830SOL    HW283349  12.376   8.954  11.957 -0.4807 -0.8529 -0.2569
58831SOL     OW83350  11.489   9.909   9.248  0.1013 -0.4897 -0.2129
58831SOL    HW183351  11.553   9.980   9.246 -0.5583  0.1194 -0.1459
58831SOL    HW283352  11.472   9.895   9.341  0.8692 -1.3342 -0.1875
58832SOL     OW83353   2.441  10.998   5.289 -0.1902  1.0785  0.2139
58832SOL    HW183354   2.479  11.011   5.376  0.7164  0.3481 -0.0575
58832SOL    HW283355   2.412  10.907   5.289  0.5293  0.8388 -0.5087
58833SOL     OW83356   4.241   6.576   1.291 -0.1300  0.5368  0.1730
58833SOL    HW183357   4.263   6.533   1.373 -1.9975  1.6128  1.2934
58833SOL    HW283358   4.317   6.632   1.272  1.6083 -1.8531 -0.4539
58834SOL     OW83359   3.604   5.924   0.279 -0.5461  0.8204 -0.1091
58834SOL    HW183360   3.549   5.898   0.353 -1.3104  0.5146 -0.7648
58834SOL    HW283361   3.552   5.901   0.201  0.6321  0.2699 -0.7618
58835SOL     OW83362   7.299   0.755   5.516  0.0584  0.2662 -0.4847
58835SOL    HW183363   7.345   0.839   5.509 -0.3384  0.4052 -1.4947
58835SOL    HW283364   7.211   0.779   5.543  0.3071  0.0619  0.5614
58836SOL     OW83365   6.282   6.613   6.347 -0.4700 -0.9909  0.2255
58836SOL    HW183366   6.212   6.568   6.299 -1.5160  0.5905  0.2131
58836SOL    HW283367   6.291   6.697   6.303  2.8878 -1.8828 -1.0475
58837SOL     OW83368  11.111   5.232  11.939  0.0428  0.6586  0.5191
58837SOL    HW183369  11.161   5.275  11.871 -1.6567  0.5807 -0.8576
58837SOL    HW283370  11.167   5.234  12.016  2.9706 -1.1933 -1.3880
58838SOL     OW83371  11.179  11.246  11.439  0.1153  0.5716 -0.0155
58838SOL    HW183372  11.240  11.243  11.365  1.7204 -0.9036  1.2708
58838SOL    HW283373  11.092  11.240  11.399  0.9117  0.2136 -1.7906
58839SOL     OW83374   3.101  12.312   9.808  0.5465  0.1081  0.1897
58839SOL    HW183375   3.014  12.275   9.793  1.4278 -2.6993  1.3756
58839SOL    HW283376   3.152  12.285   9.731  0.8189  0.2009  0.3370
58840SOL     OW83377   2.488   9.360   1.872 -0.4952 -0.7351 -0.3761
58840SOL    HW183378   2.438   9.433   1.907 -1.4600 -0.8859 -1.3828
58840SOL    HW283379   2.422   9.299   1.839  0.2932 -1.9484  0.2182
58841SOL     OW83380  11.633  12.187  11.562 -0.2828  0.6857 -0.1520
58841SOL    HW183381  11.653  12.203  11.470  1.5835  1.8424  0.3802
58841SOL    HW283382  11.650  12.272  11.605 -1.8499  0.3949  1.1632
58842SOL     OW83383   7.912  10.582   6.973 -0.2696  0.0463 -0.4001
58842SOL    HW183384   7.901  10.502   7.024  2.0807 -0.6871 -0.8930
58842SOL    HW283385   7.962  10.554   6.896 -0.4573  1.7883 -1.1996
58843SOL     OW83386   4.721  12.470   2.947 -0.4431 -0.3975  0.0927
58843SOL    HW183387   4.665  12.399   2.978 -0.6832 -0.7424 -1.0563
58843SOL    HW283388   4.808  12.432   2.940 -1.1217 -1.7610 -3.8220
58844SOL     OW83389   4.228   5.201  11.385  0.0256 -0.5837 -0.4286
58844SOL    HW183390   4.310   5.249  11.382 -0.3481  0.0388 -1.7221
58844SOL    HW283391   4.165   5.263  11.422  0.4021 -1.5651  2.0555
58845SOL     OW83392   8.493   0.262  11.762 -0.0132 -0.4217  0.1407
58845SOL    HW183393   8.544   0.253  11.842  0.7615  1.3055 -0.1273
58845SOL    HW283394   8.452   0.176  11.750  3.0044 -1.9916  0.2442
58846SOL     OW83395   2.858  11.425   5.415  0.1728 -0.3405  0.2182
58846SOL    HW183396   2.793  11.480   5.458 -0.5585  0.0316 -1.3223
58846SOL    HW283397   2.811  11.380   5.345  1.3348 -0.8935 -0.2476
58847SOL     OW83398   7.461   9.290   3.827 -0.3326 -0.5873  0.3809
58847SOL    HW183399   7.367   9.271   3.828 -0.9416  1.7957  3.1441
58847SOL    HW283400   7.488   9.282   3.918  2.0008 -0.4307 -0.2295
58848SOL     OW83401   9.625   3.002  10.957 -0.1089 -0.3629  0.3113
58848SOL    HW183402   9.550   3.055  10.933 -0.9354 -1.3909  0.5156
58848SOL    HW283403   9.591   2.912  10.959  0.5977 -0.6560  2.3692
58849SOL     OW83404   3.379   7.984   4.220  0.0524  0.5858  0.4935
58849SOL    HW183405   3.324   8.054   4.255  1.3489  1.2995  1.1712
58849SOL    HW283406   3.431   8.026   4.151  0.7243  0.2531  0.7929
58850SOL     OW83407   6.192   4.762   5.609 -0.1202 -0.3326 -0.3423
58850SOL    HW183408   6.251   4.703   5.562  2.1503  2.1293 -0.8195
58850SOL    HW283409   6.235   4.778   5.692 -1.3611 -0.3276  0.3192
58851SOL     OW83410   3.447   3.184   0.009  0.1765 -0.1400 -0.3404
58851SOL    HW183411   3.375   3.224  -0.040  0.2241  2.2110  1.3362
58851SOL    HW283412   3.415   3.097   0.032 -1.0820 -0.1001 -1.7721
58852SOL     OW83413   0.238   1.562   2.984  0.0040 -0.1532  0.5649
58852SOL    HW183414   0.322   1.539   2.945  0.2442  0.8846  0.4440
58852SOL    HW283415   0.198   1.624   2.923 -0.8671 -0.6442  0.6080
58853SOL     OW83416   5.995   5.117   1.975  0.1870 -0.1786  0.1461
58853SOL    HW183417   6.026   5.047   2.032  0.9858 -0.6045 -0.7831
58853SOL    HW283418   6.060   5.122   1.905 -0.5510  0.6084 -0.5132
58854SOL     OW83419   7.710   3.704   1.852 -0.3244 -0.4038 -0.0024
58854SOL    HW183420   7.639   3.728   1.911 -0.4197 -0.6465 -0.0184
58854SOL    HW283421   7.789   3.739   1.895 -0.3898 -0.5933  0.2777
58855SOL     OW83422   0.433  11.803   3.414 -0.7864 -0.7557 -0.1490
58855SOL    HW183423   0.464  11.748   3.342  0.9490  1.2914 -1.0648
58855SOL    HW283424   0.438  11.892   3.379  2.4871  0.5992  3.2219
58856SOL     OW83425   2.299  12.236   1.010 -0.3785 -0.1325 -0.2330
58856SOL    HW183426   2.375  12.229   0.952 -0.3239  0.5484 -0.2565
58856SOL    HW283427   2.223  12.224   0.953 -0.2852 -1.7900 -0.0522
58857SOL     OW83428   8.101   6.613   2.888  0.4956 -0.2131 -0.4669
58857SOL    HW183429   8.013   6.593   2.919 -0.4464  2.9579 -0.7645
58857SOL    HW283430   8.137   6.671   2.955  1.4099  0.4958 -1.5533
58858SOL     OW83431   8.146   8.305   6.663  0.6593 -0.2332 -0.4747
58858SOL    HW183432   8.233   8.296   6.624  1.2133  1.0443  0.4339
58858SOL    HW283433   8.104   8.374   6.613  0.2789 -0.6185 -0.6954
58859SOL     OW83434   3.545   7.488  10.456  0.3867 -0.0291  0.2344
58859SOL    HW183435   3.627   7.537  10.466  1.0164 -0.6191 -1.6377
58859SOL    HW283436   3.553   7.415  10.518  1.5198 -0.3636 -0.2755
58860SOL     OW83437  11.881   8.578   5.667 -0.0718  0.0165  0.0062
58860SOL    HW183438  11.910   8.507   5.724 -0.0388  1.0072  1.2579
58860SOL    HW283439  11.901   8.658   5.715 -0.7350  0.8709 -1.0784
58861SOL     OW83440   3.182   5.916   8.860  0.0040  0.1190  0.0699
58861SOL    HW183441   3.141   5.900   8.775  0.5695  0.8389 -0.3542
58861SOL    HW283442   3.147   5.848   8.917  2.2936 -2.6902 -1.6143
58862SOL     OW83443   3.499   6.453   9.075  0.6491 -0.3521 -0.1124
58862SOL    HW183444   3.544   6.409   9.147 -1.6880  0.0224  1.6851
58862SOL    HW283445   3.420   6.401   9.060 -0.8833  1.7014  0.3332
58863SOL     OW83446   4.374  10.592   6.120 -0.4687 -0.2640 -0.3196
58863SOL    HW183447   4.393  10.526   6.053  2.0447 -0.9539  0.9334
58863SOL    HW283448   4.435  10.663   6.102 -1.3939  0.6058 -0.1265
58864SOL     OW83449  11.115   8.442   3.852 -0.4440  0.0727  0.0878
58864SOL    HW183450  11.024   8.463   3.873 -0.7466 -1.3852  0.4078
58864SOL    HW283451  11.161   8.452   3.935 -0.6036 -0.5638  0.2596
58865SOL     OW83452   2.012   5.750  11.132 -0.0192 -0.3682 -0.1303
58865SOL    HW183453   1.921   5.769  11.153  0.1199  0.0544  0.1079
58865SOL    HW283454   2.063   5.801  11.196  0.3822 -0.5534 -0.2952
58866SOL     OW83455  11.561   5.060   0.284  0.7535  0.2033 -0.1320
58866SOL    HW183456  11.576   4.978   0.237  0.0055 -0.3987  0.6580
58866SOL    HW283457  11.534   5.122   0.216  0.7581 -0.3589 -0.6505
58867SOL     OW83458   7.463  10.057   7.035 -0.1054  0.0470 -0.6797
58867SOL    HW183459   7.388  10.115   7.050 -0.2805 -1.0994  4.4824
58867SOL    HW283460   7.430   9.969   7.055  1.6719 -1.1057 -2.4259
58868SOL     OW83461   0.895  12.161  11.746  0.3067  0.1734 -0.3842
58868SOL    HW183462   0.972  12.216  11.732  0.8825  0.0764  1.9586
58868SOL    HW283463   0.903  12.132  11.837 -1.3887 -1.6079 -0.7448
58869SOL     OW83464   6.523   0.652   8.859 -0.3844 -0.1658 -0.3508
58869SOL    HW183465   6.449   0.618   8.910  0.2291 -1.6698 -0.4307
58869SOL    HW283466   6.510   0.747   8.860 -0.7206 -0.1564  2.1517
58870SOL     OW83467  12.069   7.318   8.410  0.0946  0.0056  0.1403
58870SOL    HW183468  11.991   7.366   8.379 -0.2433  0.2458  1.3199
58870SOL    HW283469  12.133   7.330   8.340 -1.4647 -1.6843 -1.7197
58871SOL     OW83470   1.389   3.669   1.074 -0.6686  0.3286 -0.1028
58871SOL    HW183471   1.429   3.691   0.990 -3.3754 -0.8937 -1.8629
58871SOL    HW283472   1.307   3.718   1.075 -0.6691  0.3916  1.9185
58872SOL     OW83473   9.137   6.488   8.206  0.1834 -0.5355  0.0713
58872SOL    HW183474   9.071   6.530   8.150 -1.4880 -1.2836  1.3824
58872SOL    HW283475   9.116   6.395   8.202  0.6037 -0.6920  1.2207
58873SOL     OW83476  11.206  11.838  10.662  0.2693 -0.1343  0.2286
58873SOL    HW183477  11.214  11.781  10.585 -0.0451 -0.6316  0.5640
58873SOL    HW283478  11.253  11.793  10.731  0.3561  0.2043  0.3936
58874SOL     OW83479  10.955   3.897   8.485 -0.2062  0.0884 -0.0979
58874SOL    HW183480  10.889   3.889   8.416  1.3766  0.8287 -1.7891
58874SOL    HW283481  10.972   3.991   8.491  1.0357 -0.1238 -0.0731
58875SOL     OW83482   4.619   5.484   9.286  0.6290 -0.1274 -0.3235
58875SOL    HW183483   4.697   5.491   9.341  1.0679 -1.2774 -0.7645
58875SOL    HW283484   4.623   5.560   9.228  1.6827 -0.4282 -0.6570
58876SOL     OW83485   0.767  12.068  12.105 -0.2381  0.8444  0.2923
58876SOL    HW183486   0.723  12.064  12.021 -1.2876 -0.8054  0.8564
58876SOL    HW283487   0.712  12.126  12.158 -0.3424  0.7915  0.2425
58877SOL     OW83488  11.308   7.273   1.585  0.3818 -0.2019 -0.0254
58877SOL    HW183489  11.361   7.304   1.511 -1.6952  3.1201 -0.3078
58877SOL    HW283490  11.371   7.264   1.657  2.0094 -0.9102 -1.4557
58878SOL     OW83491   8.084   9.816   3.579 -0.6724 -0.6507  0.7077
58878SOL    HW183492   8.172   9.825   3.616 -0.5770 -2.9491  1.1947
58878SOL    HW283493   8.074   9.893   3.522  1.7285 -0.4345  0.4693
58879SOL     OW83494   6.068   7.672   8.613 -0.4481 -0.6384 -0.5225
58879SOL    HW183495   6.004   7.638   8.676 -0.4738  1.1703  0.4940
58879SOL    HW283496   6.150   7.678   8.664  0.1524 -1.4554 -1.3678
58880SOL     OW83497   7.191   2.975   9.896 -0.6522 -0.2865 -1.0283
58880SOL    HW183498   7.141   2.982   9.815  0.6487  1.6706 -1.7542
58880SOL    HW283499   7.279   3.004   9.872  0.3329 -1.7144  0.6301
58881SOL     OW83500  12.036   5.269   4.176 -0.1929 -0.6260 -0.3396
58881SOL    HW183501  12.071   5.352   4.144  0.1543 -1.0082 -0.9796
58881SOL    HW283502  12.019   5.218   4.097 -1.0623 -0.9053  0.0188
58882SOL     OW83503   2.859   1.021  11.198  0.2339 -0.0658  0.0850
58882SOL    HW183504   2.829   1.110  11.216 -1.0197 -0.3772 -0.4140
58882SOL    HW283505   2.817   0.967  11.265 -0.0750 -0.4632 -0.4215
58883SOL     OW83506   6.547  12.487   4.920 -0.3680 -0.2731 -0.5424
58883SOL    HW183507   6.618  12.431   4.951  0.8288  0.1530 -2.3504
58883SOL    HW283508   6.493  12.429   4.865 -1.5844 -0.6382  0.9535
58884SOL     OW83509  12.214  10.036   8.525  0.4201  0.1621  0.3082
58884SOL    HW183510  12.207  10.120   8.479  0.2980  1.3098  2.3328
58884SOL    HW283511  12.159   9.977   8.473  1.9813  0.7908 -2.2158
58885SOL     OW83512   5.786   5.084   1.197 -0.1207 -0.0238  0.5560
58885SOL    HW183513   5.823   5.169   1.218 -2.8206  1.5185 -0.3992
58885SOL    HW283514   5.829   5.058   1.116 -0.0417  0.9791  0.2684
58886SOL     OW83515   8.821   5.051   5.211  0.0204  0.2666  0.0707
58886SOL    HW183516   8.869   4.994   5.151  0.1438  0.1390  0.2920
58886SOL    HW283517   8.810   5.133   5.162  0.4173  0.2802  0.0024
58887SOL     OW83518  10.756   2.938   9.016  0.3123 -0.2387  0.0988
58887SOL    HW183519  10.741   3.024   9.056 -1.0117  1.1542 -3.0239
58887SOL    HW283520  10.673   2.891   9.029  0.3353 -0.2854  0.0775
58888SOL     OW83521   1.743   3.614   3.653  0.9334 -0.3523 -0.1237
58888SOL    HW183522   1.809   3.654   3.596  0.9862 -0.1467  0.0795
58888SOL    HW283523   1.785   3.609   3.738  0.3329  0.7358  0.2589
58889SOL     OW83524  11.745   0.531  12.069 -0.2624 -0.2049 -0.0022
58889SOL    HW183525  11.661   0.548  12.113 -0.6509 -0.7207 -0.5251
58889SOL    HW283526  11.805   0.596  12.106 -0.2210 -1.4273  2.2706
58890SOL     OW83527   2.411   3.573   7.855  0.4062 -0.1091 -0.1066
58890SOL    HW183528   2.394   3.535   7.769  0.7594 -0.1912 -0.1419
58890SOL    HW283529   2.492   3.531   7.884 -0.0461 -0.5662  0.5477
58891SOL     OW83530   1.941   9.511   5.503 -0.0821  0.2922  0.3993
58891SOL    HW183531   1.916   9.422   5.478  2.1997 -0.4022  0.3549
58891SOL    HW283532   1.872   9.540   5.562 -0.8727 -1.4971  0.4140
58892SOL     OW83533  10.592  10.872   1.403  0.5225 -0.0273  0.5760
58892SOL    HW183534  10.686  10.860   1.411  0.4497 -1.7085 -0.5543
58892SOL    HW283535  10.555  10.784   1.410 -1.0039  0.6326  1.3243
58893SOL     OW83536  12.546   5.876  10.914  0.2865  0.0569  0.1898
58893SOL    HW183537  12.577   5.871  11.004 -1.2281  1.0694  0.7925
58893SOL    HW283538  12.611   5.827  10.864  1.1602 -0.5138  1.8196
58894SOL     OW83539   3.925   9.788   3.928  0.2617  1.1536 -0.5568
58894SOL    HW183540   3.924   9.881   3.951  3.0085  1.1071  0.1370
58894SOL    HW283541   4.018   9.767   3.918 -0.2087 -1.7782  0.3521
58895SOL     OW83542   3.481   0.919   0.104 -0.5505  0.4336 -0.1347
58895SOL    HW183543   3.447   1.004   0.131 -0.7225  0.2354  0.2927
58895SOL    HW283544   3.568   0.937   0.068 -1.0611  0.9433 -1.1676
58896SOL     OW83545   0.848   4.821  12.369 -0.2458 -0.0083  0.5366
58896SOL    HW183546   0.869   4.731  12.346  0.0195  0.1861 -0.0072
58896SOL    HW283547   0.892   4.874  12.303  0.2059  0.5563  1.2670
58897SOL     OW83548   3.299   7.499   7.924  0.0032 -0.5735 -0.4232
58897SOL    HW183549   3.287   7.461   8.011  1.4235  0.0685  0.0874
58897SOL    HW283550   3.215   7.540   7.904  0.0502  0.4133  1.2406
58898SOL     OW83551  10.455  11.845   3.092 -0.2321 -0.4938  0.3541
58898SOL    HW183552  10.449  11.938   3.114 -0.8923 -0.5527  0.4538
58898SOL    HW283553  10.442  11.800   3.175 -0.3328 -0.6832  0.2351
58899SOL     OW83554   5.938  10.312   5.455  0.9114 -0.4200 -0.0400
58899SOL    HW183555   5.892  10.339   5.534  0.4326 -0.6448 -0.2381
58899SOL    HW283556   5.929  10.217   5.453 -0.7704 -0.2700 -1.3799
58900SOL     OW83557   6.241   6.443   9.796  0.0288  0.1058 -0.2003
58900SOL    HW183558   6.311   6.378   9.790  0.2255  0.2211  0.7707
58900SOL    HW283559   6.172   6.408   9.738  0.8854  0.0221 -1.2085
58901SOL     OW83560   7.458   0.366   8.435 -0.2134 -0.5214  0.9020
58901SOL    HW183561   7.526   0.326   8.381  1.5881  1.3608  1.6565
58901SOL    HW283562   7.450   0.307   8.510  1.8680  0.0568  1.6455
58902SOL     OW83563   5.435  12.557   3.232  0.0219 -0.0475 -0.0150
58902SOL    HW183564   5.483  12.584   3.154 -0.5447 -0.2177 -0.4339
58902SOL    HW283565   5.387  12.636   3.258 -1.4162 -0.5145 -1.0769
58903SOL     OW83566   3.313   2.280   6.664  0.0249  0.2934 -0.4954
58903SOL    HW183567   3.220   2.262   6.651  0.2567 -0.4693 -1.1346
58903SOL    HW283568   3.356   2.245   6.586  0.7844  1.2225 -0.5130
58904SOL     OW83569  11.435   6.761   1.426  0.2060  0.1959 -0.2050
58904SOL    HW183570  11.440   6.796   1.515  2.4167 -0.0345 -0.1724
58904SOL    HW283571  11.471   6.830   1.371 -1.5616  0.5133 -1.0203
58905SOL     OW83572   8.053  12.067   4.273  0.7180 -0.2889 -0.3774
58905SOL    HW183573   8.144  12.089   4.296  0.0851  0.1324  2.0377
58905SOL    HW283574   8.019  12.147   4.233  0.7404  0.4385  0.9942
58906SOL     OW83575   6.358   0.501   9.014  0.3611 -0.3205 -0.0421
58906SOL    HW183576   6.388   0.410   9.015  0.5297 -0.2658 -0.0671
58906SOL    HW283577   6.322   0.516   9.101 -1.0248 -0.8600 -0.5090
58907SOL     OW83578  10.493   1.126   4.862  0.5212  0.2556 -0.6993
58907SOL    HW183579  10.535   1.058   4.914  1.7703  0.4149 -1.4580
58907SOL    HW283580  10.480   1.199   4.922  0.6558 -0.0603 -0.2839
58908SOL     OW83581   0.008   8.659   0.574 -0.9600 -0.6245  0.1382
58908SOL    HW183582   0.024   8.740   0.525  0.9249 -0.7528  0.4541
58908SOL    HW283583  -0.058   8.613   0.523 -2.3881  1.2775  0.1721
58909SOL     OW83584   4.565  11.757   9.825 -0.1758 -0.0026 -0.6333
58909SOL    HW183585   4.493  11.790   9.771 -1.3043  1.3007  1.5019
58909SOL    HW283586   4.603  11.835   9.864 -0.4573 -0.9116  1.6463
58910SOL     OW83587   5.408  12.453   7.543 -0.2989  0.2192  0.4405
58910SOL    HW183588   5.433  12.387   7.607 -0.4447  1.4130  1.7926
58910SOL    HW283589   5.414  12.409   7.458 -1.1184 -1.7355  1.3391
58911SOL     OW83590   8.390  11.122   2.413 -0.0062  0.3914 -0.3264
58911SOL    HW183591   8.403  11.207   2.371 -1.3761  0.2822 -1.0135
58911SOL    HW283592   8.313  11.134   2.468  0.9405  0.1209  1.1231
58912SOL     OW83593   0.760   5.139  10.221 -0.0114 -0.4212 -0.5623
58912SOL    HW183594   0.670   5.115  10.199 -1.1173  0.9870  1.9531
58912SOL    HW283595   0.805   5.145  10.137 -2.7169  0.4896 -2.0599
58913SOL     OW83596   7.972   4.239   7.381 -0.0442  0.2408 -0.1501
58913SOL    HW183597   8.019   4.323   7.390 -1.4935  0.9087  1.6487
58913SOL    HW283598   7.895   4.261   7.328  0.3855 -0.3372 -1.0422
58914SOL     OW83599   9.536  10.230   0.537  0.2572 -0.3134 -0.3801
58914SOL    HW183600   9.481  10.226   0.615  1.6269 -0.6901  0.6073
58914SOL    HW283601   9.624  10.209   0.568  1.2060  1.4476 -1.6820
58915SOL     OW83602   9.696  10.683   2.874 -0.0218 -0.8355 -0.2177
58915SOL    HW183603   9.603  10.662   2.879 -0.5729  1.3287 -0.4926
58915SOL    HW283604   9.704  10.742   2.799  1.1864  0.7577  1.0770
58916SOL     OW83605   1.982   9.227  11.052  0.3674  0.1401 -0.3462
58916SOL    HW183606   1.996   9.239  10.958  0.6056 -0.3408 -0.3737
58916SOL    HW283607   2.043   9.158  11.077  2.3518  2.1715  0.7304
58917SOL     OW83608   4.749  12.258   8.398 -0.0338  0.7664 -0.2888
58917SOL    HW183609   4.721  12.349   8.385  0.2865  1.0898  1.1474
58917SOL    HW283610   4.824  12.265   8.456  1.0112 -0.3234 -1.4533
58918SOL     OW83611   1.075   5.494  11.702  0.4742 -0.7229  0.0412
58918SOL    HW183612   1.036   5.531  11.781 -0.5903 -0.6300 -0.5064
58918SOL    HW283613   1.042   5.549  11.631 -0.7439 -2.3843 -0.7449
58919SOL     OW83614   8.708   6.800   5.365 -0.1245 -0.0998  0.4404
58919SOL    HW183615   8.723   6.838   5.279  1.0789  0.1809  0.7569
58919SOL    HW283616   8.795   6.776   5.397 -0.6903 -1.6484  0.9318
58920SOL     OW83617   9.776   7.373  12.146  0.3435  0.3362 -0.2587
58920SOL    HW183618   9.761   7.293  12.096 -2.6833  1.0087 -0.6170
58920SOL    HW283619   9.767   7.444  12.083  0.0617  1.0642  0.5717
58921SOL     OW83620   4.294   9.656   8.117  0.1079  0.5691  0.4222
58921SOL    HW183621   4.285   9.568   8.081  0.6347  0.5612  0.3092
58921SOL    HW283622   4.228   9.661   8.186 -0.0842  0.1704  0.2659
58922SOL     OW83623   7.473   5.608  10.485  0.0925 -0.1859 -0.2241
58922SOL    HW183624   7.482   5.568  10.398  1.4672 -0.3995 -0.0092
58922SOL    HW283625   7.381   5.594  10.508 -0.1239 -0.7532 -1.3437
58923SOL     OW83626   4.976   0.072  11.739 -0.0909 -0.7181 -0.1817
58923SOL    HW183627   4.949   0.109  11.654 -1.8353 -1.4235  0.0091
58923SOL    HW283628   5.015   0.146  11.786  0.7454 -0.2769 -1.5204
58924SOL     OW83629  12.073   3.428  10.767 -0.2362 -0.0228  0.1910
58924SOL    HW183630  12.102   3.509  10.809  0.0279  0.0062 -0.0478
58924SOL    HW283631  11.998   3.453  10.713  0.6308  0.3083 -0.8944
58925SOL     OW83632   9.577   5.484   5.327  1.0532 -0.6202 -0.2157
58925SOL    HW183633   9.629   5.424   5.380  0.4747 -0.5893  0.4097
58925SOL    HW283634   9.641   5.540   5.283  1.5495  0.0438  1.2777
58926SOL     OW83635   5.110   5.556  10.988  0.2979  0.3806 -0.1866
58926SOL    HW183636   5.077   5.646  10.995 -0.3085  0.1837 -0.4570
58926SOL    HW283637   5.031   5.502  10.985  0.5344  0.0378 -3.0233
58927SOL     OW83638   1.440   2.189   3.112 -0.2792  0.1818  0.0344
58927SOL    HW183639   1.346   2.178   3.125 -0.5918  0.4066 -1.7825
58927SOL    HW283640   1.448   2.227   3.025  1.6288 -2.7295 -1.2136
58928SOL     OW83641   7.058   8.064   8.299  0.0755  0.0088 -0.0894
58928SOL    HW183642   7.068   8.083   8.205 -3.1022  1.0921 -0.3216
58928SOL    HW283643   7.147   8.046   8.329  1.1813 -0.8405 -3.3877
58929SOL     OW83644   7.817   6.269  12.029 -0.9626 -0.2438  0.5983
58929SOL    HW183645   7.879   6.324  12.076  1.3791 -1.7376 -0.5826
58929SOL    HW283646   7.811   6.307  11.942 -0.9199 -0.6815  0.4009
58930SOL     OW83647   0.630   0.490   4.262  0.0782 -0.3310  0.0414
58930SOL    HW183648   0.713   0.461   4.299 -0.8927 -1.1876  1.6636
58930SOL    HW283649   0.600   0.560   4.321 -1.2947 -1.4273  0.7065
58931SOL     OW83650   2.921   1.716  10.940  0.6113  0.3584  0.2963
58931SOL    HW183651   2.961   1.640  10.982 -0.9174  0.4475  2.0172
58931SOL    HW283652   2.978   1.789  10.965  0.0465  0.3193  1.8064
58932SOL     OW83653   5.224   3.591   5.891  0.0033  0.8491 -0.0609
58932SOL    HW183654   5.229   3.589   5.796 -1.2960  0.8275 -0.1473
58932SOL    HW283655   5.314   3.606   5.920  0.4228  0.7549 -1.2821
58933SOL     OW83656   8.134   2.064   7.595  0.3369  0.3109 -0.5604
58933SOL    HW183657   8.192   2.132   7.628 -0.1697 -0.3168  1.7723
58933SOL    HW283658   8.183   1.982   7.608 -0.2378 -0.0373 -0.5495
58934SOL     OW83659   2.484   5.330   9.037 -0.5800 -0.8957  0.3946
58934SOL    HW183660   2.561   5.316   8.981 -1.0066 -3.0176  0.2429
58934SOL    HW283661   2.442   5.244   9.040 -1.9243 -0.2175  1.9926
58935SOL     OW83662   2.176   6.882   5.578 -0.2884 -0.1924 -0.0484
58935SOL    HW183663   2.243   6.934   5.534 -1.0427  0.1324 -0.8399
58935SOL    HW283664   2.122   6.847   5.507 -0.7468 -0.7525  0.5582
58936SOL     OW83665   2.577   6.858   9.432 -0.0874 -0.6532  0.8697
58936SOL    HW183666   2.631   6.864   9.353 -1.2550  1.6789  0.1482
58936SOL    HW283667   2.491   6.831   9.400 -0.5700  0.3027  1.3089
58937SOL     OW83668  10.776   2.193   8.396 -0.0592 -0.4372  0.1631
58937SOL    HW183669  10.819   2.277   8.378 -1.4116  0.5601  1.3764
58937SOL    HW283670  10.841   2.143   8.444  0.6395  0.0507 -0.2536
58938SOL     OW83671   1.136  11.738   1.601 -0.3976  0.2633  0.3167
58938SOL    HW183672   1.060  11.701   1.555 -0.0539  1.6051 -1.4202
58938SOL    HW283673   1.194  11.769   1.531  0.6310  1.4754  1.6450
58939SOL     OW83674   6.486   1.310   8.569 -0.4811  0.0703  0.2824
58939SOL    HW183675   6.542   1.326   8.493  0.0109  1.6044  0.9312
58939SOL    HW283676   6.415   1.255   8.535  0.4592 -0.4177 -0.9572
58940SOL     OW83677   8.165   0.466   6.586  0.7400  0.5286 -0.5674
58940SOL    HW183678   8.122   0.411   6.521  0.6194 -0.8383  0.6230
58940SOL    HW283679   8.237   0.412   6.619  0.0897  0.7058  1.2532
58941SOL     OW83680   1.151  11.974  11.517  0.3345 -0.0573 -0.1056
58941SOL    HW183681   1.171  11.893  11.471 -0.4221 -0.9876  1.1266
58941SOL    HW283682   1.055  11.979  11.516  0.2159 -0.6651  2.1836
58942SOL     OW83683   3.967   5.292   2.638  0.1932 -0.5510 -0.2777
58942SOL    HW183684   3.900   5.359   2.626  0.9864  0.3137  0.0729
58942SOL    HW283685   3.926   5.228   2.698 -0.0982  0.2854  0.4334
58943SOL     OW83686   3.654   7.621   7.533  0.1228 -0.4266  0.5397
58943SOL    HW183687   3.567   7.642   7.498 -0.0110  0.4160  1.3494
58943SOL    HW283688   3.639   7.549   7.594 -0.2500  0.7075  1.8127
58944SOL     OW83689  11.394  10.963   9.862  0.1202  0.4756  0.2351
58944SOL    HW183690  11.299  10.955   9.870 -0.0092  1.1135 -0.5562
58944SOL    HW283691  11.411  11.057   9.869  0.5197  0.5360 -1.2463
58945SOL     OW83692   5.462   4.799   5.537  0.0309  0.1979  0.2336
58945SOL    HW183693   5.382   4.822   5.490  0.1564  0.2387  0.0401
58945SOL    HW283694   5.481   4.876   5.591  0.3064  0.4569 -0.2211
58946SOL     OW83695   8.537   5.133   6.562 -0.0908  0.1214  0.8510
58946SOL    HW183696   8.609   5.128   6.499  1.5701  0.4442  2.6437
58946SOL    HW283697   8.481   5.203   6.528  0.1680 -0.4105 -0.7983
58947SOL     OW83698   6.012   7.490  12.162  0.4323  0.1835 -0.4514
58947SOL    HW183699   6.036   7.459  12.250 -2.5864 -0.0583  0.4381
58947SOL    HW283700   5.945   7.556  12.179  1.9377  2.3891 -2.5604
58948SOL     OW83701   8.027   9.494   8.444  0.0970  0.3542  0.1419
58948SOL    HW183702   8.064   9.429   8.503 -0.7306  0.8682  1.2663
58948SOL    HW283703   8.096   9.560   8.434  0.2072  0.3069  0.6011
58949SOL     OW83704   5.303   1.390   4.987 -0.4296  0.4633  0.4939
58949SOL    HW183705   5.210   1.409   4.978 -0.4948  0.9064  1.8356
58949SOL    HW283706   5.346   1.453   4.928 -0.9101  1.3696  1.0874
58950SOL     OW83707  10.333   3.324   0.554 -0.2009 -0.0190 -0.3316
58950SOL    HW183708  10.325   3.232   0.530  0.8354 -0.0640 -0.5535
58950SOL    HW283709  10.243   3.355   0.561 -0.5983 -1.2975  0.7357
58951SOL     OW83710   4.599   5.158   4.982  0.2111 -0.0213 -0.0741
58951SOL    HW183711   4.505   5.172   4.997  0.4158  2.1800 -0.4965
58951SOL    HW283712   4.605   5.067   4.954 -1.8159 -0.1908 -0.1171
58952SOL     OW83713   0.999   2.394   4.805  0.5262  0.3618 -0.0095
58952SOL    HW183714   0.904   2.385   4.813  0.1883  1.1542 -2.2443
58952SOL    HW283715   1.034   2.308   4.827 -0.7148  0.0074  0.6773
58953SOL     OW83716   5.192   2.276   9.616  0.3505  1.2359  0.0178
58953SOL    HW183717   5.162   2.356   9.571  1.0509  1.3689 -0.2410
58953SOL    HW283718   5.278   2.300   9.650  0.9037  0.3540 -0.7255
58954SOL     OW83719   2.367   2.825   0.432 -0.3164  0.3046 -0.4240
58954SOL    HW183720   2.453   2.785   0.449 -1.2962 -2.3268 -1.0883
58954SOL    HW283721   2.323   2.824   0.518 -0.1442  0.4625 -0.3330
58955SOL     OW83722   6.472   7.768   7.044 -0.0291 -0.1989  0.3005
58955SOL    HW183723   6.463   7.676   7.019 -1.3850  0.1644 -0.6627
58955SOL    HW283724   6.545   7.801   6.992 -0.1747 -0.4969 -0.0992
58956SOL     OW83725   3.036  12.146   7.498  0.1373  0.3169 -0.0252
58956SOL    HW183726   3.103  12.087   7.532 -0.2015  0.3433  0.6902
58956SOL    HW283727   3.055  12.152   7.404  0.5627 -0.4184  0.0091
58957SOL     OW83728   1.857   0.226   0.288  0.6359 -0.3609  0.0874
58957SOL    HW183729   1.874   0.291   0.356 -0.4283 -1.8874  1.9138
58957SOL    HW283730   1.939   0.219   0.240  1.9119 -0.2848  2.1602
58958SOL     OW83731  11.658   9.008   4.978  0.5104  0.1542 -0.0161
58958SOL    HW183732  11.567   8.987   4.955  0.5087 -3.0261  2.2349
58958SOL    HW283733  11.650   9.073   5.048  0.0086  0.4091 -0.3016
58959SOL     OW83734   8.752   2.448  12.157 -0.5719 -0.1985  0.4805
58959SOL    HW183735   8.813   2.517  12.132  0.6282 -0.9446  1.2380
58959SOL    HW283736   8.731   2.403  12.075 -0.5564  0.4256  0.1314
58960SOL     OW83737   8.305  11.820  10.253 -0.1656 -0.5426  0.3289
58960SOL    HW183738   8.387  11.776  10.277  1.9384  2.0993 -1.4510
58960SOL    HW283739   8.310  11.830  10.158 -1.8677  1.0504  0.3520
58961SOL     OW83740  11.809   9.446  10.942  0.1059  0.2575  0.3039
58961SOL    HW183741  11.763   9.431  10.859  1.6348  1.5972 -0.8597
58961SOL    HW283742  11.789   9.369  10.995  0.5315 -1.5362 -1.9985
58962SOL     OW83743   6.239   0.934   9.082 -0.0602  0.0178 -0.5181
58962SOL    HW183744   6.277   0.951   9.169 -0.9503  1.1850 -0.3429
58962SOL    HW283745   6.213   1.020   9.050 -0.5221 -0.5097 -1.5912
58963SOL     OW83746   5.608   5.583  12.376  0.1936 -0.1077 -0.3743
58963SOL    HW183747   5.548   5.526  12.329 -0.3892 -0.4867  0.7996
58963SOL    HW283748   5.663   5.622  12.307 -1.9214  0.9005 -1.5844
58964SOL     OW83749   9.771   0.572   9.377 -0.3513 -0.5297 -0.6526
58964SOL    HW183750   9.677   0.588   9.369 -0.6643 -1.0427  1.3868
58964SOL    HW283751   9.808   0.656   9.404 -0.4213 -0.6267 -0.2460
58965SOL     OW83752   0.355   8.697   5.389  0.2506  0.2293  0.7014
58965SOL    HW183753   0.410   8.719   5.314  0.0931 -1.9697 -0.1237
58965SOL    HW283754   0.372   8.767   5.453  2.3475  0.7548 -0.3602
58966SOL     OW83755  11.885   2.642   8.485 -0.3464  0.1458 -0.2203
58966SOL    HW183756  11.819   2.573   8.474  0.4186 -0.7382  0.6408
58966SOL    HW283757  11.834   2.719   8.512 -0.9629 -0.7603  1.3420
58967SOL     OW83758   6.413   6.109   3.132 -0.2942 -0.2805 -0.0140
58967SOL    HW183759   6.492   6.143   3.089 -0.4173  0.5021  0.3414
58967SOL    HW283760   6.441   6.027   3.172  0.1565 -0.3636 -0.4949
58968SOL     OW83761   2.729  10.048   8.961 -0.0173  0.3193  1.0131
58968SOL    HW183762   2.717  10.041   9.055  2.0432  0.4684  1.3262
58968SOL    HW283763   2.817  10.013   8.945  0.9454  3.0995 -0.4467
58969SOL     OW83764   3.888   1.788   1.569  0.1410 -0.0917 -0.2845
58969SOL    HW183765   3.894   1.879   1.539  1.6146 -0.7295 -2.1682
58969SOL    HW283766   3.794   1.773   1.582 -0.1052  1.7256  0.2239
58970SOL     OW83767   5.955   1.451   4.629  0.1832  0.0888 -0.9078
58970SOL    HW183768   5.924   1.541   4.628 -1.3209 -0.3763 -2.8636
58970SOL    HW283769   6.003   1.441   4.547  2.1442 -0.3428  0.2474
58971SOL     OW83770   7.867   0.447   1.893  0.8747 -0.2949  0.3564
58971SOL    HW183771   7.822   0.371   1.930  1.3314 -0.4127  0.6849
58971SOL    HW283772   7.895   0.419   1.806  1.4255 -0.6606  0.6440
58972SOL     OW83773   9.439   9.262   0.401  0.0277 -0.7029  0.0387
58972SOL    HW183774   9.423   9.343   0.450  2.1466 -0.3571  0.2313
58972SOL    HW283775   9.362   9.208   0.419 -0.0203  0.0467  2.4271
58973SOL     OW83776   5.590   1.794   1.328 -0.8076 -0.8003  0.4589
58973SOL    HW183777   5.613   1.757   1.242  1.6623 -2.0847  1.5567
58973SOL    HW283778   5.525   1.732   1.364 -1.4670 -0.5334 -0.2455
58974SOL     OW83779   7.990   9.593  10.222 -0.2953 -0.2933 -0.4241
58974SOL    HW183780   8.055   9.640  10.274  0.5616 -1.3204 -0.5233
58974SOL    HW283781   7.948   9.661  10.169  0.7605  0.3867 -0.4236
58975SOL     OW83782   4.028   3.620  12.099  0.3030  0.4180 -0.3756
58975SOL    HW183783   4.029   3.611  12.004  0.0462  1.7923 -0.5403
58975SOL    HW283784   3.983   3.704  12.114 -0.3066 -0.1239  0.9887
58976SOL     OW83785   4.095   0.846   8.300 -0.0567  0.9220  0.1075
58976SOL    HW183786   4.133   0.885   8.222 -0.4988  0.2769 -0.4490
58976SOL    HW283787   4.123   0.754   8.298 -0.6395  0.7308  0.3311
58977SOL     OW83788   9.264   7.712   8.854 -0.5250  0.0410  0.4328
58977SOL    HW183789   9.331   7.704   8.923 -2.1520 -1.1617  1.9695
58977SOL    HW283790   9.198   7.771   8.892 -1.1087 -0.0677 -0.3946
58978SOL     OW83791   1.539  10.144   7.775  0.4705  0.2912 -0.1118
58978SOL    HW183792   1.541  10.219   7.835 -0.6312  0.5966 -0.4313
58978SOL    HW283793   1.454  10.103   7.790  0.3538  0.1165 -1.1432
58979SOL     OW83794   2.858   5.807   6.789  0.6435 -0.4890  0.0354
58979SOL    HW183795   2.829   5.853   6.868 -0.6043  0.0597 -0.7207
58979SOL    HW283796   2.778   5.778   6.747  1.3362 -1.7621 -0.4796
58980SOL     OW83797   6.078   2.815   7.654 -0.2175  0.0131  0.5130
58980SOL    HW183798   6.130   2.832   7.575 -1.0072  0.9144  0.1785
58980SOL    HW283799   6.119   2.737   7.692 -0.3198 -0.9300 -1.2206
58981SOL     OW83800  10.746   9.133   7.960 -0.5466  0.0154  0.2341
58981SOL    HW183801  10.653   9.145   7.942 -0.4126  2.2000  0.7186
58981SOL    HW283802  10.750   9.102   8.050 -0.8054  0.2695  0.3329
58982SOL     OW83803  12.169   8.146   4.116  0.3991  0.1099 -0.0635
58982SOL    HW183804  12.237   8.203   4.081 -0.2162 -0.2058 -1.8617
58982SOL    HW283805  12.090   8.200   4.116  0.4231  0.1704  1.0982
58983SOL     OW83806   2.523  11.897   5.566  0.6484  0.3566 -0.2260
58983SOL    HW183807   2.592  11.961   5.583  0.9351 -0.0325  0.0643
58983SOL    HW283808   2.521  11.890   5.470 -0.8310  2.3887 -0.4300
58984SOL     OW83809   4.534  10.625   0.363  0.2578  0.0354 -0.7179
58984SOL    HW183810   4.624  10.656   0.350  0.7543 -1.1120 -0.0956
58984SOL    HW283811   4.489  10.651   0.282  0.7651  1.8755 -0.4651
58985SOL     OW83812   6.619   6.249  10.566 -1.0143  0.3243  0.7948
58985SOL    HW183813   6.551   6.312  10.541 -1.9817 -0.7080  0.7041
58985SOL    HW283814   6.573   6.165  10.569  0.0759 -0.2697  1.6374
58986SOL     OW83815   2.375   3.998   6.910  0.1039 -0.1274  0.5363
58986SOL    HW183816   2.448   4.030   6.858 -0.2057 -0.8933 -0.4066
58986SOL    HW283817   2.306   3.979   6.846 -0.7837  0.2131  1.3651
58987SOL     OW83818   7.773   6.617   0.035 -0.8927 -0.2009  0.1032
58987SOL    HW183819   7.734   6.580  -0.045 -0.9140  0.0689 -0.0116
58987SOL    HW283820   7.768   6.546   0.099  3.3085 -2.1678 -1.3769
58988SOL     OW83821   2.684   9.247   2.034 -0.2599  0.3000 -0.3013
58988SOL    HW183822   2.610   9.287   1.988 -1.3588 -1.0177  0.2684
58988SOL    HW283823   2.745   9.224   1.964 -0.4703  1.2024 -0.8005
58989SOL     OW83824   8.388   3.154   0.761  0.1942 -0.1509 -0.4677
58989SOL    HW183825   8.450   3.121   0.696  0.3948  0.0334 -0.3735
58989SOL    HW283826   8.394   3.091   0.834  0.1053 -0.2565 -0.5516
58990SOL     OW83827   8.982   3.635  10.074  0.4843 -0.6461  0.2952
58990SOL    HW183828   8.923   3.565  10.100 -3.1072  1.0920 -2.3214
58990SOL    HW283829   9.031   3.598  10.000 -1.8864 -0.3746 -1.5364
58991SOL     OW83830   9.550   4.845   5.558 -0.0443 -0.1794 -0.1237
58991SOL    HW183831   9.621   4.860   5.495 -0.7109 -0.4031 -0.9522
58991SOL    HW283832   9.505   4.929   5.563 -0.2615 -0.2824 -0.3010
58992SOL     OW83833  10.557   9.322   8.832 -0.3652  0.7075 -0.4852
58992SOL    HW183834  10.642   9.323   8.787 -0.9806 -2.4460 -2.0352
58992SOL    HW283835  10.576   9.285   8.918 -0.2195 -0.6958 -1.0968
58993SOL     OW83836   0.452   1.857   9.409  0.2052 -0.5554 -0.2324
58993SOL    HW183837   0.393   1.867   9.483  1.3453 -1.2605  0.8192
58993SOL    HW283838   0.423   1.922   9.345 -0.3310  0.6199  1.1593
58994SOL     OW83839   6.657   2.709   6.719  0.1587 -0.0712 -0.2419
58994SOL    HW183840   6.697   2.764   6.652 -0.0137  0.6477  0.2259
58994SOL    HW283841   6.674   2.620   6.691  0.0328  0.2174 -1.2716
58995SOL     OW83842   2.587  11.803   4.477  0.6673 -0.0498  0.1681
58995SOL    HW183843   2.665  11.757   4.509  0.0411 -1.0247  0.3502
58995SOL    HW283844   2.519  11.735   4.476 -0.9142  1.3614  2.6613
58996SOL     OW83845   2.955   0.140   3.354  0.2712  0.0470  1.0363
58996SOL    HW183846   2.957   0.053   3.394 -0.1637 -0.4704 -0.0432
58996SOL    HW283847   2.869   0.175   3.375  0.0635 -0.2025  0.6130
58997SOL     OW83848   1.995   6.762   1.282 -0.1370  0.1009 -0.3981
58997SOL    HW183849   1.974   6.725   1.196 -1.2578  0.2387 -0.1914
58997SOL    HW283850   1.914   6.803   1.311  0.5691  1.1274  0.1919
58998SOL     OW83851   8.048   4.975   7.104 -0.1159 -0.0135 -0.2630
58998SOL    HW183852   7.975   4.969   7.042 -2.4904 -1.1352  2.4336
58998SOL    HW283853   8.099   4.895   7.089 -0.8204 -0.4100 -0.5813
58999SOL     OW83854   1.753   7.539   4.871 -0.1313  0.4893  0.1823
58999SOL    HW183855   1.810   7.515   4.799  0.6826  2.6312  0.0312
58999SOL    HW283856   1.719   7.625   4.847  0.1068  1.2340  2.2859
59000SOL     OW83857   2.228   1.356   5.880  0.2094  0.0051 -0.1854
59000SOL    HW183858   2.165   1.285   5.871 -0.2842  0.2716  0.9685
59000SOL    HW283859   2.275   1.337   5.962  1.1566  0.1812 -0.6724
59001SOL     OW83860  10.472   0.383   0.716 -0.3542 -0.0733 -0.1238
59001SOL    HW183861  10.551   0.437   0.708 -0.6566  0.2419 -1.0428
59001SOL    HW283862  10.504   0.300   0.751  0.3520  0.1364 -0.2531
59002SOL     OW83863   8.717   2.412  12.457 -0.5078  0.0908 -0.4109
59002SOL    HW183864   8.769   2.478  12.502 -1.7826  1.2916 -0.6133
59002SOL    HW283865   8.729   2.432  12.364  0.2145 -0.8623 -0.5288
59003SOL     OW83866   7.881   5.284   6.201 -0.2133  0.7909  0.5762
59003SOL    HW183867   7.796   5.317   6.170  0.6272  1.4057 -1.2578
59003SOL    HW283868   7.923   5.250   6.122  1.3634  0.7472  1.3975
59004SOL     OW83869   9.643   1.959  10.886 -0.1271 -0.5026  0.4928
59004SOL    HW183870   9.560   1.912  10.893  0.6181 -1.8672  0.4212
59004SOL    HW283871   9.703   1.896  10.847  0.8192  0.6358  0.0709
59005SOL     OW83872   4.296  10.987   0.888  0.4386  0.4787  0.5209
59005SOL    HW183873   4.365  11.035   0.842  0.3536  0.7835  0.7052
59005SOL    HW283874   4.235  11.055   0.917 -0.3444  0.1401 -0.3037
59006SOL     OW83875   6.004   2.790   1.665 -0.2902  0.3592 -0.3262
59006SOL    HW183876   6.028   2.715   1.609 -1.3994 -0.3711  0.1557
59006SOL    HW283877   5.996   2.753   1.753 -0.0671  1.2146  0.0643
59007SOL     OW83878   9.122   8.937  10.847 -0.0957 -0.1852  0.0370
59007SOL    HW183879   9.084   8.888  10.774  1.4235 -0.7491 -0.4107
59007SOL    HW283880   9.135   8.872  10.916  0.9299 -0.2061 -0.1669
59008SOL     OW83881  11.187  10.361   4.005 -0.0757  0.5098  0.2642
59008SOL    HW183882  11.115  10.379   4.065  0.1604  0.9050  0.4340
59008SOL    HW283883  11.233  10.287   4.044 -0.4089  0.2294  0.1340
59009SOL     OW83884   8.240   3.329   9.035 -0.4944  0.2429 -0.0819
59009SOL    HW183885   8.316   3.363   8.987 -0.0427 -0.1746  0.3331
59009SOL    HW283886   8.192   3.407   9.062  0.5245  0.5608  0.8487
59010SOL     OW83887   0.526   5.099  11.573  0.3513 -0.4297  0.2871
59010SOL    HW183888   0.454   5.036  11.568 -0.0234 -0.0333  0.5877
59010SOL    HW283889   0.557   5.091  11.664 -1.0687  1.2881  0.9834
59011SOL     OW83890  10.950   1.621   5.849 -0.1016  0.0905  0.3885
59011SOL    HW183891  10.904   1.672   5.917 -0.5295  3.4901 -2.1627
59011SOL    HW283892  10.879   1.580   5.799  0.2029 -2.2413  1.7646
59012SOL     OW83893   4.303   4.978   2.109 -0.3284  0.1955  0.0375
59012SOL    HW183894   4.245   5.039   2.063 -2.1667  0.2369  2.2545
59012SOL    HW283895   4.274   4.891   2.081 -0.2358  0.2460 -0.2215
59013SOL     OW83896  11.926   9.097   0.152  0.8532  0.1164 -0.5941
59013SOL    HW183897  11.998   9.056   0.104  1.4953 -0.3025  0.6840
59013SOL    HW283898  11.969   9.156   0.214  0.0226  0.9557 -0.7890
59014SOL     OW83899   3.016   6.839   9.400 -0.4593  0.1761  0.4453
59014SOL    HW183900   3.007   6.809   9.309 -1.0218 -0.5973  0.7447
59014SOL    HW283901   3.015   6.759   9.452  0.5182  0.5731  1.0977
59015SOL     OW83902   7.511  10.027  10.494 -0.1999 -0.3022  0.2504
59015SOL    HW183903   7.468  10.093  10.550 -0.4036 -0.1260 -0.1141
59015SOL    HW283904   7.576   9.986  10.552 -2.6398 -2.4890  1.6691
59016SOL     OW83905  12.432   6.236   6.495 -0.1642  0.0561  0.0145
59016SOL    HW183906  12.447   6.148   6.531  2.9657  0.2529 -0.5344
59016SOL    HW283907  12.368   6.222   6.425  0.9723 -2.0025 -0.7121
59017SOL     OW83908   2.632   7.471   2.131  0.2463  0.0856  0.1745
59017SOL    HW183909   2.629   7.383   2.094  1.7479  0.5090 -1.0831
59017SOL    HW283910   2.671   7.525   2.062  1.3733  1.3062  1.6639
59018SOL     OW83911   7.106  11.645  12.271  0.2682 -0.3510 -0.0116
59018SOL    HW183912   7.184  11.600  12.237 -1.6109 -3.9558 -0.0717
59018SOL    HW283913   7.110  11.630  12.366 -1.1499 -2.1929 -0.1875
59019SOL     OW83914  11.084   2.655   6.955  0.0294 -0.3666 -0.2516
59019SOL    HW183915  11.166   2.672   6.909  0.7560 -0.2158  1.0467
59019SOL    HW283916  11.016   2.680   6.892  0.9858  1.8397 -0.5192
59020SOL     OW83917   3.898  11.509   8.816  0.4990  0.4153  0.3889
59020SOL    HW183918   3.865  11.529   8.904 -1.0449  1.6271 -0.4096
59020SOL    HW283919   3.993  11.502   8.827  0.4283  1.3793  2.0065
59021SOL     OW83920  10.649   8.171   5.428 -0.6846  0.6605  0.2687
59021SOL    HW183921  10.702   8.190   5.505 -0.8423  0.7060  0.3679
59021SOL    HW283922  10.698   8.105   5.379  0.1787  1.7605 -0.3917
59022SOL     OW83923  12.139  11.414   8.033 -0.0730 -0.5397  0.2904
59022SOL    HW183924  12.064  11.354   8.040 -1.1718  0.2570 -3.0492
59022SOL    HW283925  12.100  11.501   8.032  0.8188 -0.1169 -1.6212
59023SOL     OW83926   4.453  11.816   2.553  0.7318  0.1804  0.0452
59023SOL    HW183927   4.383  11.769   2.507 -1.5851  1.1267  2.4029
59023SOL    HW283928   4.473  11.761   2.628  1.1343  0.8744  0.4466
59024SOL     OW83929   2.584   8.196   6.662 -0.2272 -0.6857 -0.4542
59024SOL    HW183930   2.665   8.244   6.678 -0.9186  0.6223 -0.7232
59024SOL    HW283931   2.612   8.108   6.640  1.1154 -0.2748 -0.4575
59025SOL     OW83932   9.629   9.855   4.217  0.2123 -0.2368 -0.3142
59025SOL    HW183933   9.703   9.817   4.171  0.2392  0.7884 -1.1633
59025SOL    HW283934   9.562   9.867   4.150  0.4568  1.8278 -0.2700
59026SOL     OW83935   6.970  11.881   8.131 -0.1416  0.0725 -0.3036
59026SOL    HW183936   6.971  11.809   8.068  0.4098  0.1285 -0.3645
59026SOL    HW283937   7.044  11.936   8.106  0.4880 -0.2478  0.7876
59027SOL     OW83938   5.815   4.147   9.126  0.2095 -0.0265 -0.7258
59027SOL    HW183939   5.843   4.159   9.035 -0.8837 -0.2973 -1.1020
59027SOL    HW283940   5.777   4.232   9.151 -1.1261 -0.4926 -1.1159
59028SOL     OW83941   2.335   7.163  12.320  0.4541 -0.0789 -0.3453
59028SOL    HW183942   2.396   7.235  12.337 -0.0182  0.4973 -1.0119
59028SOL    HW283943   2.249   7.202  12.332  0.2109 -0.8155  0.3085
59029SOL     OW83944  11.040   7.291  11.578 -0.0433  0.2227  0.2797
59029SOL    HW183945  11.032   7.228  11.507 -0.3201  1.0184 -0.4179
59029SOL    HW283946  11.134   7.299  11.592 -0.0430 -1.7544  1.6943
59030SOL     OW83947   6.045   7.245   8.366 -0.1365 -0.3481  0.1250
59030SOL    HW183948   6.013   7.313   8.425  0.9906  0.6729 -0.3827
59030SOL    HW283949   6.112   7.199   8.416 -2.2330 -2.4697  1.1811
59031SOL     OW83950   5.464   6.371   3.843 -0.2300 -0.0892  0.1932
59031SOL    HW183951   5.550   6.334   3.862  0.6316  1.7435  0.0637
59031SOL    HW283952   5.445   6.428   3.917 -1.0609 -0.0129 -0.0661
59032SOL     OW83953   7.984   2.377   6.747 -0.5889  0.6334 -0.3195
59032SOL    HW183954   8.053   2.443   6.735 -2.3201  2.6262  0.0520
59032SOL    HW283955   7.911   2.426   6.783 -1.6481 -1.7411  0.9729
59033SOL     OW83956   3.312   6.373   3.871 -0.5978  0.2787 -0.2412
59033SOL    HW183957   3.351   6.450   3.913  0.6147 -0.3413 -0.1734
59033SOL    HW283958   3.382   6.308   3.871 -1.6050 -0.8427 -0.2745
59034SOL     OW83959   2.924   4.096  10.904  0.9944  0.7130 -0.0086
59034SOL    HW183960   2.908   4.143  10.986 -0.3322  0.9746 -0.3855
59034SOL    HW283961   2.913   4.163  10.836 -0.3778  0.0183 -0.5157
59035SOL     OW83962   7.293   6.551  12.534  1.1583 -0.2538 -0.2454
59035SOL    HW183963   7.346   6.537  12.612  0.2746 -1.7444  0.1342
59035SOL    HW283964   7.355   6.550  12.461  2.0234  1.4144  0.4221
59036SOL     OW83965   1.089   5.249   0.868 -0.4717 -0.1491 -0.7912
59036SOL    HW183966   1.067   5.288   0.784 -0.9043  2.4764  0.4322
59036SOL    HW283967   1.078   5.320   0.931 -0.3602 -2.0639  1.5304
59037SOL     OW83968   6.962  10.003   6.748 -0.7306  0.0331  0.0217
59037SOL    HW183969   6.893  10.065   6.723 -0.4816  0.6933  0.9038
59037SOL    HW283970   7.018   9.996   6.671 -2.4195 -1.4489 -1.1490
59038SOL     OW83971   2.145   4.388  10.598 -0.2173 -0.0310 -0.1005
59038SOL    HW183972   2.103   4.334  10.665 -0.2424  0.0941 -0.0166
59038SOL    HW283973   2.081   4.457  10.579  0.6922  1.2390  1.3422
59039SOL     OW83974   4.288   0.419   0.346  0.2207 -0.0536  0.0273
59039SOL    HW183975   4.337   0.413   0.428  0.7589  0.7680 -0.2216
59039SOL    HW283976   4.347   0.464   0.286 -0.8434  0.9990 -0.2670
59040SOL     OW83977   3.038   0.686   0.623  0.6560  0.3097 -0.5899
59040SOL    HW183978   3.058   0.779   0.613 -0.0263  0.5894  0.4932
59040SOL    HW283979   3.123   0.642   0.614  1.0409  1.0632 -0.7345
59041SOL     OW83980   5.288  12.135   3.993  0.0449  0.0843  0.1830
59041SOL    HW183981   5.226  12.141   3.921  1.2791  1.2695 -0.8095
59041SOL    HW283982   5.271  12.048   4.031 -1.5139 -0.0249 -0.6710
59042SOL     OW83983   7.100  10.769  10.313 -0.1521 -0.2015  0.0130
59042SOL    HW183984   7.071  10.817  10.391 -0.8852 -0.3635 -0.1525
59042SOL    HW283985   7.024  10.715  10.288  0.4237 -0.9315 -0.2045
59043SOL     OW83986   3.293  12.426   6.050 -0.5739  0.1070 -0.1750
59043SOL    HW183987   3.222  12.490   6.057  0.3684  1.1569  0.1549
59043SOL    HW283988   3.258  12.356   5.994 -1.5911  0.9571 -0.6312
59044SOL     OW83989   9.188   9.571   8.749 -0.1492 -0.3005 -0.0077
59044SOL    HW183990   9.135   9.492   8.739  1.4376 -1.2748 -1.1533
59044SOL    HW283991   9.263   9.543   8.801  1.7571 -0.2952 -2.5684
59045SOL     OW83992   2.193   4.513   0.482  0.0295 -0.3599 -0.4453
59045SOL    HW183993   2.228   4.438   0.433 -0.0481 -0.9837  0.4354
59045SOL    HW283994   2.112   4.534   0.437  0.1647 -0.6594 -0.8403
59046SOL     OW83995   8.653  11.240   5.868  0.5049 -0.0002  0.3279
59046SOL    HW183996   8.668  11.216   5.776 -1.6159 -0.9371  0.1853
59046SOL    HW283997   8.612  11.327   5.864  1.6256  0.5560  0.4893
59047SOL     OW83998   8.969   3.595   1.514 -0.0264 -0.1389 -0.2554
59047SOL    HW183999   8.943   3.682   1.482 -0.3351 -0.2076 -0.1944
59047SOL    HW284000   9.053   3.578   1.471 -0.8193 -0.5906 -1.7010
59048SOL     OW84001   8.752   6.171   7.629  0.7843 -0.1455  0.2273
59048SOL    HW184002   8.841   6.189   7.656  0.9109  0.9554 -0.8244
59048SOL    HW284003   8.715   6.257   7.607 -1.3354 -0.2476  2.8567
59049SOL     OW84004   9.120  10.826   4.665  0.3057  0.4415 -0.4326
59049SOL    HW184005   9.082  10.816   4.753 -1.8107  2.0163 -1.0999
59049SOL    HW284006   9.163  10.911   4.667  1.6164 -0.1930 -0.5006
59050SOL     OW84007   6.680   4.442  12.128 -0.3214  0.5301 -0.1178
59050SOL    HW184008   6.669   4.502  12.202  1.7419 -0.9639  1.5159
59050SOL    HW284009   6.629   4.365  12.152  1.4972 -0.5432  0.5389
59051SOL     OW84010   3.024   2.557  10.653 -0.5232 -0.0602  0.0506
59051SOL    HW184011   2.941   2.520  10.683 -1.5180  2.1776  0.2557
59051SOL    HW284012   3.080   2.481  10.638 -2.7964 -1.7013 -0.7342
59052SOL     OW84013   5.500  12.498  10.467 -0.3900  0.5442 -0.3830
59052SOL    HW184014   5.455  12.472  10.547  0.5914  1.4206  0.4877
59052SOL    HW284015   5.439  12.476  10.396 -1.0260 -0.7888  0.5515
59053SOL     OW84016   1.108   5.276  11.481 -0.5595  1.0967 -0.3714
59053SOL    HW184017   1.197   5.310  11.476 -0.4138  0.7143 -0.4156
59053SOL    HW284018   1.063   5.314  11.405  0.3606 -0.9602 -2.0572
59054SOL     OW84019   7.587   8.496   0.196  0.0469  0.4983 -0.3626
59054SOL    HW184020   7.606   8.403   0.188 -1.4660  0.3209 -4.1688
59054SOL    HW284021   7.671   8.535   0.223  0.8282 -1.8484  0.8659
59055SOL     OW84022   6.311   8.355   8.751  0.3777 -0.0958 -0.5612
59055SOL    HW184023   6.239   8.337   8.811 -0.3993  0.2270 -1.3890
59055SOL    HW284024   6.371   8.282   8.764  0.9889  0.7125  1.7139
59056SOL     OW84025   9.712   1.417   4.268  0.0249 -0.4112  0.1445
59056SOL    HW184026   9.666   1.459   4.195  0.7771 -0.4294 -0.3522
59056SOL    HW284027   9.732   1.329   4.235 -0.4312 -0.7322  0.7149
59057SOL     OW84028   3.547  11.415   9.036 -0.0843  0.0768  0.2519
59057SOL    HW184029   3.622  11.373   9.078  1.2696  1.0825 -1.0570
59057SOL    HW284030   3.484  11.429   9.107  1.1459 -0.3735  1.4743
59058SOL     OW84031  11.765  10.218  10.570 -0.4631 -0.4612  0.6312
59058SOL    HW184032  11.684  10.243  10.614 -0.5521 -2.2223  1.5497
59058SOL    HW284033  11.827  10.288  10.591 -2.2863  2.2615 -2.1133
59059SOL     OW84034   2.045   8.017   0.321 -0.3848 -0.0477  0.0228
59059SOL    HW184035   2.016   8.054   0.237 -2.5721  1.1857  1.2209
59059SOL    HW284036   2.075   8.093   0.371 -0.5237 -0.5397  0.8711
59060SOL     OW84037   8.277   4.532   1.205 -0.6093 -0.3678 -0.1198
59060SOL    HW184038   8.334   4.525   1.128 -1.1618 -0.4866 -0.5281
59060SOL    HW284039   8.217   4.457   1.196 -1.2415  0.1265 -0.0438
59061SOL     OW84040   6.527   8.399   4.366 -0.1738  0.7534 -0.0510
59061SOL    HW184041   6.460   8.404   4.434 -0.2421  0.6816 -0.1134
59061SOL    HW284042   6.608   8.425   4.410 -0.1410  0.2906  0.1610
59062SOL     OW84043   5.485   4.522   4.217  0.5598  0.7609  0.1712
59062SOL    HW184044   5.566   4.509   4.267  0.9270 -2.9492 -1.1217
59062SOL    HW284045   5.417   4.484   4.272  0.5676 -0.9254 -0.9241
59063SOL     OW84046  11.954   3.561   3.661  0.0884 -0.9568 -0.6679
59063SOL    HW184047  12.003   3.540   3.740  1.6132 -1.0276 -1.5968
59063SOL    HW284048  11.864   3.534   3.680  0.7619 -2.5393  0.4215
59064SOL     OW84049   9.495   2.071   7.775  0.2621  0.0838  0.2395
59064SOL    HW184050   9.420   2.125   7.802  0.7400  1.2640 -0.6776
59064SOL    HW284051   9.571   2.127   7.792  0.8295 -0.5703 -0.1365
59065SOL     OW84052   7.923   0.348   8.501  0.4659 -0.2742 -0.1351
59065SOL    HW184053   7.870   0.427   8.496 -0.1941 -0.5460  1.8485
59065SOL    HW284054   7.860   0.277   8.516  1.2079 -0.9076  0.0698
59066SOL     OW84055   3.787   9.210   6.935 -0.5283 -0.1146 -0.0723
59066SOL    HW184056   3.726   9.148   6.893 -1.3794  0.1289  0.7851
59066SOL    HW284057   3.818   9.164   7.013  0.7839 -0.4231 -0.7332
59067SOL     OW84058   8.682   5.493  10.908 -0.2422  0.0502  0.3207
59067SOL    HW184059   8.735   5.562  10.867 -0.1057 -0.7694 -0.9336
59067SOL    HW284060   8.746   5.432  10.944 -0.1737 -1.7345 -2.5057
59068SOL     OW84061   9.261   8.488   1.083  0.0552 -0.5094  0.3799
59068SOL    HW184062   9.319   8.532   1.145 -1.0415 -0.6084  1.5053
59068SOL    HW284063   9.234   8.408   1.127 -0.9721 -0.4457 -0.1076
59069SOL     OW84064  11.861   7.813   0.403 -0.9999 -0.0695 -0.0698
59069SOL    HW184065  11.916   7.741   0.434 -1.1537 -0.4588 -0.6957
59069SOL    HW284066  11.820   7.847   0.482 -0.1773 -0.0356  0.3577
59070SOL     OW84067   9.172   4.845  11.839 -0.5001  0.1763 -0.1589
59070SOL    HW184068   9.198   4.873  11.927  1.5330 -0.4858 -0.5007
59070SOL    HW284069   9.153   4.926  11.793  0.6942  0.6961  0.2310
59071SOL     OW84070   0.246   0.983   3.209  0.2186 -0.1548  0.2406
59071SOL    HW184071   0.206   1.055   3.258 -0.2763 -1.0935  1.2566
59071SOL    HW284072   0.173   0.941   3.164  0.6647  0.7102 -1.4163
59072SOL     OW84073   1.434  10.157   5.039  0.6025 -0.4207  0.0880
59072SOL    HW184074   1.487  10.211   5.098  1.1853 -0.2312 -0.6003
59072SOL    HW284075   1.482  10.075   5.032 -0.7153 -1.4362  1.8360
59073SOL     OW84076   8.329   3.837   6.827 -0.8012 -0.3396  0.0246
59073SOL    HW184077   8.240   3.848   6.860 -1.0270  0.3743 -0.7852
59073SOL    HW284078   8.330   3.751   6.786 -1.2799 -0.1370 -0.4246
59074SOL     OW84079   6.562   9.043   3.600 -0.5283 -0.4330  0.2218
59074SOL    HW184080   6.533   9.102   3.531 -2.1397 -1.9973 -0.5226
59074SOL    HW284081   6.481   9.010   3.639  0.3320 -1.5040  1.1828
59075SOL     OW84082   4.280  10.346   5.255  0.2477  0.1398  0.1338
59075SOL    HW184083   4.278  10.307   5.342 -0.0431  1.6248  0.8329
59075SOL    HW284084   4.189  10.349   5.227  0.4980 -2.3445 -1.2267
59076SOL     OW84085   6.203   7.833   7.034  0.0558 -0.2740 -0.1884
59076SOL    HW184086   6.297   7.839   7.048  0.1281 -0.5653 -0.5161
59076SOL    HW284087   6.170   7.922   7.047  0.5547  0.0924 -1.3460
59077SOL     OW84088   1.655   9.864   6.779  0.1891 -0.1437  0.2923
59077SOL    HW184089   1.726   9.929   6.778 -0.7329  0.9353 -1.4290
59077SOL    HW284090   1.683   9.798   6.715 -0.0041 -0.1376  0.2020
59078SOL     OW84091   9.387   9.923   7.983  0.5082 -0.8638  0.3076
59078SOL    HW184092   9.340   9.843   8.002  0.3141 -0.5882  1.0186
59078SOL    HW284093   9.338   9.992   8.029  1.2574 -0.4943  0.5764
59079SOL     OW84094   7.358  10.571   2.311  0.4450 -0.1566  0.3608
59079SOL    HW184095   7.321  10.553   2.398  1.6958  0.5297  1.0644
59079SOL    HW284096   7.293  10.628   2.269 -0.2752 -0.6749  0.7520
59080SOL     OW84097   1.430   4.744   1.890 -0.0539  0.0601  0.1925
59080SOL    HW184098   1.408   4.685   1.961  0.8613 -2.1466 -1.2443
59080SOL    HW284099   1.352   4.745   1.834  0.1687 -0.3486 -0.1311
59081SOL     OW84100   4.113   6.320   3.542 -0.1161 -0.0380 -0.0815
59081SOL    HW184101   4.061   6.397   3.521 -2.4239 -0.7958  2.3336
59081SOL    HW284102   4.184   6.353   3.597 -1.2484  0.3620  1.1727
59082SOL     OW84103  10.240   3.057  12.304 -0.0190  0.4656  0.0443
59082SOL    HW184104  10.176   2.990  12.284  0.5734 -0.1160  0.0684
59082SOL    HW284105  10.249   3.107  12.223 -1.0038  0.9879  0.2461
59083SOL     OW84106   8.875   9.162  11.254 -0.5170  0.2996 -0.9115
59083SOL    HW184107   8.956   9.114  11.271 -1.3018 -1.1536 -1.0456
59083SOL    HW284108   8.833   9.168  11.340  0.1058  1.8381 -0.6803
59084SOL     OW84109   5.273   5.735   4.433  0.0034 -0.2503  0.0579
59084SOL    HW184110   5.337   5.664   4.436  2.4551  1.6375 -2.4527
59084SOL    HW284111   5.202   5.702   4.379  0.2543 -1.3520  0.3839
59085SOL     OW84112   2.213   0.421   0.623  0.2265  0.5119 -0.1444
59085SOL    HW184113   2.297   0.429   0.578  1.0598  0.9199  1.4021
59085SOL    HW284114   2.156   0.378   0.559  1.6625  0.0163 -1.1620
59086SOL     OW84115   0.020   9.126  10.527 -0.4576  0.0963 -0.3159
59086SOL    HW184116  -0.065   9.112  10.570  0.1459  1.0873  1.2763
59086SOL    HW284117   0.020   9.219  10.504 -0.7045 -0.3798 -2.4254
59087SOL     OW84118   4.583   2.499   9.637 -0.4564 -0.1785  1.0679
59087SOL    HW184119   4.502   2.469   9.594 -0.7651  0.4562  1.1837
59087SOL    HW284120   4.634   2.420   9.651 -1.9780 -0.9198  2.9244
59088SOL     OW84121   1.644   4.826   0.180  0.3244 -0.0112 -0.0912
59088SOL    HW184122   1.615   4.747   0.226 -0.8133  0.8320  0.7016
59088SOL    HW284123   1.573   4.847   0.120 -1.1629  2.4145  2.2840
59089SOL     OW84124   9.578   0.110   7.506 -0.4666  0.2430 -0.2331
59089SOL    HW184125   9.566   0.193   7.459 -1.1494 -0.2041 -0.8841
59089SOL    HW284126   9.535   0.045   7.450 -1.0265 -0.3625  0.8743
59090SOL     OW84127   0.320   9.075   1.288  0.3521 -0.3727 -0.0577
59090SOL    HW184128   0.376   8.999   1.297 -0.4546 -0.9232  0.5115
59090SOL    HW284129   0.369   9.136   1.234  0.5086 -1.7931 -1.5790
59091SOL     OW84130   4.945   3.455   2.755  0.4702 -0.3271  0.2632
59091SOL    HW184131   4.930   3.380   2.813  0.3835 -0.5227 -0.0080
59091SOL    HW284132   4.878   3.446   2.687 -1.8570  1.9197  2.0694
59092SOL     OW84133   6.549   8.172   4.099  0.3190  0.5843 -0.0850
59092SOL    HW184134   6.528   8.112   4.027  3.1856  2.1933 -2.4873
59092SOL    HW284135   6.537   8.260   4.061 -0.2092  1.5585  2.1663
59093SOL     OW84136   2.837  12.080   3.984 -0.0145  0.3552 -0.3091
59093SOL    HW184137   2.874  12.071   3.896 -2.8829 -1.3074 -1.5044
59093SOL    HW284138   2.762  12.138   3.973 -0.5374 -0.0372  0.9952
59094SOL     OW84139   3.463   2.682   2.673 -0.1653  0.0642  0.5011
59094SOL    HW184140   3.437   2.665   2.582  1.1530  2.3508 -0.3817
59094SOL    HW284141   3.394   2.642   2.725 -1.0445 -1.1933 -1.4959
59095SOL     OW84142   6.852  11.776   7.486  0.3485 -0.3179 -0.4898
59095SOL    HW184143   6.873  11.794   7.394 -1.9255 -2.5713 -1.5811
59095SOL    HW284144   6.777  11.831   7.505 -0.7680 -1.6390 -0.8682
59096SOL     OW84145   0.423  10.117   1.597  0.0117 -0.2603 -0.1207
59096SOL    HW184146   0.414  10.205   1.633 -1.1504 -0.4803  0.1563
59096SOL    HW284147   0.463  10.066   1.667 -0.2080 -0.1745  0.0685
59097SOL     OW84148   9.971   2.069   3.952 -0.7277 -0.2184  0.3677
59097SOL    HW184149   9.993   2.073   3.859 -0.7208  0.2574  0.3864
59097SOL    HW284150  10.055   2.069   3.997 -0.7383  1.2122  0.4253
59098SOL     OW84151   9.887   7.771   7.239  0.1564  0.9956 -0.0566
59098SOL    HW184152   9.843   7.803   7.160  1.5995  1.2208 -0.7947
59098SOL    HW284153   9.849   7.684   7.254 -1.0970  1.4987 -0.2003
59099SOL     OW84154   4.874   1.723   4.992 -0.6159 -0.1793  0.0358
59099SOL    HW184155   4.947   1.762   4.944 -0.9922 -0.3341 -0.6959
59099SOL    HW284156   4.805   1.789   4.988 -0.7833 -0.3514  0.0024
59100SOL     OW84157   8.685  11.435  11.242  0.3743  0.2758 -0.2753
59100SOL    HW184158   8.713  11.496  11.311 -0.8011  1.0480 -0.4490
59100SOL    HW284159   8.675  11.491  11.165  1.0537 -0.4697 -0.9101
59101SOL     OW84160  12.538   3.546   0.337  0.4090 -0.1697 -0.1785
59101SOL    HW184161  12.510   3.565   0.247 -0.3140 -0.4422 -0.0156
59101SOL    HW284162  12.624   3.589   0.344  1.3175 -1.6429 -1.5599
59102SOL     OW84163   9.582  11.449  10.449  0.2883 -0.3533  0.0194
59102SOL    HW184164   9.662  11.444  10.501 -0.8838 -1.0649  1.8211
59102SOL    HW284165   9.575  11.541  10.425  1.3500 -0.1870  0.2872
59103SOL     OW84166   5.022   3.267   9.852 -0.2042  0.0039 -0.3176
59103SOL    HW184167   5.017   3.172   9.842  0.4194 -0.1507  0.7999
59103SOL    HW284168   4.950   3.289   9.911 -0.5498  0.2719 -0.8310
59104SOL     OW84169   9.961  12.115   9.455 -0.5504 -0.5951 -0.2684
59104SOL    HW184170   9.911  12.163   9.521  0.4182 -0.9503  0.7518
59104SOL    HW284171  10.032  12.174   9.430 -2.1527  0.4384 -2.6922
59105SOL     OW84172  11.863   6.916   0.180  0.0753 -0.3179 -0.7968
59105SOL    HW184173  11.873   6.901   0.086  2.2014  1.2429 -0.9004
59105SOL    HW284174  11.865   7.011   0.190  0.1553 -0.4585  0.8558
59106SOL     OW84175  12.272   2.355  11.749 -0.1681 -0.5245 -0.1880
59106SOL    HW184176  12.232   2.373  11.663  0.9484 -0.6683 -0.7525
59106SOL    HW284177  12.323   2.433  11.768 -0.5692 -0.4100  0.4605
59107SOL     OW84178   4.795  11.396  11.375  0.3073 -0.1708  1.0634
59107SOL    HW184179   4.803  11.326  11.310 -1.9480  0.4297  0.0227
59107SOL    HW284180   4.724  11.367  11.432  0.8347  0.2826  1.9621
59108SOL     OW84181  12.056   3.558   3.417  0.2568  0.5587  0.3013
59108SOL    HW184182  12.137   3.608   3.424  1.0122 -0.4286 -0.9947
59108SOL    HW284183  12.023   3.553   3.507  1.3841  1.3636  0.7827
59109SOL     OW84184   3.072   3.123   8.524 -0.1547 -0.0352  0.6120
59109SOL    HW184185   3.074   3.183   8.449  0.9896 -1.6854 -0.7604
59109SOL    HW284186   2.994   3.069   8.509 -0.5828  0.4043  1.2541
59110SOL     OW84187   4.641   8.468   1.812  0.3149  0.4992 -0.0478
59110SOL    HW184188   4.717   8.433   1.765 -1.9221 -1.9297 -2.1045
59110SOL    HW284189   4.591   8.515   1.746 -1.9760 -1.4044  0.2313
59111SOL     OW84190   2.654  12.304   3.575 -0.1839  0.8303 -0.2974
59111SOL    HW184191   2.666  12.272   3.485  0.3142  0.6101 -0.1585
59111SOL    HW284192   2.587  12.372   3.568 -0.5752  0.4081 -0.7457
59112SOL     OW84193   0.362   8.916   5.560 -0.3507 -0.4249 -0.2919
59112SOL    HW184194   0.446   8.941   5.598  0.5612  0.8876 -2.9178
59112SOL    HW284195   0.301   8.985   5.586 -0.0898 -0.2589 -0.1290
59113SOL     OW84196   8.411  10.679   6.709  0.0209 -0.3435 -0.0345
59113SOL    HW184197   8.375  10.737   6.776  1.0080 -0.4423  0.6082
59113SOL    HW284198   8.478  10.731   6.666  1.3807 -1.1606  0.9843
59114SOL     OW84199   5.916   0.856   8.011  0.0716  0.0404  0.1520
59114SOL    HW184200   5.954   0.865   7.923  0.5770 -2.6799  0.0018
59114SOL    HW284201   5.863   0.776   8.006  2.5182 -2.0047  3.0202
59115SOL     OW84202   0.588   5.665   2.298  0.0185 -0.2274  0.4092
59115SOL    HW184203   0.646   5.641   2.370  0.2687 -1.1406 -0.0822
59115SOL    HW284204   0.632   5.738   2.254 -0.2165  0.4550  1.2607
59116SOL     OW84205   9.850   7.467   6.610 -0.1782 -0.2368  0.5045
59116SOL    HW184206   9.915   7.397   6.599 -1.0568 -0.7266 -2.2404
59116SOL    HW284207   9.897   7.548   6.591  0.2104 -0.3145  1.1010
59117SOL     OW84208   1.077   0.465  10.145 -0.9517 -0.4332  0.0349
59117SOL    HW184209   1.061   0.553  10.177  2.0742  0.4905 -0.6198
59117SOL    HW284210   1.049   0.467  10.053 -0.2061  0.0930 -0.1850
59118SOL     OW84211   9.369   2.385   8.472 -0.5809 -0.5302  0.0680
59118SOL    HW184212   9.309   2.350   8.538 -0.4153  0.1854  0.6077
59118SOL    HW284213   9.452   2.394   8.517 -0.8418  1.4313  0.2324
59119SOL     OW84214   2.015   7.037   1.408  0.0605  0.1610  0.3936
59119SOL    HW184215   1.949   6.993   1.462  0.5806 -1.0589  0.0565
59119SOL    HW284216   2.041   7.114   1.459 -0.9493  0.1583  0.9348
59120SOL     OW84217   6.011   6.421  11.983  0.4591  0.3148  0.5305
59120SOL    HW184218   5.953   6.400  12.056  0.8853  0.0247  0.7930
59120SOL    HW284219   6.062   6.341  11.969  2.9348  1.4633  2.3038
59121SOL     OW84220  10.304  11.835   0.634  0.4597  0.3058 -0.0353
59121SOL    HW184221  10.234  11.805   0.692  0.8240 -0.0793  0.2038
59121SOL    HW284222  10.267  11.913   0.592  0.5673  1.2193  1.4764
59122SOL     OW84223   3.847   6.564  11.146 -0.1314 -0.4609  0.1741
59122SOL    HW184224   3.821   6.508  11.219 -1.1611 -0.9908 -0.5602
59122SOL    HW284225   3.826   6.653  11.175  0.9193 -0.4904  1.1018
59123SOL     OW84226  10.558   7.630   5.340  0.1706  0.3969  0.6818
59123SOL    HW184227  10.558   7.599   5.430  0.2569 -0.6636  0.3299
59123SOL    HW284228  10.465   7.641   5.319  0.0839 -0.6274  0.4873
59124SOL     OW84229  11.576   7.641   4.810  0.0958  0.3746  0.4278
59124SOL    HW184230  11.606   7.552   4.790 -0.7027  0.1107  0.3384
59124SOL    HW284231  11.576   7.687   4.726  1.4384  0.7613  0.6286
59125SOL     OW84232   2.494   1.432  11.245 -0.2810 -0.2290 -0.2690
59125SOL    HW184233   2.509   1.525  11.259  0.0041 -0.0826 -1.4705
59125SOL    HW284234   2.478   1.397  11.333  0.4147  0.8028  0.2920
59126SOL     OW84235   2.352   6.218   4.702  0.5573 -0.7523  0.3435
59126SOL    HW184236   2.344   6.134   4.747  1.5860 -0.6831  0.6891
59126SOL    HW284237   2.433   6.256   4.738 -0.8936  1.2745  1.6844
59127SOL     OW84238   9.879   1.561   4.001  0.1092 -0.1134  0.2548
59127SOL    HW184239   9.810   1.601   3.949 -0.8195  0.1336  1.6224
59127SOL    HW284240   9.866   1.467   3.990  0.9064 -0.0888 -1.1755
59128SOL     OW84241   4.383   4.086  10.336 -0.7097  0.2752 -0.9632
59128SOL    HW184242   4.332   4.044  10.405 -0.6936  0.6363 -0.7302
59128SOL    HW284243   4.447   4.140  10.383 -0.0188 -0.2741 -1.2423
59129SOL     OW84244   7.535   3.520   0.997 -0.3211  0.5096  0.4680
59129SOL    HW184245   7.588   3.489   0.924 -1.4774 -1.4584  0.3799
59129SOL    HW284246   7.597   3.533   1.068  0.5319  0.2609 -0.2124
59130SOL     OW84247   8.661   6.017   6.925 -0.0852  0.0648  0.0379
59130SOL    HW184248   8.698   5.993   6.840 -0.5077 -0.3219 -0.0406
59130SOL    HW284249   8.668   6.112   6.929  2.5732 -0.0557  0.7700
59131SOL     OW84250   3.772   5.087   3.085  0.1299  0.3610 -0.5495
59131SOL    HW184251   3.744   5.163   3.034  0.1064  0.2397 -0.7171
59131SOL    HW284252   3.831   5.039   3.027 -1.2198 -0.6982 -1.1075
59132SOL     OW84253   6.603   2.700   9.886 -0.3487 -0.5859 -0.0314
59132SOL    HW184254   6.688   2.687   9.843 -0.7041  0.3639 -1.0673
59132SOL    HW284255   6.542   2.713   9.814 -0.5452  3.6640  0.6582
59133SOL     OW84256   6.467  10.008   8.128  0.8947  0.3493 -0.2249
59133SOL    HW184257   6.520   9.980   8.054 -0.0138  1.1630 -1.2270
59133SOL    HW284258   6.454  10.102   8.114 -0.0458  0.3393  0.4626
59134SOL     OW84259   2.188   5.606   9.924  0.0013  0.6234 -0.7521
59134SOL    HW184260   2.263   5.554   9.897 -1.3925 -2.2974  0.6206
59134SOL    HW284261   2.112   5.551   9.907 -1.5915  2.2120  0.7162
59135SOL     OW84262   0.995   9.186   7.488 -0.1903 -0.1309 -0.0461
59135SOL    HW184263   0.931   9.257   7.494 -0.5123 -0.3957 -0.2417
59135SOL    HW284264   0.978   9.147   7.402  1.5885  1.0576 -1.0001
59136SOL     OW84265  11.167  12.390  11.712  0.2453 -0.4008 -0.5498
59136SOL    HW184266  11.197  12.474  11.747 -2.8025  0.6361 -0.1069
59136SOL    HW284267  11.119  12.350  11.785 -1.9985 -0.4875 -1.9696
59137SOL     OW84268   7.103   4.643   1.287 -0.2021 -0.3066 -0.2897
59137SOL    HW184269   7.089   4.704   1.359 -0.8637  0.3840 -0.9766
59137SOL    HW284270   7.059   4.563   1.315  0.6770 -0.4912  0.6205
59138SOL     OW84271   1.840   8.690   7.095 -0.0836  0.3582  0.7781
59138SOL    HW184272   1.751   8.690   7.130 -0.3642 -3.2373  0.4471
59138SOL    HW284273   1.897   8.687   7.172 -0.3939 -0.0585  0.9962
59139SOL     OW84274   4.757  12.215   7.713 -0.2777 -0.3929 -0.4193
59139SOL    HW184275   4.804  12.283   7.667 -1.6164  0.0070 -1.2503
59139SOL    HW284276   4.758  12.140   7.654  2.2712 -1.6192  0.9861
59140SOL     OW84277   2.872   5.927   1.005  0.0344  0.5820  0.2798
59140SOL    HW184278   2.947   5.921   1.063  0.2018  1.8571  0.2183
59140SOL    HW284279   2.817   5.996   1.043 -1.1851 -0.4036  0.3987
59141SOL     OW84280   0.768   3.459   1.801  0.0826 -0.3650  0.4489
59141SOL    HW184281   0.753   3.539   1.751 -0.6566  0.1539  1.4627
59141SOL    HW284282   0.752   3.388   1.739  0.7832  0.2579 -0.4735
59142SOL     OW84283   0.373   5.761   0.723 -0.4018 -0.2734 -0.4240
59142SOL    HW184284   0.316   5.723   0.790 -2.6184 -0.8175 -2.4712
59142SOL    HW284285   0.365   5.855   0.736 -0.4463 -0.3748  0.3386
59143SOL     OW84286   1.284   7.105   0.622 -0.3156  0.0534 -0.4057
59143SOL    HW184287   1.349   7.074   0.686 -0.4392 -1.8366 -1.1085
59143SOL    HW284288   1.330   7.103   0.538 -0.0807  2.7558 -0.4071
59144SOL     OW84289   9.226   0.799   4.933  0.0375  0.2069  0.2315
59144SOL    HW184290   9.198   0.769   5.020  2.8272  0.1250  1.1827
59144SOL    HW284291   9.253   0.719   4.888  1.5944  0.5455  0.5021
59145SOL     OW84292   8.236   8.495   8.154 -0.2396  0.1502  0.1889
59145SOL    HW184293   8.232   8.462   8.244 -3.3839 -2.1379 -0.6204
59145SOL    HW284294   8.252   8.417   8.101 -0.2639  1.1850 -1.3927
59146SOL     OW84295   1.474  12.023   3.893  0.0050 -0.1033 -0.0135
59146SOL    HW184296   1.481  12.035   3.987  0.7971  2.0342 -0.2828
59146SOL    HW284297   1.565  12.020   3.863 -0.2400 -0.9097 -0.7004
59147SOL     OW84298   2.742   1.258  12.284 -0.0041  0.1784  0.1862
59147SOL    HW184299   2.806   1.294  12.346  0.9272 -1.0106 -0.0468
59147SOL    HW284300   2.761   1.164  12.283  0.0512  0.1834 -1.9717
59148SOL     OW84301   3.538   6.204   3.896 -0.4647  0.5790 -0.1240
59148SOL    HW184302   3.506   6.116   3.876 -1.7665  1.5512 -2.7915
59148SOL    HW284303   3.630   6.191   3.923 -1.2083 -1.7103  1.6787
59149SOL     OW84304   5.130   6.996   2.776 -0.4522 -0.2963 -0.3639
59149SOL    HW184305   5.037   6.985   2.795 -0.7997  2.0918 -0.3375
59149SOL    HW284306   5.131   7.053   2.699  1.0027 -1.0284 -0.9191
59150SOL     OW84307   8.810   2.200   4.602 -0.2571 -0.2441 -0.0520
59150SOL    HW184308   8.727   2.204   4.554 -0.1995 -0.7331 -0.2041
59150SOL    HW284309   8.846   2.114   4.579 -0.0632 -0.3366  0.6012
59151SOL     OW84310   4.211   1.432   9.973 -0.6769  0.2118  0.0212
59151SOL    HW184311   4.145   1.366   9.993  0.5896 -0.7267  1.2729
59151SOL    HW284312   4.250   1.403   9.891 -2.1409  1.0905 -1.0549
59152SOL     OW84313   1.048   0.526   0.904 -0.1892  0.6235  0.6280
59152SOL    HW184314   1.085   0.609   0.875 -0.2413 -0.0064 -1.4206
59152SOL    HW284315   0.956   0.545   0.921 -0.1618  1.0183  0.3306
59153SOL     OW84316  11.851   4.419   4.421 -0.3203 -0.2181 -0.6660
59153SOL    HW184317  11.773   4.365   4.410  0.1997 -1.1832  0.2840
59153SOL    HW284318  11.924   4.358   4.418  0.4654  0.7346 -2.0445
59154SOL     OW84319  12.248   6.677  12.537 -0.0723 -0.0662 -0.0029
59154SOL    HW184320  12.202   6.701  12.457  2.0063  1.3786 -0.8462
59154SOL    HW284321  12.331   6.642  12.507  1.4593  2.0546  1.4835
59155SOL     OW84322  10.604   5.640   9.810  0.0976  0.0509 -0.6021
59155SOL    HW184323  10.689   5.685   9.815  0.5067 -0.7397 -0.3823
59155SOL    HW284324  10.569   5.665   9.724  1.3863 -1.0761 -1.4822
59156SOL     OW84325   4.562   9.277   5.725  0.3228  0.2172 -0.5367
59156SOL    HW184326   4.489   9.268   5.664  0.6754 -0.1954 -0.9053
59156SOL    HW284327   4.581   9.371   5.726 -2.5729  0.9441  2.3801
59157SOL     OW84328   6.701   6.643   5.751 -0.1100  0.3997  0.1082
59157SOL    HW184329   6.793   6.640   5.777 -0.1517 -1.6264  0.1700
59157SOL    HW284330   6.690   6.728   5.708  1.9884  0.3140 -0.6663
59158SOL     OW84331   9.102   0.282   2.532  0.2731  0.9190 -0.0290
59158SOL    HW184332   9.165   0.315   2.597  2.3847 -0.1841 -1.3880
59158SOL    HW284333   9.062   0.360   2.495  0.6642  1.6589  1.0600
59159SOL     OW84334   8.916  11.081   0.775  0.0338  0.1360  0.2385
59159SOL    HW184335   8.867  11.004   0.746 -0.8775 -0.3069  2.7087
59159SOL    HW284336   9.005  11.065   0.745 -0.5302 -0.9571 -0.9534
59160SOL     OW84337   9.224   7.353   4.510 -0.3769  0.1451  0.1223
59160SOL    HW184338   9.172   7.434   4.508  0.5051  0.8579  2.3723
59160SOL    HW284339   9.224   7.327   4.602  1.0633 -1.2696 -0.2310
59161SOL     OW84340   7.032   2.513   5.110 -0.1550 -0.3485  0.4266
59161SOL    HW184341   7.060   2.422   5.100 -0.2170 -0.3124 -0.0852
59161SOL    HW284342   7.112   2.561   5.131  0.3587 -0.1194 -1.7860
59162SOL     OW84343   3.353   4.120   2.738 -0.4252 -0.3541 -0.9364
59162SOL    HW184344   3.289   4.137   2.670 -2.6950 -0.7237  0.9884
59162SOL    HW284345   3.303   4.084   2.811  1.5746  1.5295  1.5801
59163SOL     OW84346   5.763   2.687   5.963 -0.1704 -0.1138 -0.0618
59163SOL    HW184347   5.840   2.687   5.907 -1.2007  1.8946 -1.6220
59163SOL    HW284348   5.717   2.606   5.940  0.2310 -0.0932 -1.0038
59164SOL     OW84349   8.282  10.108   9.597 -0.5514  0.6252  0.2155
59164SOL    HW184350   8.325  10.164   9.533 -1.9929 -0.8062 -2.1544
59164SOL    HW284351   8.270  10.024   9.552 -1.5333 -0.5095  2.4142
59165SOL     OW84352  11.510   4.933   2.466 -0.2138 -0.3393 -0.1483
59165SOL    HW184353  11.471   4.866   2.409 -1.0446  0.8670 -1.0378
59165SOL    HW284354  11.505   4.895   2.554 -1.8186 -0.9417 -0.4635
59166SOL     OW84355  12.546   8.228   6.442 -0.3187 -0.1766 -0.0284
59166SOL    HW184356  12.545   8.301   6.380 -4.1445  1.0102  1.1654
59166SOL    HW284357  12.595   8.261   6.517  0.1673  0.1742 -0.4882
59167SOL     OW84358   8.053   5.472  10.269  0.3817  0.0279  0.9649
59167SOL    HW184359   8.074   5.529  10.343 -0.0658  1.8057 -0.1966
59167SOL    HW284360   8.091   5.518  10.193 -0.3413 -1.0367 -0.0716
59168SOL     OW84361   0.459  11.305   9.648 -0.4640 -0.3652  0.0240
59168SOL    HW184362   0.464  11.311   9.743  0.0125 -0.3401  0.0007
59168SOL    HW284363   0.391  11.240   9.630 -0.6432 -0.2718  0.3789
59169SOL     OW84364  12.428   2.427   1.695  0.3655  0.3218 -0.6166
59169SOL    HW184365  12.463   2.434   1.606 -0.7141  0.3544 -1.0466
59169SOL    HW284366  12.452   2.510   1.737  0.5584  0.4573 -0.9885
59170SOL     OW84367   3.245   7.799   6.301  0.0708 -0.0939 -0.0041
59170SOL    HW184368   3.163   7.835   6.334 -0.5490 -0.7341 -0.8433
59170SOL    HW284369   3.286   7.758   6.378 -0.4606  0.0862  0.3771
59171SOL     OW84370   5.638   7.985  10.608 -0.5379 -0.5569  0.5462
59171SOL    HW184371   5.734   7.986  10.617 -0.4904 -2.2798  0.5962
59171SOL    HW284372   5.623   7.945  10.522 -1.2212  1.0183 -0.1020
59172SOL     OW84373  11.585   1.829   1.853  0.0538  0.3249 -0.1175
59172SOL    HW184374  11.517   1.772   1.818  1.0130  0.5249 -2.4845
59172SOL    HW284375  11.665   1.778   1.845  0.5088  0.9202  0.5518
59173SOL     OW84376  10.750   4.765  12.453  0.0720  0.3939 -0.2135
59173SOL    HW184377  10.732   4.742  12.362  0.3952 -0.0574 -0.1655
59173SOL    HW284378  10.812   4.699  12.483 -1.8789 -0.9443  1.0944
59174SOL     OW84379   1.681   7.669   0.277 -0.9905 -0.5432 -0.1578
59174SOL    HW184380   1.708   7.624   0.197 -1.1558  0.2274 -0.6566
59174SOL    HW284381   1.638   7.749   0.247  2.4387  1.8558  0.6767
59175SOL     OW84382   4.570   1.972   9.712  0.7682 -0.7686 -0.3505
59175SOL    HW184383   4.598   2.022   9.789 -0.1438 -0.5091 -0.1838
59175SOL    HW284384   4.573   1.881   9.741 -0.9866 -0.5911  0.4742
59176SOL     OW84385   6.467   9.627   4.287 -0.2708 -1.0182  0.2982
59176SOL    HW184386   6.551   9.620   4.332 -1.4236 -1.1861  2.5612
59176SOL    HW284387   6.437   9.537   4.277 -0.6379 -0.9192  0.4656
59177SOL     OW84388   1.828  10.514   7.383  0.0974  0.3069 -0.1824
59177SOL    HW184389   1.816  10.423   7.355 -1.3405  0.3087  0.3569
59177SOL    HW284390   1.806  10.514   7.476  0.0941  1.2073 -0.1728
59178SOL     OW84391   0.847   6.673   1.561 -0.0748  0.1892  0.1200
59178SOL    HW184392   0.896   6.591   1.561 -0.8267 -0.2652 -0.2943
59178SOL    HW284393   0.755   6.647   1.557 -0.2871  1.0572 -1.7109
59179SOL     OW84394   7.398  10.043   2.117 -0.0621 -0.1467 -0.2985
59179SOL    HW184395   7.392   9.963   2.064 -0.3895 -0.4674  0.2243
59179SOL    HW284396   7.464  10.097   2.071 -0.2422 -0.4758 -0.9562
59180SOL     OW84397  10.341   1.305   4.506 -0.0105 -0.0981 -0.1613
59180SOL    HW184398  10.284   1.228   4.500 -0.4887  0.3359 -1.7338
59180SOL    HW284399  10.398   1.298   4.429 -0.2784  1.2587 -0.5021
59181SOL     OW84400   6.699   0.951  10.214  0.1193  0.6512 -0.3019
59181SOL    HW184401   6.621   0.998  10.184  1.4993  0.9717 -3.8455
59181SOL    HW284402   6.719   0.989  10.300 -1.6214  3.0280 -0.8557
59182SOL     OW84403   2.765   5.445   1.027 -0.2640 -0.1535  0.0372
59182SOL    HW184404   2.754   5.533   1.062 -1.9411 -0.3274  0.0254
59182SOL    HW284405   2.755   5.454   0.933 -0.0856 -0.3190 -0.0002
59183SOL     OW84406  10.614   1.182   9.825  0.0253  0.1529 -0.1952
59183SOL    HW184407  10.666   1.262   9.826  2.8215 -1.5148  1.6361
59183SOL    HW284408  10.650   1.131   9.753 -0.9472  0.0501 -0.6173
59184SOL     OW84409   5.609  11.445  12.409  0.4192 -0.1411 -0.1304
59184SOL    HW184410   5.521  11.462  12.441  0.2233  1.2988 -1.3296
59184SOL    HW284411   5.662  11.516  12.445  0.6279  0.2409 -1.1340
59185SOL     OW84412  11.866   4.561   8.951 -0.9951  0.3839 -0.6245
59185SOL    HW184413  11.840   4.604   9.032 -2.3111  1.5900 -1.6385
59185SOL    HW284414  11.838   4.470   8.962 -2.2059  0.7990 -0.1550
59186SOL     OW84415   1.009   0.082  12.320 -0.0845  0.1921 -0.3220
59186SOL    HW184416   1.000   0.035  12.403  0.8881 -0.9806 -0.8483
59186SOL    HW284417   1.082   0.142  12.334 -0.2869  0.4074 -0.1655
59187SOL     OW84418   1.600   6.221   5.299  0.2904  0.6618 -0.2492
59187SOL    HW184419   1.584   6.245   5.390 -0.3917 -0.2731 -0.1010
59187SOL    HW284420   1.674   6.160   5.303  0.8292  1.2900 -0.4263
59188SOL     OW84421   6.260   1.556  10.368  0.2570  0.4746  0.0977
59188SOL    HW184422   6.343   1.509  10.353  0.7246  1.2255  0.2796
59188SOL    HW284423   6.286   1.647  10.377 -0.5797  0.6876  0.3898
59189SOL     OW84424   9.272   8.045  12.550 -0.1769  0.2296  0.1656
59189SOL    HW184425   9.177   8.052  12.543 -0.1266 -0.5790 -2.5694
59189SOL    HW284426   9.303   8.135  12.536 -0.5131  0.1725 -1.1129
59190SOL     OW84427   7.693   6.039  10.458 -0.2879 -0.0121 -0.3214
59190SOL    HW184428   7.710   5.961  10.510  1.1874 -0.3093 -1.1899
59190SOL    HW284429   7.719   6.016  10.369  1.3248  1.8077 -0.3904
59191SOL     OW84430   6.030   4.446   5.656  0.3007  0.1343  0.5029
59191SOL    HW184431   6.018   4.530   5.611  1.1471  0.2084  0.3842
59191SOL    HW284432   6.074   4.469   5.738 -0.7728 -0.0556  1.1451
59192SOL     OW84433  10.915   2.734   7.409  0.5781  0.5712  0.3325
59192SOL    HW184434  10.960   2.754   7.327 -1.0027 -2.3613 -1.4242
59192SOL    HW284435  10.830   2.777   7.401  0.4819  0.4163  0.5037
59193SOL     OW84436   5.915   5.969  11.928 -0.6133 -0.3526 -0.1878
59193SOL    HW184437   5.979   5.941  11.994  1.5651  2.5893 -0.8672
59193SOL    HW284438   5.845   6.011  11.979 -0.8344 -1.3993  0.4063
59194SOL     OW84439   6.931   6.754  10.739  0.3986  0.6092 -0.2818
59194SOL    HW184440   6.863   6.711  10.792 -0.0796  0.8199 -0.7256
59194SOL    HW284441   7.007   6.695  10.746  0.1607  0.3496  0.1791
59195SOL     OW84442   3.794   9.936  11.488 -0.3967  0.1038  0.0173
59195SOL    HW184443   3.705   9.934  11.454 -0.7949  0.7723  0.9486
59195SOL    HW284444   3.788   9.995  11.564  0.8348  0.1516  0.0881
59196SOL     OW84445   1.189   7.950  11.721  0.6136  0.4761  0.4395
59196SOL    HW184446   1.196   7.990  11.807 -1.1868  1.0379  0.3646
59196SOL    HW284447   1.188   7.856  11.738  1.5772  0.5403  0.8979
59197SOL     OW84448   9.529   3.645   2.726 -0.1753 -0.0520 -0.0026
59197SOL    HW184449   9.614   3.661   2.685  0.2465  1.2726  1.2864
59197SOL    HW284450   9.474   3.717   2.695 -0.3812 -0.0641  0.3278
59198SOL     OW84451   7.048   4.855   5.486  0.4776  0.0275 -0.3169
59198SOL    HW184452   7.057   4.913   5.410 -1.1093  0.6450 -0.0702
59198SOL    HW284453   7.060   4.912   5.562 -1.4602  0.1624 -0.0635
59199SOL     OW84454   8.898   0.275   4.925 -0.4166 -0.2755  0.3912
59199SOL    HW184455   8.895   0.183   4.949 -1.1410  0.1867  2.2835
59199SOL    HW284456   8.990   0.300   4.936 -0.2672 -0.6976  0.1159
59200SOL     OW84457   1.200   2.444   5.729 -0.5789 -0.0816 -0.2038
59200SOL    HW184458   1.130   2.399   5.777  0.1428 -0.1192  0.8438
59200SOL    HW284459   1.236   2.506   5.792  0.7354 -0.5020 -0.5228
59201SOL     OW84460  10.577   4.442  10.617 -0.5371 -0.5067 -0.6361
59201SOL    HW184461  10.602   4.350  10.624 -0.2086 -0.3285  0.9952
59201SOL    HW284462  10.505   4.452  10.680  0.7913  0.7875  0.7415
59202SOL     OW84463   6.574   6.106  11.303 -0.8652 -0.4558  0.3941
59202SOL    HW184464   6.519   6.174  11.342 -1.2363 -1.1588  1.1072
59202SOL    HW284465   6.528   6.024  11.320  0.2502 -1.0305  0.7464
59203SOL     OW84466   7.930   2.004   1.364 -0.6734  0.2675  0.4075
59203SOL    HW184467   8.020   1.978   1.347 -1.5869 -2.5660 -0.5799
59203SOL    HW284468   7.932   2.100   1.361  2.5158  0.3541  1.8380
59204SOL     OW84469   7.212  11.786   0.126 -0.2867 -0.3364  0.5054
59204SOL    HW184470   7.182  11.870   0.160 -1.8294 -0.3121 -0.7708
59204SOL    HW284471   7.269  11.751   0.194 -0.2720  1.3601  1.4183
59205SOL     OW84472   5.216   3.478  11.217 -0.1668  0.7160  0.2834
59205SOL    HW184473   5.151   3.499  11.284 -0.4117  0.8214  0.0127
59205SOL    HW284474   5.227   3.383  11.224 -0.6489  0.6426  0.0593
59206SOL     OW84475  10.485   6.165   1.149 -0.1973  0.4052  0.2110
59206SOL    HW184476  10.426   6.089   1.151 -0.1064  0.2855 -0.8711
59206SOL    HW284477  10.572   6.128   1.161 -0.0954  0.2502 -0.9002
59207SOL     OW84478   9.197   5.705   2.440  0.2038  0.2390 -0.5498
59207SOL    HW184479   9.163   5.616   2.456  0.9706 -0.0924 -0.7546
59207SOL    HW284480   9.207   5.710   2.345  0.9418  0.2607 -0.4696
59208SOL     OW84481   7.170   3.275   4.064 -0.1597  0.6024 -0.2785
59208SOL    HW184482   7.238   3.224   4.108  0.0169  0.2240 -0.9733
59208SOL    HW284483   7.123   3.211   4.011  1.0004  1.3574 -2.3572
59209SOL     OW84484   8.483   5.784   3.352  0.5093 -0.0533 -0.3945
59209SOL    HW184485   8.429   5.723   3.302  0.9931 -0.2405 -0.6948
59209SOL    HW284486   8.428   5.862   3.361  0.2194 -0.2077 -0.7701
59210SOL     OW84487   9.694   9.754   1.520 -0.1193  0.0645 -0.0147
59210SOL    HW184488   9.646   9.754   1.438  0.7257  1.3140 -0.5429
59210SOL    HW284489   9.724   9.844   1.530  0.5722 -0.2796  1.1999
59211SOL     OW84490  12.243   5.578   2.492  0.0669  0.7199  0.0955
59211SOL    HW184491  12.225   5.530   2.573  1.0672  2.1223  1.2050
59211SOL    HW284492  12.156   5.593   2.454 -0.3457 -0.9422  0.2859
59212SOL     OW84493   9.110   4.536   9.618 -0.4708 -0.7656 -0.0845
59212SOL    HW184494   9.041   4.530   9.552 -1.5322  0.1279  0.8790
59212SOL    HW284495   9.080   4.605   9.677  1.4960 -0.0051  0.1122
59213SOL     OW84496  10.104   6.080   9.842 -0.3512 -0.0572  0.1869
59213SOL    HW184497  10.114   5.984   9.843  1.8270  0.1134  0.5576
59213SOL    HW284498  10.116   6.104   9.750 -0.6828 -0.1234  0.1260
59214SOL     OW84499   2.282   0.657   8.101  0.0443  0.1422 -0.8076
59214SOL    HW184500   2.189   0.641   8.089 -0.2212  0.0859  0.9911
59214SOL    HW284501   2.322   0.570   8.099 -0.5644 -0.3656  2.6100
59215SOL     OW84502   6.099  11.843   1.231 -0.4957 -0.0926 -0.3190
59215SOL    HW184503   6.193  11.832   1.248 -0.5626 -1.6057 -0.7228
59215SOL    HW284504   6.092  11.844   1.136 -0.8979 -0.0463 -0.2898
59216SOL     OW84505   5.913   1.566   2.631  0.0788  0.0524  0.0964
59216SOL    HW184506   5.882   1.612   2.553 -1.9615 -0.1033  0.7420
59216SOL    HW284507   5.967   1.494   2.597 -1.1556 -0.2964 -1.2178
59217SOL     OW84508  10.566   9.576   3.082  0.0780  0.1326  0.3451
59217SOL    HW184509  10.564   9.644   3.014 -1.5473  0.1436  0.3628
59217SOL    HW284510  10.603   9.620   3.159 -0.0021  0.7116  0.0610
59218SOL     OW84511   1.004   2.433  12.392 -0.8510 -0.2058 -0.4685
59218SOL    HW184512   1.057   2.477  12.458 -0.3867  1.1665 -1.7213
59218SOL    HW284513   0.975   2.352  12.435 -1.8398  1.3341  1.9532
59219SOL     OW84514   2.948   0.756   4.769 -0.6232 -0.0035  0.1467
59219SOL    HW184515   3.022   0.816   4.777 -2.0084  1.7105  0.7259
59219SOL    HW284516   2.922   0.738   4.859 -0.5646 -1.0602 -0.0362
59220SOL     OW84517   4.285   1.486   3.284 -0.6640 -0.4225  0.3938
59220SOL    HW184518   4.239   1.519   3.207 -0.9262 -2.0993 -0.1997
59220SOL    HW284519   4.216   1.462   3.345 -0.5384 -1.2372  0.2261
59221SOL     OW84520  10.788  10.567  10.046  0.3841 -0.2953 -0.3593
59221SOL    HW184521  10.762  10.659  10.035 -0.2969 -0.4516 -0.1248
59221SOL    HW284522  10.778  10.551  10.140  0.2477 -0.6797 -0.4387
59222SOL     OW84523   0.106   3.204   0.675 -0.3490  0.5108 -0.1373
59222SOL    HW184524   0.183   3.243   0.635 -0.2699 -0.1473 -0.6460
59222SOL    HW284525   0.033   3.259   0.645 -0.4411 -0.6348 -2.1948
59223SOL     OW84526   3.998   3.544   8.248  0.1705 -0.3669  0.3878
59223SOL    HW184527   4.000   3.548   8.152  0.5381 -0.9880  0.3648
59223SOL    HW284528   3.905   3.554   8.270 -0.0071 -0.9438 -0.0738
59224SOL     OW84529   3.520   4.306   7.116  0.7457  0.2352  0.5626
59224SOL    HW184530   3.610   4.284   7.141  0.3478 -3.6167 -0.7144
59224SOL    HW284531   3.466   4.264   7.183 -0.1843  2.1517  1.0850
59225SOL     OW84532   0.574   0.096   4.223  0.1049  0.8127  0.3059
59225SOL    HW184533   0.573   0.186   4.255  0.8827  1.3931 -1.2130
59225SOL    HW284534   0.665   0.067   4.233 -0.2278  0.0217  1.2059
59226SOL     OW84535   2.121   5.137   8.927  0.2341  0.0520  0.0176
59226SOL    HW184536   2.154   5.159   8.839 -0.6110 -1.7583 -0.8094
59226SOL    HW284537   2.027   5.152   8.922  0.2906  0.7467  0.8975
59227SOL     OW84538   0.176  10.180   0.895  0.0716  0.7611  0.0403
59227SOL    HW184539   0.206  10.257   0.848 -0.6457  1.7238  1.1183
59227SOL    HW284540   0.211  10.191   0.984  3.5616 -2.2107 -0.6751
59228SOL     OW84541  10.291   7.888   7.655  0.1925 -0.1611  0.2595
59228SOL    HW184542  10.362   7.951   7.647  0.8094 -0.9993 -1.1935
59228SOL    HW284543  10.297   7.857   7.745  1.3194  0.1909  0.3241
59229SOL     OW84544   1.160  10.847   1.853  0.3588 -0.4751 -0.2524
59229SOL    HW184545   1.100  10.829   1.781 -0.5849 -1.1386  0.6599
59229SOL    HW284546   1.120  10.802   1.929  0.8266  0.9552  0.8845
59230SOL     OW84547   8.954   8.718  10.746 -0.1587 -0.1590  0.6109
59230SOL    HW184548   8.896   8.793  10.734  1.0477  0.7634  0.2947
59230SOL    HW284549   8.905   8.659  10.803 -0.3690  1.8229  2.6867
59231SOL     OW84550   0.974   2.490  11.000  0.3691  0.1674 -0.8622
59231SOL    HW184551   1.010   2.498  11.089  1.3947  2.7024 -1.4044
59231SOL    HW284552   0.880   2.502  11.011  0.2959 -1.0020  0.0003
59232SOL     OW84553   5.332   5.323   5.086 -0.3447 -0.0586  0.0333
59232SOL    HW184554   5.267   5.357   5.024 -0.0089  1.5690  0.5413
59232SOL    HW284555   5.281   5.292   5.160 -0.7756 -2.2798 -1.1000
59233SOL     OW84556   2.421  12.163   3.683  0.2883 -0.0960  0.0827
59233SOL    HW184557   2.501  12.206   3.655 -0.0330 -0.0971 -0.8914
59233SOL    HW284558   2.351  12.207   3.634 -0.0779 -1.5224 -0.7652
59234SOL     OW84559   4.439   4.246   6.038 -0.1860  0.0705 -0.2502
59234SOL    HW184560   4.408   4.164   6.077 -2.1670  1.0970  0.4682
59234SOL    HW284561   4.359   4.290   6.008  0.9438  1.1602 -1.8277
59235SOL     OW84562   7.541   1.272   7.758  0.5654  0.3277 -0.2686
59235SOL    HW184563   7.451   1.303   7.769  0.3637 -0.2983 -0.1444
59235SOL    HW284564   7.540   1.224   7.675  0.2981 -1.3796  0.6783
59236SOL     OW84565   5.713   0.796  10.097  0.0349  0.0890 -0.1966
59236SOL    HW184566   5.763   0.781  10.178  0.0546 -0.1007 -0.2421
59236SOL    HW284567   5.704   0.891  10.092 -1.5691  0.0435  1.0034
59237SOL     OW84568   7.343   4.787   2.665  0.0934 -0.1581  0.0051
59237SOL    HW184569   7.335   4.807   2.758  1.3353  0.7709 -0.0588
59237SOL    HW284570   7.417   4.727   2.660  0.0760 -0.1489 -0.3847
59238SOL     OW84571   7.163  10.651   8.993  0.0058 -0.1617  0.0487
59238SOL    HW184572   7.078  10.612   9.015  1.2727 -0.7547  4.8758
59238SOL    HW284573   7.144  10.745   8.986 -1.2734 -0.4484 -0.8970
59239SOL     OW84574   5.790   2.230   1.975 -0.1620  0.6237  0.3025
59239SOL    HW184575   5.704   2.265   1.998  0.0150  0.7618  0.7577
59239SOL    HW284576   5.852   2.282   2.026  0.1339 -0.0701  0.6643
59240SOL     OW84577   3.876   1.687   0.768  0.8130 -0.8305  0.6356
59240SOL    HW184578   3.875   1.611   0.710 -0.8888 -0.9123  0.7249
59240SOL    HW284579   3.969   1.712   0.773  1.0262 -0.6939 -2.2589
59241SOL     OW84580   5.231   4.853  10.573  0.1184 -0.7232 -0.3801
59241SOL    HW184581   5.257   4.807  10.652  2.5339  0.0740 -0.6260
59241SOL    HW284582   5.227   4.945  10.599 -1.2217 -0.6789 -0.6946
59242SOL     OW84583   4.021   8.400   5.980  0.3741 -0.1543  0.8046
59242SOL    HW184584   4.046   8.402   5.887  0.2642 -1.8592  0.7052
59242SOL    HW284585   3.939   8.448   5.984  0.4924  0.1192  0.0539
59243SOL     OW84586  10.481   6.830   0.638  0.6617 -0.2207  0.3616
59243SOL    HW184587  10.467   6.768   0.709 -0.0502 -0.7640 -0.2300
59243SOL    HW284588  10.489   6.915   0.681 -0.1285 -0.4932  1.0649
59244SOL     OW84589   8.519  11.184   2.123  0.1426 -0.2079  0.3813
59244SOL    HW184590   8.530  11.095   2.156 -0.0306 -1.1294 -1.8633
59244SOL    HW284591   8.602  11.228   2.141  0.4778 -1.0354  0.8679
59245SOL     OW84592   7.172   2.842   4.030  0.2791 -0.0801  0.1386
59245SOL    HW184593   7.139   2.755   4.011  0.5723 -0.5355  1.6066
59245SOL    HW284594   7.162   2.852   4.124  1.7029  0.8542  0.2256
59246SOL     OW84595   5.644   4.774   5.352 -0.3051  0.1553  0.0593
59246SOL    HW184596   5.657   4.680   5.342 -0.7744 -0.2542  2.5006
59246SOL    HW284597   5.591   4.782   5.431  0.7238  2.5152  0.6058
59247SOL     OW84598   8.091   3.102   9.522 -0.0229 -0.0063  0.4123
59247SOL    HW184599   8.003   3.114   9.487 -0.8046  0.0815  2.3212
59247SOL    HW284600   8.135   3.186   9.505  0.1909 -0.4989 -1.7575
59248SOL     OW84601  11.335   4.352  12.547  0.1288  0.1607  0.2016
59248SOL    HW184602  11.334   4.436  12.593  1.4432  0.1899  0.2026
59248SOL    HW284603  11.262   4.358  12.485 -2.1082 -0.1027  2.5846
59249SOL     OW84604   5.779   5.995   1.422 -0.3346 -0.6633  0.2619
59249SOL    HW184605   5.694   5.964   1.454 -1.1351  0.5913 -0.5398
59249SOL    HW284606   5.758   6.071   1.367  1.3029 -0.3891 -0.0539
59250SOL     OW84607   5.038   2.728   9.110  0.1880 -0.0664  0.4402
59250SOL    HW184608   5.077   2.653   9.156  0.5811 -1.2412 -1.6688
59250SOL    HW284609   4.944   2.709   9.109  0.2062 -0.1622  0.5143
59251SOL     OW84610  10.327   6.039   7.303  0.1157 -0.0558 -0.6637
59251SOL    HW184611  10.397   5.985   7.266 -1.0891 -0.5031 -2.4426
59251SOL    HW284612  10.281   5.981   7.364  0.6874 -0.0606 -0.2284
59252SOL     OW84613  11.247   9.459  10.177 -0.7731 -0.0871  0.1600
59252SOL    HW184614  11.340   9.450  10.158 -0.5784  1.4159  0.2364
59252SOL    HW284615  11.205   9.388  10.128  0.4889 -1.4713  1.0119
59253SOL     OW84616   4.081   3.328   7.401 -0.0582 -0.1253  0.3924
59253SOL    HW184617   3.988   3.312   7.387 -0.3300 -0.4533  2.2821
59253SOL    HW284618   4.125   3.283   7.329 -1.3295 -0.7214 -0.0292
59254SOL     OW84619   3.597   8.266   1.863 -0.2884 -0.1499 -0.3063
59254SOL    HW184620   3.520   8.263   1.919 -1.6356  1.0973 -1.9933
59254SOL    HW284621   3.628   8.357   1.869 -0.5137  0.0304 -1.6143
59255SOL     OW84622   7.704   5.147   7.644  0.1284  0.4364  0.1705
59255SOL    HW184623   7.648   5.179   7.574  0.8486  1.0365 -0.1475
59255SOL    HW284624   7.704   5.218   7.709 -0.6454 -0.1722  0.8469
59256SOL     OW84625  12.356   9.869   0.128 -0.2558 -0.2143 -0.7345
59256SOL    HW184626  12.393   9.835   0.047 -0.3341 -0.1974 -0.7767
59256SOL    HW284627  12.297   9.940   0.100  0.9908  0.9296 -0.5599
59257SOL     OW84628  12.282  10.722  12.560 -1.0024  0.5128 -0.2829
59257SOL    HW184629  12.337  10.713  12.482 -0.2429  0.0695  0.2913
59257SOL    HW284630  12.203  10.672  12.539 -0.4050 -0.4031 -0.4261
59258SOL     OW84631   4.148  12.540   9.985 -0.0603 -0.7008  0.0662
59258SOL    HW184632   4.132  12.616   9.928 -1.5422  0.2765  1.6949
59258SOL    HW284633   4.222  12.567  10.040 -0.6213 -0.3830  0.6810
59259SOL     OW84634   9.816   0.859   4.626  0.4153  0.0525 -0.4505
59259SOL    HW184635   9.817   0.940   4.677 -0.2715  0.7171 -1.4533
59259SOL    HW284636   9.857   0.883   4.543  1.3354 -0.9592 -0.3154
59260SOL     OW84637   4.173   9.425   5.528 -0.3502 -0.3598  0.0270
59260SOL    HW184638   4.134   9.396   5.610  2.0448  0.5311  1.6244
59260SOL    HW284639   4.206   9.346   5.487  0.2260 -0.6268  0.9781
59261SOL     OW84640   4.879   2.226   2.635  1.0381 -0.1051  0.3729
59261SOL    HW184641   4.905   2.295   2.574 -0.0763  1.2693  1.4012
59261SOL    HW284642   4.847   2.273   2.712 -0.2158 -1.7678  0.9080
59262SOL     OW84643   2.119   7.641   5.508  0.1456 -0.2232 -0.5056
59262SOL    HW184644   2.197   7.656   5.561  0.5052  0.9358 -1.3092
59262SOL    HW284645   2.141   7.566   5.453  0.0374 -0.9805  0.4734
59263SOL     OW84646   3.717  12.048   5.600 -0.2873 -0.1901 -0.8726
59263SOL    HW184647   3.629  12.083   5.586  0.4304  0.4580 -4.8892
59263SOL    HW284648   3.775  12.109   5.555  2.1548 -1.2799  0.5635
59264SOL     OW84649   0.539   3.055   0.942 -0.5425 -0.2072  0.5100
59264SOL    HW184650   0.456   3.009   0.948 -1.5806  0.4999 -4.2052
59264SOL    HW284651   0.601   2.989   0.910  0.3678 -0.3239  2.3798
59265SOL     OW84652   4.652  11.120  10.235  0.3072  0.6112  0.2537
59265SOL    HW184653   4.706  11.177  10.181 -0.6360  1.2540 -0.0343
59265SOL    HW284654   4.574  11.172  10.254  0.4800  0.2922  1.9848
59266SOL     OW84655   8.152   4.168  11.010 -0.3734  0.0520  0.0925
59266SOL    HW184656   8.138   4.234  11.078 -2.4267  0.2925 -0.5161
59266SOL    HW284657   8.161   4.086  11.057 -0.1077  0.4363  0.7238
59267SOL     OW84658  12.113  10.996   7.579 -0.4516  0.2931 -0.1536
59267SOL    HW184659  12.074  11.074   7.618 -1.6453 -0.8605  1.1067
59267SOL    HW284660  12.203  10.995   7.612 -1.3418 -0.4928  2.5334
59268SOL     OW84661   9.543   8.438  10.076 -0.6745 -0.1361 -0.2198
59268SOL    HW184662   9.478   8.505  10.053  0.6877  1.6179  0.7422
59268SOL    HW284663   9.581   8.470  10.158  0.2237 -1.9936  0.1224
59269SOL     OW84664   9.454   1.144   5.990  0.1013 -0.2903 -0.0984
59269SOL    HW184665   9.404   1.115   5.914  0.1052  0.9784 -0.6162
59269SOL    HW284666   9.403   1.114   6.066 -0.7564 -0.1546 -0.6126
59270SOL     OW84667   3.484  12.077  10.766  0.6005 -0.1711  0.2072
59270SOL    HW184668   3.514  12.100  10.678  1.1411 -1.5308  0.0074
59270SOL    HW284669   3.547  12.118  10.825  0.6452  0.1482 -0.0616
59271SOL     OW84670   1.118   6.045   4.488  0.2287 -0.6377 -0.3871
59271SOL    HW184671   1.056   6.009   4.551  0.8684  2.5846  2.3497
59271SOL    HW284672   1.073   6.038   4.404 -2.4676 -1.3194  1.0108
59272SOL     OW84673  12.424   3.239  11.530 -0.3092  0.0962  0.2838
59272SOL    HW184674  12.507   3.270  11.565  2.8704 -3.9415 -2.6192
59272SOL    HW284675  12.435   3.243  11.435 -2.2491 -2.9589 -0.2406
59273SOL     OW84676   6.340   4.940  10.040  0.4399  0.1982  0.1297
59273SOL    HW184677   6.292   4.956   9.959 -2.9623  2.6741  2.3632
59273SOL    HW284678   6.407   5.010  10.042  0.8816 -0.1873 -0.7185
59274SOL     OW84679   4.813   2.830   5.363 -0.1134  0.2476  0.2391
59274SOL    HW184680   4.736   2.773   5.371 -0.5078  0.6117 -0.8279
59274SOL    HW284681   4.887   2.770   5.358 -0.2903 -0.1054  1.5068
59275SOL     OW84682   6.000  12.088   3.435 -0.3095  0.0475 -0.2397
59275SOL    HW184683   6.021  12.031   3.362 -2.2222 -1.4214  0.2905
59275SOL    HW284684   5.919  12.053   3.472  0.6021  0.6602  2.6545
59276SOL     OW84685   4.461   1.403   9.202 -0.2325  0.3288  0.3402
59276SOL    HW184686   4.385   1.409   9.261 -0.7979 -0.6120 -0.2636
59276SOL    HW284687   4.427   1.432   9.117  0.2903  0.6539  0.2436
59277SOL     OW84688   8.675   6.230   4.483  0.0433 -0.2895 -0.1463
59277SOL    HW184689   8.587   6.266   4.474  0.4125  0.8204  0.5812
59277SOL    HW284690   8.707   6.222   4.393 -0.9129 -1.0352 -0.4409
59278SOL     OW84691   3.642   1.888  10.374 -0.4225 -0.1793  0.2580
59278SOL    HW184692   3.722   1.861  10.420 -0.5360 -0.2604  0.4081
59278SOL    HW284693   3.673   1.922  10.290 -0.1312  0.8161  0.7550
59279SOL     OW84694   7.891   6.163  11.502  0.5105 -0.7029 -0.1377
59279SOL    HW184695   7.894   6.085  11.446 -0.9743 -1.1996  0.4141
59279SOL    HW284696   7.923   6.133  11.587 -0.3090 -0.8055  0.1477
59280SOL     OW84697   7.070   6.224  10.226  0.3757  0.6309 -0.0925
59280SOL    HW184698   7.003   6.159  10.247  2.5262 -1.3421  1.1660
59280SOL    HW284699   7.046   6.302  10.277 -0.6351 -0.2254  0.7703
59281SOL     OW84700   4.218   1.413   5.055  0.1754 -0.1761  0.4281
59281SOL    HW184701   4.161   1.340   5.030 -0.4374  0.3947  0.1437
59281SOL    HW284702   4.158   1.483   5.081  0.5676  1.3739 -2.3997
59282SOL     OW84703   5.898   0.618   4.799 -0.1113 -0.4647  0.2424
59282SOL    HW184704   5.892   0.534   4.754  1.9256 -1.6191  1.9101
59282SOL    HW284705   5.958   0.601   4.872 -0.2399  2.2652  1.0810
59283SOL     OW84706   7.502  11.385   3.461  0.2429  0.1451 -0.8885
59283SOL    HW184707   7.453  11.302   3.459 -1.4047  0.9621  1.3052
59283SOL    HW284708   7.479  11.428   3.378 -0.5133 -0.7251 -1.1562
59284SOL     OW84709   7.318   5.849   3.355 -0.5962  0.1833 -0.1532
59284SOL    HW184710   7.255   5.803   3.300 -0.9661  0.9085 -0.3565
59284SOL    HW284711   7.404   5.821   3.324 -0.7766  1.2685 -1.7183
59285SOL     OW84712   0.250   8.770   2.153 -0.2090 -0.4203 -0.1540
59285SOL    HW184713   0.315   8.713   2.194 -0.4797 -0.5624  0.0829
59285SOL    HW284714   0.187   8.788   2.222 -1.2407 -1.5273 -0.7675
59286SOL     OW84715   9.362   0.961   5.197 -0.0264 -0.1579 -0.2507
59286SOL    HW184716   9.273   0.983   5.172 -0.0149  0.3706  0.1471
59286SOL    HW284717   9.395   1.040   5.240  0.5999 -0.3790 -0.3123
59287SOL     OW84718  12.508   9.815   9.791  0.2062 -0.2753  0.5505
59287SOL    HW184719  12.556   9.898   9.779 -0.2415 -0.1323 -0.3204
59287SOL    HW284720  12.522   9.768   9.709 -1.3180 -0.1397  0.1887
59288SOL     OW84721   9.784   3.018   9.700  0.1361  0.0486  0.0589
59288SOL    HW184722   9.813   2.954   9.635  1.6440  0.6577  0.0896
59288SOL    HW284723   9.792   2.972   9.783  0.6137  0.0679  0.0261
59289SOL     OW84724   1.314  11.652   3.275 -0.4558 -0.1851  0.0921
59289SOL    HW184725   1.267  11.735   3.283 -0.4980 -0.1993 -0.0015
59289SOL    HW284726   1.374  11.666   3.202 -2.4236 -1.1544 -1.8291
59290SOL     OW84727  11.774   0.228   3.206  0.1918 -0.2692 -0.4690
59290SOL    HW184728  11.772   0.168   3.131  1.0265 -1.2045  0.2244
59290SOL    HW284729  11.693   0.278   3.199  0.4023 -0.1205 -2.1617
59291SOL     OW84730   7.376   7.188   2.502 -0.7302 -0.0935 -0.1337
59291SOL    HW184731   7.368   7.144   2.417  2.0622 -2.8705  0.8295
59291SOL    HW284732   7.341   7.125   2.565 -0.3418  0.7935  1.0027
59292SOL     OW84733   4.601   9.664   5.052 -0.3118  0.0043 -0.5787
59292SOL    HW184734   4.627   9.735   4.994 -0.1702 -0.1772 -0.7374
59292SOL    HW284735   4.611   9.701   5.140 -0.8844  0.4002 -0.6719
59293SOL     OW84736   0.586   4.342   2.716 -0.0822  0.3255 -0.0581
59293SOL    HW184737   0.519   4.306   2.657  1.1959 -2.1265 -0.1185
59293SOL    HW284738   0.540   4.353   2.799 -0.7486 -0.7184 -0.2628
59294SOL     OW84739   8.383  10.220   8.170 -0.3200  0.3010 -0.8259
59294SOL    HW184740   8.360  10.245   8.081 -1.0193 -0.6984 -0.9505
59294SOL    HW284741   8.320  10.151   8.192  0.8049 -0.5299 -0.1148
59295SOL     OW84742   4.419   9.108   0.552  0.0374  0.0249  0.1927
59295SOL    HW184743   4.384   9.107   0.641 -0.7433 -1.8202 -0.0941
59295SOL    HW284744   4.441   9.017   0.533 -1.9002 -0.0490 -2.2808
59296SOL     OW84745   2.650   0.308   5.972  0.1797  0.0610  0.2263
59296SOL    HW184746   2.735   0.301   5.928 -0.6528  1.0899 -1.6604
59296SOL    HW284747   2.650   0.396   6.008 -0.0546  0.0348  0.2860
59297SOL     OW84748   0.752   5.767   3.214 -0.5166  0.1956  0.3590
59297SOL    HW184749   0.804   5.720   3.279 -0.1448  0.2662  0.1114
59297SOL    HW284750   0.663   5.764   3.249 -0.1958  0.9296  1.2668
59298SOL     OW84751   3.340   1.495  10.993 -0.6421  0.4027  0.0268
59298SOL    HW184752   3.360   1.407  11.026  1.4774  0.9399  0.3477
59298SOL    HW284753   3.280   1.532  11.057  0.5633  0.1088  1.3900
59299SOL     OW84754   9.167   3.940   6.591  0.0216 -0.1452 -0.0546
59299SOL    HW184755   9.112   3.891   6.652  0.2376  0.0822  0.3286
59299SOL    HW284756   9.246   3.887   6.581  0.4610  0.3300  0.7299
59300SOL     OW84757   4.655   6.209   2.772 -0.7238  0.5285 -1.1653
59300SOL    HW184758   4.749   6.227   2.774 -0.8156  1.0017 -0.9306
59300SOL    HW284759   4.625   6.228   2.861 -0.4394 -2.9929 -0.1520
59301SOL     OW84760   5.606  12.420  11.297 -0.5305  0.0968  0.5078
59301SOL    HW184761   5.669  12.350  11.279 -1.6026 -0.6299 -0.6260
59301SOL    HW284762   5.655  12.483  11.350  0.2637 -1.8605  2.2717
59302SOL     OW84763  12.381  11.869   8.984 -0.5659  0.6632 -0.1222
59302SOL    HW184764  12.472  11.858   8.957 -0.5143  0.2571  0.1949
59302SOL    HW284765  12.364  11.792   9.040 -0.8009  1.2335  0.6106
59303SOL     OW84766   9.886   3.179   4.101 -0.2016  0.2745 -0.5050
59303SOL    HW184767   9.844   3.096   4.081 -0.3323  0.3924 -0.7277
59303SOL    HW284768   9.896   3.179   4.196 -0.0408 -0.0713 -0.5207
59304SOL     OW84769   6.995   8.600   9.072  0.4285 -0.3942  0.0987
59304SOL    HW184770   7.026   8.688   9.095  0.1334 -0.3838  0.4638
59304SOL    HW284771   7.074   8.552   9.048  0.6366 -0.1391  0.2670
59305SOL     OW84772   2.093  10.463   3.793 -0.0190  0.5797 -0.0423
59305SOL    HW184773   2.062  10.548   3.825 -0.6574  0.5345 -0.5233
59305SOL    HW284774   2.078  10.403   3.866 -1.6690  0.4344 -0.4689
59306SOL     OW84775   4.408   6.573   8.736 -0.4476  0.0061  0.1903
59306SOL    HW184776   4.439   6.526   8.658  0.7134  1.3395 -0.1968
59306SOL    HW284777   4.456   6.532   8.808 -2.1335 -1.7905  0.3739
59307SOL     OW84778   9.065   2.149   5.862  0.2940 -0.1612 -0.5640
59307SOL    HW184779   9.108   2.136   5.778  2.2500 -0.1190  0.3714
59307SOL    HW284780   9.056   2.061   5.898  0.1871 -0.1098 -0.4634
59308SOL     OW84781   6.111   0.562   6.673 -0.6127  0.4545 -0.3352
59308SOL    HW184782   6.094   0.472   6.645 -0.5803 -0.2471  1.7204
59308SOL    HW284783   6.202   0.561   6.703 -0.4107  1.3615 -0.8704
59309SOL     OW84784   0.866   7.973   2.347  0.2462  0.4981 -0.0107
59309SOL    HW184785   0.901   7.920   2.418 -0.6736  0.3573  0.3470
59309SOL    HW284786   0.935   7.973   2.280  1.9407  2.1908  1.6276
59310SOL     OW84787   6.706   9.296   8.929  0.2641 -0.2437  0.3262
59310SOL    HW184788   6.645   9.303   8.856 -0.6721 -0.6512  1.0486
59310SOL    HW284789   6.738   9.206   8.926 -1.1600 -0.8204  1.4667
59311SOL     OW84790   7.563   3.909   9.914  0.0271 -0.4917  0.7025
59311SOL    HW184791   7.520   3.884   9.832 -1.5225 -1.7418  1.8190
59311SOL    HW284792   7.649   3.866   9.909 -0.0233 -0.5173 -0.2626
59312SOL     OW84793   8.563  12.087   4.102  0.5495 -0.3506 -0.5116
59312SOL    HW184794   8.598  12.006   4.064  1.4133 -0.8599  1.2425
59312SOL    HW284795   8.637  12.125   4.150 -0.3424  0.5000  0.2293
59313SOL     OW84796   1.642   8.419   1.352  0.3982  0.1463  0.4727
59313SOL    HW184797   1.577   8.438   1.285  1.8473  1.9762 -0.5002
59313SOL    HW284798   1.710   8.370   1.307  1.1213  0.9116  0.6895
59314SOL     OW84799  11.331   4.664  11.075  0.1191  0.0610 -0.0773
59314SOL    HW184800  11.411   4.612  11.075 -0.0182 -0.1588 -0.5007
59314SOL    HW284801  11.304   4.666  11.166  1.4282  1.4245  0.3159
59315SOL     OW84802  10.429   3.537   6.506 -0.1015 -0.0178 -0.6372
59315SOL    HW184803  10.381   3.618   6.519  2.0101  1.2905 -0.4625
59315SOL    HW284804  10.472   3.520   6.590  0.7977 -0.3751 -1.1435
59316SOL     OW84805   0.048   1.296   2.700 -0.1257 -0.2833  0.3840
59316SOL    HW184806   0.035   1.355   2.625 -3.6273 -1.1826  0.1079
59316SOL    HW284807   0.034   1.209   2.664 -0.2168 -0.8662  1.7760
59317SOL     OW84808   5.162   9.378   8.692  0.0503  0.4798  0.0501
59317SOL    HW184809   5.253   9.389   8.666 -0.1060  1.0246 -0.2783
59317SOL    HW284810   5.112   9.412   8.617 -0.4444 -1.2587 -0.4519
59318SOL     OW84811   8.261   8.886   1.531  0.5755  0.4988 -0.3389
59318SOL    HW184812   8.298   8.806   1.569  1.2299  0.4571 -1.0245
59318SOL    HW284813   8.225   8.934   1.606 -1.4942 -1.2617 -0.1202
59319SOL     OW84814   1.288   0.770   9.989  0.1505  0.2852  0.4903
59319SOL    HW184815   1.258   0.690   9.945  2.3060 -0.3520  0.0584
59319SOL    HW284816   1.259   0.841   9.931  0.5606 -0.3750 -0.5510
59320SOL     OW84817   1.398   0.912  11.218 -0.2874 -0.2702  0.4584
59320SOL    HW184818   1.472   0.968  11.194  0.1305 -0.3657  1.4607
59320SOL    HW284819   1.321   0.966  11.203 -0.1503 -0.6985 -2.1179
59321SOL     OW84820   2.419  11.240   7.525  0.0153 -0.2368 -0.1734
59321SOL    HW184821   2.455  11.296   7.456  1.4435 -0.2393  0.5260
59321SOL    HW284822   2.420  11.152   7.488  0.9942 -0.2721 -0.0778
59322SOL     OW84823   1.731   6.685  10.737 -0.0275 -1.2979 -0.4053
59322SOL    HW184824   1.714   6.604  10.785  1.0431 -0.8543  0.7736
59322SOL    HW284825   1.807   6.724  10.781 -0.1856  0.0826 -1.2885
59323SOL     OW84826   2.191   7.243   0.319  0.0691 -0.1725  0.3029
59323SOL    HW184827   2.097   7.235   0.304  0.3359 -2.2584 -0.7106
59323SOL    HW284828   2.224   7.286   0.240  0.0631 -0.1826  0.2948
59324SOL     OW84829   3.066  11.178   6.107 -0.2341  0.0810  0.3272
59324SOL    HW184830   3.061  11.222   6.022  0.1126 -0.0887  0.2167
59324SOL    HW284831   3.044  11.086   6.087  1.0478 -0.2170  0.2043
59325SOL     OW84832   2.127  11.044  10.180  0.1566 -0.0666 -0.4946
59325SOL    HW184833   2.212  11.055  10.137  0.5321  0.9601  0.4574
59325SOL    HW284834   2.064  11.038  10.107  1.0339 -0.9373 -1.2113
59326SOL     OW84835  10.617  10.242  11.609  0.2682 -0.2812 -0.4409
59326SOL    HW184836  10.593  10.312  11.670  0.5307 -1.3631  0.9408
59326SOL    HW284837  10.565  10.261  11.530  0.3180  1.4347 -0.0998
59327SOL     OW84838   3.243   8.652   9.097  0.3688 -0.6958  0.2525
59327SOL    HW184839   3.272   8.608   9.017  1.9800  0.2596  0.2707
59327SOL    HW284840   3.322   8.663   9.148 -0.4925 -0.4140  1.5687
59328SOL     OW84841   6.565   0.907   8.669  0.1542  0.1691  0.7648
59328SOL    HW184842   6.503   0.948   8.730  0.2607  0.3018  0.7846
59328SOL    HW284843   6.510   0.858   8.608  0.0983 -1.0129  1.7273
59329SOL     OW84844   7.993   6.638   4.118  0.5783  0.2669 -0.2045
59329SOL    HW184845   8.068   6.609   4.169 -0.1201 -0.3755  0.4753
59329SOL    HW284846   8.028   6.707   4.061  1.4483  0.7688  0.8964
59330SOL     OW84847   5.165   4.163  10.716  0.0291  0.1321  0.2725
59330SOL    HW184848   5.106   4.145  10.789 -0.4655  1.3726  0.2017
59330SOL    HW284849   5.161   4.084  10.662 -0.2072 -0.4897  1.1734
59331SOL     OW84850   4.903   2.265   8.277 -0.2240 -0.7012  0.5571
59331SOL    HW184851   4.954   2.309   8.346  1.8520 -1.3425 -0.4744
59331SOL    HW284852   4.853   2.197   8.323 -0.9550  0.5911  1.7363
59332SOL     OW84853   3.397   6.457   3.272  0.0668  0.2636  0.0868
59332SOL    HW184854   3.477   6.474   3.321  0.0170 -0.7696  0.5389
59332SOL    HW284855   3.363   6.376   3.308 -2.8575  2.1735  2.0831
59333SOL     OW84856  12.068   7.643   6.469  0.0038  0.1860  0.6186
59333SOL    HW184857  12.107   7.578   6.410 -1.7446 -0.4550  0.0723
59333SOL    HW284858  12.097   7.617   6.556 -0.8344 -1.5394  0.4392
59334SOL     OW84859   7.187   2.699   5.832  0.2128 -0.6103  0.0585
59334SOL    HW184860   7.130   2.742   5.768 -0.3064 -1.8399 -0.3395
59334SOL    HW284861   7.129   2.680   5.906  0.3520 -0.9552  0.0770
59335SOL     OW84862   2.646  12.181   4.264  0.1163 -0.1478  0.3826
59335SOL    HW184863   2.648  12.193   4.169 -0.7369 -2.5175  0.0168
59335SOL    HW284864   2.673  12.266   4.299  1.5040  0.4718 -1.9811
59336SOL     OW84865   7.785  10.543   7.858 -0.0357  0.3436 -0.1680
59336SOL    HW184866   7.733  10.623   7.848  0.5294  0.6228 -0.9776
59336SOL    HW284867   7.871  10.565   7.823  0.2865 -0.4667  0.0791
59337SOL     OW84868   4.536   1.594   9.382 -0.2814 -0.2788  0.6360
59337SOL    HW184869   4.586   1.650   9.322 -0.0254  0.1277  1.2187
59337SOL    HW284870   4.506   1.521   9.328 -0.7102  0.4695 -0.1659
59338SOL     OW84871  12.133   8.135   1.431  0.2978  0.1225  0.2374
59338SOL    HW184872  12.120   8.134   1.336  0.9129 -0.3670  0.1547
59338SOL    HW284873  12.147   8.043   1.454 -0.5751  0.1475  0.9078
59339SOL     OW84874   3.733   9.947   5.958  0.0470 -0.3922  0.2805
59339SOL    HW184875   3.680   9.872   5.987  0.5880 -1.0918 -0.4943
59339SOL    HW284876   3.764   9.922   5.871  2.7922 -0.6312  1.2255
59340SOL     OW84877   1.538   7.655   0.721  0.1940 -0.2057 -0.2381
59340SOL    HW184878   1.575   7.599   0.653 -2.5941 -0.8203 -1.3675
59340SOL    HW284879   1.516   7.737   0.675 -0.6144 -0.1789  0.1892
59341SOL     OW84880  10.693   0.758   8.226 -0.5338 -0.0825  0.0981
59341SOL    HW184881  10.749   0.802   8.291 -0.0010 -0.1385 -0.3161
59341SOL    HW284882  10.746   0.756   8.147 -2.4342  3.2289 -1.4852
59342SOL     OW84883   0.077   4.372   9.773 -0.4182 -0.2181  0.0796
59342SOL    HW184884   0.051   4.324   9.852  0.5142  0.1192  0.6036
59342SOL    HW284885   0.172   4.358   9.767 -0.2981  0.7383 -0.3213
59343SOL     OW84886   3.135   7.841   2.276 -0.4043 -1.0178  0.3910
59343SOL    HW184887   3.119   7.752   2.307 -1.0517 -1.2247 -0.5008
59343SOL    HW284888   3.118   7.837   2.182 -0.9765  0.1773  0.4285
59344SOL     OW84889   4.210   3.760   5.105 -0.0726  0.6351  0.1917
59344SOL    HW184890   4.165   3.784   5.186  2.2713  1.0261  1.4724
59344SOL    HW284891   4.277   3.697   5.132  0.5794  0.5363 -1.4997
59345SOL     OW84892   0.586   7.472   6.647 -0.4430 -0.2112 -0.1578
59345SOL    HW184893   0.582   7.566   6.666  1.0173  0.3104 -2.1580
59345SOL    HW284894   0.495   7.448   6.626 -1.2373  0.1980  2.4471
59346SOL     OW84895   1.931   3.768  12.336 -0.0774  0.0390 -0.2164
59346SOL    HW184896   1.968   3.745  12.251 -0.4964  0.2609 -0.4607
59346SOL    HW284897   1.934   3.686  12.386 -3.1904 -1.1361 -1.6703
59347SOL     OW84898   7.421   3.843   9.659 -0.2960  0.7422 -0.4504
59347SOL    HW184899   7.382   3.785   9.593 -1.5950  1.3793 -0.2966
59347SOL    HW284900   7.390   3.930   9.634  0.2092  1.1496  0.3017
59348SOL     OW84901   0.862  10.536   8.339 -0.3171 -0.2257 -0.3523
59348SOL    HW184902   0.862  10.469   8.407  0.7905 -0.8027 -0.9002
59348SOL    HW284903   0.946  10.581   8.349 -1.5818  2.0921  0.9291
59349SOL     OW84904   4.741  11.257   5.728  0.4542 -0.7593 -0.1081
59349SOL    HW184905   4.675  11.274   5.661 -0.9164 -3.3301  0.4557
59349SOL    HW284906   4.691  11.245   5.808  1.9402  0.6738  1.0996
59350SOL     OW84907   7.749   3.928   6.250 -0.1635  0.3736 -0.2984
59350SOL    HW184908   7.767   3.880   6.331  0.2968  0.4886 -0.3280
59350SOL    HW284909   7.805   4.006   6.256  1.3384 -0.5527 -1.5972
59351SOL     OW84910  11.012   9.528   3.201  0.1302  0.2079  0.1933
59351SOL    HW184911  11.055   9.509   3.118  0.6976 -0.8652  0.7071
59351SOL    HW284912  11.068   9.486   3.267 -1.0701 -0.1968  0.9848
59352SOL     OW84913  10.476  11.835  10.705  0.6730 -0.0162  0.4051
59352SOL    HW184914  10.433  11.910  10.746 -2.4731 -2.3018  1.6877
59352SOL    HW284915  10.565  11.837  10.740  0.3606  2.4377  1.2836
59353SOL     OW84916   8.376   7.717   3.497  0.5132 -0.2455 -0.3041
59353SOL    HW184917   8.318   7.687   3.427  1.8284 -2.2539 -0.6047
59353SOL    HW284918   8.321   7.719   3.575 -0.3149 -0.6449 -0.8673
59354SOL     OW84919   0.086   5.382   2.700  0.2255  0.0971 -0.1250
59354SOL    HW184920   0.092   5.339   2.614  0.0514 -2.6426  1.1261
59354SOL    HW284921   0.170   5.427   2.710  0.3598  0.2289 -1.5873
59355SOL     OW84922   5.199   6.098   5.289 -0.5886 -0.3237 -0.2684
59355SOL    HW184923   5.140   6.024   5.273 -1.2977  0.3990 -1.1097
59355SOL    HW284924   5.269   6.088   5.225  0.6659 -1.6040  1.2220
59356SOL     OW84925   5.419   5.263   9.330 -0.0727 -0.3051  0.2997
59356SOL    HW184926   5.408   5.355   9.305  2.3011  0.3491  1.3679
59356SOL    HW284927   5.404   5.263   9.425 -0.2777 -1.0710  0.2691
59357SOL     OW84928   5.850   1.970   9.286  0.0338 -0.7023  0.9222
59357SOL    HW184929   5.876   1.878   9.287  0.0624 -0.7121  0.2832
59357SOL    HW284930   5.772   1.972   9.231  0.9460 -0.1460 -0.4235
59358SOL     OW84931   7.990   6.045   4.532 -0.4941 -0.2938  0.3852
59358SOL    HW184932   8.033   5.973   4.486  0.8820  1.4023 -1.1206
59358SOL    HW284933   7.924   6.077   4.470 -1.7649 -0.7984  1.4185
59359SOL     OW84934   8.233   3.930   0.140  0.1988  0.3164 -0.1531
59359SOL    HW184935   8.155   3.978   0.114 -1.0400 -2.3266 -1.7022
59359SOL    HW284936   8.292   3.937   0.065  0.3527  0.1065 -0.0560
59360SOL     OW84937  10.590  10.809   4.434  0.2883  0.6364  0.1917
59360SOL    HW184938  10.558  10.796   4.344  0.4565 -0.0316  0.2208
59360SOL    HW284939  10.519  10.853   4.479 -1.5533 -2.7241  0.8563
59361SOL     OW84940   4.800   5.064  11.004 -0.0513  0.3658 -0.0515
59361SOL    HW184941   4.804   5.139  10.944  0.1901  0.7929  0.4969
59361SOL    HW284942   4.729   5.010  10.970 -1.0138  1.4330  0.2356
59362SOL     OW84943   6.224   0.385   8.416 -0.0527  0.0462  0.2886
59362SOL    HW184944   6.248   0.296   8.390  0.4979  0.2746 -0.0029
59362SOL    HW284945   6.131   0.392   8.396  0.3062  0.1452 -1.4378
59363SOL     OW84946  11.472   6.187   4.786  0.3183 -0.2064 -0.4191
59363SOL    HW184947  11.439   6.128   4.718  0.5925  1.7175 -2.3120
59363SOL    HW284948  11.404   6.254   4.795  1.4444  1.0079 -0.7077
59364SOL     OW84949   0.856   1.936   7.527  0.6052 -0.1623 -0.3279
59364SOL    HW184950   0.902   1.888   7.595 -0.4048 -0.0561  0.4527
59364SOL    HW284951   0.859   2.027   7.555  0.5607 -0.0592 -0.6509
59365SOL     OW84952   0.724  11.158   8.853 -0.3085 -0.0446  0.0777
59365SOL    HW184953   0.681  11.117   8.778  2.6650 -0.5938 -1.4854
59365SOL    HW284954   0.709  11.252   8.841  0.8513 -0.0470 -1.8040
59366SOL     OW84955   7.497   0.134   1.302 -0.2668 -0.0975 -0.5184
59366SOL    HW184956   7.487   0.094   1.216 -1.4827 -1.6678  0.3251
59366SOL    HW284957   7.589   0.119   1.325 -0.2988 -0.9407 -0.9266
59367SOL     OW84958   9.102   2.418   7.926 -0.1964  0.5441  0.3211
59367SOL    HW184959   9.168   2.408   7.857 -0.0859  0.3317  0.4574
59367SOL    HW284960   9.095   2.332   7.966 -0.3466  0.6370  0.4987
59368SOL     OW84961   3.683  10.059   8.185  0.3703 -0.7409  0.0267
59368SOL    HW184962   3.626  10.001   8.133  0.3394 -0.9210  0.2606
59368SOL    HW284963   3.624  10.128   8.216  0.5709 -0.0967 -0.9663
59369SOL     OW84964   6.185   4.906   9.256 -0.3812  0.7090 -0.3853
59369SOL    HW184965   6.266   4.916   9.306 -0.8348  1.5188  0.2126
59369SOL    HW284966   6.214   4.886   9.167  0.4576 -1.4675  0.2874
59370SOL     OW84967   9.627   2.363  10.718 -0.3091  0.3862 -0.1617
59370SOL    HW184968   9.599   2.335  10.805 -0.5698 -1.5198 -0.8174
59370SOL    HW284969   9.683   2.293  10.687 -1.8901 -0.0326 -2.3491
59371SOL     OW84970   3.664   0.851   6.902  0.2806 -0.1955 -0.2916
59371SOL    HW184971   3.594   0.914   6.920 -0.6560 -1.8253  2.3446
59371SOL    HW284972   3.626   0.791   6.838 -0.3925 -0.4982  0.3782
59372SOL     OW84973   0.109   5.978   7.969 -0.0359  0.2787  0.7262
59372SOL    HW184974   0.192   5.969   7.923 -0.5449  0.8031 -0.3458
59372SOL    HW284975   0.123   6.052   8.029  1.4829 -2.0618  3.4672
59373SOL     OW84976  11.056   9.300  10.047 -0.4917 -0.8339  0.8382
59373SOL    HW184977  11.024   9.258   9.967 -2.4937 -1.3110  1.8180
59373SOL    HW284978  10.977   9.332  10.091  0.7776  2.2963  1.1096
59374SOL     OW84979   6.101   3.460   4.106 -0.3264  0.8024 -0.1267
59374SOL    HW184980   6.136   3.373   4.085  0.8654  1.3031 -0.3119
59374SOL    HW284981   6.093   3.460   4.201 -3.2311 -0.5400 -0.2507
59375SOL     OW84982   4.655   9.613   8.296  0.1164  0.7267 -0.1456
59375SOL    HW184983   4.581   9.661   8.334 -0.9162 -1.3857  0.7024
59375SOL    HW284984   4.614   9.554   8.232  1.0814 -0.2971  0.1527
59376SOL     OW84985   9.171   4.640  11.449 -0.1816 -0.3852  0.1615
59376SOL    HW184986   9.099   4.698  11.474  0.9716  1.1822  0.0070
59376SOL    HW284987   9.134   4.552  11.455 -1.7155  0.2878  1.3712
59377SOL     OW84988  11.099   1.543  12.374 -0.4629  0.1095  0.3069
59377SOL    HW184989  11.123   1.635  12.361  0.6752 -0.2450 -0.2415
59377SOL    HW284990  11.062   1.541  12.462 -0.4815  1.0903  0.3388
59378SOL     OW84991  10.400   1.029  11.340  0.3507 -0.4769 -0.0700
59378SOL    HW184992  10.410   0.976  11.420 -1.7179 -1.8774 -0.6580
59378SOL    HW284993  10.389   0.964  11.270 -1.6529  0.6997 -0.9125
59379SOL     OW84994  10.491   6.212  11.296 -0.0128 -0.7625 -0.1155
59379SOL    HW184995  10.501   6.305  11.317  0.6056 -0.6182 -1.0073
59379SOL    HW284996  10.487   6.209  11.200 -2.7975 -1.3886 -0.0718
59380SOL     OW84997   7.476   7.773   9.290 -0.2105 -0.0975 -0.0067
59380SOL    HW184998   7.437   7.846   9.339 -1.8738  0.5153 -2.0987
59380SOL    HW284999   7.569   7.796   9.283 -0.6712  1.8319 -0.5378
59381SOL     OW85000   5.738   7.618  11.712  0.1636 -0.2720 -0.2191
59381SOL    HW185001   5.717   7.708  11.689 -0.2865 -0.6542 -1.3369
59381SOL    HW285002   5.822   7.601  11.670  1.0725  0.1320  1.3550
59382SOL     OW85003   7.367   1.020   5.536  0.0093  0.0432 -0.6377
59382SOL    HW185004   7.320   1.098   5.564 -1.6307 -0.6306 -1.3673
59382SOL    HW285005   7.436   1.052   5.478 -0.3803  0.9709 -0.5945
59383SOL     OW85006   3.296  10.761   8.819 -0.4181 -0.1477  0.0365
59383SOL    HW185007   3.259  10.736   8.735  0.6732 -1.5733 -0.0695
59383SOL    HW285008   3.388  10.733   8.813 -0.3009 -0.1889  1.6534
59384SOL     OW85009   4.269   8.929   6.616  0.3498  0.1677 -0.5621
59384SOL    HW185010   4.249   9.016   6.651  0.6034 -0.0967  0.2574
59384SOL    HW285011   4.222   8.926   6.533 -2.6450 -0.2002  0.9876
59385SOL     OW85012  10.079   6.364   9.618  0.1286 -0.2936 -0.5400
59385SOL    HW185013  10.012   6.361   9.687  0.0734  0.3200 -0.5568
59385SOL    HW285014  10.058   6.443   9.568  2.1418  1.1919  0.7891
59386SOL     OW85015   0.062   6.634   0.360  0.4508  0.1560 -0.0228
59386SOL    HW185016   0.006   6.606   0.288  2.1530  0.2656 -1.4725
59386SOL    HW285017   0.039   6.576   0.432 -0.8337 -0.4213 -0.8445
59387SOL     OW85018   7.451   3.646  12.566 -0.0900 -0.2785  0.1259
59387SOL    HW185019   7.437   3.647  12.661 -2.0213  1.6724 -0.0992
59387SOL    HW285020   7.405   3.723  12.534  2.3015  0.3197 -2.2149
59388SOL     OW85021   2.238  11.114  10.442 -0.5556  0.6158  0.2392
59388SOL    HW185022   2.272  11.145  10.358  0.3059 -2.1652 -0.5778
59388SOL    HW285023   2.160  11.065  10.418  0.1846 -0.9477  0.8821
59389SOL     OW85024   3.528   7.123   8.205  0.4989 -0.1403 -0.1813
59389SOL    HW185025   3.519   7.050   8.145 -3.2061 -0.3825  0.4363
59389SOL    HW285026   3.583   7.090   8.276  2.7684 -0.6861 -2.1016
59390SOL     OW85027   6.191   2.343   9.399  0.2973  0.0332  0.4773
59390SOL    HW185028   6.125   2.296   9.349  0.6518 -0.9227  0.8947
59390SOL    HW285029   6.156   2.347   9.488  0.0089  1.0798  0.3312
59391SOL     OW85030  10.226   2.018   5.366  0.2862  0.1184  0.6803
59391SOL    HW185031  10.236   1.924   5.383  0.9696  0.0192 -0.1976
59391SOL    HW285032  10.311   2.046   5.333  0.0912  1.0588  0.9561
59392SOL     OW85033   4.595   5.908   2.792 -0.3223  0.1514  0.2674
59392SOL    HW185034   4.672   5.885   2.845 -0.7762  1.0061  1.3394
59392SOL    HW285035   4.609   6.000   2.769 -1.7159  0.8135  1.8001
59393SOL     OW85036   0.294   5.775   4.074 -0.5416  0.0465 -0.0602
59393SOL    HW185037   0.295   5.692   4.026 -0.2001  1.1062 -1.9989
59393SOL    HW285038   0.373   5.772   4.128 -0.4334 -0.8085 -0.2431
59394SOL     OW85039   5.641   0.349   1.356  0.2857  0.3818 -0.6922
59394SOL    HW185040   5.637   0.383   1.445  0.2006 -1.0291 -0.1373
59394SOL    HW285041   5.562   0.297   1.346 -0.5143  1.7963 -2.1599
59395SOL     OW85042   0.732   8.459   9.732 -0.2785  0.4103 -0.1346
59395SOL    HW185043   0.745   8.479   9.825  1.2403  1.0483 -0.4561
59395SOL    HW285044   0.819   8.434   9.701 -1.3761 -3.6074 -0.5389
59396SOL     OW85045   5.177   2.969   5.392  0.1425 -0.0681  0.1755
59396SOL    HW185046   5.193   2.924   5.309  2.6594  0.3937  0.3290
59396SOL    HW285047   5.237   2.927   5.454 -2.0184 -0.7420  1.9770
59397SOL     OW85048   0.756   0.204  10.335  0.1361 -0.1653 -0.5628
59397SOL    HW185049   0.706   0.249  10.403 -0.3522 -0.6870 -0.5791
59397SOL    HW285050   0.697   0.137  10.301  0.7890 -0.6861 -0.6887
59398SOL     OW85051   0.785   1.851   1.074  0.5802 -0.9101  0.0950
59398SOL    HW185052   0.709   1.845   1.132  0.6660 -1.1874  0.1850
59398SOL    HW285053   0.836   1.772   1.094 -0.8766 -2.6439 -2.5018
59399SOL     OW85054   7.318   8.394   3.649 -0.1731  0.2542  0.7090
59399SOL    HW185055   7.396   8.423   3.602  0.6590 -0.4584  1.6182
59399SOL    HW285056   7.346   8.316   3.696 -1.3301  0.2205  1.3731
59400SOL     OW85057   8.257   9.432   3.861  0.6104  0.1103  0.5834
59400SOL    HW185058   8.182   9.484   3.887 -0.5215 -1.9535  1.7418
59400SOL    HW285059   8.243   9.411   3.769 -0.5786 -0.7257  0.9352
59401SOL     OW85060   5.802   7.176  11.717 -0.6406 -0.1310  0.6855
59401SOL    HW185061   5.881   7.221  11.745 -0.5236 -0.0709  0.2731
59401SOL    HW285062   5.764   7.234  11.650 -0.6942 -0.4561  0.4315
59402SOL     OW85063  11.423   8.697   1.926 -0.7032 -0.1546 -0.0603
59402SOL    HW185064  11.453   8.606   1.923 -0.2056 -0.0837  1.9253
59402SOL    HW285065  11.384   8.708   2.013 -0.3063  1.6699 -0.0673
59403SOL     OW85066   7.476   6.057   8.822 -0.5181  0.3597 -0.1519
59403SOL    HW185067   7.439   6.118   8.757 -1.6284  0.3250  0.4365
59403SOL    HW285068   7.543   6.109   8.867 -0.3757  0.6675 -0.7056
59404SOL     OW85069   7.392   2.213   4.393 -0.1212  0.6705 -0.3099
59404SOL    HW185070   7.431   2.205   4.306 -0.7769  1.8039 -0.7176
59404SOL    HW285071   7.443   2.282   4.436  0.4052 -0.1001  0.3401
59405SOL     OW85072   7.403  12.452  10.559  0.4906 -0.0920 -0.1503
59405SOL    HW185073   7.418  12.538  10.598  0.7126 -0.4109  0.4824
59405SOL    HW285074   7.441  12.390  10.621  2.5964 -0.5314 -1.7706
59406SOL     OW85075   8.685  12.084  10.864 -0.2409  0.5863  0.1006
59406SOL    HW185076   8.777  12.108  10.866 -0.3497  0.9881  0.2910
59406SOL    HW285077   8.666  12.067  10.772 -0.2890  1.7141 -0.1048
59407SOL     OW85078   7.994   4.139   1.044 -0.6428  0.3131  0.3335
59407SOL    HW185079   7.909   4.107   1.072 -0.5689 -0.5504 -0.3755
59407SOL    HW285080   7.995   4.126   0.949  0.2472  0.3801  0.3174
59408SOL     OW85081   1.430   9.282   9.315 -0.1935  0.3657  0.1022
59408SOL    HW185082   1.406   9.200   9.272 -0.2066  0.2433  0.3436
59408SOL    HW285083   1.508   9.261   9.366  1.8956  1.2577 -2.4434
59409SOL     OW85084   2.162  11.243   7.214 -0.1558 -0.0659  1.1320
59409SOL    HW185085   2.158  11.173   7.149  0.1305 -1.1656  2.2526
59409SOL    HW285086   2.252  11.238   7.248 -0.0638  1.0142  1.0597
59410SOL     OW85087   0.414   0.298   1.627 -0.3126 -0.2442  0.4995
59410SOL    HW185088   0.457   0.336   1.704 -1.3792  0.8726  0.5678
59410SOL    HW285089   0.322   0.291   1.652 -0.4060 -1.3707 -0.1155
59411SOL     OW85090  10.464   7.420   3.248 -0.4059  0.2018 -0.2276
59411SOL    HW185091  10.446   7.403   3.340 -0.2113  2.3060  0.2561
59411SOL    HW285092  10.383   7.459   3.215 -0.5098 -0.6258 -0.9902
59412SOL     OW85093   2.687   1.760   1.230  0.4673 -0.2440  0.1027
59412SOL    HW185094   2.767   1.762   1.177  1.3371 -0.7969  1.3483
59412SOL    HW285095   2.661   1.852   1.238  0.4143 -0.1378 -1.1118
59413SOL     OW85096  10.364   9.372   1.045  0.3828 -0.4539 -0.1604
59413SOL    HW185097  10.272   9.397   1.045  0.3110 -0.6986  0.3710
59413SOL    HW285098  10.411   9.453   1.061  0.2901 -0.2519 -0.8659
59414SOL     OW85099  10.496   2.708   7.830  0.7803 -0.4538  0.3054
59414SOL    HW185100  10.454   2.688   7.914  0.6075 -0.5661  0.1907
59414SOL    HW285101  10.424   2.717   7.768  0.9190 -0.5630  0.1265
59415SOL     OW85102   3.734   2.900   1.206 -0.3680  0.1210 -0.5280
59415SOL    HW185103   3.693   2.955   1.273 -1.8458  0.0120 -1.2959
59415SOL    HW285104   3.730   2.952   1.126  0.3848 -0.1808 -0.7708
59416SOL     OW85105  10.314   8.506   0.696 -0.7809 -0.5436 -0.0953
59416SOL    HW185106  10.399   8.512   0.652  0.0564 -3.1756  0.9608
59416SOL    HW285107  10.250   8.516   0.625  0.4094  0.4837 -1.0734
59417SOL     OW85108   6.938   7.504   2.241  0.6237  0.1229 -0.4927
59417SOL    HW185109   6.951   7.465   2.154 -0.3294 -1.3662 -0.0176
59417SOL    HW285110   7.017   7.556   2.257  0.9290  0.2178 -2.1320
59418SOL     OW85111   7.359  11.059   6.972 -0.5881 -0.0647 -0.3903
59418SOL    HW185112   7.369  11.104   6.889 -0.5836  1.4940  0.4041
59418SOL    HW285113   7.447  11.031   6.996 -0.8382 -2.1941 -1.7513
59419SOL     OW85114   9.755  11.022   5.163 -0.0505  0.0300  0.4070
59419SOL    HW185115   9.667  11.041   5.132  0.4701  1.6528 -0.1993
59419SOL    HW285116   9.744  10.996   5.255 -1.2014 -0.5470  0.1178
59420SOL     OW85117   5.705   3.362   6.303  0.2635  0.2926 -0.1273
59420SOL    HW185118   5.702   3.423   6.377 -0.6529 -0.8262  0.7889
59420SOL    HW285119   5.793   3.373   6.266 -0.6581  4.0937 -1.7054
59421SOL     OW85120  11.544   7.696   6.000  0.5128  0.1284 -0.1939
59421SOL    HW185121  11.484   7.623   5.992  1.0528 -0.4383  0.7232
59421SOL    HW285122  11.591   7.680   6.083  2.9580 -0.2529 -1.5504
59422SOL     OW85123  12.002  11.057  10.146  0.2918  0.9072 -0.2544
59422SOL    HW185124  12.009  10.962  10.141  0.6458  0.9509 -0.7382
59422SOL    HW285125  12.083  11.085  10.189  0.1449  0.9807 -0.0275
59423SOL     OW85126   7.173   9.068   5.114  0.2317 -0.0552  0.6693
59423SOL    HW185127   7.185   9.010   5.189  1.1270 -1.2148 -0.3184
59423SOL    HW285128   7.228   9.030   5.045 -4.3584 -2.1489 -2.3164
59424SOL     OW85129  10.423   2.532  11.223  0.7573  0.1478 -0.6726
59424SOL    HW185130  10.511   2.501  11.203  2.1338  2.9561  0.3607
59424SOL    HW285131  10.402   2.592  11.151  0.2545  0.4401 -0.2904
59425SOL     OW85132   2.283   0.534   1.048  0.1491 -0.3956  0.2020
59425SOL    HW185133   2.225   0.545   1.124  0.6645  0.0742  0.5304
59425SOL    HW285134   2.370   0.552   1.081  0.3641 -0.0532 -0.5380
59426SOL     OW85135   2.831   6.004  11.227  0.3487 -0.0738 -0.0189
59426SOL    HW185136   2.750   6.008  11.278  0.5065  0.6251  0.1980
59426SOL    HW285137   2.825   5.923  11.178  0.0274 -0.5807  0.8387
59427SOL     OW85138   4.491  10.188  10.189 -0.0681  0.3504  0.0333
59427SOL    HW185139   4.438  10.129  10.243 -0.3502  0.7139  0.1561
59427SOL    HW285140   4.572  10.200  10.238 -0.6496  1.3427  0.7927
59428SOL     OW85141   9.252   0.586   1.317 -0.0636  0.0055  0.0311
59428SOL    HW185142   9.223   0.499   1.289 -0.2618  0.1266 -0.1466
59428SOL    HW285143   9.346   0.587   1.299 -0.2717  0.2561 -1.1284
59429SOL     OW85144   0.646  10.028   9.463  0.2957  0.1163 -0.5227
59429SOL    HW185145   0.719  10.049   9.404 -0.0519 -0.1884 -1.0705
59429SOL    HW285146   0.571  10.016   9.405  0.2412 -1.5530 -0.1442
59430SOL     OW85147   0.889   2.485   1.162 -0.0387  0.0528 -0.0005
59430SOL    HW185148   0.927   2.458   1.079  0.5243 -2.2602  0.9203
59430SOL    HW285149   0.797   2.504   1.141  0.5700  1.6078 -1.4845
59431SOL     OW85150   8.178   3.055  11.145  0.2840  1.3685  0.0314
59431SOL    HW185151   8.129   3.063  11.227  0.9350 -1.3328  0.7711
59431SOL    HW285152   8.137   2.982  11.099  2.8855 -0.3897  0.2510
59432SOL     OW85153   4.504   6.305   3.692  0.1212 -0.3390  0.1819
59432SOL    HW185154   4.479   6.249   3.619  2.5079  0.7757 -1.6516
59432SOL    HW285155   4.427   6.359   3.708 -0.9234 -1.5380 -0.5632
59433SOL     OW85156   8.753  12.273   8.745  0.2486 -0.1098  0.0203
59433SOL    HW185157   8.677  12.313   8.704  0.6669  0.2241 -0.4457
59433SOL    HW285158   8.825  12.292   8.685  0.8327  0.2279  0.8122
59434SOL     OW85159  12.048  11.856  10.929  0.5057 -0.1036 -0.1969
59434SOL    HW185160  12.048  11.763  10.905  0.8316 -0.6031  1.5923
59434SOL    HW285161  12.028  11.856  11.022 -0.0638  1.6810 -0.2935
59435SOL     OW85162   8.537   4.364   0.383  0.2432  0.0181 -0.1502
59435SOL    HW185163   8.456   4.320   0.410 -0.6784 -0.0598 -2.7491
59435SOL    HW285164   8.572   4.401   0.464 -1.3590 -1.5866  1.3726
59436SOL     OW85165   4.915   7.198   8.067  0.2267 -0.0595  0.2020
59436SOL    HW185166   5.011   7.199   8.068  0.2238 -0.1241  0.5516
59436SOL    HW285167   4.891   7.111   8.100  0.0360  0.5091  1.6644
59437SOL     OW85168   2.135   5.403   1.364 -0.2503  0.3153  0.2904
59437SOL    HW185169   2.094   5.317   1.359  0.1278  0.0453  1.5147
59437SOL    HW285170   2.064   5.463   1.385 -0.4417  0.2377 -0.1338
59438SOL     OW85171   2.326   3.384   3.841 -0.9337  0.5652  0.2282
59438SOL    HW185172   2.375   3.457   3.803 -0.4085 -0.1275 -0.4463
59438SOL    HW285173   2.234   3.408   3.829 -0.7773  1.4249  0.6306
59439SOL     OW85174  11.436   0.924   2.626 -0.3467 -0.0645 -0.0707
59439SOL    HW185175  11.519   0.922   2.577 -0.0127 -1.1865  0.5120
59439SOL    HW285176  11.449   0.863   2.698 -0.8895  1.4263  1.3603
59440SOL     OW85177  10.681   6.248   9.283 -0.3732 -0.3909 -0.2948
59440SOL    HW185178  10.735   6.248   9.204  2.9220 -0.3027  1.7970
59440SOL    HW285179  10.591   6.244   9.250  0.5252  3.5496 -4.2302
59441SOL     OW85180   8.327   9.798   5.772 -0.0953 -0.7433  0.1577
59441SOL    HW185181   8.296   9.732   5.711 -1.2226  0.1270 -0.2363
59441SOL    HW285182   8.259   9.865   5.772  1.2854  0.7105  0.0896
59442SOL     OW85183   3.327  11.753   8.382 -0.4276 -0.3828 -0.1853
59442SOL    HW185184   3.292  11.834   8.418 -0.6111 -0.4758 -0.1508
59442SOL    HW285185   3.292  11.685   8.439  0.7233 -0.3942  0.5420
59443SOL     OW85186   4.053   9.626  11.480 -0.5822  0.0941  0.2071
59443SOL    HW185187   4.103   9.567  11.424 -0.4455 -0.2423  0.6696
59443SOL    HW285188   4.020   9.694  11.422 -2.1083 -1.3077 -0.6404
59444SOL     OW85189   6.490   3.221   3.985  0.5815 -0.5099  0.5034
59444SOL    HW185190   6.524   3.267   4.062  0.2392 -0.2628  0.5068
59444SOL    HW285191   6.568   3.185   3.943  1.3454  3.1416 -1.5749
59445SOL     OW85192   1.850   3.229   7.147  0.3404 -0.0579 -0.1303
59445SOL    HW185193   1.888   3.162   7.204 -0.2801  0.2679  0.6913
59445SOL    HW285194   1.799   3.180   7.082  1.9478 -0.4911 -1.1241
59446SOL     OW85195   3.128   2.781   7.000  0.3420  0.3264 -0.4255
59446SOL    HW185196   3.102   2.745   6.916 -1.3107  1.3795 -0.3931
59446SOL    HW285197   3.215   2.818   6.985  0.0293  0.5676 -1.6957
59447SOL     OW85198   7.868  11.269   5.277 -0.0444 -0.6592 -0.1400
59447SOL    HW185199   7.795  11.223   5.318 -0.0041 -1.3059 -0.7631
59447SOL    HW285200   7.875  11.230   5.190  2.6349 -2.4304  0.7362
59448SOL     OW85201   2.657   1.487   7.951 -0.3166  0.1990 -0.1017
59448SOL    HW185202   2.624   1.574   7.928  0.7208  0.4384 -0.7629
59448SOL    HW285203   2.703   1.500   8.034  3.6402  1.3514 -2.1823
59449SOL     OW85204   4.936   7.384  11.464 -0.0960  0.1867 -0.2346
59449SOL    HW185205   4.967   7.370  11.375 -1.9313  0.7177 -0.9995
59449SOL    HW285206   4.908   7.476  11.466 -0.1742  0.1546  0.8476
59450SOL     OW85207   4.739   1.625   0.491 -0.2069 -0.2180  0.5763
59450SOL    HW185208   4.649   1.651   0.471  0.7001  1.9789 -1.1024
59450SOL    HW285209   4.774   1.696   0.543  0.9986 -0.2773 -0.1109
59451SOL     OW85210   6.924  11.934   0.367  0.0640  0.2953  0.3777
59451SOL    HW185211   6.883  11.968   0.447  0.8633  0.6305  0.6553
59451SOL    HW285212   6.872  11.971   0.296 -0.9396 -0.3700  0.7415
59452SOL     OW85213   3.749   9.111   8.095 -0.6085  0.1597 -0.1315
59452SOL    HW185214   3.768   9.109   8.188  1.1647  0.3667 -0.4431
59452SOL    HW285215   3.828   9.073   8.054 -0.3105  2.2466 -1.6549
59453SOL     OW85216   0.644   7.917   1.118 -0.2162 -0.6686 -0.3675
59453SOL    HW185217   0.722   7.888   1.069 -0.2095 -0.7251 -0.3227
59453SOL    HW285218   0.666   7.901   1.209 -0.9380 -2.2650 -0.4521
59454SOL     OW85219   8.089   8.881   7.592 -0.4039 -0.1511 -0.2160
59454SOL    HW185220   8.151   8.817   7.558  1.3062  1.6779 -0.7370
59454SOL    HW285221   8.010   8.870   7.538  0.1968 -1.1580 -0.9191
59455SOL     OW85222   8.911   7.251   4.758 -0.2012  0.4108  0.0645
59455SOL    HW185223   8.955   7.215   4.835  0.4194 -0.4420 -0.6616
59455SOL    HW285224   8.983   7.285   4.704 -0.4165 -0.8852 -1.0856
59456SOL     OW85225   9.022   7.234   8.219 -0.2248 -0.4425  0.4133
59456SOL    HW185226   9.018   7.292   8.295  0.4285  1.7259 -1.1383
59456SOL    HW285227   8.940   7.185   8.223 -0.1644 -0.4688  2.5391
59457SOL     OW85228   6.614   1.533  10.638  0.0430  0.0216 -0.1284
59457SOL    HW185229   6.621   1.523  10.733  0.9533  0.4777 -0.1362
59457SOL    HW285230   6.554   1.607  10.626  0.5339  0.4624  0.1120
59458SOL     OW85231   8.502   6.980   5.347  0.4906 -0.3078 -0.1938
59458SOL    HW185232   8.588   6.943   5.370  0.9287  0.7852 -0.0117
59458SOL    HW285233   8.439   6.916   5.379  1.1910 -0.3774  1.0880
59459SOL     OW85234  10.818   9.274   1.258  0.2424  0.5533  0.0257
59459SOL    HW185235  10.828   9.339   1.327 -0.4363  0.1529  0.5044
59459SOL    HW285236  10.728   9.283   1.229  0.4445  0.5313 -0.6281
59460SOL     OW85237   5.197   4.145  11.632 -0.0435 -0.3649  0.2760
59460SOL    HW185238   5.273   4.198  11.609 -1.3638  1.2487 -0.5828
59460SOL    HW285239   5.140   4.205  11.681 -1.4785 -1.0316 -0.5175
59461SOL     OW85240  12.420   4.658   1.716  0.0865  0.6279 -0.2919
59461SOL    HW185241  12.338   4.611   1.702  0.1509  0.4846 -0.1828
59461SOL    HW285242  12.409   4.699   1.802  0.8254 -0.8289  0.5116
59462SOL     OW85243   7.813   9.253   0.506 -0.1284 -0.5217  0.1688
59462SOL    HW185244   7.893   9.270   0.457 -0.8768 -1.9578 -1.6967
59462SOL    HW285245   7.757   9.329   0.488 -0.5403 -1.1987 -1.6321
59463SOL     OW85246  10.029   4.195   5.874  0.7223 -0.4445  0.3146
59463SOL    HW185247  10.040   4.210   5.968  1.4385 -0.4212  0.2362
59463SOL    HW285248  10.116   4.209   5.838  0.1875  0.8573 -0.5349
59464SOL     OW85249  11.604   5.219   0.867 -0.2088  0.0968 -0.2018
59464SOL    HW185250  11.580   5.308   0.895  2.6806 -0.0944  3.6567
59464SOL    HW285251  11.535   5.163   0.900  0.0497  0.5535  1.1537
59465SOL     OW85252   9.907   9.524   1.501  0.6334 -0.3950  0.0204
59465SOL    HW185253   9.883   9.616   1.510  0.6067 -0.2655 -1.1715
59465SOL    HW285254   9.826   9.481   1.472  0.4643 -0.9236  1.2262
59466SOL     OW85255   0.802   3.600   0.394 -0.5027 -0.0264  0.0382
59466SOL    HW185256   0.785   3.506   0.388  1.2774 -0.5617  2.0823
59466SOL    HW285257   0.889   3.611   0.355 -0.8645  0.8444 -0.5464
59467SOL     OW85258   0.482   3.707   3.658  0.4049  0.2144  0.0735
59467SOL    HW185259   0.403   3.666   3.694  1.4073 -1.6695  0.2520
59467SOL    HW285260   0.546   3.636   3.654  2.0745  1.6686 -0.1634
59468SOL     OW85261   3.253   4.242   0.762  0.1648 -0.4841  0.2532
59468SOL    HW185262   3.294   4.306   0.818 -0.6000 -1.5733  2.1676
59468SOL    HW285263   3.307   4.163   0.771  0.1788 -0.6145 -0.7800
59469SOL     OW85264   2.703   4.825   8.865  0.1119 -0.4120 -0.2632
59469SOL    HW185265   2.644   4.885   8.819 -1.1564 -1.0342  0.5018
59469SOL    HW285266   2.789   4.841   8.825 -0.5834  0.4168 -1.5065
59470SOL     OW85267   0.063   0.432   1.250  0.0793 -0.8618 -0.2158
59470SOL    HW185268   0.078   0.337   1.256 -1.4748 -1.0857  0.5043
59470SOL    HW285269   0.118   0.460   1.177  2.8054 -1.8124  1.3259
59471SOL     OW85270   0.411   3.447   4.142  0.2441 -0.4676 -0.0993
59471SOL    HW185271   0.367   3.443   4.227  1.6423 -2.1742  0.5980
59471SOL    HW285272   0.483   3.508   4.154  0.4093 -0.6673 -0.0689
59472SOL     OW85273   8.286   7.972  11.848  0.3255 -0.2464 -0.0373
59472SOL    HW185274   8.255   8.000  11.935  1.6658 -0.0072  0.4018
59472SOL    HW285275   8.208   7.972  11.793 -0.8935 -2.1515  1.5860
59473SOL     OW85276   3.702  10.593   6.047 -0.1085 -0.2398  0.7564
59473SOL    HW185277   3.765  10.657   6.079 -0.7022  0.7703 -0.0081
59473SOL    HW285278   3.721  10.513   6.096  1.8497 -0.0185  0.4477
59474SOL     OW85279   5.813   0.335  11.962 -0.4104  0.3085 -0.2915
59474SOL    HW185280   5.723   0.302  11.971 -0.7180  1.3964  0.8929
59474SOL    HW285281   5.828   0.337  11.868 -1.4365 -0.3835 -0.4923
59475SOL     OW85282   8.027  10.666   3.354 -0.1215  0.3289  0.0562
59475SOL    HW185283   7.936  10.679   3.329  0.4615  2.4661 -1.2769
59475SOL    HW285284   8.028  10.677   3.449 -0.9674  2.8024 -0.1416
59476SOL     OW85285   5.223   8.423   3.535 -0.1744  0.7333 -0.2167
59476SOL    HW185286   5.307   8.430   3.489  0.0446 -1.4913 -0.2571
59476SOL    HW285287   5.247   8.412   3.627 -0.0065 -4.3544 -0.5949
59477SOL     OW85288   2.322   8.429   2.250 -0.0793 -0.7735 -0.6890
59477SOL    HW185289   2.272   8.447   2.170  1.4679 -0.2655 -1.5858
59477SOL    HW285290   2.406   8.396   2.218  0.3356 -1.1534  0.7542
59478SOL     OW85291   1.769   3.495  11.901  0.1967 -0.7833 -0.2117
59478SOL    HW185292   1.749   3.416  11.952  3.1536 -0.1415  2.2557
59478SOL    HW285293   1.737   3.567  11.955  3.1855 -0.1030  0.8723
59479SOL     OW85294   9.849   4.937   9.046 -0.5367  0.3437  0.2332
59479SOL    HW185295   9.827   5.021   9.007 -0.1351  0.7628  0.8880
59479SOL    HW285296   9.819   4.872   8.982  1.9931  1.0256 -1.7945
59480SOL     OW85297  11.448   6.989   8.244  0.3193  0.4481 -0.0381
59480SOL    HW185298  11.438   6.929   8.170 -0.9103  0.7063 -0.0979
59480SOL    HW285299  11.452   6.931   8.321  1.9124  0.1604 -0.2916
59481SOL     OW85300   4.777   2.151   0.667  0.0807  0.2925  0.1429
59481SOL    HW185301   4.832   2.127   0.592  1.2915 -0.2281  1.1820
59481SOL    HW285302   4.788   2.079   0.729 -2.3866 -0.2458  0.1011
59482SOL     OW85303   6.152   5.897   7.550 -0.4585 -0.2685  0.1754
59482SOL    HW185304   6.146   5.819   7.604 -1.6803 -0.6159 -0.4198
59482SOL    HW285305   6.074   5.948   7.573 -0.3511  0.1576 -0.3644
59483SOL     OW85306   7.615   3.647   6.886 -0.4529  0.1461 -0.3841
59483SOL    HW185307   7.688   3.607   6.838 -0.2829 -1.7731  1.3537
59483SOL    HW285308   7.539   3.593   6.863 -0.4748 -0.4545  1.0353
59484SOL     OW85309   9.169  10.934  10.271 -0.3891  0.1904 -0.1560
59484SOL    HW185310   9.110  11.005  10.297  1.3132  1.3617  0.6873
59484SOL    HW285311   9.257  10.968  10.288  0.4979 -2.2381  0.5553
59485SOL     OW85312   3.647   4.970   4.924 -0.8336  0.1429  0.4235
59485SOL    HW185313   3.661   4.875   4.920 -0.5982  0.1620  0.8342
59485SOL    HW285314   3.689   5.003   4.844  2.8026  0.3592  2.2370
59486SOL     OW85315   4.672   1.537   6.364 -0.4464 -0.0027  0.2304
59486SOL    HW185316   4.585   1.548   6.326 -0.6732 -0.6576  0.5415
59486SOL    HW285317   4.733   1.559   6.293 -0.8172  2.4610  0.5626
59487SOL     OW85318   1.134   9.002  10.575  0.4367 -0.1694 -0.1263
59487SOL    HW185319   1.214   8.951  10.573  0.8955  0.5258  0.0539
59487SOL    HW285320   1.068   8.945  10.535  1.2796 -0.2968 -1.3943
59488SOL     OW85321  12.442  10.572  11.034 -0.5421  0.1749 -0.1963
59488SOL    HW185322  12.378  10.526  11.089  0.5643 -0.3827  0.6445
59488SOL    HW285323  12.463  10.508  10.965 -0.1948  0.0019  0.0664
59489SOL     OW85324   7.848   7.466   4.755 -0.2904  0.3693  0.0994
59489SOL    HW185325   7.916   7.409   4.791 -0.0791  1.7448  1.9911
59489SOL    HW285326   7.846   7.542   4.813 -1.4622  1.7146 -1.5879
59490SOL     OW85327   2.447   8.514  11.727 -0.4211 -0.1872 -0.1887
59490SOL    HW185328   2.425   8.543  11.638  0.0367  0.5965 -0.0588
59490SOL    HW285329   2.542   8.522  11.732 -0.2812 -1.6405 -0.0974
59491SOL     OW85330  10.127   3.297   4.022  0.3191 -0.1230 -0.2697
59491SOL    HW185331  10.031   3.294   4.022  0.3201 -0.4359  0.6906
59491SOL    HW285332  10.149   3.379   3.977 -0.3423 -1.0902 -2.5031
59492SOL     OW85333   2.289  10.201   4.992  0.5507 -0.7964 -0.4780
59492SOL    HW185334   2.345  10.260   5.041  1.3737  0.5447 -2.9114
59492SOL    HW285335   2.235  10.258   4.936 -0.2810 -2.2329 -1.2172
59493SOL     OW85336  10.107   3.384   9.940  0.0364 -0.3993  0.1814
59493SOL    HW185337  10.095   3.475   9.967  0.7637 -0.3621  0.4126
59493SOL    HW285338  10.029   3.363   9.889  0.7388  1.0103 -1.6059
59494SOL     OW85339   1.438   9.350   9.758 -0.5444  0.3025 -0.0000
59494SOL    HW185340   1.383   9.404   9.700  0.1726  1.1716  0.1112
59494SOL    HW285341   1.418   9.260   9.732 -0.1029  0.6654 -1.7494
59495SOL     OW85342   1.311   1.187   6.285 -0.1823  0.2179  0.3229
59495SOL    HW185343   1.254   1.130   6.234 -0.0801  0.6164 -0.2451
59495SOL    HW285344   1.254   1.224   6.352 -0.2434 -0.5616  0.7134
59496SOL     OW85345   9.715   1.780   5.946 -0.2282 -0.0242 -0.6477
59496SOL    HW185346   9.717   1.692   5.910  0.7150 -1.0639  1.7151
59496SOL    HW285347   9.641   1.822   5.903  0.6707 -1.1489 -3.5273
59497SOL     OW85348   9.490  10.466  10.962  0.0568 -0.0964  0.4412
59497SOL    HW185349   9.580  10.438  10.950  0.7016  1.9383  0.1298
59497SOL    HW285350   9.453  10.404  11.026  1.7577 -0.7452  0.8398
59498SOL     OW85351   7.755   9.836  11.549  0.2158  0.2824  0.4338
59498SOL    HW185352   7.806   9.907  11.509 -0.0485 -0.1224 -0.6625
59498SOL    HW285353   7.724   9.784  11.475  0.1213 -0.7904  1.2057
59499SOL     OW85354   1.681   1.485   4.424  0.2786  0.1419 -0.1699
59499SOL    HW185355   1.676   1.419   4.494  0.7009 -0.5967 -0.8232
59499SOL    HW285356   1.769   1.474   4.388  0.3376  1.0504 -0.3046
59500SOL     OW85357   0.022  11.946   5.919  0.2472  0.8256  0.5623
59500SOL    HW185358   0.052  12.035   5.941  0.9297  0.5106  0.9512
59500SOL    HW285359   0.098  11.905   5.877 -0.4355  0.7940 -0.6868
59501SOL     OW85360   7.696   1.257   1.605 -0.4324 -0.2837  0.1794
59501SOL    HW185361   7.785   1.237   1.576 -0.8227 -0.9525 -0.6114
59501SOL    HW285362   7.665   1.175   1.645 -0.4178  0.1895  1.2104
59502SOL     OW85363   8.003   8.334  11.870 -0.2925 -0.5669 -0.0124
59502SOL    HW185364   7.962   8.338  11.956 -1.5622 -2.5674 -0.4268
59502SOL    HW285365   8.089   8.295  11.886  0.2933  0.9173  0.5464
59503SOL     OW85366  12.391   1.102   4.140  0.2595  0.6182  0.1557
59503SOL    HW185367  12.350   1.154   4.209  0.3366  0.8147  0.0509
59503SOL    HW285368  12.332   1.026   4.130 -0.0176  0.8402  0.0875
59504SOL     OW85369   7.774   2.766   3.497  0.4373 -0.6728  0.0666
59504SOL    HW185370   7.842   2.721   3.546  1.1841 -0.3533 -0.6649
59504SOL    HW285371   7.748   2.705   3.429 -2.0115 -1.9442  1.9549
59505SOL     OW85372  12.566   3.694   9.058 -0.1884  0.0800  0.1845
59505SOL    HW185373  12.652   3.653   9.067  0.3969  1.3983  0.8826
59505SOL    HW285374  12.572   3.773   9.112 -1.5317  0.6736 -0.5062
59506SOL     OW85375   4.283   7.580  11.367 -0.4046  0.0628  0.9572
59506SOL    HW185376   4.292   7.526  11.288  2.2102  1.7882 -0.0677
59506SOL    HW285377   4.191   7.605  11.368 -1.0865 -2.2079 -0.0112
59507SOL     OW85378   8.536   7.358  11.372 -0.5573 -0.3491 -0.1597
59507SOL    HW185379   8.540   7.326  11.281 -2.4230 -0.1908 -0.3369
59507SOL    HW285380   8.583   7.442  11.369 -0.7693 -0.2439 -1.0280
59508SOL     OW85381   0.026   9.323   3.496  0.0168  0.2187  0.1303
59508SOL    HW185382  -0.034   9.389   3.530 -0.5990 -0.1725 -0.1742
59508SOL    HW285383  -0.001   9.241   3.537 -0.3120 -0.1388 -0.7617
59509SOL     OW85384   8.421   6.753   4.439 -0.3702  0.1877  0.5744
59509SOL    HW185385   8.447   6.779   4.351 -1.5961 -0.6817 -0.0724
59509SOL    HW285386   8.471   6.811   4.497  0.4567  0.7673 -0.6802
59510SOL     OW85387  10.223   0.219  10.336  0.1176  0.2355 -0.4299
59510SOL    HW185388  10.252   0.153  10.400 -0.1043  1.3618  0.8735
59510SOL    HW285389  10.138   0.248  10.369  0.5481  1.7060 -0.5528
59511SOL     OW85390   7.442   4.651   8.214 -0.5260  0.0110 -0.0052
59511SOL    HW185391   7.489   4.588   8.160  1.4588  0.8950  0.5849
59511SOL    HW285392   7.426   4.605   8.296 -0.8389 -0.3496 -0.2650
59512SOL     OW85393   9.166  12.109  10.620 -0.5974  0.1146 -0.2316
59512SOL    HW185394   9.093  12.152  10.577 -0.2961  1.9637  0.9730
59512SOL    HW285395   9.127  12.064  10.695 -0.9075 -1.7892 -1.4696
59513SOL     OW85396  11.080   9.516   2.952 -0.1381 -0.3046  0.8010
59513SOL    HW185397  11.141   9.585   2.926  0.6544 -1.2261  0.1336
59513SOL    HW285398  11.000   9.535   2.903 -0.0860  0.3757  0.9627
59514SOL     OW85399   7.782   0.118   8.673 -0.2888  0.3188 -0.4045
59514SOL    HW185400   7.778   0.119   8.578  0.9638 -0.4462 -0.4881
59514SOL    HW285401   7.725   0.047   8.700  1.0101 -0.8920 -0.7289
59515SOL     OW85402   3.912   8.115   1.349 -0.2891  0.4264  0.0109
59515SOL    HW185403   3.968   8.193   1.347  0.3784 -0.0443 -1.4608
59515SOL    HW285404   3.825   8.149   1.326 -0.0806  0.8097 -0.2432
59516SOL     OW85405   3.358   3.823   2.773 -0.7122  0.5622  0.0751
59516SOL    HW185406   3.313   3.864   2.847 -0.6181  0.7936  0.0052
59516SOL    HW285407   3.298   3.835   2.699 -0.0804  1.8316 -0.2643
59517SOL     OW85408   1.681   8.454   3.786 -0.4407 -0.0959 -0.5595
59517SOL    HW185409   1.604   8.504   3.815 -0.1926 -0.1964  0.3172
59517SOL    HW285410   1.675   8.372   3.835  0.1157 -0.1858 -0.6420
59518SOL     OW85411   9.055   2.503   9.590 -1.0944 -0.6466 -0.2252
59518SOL    HW185412   9.012   2.458   9.517 -0.3979  1.2027 -1.8677
59518SOL    HW285413   9.148   2.485   9.578 -1.0362 -0.9885  0.6949
59519SOL     OW85414   3.861   3.708   5.144  0.2517 -0.2915 -0.2779
59519SOL    HW185415   3.833   3.765   5.216 -1.1201  0.4407 -1.3572
59519SOL    HW285416   3.882   3.768   5.072  1.6094 -1.0108 -0.5221
59520SOL     OW85417   9.825   4.876   4.208  0.1775  0.4436 -0.0544
59520SOL    HW185418   9.768   4.945   4.242 -1.7595  0.3318 -2.7035
59520SOL    HW285419   9.779   4.844   4.130  3.4525 -0.3379 -1.8298
59521SOL     OW85420   0.051   6.413   7.153  0.0387 -0.0272  0.1105
59521SOL    HW185421   0.013   6.325   7.146 -0.2614  0.1798 -1.0854
59521SOL    HW285422  -0.016   6.465   7.198 -1.1909  0.3501 -2.0356
59522SOL     OW85423   0.680   4.061   8.707 -0.3227  0.0226 -0.1189
59522SOL    HW185424   0.645   4.027   8.789  1.3188 -2.4351 -0.3378
59522SOL    HW285425   0.722   4.144   8.731 -0.6108 -0.2283  1.3535
59523SOL     OW85426   6.497   2.664  11.980 -0.0362 -0.3058  0.4928
59523SOL    HW185427   6.535   2.726  11.918 -0.4696 -0.0127  0.5173
59523SOL    HW285428   6.558   2.661  12.053  0.3948 -0.5256  0.1280
59524SOL     OW85429   5.200   9.520   9.050 -0.4320  0.8311  0.2505
59524SOL    HW185430   5.245   9.542   8.969  1.4539 -0.4710  0.8767
59524SOL    HW285431   5.270   9.508   9.114 -1.8563  1.9345  2.1410
59525SOL     OW85432   2.531   2.692  12.011  0.0392 -0.2311 -0.2086
59525SOL    HW185433   2.516   2.783  11.984 -0.6437  0.2260  1.6178
59525SOL    HW285434   2.584   2.699  12.091 -0.1335 -1.4446  0.0322
59526SOL     OW85435   1.380   3.590   6.191  0.4063 -0.5247  0.0012
59526SOL    HW185436   1.319   3.606   6.118  0.5842  0.2212  0.0004
59526SOL    HW285437   1.351   3.651   6.259  1.1017 -0.2209  0.0274
59527SOL     OW85438  11.705   2.089   4.346 -0.4533 -0.0865 -0.7644
59527SOL    HW185439  11.698   2.185   4.342  2.9371  0.5942  2.9138
59527SOL    HW285440  11.764   2.066   4.274 -1.0146  0.5864 -1.4594
59528SOL     OW85441  10.220   0.284  11.561 -0.0656  0.0674  0.3891
59528SOL    HW185442  10.144   0.247  11.606  0.1581  1.2352  1.8323
59528SOL    HW285443  10.204   0.379  11.562  0.0446  0.1717 -1.9149
59529SOL     OW85444  11.479   6.871   1.801  0.1036  0.5075 -0.8733
59529SOL    HW185445  11.563   6.829   1.782  0.2808  0.3422  0.2349
59529SOL    HW285446  11.501   6.949   1.851 -0.4530 -0.3975  0.8992
59530SOL     OW85447  11.018   7.291   0.942  0.0921  0.1910 -0.0250
59530SOL    HW185448  10.977   7.273   1.026  1.7913  2.6211  1.4505
59530SOL    HW285449  10.944   7.307   0.883 -1.2449  2.7785  2.1201
59531SOL     OW85450   9.449   6.160   5.707  0.0792  0.0269  0.0122
59531SOL    HW185451   9.368   6.120   5.676 -0.5428  1.2888 -0.0601
59531SOL    HW285452   9.470   6.113   5.787  0.6273 -1.9482 -1.2261
59532SOL     OW85453   4.222   9.710   5.478  0.2826 -0.8801 -0.1397
59532SOL    HW185454   4.186   9.629   5.515 -0.4624 -1.1587 -1.3872
59532SOL    HW285455   4.270   9.751   5.550 -1.9778 -0.8287  1.4154
59533SOL     OW85456   7.111   0.411   9.073  0.0392 -0.3750  0.3912
59533SOL    HW185457   7.124   0.439   8.982 -0.1927 -0.4278  0.3422
59533SOL    HW285458   7.113   0.315   9.069  0.4384 -0.3751  0.5025
59534SOL     OW85459   4.390   5.706   5.086 -0.0765 -0.8541  0.5604
59534SOL    HW185460   4.476   5.683   5.123 -0.2531 -0.8069  1.0025
59534SOL    HW285461   4.356   5.623   5.053  0.9773 -0.5537 -1.4019
59535SOL     OW85462  11.526   5.444   7.430 -0.3700 -0.3016  0.0190
59535SOL    HW185463  11.538   5.409   7.342 -2.5461 -0.9151 -0.0817
59535SOL    HW285464  11.557   5.535   7.424  0.7893 -0.7396 -0.9901
59536SOL     OW85465   3.097   9.016  11.335  0.0913  0.6813 -0.0662
59536SOL    HW185466   3.145   9.099  11.335  1.8187 -0.2604 -0.7098
59536SOL    HW285467   3.112   8.979  11.422  0.2277  0.5602 -0.1402
59537SOL     OW85468   1.714   0.043  12.288 -0.1039  0.4911  0.2284
59537SOL    HW185469   1.653   0.092  12.343  0.1908  0.2554  0.7770
59537SOL    HW285470   1.695  -0.049  12.307 -0.7814  0.3778 -0.9384
59538SOL     OW85471   2.093   5.461   8.921  0.4091  0.1411  0.4156
59538SOL    HW185472   2.145   5.422   8.851 -0.7974 -0.3132 -0.2604
59538SOL    HW285473   2.114   5.408   8.998 -0.1279 -0.9755 -0.1785
59539SOL     OW85474   0.770   5.127   2.570  0.1406 -0.4269 -0.1693
59539SOL    HW185475   0.834   5.197   2.558  0.2744 -0.4702  0.2803
59539SOL    HW285476   0.686   5.170   2.553  0.2253 -0.1723  0.0383
59540SOL     OW85477   9.634   8.778  12.557 -0.4535  0.3696  0.1596
59540SOL    HW185478   9.684   8.823  12.626 -0.4582  1.6844 -0.6556
59540SOL    HW285479   9.543   8.783  12.586 -0.2653 -0.8431  1.0019
59541SOL     OW85480   9.706   2.948   4.898 -0.1271 -0.8984 -0.7977
59541SOL    HW185481   9.676   3.038   4.886  2.1491 -0.0142 -0.3779
59541SOL    HW285482   9.634   2.894   4.864 -1.1324  1.0803 -2.0289
59542SOL     OW85483   6.787   9.325  11.536  0.5427 -0.1473 -0.4913
59542SOL    HW185484   6.880   9.336  11.514 -0.1183  0.3180 -3.3403
59542SOL    HW285485   6.751   9.274  11.465 -1.3650 -0.6345  0.7613
59543SOL     OW85486   9.430   8.545  12.399  0.1139  0.1865 -0.3947
59543SOL    HW185487   9.504   8.492  12.429 -1.0375 -1.1991  0.0666
59543SOL    HW285488   9.453   8.634  12.427  1.2446 -0.3338  0.4320
59544SOL     OW85489   4.373   0.823  11.562  0.4450  0.0999  0.0500
59544SOL    HW185490   4.355   0.729  11.568  1.0674 -0.1330 -1.4787
59544SOL    HW285491   4.322   0.853  11.487 -3.2738  1.9356  2.9902
59545SOL     OW85492   7.230   1.773   1.145  0.3404 -0.3255  0.2255
59545SOL    HW185493   7.152   1.796   1.195 -0.8459  0.1772 -1.7506
59545SOL    HW285494   7.299   1.764   1.211 -0.4673  3.0026  1.7557
59546SOL     OW85495   8.931  12.193  10.448 -0.0783 -0.6391  0.1477
59546SOL    HW185496   8.884  12.134  10.390 -1.7309  0.6554  0.1165
59546SOL    HW285497   8.891  12.278  10.434  1.0517  0.1652  1.5019
59547SOL     OW85498   5.031   6.558   2.736 -0.0309 -0.0331 -0.0274
59547SOL    HW185499   5.112   6.525   2.696  0.1906 -0.8570  1.0609
59547SOL    HW285500   5.061   6.605   2.814 -0.6535 -1.5181  1.1575
59548SOL     OW85501   8.214  10.373   5.662 -0.1900  0.0943  0.1077
59548SOL    HW185502   8.189  10.381   5.754  1.6185  1.6376  0.5113
59548SOL    HW285503   8.297  10.420   5.655  0.4487 -1.2191 -2.0297
59549SOL     OW85504  11.030   0.523   2.448  0.4050 -0.2717  0.4629
59549SOL    HW185505  11.113   0.560   2.479  0.2325 -1.5436  2.7048
59549SOL    HW285506  11.054   0.474   2.370  1.0704  2.3185 -1.0822
59550SOL     OW85507   6.910  11.856   3.499  0.4169  0.2116  0.0947
59550SOL    HW185508   6.866  11.901   3.571  1.3466 -0.0135  0.8081
59550SOL    HW285509   6.996  11.832   3.533  1.3495  1.1619 -1.4491
59551SOL     OW85510   7.357   4.524   8.439 -0.0260  0.6411  0.1575
59551SOL    HW185511   7.343   4.430   8.454  0.0321  0.7688  1.0491
59551SOL    HW285512   7.283   4.567   8.482 -0.3912  0.9818 -0.7889
59552SOL     OW85513   3.349  10.921   7.366  0.1398 -0.5778 -0.2918
59552SOL    HW185514   3.437  10.903   7.400  1.3348  0.4134 -2.5868
59552SOL    HW285515   3.319  10.998   7.415  1.3617  0.1823 -0.6830
59553SOL     OW85516   1.272  11.696   2.534 -0.0469 -0.0241  0.3239
59553SOL    HW185517   1.184  11.658   2.526  0.1029 -0.1616 -0.9364
59553SOL    HW285518   1.307  11.692   2.445 -0.1104  3.3640  0.0329
59554SOL     OW85519   9.913  12.015   3.505 -0.0973 -0.0500  0.3577
59554SOL    HW185520   9.832  12.066   3.497  0.4881  0.7243 -1.0237
59554SOL    HW285521   9.941  12.001   3.414  1.2972 -0.3319  0.8161
59555SOL     OW85522  12.249   5.726   9.494 -0.1914 -0.8426 -0.8986
59555SOL    HW185523  12.202   5.803   9.524 -0.0581 -1.7817  1.9572
59555SOL    HW285524  12.207   5.703   9.411 -1.8850  0.8152 -0.5564
59556SOL     OW85525   7.729  12.385   6.444 -0.0510  0.0364 -0.1525
59556SOL    HW185526   7.792  12.408   6.376 -0.2457  1.2524  0.0531
59556SOL    HW285527   7.745  12.450   6.514 -0.3045 -0.7678  0.6718
59557SOL     OW85528   1.680   5.604   7.057  0.3620 -0.5084  0.0393
59557SOL    HW185529   1.678   5.691   7.017  1.4843  0.0602  1.1676
59557SOL    HW285530   1.774   5.585   7.069  0.1465 -1.9377 -0.3096
59558SOL     OW85531   4.514   9.907   3.368  0.4445  0.5124 -0.0167
59558SOL    HW185532   4.472   9.849   3.304  0.4314  0.2933  0.1875
59558SOL    HW285533   4.584   9.853   3.406 -1.0347 -0.1801  1.8626
59559SOL     OW85534   5.869   8.415  11.208 -0.2584 -0.0500  0.4666
59559SOL    HW185535   5.878   8.500  11.165  2.8626 -1.0046 -1.0333
59559SOL    HW285536   5.917   8.425  11.290 -0.2507 -0.2445  0.4857
59560SOL     OW85537   7.944  10.342   6.046 -0.0060  0.1081  0.0189
59560SOL    HW185538   7.850  10.336   6.030 -0.2029 -1.2558  1.4394
59560SOL    HW285539   7.983  10.353   5.959 -1.4106 -0.4012 -0.6961
59561SOL     OW85540   6.645   8.617  11.122 -0.1380 -0.1662 -0.1575
59561SOL    HW185541   6.585   8.572  11.181  1.1374  0.3789  1.6461
59561SOL    HW285542   6.732   8.587  11.150  0.5497  0.8919 -1.0973
59562SOL     OW85543  12.563   0.423  12.526  0.1150 -0.1051 -0.4738
59562SOL    HW185544  12.619   0.353  12.560  0.3473  0.1115 -0.4089
59562SOL    HW285545  12.524   0.462  12.604  0.4764  0.2490 -0.4708
59563SOL     OW85546  10.774   5.126   8.479 -0.0098  0.1825 -0.3524
59563SOL    HW185547  10.744   5.191   8.543  0.2299  0.2445 -0.3031
59563SOL    HW285548  10.821   5.177   8.413  0.2875  0.0460 -0.2494
59564SOL     OW85549   4.126   8.826   9.376 -0.0407  0.0940 -0.0265
59564SOL    HW185550   4.148   8.907   9.422  1.7237  0.5383 -1.5536
59564SOL    HW285551   4.063   8.783   9.434 -0.0645  1.9402  1.4277
59565SOL     OW85552  12.296   7.802   5.103  0.1971  0.0645  0.0323
59565SOL    HW185553  12.202   7.801   5.083  0.3026 -1.0048 -0.4687
59565SOL    HW285554  12.324   7.711   5.093  1.2085  0.2953  0.5979
59566SOL     OW85555   5.678   5.056  10.223  0.1388  0.5955  0.1532
59566SOL    HW185556   5.770   5.054  10.250 -0.1273  0.6989  1.1028
59566SOL    HW285557   5.629   5.053  10.305 -0.7329 -1.3468 -0.3860
59567SOL     OW85558   2.490   5.219   0.630 -0.0582 -0.4188  0.1378
59567SOL    HW185559   2.542   5.139   0.631  2.1736  0.9582  1.1487
59567SOL    HW285560   2.463   5.233   0.720  0.7988  0.6830  0.2496
59568SOL     OW85561   3.956  12.199   6.685  0.2141 -0.6308 -0.4246
59568SOL    HW185562   4.002  12.232   6.608 -1.9325  1.6661 -0.8383
59568SOL    HW285563   4.026  12.174   6.745  1.9711  0.0718 -2.0663
59569SOL     OW85564   5.733   2.873   2.379  0.2117 -0.4829  0.7812
59569SOL    HW185565   5.811   2.839   2.334 -1.9807 -2.5864 -1.7749
59569SOL    HW285566   5.727   2.822   2.459  0.8015 -1.1971  0.3861
59570SOL     OW85567   3.384   9.473   9.672 -0.2354  0.6765 -0.0081
59570SOL    HW185568   3.320   9.544   9.664  0.9072  1.5234 -2.5157
59570SOL    HW285569   3.469   9.518   9.678  0.4463 -0.4532 -0.7865
59571SOL     OW85570   8.312   3.044   5.173  0.5433 -0.3169 -0.4973
59571SOL    HW185571   8.316   3.134   5.138 -1.4324 -0.6222 -1.7123
59571SOL    HW285572   8.222   3.035   5.204  0.3421 -2.2326 -1.4722
59572SOL     OW85573  10.618   4.788   5.700 -0.0289  0.6394  0.6545
59572SOL    HW185574  10.529   4.819   5.683 -0.4642 -0.1884  1.3738
59572SOL    HW285575  10.661   4.863   5.742  0.0572  1.5247 -0.9071
59573SOL     OW85576   8.056   7.021  10.960  0.2024  0.0124 -0.4378
59573SOL    HW185577   8.070   6.948  10.900 -0.7896 -0.4151 -0.1595
59573SOL    HW285578   8.061   6.981  11.047  1.1142  0.5395 -0.2365
59574SOL     OW85579   4.804   9.221   6.459  0.1089  0.5064 -0.1171
59574SOL    HW185580   4.786   9.175   6.541 -1.1298  2.9289  1.0709
59574SOL    HW285581   4.849   9.301   6.486  1.4932  0.4468 -2.0260
59575SOL     OW85582   9.213   7.583   9.128 -0.4120  0.1533  0.4741
59575SOL    HW185583   9.307   7.579   9.145 -0.4304 -0.4897  0.4429
59575SOL    HW285584   9.176   7.513   9.181 -0.6379 -0.9040 -1.0259
59576SOL     OW85585   4.883  12.221   3.313 -0.4146  0.2105  0.6251
59576SOL    HW185586   4.943  12.240   3.384 -1.0730 -0.3628  1.3490
59576SOL    HW285587   4.910  12.135   3.280  1.5240  1.5248 -1.5678
59577SOL     OW85588   8.022   8.987   3.214 -0.0499  0.1704 -0.0284
59577SOL    HW185589   7.931   9.014   3.214  0.2122  1.0767  0.5139
59577SOL    HW285590   8.021   8.898   3.251 -0.9293 -0.6971 -1.9919
59578SOL     OW85591   5.863  11.918   9.843 -0.5936 -0.3412  0.3341
59578SOL    HW185592   5.780  11.922   9.794 -0.0833 -0.9947 -0.6090
59578SOL    HW285593   5.915  11.991   9.809 -1.1264  0.6835  1.6265
59579SOL     OW85594   2.762   7.234   4.696 -0.0452  0.7290 -0.2440
59579SOL    HW185595   2.678   7.198   4.670 -0.4010  0.8825  0.6500
59579SOL    HW285596   2.785   7.296   4.626  0.6923 -1.3184 -1.9300
59580SOL     OW85597   2.932   8.592   7.898 -0.7582 -0.1028  0.5446
59580SOL    HW185598   2.952   8.682   7.926 -0.6873  0.0660 -0.0453
59580SOL    HW285599   3.017   8.556   7.873 -0.5157 -0.8934  2.3387
59581SOL     OW85600   3.639   7.858   6.163  0.1489 -0.0368  0.8257
59581SOL    HW185601   3.720   7.898   6.194  3.3140 -3.8361 -1.4737
59581SOL    HW285602   3.649   7.855   6.067 -0.9463 -3.7097  0.6649
59582SOL     OW85603   9.813   1.537   1.072 -0.7548  0.4416  0.3162
59582SOL    HW185604   9.796   1.523   1.165  0.1813 -1.4797  0.2535
59582SOL    HW285605   9.899   1.496   1.057 -0.9178  0.6624 -1.4012
59583SOL     OW85606   9.772   9.016   1.543 -0.1592  0.3514 -0.7197
59583SOL    HW185607   9.851   9.018   1.597 -1.1582 -0.7879  0.8881
59583SOL    HW285608   9.804   9.024   1.453  1.6097  1.8009 -0.0218
59584SOL     OW85609  11.999  10.172   9.146  0.5217  0.6405  0.1802
59584SOL    HW185610  12.088  10.161   9.178  1.1671  1.8411 -1.1060
59584SOL    HW285611  11.956  10.088   9.163  1.4710  0.4936  2.0747
59585SOL     OW85612   1.947   4.751   1.598  0.3066 -0.2540  0.0871
59585SOL    HW185613   1.943   4.846   1.592  0.5200 -0.2806 -0.5305
59585SOL    HW285614   1.856   4.722   1.590  0.1838 -0.0839  0.7730
59586SOL     OW85615   5.986   2.402   5.451 -0.5156 -0.1729  0.2452
59586SOL    HW185616   5.971   2.345   5.526  2.2786 -0.0433  1.0009
59586SOL    HW285617   6.066   2.369   5.411 -0.1123  1.8041 -0.6986
59587SOL     OW85618   0.556  11.749  10.454  0.2555 -0.2263  0.0060
59587SOL    HW185619   0.587  11.819  10.396  1.5979  0.2684  1.2779
59587SOL    HW285620   0.578  11.668  10.407 -0.1750  0.1680 -0.9100
59588SOL     OW85621   1.227   6.997  11.384  0.1217  0.0405  0.1892
59588SOL    HW185622   1.310   7.044  11.371  0.2882 -0.6176 -1.3978
59588SOL    HW285623   1.213   6.950  11.301 -1.9937  0.3707  0.3017
59589SOL     OW85624   4.256   2.613   1.080  0.4530  0.6802  0.6964
59589SOL    HW185625   4.267   2.679   1.149 -0.3175 -1.0298  2.5789
59589SOL    HW285626   4.176   2.641   1.034 -0.6184  0.4454  2.3007
59590SOL     OW85627   2.379   1.934  11.827  0.4803 -0.5841  0.1225
59590SOL    HW185628   2.423   1.872  11.768 -1.4845 -1.0789 -0.9205
59590SOL    HW285629   2.372   1.887  11.910 -0.6927 -1.6881 -0.5642
59591SOL     OW85630   9.134   1.681   8.642  0.1419  0.0417  0.0652
59591SOL    HW185631   9.044   1.714   8.646 -0.3182 -0.9809 -1.2101
59591SOL    HW285632   9.130   1.596   8.685  0.5979  0.1731  0.3712
59592SOL     OW85633   3.562   0.169   1.913  0.1557 -0.1370  0.0787
59592SOL    HW185634   3.631   0.103   1.908  0.1007 -0.1268 -1.3269
59592SOL    HW285635   3.601   0.241   1.963  1.3762  0.0731 -1.1083
59593SOL     OW85636   3.373   4.835  11.847 -0.3655  0.1624  0.9842
59593SOL    HW185637   3.360   4.749  11.888  2.2353 -0.6283  0.3903
59593SOL    HW285638   3.290   4.880  11.859 -1.8435 -2.4225  1.3523
59594SOL     OW85639   1.984   8.051   2.441  0.4612  0.3649  0.1688
59594SOL    HW185640   2.073   8.087   2.442  1.0517 -0.9004 -1.5457
59594SOL    HW285641   1.995   7.961   2.470 -0.2552  0.1735 -0.1471
59595SOL     OW85642   0.847  11.823   3.700  0.0179  0.5526 -0.0328
59595SOL    HW185643   0.837  11.731   3.724  0.6775 -0.1991 -2.4110
59595SOL    HW285644   0.758  11.854   3.685 -0.0989 -0.8660 -2.9919
59596SOL     OW85645   3.912   5.501  10.953 -0.1050 -0.2420 -0.7549
59596SOL    HW185646   3.971   5.568  10.920  0.7068  0.3080  1.6240
59596SOL    HW285647   3.864   5.470  10.875  1.2781  1.2902 -2.2869
59597SOL     OW85648  11.590   4.270  12.474  0.1566 -0.2877  0.3345
59597SOL    HW185649  11.571   4.184  12.437  0.2716 -0.1714  0.0051
59597SOL    HW285650  11.505   4.310  12.490  0.1056  0.1858 -1.0296
59598SOL     OW85651   6.362   5.147   8.979  0.0409  0.3778  0.5721
59598SOL    HW185652   6.398   5.218   8.926  0.2912  0.0479  0.2906
59598SOL    HW285653   6.440   5.100   9.011 -0.1192  0.2719  0.8061
59599SOL     OW85654   6.922   8.825   2.088  0.5119 -0.3009  0.5026
59599SOL    HW185655   6.976   8.902   2.104  0.3205 -0.1181  0.2862
59599SOL    HW285656   6.836   8.861   2.063  1.1236 -0.4967 -2.2586
59600SOL     OW85657   8.830   8.408  11.719  0.0069  0.2047 -0.2363
59600SOL    HW185658   8.837   8.357  11.800 -3.9507  0.3720  0.4282
59600SOL    HW285659   8.832   8.499  11.748  1.8905  0.3773 -0.7987
59601SOL     OW85660   8.193   8.391   5.000  0.7530  0.4134  0.0137
59601SOL    HW185661   8.171   8.349   4.917 -1.8158  0.8490  0.3786
59601SOL    HW285662   8.207   8.318   5.061 -2.2962 -0.0742  0.3099
59602SOL     OW85663   7.010  12.237   1.713 -0.1561  0.6618 -0.1857
59602SOL    HW185664   7.072  12.194   1.655 -1.3274  0.3315 -1.2322
59602SOL    HW285665   6.933  12.180   1.713 -0.2800  0.7849  1.5076
59603SOL     OW85666   1.628   9.798  12.506  0.3058 -0.3638 -0.3494
59603SOL    HW185667   1.543   9.811  12.550  0.8142  1.3455  0.1819
59603SOL    HW285668   1.627   9.859  12.433  0.6741 -1.1055 -0.9921
59604SOL     OW85669   5.069   9.497  12.050  0.1854 -0.5527 -0.1381
59604SOL    HW185670   5.047   9.528  12.138 -0.3015 -0.5444 -0.2616
59604SOL    HW285671   5.125   9.566  12.014 -0.6739  0.0696 -0.3114
59605SOL     OW85672   4.580   2.759   1.888  0.0486 -0.2319  0.3885
59605SOL    HW185673   4.606   2.851   1.884  0.2236 -0.2942 -3.5511
59605SOL    HW285674   4.656   2.713   1.922  1.1318  0.7854 -0.5848
59606SOL     OW85675   0.669   6.815   8.509 -1.4261 -0.4860 -0.0922
59606SOL    HW185676   0.602   6.870   8.469 -1.1116 -0.3206 -0.3962
59606SOL    HW285677   0.750   6.839   8.464 -1.2258 -0.9464  0.0163
59607SOL     OW85678   3.465   5.145   1.591 -0.2350 -0.0736 -0.5918
59607SOL    HW185679   3.530   5.200   1.548 -0.5760  0.3653 -0.5531
59607SOL    HW285680   3.386   5.198   1.593 -0.2911 -0.1702  0.3763
59608SOL     OW85681   7.403   6.428  11.121 -0.1058 -0.2775  0.1679
59608SOL    HW185682   7.360   6.345  11.141  0.9153 -1.1434 -1.0105
59608SOL    HW285683   7.331   6.490  11.108 -0.8957 -1.0138  0.8863
59609SOL     OW85684   8.685   7.015   1.660 -0.2497 -0.3602  0.0557
59609SOL    HW185685   8.666   7.108   1.654 -1.1559 -0.3384  2.2205
59609SOL    HW285686   8.759   7.010   1.721 -0.5128 -1.0763  0.3285
59610SOL     OW85687  11.774  11.030   3.851  0.4043 -0.4461 -0.5600
59610SOL    HW185688  11.765  10.935   3.840 -0.9260 -0.4902  0.6492
59610SOL    HW285689  11.864  11.042   3.883  0.2677 -1.3963  0.2190
59611SOL     OW85690  12.057   4.442   3.515  0.0318 -0.1488  0.1013
59611SOL    HW185691  12.106   4.419   3.437  0.3819  0.6430  0.0849
59611SOL    HW285692  12.119   4.492   3.569  0.6064 -2.6428  1.9791
59612SOL     OW85693  12.537   8.953   1.435  0.0861 -0.3119 -0.0531
59612SOL    HW185694  12.457   8.985   1.477 -0.0355 -0.9525  0.2206
59612SOL    HW285695  12.515   8.865   1.405  0.4744 -0.2238 -0.6068
59613SOL     OW85696   5.757   1.169   0.577  0.0759  0.0558 -0.4053
59613SOL    HW185697   5.762   1.233   0.647  0.4872  0.2873 -0.6420
59613SOL    HW285698   5.728   1.088   0.619  0.1226  0.2469 -0.0095
59614SOL     OW85699  11.656   7.255   8.900 -0.1520  0.0837  0.3071
59614SOL    HW185700  11.588   7.209   8.851 -0.7937  0.3157  0.9649
59614SOL    HW285701  11.688   7.189   8.963 -2.2039  0.9146  2.3793
59615SOL     OW85702  10.931   3.654   7.266  0.1210 -0.2345  0.1365
59615SOL    HW185703  11.026   3.663   7.264  0.1730 -0.7212  0.2505
59615SOL    HW285704  10.903   3.662   7.175  0.4199 -1.5479 -0.0980
59616SOL     OW85705   9.911   7.295   1.497 -0.0694 -0.0939 -0.1781
59616SOL    HW185706   9.861   7.352   1.439  0.6190  0.2503 -0.4445
59616SOL    HW285707   9.866   7.300   1.581  0.9561  2.2667  0.3204
59617SOL     OW85708  12.256   7.964   8.923  0.3683  0.3794  0.2820
59617SOL    HW185709  12.211   7.977   8.839  1.1018  0.7353 -0.0596
59617SOL    HW285710  12.203   7.897   8.967 -1.0086  1.4290  0.2764
59618SOL     OW85711  10.122   1.659   1.151 -0.3174 -0.2536  0.6166
59618SOL    HW185712  10.198   1.640   1.206  0.5328 -0.4030 -0.5673
59618SOL    HW285713  10.125   1.593   1.082 -1.8017 -0.5489  0.8009
59619SOL     OW85714   8.902  11.650   4.339  0.0904  0.2699  0.4532
59619SOL    HW185715   8.930  11.635   4.429  1.5254 -1.5402 -0.2304
59619SOL    HW285716   8.872  11.564   4.308  2.4057  0.0835 -1.6427
59620SOL     OW85717  10.321   0.605  12.338 -0.2474 -0.2622 -0.1672
59620SOL    HW185718  10.316   0.682  12.281 -0.6815 -0.7718 -0.8367
59620SOL    HW285719  10.414   0.582  12.339 -0.1241  0.2278 -0.0124
59621SOL     OW85720   5.542  11.058   8.061  0.2695  0.1174 -0.2819
59621SOL    HW185721   5.552  11.139   8.010  0.4435  0.4571  0.2807
59621SOL    HW285722   5.455  11.065   8.100  0.3931  0.1611 -0.0128
59622SOL     OW85723   5.427   7.825   3.911 -0.2494 -0.4688  0.5316
59622SOL    HW185724   5.397   7.917   3.910 -0.4432 -0.5110  1.4141
59622SOL    HW285725   5.475   7.815   3.829 -3.0077 -0.5106 -1.2273
59623SOL     OW85726   3.751   0.856   9.723 -0.1793  0.0894 -0.0051
59623SOL    HW185727   3.739   0.793   9.652  0.9928 -0.3965  0.2211
59623SOL    HW285728   3.693   0.929   9.699 -1.9214 -1.2397 -0.0229
59624SOL     OW85729   3.002   7.863   1.465 -0.4885  0.4040  0.3991
59624SOL    HW185730   3.032   7.822   1.383 -1.0403  0.1454  0.3261
59624SOL    HW285731   3.082   7.872   1.517 -0.3400 -0.7477  0.4112
59625SOL     OW85732   5.639   0.696   4.740  0.0595  0.0617  0.3374
59625SOL    HW185733   5.584   0.638   4.794 -1.0776 -1.4305 -2.2462
59625SOL    HW285734   5.726   0.691   4.781 -0.9378 -0.1803  2.5763
59626SOL     OW85735   2.027   7.632   0.102  0.0622  0.4125  0.3299
59626SOL    HW185736   1.951   7.576   0.086  0.4029 -0.1260  0.5470
59626SOL    HW285737   2.015   7.665   0.191  1.1417 -1.4387  1.2390
59627SOL     OW85738   6.911   3.494   9.370 -0.1031 -0.4630 -0.1114
59627SOL    HW185739   6.946   3.501   9.281  1.7232  0.0966  0.6150
59627SOL    HW285740   6.855   3.572   9.379 -2.4018 -1.8066 -1.5702
59628SOL     OW85741  10.751   1.193   4.437 -0.0130 -0.0117  0.4605
59628SOL    HW185742  10.818   1.186   4.369 -0.6176 -1.9101  0.0127
59628SOL    HW285743  10.796   1.169   4.518  0.2316  0.3444  0.4336
59629SOL     OW85744  10.571   5.451   3.454  0.0967  0.3799  0.0133
59629SOL    HW185745  10.573   5.370   3.505 -0.3127 -0.7083 -1.6063
59629SOL    HW285746  10.558   5.520   3.519  1.1893 -0.7575  1.5252
59630SOL     OW85747   7.185   4.422   8.068 -0.0750  0.1647  0.3442
59630SOL    HW185748   7.147   4.418   7.980  0.7907 -0.6672 -0.0132
59630SOL    HW285749   7.227   4.507   8.072  1.1255 -0.3586 -0.6028
59631SOL     OW85750   2.197   1.670  11.908 -0.1005  0.2111 -0.0900
59631SOL    HW185751   2.148   1.591  11.932  0.5849 -0.9847 -2.2409
59631SOL    HW285752   2.231   1.703  11.990 -1.6855 -0.8639  1.0611
59632SOL     OW85753   6.620   6.531   6.590 -0.1022  0.2919 -0.2923
59632SOL    HW185754   6.582   6.514   6.504  0.9156  2.2987 -1.1874
59632SOL    HW285755   6.572   6.472   6.649 -1.1979 -0.7354 -2.1169
59633SOL     OW85756   4.631   5.902   1.960  0.3284 -0.0915  0.1789
59633SOL    HW185757   4.571   5.890   2.033  1.3224 -2.4549  0.6853
59633SOL    HW285758   4.588   5.856   1.887  0.0191  1.0258 -0.3627
59634SOL     OW85759  12.419  12.327   4.080 -0.4754 -0.5626  0.0536
59634SOL    HW185760  12.347  12.268   4.103  0.3110 -0.8909  1.8644
59634SOL    HW285761  12.422  12.327   3.985 -3.4973  0.2469 -0.1348
59635SOL     OW85762   1.115   4.653  10.212  0.1781 -0.4521 -0.0714
59635SOL    HW185763   1.042   4.592  10.225  0.8784 -0.8337  2.6218
59635SOL    HW285764   1.079   4.739  10.235  0.5038 -0.6232  1.1380
59636SOL     OW85765  12.176   0.295   1.612  0.7017 -0.3166  0.6347
59636SOL    HW185766  12.090   0.253   1.614 -0.3079  1.5095 -0.8236
59636SOL    HW285767  12.160   0.386   1.638  1.6565  0.7481 -2.0381
59637SOL     OW85768   0.024   8.274   2.778  0.1266  0.2310 -0.0049
59637SOL    HW185769   0.064   8.317   2.854  1.5433 -1.6277  0.3906
59637SOL    HW285770   0.098   8.254   2.721 -0.6580 -0.4047 -0.8247
59638SOL     OW85771   1.317   9.311   7.183  0.4241  0.2982  0.3843
59638SOL    HW185772   1.388   9.375   7.180  2.0084 -1.3575  0.9658
59638SOL    HW285773   1.269   9.333   7.263 -0.2327  1.8764 -0.3829
59639SOL     OW85774   1.215   2.643   5.132  0.0193  0.4991 -0.1646
59639SOL    HW185775   1.283   2.681   5.077  1.8688 -0.7706  1.0930
59639SOL    HW285776   1.139   2.634   5.075  1.9003 -1.0055 -2.6374
59640SOL     OW85777  12.578   2.153   2.569 -0.8410  0.0183  0.5829
59640SOL    HW185778  12.662   2.197   2.551 -0.4211 -1.6471 -2.1814
59640SOL    HW285779  12.583   2.129   2.661  1.5976  0.2507  0.5886
59641SOL     OW85780   8.044   4.271   8.284 -0.0003  0.4627  0.3507
59641SOL    HW185781   8.097   4.265   8.363  0.0275  0.2246  0.3143
59641SOL    HW285782   8.091   4.335   8.229 -0.7181  1.6429  1.0637
59642SOL     OW85783  12.237   8.943   8.095 -0.1155 -0.1395  0.0356
59642SOL    HW185784  12.199   9.014   8.043  0.8224  1.6150  1.6278
59642SOL    HW285785  12.327   8.936   8.062  0.3023  0.5856  0.9695
59643SOL     OW85786   7.873   4.355   6.724  0.8498  0.3495  0.3449
59643SOL    HW185787   7.888   4.444   6.756 -0.0914  0.0995  1.5564
59643SOL    HW285788   7.778   4.344   6.730  0.8899 -0.5004 -0.4630
59644SOL     OW85789   3.186   9.512  10.169  0.2056  0.1231  0.1789
59644SOL    HW185790   3.202   9.555  10.253 -1.6684  2.0284 -0.3638
59644SOL    HW285791   3.145   9.429  10.192  0.2266  0.3751  1.1550
59645SOL     OW85792   6.878   1.924   1.691 -0.3488 -0.4874 -0.4201
59645SOL    HW185793   6.885   2.014   1.660 -1.1851 -0.3976 -0.3769
59645SOL    HW285794   6.849   1.874   1.615  2.2308 -1.1531 -1.0633
59646SOL     OW85795   0.530   9.346   8.138 -0.2541 -0.2296  0.2838
59646SOL    HW185796   0.574   9.333   8.222 -2.4641 -1.7678  1.3363
59646SOL    HW285797   0.546   9.437   8.115  4.6617 -1.0101 -0.3000
59647SOL     OW85798   9.532  10.266   8.498 -0.0292  0.6187 -0.0852
59647SOL    HW185799   9.574  10.297   8.417 -2.4794 -0.5373 -1.9511
59647SOL    HW285800   9.589  10.297   8.568  2.3685  1.4747 -2.2444
59648SOL     OW85801   2.206  10.107   8.258 -0.0724 -0.3012  0.4604
59648SOL    HW185802   2.175  10.059   8.335 -0.2051  0.3395  0.8110
59648SOL    HW285803   2.127  10.121   8.205 -0.2290  0.5327  0.9125
59649SOL     OW85804   4.265   5.701   8.443  0.4817 -0.0032  0.2651
59649SOL    HW185805   4.306   5.689   8.528 -1.0323  0.1297  1.0394
59649SOL    HW285806   4.301   5.784   8.410  3.6129 -1.6164 -0.7888
59650SOL     OW85807   5.417   6.890   6.362 -0.3117 -0.1371  0.2576
59650SOL    HW185808   5.345   6.846   6.317  0.1396  0.0689 -0.6902
59650SOL    HW285809   5.448   6.825   6.425 -1.4079 -0.1801  0.7900
59651SOL     OW85810   9.213  10.670   8.465  0.0396  0.7066  0.1405
59651SOL    HW185811   9.192  10.745   8.521  0.2327  0.8632  0.0033
59651SOL    HW285812   9.295  10.636   8.501 -0.3271  0.2293  0.5373
59652SOL     OW85813   8.136  11.353   0.896  0.1356  0.2975 -0.3877
59652SOL    HW185814   8.182  11.396   0.823  0.1954  0.7742 -0.0726
59652SOL    HW285815   8.139  11.417   0.967  0.0749 -0.1669  0.0356
59653SOL     OW85816  11.462   5.396   2.672 -0.3607  0.7159 -0.7512
59653SOL    HW185817  11.484   5.351   2.591 -0.0133 -0.2786 -0.1325
59653SOL    HW285818  11.546   5.420   2.710 -0.5039  0.8450 -0.5090
59654SOL     OW85819   2.587   6.923   5.650  1.1207 -0.6645 -0.0211
59654SOL    HW185820   2.657   6.905   5.713  0.5171 -2.2174  0.2566
59654SOL    HW285821   2.513   6.952   5.704  0.8972 -1.0752 -0.1034
59655SOL     OW85822   6.544  11.181   9.189 -0.4843 -0.3125  0.2560
59655SOL    HW185823   6.481  11.139   9.247 -1.2033 -0.4423 -0.5940
59655SOL    HW285824   6.490  11.216   9.117  0.2952  0.5137  0.0615
59656SOL     OW85825   5.046   2.441   5.628  0.5064 -0.4241  0.0994
59656SOL    HW185826   5.008   2.353   5.627  0.7292 -0.5158 -0.9185
59656SOL    HW285827   5.121   2.436   5.568 -0.3148  0.8255 -1.0788
59657SOL     OW85828  11.104   6.025  10.174  0.1807 -0.2033 -0.6259
59657SOL    HW185829  11.153   5.982  10.104 -1.9765  0.3241 -2.5900
59657SOL    HW285830  11.036   5.962  10.199  0.9840 -0.4275  1.1328
59658SOL     OW85831   9.464   1.822  10.641 -0.8142 -0.6604  0.0122
59658SOL    HW185832   9.524   1.877  10.590 -1.1382  0.1813  0.5146
59658SOL    HW285833   9.412   1.776  10.575 -0.0735 -0.8996 -0.4227
59659SOL     OW85834   6.311   1.640   3.773 -0.0218  0.1780  0.1972
59659SOL    HW185835   6.284   1.631   3.865  0.4131  0.3263  0.3428
59659SOL    HW285836   6.267   1.719   3.743 -0.5231 -0.1192  0.1449
59660SOL     OW85837   0.998   8.330   9.370  0.1049 -0.4396  0.3642
59660SOL    HW185838   0.933   8.268   9.336 -1.3503  1.0650  0.3001
59660SOL    HW285839   0.973   8.344   9.461  0.6316 -0.1879  0.4738
59661SOL     OW85840  11.420   7.865   0.851  0.3806 -0.5476  0.3948
59661SOL    HW185841  11.391   7.810   0.924 -0.0947  0.4753  1.0040
59661SOL    HW285842  11.345   7.871   0.793  0.1119  0.1910  0.7983
59662SOL     OW85843   3.101   7.542   1.989  0.1706 -0.6224 -1.0419
59662SOL    HW185844   3.184   7.582   1.963 -0.6579 -0.0888 -3.0970
59662SOL    HW285845   3.125   7.477   2.055  2.2153 -0.4871 -1.5809
59663SOL     OW85846   5.112  10.683  10.321  0.4743  0.2052 -0.3864
59663SOL    HW185847   5.075  10.620  10.384  0.9739  0.7781  0.5054
59663SOL    HW285848   5.191  10.641  10.289  0.5274  0.1571 -0.1930
59664SOL     OW85849   7.276   2.496   8.221 -0.5457  0.0928  0.3352
59664SOL    HW185850   7.302   2.444   8.145  2.3560  1.3430  0.3605
59664SOL    HW285851   7.190   2.461   8.246 -0.8280 -1.4757 -2.4550
59665SOL     OW85852   7.013   0.350   0.217 -0.0186 -0.3440 -0.0404
59665SOL    HW185853   7.071   0.286   0.176  0.5092  0.0483  0.0829
59665SOL    HW285854   6.969   0.302   0.287  2.1577 -0.0277  1.6442
59666SOL     OW85855  12.203   2.058   2.208  0.3860 -0.0087  0.0977
59666SOL    HW185856  12.282   2.034   2.257  0.9942  0.6493 -0.5419
59666SOL    HW285857  12.201   2.154   2.211  1.0156  0.1168 -2.0059
59667SOL     OW85858   4.828   1.955  11.832  0.2363  0.9984  0.4151
59667SOL    HW185859   4.770   1.909  11.771  1.0905  0.9261 -0.3647
59667SOL    HW285860   4.893   1.997  11.776  2.4032 -0.9476  1.3220
59668SOL     OW85861   5.503   5.299  10.293 -0.1189  0.5157  0.5063
59668SOL    HW185862   5.430   5.300  10.231 -0.9744  0.6203  1.5014
59668SOL    HW285863   5.580   5.283  10.238 -0.9188  0.0558 -0.5205
59669SOL     OW85864  11.332   7.203   5.117  0.5475 -0.1159  0.4355
59669SOL    HW185865  11.301   7.293   5.108  0.9114  0.0764  1.0054
59669SOL    HW285866  11.276   7.165   5.184  1.2898  0.1277  1.2187
59670SOL     OW85867   9.766   6.436   7.200 -0.3557  0.4405 -0.0353
59670SOL    HW185868   9.711   6.450   7.123 -1.1908  0.6822  0.5884
59670SOL    HW285869   9.713   6.381   7.257 -0.2783  1.3383  0.9233
59671SOL     OW85870  11.254   7.025   2.915 -0.2601 -0.0552  0.4998
59671SOL    HW185871  11.271   7.049   2.824  1.7888 -0.8551  0.6377
59671SOL    HW285872  11.316   6.955   2.934  1.7396  2.2742  3.4793
59672SOL     OW85873   2.541   3.066  10.801 -0.0762  0.2586 -0.0250
59672SOL    HW185874   2.453   3.079  10.834 -0.2150  1.3677 -0.7810
59672SOL    HW285875   2.593   3.133  10.845  0.3075 -0.0819  0.0522
59673SOL     OW85876   4.180   2.776   2.598  0.1247  0.5225 -0.3705
59673SOL    HW185877   4.095   2.788   2.556  0.9668  1.2554 -1.9982
59673SOL    HW285878   4.206   2.687   2.574 -0.0948  0.3833 -0.0794
59674SOL     OW85879   2.429   7.485   5.234  0.1987  0.1662  0.2536
59674SOL    HW185880   2.463   7.406   5.277 -0.6697 -0.5219 -0.2948
59674SOL    HW285881   2.488   7.555   5.263  0.8189 -0.6285  0.9703
59675SOL     OW85882   5.070   8.616  10.799 -0.5593  0.1865  0.0394
59675SOL    HW185883   5.160   8.632  10.827  0.5554 -2.9702 -1.2931
59675SOL    HW285884   5.074   8.613  10.703 -2.1696  0.4230 -0.0678
59676SOL     OW85885   3.711   0.954  11.487  0.0908 -0.2729  0.1818
59676SOL    HW185886   3.794   0.991  11.456  0.3089 -0.1269  0.9272
59676SOL    HW285887   3.672   1.024  11.539 -0.3913 -0.4238  0.0229
59677SOL     OW85888   1.921  10.563   3.544  0.0256 -0.4803  0.1843
59677SOL    HW185889   1.912  10.500   3.616 -0.6465 -1.7295 -0.9533
59677SOL    HW285890   1.858  10.632   3.565  0.6444 -0.2542  1.3646
59678SOL     OW85891   2.519   5.493  10.945 -0.3412 -0.0228  0.0498
59678SOL    HW185892   2.568   5.429  10.996 -1.0637  0.6843  1.6953
59678SOL    HW285893   2.582   5.565  10.931 -0.5298  0.3611  1.1174
59679SOL     OW85894   4.096  10.737   2.485  0.0074  0.2619  0.1379
59679SOL    HW185895   4.118  10.812   2.431  1.1818 -0.7904 -0.9118
59679SOL    HW285896   4.171  10.726   2.544 -0.4865  0.3471  0.7931
59680SOL     OW85897  10.845   1.371   1.528 -0.4020 -0.1207  0.0582
59680SOL    HW185898  10.841   1.279   1.501 -1.6065  0.1570 -0.7822
59680SOL    HW285899  10.937   1.396   1.513 -0.0371 -1.1995  0.3803
59681SOL     OW85900   9.251  12.261   2.143  0.2247 -0.0398 -0.2958
59681SOL    HW185901   9.326  12.304   2.184  0.5422  1.1991 -2.0809
59681SOL    HW285902   9.187  12.332   2.131  0.6194 -0.0404 -2.9869
59682SOL     OW85903   9.428   9.422   9.494 -0.9913 -0.8060 -0.2131
59682SOL    HW185904   9.406   9.371   9.573  0.7384  0.3964  1.1119
59682SOL    HW285905   9.518   9.452   9.509  0.0890 -2.0384 -3.4972
59683SOL     OW85906   9.740   6.737   4.160  0.2493 -0.0241 -0.2394
59683SOL    HW185907   9.825   6.765   4.126  0.0529  0.9047  0.0091
59683SOL    HW285908   9.761   6.676   4.231  0.7464  1.0315  0.5448
59684SOL     OW85909   1.254  11.654   3.918 -0.4199 -0.3965  0.3400
59684SOL    HW185910   1.196  11.730   3.915  0.0745  0.0085  0.7890
59684SOL    HW285911   1.299  11.661   4.002  2.5736  1.0639 -1.2087
59685SOL     OW85912   6.643   4.689   9.602 -0.4453 -0.6469  0.4192
59685SOL    HW185913   6.589   4.683   9.523 -1.1194 -1.8496  0.9609
59685SOL    HW285914   6.583   4.676   9.674  0.3455 -0.5826  1.1032
59686SOL     OW85915  11.010   5.745   2.357  0.0108 -0.6896 -0.5453
59686SOL    HW185916  10.925   5.733   2.315 -0.7596  1.5446  0.2274
59686SOL    HW285917  11.059   5.802   2.298  1.1802 -2.2700 -1.1778
59687SOL     OW85918   8.132   7.910   6.402  0.5760 -0.2494  0.3909
59687SOL    HW185919   8.068   7.951   6.343 -0.1743 -0.7456  0.8451
59687SOL    HW285920   8.192   7.865   6.344  0.5505  0.2693 -0.0480
59688SOL     OW85921   7.365   3.160   1.138 -0.3051  0.0653  0.6988
59688SOL    HW185922   7.359   3.066   1.118 -1.1971  0.2763 -0.1216
59688SOL    HW285923   7.456   3.182   1.123 -0.0703 -0.6863  0.9757
59689SOL     OW85924  10.706   1.010   1.585  0.0712 -0.1559  0.0056
59689SOL    HW185925  10.687   0.933   1.532  0.3282  0.3142 -0.7873
59689SOL    HW285926  10.770   1.059   1.534 -0.9445  1.1652 -0.0608
59690SOL     OW85927  12.106   9.353  10.386  0.3734 -0.1390 -0.1072
59690SOL    HW185928  12.061   9.269  10.398  0.2981  0.0897  1.2840
59690SOL    HW285929  12.191   9.340  10.428 -0.2815  1.0186  1.6626
59691SOL     OW85930   5.597   5.356   2.318 -0.2141  0.0682 -0.0741
59691SOL    HW185931   5.626   5.447   2.323 -1.1572  0.4314 -0.8191
59691SOL    HW285932   5.662   5.313   2.263  0.0150  0.3930 -0.0615
59692SOL     OW85933   5.757   6.125   6.763 -0.0269 -0.0003 -0.1412
59692SOL    HW185934   5.712   6.205   6.736 -1.8385 -1.7361 -2.7039
59692SOL    HW285935   5.695   6.055   6.744  1.5013 -2.0792  1.9919
59693SOL     OW85936   0.128   4.055   2.818 -0.6151 -0.4038  0.2096
59693SOL    HW185937   0.051   4.079   2.869 -1.1591  0.6495 -1.0524
59693SOL    HW285938   0.126   4.114   2.743  0.7051 -1.2439 -0.5162
59694SOL     OW85939  10.483   5.108  12.539 -0.0528 -0.2681  0.3470
59694SOL    HW185940  10.393   5.116  12.569  0.2988 -0.7629  1.6035
59694SOL    HW285941  10.535   5.111  12.619  1.1063  0.6783 -0.4045
59695SOL     OW85942   7.718   8.514   8.837  0.0586  0.3554  0.4516
59695SOL    HW185943   7.623   8.502   8.830  0.2561 -2.6795  1.5602
59695SOL    HW285944   7.752   8.488   8.752 -0.0425  1.3857  0.0747
59696SOL     OW85945   9.633   0.555   3.277  0.4096 -0.1486 -0.6073
59696SOL    HW185946   9.662   0.531   3.365 -0.4013  0.1046 -0.2616
59696SOL    HW285947   9.711   0.545   3.222  0.9121 -0.3438  0.1320
59697SOL     OW85948  11.518  11.639   1.682 -0.6275 -0.7924 -0.0964
59697SOL    HW185949  11.527  11.633   1.586  0.9345 -0.0492 -0.0237
59697SOL    HW285950  11.526  11.549   1.712 -1.9007 -1.1332 -0.7043
59698SOL     OW85951   4.341   3.516  10.406  0.0462  0.2072  0.1906
59698SOL    HW185952   4.331   3.540  10.498 -0.9274  2.8132 -0.5097
59698SOL    HW285953   4.291   3.435  10.396 -0.0814  0.0513  1.8636
59699SOL     OW85954   0.588   9.769   4.924 -0.2089 -0.0080  0.1866
59699SOL    HW185955   0.576   9.803   4.835  0.3666 -1.3736 -0.4503
59699SOL    HW285956   0.499   9.761   4.958 -0.7066 -2.1147 -1.3503
59700SOL     OW85957   2.341   9.747   2.857  0.3044 -0.1846 -0.2654
59700SOL    HW185958   2.412   9.708   2.908  1.6712  0.6574 -1.4457
59700SOL    HW285959   2.335   9.692   2.779 -0.7799 -0.6046  0.0973
59701SOL     OW85960   1.887   8.700   8.218  0.1518  0.0851 -0.5416
59701SOL    HW185961   1.917   8.760   8.150  2.6123 -1.8054 -1.3142
59701SOL    HW285962   1.878   8.754   8.296 -2.2398  2.2312 -2.1598
59702SOL     OW85963   8.175   1.744   8.665 -0.0183 -0.1545  0.5807
59702SOL    HW185964   8.141   1.665   8.705 -0.0461  0.6138  2.1627
59702SOL    HW285965   8.264   1.721   8.638 -0.3389 -0.9717  0.2073
59703SOL     OW85966  11.564   2.077   8.439 -0.7127 -0.0881  0.8742
59703SOL    HW185967  11.651   2.113   8.421 -0.6880  0.1350  1.4399
59703SOL    HW285968  11.566   1.989   8.402 -0.4854  0.1711  0.2484
59704SOL     OW85969   5.359   3.524   6.628 -0.2140 -0.6911 -0.6060
59704SOL    HW185970   5.361   3.455   6.694 -1.8209  0.6101  0.9091
59704SOL    HW285971   5.365   3.605   6.678 -0.3654  0.3143 -2.1579
59705SOL     OW85972   7.591  10.035   7.994  0.1847 -0.6376  0.1596
59705SOL    HW185973   7.515  10.060   7.941  0.4487 -1.4418 -0.6203
59705SOL    HW285974   7.647  10.113   7.992 -1.0182  0.3262  1.5557
59706SOL     OW85975   4.428  12.330   1.419  0.7708  0.1668  0.0466
59706SOL    HW185976   4.512  12.285   1.417  0.3698 -0.5948  0.0801
59706SOL    HW285977   4.405  12.343   1.328  0.6502 -0.1472  0.0316
59707SOL     OW85978   8.041   8.568   7.817  0.1642  0.1627  0.4807
59707SOL    HW185979   8.028   8.582   7.724 -1.0731 -1.1847  0.4247
59707SOL    HW285980   7.959   8.528   7.848  1.1609 -1.0050  1.7847
59708SOL     OW85981   4.100   8.922   0.872 -0.2104  0.1117 -0.3610
59708SOL    HW185982   4.083   8.960   0.786  0.4132  0.4519 -0.3327
59708SOL    HW285983   4.047   8.974   0.932 -2.4249 -1.4915 -0.7657
59709SOL     OW85984   7.752   7.253   7.121 -0.0275  0.5141  0.2755
59709SOL    HW185985   7.680   7.243   7.058  0.4880 -0.5479 -0.1615
59709SOL    HW285986   7.716   7.225   7.205 -0.5792  1.4836  0.3746
59710SOL     OW85987   4.770   5.743   6.552  0.0027  0.7221 -0.6964
59710SOL    HW185988   4.818   5.779   6.627 -0.1644  1.0937 -0.7675
59710SOL    HW285989   4.748   5.654   6.579  1.9536  0.0418 -1.2036
59711SOL     OW85990   2.555   3.992   0.831 -0.5495  0.1128 -0.0314
59711SOL    HW185991   2.606   4.025   0.757  0.1426  0.7673  0.7193
59711SOL    HW285992   2.618   3.942   0.883 -0.4984  1.3745  1.1903
59712SOL     OW85993   5.345   0.685   0.547  0.0254 -0.0190  0.0095
59712SOL    HW185994   5.253   0.705   0.528 -0.1298 -0.6626  0.0453
59712SOL    HW285995   5.391   0.702   0.464 -0.4741 -1.7679 -0.6649
59713SOL     OW85996   7.639   8.047   9.685  0.0453 -0.2810 -0.1922
59713SOL    HW185997   7.677   7.972   9.638  1.2071  0.3554 -0.3016
59713SOL    HW285998   7.714   8.091   9.724 -0.4463  1.6014 -1.2289
59714SOL     OW85999  10.760   5.557  11.268  0.1428  0.0393 -0.0975
59714SOL    HW186000  10.844   5.528  11.232  0.4353 -0.1992  0.7698
59714SOL    HW286001  10.781   5.627  11.329 -0.3207  0.1669 -0.0733
59715SOL     OW86002   8.173   1.079   2.235  0.7418 -0.3767  0.4577
59715SOL    HW186003   8.132   1.022   2.170  0.6491  1.4650 -1.1954
59715SOL    HW286004   8.108   1.086   2.305  0.4470 -1.6524  0.3231
59716SOL     OW86005   8.868   0.972   3.297 -0.2465 -0.0522  0.2102
59716SOL    HW186006   8.832   0.956   3.384 -0.3063  1.0885  0.4197
59716SOL    HW286007   8.833   1.058   3.272  0.2901 -0.0688 -0.6591
59717SOL     OW86008   2.815   2.442  10.780  0.8215 -0.6400  0.4294
59717SOL    HW186009   2.844   2.362  10.823 -1.0409 -1.1014  0.9106
59717SOL    HW286010   2.735   2.418  10.734  1.5883  0.3815 -1.5276
59718SOL     OW86011   0.419   6.128   1.435  0.2768  0.6810  0.2840
59718SOL    HW186012   0.358   6.073   1.484  0.3179  1.5794  1.3756
59718SOL    HW286013   0.387   6.125   1.345  1.2902 -2.5363 -0.0948
59719SOL     OW86014   3.195   7.984   0.697  0.5145  0.4084  0.1643
59719SOL    HW186015   3.103   8.008   0.681  0.9217 -0.2248 -4.6623
59719SOL    HW286016   3.195   7.889   0.699  1.0074  0.4114  1.3949
59720SOL     OW86017   5.830   5.699   7.601  0.1705  0.3184 -0.3713
59720SOL    HW186018   5.886   5.680   7.676 -0.9506  1.3077  0.7855
59720SOL    HW286019   5.831   5.619   7.549  2.2677  0.1613 -0.1685
59721SOL     OW86020   1.245   2.027   2.832  0.0585 -0.2102  0.8167
59721SOL    HW186021   1.174   2.028   2.896 -0.3333  1.9334  0.4202
59721SOL    HW286022   1.203   2.002   2.750 -0.5300  2.0850  0.3537
59722SOL     OW86023   7.735  11.436  12.213 -0.2399 -0.5676  0.1412
59722SOL    HW186024   7.830  11.431  12.228 -0.4059 -0.7913  1.2113
59722SOL    HW286025   7.697  11.420  12.299 -1.2263  1.7308  0.1988
59723SOL     OW86026   3.814  10.999   2.889  0.2567  0.4390  0.5540
59723SOL    HW186027   3.891  10.988   2.945 -0.2359  2.2412  1.6543
59723SOL    HW286028   3.789  11.091   2.900 -1.6761  0.0580 -0.2804
59724SOL     OW86029   8.694  11.550   5.131  0.3331  0.0927  0.1081
59724SOL    HW186030   8.665  11.600   5.055 -0.1687 -0.6107 -0.1718
59724SOL    HW286031   8.635  11.578   5.202  0.3455  0.2230  0.0679
59725SOL     OW86032   5.069   7.444   0.327 -0.2483 -0.3191  0.5411
59725SOL    HW186033   4.973   7.445   0.322 -0.2669  0.0983  0.8709
59725SOL    HW286034   5.095   7.534   0.308  0.1224 -0.5782 -0.2156
59726SOL     OW86035   9.604   5.661  11.605 -0.1276  0.0967  0.4331
59726SOL    HW186036   9.590   5.628  11.694  0.6897 -0.9839  0.1771
59726SOL    HW286037   9.691   5.701  11.608 -0.4491  0.8228  0.3235
59727SOL     OW86038   9.701   1.226   3.244 -0.3425  0.1110 -0.4520
59727SOL    HW186039   9.753   1.238   3.165 -1.6607 -0.4448 -1.4321
59727SOL    HW286040   9.611   1.225   3.214 -0.9406  0.8198  1.1773
59728SOL     OW86041   0.046   0.094   4.175 -0.4023 -0.8484 -0.1024
59728SOL    HW186042   0.047   0.142   4.092 -0.0749 -0.9461 -0.1604
59728SOL    HW286043  -0.043   0.102   4.207 -0.2231  0.2324  0.1524
59729SOL     OW86044   5.017   3.581  11.696 -0.8593  0.1319 -0.3407
59729SOL    HW186045   5.085   3.525  11.733 -2.0986 -0.8691  0.5064
59729SOL    HW286046   5.025   3.664  11.743 -1.8437 -0.8278  1.6471
59730SOL     OW86047   3.821   4.328   3.362  0.0191  0.0624  0.1277
59730SOL    HW186048   3.910   4.302   3.341 -0.4189 -0.4108 -1.2353
59730SOL    HW286049   3.805   4.407   3.310 -0.5615 -0.2126 -0.1195
59731SOL     OW86050  12.414   0.836  11.638 -0.0241  0.4092 -0.3520
59731SOL    HW186051  12.348   0.856  11.705  1.0868  1.4055  0.4928
59731SOL    HW286052  12.492   0.886  11.665  1.1186 -0.8070 -1.2579
59732SOL     OW86053   8.065   3.134  10.814  0.4293 -0.0439  0.2748
59732SOL    HW186054   7.984   3.083  10.821 -0.2275  0.9251  0.0055
59732SOL    HW286055   8.103   3.108  10.730  0.0391 -0.0050  0.0849
59733SOL     OW86056  10.680   2.542   3.273 -0.5212  0.6731  0.1203
59733SOL    HW186057  10.634   2.508   3.350  1.7592 -0.2099  1.1974
59733SOL    HW286058  10.761   2.579   3.309  0.2970  0.8298 -1.7941
59734SOL     OW86059   6.263   2.749   8.927 -0.0999  0.0670 -0.1217
59734SOL    HW186060   6.301   2.805   8.859  0.3289 -0.8504 -0.6568
59734SOL    HW286061   6.204   2.807   8.975  1.0250  1.2119 -0.0648
59735SOL     OW86062   6.780   4.480   3.905  0.2851  0.0595  0.7547
59735SOL    HW186063   6.740   4.566   3.891  0.6676  0.4544  1.8982
59735SOL    HW286064   6.845   4.472   3.835  0.1212  0.6298  0.5288
59736SOL     OW86065   1.999  12.507   0.915 -0.6377  0.1788  0.2279
59736SOL    HW186066   2.054  12.480   0.989  0.8544 -0.4106 -1.0389
59736SOL    HW286067   2.023  12.599   0.900  0.8789 -0.3657 -0.9877
59737SOL     OW86068   2.795   7.803   9.061  0.1691  0.0120  0.2092
59737SOL    HW186069   2.842   7.886   9.068 -0.4278  0.4588 -0.7831
59737SOL    HW286070   2.703   7.826   9.074  0.2537 -1.1250  4.0855
59738SOL     OW86071   5.053   7.385  10.342  0.2335  0.2499  0.0250
59738SOL    HW186072   4.988   7.322  10.311  1.7272 -0.5451 -1.6518
59738SOL    HW286073   5.084   7.350  10.426  0.7158 -1.0237 -0.6667
59739SOL     OW86074   1.246   1.704   2.773 -0.2969  0.1584  0.6382
59739SOL    HW186075   1.217   1.613   2.774 -0.5562  0.2282 -0.2339
59739SOL    HW286076   1.180   1.751   2.823 -1.3343  0.2001 -0.7257
59740SOL     OW86077  11.308   6.702   5.790  0.3008  0.1443 -0.5194
59740SOL    HW186078  11.346   6.782   5.825  0.7140  0.4669 -1.6504
59740SOL    HW286079  11.369   6.674   5.722  0.2890 -1.2753  0.0256
59741SOL     OW86080   5.310  10.938   3.641  0.1308  0.0740  0.3790
59741SOL    HW186081   5.281  10.860   3.594 -0.7719  0.7699 -0.2489
59741SOL    HW286082   5.403  10.947   3.617  0.2032 -0.6933  0.3251
59742SOL     OW86083   5.318   7.697  10.261 -0.0969 -0.2271 -0.0114
59742SOL    HW186084   5.313   7.601  10.253 -2.5987 -0.0487 -2.2525
59742SOL    HW286085   5.279   7.716  10.346  1.0901 -1.1960  0.7823
59743SOL     OW86086   2.248  12.312  11.874  0.0121  1.0051  0.1652
59743SOL    HW186087   2.343  12.309  11.865 -0.0275 -0.4461  0.0456
59743SOL    HW286088   2.231  12.388  11.930  1.1081  2.3042 -1.1937
59744SOL     OW86089   4.103   4.621   9.326 -0.0118 -0.1807 -0.2051
59744SOL    HW186090   4.060   4.593   9.406  0.6924 -0.2631  0.1562
59744SOL    HW286091   4.098   4.545   9.268  1.2107 -0.8355  0.4900
59745SOL     OW86092   6.181   5.070   1.799  0.3803  0.3411  0.1786
59745SOL    HW186093   6.186   4.976   1.816 -3.1594  0.2911  1.9714
59745SOL    HW286094   6.148   5.077   1.710 -1.3497 -0.2900  0.7199
59746SOL     OW86095   3.413   1.517   3.058 -0.4842  0.6353  0.4846
59746SOL    HW186096   3.374   1.446   3.108  1.0589  0.1811  1.1200
59746SOL    HW286097   3.352   1.533   2.986 -0.6863 -1.6267  0.0728
59747SOL     OW86098   7.473   3.103   2.785 -0.3060  0.5652 -0.3762
59747SOL    HW186099   7.546   3.058   2.744  0.5484  3.2530 -2.0232
59747SOL    HW286100   7.503   3.123   2.873  0.2209  0.1044 -0.4469
59748SOL     OW86101   8.322   2.283  10.992  0.0737 -0.2087  0.0767
59748SOL    HW186102   8.351   2.212  11.049  1.8940 -0.4082 -1.0253
59748SOL    HW286103   8.234   2.258  10.964 -0.5775 -0.4423  2.1944
59749SOL     OW86104   3.790   1.948   3.516 -0.3342 -0.0378 -0.2269
59749SOL    HW186105   3.868   1.906   3.553  0.5279  1.9255  0.3357
59749SOL    HW286106   3.717   1.904   3.559  0.5779  0.2841  1.7830
59750SOL     OW86107   8.744   2.937   3.415 -0.2687 -0.3160  0.2239
59750SOL    HW186108   8.667   2.931   3.358 -0.4950 -1.0589  0.6015
59750SOL    HW286109   8.715   2.903   3.499 -0.5419  2.6895  1.4695
59751SOL     OW86110   6.234   6.459   0.299 -0.7409 -0.0639 -0.3514
59751SOL    HW186111   6.326   6.436   0.303 -0.9206 -0.5986  1.1873
59751SOL    HW286112   6.189   6.377   0.281 -1.0208 -0.1003  0.4634
59752SOL     OW86113  11.878   7.361   0.444 -0.3377 -0.3353 -0.1158
59752SOL    HW186114  11.836   7.426   0.388  0.3113  0.1442 -0.0688
59752SOL    HW286115  11.923   7.413   0.511 -0.8549 -0.8895  0.6813
59753SOL     OW86116  12.557   7.569   9.509 -0.6384  0.0467  0.1236
59753SOL    HW186117  12.503   7.529   9.578 -1.0009 -0.2722 -0.3415
59753SOL    HW286118  12.575   7.658   9.541  0.1736 -0.4591  1.1733
59754SOL     OW86119   8.580   8.218  10.493 -0.3018 -0.4090  0.3211
59754SOL    HW186120   8.493   8.250  10.516  0.8334  1.3475  2.6479
59754SOL    HW286121   8.587   8.134  10.538 -0.9637 -0.7939 -0.2871
59755SOL     OW86122  10.497   5.205  10.573 -0.5177  0.2711  0.3281
59755SOL    HW186123  10.440   5.128  10.565 -1.8517  1.4285 -2.0802
59755SOL    HW286124  10.586   5.169  10.572 -1.1295 -1.3279  0.7012
59756SOL     OW86125   4.713   6.298   8.258 -0.3988 -0.2807 -0.0804
59756SOL    HW186126   4.795   6.276   8.301 -0.2828 -1.1990 -0.7450
59756SOL    HW286127   4.676   6.214   8.231  0.0517  0.2911 -2.7053
59757SOL     OW86128   3.026   2.351   8.710 -0.2217  0.4283  0.5115
59757SOL    HW186129   2.970   2.273   8.709 -0.4085  0.5636 -0.3955
59757SOL    HW286130   3.067   2.350   8.797  1.2931 -1.7643 -0.1412
59758SOL     OW86131   6.362   9.291  10.446  0.4584 -0.3438 -0.5241
59758SOL    HW186132   6.266   9.298  10.444  0.5139  1.6675  0.7181
59758SOL    HW286133   6.389   9.310  10.357 -0.3004 -1.3399 -0.9858
59759SOL     OW86134   2.708   5.459   6.758  0.0201 -0.0730 -0.1552
59759SOL    HW186135   2.768   5.456   6.832 -1.2015 -0.5948  0.8273
59759SOL    HW286136   2.763   5.489   6.685  1.2291  0.4995  0.9444
59760SOL     OW86137  10.047  12.019   9.872  0.3761 -0.4395 -0.1017
59760SOL    HW186138  10.065  11.941   9.820  0.6250 -0.0783 -0.5623
59760SOL    HW286139  10.096  12.089   9.828 -2.3048  0.6442 -1.5865
59761SOL     OW86140   1.912  11.234   9.403  0.0587 -0.3027  0.2156
59761SOL    HW186141   1.940  11.304   9.344 -2.9272  0.3996 -0.4872
59761SOL    HW286142   1.985  11.171   9.402  0.4040 -0.0436 -3.7304
59762SOL     OW86143   9.498  11.408   4.765 -0.7386 -0.1917 -0.1755
59762SOL    HW186144   9.540  11.352   4.700  2.3892  3.2140 -1.5156
59762SOL    HW286145   9.462  11.481   4.714 -0.3467  1.4004  1.6643
59763SOL     OW86146   6.179   5.588   6.230  0.0198 -0.3857 -0.2351
59763SOL    HW186147   6.116   5.523   6.200  0.0225 -0.5149  0.0327
59763SOL    HW286148   6.178   5.656   6.163  1.2649 -1.4668 -1.3981
59764SOL     OW86149   5.822   9.345   6.822  0.4848  0.0809 -0.3428
59764SOL    HW186150   5.795   9.334   6.913  1.1737  2.3874  0.2263
59764SOL    HW286151   5.741   9.340   6.772 -0.1969  0.7172  0.6449
59765SOL     OW86152   2.104   6.478   2.444 -0.7765 -0.1654 -0.9618
59765SOL    HW186153   2.142   6.521   2.521 -1.9165 -2.0530  0.7304
59765SOL    HW286154   2.179   6.445   2.395 -0.0844 -0.1072  0.0432
59766SOL     OW86155   3.024   0.999  12.559  0.1522  0.1025 -0.6541
59766SOL    HW186156   2.941   0.975  12.518 -0.3060  2.0614 -0.9989
59766SOL    HW286157   2.999   1.058  12.630  1.2792  2.3848 -2.0290
59767SOL     OW86158  11.715   5.696   0.159 -0.3314  0.3798 -0.0154
59767SOL    HW186159  11.789   5.669   0.215 -0.3002  0.2167 -0.1340
59767SOL    HW286160  11.706   5.790   0.175  0.0791  0.4564 -0.2038
59768SOL     OW86161  10.822   9.574   2.885 -0.2445 -0.6117  0.4769
59768SOL    HW186162  10.748   9.561   2.943 -0.2868  0.9680  0.8479
59768SOL    HW286163  10.805   9.658   2.843  1.6768  0.2119  1.1777
59769SOL     OW86164   5.081   0.086   6.043 -0.3094 -0.0211 -0.0031
59769SOL    HW186165   5.028   0.007   6.042 -0.1717 -0.2417 -3.7657
59769SOL    HW286166   5.164   0.060   6.002  0.1641  1.7681 -0.2649
59770SOL     OW86167   9.231   5.411   8.642 -0.1694  0.5811  0.1213
59770SOL    HW186168   9.252   5.480   8.704  0.5819 -0.2802  0.8550
59770SOL    HW286169   9.163   5.448   8.586 -2.0154  0.8472  2.4225
59771SOL     OW86170   6.194  11.146   0.977  0.1639 -0.1813 -0.3544
59771SOL    HW186171   6.178  11.152   1.071 -0.1833  1.7964 -0.4957
59771SOL    HW286172   6.289  11.138   0.969  0.1579 -0.8586  0.1567
59772SOL     OW86173   5.176   7.722   5.367 -0.2786 -0.1331  0.3127
59772SOL    HW186174   5.135   7.809   5.369  0.3958  0.2363 -0.7661
59772SOL    HW286175   5.260   7.737   5.322 -0.3682 -1.4314 -0.3164
59773SOL     OW86176   6.493   9.247   9.428  0.6208 -0.1923 -0.7238
59773SOL    HW186177   6.408   9.224   9.390  1.1562 -0.4630 -1.8003
59773SOL    HW286178   6.530   9.312   9.369  1.2838 -0.2856 -0.4275
59774SOL     OW86179   6.270   4.529  10.880 -0.0701 -0.0811  0.4321
59774SOL    HW186180   6.271   4.614  10.835 -0.2963 -0.5814 -0.5563
59774SOL    HW286181   6.227   4.547  10.964  1.5842  1.1590  1.0565
59775SOL     OW86182   2.077   3.443   6.102  0.3919  0.2856 -0.5163
59775SOL    HW186183   2.043   3.470   6.017  1.3845 -0.8549 -1.3179
59775SOL    HW286184   2.172   3.447   6.092  0.5512  1.6196  1.0649
59776SOL     OW86185   4.072   2.999  11.660  0.2700  0.3645 -0.6700
59776SOL    HW186186   4.095   2.930  11.598 -2.0740 -0.3209 -0.8721
59776SOL    HW286187   4.116   3.077  11.627  2.6194 -0.8643 -0.6914
59777SOL     OW86188  11.467   1.526   8.496  0.4609 -0.0931 -0.0033
59777SOL    HW186189  11.516   1.470   8.557  0.0735  0.6574  1.0261
59777SOL    HW286190  11.503   1.614   8.509 -0.6391  0.3376  0.2241
59778SOL     OW86191   8.283   4.661   9.085 -0.0195 -0.1289 -0.4879
59778SOL    HW186192   8.379   4.654   9.080 -0.0386 -0.2207 -0.7627
59778SOL    HW286193   8.261   4.626   9.171  0.1803 -0.2878 -0.5007
59779SOL     OW86194   5.372   6.031  11.061  0.0879  0.2204  0.2763
59779SOL    HW186195   5.356   6.024  10.967 -0.2942 -2.0572  0.4541
59779SOL    HW286196   5.456   5.988  11.075 -0.6621 -1.0332  1.1502
59780SOL     OW86197   3.134   8.294   7.403  0.1546  0.1862 -0.2372
59780SOL    HW186198   3.067   8.312   7.468  1.4134 -0.3615  1.2713
59780SOL    HW286199   3.091   8.237   7.339 -0.6687 -0.6335  1.0017
59781SOL     OW86200   1.279   3.477   6.538 -0.2059  0.1912 -0.2151
59781SOL    HW186201   1.246   3.387   6.533 -0.0609  0.0542  1.0396
59781SOL    HW286202   1.202   3.530   6.558 -0.2285  0.3057 -0.5946
59782SOL     OW86203   2.389   7.966   2.205  0.1002 -0.0067  0.0287
59782SOL    HW186204   2.454   7.992   2.270  0.9256 -0.9817 -0.3627
59782SOL    HW286205   2.439   7.914   2.142 -0.6434  1.0463 -1.4774
59783SOL     OW86206   9.049  10.143   1.157  0.4459  0.6239 -0.6172
59783SOL    HW186207   8.972  10.153   1.213 -0.9042 -3.6051 -1.3329
59783SOL    HW286208   9.030  10.197   1.080 -1.4099  0.3552 -0.3854
59784SOL     OW86209   7.139   6.310   3.913 -0.0062  0.4309 -0.2526
59784SOL    HW186210   7.117   6.386   3.966 -0.1985  0.4000 -0.2869
59784SOL    HW286211   7.170   6.346   3.830 -0.5236  0.4652 -0.4334
59785SOL     OW86212  11.956  10.355   4.382  0.3723 -0.1126 -0.3593
59785SOL    HW186213  11.984  10.433   4.334 -0.0354 -0.5731 -1.3784
59785SOL    HW286214  11.863  10.347   4.363  0.0374  0.0660  1.0851
59786SOL     OW86215   1.466   1.385   2.300  0.1770 -0.0486  1.3525
59786SOL    HW186216   1.403   1.390   2.372 -2.1928  0.2225 -0.6285
59786SOL    HW286217   1.419   1.341   2.230  2.3304 -0.1119 -0.1512
59787SOL     OW86218  11.733   5.642  11.046 -0.4678 -0.0961 -0.1925
59787SOL    HW186219  11.648   5.684  11.046 -0.2512  0.4047  1.4751
59787SOL    HW286220  11.786   5.694  10.986 -1.1317 -0.0117 -0.7163
59788SOL     OW86221   5.481   5.824  10.211 -0.3692  0.1693  0.1153
59788SOL    HW186222   5.513   5.814  10.121  0.0652 -2.8691  0.5063
59788SOL    HW286223   5.560   5.833  10.264 -0.5952  1.1234  0.3189
59789SOL     OW86224   3.996   8.346  10.721 -0.0456  0.3854  0.0984
59789SOL    HW186225   3.902   8.346  10.702 -0.1762 -2.1356  0.2930
59789SOL    HW286226   4.037   8.323  10.638  0.3242  0.5320  0.2413
59790SOL     OW86227   8.473   0.668   6.949 -0.1841 -0.5707  0.3204
59790SOL    HW186228   8.502   0.758   6.964  0.1324 -0.7569  0.8481
59790SOL    HW286229   8.550   0.624   6.913 -0.6553 -0.3697 -0.9690
59791SOL     OW86230   1.160   6.717   4.489  0.1389 -0.4200 -0.1511
59791SOL    HW186231   1.193   6.634   4.453  1.4111  0.5416 -1.2808
59791SOL    HW286232   1.065   6.711   4.478  0.1257 -2.0378  0.4911
59792SOL     OW86233   2.189  10.538   7.018  0.3221  0.5056 -0.1993
59792SOL    HW186234   2.271  10.531   7.065 -0.4681 -0.0313  1.1626
59792SOL    HW286235   2.161  10.447   7.004 -0.5680  0.6863  0.3302
59793SOL     OW86236   3.035   7.385   3.515 -0.1359  0.3354  0.1614
59793SOL    HW186237   2.968   7.348   3.458  0.0259  1.8892 -1.1062
59793SOL    HW286238   3.084   7.444   3.458  1.2853  0.4574  1.4649
59794SOL     OW86239   5.522   5.237   3.143 -0.2666  0.2827  0.3019
59794SOL    HW186240   5.495   5.222   3.052 -0.1018  0.5097  0.2146
59794SOL    HW286241   5.573   5.318   3.140  0.4118 -0.1327  0.4666
59795SOL     OW86242   4.994   5.504   3.805 -0.2285 -0.1024 -0.0527
59795SOL    HW186243   4.960   5.555   3.878  0.0511  1.7638 -1.1788
59795SOL    HW286244   4.943   5.423   3.807 -0.1192 -0.1703  2.2633
59796SOL     OW86245   4.788   9.644   4.282 -0.0326  0.2572 -0.9264
59796SOL    HW186246   4.876   9.615   4.306  0.0763  0.6162 -0.8754
59796SOL    HW286247   4.732   9.618   4.355  0.4349  2.0896  0.1647
59797SOL     OW86248   9.593  10.434  10.308  0.2708  0.4905  0.8187
59797SOL    HW186249   9.688  10.422  10.313  0.4205  1.1165 -0.3468
59797SOL    HW286250   9.565  10.433  10.400  1.5753  1.6095  1.2643
59798SOL     OW86251  11.508   8.220   6.986 -0.1051  0.3240 -0.1053
59798SOL    HW186252  11.412   8.227   6.995 -0.2428  0.7228 -1.6957
59798SOL    HW286253  11.541   8.299   7.030 -0.5646  0.6537 -0.3342
59799SOL     OW86254  10.192  11.018   9.441  0.0785 -0.6304 -0.3883
59799SOL    HW186255  10.175  11.025   9.347  1.6441  0.0405 -0.6607
59799SOL    HW286256  10.258  10.949   9.449  0.0648 -0.5852  0.2015
59800SOL     OW86257   3.558   5.370   3.818 -0.1658 -0.1021 -0.1313
59800SOL    HW186258   3.646   5.387   3.854 -0.8598 -0.2259  1.7286
59800SOL    HW286259   3.529   5.456   3.788 -0.6840  0.6964  2.3658
59801SOL     OW86260  11.770   0.182   1.222  0.5738 -0.0724 -0.0218
59801SOL    HW186261  11.781   0.247   1.152  0.6398  0.9447  0.9016
59801SOL    HW286262  11.843   0.199   1.282  0.1483 -0.4898  0.6202
59802SOL     OW86263   1.313   8.856   0.829 -0.3158  0.7765 -0.1560
59802SOL    HW186264   1.368   8.895   0.897  0.0267 -0.3664  0.2286
59802SOL    HW286265   1.374   8.831   0.759 -0.5246  0.8035 -0.3511
59803SOL     OW86266  11.979   6.733   5.955  0.0402  0.8451  1.1356
59803SOL    HW186267  11.940   6.667   6.012 -2.3720  0.3181 -0.9673
59803SOL    HW286268  11.926   6.812   5.970  1.3506  1.6231  1.8338
59804SOL     OW86269   3.236   4.104   1.278  0.1324  0.6047  0.2047
59804SOL    HW186270   3.213   4.107   1.371 -1.6971 -0.4341 -0.1639
59804SOL    HW286271   3.167   4.155   1.235 -1.3650 -2.1336 -0.9060
59805SOL     OW86272   1.783   3.331  10.065 -0.6828  0.6330 -0.1166
59805SOL    HW186273   1.696   3.317  10.029 -1.9909  2.9127  1.8857
59805SOL    HW286274   1.777   3.414  10.113  2.0177 -0.1230  1.8069
59806SOL     OW86275   2.741   6.784   9.663 -0.0945  0.1600 -0.3256
59806SOL    HW186276   2.684   6.767   9.587  0.0342  1.8508 -0.8491
59806SOL    HW286277   2.712   6.870   9.695  2.5100  1.3870 -0.9771
59807SOL     OW86278  10.787   6.860   7.902  0.5136 -0.5674 -0.3340
59807SOL    HW186279  10.700   6.888   7.930  0.8203 -1.0252  1.2234
59807SOL    HW286280  10.826   6.937   7.861  0.6395  0.7883  2.1134
59808SOL     OW86281   5.210   1.317   6.680 -0.6985  0.0606 -0.1469
59808SOL    HW186282   5.304   1.327   6.666 -0.4113 -0.7138  1.0706
59808SOL    HW286283   5.199   1.326   6.775 -1.8371  0.0068 -0.2609
59809SOL     OW86284  12.459   8.324   7.087 -0.1274  0.0442 -0.1916
59809SOL    HW186285  12.500   8.294   7.168  0.2747 -1.1164 -0.7972
59809SOL    HW286286  12.500   8.272   7.019 -1.3652  0.0837 -1.0083
59810SOL     OW86287   2.363  10.628   5.625 -1.0138 -0.1654 -0.1340
59810SOL    HW186288   2.371  10.665   5.713  1.3791  1.7160 -1.0120
59810SOL    HW286289   2.269  10.629   5.606 -1.3666  1.9867  1.3871
59811SOL     OW86290   6.802  11.348   3.692  0.2188  0.4233 -0.3153
59811SOL    HW186291   6.896  11.343   3.676  0.7866  2.2394  1.9152
59811SOL    HW286292   6.785  11.282   3.759  0.1009  0.7123 -0.0556
59812SOL     OW86293   9.229  11.430   5.132  0.0009 -0.2470 -0.0382
59812SOL    HW186294   9.239  11.505   5.073  0.4495 -0.6653 -0.5012
59812SOL    HW286295   9.308  11.378   5.119  0.2523 -0.1974  1.1721
59813SOL     OW86296   4.352   5.732   6.041 -0.1516 -0.3581 -0.6194
59813SOL    HW186297   4.271   5.682   6.048 -0.7430  0.7819  1.3188
59813SOL    HW286298   4.323   5.822   6.026  0.8820 -0.5385 -5.3961
59814SOL     OW86299   1.735   2.159  11.068  0.7170 -0.5082 -0.5963
59814SOL    HW186300   1.769   2.093  11.008 -0.2356 -0.0457 -1.6890
59814SOL    HW286301   1.784   2.146  11.150 -0.1407 -3.2084 -0.4391
59815SOL     OW86302   7.671   9.532  10.797  0.3164  0.2526  0.6957
59815SOL    HW186303   7.710   9.512  10.712 -1.1614 -0.6342  0.1850
59815SOL    HW286304   7.739   9.510  10.861  1.0247 -0.2097 -0.2044
59816SOL     OW86305  10.977   0.816   4.547  0.5220  1.2409 -0.4848
59816SOL    HW186306  11.049   0.831   4.487 -0.0527  2.0434 -0.9961
59816SOL    HW286307  10.905   0.785   4.491  0.4399  0.5263  0.0018
59817SOL     OW86308   6.876   8.994   1.505 -0.1869 -0.2153 -0.4075
59817SOL    HW186309   6.939   8.935   1.464 -0.5074 -0.6867 -0.2249
59817SOL    HW286310   6.924   9.076   1.517  0.3547 -0.5360 -0.3739
59818SOL     OW86311   6.540  10.834   4.473  0.5704 -0.4333  0.3012
59818SOL    HW186312   6.504  10.912   4.514 -0.8498 -0.9542  0.0999
59818SOL    HW286313   6.604  10.868   4.410  0.8137  0.4935  1.0211
59819SOL     OW86314   7.883   5.653   6.989 -0.0829 -0.3880 -0.0508
59819SOL    HW186315   7.807   5.678   6.937  0.5348 -0.6494 -1.1241
59819SOL    HW286316   7.948   5.720   6.970  0.7717 -1.4541 -1.0836
59820SOL     OW86317   1.406   5.751  10.294  0.1409  0.3811  0.1071
59820SOL    HW186318   1.324   5.703  10.278 -0.1346  0.7644  0.3493
59820SOL    HW286319   1.386   5.810  10.367  0.7854  0.1194  0.5062
59821SOL     OW86320   0.151  12.299  10.555 -0.3189  0.4405 -0.0356
59821SOL    HW186321   0.232  12.291  10.506 -0.3730 -1.3914  0.0880
59821SOL    HW286322   0.102  12.219  10.533 -1.9223  1.3256  0.1788
59822SOL     OW86323   8.113   4.544   3.649 -0.0141  0.2871  0.1091
59822SOL    HW186324   8.055   4.485   3.602  0.8881 -0.9872  0.5182
59822SOL    HW286325   8.093   4.529   3.742 -0.5969  1.5150  0.2017
59823SOL     OW86326  12.472  10.705  12.332  0.1111  0.1566  0.2414
59823SOL    HW186327  12.446  10.750  12.252  0.2411  1.1189  0.7224
59823SOL    HW286328  12.483  10.614  12.306 -0.7628  0.2814 -0.6295
59824SOL     OW86329   0.080   8.554   8.171  0.2102 -0.2890  0.2184
59824SOL    HW186330   0.039   8.530   8.254  1.1913 -0.3463  0.7106
59824SOL    HW286331   0.145   8.620   8.196  1.5991 -1.4314 -0.2634
59825SOL     OW86332   1.901   6.476   0.189 -0.3768  0.3695  0.1632
59825SOL    HW186333   1.882   6.570   0.185 -0.4147  0.3779  0.5653
59825SOL    HW286334   1.951   6.459   0.108 -2.0462  0.3404 -0.9087
59826SOL     OW86335  11.482   0.280  12.453  0.5619 -0.0362  0.1587
59826SOL    HW186336  11.556   0.233  12.414  1.4656 -0.4230  2.2095
59826SOL    HW286337  11.428   0.212  12.493 -0.6894  0.2924 -0.8598
59827SOL     OW86338   3.063   7.697   3.707  0.0889  0.1634  0.1122
59827SOL    HW186339   3.120   7.771   3.690  0.6150 -0.0032  1.0743
59827SOL    HW286340   3.077   7.638   3.633  0.8577  0.3175  0.1259
59828SOL     OW86341   9.797  12.047  11.890 -0.1406 -0.5372 -0.4673
59828SOL    HW186342   9.710  12.079  11.866  0.0927 -0.6876 -1.5408
59828SOL    HW286343   9.792  12.034  11.985 -1.9694 -2.6367 -0.7709
59829SOL     OW86344   9.721   7.428  11.702 -0.6936 -0.0029  0.8891
59829SOL    HW186345   9.780   7.381  11.642 -0.8612  1.3223 -0.3911
59829SOL    HW286346   9.779   7.471  11.764 -0.2272  1.4064 -0.4471
59830SOL     OW86347  12.468  11.008   9.380  0.1490  0.3704  0.0827
59830SOL    HW186348  12.507  11.013   9.293  0.7693 -0.9881  0.2474
59830SOL    HW286349  12.392  10.951   9.369  0.1694  0.2761  0.4075
59831SOL     OW86350   5.072  11.567  10.136 -0.1864  0.6909 -0.8933
59831SOL    HW186351   5.022  11.649  10.146 -1.4491 -0.1495 -0.0036
59831SOL    HW286352   5.163  11.595  10.130 -0.5926  2.1689 -0.5975
59832SOL     OW86353   7.220  12.228   9.050  0.2571  0.2051  0.1169
59832SOL    HW186354   7.195  12.139   9.026 -1.8865  0.8158 -0.1119
59832SOL    HW286355   7.231  12.226   9.145 -1.3540  0.0118  0.3194
59833SOL     OW86356   1.256   6.760   7.560 -0.2328  0.1819 -0.4701
59833SOL    HW186357   1.304   6.831   7.602  0.1929 -0.0501 -0.5618
59833SOL    HW286358   1.323   6.706   7.519 -0.5772 -0.0949 -0.6796
59834SOL     OW86359   8.569   0.430   5.375 -0.3457  0.1727 -0.0321
59834SOL    HW186360   8.548   0.340   5.398 -2.0427  0.5540  0.0753
59834SOL    HW286361   8.664   0.434   5.378 -0.2114 -1.7444 -0.6065
59835SOL     OW86362   0.438   4.078   2.531  0.1216  0.0049 -0.4193
59835SOL    HW186363   0.460   4.053   2.441  0.9922  0.7146 -0.4180
59835SOL    HW286364   0.406   4.168   2.523  0.7389  0.2704  0.0483
59836SOL     OW86365  12.320   0.850  11.030 -0.1165  0.2713  0.3492
59836SOL    HW186366  12.407   0.884  11.006  0.3563 -0.5387  0.8537
59836SOL    HW286367  12.261   0.890  10.967  0.3534  2.2626  1.0957
59837SOL     OW86368   9.039   3.502  10.979 -0.2754  0.3817  0.0456
59837SOL    HW186369   8.946   3.489  11.000 -0.9109  0.0694 -2.5921
59837SOL    HW286370   9.038   3.571  10.912  1.6107  1.7660  1.3323
59838SOL     OW86371   6.887   6.996   8.098  0.1364  0.1956  0.0837
59838SOL    HW186372   6.902   7.018   8.190 -0.8971  0.6411  0.1531
59838SOL    HW286373   6.855   6.905   8.100 -2.3888  1.0078  0.4315
59839SOL     OW86374   3.973   8.446  11.759  0.3071 -0.0145  0.0437
59839SOL    HW186375   3.950   8.419  11.848  1.7568 -0.0843  0.4222
59839SOL    HW286376   4.034   8.519  11.770 -1.6956  1.8954 -0.9564
59840SOL     OW86377   2.284   5.640  11.261  0.0618 -0.7304 -0.1213
59840SOL    HW186378   2.278   5.723  11.309  0.3155 -0.5906 -0.3284
59840SOL    HW286379   2.297   5.666  11.170 -2.4623 -0.9559 -0.6115
59841SOL     OW86380  11.696   8.580   9.415 -0.0796 -0.0247 -0.3723
59841SOL    HW186381  11.767   8.642   9.402  0.6304 -0.8370 -0.4772
59841SOL    HW286382  11.720   8.504   9.362 -0.6997 -0.5720  0.1043
59842SOL     OW86383   1.967   1.439   2.484  0.1986 -0.4326  0.1883
59842SOL    HW186384   1.886   1.390   2.469 -0.2654 -0.1452  1.6216
59842SOL    HW286385   1.960   1.515   2.427  0.8113 -1.8431 -1.8760
59843SOL     OW86386   1.759   6.544   1.577  0.5046  0.5429  0.3370
59843SOL    HW186387   1.699   6.469   1.568  0.1603  0.6169  1.8199
59843SOL    HW286388   1.701   6.620   1.584  0.8442  0.9019 -0.5623
59844SOL     OW86389   9.233   8.863   0.996  0.7297  0.1309  0.4214
59844SOL    HW186390   9.323   8.832   0.996  0.6154 -0.2269  1.0407
59844SOL    HW286391   9.190   8.815   0.926  0.4000 -1.6206  1.7522
59845SOL     OW86392   3.568   3.905   1.381 -0.1004 -0.0044  0.1450
59845SOL    HW186393   3.511   3.957   1.438 -0.9400  1.2393 -1.7069
59845SOL    HW286394   3.512   3.881   1.307  0.9351 -1.5909 -0.1600
59846SOL     OW86395   3.256   0.269   0.988 -0.0350 -0.1504  0.2213
59846SOL    HW186396   3.172   0.247   1.029  0.0212  0.1438  0.4988
59846SOL    HW286397   3.258   0.365   0.989 -0.9512 -0.0330 -2.3141
59847SOL     OW86398   6.385  12.317   4.791 -0.0756 -0.0112  0.0933
59847SOL    HW186399   6.294  12.347   4.790  0.2919  1.7420  3.7876
59847SOL    HW286400   6.378  12.222   4.801 -1.3766 -0.2278 -2.1154
59848SOL     OW86401   4.752   3.385  12.379  0.0934  0.7872 -0.5176
59848SOL    HW186402   4.848   3.383  12.379  0.0897 -1.2827 -0.9458
59848SOL    HW286403   4.728   3.387  12.471  0.5631 -0.0427 -0.3618
59849SOL     OW86404  11.858   4.443   7.934  0.5741 -0.2848  0.5244
59849SOL    HW186405  11.940   4.475   7.972  1.4301 -1.1892 -0.4811
59849SOL    HW286406  11.835   4.368   7.988  0.8629 -0.5226  0.3245
59850SOL     OW86407   5.871   5.367   5.106  0.1689  0.1594 -0.0326
59850SOL    HW186408   5.779   5.380   5.127  0.1633  1.3564 -0.7083
59850SOL    HW286409   5.906   5.315   5.178 -0.8508  0.3725  0.6245
59851SOL     OW86410   5.748   8.844   0.726 -0.1038  0.1473  0.5778
59851SOL    HW186411   5.749   8.799   0.642 -2.6823  1.2685 -0.1543
59851SOL    HW286412   5.814   8.798   0.779  0.4390 -1.6208 -1.4995
59852SOL     OW86413  11.871   8.095   8.444  0.2207 -0.6946  0.0236
59852SOL    HW186414  11.872   8.086   8.348  0.1861 -0.3296 -0.0124
59852SOL    HW286415  11.929   8.169   8.462  1.3334 -1.6234  0.3861
59853SOL     OW86416  11.006   0.264  12.555 -0.1730 -0.8328  0.4963
59853SOL    HW186417  11.096   0.247  12.582  0.4603 -0.5213 -1.2627
59853SOL    HW286418  10.969   0.178  12.536 -1.1412 -1.2226  3.6187
59854SOL     OW86419   6.939   4.457   5.670 -0.4488  1.0983 -0.5809
59854SOL    HW186420   7.015   4.471   5.613  0.4224 -2.1972 -0.4251
59854SOL    HW286421   6.867   4.437   5.611  0.0534 -0.6621 -0.6409
59855SOL     OW86422   9.101   3.474   6.945  0.1569 -0.0105 -0.3759
59855SOL    HW186423   9.013   3.457   6.979  0.3034 -0.5703 -0.2604
59855SOL    HW286424   9.148   3.512   7.019  0.5788 -1.5581  0.1899
59856SOL     OW86425   6.724  10.587  12.527  0.4867 -0.0865 -0.6317
59856SOL    HW186426   6.752  10.524  12.461  1.0926  1.2524 -1.7156
59856SOL    HW286427   6.656  10.639  12.484 -2.0613 -1.7007  1.1666
59857SOL     OW86428   8.023  11.279   2.557  0.6958  0.6934  0.4769
59857SOL    HW186429   8.064  11.211   2.610 -1.4987 -0.6440  0.5827
59857SOL    HW286430   8.070  11.276   2.473  0.3251 -1.3351  0.3042
59858SOL     OW86431   9.461   5.081   5.909 -0.1294  0.1737  0.5286
59858SOL    HW186432   9.470   5.117   5.998 -0.2458 -0.5081  0.8222
59858SOL    HW286433   9.455   4.986   5.922  0.5681  0.0079 -0.2551
59859SOL     OW86434  11.998  12.511   9.203 -0.1103  0.1362 -0.0067
59859SOL    HW186435  11.932  12.454   9.241  0.7642 -0.4360  0.7054
59859SOL    HW286436  12.063  12.523   9.272  1.4299 -0.7888 -1.2048
59860SOL     OW86437   4.658  12.523   0.236 -0.9380  0.3002 -0.2938
59860SOL    HW186438   4.624  12.600   0.282  0.8340  2.1282 -1.8351
59860SOL    HW286439   4.621  12.530   0.148  0.5459  0.3719 -0.9414
59861SOL     OW86440   4.714   4.124  10.823  0.0964 -0.7680  0.5031
59861SOL    HW186441   4.682   4.095  10.737 -2.7660  0.0688  1.1802
59861SOL    HW286442   4.767   4.201  10.804 -0.6206 -0.5097 -0.5150
59862SOL     OW86443  12.442   4.380   9.618 -0.4162 -0.4334  0.2970
59862SOL    HW186444  12.513   4.412   9.674 -0.8088 -0.4070  0.7741
59862SOL    HW286445  12.428   4.290   9.645 -1.1541 -0.1741  0.7947
59863SOL     OW86446  11.211   1.592   2.994  0.2202  0.1732  0.9912
59863SOL    HW186447  11.164   1.675   2.994  0.1178  0.1456 -0.4490
59863SOL    HW286448  11.302   1.615   3.010  0.4434  0.7764 -0.8452
59864SOL     OW86449   3.553  10.221   5.006 -0.0306  0.1238  0.6922
59864SOL    HW186450   3.511  10.299   5.043 -0.6539  0.1266  0.0144
59864SOL    HW286451   3.523  10.219   4.915 -2.3056 -2.4110  1.3418
59865SOL     OW86452  11.604   2.869   8.837  0.1481  0.2572 -0.1320
59865SOL    HW186453  11.525   2.897   8.884 -0.2658  1.0323 -1.2356
59865SOL    HW286454  11.675   2.917   8.880 -0.4388  2.4201 -1.3765
59866SOL     OW86455   0.435   7.845  11.578  0.3695  0.1679 -0.0378
59866SOL    HW186456   0.489   7.895  11.517  0.4383  0.8806  0.5898
59866SOL    HW286457   0.429   7.900  11.656 -1.3664  0.1788 -0.1254
59867SOL     OW86458   6.213   2.251  12.545 -0.1447  0.6722 -0.6209
59867SOL    HW186459   6.201   2.230  12.637 -3.3669  2.1094 -0.6002
59867SOL    HW286460   6.203   2.167  12.500  0.6010  0.1003  0.2386
59868SOL     OW86461  11.166  12.489  11.306  0.2022  0.5899 -0.1498
59868SOL    HW186462  11.152  12.493  11.212  0.1165  0.6188 -0.1359
59868SOL    HW286463  11.131  12.404  11.333 -0.5397  0.9300 -0.0168
59869SOL     OW86464  11.075  10.250   1.727 -0.1088  0.1809 -0.0544
59869SOL    HW186465  10.996  10.269   1.776  0.7053 -0.6263  1.6626
59869SOL    HW286466  11.135  10.212   1.791  2.0248  1.6157 -1.0617
59870SOL     OW86467   6.076  11.436  11.218  0.5096  0.0618  0.3527
59870SOL    HW186468   6.066  11.363  11.157 -0.7429  1.2014 -0.8657
59870SOL    HW286469   6.154  11.482  11.188 -0.4351  0.9651 -0.8312
59871SOL     OW86470   0.645  11.309  10.559 -0.4070 -0.2456 -0.4198
59871SOL    HW186471   0.675  11.220  10.578 -0.3148 -0.1390 -0.0636
59871SOL    HW286472   0.704  11.366  10.609 -1.2814 -0.0358  0.3981
59872SOL     OW86473   8.389   1.506   6.673  0.2611  0.4277  0.5727
59872SOL    HW186474   8.432   1.435   6.626  0.3377 -0.7741  2.3728
59872SOL    HW286475   8.458   1.544   6.728 -0.0064  1.2977  0.3329
59873SOL     OW86476  11.470   6.430   1.527  0.2061 -0.3041 -0.0194
59873SOL    HW186477  11.392   6.462   1.573 -0.5063 -0.9293 -0.7667
59873SOL    HW286478  11.524   6.508   1.513 -0.4270  0.1853  0.2278
59874SOL     OW86479   9.377   2.017   1.997 -0.9077 -0.1585  0.2365
59874SOL    HW186480   9.448   1.971   2.042 -0.7803  1.6759  2.0261
59874SOL    HW286481   9.403   2.017   1.905  0.4234 -1.2090  0.5783
59875SOL     OW86482   7.443  11.496   5.194 -0.5747  0.3387  0.1617
59875SOL    HW186483   7.476  11.407   5.191 -1.0458  0.0859  1.7789
59875SOL    HW286484   7.499  11.544   5.133  1.9426 -0.3377  1.7951
59876SOL     OW86485   0.439   3.336   6.724  0.2765  0.2871  0.2032
59876SOL    HW186486   0.359   3.332   6.775 -0.7383  1.1688 -1.2506
59876SOL    HW286487   0.505   3.294   6.779 -0.6248  1.6191  2.4327
59877SOL     OW86488   3.624   0.607   9.035  0.1686  0.2736  0.7425
59877SOL    HW186489   3.584   0.649   9.111 -0.7576 -0.0523  0.4575
59877SOL    HW286490   3.553   0.554   8.998  0.6060  0.4416 -0.3553
59878SOL     OW86491   6.908   9.981   8.481  0.1474  0.4227 -0.0002
59878SOL    HW186492   6.984  10.039   8.488 -1.4915  2.6801 -0.0565
59878SOL    HW286493   6.873   9.975   8.570  0.6849 -1.1231  0.1452
59879SOL     OW86494   2.666   7.411   1.828 -0.3591 -0.0828  0.2710
59879SOL    HW186495   2.647   7.319   1.848 -0.8336 -0.1511 -0.4756
59879SOL    HW286496   2.734   7.408   1.761 -0.6735  0.0974 -0.0623
59880SOL     OW86497   7.743   7.211   8.834  0.1617 -0.0573  0.4640
59880SOL    HW186498   7.798   7.134   8.816  0.5481  0.1692  0.6673
59880SOL    HW286499   7.658   7.188   8.797  0.3189 -0.5192  0.3768
59881SOL     OW86500  11.366   9.639   4.982 -0.5026 -0.1537  0.2063
59881SOL    HW186501  11.344   9.732   4.981  2.4217  0.7008  1.5084
59881SOL    HW286502  11.406   9.623   4.897 -2.4118 -0.6735 -0.6244
59882SOL     OW86503   5.523   5.568   4.733 -0.1560 -0.5128  0.6986
59882SOL    HW186504   5.578   5.530   4.665 -2.0042 -1.5830 -0.2599
59882SOL    HW286505   5.491   5.493   4.784 -0.9749  0.0465  1.0350
59883SOL     OW86506   8.647  11.006   2.381 -0.0270 -0.0313  0.1078
59883SOL    HW186507   8.555  11.031   2.369  0.3413  0.9715 -0.7697
59883SOL    HW286508   8.644  10.936   2.446 -1.4797 -0.5358 -0.4650
59884SOL     OW86509   2.136   2.287   0.622 -0.1025 -0.3436  0.3276
59884SOL    HW186510   2.117   2.243   0.705 -0.9665 -0.2109  0.2070
59884SOL    HW286511   2.216   2.245   0.590 -0.1162 -0.8251  0.9173
59885SOL     OW86512   9.616  10.900  10.636  0.0343 -0.5209 -0.2938
59885SOL    HW186513   9.695  10.850  10.652 -0.2885 -0.8554  0.2586
59885SOL    HW286514   9.577  10.913  10.722  0.5497  1.4200 -0.3081
59886SOL     OW86515   2.272   0.245   8.453  0.1681  0.0745  0.2199
59886SOL    HW186516   2.322   0.187   8.510 -0.0040 -0.8888 -0.5816
59886SOL    HW286517   2.306   0.226   8.365 -2.1997 -1.3010 -0.4929
59887SOL     OW86518  10.322   9.410   9.882  0.5157  0.2887 -0.7349
59887SOL    HW186519  10.315   9.369   9.796  0.0321 -1.7740  0.2252
59887SOL    HW286520  10.235   9.447   9.898  0.0130 -1.0066 -0.3631
59888SOL     OW86521  10.116   8.162  10.468  0.0557  0.0861  0.1749
59888SOL    HW186522  10.080   8.234  10.520 -0.7880  0.3659 -0.7739
59888SOL    HW286523  10.066   8.085  10.496 -0.3973  0.2357 -0.2014
59889SOL     OW86524   0.760  11.271   2.449  0.0790 -0.0575  0.1925
59889SOL    HW186525   0.852  11.248   2.465 -0.2411 -2.2089 -0.7037
59889SOL    HW286526   0.765  11.352   2.398  1.4343  0.2330  0.7225
59890SOL     OW86527   6.734   5.153   5.622  0.2168  0.1189  0.1255
59890SOL    HW186528   6.663   5.185   5.677  0.3525  0.6762 -0.0204
59890SOL    HW286529   6.705   5.067   5.592  0.5835 -0.6685  1.9141
59891SOL     OW86530  10.558   2.340  10.915  0.3627  0.1649 -0.2223
59891SOL    HW186531  10.585   2.274  10.979  1.3689  1.2948  0.5677
59891SOL    HW286532  10.638   2.390  10.897  0.2193 -0.3775 -2.7141
59892SOL     OW86533   4.508  11.652  10.870 -0.1661  0.1034  0.3303
59892SOL    HW186534   4.502  11.567  10.828 -0.0074 -0.0311  0.5763
59892SOL    HW286535   4.553  11.708  10.806  0.0167 -0.0822  0.2947
59893SOL     OW86536  11.608  11.959  10.026 -0.0767 -0.5331 -0.3276
59893SOL    HW186537  11.521  11.920  10.025 -0.8492  1.0779 -0.0441
59893SOL    HW286538  11.631  11.965  10.119 -0.9924  1.7272 -0.1832
59894SOL     OW86539   1.306  11.506   4.549 -0.7045 -0.2855 -0.2982
59894SOL    HW186540   1.216  11.515   4.516 -0.0394  0.7177 -2.0096
59894SOL    HW286541   1.314  11.414   4.573 -1.4687 -0.9997 -2.5058
59895SOL     OW86542   2.098  11.268   1.731 -0.3771  0.5849  0.3201
59895SOL    HW186543   2.079  11.275   1.637 -1.2549  1.1060  0.5232
59895SOL    HW286544   2.016  11.236   1.769  0.6021 -1.6655  0.6591
59896SOL     OW86545   8.874   7.766   3.363  0.2133  0.0831 -0.3149
59896SOL    HW186546   8.873   7.727   3.276 -0.5987 -2.4153  0.7349
59896SOL    HW286547   8.782   7.770   3.389  0.4093  1.2356  0.2673
59897SOL     OW86548   7.118   7.218  11.849  0.3440  0.4606 -0.0881
59897SOL    HW186549   7.115   7.229  11.944  1.9827  4.9672 -0.2769
59897SOL    HW286550   7.027   7.224  11.821 -0.2474 -1.7490  1.1303
59898SOL     OW86551   3.904   0.542   8.015 -0.5302  0.1339  0.0681
59898SOL    HW186552   3.920   0.489   7.937 -1.1786  0.7539 -0.4918
59898SOL    HW286553   3.960   0.619   8.004 -0.3792  0.0672  0.3698
59899SOL     OW86554   0.382   4.228   4.409 -0.4867 -0.1294  0.1575
59899SOL    HW186555   0.460   4.174   4.412  0.3734  0.9947 -1.0917
59899SOL    HW286556   0.341   4.216   4.495  0.9425 -0.8813  0.7538
59900SOL     OW86557   7.423   4.259   8.212  0.0786 -0.2819  0.1450
59900SOL    HW186558   7.486   4.231   8.146 -0.3585  0.1449 -0.4678
59900SOL    HW286559   7.368   4.323   8.167  0.3783  0.7512  1.2015
59901SOL     OW86560   8.777   9.744   8.891  0.2807 -0.8013 -0.0618
59901SOL    HW186561   8.804   9.656   8.917  0.5732 -0.6632  0.1062
59901SOL    HW286562   8.778   9.742   8.795 -1.5106 -1.5289 -0.1034
59902SOL     OW86563   9.243   1.617   2.862 -0.4105 -0.1593 -0.9330
59902SOL    HW186564   9.233   1.632   2.768 -1.2852 -0.9033 -0.9697
59902SOL    HW286565   9.238   1.705   2.901  1.2875  0.3052 -1.6638
59903SOL     OW86566  12.275   9.183   7.559  0.1820  0.1928 -0.6311
59903SOL    HW186567  12.304   9.158   7.647  0.3335  3.7830  0.4967
59903SOL    HW286568  12.180   9.169   7.559  0.4806 -2.1442 -0.8344
59904SOL     OW86569  10.228  11.049   8.737 -0.4852  0.2109  0.7848
59904SOL    HW186570  10.288  11.081   8.669 -2.0143  1.8283  0.1060
59904SOL    HW286571  10.242  10.954   8.738 -0.1278  0.1589 -1.5615
59905SOL     OW86572   6.698  10.260   2.831 -0.2340 -0.6597 -0.1444
59905SOL    HW186573   6.680  10.177   2.875 -0.4900 -1.1009 -1.0565
59905SOL    HW286574   6.785  10.285   2.862 -0.7157 -0.5601  1.1896
59906SOL     OW86575   6.278  10.981  10.936 -0.4644 -0.5643  0.0070
59906SOL    HW186576   6.294  11.042  11.008 -1.8353  1.1923 -1.1004
59906SOL    HW286577   6.271  11.036  10.858  1.4723 -2.4283 -1.6449
59907SOL     OW86578   4.016   0.546  10.806 -0.0972  0.6349 -1.0211
59907SOL    HW186579   4.097   0.523  10.851  0.1688  1.3497 -1.1167
59907SOL    HW286580   4.036   0.629  10.761 -0.8005  0.6885 -1.2540
59908SOL     OW86581  10.531  12.350   0.216 -0.0271  0.0348  0.3314
59908SOL    HW186582  10.582  12.368   0.295 -1.7328  1.8339  1.1290
59908SOL    HW286583  10.547  12.257   0.198 -0.1080 -0.6649  3.2252
59909SOL     OW86584   3.947   3.207   0.532  0.3303  0.0576  0.6147
59909SOL    HW186585   3.865   3.172   0.498  0.6032  0.4518 -0.4956
59909SOL    HW286586   3.947   3.183   0.625 -0.4189 -1.0978  0.3376
59910SOL     OW86587   3.313   9.151   7.860 -0.1849  0.0086  0.0583
59910SOL    HW186588   3.388   9.105   7.823 -0.0869 -0.0267  0.2982
59910SOL    HW286589   3.352   9.221   7.913 -0.3228  0.0795  0.0666
59911SOL     OW86590   8.562   2.286   7.176  0.9860 -0.0067 -0.2902
59911SOL    HW186591   8.561   2.303   7.270  0.4294  1.4919 -0.5274
59911SOL    HW286592   8.487   2.228   7.161 -0.9162  2.2668 -0.1603
59912SOL     OW86593   9.693   0.507   0.355  0.0468  0.2559 -0.0880
59912SOL    HW186594   9.642   0.426   0.363  0.1173  0.0622 -1.4117
59912SOL    HW286595   9.710   0.533   0.446  0.8605 -1.7352  0.3804
59913SOL     OW86596   9.367   5.354   0.877  0.1532 -0.2035 -0.0846
59913SOL    HW186597   9.320   5.276   0.847 -1.9160  0.6944  0.6871
59913SOL    HW286598   9.323   5.427   0.832  1.9840  0.5699 -0.7142
59914SOL     OW86599   7.075  10.315   9.211  0.4203  0.2460 -0.0869
59914SOL    HW186600   6.990  10.292   9.174 -0.1424  0.6948  0.8881
59914SOL    HW286601   7.091  10.404   9.182  1.3883 -0.4012 -1.6977
59915SOL     OW86602   5.976   8.001   2.355  0.3011  0.0346  0.7559
59915SOL    HW186603   5.884   7.996   2.378 -0.4464 -0.8362 -2.0976
59915SOL    HW286604   6.006   7.910   2.353  1.0317  0.2603  0.9350
59916SOL     OW86605   7.639   8.428   9.859 -0.0393  0.0271  0.2915
59916SOL    HW186606   7.698   8.366   9.903  0.0145 -0.4277 -0.4002
59916SOL    HW286607   7.572   8.448   9.924  0.4695 -0.0301  0.8366
59917SOL     OW86608   8.615  12.450   6.789 -0.0860  0.2112  0.0777
59917SOL    HW186609   8.604  12.355   6.780  1.5792  0.0122 -0.2607
59917SOL    HW286610   8.702  12.460   6.826 -1.4036  1.5334  3.1623
59918SOL     OW86611   3.114   0.661   7.160  0.2559  0.1060 -0.1223
59918SOL    HW186612   3.173   0.728   7.194 -1.5547  0.5614  2.5211
59918SOL    HW286613   3.036   0.710   7.133 -0.2299 -0.7314 -0.2665
59919SOL     OW86614  11.213  11.316   9.656  0.3438 -0.2597 -0.3781
59919SOL    HW186615  11.156  11.383   9.693 -0.3345 -2.4925  3.0785
59919SOL    HW286616  11.175  11.297   9.570 -3.1096 -0.3553  1.0039
59920SOL     OW86617   7.484   6.594   2.694  0.2494  0.3955  0.1828
59920SOL    HW186618   7.426   6.518   2.697  1.1489 -0.3055  0.5463
59920SOL    HW286619   7.463   6.643   2.774 -1.6689  1.5875 -0.9953
59921SOL     OW86620   7.974   0.325   6.440 -0.9365  0.1127 -0.1572
59921SOL    HW186621   8.010   0.237   6.453 -0.9111  0.3510  1.7339
59921SOL    HW286622   7.895   0.311   6.387  0.8160 -0.6119 -2.7755
59922SOL     OW86623  11.209   3.508  10.592  0.0142 -0.2622  0.1344
59922SOL    HW186624  11.253   3.508  10.677 -0.3471 -0.2978  0.3250
59922SOL    HW286625  11.116   3.515  10.614  0.0047  1.4986 -0.3106
59923SOL     OW86626   2.983   9.890   8.034 -0.2766  0.3134  0.1121
59923SOL    HW186627   2.999   9.839   8.114 -1.6008 -1.3652 -0.6453
59923SOL    HW286628   2.915   9.952   8.059 -0.6179 -0.1420  0.3346
59924SOL     OW86629   2.404   8.970   0.715 -0.6528 -0.8086  0.3447
59924SOL    HW186630   2.389   9.063   0.734  1.8786 -0.3649  0.5292
59924SOL    HW286631   2.385   8.961   0.622 -1.8336 -0.3335  0.5290
59925SOL     OW86632   0.022   4.709   7.185  0.1339 -0.1707  0.2510
59925SOL    HW186633   0.005   4.749   7.100 -0.7488 -1.4774 -0.2180
59925SOL    HW286634  -0.050   4.738   7.241  0.2636  0.0254  0.3161
59926SOL     OW86635   6.769   0.911   3.771 -0.2125 -0.1885 -0.3174
59926SOL    HW186636   6.861   0.916   3.798 -0.0360 -0.1488 -0.9105
59926SOL    HW286637   6.747   1.000   3.743 -0.7163  0.0220  0.7043
59927SOL     OW86638  10.159   1.249   8.300 -0.3782  0.6285 -0.3911
59927SOL    HW186639  10.207   1.238   8.218  2.4458  1.2807  1.0593
59927SOL    HW286640  10.152   1.160   8.336  0.7999  0.6437 -0.0956
59928SOL     OW86641   0.063   4.197   2.581 -0.3107 -0.1339 -0.1242
59928SOL    HW186642   0.059   4.173   2.489 -0.5435  2.0877 -0.7568
59928SOL    HW286643  -0.028   4.209   2.607 -0.2395 -0.6100  0.3689
59929SOL     OW86644  10.809  11.763   3.874  0.3995  0.1038 -0.5868
59929SOL    HW186645  10.798  11.740   3.782  1.0217  0.4393 -0.7446
59929SOL    HW286646  10.886  11.819   3.877  0.2959  0.2260  0.1195
59930SOL     OW86647   2.384   3.897   9.918 -0.4438 -0.1959  0.2105
59930SOL    HW186648   2.322   3.879   9.847  0.9429  0.0113 -1.0880
59930SOL    HW286649   2.391   3.813   9.965 -0.2666 -0.7523 -0.7873
59931SOL     OW86650   6.900  10.529   2.703  0.1683  0.7995  0.1335
59931SOL    HW186651   6.815  10.562   2.675 -0.0137 -0.3427 -0.7374
59931SOL    HW286652   6.961  10.562   2.637  0.5823  2.3711  1.2433
59932SOL     OW86653   6.736   5.619   5.766 -0.1767  0.2133  0.0353
59932SOL    HW186654   6.802   5.688   5.765  0.1069 -0.0446  0.5539
59932SOL    HW286655   6.675   5.643   5.696  0.5937  0.3153 -0.6192
59933SOL     OW86656  10.426   2.478   6.874 -0.2356 -0.0401 -0.0977
59933SOL    HW186657  10.385   2.482   6.961  1.8729  1.0211  0.9321
59933SOL    HW286658  10.520   2.489   6.891  0.2880 -0.1377 -2.5069
59934SOL     OW86659   3.324   1.707   3.384 -0.2186  0.1441  0.6559
59934SOL    HW186660   3.406   1.723   3.337 -0.3613 -0.4848  0.1674
59934SOL    HW286661   3.256   1.742   3.327 -0.2436  1.3660  1.4193
59935SOL     OW86662   9.647   3.785   2.005  0.0035  0.0039 -0.1334
59935SOL    HW186663   9.624   3.811   1.916  1.0035  2.1844  0.1706
59935SOL    HW286664   9.736   3.749   1.998  0.7890  1.7659  0.1498
59936SOL     OW86665   0.367   4.028  12.556 -0.4534  0.2329 -0.1443
59936SOL    HW186666   0.332   4.107  12.515  0.8583  0.7347 -0.3451
59936SOL    HW286667   0.348   3.958  12.494 -3.5506 -0.0691  0.9661
59937SOL     OW86668   9.540   4.392   3.689  0.0742  0.6284 -0.5878
59937SOL    HW186669   9.619   4.428   3.728  0.4500  0.3828 -1.1182
59937SOL    HW286670   9.540   4.300   3.715 -1.4896  1.2027  1.7567
59938SOL     OW86671   0.924   8.837   3.757 -0.6005  0.1054  0.1881
59938SOL    HW186672   0.936   8.833   3.663 -0.2340  0.8161  0.1931
59938SOL    HW286673   0.830   8.849   3.769 -0.8910 -1.7038 -0.0053
59939SOL     OW86674   3.836  12.484   6.426 -0.9163 -0.3279  0.2966
59939SOL    HW186675   3.840  12.576   6.453  3.3453 -0.0200 -0.7433
59939SOL    HW286676   3.819  12.436   6.507  0.4265  1.2056  1.5522
59940SOL     OW86677   9.367   9.765   7.631  0.0407  0.6671 -0.3279
59940SOL    HW186678   9.357   9.859   7.651  1.6367  0.8555 -0.2525
59940SOL    HW286679   9.314   9.721   7.697 -1.2862  1.5151 -0.7761
59941SOL     OW86680   8.816   2.747   9.044 -0.8442 -0.0809  0.6184
59941SOL    HW186681   8.866   2.718   9.120 -1.9240 -0.5134  1.1762
59941SOL    HW286682   8.780   2.832   9.069  0.0496  0.5011  0.0034
59942SOL     OW86683   3.221   5.171   1.956  0.4630  0.3901 -0.1274
59942SOL    HW186684   3.129   5.195   1.944  0.4371  0.1269 -0.4741
59942SOL    HW286685   3.267   5.255   1.957  0.2665  0.5031 -0.3827
59943SOL     OW86686   4.363   5.778   9.675 -0.3067  0.1952  0.5876
59943SOL    HW186687   4.323   5.693   9.659 -0.1182  0.2335 -0.1353
59943SOL    HW286688   4.322   5.836   9.611  2.3486 -0.2065 -1.6994
59944SOL     OW86689   8.484   6.624   3.929 -0.3155  0.3166 -0.6923
59944SOL    HW186690   8.549   6.562   3.962 -1.8140 -1.8718 -1.6015
59944SOL    HW286691   8.529   6.708   3.928  1.6803 -0.6296  1.0619
59945SOL     OW86692  11.150   7.791   8.567  0.3108 -0.4042 -0.2041
59945SOL    HW186693  11.071   7.836   8.538  0.5203  0.6821  0.8456
59945SOL    HW286694  11.214   7.808   8.498 -0.0367 -0.3120 -0.5043
59946SOL     OW86695   6.175   8.950   6.119  0.4065  0.1070 -0.2690
59946SOL    HW186696   6.264   8.968   6.149  1.2586 -1.7255 -1.5161
59946SOL    HW286697   6.123   8.947   6.199  1.3561  1.5905  0.4553
59947SOL     OW86698   7.325   2.439  10.790 -0.1554  0.3341  0.4020
59947SOL    HW186699   7.360   2.360  10.832  1.6314  0.0155 -1.5465
59947SOL    HW286700   7.363   2.511  10.839 -1.7967  0.0815  2.1984
59948SOL     OW86701   3.743   6.708   4.048 -0.7047 -0.2458 -0.0093
59948SOL    HW186702   3.703   6.789   4.077  0.3465  0.4637 -0.4868
59948SOL    HW286703   3.772   6.726   3.959 -1.6727 -1.5967 -0.6395
59949SOL     OW86704   1.117   0.694  11.548  0.0183 -0.1767  0.1540
59949SOL    HW186705   1.193   0.637  11.553 -0.1615 -0.3329  1.5600
59949SOL    HW286706   1.044   0.636  11.529  0.0624 -0.2026  0.0641
59950SOL     OW86707   1.771   9.971   8.222 -0.1969  0.3683 -0.1309
59950SOL    HW186708   1.678   9.994   8.222 -0.6644 -1.1933  2.0766
59950SOL    HW286709   1.773   9.882   8.187  0.3690  0.1012  0.5680
59951SOL     OW86710   2.047   8.686   6.136  0.3474  0.0219  0.1708
59951SOL    HW186711   1.957   8.655   6.123 -0.1385  1.1606  0.6412
59951SOL    HW286712   2.043   8.780   6.116  1.9815 -0.3422 -2.1916
59952SOL     OW86713   8.989   9.043  12.449 -0.1571  0.5454 -0.6840
59952SOL    HW186714   9.018   9.060  12.359 -1.1401 -0.2465 -1.1698
59952SOL    HW286715   9.015   8.953  12.465 -0.3779  0.5463 -0.3262
59953SOL     OW86716   5.457   2.748   0.825  0.6248 -0.1407  0.7505
59953SOL    HW186717   5.447   2.787   0.739  1.4354  1.0369  1.1646
59953SOL    HW286718   5.550   2.727   0.831  0.5691 -0.2515  1.3165
59954SOL     OW86719  11.473   5.103   1.746 -0.3963 -0.4295 -0.2568
59954SOL    HW186720  11.520   5.169   1.797 -0.5815 -0.8883  0.5137
59954SOL    HW286721  11.382   5.131   1.747 -0.4115 -0.4797 -0.2811
59955SOL     OW86722   3.875  10.230   8.041 -0.4593 -0.6579 -0.2791
59955SOL    HW186723   3.843  10.145   8.070 -0.2181 -1.2312 -1.6266
59955SOL    HW286724   3.808  10.292   8.070 -2.4098 -1.7079 -2.2555
59956SOL     OW86725   7.777   7.155   1.625  0.1125 -0.8040  0.0764
59956SOL    HW186726   7.735   7.240   1.633  2.4595  0.4697 -0.4253
59956SOL    HW286727   7.728   7.111   1.555  0.8070  1.4305 -1.9378
59957SOL     OW86728   0.033  10.401   4.245  0.3407 -0.2089  0.4332
59957SOL    HW186729   0.096  10.360   4.187  0.9014 -0.0247  0.8984
59957SOL    HW286730  -0.010  10.328   4.290 -0.3368 -0.3624 -0.4499
59958SOL     OW86731   3.629   7.254   3.517  0.7327  0.3288  0.2094
59958SOL    HW186732   3.614   7.233   3.609 -1.1660 -0.6319 -0.2697
59958SOL    HW286733   3.585   7.337   3.503  1.3571  0.6726  0.2410
59959SOL     OW86734   0.276   3.291   4.855  0.2871  0.1136 -0.0525
59959SOL    HW186735   0.231   3.375   4.864 -0.8239 -0.6486  2.3124
59959SOL    HW286736   0.206   3.226   4.862  1.0930 -1.0665 -2.0544
59960SOL     OW86737   2.029   4.924   6.868 -0.1459 -0.1915  0.4950
59960SOL    HW186738   1.956   4.944   6.927  0.5057  2.2418  0.5638
59960SOL    HW286739   2.095   4.990   6.888  0.6610 -0.1458 -2.0419
59961SOL     OW86740  12.155   8.660   1.448  0.2851 -0.2261  0.3915
59961SOL    HW186741  12.082   8.613   1.487  1.8751 -4.1601 -0.8615
59961SOL    HW286742  12.226   8.653   1.512  1.0154 -1.0491 -0.4726
59962SOL     OW86743   4.203   7.292   2.260  0.4566 -0.3595 -0.0286
59962SOL    HW186744   4.136   7.359   2.244  0.1617 -0.0991  1.9959
59962SOL    HW286745   4.158   7.225   2.311  2.0641  0.6373  2.9141
59963SOL     OW86746   3.377   3.073   1.859  0.1913  0.6829  0.0219
59963SOL    HW186747   3.296   3.081   1.808 -1.1267  0.1002  1.9034
59963SOL    HW286748   3.387   2.978   1.872  0.2292  0.8406  1.2049
59964SOL     OW86749  11.086   6.951  12.402  0.2755  0.6623 -0.1538
59964SOL    HW186750  11.127   6.988  12.324 -1.0431 -0.3147 -1.3706
59964SOL    HW286751  11.017   7.012  12.425 -1.0078 -0.2846 -1.3395
59965SOL     OW86752  12.539   0.067   2.323  0.2886 -0.2866 -0.1803
59965SOL    HW186753  12.543   0.050   2.229  1.0569 -2.0578  0.1392
59965SOL    HW286754  12.620   0.030   2.358  0.0628  0.4366  1.1767
59966SOL     OW86755   6.273   7.212  10.785  0.1348  0.4153 -0.1649
59966SOL    HW186756   6.313   7.162  10.714 -0.7326  0.3597 -0.6211
59966SOL    HW286757   6.347   7.238  10.840  0.8681  0.9037 -1.3608
59967SOL     OW86758   6.629   2.763   1.659  0.3284  0.0193  0.3105
59967SOL    HW186759   6.534   2.772   1.660  0.0179 -2.2575 -0.9614
59967SOL    HW286760   6.662   2.853   1.662 -1.9183  1.0208 -1.8402
59968SOL     OW86761   4.742   2.257   9.633  0.4136  0.0453 -0.1369
59968SOL    HW186762   4.741   2.277   9.727  2.0103  0.3916 -0.1738
59968SOL    HW286763   4.816   2.198   9.622 -0.6943 -1.2535 -0.9661
59969SOL     OW86764   9.791   8.657  12.383 -0.0819  0.4893  0.1181
59969SOL    HW186765   9.724   8.697  12.439  1.0256  0.8121  1.2596
59969SOL    HW286766   9.794   8.713  12.306 -1.6314  0.0420 -0.3104
59970SOL     OW86767   8.879   6.984   8.190 -0.0621 -0.2770 -0.1676
59970SOL    HW186768   8.795   6.971   8.147  1.0017 -0.4657 -2.3744
59970SOL    HW286769   8.940   6.999   8.118  1.6897  0.4836  1.3904
59971SOL     OW86770   1.662   7.376   2.638 -0.5808  0.1811 -0.8791
59971SOL    HW186771   1.661   7.311   2.709 -0.3178  1.4822  0.3598
59971SOL    HW286772   1.620   7.332   2.565 -0.7037 -1.2763  0.0272
59972SOL     OW86773   6.292  10.519   5.744 -0.4190 -0.4054  0.2695
59972SOL    HW186774   6.377  10.484   5.771  0.0317 -1.7132 -2.5429
59972SOL    HW286775   6.313  10.587   5.679 -1.4001 -3.0185 -3.0616
59973SOL     OW86776   6.104   2.553   8.109  0.1190  0.4760 -0.0697
59973SOL    HW186777   6.197   2.569   8.122  0.0715  0.9250 -0.2741
59973SOL    HW286778   6.061   2.604   8.178 -0.0451  1.4652 -0.8846
59974SOL     OW86779   5.242   5.516   5.313  0.5442 -0.2858  0.5592
59974SOL    HW186780   5.207   5.435   5.277  0.9622 -0.4855  0.5859
59974SOL    HW286781   5.286   5.558   5.239 -1.5351  1.0176 -0.0172
59975SOL     OW86782   4.733   4.657   0.111 -0.0943  0.7114  0.0228
59975SOL    HW186783   4.672   4.606   0.165  0.6563 -0.0158  0.2147
59975SOL    HW286784   4.817   4.647   0.155  0.7925 -0.8686 -1.8692
59976SOL     OW86785   5.122  11.363  10.399  0.0152  0.1967 -0.5259
59976SOL    HW186786   5.082  11.300  10.459  1.3064 -0.6629 -0.5378
59976SOL    HW286787   5.178  11.310  10.342 -1.5523  0.8787 -2.8994
59977SOL     OW86788   6.140   3.398   2.635 -0.2058  0.2583 -0.1868
59977SOL    HW186789   6.053   3.411   2.598  0.2688  0.3400 -1.3480
59977SOL    HW286790   6.138   3.443   2.719 -1.3456  0.0598 -0.0983
59978SOL     OW86791   0.478   6.674   0.287 -0.2924  0.1436 -0.4340
59978SOL    HW186792   0.526   6.678   0.370 -0.9804  0.0064 -0.0272
59978SOL    HW286793   0.455   6.581   0.278 -0.7485  0.2583 -0.4683
59979SOL     OW86794  11.999   8.070  11.681  0.6385  0.0804 -0.0447
59979SOL    HW186795  12.002   8.095  11.588  1.4878 -1.2419 -0.3973
59979SOL    HW286796  12.081   8.022  11.695 -0.0711 -0.8483  1.0601
59980SOL     OW86797   7.325  10.950   1.008  0.1902 -0.0322  0.2003
59980SOL    HW186798   7.367  10.864   1.011 -0.8217 -0.6308 -1.4343
59980SOL    HW286799   7.232  10.930   0.994 -0.0226  1.3320 -0.4301
59981SOL     OW86800   2.905   4.985   0.016  0.0662  0.0641  0.0639
59981SOL    HW186801   2.860   4.901   0.023  1.8035 -0.7490  3.0899
59981SOL    HW286802   2.870   5.037   0.088  0.3193  1.2841 -0.6707
59982SOL     OW86803   3.248  12.283   8.212  0.1405 -0.0788 -0.2240
59982SOL    HW186804   3.238  12.257   8.120  0.3907  1.6029 -0.7561
59982SOL    HW286805   3.333  12.327   8.216 -0.8591  1.9112  0.2871
59983SOL     OW86806   1.397   5.069   0.529 -0.2604 -0.0986 -1.0292
59983SOL    HW186807   1.356   5.081   0.443  0.8330 -1.8086 -1.8483
59983SOL    HW286808   1.398   4.974   0.542  1.1224  0.0326  0.0812
59984SOL     OW86809   9.124  11.112  11.429  0.5413  0.1929 -0.4644
59984SOL    HW186810   9.129  11.045  11.361 -0.4543  0.9658 -1.3470
59984SOL    HW286811   9.214  11.126  11.456  0.9622 -0.2012 -1.5877
59985SOL     OW86812   3.789   5.892   4.194 -0.2154  0.0236 -0.1497
59985SOL    HW186813   3.837   5.890   4.276  1.7939 -1.1637 -1.2862
59985SOL    HW286814   3.716   5.952   4.211  2.0253  2.5242  1.4791
59986SOL     OW86815   9.624  10.260   2.214 -0.1602 -0.2930 -0.1108
59986SOL    HW186816   9.578  10.333   2.255  1.3120  0.5174  0.1484
59986SOL    HW286817   9.669  10.299   2.139 -0.0752 -1.1187 -0.5045
59987SOL     OW86818  11.511   4.780   8.180  0.2380  0.0300  0.2957
59987SOL    HW186819  11.560   4.861   8.171  0.6533 -0.4038 -1.7671
59987SOL    HW286820  11.551   4.736   8.256 -0.2576  1.8797  1.6831
59988SOL     OW86821   0.870   4.077   9.415 -0.2218 -0.7239 -0.2950
59988SOL    HW186822   0.939   4.142   9.400  0.3858 -1.3065 -0.1129
59988SOL    HW286823   0.809   4.120   9.474  0.1748 -0.3183 -0.1701
59989SOL     OW86824   1.492   9.044  10.228  0.0484  0.0322  0.1656
59989SOL    HW186825   1.455   9.130  10.248  0.5164  0.1813  0.4142
59989SOL    HW286826   1.512   9.048  10.135  2.0235  0.9802  0.5727
59990SOL     OW86827   4.395   6.759  12.237 -0.1221  0.2298  0.1523
59990SOL    HW186828   4.466   6.812  12.273 -0.4595  0.3032  0.7265
59990SOL    HW286829   4.351   6.722  12.314 -1.1403  0.7609 -0.1601
59991SOL     OW86830   7.633   2.855   5.846 -0.2008 -0.7218 -0.2184
59991SOL    HW186831   7.675   2.910   5.780 -1.2608 -2.1592 -2.2086
59991SOL    HW286832   7.686   2.775   5.846 -0.2546 -0.7594  0.6510
59992SOL     OW86833   0.239  11.528   0.790 -0.4065 -0.1865 -0.2030
59992SOL    HW186834   0.158  11.499   0.832  0.3004 -1.4210  0.3698
59992SOL    HW286835   0.237  11.487   0.704 -0.5624  0.0885 -0.3310
59993SOL     OW86836   4.026   4.748   8.123 -0.0885 -0.0399 -0.1363
59993SOL    HW186837   4.096   4.683   8.133  0.9247  1.0045 -0.3011
59993SOL    HW286838   4.042   4.811   8.193 -2.8352 -1.4587  2.0179
59994SOL     OW86839  11.930   5.358   4.594 -0.4373  0.4905 -1.0152
59994SOL    HW186840  11.948   5.394   4.681 -0.7241  0.5253 -0.9678
59994SOL    HW286841  11.905   5.434   4.541  0.4146  0.5714 -1.3204
59995SOL     OW86842  12.435   3.880   4.115 -0.0046  0.2612 -0.3579
59995SOL    HW186843  12.387   3.807   4.155  0.9027 -0.0573  0.1872
59995SOL    HW286844  12.517   3.884   4.165  0.6588  0.6063 -1.4488
59996SOL     OW86845   8.354   4.901   1.858 -0.0984 -0.5880 -0.2418
59996SOL    HW186846   8.425   4.940   1.909 -0.1756  0.2045 -0.7324
59996SOL    HW286847   8.392   4.820   1.824  0.5546 -0.2093 -0.4380
59997SOL     OW86848   3.538   1.589   9.774  0.6282 -0.2706 -0.1985
59997SOL    HW186849   3.580   1.516   9.728  1.1817 -0.4202  0.5366
59997SOL    HW286850   3.589   1.666   9.748  1.8363 -0.5397  1.2210
59998SOL     OW86851  12.404   9.298   4.696  0.3352  0.0656 -0.3089
59998SOL    HW186852  12.439   9.227   4.642  1.3028  1.5742 -1.7582
59998SOL    HW286853  12.481   9.347   4.723 -0.3109  0.5146  0.7478
59999SOL     OW86854  10.338   6.215   1.403 -0.0220 -0.0292  0.3636
59999SOL    HW186855  10.315   6.127   1.433 -0.0966 -0.6422 -1.3682
59999SOL    HW286856  10.396   6.200   1.328 -0.3215  1.3868 -0.1835
60000SOL     OW86857   2.549  10.011   9.905 -0.5798  0.0467  0.1727
60000SOL    HW186858   2.558   9.929   9.857 -0.1957  0.2650 -0.1348
60000SOL    HW286859   2.543  10.078   9.837  1.8524  0.5736  0.3715
60001SOL     OW86860   1.765   9.476   9.136 -0.0557 -0.1359 -0.5772
60001SOL    HW186861   1.795   9.552   9.186  1.4297 -1.4398  0.6279
60001SOL    HW286862   1.671   9.475   9.150  0.2177 -0.1337  1.8603
60002SOL     OW86863   5.640  11.729   3.937  0.4346 -0.2002 -0.1257
60002SOL    HW186864   5.713  11.676   3.906  1.6007  0.9757  0.5432
60002SOL    HW286865   5.642  11.808   3.883  1.8888  1.4339  2.0867
60003SOL     OW86866   0.882   0.777   4.213 -0.1823  0.0064 -0.1371
60003SOL    HW186867   0.879   0.789   4.118  2.1852  3.6651  0.0628
60003SOL    HW286868   0.821   0.842   4.248  2.7764  2.5059  0.8160
60004SOL     OW86869  10.841   5.829   4.449 -0.3561 -0.2897 -0.3753
60004SOL    HW186870  10.792   5.804   4.527 -0.9950  1.6754 -0.0750
60004SOL    HW286871  10.814   5.766   4.383 -0.5427 -1.4143  0.7290
60005SOL     OW86872   7.382   6.004   3.754 -0.1711 -0.4780 -0.2437
60005SOL    HW186873   7.414   6.039   3.838  0.0194  0.4528 -0.6977
60005SOL    HW286874   7.388   6.078   3.694 -2.6834 -0.4247 -0.4937
60006SOL     OW86875  10.114   8.778   8.386  0.5890  0.1696  0.3833
60006SOL    HW186876  10.159   8.862   8.387  2.1193 -0.6233  0.7998
60006SOL    HW286877  10.030   8.795   8.430  0.8236  1.4907  0.3516
60007SOL     OW86878   9.038   1.639  11.833  0.0194  0.5005  0.0185
60007SOL    HW186879   8.970   1.587  11.791 -1.0988  2.4723 -0.7467
60007SOL    HW286880   8.990   1.696  11.893  1.2783  0.1418  1.4275
60008SOL     OW86881   1.863   2.418   9.799  0.2845 -0.2143 -0.2101
60008SOL    HW186882   1.956   2.436   9.788 -0.0105  0.4554 -1.9956
60008SOL    HW286883   1.826   2.501   9.831  0.1353 -0.1056 -0.6547
60009SOL     OW86884   3.561   7.736   7.184 -0.3461 -0.0361 -0.4048
60009SOL    HW186885   3.612   7.790   7.246  0.6922 -0.9523 -0.4250
60009SOL    HW286886   3.485   7.790   7.162 -0.2069  0.7276  0.8765
60010SOL     OW86887   0.263   4.505   5.760  0.0960 -0.2682 -0.5344
60010SOL    HW186888   0.347   4.541   5.785  0.4845  0.0510 -2.2080
60010SOL    HW286889   0.272   4.410   5.773  0.2156 -0.1046  0.6316
60011SOL     OW86890   9.707   1.347  12.280 -0.1641 -0.1628  0.3982
60011SOL    HW186891   9.695   1.297  12.200 -0.6142 -1.7380  1.3951
60011SOL    HW286892   9.638   1.314  12.339 -0.5478  1.7269  1.0748
60012SOL     OW86893  10.156  12.293   1.589  0.5366  0.0218  0.3974
60012SOL    HW186894  10.140  12.216   1.644  0.4900 -0.3755 -0.1641
60012SOL    HW286895  10.086  12.353   1.611  0.6994  0.0023  1.0063
60013SOL     OW86896   6.537   0.630   2.923 -0.4278  0.0759  0.0770
60013SOL    HW186897   6.532   0.535   2.922  1.3839 -0.0700  0.6849
60013SOL    HW286898   6.570   0.652   3.010  0.9277  1.1174 -0.6535
60014SOL     OW86899  11.517   4.504   2.038  0.1041  0.1025 -1.0104
60014SOL    HW186900  11.589   4.567   2.031 -0.6365  1.3167  1.2649
60014SOL    HW286901  11.438   4.558   2.038 -0.5819 -0.8503  0.5157
60015SOL     OW86902   2.902   9.774   3.413  0.3451 -0.7172  0.6614
60015SOL    HW186903   2.956   9.728   3.478  0.9536  0.6343  1.1594
60015SOL    HW286904   2.963   9.830   3.366 -0.6818  1.5006  1.8061
60016SOL     OW86905   9.721   0.805  12.554  0.2443 -0.1191 -0.1611
60016SOL    HW186906   9.639   0.847  12.583 -0.0395  0.0491 -1.1744
60016SOL    HW286907   9.736   0.737  12.619 -0.8074 -0.2705 -0.0485
60017SOL     OW86908  12.463   7.742  11.459  0.2221 -0.7747  0.3777
60017SOL    HW186909  12.539   7.700  11.499 -0.1391 -2.0406 -0.2414
60017SOL    HW286910  12.451   7.697  11.376  1.0510  1.9013 -1.3557
60018SOL     OW86911   9.846   9.103   2.755  0.7330  0.0141 -0.0028
60018SOL    HW186912   9.829   9.026   2.701  1.7317 -0.2457  0.0327
60018SOL    HW286913   9.877   9.170   2.694  0.1125  0.3130  0.0020
60019SOL     OW86914  11.662   7.338   6.845  0.2476 -0.1892  0.1060
60019SOL    HW186915  11.749   7.301   6.855  0.9894  1.4456 -0.0307
60019SOL    HW286916  11.676   7.433   6.839 -1.7038  0.3577  2.5025
60020SOL     OW86917   6.573  11.332   3.242 -0.2343  0.3503  0.8877
60020SOL    HW186918   6.505  11.374   3.188  0.2969  0.7571  0.5289
60020SOL    HW286919   6.557  11.366   3.330 -1.2496 -0.4920  1.0594
60021SOL     OW86920   9.097   2.244   1.136 -0.4120  0.2332  0.5834
60021SOL    HW186921   9.051   2.287   1.064  0.5935 -0.3530 -0.4408
60021SOL    HW286922   9.103   2.153   1.110 -0.3242 -0.0628  1.5872
60022SOL     OW86923  11.552  10.727   0.267  0.2626  0.3160  0.2117
60022SOL    HW186924  11.600  10.786   0.324  1.3806 -0.9192  0.6004
60022SOL    HW286925  11.619  10.688   0.211 -0.4102 -0.7916  0.1542
60023SOL     OW86926   5.011   5.902   5.154 -0.1415  0.2345 -0.7034
60023SOL    HW186927   4.946   5.948   5.206 -0.9564 -1.0773 -0.5197
60023SOL    HW286928   5.044   5.833   5.212  1.3743  0.8117 -0.8188
60024SOL     OW86929   5.907  12.013  11.828 -0.1203 -0.1316  0.7102
60024SOL    HW186930   5.825  11.991  11.785  1.2299 -1.1356 -1.5497
60024SOL    HW286931   5.898  12.104  11.854 -1.3495  0.2813 -1.0188
60025SOL     OW86932   6.246   5.467  11.476  0.0574 -0.1294  0.3281
60025SOL    HW186933   6.271   5.396  11.416 -0.4398  1.7221 -2.2539
60025SOL    HW286934   6.328   5.512  11.496  0.1742 -0.5210  0.7397
60026SOL     OW86935   3.819   1.561   6.391 -0.0670  0.3303  0.2827
60026SOL    HW186936   3.885   1.528   6.330 -0.3501  0.6445 -0.2046
60026SOL    HW286937   3.810   1.492   6.456  0.3226  0.0338  0.0280
60027SOL     OW86938  12.017   1.469   4.485  0.1283 -0.2835 -0.4410
60027SOL    HW186939  11.962   1.547   4.488 -0.3685 -0.6555  0.4590
60027SOL    HW286940  11.991   1.418   4.561 -0.5360 -2.0007 -1.7527
60028SOL     OW86941   9.322   0.514   1.020  0.0590 -0.6550 -0.0722
60028SOL    HW186942   9.269   0.552   0.950 -0.0396 -0.6109  0.0262
60028SOL    HW286943   9.408   0.556   1.010  0.1128 -0.8206 -0.3088
60029SOL     OW86944   5.978   4.461  12.048  0.1627 -0.2002 -0.0459
60029SOL    HW186945   6.000   4.439  11.958 -0.5680 -0.8432 -0.0780
60029SOL    HW286946   5.935   4.383  12.082  0.0002  0.2069  0.7139
60030SOL     OW86947   2.548   4.466   5.423 -0.0928 -0.3105 -0.5994
60030SOL    HW186948   2.609   4.525   5.377  0.3358 -0.2772 -0.0081
60030SOL    HW286949   2.594   4.443   5.504 -0.0373 -1.8809 -1.0475
60031SOL     OW86950   5.865  10.154   0.243  0.5050  0.1849 -0.0548
60031SOL    HW186951   5.787  10.100   0.255  0.6519 -0.0781 -0.2679
60031SOL    HW286952   5.926  10.125   0.311  0.4958  0.2473 -0.0193
60032SOL     OW86953  11.109  11.752   0.706  0.5095 -0.1432 -0.2121
60032SOL    HW186954  11.202  11.756   0.686  0.4513 -0.5257 -0.5962
60032SOL    HW286955  11.096  11.665   0.743  0.5359  0.4079  1.1304
60033SOL     OW86956   2.033  11.367   4.901  0.5892 -0.1489 -0.1465
60033SOL    HW186957   2.076  11.391   4.819 -0.1068  0.4455 -0.3426
60033SOL    HW286958   2.105  11.361   4.964  1.2612 -1.6751 -1.0129
60034SOL     OW86959   7.581   7.004   1.537  0.6650  0.1810  0.2287
60034SOL    HW186960   7.557   6.917   1.503  2.2193 -0.2634  0.1943
60034SOL    HW286961   7.525   7.015   1.614 -0.7752 -0.0887 -0.7223
60035SOL     OW86962   2.202   3.473  10.613  0.1335 -0.3067 -0.1212
60035SOL    HW186963   2.274   3.419  10.580 -0.0680  0.3927 -1.8068
60035SOL    HW286964   2.234   3.563  10.605 -0.1957 -0.0638  1.0227
60036SOL     OW86965   6.141  10.845  11.121 -0.3482 -0.1353  0.5080
60036SOL    HW186966   6.184  10.881  11.043 -0.7764 -2.5124 -0.9243
60036SOL    HW286967   6.146  10.916  11.185 -0.5893  2.2041 -1.8635
60037SOL     OW86968   0.148  10.537  12.385 -0.2865  0.8430 -0.2239
60037SOL    HW186969   0.162  10.594  12.309  1.1215  2.0051  0.8539
60037SOL    HW286970   0.109  10.458  12.348  0.8007  1.1809 -2.2501
60038SOL     OW86971  12.177   4.249  10.707 -0.3121 -0.3702 -0.2722
60038SOL    HW186972  12.205   4.264  10.797  0.0371  0.0481 -0.4526
60038SOL    HW286973  12.085   4.276  10.706 -0.1452  0.1965 -0.1937
60039SOL     OW86974  11.749   1.376   9.005  0.6653 -0.0815  0.4777
60039SOL    HW186975  11.695   1.446   8.966  0.5791 -0.5718 -0.3050
60039SOL    HW286976  11.732   1.382   9.099 -1.1591 -0.5432  0.2178
60040SOL     OW86977   6.028  10.594  10.295 -0.0206 -0.5546  0.2564
60040SOL    HW186978   5.970  10.655  10.341 -0.5070 -1.0622  0.3459
60040SOL    HW286979   6.115  10.633  10.302 -0.3689  0.2847  0.0182
60041SOL     OW86980   1.197   5.819   9.134 -0.0523  0.1168  0.6018
60041SOL    HW186981   1.204   5.797   9.041  2.5811  0.6878  0.5972
60041SOL    HW286982   1.286   5.842   9.161 -1.0648  1.8895  2.8080
60042SOL     OW86983   6.887   6.260   1.966 -0.6314  0.4010 -0.2177
60042SOL    HW186984   6.857   6.174   1.994  1.2631 -0.8022 -1.6401
60042SOL    HW286985   6.876   6.260   1.871  0.7573  1.1475 -0.4029
60043SOL     OW86986   7.340   1.545   9.932  0.1927  0.3975 -0.1166
60043SOL    HW186987   7.272   1.507   9.876 -0.3588 -0.9965  1.3863
60043SOL    HW286988   7.291   1.583  10.006  0.9846  0.0649  0.5965
60044SOL     OW86989   6.154   6.434  10.435 -0.6086  0.3293 -0.6972
60044SOL    HW186990   6.069   6.397  10.458  0.1088 -1.3567 -0.6196
60044SOL    HW286991   6.193   6.369  10.377  0.0492  1.7601 -1.9235
60045SOL     OW86992   8.588  10.675  11.930 -0.2511 -0.1294 -0.2497
60045SOL    HW186993   8.506  10.690  11.882  0.4695  0.4923 -1.3352
60045SOL    HW286994   8.656  10.679  11.863  0.6522 -1.0049  0.5789
60046SOL     OW86995   7.877   7.911   9.464  0.1723  0.4470  0.9576
60046SOL    HW186996   7.888   7.994   9.420 -1.4892  0.1824 -0.0675
60046SOL    HW286997   7.965   7.874   9.471  0.9962  2.4590  1.8652
60047SOL     OW86998   7.668   5.551   1.312 -0.5385  0.3544 -0.3767
60047SOL    HW186999   7.621   5.473   1.285 -2.1161  1.7431 -1.8680
60047SOL    HW287000   7.662   5.552   1.408  3.0642 -3.4047  0.1824
60048SOL     OW87001   8.234   7.728  11.538  0.0026 -0.3073 -0.3100
60048SOL    HW187002   8.215   7.792  11.468 -0.8601  0.5898  0.7121
60048SOL    HW287003   8.190   7.648  11.510 -1.7584  0.5282 -0.0262
60049SOL     OW87004   3.330   1.710   5.296  0.0884 -0.4274 -0.9317
60049SOL    HW187005   3.352   1.790   5.345  0.4722 -2.0152  1.6960
60049SOL    HW287006   3.397   1.705   5.228 -0.8482  2.2327 -2.2024
60050SOL     OW87007   2.862   3.035  11.800  0.3737 -0.2480 -0.0772
60050SOL    HW187008   2.931   3.002  11.742 -0.0452 -0.6194 -0.3692
60050SOL    HW287009   2.783   2.988  11.773 -0.3181  1.1979 -0.7042
60051SOL     OW87010   1.257   8.156   6.186 -0.2165 -0.3415  0.0658
60051SOL    HW187011   1.253   8.147   6.090  0.7454  0.7929 -0.1099
60051SOL    HW287012   1.219   8.242   6.203  0.0292 -0.3518  0.6629
60052SOL     OW87013   9.254   6.423   0.045  0.6231 -0.3431 -0.5687
60052SOL    HW187014   9.349   6.430   0.033  0.6818  0.2893  0.1713
60052SOL    HW287015   9.241   6.426   0.140 -0.2061  0.7981 -0.6873
60053SOL     OW87016   9.295   2.230   2.708 -0.1833  0.7357  0.2161
60053SOL    HW187017   9.229   2.220   2.640 -1.0326  0.4562  1.0706
60053SOL    HW287018   9.327   2.319   2.697 -0.2934  0.6894 -0.5561
60054SOL     OW87019   2.562   0.277   2.798 -0.3718  0.1358 -0.3782
60054SOL    HW187020   2.596   0.333   2.868 -0.8866  0.4767 -0.3998
60054SOL    HW287021   2.641   0.246   2.752 -0.1059  1.4689 -0.8610
60055SOL     OW87022  11.046   2.640   5.943 -0.2001  0.4962 -0.0890
60055SOL    HW187023  10.996   2.561   5.962  1.7633 -1.1034 -1.2179
60055SOL    HW287024  11.020   2.665   5.855 -0.5837  0.9350  0.1457
60056SOL     OW87025   7.497   0.629   4.883 -0.3984 -0.5756 -0.3316
60056SOL    HW187026   7.425   0.574   4.851 -2.2816  1.3848  0.3152
60056SOL    HW287027   7.482   0.636   4.977  0.8880 -0.4560 -0.1213
60057SOL     OW87028   7.667   9.615   7.686  0.5970  0.5960 -0.4925
60057SOL    HW187029   7.684   9.570   7.603  2.9192  0.0690  0.1921
60057SOL    HW287030   7.751   9.654   7.710  0.7973 -1.5386  2.9242
60058SOL     OW87031   4.473   8.861  11.007 -0.3798  0.3710 -0.3833
60058SOL    HW187032   4.477   8.838  10.915 -1.9312  2.6223 -1.0947
60058SOL    HW287033   4.561   8.892  11.028  0.0008 -0.2238 -1.0731
60059SOL     OW87034  11.723   7.803   9.155 -0.3249  0.4281  0.0414
60059SOL    HW187035  11.777   7.724   9.151 -1.3571 -0.2524 -1.4705
60059SOL    HW287036  11.633   7.771   9.156 -0.7525  1.5584  1.7347
60060SOL     OW87037   9.342   7.344   7.786  0.0150  0.7770  0.0975
60060SOL    HW187038   9.424   7.324   7.741 -0.4482  0.4461 -0.6391
60060SOL    HW287039   9.367   7.360   7.877  0.8506  0.3300 -0.0418
60061SOL     OW87040   4.934  11.491   4.362  0.4371 -0.3380 -0.1118
60061SOL    HW187041   5.027  11.495   4.340  0.5966 -0.5003  0.5216
60061SOL    HW287042   4.902  11.413   4.318  1.2732 -2.0183  2.0798
60062SOL     OW87043  10.253   1.189   2.442  0.2075 -0.6422 -0.2075
60062SOL    HW187044  10.345   1.185   2.417 -0.5305 -0.9664 -3.2789
60062SOL    HW287045  10.222   1.099   2.434 -0.6876 -0.3071 -0.6583
60063SOL     OW87046   9.652   5.548   2.686  0.2797  0.2665 -0.1353
60063SOL    HW187047   9.693   5.497   2.756 -1.2331  0.9804  1.3313
60063SOL    HW287048   9.672   5.499   2.606  1.8752 -0.6897  0.8021
60064SOL     OW87049   3.628   1.106  10.293  0.2795 -0.1314  0.4147
60064SOL    HW187050   3.561   1.163  10.255  1.0157 -0.1339 -0.9361
60064SOL    HW287051   3.607   1.019  10.261  1.5201  0.0255 -0.9349
60065SOL     OW87052   5.885   2.464  10.341  0.3739  0.5269  0.1724
60065SOL    HW187053   5.948   2.458  10.269  1.5571 -1.5216  1.3053
60065SOL    HW287054   5.939   2.463  10.420 -0.8096  3.9494  1.1778
60066SOL     OW87055  10.127   9.074   9.830  0.2630  0.6275 -0.5689
60066SOL    HW187056  10.109   8.982   9.850  2.7620  0.1719 -0.1220
60066SOL    HW287057  10.059   9.099   9.768 -0.7372 -1.3809 -0.3469
60067SOL     OW87058   5.634   7.711  12.357  0.1628 -0.4140 -0.1698
60067SOL    HW187059   5.577   7.636  12.376 -1.1577  0.6373  0.1242
60067SOL    HW287060   5.574   7.781  12.330  1.4415  0.2483 -1.4674
60068SOL     OW87061   4.522   4.385   8.137  0.4886  0.5752 -0.8085
60068SOL    HW187062   4.442   4.406   8.185 -0.0360 -0.5384 -1.1438
60068SOL    HW287063   4.546   4.297   8.168  1.3307  0.7169 -1.0348
60069SOL     OW87064   3.125   1.240   9.551 -0.2064 -0.4605  0.4030
60069SOL    HW187065   3.197   1.297   9.576 -0.7699 -0.0717  1.2008
60069SOL    HW287066   3.086   1.283   9.474  0.3573 -0.6393  0.0087
60070SOL     OW87067   2.217   5.532   4.054  0.3710 -0.0249 -0.3113
60070SOL    HW187068   2.158   5.608   4.061  0.4068  0.0580 -0.8322
60070SOL    HW287069   2.189   5.488   3.973  0.6081 -0.3473 -0.2189
60071SOL     OW87070  11.892  10.572   0.484  0.2572 -0.8952 -0.6962
60071SOL    HW187071  11.936  10.656   0.470 -1.1611  0.2343  1.1659
60071SOL    HW287072  11.820  10.572   0.420 -2.4968  1.4925  2.0471
60072SOL     OW87073   6.690   2.373   9.237  0.2763  0.0515  0.7357
60072SOL    HW187074   6.665   2.432   9.309 -1.2047 -1.5178  1.5890
60072SOL    HW287075   6.609   2.358   9.188  0.7880 -0.6391  0.0635
60073SOL     OW87076   8.975  11.051   5.968  0.7562 -0.3154  0.2329
60073SOL    HW187077   8.928  10.971   5.991 -0.7282  0.3013 -0.5359
60073SOL    HW287078   8.929  11.120   6.016  2.2825  0.0586  1.2277
60074SOL     OW87079   7.977   6.789  12.563  0.5231  0.4608 -0.0933
60074SOL    HW187080   7.968   6.825  12.652 -0.5274  1.0474 -0.4186
60074SOL    HW287081   7.935   6.703  12.568 -1.4659  1.3514 -0.5010
60075SOL     OW87082  10.831  11.152   4.477 -0.2863  0.2760  0.3308
60075SOL    HW187083  10.780  11.176   4.400 -0.2104 -1.2736 -0.2419
60075SOL    HW287084  10.903  11.214   4.480 -0.2783  0.3296 -0.8727
60076SOL     OW87085  11.490   5.897   6.944  0.2867  0.5128 -0.3538
60076SOL    HW187086  11.463   5.983   6.911  0.5645  0.5742 -0.4264
60076SOL    HW287087  11.545   5.861   6.874 -0.5399 -0.1017 -0.7074
60077SOL     OW87088  11.414   1.656   3.595  0.2156  0.2316 -0.2218
60077SOL    HW187089  11.417   1.564   3.621 -0.6063  0.3909  0.4697
60077SOL    HW287090  11.439   1.704   3.674  0.0537  0.6289 -0.4117
60078SOL     OW87091   0.349   7.258   8.268  0.1004  0.0810  0.0833
60078SOL    HW187092   0.436   7.222   8.254 -0.3726 -0.9841 -0.2295
60078SOL    HW287093   0.334   7.317   8.194  0.4661  0.1088  0.0310
60079SOL     OW87094   8.617  12.252   4.946 -0.2658  0.3214 -0.3707
60079SOL    HW187095   8.536  12.299   4.927 -0.2791  0.5277  0.1893
60079SOL    HW287096   8.687  12.312   4.917 -0.3027  0.3281 -0.4468
60080SOL     OW87097   7.852   6.352  11.749  0.0765  0.1633  0.5919
60080SOL    HW187098   7.940   6.389  11.745 -0.0474  0.5058  0.9963
60080SOL    HW287099   7.831   6.330  11.658  1.0158 -0.9682  0.6267
60081SOL     OW87100   2.088   0.257   2.804 -0.1766  0.2171  0.0524
60081SOL    HW187101   2.167   0.306   2.782 -0.3919  0.7996  0.5432
60081SOL    HW287102   2.110   0.166   2.782 -0.0318  0.6069 -1.5567
60082SOL     OW87103   0.571   0.089  10.708 -0.4595 -0.6413  0.4648
60082SOL    HW187104   0.539   0.090  10.798 -1.2489 -0.7589  0.1915
60082SOL    HW287105   0.585  -0.004  10.690  1.2094 -0.5237  0.9745
60083SOL     OW87106   9.244  10.445   9.789 -0.7003  0.5010 -0.7900
60083SOL    HW187107   9.236  10.414   9.880 -0.9664 -0.4628 -1.1308
60083SOL    HW287108   9.305  10.384   9.749  0.0365  1.3910 -1.0680
60084SOL     OW87109   8.790   0.793   3.537 -0.0560 -0.1505 -0.3403
60084SOL    HW187110   8.872   0.803   3.585  0.1418  0.4171 -0.7880
60084SOL    HW287111   8.807   0.723   3.474 -0.0960 -0.4061 -0.0746
60085SOL     OW87112   8.070   9.323   0.440  0.0246 -0.3942  0.0244
60085SOL    HW187113   8.033   9.352   0.356 -1.0860  2.2510  1.3147
60085SOL    HW287114   8.154   9.367   0.445 -0.6513  0.8239  0.9988
60086SOL     OW87115   7.297  10.018  11.292 -0.5354 -0.3896 -0.1140
60086SOL    HW187116   7.211   9.979  11.301 -0.3968 -0.4218  1.1549
60086SOL    HW287117   7.340  10.005  11.376 -0.3255  2.0779  0.2605
60087SOL     OW87118  12.177   7.131   9.906  0.3445 -0.0794  0.7907
60087SOL    HW187119  12.122   7.138   9.828  1.5293 -0.1260 -0.0785
60087SOL    HW287120  12.117   7.104   9.976 -1.0408  1.4478  0.2623
60088SOL     OW87121   3.967  10.423   9.743 -0.0279  0.0792  0.2085
60088SOL    HW187122   3.881  10.423   9.701  0.2942  2.8169 -0.6547
60088SOL    HW287123   4.028  10.449   9.674  1.1433  0.4034  1.3167
60089SOL     OW87124   8.177   8.015   1.488 -0.3114 -0.8671 -0.1958
60089SOL    HW187125   8.266   7.983   1.502  0.1380 -0.0915 -1.1656
60089SOL    HW287126   8.147   8.044   1.574 -0.6505 -3.5972  0.6852
60090SOL     OW87127   9.561   7.016   1.050 -0.0280 -0.2867 -0.3840
60090SOL    HW187128   9.648   6.983   1.071 -0.3013 -0.6430  0.2184
60090SOL    HW287129   9.573   7.110   1.038  0.6738 -0.5046 -1.6492
60091SOL     OW87130   7.150   8.884   4.364  0.3934 -0.3397 -0.5120
60091SOL    HW187131   7.129   8.801   4.405 -2.2039  0.3232 -0.3316
60091SOL    HW287132   7.192   8.936   4.433  1.9910 -1.4144 -0.6199
60092SOL     OW87133   6.284   5.017   6.943 -0.4477  0.7032 -0.0903
60092SOL    HW187134   6.354   4.955   6.965  1.0833  2.5171  0.3905
60092SOL    HW287135   6.204   4.974   6.974  0.5089 -1.1183  0.0101
60093SOL     OW87136   0.826   4.240   7.551 -0.1237 -0.0993 -0.6914
60093SOL    HW187137   0.860   4.211   7.635 -1.1666  0.9724  0.1436
60093SOL    HW287138   0.736   4.206   7.548 -0.0378 -0.2740 -1.4434
60094SOL     OW87139   4.952   0.311   6.632  0.1360  0.1135 -0.6459
60094SOL    HW187140   4.973   0.279   6.720  0.0083  2.3968  0.2757
60094SOL    HW287141   4.867   0.272   6.612  0.3789 -0.8012  0.0503
60095SOL     OW87142   8.772   1.895   5.598 -0.1046  0.7437 -0.0464
60095SOL    HW187143   8.799   1.940   5.518  0.1277  0.8375  0.0844
60095SOL    HW287144   8.693   1.847   5.573  1.3794 -1.3082 -1.0096
60096SOL     OW87145   1.534   1.452   0.569 -0.1008  0.6511 -0.3339
60096SOL    HW187146   1.557   1.544   0.555  2.1800  0.2689  0.5668
60096SOL    HW287147   1.515   1.446   0.663 -0.0503  0.1565 -0.3557
60097SOL     OW87148   4.294   0.228   4.385  0.0856  0.2451  0.3534
60097SOL    HW187149   4.273   0.225   4.291  0.8587 -0.8295  0.2019
60097SOL    HW287150   4.365   0.292   4.391  1.5005 -1.2253 -0.1187
60098SOL     OW87151   8.600   1.166   4.823  0.4446 -0.2058 -0.3302
60098SOL    HW187152   8.515   1.124   4.833  0.7009 -0.3821  1.5130
60098SOL    HW287153   8.663   1.094   4.822  0.6501 -0.0249 -0.5701
60099SOL     OW87154   8.284   4.106  11.388  0.2870  0.3328  0.0497
60099SOL    HW187155   8.349   4.174  11.406  0.7316 -0.0147 -0.2150
60099SOL    HW287156   8.212   4.151  11.345  1.1517  0.4279 -1.3585
60100SOL     OW87157   3.275  10.350   4.208  0.5254  0.6305 -0.2096
60100SOL    HW187158   3.257  10.335   4.301  0.1981  0.7649 -0.2474
60100SOL    HW287159   3.367  10.376   4.205  0.5950  0.4256  0.0542
60101SOL     OW87160   4.375  12.069   2.947 -0.2031  0.1797  0.3808
60101SOL    HW187161   4.307  12.118   2.900 -1.5147 -1.3364  0.6174
60101SOL    HW287162   4.327  12.010   3.004  1.3449 -0.4876  1.0420
60102SOL     OW87163   3.422   1.474   1.764 -0.1719 -0.0969 -0.3844
60102SOL    HW187164   3.367   1.442   1.693  0.5545 -1.2564 -0.4442
60102SOL    HW287165   3.509   1.484   1.725 -0.2684  1.5258 -0.2420
60103SOL     OW87166   3.706   7.563   3.472 -0.4620 -0.1570  0.2643
60103SOL    HW187167   3.796   7.586   3.447 -0.5866  0.5665  0.4590
60103SOL    HW287168   3.703   7.580   3.566 -1.5517  2.4364 -0.1602
60104SOL     OW87169   2.528   0.647   1.041  0.6359 -0.2390  0.3155
60104SOL    HW187170   2.479   0.726   1.064 -0.3299 -0.8153  0.2953
60104SOL    HW287171   2.531   0.648   0.946 -0.8475 -1.0765  0.2400
60105SOL     OW87172   7.781  11.901   1.463 -0.3016 -0.1912  0.2521
60105SOL    HW187173   7.779  11.994   1.484 -2.2493 -0.3704  1.0429
60105SOL    HW287174   7.693  11.882   1.432  0.7191 -1.2815 -2.3103
60106SOL     OW87175   7.711   7.094   4.015 -0.6054 -0.4539 -0.0033
60106SOL    HW187176   7.735   7.184   3.994 -3.0256  0.3634  0.4448
60106SOL    HW287177   7.673   7.060   3.934 -1.7188 -0.2938  0.4321
60107SOL     OW87178   2.341  10.637   2.821 -0.3170  0.2055 -0.3978
60107SOL    HW187179   2.269  10.583   2.853 -1.1799  0.6895 -1.4966
60107SOL    HW287180   2.335  10.717   2.873 -0.3133  0.0906 -0.2161
60108SOL     OW87181  11.226   7.399   5.459  0.2054 -0.2316  0.2165
60108SOL    HW187182  11.233   7.485   5.420  0.3140 -0.4530 -0.2521
60108SOL    HW287183  11.140   7.367   5.432  0.2511 -0.3567  0.2145
60109SOL     OW87184   1.559   2.025  10.444  0.1757  0.4527  0.0433
60109SOL    HW187185   1.489   1.966  10.414 -1.8079  2.5509  0.2781
60109SOL    HW287186   1.623   2.023  10.373 -1.2580  0.2526 -1.3065
60110SOL     OW87187  11.229   6.713  11.582 -0.0007 -0.6299  0.2734
60110SOL    HW187188  11.178   6.756  11.513 -1.0742  0.1640  1.5143
60110SOL    HW287189  11.209   6.620  11.573 -0.5122 -0.4816 -0.1749
60111SOL     OW87190   4.096   7.698   0.380  0.2239  0.1232 -0.0020
60111SOL    HW187191   4.067   7.608   0.368 -0.1911  0.1926  0.4661
60111SOL    HW287192   4.042   7.732   0.451  0.1169  0.8564 -0.4187
60112SOL     OW87193  11.330   4.344  11.566  0.6382 -0.0328  0.0601
60112SOL    HW187194  11.388   4.421  11.565  0.3164  0.2454 -1.7385
60112SOL    HW287195  11.382   4.275  11.524 -0.4970  0.4269 -2.2810
60113SOL     OW87196   2.039   9.710   6.589 -0.1448  0.6172 -0.0136
60113SOL    HW187197   2.018   9.693   6.681  0.0857 -0.4599 -0.1514
60113SOL    HW287198   2.109   9.648   6.569 -1.3162 -0.3207 -1.3801
60114SOL     OW87199   0.193   9.344   7.998  0.8712  0.3299  0.1175
60114SOL    HW187200   0.186   9.436   8.024  0.0737  0.1046  0.7771
60114SOL    HW287201   0.156   9.341   7.910 -0.3368  0.4471  0.5962
60115SOL     OW87202   5.978  12.037   5.503  0.0015 -0.2018 -0.1316
60115SOL    HW187203   5.883  12.051   5.497  0.1478  0.4518 -1.0083
60115SOL    HW287204   6.000  11.989   5.423  0.3531 -0.7203  0.2713
60116SOL     OW87205   1.647  12.203  11.288  0.3716  0.2317  0.0721
60116SOL    HW187206   1.674  12.115  11.262 -0.4203  0.0466 -0.1294
60116SOL    HW287207   1.726  12.256  11.276  0.5436 -0.2214 -0.9055
60117SOL     OW87208   6.812   2.945   2.766  0.0026  0.2117 -0.4234
60117SOL    HW187209   6.774   2.992   2.840  2.4069  0.4395  0.7625
60117SOL    HW287210   6.815   3.009   2.695 -0.4185  0.6160 -0.0797
60118SOL     OW87211   2.570   1.161  10.220  0.3125  0.0164  0.4221
60118SOL    HW187212   2.567   1.066  10.207  3.0004  0.1689 -2.8898
60118SOL    HW287213   2.575   1.196  10.131 -3.3253  3.5842  1.3496
60119SOL     OW87214  11.784   5.557   7.094  0.5051 -0.5729  0.1820
60119SOL    HW187215  11.740   5.483   7.136 -3.1708  2.2410  1.7692
60119SOL    HW287216  11.722   5.588   7.028  2.2968  0.6705 -1.0064
60120SOL     OW87217   8.483   0.339   3.271 -0.2359  0.0878  0.4626
60120SOL    HW187218   8.391   0.344   3.245 -0.2105 -1.9628 -0.1365
60120SOL    HW287219   8.497   0.248   3.296  2.4403 -0.5542 -2.6834
60121SOL     OW87220   6.220   3.003   8.707  0.2656  0.4447  0.1507
60121SOL    HW187221   6.144   2.950   8.729  0.0855  0.8071  0.4066
60121SOL    HW287222   6.248   3.042   8.790 -0.7348  2.2342 -0.3071
60122SOL     OW87223  11.956  10.595   1.149 -0.4306 -0.3758 -0.6955
60122SOL    HW187224  11.886  10.613   1.086 -1.3604  1.8382  0.8506
60122SOL    HW287225  11.912  10.590   1.234  1.1155 -0.3761  0.1448
60123SOL     OW87226   3.272   5.203   0.175 -0.0157  0.0534  0.3763
60123SOL    HW187227   3.243   5.131   0.231 -1.2873  0.4687  0.3031
60123SOL    HW287228   3.190   5.237   0.138  0.5955  1.3318  0.1764
60124SOL     OW87229   0.525   7.666   9.671  0.2658 -0.0483  0.4930
60124SOL    HW187230   0.543   7.612   9.594 -0.5810  0.8632 -0.3773
60124SOL    HW287231   0.443   7.630   9.706 -0.9064  1.2924 -0.7327
60125SOL     OW87232   1.835   2.511   1.802 -0.3120 -0.0825 -0.1441
60125SOL    HW187233   1.893   2.454   1.752 -0.2139  1.3603 -1.7574
60125SOL    HW287234   1.797   2.570   1.737 -1.0545  1.1470  1.3377
60126SOL     OW87235   5.003   0.860   9.573  0.3421  0.0750  0.1217
60126SOL    HW187236   5.080   0.857   9.517 -0.3786  1.4990 -1.0366
60126SOL    HW287237   4.929   0.847   9.513 -0.4231  1.0139  0.8218
60127SOL     OW87238   2.256  12.503   5.263  0.2590 -0.0136 -0.6840
60127SOL    HW187239   2.315  12.560   5.214  0.4949  0.5886  0.2745
60127SOL    HW287240   2.210  12.562   5.323  0.2566 -0.7816  0.0872
60128SOL     OW87241   8.535   4.276  12.382  0.4628  0.4285  0.0435
60128SOL    HW187242   8.600   4.228  12.433  0.2071  0.9601  0.8973
60128SOL    HW287243   8.584   4.315  12.310  0.6722 -1.1017 -0.6814
60129SOL     OW87244   1.815   3.156   8.380  0.4027 -0.1986 -0.1528
60129SOL    HW187245   1.750   3.128   8.315  0.0938 -0.2880  0.1929
60129SOL    HW287246   1.879   3.085   8.381 -0.8703 -1.3864  1.4058
60130SOL     OW87247   6.292  12.466   0.713 -0.1437  0.8016  0.2721
60130SOL    HW187248   6.311  12.495   0.803  2.2659  1.0492 -0.2389
60130SOL    HW287249   6.325  12.376   0.710  0.3123  0.9841 -0.4930
60131SOL     OW87250   7.639   1.258   8.793  0.1626  0.1151 -0.1896
60131SOL    HW187251   7.579   1.332   8.789  2.2728  1.8756 -0.7712
60131SOL    HW287252   7.713   1.289   8.845  1.6508 -1.1699 -1.4361
60132SOL     OW87253   4.953   7.775   4.928 -0.0212 -0.6565 -0.1125
60132SOL    HW187254   5.006   7.697   4.947  0.2350 -0.8679 -1.5445
60132SOL    HW287255   4.864   7.750   4.953  0.2873 -0.8669  0.8228
60133SOL     OW87256   8.792   5.432   5.480  0.3747  0.2297  0.0899
60133SOL    HW187257   8.841   5.471   5.552  1.4400 -1.0519  0.0974
60133SOL    HW287258   8.779   5.505   5.418  0.5090  1.0561  1.0126
60134SOL     OW87259   3.315  10.236  11.977  0.5697 -0.5032 -0.6235
60134SOL    HW187260   3.298  10.147  11.944  1.2398 -1.2803  1.0318
60134SOL    HW287261   3.393  10.265  11.929  1.4017 -1.5299  0.0569
60135SOL     OW87262  10.839   9.403   0.878 -0.2138 -0.1800 -0.3520
60135SOL    HW187263  10.821   9.457   0.955 -1.3449 -0.5764 -0.3215
60135SOL    HW287264  10.754   9.390   0.838  0.4432  0.7049 -2.1550
60136SOL     OW87265   5.919  11.091   0.944 -0.3286 -0.0294 -0.1790
60136SOL    HW187266   6.007  11.127   0.955 -0.0300 -0.6601 -0.4527
60136SOL    HW287267   5.872  11.118   1.023 -0.1671  1.0882 -0.4439
60137SOL     OW87268   4.524   1.653   6.644 -0.0147 -0.7683 -0.8332
60137SOL    HW187269   4.513   1.638   6.738 -2.4355  1.3516 -0.6573
60137SOL    HW287270   4.618   1.647   6.629  0.3442 -2.1382  1.5209
60138SOL     OW87271   9.742  10.427  10.608  1.1002  0.3223 -0.2688
60138SOL    HW187272   9.791  10.411  10.528  0.3946 -0.0498 -0.6378
60138SOL    HW287273   9.650  10.419  10.582  0.8175  1.4835  0.2955
60139SOL     OW87274   4.417   3.874   5.756  0.0261 -0.2572  0.6325
60139SOL    HW187275   4.413   3.819   5.677  1.2714 -0.1055  0.4483
60139SOL    HW287276   4.389   3.960   5.726 -2.7548 -0.8985  1.0949
60140SOL     OW87277   5.154  12.142   7.651  0.0907 -0.1294 -0.9972
60140SOL    HW187278   5.103  12.066   7.679 -0.2418  0.3064 -0.3989
60140SOL    HW287279   5.241  12.127   7.687 -0.3308  0.4286  0.3427
60141SOL     OW87280   0.586   7.524   1.994  1.0135 -0.2888  0.8637
60141SOL    HW187281   0.668   7.478   2.015  0.8388 -0.9767  0.1007
60141SOL    HW287282   0.578   7.516   1.899 -1.2514 -2.5811  1.1272
60142SOL     OW87283   3.449   0.907   1.986  0.0997  0.4581  0.2689
60142SOL    HW187284   3.357   0.907   1.960  0.4638  0.0641 -1.0889
60142SOL    HW287285   3.457   0.980   2.048 -1.1016  0.5330  0.3465
60143SOL     OW87286   1.210   4.914   9.137  0.0414  0.2037 -0.2216
60143SOL    HW187287   1.296   4.880   9.110  0.2465  1.9829 -2.0669
60143SOL    HW287288   1.218   4.924   9.232  1.3992 -0.8817 -0.1740
60144SOL     OW87289   5.671   9.802  12.046  0.9730  0.4833 -0.5027
60144SOL    HW187290   5.607   9.756  12.099  1.8592  0.7191  0.8271
60144SOL    HW287291   5.627   9.883  12.020  0.0858 -0.2143 -1.2316
60145SOL     OW87292   8.022  11.471   1.860  0.0134  0.2103  0.4477
60145SOL    HW187293   7.999  11.450   1.769 -0.4987  1.5676  0.2260
60145SOL    HW287294   8.117  11.461   1.864  0.0491  0.2103 -0.2692
60146SOL     OW87295   1.095   4.760   2.760 -0.1796 -0.2415 -0.4024
60146SOL    HW187296   1.176   4.757   2.810 -1.4747 -1.7263  1.7894
60146SOL    HW287297   1.099   4.843   2.712  2.5745 -0.2739 -0.3659
60147SOL     OW87298  12.158   8.799  11.941  0.2114  0.2451 -0.0795
60147SOL    HW187299  12.181   8.735  11.873 -1.6935  1.2404 -1.7678
60147SOL    HW287300  12.215   8.874  11.923 -0.1032  0.4045 -0.4301
60148SOL     OW87301   3.871  12.571   0.429 -0.1577  0.1242 -0.5553
60148SOL    HW187302   3.803  12.623   0.386  0.9435  0.8276 -1.5215
60148SOL    HW287303   3.933  12.635   0.463  0.4286 -0.5132 -0.3876
60149SOL     OW87304  11.086   7.078   3.177  0.5550 -0.1664 -0.2520
60149SOL    HW187305  11.020   7.103   3.242  0.5598 -0.4498 -0.1367
60149SOL    HW287306  11.166   7.064   3.229  0.7216  0.2371 -0.3980
60150SOL     OW87307   1.779   9.761   6.558  0.1664  0.2340 -0.3932
60150SOL    HW187308   1.870   9.734   6.541 -0.0665 -0.5448 -0.4310
60150SOL    HW287309   1.726   9.701   6.506 -0.3972  0.3342  0.0580
60151SOL     OW87310   1.491   1.880   9.037 -0.8638  0.9462 -0.8607
60151SOL    HW187311   1.546   1.958   9.030 -0.9241  1.0292 -0.4453
60151SOL    HW287312   1.521   1.823   8.966  0.1981  0.7263 -0.2563
60152SOL     OW87313   3.183   6.300   6.714  0.2155 -0.2792 -0.0699
60152SOL    HW187314   3.143   6.384   6.740  0.0015 -0.7493  1.1808
60152SOL    HW287315   3.115   6.235   6.730  0.1685 -0.6576 -1.6050
60153SOL     OW87316   5.055   8.426   7.167  0.0972 -0.2204  0.3620
60153SOL    HW187317   4.965   8.415   7.136 -0.1820 -1.9302  1.6394
60153SOL    HW287318   5.092   8.493   7.109 -0.6586 -2.4476 -2.9735
60154SOL     OW87319  11.800   1.019  11.416  0.0745 -0.1378 -0.4273
60154SOL    HW187320  11.708   1.039  11.430  0.1241 -0.5814  0.6445
60154SOL    HW287321  11.844   1.104  11.418 -0.2729  0.0464 -0.6296
60155SOL     OW87322   2.882   1.093   0.229  0.1586 -0.6168 -0.3477
60155SOL    HW187323   2.956   1.045   0.266  0.2583  1.2220  2.1063
60155SOL    HW287324   2.895   1.183   0.258 -1.8131  0.2361 -1.8672
60156SOL     OW87325   1.723   2.864   7.119  0.6393 -0.1747  0.5083
60156SOL    HW187326   1.815   2.878   7.142  1.0345  2.0487 -1.9702
60156SOL    HW287327   1.707   2.923   7.045 -2.2734 -1.9109 -0.4259
60157SOL     OW87328   6.884   3.704   8.139 -0.3272  0.1982  0.0975
60157SOL    HW187329   6.849   3.769   8.199 -1.4816  0.2422 -0.6059
60157SOL    HW287330   6.895   3.751   8.056  0.5049 -0.0649  0.0420
60158SOL     OW87331  12.004   9.071  12.091  0.1798 -0.0468  0.9261
60158SOL    HW187332  12.065   9.011  12.135 -0.6882 -0.5631  1.4597
60158SOL    HW287333  11.918   9.034  12.109 -0.2593  0.3486 -0.3116
60159SOL     OW87334   6.054   5.318   3.459 -0.6524  0.6068 -0.4348
60159SOL    HW187335   6.094   5.232   3.448 -1.1881  0.3835 -0.6823
60159SOL    HW287336   6.125   5.374   3.490 -0.3827 -0.0043  0.0667
60160SOL     OW87337  10.207   4.753   8.154  0.3299  0.1514  0.1803
60160SOL    HW187338  10.249   4.755   8.240  0.3699  0.3503  0.1567
60160SOL    HW287339  10.272   4.791   8.095  1.5811 -2.7753 -0.5123
60161SOL     OW87340   3.904   6.443   3.959  0.8787 -0.1167  0.4943
60161SOL    HW187341   3.948   6.523   3.987  1.4643 -0.4159  0.4504
60161SOL    HW287342   3.892   6.453   3.865 -1.2832  0.9838  0.8180
60162SOL     OW87343   7.498  10.268   5.243 -0.0725 -0.6277 -0.2055
60162SOL    HW187344   7.495  10.205   5.171 -2.2481  1.2011 -1.8792
60162SOL    HW287345   7.408  10.275   5.273  0.6792 -0.8209  2.3279
60163SOL     OW87346   2.122   7.373   3.777 -0.1531 -0.0711  0.0592
60163SOL    HW187347   2.151   7.290   3.740  1.0230  0.7621 -0.9678
60163SOL    HW287348   2.033   7.384   3.745  0.3286 -0.0769 -1.3132
60164SOL     OW87349   7.470   2.148   9.587  0.3384  0.0795 -0.1116
60164SOL    HW187350   7.378   2.172   9.601  0.5746 -0.0305  1.9593
60164SOL    HW287351   7.504   2.216   9.529 -0.7404  0.8267  0.1110
60165SOL     OW87352   9.426   2.844   4.899 -0.4219 -0.5881 -0.6582
60165SOL    HW187353   9.370   2.878   4.830 -1.9642 -2.4243 -0.4094
60165SOL    HW287354   9.416   2.749   4.893  0.9242 -0.8647  0.8586
60166SOL     OW87355   1.684   4.411  10.786 -0.3762  0.1718 -0.1839
60166SOL    HW187356   1.664   4.319  10.769  1.1864 -0.3127  0.3890
60166SOL    HW287357   1.780   4.415  10.785 -0.3656  1.4358  1.5731
60167SOL     OW87358  10.684   4.300  11.622 -0.6670 -0.1195 -0.3582
60167SOL    HW187359  10.736   4.298  11.541 -0.0499 -0.0949  0.0381
60167SOL    HW287360  10.599   4.332  11.594 -0.8939 -1.4003 -1.2612
60168SOL     OW87361   1.515   8.486   3.218 -0.0133  0.2401 -0.5272
60168SOL    HW187362   1.450   8.453   3.156 -1.5679  0.5870  0.8591
60168SOL    HW287363   1.571   8.410   3.236 -1.1770 -0.5983 -0.3441
60169SOL     OW87364   2.890   1.383  12.483  0.3716  1.0036 -0.1545
60169SOL    HW187365   2.804   1.403  12.521  1.2362  1.9954  1.3962
60169SOL    HW287366   2.949   1.445  12.525  1.6801  1.1192 -2.0433
60170SOL     OW87367   3.832   9.442   0.330  0.3071 -0.0909  0.3540
60170SOL    HW187368   3.807   9.374   0.393  2.5132  0.1800  1.6164
60170SOL    HW287369   3.752   9.461   0.282 -0.5249 -3.2170  0.2970
60171SOL     OW87370   6.299   8.698   1.033  0.0850  0.3505 -0.1666
60171SOL    HW187371   6.350   8.754   1.092  0.8025  1.0822 -1.4269
60171SOL    HW287372   6.213   8.740   1.028  0.8600  1.8729 -1.7342
60172SOL     OW87373   4.961   5.178  10.727  0.1560 -0.3830 -0.1878
60172SOL    HW187374   4.943   5.138  10.643  0.0873 -2.1583  0.6329
60172SOL    HW287375   4.920   5.265  10.722 -1.2355 -1.0791 -1.3839
60173SOL     OW87376  10.465   9.506   7.753 -0.0884  0.3651 -0.0758
60173SOL    HW187377  10.558   9.514   7.775  0.6350  0.6005 -2.8593
60173SOL    HW287378  10.456   9.417   7.718 -0.4924  0.8981 -1.4072
60174SOL     OW87379   4.299  10.999   4.802  0.3247 -0.6289 -0.2855
60174SOL    HW187380   4.315  11.022   4.893 -0.1067 -1.5411  0.0342
60174SOL    HW287381   4.382  10.963   4.771  0.3332 -0.7489 -0.1216
60175SOL     OW87382   5.658   5.138   9.779  0.0660 -0.2252  0.3621
60175SOL    HW187383   5.644   5.065   9.839 -0.4344 -1.0451 -0.7127
60175SOL    HW287384   5.607   5.116   9.702  0.3581  1.0030 -0.2138
60176SOL     OW87385   4.875  12.068   6.238  0.0108 -0.1881  0.4892
60176SOL    HW187386   4.928  12.144   6.261  1.2230 -1.1612  1.0267
60176SOL    HW287387   4.833  12.042   6.320 -0.8916  0.2585  0.1769
60177SOL     OW87388  11.148   3.958   4.156  0.4291  0.0492 -0.3947
60177SOL    HW187389  11.073   3.923   4.107  0.3049 -2.4776  1.3850
60177SOL    HW287390  11.221   3.955   4.094 -0.1727 -0.9897 -1.0850
60178SOL     OW87391   9.878   9.880   3.197  0.5022  0.1256 -0.1346
60178SOL    HW187392   9.845   9.969   3.207 -0.5052  0.6145 -5.2641
60178SOL    HW287393   9.808   9.824   3.231 -1.3854  1.3231 -1.8489
60179SOL     OW87394   0.141   9.026   8.460  0.2950  0.3861 -0.0986
60179SOL    HW187395   0.130   9.022   8.365  0.3235 -0.1777 -0.0819
60179SOL    HW287396   0.143   9.120   8.480 -0.8664  0.5086 -0.5119
60180SOL     OW87397   0.510   2.080   9.847 -0.5748 -0.3091 -0.0053
60180SOL    HW187398   0.544   2.081   9.937 -0.7359 -0.6847  0.0623
60180SOL    HW287399   0.578   2.036   9.797 -0.3426  0.1866 -0.1270
60181SOL     OW87400   8.031   1.152   8.671 -0.4511  0.4483 -0.7756
60181SOL    HW187401   8.057   1.121   8.584 -0.6210 -1.0870 -0.3176
60181SOL    HW287402   8.010   1.072   8.719 -0.2071  1.2603  0.7369
60182SOL     OW87403   9.075   1.344   5.004 -0.3187  0.1354  0.3183
60182SOL    HW187404   9.049   1.435   4.992 -1.7889 -0.4196 -1.1108
60182SOL    HW287405   9.013   1.294   4.951  0.6653 -1.6810  0.7836
60183SOL     OW87406   2.354  11.769   5.879  0.6467 -0.4378  0.4284
60183SOL    HW187407   2.352  11.763   5.975 -1.3238 -0.5749  0.4299
60183SOL    HW287408   2.280  11.826   5.858  1.4537  0.1270 -1.0005
60184SOL     OW87409   9.424   5.840   1.544  0.4312  0.3930  0.0104
60184SOL    HW187410   9.365   5.765   1.532 -2.6042  2.5554  0.2544
60184SOL    HW287411   9.431   5.878   1.457  2.4798 -0.4306 -0.2372
60185SOL     OW87412   7.173   9.388   5.507 -0.5921 -0.2495  0.4416
60185SOL    HW187413   7.246   9.448   5.493 -0.5080  0.3413  2.9952
60185SOL    HW287414   7.150   9.358   5.419  1.7476  0.6768 -0.5767
60186SOL     OW87415   7.549   3.926   8.639 -0.0043 -0.0227 -0.1131
60186SOL    HW187416   7.567   3.838   8.605  2.4566  0.0348  0.8073
60186SOL    HW287417   7.575   3.984   8.568  2.4018  0.0030  0.6721
60187SOL     OW87418   6.083   4.023   1.230 -0.5378 -0.1449 -0.3019
60187SOL    HW187419   6.093   4.117   1.241 -1.2566 -0.1936  0.9149
60187SOL    HW287420   6.023   3.996   1.299  1.0472 -1.7848  0.5204
60188SOL     OW87421   9.434   1.624   9.066  0.2542  0.4800  0.2982
60188SOL    HW187422   9.397   1.671   9.141  1.3798 -0.9459  1.8170
60188SOL    HW287423   9.396   1.668   8.989  0.8983  3.5691  1.5796
60189SOL     OW87424  12.224   4.204   4.716  1.0594 -0.5517 -0.2517
60189SOL    HW187425  12.208   4.291   4.753  2.4745 -0.6399  0.6527
60189SOL    HW287426  12.300   4.215   4.659  0.4401 -0.9466 -1.1755
60190SOL     OW87427   4.853  10.345   1.435 -0.4464 -0.1736  0.3111
60190SOL    HW187428   4.803  10.281   1.385 -0.7554  0.7405 -0.5919
60190SOL    HW287429   4.936  10.300   1.454 -1.8508 -2.0174  2.5903
60191SOL     OW87430   9.305   6.210   4.562 -0.4696  0.7118  0.2329
60191SOL    HW187431   9.268   6.295   4.542  0.5177  0.5827 -2.5921
60191SOL    HW287432   9.302   6.162   4.479 -0.8903 -1.9930  1.6953
60192SOL     OW87433   7.451   9.178   6.781  0.1318 -1.0500  0.0447
60192SOL    HW187434   7.492   9.171   6.695  2.1275 -1.0786  0.9505
60192SOL    HW287435   7.409   9.093   6.794  1.8355 -1.9260  0.0624
60193SOL     OW87436   0.829   6.144   1.851  0.4533 -0.5920  0.2923
60193SOL    HW187437   0.787   6.187   1.925  3.3155 -0.9770  2.3005
60193SOL    HW287438   0.833   6.052   1.876 -0.5043 -1.1407 -1.4086
60194SOL     OW87439   4.699   5.583  12.121 -0.1112  0.1935 -0.3808
60194SOL    HW187440   4.764   5.647  12.089  1.0939 -0.8248 -0.0621
60194SOL    HW287441   4.640   5.635  12.176  1.0673  0.9848  0.1933
60195SOL     OW87442   4.727  10.813   6.318 -0.0743 -0.1399  0.2032
60195SOL    HW187443   4.658  10.865   6.359  0.8688  1.5756 -0.2949
60195SOL    HW287444   4.797  10.811   6.383 -0.4326 -1.5951  0.5753
60196SOL     OW87445   7.536   3.960   2.857 -0.4155  0.1206  0.3463
60196SOL    HW187446   7.497   3.917   2.933  1.8320 -2.5752  0.1494
60196SOL    HW287447   7.609   4.011   2.893  0.5963 -1.0894  0.0832
60197SOL     OW87448   1.375   1.827   6.952  0.1478 -0.1873  0.7637
60197SOL    HW187449   1.321   1.750   6.937  1.2476 -1.0083  0.8655
60197SOL    HW287450   1.317   1.901   6.938 -0.4564 -0.9984 -1.3023
60198SOL     OW87451   0.507   9.038   4.996  0.8632 -0.2703  0.1298
60198SOL    HW187452   0.579   9.005   4.942  0.5561  1.8332 -1.6959
60198SOL    HW287453   0.550   9.095   5.060  1.0656 -1.4650  1.0959
60199SOL     OW87454   1.419   2.157   8.486 -0.2542  0.1218 -0.2338
60199SOL    HW187455   1.466   2.200   8.414 -0.3520  0.2752 -0.2072
60199SOL    HW287456   1.444   2.065   8.480 -1.3214 -0.1251 -1.3126
60200SOL     OW87457   2.497   8.086   3.095 -0.3109 -0.3373 -0.3102
60200SOL    HW187458   2.590   8.073   3.111 -0.4707 -3.1888 -1.1437
60200SOL    HW287459   2.453   8.021   3.150 -1.7306  0.1696 -0.7932
60201SOL     OW87460   2.010   9.134   5.258  0.0221 -0.0005 -0.1777
60201SOL    HW187461   2.086   9.165   5.307  0.2410 -1.8715  0.7672
60201SOL    HW287462   2.004   9.193   5.183  0.3914  2.2282  1.4391
60202SOL     OW87463   9.958   9.635   3.873  0.2800 -0.1014 -0.0828
60202SOL    HW187464   9.995   9.547   3.864  0.2221 -0.1024 -0.3203
60202SOL    HW287465   9.909   9.648   3.792 -0.2043 -0.0845  0.2084
60203SOL     OW87466   5.780   9.318   3.165 -0.0634 -0.3722  0.1593
60203SOL    HW187467   5.845   9.388   3.174 -0.6753  0.1928  0.2772
60203SOL    HW287468   5.716   9.336   3.234 -0.7187 -0.5128 -0.4046
60204SOL     OW87469   2.264  11.185   2.294 -0.0721  0.7934  0.3674
60204SOL    HW187470   2.313  11.104   2.295 -1.1984  0.0589 -0.6490
60204SOL    HW287471   2.183  11.165   2.341 -0.5505  1.1813 -0.2634
60205SOL     OW87472   8.415   7.803   0.917 -0.1343  0.1161  0.0839
60205SOL    HW187473   8.453   7.887   0.894  1.1594  0.1020  1.9777
60205SOL    HW287474   8.405   7.805   1.012  2.7117 -2.8945  0.6398
60206SOL     OW87475   4.789   5.955   1.455  0.3171 -0.5001  0.1113
60206SOL    HW187476   4.698   5.929   1.449  0.4939 -1.4060  1.1586
60206SOL    HW287477   4.836   5.875   1.478  1.2778  0.1036  0.3127
60207SOL     OW87478   8.161   0.827   9.490 -0.3863 -0.0434 -0.2829
60207SOL    HW187479   8.154   0.733   9.505 -1.5832 -0.1141 -1.0894
60207SOL    HW287480   8.234   0.856   9.544  1.3680 -1.7808 -1.6147
60208SOL     OW87481   9.003   4.839   5.682  0.1671  0.0628 -0.3866
60208SOL    HW187482   8.946   4.892   5.626 -1.0070 -0.0722  0.6126
60208SOL    HW287483   9.037   4.771   5.625  0.3626  0.9078 -1.3068
60209SOL     OW87484  11.895   3.019  11.513 -0.0657 -0.7163 -0.2794
60209SOL    HW187485  11.902   3.050  11.423 -2.9736 -0.7619 -0.6220
60209SOL    HW287486  11.860   2.931  11.505 -0.7484 -0.5658  0.8948
60210SOL     OW87487   7.020   4.241  12.561  0.1128 -0.1356 -0.1210
60210SOL    HW187488   6.934   4.204  12.582 -0.4504  0.9012 -0.5220
60210SOL    HW287489   7.049   4.281  12.643  0.3503 -0.7211  0.0884
60211SOL     OW87490   2.992   1.365   2.691 -0.3965 -0.1576  0.2296
60211SOL    HW187491   2.961   1.310   2.618 -0.6210 -0.8858  0.8563
60211SOL    HW287492   3.057   1.423   2.651 -1.5494  0.4528 -0.8378
60212SOL     OW87493   6.528   6.503   6.347 -0.1866 -0.4127 -0.5819
60212SOL    HW187494   6.531   6.428   6.286 -0.5850 -2.0084  1.2577
60212SOL    HW287495   6.435   6.526   6.351 -0.4374 -1.5183  0.7457
60213SOL     OW87496  10.884  10.438   9.656  0.1143  0.1567  0.3998
60213SOL    HW187497  10.917  10.410   9.741  1.2290  1.5685  0.4741
60213SOL    HW287498  10.861  10.357   9.612  2.4197 -0.8638  0.8860
60214SOL     OW87499   1.878  10.377  11.765 -0.3838  0.3619  0.3529
60214SOL    HW187500   1.854  10.399  11.854 -0.4332  2.6011 -0.1746
60214SOL    HW287501   1.934  10.449  11.735  0.0092 -0.5485 -1.2870
60215SOL     OW87502   6.980   4.935   8.659  0.1848 -0.0640 -0.7002
60215SOL    HW187503   7.072   4.957   8.671  0.1709  0.1591 -0.9925
60215SOL    HW287504   6.974   4.842   8.681  0.5697 -0.1963 -1.1614
60216SOL     OW87505  10.871   9.354  10.226  0.0308  0.0041 -0.1042
60216SOL    HW187506  10.844   9.434  10.273  1.1792  0.3865 -0.0818
60216SOL    HW287507  10.927   9.308  10.288 -0.1723 -0.5578 -0.3306
60217SOL     OW87508   8.523   3.731   4.000  0.4857 -0.6007 -0.0704
60217SOL    HW187509   8.487   3.801   3.946 -0.5109  0.6422  2.0325
60217SOL    HW287510   8.550   3.775   4.081  0.7939 -2.5000  0.9229
60218SOL     OW87511   5.028   6.279   6.287  0.8022  0.4670 -0.0534
60218SOL    HW187512   5.064   6.291   6.375 -1.1839  2.0659  0.6141
60218SOL    HW287513   4.957   6.344   6.280  0.2778 -0.2412 -2.4964
60219SOL     OW87514   7.938   2.100   4.850 -0.5407  0.0082  1.1686
60219SOL    HW187515   7.962   2.192   4.860 -0.7750  0.3522 -0.9706
60219SOL    HW287516   8.021   2.053   4.850 -0.2299  0.5065  0.0486
60220SOL     OW87517   0.981   5.658   1.260 -0.2881  0.0508 -0.0019
60220SOL    HW187518   0.940   5.684   1.342  2.1650  0.6318  1.1319
60220SOL    HW287519   1.075   5.670   1.275  0.2581  0.1148 -2.8742
60221SOL     OW87520   6.485   7.565   5.193 -0.5866  0.2109  0.0099
60221SOL    HW187521   6.541   7.565   5.115 -2.0199 -1.2332 -1.0910
60221SOL    HW287522   6.518   7.491   5.245 -1.6736 -0.9249 -0.8520
60222SOL     OW87523  12.019  11.981   8.378  0.3702 -0.3111  1.1090
60222SOL    HW187524  12.053  11.990   8.289  0.2667  0.1545  1.1119
60222SOL    HW287525  12.094  11.998   8.434 -0.1858  2.6110  1.1513
60223SOL     OW87526   9.814   5.634   5.227 -0.5609 -0.0832 -0.4161
60223SOL    HW187527   9.849   5.653   5.314 -2.0781  1.0416 -0.0090
60223SOL    HW287528   9.825   5.716   5.179 -1.7476 -0.0031 -0.5705
60224SOL     OW87529  11.879   7.501   1.245  0.2568  0.1023 -0.0677
60224SOL    HW187530  11.905   7.592   1.229 -0.6245  0.0992 -1.8665
60224SOL    HW287531  11.814   7.483   1.176  0.7331 -2.0180 -0.0258
60225SOL     OW87532  10.222   1.911   2.842  0.0775 -0.2091  0.3192
60225SOL    HW187533  10.226   1.821   2.810  2.3947 -0.3497  0.8533
60225SOL    HW287534  10.134   1.919   2.880 -0.4796 -1.9532 -0.5140
60226SOL     OW87535   9.215   5.414  10.899  0.0170  0.2621 -0.0295
60226SOL    HW187536   9.298   5.448  10.865  0.2384 -0.8763 -0.6781
60226SOL    HW287537   9.149   5.450  10.840  0.3729 -1.4489 -1.5690
60227SOL     OW87538   9.495   6.144   0.193 -0.0798 -0.0160  0.3741
60227SOL    HW187539   9.524   6.060   0.228  0.2869  0.7394  1.9382
60227SOL    HW287540   9.547   6.210   0.239 -2.3890  1.2466  1.4077
60228SOL     OW87541   5.406   2.387   0.397  1.1717  0.3059  0.1379
60228SOL    HW187542   5.428   2.367   0.488 -0.4673  0.2213  0.5512
60228SOL    HW287543   5.374   2.478   0.400  1.3573  0.3884 -0.3918
60229SOL     OW87544   1.446   0.163   3.671  0.0429  0.2231 -0.0203
60229SOL    HW187545   1.489   0.084   3.639 -0.4845  0.1034 -0.4226
60229SOL    HW287546   1.519   0.224   3.688  0.6266 -0.9084  1.9454
60230SOL     OW87547   1.844   3.174  11.385 -0.6445 -0.0139 -0.0788
60230SOL    HW187548   1.875   3.085  11.370  0.7914  0.3107  0.7348
60230SOL    HW287549   1.871   3.194  11.474 -1.4832  1.0327 -0.0379
60231SOL     OW87550  11.008   1.576   9.904 -0.5092 -0.2111  0.2088
60231SOL    HW187551  10.932   1.592   9.961  0.7382  0.8456  1.6776
60231SOL    HW287552  11.055   1.505   9.947  0.4656  0.6149  0.5304
60232SOL     OW87553   6.118   4.900   5.389 -0.3008  0.3880 -0.2156
60232SOL    HW187554   6.031   4.897   5.349 -0.5190 -0.3501  0.2978
60232SOL    HW287555   6.116   4.832   5.456  0.2576  1.1880  0.6454
60233SOL     OW87556   2.918   8.491   0.561 -0.1920 -0.4353  0.4985
60233SOL    HW187557   3.005   8.530   0.553  0.7710 -2.7517 -1.5967
60233SOL    HW287558   2.882   8.530   0.641  2.9583  0.1978  1.7645
60234SOL     OW87559   9.241  11.537   8.783 -0.6516  0.1905 -0.0482
60234SOL    HW187560   9.271  11.475   8.717 -0.3614 -0.3739  0.6016
60234SOL    HW287561   9.151  11.559   8.757 -1.0091 -1.0343  0.0801
60235SOL     OW87562   6.863   8.438   9.545 -0.0459  0.3950 -0.6654
60235SOL    HW187563   6.844   8.522   9.502  0.2742  0.4565 -0.6909
60235SOL    HW287564   6.920   8.461   9.618  1.9967 -0.0236 -2.0130
60236SOL     OW87565   7.254   8.254   4.719 -0.4246  0.1860  0.4367
60236SOL    HW187566   7.216   8.167   4.704 -0.9975  0.3696  0.7682
60236SOL    HW287567   7.346   8.245   4.697 -0.3315 -0.6904  1.1814
60237SOL     OW87568   6.301   2.608   6.461  0.1746  0.5256  0.2688
60237SOL    HW187569   6.236   2.658   6.510  1.4709  0.7570  1.8549
60237SOL    HW287570   6.348   2.558   6.528 -0.5328 -2.2538 -1.1690
60238SOL     OW87571  10.252   8.977   6.103  0.5294  0.0809  0.6471
60238SOL    HW187572  10.244   9.061   6.148  0.0625  0.1395  0.4661
60238SOL    HW287573  10.161   8.950   6.089  0.6522 -1.2357  2.1415
60239SOL     OW87574   0.125   9.331  12.418  0.3405  0.2898  0.3899
60239SOL    HW187575   0.098   9.417  12.387 -2.3680 -1.1202 -1.5513
60239SOL    HW287576   0.092   9.326  12.508 -0.3466  0.9421  0.1827
60240SOL     OW87577  12.191   0.904   1.224  0.1348  0.2006  0.3798
60240SOL    HW187578  12.159   0.922   1.135 -1.0301 -1.2037  0.4775
60240SOL    HW287579  12.247   0.827   1.213  4.4246  3.0482  0.0724
60241SOL     OW87580   9.517   9.739   0.826  0.1415  0.4552 -0.4758
60241SOL    HW187581   9.475   9.733   0.741  1.5217  0.3953 -1.1813
60241SOL    HW287582   9.609   9.716   0.810  0.9066  2.4229  0.6296
60242SOL     OW87583   4.239   1.146   6.399 -0.1100  0.4692  0.2827
60242SOL    HW187584   4.246   1.162   6.493  0.2940  0.7277  0.2110
60242SOL    HW287585   4.194   1.062   6.392  0.5068  0.1022  0.7178
60243SOL     OW87586  10.598   9.188   7.420 -0.5099  0.2613 -0.6415
60243SOL    HW187587  10.650   9.250   7.472  1.8582 -0.4650 -1.9913
60243SOL    HW287588  10.507   9.212   7.438  0.2390  1.5872  1.8998
60244SOL     OW87589   8.480   0.706   5.628 -0.0445 -0.7925  0.5818
60244SOL    HW187590   8.509   0.797   5.622 -0.2517 -0.7649 -0.0646
60244SOL    HW287591   8.398   0.709   5.677  0.3880 -0.7313  1.3163
60245SOL     OW87592   5.193   7.587  12.266  0.0953  0.6775  0.5208
60245SOL    HW187593   5.230   7.513  12.316  0.5586  0.4976 -0.0779
60245SOL    HW287594   5.157   7.645  12.333 -1.3250 -0.6323  0.9453
60246SOL     OW87595   8.854   9.980   7.271 -0.1468 -0.6517 -0.7585
60246SOL    HW187596   8.797   9.943   7.203 -2.2865  0.2067  0.4842
60246SOL    HW287597   8.941   9.977   7.232 -1.0607 -1.6465 -2.9281
60247SOL     OW87598   0.029   2.952   1.636 -0.4703 -0.1105  0.0822
60247SOL    HW187599   0.068   3.005   1.705  0.1578 -0.0892 -0.2788
60247SOL    HW287600  -0.054   2.995   1.616 -0.3853  0.2124  0.4198
60248SOL     OW87601  10.801   8.338   2.909  0.2271  0.0088 -0.5951
60248SOL    HW187602  10.860   8.391   2.963 -0.4116  0.2825 -0.1469
60248SOL    HW287603  10.846   8.254   2.899  0.4483  0.0176  0.2058
60249SOL     OW87604   8.171   9.751   7.301 -0.0094  0.2974 -0.1937
60249SOL    HW187605   8.132   9.748   7.214  2.0080 -1.9625 -1.1334
60249SOL    HW287606   8.248   9.694   7.295 -0.3561 -0.7941  3.3617
60250SOL     OW87607   2.188   5.108   3.990 -0.3668  0.1519  0.0670
60250SOL    HW187608   2.100   5.089   4.023 -1.4986  0.1922 -2.6666
60250SOL    HW287609   2.225   5.022   3.970  0.2782  0.1363  1.1932
60251SOL     OW87610  10.069   9.839   7.218 -0.1980 -0.1741 -0.0099
60251SOL    HW187611  10.163   9.856   7.220  0.0131 -1.2742  0.1248
60251SOL    HW287612  10.050   9.795   7.301 -0.4034 -1.9496 -0.9505
60252SOL     OW87613   9.348   5.745   9.800  0.4767  0.9256 -0.2441
60252SOL    HW187614   9.314   5.683   9.865  0.3322  1.0585 -0.1940
60252SOL    HW287615   9.414   5.695   9.753  0.4263  0.7594 -0.1417
60253SOL     OW87616   4.716   4.117   2.529  0.4239 -0.2853  0.1524
60253SOL    HW187617   4.802   4.156   2.545  0.3398 -1.1247  3.4291
60253SOL    HW287618   4.733   4.022   2.530 -0.5228 -0.4652  1.0808
60254SOL     OW87619  11.143   3.424   7.288  0.4328 -0.3474  0.2314
60254SOL    HW187620  11.149   3.356   7.221 -0.5209  0.0578 -0.2911
60254SOL    HW287621  11.062   3.404   7.336 -0.1203  0.6514 -0.2292
60255SOL     OW87622   3.848   7.675   8.540 -0.5290 -0.2685 -0.6428
60255SOL    HW187623   3.772   7.731   8.555 -1.1657 -0.8413 -1.6535
60255SOL    HW287624   3.836   7.642   8.451 -0.3821 -2.3040  0.0516
60256SOL     OW87625   2.003   2.326   5.103  0.2596  0.3693 -0.5492
60256SOL    HW187626   2.025   2.234   5.120  1.1799  0.9040  1.4820
60256SOL    HW287627   2.081   2.362   5.060  0.2066  0.3855 -0.6323
60257SOL     OW87628   8.818   3.763   1.950  0.4440 -0.3874 -0.1648
60257SOL    HW187629   8.852   3.679   1.919  1.3283 -0.1333  0.0708
60257SOL    HW287630   8.869   3.780   2.030  1.4005  1.1097 -1.0541
60258SOL     OW87631   0.097   6.495  11.455 -0.1990  0.2527 -0.0035
60258SOL    HW187632   0.033   6.549  11.501  0.5608  0.8612  0.3566
60258SOL    HW287633   0.093   6.523  11.364  0.8317  1.5850  0.3304
60259SOL     OW87634   9.784  10.602  10.807  0.5815 -0.0402  0.1681
60259SOL    HW187635   9.770  10.538  10.738 -0.7607 -0.2706  0.6290
60259SOL    HW287636   9.847  10.664  10.770  1.3334 -1.1996 -0.5544
60260SOL     OW87637   6.113   6.236   4.954  0.3645 -0.4222  0.6138
60260SOL    HW187638   6.120   6.270   5.043 -0.9918 -0.8048  0.8879
60260SOL    HW287639   6.019   6.222   4.941  0.4522  0.3739 -1.1552
60261SOL     OW87640   7.341   0.612   0.853  0.0548  0.3335  0.2970
60261SOL    HW187641   7.394   0.642   0.926  1.4890 -1.0098 -0.1505
60261SOL    HW287642   7.329   0.518   0.868 -2.1057  0.5537  0.3037
60262SOL     OW87643   8.100   8.347   4.274 -0.5075 -0.0776  0.0054
60262SOL    HW187644   8.076   8.375   4.362 -2.3442  1.1294 -0.8237
60262SOL    HW287645   8.047   8.401   4.215 -0.1390 -1.5790 -1.8311
60263SOL     OW87646   9.042   1.078   2.523 -0.4662 -0.2339  0.1941
60263SOL    HW187647   9.107   1.102   2.589 -0.7858  1.1124  0.0412
60263SOL    HW287648   9.012   1.161   2.487  0.8105 -0.9275 -2.7712
60264SOL     OW87649   7.503   7.732   4.666  0.3247 -0.6688  0.2621
60264SOL    HW187650   7.543   7.668   4.607 -1.9206 -0.3016 -1.7987
60264SOL    HW287651   7.418   7.694   4.689 -0.3399  0.8064  0.3639
60265SOL     OW87652  10.749   5.707   2.255 -0.3011  0.4405 -1.1090
60265SOL    HW187653  10.732   5.617   2.281  0.3820  0.5689 -0.1474
60265SOL    HW287654  10.681   5.758   2.298  1.4927  0.7899  1.5516
60266SOL     OW87655   5.107   1.032   4.815  0.8442  0.0460  0.4778
60266SOL    HW187656   5.186   1.023   4.869  0.8343 -0.7405  0.3785
60266SOL    HW287657   5.036   1.038   4.879  0.9980  1.0518  0.5732
60267SOL     OW87658   5.500   6.139   4.568  0.1530  0.3559  0.0308
60267SOL    HW187659   5.421   6.088   4.587  1.1937 -1.2676  0.2567
60267SOL    HW287660   5.505   6.142   4.473 -0.0585  0.2377  0.0163
60268SOL     OW87661   3.913   8.550  11.062  0.8185  0.5974  0.1812
60268SOL    HW187662   3.896   8.460  11.090 -0.0543  0.9602  0.8328
60268SOL    HW287663   3.835   8.576  11.012  0.4665  1.4417  1.1361
60269SOL     OW87664   5.792   7.445   1.328 -0.6139  0.4187 -0.1109
60269SOL    HW187665   5.725   7.494   1.377 -0.8509  0.8741 -0.8772
60269SOL    HW287666   5.833   7.389   1.394 -1.4451  0.4636  0.4618
60270SOL     OW87667   8.929   7.531  10.532 -0.2959  0.4143 -0.1898
60270SOL    HW187668   8.861   7.469  10.506 -0.6654  0.2296  1.1474
60270SOL    HW287669   8.991   7.478  10.583  0.9994  0.5301 -1.5695
60271SOL     OW87670  11.685   2.085   0.770  0.3446  0.1831 -0.2042
60271SOL    HW187671  11.642   2.003   0.793  1.4042 -0.6301 -0.9979
60271SOL    HW287672  11.758   2.059   0.715  0.1290  1.7486 -1.3004
60272SOL     OW87673   7.560   9.469   6.127  0.8143  0.2202  0.5276
60272SOL    HW187674   7.472   9.485   6.091  1.3092  0.8001 -0.4424
60272SOL    HW287675   7.588   9.387   6.086  1.0537  0.4583  0.2162
60273SOL     OW87676   7.407  11.907   2.154 -0.9841  0.1094  0.1488
60273SOL    HW187677   7.406  11.964   2.076 -3.1426 -0.7366 -0.5107
60273SOL    HW287678   7.330  11.934   2.204 -0.7274 -0.6956  0.9932
60274SOL     OW87679   7.767   8.633   7.824  0.1864  0.4496 -0.8014
60274SOL    HW187680   7.693   8.636   7.885  0.1456  0.8320 -0.8650
60274SOL    HW287681   7.728   8.638   7.737  0.2814  0.6475 -0.8349
60275SOL     OW87682   9.761   8.502  11.281 -0.7929 -0.4021 -0.4137
60275SOL    HW187683   9.734   8.590  11.256 -0.6341 -0.2683 -0.1264
60275SOL    HW287684   9.821   8.516  11.355  0.1213 -0.6806 -1.0772
60276SOL     OW87685   3.371   7.516   0.213 -0.2368 -0.4106 -0.5578
60276SOL    HW187686   3.286   7.500   0.173  0.7669  0.0774 -3.0917
60276SOL    HW287687   3.365   7.604   0.250 -0.6231 -0.0817 -1.3818
60277SOL     OW87688  11.872   6.591   6.160 -0.2850  0.2534  0.3835
60277SOL    HW187689  11.948   6.605   6.217  0.3818 -1.2040 -0.0933
60277SOL    HW287690  11.806   6.652   6.192  0.0159 -0.5895  2.8013
60278SOL     OW87691   4.142   8.965   8.841 -0.1018  0.2330 -0.5030
60278SOL    HW187692   4.112   8.875   8.828 -3.1772  1.2315 -1.3204
60278SOL    HW287693   4.229   8.957   8.880  0.1391 -3.0514 -1.4431
60279SOL     OW87694   6.839   0.821   9.004  0.3871 -0.6420 -0.4592
60279SOL    HW187695   6.867   0.745   9.055  0.5714 -0.8532 -0.8740
60279SOL    HW287696   6.904   0.828   8.934  1.3651  0.9238  0.5543
60280SOL     OW87697   1.009   8.849   8.598  0.6539 -0.0494 -0.3784
60280SOL    HW187698   0.949   8.802   8.656  0.0780  1.0441 -0.0683
60280SOL    HW287699   1.096   8.830   8.634  0.3234  0.3961  0.7054
60281SOL     OW87700   5.686   7.185   9.291  0.1837  0.7110 -0.0511
60281SOL    HW187701   5.666   7.212   9.380  0.7643 -0.3971  0.4422
60281SOL    HW287702   5.602   7.187   9.245 -0.5432 -0.7851  1.1117
60282SOL     OW87703   7.599   4.888   3.372  0.3515  0.4523  0.4952
60282SOL    HW187704   7.629   4.962   3.426 -1.1054 -0.2774  2.4249
60282SOL    HW287705   7.646   4.812   3.406  1.7386  0.3869 -1.3917
60283SOL     OW87706   3.985  11.272   9.329 -0.7599 -0.1127 -0.1791
60283SOL    HW187707   4.038  11.344   9.295  0.6986 -0.5591  1.0507
60283SOL    HW287708   3.961  11.300   9.417 -1.7444 -0.3700 -0.3470
60284SOL     OW87709   3.032   6.833  12.544  0.1307  0.6279 -0.1714
60284SOL    HW187710   3.053   6.747  12.507 -2.8059 -0.4755  0.4594
60284SOL    HW287711   3.035   6.819  12.639 -0.1703  1.2957 -0.0626
60285SOL     OW87712   1.561   8.918   4.912  0.4239  0.0247  0.3317
60285SOL    HW187713   1.589   8.876   4.993  1.5230  0.4452  0.1921
60285SOL    HW287714   1.575   9.011   4.927 -0.2348  0.1872 -0.0188
60286SOL     OW87715   7.642   9.161   9.229  0.3678 -0.2237 -0.4227
60286SOL    HW187716   7.708   9.221   9.263 -0.4639  0.9885 -0.8791
60286SOL    HW287717   7.592   9.212   9.166  2.1584 -2.5150 -3.9987
60287SOL     OW87718   7.515   4.259   4.619 -0.6117  0.3588 -0.4407
60287SOL    HW187719   7.500   4.314   4.696  0.0456  0.2525 -0.2246
60287SOL    HW287720   7.505   4.319   4.544 -1.3416  0.4410 -0.2795
60288SOL     OW87721   7.769   0.133   1.288  0.1149 -0.4477 -0.0147
60288SOL    HW187722   7.776   0.229   1.297  0.6622 -0.4952  0.1524
60288SOL    HW287723   7.840   0.100   1.344 -0.0407 -0.9507 -0.1165
60289SOL     OW87724  11.731   4.701   8.347 -0.4784 -0.0595  0.5905
60289SOL    HW187725  11.809   4.725   8.296 -0.7682 -1.1076 -0.3833
60289SOL    HW287726  11.765   4.646   8.418 -0.3387 -0.5812  0.1221
60290SOL     OW87727   8.917   0.834   6.739 -0.0341  0.3911 -0.2701
60290SOL    HW187728   8.913   0.776   6.816 -2.2246  2.6999  1.5345
60290SOL    HW287729   8.830   0.827   6.700 -0.2069  2.0872 -0.2474
60291SOL     OW87730   5.449   9.355   8.637 -0.1261  0.1498 -0.1386
60291SOL    HW187731   5.514   9.424   8.624  0.8589 -0.4362  1.4059
60291SOL    HW287732   5.491   9.276   8.605 -0.5437 -0.0352 -0.2355
60292SOL     OW87733   5.426   8.836   4.762  0.5116 -0.6727 -0.2606
60292SOL    HW187734   5.501   8.816   4.818 -0.0681  0.9451  1.1699
60292SOL    HW287735   5.349   8.823   4.818 -0.4529 -3.4840 -2.0341
60293SOL     OW87736   8.896   9.183   0.110 -0.0117 -0.2319  0.0551
60293SOL    HW187737   8.868   9.260   0.060 -0.6349 -0.7407 -0.3982
60293SOL    HW287738   8.950   9.133   0.049  2.6548  1.1218  1.1541
60294SOL     OW87739   5.583   5.873   2.659  0.1809  0.0291  0.4062
60294SOL    HW187740   5.629   5.831   2.732  1.1898  1.7196  0.7762
60294SOL    HW287741   5.638   5.856   2.583 -0.2496 -0.6759  0.2362
60295SOL     OW87742   4.200   2.910   9.280  0.3269 -0.3288 -0.3327
60295SOL    HW187743   4.266   2.846   9.309 -0.6465 -0.7549  1.0203
60295SOL    HW287744   4.152   2.865   9.211 -0.7475 -1.3487  1.0216
60296SOL     OW87745  12.555   6.779  10.672  0.4135 -0.0533  0.5681
60296SOL    HW187746  12.645   6.803  10.690  0.0318  1.3649  0.7388
60296SOL    HW287747  12.555   6.683  10.671  2.1915 -0.0938 -0.8805
60297SOL     OW87748   9.079   7.449   8.075 -0.1700  0.1855 -0.0714
60297SOL    HW187749   9.020   7.508   8.122 -2.4286 -2.2632  0.4253
60297SOL    HW287750   9.071   7.365   8.120 -1.5819 -2.0339 -3.9391
60298SOL     OW87751   2.441   8.564   6.101  0.3779  0.3097 -0.0152
60298SOL    HW187752   2.489   8.491   6.141 -0.5486 -0.6022 -0.5175
60298SOL    HW287753   2.412   8.617   6.174  0.9255  0.0895  0.3693
60299SOL     OW87754   2.673   8.806   0.107  0.8692  0.7997  0.0848
60299SOL    HW187755   2.660   8.719   0.070 -0.0796  0.2356  1.6230
60299SOL    HW287756   2.687   8.863   0.032 -0.8992 -0.2733 -1.1279
60300SOL     OW87757   2.417   9.532   5.170  0.3722 -0.6748 -0.1045
60300SOL    HW187758   2.462   9.448   5.165  0.7662 -0.5365  0.8995
60300SOL    HW287759   2.373   9.541   5.085  1.0008 -1.5034 -0.5292
60301SOL     OW87760   7.236   1.632  10.400 -0.3997  0.2963 -0.8209
60301SOL    HW187761   7.206   1.705  10.454 -1.1345 -0.7539  0.2519
60301SOL    HW287762   7.265   1.672  10.318 -1.0336  1.7434 -0.3621
60302SOL     OW87763   7.994   0.613   6.783 -0.0580  0.4201 -0.2005
60302SOL    HW187764   8.004   0.591   6.691  0.5283  0.4115 -0.1349
60302SOL    HW287765   8.024   0.536   6.831  0.3385  0.6993  0.0066
60303SOL     OW87766   1.778   4.083   6.206  0.9129 -0.4567  0.1306
60303SOL    HW187767   1.726   4.149   6.250  1.0352  0.1552 -0.6195
60303SOL    HW287768   1.845   4.058   6.270 -0.6307 -1.7013  1.3390
60304SOL     OW87769   4.391  10.393   0.177  0.3967 -0.0767  0.8066
60304SOL    HW187770   4.362  10.307   0.206  2.6387 -0.2436  2.9026
60304SOL    HW287771   4.347  10.455   0.235  1.2189 -0.0645  1.4316
60305SOL     OW87772  11.685   4.411  10.320  0.0287  0.3561 -0.2961
60305SOL    HW187773  11.755   4.373  10.268  0.1762 -2.1298  1.5224
60305SOL    HW287774  11.606   4.401  10.266  0.4934 -0.1874 -0.8819
60306SOL     OW87775   9.375  11.036   1.348 -0.0758 -0.4647 -0.1689
60306SOL    HW187776   9.402  10.944   1.343  0.7638 -0.2479  0.1321
60306SOL    HW287777   9.450  11.084   1.312 -0.2122  0.1393  0.3469
60307SOL     OW87778   3.704  11.682   9.345 -0.1001  0.3364 -0.3814
60307SOL    HW187779   3.629  11.666   9.288  0.4126 -2.3202 -0.4150
60307SOL    HW287780   3.676  11.651   9.431  0.3881  0.9291 -0.0015
60308SOL     OW87781   1.030   4.286   9.377 -0.1346  0.2791  0.3469
60308SOL    HW187782   1.122   4.309   9.383  0.3751 -0.6338 -2.5818
60308SOL    HW287783   0.988   4.362   9.336 -0.6925  0.6315  1.5286
60309SOL     OW87784   6.462  12.131   4.135  0.3996 -0.0628 -0.0065
60309SOL    HW187785   6.488  12.041   4.151  0.3267 -0.2105 -0.6845
60309SOL    HW287786   6.409  12.155   4.212 -0.6477 -1.0255 -0.4074
60310SOL     OW87787   6.911   0.379  11.152  0.3677 -0.6430  0.6641
60310SOL    HW187788   6.871   0.324  11.219 -1.3226  0.0506  0.2611
60310SOL    HW287789   6.991   0.332  11.128  0.2967 -1.6022  2.1455
60311SOL     OW87790   9.488  10.263   8.022  0.3669  0.5666  0.3174
60311SOL    HW187791   9.539  10.203   7.968  1.4365  0.5859  1.2793
60311SOL    HW287792   9.547  10.288   8.093 -0.4446  1.8749  0.5602
60312SOL     OW87793   7.458   6.854   0.048  0.1388 -0.0018 -0.2966
60312SOL    HW187794   7.533   6.851   0.108  0.7757  1.2833 -1.0023
60312SOL    HW287795   7.479   6.790  -0.020  1.1479  1.1369 -1.0923
60313SOL     OW87796  11.045   7.366   0.367  0.1792  0.4869 -0.1691
60313SOL    HW187797  11.064   7.285   0.319  0.2656  1.0912 -1.1856
60313SOL    HW287798  10.951   7.364   0.383 -0.0098  0.7051 -1.1935
60314SOL     OW87799   2.597   6.036  10.134 -0.0467  0.3731  0.2448
60314SOL    HW187800   2.586   5.945  10.108 -2.3569  0.4837  0.5944
60314SOL    HW287801   2.569   6.086  10.058  0.7460  0.7979  0.2229
60315SOL     OW87802  11.880   4.235   5.859  0.6261 -0.0204  0.1949
60315SOL    HW187803  11.927   4.285   5.792  1.3794 -0.0079  0.7238
60315SOL    HW287804  11.948   4.208   5.921 -0.1333  0.4904  1.2834
60316SOL     OW87805   0.164  10.031  10.403 -0.3785  0.0986  0.1062
60316SOL    HW187806   0.191   9.992  10.319 -1.6951 -0.9688  0.1292
60316SOL    HW287807   0.084  10.079  10.382 -1.1388 -0.7867  0.8449
60317SOL     OW87808   9.951   9.912   2.166 -0.8477 -0.0784  0.5889
60317SOL    HW187809   9.980   9.970   2.096 -0.7197  0.4795  1.0956
60317SOL    HW287810   9.955   9.824   2.128 -0.3485  0.1748  0.0414
60318SOL     OW87811  10.685  11.519   1.698 -0.1197 -0.2233 -0.2607
60318SOL    HW187812  10.733  11.459   1.755 -0.3684 -0.9768 -0.8341
60318SOL    HW287813  10.666  11.595   1.754 -1.5797 -1.5124  1.0882
60319SOL     OW87814   0.692   8.816   2.030 -0.3963 -0.6933 -0.1264
60319SOL    HW187815   0.637   8.759   1.976  2.3847 -0.3282 -3.6783
60319SOL    HW287816   0.751   8.756   2.076 -1.3249 -0.8787  0.8781
60320SOL     OW87817  12.324   4.605  11.836  0.3731 -0.5959  0.0979
60320SOL    HW187818  12.316   4.674  11.902  1.1557  0.8061 -1.2096
60320SOL    HW287819  12.408   4.563  11.856 -0.6827 -2.0881  1.6761
60321SOL     OW87820   0.251   6.594   5.246  0.1038  0.2818 -0.4374
60321SOL    HW187821   0.250   6.621   5.338  0.1928 -0.5309 -0.1907
60321SOL    HW287822   0.310   6.656   5.203  1.0412 -0.0821  0.2962
60322SOL     OW87823   3.724  11.102   6.945 -0.7241  0.3534 -0.2958
60322SOL    HW187824   3.720  11.049   6.866  0.6443 -2.3268  1.2537
60322SOL    HW287825   3.818  11.108   6.965 -1.0583 -0.6586  2.0036
60323SOL     OW87826   1.242   4.031  12.023  1.0357  0.8848  0.5184
60323SOL    HW187827   1.283   4.090  12.086  2.1129 -0.8979  1.5916
60323SOL    HW287828   1.221   3.953  12.075 -1.3510  0.7157 -0.5962
60324SOL     OW87829   3.068  10.898   0.456  0.3367  0.0259 -0.5885
60324SOL    HW187830   3.116  10.951   0.392  1.3455 -1.5806 -1.2177
60324SOL    HW287831   3.102  10.926   0.541  1.3101 -0.0277 -0.9455
60325SOL     OW87832   3.308   2.182   2.102  0.5882 -0.0619 -0.0037
60325SOL    HW187833   3.228   2.234   2.092  2.2644  2.7515  0.0081
60325SOL    HW287834   3.311   2.128   2.023 -0.7935  0.5758 -0.5267
60326SOL     OW87835   9.175   8.652   9.592  0.0255  0.2400 -0.2143
60326SOL    HW187836   9.271   8.659   9.588 -0.0393  0.9398 -0.6781
60326SOL    HW287837   9.145   8.741   9.606 -0.6069  0.2052 -1.2387
60327SOL     OW87838  11.210   2.756   1.511  0.1529 -0.1603 -0.3360
60327SOL    HW187839  11.267   2.730   1.583  0.9787  3.2046  0.3520
60327SOL    HW287840  11.162   2.675   1.489  2.0208 -2.0362  1.9231
60328SOL     OW87841   3.897  11.580   6.908 -0.2267  0.5787  0.3111
60328SOL    HW187842   3.975  11.573   6.964  0.6872 -0.9472 -1.0780
60328SOL    HW287843   3.823  11.578   6.969  0.6925 -1.9634  1.4513
60329SOL     OW87844  10.062   3.573  12.287  0.1018 -0.0354 -0.1173
60329SOL    HW187845   9.989   3.635  12.286  1.3182  1.4747  0.8363
60329SOL    HW287846  10.126   3.613  12.345  1.6941 -1.3489 -0.9054
60330SOL     OW87847   2.314  10.105   6.376  0.4854  0.8442  0.7870
60330SOL    HW187848   2.399  10.075   6.343 -0.6136 -0.0981 -1.4412
60330SOL    HW287849   2.329  10.126   6.468  2.7910 -0.6322  0.8102
60331SOL     OW87850   5.515   1.958   2.242  0.0277  0.3637  1.3171
60331SOL    HW187851   5.441   1.927   2.294 -0.7425  1.6671  1.0547
60331SOL    HW287852   5.592   1.939   2.296 -0.2796 -2.4176  0.9423
60332SOL     OW87853  12.510   6.601   8.246 -0.5313  0.1087 -0.4451
60332SOL    HW187854  12.432   6.650   8.271 -0.8852 -0.9833  0.7099
60332SOL    HW287855  12.512   6.527   8.307  1.2275 -0.0680 -0.6680
60333SOL     OW87856   1.259  11.041  10.721  0.8777  0.1358  0.0313
60333SOL    HW187857   1.240  11.130  10.691  1.1133  0.9295  2.0769
60333SOL    HW287858   1.208  11.032  10.801 -0.3060 -2.1446 -0.8805
60334SOL     OW87859   0.953   3.954   1.473 -0.0018 -0.0985  0.6670
60334SOL    HW187860   0.977   3.882   1.414 -0.1150 -2.1660  2.9700
60334SOL    HW287861   1.035   4.001   1.488  0.7845 -1.6047  1.3884
60335SOL     OW87862   8.342   6.049  12.346 -0.6645  0.3121 -0.0680
60335SOL    HW187863   8.306   6.103  12.276  0.7417  1.7030  0.2538
60335SOL    HW287864   8.271   5.987  12.366 -1.2568  0.1491 -2.3891
60336SOL     OW87865   4.784   9.487   6.287  0.5758 -0.1536 -0.4554
60336SOL    HW187866   4.876   9.460   6.286  0.9920  1.1415  0.2897
60336SOL    HW287867   4.758   9.486   6.195  1.2455 -0.7912 -0.6501
60337SOL     OW87868   4.543   5.778  12.275  0.0939 -0.1279  0.6758
60337SOL    HW187869   4.534   5.867  12.240  0.7857  0.1674  1.2127
60337SOL    HW287870   4.594   5.790  12.356 -0.4833 -0.9225  1.1682
60338SOL     OW87871   7.854   5.825   2.709 -0.4180 -0.4210 -0.2300
60338SOL    HW187872   7.915   5.894   2.734  0.3900 -1.0725 -0.3755
60338SOL    HW287873   7.909   5.751   2.686 -1.2530 -0.8299 -0.9587
60339SOL     OW87874   7.351   0.361   1.024 -0.0816 -0.4091 -0.3185
60339SOL    HW187875   7.445   0.340   1.024 -0.1392 -0.8203 -1.9008
60339SOL    HW287876   7.310   0.284   0.983 -1.4280 -1.3470  2.5033
60340SOL     OW87877   2.395   4.494  10.504  0.2187 -0.2824 -0.3310
60340SOL    HW187878   2.324   4.433  10.484  0.0998  0.1365 -1.2077
60340SOL    HW287879   2.362   4.544  10.579 -0.1285 -0.5587 -0.2956
60341SOL     OW87880   5.246  10.965   5.038 -0.0306  0.2000 -0.2778
60341SOL    HW187881   5.201  11.025   5.098 -1.2186  0.1579 -1.0870
60341SOL    HW287882   5.209  10.879   5.057 -0.2795  0.1548 -0.9233
60342SOL     OW87883   5.921   0.335   7.628  0.5702 -0.4224 -0.1786
60342SOL    HW187884   5.872   0.282   7.692  1.4696 -0.7637  0.2553
60342SOL    HW287885   5.996   0.280   7.606  3.0295  1.6605  2.3111
60343SOL     OW87886   0.611   7.358  10.820  0.3238  0.2262  0.1026
60343SOL    HW187887   0.594   7.348  10.726  2.5553 -2.0712 -0.1636
60343SOL    HW287888   0.677   7.428  10.825  1.8933 -1.1696 -0.3202
60344SOL     OW87889   9.442   9.378   9.960 -0.5143  0.6913  0.6817
60344SOL    HW187890   9.390   9.449   9.998  1.3686  1.4971  1.9130
60344SOL    HW287891   9.459   9.319  10.034  0.3133  0.4456  0.3022
60345SOL     OW87892   4.662   7.597   0.593 -0.3763 -0.4290 -0.4350
60345SOL    HW187893   4.649   7.678   0.642 -1.0809 -0.3616 -0.7221
60345SOL    HW287894   4.723   7.546   0.647 -0.3944  0.0399  0.0391
60346SOL     OW87895   6.292   3.511  11.612  0.1838  0.4023  1.1701
60346SOL    HW187896   6.368   3.454  11.601 -1.0379 -1.0690 -0.1624
60346SOL    HW287897   6.283   3.519  11.707  0.7358 -1.2140  1.4004
60347SOL     OW87898  11.231   7.915   3.902  0.3962 -0.2979 -0.1541
60347SOL    HW187899  11.243   7.878   3.814 -0.2067 -1.9016  0.4113
60347SOL    HW287900  11.309   7.970   3.915  0.2322  0.4236 -1.8837
60348SOL     OW87901   7.468   6.056   3.474  0.1326 -0.1424 -0.6905
60348SOL    HW187902   7.537   6.042   3.409  0.9397  1.6982 -0.2830
60348SOL    HW287903   7.403   5.987   3.456  1.6094 -1.3194 -1.6889
60349SOL     OW87904  12.358   0.472   0.946 -0.7975 -0.4141  0.5096
60349SOL    HW187905  12.368   0.442   1.037  3.5861  1.0950  0.7687
60349SOL    HW287906  12.278   0.524   0.946 -0.9882 -0.5499  3.4804
60350SOL     OW87907   8.340   0.914   9.668  0.2596 -0.0722 -0.2439
60350SOL    HW187908   8.379   0.998   9.690 -0.2619  0.0281  0.3089
60350SOL    HW287909   8.407   0.849   9.692  0.3077  0.1317  0.1865
60351SOL     OW87910   7.921   9.615   6.869 -0.2215 -0.0340 -0.5137
60351SOL    HW187911   7.890   9.526   6.881 -0.7473  0.2444  0.3056
60351SOL    HW287912   8.004   9.606   6.822 -1.0112 -0.8426 -1.7733
60352SOL     OW87913   9.356   2.430   4.449 -0.1648  0.1646 -0.1573
60352SOL    HW187914   9.369   2.341   4.482 -1.0169  0.2072  0.3325
60352SOL    HW287915   9.261   2.440   4.446 -0.0798  0.7958 -0.9385
60353SOL     OW87916   8.428   6.542   6.195 -0.5316 -0.0689  0.0246
60353SOL    HW187917   8.425   6.531   6.100  0.9139 -1.7620  0.1170
60353SOL    HW287918   8.428   6.637   6.208 -0.8732  0.2041 -1.6434
60354SOL     OW87919   8.590   3.543   6.439  0.0401  0.3356  0.1016
60354SOL    HW187920   8.604   3.635   6.418 -1.1396  0.3669 -0.6773
60354SOL    HW287921   8.677   3.504   6.436  0.5147  1.3658  0.1397
60355SOL     OW87922   8.163   4.610  11.455 -0.3740 -0.0558 -0.0430
60355SOL    HW187923   8.213   4.691  11.456  0.1928 -0.3952 -0.1759
60355SOL    HW287924   8.074   4.635  11.481  0.1823  0.3326  1.5434
60356SOL     OW87925   5.024   9.244   5.539  0.0279  0.2752  0.0352
60356SOL    HW187926   5.015   9.220   5.446  1.3513  0.3912 -0.1353
60356SOL    HW287927   5.077   9.174   5.576  0.5843  0.9028  0.4240
60357SOL     OW87928   4.394   4.815   6.045 -0.2880  0.1695 -0.4412
60357SOL    HW187929   4.339   4.865   5.985  0.4799  1.9074  0.2242
60357SOL    HW287930   4.467   4.874   6.065  0.8015 -1.3315  0.2141
60358SOL     OW87931   2.554   7.705   5.340  0.0611  0.0767  0.7251
60358SOL    HW187932   2.495   7.762   5.291 -0.0416  0.0574  0.8262
60358SOL    HW287933   2.639   7.750   5.336  0.4974 -0.8256 -1.0253
60359SOL     OW87934   3.889   4.142   6.968 -0.0471  0.3913  0.1874
60359SOL    HW187935   3.805   4.097   6.978 -1.6582  3.0964 -0.1366
60359SOL    HW287936   3.936   4.123   7.049 -1.4409 -0.2710  0.8809
60360SOL     OW87937   2.689   2.837   2.209  0.1509 -0.1588  0.0436
60360SOL    HW187938   2.643   2.868   2.131 -0.9724 -1.2681  0.2345
60360SOL    HW287939   2.744   2.911   2.235 -0.5504  0.7484 -0.9561
60361SOL     OW87940  12.190   7.391   5.903  0.5858  0.1598 -0.3034
60361SOL    HW187941  12.225   7.398   5.992  1.1756  2.6881 -0.6584
60361SOL    HW287942  12.103   7.353   5.914 -0.2617  2.4184  1.6604
60362SOL     OW87943   7.454   6.643   3.448  0.0388 -0.4587  0.2296
60362SOL    HW187944   7.413   6.575   3.395 -0.3087 -0.5487  0.6121
60362SOL    HW287945   7.479   6.599   3.529  0.0267 -0.1863  0.3839
60363SOL     OW87946   6.362   8.842   2.420  0.3697 -0.4945 -0.0543
60363SOL    HW187947   6.441   8.815   2.373 -0.4330 -3.3164  0.0093
60363SOL    HW287948   6.291   8.821   2.360 -0.3927  2.7566 -0.4450
60364SOL     OW87949   2.112   4.858   5.952  0.2562 -0.3418  0.0948
60364SOL    HW187950   2.022   4.852   5.919  0.6661 -0.2414 -1.0930
60364SOL    HW287951   2.166   4.835   5.876  1.4241  3.8455 -0.5474
60365SOL     OW87952  12.457   3.469  12.371  0.0857 -0.0328 -0.1814
60365SOL    HW187953  12.406   3.446  12.293  0.3864  0.2075 -0.4507
60365SOL    HW287954  12.536   3.415  12.364  0.0360 -0.1356  0.0461
60366SOL     OW87955   7.759   3.181  12.088 -0.0105 -0.0221  0.2032
60366SOL    HW187956   7.735   3.160  12.178  0.1709  2.1646  0.8208
60366SOL    HW287957   7.854   3.194  12.091 -0.1791  1.4450  0.0493
60367SOL     OW87958   1.262   4.036  11.341 -0.2578 -0.3566 -0.1517
60367SOL    HW187959   1.244   4.118  11.295  1.4005 -0.2840 -0.7519
60367SOL    HW287960   1.275   3.972  11.272  2.0850 -0.2850  0.1311
60368SOL     OW87961   2.977   9.322   0.784  0.0500  0.6771  0.1612
60368SOL    HW187962   2.951   9.244   0.833  0.0221  0.0998 -0.7447
60368SOL    HW287963   2.896   9.369   0.768 -0.3836 -0.6325 -1.8348
60369SOL     OW87964   8.229  10.631  10.608 -0.0518 -1.0551 -0.1270
60369SOL    HW187965   8.292  10.611  10.678  1.5720 -0.7042 -1.4262
60369SOL    HW287966   8.222  10.726  10.608  1.7813 -0.8429 -1.8707
60370SOL     OW87967   0.677   7.956   2.904  0.6074  0.6762 -0.3120
60370SOL    HW187968   0.711   8.012   2.835  0.2839 -0.5965 -1.5374
60370SOL    HW287969   0.684   7.867   2.870 -2.1988  0.2056  0.0875
60371SOL     OW87970   8.998   3.265   0.298 -0.3780  0.0677  0.6716
60371SOL    HW187971   8.988   3.335   0.233  1.0992 -0.9187 -0.6978
60371SOL    HW287972   8.939   3.196   0.268  1.5267 -1.0706 -0.6894
60372SOL     OW87973   7.646   3.359   9.669  0.3273  0.6180  0.5085
60372SOL    HW187974   7.594   3.412   9.608 -1.3066 -1.3148  0.1167
60372SOL    HW287975   7.608   3.378   9.755 -0.2726  0.1071  0.3661
60373SOL     OW87976   5.881   0.629   0.718  0.0538 -0.5088 -0.0163
60373SOL    HW187977   5.972   0.652   0.740  1.1291 -2.4323 -2.0910
60373SOL    HW287978   5.849   0.703   0.667  0.5572  0.0526  0.4705
60374SOL     OW87979   4.773   1.624  11.326  0.2295  0.5428 -0.5412
60374SOL    HW187980   4.838   1.556  11.339 -1.0474 -0.7664 -0.7384
60374SOL    HW287981   4.767   1.668  11.411  0.1656 -0.4259 -0.0322
60375SOL     OW87982   8.346   7.615   8.448  0.0529 -0.1522  0.4237
60375SOL    HW187983   8.317   7.689   8.395  0.8276 -0.2565 -0.1553
60375SOL    HW287984   8.275   7.600   8.510 -0.1311  1.0413  0.5067
60376SOL     OW87985  11.526   9.616   1.014  0.2696  0.1381  0.1533
60376SOL    HW187986  11.529   9.666   1.096 -0.8861  1.3683 -0.5189
60376SOL    HW287987  11.512   9.682   0.946  0.7912 -0.9082 -1.0131
60377SOL     OW87988   2.147   8.555   7.735  0.5245  0.3459  0.2018
60377SOL    HW187989   2.111   8.556   7.824 -1.2584 -0.7543 -0.4456
60377SOL    HW287990   2.154   8.647   7.711 -0.9257  0.6305  0.7653
60378SOL     OW87991   3.254  10.776   8.495  0.7564  0.0143 -0.1858
60378SOL    HW187992   3.209  10.851   8.534 -1.8920 -1.2005 -0.6839
60378SOL    HW287993   3.342  10.808   8.477  0.6985  2.0178  2.4663
60379SOL     OW87994  11.315  12.004   0.643  0.6765  0.2405 -0.9187
60379SOL    HW187995  11.356  12.085   0.612 -0.5340  1.2177 -0.0791
60379SOL    HW287996  11.221  12.023   0.642  0.4366 -0.7548  0.3969
60380SOL     OW87997   8.020   4.390   5.660 -0.6814  0.3998 -0.0606
60380SOL    HW187998   7.988   4.328   5.594 -0.9688  0.0792  0.3795
60380SOL    HW287999   8.109   4.360   5.679 -1.2449 -0.6493  1.0647
60381SOL     OW88000   6.790   1.242   7.273 -0.5661 -0.3250 -0.1368
60381SOL    HW188001   6.815   1.333   7.257 -0.4535 -0.3671 -0.2039
60381SOL    HW288002   6.804   1.199   7.189  0.5093 -0.6593  0.2094
60382SOL     OW88003   5.286   3.661   5.626 -0.3036 -0.2890  0.0890
60382SOL    HW188004   5.256   3.752   5.621  0.8204  0.0693 -0.2231
60382SOL    HW288005   5.228   3.613   5.567  0.0480  0.4837 -0.9057
60383SOL     OW88006   6.187   4.310   2.459 -0.2803 -0.2830 -0.4326
60383SOL    HW188007   6.133   4.242   2.500 -0.9054 -0.8909 -2.1866
60383SOL    HW288008   6.257   4.262   2.415  0.6584  0.3906  0.2780
60384SOL     OW88009  10.756   0.700   0.043 -0.2739 -0.1868 -0.0969
60384SOL    HW188010  10.766   0.605   0.033 -0.5154 -0.1477 -0.8037
60384SOL    HW288011  10.837   0.728   0.087  1.6429 -0.2326 -3.2703
60385SOL     OW88012   9.434   0.696   5.133 -0.1832 -0.0705  0.5364
60385SOL    HW188013   9.437   0.790   5.151 -2.3121  0.3115 -0.7315
60385SOL    HW288014   9.424   0.689   5.038  0.0519 -1.5907  0.5857
60386SOL     OW88015   4.710   5.898  11.422  0.4749  0.3292 -0.2789
60386SOL    HW188016   4.789   5.887  11.475  1.0451  1.2331 -0.9068
60386SOL    HW288017   4.691   5.992  11.427  0.2336  0.3451 -1.2289
60387SOL     OW88018   8.178  12.305   3.895 -0.0568  0.8797 -0.0918
60387SOL    HW188019   8.199  12.226   3.844  0.0676  1.4064 -0.8809
60387SOL    HW288020   8.262  12.331   3.933 -0.6258 -1.1970  2.9386
60388SOL     OW88021   9.879   0.104   1.540 -0.4581 -0.6026  0.3145
60388SOL    HW188022   9.832   0.132   1.619 -0.9370 -2.2008  0.6390
60388SOL    HW288023   9.968   0.137   1.552 -0.1721 -1.8483  2.1722
60389SOL     OW88024   4.822   8.443   1.265  0.4290  1.0267  0.0078
60389SOL    HW188025   4.824   8.512   1.332  0.1091  0.9210  0.1317
60389SOL    HW288026   4.866   8.368   1.306 -2.0380  0.0738  1.1389
60390SOL     OW88027   3.730   3.697   7.782  0.3419 -0.3045  0.1499
60390SOL    HW188028   3.824   3.678   7.778  0.3903 -0.5331  1.6555
60390SOL    HW288029   3.703   3.707   7.691  1.5686 -1.5395 -0.3793
60391SOL     OW88030  11.736   6.888   2.002  0.0434  0.3338  0.8155
60391SOL    HW188031  11.715   6.820   1.938  2.4362  0.5274 -0.2758
60391SOL    HW288032  11.712   6.850   2.086 -1.2904 -0.7264  0.0021
60392SOL     OW88033   0.017   0.316   6.713  0.2709 -0.0946  0.1222
60392SOL    HW188034   0.079   0.377   6.673  0.5568  0.3529  1.2120
60392SOL    HW288035   0.072   0.249   6.755  0.0150 -0.0126  0.6035
60393SOL     OW88036   4.448   3.282   0.306 -0.7222 -0.5784 -0.2100
60393SOL    HW188037   4.373   3.296   0.248  0.7879  0.3687 -2.0694
60393SOL    HW288038   4.505   3.223   0.257  0.9368  0.8099 -0.0510
60394SOL     OW88039   2.973   5.462   5.132 -0.4003 -0.4508 -0.2156
60394SOL    HW188040   2.887   5.486   5.167 -0.3987  2.2959 -1.7523
60394SOL    HW288041   3.026   5.445   5.210 -1.2289  2.1730  1.0663
60395SOL     OW88042   3.152   6.527   3.201 -0.2273  0.2320 -0.3075
60395SOL    HW188043   3.090   6.461   3.229 -0.6035  0.8804  0.4165
60395SOL    HW288044   3.237   6.496   3.235 -0.3469 -0.0345 -0.2496
60396SOL     OW88045   1.930   7.672   2.033 -0.8629  0.2493  1.2437
60396SOL    HW188046   1.843   7.701   2.006 -0.1347  0.8895 -0.5611
60396SOL    HW288047   1.940   7.586   1.993  0.1823  1.1599 -0.6014
60397SOL     OW88048   8.384   0.837  12.513 -0.0864 -0.1493 -0.4155
60397SOL    HW188049   8.302   0.885  12.505  0.7809  1.2763 -1.3548
60397SOL    HW288050   8.450   0.905  12.529  0.9565 -1.2180  0.0160
60398SOL     OW88051   9.712   6.294  11.384  0.1412 -0.1053 -0.0350
60398SOL    HW188052   9.709   6.379  11.429  0.5014 -0.5014  0.7619
60398SOL    HW288053   9.755   6.236  11.447  0.0310 -0.8420 -0.6352
60399SOL     OW88054   9.760   3.228   8.825  0.0738 -0.0756  0.1446
60399SOL    HW188055   9.799   3.313   8.847  1.6550 -0.6087 -0.4415
60399SOL    HW288056   9.672   3.231   8.863 -0.4180  2.3421 -1.0504
60400SOL     OW88057   1.536  11.320   0.660 -0.2196  0.1329  0.1245
60400SOL    HW188058   1.512  11.236   0.700 -0.9196 -0.1951 -0.9236
60400SOL    HW288059   1.548  11.379   0.734  0.4623 -0.9221  0.8976
60401SOL     OW88060   6.636   1.778  12.313 -0.1094  0.0523 -0.0424
60401SOL    HW188061   6.657   1.845  12.377 -0.4543  0.2391 -0.1236
60401SOL    HW288062   6.574   1.720  12.358 -0.0308 -0.0498 -0.0657
60402SOL     OW88063   2.896   7.915   4.964 -0.6362  0.0661  0.4577
60402SOL    HW188064   2.803   7.924   4.939 -0.4430 -0.4671 -0.4919
60402SOL    HW288065   2.918   7.825   4.943  0.3105  0.4077 -0.0535
60403SOL     OW88066   5.200   4.383  11.977 -0.3409  0.9789  0.4694
60403SOL    HW188067   5.159   4.352  11.897 -0.8546 -1.2792  1.5249
60403SOL    HW288068   5.141   4.450  12.010 -0.8450  0.9325 -0.3122
60404SOL     OW88069  10.007   1.275   2.082 -0.0643 -0.1747 -0.1026
60404SOL    HW188070  10.002   1.349   2.021 -1.5522 -1.2559 -1.4003
60404SOL    HW288071   9.937   1.291   2.145 -0.4109 -0.4682 -0.4054
60405SOL     OW88072  11.954   6.169   3.740  0.0836 -0.4739 -0.0009
60405SOL    HW188073  12.011   6.228   3.690 -0.5518  0.4715  0.3506
60405SOL    HW288074  11.944   6.092   3.684 -1.6082  1.0281 -1.9731
60406SOL     OW88075   8.219   7.057  12.191 -0.2363 -0.1370 -0.2742
60406SOL    HW188076   8.259   7.073  12.276  0.9985 -1.9976 -0.4454
60406SOL    HW288077   8.130   7.029  12.211 -0.4220  0.8229  0.3010
60407SOL     OW88078  11.797   5.723  11.338  0.0312  1.2660 -0.4178
60407SOL    HW188079  11.773   5.736  11.247  2.0410 -1.1535 -1.4012
60407SOL    HW288080  11.864   5.654  11.336 -1.2713 -0.3288  3.0654
60408SOL     OW88081   4.569  12.176   8.115 -0.4758  0.2193 -0.2010
60408SOL    HW188082   4.559  12.201   8.207 -2.2915  1.4687 -0.6716
60408SOL    HW288083   4.638  12.234   8.082  0.8536 -0.8748  0.5442
60409SOL     OW88084   3.660   0.555   1.211  0.5262  0.0211 -0.0602
60409SOL    HW188085   3.621   0.607   1.140  0.8751 -2.1988 -2.0057
60409SOL    HW288086   3.646   0.464   1.184  0.2789 -0.9462  2.9989
60410SOL     OW88087   3.459  11.519   6.985 -0.4353  0.2239  0.1802
60410SOL    HW188088   3.390  11.519   7.053 -0.4486  1.9480  0.2117
60410SOL    HW288089   3.411  11.512   6.903 -0.8588  3.0518  0.0980
60411SOL     OW88090   8.479   6.023   5.217 -0.2380  0.3928  0.4473
60411SOL    HW188091   8.394   5.999   5.254 -0.1225 -0.8081 -0.0184
60411SOL    HW288092   8.457   6.082   5.144 -0.7337 -0.4037 -0.0729
60412SOL     OW88093   7.542  11.272   2.688  0.1012 -0.0716 -0.2068
60412SOL    HW188094   7.554  11.187   2.647  0.0776 -0.0919 -0.1719
60412SOL    HW288095   7.554  11.335   2.617  1.3088 -0.0421 -0.0030
60413SOL     OW88096   9.577   1.671   1.030 -0.2256 -0.2498  0.3918
60413SOL    HW188097   9.656   1.618   1.040  1.3253  1.9554  0.7162
60413SOL    HW288098   9.609   1.761   1.032 -2.4121  0.7444 -2.2380
60414SOL     OW88099  12.378   0.194   2.626  0.3964 -0.1166  0.4649
60414SOL    HW188100  12.437   0.120   2.618  1.8624  1.0746 -0.1812
60414SOL    HW288101  12.306   0.162   2.681  1.4579 -1.6959  0.9880
60415SOL     OW88102   7.793   7.280   3.603  0.0776 -0.4302  0.1852
60415SOL    HW188103   7.822   7.339   3.534  0.3383 -0.8609 -0.0733
60415SOL    HW288104   7.770   7.339   3.676 -0.0196  0.0105 -0.1952
60416SOL     OW88105   0.980   8.521   3.638 -0.1004 -0.5851  0.3339
60416SOL    HW188106   1.004   8.479   3.555 -0.4407 -1.9191  0.8730
60416SOL    HW288107   0.890   8.551   3.625  0.2410  0.2652 -0.1524
60417SOL     OW88108   1.355   1.595   6.344  0.0096  0.3627  0.0651
60417SOL    HW188109   1.437   1.637   6.317  1.1378 -1.8291 -0.2134
60417SOL    HW288110   1.309   1.576   6.262 -0.1085  0.3200  0.1410
60418SOL     OW88111   3.902   6.040   1.485 -0.5530 -0.0114 -0.7527
60418SOL    HW188112   3.977   6.083   1.445 -0.4236 -0.4519 -0.9920
60418SOL    HW288113   3.845   6.018   1.412 -0.3651 -0.7265 -0.6959
60419SOL     OW88114   2.457  10.117   1.274  0.1163  0.7148 -0.9985
60419SOL    HW188115   2.464  10.026   1.304  1.3108  1.0690 -0.1110
60419SOL    HW288116   2.534  10.130   1.218  0.9974  1.6895  0.3785
60420SOL     OW88117  12.335   1.876   0.808 -0.0053 -0.5493  0.1597
60420SOL    HW188118  12.375   1.961   0.790 -1.3585 -0.0102 -0.4346
60420SOL    HW288119  12.282   1.891   0.886 -2.0463 -0.1885 -1.2145
60421SOL     OW88120   2.679   5.989   0.136 -0.1291  0.9328  0.1657
60421SOL    HW188121   2.704   6.064   0.189  0.1359  1.2891 -0.4495
60421SOL    HW288122   2.762   5.953   0.103 -0.3463  1.9057 -1.5893
60422SOL     OW88123   5.018   1.709  11.681 -0.1187 -0.2388  0.5771
60422SOL    HW188124   5.062   1.743  11.759  0.8137 -0.0178 -0.0344
60422SOL    HW288125   5.036   1.615  11.682  0.1670 -0.1852  0.4552
60423SOL     OW88126   8.922   1.024   0.887  0.5650  0.2783 -0.8706
60423SOL    HW188127   8.937   1.112   0.922  0.6628  0.5130 -1.4906
60423SOL    HW288128   8.973   1.021   0.806 -1.0656  0.3957 -1.9577
60424SOL     OW88129   5.320   2.843   8.920 -0.4434 -0.8892 -0.3950
60424SOL    HW188130   5.348   2.865   9.009 -1.1688  1.6209 -0.7100
60424SOL    HW288131   5.243   2.788   8.932 -2.3097  1.7596  0.6571
60425SOL     OW88132  12.333   6.167  10.337  0.1319 -0.2138 -0.2560
60425SOL    HW188133  12.412   6.126  10.301 -0.0190 -2.0461  1.3106
60425SOL    HW288134  12.307   6.109  10.409 -2.2695  0.7039 -0.2993
60426SOL     OW88135   3.463   7.442  11.448  0.4549 -0.2681 -0.2984
60426SOL    HW188136   3.479   7.483  11.363  1.1995  0.2531  0.0695
60426SOL    HW288137   3.372   7.463  11.468  0.4255  0.0536 -0.7365
60427SOL     OW88138   6.495   8.166   5.259 -0.2029 -0.3225  0.6784
60427SOL    HW188139   6.543   8.160   5.342  1.9980 -1.6582 -0.5807
60427SOL    HW288140   6.483   8.075   5.231  0.4128  0.1091 -1.1417
60428SOL     OW88141   1.297   6.913   2.321  0.5768  0.1369 -0.5004
60428SOL    HW188142   1.386   6.902   2.354  1.3797  1.0570 -2.2589
60428SOL    HW288143   1.251   6.957   2.393  0.9823 -1.9411  1.1442
60429SOL     OW88144   2.220   8.808   5.505  0.1262  0.1977 -0.7668
60429SOL    HW188145   2.215   8.757   5.586  0.9708  0.5333 -0.4964
60429SOL    HW288146   2.275   8.756   5.447  1.2762  0.9332 -0.3694
60430SOL     OW88147   7.097  11.888  10.263  0.1559 -0.8192  0.0072
60430SOL    HW188148   7.016  11.838  10.274  0.6027 -1.1004  2.6986
60430SOL    HW288149   7.071  11.966  10.214 -1.5535 -1.3305  0.0412
60431SOL     OW88150   3.421   1.432   6.522 -0.0493  0.1988  0.3973
60431SOL    HW188151   3.476   1.356   6.504  2.2899  1.6480  0.9079
60431SOL    HW288152   3.412   1.434   6.617 -0.2926  0.4110  0.3710
60432SOL     OW88153   1.230   1.593   0.001  0.3096 -0.2642  0.0462
60432SOL    HW188154   1.295   1.620  -0.064 -2.7321  1.4391 -2.5973
60432SOL    HW288155   1.228   1.663   0.065  1.0240 -0.3040  0.1137
60433SOL     OW88156   0.401  11.241   2.714  0.4097 -0.3130  0.4223
60433SOL    HW188157   0.483  11.196   2.696 -0.0290 -1.1467  0.4514
60433SOL    HW288158   0.340  11.172   2.741 -0.2057  0.3315  0.7512
60434SOL     OW88159   8.799   6.493  11.014 -0.3445 -0.0651  0.3093
60434SOL    HW188160   8.813   6.578  10.973 -1.6636 -0.2460 -0.5916
60434SOL    HW288161   8.728   6.453  10.962 -1.2477 -0.8066  2.0446
60435SOL     OW88162   1.312   7.968   6.866  0.0927  0.0765 -0.0948
60435SOL    HW188163   1.284   7.912   6.793  0.0727  1.1046 -0.9003
60435SOL    HW288164   1.337   7.906   6.935  0.0110 -0.9235 -0.9294
60436SOL     OW88165   2.101   9.514   2.051  0.0068 -0.3347 -0.4792
60436SOL    HW188166   2.020   9.547   2.012 -1.9713 -2.8282  1.2202
60436SOL    HW288167   2.140   9.459   1.982  0.0388  0.5208 -1.1528
60437SOL     OW88168   0.368  10.417  12.120 -0.4214 -0.4055  0.1225
60437SOL    HW188169   0.290  10.402  12.173  0.5520 -0.4720  1.5913
60437SOL    HW288170   0.379  10.336  12.069 -0.0323 -1.3451  1.6284
60438SOL     OW88171  10.804   4.026  10.452 -0.3296  0.0231 -0.4907
60438SOL    HW188172  10.898   4.045  10.451 -0.1393 -0.9047 -1.5065
60438SOL    HW288173  10.781   4.009  10.361 -1.6557  0.9679 -0.3780
60439SOL     OW88174   6.224  11.170   0.354  0.1959 -0.2957 -0.6173
60439SOL    HW188175   6.229  11.122   0.436  3.8388  0.6109 -0.1121
60439SOL    HW288176   6.231  11.103   0.286  0.4028 -0.8372 -0.0706
60440SOL     OW88177  10.868   9.703   2.572  0.1790 -0.1147 -0.0417
60440SOL    HW188178  10.948   9.682   2.620 -0.2805 -0.4642  0.5854
60440SOL    HW288179  10.862   9.799   2.576  1.0410 -0.0075 -0.8860
60441SOL     OW88180   6.219   4.036  12.109 -0.2692 -0.4587  0.0425
60441SOL    HW188181   6.260   3.962  12.063  0.0915 -1.9545  2.5676
60441SOL    HW288182   6.125   4.016  12.107 -0.2614 -0.4732 -0.1397
60442SOL     OW88183   2.155  12.396   3.717  0.0276 -0.2455  0.3284
60442SOL    HW188184   2.235  12.442   3.691  0.0776 -1.2609 -1.5154
60442SOL    HW288185   2.089  12.465   3.726  0.0381  0.2858 -2.5967
60443SOL     OW88186   7.441   8.835   2.800 -0.2403  0.5950  0.0703
60443SOL    HW188187   7.357   8.790   2.807  0.3238 -0.7270 -1.2414
60443SOL    HW288188   7.505   8.765   2.789  0.8530  1.6589 -0.5631
60444SOL     OW88189   9.128   6.056   1.160 -0.6131 -0.4716 -0.3709
60444SOL    HW188190   9.108   6.049   1.253  1.4015  0.9867  0.2364
60444SOL    HW288191   9.064   6.118   1.126 -0.3589  0.2188  0.3909
60445SOL     OW88192   5.624   6.339  12.527 -0.0560  0.0054 -0.3184
60445SOL    HW188193   5.646   6.407  12.464  1.0966  0.2113  0.2799
60445SOL    HW288194   5.678   6.358  12.604 -2.1271  0.3481  1.1580
60446SOL     OW88195  11.690   8.011   5.076  0.1206  0.3489  0.0173
60446SOL    HW188196  11.596   8.025   5.065  0.1820 -0.4016 -1.9038
60446SOL    HW288197  11.699   7.917   5.092  0.6207  0.0416 -1.7755
60447SOL     OW88198  10.761  10.020   8.715 -0.3147  0.1674  0.0214
60447SOL    HW188199  10.713  10.089   8.761  0.3643  2.0870 -1.9772
60447SOL    HW288200  10.696   9.951   8.701 -1.2944  0.8021  1.2102
60448SOL     OW88201  10.819   7.989   2.510  0.5302  0.1498  0.5478
60448SOL    HW188202  10.844   8.081   2.501 -0.1652  0.3580  0.6878
60448SOL    HW288203  10.732   7.984   2.469  0.4337 -0.3773  0.8112
60449SOL     OW88204   9.512   8.362   7.928 -0.3611 -0.3093  0.1909
60449SOL    HW188205   9.423   8.326   7.930 -0.8306  0.7867 -0.1392
60449SOL    HW288206   9.542   8.346   7.838 -0.2955 -0.5049  0.2466
60450SOL     OW88207   2.072   4.005   4.695 -0.3053 -0.0076  0.5311
60450SOL    HW188208   2.090   3.931   4.638 -0.0465  1.3199 -1.1934
60450SOL    HW288209   2.020   3.968   4.767  2.6412 -2.5138  1.6192
60451SOL     OW88210   4.647   3.457   3.441  0.4942  0.5033 -0.8023
60451SOL    HW188211   4.589   3.411   3.381  1.8409 -2.3682 -0.0829
60451SOL    HW288212   4.731   3.461   3.395  0.4840  2.1061 -0.7420
60452SOL     OW88213   6.011   6.048   9.545  0.2756  0.1330  0.0982
60452SOL    HW188214   6.097   6.087   9.527  0.5998 -0.3101  0.6405
60452SOL    HW288215   6.029   5.956   9.560 -0.0561  0.3091  1.8262
60453SOL     OW88216   7.437   5.421   6.317 -0.2517  0.2289 -0.0177
60453SOL    HW188217   7.383   5.485   6.364  0.7557 -0.1800  1.8140
60453SOL    HW288218   7.375   5.353   6.290 -0.9393  0.6860  0.3696
60454SOL     OW88219   8.295   4.727   7.188 -0.2307  0.1581 -0.1400
60454SOL    HW188220   8.278   4.787   7.260 -0.4152 -4.3755  4.1329
60454SOL    HW288221   8.390   4.716   7.187 -0.0077  1.6322 -2.1446
60455SOL     OW88222   9.448   5.093   7.261 -0.5276  0.3717  0.4198
60455SOL    HW188223   9.492   5.129   7.184  0.4132  0.9539  1.2122
60455SOL    HW288224   9.463   5.157   7.330 -1.5373 -0.0410  1.0453
60456SOL     OW88225   2.436  11.369   0.673 -0.0547 -0.8056 -0.8346
60456SOL    HW188226   2.410  11.449   0.718 -0.5450 -0.2246 -2.1319
60456SOL    HW288227   2.526  11.385   0.645 -0.4035 -0.4165 -1.7407
60457SOL     OW88228  10.800   2.004   0.850  0.0839 -0.3601 -0.2577
60457SOL    HW188229  10.831   1.924   0.808  0.8422 -1.1300  1.6584
60457SOL    HW288230  10.848   2.074   0.806  1.2366 -1.1782 -0.3363
60458SOL     OW88231   0.666   4.683   4.110 -0.5154  0.1941  0.2576
60458SOL    HW188232   0.596   4.674   4.046  0.1091  0.5535 -0.4975
60458SOL    HW288233   0.623   4.712   4.190 -1.3647 -0.6828  0.1286
60459SOL     OW88234   5.497   9.768   4.927 -0.7199  0.3160  0.2567
60459SOL    HW188235   5.500   9.762   4.831  0.2975 -2.6749  0.3834
60459SOL    HW288236   5.542   9.850   4.947  3.1567 -1.0461 -1.7445
60460SOL     OW88237  12.462   7.811   7.026 -0.2134 -0.1728 -0.1614
60460SOL    HW188238  12.468   7.764   7.109  0.3399 -0.5751 -0.4200
60460SOL    HW288239  12.553   7.830   7.002 -0.4388  3.5700  1.3371
60461SOL     OW88240   0.886   2.261  11.247  0.4486 -0.0462  0.1495
60461SOL    HW188241   0.838   2.315  11.310  0.1828 -0.1593  0.0473
60461SOL    HW288242   0.965   2.310  11.227 -0.1317  0.6532 -0.4941
60462SOL     OW88243   3.315   4.346   0.265  0.6351  0.2760  0.0129
60462SOL    HW188244   3.329   4.280   0.332  0.9787 -0.5576 -0.8646
60462SOL    HW288245   3.246   4.310   0.209  0.9565  0.5635 -0.5854
60463SOL     OW88246   3.570  10.437   5.588 -0.1767  0.5887 -0.1304
60463SOL    HW188247   3.475  10.426   5.580 -0.1592  0.2194  0.1322
60463SOL    HW288248   3.584  10.454   5.681  0.1283 -0.6424  0.0728
60464SOL     OW88249   5.625   3.506   9.473  0.2402 -0.1090 -0.4315
60464SOL    HW188250   5.666   3.588   9.445 -0.0851 -0.7452 -2.9931
60464SOL    HW288251   5.532   3.517   9.451  0.1559 -1.0742 -0.5926
60465SOL     OW88252  11.181   3.191   2.160 -0.2405  0.4772 -0.0512
60465SOL    HW188253  11.232   3.238   2.227 -0.9589  0.5999  0.4238
60465SOL    HW288254  11.102   3.243   2.150  0.2652  0.9958 -1.7219
60466SOL     OW88255   0.221   6.267   8.692  0.6129 -0.0477  0.0978
60466SOL    HW188256   0.229   6.182   8.735  0.8263 -0.3826 -0.5768
60466SOL    HW288257   0.267   6.256   8.609  1.0991  0.8939  0.2300
60467SOL     OW88258   5.793   2.886  10.440  0.8066  0.4485  0.2420
60467SOL    HW188259   5.888   2.876  10.429  0.7900  1.3240 -0.8619
60467SOL    HW288260   5.755   2.816  10.386  0.8112  2.1377 -2.1435
60468SOL     OW88261   4.678   9.215   3.513 -0.5272  0.2378  0.2304
60468SOL    HW188262   4.712   9.274   3.445 -1.0554  0.7992  0.4406
60468SOL    HW288263   4.641   9.274   3.579 -1.9084 -0.3374 -0.0011
60469SOL     OW88264   3.655   1.945   2.097 -0.4523  0.3897 -0.3527
60469SOL    HW188265   3.597   1.877   2.062 -1.1121  0.6295  0.2573
60469SOL    HW288266   3.716   1.898   2.154 -1.2942  0.3647  0.5552
60470SOL     OW88267   9.121   0.324   8.941 -0.6070  0.1629  0.6292
60470SOL    HW188268   9.191   0.316   9.007 -0.4809 -0.8020  0.3986
60470SOL    HW288269   9.083   0.236   8.936 -0.4535  0.1573 -0.7643
60471SOL     OW88270   0.200  10.307  11.725 -0.1849  0.2077 -0.3066
60471SOL    HW188271   0.124  10.294  11.669  0.8075  3.2777 -2.6403
60471SOL    HW288272   0.215  10.402  11.725  2.8725 -0.1349  1.0956
60472SOL     OW88273   9.245   9.494   7.415  0.2724  0.3297 -0.5383
60472SOL    HW188274   9.335   9.522   7.399  0.5084 -0.3859 -0.4934
60472SOL    HW288275   9.244   9.401   7.394  0.1326 -0.2425  1.6674
60473SOL     OW88276   5.997   1.580   9.882  0.2440  0.1816  0.3459
60473SOL    HW188277   6.004   1.511   9.948 -0.4151  0.3528  0.6090
60473SOL    HW288278   6.064   1.559   9.818 -0.6514 -1.3406 -0.1554
60474SOL     OW88279   2.240  11.833   6.758  0.2244 -0.4237 -0.0110
60474SOL    HW188280   2.263  11.753   6.710 -1.7773 -0.6572 -0.6858
60474SOL    HW288281   2.233  11.900   6.690 -1.4491 -0.4817  0.0651
60475SOL     OW88282   4.503  11.267   9.585  0.4231 -0.3873 -0.1015
60475SOL    HW188283   4.499  11.357   9.619 -0.7502 -0.0308 -1.0862
60475SOL    HW288284   4.514  11.212   9.662  0.2256  0.5411  0.6102
60476SOL     OW88285   6.088   4.942   1.361 -0.5970  0.7609 -0.5239
60476SOL    HW188286   6.003   4.953   1.319 -0.1102  0.9738 -1.4766
60476SOL    HW288287   6.119   4.857   1.330 -0.5687  0.5700  0.0184
60477SOL     OW88288   1.088  11.880   3.862  0.0749  0.1184  0.1231
60477SOL    HW188289   1.124  11.965   3.838 -1.3814  0.7521  0.0750
60477SOL    HW288290   1.020  11.863   3.797 -1.2018 -0.0042  1.4322
60478SOL     OW88291  11.069   8.804   3.821 -0.0296  0.4667  0.1803
60478SOL    HW188292  11.062   8.714   3.851  0.5596  0.4357  0.2477
60478SOL    HW288293  11.152   8.807   3.773  1.0615  1.4676  2.0113
60479SOL     OW88294   7.487   5.588   8.725 -0.2607 -0.4971 -0.3009
60479SOL    HW188295   7.536   5.667   8.703 -0.2474  0.2256  2.0406
60479SOL    HW288296   7.408   5.592   8.671  0.4631  0.2936 -1.3384
60480SOL     OW88297   3.096   7.597   2.401 -0.4029  0.2932 -0.0200
60480SOL    HW188298   3.127   7.585   2.491 -1.2694  0.9780  0.3840
60480SOL    HW288299   3.023   7.537   2.392 -0.7920  0.7533 -0.0112
60481SOL     OW88300   4.871   5.581   6.980  0.2374  0.2173  0.2721
60481SOL    HW188301   4.885   5.487   6.987  1.6015  0.4116  0.4603
60481SOL    HW288302   4.785   5.590   6.938 -0.2947 -1.0860  1.0512
60482SOL     OW88303   7.658   5.397  11.465  0.1517 -0.0844  0.0464
60482SOL    HW188304   7.668   5.302  11.475 -0.3243 -0.2480 -0.8702
60482SOL    HW288305   7.634   5.428  11.552  0.6757 -0.7581  0.4385
60483SOL     OW88306   1.261   2.524   0.231  0.2940  0.9579 -0.0735
60483SOL    HW188307   1.265   2.429   0.240 -0.0687  0.9419 -0.0640
60483SOL    HW288308   1.341   2.556   0.274  0.0591  0.7004  0.5670
60484SOL     OW88309   7.758   7.519   7.026 -0.1299  0.6291 -0.1894
60484SOL    HW188310   7.812   7.442   7.044  0.5714  0.8292 -1.3070
60484SOL    HW288311   7.690   7.517   7.093  1.0724  0.1929  1.0604
60485SOL     OW88312   6.672   4.892   6.028  0.1813 -0.9589  1.0290
60485SOL    HW188313   6.762   4.917   6.007 -0.6416  0.3434 -1.3498
60485SOL    HW288314   6.662   4.914   6.120  1.0162  3.3985  0.3021
60486SOL     OW88315   7.546  11.463   6.958  0.7206  0.1354 -0.1324
60486SOL    HW188316   7.575  11.373   6.944 -1.1583 -0.1052 -3.3110
60486SOL    HW288317   7.628  11.513   6.964  1.8126 -1.4038 -1.2934
60487SOL     OW88318   5.640   6.833   9.815  0.1376 -0.3955 -0.3575
60487SOL    HW188319   5.554   6.802   9.842 -0.4584  1.1803 -0.3229
60487SOL    HW288320   5.645   6.813   9.722  0.2844 -1.6438 -0.0994
60488SOL     OW88321   5.003   0.507   3.056 -0.0480 -0.0039  0.0392
60488SOL    HW188322   5.061   0.438   3.023  1.2642  0.8182  0.5429
60488SOL    HW288323   4.995   0.569   2.983  2.5039  1.5932  0.9753
60489SOL     OW88324   3.617   1.528   7.011 -0.4512  0.7345 -0.3245
60489SOL    HW188325   3.584   1.439   7.003  1.5438 -0.1034  0.0432
60489SOL    HW288326   3.567   1.578   6.946 -0.7561 -0.9256 -1.4488
60490SOL     OW88327   7.373   6.578  10.549  0.0537 -0.5492  0.6301
60490SOL    HW188328   7.313   6.637  10.505  0.1240 -0.4294  0.6958
60490SOL    HW288329   7.317   6.510  10.588  0.0595 -1.3513 -0.6841
60491SOL     OW88330   2.492   2.559   9.132 -0.5129  0.0357  0.8704
60491SOL    HW188331   2.494   2.565   9.228  0.6728  0.8167  0.8201
60491SOL    HW288332   2.584   2.565   9.106 -0.7615 -0.8969 -0.2947
60492SOL     OW88333   4.332   0.641   2.204  0.5917  0.1253 -0.5172
60492SOL    HW188334   4.268   0.649   2.276  1.1358 -3.7412  0.6178
60492SOL    HW288335   4.417   0.654   2.246  0.7949  0.1831 -0.9439
60493SOL     OW88336   8.229   8.876   0.986  0.3680 -0.2048  0.0772
60493SOL    HW188337   8.189   8.822   0.917 -2.9329 -0.5220  2.0119
60493SOL    HW288338   8.273   8.946   0.939  2.3496 -2.8768 -2.4614
60494SOL     OW88339   6.176  11.287   6.945 -0.2090 -0.5462 -0.2055
60494SOL    HW188340   6.263  11.261   6.978 -0.5320  0.2758  1.3885
60494SOL    HW288341   6.194  11.356   6.882  0.3761 -1.4412 -1.0428
60495SOL     OW88342   2.995   6.442   9.958  0.2009 -0.0428 -0.4117
60495SOL    HW188343   2.999   6.494   9.878  0.4393  0.4038 -0.1107
60495SOL    HW288344   3.073   6.387   9.954 -0.3242 -0.7711 -0.9900
60496SOL     OW88345   7.275   6.599   6.257  0.2156  0.3532 -0.0100
60496SOL    HW188346   7.334   6.628   6.189 -1.6528  1.0447 -1.4252
60496SOL    HW288347   7.235   6.679   6.291 -1.5359 -0.1891 -0.6808
60497SOL     OW88348   3.841   1.435   9.801 -0.3447 -0.0939  0.5002
60497SOL    HW188349   3.824   1.496   9.872 -2.5418 -0.4108  0.3115
60497SOL    HW288350   3.808   1.351   9.833 -1.6600 -0.1834 -0.9568
60498SOL     OW88351   9.005   1.932   5.991 -0.2075  0.0940  0.1487
60498SOL    HW188352   8.911   1.920   5.999 -0.6387  1.1410 -2.3551
60498SOL    HW288353   9.043   1.860   6.042 -2.3298 -0.4892  1.0251
60499SOL     OW88354   3.054   4.949   8.423  0.0841  0.5519 -0.5453
60499SOL    HW188355   2.990   5.020   8.421 -2.2652 -1.4571 -2.3600
60499SOL    HW288356   3.094   4.950   8.336 -1.2110 -1.3437 -1.1982
60500SOL     OW88357   0.511   9.607  10.524 -0.2015 -0.7360  0.2817
60500SOL    HW188358   0.547   9.641  10.442 -1.5429  0.0712 -0.0004
60500SOL    HW288359   0.570   9.641  10.591  0.7898 -1.2318 -0.3202
60501SOL     OW88360   7.760   8.840   2.721 -0.2730 -0.3591 -0.1248
60501SOL    HW188361   7.774   8.918   2.775 -0.9821 -1.1284  1.2032
60501SOL    HW288362   7.776   8.766   2.780  1.7922 -1.2922 -1.7029
60502SOL     OW88363   1.303   4.133   9.910 -0.3739  0.1166  0.2582
60502SOL    HW188364   1.327   4.169   9.996 -2.7268  1.5438  0.3932
60502SOL    HW288365   1.275   4.208   9.859 -0.9376 -0.9685 -1.0917
60503SOL     OW88366  10.797   5.265   2.162  0.0860 -0.1904  0.0079
60503SOL    HW188367  10.887   5.252   2.131 -0.2230 -0.9123 -0.6243
60503SOL    HW288368  10.766   5.177   2.185 -0.3463  0.0946  0.5504
60504SOL     OW88369  10.763  10.688  10.577  0.1192 -0.5071 -0.6883
60504SOL    HW188370  10.849  10.727  10.587 -0.3335  0.4635 -0.5125
60504SOL    HW288371  10.702  10.755  10.607 -0.8379 -0.3735 -2.7545
60505SOL     OW88372   8.307  11.021   1.624  0.0425 -0.3779  0.3491
60505SOL    HW188373   8.326  11.035   1.716  1.2477 -0.6756  0.1686
60505SOL    HW288374   8.390  11.039   1.579 -0.8789  1.1814 -0.8361
60506SOL     OW88375  10.441   9.063   8.769  0.1470 -0.0587 -0.2101
60506SOL    HW188376  10.474   9.001   8.833 -0.0657 -1.5959 -1.5165
60506SOL    HW288377  10.491   9.143   8.785  1.0745 -0.8343  0.9547
60507SOL     OW88378   7.175   6.754   3.299 -0.0965  0.0081 -0.4985
60507SOL    HW188379   7.266   6.739   3.324  0.6440 -1.3431 -3.4416
60507SOL    HW288380   7.173   6.845   3.270  0.5135 -0.1112 -0.9611
60508SOL     OW88381   3.651   2.509   2.803  0.7607  0.5180 -0.0376
60508SOL    HW188382   3.602   2.576   2.755 -0.2202  0.3350  0.6800
60508SOL    HW288383   3.584   2.463   2.854  1.4078 -0.9953 -0.5023
60509SOL     OW88384   9.867  12.300   3.531 -0.1528 -0.0360 -0.5073
60509SOL    HW188385   9.847  12.393   3.531  2.2604  0.6147 -2.9741
60509SOL    HW288386   9.791  12.259   3.491 -0.5578  1.0729 -0.8994
60510SOL     OW88387   9.088   6.289  11.588 -0.5603 -0.1210  0.2154
60510SOL    HW188388   9.132   6.204  11.579 -0.0141  0.1269  0.4937
60510SOL    HW288389   9.041   6.283  11.671 -1.4122 -0.5406 -0.2845
60511SOL     OW88390   1.432   8.756   4.098  0.2255 -0.2281 -0.6181
60511SOL    HW188391   1.365   8.794   4.155 -1.1108 -0.9788 -1.5916
60511SOL    HW288392   1.484   8.830   4.068  0.0109  0.3486  0.4047
60512SOL     OW88393   9.877  11.347   1.346 -0.2239 -0.6135 -0.8364
60512SOL    HW188394   9.884  11.439   1.322  1.4634 -0.3496  0.4736
60512SOL    HW288395   9.944  11.303   1.294  1.0076 -0.5818  0.6279
60513SOL     OW88396   4.848   8.428   5.727 -0.3001 -0.2070  0.0059
60513SOL    HW188397   4.896   8.384   5.657  1.3131  0.1212  0.8606
60513SOL    HW288398   4.829   8.515   5.693  0.6233  0.0070  0.0230
60514SOL     OW88399   4.291   5.901  11.311 -0.0636 -0.1214 -0.2141
60514SOL    HW188400   4.350   5.843  11.359 -0.5428 -0.0489  0.4777
60514SOL    HW288401   4.349   5.965  11.269  0.3567 -0.0227  0.4947
60515SOL     OW88402   6.144   9.911   9.129  0.2089 -0.1747 -0.2896
60515SOL    HW188403   6.063   9.868   9.156  0.8386 -0.6748  0.8400
60515SOL    HW288404   6.147   9.991   9.181  0.8138 -0.5301  0.2258
60516SOL     OW88405   2.620   3.366   9.739 -0.0722 -0.0466  0.2067
60516SOL    HW188406   2.613   3.272   9.720 -2.2776  0.0932  0.0652
60516SOL    HW288407   2.709   3.377   9.773 -0.4509 -2.5922  2.3701
60517SOL     OW88408   9.496   5.183   5.369 -0.3592  0.2294  0.0837
60517SOL    HW188409   9.464   5.252   5.312  1.7665  2.1831  1.1194
60517SOL    HW288410   9.443   5.192   5.449 -0.7313 -0.0007 -0.1314
60518SOL     OW88411   9.460   8.652  12.022 -0.0759  0.1118 -0.0040
60518SOL    HW188412   9.369   8.676  12.039 -0.3053 -0.9082  0.2618
60518SOL    HW288413   9.510   8.731  12.042 -0.5062 -0.3647  3.6095
60519SOL     OW88414   6.909  11.785   8.590  0.4981  0.1487  0.2841
60519SOL    HW188415   6.943  11.857   8.537  1.9803  0.5712  1.7256
60519SOL    HW288416   6.818  11.809   8.608 -0.0905 -0.0750 -2.0995
60520SOL     OW88417   4.254   6.378   8.437  0.4641  0.2251  0.1941
60520SOL    HW188418   4.316   6.337   8.497  0.6169  0.0890 -0.0555
60520SOL    HW288419   4.232   6.309   8.374 -0.0128  0.2440  0.3369
60521SOL     OW88420   2.014  10.616  12.063  0.2121  0.1988 -0.2361
60521SOL    HW188421   2.054  10.643  12.146 -0.8528  1.2018 -0.0169
60521SOL    HW288422   2.022  10.520  12.063  0.4234  0.1971  0.9269
60522SOL     OW88423   9.561   8.553   0.733  0.7259  0.0506  0.0849
60522SOL    HW188424   9.638   8.576   0.786  0.9740  3.5907 -1.5515
60522SOL    HW288425   9.597   8.528   0.648  0.1759  2.4510 -0.9335
60523SOL     OW88426   5.658   9.262   5.218 -0.1217 -0.0409  0.3448
60523SOL    HW188427   5.666   9.257   5.313 -0.2248  1.5383  0.4503
60523SOL    HW288428   5.688   9.350   5.195 -1.8031  0.2658 -0.8750
60524SOL     OW88429   3.548   6.472   0.321  0.3512 -0.0312  0.3156
60524SOL    HW188430   3.591   6.492   0.404  2.4420  2.9509 -1.2829
60524SOL    HW288431   3.475   6.415   0.345  1.4005 -0.0951  4.0246
60525SOL     OW88432   5.428   1.938  11.370 -0.1664  0.0747 -0.0292
60525SOL    HW188433   5.507   1.889  11.392 -0.5674 -0.2911  0.6113
60525SOL    HW288434   5.357   1.873  11.372 -0.7398  0.7055  1.0420
60526SOL     OW88435   7.695   0.421   7.551  0.0671  0.2595 -0.3668
60526SOL    HW188436   7.724   0.443   7.639 -0.1697  1.3771 -0.5457
60526SOL    HW288437   7.600   0.418   7.556  0.0986 -0.7603 -0.3502
60527SOL     OW88438   1.081   0.701   1.238 -0.2264 -0.0811 -0.7718
60527SOL    HW188439   1.009   0.729   1.295  0.5454  0.1812  0.1066
60527SOL    HW288440   1.072   0.755   1.159  0.8743  2.3637  0.6302
60528SOL     OW88441   9.686   5.551  10.577  0.2497  0.4576  0.2131
60528SOL    HW188442   9.720   5.476  10.528 -0.3107  0.3091  0.0484
60528SOL    HW288443   9.762   5.585  10.624  0.5080 -0.2066  0.2845
60529SOL     OW88444   9.558   7.726  11.135 -0.2715  0.4055 -0.0459
60529SOL    HW188445   9.647   7.735  11.168  0.6229  0.7628 -2.3910
60529SOL    HW288446   9.561   7.760  11.046 -2.4468 -0.8622 -0.6949
60530SOL     OW88447   5.436  11.418   5.896  0.1818  0.0300 -0.0500
60530SOL    HW188448   5.502  11.352   5.916 -1.3021 -1.4153  0.2609
60530SOL    HW288449   5.375  11.374   5.837  0.1854  1.7521 -1.4312
60531SOL     OW88450  10.034   7.542  11.622 -0.0133  0.3420  0.2301
60531SOL    HW188451  10.018   7.454  11.588  1.2852  0.2136 -0.0909
60531SOL    HW288452  10.060   7.529  11.713  1.6423  0.2557 -0.2362
60532SOL     OW88453   7.496   5.429  11.692 -0.4286 -0.5957  0.3908
60532SOL    HW188454   7.436   5.359  11.715 -1.7838  0.2176 -0.5364
60532SOL    HW288455   7.446   5.509  11.706 -0.3404  0.0504 -2.4747
60533SOL     OW88456   6.484   2.399   4.629  0.2270 -0.2662  0.0276
60533SOL    HW188457   6.563   2.394   4.683  0.5273 -0.3570 -0.4064
60533SOL    HW288458   6.518   2.398   4.539 -0.2225  0.5714 -0.1525
60534SOL     OW88459  11.518  10.732  11.720  0.3881  0.2306  0.3253
60534SOL    HW188460  11.597  10.750  11.670 -0.5571  1.1206 -0.9017
60534SOL    HW288461  11.493  10.643  11.695  1.4608 -0.4097  1.4102
60535SOL     OW88462   0.297   9.322   2.955  0.0013  0.1266  0.1092
60535SOL    HW188463   0.327   9.340   3.044  1.6202 -1.5409 -0.0419
60535SOL    HW288464   0.376   9.327   2.901 -0.7461 -0.0701 -1.0527
60536SOL     OW88465  11.904   3.805  11.350  0.1018  0.1836 -0.1246
60536SOL    HW188466  11.959   3.749  11.405 -0.7524 -1.0994 -0.5177
60536SOL    HW288467  11.853   3.743  11.297 -1.1776  1.3400 -0.3026
60537SOL     OW88468   9.465   0.762   4.005 -0.9005  0.0187 -0.4411
60537SOL    HW188469   9.531   0.745   3.938 -0.5233 -0.6768  0.0965
60537SOL    HW288470   9.505   0.828   4.062 -1.4240  0.9911 -1.1764
60538SOL     OW88471  10.641   3.858   5.877 -0.3260  0.3873  0.7626
60538SOL    HW188472  10.580   3.885   5.945 -1.2980  0.8897 -0.2753
60538SOL    HW288473  10.595   3.789   5.829  0.0885  0.4761  0.2227
60539SOL     OW88474   4.487  10.228  10.645 -0.2420 -0.0529 -0.2457
60539SOL    HW188475   4.445  10.144  10.664  0.2569 -0.3593 -0.4772
60539SOL    HW288476   4.527  10.254  10.729  1.6440 -1.2274 -0.7156
60540SOL     OW88477   4.210  12.189   4.382  0.4525 -0.2745  0.0906
60540SOL    HW188478   4.182  12.158   4.468 -0.1491  1.2769  0.4814
60540SOL    HW288479   4.303  12.211   4.394  0.6115 -0.9168  0.0819
60541SOL     OW88480  11.180   5.129   1.099  0.5480  0.5810  0.0325
60541SOL    HW188481  11.208   5.060   1.159  0.2015  0.5174  0.1234
60541SOL    HW288482  11.149   5.199   1.157 -2.5546 -0.5930 -0.0306
60542SOL     OW88483   0.164   1.953   8.009 -0.3684 -0.2006 -0.0250
60542SOL    HW188484   0.242   1.942   7.954 -1.4642 -0.0449 -1.6835
60542SOL    HW288485   0.192   2.014   8.078  1.0734 -0.4564 -0.3451
60543SOL     OW88486   3.389   6.995   5.177 -0.2214  0.1151 -0.2782
60543SOL    HW188487   3.359   6.980   5.087 -0.4043  0.0377 -0.2034
60543SOL    HW288488   3.312   6.979   5.231 -0.2385  0.6421 -0.1459
60544SOL     OW88489   2.029   0.182   9.394 -0.1591  0.3231 -0.8008
60544SOL    HW188490   1.951   0.160   9.446  1.1666 -0.9126  0.7736
60544SOL    HW288491   2.033   0.278   9.397 -2.3873  0.5344 -2.1662
60545SOL     OW88492  11.877   3.568   5.772  0.3042  0.2147  0.0730
60545SOL    HW188493  11.865   3.626   5.697 -3.0195 -0.0558  0.2244
60545SOL    HW288494  11.913   3.488   5.735  1.5453  1.1012 -0.7121
60546SOL     OW88495  10.937   0.594   3.264  0.2414  0.0501  0.4745
60546SOL    HW188496  10.897   0.508   3.252  1.2219 -0.0766 -2.9379
60546SOL    HW288497  10.867   0.656   3.243  0.6933 -0.1093 -1.8084
60547SOL     OW88498   5.806   7.148   3.840 -0.0712  0.1983 -0.7771
60547SOL    HW188499   5.769   7.162   3.752  0.9729 -1.8454 -1.6031
60547SOL    HW288500   5.732   7.116   3.891 -0.5940  1.0071 -0.9963
60548SOL     OW88501   9.423  10.809   8.246  0.0178  0.5679 -0.0371
60548SOL    HW188502   9.383  10.723   8.231  1.5638 -0.5302  1.5746
60548SOL    HW288503   9.364  10.871   8.204 -2.8327 -0.9779  1.3662
60549SOL     OW88504   7.980   0.326  11.244 -0.5992  0.1549  0.7004
60549SOL    HW188505   7.991   0.270  11.321  0.9166 -0.7642 -0.1417
60549SOL    HW288506   7.899   0.296  11.204  0.8691 -2.5177 -0.5135
60550SOL     OW88507  11.463   6.786   8.481  0.1925  0.8097 -0.6457
60550SOL    HW188508  11.509   6.717   8.529  0.2509 -0.2468 -2.1491
60550SOL    HW288509  11.390   6.810   8.538  0.2326 -0.4229 -0.0394
60551SOL     OW88510   3.780   4.922  11.312 -0.2404 -0.2370 -0.3017
60551SOL    HW188511   3.737   4.965  11.385  2.0062 -0.5096  1.2965
60551SOL    HW288512   3.857   4.976  11.294 -0.9790  0.1224 -2.8995
60552SOL     OW88513   5.250   2.481   8.651 -0.4959 -0.5710  0.3711
60552SOL    HW188514   5.331   2.533   8.650 -0.5730 -0.4069  1.4926
60552SOL    HW288515   5.253   2.431   8.569  1.3789 -1.5422  0.9842
60553SOL     OW88516  10.026   5.520  11.697 -0.4032  0.0954 -0.7243
60553SOL    HW188517  10.111   5.532  11.740 -1.1888 -0.1715  0.9801
60553SOL    HW288518  10.028   5.429  11.668 -1.0043 -0.7175  1.5341
60554SOL     OW88519  11.934   4.027   0.827  0.2661 -0.3238  0.5731
60554SOL    HW188520  12.007   4.086   0.810 -0.7972  1.1374  0.9402
60554SOL    HW288521  11.967   3.940   0.803  2.4179  0.1531  1.5886
60555SOL     OW88522  11.512   3.858   6.544 -0.0956  0.4805  0.6233
60555SOL    HW188523  11.586   3.876   6.602 -0.9113  0.0251  1.8441
60555SOL    HW288524  11.477   3.944   6.523  1.4603  0.7848 -0.9329
60556SOL     OW88525   2.193  11.558   6.557 -0.0415  0.0435  0.3197
60556SOL    HW188526   2.156  11.582   6.472 -1.3442 -1.2277  0.4931
60556SOL    HW288527   2.165  11.468   6.571 -0.6709  0.5208  2.5380
60557SOL     OW88528   4.286   3.766   3.992  0.2115 -0.0441  0.4364
60557SOL    HW188529   4.332   3.682   3.999  0.1012 -0.1013  0.4809
60557SOL    HW288530   4.295   3.806   4.078  1.7967  0.7969 -0.0857
60558SOL     OW88531   5.249   5.867  12.394 -0.2540 -0.1327  0.3887
60558SOL    HW188532   5.236   5.906  12.480 -0.1326 -1.3979  0.9994
60558SOL    HW288533   5.255   5.942  12.335  1.4903  0.8376  1.7063
60559SOL     OW88534  10.460  10.855   1.047  0.0631  0.3658  0.2573
60559SOL    HW188535  10.462  10.847   0.952 -0.2216 -1.5468  0.3722
60559SOL    HW288536  10.431  10.945   1.063 -1.1771  0.3250 -1.4614
60560SOL     OW88537   7.874   9.200   8.193 -0.3852 -0.5423  0.2365
60560SOL    HW188538   7.812   9.183   8.263 -0.2656 -0.5818  0.3347
60560SOL    HW288539   7.827   9.179   8.113 -0.6371 -0.1521  0.2833
60561SOL     OW88540   7.926   2.905  12.077 -1.0260  0.1345  0.0344
60561SOL    HW188541   8.012   2.893  12.117 -1.0691 -1.4583 -0.3030
60561SOL    HW288542   7.867   2.854  12.132 -1.3174 -0.9172 -1.2142
60562SOL     OW88543   3.866   7.018   2.801 -0.3127  0.1948 -0.3245
60562SOL    HW188544   3.857   7.101   2.847  0.1875  1.4391 -2.3548
60562SOL    HW288545   3.807   6.958   2.847  1.8061  0.6107  3.3875
60563SOL     OW88546   2.670  11.497   0.590  0.5090  0.4915  0.5074
60563SOL    HW188547   2.722  11.567   0.629 -1.0370  1.6812  0.5393
60563SOL    HW288548   2.610  11.542   0.530 -2.1562 -0.4658  2.2559
60564SOL     OW88549   7.467  12.191   7.792 -0.1343  0.3126 -0.5019
60564SOL    HW188550   7.383  12.152   7.770  0.2035 -1.1668  0.5942
60564SOL    HW288551   7.520  12.180   7.713 -0.6470  0.2566 -0.8388
60565SOL     OW88552   8.040   7.512   8.492  0.2653 -0.1638 -0.0367
60565SOL    HW188553   8.044   7.601   8.458  2.9686 -0.1803 -0.0282
60565SOL    HW288554   7.961   7.510   8.545 -1.1462  1.4716 -1.9429
60566SOL     OW88555   9.775   4.518   3.786  0.3338 -0.1002  0.2630
60566SOL    HW188556   9.857   4.488   3.747 -0.0614 -1.0880  0.1659
60566SOL    HW288557   9.783   4.613   3.789  0.9435 -0.0953 -0.9633
60567SOL     OW88558   2.936   8.507  12.578 -0.0450 -0.1725  0.5255
60567SOL    HW188559   3.009   8.544  12.627  0.8009 -1.2667  0.1446
60567SOL    HW288560   2.923   8.420  12.616 -0.5413 -0.3443 -0.0136
60568SOL     OW88561   6.713   9.879   5.849  0.2882  0.5855 -0.4047
60568SOL    HW188562   6.658   9.956   5.862 -0.3473  0.0702  0.0197
60568SOL    HW288563   6.663   9.807   5.888  1.0031  0.0101 -0.5335
60569SOL     OW88564   1.939   7.087   0.328  0.7333  0.1032  0.3555
60569SOL    HW188565   1.914   7.046   0.410 -1.5170  1.3232  0.3426
60569SOL    HW288566   1.895   7.036   0.260 -0.0226  0.9910  0.1609
60570SOL     OW88567   0.237  11.730  12.166 -0.0582 -0.0747  0.5558
60570SOL    HW188568   0.185  11.654  12.191 -1.7445  0.6474 -0.6056
60570SOL    HW288569   0.182  11.805  12.185  0.8609  0.7745  0.0081
60571SOL     OW88570   4.039   7.154   2.469 -0.4338 -0.0075  0.7415
60571SOL    HW188571   3.970   7.215   2.494 -0.1415  0.2396  0.9475
60571SOL    HW288572   4.082   7.129   2.551  0.7643  1.0941  0.4821
60572SOL     OW88573  12.346   9.440  10.905  0.2039 -0.0598 -0.3557
60572SOL    HW188574  12.319   9.402  10.988 -1.0288 -2.2424 -1.6739
60572SOL    HW288575  12.271   9.494  10.877  0.7373  0.9237  0.0418
60573SOL     OW88576   7.522   1.274   0.480 -0.8814 -0.5226  0.1943
60573SOL    HW188577   7.494   1.305   0.566 -0.1229  1.5751 -0.2526
60573SOL    HW288578   7.605   1.318   0.464 -1.2347 -0.4629 -1.8015
60574SOL     OW88579  10.964   3.993   0.938  0.0070  0.3150 -0.0348
60574SOL    HW188580  10.945   3.904   0.965 -3.3031  0.8465 -0.1939
60574SOL    HW288581  10.908   4.007   0.861  1.4259  2.1460 -0.8224
60575SOL     OW88582   4.702  12.088   9.119 -0.1770 -0.6583 -0.9908
60575SOL    HW188583   4.755  12.095   9.198  0.7839 -2.2205 -1.4426
60575SOL    HW288584   4.620  12.047   9.148 -0.9460  1.2181 -0.3890
60576SOL     OW88585   2.517   7.271   7.962  0.4293 -0.0772 -0.3922
60576SOL    HW188586   2.533   7.359   7.928  0.5153 -0.5220 -1.5140
60576SOL    HW288587   2.521   7.282   8.058  1.5064  0.9386 -0.5259
60577SOL     OW88588   3.113   2.066  11.325  0.1630  0.0990 -0.4880
60577SOL    HW188589   3.052   2.103  11.388  1.0195  0.6067  0.0576
60577SOL    HW288590   3.193   2.049  11.375  0.2206 -1.3005 -1.0105
60578SOL     OW88591   9.585   9.775   1.998 -0.4025  0.7446  0.1631
60578SOL    HW188592   9.615   9.692   1.960 -0.3852  1.1566 -0.7453
60578SOL    HW288593   9.593   9.762   2.093 -0.9127 -0.4794  0.0538
60579SOL     OW88594   5.325   4.343  10.845 -0.6399  0.1857 -0.2486
60579SOL    HW188595   5.284   4.400  10.910 -0.0396 -0.3666  0.6411
60579SOL    HW288596   5.257   4.281  10.820 -0.8905  0.4381 -0.1945
60580SOL     OW88597   9.596   7.108   2.853 -0.2996  0.2796 -0.5765
60580SOL    HW188598   9.622   7.199   2.844 -1.1628  0.6224  0.1718
60580SOL    HW288599   9.506   7.105   2.821 -1.3589  0.3558  2.1020
60581SOL     OW88600   1.176   1.094  10.824  0.2436 -0.2720 -0.1051
60581SOL    HW188601   1.178   1.162  10.892 -0.1834  0.0828 -0.4378
60581SOL    HW288602   1.267   1.072  10.810  0.5149  1.1987 -0.9298
60582SOL     OW88603   5.377   3.263  12.165  1.0022 -0.4668 -0.0552
60582SOL    HW188604   5.381   3.238  12.072  1.2676 -0.4298 -0.0555
60582SOL    HW288605   5.296   3.225  12.197 -0.0247  1.0233 -0.7579
60583SOL     OW88606   6.957   9.552   3.582  0.2007 -0.5737  0.1268
60583SOL    HW188607   6.968   9.568   3.488  1.3021  0.7763  0.4450
60583SOL    HW288608   6.935   9.459   3.588 -1.4427 -0.3461 -1.5619
60584SOL     OW88609   6.513   5.352   8.858  0.1710 -0.1801  0.1132
60584SOL    HW188610   6.577   5.287   8.829 -0.1138 -2.1534  3.3767
60584SOL    HW288611   6.551   5.390   8.937 -0.8211  1.8633 -0.3125
60585SOL     OW88612   1.890   1.428   5.089 -0.0022 -0.0177 -0.2235
60585SOL    HW188613   1.954   1.488   5.129 -0.3168  0.6571 -0.7113
60585SOL    HW288614   1.829   1.486   5.043 -2.3286 -0.4650  2.1013
60586SOL     OW88615   4.962  10.521   3.084  0.9710 -0.0795 -0.3712
60586SOL    HW188616   4.967  10.432   3.119  2.1581 -0.5663 -1.6709
60586SOL    HW288617   4.894  10.516   3.017 -0.6269  0.6137  1.1356
60587SOL     OW88618   9.033   2.143   3.585 -0.2843  0.0006  0.2698
60587SOL    HW188619   9.003   2.101   3.505  1.2441  1.6600 -1.2709
60587SOL    HW288620   9.078   2.223   3.555 -0.5760  1.2435  2.8328
60588SOL     OW88621   3.608  12.175   6.852  0.2153 -0.3067  0.0133
60588SOL    HW188622   3.564  12.092   6.835 -1.0073  0.5787 -1.3354
60588SOL    HW288623   3.598  12.188   6.947 -1.3227 -0.7631 -0.0618
60589SOL     OW88624   3.500  12.572   5.585 -0.6739 -0.0970 -0.1875
60589SOL    HW188625   3.469  12.587   5.675 -0.6455  0.7117 -0.2983
60589SOL    HW288626   3.583  12.527   5.596  0.1884  1.5293  0.2759
60590SOL     OW88627   1.664  11.989   5.047 -0.2965  0.2099 -0.3325
60590SOL    HW188628   1.634  12.050   5.115  1.1905  2.0767 -1.2564
60590SOL    HW288629   1.587  11.973   4.994 -1.0815  0.0584  0.8169
60591SOL     OW88630   1.316   2.138   7.556  0.1212 -0.4564 -0.1902
60591SOL    HW188631   1.375   2.179   7.619 -0.1285  0.5909 -0.6089
60591SOL    HW288632   1.371   2.124   7.478  0.5070 -2.0181  0.3281
60592SOL     OW88633  12.147   6.856   1.657  0.3492 -0.1112  0.2544
60592SOL    HW188634  12.112   6.900   1.579  2.4374  1.0959 -0.0780
60592SOL    HW288635  12.223   6.909   1.682  0.7565 -1.4792  2.0837
60593SOL     OW88636   1.981   7.859  10.411  0.3347 -0.4731 -0.7344
60593SOL    HW188637   2.006   7.948  10.438 -0.6606 -0.4348  0.1056
60593SOL    HW288638   2.062   7.808  10.419  0.5964  0.0545  0.0961
60594SOL     OW88639   9.592   4.850   0.281  0.4722 -0.3551  0.2533
60594SOL    HW188640   9.512   4.880   0.324  1.0337  1.2177  0.2920
60594SOL    HW288641   9.565   4.776   0.227 -0.8904 -0.2047  0.6986
60595SOL     OW88642   6.646  11.514  12.180  0.0378 -0.0192  0.0363
60595SOL    HW188643   6.647  11.609  12.182  0.5347  0.0030 -0.7418
60595SOL    HW288644   6.559  11.491  12.147 -0.3529  0.1317  0.9292
60596SOL     OW88645   1.977   2.297  11.056  0.6222  0.3777 -0.3848
60596SOL    HW188646   2.012   2.377  11.096  2.5047  0.5621 -2.2190
60596SOL    HW288647   1.882   2.306  11.065  0.7673  0.0378  4.5695
60597SOL     OW88648   1.856   8.871  11.906  0.2024 -0.1257  0.1861
60597SOL    HW188649   1.811   8.955  11.909  0.3988 -0.0623  2.1218
60597SOL    HW288650   1.870   8.855  11.812 -1.2061  1.2374 -0.2996
60598SOL     OW88651   8.383   3.783   5.828  0.0735  0.8063 -0.3350
60598SOL    HW188652   8.474   3.794   5.802  0.4376 -0.5963  0.2623
60598SOL    HW288653   8.334   3.779   5.745  0.9087 -1.1239 -0.7952
60599SOL     OW88654   4.350   2.324  10.498 -0.6566  0.4709  0.3744
60599SOL    HW188655   4.383   2.245  10.456  0.1939 -0.0675  1.9983
60599SOL    HW288656   4.295   2.293  10.570 -1.6339  1.3748  0.0453
60600SOL     OW88657   2.222   9.198   5.403 -0.1806  0.4248 -0.2023
60600SOL    HW188658   2.299   9.152   5.372  0.3719  0.8621  0.5035
60600SOL    HW288659   2.254   9.285   5.427 -1.0649  0.9344 -0.7997
60601SOL     OW88660   4.239   8.025   9.350  0.4809  0.0258  0.1724
60601SOL    HW188661   4.261   7.933   9.365  1.4574  0.1513 -0.4167
60601SOL    HW288662   4.147   8.032   9.378  0.2628 -1.2142 -0.1422
60602SOL     OW88663   3.819   6.749   9.162 -0.1190 -0.6445  0.0592
60602SOL    HW188664   3.861   6.804   9.228 -0.5945 -0.0920 -0.0841
60602SOL    HW288665   3.872   6.760   9.083 -1.7706  1.9137 -0.8113
60603SOL     OW88666  10.247   4.160  10.488  0.2587 -0.0212  0.1447
60603SOL    HW188667  10.318   4.096  10.486 -1.3110 -1.9722  2.4875
60603SOL    HW288668  10.212   4.159  10.399  2.5115  0.3426 -0.8267
60604SOL     OW88669   4.864   4.749   6.796  0.5298  0.4372  0.6265
60604SOL    HW188670   4.857   4.661   6.760 -0.7085  0.8888 -0.3195
60604SOL    HW288671   4.800   4.800   6.746  0.1455  1.5413  2.1908
60605SOL     OW88672   3.094   2.818   4.142 -0.0004  0.1016  0.5687
60605SOL    HW188673   3.101   2.913   4.157  1.0122 -0.1267  1.7357
60605SOL    HW288674   3.006   2.806   4.107 -0.3693  1.4132  0.9779
60606SOL     OW88675  10.591   1.664   7.866 -0.5117  0.3504  0.0762
60606SOL    HW188676  10.508   1.670   7.913  0.1341  1.5772  1.1592
60606SOL    HW288677  10.650   1.722   7.915  0.5174  0.8183 -1.6326
60607SOL     OW88678   3.364   2.393   0.003 -0.2106  0.0735  0.1174
60607SOL    HW188679   3.335   2.468  -0.049 -0.2436  0.7744  1.1205
60607SOL    HW288680   3.287   2.336   0.009  0.5332 -1.4572 -2.9579
60608SOL     OW88681  11.752   1.431  12.469  0.1253 -0.0388 -0.0278
60608SOL    HW188682  11.837   1.389  12.457  0.0031 -0.7855  1.5304
60608SOL    HW288683  11.693   1.359  12.493 -0.9168  0.4990 -0.8765
60609SOL     OW88684   6.942   7.854   4.851  0.5421 -0.1997 -0.0824
60609SOL    HW188685   6.919   7.804   4.929  0.4548  1.6786  1.1520
60609SOL    HW288686   6.867   7.911   4.836  0.2755 -0.9473 -1.9655
60610SOL     OW88687   2.836   8.346   1.818 -0.4352  0.7239 -0.2339
60610SOL    HW188688   2.857   8.307   1.902 -0.9325  0.3145 -0.2908
60610SOL    HW288689   2.744   8.323   1.803 -0.2124  0.3420 -1.1191
60611SOL     OW88690  10.971   8.324   4.152  0.5935  0.1323 -0.1896
60611SOL    HW188691  10.920   8.244   4.137  0.5496  0.4857 -2.2536
60611SOL    HW288692  11.050   8.295   4.197  0.3433 -1.0056 -0.4614
60612SOL     OW88693   5.866   7.005   2.579 -0.3588  0.4291  0.4100
60612SOL    HW188694   5.813   7.045   2.510  1.1117  1.9632  0.0972
60612SOL    HW288695   5.826   7.034   2.660 -0.7126  0.5714  0.1883
60613SOL     OW88696  10.402   5.204   5.460 -0.0725  0.5680 -0.0777
60613SOL    HW188697  10.393   5.164   5.374 -2.7158 -1.3159  0.9658
60613SOL    HW288698  10.482   5.166   5.497  0.4136  0.4713 -1.2110
60614SOL     OW88699  12.085   4.460   6.770  0.1986 -0.4171  0.0546
60614SOL    HW188700  12.149   4.531   6.768  0.6755 -0.8337  0.0751
60614SOL    HW288701  12.069   4.439   6.678 -0.1187 -0.1321  0.0432
60615SOL     OW88702   9.721   2.527   1.404 -0.3743  0.2198 -0.4656
60615SOL    HW188703   9.632   2.527   1.368 -0.2453  0.6332 -0.7841
60615SOL    HW288704   9.744   2.434   1.411 -0.3714  0.1291 -1.5242
60616SOL     OW88705   1.805  12.315   4.913 -0.0493  0.2552  0.4708
60616SOL    HW188706   1.850  12.361   4.843 -1.5277  0.7168 -0.2178
60616SOL    HW288707   1.729  12.275   4.871 -0.7757  0.2326  1.7391
60617SOL     OW88708   8.516   7.610   0.219 -0.8390  0.0519  0.0680
60617SOL    HW188709   8.421   7.612   0.215 -0.9157 -1.9739 -0.1366
60617SOL    HW288710   8.542   7.565   0.138  0.3278  1.0928 -0.1578
60618SOL     OW88711   3.066  10.184   0.955  0.6086  0.2580  0.1722
60618SOL    HW188712   3.157  10.214   0.946  0.4679  0.4964 -0.4948
60618SOL    HW288713   3.013  10.259   0.930  0.2510 -0.3099 -0.8580
60619SOL     OW88714   7.945   6.571   6.759 -0.1617 -0.0246  0.2714
60619SOL    HW188715   8.027   6.523   6.766  0.3500  0.6403 -0.8720
60619SOL    HW288716   7.894   6.523   6.693 -1.3949 -1.3633  2.1050
60620SOL     OW88717   8.329   6.321  10.173 -0.0120  0.2844 -0.3328
60620SOL    HW188718   8.368   6.407  10.159 -1.4734  1.2853  1.2996
60620SOL    HW288719   8.322   6.283  10.086  1.2275  1.5516 -1.0205
60621SOL     OW88720   9.799   1.269   7.982  0.2447 -0.1199  0.3480
60621SOL    HW188721   9.877   1.318   7.957  0.1963  0.2399  0.8964
60621SOL    HW288722   9.728   1.334   7.982  0.2403 -0.1088  1.3931
60622SOL     OW88723   2.165   6.346   5.967 -0.1643 -0.5298  0.1274
60622SOL    HW188724   2.217   6.426   5.957 -1.0547 -0.0951 -1.3887
60622SOL    HW288725   2.147   6.318   5.877 -2.0578 -0.9796  0.5962
60623SOL     OW88726  12.443   2.591   2.099  1.2170  0.2818 -0.2607
60623SOL    HW188727  12.513   2.655   2.112  1.6789 -0.2031 -0.3531
60623SOL    HW288728  12.401   2.618   2.017  0.4939  1.3003  0.4103
60624SOL     OW88729   0.957  11.970  12.392 -0.4263  0.5203 -0.3292
60624SOL    HW188730   0.895  11.927  12.333  0.0105  1.4497 -1.5082
60624SOL    HW288731   1.043  11.938  12.364 -0.2472  0.5719  0.1533
60625SOL     OW88732   6.921   1.915   4.254 -0.3216  0.1084  0.0963
60625SOL    HW188733   6.956   1.939   4.169  1.6359  0.1220  0.8606
60625SOL    HW288734   6.997   1.889   4.305 -1.4354  0.1346  1.8650
60626SOL     OW88735  12.051   8.860   4.188 -0.6634 -0.0918  0.4244
60626SOL    HW188736  12.012   8.775   4.209  1.4315 -1.0646  0.6435
60626SOL    HW288737  12.110   8.879   4.262 -0.7106  1.3125  0.1342
60627SOL     OW88738   9.837   9.674   3.640  0.2952  0.2826  0.7094
60627SOL    HW188739   9.744   9.650   3.647  0.3775  0.0532  1.0151
60627SOL    HW288740   9.847   9.704   3.549 -0.3018  1.2727  0.9579
60628SOL     OW88741   0.990   6.059   8.520 -0.4798  0.8894  0.2671
60628SOL    HW188742   0.925   6.128   8.535 -2.0620 -0.6935  1.0894
60628SOL    HW288743   0.951   6.004   8.453 -0.6714 -0.8395  1.7206
60629SOL     OW88744  12.161   9.717   0.637 -0.2138 -0.3774  0.3380
60629SOL    HW188745  12.196   9.768   0.564  2.2597 -2.9870 -0.5239
60629SOL    HW288746  12.173   9.773   0.714  2.6810  0.2917 -0.4879
60630SOL     OW88747   7.866   1.065  11.643  0.1097  0.0530  0.1378
60630SOL    HW188748   7.816   1.121  11.702  1.3135  0.1978  1.0699
60630SOL    HW288749   7.824   0.979  11.649  0.9504 -0.2914  2.2753
60631SOL     OW88750   6.190   7.025  12.180 -0.2382 -0.3111 -0.0717
60631SOL    HW188751   6.141   7.072  12.248 -0.9929 -3.3649  1.6851
60631SOL    HW288752   6.140   7.041  12.100  0.1359  2.6143  0.1666
60632SOL     OW88753   8.098   8.367   3.906 -0.1224 -0.8279  0.5839
60632SOL    HW188754   8.062   8.326   3.827  1.5798 -0.0835 -0.6463
60632SOL    HW288755   8.124   8.454   3.877 -0.1371 -0.2781  2.1741
60633SOL     OW88756   7.871   7.363   3.345 -0.2925 -0.1067  0.0471
60633SOL    HW188757   7.873   7.455   3.373 -2.0724 -0.2656  0.8515
60633SOL    HW288758   7.834   7.365   3.257  1.4724  0.0597 -0.7370
60634SOL     OW88759   8.792   0.303   4.623 -0.0886  0.7709 -0.2000
60634SOL    HW188760   8.728   0.233   4.608  2.1583 -0.9763 -2.6795
60634SOL    HW288761   8.816   0.294   4.715 -1.0974 -0.6249 -0.0381
60635SOL     OW88762  11.186   6.824  10.060  0.0256  0.1113 -0.6100
60635SOL    HW188763  11.267   6.777  10.039  1.3371  1.9551  0.1149
60635SOL    HW288764  11.208   6.916  10.048 -1.0293  0.8939  2.5260
60636SOL     OW88765   2.101   5.223   4.915  0.3909  0.3544 -0.1229
60636SOL    HW188766   2.102   5.221   4.820  0.6684  0.5637 -0.1271
60636SOL    HW288767   2.080   5.134   4.942  3.0717 -0.4284 -0.3432
60637SOL     OW88768   2.222   7.124   9.518 -0.1404  0.0159  0.1803
60637SOL    HW188769   2.295   7.082   9.472 -0.7700 -1.0616  0.1245
60637SOL    HW288770   2.199   7.062   9.588 -0.2075  0.9135  0.9657
60638SOL     OW88771   5.799   3.470   3.933 -0.4485 -0.3744  0.1684
60638SOL    HW188772   5.768   3.517   4.011 -0.7164 -0.2048 -0.0389
60638SOL    HW288773   5.891   3.493   3.926 -0.5186 -0.0757  0.2088
60639SOL     OW88774   1.132   1.270   5.558  0.2062  0.6344 -0.4328
60639SOL    HW188775   1.103   1.222   5.636 -0.6226  0.5060 -0.8065
60639SOL    HW288776   1.206   1.322   5.588  0.4752 -0.1095  0.2251
60640SOL     OW88777   3.254   7.570  10.366 -0.2308  0.1699  0.1898
60640SOL    HW188778   3.219   7.516  10.437  1.6284  1.3748  2.1634
60640SOL    HW288779   3.349   7.556  10.370  0.1641  2.3571 -0.2360
60641SOL     OW88780   1.209   2.730   6.162  0.2112 -0.1603 -0.3185
60641SOL    HW188781   1.217   2.803   6.224  1.5118 -0.8414  0.3513
60641SOL    HW288782   1.142   2.759   6.100  0.3656  1.4129  0.1976
60642SOL     OW88783   2.697  11.087  11.143  0.3392 -0.2518 -0.2921
60642SOL    HW188784   2.696  11.124  11.055  1.7047  0.7914  0.1021
60642SOL    HW288785   2.764  11.018  11.140 -0.3090 -0.8987 -0.3096
60643SOL     OW88786  10.891  12.511   0.440  0.4916  0.1297 -0.1749
60643SOL    HW188787  10.970  12.539   0.394  1.4573 -1.5314  0.3522
60643SOL    HW288788  10.891  12.416   0.431 -0.7046 -0.0180  1.0192
60644SOL     OW88789   6.014   5.196  12.130  0.2810 -0.3208  0.4104
60644SOL    HW188790   6.057   5.182  12.214 -1.4514  2.3979  1.8795
60644SOL    HW288791   6.064   5.266  12.089 -0.6403  0.4724  0.5947
60645SOL     OW88792   2.574   7.289   7.285  0.5613  0.3628 -0.1812
60645SOL    HW188793   2.533   7.204   7.267 -0.6405  0.6859  0.8854
60645SOL    HW288794   2.557   7.341   7.206 -1.2179  0.5141  0.2652
60646SOL     OW88795   7.211   9.932   2.418  0.7174 -0.5440  0.4642
60646SOL    HW188796   7.299   9.893   2.424  0.6164 -0.8755 -0.1565
60646SOL    HW288797   7.159   9.881   2.480  0.9498 -0.3699  0.8093
60647SOL     OW88798   1.793   0.342   0.919  0.6048 -0.3189 -0.3259
60647SOL    HW188799   1.708   0.372   0.951  0.4131 -0.3379 -0.8131
60647SOL    HW288800   1.856   0.382   0.979  0.2939  0.2397 -0.3630
60648SOL     OW88801   4.329   3.789   8.002 -0.2705  0.2990 -0.0967
60648SOL    HW188802   4.335   3.741   7.919  2.0707 -0.0435  0.2079
60648SOL    HW288803   4.310   3.721   8.067 -1.1636  0.4303 -0.2110
60649SOL     OW88804   3.639   9.179   1.766  0.6002 -0.0795  0.5861
60649SOL    HW188805   3.614   9.271   1.765 -1.3208 -0.5031  2.3918
60649SOL    HW288806   3.714   9.175   1.826  0.0256  0.1933  1.3402
60650SOL     OW88807   7.929   7.695  10.283 -0.1246 -0.0482  0.0176
60650SOL    HW188808   7.859   7.650  10.330 -0.1887  0.5567  0.5103
60650SOL    HW288809   7.897   7.700  10.193  0.1683 -1.5520 -0.1996
60651SOL     OW88810   6.408   5.583   2.268  0.2441  0.1280  0.8438
60651SOL    HW188811   6.432   5.631   2.189  0.0244 -1.9560 -0.5645
60651SOL    HW288812   6.351   5.642   2.317 -0.3047  1.1544 -0.9724
60652SOL     OW88813   4.374   4.210   8.749 -0.1034  0.6622  0.4870
60652SOL    HW188814   4.453   4.263   8.752 -0.1011  0.6534  0.5886
60652SOL    HW288815   4.402   4.122   8.774  0.2251  0.2043 -1.3650
60653SOL     OW88816   1.218   3.811   4.867  0.6064 -0.0834  0.0267
60653SOL    HW188817   1.224   3.724   4.908  0.0546 -0.8274 -1.3911
60653SOL    HW288818   1.252   3.871   4.933 -0.5895 -1.1669  1.7251
60654SOL     OW88819  10.414   8.461  11.961  0.3576  0.3151 -0.8817
60654SOL    HW188820  10.407   8.557  11.956  0.8281  0.4449  0.5358
60654SOL    HW288821  10.504   8.442  11.937  0.5144  0.3171 -0.3159
60655SOL     OW88822   7.002  12.198  10.908 -0.2814 -0.3493 -0.6044
60655SOL    HW188823   7.031  12.251  10.833  0.8954 -0.6317 -0.3546
60655SOL    HW288824   7.073  12.136  10.923 -0.3058 -0.0251  1.0106
60656SOL     OW88825   8.497  11.898   8.226  0.0586  0.1824 -0.4810
60656SOL    HW188826   8.544  11.830   8.177  1.6645  0.3703  0.7002
60656SOL    HW288827   8.432  11.850   8.277  0.5566 -0.3687 -0.3557
60657SOL     OW88828  12.381   5.374   3.263 -0.0258  0.5695  0.2359
60657SOL    HW188829  12.336   5.320   3.198 -1.0414  1.2583  0.3623
60657SOL    HW288830  12.458   5.408   3.216  0.4043 -0.6237  0.0331
60658SOL     OW88831   8.307  11.934   7.113 -0.3637  0.3579  0.0963
60658SOL    HW188832   8.362  11.916   7.189 -2.4558  0.7581  1.8100
60658SOL    HW288833   8.322  12.026   7.094  1.0766 -0.0301 -0.8112
60659SOL     OW88834  11.065   3.768   1.972  0.0846  0.1520  0.3488
60659SOL    HW188835  10.970   3.777   1.961 -0.1056 -1.9990 -0.2716
60659SOL    HW288836  11.102   3.828   1.908 -0.8617  0.6722  0.2661
60660SOL     OW88837   5.178   3.006   5.790 -0.1650 -0.2363  0.1141
60660SOL    HW188838   5.107   2.954   5.753 -0.1983  0.1518 -0.3664
60660SOL    HW288839   5.227   2.944   5.845 -0.2177 -0.7717 -0.4314
60661SOL     OW88840   2.912   9.186   5.795  0.0076  0.2125 -0.2079
60661SOL    HW188841   2.958   9.232   5.865  0.1454 -1.2838  0.7444
60661SOL    HW288842   2.851   9.250   5.759  0.9027  1.4201  0.3488
60662SOL     OW88843  11.587   2.615   2.290  0.2124  0.3033 -0.0803
60662SOL    HW188844  11.548   2.662   2.363  0.5189 -0.4070  0.5437
60662SOL    HW288845  11.601   2.682   2.223 -0.3793  0.8915  0.3818
60663SOL     OW88846   7.481   2.389   3.070 -0.0244 -0.4340  0.4558
60663SOL    HW188847   7.532   2.417   2.994  1.2380 -0.5785  1.2228
60663SOL    HW288848   7.485   2.462   3.131 -1.5283 -0.0867  0.1809
60664SOL     OW88849   7.189  11.464  10.811 -0.2864 -0.3334  0.4047
60664SOL    HW188850   7.159  11.374  10.806  0.5450 -0.5512 -1.4727
60664SOL    HW288851   7.180  11.498  10.722 -0.8108  1.5336  1.1100
60665SOL     OW88852  10.851   6.243   0.339 -0.0868  0.0622 -0.3515
60665SOL    HW188853  10.811   6.324   0.307 -2.4977 -0.4489  1.1078
60665SOL    HW288854  10.798   6.173   0.302 -1.5593 -0.6129  2.6905
60666SOL     OW88855  10.416   3.603   3.293  0.7854 -0.5787  0.2641
60666SOL    HW188856  10.387   3.640   3.377  2.5332 -0.3546  0.8173
60666SOL    HW288857  10.512   3.612   3.295  1.0485 -2.6038 -0.8004
60667SOL     OW88858   4.086   3.248   8.675  0.0625 -0.5767 -0.2956
60667SOL    HW188859   4.060   3.252   8.767  0.9099 -0.7926 -0.0364
60667SOL    HW288860   4.083   3.339   8.645 -1.4560 -0.6486 -0.4247
60668SOL     OW88861   5.167  11.687   7.630  0.1059 -0.2510  0.1788
60668SOL    HW188862   5.124  11.640   7.558 -0.3139  0.7129 -0.2266
60668SOL    HW288863   5.101  11.750   7.659  0.1691 -0.8244  1.6231
60669SOL     OW88864   8.450   9.927   4.230  0.2745 -0.5479 -0.3719
60669SOL    HW188865   8.387   9.882   4.287 -0.9804 -0.6644 -1.7842
60669SOL    HW288866   8.395   9.968   4.163  1.3948  2.5357  0.4359
60670SOL     OW88867   8.834   1.537   0.288 -0.1481  0.0682  0.3564
60670SOL    HW188868   8.865   1.587   0.363  0.8902 -0.5613  0.3652
60670SOL    HW288869   8.770   1.594   0.246  1.2795  1.5879  0.1273
60671SOL     OW88870  12.473  10.954  11.357 -0.0689 -0.5154 -0.5178
60671SOL    HW188871  12.565  10.951  11.329 -0.3599  2.2354 -2.1912
60671SOL    HW288872  12.470  11.023  11.423 -0.8933 -0.6772 -0.3772
60672SOL     OW88873   3.931   6.755   4.238 -0.0361 -0.2731  0.0474
60672SOL    HW188874   3.876   6.747   4.160  0.6220  1.7637 -0.7150
60672SOL    HW288875   3.885   6.818   4.294  0.5531 -0.0477  0.2882
60673SOL     OW88876  10.287   0.776   4.370  0.0595  0.2294 -0.5009
60673SOL    HW188877  10.275   0.792   4.464  0.9957 -0.5016 -0.2349
60673SOL    HW288878  10.199   0.782   4.333 -0.2086  1.4126  0.2757
60674SOL     OW88879  12.019   3.083  11.731  0.1176 -0.3267 -0.2710
60674SOL    HW188880  12.079   3.155  11.715 -1.7447  1.4390  0.2923
60674SOL    HW288881  11.994   3.051  11.644  1.2679 -0.5853 -0.5123
60675SOL     OW88882   9.304   5.709   9.332  0.2045 -0.2765  0.5359
60675SOL    HW188883   9.267   5.622   9.350 -0.5660  0.0937  0.7931
60675SOL    HW288884   9.340   5.738   9.416 -1.4824  0.5496  1.0185
60676SOL     OW88885   2.441  10.813   8.756 -0.1699 -0.1940 -0.5907
60676SOL    HW188886   2.497  10.777   8.687 -0.7394 -1.2982 -0.5017
60676SOL    HW288887   2.364  10.845   8.710  1.0715  2.6489 -0.8859
60677SOL     OW88888   3.189   5.275   8.264  0.3682 -0.3438  0.6290
60677SOL    HW188889   3.142   5.296   8.183 -0.1995 -2.7887  0.2349
60677SOL    HW288890   3.159   5.340   8.327 -1.7716 -0.3615 -0.2672
60678SOL     OW88891   3.562  12.164   9.599  0.1454 -0.4678  0.1380
60678SOL    HW188892   3.514  12.132   9.523  1.6451 -1.8709 -0.2758
60678SOL    HW288893   3.593  12.250   9.574 -0.0431 -0.5918 -0.5286
60679SOL     OW88894   8.955   1.418   3.733 -0.4688  0.5569 -0.1967
60679SOL    HW188895   9.004   1.338   3.755 -0.2544  1.6129  3.8502
60679SOL    HW288896   9.023   1.482   3.709 -0.1864  0.8338  1.2808
60680SOL     OW88897  11.815   5.296   2.376 -0.2735 -0.1864  0.1805
60680SOL    HW188898  11.720   5.293   2.389 -0.0889 -1.4724  1.3349
60680SOL    HW288899  11.851   5.237   2.442  1.3134 -0.0419 -0.5120
60681SOL     OW88900   6.421   2.911   1.430  0.1363 -0.0536  0.3375
60681SOL    HW188901   6.437   2.913   1.524  2.4030  0.5969 -0.0249
60681SOL    HW288902   6.373   2.829   1.416 -1.9510  0.7405  2.2455
60682SOL     OW88903   5.702  10.460   3.042  0.5113  0.1229 -1.0478
60682SOL    HW188904   5.608  10.450   3.056  0.7819 -2.2550 -0.5490
60682SOL    HW288905   5.729  10.526   3.106 -0.2242 -2.0489  1.7180
60683SOL     OW88906   0.172   0.298  11.958 -0.0310  0.0815 -0.1285
60683SOL    HW188907   0.265   0.318  11.972 -0.1180  0.1163  0.4045
60683SOL    HW288908   0.128   0.330  12.037 -0.7708  1.9416 -1.2043
60684SOL     OW88909   1.089   7.119   9.890  0.3311 -0.1742 -0.1989
60684SOL    HW188910   1.062   7.189   9.950  0.1361 -0.2102 -0.2474
60684SOL    HW288911   1.171   7.152   9.851 -0.1632  0.3716 -0.8002
60685SOL     OW88912   8.161  10.539   0.752  0.3008  0.3678 -0.5774
60685SOL    HW188913   8.216  10.544   0.674  0.0134  0.5196 -0.7680
60685SOL    HW288914   8.127  10.449   0.752  1.7737 -0.2444  0.3727
60686SOL     OW88915   7.776   6.078   4.931  0.2483 -0.1767 -0.1851
60686SOL    HW188916   7.733   5.993   4.940 -1.2788  0.5761  0.0652
60686SOL    HW288917   7.859   6.069   4.977  0.9245 -2.0494 -1.6659
60687SOL     OW88918   2.322   9.078   2.746 -0.5861  0.4143  1.1323
60687SOL    HW188919   2.286   9.161   2.778 -0.1388 -0.2528  3.5898
60687SOL    HW288920   2.416   9.089   2.752 -0.5278 -0.6536  2.6776
60688SOL     OW88921   3.945   3.494   1.168 -0.0728  0.7498 -0.5165
60688SOL    HW188922   3.920   3.410   1.128 -0.2831  0.7739 -0.4386
60688SOL    HW288923   3.948   3.555   1.095 -0.7820  0.8670 -0.4541
60689SOL     OW88924   3.457   8.793   9.942  0.2573 -0.1963 -0.0031
60689SOL    HW188925   3.528   8.806   9.879  0.8148  1.6252  0.9215
60689SOL    HW288926   3.436   8.882   9.972 -2.2175 -0.7223 -0.0255
60690SOL     OW88927   2.998   5.931   3.210  0.0105  0.2275 -0.1700
60690SOL    HW188928   2.980   5.979   3.129 -1.4686 -1.5786 -0.9849
60690SOL    HW288929   2.911   5.904   3.241  0.7265 -1.0966  0.7559
60691SOL     OW88930   4.234   6.475  10.015  0.1904 -0.3054  0.5224
60691SOL    HW188931   4.173   6.540   9.980 -0.9884 -2.3699 -1.4559
60691SOL    HW288932   4.290   6.453   9.941  1.3544 -0.6993  1.4950
60692SOL     OW88933   2.446   3.097   0.473  0.2322 -0.2435  0.1824
60692SOL    HW188934   2.466   3.076   0.564  0.2420  0.4733  0.3545
60692SOL    HW288935   2.425   3.013   0.433  3.5049 -1.0717 -0.0282
60693SOL     OW88936   6.210  10.738   4.530 -0.0198 -0.3325  0.0239
60693SOL    HW188937   6.214  10.791   4.450 -1.5011  0.5302  0.4808
60693SOL    HW288938   6.167  10.657   4.503  0.5281 -0.5324 -0.2753
60694SOL     OW88939   1.880   7.506   6.615  0.6125 -1.0901  0.6190
60694SOL    HW188940   1.932   7.554   6.680  0.5808 -0.8545  0.4696
60694SOL    HW288941   1.942   7.487   6.544  0.7866 -1.8307  0.9615
60695SOL     OW88942   6.304  10.066  11.373  0.1232  0.4496  0.2727
60695SOL    HW188943   6.217  10.064  11.333 -0.0127  0.1201  0.5708
60695SOL    HW288944   6.287  10.080  11.466  0.2056 -2.2176  0.7636
60696SOL     OW88945  10.001   2.984  11.986 -0.3947 -0.0638 -0.1850
60696SOL    HW188946   9.963   3.025  12.064  0.2383 -0.5070  0.3628
60696SOL    HW288947   9.936   2.998  11.918 -1.3972 -0.5353  0.6598
60697SOL     OW88948  12.323   4.502   4.112  0.8391  0.0728 -0.3143
60697SOL    HW188949  12.411   4.536   4.131  0.7637  0.3780 -0.4948
60697SOL    HW288950  12.279   4.575   4.067  0.2729  0.1570  0.3646
60698SOL     OW88951   2.195   9.624   3.199 -0.1906 -0.4466 -0.5513
60698SOL    HW188952   2.256   9.697   3.206  0.1339 -0.6104 -1.4555
60698SOL    HW288953   2.202   9.578   3.283 -0.8512  0.8951  0.2580
60699SOL     OW88954  10.048  10.357  11.145  0.0544 -0.5497 -0.6376
60699SOL    HW188955   9.986  10.287  11.165 -0.0398 -0.1506  0.5004
60699SOL    HW288956  10.134  10.316  11.152  0.0039 -0.5304  0.1596
60700SOL     OW88957   4.219   5.965   9.543 -0.0795 -0.5328  0.0830
60700SOL    HW188958   4.171   5.940   9.622  1.7991  0.4405  1.6071
60700SOL    HW288959   4.172   6.041   9.509  1.0506  1.3340  2.3830
60701SOL     OW88960   6.488  11.477   6.022  0.4554 -0.0272 -0.1303
60701SOL    HW188961   6.541  11.401   5.998  0.2358 -0.5247  0.9096
60701SOL    HW288962   6.398  11.449   6.006  0.4790  0.9160 -2.1671
60702SOL     OW88963   4.496   7.795   6.821 -0.4754  0.4220  0.6128
60702SOL    HW188964   4.538   7.811   6.905 -0.6637  0.4165  0.7083
60702SOL    HW288965   4.565   7.809   6.756 -0.2339  0.0432  0.7922
60703SOL     OW88966   9.994  11.843   0.779 -0.5108 -0.0242 -0.7278
60703SOL    HW188967   9.929  11.913   0.787 -0.6083 -0.3440  2.5100
60703SOL    HW288968   9.947  11.763   0.802  0.4525 -0.6361 -0.8067
60704SOL     OW88969   1.769   1.791   3.124  0.7031 -0.7329  0.4681
60704SOL    HW188970   1.820   1.813   3.203 -0.4131 -0.3101  1.0876
60704SOL    HW288971   1.814   1.837   3.053  2.0061 -1.4991  0.7573
60705SOL     OW88972   4.669   4.892   4.133 -0.5983 -0.3073  0.0783
60705SOL    HW188973   4.667   4.849   4.047 -0.1770  1.7765 -1.0166
60705SOL    HW288974   4.578   4.913   4.151 -1.0268 -2.8465  1.3208
60706SOL     OW88975   7.798  11.694   7.325 -0.2205  0.1447 -0.0526
60706SOL    HW188976   7.757  11.745   7.395 -0.9057 -0.5361  0.0389
60706SOL    HW288977   7.765  11.605   7.336 -1.3471  0.2665 -2.0081
60707SOL     OW88978   8.283   4.710   1.411 -0.2491 -0.2126  0.2003
60707SOL    HW188979   8.304   4.659   1.333  0.3495  0.2691  0.0297
60707SOL    HW288980   8.260   4.797   1.377  1.0212  0.3021  0.5958
60708SOL     OW88981   1.954   0.287   7.120  0.8508 -0.0384  0.0272
60708SOL    HW188982   1.894   0.340   7.067  0.5945 -1.0024 -0.6750
60708SOL    HW288983   2.036   0.290   7.072  0.8296 -0.2943 -0.0246
60709SOL     OW88984   8.393   6.715   2.817 -0.2955 -0.2111 -0.3211
60709SOL    HW188985   8.442   6.776   2.761  1.9249 -0.2913  1.3996
60709SOL    HW288986   8.330   6.674   2.758  1.6083  0.0163 -2.6745
60710SOL     OW88987   7.974  10.637   5.742 -0.3471  0.2111 -0.8506
60710SOL    HW188988   8.042  10.581   5.780 -2.5739 -1.3756  1.1731
60710SOL    HW288989   8.020  10.693   5.680  2.6304 -1.2980 -0.1916
60711SOL     OW88990  11.417   3.618   3.178 -0.0650  0.7417 -0.1315
60711SOL    HW188991  11.421   3.713   3.192 -2.7245  1.0115 -0.6392
60711SOL    HW288992  11.442   3.607   3.086 -1.1701  1.1596 -0.5028
60712SOL     OW88993  12.229  11.464  10.223  0.2634  0.4305 -0.2616
60712SOL    HW188994  12.307  11.480  10.275 -0.1382  0.7929  0.2464
60712SOL    HW288995  12.208  11.549  10.185  0.2102  0.2987 -0.5282
60713SOL     OW88996   3.802  11.274   7.633  0.5372 -1.1162  0.2261
60713SOL    HW188997   3.710  11.270   7.660 -0.0360 -0.4773 -1.4957
60713SOL    HW288998   3.825  11.367   7.641  0.7141 -1.1122 -0.2901
60714SOL     OW88999  11.266   9.437   1.106  0.3682  0.4019  0.6714
60714SOL    HW189000  11.353   9.468   1.078  0.9281 -0.8385  0.9595
60714SOL    HW289001  11.280   9.406   1.196 -0.5396  0.8108  0.9657
60715SOL     OW89002   4.187   5.116   7.167 -0.1142  0.5954  0.2197
60715SOL    HW189003   4.171   5.110   7.073 -0.9470  1.5606  0.2883
60715SOL    HW289004   4.104   5.146   7.204  1.2744  4.2980  0.7723
60716SOL     OW89005   5.937   4.789   2.655 -0.3179  0.6201  0.0190
60716SOL    HW189006   5.867   4.780   2.589  0.8574 -0.9368 -1.0926
60716SOL    HW289007   5.960   4.699   2.677 -0.0718  1.1282  1.9468
60717SOL     OW89008   9.404   5.154  11.183  0.0355 -0.0514 -0.2280
60717SOL    HW189009   9.359   5.212  11.245 -0.3770 -0.8527  0.2283
60717SOL    HW289010   9.463   5.213  11.135 -1.6482  1.0835 -0.9992
60718SOL     OW89011  11.870   1.656   3.817  0.2394 -0.4055  0.5225
60718SOL    HW189012  11.905   1.712   3.748 -1.1014 -0.5471 -0.2957
60718SOL    HW289013  11.838   1.717   3.884 -0.1167 -0.2198  0.1838
60719SOL     OW89014  10.822  10.226   1.870 -0.3321  0.0725 -0.6012
60719SOL    HW189015  10.773  10.162   1.923 -2.4418 -1.9201 -4.5075
60719SOL    HW289016  10.799  10.311   1.908 -1.2536 -1.1928  1.9198
60720SOL     OW89017   9.250  10.276  12.416 -0.4927  0.0743 -0.6914
60720SOL    HW189018   9.256  10.345  12.481 -2.3927 -1.2291  1.0181
60720SOL    HW289019   9.168  10.231  12.437  0.1334 -2.0297 -2.3817
60721SOL     OW89020   3.686   5.250   2.465  0.2889 -0.2835  1.0528
60721SOL    HW189021   3.591   5.242   2.454  0.1749 -0.4690  2.0926
60721SOL    HW289022   3.713   5.310   2.395 -0.2523 -1.9911 -0.7152
60722SOL     OW89023  11.592  11.800  10.680 -0.2526  0.8174  0.3281
60722SOL    HW189024  11.607  11.894  10.671 -1.5913  1.2294  2.0279
60722SOL    HW289025  11.514  11.783  10.627  0.8996  0.3127 -1.2962
60723SOL     OW89026   6.661   3.210   5.790  0.1367  0.6666 -0.2555
60723SOL    HW189027   6.727   3.264   5.834  0.0534  0.0561  0.6450
60723SOL    HW289028   6.640   3.258   5.710  1.3155  1.1150 -0.3187
60724SOL     OW89029   1.244   5.415  10.630  0.4784  0.1100  0.3428
60724SOL    HW189030   1.238   5.510  10.622  0.2319  0.2785  2.1328
60724SOL    HW289031   1.155   5.383  10.616  0.8279 -0.0578 -1.9090
60725SOL     OW89032   3.296  11.174   1.642  0.6778  0.3020  0.3146
60725SOL    HW189033   3.326  11.088   1.671 -0.1691  0.2831  1.1928
60725SOL    HW289034   3.343  11.190   1.561  1.0970 -0.8425  0.3177
60726SOL     OW89035   9.118   5.933   3.663 -0.0828  0.0736  0.4763
60726SOL    HW189036   9.150   5.950   3.752  1.1717 -0.2092  0.1104
60726SOL    HW289037   9.037   5.982   3.657 -0.1037  0.2391  1.7225
60727SOL     OW89038   4.245  10.112   6.011 -0.1382  0.5002 -1.0614
60727SOL    HW189039   4.285  10.026   6.008  1.2024  1.1172 -1.7128
60727SOL    HW289040   4.160  10.101   5.967 -0.6558 -0.7829  0.1952
60728SOL     OW89041   5.451   5.479   3.770  0.2737 -0.5215  0.3735
60728SOL    HW189042   5.527   5.467   3.713  0.0576 -1.7065  0.3077
60728SOL    HW289043   5.376   5.455   3.716  0.0799 -1.7767  1.1611
60729SOL     OW89044   3.059   6.942  11.675  0.1847 -0.3898  0.5727
60729SOL    HW189045   3.057   7.027  11.631 -0.6450 -0.9315 -0.4680
60729SOL    HW289046   3.091   6.882  11.608 -1.3358 -1.2762  0.6106
60730SOL     OW89047   5.919   5.398   1.064 -0.2228  0.2917 -0.5559
60730SOL    HW189048   5.998   5.447   1.043 -0.3222  0.4790 -0.4956
60730SOL    HW289049   5.949   5.327   1.121  0.3532 -1.3369 -2.7485
60731SOL     OW89050   3.404   8.951   4.664 -0.1908 -0.0414  0.2597
60731SOL    HW189051   3.452   8.958   4.747  1.6484 -0.5863 -0.7064
60731SOL    HW289052   3.380   9.042   4.643  1.0086  0.3389  0.4540
60732SOL     OW89053   9.161   4.062   5.061  0.1058 -0.8062 -0.4272
60732SOL    HW189054   9.201   4.013   4.989  0.6061  1.2206 -1.5865
60732SOL    HW289055   9.233   4.074   5.124  0.4258 -0.1481 -0.9098
60733SOL     OW89056   4.193   0.577  11.639  0.6482 -0.0369 -0.3388
60733SOL    HW189057   4.149   0.516  11.698  0.2400  1.7694  1.3067
60733SOL    HW289058   4.133   0.650  11.631  1.5864  0.6514 -1.3926
60734SOL     OW89059   3.659   8.760  12.062 -0.3983  0.2259  0.5669
60734SOL    HW189060   3.699   8.744  12.147 -1.1991 -0.0862  0.8947
60734SOL    HW289061   3.699   8.842  12.032  0.1616  0.1432  1.0681
60735SOL     OW89062  11.459   1.052  10.315  0.3916  0.1255 -0.0278
60735SOL    HW189063  11.427   0.963  10.328 -0.0020  0.3739  0.7298
60735SOL    HW289064  11.486   1.054  10.223 -1.0641 -0.3026 -0.4905
60736SOL     OW89065  10.520   8.021  10.835 -0.6023  0.6655  0.2747
60736SOL    HW189066  10.471   8.079  10.777 -1.7009  1.4043  1.8734
60736SOL    HW289067  10.462   7.945  10.847  1.2498 -1.4743 -2.6739
60737SOL     OW89068   6.600   6.752   7.155  0.0846  0.0373  0.0691
60737SOL    HW189069   6.599   6.771   7.249 -1.0695 -0.7945  0.2423
60737SOL    HW289070   6.635   6.831   7.115  1.6266  0.0138  1.2755
60738SOL     OW89071  10.609   3.938   9.532 -0.3650 -0.2019 -0.1628
60738SOL    HW189072  10.516   3.957   9.540  0.2664  2.8970  1.2787
60738SOL    HW289073  10.632   3.967   9.444 -0.4387  0.8572  0.1538
60739SOL     OW89074   9.317  12.008   3.176  0.5232 -0.2836 -0.3099
60739SOL    HW189075   9.356  12.070   3.115  1.4514 -0.0968  0.4460
60739SOL    HW289076   9.251  11.962   3.125  0.8525  0.2955 -1.2777
60740SOL     OW89077   3.331  10.952  12.322  0.3938  0.7708  0.4943
60740SOL    HW189078   3.379  10.888  12.270  3.2730  2.2838  1.0884
60740SOL    HW289079   3.346  10.926  12.413 -1.4868  0.2843  0.7192
60741SOL     OW89080  11.383   7.033   4.402  0.1271 -0.0828  0.5234
60741SOL    HW189081  11.328   7.043   4.324  1.1048  1.0783 -0.0505
60741SOL    HW289082  11.343   7.091   4.467  1.1181  1.4741 -0.1826
60742SOL     OW89083  12.331   3.156  12.440  0.2683  0.0342 -0.4145
60742SOL    HW189084  12.254   3.198  12.478  1.0733 -0.5400  2.0536
60742SOL    HW289085  12.402   3.178  12.500  1.1624 -2.9925 -0.1969
60743SOL     OW89086   2.945  12.180   6.975 -0.3929  0.6678 -0.7753
60743SOL    HW189087   2.870  12.215   6.928 -1.2819 -0.0967  0.0322
60743SOL    HW289088   2.980  12.254   7.025 -1.1042  0.8437 -0.5332
60744SOL     OW89089   7.500   1.915   6.738  0.1005  0.3203  0.1021
60744SOL    HW189090   7.563   1.848   6.765  0.4028  0.8094  0.6221
60744SOL    HW289091   7.414   1.877   6.759  0.1626 -0.6033 -1.1676
60745SOL     OW89092   7.322   8.435   5.750 -0.5993 -0.2929  0.2609
60745SOL    HW189093   7.376   8.513   5.739  0.6257 -1.1342  0.0309
60745SOL    HW289094   7.273   8.428   5.668  0.7990 -0.8424 -0.5757
60746SOL     OW89095   5.381   7.712  12.120  0.2910 -0.3736  0.4918
60746SOL    HW189096   5.434   7.642  12.081  1.1175  0.0218  0.8852
60746SOL    HW289097   5.313   7.666  12.169  1.2522 -0.9217  1.3404
60747SOL     OW89098   0.432   2.334  10.124 -0.2979  0.3311  0.2834
60747SOL    HW189099   0.450   2.260  10.182 -0.0945 -0.0655 -0.2699
60747SOL    HW289100   0.517   2.355  10.085 -0.1823  1.4531  1.1138
60748SOL     OW89101   9.046  12.536   3.805  0.1075 -0.4395  0.0929
60748SOL    HW189102   9.106  12.565   3.874  0.8499  0.0474 -0.7457
60748SOL    HW289103   8.962  12.524   3.850  0.4062  0.5561  0.9416
60749SOL     OW89104   4.514   7.599   0.932 -0.2139 -0.4178  0.1001
60749SOL    HW189105   4.473   7.668   0.984 -0.7740 -0.9942  0.4461
60749SOL    HW289106   4.547   7.643   0.854  0.7532  0.4908  0.9979
60750SOL     OW89107   2.635   2.158   1.494  0.2144 -0.6378  0.0389
60750SOL    HW189108   2.635   2.085   1.555 -1.9922  0.1485  1.1046
60750SOL    HW289109   2.644   2.236   1.549 -0.6020  0.0253 -0.7294
60751SOL     OW89110   5.513  10.907  10.230 -0.5292  0.1171 -0.1107
60751SOL    HW189111   5.437  10.850  10.221 -0.1159 -0.4058 -0.3754
60751SOL    HW289112   5.495  10.960  10.308 -0.4451 -1.1348  0.7989
60752SOL     OW89113   3.531   2.830   6.598 -0.1834 -0.3193  0.3284
60752SOL    HW189114   3.459   2.769   6.584 -1.4307  1.5103 -1.9407
60752SOL    HW289115   3.509   2.906   6.544  4.0345 -0.1361 -1.5890
60753SOL     OW89116  10.176  12.556   0.141  0.5468 -0.2699 -0.0407
60753SOL    HW189117  10.133  12.508   0.069  0.2214  1.0298 -0.7391
60753SOL    HW289118  10.195  12.642   0.104  1.5921 -0.0260  1.0313
60754SOL     OW89119   7.884  11.391   1.291 -0.0522  0.4683 -0.5223
60754SOL    HW189120   7.940  11.315   1.304  0.1682  0.8847  1.2755
60754SOL    HW289121   7.804  11.357   1.250  0.2602 -0.6356 -0.2262
60755SOL     OW89122   0.670   5.831  10.092  0.0633 -0.2818  0.2065
60755SOL    HW189123   0.702   5.908  10.139 -0.2431 -1.0447  1.7237
60755SOL    HW289124   0.686   5.851   9.999 -2.6344  2.8826  0.2219
60756SOL     OW89125   4.754   5.806  12.479  0.6009  0.5346 -0.6812
60756SOL    HW189126   4.796   5.879  12.526  0.5123  1.1081 -1.4761
60756SOL    HW289127   4.820   5.776  12.417  1.6230 -1.8227  1.3756
60757SOL     OW89128   3.020  10.727   8.661  0.2379 -0.6823 -0.4941
60757SOL    HW189129   3.034  10.676   8.582 -3.0153 -1.7663 -0.5065
60757SOL    HW289130   3.045  10.816   8.637  2.9750 -1.6143 -1.4586
60758SOL     OW89131   2.879  11.206   2.679 -0.1273 -0.3968  0.1697
60758SOL    HW189132   2.818  11.136   2.656 -1.0131 -0.2085  1.7339
60758SOL    HW289133   2.920  11.176   2.760 -0.7567  0.9916  1.0510
60759SOL     OW89134   2.173   4.099   3.055 -0.0108  0.5636  0.0531
60759SOL    HW189135   2.119   4.157   3.110 -1.1031  0.2484 -0.6475
60759SOL    HW289136   2.111   4.064   2.991  1.0579  0.2188 -0.8067
60760SOL     OW89137   4.639   9.520   7.329  0.1139  0.4632  0.1817
60760SOL    HW189138   4.713   9.461   7.347  0.8371  0.6396 -1.9920
60760SOL    HW289139   4.624   9.564   7.413  1.5360 -0.6041  1.0600
60761SOL     OW89140  10.558   2.709   8.887 -0.1280  0.0413  0.2625
60761SOL    HW189141  10.543   2.741   8.976 -0.7288 -1.1204  0.5903
60761SOL    HW289142  10.624   2.640   8.897  0.1524  0.2324 -0.2543
60762SOL     OW89143   7.956   0.423   5.905  0.1661  0.2669  0.3294
60762SOL    HW189144   7.888   0.426   5.973 -0.2167  2.7877 -0.0832
60762SOL    HW289145   7.910   0.394   5.826 -0.4178  1.6440  0.1328
60763SOL     OW89146  10.066   1.011   7.684 -0.5012 -0.0041 -0.3730
60763SOL    HW189147   9.993   1.055   7.639 -0.4538  0.0930 -0.3538
60763SOL    HW289148  10.131   0.997   7.616 -1.3568 -1.9348 -0.8774
60764SOL     OW89149   9.241   5.334  11.746 -0.3174 -0.2364  0.0814
60764SOL    HW189150   9.322   5.360  11.703 -0.0811  0.7748  1.0674
60764SOL    HW289151   9.172   5.362  11.686  0.0215  0.6630  0.0876
60765SOL     OW89152   9.494  11.747   6.047 -0.0979  0.4513  0.8680
60765SOL    HW189153   9.587  11.730   6.062 -0.5370 -0.7878  2.5624
60765SOL    HW289154   9.489  11.840   6.027  1.7671  0.0487 -2.0198
60766SOL     OW89155   3.867   0.489   4.218 -0.3113  0.3341  0.3191
60766SOL    HW189156   3.778   0.455   4.203 -0.3945  0.2563  0.9751
60766SOL    HW289157   3.887   0.465   4.308  1.3061 -1.7309 -0.5192
60767SOL     OW89158   5.164   5.119   9.231  0.3937  0.3652  0.0270
60767SOL    HW189159   5.162   5.029   9.199  0.5913  0.7436 -1.0997
60767SOL    HW289160   5.258   5.141   9.237  0.4558 -0.2075  2.4657
60768SOL     OW89161   1.052   5.741   2.981  0.1985  0.7878  0.0524
60768SOL    HW189162   1.042   5.788   3.064 -2.9698 -2.4045  1.7096
60768SOL    HW289163   1.093   5.658   3.005 -0.9729 -0.2991 -1.5324
60769SOL     OW89164   4.190   5.846  11.659  0.3930  0.0112 -0.5819
60769SOL    HW189165   4.136   5.864  11.582  0.4257  1.0043 -0.3880
60769SOL    HW289166   4.263   5.794  11.626  1.2938  1.7934 -1.5593
60770SOL     OW89167   6.428   4.117   5.096  0.0907 -0.5681  0.5484
60770SOL    HW189168   6.338   4.091   5.115  0.4900 -1.3510  1.4776
60770SOL    HW289169   6.453   4.173   5.170 -0.6891  2.4955 -1.3210
60771SOL     OW89170   1.715   8.113   0.333  0.3637 -0.2942 -0.3943
60771SOL    HW189171   1.639   8.056   0.317  0.6241 -0.8116  0.2012
60771SOL    HW289172   1.754   8.125   0.246  0.2106 -0.8899 -0.5496
60772SOL     OW89173  11.116  11.520   0.863  0.0155 -0.1651  0.1692
60772SOL    HW189174  11.122  11.435   0.819  0.1105 -0.8208  1.4063
60772SOL    HW289175  11.081  11.500   0.950  1.6946  0.8125  1.1338
60773SOL     OW89176   7.940   7.556   5.578  0.4019  0.1837  0.1087
60773SOL    HW189177   7.865   7.611   5.599  0.7326  1.0667 -0.9459
60773SOL    HW289178   7.947   7.560   5.483  2.7646  1.4382  0.2728
60774SOL     OW89179   1.143  11.726   3.041  0.4310 -0.1859  0.7895
60774SOL    HW189180   1.164  11.805   2.992 -0.4296 -0.8273 -0.6777
60774SOL    HW289181   1.218  11.714   3.100  1.8344  0.2852 -0.8029
60775SOL     OW89182   5.317   0.993   0.910  0.2217 -0.5133 -0.0702
60775SOL    HW189183   5.292   1.058   0.975  0.8975  0.4591 -0.7561
60775SOL    HW289184   5.250   0.999   0.842 -0.7964 -1.9164  0.7487
60776SOL     OW89185   8.927   2.214   9.220 -0.4340  0.1987  0.3157
60776SOL    HW189186   8.905   2.284   9.158  1.6024  1.0546  0.4922
60776SOL    HW289187   9.008   2.177   9.186 -0.1919 -0.4420  1.5690
60777SOL     OW89188   8.019   0.684   1.046 -0.2301 -0.0852  0.7669
60777SOL    HW189189   7.947   0.729   1.090 -0.4415  0.2433  0.0984
60777SOL    HW289190   8.052   0.748   0.983 -2.1754 -1.6300 -2.0420
60778SOL     OW89191  12.298   8.488   6.097  0.5340 -0.4481 -0.2924
60778SOL    HW189192  12.252   8.451   6.172  0.4149  0.6264  0.1807
60778SOL    HW289193  12.232   8.540   6.051  1.0008  0.2433 -0.2026
60779SOL     OW89194   9.433   7.019   6.783  0.2216 -0.5281  0.2408
60779SOL    HW189195   9.410   7.041   6.873 -0.2794 -0.0437 -0.0009
60779SOL    HW289196   9.448   6.924   6.785  1.6392 -0.3140  1.1246
60780SOL     OW89197   0.799   1.716   2.018  0.0401 -0.2004  0.8629
60780SOL    HW189198   0.858   1.641   2.025  0.1430 -0.7110 -3.2614
60780SOL    HW289199   0.844   1.785   2.068  1.7936 -1.8037  1.6436
60781SOL     OW89200  12.003  10.741   3.874 -0.1543  0.3178  0.6177
60781SOL    HW189201  11.914  10.760   3.843 -0.1870  1.5107  1.3811
60781SOL    HW289202  11.994  10.730   3.969  0.0563 -2.5856  0.4172
60782SOL     OW89203   9.802   2.222  11.757  0.4012 -0.2104  0.0451
60782SOL    HW189204   9.862   2.293  11.779 -0.5291  0.4845  0.3793
60782SOL    HW289205   9.728   2.265  11.715 -0.3908 -0.9215  0.6824
60783SOL     OW89206   1.408   2.458   4.380  0.0432  0.3995  0.5175
60783SOL    HW189207   1.452   2.381   4.344  2.9680  1.1786  2.1178
60783SOL    HW289208   1.405   2.443   4.474 -1.1650  1.3874  0.6686
60784SOL     OW89209   8.696   5.136   2.645 -0.8556 -0.6395 -0.0626
60784SOL    HW189210   8.743   5.135   2.728  0.8268 -2.0170 -0.9801
60784SOL    HW289211   8.762   5.113   2.579 -2.4757 -1.1246 -1.5970
60785SOL     OW89212   6.672   5.021   0.384  0.2067 -0.7384  0.3638
60785SOL    HW189213   6.618   5.074   0.443 -0.8055 -0.2807 -0.9405
60785SOL    HW289214   6.609   4.982   0.323  1.3819  0.0729 -1.4142
60786SOL     OW89215   3.611   0.366   4.199 -0.3764  0.0798  0.1616
60786SOL    HW189216   3.607   0.430   4.128  0.5904  0.7479  0.6870
60786SOL    HW289217   3.520   0.356   4.227 -0.5609  1.1040 -0.0410
60787SOL     OW89218   3.456   0.562   9.482 -0.3195 -0.2541 -0.2707
60787SOL    HW189219   3.401   0.629   9.523  0.0672  0.7389 -1.3183
60787SOL    HW289220   3.506   0.525   9.555  0.2051  1.3173  0.2173
60788SOL     OW89221   7.299  10.584  10.771 -0.3052  0.2825  0.0105
60788SOL    HW189222   7.329  10.499  10.804  1.2436  0.9401  0.3919
60788SOL    HW289223   7.220  10.603  10.821  1.0318  0.4672  2.1497
60789SOL     OW89224   4.132   6.119   9.828 -0.1517 -0.0458  0.4245
60789SOL    HW189225   4.087   6.048   9.782 -1.1621  1.2781 -0.7409
60789SOL    HW289226   4.090   6.199   9.795  2.8471  1.2813 -0.5322
60790SOL     OW89227  12.113   8.685   8.067 -0.5113  0.5951 -0.0800
60790SOL    HW189228  12.193   8.633   8.066 -0.5697  0.3279  2.3822
60790SOL    HW289229  12.143   8.774   8.089 -0.9199  0.1972  2.4237
60791SOL     OW89230   7.979   9.779   2.161 -0.3734  0.2109 -0.1891
60791SOL    HW189231   8.068   9.805   2.183  0.1610 -0.9573 -0.9017
60791SOL    HW289232   7.950   9.843   2.096  0.3840 -0.0905 -0.8348
60792SOL     OW89233   5.858   2.176   8.481 -0.0324 -0.1630 -0.3804
60792SOL    HW189234   5.909   2.254   8.499  0.5761 -0.7480  0.5114
60792SOL    HW289235   5.877   2.117   8.554 -0.5795 -1.0944 -0.9633
60793SOL     OW89236   6.707   9.149  12.427  0.0410 -0.4826  0.1671
60793SOL    HW189237   6.616   9.137  12.455 -0.1519  1.0260  0.2973
60793SOL    HW289238   6.706   9.129  12.333 -1.0106  1.8870 -0.4106
60794SOL     OW89239   8.218   9.451   2.453 -0.3919 -0.5026  0.4192
60794SOL    HW189240   8.171   9.461   2.370 -0.5678  0.3068  0.6068
60794SOL    HW289241   8.243   9.540   2.477  0.2891 -0.8068  0.8783
60795SOL     OW89242   8.507   2.756   1.641  0.4774 -0.4899  0.1079
60795SOL    HW189243   8.445   2.825   1.666 -0.9618 -1.3569 -0.8969
60795SOL    HW289244   8.538   2.782   1.554  0.5085 -0.7154  0.0508
60796SOL     OW89245  10.142   9.891   6.737  0.3134  0.6872  0.1360
60796SOL    HW189246  10.047   9.877   6.742  0.3636  0.2358 -0.1089
60796SOL    HW289247  10.160   9.894   6.643  0.7911 -1.0285  0.1374
60797SOL     OW89248   0.662   2.900   2.496  0.5801 -0.1937 -0.9063
60797SOL    HW189249   0.709   2.817   2.499 -1.0824 -1.2179 -1.3941
60797SOL    HW289250   0.653   2.919   2.402  1.1468  0.6698 -0.7957
60798SOL     OW89251  10.581   3.668   8.151 -0.5544 -0.3733 -0.0643
60798SOL    HW189252  10.560   3.679   8.244  0.2830 -0.0627  0.0977
60798SOL    HW289253  10.546   3.747   8.109 -0.6259 -0.3494  0.0403
60799SOL     OW89254   9.668   5.196   8.642 -0.8179 -0.0537 -0.0185
60799SOL    HW189255   9.611   5.121   8.624 -1.0297  0.4938 -1.8569
60799SOL    HW289256   9.664   5.248   8.562  1.7864  0.3101  0.0165
60800SOL     OW89257   0.020   9.489   4.043 -0.5152 -0.1891 -0.4303
60800SOL    HW189258  -0.062   9.472   4.089 -0.2419 -0.8133 -0.1626
60800SOL    HW289259  -0.001   9.473   3.951 -1.0401  0.9790 -0.5266
60801SOL     OW89260   7.093   3.749  11.951  0.1611  0.7814  0.1470
60801SOL    HW189261   7.033   3.806  11.904 -0.0034  0.9891  0.6126
60801SOL    HW289262   7.146   3.709  11.882 -0.5659  0.5283 -0.2751
60802SOL     OW89263  12.101   5.921   4.487  0.3893  0.0827 -0.7112
60802SOL    HW189264  12.165   5.913   4.416  0.1628  0.0486 -0.9097
60802SOL    HW289265  12.142   5.981   4.549  1.3576 -1.2178 -0.0413
60803SOL     OW89266  12.285   0.896   3.834 -0.7527 -0.3068  0.5375
60803SOL    HW189267  12.357   0.959   3.835 -1.0140  0.0363  2.3170
60803SOL    HW289268  12.327   0.812   3.815 -0.4058  0.3495 -1.9185
60804SOL     OW89269  11.358   2.671   6.821  0.4419 -0.1716  0.5945
60804SOL    HW189270  11.368   2.579   6.845 -1.1871  0.0347  2.1733
60804SOL    HW289271  11.360   2.670   6.725 -0.3951 -1.9585  0.5554
60805SOL     OW89272   0.790   2.535  12.085 -0.4807  0.5228 -0.3795
60805SOL    HW189273   0.714   2.551  12.142 -0.1808  1.6725 -0.2822
60805SOL    HW289274   0.767   2.575  12.002 -0.3659  0.0188 -0.6601
60806SOL     OW89275   7.187   7.292   7.798  0.3889  0.1121 -0.3816
60806SOL    HW189276   7.176   7.271   7.890  0.5964 -0.7387 -0.5397
60806SOL    HW289277   7.281   7.281   7.782  0.1501 -1.2704 -1.0319
60807SOL     OW89278   6.565   8.584   8.303  0.4232 -0.3072  0.9677
60807SOL    HW189279   6.485   8.595   8.356 -0.2678 -1.5346  0.2329
60807SOL    HW289280   6.613   8.665   8.316 -0.0702 -0.2648  2.8921
60808SOL     OW89281   7.342  12.056   5.510 -0.4090 -0.3139 -0.2949
60808SOL    HW189282   7.328  12.079   5.418 -2.6984 -0.1227  0.0457
60808SOL    HW289283   7.316  11.965   5.516  1.6995 -0.9621 -0.1861
60809SOL     OW89284   5.233   0.720   5.458 -0.5054 -0.0309  0.0684
60809SOL    HW189285   5.173   0.724   5.382 -0.1672 -2.0196 -0.3555
60809SOL    HW289286   5.179   0.686   5.529 -0.3164 -0.1315  0.1643
60810SOL     OW89287   7.178   6.514   6.820 -0.1514  0.3525  0.1468
60810SOL    HW189288   7.191   6.597   6.866 -3.2397  0.7171  0.5815
60810SOL    HW289289   7.203   6.447   6.884  0.6227  0.9022  0.4375
60811SOL     OW89290   6.770  11.498   7.932 -0.4751 -0.1191 -0.2233
60811SOL    HW189291   6.827  11.485   8.008 -0.4201  0.8378 -0.0804
60811SOL    HW289292   6.704  11.429   7.939 -0.5404  0.0270  0.7700
60812SOL     OW89293  10.489  11.149   4.802  0.1317  0.2032  0.1405
60812SOL    HW189294  10.465  11.134   4.893  2.4331 -3.0149  0.3975
60812SOL    HW289295  10.433  11.090   4.752 -0.4317  1.2189 -0.4662
60813SOL     OW89296  12.042  10.332   2.431 -0.1333 -0.6819  0.0091
60813SOL    HW189297  12.042  10.272   2.357 -2.5340  0.7146 -1.2532
60813SOL    HW289298  11.961  10.312   2.479 -0.2170  0.4930  0.4125
60814SOL     OW89299  12.512   7.907   5.232  0.0138 -0.2552 -0.6425
60814SOL    HW189300  12.516   7.840   5.301  1.3347 -0.8174 -1.2328
60814SOL    HW289301  12.450   7.871   5.168 -0.8989  0.0793  0.0340
60815SOL     OW89302   4.734  10.476   5.511  0.1146  0.4257 -0.4624
60815SOL    HW189303   4.746  10.510   5.599 -0.7136  1.9784 -0.9111
60815SOL    HW289304   4.664  10.529   5.474  0.5604 -0.0763 -2.1137
60816SOL     OW89305   7.410   8.903  12.119 -0.2109  0.3245  0.1404
60816SOL    HW189306   7.348   8.891  12.191  0.5943  0.2722  0.8468
60816SOL    HW289307   7.391   8.991  12.085  0.1474  0.8228  1.1821
60817SOL     OW89308   5.662   2.885   6.456 -0.4288 -0.2272 -0.1632
60817SOL    HW189309   5.695   2.957   6.401 -1.6096  1.6310  1.4082
60817SOL    HW289310   5.569   2.879   6.435 -0.7477  0.0327  1.0651
60818SOL     OW89311   8.505  12.047   9.360 -0.3443  0.1710 -0.0817
60818SOL    HW189312   8.504  11.954   9.383  0.4854  0.2496  0.3207
60818SOL    HW289313   8.416  12.078   9.378  0.4327  0.5091  4.2927
60819SOL     OW89314   7.252   2.674   4.846 -0.3154  0.2670  0.2189
60819SOL    HW189315   7.181   2.676   4.782 -0.9601 -2.3430  0.7571
60819SOL    HW289316   7.332   2.685   4.794 -0.8576 -1.3017 -1.0252
60820SOL     OW89317   1.487   8.720   7.481 -0.0048 -0.7037 -0.5713
60820SOL    HW189318   1.455   8.756   7.564 -1.5857 -2.1845 -0.4915
60820SOL    HW289319   1.515   8.797   7.432 -0.7044  0.3777  0.6370
60821SOL     OW89320   2.957   0.139   3.873  0.6879  0.2754  0.0550
60821SOL    HW189321   2.969   0.171   3.963  1.3190 -1.1283  0.5054
60821SOL    HW289322   2.985   0.212   3.818  0.2184  1.1909  0.9914
60822SOL     OW89323   1.977  10.030   0.151  0.2463  0.0778 -0.1420
60822SOL    HW189324   2.053  10.054   0.205 -0.5656  1.3448  0.4760
60822SOL    HW289325   1.906  10.083   0.185 -1.2830 -2.0523  0.1799
60823SOL     OW89326   8.199   4.289   5.005  0.4298  0.1373 -0.8010
60823SOL    HW189327   8.106   4.308   4.995 -0.2278 -2.4866 -0.4315
60823SOL    HW289328   8.239   4.324   4.925 -0.9567  0.7975 -1.2360
60824SOL     OW89329   0.525   0.310   2.747 -0.3287 -0.0997  0.3835
60824SOL    HW189330   0.475   0.331   2.826 -1.6346 -1.6794  0.0171
60824SOL    HW289331   0.562   0.224   2.764 -0.6493 -0.4716 -0.7458
60825SOL     OW89332   4.552  11.749  11.358 -0.6731  0.2449 -0.4478
60825SOL    HW189333   4.562  11.681  11.292 -1.9933  1.6909 -2.2422
60825SOL    HW289334   4.462  11.781  11.347 -0.5425  1.3727  1.2561
60826SOL     OW89335   1.362   6.819   4.022  0.2418  0.6710  0.6565
60826SOL    HW189336   1.316   6.814   4.105 -0.3507  0.0950  0.3018
60826SOL    HW289337   1.391   6.729   4.005 -1.2558  0.3903 -0.6408
60827SOL     OW89338   8.422  11.639   6.173  0.3262  0.1693  0.8402
60827SOL    HW189339   8.359  11.691   6.223 -0.7144  0.4592 -0.6858
60827SOL    HW289340   8.376  11.618   6.091  2.6598  1.6433 -1.0081
60828SOL     OW89341  11.402   4.312   9.896  0.0049  0.2778  0.0850
60828SOL    HW189342  11.368   4.222   9.896  2.5641 -0.7716 -0.8545
60828SOL    HW289343  11.403   4.336   9.989 -1.4151 -0.3489  0.2977
60829SOL     OW89344  11.991   2.621   5.764 -0.0596  0.7564 -0.3979
60829SOL    HW189345  12.006   2.541   5.714 -0.5156  0.4066  0.0195
60829SOL    HW289346  12.006   2.596   5.855 -0.2468  1.1360 -0.2601
60830SOL     OW89347   6.370   2.033   8.701 -0.5861  0.0097  0.6242
60830SOL    HW189348   6.313   2.037   8.624 -0.1669  1.1676  0.3591
60830SOL    HW289349   6.399   1.942   8.704 -0.5449 -0.0403 -0.6376
60831SOL     OW89350   3.937   7.522   9.841 -0.1364  0.2877 -0.2293
60831SOL    HW189351   3.934   7.452   9.776  0.3087  0.0669 -0.0124
60831SOL    HW289352   4.022   7.563   9.828 -0.5536  1.0535 -0.6263
60832SOL     OW89353  12.557   5.601   5.116 -0.5403 -0.4411 -0.1405
60832SOL    HW189354  12.487   5.659   5.146 -1.1463 -0.7098 -1.0059
60832SOL    HW289355  12.570   5.539   5.188 -2.1486 -1.2452 -0.5093
60833SOL     OW89356   6.345  11.937  11.165  0.3919  0.0369 -0.5008
60833SOL    HW189357   6.401  11.884  11.108 -0.7646 -1.3283 -0.4323
60833SOL    HW289358   6.349  11.893  11.250  1.3426  1.5074  0.2512
60834SOL     OW89359   1.243   2.755   1.026 -0.3979  0.0723  0.4658
60834SOL    HW189360   1.327   2.799   1.040  0.0310 -0.1533 -1.2793
60834SOL    HW289361   1.253   2.709   0.943 -2.5594  0.7978 -0.2547
60835SOL     OW89362   6.916  11.385  12.344  0.1777  0.7581  0.2707
60835SOL    HW189363   6.899  11.363  12.253 -0.4994 -1.8253  0.9332
60835SOL    HW289364   7.012  11.392  12.350  0.5987 -2.6407 -0.0643
60836SOL     OW89365   0.405   7.372   1.675  0.1828  0.0128  0.1174
60836SOL    HW189366   0.373   7.357   1.764  1.5609 -1.0546  0.4775
60836SOL    HW289367   0.462   7.297   1.657  2.7915  1.9542 -0.3042
60837SOL     OW89368   5.084   4.996   7.161 -1.1252  0.3686  0.6659
60837SOL    HW189369   5.005   4.944   7.150 -0.6805 -0.2211  0.2183
60837SOL    HW289370   5.148   4.935   7.198 -0.1301  0.1510 -1.2999
60838SOL     OW89371  12.221   1.924   3.505 -0.4220 -0.7976 -0.0547
60838SOL    HW189372  12.287   1.980   3.547 -1.6263  1.5385 -1.0439
60838SOL    HW289373  12.182   1.980   3.438 -2.8571 -2.3268 -0.0343
60839SOL     OW89374   8.562  12.572   4.905 -0.5479 -0.2000  0.2872
60839SOL    HW189375   8.479  12.527   4.918 -1.6834  2.1737  1.8262
60839SOL    HW289376   8.565  12.639   4.973  3.3167 -1.0587  1.2351
60840SOL     OW89377   4.965  11.804  11.556  0.2948 -0.2018 -0.0618
60840SOL    HW189378   4.922  11.747  11.492 -1.4627  0.8813  0.0712
60840SOL    HW289379   5.015  11.745  11.612  0.4646 -1.3439 -1.3698
60841SOL     OW89380   4.226  10.709   1.949  0.8971  0.2251  0.6888
60841SOL    HW189381   4.226  10.703   1.854  1.6574  2.3126  0.5055
60841SOL    HW289382   4.142  10.673   1.975 -1.0646  3.0279 -1.1282
60842SOL     OW89383  10.003   1.978   1.650  0.0109 -0.0981 -0.4335
60842SOL    HW189384  10.070   1.954   1.585 -1.2638 -1.9765 -1.1462
60842SOL    HW289385   9.927   1.925   1.626 -1.9481  2.3529  0.0300
60843SOL     OW89386   0.925   8.844  10.431  0.0372 -0.8068 -0.0669
60843SOL    HW189387   0.966   8.772  10.384 -1.9634 -1.8334 -0.3494
60843SOL    HW289388   0.908   8.910  10.364  0.3929 -0.7505 -0.1052
60844SOL     OW89389   9.594   9.462   6.579  0.1234  0.6865  0.1819
60844SOL    HW189390   9.583   9.475   6.673 -0.7382 -0.9622  0.3447
60844SOL    HW289391   9.688   9.450   6.567  0.1206 -0.4157  1.0523
60845SOL     OW89392   7.937   7.306   2.737  0.4067 -0.2454 -0.1365
60845SOL    HW189393   7.973   7.225   2.771  2.5603  0.5711 -0.2918
60845SOL    HW289394   7.950   7.301   2.642  2.7129  1.1566  0.0231
60846SOL     OW89395  11.956   1.568   4.840  0.1787 -0.1430 -0.0035
60846SOL    HW189396  11.955   1.614   4.924  0.1698  1.9991 -1.1011
60846SOL    HW289397  12.016   1.619   4.786 -0.4290 -0.9987 -1.5434
60847SOL     OW89398   3.081   1.753   3.286 -0.0584  0.4767 -0.0088
60847SOL    HW189399   3.023   1.814   3.331  0.4970  1.6920 -0.8886
60847SOL    HW289400   3.029   1.720   3.212 -0.4153 -0.2771  0.5608
60848SOL     OW89401   8.854   3.260   0.731  0.1434 -0.4098  0.3626
60848SOL    HW189402   8.944   3.232   0.745  0.3491 -0.5760 -1.1146
60848SOL    HW289403   8.861   3.333   0.669 -0.7319 -0.4240  0.2350
60849SOL     OW89404   4.712   9.238   1.307  0.4290  0.2002 -0.2930
60849SOL    HW189405   4.664   9.316   1.335  2.4468  1.9137 -1.3838
60849SOL    HW289406   4.765   9.214   1.383  0.4607  0.4055 -0.2501
60850SOL     OW89407   7.738   8.419   8.585  0.5841 -0.0473 -0.1169
60850SOL    HW189408   7.705   8.335   8.555  0.5619 -0.7043  1.5997
60850SOL    HW289409   7.792   8.452   8.513  0.0647 -1.2133 -1.0603
60851SOL     OW89410  10.940  10.385   9.015  0.1693 -0.4232  0.2236
60851SOL    HW189411  10.937  10.402   9.109 -1.5583 -1.5797  0.4289
60851SOL    HW289412  10.981  10.462   8.978  0.7360  0.1372  1.8986
60852SOL     OW89413  10.901   6.123   8.189 -0.3928 -0.4362  0.0914
60852SOL    HW189414  10.867   6.044   8.231  1.0657 -1.8641 -1.3254
60852SOL    HW289415  10.928   6.179   8.262 -4.3172  0.2626  1.2926
60853SOL     OW89416   4.816  10.550   3.656 -0.2403 -0.3675  0.3155
60853SOL    HW189417   4.899  10.586   3.626 -0.1447  0.5016  1.5635
60853SOL    HW289418   4.798  10.478   3.596 -0.7300  2.0620 -2.7245
60854SOL     OW89419   7.539   7.886   8.347  0.5049  0.5021  0.6673
60854SOL    HW189420   7.607   7.842   8.399  2.1428  2.1743  0.0481
60854SOL    HW289421   7.587   7.950   8.294 -1.6152  2.1039  0.5535
60855SOL     OW89422  12.254   3.869   1.332  0.0141  0.1866 -0.0280
60855SOL    HW189423  12.235   3.938   1.268  0.3577  0.1566 -0.1639
60855SOL    HW289424  12.322   3.816   1.290 -1.4605 -1.2788 -0.6812
60856SOL     OW89425  11.692   4.589   6.257 -0.1428  0.8723  0.1494
60856SOL    HW189426  11.695   4.638   6.175 -0.9779  0.2683 -0.2508
60856SOL    HW289427  11.747   4.512   6.241 -2.2963 -0.5686 -0.7612
60857SOL     OW89428   4.876  11.490   3.483 -0.0403  0.1190 -0.3516
60857SOL    HW189429   4.922  11.542   3.418 -0.9396  0.6817 -0.5477
60857SOL    HW289430   4.896  11.399   3.460 -0.4854  0.3036 -1.5204
60858SOL     OW89431   8.470   2.773   4.972 -0.0401  0.2388 -0.5448
60858SOL    HW189432   8.506   2.788   5.059 -0.0255 -1.6111 -0.2033
60858SOL    HW289433   8.547   2.763   4.916 -0.0111 -1.0197 -0.3038
60859SOL     OW89434   6.494  10.822   1.546 -0.3247  0.4814  0.0989
60859SOL    HW189435   6.504  10.917   1.532 -0.1057  0.2032 -1.9424
60859SOL    HW289436   6.401  10.811   1.569 -0.7525  1.0569 -1.2436
60860SOL     OW89437   4.614   1.088   3.014 -0.4530 -0.6233 -0.3703
60860SOL    HW189438   4.599   1.182   3.007  2.1752 -0.1079 -0.0087
60860SOL    HW289439   4.622   1.058   2.924 -1.7568 -0.6440 -0.5088
60861SOL     OW89440   4.641   4.161   4.475  0.3867 -0.0241  0.0399
60861SOL    HW189441   4.590   4.103   4.419  0.8214  1.4971 -2.0480
60861SOL    HW289442   4.583   4.234   4.494  1.4265  1.3358 -1.7020
60862SOL     OW89443  11.287   6.474   0.342 -0.1950 -0.1555  0.2292
60862SOL    HW189444  11.250   6.426   0.269 -2.6130 -0.6595  1.6776
60862SOL    HW289445  11.258   6.564   0.330 -0.8775 -0.3029  0.7036
60863SOL     OW89446   4.385  11.982   3.414  0.6987 -0.3339 -0.1123
60863SOL    HW189447   4.479  11.996   3.399  0.1820  0.2721 -3.8587
60863SOL    HW289448   4.349  12.070   3.423  0.0861 -0.1947 -2.8941
60864SOL     OW89449   6.166   6.669  11.639  0.1839  0.0475 -0.3527
60864SOL    HW189450   6.183   6.731  11.569  0.7464 -0.2851 -0.5199
60864SOL    HW289451   6.088   6.703  11.683 -0.5728 -0.1061 -1.5413
60865SOL     OW89452  12.348   1.779  10.101  0.0282 -0.0335  0.1029
60865SOL    HW189453  12.358   1.862  10.054  2.6852  0.2633  1.0297
60865SOL    HW289454  12.435   1.761  10.136 -1.0842 -1.9366  2.0962
60866SOL     OW89455   3.972   8.978  10.276  0.2090  0.3080  0.0639
60866SOL    HW189456   3.890   8.943  10.241  0.1210 -1.9050  2.1945
60866SOL    HW289457   4.038   8.914  10.251  0.0231 -1.8691  4.2235
60867SOL     OW89458   0.394   4.528   6.286  0.8181  0.0318 -0.7175
60867SOL    HW189459   0.431   4.608   6.250  0.5171  0.7000  0.4158
60867SOL    HW289460   0.354   4.483   6.211 -0.0289  1.5011 -1.1710
60868SOL     OW89461   4.277  10.357  11.656  0.2126  0.0020  0.3519
60868SOL    HW189462   4.331  10.302  11.712  1.4627  1.8215  1.0277
60868SOL    HW289463   4.189  10.350  11.694  0.3792 -1.3559  0.5267
60869SOL     OW89464   5.334   5.799   9.073 -0.3186  0.6060 -0.3503
60869SOL    HW189465   5.322   5.878   9.126 -1.5945  0.6450 -0.6537
60869SOL    HW289466   5.322   5.727   9.134 -2.4518  0.6446 -0.6575
60870SOL     OW89467   1.661   7.195   0.876  0.4300  0.3662 -0.2195
60870SOL    HW189468   1.646   7.149   0.793  1.4297  2.1453 -1.4622
60870SOL    HW289469   1.607   7.274   0.869  3.0477  2.2213 -0.7322
60871SOL     OW89470   4.590  10.414   8.790 -0.3730  0.2081 -0.2487
60871SOL    HW189471   4.644  10.338   8.814 -1.2620 -0.2843  0.2348
60871SOL    HW289472   4.521  10.377   8.735 -0.5159  0.7493 -0.4344
60872SOL     OW89473   8.123  11.755   5.214  0.2711  0.4102 -0.2345
60872SOL    HW189474   8.135  11.840   5.258 -1.8913  0.3263  0.6573
60872SOL    HW289475   8.028  11.749   5.200  0.2149 -2.3236  0.7139
60873SOL     OW89476   8.806   8.516   4.860 -0.0101  0.3641 -0.9780
60873SOL    HW189477   8.824   8.523   4.767 -0.2530 -0.0920 -1.0617
60873SOL    HW289478   8.715   8.545   4.869  0.6760  2.5777 -0.5686
60874SOL     OW89479  12.276   9.509   7.533 -0.1040  0.0053  0.1483
60874SOL    HW189480  12.324   9.458   7.599  0.1713  0.2052  0.1040
60874SOL    HW289481  12.275   9.453   7.456  0.5642  0.2374 -0.0310
60875SOL     OW89482   6.110   9.752  12.179 -0.4162  0.4150  0.4133
60875SOL    HW189483   6.158   9.726  12.100  0.5165  0.4735  0.9463
60875SOL    HW289484   6.089   9.844  12.164 -0.0344  0.4922  0.3270
60876SOL     OW89485   7.851   4.610   0.911 -0.0563  0.1111 -0.3798
60876SOL    HW189486   7.814   4.543   0.968 -0.9364  1.1579  0.3348
60876SOL    HW289487   7.775   4.656   0.876  0.5219  0.6548 -0.9576
60877SOL     OW89488   0.403   1.525  12.364 -0.3140  0.2432 -0.2379
60877SOL    HW189489   0.379   1.612  12.397  1.3377  0.2994  0.9416
60877SOL    HW289490   0.341   1.509  12.293 -0.7830  2.3122 -0.3807
60878SOL     OW89491   5.142   1.268  12.071  0.1385  0.4939 -0.2609
60878SOL    HW189492   5.176   1.181  12.093 -0.9412 -0.1136 -0.9345
60878SOL    HW289493   5.215   1.310  12.024  0.3134 -0.4458 -0.8667
60879SOL     OW89494  12.305   1.059   1.632 -0.4525 -0.8149 -0.2977
60879SOL    HW189495  12.324   1.131   1.691  0.5909 -2.0800  0.9959
60879SOL    HW289496  12.308   1.097   1.545  1.4053  0.4561  0.2616
60880SOL     OW89497   8.393   4.376  12.075 -0.3910 -0.3562  0.5705
60880SOL    HW189498   8.407   4.469  12.053  0.4478 -0.5927  0.0418
60880SOL    HW289499   8.301   4.371  12.099 -0.8311  0.3516 -0.8165
60881SOL     OW89500   8.442   6.475   5.755  0.1316 -0.4023  0.2944
60881SOL    HW189501   8.388   6.530   5.811  0.6011 -0.2158  0.5685
60881SOL    HW289502   8.462   6.531   5.679 -0.7955 -0.7712 -0.2473
60882SOL     OW89503  10.003   4.983   7.691  0.1252  0.1760 -0.0038
60882SOL    HW189504  10.061   4.942   7.754 -0.1254 -0.4829 -0.1901
60882SOL    HW289505   9.991   4.917   7.622 -2.8793 -0.7896  1.2602
60883SOL     OW89506   1.844   7.977  12.135 -0.3721  0.2868  0.0788
60883SOL    HW189507   1.764   8.015  12.173 -0.8211 -1.0953  0.5650
60883SOL    HW289508   1.822   7.963  12.043 -0.4248  0.5776  0.0445
60884SOL     OW89509   7.619   5.395   0.496  0.7077 -0.5750  0.3255
60884SOL    HW189510   7.637   5.468   0.437 -1.8730 -0.4965 -0.4856
60884SOL    HW289511   7.653   5.318   0.451  0.6459 -0.2483 -0.2842
60885SOL     OW89512   8.141   2.086   9.666 -0.5456  0.3706 -0.6202
60885SOL    HW189513   8.160   2.113   9.577  1.2494 -1.1518 -0.7525
60885SOL    HW289514   8.218   2.112   9.716 -1.3019  0.7334  0.3932
60886SOL     OW89515   1.233   9.941   3.193  0.5502 -0.0654  0.5768
60886SOL    HW189516   1.313   9.947   3.141  0.3985 -0.1280  0.3365
60886SOL    HW289517   1.168   9.990   3.143  0.4754  0.1120  0.8453
60887SOL     OW89518   5.013  10.491   0.037  0.3918 -0.3043  0.7088
60887SOL    HW189519   5.092  10.445   0.066  0.9146  0.6617  0.8723
60887SOL    HW289520   5.046  10.571  -0.004 -0.5374  0.6220  1.6972
60888SOL     OW89521   5.226   9.205   0.998 -0.0501 -0.7727  0.4372
60888SOL    HW189522   5.253   9.207   1.090  3.2788  2.6035 -0.3592
60888SOL    HW289523   5.260   9.122   0.965  1.5234 -0.6418  1.5926
60889SOL     OW89524   3.948   0.906   3.916  0.2315 -0.2873 -0.2861
60889SOL    HW189525   3.888   0.849   3.964 -0.3584  1.1094  0.6893
60889SOL    HW289526   3.960   0.982   3.973  1.7489  0.1379 -1.1325
60890SOL     OW89527  11.459   5.120   2.205 -0.2952  0.1489  0.3057
60890SOL    HW189528  11.538   5.135   2.153 -0.8904 -1.4335 -1.1448
60890SOL    HW289529  11.388   5.121   2.141 -1.3307  0.4090  1.4268
60891SOL     OW89530   5.196   5.793   0.309 -0.0336  0.0859 -0.0397
60891SOL    HW189531   5.258   5.773   0.240 -1.1720 -0.9140 -0.8071
60891SOL    HW289532   5.120   5.739   0.290 -0.5736  0.1546  1.7230
60892SOL     OW89533   4.406  10.798  11.597  0.2345 -0.0900  0.0092
60892SOL    HW189534   4.452  10.872  11.635  1.1178 -1.3587  1.5416
60892SOL    HW289535   4.454  10.721  11.630  1.3173 -1.3503 -3.9191
60893SOL     OW89536   1.255   7.811   9.726  0.2941  0.1051 -0.3416
60893SOL    HW189537   1.175   7.840   9.769 -1.3354 -1.7233 -1.9362
60893SOL    HW289538   1.233   7.726   9.689  2.4602  0.2624 -2.2569
60894SOL     OW89539   8.375  10.420   3.859 -0.2793  0.6481 -0.0950
60894SOL    HW189540   8.410  10.507   3.879 -0.3268  0.4410  0.9765
60894SOL    HW289541   8.303  10.437   3.798 -0.3280  1.3721  0.1431
60895SOL     OW89542  10.224   7.289   1.720 -0.0790 -0.3499  0.4063
60895SOL    HW189543  10.158   7.277   1.651  0.4643 -3.2205  0.2726
60895SOL    HW289544  10.288   7.349   1.681 -0.2291 -1.2158 -1.3107
60896SOL     OW89545   2.235  12.343  12.336 -0.2197 -0.2349  0.2038
60896SOL    HW189546   2.144  12.371  12.331 -0.8341 -2.2147 -0.6939
60896SOL    HW289547   2.285  12.424  12.342 -1.9899  0.9135  0.0796
60897SOL     OW89548   0.107   7.607   3.612 -0.3780 -0.4567  0.3578
60897SOL    HW189549   0.127   7.672   3.680 -1.8968  1.3960 -0.8740
60897SOL    HW289550   0.184   7.608   3.555  0.0688 -0.5589  0.9501
60898SOL     OW89551   7.018   8.341   8.839  0.5615 -0.0352 -0.3704
60898SOL    HW189552   7.096   8.295   8.808 -1.1049 -3.8096  0.5084
60898SOL    HW289553   7.008   8.313   8.930 -2.6059 -0.9764 -0.9039
60899SOL     OW89554   5.599   3.522  10.628  0.4986 -0.1511  0.3474
60899SOL    HW189555   5.636   3.452  10.682  0.4256 -1.6221 -1.4085
60899SOL    HW289556   5.505   3.503  10.625  0.7148 -1.1677 -1.6702
60900SOL     OW89557   7.677   8.094   4.946 -0.3111 -0.3330 -0.3610
60900SOL    HW189558   7.720   8.060   5.025 -0.6783  0.9160  0.4058
60900SOL    HW289559   7.590   8.121   4.977  0.0445  1.5064 -0.8610
60901SOL     OW89560   5.590   1.014   1.637  0.1543 -0.2420 -0.8428
60901SOL    HW189561   5.528   1.087   1.635 -1.5272 -1.5587  0.0685
60901SOL    HW289562   5.579   0.970   1.553  2.2492  1.3148 -2.0231
60902SOL     OW89563   5.658   7.337   2.697  0.0636 -0.2282  0.1089
60902SOL    HW189564   5.741   7.352   2.651  0.1007  0.9459  0.5431
60902SOL    HW289565   5.680   7.276   2.767  1.0655  1.7081  1.5731
60903SOL     OW89566   0.953   3.234   3.880  0.2653  0.0974 -0.4228
60903SOL    HW189567   0.919   3.233   3.970  0.6828  0.1501 -0.2642
60903SOL    HW289568   0.910   3.309   3.839  2.1834  1.8282  0.5617
60904SOL     OW89569   2.938   7.373   4.257  0.2112  0.0564  0.4141
60904SOL    HW189570   2.968   7.464   4.260  0.1767  0.0551  1.1019
60904SOL    HW289571   3.007   7.327   4.210 -0.7647  0.7828 -1.8740
60905SOL     OW89572   5.588   7.086   1.328 -0.2311 -0.5301  0.1309
60905SOL    HW189573   5.627   7.164   1.288 -0.4195  0.0701  1.0715
60905SOL    HW289574   5.539   7.044   1.257 -0.2974  0.3288 -0.3451
60906SOL     OW89575  11.718   5.102   1.110  0.5948 -0.2217 -0.0814
60906SOL    HW189576  11.738   5.008   1.107 -0.0886 -0.3749 -0.0716
60906SOL    HW289577  11.732   5.132   1.021  0.9915 -0.2888 -0.0465
60907SOL     OW89578   9.255   8.572   3.479 -0.1586  0.5356 -0.6320
60907SOL    HW189579   9.185   8.538   3.424 -1.6734  0.6838  1.0912
60907SOL    HW289580   9.214   8.586   3.565  1.7003  1.7204  0.1495
60908SOL     OW89581   1.124   6.956   2.853  0.2367 -0.5040 -0.3627
60908SOL    HW189582   1.067   6.995   2.786  0.5596  1.4979  0.4757
60908SOL    HW289583   1.081   6.977   2.936  1.7646  0.3731  0.2429
60909SOL     OW89584   7.766  12.207   0.676  0.5815  0.0581 -0.3918
60909SOL    HW189585   7.728  12.251   0.600  3.0344  1.5704 -0.8602
60909SOL    HW289586   7.717  12.125   0.684 -1.9554  1.3682 -1.5208
60910SOL     OW89587   7.284   9.231   5.714  0.0642  0.1123  0.5691
60910SOL    HW189588   7.262   9.280   5.635 -0.1883 -0.7453  0.1010
60910SOL    HW289589   7.208   9.244   5.771 -0.0138  0.2435  0.4365
60911SOL     OW89590   6.638   8.809   9.548 -0.2953 -0.0562 -0.1977
60911SOL    HW189591   6.652   8.746   9.619  2.7691  1.6064  0.8863
60911SOL    HW289592   6.630   8.893   9.593 -3.3899  0.5463 -1.6422
60912SOL     OW89593   9.990  10.768   0.751 -1.0913  0.3475 -0.0009
60912SOL    HW189594  10.063  10.729   0.703 -2.2087 -0.3253 -1.2333
60912SOL    HW289595  10.023  10.780   0.840  0.7500  0.7882 -0.7053
60913SOL     OW89596   0.538   5.650   7.884  0.2062 -0.4581  0.4314
60913SOL    HW189597   0.528   5.571   7.830  1.3431 -1.5138  1.6907
60913SOL    HW289598   0.568   5.617   7.969  1.2033  1.3742  0.8375
60914SOL     OW89599   4.281  10.369  10.116 -1.0820  0.5681  0.2722
60914SOL    HW189600   4.243  10.350  10.201 -1.5261  1.5967  0.3114
60914SOL    HW289601   4.371  10.337  10.122 -1.3163 -0.0001  0.8791
60915SOL     OW89602   9.188   3.421   3.490  0.0222 -0.6189 -0.2495
60915SOL    HW189603   9.191   3.366   3.412 -0.6019 -1.3981  0.2543
60915SOL    HW289604   9.129   3.493   3.466 -0.1251 -0.8261 -0.5207
60916SOL     OW89605   3.057   0.227   4.120 -0.1894  0.1561 -0.7783
60916SOL    HW189606   3.111   0.153   4.094  1.4818  1.7515 -2.0894
60916SOL    HW289607   3.037   0.212   4.212  2.0886 -0.7554 -0.3957
60917SOL     OW89608  10.666   7.674   0.059 -0.2599  0.3354 -0.1625
60917SOL    HW189609  10.607   7.599   0.068  0.7167 -0.4048  0.3346
60917SOL    HW289610  10.666   7.694  -0.034 -1.6141  0.6366 -0.1172
60918SOL     OW89611   7.367   8.959   2.160 -0.1569  0.0149 -0.6771
60918SOL    HW189612   7.288   9.013   2.168 -1.7993 -2.1431 -1.4545
60918SOL    HW289613   7.364   8.901   2.236  0.6633 -0.1198 -0.7422
60919SOL     OW89614   7.075   6.236   8.198  0.0158 -0.0909 -0.3331
60919SOL    HW189615   7.099   6.281   8.279  0.2870  0.4845 -0.7257
60919SOL    HW289616   7.029   6.157   8.227 -1.4699  0.9940  0.3344
60920SOL     OW89617   3.548  12.520   8.019  0.1532  0.5417  0.3035
60920SOL    HW189618   3.583  12.609   8.012  0.2241  0.5231  0.4120
60920SOL    HW289619   3.595  12.482   8.093  0.1361  0.4078  0.2466
60921SOL     OW89620   3.631   1.932   0.485 -0.4650  0.5856  0.1324
60921SOL    HW189621   3.717   1.974   0.480 -1.9255  3.8751  0.3690
60921SOL    HW289622   3.627   1.877   0.406  2.3514 -0.8797  0.8789
60922SOL     OW89623  11.688   9.012   4.565 -0.2584 -0.2376 -0.5337
60922SOL    HW189624  11.656   8.930   4.601 -1.3081 -0.0231 -0.9470
60922SOL    HW289625  11.779   9.017   4.594 -1.1365  0.1625  2.4897
60923SOL     OW89626   4.102   1.731   9.562 -0.4111  0.3052  0.2710
60923SOL    HW189627   4.082   1.774   9.478  1.4386 -0.8773 -0.8420
60923SOL    HW289628   4.165   1.789   9.604 -0.8708  0.5893  0.5794
60924SOL     OW89629  12.369   8.876   6.256  0.5337 -0.0081 -0.8475
60924SOL    HW189630  12.328   8.957   6.225  1.7099  1.4000  1.0751
60924SOL    HW289631  12.306   8.841   6.320  0.8723  0.4545 -0.2475
60925SOL     OW89632   8.263   9.379   2.896 -0.3946 -0.7719  0.4457
60925SOL    HW189633   8.185   9.385   2.840  0.3679 -0.9722 -0.6802
60925SOL    HW289634   8.330   9.342   2.839  0.9986  0.9378  0.8794
60926SOL     OW89635  12.436  11.135   8.838  0.0085 -1.2983 -0.1121
60926SOL    HW189636  12.398  11.172   8.758 -0.6990  0.2287  0.8931
60926SOL    HW289637  12.527  11.116   8.815  0.0947  0.0640 -0.9954
60927SOL     OW89638   8.976  12.210   6.010 -0.6444  0.0376  0.1325
60927SOL    HW189639   9.043  12.142   6.001  0.2439  0.8786  0.1512
60927SOL    HW289640   8.978  12.257   5.927 -1.5710 -0.2302 -0.0519
60928SOL     OW89641   1.299   6.087   2.664  0.5760 -0.1451 -0.2385
60928SOL    HW189642   1.227   6.047   2.615  0.4292  0.5468 -0.5914
60928SOL    HW289643   1.352   6.131   2.598  0.4364  0.7095  0.2121
60929SOL     OW89644   7.711   7.909  10.056  0.2876 -0.1038  0.1908
60929SOL    HW189645   7.634   7.909   9.999  0.0638  0.8175  0.4709
60929SOL    HW289646   7.676   7.884  10.142 -0.1485  2.4974  0.8412
60930SOL     OW89647   6.701   9.124   9.242  0.0095 -0.1530  0.4808
60930SOL    HW189648   6.704   9.218   9.260  2.0542  0.0416 -0.5241
60930SOL    HW289649   6.628   9.091   9.295 -2.5320  2.3918 -1.1352
60931SOL     OW89650   7.145   9.538  11.698  0.1803 -0.0947  0.5208
60931SOL    HW189651   7.152   9.619  11.749  0.8958  0.2970 -0.1696
60931SOL    HW289652   7.127   9.470  11.763 -0.9169  0.6829  1.0568
60932SOL     OW89653   0.920   0.885   8.590 -0.5500 -0.1719  0.3289
60932SOL    HW189654   0.999   0.860   8.542 -1.0156 -1.4970  0.2286
60932SOL    HW289655   0.878   0.802   8.613 -1.9725  0.5116  0.2937
60933SOL     OW89656   8.536   1.715   3.287  0.3129 -0.3064  0.6464
60933SOL    HW189657   8.543   1.730   3.193 -0.2202  1.3225  0.8435
60933SOL    HW289658   8.588   1.636   3.303 -1.3935 -1.9162 -1.3151
60934SOL     OW89659   4.447   8.771   2.254 -0.2128 -0.0754  0.0531
60934SOL    HW189660   4.497   8.788   2.174  0.5581 -0.2590  0.4892
60934SOL    HW289661   4.498   8.706   2.301  0.3445  1.4152  1.6111
60935SOL     OW89662   0.575   6.160   0.337 -0.3723 -0.2646 -0.4624
60935SOL    HW189663   0.568   6.108   0.417 -0.5773 -0.1097 -0.3778
60935SOL    HW289664   0.574   6.096   0.267 -0.2829 -0.3959 -0.3453
60936SOL     OW89665   1.196  10.491   1.914  0.2830 -0.2939 -0.2483
60936SOL    HW189666   1.156  10.566   1.957 -0.1946 -1.0059  0.5895
60936SOL    HW289667   1.256  10.455   1.980  0.5973 -0.5780 -0.6824
60937SOL     OW89668   3.098  12.493   1.492  0.2522 -0.0703 -0.7678
60937SOL    HW189669   3.171  12.457   1.542  0.6921  0.6714 -0.8591
60937SOL    HW289670   3.107  12.588   1.502 -0.8870  0.0222 -0.5200
60938SOL     OW89671   2.582  11.004   7.841  0.3619 -0.1925  0.0365
60938SOL    HW189672   2.573  11.099   7.846  0.8003 -0.1600  0.3092
60938SOL    HW289673   2.520  10.971   7.906  0.7611 -0.0529  0.5036
60939SOL     OW89674  11.630   6.125   4.416  0.7755 -0.7364  0.0972
60939SOL    HW189675  11.648   6.061   4.347 -0.5678 -0.5179 -0.4831
60939SOL    HW289676  11.686   6.097   4.489  2.8602 -0.5006 -1.3034
60940SOL     OW89677   0.377  12.327  12.470  0.2676 -0.3723 -0.6091
60940SOL    HW189678   0.397  12.417  12.443 -0.3682 -0.0574 -0.0606
60940SOL    HW289679   0.385  12.275  12.390 -0.2259  0.3170 -1.1155
60941SOL     OW89680   5.309   0.151   3.831 -0.7070  0.4180 -0.0515
60941SOL    HW189681   5.396   0.191   3.823  0.0788 -1.1909 -0.1405
60941SOL    HW289682   5.296   0.143   3.926 -0.2770 -0.2428 -0.0344
60942SOL     OW89683   0.877  11.590  10.515 -0.8211  0.2543 -0.4670
60942SOL    HW189684   0.836  11.570  10.599  0.5607 -0.2415  0.1205
60942SOL    HW289685   0.906  11.680  10.523  2.3406 -0.7377  0.9817
60943SOL     OW89686   5.551   2.553   7.270 -0.4233  0.1343  0.5781
60943SOL    HW189687   5.455   2.553   7.276 -0.4948  1.0834 -0.3740
60943SOL    HW289688   5.574   2.464   7.243 -1.2223  0.5590 -1.6640
60944SOL     OW89689   2.716   7.080   8.346  0.2302 -0.3288  0.2788
60944SOL    HW189690   2.765   7.103   8.426 -0.3325  0.0143  0.5309
60944SOL    HW289691   2.630   7.055   8.378  0.4094 -1.4788 -0.1172
60945SOL     OW89692   8.209  11.224   3.893 -0.1144 -0.2116  0.2324
60945SOL    HW189693   8.170  11.193   3.811 -2.0270 -0.7553  1.2888
60945SOL    HW289694   8.293  11.178   3.899  0.5600  0.6367 -1.8961
60946SOL     OW89695   3.547  10.611   7.220 -0.3371  0.0365 -0.2711
60946SOL    HW189696   3.566  10.597   7.313  0.1975  3.1301  0.1789
60946SOL    HW289697   3.457  10.643   7.218  0.1832  1.5434 -0.6029
60947SOL     OW89698   4.380   5.270   5.553 -0.3401 -0.4232  0.4394
60947SOL    HW189699   4.394   5.313   5.469  0.2087 -0.5673  0.4538
60947SOL    HW289700   4.418   5.183   5.543  0.3453 -0.2061  1.0454
60948SOL     OW89701   6.933  12.448  12.309 -0.1827  0.1549 -0.2175
60948SOL    HW189702   6.911  12.478  12.397  1.2151  1.1600 -0.1690
60948SOL    HW289703   6.980  12.366  12.322  1.8753  1.3076  0.2084
60949SOL     OW89704   1.885   3.902   0.276 -0.5882  0.4276 -0.5009
60949SOL    HW189705   1.902   3.954   0.198  1.6964  0.2948 -0.1699
60949SOL    HW289706   1.944   3.938   0.342  0.8110 -2.2662 -0.1337
60950SOL     OW89707   9.624   2.678  10.397 -0.3595  0.4570 -0.3283
60950SOL    HW189708   9.656   2.653  10.310  0.9562  0.6921  0.0575
60950SOL    HW289709   9.678   2.754  10.420  0.4830 -0.6034  1.3719
60951SOL     OW89710  11.431   5.460  11.289 -0.0672 -0.5762  0.7088
60951SOL    HW189711  11.431   5.544  11.333 -0.1812  1.1247 -2.2889
60951SOL    HW289712  11.519   5.426  11.301  1.2026  1.8067 -1.0880
60952SOL     OW89713   1.407   0.869  11.749 -0.7010  0.2697 -0.2756
60952SOL    HW189714   1.328   0.922  11.762 -0.2561  1.2479 -1.3892
60952SOL    HW289715   1.404   0.842  11.658 -0.8909 -1.6475  0.2539
60953SOL     OW89716   5.415   6.076   0.976 -0.3983 -0.3916 -0.0068
60953SOL    HW189717   5.439   6.168   0.967 -0.3392 -0.5085 -1.0756
60953SOL    HW289718   5.371   6.071   1.062  1.0613  0.3037  0.8166
60954SOL     OW89719   0.102  10.907   1.923  0.6411 -0.1240  0.1351
60954SOL    HW189720   0.142  10.825   1.893  0.4596  0.1430 -0.8712
60954SOL    HW289721   0.088  10.957   1.843  1.8554  1.4040  0.8293
60955SOL     OW89722   4.960   3.330   4.905  0.2682  0.1956  0.4780
60955SOL    HW189723   4.926   3.419   4.917 -2.1647 -0.1599 -2.6463
60955SOL    HW289724   5.013   3.335   4.826 -0.9688 -1.3471 -0.4944
60956SOL     OW89725   1.200   1.206   3.911 -0.3987 -0.1738 -0.0832
60956SOL    HW189726   1.189   1.117   3.944  2.1990 -1.2175 -1.7091
60956SOL    HW289727   1.186   1.198   3.816  2.0114  0.6330 -0.5780
60957SOL     OW89728  12.130   3.514   6.480 -0.0482 -0.3386 -0.1963
60957SOL    HW189729  12.123   3.607   6.502 -1.1422 -0.9219  2.2867
60957SOL    HW289730  12.048   3.493   6.435 -0.4343 -0.3833  0.5145
60958SOL     OW89731   9.292  11.588   3.332  0.3882  0.0763  0.7849
60958SOL    HW189732   9.366  11.543   3.372  0.9302  0.4907  0.2613
60958SOL    HW289733   9.301  11.679   3.361  0.9739  0.4535 -0.5180
60959SOL     OW89734  11.104   4.359   8.137 -0.1367  0.1302 -0.2238
60959SOL    HW189735  11.090   4.453   8.126  1.2470  0.4011  0.1003
60959SOL    HW289736  11.112   4.347   8.232  1.6591  0.0242 -0.3614
60960SOL     OW89737   5.846   2.048   2.691 -0.8043 -1.2171  0.5887
60960SOL    HW189738   5.857   2.136   2.728 -1.7030 -0.7320 -0.2390
60960SOL    HW289739   5.915   1.996   2.732 -0.3755 -0.1739  1.2434
60961SOL     OW89740   4.893   5.443   0.019 -0.0941  0.1473  0.4568
60961SOL    HW189741   4.808   5.462  -0.022 -0.6208  0.0485  1.4877
60961SOL    HW289742   4.913   5.522   0.070 -0.0019 -0.1940  0.9478
60962SOL     OW89743   9.814   9.235   8.442 -0.4377  0.0186 -0.1026
60962SOL    HW189744   9.763   9.273   8.369 -3.1409 -1.2820  0.9707
60962SOL    HW289745   9.835   9.147   8.413 -0.5401 -0.1193  0.2405
60963SOL     OW89746   1.574  11.479   1.567 -0.8034  0.1932  0.0095
60963SOL    HW189747   1.609  11.561   1.531 -3.0188  1.3288  0.2932
60963SOL    HW289748   1.494  11.463   1.518  0.8903 -3.4014 -1.9848
60964SOL     OW89749   2.757   4.665   2.775  0.7834  0.2791 -0.2490
60964SOL    HW189750   2.721   4.715   2.701 -0.1628 -1.0358 -0.7201
60964SOL    HW289751   2.739   4.719   2.852  1.9498  1.7597 -0.9637
60965SOL     OW89752   3.202   2.829   3.498  0.2679  0.4432 -0.2948
60965SOL    HW189753   3.294   2.802   3.507 -0.0589 -0.5450  0.2050
60965SOL    HW289754   3.186   2.829   3.404  0.9945  1.4008 -0.4338
60966SOL     OW89755   8.022  11.515   3.572 -0.1556  0.1334 -0.6894
60966SOL    HW189756   7.949  11.564   3.610  0.2359 -0.0138  0.2680
60966SOL    HW289757   7.981  11.437   3.533 -0.3871 -0.5678  0.9004
60967SOL     OW89758   1.110   6.467   6.413  0.2987  0.4062 -0.5594
60967SOL    HW189759   1.130   6.402   6.345  0.9195  0.3681 -0.3388
60967SOL    HW289760   1.041   6.425   6.465  1.2512 -0.4117  0.0588
60968SOL     OW89761  10.866   9.439   3.723  0.1479  0.0972  0.5213
60968SOL    HW189762  10.933   9.390   3.770 -0.3323  0.7300  1.9191
60968SOL    HW289763  10.838   9.380   3.653  0.4420 -1.1363  1.4011
60969SOL     OW89764  11.479   5.544   3.953  0.2192 -0.2803  0.3060
60969SOL    HW189765  11.420   5.612   3.918  0.7109  1.2774  2.2985
60969SOL    HW289766  11.420   5.475   3.983 -0.4727  0.3607  0.4569
60970SOL     OW89767   6.576   5.447   0.048  0.3981 -0.4982  0.2570
60970SOL    HW189768   6.537   5.363   0.023  0.3570 -0.2047 -0.6726
60970SOL    HW289769   6.655   5.454  -0.004  0.4060  0.0422  0.3367
60971SOL     OW89770   5.613   7.249   4.147  0.0921  0.1339  0.1389
60971SOL    HW189771   5.658   7.166   4.159 -0.1388 -0.0404 -0.1682
60971SOL    HW289772   5.521   7.230   4.165 -0.0938  0.1164 -0.7542
60972SOL     OW89773   4.255   9.080  11.563  0.2922  0.3687 -0.0207
60972SOL    HW189774   4.271   9.117  11.476 -1.2283 -0.7648 -0.8320
60972SOL    HW289775   4.204   9.147  11.609 -0.3797  0.2802 -0.6266
60973SOL     OW89776   0.880   3.920   3.394  0.1166  0.0407 -0.3421
60973SOL    HW189777   0.805   3.912   3.453  0.2770  0.3737 -0.0923
60973SOL    HW289778   0.956   3.899   3.448  0.4337  1.9914  0.0298
60974SOL     OW89779   2.583  10.155   6.737 -0.0713  0.4108  0.5829
60974SOL    HW189780   2.628  10.108   6.666 -1.2443 -1.0200  0.7494
60974SOL    HW289781   2.584  10.094   6.811 -1.4925  0.6993  0.8661
60975SOL     OW89782   8.400   0.233   2.379  0.0462  0.0455  0.2444
60975SOL    HW189783   8.345   0.300   2.420 -0.9284 -1.0377  0.7566
60975SOL    HW289784   8.486   0.246   2.418  0.3801  2.1642 -1.0086
60976SOL     OW89785   9.362   5.955   9.991 -0.6347  0.1144 -0.3419
60976SOL    HW189786   9.388   5.893   9.922 -1.3195  0.3847 -0.8489
60976SOL    HW289787   9.297   5.907  10.043  0.3490 -0.3221  0.5262
60977SOL     OW89788   4.588  11.888   8.779 -0.2963  0.2374  0.6662
60977SOL    HW189789   4.608  11.887   8.685 -0.9713 -1.8224  0.5014
60977SOL    HW289790   4.501  11.928   8.785 -0.3196  0.2298  0.3947
60978SOL     OW89791   6.945   0.930   4.796 -0.2500  0.4359  0.3665
60978SOL    HW189792   6.967   0.872   4.869  3.1649 -0.6399 -1.3146
60978SOL    HW289793   6.874   0.885   4.750  1.3317 -1.7935 -0.0646
60979SOL     OW89794   9.312   9.216   7.497  0.8901 -0.2911 -0.0448
60979SOL    HW189795   9.327   9.268   7.576 -2.1129 -0.1774  0.5370
60979SOL    HW289796   9.322   9.125   7.526  1.1877 -0.2139  0.1042
60980SOL     OW89797   5.489  12.273  11.689 -0.0154  0.5909 -0.2478
60980SOL    HW189798   5.485  12.289  11.594 -1.5001 -0.9898 -0.4922
60980SOL    HW289799   5.471  12.180  11.699  1.1413  0.5014  1.5589
60981SOL     OW89800   1.705   1.307   5.307 -0.0753  0.2297 -0.2281
60981SOL    HW189801   1.710   1.377   5.243  1.5095  0.5338  0.1795
60981SOL    HW289802   1.796   1.294   5.336 -0.4896 -1.1981  0.5479
60982SOL     OW89803   6.684   7.758   4.571 -0.3539  0.2572  0.2088
60982SOL    HW189804   6.627   7.797   4.637  0.4849 -0.3093  1.3047
60982SOL    HW289805   6.624   7.723   4.504 -1.1800  1.5723  0.2364
60983SOL     OW89806   3.012   7.983   5.874 -0.4373  0.2521  0.4703
60983SOL    HW189807   3.103   7.977   5.906 -0.1180  1.3299 -0.1841
60983SOL    HW289808   2.976   8.059   5.920 -0.1074  1.5579 -1.3125
60984SOL     OW89809  11.646   6.279   5.529  0.4233  0.7752  0.1810
60984SOL    HW189810  11.663   6.259   5.621  0.7427 -1.6479 -0.3541
60984SOL    HW289811  11.644   6.194   5.485  1.4047  1.9175 -2.2624
60985SOL     OW89812   0.328   9.030   2.493 -0.3128  0.5843  0.1105
60985SOL    HW189813   0.297   9.017   2.583  0.1346  1.1996  0.3629
60985SOL    HW289814   0.415   8.991   2.491 -0.7841 -0.4894 -0.3966
60986SOL     OW89815  10.843  10.891   4.575  0.4161  0.5338  0.1646
60986SOL    HW189816  10.764  10.860   4.531 -0.3771 -0.3640  2.1185
60986SOL    HW289817  10.835  10.987   4.574 -0.4093  0.4684 -0.1631
60987SOL     OW89818   2.137  11.446   8.841 -0.2367  0.5870 -0.1213
60987SOL    HW189819   2.226  11.437   8.808 -0.9485 -0.7465 -1.8468
60987SOL    HW289820   2.082  11.437   8.763 -2.0351 -2.5309  1.3215
60988SOL     OW89821   4.915   5.106   9.662 -0.0683 -0.0359 -0.2436
60988SOL    HW189822   4.998   5.060   9.669 -0.8541 -1.3717  0.7411
60988SOL    HW289823   4.881   5.083   9.575 -0.4316 -1.3061  0.2226
60989SOL     OW89824   5.692   8.996   7.462  0.6033  0.3704  0.1246
60989SOL    HW189825   5.691   8.901   7.475 -0.1493  0.1171 -1.5185
60989SOL    HW289826   5.688   9.033   7.550 -0.4863 -1.1206  0.7281
60990SOL     OW89827  12.278  12.292   0.279  0.3617 -0.4505 -0.1933
60990SOL    HW189828  12.211  12.235   0.242  1.2388 -1.0987 -0.8343
60990SOL    HW289829  12.284  12.265   0.371  0.0330 -0.6642 -0.2323
60991SOL     OW89830   3.707  12.079  12.392 -0.4665  0.0950  0.2570
60991SOL    HW189831   3.728  12.153  12.336  0.6492 -0.2870  0.1505
60991SOL    HW289832   3.612  12.083  12.402 -0.5070  1.0711 -0.3895
60992SOL     OW89833  10.931   3.504   6.987  0.2406  0.1876 -0.6073
60992SOL    HW189834  10.944   3.410   6.992  0.5521  0.2462 -0.2285
60992SOL    HW289835  10.881   3.518   6.907 -0.4140 -0.3662 -0.3052
60993SOL     OW89836   6.249   8.176   2.366 -0.8695  0.4084 -0.2813
60993SOL    HW189837   6.263   8.263   2.330 -1.0524  0.6135  0.1330
60993SOL    HW289838   6.163   8.182   2.408 -0.1707  0.5194  1.1947
60994SOL     OW89839   7.350   1.788   6.468  0.7839  0.4500 -0.2497
60994SOL    HW189840   7.300   1.848   6.413  1.5939  0.7978 -0.6182
60994SOL    HW289841   7.368   1.837   6.549  3.9498  1.8693 -1.6533
60995SOL     OW89842   3.248   8.708   4.755 -0.2781  0.3922 -0.7350
60995SOL    HW189843   3.180   8.739   4.695  0.3787 -0.8845 -2.2008
60995SOL    HW289844   3.311   8.780   4.758 -0.3505  0.5022 -1.5327
60996SOL     OW89845   4.562   4.256   5.165 -0.4969  0.1393  0.1926
60996SOL    HW189846   4.546   4.167   5.197  0.0407  0.8717  2.7396
60996SOL    HW289847   4.640   4.285   5.212 -1.3897  2.3872  0.4118
60997SOL     OW89848  11.208   8.475   7.652  0.2843 -0.2741  0.4749
60997SOL    HW189849  11.249   8.487   7.567 -0.4516 -0.1360  0.1396
60997SOL    HW289850  11.266   8.415   7.698  0.6229 -0.4431 -0.1635
60998SOL     OW89851   0.536   1.419  11.062 -0.1782 -0.1670  0.4085
60998SOL    HW189852   0.461   1.436  11.119  1.4615  1.8215  2.1150
60998SOL    HW289853   0.526   1.484  10.992  0.1466  0.3883  0.8663
60999SOL     OW89854   5.477   9.486   6.896 -0.3144 -0.1070 -0.1519
60999SOL    HW189855   5.454   9.514   6.985  0.1456  0.5221 -0.2260
60999SOL    HW289856   5.505   9.566   6.853 -0.6601 -0.3890 -0.9085
61000SOL     OW89857   3.373   4.541   4.192 -0.1898  0.2389  0.5943
61000SOL    HW189858   3.351   4.610   4.254  1.2477  0.5856  0.7539
61000SOL    HW289859   3.444   4.493   4.234  1.4735  1.0564 -1.1501
61001SOL     OW89860   1.136   7.858   2.634  0.1832  0.4112  0.0027
61001SOL    HW189861   1.085   7.863   2.715 -0.3480 -0.2575 -0.2849
61001SOL    HW289862   1.111   7.775   2.595 -1.6636  1.8989 -2.2302
61002SOL     OW89863  11.050   2.502   3.171  0.0257  0.7601 -1.0924
61002SOL    HW189864  11.095   2.568   3.223  0.7876  0.3891 -1.2751
61002SOL    HW289865  11.119   2.460   3.119 -0.0443 -1.7622  0.6701
61003SOL     OW89866   9.225   3.033   0.085 -0.0414 -0.3714 -0.3751
61003SOL    HW189867   9.303   3.003   0.038  0.3510  0.7497 -0.4859
61003SOL    HW289868   9.155   2.975   0.057  0.1060  0.4199 -2.6087
61004SOL     OW89869   8.642   3.146   1.005 -0.4742  0.1202  1.1800
61004SOL    HW189870   8.620   3.141   0.911 -0.5842  0.1866  1.2023
61004SOL    HW289871   8.577   3.206   1.041  1.4584  2.6686  0.7291
61005SOL     OW89872   9.480   3.704   5.334  0.3578  0.3168  0.3103
61005SOL    HW189873   9.521   3.787   5.310 -0.3307  0.3348 -0.8620
61005SOL    HW289874   9.429   3.724   5.413 -1.7519  1.6535 -1.2771
61006SOL     OW89875   0.740   3.548   8.266  0.5499  0.2354 -0.1819
61006SOL    HW189876   0.674   3.491   8.227 -0.4258  0.0062  1.6622
61006SOL    HW289877   0.799   3.488   8.312  1.0635  0.5516 -0.4216
61007SOL     OW89878   6.603   6.972  10.981  0.5741  0.2377 -0.0676
61007SOL    HW189879   6.547   6.913  10.930  0.6682  0.3136 -0.2587
61007SOL    HW289880   6.683   6.922  10.997  0.5824  0.2485 -0.0757
61008SOL     OW89881   2.380   0.590   1.366  0.1009 -0.1557 -0.1228
61008SOL    HW189882   2.337   0.669   1.398 -0.1708  0.1155 -1.1219
61008SOL    HW289883   2.473   0.605   1.383  0.1196  0.6588 -0.8455
61009SOL     OW89884   3.671  10.689  12.200  0.2039  0.2058 -0.0078
61009SOL    HW189885   3.625  10.688  12.284 -0.4934 -1.2049 -0.3648
61009SOL    HW289886   3.631  10.761  12.152  0.3736  0.8075  0.7440
61010SOL     OW89887   2.217  12.484   0.158  0.8313  0.0847 -0.4874
61010SOL    HW189888   2.299  12.529   0.180  0.3247  0.5042  0.6442
61010SOL    HW289889   2.149  12.538   0.198 -0.1924  0.7766 -2.9861
61011SOL     OW89890   2.252  11.931   4.267 -0.7174  0.1007 -0.1535
61011SOL    HW189891   2.333  11.900   4.227 -0.2576  1.0746 -0.0037
61011SOL    HW289892   2.197  11.956   4.193  0.1017  1.8271 -0.2277
61012SOL     OW89893   7.239   8.988   6.742 -0.3089 -0.1215  0.2064
61012SOL    HW189894   7.174   8.925   6.709 -1.2874 -0.0799  1.9469
61012SOL    HW289895   7.193   9.037   6.809  0.9480  1.3470  0.0547
61013SOL     OW89896  11.463   9.078  10.844 -0.4469 -0.3757 -0.2098
61013SOL    HW189897  11.418   9.162  10.839 -1.5530 -0.9018  0.4852
61013SOL    HW289898  11.556   9.100  10.843 -0.7094  0.9685  1.2911
61014SOL     OW89899   5.400   1.814  10.819 -0.5335 -0.3278  0.1696
61014SOL    HW189900   5.310   1.844  10.806 -0.2396  0.6240  0.2709
61014SOL    HW289901   5.451   1.861  10.754  0.1397  0.4538  1.2232
61015SOL     OW89902   5.632   9.737   2.482  0.1995  0.5144  0.2116
61015SOL    HW189903   5.697   9.734   2.412 -0.0173 -0.2240  0.0347
61015SOL    HW289904   5.578   9.813   2.460  0.8020  0.9472  0.1914
61016SOL     OW89905   4.045   0.110   1.883 -0.1796 -0.3572  0.1934
61016SOL    HW189906   4.094   0.030   1.899 -0.3244 -0.2640  1.1905
61016SOL    HW289907   4.105   0.181   1.909 -1.0220 -0.2669  2.0682
61017SOL     OW89908   0.728   9.170   9.853 -0.2035 -0.0247 -0.0884
61017SOL    HW189909   0.651   9.139   9.805  0.8641  0.8249 -2.4847
61017SOL    HW289910   0.719   9.265   9.854  1.1639  0.1405 -1.0844
61018SOL     OW89911   3.308   6.625   6.617 -0.0501 -0.0615 -0.6001
61018SOL    HW189912   3.217   6.600   6.603 -1.4496  2.9645  1.8022
61018SOL    HW289913   3.320   6.701   6.560  0.4438  0.4784  0.2103
61019SOL     OW89914  11.970   1.139   0.207 -0.0194 -0.4771  0.1084
61019SOL    HW189915  11.914   1.199   0.255 -1.8359 -1.7648 -0.2767
61019SOL    HW289916  12.042   1.120   0.267  1.2686  2.8804 -0.1891
61020SOL     OW89917   9.401   0.075   5.088 -0.1140  0.1759  0.1805
61020SOL    HW189918   9.347   0.111   5.018  1.5711  0.7044 -0.9097
61020SOL    HW289919   9.464   0.144   5.108  1.3326 -1.0731  0.1194
61021SOL     OW89920   5.476   2.469   3.374  0.9601  0.0527 -0.0662
61021SOL    HW189921   5.556   2.520   3.384  0.5197  0.6230  0.6240
61021SOL    HW289922   5.442   2.494   3.288  2.5008 -1.6250 -1.2359
61022SOL     OW89923   4.914   2.406   9.051  0.3584  0.3899 -0.6079
61022SOL    HW189924   4.912   2.414   9.146 -0.1832  0.7198 -0.6456
61022SOL    HW289925   4.848   2.340   9.031 -1.0218  1.8099 -0.8969
61023SOL     OW89926   0.656   2.608   0.708 -0.4775  0.2569  0.2456
61023SOL    HW189927   0.746   2.610   0.676 -1.3715  1.1012 -2.5202
61023SOL    HW289928   0.644   2.692   0.752 -0.3293  0.7995 -0.7259
61024SOL     OW89929   7.575   1.241   8.021  0.1451 -0.0940 -0.1419
61024SOL    HW189930   7.580   1.335   8.038  2.5618 -0.1400 -0.2708
61024SOL    HW289931   7.610   1.231   7.933 -0.0910 -1.1151 -0.1267
61025SOL     OW89932  10.559   3.022   7.170  0.6378 -0.4225  0.2476
61025SOL    HW189933  10.586   3.045   7.081 -0.1309 -0.1783  0.0760
61025SOL    HW289934  10.499   2.948   7.159  0.2101 -0.1197  0.5325
61026SOL     OW89935   4.590   9.271   2.435 -0.2664  0.1300 -0.3247
61026SOL    HW189936   4.678   9.260   2.471  0.2926 -0.4470 -1.7774
61026SOL    HW289937   4.593   9.224   2.351 -2.2391 -0.6711  0.0174
61027SOL     OW89938   7.134   0.839   6.245  0.2161 -0.0894  0.1889
61027SOL    HW189939   7.120   0.912   6.184  0.2650  0.1284  0.4408
61027SOL    HW289940   7.164   0.767   6.189 -1.6954 -0.5251 -0.3614
61028SOL     OW89941  12.401   5.697   6.078 -0.6635 -0.1017 -0.1896
61028SOL    HW189942  12.414   5.608   6.110 -3.2608 -0.5597 -0.1984
61028SOL    HW289943  12.376   5.747   6.156 -1.9241 -0.0487 -0.6058
61029SOL     OW89944   4.376   9.649   3.391 -0.5047 -0.3177  0.2604
61029SOL    HW189945   4.350   9.558   3.376  0.1150 -0.4984  0.2561
61029SOL    HW289946   4.468   9.652   3.363 -0.5045  0.2889  0.3319
61030SOL     OW89947  10.884   0.383   0.855 -0.0207 -0.3204  0.4499
61030SOL    HW189948  10.827   0.433   0.796  2.6001  1.3942 -0.8590
61030SOL    HW289949  10.935   0.326   0.797  0.2488 -1.1394  1.4569
61031SOL     OW89950  11.014   4.599   8.397  0.0633  0.0095  0.3155
61031SOL    HW189951  10.967   4.660   8.339 -0.6055 -1.6244 -0.9447
61031SOL    HW289952  11.012   4.641   8.482 -1.2782  1.2865 -0.2898
61032SOL     OW89953   1.740   3.702   4.642  0.5537  0.2206  0.2504
61032SOL    HW189954   1.697   3.618   4.629  0.6888  0.2120 -0.1220
61032SOL    HW289955   1.815   3.682   4.698  0.6041  0.0933  0.1358
61033SOL     OW89956   0.958   1.719   5.541 -0.3873  0.3161  0.9058
61033SOL    HW189957   0.886   1.657   5.555  0.4858 -1.0786 -0.5155
61033SOL    HW289958   0.921   1.786   5.484 -0.9372  0.3775  1.3209
61034SOL     OW89959   3.050   8.080   7.248  0.3543 -0.3977 -0.6837
61034SOL    HW189960   2.990   8.135   7.197  0.1190  0.6991  0.7188
61034SOL    HW289961   3.131   8.080   7.198 -0.6126 -1.4942 -2.3623
61035SOL     OW89962   6.037   4.509   1.072  0.0242  0.2776 -1.2228
61035SOL    HW189963   6.130   4.505   1.093 -0.4422  0.5752  1.1974
61035SOL    HW289964   6.003   4.579   1.128 -1.8709 -0.6491 -1.1540
61036SOL     OW89965   5.884  12.533  10.304  0.5881  0.4048 -0.3975
61036SOL    HW189966   5.821  12.560  10.370 -1.4982 -1.0400 -1.6619
61036SOL    HW289967   5.968  12.535  10.349 -0.5946  0.4271  1.9946
61037SOL     OW89968   8.234   0.008   6.570  0.3323  0.2462  1.0193
61037SOL    HW189969   8.154   0.041   6.530  1.1398  1.9498  0.7351
61037SOL    HW289970   8.295   0.081   6.567  0.6923  0.3135  4.7307
61038SOL     OW89971  12.302   3.070   4.054  0.8551 -0.2234  0.9879
61038SOL    HW189972  12.332   3.161   4.056  0.7511 -0.1848  0.7753
61038SOL    HW289973  12.290   3.048   4.146 -0.0260  0.2844  1.0052
61039SOL     OW89974  10.968   0.054   3.289  0.0963 -0.1368 -0.6186
61039SOL    HW189975  10.937   0.005   3.213 -0.1580 -1.5342  0.3399
61039SOL    HW289976  10.985  -0.013   3.355 -2.4991  1.1699  1.5896
61040SOL     OW89977   5.236  10.746   0.447 -0.4382 -0.0083  0.2552
61040SOL    HW189978   5.284  10.690   0.387  0.3878  0.9197  0.0281
61040SOL    HW289979   5.287  10.744   0.528 -0.3352  0.4971  0.2066
61041SOL     OW89980   2.653   6.864   7.388 -0.1413 -0.1726  0.3657
61041SOL    HW189981   2.593   6.845   7.460  0.1385  0.3568  0.7535
61041SOL    HW289982   2.733   6.816   7.410  0.4255  1.0785  1.1388
61042SOL     OW89983  12.157  10.618   8.649 -0.4441  0.0521 -0.0856
61042SOL    HW189984  12.177  10.702   8.691  2.3759 -0.9711  0.8740
61042SOL    HW289985  12.113  10.567   8.716 -0.1702  0.0202  0.0702
61043SOL     OW89986  10.695   1.752   1.985  0.3069  0.2646  0.4081
61043SOL    HW189987  10.618   1.805   2.004  1.0946  1.4332  0.4771
61043SOL    HW289988  10.742   1.747   2.069  0.5913  0.0455  0.2401
61044SOL     OW89989   2.654   3.851   3.652 -0.1488 -0.1591  0.4611
61044SOL    HW189990   2.658   3.863   3.747  0.6476 -0.0460  0.4249
61044SOL    HW289991   2.567   3.881   3.627 -0.8236 -1.3188  1.3089
61045SOL     OW89992  12.252   8.048  12.398  0.1505  0.6023 -0.3752
61045SOL    HW189993  12.185   7.987  12.428 -0.6576  1.1024 -1.1049
61045SOL    HW289994  12.258   8.033  12.304  0.7103  0.9085 -0.3935
61046SOL     OW89995   9.780   2.553   3.324 -0.1790 -0.6814 -0.0402
61046SOL    HW189996   9.699   2.518   3.363 -0.4296 -0.4809 -0.3755
61046SOL    HW289997   9.800   2.493   3.252 -0.0066 -0.7520  0.0666
61047SOL     OW89998   6.338   2.946   4.348 -0.2501 -0.3530 -0.3373
61047SOL    HW189999   6.260   2.894   4.329 -0.8209 -0.3812  1.7976
61047SOL    HW290000   6.392   2.888   4.401  0.1679  0.4390  0.1139
61048SOL     OW90001  12.492   9.842  12.440 -0.1241  0.6118  0.9411
61048SOL    HW190002  12.545   9.917  12.470 -0.7376  0.8969  1.3394
61048SOL    HW290003  12.551   9.767  12.446  0.7894  1.1965 -0.3493
61049SOL     OW90004   3.068   2.708   9.224  0.1924  0.0084  0.1851
61049SOL    HW190005   3.069   2.753   9.140  0.0675  0.5516  0.4690
61049SOL    HW290006   2.991   2.745   9.269 -1.9049 -2.7899 -0.8186
61050SOL     OW90007   7.325   8.932   8.563  0.1501  0.3292 -0.5260
61050SOL    HW190008   7.257   8.960   8.502 -0.2880  0.3550 -0.0350
61050SOL    HW290009   7.299   8.843   8.589 -1.5326  1.4960  2.1774
61051SOL     OW90010  11.451   9.974   3.352  0.0834 -0.4579  0.6240
61051SOL    HW190011  11.399   9.903   3.314 -0.3791 -0.4098  1.1433
61051SOL    HW290012  11.523   9.929   3.398  0.0268 -0.5709  0.6031
61052SOL     OW90013  11.725   9.225   0.793  0.6221 -0.5546 -0.1396
61052SOL    HW190014  11.756   9.266   0.875  0.5897 -1.5660  0.4006
61052SOL    HW290015  11.709   9.133   0.817 -0.0668 -0.7038 -1.1204
61053SOL     OW90016   1.000   0.347  11.704 -0.3097 -0.3081  0.4725
61053SOL    HW190017   1.056   0.410  11.751 -0.8465  0.4447  0.1346
61053SOL    HW290018   1.058   0.305  11.641 -0.0789  0.3605  0.2295
61054SOL     OW90019   5.025   5.489   1.186 -0.2052  0.4274  0.0939
61054SOL    HW190020   4.948   5.494   1.243 -0.9122  0.4572 -0.8484
61054SOL    HW290021   5.015   5.406   1.139 -0.5072  1.1798 -1.2049
61055SOL     OW90022   1.677   3.794   2.991  0.2987 -0.4445  0.4515
61055SOL    HW190023   1.673   3.844   3.073 -0.0521 -0.8914  0.7108
61055SOL    HW290024   1.756   3.741   2.999  0.5251 -0.1302  0.2927
61056SOL     OW90025   5.666   5.964   6.193  1.0880  0.6125 -0.3850
61056SOL    HW190026   5.675   6.041   6.138 -0.3748 -1.2710 -3.5134
61056SOL    HW290027   5.573   5.942   6.189  1.7821 -2.6469 -1.6835
61057SOL     OW90028   5.447   7.708   9.164 -0.0947 -0.5671 -0.0364
61057SOL    HW190029   5.401   7.765   9.225  0.0488  1.0658 -1.3790
61057SOL    HW290030   5.413   7.621   9.181 -0.8791  0.0213  1.5703
61058SOL     OW90031   7.232   3.908   7.836 -0.1415  0.3821 -0.5098
61058SOL    HW190032   7.257   3.856   7.759 -1.2477 -1.6038  0.3941
61058SOL    HW290033   7.165   3.968   7.803  0.2233  0.3629 -1.3222
61059SOL     OW90034   1.039   3.578   7.367  0.0658 -0.2162  0.0151
61059SOL    HW190035   1.000   3.512   7.423 -1.0622  1.2294  1.0084
61059SOL    HW290036   1.088   3.634   7.427  2.5098 -1.1014 -1.0160
61060SOL     OW90037   4.778   2.454   2.280  0.4250  0.1333  0.5834
61060SOL    HW190038   4.808   2.367   2.253 -1.4204 -0.3210 -0.1546
61060SOL    HW290039   4.858   2.499   2.310  2.3090 -0.0904 -3.4758
61061SOL     OW90040  11.088   6.192   7.705 -0.5182  0.1942 -0.2406
61061SOL    HW190041  11.143   6.151   7.639  2.0358  1.1430  1.1497
61061SOL    HW290042  11.002   6.200   7.663  0.6622 -0.3137 -2.9733
61062SOL     OW90043   1.796   3.808   4.382  0.4348 -0.5400  0.0240
61062SOL    HW190044   1.751   3.754   4.447  1.5579  0.5287  1.7566
61062SOL    HW290045   1.750   3.891   4.382 -0.5338 -1.0117 -1.7633
61063SOL     OW90046   4.012   3.718   7.684  0.0129  0.1570  0.2791
61063SOL    HW190047   4.033   3.682   7.598  0.7226  1.5386 -0.1609
61063SOL    HW290048   4.044   3.808   7.680 -0.4740  0.4181  1.7949
61064SOL     OW90049   8.501   5.750   7.228  0.2407  0.0725  0.0220
61064SOL    HW190050   8.574   5.769   7.170  0.5221  0.1799  0.4043
61064SOL    HW290051   8.536   5.688   7.292  0.2028  0.6591  0.6274
61065SOL     OW90052   8.485   8.379   7.353 -0.6247  0.3799  0.0147
61065SOL    HW190053   8.471   8.285   7.352 -0.9690  0.3800 -2.7640
61065SOL    HW290054   8.580   8.388   7.362 -0.0470 -0.4976 -3.5112
61066SOL     OW90055  10.280   2.380   4.872 -1.1221  0.1227 -0.0620
61066SOL    HW190056  10.368   2.407   4.894 -0.6349 -0.7733 -0.8246
61066SOL    HW290057  10.255   2.435   4.798 -0.9679 -0.0327 -0.2306
61067SOL     OW90058   2.702  12.289   3.299  0.1171  0.3138  0.0501
61067SOL    HW190059   2.787  12.305   3.258  0.3315  0.4259  0.5388
61067SOL    HW290060   2.650  12.248   3.230  0.4524  0.5740 -0.3612
61068SOL     OW90061   8.718   2.038   4.376  0.4445  0.2334 -0.1005
61068SOL    HW190062   8.635   2.075   4.406 -0.2424 -0.3471 -1.2499
61068SOL    HW290063   8.723   1.952   4.417  0.0980 -0.0518 -0.6492
61069SOL     OW90064   2.901  12.446   4.923  0.1576  0.4748 -0.2571
61069SOL    HW190065   2.907  12.420   5.015  1.0366 -0.6849 -0.6216
61069SOL    HW290066   2.825  12.399   4.890 -0.8785  1.8023  0.1327
61070SOL     OW90067  11.830   1.518   1.299  0.0667 -0.2420 -0.0532
61070SOL    HW190068  11.743   1.514   1.258  0.1013 -1.3214 -0.0664
61070SOL    HW290069  11.891   1.503   1.226  0.1985 -0.7458  0.1582
61071SOL     OW90070   9.663   9.395   9.166 -0.2947  0.0941  0.1225
61071SOL    HW190071   9.718   9.474   9.168  0.0617 -0.1463 -0.0018
61071SOL    HW290072   9.725   9.324   9.152 -0.8774  0.0321 -2.6609
61072SOL     OW90073   3.973   5.858   8.350  0.6490 -0.0059  0.3504
61072SOL    HW190074   3.941   5.768   8.343  0.1763  0.1788  0.0362
61072SOL    HW290075   3.951   5.897   8.265 -0.3895  0.7915  0.9646
61073SOL     OW90076  12.290   1.701   2.106 -0.4369  0.1990 -0.0669
61073SOL    HW190077  12.374   1.723   2.065 -0.6833 -0.4453 -0.9421
61073SOL    HW290078  12.274   1.610   2.081 -0.2493 -0.4832  2.0857
61074SOL     OW90079   3.900  11.478   0.902 -0.4942  0.1952  0.2077
61074SOL    HW190080   3.980  11.506   0.856 -0.8828  0.2131 -0.4649
61074SOL    HW290081   3.910  11.384   0.911  0.8711  0.4864  2.5719
61075SOL     OW90082  11.463   0.132   0.493  0.0679 -0.0494  0.1697
61075SOL    HW190083  11.506   0.167   0.415  0.4961  0.8926  0.7979
61075SOL    HW290084  11.418   0.054   0.463 -1.5370  1.4083 -1.4803
61076SOL     OW90085  10.280   8.280  12.101 -0.0226 -0.1378  0.3584
61076SOL    HW190086  10.319   8.344  12.042 -1.6907 -0.3538 -1.0793
61076SOL    HW290087  10.354   8.231  12.136  1.0855  0.5109 -0.9838
61077SOL     OW90088   0.592   1.371   3.220  0.1019  0.2293  0.2191
61077SOL    HW190089   0.658   1.308   3.247  1.0481  1.3536  0.6322
61077SOL    HW290090   0.593   1.370   3.125 -0.5213 -0.9916  0.2096
61078SOL     OW90091   5.146   9.937  12.383  0.0973 -0.0181 -0.0326
61078SOL    HW190092   5.157   9.930  12.478  0.9818  2.4106  0.1165
61078SOL    HW290093   5.052   9.948  12.370 -0.0192 -0.2945  0.5837
61079SOL     OW90094   3.888   0.723  10.377  0.1627  0.0071 -0.2701
61079SOL    HW190095   3.816   0.682  10.425  1.1568 -1.4973 -0.0210
61079SOL    HW290096   3.855   0.810  10.355 -1.9812 -0.8617 -0.7405
61080SOL     OW90097   6.964   0.995   1.832  0.1093  0.4895 -0.1203
61080SOL    HW190098   6.878   0.999   1.789 -0.0138  0.2464  0.1021
61080SOL    HW290099   6.949   0.942   1.910  0.2232  1.3048  0.4644
61081SOL     OW90100   8.748  12.240  12.461  0.0684  0.2183 -0.3461
61081SOL    HW190101   8.658  12.258  12.486  0.6431  1.3328  1.0613
61081SOL    HW290102   8.746  12.153  12.422 -1.6794  0.4252 -0.7870
61082SOL     OW90103  10.908  12.470   0.082 -0.3409 -0.3662 -0.1011
61082SOL    HW190104  10.909  12.374   0.079 -0.3978 -0.3486 -1.8520
61082SOL    HW290105  10.815  12.492   0.078 -0.2926 -0.2333 -0.5049
61083SOL     OW90106   4.495  12.128   9.997 -0.5132  0.1873 -0.3973
61083SOL    HW190107   4.470  12.114  10.088  0.3777  0.0065 -0.1744
61083SOL    HW290108   4.429  12.188   9.963 -1.2234 -0.2470  0.1784
61084SOL     OW90109   6.462   9.105   0.000  0.0909  0.4324  0.4076
61084SOL    HW190110   6.474   9.033   0.063 -0.3608  0.4276  0.4917
61084SOL    HW290111   6.368   9.124   0.003  0.0479  0.3584 -0.3555
61085SOL     OW90112   0.528   8.313   8.616 -0.1248 -0.1882  0.4465
61085SOL    HW190113   0.473   8.384   8.585 -0.0084 -0.7528 -1.1595
61085SOL    HW290114   0.466   8.245   8.644 -0.2860 -0.8647 -1.4535
61086SOL     OW90115   8.200   1.186   2.603  0.6813  0.0481 -0.1372
61086SOL    HW190116   8.219   1.244   2.677  1.7545 -0.2527 -0.1549
61086SOL    HW290117   8.257   1.110   2.617  1.3790  0.2646 -1.5822
61087SOL     OW90118   2.326   0.822   9.241 -0.5566 -0.5683 -0.6911
61087SOL    HW190119   2.417   0.836   9.214 -0.0490 -0.9278  0.7667
61087SOL    HW290120   2.311   0.728   9.228 -1.0491 -0.3434 -1.8537
61088SOL     OW90121   2.701   9.969  12.555 -0.0549  0.3568  0.4975
61088SOL    HW190122   2.715   9.904  12.624  2.0137  2.3987  2.1359
61088SOL    HW290123   2.763   9.946  12.486  0.0008  0.0751  0.6411
61089SOL     OW90124   6.050  10.283   2.285  0.2011  0.6081 -0.2612
61089SOL    HW190125   5.959  10.254   2.277  0.3218  0.3200 -0.6513
61089SOL    HW290126   6.046  10.378   2.276  0.2385  0.4219 -3.6311
61090SOL     OW90127  10.841   9.607   4.725  0.5325  0.0407  0.2647
61090SOL    HW190128  10.791   9.551   4.665 -1.0215  1.1950  0.4350
61090SOL    HW290129  10.855   9.552   4.803 -0.0746 -0.4545  0.0291
61091SOL     OW90130  10.324  10.470  12.343 -0.1016 -0.1073  0.1965
61091SOL    HW190131  10.403  10.427  12.310 -1.0074 -1.4121 -0.3549
61091SOL    HW290132  10.351  10.510  12.426  1.3494  0.2514 -0.4359
61092SOL     OW90133   6.488   6.759   3.254  0.0574 -0.0492  0.4663
61092SOL    HW190134   6.545   6.782   3.327 -1.8039  1.1979  1.5837
61092SOL    HW290135   6.513   6.820   3.184  0.5829 -0.0191  0.6748
61093SOL     OW90136  10.692   7.131   0.165  0.0550 -0.4245  0.0710
61093SOL    HW190137  10.694   7.224   0.141  0.8169 -0.7061 -1.0518
61093SOL    HW290138  10.613   7.098   0.123 -0.5750 -0.1689  1.0162
61094SOL     OW90139   3.954   2.723   2.423  0.6000 -0.4931  0.4674
61094SOL    HW190140   3.972   2.630   2.408  2.4125  0.0706 -1.3095
61094SOL    HW290141   3.862   2.734   2.397  0.5112 -1.6727  0.2156
61095SOL     OW90142   5.123  11.469   7.408 -0.2935 -0.0464 -0.1278
61095SOL    HW190143   5.202  11.425   7.376 -0.8545 -1.0529 -0.1912
61095SOL    HW290144   5.075  11.494   7.328 -1.2304 -1.6994 -0.1299
61096SOL     OW90145   8.385  10.212   1.518  0.0775 -0.0935 -0.6405
61096SOL    HW190146   8.355  10.303   1.515  0.9887  0.2063 -3.0674
61096SOL    HW290147   8.479  10.219   1.531 -0.0649 -0.8114  1.0030
61097SOL     OW90148   4.195   8.545  11.015  0.3207  0.1946 -0.2349
61097SOL    HW190149   4.101   8.553  11.002  0.3090 -0.9894 -0.9243
61097SOL    HW290150   4.232   8.550  10.927  0.7622 -1.0924 -0.1287
61098SOL     OW90151   0.554   3.014   6.669  0.1019  0.1902 -0.3425
61098SOL    HW190152   0.581   2.932   6.709 -1.4068  0.8197  2.2269
61098SOL    HW290153   0.459   3.016   6.681 -0.0073  1.9014 -1.1909
61099SOL     OW90154   7.488   0.455  10.215 -0.0680 -0.4036 -0.2226
61099SOL    HW190155   7.434   0.471  10.292 -0.3400  0.0598 -0.5051
61099SOL    HW290156   7.426   0.438  10.144  0.0231  1.9926 -0.9831
61100SOL     OW90157   1.144   6.572   9.369  0.6786 -0.0604  0.3061
61100SOL    HW190158   1.050   6.566   9.389  0.6871 -1.9260 -0.0042
61100SOL    HW290159   1.155   6.517   9.291  2.0760 -0.1194  0.5275
61101SOL     OW90160  11.957  10.085   4.216 -0.6600  0.4058  0.0706
61101SOL    HW190161  11.916  10.155   4.267  0.9652  1.4388  0.0088
61101SOL    HW290162  11.912  10.087   4.132 -1.0543  0.9388  0.2888
61102SOL     OW90163   1.066  11.414   3.102  0.7618 -0.0334 -0.2631
61102SOL    HW190164   1.093  11.475   3.033 -0.1015  0.0340 -0.5677
61102SOL    HW290165   0.970  11.415   3.097  0.6835  0.0044  0.9754
61103SOL     OW90166   7.467   4.993  10.104  0.2946  0.6877  0.3666
61103SOL    HW190167   7.383   5.036  10.121 -0.3079  0.7949 -2.3494
61103SOL    HW290168   7.443   4.902  10.085  0.8570  0.5891  0.1240
61104SOL     OW90169   3.411   5.481  12.517  0.5732 -0.1462  0.8248
61104SOL    HW190170   3.381   5.550  12.457 -1.2912 -0.1459  1.6896
61104SOL    HW290171   3.374   5.400  12.482  1.8569 -0.5624  0.4101
61105SOL     OW90172  10.773   0.892  11.380  0.5817 -0.2519  0.1823
61105SOL    HW190173  10.717   0.863  11.452  1.5989 -0.0171  1.0942
61105SOL    HW290174  10.756   0.986  11.373  1.3036 -0.0570  0.8851
61106SOL     OW90175   4.571   5.301   1.820  0.1902  0.8770 -0.0171
61106SOL    HW190176   4.626   5.342   1.754 -0.5125  0.2436 -1.0231
61106SOL    HW290177   4.629   5.288   1.895  2.0071 -1.6228 -1.7179
61107SOL     OW90178   5.255   3.311   9.725  0.1905 -0.4201 -0.2095
61107SOL    HW190179   5.324   3.269   9.776  0.0995  0.3288  0.5529
61107SOL    HW290180   5.174   3.288   9.770  0.0390 -0.3519 -0.4418
61108SOL     OW90181   3.435   2.010   9.211  0.0971  0.0814 -0.3123
61108SOL    HW190182   3.404   2.084   9.264  0.5993 -1.4452  2.2624
61108SOL    HW290183   3.529   2.007   9.227  0.2648 -0.3993 -1.3498
61109SOL     OW90184   2.573   5.293   0.238 -0.3863  0.4359  0.0058
61109SOL    HW190185   2.644   5.317   0.298  0.1493 -0.1024 -0.3933
61109SOL    HW290186   2.498   5.277   0.295 -0.3567  1.6047  0.3848
61110SOL     OW90187   7.009   0.648   1.078  0.3966  0.3142 -0.6346
61110SOL    HW190188   7.007   0.620   1.170  1.4288  1.5584 -0.1977
61110SOL    HW290189   7.007   0.567   1.028 -1.2941 -0.3808  0.4321
61111SOL     OW90190   3.691   8.807   6.561  0.0028  0.0747  0.1975
61111SOL    HW190191   3.696   8.767   6.474  0.1792 -0.5329  0.4822
61111SOL    HW290192   3.703   8.734   6.622 -0.9169  0.3628  0.7514
61112SOL     OW90193   0.291   6.093  10.439 -0.1711  0.0616  0.0597
61112SOL    HW190194   0.229   6.098  10.366  0.8873  1.7551 -0.8003
61112SOL    HW290195   0.320   6.184  10.452  1.6803 -0.5846  0.7880
61113SOL     OW90196   6.138   7.061   3.086  0.4195  0.1478  0.2852
61113SOL    HW190197   6.148   6.980   3.135 -2.0400 -0.1217  0.4671
61113SOL    HW290198   6.104   7.034   3.001  0.0378  0.9491  0.1725
61114SOL     OW90199   3.771   8.133   0.118  0.0602  0.3154 -0.1323
61114SOL    HW190200   3.741   8.208   0.066 -0.3306 -1.1844 -2.1525
61114SOL    HW290201   3.843   8.096   0.067 -0.2132 -1.1057  0.4911
61115SOL     OW90202   5.850   2.059   3.719 -0.2501  0.2285  0.1235
61115SOL    HW190203   5.769   2.027   3.759  0.2242 -0.4584  0.5707
61115SOL    HW290204   5.830   2.066   3.626 -1.1121  0.9951  0.3596
61116SOL     OW90205   9.921  11.042   1.661  0.1323  0.5434  0.4492
61116SOL    HW190206   9.840  11.090   1.643 -0.0517 -0.5733 -2.2011
61116SOL    HW290207   9.899  10.983   1.733 -2.1743 -1.2703 -1.5758
61117SOL     OW90208   1.763   4.617   6.275  0.7406  0.0531  1.3887
61117SOL    HW190209   1.760   4.683   6.345 -2.0277  2.0130 -0.3349
61117SOL    HW290210   1.726   4.662   6.199 -1.2217 -3.4827  0.0239
61118SOL     OW90211   5.243   6.172   2.853 -0.0992 -0.1416  0.0230
61118SOL    HW190212   5.232   6.150   2.761 -1.6449 -0.9581  0.3730
61118SOL    HW290213   5.286   6.095   2.891 -0.9637 -0.5099  0.2825
61119SOL     OW90214   7.562  10.653   2.773  0.3932  0.4412  0.3597
61119SOL    HW190215   7.616  10.594   2.720  0.8263 -0.7715  2.0562
61119SOL    HW290216   7.498  10.595   2.814 -1.7902  1.7390 -0.9984
61120SOL     OW90217   9.667   8.778   5.893 -0.2722  0.4476  0.1492
61120SOL    HW190218   9.577   8.776   5.925  0.0458  1.6518  1.2250
61120SOL    HW290219   9.688   8.871   5.886  0.5390  0.1901 -1.1562
61121SOL     OW90220   9.541   3.459   6.560  0.5051 -0.0905  0.3178
61121SOL    HW190221   9.604   3.494   6.496 -0.0817 -0.0448 -0.2492
61121SOL    HW290222   9.501   3.536   6.599  1.4079 -0.1035  1.3212
61122SOL     OW90223   1.848   6.255   8.255  0.2539 -0.4449 -0.3668
61122SOL    HW190224   1.823   6.265   8.347  0.4252  1.1685 -0.4599
61122SOL    HW290225   1.801   6.177   8.225 -0.1123 -0.7608  0.9828
61123SOL     OW90226   5.641   5.036   0.291  0.2573  0.5253 -0.1816
61123SOL    HW190227   5.578   5.108   0.290 -2.4933 -1.7018 -0.5551
61123SOL    HW290228   5.617   4.984   0.368  0.0471 -1.6447 -1.6388
61124SOL     OW90229  10.846   4.631   5.922 -0.4756 -0.1605  0.1663
61124SOL    HW190230  10.832   4.537   5.912  1.2855 -0.5157  0.6632
61124SOL    HW290231  10.846   4.644   6.017 -2.6958  0.7140  0.0986
61125SOL     OW90232   3.220  12.538   5.468  0.0195 -0.1190 -0.7845
61125SOL    HW190233   3.289  12.531   5.534 -0.5070  1.8456  0.0472
61125SOL    HW290234   3.145  12.493   5.506  0.4433 -1.2062 -1.1797
61126SOL     OW90235   6.374   2.008   1.792 -0.1495  0.5804 -0.3397
61126SOL    HW190236   6.382   1.950   1.716 -2.4697 -0.1627 -0.0914
61126SOL    HW290237   6.295   2.060   1.775 -1.7164 -0.7463  2.2323
61127SOL     OW90238   0.301   3.379   5.808 -0.1680  0.4038  0.3174
61127SOL    HW190239   0.261   3.462   5.834 -1.5594 -0.2245  0.2911
61127SOL    HW290240   0.383   3.404   5.766 -0.9084  1.8296 -0.3764
61128SOL     OW90241   2.498   6.630   1.479 -0.0048 -0.1772 -0.0508
61128SOL    HW190242   2.412   6.666   1.458 -0.2782 -1.5888 -1.6176
61128SOL    HW290243   2.480   6.542   1.511  0.8578 -0.7153 -0.9798
61129SOL     OW90244   0.358   9.232   4.188 -0.5027 -0.0131  0.4787
61129SOL    HW190245   0.438   9.179   4.192 -1.4718 -1.4425  2.3804
61129SOL    HW290246   0.389   9.320   4.166  1.5620 -0.5963  0.8408
61130SOL     OW90247   8.547   8.717  10.617 -0.1689  0.3938 -0.2700
61130SOL    HW190248   8.579   8.675  10.697  0.6537  0.2739 -0.6573
61130SOL    HW290249   8.461   8.677  10.603  0.1315 -0.3685 -0.0300
61131SOL     OW90250   9.920   1.394  11.706 -0.3403  0.2678  0.6999
61131SOL    HW190251   9.969   1.407  11.788  1.0290  0.0740 -0.0545
61131SOL    HW290252   9.981   1.347  11.650 -1.6351 -0.5067 -0.0879
61132SOL     OW90253   4.522   3.249   4.900 -0.0830  0.2661  0.1351
61132SOL    HW190254   4.607   3.267   4.942  0.4224  1.4136 -1.2974
61132SOL    HW290255   4.543   3.194   4.825 -0.4689  1.2003 -0.6848
61133SOL     OW90256   7.182   2.518   0.906  0.3314  0.4675  0.1164
61133SOL    HW190257   7.253   2.523   0.969  0.2019  0.7768  0.2418
61133SOL    HW290258   7.225   2.503   0.822  0.4745 -0.3780  0.3411
61134SOL     OW90259   4.042   3.777   3.872 -0.5683 -0.1226  1.0187
61134SOL    HW190260   4.133   3.751   3.883 -0.0251  0.9836 -0.5442
61134SOL    HW290261   4.002   3.705   3.822 -0.2973 -0.1485  0.8404
61135SOL     OW90262   4.941   9.645   2.427  0.1589 -0.0545  0.0971
61135SOL    HW190263   4.852   9.679   2.431  0.8898  2.5651 -2.6748
61135SOL    HW290264   4.991   9.700   2.487  0.2403 -0.5447  0.4961
61136SOL     OW90265   0.814   4.721   0.727 -0.5555 -0.2466  0.2898
61136SOL    HW190266   0.864   4.640   0.736  0.1181  0.0730 -0.3918
61136SOL    HW290267   0.803   4.753   0.816 -1.7010 -1.5822  0.6631
61137SOL     OW90268   8.388   2.817   5.820 -0.0913 -0.5619  0.5732
61137SOL    HW190269   8.470   2.794   5.776  1.2553 -1.7967  3.4335
61137SOL    HW290270   8.351   2.733   5.848 -0.8520  0.1428  1.7599
61138SOL     OW90271   1.995   8.855  11.077 -0.2796  0.0548  0.5080
61138SOL    HW190272   1.955   8.770  11.055 -1.1128  0.1308  1.6342
61138SOL    HW290273   1.939   8.919  11.033 -0.6260  0.0939  0.9978
61139SOL     OW90274   9.651  11.106   2.616 -0.8562 -0.0073  0.1868
61139SOL    HW190275   9.624  11.162   2.688 -0.1649 -0.2857  0.6671
61139SOL    HW290276   9.646  11.017   2.651 -1.9433 -0.2708 -0.5637
61140SOL     OW90277  11.363   3.304   2.321  0.3830 -0.2513 -0.4400
61140SOL    HW190278  11.428   3.313   2.251  1.2272 -2.1098  0.0528
61140SOL    HW290279  11.396   3.358   2.392  1.2505 -0.9542 -0.3014
61141SOL     OW90280   6.071   8.067   6.997 -0.4374  0.6714 -0.6522
61141SOL    HW190281   6.078   8.161   7.013 -1.7118  0.6683  0.0279
61141SOL    HW290282   5.981   8.054   6.966  0.0003 -0.2082 -1.6331
61142SOL     OW90283   3.508   0.476   3.699  0.0209 -0.0917  0.1307
61142SOL    HW190284   3.530   0.433   3.617  1.5724  1.1629 -0.1780
61142SOL    HW290285   3.417   0.505   3.688  0.5346  1.0077 -1.6176
61143SOL     OW90286   0.674   5.354   5.176 -0.6808  0.4884 -0.4159
61143SOL    HW190287   0.636   5.439   5.199  0.9111  0.7273  1.7194
61143SOL    HW290288   0.708   5.366   5.088  2.3901  3.2596  0.9348
61144SOL     OW90289   9.573   6.302   9.951 -0.9373 -0.1409 -0.1514
61144SOL    HW190290   9.649   6.318   9.895 -1.8600 -0.0706 -1.4180
61144SOL    HW290291   9.585   6.362  10.025  0.5826 -0.6199  0.0364
61145SOL     OW90292   8.936  10.758   0.038 -0.7759  0.0842  0.4470
61145SOL    HW190293   8.904  10.828   0.095 -3.3638 -0.2489 -0.4662
61145SOL    HW290294   8.951  10.801  -0.046 -2.5326 -0.4147 -0.1639
61146SOL     OW90295   1.285   7.386   8.550  0.2396  0.2554 -0.1259
61146SOL    HW190296   1.362   7.439   8.529  0.1642  1.5789  2.5659
61146SOL    HW290297   1.216   7.450   8.568 -1.0568 -0.8907 -0.8250
61147SOL     OW90298   0.846   6.039  12.463  0.0139  0.2875 -0.7600
61147SOL    HW190299   0.898   6.021  12.541 -0.5446 -0.7214 -0.6048
61147SOL    HW290300   0.818   6.130  12.473  0.9056  0.5242 -0.3556
61148SOL     OW90301   0.597   6.560   8.390  0.2189  0.8849 -0.3351
61148SOL    HW190302   0.648   6.609   8.454 -0.8952 -1.7247  2.7954
61148SOL    HW290303   0.655   6.487   8.365  0.0771  1.0493 -1.1645
61149SOL     OW90304   5.924   8.301   2.487  0.1414 -0.4532 -0.0724
61149SOL    HW190305   5.865   8.312   2.413 -0.0133 -0.4133  0.0561
61149SOL    HW290306   5.927   8.207   2.503  0.2290 -0.4678 -0.1727
61150SOL     OW90307   2.735  10.431   9.169 -0.1648  0.0330 -0.1495
61150SOL    HW190308   2.810  10.381   9.203  0.5053  0.1530 -1.3928
61150SOL    HW290309   2.734  10.411   9.076 -2.8193 -1.4257  0.1042
61151SOL     OW90310  11.810  10.689  11.092 -0.1356  0.1950 -0.3360
61151SOL    HW190311  11.723  10.698  11.133 -0.3175  1.0448 -0.8804
61151SOL    HW290312  11.871  10.699  11.165 -0.4901 -0.2507  0.0311
61152SOL     OW90313   5.713   4.109   0.003  0.4551 -0.0809  0.0188
61152SOL    HW190314   5.701   4.107   0.098 -1.2108  1.4880 -0.1002
61152SOL    HW290315   5.624   4.115  -0.031  1.1151  1.0402 -1.5735
61153SOL     OW90316   4.647   6.633   3.674  1.0758  0.8246 -0.2141
61153SOL    HW190317   4.727   6.581   3.669  0.7732  0.3005  0.2789
61153SOL    HW290318   4.617   6.622   3.764  0.6424  1.3091 -0.2945
61154SOL     OW90319   7.070   7.569   8.425  0.2652 -0.1765  0.0000
61154SOL    HW190320   7.018   7.535   8.353  0.0448  1.0906 -0.4679
61154SOL    HW290321   7.148   7.606   8.383 -1.0409  2.8944  0.0688
61155SOL     OW90322   9.850   4.012   7.157  0.2026 -0.2986 -0.6004
61155SOL    HW190323   9.801   4.093   7.141 -1.2231 -0.8561  0.6280
61155SOL    HW290324   9.826   3.955   7.084  0.7284  0.1661 -1.1425
61156SOL     OW90325   6.380   6.406   5.702 -0.4249  0.0849 -0.2612
61156SOL    HW190326   6.304   6.433   5.650 -2.1277 -0.4479  1.8129
61156SOL    HW290327   6.433   6.486   5.710 -0.5733  0.3949 -1.9912
61157SOL     OW90328   2.017  10.591  11.634  0.3623  0.7544  0.6878
61157SOL    HW190329   2.074  10.561  11.563 -0.2801  0.7487  0.1735
61157SOL    HW290330   2.013  10.686  11.625  1.6208  0.9383  1.7392
61158SOL     OW90331  11.722   8.155   4.817 -0.1734  0.0375  0.7337
61158SOL    HW190332  11.668   8.125   4.890 -0.6771 -0.2139  0.2609
61158SOL    HW290333  11.805   8.180   4.858 -0.7709  0.8136  1.5192
61159SOL     OW90334   7.402   2.489   1.068 -0.1862 -0.7849  0.3411
61159SOL    HW190335   7.431   2.460   1.154 -0.7369 -1.2760  0.3666
61159SOL    HW290336   7.413   2.413   1.011  0.2404 -0.4439 -0.0448
61160SOL     OW90337   0.125  11.080   4.662  0.1529 -0.1164 -0.3755
61160SOL    HW190338   0.147  11.165   4.701  0.1154 -0.2256 -0.1147
61160SOL    HW290339   0.068  11.101   4.589  0.3977  0.1062 -0.5018
61161SOL     OW90340   3.907   4.589   2.092  0.3197 -0.2408 -0.6833
61161SOL    HW190341   3.931   4.663   2.148  0.6436 -0.8034 -0.0568
61161SOL    HW290342   3.855   4.627   2.022  0.9543  0.6628 -0.6784
61162SOL     OW90343   6.549   7.572  11.540  0.2043 -0.3554 -0.3584
61162SOL    HW190344   6.565   7.540  11.629  0.6838 -0.0077 -0.3154
61162SOL    HW290345   6.464   7.535  11.517 -0.6146  0.7168  0.7971
61163SOL     OW90346   7.397   6.680   8.379  0.0121 -0.2428 -0.3396
61163SOL    HW190347   7.478   6.707   8.423 -1.2592  3.3927  0.1537
61163SOL    HW290348   7.328   6.704   8.441 -1.6048  0.6253 -2.3751
61164SOL     OW90349   5.197  10.354   8.937  0.4396 -0.2633  0.8199
61164SOL    HW190350   5.147  10.372   9.016  0.0018 -0.4978  0.5988
61164SOL    HW290351   5.146  10.289   8.890  0.6569 -0.0674  0.3037
61165SOL     OW90352   8.326   1.815  11.900  0.2846 -0.4286  0.2586
61165SOL    HW190353   8.398   1.861  11.857  0.9548  0.5633  2.2882
61165SOL    HW290354   8.364   1.784  11.982 -0.7161 -2.9071 -0.1427
61166SOL     OW90355   3.123   9.741   4.021 -0.4126  0.0630 -0.0587
61166SOL    HW190356   3.069   9.758   3.945 -0.3468 -1.1833 -0.4046
61166SOL    HW290357   3.117   9.821   4.073 -1.5843  0.4035 -0.6810
61167SOL     OW90358  11.315  11.125  11.186  0.4612 -0.4133  0.1938
61167SOL    HW190359  11.371  11.073  11.129 -0.1639 -0.6390 -0.2223
61167SOL    HW290360  11.315  11.212  11.148  1.0661 -0.2357  0.5807
61168SOL     OW90361   2.079   0.297   5.435  0.1483  0.2304 -0.6372
61168SOL    HW190362   2.052   0.268   5.348  1.6774 -0.4070 -0.9369
61168SOL    HW290363   2.010   0.357   5.463 -0.2582  0.6389 -2.3850
61169SOL     OW90364   7.996   4.589   7.892  0.0506 -0.4331  0.3593
61169SOL    HW190365   7.939   4.513   7.905 -0.4093  0.0469  1.2175
61169SOL    HW290366   7.938   4.665   7.907  0.8517  0.0660  0.9974
61170SOL     OW90367  10.874   8.392   6.408 -0.1348 -0.2083 -0.2382
61170SOL    HW190368  10.903   8.301   6.406 -0.2396 -0.2286 -1.1160
61170SOL    HW290369  10.783   8.389   6.376 -0.1290  0.2045 -0.2972
61171SOL     OW90370   0.203   6.005   3.935  0.0292 -0.2865 -0.2571
61171SOL    HW190371   0.236   5.930   3.984  0.4635 -0.4777 -0.8228
61171SOL    HW290372   0.229   6.081   3.986  0.0213 -0.5014  0.0698
61172SOL     OW90373  10.967   6.433  10.495 -0.1022 -0.3174 -0.5051
61172SOL    HW190374  11.000   6.452  10.407 -0.2528  1.1937 -0.2568
61172SOL    HW290375  11.042   6.449  10.553 -0.1654 -0.7498 -0.2981
61173SOL     OW90376  12.406   8.291  12.067  0.4487 -0.2806  0.1375
61173SOL    HW190377  12.357   8.210  12.053  0.5954 -0.2566 -0.5640
61173SOL    HW290378  12.348   8.345  12.119 -1.6148  0.9075 -3.0648
61174SOL     OW90379  10.891   7.131   6.135  0.5747 -0.2229 -0.8431
61174SOL    HW190380  10.881   7.136   6.040  0.2633  1.5480 -0.7551
61174SOL    HW290381  10.985   7.120   6.148  0.7966  0.9393 -1.3490
61175SOL     OW90382   8.026   1.507   0.883 -0.8888  0.1269  0.1618
61175SOL    HW190383   8.079   1.570   0.834 -1.2679  1.2831  1.1968
61175SOL    HW290384   7.969   1.467   0.818  1.0653 -0.9942 -0.9513
61176SOL     OW90385   5.811   9.140   1.753 -0.0712  0.1056 -0.4563
61176SOL    HW190386   5.842   9.075   1.690 -0.7750 -0.4838 -0.2092
61176SOL    HW290387   5.854   9.116   1.835 -0.1272  0.1052 -0.4269
61177SOL     OW90388   3.868   4.790  11.060 -0.5954  0.3752  0.2999
61177SOL    HW190389   3.843   4.869  11.107 -0.3899  0.7323 -0.1827
61177SOL    HW290390   3.870   4.816  10.968  1.8880  0.4983  0.3022
61178SOL     OW90391   6.289   0.786   3.553  0.1805 -0.1580  0.1608
61178SOL    HW190392   6.264   0.701   3.515  0.2038 -0.8873  1.6796
61178SOL    HW290393   6.215   0.810   3.608  0.0480  0.9798 -0.4985
61179SOL     OW90394   6.438   4.395   3.682  0.7739  0.1091  0.3558
61179SOL    HW190395   6.512   4.378   3.739  0.9804  1.3482  0.4789
61179SOL    HW290396   6.363   4.406   3.741  1.0551  1.7502  0.4386
61180SOL     OW90397   7.553   8.584   1.335  0.7658 -0.1509 -0.4071
61180SOL    HW190398   7.570   8.676   1.358 -0.4101  0.5944 -2.2203
61180SOL    HW290399   7.636   8.553   1.298  1.3016  0.0182  0.6135
61181SOL     OW90400   7.628   0.369   3.036  0.3641 -0.0737  0.7548
61181SOL    HW190401   7.577   0.360   3.116 -1.2084  0.6008 -0.1357
61181SOL    HW290402   7.567   0.346   2.965  0.8078  2.1319 -0.4580
61182SOL     OW90403   0.338   7.247   7.903  0.3747  0.4875  0.1812
61182SOL    HW190404   0.365   7.337   7.883  0.6586  0.3073 -0.2794
61182SOL    HW290405   0.242   7.249   7.900  0.2866  1.2154  2.1839
61183SOL     OW90406  12.133   4.078   5.646  0.3851  0.0790  0.1447
61183SOL    HW190407  12.064   4.022   5.682  0.9712 -1.6800 -1.3598
61183SOL    HW290408  12.210   4.022   5.641  0.6318  0.5200 -2.7421
61184SOL     OW90409   7.048   3.624   5.402  0.6872 -0.4719 -0.3189
61184SOL    HW190410   7.022   3.666   5.484  1.7150  0.5436 -0.4876
61184SOL    HW290411   7.025   3.688   5.334 -2.3330 -2.2200 -1.1300
61185SOL     OW90412   5.444   8.562  10.014  0.1747 -0.5064  0.3041
61185SOL    HW190413   5.397   8.489  10.054 -1.2513 -1.2475 -2.4943
61185SOL    HW290414   5.426   8.637  10.071 -1.8925 -1.4276  0.9351
61186SOL     OW90415   7.869  11.782   8.516  0.0634 -0.2080 -0.4627
61186SOL    HW190416   7.783  11.746   8.536  0.0338 -0.2066 -0.5872
61186SOL    HW290417   7.922  11.706   8.491  0.0566 -0.1897 -0.5322
61187SOL     OW90418   6.894   2.888  10.078 -0.6022 -0.1235 -0.3006
61187SOL    HW190419   6.844   2.887  10.159  0.2688 -1.0350  0.2391
61187SOL    HW290420   6.828   2.877  10.009 -1.0044 -4.7846  0.5162
61188SOL     OW90421   1.726  11.602   8.623  0.1931  0.9284 -0.5128
61188SOL    HW190422   1.746  11.552   8.544 -0.6512 -0.4199  0.0821
61188SOL    HW290423   1.797  11.578   8.684 -1.1597 -1.0820  0.3964
61189SOL     OW90424   4.202  12.022   6.466 -0.4330  0.0300 -0.0187
61189SOL    HW190425   4.249  11.998   6.387  0.5490  0.9189  0.2684
61189SOL    HW290426   4.144  12.094   6.439  0.6666  1.0576  0.2513
61190SOL     OW90427   6.141  10.504   0.570  0.0205 -0.5436  0.3147
61190SOL    HW190428   6.205  10.433   0.570  1.7890  0.9838 -0.2532
61190SOL    HW290429   6.168  10.561   0.498 -1.1592  0.8870  0.9515
61191SOL     OW90430   5.765   8.079   2.111 -0.0090 -0.4256 -0.5261
61191SOL    HW190431   5.753   8.114   2.023 -1.9849 -0.7416 -0.4142
61191SOL    HW290432   5.858   8.093   2.130  0.1288  0.9666 -2.0792
61192SOL     OW90433   7.595   6.605   9.265 -0.6603 -0.0903 -0.0767
61192SOL    HW190434   7.571   6.526   9.312 -0.7258  0.5673  1.0330
61192SOL    HW290435   7.680   6.585   9.226 -1.1286 -1.0336 -0.6491
61193SOL     OW90436   8.430   2.017   0.092  0.0398  0.4238  0.9654
61193SOL    HW190437   8.493   1.948   0.114 -0.7130 -1.3471 -1.8555
61193SOL    HW290438   8.479   2.078   0.038 -0.3484 -0.3951 -0.3512
61194SOL     OW90439   4.965  10.701  12.398  0.5932 -0.2755  0.1488
61194SOL    HW190440   4.938  10.768  12.335 -0.4605  0.1227  0.9890
61194SOL    HW290441   5.057  10.719  12.414  0.7285 -0.0294 -0.8438
61195SOL     OW90442   8.730  10.135   3.139 -0.2443  0.1708  0.0708
61195SOL    HW190443   8.698  10.049   3.166 -0.2747  0.4745  1.0278
61195SOL    HW290444   8.821  10.138   3.171 -0.6731  1.0147  1.2729
61196SOL     OW90445  10.253   8.416  11.507  0.0227  0.0742 -0.3984
61196SOL    HW190446  10.251   8.363  11.427  0.3625 -1.4967  0.5880
61196SOL    HW290447  10.303   8.494  11.483  1.3093 -0.9967 -1.3797
61197SOL     OW90448   1.040   3.741   2.051  0.1252 -0.3986 -0.2902
61197SOL    HW190449   1.115   3.682   2.064  1.2498  1.0081 -0.1347
61197SOL    HW290450   1.066   3.796   1.977 -1.5832 -1.1061 -1.4733
61198SOL     OW90451   2.241   9.492   3.435  0.8064 -0.2897 -0.3109
61198SOL    HW190452   2.314   9.430   3.445  0.3630 -0.5734  1.6446
61198SOL    HW290453   2.169   9.450   3.483 -1.1531 -0.7254 -3.3948
61199SOL     OW90454   1.453   0.083   9.601 -0.4164  0.2944 -0.1610
61199SOL    HW190455   1.407   0.145   9.545 -2.1982 -0.3133  0.5622
61199SOL    HW290456   1.406   0.000   9.589 -0.4954  0.0094  1.7766
61200SOL     OW90457  11.139   1.698   3.501  0.3447  0.4384  0.0692
61200SOL    HW190458  11.209   1.672   3.560 -0.1812  0.3881  0.6844
61200SOL    HW290459  11.142   1.634   3.430  1.1009  0.6104 -0.0613
61201SOL     OW90460   7.229   8.166   1.466  0.3007 -0.4051  0.0155
61201SOL    HW190461   7.302   8.187   1.524  0.7357  0.1796 -0.7173
61201SOL    HW290462   7.165   8.236   1.482  1.5837  1.4062 -2.1398
61202SOL     OW90463  11.471   4.593   4.768 -0.7396 -0.0449 -0.4044
61202SOL    HW190464  11.544   4.634   4.721 -0.1286 -0.4235  0.2046
61202SOL    HW290465  11.419   4.552   4.699 -1.6067  2.0502 -1.1019
61203SOL     OW90466   6.974  12.072  11.886  0.4756  0.3174  0.0959
61203SOL    HW190467   7.040  12.106  11.824 -1.8275  2.5893 -1.3016
61203SOL    HW290468   6.953  12.146  11.942 -2.1899  0.2786 -0.7157
61204SOL     OW90469  10.453   4.796   8.635  0.1041  0.4754 -0.2621
61204SOL    HW190470  10.504   4.732   8.685  1.2666  1.5487 -0.0384
61204SOL    HW290471  10.451   4.760   8.546 -0.3091 -0.4632  0.1041
61205SOL     OW90472  11.847   5.243   2.083 -0.5680  0.3464  0.3216
61205SOL    HW190473  11.934   5.225   2.121 -1.0979 -3.1681  0.2670
61205SOL    HW290474  11.792   5.263   2.158 -0.4177 -0.9556  0.8041
61206SOL     OW90475  12.131  10.412  10.030  0.1095  0.0395 -0.1242
61206SOL    HW190476  12.096  10.456   9.952  0.6784  0.9185  0.0964
61206SOL    HW290477  12.067  10.344  10.051 -0.2781  0.0892 -1.0876
61207SOL     OW90478   9.872   6.338   1.967 -0.8383  0.4303  0.2727
61207SOL    HW190479   9.935   6.332   1.895  0.5912 -2.2298  1.6221
61207SOL    HW290480   9.787   6.337   1.924 -0.0167  0.7165 -1.4553
61208SOL     OW90481   8.269   1.970   3.863  0.0589 -0.4794 -0.1188
61208SOL    HW190482   8.332   1.910   3.822 -0.0603 -0.3796 -0.4554
61208SOL    HW290483   8.242   1.926   3.943 -0.1076 -0.9276 -0.4186
61209SOL     OW90484   7.229   2.462   3.322 -0.1240  0.2735  0.1593
61209SOL    HW190485   7.228   2.524   3.249 -0.6191  0.0485 -0.0327
61209SOL    HW290486   7.170   2.500   3.387 -0.7622 -0.1931 -0.1347
61210SOL     OW90487   9.869   1.498   9.873 -0.0562  0.9154 -0.4215
61210SOL    HW190488   9.919   1.532   9.799 -0.4818  0.9859 -0.6772
61210SOL    HW290489   9.826   1.576   9.911 -0.6916  0.7281 -0.7506
61211SOL     OW90490   9.614   5.478   6.381 -0.3281 -0.0798  0.3061
61211SOL    HW190491   9.575   5.536   6.316  1.9679  0.3461 -0.7794
61211SOL    HW290492   9.569   5.500   6.463 -0.6665  2.0631 -0.4015
61212SOL     OW90493   8.758   0.388  11.692 -0.0126  0.2060  0.2121
61212SOL    HW190494   8.676   0.393  11.742 -0.6325 -0.5921 -0.6779
61212SOL    HW290495   8.733   0.343  11.610  1.3054 -0.0101 -0.0900
61213SOL     OW90496   2.919   6.903   4.755 -0.0896 -0.5520  0.2333
61213SOL    HW190497   3.008   6.914   4.723  0.1056  0.6473  1.0896
61213SOL    HW290498   2.929   6.859   4.840 -0.1343  1.0975  1.1390
61214SOL     OW90499   1.988   0.934   9.428 -0.4509  0.4967  0.0405
61214SOL    HW190500   1.917   0.974   9.477  0.8044  2.8785  0.0224
61214SOL    HW290501   1.944   0.883   9.359 -2.1528  2.2647 -0.2564
61215SOL     OW90502   5.814   6.898   9.205  0.1639  0.5436  0.1626
61215SOL    HW190503   5.763   6.818   9.213 -0.2757  0.9036  1.1428
61215SOL    HW290504   5.750   6.968   9.199  0.5388  0.8812  0.0298
61216SOL     OW90505   5.827   4.676  10.313 -0.1031 -0.1576  0.3801
61216SOL    HW190506   5.793   4.701  10.398 -2.4640 -2.5828  0.2910
61216SOL    HW290507   5.883   4.600  10.331 -1.5308 -1.4230 -0.2384
61217SOL     OW90508   9.558   9.609   3.622 -0.4889  0.0194 -0.9290
61217SOL    HW190509   9.481   9.660   3.598 -1.1299 -0.3729  0.2220
61217SOL    HW290510   9.533   9.518   3.606  0.6124 -0.0121 -2.8720
61218SOL     OW90511   2.422   0.089   2.945 -0.1466 -0.2878  0.5144
61218SOL    HW190512   2.396   0.164   2.999  0.7371 -0.3962  1.1163
61218SOL    HW290513   2.431   0.125   2.857 -2.2520 -0.2495  0.2799
61219SOL     OW90514  10.165   3.429   6.430  0.2260 -0.8198 -0.3557
61219SOL    HW190515  10.256   3.448   6.408  0.0486  1.1939  0.4602
61219SOL    HW290516  10.169   3.398   6.521 -0.0288  0.8454  0.2478
61220SOL     OW90517   6.167   3.509  10.294  0.0328 -0.4588 -0.5410
61220SOL    HW190518   6.180   3.490  10.201  1.6678 -1.3791 -0.1693
61220SOL    HW290519   6.131   3.429  10.331 -0.9480  0.0213 -0.4269
61221SOL     OW90520  11.719   7.562   3.817  0.4814  0.1549 -1.3627
61221SOL    HW190521  11.716   7.625   3.888  0.9642 -0.6724 -0.5911
61221SOL    HW290522  11.648   7.501   3.835  1.2029 -0.6148 -1.0370
61222SOL     OW90523   3.080   3.958   5.616 -0.1521  0.4257  0.4934
61222SOL    HW190524   3.170   3.974   5.645  0.0637  1.2090 -0.5410
61222SOL    HW290525   3.090   3.921   5.528 -0.8311 -0.1067  0.6312
61223SOL     OW90526   6.751   2.264   4.003  0.2686  0.4197  0.4412
61223SOL    HW190527   6.712   2.348   3.978  0.2699  0.7764  1.5890
61223SOL    HW290528   6.729   2.254   4.095  1.3442 -0.2459  0.6412
61224SOL     OW90529   8.798   3.414   7.359 -0.1005 -0.3750  0.1115
61224SOL    HW190530   8.759   3.496   7.330 -0.4876 -0.6338 -0.0969
61224SOL    HW290531   8.834   3.434   7.445  2.6848  0.9257 -1.2219
61225SOL     OW90532   5.153  10.234   0.068  0.2929 -0.7221 -0.3269
61225SOL    HW190533   5.058  10.235   0.069  0.2447  0.6187 -1.7052
61225SOL    HW290534   5.178  10.199   0.153 -1.4192 -1.3210 -0.0365
61226SOL     OW90535   7.459   8.884  11.701 -0.1170 -0.1427  0.0343
61226SOL    HW190536   7.443   8.794  11.729  0.4043  0.2351  1.6446
61226SOL    HW290537   7.550   8.883  11.671  0.1368 -0.0157  0.7628
61227SOL     OW90538   9.479   8.197   7.656  0.1772  0.3590 -0.0463
61227SOL    HW190539   9.395   8.151   7.659  1.1970 -1.6976 -0.9600
61227SOL    HW290540   9.543   8.128   7.637  1.8851  2.0825 -0.8538
61228SOL     OW90541   3.118   0.960   2.748  0.4432  0.1249  0.2858
61228SOL    HW190542   3.050   0.991   2.809 -0.9161 -0.5103 -0.8627
61228SOL    HW290543   3.107   0.865   2.746  0.6956  0.1110 -0.6939
61229SOL     OW90544  10.946   4.426   0.439  0.8063 -0.2453  0.0217
61229SOL    HW190545  10.908   4.353   0.487  0.8223 -1.5852 -1.8963
61229SOL    HW290546  10.871   4.476   0.408  0.7951  0.6261  1.3461
61230SOL     OW90547  12.230   4.274  11.659 -0.3773 -0.5722 -0.3504
61230SOL    HW190548  12.302   4.320  11.616 -1.0375  0.3915 -0.4710
61230SOL    HW290549  12.259   4.264  11.749  0.2334 -0.9172 -0.5759
61231SOL     OW90550   9.374   3.586   6.795 -0.2792  0.2792 -0.0011
61231SOL    HW190551   9.291   3.541   6.812 -0.2784  0.2530 -0.0664
61231SOL    HW290552   9.429   3.563   6.870 -0.0429 -0.3901 -0.3741
61232SOL     OW90553  12.329   8.527   5.662  0.1691  0.4070  0.5631
61232SOL    HW190554  12.362   8.466   5.728  2.4606  1.4058  0.4029
61232SOL    HW290555  12.285   8.595   5.712 -0.4361 -0.1822  0.8627
61233SOL     OW90556   3.918   5.914   2.024  0.1204  0.7278  0.4843
61233SOL    HW190557   3.836   5.943   1.985  0.1471  1.0080  0.6315
61233SOL    HW290558   3.940   5.983   2.086  0.1892  0.3958  0.8343
61234SOL     OW90559   1.019  12.146   2.373 -0.1187  0.1934  0.1432
61234SOL    HW190560   1.028  12.183   2.461 -1.1506 -1.4576  0.9959
61234SOL    HW290561   1.089  12.081   2.367  0.8825  1.3166 -0.8603
61235SOL     OW90562   2.106   8.605  11.648  0.4140  0.2091  0.1841
61235SOL    HW190563   2.128   8.537  11.711 -0.2448 -1.3111 -1.1673
61235SOL    HW290564   2.012   8.595  11.632  0.5389  0.6010 -0.9453
61236SOL     OW90565   6.110   6.931  11.537 -0.0552  0.4453  0.3020
61236SOL    HW190566   6.183   6.914  11.477  1.1885  0.9001  1.6141
61236SOL    HW290567   6.035   6.947  11.480  0.8121 -0.2599 -1.0946
61237SOL     OW90568   3.388   7.815  11.519  0.2572  0.2185 -0.3743
61237SOL    HW190569   3.308   7.834  11.470 -0.0514  3.8816  1.1676
61237SOL    HW290570   3.443   7.892  11.504  1.6592 -0.2359  1.9771
61238SOL     OW90571   2.015  12.343   8.921 -0.0490 -0.4610  0.7366
61238SOL    HW190572   2.086  12.365   8.861  0.5643 -1.9002  0.8871
61238SOL    HW290573   1.936  12.375   8.877  0.3702 -1.5542 -0.9076
61239SOL     OW90574   6.748  10.537   0.217  0.1037 -0.0457  0.2388
61239SOL    HW190575   6.755  10.558   0.124 -1.2758 -1.7160 -0.3162
61239SOL    HW290576   6.792  10.452   0.225  2.6327  1.3066  1.7059
61240SOL     OW90577   8.176   6.550   4.746  0.1623  0.0402 -0.0904
61240SOL    HW190578   8.148   6.561   4.655  0.1972  2.9864  0.1462
61240SOL    HW290579   8.103   6.505   4.788 -1.8504  2.4194 -0.7524
61241SOL     OW90580   0.647   5.487   2.022  0.1014  0.6864  0.5063
61241SOL    HW190581   0.602   5.540   2.087 -1.7943 -1.9418  1.5115
61241SOL    HW290582   0.582   5.474   1.952  0.6732  0.0885  0.0729
61242SOL     OW90583   6.173   0.962  12.140  0.0452 -0.0386  0.4426
61242SOL    HW190584   6.164   0.980  12.233 -1.8300 -1.4949  0.5915
61242SOL    HW290585   6.096   1.003  12.100  1.3366  1.4472 -0.6606
61243SOL     OW90586   4.043   6.469   4.511 -0.8093  0.3184  0.0611
61243SOL    HW190587   3.981   6.420   4.565 -0.5691 -1.1763 -0.9513
61243SOL    HW290588   4.125   6.468   4.560 -1.7932  3.4641  2.0538
61244SOL     OW90589   2.266   3.871   6.129  0.0699 -0.2542  0.4731
61244SOL    HW190590   2.206   3.902   6.062  0.8805 -0.9017 -0.5944
61244SOL    HW290591   2.210   3.827   6.193 -0.6055 -0.9932 -0.5840
61245SOL     OW90592   4.582   0.395   5.081  0.0188  0.3358  0.5959
61245SOL    HW190593   4.544   0.460   5.139  0.6923  1.0834  0.2260
61245SOL    HW290594   4.636   0.340   5.139 -1.0934 -0.3386  1.0167
61246SOL     OW90595  10.043   6.624   2.989  0.2477  0.1452 -0.3252
61246SOL    HW190596  10.091   6.634   3.071  1.5095 -0.7716 -0.9188
61246SOL    HW290597  10.093   6.558   2.939 -1.5318 -0.7329 -1.0478
61247SOL     OW90598   9.351   7.976   3.047  0.2810 -0.3629  0.1642
61247SOL    HW190599   9.366   7.955   2.955 -0.4021 -2.0937  0.4036
61247SOL    HW290600   9.404   8.054   3.063 -0.4751  0.6417 -1.9631
61248SOL     OW90601   2.665   0.864   8.982  0.1655  0.5973 -0.1108
61248SOL    HW190602   2.720   0.919   8.925 -1.2431  1.6430 -0.5293
61248SOL    HW290603   2.591   0.920   9.004 -0.3846 -0.5311  1.0238
61249SOL     OW90604  10.343   5.529   4.821 -0.2632  0.1297 -0.5849
61249SOL    HW190605  10.358   5.609   4.771 -0.7768  0.5125 -0.1413
61249SOL    HW290606  10.409   5.467   4.789  0.0693  0.6948 -1.0015
61250SOL     OW90607   6.040   4.475   4.629  0.4448 -0.2806 -0.1295
61250SOL    HW190608   6.038   4.540   4.559  1.2976 -1.1114 -0.9620
61250SOL    HW290609   5.965   4.418   4.612  0.1998 -0.0171  0.0840
61251SOL     OW90610  12.198   9.775   3.496 -0.5816 -0.1639 -0.3572
61251SOL    HW190611  12.220   9.828   3.573 -2.1818  1.1019 -0.6979
61251SOL    HW290612  12.149   9.835   3.439  0.2271 -1.1647 -2.2052
61252SOL     OW90613   7.073  10.581   2.515 -0.3145 -0.6254 -0.4241
61252SOL    HW190614   7.133  10.507   2.525  4.0742  2.6457  0.1281
61252SOL    HW290615   7.053  10.583   2.422 -1.6994 -3.1855 -0.2630
61253SOL     OW90616   4.619   0.337   6.036  0.0049  0.1138 -0.1634
61253SOL    HW190617   4.642   0.264   6.092 -2.8519 -0.3920  0.5065
61253SOL    HW290618   4.626   0.302   5.947 -3.1946 -1.7395  0.1747
61254SOL     OW90619   9.103   7.484  11.464  0.5700 -0.2512 -0.5155
61254SOL    HW190620   9.125   7.575  11.444  0.2809 -0.2759 -0.9609
61254SOL    HW290621   9.164   7.432  11.410  0.5579 -0.3209 -0.4626
61255SOL     OW90622   0.217   0.942   1.280 -0.0168 -0.4236 -0.4088
61255SOL    HW190623   0.233   1.036   1.290 -0.4185 -0.3706 -0.2718
61255SOL    HW290624   0.216   0.908   1.369 -2.5917 -0.1101 -0.2608
61256SOL     OW90625   1.547   0.692   5.800  0.7764 -0.1879 -0.2351
61256SOL    HW190626   1.495   0.720   5.876  1.1144 -0.0854 -0.0387
61256SOL    HW290627   1.491   0.713   5.725  0.4482 -0.2667 -0.0190
61257SOL     OW90628  10.863   8.747  12.184 -0.4112 -0.7627 -1.0190
61257SOL    HW190629  10.910   8.671  12.152  0.0456 -2.2342  2.5941
61257SOL    HW290630  10.927   8.792  12.240 -1.1306  1.4818 -1.8983
61258SOL     OW90631   2.468   8.579   7.121  0.2373 -0.3472  0.2800
61258SOL    HW190632   2.457   8.633   7.199  0.1729 -1.7716  1.3000
61258SOL    HW290633   2.560   8.552   7.124  0.2111 -0.4821 -0.1009
61259SOL     OW90634   3.051   8.833   1.230 -0.3586 -0.0419 -0.1107
61259SOL    HW190635   3.103   8.872   1.300 -2.6975  1.0023  1.1559
61259SOL    HW290636   3.011   8.756   1.270  0.7348 -1.2910 -1.3046
61260SOL     OW90637   1.833   6.631   6.958  0.3949  0.1996 -0.5152
61260SOL    HW190638   1.899   6.586   7.010 -0.8349  0.5123  1.4178
61260SOL    HW290639   1.861   6.619   6.867  2.0178 -1.3437  0.1405
61261SOL     OW90640   6.879   4.488   3.248 -0.0812  0.5366 -0.1055
61261SOL    HW190641   6.911   4.479   3.158 -1.5168 -2.2047 -0.4403
61261SOL    HW290642   6.836   4.574   3.249 -1.5371 -0.0677 -2.6091
61262SOL     OW90643   5.547  11.641   4.409  0.1646 -0.1313 -0.5091
61262SOL    HW190644   5.561  11.733   4.432 -0.2720  0.2297 -1.6228
61262SOL    HW290645   5.463  11.618   4.450  0.8387 -0.4112  0.7784
61263SOL     OW90646   2.969   7.469   9.368  0.2448 -0.6420  0.5693
61263SOL    HW190647   2.925   7.533   9.424 -0.7129 -1.7695  1.1456
61263SOL    HW290648   3.060   7.498   9.366 -0.3747  1.4057 -0.1657
61264SOL     OW90649   1.415   6.110   1.553  0.5235  0.0400  0.0385
61264SOL    HW190650   1.374   6.127   1.638  1.4888  0.3827  0.4635
61264SOL    HW290651   1.501   6.074   1.575  1.6549  2.0827 -0.6977
61265SOL     OW90652   1.752   7.379  11.103  0.3862  0.1640  0.5449
61265SOL    HW190653   1.803   7.316  11.052  0.0937  0.5907 -0.2971
61265SOL    HW290654   1.741   7.454  11.044  0.2378  0.7721  1.3227
61266SOL     OW90655   3.453   6.951   1.798 -0.4528 -0.2992 -0.1282
61266SOL    HW190656   3.392   7.009   1.754  0.0397 -0.6335 -1.2856
61266SOL    HW290657   3.427   6.954   1.890 -0.3923  1.8257 -0.1269
61267SOL     OW90658   9.278   4.924   2.298  0.2540  0.1147 -0.0741
61267SOL    HW190659   9.240   4.836   2.289 -2.0224  1.1955 -2.4179
61267SOL    HW290660   9.294   4.933   2.392 -2.7498 -1.5651  0.7625
61268SOL     OW90661   6.891   8.543  11.183  0.6668  0.1517 -0.0538
61268SOL    HW190662   6.898   8.552  11.088  0.1936  0.3547 -0.0713
61268SOL    HW290663   6.890   8.448  11.198  1.6656  0.1072 -0.1733
61269SOL     OW90664   3.662  10.091   0.381  0.3866  0.4143 -0.1141
61269SOL    HW190665   3.573  10.058   0.374  0.2372  1.1055 -1.7958
61269SOL    HW290666   3.678  10.136   0.298  2.1635  0.6406  0.3125
61270SOL     OW90667   6.992   9.880   1.600 -0.5543 -0.6366  0.3784
61270SOL    HW190668   6.940   9.805   1.573  0.9385 -1.2765 -0.9302
61270SOL    HW290669   6.933   9.954   1.595 -1.7126 -1.5377  0.4084
61271SOL     OW90670   0.863   0.955  12.031 -1.1375  0.0428  0.3148
61271SOL    HW190671   0.790   0.894  12.043  0.0473 -1.5341 -0.1584
61271SOL    HW290672   0.849   1.022  12.097 -4.3264  1.1594 -1.3085
61272SOL     OW90673   7.233   9.249   3.247 -0.4712 -0.1283 -0.1750
61272SOL    HW190674   7.179   9.263   3.170 -2.4122  2.9571  1.5076
61272SOL    HW290675   7.278   9.333   3.260  0.8041 -0.9960  1.2967
61273SOL     OW90676   5.485   2.004   3.450 -0.0286 -0.1280  0.3500
61273SOL    HW190677   5.449   2.055   3.377  1.8118 -0.3099 -0.7530
61273SOL    HW290678   5.434   1.923   3.449  0.7688 -0.6856 -1.6332
61274SOL     OW90679   5.988   9.167   6.981  0.2587  0.5500  0.2131
61274SOL    HW190680   5.941   9.246   6.956  0.6176  0.6478 -0.1595
61274SOL    HW290681   6.027   9.189   7.065 -0.9497  0.2200  0.8892
61275SOL     OW90682   5.475   0.848   5.428  0.0040  0.1754 -0.1081
61275SOL    HW190683   5.533   0.779   5.397  0.9676  0.3158  1.2999
61275SOL    HW290684   5.395   0.803   5.456 -0.2268 -0.1155 -1.2004
61276SOL     OW90685   2.548   6.215  11.155  0.2354 -0.0125  0.2241
61276SOL    HW190686   2.491   6.253  11.089 -0.1614  1.2949  1.2779
61276SOL    HW290687   2.625   6.184  11.106 -0.3080  0.3780 -0.9081
61277SOL     OW90688  12.410   8.951   3.048 -0.2455 -0.0433 -0.1213
61277SOL    HW190689  12.477   8.966   2.982  0.0526  0.8813  0.3689
61277SOL    HW290690  12.380   8.862   3.033 -0.5297  0.3010 -1.8182
61278SOL     OW90691   2.522  11.267   7.773 -0.7209  0.4515 -0.0387
61278SOL    HW190692   2.495  11.234   7.687 -0.1685 -1.3576  0.4437
61278SOL    HW290693   2.616  11.283   7.765  0.0801 -2.9470  1.0922
61279SOL     OW90694   6.449  11.652   9.405 -0.0033 -0.0453  0.6529
61279SOL    HW190695   6.362  11.664   9.368 -0.8615 -2.3253  1.7300
61279SOL    HW290696   6.462  11.727   9.463 -0.6559  0.9938 -0.4905
61280SOL     OW90697  10.532   1.012  12.315 -0.7543  0.0159  0.2481
61280SOL    HW190698  10.569   0.924  12.323 -3.4140 -1.2607 -0.3288
61280SOL    HW290699  10.567   1.045  12.232  0.9706 -0.1021  0.9004
61281SOL     OW90700   8.470   5.615   5.325 -0.5122 -0.2339  0.2961
61281SOL    HW190701   8.526   5.671   5.272 -0.4533 -0.3980  0.1881
61281SOL    HW290702   8.482   5.527   5.290 -4.1923  0.2186 -2.7586
61282SOL     OW90703  10.121   8.682  10.346  0.1516  0.1177  0.0455
61282SOL    HW190704  10.161   8.769  10.348  0.9194 -0.2292  0.1726
61282SOL    HW290705  10.044   8.693  10.291 -0.3320  1.1106  0.8851
61283SOL     OW90706   5.522   2.617  10.964 -0.0865  0.3299 -0.4112
61283SOL    HW190707   5.535   2.703  11.005  2.3313 -0.6523  1.0847
61283SOL    HW290708   5.446   2.629  10.907 -0.0126  3.3634 -0.0285
61284SOL     OW90709   6.392   0.634  11.891  0.0739 -0.3871 -0.5409
61284SOL    HW190710   6.379   0.729  11.882 -1.1318 -0.6255 -1.5749
61284SOL    HW290711   6.359   0.615  11.979 -0.8087 -0.0096 -0.7736
61285SOL     OW90712   5.324   5.955  10.820  0.0778  0.0058 -0.3908
61285SOL    HW190713   5.327   6.024  10.754  1.2155  0.2588 -0.0966
61285SOL    HW290714   5.397   5.897  10.798 -0.4263 -0.7045 -0.2042
61286SOL     OW90715   3.002   1.276   7.043 -0.2994  0.4279 -0.5320
61286SOL    HW190716   3.085   1.265   6.995  0.4924 -0.1355  0.8963
61286SOL    HW290717   3.029   1.300   7.132 -1.3740 -4.1858  1.3077
61287SOL     OW90718   3.641   3.208   1.923 -0.1989  0.5435  0.0365
61287SOL    HW190719   3.703   3.191   1.852  1.6231  1.2643  1.3843
61287SOL    HW290720   3.606   3.121   1.944  2.8399 -0.5102  1.3871
61288SOL     OW90721  11.420   1.895   7.764  0.3066  0.2124 -0.8088
61288SOL    HW190722  11.451   1.813   7.724 -1.2747 -0.0661 -1.5806
61288SOL    HW290723  11.464   1.964   7.715  1.0113 -0.1606 -0.7169
61289SOL     OW90724   4.061   0.208   6.084  0.2147 -0.3022 -0.3005
61289SOL    HW190725   4.087   0.255   6.163 -3.4926 -0.9463  1.5465
61289SOL    HW290726   4.079   0.116   6.102  1.3740 -0.2634 -1.1659
61290SOL     OW90727   9.821   9.392  10.261  0.5673 -0.4138  0.0585
61290SOL    HW190728   9.853   9.426  10.177  1.2418 -0.3320  0.3434
61290SOL    HW290729   9.872   9.438  10.327  0.5959 -1.0486  0.4921
61291SOL     OW90730   4.113   7.614   0.702  0.3582 -0.1140 -0.2581
61291SOL    HW190731   4.111   7.591   0.795 -0.3428 -1.5275 -0.5862
61291SOL    HW290732   4.174   7.552   0.663 -0.3069 -0.3650 -0.9325
61292SOL     OW90733   7.242   0.758   0.374 -0.2776  0.9689 -0.4993
61292SOL    HW190734   7.147   0.768   0.364 -0.4639 -0.4118 -0.4100
61292SOL    HW290735   7.258   0.769   0.467 -0.7643 -1.3267 -0.0698
61293SOL     OW90736   0.221   1.442   0.346  0.7349  0.0811  0.4846
61293SOL    HW190737   0.210   1.507   0.414 -3.4073  0.6537 -0.4646
61293SOL    HW290738   0.218   1.358   0.392  1.8222  0.4867  1.3170
61294SOL     OW90739  10.868   0.371   4.057  0.2762 -0.5007  0.7428
61294SOL    HW190740  10.817   0.308   4.107  1.1480 -0.4242  1.7668
61294SOL    HW290741  10.803   0.428   4.015 -0.5050  0.1639  2.7348
61295SOL     OW90742   2.244   8.554   1.640  0.4615 -0.0953  0.3822
61295SOL    HW190743   2.233   8.481   1.701  0.4279 -0.4224 -0.0101
61295SOL    HW290744   2.163   8.604   1.647  0.2092 -0.4664  0.1712
61296SOL     OW90745   4.274   9.339   5.935 -0.3593  0.4907  0.1498
61296SOL    HW190746   4.207   9.348   6.003 -2.0349  2.0246 -1.6093
61296SOL    HW290747   4.235   9.281   5.870 -0.1059  1.5465 -0.9863
61297SOL     OW90748   3.314  10.486   9.614 -0.2642  0.4908  0.8539
61297SOL    HW190749   3.354  10.569   9.641  2.2032  0.1324 -1.3253
61297SOL    HW290750   3.357  10.464   9.532 -2.4092 -1.9056  0.2386
61298SOL     OW90751   4.075   2.359   8.938  0.5664  0.5539 -0.6873
61298SOL    HW190752   4.104   2.372   8.848 -0.2614 -0.4615 -1.1194
61298SOL    HW290753   4.098   2.269   8.959  0.2956  0.6197 -0.0534
61299SOL     OW90754   5.608   1.609  10.223  0.7150  0.4945 -0.2419
61299SOL    HW190755   5.642   1.625  10.134  1.0539 -0.2866 -0.2646
61299SOL    HW290756   5.664   1.662  10.280  1.3978 -0.0683 -0.3700
61300SOL     OW90757   2.488   7.773   1.540 -0.1564  0.2564  0.6703
61300SOL    HW190758   2.506   7.685   1.572 -1.3797 -0.6080 -0.8691
61300SOL    HW290759   2.569   7.799   1.496 -0.8549 -1.6070 -1.9690
61301SOL     OW90760   0.586   6.932   6.631  0.2019  0.3713 -0.4689
61301SOL    HW190761   0.579   7.004   6.569 -3.9700  1.0230  0.4593
61301SOL    HW290762   0.561   6.854   6.581  0.2911  0.3153 -0.4267
61302SOL     OW90763   5.155   6.780   9.626  0.2011 -0.1352 -0.0828
61302SOL    HW190764   5.143   6.726   9.704  0.0152  2.3280  1.7387
61302SOL    HW290765   5.248   6.802   9.625  0.1540  0.0632 -0.3859
61303SOL     OW90766  11.225   5.244   6.820  0.4956 -0.8538 -0.1336
61303SOL    HW190767  11.154   5.271   6.878  0.6130  2.3238 -1.3055
61303SOL    HW290768  11.301   5.235   6.878 -0.1041 -1.0142  0.6471
61304SOL     OW90769   4.790   0.337  12.074  0.2788 -0.5205 -0.1333
61304SOL    HW190770   4.759   0.389  12.149 -0.1189 -1.4847  0.3874
61304SOL    HW290771   4.884   0.356  12.069  0.2239 -0.1143  0.3469
61305SOL     OW90772   5.336   6.552  10.383  0.4683 -0.3469  0.3439
61305SOL    HW190773   5.242   6.567  10.398  0.4143 -0.1438 -0.1924
61305SOL    HW290774   5.353   6.590  10.297  0.6514 -1.9966 -0.3810
61306SOL     OW90775  12.217   3.424   6.078 -0.4210 -0.2802 -0.6527
61306SOL    HW190776  12.244   3.458   6.163 -1.0118 -0.0175 -0.5632
61306SOL    HW290777  12.141   3.477   6.054  0.7160  0.7776 -2.1162
61307SOL     OW90778   9.032   1.651   5.931 -0.6366  0.2151  0.1452
61307SOL    HW190779   9.022   1.713   5.858 -0.3370 -0.4548 -0.4760
61307SOL    HW290780   9.074   1.574   5.892  0.8591  0.3822  1.3081
61308SOL     OW90781   4.150   8.972   4.876 -0.0650 -0.8943  0.0311
61308SOL    HW190782   4.179   8.883   4.897 -0.4376 -1.1420 -0.4765
61308SOL    HW290783   4.123   9.009   4.960  0.4577 -1.1220  0.3035
61309SOL     OW90784   8.287   3.367  10.325  0.2104  0.3795 -0.4254
61309SOL    HW190785   8.296   3.422  10.402  0.3389  0.7417 -0.6963
61309SOL    HW290786   8.338   3.288  10.345 -2.7904 -1.2822  1.4345
61310SOL     OW90787   9.021   2.306   5.238 -0.7965 -0.0438  0.6152
61310SOL    HW190788   9.082   2.312   5.311  0.8959 -0.7429 -0.6691
61310SOL    HW290789   9.006   2.212   5.227 -2.8859  0.1370  1.4812
61311SOL     OW90790   8.506   4.683   0.635  0.1037 -0.3158  0.5372
61311SOL    HW190791   8.509   4.682   0.731 -0.1468  0.8030  0.5643
61311SOL    HW290792   8.590   4.718   0.609  0.2385 -0.7846  0.3322
61312SOL     OW90793   2.157   6.102   8.478 -0.0018  0.1310 -0.1608
61312SOL    HW190794   2.094   6.033   8.457  0.6472 -0.8543  1.0239
61312SOL    HW290795   2.124   6.141   8.559  0.6048 -0.0189  0.1658
61313SOL     OW90796   4.393   4.627   3.523  0.0167 -0.1565  0.6102
61313SOL    HW190797   4.357   4.715   3.510 -1.3654 -0.6882  0.6370
61313SOL    HW290798   4.487   4.638   3.511 -0.2156  1.1597 -0.3144
61314SOL     OW90799   2.097   6.202   9.258  0.0094  0.3328 -0.2452
61314SOL    HW190800   2.079   6.197   9.351 -0.6373 -0.2452 -0.3954
61314SOL    HW290801   2.144   6.285   9.247  2.7086 -0.9075  1.0054
61315SOL     OW90802  11.059   4.208  10.515 -0.2129  0.5942 -0.5230
61315SOL    HW190803  11.097   4.176  10.597 -1.4627  1.8254  0.5776
61315SOL    HW290804  11.028   4.296  10.535  2.2300  2.2315 -3.1854
61316SOL     OW90805   2.389   6.004   6.875  0.1733  0.8343 -0.4778
61316SOL    HW190806   2.294   5.996   6.882  0.2777 -0.5089 -0.3946
61316SOL    HW290807   2.415   6.050   6.955 -0.2144 -0.6727  0.5653
61317SOL     OW90808   7.478   6.090  10.695 -0.3085 -0.4895  0.2120
61317SOL    HW190809   7.506   6.040  10.772 -0.4256 -2.3919 -0.9139
61317SOL    HW290810   7.459   6.177  10.729 -0.4742 -1.2895  2.3675
61318SOL     OW90811   2.423   8.858   2.373  0.1119 -0.2514 -0.1832
61318SOL    HW190812   2.432   8.951   2.395 -1.1601  0.0322 -0.7703
61318SOL    HW290813   2.355   8.856   2.306 -1.7323 -1.8247  1.5948
61319SOL     OW90814   0.124   2.089   7.739 -0.0138 -0.1955 -0.0609
61319SOL    HW190815   0.081   2.115   7.821  0.3152 -0.2934  0.1460
61319SOL    HW290816   0.204   2.046   7.768  0.3606  0.2395 -0.4535
61320SOL     OW90817   0.576  10.012  12.468 -0.3211  0.1299 -0.0977
61320SOL    HW190818   0.634  10.061  12.410 -2.3910  2.4575 -0.3862
61320SOL    HW290819   0.624   9.932  12.488  1.6197  0.4789 -2.7834
61321SOL     OW90820   2.522   9.123   5.412 -0.2070  0.2068 -0.3163
61321SOL    HW190821   2.586   9.084   5.471  0.3977  1.0726 -0.3795
61321SOL    HW290822   2.526   9.217   5.431 -1.2176  0.3068 -0.5555
61322SOL     OW90823   4.962   9.400  10.355 -0.0410 -0.3917 -0.0780
61322SOL    HW190824   5.012   9.432  10.281 -1.2627  0.5380 -0.5406
61322SOL    HW290825   4.887   9.459  10.360 -1.3732 -2.0425  0.2453
61323SOL     OW90826   4.893   6.109   4.737 -0.3515 -0.3756 -0.4591
61323SOL    HW190827   4.868   6.170   4.807 -2.1317  0.1251 -1.4521
61323SOL    HW290828   4.923   6.030   4.783 -1.6567 -0.1315  0.9032
61324SOL     OW90829   0.875   1.946   8.408  0.2357  0.0194 -0.4653
61324SOL    HW190830   0.837   1.858   8.415  1.0295 -0.2268  1.3044
61324SOL    HW290831   0.881   1.962   8.314 -0.9253 -1.3669 -0.8187
61325SOL     OW90832   9.191   6.754  11.333 -0.6351 -0.5157  0.1134
61325SOL    HW190833   9.146   6.705  11.402 -1.5484  0.5334  0.2836
61325SOL    HW290834   9.147   6.728  11.252 -0.7056 -0.4531  0.1309
61326SOL     OW90835  11.094  10.042   1.955  0.0801 -0.0930  0.0197
61326SOL    HW190836  11.111   9.976   2.023  0.3962 -0.8776 -0.8011
61326SOL    HW290837  10.998  10.047   1.951  0.0599 -0.0205  0.5448
61327SOL     OW90838   7.684   8.016   4.692 -0.0691 -0.6974  0.0917
61327SOL    HW190839   7.718   7.929   4.712 -1.6225 -1.4659 -0.4488
61327SOL    HW290840   7.668   8.056   4.777  0.6507 -0.9468  0.3441
61328SOL     OW90841  10.722   7.170   0.618 -0.3550 -0.8288 -0.3107
61328SOL    HW190842  10.690   7.202   0.702  0.4781  0.4083 -0.4157
61328SOL    HW290843  10.791   7.108   0.640 -0.0991 -0.4622 -0.0617
61329SOL     OW90844  12.245   3.014  11.523  0.4794  0.7179  0.1217
61329SOL    HW190845  12.320   2.961  11.550  1.8404  0.8495 -2.9405
61329SOL    HW290846  12.271   3.104  11.545  1.8455  0.8974 -1.9385
61330SOL     OW90847  11.291   5.344  11.102  0.2769 -0.3817  0.1000
61330SOL    HW190848  11.313   5.397  11.179 -1.2300 -1.5423  1.4077
61330SOL    HW290849  11.210   5.382  11.069  0.3520 -0.5430 -0.2733
61331SOL     OW90850   8.721   6.102   9.718 -0.3009  0.3101  0.2984
61331SOL    HW190851   8.767   6.133   9.796  1.4366 -1.3389 -0.0032
61331SOL    HW290852   8.789   6.062   9.664 -2.0973 -2.7700  0.0635
61332SOL     OW90853   0.033   2.753   4.947 -0.0118  0.5256  0.2008
61332SOL    HW190854  -0.036   2.706   4.899 -0.0188  0.8718 -0.1355
61332SOL    HW290855  -0.014   2.798   5.018 -0.2634  1.4244 -0.5150
61333SOL     OW90856   6.056  12.053  11.267 -0.2921  0.0241  0.1953
61333SOL    HW190857   6.016  12.073  11.352 -1.2923  2.5865 -0.8053
61333SOL    HW290858   6.128  12.116  11.258 -1.4875  1.2065 -1.6893
61334SOL     OW90859   8.218  12.315   6.469  0.5163 -0.1400 -0.6128
61334SOL    HW190860   8.207  12.394   6.522  1.2335 -0.1220 -0.4721
61334SOL    HW290861   8.171  12.247   6.517  0.8222 -0.0327 -0.1520
61335SOL     OW90862   5.389  11.374   4.756  0.2795 -0.8132 -0.2218
61335SOL    HW190863   5.415  11.407   4.842  0.3252 -1.5053  0.0352
61335SOL    HW290864   5.450  11.302   4.739  1.0051  0.0338 -1.3374
61336SOL     OW90865   5.076   4.092   7.034  0.4414 -0.0457 -0.2188
61336SOL    HW190866   4.993   4.109   7.078  0.2542  0.4692 -0.7492
61336SOL    HW290867   5.100   4.003   7.062 -0.6012 -0.4538 -0.5356
61337SOL     OW90868   5.382   7.039  10.474 -0.3594  0.0810 -0.6870
61337SOL    HW190869   5.336   7.032  10.558  2.9506 -1.4982  1.1991
61337SOL    HW290870   5.448   7.107  10.488 -1.3415  1.6090 -2.9508
61338SOL     OW90871   0.672  10.412   9.989 -0.2571  0.1359  0.4624
61338SOL    HW190872   0.660  10.419   9.895 -0.2754  0.7327  0.5034
61338SOL    HW290873   0.625  10.333  10.014 -0.1176 -0.1095 -0.0523
61339SOL     OW90874   2.242   8.361   1.158 -0.1253  0.4641 -0.0996
61339SOL    HW190875   2.233   8.449   1.196 -0.6099  0.0535  0.7741
61339SOL    HW290876   2.241   8.302   1.234  0.6806 -0.2709 -0.6309
61340SOL     OW90877   9.948  10.652   0.159  0.5126  0.2218  0.4217
61340SOL    HW190878  10.001  10.585   0.115 -1.5144 -0.0866 -1.7938
61340SOL    HW290879   9.997  10.733   0.147  0.8435 -0.1549 -0.9846
61341SOL     OW90880   3.121   2.437   7.450  0.6618  0.0853  0.2055
61341SOL    HW190881   3.179   2.485   7.391  0.5722 -1.2493 -1.0508
61341SOL    HW290882   3.123   2.486   7.532  0.6963  2.0962 -0.9366
61342SOL     OW90883   9.666   9.309   8.665 -0.0789  0.0869  0.0504
61342SOL    HW190884   9.685   9.397   8.698 -1.6066  0.2019  0.7013
61342SOL    HW290885   9.732   9.294   8.597  1.3595  0.9794  1.2007
61343SOL     OW90886   0.678   8.723   2.721 -0.2217  0.1851 -0.1580
61343SOL    HW190887   0.675   8.772   2.638 -1.5208 -0.9974 -0.8463
61343SOL    HW290888   0.598   8.749   2.767  0.2863  0.5142  0.5532
61344SOL     OW90889   2.175   8.958   9.733 -0.7240 -0.1646  0.3549
61344SOL    HW190890   2.099   9.008   9.761 -1.0063  0.0741 -0.7810
61344SOL    HW290891   2.234   9.023   9.696 -0.3066 -0.4519  0.5056
61345SOL     OW90892   1.854   4.592   5.086 -0.2149 -0.1554  0.3418
61345SOL    HW190893   1.857   4.553   5.173  0.8555 -0.6250  0.1130
61345SOL    HW290894   1.809   4.527   5.032  0.7430 -0.6812  0.1614
61346SOL     OW90895   0.392   1.198  10.943 -0.3594 -0.3302  0.3852
61346SOL    HW190896   0.447   1.270  10.973 -0.9301  0.1880  0.2039
61346SOL    HW290897   0.335   1.178  11.017 -0.7427 -0.0614  0.1637
61347SOL     OW90898   9.489   9.874   1.732  0.7991  0.3803 -0.4125
61347SOL    HW190899   9.473   9.916   1.648  0.4081  0.9929 -0.0439
61347SOL    HW290900   9.581   9.846   1.729  0.4866 -0.6123 -1.4631
61348SOL     OW90901   4.950   7.772   9.746  0.9161 -0.2608  0.0954
61348SOL    HW190902   5.009   7.743   9.816 -0.0909 -0.0706  1.0540
61348SOL    HW290903   4.876   7.812   9.792  0.4950  0.3971 -1.1029
61349SOL     OW90904   1.435   6.998   6.401  0.2850  0.3330 -0.2826
61349SOL    HW190905   1.489   7.045   6.338 -0.1212  1.3424  0.1010
61349SOL    HW290906   1.387   7.066   6.447 -0.5654 -0.4869  0.0749
61350SOL     OW90907   6.546   5.044   2.071  0.2309  0.7037 -0.3837
61350SOL    HW190908   6.563   4.961   2.028 -0.7059  0.4647 -0.3035
61350SOL    HW290909   6.601   5.107   2.024  0.7964  0.0864 -0.5715
61351SOL     OW90910   3.545   4.411  11.057  0.2820  0.3987 -0.7971
61351SOL    HW190911   3.589   4.330  11.032  2.0112  0.7334  0.8867
61351SOL    HW290912   3.459   4.382  11.090  0.4379 -0.6224 -1.2543
61352SOL     OW90913  10.616   0.812   1.418 -1.1611 -0.8663 -0.4285
61352SOL    HW190914  10.648   0.852   1.337 -0.9832 -0.0822  0.0215
61352SOL    HW290915  10.586   0.725   1.391  0.5515 -1.3096 -1.0305
61353SOL     OW90916   2.945   9.753   7.443 -0.0759 -0.1744  0.4767
61353SOL    HW190917   2.875   9.796   7.393 -0.7673  0.6274  2.0729
61353SOL    HW290918   2.994   9.825   7.482  1.1950 -0.7541  0.0059
61354SOL     OW90919  12.470   2.877  11.568 -0.2757  0.6120 -0.2022
61354SOL    HW190920  12.539   2.847  11.628 -1.0092 -0.1763  0.2718
61354SOL    HW290921  12.498   2.845  11.482 -1.1103 -1.6955  0.3092
61355SOL     OW90922   6.504   2.184  10.990 -0.1256 -0.0670 -0.2236
61355SOL    HW190923   6.523   2.273  11.019  0.6177  0.1998 -1.4809
61355SOL    HW290924   6.505   2.189  10.895 -2.8396 -0.8516 -0.3793
61356SOL     OW90925  10.944   5.652   0.682 -0.0192 -0.3670  0.1692
61356SOL    HW190926  10.938   5.742   0.650 -1.2729  0.0260  1.4475
61356SOL    HW290927  10.994   5.658   0.763 -0.2607 -0.7905  0.3543
61357SOL     OW90928   6.661   0.858   3.526 -0.8433 -0.3563  0.4739
61357SOL    HW190929   6.672   0.767   3.498  1.5525  0.4003 -1.4982
61357SOL    HW290930   6.707   0.863   3.610  0.3115 -0.7288 -0.1024
61358SOL     OW90931   5.679  10.848   4.483  0.0575 -0.5247  0.2561
61358SOL    HW190932   5.606  10.872   4.540  0.9958 -1.2676  1.8180
61358SOL    HW290933   5.669  10.754   4.468  0.0930 -0.4277 -0.4422
61359SOL     OW90934   7.983   5.963   5.946 -0.1995  0.1151 -0.3412
61359SOL    HW190935   7.987   6.042   5.892  0.1145  0.0992 -0.3439
61359SOL    HW290936   8.030   5.986   6.026 -1.7026  0.5421  0.4592
61360SOL     OW90937   2.458   0.894   4.285 -0.1885 -0.1155  0.0235
61360SOL    HW190938   2.395   0.832   4.250 -0.3126  0.2313 -0.3650
61360SOL    HW290939   2.464   0.964   4.220  0.5731 -0.1278  0.0609
61361SOL     OW90940   6.780   8.241   8.250  0.2101  0.2632  0.1834
61361SOL    HW190941   6.721   8.244   8.325  2.1597 -1.9766  1.9547
61361SOL    HW290942   6.839   8.315   8.262 -0.6312  1.0245 -0.2340
61362SOL     OW90943  11.749   7.478   5.133 -0.4247  0.0540  0.2222
61362SOL    HW190944  11.701   7.484   5.216  0.3694 -0.1677  0.7061
61362SOL    HW290945  11.697   7.418   5.079 -0.7347 -0.1192  0.7067
61363SOL     OW90946   3.702   9.367   4.757 -0.2474 -0.4422  0.2974
61363SOL    HW190947   3.657   9.363   4.672  0.4270  0.3549 -0.1118
61363SOL    HW290948   3.778   9.311   4.745  1.3361  1.7505 -0.5799
61364SOL     OW90949   0.145   3.648   2.357  0.4276 -0.3060 -0.2264
61364SOL    HW190950   0.202   3.585   2.401  2.2822  0.9360 -0.7390
61364SOL    HW290951   0.153   3.728   2.409  1.2356  0.6516 -1.7456
61365SOL     OW90952   9.335   7.077   0.269 -0.1717 -0.0817  1.0304
61365SOL    HW190953   9.415   7.108   0.227  1.2050 -1.1165  2.7625
61365SOL    HW290954   9.295   7.018   0.205  2.1402 -2.0528  1.2722
61366SOL     OW90955   8.466   4.242   1.725  0.7320  0.2450  0.0690
61366SOL    HW190956   8.478   4.150   1.700  0.9712 -0.0845  1.3062
61366SOL    HW290957   8.506   4.248   1.812 -0.5348  1.1833  0.6205
61367SOL     OW90958  12.145  10.010   0.063 -0.1123  0.4612 -0.2528
61367SOL    HW190959  12.139  10.006  -0.033 -2.0173 -1.1178 -0.1263
61367SOL    HW290960  12.113  10.097   0.086 -0.6089  0.4852 -1.0119
61368SOL     OW90961   9.911   0.281   2.574  0.6318  0.3776  0.1286
61368SOL    HW190962   9.984   0.284   2.635 -0.4910  0.4351  1.5145
61368SOL    HW290963   9.873   0.369   2.577  0.4322  0.3209 -0.4984
61369SOL     OW90964   2.599   8.235   8.021  0.4528 -0.1577  0.0077
61369SOL    HW190965   2.528   8.189   8.067  0.1135  1.8785  1.6529
61369SOL    HW290966   2.643   8.166   7.970 -1.3104 -1.8792  0.6814
61370SOL     OW90967   6.011   4.446   8.518  0.3205  0.1322  0.1340
61370SOL    HW190968   5.945   4.516   8.518  0.5037  0.3341 -1.2899
61370SOL    HW290969   6.006   4.408   8.431  1.3605 -0.5632  0.3572
61371SOL     OW90970   3.526   3.689   0.730  0.5072  0.1962 -0.2624
61371SOL    HW190971   3.545   3.603   0.769  0.6627 -0.0727 -0.9257
61371SOL    HW290972   3.601   3.706   0.673 -0.4458 -0.1068 -1.6255
61372SOL     OW90973   4.426   1.781  10.277  0.3572 -0.0423  0.8650
61372SOL    HW190974   4.466   1.838  10.212 -2.4534  1.2302  0.1041
61372SOL    HW290975   4.401   1.702  10.228 -0.0351  0.0916  0.8537
61373SOL     OW90976  10.675   7.028  10.490 -0.4932 -0.0803  0.6283
61373SOL    HW190977  10.683   6.963  10.560 -2.3038 -0.1782  0.7977
61373SOL    HW290978  10.632   7.103  10.532 -3.0503 -0.7265 -0.6659
61374SOL     OW90979   9.495   2.792   9.409  0.4199 -0.0894 -0.3218
61374SOL    HW190980   9.477   2.717   9.465 -0.7873 -0.4360 -1.1660
61374SOL    HW290981   9.588   2.811   9.425  0.0674  0.0370  2.0421
61375SOL     OW90982   9.816   2.040   9.394  0.4108  0.4144 -0.3594
61375SOL    HW190983   9.761   2.101   9.345  1.1021  1.1188 -0.2869
61375SOL    HW290984   9.897   2.035   9.343  0.0287 -1.1550 -0.8400
61376SOL     OW90985   0.785   4.627   1.236  0.1292  0.2217 -0.0860
61376SOL    HW190986   0.830   4.543   1.238  0.7552  0.5299 -0.9636
61376SOL    HW290987   0.785   4.657   1.327 -0.0410 -0.6911  0.2193
61377SOL     OW90988   6.990  12.449  12.052 -0.4261  0.4008 -0.0482
61377SOL    HW190989   6.969  12.450  12.145 -1.5595  0.6644 -0.2965
61377SOL    HW290990   6.925  12.391  12.013 -0.7168  1.2273 -0.8414
61378SOL     OW90991   4.160   1.675   9.096 -0.1319 -0.4667 -0.4923
61378SOL    HW190992   4.173   1.688   9.190 -0.5163  0.4922 -0.5598
61378SOL    HW290993   4.065   1.666   9.086 -0.1920  0.5424 -0.9051
61379SOL     OW90994   1.056   8.232   4.729 -0.1331 -0.0916 -0.3346
61379SOL    HW190995   0.986   8.294   4.751  0.3412  0.6731 -0.9212
61379SOL    HW290996   1.014   8.146   4.730 -0.4615  0.0281  2.1430
61380SOL     OW90997   5.206   0.977   1.309  0.2249  0.2501 -0.3160
61380SOL    HW190998   5.177   0.907   1.251 -1.3207  0.8713 -0.3428
61380SOL    HW290999   5.209   1.054   1.252  0.0079  0.5933  0.1386
61381SOL     OW91000   4.781   4.517   6.352  0.1144 -0.1420  0.0460
61381SOL    HW191001   4.863   4.551   6.316 -0.3284  1.8550  0.8109
61381SOL    HW291002   4.715   4.538   6.286 -0.2098  0.8332  0.6523
61382SOL     OW91003   8.364   3.252   2.738 -0.3888  0.1097  0.2147
61382SOL    HW191004   8.433   3.262   2.672 -0.0328  1.1682  0.7266
61382SOL    HW291005   8.344   3.159   2.737  0.2962 -0.0451 -0.6992
61383SOL     OW91006   1.272   7.511  11.136  0.0906  0.2166 -0.7583
61383SOL    HW191007   1.322   7.556  11.068  0.3097  3.2815  1.2181
61383SOL    HW291008   1.338   7.484  11.199 -0.3119 -0.2732 -0.5438
61384SOL     OW91009   4.718   2.422   1.384 -0.2551 -0.7969 -0.2330
61384SOL    HW191010   4.793   2.423   1.325 -0.5277 -0.3753 -0.5823
61384SOL    HW291011   4.747   2.371   1.460  0.7675  0.2923  0.1364
61385SOL     OW91012  11.936   1.864  10.011 -0.1350  0.3969 -0.1950
61385SOL    HW191013  11.974   1.798  10.069 -0.6447  0.1849 -0.0908
61385SOL    HW291014  11.985   1.856   9.929  0.2330  0.3292  0.0297
61386SOL     OW91015  11.866   5.511   7.574  0.1755 -0.0907 -0.1688
61386SOL    HW191016  11.851   5.600   7.606  1.9763  0.6643 -1.2602
61386SOL    HW291017  11.817   5.455   7.634 -1.9877  1.6863 -0.1496
61387SOL     OW91018   3.990  10.411   7.069 -0.3069 -0.2570  0.1497
61387SOL    HW191019   4.070  10.367   7.039  0.0857  1.3110 -1.2677
61387SOL    HW291020   3.935  10.416   6.990 -2.1057 -1.8335  1.2253
61388SOL     OW91021   4.126   5.112   8.587 -0.0023  0.2940 -0.3086
61388SOL    HW191022   4.219   5.105   8.568  0.3311 -2.1367  1.7334
61388SOL    HW291023   4.118   5.185   8.647  1.0461 -1.0819  1.5991
61389SOL     OW91024   5.260   9.628  11.614  0.2965  0.0088 -0.1445
61389SOL    HW191025   5.184   9.653  11.667  1.3494 -0.3521  1.6335
61389SOL    HW291026   5.335   9.638  11.674  1.7594  1.0713 -2.0431
61390SOL     OW91027   2.829   0.527   5.261  0.1879  0.5414  0.1849
61390SOL    HW191028   2.859   0.467   5.329  3.1716 -0.2568 -1.6340
61390SOL    HW291029   2.735   0.511   5.254  0.6407 -3.2748  0.5033
61391SOL     OW91030   5.829  10.257   4.009 -0.9378  0.2007 -0.2739
61391SOL    HW191031   5.869  10.234   3.926  0.7842 -0.0483  0.5712
61391SOL    HW291032   5.815  10.173   4.053  0.5006  0.4054  0.6718
61392SOL     OW91033   3.075  10.245   5.960  0.1304 -0.1824 -0.1298
61392SOL    HW191034   3.160  10.264   5.919 -0.3398  0.8567 -0.6526
61392SOL    HW291035   3.054  10.324   6.009 -0.3816 -0.5689  0.2785
61393SOL     OW91036   7.661   3.003   4.891  0.3312 -0.2471  0.0998
61393SOL    HW191037   7.743   3.049   4.908  0.8693 -1.5370  1.1679
61393SOL    HW291038   7.628   3.042   4.810  1.4897  0.9685  0.1769
61394SOL     OW91039   7.654   1.319   9.854 -0.0935  0.1002 -0.4824
61394SOL    HW191040   7.563   1.309   9.879  0.4165  0.9825  1.9488
61394SOL    HW291041   7.689   1.229   9.855 -0.3092  0.0170  1.2340
61395SOL     OW91042   0.693   0.803  10.698  0.1842 -0.0464 -0.0634
61395SOL    HW191043   0.637   0.861  10.750 -0.0480 -0.6274  0.3425
61395SOL    HW291044   0.672   0.715  10.728 -1.0711 -0.5515 -2.1764
61396SOL     OW91045   8.660  10.248   1.581 -0.1058  0.2186 -0.2457
61396SOL    HW191046   8.710  10.306   1.524 -0.8043  0.4714 -0.6151
61396SOL    HW291047   8.703  10.254   1.666  1.2049 -0.4780 -0.8342
61397SOL     OW91048   6.325  10.428   4.595 -0.0232  0.1379 -0.4716
61397SOL    HW191049   6.265  10.452   4.666 -0.2293  0.8003 -0.8574
61397SOL    HW291050   6.399  10.487   4.607  0.8692 -1.0974  0.3816
61398SOL     OW91051   3.629   4.654   7.779  0.6538 -0.3050  0.5285
61398SOL    HW191052   3.712   4.700   7.793  0.5243 -0.8584  3.9368
61398SOL    HW291053   3.645   4.566   7.813 -0.6513 -1.1805 -1.0389
61399SOL     OW91054   3.770  11.513  10.116  0.1944  0.0898  0.2809
61399SOL    HW191055   3.861  11.527  10.090  0.4765 -0.4830  0.9397
61399SOL    HW291056   3.773  11.439  10.177 -1.1698 -2.6865 -2.7253
61400SOL     OW91057   0.907   4.938   9.456  0.1535  0.1775 -0.4462
61400SOL    HW191058   0.904   4.863   9.396 -0.6333 -0.7243  0.6921
61400SOL    HW291059   0.824   4.935   9.503  0.1382  1.7388 -0.3229
61401SOL     OW91060   4.259   7.215   1.721  0.3782  0.2360 -0.2689
61401SOL    HW191061   4.271   7.140   1.663 -0.7401 -0.9893  0.9962
61401SOL    HW291062   4.296   7.186   1.805  2.0906  2.0189 -0.3457
61402SOL     OW91063  10.261   0.691   9.551  0.0234 -0.2747  0.3183
61402SOL    HW191064  10.321   0.747   9.600 -0.5811 -0.8683  1.7693
61402SOL    HW291065  10.196   0.664   9.615 -1.2847 -0.3837 -1.0186
61403SOL     OW91066   1.086  10.136   1.932  0.1366 -0.1957 -0.3791
61403SOL    HW191067   1.163  10.136   1.875  1.6782 -0.2657  1.6057
61403SOL    HW291068   1.097  10.059   1.987 -1.9181 -0.7858 -0.7018
61404SOL     OW91069  12.242   2.977   2.795  0.0589 -0.0913  0.0046
61404SOL    HW191070  12.311   2.982   2.862  0.6315  1.3137 -0.6393
61404SOL    HW291071  12.256   2.894   2.751 -1.1795 -1.7335  2.4876
61405SOL     OW91072   8.125   4.621   6.573 -0.5004  0.2429 -0.0744
61405SOL    HW191073   8.159   4.535   6.547  0.5040  0.8167 -0.7431
61405SOL    HW291074   8.049   4.634   6.516 -1.0265 -0.4410  0.4427
61406SOL     OW91075   3.135  11.967   4.441 -0.2365 -0.4736 -0.3744
61406SOL    HW191076   3.218  11.942   4.400  1.4876  1.9486  1.4256
61406SOL    HW291077   3.078  11.986   4.367  2.1789  1.9622 -1.7915
61407SOL     OW91078   1.586   4.863   1.177 -0.1135 -0.1596 -0.0826
61407SOL    HW191079   1.667   4.906   1.150 -0.1995  0.6950  0.9372
61407SOL    HW291080   1.562   4.808   1.103 -0.4488  2.1613 -1.8173
61408SOL     OW91081   7.954   4.813   1.943 -0.1646  0.1825 -0.1886
61408SOL    HW191082   8.027   4.785   1.998 -1.1047 -2.0368  0.0442
61408SOL    HW291083   7.888   4.845   2.005 -0.0655  0.5201 -0.2581
61409SOL     OW91084   1.470  11.388  12.479 -0.1345  0.4192 -0.1894
61409SOL    HW191085   1.528  11.421  12.547  1.6380 -0.5077 -1.1465
61409SOL    HW291086   1.391  11.361  12.525 -0.6292  3.4776  0.9286
61410SOL     OW91087  11.315  12.170  10.212 -0.0209 -0.0277  0.8196
61410SOL    HW191088  11.342  12.253  10.173 -0.0938 -0.2547  0.2748
61410SOL    HW291089  11.314  12.187  10.307 -0.8285  0.8335  0.6725
61411SOL     OW91090   0.909   2.774  11.925 -0.4717  0.6505 -0.2069
61411SOL    HW191091   0.964   2.843  11.887  1.0306 -0.6316 -0.4292
61411SOL    HW291092   0.959   2.694  11.913 -1.3265 -0.2422  1.7374
61412SOL     OW91093   0.068   2.871  10.336 -0.0111 -0.1155  0.2739
61412SOL    HW191094   0.156   2.858  10.370  0.1604  0.9037  0.2320
61412SOL    HW291095   0.059   2.805  10.267  0.5710 -0.4794  0.5432
61413SOL     OW91096   3.301   1.327  12.095  0.2647  0.1516  0.1667
61413SOL    HW191097   3.237   1.348  12.164  2.1383  3.3249  1.1057
61413SOL    HW291098   3.316   1.233  12.105 -0.3956  0.2825  3.3818
61414SOL     OW91099   9.857   3.473   3.122 -0.1258 -0.2219  0.1874
61414SOL    HW191100   9.886   3.383   3.139 -1.2489 -0.5713  0.3022
61414SOL    HW291101   9.843   3.476   3.027  0.9573  0.1647  0.0238
61415SOL     OW91102   4.865   1.411   9.674  0.2793  0.1592 -0.8236
61415SOL    HW191103   4.786   1.395   9.726  0.3480 -0.5656 -0.9439
61415SOL    HW291104   4.832   1.436   9.588  0.1444  2.1308 -0.2606
61416SOL     OW91105   5.863   7.203   3.087  0.4126  0.0830 -0.1012
61416SOL    HW191106   5.956   7.185   3.101  0.9496  1.2696 -1.8223
61416SOL    HW291107   5.858   7.298   3.078 -0.8785 -0.0233 -0.6405
61417SOL     OW91108   3.256   0.284   4.541 -0.1919  0.5131  0.4888
61417SOL    HW191109   3.287   0.243   4.622 -0.4713  1.0303  0.8658
61417SOL    HW291110   3.172   0.323   4.565  0.3821  1.9104  0.3494
61418SOL     OW91111  10.728   6.229   2.321  0.7122 -0.4754  0.5632
61418SOL    HW191112  10.724   6.186   2.406  0.8008 -0.3719  0.6206
61418SOL    HW291113  10.695   6.317   2.337  0.9098 -0.3954  0.5305
61419SOL     OW91114   3.402   2.133   3.513 -0.0256  0.2002 -0.0962
61419SOL    HW191115   3.425   2.226   3.513  0.9722 -0.0419 -0.5092
61419SOL    HW291116   3.410   2.106   3.421  1.5459 -0.7247  0.2720
61420SOL     OW91117  10.601   7.211   1.324 -0.2643  0.0279 -0.0652
61420SOL    HW191118  10.670   7.156   1.287  0.4452 -1.4469  3.1273
61420SOL    HW291119  10.520   7.178   1.284  0.5730 -0.2835 -1.5452
61421SOL     OW91120   6.064   8.881   0.470  0.1914  0.1832 -0.4382
61421SOL    HW191121   6.025   8.960   0.434  0.0772  0.9512  1.2827
61421SOL    HW291122   6.019   8.809   0.426  0.1900  1.0477 -1.9163
61422SOL     OW91123   8.282   9.098   4.208  0.4041 -0.5251  0.4000
61422SOL    HW191124   8.266   9.053   4.291 -0.0960 -0.4042  0.3716
61422SOL    HW291125   8.194   9.116   4.173  0.6020 -1.3902 -0.6012
61423SOL     OW91126   3.487   7.154   9.378  0.1107 -0.0993  0.4818
61423SOL    HW191127   3.420   7.185   9.439 -1.3592 -0.1346 -1.0363
61423SOL    HW291128   3.474   7.207   9.299  0.9637 -1.0760 -0.3470
61424SOL     OW91129   5.300   2.879   9.190  0.4049  0.0981 -0.3237
61424SOL    HW191130   5.284   2.967   9.226  0.2538 -0.5908  1.3983
61424SOL    HW291131   5.220   2.831   9.209  1.1345 -0.8954  0.3747
61425SOL     OW91132   9.163   5.700   2.184 -0.2721 -0.6049  0.0511
61425SOL    HW191133   9.203   5.613   2.180  0.6279 -0.1709 -1.1040
61425SOL    HW291134   9.083   5.692   2.131 -0.1457 -0.7184 -0.1260
61426SOL     OW91135   1.417   1.982  10.963  0.1764 -0.7247  0.4789
61426SOL    HW191136   1.342   2.020  10.917  0.7170  0.3583  0.4528
61426SOL    HW291137   1.467   1.938  10.895  0.4288 -0.0174  0.1997
61427SOL     OW91138   3.150   2.173   0.667 -0.1168  0.0707 -0.3456
61427SOL    HW191139   3.074   2.190   0.612 -0.5327 -1.6649 -0.3897
61427SOL    HW291140   3.214   2.134   0.607  0.1829  0.0075  0.0149
61428SOL     OW91141   6.012   2.076  11.292 -0.8252  0.0938 -0.2775
61428SOL    HW191142   6.000   2.170  11.310  1.1980  0.6884 -1.7125
61428SOL    HW291143   6.009   2.069  11.197  1.3831 -0.8998 -0.3204
61429SOL     OW91144   2.518   1.677   7.024  0.8035 -0.3778 -0.2668
61429SOL    HW191145   2.543   1.759   7.067  0.0444 -0.1454 -0.2574
61429SOL    HW291146   2.565   1.679   6.941 -0.8255  1.0841 -1.2065
61430SOL     OW91147  10.809   8.227   5.676 -0.6449 -0.1664 -0.1573
61430SOL    HW191148  10.739   8.217   5.740  0.1675  0.6462  0.8995
61430SOL    HW291149  10.851   8.311   5.698  0.6961 -0.6537 -0.7131
61431SOL     OW91150   0.878   9.880   4.478 -0.1603  0.2123 -0.0493
61431SOL    HW191151   0.797   9.838   4.508 -0.3216  0.2583 -0.4225
61431SOL    HW291152   0.914   9.920   4.557 -0.0661 -0.5199  0.2900
61432SOL     OW91153   4.355   5.885   3.580  0.3352 -0.4027 -0.3069
61432SOL    HW191154   4.265   5.916   3.576  0.3270 -0.4481 -0.5114
61432SOL    HW291155   4.363   5.845   3.666  0.4377  0.4405  0.0793
61433SOL     OW91156   3.249   5.359   5.592 -0.2418 -0.2931 -0.4971
61433SOL    HW191157   3.182   5.351   5.660  0.3780  1.3145  0.3526
61433SOL    HW291158   3.312   5.423   5.626  0.5073 -0.0077 -2.2512
61434SOL     OW91159  12.495   1.735   4.988 -0.0662 -0.2756 -0.2972
61434SOL    HW191160  12.549   1.797   5.038  0.6454 -1.5921  0.6343
61434SOL    HW291161  12.534   1.733   4.901 -1.3884  2.1429 -1.0254
61435SOL     OW91162   1.918   3.312  12.311  0.1297 -0.3046 -0.2294
61435SOL    HW191163   1.858   3.335  12.381  1.1422 -1.0980  0.9448
61435SOL    HW291164   1.982   3.384  12.309 -0.8861  0.6214 -1.5845
61436SOL     OW91165   6.084   6.914   2.369  0.4734 -0.7400  0.4432
61436SOL    HW191166   6.155   6.908   2.433  1.0489  3.3635  0.4525
61436SOL    HW291167   6.014   6.960   2.416 -0.1100 -0.0113 -1.0787
61437SOL     OW91168   7.546   5.985   6.875 -0.7745 -0.4361  0.2965
61437SOL    HW191169   7.458   5.965   6.907 -0.5439 -0.4950  0.9231
61437SOL    HW291170   7.539   5.982   6.780 -1.1665 -1.6607  0.3495
61438SOL     OW91171   5.693   7.902   7.750 -0.0683  0.2444 -0.0249
61438SOL    HW191172   5.672   7.995   7.762 -1.0184 -0.1454  1.4622
61438SOL    HW291173   5.782   7.903   7.713 -0.4487  1.7546 -0.9868
61439SOL     OW91174  11.562   9.184   8.518  0.0409 -0.1944 -0.4427
61439SOL    HW191175  11.511   9.107   8.492 -0.3401  0.3083 -1.2176
61439SOL    HW291176  11.581   9.170   8.611 -0.5687 -0.9140 -0.4201
61440SOL     OW91177   8.101   2.051   0.222 -0.4089  0.0312  0.3663
61440SOL    HW191178   8.151   2.127   0.193  1.6961 -0.8969  1.3350
61440SOL    HW291179   8.102   2.057   0.318 -1.7948 -0.2603  0.4166
61441SOL     OW91180   0.381   6.806  11.236 -0.1989  0.4235 -0.1983
61441SOL    HW191181   0.433   6.867  11.183 -0.2802 -1.2708 -2.3579
61441SOL    HW291182   0.445   6.757  11.287  0.1107  0.1819 -0.8165
61442SOL     OW91183   6.372   4.711   3.706  0.2132 -0.3666  0.4532
61442SOL    HW191184   6.375   4.675   3.617 -2.3873 -0.9815  0.5307
61442SOL    HW291185   6.312   4.653   3.753  0.8057  0.4883  2.3885
61443SOL     OW91186   3.923  12.409   2.040  0.1620  0.2617 -0.5163
61443SOL    HW191187   3.844  12.356   2.055 -0.0912  1.1358  1.6573
61443SOL    HW291188   3.991  12.345   2.020 -0.6906 -0.6737 -0.5107
61444SOL     OW91189   8.388   2.498   3.444  0.0092 -0.4391  1.4189
61444SOL    HW191190   8.320   2.434   3.424  0.8709 -1.1172  0.5245
61444SOL    HW291191   8.383   2.510   3.539 -1.0102 -0.8552  1.4327
61445SOL     OW91192   8.061   3.189   6.228  0.4313 -0.1837  0.1550
61445SOL    HW191193   7.989   3.197   6.165 -0.8764  1.3437  1.7382
61445SOL    HW291194   8.119   3.123   6.189 -1.3703 -0.8590 -1.6013
61446SOL     OW91195   7.731  11.663   7.031 -0.5261  0.1030  0.3170
61446SOL    HW191196   7.814  11.651   6.985 -0.1880 -0.2374  0.9962
61446SOL    HW291197   7.754  11.709   7.111 -0.5649 -2.2506  1.7665
61447SOL     OW91198  11.794   7.459   7.460  0.2280 -0.3803  0.2270
61447SOL    HW191199  11.878   7.440   7.503  0.3917  1.3453  0.7693
61447SOL    HW291200  11.741   7.500   7.529 -1.2143 -1.7582 -0.0186
61448SOL     OW91201   6.848   4.660   8.450  0.3928  0.2427  0.2996
61448SOL    HW191202   6.872   4.592   8.388 -3.1889 -1.7744  0.8285
61448SOL    HW291203   6.802   4.725   8.398 -0.3676 -0.1821  0.4188
61449SOL     OW91204   9.393   8.018   9.126 -0.1554  0.0504  0.7038
61449SOL    HW191205   9.329   7.975   9.183 -0.4425 -0.9014 -0.3007
61449SOL    HW291206   9.340   8.065   9.061  0.1507 -0.4147  0.1045
61450SOL     OW91207   7.924  11.103   4.593 -0.1706  0.7980 -0.0802
61450SOL    HW191208   7.884  11.032   4.542  0.2122  1.2851 -1.0806
61450SOL    HW291209   8.003  11.065   4.631 -0.0899  0.6219 -0.4242
61451SOL     OW91210  11.741   8.839   3.162 -0.7675  0.2883  0.5751
61451SOL    HW191211  11.686   8.784   3.219 -0.0876  0.7117  1.6732
61451SOL    HW291212  11.824   8.845   3.208  0.0161  0.1532 -0.7835
61452SOL     OW91213   4.897   4.918  11.231 -0.4447  0.1487 -0.2471
61452SOL    HW191214   4.830   4.849  11.233 -0.2859 -0.0326 -0.9363
61452SOL    HW291215   4.888   4.958  11.144  0.0865  0.3742 -0.2016
61453SOL     OW91216   2.304   4.635   9.488  0.3730  0.3120  0.2484
61453SOL    HW191217   2.233   4.648   9.550 -0.9690 -2.2761 -0.5781
61453SOL    HW291218   2.379   4.611   9.542 -0.6982 -1.6214  0.9628
61454SOL     OW91219   2.514   9.852   1.376 -0.3613 -0.6123 -0.2881
61454SOL    HW191220   2.479   9.770   1.342  2.8933 -2.0207 -0.6289
61454SOL    HW291221   2.607   9.850   1.353  0.7436  1.2869  3.2082
61455SOL     OW91222   5.542  11.876   1.626  0.5336 -0.0874  0.5971
61455SOL    HW191223   5.504  11.911   1.707  1.5507 -0.2113  1.1334
61455SOL    HW291224   5.624  11.923   1.616  1.3627 -1.4794  0.7010
61456SOL     OW91225   1.504   7.614   7.415  0.8884  0.2887 -0.0217
61456SOL    HW191226   1.412   7.627   7.392  0.5853  0.1370  1.0511
61456SOL    HW291227   1.553   7.666   7.351  0.1554 -0.9551 -1.6616
61457SOL     OW91228   5.298   3.506   4.366  0.6674 -0.4444  0.1673
61457SOL    HW191229   5.289   3.493   4.272  0.7057 -0.0958  0.1148
61457SOL    HW291230   5.223   3.560   4.390 -0.2335 -1.8187  0.6155
61458SOL     OW91231   1.295   9.461   8.526  0.8331 -0.0693 -0.0982
61458SOL    HW191232   1.387   9.483   8.542  0.8698 -0.2512 -0.0537
61458SOL    HW291233   1.274   9.397   8.594  0.5130  0.3800  0.2347
61459SOL     OW91234   8.323  12.391   0.598 -0.1446  0.0588  0.2385
61459SOL    HW191235   8.314  12.296   0.590 -0.3645  0.2090 -1.8296
61459SOL    HW291236   8.394  12.414   0.538 -0.7955  1.2880 -0.1074
61460SOL     OW91237   6.525   3.793  12.362  0.8176 -0.2410  0.2090
61460SOL    HW191238   6.589   3.721  12.356  0.9320 -0.0956 -0.3307
61460SOL    HW291239   6.538   3.843  12.282  1.8509  1.3298  1.3148
61461SOL     OW91240   4.059  11.881   2.324 -0.4848 -0.2661  0.0407
61461SOL    HW191241   4.062  11.917   2.236 -1.5712  1.9899  0.8497
61461SOL    HW291242   4.018  11.795   2.314  1.6932 -1.2048 -1.9041
61462SOL     OW91243   6.705   5.941  11.029  0.0851  0.3704  0.0262
61462SOL    HW191244   6.626   5.971  11.074  0.1614  0.5379  0.0514
61462SOL    HW291245   6.730   6.015  10.973  0.1331  0.2575 -0.1021
61463SOL     OW91246   4.023   5.797  11.910  0.7401 -0.4673  0.2074
61463SOL    HW191247   4.077   5.834  11.841  0.4548 -0.7483 -0.1660
61463SOL    HW291248   4.002   5.709  11.880 -0.7506 -0.0210 -0.1206
61464SOL     OW91249   0.076   7.747   0.126 -0.1602  0.0757  0.3389
61464SOL    HW191250   0.162   7.712   0.151 -0.4253 -2.1742 -1.5374
61464SOL    HW291251   0.096   7.818   0.066  0.4338 -0.9740 -0.7453
61465SOL     OW91252   4.377   2.350  11.316 -0.3702 -0.0608  0.6163
61465SOL    HW191253   4.470   2.332  11.303 -0.3652  0.0111  0.5552
61465SOL    HW291254   4.374   2.404  11.395 -0.2211  1.3646 -0.3310
61466SOL     OW91255   7.269   7.420   0.997  0.5819 -0.5342  0.2723
61466SOL    HW191256   7.244   7.513   1.003  0.8650 -0.4635  0.3657
61466SOL    HW291257   7.270   7.401   0.904  1.5989 -0.1437  0.1899
61467SOL     OW91258   9.572  11.134  10.490  0.4731  0.3178 -1.1132
61467SOL    HW191259   9.644  11.173  10.539  0.6623 -1.7430  0.3940
61467SOL    HW291260   9.566  11.044  10.524 -2.4033  0.2259 -1.6022
61468SOL     OW91261   7.754   5.246   1.575 -0.0837  0.2007 -0.1850
61468SOL    HW191262   7.781   5.296   1.652  0.9339  2.0588 -1.6599
61468SOL    HW291263   7.660   5.264   1.566 -0.0886  0.4188  0.2905
61469SOL     OW91264   1.754   5.675   3.852 -0.3343 -0.0005  0.1215
61469SOL    HW191265   1.698   5.750   3.870 -0.0905  0.3204 -0.4344
61469SOL    HW291266   1.818   5.675   3.923 -1.5062 -0.8623  1.2425
61470SOL     OW91267   1.305   9.541   1.643 -0.0039  0.3670  0.2648
61470SOL    HW191268   1.367   9.484   1.598  0.1059  1.4025 -0.9205
61470SOL    HW291269   1.220   9.520   1.604 -0.1186  0.2946  0.5504
61471SOL     OW91270   5.845   7.458   6.036 -0.5160  0.3780  0.1350
61471SOL    HW191271   5.877   7.468   5.946 -0.1776  0.6622  0.2842
61471SOL    HW291272   5.919   7.423   6.084 -1.3979 -2.1026 -0.1726
61472SOL     OW91273   0.904   2.772   8.394 -0.0217  0.1257 -0.6789
61472SOL    HW191274   0.937   2.703   8.336  0.5102 -0.3973  0.2125
61472SOL    HW291275   0.816   2.790   8.362  0.0397 -0.5754 -1.2725
61473SOL     OW91276  11.139   8.097   7.362 -0.4745  0.6400 -0.6266
61473SOL    HW191277  11.125   8.188   7.338  0.4466  0.9605 -0.0175
61473SOL    HW291278  11.107   8.047   7.287 -0.6823  1.4741 -1.1038
61474SOL     OW91279   0.545   5.164   1.955  0.4137 -0.3219 -0.3018
61474SOL    HW191280   0.461   5.143   1.996  1.0604 -0.8259  0.8456
61474SOL    HW291281   0.589   5.221   2.019  0.4086  1.0976 -1.5001
61475SOL     OW91282   4.309   7.470   4.501  0.6988  0.3481  0.0095
61475SOL    HW191283   4.295   7.382   4.466  0.9574 -0.1962  1.2236
61475SOL    HW291284   4.224   7.494   4.539  0.8362  0.3070  0.3457
61476SOL     OW91285  12.208   2.842   7.257 -0.7028 -0.0340  0.2548
61476SOL    HW191286  12.222   2.757   7.298  0.2486  0.2954  0.6413
61476SOL    HW291287  12.139   2.883   7.310 -1.0648 -0.4982  0.1495
61477SOL     OW91288   4.346   8.358   2.836 -0.8107 -0.0348 -0.2635
61477SOL    HW191289   4.411   8.354   2.766  0.1463  0.8147  0.5510
61477SOL    HW291290   4.375   8.294   2.900 -0.2079  1.0118  0.5432
61478SOL     OW91291   4.569   6.746   4.505  0.2005 -0.1438  0.3942
61478SOL    HW191292   4.552   6.840   4.515  1.9057  0.1374  1.1959
61478SOL    HW291293   4.659   6.742   4.471  0.6248 -1.4868  1.5688
61479SOL     OW91294   9.946   2.513   2.788  0.1748  0.2389  0.6366
61479SOL    HW191295   9.931   2.432   2.739 -2.5424  1.9287 -1.6330
61479SOL    HW291296  10.018   2.555   2.743  0.4737 -0.1402  0.7576
61480SOL     OW91297   5.463   4.169   5.480  0.5790  0.3292  0.6698
61480SOL    HW191298   5.445   4.218   5.400  0.8345 -0.9093 -0.1662
61480SOL    HW291299   5.377   4.137   5.508  0.3620  1.4649  1.3980
61481SOL     OW91300   7.330   5.006   0.484  0.1752 -0.0453  0.0231
61481SOL    HW191301   7.387   5.077   0.515  0.0081  0.2432 -0.3183
61481SOL    HW291302   7.380   4.962   0.416  0.4001 -0.4504  0.4517
61482SOL     OW91303   7.655   2.894   9.821 -0.3740 -0.3858  0.3519
61482SOL    HW191304   7.578   2.950   9.819  0.7906  1.2891 -1.5203
61482SOL    HW291305   7.728   2.952   9.800  1.1827 -2.2569  0.2174
61483SOL     OW91306   7.578   1.671   5.751 -0.3879  0.3137 -0.4322
61483SOL    HW191307   7.549   1.582   5.733  0.6441  0.2034 -1.7258
61483SOL    HW291308   7.504   1.726   5.727 -0.3238 -0.0840 -1.6075
61484SOL     OW91309   7.495   0.435  11.804  0.1461 -0.1983  0.1050
61484SOL    HW191310   7.402   0.459  11.814  0.0175  0.7428 -2.5500
61484SOL    HW291311   7.494   0.363  11.741  1.2453  0.5571 -0.8123
61485SOL     OW91312   1.562   0.921  10.525 -0.4235 -0.0614 -0.5122
61485SOL    HW191313   1.472   0.950  10.543 -0.5515 -0.5712 -0.2941
61485SOL    HW291314   1.593   0.980  10.457 -0.3213  1.2361  0.6063
61486SOL     OW91315   5.548   9.991   3.227 -0.2950 -0.0371 -0.0764
61486SOL    HW191316   5.576   9.905   3.258  0.3613 -0.5954 -2.0977
61486SOL    HW291317   5.630  10.037   3.208 -0.6698  0.2562 -1.0180
61487SOL     OW91318  10.363   2.223   0.690 -0.3469  0.4113 -0.2035
61487SOL    HW191319  10.443   2.226   0.743 -0.9322  0.7710  0.6909
61487SOL    HW291320  10.292   2.239   0.753 -1.1775 -0.4824 -0.8736
61488SOL     OW91321   9.881   0.191   3.336 -0.2865 -0.1762 -0.1905
61488SOL    HW191322   9.957   0.202   3.278 -0.4099 -1.0013 -0.5233
61488SOL    HW291323   9.824   0.130   3.289 -0.7577 -0.2388  0.4537
61489SOL     OW91324   4.553   6.729   9.633 -0.7793 -1.0578 -0.0888
61489SOL    HW191325   4.576   6.689   9.549  0.3351  0.7253 -0.6804
61489SOL    HW291326   4.465   6.765   9.620 -0.6920 -0.9668 -0.4190
61490SOL     OW91327   8.296   5.795   3.733 -0.4068 -0.1022  0.2229
61490SOL    HW191328   8.226   5.783   3.669 -0.5850  1.1665  0.1660
61490SOL    HW291329   8.326   5.706   3.752 -1.8111 -0.6407  0.0144
61491SOL     OW91330   9.395   8.149   1.306 -0.2767 -0.2059  0.3119
61491SOL    HW191331   9.351   8.229   1.334  0.3430  0.8106 -1.4469
61491SOL    HW291332   9.395   8.093   1.384 -5.0411 -0.5086  0.4314
61492SOL     OW91333  10.732   1.199   8.649  0.6377  0.4244 -0.2637
61492SOL    HW191334  10.660   1.165   8.596  1.1173 -2.3742  0.6936
61492SOL    HW291335  10.808   1.147   8.622  1.5700  1.0986  0.9612
61493SOL     OW91336   6.487   4.102   1.907 -0.5399 -0.2163 -0.2330
61493SOL    HW191337   6.403   4.138   1.936 -0.3585  0.1126 -0.1046
61493SOL    HW291338   6.548   4.126   1.977 -0.1389  0.3961 -0.7837
61494SOL     OW91339   2.782   0.812   3.403 -0.0456  0.5644  0.4605
61494SOL    HW191340   2.789   0.717   3.413  1.1336  0.7061  1.2325
61494SOL    HW291341   2.859   0.837   3.353  0.8297  1.3284  2.1096
61495SOL     OW91342   8.639   6.132  10.823  0.1603 -0.2092 -0.1030
61495SOL    HW191343   8.694   6.106  10.897  0.2558  1.4932  0.4523
61495SOL    HW291344   8.619   6.224  10.839 -2.2201 -0.5536 -0.6864
61496SOL     OW91345   4.273  11.730   8.896  0.0254 -0.1345  0.6672
61496SOL    HW191346   4.224  11.807   8.925  0.5701 -0.1970  1.8095
61496SOL    HW291347   4.362  11.746   8.927  0.4318 -0.6532 -0.1939
61497SOL     OW91348   8.884   8.540   8.565  0.2354  0.0716  0.6254
61497SOL    HW191349   8.916   8.533   8.476  0.4575 -1.1682  0.7830
61497SOL    HW291350   8.845   8.455   8.584 -3.1470  1.4225  0.4841
61498SOL     OW91351  11.618   7.363  10.303  0.5143  0.5201 -0.0984
61498SOL    HW191352  11.657   7.279  10.327 -0.0466 -0.4715 -2.3093
61498SOL    HW291353  11.632   7.419  10.379  1.5478 -1.3491  1.1823
61499SOL     OW91354   5.407  10.924  12.003 -0.2660 -0.1521 -0.0571
61499SOL    HW191355   5.330  10.979  11.988 -1.8719 -2.2964 -0.2127
61499SOL    HW291356   5.416  10.872  11.923  0.6646 -0.7361  0.3991
61500SOL     OW91357   1.611   2.238   9.383 -0.4746 -0.1140  0.2076
61500SOL    HW191358   1.658   2.249   9.466  2.0125 -2.0061 -0.8241
61500SOL    HW291359   1.564   2.320   9.371  1.1110  1.2010  2.2612
61501SOL     OW91360   2.656   9.754   8.219 -0.0899 -0.5795 -0.4793
61501SOL    HW191361   2.610   9.671   8.208  1.3940 -1.7613  1.3990
61501SOL    HW291362   2.587   9.818   8.235 -1.2985 -1.3136 -2.4714
61502SOL     OW91363   0.642   7.209   2.871  0.3531  0.0788  0.0154
61502SOL    HW191364   0.656   7.122   2.833  1.5826 -0.0022  0.6221
61502SOL    HW291365   0.612   7.262   2.797 -0.4355 -0.8502 -0.3613
61503SOL     OW91366   2.624   5.563   7.881  0.3631  0.0957 -0.0259
61503SOL    HW191367   2.683   5.563   7.806  1.1387 -0.0020  0.5753
61503SOL    HW291368   2.643   5.645   7.927 -2.6818  2.0485 -1.8745
61504SOL     OW91369   0.877   3.987   2.671 -0.3914 -0.0814 -0.2900
61504SOL    HW191370   0.958   3.939   2.652  0.3445  1.2875 -0.7054
61504SOL    HW291371   0.902   4.079   2.670 -1.7387  0.3298  0.6866
61505SOL     OW91372   3.778   7.580  10.247 -0.0948 -0.2889  0.1616
61505SOL    HW191373   3.861   7.604  10.206  1.2274 -1.9944  1.6844
61505SOL    HW291374   3.772   7.636  10.324 -0.1139 -0.5246  0.3299
61506SOL     OW91375   8.542   3.655  12.279 -0.2207 -0.5976  0.3495
61506SOL    HW191376   8.473   3.721  12.271 -0.2089 -0.7127 -0.8435
61506SOL    HW291377   8.496   3.571  12.273 -0.1375 -0.6991  1.0382
61507SOL     OW91378   5.073   8.982   3.176  0.1478  0.2129  0.2894
61507SOL    HW191379   5.143   8.980   3.110 -1.5197  0.9961 -1.5964
61507SOL    HW291380   5.007   8.921   3.143 -0.8146  0.7687  1.1435
61508SOL     OW91381  10.303  11.516   4.374  0.4876 -0.3233 -0.1174
61508SOL    HW191382  10.366  11.456   4.414  0.7159 -0.2537 -0.3660
61508SOL    HW291383  10.274  11.470   4.295  1.0273  0.0916 -0.5653
61509SOL     OW91384   3.354   7.300   8.320  0.6778 -0.4506  0.0687
61509SOL    HW191385   3.405   7.371   8.360 -0.1260  0.2350 -0.0780
61509SOL    HW291386   3.419   7.242   8.280  1.3940 -0.2041  0.8479
61510SOL     OW91387   2.540   3.829   9.272  0.7803 -0.0854 -0.1261
61510SOL    HW191388   2.464   3.824   9.330  0.1713  2.0987 -0.6503
61510SOL    HW291389   2.509   3.878   9.196  1.8359 -1.9642 -1.8901
61511SOL     OW91390  10.812  12.165  10.339  0.1277  0.2012 -0.3009
61511SOL    HW191391  10.755  12.127  10.272 -0.1329 -1.0241  0.5819
61511SOL    HW291392  10.881  12.209  10.290 -0.3415 -0.2301 -1.3791
61512SOL     OW91393   8.787   9.131  12.199 -0.1183  0.0985  0.3793
61512SOL    HW191394   8.778   9.142  12.294 -0.1792  2.3184  0.1515
61512SOL    HW291395   8.882   9.130  12.185 -0.0309 -2.3668  0.6143
61513SOL     OW91396   8.376  11.368   2.328  0.1046 -0.2802  0.0721
61513SOL    HW191397   8.350  11.432   2.261  0.9521  0.4754  0.4478
61513SOL    HW291398   8.353  11.410   2.411  2.7899  0.6051  0.4523
61514SOL     OW91399   4.165   3.694   0.162 -0.1298  0.0674 -0.3023
61514SOL    HW191400   4.071   3.702   0.182  0.0337 -1.9685  1.7069
61514SOL    HW291401   4.200   3.781   0.178 -1.6106  0.8321 -0.9340
61515SOL     OW91402   4.682   3.954  12.392 -0.4467 -0.4488 -0.1288
61515SOL    HW191403   4.692   3.862  12.416 -0.8337 -0.7960 -1.2491
61515SOL    HW291404   4.737   4.001  12.455 -0.2612 -1.4385  0.4689
61516SOL     OW91405   6.107   2.314   4.486  0.0138  0.3276 -0.3801
61516SOL    HW191406   6.034   2.375   4.498  0.7277  0.8823  1.4935
61516SOL    HW291407   6.162   2.326   4.564  1.7722 -0.5479 -1.4168
61517SOL     OW91408   9.236   7.035   1.005  0.0710 -0.4066  0.3258
61517SOL    HW191409   9.243   7.130   1.012  0.9752 -0.5299  1.3662
61517SOL    HW291410   9.142   7.018   0.995 -0.1850  0.5497  0.9712
61518SOL     OW91411   0.583   2.042   0.214 -0.4301 -0.7280 -0.2441
61518SOL    HW191412   0.614   1.956   0.185  1.1097 -0.3623  0.2217
61518SOL    HW291413   0.501   2.055   0.166 -1.0130 -2.6974  0.1087
61519SOL     OW91414   9.222   1.361  10.384 -0.1502  0.1277 -0.1751
61519SOL    HW191415   9.164   1.426  10.423  1.7821 -0.0891  3.4682
61519SOL    HW291416   9.289   1.412  10.340  0.4661  0.6557  1.2990
61520SOL     OW91417   2.408   5.357  10.466 -0.0511 -0.2088  0.1006
61520SOL    HW191418   2.474   5.349  10.396 -0.7080  0.3141 -0.6009
61520SOL    HW291419   2.448   5.416  10.529  0.0600  0.3283 -0.4548
61521SOL     OW91420  12.222   4.270   9.907 -0.8201  0.4985 -0.8649
61521SOL    HW191421  12.128   4.272   9.886 -0.6298  2.5156 -1.7748
61521SOL    HW291422  12.260   4.214   9.839 -1.3262 -0.2645 -0.5426
61522SOL     OW91423   2.684   7.444   4.144 -0.1926  0.4289  0.4596
61522SOL    HW191424   2.713   7.389   4.216 -1.0352 -1.1308 -0.3518
61522SOL    HW291425   2.744   7.422   4.072 -1.1632 -0.2001 -0.1703
61523SOL     OW91426   4.525   0.118  12.318 -0.3297  0.4111 -0.3370
61523SOL    HW191427   4.475   0.107  12.237 -1.0845  0.6288  0.0889
61523SOL    HW291428   4.514   0.036  12.365 -0.3017  0.4684 -0.2306
61524SOL     OW91429   7.994  11.921   8.732  0.1144  0.2153  0.3769
61524SOL    HW191430   7.955  11.865   8.664 -0.0941 -0.4275  1.0047
61524SOL    HW291431   8.023  11.999   8.686 -1.4259  0.4698 -0.2031
61525SOL     OW91432   4.548   3.977   8.735 -0.8645 -0.3401 -0.3322
61525SOL    HW191433   4.574   4.009   8.821 -0.4151 -0.2085 -0.5177
61525SOL    HW291434   4.545   3.882   8.745 -0.3284 -0.3541 -0.3089
61526SOL     OW91435   4.676   0.702   1.558  0.5934 -0.2066 -0.5074
61526SOL    HW191436   4.671   0.724   1.651  0.6508  1.2566 -0.8228
61526SOL    HW291437   4.590   0.726   1.523  0.0454 -2.1147 -0.5971
61527SOL     OW91438   2.927   7.068   0.230  0.1105  0.4715 -0.0649
61527SOL    HW191439   2.851   7.123   0.252 -1.1626 -2.5704  4.7791
61527SOL    HW291440   3.001   7.112   0.274 -0.6479 -0.7170  2.6195
61528SOL     OW91441   7.262   4.947   8.683 -0.5850 -0.5691 -0.3094
61528SOL    HW191442   7.277   5.014   8.749 -0.8540 -0.4475 -0.3719
61528SOL    HW291443   7.350   4.917   8.659 -0.4777 -2.7065  2.2185
61529SOL     OW91444   3.953  11.055   8.202 -0.3675 -0.6645 -0.1403
61529SOL    HW191445   3.948  11.117   8.129 -0.9229  2.0848  2.0951
61529SOL    HW291446   4.037  11.010   8.189 -0.2470  0.0566 -2.1998
61530SOL     OW91447   4.266   2.084  10.195 -0.6185 -0.1217  0.1157
61530SOL    HW191448   4.282   2.039  10.278 -1.3274  0.3142  0.4970
61530SOL    HW291449   4.207   2.156  10.218  0.2493  0.8303 -0.5239
61531SOL     OW91450   7.197   1.731  12.052  0.0987 -0.0803  0.7139
61531SOL    HW191451   7.173   1.821  12.075 -1.6203 -0.2976 -0.0648
61531SOL    HW291452   7.271   1.741  11.992 -0.6197  0.8787 -0.0503
61532SOL     OW91453   7.950  10.190   9.819  0.1690 -0.1796 -0.2768
61532SOL    HW191454   7.968  10.144   9.901 -1.3413  0.7257  0.6243
61532SOL    HW291455   7.877  10.142   9.781  0.2226 -0.0062 -0.5983
61533SOL     OW91456   3.871   4.165  12.487  0.1636 -0.0854 -0.6362
61533SOL    HW191457   3.913   4.082  12.462  0.7091  0.1408 -0.4881
61533SOL    HW291458   3.818   4.143  12.563  1.2523 -0.0626  0.1546
61534SOL     OW91459   6.968   8.153   7.328 -0.1524  0.3887 -0.1798
61534SOL    HW191460   7.040   8.091   7.326 -0.5705 -0.0998 -0.4162
61534SOL    HW291461   7.007   8.237   7.303  0.7569  0.5973  1.7677
61535SOL     OW91462   4.854  11.808   6.110 -0.1546 -0.0905  0.2407
61535SOL    HW191463   4.864  11.897   6.144 -1.2679 -0.1506  0.7721
61535SOL    HW291464   4.849  11.820   6.015  0.4148  0.3449  0.2622
61536SOL     OW91465   9.743   2.519   7.664  0.6552 -0.2270 -0.5615
61536SOL    HW191466   9.777   2.447   7.718  0.4969  0.1858  0.1012
61536SOL    HW291467   9.819   2.572   7.642  0.5656  0.2418  0.2316
61537SOL     OW91468   1.993   5.600   6.772 -0.0602  0.0004 -0.1925
61537SOL    HW191469   1.912   5.550   6.783  0.0959 -0.1019  0.4984
61537SOL    HW291470   1.976   5.683   6.816  0.5066 -0.3431  0.6907
61538SOL     OW91471  12.337  11.252   8.134  0.2115 -0.3069  0.5079
61538SOL    HW191472  12.279  11.320   8.103  0.2189 -0.3198  0.4677
61538SOL    HW291473  12.419  11.297   8.154  0.3706 -0.3821  0.0260
61539SOL     OW91474   5.347   7.786   4.513  0.0827  0.0511  0.2830
61539SOL    HW191475   5.288   7.733   4.567 -1.3999  1.1550 -0.1929
61539SOL    HW291476   5.366   7.863   4.567  2.4203 -0.9772  1.0671
61540SOL     OW91477   4.169   7.336   4.275 -0.0991  0.3556 -0.1045
61540SOL    HW191478   4.223   7.392   4.219  0.8315 -0.5134 -0.1042
61540SOL    HW291479   4.084   7.380   4.278  0.2096  1.0672 -1.1787
61541SOL     OW91480  10.342   4.606   4.392  0.2535 -0.0631  0.6301
61541SOL    HW191481  10.277   4.536   4.403 -0.1851  0.5941  2.7597
61541SOL    HW291482  10.341   4.653   4.476  0.6839  2.3813 -0.6413
61542SOL     OW91483   6.540  12.250   1.047  0.4326  0.0975 -0.0838
61542SOL    HW191484   6.478  12.296   1.103 -0.0181 -0.6319  0.0304
61542SOL    HW291485   6.501  12.163   1.034  2.1734 -0.9606  1.3159
61543SOL     OW91486   2.311   4.861   7.350 -0.1787  0.0132  0.2882
61543SOL    HW191487   2.328   4.867   7.255 -0.9269 -0.0790  0.1442
61543SOL    HW291488   2.281   4.772   7.363 -1.4293  0.4294  0.3848
61544SOL     OW91489   9.224   7.038   0.012 -0.2862  0.0448  0.1405
61544SOL    HW191490   9.277   6.995  -0.056  0.2712  1.5081 -0.3890
61544SOL    HW291491   9.248   7.130   0.006 -1.7365  0.5082  0.9793
61545SOL     OW91492   3.036   7.415   1.108  0.3527  0.9786 -0.5554
61545SOL    HW191493   2.977   7.370   1.168 -1.2391  0.8447 -2.1252
61545SOL    HW291494   3.086   7.345   1.066  1.0022  1.0252  0.1287
61546SOL     OW91495   4.813   3.730   6.097 -0.0727 -0.0642  0.8255
61546SOL    HW191496   4.817   3.723   6.193 -1.4504 -0.6212  0.8721
61546SOL    HW291497   4.893   3.688   6.067 -0.3381 -1.2663  1.7059
61547SOL     OW91498   9.808   9.675   5.560  0.0300 -0.2334 -0.1368
61547SOL    HW191499   9.745   9.747   5.549  0.9616  0.5564 -0.4117
61547SOL    HW291500   9.878   9.712   5.613  0.3795 -1.0482 -0.0158
61548SOL     OW91501   9.830  12.489   9.023  0.3827 -0.6763  0.6822
61548SOL    HW191502   9.807  12.431   9.096  0.5345 -0.7721  0.6555
61548SOL    HW291503   9.764  12.557   9.024  2.0346  1.0214  2.7831
61549SOL     OW91504   9.338   4.523   1.911 -0.1975 -0.6932  0.0814
61549SOL    HW191505   9.416   4.517   1.967  0.1384 -1.5960 -0.4636
61549SOL    HW291506   9.370   4.500   1.824 -0.6359  1.0497 -0.5766
61550SOL     OW91507   8.018   8.084   4.333  0.1985  0.0166 -0.2049
61550SOL    HW191508   7.931   8.069   4.296  0.8201  0.8129 -2.1080
61550SOL    HW291509   8.041   8.173   4.307  0.9469  0.4447  1.6844
61551SOL     OW91510  11.212   0.884   4.775  0.0043  0.4918 -0.4174
61551SOL    HW191511  11.175   0.815   4.718 -1.8877  1.3745 -0.3501
61551SOL    HW291512  11.294   0.909   4.732  0.5532 -1.5157 -0.6458
61552SOL     OW91513   4.895   6.022   7.602  0.0055  0.3341  0.6206
61552SOL    HW191514   4.801   6.006   7.597 -0.1261  1.3003 -0.5919
61552SOL    HW291515   4.925   5.967   7.674 -1.5101  0.1343  1.1410
61553SOL     OW91516  10.568   2.665   7.376  0.7523  0.0151 -0.3574
61553SOL    HW191517  10.622   2.610   7.319  2.4268  0.1854  0.9528
61553SOL    HW291518  10.627   2.736   7.403  0.6365 -0.9129  2.8237
61554SOL     OW91519   9.275   5.749  11.107  0.1803  0.0947  0.1256
61554SOL    HW191520   9.323   5.694  11.169  0.7926  0.4225 -0.0517
61554SOL    HW291521   9.337   5.763  11.035 -0.4845 -0.1888 -0.5109
61555SOL     OW91522  11.279  11.579  10.143  0.0121  0.6537 -0.3974
61555SOL    HW191523  11.272  11.514  10.213  2.7845 -1.0277 -1.4664
61555SOL    HW291524  11.196  11.573  10.096 -0.9947  0.1691  1.3638
61556SOL     OW91525   6.654   8.826   1.437 -0.0318  0.1465 -1.0872
61556SOL    HW191526   6.574   8.840   1.488 -0.4519 -0.9105 -1.4522
61556SOL    HW291527   6.721   8.876   1.485 -0.2336 -1.4313  0.9739
61557SOL     OW91528   9.450   1.770   0.095  0.6690  0.4450 -0.3116
61557SOL    HW191529   9.385   1.839   0.079  0.5086 -0.0136 -1.7729
61557SOL    HW291530   9.401   1.688   0.089  1.2108  0.1311 -0.4992
61558SOL     OW91531  10.372   2.112   2.749  0.6575 -0.2618  0.5919
61558SOL    HW191532  10.327   2.046   2.801 -1.1222  0.9599  0.6956
61558SOL    HW291533  10.352   2.195   2.792 -1.1464  0.8572 -2.1008
61559SOL     OW91534   3.970  11.788   4.953  0.4758  0.1987  0.0985
61559SOL    HW191535   3.916  11.818   4.880  2.0380  0.4146 -1.0074
61559SOL    HW291536   3.999  11.700   4.927 -0.5460 -0.5673  1.3827
61560SOL     OW91537  11.709   1.676   4.272 -0.2797 -0.4160 -0.3112
61560SOL    HW191538  11.758   1.684   4.190 -1.6389  2.8241 -0.9709
61560SOL    HW291539  11.625   1.717   4.253 -1.3157 -1.1512  2.2669
61561SOL     OW91540   3.596   8.731   8.329 -0.0728 -0.2312 -0.1134
61561SOL    HW191541   3.568   8.777   8.250 -0.2761  0.7510  0.5106
61561SOL    HW291542   3.665   8.786   8.365 -0.3161 -0.4170  0.6500
61562SOL     OW91543   8.126   0.032   3.911 -0.1909 -0.6406 -0.0517
61562SOL    HW191544   8.220   0.025   3.926 -0.2069 -0.1370  0.2996
61562SOL    HW291545   8.118   0.085   3.831 -0.1581 -1.5615 -0.6846
61563SOL     OW91546   3.081   2.747  10.947 -0.3811  0.9513 -0.4283
61563SOL    HW191547   3.063   2.654  10.957 -0.0148  0.9776  0.4949
61563SOL    HW291548   3.061   2.765  10.855 -0.8008  0.0449 -0.5232
61564SOL     OW91549   6.152  11.334   6.465 -0.0523  0.1307  0.1357
61564SOL    HW191550   6.078  11.373   6.511  0.4099  0.2548  0.7877
61564SOL    HW291551   6.120  11.319   6.376 -1.4100 -1.4150  0.8483
61565SOL     OW91552   3.445  10.613   8.635  0.7089 -0.4829  0.3059
61565SOL    HW191553   3.373  10.564   8.595  1.0845  0.5101 -1.7131
61565SOL    HW291554   3.512  10.546   8.650  0.9130 -0.8080 -1.6844
61566SOL     OW91555   0.533   5.233   0.766  0.3728 -0.2350  0.7474
61566SOL    HW191556   0.477   5.220   0.843 -1.3627 -0.0139 -0.4147
61566SOL    HW291557   0.522   5.152   0.715  2.2770 -0.7923  1.1558
61567SOL     OW91558   0.438   2.472  12.453 -0.5991  0.0563  0.2587
61567SOL    HW191559   0.369   2.419  12.492 -0.4232 -0.9073 -0.6770
61567SOL    HW291560   0.519   2.423  12.471 -0.1954  0.9654  0.9986
61568SOL     OW91561   1.774  11.900   0.721 -0.2553 -0.4457 -0.1994
61568SOL    HW191562   1.869  11.901   0.732 -0.0899  2.3773 -1.1177
61568SOL    HW291563   1.748  11.810   0.739  2.8218 -1.8147 -1.9637
61569SOL     OW91564  10.180   9.910   0.810 -0.7518 -0.0357 -0.0291
61569SOL    HW191565  10.165  10.004   0.801 -1.1214 -0.1528 -0.7026
61569SOL    HW291566  10.148   9.888   0.897  2.7369  1.1078  1.7544
61570SOL     OW91567   2.105  10.525   2.936 -0.1066 -0.0916 -0.1080
61570SOL    HW191568   2.126  10.514   3.029  0.4617 -1.0268 -0.3245
61570SOL    HW291569   2.101  10.435   2.902  2.4810  0.2688 -1.5848
61571SOL     OW91570   2.264   9.217   9.661 -0.1835  0.3826  0.3163
61571SOL    HW191571   2.313   9.240   9.740 -1.2372  2.5818  0.3841
61571SOL    HW291572   2.250   9.300   9.616 -1.6532 -0.5209 -0.9846
61572SOL     OW91573   5.726   8.446   0.621  0.3320 -0.1491  0.4061
61572SOL    HW191574   5.790   8.452   0.692  1.2655 -0.7717 -0.3640
61572SOL    HW291575   5.664   8.380   0.651  0.7429 -0.4393  0.6300
61573SOL     OW91576   4.515   7.097   0.137  0.2666 -0.7948 -0.2404
61573SOL    HW191577   4.477   7.178   0.172 -0.3711 -0.6252 -1.2810
61573SOL    HW291578   4.600   7.123   0.103 -0.0086 -0.5147 -0.7265
61574SOL     OW91579   2.648   0.456   9.165  0.4835 -0.2078  0.6149
61574SOL    HW191580   2.599   0.507   9.229 -1.3469 -0.2790 -0.6483
61574SOL    HW291581   2.713   0.517   9.130  0.3722  0.3197  1.3041
61575SOL     OW91582   2.688   9.260   7.265  0.2585 -0.2240  0.5956
61575SOL    HW191583   2.714   9.189   7.323 -0.3300 -0.2871  0.7913
61575SOL    HW291584   2.670   9.333   7.324  1.3153  0.2430  0.3634
61576SOL     OW91585   0.460   7.806   1.986 -0.1587 -0.0834 -0.3145
61576SOL    HW191586   0.542   7.856   1.988 -0.2715  0.1162 -0.6542
61576SOL    HW291587   0.488   7.714   1.983  0.0632  0.0171 -1.5072
61577SOL     OW91588   5.230   5.846   6.782  0.2086  0.2681  0.1987
61577SOL    HW191589   5.306   5.796   6.811  1.3003  3.0153  2.6891
61577SOL    HW291590   5.263   5.899   6.709  0.2535  0.2940  0.2374
61578SOL     OW91591   5.782   1.794   4.041 -0.0810  0.1840  0.3739
61578SOL    HW191592   5.738   1.836   3.966  0.0104 -1.3712 -0.5959
61578SOL    HW291593   5.823   1.716   4.004  1.6277  0.4080  1.7031
61579SOL     OW91594   1.668   8.051  10.936 -0.1602 -0.2732 -0.3023
61579SOL    HW191595   1.698   8.023  11.022 -0.7969  0.1423  0.0644
61579SOL    HW291596   1.573   8.039  10.938 -0.3996  1.3707 -0.3145
61580SOL     OW91597   9.932   3.195   1.665 -0.1507  0.3064 -0.2771
61580SOL    HW191598   9.841   3.209   1.693 -0.2254  1.0230 -0.8379
61580SOL    HW291599   9.963   3.283   1.643  0.4572 -0.0245 -0.7482
61581SOL     OW91600   2.643   5.153   6.874 -0.0230 -0.1592  0.3111
61581SOL    HW191601   2.635   5.150   6.969  2.6619  0.9170  0.6867
61581SOL    HW291602   2.583   5.222   6.847 -0.6083 -0.2814  1.2652
61582SOL     OW91603   0.945  11.288   2.875 -0.2443 -0.5860 -0.1885
61582SOL    HW191604   0.903  11.237   2.945  0.2748 -0.8617 -0.0789
61582SOL    HW291605   1.028  11.244   2.858 -1.1654 -1.6595 -2.3064
61583SOL     OW91606   8.032  10.599   7.743 -0.5693 -0.3126  0.0268
61583SOL    HW191607   8.027  10.534   7.673 -0.5537 -1.2631  0.8786
61583SOL    HW291608   8.061  10.679   7.700 -2.6009 -0.2798 -1.4207
61584SOL     OW91609   7.580   6.558   1.318 -0.0611 -0.0332 -0.3031
61584SOL    HW191610   7.644   6.488   1.308  0.9034  0.6074  1.1617
61584SOL    HW291611   7.570   6.593   1.230  0.3440 -1.2155 -0.8463
61585SOL     OW91612   4.938   1.644   4.094 -0.5685 -0.2463  0.0964
61585SOL    HW191613   5.010   1.677   4.147 -0.9301 -0.3216  0.6427
61585SOL    HW291614   4.882   1.598   4.156 -0.9162 -0.4737 -0.3795
61586SOL     OW91615   1.628   9.367   7.156 -0.0251  0.4647  1.0003
61586SOL    HW191616   1.582   9.451   7.148  0.3653  0.7043  1.2913
61586SOL    HW291617   1.627   9.348   7.249  0.3457  0.4011  0.9910
61587SOL     OW91618   8.639   3.214  10.192 -0.5217 -0.0312  0.1198
61587SOL    HW191619   8.631   3.130  10.237 -2.4982  0.3895  0.6618
61587SOL    HW291620   8.571   3.211  10.125 -0.5809  1.1130  0.1159
61588SOL     OW91621   0.613   6.475   8.674  0.0807  0.6125  0.5704
61588SOL    HW191622   0.646   6.559   8.644 -0.0438  1.1291  1.8476
61588SOL    HW291623   0.557   6.495   8.748  1.9423 -0.7454  2.4718
61589SOL     OW91624   9.823   5.084   7.839  0.8137  0.0378  0.5847
61589SOL    HW191625   9.877   5.044   7.771  1.7719  1.2855  0.5858
61589SOL    HW291626   9.879   5.150   7.879  0.3406 -0.7404  2.7100
61590SOL     OW91627   9.026   4.798  10.058 -0.4119  0.3887 -0.2946
61590SOL    HW191628   8.952   4.852  10.086 -0.3765  0.3523 -0.1297
61590SOL    HW291629   9.103   4.851  10.076 -0.2529 -0.3633  1.4751
61591SOL     OW91630   1.761   8.945   3.516 -0.3055 -0.2266  0.2303
61591SOL    HW191631   1.803   8.948   3.430 -0.9940 -0.5517 -0.1161
61591SOL    HW291632   1.679   8.899   3.502 -2.3350  3.0689  0.2376
61592SOL     OW91633   7.604   5.885   9.162  0.1007  0.2438  0.0610
61592SOL    HW191634   7.549   5.834   9.103 -2.7090  0.9824  1.8758
61592SOL    HW291635   7.658   5.820   9.206 -0.2827 -0.6676 -0.7709
61593SOL     OW91636   1.053   4.257   3.484  0.2026  0.0301 -0.2517
61593SOL    HW191637   1.134   4.288   3.442  1.4312 -1.2688  1.0210
61593SOL    HW291638   0.996   4.334   3.486  1.8702  1.3278 -0.0853
61594SOL     OW91639   5.602   2.326   8.161  0.0947 -0.3648 -0.0242
61594SOL    HW191640   5.594   2.232   8.180  0.5863 -0.1007  1.6672
61594SOL    HW291641   5.633   2.330   8.071  0.8582 -1.8542  0.1412
61595SOL     OW91642   2.271   1.197   4.534  0.8075 -0.4928  0.1430
61595SOL    HW191643   2.325   1.136   4.583  2.2136  0.7790  0.2664
61595SOL    HW291644   2.257   1.154   4.449  2.7286 -0.5248 -0.1885
61596SOL     OW91645   0.472   7.260   7.380  0.1071  0.2726 -0.6589
61596SOL    HW191646   0.496   7.168   7.392  1.8871  0.8073  0.2418
61596SOL    HW291647   0.553   7.303   7.353  0.1206  2.0619  1.8316
61597SOL     OW91648   8.554   1.964  10.246 -0.8073 -0.4304 -0.1959
61597SOL    HW191649   8.616   2.036  10.259 -0.2425 -1.0171  0.3986
61597SOL    HW291650   8.607   1.894  10.208 -1.3020 -0.6209 -0.5343
61598SOL     OW91651   0.402  12.378   1.284 -0.1741 -0.3755  0.0677
61598SOL    HW191652   0.358  12.463   1.280  0.1696 -0.1126  1.3910
61598SOL    HW291653   0.475  12.386   1.223 -0.9323 -0.2060 -0.8333
61599SOL     OW91654   8.087  11.929   3.978 -0.4818 -0.3967  0.5425
61599SOL    HW191655   8.047  11.857   4.027 -0.9742 -0.8876 -0.5629
61599SOL    HW291656   8.022  12.000   3.982 -1.8198 -1.3903 -1.7565
61600SOL     OW91657   9.631   1.346   6.009  0.9497 -0.0595  0.5649
61600SOL    HW191658   9.573   1.270   6.018 -1.0030  1.5169  2.2763
61600SOL    HW291659   9.681   1.347   6.090  0.3781  0.8876  0.9282
61601SOL     OW91660   2.425   4.169   9.291 -0.1354 -0.0909  0.0448
61601SOL    HW191661   2.447   4.166   9.384  0.9480 -0.2155 -0.1968
61601SOL    HW291662   2.411   4.262   9.272  0.3503  0.0177  0.1900
61602SOL     OW91663   9.213   8.047  12.227 -0.5398  0.7005  0.2841
61602SOL    HW191664   9.303   8.076  12.244  0.0125 -0.6463 -0.2323
61602SOL    HW291665   9.195   7.982  12.295 -0.3153 -0.6283 -0.8833
61603SOL     OW91666  11.126  10.264   1.311 -0.0876 -0.4045  0.1091
61603SOL    HW191667  11.120  10.285   1.218  0.1673  0.4302  0.2725
61603SOL    HW291668  11.094  10.343   1.355  2.0851  0.1847  0.7760
61604SOL     OW91669   5.291   1.133   3.743  0.0098  0.1707 -0.2954
61604SOL    HW191670   5.199   1.121   3.769  0.0472  1.8068  0.7532
61604SOL    HW291671   5.287   1.200   3.674  0.3900  0.0842 -0.4004
61605SOL     OW91672   1.186   4.253  10.324 -0.3676 -0.3128 -0.5849
61605SOL    HW191673   1.228   4.299  10.397 -1.8149 -1.3280  0.9688
61605SOL    HW291674   1.137   4.321  10.277  1.1223  0.4745 -1.0705
61606SOL     OW91675  11.945   4.318  10.261  0.0898  0.0895  0.0935
61606SOL    HW191676  12.010   4.376  10.220  0.8427 -1.2355 -0.6603
61606SOL    HW291677  11.995   4.240  10.285 -1.3587 -1.3097 -1.2270
61607SOL     OW91678  10.758  10.379  11.277  0.5242  0.1579 -0.1320
61607SOL    HW191679  10.847  10.375  11.312  0.7374 -0.1928 -0.7117
61607SOL    HW291680  10.764  10.338  11.191  0.0355  1.1254 -0.6503
61608SOL     OW91681   3.503   6.833  12.128  0.1521 -0.0674  0.4566
61608SOL    HW191682   3.409   6.816  12.126  0.0084  0.6531  0.6087
61608SOL    HW291683   3.528   6.839  12.036  0.2834 -1.4177  0.3871
61609SOL     OW91684  10.072   3.279   4.813  0.5268 -0.6775  0.7470
61609SOL    HW191685  10.033   3.359   4.848  0.5488 -1.1086  1.7830
61609SOL    HW291686  10.113   3.306   4.731 -1.2643 -0.0409 -0.0053
61610SOL     OW91687   5.480   0.625   9.227 -0.0582  0.0163  0.0357
61610SOL    HW191688   5.571   0.603   9.209  0.0902  0.8046 -0.2106
61610SOL    HW291689   5.435   0.541   9.227  0.2998 -0.2283 -2.0084
61611SOL     OW91690   6.913   5.068   6.989  0.4225  0.9431  0.4759
61611SOL    HW191691   6.885   5.038   7.075  3.6632 -1.8803  0.7999
61611SOL    HW291692   6.851   5.028   6.928  0.0739  0.0858  1.3602
61612SOL     OW91693   8.430  10.931   6.302  0.6442 -0.0749 -0.1904
61612SOL    HW191694   8.358  10.990   6.324  0.6691  0.1610 -0.7141
61612SOL    HW291695   8.469  10.908   6.386  2.1276  2.5321 -0.0879
61613SOL     OW91696   7.640   2.106   1.450  0.2133 -0.1728  0.5379
61613SOL    HW191697   7.565   2.061   1.410  1.0657  0.8853 -2.5177
61613SOL    HW291698   7.713   2.047   1.437  0.6505  0.5132 -0.1901
61614SOL     OW91699   3.786   7.977   8.277  0.1471 -0.1896 -0.6048
61614SOL    HW191700   3.737   7.973   8.359 -0.5397 -1.9178 -1.0366
61614SOL    HW291701   3.781   8.068   8.250  0.0147  0.3197  1.0420
61615SOL     OW91702   0.093   4.750   7.810  0.0464 -0.0230 -0.6304
61615SOL    HW191703   0.073   4.836   7.848 -1.6563 -0.1511 -1.1824
61615SOL    HW291704   0.087   4.763   7.716 -0.1280 -0.7290 -0.7198
61616SOL     OW91705   7.935   9.212  11.580  0.2229  0.6863 -0.5738
61616SOL    HW191706   7.889   9.292  11.607 -0.3459 -0.4189  2.0859
61616SOL    HW291707   7.959   9.227  11.489 -1.3657  3.1807 -0.6648
61617SOL     OW91708   5.752   9.209   8.071 -0.1881 -0.4189  0.2331
61617SOL    HW191709   5.722   9.126   8.034  1.4252 -1.0714  0.3391
61617SOL    HW291710   5.781   9.187   8.160 -0.3040  0.3782  0.4801
61618SOL     OW91711   0.484   1.730   5.074  0.1914 -0.4688  0.8004
61618SOL    HW191712   0.453   1.667   5.139  0.5007 -1.8044 -0.2829
61618SOL    HW291713   0.549   1.681   5.023  0.0830  0.5769 -0.3882
61619SOL     OW91714   6.481  12.305   1.530 -0.2114  0.6943 -0.1124
61619SOL    HW191715   6.434  12.227   1.501  1.0474 -0.1932  0.1955
61619SOL    HW291716   6.435  12.332   1.610  0.8431 -1.2546  1.2506
61620SOL     OW91717  10.868   8.940   1.520 -0.0939 -0.3627  0.6297
61620SOL    HW191718  10.924   8.975   1.450 -2.3810  1.0933 -0.6123
61620SOL    HW291719  10.842   9.018   1.570 -0.9056 -1.0020  1.2270
61621SOL     OW91720   9.577   9.888   4.567 -0.3726 -0.1955  0.3035
61621SOL    HW191721   9.495   9.895   4.518  0.0765  0.2269 -0.3927
61621SOL    HW291722   9.577   9.965   4.624  0.4750  0.9287 -1.1473
61622SOL     OW91723  10.846   8.204   7.349  0.3974  0.0410  0.5561
61622SOL    HW191724  10.767   8.247   7.384  0.6288  0.7578  0.2070
61622SOL    HW291725  10.889   8.271   7.297  0.8407 -0.5810  0.1041
61623SOL     OW91726   7.679   5.007   9.925 -0.0235  0.2656  0.1835
61623SOL    HW191727   7.644   5.043   9.843  1.7162  0.3882 -0.5583
61623SOL    HW291728   7.603   4.999   9.982 -1.2611  0.3672 -1.3733
61624SOL     OW91729  10.370   4.886   5.673  0.1696  0.1897  0.2199
61624SOL    HW191730  10.341   4.889   5.582 -0.0291 -0.5526  0.2568
61624SOL    HW291731  10.307   4.941   5.720 -0.7903 -0.8435  0.1821
61625SOL     OW91732   5.860   4.774  11.889  0.6690  0.1599 -0.4693
61625SOL    HW191733   5.895   4.857  11.920  0.8664 -0.5735  1.3978
61625SOL    HW291734   5.782   4.759  11.943 -0.8206  0.2753 -2.4582
61626SOL     OW91735   1.967  10.669   7.137  0.2954 -0.2017  0.2595
61626SOL    HW191736   2.037  10.620   7.093 -0.0371  0.8353 -1.5180
61626SOL    HW291737   1.937  10.610   7.206  1.1138 -1.7726 -0.6446
61627SOL     OW91738   5.266   6.660   6.742 -0.3463 -0.9083  0.1293
61627SOL    HW191739   5.206   6.608   6.796  0.7638 -2.3321  0.0309
61627SOL    HW291740   5.347   6.610   6.740  0.6999  0.7230 -0.1933
61628SOL     OW91741  12.381   6.193   4.616 -0.0940  0.1243  0.3461
61628SOL    HW191742  12.304   6.147   4.649 -1.7520  2.2040 -0.3867
61628SOL    HW291743  12.445   6.185   4.686 -1.9080  0.5262  2.1498
61629SOL     OW91744   8.994  10.925   8.833  0.5417  0.0587  0.0175
61629SOL    HW191745   8.986  10.861   8.762  0.5843 -1.8434  1.6355
61629SOL    HW291746   9.087  10.947   8.836  0.8344 -1.1917  0.5628
61630SOL     OW91747  12.527  11.894   9.897  0.2031 -0.5152 -0.2265
61630SOL    HW191748  12.472  11.820   9.870  0.9412 -0.5287 -1.8566
61630SOL    HW291749  12.616  11.857   9.901  0.5960  0.2883 -1.1638
61631SOL     OW91750   2.646   0.009   7.924  0.1008 -0.0063  0.2193
61631SOL    HW191751   2.706  -0.063   7.901  0.1095  0.2436 -0.5926
61631SOL    HW291752   2.562  -0.018   7.888 -0.3715 -0.4920  1.6186
61632SOL     OW91753   5.820   3.834   9.187  0.2595 -0.1452  0.2458
61632SOL    HW191754   5.904   3.789   9.185  0.6547  0.5210  1.3540
61632SOL    HW291755   5.842   3.927   9.176 -0.3045  0.0529  0.7265
61633SOL     OW91756   4.340   6.776  11.016 -0.5569  0.2149  0.0957
61633SOL    HW191757   4.267   6.795  11.075 -1.2213  0.5570 -0.8274
61633SOL    HW291758   4.301   6.769  10.929 -0.1209 -3.5420  0.0151
61634SOL     OW91759   2.421   6.972   1.692 -0.3442 -0.1050 -0.0811
61634SOL    HW191760   2.331   6.942   1.702 -0.1616 -1.0640 -1.1866
61634SOL    HW291761   2.468   6.930   1.764 -0.4630 -0.9612 -0.4937
61635SOL     OW91762   9.849   1.107  10.389  0.3147 -0.0221 -0.1965
61635SOL    HW191763   9.806   1.032  10.431  0.2451  0.8250  1.3091
61635SOL    HW291764   9.939   1.078  10.375  0.6072 -0.0341  1.4533
61636SOL     OW91765   7.990   5.487   8.272 -0.0631 -0.4539 -0.0047
61636SOL    HW191766   8.008   5.551   8.203 -0.9974  0.4589  0.5674
61636SOL    HW291767   7.895   5.486   8.279 -0.0072 -1.1239  0.7281
61637SOL     OW91768  12.030   6.521   9.518  0.0671  0.2599 -0.2320
61637SOL    HW191769  12.125   6.512   9.511  0.1438  1.0948 -0.4120
61637SOL    HW291770  11.996   6.432   9.513  0.8066  0.0043 -0.7353
61638SOL     OW91771   4.262   8.861   5.428  0.0501 -0.4789  0.6021
61638SOL    HW191772   4.211   8.846   5.507 -1.7547  1.8834  0.0121
61638SOL    HW291773   4.292   8.952   5.435  2.1181 -1.0151 -0.2708
61639SOL     OW91774  11.565   1.859   1.143  0.0483 -0.2994 -0.0068
61639SOL    HW191775  11.582   1.945   1.180 -0.4372  0.1547 -0.8177
61639SOL    HW291776  11.501   1.819   1.202  1.3864 -0.7242  1.2158
61640SOL     OW91777   4.124   9.939  10.404 -0.0980 -0.1540  0.4898
61640SOL    HW191778   4.062   9.895  10.462 -0.1066 -1.1599 -0.2521
61640SOL    HW291779   4.124  10.030  10.433 -0.6058 -0.4985  1.6225
61641SOL     OW91780   5.212   1.745   5.557  0.3844 -0.5578  0.5315
61641SOL    HW191781   5.163   1.662   5.563  1.3576 -1.1667  0.1862
61641SOL    HW291782   5.298   1.724   5.593  1.2028 -0.1518 -1.1115
61642SOL     OW91783   8.074   2.800  11.723  0.3078 -0.6568  0.1915
61642SOL    HW191784   8.072   2.895  11.713  2.4295 -0.4833  0.7833
61642SOL    HW291785   8.131   2.770  11.652  0.8580 -1.3026  0.8856
61643SOL     OW91786  10.120   3.443   9.455  0.6243  0.3912 -0.1325
61643SOL    HW191787  10.143   3.405   9.370 -0.1325 -1.5693  0.4897
61643SOL    HW291788  10.056   3.511   9.434  1.3757  0.8016 -1.2168
61644SOL     OW91789   0.952   7.310   0.343 -0.0029 -0.6256  0.5602
61644SOL    HW191790   0.902   7.277   0.418 -0.4939 -0.9171  0.1102
61644SOL    HW291791   1.023   7.247   0.331 -0.3386 -0.9604  0.3390
61645SOL     OW91792   8.469   3.563   7.648  0.2624 -0.5148 -0.7405
61645SOL    HW191793   8.557   3.599   7.655  0.3219 -0.8344  0.3251
61645SOL    HW291794   8.414   3.638   7.623  0.5775  0.0716  0.2497
61646SOL     OW91795   0.947   9.536   3.279 -0.1694  0.1603  0.0709
61646SOL    HW191796   0.919   9.445   3.272  1.2279 -0.4114  1.2819
61646SOL    HW291797   0.997   9.539   3.360 -1.0891  2.2788  0.6081
61647SOL     OW91798   9.189  11.472   7.724 -0.5939  0.2793  0.2788
61647SOL    HW191799   9.140  11.529   7.664 -0.5071  0.6028  0.5074
61647SOL    HW291800   9.266  11.446   7.674 -0.3756  0.7820  0.3380
61648SOL     OW91801   0.037   5.003   3.903  0.1520  0.0476 -0.0059
61648SOL    HW191802   0.029   5.072   3.837  0.0107  1.4363  1.4055
61648SOL    HW291803  -0.020   5.032   3.974 -1.7136 -2.6636 -0.2472
61649SOL     OW91804  12.213   1.356   0.303 -0.1227  0.1560  0.1339
61649SOL    HW191805  12.174   1.348   0.216 -1.5506 -0.4741  0.7930
61649SOL    HW291806  12.166   1.291   0.356 -0.1919  1.4183  1.6788
61650SOL     OW91807  10.409   9.980   8.881 -0.7140  0.4977 -0.7780
61650SOL    HW191808  10.373   9.950   8.798 -1.5524  1.5156 -0.8034
61650SOL    HW291809  10.339   9.965   8.945 -0.3895  0.5036 -0.4159
61651SOL     OW91810   3.010   8.217   1.362  0.3789  0.1606 -0.1077
61651SOL    HW191811   2.922   8.209   1.398  0.8533 -0.9838  0.8698
61651SOL    HW291812   3.066   8.171   1.425  1.8257  1.7072 -0.1731
61652SOL     OW91813   6.141   3.954   5.114 -0.2593 -0.7267 -0.4735
61652SOL    HW191814   6.189   3.872   5.112  0.2934 -0.4137 -0.3828
61652SOL    HW291815   6.072   3.944   5.049 -1.8495 -2.2511  1.3116
61653SOL     OW91816   5.642   1.844   9.674  0.0333  0.3144 -0.2965
61653SOL    HW191817   5.689   1.770   9.711 -0.2237  1.4977  2.6354
61653SOL    HW291818   5.550   1.828   9.694  0.1568  2.4388  2.6402
61654SOL     OW91819   7.802   6.036   2.101 -0.2593 -0.2254 -0.3376
61654SOL    HW191820   7.849   6.034   2.185  2.0584  1.1526 -1.5166
61654SOL    HW291821   7.742   6.110   2.109  0.5700  0.4477 -0.1711
61655SOL     OW91822   4.473   8.742   0.905  0.4588 -0.5931 -0.5633
61655SOL    HW191823   4.403   8.784   0.956 -0.3676  0.1185 -2.2082
61655SOL    HW291824   4.518   8.815   0.863  1.0611 -1.1698 -0.9375
61656SOL     OW91825  11.840  10.940   2.747 -0.2567  0.8799  0.1239
61656SOL    HW191826  11.895  10.968   2.821  1.3486 -2.0612  0.2081
61656SOL    HW291827  11.868  10.995   2.674  1.4405  0.7925  0.6632
61657SOL     OW91828   1.344   6.957   4.936  0.4140 -0.4246  0.3289
61657SOL    HW191829   1.330   7.049   4.960 -1.6105 -1.0241  1.7182
61657SOL    HW291830   1.304   6.947   4.850 -1.1805 -0.4026  1.0345
61658SOL     OW91831  12.280  11.411   2.522 -0.2252 -0.2861 -0.4916
61658SOL    HW191832  12.291  11.442   2.612  0.1673  1.7178 -1.1806
61658SOL    HW291833  12.363  11.367   2.502  0.6906  1.4287 -0.6468
61659SOL     OW91834  10.757   2.734   2.145 -0.3660  0.0748 -0.3801
61659SOL    HW191835  10.834   2.783   2.175 -0.8466 -0.0542  1.1228
61659SOL    HW291836  10.790   2.645   2.133 -0.1311  0.1602 -0.3922
61660SOL     OW91837   7.863   6.283   6.976 -0.0753 -0.1031 -0.4582
61660SOL    HW191838   7.898   6.297   6.887 -0.5841  1.4680 -0.4432
61660SOL    HW291839   7.888   6.362   7.024  0.4324 -1.0537  0.9024
61661SOL     OW91840   9.203  10.312  10.048  0.3557 -0.3385 -0.7260
61661SOL    HW191841   9.263  10.376  10.086 -1.0191  0.4823  0.1977
61661SOL    HW291842   9.116  10.353  10.058 -0.2006 -0.5348 -3.8822
61662SOL     OW91843   8.864   7.134   6.787 -0.2441  0.3667  0.9423
61662SOL    HW191844   8.788   7.190   6.793 -0.5899 -0.0100  0.2921
61662SOL    HW291845   8.872   7.093   6.873 -0.8982  0.2543  0.9499
61663SOL     OW91846  10.898   3.205  12.314 -0.3745 -0.6171 -0.3913
61663SOL    HW191847  10.963   3.275  12.311 -0.7048 -0.1934  1.2367
61663SOL    HW291848  10.943   3.132  12.356 -0.3634 -1.0261 -1.0935
61664SOL     OW91849  11.845   5.487   6.491  0.4260 -0.2931 -0.3490
61664SOL    HW191850  11.793   5.414   6.457  1.8586 -1.7467  0.4235
61664SOL    HW291851  11.880   5.455   6.574 -0.2193  1.9115  0.8727
61665SOL     OW91852   9.754   1.846   9.057  0.4213  0.5043 -0.7235
61665SOL    HW191853   9.689   1.854   9.127  1.1329 -2.3932  0.4226
61665SOL    HW291854   9.732   1.915   8.995 -1.3530  2.0512  1.4853
61666SOL     OW91855   3.048   2.699  11.839  0.9395  0.3752  0.4578
61666SOL    HW191856   3.089   2.769  11.789  1.3324 -0.5818 -0.6065
61666SOL    HW291857   3.115   2.630  11.842 -0.1744 -0.7844 -0.3530
61667SOL     OW91858  11.669  11.058  11.872  0.4992 -0.3416 -0.0263
61667SOL    HW191859  11.600  11.002  11.907 -2.0064  2.3432 -0.2706
61667SOL    HW291860  11.730  10.998  11.829 -0.7091 -3.0036  1.7102
61668SOL     OW91861   4.283   5.740  10.722  0.7170  0.2434  0.1226
61668SOL    HW191862   4.366   5.783  10.701  0.7050  1.0978  1.6264
61668SOL    HW291863   4.219   5.785  10.667  1.2289 -0.4797 -1.1153
61669SOL     OW91864   9.579   1.847   4.131 -0.2311  0.1654 -0.2601
61669SOL    HW191865   9.563   1.920   4.191  0.9712 -0.3736  0.7502
61669SOL    HW291866   9.635   1.884   4.063  1.2187 -0.0348  0.7930
61670SOL     OW91867   9.568   0.740   1.233 -0.2908 -0.0603 -0.0186
61670SOL    HW191868   9.658   0.756   1.259 -0.2233 -1.1529  0.4631
61670SOL    HW291869   9.545   0.657   1.275 -1.2491 -0.2096 -0.8060
61671SOL     OW91870   7.586  11.111   0.977  0.3590  0.2147 -0.0927
61671SOL    HW191871   7.528  11.036   0.983 -1.0552  1.3386  1.0616
61671SOL    HW291872   7.601  11.122   0.883 -2.4382  0.6809 -0.5712
61672SOL     OW91873   8.837   5.159   1.438  0.3425  0.5537 -0.2645
61672SOL    HW191874   8.757   5.210   1.437  0.2467  0.4871  1.1502
61672SOL    HW291875   8.843   5.125   1.528  1.6422  0.0769 -0.4980
61673SOL     OW91876   3.387   3.567   9.811  0.4167 -0.3724  0.3066
61673SOL    HW191877   3.408   3.598   9.899 -1.3967  1.5796  0.1327
61673SOL    HW291878   3.426   3.632   9.752 -1.3596  0.3297 -0.1599
61674SOL     OW91879   4.832   8.314   7.882  0.1152 -0.0057  0.1979
61674SOL    HW191880   4.766   8.254   7.848 -0.1664 -0.2278  1.1312
61674SOL    HW291881   4.898   8.319   7.812 -0.5082 -0.3620 -0.4259
61675SOL     OW91882   3.971   9.928   0.467  0.1345  0.8725  0.0140
61675SOL    HW191883   3.991   9.999   0.405 -1.3200  0.6878 -0.7194
61675SOL    HW291884   3.905   9.966   0.525  0.5141  0.6159  0.6127
61676SOL     OW91885   8.160  10.720   6.047 -0.6849  0.1826  0.1610
61676SOL    HW191886   8.124  10.731   6.135  1.1721  0.1748  0.9699
61676SOL    HW291887   8.121  10.790   5.995 -0.8003  0.9991  1.3297
61677SOL     OW91888   0.655  10.282  11.109 -0.7842  0.2614 -0.0512
61677SOL    HW191889   0.744  10.304  11.078 -1.0496  1.0303 -0.3036
61677SOL    HW291890   0.665  10.271  11.203 -0.2557 -0.5439 -0.1902
61678SOL     OW91891   1.047   2.758  11.104  0.0654  0.3426  0.5735
61678SOL    HW191892   1.081   2.827  11.161 -0.1009 -0.7533  2.0672
61678SOL    HW291893   1.120   2.696  11.095  0.0814  0.4987 -0.4006
61679SOL     OW91894  12.536   2.480   1.455  0.0314 -0.2078 -0.2102
61679SOL    HW191895  12.460   2.522   1.413 -0.4679 -2.3466 -1.5913
61679SOL    HW291896  12.587   2.553   1.490 -2.4366  1.3459  0.3974
61680SOL     OW91897  12.061   9.949   3.949 -0.0014  0.3734 -0.1971
61680SOL    HW191898  12.122   9.891   3.902 -0.3697 -1.5711  1.5972
61680SOL    HW291899  12.118  10.001   4.005  0.1223 -2.5454  2.6826
61681SOL     OW91900  11.263   4.474   5.881 -0.0305  0.3513  0.5138
61681SOL    HW191901  11.293   4.384   5.870 -0.0229  0.5226 -1.0177
61681SOL    HW291902  11.199   4.470   5.952 -0.5873 -0.9948 -0.0413
61682SOL     OW91903   8.805   2.573   2.257  0.1697 -0.1780 -0.2620
61682SOL    HW191904   8.724   2.530   2.228 -0.6095  1.0252  0.0606
61682SOL    HW291905   8.842   2.513   2.321 -1.7239  0.2683  1.3732
61683SOL     OW91906   4.051   6.233   9.207 -0.2133  0.2034  1.0005
61683SOL    HW191907   4.087   6.322   9.205  0.2405  0.0120  0.1017
61683SOL    HW291908   4.090   6.190   9.131 -0.1261 -0.8872  1.6462
61684SOL     OW91909   8.493   4.270   9.327 -0.0957 -0.2279  0.4679
61684SOL    HW191910   8.427   4.202   9.345  0.0961 -0.4135  0.4804
61684SOL    HW291911   8.512   4.307   9.413  1.6541 -1.8857  0.8734
61685SOL     OW91912   3.430   3.317   9.566  0.2058  0.2933 -0.1263
61685SOL    HW191913   3.368   3.378   9.527  0.6872  0.5243 -0.5350
61685SOL    HW291914   3.504   3.315   9.505 -0.0037 -1.0573 -0.3737
61686SOL     OW91915   2.107  10.737  10.291  0.7206 -0.0226  0.4241
61686SOL    HW191916   2.096  10.826  10.258  0.9337 -0.2018 -0.1451
61686SOL    HW291917   2.063  10.682  10.227  1.3147 -0.3954  0.3299
61687SOL     OW91918  10.372   5.164   8.640 -0.3246  0.3118  0.2540
61687SOL    HW191919  10.301   5.125   8.691  0.0204 -1.7120 -0.7209
61687SOL    HW291920  10.380   5.107   8.563  3.2858 -0.4261  1.0066
61688SOL     OW91921   3.354   2.693   7.712  0.5790 -0.3011  0.3994
61688SOL    HW191922   3.395   2.646   7.785 -0.1869 -0.2834  0.8517
61688SOL    HW291923   3.426   2.744   7.673  1.0941 -0.6756  0.8444
61689SOL     OW91924   8.089   1.293   0.207  0.4408 -0.5964 -0.2564
61689SOL    HW191925   8.165   1.351   0.206  0.5778 -0.6608  1.8964
61689SOL    HW291926   8.115   1.220   0.262 -1.2636 -0.4498  0.8366
61690SOL     OW91927   4.393  10.983   9.958 -0.0063  0.2727  0.6043
61690SOL    HW191928   4.419  10.896   9.987  0.7802  0.2519 -0.1223
61690SOL    HW291929   4.355  11.024  10.035 -2.9735 -1.6524  0.3741
61691SOL     OW91930   7.029   5.312   5.156  0.2575 -0.5702  0.3591
61691SOL    HW191931   7.005   5.355   5.239  3.2394 -1.0750  1.6219
61691SOL    HW291932   7.037   5.384   5.094  3.3569  0.7082  1.9829
61692SOL     OW91933   0.780   1.996   5.961  0.2081 -0.5535  0.2078
61692SOL    HW191934   0.835   1.948   5.898  1.8516  0.4235  0.8344
61692SOL    HW291935   0.830   1.994   6.042 -0.1450  1.3223  0.5120
61693SOL     OW91936   4.082   3.945   6.875  0.3207 -0.0780  0.5169
61693SOL    HW191937   3.991   3.959   6.904  0.2805  0.5419  0.1166
61693SOL    HW291938   4.105   3.858   6.908 -0.1025  0.1474  1.4232
61694SOL     OW91939   5.931   5.602   4.113 -0.0143 -0.4904  0.1882
61694SOL    HW191940   5.967   5.665   4.051  0.9171  0.0082  1.1947
61694SOL    HW291941   5.849   5.573   4.073 -0.4355  1.2976 -0.3327
61695SOL     OW91942   5.195   9.139  10.361  0.8251 -0.4511  0.2884
61695SOL    HW191943   5.178   9.163  10.270  1.6805 -1.2339 -0.0999
61695SOL    HW291944   5.110   9.116  10.397  0.6401 -1.4098 -0.7084
61696SOL     OW91945   3.633   8.541   1.888 -0.5089 -0.0817 -0.2087
61696SOL    HW191946   3.688   8.619   1.886 -2.4748  1.3753 -0.7038
61696SOL    HW291947   3.545   8.574   1.907 -1.5088 -2.1144 -0.9891
61697SOL     OW91948   7.168   3.668   4.833 -0.3177 -0.8745 -0.8087
61697SOL    HW191949   7.222   3.600   4.872  0.1503 -0.0196  0.1035
61697SOL    HW291950   7.082   3.628   4.823 -0.1547 -1.4729  0.0882
61698SOL     OW91951   0.710   2.808  11.536  0.1566  0.2211 -0.5462
61698SOL    HW191952   0.715   2.766  11.621  0.1803 -1.3300 -1.2775
61698SOL    HW291953   0.620   2.841  11.530 -0.1150 -0.4699 -0.2847
61699SOL     OW91954   9.768   2.630  10.916 -0.1962 -0.1861 -0.2315
61699SOL    HW191955   9.715   2.563  10.959  0.0882 -0.7628 -0.7687
61699SOL    HW291956   9.759   2.612  10.822 -1.0130  1.2107 -0.4515
61700SOL     OW91957   6.283   2.298   2.827 -0.2867  0.1088  0.2096
61700SOL    HW191958   6.365   2.325   2.785 -0.7518  1.5466  0.1752
61700SOL    HW291959   6.308   2.278   2.918  0.3147 -0.7804 -0.1322
61701SOL     OW91960  10.370   4.906  10.113 -0.2409  0.0553  0.0546
61701SOL    HW191961  10.283   4.895  10.150 -0.6750  1.6790 -0.3903
61701SOL    HW291962  10.361   4.880  10.022 -0.7511  1.8898 -0.4611
61702SOL     OW91963   6.439   5.019   0.212  0.1459 -0.0183  0.3704
61702SOL    HW191964   6.348   5.026   0.240 -0.2346 -0.9964 -0.5284
61702SOL    HW291965   6.457   4.925   0.211  2.1108  0.1958  3.3466
61703SOL     OW91966   2.372   0.628   5.869 -0.1882  0.3619  0.0479
61703SOL    HW191967   2.349   0.570   5.796 -0.2059  0.5098 -0.0665
61703SOL    HW291968   2.369   0.716   5.831 -2.4166  0.6646  0.7542
61704SOL     OW91969   0.467   2.547   3.192  0.1734  0.4023 -0.0726
61704SOL    HW191970   0.411   2.520   3.265  1.8916 -0.5594  0.9493
61704SOL    HW291971   0.457   2.642   3.188 -1.2736  0.2905  0.2597
61705SOL     OW91972   3.092   8.110   5.464  0.3086  0.2586  0.7550
61705SOL    HW191973   3.005   8.095   5.502  0.8485 -2.3842  1.1267
61705SOL    HW291974   3.091   8.060   5.383  1.3263  0.6394  0.4964
61706SOL     OW91975   5.874   9.591  12.150 -0.0045  0.5505  0.3663
61706SOL    HW191976   5.831   9.668  12.114  0.6152  0.2027 -1.1790
61706SOL    HW291977   5.950   9.625  12.196  0.0911  0.8932 -0.0418
61707SOL     OW91978   1.751  11.612   2.538  0.2662 -0.1194  0.0726
61707SOL    HW191979   1.845  11.627   2.539  0.2740 -0.1387  1.3161
61707SOL    HW291980   1.714  11.693   2.504  0.6343  0.6382  1.3972
61708SOL     OW91981   8.011   9.776   5.744 -0.3908  0.0629  0.1695
61708SOL    HW191982   8.037   9.708   5.806 -2.0780  0.3313  1.2323
61708SOL    HW291983   7.975   9.846   5.798 -0.6860  0.8897 -1.0443
61709SOL     OW91984   2.163   8.169   9.346 -0.1898 -0.3418  0.0455
61709SOL    HW191985   2.166   8.263   9.329  0.3408 -0.1797  0.9346
61709SOL    HW291986   2.204   8.129   9.269  0.3240  0.2145  0.0228
61710SOL     OW91987  11.230   8.295   7.019 -0.0010 -0.7153 -0.5244
61710SOL    HW191988  11.187   8.329   7.098 -0.0405 -0.4820 -0.6447
61710SOL    HW291989  11.172   8.226   6.988  0.3604 -1.2817  0.0357
61711SOL     OW91990   9.584   4.198   7.575 -0.6019  0.2019 -0.5300
61711SOL    HW191991   9.507   4.148   7.602 -0.2655  1.0798  2.3714
61711SOL    HW291992   9.658   4.140   7.590 -0.2360  1.2809  2.5987
61712SOL     OW91993   8.286  10.450   4.767  0.6367 -0.9284  0.6041
61712SOL    HW191994   8.298  10.495   4.850 -2.2344 -0.4423  0.8453
61712SOL    HW291995   8.193  10.427   4.765  0.8321 -1.8182 -2.0422
61713SOL     OW91996  12.072   4.529   8.764 -0.2723 -0.1266 -0.1375
61713SOL    HW191997  11.988   4.545   8.806  0.0345 -1.0136  0.8627
61713SOL    HW291998  12.122   4.479   8.829  1.6111  1.7161 -0.0538
61714SOL     OW91999   7.156   7.448  10.164  0.3191 -0.1802 -0.2733
61714SOL    HW192000   7.214   7.401  10.224  1.8741  0.2019 -1.4015
61714SOL    HW292001   7.143   7.534  10.204  3.2304  0.9242 -1.4800
61715SOL     OW92002   8.760   4.587  11.394 -0.3227  0.5436  0.0364
61715SOL    HW192003   8.664   4.588  11.390 -0.4366  0.7352  1.9848
61715SOL    HW292004   8.787   4.582  11.302 -2.2323 -4.8279 -0.6147
61716SOL     OW92005   9.661   3.712   9.516 -0.2675  0.3320  0.0795
61716SOL    HW192006   9.638   3.802   9.540 -1.0215  0.3164 -0.5312
61716SOL    HW292007   9.727   3.686   9.580 -1.6850  0.5247  1.7141
61717SOL     OW92008   1.571   0.340   3.102 -0.1623  0.3178  0.3621
61717SOL    HW192009   1.530   0.279   3.041  0.2975  1.6266 -1.3315
61717SOL    HW292010   1.665   0.324   3.093 -0.1073 -0.9285  2.3643
61718SOL     OW92011   3.439   6.328  12.515 -0.3005  0.3856 -0.2969
61718SOL    HW192012   3.530   6.303  12.498 -0.8342 -3.1444  1.1915
61718SOL    HW292013   3.407   6.360  12.431  2.0677  1.0298 -1.0406
61719SOL     OW92014   1.355   9.496  10.035  0.1042  0.3732  0.1840
61719SOL    HW192015   1.401   9.472   9.955 -0.0309  2.5021 -0.6072
61719SOL    HW292016   1.379   9.588  10.050 -1.4403  0.6207  1.4758
61720SOL     OW92017   8.934   9.955   3.902 -0.1095 -0.0519 -0.5926
61720SOL    HW192018   8.911   9.887   3.838 -0.8214  0.2820 -0.7011
61720SOL    HW292019   8.864  10.020   3.894  1.6019  1.7403 -1.9775
61721SOL     OW92020  10.795   9.241   2.617  0.3460 -0.2319  0.0234
61721SOL    HW192021  10.708   9.254   2.656  0.5827  0.0019  0.4739
61721SOL    HW292022  10.823   9.155   2.648  0.1695 -0.4189 -0.3290
61722SOL     OW92023   0.776   2.127  10.010 -0.0439  0.7798 -0.0899
61722SOL    HW192024   0.860   2.171  10.006 -0.1316  0.8933 -0.8474
61722SOL    HW292025   0.786   2.050   9.953 -0.0284  0.0581  0.8783
61723SOL     OW92026  12.145   6.304  10.191  0.8297 -0.2388 -0.0052
61723SOL    HW192027  12.119   6.223  10.147  2.2350 -0.8754  0.2970
61723SOL    HW292028  12.213   6.278  10.252  1.2438  1.1651  0.1755
61724SOL     OW92029   0.583   0.034  10.169 -0.4438  0.2475 -0.0694
61724SOL    HW192030   0.605  -0.052  10.204 -0.0375 -0.4809 -1.9774
61724SOL    HW292031   0.489   0.042  10.179 -0.4157 -0.1890  0.5778
61725SOL     OW92032   1.602   6.972   1.263  0.0597  0.5648 -0.2699
61725SOL    HW192033   1.665   6.978   1.191  0.5087 -0.3672  0.0186
61725SOL    HW292034   1.531   7.031   1.238  0.6292  0.9532 -1.0337
61726SOL     OW92035   3.273   5.942   6.463 -0.0498 -0.5301  0.3916
61726SOL    HW192036   3.196   5.938   6.407 -0.5820 -0.1352  1.0816
61726SOL    HW292037   3.279   6.034   6.490 -0.4166 -0.9055  1.8224
61727SOL     OW92038   7.888   0.261  10.494 -0.3935  0.3303  0.4765
61727SOL    HW192039   7.799   0.226  10.486 -0.5876  0.9562 -0.1941
61727SOL    HW292040   7.943   0.184  10.510 -0.6333 -0.4824 -2.1707
61728SOL     OW92041   2.825   5.529   8.129 -0.6606 -0.2126  0.5400
61728SOL    HW192042   2.804   5.575   8.210  0.0908  0.3348  0.4396
61728SOL    HW292043   2.752   5.468   8.116 -1.5771  0.7875  0.8007
61729SOL     OW92044   4.827  12.404  12.001  0.0859 -0.0104 -0.1333
61729SOL    HW192045   4.865  12.449  12.076  0.4532 -0.0851 -0.2707
61729SOL    HW292046   4.737  12.438  11.995 -0.8062 -1.7426  1.8084
61730SOL     OW92047  12.412   2.702  10.013  0.1889  0.7208 -0.1092
61730SOL    HW192048  12.363   2.650  10.077  0.2299  1.1869  0.3030
61730SOL    HW292049  12.348   2.719   9.943  0.8548 -2.0826 -1.5582
61731SOL     OW92050   6.073   9.148  10.155 -0.2944 -0.0007 -0.1352
61731SOL    HW192051   6.073   9.189  10.242  1.3766  0.1469 -0.1708
61731SOL    HW292052   6.165   9.126  10.139 -0.8178 -1.7107 -1.0946
61732SOL     OW92053   7.162   2.251   6.706  0.0005  0.3763  0.4974
61732SOL    HW192054   7.190   2.213   6.623 -2.4445 -2.8295  0.9402
61732SOL    HW292055   7.142   2.343   6.686  0.7312  0.0352 -2.0899
61733SOL     OW92056   6.696  11.035  12.142  0.0039 -0.1566  0.0709
61733SOL    HW192057   6.693  11.058  12.049 -0.3188 -0.6577 -0.0419
61733SOL    HW292058   6.667  11.115  12.186  3.0695  1.1900 -0.0609
61734SOL     OW92059   3.506  11.028   6.124 -0.0473  0.2880 -0.1741
61734SOL    HW192060   3.482  11.115   6.092  0.1313  0.1690 -0.6427
61734SOL    HW292061   3.532  10.980   6.046  0.2595 -0.0583  0.1338
61735SOL     OW92062   8.791   1.973   7.492 -0.0612 -0.6884 -0.0041
61735SOL    HW192063   8.840   2.009   7.418  0.0865  1.7884  1.2123
61735SOL    HW292064   8.854   1.915   7.537 -0.0081 -1.8311 -1.4823
61736SOL     OW92065   1.502   0.392   2.578  0.3605  0.4613 -0.7132
61736SOL    HW192066   1.564   0.415   2.509  0.6044 -0.5781 -0.8670
61736SOL    HW292067   1.554   0.392   2.658  1.0257 -2.0012 -1.0431
61737SOL     OW92068   2.362   0.896   5.769 -0.2437  0.4612  0.2252
61737SOL    HW192069   2.383   0.985   5.798  0.1237  0.4234  0.0763
61737SOL    HW292070   2.305   0.909   5.693  0.5355  0.5787 -0.3434
61738SOL     OW92071  12.097   1.985   6.678  0.0346  0.5312  0.9595
61738SOL    HW192072  12.156   1.951   6.611  0.8369  2.1224  0.8160
61738SOL    HW292073  12.153   2.002   6.754 -0.4664  0.8512  1.2654
61739SOL     OW92074   3.360   7.597   2.259 -0.1303 -0.1155 -0.2910
61739SOL    HW192075   3.353   7.603   2.163  0.4915  0.3363 -0.3140
61739SOL    HW292076   3.270   7.606   2.290 -0.0702  3.4368 -0.6594
61740SOL     OW92077   3.135   2.246   0.049 -0.3011  0.1221  0.3184
61740SOL    HW192078   3.043   2.238   0.023 -0.1080  0.8133 -0.6528
61740SOL    HW292079   3.134   2.244   0.144 -1.4407  1.1943  0.3420
61741SOL     OW92080   5.548  11.999  10.935 -0.2843  0.7515 -0.1706
61741SOL    HW192081   5.475  11.948  10.901  1.0365 -1.0352 -0.5076
61741SOL    HW292082   5.593  11.939  10.995  1.5949  1.3012 -0.9250
61742SOL     OW92083   4.597  10.630   6.554 -0.4409 -0.1250  0.0361
61742SOL    HW192084   4.555  10.662   6.474  0.2732 -0.0170 -0.3040
61742SOL    HW292085   4.533  10.647   6.623 -0.9127  0.1276 -0.4556
61743SOL     OW92086   5.783   1.747   1.907 -0.3387  0.4916  0.2245
61743SOL    HW192087   5.787   1.689   1.983 -0.5968  1.1694  0.7648
61743SOL    HW292088   5.841   1.706   1.842 -0.1558 -0.1168  0.7663
61744SOL     OW92089   2.220  12.571   2.090  0.0603  0.4303  0.1916
61744SOL    HW192090   2.230  12.529   2.004 -0.4685 -1.9090  1.1742
61744SOL    HW292091   2.308  12.604   2.110  0.7249 -0.9071 -0.3578
61745SOL     OW92092   6.795   3.674  12.093  0.3910  0.2719 -0.0349
61745SOL    HW192093   6.794   3.770  12.084  0.4207  0.3616  0.8527
61745SOL    HW292094   6.873   3.647  12.044 -0.7137  0.4891 -2.0415
61746SOL     OW92095  10.866   6.704   5.372  0.2781  0.1450 -0.1317
61746SOL    HW192096  10.849   6.643   5.443  1.0414 -0.8517 -0.7859
61746SOL    HW292097  10.842   6.657   5.292 -0.7005  1.2950 -0.5624
61747SOL     OW92098   7.649   0.800   8.071  0.2666  0.2503 -0.0268
61747SOL    HW192099   7.632   0.812   7.978  3.4041 -0.2580 -0.8025
61747SOL    HW292100   7.598   0.868   8.114 -1.6005  0.2369 -2.0419
61748SOL     OW92101   3.975   7.819   5.499  0.4344  0.1962 -0.1923
61748SOL    HW192102   3.952   7.910   5.519 -2.4756 -0.2953 -0.7295
61748SOL    HW292103   3.984   7.777   5.584  0.5517  0.7252  0.0578
61749SOL     OW92104  12.327   1.224   3.651  0.3251  0.2812 -0.1939
61749SOL    HW192105  12.257   1.250   3.710 -0.1991 -0.6992 -0.3550
61749SOL    HW292106  12.388   1.175   3.705  0.4171  0.3488 -0.2363
61750SOL     OW92107   8.772   7.384   1.634 -0.2232  0.1453  0.2205
61750SOL    HW192108   8.840   7.337   1.682 -0.4252 -0.3461  0.0211
61750SOL    HW292109   8.705   7.402   1.700 -0.6092 -0.7398  0.0746
61751SOL     OW92110   5.623   0.436  12.537  0.8542 -0.0989  0.5549
61751SOL    HW192111   5.695   0.406  12.593  0.8006 -0.9581  0.1848
61751SOL    HW292112   5.661   0.436  12.449 -0.0690 -2.3320  0.0817
61752SOL     OW92113   7.407   0.699  12.130 -0.6323  0.3989 -0.1540
61752SOL    HW192114   7.355   0.684  12.209 -2.3318  0.9726 -1.1102
61752SOL    HW292115   7.389   0.791  12.107  0.3172  0.4158 -0.8684
61753SOL     OW92116   3.563  11.641   3.364  0.1972  0.0664  0.0092
61753SOL    HW192117   3.482  11.608   3.325  0.6265  1.1106 -1.8693
61753SOL    HW292118   3.616  11.562   3.378 -1.1287 -0.6497  1.3867
61754SOL     OW92119   7.252   7.767   1.241 -0.0325 -0.2281  0.2448
61754SOL    HW192120   7.221   7.695   1.297  0.6865 -1.0705 -0.4128
61754SOL    HW292121   7.341   7.785   1.271  0.2100 -0.4078 -0.3437
61755SOL     OW92122   1.383   3.857   6.351 -0.5308  0.0714  0.5245
61755SOL    HW192123   1.450   3.925   6.347  0.2118 -0.5785  1.3281
61755SOL    HW292124   1.313   3.895   6.404 -0.5307  0.5466  0.1833
61756SOL     OW92125  11.082   5.379   7.716 -0.2107 -0.1259  0.2877
61756SOL    HW192126  11.130   5.296   7.707 -0.0641 -0.0608  0.4649
61756SOL    HW292127  11.138   5.443   7.673  1.3777  0.5312  3.1014
61757SOL     OW92128   5.811  10.088   5.442 -0.0969  0.7681 -0.5010
61757SOL    HW192129   5.844  10.048   5.361  0.7914 -0.7999  0.5659
61757SOL    HW292130   5.716  10.079   5.436  0.0425 -1.2301 -0.5199
61758SOL     OW92131  11.779   3.862   2.651 -0.9430 -0.4295 -0.4196
61758SOL    HW192132  11.716   3.792   2.671 -0.8575 -0.3504  0.1390
61758SOL    HW292133  11.737   3.912   2.581 -0.5124 -1.6969 -1.6289
61759SOL     OW92134   2.242  12.072   9.989 -0.3456  0.0314 -0.2130
61759SOL    HW192135   2.167  12.035  10.036  0.8901  0.5590  2.3917
61759SOL    HW292136   2.208  12.095   9.903 -2.6285 -1.6159  0.1609
61760SOL     OW92137   5.868   3.094   1.887  0.0079  0.0502 -0.4374
61760SOL    HW192138   5.925   3.075   1.962 -0.5164 -0.0881 -0.0728
61760SOL    HW292139   5.802   3.154   1.921  0.3815  0.8209 -1.0537
61761SOL     OW92140   7.598   6.264   3.575 -0.2369 -0.0774  0.0884
61761SOL    HW192141   7.633   6.223   3.655 -0.4298 -1.1544 -0.3617
61761SOL    HW292142   7.531   6.203   3.545 -0.2591  0.3892 -0.8276
61762SOL     OW92143   9.249   7.798   8.351  0.0859 -0.2591 -0.1615
61762SOL    HW192144   9.313   7.833   8.413  0.9540 -0.7976 -0.7240
61762SOL    HW292145   9.230   7.710   8.384 -1.6487  0.4469  0.9221
61763SOL     OW92146   1.084   8.016   9.191 -0.2751 -0.4035 -0.1364
61763SOL    HW192147   1.107   8.033   9.282  0.0546 -0.5889 -0.1829
61763SOL    HW292148   1.106   7.923   9.178  1.3112  0.0444 -0.8847
61764SOL     OW92149   4.415  12.303   5.604 -0.0964 -0.1501 -0.1915
61764SOL    HW192150   4.483  12.366   5.581  0.2944 -0.5018 -0.0071
61764SOL    HW292151   4.434  12.279   5.695 -0.8374  0.2222  0.0697
61765SOL     OW92152   9.678   4.184   1.708  0.4658 -0.1552  0.7040
61765SOL    HW192153   9.700   4.276   1.694  2.4627 -0.8568 -1.6577
61765SOL    HW292154   9.708   4.165   1.797  1.9634  1.0068  0.4865
61766SOL     OW92155   1.634   6.344  11.711  0.3886  0.8295 -0.0151
61766SOL    HW192156   1.718   6.380  11.679  1.1825  0.8051  1.9260
61766SOL    HW292157   1.650   6.250  11.717  0.5633  0.9208  1.2276
61767SOL     OW92158   1.333  12.241   0.981  0.1887 -0.0189  0.3591
61767SOL    HW192159   1.270  12.271   0.915 -0.4212  1.4297  1.5526
61767SOL    HW292160   1.379  12.169   0.938 -1.5399 -0.4286 -0.9400
61768SOL     OW92161   3.593  11.413   4.138  0.1645 -0.3592  1.0170
61768SOL    HW192162   3.635  11.457   4.065  0.1937  2.1808  2.4582
61768SOL    HW292163   3.652  11.340   4.159  0.3593 -0.8940 -1.1486
61769SOL     OW92164   7.120   3.270   4.852 -0.5475 -0.0916  0.6825
61769SOL    HW192165   7.025   3.277   4.843 -0.5066 -0.3582 -0.1045
61769SOL    HW292166   7.151   3.253   4.763  0.0715 -1.7772  1.1745
61770SOL     OW92167   1.745   0.902   4.956 -0.1083  0.1531  0.5851
61770SOL    HW192168   1.833   0.871   4.977 -0.2115 -0.5615 -0.0043
61770SOL    HW292169   1.688   0.862   5.021 -0.2741 -1.1375 -0.3134
61771SOL     OW92170   1.245  11.101   1.928  0.1653 -0.2886  0.3693
61771SOL    HW192171   1.235  11.021   1.877 -1.0096  0.5460 -0.7653
61771SOL    HW292172   1.157  11.120   1.961  0.7762 -0.4610  2.2321
61772SOL     OW92173   5.554   9.679   5.515 -0.1322  0.2418  0.2286
61772SOL    HW192174   5.476   9.717   5.556 -0.8255  0.3031 -1.0818
61772SOL    HW292175   5.590   9.620   5.582 -2.4987 -1.3938  0.1913
61773SOL     OW92176  11.344   5.695   1.387  0.0244 -0.2240 -0.3726
61773SOL    HW192177  11.386   5.709   1.303  0.4510 -1.1522 -0.3309
61773SOL    HW292178  11.371   5.607   1.413 -0.3292 -0.0623  0.6022
61774SOL     OW92179   3.592   3.985   6.713 -0.0727  0.2539  0.5879
61774SOL    HW192180   3.679   3.995   6.675 -0.2645 -1.9046 -0.5845
61774SOL    HW292181   3.608   3.939   6.796 -0.0398  0.5698  0.7575
61775SOL     OW92182   1.188  11.042   9.987 -0.0410  0.2789  0.1902
61775SOL    HW192183   1.147  11.058   9.902  1.0922  2.0460 -0.0869
61775SOL    HW292184   1.272  11.087   9.982 -0.6889  2.0219  2.8276
61776SOL     OW92185  10.261   5.344   2.608 -0.8939 -0.0647  0.2418
61776SOL    HW192186  10.251   5.249   2.619 -0.4262 -0.5576 -2.7264
61776SOL    HW292187  10.181   5.372   2.564 -1.0728  0.9772  1.1773
61777SOL     OW92188   1.166  10.188  10.772  0.4604  0.0926  0.3346
61777SOL    HW192189   1.234  10.211  10.835  1.0356  1.2898 -0.6702
61777SOL    HW292190   1.214  10.159  10.694 -0.2353 -1.3300  0.3975
61778SOL     OW92191   9.000  10.958   3.220 -0.0570 -0.0330 -0.0245
61778SOL    HW192192   8.968  10.888   3.277 -0.6445 -0.2179 -0.5737
61778SOL    HW292193   8.945  10.952   3.142 -0.6875  1.5782  0.2578
61779SOL     OW92194   6.240   1.015   1.336 -0.3020  0.1319 -0.5911
61779SOL    HW192195   6.310   1.076   1.358  0.4384 -1.2674  1.1098
61779SOL    HW292196   6.163   1.071   1.322  0.1567  1.4313  1.7047
61780SOL     OW92197   7.240  10.104   6.136  0.1353  0.1325 -0.3185
61780SOL    HW192198   7.221  10.144   6.051 -0.6838 -1.2257 -0.8014
61780SOL    HW292199   7.230  10.010   6.121  1.0882 -0.2089  1.0174
61781SOL     OW92200   1.325   7.193   7.443  0.1192 -0.0813  0.3550
61781SOL    HW192201   1.406   7.144   7.449  1.4730  1.8319 -1.1423
61781SOL    HW292202   1.334   7.263   7.508  0.2380  0.8590 -0.6448
61782SOL     OW92203   2.171   5.963  11.213 -0.2421 -0.1773  0.6530
61782SOL    HW192204   2.227   5.940  11.287 -1.6449 -0.2272  1.7333
61782SOL    HW292205   2.158   6.057  11.221 -0.2563 -0.1529  0.3581
61783SOL     OW92206  11.435  12.094  11.760  0.0978  1.0809  0.0782
61783SOL    HW192207  11.359  12.100  11.702 -0.2707  1.1430  0.5541
61783SOL    HW292208  11.511  12.098  11.702 -0.2649 -1.2084 -0.6190
61784SOL     OW92209   6.402   4.965   5.347 -0.4678  0.3196 -0.2796
61784SOL    HW192210   6.428   4.905   5.277  0.9415 -0.1054  0.5634
61784SOL    HW292211   6.315   4.934   5.374 -0.8504  0.2468 -1.5580
61785SOL     OW92212   0.158  11.241   1.996  0.3828 -0.7536  0.0395
61785SOL    HW192213   0.110  11.161   2.019  0.3180 -0.4705  0.9084
61785SOL    HW292214   0.189  11.275   2.080  2.5191 -1.1802 -0.5036
61786SOL     OW92215   1.839   7.934   2.749  0.3830 -0.0136  0.0457
61786SOL    HW192216   1.779   8.007   2.763  0.2430 -0.0199 -0.5250
61786SOL    HW292217   1.880   7.952   2.665 -0.3032 -1.0388 -0.5208
61787SOL     OW92218   6.763  12.526   9.513 -0.3240  0.5752  0.1258
61787SOL    HW192219   6.851  12.497   9.492 -0.6118 -1.7676  1.7972
61787SOL    HW292220   6.728  12.559   9.430  1.5497  0.0469 -0.9319
61788SOL     OW92221   6.433   5.611   3.762  0.2826 -0.1709  0.3212
61788SOL    HW192222   6.513   5.621   3.813 -0.1532 -0.6071  1.1117
61788SOL    HW292223   6.362   5.631   3.824 -0.1930  1.9946 -0.8094
61789SOL     OW92224   7.432   8.426   9.686 -0.3315 -0.2509  0.0428
61789SOL    HW192225   7.405   8.494   9.625  1.4927  0.3591 -0.1372
61789SOL    HW292226   7.508   8.462   9.732  0.4214 -1.9802  0.2592
61790SOL     OW92227   7.159   8.626   2.521 -0.2735  0.2608 -0.3159
61790SOL    HW192228   7.087   8.633   2.459 -0.0907 -0.1415 -0.5784
61790SOL    HW292229   7.133   8.680   2.595 -0.4603  0.7923 -0.7713
61791SOL     OW92230   2.078   3.317   9.647 -0.8360 -0.3943  0.1149
61791SOL    HW192231   2.036   3.402   9.660 -0.1093 -0.2701  1.8329
61791SOL    HW292232   2.165   3.327   9.686  0.3962 -1.0207 -2.2874
61792SOL     OW92233  11.628   8.068   1.934 -0.0627 -0.2111 -0.0898
61792SOL    HW192234  11.569   8.035   2.001  0.5833 -2.0969 -0.3746
61792SOL    HW292235  11.701   8.107   1.983  0.5280 -1.7956  0.3433
61793SOL     OW92236   4.866  10.271   0.117  0.5728 -0.4704  0.0768
61793SOL    HW192237   4.912  10.352   0.096  0.4762 -0.4130  0.0903
61793SOL    HW292238   4.823  10.288   0.201  0.4085 -0.4752 -0.0051
61794SOL     OW92239  11.634   9.108   7.036 -0.1763  0.3607  0.1269
61794SOL    HW192240  11.584   9.027   7.025 -0.0155  0.1407  0.9793
61794SOL    HW292241  11.584   9.159   7.100  1.0531 -0.1883  1.5822
61795SOL     OW92242   0.225   2.530   0.880  0.5303 -0.2533 -0.3011
61795SOL    HW192243   0.147   2.540   0.935  0.1312 -1.4490 -0.6151
61795SOL    HW292244   0.210   2.587   0.805 -0.7718 -1.5737 -1.1097
61796SOL     OW92245   0.477   4.027   0.949 -0.0915 -0.5395 -0.1314
61796SOL    HW192246   0.443   4.043   1.037  1.4773 -1.7156  0.7318
61796SOL    HW292247   0.459   4.108   0.902 -0.6841  0.2439  1.3642
61797SOL     OW92248  10.738  10.932   8.662  0.3018  0.0130  0.1613
61797SOL    HW192249  10.661  10.877   8.653  1.0998 -1.6191  2.3211
61797SOL    HW292250  10.797  10.903   8.593  0.9523 -2.4202  1.6260
61798SOL     OW92251  11.324   1.025   9.388 -0.1055  0.0025 -0.3625
61798SOL    HW192252  11.399   1.067   9.430 -0.6334 -0.8020  1.4902
61798SOL    HW292253  11.254   1.090   9.394 -0.3046 -0.2757  0.4559
61799SOL     OW92254   2.114   7.091   5.193 -0.1332 -0.2215 -0.6584
61799SOL    HW192255   2.171   7.157   5.155  1.2976 -1.4077 -0.6784
61799SOL    HW292256   2.026   7.114   5.163  0.3233  1.6500 -0.6444
61800SOL     OW92257   6.751   9.011   3.312 -0.0365  0.4077  0.7403
61800SOL    HW192258   6.835   8.982   3.346 -0.0219  0.7710  1.0225
61800SOL    HW292259   6.686   8.967   3.368 -0.0268  0.4729  0.8026
61801SOL     OW92260  10.175  11.839   9.730 -0.2661 -0.1107  0.1094
61801SOL    HW192261  10.261  11.802   9.753  1.2193  2.5478 -0.8127
61801SOL    HW292262  10.168  11.826   9.635 -0.3506  0.7328 -0.0013
61802SOL     OW92263  12.131   7.878   4.097 -0.1948  0.1242  0.1120
61802SOL    HW192264  12.180   7.840   4.024  1.4289 -0.9478  1.6678
61802SOL    HW292265  12.146   7.972   4.090  1.4080 -0.1057  0.0232
61803SOL     OW92266  12.110   1.662   0.818 -0.3556 -0.1090 -0.3434
61803SOL    HW192267  12.061   1.721   0.760  0.0753  0.2856 -0.3062
61803SOL    HW292268  12.122   1.712   0.899 -1.5358 -0.8916  0.3584
61804SOL     OW92269   5.163   4.706   2.312  0.1847 -0.2134  0.5073
61804SOL    HW192270   5.085   4.653   2.296  1.2617 -1.8713  0.5342
61804SOL    HW292271   5.164   4.718   2.407  0.4717 -1.0305  0.6152
61805SOL     OW92272   6.903  10.675   4.198 -0.3598  0.4601  0.2351
61805SOL    HW192273   6.827  10.733   4.199  0.1285  1.1149  0.9801
61805SOL    HW292274   6.901  10.633   4.112 -1.3018  0.8153  0.0795
61806SOL     OW92275   4.408  12.360  12.154 -0.6969 -0.6734 -0.3317
61806SOL    HW192276   4.421  12.405  12.238  0.9135  0.3874 -1.0990
61806SOL    HW292277   4.322  12.389  12.124 -1.6562 -1.6804  1.2815
61807SOL     OW92278   6.644  12.410  10.589  0.0219  0.1581  0.1603
61807SOL    HW192279   6.640  12.427  10.495  3.2435 -1.4487 -0.3836
61807SOL    HW292280   6.642  12.315  10.597 -0.5486  0.2688  1.7778
61808SOL     OW92281   6.615   2.494  10.072 -0.5898  0.0965 -0.3123
61808SOL    HW192282   6.704   2.462  10.058 -0.8232 -0.6398 -0.1552
61808SOL    HW292283   6.604   2.563  10.007  0.3388  0.6804  0.1353
61809SOL     OW92284   0.423   7.056  12.531  0.7549 -0.6587  0.1407
61809SOL    HW192285   0.452   6.966  12.549  2.3598 -0.1100  0.4933
61809SOL    HW292286   0.491   7.092  12.474 -0.9223 -0.2905 -1.7095
61810SOL     OW92287   8.118  11.111  11.751  0.0057  0.6838 -0.0684
61810SOL    HW192288   8.175  11.135  11.677  1.4777  1.8890  1.3576
61810SOL    HW292289   8.142  11.174  11.820 -0.7719 -0.8529  1.6768
61811SOL     OW92290  10.165   0.459   4.811  0.0155  0.3929  0.0519
61811SOL    HW192291  10.093   0.483   4.752 -0.2198 -0.6807 -0.1071
61811SOL    HW292292  10.232   0.422   4.753  0.2174  0.3086  0.3376
61812SOL     OW92293   0.034   1.320   5.061  0.1487  0.1892  0.1221
61812SOL    HW192294  -0.037   1.272   5.018  0.4525  0.2865 -0.5153
61812SOL    HW292295  -0.007   1.362   5.136 -0.7670  1.3383 -0.9825
61813SOL     OW92296   8.663   3.076   0.708  0.1435  0.0665  0.0156
61813SOL    HW192297   8.667   3.066   0.613  0.1341  0.6706 -0.0526
61813SOL    HW292298   8.735   3.137   0.729  0.4031 -0.3774  0.4404
61814SOL     OW92299   7.036   2.684   2.534 -0.8483 -0.8715 -0.0002
61814SOL    HW192300   7.010   2.683   2.442  1.8108 -0.7342 -0.8449
61814SOL    HW292301   7.047   2.592   2.557  0.0474 -0.8647 -0.3513
61815SOL     OW92302   2.759   8.428  11.405 -0.1872 -0.1193 -0.3358
61815SOL    HW192303   2.810   8.455  11.329  1.4026 -0.2877  0.6244
61815SOL    HW292304   2.667   8.437  11.377  0.3474 -0.0066 -2.1811
61816SOL     OW92305   7.210   5.041  12.227 -0.2003  0.8231 -0.0196
61816SOL    HW192306   7.159   5.121  12.238 -1.1629  0.1294  0.7685
61816SOL    HW292307   7.150   4.971  12.252 -0.1712 -0.3655 -2.8159
61817SOL     OW92308   8.212   1.263   1.587 -0.0263 -0.5860  0.2894
61817SOL    HW192309   8.260   1.190   1.625 -0.0715 -0.3725  0.7625
61817SOL    HW292310   8.252   1.341   1.626 -0.9906 -0.4212  0.9742
61818SOL     OW92311   4.391   0.354   3.260  0.1290  0.3498  0.5591
61818SOL    HW192312   4.376   0.435   3.310  0.9622  1.4086 -0.8479
61818SOL    HW292313   4.486   0.349   3.249  0.0755 -0.7360  0.4571
61819SOL     OW92314   9.939   4.676   0.109  0.0471  0.4149 -0.0268
61819SOL    HW192315  10.017   4.646   0.064 -0.2424 -0.1076 -0.1931
61819SOL    HW292316   9.928   4.766   0.081  0.0871  0.2135 -0.7046
61820SOL     OW92317   6.993   4.183   5.244  0.0009 -0.0902 -0.1388
61820SOL    HW192318   7.069   4.235   5.270 -1.6190  1.0054  3.0583
61820SOL    HW292319   6.918   4.237   5.271 -1.8485 -2.5234 -0.0997
61821SOL     OW92320  10.649   7.943   6.902  0.9078  0.3277  0.0728
61821SOL    HW192321  10.681   7.928   6.814 -0.0947 -0.6878 -0.1490
61821SOL    HW292322  10.720   7.988   6.947  1.5980  0.4584 -1.1223
61822SOL     OW92323   1.489  10.640  10.753 -0.2195 -0.5554 -0.4463
61822SOL    HW192324   1.512  10.582  10.681 -0.4238 -0.4326 -0.6098
61822SOL    HW292325   1.426  10.701  10.716  0.1135 -0.1292 -0.3173
61823SOL     OW92326   9.455   6.463   8.806 -0.0610  0.2615  0.0357
61823SOL    HW192327   9.479   6.455   8.898 -1.1277  3.2495  0.6783
61823SOL    HW292328   9.520   6.523   8.769 -0.3517  0.0328 -0.8926
61824SOL     OW92329   4.429  10.698   3.034 -0.4572  0.0277  0.2632
61824SOL    HW192330   4.366  10.667   2.968 -1.0515  0.7726  0.4642
61824SOL    HW292331   4.424  10.793   3.028 -0.5195  0.0997  1.3939
61825SOL     OW92332   0.024   7.471   5.848  0.3185  0.1742 -0.1666
61825SOL    HW192333  -0.025   7.394   5.877  1.4622 -0.6597 -0.3594
61825SOL    HW292334   0.020   7.468   5.752  0.1449  0.4990 -0.1692
61826SOL     OW92335   1.885   4.496   5.322 -0.1581  0.2263 -0.3478
61826SOL    HW192336   1.965   4.518   5.370 -0.4813  0.4688  0.0832
61826SOL    HW292337   1.902   4.408   5.289  0.7124  0.6764 -1.1755
61827SOL     OW92338  10.701   2.552  11.479  0.7218 -0.4816 -0.1538
61827SOL    HW192339  10.708   2.642  11.446  0.0456 -0.7889 -1.1833
61827SOL    HW292340  10.690   2.562  11.573  2.7218  0.4403  0.0476
61828SOL     OW92341   7.957   2.767   7.030 -0.3856  0.4801 -0.1949
61828SOL    HW192342   7.978   2.757   6.937  1.1538  1.0528  0.0533
61828SOL    HW292343   8.038   2.802   7.069  0.4568 -3.3206  2.0221
61829SOL     OW92344  12.145  12.465  11.763 -0.4065  0.6880  0.2367
61829SOL    HW192345  12.067  12.511  11.794  2.1661  4.7831  1.5278
61829SOL    HW292346  12.217  12.523  11.787  3.4269 -4.1004  1.7736
61830SOL     OW92347   7.878   7.094   3.054  0.0068 -0.2419 -0.1895
61830SOL    HW192348   7.801   7.079   2.998 -1.2611  0.4713  1.2695
61830SOL    HW292349   7.875   7.023   3.118 -0.1933  0.4972  0.6397
61831SOL     OW92350   2.073   0.818   7.685  0.0213 -0.0887  0.2165
61831SOL    HW192351   2.116   0.793   7.603 -1.8291 -1.4313 -0.4011
61831SOL    HW292352   2.023   0.897   7.662 -0.0138 -0.1148  0.2023
61832SOL     OW92353  10.597  11.549  12.229  0.3447 -0.4221  0.4789
61832SOL    HW192354  10.525  11.492  12.255 -1.7363  2.4096  1.5239
61832SOL    HW292355  10.583  11.565  12.136  0.0939 -0.5240  0.4992
61833SOL     OW92356   7.648   0.772   9.946  0.1842 -0.0627  0.0551
61833SOL    HW192357   7.743   0.768   9.958 -0.1107 -1.1317  2.5491
61833SOL    HW292358   7.622   0.856   9.984  0.1754  0.5787 -1.3123
61834SOL     OW92359   4.635   8.767   7.016  0.8271  0.1255 -0.9098
61834SOL    HW192360   4.580   8.783   6.940  0.4820  0.2072 -0.6497
61834SOL    HW292361   4.595   8.821   7.085  0.7742 -0.4120 -0.5170
61835SOL     OW92362   2.085   1.884   5.360 -0.4264 -0.4111 -0.3845
61835SOL    HW192363   2.144   1.857   5.430  2.0345  1.0323 -1.7623
61835SOL    HW292364   2.033   1.955   5.398  1.1860  0.6478 -0.0866
61836SOL     OW92365   2.406  11.099   8.507 -0.8820  0.4267  0.4164
61836SOL    HW192366   2.454  11.068   8.430 -0.7253 -0.8478  1.0065
61836SOL    HW292367   2.381  11.189   8.485 -0.7097  0.1386 -1.0579
61837SOL     OW92368   9.122   4.363   5.634  0.3309 -0.1170 -0.0022
61837SOL    HW192369   9.160   4.306   5.567 -1.2707 -1.2129 -0.0228
61837SOL    HW292370   9.187   4.366   5.704  1.4026 -0.1190 -0.9689
61838SOL     OW92371   6.835   5.172   7.578 -0.1517  0.8244  0.6168
61838SOL    HW192372   6.749   5.131   7.586  0.5395 -0.4004  2.4298
61838SOL    HW292373   6.819   5.264   7.598 -1.3713  1.0923 -1.3214
61839SOL     OW92374   6.265   8.403   0.330  0.2658 -0.1782  0.7069
61839SOL    HW192375   6.271   8.456   0.251 -1.1597 -1.4805 -0.3529
61839SOL    HW292376   6.308   8.454   0.398 -1.4546  2.5471 -0.1158
61840SOL     OW92377   5.099   1.351   4.359 -0.1647 -0.1653 -0.3613
61840SOL    HW192378   5.037   1.283   4.331  0.5427 -0.6303 -0.8455
61840SOL    HW292379   5.143   1.313   4.435 -0.6307  0.2611  0.1295
61841SOL     OW92380   7.203   3.827   7.074  0.5408 -0.4974 -0.4234
61841SOL    HW192381   7.278   3.777   7.104 -0.8177 -1.0695  2.3016
61841SOL    HW292382   7.141   3.760   7.044  0.2715 -0.1822 -0.5750
61842SOL     OW92383  10.675   7.023  12.402 -0.4279  0.2811 -0.3349
61842SOL    HW192384  10.753   7.044  12.454 -0.5084  0.3773 -0.2531
61842SOL    HW292385  10.601   7.043  12.460 -0.5736  2.3311 -1.1543
61843SOL     OW92386   2.259   1.719   4.303  0.6355  0.2088 -0.2492
61843SOL    HW192387   2.317   1.729   4.378  0.1973 -0.7248  0.2425
61843SOL    HW292388   2.189   1.783   4.317  2.5619  2.9385 -1.9644
61844SOL     OW92389   7.880  10.791   7.129  0.4693  0.5653 -0.2132
61844SOL    HW192390   7.870  10.769   7.221  0.9141  1.7957  0.1581
61844SOL    HW292391   7.877  10.707   7.083 -0.0103 -0.0400  0.8897
61845SOL     OW92392   3.271   5.844   7.215 -0.2704 -0.4758  0.9425
61845SOL    HW192393   3.312   5.801   7.140  0.6161  0.1749  1.0281
61845SOL    HW292394   3.345   5.881   7.264 -0.9845  1.0888  0.8944
61846SOL     OW92395   8.426  10.251   6.028 -0.6907  0.0964 -0.5006
61846SOL    HW192396   8.424  10.329   6.083 -0.4727  1.1872 -1.9848
61846SOL    HW292397   8.341  10.210   6.042 -0.7959  0.5639  0.3292
61847SOL     OW92398   5.918   5.137   9.868 -0.0080 -0.0858  0.3764
61847SOL    HW192399   5.835   5.133   9.820  0.8163  0.5837 -1.1711
61847SOL    HW292400   5.944   5.229   9.864  0.3018 -0.1007  1.7640
61848SOL     OW92401   4.868   8.098   7.090  0.4392 -0.1914  0.1397
61848SOL    HW192402   4.949   8.047   7.095  0.4361 -0.1362  1.0081
61848SOL    HW292403   4.829   8.074   7.007  0.7545 -1.1264  0.2518
61849SOL     OW92404   9.155   1.250   8.208 -0.0029 -0.0877  0.4057
61849SOL    HW192405   9.187   1.171   8.164  0.4163  0.0451  0.4717
61849SOL    HW292406   9.069   1.224   8.243  0.4332 -0.7421  1.0403
61850SOL     OW92407   3.848   9.987  11.104  0.1216 -0.7767  0.3264
61850SOL    HW192408   3.870  10.075  11.137  0.6621 -0.4162 -0.9211
61850SOL    HW292409   3.752   9.987  11.099  0.0832 -0.4926  0.9295
61851SOL     OW92410  11.425   0.080  10.999  0.5243 -0.0249  0.0646
61851SOL    HW192411  11.441   0.156  10.943 -0.5285 -1.0050 -1.6469
61851SOL    HW292412  11.342   0.099  11.043  0.7548  0.2210  0.4039
61852SOL     OW92413   6.099   1.459   0.469 -0.1599 -0.0910 -0.1894
61852SOL    HW192414   6.071   1.380   0.515 -2.3621  0.5022 -0.4104
61852SOL    HW292415   6.076   1.530   0.528  0.2970  0.4883 -0.6940
61853SOL     OW92416   1.107   7.206  10.303 -0.0431 -0.0691  0.0800
61853SOL    HW192417   1.033   7.156  10.268  1.8978 -1.9307 -1.6661
61853SOL    HW292418   1.107   7.287  10.252 -0.6254 -0.2334 -0.1963
61854SOL     OW92419   5.163   2.712   4.416 -0.5829 -1.0783 -0.5106
61854SOL    HW192420   5.109   2.633   4.420  1.3683 -2.4613  0.0457
61854SOL    HW292421   5.200   2.721   4.504 -3.4838  2.5862  0.5889
61855SOL     OW92422  11.983   5.593   9.040 -0.1172 -0.5924 -0.4181
61855SOL    HW192423  12.066   5.562   9.004  0.3697 -0.2141  0.3514
61855SOL    HW292424  11.938   5.634   8.965  0.5195 -0.5409 -0.7738
61856SOL     OW92425   1.230  11.290   1.644 -0.4308 -0.7684 -0.3937
61856SOL    HW192426   1.251  11.228   1.713  0.7831  0.5251  0.4607
61856SOL    HW292427   1.180  11.359   1.688 -0.0313 -0.1569 -0.8702
61857SOL     OW92428   0.280   2.144   1.210 -0.0240  0.0602  0.2683
61857SOL    HW192429   0.224   2.190   1.148  1.9544  2.5287  0.1891
61857SOL    HW292430   0.261   2.184   1.295  1.5980  0.9641  0.2309
61858SOL     OW92431   0.041  10.601   2.665 -0.3432  0.0356 -0.7336
61858SOL    HW192432   0.068  10.559   2.583 -2.7026 -2.3652 -0.4239
61858SOL    HW292433   0.102  10.567   2.730 -0.6631 -0.9506 -0.9322
61859SOL     OW92434  11.641   7.098   7.623 -0.9227 -0.1079  0.1468
61859SOL    HW192435  11.668   7.020   7.671 -0.3447 -0.5155 -0.8135
61859SOL    HW292436  11.723   7.133   7.587 -1.4894 -0.6096 -1.7116
61860SOL     OW92437   6.731  10.942   9.518  0.6017 -0.0496  0.4202
61860SOL    HW192438   6.758  11.031   9.540 -1.4824  0.6721  0.2790
61860SOL    HW292439   6.665  10.919   9.584 -1.0225 -0.3075 -1.1976
61861SOL     OW92440  11.909   9.088  10.593 -0.7807  0.4023  0.0322
61861SOL    HW192441  11.998   9.121  10.605 -0.7920  0.0703  1.1279
61861SOL    HW292442  11.915   9.026  10.520  0.1858 -0.6532  0.9647
61862SOL     OW92443   2.438   0.451   6.932  0.4321 -0.3148 -0.2307
61862SOL    HW192444   2.362   0.474   6.986  1.5831 -0.6080  1.5694
61862SOL    HW292445   2.487   0.387   6.984  1.9350 -0.1209 -1.3411
61863SOL     OW92446   9.278   0.741   5.403 -0.8264 -0.2398 -0.9117
61863SOL    HW192447   9.304   0.737   5.311 -0.5003 -0.8494 -0.7931
61863SOL    HW292448   9.197   0.793   5.403 -0.8084 -0.2101 -1.5346
61864SOL     OW92449   3.085   4.992   7.059 -0.6449  0.2361  0.3471
61864SOL    HW192450   3.075   5.053   6.986  0.6949  1.8511  1.4343
61864SOL    HW292451   3.142   5.037   7.121 -1.5356 -1.1740  2.3157
61865SOL     OW92452   1.292   9.105   8.422  0.4937 -0.0217 -0.1808
61865SOL    HW192453   1.325   9.175   8.365 -1.5621  0.8884 -0.3477
61865SOL    HW292454   1.325   9.024   8.382 -0.3941  0.6225 -2.3872
61866SOL     OW92455   2.316   2.263   9.121 -0.6762  0.6918  0.3774
61866SOL    HW192456   2.279   2.175   9.110  1.1955 -0.0274 -0.6604
61866SOL    HW292457   2.312   2.301   9.033  1.0825  0.5271  0.1876
61867SOL     OW92458   7.286   3.991   4.734  0.5600  0.4795  0.2908
61867SOL    HW192459   7.281   3.919   4.671 -1.6257  0.3654  0.4913
61867SOL    HW292460   7.312   4.067   4.682 -2.9250  0.7945 -1.2691
61868SOL     OW92461   7.414   5.098   1.965 -0.0808 -0.5853  0.4153
61868SOL    HW192462   7.506   5.092   1.937 -0.0103 -1.4780  0.7967
61868SOL    HW292463   7.372   5.149   1.896  0.8723  0.6084  0.6763
61869SOL     OW92464  11.314   7.929   2.785 -0.6120 -0.6568 -0.3104
61869SOL    HW192465  11.317   7.929   2.881 -0.6481 -2.8028 -0.2636
61869SOL    HW292466  11.221   7.937   2.764 -0.6707 -0.8833 -0.1428
61870SOL     OW92467   0.997   6.596   2.334 -0.5401 -0.0962  0.2396
61870SOL    HW192468   0.973   6.684   2.363  0.8421  0.7297 -0.9764
61870SOL    HW292469   1.091   6.592   2.348 -0.5438 -1.2709 -0.0365
61871SOL     OW92470  10.156   7.298   1.355 -0.8143 -0.3099 -0.2740
61871SOL    HW192471  10.168   7.393   1.357 -1.1838 -0.2136  3.0264
61871SOL    HW292472  10.072   7.284   1.400 -1.5716 -2.1499 -2.1534
61872SOL     OW92473   2.211   8.262   8.441 -0.1458 -0.5272  0.2393
61872SOL    HW192474   2.207   8.225   8.353 -0.0615 -1.6054  0.6792
61872SOL    HW292475   2.139   8.325   8.445 -0.3663 -0.7346 -0.4747
61873SOL     OW92476   0.076   9.329   7.128 -0.3930  0.4511 -0.4790
61873SOL    HW192477   0.122   9.299   7.049 -1.3566  0.1600 -0.9524
61873SOL    HW292478  -0.001   9.273   7.133 -1.6348  2.0612 -0.7175
61874SOL     OW92479   2.558   5.774   6.048  0.4569  0.9436  0.3399
61874SOL    HW192480   2.596   5.743   5.966 -0.0101 -0.4143  0.6125
61874SOL    HW292481   2.481   5.825   6.020 -1.3424 -1.7980 -0.0576
61875SOL     OW92482   5.732  11.136   3.225  0.0457  0.0937 -0.5378
61875SOL    HW192483   5.788  11.210   3.201  0.0291 -0.2576 -1.7322
61875SOL    HW292484   5.772  11.100   3.305 -0.5140  1.9601  0.6406
61876SOL     OW92485   6.444  10.355   8.344  0.0308 -0.7401  0.2726
61876SOL    HW192486   6.391  10.423   8.386 -0.4387 -1.0983  0.2740
61876SOL    HW292487   6.406  10.272   8.376  1.3462 -1.0106  1.2132
61877SOL     OW92488   7.868  11.278  11.400 -0.9903 -0.3032 -0.0294
61877SOL    HW192489   7.881  11.334  11.476  0.9944  0.0691 -0.5901
61877SOL    HW292490   7.834  11.196  11.436 -3.1928  0.9195  0.8762
61878SOL     OW92491   0.420   9.761   0.512  0.0658  0.1939  0.0529
61878SOL    HW192492   0.397   9.815   0.588  0.2935  0.6440 -0.1980
61878SOL    HW292493   0.375   9.678   0.528  1.9133 -0.5564  1.8259
61879SOL     OW92494   3.606   5.090   4.162  0.3167  0.3608  0.2717
61879SOL    HW192495   3.650   5.165   4.122  0.2060  0.5663  0.5346
61879SOL    HW292496   3.551   5.127   4.230 -0.9414  0.1887 -0.6212
61880SOL     OW92497   5.002   3.501   8.557 -0.7160  0.2247 -0.6415
61880SOL    HW192498   4.941   3.486   8.629 -2.1209  0.9831 -1.6370
61880SOL    HW292499   5.014   3.596   8.555  0.2786  0.1144 -0.6686
61881SOL     OW92500   4.742   6.201  11.172 -0.2242  0.1192 -0.0760
61881SOL    HW192501   4.752   6.277  11.113 -1.7223 -0.6440 -1.3806
61881SOL    HW292502   4.717   6.239  11.256 -1.7427  1.0595 -0.9130
61882SOL     OW92503   2.895   1.452  11.399  0.3488  0.5247 -1.0027
61882SOL    HW192504   2.894   1.530  11.345 -1.4302  2.4695  1.5929
61882SOL    HW292505   2.816   1.458  11.452  0.6846 -2.5333  0.0651
61883SOL     OW92506   5.860   1.766   2.830  0.2420  0.3279 -0.4714
61883SOL    HW192507   5.878   1.706   2.758  0.3347 -1.8822  1.2699
61883SOL    HW292508   5.938   1.822   2.835 -0.6814  2.1131 -3.4029
61884SOL     OW92509  12.106   5.822   2.393 -0.1294  0.5086  0.6305
61884SOL    HW192510  12.060   5.740   2.413 -0.3587  0.7463  1.0838
61884SOL    HW292511  12.180   5.823   2.453  1.6582 -0.8310 -1.4012
61885SOL     OW92512  10.021   8.658  11.007 -0.5203  0.1643 -0.0566
61885SOL    HW192513   9.960   8.662  10.933 -0.3631 -2.7424 -0.4484
61885SOL    HW292514  10.108   8.662  10.968 -0.4400  0.2505  0.1275
61886SOL     OW92515   7.375   6.722   2.024 -0.3097  0.0365  0.9376
61886SOL    HW192516   7.423   6.653   1.977  0.9142  0.8902  0.8794
61886SOL    HW292517   7.440   6.791   2.039 -1.5383  1.2708  0.8401
61887SOL     OW92518  12.452   7.104   2.346 -0.4574  0.0261 -0.3865
61887SOL    HW192519  12.450   7.168   2.418 -0.1622 -0.9696  0.5311
61887SOL    HW292520  12.473   7.157   2.269 -1.3633  1.2100  0.1341
61888SOL     OW92521   4.727   9.744   6.362 -0.7912 -0.6714 -0.4442
61888SOL    HW192522   4.776   9.796   6.299 -1.3921 -1.3521 -1.5280
61888SOL    HW292523   4.750   9.653   6.341 -1.5945 -0.9428 -0.2006
61889SOL     OW92524   5.621   5.555   8.190 -0.2666 -0.0697  0.0893
61889SOL    HW192525   5.552   5.618   8.209 -1.5679 -1.2031 -0.6849
61889SOL    HW292526   5.646   5.573   8.099  0.1003  0.0118  0.2058
61890SOL     OW92527   6.373   1.448   6.232 -0.4639 -0.0598  0.2529
61890SOL    HW192528   6.397   1.538   6.252 -0.5834 -0.0384  0.3005
61890SOL    HW292529   6.278   1.444   6.245 -1.0588  0.6783 -3.1000
61891SOL     OW92530   5.756   3.995   4.983 -0.0582  0.0768  0.6964
61891SOL    HW192531   5.691   3.931   5.010 -0.2779 -0.2890 -0.6078
61891SOL    HW292532   5.808   4.012   5.061 -0.6560 -0.8985  1.3220
61892SOL     OW92533   7.309   6.906  11.888 -0.5598  0.7000 -0.0416
61892SOL    HW192534   7.218   6.927  11.911 -0.5624 -0.8389  1.5383
61892SOL    HW292535   7.310   6.811  11.878  0.8333  0.7277 -0.2873
61893SOL     OW92536   4.861   1.493   5.150 -0.4458 -0.5724  0.2824
61893SOL    HW192537   4.841   1.416   5.097 -2.6863 -0.6151  1.0755
61893SOL    HW292538   4.854   1.566   5.089 -0.4681 -0.8165 -0.0132
61894SOL     OW92539  10.492   5.123   1.128 -0.3762  0.0034 -0.0735
61894SOL    HW192540  10.559   5.162   1.184 -0.6212  1.1755 -0.5822
61894SOL    HW292541  10.538   5.102   1.047 -0.1994 -0.9843  0.2683
61895SOL     OW92542  10.853   5.982   9.020  0.0805  0.5702 -0.1372
61895SOL    HW192543  10.913   5.918   9.058  0.5399  1.2130  0.2226
61895SOL    HW292544  10.782   5.928   8.984  0.4642 -0.1452  0.1419
61896SOL     OW92545   4.683   4.461  10.406 -0.1810 -0.0056  0.0693
61896SOL    HW192546   4.751   4.520  10.374 -0.8682  0.1828 -1.0940
61896SOL    HW292547   4.612   4.469  10.342  0.1873 -3.0607 -0.8434
61897SOL     OW92548  11.035   1.685   3.989  0.3926 -0.2965  0.5291
61897SOL    HW192549  11.068   1.614   3.934 -0.3279 -0.7268  0.6376
61897SOL    HW292550  11.114   1.726   4.025  0.8528 -0.2752 -0.4749
61898SOL     OW92551   8.322   1.478   0.201 -0.2305  0.1472  0.0454
61898SOL    HW192552   8.401   1.528   0.184 -1.9381  4.1965  2.5270
61898SOL    HW292553   8.331   1.448   0.292 -0.8052 -0.9972 -0.2470
61899SOL     OW92554   4.422   6.265   6.051  0.7089  0.6086  0.1582
61899SOL    HW192555   4.476   6.192   6.082 -0.4429 -0.3961 -0.1511
61899SOL    HW292556   4.380   6.298   6.130  0.9079  0.6735  0.2382
61900SOL     OW92557   6.365   7.290   9.765 -0.0647  0.0142 -0.6029
61900SOL    HW192558   6.346   7.203   9.730 -1.9508 -0.0223  0.3613
61900SOL    HW292559   6.414   7.333   9.696  0.9157 -1.7967 -1.1026
61901SOL     OW92560  12.491   3.385   0.567 -0.3050 -0.2454  0.0050
61901SOL    HW192561  12.489   3.444   0.491 -1.0605 -0.8708 -0.4838
61901SOL    HW292562  12.472   3.442   0.641 -2.3387 -0.0301 -0.6083
61902SOL     OW92563   4.580   4.861   3.027  0.4741  0.3859 -0.1479
61902SOL    HW192564   4.644   4.926   2.999 -0.2993  0.7599 -1.0911
61902SOL    HW292565   4.632   4.792   3.068  1.4309  0.9306 -0.4275
61903SOL     OW92566   8.441   4.702   3.330  0.2753 -0.2468 -0.2250
61903SOL    HW192567   8.371   4.643   3.359  0.6192 -0.2764  0.5870
61903SOL    HW292568   8.422   4.718   3.238  0.3992 -1.9700 -0.5892
61904SOL     OW92569   7.956   0.339  12.145  0.4956 -0.5313  0.2172
61904SOL    HW192570   7.895   0.400  12.186  0.0949 -0.3919 -0.5663
61904SOL    HW292571   8.002   0.298  12.218 -0.2793 -0.3739  0.8013
61905SOL     OW92572   2.713   0.972   5.000 -0.6985  0.1252  0.4663
61905SOL    HW192573   2.693   0.932   5.085 -0.6194 -0.4366  0.2286
61905SOL    HW292574   2.691   0.904   4.936  3.0316 -1.0574  0.2026
61906SOL     OW92575   8.753   9.952   2.900 -0.5127 -0.9211 -0.2193
61906SOL    HW192576   8.800  10.021   2.854 -0.1945 -1.5080 -0.7877
61906SOL    HW292577   8.668   9.992   2.921 -0.1384 -0.1840 -0.0628
61907SOL     OW92578   4.503   5.764   3.395  0.0313  0.0897  0.3110
61907SOL    HW192579   4.584   5.756   3.447  1.9546  1.5286 -2.2241
61907SOL    HW292580   4.450   5.828   3.444  0.9904  0.1189  1.3771
61908SOL     OW92581  11.326   1.092   0.424 -0.7306  0.3939 -0.9483
61908SOL    HW192582  11.241   1.130   0.444 -0.5396 -0.3657  1.6650
61908SOL    HW292583  11.389   1.152   0.463  0.0181  0.9827 -2.9123
61909SOL     OW92584   6.903   5.728   6.315  0.5246  0.2667 -0.9560
61909SOL    HW192585   6.841   5.732   6.388  1.4125  2.3958 -0.2367
61909SOL    HW292586   6.848   5.709   6.239 -0.7229  0.0716 -0.0462
61910SOL     OW92587   4.149  11.000   6.776 -0.3449  0.0600  0.3732
61910SOL    HW192588   4.075  11.053   6.748  0.7736  1.7629  0.5007
61910SOL    HW292589   4.180  10.957   6.696  0.4647  1.8603 -0.3164
61911SOL     OW92590  11.076   4.721   6.519  0.0816 -0.1298 -0.2090
61911SOL    HW192591  11.165   4.738   6.487 -0.2514 -0.4692 -1.3764
61911SOL    HW292592  11.078   4.747   6.611  1.8020 -1.5820  0.2119
61912SOL     OW92593   3.032  10.809   9.504  0.3055  0.8676  0.1949
61912SOL    HW192594   3.038  10.743   9.435  0.2216  1.6582 -0.5877
61912SOL    HW292595   3.027  10.758   9.585  0.9899 -0.0756 -0.3256
61913SOL     OW92596   5.187   8.226   2.015  0.0168 -0.3462 -0.2674
61913SOL    HW192597   5.144   8.299   1.970 -0.2659  0.8365  1.8135
61913SOL    HW292598   5.121   8.157   2.018 -1.2523  0.8804  1.4766
61914SOL     OW92599   9.261   8.091   9.884  0.0654 -0.0539 -0.3617
61914SOL    HW192600   9.208   8.013   9.900 -1.1534  0.6912 -0.6430
61914SOL    HW292601   9.329   8.088   9.950 -0.0341 -1.2952 -0.2983
61915SOL     OW92602   5.687   2.946   1.722  0.6286 -0.0524 -0.2085
61915SOL    HW192603   5.716   3.031   1.753  1.3097 -0.2123 -0.4072
61915SOL    HW292604   5.763   2.889   1.731 -0.2120 -1.0115  1.2965
61916SOL     OW92605   9.389   8.300   5.083 -0.1207  0.0583 -0.1623
61916SOL    HW192606   9.435   8.363   5.027  0.0250  1.2008  1.1822
61916SOL    HW292607   9.313   8.272   5.031 -0.6726  2.0136 -0.4802
61917SOL     OW92608   7.347  11.264   9.674 -0.0101 -0.7319  0.3746
61917SOL    HW192609   7.366  11.320   9.749  0.1338  0.5376 -0.5823
61917SOL    HW292610   7.433  11.242   9.638 -0.1308  0.2660 -0.5505
61918SOL     OW92611   4.495   8.957   4.816 -0.1160  0.5181  0.1811
61918SOL    HW192612   4.429   9.009   4.769 -2.0810 -0.0726  2.1374
61918SOL    HW292613   4.557   9.022   4.849 -0.4622  1.2328 -0.5304
61919SOL     OW92614   9.652   1.562  11.307  0.4566  0.5520 -0.0572
61919SOL    HW192615   9.746   1.549  11.315  0.3210 -0.2105  0.4445
61919SOL    HW292616   9.642   1.656  11.292  1.3228  0.5581 -0.6966
61920SOL     OW92617   4.726   1.306   9.126  0.1970  0.0469  0.2211
61920SOL    HW192618   4.763   1.291   9.213 -0.1518  1.6995  0.6837
61920SOL    HW292619   4.631   1.301   9.139  0.1579 -0.3593 -0.1998
61921SOL     OW92620   8.626   2.361   1.402  0.2684 -0.4614  0.2555
61921SOL    HW192621   8.719   2.385   1.391 -0.1770  0.7439 -1.1960
61921SOL    HW292622   8.579   2.442   1.384 -1.0510 -0.8264  1.9121
61922SOL     OW92623   7.857   3.469   8.208 -0.5254 -0.1255 -0.5725
61922SOL    HW192624   7.840   3.497   8.118 -0.5964  0.1293 -0.4798
61922SOL    HW292625   7.884   3.378   8.200  5.0874  1.2559 -1.4703
61923SOL     OW92626   1.892   6.493   3.917  0.8246 -0.1920 -0.1933
61923SOL    HW192627   1.865   6.582   3.894  1.5001  0.3427  0.9868
61923SOL    HW292628   1.936   6.460   3.839 -0.0634  0.2300 -0.8903
61924SOL     OW92629   6.556   8.323   8.387 -0.1201 -0.2553 -0.5031
61924SOL    HW192630   6.481   8.323   8.446 -0.3460 -3.1460 -0.6485
61924SOL    HW292631   6.557   8.412   8.350 -1.4875  0.8518  1.8816
61925SOL     OW92632  11.275   1.557   9.493  0.1390  0.1023 -0.0262
61925SOL    HW192633  11.180   1.556   9.483  0.0160  0.3789  0.9771
61925SOL    HW292634  11.289   1.565   9.588  1.1121  4.2860 -0.3207
61926SOL     OW92635  10.230   8.980   0.274 -0.4896  0.5782  0.3674
61926SOL    HW192636  10.243   8.886   0.259 -0.5449  0.5671  0.3883
61926SOL    HW292637  10.296   9.022   0.220 -0.5106  0.5288  0.3033
61927SOL     OW92638   0.015  12.526   1.356  0.0298 -0.2848  0.2758
61927SOL    HW192639  -0.024  12.575   1.428 -1.5889 -1.6105  0.3766
61927SOL    HW292640   0.090  12.481   1.395 -1.0835 -1.3363  1.2987
61928SOL     OW92641  11.066   5.254   2.232 -0.6262 -0.0723  1.4509
61928SOL    HW192642  11.114   5.188   2.282  0.5014 -0.0130  0.4853
61928SOL    HW292643  11.095   5.338   2.269  2.4023  0.1542 -0.9577
61929SOL     OW92644   4.082   0.507   4.958 -0.1079  0.1021  0.0322
61929SOL    HW192645   4.061   0.445   4.888  0.0581 -1.2776  1.1346
61929SOL    HW292646   4.170   0.482   4.985 -0.4751  0.0607  1.2509
61930SOL     OW92647   6.287   4.571   7.000  0.0835 -0.5921 -0.4368
61930SOL    HW192648   6.230   4.498   7.027  0.4454 -1.1358 -1.1033
61930SOL    HW292649   6.227   4.637   6.965 -0.1118 -1.6537 -2.2713
61931SOL     OW92650   6.851   8.724   7.228 -0.1797  0.5392  0.2543
61931SOL    HW192651   6.909   8.735   7.304 -2.4020 -0.2876  2.1764
61931SOL    HW292652   6.878   8.640   7.190  0.2858  0.4450  0.7750
61932SOL     OW92653  10.244   7.798   1.199 -0.0297  0.3379 -0.4609
61932SOL    HW192654  10.254   7.843   1.115 -3.1099  1.5570 -0.2991
61932SOL    HW292655  10.318   7.828   1.251  0.3362  1.8534 -1.7875
61933SOL     OW92656  10.016   1.777   4.107  0.6240  1.0362 -0.1159
61933SOL    HW192657   9.985   1.687   4.102  0.4126  1.1081 -0.1176
61933SOL    HW292658   9.995   1.815   4.022  1.6832  0.7821 -0.5029
61934SOL     OW92659   0.881   8.144  10.815 -0.0892 -0.6625 -0.4198
61934SOL    HW192660   0.796   8.130  10.858 -0.6873  0.1841 -1.2687
61934SOL    HW292661   0.880   8.238  10.793  1.3391 -0.5039  0.1149
61935SOL     OW92662   3.886   6.374  11.861  0.3617 -0.0409 -0.1294
61935SOL    HW192663   3.843   6.439  11.916  0.1642 -0.4444  0.2051
61935SOL    HW292664   3.817   6.342  11.802  0.2800 -0.4491  0.1827
61936SOL     OW92665   9.977   3.102  10.552  0.0981 -0.2854 -0.6507
61936SOL    HW192666   9.888   3.098  10.587  0.8596 -0.2040  1.4569
61936SOL    HW292667   9.995   3.012  10.523 -0.4485 -0.4574 -0.4799
61937SOL     OW92668   6.991   0.762   5.254  0.2570  0.1432 -0.0052
61937SOL    HW192669   7.010   0.853   5.275  0.0174  0.4696 -1.1746
61937SOL    HW292670   7.016   0.752   5.162 -0.7716 -0.6708 -0.2180
61938SOL     OW92671   3.296  10.722   0.982 -0.1581 -0.9033  0.6960
61938SOL    HW192672   3.260  10.658   1.044 -1.3116 -1.8218 -0.8498
61938SOL    HW292673   3.250  10.704   0.900 -2.0321  3.2280  0.6208
61939SOL     OW92674   9.458   0.985  10.213  0.3389 -0.1028 -0.2004
61939SOL    HW192675   9.391   1.028  10.266  0.5452 -1.7667  1.5366
61939SOL    HW292676   9.527   1.050  10.204  0.6139  0.0669  2.2791
61940SOL     OW92677  11.327   3.026   6.211 -0.2168 -0.0071  0.1215
61940SOL    HW192678  11.243   3.000   6.174 -0.7867  0.0530  1.3216
61940SOL    HW292679  11.361   2.947   6.253  1.1951 -0.5174 -1.8412
61941SOL     OW92680   7.959   1.141   9.351  0.3146 -0.7622 -0.0793
61941SOL    HW192681   8.050   1.164   9.372 -0.4241  1.6139  0.7416
61941SOL    HW292682   7.961   1.046   9.343  2.5502 -0.9545  1.5734
61942SOL     OW92683   6.059   3.525  11.453  0.1762 -0.1615 -0.4792
61942SOL    HW192684   6.130   3.517  11.517  0.6775 -0.6700 -1.0996
61942SOL    HW292685   6.095   3.576  11.382 -0.3196  0.2147 -0.4718
61943SOL     OW92686  11.823   3.434   7.225  0.5596  0.0929  0.1844
61943SOL    HW192687  11.914   3.423   7.252  0.8113  1.5345  0.0491
61943SOL    HW292688  11.786   3.494   7.290  0.3072  1.1274 -0.8734
61944SOL     OW92689   3.531   4.412   9.678  0.4076 -0.3963  0.0645
61944SOL    HW192690   3.551   4.477   9.745  0.6552  1.7986 -2.0161
61944SOL    HW292691   3.599   4.346   9.688  1.2458  0.5695  1.0752
61945SOL     OW92692   6.892   2.983   3.269  0.7166  0.0986 -0.2732
61945SOL    HW192693   6.965   2.927   3.246 -0.3826 -1.0508 -1.1347
61945SOL    HW292694   6.872   2.963   3.360  4.1533  3.5855  1.5123
61946SOL     OW92695   1.940   0.605  12.527  0.4600 -0.3071 -0.2890
61946SOL    HW192696   2.021   0.566  12.494  0.8640  1.0760 -0.9764
61946SOL    HW292697   1.886   0.617  12.450  0.7849  1.4810 -0.2777
61947SOL     OW92698   5.182   3.091  12.307 -0.1402  0.1298 -0.3176
61947SOL    HW192699   5.193   3.018  12.246  2.8068 -0.0867  0.3344
61947SOL    HW292700   5.174   3.050  12.393 -0.5885  0.5319 -0.1652
61948SOL     OW92701   4.297   3.928  11.578  0.0464 -0.5641 -0.0990
61948SOL    HW192702   4.364   3.907  11.513  0.6863  0.0532  0.3337
61948SOL    HW292703   4.266   4.015  11.554  1.1136  0.1778  1.0403
61949SOL     OW92704   6.305   3.479   9.468  0.3461 -0.4499 -0.1591
61949SOL    HW192705   6.349   3.498   9.551  0.7417  1.7305 -0.8041
61949SOL    HW292706   6.253   3.558   9.450  0.2796 -0.8730 -1.9903
61950SOL     OW92707   3.998   4.445   6.518 -0.1521  0.0696  0.0663
61950SOL    HW192708   3.994   4.379   6.587  1.7985 -0.0114  0.1594
61950SOL    HW292709   3.996   4.394   6.437  0.1672 -0.0323  0.1196
61951SOL     OW92710   7.820  10.117   5.107 -0.2098 -0.1309  0.2836
61951SOL    HW192711   7.855  10.149   5.190  1.9874  0.1891 -0.6811
61951SOL    HW292712   7.770  10.039   5.131  0.1960  0.0745  1.9303
61952SOL     OW92713   4.139   1.838   1.302  0.1457  0.4296 -0.3579
61952SOL    HW192714   4.129   1.751   1.341  1.2243  1.4283  2.4264
61952SOL    HW292715   4.049   1.869   1.289 -0.3045  0.0946  1.6463
61953SOL     OW92716   7.939   7.689  12.022  0.0745  0.5997 -0.0410
61953SOL    HW192717   7.908   7.639  11.947  0.1825  0.6423 -0.1132
61953SOL    HW292718   7.957   7.776  11.987 -1.4745  1.1161  0.3523
61954SOL     OW92719   6.625   4.294  11.463  0.4297 -0.0992 -0.0513
61954SOL    HW192720   6.608   4.224  11.526  1.4196 -1.9918 -1.7639
61954SOL    HW292721   6.539   4.316  11.428 -0.0564  0.5627  1.4757
61955SOL     OW92722   2.718   3.226   8.707 -0.5653 -0.0038 -0.5282
61955SOL    HW192723   2.730   3.140   8.666 -2.7565 -0.1267 -1.0322
61955SOL    HW292724   2.683   3.206   8.794  0.4635  0.3541 -0.0231
61956SOL     OW92725   5.881   5.541   1.411  0.3949 -0.6788  0.2653
61956SOL    HW192726   5.825   5.475   1.452 -0.8796  1.1513  1.6207
61956SOL    HW292727   5.937   5.573   1.481  0.5008  0.1758 -0.1878
61957SOL     OW92728   3.627   9.126   7.599  0.0823 -0.6100  0.4131
61957SOL    HW192729   3.537   9.136   7.567  0.4686 -1.7654 -1.1133
61957SOL    HW292730   3.678   9.101   7.522  1.5224 -1.0436  1.4637
61958SOL     OW92731   2.318  11.912  12.257 -0.1223 -0.2318 -0.4324
61958SOL    HW192732   2.287  11.910  12.348  0.1945  1.1597 -0.2797
61958SOL    HW292733   2.343  12.003  12.242  0.1621 -0.5209 -1.8127
61959SOL     OW92734  10.013   2.913   9.232 -0.3868 -0.2572 -0.2567
61959SOL    HW192735   9.946   2.963   9.277 -0.4066 -0.4216 -0.1034
61959SOL    HW292736  10.044   2.849   9.296  0.5687  0.4174 -0.0327
61960SOL     OW92737   7.914  12.275   8.342  0.2906 -0.1116  0.4680
61960SOL    HW192738   7.898  12.185   8.315 -4.9826  0.6283  0.1340
61960SOL    HW292739   7.920  12.324   8.260 -1.5481  0.3192  0.5425
61961SOL     OW92740   5.554  11.944   1.120 -0.2410  0.4186 -0.3771
61961SOL    HW192741   5.470  11.897   1.126  0.7293 -1.3903 -0.1182
61961SOL    HW292742   5.557  11.998   1.198 -0.6070 -0.5398  0.3214
61962SOL     OW92743   5.809   0.523   5.110 -0.1360  0.3753  0.5344
61962SOL    HW192744   5.862   0.454   5.069  1.2965  1.4323  0.5175
61962SOL    HW292745   5.720   0.488   5.111  0.2194 -0.6939 -1.1977
61963SOL     OW92746   2.137  11.490   3.463 -0.5302  0.0297  0.8307
61963SOL    HW192747   2.226  11.514   3.441 -1.3890  1.1950 -1.7731
61963SOL    HW292748   2.107  11.436   3.390 -2.8306  2.0411  0.1465
61964SOL     OW92749   3.667  12.387   3.157 -0.2280 -0.2284  0.4744
61964SOL    HW192750   3.625  12.430   3.232  0.1517  0.0055  0.5516
61964SOL    HW292751   3.636  12.436   3.081  2.4559  2.1139  0.7240
61965SOL     OW92752   5.931  10.870   4.600 -0.3545 -1.0075 -0.2363
61965SOL    HW192753   6.009  10.816   4.586 -0.2353 -0.3722 -2.6155
61965SOL    HW292754   5.870  10.840   4.533 -1.2170  0.1374  0.0157
61966SOL     OW92755   2.250   6.658   1.267  0.1088  0.6858  0.0847
61966SOL    HW192756   2.255   6.617   1.181 -0.8108 -0.4594  0.5462
61966SOL    HW292757   2.169   6.709   1.265 -0.1078  0.3647  0.3715
61967SOL     OW92758   5.302   6.594   8.044  0.2758  0.3112  0.2787
61967SOL    HW192759   5.338   6.667   7.992 -0.3526  0.0247 -0.5706
61967SOL    HW292760   5.292   6.523   7.981  0.8896 -0.5314  1.1069
61968SOL     OW92761   2.862   6.693   7.459 -0.8651 -0.1761 -0.5634
61968SOL    HW192762   2.925   6.736   7.516 -1.3925  0.6451 -0.5871
61968SOL    HW292763   2.805   6.644   7.518 -0.2105 -0.9317 -0.5434
61969SOL     OW92764   5.639   0.715   8.153 -0.0183  0.3104 -0.2514
61969SOL    HW192765   5.702   0.707   8.224 -1.3807 -0.4564  0.9217
61969SOL    HW292766   5.654   0.637   8.099  1.4794  1.2420 -1.2288
61970SOL     OW92767  11.661   1.807  10.076  0.6411 -0.1107  0.4824
61970SOL    HW192768  11.750   1.828  10.049  0.6208 -0.3821  0.1971
61970SOL    HW292769  11.644   1.864  10.151  0.5890  0.8745 -0.2594
61971SOL     OW92770   9.248   3.758   6.080  0.1661  0.0236  0.0037
61971SOL    HW192771   9.164   3.725   6.050  0.8359 -0.5933 -1.2790
61971SOL    HW292772   9.226   3.819   6.150 -1.3858  0.3712 -0.7408
61972SOL     OW92773   8.687  10.040   4.280  0.4158  0.0859 -0.8155
61972SOL    HW192774   8.606  10.006   4.241 -2.3736  4.1947  0.7618
61972SOL    HW292775   8.755  10.016   4.217 -2.2980 -1.7383 -3.3464
61973SOL     OW92776   0.609   8.305   6.897  0.2402 -0.1280  0.3190
61973SOL    HW192777   0.580   8.296   6.988  0.9339  2.4770  0.8997
61973SOL    HW292778   0.661   8.227   6.880  0.5829 -0.4012  2.3653
61974SOL     OW92779   5.800  11.686  12.209  0.0155  0.4583  0.3104
61974SOL    HW192780   5.759  11.697  12.124 -0.2044 -1.3524  0.1499
61974SOL    HW292781   5.744  11.736  12.269  0.0960  1.6260 -0.5449
61975SOL     OW92782   5.986   8.129   1.375 -0.9541 -0.1036 -0.2713
61975SOL    HW192783   6.024   8.077   1.304 -0.5944 -1.6792  1.0028
61975SOL    HW292784   5.997   8.220   1.348 -0.4356 -0.6587 -2.0181
61976SOL     OW92785   9.547   5.346  12.263  0.0475 -0.4230  0.2702
61976SOL    HW192786   9.628   5.364  12.311  0.4722 -2.5834  0.4860
61976SOL    HW292787   9.519   5.431  12.230  1.0623  0.7733  2.2666
61977SOL     OW92788  11.657  11.958   2.829 -0.0169 -0.3412 -0.0310
61977SOL    HW192789  11.591  11.896   2.861 -0.3354  0.6895  1.4127
61977SOL    HW292790  11.682  11.924   2.743 -1.4956 -1.4581 -0.0638
61978SOL     OW92791   7.785  10.628   6.081  0.0957  0.3310  0.2848
61978SOL    HW192792   7.731  10.574   6.140 -0.7647  0.2526 -0.5603
61978SOL    HW292793   7.835  10.564   6.030 -1.2008  0.2852 -0.9796
61979SOL     OW92794   0.512  10.117   2.635 -0.4530  0.7788 -0.0151
61979SOL    HW192795   0.561  10.195   2.609  0.3079  0.7934  1.4190
61979SOL    HW292796   0.454  10.147   2.704  0.2930 -0.0401  0.9877
61980SOL     OW92797   7.552  10.735   7.900 -0.1643 -0.2989 -0.4364
61980SOL    HW192798   7.496  10.746   7.977 -0.3290  2.1029 -0.8099
61980SOL    HW292799   7.563  10.641   7.891 -2.4183 -0.7626  0.8943
61981SOL     OW92800   4.987   9.077   1.903  0.3558  0.0738  0.5362
61981SOL    HW192801   4.950   9.110   1.985  1.3293  0.0902  0.9913
61981SOL    HW292802   4.962   8.985   1.900  0.7815 -0.0691  1.1417
61982SOL     OW92803   1.784   3.223   5.325  0.3683  0.0203 -0.3204
61982SOL    HW192804   1.707   3.269   5.291 -0.6201 -1.6596 -0.4557
61982SOL    HW292805   1.809   3.273   5.403 -1.0302  0.4513 -0.1182
61983SOL     OW92806   6.080  10.010   4.204  0.3006 -0.3511  0.4250
61983SOL    HW192807   6.165   9.971   4.182  0.4564  0.1812  0.0526
61983SOL    HW292808   6.019   9.972   4.141  0.3356 -0.4421  0.4452
61984SOL     OW92809   4.458   1.622   2.931 -0.1574 -0.6246  0.1078
61984SOL    HW192810   4.396   1.677   2.883 -0.7478  0.2037  1.7771
61984SOL    HW292811   4.498   1.568   2.863  0.0682  1.4726 -1.5396
61985SOL     OW92812   0.825   4.140   1.669  0.1218 -0.0793 -0.1751
61985SOL    HW192813   0.875   4.090   1.605  1.7470  0.3844  0.6835
61985SOL    HW292814   0.758   4.079   1.700 -0.3599 -0.4871 -1.8683
61986SOL     OW92815   0.318   3.602   7.879  0.3330  0.0852  0.0845
61986SOL    HW192816   0.320   3.605   7.974  1.1731 -5.3307  0.5488
61986SOL    HW292817   0.225   3.606   7.857  0.0213 -0.3312  1.2729
61987SOL     OW92818   7.691   2.325   8.182  0.0172 -0.7579 -0.0067
61987SOL    HW192819   7.753   2.259   8.150 -1.0555 -0.2649 -3.6086
61987SOL    HW292820   7.618   2.274   8.217 -0.6902 -1.6250 -2.5077
61988SOL     OW92821   7.086   8.283  11.719  0.0773 -0.0463  0.2341
61988SOL    HW192822   7.167   8.327  11.694 -0.7491  1.3452 -0.1674
61988SOL    HW292823   7.112   8.195  11.744  1.6553  0.2642 -0.2233
61989SOL     OW92824   8.575   0.893   7.776 -0.0461 -0.3506  0.1781
61989SOL    HW192825   8.535   0.869   7.693 -0.5256 -0.5321  0.4567
61989SOL    HW292826   8.651   0.945   7.752 -0.2007 -0.3719 -0.3713
61990SOL     OW92827   5.067   1.455  11.769 -0.2553 -0.4978  0.4942
61990SOL    HW192828   5.015   1.428  11.693  0.4490 -1.0781  0.1959
61990SOL    HW292829   5.014   1.431  11.845 -0.6294 -0.6235  0.1965
61991SOL     OW92830   2.154   5.920   2.703  0.5442 -0.3155 -0.2614
61991SOL    HW192831   2.115   6.007   2.703 -0.4009 -0.6902 -2.1958
61991SOL    HW292832   2.247   5.935   2.724  0.6884  1.3204 -1.8433
61992SOL     OW92833   1.574   5.591  10.724  0.2104 -0.1221 -0.1010
61992SOL    HW192834   1.503   5.641  10.763  1.1428  2.2264 -1.2650
61992SOL    HW292835   1.654   5.633  10.756  1.0641 -1.3562 -0.5176
61993SOL     OW92836   2.161   5.804   5.224 -0.1514  0.3867  0.3647
61993SOL    HW192837   2.246   5.811   5.181 -0.3749  0.7330 -0.0326
61993SOL    HW292838   2.160   5.716   5.261  0.4917  0.4809  0.6129
61994SOL     OW92839   3.453   9.421  11.659  0.0030  0.4886 -0.1179
61994SOL    HW192840   3.529   9.476  11.681 -0.6201  1.9354 -1.3391
61994SOL    HW292841   3.486   9.362  11.591  0.0791  1.0284 -0.5583
61995SOL     OW92842   3.483  10.432  11.442  0.4310 -0.0339 -0.1462
61995SOL    HW192843   3.461  10.524  11.428 -0.0289 -0.2453 -0.9041
61995SOL    HW292844   3.495  10.423  11.536 -0.6847  0.5534  0.0635
61996SOL     OW92845   9.888   5.490   2.456  0.2458 -0.1133  0.0672
61996SOL    HW192846   9.938   5.571   2.443  0.3426 -0.3287 -0.9985
61996SOL    HW292847   9.907   5.464   2.546  0.6556  0.7549  0.2404
61997SOL     OW92848  10.271   2.095   3.895  0.8094  0.4045 -0.1459
61997SOL    HW192849  10.268   2.181   3.935  1.0777  1.0560 -1.4817
61997SOL    HW292850  10.263   2.034   3.968 -0.3429  1.5602  0.7176
61998SOL     OW92851  12.000  12.267  11.589 -0.4961 -0.5663  0.5525
61998SOL    HW192852  12.064  12.324  11.633  1.9526 -0.9625 -2.1701
61998SOL    HW292853  11.925  12.323  11.572  0.7053  1.0835  0.4247
61999SOL     OW92854  10.004   2.651   4.501 -0.4362  0.2045 -0.3058
61999SOL    HW192855   9.933   2.592   4.525 -0.0100 -1.4314 -2.6561
61999SOL    HW292856  10.072   2.635   4.567 -1.7401  0.9052  1.2622
62000SOL     OW92857  12.198  10.612   9.319 -0.6706  0.4468  0.4211
62000SOL    HW192858  12.147  10.533   9.338  0.4229 -0.4649 -0.2963
62000SOL    HW292859  12.181  10.629   9.226  0.5940 -0.1115  0.0572
62001SOL     OW92860   4.766   2.277   4.633 -0.2212  0.2970 -0.5111
62001SOL    HW192861   4.848   2.280   4.583 -0.4715  0.7838 -0.9103
62001SOL    HW292862   4.716   2.205   4.593  0.8483 -1.4095  1.1013
62002SOL     OW92863   2.220   4.559  11.166  0.0522  0.2497 -0.0227
62002SOL    HW192864   2.209   4.561  11.071  1.4976  1.9140 -0.1967
62002SOL    HW292865   2.133   4.578  11.200 -0.4641 -0.2562 -1.0077
62003SOL     OW92866  11.210   3.216   3.475  0.0180  0.4526 -0.0633
62003SOL    HW192867  11.214   3.310   3.455  0.5085  0.6181  0.7750
62003SOL    HW292868  11.284   3.201   3.533  0.9407 -0.7917 -1.4970
62004SOL     OW92869   0.161   6.653  12.503  0.5403  0.3848  0.1053
62004SOL    HW192870   0.237   6.595  12.493  0.4844  0.4301 -0.6001
62004SOL    HW292871   0.185   6.711  12.575  0.3558 -0.8899  1.2427
62005SOL     OW92872   4.178   3.214   6.769  0.0457  0.1755  0.3576
62005SOL    HW192873   4.265   3.194   6.734 -0.2592 -1.2893  0.3834
62005SOL    HW292874   4.195   3.264   6.849  0.8535  0.1713  0.1923
62006SOL     OW92875   4.608  10.126   3.762  0.1125 -0.3339  0.0642
62006SOL    HW192876   4.552  10.203   3.774  2.0114  1.3867 -1.2862
62006SOL    HW292877   4.601  10.106   3.669  0.9044 -0.7490  0.0860
62007SOL     OW92878   0.761  11.887   1.229  0.1433  0.0818 -0.4924
62007SOL    HW192879   0.743  11.827   1.157  0.1137 -0.8227  0.2577
62007SOL    HW292880   0.796  11.966   1.186 -1.0662  0.0561 -1.5975
62008SOL     OW92881   2.085  12.154   8.459 -0.3203  0.0984 -0.4459
62008SOL    HW192882   2.041  12.068   8.465 -0.1102 -0.0908 -1.4651
62008SOL    HW292883   2.171  12.139   8.498 -0.2318 -0.1883 -0.7508
62009SOL     OW92884   0.293   6.318   5.163 -0.7100  0.3995 -0.0851
62009SOL    HW192885   0.382   6.312   5.128  0.3682  1.3230  2.2781
62009SOL    HW292886   0.270   6.411   5.156 -0.9454  0.3933  0.5237
62010SOL     OW92887   1.417  11.453  11.975 -0.1378  0.2367  0.3026
62010SOL    HW192888   1.499  11.503  11.968  0.2595 -0.2092  1.5660
62010SOL    HW292889   1.397  11.452  12.069 -1.2756 -0.1828  0.0753
62011SOL     OW92890   4.913   8.645   1.497 -0.0114 -0.2587  0.1215
62011SOL    HW192891   4.836   8.687   1.459 -0.5905 -0.9848  0.4610
62011SOL    HW292892   4.969   8.718   1.526 -1.8459  0.3554  2.4598
62012SOL     OW92893   1.433   6.246   4.094 -0.3408  0.0603 -0.1933
62012SOL    HW192894   1.528   6.258   4.094 -0.3955  0.5971  1.0371
62012SOL    HW292895   1.401   6.304   4.025  0.2456 -0.4500 -0.9183
62013SOL     OW92896   9.702   7.864   6.582  0.3648 -0.2569 -0.4853
62013SOL    HW192897   9.660   7.950   6.587 -0.5357 -0.7134  0.1279
62013SOL    HW292898   9.789   7.877   6.620  0.3065  0.4199 -0.5738
62014SOL     OW92899   5.468   4.627   1.828 -0.6382 -0.0466  0.8695
62014SOL    HW192900   5.527   4.683   1.879  0.2241 -0.8925  0.8190
62014SOL    HW292901   5.382   4.641   1.868 -0.3035  0.7258  1.3474
62015SOL     OW92902   3.594   1.811   4.356 -0.3000 -0.0070 -0.2327
62015SOL    HW192903   3.680   1.769   4.358 -0.3643 -0.1594 -0.5330
62015SOL    HW292904   3.541   1.760   4.417 -0.3715 -0.3573 -0.5787
62016SOL     OW92905   6.951   0.559   8.702 -0.3156  0.3184  0.4785
62016SOL    HW192906   6.931   0.652   8.695  0.8892  0.5873  0.4707
62016SOL    HW292907   7.024   0.555   8.764 -1.5766 -0.7907  1.9962
62017SOL     OW92908   4.481   9.760   0.197  0.0519 -0.6821 -0.2435
62017SOL    HW192909   4.404   9.815   0.214  0.6440  0.5237 -1.3077
62017SOL    HW292910   4.492   9.709   0.278 -1.8875 -0.9493 -0.0847
62018SOL     OW92911   1.247  10.552   3.319  0.0265  0.1264  0.0832
62018SOL    HW192912   1.338  10.528   3.338  0.5150  2.0498  0.3984
62018SOL    HW292913   1.237  10.638   3.359 -1.1339  1.1222 -2.2104
62019SOL     OW92914   1.360   0.037  11.304  0.0438  0.2607  0.3672
62019SOL    HW192915   1.335  -0.044  11.259  2.0001  0.5720 -1.4830
62019SOL    HW292916   1.345   0.020  11.396 -0.3226 -1.9467 -0.0481
62020SOL     OW92917   0.661   9.856   1.986  0.3024  0.4295 -0.1084
62020SOL    HW192918   0.670   9.815   1.899  0.1092  0.4346 -0.1309
62020SOL    HW292919   0.694   9.945   1.974 -0.4343  0.6738 -0.3656
62021SOL     OW92920   6.276   2.518   4.768  0.3892  0.8132  0.0630
62021SOL    HW192921   6.332   2.474   4.704 -0.9267  0.3050 -0.7823
62021SOL    HW292922   6.324   2.598   4.789  2.3867 -0.5108  0.9175
62022SOL     OW92923   7.810   0.185   1.939 -0.0611 -0.5994  0.6111
62022SOL    HW192924   7.732   0.143   1.902 -2.2041  2.6865  1.0028
62022SOL    HW292925   7.816   0.151   2.028 -2.4103  0.5915  1.3050
62023SOL     OW92926   8.841   8.333   9.977  0.2580 -0.0353 -0.3074
62023SOL    HW192927   8.869   8.302  10.063  1.3430 -2.1511 -1.3341
62023SOL    HW292928   8.878   8.270   9.915 -0.0880  1.6519 -2.3864
62024SOL     OW92929   3.429  10.435   5.141 -0.2143  0.3897  0.6193
62024SOL    HW192930   3.374  10.492   5.194 -0.4489  0.6901  0.0588
62024SOL    HW292931   3.369  10.369   5.107  0.5504 -2.3171  3.9847
62025SOL     OW92932   6.226  12.359   9.904 -0.1090  0.0158  0.0359
62025SOL    HW192933   6.260  12.413   9.832 -0.1804 -0.2551 -0.2031
62025SOL    HW292934   6.174  12.419   9.957 -1.8693 -0.2241 -1.3278
62026SOL     OW92935   7.663   3.851   1.620  0.8248 -0.0894  0.4640
62026SOL    HW192936   7.659   3.802   1.538  2.5534 -0.7091  0.7126
62026SOL    HW292937   7.673   3.785   1.688  1.0000  0.4987  1.0269
62027SOL     OW92938   6.463   1.614   6.948  0.8535  0.3170  0.0568
62027SOL    HW192939   6.451   1.673   7.022 -1.0075 -0.7712  0.7064
62027SOL    HW292940   6.557   1.614   6.932  1.6422 -0.9635  3.7541
62028SOL     OW92941   4.318   3.159   1.687  0.3898 -0.0570  0.0227
62028SOL    HW192942   4.282   3.111   1.761  2.5489  0.1378  1.3009
62028SOL    HW292943   4.311   3.251   1.712 -0.2194  0.1063 -0.7051
62029SOL     OW92944   0.880   0.570   3.341  0.6803  0.3254 -0.3626
62029SOL    HW192945   0.972   0.595   3.329  0.4732  0.7001 -1.2619
62029SOL    HW292946   0.853   0.534   3.257  0.0038  0.1981 -0.1011
62030SOL     OW92947   2.216  11.694   1.073  0.0840  0.1985 -0.5791
62030SOL    HW192948   2.164  11.632   1.125  1.7359 -0.2929  0.5510
62030SOL    HW292949   2.253  11.641   1.003  2.0505 -0.3224  0.7762
62031SOL     OW92950   7.854   0.806   5.440 -0.2511  0.2305  0.1206
62031SOL    HW192951   7.933   0.856   5.418 -0.2794 -0.1112 -0.8212
62031SOL    HW292952   7.785   0.845   5.386 -0.4319 -0.3326 -0.0684
62032SOL     OW92953   0.098   4.061   4.936 -0.8118  0.0516 -0.4983
62032SOL    HW192954   0.088   4.048   5.030  0.7929 -1.3862 -0.4918
62032SOL    HW292955   0.022   4.018   4.898 -1.3547  0.4459  0.1146
62033SOL     OW92956  12.302   2.621  10.292  0.0219  0.5648 -0.1521
62033SOL    HW192957  12.381   2.621  10.346  0.0138  2.0499 -0.0956
62033SOL    HW292958  12.275   2.713  10.289 -1.8224  0.0729 -0.0063
62034SOL     OW92959   8.790   0.215   5.701 -0.3895  0.0574 -0.5218
62034SOL    HW192960   8.784   0.280   5.631 -1.4215  1.5650  0.8861
62034SOL    HW292961   8.699   0.191   5.719 -0.0952 -0.7743 -0.0994
62035SOL     OW92962   0.670  11.323   9.491  0.0625  0.1235 -0.6393
62035SOL    HW192963   0.727  11.396   9.516  0.3061  0.2437 -1.4945
62035SOL    HW292964   0.598  11.325   9.553  1.1357 -0.2142  0.6594
62036SOL     OW92965  10.504   6.715   8.071 -0.5666 -0.1017 -0.6941
62036SOL    HW192966  10.525   6.805   8.043  1.1527 -0.2207  0.0432
62036SOL    HW292967  10.429   6.690   8.018  0.3572  0.9416 -2.5957
62037SOL     OW92968   8.736   2.796   2.968  0.0703 -0.3923 -0.2335
62037SOL    HW192969   8.649   2.764   2.991 -1.3235  0.9180 -3.1572
62037SOL    HW292970   8.757   2.752   2.885  2.8616 -1.6983  1.0415
62038SOL     OW92971   9.534   9.062   1.693  0.3637  0.3319  0.0157
62038SOL    HW192972   9.458   9.031   1.643  0.5709  1.4423 -1.0149
62038SOL    HW292973   9.609   9.022   1.649  0.3633 -2.0460  1.9660
62039SOL     OW92974   8.352   2.691   2.743 -0.7120 -0.2234 -0.5992
62039SOL    HW192975   8.397   2.713   2.824 -0.6395  1.2591 -1.0164
62039SOL    HW292976   8.370   2.765   2.685 -2.3941 -0.3298 -1.2980
62040SOL     OW92977   1.696   3.958   4.717 -0.7367 -0.1600  0.3432
62040SOL    HW192978   1.758   3.960   4.789 -1.1679 -0.9451  0.7557
62040SOL    HW292979   1.700   3.868   4.685 -2.1589 -0.4206  0.8324
62041SOL     OW92980   2.773   0.934  12.458 -0.1974 -0.1023 -0.5399
62041SOL    HW192981   2.715   0.916  12.383 -1.9549 -0.3755  0.8310
62041SOL    HW292982   2.726   0.999  12.510 -0.4713 -2.0749  1.8614
62042SOL     OW92983  10.216   8.497   1.507 -0.2107 -0.3942  0.2739
62042SOL    HW192984  10.189   8.535   1.424 -0.7519 -1.4674 -0.0565
62042SOL    HW292985  10.306   8.467   1.492 -0.8580 -2.1121 -0.5007
62043SOL     OW92986   2.619   2.430  12.006  0.1772  0.2014 -0.1908
62043SOL    HW192987   2.567   2.508  11.986  0.7859  0.4352 -0.9445
62043SOL    HW292988   2.590   2.365  11.942 -0.4529 -0.2557  0.5502
62044SOL     OW92989   1.128   6.078   8.929 -1.0560 -0.2356  0.3299
62044SOL    HW192990   1.055   6.139   8.920  0.1172  1.1146 -0.3152
62044SOL    HW292991   1.105   6.006   8.870 -1.3094  0.7346 -0.7859
62045SOL     OW92992   2.051   1.199   3.865 -0.1896  0.4851  0.5820
62045SOL    HW192993   2.146   1.184   3.862 -0.0609  1.0069  1.4477
62045SOL    HW292994   2.021   1.180   3.777  0.3858 -1.7831  0.8127
62046SOL     OW92995  10.720   2.662  12.245  0.6801  0.5787  0.0342
62046SOL    HW192996  10.794   2.706  12.289  0.4895  0.2014  0.7555
62046SOL    HW292997  10.711   2.708  12.162  2.5053 -0.1296 -0.6273
62047SOL     OW92998   7.916  11.932  10.912  0.7122  0.9057 -0.5449
62047SOL    HW192999   7.925  11.990  10.836  0.3617  0.4792 -0.9221
62047SOL    HW293000   7.850  11.868  10.885  1.6832 -0.1629 -0.4356
62048SOL     OW93001   2.122   3.312   6.607 -0.3879 -0.0825 -0.0665
62048SOL    HW193002   2.110   3.269   6.692  0.5696  0.1608  0.2129
62048SOL    HW293003   2.196   3.267   6.568 -0.5731  0.0747 -0.6006
62049SOL     OW93004   3.653  11.659   1.246  0.0041 -1.0323  0.3135
62049SOL    HW193005   3.748  11.647   1.239 -0.0575 -1.0260 -0.7895
62049SOL    HW293006   3.626  11.683   1.157 -0.9271 -0.2644  0.7847
62050SOL     OW93007   3.744   8.015  10.724 -0.6382 -0.8186 -0.1533
62050SOL    HW193008   3.737   8.089  10.663  0.1572  0.0741  0.8024
62050SOL    HW293009   3.837   7.995  10.727 -0.4826  0.0371  1.7569
62051SOL     OW93010   1.477   8.458   7.229 -0.7186  0.1321  0.3462
62051SOL    HW193011   1.401   8.500   7.270 -0.9432  0.1913 -0.1236
62051SOL    HW293012   1.439   8.399   7.165 -0.3430  0.6522 -0.3611
62052SOL     OW93013   3.691   1.126   7.234 -0.4513 -0.1111  0.0804
62052SOL    HW193014   3.695   1.060   7.303 -1.4596 -2.2314 -1.7679
62052SOL    HW293015   3.597   1.139   7.219 -0.2499  0.8239 -0.4390
62053SOL     OW93016   0.367   8.028   6.373  0.1372  0.0421 -0.4723
62053SOL    HW193017   0.441   7.968   6.365 -2.0111 -2.7896 -0.5830
62053SOL    HW293018   0.339   8.043   6.282  2.1801  3.5370 -0.7274
62054SOL     OW93019   3.125   5.074  11.322  0.0301  0.1723  0.7446
62054SOL    HW193020   3.065   5.149  11.329  0.6873  0.6813  0.9799
62054SOL    HW293021   3.186   5.098  11.252 -0.0126 -0.3346  0.5260
62055SOL     OW93022   5.054   1.062   8.596  0.8228  0.2245  0.2823
62055SOL    HW193023   5.138   1.020   8.614  1.2442  0.7322 -0.4521
62055SOL    HW293024   5.075   1.133   8.536 -0.1728  0.1847 -0.1299
62056SOL     OW93025   7.112   3.695   1.948 -0.3788 -0.0119 -0.5360
62056SOL    HW193026   7.135   3.617   1.999  0.4393  1.1842  1.0258
62056SOL    HW293027   7.185   3.708   1.889 -1.2663 -1.3263 -2.0050
62057SOL     OW93028   5.503  11.249   3.162  0.6666 -0.1600 -0.7223
62057SOL    HW193029   5.509  11.223   3.070  0.2568 -1.4652 -0.4042
62057SOL    HW293030   5.586  11.221   3.200  0.6818  0.0363 -0.6123
62058SOL     OW93031   6.262   2.228   2.198  0.0256 -1.1204 -0.2318
62058SOL    HW193032   6.208   2.152   2.177 -2.1756  0.4521 -0.5448
62058SOL    HW293033   6.350   2.192   2.208 -0.8738 -3.6523 -0.6573
62059SOL     OW93034  10.724   9.902  10.680 -0.2386  0.5609 -0.0464
62059SOL    HW193035  10.698   9.811  10.693 -1.5253  0.9401  0.0867
62059SOL    HW293036  10.819   9.901  10.692 -0.0738 -0.9579 -1.1428
62060SOL     OW93037   7.021   0.390   0.496  0.2402 -0.4116 -0.0024
62060SOL    HW193038   7.042   0.390   0.590 -0.7743 -1.1575  0.2423
62060SOL    HW293039   6.954   0.322   0.487 -0.8147  0.7248 -1.0055
62061SOL     OW93040  10.249   1.931   4.407  0.2273  0.1454 -0.1265
62061SOL    HW193041  10.249   1.862   4.474 -0.7120 -0.9692 -1.2117
62061SOL    HW293042  10.171   1.983   4.425  0.6388  0.5963  0.3664
62062SOL     OW93043   2.677  11.215   9.681  0.1889  0.5667  0.3310
62062SOL    HW193044   2.768  11.226   9.709  0.2637 -0.0766  0.3494
62062SOL    HW293045   2.657  11.296   9.634  0.7990  0.6741  0.2469
62063SOL     OW93046   1.272   6.394   3.936  0.0877  0.5845  0.3870
62063SOL    HW193047   1.190   6.434   3.966  0.2771  0.8180  0.6061
62063SOL    HW293048   1.280   6.421   3.845 -1.4260 -1.6408 -0.4886
62064SOL     OW93049   8.886  11.914   1.864 -0.4015  0.2523 -0.0405
62064SOL    HW193050   8.918  12.003   1.849 -0.6270  0.6456  1.5640
62064SOL    HW293051   8.910  11.866   1.785  3.3192  0.7460  0.6139
62065SOL     OW93052   7.003  10.248   8.850  0.4087 -0.2818  0.1977
62065SOL    HW193053   6.996  10.170   8.904 -0.9451 -0.0357  0.4083
62065SOL    HW293054   6.940  10.235   8.780  0.8538  0.2073 -0.3128
62066SOL     OW93055   4.317   9.998   2.773  0.4763 -0.3057 -0.1796
62066SOL    HW193056   4.272  10.058   2.833  0.2024  1.3761 -1.9710
62066SOL    HW293057   4.251   9.975   2.708  0.5492 -2.7158  0.5260
62067SOL     OW93058   8.247  12.014   3.784  0.1007  0.0827 -0.2566
62067SOL    HW193059   8.199  11.972   3.855  0.8915  0.6820  0.6609
62067SOL    HW293060   8.314  11.951   3.760 -0.6142 -0.4126 -0.9680
62068SOL     OW93061   9.666   7.491   6.350 -0.5196 -0.7066  0.0454
62068SOL    HW193062   9.615   7.411   6.363 -0.5162 -0.7211 -0.0332
62068SOL    HW293063   9.740   7.481   6.409 -0.9638 -0.3762  0.6720
62069SOL     OW93064   8.514   6.694  10.349 -0.2545 -0.5806 -0.0987
62069SOL    HW193065   8.568   6.772  10.333  0.8334 -1.7270 -2.6634
62069SOL    HW293066   8.450   6.722  10.415  2.0696  1.4874  1.4588
62070SOL     OW93067   6.957  10.993  10.577 -0.4284 -0.1486 -0.3551
62070SOL    HW193068   6.972  11.085  10.601 -2.1561 -0.1012  0.7109
62070SOL    HW293069   6.962  10.993  10.481  2.0639  0.5449 -0.2893
62071SOL     OW93070  11.541   8.232   5.911  0.3772  1.0023 -0.3951
62071SOL    HW193071  11.528   8.138   5.922  0.1480  1.1553  0.8223
62071SOL    HW293072  11.598   8.240   5.834  0.3967 -0.1235 -0.5138
62072SOL     OW93073   9.980  11.384   1.613  0.4885  0.5179  0.0151
62072SOL    HW193074   9.908  11.366   1.552 -0.0402 -0.3060  0.8596
62072SOL    HW293075  10.044  11.317   1.593 -0.0384 -0.2634  0.9050
62073SOL     OW93076   6.601   2.508   2.460  0.0915 -0.5900  1.1292
62073SOL    HW193077   6.575   2.489   2.550  1.7490 -3.0187  1.1711
62073SOL    HW293078   6.611   2.422   2.419  3.6767  0.2604 -0.0982
62074SOL     OW93079   8.390   7.033   2.902  0.2095  0.0269 -0.2705
62074SOL    HW193080   8.416   7.064   2.989 -1.7194  2.7063 -0.5171
62074SOL    HW293081   8.472   7.021   2.855  1.2192  2.1997  0.7844
62075SOL     OW93082   8.040  11.523   5.804  0.0666 -0.0635 -0.4242
62075SOL    HW193083   8.075  11.488   5.722 -0.9673 -2.3342  0.0256
62075SOL    HW293084   7.946  11.509   5.798 -0.0819  0.1810  0.9664
62076SOL     OW93085   6.905  10.233   8.281 -0.4736 -0.1944 -0.6748
62076SOL    HW193086   6.837  10.300   8.280 -0.8394 -0.5000  1.1004
62076SOL    HW293087   6.982  10.278   8.315 -1.1551 -0.9728  2.1758
62077SOL     OW93088   2.847  10.516   3.331 -0.9272 -0.5915 -0.2553
62077SOL    HW193089   2.809  10.503   3.244 -0.4729  0.6813 -0.6625
62077SOL    HW293090   2.774  10.545   3.385 -0.3641  3.8773 -1.5094
62078SOL     OW93091  10.306  10.010  12.476  0.3452  0.1151 -0.6831
62078SOL    HW193092  10.278   9.931  12.522  0.1780  1.3524  1.4547
62078SOL    HW293093  10.396   9.993  12.450 -0.0183 -1.1514 -1.2109
62079SOL     OW93094   5.703   8.943   2.735  0.2589 -0.4072  0.1649
62079SOL    HW193095   5.771   8.913   2.795 -0.7794 -1.6449  0.7978
62079SOL    HW293096   5.649   9.001   2.788 -0.2051 -0.8736  0.2160
62080SOL     OW93097   4.905   3.187   2.365 -0.0454  0.0787 -0.6357
62080SOL    HW193098   4.818   3.215   2.338  0.5078  0.1819 -2.4210
62080SOL    HW293099   4.958   3.192   2.286  1.4102 -0.7374  0.2367
62081SOL     OW93100   7.093   9.255   8.347  0.2053  0.0112  0.1024
62081SOL    HW193101   7.138   9.274   8.429  0.0243 -0.1109  0.2290
62081SOL    HW293102   7.000   9.265   8.367  0.1637  0.0713 -0.1110
62082SOL     OW93103  11.087  11.231   8.548  0.2435  0.4363  0.5548
62082SOL    HW193104  11.014  11.292   8.561 -1.0242 -1.1227  1.1332
62082SOL    HW293105  11.074  11.196   8.460 -0.2128 -0.4342  0.9493
62083SOL     OW93106   7.071   5.843   7.025  0.2167 -0.4369  0.1185
62083SOL    HW193107   7.027   5.811   6.947 -0.4397  0.2300  0.1965
62083SOL    HW293108   7.002   5.847   7.092  1.0694 -2.4808  1.2149
62084SOL     OW93109   5.519   5.892   8.393  0.2926 -0.7546 -0.4140
62084SOL    HW193110   5.448   5.927   8.446  0.3717 -0.0724 -0.7555
62084SOL    HW293111   5.594   5.889   8.453  0.2748 -0.3794 -0.3725
62085SOL     OW93112   3.535   0.469   1.610  0.0531 -0.0553 -0.1475
62085SOL    HW193113   3.452   0.516   1.598  0.4064  0.6567  0.1362
62085SOL    HW293114   3.566   0.496   1.697  1.2480  0.7656 -0.7983
62086SOL     OW93115   2.209   7.437   7.200 -0.1906  0.2076  0.1030
62086SOL    HW193116   2.142   7.504   7.211 -0.1266  0.5554 -1.4051
62086SOL    HW293117   2.255   7.462   7.120 -0.1068 -1.5919 -0.4459
62087SOL     OW93118   4.444   4.634   1.602  0.3953  0.2262  0.4082
62087SOL    HW193119   4.464   4.596   1.687 -0.6614 -0.2521  0.4651
62087SOL    HW293120   4.386   4.708   1.622 -0.7618 -0.5588  0.0535
62088SOL     OW93121   6.916   5.444   3.969  0.1830 -0.3673 -0.0528
62088SOL    HW193122   6.945   5.416   3.883 -1.3637  2.1626 -1.5081
62088SOL    HW293123   6.974   5.516   3.993  0.3459 -0.7781  0.8607
62089SOL     OW93124   6.396   4.440   7.485 -0.2623 -0.4133  0.1528
62089SOL    HW193125   6.480   4.418   7.527 -0.7270 -1.2857  0.6624
62089SOL    HW293126   6.352   4.496   7.550 -0.1860 -0.1710 -0.0032
62090SOL     OW93127   1.014   9.997  11.621 -0.0732 -0.2207  0.1702
62090SOL    HW193128   1.044  10.040  11.701 -1.0756  2.2446 -0.6542
62090SOL    HW293129   0.928   9.962  11.644  0.2339 -0.7456  0.5327
62091SOL     OW93130   5.743  10.062   2.402  0.4387  0.2134 -0.3426
62091SOL    HW193131   5.798  10.004   2.350  0.6082  0.7239 -0.7452
62091SOL    HW293132   5.781  10.061   2.490 -0.3586 -1.3342  0.0116
62092SOL     OW93133   6.326  12.202  10.756 -0.1179  0.1719 -0.2972
62092SOL    HW193134   6.281  12.121  10.734  0.7891 -0.6522  0.7402
62092SOL    HW293135   6.375  12.225  10.677  0.7006 -1.0655 -0.1788
62093SOL     OW93136   6.095   0.793   1.744 -0.8006 -0.2582  0.6658
62093SOL    HW193137   6.050   0.710   1.757 -0.5861 -0.1471  2.2945
62093SOL    HW293138   6.185   0.776   1.773 -0.1658 -0.0392 -1.0521
62094SOL     OW93139   2.595   5.037  10.306 -0.4533  0.0756  0.2891
62094SOL    HW193140   2.576   5.076  10.221  1.6206  0.1933 -0.1869
62094SOL    HW293141   2.511   5.005  10.338 -1.0386 -1.8821 -2.7831
62095SOL     OW93142   3.800   3.269   2.620  0.8313  0.0102  0.6768
62095SOL    HW193143   3.818   3.289   2.528  1.8402 -0.0952  0.8401
62095SOL    HW293144   3.800   3.353   2.664 -0.1233  0.1101  0.5228
62096SOL     OW93145  11.337   8.544   8.067  0.2664  0.1159  0.2561
62096SOL    HW193146  11.353   8.621   8.122  1.3559 -0.5202  0.8572
62096SOL    HW293147  11.405   8.547   8.000  0.5496 -0.5307  0.5113
62097SOL     OW93148   2.892   4.573   0.575 -0.7211  0.0797  0.3599
62097SOL    HW193149   2.809   4.592   0.619 -0.0230 -0.9041  2.2065
62097SOL    HW293150   2.927   4.496   0.621  1.4781  0.8051  0.0256
62098SOL     OW93151   4.601   9.967   6.691  0.1406  0.0641 -0.1078
62098SOL    HW193152   4.589   9.895   6.628 -1.1424  1.5012 -1.5908
62098SOL    HW293153   4.512   9.990   6.718  0.4086  1.8889 -0.6447
62099SOL     OW93154   2.392   2.867   3.535  0.4309  0.0527 -0.0633
62099SOL    HW193155   2.375   2.873   3.629 -0.6170 -3.4046  0.1085
62099SOL    HW293156   2.448   2.943   3.515  0.0061  1.3489  3.1298
62100SOL     OW93157   0.398   3.155   6.999  0.0139  0.3055 -0.1657
62100SOL    HW193158   0.415   3.093   7.070  0.0480  0.0636 -0.3842
62100SOL    HW293159   0.482   3.198   6.983  0.6025 -1.2477 -1.5926
62101SOL     OW93160   4.678  10.466   1.956 -0.1342  0.3781  0.0012
62101SOL    HW193161   4.671  10.399   2.023 -0.5367 -1.1254 -1.4944
62101SOL    HW293162   4.588  10.490   1.936  0.0033  1.3215  0.4483
62102SOL     OW93163  11.477   7.276   4.050  0.2585  0.3249  1.1388
62102SOL    HW193164  11.391   7.242   4.076 -0.5645  0.6285 -1.0556
62102SOL    HW293165  11.529   7.197   4.031 -0.8345  0.1176 -1.3917
62103SOL     OW93166   6.357   0.897  11.948  0.1696 -0.0114  0.2321
62103SOL    HW193167   6.288   0.932  12.004 -0.6236 -0.2172 -0.5918
62103SOL    HW293168   6.429   0.960  11.957 -1.5207  2.4475 -1.9050
62104SOL     OW93169  10.541   0.584   7.692 -0.3789 -0.0267  0.0513
62104SOL    HW193170  10.521   0.626   7.609 -2.5199 -2.3629 -0.7726
62104SOL    HW293171  10.567   0.495   7.668 -1.0020 -0.7481  1.8210
62105SOL     OW93172   1.499   3.887   8.555  0.0927  0.0467 -0.5191
62105SOL    HW193173   1.407   3.884   8.529  0.7460  0.8183 -3.3767
62105SOL    HW293174   1.508   3.818   8.621 -2.5835  0.2593  0.1839
62106SOL     OW93175   6.790   0.237   5.409  0.1249 -0.0010  0.1031
62106SOL    HW193176   6.804   0.188   5.328  1.4132  0.2151  0.1820
62106SOL    HW293177   6.703   0.209   5.439  0.3377 -1.3551 -0.4650
62107SOL     OW93178   8.784   1.106   6.804 -0.5410  0.0767  0.7079
62107SOL    HW193179   8.741   1.081   6.722  0.8528  0.7248 -0.2638
62107SOL    HW293180   8.807   1.024   6.846  0.3308 -0.2841 -0.4384
62108SOL     OW93181   0.982   9.564   4.055  0.0350  0.3966 -0.2143
62108SOL    HW193182   0.922   9.501   4.096  1.2798  0.0269  1.1204
62108SOL    HW293183   0.978   9.640   4.113  0.9768  0.2943  0.0011
62109SOL     OW93184   4.138  11.407  11.392  0.1737  0.0952 -0.4256
62109SOL    HW193185   4.090  11.364  11.321  1.8359 -1.9387 -0.4366
62109SOL    HW293186   4.083  11.394  11.470 -1.4492  1.9592 -1.1965
62110SOL     OW93187   3.231   6.773  12.095  0.1803 -0.3254 -0.1364
62110SOL    HW193188   3.188   6.699  12.053 -1.1832  0.5515 -0.3367
62110SOL    HW293189   3.209   6.849  12.041  1.3502  0.2763  0.1896
62111SOL     OW93190   8.868   9.673   4.758  0.2277 -0.8439  0.1135
62111SOL    HW193191   8.809   9.660   4.684 -2.2998 -0.1813  1.8753
62111SOL    HW293192   8.813   9.661   4.835  2.6309 -1.0539  1.9279
62112SOL     OW93193   8.108   8.485   7.184 -0.1254  0.7854  0.3388
62112SOL    HW193194   8.018   8.462   7.162 -0.3473  0.7477  1.2408
62112SOL    HW293195   8.103   8.576   7.213  0.1404  0.8067  0.3167
62113SOL     OW93196   2.065   9.940   9.673 -0.0903 -0.3806 -0.2936
62113SOL    HW193197   2.005   9.989   9.729 -0.1703 -0.7246 -0.0753
62113SOL    HW293198   2.036   9.958   9.584 -0.3749 -0.3635 -0.1968
62114SOL     OW93199  10.590   1.733   2.499  0.1844  0.1699  0.0950
62114SOL    HW193200  10.614   1.680   2.575  0.0503 -0.6149 -0.3997
62114SOL    HW293201  10.673   1.750   2.454  0.4848  1.9534  1.2230
62115SOL     OW93202   7.198   2.926   3.331  0.4825 -0.1418  0.1352
62115SOL    HW193203   7.252   3.004   3.315  0.8099  0.0782  2.0174
62115SOL    HW293204   7.261   2.854   3.334  0.2058 -0.4752 -1.3667
62116SOL     OW93205   0.270   8.947  11.690 -0.3553  0.0820  0.2425
62116SOL    HW193206   0.307   8.993  11.765 -0.2053  1.3020 -0.5527
62116SOL    HW293207   0.309   8.989  11.614 -0.7077 -0.9482 -0.5441
62117SOL     OW93208   4.694   6.799   4.125  0.2081 -0.5979 -0.1932
62117SOL    HW193209   4.731   6.767   4.207 -0.9619 -0.7277  0.3071
62117SOL    HW293210   4.745   6.878   4.104  0.7221 -0.7480  0.4782
62118SOL     OW93211   0.620   6.270   3.748  0.2244 -0.2437  0.3393
62118SOL    HW193212   0.674   6.302   3.676 -0.3518  0.2422  0.1108
62118SOL    HW293213   0.643   6.178   3.757  0.2529 -0.3276 -0.5212
62119SOL     OW93214   7.598   1.839   9.215 -0.2923  0.3280 -0.0982
62119SOL    HW193215   7.680   1.886   9.224  0.4829 -0.9430 -0.3593
62119SOL    HW293216   7.530   1.906   9.228  0.7528  1.6878 -1.4306
62120SOL     OW93217   7.747  12.125   9.127 -0.7464  0.0136  0.9012
62120SOL    HW193218   7.819  12.063   9.126  0.1874  1.0672  0.5698
62120SOL    HW293219   7.669  12.073   9.106 -0.1171 -1.1682  1.4351
62121SOL     OW93220  10.287   9.419   4.971  0.0863 -0.5796 -0.0190
62121SOL    HW193221  10.369   9.467   4.983  0.5206 -1.1355 -0.6598
62121SOL    HW293222  10.257   9.399   5.059  0.4493 -0.0452  0.2267
62122SOL     OW93223   1.715   5.806   8.839  0.3182  0.6228  0.2139
62122SOL    HW193224   1.771   5.731   8.858 -1.1609 -0.7591 -0.5859
62122SOL    HW293225   1.634   5.789   8.888 -0.5641  0.9550 -1.0686
62123SOL     OW93226   3.533   9.738   7.034  0.3741  0.4044 -0.5588
62123SOL    HW193227   3.579   9.668   6.988 -0.4038 -1.2459  1.0371
62123SOL    HW293228   3.456   9.696   7.072  2.2861  0.7443  4.5864
62124SOL     OW93229   4.186  10.599   1.701  0.1706  0.3924 -0.3344
62124SOL    HW193230   4.181  10.607   1.605  0.4993 -0.7329 -0.4659
62124SOL    HW293231   4.099  10.566   1.726 -0.6134  2.5652  0.0086
62125SOL     OW93232  10.710   3.034   8.111 -0.0140 -0.6496  0.5719
62125SOL    HW193233  10.737   3.110   8.163  2.0168  0.5395 -1.9651
62125SOL    HW293234  10.650   3.070   8.045  0.6558 -1.2862 -0.4159
62126SOL     OW93235   2.826   1.971   5.290 -0.2656 -0.1413  0.2177
62126SOL    HW193236   2.751   1.943   5.238 -0.6468  0.5187  0.4002
62126SOL    HW293237   2.824   2.067   5.285  0.6166 -0.1162  0.1540
62127SOL     OW93238   3.274   6.590   2.168 -0.2785  0.0420  0.5076
62127SOL    HW193239   3.279   6.497   2.189  1.5437  0.3177  1.4510
62127SOL    HW293240   3.275   6.593   2.072  1.5973 -0.8626  0.4569
62128SOL     OW93241   2.001   0.502   3.909 -0.3192 -0.2540  0.3003
62128SOL    HW193242   1.944   0.501   3.832 -0.6186 -1.4050  0.5180
62128SOL    HW293243   2.074   0.559   3.884 -1.1938  0.6719 -0.2430
62129SOL     OW93244   3.194   6.339   7.851 -0.4387 -0.3023 -0.2113
62129SOL    HW193245   3.166   6.405   7.914 -0.0636  0.0546 -0.4117
62129SOL    HW293246   3.202   6.259   7.903 -0.3054 -0.0525  0.1610
62130SOL     OW93247   1.456   6.855   5.225  0.6083 -0.3547 -0.1196
62130SOL    HW193248   1.515   6.919   5.184 -0.3607 -0.9503 -2.6236
62130SOL    HW293249   1.372   6.900   5.229  0.4681 -0.6564  0.3946
62131SOL     OW93250  11.034   7.990   1.348  0.0477 -0.3239  0.0268
62131SOL    HW193251  10.982   7.940   1.410  1.4802 -0.2380  1.3737
62131SOL    HW293252  11.123   7.989   1.385  0.8929  0.0080 -1.8654
62132SOL     OW93253   7.248   8.686   8.505 -0.2369 -0.0069 -0.2937
62132SOL    HW193254   7.171   8.651   8.550  1.0310 -2.0953  0.4063
62132SOL    HW293255   7.240   8.654   8.416  0.4153 -1.3627  0.1002
62133SOL     OW93256   6.821   3.943   5.185 -0.1411  0.1425  0.2653
62133SOL    HW193257   6.802   3.961   5.092 -1.1473  0.0746  0.4512
62133SOL    HW293258   6.838   4.030   5.223 -0.6064  0.2606  0.2077
62134SOL     OW93259   5.360  11.729  12.202  0.4802 -0.6647 -0.2746
62134SOL    HW193260   5.276  11.685  12.194 -0.1192  0.4750 -0.4405
62134SOL    HW293261   5.420  11.660  12.231 -0.6719 -1.3252  0.6458
62135SOL     OW93262   9.605   9.611  10.655 -0.0553  0.0332  0.1974
62135SOL    HW193263   9.692   9.575  10.672 -0.0280  0.1452  0.2920
62135SOL    HW293264   9.592   9.598  10.561 -0.2471 -0.6635  0.3213
62136SOL     OW93265   2.682   8.017   1.073 -0.0540  0.0781  1.1908
62136SOL    HW193266   2.768   8.031   1.113  2.1430 -2.3569 -2.1379
62136SOL    HW293267   2.676   7.922   1.062 -1.9688  0.3832 -1.0238
62137SOL     OW93268   8.016   2.001   9.987  0.4962  0.4064 -0.5814
62137SOL    HW193269   8.063   2.078  10.020  0.6930  0.6664 -1.4357
62137SOL    HW293270   7.939   2.038   9.943 -0.1274  0.0266  0.1830
62138SOL     OW93271   1.185   1.579   7.452 -0.6685  0.2820 -0.1345
62138SOL    HW193272   1.173   1.673   7.459 -2.5926  0.1430 -0.8772
62138SOL    HW293273   1.215   1.565   7.362 -2.1389  0.0901 -0.6242
62139SOL     OW93274   0.034   4.286   4.802  0.2536  0.1735 -0.5906
62139SOL    HW193275   0.079   4.220   4.855  4.4463  0.8574 -2.8790
62139SOL    HW293276  -0.023   4.236   4.744  0.0184 -1.0082  0.5957
62140SOL     OW93277   3.115   2.374   2.007 -0.2474 -0.3278  0.0985
62140SOL    HW193278   3.045   2.440   2.007  1.1445  1.2373  1.0148
62140SOL    HW293279   3.110   2.334   1.920 -1.5723  0.5193 -0.2519
62141SOL     OW93280   6.716   9.107   2.190 -0.4337  0.1692  0.0493
62141SOL    HW193281   6.692   9.032   2.136  1.4831 -0.7483  0.3995
62141SOL    HW293282   6.636   9.160   2.195 -1.8332 -1.8432 -0.1775
62142SOL     OW93283   1.531   8.077   6.076  0.2877  0.0620  0.1762
62142SOL    HW193284   1.527   8.021   6.154  0.1943  0.4558  0.4577
62142SOL    HW293285   1.619   8.063   6.042  0.6823  0.6401  0.9262
62143SOL     OW93286   4.248   7.120   7.062 -0.3557 -0.4164 -0.5127
62143SOL    HW193287   4.321   7.085   7.011 -0.3285  1.3541 -1.8073
62143SOL    HW293288   4.176   7.060   7.045 -0.9974  1.2050 -4.5845
62144SOL     OW93289   6.571   7.264   1.553  0.4913 -0.4321  0.4234
62144SOL    HW193290   6.622   7.271   1.634  0.2548  1.6570  0.4458
62144SOL    HW293291   6.481   7.280   1.581  0.3446 -0.1916 -0.1895
62145SOL     OW93292  10.360   3.585   5.011  0.3098 -0.2339  0.3480
62145SOL    HW193293  10.354   3.496   4.976  1.8564  0.3325 -1.5236
62145SOL    HW293294  10.404   3.575   5.095  1.9278 -1.1210 -0.5653
62146SOL     OW93295  10.814  11.797   3.535  0.4471  0.1399 -0.0231
62146SOL    HW193296  10.825  11.826   3.445  2.1799  0.4579  0.2478
62146SOL    HW293297  10.899  11.814   3.576  0.1195 -1.2104  1.3168
62147SOL     OW93298   0.911   8.326  12.436 -0.6054 -0.2272  0.1011
62147SOL    HW193299   0.846   8.257  12.427 -0.1507 -0.4864 -1.7842
62147SOL    HW293300   0.962   8.301  12.514 -1.9804 -0.6525  0.8938
62148SOL     OW93301   4.669   8.305   2.508  0.6970  0.2890  0.8009
62148SOL    HW193302   4.741   8.302   2.445  1.5943  0.4592  1.7808
62148SOL    HW293303   4.680   8.225   2.560 -1.0131 -0.7094 -0.2585
62149SOL     OW93304   9.283   6.209   6.698  0.0457  0.1570 -0.2019
62149SOL    HW193305   9.291   6.142   6.765  0.9899 -0.7440 -1.1903
62149SOL    HW293306   9.366   6.256   6.700 -0.2633  0.7106 -0.1358
62150SOL     OW93307   3.111   2.343   1.697  0.2512  0.0650 -0.0182
62150SOL    HW193308   3.050   2.392   1.642 -1.1047 -2.6669 -1.1338
62150SOL    HW293309   3.198   2.372   1.667 -0.3740  3.2651  0.8867
62151SOL     OW93310   1.084   3.317   6.233 -0.1499 -0.1776  0.4844
62151SOL    HW193311   1.178   3.300   6.245 -0.8437 -5.3009  0.7246
62151SOL    HW293312   1.046   3.231   6.219 -4.7679  1.7959 -0.7900
62152SOL     OW93313  10.286   9.900   3.281 -0.4264  0.3175 -0.0186
62152SOL    HW193314  10.306   9.822   3.331  0.2514  0.8438  0.5525
62152SOL    HW293315  10.301   9.973   3.341  1.4490  1.0301 -1.2389
62153SOL     OW93316   0.321   5.272   9.179  0.4192  0.6068  0.2084
62153SOL    HW193317   0.400   5.245   9.225  1.1806  1.5403 -0.5272
62153SOL    HW293318   0.262   5.196   9.187  1.4710 -0.1963  0.5282
62154SOL     OW93319   9.354   9.232  10.433 -0.5733 -0.5162 -0.2426
62154SOL    HW193320   9.365   9.287  10.511  2.0936 -2.5871  0.9956
62154SOL    HW293321   9.398   9.281  10.363  1.8569 -0.9871  0.8576
62155SOL     OW93322   8.395   6.931   0.008 -0.3419 -0.4236  0.1722
62155SOL    HW193323   8.429   6.990   0.075  0.8669 -0.6890 -0.1642
62155SOL    HW293324   8.397   6.844   0.050 -0.3191 -0.4819  0.0508
62156SOL     OW93325   2.990   5.563  12.401 -0.0079  0.0517 -0.1724
62156SOL    HW193326   2.922   5.500  12.425 -0.2802  0.0285 -0.9629
62156SOL    HW293327   3.046   5.568  12.478 -0.4398 -0.5471  0.1950
62157SOL     OW93328   4.408  12.241   6.382 -0.1490 -0.0164  0.4250
62157SOL    HW193329   4.353  12.253   6.460  0.5961 -1.5118  1.2414
62157SOL    HW293330   4.410  12.326   6.340 -2.1714  0.3516  0.9770
62158SOL     OW93331  10.318   2.725   6.587  0.5258 -0.1496 -0.4330
62158SOL    HW193332  10.248   2.786   6.561  1.3589  0.1128 -2.2262
62158SOL    HW293333  10.380   2.778   6.636  0.6006  0.1696 -0.8652
62159SOL     OW93334   5.094   7.932   8.064  0.3823  0.5392  0.2587
62159SOL    HW193335   5.115   7.840   8.045 -0.8764  0.3928 -0.5096
62159SOL    HW293336   5.084   7.972   7.978  0.5146  1.3101  0.5996
62160SOL     OW93337  11.543   0.155   2.680 -0.1883 -0.3920 -0.4157
62160SOL    HW193338  11.627   0.193   2.706 -1.0939  1.9424 -0.6720
62160SOL    HW293339  11.484   0.175   2.753 -0.5254 -2.2420 -0.1189
62161SOL     OW93340   6.876  12.528   8.756  0.1029 -0.6244  0.0549
62161SOL    HW193341   6.952  12.475   8.779  0.1030 -1.9167 -2.5812
62161SOL    HW293342   6.913  12.600   8.704 -0.3036 -0.3483  0.1492
62162SOL     OW93343   7.178   6.096   4.155 -0.1326 -0.1285  0.7196
62162SOL    HW193344   7.173   6.190   4.134 -2.3069 -0.0667  1.2823
62162SOL    HW293345   7.235   6.060   4.088 -1.3310  1.1892 -1.0952
62163SOL     OW93346  12.217   0.514   2.270  0.5270  0.5069  0.6954
62163SOL    HW193347  12.238   0.468   2.188 -0.1991  0.0043  0.7876
62163SOL    HW293348  12.228   0.448   2.338 -0.7994  0.3741  0.8006
62164SOL     OW93349  10.065   1.037   9.553 -0.4150  1.0692  0.5640
62164SOL    HW193350  10.052   0.946   9.577  0.6300  0.5207 -0.8195
62164SOL    HW293351   9.978   1.067   9.525 -0.7670  0.5088  1.0384
62165SOL     OW93352  11.990   9.561   5.112  0.1022 -0.5352  0.5115
62165SOL    HW193353  11.999   9.513   5.029 -2.7768  0.1699 -0.3516
62165SOL    HW293354  11.981   9.652   5.086 -2.2026 -0.4392  1.4054
62166SOL     OW93355   7.314   4.783  11.999  0.0038 -0.4033 -0.2050
62166SOL    HW193356   7.370   4.728  12.054  2.7158  0.9203 -1.4606
62166SOL    HW293357   7.307   4.865  12.046 -1.3728 -0.7066  0.1663
62167SOL     OW93358  12.230   1.836   3.962 -0.0104  0.1194  0.8451
62167SOL    HW193359  12.176   1.760   3.944  1.5227 -1.1117  1.2806
62167SOL    HW293360  12.187   1.908   3.914 -3.2886 -0.2286  2.9527
62168SOL     OW93361   6.117   6.666  12.533 -0.5470  0.1427  0.2988
62168SOL    HW193362   6.201   6.700  12.502 -0.3467  0.4860  1.2000
62168SOL    HW293363   6.053   6.697  12.468  0.1090 -0.7837 -0.8256
62169SOL     OW93364   3.491  10.844  11.665  0.6001 -0.3944  0.0619
62169SOL    HW193365   3.430  10.771  11.653 -0.4836  0.4622  0.2155
62169SOL    HW293366   3.437  10.915  11.700  1.6690  0.4338  0.0811
62170SOL     OW93367   3.677   6.363   5.573 -0.0447 -0.0283 -0.0596
62170SOL    HW193368   3.582   6.368   5.561  0.2765  0.3093 -3.5020
62170SOL    HW293369   3.709   6.448   5.542  1.3656  0.2523  1.9917
62171SOL     OW93370   3.334   9.932  10.288 -0.5259 -0.0897  0.7554
62171SOL    HW193371   3.389   9.885  10.351 -1.1717 -0.6393  0.9175
62171SOL    HW293372   3.245   9.919  10.320 -0.9645 -1.2102 -0.7966
62172SOL     OW93373   3.802   9.157   8.978 -0.2806  0.0761  0.2995
62172SOL    HW193374   3.821   9.068   9.007  0.1596  0.2890  0.6871
62172SOL    HW293375   3.883   9.185   8.935 -0.5714  0.1305 -0.2141
62173SOL     OW93376   8.103   9.986   0.658  0.2861 -0.2255 -0.3078
62173SOL    HW193377   8.143   9.901   0.677  0.2660 -0.2189 -0.2343
62173SOL    HW293378   8.067   9.976   0.570 -1.4127 -0.9354  0.4091
62174SOL     OW93379   4.020  11.708   8.441 -0.1604  0.0424  0.3267
62174SOL    HW193380   4.079  11.641   8.475  0.4223  0.3105 -0.1528
62174SOL    HW293381   3.935  11.686   8.478  0.2984 -0.1624  1.2834
62175SOL     OW93382   7.186   5.877   5.848 -0.1189  0.2390  0.0136
62175SOL    HW193383   7.218   5.790   5.825 -2.5006 -0.5258 -0.6572
62175SOL    HW293384   7.172   5.920   5.764 -2.4932 -0.1263  0.1701
62176SOL     OW93385   6.799   9.531   5.863  0.1292 -0.0056  0.2726
62176SOL    HW193386   6.820   9.451   5.911 -0.1539 -0.2936 -0.0872
62176SOL    HW293387   6.853   9.527   5.784 -0.4205 -0.1857 -0.0922
62177SOL     OW93388   1.106   9.535   8.729 -0.2994  0.4787  0.7030
62177SOL    HW193389   1.011   9.540   8.714 -0.3775 -2.5439 -0.5915
62177SOL    HW293390   1.145   9.551   8.643  0.1737 -0.9384  0.6264
62178SOL     OW93391   8.930   2.014   7.254  0.1042 -0.2856 -0.2277
62178SOL    HW193392   8.906   2.107   7.253  0.4515 -0.2011 -0.6275
62178SOL    HW293393   8.871   1.974   7.190  1.3043 -0.0020 -1.5569
62179SOL     OW93394   4.479   5.087   3.596  0.6674  0.0347 -0.2915
62179SOL    HW193395   4.531   5.101   3.517  1.0772 -0.4990 -0.1256
62179SOL    HW293396   4.436   5.171   3.612  0.5167  0.1197 -1.1234
62180SOL     OW93397   4.623   3.733  10.947 -0.0756  0.5035 -0.2533
62180SOL    HW193398   4.532   3.758  10.932 -0.7122 -1.6100 -0.1105
62180SOL    HW293399   4.625   3.701  11.037  1.0074  1.2707  0.0200
62181SOL     OW93400   4.933   4.782   3.023 -0.3296  0.5626  0.4550
62181SOL    HW193401   4.862   4.738   3.069  0.5856 -1.2892  0.1585
62181SOL    HW293402   4.985   4.822   3.092  0.1669 -0.8895  0.9494
62182SOL     OW93403   4.256   5.053   0.617 -0.2251 -0.0202 -0.2749
62182SOL    HW193404   4.170   5.064   0.576 -0.3080  1.4520  0.2558
62182SOL    HW293405   4.313   5.114   0.572 -0.0985  0.9541  1.1285
62183SOL     OW93406   5.159   5.777   8.827  0.3165 -0.2977  0.1232
62183SOL    HW193407   5.204   5.695   8.807 -0.4091 -0.8208  0.6134
62183SOL    HW293408   5.077   5.773   8.778  0.0157 -0.1221  0.6023
62184SOL     OW93409   9.897   5.903   8.694  0.3407 -0.6331  0.2852
62184SOL    HW193410   9.868   5.884   8.605 -1.6593  0.0510  0.7266
62184SOL    HW293411   9.901   5.818   8.737 -0.6856 -0.7940  0.0799
62185SOL     OW93412   0.661   4.888   9.032  0.3737 -0.1577 -0.3229
62185SOL    HW193413   0.627   4.864   9.118  3.3040 -1.1315  0.6848
62185SOL    HW293414   0.641   4.982   9.024 -1.1633 -0.3551  0.7699
62186SOL     OW93415   8.757   8.240   7.580  0.2084 -0.1677  0.3427
62186SOL    HW193416   8.706   8.183   7.522  1.4700  1.1436 -2.2264
62186SOL    HW293417   8.848   8.209   7.569  0.9729  2.4292 -1.3841
62187SOL     OW93418   1.271   6.214   5.635  0.3264  0.1419 -0.3510
62187SOL    HW193419   1.245   6.202   5.543  1.1866  1.5856 -0.8262
62187SOL    HW293420   1.362   6.245   5.629  0.5247 -0.1296  1.0243
62188SOL     OW93421  10.723   5.539   5.320 -0.0384  0.2963  0.5269
62188SOL    HW193422  10.816   5.538   5.341 -0.1244  0.5958  0.9336
62188SOL    HW293423  10.704   5.450   5.289  0.2878  0.1114  0.8517
62189SOL     OW93424   5.681   6.402  11.453 -0.1921 -0.2493  0.2376
62189SOL    HW193425   5.710   6.472  11.512 -0.3919 -0.9503  1.1852
62189SOL    HW293426   5.691   6.322  11.503 -1.2125 -0.7835 -0.3634
62190SOL     OW93427  10.259   6.960   6.287  0.0431 -0.0973  0.5479
62190SOL    HW193428  10.320   7.015   6.336  0.9905 -0.2268 -0.4340
62190SOL    HW293429  10.250   7.003   6.201  3.3060 -2.9185 -1.4771
62191SOL     OW93430   5.807   5.917  11.677  0.1340 -0.3242 -0.4200
62191SOL    HW193431   5.841   5.938  11.764  0.1445  1.0103 -0.7225
62191SOL    HW293432   5.722   5.877  11.694 -0.5706  1.3354  0.1911
62192SOL     OW93433  11.100   0.507   3.058 -0.3130  0.3106 -0.2060
62192SOL    HW193434  11.026   0.526   3.117 -2.7775 -0.8619 -2.6787
62192SOL    HW293435  11.110   0.587   3.006  0.9563  0.8579  0.8343
62193SOL     OW93436   1.589   0.011   5.010 -0.4371 -0.0116 -0.1628
62193SOL    HW193437   1.645  -0.038   5.071 -0.3827 -1.7091 -1.5158
62193SOL    HW293438   1.544   0.074   5.066 -0.9994 -2.0168  1.8204
62194SOL     OW93439   2.335  10.555   6.243  0.2317  0.5594 -0.0700
62194SOL    HW193440   2.348  10.598   6.327  1.6345 -0.3141  0.1859
62194SOL    HW293441   2.240  10.551   6.232  0.0500  1.2875  1.1435
62195SOL     OW93442   0.014   7.862   8.217 -0.0202  0.6245 -0.1751
62195SOL    HW193443  -0.041   7.794   8.256  0.7509 -0.6643 -1.2451
62195SOL    HW293444   0.015   7.841   8.124  1.5315  1.1513 -0.3024
62196SOL     OW93445   3.835   8.498   4.129  0.0298  0.6695 -0.4574
62196SOL    HW193446   3.853   8.588   4.105 -0.5196  0.5367 -1.4000
62196SOL    HW293447   3.921   8.459   4.144  0.3000  1.1523 -0.7453
62197SOL     OW93448  10.891   7.078   3.607 -0.4792  0.2769  0.4106
62197SOL    HW193449  10.896   7.020   3.531  0.1833 -0.3352  0.9091
62197SOL    HW293450  10.850   7.158   3.574 -0.0232  0.0917 -0.6358
62198SOL     OW93451   8.088   6.015   3.043 -0.2736 -0.2923 -0.2094
62198SOL    HW193452   8.083   6.110   3.054  1.8328 -0.1648  0.2378
62198SOL    HW293453   8.004   5.982   3.073 -1.3000  1.4775 -1.0097
62199SOL     OW93454  10.860   2.052   5.089  0.7977  0.0994 -0.2379
62199SOL    HW193455  10.850   1.991   5.016  2.5543 -0.5136 -0.0206
62199SOL    HW293456  10.806   2.015   5.159  1.5354 -1.0247 -0.2365
62200SOL     OW93457  10.716   5.859   7.741 -0.6185  0.3210 -0.0656
62200SOL    HW193458  10.775   5.891   7.810 -1.3363 -0.8820  1.1481
62200SOL    HW293459  10.713   5.764   7.753 -1.6714  0.2053 -1.0287
62201SOL     OW93460   9.384   0.084  12.236 -0.0206  0.0031 -0.5574
62201SOL    HW193461   9.478   0.102  12.241  0.1695 -0.9353 -0.7006
62201SOL    HW293462   9.349   0.156  12.184  0.3711  1.2127  0.7669
62202SOL     OW93463  11.005   6.139   6.086  0.5211 -0.8673 -0.3189
62202SOL    HW193464  10.988   6.122   5.994  0.1566  2.3709 -0.9594
62202SOL    HW293465  11.016   6.233   6.092 -2.0384 -0.5625  3.3468
62203SOL     OW93466   3.750   4.239   9.722 -0.0212  0.5514  0.0044
62203SOL    HW193467   3.773   4.182   9.796  0.6588  0.5570 -0.1920
62203SOL    HW293468   3.789   4.195   9.646  0.5410  1.2927 -0.1461
62204SOL     OW93469   5.440   6.514   7.754 -0.1944 -0.4418  0.3904
62204SOL    HW193470   5.382   6.589   7.768  0.1299 -0.2548  0.7378
62204SOL    HW293471   5.489   6.536   7.675 -1.8599 -1.3943 -0.9739
62205SOL     OW93472  10.790   7.712   0.305 -0.0275  0.5875 -0.4390
62205SOL    HW193473  10.754   7.766   0.376 -0.8984  0.3356 -0.6802
62205SOL    HW293474  10.714   7.686   0.254  0.3602 -0.9783 -0.2534
62206SOL     OW93475   0.937   7.058   2.112  0.1253  0.4255  0.0529
62206SOL    HW193476   0.892   6.974   2.124  0.6017 -0.2059 -2.2719
62206SOL    HW293477   0.872   7.123   2.140 -1.5587 -0.5631 -1.3198
62207SOL     OW93478   3.544   2.808   4.439  0.3781  0.0833  0.2508
62207SOL    HW193479   3.531   2.819   4.534 -0.7435 -1.1137  0.2695
62207SOL    HW293480   3.627   2.851   4.421  0.7556  0.0860  1.8396
62208SOL     OW93481   5.739   4.897  11.173  0.0472 -0.2474 -0.3777
62208SOL    HW193482   5.656   4.851  11.175 -0.0959  0.0179 -0.0169
62208SOL    HW293483   5.805   4.828  11.172 -0.1477 -0.4803  0.9013
62209SOL     OW93484   8.808  12.159   4.201  0.5647 -0.0671 -0.0978
62209SOL    HW193485   8.895  12.197   4.187  0.9089 -0.9336 -0.3785
62209SOL    HW293486   8.824  12.084   4.258  0.1471 -0.8671 -1.0255
62210SOL     OW93487   1.896   9.618   5.189 -0.4375  0.2851  0.0623
62210SOL    HW193488   1.940   9.630   5.105 -0.0727 -2.1425 -0.1620
62210SOL    HW293489   1.963   9.635   5.255 -0.2143  0.3810 -0.1885
62211SOL     OW93490   7.176   0.292  11.097  0.0806  0.1141  0.5487
62211SOL    HW193491   7.227   0.238  11.158  1.0713  0.7516  0.3006
62211SOL    HW293492   7.190   0.251  11.012  1.5154  1.2192  0.2276
62212SOL     OW93493   3.122   6.565   4.393  0.1225  0.5531 -0.0758
62212SOL    HW193494   3.095   6.656   4.380  0.5877  0.7173  0.1091
62212SOL    HW293495   3.175   6.567   4.472  3.5345  0.8492 -2.1998
62213SOL     OW93496   3.677   8.394   1.478  0.0733  0.1572  0.5099
62213SOL    HW193497   3.653   8.470   1.530  0.0054  0.1641  0.4680
62213SOL    HW293498   3.626   8.403   1.397  0.2797  0.2176  0.3860
62214SOL     OW93499   1.730   8.050   9.053 -1.0372 -0.2211 -0.1636
62214SOL    HW193500   1.644   8.029   9.090  0.1844 -1.8749  2.0540
62214SOL    HW293501   1.771   7.964   9.039  0.8552  0.5282  0.4718
62215SOL     OW93502  10.541   4.559  12.520 -0.1299 -0.4774 -0.2116
62215SOL    HW193503  10.533   4.653  12.503 -0.6311 -0.6921 -1.2472
62215SOL    HW293504  10.615   4.531  12.466  1.5802 -0.2824  1.9109
62216SOL     OW93505   3.148  10.405   6.603 -0.5713 -0.2313 -0.3651
62216SOL    HW193506   3.065  10.430   6.642 -0.7515 -0.8683 -0.3201
62216SOL    HW293507   3.180  10.334   6.659  0.5575  0.7487  0.2867
62217SOL     OW93508  10.632   1.869   5.862 -0.3630 -0.3051 -0.1940
62217SOL    HW193509  10.585   1.790   5.833  1.4085 -0.9848 -1.3533
62217SOL    HW293510  10.718   1.837   5.889  0.8815  1.3355 -1.9687
62218SOL     OW93511   0.175   4.335   7.668 -0.1851  0.4651 -0.2738
62218SOL    HW193512   0.174   4.311   7.761 -0.5496 -0.6302 -0.5453
62218SOL    HW293513   0.212   4.422   7.666  4.6677 -1.2939  0.5065
62219SOL     OW93514   5.345   1.601   6.600 -0.4933  0.0747 -0.5930
62219SOL    HW193515   5.275   1.633   6.657  0.9545  0.7026  0.9027
62219SOL    HW293516   5.337   1.653   6.520 -0.4763  1.6274  0.3680
62220SOL     OW93517   8.973   7.428  10.903 -0.2007  0.2997  0.0497
62220SOL    HW193518   8.892   7.479  10.901 -0.4488 -0.1088 -0.6968
62220SOL    HW293519   9.021   7.462  10.979 -1.7267 -0.4784  1.4281
62221SOL     OW93520   8.011   1.204   0.944 -0.3347  0.0179  0.1396
62221SOL    HW193521   8.047   1.274   0.999 -2.1624  2.8576 -1.9645
62221SOL    HW293522   8.038   1.228   0.855 -1.2285 -1.8702 -0.6858
62222SOL     OW93523   9.372   5.066   9.937 -0.0418  0.0314 -0.0853
62222SOL    HW193524   9.306   5.078   9.868  0.9190 -0.8964 -1.1973
62222SOL    HW293525   9.436   5.135   9.920 -1.1554  1.5681  1.5955
62223SOL     OW93526   3.472   3.609  10.577  0.3600 -0.0137 -0.0845
62223SOL    HW193527   3.492   3.540  10.514  0.9991 -0.9519  1.1007
62223SOL    HW293528   3.378   3.622  10.570  0.5123  0.4036 -1.7143
62224SOL     OW93529   5.926   3.809   9.811 -0.2269 -0.3786 -0.2243
62224SOL    HW193530   5.896   3.894   9.844 -1.4588 -0.4205 -1.1506
62224SOL    HW293531   5.954   3.827   9.721  0.9136 -0.6862  0.0576
62225SOL     OW93532   9.906   0.487   3.191  0.4296  0.1179  0.4924
62225SOL    HW193533   9.971   0.511   3.258  2.0550  0.7955 -1.2337
62225SOL    HW293534   9.949   0.418   3.140 -0.2678  0.4545 -0.5849
62226SOL     OW93535   6.909   0.407   5.144  0.1824  0.2919  0.1202
62226SOL    HW193536   6.987   0.352   5.134  0.8671  1.2028  0.3771
62226SOL    HW293537   6.895   0.446   5.058  0.1732  0.3568  0.1514
62227SOL     OW93538   2.545   6.183  10.661 -0.6148 -0.3675  0.3218
62227SOL    HW193539   2.561   6.141  10.576  0.2742  0.1982  0.1973
62227SOL    HW293540   2.489   6.121  10.708  0.0827 -1.3624 -0.1235
62228SOL     OW93541   1.460   6.208  10.526  0.4074  0.4247  0.1283
62228SOL    HW193542   1.533   6.209  10.589 -0.9428  1.7185  1.7803
62228SOL    HW293543   1.477   6.283  10.469  1.0285 -0.0609 -0.3435
62229SOL     OW93544   6.689   4.661   1.475  0.1443  0.2943  0.5797
62229SOL    HW193545   6.753   4.684   1.408  1.3546 -3.7806  0.0765
62229SOL    HW293546   6.742   4.633   1.550 -1.0120 -1.3800  0.8298
62230SOL     OW93547   1.505   4.656   6.106  0.3673  0.0458  0.2454
62230SOL    HW193548   1.571   4.725   6.093  1.1232 -0.5652  0.7617
62230SOL    HW293549   1.509   4.637   6.200 -1.0670  0.4952  0.4290
62231SOL     OW93550   1.264   6.653   8.300 -0.0742  0.1229 -0.2693
62231SOL    HW193551   1.173   6.675   8.280 -0.6352 -1.5435  0.2741
62231SOL    HW293552   1.295   6.725   8.354 -1.2361  0.4788 -0.0534
62232SOL     OW93553   7.618   7.946  10.799  0.7726  0.3725 -0.0915
62232SOL    HW193554   7.653   7.859  10.815  0.7334  0.5725  1.2835
62232SOL    HW293555   7.614   7.986  10.886 -1.7114  0.7795 -0.3176
62233SOL     OW93556   7.778   4.739   5.850 -0.1180  0.6394  0.3041
62233SOL    HW193557   7.813   4.826   5.833 -1.1300  0.7732 -1.3199
62233SOL    HW293558   7.767   4.700   5.763 -4.4542  0.8562  0.5267
62234SOL     OW93559   1.480   0.594   0.029  0.3368 -0.0950  0.0724
62234SOL    HW193560   1.569   0.594   0.064  0.3143  0.6273  0.1477
62234SOL    HW293561   1.488   0.638  -0.056  0.1586 -0.5964 -0.2042
62235SOL     OW93562  10.633   7.696  11.242 -0.1737 -0.0233  0.3190
62235SOL    HW193563  10.652   7.773  11.188 -0.5395  0.1118  0.3814
62235SOL    HW293564  10.538   7.693  11.247 -0.1486 -0.1967  0.7312
62236SOL     OW93565  12.132   5.464   7.602 -0.1310 -0.8112 -0.0620
62236SOL    HW193566  12.160   5.543   7.648  0.1304 -1.0762  0.2345
62236SOL    HW293567  12.042   5.483   7.576  0.0236 -0.3070 -0.2375
62237SOL     OW93568   1.907   6.081   4.398 -0.4474 -0.1625 -0.1743
62237SOL    HW193569   1.953   6.041   4.472 -1.3283 -1.4021 -0.2678
62237SOL    HW293570   1.854   6.150   4.438  1.2431  1.1372 -0.0390
62238SOL     OW93571   7.384   9.780   8.615  0.5293  0.1616 -0.1782
62238SOL    HW193572   7.335   9.832   8.679 -1.0866 -0.5778 -0.7829
62238SOL    HW293573   7.466   9.759   8.660  0.1184  1.0292  1.0362
62239SOL     OW93574   8.994  12.035   6.600 -0.2572  0.0903 -0.2266
62239SOL    HW193575   8.990  12.118   6.552 -2.5845  0.5491  0.6042
62239SOL    HW293576   8.939  12.049   6.677  2.2844 -1.0593  1.9387
62240SOL     OW93577   5.072   1.619   0.280  0.0403 -0.0661 -0.0624
62240SOL    HW193578   5.034   1.706   0.293  0.7370  0.4134 -1.1168
62240SOL    HW293579   5.023   1.581   0.208 -0.8443 -0.9266  0.9540
62241SOL     OW93580  11.240   2.394   2.183 -0.1741  0.1490  0.0666
62241SOL    HW193581  11.272   2.356   2.265 -0.1756  0.5221  0.2442
62241SOL    HW293582  11.166   2.450   2.210 -2.0383 -1.9014 -0.5041
62242SOL     OW93583   5.683  10.303   0.517  0.3564 -0.1123  0.0378
62242SOL    HW193584   5.637  10.263   0.443  1.0840  1.1967 -1.1912
62242SOL    HW293585   5.622  10.367   0.551 -1.2981 -2.8851  2.7914
62243SOL     OW93586   1.967   6.352   7.513  0.7291  0.8457 -0.3789
62243SOL    HW193587   1.946   6.434   7.468 -2.5087  1.1967  1.4263
62243SOL    HW293588   1.970   6.376   7.605  1.5837 -0.7791  0.0500
62244SOL     OW93589   0.391   0.988  10.070  0.5825  0.1727  0.1629
62244SOL    HW193590   0.444   0.912  10.048  0.6412  0.0770  0.6337
62244SOL    HW293591   0.432   1.025  10.148  0.3581  0.4919  0.1323
62245SOL     OW93592   4.449   2.792   4.581  0.1708  0.1381  0.6423
62245SOL    HW193593   4.386   2.861   4.602 -0.1436 -0.3078  1.1850
62245SOL    HW293594   4.440   2.728   4.651 -1.1953 -1.6174 -1.0310
62246SOL     OW93595  12.222  11.761   0.400  0.4943  0.2428  0.0268
62246SOL    HW193596  12.176  11.766   0.316  0.3387 -1.3273 -0.0118
62246SOL    HW293597  12.159  11.793   0.464 -0.7795 -1.9568 -0.0174
62247SOL     OW93598  11.367   3.256   7.838  0.5333  0.3842 -0.2223
62247SOL    HW193599  11.405   3.211   7.913 -2.4321 -0.5128  0.8919
62247SOL    HW293600  11.365   3.191   7.768 -1.3264 -0.5170  0.5813
62248SOL     OW93601  10.589   3.901   5.468 -0.2579 -0.2665 -0.0348
62248SOL    HW193602  10.616   3.991   5.449 -0.5295 -0.2239 -0.2140
62248SOL    HW293603  10.672   3.854   5.482 -0.1488  0.6043  2.8328
62249SOL     OW93604   4.791   8.350   7.082 -0.2226 -0.2308  0.4695
62249SOL    HW193605   4.791   8.256   7.101 -2.0760 -0.1522  1.0465
62249SOL    HW293606   4.830   8.358   6.995 -0.3661 -1.5536  0.2762
62250SOL     OW93607  11.980   9.111  10.258 -0.1946  0.7836  0.0834
62250SOL    HW193608  11.887   9.113  10.280 -0.7006 -3.7641 -0.5656
62250SOL    HW293609  11.982   9.102  10.163  0.6870 -1.0016  0.2207
62251SOL     OW93610   7.010   1.369  10.723 -0.4863  0.4087  0.1254
62251SOL    HW193611   7.098   1.332  10.731 -0.1780  1.2488  0.6768
62251SOL    HW293612   7.021   1.450  10.674 -1.1351 -0.0821 -0.8755
62252SOL     OW93613   5.038   3.781   0.884  0.2542 -0.2077 -0.4124
62252SOL    HW193614   4.948   3.803   0.864 -0.1172  1.1448  2.3225
62252SOL    HW293615   5.088   3.860   0.863  0.4735 -0.2393 -0.0314
62253SOL     OW93616  10.626   1.804   7.607  0.0964 -0.2557 -0.1962
62253SOL    HW193617  10.702   1.790   7.550 -0.8125 -0.8962 -1.2836
62253SOL    HW293618  10.651   1.762   7.690  1.5452  0.9364  0.0153
62254SOL     OW93619   6.298   8.503   3.112 -0.1154  0.5137  0.0271
62254SOL    HW193620   6.306   8.492   3.207 -1.5554  1.0470  0.2375
62254SOL    HW293621   6.383   8.475   3.078  0.0961 -0.6458  1.3854
62255SOL     OW93622   9.035   9.494   7.151 -0.3950  0.2953 -0.1660
62255SOL    HW193623   9.039   9.585   7.123  0.9168 -0.2257 -1.7851
62255SOL    HW293624   8.959   9.458   7.106 -2.0498  0.9848  1.9074
62256SOL     OW93625  12.428   9.419   9.803 -0.3732  0.0344  0.2754
62256SOL    HW193626  12.352   9.444   9.750 -0.2645 -0.4993 -0.1504
62256SOL    HW293627  12.470   9.350   9.752  0.6860  0.6699  0.2605
62257SOL     OW93628   1.575  11.878   9.258 -0.7613  0.4395 -0.2023
62257SOL    HW193629   1.520  11.891   9.335 -0.4559  1.8871 -0.1905
62257SOL    HW293630   1.634  11.954   9.258  2.0988 -1.5983  0.4720
62258SOL     OW93631   8.238  12.474  10.877 -0.2067 -0.2175 -0.0029
62258SOL    HW193632   8.311  12.498  10.934  0.2413  0.0224 -0.6751
62258SOL    HW293633   8.278  12.424  10.806 -0.6781 -0.0011 -0.4290
62259SOL     OW93634   1.150  10.530   2.297  0.2437 -0.1925  0.2128
62259SOL    HW193635   1.119  10.461   2.356 -1.7645 -1.0124 -1.6771
62259SOL    HW293636   1.205  10.585   2.352 -0.7871 -1.4091  2.6151
62260SOL     OW93637   1.422   7.990   1.205 -0.1557 -0.1547  0.6219
62260SOL    HW193638   1.508   7.975   1.165 -0.3751  0.7529 -0.2601
62260SOL    HW293639   1.360   7.956   1.140 -0.5189  1.3185  0.1472
62261SOL     OW93640   8.577   1.376   6.037 -0.2191 -0.6381  0.0123
62261SOL    HW193641   8.555   1.291   6.000 -0.4399 -0.1484 -1.0306
62261SOL    HW293642   8.669   1.369   6.061 -0.4361 -1.4105  0.6699
62262SOL     OW93643   6.008   0.154   4.349 -0.0111 -0.2834  0.3010
62262SOL    HW193644   5.923   0.150   4.393 -0.1872 -1.2330 -0.1000
62262SOL    HW293645   6.062   0.210   4.406 -0.2446 -1.4247  1.7100
62263SOL     OW93646   2.907   9.597   1.215 -0.3359 -0.0383  0.4906
62263SOL    HW193647   2.907   9.653   1.137  0.3552  0.6023  0.9401
62263SOL    HW293648   2.923   9.509   1.181  0.8842  0.3566 -0.0317
62264SOL     OW93649   9.164   2.750   5.137  0.1930 -0.0161  0.4372
62264SOL    HW193650   9.117   2.725   5.057  1.6717  0.6311 -0.6677
62264SOL    HW293651   9.120   2.830   5.165  0.4724  0.4617 -0.4550
62265SOL     OW93652  12.140   5.350   2.640 -0.2210 -0.2992  0.0567
62265SOL    HW193653  12.094   5.271   2.610  1.4974 -0.7931 -1.4218
62265SOL    HW293654  12.076   5.394   2.696 -1.9169 -1.7488 -0.6187
62266SOL     OW93655   1.344   6.449   0.034  0.1532 -0.2190 -0.2360
62266SOL    HW193656   1.334   6.489  -0.052 -0.9229 -0.0930 -0.0651
62266SOL    HW293657   1.359   6.522   0.094 -2.0023  0.0187  0.1050
62267SOL     OW93658   2.841   9.972   4.045  0.0411  0.3995  0.2890
62267SOL    HW193659   2.774  10.039   4.034  0.6761  0.8653 -0.9816
62267SOL    HW293660   2.886   9.995   4.126 -0.7403  0.5952  0.6796
62268SOL     OW93661   4.224   2.928   4.950  0.1699 -0.1309  0.4064
62268SOL    HW193662   4.280   2.953   4.876 -0.3190 -0.8012 -0.2055
62268SOL    HW293663   4.220   3.006   5.005 -0.5301  0.8252 -0.9527
62269SOL     OW93664   5.548   6.576   7.004  0.0576  0.3939 -0.0615
62269SOL    HW193665   5.580   6.638   7.071 -1.2732  0.7026  0.3204
62269SOL    HW293666   5.601   6.497   7.018  0.6770  0.8899  0.5079
62270SOL     OW93667   0.449   8.808   0.541 -0.5159 -0.0954  0.6810
62270SOL    HW193668   0.403   8.728   0.515  0.0660 -0.2648  0.1316
62270SOL    HW293669   0.542   8.787   0.526 -0.3850  0.8204  0.1277
62271SOL     OW93670   8.009   3.454   1.511  0.4983 -0.3972  0.5331
62271SOL    HW193671   7.999   3.366   1.476  0.5542 -0.0100 -0.4719
62271SOL    HW293672   7.930   3.468   1.563 -1.1595  0.1703 -1.9637
62272SOL     OW93673   0.477   2.585   5.788  0.2763 -0.1668  0.1392
62272SOL    HW193674   0.515   2.573   5.701 -3.6711 -0.0767 -1.8110
62272SOL    HW293675   0.453   2.678   5.790 -3.0273 -0.8895 -0.3740
62273SOL     OW93676   0.915   5.789   4.184 -0.5290 -0.0875 -0.0740
62273SOL    HW193677   0.914   5.885   4.190  2.7911 -0.0514  2.1745
62273SOL    HW293678   0.898   5.760   4.273  2.5814 -1.4118  0.1785
62274SOL     OW93679   1.157   6.687   2.834  0.1165 -0.1832  0.1470
62274SOL    HW193680   1.107   6.764   2.807 -0.2487 -0.3446  0.3436
62274SOL    HW293681   1.237   6.722   2.873  1.4192  0.0275 -2.5438
62275SOL     OW93682   1.679   9.707   4.000 -0.1122 -0.4514  0.3657
62275SOL    HW193683   1.644   9.651   3.932 -0.3476  0.7798 -0.5577
62275SOL    HW293684   1.746   9.759   3.957 -0.0986  0.1824  1.1187
62276SOL     OW93685   5.771   6.712   7.789 -0.3848  0.4655 -0.6263
62276SOL    HW193686   5.859   6.744   7.808 -1.1011  1.3499  1.4382
62276SOL    HW293687   5.781   6.662   7.708  2.2943 -0.6628  0.2858
62277SOL     OW93688   3.613  10.364   0.004 -0.0134  0.0454 -0.3687
62277SOL    HW193689   3.657  10.290   0.047  1.2144  1.6377  1.3414
62277SOL    HW293690   3.565  10.407   0.075  0.2963  1.5459 -1.0233
62278SOL     OW93691   7.221   4.314   4.636  0.0743  0.3094  0.0486
62278SOL    HW193692   7.308   4.327   4.674 -0.1745  1.5683  0.2321
62278SOL    HW293693   7.171   4.390   4.664 -1.1689 -0.5093  0.1409
62279SOL     OW93694  11.315   3.393   5.177 -0.3109  0.1576  0.0997
62279SOL    HW193695  11.353   3.390   5.089  1.7280  0.3663  0.9235
62279SOL    HW293696  11.390   3.384   5.236 -1.8701 -2.7946  1.8610
62280SOL     OW93697   6.226  10.982  12.308 -0.2425 -0.2322 -0.0562
62280SOL    HW193698   6.253  10.941  12.226  0.7586  1.3014 -0.5319
62280SOL    HW293699   6.134  11.003  12.295  0.6459  3.2871 -2.3640
62281SOL     OW93700   8.737   3.835   7.915  0.0593  0.1768 -0.1657
62281SOL    HW193701   8.718   3.824   8.008  0.1068  1.2431 -0.0145
62281SOL    HW293702   8.743   3.930   7.903 -0.2304  0.0651 -1.3149
62282SOL     OW93703   3.431   9.925   5.280  0.0808 -0.5126 -0.3099
62282SOL    HW193704   3.432  10.018   5.303 -1.0411 -0.4080 -0.6112
62282SOL    HW293705   3.505   9.914   5.221  2.0568 -0.4646  2.0299
62283SOL     OW93706   6.942   2.117  12.230 -0.4135 -0.3589 -0.0024
62283SOL    HW193707   7.011   2.171  12.192  0.7324 -0.8286  1.3386
62283SOL    HW293708   6.986   2.066  12.298 -2.1485 -0.4324  1.1193
62284SOL     OW93709   2.811   5.892   8.751  0.2946  0.3327  0.0922
62284SOL    HW193710   2.791   5.985   8.740  0.3716  0.4913  1.1698
62284SOL    HW293711   2.901   5.883   8.720  0.4026  0.6920  0.2921
62285SOL     OW93712   0.699  10.881   0.547  0.1547 -0.3848 -0.2943
62285SOL    HW193713   0.738  10.850   0.629 -1.1054  0.3822  0.6327
62285SOL    HW293714   0.655  10.804   0.511 -0.3343 -0.4286  0.3929
62286SOL     OW93715   6.688   7.982   3.283  0.1643  0.1732 -0.1190
62286SOL    HW193716   6.744   8.060   3.288  0.1331  0.1842  0.0676
62286SOL    HW293717   6.612   8.011   3.233 -0.1623  0.4589  0.5225
62287SOL     OW93718   6.849   8.962   1.218 -0.0626  0.3531  0.0897
62287SOL    HW193719   6.889   8.875   1.212 -2.0625 -0.5926 -0.2655
62287SOL    HW293720   6.818   8.968   1.308  1.2077  1.2776  0.5027
62288SOL     OW93721   0.747   9.714   0.856  0.1833  0.1353  0.8858
62288SOL    HW193722   0.722   9.637   0.907  2.2848 -0.3093  1.3336
62288SOL    HW293723   0.743   9.684   0.765  1.0870 -0.5442  1.0628
62289SOL     OW93724   5.009  10.678   9.577  0.2579  0.6749  0.7126
62289SOL    HW193725   5.077  10.720   9.526 -0.3454  0.8205  0.0080
62289SOL    HW293726   4.927  10.714   9.542 -0.2113 -0.0613  1.0294
62290SOL     OW93727   7.257   9.237   0.043  0.3309  0.2842  0.4674
62290SOL    HW193728   7.331   9.295   0.025  0.2995 -0.3404 -2.0326
62290SOL    HW293729   7.180   9.289   0.019  0.0273  0.3968  1.6067
62291SOL     OW93730  10.147  10.669   3.057  0.2694  0.1345 -0.2944
62291SOL    HW193731  10.058  10.699   3.077  1.3558  2.2672  1.8554
62291SOL    HW293732  10.170  10.713   2.975 -0.9158 -1.1254 -1.3376
62292SOL     OW93733   0.677   3.453  11.346  0.0788 -0.3750  0.4213
62292SOL    HW193734   0.771   3.453  11.364  0.5411 -0.5045 -1.6510
62292SOL    HW293735   0.651   3.360  11.351  0.1428 -0.3796  0.6487
62293SOL     OW93736   4.590   9.991  10.008 -0.0311  0.1273 -0.3478
62293SOL    HW193737   4.535  10.040  10.070  0.3039  0.3450 -0.2189
62293SOL    HW293738   4.560   9.900  10.016  0.6536 -0.0153  0.8480
62294SOL     OW93739   8.252   5.127   6.202 -0.5864 -0.1797  0.0146
62294SOL    HW193740   8.253   5.043   6.157  0.4544 -0.5190  0.6408
62294SOL    HW293741   8.256   5.105   6.295  2.5800  0.5382  0.1737
62295SOL     OW93742   9.993   9.525   5.810 -0.0143  0.1323  0.0039
62295SOL    HW193743   9.975   9.461   5.741 -0.2899 -0.4225  0.5788
62295SOL    HW293744  10.085   9.549   5.797  0.1591 -0.5571 -0.0768
62296SOL     OW93745   2.278   2.185   7.123 -0.3649 -0.0569  0.2544
62296SOL    HW193746   2.212   2.140   7.070 -0.3346 -0.8089  0.8439
62296SOL    HW293747   2.361   2.166   7.079 -0.3600 -0.5252  0.4615
62297SOL     OW93748   3.554   3.779   6.032  0.5180  0.1908 -0.2954
62297SOL    HW193749   3.604   3.852   6.067  0.9783  0.9301 -2.3392
62297SOL    HW293750   3.467   3.814   6.015  0.5250  0.0723 -0.5939
62298SOL     OW93751   2.859   9.822   6.703 -0.5435  1.0519  0.0110
62298SOL    HW193752   2.814   9.877   6.639  1.4496  2.3590 -0.3730
62298SOL    HW293753   2.939   9.870   6.723  0.3780 -0.8401  1.1231
62299SOL     OW93754  11.526   5.614   8.747  0.6847  0.2057 -0.0669
62299SOL    HW193755  11.588   5.638   8.679 -0.1195 -0.7052 -1.1669
62299SOL    HW293756  11.471   5.692   8.758 -0.0158 -0.0626 -1.4402
62300SOL     OW93757   9.955   8.475   9.975  0.2911 -0.2175 -0.1030
62300SOL    HW193758   9.871   8.447   9.939  0.8680 -0.7091 -1.1023
62300SOL    HW293759   9.967   8.564   9.943 -1.0853  0.9297  2.2746
62301SOL     OW93760   4.507   1.551  10.974 -0.2358 -0.2790  0.6285
62301SOL    HW193761   4.430   1.508  10.936  0.1972 -0.7329  0.2506
62301SOL    HW293762   4.581   1.503  10.939  0.1813 -0.9018  2.2763
62302SOL     OW93763   3.498   5.626   2.601  0.2541  0.4028  0.5479
62302SOL    HW193764   3.426   5.689   2.603  0.2133  0.3487  0.8847
62302SOL    HW293765   3.479   5.566   2.673 -0.8626 -1.2938 -1.0578
62303SOL     OW93766   7.195   7.613   2.296  0.1115 -0.4911 -0.3807
62303SOL    HW193767   7.274   7.666   2.282 -0.6657  0.7209 -0.2910
62303SOL    HW293768   7.223   7.544   2.356  1.0092  0.1636 -0.0225
62304SOL     OW93769   1.697   5.794   4.262  0.0371 -0.0941 -0.3135
62304SOL    HW193770   1.694   5.889   4.260  0.0812 -0.1021 -1.5848
62304SOL    HW293771   1.610   5.766   4.233  0.0598 -0.4518 -0.0579
62305SOL     OW93772   0.322   1.138   2.024  0.2066  0.2068 -0.2983
62305SOL    HW193773   0.295   1.160   2.113 -3.2908 -0.5852 -1.0120
62305SOL    HW293774   0.369   1.055   2.034 -0.4856 -0.0834  0.7930
62306SOL     OW93775   3.266   6.032  11.502 -0.2460  0.3384 -0.5390
62306SOL    HW193776   3.220   6.115  11.490  0.0296  0.4787 -0.6407
62306SOL    HW293777   3.351   6.057  11.537  0.6045  0.2523 -2.4276
62307SOL     OW93778   0.980   3.557   9.126 -0.0160  0.1080  0.2992
62307SOL    HW193779   0.898   3.585   9.167  0.0450  0.8137 -0.0591
62307SOL    HW293780   1.005   3.629   9.068  0.8845 -0.0760  0.4347
62308SOL     OW93781   8.990  11.279   3.592 -0.1399 -0.5149 -0.0839
62308SOL    HW193782   8.980  11.269   3.687  0.8939  0.5978  0.1735
62308SOL    HW293783   9.031  11.197   3.564 -2.1864 -1.6668  0.0855
62309SOL     OW93784   4.256  10.490   0.717 -0.1406 -0.0603 -0.0158
62309SOL    HW193785   4.222  10.557   0.777  0.4521  0.0404  0.2088
62309SOL    HW293786   4.340  10.464   0.755 -0.4746 -1.1141  0.0369
62310SOL     OW93787   4.100   6.720  10.449 -0.1862 -0.2019 -0.5547
62310SOL    HW193788   4.035   6.658  10.480 -0.1030 -0.6295 -1.2045
62310SOL    HW293789   4.089   6.721  10.354  0.5885 -0.1039 -0.6546
62311SOL     OW93790  12.355   0.199  10.321  0.9600 -0.4985 -0.0145
62311SOL    HW193791  12.396   0.121  10.359 -0.2734 -0.9419  0.4435
62311SOL    HW293792  12.346   0.177  10.228  2.6319  0.0057 -0.3339
62312SOL     OW93793   9.535   4.938   4.577  0.3827  0.1567 -0.0298
62312SOL    HW193794   9.476   4.863   4.587  0.0707  0.1612 -1.5614
62312SOL    HW293795   9.520   4.968   4.487  0.6804  1.9139  0.4695
62313SOL     OW93796   5.948  12.427   9.199 -0.5904 -0.3194 -0.8356
62313SOL    HW193797   5.870  12.416   9.146 -1.2167 -0.6519  0.1289
62313SOL    HW293798   5.976  12.337   9.219  0.3549 -0.2211 -1.5907
62314SOL     OW93799   6.181   0.861   2.231 -0.0307  0.1603 -0.3599
62314SOL    HW193800   6.098   0.853   2.278  0.5833  0.3888  0.8065
62314SOL    HW293801   6.218   0.773   2.230 -1.0662 -0.3022 -2.4289
62315SOL     OW93802   6.769   1.330   8.828  0.3819 -0.3908  0.3480
62315SOL    HW193803   6.821   1.377   8.893 -0.5415 -2.2469  2.5591
62315SOL    HW293804   6.736   1.398   8.769  2.2267  1.2187  1.0748
62316SOL     OW93805   5.545   0.463   1.108  0.0118  0.2326 -0.6347
62316SOL    HW193806   5.628   0.462   1.060  1.0922 -0.5419  1.1647
62316SOL    HW293807   5.566   0.429   1.195 -2.0419  0.7635  0.1447
62317SOL     OW93808   3.896  11.116   5.336  0.7300  0.2955 -0.1240
62317SOL    HW193809   3.966  11.083   5.279 -0.2672 -0.6280 -0.8464
62317SOL    HW293810   3.819  11.120   5.279  0.4205  2.3666  0.3480
62318SOL     OW93811   3.116   2.697   5.589 -0.2897  0.8268  0.3789
62318SOL    HW193812   3.148   2.652   5.511 -0.7689 -0.9481  1.1439
62318SOL    HW293813   3.196   2.720   5.638 -0.0447 -0.1561  0.4640
62319SOL     OW93814   4.338   4.572   9.823 -0.2580  0.2412  0.1599
62319SOL    HW193815   4.335   4.562   9.728 -2.1432 -1.4775  0.3264
62319SOL    HW293816   4.406   4.637   9.839 -0.3054  1.0057 -2.3915
62320SOL     OW93817   7.118   0.862   4.021 -0.8810  0.4519 -0.0520
62320SOL    HW193818   7.072   0.910   3.953 -2.2057 -1.5884 -0.7050
62320SOL    HW293819   7.060   0.789   4.042  1.7355 -1.9799 -0.5239
62321SOL     OW93820   6.791  11.484   3.168 -0.5019  0.1109  0.0910
62321SOL    HW193821   6.729  11.428   3.215  1.3812 -0.6057  1.8597
62321SOL    HW293822   6.839  11.531   3.237  2.9812 -1.6111 -0.9228
62322SOL     OW93823   2.974   3.602   2.229  0.5617 -0.5825 -0.4421
62322SOL    HW193824   2.974   3.665   2.302 -1.3691 -1.9120  0.8113
62322SOL    HW293825   3.037   3.638   2.167  1.3825  1.2681  1.3214
62323SOL     OW93826  11.924   0.681   1.498  0.5508  0.4955  0.4312
62323SOL    HW193827  11.849   0.651   1.446  1.2336 -0.6885  0.0928
62323SOL    HW293828  11.933   0.774   1.477  1.4429 -0.1475 -2.4189
62324SOL     OW93829   4.456   1.059  12.054 -0.6566  0.5622  0.7694
62324SOL    HW193830   4.525   1.109  12.098  0.5253  0.4591 -0.8822
62324SOL    HW293831   4.482   0.968  12.064 -1.1565  0.4426  1.0637
62325SOL     OW93832   7.271   9.946  12.092  0.0357  0.0396  0.0673
62325SOL    HW193833   7.361   9.977  12.086  0.0360 -0.2081 -1.4171
62325SOL    HW293834   7.218  10.026  12.086  0.1315  0.2187  1.2429
62326SOL     OW93835   4.654   1.139   3.966 -0.9102  0.0641 -0.3508
62326SOL    HW193836   4.646   1.143   4.061  0.6864 -1.0288 -0.1506
62326SOL    HW293837   4.729   1.195   3.946 -0.4372 -0.7450 -0.8491
62327SOL     OW93838  10.077   3.965   7.322  0.7609 -0.1852  0.2487
62327SOL    HW193839  10.069   3.873   7.299  1.8749  0.1037 -1.5613
62327SOL    HW293840   9.994   4.004   7.296  0.3063 -0.6536  0.9785
62328SOL     OW93841   3.323   8.951   9.187 -0.2644  0.3699 -0.4433
62328SOL    HW193842   3.405   8.997   9.171 -1.3955  2.3758 -0.8084
62328SOL    HW293843   3.262   8.986   9.121 -1.3590 -1.2715 -0.3770
62329SOL     OW93844   7.258  11.433  11.389 -0.8098  0.3995 -0.3625
62329SOL    HW193845   7.297  11.514  11.422  0.6791 -0.0198 -1.0071
62329SOL    HW293846   7.183  11.462  11.337  0.2776  1.4636 -1.4130
62330SOL     OW93847  10.421  11.460   1.521  0.6007  0.3354 -0.4510
62330SOL    HW193848  10.376  11.529   1.570 -1.0185 -0.9717 -0.0078
62330SOL    HW293849  10.497  11.438   1.576 -0.8840 -0.7263  1.2848
62331SOL     OW93850  11.117   8.695   7.780  0.0847  0.2136  0.0394
62331SOL    HW193851  11.154   8.614   7.745 -0.9924 -0.4041  0.2973
62331SOL    HW293852  11.070   8.733   7.706 -1.0423 -0.3989  0.4226
62332SOL     OW93853   8.093   7.061   9.896  0.3990  0.3450 -0.3716
62332SOL    HW193854   8.161   7.043   9.961  1.7106  1.3432 -1.3960
62332SOL    HW293855   8.016   7.016   9.929  1.4964 -0.6806  0.9426
62333SOL     OW93856  11.068   8.099   7.850 -0.1867  0.2240 -0.6604
62333SOL    HW193857  11.160   8.125   7.857 -0.4288  1.0522 -0.4434
62333SOL    HW293858  11.067   8.035   7.779  0.7451 -0.7040  0.1270
62334SOL     OW93859  12.027   5.817   1.117  0.9111 -0.0783 -0.4443
62334SOL    HW193860  12.021   5.862   1.202  1.0463 -0.7026 -0.0966
62334SOL    HW293861  11.936   5.795   1.096  0.7105  1.3329 -1.1666
62335SOL     OW93862  10.598  10.302   0.036 -0.7705  0.4023  0.3144
62335SOL    HW193863  10.665  10.369   0.048  1.6029 -1.7810  0.1467
62335SOL    HW293864  10.566  10.284   0.125 -0.5472  0.8943  0.4959
62336SOL     OW93865   6.427  12.271   6.695  0.1355  0.3315  0.3540
62336SOL    HW193866   6.489  12.215   6.649 -0.1451  0.4705 -0.1991
62336SOL    HW293867   6.483  12.332   6.744  0.4430  0.5543 -0.2578
62337SOL     OW93868   3.986   5.449   5.261  0.2216 -0.0675 -0.1631
62337SOL    HW193869   4.074   5.412   5.257 -0.3627 -1.4410 -0.9849
62337SOL    HW293870   3.947   5.427   5.177 -0.4621  1.7054 -0.3344
62338SOL     OW93871   6.790   0.245   0.755  0.6748 -0.0686  0.1377
62338SOL    HW193872   6.700   0.249   0.722  0.4565  0.9774  0.8084
62338SOL    HW293873   6.843   0.222   0.678 -0.2709 -1.8353 -0.0268
62339SOL     OW93874  11.765   8.279   0.955  0.2117  0.4156 -0.2769
62339SOL    HW193875  11.674   8.262   0.931  0.3208 -2.5324  0.9895
62339SOL    HW293876  11.814   8.271   0.873 -0.3986 -0.4572 -0.5650
62340SOL     OW93877  10.426   0.188   3.589  0.6136 -0.4382  0.1269
62340SOL    HW193878  10.509   0.233   3.574 -0.4909  1.6746  0.0074
62340SOL    HW293879  10.450   0.108   3.636  2.9656 -1.2326 -2.1496
62341SOL     OW93880   8.456   7.076   6.789  0.0602 -0.1050  0.4457
62341SOL    HW193881   8.491   7.083   6.878  0.1514  0.1756  0.3879
62341SOL    HW293882   8.361   7.086   6.800  0.1155  0.4571  0.4549
62342SOL     OW93883  10.241   4.022   1.029  0.5781  0.0928 -0.7650
62342SOL    HW193884  10.200   3.936   1.038 -0.8039  0.5591 -2.0805
62342SOL    HW293885  10.247   4.055   1.119 -1.4611 -0.2544 -0.4423
62343SOL     OW93886   9.101   9.700   3.742  0.0785  0.2692 -0.2624
62343SOL    HW193887   9.134   9.666   3.659  3.0737  2.8850 -0.3552
62343SOL    HW293888   9.023   9.750   3.718  1.5142  1.9483 -1.8467
62344SOL     OW93889   9.091   4.291   2.721  0.1680 -0.0690  0.3080
62344SOL    HW193890   9.037   4.299   2.643 -0.1171 -1.1369  0.3840
62344SOL    HW293891   9.033   4.252   2.787  0.8755 -0.7509  0.5467
62345SOL     OW93892   7.244   2.082  11.638 -0.0844  0.0211  0.7606
62345SOL    HW193893   7.274   2.032  11.562  0.5350  0.9277  0.3855
62345SOL    HW293894   7.299   2.051  11.710  2.0316  1.8567  0.0214
62346SOL     OW93895   6.389   8.254   9.149 -0.6661 -0.0819  0.3514
62346SOL    HW193896   6.345   8.303   9.219  1.6027  0.2255  1.6306
62346SOL    HW293897   6.372   8.162   9.170 -3.0940 -0.0099 -0.8501
62347SOL     OW93898   7.713   9.513  11.279  0.1393 -0.2294 -0.0795
62347SOL    HW193899   7.695   9.603  11.308  0.2910 -0.2063 -0.0548
62347SOL    HW293900   7.745   9.469  11.357 -0.3856 -0.4351  0.0202
62348SOL     OW93901   6.240   0.625   8.541 -0.3777  0.2021  0.6415
62348SOL    HW193902   6.170   0.622   8.606 -0.1940  0.1341  0.8359
62348SOL    HW293903   6.243   0.537   8.504 -1.5568  0.6438 -0.6025
62349SOL     OW93904   3.356   8.018   2.311 -0.8706  0.1557 -0.0959
62349SOL    HW193905   3.308   7.973   2.242 -0.2988  0.4037 -0.6654
62349SOL    HW293906   3.296   8.087   2.340 -0.7669  0.6389 -0.9887
62350SOL     OW93907   8.577   6.338   8.499  0.0387 -0.4216  0.1019
62350SOL    HW193908   8.523   6.260   8.514 -1.4625  0.3153 -1.1479
62350SOL    HW293909   8.525   6.410   8.534  0.8045  0.1642  0.0481
62351SOL     OW93910   9.487   9.916   0.605  0.8762  0.0907  0.2547
62351SOL    HW193911   9.501   9.967   0.685  0.9158 -2.2650  1.8330
62351SOL    HW293912   9.441   9.976   0.547  0.6236  1.8209  2.1230
62352SOL     OW93913  10.133   7.609   0.500  0.1754 -0.0434  0.5967
62352SOL    HW193914  10.084   7.527   0.492 -1.3378  0.9504 -1.1342
62352SOL    HW293915  10.190   7.596   0.576  0.5888 -2.9911 -0.0961
62353SOL     OW93916   7.642  10.577   0.660 -0.4111  0.6265  0.7953
62353SOL    HW193917   7.598  10.643   0.714 -1.0843 -1.2126  2.6122
62353SOL    HW293918   7.684  10.518   0.723  1.3091  0.0276 -0.8012
62354SOL     OW93919   9.124  11.333   0.401  0.2026  0.2964 -0.3475
62354SOL    HW193920   9.067  11.307   0.329  0.2841  1.7974 -0.9952
62354SOL    HW293921   9.213  11.319   0.368  0.2510  1.5303 -0.7842
62355SOL     OW93922   6.779  11.370   0.375 -0.3072  0.0721 -0.4635
62355SOL    HW193923   6.690  11.335   0.380 -0.6445  1.0593  0.9519
62355SOL    HW293924   6.767  11.459   0.343  0.1119  0.4148  0.3192
62356SOL     OW93925   5.795   2.795   1.307  0.5211  0.0622 -0.7512
62356SOL    HW193926   5.839   2.737   1.369 -1.0077 -0.6999 -0.3190
62356SOL    HW293927   5.705   2.762   1.302 -0.2080  1.9325 -1.0814
62357SOL     OW93928   6.457  11.595   4.123  0.0238  0.0362 -0.0179
62357SOL    HW193929   6.476  11.508   4.088 -0.7347 -0.0715 -0.1828
62357SOL    HW293930   6.466  11.585   4.218 -2.0749 -0.7836  0.1481
62358SOL     OW93931   5.652   3.638   7.000  0.0552  0.1412  0.1244
62358SOL    HW193932   5.647   3.542   6.993  0.1664 -0.0209  1.8533
62358SOL    HW293933   5.745   3.658   6.995  0.0071  0.2165 -0.6387
62359SOL     OW93934   5.435  12.276  12.106  0.4203 -0.2957  0.1408
62359SOL    HW193935   5.459  12.340  12.174 -1.3519  0.3046  0.2499
62359SOL    HW293936   5.421  12.195  12.154 -1.3320  0.2465  0.6239
62360SOL     OW93937  10.729   1.856   7.986 -0.3617 -0.1007  0.6329
62360SOL    HW193938  10.817   1.826   8.007  0.3229  1.8390  0.7219
62360SOL    HW293939  10.742   1.923   7.919 -2.0780 -2.3030 -2.1371
62361SOL     OW93940   5.748  10.939   4.102 -0.5320  0.1828  0.6859
62361SOL    HW193941   5.701  10.963   4.022  0.0649  1.1776  0.6235
62361SOL    HW293942   5.725  10.847   4.116 -0.5613 -0.0456 -0.6881
62362SOL     OW93943  10.026  11.006   5.083  0.5289 -0.4766 -0.0009
62362SOL    HW193944  10.066  10.935   5.132  0.3885 -0.4559  0.1437
62362SOL    HW293945   9.935  11.009   5.114  0.6531  0.0562  0.3203
62363SOL     OW93946   1.547   4.699   0.951 -1.2166 -0.1218  0.2055
62363SOL    HW193947   1.488   4.632   0.916  0.9867 -1.4731 -1.1574
62363SOL    HW293948   1.548   4.767   0.884  0.0493 -0.9243 -0.6376
62364SOL     OW93949   4.588   3.316  10.862 -0.0518  0.7457  0.0630
62364SOL    HW193950   4.659   3.254  10.879 -0.6861 -0.0651 -0.1895
62364SOL    HW293951   4.547   3.329  10.947 -0.2960  0.3311  0.0147
62365SOL     OW93952   5.975   0.545   1.788  0.2830 -0.1185  0.0387
62365SOL    HW193953   5.891   0.500   1.780 -0.1050  0.2099  1.7391
62365SOL    HW293954   6.040   0.479   1.766 -0.3922 -0.6229 -0.4852
62366SOL     OW93955  11.010   2.793   1.326  0.1598 -0.7742  0.4335
62366SOL    HW193956  11.092   2.786   1.374 -0.3326 -1.3952  1.2112
62366SOL    HW293957  10.944   2.762   1.387 -0.5272 -1.2563 -0.5261
62367SOL     OW93958   3.585  10.983   0.226  0.0180  0.1802 -0.1131
62367SOL    HW193959   3.552  10.986   0.316  0.1726  0.2819 -0.0594
62367SOL    HW293960   3.647  10.910   0.226 -0.2911 -0.0847 -0.2433
62368SOL     OW93961   4.090  11.247   2.755  0.7057 -0.0214  0.6337
62368SOL    HW193962   4.020  11.309   2.771  0.4216 -0.4439  1.0718
62368SOL    HW293963   4.151  11.293   2.698 -1.1457 -0.4802 -1.8929
62369SOL     OW93964   4.843   4.033  11.334  0.3095  0.9737 -0.0890
62369SOL    HW193965   4.792   4.113  11.324 -0.3716  0.4957 -0.4522
62369SOL    HW293966   4.822   3.981  11.258  1.4131  0.7984 -0.2935
62370SOL     OW93967   5.675   2.188  10.756 -0.4446  0.2864 -0.0114
62370SOL    HW193968   5.698   2.111  10.808  0.2659 -1.0977 -2.2089
62370SOL    HW293969   5.725   2.259  10.795  0.4350 -0.7939  0.8979
62371SOL     OW93970  10.283   4.405   0.840 -0.0847 -0.4121  0.0281
62371SOL    HW193971  10.206   4.461   0.848  0.0343 -0.3866  1.1318
62371SOL    HW293972  10.356   4.466   0.829 -0.0022 -0.3441  0.8553
62372SOL     OW93973   3.275  10.564  12.521 -0.1166  0.4827 -0.1269
62372SOL    HW193974   3.296  10.542  12.430  1.1191 -0.3586  0.3373
62372SOL    HW293975   3.351  10.613  12.552 -1.4866  2.7740 -0.1898
62373SOL     OW93976   3.518   1.821   5.660 -0.0611  0.0463 -0.0178
62373SOL    HW193977   3.517   1.727   5.643 -0.9173  0.0212  0.1271
62373SOL    HW293978   3.597   1.853   5.615  0.0484 -0.6811 -0.3540
62374SOL     OW93979   4.494   9.675  10.342 -0.5644 -0.1569  0.5841
62374SOL    HW193980   4.582   9.674  10.380 -1.3866 -1.5706  2.6762
62374SOL    HW293981   4.470   9.582  10.335 -1.5750  0.1790 -0.7523
62375SOL     OW93982   6.668   7.104  12.282  0.2330 -0.2561 -0.2105
62375SOL    HW193983   6.615   7.179  12.309 -0.5030  0.2301 -2.7409
62375SOL    HW293984   6.604   7.038  12.256  0.8859 -1.1492  0.3916
62376SOL     OW93985   9.933   2.239   7.224 -0.0453  0.2423  0.5784
62376SOL    HW193986   9.906   2.316   7.274 -0.6957  0.4410 -0.0624
62376SOL    HW293987   9.878   2.168   7.257 -0.3306  0.3287  0.2917
62377SOL     OW93988   5.698   9.088   4.227 -0.3150 -0.3484  0.0506
62377SOL    HW193989   5.644   9.033   4.170  0.0204  0.4396 -1.0633
62377SOL    HW293990   5.756   9.027   4.272  0.1609 -0.9096 -1.2753
62378SOL     OW93991  12.184   0.094  12.497  0.2446 -0.5829 -0.9868
62378SOL    HW193992  12.132   0.137  12.430  0.3687 -1.5998 -1.7618
62378SOL    HW293993  12.158   0.002  12.492 -1.6461 -0.3512  2.1252
62379SOL     OW93994  12.039  11.127   0.345  0.0499 -1.0099 -0.2137
62379SOL    HW193995  12.098  11.202   0.356  0.8504 -1.7275  0.4663
62379SOL    HW293996  12.047  11.104   0.252 -0.2975 -0.1883 -0.4591
62380SOL     OW93997   5.769  10.014   1.620 -0.2424  0.0271 -0.5624
62380SOL    HW193998   5.744   9.939   1.566 -1.2060 -1.2438  1.5042
62380SOL    HW293999   5.793   9.975   1.705  0.4193  1.9841  0.2081
62381SOL     OW94000   6.331   4.514  11.876  0.2335  0.6279  0.0821
62381SOL    HW194001   6.352   4.602  11.909  0.6644 -0.3598  2.6483
62381SOL    HW294002   6.363   4.455  11.944 -0.5158 -1.5164 -1.3452
62382SOL     OW94003  12.559  10.613  11.867  0.4043 -0.2685 -0.1331
62382SOL    HW194004  12.506  10.534  11.882 -2.1816  1.0785 -1.5594
62382SOL    HW294005  12.587  10.605  11.775  2.7382 -0.9069  0.5628
62383SOL     OW94006   8.114   5.807   3.417 -0.3796  0.4435  0.4276
62383SOL    HW194007   8.160   5.799   3.333 -0.1922 -0.0454  0.5697
62383SOL    HW294008   8.136   5.726   3.464  0.7506  1.3558  1.5681
62384SOL     OW94009   6.087   5.056   3.031  0.0791  0.7305  0.4798
62384SOL    HW194010   6.013   5.042   3.089 -0.8667 -0.2939 -0.9183
62384SOL    HW294011   6.145   4.981   3.046  0.3043  0.9582  0.7697
62385SOL     OW94012  11.252   8.047   1.967  0.2152 -0.2822 -0.4370
62385SOL    HW194013  11.168   8.004   1.987 -0.2604  0.1939 -1.3530
62385SOL    HW294014  11.317   7.998   2.017 -0.4534 -1.4132 -0.6530
62386SOL     OW94015   0.904   3.801   6.348  0.1563 -0.0879  0.2829
62386SOL    HW194016   0.911   3.724   6.292 -1.4583 -0.7565  0.9316
62386SOL    HW294017   0.892   3.875   6.287  0.7737 -0.4685 -0.3090
62387SOL     OW94018   4.927  10.391  10.109  0.2242 -0.1460 -0.0017
62387SOL    HW194019   4.876  10.460  10.152  1.2429  0.9049 -0.4378
62387SOL    HW294020   4.928  10.319  10.173  0.0167  0.6206  0.8893
62388SOL     OW94021   8.447   2.320   6.327  0.3933  0.5189  0.1148
62388SOL    HW194022   8.471   2.348   6.415  2.1076  0.8208 -0.4051
62388SOL    HW294023   8.527   2.284   6.291  0.1623  1.8194 -1.8620
62389SOL     OW94024   5.430   9.138   3.679 -0.0690 -0.1001 -0.0831
62389SOL    HW194025   5.434   9.233   3.688  1.0175 -0.1285 -0.0772
62389SOL    HW294026   5.338   9.116   3.691 -0.0804  0.7645  1.7727
62390SOL     OW94027  10.158   0.050  10.579 -0.2668  0.0612 -0.2200
62390SOL    HW194028  10.079   0.055  10.525 -1.4415  1.1804  1.5171
62390SOL    HW294029  10.143  -0.025  10.637  0.4700 -0.3996 -0.5937
62391SOL     OW94030   3.393   6.009  11.097 -0.3652 -0.0121  0.2613
62391SOL    HW194031   3.394   6.094  11.054  1.6511  0.1147  0.4773
62391SOL    HW294032   3.311   5.969  11.068 -0.7445  1.4736 -0.8544
62392SOL     OW94033  12.448   7.325   4.673 -0.1200  0.4315  0.5989
62392SOL    HW194034  12.522   7.302   4.729 -0.0640 -0.0580  0.3259
62392SOL    HW294035  12.432   7.418   4.691  1.8114  1.0848 -0.7662
62393SOL     OW94036   6.934   7.117  11.655  0.1797  0.3199  0.2288
62393SOL    HW194037   6.967   7.093  11.568 -2.0617  0.6719 -0.7871
62393SOL    HW294038   6.940   7.212  11.658  1.5207  0.2478  1.0643
62394SOL     OW94039   5.417   3.713  10.266 -0.1797 -0.5308  0.0008
62394SOL    HW194040   5.441   3.772  10.337  0.1339 -0.4080 -0.2001
62394SOL    HW294041   5.452   3.628  10.293  1.2638 -0.1857 -0.6643
62395SOL     OW94042   3.437   2.065   2.304  0.1602  0.4307  0.8268
62395SOL    HW194043   3.379   2.127   2.260  0.6784  0.9480  0.8644
62395SOL    HW294044   3.494   2.032   2.235 -0.4349 -0.3868  0.7119
62396SOL     OW94045   2.489   6.221   7.451 -0.1427  0.0345 -0.3519
62396SOL    HW194046   2.483   6.166   7.529  0.3636 -0.7636 -0.8641
62396SOL    HW294047   2.553   6.177   7.395 -0.9466  0.2657 -1.4851
62397SOL     OW94048   7.823   6.308   2.302 -0.0135  0.0720  0.2050
62397SOL    HW194049   7.787   6.329   2.388 -0.5636  1.5838 -0.3502
62397SOL    HW294050   7.819   6.391   2.254  3.7598  0.2888 -0.0693
62398SOL     OW94051   0.950  12.485   9.173 -0.3748  0.0367 -0.4647
62398SOL    HW194052   1.015  12.541   9.216  1.7025 -1.9851 -0.7821
62398SOL    HW294053   0.956  12.509   9.081 -1.7927  1.4336 -0.2314
62399SOL     OW94054   6.875   4.728  12.277 -0.0085 -0.1537  0.4734
62399SOL    HW194055   6.879   4.699  12.185 -0.5794  1.4768 -0.1027
62399SOL    HW294056   6.794   4.690  12.310  1.1789 -2.4557  0.9792
62400SOL     OW94057   8.145   3.142   4.028  0.4645 -0.4638 -0.2595
62400SOL    HW194058   8.138   3.144   3.932 -1.0921 -0.8590 -0.1811
62400SOL    HW294059   8.093   3.066   4.055  1.3444 -0.6950  0.8851
62401SOL     OW94060  11.558   8.372  12.311  0.1173 -0.3691 -0.4660
62401SOL    HW194061  11.623   8.363  12.381  0.6170 -1.3567 -1.0364
62401SOL    HW294062  11.571   8.461  12.277  0.0847  0.0073  0.4725
62402SOL     OW94063   0.590   8.183   7.999  0.1958  0.1429 -0.1488
62402SOL    HW194064   0.550   8.104   8.035 -0.5256  0.4235 -0.3043
62402SOL    HW294065   0.684   8.166   8.002  0.1262 -0.0906  1.2612
62403SOL     OW94066   5.436   6.032  11.615  0.0923 -0.3742  0.1297
62403SOL    HW194067   5.371   5.969  11.648  1.1391 -1.0442  0.9905
62403SOL    HW294068   5.426   6.108  11.672  0.2857 -0.6107  0.4858
62404SOL     OW94069   7.068   6.536   2.822  0.3663  0.6428  0.4110
62404SOL    HW194070   7.068   6.565   2.913  1.0956 -0.5317  0.8131
62404SOL    HW294071   6.987   6.485   2.813  2.0042 -2.3993  1.5356
62405SOL     OW94072   9.226   7.800   6.561 -0.8527 -0.3323 -0.3061
62405SOL    HW194073   9.251   7.768   6.475 -1.0866  1.9283 -1.2733
62405SOL    HW294074   9.277   7.881   6.572 -1.5592 -0.0613  1.2529
62406SOL     OW94075   6.383   1.680   2.205 -0.1861  0.0899 -0.6676
62406SOL    HW194076   6.460   1.706   2.256 -0.9484  2.6989 -0.6720
62406SOL    HW294077   6.410   1.693   2.114 -1.4661  4.4923 -0.6784
62407SOL     OW94078   3.448   6.269   2.804 -0.3307 -0.5123  0.7181
62407SOL    HW194079   3.385   6.338   2.781  1.6244  0.7417 -1.2462
62407SOL    HW294080   3.518   6.315   2.849  1.4894 -0.9353 -1.5035
62408SOL     OW94081   3.072   0.763   4.042  0.5356 -0.8646 -0.1553
62408SOL    HW194082   3.045   0.819   3.970  1.2737 -1.5917 -1.0157
62408SOL    HW294083   3.150   0.805   4.078  1.1412 -1.3604 -0.8575
62409SOL     OW94084  10.879   9.320   4.304 -0.5041 -0.1027  0.7288
62409SOL    HW194085  10.843   9.255   4.363  0.1198  1.5623  3.0655
62409SOL    HW294086  10.969   9.333   4.334 -0.4246  1.3808 -0.0558
62410SOL     OW94087  10.566   3.846   3.178 -0.1570 -0.1533 -0.5130
62410SOL    HW194088  10.480   3.834   3.138 -0.9382  0.8806  0.7440
62410SOL    HW294089  10.556   3.924   3.233  1.9822  0.8195 -1.3662
62411SOL     OW94090  11.092  12.111   3.384  0.2831  0.1143 -0.1588
62411SOL    HW194091  11.104  12.113   3.289  0.7937  0.4399 -0.0925
62411SOL    HW294092  11.125  12.025   3.410  0.3167  0.0963 -0.2584
62412SOL     OW94093   7.725   2.812   3.017  0.1325  0.1135  0.1754
62412SOL    HW194094   7.688   2.793   3.103 -1.2427 -1.3575 -0.6786
62412SOL    HW294095   7.753   2.903   3.022 -0.4989  0.2416  1.9723
62413SOL     OW94096   5.435  11.714   7.720  0.6382  0.2124  0.0153
62413SOL    HW194097   5.489  11.695   7.644  1.2974  0.4271  0.4252
62413SOL    HW294098   5.346  11.691   7.693  0.7365  1.0431 -1.0966
62414SOL     OW94099   4.824   1.946   6.796  0.5347 -0.4624  0.1648
62414SOL    HW194100   4.762   1.879   6.825  1.3545 -1.0233  0.6784
62414SOL    HW294101   4.789   2.028   6.830 -2.0213 -0.1373 -2.8249
62415SOL     OW94102   3.226   9.389   5.214 -0.2500 -0.0299  0.3739
62415SOL    HW194103   3.220   9.348   5.301 -0.9623  0.4516  0.5601
62415SOL    HW294104   3.190   9.323   5.155 -1.6977  0.4189  0.7141
62416SOL     OW94105   3.159  11.232   9.558  0.3805  0.1404  0.2202
62416SOL    HW194106   3.124  11.258   9.643 -0.4546  1.6207 -0.5457
62416SOL    HW294107   3.217  11.159   9.578  1.3993  1.4141  2.2752
62417SOL     OW94108   9.829   2.148   7.768  0.1215  0.2808  0.1139
62417SOL    HW194109   9.907   2.193   7.800  0.8258  0.0696 -1.2082
62417SOL    HW294110   9.856   2.057   7.757 -0.9853 -0.2843  1.7646
62418SOL     OW94111   6.925   4.295   1.590  0.5659  0.2657 -0.0318
62418SOL    HW194112   7.011   4.258   1.609  0.9077  1.4564  0.9172
62418SOL    HW294113   6.881   4.295   1.675  0.4672  1.6904 -0.0633
62419SOL     OW94114   0.087   2.655   8.129  0.2160  0.1725 -0.1436
62419SOL    HW194115   0.038   2.587   8.084 -0.3085  0.9513 -0.7691
62419SOL    HW294116   0.026   2.690   8.194 -0.9332  2.5982 -2.3101
62420SOL     OW94117   2.168   8.391   1.849  0.0397  0.1036 -0.1746
62420SOL    HW194118   2.073   8.382   1.851 -0.1208  0.2054 -3.3539
62420SOL    HW294119   2.200   8.302   1.864 -0.5371 -0.0089  0.4730
62421SOL     OW94120   5.093   2.666   3.890  0.5286 -0.0287 -0.7514
62421SOL    HW194121   5.072   2.624   3.807  2.4856  1.9143 -2.3834
62421SOL    HW294122   5.182   2.637   3.910  0.2095 -0.2043  0.5244
62422SOL     OW94123   4.429   6.768   9.956 -0.2754 -0.6569  0.6022
62422SOL    HW194124   4.510   6.741   9.914 -0.0274  1.7271 -0.6683
62422SOL    HW294125   4.448   6.856   9.990 -2.1755 -0.1952  0.6030
62423SOL     OW94126   7.207  11.255   8.621  0.5146 -0.0540 -0.1255
62423SOL    HW194127   7.268  11.326   8.643  0.7810  0.2983 -1.8369
62423SOL    HW294128   7.262  11.177   8.617  0.6757  0.0889 -0.7036
62424SOL     OW94129  11.348   0.811   2.208  0.1695  0.7947  0.7826
62424SOL    HW194130  11.347   0.894   2.161  1.1837  0.3218 -0.1228
62424SOL    HW294131  11.278   0.759   2.167 -2.0696  1.9459  2.8797
62425SOL     OW94132   5.324   6.123  12.140  0.2547  0.5063  0.7701
62425SOL    HW194133   5.337   6.129  12.045  0.1174 -0.4623  0.6828
62425SOL    HW294134   5.360   6.205  12.174  1.0036  0.5328 -0.0433
62426SOL     OW94135   8.406   6.287   9.624 -0.5653 -0.1336  0.1489
62426SOL    HW194136   8.471   6.217   9.629 -0.9365 -0.4693  0.3657
62426SOL    HW294137   8.330   6.247   9.581 -0.2301  0.5742 -1.1579
62427SOL     OW94138  10.981   4.929   4.914  0.2823  0.3503 -0.2137
62427SOL    HW194139  10.957   4.839   4.896 -0.0932  0.6586 -1.3212
62427SOL    HW294140  10.982   4.935   5.009  0.4391 -0.8487 -0.1260
62428SOL     OW94141   6.701   8.040   9.753 -0.4957 -0.0225 -0.4189
62428SOL    HW194142   6.736   8.097   9.684 -2.2426  0.4352 -0.9792
62428SOL    HW294143   6.607   8.037   9.736 -0.8046 -0.8835  1.2443
62429SOL     OW94144  12.480   5.719   2.646 -0.3525  0.2804 -0.2069
62429SOL    HW194145  12.480   5.635   2.692 -1.2129  0.3383 -0.0953
62429SOL    HW294146  12.556   5.765   2.682 -1.2042  0.4731  1.4582
62430SOL     OW94147   6.492   6.508  12.093 -0.2435  0.3551 -0.1425
62430SOL    HW194148   6.557   6.461  12.145 -0.4305 -1.4758 -1.4510
62430SOL    HW294149   6.409   6.489  12.136 -0.1706  0.7976  0.2073
62431SOL     OW94150   5.317   8.403   3.808  0.4735  0.1640  0.0427
62431SOL    HW194151   5.413   8.406   3.810  0.4780  0.0833 -0.0710
62431SOL    HW294152   5.292   8.383   3.898  0.5367  0.8355  0.2175
62432SOL     OW94153   0.548   6.663   2.629 -0.3728 -0.2119 -0.6044
62432SOL    HW194154   0.586   6.746   2.659 -0.5884 -0.0770 -0.7061
62432SOL    HW294155   0.564   6.662   2.535 -0.0389 -0.4591 -0.5476
62433SOL     OW94156   9.114   3.022   3.035  0.3261  0.1695 -0.1103
62433SOL    HW194157   9.092   3.014   2.942 -0.8070 -0.2086  0.1711
62433SOL    HW294158   9.038   2.985   3.081  0.6272  0.8444  0.9775
62434SOL     OW94159   1.993   9.139  11.541 -0.1326 -0.7789 -0.4277
62434SOL    HW194160   2.080   9.105  11.560  0.8688  1.4953 -0.5506
62434SOL    HW294161   1.950   9.146  11.626  0.3373 -0.6166 -0.2050
62435SOL     OW94162   2.052  10.855   6.548 -0.2186  0.1724  0.3302
62435SOL    HW194163   2.024  10.793   6.480 -1.2006 -0.3337  1.1749
62435SOL    HW294164   2.106  10.802   6.607 -2.9706 -0.5583  2.3671
62436SOL     OW94165   8.574   7.428   6.930  0.3324  0.0506 -0.1283
62436SOL    HW194166   8.656   7.455   6.971  0.0396 -0.2244  0.6718
62436SOL    HW294167   8.553   7.345   6.973  0.1454 -0.3758 -1.0407
62437SOL     OW94168   3.080   2.575   8.060 -0.0808  0.2921 -0.3691
62437SOL    HW194169   2.987   2.556   8.069  0.1841 -0.1793  1.9832
62437SOL    HW294170   3.084   2.645   7.995 -2.0159 -0.0463 -0.9064
62438SOL     OW94171   4.312   5.443   5.017 -0.6331 -0.3427 -0.1059
62438SOL    HW194172   4.293   5.381   5.087  0.3942 -0.5401  0.0136
62438SOL    HW294173   4.354   5.389   4.949 -0.4099  0.0893 -0.3118
62439SOL     OW94174   1.393  10.907   9.185 -0.0388  0.4724  0.2364
62439SOL    HW194175   1.375  10.974   9.252  0.1456  0.9711 -0.2000
62439SOL    HW294176   1.488  10.899   9.185 -0.0913 -0.1763  0.6487
62440SOL     OW94177   6.716   0.192   4.553 -0.1457  0.2898  0.3338
62440SOL    HW194178   6.773   0.235   4.617 -0.4306  2.3469 -0.7351
62440SOL    HW294179   6.749   0.102   4.549  1.5478  0.8095  1.4175
62441SOL     OW94180  11.820   5.988   1.379  0.0227 -0.4927  0.0161
62441SOL    HW194181  11.772   6.013   1.300  1.4828  0.2932 -0.6678
62441SOL    HW294182  11.752   5.979   1.446 -0.9831  1.9895 -0.5324
62442SOL     OW94183   5.935   1.916   0.796  0.0438  0.0512  0.3049
62442SOL    HW194184   5.947   1.933   0.889  1.4386 -1.6910  0.4919
62442SOL    HW294185   5.969   1.995   0.753 -1.1527  1.1183  1.2400
62443SOL     OW94186   3.242   3.814  12.322  0.3397 -0.6871  0.2109
62443SOL    HW194187   3.170   3.839  12.265  1.1977 -1.3670 -1.2293
62443SOL    HW294188   3.314   3.795  12.262  1.4679 -0.8361  1.5652
62444SOL     OW94189  11.365   6.565   2.689 -0.4005 -0.3613 -0.1577
62444SOL    HW194190  11.359   6.496   2.622  0.3759 -0.9052  0.3168
62444SOL    HW294191  11.302   6.631   2.661 -1.4070 -1.4111 -0.4553
62445SOL     OW94192  12.500   7.609  11.829  0.3074  0.0771 -0.5992
62445SOL    HW194193  12.566   7.599  11.760  0.6094 -1.0086 -0.1890
62445SOL    HW294194  12.542   7.664  11.895  0.3103  0.4705 -0.9272
62446SOL     OW94195  11.656   7.866   3.490 -0.4251  0.4951  0.4621
62446SOL    HW194196  11.678   7.775   3.507 -1.4617  0.4779  1.8718
62446SOL    HW294197  11.652   7.873   3.394  0.2484 -0.7696  0.3240
62447SOL     OW94198  11.874  10.564   3.418 -0.1281  0.4851  0.1951
62447SOL    HW194199  11.884  10.481   3.465 -0.4973  0.4372  0.1990
62447SOL    HW294200  11.790  10.555   3.372  0.8593 -0.0024 -1.5702
62448SOL     OW94201   0.498   9.441   8.902 -0.1652  0.2177  0.1511
62448SOL    HW194202   0.405   9.461   8.894 -0.6224 -0.6432  2.3845
62448SOL    HW294203   0.530   9.506   8.965  0.9333  0.9637 -1.1423
62449SOL     OW94204  10.816   6.886   3.814 -0.4445 -0.2259  0.1599
62449SOL    HW194205  10.872   6.893   3.892 -1.3525  0.4649  0.7786
62449SOL    HW294206  10.855   6.946   3.751  0.7309 -1.3461 -0.2145
62450SOL     OW94207   7.985   0.184   7.031  0.4787  0.0644  0.1703
62450SOL    HW194208   7.903   0.233   7.032  1.1854  1.3035 -0.7650
62450SOL    HW294209   7.965   0.105   6.981 -0.2189  0.2255  0.1875
62451SOL     OW94210   3.092   8.352   2.144  0.0333  0.1416  0.3811
62451SOL    HW194211   3.054   8.432   2.179  0.3644  1.5929 -2.2880
62451SOL    HW294212   3.030   8.324   2.077  1.3013 -0.1681 -0.6938
62452SOL     OW94213   3.050   6.896  10.000  0.1512  0.3166  0.0956
62452SOL    HW194214   3.057   6.985  10.035 -1.3885  0.5127 -0.0091
62452SOL    HW294215   3.134   6.855  10.022  2.0299  2.5805 -2.1669
62453SOL     OW94216   8.324   9.703   2.471  0.3271  0.0939 -0.5832
62453SOL    HW194217   8.413   9.730   2.497  0.3129  1.3901 -1.7531
62453SOL    HW294218   8.307   9.752   2.390 -2.7200  2.5236  1.2926
62454SOL     OW94219   3.415   8.404   2.566 -0.0195  0.2427  0.5076
62454SOL    HW194220   3.448   8.330   2.515 -1.5880 -1.1545  1.4029
62454SOL    HW294221   3.479   8.416   2.636  0.0762 -0.5154  0.5554
62455SOL     OW94222   8.605   6.273   5.967  0.4384 -0.0444 -0.6074
62455SOL    HW194223   8.588   6.337   5.897  0.5381 -0.0220 -0.6118
62455SOL    HW294224   8.652   6.322   6.033  0.9772 -0.2399 -0.8408
62456SOL     OW94225   2.693   4.891   2.945  0.0882  0.3892  0.5285
62456SOL    HW194226   2.639   4.921   3.018  0.9074  0.6157  1.0619
62456SOL    HW294227   2.727   4.971   2.905  1.2198  0.2438  1.1420
62457SOL     OW94228   9.224  11.102   5.441  0.6118 -0.7806 -0.7611
62457SOL    HW194229   9.211  11.107   5.536  0.6565  1.4785 -0.8206
62457SOL    HW294230   9.313  11.134   5.427  0.1677  0.1333 -1.6415
62458SOL     OW94231  10.367   3.922  10.972 -0.1395 -0.1238 -0.2144
62458SOL    HW194232  10.289   3.928  10.917  0.3116 -0.2736 -0.8886
62458SOL    HW294233  10.387   3.828  10.974  1.4532  0.1174 -2.1358
62459SOL     OW94234  11.955   9.135   4.416 -0.4055 -0.3672  0.3600
62459SOL    HW194235  11.928   9.227   4.425  0.3417  0.1665 -2.2249
62459SOL    HW294236  12.050   9.137   4.426 -0.4777 -1.0800  1.4006
62460SOL     OW94237   1.597   8.358   2.280  0.6705  0.9688 -0.2899
62460SOL    HW194238   1.547   8.419   2.335  1.1029 -1.0714  2.6202
62460SOL    HW294239   1.681   8.403   2.267  1.0650  1.0315  1.9661
62461SOL     OW94240   3.512   9.589   3.438 -0.5080  0.2696  0.4398
62461SOL    HW194241   3.485   9.632   3.357 -1.8236  0.2155  0.8188
62461SOL    HW294242   3.513   9.660   3.503  2.5303  0.7238  0.0137
62462SOL     OW94243   6.322   0.271  11.012  0.8796 -0.0911  0.0364
62462SOL    HW194244   6.290   0.199  10.957  0.8735  0.1922 -0.3341
62462SOL    HW294245   6.259   0.275  11.083 -0.8388  1.4491 -1.4731
62463SOL     OW94246  10.418   2.087  12.172 -0.1330  0.3370  0.4269
62463SOL    HW194247  10.323   2.081  12.184 -0.1804  1.1658  0.5552
62463SOL    HW294248  10.446   1.997  12.157 -0.9958  0.1346 -0.0459
62464SOL     OW94249   5.028  12.010   5.118  0.3630 -0.1462 -0.1084
62464SOL    HW194250   4.941  11.996   5.080 -0.1945 -0.4718  1.2222
62464SOL    HW294251   5.024  12.099   5.154  0.4573 -0.2878  0.2547
62465SOL     OW94252   6.314   9.886   1.578 -0.4111  0.7829  0.4859
62465SOL    HW194253   6.386   9.926   1.529  1.5760 -1.0880  1.6548
62465SOL    HW294254   6.279   9.819   1.519 -1.2092  1.6753 -0.0740
62466SOL     OW94255   3.884   3.477   2.942 -0.5732 -0.1791 -1.0113
62466SOL    HW194256   3.900   3.502   2.851 -2.6913 -0.0736 -1.3861
62466SOL    HW294257   3.844   3.554   2.982  2.0500  0.5010  0.6259
62467SOL     OW94258   3.019   4.859  11.487 -0.2403  0.1757  0.0921
62467SOL    HW194259   3.049   4.936  11.439  0.3674  0.0651  0.2816
62467SOL    HW294260   2.924   4.863  11.481 -0.1828 -0.1262 -1.5815
62468SOL     OW94261   1.843   2.138  11.332  0.4292  0.4573  0.1787
62468SOL    HW194262   1.927   2.164  11.370  1.0097  1.9573 -1.9465
62468SOL    HW294263   1.795   2.221  11.322 -0.5859 -0.1691 -0.2639
62469SOL     OW94264   2.470  12.564   4.701 -0.5865  0.5889 -0.1419
62469SOL    HW194265   2.460  12.471   4.680 -2.2361  0.6250  0.3282
62469SOL    HW294266   2.451  12.609   4.619 -0.2346  0.5337 -0.2561
62470SOL     OW94267  10.444   7.053   2.112  0.3492  0.2270  0.4683
62470SOL    HW194268  10.467   6.960   2.116 -2.3768 -0.5286  0.9582
62470SOL    HW294269  10.466   7.079   2.023  0.9208 -0.9603  0.2352
62471SOL     OW94270   6.691   6.688   3.941  0.6520 -0.0740 -0.0452
62471SOL    HW194271   6.671   6.723   4.027 -1.1703 -0.1678 -0.3899
62471SOL    HW294272   6.622   6.721   3.884  1.9414  0.1985 -1.5491
62472SOL     OW94273   6.466  10.796   4.130  0.3735  0.4190 -0.1661
62472SOL    HW194274   6.438  10.775   4.041  0.5441 -0.8070  0.0548
62472SOL    HW294275   6.445  10.718   4.181  2.3790  0.1854  0.3873
62473SOL     OW94276   7.372  10.069   0.569  0.0653  0.3466 -0.4198
62473SOL    HW194277   7.362   9.979   0.540  2.4085 -1.1992  2.8671
62473SOL    HW294278   7.284  10.095   0.598 -0.0722 -2.5672  2.4487
62474SOL     OW94279   7.856   7.401   6.757  0.2302  0.0530  0.4201
62474SOL    HW194280   7.949   7.378   6.746  0.2514 -1.4050  2.8236
62474SOL    HW294281   7.856   7.466   6.828 -0.5860 -0.1697  0.6284
62475SOL     OW94282   2.800   5.456   2.041 -0.0216  0.4770  0.4219
62475SOL    HW194283   2.773   5.518   2.109 -1.0240  0.4790  0.0463
62475SOL    HW294284   2.775   5.370   2.076 -0.6000  0.4836  0.0428
62476SOL     OW94285   9.377   9.069   3.089  0.3499  0.6861 -0.1114
62476SOL    HW194286   9.367   8.979   3.120  1.2467  0.4872 -0.3600
62476SOL    HW294287   9.351   9.066   2.997  0.3220  0.6919 -0.1036
62477SOL     OW94288   3.226   2.053   9.039  0.3288  0.4618  0.0385
62477SOL    HW194289   3.142   2.015   9.067 -0.2621 -0.0385 -2.2147
62477SOL    HW294290   3.291   2.009   9.093 -0.7112 -0.4365  0.6200
62478SOL     OW94291   9.619   9.374   1.408  0.2238  0.4554  0.3796
62478SOL    HW194292   9.677   9.321   1.354 -1.1240  0.6556 -1.3720
62478SOL    HW294293   9.534   9.369   1.364 -1.2092 -0.0858  2.9969
62479SOL     OW94294   4.420   7.793  10.201 -0.2031 -0.1291 -0.2183
62479SOL    HW194295   4.369   7.863  10.240  0.3677  0.6257 -0.7896
62479SOL    HW294296   4.439   7.732  10.273  0.6566  1.1190  0.6415
62480SOL     OW94297   0.522   7.320   2.621  0.4916  0.2272  0.2415
62480SOL    HW194298   0.580   7.294   2.550  0.5059  0.0878  0.3020
62480SOL    HW294299   0.510   7.414   2.611  0.9888  0.3105  0.4242
62481SOL     OW94300   8.258  11.500   8.434 -0.3162 -0.2484  0.2735
62481SOL    HW194301   8.249  11.493   8.529  0.4450 -1.9029  0.2595
62481SOL    HW294302   8.182  11.551   8.407 -0.2783  0.6993  1.8105
62482SOL     OW94303  11.560  12.478   0.982 -0.2505 -0.6605  0.5585
62482SOL    HW194304  11.473  12.438   0.990  0.4792 -2.1849  1.3537
62482SOL    HW294305  11.563  12.510   0.892 -1.7624 -0.2292  0.6210
62483SOL     OW94306   8.350  10.578   1.079  0.1242 -0.1249  0.0084
62483SOL    HW194307   8.344  10.488   1.049  0.4676 -0.5671  1.2503
62483SOL    HW294308   8.261  10.600   1.106  0.1208 -0.2208  0.0755
62484SOL     OW94309   9.442   9.060   7.694 -0.2136  0.5021 -0.6198
62484SOL    HW194310   9.406   9.075   7.781  0.5468  0.9766 -0.3780
62484SOL    HW294311   9.514   9.123   7.686  0.3712 -0.2133 -1.1981
62485SOL     OW94312   8.608   3.454   1.337 -0.3678 -0.4877 -0.5108
62485SOL    HW194313   8.562   3.516   1.393 -0.0152 -1.6489  1.1486
62485SOL    HW294314   8.547   3.435   1.266 -1.1968  0.3542 -0.0355
62486SOL     OW94315   9.015   1.474   8.093 -0.4519 -0.1192 -0.2697
62486SOL    HW194316   9.094   1.476   8.147  0.2465  0.0440 -1.2778
62486SOL    HW294317   8.944   1.495   8.154  0.5665  2.4842  0.1657
62487SOL     OW94318  10.593   1.813  11.926  0.5160  0.1081 -0.1888
62487SOL    HW194319  10.607   1.825  12.020  1.4588  1.8128 -0.4994
62487SOL    HW294320  10.506   1.773  11.919  1.0924 -1.5972  1.4540
62488SOL     OW94321   4.885   0.121   7.873 -0.4754 -0.3055 -0.2329
62488SOL    HW194322   4.919   0.172   7.799 -0.4488  0.6854  0.4522
62488SOL    HW294323   4.816   0.067   7.835 -0.7601  0.5151 -0.9130
62489SOL     OW94324   8.127   3.828   8.240 -0.2058  0.0490 -0.3050
62489SOL    HW194325   8.062   3.893   8.269 -0.2523  0.1315 -0.5970
62489SOL    HW294326   8.078   3.747   8.232  0.1942 -0.4540  1.7897
62490SOL     OW94327   2.977  11.848  12.062  0.1385 -0.2120 -0.0592
62490SOL    HW194328   2.982  11.757  12.034 -0.5643  0.1413 -1.4325
62490SOL    HW294329   2.898  11.882  12.019  0.6209  1.1495  0.0835
62491SOL     OW94330   4.145   5.090  12.199 -0.0200 -0.5354  0.4364
62491SOL    HW194331   4.174   5.015  12.252  0.5128  0.5693  1.7646
62491SOL    HW294332   4.111   5.152  12.263  1.1812  1.0902 -0.4386
62492SOL     OW94333  10.244  11.838   3.952 -0.1780 -0.0293 -0.2307
62492SOL    HW194334  10.170  11.780   3.971  0.5244 -1.5817 -1.9382
62492SOL    HW294335  10.205  11.926   3.950 -1.2677 -0.3588  2.4344
62493SOL     OW94336   1.190   6.508   5.392  0.2056 -0.0172 -0.0112
62493SOL    HW194337   1.278   6.519   5.355  1.8444 -0.1329  3.4535
62493SOL    HW294338   1.168   6.416   5.374  0.4749  0.1791 -1.4640
62494SOL     OW94339  11.798  12.079  10.458  0.1857 -0.1120  0.2304
62494SOL    HW194340  11.874  12.077  10.400  0.3765 -2.0476  0.5025
62494SOL    HW294341  11.831  12.047  10.542 -0.8378 -0.6300  0.4493
62495SOL     OW94342   5.922  12.281   4.022  0.4061 -0.1863 -0.2845
62495SOL    HW194343   6.014  12.256   4.025  0.9001  1.4070 -1.0274
62495SOL    HW294344   5.899  12.276   3.929  0.3877  1.4454 -0.4120
62496SOL     OW94345   3.416  12.439   7.393 -0.5031  0.0464 -0.1736
62496SOL    HW194346   3.500  12.393   7.397 -1.6328 -2.2817 -1.2641
62496SOL    HW294347   3.427  12.502   7.322  0.3109 -0.2795 -0.3493
62497SOL     OW94348  10.990   3.297   3.866  0.5642  0.2414 -0.1815
62497SOL    HW194349  11.002   3.203   3.878 -0.3311  0.0557 -0.6327
62497SOL    HW294350  10.905   3.304   3.821  1.5527  1.1448 -2.0163
62498SOL     OW94351  12.536   5.345   5.959  0.0528 -0.2204  0.1922
62498SOL    HW194352  12.484   5.313   6.033 -0.1197  1.1906  0.7099
62498SOL    HW294353  12.614   5.289   5.958 -1.1604 -1.9841 -0.2238
62499SOL     OW94354  10.534  11.688   9.561  0.1361 -0.0885  0.6422
62499SOL    HW194355  10.623  11.668   9.532 -0.4096  1.3606 -2.4361
62499SOL    HW294356  10.482  11.613   9.533 -0.2521  0.9533 -1.6401
62500SOL     OW94357   4.647   9.373   4.680 -0.5818  0.1702 -0.8846
62500SOL    HW194358   4.692   9.289   4.673 -0.5027  0.2496 -1.4491
62500SOL    HW294359   4.630   9.384   4.773  0.1016 -0.1092 -0.7179
62501SOL     OW94360  11.548   4.097   0.849 -0.0075  0.0455  0.0393
62501SOL    HW194361  11.535   4.070   0.940  0.2823 -1.0056 -0.2184
62501SOL    HW294362  11.464   4.079   0.807 -0.7288  2.1616  0.4507
62502SOL     OW94363   8.876  11.484   1.442 -0.8334 -0.5071  0.0506
62502SOL    HW194364   8.841  11.573   1.447 -1.4286 -0.7815  1.3929
62502SOL    HW294365   8.918  11.479   1.357  2.2374  2.1931  1.1862
62503SOL     OW94366   8.516   0.591  10.127 -0.7526  0.1214 -0.1387
62503SOL    HW194367   8.560   0.599  10.042  1.3957 -1.1820  0.7613
62503SOL    HW294368   8.451   0.522  10.114 -0.8837  0.3784 -0.8844
62504SOL     OW94369   3.544   2.924  10.046 -0.1812 -0.2217  0.1889
62504SOL    HW194370   3.478   2.884   9.989 -0.1711  0.6535 -0.4626
62504SOL    HW294371   3.501   2.930  10.131 -0.9611  0.3557 -0.2281
62505SOL     OW94372   5.004   6.547  10.575 -0.4668  0.4638 -0.1930
62505SOL    HW194373   4.923   6.598  10.566 -1.2925 -0.7687  0.0289
62505SOL    HW294374   4.977   6.456  10.563  1.0680  0.0928 -1.1334
62506SOL     OW94375   7.554   1.568   9.315 -0.4617 -0.3333 -0.0782
62506SOL    HW194376   7.563   1.658   9.283  1.8399 -0.6403 -0.5060
62506SOL    HW294377   7.562   1.514   9.236  0.6232 -0.9568  0.4315
62507SOL     OW94378   2.867  10.888   4.665 -0.4067 -0.0458  0.2109
62507SOL    HW194379   2.801  10.948   4.698 -0.8551 -0.2624 -0.2790
62507SOL    HW294380   2.839  10.802   4.697  0.6573  0.0814  1.5753
62508SOL     OW94381   7.764  11.137   6.649 -0.2705 -0.0478 -0.0253
62508SOL    HW194382   7.836  11.089   6.690 -1.7246 -0.8527  1.7196
62508SOL    HW294383   7.803  11.220   6.622  0.8349  0.4866  2.9081
62509SOL     OW94384   5.455   7.121  11.752  0.1076 -0.4770 -0.1447
62509SOL    HW194385   5.507   7.201  11.742  0.1694 -0.4919  0.0702
62509SOL    HW294386   5.513   7.059  11.795  0.1486 -0.7284 -0.5602
62510SOL     OW94387  11.325   2.821   4.473 -0.6402 -0.0117  0.2149
62510SOL    HW194388  11.237   2.825   4.436 -1.3172  1.7399  1.8387
62510SOL    HW294389  11.328   2.895   4.534  1.5190 -0.8183  1.1591
62511SOL     OW94390   0.294   5.178   6.224  0.2902  0.4761  0.1422
62511SOL    HW194391   0.275   5.084   6.223  0.3368  0.4531  0.8800
62511SOL    HW294392   0.297   5.203   6.131  1.1543 -0.4192 -0.0821
62512SOL     OW94393   5.609  12.119  10.028 -0.0629  0.8580  0.1979
62512SOL    HW194394   5.585  12.028  10.045 -0.2157  0.5425 -1.5246
62512SOL    HW294395   5.624  12.157  10.115 -0.9967 -0.5311  0.9993
62513SOL     OW94396   7.809   1.426   4.241 -0.4667 -0.3553 -0.5974
62513SOL    HW194397   7.760   1.436   4.323 -1.7927 -2.0648 -1.1241
62513SOL    HW294398   7.819   1.332   4.230  2.3990 -0.0983 -0.9036
62514SOL     OW94399   3.704   5.693   8.440  0.5439 -0.1385 -0.2658
62514SOL    HW194400   3.613   5.668   8.455  0.3807  1.3909  1.6826
62514SOL    HW294401   3.716   5.773   8.491  2.5516  0.6177 -1.7650
62515SOL     OW94402   7.550   3.393  12.516  0.5367  0.4437 -1.1231
62515SOL    HW194403   7.518   3.483  12.512  0.3149  0.4965  0.9834
62515SOL    HW294404   7.504   3.354  12.590  1.9403 -0.8811 -0.9009
62516SOL     OW94405   2.213   8.796   1.320  0.0981 -0.1836  0.3676
62516SOL    HW194406   2.231   8.822   1.230 -1.6443  0.8240  0.2707
62516SOL    HW294407   2.295   8.756   1.350  1.3439  1.1599 -1.0461
62517SOL     OW94408   7.724  11.541   4.444  0.1277  0.4621  0.2547
62517SOL    HW194409   7.727  11.521   4.350  1.3169  1.2380  0.1011
62517SOL    HW294410   7.732  11.637   4.448 -1.6372  0.6058  1.1001
62518SOL     OW94411   4.024  10.353   1.257 -0.5391 -0.0055  0.2612
62518SOL    HW194412   4.030  10.438   1.301  1.2597  0.2174 -0.3221
62518SOL    HW294413   3.946  10.360   1.201 -1.9016  0.2903  2.1202
62519SOL     OW94414   5.741   5.839   0.616 -0.0721  0.3573  0.4010
62519SOL    HW194415   5.770   5.768   0.673 -1.1951  0.5271  1.2127
62519SOL    HW294416   5.665   5.877   0.661 -0.0273  1.5109 -0.4387
62520SOL     OW94417   2.176   4.215   9.497 -0.5756  0.1787 -0.5701
62520SOL    HW194418   2.152   4.231   9.588  1.0167  0.8192 -0.2282
62520SOL    HW294419   2.269   4.195   9.500 -0.3475  0.8418 -2.1354
62521SOL     OW94420   2.520   4.012   2.800  0.0743 -0.0055 -0.0711
62521SOL    HW194421   2.560   4.003   2.714  0.0020  1.9521 -0.3698
62521SOL    HW294422   2.462   3.936   2.808  1.2403 -1.0417 -1.0720
62522SOL     OW94423   9.505  10.578   8.901 -0.5498 -0.0760 -0.0872
62522SOL    HW194424   9.468  10.640   8.964  1.1352  0.7086  0.1791
62522SOL    HW294425   9.580  10.539   8.946 -0.6175 -1.1391 -0.8405
62523SOL     OW94426   6.171   5.054   4.376 -0.3545 -0.2953 -0.1076
62523SOL    HW194427   6.219   5.113   4.318 -1.8037  0.8547 -0.1975
62523SOL    HW294428   6.122   4.997   4.318 -2.3580  1.3138 -0.1097
62524SOL     OW94429   7.671   1.361   1.008 -0.2674  0.2568 -0.4382
62524SOL    HW194430   7.692   1.354   0.915  0.5000 -5.0716 -0.1588
62524SOL    HW294431   7.575   1.356   1.011 -0.3393  1.1828 -0.9352
62525SOL     OW94432   5.294   0.116   4.129 -0.0035 -0.0160  0.0614
62525SOL    HW194433   5.339   0.077   4.204  0.3931 -0.5392 -0.4415
62525SOL    HW294434   5.339   0.199   4.115 -1.3958  1.0900  1.6668
62526SOL     OW94435   9.135   2.111  11.867 -0.3184  0.1291  0.4124
62526SOL    HW194436   9.188   2.035  11.891  0.8327  0.7720 -0.0183
62526SOL    HW294437   9.155   2.176  11.935  0.6443  0.8999 -0.5694
62527SOL     OW94438   0.500   6.824   1.204  0.3822  0.1211  0.4293
62527SOL    HW194439   0.406   6.838   1.194  0.4393  2.2015  2.0562
62527SOL    HW294440   0.524   6.877   1.280  3.1009  0.6427 -0.6755
62528SOL     OW94441   3.993   0.390  12.118 -0.5106  0.3638 -0.1273
62528SOL    HW194442   3.932   0.356  12.052 -0.6459 -0.6686  0.5066
62528SOL    HW294443   4.066   0.426  12.067  0.1923 -1.9291 -0.8341
62529SOL     OW94444   6.062   4.971  11.955 -0.1962  0.0908  0.1468
62529SOL    HW194445   6.087   4.889  11.997 -0.2323 -0.0359 -0.0749
62529SOL    HW294446   6.035   5.028  12.027 -0.3789 -0.1643  0.2813
62530SOL     OW94447   1.161  12.519   0.924  0.3282  0.0640 -0.3774
62530SOL    HW194448   1.247  12.516   0.967  0.5225  2.2852 -0.4465
62530SOL    HW294449   1.171  12.588   0.858 -0.9474 -0.9945 -1.7255
62531SOL     OW94450   8.496   8.079   0.024 -0.2557  0.3012 -0.0257
62531SOL    HW194451   8.587   8.090   0.052 -0.6486  2.3227  0.5815
62531SOL    HW294452   8.457   8.025   0.093  0.3824 -0.2716 -0.0997
62532SOL     OW94453   7.966   8.507   5.899  0.6095  0.6419  0.5957
62532SOL    HW194454   8.022   8.562   5.844  0.8730  1.2592  1.4608
62532SOL    HW294455   7.977   8.419   5.864 -0.6442  1.2691 -1.5031
62533SOL     OW94456   7.601  12.031  11.626  0.7127 -0.2934  0.1654
62533SOL    HW194457   7.650  11.980  11.561  0.1324  0.1826 -0.6670
62533SOL    HW294458   7.539  11.968  11.663  0.9709 -0.5433  0.1794
62534SOL     OW94459   8.309   2.505   6.190 -0.5092 -0.1030 -0.1047
62534SOL    HW194460   8.352   2.431   6.231 -1.9246 -0.3426  1.0585
62534SOL    HW294461   8.379   2.553   6.146  1.0849 -0.0339  2.3253
62535SOL     OW94462  12.125   4.249   6.041 -0.0913 -0.1198  0.8311
62535SOL    HW194463  12.145   4.159   6.015 -1.0431  0.1619 -1.0165
62535SOL    HW294464  12.210   4.290   6.053  0.3862 -0.7756 -0.1777
62536SOL     OW94465  10.903   4.126   3.442 -0.6582 -0.1031 -0.1108
62536SOL    HW194466  10.966   4.114   3.370 -0.5573  0.2254 -0.0790
62536SOL    HW294467  10.956   4.115   3.521 -0.7176 -0.2064 -0.0858
62537SOL     OW94468   4.596   2.847   7.824  0.2706 -0.1844 -0.4055
62537SOL    HW194469   4.655   2.873   7.753  0.3120 -0.2123 -0.3813
62537SOL    HW294470   4.545   2.776   7.786  0.6993 -0.5967 -0.2174
62538SOL     OW94471  10.065  11.709   0.291  0.2914 -0.3167 -0.6936
62538SOL    HW194472  10.043  11.770   0.361  0.9513 -1.7795  0.8442
62538SOL    HW294473  10.112  11.638   0.334  0.5757 -1.3643 -2.6035
62539SOL     OW94474   2.732   3.137   1.811 -0.2890 -0.2330  0.3975
62539SOL    HW194475   2.740   3.156   1.717 -0.4698 -1.0740  0.2020
62539SOL    HW294476   2.808   3.179   1.851  0.4106 -0.8241 -0.2799
62540SOL     OW94477   0.721   8.458   5.662  0.0315  0.0007 -0.7827
62540SOL    HW194478   0.665   8.528   5.629 -0.4641  0.3282  0.6493
62540SOL    HW294479   0.779   8.502   5.726  0.4803 -0.7015 -0.6945
62541SOL     OW94480   1.764   8.379  11.924 -0.3386  0.0333  0.1704
62541SOL    HW194481   1.672   8.354  11.932 -0.2018 -1.1576 -1.3920
62541SOL    HW294482   1.808   8.335  11.996 -1.0273  0.8786  1.1241
62542SOL     OW94483   8.115   0.959   9.963 -0.0749  0.1497 -0.2225
62542SOL    HW194484   8.170   0.884   9.987 -0.1007  0.0666 -0.4201
62542SOL    HW294485   8.153   1.033  10.011 -0.2436 -0.0503  0.2167
62543SOL     OW94486   5.775  11.565   0.012  0.4520  0.1099 -0.3910
62543SOL    HW194487   5.812  11.643   0.052  0.2667 -1.0312  2.1759
62543SOL    HW294488   5.850  11.510  -0.011  0.5325  0.4999 -1.0970
62544SOL     OW94489   7.375   3.507   2.619  0.3082  0.2363  0.5283
62544SOL    HW194490   7.448   3.565   2.638  1.4500 -0.8849 -0.2556
62544SOL    HW294491   7.304   3.537   2.676  1.4741  1.1496  1.5410
62545SOL     OW94492   1.737   2.380   2.687 -0.2714 -0.6009 -0.1124
62545SOL    HW194493   1.825   2.380   2.649  0.0707  0.4977  0.6059
62545SOL    HW294494   1.692   2.308   2.644  0.7229 -0.6623 -1.1068
62546SOL     OW94495  10.585   2.091  11.432  0.4303  0.3025  0.5581
62546SOL    HW194496  10.517   2.131  11.486 -0.3186  0.0409 -0.1884
62546SOL    HW294497  10.628   2.165  11.389  1.1165  0.5237  1.5859
62547SOL     OW94498   2.061   9.046  10.511 -0.5553 -0.3097  0.9143
62547SOL    HW194499   2.043   9.010  10.598 -1.3340  0.6129  1.1502
62547SOL    HW294500   1.975   9.073  10.478  0.1119  2.6064  1.3270
62548SOL     OW94501  11.704   4.533   5.289 -0.0930 -0.3293 -0.0655
62548SOL    HW194502  11.622   4.566   5.252 -0.4903 -1.8425 -0.6382
62548SOL    HW294503  11.694   4.438   5.287  1.7224 -0.5554 -0.2564
62549SOL     OW94504   8.394   4.117   8.778 -0.0149 -0.1619 -0.3962
62549SOL    HW194505   8.328   4.183   8.800 -1.3848 -0.3172 -3.5090
62549SOL    HW294506   8.369   4.040   8.829 -0.3687  0.7004  0.7807
62550SOL     OW94507   9.442   7.016  11.237 -0.2483  0.3063  0.1557
62550SOL    HW194508   9.417   6.923  11.232  1.5899 -0.1692 -1.0362
62550SOL    HW294509   9.427   7.040  11.328 -0.4248 -1.2640  0.5695
62551SOL     OW94510  10.001   5.195   2.550  0.2174  0.9623  0.4776
62551SOL    HW194511  10.010   5.236   2.464 -1.2086 -1.6019 -1.0256
62551SOL    HW294512  10.015   5.102   2.534 -0.0330  0.3961  3.0628
62552SOL     OW94513   5.919  11.634  10.391 -0.3272 -0.3093 -0.1930
62552SOL    HW194514   6.010  11.649  10.365  0.5236 -2.3511  1.2895
62552SOL    HW294515   5.880  11.590  10.315  0.0696  0.1102 -0.6455
62553SOL     OW94516   1.364   9.615  11.412  0.2297  0.2359  0.4210
62553SOL    HW194517   1.321   9.690  11.454 -0.5917 -0.7197  1.3717
62553SOL    HW294518   1.407   9.652  11.335 -0.3535  1.6368  0.7230
62554SOL     OW94519   2.388   2.796   8.061  0.0803  0.2585  0.7510
62554SOL    HW194520   2.313   2.836   8.017  1.0162 -2.7418 -4.3977
62554SOL    HW294521   2.354   2.713   8.094  0.6120 -0.0477  0.5378
62555SOL     OW94522  11.917   9.187   9.654  0.4831  0.3799 -0.1443
62555SOL    HW194523  11.878   9.225   9.576  0.8150  0.4855 -0.2615
62555SOL    HW294524  11.886   9.097   9.655  0.9525  0.2057 -0.7243
62556SOL     OW94525   1.881  12.467   0.649 -0.0030 -0.0699 -0.3652
62556SOL    HW194526   1.928  12.478   0.732 -2.3768 -2.1932  1.4319
62556SOL    HW294527   1.942  12.417   0.594  0.8239 -0.5333  0.9130
62557SOL     OW94528  10.482   7.313   0.873 -0.0192 -0.1322  0.4185
62557SOL    HW194529  10.498   7.364   0.794  3.7006 -1.3479  0.2032
62557SOL    HW294530  10.460   7.378   0.940  0.3164  1.2857 -0.7998
62558SOL     OW94531   8.812   8.678   3.013  0.1232 -0.1380 -0.5618
62558SOL    HW194532   8.906   8.662   3.004 -0.0177 -0.9111 -0.7056
62558SOL    HW294533   8.771   8.614   2.956 -0.5829 -1.3103  1.1796
62559SOL     OW94534   6.131   4.372   8.046  0.2068  0.3878  0.2216
62559SOL    HW194535   6.106   4.457   8.009 -1.0568 -0.2282 -0.4108
62559SOL    HW294536   6.203   4.392   8.105 -0.6432  2.0321  0.7559
62560SOL     OW94537  12.133   9.881   2.837  0.3180  0.3951  0.4635
62560SOL    HW194538  12.188   9.955   2.811 -1.5427  2.3816  1.9233
62560SOL    HW294539  12.113   9.896   2.929 -0.3427 -1.8247  0.7513
62561SOL     OW94540   9.482   3.913   5.002 -0.1849 -0.3961  0.6888
62561SOL    HW194541   9.578   3.914   4.994 -0.1560 -0.0869  1.0810
62561SOL    HW294542   9.455   4.001   4.977 -0.2495 -0.0374  1.9658
62562SOL     OW94543   6.873   4.803   7.281  0.5934  0.3487  0.3293
62562SOL    HW194544   6.796   4.800   7.338  1.5526  2.3468  1.8851
62562SOL    HW294545   6.856   4.876   7.221  1.2121  0.7535  0.6350
62563SOL     OW94546   4.963   4.675   9.483 -0.0136 -0.0494 -0.2809
62563SOL    HW194547   4.999   4.705   9.399  2.0730 -0.1666  0.5116
62563SOL    HW294548   4.973   4.580   9.480  1.0097  0.0226  0.4828
62564SOL     OW94549   5.510   1.364  11.536 -0.2325 -0.1555  0.4016
62564SOL    HW194550   5.484   1.456  11.524 -0.4410 -0.5114 -2.4523
62564SOL    HW294551   5.524   1.356  11.631 -1.6019  2.4275  0.9263
62565SOL     OW94552   6.955  11.725   2.747 -0.6613  0.2360  0.0810
62565SOL    HW194553   7.000  11.785   2.807  1.3358 -1.0142 -0.0638
62565SOL    HW294554   7.016  11.652   2.737 -2.9619 -1.8011  0.1830
62566SOL     OW94555   0.962   0.919   1.685  0.2771 -0.6577 -0.1978
62566SOL    HW194556   0.998   0.853   1.745  1.2337 -0.2452 -0.2921
62566SOL    HW294557   1.031   0.930   1.619  0.6042  1.2006  0.4042
62567SOL     OW94558   8.635   2.163   6.633 -0.0070 -0.3037 -0.3215
62567SOL    HW194559   8.712   2.213   6.607  1.0365 -1.0644  1.1973
62567SOL    HW294560   8.656   2.072   6.610 -1.3536 -0.2753 -1.8577
62568SOL     OW94561   6.371   8.676   3.824  0.7757  0.8455  0.6328
62568SOL    HW194562   6.389   8.669   3.918 -0.7633 -0.4661  0.8675
62568SOL    HW294563   6.454   8.658   3.782  0.6979 -2.7132  1.6968
62569SOL     OW94564  10.614   7.970   7.166  0.1852  0.0487  0.1208
62569SOL    HW194565  10.693   8.011   7.200 -0.4919  2.4882 -1.0121
62569SOL    HW294566  10.554   7.968   7.240  0.5857  0.1341  0.4502
62570SOL     OW94567   1.284   8.094   2.675  0.2509  0.5509  0.0472
62570SOL    HW194568   1.373   8.058   2.685 -0.4357 -0.9684  1.0447
62570SOL    HW294569   1.229   8.017   2.661 -1.2830  1.1441  2.2665
62571SOL     OW94570   7.898   9.335   6.675 -0.3538  0.2896 -0.0620
62571SOL    HW194571   7.824   9.382   6.638 -0.6326  0.3739  0.5984
62571SOL    HW294572   7.971   9.397   6.669 -0.4588  0.3989 -0.2196
62572SOL     OW94573   5.789   2.272   0.862  0.8662  0.5190 -0.0647
62572SOL    HW194574   5.766   2.309   0.777  0.1811  0.8232  0.2489
62572SOL    HW294575   5.717   2.298   0.920  1.4513  0.5256  0.6674
62573SOL     OW94576   2.834   1.578  10.648  0.1338 -0.0666  0.0418
62573SOL    HW194577   2.840   1.508  10.713  1.5572 -1.3233 -1.3574
62573SOL    HW294578   2.922   1.614  10.643 -0.2135  0.7471 -0.4101
62574SOL     OW94579   9.787   3.449   2.847  0.2725 -0.2921 -0.1243
62574SOL    HW194580   9.775   3.367   2.799 -1.1591 -0.3874  0.3647
62574SOL    HW294581   9.705   3.497   2.833  0.1058 -0.0141  1.6073
62575SOL     OW94582   1.305   4.429   3.720 -0.1088  0.2750  0.8952
62575SOL    HW194583   1.298   4.349   3.773 -0.3033 -0.1896  0.1909
62575SOL    HW294584   1.256   4.495   3.769 -1.5341 -0.5225  0.6011
62576SOL     OW94585   2.434   5.097   6.531 -0.3641 -0.4175  0.4598
62576SOL    HW194586   2.499   5.028   6.547 -1.0443 -1.4748 -1.0475
62576SOL    HW294587   2.486   5.173   6.504  0.2985 -1.6561 -2.1168
62577SOL     OW94588   5.092   7.463   3.209 -0.4651 -0.1728 -0.2769
62577SOL    HW194589   5.161   7.434   3.269 -1.6430 -0.0640  1.1947
62577SOL    HW294590   5.075   7.388   3.153  1.6317  0.1664 -1.4920
62578SOL     OW94591   7.340  10.196   2.715 -0.3589  0.2241 -0.4557
62578SOL    HW194592   7.300  10.109   2.721  0.8429 -0.2601  2.1456
62578SOL    HW294593   7.421  10.189   2.765 -0.4282  2.9528  0.2204
62579SOL     OW94594   0.196   0.507   1.871 -0.0359 -0.2542  0.7926
62579SOL    HW194595   0.282   0.538   1.843 -0.9512  0.6274 -1.1997
62579SOL    HW294596   0.162   0.577   1.927 -1.0565  1.3702 -1.6755
62580SOL     OW94597   6.017   8.035  10.811  0.0925  0.2757 -0.1397
62580SOL    HW194598   5.984   8.120  10.840  1.7517  1.1752 -0.7524
62580SOL    HW294599   6.059   7.998  10.888 -1.6450 -0.5839  0.4626
62581SOL     OW94600   6.482  11.960  11.900 -0.2410  0.1819  0.0566
62581SOL    HW194601   6.565  11.957  11.852  0.0389  1.6129  0.3970
62581SOL    HW294602   6.506  11.937  11.990 -0.0664  1.2291  0.2964
62582SOL     OW94603   4.779   3.066   3.270 -0.1132  0.2833 -0.1165
62582SOL    HW194604   4.794   3.011   3.347  1.7493  3.2979  1.9074
62582SOL    HW294605   4.733   3.143   3.305  0.1945  1.4382 -2.1309
62583SOL     OW94606   1.232   2.270   4.308  0.3256  0.1049 -0.3585
62583SOL    HW194607   1.188   2.201   4.358 -1.3014  0.5481 -1.0818
62583SOL    HW294608   1.223   2.348   4.362  0.9436  0.0421 -0.1590
62584SOL     OW94609  12.377   1.712   2.756 -0.5979 -0.4814 -0.5783
62584SOL    HW194610  12.290   1.697   2.720 -0.8285 -0.1402 -0.1746
62584SOL    HW294611  12.366   1.699   2.850 -0.1486 -0.7203 -0.5576
62585SOL     OW94612   4.529   3.526   0.385 -0.4516  0.0645  0.1578
62585SOL    HW194613   4.453   3.527   0.444 -2.0014 -1.6458 -1.6819
62585SOL    HW294614   4.536   3.435   0.356  1.7928  0.3689 -0.4198
62586SOL     OW94615   7.088  12.031   1.505  0.2149 -0.3399  0.9675
62586SOL    HW194616   6.997  12.005   1.491  0.4516 -1.0669  0.7587
62586SOL    HW294617   7.115  12.069   1.421  0.5377 -1.4419  0.5560
62587SOL     OW94618   7.388   7.477   9.355  0.1017 -0.5832 -0.4910
62587SOL    HW194619   7.363   7.563   9.389  2.3814 -0.0510 -0.0213
62587SOL    HW294620   7.305   7.431   9.344 -1.0199  0.6521  1.9585
62588SOL     OW94621  10.266   5.920   5.584  0.6025 -0.0169  0.5858
62588SOL    HW194622  10.345   5.962   5.618  0.3033  1.1433 -0.0836
62588SOL    HW294623  10.277   5.923   5.489 -0.5020  0.6977  0.4694
62589SOL     OW94624   1.943   0.391   8.680  0.0690  0.1652 -0.2796
62589SOL    HW194625   2.018   0.410   8.736 -0.7189  0.2083  0.7967
62589SOL    HW294626   1.963   0.306   8.641  0.0113 -0.5566  1.1975
62590SOL     OW94627   9.050  10.307   0.453  0.1769  0.2814  0.4477
62590SOL    HW194628   9.086  10.395   0.440 -0.4423  0.4499 -0.1884
62590SOL    HW294629   8.964  10.310   0.411  0.4713 -0.8634 -0.2740
62591SOL     OW94630   4.087  11.792   7.300 -0.0633  0.0677  0.1644
62591SOL    HW194631   4.161  11.850   7.282 -0.9681  1.4204  0.6677
62591SOL    HW294632   4.016  11.825   7.244 -0.8658  0.0651  1.1384
62592SOL     OW94633   4.731   7.514   6.723  0.0956 -0.8952 -0.1223
62592SOL    HW194634   4.808   7.457   6.719  1.0348  0.1058  1.9802
62592SOL    HW294635   4.698   7.503   6.812 -0.7259  0.5466 -0.2261
62593SOL     OW94636   5.229  10.159   7.876  0.2960 -0.3708 -0.1563
62593SOL    HW194637   5.303  10.205   7.915  1.5252 -2.1197 -0.3173
62593SOL    HW294638   5.163  10.227   7.861  1.0441  0.8889  1.9216
62594SOL     OW94639   7.496   9.782   3.324  0.1631  0.5738  0.4854
62594SOL    HW194640   7.461   9.787   3.236 -0.9845 -1.9756  0.6856
62594SOL    HW294641   7.419   9.767   3.380  0.7729  2.7753  2.0533
62595SOL     OW94642   5.852   1.028   7.417  0.0683 -0.3733 -0.9334
62595SOL    HW194643   5.892   1.020   7.503 -0.9358 -1.1679 -0.5096
62595SOL    HW294644   5.892   1.105   7.378 -1.1772  1.4747  1.1919
62596SOL     OW94645   5.904   7.920   8.253  0.5429 -0.3197 -0.2329
62596SOL    HW194646   5.942   7.956   8.174  2.0126  1.5703  1.2231
62596SOL    HW294647   5.968   7.856   8.285  0.1983 -0.7020 -0.2964
62597SOL     OW94648  12.277   9.734  11.181 -0.0873  0.1626  0.4193
62597SOL    HW194649  12.333   9.810  11.201 -1.2746  0.8457  1.2776
62597SOL    HW294650  12.213   9.768  11.119 -0.5208 -0.1750  0.6779
62598SOL     OW94651   0.590   2.704   1.854 -0.4038 -0.1889 -0.0477
62598SOL    HW194652   0.659   2.651   1.812 -0.5804 -0.0693 -0.4929
62598SOL    HW294653   0.599   2.685   1.947  0.7445  0.4175 -0.0140
62599SOL     OW94654  12.392   2.587   8.038  0.0403  0.0392  0.0894
62599SOL    HW194655  12.387   2.610   7.945  0.5422 -0.2068 -0.0004
62599SOL    HW294656  12.370   2.669   8.083  2.6702  1.0412 -0.2148
62600SOL     OW94657   9.540   7.581   4.080 -0.3377 -0.3360 -0.3007
62600SOL    HW194658   9.576   7.507   4.128 -1.5230 -0.0017  1.1767
62600SOL    HW294659   9.455   7.550   4.048 -0.2625 -0.0312 -0.8130
62601SOL     OW94660   2.652   5.968   6.472  0.2266 -0.9257  0.1443
62601SOL    HW194661   2.589   5.990   6.403 -0.4599  0.9444  1.3068
62601SOL    HW294662   2.730   6.018   6.451  0.5844 -1.5713 -0.1055
62602SOL     OW94663   1.310   0.469  11.711  1.0726 -0.3259 -0.3656
62602SOL    HW194664   1.293   0.415  11.635 -0.1233 -0.3502 -0.0995
62602SOL    HW294665   1.338   0.408  11.779 -1.7012 -0.8984  0.3894
62603SOL     OW94666   5.174   9.449   0.704 -0.3840 -0.0157  0.1608
62603SOL    HW194667   5.244   9.473   0.765 -1.0309  2.5820 -0.0182
62603SOL    HW294668   5.177   9.516   0.636 -0.7952 -1.8778 -1.7730
62604SOL     OW94669   7.591   4.604  10.152 -0.0282 -0.4706 -0.6136
62604SOL    HW194670   7.571   4.663  10.224  0.5417 -0.0029 -0.8351
62604SOL    HW294671   7.527   4.533  10.161  0.0766 -0.4499  0.3820
62605SOL     OW94672   8.374   2.813   9.076  0.0814  0.0070  0.3849
62605SOL    HW194673   8.367   2.724   9.041  1.3008 -0.2513  0.7352
62605SOL    HW294674   8.351   2.870   9.003 -0.7304 -0.5864  0.1610
62606SOL     OW94675   3.972   4.621  11.666  0.0540 -0.0847  0.0170
62606SOL    HW194676   4.060   4.620  11.631  0.1161  0.0390  0.1641
62606SOL    HW294677   3.940   4.710  11.650  0.3672  0.2104  0.9524
62607SOL     OW94678   9.768   9.077   4.695  0.1920  0.4023 -0.1853
62607SOL    HW194679   9.678   9.045   4.691  0.5125 -0.8358  1.4593
62607SOL    HW294680   9.820   9.004   4.660  0.6472  0.5687  0.1380
62608SOL     OW94681   6.294  12.185  11.287 -0.1219 -0.2082  0.2800
62608SOL    HW194682   6.307  12.157  11.377  1.5355 -0.2074  0.0723
62608SOL    HW294683   6.327  12.113  11.234  0.7597  0.5976 -0.2972
62609SOL     OW94684   8.585   1.577   0.067  0.1039  0.0526 -0.0182
62609SOL    HW194685   8.601   1.580  -0.028  1.4798 -1.2663  0.1411
62609SOL    HW294686   8.609   1.664   0.098  1.3832 -0.0441 -0.6599
62610SOL     OW94687   3.010  10.394   4.895  0.2813  0.0314  0.0128
62610SOL    HW194688   3.068  10.355   4.959  0.8164  0.3787 -0.2508
62610SOL    HW294689   3.025  10.489   4.903 -1.0100  0.2082  0.6637
62611SOL     OW94690   3.092   6.316  11.812  0.3968 -0.1535  0.8101
62611SOL    HW194691   3.174   6.276  11.783 -0.3287 -0.0203 -1.5737
62611SOL    HW294692   3.031   6.304  11.740 -1.5040  0.4186  2.2200
62612SOL     OW94693   4.730  10.987   2.724 -0.4994 -0.1310 -0.0119
62612SOL    HW194694   4.681  10.982   2.806  0.5825 -0.2764  0.6483
62612SOL    HW294695   4.691  11.061   2.677 -0.0023  1.0862  1.4147
62613SOL     OW94696   2.396   9.813   3.217  0.1261 -0.4835  0.2700
62613SOL    HW194697   2.427   9.898   3.186 -0.4248 -0.9114 -1.5621
62613SOL    HW294698   2.475   9.767   3.245  0.6398 -0.0056 -0.3683
62614SOL     OW94699   9.974   1.860   5.665  0.2481  0.1564  0.0621
62614SOL    HW194700   9.910   1.808   5.617 -0.2648  1.1795 -0.3891
62614SOL    HW294701   9.996   1.806   5.741 -1.0768 -0.2510  0.1793
62615SOL     OW94702   0.968  12.234   3.368 -0.0613  0.0413  0.5120
62615SOL    HW194703   1.030  12.282   3.422  1.9090  0.5755 -2.0701
62615SOL    HW294704   0.985  12.142   3.388  1.7080  0.1707 -0.2230
62616SOL     OW94705   2.295  11.683   2.521  0.1654 -0.4682  0.3376
62616SOL    HW194706   2.340  11.684   2.437  0.4665  1.6249  0.4662
62616SOL    HW294707   2.352  11.632   2.579  0.9059 -0.3309 -0.2558
62617SOL     OW94708   3.785   4.642   3.890 -0.0029 -0.7029 -0.2452
62617SOL    HW194709   3.824   4.587   3.822  0.2588  0.0760 -0.7288
62617SOL    HW294710   3.772   4.727   3.848  0.0685 -0.2387  0.6475
62618SOL     OW94711   2.130  11.915   4.032  0.0196  0.1989  0.3069
62618SOL    HW194712   2.097  11.940   3.946  0.2851 -1.1512 -0.1981
62618SOL    HW294713   2.221  11.890   4.017 -1.1382 -4.6814  0.0095
62619SOL     OW94714   7.695   7.853   6.356 -0.0324 -0.0319  0.2926
62619SOL    HW194715   7.719   7.771   6.399  2.0220  0.0742 -0.5569
62619SOL    HW294716   7.686   7.916   6.427  1.5248 -0.2790  0.7332
62620SOL     OW94717   1.062  11.379  12.241 -0.6887  0.0026  0.1971
62620SOL    HW194718   1.035  11.288  12.239 -0.9238  0.0652  0.5897
62620SOL    HW294719   1.049  11.410  12.151  0.0010 -0.5247 -0.0904
62621SOL     OW94720   8.170  11.613  11.012  0.0691  0.0568 -0.5672
62621SOL    HW194721   8.112  11.684  10.984  0.1878  0.2231 -0.4011
62621SOL    HW294722   8.216  11.650  11.088 -1.0470 -0.7588  0.5585
62622SOL     OW94723   9.214  11.666   6.156  0.0648  0.4445  0.0119
62622SOL    HW194724   9.166  11.740   6.194 -0.9810 -0.4484  0.4563
62622SOL    HW294725   9.300  11.703   6.135 -0.2285  1.6402  0.7764
62623SOL     OW94726   4.003   7.253  11.653 -0.3213  0.0691  0.3255
62623SOL    HW194727   3.931   7.190  11.661 -0.5971  0.3110 -0.1984
62623SOL    HW294728   4.006   7.297  11.738 -0.8533  0.1131  0.3250
62624SOL     OW94729  11.525   2.912   5.989 -0.4697 -0.4647  0.4336
62624SOL    HW194730  11.538   2.962   5.908 -1.8546 -1.5225 -0.4898
62624SOL    HW294731  11.449   2.952   6.030  1.1035  1.0378  2.0549
62625SOL     OW94732   6.779   9.618   4.872 -0.3909  0.7123  0.1703
62625SOL    HW194733   6.818   9.699   4.905 -0.2772  0.3085  1.0464
62625SOL    HW294734   6.690   9.619   4.907 -0.3946  0.4673  0.1672
62626SOL     OW94735   0.467   6.315   0.840  0.3649 -0.3545 -0.4894
62626SOL    HW194736   0.472   6.347   0.930 -2.1223 -0.7981 -0.1276
62626SOL    HW294737   0.551   6.341   0.801  1.1692  0.5801  1.6919
62627SOL     OW94738   6.838   2.682  10.728  0.2325 -0.4607 -0.3025
62627SOL    HW194739   6.787   2.626  10.669 -0.7261  2.3436 -2.3900
62627SOL    HW294740   6.929   2.672  10.699 -0.0985  0.0116 -1.6124
62628SOL     OW94741   3.535   7.174   5.832  0.4866 -0.1086 -0.1209
62628SOL    HW194742   3.578   7.097   5.794  0.5894 -0.3657  0.5142
62628SOL    HW294743   3.586   7.248   5.798  0.6343 -0.3423 -0.4132
62629SOL     OW94744   4.307   8.885   3.972 -0.0992  0.0313  0.5340
62629SOL    HW194745   4.388   8.843   4.002  1.1453  1.6958 -0.2998
62629SOL    HW294746   4.272   8.929   4.049  0.9177  0.9745  0.4891
62630SOL     OW94747   3.732   2.201  10.457  0.0127  0.3746  0.0631
62630SOL    HW194748   3.814   2.229  10.499 -0.5885  1.2173  0.6954
62630SOL    HW294749   3.749   2.214  10.363  0.1282  1.9318  0.2651
62631SOL     OW94750  11.147   6.114  12.115  0.2418 -0.3605  0.0557
62631SOL    HW194751  11.225   6.149  12.072 -0.1245  1.5510  0.8610
62631SOL    HW294752  11.181   6.053  12.180  0.8548 -2.3866 -2.0384
62632SOL     OW94753   9.236   6.560   7.693 -0.2366  0.1702 -0.0455
62632SOL    HW194754   9.278   6.584   7.776 -0.1521 -0.2398  0.0311
62632SOL    HW294755   9.282   6.481   7.665 -1.0857 -0.4103  0.1389
62633SOL     OW94756  11.311   1.345  12.554  0.1029  0.2307  0.1679
62633SOL    HW194757  11.257   1.415  12.520 -1.0830 -0.2043  1.0739
62633SOL    HW294758  11.369   1.387  12.617 -0.7008  0.4081  0.8145
62634SOL     OW94759  10.664   7.582   3.281  0.1366 -0.6783 -0.0511
62634SOL    HW194760  10.711   7.571   3.198  1.0283  0.5826  0.2612
62634SOL    HW294761  10.609   7.504   3.288  1.8521 -1.9965 -0.6350
62635SOL     OW94762   7.405  10.829   3.420  0.0526 -0.0136 -0.3181
62635SOL    HW194763   7.435  10.790   3.338  1.7826  1.8067 -0.6407
62635SOL    HW294764   7.484  10.835   3.474  0.0587  3.3587 -0.4929
62636SOL     OW94765  11.088  10.815   1.060 -0.0884 -0.4726  0.5372
62636SOL    HW194766  11.083  10.793   0.967  1.1483 -1.3581  0.6590
62636SOL    HW294767  11.039  10.746   1.105 -1.2384  0.3101  0.5098
62637SOL     OW94768   6.650   0.184   6.639 -0.5779 -0.4360 -0.3349
62637SOL    HW194769   6.707   0.246   6.594  0.8756 -1.4701  0.0088
62637SOL    HW294770   6.636   0.114   6.575  0.3310 -1.2294  0.3262
62638SOL     OW94771   0.506   3.612   7.402  0.1732  0.4385  0.0566
62638SOL    HW194772   0.470   3.701   7.403  1.0980  0.8437 -0.9342
62638SOL    HW294773   0.473   3.573   7.321 -0.2525 -0.1453  0.4980
62639SOL     OW94774  11.953   5.512   2.747  0.8611 -0.3155  0.5585
62639SOL    HW194775  11.860   5.489   2.743  0.8824 -0.4161  0.6367
62639SOL    HW294776  11.956   5.589   2.804  0.7372  0.1719 -0.0880
62640SOL     OW94777   6.002   5.805  11.499  0.3660  0.3496 -0.8548
62640SOL    HW194778   5.934   5.850  11.548  1.6290  0.2334  1.1055
62640SOL    HW294779   5.961   5.782  11.415 -2.0933  0.0029  0.3734
62641SOL     OW94780   3.324   4.778  10.373  0.2995 -0.3074  0.3003
62641SOL    HW194781   3.400   4.721  10.369  0.1837 -0.5120  0.9060
62641SOL    HW294782   3.287   4.764  10.460 -0.8349 -0.7170 -0.2232
62642SOL     OW94783  11.978   4.570   5.958  0.2336  0.4622  0.0755
62642SOL    HW194784  11.984   4.511   5.883  0.0671  0.2068  0.2613
62642SOL    HW294785  11.887   4.599   5.958  0.0280 -0.1500  0.6384
62643SOL     OW94786   7.754   6.856   2.710 -0.5696 -0.1178 -0.1915
62643SOL    HW194787   7.835   6.905   2.699  0.3804 -1.5521  0.0039
62643SOL    HW294788   7.716   6.850   2.623  0.5886 -1.1024 -0.6574
62644SOL     OW94789   6.357  12.194   3.890 -0.5786  0.7137  0.2609
62644SOL    HW194790   6.404  12.174   3.971 -0.1941  1.1622  0.1529
62644SOL    HW294791   6.425  12.207   3.825 -0.9229 -0.9972 -0.4829
62645SOL     OW94792   0.141   2.271   1.484 -0.6258 -0.1433 -0.1290
62645SOL    HW194793   0.086   2.319   1.422 -0.7568 -0.5991 -0.3726
62645SOL    HW294794   0.080   2.218   1.535 -0.2733 -3.2923 -2.6526
62646SOL     OW94795   1.822   1.818   2.041 -0.0373 -0.0489  0.1756
62646SOL    HW194796   1.732   1.795   2.017 -0.2704 -0.3987  1.3021
62646SOL    HW294797   1.827   1.797   2.134  0.6742  1.6090  0.5485
62647SOL     OW94798   7.535   1.806  11.932 -0.3359 -0.0932 -0.4784
62647SOL    HW194799   7.551   1.716  11.905 -2.9606 -1.4330  1.8689
62647SOL    HW294800   7.606   1.827  11.992  0.1171 -0.7117 -0.7953
62648SOL     OW94801   0.683   5.427   6.883 -0.1254 -0.0870 -0.0914
62648SOL    HW194802   0.669   5.486   6.957 -1.9966 -0.4743 -0.0830
62648SOL    HW294803   0.713   5.346   6.922 -0.1128  0.0385  0.1599
62649SOL     OW94804  11.416   9.442   9.268  0.0867 -0.1192 -0.2015
62649SOL    HW194805  11.338   9.444   9.324 -0.0917  0.1051 -0.4508
62649SOL    HW294806  11.455   9.357   9.285 -0.4857 -0.4354 -0.4347
62650SOL     OW94807  10.454   8.834   3.683  0.8773 -0.3283  0.3128
62650SOL    HW194808  10.529   8.880   3.645 -0.3168 -0.6165 -2.6653
62650SOL    HW294809  10.405   8.901   3.730  0.1848  1.1677 -2.3249
62651SOL     OW94810   4.576  11.780  10.179 -0.3817  0.0439 -0.1975
62651SOL    HW194811   4.651  11.731  10.146 -1.3248 -1.8731  0.3380
62651SOL    HW294812   4.607  11.822  10.259  0.1605 -0.6231 -0.0486
62652SOL     OW94813   2.102   6.625   8.909  0.4460  0.3043  0.5606
62652SOL    HW194814   2.076   6.701   8.856  1.5195  0.4227  0.1895
62652SOL    HW294815   2.018   6.586   8.936 -0.1273  1.5790  0.7279
62653SOL     OW94816   1.501   9.928  10.793  0.6885  0.1972 -0.5144
62653SOL    HW194817   1.483   9.850  10.845  1.0837  0.6046  0.2436
62653SOL    HW294818   1.477  10.001  10.850  1.4016  0.6536 -0.7880
62654SOL     OW94819   4.099   7.128   4.779  0.1989 -0.0825 -0.3345
62654SOL    HW194820   4.062   7.157   4.695  0.7279 -2.0569 -1.3175
62654SOL    HW294821   4.188   7.100   4.757  0.7550  0.4805  1.1317
62655SOL     OW94822   9.000   2.666   4.924 -0.4326  0.3562  0.1687
62655SOL    HW194823   9.029   2.652   4.834  1.2714  1.2109  0.5312
62655SOL    HW294824   8.908   2.689   4.917 -0.6552 -0.8351 -1.2327
62656SOL     OW94825   3.146   3.694  10.089  0.6387 -0.0754  0.7789
62656SOL    HW194826   3.163   3.731  10.002  1.1165 -1.9540  0.0132
62656SOL    HW294827   3.060   3.653  10.081 -0.4044  1.7599  1.9560
62657SOL     OW94828   6.285   6.958   8.332  0.2807 -0.6028 -0.0803
62657SOL    HW194829   6.360   6.901   8.349 -1.7258 -3.2888  0.4620
62657SOL    HW294830   6.296   7.030   8.393  2.4262 -0.8800 -0.0582
62658SOL     OW94831   5.268   5.977   2.174  0.8729 -0.0573  0.1745
62658SOL    HW194832   5.332   6.045   2.154  0.7030 -0.4505 -1.9738
62658SOL    HW294833   5.192   6.025   2.207  0.0762  1.1052 -2.9545
62659SOL     OW94834   1.269   6.080   2.928  0.0132  0.3074 -0.0338
62659SOL    HW194835   1.186   6.128   2.926 -1.0815 -1.4046  0.8167
62659SOL    HW294836   1.290   6.064   2.836 -1.5048 -0.6176 -0.2555
62660SOL     OW94837   8.254  10.742   1.927 -0.4509 -0.0610  0.2959
62660SOL    HW194838   8.328  10.797   1.903 -1.8695  1.8615  0.1565
62660SOL    HW294839   8.252  10.673   1.860  0.7475  0.2789 -0.1037
62661SOL     OW94840   1.764   7.364   0.340 -0.1081 -0.0500 -0.1084
62661SOL    HW194841   1.762   7.417   0.261 -1.7815 -1.1579 -0.8508
62661SOL    HW294842   1.789   7.277   0.310  1.4167 -0.0116  0.9293
62662SOL     OW94843   8.898   1.534   1.319 -0.3035 -0.1570 -0.1197
62662SOL    HW194844   8.914   1.486   1.400 -0.4426 -1.5652 -0.9009
62662SOL    HW294845   8.813   1.575   1.331 -1.2730 -2.0306 -0.3019
62663SOL     OW94846   4.155   0.250   0.215  0.9511  0.5403  0.2679
62663SOL    HW194847   4.217   0.304   0.264 -0.2966  0.9494  1.4482
62663SOL    HW294848   4.180   0.160   0.236  2.1034  0.6615 -0.5164
62664SOL     OW94849   6.720   2.098   6.701 -0.1840  0.5045  0.2909
62664SOL    HW194850   6.744   2.069   6.613  0.5525 -3.6147  1.5859
62664SOL    HW294851   6.799   2.139   6.735 -0.3579  1.7915 -0.7848
62665SOL     OW94852  10.595   3.963   2.569 -0.0622  0.0679 -0.0945
62665SOL    HW194853  10.507   3.925   2.567 -0.5208  1.0255  0.9365
62665SOL    HW294854  10.654   3.887   2.576 -1.0142 -0.5062  3.7441
62666SOL     OW94855   0.243  12.267  10.993  0.2510 -0.2513 -0.0828
62666SOL    HW194856   0.265  12.357  11.018 -2.1847  0.3983 -0.0374
62666SOL    HW294857   0.148  12.267  10.985  0.0901 -3.0814  0.8190
62667SOL     OW94858   4.042   7.607   9.371 -0.6089 -0.2697  0.3480
62667SOL    HW194859   3.998   7.541   9.424 -0.8588 -2.3371 -2.2427
62667SOL    HW294860   3.973   7.668   9.345 -1.1070 -1.0228 -0.1219
62668SOL     OW94861   1.054   4.177   9.104  0.2007 -0.1886  0.2799
62668SOL    HW194862   1.046   4.196   9.198 -1.3346  0.5091  0.0318
62668SOL    HW294863   1.036   4.261   9.061 -2.9846 -1.2484 -0.7321
62669SOL     OW94864   0.991   7.884   2.837  0.3434  0.0377  0.3228
62669SOL    HW194865   0.901   7.854   2.844  0.3512 -0.4476 -1.2421
62669SOL    HW294866   0.994   7.965   2.887 -1.5394  1.2624 -1.4337
62670SOL     OW94867   5.800   3.481  11.569  0.3380 -0.0005 -0.1775
62670SOL    HW194868   5.884   3.495  11.525 -0.3218  2.7802 -0.7627
62670SOL    HW294869   5.734   3.498  11.501 -0.6899  0.1048  0.8169
62671SOL     OW94870   6.124   4.714  12.097  0.2837 -0.2733 -0.1439
62671SOL    HW194871   6.096   4.623  12.097  0.3090 -0.3053  1.2786
62671SOL    HW294872   6.219   4.710  12.107  0.2681 -0.1035  0.1039
62672SOL     OW94873   8.681   3.099  10.687  0.1042 -0.1780 -0.0688
62672SOL    HW194874   8.645   3.187  10.673  0.2671 -0.1746 -0.4934
62672SOL    HW294875   8.645   3.047  10.615  0.4126 -0.3325 -0.1131
62673SOL     OW94876   0.471   2.257   5.746 -0.2505 -0.2662 -0.3462
62673SOL    HW194877   0.388   2.244   5.699 -0.2136 -1.4232 -0.1348
62673SOL    HW294878   0.480   2.178   5.799  0.9281 -0.0887 -0.2651
62674SOL     OW94879   8.321   9.345   9.482 -0.2703  0.1484 -0.3972
62674SOL    HW194880   8.401   9.306   9.518 -1.0703 -1.8668 -0.6565
62674SOL    HW294881   8.300   9.417   9.541  0.9055 -0.2570  0.5465
62675SOL     OW94882   1.563   5.553   4.809  0.3090  0.3029  0.2718
62675SOL    HW194883   1.530   5.517   4.727  0.4342 -1.7864  1.0857
62675SOL    HW294884   1.485   5.577   4.858  0.2098  0.6996 -0.0726
62676SOL     OW94885  11.222   8.415   8.321 -0.0587 -0.4063  0.1918
62676SOL    HW194886  11.163   8.482   8.354 -1.6248 -1.8279  0.4371
62676SOL    HW294887  11.232   8.435   8.228 -0.9133 -0.1217  0.1561
62677SOL     OW94888  12.296  10.095  11.130  0.6802 -0.2525 -0.0718
62677SOL    HW194889  12.278  10.104  11.224  2.1168 -0.2181  0.2342
62677SOL    HW294890  12.214  10.117  11.087 -0.5400 -1.9852  1.2288
62678SOL     OW94891  10.593   8.562   5.387  0.6492  0.1191  0.3740
62678SOL    HW194892  10.676   8.569   5.434  0.3537  1.6685  0.7298
62678SOL    HW294893  10.569   8.653   5.368  0.5755 -0.4062 -2.5043
62679SOL     OW94894   2.163   7.085   6.097 -0.0517 -0.0158 -0.1540
62679SOL    HW194895   2.081   7.045   6.068 -0.3834  1.8137 -1.9533
62679SOL    HW294896   2.230   7.046   6.040 -0.1686  0.8621 -0.9123
62680SOL     OW94897   9.192  11.625   1.731 -0.2282 -0.4245  0.0310
62680SOL    HW194898   9.113  11.592   1.773 -0.4528  0.8511  0.6441
62680SOL    HW294899   9.250  11.549   1.726 -1.4787 -1.3770 -0.4303
62681SOL     OW94900   4.559   0.989  10.876 -0.1055  0.2870 -0.4024
62681SOL    HW194901   4.600   1.040  10.946  1.6082 -2.0324  0.4052
62681SOL    HW294902   4.612   0.910  10.869 -1.6000 -0.6279 -2.7802
62682SOL     OW94903   5.793   8.287   4.736 -0.7412  0.4936  0.3587
62682SOL    HW194904   5.732   8.247   4.674  0.4094 -0.9791  0.1330
62682SOL    HW294905   5.737   8.341   4.792 -2.0244  0.5067 -0.8655
62683SOL     OW94906   5.605  10.677   8.219 -0.0489 -0.8241  0.0315
62683SOL    HW194907   5.640  10.594   8.253 -0.9639 -1.0385  0.4863
62683SOL    HW294908   5.510  10.667   8.227 -0.1459  0.7984  1.3925
62684SOL     OW94909   1.219   0.429   4.563  0.5125 -0.5207  0.1373
62684SOL    HW194910   1.277   0.492   4.522  1.1000 -1.1199  0.0366
62684SOL    HW294911   1.198   0.366   4.493  2.0113 -1.9023  0.8498
62685SOL     OW94912   1.742  10.525   9.515 -0.2836 -0.6425 -0.3051
62685SOL    HW194913   1.694  10.457   9.466 -0.2239 -0.4264 -0.6690
62685SOL    HW294914   1.799  10.476   9.574 -1.0052 -0.9075  0.1927
62686SOL     OW94915   7.953   0.296   9.719  0.2949  0.0020 -0.2505
62686SOL    HW194916   7.866   0.260   9.706 -0.1705  0.5694  1.0955
62686SOL    HW294917   8.000   0.278   9.637 -0.9037 -0.7939 -0.7773
62687SOL     OW94918   2.113   7.075   3.775 -0.2408 -0.4219  0.3857
62687SOL    HW194919   2.059   7.018   3.721 -0.6567  0.8580 -0.6084
62687SOL    HW294920   2.202   7.065   3.741 -0.5714  0.7480 -0.9451
62688SOL     OW94921  12.553  11.982   1.036  0.2071  0.1480  0.0356
62688SOL    HW194922  12.462  11.962   1.055  0.1983 -1.6810 -1.5935
62688SOL    HW294923  12.602  11.934   1.103  0.0099 -0.4194 -0.2203
62689SOL     OW94924  12.041   8.288   8.525  0.2083  0.2219  0.0159
62689SOL    HW194925  12.048   8.377   8.559  0.9946 -0.1635  0.9313
62689SOL    HW294926  12.122   8.275   8.475 -0.8289  0.7005 -1.8817
62690SOL     OW94927   6.723   1.802  11.266  0.1309 -0.4861  0.0571
62690SOL    HW194928   6.673   1.826  11.188 -1.4187 -2.6814  0.2927
62690SOL    HW294929   6.805   1.768  11.232 -0.2119 -0.6954 -0.5699
62691SOL     OW94930   4.060   9.215  11.240  0.1826 -0.8748  0.5257
62691SOL    HW194931   4.121   9.157  11.194  0.8475 -0.1383  0.4552
62691SOL    HW294932   4.116   9.277  11.285 -0.5220  0.2057 -0.0454
62692SOL     OW94933   1.072   4.242  10.786  0.2080 -0.1028  0.4887
62692SOL    HW194934   1.020   4.218  10.862 -0.3753 -0.6327 -0.0669
62692SOL    HW294935   1.023   4.313  10.745  0.5585  0.2315  0.6420
62693SOL     OW94936   2.916   2.196  11.494  0.3143 -0.9856 -0.0438
62693SOL    HW194937   2.830   2.237  11.482  0.4572 -0.4656  0.6787
62693SOL    HW294938   2.903   2.131  11.563  1.0442  0.8414  1.8980
62694SOL     OW94939   5.598   4.658   6.281 -0.1889  0.3562 -0.1252
62694SOL    HW194940   5.618   4.642   6.373  0.9007  0.9338 -0.2527
62694SOL    HW294941   5.579   4.572   6.245  3.2129 -0.4779 -0.2466
62695SOL     OW94942   0.270   6.608   0.738 -0.1122 -0.1397 -0.1748
62695SOL    HW194943   0.350   6.601   0.685 -0.8455 -1.3573 -1.1643
62695SOL    HW294944   0.302   6.625   0.827  1.2606 -0.7702 -0.5125
62696SOL     OW94945  12.076   2.907   2.495  0.0905  1.1174 -0.6508
62696SOL    HW194946  11.993   2.899   2.543 -0.0216 -0.5644 -1.0655
62696SOL    HW294947  12.102   2.816   2.476  0.9990  1.6776 -2.2843
62697SOL     OW94948   1.805   0.671   9.484 -0.4177  0.0814  0.0875
62697SOL    HW194949   1.718   0.632   9.482 -0.8382  0.9758  0.2489
62697SOL    HW294950   1.797   0.749   9.428  0.2963  0.1328  0.0506
62698SOL     OW94951   4.815   9.649   3.481 -0.3501  0.5197 -0.3383
62698SOL    HW194952   4.815   9.722   3.420  0.9607  0.0751 -0.9096
62698SOL    HW294953   4.870   9.679   3.554  0.9398 -0.1847 -0.9853
62699SOL     OW94954   4.743   8.293  11.598  0.3436 -0.3436  0.1715
62699SOL    HW194955   4.791   8.237  11.538  1.0007  1.3714 -0.9716
62699SOL    HW294956   4.803   8.305  11.673 -0.4450 -2.4110  1.2013
62700SOL     OW94957   1.604   3.056   8.204  0.6436  0.3890  0.3727
62700SOL    HW194958   1.628   3.108   8.128  0.0857  0.0580 -0.0336
62700SOL    HW294959   1.622   2.966   8.178  0.5842  0.2848  0.6872
62701SOL     OW94960   1.147  10.548  10.769  0.1841  0.2596  0.0483
62701SOL    HW194961   1.217  10.496  10.808  0.8855 -0.2838 -1.8304
62701SOL    HW294962   1.186  10.636  10.759  0.0327  0.3775  0.4912
62702SOL     OW94963   3.508  12.402   4.679 -0.2928 -0.1202  0.0413
62702SOL    HW194964   3.573  12.398   4.608  2.1794  2.2693  1.9514
62702SOL    HW294965   3.460  12.484   4.662 -1.8095 -1.0661 -0.4540
62703SOL     OW94966   9.562   1.393   9.319  0.0412  0.1626  0.3108
62703SOL    HW194967   9.649   1.395   9.281  0.6219 -1.7436  1.4322
62703SOL    HW294968   9.511   1.338   9.259 -0.4244  1.2632 -0.3367
62704SOL     OW94969   1.426   1.741   5.464  0.1800 -0.5300 -0.2324
62704SOL    HW194970   1.477   1.821   5.471  0.1592 -0.6425  3.5264
62704SOL    HW294971   1.343   1.768   5.425  0.4859  1.1036  0.1938
62705SOL     OW94972   2.519  11.755  10.210  0.0056  0.8803  0.5162
62705SOL    HW194973   2.556  11.680  10.258 -1.2868 -0.5912 -0.6706
62705SOL    HW294974   2.595  11.795  10.168  0.4690 -1.7808 -1.4791
62706SOL     OW94975   8.816   9.104   4.580 -0.3534  0.2477  0.3983
62706SOL    HW194976   8.898   9.056   4.584 -0.2969  0.3535  0.5089
62706SOL    HW294977   8.775   9.075   4.499 -0.6682 -0.5503  0.8395
62707SOL     OW94978   9.989   3.618   2.333  0.3154  0.0941  0.1040
62707SOL    HW194979  10.014   3.672   2.258 -0.0131 -0.2449 -0.2474
62707SOL    HW294980  10.065   3.624   2.392 -0.3333  2.2904  0.8509
62708SOL     OW94981   0.271   5.027  10.220  0.0050 -0.0221 -0.2960
62708SOL    HW194982   0.244   5.115  10.247 -0.2739 -0.3216  0.4381
62708SOL    HW294983   0.200   4.970  10.251  0.0225 -0.4644 -1.0634
62709SOL     OW94984  12.105   6.716  11.933  0.4063  0.1407  0.3098
62709SOL    HW194985  12.077   6.726  11.842  0.8877 -0.4950  0.0876
62709SOL    HW294986  12.156   6.796  11.952 -1.6391  1.4141  0.7803
62710SOL     OW94987   4.145   0.547   3.614  0.3663 -0.3166 -1.1187
62710SOL    HW194988   4.153   0.609   3.686  0.7571 -3.0467  1.3687
62710SOL    HW294989   4.228   0.556   3.565 -0.0948  1.8851 -1.6266
62711SOL     OW94990   3.802   3.403   5.343 -0.0828 -0.2459 -0.3798
62711SOL    HW194991   3.789   3.379   5.251  1.3507  0.2850 -0.7568
62711SOL    HW294992   3.830   3.323   5.386 -0.1169 -0.3492 -0.5507
62712SOL     OW94993   7.438   6.599   4.918 -0.0555  0.0454 -0.3058
62712SOL    HW194994   7.433   6.532   4.850 -0.8405  0.3559 -0.5671
62712SOL    HW294995   7.397   6.559   4.995  0.0717 -0.0050 -0.2635
62713SOL     OW94996   6.299   9.916   3.038 -0.5628  0.6186  0.3249
62713SOL    HW194997   6.367   9.936   2.973 -1.3593 -2.1158 -1.5255
62713SOL    HW294998   6.347   9.876   3.111  0.0018  0.3999 -0.1574
62714SOL     OW94999   1.395   5.409   0.999  0.2866  0.3656 -0.0681
62714SOL    HW195000   1.324   5.444   0.945  0.7859  1.4328 -0.0687
62714SOL    HW295001   1.380   5.315   1.001  0.8355  0.1161 -2.9963
62715SOL     OW95002   1.413   8.835   9.918  0.2699  0.1678 -0.1651
62715SOL    HW195003   1.396   8.758   9.972 -0.8609 -0.4603 -1.3710
62715SOL    HW295004   1.427   8.801   9.830 -3.2271  1.4003 -1.3812
62716SOL     OW95005   6.562  10.451   2.655 -0.5062  0.7458  0.0380
62716SOL    HW195006   6.478  10.478   2.691 -0.8817  0.0084 -0.2616
62716SOL    HW295007   6.598  10.391   2.720 -0.6314  0.3529 -0.2550
62717SOL     OW95008  10.967   4.695  10.710 -0.4957  1.0414  0.3370
62717SOL    HW195009  10.922   4.651  10.639 -1.0316  0.2249  1.1612
62717SOL    HW295010  11.019   4.763  10.667  0.4981 -0.4909 -0.9979
62718SOL     OW95011   2.862   4.254   2.760  0.4761 -0.1815 -0.1427
62718SOL    HW195012   2.824   4.168   2.782 -3.7212  1.3950 -0.2556
62718SOL    HW295013   2.936   4.263   2.819  0.5207 -3.4887  0.5009
62719SOL     OW95014   4.182   2.631   4.031  0.1987 -0.2150 -0.2269
62719SOL    HW195015   4.163   2.612   4.123 -1.5938  1.1897 -0.2514
62719SOL    HW295016   4.208   2.547   3.994 -0.4732 -1.0983  1.2281
62720SOL     OW95017   4.461   6.041   9.437 -0.3865  0.5363  0.1759
62720SOL    HW195018   4.452   6.124   9.390 -0.4506 -0.4738 -1.6889
62720SOL    HW295019   4.373   6.020   9.468 -0.5684  0.6416 -0.2714
62721SOL     OW95020  10.260   7.714   1.691  0.3393 -0.4299 -0.2882
62721SOL    HW195021  10.308   7.780   1.740  1.1881 -1.8482  0.8532
62721SOL    HW295022  10.169   7.727   1.715  0.0983  2.0301 -2.1643
62722SOL     OW95023   2.858  10.341   3.091  0.5968 -0.2247 -0.2607
62722SOL    HW195024   2.809  10.370   3.015  0.3259  1.3800  0.4859
62722SOL    HW295025   2.791  10.314   3.154  0.5959  1.9047  0.7347
62723SOL     OW95026   1.842   0.073   6.834  0.0839  0.5624 -0.2682
62723SOL    HW195027   1.854   0.158   6.875 -0.4225  0.6671 -0.3339
62723SOL    HW295028   1.815   0.093   6.744  0.3666  0.3327 -0.4069
62724SOL     OW95029  10.689  11.097   3.008 -0.3500  0.0954 -0.4510
62724SOL    HW195030  10.628  11.046   3.062 -1.1381 -2.0714 -3.1475
62724SOL    HW295031  10.633  11.151   2.952  0.2118 -0.6840 -1.8126
62725SOL     OW95032   5.357  11.990   7.802  0.4118  0.4540 -0.3468
62725SOL    HW195033   5.400  11.905   7.791  1.1151  0.8490 -0.6903
62725SOL    HW295034   5.361  12.008   7.896 -1.4370 -0.7603  0.0129
62726SOL     OW95035   0.430  12.478   3.160  0.0189 -0.4793  0.7749
62726SOL    HW195036   0.346  12.515   3.133  0.4517  0.8790  1.1807
62726SOL    HW295037   0.418  12.455   3.252 -0.1227 -0.9307  0.6411
62727SOL     OW95038  10.039   4.649   6.879 -0.0341 -0.3147  0.4102
62727SOL    HW195039   9.977   4.672   6.809 -0.0657 -1.6090 -0.0223
62727SOL    HW295040  10.123   4.684   6.849 -0.2031 -0.1680  0.1035
62728SOL     OW95041   8.822   0.262   4.055  0.2655 -0.0776  0.1338
62728SOL    HW195042   8.859   0.338   4.010  0.6562 -0.1947  0.2514
62728SOL    HW295043   8.892   0.234   4.114 -0.2126  0.0338  0.7609
62729SOL     OW95044  10.214  10.083   1.784 -0.2604  0.2530 -0.3098
62729SOL    HW195045  10.264  10.160   1.757 -1.6223  1.1028 -0.5031
62729SOL    HW295046  10.206  10.030   1.705 -0.3751  0.5135 -0.4723
62730SOL     OW95047   6.290   4.518   1.843  0.0206 -0.2519 -0.4409
62730SOL    HW195048   6.346   4.471   1.782  1.1594 -3.2257  2.5705
62730SOL    HW295049   6.203   4.479   1.830  0.0158 -0.1090 -0.8546
62731SOL     OW95050   2.751   6.106   6.232 -0.6572 -0.5890  0.0221
62731SOL    HW195051   2.748   6.163   6.155  0.0668  1.2223  1.2522
62731SOL    HW295052   2.670   6.056   6.229 -0.7110 -0.4517 -1.8192
62732SOL     OW95053   0.534   3.377   5.668  0.5224 -0.9360 -0.4446
62732SOL    HW195054   0.592   3.372   5.744  1.7699 -1.9906 -1.4222
62732SOL    HW295055   0.571   3.446   5.613 -0.2467 -0.3323 -0.2303
62733SOL     OW95056   1.784   5.391   3.846 -0.5716 -0.0700 -0.1245
62733SOL    HW195057   1.743   5.476   3.861  0.8482  1.1940 -2.7183
62733SOL    HW295058   1.717   5.339   3.802 -0.4813  0.8586 -1.4055
62734SOL     OW95059   7.891   4.737  11.492 -0.1204 -0.3633 -0.2008
62734SOL    HW195060   7.901   4.814  11.437 -1.2857  0.1606  0.2880
62734SOL    HW295061   7.838   4.767  11.566 -0.1035 -1.4938  0.2898
62735SOL     OW95062   2.120   9.416   1.787 -0.1720 -0.4479 -0.0954
62735SOL    HW195063   2.040   9.387   1.742 -0.1764  0.8598 -0.9877
62735SOL    HW295064   2.157   9.483   1.730  1.3173 -0.6713  0.5495
62736SOL     OW95065   7.876  10.297   6.758  0.2924 -0.1292  0.1806
62736SOL    HW195066   7.812  10.232   6.788  0.5127 -0.6160 -0.3971
62736SOL    HW295067   7.952  10.245   6.731  1.5691  0.4972  2.2868
62737SOL     OW95068   4.725   3.026   0.502 -0.6573  0.2645  0.1134
62737SOL    HW195069   4.757   3.029   0.592  0.5251 -0.4554 -0.2649
62737SOL    HW295070   4.724   2.933   0.480 -2.4924  0.3004 -0.1000
62738SOL     OW95071   0.969   4.200   0.904  0.1730 -0.2418  0.0655
62738SOL    HW195072   0.965   4.204   1.000  0.7391  0.6675  0.0635
62738SOL    HW295073   0.944   4.110   0.883 -0.4311 -0.3197  1.0349
62739SOL     OW95074  10.395  11.070   1.600 -0.3159  0.0741 -0.0691
62739SOL    HW195075  10.372  10.978   1.605 -1.3968  0.1765 -2.1033
62739SOL    HW295076  10.399  11.099   1.691 -0.1112 -1.9230  0.5928
62740SOL     OW95077  12.060  11.615   1.119  0.2726  0.0447  0.2486
62740SOL    HW195078  11.995  11.571   1.173  1.2509 -0.0286  1.4196
62740SOL    HW295079  12.088  11.549   1.055 -1.5315  0.4011 -0.9666
62741SOL     OW95080   6.808   8.193   9.951 -0.3335 -0.1515  0.3188
62741SOL    HW195081   6.767   8.136   9.886 -0.9015  0.0876  0.4585
62741SOL    HW295082   6.878   8.237   9.904 -0.7558  0.0402 -0.1431
62742SOL     OW95083  11.189   3.253   4.355 -0.5386  0.5164  0.2789
62742SOL    HW195084  11.159   3.212   4.436 -0.9339 -0.3861 -0.3122
62742SOL    HW295085  11.269   3.299   4.380  1.2776 -2.5212  0.4933
62743SOL     OW95086   8.069   3.839  11.028 -0.1710  0.2574 -0.2980
62743SOL    HW195087   8.137   3.774  11.048  2.0441  2.2467 -0.8302
62743SOL    HW295088   8.020   3.801  10.955  1.4342 -0.5975 -0.9914
62744SOL     OW95089  10.352   4.337   0.200 -0.6961  0.2708 -0.0388
62744SOL    HW195090  10.258   4.329   0.180 -0.8075  0.4565  0.4071
62744SOL    HW295091  10.362   4.426   0.232 -0.3023  0.3596 -0.3983
62745SOL     OW95092   9.016   5.595   4.494 -0.1554 -0.0055 -0.0793
62745SOL    HW195093   9.090   5.654   4.509  0.5794 -1.1253  0.9231
62745SOL    HW295094   8.949   5.650   4.454  0.9920  1.1822 -0.4345
62746SOL     OW95095   8.684   9.223   0.596 -0.0378  0.4848 -0.8181
62746SOL    HW195096   8.773   9.235   0.628  0.2458 -1.5630 -0.6513
62746SOL    HW295097   8.636   9.299   0.628  1.4932  1.2830 -0.3336
62747SOL     OW95098   4.226   0.891   4.928 -0.2718 -1.1309 -0.7362
62747SOL    HW195099   4.202   0.824   4.864  1.0317 -1.8986 -0.4509
62747SOL    HW295100   4.322   0.892   4.928 -0.1649 -2.0086  2.0255
62748SOL     OW95101   7.400  12.211   3.516  0.1428  0.1483  0.0120
62748SOL    HW195102   7.378  12.139   3.575  0.1856  0.5119  0.4741
62748SOL    HW295103   7.366  12.183   3.431 -0.8409  0.0694  0.4136
62749SOL     OW95104   3.182   5.475  10.141 -0.2500  0.6166  0.1277
62749SOL    HW195105   3.127   5.542  10.100  1.5893  1.1475 -1.6775
62749SOL    HW295106   3.264   5.479  10.092  0.7011 -1.4794  1.4152
62750SOL     OW95107   1.757   4.452   7.615 -0.2842 -0.6404  0.0526
62750SOL    HW195108   1.816   4.476   7.686 -1.6487 -0.8051  1.2863
62750SOL    HW295109   1.684   4.514   7.622 -0.4330 -0.6303 -1.2515
62751SOL     OW95110   3.488   6.591   3.051 -0.0185  1.1019 -0.1911
62751SOL    HW195111   3.443   6.545   3.121  0.3015 -0.4559 -0.9738
62751SOL    HW295112   3.434   6.577   2.973  0.5735  1.2322 -0.6358
62752SOL     OW95113   6.578   1.777   7.792 -0.5303 -0.1868  0.3391
62752SOL    HW195114   6.562   1.711   7.859 -2.6606 -1.2327 -1.0718
62752SOL    HW295115   6.507   1.840   7.802  0.0870  0.5625  0.1112
62753SOL     OW95116   4.342   2.061   6.387 -0.1394 -0.5322  0.2269
62753SOL    HW195117   4.353   2.006   6.465 -1.0773  1.4569  1.8641
62753SOL    HW295118   4.431   2.093   6.368  0.4092 -2.4842 -0.7240
62754SOL     OW95119   2.359  11.465  11.755  0.5256 -0.4651 -0.2654
62754SOL    HW195120   2.321  11.399  11.696 -1.1794 -0.7438  1.0686
62754SOL    HW295121   2.367  11.420  11.839 -0.2958  0.9118  0.5656
62755SOL     OW95122   6.799   2.283   5.138  0.0344 -0.3149  0.8653
62755SOL    HW195123   6.776   2.196   5.105 -2.4346  1.3355 -2.2502
62755SOL    HW295124   6.885   2.301   5.100 -1.0000 -0.0781 -1.5029
62756SOL     OW95125  10.076  10.938   3.677  0.5144 -0.7596 -0.1737
62756SOL    HW195126  10.155  10.993   3.678  0.3741 -0.5410 -0.9747
62756SOL    HW295127  10.005  10.998   3.701  0.8134 -1.3739  2.6666
62757SOL     OW95128   0.017  12.315   9.764 -0.1656 -0.6394  0.1395
62757SOL    HW195129   0.052  12.283   9.680 -1.2718  0.7399 -0.8831
62757SOL    HW295130   0.095  12.337   9.815  0.5350  0.3756 -1.2933
62758SOL     OW95131   5.663  12.455   1.920  0.4638 -0.3372 -0.0478
62758SOL    HW195132   5.666  12.543   1.958  0.9595 -0.0331 -0.7850
62758SOL    HW295133   5.744  12.447   1.871  0.9123 -1.6024  0.8437
62759SOL     OW95134   7.625   7.374   3.168  0.6853 -0.8141  0.2190
62759SOL    HW195135   7.613   7.279   3.176 -1.5484 -0.6609 -0.6529
62759SOL    HW295136   7.578   7.398   3.088 -0.5558  1.2864  1.4889
62760SOL     OW95137   3.580   9.091   3.934 -0.1737 -0.1129  0.3039
62760SOL    HW195138   3.595   9.183   3.910 -2.4298 -0.0819 -1.2798
62760SOL    HW295139   3.533   9.095   4.017  1.6141  0.0363  1.3533
62761SOL     OW95140  10.374   2.143   9.698 -0.2596  0.0980  0.2458
62761SOL    HW195141  10.313   2.188   9.756 -2.0871 -0.2160 -1.3046
62761SOL    HW295142  10.319   2.082   9.648  1.4454 -0.7003 -0.7553
62762SOL     OW95143   7.839  11.713   3.611  0.6334  0.3385  0.1393
62762SOL    HW195144   7.826  11.725   3.517 -0.8778  0.7613  0.3851
62762SOL    HW295145   7.859  11.800   3.643  0.9408  0.2267  0.2590
62763SOL     OW95146   0.011  11.924  12.206  0.4490 -0.5529  0.4436
62763SOL    HW195147  -0.066  11.947  12.154 -0.2840  0.1547  1.7646
62763SOL    HW295148   0.038  12.007  12.246 -0.0675 -1.3188  2.5129
62764SOL     OW95149  10.996   8.290   1.741 -0.0362  0.3438 -0.6037
62764SOL    HW195150  11.001   8.365   1.681  1.2911 -0.6971 -1.8558
62764SOL    HW295151  11.077   8.242   1.726 -1.2502 -1.8633 -0.5336
62765SOL     OW95152   0.655   5.222   4.217  0.5660  0.1612  0.2470
62765SOL    HW195153   0.694   5.136   4.203  1.5265  0.2838  1.8859
62765SOL    HW295154   0.728   5.278   4.244 -0.2489  1.1683  0.4345
62766SOL     OW95155   5.618   3.072   8.635 -0.2086 -0.1059 -0.8326
62766SOL    HW195156   5.602   3.005   8.569  1.0906  0.2444 -1.5288
62766SOL    HW295157   5.644   3.023   8.713  3.1250 -0.4390 -2.0013
62767SOL     OW95158   2.550   2.038   2.593  0.5042 -0.6322 -0.1603
62767SOL    HW195159   2.505   1.980   2.531 -0.7402  1.8443 -1.7007
62767SOL    HW295160   2.609   2.090   2.539 -0.0345  1.0587  0.8096
62768SOL     OW95161   1.345   5.943   0.480 -0.7620 -0.4636  0.1571
62768SOL    HW195162   1.274   5.978   0.533  0.1288  1.6229  0.0529
62768SOL    HW295163   1.400   6.018   0.460  0.8757 -1.8143 -0.7237
62769SOL     OW95164   8.714   6.826   8.648  0.4497 -0.0903  0.3226
62769SOL    HW195165   8.740   6.813   8.739  1.5427 -0.7469 -0.0613
62769SOL    HW295166   8.722   6.920   8.634 -1.0728  0.2161  1.2737
62770SOL     OW95167   6.228   2.052   0.550 -0.6254  0.4290  0.1192
62770SOL    HW195168   6.134   2.070   0.562 -0.7999 -1.2311  1.6714
62770SOL    HW295169   6.259   2.026   0.636  1.0283 -0.1783 -0.6169
62771SOL     OW95170   6.504   7.516   0.077 -0.3552 -0.7847 -0.1659
62771SOL    HW195171   6.518   7.610   0.062  2.2329 -1.2008 -0.7266
62771SOL    HW295172   6.532   7.501   0.167 -1.0551 -0.9975  0.0245
62772SOL     OW95173  12.075   5.935   6.348 -0.3560  0.1473 -0.2418
62772SOL    HW195174  12.091   5.883   6.270  1.2267  0.8040 -0.3958
62772SOL    HW295175  12.092   5.875   6.421  0.2298  0.0931 -0.4173
62773SOL     OW95176   4.825   5.578  11.228 -0.0420 -0.3664  0.1191
62773SOL    HW195177   4.840   5.642  11.158 -0.0809 -1.8484 -1.3018
62773SOL    HW295178   4.900   5.519  11.223 -1.0416 -1.6595 -0.0270
62774SOL     OW95179  12.430   2.338   8.469  0.8737 -0.1980 -0.1477
62774SOL    HW195180  12.486   2.341   8.547  0.0860 -1.5512  0.4998
62774SOL    HW295181  12.341   2.338   8.503  0.4225  1.9682 -1.1722
62775SOL     OW95182  10.790   1.538   2.957  0.1972 -0.4378  0.0008
62775SOL    HW195183  10.879   1.502   2.961  0.2238 -0.3023  0.9007
62775SOL    HW295184  10.781   1.587   3.039 -0.2269  0.6900 -0.7010
62776SOL     OW95185   6.177   5.855   4.176 -0.4184  0.2817 -0.2978
62776SOL    HW195186   6.220   5.904   4.106 -0.0477 -1.0990 -1.0882
62776SOL    HW295187   6.176   5.765   4.144 -0.6727 -0.3036  1.2809
62777SOL     OW95188   4.698   7.953   9.836 -0.0031  0.2696 -0.3491
62777SOL    HW195189   4.628   7.992   9.784 -0.5590 -0.7276 -0.3880
62777SOL    HW295190   4.655   7.882   9.885  0.8124  0.1874  0.2813
62778SOL     OW95191  11.677   5.835   4.742 -0.2606  0.3258  0.4984
62778SOL    HW195192  11.716   5.894   4.677 -0.3639  1.3305  1.3071
62778SOL    HW295193  11.748   5.819   4.804 -0.2374 -0.4113  0.2834
62779SOL     OW95194   8.283   4.839   6.611 -0.5860 -0.3105 -0.6251
62779SOL    HW195195   8.316   4.816   6.698 -1.6177  2.8523  0.7373
62779SOL    HW295196   8.219   4.771   6.591  0.4397 -1.6933  0.5910
62780SOL     OW95197   6.750   0.160   3.860  0.1666  0.2171  0.2538
62780SOL    HW195198   6.731   0.136   3.950 -0.7543  0.8175  0.2367
62780SOL    HW295199   6.675   0.126   3.810  1.6875 -2.0615 -0.6460
62781SOL     OW95200  10.211   7.222  11.471 -0.3489  0.2502  0.5950
62781SOL    HW195201  10.301   7.191  11.470  1.2203  4.1294  1.3282
62781SOL    HW295202  10.168   7.175  11.399  2.6666 -0.6567 -0.7615
62782SOL     OW95203   6.004   4.483   3.059  0.0147  0.4507 -0.3929
62782SOL    HW195204   5.999   4.578   3.063  1.1271  0.4778  2.2020
62782SOL    HW295205   5.940   4.458   2.992 -0.1207  3.0000 -1.3060
62783SOL     OW95206   3.591   9.953  11.110  0.6789 -0.2042 -0.2592
62783SOL    HW195207   3.555   9.954  11.199  0.3045  0.7866 -0.4018
62783SOL    HW295208   3.518   9.981  11.054  1.4474  1.1846 -0.6288
62784SOL     OW95209   7.442   8.481  10.033  0.1517 -0.0476  0.0247
62784SOL    HW195210   7.427   8.574  10.022  0.4829 -0.0034 -0.0680
62784SOL    HW295211   7.361   8.439  10.004  0.6759  0.1116 -1.7611
62785SOL     OW95212   2.144   2.003   7.887 -0.2264 -0.4763 -0.6974
62785SOL    HW195213   2.199   2.057   7.830 -1.8181  1.3059 -0.6279
62785SOL    HW295214   2.156   1.914   7.854  1.2578  0.1038 -1.8354
62786SOL     OW95215   0.245   7.063   7.316  0.4949 -0.2231  0.1275
62786SOL    HW195216   0.171   7.034   7.369 -0.7465 -2.1957 -2.4556
62786SOL    HW295217   0.258   7.155   7.339 -0.7771 -0.6311  2.7937
62787SOL     OW95218   6.580   4.065  11.846 -0.4126 -0.4126 -0.1140
62787SOL    HW195219   6.490   4.044  11.868 -0.4398  0.0041  0.1868
62787SOL    HW295220   6.588   4.160  11.862  0.5409 -0.7262  1.5811
62788SOL     OW95221   3.155   0.200   8.360  0.2877  0.0284  0.0112
62788SOL    HW195222   3.188   0.129   8.305  0.7983 -0.5383  1.0099
62788SOL    HW295223   3.063   0.178   8.375  0.5984 -0.7871  0.8306
62789SOL     OW95224  11.257   4.562   5.395 -0.2218 -0.0238  0.2893
62789SOL    HW195225  11.202   4.500   5.348 -0.5525  0.5691 -0.1252
62789SOL    HW295226  11.201   4.639   5.406 -0.1171 -0.1152  1.5704
62790SOL     OW95227   5.653   4.274   4.829 -0.0655 -0.4325  0.0356
62790SOL    HW195228   5.671   4.365   4.849  0.1015 -0.8600  2.0695
62790SOL    HW295229   5.674   4.227   4.911  3.0728 -2.7336 -1.8408
62791SOL     OW95230   7.012   1.503   5.935 -0.4595  0.5831  0.0945
62791SOL    HW195231   7.037   1.410   5.931  0.0048  0.7263 -0.4361
62791SOL    HW295232   6.946   1.513   5.867 -0.4146  0.6675  0.0633
62792SOL     OW95233  11.047   3.526   1.374 -0.3087  0.0660  0.5611
62792SOL    HW195234  10.980   3.586   1.407 -1.7249 -0.6914 -0.8532
62792SOL    HW295235  10.998   3.454   1.335  1.2781  0.3118 -2.0741
62793SOL     OW95236  10.224  11.413   3.650  0.5694  0.0226 -0.8099
62793SOL    HW195237  10.154  11.477   3.666  1.7533  1.7934 -2.3627
62793SOL    HW295238  10.305  11.463   3.658  1.5450 -1.2603 -2.1232
62794SOL     OW95239   5.134   7.225   7.184  0.0216  0.5750  0.4720
62794SOL    HW195240   5.221   7.265   7.187  0.3982 -0.0730 -0.9558
62794SOL    HW295241   5.113   7.221   7.091 -1.8855  1.4321  0.8177
62795SOL     OW95242   5.821  11.092  11.247 -0.6589  0.1513 -0.5209
62795SOL    HW195243   5.831  11.017  11.306  2.0485  0.0323 -1.0018
62795SOL    HW295244   5.762  11.061  11.178  0.2151 -1.4982 -0.5854
62796SOL     OW95245   2.665   0.993   8.418 -0.1612 -0.1297  0.0355
62796SOL    HW195246   2.647   0.903   8.445  1.6313 -0.2065  1.1651
62796SOL    HW295247   2.648   0.994   8.324  0.0600 -1.7263 -0.0494
62797SOL     OW95248  11.730   7.500  11.562  0.2172 -1.1182  0.0825
62797SOL    HW195249  11.773   7.485  11.478 -1.5184 -2.3781 -0.6229
62797SOL    HW295250  11.726   7.414  11.603 -0.1660 -0.7406  0.8581
62798SOL     OW95251  10.358   8.608   3.514  0.0613 -0.2743  0.0644
62798SOL    HW195252  10.266   8.634   3.516  0.3028  0.6779  2.3456
62798SOL    HW295253  10.405   8.683   3.549  1.3047 -2.0210  2.4262
62799SOL     OW95254   2.040   3.424   8.296  0.4352 -0.1382 -0.5446
62799SOL    HW195255   2.072   3.506   8.259 -0.3044  0.4717  0.1287
62799SOL    HW295256   2.103   3.402   8.365  0.0128  0.4808  0.0468
62800SOL     OW95257   7.895   4.554   9.150  0.2205 -0.5820  0.4110
62800SOL    HW195258   7.934   4.502   9.220 -0.8661 -0.1825  1.3315
62800SOL    HW295259   7.849   4.491   9.095  0.5409 -0.8191  0.4137
62801SOL     OW95260   2.462   0.297   1.369  0.1781  0.2571  0.1767
62801SOL    HW195261   2.440   0.390   1.371 -0.7304  0.1470 -1.9865
62801SOL    HW295262   2.556   0.294   1.355 -0.0559  0.9196 -1.7882
62802SOL     OW95263   7.890   5.971   6.448 -0.3415 -0.1835 -0.3833
62802SOL    HW195264   7.836   5.944   6.374 -0.4224 -0.4752 -0.2183
62802SOL    HW295265   7.979   5.946   6.423 -0.2988  0.1821 -0.6007
62803SOL     OW95266   3.935   3.280   5.837  0.0039  0.0498 -0.2332
62803SOL    HW195267   3.889   3.282   5.921 -0.3151  1.4765 -0.4070
62803SOL    HW295268   3.866   3.271   5.771 -0.1431  2.4874 -0.5132
62804SOL     OW95269  11.997   8.058   5.296 -0.2397 -0.5140 -0.0891
62804SOL    HW195270  12.089   8.079   5.312 -0.0270 -0.1094 -1.6619
62804SOL    HW295271  12.000   7.981   5.239 -0.8482 -0.0010 -0.8265
62805SOL     OW95272   8.188  12.287   7.979  0.0037  0.2945  0.2583
62805SOL    HW195273   8.235  12.340   7.914  1.6607 -0.8933  0.4241
62805SOL    HW295274   8.235  12.204   7.981 -1.4514 -0.5528  1.2981
62806SOL     OW95275   8.908   7.954  11.247 -0.0435 -0.9156  0.3380
62806SOL    HW195276   8.855   7.923  11.321 -2.5241 -4.3139 -2.4921
62806SOL    HW295277   8.986   7.898  11.249  0.9898  0.4929  1.5032
62807SOL     OW95278  11.107   2.262   9.901  0.3818  0.7348 -0.0327
62807SOL    HW195279  11.178   2.205   9.872 -0.0699 -1.0999  2.2066
62807SOL    HW295280  11.098   2.327   9.831  0.8218 -1.9938 -2.8081
62808SOL     OW95281   8.226   0.734   6.520 -0.1664 -0.3314  0.0788
62808SOL    HW195282   8.148   0.790   6.515  0.1180  0.1979  1.2709
62808SOL    HW295283   8.197   0.657   6.569 -0.2150 -0.6517 -0.4391
62809SOL     OW95284   3.405   9.240   7.414 -0.1656  0.0858 -0.4866
62809SOL    HW195285   3.351   9.316   7.391 -1.0115 -0.3385  0.0506
62809SOL    HW295286   3.361   9.166   7.372 -0.1105 -0.2908  0.1150
62810SOL     OW95287   8.716   3.447   0.905 -0.2326  0.4110 -0.1300
62810SOL    HW195288   8.732   3.383   0.836 -0.3626  0.5203 -0.2646
62810SOL    HW295289   8.801   3.461   0.946 -0.1116  0.5044 -0.4100
62811SOL     OW95290   2.034   1.504  11.305  0.3419 -0.5365 -0.3914
62811SOL    HW195291   2.056   1.443  11.375 -1.6282  0.7767  1.4973
62811SOL    HW295292   2.072   1.587  11.334  0.2536 -0.1541 -1.3357
62812SOL     OW95293  11.738   6.781   4.048  0.7742 -0.5479 -0.2860
62812SOL    HW195294  11.813   6.841   4.042  3.3200 -3.5133 -0.7563
62812SOL    HW295295  11.707   6.773   3.957 -0.0599  0.5247 -0.1198
62813SOL     OW95296   2.092   5.885   5.681 -0.4053  0.2754  0.3479
62813SOL    HW195297   2.121   5.794   5.669  1.0964  0.8038 -0.2499
62813SOL    HW295298   2.112   5.927   5.597  0.7027  1.6135  1.2515
62814SOL     OW95299   9.225  11.976   3.726  0.0345 -0.0154  0.5202
62814SOL    HW195300   9.194  12.067   3.717 -1.6585 -0.4288  1.7464
62814SOL    HW295301   9.261  11.972   3.814  0.6648 -0.4025  0.2497
62815SOL     OW95302  10.395   8.042   1.703  0.2217 -0.4218  0.0256
62815SOL    HW195303  10.384   7.976   1.771  0.1174 -1.3741 -0.8825
62815SOL    HW295304  10.402   8.125   1.750  0.2521 -1.0670  1.1882
62816SOL     OW95305   2.011  11.652   5.349  0.1918  0.4262  0.3501
62816SOL    HW195306   1.959  11.636   5.271  1.2934 -2.1918  0.0458
62816SOL    HW295307   2.068  11.726   5.326  0.9765 -0.7251 -1.6398
62817SOL     OW95308   2.583   4.251   4.310 -0.6035 -0.6091  0.2801
62817SOL    HW195309   2.506   4.307   4.299  0.1680  0.6312  0.9753
62817SOL    HW295310   2.590   4.238   4.404  0.5045 -0.0118  0.2900
62818SOL     OW95311   8.354   1.317   2.831 -0.1516  0.1334  0.0978
62818SOL    HW195312   8.356   1.386   2.765  0.4298 -1.0781 -1.1973
62818SOL    HW295313   8.291   1.348   2.896 -1.2850  1.0426 -1.3811
62819SOL     OW95314   4.593   0.019   2.146  0.5589 -0.1181  0.4894
62819SOL    HW195315   4.628   0.083   2.085 -0.0546 -1.0337 -0.8768
62819SOL    HW295316   4.631  -0.064   2.118 -0.1318 -0.6326  1.0299
62820SOL     OW95317   2.012  11.921   1.035  0.4711  0.2012 -0.1494
62820SOL    HW195318   2.055  11.837   1.053 -1.6732 -0.4770  2.3777
62820SOL    HW295319   1.970  11.909   0.950  0.8612 -0.9933 -0.1840
62821SOL     OW95320   4.500   1.888   9.995 -0.6417  0.2182  0.0614
62821SOL    HW195321   4.526   1.851   9.911 -1.0975 -0.0759  0.0406
62821SOL    HW295322   4.577   1.934  10.027 -0.7204  1.0566 -0.9102
62822SOL     OW95323   2.243   2.449   9.307  0.1923  0.1663  0.2023
62822SOL    HW195324   2.267   2.375   9.251  1.2050  0.0248  0.7930
62822SOL    HW295325   2.212   2.516   9.247 -0.9332 -0.8002 -0.3274
62823SOL     OW95326  11.867   5.962   8.477 -0.3883 -0.0032 -0.6858
62823SOL    HW195327  11.828   6.036   8.432 -0.6741  0.1272 -0.2377
62823SOL    HW295328  11.926   6.001   8.542  0.8912 -0.2030 -1.6744
62824SOL     OW95329  11.318  11.402   1.830  0.0695  0.4264 -0.1835
62824SOL    HW195330  11.252  11.453   1.878  0.2191 -0.3867  0.9111
62824SOL    HW295331  11.281  11.314   1.823  0.1361  0.4755 -1.4237
62825SOL     OW95332   6.127   0.345   7.890 -0.0028  0.2692  0.4946
62825SOL    HW195333   6.101   0.297   7.811 -0.1477  1.6727 -0.3467
62825SOL    HW295334   6.124   0.280   7.960  0.9789 -1.2424 -0.7945
62826SOL     OW95335  11.176   6.705  10.315  0.0131  0.6683 -0.4769
62826SOL    HW195336  11.184   6.758  10.235 -0.4220  1.0319 -0.2791
62826SOL    HW295337  11.146   6.620  10.283 -1.6372  1.2507 -0.5736
62827SOL     OW95338  12.370  11.775   9.649 -0.5170  0.1915 -0.0286
62827SOL    HW195339  12.314  11.716   9.598 -0.6828 -2.2979  2.7507
62827SOL    HW295340  12.310  11.837   9.689 -0.8323 -0.1221 -0.0116
62828SOL     OW95341   9.182   0.745   5.867 -0.3372 -0.1059  0.3693
62828SOL    HW195342   9.229   0.828   5.859 -0.4371 -0.0079  0.8022
62828SOL    HW295343   9.138   0.734   5.782  1.1605 -0.6290 -0.3799
62829SOL     OW95344   8.402   3.785   7.539 -0.0655  0.0982  0.5512
62829SOL    HW195345   8.421   3.868   7.582  3.8747 -1.3555  2.1094
62829SOL    HW295346   8.407   3.805   7.445  0.1926  1.7320  0.8753
62830SOL     OW95347   4.545   0.557   9.264  0.0815  0.5936  0.5278
62830SOL    HW195348   4.615   0.584   9.324 -1.0008  0.4252  1.9263
62830SOL    HW295349   4.481   0.514   9.321 -0.8036  0.0654 -0.8337
62831SOL     OW95350   3.062   9.983   8.386  0.0085 -0.2406  0.1438
62831SOL    HW195351   3.066   9.941   8.472 -0.2749  0.1333  0.3430
62831SOL    HW295352   2.978  10.029   8.385  0.1417  0.0048 -0.2186
62832SOL     OW95353   9.534   8.481   4.937 -0.2512  0.2534  1.0663
62832SOL    HW195354   9.601   8.446   4.878 -1.2632  1.7317 -1.1365
62832SOL    HW295355   9.575   8.557   4.978 -0.1927  0.4904  0.5819
62833SOL     OW95356   6.904   6.893   5.148 -0.6374  0.1680 -0.5632
62833SOL    HW195357   6.881   6.895   5.241  0.1295  1.8631 -0.3574
62833SOL    HW295358   6.999   6.888   5.148 -0.6962 -1.2723 -1.3049
62834SOL     OW95359   2.810   5.916  10.708 -0.2779  0.0786  0.4828
62834SOL    HW195360   2.725   5.905  10.752  0.1283  0.4137  1.3759
62834SOL    HW295361   2.871   5.933  10.779  0.4584  0.3327 -0.2032
62835SOL     OW95362   5.535  12.369   3.432  0.6574 -0.9200 -0.6915
62835SOL    HW195363   5.619  12.414   3.441 -0.1923  0.4746  0.7770
62835SOL    HW295364   5.486  12.423   3.370  0.5929 -1.3344 -1.0000
62836SOL     OW95365   6.986   5.122   3.502  0.0558  0.0906 -0.2733
62836SOL    HW195366   6.951   5.190   3.444  1.0617  0.7610 -0.1251
62836SOL    HW295367   7.075   5.109   3.470 -0.0128 -0.9134 -0.0675
62837SOL     OW95368   3.296   0.603   3.244  0.5808  0.0738 -0.5789
62837SOL    HW195369   3.317   0.692   3.213  2.9096  1.0084  3.0635
62837SOL    HW295370   3.372   0.551   3.218  0.5429 -0.1466 -0.2468
62838SOL     OW95371   1.604  11.840   2.295 -0.2361  0.4280 -0.0695
62838SOL    HW195372   1.581  11.926   2.260  0.6862  0.2539 -1.1676
62838SOL    HW295373   1.697  11.830   2.275 -0.2082 -0.6065  0.5164
62839SOL     OW95374   2.021   1.500   8.473  0.3560  0.5883  0.0882
62839SOL    HW195375   2.081   1.515   8.546 -1.2927 -1.1878  1.9403
62839SOL    HW295376   1.967   1.579   8.469 -0.3286  0.2251  1.6387
62840SOL     OW95377   9.496   6.732   3.006 -0.8497  0.3191  0.1545
62840SOL    HW195378   9.434   6.797   2.972  0.5913  0.7496 -1.8606
62840SOL    HW295379   9.501   6.665   2.937  0.2707 -0.1426  0.6573
62841SOL     OW95380   3.989   4.792   2.249 -0.1414  0.2240 -0.5058
62841SOL    HW195381   4.070   4.760   2.288 -0.3663 -0.3399 -0.4907
62841SOL    HW295382   3.933   4.817   2.323  0.0263  0.6469 -0.5173
62842SOL     OW95383   2.992   4.398   0.740 -0.0021 -0.2645 -0.2086
62842SOL    HW195384   2.957   4.310   0.729  0.3984 -0.3828 -0.5396
62842SOL    HW295385   3.084   4.385   0.761  0.0473  0.0739 -0.2101
62843SOL     OW95386   1.294   3.878   5.476  0.4203 -0.0249  0.1218
62843SOL    HW195387   1.330   3.933   5.546  0.0565  1.2423 -0.6465
62843SOL    HW295388   1.370   3.853   5.424  0.7487 -1.3178  1.1680
62844SOL     OW95389   6.038   8.185   2.133 -0.1591 -0.4495  0.4388
62844SOL    HW195390   6.102   8.124   2.098  0.6306  0.8057 -0.4199
62844SOL    HW295391   6.020   8.154   2.222  1.3341 -1.0697  0.5509
62845SOL     OW95392  11.812   2.442   9.099  0.4466 -0.1784 -0.4013
62845SOL    HW195393  11.854   2.465   9.182  1.3976 -2.3334 -0.2285
62845SOL    HW295394  11.722   2.419   9.124  1.1725 -2.4163  0.3383
62846SOL     OW95395  12.519  10.503   1.413  1.0037 -0.4711 -0.5120
62846SOL    HW195396  12.525  10.506   1.508 -0.3551  0.6877 -0.4343
62846SOL    HW295397  12.520  10.410   1.392 -0.2364 -0.7957  0.7587
62847SOL     OW95398   5.363  10.242   6.771 -0.3691 -0.3293  0.4953
62847SOL    HW195399   5.366  10.251   6.676  1.0140  1.7612  0.6586
62847SOL    HW295400   5.295  10.303   6.799 -1.1792 -1.3604  0.8400
62848SOL     OW95401   8.443   6.905   7.071  0.6086 -0.1908 -0.5037
62848SOL    HW195402   8.411   6.842   7.007 -1.4410  0.4734 -0.2248
62848SOL    HW295403   8.364   6.936   7.115  1.6898  1.4776  0.3729
62849SOL     OW95404   1.255   3.840   2.895 -0.0654  0.4266 -0.4427
62849SOL    HW195405   1.219   3.833   2.807  0.1643  1.1363 -0.5990
62849SOL    HW295406   1.333   3.785   2.895  1.4336  2.4348 -1.4860
62850SOL     OW95407  10.228   9.460   0.715 -0.5973 -0.3510 -0.0252
62850SOL    HW195408  10.209   9.410   0.794  0.2914  0.0171  0.4409
62850SOL    HW295409  10.247   9.549   0.746  1.0845 -0.5136 -0.4879
62851SOL     OW95410   6.007   6.227   3.333 -0.3284 -0.0146 -0.0355
62851SOL    HW195411   6.069   6.233   3.261 -0.3476  0.2053 -0.0346
62851SOL    HW295412   6.042   6.284   3.400  0.0662 -0.7740  0.4162
62852SOL     OW95413   7.366  11.152   8.867 -0.1935  0.4766  0.2757
62852SOL    HW195414   7.400  11.094   8.936 -0.4657  1.9604  1.6999
62852SOL    HW295415   7.275  11.168   8.892 -0.9864 -0.7116 -1.6594
62853SOL     OW95416   2.809   5.990   2.319 -0.1175 -0.1635 -0.2734
62853SOL    HW195417   2.795   5.899   2.344 -1.5836 -0.3433 -1.6003
62853SOL    HW295418   2.750   6.040   2.375  0.9186  0.0411  0.6796
62854SOL     OW95419   0.673   1.067   0.525 -0.2070 -0.3165  0.0118
62854SOL    HW195420   0.628   0.990   0.490 -0.5901 -0.1808  0.2044
62854SOL    HW295421   0.651   1.137   0.464  2.8100 -1.0168 -2.0973
62855SOL     OW95422   6.569   7.073   2.374  0.0678  0.2373  0.3684
62855SOL    HW195423   6.614   7.156   2.359 -0.1479  0.8982  2.9060
62855SOL    HW295424   6.490   7.079   2.320  0.0303  1.7202  0.5325
62856SOL     OW95425  11.797   2.994   5.078 -0.0288  0.6395 -0.5815
62856SOL    HW195426  11.784   3.089   5.082 -0.6603  0.5366  0.4422
62856SOL    HW295427  11.755   2.967   4.997  0.8195  1.3202 -1.2594
62857SOL     OW95428   0.664   3.933  10.550  0.3296  0.1184  0.0377
62857SOL    HW195429   0.587   3.970  10.509  1.2999  0.5119 -1.5029
62857SOL    HW295430   0.640   3.924  10.642 -0.9439  1.8608 -0.0698
62858SOL     OW95431   2.742   5.132   6.337  0.6926  0.7991 -0.3251
62858SOL    HW195432   2.827   5.164   6.368  0.7098  0.1180  0.3498
62858SOL    HW295433   2.694   5.212   6.315  1.2794  1.2220 -0.1091
62859SOL     OW95434   8.346   5.758   7.561 -0.3560 -0.0372 -0.3276
62859SOL    HW195435   8.380   5.808   7.634  0.9463 -0.1926 -0.8062
62859SOL    HW295436   8.327   5.671   7.598 -2.8291  0.8004  0.5513
62860SOL     OW95437   2.565   8.383   1.614  0.3074  0.2037  0.1916
62860SOL    HW195438   2.520   8.335   1.544 -0.6332  2.0533 -0.5509
62860SOL    HW295439   2.639   8.425   1.571 -1.0578  2.4856 -0.0936
62861SOL     OW95440   3.392   0.216   1.536  0.1050  0.3693  0.3095
62861SOL    HW195441   3.464   0.275   1.557  2.5245 -2.8461  1.9101
62861SOL    HW295442   3.342   0.208   1.617 -1.1040  1.2341 -0.3108
62862SOL     OW95443   2.599   4.907   3.837  0.6132  0.2848 -0.3670
62862SOL    HW195444   2.626   4.815   3.843 -0.3729  0.0038 -0.0226
62862SOL    HW295445   2.506   4.904   3.818 -0.2736  1.1373  3.0511
62863SOL     OW95446   2.821   8.513   7.449  0.0446  0.4380 -0.7014
62863SOL    HW195447   2.789   8.581   7.508  2.3905  0.9411  0.1249
62863SOL    HW295448   2.781   8.532   7.365 -0.3173  2.0887 -0.1811
62864SOL     OW95449   5.380   7.969   2.059  0.6226  0.1488  0.0355
62864SOL    HW195450   5.328   8.050   2.059 -3.3088 -2.1339 -0.3922
62864SOL    HW295451   5.387   7.946   2.152  1.5716  0.8306  0.1445
62865SOL     OW95452   4.068   9.336   0.293  0.3162  0.3408  0.0786
62865SOL    HW195453   3.981   9.373   0.309 -0.3465  0.0440 -2.3634
62865SOL    HW295454   4.101   9.312   0.379 -2.5227 -0.6157  1.0112
62866SOL     OW95455   9.727  11.475  12.408  0.0587 -0.0018 -0.1985
62866SOL    HW195456   9.686  11.476  12.322  0.6938  2.0974 -0.5294
62866SOL    HW295457   9.715  11.563  12.442  1.1439 -0.3624  1.2241
62867SOL     OW95458   8.892  10.874   3.733 -0.3253  0.1393  0.2752
62867SOL    HW195459   8.968  10.821   3.711 -1.6760 -1.2924 -1.2231
62867SOL    HW295460   8.927  10.962   3.746  1.5643 -0.4767 -0.3302
62868SOL     OW95461   8.518  11.629   1.267 -0.2776 -0.3873 -0.4914
62868SOL    HW195462   8.538  11.553   1.322  0.8548  0.2674  0.0518
62868SOL    HW295463   8.599  11.680   1.267 -0.6206  0.2058 -1.8559
62869SOL     OW95464   0.272  10.021   2.904 -0.5862 -0.2038  0.5628
62869SOL    HW195465   0.240   9.967   2.832 -1.4982 -0.0926  0.8759
62869SOL    HW295466   0.259   9.967   2.982 -1.1397  0.3075  0.8327
62870SOL     OW95467   7.854  10.101   7.377 -0.0106  0.1421  0.4311
62870SOL    HW195468   7.878  10.009   7.392 -2.2982 -0.4250  1.0363
62870SOL    HW295469   7.770  10.096   7.331 -1.1374  1.8824  2.1583
62871SOL     OW95470   6.101  10.188   6.263  0.5225  0.9789 -0.0623
62871SOL    HW195471   6.169  10.154   6.322  0.4787 -0.4041 -0.7531
62871SOL    HW295472   6.116  10.282   6.260  1.6270  0.8511  0.7760
62872SOL     OW95473  12.296   9.317   1.370 -0.0495  0.2485  0.0799
62872SOL    HW195474  12.324   9.271   1.449  0.0945 -0.0499 -0.1433
62872SOL    HW295475  12.266   9.248   1.310  0.0454  0.4505 -0.2056
62873SOL     OW95476  12.014   9.596   3.195 -0.0592  0.0137  0.6176
62873SOL    HW195477  11.941   9.653   3.219 -0.2716 -0.3012  0.7205
62873SOL    HW295478  12.011   9.593   3.099  0.4261  0.7913  0.5718
62874SOL     OW95479   2.122  12.120  12.437  0.0914 -0.1524  0.7371
62874SOL    HW195480   2.106  12.074  12.355  2.0586 -2.1668  1.3592
62874SOL    HW295481   2.178  12.194  12.413  0.4848 -0.6108  0.2291
62875SOL     OW95482   8.310   6.776  11.130  0.2079 -0.0523  0.3672
62875SOL    HW195483   8.306   6.728  11.212  0.5928 -0.3534  0.2125
62875SOL    HW295484   8.232   6.748  11.081 -0.4184  0.6783  0.9205
62876SOL     OW95485   0.534   2.869   5.703  0.0073 -0.9932  0.1747
62876SOL    HW195486   0.560   2.860   5.611 -1.0155 -1.4745 -0.0785
62876SOL    HW295487   0.611   2.907   5.746  0.6520 -1.1687 -0.7939
62877SOL     OW95488   2.894   3.709   8.237 -0.0702 -0.1193  0.3131
62877SOL    HW195489   2.817   3.764   8.223 -0.0237  0.0457  0.6834
62877SOL    HW295490   2.896   3.696   8.332 -0.0828 -0.7637  0.2252
62878SOL     OW95491   9.833   7.616  11.969 -0.4233 -0.0637  0.8620
62878SOL    HW195492   9.920   7.580  11.955 -1.3743 -2.0266 -0.4443
62878SOL    HW295493   9.834   7.700  11.923  0.9886  0.3470  1.5730
62879SOL     OW95494   0.301   1.407   5.045  0.1271 -0.0302 -0.2076
62879SOL    HW195495   0.287   1.493   5.006  0.6276 -0.6050 -1.7182
62879SOL    HW295496   0.214   1.368   5.049 -0.3424  1.0944  1.9285
62880SOL     OW95497   9.669   3.495   0.019 -0.3468 -0.2343  0.4359
62880SOL    HW195498   9.624   3.444  -0.048  2.5985  0.8001 -2.5997
62880SOL    HW295499   9.761   3.469   0.011  0.4459  1.5728  2.6089
62881SOL     OW95500   7.675   5.203   5.252 -0.4706  0.2656 -0.3875
62881SOL    HW195501   7.724   5.281   5.226 -0.7322  0.3040 -0.7722
62881SOL    HW295502   7.619   5.233   5.323 -1.3911  0.7098 -1.2781
62882SOL     OW95503  11.600   6.616   4.721 -0.0190  0.6461  0.8146
62882SOL    HW195504  11.630   6.612   4.630 -1.1309  1.4945  0.3836
62882SOL    HW295505  11.632   6.535   4.760 -1.0427 -0.6132 -0.8294
62883SOL     OW95506   8.057  12.441  12.136  0.0800 -0.1558 -0.1673
62883SOL    HW195507   7.981  12.487  12.170  0.6726 -0.4716  1.7182
62883SOL    HW295508   8.080  12.487  12.055 -1.3757  0.6789 -0.1307
62884SOL     OW95509   8.216   1.347   8.809  0.3726 -0.2872  0.3151
62884SOL    HW195510   8.207   1.389   8.723 -0.1220 -1.7672 -0.3854
62884SOL    HW295511   8.220   1.254   8.790  2.1427 -0.5649  1.7820
62885SOL     OW95512   9.811   6.697   2.273 -0.0800 -0.7206  0.4285
62885SOL    HW195513   9.842   6.705   2.363 -1.1118 -0.0784  0.7469
62885SOL    HW295514   9.733   6.642   2.279 -0.5987 -0.0568  0.0561
62886SOL     OW95515   2.510   6.145   1.255  0.1365  0.4391 -0.3796
62886SOL    HW195516   2.463   6.207   1.311 -0.8895  1.3086 -2.1511
62886SOL    HW295517   2.452   6.132   1.180  1.6669 -0.3726 -1.4549
62887SOL     OW95518   1.445   0.451   9.942  0.3156 -0.0847  0.3485
62887SOL    HW195519   1.486   0.537   9.933  0.5235 -0.1610  0.5522
62887SOL    HW295520   1.515   0.395   9.975  0.3525 -0.4829 -0.3975
62888SOL     OW95521  11.859   3.317   8.090 -0.6190  0.0877 -0.5736
62888SOL    HW195522  11.935   3.287   8.141 -1.9467 -0.3213  1.2782
62888SOL    HW295523  11.839   3.243   8.032 -0.3789 -0.3327 -0.1357
62889SOL     OW95524   4.651   0.461   7.225 -0.3127  0.5659  0.0621
62889SOL    HW195525   4.698   0.384   7.256 -0.4506  1.2179  2.0067
62889SOL    HW295526   4.569   0.427   7.189 -0.2584 -0.1999  0.6452
62890SOL     OW95527   2.661   0.818   9.454  0.7440  0.1839  0.4617
62890SOL    HW195528   2.750   0.801   9.487  1.2425 -0.2587 -1.0435
62890SOL    HW295529   2.674   0.872   9.376 -0.2983 -0.1572  0.0359
62891SOL     OW95530   3.761  10.570   7.910  0.2806  0.6224  0.0722
62891SOL    HW195531   3.855  10.572   7.892  0.2442  0.5059 -0.1352
62891SOL    HW295532   3.740  10.658   7.940  0.6459  0.3754  1.0871
62892SOL     OW95533   4.396   6.024   6.237  0.0927 -0.4051  0.6439
62892SOL    HW195534   4.450   5.953   6.204  0.3225 -0.5952  1.4028
62892SOL    HW295535   4.366   5.994   6.323 -1.1891 -0.2839  0.2580
62893SOL     OW95536  10.631   7.949   1.582  1.1419  0.6279  0.0724
62893SOL    HW195537  10.550   7.938   1.631  1.1934  0.8520  0.2090
62893SOL    HW295538  10.658   8.040   1.599  1.7827  0.3562  0.5915
62894SOL     OW95539   0.770   1.931   7.267 -0.1412 -0.3115  0.0407
62894SOL    HW195540   0.779   2.013   7.219 -1.1369 -0.9953 -1.3531
62894SOL    HW295541   0.813   1.949   7.351  3.4501  0.3197 -1.7080
62895SOL     OW95542   4.173   1.208   8.386 -0.0408  0.1051  0.5967
62895SOL    HW195543   4.113   1.162   8.327  1.5932  0.0119 -1.0992
62895SOL    HW295544   4.194   1.144   8.454 -0.0131 -0.6696 -0.1313
62896SOL     OW95545   7.428   2.840   2.535 -0.3450  0.1432 -0.0474
62896SOL    HW195546   7.483   2.867   2.462 -0.3224 -0.7075 -0.3528
62896SOL    HW295547   7.490   2.820   2.605 -0.0855 -2.4636 -0.9153
62897SOL     OW95548   0.277   6.368   1.059 -0.6057  0.1647 -0.4358
62897SOL    HW195549   0.338   6.392   1.129 -0.3421 -1.8227  0.0771
62897SOL    HW295550   0.203   6.428   1.071  0.1719  0.9945  0.4629
62898SOL     OW95551   7.705   0.807  10.543 -0.7170 -0.5312 -0.1671
62898SOL    HW195552   7.721   0.768  10.457 -1.0097  0.9337 -0.9245
62898SOL    HW295553   7.745   0.746  10.605 -1.9976 -2.5226 -1.1750
62899SOL     OW95554   5.557  10.231   5.715  0.3979  0.2223  0.3858
62899SOL    HW195555   5.489  10.191   5.769  1.0752 -0.2603  0.9114
62899SOL    HW295556   5.566  10.173   5.639 -0.9442  1.1996 -0.5582
62900SOL     OW95557   2.469   1.525   3.114 -0.0999 -0.5966  0.5517
62900SOL    HW195558   2.438   1.573   3.037  1.1230  2.0897  1.6026
62900SOL    HW295559   2.398   1.464   3.134 -1.3042  0.0151 -1.5277
62901SOL     OW95560   9.816   3.724   5.514  0.0867  0.0039  0.4844
62901SOL    HW195561   9.839   3.736   5.421  0.6203 -0.3083  0.5675
62901SOL    HW295562   9.894   3.683   5.552 -0.1886 -0.0080  1.0400
62902SOL     OW95563   9.836   1.410   2.250 -0.1145 -0.1966  0.3216
62902SOL    HW195564   9.885   1.490   2.272 -1.6696  0.4984  1.4053
62902SOL    HW295565   9.774   1.438   2.183  0.1141 -0.7874 -0.1458
62903SOL     OW95566  11.440   2.372  10.282  0.0432  0.4086  0.0680
62903SOL    HW195567  11.529   2.409  10.284 -0.2205  1.2631 -1.8106
62903SOL    HW295568  11.383   2.448  10.270 -1.1298  0.0539  2.7068
62904SOL     OW95569   3.714  11.650   1.597  0.0891 -0.2638 -0.1484
62904SOL    HW195570   3.683  11.572   1.552  0.0174 -0.5198  0.3368
62904SOL    HW295571   3.777  11.689   1.536 -1.6259  0.6135 -1.4137
62905SOL     OW95572  11.264  10.543   4.399  0.3443  0.1517 -0.3163
62905SOL    HW195573  11.228  10.455   4.411 -0.1306  0.6617  2.5431
62905SOL    HW295574  11.226  10.573   4.317 -1.4934 -1.3546 -0.0795
62906SOL     OW95575   9.590   6.418   9.287  0.4281 -0.9455 -0.1802
62906SOL    HW195576   9.525   6.375   9.342  0.4541 -1.1191 -0.2842
62906SOL    HW295577   9.616   6.496   9.336 -0.1401 -0.6685 -0.3121
62907SOL     OW95578   7.188   8.265  11.450 -0.1438  0.5616 -0.1460
62907SOL    HW195579   7.168   8.213  11.373  0.0828 -0.5810  0.5323
62907SOL    HW295580   7.110   8.259  11.505  0.1847  0.2243  0.3014
62908SOL     OW95581   6.629   5.857   1.345  0.1744  0.2137  0.6541
62908SOL    HW195582   6.552   5.907   1.316 -0.6322 -0.9826  0.6362
62908SOL    HW295583   6.661   5.904   1.422  1.2334  2.3925 -1.0190
62909SOL     OW95584   4.771   7.101   8.904 -0.7087 -0.7301  1.5284
62909SOL    HW195585   4.751   7.150   8.984  0.0101  1.4621  0.4561
62909SOL    HW295586   4.701   7.123   8.844 -0.2617 -0.8567  0.9473
62910SOL     OW95587   2.991   0.373   5.788 -0.1555 -0.0429  0.8593
62910SOL    HW195588   3.029   0.443   5.842 -0.8981  0.2675  0.9947
62910SOL    HW295589   3.065   0.337   5.740 -0.0525  2.6575 -1.3054
62911SOL     OW95590   9.775   2.066  12.003 -0.0347  0.4830 -0.3233
62911SOL    HW195591   9.687   2.039  11.977 -0.7848  1.8767  0.6147
62911SOL    HW295592   9.797   2.137  11.943  0.2669  0.4499 -0.2540
62912SOL     OW95593  10.638   8.786   0.758 -0.6378  0.0830  0.2870
62912SOL    HW195594  10.564   8.763   0.814 -0.4408 -1.0325  0.1044
62912SOL    HW295595  10.703   8.717   0.774 -0.3311  0.0822 -0.8605
62913SOL     OW95596   8.869   1.931  12.566  0.4322 -0.2531 -0.4175
62913SOL    HW195597   8.919   1.937  12.647 -1.4237 -0.3296  0.7864
62913SOL    HW295598   8.912   1.993  12.506  0.6629  1.2741  1.2541
62914SOL     OW95599   9.227   2.181   4.503 -0.0685  0.0327  0.2402
62914SOL    HW195600   9.277   2.184   4.584  0.2178 -1.2228  0.1180
62914SOL    HW295601   9.156   2.244   4.517  0.8720  0.9919  0.8485
62915SOL     OW95602   6.634   5.025   6.262 -0.0058  0.2521  0.2161
62915SOL    HW195603   6.727   5.039   6.281  0.2754 -1.2368 -0.0195
62915SOL    HW295604   6.603   5.110   6.230  1.5726  0.4284 -0.9154
62916SOL     OW95605   2.447  11.142  10.768 -0.2648 -0.2715  0.7610
62916SOL    HW195606   2.382  11.078  10.736 -0.6583 -0.4376  1.8430
62916SOL    HW295607   2.422  11.157  10.859  0.4101  0.7106  0.7918
62917SOL     OW95608   9.165   6.858   6.701 -0.7712  0.0440 -0.0580
62917SOL    HW195609   9.215   6.799   6.758 -0.6503 -0.8589 -1.0681
62917SOL    HW295610   9.103   6.802   6.656 -0.6330  0.6718 -1.0765
62918SOL     OW95611  11.226   8.537   5.960 -0.1613 -0.1524  0.3921
62918SOL    HW195612  11.196   8.452   5.994 -0.6429  0.5277  1.7219
62918SOL    HW295613  11.255   8.585   6.038  1.5034  0.3773 -0.4928
62919SOL     OW95614   6.977   9.436   1.218 -0.0793  0.4542  0.6369
62919SOL    HW195615   6.971   9.490   1.139 -1.8737 -0.4768  0.0720
62919SOL    HW295616   6.987   9.347   1.186  0.8037  0.2119  1.5209
62920SOL     OW95617   1.677   3.077   6.964  0.0869  0.2698 -0.3248
62920SOL    HW195618   1.644   3.167   6.968  0.8196  0.6359 -1.9381
62920SOL    HW295619   1.728   3.073   6.884  1.1534 -1.2453  0.3775
62921SOL     OW95620   3.921   6.533   6.891 -0.3978 -0.1854 -0.2003
62921SOL    HW195621   3.920   6.613   6.944  0.0891 -0.4385  0.1995
62921SOL    HW295622   3.944   6.563   6.803 -0.6739  0.1717 -0.1567
62922SOL     OW95623   1.760  12.170   0.240 -0.0893  0.1409 -0.1292
62922SOL    HW195624   1.719  12.228   0.304 -0.1247  0.8259 -0.7586
62922SOL    HW295625   1.737  12.207   0.155  0.5087 -0.3748 -0.5302
62923SOL     OW95626   6.847   2.259  10.341 -0.0994 -0.0915 -0.3177
62923SOL    HW195627   6.904   2.296  10.273 -0.2992  0.7035 -0.0653
62923SOL    HW295628   6.850   2.165  10.326 -0.5576  0.1010 -1.7637
62924SOL     OW95629   7.725   4.989   1.576  0.3773  0.4262 -0.0577
62924SOL    HW195630   7.746   5.074   1.538  0.0132  0.1698 -0.8494
62924SOL    HW295631   7.810   4.950   1.596  0.6144  0.2357 -1.3605
62925SOL     OW95632  10.033   4.810  10.597 -0.3125 -0.5282 -0.2094
62925SOL    HW195633  10.012   4.759  10.519  1.5365 -1.9292  0.1410
62925SOL    HW295634  10.068   4.745  10.659  0.1763  0.8683  1.0241
62926SOL     OW95635   7.838   4.406   1.675  0.0893 -0.2192  0.2692
62926SOL    HW195636   7.881   4.492   1.668  0.3424 -0.3955 -0.4822
62926SOL    HW295637   7.860   4.376   1.763  0.9310  0.0049  0.1459
62927SOL     OW95638   7.216   7.784   0.525 -0.2513  0.1776  0.2322
62927SOL    HW195639   7.147   7.803   0.588  0.2138  2.5536  0.1407
62927SOL    HW295640   7.175   7.795   0.439  0.3689  2.6610  0.1646
62928SOL     OW95641  12.115   9.343   4.071 -0.1079 -0.6778 -0.4932
62928SOL    HW195642  12.086   9.267   4.022  0.0230 -0.7765 -0.4180
62928SOL    HW295643  12.036   9.378   4.112  0.1942 -2.3330  1.6814
62929SOL     OW95644   0.240   1.556   9.586  0.0136 -0.0659  0.1684
62929SOL    HW195645   0.227   1.627   9.524  0.0639  1.3230  1.6976
62929SOL    HW295646   0.162   1.558   9.641  1.9939  1.9134  3.1646
62930SOL     OW95647  10.119   4.968  10.299  0.1185  0.2156 -0.0920
62930SOL    HW195648  10.138   5.017  10.218 -1.0629  0.7355 -0.0791
62930SOL    HW295649  10.025   4.979  10.311  0.2779  0.0968  1.3405
62931SOL     OW95650  10.408  12.461  12.219 -0.2335  0.2983  0.6156
62931SOL    HW195651  10.345  12.397  12.251  1.1480 -0.6461  1.5665
62931SOL    HW295652  10.436  12.509  12.297  0.3280  0.6045  0.2346
62932SOL     OW95653   1.326   4.093   6.828 -0.3383  0.2152 -0.2725
62932SOL    HW195654   1.247   4.045   6.802  0.1929  0.1852 -1.9585
62932SOL    HW295655   1.349   4.145   6.751  0.2523  1.6488  0.8230
62933SOL     OW95656   4.011   7.934  11.808  0.8477  0.0453 -0.9510
62933SOL    HW195657   4.013   8.008  11.869  1.0213  0.0270 -0.9354
62933SOL    HW295658   4.041   7.972  11.725 -0.0218  0.2277 -1.1953
62934SOL     OW95659  11.205   9.240   1.857  0.7473  0.1481  0.3858
62934SOL    HW195660  11.126   9.209   1.901  0.1544 -0.0936 -0.8138
62934SOL    HW295661  11.277   9.203   1.909  0.1259  1.2052  2.0872
62935SOL     OW95662   3.590   5.818   5.477  0.3346  0.3609 -0.1651
62935SOL    HW195663   3.506   5.840   5.437 -0.5680 -0.9104  0.9633
62935SOL    HW295664   3.611   5.894   5.531 -1.5395 -0.4159  1.7814
62936SOL     OW95665   9.476   8.845   5.399  0.1901  0.4360 -0.4045
62936SOL    HW195666   9.455   8.779   5.465 -0.8250  0.2865 -0.8509
62936SOL    HW295667   9.503   8.793   5.322  2.4789  0.6193  0.1917
62937SOL     OW95668   2.020   9.858   6.361 -0.5231 -0.1038  0.1197
62937SOL    HW195669   2.037   9.790   6.426 -0.4631 -1.0180 -0.8317
62937SOL    HW295670   1.990   9.810   6.284 -3.0314  1.0972  0.2291
62938SOL     OW95671   8.975   5.997   0.544 -0.0656  0.3530 -0.2110
62938SOL    HW195672   8.952   6.030   0.457  3.4053  1.8915 -0.7325
62938SOL    HW295673   9.028   5.919   0.527  0.3745  0.4846  0.5249
62939SOL     OW95674  10.988   6.110   8.508 -0.2265 -0.0617  0.1937
62939SOL    HW195675  10.980   6.089   8.601 -2.4398 -1.0346 -0.1347
62939SOL    HW295676  10.898   6.130   8.481  0.0506 -1.6053 -2.1203
62940SOL     OW95677   7.574  10.043   6.348 -0.6096 -0.0240 -0.2212
62940SOL    HW195678   7.610   9.994   6.423 -1.7676 -2.8771 -1.3712
62940SOL    HW295679   7.483  10.061   6.374 -0.8768 -0.6148 -0.7155
62941SOL     OW95680   4.052  10.804   5.698 -0.1143  0.2569 -0.5284
62941SOL    HW195681   4.141  10.829   5.722 -0.0632 -0.8946  0.5986
62941SOL    HW295682   4.009  10.886   5.676  0.1805  1.3264  2.4599
62942SOL     OW95683   7.787   9.955   9.764 -0.0280  0.0792 -0.3613
62942SOL    HW195684   7.838   9.896   9.709 -0.5118 -0.4909 -0.2096
62942SOL    HW295685   7.700   9.954   9.726 -0.3100 -0.1398  0.2603
62943SOL     OW95686   1.598   8.852   9.655 -0.4154 -0.7394  0.2676
62943SOL    HW195687   1.569   8.936   9.689  0.1281 -0.6405  0.5041
62943SOL    HW295688   1.689   8.867   9.628 -1.5432 -0.0374 -3.7750
62944SOL     OW95689   1.889   3.159  10.748 -0.2866 -0.3617  0.2342
62944SOL    HW195690   1.865   3.121  10.833  1.4508 -0.4796  0.7070
62944SOL    HW295691   1.957   3.224  10.769 -0.4431  0.2238 -0.9848
62945SOL     OW95692   7.159   0.078   6.840 -0.7233  0.1996 -0.4997
62945SOL    HW195693   7.068   0.085   6.868 -1.4632 -1.3800 -2.3219
62945SOL    HW295694   7.161   0.003   6.781  1.8148  0.0815 -0.3825
62946SOL     OW95695   9.680  12.052   2.414  0.2310 -0.7085 -1.0361
62946SOL    HW195696   9.706  12.132   2.369  1.8517 -0.4772  0.1944
62946SOL    HW295697   9.652  12.081   2.500  0.2427 -1.4095 -0.7890
62947SOL     OW95698   0.095   6.484   4.133  0.5416  0.2694  0.6322
62947SOL    HW195699   0.043   6.535   4.195  0.6659  0.6090  0.4593
62947SOL    HW295700   0.096   6.537   4.053  0.8375  0.0871  0.5146
62948SOL     OW95701   1.728  10.479   0.820 -0.0781 -0.1930  0.4589
62948SOL    HW195702   1.700  10.544   0.884  0.8605  0.4337  0.2400
62948SOL    HW295703   1.647  10.433   0.796 -0.3008 -1.3106  2.9988
62949SOL     OW95704   9.716  10.655  11.647 -0.1611 -0.0911 -0.0541
62949SOL    HW195705   9.729  10.667  11.552  1.0077 -1.3744 -0.0839
62949SOL    HW295706   9.732  10.562  11.662  0.3570  0.2228  1.5071
62950SOL     OW95707   6.876  11.090   2.210  0.1613 -0.3157 -0.4256
62950SOL    HW195708   6.882  11.092   2.115  0.9729  0.6540 -0.3761
62950SOL    HW295709   6.904  11.177   2.238 -0.5658 -0.4112  0.6797
62951SOL     OW95710   3.548   1.725   3.223 -0.5169 -0.4812  0.0239
62951SOL    HW195711   3.480   1.692   3.163  0.3239  0.7082 -1.6825
62951SOL    HW295712   3.623   1.742   3.167  0.5983 -0.0626  1.5832
62952SOL     OW95713   5.268   4.400   9.328 -0.0153 -0.3398 -0.1339
62952SOL    HW195714   5.299   4.323   9.376 -0.0272 -0.5562 -0.4675
62952SOL    HW295715   5.348   4.445   9.301 -0.0058 -0.3029 -0.0413
62953SOL     OW95716  10.655   3.164   3.254  0.1687 -0.2515  0.1464
62953SOL    HW195717  10.691   3.244   3.217 -1.9361  0.2423 -0.9786
62953SOL    HW295718  10.614   3.119   3.181 -1.7832 -0.5900  1.3727
62954SOL     OW95719   8.018   1.271   5.600 -0.6454  0.0450 -0.4550
62954SOL    HW195720   7.950   1.285   5.535 -0.3654 -2.1891 -1.3445
62954SOL    HW295721   7.975   1.221   5.670 -0.4329  0.5548  0.0471
62955SOL     OW95722   7.603   0.184  10.223  0.3373  0.1108  0.1374
62955SOL    HW195723   7.565   0.271  10.232 -0.0886 -0.1597  1.1139
62955SOL    HW295724   7.546   0.139  10.161  0.6445  0.5616 -0.4837
62956SOL     OW95725   3.812  10.827   3.302 -0.2965 -0.0053 -0.1353
62956SOL    HW195726   3.804  10.901   3.362 -0.7517  0.3972 -0.6888
62956SOL    HW295727   3.725  10.787   3.300 -0.1047 -0.4437  0.0073
62957SOL     OW95728   5.239  12.081   1.321  0.5086  0.1116 -0.3491
62957SOL    HW195729   5.333  12.090   1.338  0.2782  1.2827  0.4294
62957SOL    HW295730   5.234  12.052   1.230  1.6354 -0.5471 -0.2232
62958SOL     OW95731   8.401  10.252  11.016 -0.3156  0.2582  0.1244
62958SOL    HW195732   8.478  10.299  10.985 -0.9534  1.1986 -0.0648
62958SOL    HW295733   8.436  10.189  11.079  1.0718 -1.8038 -2.4653
62959SOL     OW95734   7.957   1.925  11.589  0.2143  0.0141 -0.5783
62959SOL    HW195735   8.027   1.934  11.525 -0.2226 -0.4486 -1.1339
62959SOL    HW295736   7.994   1.959  11.671  1.6274 -1.6550 -0.4718
62960SOL     OW95737   8.227  11.442   4.052  0.1615  0.0593  0.6938
62960SOL    HW195738   8.222  11.381   3.979  0.1518 -0.3894  1.0639
62960SOL    HW295739   8.302  11.411   4.104  0.8360  1.0020  0.3110
62961SOL     OW95740   3.654  10.400   1.893  0.1821  0.3968 -0.3000
62961SOL    HW195741   3.628  10.471   1.952  0.4874  0.6350 -0.4522
62961SOL    HW295742   3.671  10.326   1.951 -0.3025  0.3950 -0.1533
62962SOL     OW95743   8.151   5.270   6.928  0.0192  0.5311  0.3879
62962SOL    HW195744   8.066   5.238   6.958 -0.0911  0.9703  0.5364
62962SOL    HW295745   8.160   5.357   6.966  0.0128  0.9733 -0.5881
62963SOL     OW95746   1.591   9.314   6.279 -0.1787 -0.0533 -0.0988
62963SOL    HW195747   1.652   9.387   6.271  1.5392 -1.0858  2.4110
62963SOL    HW295748   1.644   9.240   6.308 -2.4318 -1.2602  1.3132
62964SOL     OW95749   8.072   4.152   3.755  0.1359  0.1496 -0.1175
62964SOL    HW195750   8.148   4.133   3.699 -1.1400 -0.2580 -1.7873
62964SOL    HW295751   8.050   4.068   3.795  0.3816  0.2100  0.1496
62965SOL     OW95752   9.400   0.238   6.979  0.1486  0.4004  0.0884
62965SOL    HW195753   9.359   0.176   7.040 -0.1644 -0.0066 -0.5208
62965SOL    HW295754   9.344   0.236   6.902  0.1502  1.4393  0.0439
62966SOL     OW95755   6.785   6.577   5.337  0.1164  0.1287 -0.1165
62966SOL    HW195756   6.785   6.542   5.425 -0.2889 -0.1662 -0.2367
62966SOL    HW295757   6.795   6.501   5.280  0.9486  0.3635 -0.3101
62967SOL     OW95758   0.824   6.634   4.677  0.2736  0.0166 -0.1503
62967SOL    HW195759   0.902   6.653   4.730 -0.5017 -1.9984  1.8612
62967SOL    HW295760   0.846   6.554   4.630 -0.3837 -0.2615  0.0129
62968SOL     OW95761  11.930   0.023  11.858 -0.6315 -0.7347  0.1332
62968SOL    HW195762  11.887   0.020  11.772 -2.7629  0.0817  1.0916
62968SOL    HW295763  11.929   0.116  11.881 -1.6180 -1.1076  1.7349
62969SOL     OW95764   1.707   5.784   0.156  0.4050 -0.3476  0.4058
62969SOL    HW195765   1.720   5.835   0.236  1.6486 -0.3706  0.2385
62969SOL    HW295766   1.795   5.766   0.124 -0.0232 -1.7551 -0.0824
62970SOL     OW95767  12.049   2.597   4.694 -0.5178 -0.1927 -0.0467
62970SOL    HW195768  12.130   2.572   4.649 -1.0756 -1.9935 -0.1163
62970SOL    HW295769  12.070   2.681   4.735  1.1596 -0.2802 -0.6309
62971SOL     OW95770   7.653  11.077  10.166  0.5224  0.2834  0.0515
62971SOL    HW195771   7.581  11.098  10.108  1.0752 -1.5110 -1.4001
62971SOL    HW295772   7.644  11.137  10.240 -3.7762 -1.3180  1.0996
62972SOL     OW95773   3.401   7.733   7.683 -0.0636  0.0628 -0.6151
62972SOL    HW195774   3.457   7.788   7.628  0.5983 -1.4949 -1.5522
62972SOL    HW295775   3.329   7.707   7.626 -2.7431  3.2332  0.9597
62973SOL     OW95776   3.630   8.330   6.291 -0.1772  0.2804  0.5642
62973SOL    HW195777   3.639   8.314   6.197  1.1134 -0.2103  0.7504
62973SOL    HW295778   3.563   8.397   6.297 -1.6653 -1.0057 -0.5915
62974SOL     OW95779   2.667   3.491   0.862  0.0555 -0.2176  0.2216
62974SOL    HW195780   2.743   3.434   0.868  0.2530 -0.1489 -1.2162
62974SOL    HW295781   2.595   3.433   0.837  0.3125  0.1397 -1.5201
62975SOL     OW95782   7.620   8.235   6.054  0.2178 -0.1575 -0.3743
62975SOL    HW195783   7.605   8.330   6.045 -0.3040 -0.2689 -0.7402
62975SOL    HW295784   7.573   8.197   5.980 -1.0646 -0.8347  0.7396
62976SOL     OW95785   1.438  11.591   3.505 -0.4042 -0.7646  0.0941
62976SOL    HW195786   1.484  11.675   3.507  0.3847 -1.1856  0.2897
62976SOL    HW295787   1.389  11.592   3.423  1.1142 -0.8843 -0.8652
62977SOL     OW95788   6.688   1.126   0.214  0.4757  0.2429  0.2351
62977SOL    HW195789   6.761   1.185   0.195  0.6578 -0.9104 -3.4796
62977SOL    HW295790   6.730   1.042   0.232  0.1646 -0.4813 -2.1463
62978SOL     OW95791   4.884   2.403   3.876 -0.4770  0.3647  0.3906
62978SOL    HW195792   4.971   2.367   3.892 -0.3410  0.7058  0.4294
62978SOL    HW295793   4.842   2.340   3.817 -1.0233 -0.9824  2.1208
62979SOL     OW95794  10.388  12.439  10.371  0.1625  0.4582 -0.1882
62979SOL    HW195795  10.395  12.344  10.365  1.9911  0.2716  3.0119
62979SOL    HW295796  10.297  12.458  10.344 -0.6206 -2.2899  0.2348
62980SOL     OW95797   4.968   4.031   5.278 -0.3364  0.3315 -0.7338
62980SOL    HW195798   5.009   4.005   5.195 -0.6153 -1.4745 -0.3657
62980SOL    HW295799   4.879   3.996   5.273  0.3259 -1.9768  1.1909
62981SOL     OW95800   1.105   7.270   7.304 -0.3782  0.4588 -0.0369
62981SOL    HW195801   1.199   7.254   7.312 -0.6652 -0.8731  0.9162
62981SOL    HW295802   1.087   7.340   7.367  0.2991  2.3594 -1.8042
62982SOL     OW95803   2.705   6.819   2.159  0.0214  0.0136  0.4303
62982SOL    HW195804   2.715   6.888   2.094 -1.5880  0.8153  0.9667
62982SOL    HW295805   2.624   6.842   2.206  0.7718 -0.8967  2.2656
62983SOL     OW95806   0.043   8.058   7.483  0.4575 -0.4596 -0.0978
62983SOL    HW195807   0.136   8.069   7.466  0.6823  0.4789  1.4811
62983SOL    HW295808   0.030   7.963   7.487  1.6299 -0.5985  0.9806
62984SOL     OW95809  11.388  11.300  11.927  0.0545  0.1437  0.0405
62984SOL    HW195810  11.453  11.276  11.860  0.4484  0.4660  0.2975
62984SOL    HW295811  11.377  11.394  11.917 -1.8825 -0.1688 -1.3173
62985SOL     OW95812   8.475   3.762   0.107 -0.3863 -0.2685 -0.3493
62985SOL    HW195813   8.483   3.856   0.089  1.7520 -0.3338 -0.0610
62985SOL    HW295814   8.407   3.756   0.174 -1.1037  0.9799 -0.9193
62986SOL     OW95815   8.753   2.705   8.295 -0.0799 -0.2655 -0.0813
62986SOL    HW195816   8.657   2.701   8.299 -0.1001 -0.9525 -0.9930
62986SOL    HW295817   8.773   2.798   8.302 -0.9134  0.0416 -1.4102
62987SOL     OW95818   3.209   0.447   0.284 -0.3874 -0.5912  0.3190
62987SOL    HW195819   3.302   0.465   0.275 -0.3643 -0.0636  1.4453
62987SOL    HW295820   3.201   0.352   0.280  0.2776 -0.6726  0.9067
62988SOL     OW95821   2.824  10.997   9.466  0.0735  0.2626 -0.3185
62988SOL    HW195822   2.908  10.952   9.476  0.0676  0.1771 -0.6346
62988SOL    HW295823   2.847  11.089   9.452  0.0906  0.3376  0.2047
62989SOL     OW95824   8.817   0.521   1.742  0.4329  0.6796 -0.2415
62989SOL    HW195825   8.759   0.543   1.668  0.1183  0.8365  0.0484
62989SOL    HW295826   8.902   0.555   1.716  0.2896  0.8747 -0.4659
62990SOL     OW95827   4.268   6.679   5.906  0.3822 -0.0286 -0.0365
62990SOL    HW195828   4.302   6.762   5.874  0.7856 -0.3737 -0.5045
62990SOL    HW295829   4.228   6.638   5.829 -0.5064  0.0656  0.3543
62991SOL     OW95830   8.629   1.544  12.366 -0.0439  0.1176  0.5100
62991SOL    HW195831   8.718   1.521  12.340 -0.1420 -0.2349  0.4788
62991SOL    HW295832   8.579   1.545  12.285  0.1028  1.1530  0.4117
62992SOL     OW95833  12.191   9.916  10.289  0.2817 -0.2332  0.1660
62992SOL    HW195834  12.153   9.937  10.374  2.8144  1.1346  1.0628
62992SOL    HW295835  12.261   9.854  10.308  0.9881  0.2040 -0.9047
62993SOL     OW95836  11.877   6.739   9.741 -0.1097  0.5721 -0.2152
62993SOL    HW195837  11.845   6.700   9.659  0.0250 -2.0066  0.8569
62993SOL    HW295838  11.798   6.754   9.793 -0.0046 -1.8590  0.7872
62994SOL     OW95839   6.001   8.577   9.654 -0.1352  0.2038 -0.5985
62994SOL    HW195840   5.980   8.628   9.575 -1.7753 -0.0165 -0.3420
62994SOL    HW295841   6.059   8.634   9.704  0.6583  0.4922 -1.7842
62995SOL     OW95842   5.283   1.946   1.017 -0.1850 -0.1955 -0.1944
62995SOL    HW195843   5.331   1.873   0.978  0.1562 -1.0618  1.7307
62995SOL    HW295844   5.233   1.906   1.088 -0.0922  1.4167  0.8237
62996SOL     OW95845   1.153   1.347   9.687 -0.5056 -0.2756  0.0689
62996SOL    HW195846   1.064   1.377   9.707 -0.0554  0.9986  0.2419
62996SOL    HW295847   1.146   1.310   9.599 -1.4689 -1.4223  0.5928
62997SOL     OW95848   0.917   3.219   4.414  0.0173  0.1216 -0.2936
62997SOL    HW195849   0.972   3.159   4.363  0.6652 -0.8175  1.4308
62997SOL    HW295850   0.915   3.181   4.502 -0.5030  2.0518  0.5768
62998SOL     OW95851   6.730   8.836  12.451  0.5554 -0.1861  0.5653
62998SOL    HW195852   6.808   8.891  12.439  0.5416  0.4472  2.8873
62998SOL    HW295853   6.764   8.746  12.451  1.0923  0.0067  0.3035
62999SOL     OW95854   5.464   2.611   1.619 -0.0997 -0.0428 -0.7788
62999SOL    HW195855   5.536   2.549   1.634 -1.1342 -0.6297  2.6306
62999SOL    HW295856   5.387   2.556   1.605 -0.2988  0.5815 -2.3443
63000SOL     OW95857   1.229   6.756   9.576  0.7602  0.3368  0.4596
63000SOL    HW195858   1.175   6.836   9.582  1.5863  0.8670  1.0531
63000SOL    HW295859   1.201   6.715   9.494  0.1560  1.1162  0.2545
63001SOL     OW95860  12.137   1.701   2.331  0.0030 -0.3344  0.0919
63001SOL    HW195861  12.187   1.764   2.384  0.2771 -0.1132 -0.4238
63001SOL    HW295862  12.180   1.702   2.246 -1.2502  0.3363 -0.5714
63002SOL     OW95863  11.799   2.887   2.597  0.3691  0.4518 -0.3343
63002SOL    HW195864  11.791   2.796   2.569  0.6756  0.5847 -0.8612
63002SOL    HW295865  11.717   2.928   2.569  1.0783  0.8195 -1.9605
63003SOL     OW95866   8.203  11.009  10.298 -0.4676 -0.8754  0.1360
63003SOL    HW195867   8.118  11.053  10.303  0.1742  0.3004  1.1437
63003SOL    HW295868   8.249  11.054  10.226  0.0666 -0.0815  0.9532
63004SOL     OW95869   3.005   1.977  12.303 -0.7375 -0.4845 -0.7248
63004SOL    HW195870   3.065   2.040  12.344 -0.2983 -1.0704 -0.4327
63004SOL    HW295871   3.050   1.949  12.224 -0.3172 -1.3935 -0.1857
63005SOL     OW95872  10.300   0.296   9.354 -0.1094 -0.3261 -0.1264
63005SOL    HW195873  10.224   0.304   9.412 -0.2793  1.3467 -0.5324
63005SOL    HW295874  10.306   0.202   9.335  0.8497 -1.2164  3.7397
63006SOL     OW95875   1.925   7.493   9.649 -0.5923 -0.7848  0.0806
63006SOL    HW195876   1.955   7.409   9.683 -0.9050 -0.8952  0.0804
63006SOL    HW295877   1.966   7.499   9.563 -1.3276 -1.3735 -0.3233
63007SOL     OW95878   5.116   7.495   8.640 -0.5001  0.0646 -0.5043
63007SOL    HW195879   5.115   7.519   8.547  0.5380 -0.2357 -0.6041
63007SOL    HW295880   5.025   7.504   8.668 -0.8143  0.2276 -1.5354
63008SOL     OW95881  12.262   4.237   6.937 -0.6682 -0.3190 -0.4285
63008SOL    HW195882  12.288   4.327   6.958 -1.6543 -0.0960 -0.1052
63008SOL    HW295883  12.168   4.242   6.924 -0.8077 -1.3877  0.0396
63009SOL     OW95884   4.443   3.790   6.017 -0.0681 -0.6808 -0.6578
63009SOL    HW195885   4.430   3.802   5.923  1.0583  1.5524 -0.5932
63009SOL    HW295886   4.436   3.879   6.054 -1.2792 -1.5878  1.4931
63010SOL     OW95887  10.507  11.047   9.027 -0.1605  0.2171 -0.1153
63010SOL    HW195888  10.540  11.070   8.940 -0.3667  1.1433  0.0380
63010SOL    HW295889  10.419  11.086   9.031 -0.3811 -0.3024  0.3005
63011SOL     OW95890   3.420   2.409   2.906  0.0480 -0.1783 -0.1428
63011SOL    HW195891   3.334   2.408   2.948 -0.5424 -0.0820 -1.3055
63011SOL    HW295892   3.469   2.340   2.950 -0.8904 -0.7638  0.0175
63012SOL     OW95893  11.936   3.101   1.932  0.1556 -0.4323 -0.2051
63012SOL    HW195894  11.965   3.192   1.917  0.0694 -0.1540  1.2300
63012SOL    HW295895  11.845   3.100   1.903 -0.8076  0.7607  2.4503
63013SOL     OW95896   0.674   0.661   1.895 -0.0651  0.0183 -0.0846
63013SOL    HW195897   0.722   0.735   1.932  0.8425 -0.9060  0.6515
63013SOL    HW295898   0.723   0.638   1.816 -0.1273 -0.0259 -0.1101
63014SOL     OW95899   4.866  12.487   3.281 -0.5898  0.2579 -0.1725
63014SOL    HW195900   4.828  12.533   3.356  1.9574  0.9247  0.8020
63014SOL    HW295901   4.863  12.394   3.306  1.5040  0.5714  1.4487
63015SOL     OW95902  11.289   8.805   3.123 -0.2868 -0.4455  0.2976
63015SOL    HW195903  11.322   8.871   3.062  0.0570 -0.6099  0.3042
63015SOL    HW295904  11.197   8.792   3.098  0.0464 -1.0394 -0.6520
63016SOL     OW95905   3.853   0.542   6.371  0.2224  0.2914 -0.3621
63016SOL    HW195906   3.812   0.522   6.455  0.9588 -0.4910 -0.1714
63016SOL    HW295907   3.847   0.461   6.321  0.4878  0.5129 -0.7617
63017SOL     OW95908   3.275   8.807   5.851  0.0156 -0.1080  0.0251
63017SOL    HW195909   3.203   8.865   5.825  0.9306  0.7437 -0.6762
63017SOL    HW295910   3.270   8.733   5.791 -0.3660 -0.1284  0.0816
63018SOL     OW95911   2.681   3.716  10.273 -0.5220 -0.6287  0.1932
63018SOL    HW195912   2.684   3.754  10.360 -0.8774 -1.1800  0.4513
63018SOL    HW295913   2.655   3.625  10.287 -0.7308 -0.6836 -0.4990
63019SOL     OW95914   1.591   9.814   0.631  0.1551 -0.3438 -0.4453
63019SOL    HW195915   1.519   9.752   0.646  0.8471 -1.0314  0.0622
63019SOL    HW295916   1.580   9.840   0.539 -0.5453 -0.6919 -0.4753
63020SOL     OW95917   8.777   0.869   0.463 -0.3826  0.5762 -0.2525
63020SOL    HW195918   8.835   0.840   0.534 -1.4599  1.2850  0.9365
63020SOL    HW295919   8.832   0.862   0.384  0.6632 -0.7606  0.5458
63021SOL     OW95920   3.764  11.327   9.157  0.0545 -0.1456 -0.4703
63021SOL    HW195921   3.838  11.385   9.137 -0.2050  1.6468  3.0266
63021SOL    HW295922   3.779  11.299   9.247 -2.3491 -1.6316 -0.4504
63022SOL     OW95923   4.887  10.622   2.234  0.5103 -0.0807 -0.1611
63022SOL    HW195924   4.816  10.672   2.274  1.3042  0.8261  0.1676
63022SOL    HW295925   4.871  10.628   2.140  1.8780  2.9471 -0.3377
63023SOL     OW95926   4.678   4.475   2.953 -0.8797 -0.0782 -0.0173
63023SOL    HW195927   4.714   4.390   2.978 -0.1528  0.5884  1.3181
63023SOL    HW295928   4.614   4.455   2.885 -0.7111 -1.6839  0.2611
63024SOL     OW95929  10.584   9.653  10.698 -0.7097 -0.4202  0.1723
63024SOL    HW195930  10.664   9.618  10.739  0.1060  1.8804  0.7214
63024SOL    HW295931  10.513   9.605  10.740  0.1791  0.6153  3.1307
63025SOL     OW95932   7.316  12.445   7.852 -0.1660  0.3216  0.0461
63025SOL    HW195933   7.389  12.383   7.860 -0.7560 -0.4785 -0.5815
63025SOL    HW295934   7.358  12.527   7.825  0.7104  0.4440  1.6392
63026SOL     OW95935   3.143   3.204   9.349  0.8148  0.0669 -0.0968
63026SOL    HW195936   3.158   3.116   9.384  0.5098  0.0476 -0.0087
63026SOL    HW295937   3.180   3.202   9.261  1.2353 -0.0053  0.0778
63027SOL     OW95938   2.601   1.395  10.583 -0.0689  0.2070 -0.0332
63027SOL    HW195939   2.653   1.352  10.515 -2.0789  0.5778 -1.8700
63027SOL    HW295940   2.651   1.474  10.605  0.5374  0.1617 -1.1841
63028SOL     OW95941  12.414   9.457   7.768  0.3798 -0.3007  0.5286
63028SOL    HW195942  12.498   9.485   7.731  0.2191 -0.8083 -0.2530
63028SOL    HW295943  12.422   9.362   7.775 -0.4095 -0.4505 -0.3270
63029SOL     OW95944   7.424  11.726   9.741 -0.0007  0.2052  0.6610
63029SOL    HW195945   7.484  11.789   9.781 -0.1064 -0.1063  1.3235
63029SOL    HW295946   7.338  11.749   9.777  0.1193 -1.0000  1.7994
63030SOL     OW95947   0.493   5.232  11.031  0.2167 -0.0805 -0.2088
63030SOL    HW195948   0.424   5.293  11.006 -0.4990 -0.3555  1.0231
63030SOL    HW295949   0.550   5.228  10.954 -0.9746  0.3660 -1.1455
63031SOL     OW95950   3.273   0.803   4.411 -0.6139  0.1094  0.1260
63031SOL    HW195951   3.349   0.860   4.402 -1.0886  0.8752  0.7399
63031SOL    HW295952   3.214   0.830   4.341 -0.7085  0.1682  0.2271
63032SOL     OW95953   4.344   3.682   1.215  0.2132 -0.0030  0.0909
63032SOL    HW195954   4.324   3.620   1.145 -0.6953 -0.1304  0.4437
63032SOL    HW295955   4.434   3.663   1.240  0.3509 -0.3448 -0.6474
63033SOL     OW95956   7.286   3.726   3.482 -0.2183  0.0036 -0.8307
63033SOL    HW195957   7.298   3.656   3.546 -0.0568  1.5293  0.9059
63033SOL    HW295958   7.362   3.783   3.496 -1.5286  1.7609 -0.4723
63034SOL     OW95959   1.143   5.845   1.567 -0.7618 -0.6720 -0.1610
63034SOL    HW195960   1.064   5.805   1.532 -2.6864  4.0456 -2.0637
63034SOL    HW295961   1.183   5.890   1.492  1.4265  0.4562  1.5532
63035SOL     OW95962  10.591   0.723   1.678 -0.2967  0.0713  0.0247
63035SOL    HW195963  10.561   0.813   1.693  1.5843  0.8758 -0.7574
63035SOL    HW295964  10.574   0.708   1.585 -1.5996 -0.8249  0.3732
63036SOL     OW95965   9.821   2.756   8.801 -0.6367 -0.0091  0.3182
63036SOL    HW195966   9.886   2.812   8.758 -1.1491  0.1811 -0.2216
63036SOL    HW295967   9.782   2.705   8.730 -0.3641 -0.8670  0.7687
63037SOL     OW95968   7.980  12.241  10.833 -0.5519  0.2468  0.1770
63037SOL    HW195969   7.900  12.288  10.809 -1.0736 -0.6532  0.1039
63037SOL    HW295970   7.960  12.205  10.919  0.5188  1.6641  1.0670
63038SOL     OW95971   7.403   0.421   3.970 -0.3268  0.1451 -0.0083
63038SOL    HW195972   7.440   0.504   3.999 -0.4376  0.9181 -1.9239
63038SOL    HW295973   7.434   0.411   3.880 -0.4061 -1.8548  0.1399
63039SOL     OW95974   1.505   6.844  11.585  0.2341  0.1441 -0.3834
63039SOL    HW195975   1.542   6.833  11.497 -0.3199  0.7860 -0.7068
63039SOL    HW295976   1.419   6.802  11.580 -0.0403  0.6893 -0.3259
63040SOL     OW95977  12.387   5.069  10.256 -0.2574  0.4198  0.4710
63040SOL    HW195978  12.356   5.063  10.166 -1.4663 -2.4702  0.9780
63040SOL    HW295979  12.482   5.073  10.249 -0.2276 -1.4134 -0.9706
63041SOL     OW95980  12.022   4.793   6.369 -0.2507 -0.0042 -0.2508
63041SOL    HW195981  11.959   4.803   6.297  0.0574 -0.1778 -0.5479
63041SOL    HW295982  12.102   4.834   6.336 -0.3845  0.7894  0.3648
63042SOL     OW95983   0.754   1.945   9.751 -0.6990 -0.0090 -0.5731
63042SOL    HW195984   0.777   1.863   9.796 -0.6256  0.7386  0.8153
63042SOL    HW295985   0.814   1.949   9.677  2.7955  1.0978  2.0273
63043SOL     OW95986   6.131   0.361   6.442  0.5521  0.0848  0.2664
63043SOL    HW195987   6.131   0.363   6.347  1.7776  0.0578  0.2506
63043SOL    HW295988   6.222   0.343   6.466  0.3400  0.4836  1.4510
63044SOL     OW95989   6.542   0.538  12.345  0.0998  0.1981 -0.3739
63044SOL    HW195990   6.631   0.515  12.320 -0.4957  1.4536 -4.5540
63044SOL    HW295991   6.537   0.633  12.330 -1.9441  0.1273 -0.4389
63045SOL     OW95992   2.881  12.534   9.519 -0.2414  0.1943  0.6085
63045SOL    HW195993   2.948  12.465   9.523 -0.5264 -0.1161  0.0888
63045SOL    HW295994   2.904  12.586   9.443  0.8594  1.6223  1.8474
63046SOL     OW95995   5.188   9.503   6.999 -0.4071 -0.3144  0.4722
63046SOL    HW195996   5.107   9.468   7.037 -0.2195 -2.4701 -0.9179
63046SOL    HW295997   5.228   9.427   6.956  0.1362  1.5768 -2.6621
63047SOL     OW95998   7.806   7.412   2.231  0.6138 -0.2149  0.1172
63047SOL    HW195999   7.769   7.480   2.175 -0.0152 -1.7940 -1.5127
63047SOL    HW296000   7.857   7.357   2.171  3.0232  0.0543  1.7568
63048SOL     OW96001   7.168   5.774   6.638  0.0597 -0.4366  0.2684
63048SOL    HW196002   7.172   5.865   6.608  1.2618 -0.1589  1.1702
63048SOL    HW296003   7.095   5.772   6.699 -0.1736 -0.1536  0.0024
63049SOL     OW96004   8.048  12.071   9.790  0.1376  0.3566 -0.0765
63049SOL    HW196005   8.017  12.161   9.776  0.5999  0.9559  2.3493
63049SOL    HW296006   8.110  12.055   9.719  0.6732  2.2736 -0.0841
63050SOL     OW96007  12.170  11.130  11.396 -0.0300  0.3387  0.3774
63050SOL    HW196008  12.095  11.076  11.372  2.6952 -2.8652 -1.8307
63050SOL    HW296009  12.190  11.179  11.316  1.7527 -0.9332 -0.0109
63051SOL     OW96010   3.176   2.465  11.850 -0.3419 -0.4132  0.6003
63051SOL    HW196011   3.128   2.448  11.769  1.2510  0.5825 -0.5932
63051SOL    HW296012   3.268   2.448  11.828  0.0856 -0.5862  2.3436
63052SOL     OW96013   3.988  10.529   7.513  0.2454 -0.1225  0.1803
63052SOL    HW196014   3.930  10.456   7.493  1.4602 -1.0743  0.0319
63052SOL    HW296015   3.929  10.601   7.535 -1.1372 -0.0688 -3.1083
63053SOL     OW96016   4.877   2.316   7.713 -0.1095  0.1511  0.4241
63053SOL    HW196017   4.820   2.355   7.779  1.2914  0.6844  1.3564
63053SOL    HW296018   4.965   2.325   7.748  0.6008 -0.3996 -1.1058
63054SOL     OW96019   4.654   2.937  11.192 -0.1160  0.0657 -0.3378
63054SOL    HW196020   4.657   2.947  11.287 -1.5517  2.8092 -0.4822
63054SOL    HW296021   4.640   2.844  11.179 -0.0026 -0.3799  2.1325
63055SOL     OW96022   8.597   8.797   0.434 -0.5000 -0.5706 -0.6575
63055SOL    HW196023   8.524   8.838   0.388 -1.7983 -0.2445  1.5784
63055SOL    HW296024   8.616   8.718   0.382 -1.6780 -0.0707 -1.9049
63056SOL     OW96025   9.613   7.492  10.317  0.0988  0.2429 -0.3343
63056SOL    HW196026   9.558   7.515  10.392  0.2826 -0.1490 -0.0759
63056SOL    HW296027   9.556   7.504  10.241  0.2261  1.6544 -0.2306
63057SOL     OW96028   5.017  12.399   1.111 -0.2891 -0.5417 -0.1080
63057SOL    HW196029   5.067  12.431   1.186  0.2249 -0.1625 -0.6035
63057SOL    HW296030   5.047  12.453   1.038 -2.0482  0.3145 -0.2667
63058SOL     OW96031  12.475  10.864   9.621 -0.2653  0.4621  0.0469
63058SOL    HW196032  12.480  10.788   9.563 -0.8177  1.2796 -1.1121
63058SOL    HW296033  12.444  10.935   9.565 -1.0371  1.2359  1.3969
63059SOL     OW96034  11.451   4.515   6.828  0.5929 -0.0971  0.4209
63059SOL    HW196035  11.524   4.478   6.778 -0.0428 -1.1302  0.2390
63059SOL    HW296036  11.492   4.554   6.905  1.3285 -0.7683  0.3761
63060SOL     OW96037   0.217  10.325   8.402 -0.2794 -0.2736  0.2100
63060SOL    HW196038   0.230  10.293   8.313  0.2248 -1.3744  0.6631
63060SOL    HW296039   0.224  10.247   8.457 -1.6879  0.2167  1.1325
63061SOL     OW96040   9.888   5.416   8.530  0.3460 -0.0925  0.4176
63061SOL    HW196041   9.910   5.503   8.499  0.6014  0.5754  2.2991
63061SOL    HW296042   9.828   5.381   8.465  1.3072  0.9266 -1.0816
63062SOL     OW96043   5.153  10.707   6.736  0.1819  1.0252 -0.1131
63062SOL    HW196044   5.122  10.626   6.696 -0.3931  0.2425  1.8455
63062SOL    HW296045   5.216  10.742   6.672 -1.5989  0.5063 -2.2650
63063SOL     OW96046   2.978   1.082   7.294  0.8201 -0.3255 -0.0074
63063SOL    HW196047   3.063   1.054   7.260  1.0768 -1.0607  1.1937
63063SOL    HW296048   2.990   1.174   7.317  0.4773  0.3698 -2.3553
63064SOL     OW96049  10.322   3.571   4.589 -0.2416  0.2765 -0.5047
63064SOL    HW196050  10.345   3.639   4.525  0.6116  0.9905  0.5200
63064SOL    HW296051  10.245   3.606   4.634  0.4666  0.7965  0.3293
63065SOL     OW96052   3.916  11.985   6.272  0.4171  1.0882 -0.4322
63065SOL    HW196053   3.931  11.893   6.252  0.1731  0.6647  1.1699
63065SOL    HW296054   3.974  12.032   6.213 -0.3437 -0.0115 -2.1356
63066SOL     OW96055   4.918   0.595   7.873  0.3876  0.2917  0.0726
63066SOL    HW196056   4.860   0.568   7.944  0.1621 -0.0126 -0.2268
63066SOL    HW296057   5.002   0.610   7.915  0.1005  0.7059  0.5046
63067SOL     OW96058   0.417   3.664   6.074 -0.8278 -0.4589 -0.5332
63067SOL    HW196059   0.348   3.654   6.008 -0.4416 -0.9940 -0.8662
63067SOL    HW296060   0.476   3.591   6.058 -0.4952 -0.3441  0.1342
63068SOL     OW96061   4.240   2.057   0.075  0.1567 -0.3448  0.2251
63068SOL    HW196062   4.303   2.031   0.008 -1.2878 -1.6469 -0.6789
63068SOL    HW296063   4.171   2.102   0.027 -0.2264 -0.0443  1.0408
63069SOL     OW96064  11.169  12.216  12.569  0.1909 -0.2008 -0.0176
63069SOL    HW196065  11.177  12.285  12.503  1.0017 -0.6074 -0.3688
63069SOL    HW296066  11.256  12.176  12.571 -0.1316 -0.8886  0.5353
63070SOL     OW96067   3.036  11.850   5.890  0.1875 -0.6031 -0.1781
63070SOL    HW196068   3.056  11.820   5.978 -0.2816  0.1075  0.1748
63070SOL    HW296069   3.051  11.773   5.835  1.8745 -0.6641  0.3125
63071SOL     OW96070  11.999   8.510   0.267 -0.0348  0.5235 -0.3029
63071SOL    HW196071  11.913   8.471   0.281 -0.4660  0.6610 -2.2280
63071SOL    HW296072  12.046   8.496   0.349 -1.0974 -1.6396  0.0108
63072SOL     OW96073   4.756  12.537   1.283 -0.2444  0.2857 -0.5488
63072SOL    HW196074   4.842  12.577   1.301 -0.2323  0.4253 -0.8900
63072SOL    HW296075   4.693  12.596   1.325 -0.1850  0.2929 -0.4690
63073SOL     OW96076   7.619   8.265  11.993  0.4140  0.2395 -0.3570
63073SOL    HW196077   7.713   8.269  11.976  0.3760  0.6230 -0.4844
63073SOL    HW296078   7.605   8.328  12.063  0.5893 -1.3970  1.2390
63074SOL     OW96079   6.366   3.241   2.554  0.4004 -0.6269  0.1850
63074SOL    HW196080   6.300   3.180   2.520  1.4894 -0.9582 -1.4427
63074SOL    HW296081   6.315   3.307   2.602 -1.0152 -1.4157 -0.1663
63075SOL     OW96082  10.366   4.222  11.590 -0.3609 -0.0075  0.3404
63075SOL    HW196083  10.311   4.275  11.647 -0.8756  1.7721 -1.6934
63075SOL    HW296084  10.407   4.284  11.530  1.1166 -1.6517 -0.4627
63076SOL     OW96085  11.458  11.813   2.949  0.3948 -0.8292 -0.5486
63076SOL    HW196086  11.523  11.782   3.013 -0.3552  2.1185  1.8236
63076SOL    HW296087  11.377  11.822   2.999 -0.7485 -0.2209 -2.4132
63077SOL     OW96088   7.486   7.916   3.158 -0.4195  0.2987  0.0352
63077SOL    HW196089   7.431   7.975   3.106 -1.1742  0.4468  0.9803
63077SOL    HW296090   7.426   7.878   3.222  0.3920 -0.2879  0.4580
63078SOL     OW96091   4.229  12.253   7.832  0.3995 -0.5532  0.0788
63078SOL    HW196092   4.323  12.242   7.817  0.5847  1.7446 -0.9089
63078SOL    HW296093   4.209  12.338   7.794 -2.0669 -0.8949  0.4556
63079SOL     OW96094   8.516  11.348   4.555 -0.0352  0.1615 -0.2007
63079SOL    HW196095   8.571  11.347   4.633 -1.4504 -1.0290  0.8346
63079SOL    HW296096   8.462  11.426   4.565 -1.5557 -0.9996  1.0392
63080SOL     OW96097  11.034  10.348  11.351  0.2216 -0.1692  0.0979
63080SOL    HW196098  11.057  10.317  11.439 -2.4003 -1.1591  0.5177
63080SOL    HW296099  11.049  10.442  11.354  2.8999 -0.5358  0.6353
63081SOL     OW96100   7.268   0.217   7.610  0.0673  0.2353 -0.4734
63081SOL    HW196101   7.260   0.171   7.694  2.3995 -0.4840 -0.5771
63081SOL    HW296102   7.234   0.155   7.546  1.4516 -0.6332 -0.4022
63082SOL     OW96103   2.794   4.700   5.972 -0.1702 -0.2214 -0.0445
63082SOL    HW196104   2.785   4.656   6.056 -1.2493 -1.7520 -0.8958
63082SOL    HW296105   2.887   4.690   5.950 -0.4213 -2.5180 -0.3581
63083SOL     OW96106   7.461  10.560   7.150 -0.5675 -0.2328  0.3713
63083SOL    HW196107   7.379  10.511   7.143 -0.9946  0.6043 -0.8617
63083SOL    HW296108   7.513  10.530   7.075 -0.8594  1.2127 -0.4447
63084SOL     OW96109   3.458   1.905   1.781  0.5385 -0.1559 -0.2654
63084SOL    HW196110   3.387   1.862   1.732  1.7911 -0.9647 -1.4306
63084SOL    HW296111   3.464   1.854   1.862  0.3613 -0.6305 -0.5435
63085SOL     OW96112  10.934   4.268   2.197 -0.2225 -0.2096  0.3816
63085SOL    HW196113  10.933   4.227   2.284 -0.8639 -0.2320  0.3756
63085SOL    HW296114  11.012   4.234   2.154  0.7957  0.7847  1.4036
63086SOL     OW96115  11.576   8.428   1.365 -1.0772  0.5407 -1.0270
63086SOL    HW196116  11.641   8.462   1.427 -2.8347  0.3946  1.0404
63086SOL    HW296117  11.626   8.405   1.287  1.9634 -2.7528  1.5630
63087SOL     OW96118   6.421   8.006   1.633  0.0113  0.0101 -0.4798
63087SOL    HW196119   6.469   8.074   1.586  0.5305 -0.7966 -1.1451
63087SOL    HW296120   6.475   7.928   1.625 -0.5591 -0.4836  0.3000
63088SOL     OW96121  12.317   6.135  11.853  0.5350  0.7457 -0.4941
63088SOL    HW196122  12.363   6.200  11.905  1.8465  0.2488 -0.9832
63088SOL    HW296123  12.279   6.075  11.918  1.7173  0.4172 -0.0791
63089SOL     OW96124   7.853   2.062   0.124  0.3182 -0.4685 -0.5309
63089SOL    HW196125   7.857   2.064   0.029  0.9006  0.0614 -0.5020
63089SOL    HW296126   7.941   2.038   0.152  0.1137 -0.7614 -0.1256
63090SOL     OW96127   4.934  10.940   4.632  0.1452 -0.7385  0.2977
63090SOL    HW196128   4.931  11.028   4.594  1.4810 -1.1160 -0.7435
63090SOL    HW296129   4.939  10.955   4.726  2.3781  0.4101  0.0664
63091SOL     OW96130  11.481  10.308   2.890  0.9686  0.2888  0.0765
63091SOL    HW196131  11.464  10.226   2.937  1.5862 -0.4185 -0.8868
63091SOL    HW296132  11.504  10.371   2.958 -0.9973  0.0879  0.9815
63092SOL     OW96133   9.823   4.470   4.919 -0.6479 -0.5336 -0.0641
63092SOL    HW196134   9.899   4.431   4.875  0.0119  1.2134 -0.5449
63092SOL    HW296135   9.847   4.472   5.011  0.4220  1.0172 -0.3268
63093SOL     OW96136   2.743   1.083   3.229  0.1507  0.2434  0.4671
63093SOL    HW196137   2.747   1.092   3.134 -0.3488 -0.4472  0.3753
63093SOL    HW296138   2.659   1.040   3.246 -0.7493  2.2126  1.3653
63094SOL     OW96139  11.686   8.999  11.171  0.3996 -0.1669 -1.1984
63094SOL    HW196140  11.712   8.944  11.245 -1.5653  0.5261  0.0981
63094SOL    HW296141  11.644   8.939  11.109 -0.3240 -0.3899 -0.5099
63095SOL     OW96142   7.819   5.163   8.321 -0.2713  0.4780 -0.1150
63095SOL    HW196143   7.885   5.230   8.341  1.4282 -1.1772  0.0257
63095SOL    HW296144   7.750   5.179   8.386  0.4816  1.5593  0.4671
63096SOL     OW96145   6.446   3.981   3.333  0.0028  0.3560  0.1081
63096SOL    HW196146   6.388   3.958   3.406  0.4272  0.5286  0.5123
63096SOL    HW296147   6.452   3.900   3.281 -0.2265  0.2001  0.3199
63097SOL     OW96148   1.640   8.149   4.491 -0.4307  0.0241  0.6020
63097SOL    HW196149   1.732   8.173   4.484 -0.5019  0.1193  0.0172
63097SOL    HW296150   1.612   8.186   4.575  0.4231 -1.1890  1.4698
63098SOL     OW96151   2.464   0.414   4.794 -0.1286  0.5731  0.2301
63098SOL    HW196152   2.546   0.418   4.745 -0.1010 -0.1880  0.1933
63098SOL    HW296153   2.397   0.438   4.730 -0.0513 -0.0218 -0.0871
63099SOL     OW96154   3.157   7.701  11.702 -0.1052  0.0087 -0.1675
63099SOL    HW196155   3.247   7.674  11.682 -1.0988 -2.6949 -1.4054
63099SOL    HW296156   3.152   7.700  11.798  1.0479 -0.2882 -0.0963
63100SOL     OW96157   4.947   6.474   0.112 -0.0002  0.2798 -0.1179
63100SOL    HW196158   4.871   6.464   0.054 -0.2535 -1.6565  0.4948
63100SOL    HW296159   4.908   6.499   0.196 -0.3100 -3.2286  0.9150
63101SOL     OW96160   3.032   4.921   2.069 -0.6037  0.1361  0.4325
63101SOL    HW196161   3.128   4.917   2.077 -0.4331 -0.1894 -1.3485
63101SOL    HW296162   3.017   4.959   1.982 -2.1019  0.7035  0.9202
63102SOL     OW96163   9.176   6.447   1.683  0.3084  0.3581  0.1177
63102SOL    HW196164   9.193   6.390   1.609  0.5000  0.7246 -0.1259
63102SOL    HW296165   9.089   6.421   1.715 -0.1133  0.7095 -0.7172
63103SOL     OW96166   8.155  10.094  11.036  0.3917 -0.3643  0.1523
63103SOL    HW196167   8.115  10.118  10.953 -0.1042 -0.1564  0.4417
63103SOL    HW296168   8.217  10.024  11.015  2.0651  1.3089 -0.7598
63104SOL     OW96169   9.171  11.559   5.484 -0.0707  0.6358  0.0873
63104SOL    HW196170   9.207  11.543   5.571 -2.2617 -0.4719  0.8464
63104SOL    HW296171   9.227  11.509   5.425  0.3046 -0.1675  1.0978
63105SOL     OW96172   0.860   7.202   6.956  0.5259 -0.1694 -0.2090
63105SOL    HW196173   0.943   7.250   6.965  1.2375 -1.4792  0.5683
63105SOL    HW296174   0.854   7.182   6.863  0.2404  1.3346 -0.5439
63106SOL     OW96175   6.736  10.633   7.556  0.3218  0.0577 -0.3086
63106SOL    HW196176   6.682  10.636   7.477 -0.0048 -0.0161 -0.0843
63106SOL    HW296177   6.791  10.712   7.550  1.1373 -0.5538 -1.2114
63107SOL     OW96178   2.187   4.690   2.953 -0.2510 -0.2252  1.0967
63107SOL    HW196179   2.239   4.736   3.019  0.2385  1.1208 -0.1550
63107SOL    HW296180   2.237   4.702   2.871 -1.9292  0.1361  0.0725
63108SOL     OW96181   0.418   4.246   0.811  0.0924 -0.2845 -0.3966
63108SOL    HW196182   0.496   4.271   0.762 -1.1512 -0.4975 -2.6771
63108SOL    HW296183   0.391   4.326   0.856  1.2360 -0.0448 -0.1186
63109SOL     OW96184   8.422   0.634   9.797  0.1758  0.4400  0.0556
63109SOL    HW196185   8.451   0.637   9.705 -0.0176  3.0867 -0.0122
63109SOL    HW296186   8.504   0.628   9.847  0.3133 -0.4588 -0.2540
63110SOL     OW96187   2.330   6.981   5.300  0.5396 -0.2935  0.5648
63110SOL    HW196188   2.251   7.031   5.278  0.3370 -0.5017  0.8222
63110SOL    HW296189   2.323   6.901   5.248  0.3117 -0.5582  1.0029
63111SOL     OW96190   0.092   5.847   5.415  0.0903 -0.5053 -0.4285
63111SOL    HW196191   0.020   5.786   5.428  0.0777 -0.3786  0.1109
63111SOL    HW296192   0.168   5.802   5.453  0.6913 -1.4184 -2.5632
63112SOL     OW96193   1.222   3.956   0.245 -0.0420  0.4470 -0.2758
63112SOL    HW196194   1.226   3.885   0.181 -0.8186 -0.1845  0.3683
63112SOL    HW296195   1.243   4.035   0.194 -1.4946  0.0763 -1.5230
63113SOL     OW96196   6.518   6.748   8.156  0.0781 -0.0794  0.5135
63113SOL    HW196197   6.611   6.734   8.171  0.2179  1.3703  1.1647
63113SOL    HW296198   6.512   6.836   8.120 -0.8522 -1.0807 -1.9968
63114SOL     OW96199   3.344   9.816   2.418  0.0144 -0.7294  0.0516
63114SOL    HW196200   3.422   9.762   2.404 -1.0503 -2.7561  1.3640
63114SOL    HW296201   3.297   9.813   2.335  0.2841 -1.3315 -0.0848
63115SOL     OW96202   9.237   2.703  12.576  0.1050  0.4466 -0.2305
63115SOL    HW196203   9.277   2.710  12.663  1.2803 -0.3154 -0.6771
63115SOL    HW296204   9.190   2.620  12.577  0.6941  0.0964 -0.5185
63116SOL     OW96205   2.598   1.968  10.982 -0.1495  0.1141  0.1819
63116SOL    HW196206   2.532   2.029  10.949  0.3931  0.2919 -0.6065
63116SOL    HW296207   2.580   1.886  10.936 -0.5079 -0.1527  0.7950
63117SOL     OW96208  10.050   3.642  10.000 -0.5748  0.1142  0.3593
63117SOL    HW196209   9.960   3.673  10.016 -0.3992  0.7430  0.1607
63117SOL    HW296210  10.064   3.657   9.907 -0.0124  0.7202  0.5321
63118SOL     OW96211   7.367  10.384   8.246  0.1726  0.4973 -0.1961
63118SOL    HW196212   7.437  10.376   8.310  1.1193 -0.2439 -1.2933
63118SOL    HW296213   7.378  10.472   8.210 -0.1451  0.7825  0.3748
63119SOL     OW96214   5.644  10.674   8.550  0.4961  0.1081  0.0272
63119SOL    HW196215   5.559  10.700   8.515 -0.4733 -1.2143  1.2698
63119SOL    HW296216   5.675  10.751   8.597 -0.1732  0.4972 -0.1579
63120SOL     OW96217   5.080  11.934   9.094 -0.2976 -0.0954 -0.1310
63120SOL    HW196218   5.103  12.025   9.078 -3.6253  1.2287  1.6361
63120SOL    HW296219   5.031  11.907   9.016 -0.0720 -0.0947 -0.2746
63121SOL     OW96220   8.443   6.707  11.906  0.1203  0.2850  0.1092
63121SOL    HW196221   8.431   6.758  11.987  0.0000  1.3752 -0.5748
63121SOL    HW296222   8.450   6.617  11.936  0.6385  0.7202  1.4002
63122SOL     OW96223   1.701   2.027   4.997  0.6958  0.5756 -0.1424
63122SOL    HW196224   1.635   2.084   5.038 -0.3410  0.8303 -2.0552
63122SOL    HW296225   1.652   1.949   4.972  1.3894  0.2619 -0.5218
63123SOL     OW96226   5.836   4.278   4.616  0.1288 -0.2604 -0.1310
63123SOL    HW196227   5.805   4.241   4.698  0.4572  1.0174  0.5902
63123SOL    HW296228   5.903   4.218   4.586 -0.2576 -0.9336  0.3376
63124SOL     OW96229   3.511   9.139   0.482 -0.3597 -0.4803  0.2307
63124SOL    HW196230   3.490   9.046   0.490 -2.5308 -0.1486 -0.9584
63124SOL    HW296231   3.488   9.176   0.567 -1.6707 -0.6753 -0.0224
63125SOL     OW96232   7.815   7.277   5.975 -0.2295  0.1183 -0.0523
63125SOL    HW196233   7.838   7.187   5.996  0.0577  0.3942  0.8843
63125SOL    HW296234   7.885   7.307   5.917 -0.1474 -0.1626 -0.0971
63126SOL     OW96235   4.791   1.607   6.115  0.1926 -0.1303 -0.4756
63126SOL    HW196236   4.831   1.525   6.087  4.3983  1.7858 -0.8806
63126SOL    HW296237   4.770   1.653   6.033  2.1885  0.9611 -0.4451
63127SOL     OW96238   7.633   7.032   3.585 -0.4640  0.0780 -0.3049
63127SOL    HW196239   7.677   7.113   3.557  0.9620 -0.2702  0.8555
63127SOL    HW296240   7.542   7.059   3.600  0.0447  1.5393  0.3434
63128SOL     OW96241  11.142   9.786   6.950 -0.1849 -0.3583 -0.1376
63128SOL    HW196242  11.083   9.774   6.876  0.2970  2.1770 -1.0354
63128SOL    HW296243  11.103   9.857   7.001  1.2462  0.2737  0.1340
63129SOL     OW96244   0.175  11.832   3.030  0.2676  0.3620 -0.0725
63129SOL    HW196245   0.229  11.756   3.010  0.3702  0.4758 -0.2310
63129SOL    HW296246   0.123  11.846   2.951 -0.0702  0.1866  0.1218
63130SOL     OW96247   5.414   6.665  12.555 -0.1350 -0.2292 -0.5451
63130SOL    HW196248   5.378   6.722  12.624 -0.8143 -1.4434  0.1285
63130SOL    HW296249   5.386   6.705  12.473 -1.1459  0.0605 -0.0669
63131SOL     OW96250   6.490   7.136   6.206  0.0347  0.1893 -0.0180
63131SOL    HW196251   6.500   7.201   6.137 -0.4965  1.6453  1.2166
63131SOL    HW296252   6.533   7.057   6.172  0.1589  0.9889 -1.8012
63132SOL     OW96253   6.942   1.779   0.743 -0.1214 -0.5761 -0.2447
63132SOL    HW196254   6.906   1.693   0.762  0.4538 -0.6657  0.5039
63132SOL    HW296255   6.972   1.812   0.828 -1.0474  0.6989 -0.3893
63133SOL     OW96256   1.397   9.628  10.305  0.1671 -0.1614 -0.0763
63133SOL    HW196257   1.420   9.710  10.261  0.6061 -0.5217 -0.5229
63133SOL    HW296258   1.466   9.567  10.281  0.4367 -0.3627  1.1562
63134SOL     OW96259  11.558   0.610   3.216 -0.4211  0.0772  0.9979
63134SOL    HW196260  11.615   0.671   3.168  0.4375 -2.1792 -1.1118
63134SOL    HW296261  11.472   0.652   3.215  0.1158  1.2583 -0.4445
63135SOL     OW96262   3.551   6.508   1.187  0.4987  0.0828 -0.8153
63135SOL    HW196263   3.470   6.458   1.190 -0.1670  1.1387  1.3531
63135SOL    HW296264   3.615   6.450   1.145 -0.9110 -1.4786 -0.8748
63136SOL     OW96265  12.292   1.067   4.438  0.2196 -0.5888 -0.1795
63136SOL    HW196266  12.303   1.098   4.528  0.3381  0.3637 -0.5209
63136SOL    HW296267  12.301   0.972   4.445  1.2815 -0.4475  0.6613
63137SOL     OW96268  11.953   4.567   4.802  0.4991  0.0237 -0.1894
63137SOL    HW196269  11.976   4.609   4.719 -1.9191 -0.7154 -1.3258
63137SOL    HW296270  11.915   4.636   4.855 -2.8452 -0.3623 -1.7984
63138SOL     OW96271  11.539   0.013  12.135 -0.0666 -0.3921  0.4937
63138SOL    HW196272  11.610   0.064  12.172 -0.7016 -0.6906  2.2351
63138SOL    HW296273  11.539   0.034  12.041  2.4677 -0.6282  0.3883
63139SOL     OW96274  10.463   1.318   5.135  0.5846  0.3646  0.1992
63139SOL    HW196275  10.460   1.304   5.230  1.0564 -0.8545  0.0416
63139SOL    HW296276  10.552   1.348   5.118  0.8079 -0.3922  0.0183
63140SOL     OW96277   9.487  10.290  11.190  0.4294 -0.7245  0.2631
63140SOL    HW196278   9.491  10.341  11.270 -1.0637 -1.2412  0.6922
63140SOL    HW296279   9.504  10.200  11.218 -2.0078 -1.2144  0.3664
63141SOL     OW96280   6.993   9.928  11.617 -0.2367  0.0870  0.2795
63141SOL    HW196281   6.984  10.023  11.618  0.8513  0.2324  2.5569
63141SOL    HW296282   6.908   9.895  11.646 -0.6696  0.3217 -0.6727
63142SOL     OW96283   2.732   6.547   2.205  0.4730  0.2285  0.0988
63142SOL    HW196284   2.664   6.488   2.173  0.5462 -0.2775  0.8416
63142SOL    HW296285   2.704   6.634   2.176 -1.2604  0.2229  1.6078
63143SOL     OW96286   7.023   9.879   7.944 -0.4639  0.4569  0.6641
63143SOL    HW196287   6.964   9.803   7.937 -1.3426  1.1107  0.8177
63143SOL    HW296288   7.025   9.900   8.037  1.0917 -0.3727  0.8451
63144SOL     OW96289   0.475   3.682   2.643  0.1041  0.2579 -0.3224
63144SOL    HW196290   0.546   3.714   2.587  0.0060  0.2000 -0.4806
63144SOL    HW296291   0.456   3.756   2.701  0.0136  0.4215 -0.5561
63145SOL     OW96292  12.243   0.563   9.391 -0.7624 -0.3015 -0.0306
63145SOL    HW196293  12.217   0.566   9.299 -1.2054  0.3689  0.1039
63145SOL    HW296294  12.338   0.570   9.390 -0.8593  1.4555 -0.3850
63146SOL     OW96295   5.267   3.322   5.471  0.1944 -0.3402 -0.5153
63146SOL    HW196296   5.294   3.275   5.393  2.6175  1.4073 -0.8377
63146SOL    HW296297   5.293   3.265   5.544 -0.0635 -0.9837 -0.9155
63147SOL     OW96298   8.392   0.623   8.283 -0.0254  0.3948  0.4528
63147SOL    HW196299   8.388   0.718   8.292 -0.9955  0.4397 -0.3454
63147SOL    HW296300   8.317   0.590   8.332 -0.5414  0.1395 -0.4900
63148SOL     OW96301   4.204   8.964   7.801 -0.2427 -0.1949 -0.2120
63148SOL    HW196302   4.221   9.058   7.806  0.1537 -0.2969  0.4611
63148SOL    HW296303   4.232   8.940   7.713 -1.0217  0.4365 -0.6553
63149SOL     OW96304   0.915   3.344   2.618 -0.3322  0.2589  0.6731
63149SOL    HW196305   0.867   3.378   2.694  0.6783  0.6851  1.1410
63149SOL    HW296306   0.853   3.284   2.575 -0.8542 -0.1532  1.9477
63150SOL     OW96307   6.976   9.819   9.758  0.4419 -0.1261 -0.3337
63150SOL    HW196308   6.942   9.747   9.705  1.0008 -0.7095  0.0813
63150SOL    HW296309   6.939   9.898   9.719 -0.2498 -0.6442 -0.7422
63151SOL     OW96310  11.483  10.834   0.550  0.0612  0.2188  0.1097
63151SOL    HW196311  11.521  10.921   0.535  1.5820  0.1508  2.8442
63151SOL    HW296312  11.554  10.774   0.528 -0.9374 -0.3837 -1.6336
63152SOL     OW96313  10.579   4.687   3.258  0.1499 -0.2016  0.1725
63152SOL    HW196314  10.564   4.654   3.347  2.1029 -1.8090 -0.0192
63152SOL    HW296315  10.673   4.706   3.255  0.1513 -0.3118 -1.5857
63153SOL     OW96316  11.648   5.388   7.701 -0.4374  0.0969  0.3576
63153SOL    HW196317  11.631   5.469   7.750  1.6181  1.2929 -0.7831
63153SOL    HW296318  11.615   5.406   7.613 -0.2443 -0.4273  0.1751
63154SOL     OW96319   5.026   5.382   4.091 -0.0778 -0.8216 -0.1076
63154SOL    HW196320   5.037   5.291   4.065  1.0736 -0.2802 -1.7534
63154SOL    HW296321   5.106   5.425   4.059 -1.0526  0.9389 -0.3052
63155SOL     OW96322   8.567  12.013   2.710  0.5700 -0.0376 -0.0699
63155SOL    HW196323   8.538  12.051   2.627  2.6651  0.5705 -0.5890
63155SOL    HW296324   8.643  11.960   2.687  1.1807  0.1183  1.4493
63156SOL     OW96325   7.604   2.285   6.084 -0.4599  0.1537 -0.3467
63156SOL    HW196326   7.549   2.217   6.046 -0.2515 -0.9657  1.2558
63156SOL    HW296327   7.579   2.365   6.038 -2.9712 -0.4242 -0.1291
63157SOL     OW96328   4.746   5.573   4.379  0.3864  0.0570 -0.1911
63157SOL    HW196329   4.794   5.579   4.462  0.9980  2.4538 -0.6549
63157SOL    HW296330   4.673   5.635   4.389  0.4494  0.3548 -1.4217
63158SOL     OW96331  10.355  11.035   0.373  0.6917 -0.1808  0.4447
63158SOL    HW196332  10.396  10.956   0.336  0.8575 -0.3606  1.0025
63158SOL    HW296333  10.308  11.074   0.299 -2.5236 -2.7601  0.9033
63159SOL     OW96334   5.435  12.055   4.344 -0.1276  0.8216  0.1699
63159SOL    HW196335   5.414  12.007   4.424  1.4051  1.1026  0.7762
63159SOL    HW296336   5.493  11.996   4.296  0.8817  1.6001  0.4063
63160SOL     OW96337   1.737   8.222   6.373 -0.3580  0.5756  1.0314
63160SOL    HW196338   1.748   8.276   6.451  0.6722 -0.5466  1.6986
63160SOL    HW296339   1.642   8.207   6.367 -0.7677  3.1107  0.3301
63161SOL     OW96340   7.192   2.175   9.441  0.1349  0.0874 -0.5885
63161SOL    HW196341   7.102   2.206   9.436  0.2429  0.2605 -1.6714
63161SOL    HW296342   7.187   2.095   9.494 -0.3357  1.1772  1.0850
63162SOL     OW96343   4.376   4.718   7.107  0.0536 -0.2144 -0.2139
63162SOL    HW196344   4.341   4.791   7.158 -0.6084 -1.1209  0.6715
63162SOL    HW296345   4.469   4.714   7.131  0.1866  0.5459 -0.5548
63163SOL     OW96346   7.294   2.614   4.153  0.6582 -0.2135  0.1569
63163SOL    HW196347   7.276   2.536   4.207 -0.3800 -1.0554 -1.3220
63163SOL    HW296348   7.238   2.682   4.190  0.7969 -0.4558  0.8269
63164SOL     OW96349   7.306   0.470   6.905 -0.1523 -0.9996 -0.8517
63164SOL    HW196350   7.370   0.463   6.976 -0.6822 -0.3143 -0.3010
63164SOL    HW296351   7.324   0.393   6.850  0.1910 -1.6070  0.0809
63165SOL     OW96352   0.336  10.555  11.770 -0.0443 -0.1631  1.0092
63165SOL    HW196353   0.299  10.560  11.859  2.2615  0.2154  2.0259
63165SOL    HW296354   0.347  10.646  11.744  0.3796 -0.2645  0.8270
63166SOL     OW96355   6.622   1.806  11.545  0.1612 -0.5348  0.3036
63166SOL    HW196356   6.654   1.773  11.461  2.1953 -1.5890  1.3970
63166SOL    HW296357   6.695   1.858  11.579 -0.3066 -0.7674  1.7449
63167SOL     OW96358   6.263   9.638   9.716  0.1150 -0.4666 -0.2368
63167SOL    HW196359   6.216   9.682   9.645  1.0285 -0.6072 -0.9424
63167SOL    HW296360   6.256   9.697   9.790 -2.5376 -1.1669  0.1870
63168SOL     OW96361   7.313  12.328   6.203 -0.5285 -0.0382  0.2996
63168SOL    HW196362   7.381  12.283   6.254 -0.3800 -0.0178  0.1193
63168SOL    HW296363   7.359  12.366   6.129 -0.9155 -1.1063 -0.5259
63169SOL     OW96364   2.854   4.753   9.276 -0.5997 -0.5039  0.7077
63169SOL    HW196365   2.794   4.810   9.227  1.5416  1.4501  0.1722
63169SOL    HW296366   2.840   4.666   9.238 -3.1947 -0.2099  0.7828
63170SOL     OW96367  10.141   4.837   9.070 -0.3564 -0.0219  0.5019
63170SOL    HW196368  10.187   4.831   8.987 -0.1810 -0.3924  0.6276
63170SOL    HW296369  10.055   4.872   9.047 -1.2763 -2.5490 -0.1959
63171SOL     OW96370   3.194   4.408   7.749 -0.5424 -0.0196 -0.1675
63171SOL    HW196371   3.232   4.435   7.665  1.1818  0.1346  0.6252
63171SOL    HW296372   3.124   4.470   7.765  0.9729  1.7734 -0.1545
63172SOL     OW96373   6.640   0.146   8.824  0.3025 -0.3071  0.3281
63172SOL    HW196374   6.657   0.224   8.770  0.2806 -2.2162 -2.7107
63172SOL    HW296375   6.712   0.086   8.803 -0.6116 -1.7643  1.1961
63173SOL     OW96376   7.436   3.128   0.129 -0.8518 -0.4198  0.5805
63173SOL    HW196377   7.487   3.200   0.166 -1.4559  0.6088 -0.5051
63173SOL    HW296378   7.488   3.050   0.147  1.0709  0.5624 -0.4002
63174SOL     OW96379   6.465   0.919   8.932  0.1277  0.0167 -0.0331
63174SOL    HW196380   6.391   0.910   8.993 -1.1799  1.9148 -1.2412
63174SOL    HW296381   6.501   1.005   8.952  1.4018 -0.4669 -0.1689
63175SOL     OW96382  11.273   6.983   6.158 -0.4611 -0.8996 -0.3943
63175SOL    HW196383  11.345   7.015   6.104  2.2222 -3.8086  1.1404
63175SOL    HW296384  11.206   6.955   6.095  0.0840  1.0099 -1.9093
63176SOL     OW96385   6.845   2.349  10.699 -0.1754  0.4776  0.3714
63176SOL    HW196386   6.816   2.393  10.619 -0.6405 -1.6208 -0.6877
63176SOL    HW296387   6.898   2.415  10.744 -1.7403  2.4662 -0.5290
63177SOL     OW96388   1.370   8.173   7.969 -0.4047  0.1786  0.3308
63177SOL    HW196389   1.401   8.086   7.942  1.7734 -0.0675  3.1654
63177SOL    HW296390   1.284   8.156   8.009 -0.4455 -0.5029 -0.0308
63178SOL     OW96391   7.044   9.883   1.199  0.2048 -0.3717  0.3429
63178SOL    HW196392   7.067   9.837   1.280  0.3994 -0.3059  0.3245
63178SOL    HW296393   6.962   9.842   1.171 -0.5501  0.4840  1.2650
63179SOL     OW96394   8.246   0.745  11.669  0.4949  0.0893  0.0815
63179SOL    HW196395   8.191   0.669  11.651 -0.0456  0.5879 -0.3972
63179SOL    HW296396   8.205   0.786  11.746 -0.8607  1.4322 -1.2932
63180SOL     OW96397   2.950   3.623  12.386  0.0870 -0.2799  0.3831
63180SOL    HW196398   2.998   3.540  12.381  0.4331 -0.0810  0.3723
63180SOL    HW296399   3.011   3.683  12.429  0.3921  0.3720 -0.9283
63181SOL     OW96400   7.225  10.816   5.363  0.4936  0.0210  0.4853
63181SOL    HW196401   7.205  10.755   5.293 -1.0519  0.4393  0.5460
63181SOL    HW296402   7.245  10.898   5.319  0.2886  0.0815  0.5064
63182SOL     OW96403   2.531   9.744   9.772  0.4386 -0.5173 -0.7210
63182SOL    HW196404   2.484   9.696   9.841 -0.1915  0.7768 -0.2045
63182SOL    HW296405   2.499   9.706   9.690  0.0542 -1.0528 -0.3329
63183SOL     OW96406   1.478   0.105  10.187  0.8950  0.0093 -0.0599
63183SOL    HW196407   1.469   0.059  10.103  0.1821  0.9224 -0.5042
63183SOL    HW296408   1.480   0.035  10.252 -0.5013 -0.6624 -0.6785
63184SOL     OW96409   0.547   1.467  10.492  0.2127 -0.2089 -0.0845
63184SOL    HW196410   0.613   1.484  10.425  0.2266 -1.1795 -0.3372
63184SOL    HW296411   0.524   1.553  10.525  0.9514  0.2108 -0.6237
63185SOL     OW96412   5.276   4.764   9.575 -0.1931 -1.1644  0.4129
63185SOL    HW196413   5.199   4.808   9.540  1.4357  2.0275  0.4961
63185SOL    HW296414   5.316   4.721   9.500 -0.2738  0.0241 -0.3292
63186SOL     OW96415   9.102  10.658   7.529  0.3602 -0.5008 -0.3736
63186SOL    HW196416   9.068  10.742   7.497 -2.4875 -1.0713  0.8944
63186SOL    HW296417   9.105  10.602   7.451  0.3271  0.1782 -0.8731
63187SOL     OW96418   7.881   0.137   5.751 -0.1509  0.0964  0.4787
63187SOL    HW196419   7.791   0.117   5.775  0.0657 -2.6434 -0.5812
63187SOL    HW296420   7.875   0.216   5.697 -1.7319  0.7486  1.5555
63188SOL     OW96421  10.269   1.325   7.032 -0.5405 -0.5883  0.4310
63188SOL    HW196422  10.304   1.257   6.974  0.6240  0.5380 -0.2374
63188SOL    HW296423  10.176   1.332   7.007  0.1022  0.4542 -1.9511
63189SOL     OW96424   7.691   4.988   1.893  0.3368 -0.3911  0.1372
63189SOL    HW196425   7.671   5.004   1.801 -2.0536 -1.9728  0.2960
63189SOL    HW296426   7.787   4.989   1.897  0.5377 -1.0017 -2.5052
63190SOL     OW96427   3.150  10.733   2.029 -0.0702 -0.4312 -0.0298
63190SOL    HW196428   3.068  10.711   2.074 -1.0343  1.4965 -0.7520
63190SOL    HW296429   3.141  10.695   1.942 -1.0384  1.2963 -0.7298
63191SOL     OW96430  11.059   6.811   1.656 -0.1186  0.1647 -0.1267
63191SOL    HW196431  11.131   6.809   1.719 -0.8765  1.7923  0.8672
63191SOL    HW296432  11.055   6.902   1.626 -2.4052  0.4176  0.7153
63192SOL     OW96433   0.673  11.055  11.954  0.2986 -0.2549  0.0992
63192SOL    HW196434   0.735  11.111  11.907 -1.7202  2.2529  0.1548
63192SOL    HW296435   0.717  10.971  11.961  3.8183  1.4164  0.4578
63193SOL     OW96436   6.494   4.955   8.750  0.1505  0.2685  0.4702
63193SOL    HW196437   6.478   4.921   8.662  0.4184  0.4524  0.3504
63193SOL    HW296438   6.425   4.915   8.803  1.0379 -1.2495  0.5320
63194SOL     OW96439   1.425  10.596   4.022 -0.3809  0.0211  0.8215
63194SOL    HW196440   1.461  10.685   4.028 -1.0358  0.3435  0.1381
63194SOL    HW296441   1.384  10.581   4.107 -2.8861  1.5501 -0.0316
63195SOL     OW96442   0.713  10.948   2.436  0.2654  0.3224 -0.0681
63195SOL    HW196443   0.712  11.004   2.358  2.3241  0.9701  0.3102
63195SOL    HW296444   0.680  10.864   2.406 -1.3663  1.2424 -1.0235
63196SOL     OW96445   4.007   6.598   0.731  0.0692  0.4892 -0.3730
63196SOL    HW196446   3.968   6.686   0.726  1.3159  1.1795  1.1574
63196SOL    HW296447   3.963   6.556   0.805 -0.0660  0.0567 -0.6958
63197SOL     OW96448   5.520  12.142   1.304  0.2926 -0.6499  0.0914
63197SOL    HW196449   5.492  12.197   1.231 -3.3774 -2.2121  0.0879
63197SOL    HW296450   5.597  12.186   1.340 -0.6072  2.7682 -1.7483
63198SOL     OW96451   3.155   4.289  12.117  0.1566  0.2067  0.3500
63198SOL    HW196452   3.116   4.375  12.131 -1.5214 -0.5635  0.6535
63198SOL    HW296453   3.177   4.258  12.205 -0.6961 -0.3025  0.3963
63199SOL     OW96454  10.482   8.303   4.042 -0.1421  0.3098 -0.5165
63199SOL    HW196455  10.491   8.214   4.076  1.2358  0.3581 -0.6944
63199SOL    HW296456  10.542   8.306   3.968  2.7164  2.4141  1.6472
63200SOL     OW96457  11.010  10.753   9.394  0.1930  0.2692 -0.1378
63200SOL    HW196458  11.027  10.846   9.411  1.8866 -0.3454  1.8127
63200SOL    HW296459  10.936  10.732   9.451 -1.0081  0.6440 -1.4819
63201SOL     OW96460   3.201   3.231   3.985  0.4325 -0.3169  0.1160
63201SOL    HW196461   3.122   3.179   3.999  0.2523  0.0131  0.3248
63201SOL    HW296462   3.272   3.168   3.993  0.2264 -0.5006  0.5656
63202SOL     OW96463   0.294   2.190   5.108 -0.3059  0.1140  1.1382
63202SOL    HW196464   0.225   2.178   5.042  0.5475  0.9174  0.0649
63202SOL    HW296465   0.251   2.169   5.191 -1.6021 -0.2545  0.4037
63203SOL     OW96466   3.221   8.594   0.745  0.1463  0.6520 -0.0984
63203SOL    HW196467   3.194   8.600   0.836  0.8336 -1.0789  0.2424
63203SOL    HW296468   3.228   8.500   0.727  0.2178  0.9568 -1.8737
63204SOL     OW96469   5.344   7.155   1.473 -0.5794  0.0490  0.3711
63204SOL    HW196470   5.323   7.131   1.563  0.6181  0.5003  0.7846
63204SOL    HW296471   5.439   7.148   1.467 -0.4434  1.8482 -0.3025
63205SOL     OW96472  12.386   9.645   3.325 -0.1419 -0.0164 -0.1448
63205SOL    HW196473  12.339   9.688   3.396 -0.8104 -0.1217 -0.5147
63205SOL    HW296474  12.390   9.553   3.352  0.9229  0.1875  0.4498
63206SOL     OW96475   0.329   5.770  11.998  0.1955 -0.0129  0.3821
63206SOL    HW196476   0.364   5.783  11.910 -0.4536 -1.4459 -0.1012
63206SOL    HW296477   0.310   5.859  12.029  1.0135  0.5523 -0.6667
63207SOL     OW96478   3.936   5.225   7.269 -0.1977 -0.4207 -0.1385
63207SOL    HW196479   3.874   5.266   7.210 -0.0985 -2.2205 -1.5779
63207SOL    HW296480   3.890   5.220   7.353 -0.6713  1.3320 -0.2489
63208SOL     OW96481   5.373   4.960   8.650  0.0038 -0.2380  0.5596
63208SOL    HW196482   5.335   5.046   8.633  1.2123  0.1227 -0.5500
63208SOL    HW296483   5.346   4.906   8.575  1.1142 -0.1412  0.0598
63209SOL     OW96484   5.844   1.476   1.369 -0.2280 -0.0604 -1.3282
63209SOL    HW196485   5.859   1.516   1.455 -1.2707  1.1007 -1.6450
63209SOL    HW296486   5.756   1.439   1.376  0.2800 -1.3292 -1.4228
63210SOL     OW96487   6.656   2.380   6.764  0.1069 -0.0954 -0.4223
63210SOL    HW196488   6.644   2.427   6.847  0.0244  0.2556 -0.6316
63210SOL    HW296489   6.689   2.294   6.790 -1.7876 -0.7203  0.1142
63211SOL     OW96490   9.131   4.108   1.464 -0.1102  0.0417 -0.4017
63211SOL    HW196491   9.134   4.013   1.472  1.5467  0.2315  2.6643
63211SOL    HW296492   9.051   4.134   1.509 -1.1117  0.1264 -2.1270
63212SOL     OW96493   9.419   2.541  11.685  0.3570  0.1428  0.0094
63212SOL    HW196494   9.370   2.459  11.676  0.9670 -0.6428  2.8870
63212SOL    HW296495   9.507   2.519  11.656  0.4733 -0.1878  0.5964
63213SOL     OW96496   4.652   7.199   6.440  0.6558  0.8868 -0.9656
63213SOL    HW196497   4.669   7.156   6.357  2.3030 -1.1154  0.3039
63213SOL    HW296498   4.728   7.179   6.494 -0.9219  0.9058  1.4637
63214SOL     OW96499  10.749   9.658  12.024  0.3259 -0.5535  0.1491
63214SOL    HW196500  10.682   9.662  12.092  1.8979  1.0331  1.7465
63214SOL    HW296501  10.759   9.565  12.005 -3.5294 -0.7795 -1.5327
63215SOL     OW96502   4.110   9.230   4.325  0.2062  0.0396 -0.1839
63215SOL    HW196503   4.168   9.240   4.400 -1.3444 -1.3864  1.2730
63215SOL    HW296504   4.031   9.278   4.349 -0.7872 -1.4609 -0.3368
63216SOL     OW96505   6.542   4.873   4.000  0.8545 -0.2525  0.3472
63216SOL    HW196506   6.624   4.921   3.998 -0.3320  1.9724  1.3382
63216SOL    HW296507   6.490   4.917   4.067 -1.9336 -0.2402 -1.6655
63217SOL     OW96508   6.695   3.071   5.406 -0.0978  0.2610 -0.0416
63217SOL    HW196509   6.780   3.031   5.425 -0.6077 -0.6211  0.4435
63217SOL    HW296510   6.636   2.997   5.393 -1.1259  0.8234  1.1721
63218SOL     OW96511   4.464   5.257   8.339 -0.0506 -0.1152 -0.0279
63218SOL    HW196512   4.454   5.212   8.255  1.8140 -2.0629  0.7087
63218SOL    HW296513   4.451   5.188   8.405 -1.7006  1.4058  1.3513
63219SOL     OW96514   3.804  10.989   2.409  0.5603  0.3852  0.4515
63219SOL    HW196515   3.765  10.955   2.490 -1.8146  0.3323 -0.6314
63219SOL    HW296516   3.837  11.076   2.433  0.9088 -0.0763  1.7203
63220SOL     OW96517   6.760   2.711  12.074  0.0990 -0.1071  0.2275
63220SOL    HW196518   6.739   2.789  12.125 -2.5349  0.4348 -1.4712
63220SOL    HW296519   6.804   2.745  11.996 -1.0519 -0.2970 -0.5182
63221SOL     OW96520   5.132   0.168   0.065 -0.3181 -0.0489 -0.7826
63221SOL    HW196521   5.134   0.135   0.155 -1.6218  1.3983 -0.1636
63221SOL    HW296522   5.125   0.263   0.075 -1.6839  0.0614 -2.3885
63222SOL     OW96523   8.126   7.390   2.223  0.2875 -0.2162 -0.4867
63222SOL    HW196524   8.089   7.431   2.302  0.8339  0.0177 -0.3489
63222SOL    HW296525   8.220   7.389   2.239  0.4169 -0.0006 -1.2186
63223SOL     OW96526   4.826  11.801   0.150 -0.7237  0.2141 -0.3531
63223SOL    HW196527   4.781  11.720   0.125  0.6396 -0.6546 -0.0859
63223SOL    HW296528   4.911  11.772   0.183 -0.0012  1.7887 -0.7328
63224SOL     OW96529   0.156   9.156   9.311  0.2732  0.0238 -0.2059
63224SOL    HW196530   0.066   9.128   9.300  0.0470  0.0207  1.4086
63224SOL    HW296531   0.191   9.099   9.379  1.5016  0.0323 -0.7857
63225SOL     OW96532   2.310  12.367   4.371 -0.3972  0.3980  0.1258
63225SOL    HW196533   2.268  12.451   4.388 -2.4476 -0.3195 -1.1243
63225SOL    HW296534   2.347  12.375   4.283  0.6924  0.4464  0.5654
63226SOL     OW96535  12.517   3.121  11.096 -0.7467 -0.3599 -0.0925
63226SOL    HW196536  12.565   3.156  11.022 -0.1968 -0.5240  0.1807
63226SOL    HW296537  12.447   3.068  11.057 -1.7638  1.2018 -0.5285
63227SOL     OW96538   8.367   2.663   0.006 -0.5862  0.0901 -0.1308
63227SOL    HW196539   8.331   2.619  -0.071 -3.0758  0.7145  0.6006
63227SOL    HW296540   8.430   2.725  -0.029  0.3864 -1.5375 -1.4282
63228SOL     OW96541   9.822   1.252   6.565 -0.3979 -0.4176 -0.5339
63228SOL    HW196542   9.883   1.325   6.569 -0.8188 -0.0934  0.1235
63228SOL    HW296543   9.867   1.186   6.512  0.2641  0.0471 -0.5623
63229SOL     OW96544  11.737  11.096   2.045 -0.5495 -0.3990  0.2015
63229SOL    HW196545  11.797  11.093   1.971  0.9157 -1.4061  1.3589
63229SOL    HW296546  11.750  11.183   2.083 -0.5067 -0.2770 -0.0940
63230SOL     OW96547   3.840   5.143   5.627 -0.3748 -0.6213 -0.2158
63230SOL    HW196548   3.913   5.091   5.594  1.0004  1.1446 -0.1257
63230SOL    HW296549   3.841   5.128   5.721  0.3629 -0.0524 -0.1214
63231SOL     OW96550  12.308  10.485   7.934 -0.2590  0.0937  0.2019
63231SOL    HW196551  12.395  10.509   7.900 -1.4866  1.8562 -1.9238
63231SOL    HW296552  12.249  10.550   7.897 -2.5032 -0.9352  1.7693
63232SOL     OW96553   5.211   2.123   2.162 -0.1717  0.0648 -0.3710
63232SOL    HW196554   5.300   2.115   2.127  0.9000  1.4721  1.7715
63232SOL    HW296555   5.171   2.038   2.146  2.3536 -1.3967  0.5431
63233SOL     OW96556  11.135   0.341  11.624 -0.1972  0.3777  0.4713
63233SOL    HW196557  11.169   0.284  11.555  2.1404  0.6469  1.3076
63233SOL    HW296558  11.174   0.426  11.607  0.4241  0.4480  2.0836
63234SOL     OW96559   3.930   1.560  11.375  0.1931  0.4712  0.2649
63234SOL    HW196560   4.022   1.545  11.396  0.5270  0.7317 -0.9508
63234SOL    HW296561   3.885   1.482  11.406  0.9130  0.0781  0.3316
63235SOL     OW96562  11.577   8.663   6.512  0.1545 -0.2091 -0.1846
63235SOL    HW196563  11.585   8.621   6.427  0.7162  1.1171 -0.8244
63235SOL    HW296564  11.655   8.719   6.518 -0.1476  0.1162  0.9722
63236SOL     OW96565   3.422   4.230  12.503 -0.0229 -0.1251 -0.1963
63236SOL    HW196566   3.347   4.182  12.468  1.0354 -0.7006 -1.7996
63236SOL    HW296567   3.494   4.167  12.499  0.4887  0.2708  1.7213
63237SOL     OW96568   1.537   5.807   1.925  0.0441  0.5116  0.0081
63237SOL    HW196569   1.470   5.837   1.987  0.6132 -0.7010  1.2646
63237SOL    HW296570   1.491   5.798   1.842 -0.4846  3.3238 -0.1138
63238SOL     OW96571   8.725   1.350  11.976  0.0846  0.0747  0.0400
63238SOL    HW196572   8.793   1.313  11.919 -0.3312  1.4679 -1.4275
63238SOL    HW296573   8.644   1.339  11.927 -0.5558 -0.2209  1.1307
63239SOL     OW96574   9.592   8.646   6.539  0.0408 -0.0494  0.4212
63239SOL    HW196575   9.555   8.663   6.453  1.0716  2.2678  0.3627
63239SOL    HW296576   9.540   8.700   6.599  0.6089 -0.0875  0.9649
63240SOL     OW96577   0.460   8.381  10.997  0.2907  0.2697 -0.0138
63240SOL    HW196578   0.439   8.416  10.911  0.2112  0.8329  0.2273
63240SOL    HW296579   0.458   8.458  11.055  1.9616  0.1817  0.2033
63241SOL     OW96580   0.245   7.740   8.760 -0.2429  0.1783 -0.1135
63241SOL    HW196581   0.287   7.685   8.693 -1.2418  0.1503 -0.7414
63241SOL    HW296582   0.242   7.827   8.721 -0.0270  0.3590  0.2664
63242SOL     OW96583   1.754   2.952   6.429  0.2657  0.0956 -0.4126
63242SOL    HW196584   1.741   2.968   6.335 -1.6696 -0.6755 -0.3266
63242SOL    HW296585   1.695   2.880   6.449  0.9954 -0.0652  1.3310
63243SOL     OW96586   8.532   7.098   5.964  0.4144  0.5705  0.4305
63243SOL    HW196587   8.438   7.084   5.961  0.3157  1.1832  0.6015
63243SOL    HW296588   8.559   7.104   5.873  0.1976  0.9751  0.3929
63244SOL     OW96589   1.005   8.211   3.976  0.1567  0.2565  0.6435
63244SOL    HW196590   1.088   8.173   4.006  0.8636  1.7457  0.6468
63244SOL    HW296591   0.986   8.280   4.039  1.0921  2.6880 -1.5579
63245SOL     OW96592   1.130   6.340   9.147  0.5109 -0.3579 -0.2919
63245SOL    HW196593   1.169   6.253   9.141  0.6394 -0.2618 -0.8616
63245SOL    HW296594   1.073   6.347   9.071 -1.7847 -1.0429  1.2595
63246SOL     OW96595   2.147   6.760  11.259  0.1192 -0.4627 -0.1778
63246SOL    HW196596   2.239   6.741  11.242  0.5344  1.3253 -0.1102
63246SOL    HW296597   2.148   6.823  11.331 -1.2242 -1.2314  0.5461
63247SOL     OW96598  10.176   3.152   2.457  0.2365  0.0398 -0.4459
63247SOL    HW196599  10.269   3.129   2.460  0.1433 -0.3972 -0.7507
63247SOL    HW296600  10.150   3.132   2.367 -0.8345 -2.6141  0.3552
63248SOL     OW96601   1.908   3.406   4.604  0.1562  0.1340 -0.5981
63248SOL    HW196602   1.850   3.435   4.534 -0.6500  0.4133  0.1609
63248SOL    HW296603   1.994   3.398   4.563  0.0188  1.7773 -1.2799
63249SOL     OW96604  11.947   6.629   5.494 -0.3922  0.9716  0.3068
63249SOL    HW196605  12.030   6.600   5.533 -1.5736 -2.4322  0.6304
63249SOL    HW296606  11.882   6.613   5.562 -1.8388 -0.6311 -1.3380
63250SOL     OW96607   0.069   6.750  11.806  0.0415 -0.1807  0.2962
63250SOL    HW196608   0.079   6.724  11.898  0.0883  1.8116  0.8999
63250SOL    HW296609   0.111   6.836  11.801 -1.2794  0.4199 -1.2433
63251SOL     OW96610   8.308  11.789   9.665 -0.2113  0.7216  0.0414
63251SOL    HW196611   8.398  11.792   9.635 -0.6001  0.2450 -1.2005
63251SOL    HW296612   8.269  11.871   9.633  0.3626  2.1725  2.6719
63252SOL     OW96613  10.683   4.227   3.588  0.2442  0.1260  0.2751
63252SOL    HW196614  10.611   4.166   3.571 -0.9600  1.1876  1.3217
63252SOL    HW296615  10.756   4.194   3.536 -0.4471 -2.0491  0.6049
63253SOL     OW96616   9.817   8.316   9.025  0.1632  0.0152  0.4546
63253SOL    HW196617   9.900   8.309   8.978  0.7236 -0.1911  1.4302
63253SOL    HW296618   9.833   8.386   9.089 -0.0241 -0.7986  1.3997
63254SOL     OW96619   0.745   9.962  11.127 -0.0093 -0.3685  0.5432
63254SOL    HW196620   0.815   9.994  11.184 -0.8493  1.5241  0.6083
63254SOL    HW296621   0.789   9.937  11.046  0.7128  1.4369  0.3332
63255SOL     OW96622   3.671   8.935   3.227  0.2099 -0.0535  0.0923
63255SOL    HW196623   3.727   8.979   3.292  1.1251  2.8787 -2.4294
63255SOL    HW296624   3.728   8.872   3.184  1.3409  1.9867 -1.5608
63256SOL     OW96625   8.246   9.615   1.410 -0.4319  0.0972 -0.0119
63256SOL    HW196626   8.242   9.640   1.318 -0.9912 -0.4488 -0.1416
63256SOL    HW296627   8.155   9.611   1.438 -0.2433  1.2476  0.8481
63257SOL     OW96628   7.559  12.113   7.119  0.1094 -0.6923  0.3067
63257SOL    HW196629   7.532  12.065   7.040 -0.1265 -0.6272  0.3480
63257SOL    HW296630   7.653  12.096   7.125  0.0306 -1.1566  0.3221
63258SOL     OW96631   5.125   0.376   2.425 -0.6626  0.2258 -0.3487
63258SOL    HW196632   5.058   0.328   2.377  0.8851 -0.9702 -1.4220
63258SOL    HW296633   5.106   0.357   2.517 -0.8363 -1.4760 -0.7016
63259SOL     OW96634   6.542   8.844   4.788 -0.2205  0.3367 -0.3224
63259SOL    HW196635   6.499   8.793   4.857 -1.2960  0.2389 -1.0373
63259SOL    HW296636   6.552   8.932   4.826  1.8435 -0.3929  1.0001
63260SOL     OW96637   8.324   8.932  10.350  0.1647 -0.1788  0.3404
63260SOL    HW196638   8.392   8.998  10.338 -1.3325  1.0272 -2.6832
63260SOL    HW296639   8.352   8.859  10.295 -0.4053 -0.1486  0.0030
63261SOL     OW96640   6.771   7.186   6.962 -0.6246  0.5383 -0.1607
63261SOL    HW196641   6.711   7.247   6.920  0.4501  1.3458 -0.5665
63261SOL    HW296642   6.840   7.241   6.997 -0.8119 -0.2496  1.5202
63262SOL     OW96643   5.034   0.890   3.318 -0.3529 -0.2030  0.6258
63262SOL    HW196644   5.102   0.823   3.320  1.4885  1.5791  1.0996
63262SOL    HW296645   4.987   0.874   3.236 -0.0409 -2.0648  0.7505
63263SOL     OW96646   5.798   0.432   4.409  0.1322 -0.1808 -0.0300
63263SOL    HW196647   5.703   0.435   4.396  0.1865 -1.6519 -1.0152
63263SOL    HW296648   5.810   0.393   4.495 -0.1657 -1.1541 -0.4176
63264SOL     OW96649   5.463  11.855  11.836  0.2135  0.1010 -0.0418
63264SOL    HW196650   5.530  11.889  11.778  0.0680 -0.5008 -0.5822
63264SOL    HW296651   5.506  11.784  11.883  0.3011  0.5193  0.5145
63265SOL     OW96652  10.617   2.086   5.696  0.1882  0.1696  0.7333
63265SOL    HW196653  10.691   2.062   5.640 -0.6969 -1.3359  0.1419
63265SOL    HW296654  10.631   2.036   5.776 -1.3500 -2.0452 -0.2750
63266SOL     OW96655  11.921   2.766   0.277  0.2077 -0.2032  0.2110
63266SOL    HW196656  11.952   2.705   0.210  1.2882  0.1363  0.3844
63266SOL    HW296657  11.977   2.748   0.353  0.6398  1.0839  0.2199
63267SOL     OW96658   1.847   5.849   7.916 -0.4886  0.3197 -0.2877
63267SOL    HW196659   1.853   5.922   7.855  0.9479  0.6684  0.2492
63267SOL    HW296660   1.800   5.884   7.991  0.5959  0.8350  0.1590
63268SOL     OW96661   2.389   1.830   4.522  0.0370  0.3920 -0.9122
63268SOL    HW196662   2.430   1.792   4.600  0.9870  0.5236 -1.3321
63268SOL    HW296663   2.322   1.889   4.557 -0.0882 -0.1413 -0.2162
63269SOL     OW96664   9.040   4.814   8.677 -0.2753  0.1927  0.0701
63269SOL    HW196665   9.062   4.740   8.733 -1.1844 -0.0189  0.1608
63269SOL    HW296666   8.994   4.775   8.602 -0.2784  0.6102 -0.1501
63270SOL     OW96667   7.276   4.234   7.650 -0.6247 -0.4036 -0.2046
63270SOL    HW196668   7.346   4.170   7.633 -0.4158 -0.2218 -0.0257
63270SOL    HW296669   7.271   4.285   7.569 -2.3827 -2.1315 -1.2850
63271SOL     OW96670   8.104   1.214  11.904  0.0148 -0.5268 -0.6283
63271SOL    HW196671   8.032   1.278  11.902  0.1646 -0.3807 -1.6416
63271SOL    HW296672   8.133   1.214  11.996 -0.1100  0.7209 -0.5717
63272SOL     OW96673   5.728  10.194   5.945  0.1663  0.5881 -0.2232
63272SOL    HW196674   5.664  10.184   5.875  1.4646  1.5679 -1.5936
63272SOL    HW296675   5.696  10.269   5.995 -1.4260 -0.8427  1.0594
63273SOL     OW96676  12.539   7.555  11.269  0.4091 -0.8315  0.4610
63273SOL    HW196677  12.624   7.598  11.259  0.6531 -1.0650  1.3642
63273SOL    HW296678  12.491   7.576  11.189  1.5846 -1.3254 -0.3980
63274SOL     OW96679   6.953   1.158   4.588 -0.2778  0.0561  0.3716
63274SOL    HW196680   6.967   1.074   4.630 -0.1201  0.2634  0.7362
63274SOL    HW296681   7.016   1.161   4.517 -1.9204 -1.1906 -1.2346
63275SOL     OW96682   8.867   5.411   8.817 -0.2203 -0.2825  1.0989
63275SOL    HW196683   8.897   5.495   8.781 -1.9445  0.1970  0.6800
63275SOL    HW296684   8.807   5.435   8.887 -1.2122 -1.1492  0.5665
63276SOL     OW96685   3.250   5.138  12.422  0.2262 -0.2276 -0.0815
63276SOL    HW196686   3.247   5.176  12.510  1.6223 -0.1949 -0.0276
63276SOL    HW296687   3.256   5.044  12.437 -1.3169 -0.3717 -0.1918
63277SOL     OW96688   1.129   2.386   5.362  0.4221 -0.1309  0.6667
63277SOL    HW196689   1.050   2.382   5.308  1.1956  0.3212 -0.5353
63277SOL    HW296690   1.129   2.474   5.399 -0.2983 -0.5608  1.7297
63278SOL     OW96691   7.836   7.330   4.509 -0.0947 -0.1972 -0.3224
63278SOL    HW196692   7.904   7.263   4.523  1.5522  1.6092  0.7366
63278SOL    HW296693   7.843   7.388   4.585 -0.6490  1.8662 -1.7714
63279SOL     OW96694   1.908   5.247   6.384 -0.5357  0.5094 -0.1361
63279SOL    HW196695   1.920   5.340   6.402  0.6617  0.0000  1.9976
63279SOL    HW296696   1.915   5.240   6.289  1.5097  2.3348 -0.1970
63280SOL     OW96697   4.964  11.022   2.862 -0.5127 -0.0432  0.6728
63280SOL    HW196698   4.888  11.011   2.805 -0.1731 -0.7103  0.3453
63280SOL    HW296699   5.039  11.022   2.803 -0.2681  0.8971  0.9669
63281SOL     OW96700   5.054   3.757   7.060  0.4581 -0.3774 -0.0976
63281SOL    HW196701   5.069   3.782   6.969 -0.9886 -1.8627 -0.7930
63281SOL    HW296702   5.111   3.815   7.111  0.7076  1.0156 -1.8815
63282SOL     OW96703   4.932   6.647   6.979  0.1067 -0.5205  0.1860
63282SOL    HW196704   4.976   6.589   6.917 -0.0292 -0.8111  0.3608
63282SOL    HW296705   4.987   6.725   6.982 -0.6320  0.1162 -1.4116
63283SOL     OW96706   5.038   6.815   1.946  0.0401 -0.5516  0.3012
63283SOL    HW196707   4.951   6.851   1.963 -0.0701 -1.2671  1.3347
63283SOL    HW296708   5.024   6.721   1.937  0.4691 -0.4886 -1.3405
63284SOL     OW96709   2.014   7.795   4.606 -0.6881 -0.4964 -0.3060
63284SOL    HW196710   1.928   7.780   4.566 -0.9895 -0.2711  0.2434
63284SOL    HW296711   2.022   7.891   4.610  0.9262 -0.3987 -3.1715
63285SOL     OW96712   8.112   7.119   3.258  0.4803  0.1159 -0.0432
63285SOL    HW196713   8.112   7.144   3.350  0.9572 -1.5316  0.4453
63285SOL    HW296714   8.024   7.137   3.227  0.3694  0.8535  0.6840
63286SOL     OW96715   0.090   2.215  11.141 -0.1401  0.0474 -0.7035
63286SOL    HW196716   0.117   2.201  11.231 -2.0049 -0.4738 -0.1744
63286SOL    HW296717   0.088   2.310  11.130 -0.4264  0.1252 -0.0070
63287SOL     OW96718   7.268   3.378   0.005  0.0049  0.7084 -0.0518
63287SOL    HW196719   7.244   3.430  -0.072  0.3303  0.6254 -0.2107
63287SOL    HW296720   7.242   3.289  -0.018 -2.5136  1.0735  1.0354
63288SOL     OW96721   4.818   3.943  11.055 -0.1501 -0.1712 -0.0572
63288SOL    HW196722   4.747   3.895  11.012  1.5107 -0.4675 -2.7007
63288SOL    HW296723   4.815   4.030  11.015  0.0368  0.3134  0.9642
63289SOL     OW96724   5.513  10.496  11.985 -0.1758  0.3117 -0.0365
63289SOL    HW196725   5.536  10.495  12.078 -0.9321  0.2310  0.1556
63289SOL    HW296726   5.589  10.536  11.942  0.6439 -0.6265  0.4860
63290SOL     OW96727   0.252   3.603   9.031 -0.4749 -0.4691 -0.0444
63290SOL    HW196728   0.344   3.575   9.028 -0.7802 -1.5414  0.2023
63290SOL    HW296729   0.220   3.587   8.942 -0.7964 -1.4639  0.2370
63291SOL     OW96730  10.497   0.966  10.279  0.4816 -0.2553 -0.1537
63291SOL    HW196731  10.571   0.917  10.246  0.4509 -0.6676  0.3689
63291SOL    HW296732  10.466   1.018  10.204  0.8957 -0.5644 -0.5399
63292SOL     OW96733   6.475   9.931   9.356 -0.1076  0.0376 -0.5719
63292SOL    HW196734   6.532   9.924   9.433 -0.5387  1.2321 -0.1251
63292SOL    HW296735   6.531   9.903   9.283  0.9099  0.7073 -0.0754
63293SOL     OW96736  11.265  11.121   2.573  0.0921  0.3506 -0.4044
63293SOL    HW196737  11.318  11.154   2.645 -0.1265  0.8232 -0.4609
63293SOL    HW296738  11.193  11.074   2.615  0.5054 -0.2353 -0.3266
63294SOL     OW96739   6.469   7.306  12.156 -0.2587 -0.0049 -0.0404
63294SOL    HW196740   6.547   7.355  12.130  0.0191 -0.4323 -0.0228
63294SOL    HW296741   6.396   7.356  12.119 -0.0853  1.2061  1.1879
63295SOL     OW96742   1.649  11.077  12.557  0.0827 -0.0660 -0.1375
63295SOL    HW196743   1.579  11.073  12.493  0.2912  0.9904 -0.4456
63295SOL    HW296744   1.613  11.128  12.630  1.0245  1.9847 -1.0058
63296SOL     OW96745  10.714   1.777   1.725  0.0951  0.3723  0.2897
63296SOL    HW196746  10.805   1.746   1.734  0.2434  0.5569 -0.5428
63296SOL    HW296747  10.675   1.760   1.811  1.6167  2.5830  1.5167
63297SOL     OW96748   2.378   2.396   1.669 -0.1750  0.2935 -0.0038
63297SOL    HW196749   2.390   2.404   1.574 -0.6233  0.4568 -0.0503
63297SOL    HW296750   2.301   2.450   1.688 -0.2498  0.0466  0.4111
63298SOL     OW96751   6.775   7.762   5.062 -0.0437  0.0391  0.3557
63298SOL    HW196752   6.819   7.843   5.089  1.1333 -0.6975  0.7118
63298SOL    HW296753   6.812   7.694   5.119 -0.2329 -0.9301 -0.6403
63299SOL     OW96754   8.172   0.069   2.387 -0.0853  0.2531  0.4667
63299SOL    HW196755   8.200  -0.021   2.402 -0.3380  0.4495  2.3167
63299SOL    HW296756   8.250   0.113   2.354  0.3366 -0.3945  0.5772
63300SOL     OW96757   1.222   9.759  11.977  0.2038 -0.2204 -0.0485
63300SOL    HW196758   1.304   9.801  12.003  0.4963 -0.2998 -0.8099
63300SOL    HW296759   1.176   9.744  12.059  1.1806 -0.6635  0.4349
63301SOL     OW96760  10.654   1.928   5.244  0.1804 -0.6873 -0.2457
63301SOL    HW196761  10.590   1.857   5.239 -0.6096  0.0761 -1.6447
63301SOL    HW296762  10.602   2.003   5.274  0.7610 -0.4306  0.1225
63302SOL     OW96763   1.290   1.443   5.263  0.5578 -0.1146  0.5349
63302SOL    HW196764   1.270   1.374   5.200  1.1753  1.1675 -1.1064
63302SOL    HW296765   1.204   1.471   5.296  0.0692  0.5751 -1.2525
63303SOL     OW96766  10.351   1.378   0.509  0.6365 -0.4150 -0.5293
63303SOL    HW196767  10.311   1.353   0.426  0.2039 -1.5206 -0.0099
63303SOL    HW296768  10.350   1.474   0.508 -1.5915 -0.3891 -0.7582
63304SOL     OW96769  11.507  10.828   9.659 -0.2272  0.0656  0.4081
63304SOL    HW196770  11.471  10.890   9.722 -1.1007  1.2348 -1.1854
63304SOL    HW296771  11.537  10.754   9.713 -0.0028  1.4415  2.2611
63305SOL     OW96772   9.805   6.758   8.772 -0.0282 -0.3838  0.3552
63305SOL    HW196773   9.814   6.713   8.856 -0.1407 -0.5391  0.2831
63305SOL    HW296774   9.878   6.821   8.771 -0.8576  0.6290  1.1893
63306SOL     OW96775   7.809   7.291   6.339 -0.2663  0.1933 -0.5724
63306SOL    HW196776   7.718   7.320   6.334 -0.1892  0.6664  0.4995
63306SOL    HW296777   7.807   7.199   6.314 -0.8079  0.5887 -2.0500
63307SOL     OW96778  11.900   1.399   0.644 -0.0327 -0.5093 -0.2028
63307SOL    HW196779  11.899   1.385   0.549 -2.5748 -2.0086 -0.0498
63307SOL    HW296780  11.993   1.407   0.666  0.6387 -0.3152 -2.7709
63308SOL     OW96781   8.177   1.584  11.837 -0.3954 -0.5964  0.2477
63308SOL    HW196782   8.092   1.620  11.861  0.1288  1.7629 -1.0984
63308SOL    HW296783   8.237   1.659  11.842  1.3315 -1.8730 -0.2104
63309SOL     OW96784   4.842   2.876   1.288  0.3651 -0.4473  0.7381
63309SOL    HW196785   4.897   2.886   1.210  0.8566  0.0694  1.1442
63309SOL    HW296786   4.842   2.963   1.329  0.4151 -0.8080  1.5182
63310SOL     OW96787   5.983   5.104   8.568 -0.3526 -0.1730  0.3245
63310SOL    HW196788   5.971   5.158   8.489 -0.5296 -1.6502 -0.6965
63310SOL    HW296789   6.078   5.091   8.574 -0.3478 -0.1476  0.3085
63311SOL     OW96790   5.509  11.496   9.330 -0.2329  0.2547  0.0251
63311SOL    HW196791   5.602  11.484   9.350  0.2812  0.6698 -1.8286
63311SOL    HW296792   5.463  11.467   9.408  1.4446 -0.3120  0.8532
63312SOL     OW96793   3.876   5.520   1.830 -0.9278 -0.1183  0.1237
63312SOL    HW196794   3.871   5.612   1.807  0.4111 -0.4811 -1.8807
63312SOL    HW296795   3.932   5.517   1.908 -1.2240  0.7655  0.3733
63313SOL     OW96796   3.618   6.874   8.009 -0.2677  0.0988 -0.3805
63313SOL    HW196797   3.613   6.817   7.931  1.2717  0.1561 -0.5521
63313SOL    HW296798   3.689   6.837   8.060 -1.3344  0.0034  1.0883
63314SOL     OW96799   2.882   1.151   4.822  0.4279  0.7616 -0.1752
63314SOL    HW196800   2.833   1.132   4.742 -0.3322  0.9714  0.2229
63314SOL    HW296801   2.814   1.163   4.889  1.0607  0.3257  0.5574
63315SOL     OW96802  10.914  11.975   1.517  0.3444  0.0881 -0.5771
63315SOL    HW196803  11.003  12.003   1.495 -0.2513  1.8719 -0.8569
63315SOL    HW296804  10.903  12.002   1.608 -0.0183  0.1284 -0.6352
63316SOL     OW96805   8.462   8.080   4.407 -0.2450 -0.2334  0.1304
63316SOL    HW196806   8.545   8.051   4.370 -0.7927 -1.0130 -0.5647
63316SOL    HW296807   8.443   8.162   4.362  0.6315  0.4788  1.0444
63317SOL     OW96808   4.086   6.434   2.851 -0.1749  0.1721  0.2943
63317SOL    HW196809   4.005   6.457   2.806  0.1293 -2.6936 -2.0854
63317SOL    HW296810   4.058   6.399   2.935 -1.3193  0.3774  0.0200
63318SOL     OW96811  12.227   8.490   1.231  0.1144 -0.3686  0.4841
63318SOL    HW196812  12.218   8.558   1.298  0.1076 -0.3832  0.4981
63318SOL    HW296813  12.151   8.434   1.243  0.3585 -0.6446  0.7809
63319SOL     OW96814   4.815   4.059   9.429 -0.4240  0.2276 -0.0362
63319SOL    HW196815   4.780   4.138   9.389  1.0038  0.0908 -1.7334
63319SOL    HW296816   4.902   4.085   9.461 -1.1487  0.0710  2.1731
63320SOL     OW96817   8.571   2.017   3.634  0.0523 -0.3228  0.0960
63320SOL    HW196818   8.664   2.039   3.630  0.1663 -0.9409 -0.7346
63320SOL    HW296819   8.545   2.003   3.544 -0.2112 -2.7466  0.4951
63321SOL     OW96820   0.926  11.575   0.378 -0.3195 -0.0809  0.0171
63321SOL    HW196821   0.924  11.576   0.282  1.7654 -0.9312 -0.1039
63321SOL    HW296822   0.834  11.575   0.405 -0.9529 -0.6285 -1.9973
63322SOL     OW96823   1.164   6.786   5.057 -0.0859  0.2650 -0.1326
63322SOL    HW196824   1.175   6.839   5.136 -0.4302 -0.4978  0.4438
63322SOL    HW296825   1.249   6.790   5.014  0.3346  0.1199  0.6545
63323SOL     OW96826  12.148  10.664   9.044  0.1671 -0.0139 -0.6687
63323SOL    HW196827  12.101  10.593   9.000  2.1892 -1.0596 -1.2536
63323SOL    HW296828  12.132  10.741   8.989 -0.4297 -0.4400 -1.1111
63324SOL     OW96829  10.270   1.988   3.152 -0.2696  0.2877 -0.2994
63324SOL    HW196830  10.348   1.979   3.097 -1.5811 -1.2721 -2.0170
63324SOL    HW296831  10.277   1.916   3.215 -0.2001  0.3329 -0.2540
63325SOL     OW96832   9.494   2.093  10.285  0.0310  0.3374  0.3211
63325SOL    HW196833   9.409   2.052  10.269 -0.2995  1.0057  0.3457
63325SOL    HW296834   9.533   2.041  10.356  1.5773 -2.7488 -2.5100
63326SOL     OW96835   7.788   0.618   8.512  0.4735  0.0006 -0.2540
63326SOL    HW196836   7.853   0.666   8.462  1.0839  0.5627  1.0193
63326SOL    HW296837   7.706   0.632   8.466  1.3801 -1.7349 -2.6098
63327SOL     OW96838   5.336   5.269   9.647 -0.0243 -0.2807  0.3966
63327SOL    HW196839   5.298   5.183   9.666  0.3373 -0.4830  0.2037
63327SOL    HW296840   5.375   5.297   9.730 -0.0113 -0.3674  0.4193
63328SOL     OW96841   6.624  11.452   2.214  0.1537 -0.0015  0.6524
63328SOL    HW196842   6.713  11.487   2.216  0.1487  0.0396  0.2619
63328SOL    HW296843   6.624  11.381   2.278  0.7155 -0.5917  0.0081
63329SOL     OW96844   0.102   7.164   0.408 -0.3025  0.0203 -0.0642
63329SOL    HW196845   0.184   7.170   0.458  0.5830  0.6897 -1.5323
63329SOL    HW296846   0.114   7.088   0.351 -0.3849  0.5602 -0.8157
63330SOL     OW96847   1.972   8.345   4.058  0.0240 -0.2405 -0.6506
63330SOL    HW196848   2.055   8.297   4.061 -0.7550 -1.6790 -0.8668
63330SOL    HW296849   1.963   8.381   4.146 -0.7440 -3.0567  0.5428
63331SOL     OW96850   5.502   9.132   2.037 -0.0636  0.1340  0.3340
63331SOL    HW196851   5.443   9.079   1.984  0.4581 -0.6748  0.5405
63331SOL    HW296852   5.446   9.201   2.074 -0.7345 -0.2115 -0.0228
63332SOL     OW96853   6.083   5.645  11.231  0.4376  0.7195  0.2871
63332SOL    HW196854   6.074   5.624  11.324  0.0559 -2.8395 -0.4215
63332SOL    HW296855   6.177   5.656  11.219  0.5598  0.4960  0.9678
63333SOL     OW96856   4.864  12.071   7.502 -0.0591 -0.3589 -0.2034
63333SOL    HW196857   4.808  12.088   7.427 -0.0942 -0.9346 -0.3145
63333SOL    HW296858   4.918  12.150   7.510  0.3183 -0.5005 -1.1611
63334SOL     OW96859   8.303   8.800   9.867 -0.5417  0.1414 -0.3412
63334SOL    HW196860   8.309   8.712   9.903 -0.3495  0.5191  0.5685
63334SOL    HW296861   8.356   8.854   9.926 -0.4633  0.8248 -1.0232
63335SOL     OW96862   2.068   7.923  11.881 -0.6257  0.0884 -0.8129
63335SOL    HW196863   2.122   7.861  11.831 -0.1568 -0.2802  0.1230
63335SOL    HW296864   1.981   7.916  11.843 -0.2554 -0.0990 -1.6471
63336SOL     OW96865   4.296   5.511   0.712 -0.5308 -0.0406  0.3975
63336SOL    HW196866   4.362   5.456   0.754 -1.8466 -0.9337  1.4162
63336SOL    HW296867   4.270   5.573   0.781 -0.8913  0.1734  0.0734
63337SOL     OW96868   1.390   2.901   5.501 -0.2968 -0.1492 -0.3506
63337SOL    HW196869   1.373   2.965   5.432  1.4700 -0.6731 -1.3633
63337SOL    HW296870   1.478   2.922   5.531 -1.4249  0.7694  2.6356
63338SOL     OW96871  11.830   0.664   2.403  0.5536  0.0678 -0.0545
63338SOL    HW196872  11.842   0.609   2.325  2.2236  0.3900 -0.0552
63338SOL    HW296873  11.758   0.722   2.380 -0.0191 -0.8733 -0.7506
63339SOL     OW96874  10.125   0.545  11.607  0.2551 -0.0852  0.3991
63339SOL    HW196875  10.030   0.540  11.595  0.2098  2.2410 -0.6854
63339SOL    HW296876  10.150   0.630  11.571  2.6071 -0.1100  1.7343
63340SOL     OW96877  12.372   4.247   0.416 -0.0115  0.3057 -0.3612
63340SOL    HW196878  12.462   4.217   0.429  0.7930  2.5110 -0.2650
63340SOL    HW296879  12.375   4.293   0.332 -1.0683  0.3598 -0.3741
63341SOL     OW96880   1.774   6.666   0.402  0.0610  0.0750  0.0335
63341SOL    HW196881   1.720   6.596   0.365  1.4832 -1.0378 -0.0195
63341SOL    HW296882   1.754   6.665   0.496 -0.2085 -0.1416 -0.0260
63342SOL     OW96883   2.321   5.788   6.339 -0.2194 -0.8850 -0.2922
63342SOL    HW196884   2.233   5.771   6.307 -0.6937  1.6997 -0.5684
63342SOL    HW296885   2.308   5.824   6.427  0.7028 -2.0475  0.3577
63343SOL     OW96886  11.271   2.670   3.993 -0.0375 -0.4099  0.4232
63343SOL    HW196887  11.365   2.651   3.996  0.1270  0.1590 -0.5530
63343SOL    HW296888  11.264   2.746   3.935 -1.3080 -1.9140 -1.5201
63344SOL     OW96889   5.471   7.981  11.302 -0.8748 -0.4034  0.2891
63344SOL    HW196890   5.445   8.011  11.214  0.9159 -0.1979 -0.2148
63344SOL    HW296891   5.563   8.008  11.310 -0.6385 -1.5368  1.7441
63345SOL     OW96892   0.369   0.221   2.499 -0.1755 -0.1853 -0.2720
63345SOL    HW196893   0.381   0.298   2.443 -1.3182  0.6221  0.5491
63345SOL    HW296894   0.424   0.239   2.576  1.2921 -1.2322 -1.0403
63346SOL     OW96895   7.442   8.545  11.269 -0.0409 -0.5550  0.5796
63346SOL    HW196896   7.406   8.481  11.330 -0.7089 -1.2834 -0.5503
63346SOL    HW296897   7.445   8.627  11.319  0.0182 -1.2643  1.7710
63347SOL     OW96898   2.429  12.433   7.820 -0.4348 -0.0724  0.4692
63347SOL    HW196899   2.376  12.398   7.892 -1.3646 -0.6712 -0.4732
63347SOL    HW296900   2.457  12.356   7.771  0.1797  0.3265  0.1844
63348SOL     OW96901   3.432   0.278   8.422  0.0016  0.4841 -0.8425
63348SOL    HW196902   3.455   0.360   8.465 -0.0864 -1.0986  2.6303
63348SOL    HW296903   3.337   0.282   8.412  0.0166  0.8971 -0.8145
63349SOL     OW96904   4.184   8.648   5.585 -0.2593  0.0107  0.1097
63349SOL    HW196905   4.165   8.630   5.677 -0.7017  2.3576  0.5480
63349SOL    HW296906   4.255   8.588   5.563  0.3220 -0.1538  2.1913
63350SOL     OW96907   3.670   5.513   1.575  0.3254  0.2290 -0.5402
63350SOL    HW196908   3.671   5.597   1.621  2.0934 -0.1558  0.2050
63350SOL    HW296909   3.745   5.465   1.610 -1.9243 -2.6507  0.8390
63351SOL     OW96910   8.967   6.488  10.442 -0.1812  0.5500  0.4868
63351SOL    HW196911   8.913   6.454  10.371 -0.5344  1.0266  0.5204
63351SOL    HW296912   8.987   6.578  10.416  0.8594  0.2915  0.3280
63352SOL     OW96913  10.504  10.270   0.628  0.2477 -0.2689  0.6373
63352SOL    HW196914  10.497  10.185   0.673 -1.3762 -0.8702 -0.6700
63352SOL    HW296915  10.432  10.271   0.566  2.1404  0.6972 -1.7149
63353SOL     OW96916  10.218   8.445   4.438  0.5019 -0.2890  0.0606
63353SOL    HW196917  10.237   8.536   4.415 -0.1405 -0.3324 -0.6765
63353SOL    HW296918  10.302   8.411   4.470  1.2297  0.0531 -1.3671
63354SOL     OW96919   9.370   4.766   3.225  0.5417  0.4272 -0.7075
63354SOL    HW196920   9.420   4.847   3.238 -0.5971  0.9846  0.4117
63354SOL    HW296921   9.402   4.731   3.142  1.6218  1.6051 -0.8163
63355SOL     OW96922   4.851  11.532   2.948 -0.4088  0.1760 -0.1865
63355SOL    HW196923   4.882  11.502   3.034  0.1882  0.3188 -0.3485
63355SOL    HW296924   4.911  11.603   2.924 -1.4834  1.1518 -0.0526
63356SOL     OW96925   4.248   7.368   9.219  0.5022 -0.7010  0.4465
63356SOL    HW196926   4.249   7.382   9.314 -0.0052  0.6066  0.2773
63356SOL    HW296927   4.214   7.450   9.183 -0.5632 -1.6332 -0.7823
63357SOL     OW96928   0.440   6.037   8.100 -0.3820 -0.5722  0.1439
63357SOL    HW196929   0.375   5.978   8.062 -3.1539  0.6748  2.5394
63357SOL    HW296930   0.409   6.052   8.189  2.0967  1.8004  0.7471
63358SOL     OW96931   5.630  10.570   4.364 -0.0817 -0.0755 -0.1679
63358SOL    HW196932   5.595  10.557   4.452 -0.6167 -0.4227 -0.4240
63358SOL    HW296933   5.558  10.544   4.306  0.0350  0.7601 -0.7085
63359SOL     OW96934   5.298  12.386   8.911 -0.7237 -0.2147  0.0253
63359SOL    HW196935   5.214  12.417   8.944 -0.7794 -0.7176  0.3664
63359SOL    HW296936   5.321  12.312   8.968  1.0139  1.2775  1.3690
63360SOL     OW96937   9.791   8.960   3.223 -0.0149 -0.2419  0.1337
63360SOL    HW196938   9.871   8.914   3.248  0.3769  0.7391  0.7657
63360SOL    HW296939   9.785   9.033   3.285 -0.9924  0.1450 -0.3876
63361SOL     OW96940   2.624   1.709  10.885 -0.2045 -0.3270 -0.7371
63361SOL    HW196941   2.612   1.625  10.928 -1.0357 -0.1659 -0.6406
63361SOL    HW296942   2.719   1.723  10.885 -0.1520 -0.5928  0.5406
63362SOL     OW96943   7.070   5.340  12.569  0.4353 -0.2454  0.0615
63362SOL    HW196944   7.072   5.258  12.520  1.6985 -0.1710 -0.0465
63362SOL    HW296945   6.993   5.386  12.535  1.4864 -0.0156 -2.1929
63363SOL     OW96946   5.200  11.085  11.369  0.0593 -0.0500 -0.5080
63363SOL    HW196947   5.190  11.057  11.460  1.0972 -0.3402 -0.4743
63363SOL    HW296948   5.223  11.177  11.374 -1.2084  0.2914 -0.5425
63364SOL     OW96949   9.372   1.643   3.196 -0.2301  0.0525 -0.2792
63364SOL    HW196950   9.291   1.691   3.214  0.0785  0.1753  0.8586
63364SOL    HW296951   9.419   1.699   3.134 -0.2067  0.8913  0.4642
63365SOL     OW96952  10.359   3.653  12.443 -0.2121  0.3830  0.3696
63365SOL    HW196953  10.402   3.663  12.528 -0.5122  1.0943  0.4467
63365SOL    HW296954  10.355   3.558  12.430  0.8051  0.2810  0.6458
63366SOL     OW96955   9.902   3.213   3.086  0.9155  0.0891  0.2178
63366SOL    HW196956   9.947   3.161   3.019 -0.4543  0.0769 -0.7290
63366SOL    HW296957   9.826   3.160   3.110  1.0873  0.3449  1.4045
63367SOL     OW96958   6.815   1.573   0.922 -0.6065 -0.2052 -0.1887
63367SOL    HW196959   6.724   1.601   0.936 -0.3084  0.0134  1.6514
63367SOL    HW296960   6.808   1.490   0.875 -1.7108  0.3047 -0.9582
63368SOL     OW96961   3.042  10.617   4.606 -0.2915  0.5177 -0.2821
63368SOL    HW196962   2.947  10.624   4.598 -0.4785  0.0287  1.2660
63368SOL    HW296963   3.069  10.695   4.654  0.3585  1.5791 -2.2261
63369SOL     OW96964   6.684   9.861   1.803 -0.4687  0.2517 -0.2468
63369SOL    HW196965   6.678   9.874   1.897 -0.0992  0.7668 -0.2871
63369SOL    HW296966   6.717   9.772   1.792 -1.1340 -0.0426  0.0944
63370SOL     OW96967   5.578   8.112   8.635  0.6351 -0.9292 -0.4574
63370SOL    HW196968   5.531   8.128   8.553 -0.1057 -0.5392  0.0321
63370SOL    HW296969   5.627   8.031   8.619 -1.7363 -2.4871 -0.3446
63371SOL     OW96970   8.328   6.766  10.054  0.1722  0.1103  0.2393
63371SOL    HW196971   8.321   6.857  10.082  0.4556  0.7459 -1.6453
63371SOL    HW296972   8.273   6.760   9.976  1.7867 -0.7645 -0.9074
63372SOL     OW96973   5.883   7.995   0.842  0.4426  0.1096  0.3113
63372SOL    HW196974   5.936   7.920   0.813 -0.0413  0.0600 -0.4843
63372SOL    HW296975   5.857   8.038   0.760  0.5616  1.0437  0.7559
63373SOL     OW96976   8.711   5.897  12.506 -0.0265 -0.0807 -0.2470
63373SOL    HW196977   8.667   5.885  12.422  2.7564 -0.2802 -1.8088
63373SOL    HW296978   8.740   5.988  12.506 -0.4647  0.0700  0.7551
63374SOL     OW96979   6.847   5.430  12.123  0.4428  0.8341 -0.4453
63374SOL    HW196980   6.795   5.419  12.043 -0.5957  1.4191  0.1348
63374SOL    HW296981   6.783   5.424  12.194  1.3475  0.3828  0.3503
63375SOL     OW96982   5.829  11.435   1.105  0.0794  0.2362 -0.0545
63375SOL    HW196983   5.820  11.342   1.127 -1.9995  0.5113  0.4879
63375SOL    HW296984   5.740  11.463   1.086  0.8068  1.9000 -1.2443
63376SOL     OW96985   0.347   8.342   7.658  0.7123  0.2419 -0.8227
63376SOL    HW196986   0.304   8.425   7.678  0.4828 -0.5908  2.6808
63376SOL    HW296987   0.380   8.311   7.742  1.6102 -2.8024 -2.1726
63377SOL     OW96988   6.324   8.435   5.305 -0.5667  0.1466 -0.6029
63377SOL    HW196989   6.365   8.496   5.365 -1.5819  0.8448 -0.5911
63377SOL    HW296990   6.389   8.365   5.293  1.9557  2.6160 -3.0041
63378SOL     OW96991   6.265   9.010  12.287 -0.0866 -0.3563 -0.5188
63378SOL    HW196992   6.318   9.075  12.239  1.4591 -0.3070  1.1724
63378SOL    HW296993   6.326   8.939  12.307 -0.8784 -0.7106  0.7234
63379SOL     OW96994   9.712   5.134   4.248 -0.2664  0.7632 -0.0222
63379SOL    HW196995   9.631   5.125   4.297  0.8395 -1.0951  1.6071
63379SOL    HW296996   9.685   5.132   4.156 -1.9329 -2.1770  0.4005
63380SOL     OW96997   5.144  10.558   4.252  0.0819  0.1190 -0.1885
63380SOL    HW196998   5.113  10.649   4.255 -0.8442 -0.1944  0.2606
63380SOL    HW296999   5.234  10.562   4.283 -0.2021  0.7829  0.5868
63381SOL     OW97000   3.529   4.705   6.919  0.3238 -0.8657  0.7909
63381SOL    HW197001   3.460   4.648   6.953 -0.6696  0.3237  0.8260
63381SOL    HW297002   3.486   4.789   6.904  1.4533 -0.4668 -0.4603
63382SOL     OW97003   3.883   6.994  11.352  0.5039  0.0929 -0.1871
63382SOL    HW197004   3.817   7.063  11.346 -0.0809 -0.4136  0.2400
63382SOL    HW297005   3.963   7.039  11.378 -0.0108  0.5323  0.6890
63383SOL     OW97006   2.831   1.782   4.509  0.1974 -0.4843  0.3234
63383SOL    HW197007   2.885   1.722   4.457 -0.6355 -1.1736  0.2349
63383SOL    HW297008   2.747   1.784   4.462  0.6886  2.0005 -0.5951
63384SOL     OW97009  10.553   1.731   2.886 -0.2944 -0.0395 -0.0096
63384SOL    HW197010  10.649   1.732   2.875 -0.3991  0.6774 -0.9951
63384SOL    HW297011  10.533   1.814   2.930 -0.5143  0.0767 -0.3260
63385SOL     OW97012   8.616   8.336   3.533  0.5100 -0.3254 -0.5918
63385SOL    HW197013   8.692   8.290   3.568 -0.5001 -0.5538  1.4125
63385SOL    HW297014   8.635   8.429   3.547  1.2094 -0.2496 -1.8507
63386SOL     OW97015  10.042   5.008   8.429 -0.1633  0.1889  0.6475
63386SOL    HW197016   9.976   5.063   8.386 -0.3850  0.0592  0.8165
63386SOL    HW297017  10.032   5.029   8.522 -0.2659 -0.1544  0.7139
63387SOL     OW97018   0.480   7.627   3.174  0.4861 -0.6958  0.5291
63387SOL    HW197019   0.564   7.672   3.182 -0.3614  1.1156 -0.2267
63387SOL    HW297020   0.429   7.682   3.115 -0.6642 -2.6295 -0.3704
63388SOL     OW97021   0.383   8.921   4.652 -0.4041 -0.6728  0.2181
63388SOL    HW197022   0.296   8.952   4.675 -0.3825 -1.5372  1.5684
63388SOL    HW297023   0.394   8.840   4.702  1.4864 -0.1539  0.7363
63389SOL     OW97024   9.940   1.080   8.564 -0.7589  0.1337  0.3993
63389SOL    HW197025  10.035   1.090   8.555 -0.8001  0.6381  0.4916
63389SOL    HW297026   9.904   1.116   8.483 -0.7774 -2.1841 -0.7036
63390SOL     OW97027   2.185   1.966  12.180  0.0807 -0.4998 -0.3755
63390SOL    HW197028   2.115   1.947  12.118 -0.0708 -0.7675 -0.1261
63390SOL    HW297029   2.266   1.952  12.130  0.0805 -4.1644  0.3554
63391SOL     OW97030   7.939   9.455   5.034  0.0685 -0.3722  0.0069
63391SOL    HW197031   7.942   9.410   4.950  1.4417  1.4158 -1.0001
63391SOL    HW297032   7.856   9.503   5.034  0.1857 -0.1685 -0.4581
63392SOL     OW97033   9.954   2.749   3.412 -0.5053 -0.2027 -0.1584
63392SOL    HW197034   9.980   2.692   3.484 -0.1725  0.2583  0.0910
63392SOL    HW297035   9.904   2.692   3.354  0.3199 -0.9034 -0.2146
63393SOL     OW97036   4.467   1.512   7.315  0.0319 -0.2597  0.5311
63393SOL    HW197037   4.524   1.589   7.310 -0.8505  0.4346  1.0127
63393SOL    HW297038   4.379   1.546   7.299 -0.4285 -1.1029  1.2202
63394SOL     OW97039   6.296   0.711  12.159 -0.2827 -0.8507 -0.0741
63394SOL    HW197040   6.347   0.739  12.235  0.4727  0.3934 -1.0057
63394SOL    HW297041   6.255   0.791  12.127 -0.4935 -1.3411 -1.0407
63395SOL     OW97042   3.219  11.000   8.936  0.0802  0.2505 -0.4508
63395SOL    HW197043   3.227  10.919   8.885 -0.9487  0.9825 -1.8273
63395SOL    HW297044   3.303  11.044   8.924  0.1367  0.0345 -0.8641
63396SOL     OW97045  10.018   6.416   0.033 -0.0784  0.3543 -0.4999
63396SOL    HW197046  10.079   6.480  -0.003 -0.4904  1.2832  0.4010
63396SOL    HW297047  10.029   6.339  -0.022  1.1900  0.8390 -0.9679
63397SOL     OW97048   9.690   0.258   9.258  0.2248  0.3960 -0.2358
63397SOL    HW197049   9.700   0.165   9.276 -0.2746 -0.0955 -2.2758
63397SOL    HW297050   9.641   0.292   9.334  0.2147 -1.0236  0.4241
63398SOL     OW97051   5.735   7.215   8.981 -0.4039  0.3071  0.1852
63398SOL    HW197052   5.724   7.208   9.076 -0.7544 -0.4728  0.0887
63398SOL    HW297053   5.814   7.164   8.963 -0.1470  0.7303  0.0902
63399SOL     OW97054   2.957   2.533  12.565 -0.1622 -0.1633  0.0244
63399SOL    HW197055   2.920   2.479  12.495 -3.8761 -0.0813  1.6783
63399SOL    HW297056   2.940   2.483  12.645  2.3810  0.5226  1.0958
63400SOL     OW97057   8.970   3.160  11.293  0.2476 -0.1726  0.0659
63400SOL    HW197058   8.964   3.250  11.325  1.0790 -1.5502  5.0505
63400SOL    HW297059   8.888   3.146  11.246 -0.0053  3.0507 -0.7218
63401SOL     OW97060   2.353   4.328   8.429 -0.1084  0.3288 -0.3173
63401SOL    HW197061   2.259   4.331   8.444 -0.1603  0.7156 -0.7026
63401SOL    HW297062   2.391   4.325   8.517 -0.5361 -2.4917 -0.1425
63402SOL     OW97063   8.654  10.283   9.791 -0.0565 -0.2308 -0.0266
63402SOL    HW197064   8.596  10.206   9.786  0.7893 -0.9774  1.2114
63402SOL    HW297065   8.730  10.253   9.839  0.0713  1.5350  0.9613
63403SOL     OW97066  11.644   5.070   2.722 -0.6579  0.2204 -0.2295
63403SOL    HW197067  11.673   4.978   2.719 -3.0141 -0.5873  0.0688
63403SOL    HW297068  11.586   5.074   2.798 -0.8692  1.8989 -0.4581
63404SOL     OW97069   3.401   1.898  11.207  0.2626 -0.7159 -0.6692
63404SOL    HW197070   3.396   1.925  11.115  1.9395  2.2485 -0.0223
63404SOL    HW297071   3.493   1.876  11.221  0.5134  0.9250  0.7106
63405SOL     OW97072   6.006   4.692  10.713 -0.2240 -0.2052  0.1453
63405SOL    HW197073   5.973   4.605  10.734 -1.5951  0.1470 -0.4400
63405SOL    HW297074   6.100   4.687  10.730 -0.0029 -2.2509 -1.3335
63406SOL     OW97075   6.017  10.050   0.475 -0.6464  1.0563 -0.0944
63406SOL    HW197076   5.938   9.996   0.475  1.2924 -2.0235  0.3746
63406SOL    HW297077   6.082   9.998   0.521  2.4999  2.1451 -2.8984
63407SOL     OW97078   0.610  11.073   2.689  0.0206  0.4045 -0.2014
63407SOL    HW197079   0.696  11.059   2.728  0.4933  1.3246 -0.8830
63407SOL    HW297080   0.601  11.004   2.623  1.0535  1.4379 -1.4543
63408SOL     OW97081   6.449   2.758   4.800 -0.0260 -0.1053 -0.1228
63408SOL    HW197082   6.491   2.766   4.714  1.0244 -1.6595  0.1984
63408SOL    HW297083   6.519   2.732   4.859 -0.7939  0.6534  1.1644
63409SOL     OW97084   2.289   9.854   4.120 -0.0422  0.3920  1.0348
63409SOL    HW197085   2.291   9.890   4.032  0.9311  2.5532  1.8687
63409SOL    HW297086   2.197   9.858   4.146  0.0541  2.6761  1.1900
63410SOL     OW97087   8.009  10.467  11.609  0.2104  0.1076  0.4818
63410SOL    HW197088   8.029  10.555  11.642  1.2595  0.3895 -0.8006
63410SOL    HW297089   8.012  10.476  11.514 -1.1425 -1.0139  0.2966
63411SOL     OW97090   0.519   4.011   8.395 -0.1666 -0.3014  0.4830
63411SOL    HW197091   0.554   4.096   8.422  0.6604 -0.7577  0.8820
63411SOL    HW297092   0.448   3.994   8.456  0.8287 -0.7069  1.5623
63412SOL     OW97093   4.030  10.002  10.879 -0.3446  0.0782 -0.1266
63412SOL    HW197094   3.952   9.990  10.824 -0.3860 -0.8228  0.1167
63412SOL    HW297095   4.005   9.967  10.964 -0.2919  1.5069  0.4943
63413SOL     OW97096   8.544  10.965   4.426 -0.0252 -0.2607 -0.2490
63413SOL    HW197097   8.516  10.954   4.335 -0.0943 -2.3879 -0.0291
63413SOL    HW297098   8.535  10.878   4.464  0.5127  0.4712  1.6655
63414SOL     OW97099  12.297   4.979   5.193  0.1339 -0.2376 -0.5458
63414SOL    HW197100  12.265   4.908   5.138  0.4916 -1.7873  1.1489
63414SOL    HW297101  12.339   4.935   5.267 -0.2010  1.7322  0.9003
63415SOL     OW97102   9.736   0.966   5.284 -0.4150  0.3204  0.0512
63415SOL    HW197103   9.668   0.932   5.343  0.1581  0.0318  0.5606
63415SOL    HW297104   9.807   0.991   5.343  0.4462 -0.6121 -0.5619
63416SOL     OW97105   8.333   5.061   7.043 -0.3539 -0.0458  0.2815
63416SOL    HW197106   8.256   5.115   7.026  1.2086  2.1403 -0.2677
63416SOL    HW297107   8.380   5.060   6.960 -0.9075 -3.4230 -0.1310
63417SOL     OW97108   7.119   1.437   8.993  0.5877 -0.3717 -0.2725
63417SOL    HW197109   7.200   1.485   9.006  0.2211  0.4408 -0.8658
63417SOL    HW297110   7.118   1.415   8.900 -0.0501 -0.0237 -0.3543
63418SOL     OW97111   8.179   2.672   8.275  0.4039 -0.1770 -0.0927
63418SOL    HW197112   8.137   2.701   8.194  0.4208  0.8044  0.2409
63418SOL    HW297113   8.153   2.737   8.341  0.5123 -0.8734  0.6601
63419SOL     OW97114   7.342   3.738   7.351  0.0609  0.2276  0.3170
63419SOL    HW197115   7.412   3.800   7.330  0.6921 -0.7943 -0.6912
63419SOL    HW297116   7.346   3.673   7.282 -0.3002 -1.1858  1.5782
63420SOL     OW97117  12.131   0.953  11.194  0.4520 -0.1866 -0.2460
63420SOL    HW197118  12.179   0.949  11.277  0.8840  1.2265 -0.3961
63420SOL    HW297119  12.190   0.912  11.131  0.6212 -0.2068 -0.0764
63421SOL     OW97120   1.476   1.853   3.404  0.4058  0.1061 -0.9747
63421SOL    HW197121   1.462   1.798   3.326  1.4122 -1.4026 -0.1443
63421SOL    HW297122   1.387   1.871   3.436 -0.0039  0.3477 -2.1813
63422SOL     OW97123   4.206   2.292   6.291  0.1063  0.0367  0.5250
63422SOL    HW197124   4.116   2.260   6.288  0.9491 -2.5088 -1.8297
63422SOL    HW297125   4.255   2.222   6.333  1.0661  1.3692  1.7441
63423SOL     OW97126   6.736  10.766   8.081 -0.7474  0.1262  0.7239
63423SOL    HW197127   6.756  10.708   8.008 -1.1470 -2.2652  2.3929
63423SOL    HW297128   6.821  10.801   8.108 -0.2172 -1.1775  0.8204
63424SOL     OW97129   9.815   5.508   9.731  0.1335  0.3912 -0.3852
63424SOL    HW197130   9.719   5.517   9.731 -0.1899 -2.1239 -0.7833
63424SOL    HW297131   9.831   5.428   9.781  1.9955  0.4236 -0.8558
63425SOL     OW97132   8.696   4.007  11.355  0.4684  0.3856 -0.0652
63425SOL    HW197133   8.749   4.079  11.321 -0.8034  2.1809  1.5546
63425SOL    HW297134   8.617   4.048  11.388 -0.6731 -1.8727  0.2346
63426SOL     OW97135  12.473  11.943   8.211  0.0683 -0.2932 -0.4454
63426SOL    HW197136  12.430  11.879   8.154  0.3863 -0.5352 -0.4158
63426SOL    HW297137  12.452  12.028   8.172 -1.2935 -0.3369  0.1473
63427SOL     OW97138   4.372  10.830   2.613  0.1725 -0.0742 -0.3718
63427SOL    HW197139   4.350  10.902   2.554 -2.5822  0.3795  1.0091
63427SOL    HW297140   4.366  10.869   2.701 -0.2211 -1.6946  0.3656
63428SOL     OW97141   8.838  12.056   3.200  0.3330  0.5722 -0.5156
63428SOL    HW197142   8.749  12.045   3.234  0.8267 -0.2339  0.5758
63428SOL    HW297143   8.885  11.978   3.229  1.6701  1.4727 -0.1679
63429SOL     OW97144   6.577   2.881   0.595  0.1912 -0.0169 -0.5876
63429SOL    HW197145   6.514   2.821   0.554 -0.5836  0.1034  0.4076
63429SOL    HW297146   6.554   2.880   0.688  0.7603  1.1118 -0.4254
63430SOL     OW97147   3.175   7.358   2.200  0.1529 -0.1227  0.0556
63430SOL    HW197148   3.117   7.344   2.275 -0.3575 -0.8021 -0.4532
63430SOL    HW297149   3.262   7.363   2.238 -0.0975 -0.4854  0.7006
63431SOL     OW97150   6.969   2.580   1.087  0.0553  0.3813  0.2706
63431SOL    HW197151   7.032   2.544   1.025 -1.2624 -1.4755 -0.0690
63431SOL    HW297152   7.006   2.562   1.173  0.2965 -0.1106  0.0634
63432SOL     OW97153   9.472  11.496  10.763  0.0875  0.3290 -0.1015
63432SOL    HW197154   9.523  11.415  10.758 -2.4440 -1.3139 -1.5975
63432SOL    HW297155   9.527  11.562  10.722  2.7721 -0.2146  2.3077
63433SOL     OW97156   8.029   7.662   7.718 -0.1920  0.0082 -0.0411
63433SOL    HW197157   7.967   7.635   7.651 -0.3073  0.2117 -0.0185
63433SOL    HW297158   7.974   7.686   7.793 -0.0850  0.1325 -0.0010
63434SOL     OW97159   3.336  11.962  11.708 -0.0657  0.1524  0.8125
63434SOL    HW197160   3.429  11.943  11.695  0.0882  1.3450  0.0690
63434SOL    HW297161   3.330  11.991  11.799  0.2764 -0.0009  0.8854
63435SOL     OW97162  10.025   3.802   8.895  0.2195 -0.0220 -0.0694
63435SOL    HW197163   9.941   3.756   8.898 -0.3279  0.9620 -0.1590
63435SOL    HW297164  10.006   3.889   8.929  1.0716  0.4106 -0.6694
63436SOL     OW97165   4.796   5.984   1.023 -0.1532 -0.1304  0.2516
63436SOL    HW197166   4.741   6.056   1.053 -1.8375 -0.4881 -1.7104
63436SOL    HW297167   4.734   5.911   1.009  0.7966 -0.6197 -1.8187
63437SOL     OW97168   6.140   9.862   6.605 -0.3526  0.0230  0.2177
63437SOL    HW197169   6.150   9.895   6.694 -0.6595  0.6516  0.0261
63437SOL    HW297170   6.090   9.931   6.560 -0.5447 -0.4695 -0.3295
63438SOL     OW97171  11.018  10.665  12.012  0.2111  0.1391  0.0096
63438SOL    HW197172  11.016  10.639  11.920  0.3159  2.2475 -0.6258
63438SOL    HW297173  11.108  10.692  12.028  0.1174  0.0947  0.6452
63439SOL     OW97174   7.588   3.572  11.670 -0.1261 -0.1401  0.0512
63439SOL    HW197175   7.585   3.603  11.580  0.9243 -0.5757 -0.1446
63439SOL    HW297176   7.675   3.533  11.679 -0.4379 -0.6166  1.0806
63440SOL     OW97177   6.042   0.529   1.463 -0.1044  0.1845  0.3068
63440SOL    HW197178   6.135   0.512   1.447  0.0439 -1.6115  2.5144
63440SOL    HW297179   6.026   0.617   1.429  2.2272  0.2442 -0.7528
63441SOL     OW97180   8.685   8.835   5.347  0.3375  0.3891 -0.3537
63441SOL    HW197181   8.670   8.764   5.284 -1.0224 -0.0966  0.4560
63441SOL    HW297182   8.681   8.915   5.295 -0.2541 -0.0344 -0.9698
63442SOL     OW97183   7.030   0.046   2.946 -0.1306  0.1525  0.2228
63442SOL    HW197184   7.091   0.119   2.936  0.6554 -0.5487 -0.2893
63442SOL    HW297185   7.081  -0.031   2.921 -1.2686 -0.4467 -0.3318
63443SOL     OW97186   5.458   3.793   9.479 -0.0631 -0.1710 -0.6706
63443SOL    HW197187   5.464   3.834   9.393 -1.1195 -0.2509 -0.7979
63443SOL    HW297188   5.368   3.762   9.484 -0.0937  0.0862  0.5875
63444SOL     OW97189   1.199   8.051   4.931 -0.6192 -0.3048 -0.6253
63444SOL    HW197190   1.121   8.099   4.906 -0.7393 -0.8245 -1.2736
63444SOL    HW297191   1.259   8.063   4.857 -0.0680  0.1094 -0.1275
63445SOL     OW97192   0.390   6.687   1.481  0.0098  0.2121  0.2112
63445SOL    HW197193   0.341   6.641   1.413  0.1212  0.2323  0.1169
63445SOL    HW297194   0.336   6.762   1.504 -1.5736 -1.4486  2.3800
63446SOL     OW97195   1.459   0.969   8.968 -0.1623  1.0848  0.0670
63446SOL    HW197196   1.488   0.895   8.915  0.6990  2.0040 -0.7883
63446SOL    HW297197   1.530   1.034   8.960 -0.5018  1.6730  1.4807
63447SOL     OW97198   2.178   2.972   6.068  0.0620 -0.0860 -0.1583
63447SOL    HW197199   2.187   3.052   6.119 -0.0087  0.6446 -1.2582
63447SOL    HW297200   2.164   2.903   6.133 -0.3248  0.8569  0.7805
63448SOL     OW97201   5.091  10.976   7.064 -0.2946  0.9813 -0.3612
63448SOL    HW197202   5.151  10.976   6.989 -2.4532  1.9111 -2.1955
63448SOL    HW297203   5.027  10.908   7.043 -1.1210  1.4754  0.5177
63449SOL     OW97204   1.949   6.753  10.404  0.4845  0.2264 -0.4778
63449SOL    HW197205   1.944   6.775  10.496 -0.0915  0.7250 -0.6240
63449SOL    HW297206   1.916   6.663  10.399  0.6505  0.1503 -0.1819
63450SOL     OW97207   2.046   9.409  10.194  0.4443  0.3381 -0.2849
63450SOL    HW197208   1.968   9.443  10.151  0.5079  1.9911  0.8364
63450SOL    HW297209   2.014   9.374  10.278  0.7463 -0.0474 -0.3285
63451SOL     OW97210   7.846   4.860  12.452 -0.4965  0.0660 -0.5304
63451SOL    HW197211   7.841   4.834  12.361  2.7128  0.6893 -1.0104
63451SOL    HW297212   7.864   4.954  12.449 -1.0116  0.2241  0.7564
63452SOL     OW97213   4.202   3.582   7.519  0.5641 -0.1068 -0.4778
63452SOL    HW197214   4.267   3.530   7.471  0.9343 -0.9725  0.8930
63452SOL    HW297215   4.126   3.525   7.525  0.4107  0.1149 -0.3106
63453SOL     OW97216   1.487   5.913  10.739  0.5823  0.2793  0.1877
63453SOL    HW197217   1.435   5.954  10.808  0.5083  0.9826 -0.2797
63453SOL    HW297218   1.454   5.951  10.657  1.4274  0.2980 -0.1571
63454SOL     OW97219   4.231   5.159   0.894  0.0974  0.1189  0.6617
63454SOL    HW197220   4.243   5.064   0.886 -1.4254 -0.0643  0.2537
63454SOL    HW297221   4.153   5.177   0.843  0.0933  1.5365  1.1436
63455SOL     OW97222   7.769   2.576   8.055 -0.3449  0.5546 -0.2984
63455SOL    HW197223   7.726   2.635   8.117 -4.1081 -0.4658 -1.6269
63455SOL    HW297224   7.738   2.489   8.081  2.5483 -0.5705 -0.2981
63456SOL     OW97225   4.323   1.785   9.323  0.3573 -0.1696 -0.5462
63456SOL    HW197226   4.399   1.740   9.360 -1.0568 -0.2963  2.4825
63456SOL    HW297227   4.351   1.876   9.314  1.0113 -0.2959  0.0944
63457SOL     OW97228   1.564   6.721   6.910 -0.1087  0.5510  0.4360
63457SOL    HW197229   1.567   6.816   6.913  0.1375  0.5287  1.4079
63457SOL    HW297230   1.640   6.693   6.962  0.7140 -0.1808 -1.0738
63458SOL     OW97231   9.975   6.943   7.382 -0.2918  0.2389  0.2158
63458SOL    HW197232  10.022   6.913   7.304 -0.6585 -0.0304  0.0983
63458SOL    HW297233   9.969   6.866   7.438 -2.0203 -0.1620 -0.4704
63459SOL     OW97234   4.437   2.205   0.962 -0.2129  1.1317  0.5451
63459SOL    HW197235   4.354   2.247   0.987 -0.6422  0.4782  0.2364
63459SOL    HW297236   4.499   2.278   0.954 -0.6876  1.6000  1.0443
63460SOL     OW97237   6.433  10.745   7.627 -0.2472  0.2712 -0.7331
63460SOL    HW197238   6.396  10.697   7.553  1.5761  0.5538 -1.8983
63460SOL    HW297239   6.498  10.804   7.587  0.3322  0.8987  1.0340
63461SOL     OW97240   9.061  10.052   6.623  0.3645  0.2887  0.0511
63461SOL    HW197241   9.030   9.978   6.570  1.7162  0.7895 -1.5269
63461SOL    HW297242   9.073  10.123   6.560  0.8571  1.2956  1.2397
63462SOL     OW97243   3.691   5.958   0.595  0.2939 -0.0962  0.1865
63462SOL    HW197244   3.777   5.923   0.617  0.6639  0.9696  0.4868
63462SOL    HW297245   3.687   5.952   0.499  0.7025 -0.1444  0.1696
63463SOL     OW97246   4.298  11.350  10.541  0.7023  0.0542  0.3713
63463SOL    HW197247   4.206  11.375  10.537  0.7088  0.0420  0.1333
63463SOL    HW297248   4.310  11.316  10.629  0.4240 -0.1586  0.3270
63464SOL     OW97249   4.355   4.143   8.455  0.0777 -0.1613 -0.4563
63464SOL    HW197250   4.315   4.056   8.461  0.1719 -0.1372  0.6010
63464SOL    HW297251   4.370   4.169   8.546 -0.5772  1.2524 -0.7367
63465SOL     OW97252  10.961  11.776   9.818 -0.2600 -0.5781 -0.5052
63465SOL    HW197253  11.040  11.823   9.845 -0.8370  0.5261 -0.6459
63465SOL    HW297254  10.924  11.830   9.748 -1.2803 -0.9209 -0.2570
63466SOL     OW97255   4.247  12.527   1.979  0.4293 -0.4202 -0.3052
63466SOL    HW197256   4.253  12.476   2.060 -2.0506  0.2055  0.3663
63466SOL    HW297257   4.280  12.468   1.911 -2.3045 -3.0576  0.4268
63467SOL     OW97258   4.000   0.623   7.208  0.1059 -0.4987 -0.9613
63467SOL    HW197259   4.040   0.702   7.245 -0.2832 -0.7842  0.1052
63467SOL    HW297260   4.043   0.550   7.254 -2.4071 -0.8098  1.1807
63468SOL     OW97261   7.178  12.331   0.646 -0.3218  0.3109  0.6160
63468SOL    HW197262   7.151  12.301   0.559 -0.9233 -1.1365  1.2513
63468SOL    HW297263   7.152  12.423   0.649  2.2610  1.2302 -1.7047
63469SOL     OW97264   4.115   6.198   5.803  0.4799  0.0654 -0.0097
63469SOL    HW197265   4.144   6.169   5.716  0.4833 -0.4745  0.1717
63469SOL    HW297266   4.181   6.164   5.863 -0.0160 -0.3589  0.3057
63470SOL     OW97267   6.260   5.662   8.552 -0.4967 -0.7186 -0.1643
63470SOL    HW197268   6.316   5.657   8.630  1.2852 -2.4197 -1.4815
63470SOL    HW297269   6.193   5.596   8.567  1.2342 -2.7812 -1.0350
63471SOL     OW97270   4.815   3.407   0.247 -0.7348 -0.1199 -0.0921
63471SOL    HW197271   4.859   3.397   0.163  0.0699 -0.5623  0.3659
63471SOL    HW297272   4.834   3.497   0.274  1.1077 -0.7210  0.7490
63472SOL     OW97273  10.736   9.555   1.118 -0.2110 -0.2046 -0.4264
63472SOL    HW197274  10.754   9.574   1.211 -1.2285  0.1266 -0.2868
63472SOL    HW297275  10.642   9.566   1.109 -0.6397 -3.2756 -0.7997
63473SOL     OW97276   2.637  12.039   8.674  0.5471 -0.5880 -0.0455
63473SOL    HW197277   2.552  12.044   8.630  0.3067  0.5274  0.5023
63473SOL    HW297278   2.695  12.094   8.622  0.4132  0.2580  0.6789
63474SOL     OW97279   1.455   8.355  10.671  0.4727  0.3706  0.6700
63474SOL    HW197280   1.375   8.391  10.633  0.7496  0.6605  0.3512
63474SOL    HW297281   1.429   8.327  10.759 -0.6178 -2.0166 -0.3421
63475SOL     OW97282   9.236   2.503   0.730  0.1567  0.0062 -0.2502
63475SOL    HW197283   9.244   2.586   0.683  1.4718  1.7786  2.8137
63475SOL    HW297284   9.142   2.492   0.744 -0.1161  0.3492 -1.6401
63476SOL     OW97285   2.197   5.970   9.507 -0.0998 -0.1226  0.3910
63476SOL    HW197286   2.125   5.973   9.444  0.4519  1.5357 -0.2064
63476SOL    HW297287   2.219   6.061   9.523  1.6412 -0.5829  0.8362
63477SOL     OW97288   3.480   6.255   7.927  0.2066 -0.2114 -0.1135
63477SOL    HW197289   3.432   6.329   7.888 -0.6155 -0.4640  0.3881
63477SOL    HW297290   3.452   6.256   8.019 -0.3882 -1.5942 -0.2608
63478SOL     OW97291   1.385  12.551  12.244  0.1270 -0.5314  0.2639
63478SOL    HW197292   1.432  12.480  12.287 -2.0132 -2.0786  0.2294
63478SOL    HW297293   1.341  12.597  12.316  0.2396 -0.2375  0.1444
63479SOL     OW97294   6.742  11.915   3.695  0.8421  0.3508 -0.1889
63479SOL    HW197295   6.739  12.010   3.702  0.0636  0.3170  0.0682
63479SOL    HW297296   6.698  11.884   3.774  2.0951 -0.2478  0.2961
63480SOL     OW97297  12.022   1.239   9.387  0.3024 -0.2230  0.1522
63480SOL    HW197298  12.076   1.230   9.465 -1.9205 -1.2606  1.7006
63480SOL    HW297299  11.948   1.180   9.403 -0.6362  0.1391 -2.4035
63481SOL     OW97300   0.114   0.279   1.684  0.0312  0.4946 -0.4022
63481SOL    HW197301   0.043   0.316   1.632  1.2443  1.5016 -1.3867
63481SOL    HW297302   0.117   0.335   1.763 -1.6578 -0.8964  0.7242
63482SOL     OW97303   2.037   5.707  10.191 -0.2901  0.0897 -0.0533
63482SOL    HW197304   2.084   5.661  10.121  0.0887  2.0746 -1.1674
63482SOL    HW297305   1.950   5.667  10.193  0.5743 -1.9039  0.3105
63483SOL     OW97306   7.236   4.726  10.647  0.1184  0.4674  0.2053
63483SOL    HW197307   7.171   4.668  10.687 -1.9988  2.0167 -0.7717
63483SOL    HW297308   7.222   4.811  10.690  1.5113  0.8383 -0.0383
63484SOL     OW97309   0.873  10.561  10.738  0.0140  1.0893 -0.0678
63484SOL    HW197310   0.965  10.553  10.765 -0.5318  0.5679  1.7915
63484SOL    HW297311   0.863  10.494  10.671  0.6822  0.2171  0.6679
63485SOL     OW97312   4.034  10.633   4.266 -1.0593 -0.1848 -0.5089
63485SOL    HW197313   4.011  10.659   4.177  0.4118 -3.2503 -1.9201
63485SOL    HW297314   3.972  10.563   4.288  0.8526 -2.0489 -0.7059
63486SOL     OW97315   7.479   3.588   4.528 -0.2192  0.0290  0.5478
63486SOL    HW197316   7.550   3.555   4.472  0.1457  0.1189  0.9477
63486SOL    HW297317   7.407   3.527   4.514  1.4815 -3.1217  3.8125
63487SOL     OW97318   3.164  12.248   7.264 -0.1306 -0.7633  0.0947
63487SOL    HW197319   3.122  12.311   7.205  0.1780  0.3645  1.0344
63487SOL    HW297320   3.250  12.286   7.282  1.3926 -3.0231 -1.8086
63488SOL     OW97321   8.475   4.925   0.954 -0.2892  0.2150 -0.3733
63488SOL    HW197322   8.401   4.939   1.014  0.3554  0.4350  0.3943
63488SOL    HW297323   8.542   4.884   1.009 -0.1877 -0.9173 -1.2915
63489SOL     OW97324   5.871   1.795  10.493  0.5186 -0.8209 -0.1364
63489SOL    HW197325   5.775   1.801  10.497  0.4082 -1.5605 -1.2976
63489SOL    HW297326   5.895   1.842  10.413  1.0479 -1.2870 -0.2629
63490SOL     OW97327   1.627   3.996   7.618  0.0871 -0.5083 -0.0399
63490SOL    HW197328   1.665   4.053   7.552  0.1183 -1.9964 -1.3840
63490SOL    HW297329   1.684   4.004   7.694  0.7162  0.3769 -0.6019
63491SOL     OW97330   2.838   4.742   3.324  0.3543  0.1144 -0.7949
63491SOL    HW197331   2.902   4.814   3.320 -0.8641  1.2047 -1.6570
63491SOL    HW297332   2.880   4.670   3.277  1.2261  0.5703 -0.7356
63492SOL     OW97333   9.435  11.785   9.788 -0.3645  0.4780 -0.7822
63492SOL    HW197334   9.523  11.816   9.806  0.0309 -0.5256 -0.9670
63492SOL    HW297335   9.445  11.723   9.716 -1.1397 -0.0991 -0.4033
63493SOL     OW97336   7.571   9.418   0.851 -0.2332 -0.0757 -0.4782
63493SOL    HW197337   7.522   9.409   0.769 -1.6582 -2.3591  0.5231
63493SOL    HW297338   7.663   9.412   0.826 -0.6847 -2.5219 -1.7825
63494SOL     OW97339   7.835   3.157   9.438 -0.0269  0.3073  0.1199
63494SOL    HW197340   7.748   3.120   9.450 -0.7660  1.8963 -0.0062
63494SOL    HW297341   7.829   3.205   9.355  1.9984 -2.2820 -1.6494
63495SOL     OW97342   5.886  12.386   7.246  0.4297 -0.0408 -0.1669
63495SOL    HW197343   5.977  12.412   7.255  0.7846 -1.0220 -0.7065
63495SOL    HW297344   5.880  12.347   7.158 -1.1777  2.5398 -1.3262
63496SOL     OW97345   5.044   0.438   3.523  0.0359 -0.0949 -0.1541
63496SOL    HW197346   4.963   0.397   3.552 -0.4730 -0.3200 -1.7747
63496SOL    HW297347   5.019   0.489   3.446  0.9836  1.8696  0.7715
63497SOL     OW97348  11.381   7.043   5.476 -0.7831 -0.3485 -0.0404
63497SOL    HW197349  11.392   6.980   5.405 -1.0941 -0.6946  0.2143
63497SOL    HW297350  11.290   7.070   5.471 -1.2719 -1.6274  1.2430
63498SOL     OW97351   8.331   6.475   5.127  0.1059 -0.3375 -0.5589
63498SOL    HW197352   8.368   6.560   5.151  0.2628 -0.8313  1.0954
63498SOL    HW297353   8.391   6.411   5.167 -0.9184 -1.1899 -0.3406
63499SOL     OW97354   8.545   4.819   9.641  0.1087 -0.3798 -0.0861
63499SOL    HW197355   8.534   4.725   9.652  0.8574 -0.3245  1.4437
63499SOL    HW297356   8.461   4.856   9.667 -0.2634 -0.6191 -0.9114
63500SOL     OW97357   4.360  10.093   9.717  0.7616  0.1561 -0.0261
63500SOL    HW197358   4.286  10.111   9.659  0.9979 -2.5937 -1.3542
63500SOL    HW297359   4.320  10.060   9.797  0.5017  2.0978  0.6940
63501SOL     OW97360   8.067  12.121  11.802  0.1842 -0.3756  0.0644
63501SOL    HW197361   7.980  12.147  11.771  0.1995 -1.4283 -0.9384
63501SOL    HW297362   8.122  12.197  11.787 -0.5157  0.2399  0.5416
63502SOL     OW97363   8.177   5.041  11.633 -0.2518  0.0176  0.6309
63502SOL    HW197364   8.124   5.112  11.668 -0.4600  0.5912 -0.7643
63502SOL    HW297365   8.241   5.084  11.577  0.1244 -0.8440  0.3774
63503SOL     OW97366  11.809  10.425   9.532 -0.0326 -0.1788  0.4874
63503SOL    HW197367  11.735  10.379   9.491  1.6123 -1.2523 -1.4824
63503SOL    HW297368  11.782  10.517   9.534 -1.4072 -0.5393 -0.2627
63504SOL     OW97369   8.992   0.467   9.454  0.2406 -0.1866  0.6516
63504SOL    HW197370   8.972   0.497   9.543  1.8104  0.1369  0.9076
63504SOL    HW297371   8.968   0.541   9.398  0.3890  0.0604  0.9111
63505SOL     OW97372   0.566   3.158   4.664 -0.2319 -0.4251 -0.0500
63505SOL    HW197373   0.545   3.065   4.658  1.0580 -0.7525  0.0489
63505SOL    HW297374   0.589   3.183   4.574 -1.2657 -0.0076 -0.2111
63506SOL     OW97375   1.202   1.746   0.315 -0.3455 -0.6447 -0.0977
63506SOL    HW197376   1.109   1.762   0.300 -0.4026 -2.0136 -1.3989
63506SOL    HW297377   1.205   1.698   0.398 -0.6505  0.6501  0.6907
63507SOL     OW97378   6.508   1.379  10.304  0.3769 -0.7991  0.0905
63507SOL    HW197379   6.522   1.324  10.381  0.7441 -0.6148  0.1586
63507SOL    HW297380   6.596   1.405  10.277  0.3616 -2.1719 -1.3597
63508SOL     OW97381   1.073   6.442   7.139  0.9426 -0.3330 -0.2505
63508SOL    HW197382   1.040   6.365   7.186 -0.5810 -0.7799 -1.9721
63508SOL    HW297383   1.097   6.504   7.209  0.4196 -1.6335  1.1349
63509SOL     OW97384   7.087   2.815   7.496  0.1464  0.5717 -0.4550
63509SOL    HW197385   7.001   2.848   7.469  0.0474 -0.7204 -1.8497
63509SOL    HW297386   7.147   2.888   7.479 -0.1559  0.3309 -2.8431
63510SOL     OW97387   7.382   8.097  10.016 -0.3346 -0.2845 -0.1896
63510SOL    HW197388   7.406   8.114   9.925  0.4596 -0.7807 -0.0788
63510SOL    HW297389   7.319   8.024  10.011 -0.4717 -0.1557 -0.3517
63511SOL     OW97390   3.900  12.242   0.910 -0.2983 -0.7837  0.1356
63511SOL    HW197391   3.976  12.193   0.877 -1.3278 -0.9240 -2.2759
63511SOL    HW297392   3.901  12.323   0.859 -1.3415 -0.4505  0.6217
63512SOL     OW97393  11.951   4.771   2.502 -0.0202 -0.0223  0.4287
63512SOL    HW197394  11.882   4.828   2.469 -1.2081 -1.9516 -0.6775
63512SOL    HW297395  12.027   4.789   2.446  0.1936  1.6160  1.2022
63513SOL     OW97396   1.226   9.496   3.971 -0.1096 -0.8656  0.3371
63513SOL    HW197397   1.174   9.559   4.021 -0.1596 -0.6609  0.0275
63513SOL    HW297398   1.191   9.411   3.996 -1.0571 -0.7060 -0.3735
63514SOL     OW97399  12.578   5.930  10.541  0.3523  0.6749  0.4947
63514SOL    HW197400  12.606   5.974  10.621  0.2239  0.8394  0.4521
63514SOL    HW297401  12.487   5.958  10.530 -0.7386 -1.9191  2.0777
63515SOL     OW97402   0.549   5.210   9.288 -0.2754 -0.2647 -0.3142
63515SOL    HW197403   0.561   5.120   9.318  0.5755  0.1718  0.7189
63515SOL    HW297404   0.618   5.222   9.222  0.1529 -0.1062  0.1622
63516SOL     OW97405   2.696   4.492  11.027  0.0666  0.5826  0.0231
63516SOL    HW197406   2.631   4.425  11.003 -0.9647  1.6615 -0.2958
63516SOL    HW297407   2.667   4.523  11.113 -0.6647  2.0227 -0.7135
63517SOL     OW97408   2.862   7.633   6.437 -0.2228  0.3801 -0.0085
63517SOL    HW197409   2.793   7.668   6.494  0.9945  2.1309  0.4814
63517SOL    HW297410   2.929   7.701   6.436  1.9631 -1.6453  0.2759
63518SOL     OW97411   4.941   5.823   0.625 -0.4601  0.3978 -0.0827
63518SOL    HW197412   4.973   5.887   0.688  0.2288  2.6274 -2.5325
63518SOL    HW297413   4.846   5.823   0.635 -0.3787  0.9819  0.6878
63519SOL     OW97414   9.627   6.150   7.014  0.1624  0.1938 -0.1703
63519SOL    HW197415   9.714   6.116   7.033 -0.1926  1.1347  3.9566
63519SOL    HW297416   9.634   6.244   7.027 -1.4748  0.2826  0.2965
63520SOL     OW97417   5.519   5.611   1.996  0.4477 -0.3307  0.3421
63520SOL    HW197418   5.467   5.540   2.032 -0.4579  0.0391 -0.2173
63520SOL    HW297419   5.583   5.567   1.939 -0.3092 -0.6808 -0.2485
63521SOL     OW97420   5.643   8.671   9.636 -0.2467  0.2345  0.2572
63521SOL    HW197421   5.663   8.692   9.727  1.7122  0.5364 -0.2117
63521SOL    HW297422   5.718   8.621   9.605 -1.4220 -0.9090 -0.8737
63522SOL     OW97423   2.481   5.996   6.256  0.5760 -0.0307 -0.1994
63522SOL    HW197424   2.426   5.919   6.272 -0.5210  0.6508 -0.5862
63522SOL    HW297425   2.425   6.057   6.209  2.0828  0.1790 -1.8292
63523SOL     OW97426  11.287  11.612  12.224 -0.5201 -0.1841  0.5759
63523SOL    HW197427  11.244  11.573  12.300  0.3133 -0.4979  0.8867
63523SOL    HW297428  11.268  11.551  12.152 -0.9467 -0.1031  0.6148
63524SOL     OW97429   7.754   0.153   0.641 -0.3884  0.3031 -0.3699
63524SOL    HW197430   7.678   0.159   0.583 -1.1041  0.7810  0.5867
63524SOL    HW297431   7.720   0.113   0.721  0.7786 -1.1948 -0.5822
63525SOL     OW97432   0.359   9.662   2.147  0.1198 -0.1992  0.2192
63525SOL    HW197433   0.314   9.723   2.089 -1.8644 -0.2697  1.5642
63525SOL    HW297434   0.298   9.650   2.220  2.0246 -0.9867  1.7495
63526SOL     OW97435   8.648   7.631   8.729  0.0701 -0.6459  0.4753
63526SOL    HW197436   8.670   7.674   8.647  0.2777 -0.3887  0.6639
63526SOL    HW297437   8.615   7.545   8.703 -0.1947 -0.4349  0.1050
63527SOL     OW97438   7.068   1.584   1.350  0.0697  0.7276 -0.6386
63527SOL    HW197439   6.977   1.560   1.333  0.3791 -0.7863 -0.3399
63527SOL    HW297440   7.119   1.511   1.314  1.0746  0.8611  0.4368
63528SOL     OW97441  10.488   6.848   4.101 -0.2153 -0.3333 -0.1114
63528SOL    HW197442  10.464   6.861   4.009 -0.1370  0.3559 -0.0456
63528SOL    HW297443  10.518   6.935   4.130  1.4399 -0.9278  0.0823
63529SOL     OW97444  11.959   9.937   8.396 -0.5200  0.4272  0.0534
63529SOL    HW197445  11.940   9.917   8.305  0.8750  1.1287 -0.4206
63529SOL    HW297446  11.907  10.015   8.415  0.1115  1.0075 -0.5352
63530SOL     OW97447  11.891  11.574   3.016 -0.2400 -0.2919  0.4087
63530SOL    HW197448  11.795  11.564   3.014 -0.4307  1.2998  0.4358
63530SOL    HW297449  11.905  11.660   3.056  1.1810 -0.1240 -0.4043
63531SOL     OW97450   2.867   6.166   7.857  0.2978  0.1610 -0.4863
63531SOL    HW197451   2.818   6.084   7.862  1.1601 -0.4115 -1.1834
63531SOL    HW297452   2.859   6.194   7.766 -2.5777  2.5318  0.3284
63532SOL     OW97453   7.522   5.676   4.575 -0.3038  0.8853 -0.1549
63532SOL    HW197454   7.535   5.633   4.491 -0.2286 -1.0350  0.7990
63532SOL    HW297455   7.456   5.743   4.558 -1.0840 -0.1952 -1.4988
63533SOL     OW97456  12.109   1.307  10.178 -0.2340 -0.2333 -0.4390
63533SOL    HW197457  12.031   1.356  10.153  0.4504  0.3350 -1.5294
63533SOL    HW297458  12.168   1.372  10.215  1.1041  0.0668 -2.8670
63534SOL     OW97459   4.249   6.682   3.771 -0.6441  0.3812 -0.7122
63534SOL    HW197460   4.292   6.760   3.737 -0.8508  0.3617 -1.0288
63534SOL    HW297461   4.207   6.711   3.852 -0.3025  0.4752 -0.5695
63535SOL     OW97462   1.704  11.766   0.219  0.6237 -0.5278 -0.0968
63535SOL    HW197463   1.745  11.747   0.135  0.4429 -0.9783 -0.0818
63535SOL    HW297464   1.708  11.862   0.226  2.8816 -0.6020  0.5038
63536SOL     OW97465   7.356   4.866   5.040  0.1269  0.0255 -0.1435
63536SOL    HW197466   7.289   4.802   5.062 -0.7764  1.4064  1.3755
63536SOL    HW297467   7.307   4.948   5.027  1.2642  0.4919 -1.7868
63537SOL     OW97468   8.614  11.450  11.527  0.4659 -0.1428 -0.0946
63537SOL    HW197469   8.543  11.492  11.478  1.0770 -1.9646 -2.7434
63537SOL    HW297470   8.691  11.504  11.509  0.7415 -0.9408 -1.4776
63538SOL     OW97471   2.531   8.084   0.166  0.1968  0.1932 -0.5320
63538SOL    HW197472   2.522   7.994   0.198 -0.3638  0.3772 -0.1438
63538SOL    HW297473   2.511   8.079   0.072  0.3508 -0.1145 -0.5476
63539SOL     OW97474   7.447   0.149   2.384 -0.3156 -0.0899 -0.1333
63539SOL    HW197475   7.397   0.071   2.358  0.5654 -0.5680 -0.4371
63539SOL    HW297476   7.396   0.187   2.455 -2.1584  0.5633 -1.7288
63540SOL     OW97477   1.221   8.830  10.287  0.8066 -0.5827  0.5915
63540SOL    HW197478   1.237   8.919  10.256  1.4616 -0.1708  2.0473
63540SOL    HW297479   1.157   8.795  10.226  0.7761  0.7736 -0.1960
63541NA      NA97480   5.795   0.869   7.276 -0.2033 -0.3336  0.0667
63542NA      NA97481   6.320   1.055   4.333  0.2786  0.0944  0.1449
63543NA      NA97482   9.498   9.428   4.779  0.3523  0.1082  0.0126
63544NA      NA97483   2.318   6.545  10.543 -0.8333  0.2445  0.4325
63545NA      NA97484   7.886   7.445   8.225  0.5866  0.0848  0.2507
63546NA      NA97485   9.004   5.111   7.105 -0.2047 -0.2429 -0.0418
63547NA      NA97486   9.402   6.891   0.955 -0.2132  0.0467  0.1135
63548NA      NA97487   0.610   0.706  11.195 -0.5645 -0.3437  0.0048
63549NA      NA97488   6.630   6.184   4.089  0.9558  0.4042 -0.7041
63550NA      NA97489   2.950   4.158   8.297 -0.3331 -0.0761  0.1905
63551NA      NA97490   6.995  10.619   4.382 -0.0960  0.1645  0.3494
63552NA      NA97491   7.286   4.710  11.342 -0.1624  0.1559 -0.1072
63553NA      NA97492   7.977   5.875   8.063  0.3413 -0.3146 -0.1384
63554NA      NA97493   4.469  11.518   9.090 -0.3999 -0.1926 -0.1826
63555NA      NA97494   2.646   9.490   1.524 -0.0065 -0.2976 -0.0226
63556NA      NA97495   2.990   4.790   6.684 -0.0803 -0.3429  0.1731
63557NA      NA97496   2.875   3.221   9.343 -0.1493  0.2466  0.2595
63558NA      NA97497  10.733   5.876   4.827  0.0857  0.0339  0.4437
63559NA      NA97498  11.173   3.369   7.829  0.5596  0.4308 -0.0991
63560NA      NA97499   9.364   9.840   1.902 -0.5993 -0.3111 -0.2347
63561NA      NA97500   9.382   4.491   3.572  0.0075  0.2435  0.0708
63562NA      NA97501  10.543   0.168  11.261 -0.0533  0.2318  0.3473
63563NA      NA97502   8.877   9.587   2.722 -0.4248  0.3836 -0.0525
63564NA      NA97503   4.882   5.304   6.277  0.0899  0.4169 -0.6110
63565NA      NA97504   2.880   4.940   0.957 -0.1724 -0.4046  0.4185
63566NA      NA97505  11.111   7.173   2.977 -0.2156  0.3968  0.2954
63567NA      NA97506   2.025   0.833   3.643  0.3006  0.2003 -0.2625
63568NA      NA97507   2.312  11.328  11.084  0.1134  0.2461 -0.2243
63569NA      NA97508   3.504   0.714  10.803  0.0008  0.3234  0.0954
63570NA      NA97509   5.337  12.197   8.161 -0.2946  0.1058 -0.0465
63571NA      NA97510  10.232   7.598  12.538  0.0341 -0.3246 -0.3539
63572NA      NA97511   3.906   2.495  12.264  0.6202 -0.4529  0.1176
63573NA      NA97512   1.665   4.632   4.665  0.0608  0.3632 -0.0927
63574NA      NA97513   3.279   8.275   3.809  0.0570  0.2340  0.2284
63575NA      NA97514   1.088   9.979   3.850 -0.3235 -0.0136 -0.0095
63576NA      NA97515  11.940   5.547   0.408 -0.2147 -0.3351 -0.6491
63577NA      NA97516   9.826   6.291   5.927  0.8977 -0.4443 -0.0230
63578NA      NA97517   7.276  11.343   4.499 -0.4568  0.0878 -0.3942
63579NA      NA97518   9.348   5.498   5.274  0.1849  0.3619 -0.0316
63580NA      NA97519   4.254   5.283   2.917  0.3991  0.2025 -0.2689
63581NA      NA97520   7.638  11.769   2.534 -0.2250  0.4483  0.0813
63582NA      NA97521   8.381   1.337  11.624 -0.1869  0.2725 -0.2037
63583NA      NA97522   7.416  12.495   4.535 -0.3214 -0.1068  0.3971
63584NA      NA97523   9.681   4.539   7.377  0.5598 -0.0778  0.3565
63585NA      NA97524   9.533  11.546  11.215 -0.1693 -0.3921 -0.2522
63586NA      NA97525   4.616   2.885   8.315  0.0306  0.1064  0.0258
63587NA      NA97526   1.023   1.980   8.559  0.2019 -0.0020  0.2214
63588NA      NA97527   3.594   6.999   5.276  0.0115 -0.0769  0.3391
63589NA      NA97528   8.936   8.249  11.601  0.1180 -0.5287 -0.0290
63590NA      NA97529   7.675   1.464   9.482 -0.0279 -0.3148 -0.3319
63591NA      NA97530   8.497   3.978   6.851 -0.1215 -0.6965 -0.3934
63592NA      NA97531  11.906   2.052  11.535  0.4098  0.1669  0.0425
63593NA      NA97532   1.998   0.139   7.263  0.1439 -0.4287 -0.2757
63594NA      NA97533   4.859   9.855   3.958  0.1738  0.0336 -0.5180
63595NA      NA97534  11.813   5.261   0.800 -0.1171 -0.4322  0.1185
63596NA      NA97535   5.597   2.313   4.225  0.1021 -0.1860 -0.5212
63597NA      NA97536   5.903   9.132  11.935  0.1055  0.1023 -0.0371
63598NA      NA97537   2.346  11.187   1.774 -0.3156  0.0133 -0.5096
63599NA      NA97538   7.898   2.196   6.719  0.0213  0.6333  0.0692
63600NA      NA97539   5.659  11.513  10.939 -0.0990 -0.3259  0.5775
63601NA      NA97540  11.187   4.115   0.230 -0.1389  0.1731  0.1424
63602NA      NA97541   6.180   7.986   0.389  0.2345 -0.0403  0.0357
63603NA      NA97542   3.564   0.859   8.081  0.6823  0.1366  0.7283
63604NA      NA97543   3.161   4.835   2.941  0.2626  0.0829  0.6771
63605NA      NA97544  10.472   7.890   7.008 -0.6596  0.4888 -0.0598
63606NA      NA97545   1.977   3.112   2.603 -0.1878  0.1988  0.0078
63607NA      NA97546  10.876  12.050   8.978  0.4327 -0.2262  0.4437
63608NA      NA97547   3.514  12.475   4.261 -0.6147  0.2484  0.0410
63609NA      NA97548   5.990  11.063   4.676 -0.0268 -0.2909  0.1084
63610NA      NA97549  10.222   1.543   1.848  0.4691  0.5511 -0.3768
63611NA      NA97550   1.099   6.657   6.286  0.3903  0.1639 -0.0158
63612NA      NA97551   9.214   9.850  10.183  0.3891  0.0765  0.5769
63613NA      NA97552   7.968   4.504  10.784 -0.3837 -0.4444 -0.7675
63614NA      NA97553   7.536   6.786   4.890  0.2026  0.1927 -0.0194
63615NA      NA97554  10.614   4.930  12.485 -0.3368 -0.0409 -0.2547
63616NA      NA97555   7.873   7.814  12.486 -0.2671 -0.0878 -0.0443
63617NA      NA97556   5.493   4.789  11.824  0.2484 -0.1250 -0.2215
63618NA      NA97557   6.207   9.296   1.574 -0.0038  0.0270 -0.2717
63619NA      NA97558   8.839   5.215   8.776  0.5914 -0.8652  0.0598
63620NA      NA97559   8.638  11.120   3.071 -0.7196  0.4036 -0.0090
63621NA      NA97560   1.924   2.954   0.858 -0.3145  0.0129 -0.1884
63622NA      NA97561   9.090   6.648   8.359  0.0496  0.4711 -0.3621
63623NA      NA97562   3.164   5.377  10.338 -0.0877  0.1451  0.1096
63624NA      NA97563   1.312   1.065   8.821 -0.2139 -0.0306 -0.3857
63625NA      NA97564   4.347   7.004  11.700  0.0680  0.2511  0.2729
63626NA      NA97565  11.578   0.251   1.314  0.2614  0.5819  0.4524
63627NA      NA97566   6.479   9.128  10.568  0.6502  0.2461  0.4755
63628NA      NA97567   7.435   6.937   0.619  0.5686  0.1993  0.3213
63629NA      NA97568   9.714   6.269   2.998  0.1553  0.2523  0.0387
63630NA      NA97569   6.915   6.655   0.366 -0.0290  0.1381 -0.2386
63631NA      NA97570  11.436   2.167  10.231  0.1366 -0.1937 -0.1254
63632NA      NA97571  12.034   4.021   8.670 -0.6740 -0.6791  0.1803
63633NA      NA97572   1.292   1.717   1.998  0.0541  0.4397  0.2702
63634NA      NA97573  11.073  10.000   6.209  0.0321 -0.3548 -0.0737
63635NA      NA97574   9.745  11.037   0.015  0.2073  0.3535 -0.4424
63636NA      NA97575   7.803   1.238   6.676  0.3237 -0.5169 -0.4112
63637NA      NA97576   8.187  12.071  12.278  0.3525 -0.2214 -0.4239
63638NA      NA97577   2.999  11.867  12.287  0.1055  0.0178  0.0846
63639NA      NA97578  10.124   9.821   2.490 -0.2621 -0.0055  0.0548
63640NA      NA97579  10.876   8.178   7.815  0.0789 -0.6973 -0.2234
63641NA      NA97580   1.107  12.464   1.806  0.1007  0.5324 -0.0956
63642NA      NA97581   3.456   9.517   0.195  0.8667 -0.1588  0.3037
63643NA      NA97582   7.339  12.350   2.424  0.0592 -0.2669 -0.0817
63644NA      NA97583   6.419   5.570   0.144  0.3411 -0.2688  0.2249
63645NA      NA97584   5.899   8.635   9.946 -0.3926 -0.2440  0.4582
63646NA      NA97585   6.159   3.848   2.200 -0.3055  0.4680 -0.0049
63647NA      NA97586  10.456   3.727   2.132 -0.0393 -0.4610  0.3986
63648NA      NA97587  12.445   2.774   5.766  0.3932 -0.3957  0.0827
63649NA      NA97588   1.830  11.446   2.106 -0.0082 -0.1299 -0.8364
63650NA      NA97589  11.384   8.858   1.343  0.2373 -0.1656  0.0726
63651NA      NA97590  11.874   5.091   9.014  0.6767  0.8001  0.3625
63652NA      NA97591  10.928   7.916  11.846  0.0718 -0.2428 -0.0810
63653NA      NA97592   5.995   6.222   8.082 -0.0017  0.0783 -0.3622
63654NA      NA97593   1.111   7.283   6.103 -0.2273  0.0352  0.2032
63655NA      NA97594   9.313   9.258   4.293  0.2078 -0.2004  0.1251
63656NA      NA97595   5.139   5.959   3.958 -0.5726  0.2673 -0.6064
63657NA      NA97596   7.466   0.352   0.232  0.7194  0.0835  0.6715
63658NA      NA97597   9.326   7.884   0.090 -0.1511  0.1251 -0.2387
63659NA      NA97598   6.839  10.034   8.270  0.1014  0.2522 -0.4050
63660NA      NA97599   8.655  11.268   6.814  0.1502 -0.5409  0.5227
63661NA      NA97600  11.319  12.527   3.935  0.1067 -0.4903 -0.5064
63662NA      NA97601   6.022   4.110   4.108  0.1154  0.2359 -0.0661
63663NA      NA97602   9.678   8.233   9.329  0.2266 -0.0139 -0.3975
63664NA      NA97603   5.924  10.408   4.132 -0.3592 -0.2091 -0.6235
63665NA      NA97604   0.599  10.838   9.860 -0.1703 -0.3792 -0.4650
63666NA      NA97605   0.584   4.509   6.939  0.8194 -0.1472 -0.2161
63667NA      NA97606  10.020  10.487   1.908 -0.2542 -0.0672  0.4692
63668NA      NA97607   3.807   4.689  11.264 -0.1105  0.4273 -0.0614
63669NA      NA97608   3.262   3.439   4.019 -0.2653 -0.4260 -0.1653
63670NA      NA97609   0.007   7.241   2.944  0.2492 -0.0719  0.2386
63671NA      NA97610   1.278  12.363  10.733  0.3736  0.9636  0.6200
63672NA      NA97611   6.740  12.238   1.181  0.4549  0.3384  0.1110
63673NA      NA97612   2.958  11.264  12.460  0.0956 -0.0894 -0.4115
63674NA      NA97613   0.855   7.167   3.553 -0.1670  0.0469 -0.0847
63675NA      NA97614   8.276   2.383   5.138 -0.0631 -0.3640  0.0342
63676NA      NA97615   7.370  10.657   9.919 -0.1552  0.1465  0.2499
63677NA      NA97616  10.609   1.877   8.718  0.2828  0.0773 -0.4472
63678NA      NA97617   3.284  11.639   2.186 -0.2869  0.0662 -0.0153
63679NA      NA97618   5.428   8.994   6.185 -0.3918 -0.2361 -0.6609
63680NA      NA97619   3.441  11.430   6.543 -0.0746  0.2551 -0.4678
63681NA      NA97620   3.834   0.719   6.223 -0.3503  0.4548  0.0684
63682NA      NA97621   2.323  12.281   1.214 -0.0775  0.2237 -0.5632
63683NA      NA97622   9.179   0.739   1.463  0.5070  0.3052 -0.3542
63684NA      NA97623   6.134   0.512   2.869 -0.2181 -0.3039 -0.4136
63685NA      NA97624   0.866   1.267  11.782  0.0087 -0.1654  0.2179
63686NA      NA97625   1.470   2.933   4.403  0.5763 -0.0342 -0.2235
63687NA      NA97626   6.228   3.944   7.063  0.2676  0.2738  0.1416
63688NA      NA97627   9.517   0.541   5.790  0.1405  0.1165  0.0072
63689NA      NA97628  12.482   3.654   2.756 -0.1900  0.4276 -0.4220
63690NA      NA97629   3.191   6.724   2.308 -0.1444  0.5450 -0.1503
63691NA      NA97630  11.650   4.983   4.634 -0.3125  0.2775 -0.2667
63692NA      NA97631   2.038   7.852   1.978 -0.4836 -0.1442  0.0421
63693NA      NA97632   8.049   3.907  12.119  0.0120  0.1903 -0.1510
63694NA      NA97633   2.670  10.598   9.322 -0.2176 -0.0638 -0.5257
63695NA      NA97634   5.765   5.769   4.266  0.0977 -0.0211 -0.4257
63696NA      NA97635   4.095   3.262   3.770  0.6245 -0.4302  0.0192
63697NA      NA97636  10.209   8.239  10.294 -0.1193 -0.4194 -0.7441
63698NA      NA97637   3.193   0.091   2.342 -0.3984 -0.2499 -0.1347
63699NA      NA97638   5.380   8.048   8.761 -0.2706  0.5478  0.3730
63700NA      NA97639  11.253   1.471   4.675  0.3118  0.2354 -0.2639
63701NA      NA97640   9.143  11.953   6.491 -0.0667 -0.3280  0.0369
63702NA      NA97641   7.692   3.594   4.674 -0.0765 -0.4106  0.0476
63703NA      NA97642   1.703   3.394   7.197  0.1942 -0.6043  0.7583
63704NA      NA97643   2.424   8.048   9.650  0.0250 -0.0998 -0.5667
63705NA      NA97644   0.083  10.019  10.979 -0.5691 -0.0137  0.4646
63706NA      NA97645   3.406   3.290   1.908  0.1359 -0.0746 -0.1345
63707NA      NA97646   4.418   2.864   9.726 -0.0144  0.0244  0.1067
63708NA      NA97647   1.128   8.556   5.592  0.1390 -0.4506  0.3897
63709NA      NA97648   5.331   8.417   1.486 -0.1958  0.4017 -0.2002
63710NA      NA97649   4.842   6.467   3.932 -0.3738 -0.0978  0.3916
63711NA      NA97650   2.540   7.597   4.118 -0.1186 -0.0513 -0.2319
63712NA      NA97651  12.075  11.809   1.524  0.1506 -0.2044 -0.3969
63713NA      NA97652   4.307  12.011   8.371 -0.4482  0.1380 -0.3722
63714NA      NA97653   8.156   6.323  10.337  0.3966 -0.0102  0.1733
63715NA      NA97654   1.669   4.453   2.637  0.2274 -1.0367  0.4150
63716NA      NA97655   0.961   2.548  12.235 -0.2602 -0.1105  0.0633
63717NA      NA97656   4.621   6.882   8.464 -0.2992  0.0305  0.0677
63718NA      NA97657   5.658  10.534   8.712 -0.1821  0.0911 -0.0108
63719NA      NA97658   3.674   6.070  12.100  0.2246 -0.1003  0.3626
63720NA      NA97659  10.918   0.329  11.672  0.4914 -0.4893  0.5553
63721NA      NA97660   6.381   4.270   4.709 -0.5080 -0.1841  0.1227
63722NA      NA97661  12.523  11.170  12.346  0.2693 -0.1107  0.3145
63723NA      NA97662   4.379   8.380   3.643 -0.0873  0.7174  0.0814
63724CL      CL97663  10.095   9.907   1.508  0.4176  0.2479 -0.0185
63725CL      CL97664   6.122   5.647   7.715 -0.5123 -0.0579 -0.4266
63726CL      CL97665   6.294   9.688  11.967 -0.0534 -0.3780 -0.7264
63727CL      CL97666   0.690   6.915   2.772 -0.1718 -0.3807 -0.1033
63728CL      CL97667   7.702   6.295   8.896  0.0986  0.3735 -0.1690
63729CL      CL97668   4.582   7.901  12.225 -0.2987 -0.4458 -0.0214
63730CL      CL97669  10.734   8.055   0.866 -0.0610  0.1689  0.2856
63731CL      CL97670  10.099   0.699  11.218 -0.2933 -0.4017  0.2192
63732CL      CL97671   4.993   1.994   0.436 -0.1574  0.0875 -0.0073
63733CL      CL97672   8.654   1.883   5.096 -0.1782  0.0092 -0.1971
63734CL      CL97673   3.067   2.806   9.665  0.2695 -0.4454  0.3532
63735CL      CL97674   9.092   2.060   0.653 -0.0906  0.2135  0.2484
63736CL      CL97675   2.067   7.857  11.026  0.7163  0.2198  0.0804
63737CL      CL97676   8.132  11.580   7.207 -0.0551 -0.6136  0.2789
63738CL      CL97677  10.962   0.210   1.958  0.0643 -0.5639  0.2197
63739CL      CL97678   4.359   9.161   5.487 -0.1476  0.2750 -0.1338
63740CL      CL97679   1.522   1.880   8.482  0.1268 -0.3999 -0.1928
63741CL      CL97680   7.469   9.231   9.751  0.0694 -0.0193 -0.2642
63742CL      CL97681   6.345   9.123   4.010 -0.2764  0.1016 -0.2018
63743CL      CL97682   4.840  10.723   0.347 -0.1231 -0.4296 -0.1901
63744CL      CL97683   5.646   9.702   1.505  0.2537 -0.0697  0.0590
63745CL      CL97684   2.744  10.419   3.959 -0.5458 -0.5746  0.0757
63746CL      CL97685   8.833   3.742   3.180 -0.4020  0.2227  0.0976
63747CL      CL97686  11.537   3.903   3.117 -0.2815 -0.0982  0.3296
63748CL      CL97687   3.139   0.904   1.965 -0.2947  0.3994  0.0666
63749CL      CL97688   0.313   1.348  11.250 -0.0810  0.3135  0.1496
63750CL      CL97689  11.350   5.898   9.711 -0.2024  0.2232  0.2974
63751CL      CL97690   9.698   5.560   0.337 -0.0772 -0.0976 -0.0500
63752CL      CL97691   1.803   9.334   1.748  0.1617 -0.3172  0.2311
63753CL      CL97692   6.073   5.021   7.496  0.2097  0.0930  0.0591
63754CL      CL97693   8.983   9.913   2.168  0.1374  0.2110 -0.5460
63755CL      CL97694   1.319   2.664  11.217 -0.1780 -0.1498 -0.0948
63756CL      CL97695   9.478  12.177   0.381 -0.1336  0.0145  0.0377
63757CL      CL97696   3.321   0.864   0.954 -0.0434 -0.3843  0.1153
63758CL      CL97697   3.948   7.335   9.599  0.2901 -0.0150  0.1098
63759CL      CL97698   6.835   6.321   2.762  0.0507  0.5848 -0.1540
63760CL      CL97699  12.570   7.074   7.490 -0.2437 -0.1133 -0.1664
63761CL      CL97700  10.809   8.815   7.064  0.2160  0.3032 -0.2168
63762CL      CL97701   7.948   7.681  11.161 -0.0298 -0.2019 -0.0556
63763CL      CL97702   3.229   3.932   5.001  0.1279  0.0429 -0.0965
63764CL      CL97703   1.926  12.299  10.096 -0.3683 -0.3364 -0.1593
63765CL      CL97704  10.892   5.362  10.413  0.7614 -0.1633 -0.2965
63766CL      CL97705   0.152   6.234  10.162  0.0909 -0.0164  0.0243
63767CL      CL97706   4.282   0.162   5.685 -0.1774  0.4044 -0.0798
63768CL      CL97707   0.575  12.092   4.766  0.1298  0.2904 -0.1559
63769CL      CL97708  12.277   4.930   6.257 -0.1349 -0.0436 -0.2519
63770CL      CL97709  10.959   4.888   3.731 -0.3475  0.0638  0.5496
63771CL      CL97710   6.355   9.059   7.725  0.2640  0.1100  0.0604
63772CL      CL97711   0.852   7.949   5.074  0.2307  0.3005  0.4305
63773CL      CL97712   3.821   4.383   8.968  0.0371 -0.0283 -0.1081
63774CL      CL97713   4.049   9.343   9.359  0.4026 -0.1054  0.0828
63775CL      CL97714   7.136   2.859   4.329  0.0275 -0.1008  0.0801
63776CL      CL97715  10.751   7.578   2.977 -0.4382 -0.1825 -0.1617
63777CL      CL97716   2.341  11.960   0.717 -0.0974 -0.4111 -0.4772
63778CL      CL97717  10.012   9.563  10.403 -0.4802  0.0858  0.1350
63779CL      CL97718   1.008  10.014   8.869  0.0048  0.4327  0.0103
63780CL      CL97719   7.216  10.224   4.617  0.3839 -0.0888 -0.0273
63781CL      CL97720   7.097  11.472   4.423 -0.0290 -0.1932  0.0019
63782CL      CL97721   0.354   6.700   9.867  0.2503  0.1937 -0.3205
63783CL      CL97722   4.309  10.861  10.842 -0.2405 -0.3256 -0.0405
63784CL      CL97723   5.996  12.375   5.783  0.0347 -0.0599 -0.0286
63785CL      CL97724   0.695   8.653   3.548 -0.2794 -0.1794 -0.0141
63786CL      CL97725  10.603   0.446  10.799 -0.1019 -0.2141 -0.2403
63787CL      CL97726   6.519   4.999   8.139  0.1803 -0.1117 -0.2116
63788CL      CL97727   5.292   6.517  10.067  0.2011  0.1593 -0.3005
63789CL      CL97728  10.263   9.573   3.638 -0.1636  0.4522  0.4475
63790CL      CL97729   7.048   9.062   0.639  0.5344  0.2991 -0.1125
63791CL      CL97730   8.005   0.121  11.450  0.2086 -0.3013 -0.3768
63792CL      CL97731  10.625   6.866   2.916  0.0417  0.0403  0.1885
63793CL      CL97732   2.158   6.511  10.990 -0.4014  0.1159 -0.3563
63794CL      CL97733   0.392   5.471   2.698  0.0239  0.1349  0.0604
63795CL      CL97734   3.829   2.201   1.039 -0.3766 -0.3285  0.2300
63796CL      CL97735   8.025   6.943   4.892  0.0821  0.0364  0.5108
63797CL      CL97736   8.043   9.266  12.320 -0.4179 -0.1997 -0.1638
63798CL      CL97737   6.027   4.586   4.177  0.0201  0.2717  0.1071
63799CL      CL97738  12.115   5.792   6.816  0.0535  0.2798  0.3590
63800CL      CL97739   0.026   8.106   9.611 -0.4844  0.5064  0.0931
63801CL      CL97740   6.303  10.452   6.962  0.2218  0.2238 -0.4499
63802CL      CL97741  10.947   1.092   1.431 -0.1436 -0.3754 -0.4753
63803CL      CL97742   3.208   3.311   1.740  0.0305 -0.0498  0.1630
63804CL      CL97743   0.635  10.731   9.637  0.0667  0.1486 -0.4668
63805CL      CL97744   3.117   3.869   3.250  0.0918  0.2828  0.2841
63806CL      CL97745   1.409  10.216  10.962  0.2734 -0.2255  0.3846
63807CL      CL97746   6.560  11.866   1.574 -0.1008 -0.5349 -0.0344
63808CL      CL97747   5.617   6.947   5.518 -0.0018 -0.1120 -0.1545
63809CL      CL97748   8.254   7.050  10.150 -0.0952 -0.2225 -0.3162
63810CL      CL97749   3.567   4.936   2.557 -0.2478  0.1384 -0.0069
63811CL      CL97750   1.233   2.443   6.805  0.0081 -0.3879  0.3188
63812CL      CL97751   4.395   1.938  10.752  0.4637  0.6464 -0.1849
63813CL      CL97752  11.694   3.474   9.534 -0.1039 -0.3777 -0.0115
63814CL      CL97753   1.864   5.847   6.996  0.1637  0.0251  0.1175
63815CL      CL97754   0.721   6.055   5.865  0.0219 -0.3787 -0.4260
63816CL      CL97755   1.139   0.970   2.108 -0.5530 -0.2183 -0.1938
63817CL      CL97756   5.446   2.649   2.833  0.3646 -0.4579 -0.0494
63818CL      CL97757   4.651   1.480   2.714  0.2621  0.2567  0.1661
63819CL      CL97758   6.838   8.426  12.152 -0.0167  0.2737  0.4482
63820CL      CL97759   3.304  11.887   9.303  0.1015 -0.4916 -0.0075
63821CL      CL97760   1.427   4.487   2.134 -0.1340  0.0114  0.0723
63822CL      CL97761   9.386   7.131  11.516 -0.2947  0.0788 -0.1677
63823CL      CL97762   5.937   1.604   6.169  0.1969 -0.4933 -0.0009
63824CL      CL97763   4.781   2.458  11.490 -0.1734  0.2107  0.2182
63825CL      CL97764  11.657   3.319   4.565  0.1064 -0.1772 -0.2735
63826CL      CL97765   7.398   4.413   4.851  0.1656 -0.1264 -0.2073
63827CL      CL97766   9.433   5.448   6.694 -0.2537 -0.4598  0.1475
63828CL      CL97767  12.526   3.586   8.275 -0.0591  0.2194  0.0881
63829CL      CL97768   2.597   0.335   3.366  0.0544 -0.1373 -0.2539
63830CL      CL97769   7.214   1.295   5.654  0.0499  0.3029  0.1988
63831CL      CL97770   9.908   8.974   1.246  0.0895 -0.1631 -0.1105
63832CL      CL97771  10.401  12.088  10.899  0.1625 -0.0214  0.1249
63833CL      CL97772   8.340   9.668   0.663  0.3593  0.0805 -0.5836
63834CL      CL97773   9.085   2.671   4.619  0.0456 -0.1833  0.4483
63835CL      CL97774   3.138  10.546   1.683 -0.2854  0.2435  0.3123
63836CL      CL97775   2.508   6.717  11.241  0.1916 -0.0388 -0.3671
63837CL      CL97776   6.770   4.364   5.404  0.1697 -0.1260  0.1892
63838CL      CL97777   6.945  11.584   2.083 -0.0875 -0.2420 -0.3967
63839CL      CL97778   6.800   2.280   5.877  0.3447  0.1829  0.1819
63840CL      CL97779   5.729  11.956   3.124 -0.1129  0.0115 -0.7324
63841CL      CL97780   7.371   6.738   0.492 -0.0838 -0.1403 -0.1560
63842CL      CL97781  11.283   0.131   0.063 -0.2335 -0.4322 -0.4450
63843CL      CL97782   0.190   7.450  10.028 -0.0009  0.3052  0.3115
63844CL      CL97783   9.597   7.633   2.774  0.1111  0.0241  0.0285
63845CL      CL97784   0.722  10.869   4.891 -0.1033  0.1371 -0.1229
63846CL      CL97785  10.329   5.728   4.546  0.1761  0.1097  0.5104
63847CL      CL97786   6.945   3.601   9.065 -0.0554 -0.1898 -0.2753
63848CL      CL97787   3.257   1.206   6.882 -0.3721  0.1295  0.4205
63849CL      CL97788   4.912   9.725   3.766 -0.0159  0.1745  0.3595
63850CL      CL97789  10.677   4.994   2.266 -0.0720 -0.0074  0.3598
63851CL      CL97790   7.059  12.521   0.309 -0.1332 -0.3242  0.0716
63852CL      CL97791   6.899   3.586  12.527  0.7360  0.1952 -0.2667
63853CL      CL97792   0.956   1.212   5.803 -0.0368 -0.2576 -0.2925
63854CL      CL97793   7.561   7.855   7.249 -0.1663 -0.0187 -0.1729
63855CL      CL97794  10.357   7.401  12.498  0.1498 -0.2189  0.0527
63856CL      CL97795   5.622   9.447   9.399  0.0015  0.3229 -0.2180
63857CL      CL97796  11.918   9.220   2.175  0.6563  0.5328 -0.5530
63858CL      CL97797   4.738   7.083  10.522  0.5143  0.1570 -0.4273
63859CL      CL97798   7.189  10.314   1.453  0.1245 -0.6141 -0.2314
63860CL      CL97799   3.115   1.422   6.195  0.0967 -0.1034 -0.2924
63861CL      CL97800   5.874   0.923   2.709 -0.6678 -0.0283  0.0373
63862CL      CL97801   8.195   4.577   9.919  0.2716  0.0210  0.1113
63863CL      CL97802   8.467  11.035   3.869  0.0755  0.4097  0.1844
63864CL      CL97803   1.079   4.983   1.611  0.0070  0.1667  0.1006
63865CL      CL97804  10.159  12.266   9.295 -0.0611  0.4781 -0.0993
63866CL      CL97805   9.546  10.206   2.739 -0.1286 -0.0398  0.1534
63867CL      CL97806  11.404   1.352   3.686 -0.0539  0.0078  0.3250
63868CL      CL97807   1.359   9.856   0.018  0.1544 -0.0726 -0.2915
63869CL      CL97808   2.968   3.225   4.333 -0.2533  0.4542  0.2837
63870CL      CL97809  10.585   5.298   5.866 -0.2811  0.4615  0.0466
63871CL      CL97810   5.251  11.762  11.194 -0.2067  0.0252  0.3385
63872CL      CL97811   8.830  11.326   9.728 -0.5134  0.2865  0.1726
63873CL      CL97812   8.067  12.369   4.772 -0.2613 -0.2175 -0.4463
63874CL      CL97813   8.543   5.123   3.571 -0.1368  0.1104  0.1763
63875CL      CL97814   3.183   0.787   8.888 -0.3849 -0.4441  0.2040
63876CL      CL97815  10.554  11.093   3.727 -0.1452  0.0162 -0.0942
63877CL      CL97816   7.064  12.368   6.703  0.4556 -0.4808 -0.2546
63878CL      CL97817  12.093   9.233   0.367  0.3844 -0.3611  0.7707
63879CL      CL97818   3.207   6.605   2.532  0.1127 -0.0487 -0.1334
63880CL      CL97819   0.408   7.904   8.101 -0.1304  0.1025 -0.3382
63881CL      CL97820   7.938   7.906   8.759 -0.4287  0.1369  0.0911
63882CL      CL97821   2.171   3.426   4.505  0.3111  0.1297  0.1577
63883CL      CL97822   7.178  11.528  10.518  0.1253  0.0543 -0.2600
63884CL      CL97823   1.639   2.140   1.116  0.2685 -0.1494  0.4231
63885CL      CL97824   6.778   5.525  11.546 -0.4293  0.0317  0.0139
63886CL      CL97825   7.007   6.034   4.841  0.6144 -0.3246 -0.2067
63887CL      CL97826  11.725   1.942  11.645  0.2465  0.1303  0.2402
63888CL      CL97827   3.072   6.693   5.449 -0.4714 -0.0404 -0.2320
63889CL      CL97828   3.748   6.163  12.308  0.4774  0.1776 -0.1138
63890CL      CL97829   6.552  11.010   5.970 -0.0611 -0.0724  0.0851
63891CL      CL97830   2.468  12.210   8.280 -0.1839 -0.3627  0.2530
63892CL      CL97831   9.666   1.001   4.128 -0.1785 -0.1750  0.4906
63893CL      CL97832  10.015   6.722   9.878  0.1928  0.3511 -0.3722
63894CL      CL97833   9.339   2.366   9.686  0.0736 -0.2775  0.1916
63895CL      CL97834   8.719  12.514   7.616  0.0151  0.2446 -0.2017
63896CL      CL97835   3.050   5.783   5.743  0.3334 -0.0396  0.2509
63897CL      CL97836   3.562   9.575   2.377  0.1930 -0.0117  0.3777
63898CL      CL97837  10.289   4.604   3.703  0.4451 -0.3673  0.1361
63899CL      CL97838   1.036   1.279   9.413 -0.0402 -0.2746 -0.2004
63900CL      CL97839   2.226   9.316   7.502  0.2271 -0.3113 -0.4329
63901CL      CL97840   1.129   1.925  12.268  0.0429  0.2501 -0.2733
63902CL      CL97841   9.976   8.762   9.872  0.2791 -0.4105 -0.0688
63903CL      CL97842  11.405   4.397  10.200 -0.2163  0.1214  0.0134
63904CL      CL97843   3.590   7.219   4.205  0.1175  0.4507  0.2895
63905CL      CL97844   7.405  10.340   3.283 -0.0098 -0.1876 -0.0876
63906CL      CL97845   2.958   6.786   5.023 -0.4406 -0.1124  0.0262
  12.57884  12.57884  12.57884
